G5.5-PAMAM in water
172013
    1aaa     C1    1  11.297   9.187   2.310 -0.2457  0.4579  0.1947
    1aaa     H1    2  11.318   9.293   2.295  0.9038  0.7698  3.1679
    1aaa     H2    3  11.280   9.182   2.419  1.2132 -0.5430  0.4037
    1aaa     C2    4  11.426   9.108   2.286  0.2577  0.2130  0.1696
    1aaa     H3    5  11.416   9.003   2.317  0.1172  0.0269 -0.4995
    1aaa     H4    6  11.451   9.102   2.180 -3.0819  1.2556 -0.7893
    1aaa     N1    7  11.543   9.172   2.352 -0.3949  0.6811 -0.9271
    1aaa     N2    8  11.176   9.144   2.236 -0.1813  0.8273  0.1352
    1aaa     C3    9  11.124   9.022   2.297 -0.2436  0.1148  0.1239
    1aaa     H5   10  11.201   8.946   2.277 -1.6184 -1.5618  0.8808
    1aaa     H6   11  11.035   8.985   2.244  0.3369 -0.1222 -0.7097
    1aaa     C4   12  11.172   9.147   2.092  0.2819  0.0009  0.2515
    1aaa     H7   13  11.261   9.105   2.046  0.1202  0.9505 -0.9911
    1aaa     H8   14  11.076   9.108   2.055  0.0308  1.5072 -0.7937
    1aaa     C5   15  11.656   9.202   2.263  0.4172 -0.0306 -0.4387
    1aaa     H9   16  11.622   9.260   2.175 -0.8612  1.4482  0.9562
    1aaa    H10   17  11.729   9.270   2.308 -1.9038  2.0568  0.4428
    1aaa     C6   18  11.585   9.133   2.493  0.0633  0.0182 -0.1122
    1aaa    H11   19  11.664   9.199   2.528 -0.9261  1.0769  0.1808
    1aaa    H12   20  11.629   9.032   2.491  1.1510  0.4350  1.5997
    1aaa     C7   21  11.734   9.074   2.240  0.7840 -0.2673 -0.1279
    1aaa    H13   22  11.789   9.056   2.334 -0.7511  0.4930  0.9700
    1aaa    H14   23  11.657   8.997   2.225  0.1812  0.5454 -1.2783
    1aaa     C8   24  11.473   9.137   2.591 -0.5679 -0.5485 -0.2691
    1aaa    H15   25  11.423   9.235   2.593  1.5202  0.5677 -0.1234
    1aaa    H16   26  11.403   9.055   2.571 -0.2837 -1.1897  1.1878
    1aaa     C9   27  11.178   9.296   2.061 -0.2049  0.0329 -0.3314
    1aaa    H17   28  11.103   9.353   2.116 -0.1946 -1.1102  0.9170
    1aaa    H18   29  11.282   9.333   2.061 -0.0967 -0.2249 -1.3844
    1aaa    C10   30  11.081   9.041   2.449 -0.4610  0.5845  0.3885
    1aaa    H19   31  11.156   8.998   2.516  0.5074  0.0176 -0.9978
    1aaa    H20   32  11.065   9.146   2.475 -3.5435 -0.8032  5.4097
    1aaa    C11   33  11.135   9.310   1.917 -0.4462  0.1859 -0.0045
    1aaa    C12   34  10.945   8.988   2.469 -0.4429  0.4545  0.0108
    1aaa    C13   35  11.837   9.067   2.134  0.4565 -0.7968  0.6043
    1aaa    C14   36  11.539   9.119   2.729 -0.0100 -0.0232  0.3923
    1aaa     O1   37  11.018   9.305   1.886  0.1565  0.1186  0.1573
    1aaa     O2   38  11.952   9.053   2.167 -0.5106  0.1486  0.1394
    1aaa     O3   39  11.659   9.126   2.754  0.3054  0.5972 -0.1782
    1aaa     O4   40  10.925   8.867   2.488  0.1628  0.0155  0.3615
    2bbb     C1   41  11.332   9.374   1.603  1.0114 -0.7766  0.1208
    2bbb     H1   42  11.417   9.308   1.621 -0.2233 -2.1717  1.0172
    2bbb     H2   43  11.360   9.473   1.643  0.7190 -0.7836  0.3509
    2bbb     C2   44  11.215   9.316   1.686  0.0503  0.2413 -0.2139
    2bbb     H3   45  11.121   9.364   1.654 -1.0734  0.6981  3.2997
    2bbb     H4   46  11.198   9.210   1.664 -1.3750  0.3106  0.4141
    2bbb     N1   47  11.307   9.401   1.465  0.0896 -0.2003  0.6959
    2bbb     C3   48  11.285   9.284   1.380  0.1977 -0.3175 -0.1560
    2bbb     H5   49  11.333   9.199   1.430  2.1065  1.0101  0.4012
    2bbb     H6   50  11.339   9.302   1.286  2.9535 -1.3613  1.1150
    2bbb     C4   51  11.415   9.487   1.414 -0.0111 -0.5228 -0.2131
    2bbb     H7   52  11.430   9.572   1.482  1.7198 -1.5032  0.7000
    2bbb     H8   53  11.508   9.430   1.406 -0.0506 -0.7106  0.6399
    2bbb     C5   54  11.368   9.548   1.286  0.1093  0.6423 -0.2850
    2bbb     H9   55  11.402   9.471   1.215 -0.0971 -0.7144  1.0131
    2bbb    H10   56  11.259   9.560   1.284  0.0951  1.2996  1.8214
    2bbb     C6   57  11.139   9.269   1.354 -0.0998  0.5039 -0.4504
    2bbb    H11   58  11.091   9.256   1.451  2.0575  0.4376  0.6610
    2bbb    H12   59  11.101   9.366   1.319  3.1780  2.7871  1.7725
    2bbb     C7   60  11.435   9.681   1.262  0.8758  0.2359 -0.3508
    2bbb     C8   61  11.112   9.147   1.264  0.3829 -0.0226 -0.4961
    2bbb     O1   62  11.547   9.697   1.212  0.2590  0.3035 -0.3925
    2bbb     O2   63  11.194   9.060   1.251 -0.0657  0.5673 -0.5314
    2bbb     N4   64  11.237   9.324   1.829 -0.5327 -0.1885  0.4068
    2bbb    H21   65  11.329   9.327   1.870 -1.7571 -0.2056  3.4004
    3bbb     C1   66  10.641   9.102   2.590 -0.3056  0.0258 -0.0825
    3bbb     H1   67  10.661   9.209   2.585 -0.9740  0.1668  0.2113
    3bbb     H2   68  10.701   9.067   2.676 -1.3812  0.9715  1.0891
    3bbb     C2   69  10.700   9.046   2.461  0.7956 -0.9942  0.0272
    3bbb     H3   70  10.686   8.938   2.459 -1.0698 -0.7849 -2.5125
    3bbb     H4   71  10.636   9.086   2.382  0.3914 -0.1830  0.7478
    3bbb     N1   72  10.501   9.064   2.607 -0.5963 -0.2360 -0.2920
    3bbb     C3   73  10.483   8.925   2.634  0.5436  0.4486  0.3671
    3bbb     H5   74  10.468   8.916   2.742 -0.3355  1.7239  0.3859
    3bbb     H6   75  10.565   8.860   2.603 -0.7510 -0.7262 -0.7139
    3bbb     C4   76  10.424   9.145   2.703  0.0872 -0.1091 -0.7024
    3bbb     H7   77  10.325   9.102   2.717  0.5365 -0.8369  0.3858
    3bbb     H8   78  10.467   9.140   2.804 -1.3378 -2.0781 -0.1446
    3bbb     C5   79  10.417   9.291   2.670  0.7706 -0.4693 -0.7472
    3bbb     H9   80  10.504   9.352   2.694 -0.3483  0.5087  1.0527
    3bbb    H10   81  10.402   9.308   2.562  1.7972  0.9237 -0.7016
    3bbb     C6   82  10.368   8.870   2.553 -0.4608  0.4412 -0.0548
    3bbb    H11   83  10.278   8.919   2.592 -0.0358  1.5419 -0.4407
    3bbb    H12   84  10.380   8.883   2.445  2.3370 -0.2951  0.0815
    3bbb     C7   85  10.303   9.354   2.746  0.3306  0.6398 -0.3202
    3bbb     C8   86  10.334   8.727   2.583 -0.8982 -0.6465  0.3810
    3bbb     O1   87  10.192   9.357   2.701 -0.3175 -0.0013  0.0783
    3bbb     O2   88  10.380   8.669   2.680  0.3604 -0.4770 -0.0059
    3bbb     N4   89  10.844   9.079   2.444  0.2496 -0.1520  0.4396
    3bbb    H21   90  10.873   9.170   2.409  0.2755 -0.9029 -1.6569
    4bbb     C1   91  11.798   8.978   1.758 -0.4104  0.2198  0.1992
    4bbb     H1   92  11.753   9.077   1.740  0.2247  1.0557  2.7069
    4bbb     H2   93  11.712   8.911   1.768 -0.8624  0.3446 -2.3097
    4bbb     C2   94  11.874   8.998   1.889 -0.0427 -0.4652  0.1953
    4bbb     H3   95  11.910   8.898   1.915 -0.5808 -0.3242  1.5704
    4bbb     H4   96  11.969   9.053   1.881 -0.0381  0.0662  3.0025
    4bbb     N1   97  11.878   8.937   1.637 -0.4853 -0.6055 -0.6042
    4bbb     C3   98  11.958   9.056   1.599 -0.3331  0.6884  0.6952
    4bbb     H5   99  12.039   9.075   1.670 -1.2491  1.0245  1.6825
    4bbb     H6  100  11.904   9.152   1.596  2.1871  2.1674 -1.0754
    4bbb     C4  101  11.941   8.809   1.642 -0.4127 -0.5109  0.0961
    4bbb     H7  102  12.005   8.778   1.558 -1.3084  0.4763 -0.9734
    4bbb     H8  103  11.998   8.798   1.736  0.4685 -0.9840 -0.4835
    4bbb     C5  104  11.833   8.705   1.635  0.1373  0.7798 -0.0225
    4bbb     H9  105  11.757   8.716   1.713  1.7188 -0.0005  1.7040
    4bbb    H10  106  11.779   8.716   1.540  0.6251 -1.8532 -0.6962
    4bbb     C6  107  12.012   9.041   1.461  0.3205  0.4405  0.2536
    4bbb    H11  108  12.080   8.958   1.437  1.1745  1.4931 -1.1225
    4bbb    H12  109  11.927   9.006   1.402  0.8377 -0.2743 -0.0946
    4bbb     C7  110  11.889   8.568   1.635 -0.0596 -0.1712  0.1170
    4bbb     C8  111  12.065   9.168   1.408  0.1514 -0.1101  0.2585
    4bbb     O1  112  12.001   8.548   1.682 -0.4191  0.3125  0.1584
    4bbb     O2  113  11.999   9.224   1.322 -0.1340  0.7552  0.3155
    4bbb     N4  114  11.795   9.058   1.999 -0.1263  0.2474 -0.4995
    4bbb    H21  115  11.695   9.064   1.988 -0.1033 -1.8718 -3.1913
    5bbb     C1  116  11.527   9.026   3.031  0.5889 -0.0193  0.3836
    5bbb     H1  117  11.620   9.014   2.975  0.4393  2.4718 -0.5495
    5bbb     H2  118  11.477   8.929   3.027  2.3467 -1.1760  3.2922
    5bbb     C2  119  11.447   9.130   2.963  0.0873 -0.4505  0.6525
    5bbb     H3  120  11.348   9.122   3.010  0.2312 -1.0731  0.8571
    5bbb     H4  121  11.498   9.227   2.976 -0.8225  0.0646  0.4837
    5bbb     N1  122  11.563   9.069   3.166 -0.2263  0.0727 -0.5664
    5bbb     C3  123  11.684   9.155   3.164  0.3532  0.2402  0.2337
    5bbb     H5  124  11.669   9.232   3.087 -0.6117 -0.6498 -0.4890
    5bbb     H6  125  11.770   9.094   3.134  0.0966 -0.1058  0.1978
    5bbb     C4  126  11.586   8.949   3.243  0.0112 -0.0338 -0.2886
    5bbb     H7  127  11.637   8.867   3.191  0.6248 -0.9237  1.6266
    5bbb     H8  128  11.653   8.965   3.328  0.0910  0.6132 -0.4720
    5bbb     C5  129  11.453   8.896   3.302 -0.8445  0.0640 -0.2227
    5bbb     H9  130  11.409   8.956   3.382  1.7733  1.4893  0.2610
    5bbb    H10  131  11.367   8.898   3.234 -1.6793  1.0906  0.8394
    5bbb     C6  132  11.707   9.233   3.293 -0.0769 -0.1697 -0.3858
    5bbb    H11  133  11.610   9.261   3.337  0.1780 -1.1815  0.8646
    5bbb    H12  134  11.750   9.166   3.368 -0.7875  0.2187  0.3902
    5bbb     C7  135  11.466   8.756   3.351 -0.5381  0.5374  0.7513
    5bbb     C8  136  11.788   9.358   3.275 -0.0719  0.9194  0.6742
    5bbb     O1  137  11.488   8.668   3.266 -0.4802  0.7784 -0.3150
    5bbb     O2  138  11.901   9.368   3.314  0.3692 -0.3452 -0.0087
    5bbb     N4  139  11.442   9.103   2.818 -0.3920  0.6436  0.3101
    5bbb    H21  140  11.347   9.104   2.781 -0.8324  1.1649  1.3929
    6bbb     C1  141  11.274  10.024   1.293 -0.5551  0.2516 -0.1399
    6bbb     H1  142  11.276   9.998   1.399  0.9903 -0.6943 -0.3790
    6bbb     H2  143  11.173  10.026   1.250 -0.6408  0.1002  0.0537
    6bbb     C2  144  11.363   9.918   1.230  0.4107  0.6328 -0.0108
    6bbb     H3  145  11.340   9.917   1.123 -0.5239  2.0071  0.1592
    6bbb     H4  146  11.464   9.958   1.245  0.1576  1.6529 -0.9040
    6bbb     N1  147  11.325  10.159   1.272 -0.0805 -0.0556  0.0734
    6bbb     C3  148  11.278  10.256   1.371  0.1599 -0.7112 -0.0397
    6bbb     H5  149  11.240  10.213   1.465  0.6343 -0.6337  0.1898
    6bbb     H6  150  11.201  10.315   1.320  0.6342  0.3008  0.3934
    6bbb     C4  151  11.311  10.213   1.129  0.1039 -0.9131 -1.0892
    6bbb     H7  152  11.215  10.172   1.094 -0.8481  1.3483 -1.2772
    6bbb     H8  153  11.297  10.322   1.127  0.1732 -0.8519  0.3062
    6bbb     C5  154  11.430  10.161   1.048 -0.2791 -0.3125 -0.2600
    6bbb     H9  155  11.518  10.146   1.112 -0.1016  1.5657 -0.0061
    6bbb    H10  156  11.396  10.068   1.001  3.2554 -1.7258 -0.3286
    6bbb     C6  157  11.399  10.339   1.402 -0.5221  0.2976 -0.1900
    6bbb    H11  158  11.481  10.282   1.447 -1.3924 -1.1098 -0.3303
    6bbb    H12  159  11.428  10.386   1.307 -3.1135 -1.6023 -2.0589
    6bbb     C7  160  11.469  10.242   0.928 -0.3495  0.1988  0.1759
    6bbb     C8  161  11.351  10.443   1.493  0.2351  0.2047 -0.4982
    6bbb     O1  162  11.410  10.341   0.890  0.0489 -0.4885 -0.0152
    6bbb     O2  163  11.375  10.444   1.611 -0.4643 -0.2091  0.2645
    6bbb     N4  164  11.349   9.781   1.280  0.4782  0.1767 -0.8587
    6bbb    H21  165  11.273   9.762   1.344  0.4242 -0.7066 -1.1702
    7bbb     C1  166  10.865   8.985   1.068 -0.3492  0.1841 -0.1391
    7bbb     H1  167  10.830   9.074   1.014 -0.6807 -0.4612 -0.9851
    7bbb     H2  168  10.775   8.923   1.075  0.1916 -0.9920 -2.7087
    7bbb     C2  169  10.909   9.022   1.207  0.5194 -0.6727 -0.0742
    7bbb     H3  170  10.818   9.039   1.265 -0.8174  3.2266 -2.8573
    7bbb     H4  171  10.965   8.940   1.254  2.2710  0.0077 -0.8859
    7bbb     N1  172  10.959   8.916   0.988 -0.0398 -0.8087  0.5426
    7bbb     C3  173  10.947   8.972   0.855 -0.3101 -0.9147 -0.1994
    7bbb     H5  174  10.964   9.081   0.855  0.8667 -1.0234  2.6299
    7bbb     H6  175  10.850   8.949   0.809  1.1112 -1.8764 -2.9910
    7bbb     C4  176  10.943   8.773   0.983 -0.4114 -1.0754  0.3423
    7bbb     H7  177  10.841   8.746   0.954  0.0198 -0.9768 -1.3585
    7bbb     H8  178  11.026   8.747   0.916  0.2029  0.8889  0.2538
    7bbb     C5  179  10.984   8.714   1.122 -0.1738 -0.2763  0.3849
    7bbb     H9  180  11.069   8.761   1.172 -0.3049 -1.3065  1.6116
    7bbb    H10  181  10.895   8.724   1.185 -0.7442  1.5987 -0.6361
    7bbb     C6  182  11.048   8.923   0.754 -0.2170  0.0890  0.1239
    7bbb    H11  183  11.141   8.931   0.811 -0.1422  1.7387 -0.1731
    7bbb    H12  184  11.028   8.821   0.718  0.3751 -0.3319  0.9732
    7bbb     C7  185  11.006   8.568   1.106 -0.6915  0.5324  0.2821
    7bbb     C8  186  11.055   9.019   0.633  0.9105  0.4961  0.7960
    7bbb     O1  187  10.972   8.499   1.014  0.3050 -0.1402  0.4846
    7bbb     O2  188  10.960   9.087   0.607  0.0805 -0.1513 -0.2100
    7bbb     N4  189  10.988   9.146   1.211 -0.1628 -0.0049  0.4414
    7bbb    H21  190  10.940   9.233   1.228 -1.7660 -0.8453  0.4193
    8bbb     C1  191  10.139   9.452   3.042  0.1058  0.1884  0.5222
    8bbb     H1  192  10.175   9.417   3.140 -1.8530  1.7132  1.8507
    8bbb     H2  193  10.092   9.370   2.987  0.4145 -0.5164  1.2782
    8bbb     C2  194  10.248   9.505   2.939  0.1245  0.0162 -0.4039
    8bbb     H3  195  10.188   9.551   2.860 -1.1194 -0.7095  0.0837
    8bbb     H4  196  10.318   9.579   2.979  0.7464 -0.2332 -1.0124
    8bbb     N1  197  10.034   9.553   3.058 -0.1693  0.3245  0.1414
    8bbb     C3  198  10.080   9.678   3.130 -0.0706 -0.3801 -0.0092
    8bbb     H5  199  10.173   9.714   3.083 -0.8567 -0.5649 -1.7862
    8bbb     H6  200  10.088   9.662   3.238  0.6717 -0.4095 -0.0595
    8bbb     C4  201   9.918   9.486   3.111  1.0158  0.4273  0.2320
    8bbb     H7  202   9.946   9.391   3.159 -1.0410 -0.5845 -0.4111
    8bbb     H8  203   9.871   9.530   3.199  2.1606  1.8700  0.1514
    8bbb     C5  204   9.815   9.445   3.005 -0.2383  0.3465 -0.0466
    8bbb     H9  205   9.753   9.531   2.977 -0.9589  0.0388  0.5728
    8bbb    H10  206   9.869   9.415   2.914  1.3264 -0.2444  1.0322
    8bbb     C6  207   9.980   9.790   3.109 -0.6897 -0.2599  0.4356
    8bbb    H11  208   9.959   9.817   3.005 -0.0085  2.3345  0.8895
    8bbb    H12  209   9.887   9.761   3.160  1.0875 -2.5751  2.6066
    8bbb     C7  210   9.718   9.337   3.053 -0.3414 -0.1242  0.3740
    8bbb     C8  211  10.041   9.902   3.183  0.0381 -0.4831 -0.3256
    8bbb     O1  212   9.730   9.270   3.156 -0.8056 -0.1404 -0.3106
    8bbb     O2  213  10.043   9.912   3.303 -0.1656  0.3838  0.4974
    8bbb     N4  214  10.334   9.406   2.871 -0.8494  0.8091 -0.0356
    8bbb    H21  215  10.430   9.386   2.897 -1.5378 -2.4090  0.4943
    9bbb     C1  216  10.168   8.443   2.526  0.2930  0.1564 -0.4164
    9bbb     H1  217  10.079   8.383   2.546  1.6584 -1.3834  1.3700
    9bbb     H2  218  10.241   8.418   2.604 -1.2656 -1.2958  0.6238
    9bbb     C2  219  10.124   8.587   2.551 -0.3749  0.0460  0.5172
    9bbb     H3  220  10.034   8.611   2.493 -1.8321 -1.7088  1.9430
    9bbb     H4  221  10.100   8.595   2.657 -2.8855  1.9151 -0.0922
    9bbb     N1  222  10.218   8.419   2.390 -0.1511 -0.6608  0.1880
    9bbb     C3  223  10.105   8.361   2.300 -0.4101 -0.1779  0.0902
    9bbb     H5  224  10.016   8.413   2.338 -1.2357 -1.7278  0.3648
    9bbb     H6  225  10.110   8.253   2.318 -2.0138  0.0475  2.2382
    9bbb     C4  226  10.328   8.322   2.392  0.2434 -0.3584 -0.0974
    9bbb     H7  227  10.299   8.237   2.454  1.5075 -2.0269 -1.7071
    9bbb     H8  228  10.335   8.280   2.291 -1.6731  1.9543 -1.3012
    9bbb     C5  229  10.458   8.379   2.437 -0.0166  0.1122 -0.4033
    9bbb     H9  230  10.500   8.453   2.366  2.1458  0.5682  1.2282
    9bbb    H10  231  10.436   8.432   2.530  1.0598  0.2539 -0.2115
    9bbb     C6  232  10.132   8.395   2.155 -0.2424  0.5872  0.0955
    9bbb    H11  233  10.122   8.502   2.132 -1.1448  0.3448 -0.7106
    9bbb    H12  234  10.232   8.378   2.114  0.3040  3.3625  0.1327
    9bbb     C7  235  10.561   8.271   2.451  0.5552  0.1918 -0.0660
    9bbb     C8  236  10.029   8.329   2.065 -0.1493 -0.1149 -0.9646
    9bbb     O1  237  10.599   8.202   2.354  0.3093  0.2278 -0.4740
    9bbb     O2  238   9.935   8.266   2.100  0.6303  0.4413  0.0240
    9bbb     N4  239  10.234   8.682   2.507  0.0336 -0.1586 -0.1431
    9bbb    H21  240  10.218   8.732   2.421 -1.9145  0.7988  0.7095
   10bbb     C1  241  11.783   8.227   1.495 -0.2535  0.5844  0.7570
   10bbb     H1  242  11.767   8.260   1.392  1.2129  0.9964  0.6345
   10bbb     H2  243  11.690   8.219   1.552 -0.6772 -3.6192 -0.2567
   10bbb     C2  244  11.875   8.329   1.560  0.7465  0.0615 -0.7596
   10bbb     H3  245  11.912   8.290   1.656 -2.8361  2.2788  1.7521
   10bbb     H4  246  11.969   8.337   1.504  0.3190  2.2691 -1.2381
   10bbb     N1  247  11.839   8.095   1.493 -0.3772  0.3901  0.5715
   10bbb     C3  248  11.845   8.036   1.633  0.6659 -0.8485 -0.1531
   10bbb     H5  249  11.814   8.106   1.712 -4.9058 -2.5736 -0.3978
   10bbb     H6  250  11.940   7.985   1.656  0.1378 -1.0663  1.7786
   10bbb     C4  251  11.967   8.090   1.421  0.6263  0.4971 -0.1585
   10bbb     H7  252  11.954   8.161   1.338 -0.7851 -0.9861 -1.2646
   10bbb     H8  253  12.049   8.115   1.490 -0.6529 -0.0515  1.6444
   10bbb     C5  254  11.987   7.942   1.380 -0.1300  0.3256 -0.3910
   10bbb     H9  255  11.993   7.875   1.467 -2.9849  1.1136  0.5294
   10bbb    H10  256  11.893   7.918   1.330 -0.4794  1.2058 -0.1634
   10bbb     C6  257  11.737   7.928   1.648  0.2978  0.0100  0.3030
   10bbb    H11  258  11.639   7.956   1.607  0.4595 -1.7336 -1.4490
   10bbb    H12  259  11.770   7.836   1.599  0.6809  0.2123  0.1764
   10bbb     C7  260  12.106   7.932   1.285  0.2167  0.0376 -0.3438
   10bbb     C8  261  11.723   7.897   1.795 -0.0219  0.3803 -0.7949
   10bbb     O1  262  12.177   8.029   1.266 -0.1610  0.4149  0.0981
   10bbb     O2  263  11.815   7.901   1.875 -0.4066  0.2804  0.5373
   10bbb     N4  264  11.814   8.465   1.580  0.3469  0.3995  0.2904
   10bbb    H21  265  11.727   8.490   1.534  0.6876  1.7423  0.3194
   11bbb     C1  266  12.369   9.387   1.478 -0.3513  0.1530  0.5091
   11bbb     H1  267  12.424   9.301   1.519  0.0401  0.6916  1.1528
   11bbb     H2  268  12.338   9.441   1.569  1.0438 -3.1652  3.1530
   11bbb     C2  269  12.246   9.340   1.401 -0.0505 -0.1226  0.0365
   11bbb     H3  270  12.181   9.427   1.389  0.8884  0.5455 -0.3157
   11bbb     H4  271  12.288   9.317   1.302  0.4773 -0.3949  0.3207
   11bbb     N1  272  12.462   9.465   1.396  0.7470 -0.1520 -0.4335
   11bbb     C3  273  12.588   9.499   1.464 -0.7370 -0.0069 -0.0969
   11bbb     H5  274  12.578   9.544   1.563  0.4597 -2.4310  1.2139
   11bbb     H6  275  12.636   9.570   1.396 -2.7477 -0.7068 -2.3822
   11bbb     C4  276  12.409   9.587   1.333 -0.2504  0.7306  0.0198
   11bbb     H7  277  12.489   9.636   1.276 -2.2815  3.9537 -0.3433
   11bbb     H8  278  12.334   9.560   1.258  1.4514  1.2769 -1.9638
   11bbb     C5  279  12.347   9.687   1.431 -0.3581  1.0847  0.0930
   11bbb     H9  280  12.272   9.647   1.500 -0.8565 -0.7578 -1.4283
   11bbb    H10  281  12.432   9.716   1.493 -0.8113  2.0603  0.2729
   11bbb     C6  282  12.679   9.374   1.473  0.4155  0.0068 -0.7398
   11bbb    H11  283  12.774   9.406   1.517  0.3591  0.7038 -1.1176
   11bbb    H12  284  12.642   9.302   1.548 -0.9454  0.3082 -1.0947
   11bbb     C7  285  12.295   9.810   1.366 -1.3973  0.5374 -0.0151
   11bbb     C8  286  12.698   9.301   1.336  0.2397  0.0855 -0.3412
   11bbb     O1  287  12.367   9.872   1.295 -0.4665 -0.0984 -0.1093
   11bbb     O2  288  12.707   9.360   1.228 -0.0351 -0.6071 -0.1413
   11bbb     N4  289  12.174   9.222   1.459 -0.4126  0.1974 -0.1791
   11bbb    H21  290  12.214   9.164   1.531 -0.2802 -0.8733 -1.0925
   12bbb     C1  291  11.454   8.613   3.716 -0.2413  0.1156  0.2807
   12bbb     H1  292  11.441   8.510   3.748 -0.7796  0.0288 -0.2067
   12bbb     H2  293  11.355   8.658   3.731 -1.4325 -2.1153 -0.4233
   12bbb     C2  294  11.455   8.610   3.555 -0.0191  0.3743  0.0586
   12bbb     H3  295  11.539   8.549   3.520  1.1529  1.8788  0.1554
   12bbb     H4  296  11.360   8.577   3.512 -0.4579  3.8855 -2.0640
   12bbb     N1  297  11.559   8.679   3.792 -0.5712  0.3820  0.5726
   12bbb     C3  298  11.683   8.603   3.794 -0.3363 -0.0018 -0.1288
   12bbb     H5  299  11.695   8.549   3.700 -4.7356 -1.6675  0.0321
   12bbb     H6  300  11.679   8.532   3.878  0.8600  1.9841  1.7335
   12bbb     C4  301  11.525   8.699   3.931  0.4362 -0.1689  0.3409
   12bbb     H7  302  11.476   8.609   3.970  1.0714 -0.5957  0.1791
   12bbb     H8  303  11.607   8.728   3.998  0.5161 -1.1092  0.6584
   12bbb     C5  304  11.433   8.821   3.928  0.4060 -0.0588 -0.1401
   12bbb     H9  305  11.481   8.892   3.859 -0.1715  0.0667 -0.4150
   12bbb    H10  306  11.333   8.800   3.890 -0.9514  2.5067  1.7224
   12bbb     C6  307  11.805   8.690   3.820  0.2763 -0.3711  0.1877
   12bbb    H11  308  11.810   8.763   3.739  1.4499 -0.5586  0.0798
   12bbb    H12  309  11.793   8.737   3.919 -3.8686 -1.3533  0.3247
   12bbb     C7  310  11.430   8.890   4.069  0.5530  0.3072  0.2418
   12bbb     C8  311  11.925   8.603   3.830 -0.0254 -0.5682 -0.3681
   12bbb     O1  312  11.403   8.827   4.172  0.3453 -0.0302  0.3769
   12bbb     O2  313  11.993   8.573   3.732  0.1962  0.0065 -0.1258
   12bbb     N4  314  11.461   8.741   3.488 -0.0469 -0.2123  0.1110
   12bbb    H21  315  11.467   8.828   3.540  2.3989 -0.6612  0.7092
   13bbb     C1  316  11.704   9.712   3.162  0.2247 -0.3463 -0.0806
   13bbb     H1  317  11.633   9.727   3.244  0.8469  1.3420  0.1786
   13bbb     H2  318  11.644   9.665   3.082 -2.5014 -2.4189  2.9108
   13bbb     C2  319  11.794   9.601   3.205 -0.3035 -0.3701 -0.2746
   13bbb     H3  320  11.864   9.571   3.126 -0.8300 -0.1199 -0.8482
   13bbb     H4  321  11.862   9.623   3.287  1.8048 -1.4687 -1.6279
   13bbb     N1  322  11.784   9.828   3.112  0.1949 -0.3086 -0.4042
   13bbb     C3  323  11.867   9.897   3.214  0.2151 -0.3574 -0.7190
   13bbb     H5  324  11.826   9.884   3.315  0.8430  0.6802 -0.3115
   13bbb     H6  325  11.858  10.006   3.205 -1.8616 -0.3635  0.5603
   13bbb     C4  326  11.706   9.928   3.034 -0.2575  0.8327 -0.8811
   13bbb     H7  327  11.628   9.963   3.104 -0.1490 -0.5601 -0.0183
   13bbb     H8  328  11.770  10.016   3.029  0.8830  0.5285  3.5566
   13bbb     C5  329  11.660   9.873   2.903 -0.2765  0.0782  0.0183
   13bbb     H9  330  11.750   9.829   2.857  0.0692 -1.5771  2.0943
   13bbb    H10  331  11.569   9.812   2.906 -1.7366  2.1226 -0.8928
   13bbb     C6  332  12.012   9.855   3.192  0.6947  0.1453  0.1149
   13bbb    H11  333  12.009   9.749   3.221 -2.1978 -0.3620 -1.6028
   13bbb    H12  334  12.031   9.861   3.084 -0.3486  1.0823 -0.0323
   13bbb     C7  335  11.616   9.991   2.815 -0.5104 -0.0115 -0.5446
   13bbb     C8  336  12.103   9.935   3.273 -0.0542  0.3156  0.2593
   13bbb     O1  337  11.552  10.088   2.858  0.3384 -0.0724 -0.1885
   13bbb     O2  338  12.099  10.057   3.283  0.2058 -0.3979 -0.0648
   13bbb     N4  339  11.722   9.471   3.235 -0.3967 -0.1980 -0.5391
   13bbb    H21  340  11.625   9.458   3.212 -1.0558  0.0012  1.8605
   14bbb     C1  341  11.773  10.319   0.774 -0.1591  0.1940  1.1621
   14bbb     H1  342  11.854  10.245   0.777 -0.0403  0.3288  1.2931
   14bbb     H2  343  11.751  10.359   0.873 -1.5455 -1.7400  1.7022
   14bbb     C2  344  11.638  10.256   0.735  0.7658 -0.0889  0.1598
   14bbb     H3  345  11.572  10.330   0.688  1.3426  2.2851  2.7759
   14bbb     H4  346  11.661  10.175   0.665 -1.8120 -1.1389  0.3997
   14bbb     N1  347  11.810  10.433   0.677  0.4286 -0.5133 -0.0135
   14bbb     C3  348  11.855  10.382   0.550 -0.4655 -0.8989  0.4766
   14bbb     H5  349  11.769  10.322   0.520 -2.0610  0.9435  1.1186
   14bbb     H6  350  11.947  10.323   0.562 -0.1359 -0.2397  1.3167
   14bbb     C4  351  11.904  10.527   0.739  0.6720  0.6887  0.1155
   14bbb     H7  352  11.996  10.477   0.772  1.8893  1.3740 -2.0447
   14bbb     H8  353  11.933  10.608   0.672  0.7841 -0.2623 -1.0317
   14bbb     C5  354  11.825  10.596   0.848  0.0467 -0.0266  0.3293
   14bbb     H9  355  11.722  10.609   0.813 -0.8886 -1.7020  2.1989
   14bbb    H10  356  11.820  10.533   0.938  0.1027 -0.4746  0.0234
   14bbb     C6  357  11.885  10.491   0.444  0.2119 -0.1042 -1.0341
   14bbb    H11  358  11.799  10.559   0.436 -0.8599 -1.2329  0.3420
   14bbb    H12  359  11.977  10.543   0.474  0.8932 -1.0224 -1.4933
   14bbb     C7  360  11.887  10.734   0.881  0.0417  0.1256 -1.1706
   14bbb     C8  361  11.913  10.427   0.311  0.0906 -0.4724  0.5959
   14bbb     O1  362  11.995  10.731   0.937  0.3400  0.1597  0.1179
   14bbb     O2  363  12.025  10.403   0.285  0.2288 -0.2562 -0.4172
   14bbb     N4  364  11.573  10.186   0.849  0.2238 -0.5260  0.0370
   14bbb    H21  365  11.610  10.098   0.883 -1.6873 -0.9460  1.1339
   15bbb     C1  366  11.329  10.766   1.535  0.1717 -0.7661  0.0638
   15bbb     H1  367  11.375  10.790   1.438 -0.0244 -2.1884 -0.4147
   15bbb     H2  368  11.403  10.719   1.601  0.7318  0.7284  0.5251
   15bbb     C2  369  11.220  10.662   1.504  1.1943  0.4109 -0.7369
   15bbb     H3  370  11.171  10.634   1.598  3.2720 -0.3495  0.1953
   15bbb     H4  371  11.144  10.707   1.440  0.2827 -0.5183 -0.3282
   15bbb     N1  372  11.260  10.874   1.609 -0.0128 -0.7252  0.0458
   15bbb     C3  373  11.184  10.965   1.518  0.4709 -0.3590 -0.0857
   15bbb     H5  374  11.143  10.902   1.438  1.2463 -2.2692  0.9590
   15bbb     H6  375  11.246  11.039   1.467 -1.7467  0.3240 -1.9527
   15bbb     C4  376  11.363  10.941   1.694  0.0117 -0.1230  0.0751
   15bbb     H7  377  11.460  10.942   1.643  1.1519 -1.5828  2.0752
   15bbb     H8  378  11.333  11.044   1.715 -0.0940  0.3366 -2.0666
   15bbb     C5  379  11.374  10.865   1.826  0.3682 -0.6698 -0.1226
   15bbb     H9  380  11.269  10.854   1.857  0.7927 -2.8304  0.7040
   15bbb    H10  381  11.420  10.766   1.815  3.1592  0.7400 -2.2865
   15bbb     C6  382  11.071  11.027   1.601 -0.1610  0.2457  0.7996
   15bbb    H11  383  11.025  10.946   1.659 -0.9772 -0.0181 -0.1737
   15bbb    H12  384  11.107  11.094   1.680 -1.2491  3.3915 -1.1955
   15bbb     C7  385  11.437  10.949   1.941 -0.3954  0.5321  0.3566
   15bbb     C8  386  10.972  11.097   1.518  0.2923  1.1828  0.4982
   15bbb     O1  387  11.495  11.054   1.926  0.5245  0.1721  0.4718
   15bbb     O2  388  10.989  11.124   1.399  0.1141  0.3516 -0.0523
   15bbb     N4  389  11.277  10.544   1.436 -0.3293  0.9387 -0.0827
   15bbb    H21  390  11.266  10.522   1.337  2.8177  1.6124 -0.6704
   16bbb     C1  391  11.149   8.290   1.329  0.0741 -0.3481  0.0875
   16bbb     H1  392  11.057   8.255   1.378 -0.5989  0.0102 -0.9071
   16bbb     H2  393  11.185   8.371   1.394 -1.6441  0.6124 -0.1041
   16bbb     C2  394  11.103   8.360   1.204  0.6658  0.1211 -0.4569
   16bbb     H3  395  11.190   8.364   1.137  0.2912  1.2390 -0.8949
   16bbb     H4  396  11.029   8.303   1.147  0.9684 -0.1503 -0.5836
   16bbb     N1  397  11.240   8.175   1.313 -0.1172 -0.4107 -0.0727
   16bbb     C3  398  11.283   8.126   1.441 -0.4646  0.0872 -0.8314
   16bbb     H5  399  11.342   8.035   1.425  0.6613  0.7625 -0.6624
   16bbb     H6  400  11.195   8.105   1.504 -0.4594  1.0710 -0.4683
   16bbb     C4  401  11.224   8.077   1.206  0.6926 -0.5004 -0.2330
   16bbb     H7  402  11.239   8.125   1.108  0.0418  2.5057  1.0272
   16bbb     H8  403  11.299   7.999   1.220  1.6329  0.6815  1.8070
   16bbb     C5  404  11.080   8.015   1.216 -0.9139 -0.6040 -0.1016
   16bbb     H9  405  11.053   8.016   1.322  3.8211 -1.4240  1.3667
   16bbb    H10  406  11.021   8.090   1.162 -0.6306  1.6666  2.5383
   16bbb     C6  407  11.368   8.227   1.520  0.5361  0.7608  0.7743
   16bbb    H11  408  11.460   8.252   1.466  0.5901  0.7497  0.8606
   16bbb    H12  409  11.311   8.319   1.534  0.1521  0.6687 -0.1319
   16bbb     C7  410  11.076   7.873   1.159  0.5029  0.6046  0.7607
   16bbb     C8  411  11.423   8.178   1.646 -0.0882  0.2069 -0.2559
   16bbb     O1  412  11.170   7.798   1.178 -0.1557 -0.2487 -0.2398
   16bbb     O2  413  11.409   8.067   1.683  0.3328 -0.1530  0.2126
   16bbb     N4  414  11.060   8.504   1.217  0.0966 -0.0320  0.1081
   16bbb    H21  415  11.097   8.560   1.293  2.4340  0.3954 -1.2525
   17bbb     C1  416  11.346   9.195   0.514 -0.5989 -0.1099  0.4684
   17bbb     H1  417  11.424   9.121   0.538 -1.7440 -1.0706  1.3451
   17bbb     H2  418  11.326   9.248   0.607  2.7217 -0.8222  1.7248
   17bbb     C2  419  11.218   9.128   0.478  0.4476 -1.0390  0.4321
   17bbb     H3  420  11.136   9.200   0.466 -0.3335 -1.8877  0.5297
   17bbb     H4  421  11.217   9.078   0.380  0.5811  1.1395 -0.7445
   17bbb     N1  422  11.395   9.292   0.416  0.2413 -0.6447  0.0542
   17bbb     C3  423  11.438   9.217   0.298 -0.1108  0.5027  0.5862
   17bbb     H5  424  11.416   9.110   0.303  0.2486  0.4305  0.6472
   17bbb     H6  425  11.547   9.210   0.288  0.0935  1.0841  2.0132
   17bbb     C4  426  11.507   9.360   0.487 -0.1689  0.0084  0.1486
   17bbb     H7  427  11.485   9.398   0.587  0.5239  3.1548 -0.7821
   17bbb     H8  428  11.581   9.279   0.489 -0.2616 -0.0681  0.7126
   17bbb     C5  429  11.545   9.480   0.401 -0.0058  0.0339  0.0037
   17bbb     H9  430  11.626   9.448   0.334 -2.0464 -1.4104 -1.9794
   17bbb    H10  431  11.472   9.529   0.335  1.3184 -1.1780 -2.5018
   17bbb     C6  432  11.385   9.285   0.172 -0.0480  0.2706  0.0625
   17bbb    H11  433  11.276   9.293   0.181 -0.0810  0.4227 -0.4756
   17bbb    H12  434  11.418   9.389   0.167 -1.5632  0.7869  0.4274
   17bbb     C7  435  11.621   9.583   0.481  0.2895  0.0450 -0.0715
   17bbb     C8  436  11.420   9.210   0.050  0.2055  0.0603  0.6162
   17bbb     O1  437  11.701   9.547   0.561 -0.7674 -0.0713 -0.3121
   17bbb     O2  438  11.536   9.180   0.039 -0.0281 -0.1992 -0.0097
   17bbb     N4  439  11.176   9.027   0.574 -0.3086 -0.4548 -0.1909
   17bbb    H21  440  11.249   8.960   0.593  1.0665  1.3051  1.1171
   18bbb     C1  441   9.399   9.235   2.871 -0.3200  0.0365 -0.1415
   18bbb     H1  442   9.444   9.214   2.774  0.4516  2.9206 -0.4807
   18bbb     H2  443   9.367   9.339   2.865 -1.8709 -0.3958  0.0325
   18bbb     C2  444   9.510   9.229   2.977 -0.0463 -0.7053 -0.1850
   18bbb     H3  445   9.462   9.238   3.075  1.1605 -0.5534  0.4158
   18bbb     H4  446   9.556   9.129   2.977 -0.5812 -0.9553  0.0608
   18bbb     N1  447   9.273   9.149   2.900 -0.6177 -0.4708  0.4403
   18bbb     C3  448   9.195   9.111   2.780  0.1276  0.2933 -0.2125
   18bbb     H5  449   9.212   9.189   2.706  2.2338  0.6489  0.5572
   18bbb     H6  450   9.086   9.107   2.788  0.1351  0.0402 -0.2044
   18bbb     C4  451   9.193   9.207   3.008 -0.4117 -0.6679 -0.5755
   18bbb     H7  452   9.252   9.285   3.058  0.7705 -1.4291 -0.7253
   18bbb     H8  453   9.102   9.254   2.970 -1.3816 -2.7122 -0.9602
   18bbb     C5  454   9.160   9.098   3.108 -0.5182  0.1257 -0.2314
   18bbb     H9  455   9.120   9.011   3.054  1.3919 -0.5428 -0.6435
   18bbb    H10  456   9.254   9.076   3.160 -0.6647  0.0134 -0.0159
   18bbb     C6  457   9.256   8.979   2.734 -0.4383  0.2810 -0.3057
   18bbb    H11  458   9.204   8.950   2.642 -1.4201 -0.3949  0.4323
   18bbb    H12  459   9.365   8.982   2.723 -0.1910 -1.8007  0.8519
   18bbb     C7  460   9.065   9.158   3.208 -0.3639 -0.1208  0.3124
   18bbb     C8  461   9.213   8.867   2.826 -0.8211  0.2470  0.2974
   18bbb     O1  462   8.950   9.131   3.209  0.5232  0.4317  0.0307
   18bbb     O2  463   9.095   8.830   2.825  0.4144 -0.7600  0.1005
   18bbb     N4  464   9.614   9.328   2.972  0.0591  0.3480 -0.0776
   18bbb    H21  465   9.625   9.398   2.899  0.8487 -0.8186 -1.1333
   19bbb     C1  466  10.214  10.213   3.059 -0.3588  0.0435  0.3358
   19bbb     H1  467  10.275  10.176   2.975 -1.3919  0.4255 -0.6144
   19bbb     H2  468  10.270  10.285   3.120 -0.6171 -0.8846  1.7175
   19bbb     C2  469  10.195  10.097   3.151 -0.3639 -0.9809  0.1524
   19bbb     H3  470  10.296  10.058   3.167  0.2179  0.6152  0.5294
   19bbb     H4  471  10.167  10.137   3.249 -0.0397 -1.2375  0.3518
   19bbb     N1  472  10.095  10.271   2.999 -0.1323  0.2458  0.4185
   19bbb     C3  473   9.998  10.321   3.097 -0.3474 -0.6911 -0.7176
   19bbb     H5  474  10.022  10.417   3.146 -2.4507 -0.1965 -0.5437
   19bbb     H6  475   9.985  10.243   3.173  2.8333  0.5487  1.2658
   19bbb     C4  476  10.147  10.378   2.911  0.0628 -0.7034  0.9720
   19bbb     H7  477  10.097  10.473   2.936 -0.0584 -0.6408  0.4891
   19bbb     H8  478  10.253  10.401   2.924  0.3009 -0.6000 -0.9303
   19bbb     C5  479  10.121  10.345   2.760 -0.4640  0.4113  0.0865
   19bbb     H9  480  10.186  10.265   2.723 -1.0036  0.0823 -0.1567
   19bbb    H10  481  10.018  10.316   2.737  0.4582 -1.5999 -1.8595
   19bbb     C6  482   9.862  10.339   3.029 -0.1524  0.3964 -0.3914
   19bbb    H11  483   9.861  10.419   2.955 -1.3498 -0.6523 -1.5623
   19bbb    H12  484   9.845  10.242   2.980 -0.2108 -0.5183  1.3447
   19bbb     C7  485  10.158  10.468   2.689  0.3286 -0.0220 -0.3415
   19bbb     C8  486   9.764  10.376   3.131 -0.4178 -0.0066 -0.1049
   19bbb     O1  487  10.084  10.565   2.698 -0.0834 -0.1150  0.4285
   19bbb     O2  488   9.733  10.294   3.218  0.3456 -0.2022  0.6815
   19bbb     N4  489  10.097   9.997   3.099  0.1681 -0.0212  0.0565
   19bbb    H21  490  10.083   9.976   3.001 -1.0337 -0.2164  0.2528
   20bbb     C1  491  10.859   8.210   2.549  0.0254  0.5994  0.1305
   20bbb     H1  492  10.886   8.299   2.607  0.4651  3.6105 -4.2101
   20bbb     H2  493  10.834   8.252   2.451  1.0803  2.8430  0.7398
   20bbb     C2  494  10.728   8.147   2.595 -0.5028  0.0969  0.6714
   20bbb     H3  495  10.708   8.059   2.533 -3.4052  0.1407  1.3904
   20bbb     H4  496  10.733   8.114   2.699 -0.3585 -1.5193  0.1768
   20bbb     N1  497  10.968   8.116   2.542 -0.5279 -0.0308 -0.1758
   20bbb     C3  498  11.015   8.076   2.680  0.2356 -0.1965 -0.3197
   20bbb     H5  499  10.927   8.053   2.739  0.6921 -2.2023 -0.3666
   20bbb     H6  500  11.072   8.156   2.729 -1.3787 -0.2401  1.7063
   20bbb     C4  501  11.081   8.176   2.463 -0.3496  1.3288 -0.1042
   20bbb     H7  502  11.097   8.280   2.493  1.0196  1.0673  0.1024
   20bbb     H8  503  11.181   8.133   2.472  0.2375  2.4481 -1.0146
   20bbb     C5  504  11.052   8.195   2.321  0.1444  0.7710  0.0888
   20bbb     H9  505  11.068   8.102   2.265 -3.0658 -1.0227  1.8085
   20bbb    H10  506  10.947   8.218   2.300 -0.1856  0.1244  0.9456
   20bbb     C6  507  11.107   7.957   2.687 -0.3768 -0.0034  0.9979
   20bbb    H11  508  11.053   7.874   2.640  0.8629  0.6683 -1.8693
   20bbb    H12  509  11.194   7.981   2.624 -0.8843  0.8024  0.5866
   20bbb     C7  510  11.144   8.291   2.258  0.5798  0.6635 -0.1383
   20bbb     C8  511  11.134   7.929   2.831 -0.1530 -0.0040  0.3755
   20bbb     O1  512  11.226   8.356   2.313 -0.1828 -0.5685  0.0833
   20bbb     O2  513  11.240   7.934   2.877  0.1097 -0.7782 -0.1127
   20bbb     N4  514  10.607   8.237   2.576  0.6705 -0.1942  0.0593
   20bbb    H21  515  10.568   8.286   2.656 -0.7491  0.0817 -0.7749
   21bbb     C1  516  10.095   8.305   1.689 -0.3244 -0.3260  0.1276
   21bbb     H1  517  10.200   8.272   1.686  0.2924  1.4401  0.9793
   21bbb     H2  518  10.098   8.414   1.690 -3.8116 -0.1166  0.7210
   21bbb     C2  519  10.020   8.267   1.816 -0.1385 -0.2189  0.2102
   21bbb     H3  520   9.920   8.304   1.792  0.3337  1.7637  1.0813
   21bbb     H4  521  10.014   8.159   1.840 -1.4676 -0.8857 -2.7297
   21bbb     N1  522  10.022   8.256   1.574  0.7521 -0.1426 -0.0651
   21bbb     C3  523  10.079   8.144   1.490 -0.3005 -0.1699  0.2516
   21bbb     H5  524  10.179   8.177   1.462 -0.4041  0.4562  0.6015
   21bbb     H6  525  10.016   8.128   1.401 -2.0008  0.1973  1.3331
   21bbb     C4  526   9.986   8.371   1.485  0.0058 -0.0146 -0.5005
   21bbb     H7  527  10.082   8.425   1.475  1.2483 -1.9365  0.4366
   21bbb     H8  528   9.948   8.346   1.385 -0.1808  0.8417 -0.6562
   21bbb     C5  529   9.888   8.466   1.563 -0.1882  0.0191  0.2642
   21bbb     H9  530   9.803   8.419   1.614 -0.1619 -1.0821 -0.6455
   21bbb    H10  531   9.943   8.528   1.634 -0.1567 -0.8882  1.0428
   21bbb     C6  532  10.101   8.019   1.577 -0.0288 -0.0006 -0.1119
   21bbb    H11  533  10.185   8.037   1.645 -0.0717  0.4511 -0.1752
   21bbb    H12  534  10.014   7.998   1.640  1.5437  1.0115  2.5190
   21bbb     C7  535   9.829   8.572   1.471 -0.2567  0.6901  0.2773
   21bbb     C8  536  10.149   7.910   1.485  0.7297  0.6810 -0.5835
   21bbb     O1  537   9.899   8.665   1.430 -0.2088  0.1947 -0.6504
   21bbb     O2  538  10.153   7.905   1.362  0.2363 -0.1799  0.0710
   21bbb     N4  539  10.071   8.349   1.934 -0.4117  0.0691 -0.0901
   21bbb    H21  540  10.148   8.411   1.913  0.2060 -1.4242 -2.6666
   22bbb     C1  541  12.288   7.649   1.113 -0.1723 -0.0540 -1.0227
   22bbb     H1  542  12.203   7.597   1.067 -0.5851 -1.7149  1.4835
   22bbb     H2  543  12.300   7.612   1.215  2.4094  1.5662 -0.6432
   22bbb     C2  544  12.241   7.798   1.116  0.0711  0.2247  0.2464
   22bbb     H3  545  12.323   7.864   1.147 -1.7317  2.2857  0.7859
   22bbb     H4  546  12.209   7.815   1.013  1.3273 -0.4810 -0.2856
   22bbb     N1  547  12.415   7.627   1.036  0.5791 -0.4943 -0.0706
   22bbb     C3  548  12.526   7.681   1.104  0.0230  0.6605 -0.1338
   22bbb     H5  549  12.575   7.611   1.172  0.8199  0.2598 -1.0947
   22bbb     H6  550  12.501   7.765   1.169 -1.9426  1.8289 -2.2304
   22bbb     C4  551  12.431   7.479   1.016 -0.8017 -0.0122  0.6769
   22bbb     H7  552  12.529   7.460   0.970 -1.5735  0.6368 -1.3797
   22bbb     H8  553  12.443   7.431   1.113 -3.4575  1.7214  1.9819
   22bbb     C5  554  12.325   7.415   0.923 -0.2289 -0.2019 -0.3207
   22bbb     H9  555  12.237   7.381   0.980 -0.0245 -0.2720 -0.0434
   22bbb    H10  556  12.282   7.484   0.850  0.4461  2.1871  1.4004
   22bbb     C6  557  12.637   7.725   1.004  0.6574  0.0734 -0.0859
   22bbb    H11  558  12.686   7.639   0.957 -0.7052 -0.9163  0.2383
   22bbb    H12  559  12.600   7.785   0.920 -1.1696  1.4185  1.5759
   22bbb     C7  560  12.376   7.288   0.859 -0.0231 -0.4859 -0.7265
   22bbb     C8  561  12.732   7.800   1.086 -0.3391 -0.2247  0.5065
   22bbb     O1  562  12.389   7.270   0.741  0.7276 -0.1222 -0.5214
   22bbb     O2  563  12.771   7.759   1.196  0.0731  0.0902 -0.2848
   22bbb     N4  564  12.126   7.811   1.213 -0.2574 -0.2233 -0.2376
   22bbb    H21  565  12.061   7.737   1.236 -0.9237  1.3784  3.9121
   23bbb     C1  566  11.591   7.631   1.961 -0.2497  0.1253 -0.0292
   23bbb     H1  567  11.693   7.605   1.931 -0.4223 -0.4137 -0.1601
   23bbb     H2  568  11.517   7.585   1.893 -0.9025  1.5127 -0.3015
   23bbb     C2  569  11.573   7.783   1.963 -0.0255 -0.4694 -0.0179
   23bbb     H3  570  11.470   7.801   1.994 -0.6490 -1.3079 -1.4927
   23bbb     H4  571  11.631   7.838   2.038  1.1996 -2.9918  1.0352
   23bbb     N1  572  11.571   7.565   2.092 -0.0869  0.8273  0.1667
   23bbb     C3  573  11.630   7.430   2.113 -0.5902 -0.3789 -0.2972
   23bbb     H5  574  11.588   7.354   2.045  0.1914 -0.5961 -0.5453
   23bbb     H6  575  11.613   7.393   2.214  1.1569 -1.4295 -0.3413
   23bbb     C4  576  11.432   7.557   2.126  0.1004 -0.3858  0.3029
   23bbb     H7  577  11.397   7.661   2.131  0.7477 -0.0996 -0.5965
   23bbb     H8  578  11.375   7.514   2.042  0.4144  0.3592 -0.3059
   23bbb     C5  579  11.393   7.485   2.259 -1.0039  0.3553  0.3918
   23bbb     H9  580  11.391   7.375   2.249  0.7788  0.2143  1.1687
   23bbb    H10  581  11.462   7.513   2.340 -0.5392 -0.9152  0.4627
   23bbb     C6  582  11.782   7.424   2.122 -0.1078  0.4901  0.3522
   23bbb    H11  583  11.826   7.484   2.042  0.7154  1.2591  1.3485
   23bbb    H12  584  11.814   7.482   2.210 -0.3828  0.4789  0.4603
   23bbb     C7  585  11.256   7.518   2.309  0.0242  0.5481  0.9271
   23bbb     C8  586  11.825   7.286   2.154  0.0890  0.0424  0.3719
   23bbb     O1  587  11.175   7.579   2.243 -0.3281  0.0104  0.7359
   23bbb     O2  588  11.796   7.237   2.260 -0.3247  0.1445 -0.2910
   23bbb     N4  589  11.603   7.839   1.830  0.5304 -0.2313  0.3544
   23bbb    H21  590  11.539   7.837   1.752  0.4113 -0.3173  0.4531
   24bbb     C1  591  12.109  10.012   1.575 -0.6252  1.2298  0.0003
   24bbb     H1  592  12.209  10.013   1.618 -0.0120 -0.4156 -1.2723
   24bbb     H2  593  12.048   9.938   1.629 -1.1908  1.3591 -0.4431
   24bbb     C2  594  12.117   9.972   1.426  0.2539  0.4632 -0.2058
   24bbb     H3  595  12.014   9.974   1.387 -0.6272  0.3890  1.9637
   24bbb     H4  596  12.179  10.045   1.372  0.3622  0.7940  0.3645
   24bbb     N1  597  12.057  10.145   1.606 -1.0562  0.9746  0.5261
   24bbb     C3  598  11.912  10.171   1.579 -0.2553  0.0161 -0.2893
   24bbb     H5  599  11.886  10.138   1.478 -0.0855  3.5454 -1.6242
   24bbb     H6  600  11.899  10.279   1.596  0.9594 -0.3032  4.0417
   24bbb     C4  601  12.148  10.250   1.554 -1.1973  0.0235 -0.0411
   24bbb     H7  602  12.176  10.239   1.448 -1.5520  3.9813 -0.7003
   24bbb     H8  603  12.092  10.344   1.558 -1.8947 -0.4037  0.6766
   24bbb     C5  604  12.274  10.258   1.644 -0.4354  0.6202 -0.3128
   24bbb     H9  605  12.260  10.242   1.751 -0.8918  1.4947 -0.2334
   24bbb    H10  606  12.347  10.183   1.611 -1.8556 -0.1853 -1.8081
   24bbb     C6  607  11.817  10.105   1.680  0.1751  0.4018  0.7876
   24bbb    H11  608  11.832  10.000   1.709 -0.6334  0.3811  1.1523
   24bbb    H12  609  11.816  10.165   1.772  0.9199 -0.7346  1.5723
   24bbb     C7  610  12.336  10.393   1.627 -0.7177 -1.0286  0.2454
   24bbb     C8  611  11.677  10.095   1.625  0.1676 -0.5415 -0.2432
   24bbb     O1  612  12.280  10.485   1.574  0.0298 -0.4639  0.5254
   24bbb     O2  613  11.645  10.083   1.512  0.4426  0.3448  0.3279
   24bbb     N4  614  12.167   9.837   1.398 -0.0661 -0.4271 -0.1302
   24bbb    H21  615  12.114   9.768   1.451 -0.7544  1.4045  1.6839
   25bbb     C1  616  12.483   9.050   1.283  0.3752  0.3550  0.0088
   25bbb     H1  617  12.435   9.142   1.316  3.1932  2.0293 -0.2225
   25bbb     H2  618  12.479   8.979   1.367  1.1391  1.8599  1.3727
   25bbb     C2  619  12.623   9.082   1.247  0.1159  0.9035  0.4278
   25bbb     H3  620  12.669   8.986   1.224 -0.0539  0.8049  0.4927
   25bbb     H4  621  12.625   9.133   1.150 -0.2747  0.7569  0.3411
   25bbb     N1  622  12.428   8.987   1.163 -0.2062  0.0320  0.6252
   25bbb     C3  623  12.333   9.078   1.104  0.1797  0.6283 -0.4066
   25bbb     H5  624  12.244   9.087   1.167  1.5337  0.0968  1.6802
   25bbb     H6  625  12.298   9.033   1.010  2.1550  1.5540 -1.6651
   25bbb     C4  626  12.359   8.869   1.208 -0.3612 -0.4811 -0.3405
   25bbb     H7  627  12.290   8.897   1.288  2.0319  0.3614  1.5274
   25bbb     H8  628  12.307   8.830   1.119 -1.5376 -1.3828  0.7035
   25bbb     C5  629  12.454   8.760   1.255  0.2643  0.6206  0.8237
   25bbb     H9  630  12.550   8.786   1.209  0.6182 -1.6114  0.1686
   25bbb    H10  631  12.470   8.755   1.364  1.4743 -0.6201  0.6191
   25bbb     C6  632  12.379   9.221   1.057  0.5505 -0.2896 -0.4152
   25bbb    H11  633  12.296   9.272   1.006  0.8060  0.8785  0.3056
   25bbb    H12  634  12.403   9.286   1.142  0.0586  0.5825 -0.9147
   25bbb     C7  635  12.415   8.623   1.226 -0.3450 -0.0456  0.7323
   25bbb     C8  636  12.487   9.225   0.957 -0.2248 -0.4739  0.3053
   25bbb     O1  637  12.313   8.573   1.266  0.2401 -0.2197  0.8395
   25bbb     O2  638  12.527   9.128   0.896  0.0428  0.4128 -0.6509
   25bbb     N4  639  12.688   9.163   1.347 -0.2404 -0.6654  0.8331
   25bbb    H21  640  12.695   9.133   1.443  0.0851 -0.2080  0.9606
   26bbb     C1  641  11.635   9.211   4.160  0.0703  0.0035  0.1689
   26bbb     H1  642  11.693   9.217   4.067 -0.4407 -0.9547 -0.2241
   26bbb     H2  643  11.707   9.228   4.242 -0.5984  0.1069  0.7416
   26bbb     C2  644  11.582   9.065   4.171  0.5286  0.6810  0.0957
   26bbb     H3  645  11.670   9.000   4.170  0.3667  0.3798  1.8185
   26bbb     H4  646  11.536   9.048   4.270 -0.3004 -0.2472 -0.4300
   26bbb     N1  647  11.529   9.315   4.165 -0.5768  0.2673  0.3600
   26bbb     C3  648  11.586   9.448   4.152  0.1345  0.0715 -0.5101
   26bbb     H5  649  11.671   9.476   4.217  0.3290  1.2996 -1.2648
   26bbb     H6  650  11.511   9.526   4.174  2.0030  1.8261  0.0233
   26bbb     C4  651  11.429   9.302   4.275 -0.6367  0.1193 -0.0398
   26bbb     H7  652  11.363   9.389   4.265 -0.1831  0.4439 -0.2340
   26bbb     H8  653  11.366   9.212   4.276 -1.0124  0.3690  1.7328
   26bbb     C5  654  11.487   9.309   4.415  0.1098  0.0457  0.0958
   26bbb     H9  655  11.555   9.224   4.427  1.0417  0.4479 -1.9551
   26bbb    H10  656  11.539   9.402   4.441 -1.4134  1.0145 -0.1819
   26bbb     C6  657  11.628   9.480   4.006  0.3335 -0.8973 -0.7594
   26bbb    H11  658  11.734   9.455   3.991  0.3709 -1.7119  0.6316
   26bbb    H12  659  11.566   9.418   3.941  1.6417 -1.3152 -1.6442
   26bbb     C7  660  11.377   9.303   4.518  0.9467  1.0914 -0.2690
   26bbb     C8  661  11.611   9.627   3.962 -0.3116  0.5634  0.2217
   26bbb     O1  662  11.301   9.393   4.537  0.3964 -0.1239 -0.3363
   26bbb     O2  663  11.534   9.653   3.873  0.7517  0.7150 -0.0233
   26bbb     N4  664  11.479   9.017   4.069 -0.3327 -0.7175 -0.0517
   26bbb    H21  665  11.490   9.065   3.981 -0.1725 -1.0658 -0.2261
   27bbb     C1  666  12.096   8.422   4.115 -0.9252 -0.2051  0.1191
   27bbb     H1  667  12.059   8.488   4.194 -1.8922 -0.0348 -0.4492
   27bbb     H2  668  12.194   8.381   4.140 -0.8253 -1.5298 -2.1885
   27bbb     C2  669  12.097   8.502   3.985 -0.0387 -0.2727  0.0617
   27bbb     H3  670  12.176   8.577   3.996 -0.9079  0.3543  2.5592
   27bbb     H4  671  12.137   8.444   3.901 -1.7353 -0.3752 -0.7093
   27bbb     N1  672  12.018   8.297   4.091 -0.3530  0.1652  0.3262
   27bbb     C3  673  11.950   8.243   4.215  0.6239 -0.4337  0.1340
   27bbb     H5  674  11.917   8.314   4.291  1.4088 -1.5799  1.5900
   27bbb     H6  675  12.014   8.174   4.271  0.7848 -0.4484 -0.0657
   27bbb     C4  676  12.077   8.190   4.007  0.6696  0.2066 -0.1670
   27bbb     H7  677  12.177   8.219   3.971  0.8598 -0.2796 -0.0411
   27bbb     H8  678  12.084   8.098   4.067  0.5027 -0.1228 -0.6462
   27bbb     C5  679  11.984   8.153   3.887  0.5531  0.0528 -0.0183
   27bbb     H9  680  11.881   8.128   3.914  1.0413 -0.9679  0.9458
   27bbb    H10  681  11.992   8.237   3.816 -0.7422  0.0837 -0.1467
   27bbb     C6  682  11.828   8.166   4.172  0.0105 -0.0034  0.3057
   27bbb    H11  683  11.771   8.215   4.092 -2.3664 -1.8953  0.7195
   27bbb    H12  684  11.855   8.071   4.124 -1.5620  0.7287 -2.1901
   27bbb     C7  685  12.042   8.037   3.822  0.4093 -0.2591  0.8305
   27bbb     C8  686  11.740   8.140   4.294  0.6137 -0.2764  0.2953
   27bbb     O1  687  12.115   7.949   3.873  0.0525  0.1860  0.2323
   27bbb     O2  688  11.789   8.108   4.400  0.3884  0.0133 -0.0440
   27bbb     N4  689  11.967   8.568   3.955  0.9040  0.0687  0.5789
   27bbb    H21  690  11.900   8.598   4.025  0.0516 -0.0394 -0.1767
   28bbb     C1  691  11.618  10.174   2.530  0.0926  0.5927 -0.3735
   28bbb     H1  692  11.723  10.182   2.498  0.4251 -0.7657  0.2656
   28bbb     H2  693  11.611  10.236   2.620 -0.0426  1.7356 -1.1608
   28bbb     C2  694  11.588  10.026   2.568  0.5520  0.1342  0.4095
   28bbb     H3  695  11.484  10.012   2.600 -0.1681  0.4870 -1.6130
   28bbb     H4  696  11.619   9.962   2.485  1.7002  1.0724  0.0919
   28bbb     N1  697  11.534  10.222   2.416 -0.3712 -0.2539  0.3442
   28bbb     C3  698  11.401  10.260   2.462  0.2255  0.4502 -0.5273
   28bbb     H5  699  11.408  10.314   2.557 -0.9925 -0.4587  0.1122
   28bbb     H6  700  11.333  10.173   2.467 -0.3177  0.6392 -3.2555
   28bbb     C4  701  11.541  10.146   2.286  0.1400  0.3183  0.6779
   28bbb     H7  702  11.477  10.057   2.289  0.2696  0.2353  1.0746
   28bbb     H8  703  11.500  10.211   2.208  1.6454  0.8385  0.2943
   28bbb     C5  704  11.687  10.118   2.250 -0.3006 -0.0154  0.1365
   28bbb     H9  705  11.752  10.207   2.244 -2.1545  1.3112 -1.1562
   28bbb    H10  706  11.737  10.050   2.321  1.1850  0.1908 -0.6558
   28bbb     C6  707  11.341  10.360   2.361  0.0840  0.1199 -0.3637
   28bbb    H11  708  11.417  10.437   2.344 -0.1904  0.4438 -0.1394
   28bbb    H12  709  11.309  10.320   2.264  2.2106  0.2046 -1.1516
   28bbb     C7  710  11.685  10.054   2.112 -0.5971 -0.1297  0.6481
   28bbb     C8  711  11.222  10.436   2.418  0.0545  0.0309  0.5246
   28bbb     O1  712  11.694  10.127   2.015 -0.2862 -0.9684  0.2226
   28bbb     O2  713  11.193  10.437   2.534  0.1470 -0.6493 -0.2539
   28bbb     N4  714  11.658   9.974   2.685 -0.3346 -0.7161  0.3149
   28bbb    H21  715  11.722   9.898   2.663 -0.1892 -0.5695  0.2285
   29bbb     C1  716  12.447   9.936   3.249  0.6936  0.7880 -0.2952
   29bbb     H1  717  12.395   9.944   3.153  1.1228 -1.1015 -0.7342
   29bbb     H2  718  12.497   9.838   3.255  1.8338  1.4324  2.0069
   29bbb     C2  719  12.342   9.934   3.362  0.5088  0.2914  0.0502
   29bbb     H3  720  12.377   9.889   3.456  1.3483  2.0083  0.5936
   29bbb     H4  721  12.317  10.038   3.384  2.9808  1.0294 -0.3846
   29bbb     N1  722  12.536  10.050   3.277  0.0596  0.8442  0.2390
   29bbb     C3  723  12.521  10.158   3.175 -0.1919 -0.3127  0.1539
   29bbb     H5  724  12.562  10.131   3.076 -0.4999  1.7213 -0.5706
   29bbb     H6  725  12.589  10.241   3.198  0.2434 -0.3644 -0.8748
   29bbb     C4  726  12.684  10.015   3.301 -0.3592 -0.2346 -0.4171
   29bbb     H7  727  12.722   9.943   3.227 -0.1325 -1.4107  0.7868
   29bbb     H8  728  12.745  10.105   3.313  0.2867 -0.7178  0.0368
   29bbb     C5  729  12.700   9.938   3.432  0.2492 -0.7833  0.2544
   29bbb     H9  730  12.652   9.993   3.514  0.2324 -0.2675 -0.1028
   29bbb    H10  731  12.649   9.841   3.435  0.0354 -0.6529  1.2154
   29bbb     C6  732  12.378  10.213   3.152 -1.0512 -0.4253  0.1369
   29bbb    H11  733  12.315  10.134   3.110  2.4332 -2.6234 -1.4949
   29bbb    H12  734  12.335  10.242   3.248 -0.7023 -3.7026  1.4154
   29bbb     C7  735  12.842   9.905   3.459 -0.3302  0.6521  0.1554
   29bbb     C8  736  12.389  10.322   3.052  0.2245 -0.5373  0.8397
   29bbb     O1  737  12.941   9.947   3.396  0.5145  0.3184  0.1109
   29bbb     O2  738  12.396  10.298   2.929  0.3077 -0.0050  0.1152
   29bbb     N4  739  12.210   9.863   3.324 -0.2381 -0.6178  0.5301
   29bbb    H21  740  12.211   9.762   3.317  0.9319 -0.5940  0.1747
   30bbb     C1  741  11.774  11.093   0.772  0.1170  0.1062 -0.7404
   30bbb     H1  742  11.671  11.075   0.805  1.1085 -2.3131  1.2981
   30bbb     H2  743  11.778  11.084   0.662  1.0318  2.5585 -0.9864
   30bbb     C2  744  11.868  10.986   0.823  0.3078  0.5112  0.9096
   30bbb     H3  745  11.961  11.005   0.767  2.7578 -0.6071  4.2682
   30bbb     H4  746  11.890  11.007   0.928  1.1675  0.5225  0.7319
   30bbb     N1  747  11.810  11.224   0.819 -0.0878  0.2280  0.2251
   30bbb     C3  748  11.775  11.248   0.958 -0.1156  0.1431  0.3849
   30bbb     H5  749  11.747  11.151   1.001  0.2902 -1.3310 -2.4465
   30bbb     H6  750  11.686  11.313   0.958  0.2818  0.7252 -0.9845
   30bbb     C4  751  11.747  11.329   0.737  0.0311 -0.5402 -0.2251
   30bbb     H7  752  11.643  11.309   0.708  0.4174  0.1112 -2.1995
   30bbb     H8  753  11.748  11.425   0.791 -0.9793  0.5929 -2.1227
   30bbb     C5  754  11.831  11.349   0.609  0.2022 -0.5697  0.0469
   30bbb     H9  755  11.869  11.254   0.569 -1.6183 -1.7571  1.0103
   30bbb    H10  756  11.761  11.393   0.537  2.0460  0.0308 -1.4469
   30bbb     C6  757  11.888  11.295   1.042  0.4633  0.4589  0.1690
   30bbb    H11  758  11.874  11.269   1.148  1.0809  1.8368  0.6109
   30bbb    H12  759  11.977  11.236   1.018 -0.0921  0.4115 -1.9694
   30bbb     C7  760  11.944  11.439   0.636 -0.1300  0.3106 -0.7702
   30bbb     C8  761  11.914  11.440   1.042 -0.3238  0.2095  0.6502
   30bbb     O1  762  11.947  11.553   0.590 -0.2399  0.1136  0.0557
   30bbb     O2  763  11.842  11.519   1.101  0.7920 -0.2015 -0.0144
   30bbb     N4  764  11.820  10.844   0.825 -0.2025  0.4568 -0.2607
   30bbb    H21  765  11.724  10.829   0.795 -0.0652 -0.6127 -0.1800
   31bbb     C1  766  11.722  10.195   0.111 -0.2915 -0.6756 -0.2728
   31bbb     H1  767  11.617  10.221   0.126 -1.8209 -4.9889 -1.8793
   31bbb     H2  768  11.747  10.144   0.205  0.9235 -1.2823 -0.9007
   31bbb     C2  769  11.813  10.323   0.101  0.4088  0.0790 -0.4273
   31bbb     H3  770  11.914  10.289   0.075  0.7580 -0.7951  1.8000
   31bbb     H4  771  11.773  10.395   0.030  0.5947 -0.3548 -0.9753
   31bbb     N1  772  11.734  10.107  -0.007 -0.4115  0.1045 -0.0882
   31bbb     C3  773  11.677  10.164  -0.132  0.1079 -0.0807 -0.2691
   31bbb     H5  774  11.680  10.273  -0.123 -0.3103 -0.1512  0.8923
   31bbb     H6  775  11.570  10.141  -0.131 -0.0664  0.6963  1.5903
   31bbb     C4  776  11.706   9.962   0.016 -0.4486 -0.1554  0.5147
   31bbb     H7  777  11.711   9.899  -0.074  1.3168 -1.1967  1.2833
   31bbb     H8  778  11.778   9.917   0.086 -0.9990 -2.2263 -0.1821
   31bbb     C5  779  11.572   9.942   0.067  0.7029 -0.3752  0.1037
   31bbb     H9  780  11.554   9.971   0.171 -0.4586 -2.0646  0.4134
   31bbb    H10  781  11.494   9.993   0.009  0.6764 -0.6769 -0.1275
   31bbb     C6  782  11.751  10.104  -0.250  0.0476  0.4647 -0.0309
   31bbb    H11  783  11.760  10.179  -0.330  0.2804 -0.1532 -0.5894
   31bbb    H12  784  11.854  10.075  -0.223 -0.7071 -0.9283  1.4928
   31bbb     C7  785  11.533   9.794   0.069  0.7703  0.3441 -0.3521
   31bbb     C8  786  11.693   9.988  -0.322  0.2920  0.6566  0.2532
   31bbb     O1  787  11.521   9.730   0.173 -0.2896  0.2167 -0.6342
   31bbb     O2  788  11.574   9.950  -0.307  0.4330 -0.0678 -0.5154
   31bbb     N4  789  11.811  10.390   0.235 -0.0793  0.5118  0.3319
   31bbb    H21  790  11.722  10.418   0.274 -1.5907 -3.0785 -0.1968
   32bbb     C1  791  11.422  10.832   2.295 -0.1930 -0.2405 -0.0260
   32bbb     H1  792  11.462  10.733   2.270  1.4867  0.4939 -0.4080
   32bbb     H2  793  11.313  10.825   2.286 -0.3768  0.2890  1.5130
   32bbb     C2  794  11.469  10.933   2.189 -0.3126  0.3963 -0.0095
   32bbb     H3  795  11.418  11.031   2.193 -0.6711  0.3743 -2.4385
   32bbb     H4  796  11.576  10.956   2.198 -0.4430  0.6512  1.0943
   32bbb     N1  797  11.457  10.859   2.435 -0.3081 -0.2038 -0.1356
   32bbb     C3  798  11.449  10.738   2.519  0.2187 -0.5891 -0.1862
   32bbb     H5  799  11.514  10.658   2.482  0.8911 -1.6448  2.9513
   32bbb     H6  800  11.343  10.710   2.532 -0.3908  0.8712 -1.6732
   32bbb     C4  801  11.368  10.972   2.482 -0.0454 -0.7142  0.3139
   32bbb     H7  802  11.317  11.015   2.395  0.0546  3.3356  2.0451
   32bbb     H8  803  11.287  10.934   2.544 -0.2628 -0.0327  0.4567
   32bbb     C5  804  11.447  11.078   2.549  0.4934  1.1702  0.5660
   32bbb     H9  805  11.526  11.033   2.611  1.3006  2.2676  0.3729
   32bbb    H10  806  11.481  11.141   2.465 -1.1331  1.7265  0.2860
   32bbb     C6  807  11.511  10.767   2.660  0.2176  0.0949 -0.3576
   32bbb    H11  808  11.604  10.824   2.648  0.6972 -0.0391  2.2981
   32bbb    H12  809  11.446  10.834   2.718  0.0284  0.1720 -0.6508
   32bbb     C7  810  11.361  11.168   2.634 -0.4087 -0.5793  0.3825
   32bbb     C8  811  11.549  10.641   2.735  0.6575 -0.2726  0.3043
   32bbb     O1  812  11.251  11.201   2.613  0.1557  0.0991 -0.2643
   32bbb     O2  813  11.463  10.563   2.778  0.0750 -0.5511 -0.0319
   32bbb     N4  814  11.432  10.877   2.058 -0.1152  0.1231 -0.4319
   32bbb    H21  815  11.369  10.798   2.056 -1.7011  1.2870  0.4558
   33bbb     C1  816  10.619  11.176   1.563  0.7855  0.3232  0.5383
   33bbb     H1  817  10.611  11.175   1.673  1.7766  0.6107  0.6156
   33bbb     H2  818  10.619  11.071   1.531  3.1805  0.2824  0.4944
   33bbb     C2  819  10.759  11.226   1.530  0.4266 -0.1138  0.2130
   33bbb     H3  820  10.770  11.245   1.422  1.0845  0.4965  0.3757
   33bbb     H4  821  10.770  11.324   1.579  0.9769  1.2644 -2.4709
   33bbb     N1  822  10.508  11.261   1.500 -0.4941 -0.6629 -0.2671
   33bbb     C3  823  10.488  11.388   1.570  0.3926 -0.4431  0.6447
   33bbb     H5  824  10.400  11.443   1.535  1.2977 -0.4435 -1.8357
   33bbb     H6  825  10.573  11.455   1.552 -0.1247  0.3854  1.2204
   33bbb     C4  826  10.520  11.294   1.355 -0.4334  0.3157 -0.6053
   33bbb     H7  827  10.434  11.362   1.344 -1.4983 -0.9887 -0.5076
   33bbb     H8  828  10.608  11.354   1.327  0.3434  0.3466  1.6952
   33bbb     C5  829  10.519  11.180   1.265  0.1712 -1.1130 -0.0396
   33bbb     H9  830  10.623  11.146   1.261  0.4904 -0.6525  2.8202
   33bbb    H10  831  10.450  11.112   1.315 -2.5811  0.2643 -1.7109
   33bbb     C6  832  10.467  11.373   1.724  0.3084  0.6565 -0.1378
   33bbb    H11  833  10.387  11.300   1.743 -0.4314  1.2089 -1.0473
   33bbb    H12  834  10.555  11.329   1.773 -0.2118 -0.7310 -0.3823
   33bbb     C7  835  10.471  11.225   1.136  0.2704 -0.0545 -0.7308
   33bbb     C8  836  10.421  11.498   1.788 -0.4848  0.0929 -0.5890
   33bbb     O1  837  10.477  11.344   1.100  0.2610  0.6632 -0.6024
   33bbb     O2  838  10.305  11.537   1.789 -0.6757  0.3581  0.3043
   33bbb     N4  839  10.870  11.145   1.589 -0.3884  0.6659  0.3305
   33bbb    H21  840  10.868  11.124   1.688 -0.9155 -0.8714  0.0239
   34bbb     C1  841  10.832   7.669   0.944 -0.0838  0.4888  0.1702
   34bbb     H1  842  10.764   7.752   0.922  1.1061  0.9298 -2.1764
   34bbb     H2  843  10.779   7.626   1.030 -0.3429  1.2644  0.4097
   34bbb     C2  844  10.971   7.716   0.986  0.3649 -0.7122 -0.2942
   34bbb     H3  845  11.037   7.638   1.026  2.4138  0.8789 -0.4082
   34bbb     H4  846  11.020   7.752   0.894 -0.6035  0.3894 -0.4064
   34bbb     N1  847  10.821   7.566   0.837  0.7475  0.0235  0.1025
   34bbb     C3  848  10.867   7.606   0.706  0.5593 -0.2881 -0.3358
   34bbb     H5  849  10.833   7.533   0.631 -0.6255  2.5590 -2.8097
   34bbb     H6  850  10.976   7.611   0.708  0.5261  1.4286 -1.1875
   34bbb     C4  851  10.868   7.434   0.882 -0.4139  0.3382  1.0598
   34bbb     H7  852  10.926   7.382   0.804 -2.5064  0.7477 -0.8982
   34bbb     H8  853  10.947   7.456   0.955 -0.0729  3.3076 -0.0411
   34bbb     C5  854  10.748   7.350   0.943 -0.3642 -0.6077  0.8171
   34bbb     H9  855  10.708   7.413   1.024  0.9854 -0.1768  1.1844
   34bbb    H10  856  10.672   7.330   0.867  2.2229 -1.2269 -1.8259
   34bbb     C6  857  10.819   7.741   0.665 -0.2940 -0.7750  0.4140
   34bbb    H11  858  10.709   7.737   0.667 -0.4371  1.3816 -0.3286
   34bbb    H12  859  10.848   7.830   0.723 -0.2644  0.3303 -1.2364
   34bbb     C7  860  10.808   7.224   0.995 -0.2259  0.5284 -0.4176
   34bbb     C8  861  10.861   7.771   0.519 -1.0211 -0.1103 -0.5562
   34bbb     O1  862  10.848   7.211   1.109  0.2255  0.1850  0.2530
   34bbb     O2  863  10.965   7.715   0.478  0.3300  0.2087 -0.1287
   34bbb     N4  864  10.970   7.827   1.083 -0.2864 -0.5149  0.1787
   34bbb    H21  865  10.899   7.899   1.075 -0.3309 -0.4371  1.1690
   35bbb     C1  866  11.603   8.354   1.924 -0.3433  0.2456 -0.7805
   35bbb     H1  867  11.518   8.415   1.956 -0.4752 -1.0196  1.4807
   35bbb     H2  868  11.667   8.413   1.857 -0.4909  0.4185 -0.7699
   35bbb     C2  869  11.556   8.230   1.853 -0.0182 -0.2633 -1.2503
   35bbb     H3  870  11.648   8.172   1.834  0.0214 -0.8347  0.4803
   35bbb     H4  871  11.486   8.173   1.916  0.1551 -0.6343 -1.3901
   35bbb     N1  872  11.671   8.313   2.050 -0.6393 -0.3593  0.7190
   35bbb     C3  873  11.577   8.294   2.164  0.2890 -0.0551 -0.0869
   35bbb     H5  874  11.472   8.307   2.133 -0.2526 -0.6353  1.4006
   35bbb     H6  875  11.587   8.356   2.254 -0.2555 -1.3865  0.9301
   35bbb     C4  876  11.765   8.419   2.098  0.5136  0.6270 -0.4086
   35bbb     H7  877  11.706   8.511   2.096  1.8828  1.5202 -1.2300
   35bbb     H8  878  11.799   8.384   2.197  0.9090  1.3066 -0.2940
   35bbb     C5  879  11.886   8.442   2.002  0.5461 -0.0979  0.1555
   35bbb     H9  880  11.915   8.340   1.974  0.5897  0.1094 -0.5724
   35bbb    H10  881  11.866   8.491   1.907  1.8229 -0.4851 -0.3375
   35bbb     C6  882  11.584   8.151   2.201 -0.0859  0.1111  0.0651
   35bbb    H11  883  11.558   8.088   2.115 -2.2486  0.0483  0.6969
   35bbb    H12  884  11.684   8.120   2.233 -0.2591 -0.4306  0.0886
   35bbb     C7  885  11.997   8.511   2.078 -0.0988  0.1815 -0.1254
   35bbb     C8  886  11.488   8.116   2.307  0.1153 -0.4594  0.8110
   35bbb     O1  887  11.974   8.596   2.164 -0.2260  0.2000  0.3179
   35bbb     O2  888  11.370   8.088   2.289 -0.0150  0.0890 -0.2473
   35bbb     N4  889  11.499   8.261   1.722  0.3030  0.0198 -0.1943
   35bbb    H21  890  11.508   8.356   1.687  2.0790  0.1304  0.4367
   36bbb     C1  891  11.810   9.822   0.422 -0.5768  0.3800  0.2176
   36bbb     H1  892  11.791   9.822   0.314  1.4917 -1.9445 -0.2267
   36bbb     H2  893  11.860   9.726   0.438 -0.8073 -0.3594 -2.8348
   36bbb     C2  894  11.672   9.821   0.489 -0.0491 -0.6527  0.8447
   36bbb     H3  895  11.687   9.833   0.597  1.1769 -0.3569  0.6639
   36bbb     H4  896  11.620   9.912   0.455  1.6916  0.0397 -0.1311
   36bbb     N1  897  11.896   9.940   0.456  0.5915 -0.0497 -0.0310
   36bbb     C3  898  11.905   9.981   0.598  1.1802 -0.7335  0.9688
   36bbb     H5  899  11.804  10.012   0.627 -1.3255 -4.3089 -2.7502
   36bbb     H6  900  11.963  10.074   0.599 -0.2400  0.2037 -0.2816
   36bbb     C4  901  12.025   9.931   0.390 -0.4724  0.0906  0.4081
   36bbb     H7  902  12.108   9.907   0.457  0.8024  3.3764  0.1884
   36bbb     H8  903  12.023   9.860   0.306  0.2796  0.3778  0.1449
   36bbb     C5  904  12.048  10.071   0.341  0.4522 -0.3381  0.4769
   36bbb     H9  905  11.962  10.098   0.277 -0.0621 -1.2491  0.7741
   36bbb    H10  906  12.057  10.144   0.422 -2.4332 -0.4735  1.0239
   36bbb     C6  907  11.957   9.875   0.693 -0.2020  0.3872 -0.2838
   36bbb    H11  908  11.882   9.816   0.745 -0.1078 -1.8791 -2.5390
   36bbb    H12  909  12.025   9.805   0.643  0.4684  0.4043  0.5792
   36bbb     C7  910  12.173  10.089   0.265  0.0775  0.4662  0.0569
   36bbb     C8  911  12.043   9.937   0.795  0.4447 -0.2136 -0.3755
   36bbb     O1  912  12.266  10.010   0.270  0.4198  0.4479  0.2403
   36bbb     O2  913  12.164   9.938   0.784  0.5039 -0.1841 -0.7293
   36bbb     N4  914  11.585   9.711   0.450 -0.6351  0.6401  0.2244
   36bbb    H21  915  11.529   9.716   0.366  0.3701 -4.2686 -1.0539
   37bbb     C1  916  11.212   9.024  -0.211  0.0658  0.4785 -0.6904
   37bbb     H1  917  11.120   9.083  -0.204 -1.8519 -2.1482 -2.2020
   37bbb     H2  918  11.208   8.934  -0.149  2.5213 -0.1513 -1.3286
   37bbb     C2  919  11.341   9.102  -0.154  0.2646  0.6807  0.1166
   37bbb     H3  920  11.419   9.028  -0.136  1.3924  1.5654 -0.9171
   37bbb     H4  921  11.371   9.161  -0.241  1.4297 -0.0370  0.0215
   37bbb     N1  922  11.227   8.985  -0.348  0.2972 -0.7552 -0.4610
   37bbb     C3  923  11.338   8.907  -0.388  0.3986 -0.1319 -0.2391
   37bbb     H5  924  11.315   8.801  -0.374 -2.0272  0.4832  0.8935
   37bbb     H6  925  11.424   8.925  -0.322 -0.9999 -1.6496  2.1773
   37bbb     C4  926  11.094   8.937  -0.388 -0.0004  0.4666  0.3164
   37bbb     H7  927  11.106   8.874  -0.476 -0.2763 -1.2647  1.4676
   37bbb     H8  928  11.045   8.880  -0.308  0.1011  1.2069  0.9203
   37bbb     C5  929  11.014   9.057  -0.432 -0.4572 -0.2701 -0.8571
   37bbb     H9  930  10.991   9.124  -0.349  2.6747 -0.8489  0.6154
   37bbb    H10  931  11.062   9.115  -0.513 -0.5129 -0.3131 -0.9207
   37bbb     C6  932  11.378   8.957  -0.533 -0.0932 -0.2679  0.1896
   37bbb    H11  933  11.288   8.970  -0.595  0.9262  0.6175 -1.1858
   37bbb    H12  934  11.420   9.059  -0.533 -1.3483  0.2754  1.2691
   37bbb     C7  935  10.890   9.012  -0.507  0.0128  0.1441 -0.0941
   37bbb     C8  936  11.468   8.853  -0.592  0.2468  0.3029  0.6786
   37bbb     O1  937  10.882   9.013  -0.630 -0.0583  0.0876 -0.0570
   37bbb     O2  938  11.461   8.733  -0.561  0.4265 -0.8431  0.2829
   37bbb     N4  939  11.318   9.188  -0.036  0.1544  0.7086 -0.0004
   37bbb    H21  940  11.226   9.211  -0.001  0.5929  0.9722  1.0262
   38bbb     C1  941   9.086   9.478   3.366 -0.3648 -0.2111 -0.7729
   38bbb     H1  942   9.195   9.474   3.355  0.1913  0.1694  3.3568
   38bbb     H2  943   9.064   9.548   3.447 -0.1608 -0.5652 -0.4102
   38bbb     C2  944   9.056   9.329   3.402  0.1328  0.0108 -0.2815
   38bbb     H3  945   9.089   9.303   3.503 -1.9836  0.7601  0.6352
   38bbb     H4  946   8.950   9.301   3.406  0.2614 -0.3481  2.1945
   38bbb     N1  947   9.012   9.521   3.247  0.0045  0.2161 -0.3570
   38bbb     C3  948   9.077   9.638   3.187  0.6121 -0.0133  1.0964
   38bbb     H5  949   9.136   9.690   3.264  2.8115 -0.4084 -0.2234
   38bbb     H6  950   9.008   9.713   3.148  1.9387  0.6091 -0.1566
   38bbb     C4  951   8.865   9.526   3.251  0.1646 -0.7910  0.1170
   38bbb     H7  952   8.843   9.447   3.324  1.3757 -1.8292 -0.6067
   38bbb     H8  953   8.826   9.616   3.301  3.7221 -0.1423  2.0293
   38bbb     C5  954   8.803   9.508   3.115  0.1254 -0.4649  0.3165
   38bbb     H9  955   8.872   9.547   3.038 -0.7544  1.2128  0.3318
   38bbb    H10  956   8.768   9.405   3.104  0.7778 -0.6410 -0.1728
   38bbb     C6  957   9.177   9.581   3.081 -0.3445  0.1243 -0.2840
   38bbb    H11  958   9.253   9.511   3.117 -1.0343 -1.1203 -1.1596
   38bbb    H12  959   9.118   9.518   3.013 -1.7988 -0.7979  1.7082
   38bbb     C7  960   8.674   9.593   3.121 -0.1783  0.8264  0.7762
   38bbb     C8  961   9.244   9.692   3.012 -1.1078  0.2502  0.2898
   38bbb     O1  962   8.674   9.708   3.075 -0.0390  0.4337 -0.1759
   38bbb     O2  963   9.291   9.788   3.073  0.7612  0.0050 -0.0300
   38bbb     N4  964   9.117   9.235   3.307 -0.0169  0.0253 -0.4796
   38bbb    H21  965   9.218   9.241   3.311  0.0591 -1.0007 -0.6935
   39bbb     C1  966   9.255   8.731   3.146  0.3165  0.4998 -0.5453
   39bbb     H1  967   9.157   8.777   3.130  0.3302  0.6655 -0.1641
   39bbb     H2  968   9.321   8.803   3.194 -0.8113  0.6720  0.8130
   39bbb     C2  969   9.299   8.703   3.004  0.0695  0.2434 -0.4213
   39bbb     H3  970   9.395   8.651   3.014  1.0312  2.1672  0.9488
   39bbb     H4  971   9.232   8.639   2.946 -0.0674 -0.8010  0.8529
   39bbb     N1  972   9.234   8.620   3.235  0.1952  0.3554 -0.0446
   39bbb     C3  973   9.213   8.682   3.360  0.1120 -0.2061  0.0399
   39bbb     H5  974   9.121   8.741   3.368 -0.1806 -0.8084  1.4219
   39bbb     H6  975   9.293   8.752   3.385 -1.3367  0.7746  2.2781
   39bbb     C4  976   9.125   8.537   3.184  0.2888 -0.4138  0.5135
   39bbb     H7  977   9.060   8.478   3.251 -0.5324 -1.0648 -0.8060
   39bbb     H8  978   9.056   8.592   3.118  1.0449  0.2179  0.2413
   39bbb     C5  979   9.197   8.412   3.128 -0.1464  0.0674 -0.0643
   39bbb     H9  980   9.298   8.438   3.097  1.7790 -2.5987  3.2603
   39bbb    H10  981   9.212   8.337   3.207  1.6802  0.8505  0.3690
   39bbb     C6  982   9.204   8.563   3.457  0.0397 -0.3674 -0.4754
   39bbb    H11  983   9.107   8.511   3.452  0.4549 -1.2423  0.2970
   39bbb    H12  984   9.279   8.493   3.418  0.8171 -0.6811  1.4972
   39bbb     C7  985   9.122   8.342   3.021 -0.7311 -0.0422  0.3732
   39bbb     C8  986   9.231   8.602   3.599 -0.5098  1.0256  0.1969
   39bbb     O1  987   9.008   8.377   2.982 -1.0611 -0.2643  0.2124
   39bbb     O2  988   9.324   8.684   3.622  0.2034  0.3789  0.0751
   39bbb     N4  989   9.311   8.820   2.913  0.1884  0.3456  0.0399
   39bbb    H21  990   9.399   8.867   2.896  0.7087 -0.8031 -0.5647
   40bbb     C1  991  10.294  10.621   2.421  0.2134 -0.4511 -0.2449
   40bbb     H1  992  10.312  10.728   2.404  0.0877  0.0844  2.4229
   40bbb     H2  993  10.186  10.623   2.438  0.5193  0.2362  2.0737
   40bbb     C2  994  10.344  10.577   2.567 -0.3772 -0.4804  0.9789
   40bbb     H3  995  10.450  10.547   2.568 -0.5909 -1.2587  0.8101
   40bbb     H4  996  10.337  10.667   2.630 -0.6022  0.5538 -0.4819
   40bbb     N1  997  10.330  10.531   2.317 -0.2655  0.7024  0.1566
   40bbb     C3  998  10.237  10.531   2.203  0.4102 -0.7000 -0.8269
   40bbb     H5  999  10.135  10.526   2.242  0.6329 -0.0808 -0.1272
   40bbb     H6 1000  10.245  10.445   2.136 -1.1586 -1.4761 -0.0672
   40bbb     C4 1001  10.469  10.535   2.285 -0.3763 -0.0360 -0.1612
   40bbb     H7 1002  10.477  10.579   2.185 -2.9694  0.1871 -0.3270
   40bbb     H8 1003  10.531  10.576   2.366  0.3543  1.0015 -1.2155
   40bbb     C5 1004  10.508  10.390   2.262  0.0711  0.6625  0.1834
   40bbb     H9 1005  10.491  10.328   2.351 -4.1470 -1.2486 -1.6546
   40bbb    H10 1006  10.444  10.337   2.191  2.8918 -1.7378 -0.8102
   40bbb     C6 1007  10.230  10.661   2.123 -0.0444 -0.0808  0.2786
   40bbb    H11 1008  10.195  10.745   2.183 -0.5483  0.9257 -1.3602
   40bbb    H12 1009  10.329  10.685   2.084 -0.6172  1.1493 -0.5033
   40bbb     C7 1010  10.648  10.395   2.219 -0.1377 -0.3944  0.5593
   40bbb     C8 1011  10.139  10.635   2.001 -0.0130 -0.1131 -0.4695
   40bbb     O1 1012  10.734  10.437   2.285 -0.4519 -0.2988 -0.5332
   40bbb     O2 1013  10.022  10.612   2.005  0.2518  0.4866  0.5463
   40bbb     N4 1014  10.286  10.461   2.639  0.0345 -0.0039 -0.2115
   40bbb    H21 1015  10.326  10.368   2.644 -0.9783 -0.4117  0.9600
   41bbb     C1 1016   9.518  10.545   3.264 -0.3659  0.0052 -0.1076
   41bbb     H1 1017   9.501  10.439   3.240  1.4749 -0.2026 -0.6292
   41bbb     H2 1018   9.491  10.615   3.184 -1.8875 -0.0135  0.3624
   41bbb     C2 1019   9.671  10.564   3.270 -0.1662  0.7383  0.4001
   41bbb     H3 1020   9.706  10.667   3.285  1.7241 -0.0117  1.4528
   41bbb     H4 1021   9.720  10.506   3.349 -0.3052  1.3214  0.9295
   41bbb     N1 1022   9.446  10.575   3.392  0.0237 -0.4787 -0.1943
   41bbb     C3 1023   9.467  10.710   3.455  0.0557 -0.1437 -0.4668
   41bbb     H5 1024   9.574  10.721   3.478  0.1435 -1.2070 -0.3240
   41bbb     H6 1025   9.408  10.725   3.545  2.5456 -0.4861  1.3288
   41bbb     C4 1026   9.486  10.481   3.501  0.5637 -0.6611 -0.1186
   41bbb     H7 1027   9.590  10.446   3.491  0.6288 -0.3725 -0.4589
   41bbb     H8 1028   9.468  10.526   3.599 -1.5659 -1.8261  0.0773
   41bbb     C5 1029   9.395  10.363   3.483  0.0614 -0.8650  0.8472
   41bbb     H9 1030   9.297  10.379   3.529  0.0105 -0.8531  0.7342
   41bbb    H10 1031   9.383  10.350   3.375 -0.2156  0.8896  0.6487
   41bbb     C6 1032   9.412  10.811   3.347  0.1352 -0.3773 -0.2464
   41bbb    H11 1033   9.466  10.810   3.251 -0.2201  1.1721 -0.4921
   41bbb    H12 1034   9.309  10.784   3.323  0.0379  0.0380 -0.3136
   41bbb     C7 1035   9.450  10.237   3.538 -0.2253 -0.2170 -0.3154
   41bbb     C8 1036   9.410  10.955   3.399 -0.0301 -0.4201 -0.2540
   41bbb     O1 1037   9.429  10.207   3.656  0.3999 -0.3866  0.0406
   41bbb     O2 1038   9.509  11.003   3.454  0.0461  0.2914 -0.0376
   41bbb     N4 1039   9.724  10.508   3.141 -0.3938  0.5330 -0.0574
   41bbb    H21 1040   9.769  10.570   3.075  0.2586 -1.2409 -1.3636
   42bbb     C1 1041  11.114   8.491   1.978 -0.3442 -0.6925 -0.6677
   42bbb     H1 1042  11.065   8.535   2.066  1.0392  0.3079 -0.3632
   42bbb     H2 1043  11.034   8.454   1.912  1.0695  0.2974 -3.0689
   42bbb     C2 1044  11.205   8.385   2.036 -0.0326 -0.0054 -0.2015
   42bbb     H3 1045  11.244   8.326   1.952 -1.5456  0.8547 -1.5650
   42bbb     H4 1046  11.285   8.431   2.097  0.2701 -0.5543 -0.1812
   42bbb     N1 1047  11.188   8.599   1.910  0.1500  0.5011  0.2790
   42bbb     C3 1048  11.110   8.720   1.904 -0.4750 -0.5961 -0.1892
   42bbb     H5 1049  11.006   8.686   1.889 -1.0894  1.5415 -1.1288
   42bbb     H6 1050  11.146   8.789   1.828 -1.6762  0.5235  0.2142
   42bbb     C4 1051  11.239   8.568   1.773  0.6847  0.1110 -0.0242
   42bbb     H7 1052  11.278   8.466   1.779  0.1607 -0.0533  0.7542
   42bbb     H8 1053  11.164   8.585   1.695  2.0958  0.3777 -1.3584
   42bbb     C5 1054  11.349   8.660   1.741 -0.1543 -0.0563 -0.0044
   42bbb     H9 1055  11.326   8.759   1.701 -1.5035 -0.1583  0.4815
   42bbb    H10 1056  11.418   8.669   1.825  0.0867 -1.4439 -0.0217
   42bbb     C6 1057  11.124   8.794   2.037 -0.3306 -0.3693 -0.5232
   42bbb    H11 1058  11.086   8.896   2.024  1.5852  0.3915 -0.5753
   42bbb    H12 1059  11.063   8.754   2.119 -0.1942  0.5636  0.0587
   42bbb     C7 1060  11.411   8.603   1.620 -0.0308  0.3201 -0.0472
   42bbb     C8 1061  11.272   8.807   2.079  0.7883  0.0940 -0.2245
   42bbb     O1 1062  11.511   8.535   1.628 -0.0267 -0.3515 -0.5496
   42bbb     O2 1063  11.342   8.900   2.042 -0.0572  0.3732  0.2053
   42bbb     N4 1064  11.130   8.291   2.122 -0.1668 -0.5163 -0.3628
   42bbb    H21 1065  11.061   8.237   2.071 -0.5275 -0.8760  0.4883
   43bbb     C1 1066  11.050   7.971   3.155  0.4234 -0.4128  0.9592
   43bbb     H1 1067  10.962   8.036   3.150  0.3363 -0.5987 -0.5605
   43bbb     H2 1068  11.133   8.039   3.129 -1.1875  1.4498  0.4411
   43bbb     C2 1069  11.034   7.854   3.055 -0.1221 -0.0337 -0.2795
   43bbb     H3 1070  11.124   7.791   3.061  0.6475  0.9772 -0.9364
   43bbb     H4 1071  10.953   7.787   3.088  1.8891 -2.2996  0.3071
   43bbb     N1 1072  11.066   7.911   3.288  0.1124  0.3066 -0.0132
   43bbb     C3 1073  11.190   7.951   3.353 -0.2194  0.1037  0.0371
   43bbb     H5 1074  11.194   7.928   3.461  0.0058 -2.5004 -0.4534
   43bbb     H6 1075  11.232   8.050   3.330  2.6207 -1.1225 -0.4267
   43bbb     C4 1076  10.945   7.917   3.364 -0.1505  0.3901  0.3112
   43bbb     H7 1077  10.921   8.022   3.381 -3.2743  0.3955 -2.9787
   43bbb     H8 1078  10.873   7.871   3.296  0.0976 -1.4664  1.2332
   43bbb     C5 1079  10.953   7.844   3.497 -0.6861 -0.7582  0.0546
   43bbb     H9 1080  11.010   7.752   3.482  1.6022  0.3391  1.5492
   43bbb    H10 1081  10.986   7.910   3.578 -2.9791  1.6965 -0.8486
   43bbb     C6 1082  11.294   7.859   3.292  0.2015 -0.2265 -0.5589
   43bbb    H11 1083  11.257   7.757   3.282 -0.5952 -0.1669  1.3736
   43bbb    H12 1084  11.313   7.887   3.188 -1.7057 -1.4425 -1.2801
   43bbb     C7 1085  10.809   7.798   3.520  0.0831  0.2883  0.0698
   43bbb     C8 1086  11.420   7.862   3.379 -0.4546 -0.8307  0.1175
   43bbb     O1 1087  10.782   7.683   3.482  0.4870 -0.1919 -0.1618
   43bbb     O2 1088  11.450   7.947   3.459 -0.4756  0.1821  0.4146
   43bbb     N4 1089  11.025   7.890   2.917 -0.0858  0.9169 -0.2249
   43bbb    H21 1090  10.938   7.895   2.866  0.5303  1.0398 -1.3169
   44bbb     C1 1091   9.461   8.659   1.456 -0.7634  0.8506 -0.3718
   44bbb     H1 1092   9.469   8.614   1.356  1.8457 -1.0478  0.5684
   44bbb     H2 1093   9.383   8.736   1.457 -1.1890  0.4496 -1.4650
   44bbb     C2 1094   9.609   8.697   1.485 -0.2351 -0.1437  0.0269
   44bbb     H3 1095   9.643   8.767   1.406 -0.2945  0.0647  0.1853
   44bbb     H4 1096   9.620   8.749   1.581  1.2346  1.8086 -1.1077
   44bbb     N1 1097   9.423   8.541   1.539  0.7398  0.1563  0.0253
   44bbb     C3 1098   9.388   8.584   1.677 -0.2445 -0.2878 -0.2333
   44bbb     H5 1099   9.303   8.653   1.671 -0.8537 -1.1116 -1.5434
   44bbb     H6 1100   9.471   8.648   1.710 -1.1688  1.1255 -0.5478
   44bbb     C4 1101   9.329   8.447   1.478  0.4237  0.2616 -0.4666
   44bbb     H7 1102   9.370   8.416   1.381  0.2815 -2.3497  0.2457
   44bbb     H8 1103   9.312   8.356   1.537 -1.7230  0.8921 -0.0129
   44bbb     C5 1104   9.186   8.501   1.457  0.8905  0.3073  0.5715
   44bbb     H9 1105   9.131   8.530   1.547 -0.1541 -4.6794  1.8346
   44bbb    H10 1106   9.192   8.589   1.392 -0.7396  0.7508  0.9664
   44bbb     C6 1107   9.371   8.480   1.782 -0.1256  0.3991 -0.0628
   44bbb    H11 1108   9.294   8.408   1.751  0.9544 -0.9113  0.2418
   44bbb    H12 1109   9.463   8.422   1.794 -0.3181  0.1424  0.1708
   44bbb     C7 1110   9.100   8.396   1.397 -0.2329 -0.1714  0.5988
   44bbb     C8 1111   9.324   8.553   1.911  0.2885 -0.0066 -0.3036
   44bbb     O1 1112   9.083   8.386   1.276  0.5344  0.1139  0.5346
   44bbb     O2 1113   9.404   8.609   1.983 -0.1361 -0.0860  0.1033
   44bbb     N4 1114   9.694   8.567   1.475  0.0871  0.1684  0.5766
   44bbb    H21 1115   9.646   8.478   1.486 -0.5994  0.5248  0.5199
   45bbb     C1 1116  10.033   7.590   1.534  0.3892 -0.3865  0.1832
   45bbb     H1 1117  10.029   7.493   1.483 -0.1865 -1.8405  2.8197
   45bbb     H2 1118   9.951   7.653   1.496  0.7811  0.8516  1.3505
   45bbb     C2 1119  10.165   7.659   1.507  0.7944 -0.3133 -0.3616
   45bbb     H3 1120  10.251   7.606   1.550  2.2275  1.3459 -1.0448
   45bbb     H4 1121  10.187   7.652   1.400  1.1015  0.4908 -0.3579
   45bbb     N1 1122  10.006   7.577   1.676  0.0164 -0.4115  0.7776
   45bbb     C3 1123   9.860   7.603   1.711 -0.2386  0.9085 -0.0055
   45bbb     H5 1124   9.838   7.704   1.675  0.8605  1.2999  0.3736
   45bbb     H6 1125   9.858   7.609   1.821 -1.6000 -0.2707  0.0663
   45bbb     C4 1126  10.083   7.465   1.741 -0.6975 -0.1499  0.0760
   45bbb     H7 1127  10.032   7.372   1.713  3.4396 -2.4248 -0.7465
   45bbb     H8 1128  10.187   7.466   1.707 -0.5667  0.7476  0.4727
   45bbb     C5 1129  10.077   7.485   1.894  0.0690  0.0438  0.0706
   45bbb     H9 1130  10.116   7.585   1.917 -0.6692  0.1028  1.1082
   45bbb    H10 1131   9.974   7.483   1.929  0.3328 -0.2440  0.8440
   45bbb     C6 1132   9.771   7.494   1.663 -0.1707 -0.4848 -0.1894
   45bbb    H11 1133   9.780   7.479   1.555 -0.3531 -2.8150  0.0692
   45bbb    H12 1134   9.786   7.400   1.717  0.4952 -0.0803  0.3380
   45bbb     C7 1135  10.162   7.381   1.957  0.2286 -0.4342  0.1153
   45bbb     C8 1136   9.631   7.528   1.671  0.4134 -0.3614  0.8430
   45bbb     O1 1137  10.281   7.380   1.938  0.3043 -0.7949 -0.4351
   45bbb     O2 1138   9.587   7.630   1.727 -0.5310 -0.5232 -0.0488
   45bbb     N4 1139  10.179   7.799   1.560  0.5826  0.2894  0.0865
   45bbb    H21 1140  10.157   7.809   1.659 -0.7253 -0.9730 -0.0372
   46bbb     C1 1141  12.323   6.958   0.941 -0.3146 -0.1615  0.8128
   46bbb     H1 1142  12.276   6.955   0.842 -0.8906 -0.0551  1.0742
   46bbb     H2 1143  12.249   7.007   1.006 -1.4202  0.1996 -0.6524
   46bbb     C2 1144  12.444   7.050   0.939 -0.5203  0.0623  0.1012
   46bbb     H3 1145  12.503   7.017   1.025 -0.5605 -2.6551 -0.8173
   46bbb     H4 1146  12.505   7.034   0.849 -2.1649 -0.6191 -0.9420
   46bbb     N1 1147  12.350   6.822   0.987 -0.5951 -1.0115 -0.1955
   46bbb     C3 1148  12.370   6.830   1.132  0.6643  0.0800  0.5183
   46bbb     H5 1149  12.368   6.933   1.169 -0.7144  0.6550 -1.0549
   46bbb     H6 1150  12.454   6.769   1.167  1.1351  0.7133  0.5049
   46bbb     C4 1151  12.447   6.744   0.910 -0.1515 -0.5964  0.1703
   46bbb     H7 1152  12.457   6.785   0.809 -0.4716  0.2815  0.4825
   46bbb     H8 1153  12.546   6.751   0.957  0.7738 -0.8545 -1.6662
   46bbb     C5 1154  12.408   6.600   0.918 -0.1889 -0.5115  0.1669
   46bbb     H9 1155  12.418   6.562   1.021 -1.7477 -0.1602  0.4839
   46bbb    H10 1156  12.305   6.579   0.886  0.4037 -1.4060 -1.1997
   46bbb     C6 1157  12.247   6.775   1.190  0.2839  0.1654 -0.0912
   46bbb    H11 1158  12.171   6.845   1.155  1.7384  0.7914 -2.1944
   46bbb    H12 1159  12.227   6.672   1.156 -0.8932 -0.2376  1.7229
   46bbb     C7 1160  12.496   6.513   0.826 -1.7514 -0.7235 -0.1135
   46bbb     C8 1161  12.253   6.777   1.338  0.2016  0.4898  0.5061
   46bbb     O1 1162  12.492   6.517   0.706 -0.2871 -0.7216  0.2251
   46bbb     O2 1163  12.349   6.730   1.395 -0.0818 -0.0234 -0.7102
   46bbb     N4 1164  12.411   7.195   0.956  0.3714 -0.0915  0.7670
   46bbb    H21 1165  12.393   7.223   1.052 -0.2987  0.5159  0.4783
   47bbb     C1 1166  13.038   7.973   1.036 -0.1982  0.0081 -0.0986
   47bbb     H1 1167  13.087   7.876   1.049 -0.8815 -0.3629 -0.2160
   47bbb     H2 1168  13.111   8.041   1.081 -0.4046 -1.6940  3.0945
   47bbb     C2 1169  12.897   7.986   1.099  0.2197  0.8031 -0.1871
   47bbb     H3 1170  12.915   7.965   1.205  0.2390 -1.1551 -0.5471
   47bbb     H4 1171  12.867   8.091   1.092 -3.5543 -0.1521 -0.1536
   47bbb     N1 1172  13.035   7.984   0.885 -0.5484  0.2313 -0.0673
   47bbb     C3 1173  13.127   7.898   0.812  0.7572 -0.5364  0.1829
   47bbb     H5 1174  13.233   7.920   0.833  0.6799  0.5685 -0.4704
   47bbb     H6 1175  13.106   7.925   0.708 -2.2967 -1.3617  0.5016
   47bbb     C4 1176  13.055   8.124   0.843 -0.3320 -0.6428 -0.0515
   47bbb     H7 1177  13.012   8.187   0.921 -0.0126  0.5879 -0.8380
   47bbb     H8 1178  13.161   8.152   0.840 -0.1795 -0.8491  2.0736
   47bbb     C5 1179  12.973   8.156   0.723 -1.0358  0.0250 -0.2025
   47bbb     H9 1180  13.008   8.098   0.636 -2.4753  0.0211 -0.8051
   47bbb    H10 1181  12.874   8.123   0.756 -1.1761  0.2764 -0.3699
   47bbb     C6 1182  13.104   7.750   0.832  0.5101  0.6259 -0.3953
   47bbb    H11 1183  13.158   7.712   0.919 -1.8343 -1.9046  0.0970
   47bbb    H12 1184  12.996   7.734   0.848  0.7800 -0.0577  0.9187
   47bbb     C7 1185  12.961   8.306   0.693 -0.5878  0.3247  0.1790
   47bbb     C8 1186  13.143   7.678   0.707 -0.0567 -0.2533  0.0081
   47bbb     O1 1187  12.981   8.391   0.774  0.4390  0.2820 -0.8946
   47bbb     O2 1188  13.259   7.667   0.688  0.1171  0.1101  0.0330
   47bbb     N4 1189  12.790   7.914   1.030 -0.3101 -0.1329  0.2486
   47bbb    H21 1190  12.759   7.944   0.938  0.0461 -0.4597  0.0199
   48bbb     C1 1191  11.117   7.498   2.645  0.3229 -0.2807  0.6233
   48bbb     H1 1192  11.149   7.602   2.661 -1.7413  0.4127  0.5693
   48bbb     H2 1193  11.182   7.418   2.680 -1.7574 -1.9760  0.8444
   48bbb     C2 1194  11.096   7.489   2.496  0.0658 -0.1319 -0.5899
   48bbb     H3 1195  11.018   7.420   2.464  0.2494 -0.4078 -0.4524
   48bbb     H4 1196  11.059   7.587   2.464 -0.6537  0.1508  0.9896
   48bbb     N1 1197  10.978   7.487   2.705  0.2882  0.0557 -0.1778
   48bbb     C3 1198  10.911   7.626   2.702  0.2225 -0.0038 -0.2726
   48bbb     H5 1199  10.896   7.647   2.596 -1.2722 -1.0302 -0.2950
   48bbb     H6 1200  10.968   7.706   2.750  0.3771 -1.2303  1.7091
   48bbb     C4 1201  10.993   7.428   2.846  0.8311 -0.7437  0.2109
   48bbb     H7 1202  10.893   7.418   2.892  0.9436  0.4001  0.7393
   48bbb     H8 1203  11.043   7.330   2.840  1.1202 -0.5043 -3.5302
   48bbb     C5 1204  11.079   7.515   2.930 -0.0337 -0.4524  0.1243
   48bbb     H9 1205  11.181   7.490   2.899 -0.6605 -1.4014 -1.2485
   48bbb    H10 1206  11.061   7.623   2.931  2.0750 -0.0504  1.6769
   48bbb     C6 1207  10.772   7.626   2.765 -0.5930 -0.6781 -0.0329
   48bbb    H11 1208  10.716   7.554   2.705 -1.0312  0.7419 -1.3886
   48bbb    H12 1209  10.775   7.606   2.873  2.0580  2.6173  0.6653
   48bbb     C7 1210  11.057   7.473   3.072  0.3188 -0.0160  0.8670
   48bbb     C8 1211  10.714   7.761   2.743 -0.3742  0.3694  0.4782
   48bbb     O1 1212  10.954   7.431   3.121 -0.5496  0.2582  0.3553
   48bbb     O2 1213  10.769   7.864   2.759 -0.8399 -0.5253  0.4425
   48bbb     N4 1214  11.225   7.468   2.431  0.1841 -0.0824  0.7476
   48bbb    H21 1215  11.290   7.400   2.468 -1.1449 -2.4995 -1.0221
   49bbb     C1 1216  12.122   7.107   2.067 -0.4024 -0.3969 -0.2417
   49bbb     H1 1217  12.148   7.141   1.966 -2.0037 -0.1831 -0.6133
   49bbb     H2 1218  12.164   7.006   2.077 -1.1638 -0.8331 -1.2233
   49bbb     C2 1219  11.967   7.101   2.055 -0.3178  0.4410  0.4556
   49bbb     H3 1220  11.943   7.056   1.958  2.0740 -1.7903  0.7503
   49bbb     H4 1221  11.918   7.039   2.131 -1.4582 -0.6423 -1.0933
   49bbb     N1 1222  12.174   7.187   2.177  0.4304  0.1185 -0.1594
   49bbb     C3 1223  12.144   7.118   2.304  0.3208  0.5061 -0.7342
   49bbb     H5 1224  12.214   7.034   2.318  0.8668  1.0664 -0.0413
   49bbb     H6 1225  12.044   7.073   2.305  1.2076 -1.5649 -0.5935
   49bbb     C4 1226  12.315   7.208   2.157 -0.1376  0.7459 -0.5169
   49bbb     H7 1227  12.360   7.221   2.256  1.2258  2.0613 -1.2942
   49bbb     H8 1228  12.361   7.124   2.104  1.1504  1.6056 -0.7875
   49bbb     C5 1229  12.331   7.336   2.087 -0.4228 -0.1418 -0.6112
   49bbb     H9 1230  12.305   7.324   1.981 -1.9834 -2.4783 -0.0180
   49bbb    H10 1231  12.265   7.411   2.133 -1.2426 -0.7488 -0.7893
   49bbb     C6 1232  12.146   7.203   2.422  0.0336 -0.2059  0.1775
   49bbb    H11 1233  12.250   7.237   2.433  0.3419 -0.7294 -0.9843
   49bbb    H12 1234  12.088   7.292   2.397  0.0394 -0.2200  0.1153
   49bbb     C7 1235  12.468   7.380   2.101 -0.8717  0.4345  0.2503
   49bbb     C8 1236  12.097   7.137   2.551 -0.7434 -0.0579 -0.1879
   49bbb     O1 1237  12.501   7.452   2.192 -0.1158  0.3815 -0.1422
   49bbb     O2 1238  11.993   7.082   2.562 -0.8836 -0.1648 -0.0806
   49bbb     N4 1239  11.906   7.238   2.047 -0.0856 -0.3974 -0.4417
   49bbb    H21 1240  11.932   7.298   1.970  1.4315 -1.9105 -1.1698
   50bbb     C1 1241  12.714  10.443   1.601 -0.0723  0.1763  0.5092
   50bbb     H1 1242  12.718  10.360   1.530  1.8714  1.3605 -0.8466
   50bbb     H2 1243  12.747  10.400   1.697  2.5787 -2.1862 -1.2994
   50bbb     C2 1244  12.572  10.498   1.615 -0.3419 -0.4075  0.0079
   50bbb     H3 1245  12.575  10.570   1.698 -0.4995  0.7553 -0.9591
   50bbb     H4 1246  12.538  10.553   1.526 -0.4565 -0.6204 -0.0794
   50bbb     N1 1247  12.797  10.556   1.551  0.2065 -0.6169 -0.4225
   50bbb     C3 1248  12.877  10.508   1.438 -0.2191  0.8496  0.5847
   50bbb     H5 1249  12.937  10.418   1.456  0.1180  0.4781 -2.0569
   50bbb     H6 1250  12.949  10.583   1.403  0.2590 -0.1791 -0.6894
   50bbb     C4 1251  12.884  10.610   1.651 -0.0883  0.1346  0.2241
   50bbb     H7 1252  12.954  10.531   1.681  0.0095 -0.0160 -0.4053
   50bbb     H8 1253  12.941  10.690   1.602  0.7554  0.1810  1.2332
   50bbb     C5 1254  12.814  10.670   1.766 -0.0429 -0.4939 -0.4239
   50bbb     H9 1255  12.727  10.732   1.740  0.2827  0.2879  0.2849
   50bbb    H10 1256  12.768  10.586   1.819 -3.4515  1.6834  0.3716
   50bbb     C6 1257  12.791  10.496   1.311 -0.0456  0.3732  0.3992
   50bbb    H11 1258  12.718  10.416   1.326  2.1954 -1.7442  0.5634
   50bbb    H12 1259  12.739  10.585   1.274 -0.1834 -0.5148 -1.6943
   50bbb     C7 1260  12.910  10.749   1.854  0.4034  0.2169 -0.1141
   50bbb     C8 1261  12.888  10.450   1.208 -0.0699  0.5429 -0.1244
   50bbb     O1 1262  13.029  10.765   1.822  0.5673 -0.3222 -0.0439
   50bbb     O2 1263  12.960  10.348   1.218 -0.0733 -0.1268 -0.2008
   50bbb     N4 1264  12.468  10.400   1.659 -0.3617  0.1357  0.1095
   50bbb    H21 1265  12.495  10.321   1.716  0.3053 -1.0533 -1.7278
   51bbb     C1 1266  11.369  10.115   1.846 -0.3905  0.3434  0.4099
   51bbb     H1 1267  11.393  10.203   1.907  0.0503  0.0885  0.6041
   51bbb     H2 1268  11.418  10.033   1.899 -1.8554 -0.3430  0.7707
   51bbb     C2 1269  11.450  10.140   1.716  0.2896 -1.2079  0.4715
   51bbb     H3 1270  11.405  10.079   1.637 -0.9807 -0.3184  0.4663
   51bbb     H4 1271  11.435  10.245   1.686  1.4193 -0.7828  1.3269
   51bbb     N1 1272  11.226  10.093   1.826 -0.3280  0.2308  0.1646
   51bbb     C3 1273  11.167  10.047   1.948  0.1529 -0.0626 -0.2896
   51bbb     H5 1274  11.242   9.978   1.989  1.0434  0.5676 -0.8124
   51bbb     H6 1275  11.071   9.995   1.942  0.3663 -0.6227  0.8517
   51bbb     C4 1276  11.146  10.188   1.738 -0.5519  0.7992 -0.4162
   51bbb     H7 1277  11.079  10.255   1.793 -0.1824  1.3131 -0.5850
   51bbb     H8 1278  11.213  10.248   1.675 -1.6068  2.7558  0.2341
   51bbb     C5 1279  11.049  10.109   1.660 -0.3281 -0.6602  0.5019
   51bbb     H9 1280  11.109  10.070   1.577  0.7441  1.5197  0.1885
   51bbb    H10 1281  11.005  10.032   1.725 -2.0313  1.7520  2.3501
   51bbb     C6 1282  11.142  10.169   2.041  0.2833 -0.4581 -0.5234
   51bbb    H11 1283  11.222  10.243   2.031  0.5285 -0.8241 -1.2619
   51bbb    H12 1284  11.044  10.214   2.020 -0.6202 -2.1164  0.0201
   51bbb     C7 1285  10.944  10.193   1.607  0.0315 -0.6503 -1.1473
   51bbb     C8 1286  11.134  10.115   2.183 -0.1801 -0.6551 -0.7023
   51bbb     O1 1287  10.958  10.305   1.571 -0.0410 -0.1631 -0.0462
   51bbb     O2 1288  11.230  10.086   2.244 -0.1789  0.7306 -0.5019
   51bbb     N4 1289  11.594  10.115   1.734  0.2981 -0.3364 -0.0598
   51bbb    H21 1290  11.637  10.128   1.825 -0.4482  2.1776  0.0287
   52bbb     C1 1291  12.444   8.373   0.969  0.0187 -0.4157  0.0463
   52bbb     H1 1292  12.542   8.403   0.931 -1.5451  3.8270 -1.1261
   52bbb     H2 1293  12.401   8.473   0.957 -2.6173 -1.7134 -2.7437
   52bbb     C2 1294  12.498   8.407   1.117  0.2354 -0.0163  0.5786
   52bbb     H3 1295  12.456   8.353   1.202  1.3807 -2.9311 -0.5647
   52bbb     H4 1296  12.600   8.368   1.115 -0.5717 -2.3747  2.0137
   52bbb     N1 1297  12.320   8.183   0.863  0.7012 -0.1438  0.0193
   52bbb     C3 1298  12.191   8.099   0.914 -0.4715  0.0704  0.1087
   52bbb     H5 1299  12.148   8.117   1.013  0.7897  1.0179  0.5245
   52bbb     H6 1300  12.225   7.998   0.938  0.5751  0.2630 -0.4913
   52bbb     C4 1301  12.343   8.090   0.731  0.2215  0.1253  0.6484
   52bbb     H7 1302  12.264   8.116   0.660  1.2129 -1.1189 -0.9922
   52bbb     H8 1303  12.437   8.109   0.677  0.5992 -0.1447  1.2022
   52bbb     C5 1304  12.343   7.937   0.747  0.2130  0.8204 -0.3746
   52bbb     H9 1305  12.396   7.910   0.839  4.5353  0.3457 -2.7157
   52bbb    H10 1306  12.251   7.878   0.750  1.4000 -1.2539 -1.5774
   52bbb     C6 1307  12.067   8.107   0.825  0.4382 -0.0541  0.0419
   52bbb    H11 1308  12.030   8.201   0.782 -0.3714 -1.0144 -1.4924
   52bbb    H12 1309  12.078   8.035   0.742  1.0652 -0.0789  0.1459
   52bbb     C7 1310  12.419   7.871   0.638  0.2819  0.1480  0.2576
   52bbb     C8 1311  11.947   8.067   0.900 -0.0356  0.1483 -0.4530
   52bbb     O1 1312  12.528   7.825   0.659  0.2585 -0.0336  0.2073
   52bbb     O2 1313  11.879   8.153   0.956 -0.6731 -0.0036 -0.1537
   52bbb     N4 1314  12.508   8.550   1.156 -0.0709 -0.3040  0.5949
   52bbb    H21 1315  12.591   8.603   1.130  0.1461 -0.9124  0.0026
   53bbb     C1 1316  12.786   9.341   0.881  0.1876 -0.1267 -0.2482
   53bbb     H1 1317  12.783   9.236   0.912  0.5828 -0.4281 -1.1733
   53bbb     H2 1318  12.818   9.400   0.967  0.2803  1.2381 -1.1829
   53bbb     C2 1319  12.645   9.380   0.835  0.1804  0.1049 -0.2987
   53bbb     H3 1320  12.650   9.489   0.826 -1.0774  0.1619 -0.5522
   53bbb     H4 1321  12.635   9.332   0.737 -1.4049  0.9573 -0.5875
   53bbb     N1 1322  12.874   9.362   0.768  0.0818  0.2299 -0.4555
   53bbb     C3 1323  12.891   9.255   0.667  0.3197 -0.1462  0.0429
   53bbb     H5 1324  12.800   9.197   0.645  0.5214 -0.8612  1.0042
   53bbb     H6 1325  12.959   9.179   0.706 -1.7548 -2.2910 -0.2656
   53bbb     C4 1326  13.003   9.408   0.804  0.1321 -0.6634 -0.3717
   53bbb     H7 1327  13.047   9.360   0.892 -1.1246 -0.0275  0.6304
   53bbb     H8 1328  13.082   9.400   0.728  0.6393  0.0208  0.0736
   53bbb     C5 1329  13.000   9.552   0.830  0.2831 -0.0670 -0.6189
   53bbb     H9 1330  12.971   9.598   0.735 -0.2361 -2.3694 -1.6651
   53bbb    H10 1331  12.924   9.587   0.902  0.3189  1.9462 -1.5240
   53bbb     C6 1332  12.920   9.309   0.525 -1.2997 -0.9066  0.3852
   53bbb    H11 1333  12.861   9.398   0.501 -0.6836 -0.7571 -0.6606
   53bbb    H12 1334  13.019   9.353   0.511 -1.0215 -1.3057  1.0376
   53bbb     C7 1335  13.125   9.613   0.874  0.7476  0.4837  0.7085
   53bbb     C8 1336  12.913   9.214   0.417  0.6092  0.2194  0.1565
   53bbb     O1 1337  13.192   9.681   0.797  0.5165 -0.2555 -0.3471
   53bbb     O2 1338  12.907   9.091   0.429 -0.1702  0.0568  0.3988
   53bbb     N4 1339  12.538   9.350   0.933  0.2341 -0.2461  0.0034
   53bbb    H21 1340  12.499   9.429   0.984 -0.6130  0.3645 -1.5255
   54bbb     C1 1341  11.242   9.025   4.723  1.0472  1.0855  0.3120
   54bbb     H1 1342  11.338   8.995   4.767  0.0509 -1.1190  1.1619
   54bbb     H2 1343  11.227   8.949   4.645  0.2336  0.2527  1.2494
   54bbb     C2 1344  11.251   9.162   4.663 -0.2483 -0.9722  0.5185
   54bbb     H3 1345  11.163   9.195   4.606 -0.7584  1.5393  2.5755
   54bbb     H4 1346  11.249   9.227   4.751 -0.4408 -1.1049  0.6144
   54bbb     N1 1347  11.135   9.017   4.817 -0.2830 -0.0497  0.1946
   54bbb     C3 1348  11.150   8.901   4.911 -0.4653  0.1730  0.9745
   54bbb     H5 1349  11.076   8.910   4.992 -0.8841 -0.4388  0.6657
   54bbb     H6 1350  11.249   8.906   4.957 -0.9468  0.7469  1.9742
   54bbb     C4 1351  11.004   9.030   4.764 -0.1252 -0.3518 -0.6014
   54bbb     H7 1352  11.000   9.123   4.706 -3.1419 -0.7206 -1.1846
   54bbb     H8 1353  10.969   8.949   4.697 -0.9463  0.6081 -1.3690
   54bbb     C5 1354  10.900   9.056   4.875  0.1166 -0.5736  0.0796
   54bbb     H9 1355  10.857   8.959   4.902  1.5874 -1.1370  0.5525
   54bbb    H10 1356  10.937   9.107   4.965 -3.0355 -0.0654  1.1949
   54bbb     C6 1357  11.138   8.766   4.844  0.6268  0.2487  0.0221
   54bbb    H11 1358  11.046   8.754   4.784  0.1984 -0.1790  0.7493
   54bbb    H12 1359  11.226   8.755   4.780  1.9200 -3.0565  2.1113
   54bbb     C7 1360  10.797   9.134   4.809  0.0650  0.5481  0.1152
   54bbb     C8 1361  11.161   8.664   4.952 -0.4901 -1.2343  0.3992
   54bbb     O1 1362  10.696   9.083   4.761 -0.5323  0.7083  0.0446
   54bbb     O2 1363  11.171   8.689   5.070 -0.3167 -0.0754 -0.7633
   54bbb     N4 1364  11.370   9.181   4.581 -0.4029 -0.2847 -0.4348
   54bbb    H21 1365  11.449   9.119   4.568 -0.1882 -0.1762  0.3308
   55bbb     C1 1366  11.586   9.915   4.112 -0.3858  0.1461 -0.6206
   55bbb     H1 1367  11.495   9.853   4.107 -0.1539 -0.3810  1.0387
   55bbb     H2 1368  11.561  10.016   4.077  0.8893  0.7775  0.2178
   55bbb     C2 1369  11.681   9.858   4.007 -0.3113 -0.4687 -0.1901
   55bbb     H3 1370  11.638   9.882   3.909  1.5007  1.1092 -0.6791
   55bbb     H4 1371  11.774   9.916   4.020 -0.2031 -0.9607  1.4125
   55bbb     N1 1372  11.649   9.910   4.245  0.2440  1.4804 -0.1395
   55bbb     C3 1373  11.633   9.788   4.321  0.7386  0.7000  0.0451
   55bbb     H5 1374  11.632   9.699   4.257  1.1966  0.4168  0.4304
   55bbb     H6 1375  11.542   9.785   4.383  0.9151  0.5357  0.2967
   55bbb     C4 1376  11.599  10.020   4.333 -0.4451  0.3972  0.4250
   55bbb     H7 1377  11.491  10.010   4.345 -0.2864 -0.6121  1.1873
   55bbb     H8 1378  11.650  10.012   4.430 -2.1672 -1.6094  1.2348
   55bbb     C5 1379  11.632  10.164   4.282  0.5386 -0.0192  0.4655
   55bbb     H9 1380  11.739  10.190   4.285  0.0366  2.1403  2.6349
   55bbb    H10 1381  11.606  10.187   4.178  0.7762 -1.4665  0.0599
   55bbb     C6 1382  11.759   9.757   4.403  0.1066  0.4904 -0.1281
   55bbb    H11 1383  11.850   9.770   4.343 -0.3660 -1.3522 -1.3358
   55bbb    H12 1384  11.756   9.825   4.489 -2.1103 -0.4988  0.6466
   55bbb     C7 1385  11.546  10.263   4.366 -0.2544  0.0313 -0.3973
   55bbb     C8 1386  11.757   9.619   4.469  0.1776 -0.0100 -0.9646
   55bbb     O1 1387  11.552  10.255   4.489 -0.3185 -0.2753 -0.5384
   55bbb     O2 1388  11.673   9.599   4.553  0.2795  0.1739 -0.2235
   55bbb     N4 1389  11.700   9.713   4.018 -0.4177 -0.5524 -0.5510
   55bbb    H21 1390  11.768   9.666   4.075  0.7830 -0.0933 -1.5568
   56bbb     C1 1391  11.986   7.934   3.456  0.1435  0.3056 -0.3260
   56bbb     H1 1392  12.001   8.027   3.400 -1.1989 -0.0486 -1.3172
   56bbb     H2 1393  11.882   7.938   3.490  1.0389  0.5043  2.7389
   56bbb     C2 1394  12.067   7.936   3.586 -0.5396 -0.5602 -0.9007
   56bbb     H3 1395  12.052   7.836   3.630 -1.5510  0.5145  1.4004
   56bbb     H4 1396  12.174   7.951   3.572 -0.3966 -0.6964 -0.0085
   56bbb     N1 1397  12.013   7.814   3.382  0.0979 -0.2093  0.5318
   56bbb     C3 1398  12.132   7.829   3.300 -0.7381  0.1218 -0.4427
   56bbb     H5 1399  12.164   7.933   3.291 -0.1377  0.0418  0.5116
   56bbb     H6 1400  12.133   7.773   3.206 -0.2277 -0.4182 -0.1303
   56bbb     C4 1401  11.895   7.781   3.304 -0.0833 -0.0169  0.0383
   56bbb     H7 1402  11.797   7.786   3.352 -1.9023 -0.0749 -3.3396
   56bbb     H8 1403  11.891   7.859   3.226 -0.4022 -0.1898 -0.1206
   56bbb     C5 1404  11.912   7.640   3.245  0.5931  0.1347  0.1288
   56bbb     H9 1405  12.014   7.615   3.215  1.2876  1.4937  1.2093
   56bbb    H10 1406  11.886   7.575   3.330 -0.0969  1.2284  0.7864
   56bbb     C6 1407  12.237   7.753   3.380 -0.3429  0.4326  0.6717
   56bbb    H11 1408  12.266   7.817   3.465  0.7224  1.1325 -0.1949
   56bbb    H12 1409  12.192   7.658   3.412  0.8396 -1.0611 -1.8467
   56bbb     C7 1410  11.809   7.604   3.136  0.3242  0.6295  0.2643
   56bbb     C8 1411  12.352   7.729   3.290  0.0489 -0.1554 -0.1960
   56bbb     O1 1412  11.690   7.632   3.145  0.4228 -0.2437  0.4123
   56bbb     O2 1413  12.354   7.633   3.219 -0.2274 -0.1363 -0.0103
   56bbb     N4 1414  12.011   8.032   3.687  0.1796 -0.1674  0.3821
   56bbb    H21 1415  11.953   8.107   3.649 -0.5079 -0.2599  1.2065
   57bbb     C1 1416  11.369   8.166   4.336 -0.6430 -0.2040  0.3880
   57bbb     H1 1417  11.343   8.080   4.274 -0.7510 -0.9271  1.4189
   57bbb     H2 1418  11.365   8.263   4.284  0.9751 -0.4259 -0.1897
   57bbb     C2 1419  11.518   8.151   4.382 -0.2734  0.1295 -0.1145
   57bbb     H3 1420  11.541   8.238   4.445  0.7720  0.2772 -0.6739
   57bbb     H4 1421  11.518   8.061   4.445 -1.0205  1.3313  1.6909
   57bbb     N1 1422  11.288   8.175   4.458 -0.0369 -0.1811  0.0911
   57bbb     C3 1423  11.233   8.046   4.499 -0.2228 -0.0035  0.6859
   57bbb     H5 1424  11.206   8.043   4.605 -0.8187 -1.1516  0.5183
   57bbb     H6 1425  11.313   7.970   4.492 -0.1138  0.0584  1.2325
   57bbb     C4 1426  11.187   8.278   4.482  0.4390  0.0514 -0.1739
   57bbb     H7 1427  11.125   8.280   4.391  1.2642 -0.6809 -0.7766
   57bbb     H8 1428  11.124   8.262   4.570 -1.6255  0.3569 -1.5272
   57bbb     C5 1429  11.259   8.409   4.505  0.7310  0.5689 -0.3151
   57bbb     H9 1430  11.331   8.401   4.588 -0.2404  1.5335  0.6461
   57bbb    H10 1431  11.318   8.435   4.416  0.4937  0.6962 -0.4351
   57bbb     C6 1432  11.115   8.008   4.412 -0.3402 -0.4054  0.6235
   57bbb    H11 1433  11.024   8.060   4.443 -0.9743 -0.9609 -0.2405
   57bbb    H12 1434  11.133   8.014   4.304 -1.1050 -0.7961  0.4654
   57bbb     C7 1435  11.151   8.509   4.526 -0.6931  0.2071  0.0115
   57bbb     C8 1436  11.088   7.867   4.448 -0.4699  0.8646 -1.0155
   57bbb     O1 1437  11.085   8.517   4.627 -0.3607  0.3706 -0.1732
   57bbb     O2 1438  11.145   7.777   4.398 -0.0677  0.1074  0.6055
   57bbb     N4 1439  11.608   8.151   4.272  0.1790  0.6102 -0.4120
   57bbb    H21 1440  11.580   8.189   4.182  1.1587 -0.2893 -1.1297
   58bbb     C1 1441  11.742   9.782   1.888 -0.4178  0.2543 -0.6111
   58bbb     H1 1442  11.783   9.694   1.938 -2.9591 -0.6443  0.0340
   58bbb     H2 1443  11.821   9.858   1.876  1.1684 -0.9694  1.5275
   58bbb     C2 1444  11.631   9.839   1.976 -0.0499 -0.4395  0.1118
   58bbb     H3 1445  11.589   9.916   1.909 -0.6305 -2.4293 -1.9386
   58bbb     H4 1446  11.552   9.767   1.995 -0.7959 -0.1311 -1.6063
   58bbb     N1 1447  11.693   9.740   1.755 -0.4101  0.0635 -0.1726
   58bbb     C3 1448  11.563   9.666   1.747 -0.5934  0.5907 -0.0259
   58bbb     H5 1449  11.533   9.620   1.842 -0.2513  0.4181  0.0004
   58bbb     H6 1450  11.564   9.593   1.665  0.7429  2.2504 -1.5555
   58bbb     C4 1451  11.804   9.687   1.681  0.8461  0.0109  0.1855
   58bbb     H7 1452  11.894   9.749   1.689  0.7201  0.4710 -1.5366
   58bbb     H8 1453  11.822   9.582   1.708  3.4543  0.1675 -0.6507
   58bbb     C5 1454  11.767   9.695   1.529  0.4800 -0.4355  0.4181
   58bbb     H9 1455  11.676   9.640   1.502  0.9270 -0.3956 -1.2594
   58bbb    H10 1456  11.747   9.800   1.506  0.2718 -0.5245  0.1862
   58bbb     C6 1457  11.454   9.765   1.707 -0.3460  0.6175 -0.1289
   58bbb    H11 1458  11.476   9.864   1.751 -0.2568  1.0390 -1.1049
   58bbb    H12 1459  11.453   9.783   1.599 -1.4304  0.1925 -0.1885
   58bbb     C7 1460  11.881   9.648   1.448  0.1969  0.2743  0.7268
   58bbb     C8 1461  11.321   9.725   1.755 -0.2460 -0.1334  0.0636
   58bbb     O1 1462  11.998   9.648   1.490 -0.5457  0.5045 -0.0417
   58bbb     O2 1463  11.237   9.704   1.672  0.5467  0.4403  0.2340
   58bbb     N4 1464  11.668   9.914   2.098  0.2711  0.2545 -0.9758
   58bbb    H21 1465  11.672   9.867   2.187 -0.5741 -0.2387 -1.1876
   59bbb     C1 1466  11.039  10.717   2.361  0.2909 -0.5343 -0.9097
   59bbb     H1 1467  11.081  10.764   2.272 -1.6216 -1.2168 -2.2395
   59bbb     H2 1468  11.109  10.739   2.442 -1.3057  0.6011  0.2244
   59bbb     C2 1469  11.021  10.567   2.349 -0.1279  0.4315 -0.1963
   59bbb     H3 1470  10.974  10.537   2.444 -3.1776 -0.2866 -1.7941
   59bbb     H4 1471  10.942  10.544   2.277  1.6443 -1.1274 -1.7294
   59bbb     N1 1472  10.911  10.780   2.390  0.1472  0.1061 -0.2519
   59bbb     C3 1473  10.853  10.836   2.275  0.1221 -0.2670  0.8108
   59bbb     H5 1474  10.875  10.764   2.194  0.7566 -0.2033  0.9236
   59bbb     H6 1475  10.881  10.940   2.257  0.1807 -0.0255  2.1916
   59bbb     C4 1476  10.916  10.877   2.497  0.5097  0.0398  0.2010
   59bbb     H7 1477  11.012  10.930   2.501  1.1008 -0.7247 -2.2497
   59bbb     H8 1478  10.826  10.939   2.500 -1.5005 -2.6430 -0.5406
   59bbb     C5 1479  10.902  10.804   2.633  0.5715 -0.0270 -0.1251
   59bbb     H9 1480  10.794  10.787   2.641  0.4897  0.8068  0.6935
   59bbb    H10 1481  10.952  10.706   2.635  0.2161 -0.2037  1.2823
   59bbb     C6 1482  10.697  10.830   2.285  0.1319 -0.4156 -0.2535
   59bbb    H11 1483  10.667  10.725   2.295 -1.6736 -0.0101 -1.0027
   59bbb    H12 1484  10.654  10.886   2.369 -1.0561 -3.2230  1.1696
   59bbb     C7 1485  10.944  10.890   2.747  1.2242 -0.0894 -0.2717
   59bbb     C8 1486  10.630  10.875   2.160 -0.7600 -0.7075 -0.2586
   59bbb     O1 1487  10.866  10.978   2.787 -1.2239  0.4780  0.1088
   59bbb     O2 1488  10.607  10.803   2.074 -0.3609 -0.0569  0.8416
   59bbb     N4 1489  11.143  10.495   2.322  0.0273  0.1635 -0.2738
   59bbb    H21 1490  11.167  10.484   2.225 -0.5081  2.1226 -0.6714
   60bbb     C1 1491  12.963   9.653   3.734  0.4072  0.3052 -0.1136
   60bbb     H1 1492  12.932   9.566   3.676  0.6864  0.3943 -0.3945
   60bbb     H2 1493  12.887   9.675   3.811  0.2187  1.9045 -0.7173
   60bbb     C2 1494  12.976   9.771   3.632  0.2278  0.0596  0.2923
   60bbb     H3 1495  13.028   9.855   3.681  0.1442  0.0529  0.3915
   60bbb     H4 1496  13.053   9.744   3.559 -1.2213 -0.6562 -1.0169
   60bbb     N1 1497  13.096   9.629   3.789  0.4256 -0.2864  0.4719
   60bbb     C3 1498  13.115   9.496   3.847 -0.3524  1.2208  0.1931
   60bbb     H5 1499  13.032   9.479   3.916 -1.0585 -1.4215 -1.2011
   60bbb     H6 1500  13.210   9.484   3.901 -0.6647  1.1409  0.7307
   60bbb     C4 1501  13.112   9.727   3.903 -0.0778 -0.3642 -0.4060
   60bbb     H7 1502  13.085   9.829   3.875 -1.6117  0.5777  3.8545
   60bbb     H8 1503  13.048   9.701   3.988 -0.4421  1.1590 -0.1902
   60bbb     C5 1504  13.254   9.720   3.951 -0.4919  0.4265 -0.4952
   60bbb     H9 1505  13.258   9.640   4.026 -0.3972  1.5232  0.7027
   60bbb    H10 1506  13.331   9.710   3.874  0.7984 -2.0648  0.9952
   60bbb     C6 1507  13.116   9.384   3.736  0.5394  0.3269 -0.2120
   60bbb    H11 1508  13.045   9.410   3.657 -0.0446  0.7133  0.4294
   60bbb    H12 1509  13.212   9.372   3.684 -0.0251 -3.8361 -0.6738
   60bbb     C7 1510  13.277   9.852   4.023 -0.3593  0.1599 -0.1177
   60bbb     C8 1511  13.072   9.256   3.786  0.2863 -0.0897 -0.4577
   60bbb     O1 1512  13.233   9.868   4.135 -0.1560  0.0655  0.1819
   60bbb     O2 1513  13.073   9.231   3.906  0.0302 -0.1600  0.1013
   60bbb     N4 1514  12.852   9.817   3.566  0.4514 -0.0182  0.1884
   60bbb    H21 1515  12.762   9.790   3.605 -0.3088  1.3474 -0.5257
   61bbb     C1 1516  12.630  10.576   3.116  0.6331 -0.0679 -0.3351
   61bbb     H1 1517  12.666  10.476   3.141  1.0676 -0.3950 -2.1229
   61bbb     H2 1518  12.604  10.641   3.201 -3.3403 -0.0260 -1.3418
   61bbb     C2 1519  12.505  10.541   3.032  0.4637  0.4246  0.6585
   61bbb     H3 1520  12.451  10.635   3.019 -0.9067 -0.5211 -0.8827
   61bbb     H4 1521  12.526  10.514   2.928 -1.0402 -0.0971  0.4746
   61bbb     N1 1522  12.738  10.641   3.036 -0.1754  0.6713  0.1315
   61bbb     C3 1523  12.803  10.568   2.932  0.5181 -0.3280 -0.5132
   61bbb     H5 1524  12.874  10.627   2.874  0.0699  2.9886  2.0407
   61bbb     H6 1525  12.724  10.541   2.862  0.4990 -0.8434 -0.2981
   61bbb     C4 1526  12.681  10.771   2.985 -1.0617  0.2697  0.3910
   61bbb     H7 1527  12.656  10.754   2.880  1.1456  2.9708 -0.6735
   61bbb     H8 1528  12.590  10.801   3.039  0.4651  1.8721  2.2145
   61bbb     C5 1529  12.788  10.878   2.988 -0.0227  0.8862 -0.1255
   61bbb     H9 1530  12.811  10.876   3.095 -1.9648 -1.3919  0.3253
   61bbb    H10 1531  12.877  10.853   2.929  1.2362  3.3265  0.5995
   61bbb     C6 1532  12.881  10.448   2.983 -0.1622  0.4212  0.4542
   61bbb    H11 1533  12.965  10.483   3.044  0.4918  1.7116 -1.1023
   61bbb    H12 1534  12.823  10.370   3.033  0.2956 -0.5007 -0.4129
   61bbb     C7 1535  12.741  11.009   2.941  0.0397 -0.9920  0.0094
   61bbb     C8 1536  12.938  10.372   2.868  0.9003 -0.4239 -0.2222
   61bbb     O1 1537  12.751  11.046   2.824 -0.1439 -0.6125  0.2102
   61bbb     O2 1538  12.872  10.299   2.794  0.5147  0.0448  0.4749
   61bbb     N4 1539  12.412  10.446   3.095  0.0682 -0.0916 -0.7566
   61bbb    H21 1540  12.406  10.445   3.196  0.6180 -0.1011 -0.7191
   62bbb     C1 1541  12.212  11.267   0.529  0.7039  0.5423 -0.3794
   62bbb     H1 1542  12.203  11.173   0.585  2.0762  2.4825  3.4764
   62bbb     H2 1543  12.312  11.273   0.483  1.0602  0.0516  0.3199
   62bbb     C2 1544  12.187  11.372   0.635 -0.4977 -0.2638 -0.2699
   62bbb     H3 1545  12.261  11.356   0.715  0.3125 -1.2495 -1.1891
   62bbb     H4 1546  12.206  11.471   0.590 -3.1911  0.2846 -0.3821
   62bbb     N1 1547  12.108  11.263   0.428  0.3994  0.0495 -0.5026
   62bbb     C3 1548  12.103  11.133   0.352 -0.7010 -1.0268  0.0308
   62bbb     H5 1549  12.200  11.109   0.306 -0.2536 -2.7994  1.7764
   62bbb     H6 1550  12.032  11.133   0.268 -0.7178  1.0831  0.0059
   62bbb     C4 1551  12.115  11.374   0.335 -0.0695 -0.1193 -0.6796
   62bbb     H7 1552  12.143  11.467   0.387 -0.0914 -0.1705 -0.5744
   62bbb     H8 1553  12.197  11.361   0.263  1.7751 -0.5900  1.3789
   62bbb     C5 1554  11.975  11.395   0.271  0.0885  0.2465  0.2211
   62bbb     H9 1555  11.955  11.313   0.200  1.9809 -0.5411  0.5203
   62bbb    H10 1556  11.898  11.385   0.348  0.7494  2.6732  1.2909
   62bbb     C6 1557  12.067  11.010   0.434 -0.0627  0.1373 -0.1437
   62bbb    H11 1558  12.152  10.971   0.491 -2.9964 -1.9390  3.3249
   62bbb    H12 1559  11.987  11.021   0.509  0.9068 -1.6942  1.2655
   62bbb     C7 1560  11.969  11.523   0.198  0.0155 -0.7383  0.1562
   62bbb     C8 1561  12.034  10.900   0.342 -0.0202 -0.1702  0.0760
   62bbb     O1 1562  11.982  11.535   0.075 -0.1191  0.3802  0.4611
   62bbb     O2 1563  12.105  10.798   0.334  0.0271 -0.2839 -0.1366
   62bbb     N4 1564  12.052  11.369   0.692 -0.1542  0.4824  0.3490
   62bbb    H21 1565  12.015  11.277   0.713 -1.1257  0.3038 -1.8125
   63bbb     C1 1566  12.192  11.650   0.889  0.1169  0.2916 -0.5473
   63bbb     H1 1567  12.167  11.648   0.782  0.8561 -1.0571 -0.7077
   63bbb     H2 1568  12.260  11.565   0.898  1.5371  1.3953 -0.5202
   63bbb     C2 1569  12.087  11.613   0.991 -0.4179  0.0774 -0.3451
   63bbb     H3 1570  12.138  11.627   1.087 -0.4460  2.1731 -0.5864
   63bbb     H4 1571  12.000  11.680   0.980  0.7044  2.2074  2.6062
   63bbb     N1 1572  12.268  11.770   0.929 -0.2994  0.1195  0.1335
   63bbb     C3 1573  12.185  11.892   0.910 -0.3604 -0.9429 -0.1200
   63bbb     H5 1574  12.081  11.860   0.892  0.3098 -3.7463  0.5590
   63bbb     H6 1575  12.225  11.951   0.827 -1.6111 -0.4733 -0.4219
   63bbb     C4 1576  12.395  11.783   0.861  0.2133 -0.4058 -0.1921
   63bbb     H7 1577  12.422  11.677   0.873 -0.2702 -0.3811  1.2639
   63bbb     H8 1578  12.370  11.821   0.761  0.4076  3.0838  0.9498
   63bbb     C5 1579  12.491  11.877   0.934  0.4446 -0.1471  0.8303
   63bbb     H9 1580  12.458  11.979   0.915  1.3924 -0.2552 -1.7683
   63bbb    H10 1581  12.484  11.857   1.042 -1.2672 -0.5726  0.6604
   63bbb     C6 1582  12.183  11.974   1.036  0.5167 -0.2564  0.1912
   63bbb    H11 1583  12.115  11.918   1.102 -0.7357  0.9986  0.0010
   63bbb    H12 1584  12.288  11.983   1.067  0.5243 -1.1993  0.4707
   63bbb     C7 1585  12.637  11.849   0.897 -0.1598  0.5402  0.3075
   63bbb     C8 1586  12.122  12.102   0.994  0.1310  0.0650 -0.3814
   63bbb     O1 1587  12.700  11.908   0.813 -0.4365  0.4063 -0.5611
   63bbb     O2 1588  12.001  12.123   1.008 -0.4201  0.3512  0.0173
   63bbb     N4 1589  12.024  11.476   0.975 -0.3152 -0.2754  0.1475
   63bbb    H21 1590  12.067  11.405   0.917  1.2319 -0.1284  1.0695
   64bbb     C1 1591  11.533   9.589  -0.254 -0.1140  0.3242 -0.7199
   64bbb     H1 1592  11.643   9.595  -0.258 -0.1436  1.4270 -0.2828
   64bbb     H2 1593  11.501   9.682  -0.302  1.3521  1.4927  0.4727
   64bbb     C2 1594  11.499   9.600  -0.102  0.3231  0.7501  0.2613
   64bbb     H3 1595  11.392   9.580  -0.089  0.5635  0.3298  1.6940
   64bbb     H4 1596  11.556   9.524  -0.048 -1.5681  0.0077  1.3124
   64bbb     N1 1597  11.477   9.465  -0.312  0.2308 -0.0949  0.2790
   64bbb     C3 1598  11.570   9.365  -0.360 -0.7396 -0.6264  0.9885
   64bbb     H5 1599  11.636   9.423  -0.425 -2.4495  1.7208  1.2248
   64bbb     H6 1600  11.516   9.282  -0.408 -2.4559 -0.9678  3.2914
   64bbb     C4 1601  11.364   9.501  -0.401  0.2984  0.4535  0.1415
   64bbb     H7 1602  11.319   9.594  -0.366  2.6302  1.2033  1.3459
   64bbb     H8 1603  11.400   9.525  -0.502  0.4964  1.8174  0.5180
   64bbb     C5 1604  11.266   9.388  -0.402  0.4509 -0.3026  0.4906
   64bbb     H9 1605  11.309   9.301  -0.454  1.8954  0.3984  0.4551
   64bbb    H10 1606  11.262   9.359  -0.296 -0.9893  1.0221  0.8255
   64bbb     C6 1607  11.660   9.312  -0.253 -0.4195 -0.1072 -0.4593
   64bbb    H11 1608  11.759   9.360  -0.248  1.9224 -4.0775 -2.6560
   64bbb    H12 1609  11.611   9.312  -0.156  1.6703  1.1497  0.6702
   64bbb     C7 1610  11.139   9.430  -0.464  0.3035 -0.9715  0.1959
   64bbb     C8 1611  11.692   9.176  -0.292  0.4572 -0.0887  0.0426
   64bbb     O1 1612  11.139   9.499  -0.564 -0.1146 -0.5434  0.0484
   64bbb     O2 1613  11.743   9.151  -0.398 -0.1832  0.2592 -0.2473
   64bbb     N4 1614  11.518   9.740  -0.061 -0.1273 -0.3708  0.0537
   64bbb    H21 1615  11.523   9.805  -0.139 -0.0263 -1.0756 -0.5429
   65bbb     C1 1616  11.782   9.818  -0.640 -0.2202  0.3820 -0.2757
   65bbb     H1 1617  11.716   9.753  -0.699  0.5355 -2.9910  2.2825
   65bbb     H2 1618  11.887   9.788  -0.651  0.4727  2.2279  0.8203
   65bbb     C2 1619  11.733   9.805  -0.489 -0.0933 -0.3904  0.0700
   65bbb     H3 1620  11.623   9.806  -0.496 -0.0015  0.7053 -1.6956
   65bbb     H4 1621  11.765   9.708  -0.449  0.1093  0.2259  1.4511
   65bbb     N1 1622  11.774   9.956  -0.691 -0.1793  0.5474 -0.7493
   65bbb     C3 1623  11.637  10.000  -0.717  0.0944  0.1563 -0.2911
   65bbb     H5 1624  11.566   9.929  -0.673 -1.0094  3.4179  3.8931
   65bbb     H6 1625  11.619  10.015  -0.824 -0.2624  1.8477 -0.0209
   65bbb     C4 1626  11.866   9.990  -0.795  0.1070  0.4561  0.7674
   65bbb     H7 1627  11.961   9.937  -0.790  0.1051  0.1492 -1.4619
   65bbb     H8 1628  11.819   9.968  -0.892  0.2438 -1.5235  1.1157
   65bbb     C5 1629  11.900  10.141  -0.776  0.1148  0.0110 -0.2491
   65bbb     H9 1630  11.832  10.212  -0.825 -1.0864 -0.8631  0.1193
   65bbb    H10 1631  11.883  10.162  -0.670 -2.4288 -1.3850 -0.3181
   65bbb     C6 1632  11.605  10.129  -0.639  0.5991  0.0121  0.1532
   65bbb    H11 1633  11.622  10.112  -0.532  1.4431 -0.0342  0.0181
   65bbb    H12 1634  11.666  10.210  -0.680  2.5243 -1.1749  0.5811
   65bbb     C7 1635  12.037  10.184  -0.818 -0.1707 -1.2401 -0.2583
   65bbb     C8 1636  11.463  10.166  -0.650  0.1292 -0.1829  0.6018
   65bbb     O1 1637  12.078  10.188  -0.932  0.0026 -0.4256 -0.1438
   65bbb     O2 1638  11.375  10.086  -0.634 -0.4593  0.6277 -0.4221
   65bbb     N4 1639  11.773   9.921  -0.407 -0.2145 -0.6360  0.4974
   65bbb    H21 1640  11.865   9.960  -0.422  0.0022 -0.9946  0.8608
   66bbb     C1 1641  11.495  11.414   2.912 -0.5925 -0.4383 -0.1664
   66bbb     H1 1642  11.595  11.416   2.867 -0.3766 -2.7905  0.0986
   66bbb     H2 1643  11.508  11.343   2.994 -0.5498  0.4561  0.6179
   66bbb     C2 1644  11.406  11.357   2.800  0.4490 -0.6895  0.5227
   66bbb     H3 1645  11.303  11.358   2.836 -0.0053  2.8761 -0.5470
   66bbb     H4 1646  11.412  11.437   2.725 -0.4776  0.2412  1.4127
   66bbb     N1 1647  11.446  11.542   2.973 -0.4144  0.3949 -0.3454
   66bbb     C3 1648  11.550  11.601   3.049 -0.0530 -0.9869  0.2173
   66bbb     H5 1649  11.599  11.534   3.121 -1.7509 -3.2609 -0.6140
   66bbb     H6 1650  11.505  11.681   3.108 -0.8206 -1.7292  0.6693
   66bbb     C4 1651  11.334  11.514   3.060  0.3844 -0.2468  0.3617
   66bbb     H7 1652  11.270  11.433   3.021  2.1047 -1.4062 -0.2020
   66bbb     H8 1653  11.374  11.488   3.158  2.7727  1.4200 -0.0908
   66bbb     C5 1654  11.238  11.638   3.067 -0.0436 -0.0747 -0.0297
   66bbb     H9 1655  11.282  11.726   3.116  0.3068 -1.3052  1.9479
   66bbb    H10 1656  11.196  11.680   2.974 -2.0933 -1.4889  0.1885
   66bbb     C6 1657  11.651  11.669   2.965  0.9813 -0.6305 -0.5238
   66bbb    H11 1658  11.723  11.598   2.923  3.0861  0.0716  1.6736
   66bbb    H12 1659  11.604  11.723   2.882  2.7740 -1.2315 -2.0018
   66bbb     C7 1660  11.114  11.606   3.145  0.2449 -0.1148 -0.0029
   66bbb     C8 1661  11.737  11.765   3.045 -0.0054  0.2426  0.1278
   66bbb     O1 1662  11.026  11.556   3.080  0.1615  0.4970 -0.6586
   66bbb     O2 1663  11.845  11.731   3.090 -0.1639 -0.8017  0.5909
   66bbb     N4 1664  11.439  11.233   2.729  1.1888 -0.2027 -0.0744
   66bbb    H21 1665  11.535  11.203   2.715  1.7411  1.0106  0.9512
   67bbb     C1 1666  11.862  10.487   2.837 -0.2748 -0.2841 -0.4603
   67bbb     H1 1667  11.943  10.559   2.819 -0.5919 -0.0326 -0.9057
   67bbb     H2 1668  11.839  10.436   2.742  0.0799 -0.2853 -0.5506
   67bbb     C2 1669  11.729  10.554   2.876 -0.1339 -0.4387 -0.3583
   67bbb     H3 1670  11.661  10.468   2.883 -0.8287  0.0657 -0.6625
   67bbb     H4 1671  11.736  10.608   2.971  0.3845  0.4773 -0.9005
   67bbb     N1 1672  11.907  10.384   2.934  0.0982 -0.0607  0.5481
   67bbb     C3 1673  11.956  10.445   3.058 -0.9802 -0.2747  0.4230
   67bbb     H5 1674  11.887  10.527   3.080 -0.4692 -0.0768  1.3278
   67bbb     H6 1675  12.060  10.479   3.054 -1.5959  1.6669 -1.8619
   67bbb     C4 1676  12.007  10.292   2.869  0.4345 -0.2556  0.8034
   67bbb     H7 1677  12.060  10.355   2.798  0.4780 -1.5350 -0.3388
   67bbb     H8 1678  12.089  10.256   2.933  2.1364 -0.9632 -1.6382
   67bbb     C5 1679  11.919  10.181   2.803 -0.7060 -0.2108 -0.0457
   67bbb     H9 1680  11.855  10.130   2.877  1.4712  0.0980  2.2066
   67bbb    H10 1681  11.850  10.227   2.732  1.0846 -1.0203 -2.4136
   67bbb     C6 1682  11.939  10.343   3.164 -0.2823 -0.2822  0.3288
   67bbb    H11 1683  11.833  10.314   3.168 -0.9096  1.6876 -0.5720
   67bbb    H12 1684  11.993  10.251   3.140 -1.0181 -0.4017 -0.9228
   67bbb     C7 1685  11.989  10.079   2.723 -0.1913  0.0858  0.4062
   67bbb     C8 1686  11.989  10.394   3.295 -1.0230  0.3873 -0.1910
   67bbb     O1 1687  11.979   9.957   2.742  0.3304 -0.1170  0.4050
   67bbb     O2 1688  12.001  10.516   3.317  0.1438  0.0370 -0.2399
   67bbb     N4 1689  11.678  10.646   2.768  0.0583  0.1408  0.8887
   67bbb    H21 1690  11.732  10.719   2.724 -1.1780 -1.2307 -3.4453
   68bbb     C1 1691  10.513  11.097   0.834 -0.1557 -0.1190  0.0810
   68bbb     H1 1692  10.526  10.988   0.825 -1.0531 -0.3295  1.2306
   68bbb     H2 1693  10.600  11.141   0.884  0.2404 -2.6296  1.8223
   68bbb     C2 1694  10.385  11.129   0.917 -0.0525 -0.3319 -0.4128
   68bbb     H3 1695  10.350  11.232   0.899 -1.3565 -0.7162 -0.1329
   68bbb     H4 1696  10.297  11.074   0.883 -1.0037  1.1280 -0.4122
   68bbb     N1 1697  10.487  11.148   0.698  0.1103 -0.4935  0.1378
   68bbb     C3 1698  10.399  11.065   0.615 -0.3354 -0.6042 -0.8454
   68bbb     H5 1699  10.318  11.050   0.687  1.8789  1.0521  2.2066
   68bbb     H6 1700  10.455  10.973   0.596 -1.4114 -0.9633 -2.6007
   68bbb     C4 1701  10.617  11.150   0.640  0.6951 -0.1929  1.4119
   68bbb     H7 1702  10.676  11.061   0.666  1.8859 -0.1191 -0.7578
   68bbb     H8 1703  10.611  11.151   0.531  0.3832  0.1734  1.4295
   68bbb     C5 1704  10.684  11.281   0.670 -0.3460 -0.3201  0.2046
   68bbb     H9 1705  10.651  11.371   0.618  2.6233  2.2610  2.4281
   68bbb    H10 1706  10.693  11.300   0.778  0.0778 -1.1072  0.3187
   68bbb     C6 1707  10.346  11.127   0.486  0.3552 -0.2367 -0.0000
   68bbb    H11 1708  10.269  11.200   0.516 -0.4931 -0.5623 -1.3216
   68bbb    H12 1709  10.420  11.176   0.423 -1.4533 -0.0959 -2.1507
   68bbb     C7 1710  10.828  11.281   0.620 -0.2106  0.4503  0.6080
   68bbb     C8 1711  10.295  11.019   0.402  0.1049  0.3464  0.1380
   68bbb     O1 1712  10.854  11.326   0.513 -0.8822 -0.6011  0.1471
   68bbb     O2 1713  10.175  10.995   0.398  0.2624  0.3130 -0.2193
   68bbb     N4 1714  10.407  11.127   1.061  0.4710  0.3941 -0.9694
   68bbb    H21 1715  10.418  11.041   1.114 -1.9582  0.2042 -0.6459
   69bbb     C1 1716  10.490  11.661   2.090 -0.0114 -0.1070 -0.4625
   69bbb     H1 1717  10.561  11.580   2.111  0.7838  0.4921 -0.7818
   69bbb     H2 1718  10.384  11.636   2.105 -0.3077  0.4198 -1.5209
   69bbb     C2 1719  10.512  11.679   1.938  1.0480 -0.6582  0.3890
   69bbb     H3 1720  10.434  11.741   1.891  1.4912  1.3086  2.0941
   69bbb     H4 1721  10.604  11.736   1.919  0.4573  0.2414  0.2023
   69bbb     N1 1722  10.536  11.785   2.158  0.1010  0.1136 -0.2839
   69bbb     C3 1723  10.446  11.897   2.130 -0.3494  0.4362 -0.1481
   69bbb     H5 1724  10.458  11.925   2.024  2.9863 -0.3931 -0.0826
   69bbb     H6 1725  10.489  11.979   2.188  1.0393  0.5131 -1.2280
   69bbb     C4 1726  10.587  11.762   2.293  0.0259  0.2235 -0.0581
   69bbb     H7 1727  10.511  11.742   2.369  0.1994  0.2002  0.1114
   69bbb     H8 1728  10.661  11.682   2.281  0.1347  0.0589  1.4843
   69bbb     C5 1729  10.669  11.878   2.344  0.2070 -0.2580  0.1857
   69bbb     H9 1730  10.747  11.903   2.270 -0.7687  1.8099 -0.2407
   69bbb    H10 1731  10.607  11.968   2.354 -1.0905 -1.0717 -0.4567
   69bbb     C6 1732  10.302  11.875   2.159 -0.6158  0.2968  0.2744
   69bbb    H11 1733  10.249  11.804   2.094  0.2302 -3.3100  3.1884
   69bbb    H12 1734  10.296  11.838   2.262 -1.5834  0.2775  0.2207
   69bbb     C7 1735  10.716  11.850   2.484  0.4921  0.3063  0.1776
   69bbb     C8 1736  10.222  11.997   2.159 -0.1985  0.2268 -0.6943
   69bbb     O1 1737  10.657  11.906   2.577 -0.0845 -0.3946  0.6201
   69bbb     O2 1738  10.179  12.038   2.056  0.1131  0.1896  0.1303
   69bbb     N4 1739  10.519  11.550   1.868  0.2804  0.1905 -0.1874
   69bbb    H21 1740  10.609  11.508   1.845 -1.8559 -4.1726 -1.5973
   70bbb     C1 1741  11.071   7.046   0.884  0.5570  0.5510 -0.6100
   70bbb     H1 1742  11.105   7.111   0.965 -0.1057  1.9709 -1.4244
   70bbb     H2 1743  11.077   7.098   0.787  1.2453  0.7616 -0.4597
   70bbb     C2 1744  10.926   7.022   0.923 -0.1103  0.5221  0.0064
   70bbb     H3 1745  10.886   6.936   0.868 -1.5235  0.5019  0.9881
   70bbb     H4 1746  10.923   6.985   1.027  0.7960  1.1598  0.2717
   70bbb     N1 1747  11.147   6.924   0.886 -0.0727  0.0230 -0.2240
   70bbb     C3 1748  11.192   6.881   1.018 -0.1069  0.3962 -0.3494
   70bbb     H5 1749  11.135   6.924   1.102  1.7326  0.8464  0.7302
   70bbb     H6 1750  11.299   6.901   1.030 -0.3649  0.1519  3.7133
   70bbb     C4 1751  11.255   6.932   0.789 -0.4056  0.0370  0.6881
   70bbb     H7 1752  11.295   7.034   0.786 -0.4366  0.0295 -1.4294
   70bbb     H8 1753  11.337   6.874   0.833 -1.4101 -1.1665  1.0343
   70bbb     C5 1754  11.209   6.891   0.647  0.4430  0.1597 -0.5268
   70bbb     H9 1755  11.185   6.784   0.645  0.8297  0.0419  0.4426
   70bbb    H10 1756  11.122   6.945   0.608  0.1939 -0.7513 -1.2783
   70bbb     C6 1757  11.176   6.732   1.030  0.8661 -0.3276 -0.0552
   70bbb    H11 1758  11.072   6.711   1.056  0.7582 -0.4902 -0.6000
   70bbb    H12 1759  11.206   6.681   0.937 -1.3405  0.5707 -1.3369
   70bbb     C7 1760  11.311   6.910   0.542  0.3102 -0.2889  0.6016
   70bbb     C8 1761  11.264   6.704   1.147 -0.6956  0.2306  0.4031
   70bbb     O1 1762  11.312   7.016   0.481 -0.1434  0.6079 -0.3971
   70bbb     O2 1763  11.357   6.773   1.191 -0.0073 -0.4253  0.5627
   70bbb     N4 1764  10.840   7.135   0.897  0.0306  0.2579 -0.5739
   70bbb    H21 1765  10.803   7.153   0.805 -2.0662  2.1155  0.5308
   71bbb     C1 1766  10.819   8.078   0.339 -0.5748  0.5203  0.4985
   71bbb     H1 1767  10.925   8.088   0.367 -0.4899  1.4310 -0.0957
   71bbb     H2 1768  10.768   8.126   0.423  1.8533  1.2816  1.6486
   71bbb     C2 1769  10.796   7.925   0.330  0.2794  0.1602  0.0102
   71bbb     H3 1770  10.706   7.910   0.268  1.2766 -0.7163 -1.2750
   71bbb     H4 1771  10.867   7.874   0.264 -0.8751 -0.8332 -0.5206
   71bbb     N1 1772  10.790   8.143   0.210  0.2247 -0.0155 -0.2522
   71bbb     C3 1773  10.646   8.147   0.161  0.5353  0.1157  0.2241
   71bbb     H5 1774  10.608   8.249   0.147 -1.2492 -0.6681 -1.0501
   71bbb     H6 1775  10.576   8.110   0.236  0.3242 -0.2034 -0.1257
   71bbb     C4 1776  10.856   8.273   0.214  0.4424  0.2318  0.2642
   71bbb     H7 1777  10.798   8.340   0.280 -0.8403 -0.4615 -0.1149
   71bbb     H8 1778  10.962   8.263   0.237  0.6377  0.0153 -0.6774
   71bbb     C5 1779  10.855   8.339   0.077 -0.0234 -0.2795  0.6226
   71bbb     H9 1780  10.885   8.276  -0.007 -1.4264  0.5858 -0.5613
   71bbb    H10 1781  10.751   8.365   0.054  0.1655  0.2993  0.4097
   71bbb     C6 1782  10.627   8.059   0.037  0.0023 -0.0137  0.5609
   71bbb    H11 1783  10.682   8.118  -0.037  1.0393 -0.8192  0.6572
   71bbb    H12 1784  10.678   7.962   0.046 -0.1588 -0.2350 -0.7197
   71bbb     C7 1785  10.926   8.465   0.071 -0.0749  0.0963 -0.1669
   71bbb     C8 1786  10.484   8.035   0.015  0.1362 -0.3536 -0.2358
   71bbb     O1 1787  10.953   8.525   0.175 -0.0232  0.8327  0.2021
   71bbb     O2 1788  10.435   7.949   0.070  0.4279  0.6142  0.4022
   71bbb     N4 1789  10.782   7.864   0.462  0.3932  0.1900 -0.1697
   71bbb    H21 1790  10.704   7.890   0.521  0.1360 -0.9411  0.0165
   72bbb     C1 1791  12.368   8.507   2.013 -1.0395  0.2088 -0.6608
   72bbb     H1 1792  12.350   8.568   1.924  0.9164 -0.8067 -1.8274
   72bbb     H2 1793  12.380   8.401   1.986  0.1407  0.1211  0.1354
   72bbb     C2 1794  12.245   8.511   2.099 -0.0786 -0.1343 -0.0355
   72bbb     H3 1795  12.259   8.432   2.174 -1.8305  0.8918  1.4352
   72bbb     H4 1796  12.229   8.609   2.146  1.6680 -0.1607  0.7092
   72bbb     N1 1797  12.480   8.561   2.095  0.4367 -0.7583 -0.3323
   72bbb     C3 1798  12.583   8.621   2.007 -0.0971  0.0194 -0.3301
   72bbb     H5 1799  12.649   8.687   2.065  0.0321 -0.4867  0.1185
   72bbb     H6 1800  12.531   8.668   1.923 -0.1419  1.3150  0.4013
   72bbb     C4 1801  12.524   8.463   2.199 -0.2196 -0.4608  0.4000
   72bbb     H7 1802  12.438   8.453   2.267 -0.7299  2.7401  0.3666
   72bbb     H8 1803  12.534   8.363   2.154  0.1662 -0.7744  1.1617
   72bbb     C5 1804  12.628   8.507   2.288 -0.6058 -0.7410  0.1507
   72bbb     H9 1805  12.715   8.554   2.240  1.2649 -1.5135  2.5595
   72bbb    H10 1806  12.579   8.580   2.355 -1.3953 -1.8356  0.8072
   72bbb     C6 1807  12.675   8.513   1.938  0.1489  0.4943  0.0666
   72bbb    H11 1808  12.723   8.455   2.018 -0.7312  0.3024  0.4705
   72bbb    H12 1809  12.609   8.440   1.889 -0.0673 -0.4374  1.6780
   72bbb     C7 1810  12.670   8.406   2.384 -0.0478  0.3127 -0.0582
   72bbb     C8 1811  12.783   8.570   1.855 -0.0697 -0.2567 -0.7686
   72bbb     O1 1812  12.695   8.290   2.347  0.2885  1.1822  0.4372
   72bbb     O2 1813  12.779   8.686   1.828  0.2139  0.6778 -0.0909
   72bbb     N4 1814  12.122   8.472   2.031 -0.0823 -0.7910 -0.4254
   72bbb    H21 1815  12.120   8.412   1.949  0.3823 -1.6033  0.1470
   73bbb     C1 1816  11.509   8.292   2.597 -0.1704  0.5062  0.0093
   73bbb     H1 1817  11.478   8.355   2.512  0.9040 -0.4854 -1.1524
   73bbb     H2 1818  11.618   8.302   2.592 -0.1935  0.2598 -3.0077
   73bbb     C2 1819  11.477   8.147   2.557  0.1296  0.3351  0.5271
   73bbb     H3 1820  11.519   8.082   2.635 -0.0009  0.0860  0.3897
   73bbb     H4 1821  11.372   8.118   2.547  0.5375 -1.0142 -0.0465
   73bbb     N1 1822  11.469   8.332   2.734  0.3767 -0.0652  0.2848
   73bbb     C3 1823  11.540   8.259   2.841 -0.2645 -0.4064 -0.4820
   73bbb     H5 1824  11.504   8.155   2.842 -0.5203 -0.4017 -2.6248
   73bbb     H6 1825  11.512   8.303   2.937  0.6759 -0.1753 -0.3072
   73bbb     C4 1826  11.321   8.322   2.748 -0.5389 -0.2234  0.4941
   73bbb     H7 1827  11.272   8.365   2.660  0.0438  3.2543  1.6925
   73bbb     H8 1828  11.276   8.224   2.766 -0.7494  0.0090  1.2403
   73bbb     C5 1829  11.277   8.405   2.860  0.4474  0.0380 -0.1010
   73bbb     H9 1830  11.332   8.393   2.954  1.0609 -1.1269 -0.5919
   73bbb    H10 1831  11.299   8.509   2.832  2.5052 -0.3491 -0.0790
   73bbb     C6 1832  11.685   8.270   2.832  0.4324  0.1370 -0.0641
   73bbb    H11 1833  11.744   8.225   2.752  1.2934  2.2833 -0.7272
   73bbb    H12 1834  11.710   8.377   2.831  2.2651 -0.2485 -2.1840
   73bbb     C7 1835  11.126   8.392   2.877 -1.0830  0.7183  0.3119
   73bbb     C8 1836  11.747   8.210   2.955 -0.1549 -0.5946  0.3843
   73bbb     O1 1837  11.040   8.458   2.819 -0.1570 -0.1763  0.2108
   73bbb     O2 1838  11.798   8.100   2.946 -0.2953  0.1056 -0.8489
   73bbb     N4 1839  11.549   8.118   2.431  0.8086 -0.4326  0.4121
   73bbb    H21 1840  11.648   8.136   2.432  0.7986 -0.3787  0.4510
   74bbb     C1 1841  12.264  10.336  -0.021 -0.4867  0.6188 -0.4479
   74bbb     H1 1842  12.339  10.336  -0.101 -0.3526  2.8048 -0.3965
   74bbb     H2 1843  12.300  10.416   0.045 -0.6559 -0.0919  0.5306
   74bbb     C2 1844  12.271  10.200   0.061  0.3217  0.0234  0.3985
   74bbb     H3 1845  12.260  10.124  -0.018  0.9238  1.1610 -0.8157
   74bbb     H4 1846  12.375  10.195   0.098  0.2699  1.9436  0.9129
   74bbb     N1 1847  12.127  10.365  -0.073 -0.7982  0.4904  0.0789
   74bbb     C3 1848  12.069  10.264  -0.159  0.8937  0.7151 -0.7948
   74bbb     H5 1849  11.974  10.302  -0.200  0.9397 -0.2618 -1.8582
   74bbb     H6 1850  12.049  10.164  -0.119  0.8662  1.1713  0.3585
   74bbb     C4 1851  12.119  10.495  -0.126  0.6006 -0.3503  0.0098
   74bbb     H7 1852  12.207  10.519  -0.186 -0.5636  2.3985 -0.7829
   74bbb     H8 1853  12.031  10.515  -0.190  1.3003 -0.2093 -0.9275
   74bbb     C5 1854  12.102  10.595  -0.010  0.3273  0.4372 -0.4047
   74bbb     H9 1855  12.009  10.565   0.042  1.5893 -0.2206  1.5832
   74bbb    H10 1856  12.182  10.590   0.064 -1.1461 -0.0382  1.2477
   74bbb     C6 1857  12.163  10.232  -0.276 -0.2642  0.3114 -0.7628
   74bbb    H11 1858  12.182  10.319  -0.341  1.9408  0.3514 -0.1395
   74bbb    H12 1859  12.265  10.206  -0.247 -0.3099  2.0380  1.1364
   74bbb     C7 1860  12.096  10.736  -0.055 -0.2170 -0.3510 -0.2048
   74bbb     C8 1861  12.102  10.123  -0.354 -0.5603  0.3946  0.7263
   74bbb     O1 1862  12.080  10.776  -0.172 -0.1019  0.5050 -0.3863
   74bbb     O2 1863  12.010  10.160  -0.431  0.3941  0.1183 -0.8413
   74bbb     N4 1864  12.176  10.190   0.176 -0.2539  0.0340 -0.2157
   74bbb    H21 1865  12.093  10.248   0.180 -0.2203  0.0330  0.9432
   75bbb     C1 1866  12.056  10.189   1.019  0.0017 -0.0919 -0.1172
   75bbb     H1 1867  11.967  10.229   0.969 -0.5922 -1.1864  0.0277
   75bbb     H2 1868  12.150  10.203   0.965  1.1546 -0.5525  1.6999
   75bbb     C2 1869  12.032  10.035   1.026 -0.1430  0.5486 -0.5244
   75bbb     H3 1870  12.126   9.986   1.055  1.5107  3.5893 -0.2750
   75bbb     H4 1871  11.960  10.016   1.106  1.4939 -1.5779  0.5651
   75bbb     N1 1872  12.080  10.238   1.155  0.1669  0.1781 -0.3403
   75bbb     C3 1873  11.971  10.340   1.197  0.3112  0.0698 -0.6086
   75bbb     H5 1874  11.973  10.429   1.133 -0.3017  1.0274  0.6723
   75bbb     H6 1875  11.993  10.372   1.299 -0.3009 -0.9690 -0.1274
   75bbb     C4 1876  12.211  10.306   1.174 -0.2043  0.1262  0.0067
   75bbb     H7 1877  12.227  10.388   1.103 -1.7782  0.3092 -0.1718
   75bbb     H8 1878  12.212  10.349   1.274  1.6126  0.8530 -0.2791
   75bbb     C5 1879  12.325  10.205   1.165  0.3910 -0.8629 -0.5521
   75bbb     H9 1880  12.280  10.107   1.186 -0.4414 -0.6694 -1.3540
   75bbb    H10 1881  12.345  10.198   1.057 -1.7356  1.7318 -1.2445
   75bbb     C6 1882  11.828  10.287   1.197 -0.2787  0.1309 -0.0239
   75bbb    H11 1883  11.794  10.245   1.101  0.3616  0.6121 -0.4780
   75bbb    H12 1884  11.816  10.215   1.278  0.2559 -0.2365 -0.2660
   75bbb     C7 1885  12.443  10.224   1.257 -0.4370  0.1883 -0.3377
   75bbb     C8 1886  11.731  10.398   1.219 -0.1788 -0.2678  0.4785
   75bbb     O1 1887  12.473  10.327   1.313  0.2227  0.0775 -0.1476
   75bbb     O2 1888  11.656  10.423   1.128 -0.0257 -0.0513 -0.0592
   75bbb     N4 1889  11.975   9.980   0.907  0.6612 -0.3666 -0.4804
   75bbb    H21 1890  11.875   9.965   0.905  0.6393 -0.2118 -0.5021
   76bbb     C1 1891  10.642   8.767  -0.372 -0.0313  0.5643  0.0069
   76bbb     H1 1892  10.731   8.717  -0.333  0.2624  1.0077 -0.0977
   76bbb     H2 1893  10.580   8.692  -0.423  0.3886 -0.3140  0.7636
   76bbb     C2 1894  10.685   8.876  -0.470 -0.1928 -0.0726  0.0936
   76bbb     H3 1895  10.701   8.843  -0.574  1.2496  1.8643 -0.3788
   76bbb     H4 1896  10.603   8.949  -0.482  0.7528  0.9463 -0.3214
   76bbb     N1 1897  10.585   8.814  -0.240 -0.6365 -0.0768 -0.4973
   76bbb     C3 1898  10.491   8.925  -0.240 -0.9919  0.2366  0.1628
   76bbb     H5 1899  10.536   9.011  -0.290 -0.9988 -0.3922 -0.9563
   76bbb     H6 1900  10.476   8.963  -0.138  0.9583  0.8676  0.2466
   76bbb     C4 1901  10.563   8.714  -0.133 -0.1848  0.0384  0.0776
   76bbb     H7 1902  10.662   8.671  -0.120 -0.5081 -0.1568  2.1763
   76bbb     H8 1903  10.515   8.754  -0.042 -1.1222  1.4959 -0.9959
   76bbb     C5 1904  10.479   8.597  -0.177 -0.1152  0.1685  0.3585
   76bbb     H9 1905  10.377   8.629  -0.202  0.8459  2.7957 -0.5232
   76bbb    H10 1906  10.517   8.533  -0.258 -1.2193 -0.6208  0.4343
   76bbb     C6 1907  10.363   8.885  -0.308  0.1322 -0.0654 -0.2548
   76bbb    H11 1908  10.375   8.872  -0.416 -1.1149  3.4835 -0.9458
   76bbb    H12 1909  10.327   8.795  -0.257  1.1982  0.0506  0.7361
   76bbb     C7 1910  10.465   8.499  -0.064 -0.0631  0.3142  0.1915
   76bbb     C8 1911  10.256   8.994  -0.293  1.0742  0.2558 -1.4347
   76bbb     O1 1912  10.516   8.389  -0.075 -0.2300 -0.8472  0.5629
   76bbb     O2 1913  10.277   9.111  -0.258  0.3510  0.3376  0.3338
   76bbb     N4 1914  10.798   8.961  -0.419  0.0725 -0.0199  0.5450
   76bbb    H21 1915  10.822   8.962  -0.320  1.0711 -0.6923  0.3276
   77bbb     C1 1916  11.801   8.836  -0.658  0.4411 -0.1134 -0.4230
   77bbb     H1 1917  11.777   8.796  -0.558  1.3971  0.0716 -0.1028
   77bbb     H2 1918  11.818   8.941  -0.632 -1.6986  0.6167 -1.7299
   77bbb     C2 1919  11.674   8.830  -0.746  0.5374  0.3327  0.1728
   77bbb     H3 1920  11.706   8.881  -0.838  1.2792 -0.4266 -0.0040
   77bbb     H4 1921  11.643   8.728  -0.774  0.7928 -0.0882  1.3806
   77bbb     N1 1922  11.916   8.773  -0.715 -0.0271  0.3301 -0.3636
   77bbb     C3 1923  11.900   8.629  -0.712  0.3743 -0.1914 -0.9494
   77bbb     H5 1924  11.801   8.593  -0.745  0.1084 -1.1343  0.7421
   77bbb     H6 1925  11.925   8.589  -0.613 -2.3193  1.6000  0.5821
   77bbb     C4 1926  12.042   8.816  -0.647 -0.5188  0.3876 -0.5407
   77bbb     H7 1927  12.018   8.857  -0.549 -0.1366 -3.2685  1.2493
   77bbb     H8 1928  12.116   8.735  -0.644 -1.1007 -0.1530  2.6504
   77bbb     C5 1929  12.109   8.924  -0.737  0.5570  0.0894  0.1922
   77bbb     H9 1930  12.113   8.876  -0.836 -1.2803  1.0075 -0.3672
   77bbb    H10 1931  12.047   9.014  -0.746 -1.3782 -1.0708  1.2146
   77bbb     C6 1932  11.992   8.569  -0.819  0.2115 -1.0608  0.0107
   77bbb    H11 1933  12.086   8.625  -0.814  0.3471 -1.3691  1.1216
   77bbb    H12 1934  12.013   8.464  -0.795  1.1716 -0.8063  0.3329
   77bbb     C7 1935  12.246   8.966  -0.688  0.7164  0.6430  0.1022
   77bbb     C8 1936  11.938   8.591  -0.952  0.2088 -0.5030 -0.1403
   77bbb     O1 1937  12.346   8.932  -0.743 -0.1552  0.4110 -0.0885
   77bbb     O2 1938  11.877   8.497  -1.005 -0.1131  0.2836  0.7867
   77bbb     N4 1939  11.562   8.907  -0.683 -0.7322  0.4078 -0.5244
   77bbb    H21 1940  11.559   9.008  -0.694 -0.8751  0.5720  0.7920
   78bbb     C1 1941   8.382   9.572   3.365 -0.1330 -0.1998  0.0211
   78bbb     H1 1942   8.357   9.466   3.372 -1.0321 -0.0360 -0.6054
   78bbb     H2 1943   8.293   9.636   3.367 -0.0020  0.0084 -0.5307
   78bbb     C2 1944   8.440   9.600   3.226  0.1289 -0.2490  0.4810
   78bbb     H3 1945   8.358   9.563   3.164 -0.1860  1.2665 -0.0588
   78bbb     H4 1946   8.450   9.709   3.216  2.0206 -0.4732 -0.7287
   78bbb     N1 1947   8.479   9.608   3.464 -0.5548  0.0904 -0.1295
   78bbb     C3 1948   8.452   9.546   3.591 -0.7571  0.2609  0.2113
   78bbb     H5 1949   8.344   9.544   3.605 -0.8822  1.5862 -0.4078
   78bbb     H6 1950   8.499   9.596   3.676  0.1790 -0.8740  0.3950
   78bbb     C4 1951   8.483   9.750   3.489  0.0411 -0.7694  0.0175
   78bbb     H7 1952   8.466   9.813   3.401 -0.8705 -0.1514  0.6204
   78bbb     H8 1953   8.407   9.773   3.565 -0.9504 -0.7938 -0.9475
   78bbb     C5 1954   8.624   9.784   3.542 -0.0968  0.0781 -0.1061
   78bbb     H9 1955   8.655   9.708   3.614  0.4220 -0.1488 -0.5587
   78bbb    H10 1956   8.694   9.765   3.460 -0.8989  1.6694 -1.2178
   78bbb     C6 1957   8.509   9.407   3.587  0.1409 -0.2454 -0.1720
   78bbb    H11 1958   8.448   9.345   3.520 -0.6085  0.0814  0.1989
   78bbb    H12 1959   8.610   9.411   3.543 -0.1977  0.5088 -0.9339
   78bbb     C7 1960   8.627   9.918   3.599 -0.4511 -0.9042 -0.7422
   78bbb     C8 1961   8.519   9.336   3.719  0.8332  0.7857 -0.6187
   78bbb     O1 1962   8.553  10.010   3.564  0.0050  0.0775  0.4238
   78bbb     O2 1963   8.421   9.275   3.765 -0.2253 -0.2371 -0.0622
   78bbb     N4 1964   8.568   9.534   3.183  0.5171 -0.9254 -0.2174
   78bbb    H21 1965   8.593   9.447   3.227  0.2608 -0.4262  0.9453
   79bbb     C1 1966   9.188   9.895   2.775  0.9979 -0.0262 -0.1288
   79bbb     H1 1967   9.163   9.926   2.878  2.4201  0.3330  0.1283
   79bbb     H2 1968   9.093   9.855   2.739  0.3259  1.2816  0.1263
   79bbb     C2 1969   9.287   9.781   2.788 -0.1401  0.7641 -0.5285
   79bbb     H3 1970   9.309   9.740   2.689 -1.1644 -1.1356 -0.0237
   79bbb     H4 1971   9.383   9.824   2.819  0.6172 -1.1665 -0.0495
   79bbb     N1 1972   9.244  10.007   2.693  0.4772  0.1933  0.1460
   79bbb     C3 1973   9.257  10.133   2.768 -0.1359  0.6421  0.0426
   79bbb     H5 1974   9.161  10.175   2.802 -0.0683  0.2337  0.7654
   79bbb     H6 1975   9.281  10.225   2.713  0.6025  0.8529  0.6971
   79bbb     C4 1976   9.191  10.022   2.553 -0.3872 -0.2186 -0.2857
   79bbb     H7 1977   9.088  10.055   2.567 -0.4537 -0.4623 -0.2034
   79bbb     H8 1978   9.245  10.098   2.495  1.7696 -0.0766  1.7696
   79bbb     C5 1979   9.198   9.883   2.484 -0.0202  0.0501 -0.1112
   79bbb     H9 1980   9.300   9.859   2.450  0.2081 -0.9269  1.1758
   79bbb    H10 1981   9.175   9.801   2.553 -0.3455  0.6731  0.5312
   79bbb     C6 1982   9.365  10.112   2.882 -0.5215 -0.1793  0.1732
   79bbb    H11 1983   9.388  10.010   2.915  0.4257  0.7108  2.4744
   79bbb    H12 1984   9.461  10.159   2.858  0.3603 -2.3981 -1.0064
   79bbb     C7 1985   9.102   9.890   2.372 -0.5187  0.1740 -0.0998
   79bbb     C8 1986   9.302  10.164   3.008 -0.2453 -0.6105 -0.4681
   79bbb     O1 1987   9.022   9.980   2.354  0.1673 -0.3008 -0.4371
   79bbb     O2 1988   9.297  10.285   3.031 -0.0379  0.5266  0.0446
   79bbb     N4 1989   9.239   9.676   2.881 -0.1586 -0.5909 -0.0737
   79bbb    H21 1990   9.187   9.596   2.847  0.0390 -0.7582  0.0123
   80bbb     C1 1991   9.234   8.260   2.718  0.7475 -0.1694  0.6362
   80bbb     H1 1992   9.186   8.359   2.717 -0.3997 -0.7091 -0.3808
   80bbb     H2 1993   9.203   8.213   2.624 -1.5365  0.6738  0.8993
   80bbb     C2 1994   9.172   8.183   2.830  0.2362  0.3777 -0.2569
   80bbb     H3 1995   9.066   8.182   2.805 -0.4638  1.2262  2.3991
   80bbb     H4 1996   9.209   8.080   2.831 -0.0419  0.2693  1.7833
   80bbb     N1 1997   9.380   8.253   2.725  0.6482 -0.1344 -0.1595
   80bbb     C3 1998   9.424   8.376   2.794 -0.3589 -0.3734 -0.1221
   80bbb     H5 1999   9.363   8.393   2.885  0.0893  0.3951  0.0463
   80bbb     H6 2000   9.409   8.471   2.742 -2.3954 -0.1634  0.7479
   80bbb     C4 2001   9.436   8.239   2.595  0.3091  0.3165 -0.1300
   80bbb     H7 2002   9.392   8.296   2.512  0.1038 -0.0909 -0.3091
   80bbb     H8 2003   9.541   8.269   2.592  0.4713 -0.3310 -1.8927
   80bbb     C5 2004   9.444   8.090   2.554 -0.9499  0.7348 -0.6367
   80bbb     H9 2005   9.341   8.052   2.558 -0.4827 -0.8433 -2.3054
   80bbb    H10 2006   9.483   8.075   2.453  1.2095  0.5509  0.1829
   80bbb     C6 2007   9.570   8.361   2.843 -0.4137 -0.5725  0.1355
   80bbb    H11 2008   9.580   8.267   2.898  0.2150  0.7975  2.4919
   80bbb    H12 2009   9.639   8.372   2.759 -1.4413 -0.3207 -0.6989
   80bbb     C7 2010   9.538   8.013   2.640 -0.1036  0.2671 -0.0055
   80bbb     C8 2011   9.623   8.467   2.937  0.4909 -0.1487 -0.5402
   80bbb     O1 2012   9.658   8.034   2.637 -0.1842  0.3107  0.4796
   80bbb     O2 2013   9.674   8.571   2.902  0.2983 -0.2707  0.1060
   80bbb     N4 2014   9.196   8.240   2.966 -0.1363  0.0108  0.1818
   80bbb    H21 2015   9.285   8.222   3.012 -1.3211  1.2383  3.1928
   81bbb     C1 2016   9.011   8.524   3.898 -0.4817  0.3841  0.1534
   81bbb     H1 2017   9.020   8.422   3.938 -1.8032 -0.5057 -1.6334
   81bbb     H2 2018   8.928   8.516   3.826  1.5396 -0.2604 -2.2469
   81bbb     C2 2019   9.143   8.582   3.837 -0.2322  0.3938 -0.3011
   81bbb     H3 2020   9.153   8.691   3.842  2.3156  0.2817 -1.4285
   81bbb     H4 2021   9.228   8.550   3.899 -1.2684 -0.5590  0.6795
   81bbb     N1 2022   8.961   8.611   4.010 -0.7218  1.3323 -0.2441
   81bbb     C3 2023   9.058   8.600   4.128  0.8129 -0.0892 -0.2674
   81bbb     H5 2024   9.161   8.596   4.089  0.5327 -1.0997 -0.9606
   81bbb     H6 2025   9.033   8.510   4.185  1.0098  0.5565  0.8649
   81bbb     C4 2026   8.827   8.570   4.051  0.3551  0.5622 -0.6141
   81bbb     H7 2027   8.825   8.462   4.068 -1.1115  0.3833 -1.6805
   81bbb     H8 2028   8.799   8.610   4.150  0.2812  0.2987 -0.5287
   81bbb     C5 2029   8.715   8.611   3.956 -0.1148  0.1709 -0.5746
   81bbb     H9 2030   8.716   8.717   3.930 -0.5408  0.5947  0.9907
   81bbb    H10 2031   8.734   8.563   3.859 -0.2676 -0.7465 -0.1697
   81bbb     C6 2032   9.025   8.723   4.218 -0.4485 -0.0697 -0.2054
   81bbb    H11 2033   9.033   8.823   4.174  1.0803 -0.3668 -0.6434
   81bbb    H12 2034   8.926   8.724   4.266  0.7496  2.3560  2.5469
   81bbb     C7 2035   8.596   8.549   4.014 -0.0290 -0.2658  0.0204
   81bbb     C8 2036   9.115   8.717   4.337  0.8636  0.6543 -0.3184
   81bbb     O1 2037   8.563   8.441   3.975  0.2936  0.5220 -0.1891
   81bbb     O2 2038   9.064   8.679   4.442  0.3456 -0.9543 -0.3140
   81bbb     N4 2039   9.157   8.542   3.694 -0.1611  0.2715  0.1525
   81bbb    H21 2040   9.083   8.479   3.665 -0.3791  0.7450 -0.3463
   82bbb     C1 2041  10.817  10.544   1.988  0.1108 -0.2277 -0.2276
   82bbb     H1 2042  10.827  10.612   2.074  0.9864  2.7886 -2.5536
   82bbb     H2 2043  10.723  10.565   1.936 -0.4616 -0.9695  0.4726
   82bbb     C2 2044  10.804  10.401   2.034 -0.0464 -0.6174  0.3107
   82bbb     H3 2045  10.818  10.342   1.943 -0.2774  0.0780 -0.1794
   82bbb     H4 2046  10.884  10.374   2.104 -0.0425  1.1080  1.0223
   82bbb     N1 2047  10.930  10.559   1.898  1.0431  0.2829  0.3625
   82bbb     C3 2048  11.054  10.589   1.969 -0.4774  0.0623  0.1777
   82bbb     H5 2049  11.050  10.527   2.059  0.1223 -0.6409 -0.2658
   82bbb     H6 2050  11.073  10.696   1.984 -0.3403  0.0616  0.0205
   82bbb     C4 2051  10.899  10.652   1.794 -0.4070 -0.4679  0.0672
   82bbb     H7 2052  10.867  10.751   1.831 -1.8074 -1.5618  1.9487
   82bbb     H8 2053  10.987  10.672   1.731  0.5840 -1.3744  1.1179
   82bbb     C5 2054  10.810  10.584   1.688  0.2256 -0.7279 -0.6898
   82bbb     H9 2055  10.834  10.477   1.685  1.2618 -0.7653  3.3273
   82bbb    H10 2056  10.705  10.579   1.720  0.6390 -2.7786  0.5506
   82bbb     C6 2057  11.166  10.527   1.893 -0.7801 -0.7273 -1.1231
   82bbb    H11 2058  11.161  10.420   1.872  0.0043 -1.2165  0.9153
   82bbb    H12 2059  11.177  10.586   1.801 -0.7704 -0.7455 -1.1337
   82bbb     C7 2060  10.829  10.649   1.558 -0.3016  0.5713  0.1420
   82bbb     C8 2061  11.293  10.547   1.960 -1.0953  0.0354 -0.8750
   82bbb     O1 2062  10.787  10.759   1.529  0.1526 -0.1087  0.2337
   82bbb     O2 2063  11.306  10.604   2.071  0.3696 -0.1410 -0.1381
   82bbb     N4 2064  10.670  10.376   2.091  0.4588  0.2510 -0.5698
   82bbb    H21 2065  10.582  10.365   2.041 -0.1015 -3.8101  0.8965
   83bbb     C1 2066  10.082  10.816   1.732 -0.0910 -0.4209  0.1316
   83bbb     H1 2067  10.164  10.872   1.778  0.6964  0.5369 -2.2499
   83bbb     H2 2068   9.992  10.838   1.791 -1.5311 -0.3626 -1.9540
   83bbb     C2 2069  10.119  10.678   1.750  0.4789  0.4201  0.1586
   83bbb     H3 2070  10.032  10.612   1.738  0.7838 -0.2571  1.4338
   83bbb     H4 2071  10.187  10.650   1.669  1.4683 -1.1983  1.4982
   83bbb     N1 2072  10.069  10.843   1.587 -0.0660 -0.6155  0.7392
   83bbb     C3 2073  10.093  10.982   1.541  0.3179  0.1829  0.3877
   83bbb     H5 2074  10.002  11.034   1.572 -1.1612 -1.4500 -1.0274
   83bbb     H6 2075  10.111  10.970   1.434  0.6722  1.2888  0.3109
   83bbb     C4 2076   9.966  10.773   1.515  0.3435  0.2097 -0.2951
   83bbb     H7 2077   9.973  10.802   1.409  0.0287  1.5128  0.0157
   83bbb     H8 2078   9.984  10.666   1.524 -0.8415 -0.0954 -1.2453
   83bbb     C5 2079   9.827  10.815   1.568  0.0500  0.5980  0.0985
   83bbb     H9 2080   9.825  10.781   1.672  0.4904 -0.6743 -0.2893
   83bbb    H10 2081   9.796  10.920   1.565 -2.3099 -0.0152  0.7173
   83bbb     C6 2082  10.219  11.040   1.596  0.2706 -0.4368  0.1970
   83bbb    H11 2083  10.236  11.126   1.530 -0.6415 -0.6296 -0.3214
   83bbb    H12 2084  10.198  11.082   1.695  0.5441  1.4702 -0.5015
   83bbb     C7 2085   9.718  10.752   1.483 -0.0088  0.2903 -0.1663
   83bbb     C8 2086  10.340  10.957   1.593 -0.0344 -0.0598 -0.4176
   83bbb     O1 2087   9.725  10.742   1.364  0.4301  0.3764  0.3766
   83bbb     O2 2088  10.414  10.955   1.690 -0.6485  0.0219 -0.1104
   83bbb     N4 2089  10.193  10.651   1.877 -0.4023 -0.5604  0.5024
   83bbb    H21 2090  10.285  10.692   1.884 -0.4194 -0.2360 -0.8960
   84bbb     C1 2091   9.642   9.954   3.392 -0.1932  0.3624  1.3331
   84bbb     H1 2092   9.726   9.978   3.326 -1.5508  0.2213 -0.5196
   84bbb     H2 2093   9.559   9.965   3.322  0.0715 -2.1209  0.5101
   84bbb     C2 2094   9.609  10.051   3.507 -0.5564 -0.3042  0.0205
   84bbb     H3 2095   9.554   9.995   3.583  0.6556 -2.3329 -0.5113
   84bbb     H4 2096   9.700  10.079   3.560 -2.2287  1.6217  2.0823
   84bbb     N1 2097   9.644   9.814   3.437  0.4392  0.4693  0.0804
   84bbb     C3 2098   9.771   9.796   3.511 -0.0080  0.4278  0.0559
   84bbb     H5 2099   9.801   9.891   3.557 -1.3305  1.0614 -0.3312
   84bbb     H6 2100   9.847   9.774   3.435  0.7051  1.1633  0.5463
   84bbb     C4 2101   9.627   9.709   3.329  0.3474 -0.2086 -0.0942
   84bbb     H7 2102   9.666   9.753   3.236 -0.5708 -0.5816 -0.6792
   84bbb     H8 2103   9.691   9.623   3.349 -0.0586 -1.1138 -2.3661
   84bbb     C5 2104   9.485   9.673   3.318 -0.0150  0.6201  0.4410
   84bbb     H9 2105   9.424   9.764   3.308 -1.5928 -0.5836 -1.9799
   84bbb    H10 2106   9.472   9.624   3.220  1.5781  0.7088  0.1573
   84bbb     C6 2107   9.744   9.679   3.605  0.1822 -0.1896  0.0843
   84bbb    H11 2108   9.649   9.691   3.658  1.2966  1.4549  1.8433
   84bbb    H12 2109   9.739   9.586   3.546 -0.9588 -0.6791  0.9251
   84bbb     C7 2110   9.437   9.587   3.428  0.6835 -0.0176 -0.4215
   84bbb     C8 2111   9.843   9.672   3.714  0.2887  0.0943 -0.3303
   84bbb     O1 2112   9.419   9.473   3.413 -0.0390 -0.3994 -0.2639
   84bbb     O2 2113   9.837   9.758   3.797 -0.4517  0.0759  0.2877
   84bbb     N4 2114   9.531  10.166   3.454 -0.2388 -0.2254 -0.5419
   84bbb    H21 2115   9.539  10.199   3.358 -2.0625 -2.5669 -1.6009
   85bbb     C1 2116   9.113  11.193   3.446 -0.8316  0.1228 -0.1810
   85bbb     H1 2117   9.112  11.302   3.446 -0.5757  0.1357 -1.3423
   85bbb     H2 2118   9.061  11.155   3.535  0.5196 -0.6461  0.3022
   85bbb     C2 2119   9.263  11.156   3.447 -0.4681 -0.3737  0.5799
   85bbb     H3 2120   9.307  11.236   3.387 -2.6355  1.2262  0.9824
   85bbb     H4 2121   9.309  11.151   3.547  1.1828 -0.9768 -0.1799
   85bbb     N1 2122   9.047  11.140   3.319  0.4609 -0.9198  0.3017
   85bbb     C3 2123   8.901  11.131   3.331  0.8825 -1.0667  0.4773
   85bbb     H5 2124   8.851  11.229   3.328  1.2398 -0.8945 -0.1578
   85bbb     H6 2125   8.873  11.076   3.421 -0.4887  0.1161  0.8172
   85bbb     C4 2126   9.095  11.201   3.194 -0.5290 -0.4103  0.0924
   85bbb     H7 2127   9.010  11.257   3.153 -1.7769 -2.4372 -0.2053
   85bbb     H8 2128   9.176  11.269   3.225 -1.7451  0.0078  2.6476
   85bbb     C5 2129   9.141  11.087   3.102  0.2195 -0.1103  1.3013
   85bbb     H9 2130   9.240  11.046   3.126  0.9189  0.8690  0.1874
   85bbb    H10 2131   9.065  11.008   3.093  0.5357 -0.3021  0.1734
   85bbb     C6 2132   8.841  11.063   3.205 -1.2535  0.1554  0.3884
   85bbb    H11 2133   8.859  11.116   3.111 -2.5203 -4.3640 -2.7506
   85bbb    H12 2134   8.869  10.957   3.203  0.9398  0.5571  3.1409
   85bbb     C7 2135   9.156  11.158   2.966  0.0857 -0.4199  0.3831
   85bbb     C8 2136   8.696  11.056   3.222  0.3924 -0.1886 -0.0036
   85bbb     O1 2137   9.063  11.171   2.886  0.0783  0.2544 -0.1605
   85bbb     O2 2138   8.643  11.013   3.323  0.3101  0.5234  0.3469
   85bbb     N4 2139   9.290  11.018   3.389 -0.4819  0.0185  0.7062
   85bbb    H21 2140   9.209  10.966   3.358  0.3006 -1.6978  1.4293
   86bbb     C1 2141  11.346   8.662   1.261  0.1235 -0.6837 -0.0381
   86bbb     H1 2142  11.366   8.763   1.297  0.5762 -1.5512  2.3078
   86bbb     H2 2143  11.237   8.655   1.250  0.0142 -2.3580  1.6588
   86bbb     C2 2144  11.405   8.573   1.370  0.3013  0.0150  0.2625
   86bbb     H3 2145  11.390   8.468   1.342  1.1746  0.6968 -3.3027
   86bbb     H4 2146  11.514   8.585   1.379  0.6799 -1.6723 -1.3531
   86bbb     N1 2147  11.414   8.654   1.127 -0.1617 -0.3089 -0.4851
   86bbb     C3 2148  11.361   8.755   1.025 -0.8712 -0.1461 -0.0523
   86bbb     H5 2149  11.253   8.772   1.029 -1.0493 -1.3104  0.5713
   86bbb     H6 2150  11.375   8.709   0.926  0.5344 -2.2507  1.0623
   86bbb     C4 2151  11.402   8.523   1.063 -0.2579 -0.8257 -0.0929
   86bbb     H7 2152  11.377   8.452   1.143  1.1393  0.7186  1.7917
   86bbb     H8 2153  11.310   8.511   1.004  0.4038 -2.4507 -0.8363
   86bbb     C5 2154  11.532   8.473   1.003  0.1249 -0.3640 -0.0790
   86bbb     H9 2155  11.580   8.554   0.948 -0.6089  0.7855  0.9272
   86bbb    H10 2156  11.597   8.450   1.089 -2.0809 -1.5488  1.3622
   86bbb     C6 2157  11.445   8.886   1.041 -0.0333  0.0003  0.2017
   86bbb    H11 2158  11.426   8.939   1.136 -1.2294  1.3303 -0.7416
   86bbb    H12 2159  11.551   8.857   1.031 -0.0216 -1.2758  2.8796
   86bbb     C7 2160  11.499   8.344   0.933 -0.0540  0.3826 -0.6676
   86bbb     C8 2161  11.395   8.993   0.939 -0.2399  0.1008  0.3713
   86bbb     O1 2162  11.409   8.274   0.978 -0.0492  0.1273  0.1686
   86bbb     O2 2163  11.443   8.992   0.825  0.6280  0.0848  0.2392
   86bbb     N4 2164  11.340   8.595   1.503  0.3443  0.2798  0.0826
   86bbb    H21 2165  11.247   8.634   1.500 -0.2339 -1.0741 -0.0579
   87bbb     C1 2166  11.469   8.619   2.344  0.0436 -0.2469  0.1549
   87bbb     H1 2167  11.546   8.547   2.317  1.2775  1.8700 -2.4303
   87bbb     H2 2168  11.373   8.574   2.371  0.8366 -1.0791  1.7338
   87bbb     C2 2169  11.456   8.709   2.220 -0.2780 -0.6316 -0.2454
   87bbb     H3 2170  11.480   8.813   2.246  1.2730 -0.4679 -2.0505
   87bbb     H4 2171  11.535   8.691   2.145 -0.0325 -0.8824  0.0691
   87bbb     N1 2172  11.531   8.698   2.452  0.4646 -0.8045 -0.3568
   87bbb     C3 2173  11.674   8.676   2.481 -0.0387  0.3979  0.2014
   87bbb     H5 2174  11.702   8.570   2.470 -1.7743 -0.0074 -0.6598
   87bbb     H6 2175  11.692   8.713   2.583 -0.0434 -3.1429  1.6561
   87bbb     C4 2176  11.448   8.684   2.577 -0.3218  0.1979 -0.2036
   87bbb     H7 2177  11.439   8.579   2.607 -0.1117  0.1110 -0.4417
   87bbb     H8 2178  11.494   8.737   2.661  0.1119  2.7429 -1.9304
   87bbb     C5 2179  11.309   8.755   2.550 -0.3784  0.2527 -0.1610
   87bbb     H9 2180  11.327   8.846   2.491 -0.9509  0.5683  0.1456
   87bbb    H10 2181  11.247   8.684   2.495 -0.2897 -1.5238  1.9027
   87bbb     C6 2182  11.742   8.765   2.381  0.2141 -0.1280  0.1853
   87bbb    H11 2183  11.763   8.743   2.275 -1.7849  2.2067 -0.7987
   87bbb    H12 2184  11.684   8.858   2.377  0.2297 -0.1313 -0.1494
   87bbb     C7 2185  11.249   8.781   2.686  0.3185 -0.0216  0.5219
   87bbb     C8 2186  11.865   8.821   2.440 -0.3163  0.7121  0.2211
   87bbb     O1 2187  11.322   8.796   2.781  0.3423  0.0047 -0.3811
   87bbb     O2 2188  11.876   8.912   2.519  0.5074 -0.1475 -0.1093
   87bbb     N4 2189  11.316   8.712   2.165  0.2734 -0.5707 -0.3245
   87bbb    H21 2190  11.253   8.636   2.186 -0.4232 -0.6536 -2.5019
   88bbb     C1 2191  10.491   7.898   3.438  0.9649 -0.9572  0.2423
   88bbb     H1 2192  10.557   7.882   3.351 -0.6211  2.4326 -1.7998
   88bbb     H2 2193  10.500   8.008   3.441 -0.8356 -0.8133  1.6498
   88bbb     C2 2194  10.563   7.849   3.562 -0.0841 -0.3118 -0.3637
   88bbb     H3 2195  10.513   7.887   3.652 -0.3548 -1.8051  0.1494
   88bbb     H4 2196  10.557   7.740   3.573 -2.0017 -0.1246  1.0200
   88bbb     N1 2197  10.359   7.842   3.427  0.5688  0.7412 -0.0724
   88bbb     C3 2198  10.330   7.696   3.391 -0.4221 -0.7723 -0.1462
   88bbb     H5 2199  10.223   7.681   3.373 -0.6509 -3.6137  2.7853
   88bbb     H6 2200  10.355   7.641   3.483  3.6179  1.7064  0.5060
   88bbb     C4 2201  10.267   7.901   3.526 -0.4172 -0.8081  0.1494
   88bbb     H7 2202  10.275   7.857   3.626 -0.3420  0.2571  0.6218
   88bbb     H8 2203  10.298   8.004   3.549 -1.1073 -0.3485 -0.9119
   88bbb     C5 2204  10.124   7.905   3.476 -0.4257  0.8733 -0.7500
   88bbb     H9 2205  10.103   7.960   3.383 -1.9320 -2.8079 -2.8197
   88bbb    H10 2206  10.089   7.806   3.446  0.4172  0.5125 -0.5812
   88bbb     C6 2207  10.413   7.652   3.275 -0.6994  0.3475  0.1781
   88bbb    H11 2208  10.433   7.745   3.220  1.3177 -0.3284 -0.3494
   88bbb    H12 2209  10.514   7.638   3.315 -0.0804  2.4765 -0.4957
   88bbb     C7 2210  10.037   7.968   3.588 -0.5555  0.5751  0.5370
   88bbb     C8 2211  10.368   7.511   3.203  0.8141  0.1653  0.1713
   88bbb     O1 2212   9.970   8.070   3.571  0.2961 -0.1232  0.0653
   88bbb     O2 2213  10.377   7.456   3.314  0.0210 -0.4198 -0.3886
   88bbb     N4 2214  10.709   7.886   3.561 -0.4330  0.3672 -0.4267
   88bbb    H21 2215  10.732   7.984   3.570 -0.3950  0.2264  1.4204
   89bbb     C1 2216  11.454   7.574   3.538 -0.0121 -0.1583 -0.3136
   89bbb     H1 2217  11.377   7.535   3.469  1.4244 -0.6425 -1.6922
   89bbb     H2 2218  11.407   7.628   3.621  2.6263  3.1209 -0.7882
   89bbb     C2 2219  11.550   7.675   3.468 -0.1635  0.2676  0.6943
   89bbb     H3 2220  11.597   7.742   3.542  2.6994  0.6274 -1.3212
   89bbb     H4 2221  11.630   7.612   3.429 -0.3063 -0.6607  1.8677
   89bbb     N1 2222  11.528   7.459   3.592  0.1154  1.0281 -0.7467
   89bbb     C3 2223  11.582   7.357   3.492  0.0746 -0.0494  0.0666
   89bbb     H5 2224  11.626   7.407   3.405 -0.3724  0.5279  0.1644
   89bbb     H6 2225  11.498   7.297   3.456 -1.0367  1.2220  0.4765
   89bbb     C4 2226  11.461   7.395   3.705  0.4332  0.1345  0.2405
   89bbb     H7 2227  11.363   7.358   3.671  1.4880 -0.2784 -2.6371
   89bbb     H8 2228  11.530   7.319   3.743  0.2026 -1.1793 -1.7709
   89bbb     C5 2229  11.425   7.491   3.812  0.3525 -0.6206  0.0741
   89bbb     H9 2230  11.507   7.564   3.816  0.4168 -0.4237 -2.6269
   89bbb    H10 2231  11.328   7.541   3.809  1.5214  1.8583  1.0900
   89bbb     C6 2232  11.692   7.266   3.553  0.0066 -0.5188  0.0221
   89bbb    H11 2233  11.759   7.331   3.610 -0.3035 -0.7032  0.6127
   89bbb    H12 2234  11.650   7.191   3.622 -3.6637  0.8501 -0.4814
   89bbb     C7 2235  11.430   7.414   3.939  0.2103  0.4055 -0.0630
   89bbb     C8 2236  11.779   7.203   3.446  0.8647  0.3025  0.3000
   89bbb     O1 2237  11.327   7.362   3.974 -0.4728 -0.1676 -0.6027
   89bbb     O2 2238  11.750   7.195   3.326  0.0639 -0.8080 -0.2473
   89bbb     N4 2239  11.485   7.747   3.353  0.7793  0.0414 -0.1700
   89bbb    H21 2240  11.461   7.704   3.265 -0.3424 -2.3641  1.2152
   90bbb     C1 2241   9.042   8.050   1.455  0.1885 -0.0871  0.1530
   90bbb     H1 2242   9.140   8.076   1.414  0.2857  1.0657  1.0684
   90bbb     H2 2243   8.988   7.987   1.383 -0.8443  2.4806 -1.4792
   90bbb     C2 2244   8.968   8.186   1.465  0.3760 -0.5532 -0.4898
   90bbb     H3 2245   8.913   8.196   1.370 -0.4532  0.5280  0.0763
   90bbb     H4 2246   8.890   8.193   1.542 -1.9406 -0.4329 -2.7015
   90bbb     N1 2247   9.059   7.982   1.579  0.1328  0.0052 -0.5549
   90bbb     C3 2248   9.157   8.049   1.670  0.1109 -0.6177 -0.2131
   90bbb     H5 2249   9.128   8.155   1.670  1.9204 -0.0980  0.3017
   90bbb     H6 2250   9.259   8.048   1.631 -0.9793 -1.7494 -3.3164
   90bbb     C4 2251   9.101   7.846   1.551 -0.2725 -0.1892 -0.1111
   90bbb     H7 2252   9.158   7.841   1.457  0.1248 -1.8682  0.1787
   90bbb     H8 2253   9.168   7.809   1.630 -1.7220 -1.6868  0.4616
   90bbb     C5 2254   8.984   7.755   1.542  0.1961  0.0612 -0.6738
   90bbb     H9 2255   8.938   7.740   1.640  0.1263  1.0450 -0.5414
   90bbb    H10 2256   8.911   7.794   1.469  1.4836  2.2468 -0.8906
   90bbb     C6 2257   9.141   8.006   1.819  1.1827  0.2675 -0.1322
   90bbb    H11 2258   9.052   8.048   1.866  2.4191  1.1867  1.5047
   90bbb    H12 2259   9.136   7.896   1.819 -3.3180  0.2566 -2.5203
   90bbb     C7 2260   9.025   7.619   1.490 -0.4352  0.9302  0.5099
   90bbb     C8 2261   9.261   8.067   1.888 -0.0522  0.5227  0.7146
   90bbb     O1 2262   9.078   7.530   1.555 -0.6931 -0.0758  0.1767
   90bbb     O2 2263   9.373   8.020   1.866 -0.2686 -0.4578 -0.2752
   90bbb     N4 2264   9.054   8.303   1.487 -0.5937 -0.1634  0.0295
   90bbb    H21 2265   9.077   8.324   1.583  0.4361  0.9980 -0.4458
   91bbb     C1 2266   9.093   8.772   2.007 -0.1138 -0.0174  0.1303
   91bbb     H1 2267   8.990   8.784   1.971 -1.2019 -0.7020  2.8154
   91bbb     H2 2268   9.150   8.806   1.919 -2.0743 -2.0537 -2.0932
   91bbb     C2 2269   9.117   8.622   2.039  0.7666  0.3615 -0.1247
   91bbb     H3 2270   9.187   8.602   2.121  0.8726  1.0802 -0.0348
   91bbb     H4 2271   9.028   8.561   2.060  2.7483 -2.5703  0.5039
   91bbb     N1 2272   9.092   8.868   2.115 -0.6057  0.3589  0.1927
   91bbb     C3 2273   9.039   8.998   2.085  0.5258 -0.3093  0.3473
   91bbb     H5 2274   9.089   9.038   1.996 -0.9902 -0.0259 -0.4200
   91bbb     H6 2275   9.059   9.063   2.171  0.1254  2.0480 -1.2503
   91bbb     C4 2276   9.225   8.879   2.176  0.6146 -0.3716 -0.0714
   91bbb     H7 2277   9.279   8.784   2.177  1.2464 -0.0314 -0.5738
   91bbb     H8 2278   9.286   8.952   2.121  1.3363  1.3412  2.7495
   91bbb     C5 2279   9.228   8.928   2.320 -0.8435 -0.1771 -0.2345
   91bbb     H9 2280   9.162   9.015   2.331  0.7197  0.8901  1.1024
   91bbb    H10 2281   9.188   8.852   2.390  0.1903  0.9249  1.6370
   91bbb     C6 2282   8.886   9.008   2.056  0.0120 -0.1693 -0.4284
   91bbb    H11 2283   8.857   8.945   1.971 -0.1362  1.0571 -1.3303
   91bbb    H12 2284   8.838   8.984   2.151 -0.3392 -0.3855 -0.6588
   91bbb     C7 2285   9.364   8.959   2.378 -0.3118  0.3275 -0.0229
   91bbb     C8 2286   8.846   9.145   2.014 -0.1694  0.7511 -0.5929
   91bbb     O1 2287   9.443   8.875   2.377 -0.0737  0.0580 -0.4965
   91bbb     O2 2288   8.816   9.172   1.903 -0.1906 -0.7976  0.2749
   91bbb     N4 2289   9.192   8.558   1.929  0.6666 -0.0614 -0.3289
   91bbb    H21 2290   9.146   8.499   1.861 -0.9760 -0.1126  0.7694
   92bbb     C1 2291  10.160   7.058   2.125  0.0543  0.3183 -0.4743
   92bbb     H1 2292  10.152   7.027   2.021 -0.1341 -0.2587 -0.2915
   92bbb     H2 2293  10.073   7.011   2.174  1.9044 -1.5099  1.2697
   92bbb     C2 2294  10.165   7.205   2.151  0.1712  0.1991 -0.2749
   92bbb     H3 2295  10.124   7.227   2.251  3.8135  1.3347  1.1698
   92bbb     H4 2296  10.272   7.232   2.148  0.1591  0.2548 -0.2008
   92bbb     N1 2297  10.270   6.996   2.186 -0.1579 -0.5338 -0.3051
   92bbb     C3 2298  10.277   7.022   2.330  0.2896  0.0551  0.5952
   92bbb     H5 2299  10.180   7.067   2.357  2.1011  3.8930  1.4794
   92bbb     H6 2300  10.344   7.107   2.349 -0.8656  0.9551  0.7731
   92bbb     C4 2301  10.397   7.011   2.119 -0.2192 -0.9795  0.0316
   92bbb     H7 2302  10.423   7.116   2.098  0.1916 -1.0262  0.3014
   92bbb     H8 2303  10.481   6.963   2.170  0.3773 -2.5049 -2.2055
   92bbb     C5 2304  10.399   6.946   1.990 -0.0812 -0.1937  0.2966
   92bbb     H9 2305  10.366   6.842   2.001 -1.6776  0.4115  1.6179
   92bbb    H10 2306  10.328   6.989   1.919  0.3549 -0.4683 -0.3111
   92bbb     C6 2307  10.308   6.900   2.404  0.5002  0.5421  0.4239
   92bbb    H11 2308  10.234   6.821   2.386  1.6455 -1.0303  2.2609
   92bbb    H12 2309  10.395   6.849   2.361 -0.9195 -2.5325  0.9116
   92bbb     C7 2310  10.534   6.961   1.937 -0.4782 -0.1686 -0.3409
   92bbb     C8 2311  10.323   6.925   2.549  1.2170  0.0584 -0.2894
   92bbb     O1 2312  10.563   7.053   1.865 -0.0156 -0.4962  0.0741
   92bbb     O2 2313  10.229   6.979   2.611  0.0450 -0.4717  0.7955
   92bbb     N4 2314  10.095   7.296   2.045 -0.2984 -0.4515  0.1629
   92bbb    H21 2315   9.997   7.318   2.056 -0.4104  0.4688 -2.0478
   93bbb     C1 2316   9.331   7.316   1.537  0.1546 -0.0630  0.7229
   93bbb     H1 2317   9.227   7.342   1.515  0.2631  0.2213  0.5356
   93bbb     H2 2318   9.336   7.245   1.621  0.5102  1.8089  2.3658
   93bbb     C2 2319   9.398   7.450   1.578 -0.2441  0.0155  0.5043
   93bbb     H3 2320   9.385   7.513   1.490  1.2917 -1.5278 -0.9271
   93bbb     H4 2321   9.356   7.502   1.664  1.0145  2.1785 -0.1086
   93bbb     N1 2322   9.410   7.257   1.424 -0.4377 -0.1807 -0.1677
   93bbb     C3 2323   9.393   7.111   1.422 -0.0700  0.8560  0.3869
   93bbb     H5 2324   9.426   7.059   1.331  0.0028 -1.4440  1.6497
   93bbb     H6 2325   9.287   7.088   1.440 -0.0114  1.1803  1.1681
   93bbb     C4 2326   9.384   7.310   1.294  0.3102  0.0827  0.5158
   93bbb     H7 2327   9.296   7.263   1.248  1.7449  0.0917 -2.5023
   93bbb     H8 2328   9.369   7.418   1.306 -0.1805 -0.0855  1.5088
   93bbb     C5 2329   9.504   7.309   1.202 -0.2886  0.0002 -0.1354
   93bbb     H9 2330   9.587   7.353   1.260  0.3084 -1.7826  0.4359
   93bbb    H10 2331   9.537   7.206   1.185 -1.5346 -0.3249 -0.6336
   93bbb     C6 2332   9.469   7.039   1.539  0.6970 -0.6255  0.2433
   93bbb    H11 2333   9.570   7.013   1.505  1.8843  0.0538  3.0055
   93bbb    H12 2334   9.483   7.111   1.620 -1.0312  1.9264 -1.5786
   93bbb     C7 2335   9.476   7.374   1.071 -0.4700 -0.6454 -0.0249
   93bbb     C8 2336   9.399   6.912   1.588  0.2741  0.4423 -0.3703
   93bbb     O1 2337   9.376   7.355   1.008  0.6858  1.0060  0.0593
   93bbb     O2 2338   9.321   6.846   1.522  0.4568  0.8169  0.0298
   93bbb     N4 2339   9.546   7.433   1.612 -1.0718 -0.1042 -0.1891
   93bbb    H21 2340   9.600   7.357   1.572  0.2566 -0.5464  2.2629
   94bbb     C1 2341  12.809   6.365   0.786  0.2093 -1.0713 -0.3005
   94bbb     H1 2342  12.818   6.440   0.707  1.7251 -2.4959 -1.5331
   94bbb     H2 2343  12.859   6.276   0.746 -0.0502 -1.5342  0.3829
   94bbb     C2 2344  12.666   6.326   0.817  0.1624 -0.1083 -0.8040
   94bbb     H3 2345  12.619   6.290   0.725  0.1857 -1.8011 -0.1713
   94bbb     H4 2346  12.677   6.253   0.897  0.4645  3.1179  2.3638
   94bbb     N1 2347  12.864   6.414   0.917  0.3181  0.4649  0.1823
   94bbb     C3 2348  12.962   6.519   0.895  0.2324  0.6290  0.3934
   94bbb     H5 2349  13.014   6.497   0.800  0.0547 -0.6215  0.5731
   94bbb     H6 2350  13.029   6.531   0.980  0.4230 -2.0987  0.6991
   94bbb     C4 2351  12.941   6.307   0.986  0.2574  0.3179 -0.5554
   94bbb     H7 2352  12.895   6.209   0.970  0.0971  0.2647  0.1872
   94bbb     H8 2353  13.045   6.308   0.951  1.5134  1.1484  2.8125
   94bbb     C5 2354  12.935   6.313   1.138 -0.5829 -0.2549  0.1266
   94bbb     H9 2355  12.957   6.418   1.157  1.5605 -0.4572 -0.9100
   94bbb    H10 2356  12.836   6.288   1.178 -0.0117 -0.6791  1.2963
   94bbb     C6 2357  12.888   6.649   0.873  0.1466 -0.1865 -0.7638
   94bbb    H11 2358  12.817   6.632   0.791 -2.7763  1.5364  1.1974
   94bbb    H12 2359  12.829   6.679   0.961 -0.7376 -2.8764 -0.3370
   94bbb     C7 2360  13.052   6.239   1.200 -0.6202 -0.0121 -0.2747
   94bbb     C8 2361  12.981   6.762   0.856  0.5259 -0.9329  0.0371
   94bbb     O1 2362  13.128   6.164   1.142 -0.0912 -0.2146  0.2111
   94bbb     O2 2363  13.049   6.801   0.952  0.2343  0.2442 -0.3621
   94bbb     N4 2364  12.585   6.426   0.885 -0.8203  0.3898 -0.1635
   94bbb    H21 2365  12.602   6.431   0.985  0.5702  3.3234 -0.4321
   95bbb     C1 2366  12.104   6.662   1.607  0.3206  0.0842  0.4282
   95bbb     H1 2367  12.172   6.589   1.562 -0.9683 -0.6841 -0.3265
   95bbb     H2 2368  12.000   6.630   1.591  1.3924 -2.2538 -2.6571
   95bbb     C2 2369  12.132   6.802   1.550 -0.1685  0.1351  0.9655
   95bbb     H3 2370  12.059   6.875   1.587 -0.1866 -0.2330  1.6771
   95bbb     H4 2371  12.226   6.834   1.597  0.8638 -2.8539  1.1209
   95bbb     N1 2372  12.121   6.656   1.756 -0.0401  1.1249 -0.2607
   95bbb     C3 2373  12.254   6.675   1.798 -0.2349  0.4412 -0.2886
   95bbb     H5 2374  12.313   6.698   1.708  1.1216 -0.5288  0.3018
   95bbb     H6 2375  12.313   6.588   1.829 -1.9526 -0.8508 -0.4971
   95bbb     C4 2376  12.062   6.539   1.818 -0.2779  0.1443  0.8696
   95bbb     H7 2377  11.953   6.546   1.811 -0.2080  3.7289  1.5108
   95bbb     H8 2378  12.096   6.444   1.774  0.2408  0.3689  0.7851
   95bbb     C5 2379  12.076   6.529   1.972 -0.0759 -0.6013 -0.1794
   95bbb     H9 2380  12.173   6.502   2.015 -1.2792 -1.2634  2.3199
   95bbb    H10 2381  12.052   6.620   2.029  0.5948 -0.3046 -0.3602
   95bbb     C6 2382  12.265   6.787   1.892  0.1533 -0.5885 -0.6254
   95bbb    H11 2383  12.194   6.865   1.863  1.9463  2.0900  1.7093
   95bbb    H12 2384  12.233   6.746   1.989  0.8827 -0.9448 -0.5255
   95bbb     C7 2385  11.990   6.419   2.017  0.4510 -0.5161 -0.3288
   95bbb     C8 2386  12.403   6.844   1.914  0.9436  0.5745  0.2495
   95bbb     O1 2387  12.037   6.313   2.058 -0.4677  0.8265  0.0774
   95bbb     O2 2388  12.431   6.937   1.839  0.0654 -0.2187 -0.4192
   95bbb     N4 2389  12.139   6.814   1.401 -0.1763 -0.6237 -0.1557
   95bbb    H21 2390  12.057   6.833   1.344 -1.2331  0.0505  1.4912
   96bbb     C1 2391  12.885   8.487   0.368 -0.1046  0.7774  0.4664
   96bbb     H1 2392  12.797   8.430   0.335 -0.8634  1.9669  0.3769
   96bbb     H2 2393  12.973   8.441   0.321  0.5425 -0.7794  3.0256
   96bbb     C2 2394  12.911   8.480   0.518  0.2074 -0.0844  0.4200
   96bbb     H3 2395  13.009   8.521   0.544  0.6531  0.5043 -1.9455
   96bbb     H4 2396  12.839   8.544   0.571  0.2473  0.3070  0.0044
   96bbb     N1 2397  12.869   8.631   0.326  0.1964 -0.8260 -0.3097
   96bbb     C3 2398  12.763   8.714   0.391 -0.4225 -0.1473  0.2145
   96bbb     H5 2399  12.811   8.794   0.449 -0.6245  2.4382 -2.9012
   96bbb     H6 2400  12.703   8.650   0.456 -0.4206 -0.8564 -0.4646
   96bbb     C4 2401  13.005   8.693   0.335 -0.0685 -0.1178  0.7391
   96bbb     H7 2402  13.026   8.716   0.440  2.5606 -1.1000  0.4959
   96bbb     H8 2403  13.077   8.630   0.283 -0.9233 -2.1522  1.8806
   96bbb     C5 2404  13.023   8.833   0.267  0.7006  0.0800 -0.4043
   96bbb     H9 2405  13.004   8.829   0.159 -1.7929 -0.7345  0.0017
   96bbb    H10 2406  12.951   8.906   0.305  0.9331 -0.7073  1.6998
   96bbb     C6 2407  12.681   8.786   0.282 -0.1380  1.0302 -0.1062
   96bbb    H11 2408  12.733   8.846   0.206  0.9940 -0.2946 -0.4172
   96bbb    H12 2409  12.629   8.707   0.226 -1.0708  0.9692  0.8279
   96bbb     C7 2410  13.170   8.874   0.290  0.3471 -0.3894  0.0391
   96bbb     C8 2411  12.569   8.865   0.340  0.7661 -0.1097  0.4526
   96bbb     O1 2412  13.265   8.818   0.242 -0.4788  0.8676  0.0259
   96bbb     O2 2413  12.458   8.815   0.343  0.7617  0.2463 -0.3378
   96bbb     N4 2414  12.909   8.341   0.570 -0.4022 -0.4915 -0.2118
   96bbb    H21 2415  12.892   8.269   0.501  1.8279  0.5407 -1.9435
   97bbb     C1 2416  13.081   7.724   0.384 -0.7062 -0.6486 -0.4948
   97bbb     H1 2417  13.168   7.788   0.402  0.2340 -2.2689  0.9677
   97bbb     H2 2418  12.988   7.771   0.420 -0.7712 -2.1175  1.4132
   97bbb     C2 2419  13.073   7.605   0.483 -0.4228 -0.2176 -0.4169
   97bbb     H3 2420  12.999   7.537   0.440  0.9142 -2.9022  1.2992
   97bbb     H4 2421  13.171   7.558   0.492  0.4934  1.9337  1.8541
   97bbb     N1 2422  13.071   7.679   0.246  0.3317  0.9178  0.2102
   97bbb     C3 2423  13.190   7.610   0.205 -0.0999 -0.5740 -0.1503
   97bbb     H5 2424  13.266   7.615   0.284  0.9247 -1.1347 -1.0692
   97bbb     H6 2425  13.236   7.654   0.116  2.5787 -2.1200  0.3682
   97bbb     C4 2426  13.027   7.780   0.156  0.1154 -0.7082  0.0387
   97bbb     H7 2427  12.948   7.838   0.205  1.2349  1.6555 -0.8067
   97bbb     H8 2428  13.104   7.858   0.150 -0.0574 -0.2605  2.7281
   97bbb     C5 2429  12.977   7.715   0.032 -0.0333  0.0251  0.0100
   97bbb     H9 2430  13.050   7.682  -0.042  1.7510 -0.4203  1.8916
   97bbb    H10 2431  12.919   7.631   0.071  0.2642  0.7790  2.2284
   97bbb     C6 2432  13.153   7.469   0.179 -0.1821  0.4011 -0.5133
   97bbb    H11 2433  13.090   7.423   0.256 -0.3660  0.1789 -0.7904
   97bbb    H12 2434  13.108   7.472   0.079  1.2688  1.6468 -1.1697
   97bbb     C7 2435  12.886   7.806  -0.041 -0.0303  0.1034  0.6376
   97bbb     C8 2436  13.277   7.382   0.174  0.3381 -0.5995 -0.0204
   97bbb     O1 2437  12.888   7.926  -0.030  0.7321  0.1253  0.2665
   97bbb     O2 2438  13.299   7.296   0.253 -0.0675 -0.3896  0.1982
   97bbb     N4 2439  13.045   7.650   0.620  0.0614  0.1267  0.0117
   97bbb    H21 2440  12.948   7.649   0.650 -0.1449  2.2605 -0.4986
   98bbb     C1 2441  11.101   7.491   3.397 -0.3219 -1.0652  0.8656
   98bbb     H1 2442  11.004   7.526   3.359  0.9967 -0.1169 -1.8809
   98bbb     H2 2443  11.160   7.583   3.410 -1.9508  0.2166 -0.2981
   98bbb     C2 2444  11.176   7.410   3.284 -0.0911  0.3608  0.1959
   98bbb     H3 2445  11.282   7.408   3.312 -0.4964  0.1551  1.8113
   98bbb     H4 2446  11.128   7.311   3.278 -0.3848  0.1212  4.0708
   98bbb     N1 2447  11.088   7.428   3.522 -0.4625  0.3955 -0.2991
   98bbb     C3 2448  10.979   7.327   3.516  0.2766 -0.4335  0.4646
   98bbb     H5 2449  10.925   7.344   3.422  1.6601 -1.0312 -0.4699
   98bbb     H6 2450  10.906   7.335   3.597  0.0998 -0.9230  0.3586
   98bbb     C4 2451  11.057   7.522   3.633 -0.0489  1.0134 -0.0556
   98bbb     H7 2452  11.116   7.613   3.624 -0.2842  1.0276 -1.6240
   98bbb     H8 2453  10.949   7.538   3.620 -0.8386 -3.0584 -0.0241
   98bbb     C5 2454  11.065   7.451   3.768 -0.6460 -0.8747 -0.2854
   98bbb     H9 2455  10.982   7.383   3.793 -1.1645  0.5982  2.3106
   98bbb    H10 2456  11.164   7.409   3.785  0.6787  1.8168 -0.8190
   98bbb     C6 2457  11.030   7.184   3.511  0.7567 -0.2381  0.0085
   98bbb    H11 2458  11.118   7.168   3.447  0.3822 -1.9907 -0.1194
   98bbb    H12 2459  11.061   7.155   3.612 -1.5003 -0.6015  0.6403
   98bbb     C7 2460  11.028   7.559   3.869  0.0308  0.6093  0.4543
   98bbb     C8 2461  10.920   7.097   3.473 -0.2066 -0.1945 -0.6318
   98bbb     O1 2462  10.939   7.639   3.849  0.7018 -0.0952 -0.1475
   98bbb     O2 2463  10.884   7.083   3.357 -0.5522 -0.1658  0.0002
   98bbb     N4 2464  11.167   7.483   3.155  0.6523  0.8874 -0.2013
   98bbb    H21 2465  11.248   7.519   3.106  0.6622  1.7858  0.4623
   99bbb     C1 2466  10.374   7.789   2.578 -0.4837 -0.1080  0.4812
   99bbb     H1 2467  10.342   7.716   2.654 -1.9419  0.7033  0.6778
   99bbb     H2 2468  10.401   7.731   2.488 -2.4607 -0.5056  0.0953
   99bbb     C2 2469  10.505   7.853   2.630  0.0464 -0.3918  0.5800
   99bbb     H3 2470  10.552   7.906   2.546 -1.1457  0.2165  0.2711
   99bbb     H4 2471  10.490   7.925   2.712  2.3748 -0.8318  1.4733
   99bbb     N1 2472  10.269   7.889   2.546  0.2052 -0.6783  0.2977
   99bbb     C3 2473  10.245   7.971   2.666 -0.0023  0.4925  0.4125
   99bbb     H5 2474  10.307   8.060   2.681  0.0854  0.4211  0.4691
   99bbb     H6 2475  10.260   7.908   2.755  0.2148  1.2792  0.9414
   99bbb     C4 2476  10.282   7.969   2.430  0.3603  0.2293  1.0717
   99bbb     H7 2477  10.188   8.024   2.419 -0.7503 -1.8857 -1.0225
   99bbb     H8 2478  10.369   8.035   2.438  0.4518  0.4356 -1.0502
   99bbb     C5 2479  10.314   7.883   2.306  0.5254 -0.0990 -0.5648
   99bbb     H9 2480  10.413   7.835   2.301  0.7661  0.0209  1.8297
   99bbb    H10 2481  10.258   7.789   2.311  0.7396 -0.1904  0.2634
   99bbb     C6 2482  10.098   8.008   2.667  0.5551 -0.1364  0.4626
   99bbb    H11 2483  10.080   8.095   2.603  3.2472 -0.5703 -1.0218
   99bbb    H12 2484  10.036   7.927   2.626  0.3971 -1.4579  3.0613
   99bbb     C7 2485  10.290   7.955   2.180 -0.5956  0.2858  0.0141
   99bbb     C8 2486  10.054   8.037   2.810 -0.0839 -0.4469  0.9561
   99bbb     O1 2487  10.197   7.916   2.111  0.5081  0.2770  0.2441
   99bbb     O2 2488  10.113   8.114   2.878 -0.2410 -0.3891  0.1853
   99bbb     N4 2489  10.588   7.749   2.686  0.2737 -0.3021  0.0033
   99bbb    H21 2490  10.568   7.652   2.664  2.6152 -0.6463 -0.9368
  100bbb     C1 2491  12.788   7.304   1.904  0.2935 -0.3745 -0.3956
  100bbb     H1 2492  12.774   7.363   1.812 -1.3224 -2.2882 -1.4578
  100bbb     H2 2493  12.753   7.206   1.870 -0.8023  0.0991 -0.6963
  100bbb     C2 2494  12.700   7.354   2.021 -0.2527  0.1153 -0.3027
  100bbb     H3 2495  12.734   7.313   2.117  1.2926 -1.5003 -1.4682
  100bbb     H4 2496  12.709   7.463   2.030 -0.5363  0.0880  0.3728
  100bbb     N1 2497  12.927   7.287   1.943 -0.2605  0.1007  0.3877
  100bbb     C3 2498  13.004   7.410   1.903 -0.4505  0.2821  0.0217
  100bbb     H5 2499  12.948   7.495   1.943 -0.8588 -0.7019  1.5990
  100bbb     H6 2500  13.009   7.422   1.794  1.9812  2.1850  0.2304
  100bbb     C4 2501  12.988   7.167   1.913 -0.3648 -0.1676 -0.7397
  100bbb     H7 2502  13.086   7.158   1.961 -0.1091  0.3072 -1.1772
  100bbb     H8 2503  12.930   7.088   1.963  1.7738 -2.6234 -1.9168
  100bbb     C5 2504  12.994   7.137   1.761 -0.1982 -0.4336  0.1560
  100bbb     H9 2505  12.891   7.137   1.724  0.6126  0.7108 -2.2946
  100bbb    H10 2506  13.047   7.210   1.699 -2.1449  0.9977  0.0632
  100bbb     C6 2507  13.150   7.407   1.955  0.3761 -0.1879  0.0399
  100bbb    H11 2508  13.158   7.379   2.060 -0.0904 -0.5865 -0.0297
  100bbb    H12 2509  13.214   7.332   1.907 -0.7467 -0.6832 -0.7323
  100bbb     C7 2510  13.045   6.996   1.741 -0.6980 -0.2002 -0.2982
  100bbb     C8 2511  13.209   7.538   1.924 -0.4321  0.1181 -0.5443
  100bbb     O1 2512  13.166   6.976   1.743 -0.2527 -0.2990 -0.4915
  100bbb     O2 2513  13.269   7.551   1.820  0.2606 -0.3501  0.1254
  100bbb     N4 2514  12.557   7.329   2.005 -0.4412 -0.8768 -0.5725
  100bbb    H21 2515  12.523   7.278   1.925 -2.1450  0.7192 -0.9464
  101bbb     C1 2516  12.245   7.058   2.870  0.7688  0.0190 -0.4429
  101bbb     H1 2517  12.334   7.115   2.896  0.2012  0.7050  0.0221
  101bbb     H2 2518  12.262   6.988   2.787 -0.7534  0.4460 -1.1537
  101bbb     C2 2519  12.129   7.149   2.814 -0.3895  0.0984 -0.4626
  101bbb     H3 2520  12.025   7.115   2.819 -0.1517 -0.9776 -2.0660
  101bbb     H4 2521  12.128   7.238   2.878 -1.8011 -0.9533  1.0658
  101bbb     N1 2522  12.194   6.982   2.992 -0.4381  0.0198  0.8779
  101bbb     C3 2523  12.302   6.934   3.078 -0.3999 -0.7676  0.2091
  101bbb     H5 2524  12.386   6.895   3.019 -3.1183 -0.7388 -4.1168
  101bbb     H6 2525  12.265   6.856   3.146 -1.6936  0.5786  1.1246
  101bbb     C4 2526  12.122   6.866   2.941 -0.2815 -0.2859  0.3648
  101bbb     H7 2527  12.076   6.892   2.844 -0.5608 -0.2798  0.4988
  101bbb     H8 2528  12.187   6.779   2.924 -1.2545 -1.4204  2.2364
  101bbb     C5 2529  12.018   6.842   3.052  0.3860  0.1667  0.7764
  101bbb     H9 2530  12.055   6.816   3.152 -0.4670 -1.2005  0.7655
  101bbb    H10 2531  11.960   6.933   3.072  1.1534  0.5010  1.5042
  101bbb     C6 2532  12.344   7.041   3.169 -0.6950 -0.4686  0.0169
  101bbb    H11 2533  12.382   7.127   3.112 -0.6345 -0.6181 -0.1704
  101bbb    H12 2534  12.261   7.077   3.232  1.2167  0.2800  2.2613
  101bbb     C7 2535  11.933   6.734   2.997  0.1620 -0.1506 -0.3043
  101bbb     C8 2536  12.456   6.997   3.256 -0.0818  0.6244 -0.3377
  101bbb     O1 2537  11.972   6.645   2.930 -1.3636 -0.5666  0.4158
  101bbb     O2 2538  12.470   6.884   3.298  0.3395 -0.5684 -0.7019
  101bbb     N4 2539  12.158   7.180   2.668 -0.0170  0.2224  0.1007
  101bbb    H21 2540  12.247   7.224   2.652 -0.3998  1.8641  2.0667
  102bbb     C1 2541  12.817  11.034   2.041 -0.0311  0.5613 -0.1339
  102bbb     H1 2542  12.712  11.010   2.061  0.3212 -0.2616  0.8096
  102bbb     H2 2543  12.827  11.062   1.936 -0.0111 -0.1712 -0.3303
  102bbb     C2 2544  12.902  10.903   2.057 -0.7037 -0.6383  0.2452
  102bbb     H3 2545  13.008  10.924   2.039 -0.9864 -0.4860 -1.3468
  102bbb     H4 2546  12.880  10.861   2.156 -1.5025 -0.7623  0.0215
  102bbb     N1 2547  12.851  11.156   2.127 -0.2302  0.0622  0.0884
  102bbb     C3 2548  12.759  11.265   2.103 -0.3939 -0.4782 -0.2993
  102bbb     H5 2549  12.807  11.357   2.139 -0.4434  0.1942 -1.8555
  102bbb     H6 2550  12.669  11.237   2.160  0.0533 -0.9861  0.1679
  102bbb     C4 2551  12.863  11.115   2.267  0.3650 -0.2606 -0.1652
  102bbb     H7 2552  12.766  11.077   2.301  1.6199 -0.5036  3.5884
  102bbb     H8 2553  12.928  11.029   2.289  2.2950  0.7931 -1.5273
  102bbb     C5 2554  12.899  11.227   2.355  0.9619  0.5189  0.0741
  102bbb     H9 2555  12.825  11.308   2.359  0.3286  0.1655 -2.4298
  102bbb    H10 2556  12.895  11.186   2.456  3.2064 -0.0563 -0.0273
  102bbb     C6 2557  12.728  11.300   1.957 -0.8053 -0.4501 -0.0588
  102bbb    H11 2558  12.822  11.324   1.907  0.4746 -2.2438  1.3544
  102bbb    H12 2559  12.666  11.226   1.903 -0.0595  0.6574 -2.6045
  102bbb     C7 2560  13.043  11.268   2.337  0.5043 -0.1213 -0.0491
  102bbb     C8 2561  12.640  11.420   1.959 -0.3211  0.6217 -0.5560
  102bbb     O1 2562  13.140  11.218   2.391  0.2170 -0.8859  0.1009
  102bbb     O2 2563  12.692  11.527   1.971  0.2623 -0.0447 -0.4587
  102bbb     N4 2564  12.855  10.799   1.965  0.1410 -0.5585  0.6286
  102bbb    H21 2565  12.754  10.794   1.960  0.0342  0.5510  1.3730
  103bbb     C1 2566  13.106  10.598   0.983 -0.3211 -0.5841 -0.1238
  103bbb     H1 2567  13.159  10.576   1.077 -3.1025  0.2241  1.7693
  103bbb     H2 2568  13.097  10.707   0.985  1.7278 -0.3445 -1.2280
  103bbb     C2 2569  12.970  10.525   0.978 -0.3761  0.7581 -0.7512
  103bbb     H3 2570  12.913  10.557   0.891 -0.6449  4.6720  0.6344
  103bbb     H4 2571  12.990  10.419   0.958 -3.4150  0.4265 -2.6291
  103bbb     N1 2572  13.185  10.557   0.865 -0.1963  0.6502  0.9427
  103bbb     C3 2573  13.327  10.554   0.896  0.2684 -0.0341  0.5109
  103bbb     H5 2574  13.354  10.635   0.965 -0.6871  1.2389 -0.5669
  103bbb     H6 2575  13.389  10.570   0.807 -1.8909 -0.6017 -1.1716
  103bbb     C4 2576  13.155  10.641   0.745  0.1746  0.3175 -0.3900
  103bbb     H7 2577  13.047  10.660   0.746  0.2343  0.6842  1.2111
  103bbb     H8 2578  13.209  10.736   0.751  0.7026  0.1215 -1.6271
  103bbb     C5 2579  13.201  10.570   0.622 -0.5949  1.0577  0.0210
  103bbb     H9 2580  13.309  10.549   0.623 -0.6291  0.8829  0.3259
  103bbb    H10 2581  13.153  10.471   0.626  2.7873 -0.8019 -1.2304
  103bbb     C6 2582  13.359  10.425   0.957 -0.6150 -0.0164 -0.6502
  103bbb    H11 2583  13.293  10.420   1.045 -2.0897 -3.2113 -1.7841
  103bbb    H12 2584  13.339  10.336   0.896  3.1317 -1.3894 -0.1665
  103bbb     C7 2585  13.166  10.647   0.498 -0.1581  0.4905  0.1527
  103bbb     C8 2586  13.502  10.434   1.011  0.6401 -0.1349  0.3021
  103bbb     O1 2587  13.093  10.742   0.496 -1.0001 -0.0103 -0.3131
  103bbb     O2 2588  13.529  10.507   1.101  0.8664  0.0585  0.2225
  103bbb     N4 2589  12.889  10.539   1.100  0.0180 -0.6153 -0.1030
  103bbb    H21 2590  12.837  10.626   1.106  0.4387 -0.3446 -0.3124
  104bbb     C1 2591  10.627  10.103   1.439 -0.6469  0.7729  0.1652
  104bbb     H1 2592  10.603  10.008   1.490  0.5834 -0.1642 -0.9449
  104bbb     H2 2593  10.706  10.078   1.368 -0.6857  1.0051  0.0413
  104bbb     C2 2594  10.701  10.202   1.536  0.3075 -0.3609  0.0570
  104bbb     H3 2595  10.734  10.286   1.474  1.7392 -1.2479 -0.4477
  104bbb     H4 2596  10.628  10.235   1.610  2.2646  1.3930  1.3286
  104bbb     N1 2597  10.506  10.146   1.371  0.3853  0.0116  0.1691
  104bbb     C3 2598  10.469  10.069   1.256 -0.2153 -0.8293  0.2486
  104bbb     H5 2599  10.416   9.977   1.283  2.1649 -2.4866 -0.3793
  104bbb     H6 2600  10.547  10.040   1.185  0.4213 -1.2306  1.0859
  104bbb     C4 2601  10.398  10.157   1.469 -0.0333 -0.3826  0.5135
  104bbb     H7 2602  10.296  10.128   1.440  0.0183 -0.3612  0.3078
  104bbb     H8 2603  10.414  10.104   1.563  0.0497 -0.5584  0.4011
  104bbb     C5 2604  10.376  10.308   1.496  0.1716 -0.4384 -0.1561
  104bbb     H9 2605  10.470  10.364   1.490 -1.1893  1.9375 -0.7376
  104bbb    H10 2606  10.310  10.344   1.416  2.2267  2.1893 -0.8172
  104bbb     C6 2607  10.382  10.168   1.176 -0.1942  0.6424  0.1048
  104bbb    H11 2608  10.278  10.182   1.210 -0.5404 -0.8560 -0.2355
  104bbb    H12 2609  10.418  10.271   1.178  0.0167  0.5474  1.4729
  104bbb     C7 2610  10.318  10.337   1.629 -0.5868 -0.4480  0.2522
  104bbb     C8 2611  10.372  10.118   1.032  0.2784  0.1156  0.3341
  104bbb     O1 2612  10.390  10.341   1.729 -0.0361  0.5713 -0.1247
  104bbb     O2 2613  10.450  10.168   0.954  0.6601  0.1331 -0.0875
  104bbb     N4 2614  10.817  10.138   1.596  0.6144 -0.2045  0.6800
  104bbb    H21 2615  10.812  10.039   1.616  0.3668 -0.0832  1.2340
  105bbb     C1 2616  10.851  10.192   2.409 -0.2693 -0.3111 -0.2091
  105bbb     H1 2617  10.769  10.167   2.341 -0.1556 -0.7194 -0.1933
  105bbb     H2 2618  10.877  10.297   2.387  0.1484 -0.0372  1.4731
  105bbb     C2 2619  10.965  10.097   2.374 -0.7592 -0.3283 -0.3327
  105bbb     H3 2620  11.051  10.126   2.436 -0.9559 -0.0137 -0.2037
  105bbb     H4 2621  10.944   9.993   2.400  1.9687 -0.6902  0.7305
  105bbb     N1 2622  10.817  10.167   2.550  0.2726  0.5963 -0.2140
  105bbb     C3 2623  10.674  10.204   2.569 -0.4185  0.6908 -0.6203
  105bbb     H5 2624  10.641  10.292   2.513 -0.6836 -0.4846 -2.3681
  105bbb     H6 2625  10.654  10.238   2.672  1.0399  0.6728 -0.3145
  105bbb     C4 2626  10.907  10.257   2.624 -0.8722  0.0784 -0.3055
  105bbb     H7 2627  11.008  10.238   2.585 -0.5295 -2.6093  1.6672
  105bbb     H8 2628  10.881  10.361   2.599 -1.6227 -0.2963 -1.1554
  105bbb     C5 2629  10.904  10.239   2.776  0.2062  0.1486  0.0601
  105bbb     H9 2630  10.804  10.255   2.819 -0.3398 -0.8654 -0.7849
  105bbb    H10 2631  10.941  10.141   2.808  1.5044  1.1024  1.6571
  105bbb     C6 2632  10.581  10.091   2.533 -0.3209 -0.3843  0.2303
  105bbb    H11 2633  10.598  10.057   2.430 -1.1052 -1.0118  0.2971
  105bbb    H12 2634  10.606  10.011   2.603  1.3946  0.1626  0.3078
  105bbb     C7 2635  10.987  10.339   2.847  0.6265 -0.8936  1.0342
  105bbb     C8 2636  10.443  10.130   2.553 -0.4224  0.2640  0.6624
  105bbb     O1 2637  11.102  10.320   2.885  0.0221  0.1545  0.3475
  105bbb     O2 2638  10.395  10.175   2.652 -0.6639 -0.5551  0.1965
  105bbb     N4 2639  11.001  10.116   2.232 -0.5479  0.7496  0.2419
  105bbb    H21 2640  10.935  10.146   2.162  1.4620  0.1385 -2.0366
  106bbb     C1 2641  12.522   7.859   0.326 -0.1158 -0.8316  0.3247
  106bbb     H1 2642  12.612   7.819   0.373  2.1190  2.3898 -0.9371
  106bbb     H2 2643  12.511   7.967   0.340 -2.8739 -0.7999 -1.3502
  106bbb     C2 2644  12.400   7.790   0.395  0.5467 -0.7911  0.5514
  106bbb     H3 2645  12.324   7.776   0.317  1.6504 -0.9414 -0.5297
  106bbb     H4 2646  12.429   7.690   0.429 -0.6084 -0.8892  1.3264
  106bbb     N1 2647  12.513   7.826   0.176  0.2908 -0.7457 -0.1547
  106bbb     C3 2648  12.564   7.928   0.088 -0.6869 -0.4482  1.0510
  106bbb     H5 2649  12.580   7.892  -0.014 -0.1615 -0.2420  1.0562
  106bbb     H6 2650  12.660   7.967   0.124 -0.4300 -1.5012  1.5710
  106bbb     C4 2651  12.559   7.695   0.137  0.2601 -0.0057 -0.3748
  106bbb     H7 2652  12.662   7.707   0.103  0.9701 -3.0480  0.3789
  106bbb     H8 2653  12.561   7.637   0.230  0.0492 -0.5454 -0.7010
  106bbb     C5 2654  12.464   7.639   0.031  0.5542  0.5156 -0.2104
  106bbb     H9 2655  12.361   7.654   0.064  0.4891  1.2948 -0.7420
  106bbb    H10 2656  12.481   7.708  -0.052  3.0556 -0.2920 -0.4545
  106bbb     C6 2657  12.469   8.044   0.084  0.2455  0.0019  0.3545
  106bbb    H11 2658  12.379   8.011   0.030  1.0886 -0.7502 -0.6382
  106bbb    H12 2659  12.453   8.094   0.180 -0.2428 -1.3624  1.0191
  106bbb     C7 2660  12.501   7.491   0.003 -0.3631  0.6837  0.3788
  106bbb     C8 2661  12.533   8.146  -0.000  0.3487 -0.4383  0.8822
  106bbb     O1 2662  12.587   7.453  -0.077 -0.3805  0.0347  0.3974
  106bbb     O2 2663  12.602   8.227   0.048 -0.1901  0.0813  0.0460
  106bbb     N4 2664  12.354   7.866   0.513 -0.4409 -0.1265  0.2279
  106bbb    H21 2665  12.262   7.907   0.507  0.3475  1.5733 -0.7954
  107bbb     C1 2666  11.791   7.736   1.034 -0.3079 -0.3828  0.2016
  107bbb     H1 2667  11.699   7.724   1.092 -0.0131  0.9698  1.0140
  107bbb     H2 2668  11.883   7.707   1.086  1.5001 -1.6496 -3.4352
  107bbb     C2 2669  11.808   7.881   1.005  0.9335  0.3294  0.1954
  107bbb     H3 2670  11.726   7.926   0.947  0.6172  0.1486  0.4998
  107bbb     H4 2671  11.821   7.939   1.097  2.0966  0.5481 -0.0957
  107bbb     N1 2672  11.768   7.660   0.908 -0.3538 -0.0683  0.5999
  107bbb     C3 2673  11.797   7.518   0.925  0.2073 -0.2040 -0.2136
  107bbb     H5 2674  11.726   7.468   0.991  1.8149 -3.5912 -0.8158
  107bbb     H6 2675  11.896   7.498   0.970  0.6352  0.6945 -0.7363
  107bbb     C4 2676  11.636   7.687   0.837 -0.1676 -0.2612  1.0028
  107bbb     H7 2677  11.643   7.794   0.811  0.6013 -0.4482  0.4054
  107bbb     H8 2678  11.628   7.636   0.740  0.9024  0.3145  0.5841
  107bbb     C5 2679  11.505   7.669   0.916  0.0653  0.3801  0.6846
  107bbb     H9 2680  11.487   7.566   0.949 -0.0097  0.0526 -0.3422
  107bbb    H10 2681  11.507   7.735   1.003  0.5206 -0.4314  1.3029
  107bbb     C6 2682  11.792   7.435   0.798 -0.6741  0.2459  0.5460
  107bbb    H11 2683  11.691   7.411   0.762 -0.6079 -0.8778  1.0684
  107bbb    H12 2684  11.835   7.482   0.709  2.0921 -4.1966 -0.8133
  107bbb     C7 2685  11.394   7.708   0.821 -0.3375  0.3677  0.4235
  107bbb     C8 2686  11.867   7.307   0.815 -0.3509  0.1554  0.2123
  107bbb     O1 2687  11.364   7.632   0.731  0.1765 -0.2278 -0.2191
  107bbb     O2 2688  11.868   7.243   0.923 -0.2732 -0.0083  0.1783
  107bbb     N4 2689  11.923   7.930   0.927 -0.3053  0.0376  0.6744
  107bbb    H21 2690  12.003   7.870   0.909 -0.5897  0.0867 -0.8741
  108bbb     C1 2691  13.428   9.547   0.989  0.0346 -0.1912 -0.1090
  108bbb     H1 2692  13.454   9.624   0.915  0.1618  0.5710  0.7058
  108bbb     H2 2693  13.397   9.463   0.926 -0.7166  0.9222 -1.2550
  108bbb     C2 2694  13.297   9.592   1.065  0.2969 -0.3711 -0.0946
  108bbb     H3 2695  13.293   9.545   1.163 -0.1536  0.2923  0.2110
  108bbb     H4 2696  13.303   9.699   1.088  1.6477 -0.3848 -0.2973
  108bbb     N1 2697  13.532   9.513   1.078  0.0991 -0.3124 -0.2168
  108bbb     C3 2698  13.638   9.444   1.008 -0.3030  0.5223 -0.1214
  108bbb     H5 2699  13.732   9.491   1.039 -0.5947  0.0383  1.6167
  108bbb     H6 2700  13.626   9.467   0.902 -0.7900 -1.3061 -0.4931
  108bbb     C4 2701  13.573   9.627   1.165  0.1906 -0.0582  0.0646
  108bbb     H7 2702  13.640   9.694   1.109  0.8471 -0.9035 -0.1890
  108bbb     H8 2703  13.491   9.688   1.205  0.3544 -0.6756  1.3851
  108bbb     C5 2704  13.636   9.581   1.294  0.0723 -0.2995 -0.5685
  108bbb     H9 2705  13.554   9.543   1.357  0.6440 -0.2189  0.2493
  108bbb    H10 2706  13.716   9.509   1.273  1.2946  0.0763  2.3615
  108bbb     C6 2707  13.644   9.300   1.037  0.8389  0.6791  0.1231
  108bbb    H11 2708  13.671   9.287   1.143 -1.8169  5.0625  1.6270
  108bbb    H12 2709  13.548   9.251   1.018  0.5423  1.2606  0.0894
  108bbb     C7 2710  13.700   9.689   1.372  0.1658 -0.0619 -0.3388
  108bbb     C8 2711  13.741   9.218   0.949 -0.6843 -0.2704 -0.3483
  108bbb     O1 2712  13.817   9.704   1.378 -0.2396 -0.1808 -0.3092
  108bbb     O2 2713  13.854   9.212   0.992 -0.4468  0.4729  0.9414
  108bbb     N4 2714  13.167   9.571   0.999 -0.7043 -0.3671  0.1506
  108bbb    H21 2715  13.091   9.522   1.044 -1.3338 -1.8420 -2.3086
  109bbb     C1 2716  12.813   9.281   0.050 -0.2686 -0.2158  0.2419
  109bbb     H1 2717  12.863   9.379   0.053  0.3419 -0.4449 -1.6200
  109bbb     H2 2718  12.710   9.315   0.035 -1.4868 -4.1150 -1.5975
  109bbb     C2 2719  12.836   9.205   0.184  0.6480 -0.0069 -0.6058
  109bbb     H3 2720  12.743   9.150   0.202  0.8066 -0.0229  0.2023
  109bbb     H4 2721  12.913   9.129   0.168  2.1447  1.2772  0.2517
  109bbb     N1 2722  12.861   9.196  -0.060 -0.5250  0.2030 -0.1050
  109bbb     C3 2723  12.872   9.271  -0.191  0.1487 -0.8661 -0.3417
  109bbb     H5 2724  12.805   9.357  -0.185  0.2321 -0.9033  2.6318
  109bbb     H6 2725  12.845   9.213  -0.280  1.9677 -1.4108 -0.5727
  109bbb     C4 2726  12.785   9.074  -0.084  0.3806  0.4668  0.3977
  109bbb     H7 2727  12.821   9.021  -0.173 -1.9544  1.8689 -1.5050
  109bbb     H8 2728  12.806   9.014   0.006  1.6213  1.5187  0.8479
  109bbb     C5 2729  12.635   9.100  -0.118  0.0634 -0.5933  0.4841
  109bbb     H9 2730  12.574   9.150  -0.041  1.2729  1.4616  0.1949
  109bbb    H10 2731  12.631   9.173  -0.200  2.7117  0.3690  1.1091
  109bbb     C6 2732  13.020   9.324  -0.200 -0.7403  0.2394 -0.0116
  109bbb    H11 2733  13.038   9.406  -0.129 -0.5731 -0.3107  0.5902
  109bbb    H12 2734  13.088   9.242  -0.175 -0.5177 -0.0006 -1.3000
  109bbb     C7 2735  12.563   8.975  -0.154 -0.0569  0.1589  0.2907
  109bbb     C8 2736  13.049   9.361  -0.339  0.3184 -0.4573  0.2158
  109bbb     O1 2737  12.494   8.922  -0.068 -0.2679  0.4582 -0.2511
  109bbb     O2 2738  13.018   9.474  -0.373 -0.2355 -0.4659  0.3623
  109bbb     N4 2739  12.882   9.281   0.301 -0.5428  0.5165 -0.0165
  109bbb    H21 2740  12.886   9.382   0.301 -1.0371  0.5436  1.1557
  110bbb     C1 2741  10.887   9.416   4.609 -0.0104  0.0267 -0.4060
  110bbb     H1 2742  10.963   9.350   4.566  0.7300  0.8486 -0.3789
  110bbb     H2 2743  10.939   9.477   4.684  2.0386 -0.1030 -1.6479
  110bbb     C2 2744  10.772   9.349   4.693 -0.3817  0.1722  0.1701
  110bbb     H3 2745  10.710   9.428   4.737 -0.4476  0.3255 -0.1910
  110bbb     H4 2746  10.699   9.296   4.629 -0.1943 -1.9818  1.6385
  110bbb     N1 2747  10.831   9.502   4.505  0.2675 -0.2221  0.5603
  110bbb     C3 2748  10.823   9.433   4.378  0.3598  0.1922 -0.1602
  110bbb     H5 2749  10.825   9.325   4.395  1.8113  0.2494  0.1853
  110bbb     H6 2750  10.911   9.462   4.320 -0.4001  2.2361 -0.3897
  110bbb     C4 2751  10.899   9.631   4.486 -0.3689 -0.5655 -0.4872
  110bbb     H7 2752  11.009   9.625   4.478 -0.4309 -1.6725 -0.7203
  110bbb     H8 2753  10.859   9.661   4.389 -3.3768 -1.2178  0.4479
  110bbb     C5 2754  10.865   9.726   4.599 -0.0715 -0.2683 -0.2503
  110bbb     H9 2755  10.756   9.722   4.590 -0.1961  2.1974 -0.3637
  110bbb    H10 2756  10.903   9.708   4.701 -0.0932  1.6835  0.1339
  110bbb     C6 2757  10.695   9.480   4.316 -0.1653  0.8085  0.6455
  110bbb    H11 2758  10.614   9.430   4.371 -0.7844 -0.7444 -1.5292
  110bbb    H12 2759  10.684   9.589   4.319 -0.3759  0.8299 -0.3960
  110bbb     C7 2760  10.912   9.862   4.561  0.0719 -0.2801  0.3872
  110bbb     C8 2761  10.685   9.441   4.173  0.1325 -0.1537  0.3999
  110bbb     O1 2762  10.922   9.887   4.443 -0.8406 -0.5200 -0.2075
  110bbb     O2 2763  10.714   9.328   4.131  0.6997  0.3338 -0.4844
  110bbb     N4 2764  10.832   9.266   4.795  0.1716  0.4912 -0.0190
  110bbb    H21 2765  10.896   9.306   4.863  1.4163 -0.4771 -0.5811
  111bbb     C1 2766  11.245   8.301   4.883  0.1759 -0.2033  0.1644
  111bbb     H1 2767  11.317   8.329   4.805 -1.0373  0.2917 -0.8158
  111bbb     H2 2768  11.165   8.261   4.819  0.5223 -0.8228  0.1054
  111bbb     C2 2769  11.204   8.412   4.976  0.4173 -0.2866 -0.0606
  111bbb     H3 2770  11.137   8.382   5.058  1.2645 -2.8099 -0.2132
  111bbb     H4 2771  11.296   8.441   5.027  1.1757 -0.9100 -1.0510
  111bbb     N1 2772  11.291   8.188   4.965  0.5196  0.1885  0.6010
  111bbb     C3 2773  11.181   8.129   5.045 -0.1071  0.1485 -0.5501
  111bbb     H5 2774  11.132   8.203   5.109 -0.4906 -0.1185 -0.5291
  111bbb     H6 2775  11.223   8.058   5.117 -3.5036 -1.7369 -0.2344
  111bbb     C4 2776  11.357   8.085   4.881  0.0450 -0.0575 -0.1974
  111bbb     H7 2777  11.375   7.998   4.946  1.5172  0.6075  0.3199
  111bbb     H8 2778  11.302   8.046   4.795  2.6341  0.0786 -2.0479
  111bbb     C5 2779  11.496   8.113   4.824 -0.0445  0.0340 -0.2614
  111bbb     H9 2780  11.503   8.199   4.757  1.1414 -0.4162 -0.7405
  111bbb    H10 2781  11.567   8.137   4.905 -1.2582  1.6925  0.3545
  111bbb     C6 2782  11.077   8.049   4.975  0.4389 -0.3100  0.3720
  111bbb    H11 2783  11.019   8.102   4.898  1.5304 -0.0014 -0.2478
  111bbb    H12 2784  11.123   7.967   4.919 -0.9789 -1.1108  0.3077
  111bbb     C7 2785  11.543   7.996   4.741  0.0824  0.1130 -0.7771
  111bbb     C8 2786  10.981   8.008   5.083 -0.9123  0.3297  0.6621
  111bbb     O1 2787  11.471   7.913   4.700 -0.5731  0.2553  0.0774
  111bbb     O2 2788  10.936   8.075   5.171  0.4571 -0.4256  0.0270
  111bbb     N4 2789  11.155   8.532   4.910 -0.8913 -0.2507 -0.1976
  111bbb    H21 2790  11.146   8.528   4.810  0.0433  2.9083 -0.5077
  112bbb     C1 2791  11.485  10.614   4.388 -0.1783  0.2481  0.1892
  112bbb     H1 2792  11.587  10.588   4.419  0.9841  2.6402 -1.3351
  112bbb     H2 2793  11.442  10.672   4.471 -1.4021 -0.8700  0.3645
  112bbb     C2 2794  11.405  10.484   4.369  0.7277 -0.1577 -0.5935
  112bbb     H3 2795  11.361  10.464   4.467  1.7445 -1.9178 -0.4401
  112bbb     H4 2796  11.325  10.506   4.297 -1.5414 -1.3809  1.4094
  112bbb     N1 2797  11.470  10.700   4.272  0.6407 -0.1763  0.9593
  112bbb     C3 2798  11.342  10.768   4.265  0.5985  0.1519  0.0030
  112bbb     H5 2799  11.343  10.853   4.335 -0.1530 -0.0395  0.2546
  112bbb     H6 2800  11.265  10.698   4.298  0.7331  0.1338  0.2755
  112bbb     C4 2801  11.589  10.790   4.248 -0.4710 -1.1218 -0.1897
  112bbb     H7 2802  11.563  10.860   4.167 -4.0945 -2.2407 -0.1665
  112bbb     H8 2803  11.595  10.849   4.340 -0.0984 -2.9763  1.0062
  112bbb     C5 2804  11.717  10.713   4.209  0.6954  0.1468  0.3741
  112bbb     H9 2805  11.753  10.642   4.285  1.0124 -1.0415 -0.8309
  112bbb    H10 2806  11.697  10.665   4.112  0.7470 -0.8401  0.8358
  112bbb     C6 2807  11.313  10.803   4.115  0.6630 -0.0308 -0.7123
  112bbb    H11 2808  11.361  10.895   4.079 -0.0393 -0.1063 -1.8777
  112bbb    H12 2809  11.344  10.722   4.048 -0.4153 -0.6880 -0.4485
  112bbb     C7 2810  11.827  10.814   4.184  0.5263  0.3576  0.2149
  112bbb     C8 2811  11.164  10.824   4.103 -0.0277 -0.5140  0.4029
  112bbb     O1 2812  11.811  10.930   4.155 -0.2673 -0.2251  0.3529
  112bbb     O2 2813  11.084  10.825   4.195 -0.2213 -0.0069 -0.4942
  112bbb     N4 2814  11.472  10.364   4.305  0.4253 -0.0048  0.4060
  112bbb    H21 2815  11.498  10.382   4.209 -0.1084  0.1704  0.2899
  113bbb     C1 2816  12.003   9.341   4.494  0.9985  0.6911  0.3038
  113bbb     H1 2817  12.013   9.232   4.507 -1.8626  0.2545 -0.4277
  113bbb     H2 2818  12.035   9.377   4.592  0.5975  0.2898  0.5894
  113bbb     C2 2819  11.856   9.392   4.477  0.3236  0.7004 -0.3211
  113bbb     H3 2820  11.789   9.311   4.443  0.2579  1.3115 -1.6896
  113bbb     H4 2821  11.825   9.399   4.582  1.5534  1.0230  0.0341
  113bbb     N1 2822  12.086   9.386   4.378  0.0827 -0.0732  0.8862
  113bbb     C3 2823  12.041   9.323   4.253  0.3935  0.3047  0.2179
  113bbb     H5 2824  11.932   9.323   4.240  0.3975 -1.8088 -0.2743
  113bbb     H6 2825  12.071   9.217   4.254 -1.5992 -0.3036 -0.3117
  113bbb     C4 2826  12.228   9.359   4.406 -0.0163  0.0808  0.1947
  113bbb     H7 2827  12.231   9.259   4.452 -1.4917 -0.9694 -1.8606
  113bbb     H8 2828  12.288   9.366   4.315  2.2698  0.5143  1.6605
  113bbb     C5 2829  12.286   9.462   4.504  0.2169  0.6586 -0.4226
  113bbb     H9 2830  12.250   9.563   4.480 -2.2224 -0.0375  0.0153
  113bbb    H10 2831  12.255   9.436   4.606  2.1859 -2.8794 -0.5607
  113bbb     C6 2832  12.096   9.390   4.130 -0.1585 -0.0814  0.2214
  113bbb    H11 2833  12.204   9.371   4.123 -0.6860 -4.0441  0.4273
  113bbb    H12 2834  12.053   9.342   4.041  1.8946 -0.5975 -0.5661
  113bbb     C7 2835  12.438   9.461   4.507  0.1307 -0.5027  0.5394
  113bbb     C8 2836  12.047   9.533   4.136 -1.1921  0.2303 -0.1895
  113bbb     O1 2837  12.502   9.422   4.411  0.4636  0.1604  0.4754
  113bbb     O2 2838  11.927   9.564   4.137 -0.5976  0.6386 -0.4032
  113bbb     N4 2839  11.831   9.521   4.407 -0.0505 -0.1812 -0.1017
  113bbb    H21 2840  11.888   9.550   4.329 -0.3128  1.4128  0.2639
  114bbb     C1 2841  11.902   7.507   2.776  0.1992  0.7052 -0.4999
  114bbb     H1 2842  11.971   7.424   2.800  1.5397  1.2397 -2.2712
  114bbb     H2 2843  11.969   7.593   2.788  0.7400  0.5089 -1.8504
  114bbb     C2 2844  11.802   7.527   2.893  0.1885 -0.1866 -0.3148
  114bbb     H3 2845  11.740   7.614   2.869  0.9656  0.5379  0.2417
  114bbb     H4 2846  11.738   7.440   2.909 -0.7524  0.7710  1.4457
  114bbb     N1 2847  11.836   7.497   2.648 -0.6422  0.3380 -0.1718
  114bbb     C3 2848  11.732   7.390   2.629 -0.2836 -0.2438  0.5206
  114bbb     H5 2849  11.677   7.379   2.723  0.1462  0.0925  0.8201
  114bbb     H6 2850  11.783   7.297   2.601  1.1128  0.6146  0.1056
  114bbb     C4 2851  11.943   7.494   2.549  0.5119 -0.4434  0.3675
  114bbb     H7 2852  12.024   7.424   2.572  1.3164  1.1510  2.7136
  114bbb     H8 2853  11.901   7.476   2.449  2.4184  1.9663 -0.9931
  114bbb     C5 2854  12.008   7.632   2.537  0.0239 -0.4030  0.1223
  114bbb     H9 2855  11.928   7.706   2.538 -0.0931 -0.5324  0.7796
  114bbb    H10 2856  12.061   7.666   2.628  1.6847 -1.0317 -0.5763
  114bbb     C6 2857  11.628   7.434   2.533  0.5260  0.3918  0.5452
  114bbb    H11 2858  11.573   7.520   2.572 -0.1704 -1.1507  3.2761
  114bbb    H12 2859  11.676   7.458   2.437 -0.1184  0.0902  0.1366
  114bbb     C7 2860  12.105   7.646   2.425  0.1275 -0.1894  0.2090
  114bbb     C8 2861  11.526   7.319   2.521  0.5378 -0.2131 -0.1307
  114bbb     O1 2862  12.210   7.597   2.432 -0.1179 -0.5527 -0.2466
  114bbb     O2 2863  11.433   7.315   2.602 -0.0654  1.0696  0.2549
  114bbb     N4 2864  11.867   7.550   3.022 -0.2283  0.0047  0.1098
  114bbb    H21 2865  11.964   7.525   3.038 -0.0647  0.9841  0.8128
  115bbb     C1 2866  12.684   7.832   3.184  0.1051  0.1573 -0.5010
  115bbb     H1 2867  12.697   7.730   3.224 -5.0726 -0.3353  0.7005
  115bbb     H2 2868  12.717   7.896   3.266  2.4602  0.7769 -1.8558
  115bbb     C2 2869  12.535   7.855   3.156 -0.2725  0.3161  0.6607
  115bbb     H3 2870  12.527   7.962   3.134 -0.4467 -0.0470 -1.2078
  115bbb     H4 2871  12.504   7.789   3.074  1.5725  0.3242 -0.0772
  115bbb     N1 2872  12.763   7.843   3.061 -0.4189 -1.0194 -1.1733
  115bbb     C3 2873  12.743   7.727   2.977  0.2806 -0.4365  0.1007
  115bbb     H5 2874  12.638   7.695   2.982 -0.0263  0.2355 -1.4914
  115bbb     H6 2875  12.799   7.637   3.006 -0.1617 -1.7715 -2.8039
  115bbb     C4 2876  12.903   7.881   3.084 -0.8827 -0.5178  0.7303
  115bbb     H7 2877  12.946   7.814   3.159  1.2152  1.4642  1.4355
  115bbb     H8 2878  12.964   7.876   2.993  0.0298  2.6393  1.0294
  115bbb     C5 2879  12.914   8.022   3.126  0.3096 -0.3147  0.0637
  115bbb     H9 2880  12.889   8.081   3.037 -0.7204 -1.4059 -0.4008
  115bbb    H10 2881  12.837   8.039   3.202 -1.3805 -2.0230 -1.1655
  115bbb     C6 2882  12.761   7.762   2.832  0.5623  0.6280  0.4586
  115bbb    H11 2883  12.714   7.857   2.802 -0.2202  0.7679  2.0246
  115bbb    H12 2884  12.868   7.777   2.810  0.8361 -3.2345 -1.7102
  115bbb     C7 2885  13.046   8.070   3.174 -0.6745 -0.5309 -0.1109
  115bbb     C8 2886  12.719   7.646   2.742 -0.2813 -0.0474  0.3088
  115bbb     O1 2887  13.141   8.064   3.103  0.1264  0.1719  0.9090
  115bbb     O2 2888  12.615   7.589   2.775  0.5064 -0.2176 -0.3354
  115bbb     N4 2889  12.437   7.836   3.266  0.3101 -0.5837  0.4051
  115bbb    H21 2890  12.430   7.919   3.324 -1.7093 -0.0427 -0.5028
  116bbb     C1 2891  11.024   8.781   4.292  0.2108 -0.1474  0.5945
  116bbb     H1 2892  10.976   8.720   4.214  0.0662  0.9664 -0.2200
  116bbb     H2 2893  11.125   8.799   4.253 -0.3475  0.2685 -0.7190
  116bbb     C2 2894  11.030   8.705   4.428 -0.0510 -0.4641  0.0519
  116bbb     H3 2895  11.066   8.778   4.501  0.2286  0.1227 -0.6536
  116bbb     H4 2896  10.927   8.676   4.451 -0.0905 -1.0299 -0.7898
  116bbb     N1 2897  10.959   8.912   4.306  0.9644  0.5001  0.0911
  116bbb     C3 2898  10.815   8.905   4.334 -0.3302 -0.3138 -0.1254
  116bbb     H5 2899  10.802   8.845   4.425 -1.7792 -0.5040 -0.4275
  116bbb     H6 2900  10.770   8.863   4.243 -1.1764  0.3562 -0.0393
  116bbb     C4 2901  10.983   8.994   4.191  0.1475 -0.2090  0.6056
  116bbb     H7 2902  11.020   8.940   4.103 -1.6531  1.7255 -1.4471
  116bbb     H8 2903  10.893   9.043   4.153 -0.7005 -0.8926  1.6576
  116bbb     C5 2904  11.090   9.093   4.224  0.3623  0.5490  0.4644
  116bbb     H9 2905  11.051   9.175   4.285 -0.3868  0.1385  0.5444
  116bbb    H10 2906  11.183   9.054   4.268 -0.7328 -0.0364  2.3722
  116bbb     C6 2907  10.753   9.044   4.370 -0.1292  0.2663 -0.7468
  116bbb    H11 2908  10.791   9.062   4.471 -1.3841 -0.7774 -0.0626
  116bbb    H12 2909  10.780   9.120   4.295  0.6678 -1.3052 -2.1034
  116bbb     C7 2910  11.130   9.161   4.099 -0.2348  0.3568  0.0242
  116bbb     C8 2911  10.604   9.018   4.379 -0.6184  0.0863  0.3160
  116bbb     O1 2912  11.130   9.110   3.990 -0.5208  0.2388  0.1157
  116bbb     O2 2913  10.547   8.914   4.420 -0.0148  0.6450 -0.1366
  116bbb     N4 2914  11.118   8.586   4.417  0.3244  0.2434 -0.6199
  116bbb    H21 2915  11.163   8.570   4.327  2.6077  0.7176  0.3631
  117bbb     C1 2916  10.854   7.678   4.649  0.4745  0.1526 -0.2606
  117bbb     H1 2917  10.808   7.693   4.550  0.3101 -0.5459 -0.3000
  117bbb     H2 2918  10.782   7.729   4.714 -0.2340  0.1880 -1.0471
  117bbb     C2 2919  10.992   7.738   4.648 -0.1916 -0.5467  0.1072
  117bbb     H3 2920  11.013   7.769   4.752 -0.9007  0.4047 -0.0193
  117bbb     H4 2921  11.066   7.663   4.616  0.9535  1.6025 -2.7099
  117bbb     N1 2922  10.866   7.535   4.680 -0.1325  0.3080  0.1516
  117bbb     C3 2923  10.757   7.496   4.763  0.2080 -0.5147  0.2300
  117bbb     H5 2924  10.747   7.387   4.773  1.0447 -0.5170  1.1895
  117bbb     H6 2925  10.662   7.529   4.718 -0.3192  0.1625  1.7770
  117bbb     C4 2926  10.874   7.457   4.559 -0.4028 -0.7706 -0.0123
  117bbb     H7 2927  10.774   7.435   4.519 -1.4007  0.7527  1.4873
  117bbb     H8 2928  10.945   7.493   4.483  1.0920 -0.0639  1.6325
  117bbb     C5 2929  10.950   7.325   4.599 -0.1133 -0.1930 -0.5986
  117bbb     H9 2930  11.049   7.345   4.641 -0.8644  0.7357  0.8322
  117bbb    H10 2931  10.895   7.247   4.653  1.1501 -0.1291  0.8536
  117bbb     C6 2932  10.768   7.549   4.902 -0.2871  0.1021 -0.9825
  117bbb    H11 2933  10.855   7.506   4.953 -0.9604 -0.2939 -0.1402
  117bbb    H12 2934  10.779   7.658   4.905  0.2002  0.0318  0.0814
  117bbb     C7 2935  10.972   7.256   4.469 -0.6205  0.0864 -0.2194
  117bbb     C8 2936  10.634   7.529   4.973  0.3192  0.4483 -0.5979
  117bbb     O1 2937  10.886   7.187   4.421 -1.2436 -0.8058  0.2438
  117bbb     O2 2938  10.554   7.618   4.988  0.8204  0.1703  0.3248
  117bbb     N4 2939  11.006   7.857   4.559 -0.4355  0.2482  0.3452
  117bbb    H21 2940  10.959   7.945   4.580  0.6621  1.1625 -0.8672
  118bbb     C1 2941  11.927   9.601   1.094  0.6032 -0.5516 -0.8551
  118bbb     H1 2942  11.942   9.709   1.104 -0.6026 -0.3169 -1.3688
  118bbb     H2 2943  11.830   9.581   1.046  0.7993 -2.6669 -0.4579
  118bbb     C2 2944  11.940   9.539   1.235  0.5613 -0.4767  0.2643
  118bbb     H3 2945  11.915   9.434   1.217  2.0399 -0.9078  0.6279
  118bbb     H4 2946  12.041   9.538   1.277  0.2128  0.7369  1.2069
  118bbb     N1 2947  12.016   9.552   0.991 -0.3429  0.2173 -0.6087
  118bbb     C3 2948  12.000   9.409   0.972  0.1024 -0.0987  0.1186
  118bbb     H5 2949  11.903   9.376   1.011  0.1006  0.3693  0.5251
  118bbb     H6 2950  12.084   9.360   1.022  0.6584  0.9642  0.2547
  118bbb     C4 2951  12.146   9.589   1.030 -0.7158 -0.1160  0.2707
  118bbb     H7 2952  12.147   9.682   1.087  2.8152  1.2206 -1.6494
  118bbb     H8 2953  12.197   9.513   1.090 -0.3309 -1.8862 -2.1409
  118bbb     C5 2954  12.238   9.600   0.907  0.1945  0.0635  0.7869
  118bbb     H9 2955  12.278   9.503   0.877  2.1592  1.1809 -0.4191
  118bbb    H10 2956  12.189   9.649   0.822  2.1048  0.7427  0.0146
  118bbb     C6 2957  11.995   9.376   0.824 -0.6057 -0.4352 -0.3038
  118bbb    H11 2958  11.903   9.317   0.812 -1.4109  0.6262  0.4495
  118bbb    H12 2959  11.982   9.471   0.770 -0.9377  1.1872  2.4516
  118bbb     C7 2960  12.360   9.675   0.947 -0.0561 -0.5808  0.3253
  118bbb     C8 2961  12.114   9.295   0.770 -0.0329  0.3026  0.3096
  118bbb     O1 2962  12.460   9.617   0.989  0.3231  0.0274 -0.5194
  118bbb     O2 2963  12.192   9.342   0.693 -0.2370 -0.3390 -0.0458
  118bbb     N4 2964  11.849   9.606   1.325  0.5482 -0.6765  0.7749
  118bbb    H21 2965  11.752   9.607   1.296  0.9937  0.7468 -0.8432
  119bbb     C1 2966  11.163   9.720   2.103  0.2286  0.2970 -0.2963
  119bbb     H1 2967  11.178   9.821   2.145 -0.7226  0.3576 -0.0807
  119bbb     H2 2968  11.244   9.654   2.136  0.2863  1.4573  2.1316
  119bbb     C2 2969  11.156   9.707   1.948 -0.4156 -0.3152 -0.3040
  119bbb     H3 2970  11.133   9.601   1.929 -0.7276  0.3006 -4.2593
  119bbb     H4 2971  11.082   9.771   1.900 -0.2591  0.0651 -0.0421
  119bbb     N1 2972  11.042   9.668   2.162  0.1115  0.2348  0.2824
  119bbb     C3 2973  10.921   9.744   2.121  0.0809 -0.4554 -0.3007
  119bbb     H5 2974  10.915   9.778   2.017 -0.7949  0.0845 -0.0775
  119bbb     H6 2975  10.911   9.833   2.184  1.8873 -0.4916  0.0878
  119bbb     C4 2976  11.054   9.667   2.305 -0.3191  0.3868  0.3014
  119bbb     H7 2977  11.066   9.768   2.344  1.0356  0.2434  0.2937
  119bbb     H8 2978  10.961   9.630   2.351 -0.7495 -1.5552 -1.9277
  119bbb     C5 2979  11.169   9.578   2.350 -0.2485  0.3270  0.6757
  119bbb     H9 2980  11.184   9.485   2.293  0.4965  0.0492  1.3172
  119bbb    H10 2981  11.265   9.631   2.346  0.8648 -1.5953  0.2769
  119bbb     C6 2982  10.805   9.648   2.137  0.3256  0.1818 -0.6643
  119bbb    H11 2983  10.816   9.574   2.057 -0.2757  0.1939 -0.7602
  119bbb    H12 2984  10.801   9.593   2.232 -3.3894  0.1034 -0.7337
  119bbb     C7 2985  11.158   9.544   2.491  0.3669  0.0958  0.1966
  119bbb     C8 2986  10.676   9.717   2.119 -0.7142  0.3278 -0.0260
  119bbb     O1 2987  11.103   9.441   2.534  0.1051  0.1877 -0.6146
  119bbb     O2 2988  10.666   9.831   2.080 -0.2507  0.2878  0.2657
  119bbb     N4 2989  11.290   9.743   1.885  0.1892 -0.1308 -0.1643
  119bbb    H21 2990  11.369   9.756   1.948 -0.3679  2.1275  0.1277
  120bbb     C1 2991  11.242  10.848   2.966  0.4141 -1.0734 -0.4994
  120bbb     H1 2992  11.289  10.788   2.887 -1.2029 -1.9181 -0.8810
  120bbb     H2 2993  11.201  10.777   3.039  0.3687 -0.7776 -0.2342
  120bbb     C2 2994  11.138  10.938   2.902 -0.0096  0.8215 -0.3002
  120bbb     H3 2995  11.070  10.972   2.980  0.4989  0.2679  0.4028
  120bbb     H4 2996  11.201  11.017   2.859  0.9949  0.7307  0.9369
  120bbb     N1 2997  11.340  10.938   3.035  0.3850  0.0572  0.8030
  120bbb     C3 2998  11.463  10.865   3.054 -0.8548  0.0380  0.4932
  120bbb     H5 2999  11.477  10.791   2.974  0.5555  0.3311  0.4413
  120bbb     H6 3000  11.462  10.804   3.145 -0.4175 -2.5792 -1.1855
  120bbb     C4 3001  11.285  10.998   3.155  0.3697  0.1668 -0.8822
  120bbb     H7 3002  11.193  10.950   3.190  1.0130 -1.1439 -0.8870
  120bbb     H8 3003  11.360  10.987   3.235 -0.8579 -0.9558  0.1512
  120bbb     C5 3004  11.281  11.144   3.125  0.6132 -0.1712  0.3012
  120bbb     H9 3005  11.381  11.180   3.099  1.0764 -1.2474  0.5527
  120bbb    H10 3006  11.212  11.167   3.043  1.6165 -1.0548 -0.8131
  120bbb     C6 3007  11.576  10.967   3.042  0.7059  0.5245 -0.2362
  120bbb    H11 3008  11.564  11.016   2.945  1.3474 -0.6476 -0.9272
  120bbb    H12 3009  11.561  11.037   3.125  0.3391  0.7772 -0.5149
  120bbb     C7 3010  11.215  11.212   3.240  0.8291 -0.1389  0.5033
  120bbb     C8 3011  11.703  10.895   3.052 -0.6837 -0.2969 -0.5299
  120bbb     O1 3012  11.096  11.219   3.262  0.1925  0.3067 -0.2513
  120bbb     O2 3013  11.717  10.797   3.124 -0.2376  0.4273 -0.5778
  120bbb     N4 3014  11.073  10.864   2.795  0.3322  0.0391  0.1002
  120bbb    H21 3015  11.123  10.791   2.745  0.8297  0.4293  0.0222
  121bbb     C1 3016  10.488  11.223   2.072  0.3607 -0.1009  0.3050
  121bbb     H1 3017  10.465  11.270   1.975 -0.3652 -1.4354 -0.2017
  121bbb     H2 3018  10.563  11.290   2.115  0.5610  0.5406 -0.9700
  121bbb     C2 3019  10.554  11.085   2.037  0.0618 -0.6145 -0.2699
  121bbb     H3 3020  10.480  11.033   1.976 -2.5501  1.4520  0.9123
  121bbb     H4 3021  10.638  11.111   1.971 -1.8950  1.6763 -2.0444
  121bbb     N1 3022  10.366  11.202   2.144  0.0364  1.1385 -0.4072
  121bbb     C3 3023  10.329  11.326   2.213 -1.1775  0.3537 -0.8733
  121bbb     H5 3024  10.226  11.327   2.250 -0.4491  0.4492  1.2896
  121bbb     H6 3025  10.342  11.412   2.145 -2.6027  0.8591 -0.5253
  121bbb     C4 3026  10.257  11.165   2.054 -0.2176  0.1396 -0.0794
  121bbb     H7 3027  10.198  11.254   2.029 -0.6563 -0.3591 -0.8309
  121bbb     H8 3028  10.306  11.119   1.968  1.8751 -0.1203  1.1760
  121bbb     C5 3029  10.173  11.067   2.124  0.0214  0.1825  0.1166
  121bbb     H9 3030  10.231  10.981   2.158 -0.0829 -0.5375 -1.4268
  121bbb    H10 3031  10.124  11.113   2.211 -2.1367  1.2154 -1.5170
  121bbb     C6 3032  10.420  11.339   2.333  0.1603  0.7952  0.5760
  121bbb    H11 3033  10.392  11.253   2.396 -1.2294  2.7173  2.7627
  121bbb    H12 3034  10.529  11.346   2.323  0.0692  0.7792 -0.5301
  121bbb     C7 3035  10.063  11.019   2.032  0.5461  0.0720  0.5591
  121bbb     C8 3036  10.375  11.459   2.416 -0.0945  0.1076  0.3532
  121bbb     O1 3037  10.046  11.073   1.921  0.1929  0.2513 -0.5191
  121bbb     O2 3038  10.279  11.532   2.402  0.8548  0.2991  0.0650
  121bbb     N4 3039  10.601  11.008   2.152 -0.5249  0.1311 -0.3298
  121bbb    H21 3040  10.625  11.056   2.238  1.9329 -0.5567 -0.5579
  122bbb     C1 3041  13.241  10.179   3.863  0.3873  0.6413  0.6219
  122bbb     H1 3042  13.243  10.286   3.889  0.8833  0.7260  0.2415
  122bbb     H2 3043  13.134  10.158   3.852  0.8088 -0.7690 -1.1655
  122bbb     C2 3044  13.297  10.099   3.977 -0.0402  0.3682  0.1117
  122bbb     H3 3045  13.386  10.148   4.018 -0.3958  0.7743  0.3987
  122bbb     H4 3046  13.226  10.101   4.061  1.4223  2.0732  1.3766
  122bbb     N1 3047  13.315  10.153   3.734 -0.0625 -0.1757 -0.7159
  122bbb     C3 3048  13.459  10.192   3.738  0.1609  0.0600 -0.0070
  122bbb     H5 3049  13.515  10.162   3.828 -0.3682  3.3704  1.5744
  122bbb     H6 3050  13.477  10.300   3.729  1.6521 -0.3436 -3.3357
  122bbb     C4 3051  13.246  10.227   3.621 -0.1350 -0.4706  0.6758
  122bbb     H7 3052  13.233  10.330   3.656 -1.0416 -0.7560  1.2154
  122bbb     H8 3053  13.313  10.228   3.534  1.3071  0.0143  1.7638
  122bbb     C5 3054  13.111  10.168   3.576 -0.2898  0.1173  0.7440
  122bbb     H9 3055  13.130  10.062   3.558 -1.3262 -0.0079  0.2986
  122bbb    H10 3056  13.043  10.175   3.662 -0.3177 -1.3167  0.8548
  122bbb     C6 3057  13.543  10.116   3.638  0.2092  0.4343  0.5693
  122bbb    H11 3058  13.592  10.026   3.677  0.3085 -0.4905 -1.5680
  122bbb    H12 3059  13.481  10.080   3.555  0.1473  0.0630  0.7744
  122bbb     C7 3060  13.058  10.235   3.457  0.2056 -0.8412 -0.2946
  122bbb     C8 3061  13.659  10.194   3.583 -0.8320  0.3434  0.1284
  122bbb     O1 3062  13.136  10.278   3.370 -0.4169  0.0449  0.2391
  122bbb     O2 3063  13.651  10.312   3.585 -0.0207 -0.0841  0.1812
  122bbb     N4 3064  13.328   9.955   3.947  0.2574  0.2117  0.0836
  122bbb    H21 3065  13.377   9.928   3.862 -0.7685 -1.1088 -0.1285
  123bbb     C1 3066  13.043   8.927   3.664  0.1015  0.7108 -0.5850
  123bbb     H1 3067  12.981   8.840   3.686  0.7640  1.0372  3.2626
  123bbb     H2 3068  13.140   8.920   3.715 -0.5608 -0.5820  0.5555
  123bbb     C2 3069  12.960   9.041   3.731  0.2036 -0.7856  0.5281
  123bbb     H3 3070  12.854   9.030   3.706 -0.1056  0.9634  0.8789
  123bbb     H4 3071  12.974   9.027   3.839  3.1761  1.3532  0.5349
  123bbb     N1 3072  13.050   8.931   3.515  0.6524 -0.4410 -0.6402
  123bbb     C3 3073  13.128   8.810   3.476  0.1389 -0.3030 -0.0434
  123bbb     H5 3074  13.112   8.775   3.374 -0.6784 -3.7852  1.1337
  123bbb     H6 3075  13.091   8.724   3.532  3.3126 -0.6173  1.8392
  123bbb     C4 3076  12.927   8.943   3.433 -0.2629 -0.1923 -0.3154
  123bbb     H7 3077  12.892   8.840   3.417 -0.0008 -0.5684  1.2933
  123bbb     H8 3078  12.843   8.991   3.485 -1.3788  0.4292 -2.5614
  123bbb     C5 3079  12.960   8.994   3.291  0.5373  0.7987 -0.1366
  123bbb     H9 3080  12.977   9.103   3.289  0.3247  0.8425 -2.2560
  123bbb    H10 3081  13.043   8.942   3.242  0.8399  1.3897 -0.2575
  123bbb     C6 3082  13.277   8.825   3.505  0.4618 -0.0907 -0.0267
  123bbb    H11 3083  13.325   8.921   3.483  2.5829 -0.6809  1.7130
  123bbb    H12 3084  13.294   8.807   3.612 -1.2777  1.0716  0.5024
  123bbb     C7 3085  12.843   8.981   3.196  0.3767 -0.0792 -0.6894
  123bbb     C8 3086  13.352   8.725   3.429 -0.3780  0.5604 -0.3480
  123bbb     O1 3087  12.757   9.070   3.171 -0.0264 -0.4792  0.0898
  123bbb     O2 3088  13.298   8.650   3.350  0.6214  0.2140  0.5446
  123bbb     N4 3089  13.007   9.176   3.698  0.7126  0.2795 -0.4254
  123bbb    H21 3090  12.980   9.223   3.612  0.4459  0.0762 -0.4561
  124bbb     C1 3091  12.416  11.134   2.975  0.6901 -0.4458 -0.0394
  124bbb     H1 3092  12.397  11.052   3.046  0.2189  1.6086  2.3407
  124bbb     H2 3093  12.388  11.106   2.873  0.7717  1.5056 -0.6388
  124bbb     C2 3094  12.566  11.181   2.983 -0.2570  0.7088  0.5551
  124bbb     H3 3095  12.592  11.232   2.890  2.2982  0.9724  1.3400
  124bbb     H4 3096  12.575  11.265   3.054 -0.1868  0.4084  0.9037
  124bbb     N1 3097  12.327  11.242   3.016  0.4387  0.9228  0.5619
  124bbb     C3 3098  12.243  11.210   3.131  0.7506  0.3564  0.5944
  124bbb     H5 3099  12.186  11.120   3.106 -1.0831  0.8100  2.8129
  124bbb     H6 3100  12.170  11.292   3.140  1.5654  1.1351  0.3293
  124bbb     C4 3101  12.248  11.298   2.907 -0.6280  0.5334 -0.1134
  124bbb     H7 3102  12.181  11.218   2.873 -0.8319  0.6751 -0.0472
  124bbb     H8 3103  12.172  11.367   2.946 -0.7544  0.6411 -0.5447
  124bbb     C5 3104  12.331  11.366   2.797 -0.2076  0.0298  0.9511
  124bbb     H9 3105  12.380  11.459   2.829 -0.5845  0.2322  0.9429
  124bbb    H10 3106  12.405  11.307   2.741 -0.3671  0.0414  0.7269
  124bbb     C6 3107  12.319  11.179   3.260 -0.3813 -0.4290 -0.7463
  124bbb    H11 3108  12.381  11.090   3.245 -1.0112 -0.6464 -2.2552
  124bbb    H12 3109  12.390  11.258   3.289 -1.3394 -0.3736  1.6673
  124bbb     C7 3110  12.226  11.413   2.695  0.2341  0.1940  0.1406
  124bbb     C8 3111  12.218  11.165   3.372 -0.1683 -0.5881 -0.0792
  124bbb     O1 3112  12.115  11.445   2.721  0.0775 -0.1859 -0.4237
  124bbb     O2 3113  12.149  11.259   3.410  0.0447 -0.2035  0.8664
  124bbb     N4 3114  12.659  11.069   3.028 -0.1658 -0.1874  0.3363
  124bbb    H21 3115  12.640  11.012   3.109 -1.9641  0.2915  0.3045
  125bbb     C1 3116  13.307  10.342   2.791  0.0349 -0.2978  0.0371
  125bbb     H1 3117  13.349  10.322   2.890  2.5471  0.1960 -0.8375
  125bbb     H2 3118  13.321  10.448   2.766 -1.1301 -0.5992 -2.1928
  125bbb     C2 3119  13.160  10.314   2.771  0.2809 -0.1562 -0.4535
  125bbb     H3 3120  13.150  10.342   2.665  1.2310 -1.1957 -0.8439
  125bbb     H4 3121  13.135  10.208   2.785 -1.0622  0.2805  0.7183
  125bbb     N1 3122  13.385  10.266   2.690 -0.8863 -0.2669 -0.2605
  125bbb     C3 3123  13.531  10.310   2.684 -0.4444  0.4798 -0.2464
  125bbb     H5 3124  13.583  10.242   2.616  0.4709 -0.4463  1.2960
  125bbb     H6 3125  13.578  10.305   2.783  3.0235  1.5443 -1.6865
  125bbb     C4 3126  13.361  10.122   2.666 -0.2700  0.5029  0.3524
  125bbb     H7 3127  13.256  10.101   2.639 -0.5068  0.6603  1.1042
  125bbb     H8 3128  13.421  10.084   2.583  0.6881  1.5168  0.5591
  125bbb     C5 3129  13.387  10.036   2.788 -0.0600  0.2551 -0.5085
  125bbb     H9 3130  13.481  10.059   2.839 -0.0879 -1.7831  0.5580
  125bbb    H10 3131  13.303  10.049   2.857  1.9457  0.0154  2.1239
  125bbb     C6 3132  13.542  10.451   2.627  0.6525  0.7648 -0.3603
  125bbb    H11 3133  13.464  10.459   2.549  0.6712  1.3939 -0.3206
  125bbb    H12 3134  13.526  10.534   2.696 -2.1214  1.1698 -1.3572
  125bbb     C7 3135  13.385   9.895   2.747 -0.6799  0.0014 -0.4282
  125bbb     C8 3136  13.680  10.464   2.579 -0.2793  0.3978  0.1194
  125bbb     O1 3137  13.294   9.842   2.690 -0.0272  0.1398  0.0894
  125bbb     O2 3138  13.780  10.452   2.644 -0.3415 -0.6896 -0.4570
  125bbb     N4 3139  13.069  10.403   2.854 -0.2977 -0.1286  0.3668
  125bbb    H21 3140  13.113  10.456   2.929  1.0451  0.3333 -0.7035
  126ccc     N1 3141  11.959  11.626   0.284 -0.2708  0.5360  0.5368
  126ccc     H4 3142  11.924  11.607   0.377 -0.0588 -0.1411  0.4911
  126ccc     C3 3143  12.007  11.758   0.258  0.1787  0.4592 -0.1018
  126ccc     H5 3144  12.030  11.770   0.152 -0.1845 -0.6883 -0.3146
  126ccc     C4 3145  12.132  11.796   0.346  0.0697  0.3203 -0.6879
  126ccc     H6 3146  11.927  11.830   0.283  2.0099  2.5859 -0.0130
  126ccc     H7 3147  12.098  11.789   0.450  1.7206  1.5625 -0.0250
  126ccc     H8 3148  12.155  11.898   0.314  0.6226 -0.8548 -4.5061
  126ccc     N2 3149  12.251  11.713   0.326 -0.1835  0.4728 -0.2982
  126ccc     C5 3150  12.308  11.739   0.191 -0.4607 -0.1364  0.2577
  126ccc     C6 3151  12.337  11.721   0.441  0.0188  0.2840  0.1511
  126ccc     H9 3152  12.365  11.821   0.474 -0.5135 -0.4617  3.1274
  126ccc     C7 3153  12.459  11.632   0.414  0.1438  0.5392  0.5676
  126ccc    H10 3154  12.278  11.675   0.522  0.8473 -1.8301 -0.3688
  126ccc    H11 3155  12.528  11.662   0.334 -0.1522 -1.6554 -0.5833
  126ccc    H12 3156  12.414  11.533   0.405 -3.1660  1.9258  0.4379
  126ccc     C8 3157  12.553  11.624   0.527 -0.2879  1.4523  0.6023
  126ccc     O2 3158  12.557  11.700   0.617 -0.0112 -0.1746 -0.3082
  126ccc    H13 3159  12.395  11.805   0.202  0.3409 -0.9973 -0.7963
  126ccc    H14 3160  12.237  11.785   0.121  0.4552  1.2029  0.1618
  126ccc     C9 3161  12.344  11.604   0.124  0.6868 -0.1570  0.2538
  126ccc    H15 3162  12.245  11.566   0.097 -0.8879  2.9363  1.1305
  126ccc    H16 3163  12.388  11.527   0.188  0.6457  0.0465  0.5300
  126ccc    C10 3164  12.438  11.628   0.008 -0.3696  0.3137 -0.4727
  126ccc     O4 3165  12.408  11.674  -0.099  0.6503  0.4499  0.2165
  126ccc    C11 3166  12.786  11.414   0.928 -0.2098  0.1749  0.3232
  126ccc    C12 3167  12.671  11.329   0.869 -0.5245 -0.3264  0.0952
  126ccc    H17 3168  12.741  11.500   0.979 -1.7529 -0.2597 -0.2460
  126ccc    C13 3169  12.600  11.397   0.746 -0.5841  0.0524  0.0484
  126ccc    C14 3170  12.704  11.450   0.645  0.1713 -0.2089  0.3990
  126ccc    C15 3171  12.803  11.540   0.724 -0.0210 -0.2764  0.2141
  126ccc    H18 3172  12.752  11.356   0.614 -1.6857 -1.1738  0.3159
  126ccc    H19 3173  12.551  11.487   0.786  0.2681  0.3165  0.5268
  126ccc    H20 3174  12.750  11.626   0.767  0.6317 -0.1046  0.6906
  126ccc     O1 3175  12.921  11.583   0.655  0.0375  0.6813  0.0489
  126ccc     O6 3176  12.507  11.299   0.692 -0.0241  0.0516  0.0265
  126ccc    C16 3177  12.869  11.337   1.030 -0.6585 -0.1044  0.5619
  126ccc    H21 3178  12.555  11.225   0.649  0.4134 -0.6571  1.6530
  126ccc    H22 3179  12.625  11.458   0.436  2.6469  1.5825 -1.3301
  126ccc    H23 3180  12.895  11.240   0.985  0.3662  0.6670 -0.5619
  126ccc    H24 3181  12.811  11.317   1.121  0.8821  1.8565  2.0536
  126ccc     O7 3182  12.985  11.413   1.070  0.1483  0.0106 -0.1135
  126ccc    H25 3183  13.052  11.346   1.091 -0.2916 -0.0877  1.0712
  126ccc     O8 3184  12.870  11.459   0.815  0.6669 -0.3504 -0.6253
  126ccc    H26 3185  12.956  11.501   0.615 -2.9708 -0.2852 -0.8295
  126ccc    H27 3186  12.714  11.232   0.841 -0.3374 -0.0311 -0.6702
  126ccc     O9 3187  12.580  11.310   0.973  0.2688  0.5569 -0.5250
  126ccc    H28 3188  12.571  11.213   0.978  1.7603  0.4484  0.9210
  126ccc     N3 3189  12.627  11.511   0.523 -0.2950 -0.6883  0.2887
  126ccc    C17 3190  12.779  11.596  -0.354  0.1211  0.0293 -0.3965
  126ccc    C18 3191  12.798  11.719  -0.262  0.2536  0.3861  0.0710
  126ccc    H29 3192  12.690  11.616  -0.414  0.2486 -2.3883 -1.5089
  126ccc    C19 3193  12.696  11.733  -0.145 -0.1152 -0.3405  0.0032
  126ccc    C20 3194  12.669  11.588  -0.077 -0.7155 -0.8272 -0.6123
  126ccc    C21 3195  12.648  11.478  -0.182 -0.0787 -0.1297  0.9399
  126ccc    H30 3196  12.766  11.570  -0.030 -0.5460 -0.3327 -0.7619
  126ccc    H31 3197  12.599  11.773  -0.176  0.4636  0.2278 -1.1518
  126ccc    H32 3198  12.561  11.512  -0.238  0.2471 -0.4418  0.2334
  126ccc    O10 3199  12.639  11.351  -0.129  0.2296  0.5390 -0.4154
  126ccc    O11 3200  12.759  11.818  -0.050 -0.0699  0.2564 -0.0184
  126ccc    C22 3201  12.901  11.571  -0.453  0.2626  0.3372  0.0708
  126ccc    H33 3202  12.691  11.827   0.019 -1.8244  0.7925 -1.7066
  126ccc    H34 3203  12.581  11.528   0.109 -1.1966 -1.1655 -0.8621
  126ccc    H35 3204  12.992  11.541  -0.400 -0.7453 -1.1506  1.0544
  126ccc    H36 3205  12.934  11.665  -0.499  0.1356 -0.0241 -0.7862
  126ccc    O12 3206  12.868  11.472  -0.555 -0.3307  0.0020 -0.4727
  126ccc    H37 3207  12.792  11.509  -0.603  0.7094  3.2320  0.1453
  126ccc    O13 3208  12.765  11.477  -0.273  0.2851 -0.0342 -0.2065
  126ccc    H38 3209  12.727  11.332  -0.091 -0.1857 -1.5648 -0.3791
  126ccc    H39 3210  12.895  11.695  -0.219 -0.3500 -3.1952 -0.2720
  126ccc     O5 3211  12.819  11.836  -0.332  0.5391  0.6427 -0.3090
  126ccc    H40 3212  12.840  11.893  -0.256  1.6806  1.1995 -1.0196
  126ccc     N4 3213  12.565  11.598   0.036  0.1298 -0.0202 -0.1186
  127ccc     N1 3214  11.908  10.923   0.287 -0.2006  0.0253  0.3898
  127ccc     H4 3215  11.867  11.014   0.303 -1.0096 -0.3160  0.3010
  127ccc     C3 3216  11.826  10.812   0.225 -0.9564 -0.7610  0.0652
  127ccc     H5 3217  11.885  10.719   0.223  1.6435  0.7258  1.7884
  127ccc     C4 3218  11.779  10.848   0.080 -0.1851  0.9243  0.3446
  127ccc     H6 3219  11.742  10.794   0.292 -0.9518  0.9605  0.5767
  127ccc     H7 3220  11.864  10.889   0.024  2.1168 -2.5524  1.0019
  127ccc     H8 3221  11.699  10.923   0.085 -1.6026 -0.5358  0.8746
  127ccc     N2 3222  11.730  10.725   0.007 -0.2577 -0.3680 -0.0053
  127ccc     C5 3223  11.600  10.683   0.056  0.1049 -0.2449  0.6766
  127ccc     C6 3224  11.746  10.731  -0.135 -0.3871 -0.5898  0.9987
  127ccc     H9 3225  11.674  10.804  -0.176  1.5292 -0.0751 -1.7166
  127ccc     C7 3226  11.726  10.595  -0.211  0.3662  0.6066 -0.2215
  127ccc    H10 3227  11.844  10.775  -0.158 -1.0321  0.5409  0.2779
  127ccc    H11 3228  11.620  10.563  -0.209  1.0340 -1.8242  1.6592
  127ccc    H12 3229  11.798  10.527  -0.163  0.0528  0.9180  0.7156
  127ccc     C8 3230  11.768  10.632  -0.354  0.0250 -0.3452  0.0756
  127ccc     O2 3231  11.739  10.740  -0.412 -0.3979 -0.1207 -0.5555
  127ccc    H13 3232  11.607  10.674   0.165 -0.9567  0.1692  0.7928
  127ccc    H14 3233  11.579  10.584   0.014  0.9662 -0.2777  0.3024
  127ccc     C9 3234  11.480  10.775   0.028 -0.4767  0.7729 -0.3191
  127ccc    H15 3235  11.464  10.785  -0.080  0.4166 -0.4106 -0.5900
  127ccc    H16 3236  11.490  10.879   0.061  0.1297  1.5690 -2.7513
  127ccc    C10 3237  11.352  10.721   0.085 -0.5402  0.5314  0.0160
  127ccc     O4 3238  11.336  10.631   0.161  0.5875  0.6529  0.0704
  127ccc    C11 3239  11.991  10.686  -0.784 -0.0070 -1.0427 -0.1557
  127ccc    C12 3240  12.099  10.655  -0.677 -0.0316 -0.2978 -0.3474
  127ccc    H17 3241  11.949  10.785  -0.763  0.9623 -1.0543  2.1946
  127ccc    C13 3242  12.024  10.621  -0.542  0.0541 -0.3149  0.3145
  127ccc    C14 3243  11.902  10.530  -0.546  0.3216  0.2699 -0.0261
  127ccc    C15 3244  11.806  10.569  -0.664 -0.5807 -0.4334  0.5591
  127ccc    H18 3245  11.934  10.429  -0.572  0.8736  0.5981 -0.6427
  127ccc    H19 3246  11.994  10.720  -0.508 -0.0745  0.0123 -0.7329
  127ccc    H20 3247  11.765  10.669  -0.653 -0.4643 -0.2975 -0.2109
  127ccc     O1 3248  11.716  10.458  -0.678  0.7361  0.1783  0.3091
  127ccc     O6 3249  12.126  10.573  -0.449  0.3486 -0.4785 -0.4697
  127ccc    C16 3250  12.049  10.693  -0.927  0.3887  0.5188 -0.9396
  127ccc    H21 3251  12.192  10.644  -0.447 -0.0362 -0.1468  0.3874
  127ccc    H22 3252  11.884  10.462  -0.350 -0.8638 -1.3791 -0.3989
  127ccc    H23 3253  12.148  10.740  -0.930  0.6185  0.1034 -0.1037
  127ccc    H24 3254  11.981  10.748  -0.993  0.7576  1.6564 -0.4145
  127ccc     O7 3255  12.075  10.559  -0.966 -0.0333  0.2146  0.5329
  127ccc    H25 3256  11.996  10.520  -1.007  0.8664 -0.6752 -0.4342
  127ccc     O8 3257  11.887  10.588  -0.785 -0.4836 -0.6635 -0.0709
  127ccc    H26 3258  11.736  10.443  -0.772  3.4995  0.2575  0.8141
  127ccc    H27 3259  12.158  10.571  -0.714  1.0402 -0.6015  1.8523
  127ccc     O9 3260  12.198  10.762  -0.650 -0.5050 -0.3543 -0.1966
  127ccc    H28 3261  12.287  10.735  -0.679 -0.0522 -0.8151  1.5210
  127ccc     N3 3262  11.845  10.537  -0.408  0.7379 -0.1125  0.0761
  127ccc    C17 3263  10.960  11.035   0.246 -0.4280 -0.4320  0.1277
  127ccc    C18 3264  10.908  10.945   0.135  0.6671  0.1228 -0.0340
  127ccc    H29 3265  11.001  11.125   0.198  0.8001 -0.8833  0.2996
  127ccc    C19 3266  11.019  10.883   0.049  0.2495  0.9321 -0.1614
  127ccc    C20 3267  11.133  10.829   0.130  0.4430  0.0095  0.2944
  127ccc    C21 3268  11.181  10.931   0.237  0.3136 -0.0961  0.6274
  127ccc    H30 3269  11.103  10.739   0.186  1.4495  0.0639  0.9536
  127ccc    H31 3270  11.058  10.958  -0.021 -2.4731 -0.8451 -3.9530
  127ccc    H32 3271  11.220  11.024   0.194  0.5904 -0.6297 -0.2891
  127ccc    O10 3272  11.266  10.870   0.331  0.4071  0.3128  0.6956
  127ccc    O11 3273  10.965  10.768  -0.028 -0.3008 -0.3231  0.3640
  127ccc    C22 3274  10.852  11.073   0.352  0.1486  0.5554  0.0991
  127ccc    H33 3275  11.022  10.762  -0.107  1.0297 -0.0607  1.2658
  127ccc    H34 3276  11.263  10.866  -0.016  0.7848  1.6907  2.6052
  127ccc    H35 3277  10.786  11.150   0.310 -1.8834 -1.1756 -0.0233
  127ccc    H36 3278  10.903  11.109   0.442  3.0080 -0.7323 -0.9030
  127ccc    O12 3279  10.760  10.969   0.387 -0.5551 -0.8831 -0.5552
  127ccc    H37 3280  10.811  10.889   0.411 -1.0790 -1.1238 -0.2027
  127ccc    O13 3281  11.064  10.966   0.317  0.1319  0.4128  0.2107
  127ccc    H38 3282  11.199  10.831   0.390  1.4789  0.9527  2.4039
  127ccc    H39 3283  10.852  10.867   0.188  1.3503  0.3114  0.9887
  127ccc     O5 3284  10.828  11.022   0.041 -0.4020  0.4748 -0.3335
  127ccc    H40 3285  10.839  10.993  -0.051 -0.5345 -0.1794 -0.1489
  127ccc     N4 3286  11.244  10.786   0.045 -0.0371 -0.1966  0.0468
  128ccc     N1 3287  12.705  11.754   0.971 -0.0278  0.0803 -0.4743
  128ccc     H4 3288  12.650  11.695   1.031 -0.9004  0.2887 -1.0429
  128ccc     C3 3289  12.844  11.767   1.007  0.1181 -0.0881  0.1806
  128ccc     H5 3290  12.885  11.666   1.015  0.1300 -0.2378 -1.3633
  128ccc     C4 3291  12.861  11.844   1.142 -0.0308  0.1929  0.6510
  128ccc     H6 3292  12.914  11.812   0.935 -0.1203 -0.1951 -0.1238
  128ccc     H7 3293  12.822  11.945   1.123 -0.8655  0.0722  1.6252
  128ccc     H8 3294  12.967  11.860   1.166 -0.0287 -2.4211  2.9028
  128ccc     N2 3295  12.803  11.784   1.260  0.3829  0.4301  0.2320
  128ccc     C5 3296  12.658  11.805   1.289 -0.1188 -0.0037  0.0370
  128ccc     C6 3297  12.838  11.641   1.279 -0.1821 -0.0201 -0.8405
  128ccc     H9 3298  12.775  11.602   1.360  0.9963  3.4012  1.9874
  128ccc     C7 3299  12.979  11.636   1.343 -0.4068  0.2872  0.2017
  128ccc    H10 3300  12.817  11.583   1.189  2.8845 -0.8869 -1.0984
  128ccc    H11 3301  12.989  11.700   1.431 -0.1863  0.0196  0.3713
  128ccc    H12 3302  13.054  11.673   1.272 -0.9860 -0.3773 -0.7948
  128ccc     C8 3303  13.014  11.499   1.393  0.2279  0.0155  0.1990
  128ccc     O2 3304  12.942  11.421   1.452 -0.0174  0.3154 -0.1272
  128ccc    H13 3305  12.631  11.751   1.380  0.2991  0.9152  0.7223
  128ccc    H14 3306  12.599  11.763   1.207 -1.0381  1.9748 -0.3911
  128ccc     C9 3307  12.627  11.949   1.307  0.2969  0.2701  0.2965
  128ccc    H15 3308  12.638  12.007   1.215  0.0064  0.8271  0.6033
  128ccc    H16 3309  12.685  12.001   1.385  0.0817  2.5186 -0.9527
  128ccc    C10 3310  12.476  11.954   1.357  0.0215  0.7334 -0.0575
  128ccc     O4 3311  12.400  11.861   1.374  0.2670 -0.7871 -0.5466
  128ccc    C11 3312  13.438  11.169   1.365  0.2851  0.2424  0.3668
  128ccc    C12 3313  13.442  11.264   1.485 -0.3552 -0.8266  0.5269
  128ccc    H17 3314  13.493  11.225   1.289 -0.3340 -0.0005 -0.2703
  128ccc    C13 3315  13.364  11.392   1.456  0.5058 -0.2967  0.5064
  128ccc    C14 3316  13.220  11.355   1.410 -0.0938 -1.0138  0.2968
  128ccc    C15 3317  13.237  11.266   1.280 -0.2286  0.4336  0.6416
  128ccc    H18 3318  13.159  11.294   1.477  0.5929  0.4723  2.3687
  128ccc    H19 3319  13.414  11.438   1.370 -1.3883  1.3989  0.2214
  128ccc    H20 3320  13.290  11.309   1.194 -2.1732  1.0115 -0.3562
  128ccc     O1 3321  13.108  11.225   1.245 -0.0817  0.0022  0.0054
  128ccc     O6 3322  13.365  11.474   1.572  0.0024  0.3696  0.3282
  128ccc    C16 3323  13.495  11.034   1.411 -0.5963 -0.2145  0.2755
  128ccc    H21 3324  13.327  11.561   1.549  0.0609  0.2425 -0.2602
  128ccc    H22 3325  13.202  11.551   1.344  0.2240 -0.4627 -0.4415
  128ccc    H23 3326  13.432  10.995   1.492 -0.7505  1.1692  0.8457
  128ccc    H24 3327  13.601  11.042   1.441 -0.4476 -0.6440 -0.1231
  128ccc     O7 3328  13.483  10.943   1.302 -0.2100  0.7261 -0.4030
  128ccc    H25 3329  13.532  10.864   1.332 -0.9583  0.5315  0.3609
  128ccc     O8 3330  13.303  11.146   1.317  0.3545 -0.9603 -0.8545
  128ccc    H26 3331  13.093  11.154   1.310 -1.1077  1.6614  1.6896
  128ccc    H27 3332  13.401  11.205   1.568 -1.1890  1.0408  1.5011
  128ccc     O9 3333  13.574  11.307   1.510 -0.1173  0.2230  0.5000
  128ccc    H28 3334  13.572  11.379   1.576 -0.4000 -0.5380  1.3356
  128ccc     N3 3335  13.146  11.478   1.388  0.4951 -0.4457 -0.0582
  128ccc    C17 3336  12.484  12.476   1.256 -0.5068 -0.0075 -0.8268
  128ccc    C18 3337  12.535  12.441   1.399 -0.4898 -0.6197  0.0059
  128ccc    H29 3338  12.377  12.493   1.272 -0.7393 -2.2657  0.5984
  128ccc    C19 3339  12.485  12.309   1.449  0.3976 -0.2361  0.3163
  128ccc    C20 3340  12.500  12.201   1.338  0.3721 -0.2631 -0.4508
  128ccc    C21 3341  12.437  12.244   1.202 -0.1011  0.6203 -0.5538
  128ccc    H30 3342  12.608  12.191   1.317  0.0806 -0.6944 -1.7889
  128ccc    H31 3343  12.380  12.327   1.473  0.2682 -1.2382  0.5619
  128ccc    H32 3344  12.332  12.255   1.230  0.2564 -0.1444  1.2309
  128ccc    O10 3345  12.466  12.144   1.102  0.2910 -0.4722  0.3636
  128ccc    O11 3346  12.565  12.263   1.556 -0.2771  0.0034  0.0551
  128ccc    C22 3347  12.547  12.609   1.205  0.2502  0.0196  0.0336
  128ccc    H33 3348  12.524  12.183   1.591 -2.5151  0.8717 -0.4036
  128ccc    H34 3349  12.333  12.084   1.411  0.3445 -4.4021  1.0134
  128ccc    H35 3350  12.509  12.688   1.271  0.8662 -1.7465  2.6946
  128ccc    H36 3351  12.523  12.632   1.101  1.5762  0.9553 -0.0866
  128ccc    O12 3352  12.690  12.608   1.208  0.8002 -0.4093  0.0598
  128ccc    H37 3353  12.722  12.542   1.144  1.4710 -1.7630  1.6883
  128ccc    O13 3354  12.499  12.369   1.161 -0.0711  0.5771  0.1060
  128ccc    H38 3355  12.558  12.165   1.078 -0.2210  0.3532 -0.9997
  128ccc    H39 3356  12.644  12.429   1.398 -0.2297  1.3992 -0.0821
  128ccc     O5 3357  12.495  12.549   1.484 -0.1729 -0.4333  0.1014
  128ccc    H40 3358  12.504  12.520   1.576  1.6228 -0.1293  0.0585
  128ccc     N4 3359  12.431  12.078   1.383  0.4861  0.4235 -0.2628
  129ccc     N1 3360  12.214  12.193   0.957 -0.4175  0.2994 -0.0392
  129ccc     H4 3361  12.306  12.156   0.977  0.3701  2.1681 -0.0143
  129ccc     C3 3362  12.197  12.306   0.865  0.2084 -0.2131 -0.6051
  129ccc     H5 3363  12.092  12.335   0.850  0.0601 -0.1277  0.4788
  129ccc     C4 3364  12.263  12.293   0.728 -0.2867  0.1071 -0.1171
  129ccc     H6 3365  12.243  12.398   0.904 -1.1135 -0.3527  1.4776
  129ccc     H7 3366  12.368  12.299   0.761  0.2050  0.1403 -1.6440
  129ccc     H8 3367  12.238  12.381   0.667 -1.2691  0.1995  0.3992
  129ccc     N2 3368  12.240  12.163   0.669 -1.0469 -0.4808  0.2099
  129ccc     C5 3369  12.106  12.154   0.632  0.1108 -0.1546 -0.6958
  129ccc     C6 3370  12.336  12.146   0.553 -0.2508  0.2874 -1.2309
  129ccc     H9 3371  12.295  12.074   0.481  1.8675 -4.0744  1.5292
  129ccc     C7 3372  12.476  12.087   0.610 -0.3401 -0.0381  0.9319
  129ccc    H10 3373  12.355  12.244   0.508  1.4324  0.9581  0.7986
  129ccc    H11 3374  12.461  11.985   0.648 -2.4148  0.9773  3.0818
  129ccc    H12 3375  12.506  12.145   0.697  1.1320  1.2741 -0.3955
  129ccc     C8 3376  12.588  12.097   0.514  0.0290  0.4942  0.2848
  129ccc     O2 3377  12.644  12.203   0.474 -0.0956 -0.1109 -0.1736
  129ccc    H13 3378  12.093  12.239   0.564  1.6519  1.6119  1.1081
  129ccc    H14 3379  12.037  12.174   0.714  0.4246 -1.0357 -0.1976
  129ccc     C9 3380  12.051  12.034   0.569  0.0584 -0.3926  0.0742
  129ccc    H15 3381  12.119  11.956   0.606 -0.7850 -1.0678  0.2482
  129ccc    H16 3382  12.052  12.034   0.459  0.7640  2.5854 -0.0049
  129ccc    C10 3383  11.909  12.007   0.614  0.7307 -0.4379 -0.1987
  129ccc     O4 3384  11.824  12.092   0.610  0.3317 -0.0889  0.0412
  129ccc    C11 3385  13.012  11.792   0.367 -0.6789 -0.2018  0.1301
  129ccc    C12 3386  12.915  11.827   0.256 -0.3400 -0.4133 -0.2865
  129ccc    H17 3387  13.003  11.686   0.394 -0.9903 -0.4377 -0.8859
  129ccc    C13 3388  12.772  11.853   0.311 -0.0650 -0.3426  0.1236
  129ccc    C14 3389  12.772  11.957   0.424  0.7784  0.1687  0.3302
  129ccc    C15 3390  12.872  11.900   0.530 -0.4004 -0.8164  0.0607
  129ccc    H18 3391  12.802  12.057   0.390 -2.8317  0.4202 -2.7463
  129ccc    H19 3392  12.732  11.761   0.355 -0.7326  0.5855  1.5374
  129ccc    H20 3393  12.830  11.803   0.560 -0.7874 -0.3101  1.2154
  129ccc     O1 3394  12.883  11.977   0.642 -0.1814  0.3271 -0.5899
  129ccc     O6 3395  12.670  11.898   0.211  0.2217  0.6975 -0.3818
  129ccc    C16 3396  13.153  11.808   0.303  0.1268 -0.4870 -0.3813
  129ccc    H21 3397  12.646  11.989   0.235  0.4163  0.5653  0.3404
  129ccc    H22 3398  12.582  11.901   0.526 -0.6492 -0.1664 -1.0448
  129ccc    H23 3399  13.164  11.914   0.279 -0.8832 -1.0055 -3.4994
  129ccc    H24 3400  13.160  11.748   0.211  0.9079  0.7233 -1.1346
  129ccc     O7 3401  13.262  11.774   0.402  0.1329  0.5547 -0.4926
  129ccc    H25 3402  13.347  11.802   0.365 -0.1224  1.0707 -0.6932
  129ccc     O8 3403  13.002  11.886   0.471 -0.4366  0.5381  0.4765
  129ccc    H26 3404  12.837  11.932   0.715 -0.7834 -1.0271 -1.7571
  129ccc    H27 3405  12.941  11.924   0.211 -1.9485  0.3729  0.3737
  129ccc     O9 3406  12.913  11.723   0.163  0.1240  0.2994  0.1783
  129ccc    H28 3407  12.869  11.759   0.084 -0.8551 -0.5433  0.3165
  129ccc     N3 3408  12.637  11.978   0.486 -0.5035  0.1698 -0.2158
  129ccc    C17 3409  11.520  11.661   0.629 -0.0035 -0.0590  0.8661
  129ccc    C18 3410  11.562  11.706   0.773 -0.4733  0.7150  1.3177
  129ccc    H29 3411  11.565  11.562   0.614  0.1164  0.3538 -2.1180
  129ccc    C19 3412  11.711  11.741   0.778  0.3972 -0.0398 -0.0233
  129ccc    C20 3413  11.740  11.842   0.665  0.6100  1.0982  0.6525
  129ccc    C21 3414  11.700  11.779   0.529 -0.2674  0.0864 -0.1981
  129ccc    H30 3415  11.671  11.926   0.681 -0.7649  0.6150 -2.1077
  129ccc    H31 3416  11.765  11.646   0.765 -2.3560 -1.9485  1.4936
  129ccc    H32 3417  11.763  11.696   0.497  0.5531  1.4131 -2.2179
  129ccc    O10 3418  11.715  11.870   0.423 -0.1059  0.2845  0.2211
  129ccc    O11 3419  11.758  11.794   0.904  0.5731 -0.4425  0.2169
  129ccc    C22 3420  11.364  11.660   0.621 -0.2777  0.7277  0.2754
  129ccc    H33 3421  11.682  11.831   0.952  0.4544  3.0464 -2.2910
  129ccc    H34 3422  11.949  11.818   0.670 -2.0453 -1.3336 -0.9752
  129ccc    H35 3423  11.323  11.754   0.659  0.3629  0.4376  1.7430
  129ccc    H36 3424  11.326  11.589   0.696  1.0851  0.5272  0.7983
  129ccc    O12 3425  11.323  11.616   0.494 -0.0778 -0.1809  0.2954
  129ccc    H37 3426  11.375  11.667   0.429  0.6448 -1.1516  0.1000
  129ccc    O13 3427  11.560  11.751   0.527 -0.0282  0.4129  0.4703
  129ccc    H38 3428  11.623  11.897   0.412  0.4183  1.6819 -1.1127
  129ccc    H39 3429  11.503  11.793   0.805 -1.8893  0.3133 -0.0782
  129ccc     O5 3430  11.543  11.598   0.860 -0.2685  0.3560  0.0417
  129ccc    H40 3431  11.572  11.630   0.947  1.3302 -3.0443  0.9135
  129ccc     N4 3432  11.880  11.891   0.660 -0.2479  0.5253 -0.4905
  130ccc     N1 3433  11.022   9.386  -0.401 -0.3625  0.8090  0.9642
  130ccc     H4 3434  11.042   9.340  -0.313  2.0181  1.3305  0.7820
  130ccc     C3 3435  10.888   9.380  -0.448  0.5709 -0.0760  0.7346
  130ccc     H5 3436  10.865   9.475  -0.497  3.2791  0.8638  1.0827
  130ccc     C4 3437  10.784   9.342  -0.337 -0.1525 -0.4284  0.2802
  130ccc     H6 3438  10.885   9.301  -0.524  0.0257 -0.2328  0.9160
  130ccc     H7 3439  10.834   9.261  -0.283  0.0205  1.0635  2.4895
  130ccc     H8 3440  10.702   9.294  -0.392  0.6134  0.9768 -2.2095
  130ccc     N2 3441  10.764   9.456  -0.242 -0.4293 -0.1463  0.3284
  130ccc     C5 3442  10.687   9.407  -0.127 -0.7612  0.4072 -0.2470
  130ccc     C6 3443  10.719   9.582  -0.305  0.2138 -0.2519 -0.3576
  130ccc     H9 3444  10.694   9.661  -0.233  0.0502  0.3105 -1.0139
  130ccc     C7 3445  10.585   9.549  -0.375 -0.3984 -0.7921  0.0174
  130ccc    H10 3446  10.778   9.629  -0.385 -0.1413  0.3187 -0.2899
  130ccc    H11 3447  10.522   9.497  -0.301  1.3933 -1.4227  1.1836
  130ccc    H12 3448  10.605   9.486  -0.462  2.2886 -1.5230  1.0731
  130ccc     C8 3449  10.521   9.672  -0.425  0.7853 -0.4787  0.3837
  130ccc     O2 3450  10.585   9.741  -0.505 -0.3108 -0.2673 -0.8706
  130ccc    H13 3451  10.747   9.327  -0.082  0.8027  1.5513 -0.2179
  130ccc    H14 3452  10.592   9.363  -0.159  0.4523 -1.5370 -1.3738
  130ccc     C9 3453  10.659   9.514  -0.017  0.0859 -0.3619 -0.0336
  130ccc    H15 3454  10.590   9.592  -0.052  0.1578 -0.9094 -1.4778
  130ccc    H16 3455  10.752   9.556   0.022  0.6045 -0.2230 -1.3574
  130ccc    C10 3456  10.603   9.426   0.093 -0.0415 -0.2287 -0.5475
  130ccc     O4 3457  10.662   9.329   0.144 -0.0121 -0.3974 -0.3357
  130ccc    C11 3458  10.367  10.141  -0.334 -0.3044 -0.1325 -0.0897
  130ccc    C12 3459  10.279  10.072  -0.448  0.0275 -0.4970  0.8811
  130ccc    H17 3460  10.462  10.178  -0.376 -0.3281  1.6891  1.3468
  130ccc    C13 3461  10.327   9.928  -0.479  0.2754  0.6988  0.6584
  130ccc    C14 3462  10.357   9.851  -0.346 -0.1892 -0.7212  0.4323
  130ccc    C15 3463  10.453   9.930  -0.254 -0.1989 -0.0484  0.3554
  130ccc    H18 3464  10.263   9.837  -0.290 -0.6857  2.5475  0.6210
  130ccc    H19 3465  10.412   9.930  -0.548 -1.8872 -0.0056 -2.2016
  130ccc    H20 3466  10.553   9.941  -0.298 -0.1456 -0.5901  0.3348
  130ccc     O1 3467  10.476   9.864  -0.127  0.4100  0.2957 -0.0844
  130ccc     O6 3468  10.217   9.862  -0.549 -0.3630  0.3375  0.0107
  130ccc    C16 3469  10.300  10.266  -0.272  0.5926 -0.0466 -0.4734
  130ccc    H21 3470  10.238   9.767  -0.557  1.8798  0.8445 -0.9904
  130ccc    H22 3471  10.380   9.665  -0.283 -2.5980 -0.2992 -0.7609
  130ccc    H23 3472  10.283  10.341  -0.350  0.0793  2.0530  1.5176
  130ccc    H24 3473  10.369  10.303  -0.195  0.9531 -0.3672 -0.6424
  130ccc     O7 3474  10.177  10.239  -0.216  0.3724 -0.6464 -0.1466
  130ccc    H25 3475  10.129  10.320  -0.190  0.8122 -1.1233  2.4219
  130ccc     O8 3476  10.388  10.055  -0.218  0.1010 -0.5671  0.1267
  130ccc    H26 3477  10.540   9.916  -0.075  1.6918 -1.3045  0.0183
  130ccc    H27 3478  10.177  10.057  -0.410 -0.6607 -1.1350 -1.1130
  130ccc     O9 3479  10.274  10.146  -0.569  0.3866 -0.1991 -0.2521
  130ccc    H28 3480  10.183  10.179  -0.577 -0.5204 -1.5423  2.9036
  130ccc     N3 3481  10.411   9.718  -0.364  0.1507 -0.0883  0.3215
  130ccc    C17 3482  10.101   9.293   0.281 -0.3033  0.4416 -0.3380
  130ccc    C18 3483  10.175   9.213   0.170  0.5307  0.1132 -0.1974
  130ccc    H29 3484  10.050   9.384   0.247 -3.2001 -0.9241  0.0563
  130ccc    C19 3485  10.285   9.296   0.107  0.7016  0.3026 -0.2940
  130ccc    C20 3486  10.386   9.358   0.208 -0.4733 -0.3952  0.0369
  130ccc    C21 3487  10.298   9.428   0.328  0.5475  0.3654 -0.2421
  130ccc    H30 3488  10.443   9.273   0.247 -0.3567 -0.5872 -0.5450
  130ccc    H31 3489  10.236   9.383   0.061 -0.7076  1.1020  2.5064
  130ccc    H32 3490  10.233   9.511   0.297  1.6116  1.4188  0.2699
  130ccc    O10 3491  10.373   9.478   0.434 -0.1167  0.0084 -0.6105
  130ccc    O11 3492  10.353   9.215   0.005  0.2593  0.6897  0.5172
  130ccc    C22 3493   9.994   9.207   0.347  0.7038 -0.5565  0.3735
  130ccc    H33 3494  10.296   9.175  -0.063  1.4597 -0.0257 -0.0968
  130ccc    H34 3495  10.427   9.534   0.106 -1.6314 -1.3593 -1.7077
  130ccc    H35 3496   9.937   9.157   0.268 -0.2276 -1.4716  1.5812
  130ccc    H36 3497   9.927   9.275   0.402  2.2420  1.6425 -0.3388
  130ccc    O12 3498  10.043   9.094   0.429 -0.1187 -0.0931 -0.2353
  130ccc    H37 3499  10.101   9.132   0.497 -1.4677  2.1952 -0.2474
  130ccc    O13 3500  10.207   9.328   0.380 -0.0369 -0.4879  0.0331
  130ccc    H38 3501  10.308   9.508   0.499 -0.4753 -0.4419 -0.7570
  130ccc    H39 3502  10.221   9.118   0.200  0.3708  0.0775 -0.0600
  130ccc     O5 3503  10.081   9.191   0.062 -0.1717 -0.2262 -0.2643
  130ccc    H40 3504  10.052   9.280   0.034 -0.6105 -0.8242 -1.7629
  130ccc     N4 3505  10.479   9.453   0.140 -0.4270  0.1498  0.2874
  131ccc     N1 3506  11.672   9.085  -0.194  0.3718  0.4327 -0.1445
  131ccc     H4 3507  11.617   9.110  -0.112 -0.6067  1.9905 -1.2328
  131ccc     C3 3508  11.740   8.951  -0.201 -1.1740 -0.1150 -0.1350
  131ccc     H5 3509  11.742   8.918  -0.306 -0.3737  0.2250 -0.2271
  131ccc     C4 3510  11.684   8.845  -0.115 -0.8444  0.2307 -0.3380
  131ccc     H6 3511  11.844   8.971  -0.173 -1.2891  0.4243 -0.0832
  131ccc     H7 3512  11.588   8.835  -0.167 -1.3932 -1.2138  0.8921
  131ccc     H8 3513  11.679   8.894  -0.017  1.4050  0.2944 -0.1908
  131ccc     N2 3514  11.765   8.721  -0.112  0.1151  0.4380  0.6126
  131ccc     C5 3515  11.675   8.608  -0.056 -0.8205  0.1221 -0.3465
  131ccc     C6 3516  11.889   8.723  -0.035 -1.0447 -0.2190 -0.1599
  131ccc     H9 3517  11.894   8.820   0.015  2.3165 -0.8560  1.0434
  131ccc     C7 3518  12.002   8.701  -0.135 -0.1659  1.1632 -0.3403
  131ccc    H10 3519  11.896   8.643   0.040  0.8484  0.0426  0.0023
  131ccc    H11 3520  11.997   8.760  -0.228  0.0009 -1.3986 -2.0643
  131ccc    H12 3521  11.987   8.602  -0.180 -0.0282  0.6490  0.7260
  131ccc     C8 3522  12.136   8.717  -0.076 -0.9650 -0.5653 -0.8929
  131ccc     O2 3523  12.165   8.805   0.006 -0.0303 -0.1065  0.4596
  131ccc    H13 3524  11.575   8.618  -0.098 -0.7535  0.1980 -0.4872
  131ccc    H14 3525  11.697   8.615   0.051  1.4420 -0.6976 -0.7055
  131ccc     C9 3526  11.708   8.472  -0.099  0.4405  0.2531 -0.3246
  131ccc    H15 3527  11.815   8.452  -0.085  0.5917  1.7849  0.9083
  131ccc    H16 3528  11.677   8.449  -0.202 -0.7752 -2.5260  0.5454
  131ccc    C10 3529  11.624   8.376  -0.019  0.0451 -0.3082  0.3697
  131ccc     O4 3530  11.522   8.403   0.030 -0.0528  0.1808 -0.5075
  131ccc    C11 3531  12.386   8.487   0.281  0.5809  0.4573  0.0952
  131ccc    C12 3532  12.271   8.402   0.224  0.9612  0.2256  0.0142
  131ccc    H17 3533  12.341   8.573   0.332 -1.7030 -0.6092 -0.0215
  131ccc    C13 3534  12.198   8.488   0.115  0.1973  0.2741  0.0960
  131ccc    C14 3535  12.300   8.539   0.003 -0.1487 -0.4067 -0.2430
  131ccc    C15 3536  12.411   8.608   0.081 -0.0563 -0.6819 -0.0080
  131ccc    H18 3537  12.347   8.448  -0.037  0.3600  0.7423 -2.4387
  131ccc    H19 3538  12.148   8.578   0.152 -1.2845  0.1921 -1.5516
  131ccc    H20 3539  12.369   8.684   0.148 -1.2962 -1.2206 -0.1556
  131ccc     O1 3540  12.507   8.669   0.008 -0.5229 -0.1066  0.6675
  131ccc     O6 3541  12.094   8.409   0.064 -0.7318 -0.7852  0.0610
  131ccc    C16 3542  12.482   8.421   0.384  0.9802 -0.5833 -0.0487
  131ccc    H21 3543  12.056   8.384   0.150  1.8835  0.2341  1.6466
  131ccc    H22 3544  12.187   8.558  -0.172 -2.1531 -0.6232  1.8713
  131ccc    H23 3545  12.426   8.418   0.479  3.1202  0.3539  1.3143
  131ccc    H24 3546  12.558   8.498   0.400  0.1941 -0.0377  1.2176
  131ccc     O7 3547  12.526   8.293   0.332 -0.0863 -0.1009 -0.2945
  131ccc    H25 3548  12.559   8.319   0.244 -1.7178  1.0952 -0.5982
  131ccc     O8 3549  12.478   8.525   0.174 -0.2646  0.2499 -0.2433
  131ccc    H26 3550  12.475   8.759  -0.010 -0.1431  0.0992  1.0174
  131ccc    H27 3551  12.312   8.310   0.181 -1.2550  0.4399 -2.8063
  131ccc     O9 3552  12.180   8.376   0.333 -0.3662 -0.0286  0.6154
  131ccc    H28 3553  12.156   8.282   0.324 -3.4053  0.2862  3.5749
  131ccc     N3 3554  12.227   8.624  -0.107 -0.8899  0.4378  0.1118
  131ccc    C17 3555  12.000   8.080   0.207 -0.3786 -0.3305 -0.3297
  131ccc    C18 3556  11.998   8.046   0.055 -0.4442 -0.0405 -0.7196
  131ccc    H29 3557  11.939   8.013   0.269  0.8186 -0.7270  0.4380
  131ccc    C19 3558  11.847   8.066   0.014  0.4535  0.1027  0.5386
  131ccc    C20 3559  11.810   8.218   0.032  0.3455  0.4940 -0.4919
  131ccc    C21 3560  11.831   8.255   0.181 -0.1269 -0.7236  0.0663
  131ccc    H30 3561  11.878   8.269  -0.037 -0.4942 -0.8370 -2.3957
  131ccc    H31 3562  11.782   7.996   0.066  1.6305 -1.1977  0.3193
  131ccc    H32 3563  11.758   8.198   0.241  0.4688 -0.6280  0.9102
  131ccc    O10 3564  11.806   8.395   0.210  0.2404  0.1718  0.3552
  131ccc    O11 3565  11.840   8.031  -0.128  0.3065 -0.2367 -0.8178
  131ccc    C22 3566  12.140   8.065   0.273 -0.1096 -0.6029  0.0964
  131ccc    H33 3567  11.752   8.058  -0.159  0.8375 -0.0166 -2.1679
  131ccc    H34 3568  11.601   8.195   0.041  0.8365 -0.5326  1.2464
  131ccc    H35 3569  12.202   8.149   0.238 -0.1763  0.7643  2.9103
  131ccc    H36 3570  12.181   7.966   0.250 -1.5335 -2.0277  3.1450
  131ccc    O12 3571  12.139   8.089   0.409 -0.5476 -0.6383 -0.1452
  131ccc    H37 3572  12.079   8.019   0.441 -2.6341  0.5904 -1.1771
  131ccc    O13 3573  11.960   8.218   0.230 -0.4655  0.2451 -0.4488
  131ccc    H38 3574  11.809   8.403   0.306  0.0217 -4.5595  1.0100
  131ccc    H39 3575  12.061   8.118   0.001  1.5930 -0.6135  0.8108
  131ccc     O5 3576  12.046   7.911   0.027 -0.6199  0.5012  0.1038
  131ccc    H40 3577  11.993   7.882  -0.049 -0.7233  1.3192 -0.1455
  131ccc     N4 3578  11.667   8.250  -0.015 -0.1536  0.0089  0.5766
  132ccc     N1 3579  12.119  10.216  -0.707  0.0122  0.4344 -0.0883
  132ccc     H4 3580  12.082  10.194  -0.615 -1.5957 -1.6743 -1.1456
  132ccc     C3 3581  12.260  10.259  -0.719 -0.4471  0.2147  0.0659
  132ccc     H5 3582  12.316  10.213  -0.802  0.2807 -0.3310  0.8402
  132ccc     C4 3583  12.331  10.259  -0.584  0.2198 -0.7429 -0.5534
  132ccc     H6 3584  12.265  10.364  -0.750  1.7697  0.1542  0.0583
  132ccc     H7 3585  12.325  10.168  -0.523 -0.4658  0.0044  0.5200
  132ccc     H8 3586  12.273  10.339  -0.538 -2.0709 -1.9176 -1.2689
  132ccc     N2 3587  12.469  10.303  -0.600  0.1781  0.1104 -0.7628
  132ccc     C5 3588  12.558  10.202  -0.663 -1.1473  0.1705  0.6800
  132ccc     C6 3589  12.525  10.350  -0.476 -0.2564 -0.2531 -0.0123
  132ccc     H9 3590  12.490  10.294  -0.389 -0.2080  0.5574  0.5372
  132ccc     C7 3591  12.493  10.499  -0.460 -0.0948  0.6533 -0.1821
  132ccc    H10 3592  12.633  10.344  -0.495 -0.5762 -1.2997 -1.8341
  132ccc    H11 3593  12.384  10.494  -0.451 -0.2812 -1.9108 -2.3843
  132ccc    H12 3594  12.516  10.549  -0.555 -2.1510 -0.4134 -1.3050
  132ccc     C8 3595  12.552  10.553  -0.333 -0.2727 -0.4221 -0.1062
  132ccc     O2 3596  12.672  10.545  -0.312  0.3041  0.1951  0.7977
  132ccc    H13 3597  12.504  10.107  -0.675  0.3264 -0.6322  0.2811
  132ccc    H14 3598  12.657  10.179  -0.622 -1.1320  0.1016  0.6037
  132ccc     C9 3599  12.596  10.254  -0.799 -0.3456  0.6856  0.3674
  132ccc    H15 3600  12.659  10.344  -0.792  0.4892  0.0269  1.7846
  132ccc    H16 3601  12.509  10.281  -0.860  1.0740  0.8524 -1.6625
  132ccc    C10 3602  12.664  10.145  -0.871 -0.1400 -0.1642 -0.3794
  132ccc     O4 3603  12.748  10.070  -0.824 -0.6327 -0.5723  0.0397
  132ccc    C11 3604  12.722  10.808   0.046  0.6319  0.3963 -0.2567
  132ccc    C12 3605  12.643  10.903  -0.045 -0.1180 -0.9219 -0.0718
  132ccc    H17 3606  12.812  10.775  -0.007  0.2666  0.2566 -0.7944
  132ccc    C13 3607  12.590  10.819  -0.166  0.5238  0.2272  0.0738
  132ccc    C14 3608  12.518  10.687  -0.127  0.3971 -0.0181 -0.3654
  132ccc    C15 3609  12.616  10.606  -0.041  0.0068 -0.1742 -0.8050
  132ccc    H18 3610  12.432  10.710  -0.063  1.0062  1.2746  0.0343
  132ccc    H19 3611  12.674  10.795  -0.232  0.5817 -1.9183  0.8637
  132ccc    H20 3612  12.706  10.604  -0.103  0.7232  0.5520  0.1768
  132ccc     O1 3613  12.571  10.480   0.006 -0.2415 -0.0680 -0.8613
  132ccc     O6 3614  12.497  10.900  -0.242  0.4790 -0.1930  0.4377
  132ccc    C16 3615  12.773  10.878   0.177  0.6301  0.0990 -0.3129
  132ccc    H21 3616  12.436  10.837  -0.284  0.2866 -0.2109  0.7424
  132ccc    H22 3617  12.382  10.648  -0.280  1.2563  0.3470 -1.8329
  132ccc    H23 3618  12.847  10.956   0.155 -0.4317  1.0212 -0.7166
  132ccc    H24 3619  12.822  10.802   0.239  1.8958  0.9599 -0.2165
  132ccc     O7 3620  12.661  10.928   0.249  0.5250  0.1298  0.3115
  132ccc    H25 3621  12.658  10.874   0.330 -2.3463  0.4695  0.5580
  132ccc     O8 3622  12.646  10.686   0.071 -0.2618  0.4779 -0.5299
  132ccc    H26 3623  12.540  10.497   0.096 -1.4892 -1.4975 -0.9659
  132ccc    H27 3624  12.556  10.937   0.012  0.6869  1.1952 -0.0335
  132ccc     O9 3625  12.722  11.002  -0.099 -0.4680 -0.8451 -0.1533
  132ccc    H28 3626  12.679  11.042  -0.176  0.6742 -0.1955 -0.4662
  132ccc     N3 3627  12.469  10.608  -0.243  0.3324 -0.2557 -0.1982
  132ccc    C17 3628  12.617   9.869  -1.336 -0.0023  0.0288 -0.2613
  132ccc    C18 3629  12.757   9.907  -1.276  0.1022  0.2610 -0.3991
  132ccc    H29 3630  12.581   9.938  -1.414 -0.8260 -0.8418 -0.6671
  132ccc    C19 3631  12.746  10.024  -1.169  0.4877 -0.4208  0.4971
  132ccc    C20 3632  12.633   9.994  -1.071 -0.0656 -0.5053 -0.1321
  132ccc    C21 3633  12.502   9.955  -1.130 -0.8412  0.0664  0.5554
  132ccc    H30 3634  12.668   9.914  -1.005  1.1555  0.5140  0.4885
  132ccc    H31 3635  12.719  10.119  -1.215  0.4683 -0.1258  1.1044
  132ccc    H32 3636  12.457  10.041  -1.182 -0.8025 -0.6127 -0.6175
  132ccc    O10 3637  12.410   9.899  -1.037 -0.6209  0.3948 -0.0258
  132ccc    O11 3638  12.868  10.053  -1.101  0.1997  0.0313 -0.2785
  132ccc    C22 3639  12.616   9.739  -1.426  0.7717 -0.0168  0.3782
  132ccc    H33 3640  12.835  10.079  -1.014 -0.8075 -0.4151 -0.5196
  132ccc    H34 3641  12.523  10.170  -1.023 -1.4429 -1.7155 -1.3775
  132ccc    H35 3642  12.639   9.761  -1.531 -1.3354 -0.6007 -0.2637
  132ccc    H36 3643  12.513   9.700  -1.431 -0.7502  3.5936  0.1268
  132ccc    O12 3644  12.713   9.639  -1.380  0.3141 -0.2705 -0.1379
  132ccc    H37 3645  12.795   9.656  -1.428  0.2497  0.8662  0.1402
  132ccc    O13 3646  12.523   9.846  -1.221 -0.3539 -0.8510 -0.3984
  132ccc    H38 3647  12.352   9.837  -1.085  0.0396 -0.7464  0.5975
  132ccc    H39 3648  12.798   9.822  -1.220  0.1604  0.3866 -0.2499
  132ccc     O5 3649  12.852   9.944  -1.382  0.7944 -0.4731 -0.2020
  132ccc    H40 3650  12.937   9.911  -1.348  1.4998 -2.4180 -3.3650
  132ccc     N4 3651  12.603  10.114  -0.993 -0.7397 -0.5259 -0.9493
  133ccc     N1 3652  11.440  10.297  -0.690  0.3580  0.2833  0.2089
  133ccc     H4 3653  11.522  10.355  -0.695 -0.1734  1.2294  1.7823
  133ccc     C3 3654  11.315  10.376  -0.717 -0.3125  0.3707 -0.1163
  133ccc     H5 3655  11.332  10.455  -0.791 -1.8315  0.8235 -0.0154
  133ccc     C4 3656  11.233  10.427  -0.596 -0.8264 -0.1006  0.3812
  133ccc     H6 3657  11.247  10.312  -0.774  0.6314 -1.8061  1.0565
  133ccc     H7 3658  11.213  10.339  -0.533  2.9661  0.7395  3.1489
  133ccc     H8 3659  11.135  10.465  -0.626 -1.7527 -2.8628 -0.3980
  133ccc     N2 3660  11.329  10.517  -0.526  0.7038 -0.0504 -0.7048
  133ccc     C5 3661  11.309  10.650  -0.569 -0.1246  0.7567  0.5302
  133ccc     C6 3662  11.311  10.504  -0.379 -0.5216 -0.2533 -0.6650
  133ccc     H9 3663  11.373  10.574  -0.322 -1.9662 -0.2018  0.9117
  133ccc     C7 3664  11.377  10.370  -0.331  0.2660 -0.3209  0.3628
  133ccc    H10 3665  11.209  10.502  -0.340  0.1676 -0.1808  1.2515
  133ccc    H11 3666  11.486  10.381  -0.336  0.0203  3.8355  0.4038
  133ccc    H12 3667  11.353  10.286  -0.396  1.5108 -0.1835 -0.2990
  133ccc     C8 3668  11.343  10.349  -0.187  0.7575 -0.2324  0.8465
  133ccc     O2 3669  11.425  10.337  -0.095  0.3576  0.3757  1.1110
  133ccc    H13 3670  11.230  10.705  -0.516  0.7506  0.0369  2.6905
  133ccc    H14 3671  11.281  10.647  -0.675  0.1645  3.7945  0.2756
  133ccc     C9 3672  11.438  10.728  -0.557 -0.0598  0.9190 -0.4880
  133ccc    H15 3673  11.521  10.671  -0.599 -0.6478  1.1629 -2.0281
  133ccc    H16 3674  11.443  10.769  -0.455  0.1364  0.7464 -0.4280
  133ccc    C10 3675  11.426  10.844  -0.653 -0.0088 -0.3713 -0.2388
  133ccc     O4 3676  11.374  10.831  -0.762 -0.0198 -0.1823  0.4416
  133ccc    C11 3677  11.086  10.397   0.243  0.2182  1.1337  0.1529
  133ccc    C12 3678  10.984  10.419   0.132 -0.4231 -0.2428 -0.0813
  133ccc    H17 3679  11.155  10.482   0.247 -0.3169  1.5196  2.4291
  133ccc    C13 3680  11.053  10.428  -0.007  0.1744 -0.0236  0.1509
  133ccc    C14 3681  11.147  10.306  -0.034 -0.2743 -0.2699 -0.3144
  133ccc    C15 3682  11.235  10.292   0.085 -0.7588 -0.1960 -0.2397
  133ccc    H18 3683  11.098  10.208  -0.044  0.5108 -0.7978  0.7617
  133ccc    H19 3684  11.124  10.512  -0.008  0.0839  0.0594  0.4954
  133ccc    H20 3685  11.301  10.379   0.099 -1.1083 -0.2039  1.8090
  133ccc     O1 3686  11.316  10.172   0.082 -0.2689 -0.1220 -0.3436
  133ccc     O6 3687  10.960  10.440  -0.120 -0.4225  0.5501  0.2243
  133ccc    C16 3688  11.039  10.370   0.383  0.0412  0.2848  0.0718
  133ccc    H21 3689  10.869  10.416  -0.096 -0.4566 -0.5393 -0.8853
  133ccc    H22 3690  11.146  10.331  -0.241 -0.6588  0.3549  0.9757
  133ccc    H23 3691  10.995  10.460   0.427  1.0834  1.8336 -1.9484
  133ccc    H24 3692  11.123  10.342   0.449  0.0579 -1.9116 -0.7935
  133ccc     O7 3693  10.942  10.262   0.384 -0.3521  0.0532 -0.4162
  133ccc    H25 3694  10.963  10.195   0.317  2.1294 -1.0756  1.3237
  133ccc     O8 3695  11.159  10.281   0.206  0.1099  0.2600  0.4091
  133ccc    H26 3696  11.397  10.207   0.041  0.7466 -2.6220 -0.6365
  133ccc    H27 3697  10.905  10.343   0.126 -0.0647 -0.7726  1.4323
  133ccc     O9 3698  10.919  10.549   0.157 -0.3345  0.2242  0.4737
  133ccc    H28 3699  10.952  10.599   0.081  1.6941 -1.6201  0.0243
  133ccc     N3 3700  11.213  10.319  -0.166 -0.1159 -0.7605  0.3444
  133ccc    C17 3701  11.707  11.166  -0.315 -0.5254  0.1836  0.5794
  133ccc    C18 3702  11.561  11.144  -0.292 -0.1756 -0.1539 -0.5434
  133ccc    H29 3703  11.735  11.257  -0.368 -0.5387 -0.7463 -1.1037
  133ccc    C19 3704  11.478  11.113  -0.426 -1.0422  0.5385 -0.3737
  133ccc    C20 3705  11.548  10.997  -0.492 -0.4495  0.1292  0.2037
  133ccc    C21 3706  11.690  11.040  -0.526 -0.6055  0.2320 -0.3197
  133ccc    H30 3707  11.558  10.915  -0.418 -0.4657 -0.5644 -0.5499
  133ccc    H31 3708  11.496  11.204  -0.486  0.3274  1.7796  1.7750
  133ccc    H32 3709  11.687  11.135  -0.582 -0.6560 -0.8454 -2.2403
  133ccc    O10 3710  11.765  10.939  -0.591  0.1929  0.5624  0.3994
  133ccc    O11 3711  11.343  11.088  -0.390  0.9927 -0.0563 -0.1653
  133ccc    C22 3712  11.782  11.151  -0.177  0.3668  0.0289 -0.1540
  133ccc    H33 3713  11.301  11.053  -0.470 -2.0636  0.0562  1.2247
  133ccc    H34 3714  11.471  11.033  -0.691  0.5207 -0.1629 -1.2626
  133ccc    H35 3715  11.763  11.057  -0.124 -1.3385 -0.4631 -1.5426
  133ccc    H36 3716  11.755  11.234  -0.110 -0.2272 -0.6939  0.5106
  133ccc    O12 3717  11.920  11.172  -0.204 -0.7675  0.0756  0.1684
  133ccc    H37 3718  11.927  11.267  -0.226  0.1903  0.6179  2.4651
  133ccc    O13 3719  11.755  11.059  -0.401  0.4933  0.6150 -0.5419
  133ccc    H38 3720  11.765  10.872  -0.521  0.8950  0.6824  0.5254
  133ccc    H39 3721  11.553  11.054  -0.231  0.4607  0.8509  1.0637
  133ccc     O5 3722  11.504  11.264  -0.231  0.2276  0.3252 -0.0065
  133ccc    H40 3723  11.407  11.259  -0.236  0.0140  1.2347  2.2689
  133ccc     N4 3724  11.467  10.965  -0.615 -0.0554  0.5005 -0.6731
  134ccc     N1 3725  11.120  11.639   3.276  0.3696 -0.2029  0.5107
  134ccc     H4 3726  11.200  11.695   3.304  0.5535  1.6539 -3.0995
  134ccc     C3 3727  11.009  11.609   3.376 -0.2909 -0.1028  0.2268
  134ccc     H5 3728  10.974  11.506   3.361  0.8835 -0.2696 -1.7231
  134ccc     C4 3729  10.895  11.712   3.369 -0.6044 -0.0825  0.2667
  134ccc     H6 3730  11.053  11.610   3.477  0.4559  0.8244 -0.0941
  134ccc     H7 3731  10.811  11.659   3.416 -0.5917  0.8600  1.3932
  134ccc     H8 3732  10.870  11.732   3.264 -1.2013  1.4403  0.6729
  134ccc     N2 3733  10.921  11.846   3.434  0.5129  0.0408  0.8426
  134ccc     C5 3734  10.830  11.948   3.377  0.2137 -0.2515 -0.2358
  134ccc     C6 3735  10.921  11.837   3.579  0.3210 -0.3972 -0.2949
  134ccc     H9 3736  10.820  11.809   3.611  0.4797  1.4799  2.1576
  134ccc     C7 3737  10.960  11.969   3.646  0.1068 -0.1637  0.1710
  134ccc    H10 3738  10.994  11.763   3.613 -0.2471  0.4493  3.1284
  134ccc    H11 3739  10.887  12.048   3.624  0.6012  0.3392  0.3168
  134ccc    H12 3740  11.057  11.993   3.602  0.1223 -0.2772  0.1444
  134ccc     C8 3741  10.972  11.953   3.792  0.3311 -0.1755 -0.2184
  134ccc     O2 3742  10.991  11.850   3.858 -0.4266 -0.3681 -0.0731
  134ccc    H13 3743  10.836  11.932   3.269  0.8069  0.6034 -0.3347
  134ccc    H14 3744  10.879  12.044   3.397  2.6839 -1.4306 -0.2445
  134ccc     C9 3745  10.680  11.920   3.401 -0.5344 -0.3962  0.0308
  134ccc    H15 3746  10.655  11.922   3.508  1.4841 -0.3403  0.5388
  134ccc    H16 3747  10.639  11.822   3.373 -1.3867  0.5333 -2.1727
  134ccc    C10 3748  10.597  12.022   3.325  0.1321 -0.3606  0.6407
  134ccc     O4 3749  10.638  12.115   3.255  0.2300  0.6433 -0.1142
  134ccc    C11 3750  10.938  12.229   4.254 -0.7603 -0.0440  0.0288
  134ccc    C12 3751  10.852  12.103   4.232 -0.1573  0.6408 -0.3387
  134ccc    H17 3752  10.869  12.310   4.226 -0.8670 -0.7518 -1.8829
  134ccc    C13 3753  10.832  12.071   4.076  0.1037  0.4570 -0.1856
  134ccc    C14 3754  10.966  12.099   4.006 -0.3682  0.5800  0.0672
  134ccc    C15 3755  11.027  12.238   4.036  0.4782 -0.2747  0.1914
  134ccc    H18 3756  11.051  12.037   4.037 -0.2363  0.2532 -0.9110
  134ccc    H19 3757  10.755  12.140   4.039 -0.9345  0.1332  1.2514
  134ccc    H20 3758  10.958  12.320   4.014  0.7512 -0.1705 -0.2932
  134ccc     O1 3759  11.157  12.262   3.972 -0.0471  0.0992  0.4257
  134ccc     O6 3760  10.797  11.936   4.048 -0.2253 -0.1815 -0.4834
  134ccc    C16 3761  10.993  12.243   4.398  0.6597  0.0005  0.0715
  134ccc    H21 3762  10.855  11.920   3.971 -1.3946  0.7001 -1.5919
  134ccc    H22 3763  10.918  12.149   3.808  1.7603  1.7954  0.7686
  134ccc    H23 3764  11.022  12.142   4.428 -1.9622 -1.5326 -2.1087
  134ccc    H24 3765  10.909  12.276   4.461  0.6867  0.1524  0.0290
  134ccc     O7 3766  11.098  12.340   4.406 -0.4963  0.5803 -0.0582
  134ccc    H25 3767  11.149  12.320   4.325  1.2296  2.1917  0.5717
  134ccc     O8 3768  11.059  12.238   4.169  0.4455  0.1504  0.0998
  134ccc    H26 3769  11.213  12.245   4.049 -0.4913 -0.1410  0.7036
  134ccc    H27 3770  10.903  12.018   4.279  1.4811 -0.5316 -3.9108
  134ccc     O9 3771  10.724  12.121   4.303 -0.1545  0.2748  0.2114
  134ccc    H28 3772  10.671  12.044   4.274 -0.4537  0.3409  0.5654
  134ccc     N3 3773  10.959  12.072   3.860  0.0506 -0.0798 -0.5269
  134ccc    C17 3774  10.144  11.940   3.596 -0.6197 -0.1370  0.3384
  134ccc    C18 3775  10.164  11.838   3.478 -0.0030  0.0580 -0.1982
  134ccc    H29 3776  10.110  12.040   3.566  2.6064  1.1357  0.4802
  134ccc    C19 3777  10.249  11.903   3.370  0.4152  0.7829  0.0142
  134ccc    C20 3778  10.380  11.953   3.429 -0.0482 -0.4317  0.2846
  134ccc    C21 3779  10.352  12.051   3.549 -0.2347  0.1042 -0.8278
  134ccc    H30 3780  10.431  11.864   3.467  2.9026  0.1551 -1.9296
  134ccc    H31 3781  10.186  11.982   3.328 -1.3215 -0.7152 -0.3213
  134ccc    H32 3782  10.296  12.137   3.509  0.1043  0.6986 -0.0588
  134ccc    O10 3783  10.463  12.098   3.620  0.0801 -0.0135 -0.2071
  134ccc    O11 3784  10.278  11.807   3.273  0.5676 -0.5302  0.5320
  134ccc    C22 3785  10.063  11.877   3.714 -0.4245  0.4013  0.4874
  134ccc    H33 3786  10.347  11.749   3.310  0.0656 -0.5204  1.5118
  134ccc    H34 3787  10.407  12.069   3.267  1.0790 -0.9605 -1.7560
  134ccc    H35 3788  10.121  11.791   3.751  1.6465  1.4899 -0.0397
  134ccc    H36 3789   9.969  11.833   3.679  0.9867 -1.6602 -0.9578
  134ccc    O12 3790  10.050  11.970   3.818  0.4436  0.1033  0.2296
  134ccc    H37 3791  10.056  12.056   3.773 -2.6609 -1.4101 -3.6096
  134ccc    O13 3792  10.277  11.974   3.647  0.0409 -0.2570  0.5244
  134ccc    H38 3793  10.490  12.039   3.693 -0.5677  1.8756  1.6799
  134ccc    H39 3794  10.204  11.742   3.512  1.1362  0.4718 -0.3055
  134ccc     O5 3795  10.041  11.811   3.421 -0.1730 -0.6041  0.3571
  134ccc    H40 3796  10.039  11.725   3.376 -0.9733  1.1707 -3.3650
  134ccc     N4 3797  10.462  12.005   3.325  0.2050  0.0270  0.2927
  135ccc     N1 3798  11.691  11.894   3.073 -0.0502 -0.0990  0.0197
  135ccc     H4 3799  11.603  11.911   3.025 -2.1433 -2.8280  2.5622
  135ccc     C3 3800  11.747  11.970   3.183 -0.3929  0.1521 -0.4891
  135ccc     H5 3801  11.695  11.929   3.270 -0.8666 -0.1207 -0.8949
  135ccc     C4 3802  11.724  12.121   3.165  0.3422 -0.2753  0.0853
  135ccc     H6 3803  11.854  11.951   3.193 -0.5442 -0.1415  0.6805
  135ccc     H7 3804  11.773  12.166   3.253 -0.2044 -1.7997  1.2164
  135ccc     H8 3805  11.617  12.143   3.177  0.7700  1.9242  0.3181
  135ccc     N2 3806  11.782  12.174   3.034  0.6028 -0.6876 -1.1133
  135ccc     C5 3807  11.726  12.313   3.022 -0.7077  0.3943 -0.3164
  135ccc     C6 3808  11.922  12.161   3.036 -0.2665 -0.1241  0.1175
  135ccc     H9 3809  11.964  12.253   2.994 -1.7944  1.6745  2.3638
  135ccc     C7 3810  11.970  12.053   2.938 -0.7333  0.0366  0.1929
  135ccc    H10 3811  11.959  12.156   3.139  1.9856  0.2803 -0.6107
  135ccc    H11 3812  11.976  12.102   2.840 -0.9496  0.6931  0.5014
  135ccc    H12 3813  11.895  11.973   2.940 -1.0104  0.2725 -0.4749
  135ccc     C8 3814  12.104  11.995   2.982  0.1664 -0.3460  0.7410
  135ccc     O2 3815  12.187  12.035   3.060  0.5353  0.0727 -0.1021
  135ccc    H13 3816  11.792  12.373   3.085  0.7336 -0.4881 -0.9168
  135ccc    H14 3817  11.622  12.311   3.055 -0.1819 -1.3383  1.3922
  135ccc     C9 3818  11.730  12.353   2.868 -0.2984  0.0496 -0.4726
  135ccc    H15 3819  11.831  12.339   2.829 -0.4842  1.1336 -1.3988
  135ccc    H16 3820  11.689  12.452   2.845  0.1895  0.5804  0.8189
  135ccc    C10 3821  11.651  12.269   2.784  0.2917  0.8882  0.2444
  135ccc     O4 3822  11.538  12.225   2.817 -0.6362 -0.6336  0.8241
  135ccc    C11 3823  12.451  11.662   3.119  0.5675  0.2449 -0.1193
  135ccc    C12 3824  12.308  11.598   3.127 -1.0289 -0.5583  0.3854
  135ccc    H17 3825  12.470  11.736   3.197  0.7751 -0.0405  0.1063
  135ccc    C13 3826  12.196  11.699   3.076  0.1448  0.0180 -0.0630
  135ccc    C14 3827  12.235  11.784   2.954  0.4248  0.0639  0.6273
  135ccc    C15 3828  12.377  11.842   2.980  0.1939 -0.0637 -0.0367
  135ccc    H18 3829  12.240  11.709   2.874 -2.4739  1.7207 -1.2792
  135ccc    H19 3830  12.173  11.757   3.167  0.1074 -2.5399  1.6670
  135ccc    H20 3831  12.377  11.892   3.078  0.6443 -2.7417  1.4105
  135ccc     O1 3832  12.431  11.934   2.884  0.1306  0.4678  0.0835
  135ccc     O6 3833  12.088  11.618   3.043  0.4016 -0.4663 -0.1908
  135ccc    C16 3834  12.559  11.548   3.125  0.1855 -0.2224  0.3136
  135ccc    H21 3835  12.009  11.672   3.060  1.6896  1.6055 -0.4773
  135ccc    H22 3836  12.051  11.833   2.865  0.0183 -0.0379 -0.8169
  135ccc    H23 3837  12.545  11.493   3.032  0.9620  0.8420 -0.4590
  135ccc    H24 3838  12.535  11.487   3.213 -0.3664  0.8364  0.9121
  135ccc     O7 3839  12.698  11.598   3.133  0.2831  0.5168 -0.5509
  135ccc    H25 3840  12.758  11.524   3.118  1.9034  1.1908  1.8541
  135ccc     O8 3841  12.458  11.727   2.989  0.1438 -0.0260 -0.0582
  135ccc    H26 3842  12.461  11.876   2.813 -0.4288 -1.4653  1.3434
  135ccc    H27 3843  12.300  11.510   3.062  1.9053 -1.5755  1.2484
  135ccc     O9 3844  12.290  11.564   3.269 -0.2021  0.1956  0.3848
  135ccc    H28 3845  12.197  11.568   3.297 -0.2676 -2.1954  0.6994
  135ccc     N3 3846  12.122  11.875   2.925 -0.0902 -1.0923  0.0814
  135ccc    C17 3847  11.419  12.141   2.348  0.6957  0.4906 -0.7102
  135ccc    C18 3848  11.535  12.239   2.315 -0.1510  0.2637  0.4522
  135ccc    H29 3849  11.350  12.202   2.407  0.7043  1.7173 -1.9422
  135ccc    C19 3850  11.587  12.295   2.447  0.1257 -0.2451 -0.2475
  135ccc    C20 3851  11.632  12.184   2.544 -0.1084 -0.4295  0.5045
  135ccc    C21 3852  11.520  12.077   2.564  0.0906  0.1065 -0.1596
  135ccc    H30 3853  11.701  12.129   2.479  1.2233  1.6937  0.0244
  135ccc    H31 3854  11.501  12.353   2.482  0.2409 -0.2009 -0.0355
  135ccc    H32 3855  11.436  12.120   2.621  0.0438  0.3415 -0.4053
  135ccc    O10 3856  11.582  11.963   2.625  0.2193 -0.3796  0.2878
  135ccc    O11 3857  11.688  12.391   2.417 -0.1235 -0.9052  0.2887
  135ccc    C22 3858  11.357  12.059   2.233 -0.1165 -0.1406  0.7389
  135ccc    H33 3859  11.770  12.348   2.388 -0.3196 -0.2910 -1.2965
  135ccc    H34 3860  11.786  12.286   2.635 -1.2009  2.0576  0.9693
  135ccc    H35 3861  11.422  11.979   2.195 -0.2091 -0.1901  0.6836
  135ccc    H36 3862  11.337  12.126   2.148 -0.9686 -0.6981  0.4857
  135ccc    O12 3863  11.233  12.008   2.273 -0.6517  0.3804 -0.2670
  135ccc    H37 3864  11.174  12.078   2.307 -2.2945 -1.3078  0.5207
  135ccc    O13 3865  11.470  12.034   2.436 -0.3016  0.0205  0.3526
  135ccc    H38 3866  11.591  11.979   2.720  2.2401  1.1544 -0.1040
  135ccc    H39 3867  11.623  12.194   2.267  2.3649  2.3743  2.7563
  135ccc     O5 3868  11.483  12.348   2.239  0.0057 -0.0727  0.6285
  135ccc    H40 3869  11.543  12.424   2.248  1.9682 -1.5702  0.7825
  135ccc     N4 3870  11.702  12.237   2.664  0.1430 -0.3910  1.0029
  136ccc     N1 3871  12.050  10.125   2.611 -0.1289  0.4775 -0.6487
  136ccc     H4 3872  12.040  10.225   2.594 -0.7350  0.4360 -0.5426
  136ccc     C3 3873  12.101  10.043   2.500 -0.2988  0.1653 -0.8593
  136ccc     H5 3874  12.137   9.951   2.549 -0.2513  0.9341  0.5713
  136ccc     C4 3875  12.218  10.115   2.416  0.1390  0.1028  0.1620
  136ccc     H6 3876  12.019  10.033   2.428 -0.1859  0.2599 -1.0026
  136ccc     H7 3877  12.300  10.149   2.480  0.5317 -0.0835 -0.2442
  136ccc     H8 3878  12.179  10.201   2.361 -1.6295 -0.2680  0.7702
  136ccc     N2 3879  12.284  10.026   2.314  0.2257 -0.6683  0.0429
  136ccc     C5 3880  12.184   9.968   2.217  0.1024  0.7756 -0.0687
  136ccc     C6 3881  12.384  10.109   2.246  0.0798  0.4059  0.2979
  136ccc     H9 3882  12.335  10.177   2.174  1.4854 -0.6826 -1.7917
  136ccc     C7 3883  12.475  10.019   2.159  0.5343  0.2448  0.3210
  136ccc    H10 3884  12.438  10.167   2.322 -0.4729  0.6975  0.4757
  136ccc    H11 3885  12.442  10.020   2.055  1.0526 -0.4156  0.1444
  136ccc    H12 3886  12.470   9.920   2.206  0.1881  0.1055 -0.0028
  136ccc     C8 3887  12.613  10.082   2.167 -0.7946  0.3169 -0.6614
  136ccc     O2 3888  12.635  10.202   2.157  0.4358  0.4103  0.3072
  136ccc    H13 3889  12.223   9.989   2.117  1.2002  1.1058  0.4128
  136ccc    H14 3890  12.084  10.013   2.224 -1.4943 -2.7334  2.1460
  136ccc     C9 3891  12.181   9.824   2.263 -0.5145  0.1445  1.1128
  136ccc    H15 3892  12.156   9.818   2.369  0.1386  2.3803  1.4423
  136ccc    H16 3893  12.275   9.769   2.248 -0.7972  0.1253 -0.9742
  136ccc    C10 3894  12.064   9.752   2.198 -0.5124  0.4982  0.2082
  136ccc     O4 3895  11.955   9.797   2.165  0.3261 -0.4588 -0.0679
  136ccc    C11 3896  13.066  10.177   2.293 -0.3683  0.2474 -0.1539
  136ccc    C12 3897  13.006  10.082   2.406 -0.2344 -0.1143  0.0341
  136ccc    H17 3898  13.010  10.271   2.287  0.3894  0.7264  0.2361
  136ccc    C13 3899  12.858  10.063   2.367 -0.5564 -0.5712 -0.6812
  136ccc    C14 3900  12.849  10.005   2.227 -0.3747  0.1096  0.2672
  136ccc    C15 3901  12.924  10.083   2.119 -0.1927 -0.2372  0.1494
  136ccc    H18 3902  12.886   9.903   2.235 -1.0356 -0.0685  1.1812
  136ccc    H19 3903  12.807  10.160   2.360  0.1804 -0.1788 -0.6428
  136ccc    H20 3904  12.876  10.179   2.101  1.0486  1.0575  3.0461
  136ccc     O1 3905  12.939  10.000   2.010 -0.2637  0.3630  0.5418
  136ccc     O6 3906  12.790   9.968   2.446  0.2232  0.1167  0.0975
  136ccc    C16 3907  13.214  10.207   2.325  0.3023 -0.3509  0.3092
  136ccc    H21 3908  12.825   9.879   2.428 -1.7580 -1.0047  1.4033
  136ccc    H22 3909  12.673   9.898   2.205 -0.2310 -0.0530 -2.9766
  136ccc    H23 3910  13.213  10.232   2.432 -1.3961  0.4481  0.1409
  136ccc    H24 3911  13.246  10.299   2.275  1.0755 -0.4632  0.5802
  136ccc     O7 3912  13.303  10.106   2.294 -0.1395 -0.0841 -0.3490
  136ccc    H25 3913  13.302  10.094   2.198 -1.5399  1.1139 -0.5086
  136ccc     O8 3914  13.053  10.107   2.165 -0.2312 -0.2508 -0.8987
  136ccc    H26 3915  12.853   9.960   1.990 -0.0622 -1.9783  3.6087
  136ccc    H27 3916  13.061   9.986   2.408 -2.4363 -1.4936 -1.3024
  136ccc     O9 3917  13.028  10.144   2.531  0.2061 -0.3010  0.6280
  136ccc    H28 3918  13.029  10.067   2.591  3.2050 -1.4391 -0.6912
  136ccc     N3 3919  12.708   9.992   2.183 -0.1314  0.5627 -0.4906
  136ccc    C17 3920  12.081   9.266   2.449 -0.1480 -1.1700  1.0071
  136ccc    C18 3921  12.175   9.260   2.328 -0.1382 -0.3934 -0.8238
  136ccc    H29 3922  11.977   9.249   2.416  0.0492 -0.0098 -0.3039
  136ccc    C19 3923  12.143   9.376   2.228  0.1610 -0.5106  0.8150
  136ccc    C20 3924  12.124   9.521   2.291 -0.7431 -0.0940  0.2786
  136ccc    C21 3925  12.044   9.507   2.426  0.2510  0.4300  0.0317
  136ccc    H30 3926  12.224   9.559   2.315 -1.1205  1.4832 -0.5319
  136ccc    H31 3927  12.053   9.349   2.171  1.0078  0.0256 -0.8270
  136ccc    H32 3928  11.936   9.489   2.412  0.0965  0.0939  1.5243
  136ccc    O10 3929  12.063   9.617   2.514 -0.4063 -0.1715  0.4716
  136ccc    O11 3930  12.257   9.372   2.136  0.4634 -0.0919 -0.0444
  136ccc    C22 3931  12.110   9.167   2.563  0.4951 -0.3290  0.2452
  136ccc    H33 3932  12.260   9.280   2.104  1.7967 -0.7665  1.8741
  136ccc    H34 3933  11.983   9.586   2.152  1.1123 -1.5233 -1.1886
  136ccc    H35 3934  12.195   9.214   2.614  1.0877 -1.4649  0.3258
  136ccc    H36 3935  12.137   9.068   2.526 -2.0889 -0.6797 -0.9588
  136ccc    O12 3936  11.985   9.153   2.638  0.1712  0.4528 -0.3804
  136ccc    H37 3937  11.939   9.072   2.612 -2.1337  1.6405 -0.2333
  136ccc    O13 3938  12.090   9.401   2.507  0.4184  0.6027  0.0646
  136ccc    H38 3939  12.159   9.627   2.525 -0.5587  0.2580  1.5230
  136ccc    H39 3940  12.279   9.280   2.355  0.4380  0.0174 -3.1448
  136ccc     O5 3941  12.168   9.134   2.260 -0.0497  0.4840 -0.2334
  136ccc    H40 3942  12.082   9.127   2.215 -0.2653  1.1532  0.0723
  136ccc     N4 3943  12.073   9.616   2.189  0.3416 -0.0153 -0.4796
  137ccc     N1 3944  12.013  10.292   3.390  0.4920  0.2893 -0.6684
  137ccc     H4 3945  11.997  10.198   3.357  0.6477 -0.9537  2.4566
  137ccc     C3 3946  12.000  10.308   3.542  0.0087 -0.7098  0.2294
  137ccc     H5 3947  12.101  10.322   3.582  0.2769  2.5297 -1.2713
  137ccc     C4 3948  11.924  10.196   3.611  0.3789  0.8072 -0.2169
  137ccc     H6 3949  11.956  10.405   3.572  0.3353 -0.8879  1.3445
  137ccc     H7 3950  11.819  10.207   3.580  0.2091 -1.1343 -0.4386
  137ccc     H8 3951  11.927  10.216   3.719  1.8272 -0.5375  0.0243
  137ccc     N2 3952  11.979  10.064   3.588 -0.3192  0.0947 -0.4655
  137ccc     C5 3953  12.123  10.051   3.620  1.0374 -0.4539 -0.1003
  137ccc     C6 3954  11.887   9.957   3.634 -0.4523 -0.5687 -0.4271
  137ccc     H9 3955  11.880   9.963   3.743 -0.4159  0.2204 -0.4635
  137ccc     C7 3956  11.948   9.828   3.591  0.4886 -0.2171  0.2107
  137ccc    H10 3957  11.788   9.971   3.588  0.3717  1.7167 -1.6327
  137ccc    H11 3958  12.022   9.791   3.664 -1.3056 -5.2796 -0.1263
  137ccc    H12 3959  11.979   9.829   3.486  0.0461  1.0694  0.0800
  137ccc     C8 3960  11.845   9.721   3.589  0.1720 -0.3580 -0.2354
  137ccc     O2 3961  11.721   9.728   3.602 -0.6906 -0.1258  0.3715
  137ccc    H13 3962  12.175  10.124   3.557 -1.0262  0.8361 -0.4058
  137ccc    H14 3963  12.167   9.962   3.574  0.4151 -0.0321 -1.5603
  137ccc     C9 3964  12.162  10.085   3.765 -0.0278 -0.1409  0.2863
  137ccc    H15 3965  12.110  10.024   3.840 -0.7364 -0.2624 -0.2900
  137ccc    H16 3966  12.142  10.190   3.789  5.2665  0.6078  2.9037
  137ccc    C10 3967  12.312  10.072   3.780 -0.2189 -0.0433 -0.3923
  137ccc     O4 3968  12.399  10.086   3.693  0.4197  0.2316 -0.9538
  137ccc    C11 3969  11.788   9.191   3.698  0.4082 -0.0164 -0.2317
  137ccc    C12 3970  11.893   9.255   3.790 -0.3769 -0.1738  0.0824
  137ccc    H17 3971  11.831   9.167   3.600 -0.2387 -1.5468 -0.1711
  137ccc    C13 3972  11.951   9.386   3.719  0.2985 -0.1327 -0.5374
  137ccc    C14 3973  11.841   9.486   3.678 -0.1261 -0.0273  0.9264
  137ccc    C15 3974  11.716   9.415   3.619  0.5603  0.3423 -0.5251
  137ccc    H18 3975  11.810   9.521   3.777  0.1558 -0.1381  1.0557
  137ccc    H19 3976  12.007   9.350   3.632  1.0752 -1.1355  0.3481
  137ccc    H20 3977  11.735   9.395   3.513  1.5546  3.9582 -1.1755
  137ccc     O1 3978  11.603   9.495   3.629 -0.3597  0.2117  0.1816
  137ccc     O6 3979  12.045   9.463   3.799  0.1038 -0.8907 -0.2458
  137ccc    C16 3980  11.727   9.058   3.755 -0.1660  0.1757 -0.1187
  137ccc    H21 3981  12.115   9.400   3.826 -0.8173 -0.4955  3.6724
  137ccc    H22 3982  11.998   9.593   3.630  0.5625  0.6709  0.2775
  137ccc    H23 3983  11.680   9.073   3.852  1.0049 -0.9316  0.6539
  137ccc    H24 3984  11.807   8.984   3.769  0.7609  1.1454 -0.2048
  137ccc     O7 3985  11.634   9.006   3.665  0.3274  0.3456  0.1758
  137ccc    H25 3986  11.692   8.978   3.592  0.9473 -1.5584  1.3409
  137ccc     O8 3987  11.685   9.295   3.696  0.1754 -0.2394 -0.8190
  137ccc    H26 3988  11.628   9.584   3.601  0.3273 -0.4398 -1.3966
  137ccc    H27 3989  11.852   9.285   3.888 -0.7617 -0.7914  0.1099
  137ccc     O9 3990  12.001   9.167   3.821 -0.4374  0.6200 -0.1200
  137ccc    H28 3991  11.991   9.143   3.915 -1.7131 -0.1600 -0.4258
  137ccc     N3 3992  11.900   9.600   3.602  0.5505 -0.3043  0.0423
  137ccc    C17 3993  12.769  10.072   3.951 -0.1365  0.6253 -0.2752
  137ccc    C18 3994  12.691  10.179   4.032 -0.5103 -0.3190 -0.6144
  137ccc    H29 3995  12.778  10.098   3.845  1.2847 -2.4136 -1.0149
  137ccc    C19 3996  12.545  10.189   3.980  0.2141 -0.1116  0.0895
  137ccc    C20 3997  12.476  10.050   3.969 -0.8340  0.4015  0.4887
  137ccc    C21 3998  12.562   9.942   3.893 -0.5882  0.7514  0.2301
  137ccc    H30 3999  12.463  10.007   4.069  0.5561 -0.2405  0.4119
  137ccc    H31 4000  12.550  10.236   3.881  2.3360 -0.4755 -0.0123
  137ccc    H32 4001  12.574   9.964   3.786 -0.5387 -0.0630  0.0649
  137ccc    O10 4002  12.523   9.808   3.913 -0.2979  0.5276  0.3257
  137ccc    O11 4003  12.474  10.278   4.071 -0.2986  0.0238  0.8233
  137ccc    C22 4004  12.912  10.043   4.006  0.0523 -0.1987 -0.1027
  137ccc    H33 4005  12.379  10.269   4.055 -0.1080 -0.8776  0.0828
  137ccc    H34 4006  12.269  10.081   3.972 -0.6064  1.1570 -1.5623
  137ccc    H35 4007  12.973  10.134   3.993 -0.1589  0.0000  0.2962
  137ccc    H36 4008  12.950   9.977   3.927 -0.2800  3.1146 -3.3308
  137ccc    O12 4009  12.932   9.980   4.134 -0.5356 -0.5894 -0.2325
  137ccc    H37 4010  13.024   9.951   4.146 -0.2846 -0.9687 -2.4792
  137ccc    O13 4011  12.695   9.945   3.954  0.1856  0.0904  0.1196
  137ccc    H38 4012  12.451   9.790   3.850 -1.3556  0.1079  1.6013
  137ccc    H39 4013  12.692  10.150   4.138  0.5298  1.3227 -0.1205
  137ccc     O5 4014  12.762  10.308   4.021 -0.4310  0.1291 -0.0906
  137ccc    H40 4015  12.719  10.368   4.085  0.4418 -0.3081  0.9507
  137ccc     N4 4016  12.345  10.063   3.908  0.5172  0.4938 -0.1101
  138ccc     N1 4017  10.934  11.231   0.700 -0.1068 -0.4855  0.1661
  138ccc     H4 4018  10.897  11.195   0.787 -0.9741 -1.8941 -0.7401
  138ccc     C3 4019  11.082  11.256   0.683 -0.4598  0.8167  0.4808
  138ccc     H5 4020  11.109  11.349   0.633  3.2125  0.0584  0.7558
  138ccc     C4 4021  11.162  11.137   0.622 -0.2561  0.0616 -0.5150
  138ccc     H6 4022  11.128  11.265   0.782  1.3312 -0.5480 -0.1823
  138ccc     H7 4023  11.134  11.120   0.518 -0.7531 -1.5328 -0.1532
  138ccc     H8 4024  11.140  11.044   0.675  0.3574 -0.6906 -1.5602
  138ccc     N2 4025  11.302  11.155   0.642 -0.6295  0.3204 -0.3422
  138ccc     C5 4026  11.366  11.276   0.576  0.0727  0.4878 -0.2951
  138ccc     C6 4027  11.382  11.033   0.621  0.2400  0.7831 -0.1017
  138ccc     H9 4028  11.342  10.989   0.529 -0.1234  1.2876 -0.1861
  138ccc     C7 4029  11.373  10.939   0.747  0.3963 -0.2303 -0.9370
  138ccc    H10 4030  11.489  11.055   0.608  0.7405 -1.9515 -1.2928
  138ccc    H11 4031  11.270  10.928   0.781  0.6043 -0.0281 -0.2362
  138ccc    H12 4032  11.428  10.986   0.829 -2.0538  0.9868  0.0889
  138ccc     C8 4033  11.434  10.804   0.720 -0.2763 -0.5149  0.3121
  138ccc     O2 4034  11.554  10.782   0.736  0.0125 -0.6473 -0.7111
  138ccc    H13 4035  11.471  11.273   0.607  0.0801 -3.7327 -0.2479
  138ccc    H14 4036  11.320  11.370   0.609 -4.0931 -0.4092 -2.7741
  138ccc     C9 4037  11.349  11.265   0.425  0.3126  0.2795 -0.4752
  138ccc    H15 4038  11.245  11.297   0.408  0.8022  1.7999 -0.7312
  138ccc    H16 4039  11.357  11.163   0.386  0.6854  0.1468 -0.0687
  138ccc    C10 4040  11.439  11.360   0.363  0.2198 -0.1651  0.5350
  138ccc     O4 4041  11.561  11.361   0.388  0.2181 -0.2787 -0.0142
  138ccc    C11 4042  11.403  10.349   0.435 -0.5593 -0.0828  0.6803
  138ccc    C12 4043  11.519  10.452   0.422 -0.0397 -0.0387  0.0172
  138ccc    H17 4044  11.324  10.389   0.370 -0.9567  4.0601  3.3119
  138ccc    C13 4045  11.478  10.585   0.479  0.1840 -0.7094  0.2264
  138ccc    C14 4046  11.406  10.579   0.622 -0.9866  0.1936  0.0188
  138ccc    C15 4047  11.293  10.470   0.617 -0.7567 -0.0734  0.2409
  138ccc    H18 4048  11.485  10.537   0.686 -0.6412 -0.3860 -0.7662
  138ccc    H19 4049  11.406  10.626   0.408  2.1718 -1.4830 -2.3819
  138ccc    H20 4050  11.213  10.509   0.553 -1.6732 -1.7944  0.2825
  138ccc     O1 4051  11.237  10.439   0.737 -0.4814 -0.3678  0.8101
  138ccc     O6 4052  11.583  10.678   0.479 -0.0529 -0.2174 -0.4361
  138ccc    C16 4053  11.443  10.202   0.395 -0.1982 -0.5291 -0.6563
  138ccc    H21 4054  11.601  10.705   0.571 -0.2481  0.9822 -0.7361
  138ccc    H22 4055  11.257  10.720   0.655  0.1050 -0.8967 -0.1847
  138ccc    H23 4056  11.522  10.176   0.466 -0.5299  0.4936  0.1098
  138ccc    H24 4057  11.480  10.194   0.292 -0.4135  1.3238 -0.8999
  138ccc     O7 4058  11.326  10.121   0.401  0.5725  0.4256 -0.1291
  138ccc    H25 4059  11.273  10.150   0.325 -1.0035  0.1406  0.8187
  138ccc     O8 4060  11.342  10.346   0.565  0.0651  0.1393 -0.4310
  138ccc    H26 4061  11.307  10.381   0.772  0.0727 -4.0634 -5.0334
  138ccc    H27 4062  11.606  10.414   0.477  1.8003  1.7437 -1.4958
  138ccc     O9 4063  11.550  10.464   0.284  0.5215  0.3223  0.0065
  138ccc    H28 4064  11.477  10.525   0.260  0.7834  1.1241  1.1318
  138ccc     N3 4065  11.357  10.711   0.672  0.1895  0.6606  0.2682
  138ccc    C17 4066  11.570  11.651  -0.063  0.4866  0.1345  0.3046
  138ccc    C18 4067  11.558  11.733   0.069  0.1224 -0.7453  0.9854
  138ccc    H29 4068  11.473  11.644  -0.113  0.9171  0.0141 -0.5321
  138ccc    C19 4069  11.446  11.668   0.149 -0.1920  1.1670 -0.7362
  138ccc    C20 4070  11.487  11.521   0.179 -0.4502  0.3600 -0.1761
  138ccc    C21 4071  11.516  11.438   0.053 -0.1915  0.3728  0.1449
  138ccc    H30 4072  11.581  11.527   0.235 -0.0891  0.1305 -0.7460
  138ccc    H31 4073  11.349  11.663   0.099 -0.4837  0.6753 -0.1374
  138ccc    H32 4074  11.429  11.418  -0.010 -0.2166 -0.0919  0.3252
  138ccc    O10 4075  11.586  11.320   0.082 -0.1132 -0.3216 -0.0953
  138ccc    O11 4076  11.439  11.750   0.264 -0.0105  0.2353 -0.2270
  138ccc    C22 4077  11.684  11.694  -0.153 -0.2582 -0.0933 -0.3635
  138ccc    H33 4078  11.512  11.814   0.264  0.1091  0.1171  0.9798
  138ccc    H34 4079  11.298  11.425   0.227 -0.1399 -0.9943  1.8574
  138ccc    H35 4080  11.655  11.775  -0.222  3.9006 -0.2100 -2.5134
  138ccc    H36 4081  11.706  11.610  -0.220  1.5489  0.6730 -0.7802
  138ccc    O12 4082  11.797  11.729  -0.071  0.0361 -0.5058 -0.0482
  138ccc    H37 4083  11.833  11.649  -0.029 -1.2876 -1.1374 -0.0832
  138ccc    O13 4084  11.612  11.515  -0.026 -0.4517  0.5199  0.3866
  138ccc    H38 4085  11.671  11.363   0.102 -1.5772  2.9462 -0.2838
  138ccc    H39 4086  11.653  11.729   0.123  0.1920 -0.8618  0.8550
  138ccc     O5 4087  11.527  11.869   0.040  0.0033 -0.0384 -0.1353
  138ccc    H40 4088  11.606  11.914   0.004  0.1929 -0.6032 -0.4297
  138ccc     N4 4089  11.389  11.445   0.268  0.3090 -0.4839  0.6682
  139ccc     N1 4090  10.386  10.941   0.337  0.1435 -0.1032  0.1845
  139ccc     H4 4091  10.479  10.976   0.356 -0.2806  1.2159 -0.0637
  139ccc     C3 4092  10.354  10.806   0.271  0.2142  0.3283  0.4331
  139ccc     H5 4093  10.246  10.799   0.254  0.4352 -1.8902 -0.3508
  139ccc     C4 4094  10.418  10.681   0.331 -0.4814 -0.1528 -0.2924
  139ccc     H6 4095  10.397  10.817   0.171 -0.8132 -0.9544 -0.1677
  139ccc     H7 4096  10.383  10.651   0.431 -0.1909 -2.2318 -0.7614
  139ccc     H8 4097  10.526  10.699   0.329 -0.1964 -1.6914 -0.2423
  139ccc     N2 4098  10.409  10.561   0.245  0.0094 -0.3461 -1.0066
  139ccc     C5 4099  10.269  10.536   0.211  0.3703  0.5753 -0.1885
  139ccc     C6 4100  10.503  10.572   0.130 -0.0761  0.0815  0.6210
  139ccc     H9 4101  10.467  10.656   0.069 -1.0153  0.7225  2.0203
  139ccc     C7 4102  10.496  10.446   0.040 -0.5895  0.2325 -0.2480
  139ccc    H10 4103  10.608  10.593   0.151  0.0227  1.0498 -0.6835
  139ccc    H11 4104  10.402  10.442  -0.015 -1.3280  0.6710  0.9414
  139ccc    H12 4105  10.513  10.358   0.103 -0.0705  1.5607  1.5775
  139ccc     C8 4106  10.602  10.457  -0.069  0.4806 -0.1044 -0.6637
  139ccc     O2 4107  10.716  10.407  -0.056 -0.1890 -0.4004  0.3122
  139ccc    H13 4108  10.257  10.452   0.142  1.9184 -0.1521  0.3909
  139ccc    H14 4109  10.217  10.624   0.171  1.2340  0.5810 -1.3308
  139ccc     C9 4110  10.201  10.494   0.350 -0.2388 -0.3392  0.1051
  139ccc    H15 4111  10.164  10.583   0.403  0.3642  0.7891 -1.2733
  139ccc    H16 4112  10.263  10.435   0.418 -1.9782 -0.9960  1.1711
  139ccc    C10 4113  10.079  10.416   0.323  0.3609  0.4030 -0.1068
  139ccc     O4 4114   9.975  10.476   0.318  0.4165 -0.0827 -0.7482
  139ccc    C11 4115  10.872  10.663  -0.437 -0.3490  0.5149  0.8724
  139ccc    C12 4116  10.798  10.536  -0.473  0.6994  0.5186 -0.0264
  139ccc    H17 4117  10.960  10.645  -0.375  0.2500  1.0763  0.2112
  139ccc    C13 4118  10.718  10.464  -0.365  0.4240 -0.6501 -0.1338
  139ccc    C14 4119  10.643  10.582  -0.284  0.0456 -0.4561  0.3256
  139ccc    C15 4120  10.737  10.696  -0.238  0.3256 -0.0914 -0.2852
  139ccc    H18 4121  10.571  10.622  -0.356 -0.1317  0.6657  1.1068
  139ccc    H19 4122  10.796  10.424  -0.298  1.0827 -0.0035 -0.4921
  139ccc    H20 4123  10.811  10.645  -0.175 -0.2222 -3.2492 -2.0123
  139ccc     O1 4124  10.677  10.806  -0.175 -0.3379 -0.2457 -0.2053
  139ccc     O6 4125  10.629  10.360  -0.416 -0.5582 -1.1215  0.5501
  139ccc    C16 4126  10.936  10.748  -0.552 -0.0516  0.6334 -0.0027
  139ccc    H21 4127  10.565  10.415  -0.466  0.2310  0.3012  1.0403
  139ccc    H22 4128  10.475  10.576  -0.167  0.1569 -1.2120 -1.3680
  139ccc    H23 4129  10.850  10.778  -0.614  0.7248  3.4148  0.1385
  139ccc    H24 4130  10.988  10.665  -0.602 -0.9285 -0.4254  0.8011
  139ccc     O7 4131  11.014  10.864  -0.512  0.1589 -0.2292 -0.3455
  139ccc    H25 4132  10.963  10.944  -0.535  1.7767  0.8769 -0.2505
  139ccc     O8 4133  10.789  10.754  -0.360  0.0093 -0.0680  0.1229
  139ccc    H26 4134  10.610  10.826  -0.243 -1.0215  1.7514  0.9621
  139ccc    H27 4135  10.729  10.580  -0.546 -0.7320 -1.2584  0.1977
  139ccc     O9 4136  10.887  10.441  -0.535 -0.8707  0.4844 -0.6678
  139ccc    H28 4137  10.831  10.362  -0.539 -0.7634  0.3342  0.5197
  139ccc     N3 4138  10.564  10.528  -0.176  0.9200 -0.0930 -0.0674
  139ccc    C17 4139   9.707  10.112   0.254  0.3606  0.7888 -0.3974
  139ccc    C18 4140   9.783  10.135   0.120 -0.0482  0.2740 -0.7428
  139ccc    H29 4141   9.652  10.204   0.276 -0.9318 -0.3891  1.6476
  139ccc    C19 4142   9.905  10.236   0.137 -0.3361  0.0717 -0.1269
  139ccc    C20 4143   9.980  10.201   0.267  0.0562 -0.0048  0.0347
  139ccc    C21 4144   9.885  10.182   0.387  0.5250  0.2995 -0.7120
  139ccc    H30 4145  10.008  10.096   0.250 -1.3800 -0.2326 -1.0969
  139ccc    H31 4146   9.870  10.340   0.137 -1.1933 -0.1868  1.1509
  139ccc    H32 4147   9.830  10.269   0.424  0.0764 -0.1955 -0.1895
  139ccc    O10 4148   9.951  10.122   0.496  0.4934 -0.3825 -0.4535
  139ccc    O11 4149   9.995  10.231   0.024  0.1144  0.4633  0.5007
  139ccc    C22 4150   9.599   9.996   0.242  0.6997  0.4888 -0.1865
  139ccc    H33 4151   9.950  10.262  -0.056  0.7820  0.9792  0.3111
  139ccc    H34 4152  10.179  10.231   0.313 -0.6904 -1.1827 -0.5684
  139ccc    H35 4153   9.633   9.909   0.185  0.0665  0.2384 -0.1861
  139ccc    H36 4154   9.519  10.032   0.176  0.9447 -1.6823 -1.7523
  139ccc    O12 4155   9.543   9.967   0.374  0.3687  0.1420  0.3331
  139ccc    H37 4156   9.599  10.012   0.439 -1.2543 -0.6921  2.4187
  139ccc    O13 4157   9.786  10.084   0.367 -0.4260  0.5157  0.8572
  139ccc    H38 4158   9.881  10.057   0.516 -0.4164  0.8277  0.3870
  139ccc    H39 4159   9.820  10.037   0.089  0.5672  0.6083 -1.0908
  139ccc     O5 4160   9.687  10.180   0.028  0.0493 -0.4366 -0.0379
  139ccc    H40 4161   9.732  10.205  -0.055  1.8311 -1.6644  0.5067
  139ccc     N4 4162  10.093  10.283   0.297  0.1072  0.4068  0.0834
  140ccc     N1 4163  10.820  11.764   2.506  0.1698 -0.5411  0.9106
  140ccc     H4 4164  10.854  11.730   2.416 -0.7996  0.2060  0.2414
  140ccc     C3 4165  10.878  11.732   2.634  0.1229 -0.3632  0.1688
  140ccc     H5 4166  10.874  11.825   2.692 -0.8057  0.3822 -1.0517
  140ccc     C4 4167  11.023  11.681   2.640 -0.6435 -0.2962 -0.2083
  140ccc     H6 4168  10.821  11.651   2.682  1.1931  0.6293  3.3586
  140ccc     H7 4169  11.025  11.578   2.600 -1.9149 -0.1770 -0.6223
  140ccc     H8 4170  11.057  11.683   2.744 -4.6699 -0.3164  1.2943
  140ccc     N2 4171  11.122  11.754   2.555 -0.4066 -0.1796 -0.6314
  140ccc     C5 4172  11.129  11.900   2.591 -0.4431  0.4819 -0.3427
  140ccc     C6 4173  11.249  11.684   2.550  0.2952  0.5735  0.9146
  140ccc     H9 4174  11.307  11.714   2.638  1.3181 -0.0001  0.4589
  140ccc     C7 4175  11.315  11.708   2.417 -0.1075  0.5114 -0.1387
  140ccc    H10 4176  11.250  11.576   2.565 -0.1080  0.3257 -0.6834
  140ccc    H11 4177  11.322  11.813   2.387 -2.2793  0.7789  0.1455
  140ccc    H12 4178  11.257  11.657   2.339  0.7571  1.1441 -1.2216
  140ccc     C8 4179  11.451  11.639   2.413 -0.0792 -0.6138 -0.6305
  140ccc     O2 4180  11.473  11.524   2.416 -0.4304  0.0338  0.4383
  140ccc    H13 4181  11.032  11.949   2.579  0.3810  2.5527  0.9017
  140ccc    H14 4182  11.204  11.948   2.528  3.6382 -1.0487  2.8448
  140ccc     C9 4183  11.171  11.922   2.736 -0.3476  0.2380  0.1917
  140ccc    H15 4184  11.258  11.857   2.753  0.3547  0.0663 -3.2449
  140ccc    H16 4185  11.092  11.887   2.804 -0.9761  0.8757 -0.1930
  140ccc    C10 4186  11.202  12.069   2.743 -0.3984  0.0050  0.3626
  140ccc     O4 4187  11.223  12.141   2.645  0.0769  0.2348  0.6294
  140ccc    C11 4188  11.932  11.779   2.574 -0.2435 -0.5199  0.4142
  140ccc    C12 4189  11.875  11.646   2.616 -0.4833  0.0129 -0.0127
  140ccc    H17 4190  11.872  11.854   2.627 -0.0540 -0.5220  0.6349
  140ccc    C13 4191  11.725  11.646   2.579  0.8178  0.4678 -0.4105
  140ccc    C14 4192  11.690  11.702   2.440 -0.1134 -0.7388  0.7981
  140ccc    C15 4193  11.763  11.832   2.407 -1.0097 -0.1442  0.8485
  140ccc    H18 4194  11.727  11.630   2.365 -0.7881  0.6223 -0.9182
  140ccc    H19 4195  11.665  11.713   2.640  0.6108  1.6812 -1.8955
  140ccc    H20 4196  11.714  11.917   2.456  1.3883  1.6953  0.2758
  140ccc     O1 4197  11.753  11.858   2.267 -0.4861  0.7919 -0.4226
  140ccc     O6 4198  11.658  11.519   2.589 -0.7227 -0.4437  0.0947
  140ccc    C16 4199  12.085  11.806   2.597  0.3933  0.3811  0.0752
  140ccc    H21 4200  11.572  11.523   2.544 -0.9124  1.5415  0.5115
  140ccc    H22 4201  11.512  11.828   2.429  1.5060  0.4467  0.3407
  140ccc    H23 4202  12.138  11.745   2.523  1.4272  1.7540 -0.3472
  140ccc    H24 4203  12.126  11.772   2.693  4.4596  1.8834 -0.9470
  140ccc     O7 4204  12.116  11.944   2.585  0.3540 -0.1346 -0.2189
  140ccc    H25 4205  12.097  11.961   2.491  1.5265  0.0869 -0.4330
  140ccc     O8 4206  11.905  11.809   2.431  0.5983 -0.3089  0.2035
  140ccc    H26 4207  11.838  11.822   2.237 -0.5542 -0.2299  0.5443
  140ccc    H27 4208  11.913  11.563   2.556 -0.4583 -0.4844  0.6871
  140ccc     O9 4209  11.910  11.625   2.752 -0.2093 -0.0955  0.5550
  140ccc    H28 4210  11.971  11.550   2.759 -0.8064 -0.5471  1.0071
  140ccc     N3 4211  11.545  11.731   2.423 -0.3466 -0.2093 -0.0281
  140ccc    C17 4212  11.365  12.017   3.245  0.2666  0.0382  0.2436
  140ccc    C18 4213  11.206  12.034   3.243 -0.5975 -0.4066  0.4723
  140ccc    H29 4214  11.415  12.114   3.253 -0.8106  0.6801 -0.4089
  140ccc    C19 4215  11.160  12.099   3.111  0.1404 -0.0078 -0.2348
  140ccc    C20 4216  11.227  12.039   2.986  1.2385  0.0036 -0.5361
  140ccc    C21 4217  11.381  12.046   3.013 -0.0051  1.0364  0.7865
  140ccc    H30 4218  11.195  11.934   2.985  0.2842  0.2837 -0.6789
  140ccc    H31 4219  11.194  12.204   3.114  0.0529  0.0077  0.4391
  140ccc    H32 4220  11.426  12.143   3.035  2.9190  0.3868 -1.6542
  140ccc    O10 4221  11.459  11.999   2.905  0.0376 -0.1882 -0.7869
  140ccc    O11 4222  11.024  12.088   3.090  0.3785  0.3122  0.1861
  140ccc    C22 4223  11.405  11.927   3.368  0.2478  0.2633 -0.5758
  140ccc    H33 4224  11.006  11.996   3.066 -2.3664  0.5233  1.0983
  140ccc    H34 4225  11.195  12.218   2.887  0.1852  0.1107  0.2126
  140ccc    H35 4226  11.392  11.981   3.463  0.7070  1.5916 -1.2537
  140ccc    H36 4227  11.513  11.910   3.361  0.5515  1.4706  0.7601
  140ccc    O12 4228  11.339  11.795   3.376 -0.1119  0.0161 -0.8344
  140ccc    H37 4229  11.320  11.784   3.471 -0.2747  2.9329 -0.4488
  140ccc    O13 4230  11.409  11.959   3.125  0.2235  0.2301 -0.0998
  140ccc    H38 4231  11.484  12.086   2.869  1.7126  0.2080  1.1652
  140ccc    H39 4232  11.169  11.932   3.259  0.2418 -0.7002  0.5790
  140ccc     O5 4233  11.169  12.120   3.349 -0.0141 -0.4010 -0.0376
  140ccc    H40 4234  11.075  12.143   3.334 -0.0147  0.3722  0.9998
  140ccc     N4 4235  11.188  12.119   2.866 -0.3318  0.2937 -0.5055
  141ccc     N1 4236  10.198  12.053   2.276  0.2452 -0.7432  0.1932
  141ccc     H4 4237  10.224  12.008   2.363  1.6451  2.4445  1.6075
  141ccc     C3 4238  10.094  12.167   2.289 -0.0725  0.1649 -0.0708
  141ccc     H5 4239  10.006  12.138   2.229  0.9872 -0.2624 -1.4804
  141ccc     C4 4240  10.142  12.313   2.252  0.5709 -0.4303 -0.1168
  141ccc     H6 4241  10.052  12.164   2.390 -0.6971  1.6410 -0.2634
  141ccc     H7 4242  10.067  12.390   2.270  0.8050  0.2144 -1.7322
  141ccc     H8 4243  10.173  12.313   2.147 -1.5082  0.8051 -0.7737
  141ccc     N2 4244  10.258  12.355   2.335  0.0730  0.3882  0.3583
  141ccc     C5 4245  10.243  12.340   2.480  0.1366  0.3178  0.6289
  141ccc     C6 4246  10.386  12.295   2.283 -0.4957 -0.3047  0.3982
  141ccc     H9 4247  10.400  12.197   2.330 -0.4696 -0.4339  0.1209
  141ccc     C7 4248  10.491  12.402   2.305  0.1816  0.4981  0.2943
  141ccc    H10 4249  10.383  12.278   2.175  1.2453 -0.4814  0.3487
  141ccc    H11 4250  10.496  12.425   2.412  2.2440  1.1520  0.1079
  141ccc    H12 4251  10.473  12.496   2.251 -0.4215  1.6872  2.4371
  141ccc     C8 4252  10.625  12.343   2.276  0.0071 -0.2009  0.3421
  141ccc     O2 4253  10.686  12.261   2.348 -0.2075 -0.4630  0.1337
  141ccc    H13 4254  10.341  12.360   2.524  0.2606 -0.3238  0.6603
  141ccc    H14 4255  10.211  12.235   2.491 -0.4045  0.4360  0.1878
  141ccc     C9 4256  10.137  12.445   2.534 -0.6324  0.2991  0.2303
  141ccc    H15 4257  10.032  12.427   2.506 -0.4293 -0.7035  0.0733
  141ccc    H16 4258  10.172  12.545   2.508  1.0494 -0.1895  0.4739
  141ccc    C10 4259  10.138  12.430   2.679 -0.1948 -0.2846 -0.8722
  141ccc     O4 4260  10.151  12.331   2.747  0.0075  0.0011 -0.0490
  141ccc    C11 4261  10.942  12.071   2.019  0.3840  0.1311 -0.0165
  141ccc    C12 4262  10.804  12.070   1.948 -0.5705  0.6906  0.1431
  141ccc    H17 4263  10.926  12.012   2.111  1.9367  0.0143  0.2178
  141ccc    C13 4264  10.702  12.148   2.029 -0.1959  0.4384  0.1841
  141ccc    C14 4265  10.766  12.285   2.072  0.7644  0.5410 -0.7049
  141ccc    C15 4266  10.902  12.274   2.147 -0.2077  0.5746  0.3459
  141ccc    H18 4267  10.782  12.345   1.982 -3.3532  1.4969 -0.9843
  141ccc    H19 4268  10.684  12.086   2.118 -0.2783  0.9702  0.5440
  141ccc    H20 4269  10.894  12.215   2.239 -0.0907 -0.0734 -0.0521
  141ccc     O1 4270  10.964  12.396   2.168 -0.2162 -0.1174  0.2143
  141ccc     O6 4271  10.578  12.167   1.958  0.2554 -0.0792 -0.0020
  141ccc    C16 4272  11.062  12.006   1.944 -0.0335  0.3603 -0.5361
  141ccc    H21 4273  10.527  12.243   1.990  0.2038  0.2489 -0.8188
  141ccc    H22 4274  10.583  12.392   2.086  1.4445  0.7123 -1.2309
  141ccc    H23 4275  11.039  11.904   1.911 -2.3478 -0.2142  2.3612
  141ccc    H24 4276  11.148  12.003   2.012  0.2639 -0.2238 -0.9256
  141ccc     O7 4277  11.092  12.068   1.820  0.1457 -0.1609  0.5055
  141ccc    H25 4278  11.117  12.160   1.839 -0.2391  0.6334 -2.4340
  141ccc     O8 4279  10.987  12.204   2.058 -0.2000  0.2700 -0.0593
  141ccc    H26 4280  11.059  12.375   2.179  0.4966  2.7824  0.3389
  141ccc    H27 4281  10.818  12.113   1.848 -0.4589  1.5695  0.5259
  141ccc     O9 4282  10.763  11.935   1.925  0.0702  0.0033 -0.3169
  141ccc    H28 4283  10.686  11.943   1.866 -0.9212 -0.1443  0.9105
  141ccc     N3 4284  10.659  12.361   2.147  0.1046 -0.6362 -0.1732
  141ccc    C17 4285  10.132  12.728   3.127 -0.1239  0.4303  0.4589
  141ccc    C18 4286   9.993  12.713   3.060 -0.5012  0.6651  0.4931
  141ccc    H29 4287  10.177  12.822   3.093  0.6857  0.1734  0.8057
  141ccc    C19 4288  10.003  12.684   2.908  0.3514 -0.2855  0.1680
  141ccc    C20 4289  10.100  12.568   2.885 -0.3663  0.2702  0.0729
  141ccc    C21 4290  10.242  12.596   2.952  0.2356  0.2783  0.1970
  141ccc    H30 4291  10.071  12.477   2.937  0.2394 -1.8346 -3.0197
  141ccc    H31 4292  10.033  12.775   2.854 -2.4562 -0.1877 -1.4368
  141ccc    H32 4293  10.294  12.676   2.898 -1.6811  0.7473 -1.0682
  141ccc    O10 4294  10.328  12.478   2.946  0.5964 -0.0098  0.8553
  141ccc    O11 4295   9.880  12.639   2.854  0.2492 -0.0493 -0.0606
  141ccc    C22 4296  10.134  12.709   3.277  0.7017  0.9171  0.3765
  141ccc    H33 4297   9.857  12.553   2.891 -0.3338 -0.5715 -1.5483
  141ccc    H34 4298  10.090  12.625   2.687 -1.6117  0.2315  1.2990
  141ccc    H35 4299  10.105  12.607   3.305 -0.4453  1.4835  1.3084
  141ccc    H36 4300  10.052  12.770   3.315 -1.2066 -1.1954 -0.1399
  141ccc    O12 4301  10.264  12.741   3.336  0.0717  0.6322  0.1891
  141ccc    H37 4302  10.267  12.834   3.311 -2.7904  1.1457  1.3109
  141ccc    O13 4303  10.218  12.622   3.085 -0.8322  0.3081 -0.0344
  141ccc    H38 4304  10.393  12.478   2.873  1.0427 -1.6493  1.2378
  141ccc    H39 4305   9.939  12.626   3.100 -0.6722  0.9644  0.9213
  141ccc     O5 4306   9.919  12.829   3.089 -0.0740  0.0210  0.1073
  141ccc    H40 4307   9.829  12.815   3.055  0.1417 -0.6206 -0.2169
  141ccc     N4 4308  10.109  12.541   2.741 -0.6615  0.1663  0.8774
  142ccc     N1 4309  11.395   6.809   0.517  0.3912 -0.1989  0.0441
  142ccc     H4 4310  11.378   6.722   0.567 -0.5644 -0.2031 -0.2798
  142ccc     C3 4311  11.512   6.823   0.429  0.1615  0.2747  0.3025
  142ccc     H5 4312  11.510   6.761   0.339  1.9941 -0.2491  0.5856
  142ccc     C4 4313  11.647   6.791   0.497  0.0761 -0.3576  0.7295
  142ccc     H6 4314  11.523   6.927   0.396  0.4824  0.3662  0.6839
  142ccc     H7 4315  11.659   6.871   0.572 -2.2803  0.0294  0.7680
  142ccc     H8 4316  11.727   6.801   0.423 -0.5875 -2.8916 -0.4292
  142ccc     N2 4317  11.651   6.669   0.560 -0.5237 -0.3561 -0.0486
  142ccc     C5 4318  11.688   6.563   0.468  0.4177 -0.1435 -0.7014
  142ccc     C6 4319  11.729   6.662   0.686  0.1156 -0.8637  0.5264
  142ccc     H9 4320  11.764   6.560   0.706 -1.6927 -1.4183  1.0755
  142ccc     C7 4321  11.628   6.701   0.792  0.2150 -0.1211  0.1238
  142ccc    H10 4322  11.809   6.736   0.689 -0.4114 -0.2971  0.8084
  142ccc    H11 4323  11.596   6.806   0.786  1.0310  0.0703 -1.4021
  142ccc    H12 4324  11.675   6.699   0.891  0.4285  2.5534  0.1380
  142ccc     C8 4325  11.511   6.608   0.798  0.1410 -0.4584 -0.2161
  142ccc     O2 4326  11.395   6.648   0.773 -0.2614 -0.3493 -0.5472
  142ccc    H13 4327  11.755   6.497   0.525 -0.5220 -0.1168  0.4823
  142ccc    H14 4328  11.743   6.606   0.383 -0.3475  0.8205 -0.7273
  142ccc     C9 4329  11.571   6.486   0.413  0.0235 -0.0421 -0.3743
  142ccc    H15 4330  11.509   6.556   0.357 -0.3156  1.4396  1.7456
  142ccc    H16 4331  11.511   6.439   0.491  1.2309 -0.8189  0.1139
  142ccc    C10 4332  11.618   6.376   0.323  0.0945  0.1748 -0.1276
  142ccc     O4 4333  11.680   6.385   0.218 -0.2330 -0.5583  0.0876
  142ccc    C11 4334  11.271   6.203   1.069  0.2175 -0.3400  0.0939
  142ccc    C12 4335  11.403   6.255   1.129  0.0833 -0.8075 -0.3085
  142ccc    H17 4336  11.296   6.119   1.003  0.2905 -0.5252  0.3547
  142ccc    C13 4337  11.501   6.320   1.024 -0.2395  0.0219  0.2813
  142ccc    C14 4338  11.428   6.431   0.949 -0.3259 -0.8369  0.0417
  142ccc    C15 4339  11.300   6.370   0.880  0.4823 -0.6934 -0.9725
  142ccc    H18 4340  11.391   6.506   1.020  0.5590  1.2642 -1.6323
  142ccc    H19 4341  11.532   6.239   0.956  0.3715 -1.9297  2.7500
  142ccc    H20 4342  11.325   6.289   0.811  0.3650 -2.3509  0.8636
  142ccc     O1 4343  11.225   6.461   0.802 -0.1526  0.0096 -0.9949
  142ccc     O6 4344  11.624   6.368   1.081 -0.1141 -0.4873 -0.0917
  142ccc    C16 4345  11.162   6.150   1.169 -0.4064  0.6981 -0.8523
  142ccc    H21 4346  11.690   6.369   1.010  0.2616 -1.2189  0.2371
  142ccc    H22 4347  11.620   6.458   0.876  0.5689 -0.8765  0.2869
  142ccc    H23 4348  11.210   6.081   1.239 -2.1113 -0.2149 -0.5254
  142ccc    H24 4349  11.097   6.093   1.102 -2.7136  1.4573  0.5976
  142ccc     O7 4350  11.078   6.254   1.220  0.3251  0.5117 -0.0436
  142ccc    H25 4351  11.030   6.289   1.143  0.3913  1.6175  0.4048
  142ccc     O8 4352  11.214   6.308   0.981 -0.1252  0.5845  0.1067
  142ccc    H26 4353  11.294   6.528   0.786  0.8138  0.2325  3.0315
  142ccc    H27 4354  11.380   6.330   1.207  1.4404 -0.4613 -0.2214
  142ccc     O9 4355  11.480   6.155   1.193  0.2788  0.5812  0.3968
  142ccc    H28 4356  11.561   6.205   1.207  1.9235 -0.5920 -3.4414
  142ccc     N3 4357  11.525   6.486   0.850  0.8562  0.1699  0.3205
  142ccc    C17 4358  11.790   5.932   0.160 -0.4354  0.6159  0.6106
  142ccc    C18 4359  11.841   5.959   0.307 -0.5411  0.5010  0.9721
  142ccc    H29 4360  11.853   5.994   0.094  0.1264 -0.0930  0.4677
  142ccc    C19 4361  11.802   6.103   0.347  0.3176 -0.4840  0.0119
  142ccc    C20 4362  11.647   6.126   0.318 -0.4820 -0.3231 -0.0090
  142ccc    C21 4363  11.610   6.099   0.171  0.2500  0.0078 -0.3119
  142ccc    H30 4364  11.599   6.045   0.376 -1.5965  1.5251  1.8096
  142ccc    H31 4365  11.857   6.172   0.281  2.1866 -1.6151  0.3141
  142ccc    H32 4366  11.660   6.174   0.109  1.3932 -0.7011 -0.2760
  142ccc    O10 4367  11.465   6.096   0.152  0.4315  0.3328  0.2266
  142ccc    O11 4368  11.813   6.124   0.483 -0.2766  0.0764 -0.8267
  142ccc    C22 4369  11.820   5.784   0.117 -0.0471  0.2884  0.5124
  142ccc    H33 4370  11.905   6.155   0.494 -0.5970  0.7994 -0.0419
  142ccc    H34 4371  11.563   6.238   0.470 -1.5259  0.1971  0.0673
  142ccc    H35 4372  11.738   5.727   0.164 -1.3300  1.0504 -0.7164
  142ccc    H36 4373  11.916   5.763   0.166 -1.0755 -0.0858  2.5132
  142ccc    O12 4374  11.826   5.759  -0.029 -0.0174  0.1385 -0.0775
  142ccc    H37 4375  11.750   5.803  -0.071  0.2683 -1.2820 -2.2497
  142ccc    O13 4376  11.648   5.962   0.139 -0.3445 -0.1610 -0.3107
  142ccc    H38 4377  11.457   6.031   0.080 -0.5862  0.5828  0.1004
  142ccc    H39 4378  11.792   5.884   0.370  1.4528 -0.4994  1.4114
  142ccc     O5 4379  11.986   5.954   0.332  0.4882 -0.0101  0.6956
  142ccc    H40 4380  12.002   5.987   0.422  0.4430 -1.7093  1.3520
  142ccc     N4 4381  11.593   6.254   0.374  0.0430 -0.1750  0.4620
  143ccc     N1 4382  11.236   6.586   1.211  0.3343 -0.4264  0.4557
  143ccc     H4 4383  11.146   6.543   1.196  0.5603 -1.1089  1.0206
  143ccc     C3 4384  11.292   6.552   1.345 -0.3894  0.1747 -0.6533
  143ccc     H5 4385  11.278   6.444   1.361 -0.0528  0.3942  1.3512
  143ccc     C4 4386  11.247   6.628   1.466  0.3593 -0.8132 -0.0631
  143ccc     H6 4387  11.401   6.553   1.336 -0.0563 -2.0762  1.8255
  143ccc     H7 4388  11.142   6.607   1.492 -0.0333  1.1640  0.1320
  143ccc     H8 4389  11.250   6.738   1.456  0.7109 -0.9127 -1.1151
  143ccc     N2 4390  11.323   6.598   1.585 -0.3874 -0.2166 -0.7017
  143ccc     C5 4391  11.326   6.453   1.621  0.6137  0.2781 -0.0466
  143ccc     C6 4392  11.459   6.656   1.568  0.2533 -0.5640  0.4795
  143ccc     H9 4393  11.529   6.574   1.545 -1.6100 -1.9261 -0.6097
  143ccc     C7 4394  11.498   6.733   1.690 -0.0562  0.1812 -0.6785
  143ccc    H10 4395  11.458   6.722   1.481  0.3009 -2.9683 -1.4586
  143ccc    H11 4396  11.488   6.666   1.776  1.1185  1.1993  0.2894
  143ccc    H12 4397  11.435   6.822   1.704  0.0958  0.0494  1.1070
  143ccc     C8 4398  11.648   6.761   1.663  0.1278 -0.0824  0.2689
  143ccc     O2 4399  11.735   6.694   1.711  0.3515  0.3566  0.3854
  143ccc    H13 4400  11.370   6.392   1.542  0.8503 -0.6632  0.7886
  143ccc    H14 4401  11.390   6.448   1.711 -1.1506 -0.0280  1.2558
  143ccc     C9 4402  11.189   6.400   1.655  0.4251  0.4540 -0.7708
  143ccc    H15 4403  11.125   6.382   1.568  0.1857 -3.5061  0.0293
  143ccc    H16 4404  11.149   6.469   1.730 -2.3861 -2.8412  0.9925
  143ccc    C10 4405  11.211   6.267   1.735  0.2685 -0.5788  0.1032
  143ccc     O4 4406  11.252   6.164   1.685 -0.3229  0.2289  0.1893
  143ccc    C11 4407  11.900   7.064   1.290  0.4500  0.0056 -0.9339
  143ccc    C12 4408  11.914   7.108   1.443 -0.1469 -0.9092 -0.1044
  143ccc    H17 4409  11.808   7.099   1.241  0.6555 -1.5345 -2.5311
  143ccc    C13 4410  11.803   7.061   1.539  0.8214 -0.6765  0.4864
  143ccc    C14 4411  11.781   6.908   1.522 -1.0949 -0.7249  0.1538
  143ccc    C15 4412  11.777   6.870   1.368  0.0338 -0.8260 -0.4555
  143ccc    H18 4413  11.871   6.867   1.569  0.1831  1.6577 -0.0762
  143ccc    H19 4414  11.711   7.118   1.524  2.3954  1.6272 -1.3155
  143ccc    H20 4415  11.692   6.923   1.324 -0.6625 -0.8761  0.8002
  143ccc     O1 4416  11.784   6.733   1.339  0.0899  0.3530 -0.0532
  143ccc     O6 4417  11.860   7.085   1.673  0.5700  0.0091  0.3624
  143ccc    C16 4418  12.025   7.107   1.209 -1.0254  0.4745 -0.3011
  143ccc    H21 4419  11.827   7.173   1.698 -1.5323 -0.8503  0.8092
  143ccc    H22 4420  11.582   6.926   1.566 -0.5453 -1.1286 -2.2217
  143ccc    H23 4421  12.115   7.063   1.253 -1.1487 -1.3819 -1.7688
  143ccc    H24 4422  12.039   7.215   1.217  0.1811  0.2428  1.0134
  143ccc     O7 4423  12.019   7.076   1.075  0.3022  0.2005 -0.2621
  143ccc    H25 4424  11.967   7.140   1.022  1.7345 -1.2691 -3.7060
  143ccc     O8 4425  11.887   6.926   1.295 -0.0755  0.1943 -0.1472
  143ccc    H26 4426  11.699   6.721   1.294 -0.2894  1.8017  0.2209
  143ccc    H27 4427  12.009   7.074   1.484  1.2649  1.9857 -0.7008
  143ccc     O9 4428  11.920   7.255   1.450 -0.0364  0.2395 -0.1820
  143ccc    H28 4429  11.833   7.296   1.435 -0.1231  0.8528  1.7488
  143ccc     N3 4430  11.664   6.874   1.598  0.0385  0.9251 -0.1235
  143ccc    C17 4431  11.200   5.887   2.057  0.2487 -0.4729 -0.4218
  143ccc    C18 4432  11.316   5.985   2.101  0.4390 -0.0724 -0.5028
  143ccc    H29 4433  11.222   5.842   1.960 -1.5114  1.8091 -1.9925
  143ccc    C19 4434  11.324   6.103   1.999  0.1158 -1.0090  0.1165
  143ccc    C20 4435  11.181   6.166   1.973  0.2554  0.0819  0.0098
  143ccc    C21 4436  11.089   6.051   1.921 -0.5771  0.2788  0.5039
  143ccc    H30 4437  11.137   6.209   2.064  1.7616  2.1679 -0.1745
  143ccc    H31 4438  11.360   6.060   1.904  2.1792  1.7870 -0.4985
  143ccc    H32 4439  11.127   6.008   1.828  1.2495 -0.9819  1.7630
  143ccc    O10 4440  10.956   6.095   1.910 -0.6287  0.0175 -0.3084
  143ccc    O11 4441  11.412   6.205   2.050  0.4192  0.2060 -0.3698
  143ccc    C22 4442  11.172   5.782   2.166 -0.0495  0.1622 -0.3597
  143ccc    H33 4443  11.374   6.289   2.016 -2.1438 -0.8725 -0.4359
  143ccc    H34 4444  11.242   6.353   1.911  0.9625 -1.9875  2.9587
  143ccc    H35 4445  11.124   5.825   2.254 -0.5208  0.0514 -0.5638
  143ccc    H36 4446  11.270   5.746   2.199 -0.3413  1.5374  2.2086
  143ccc    O12 4447  11.093   5.677   2.114 -0.0736  0.3935  0.0231
  143ccc    H37 4448  11.107   5.597   2.168 -2.7540  0.3019  0.7336
  143ccc    O13 4449  11.079   5.956   2.033  0.0185  0.0656  0.1082
  143ccc    H38 4450  10.898   6.027   1.949  0.3782 -0.2734  0.7476
  143ccc    H39 4451  11.307   6.025   2.202  2.2851 -4.0306  1.4298
  143ccc     O5 4452  11.441   5.922   2.103 -0.4215  0.2435 -0.0331
  143ccc    H40 4453  11.511   5.980   2.138 -0.8528  1.7873 -1.5914
  143ccc     N4 4454  11.185   6.279   1.871 -0.8259  0.3035  0.9304
  144ccc     N1 4455  10.960   8.504  -0.058  0.3825  0.3204  0.4496
  144ccc     H4 4456  10.928   8.443  -0.133  1.5283  2.3703 -1.8371
  144ccc     C3 4457  11.007   8.638  -0.098 -0.2149 -0.3759 -0.4521
  144ccc     H5 4458  10.925   8.689  -0.150 -0.5665 -0.9571 -0.4780
  144ccc     C4 4459  11.131   8.628  -0.186 -1.1145 -0.3118  0.2213
  144ccc     H6 4460  11.042   8.704  -0.017  1.2591 -0.6015 -0.8805
  144ccc     H7 4461  11.214   8.594  -0.124 -0.1883 -3.6299 -2.5429
  144ccc     H8 4462  11.151   8.729  -0.225 -1.1936 -1.3343 -2.7244
  144ccc     N2 4463  11.112   8.539  -0.298 -0.3367  0.4684  0.3696
  144ccc     C5 4464  11.001   8.572  -0.388  0.3111 -0.6330  0.3829
  144ccc     C6 4465  11.235   8.511  -0.375 -0.2219  0.0349  0.8303
  144ccc     H9 4466  11.203   8.427  -0.437  0.3845  0.2284  0.2432
  144ccc     C7 4467  11.347   8.462  -0.285  0.6883  0.1085 -0.1726
  144ccc    H10 4468  11.270   8.592  -0.440 -0.7834 -0.0001  0.4818
  144ccc    H11 4469  11.294   8.400  -0.212  3.4285 -2.7650 -0.4110
  144ccc    H12 4470  11.397   8.544  -0.232  0.3846  0.4246 -0.3620
  144ccc     C8 4471  11.449   8.382  -0.368  0.4667 -0.2859  0.2073
  144ccc     O2 4472  11.466   8.258  -0.373  0.4620 -0.3837  0.7051
  144ccc    H13 4473  11.027   8.660  -0.447  0.5516 -0.1921  1.1289
  144ccc    H14 4474  10.912   8.607  -0.333  0.9993  1.1095  0.4570
  144ccc     C9 4475  10.955   8.459  -0.474  0.3944  0.5451 -0.3329
  144ccc    H15 4476  10.934   8.381  -0.400 -0.9010  0.8127 -0.3984
  144ccc    H16 4477  11.029   8.432  -0.550  2.6333  1.1473  1.5047
  144ccc    C10 4478  10.830   8.499  -0.543 -0.0533 -1.0615 -0.0080
  144ccc     O4 4479  10.816   8.614  -0.581  0.5761  0.6950  0.5488
  144ccc    C11 4480  11.730   8.257  -0.753  0.1954 -0.0787  0.0790
  144ccc    C12 4481  11.621   8.361  -0.797  0.4807 -0.7706  0.7564
  144ccc    H17 4482  11.679   8.161  -0.739 -0.7702  0.2765 -0.7957
  144ccc    C13 4483  11.532   8.390  -0.674  0.6652  0.2502  0.4582
  144ccc    C14 4484  11.619   8.421  -0.550 -0.6052 -0.1940 -0.3308
  144ccc    C15 4485  11.718   8.301  -0.521  0.4368  0.4967 -0.3495
  144ccc    H18 4486  11.681   8.500  -0.594  0.2760 -1.7865 -2.1136
  144ccc    H19 4487  11.478   8.297  -0.653 -2.6578  1.9581  0.0305
  144ccc    H20 4488  11.662   8.209  -0.501  0.7571 -0.1869 -2.3655
  144ccc     O1 4489  11.795   8.329  -0.409  0.4560  0.6717  0.4568
  144ccc     O6 4490  11.427   8.489  -0.707 -0.4672  0.1974  0.0969
  144ccc    C16 4491  11.832   8.224  -0.863 -0.0030 -0.4524  0.0634
  144ccc    H21 4492  11.454   8.568  -0.657  1.2341  0.7367 -1.5585
  144ccc    H22 4493  11.507   8.561  -0.450 -1.9604  0.0646 -0.3843
  144ccc    H23 4494  11.910   8.298  -0.882  0.7295 -1.4360 -0.8706
  144ccc    H24 4495  11.787   8.211  -0.962  2.1274  1.9831 -1.3518
  144ccc     O7 4496  11.906   8.106  -0.817 -0.4413  0.1103  0.1035
  144ccc    H25 4497  11.965   8.138  -0.746 -1.0164  1.1371  0.1425
  144ccc     O8 4498  11.801   8.298  -0.633  0.3911  0.1723  0.2903
  144ccc    H26 4499  11.800   8.426  -0.403  0.7762  0.8140 -1.5193
  144ccc    H27 4500  11.678   8.451  -0.824 -1.1545 -0.3319 -1.4925
  144ccc     O9 4501  11.544   8.313  -0.909 -0.6278 -0.2704  0.5631
  144ccc    H28 4502  11.459   8.361  -0.915 -0.7242 -0.5711 -0.9326
  144ccc     N3 4503  11.528   8.462  -0.441  0.1017  0.4736 -0.1949
  144ccc    C17 4504  10.576   8.064  -0.373  0.5832 -0.5017  0.7253
  144ccc    C18 4505  10.623   8.050  -0.522  0.2360 -0.0770  0.7450
  144ccc    H29 4506  10.472   8.096  -0.387  1.0676  1.3628  1.1446
  144ccc    C19 4507  10.631   8.186  -0.598  0.2865  0.0953 -0.7245
  144ccc    C20 4508  10.716   8.284  -0.511  0.2515  0.4259  0.5138
  144ccc    C21 4509  10.656   8.289  -0.372  0.3832 -0.2751 -0.0811
  144ccc    H30 4510  10.813   8.233  -0.502 -0.6340 -0.9056  5.1264
  144ccc    H31 4511  10.528   8.221  -0.611  0.9816  2.8500  0.5601
  144ccc    H32 4512  10.550   8.319  -0.369 -0.1642 -2.1165  1.3964
  144ccc    O10 4513  10.723   8.368  -0.276  0.0734 -0.1508  0.4892
  144ccc    O11 4514  10.698   8.173  -0.723 -0.0222  0.0221 -0.1692
  144ccc    C22 4515  10.599   7.932  -0.301  0.2899 -0.0542 -0.1020
  144ccc    H33 4516  10.688   8.260  -0.766  0.2107 -0.7353 -1.8556
  144ccc    H34 4517  10.649   8.463  -0.600 -0.4435 -0.1935 -1.5300
  144ccc    H35 4518  10.573   7.841  -0.356  0.2166 -0.5843  0.7881
  144ccc    H36 4519  10.539   7.930  -0.209 -1.1630  0.0099 -1.0227
  144ccc    O12 4520  10.734   7.925  -0.259  0.1955 -0.2734 -0.7895
  144ccc    H37 4521  10.765   8.017  -0.261 -2.1898  0.6363  0.2290
  144ccc    O13 4522  10.648   8.164  -0.304  0.7228 -0.4432 -0.3452
  144ccc    H38 4523  10.657   8.363  -0.205 -0.2513 -0.6545  0.1569
  144ccc    H39 4524  10.723   8.006  -0.530 -1.5448 -4.2416 -1.3743
  144ccc     O5 4525  10.534   7.965  -0.594  0.3477 -0.1149  0.6617
  144ccc    H40 4526  10.556   7.976  -0.688  0.8792  0.2269  0.8161
  144ccc     N4 4527  10.735   8.417  -0.570 -0.4024  0.6501 -0.3084
  145ccc     N1 4528  10.425   8.123  -0.070 -0.3418  0.5242 -0.1429
  145ccc     H4 4529  10.485   8.202  -0.087  3.1721 -1.5204  1.5655
  145ccc     C3 4530  10.279   8.132  -0.080 -0.1479  0.1406 -0.1893
  145ccc     H5 4531  10.224   8.045  -0.117  1.6301  0.1991 -3.2861
  145ccc     C4 4532  10.217   8.254  -0.159  0.0181 -0.0535 -0.9597
  145ccc     H6 4533  10.249   8.144   0.025  0.1003 -0.3640 -0.0610
  145ccc     H7 4534  10.242   8.347  -0.107  1.7219 -0.9386 -0.1361
  145ccc     H8 4535  10.108   8.241  -0.157 -0.0255  0.4157  0.2916
  145ccc     N2 4536  10.250   8.252  -0.302 -0.1083  0.3769 -0.0457
  145ccc     C5 4537  10.227   8.381  -0.369 -0.2856 -0.3782  0.2263
  145ccc     C6 4538  10.207   8.133  -0.377  0.1049  0.0993  0.7842
  145ccc     H9 4539  10.259   8.050  -0.328 -1.0519  0.4238  2.6712
  145ccc     C7 4540  10.226   8.126  -0.524  0.2968 -0.3032  0.6930
  145ccc    H10 4541  10.100   8.116  -0.360 -0.3910  1.3755 -0.7766
  145ccc    H11 4542  10.331   8.144  -0.553 -0.7102  2.3048 -1.8676
  145ccc    H12 4543  10.183   8.215  -0.572  0.9798 -0.9762 -1.2601
  145ccc     C8 4544  10.168   8.002  -0.581  0.0303 -0.0368 -0.1280
  145ccc     O2 4545  10.078   7.941  -0.528  0.2894 -0.4716  0.5336
  145ccc    H13 4546  10.275   8.383  -0.468 -1.3803 -0.0862 -0.3196
  145ccc    H14 4547  10.268   8.462  -0.307 -0.3104 -0.6513  0.6008
  145ccc     C9 4548  10.086   8.417  -0.393 -0.2690  0.0988  0.0350
  145ccc    H15 4549  10.020   8.415  -0.305 -3.0585 -3.0286 -1.9019
  145ccc    H16 4550  10.046   8.350  -0.469 -0.7818 -2.1658  2.1915
  145ccc    C10 4551  10.103   8.554  -0.449 -0.0484 -0.5955  0.1132
  145ccc     O4 4552  10.103   8.651  -0.375 -0.6942 -0.5173 -0.3204
  145ccc    C11 4553  10.072   7.744  -1.043  0.2606  0.3633 -0.9715
  145ccc    C12 4554  10.066   7.673  -0.904 -0.7687  0.2701  0.0276
  145ccc    H17 4555  10.172   7.730  -1.086 -0.2647 -5.0526 -1.0693
  145ccc    C13 4556  10.130   7.751  -0.789 -0.4336 -0.4526 -0.1041
  145ccc    C14 4557  10.114   7.903  -0.802  0.1323 -0.3315  0.1404
  145ccc    C15 4558  10.133   7.949  -0.944 -0.2594 -0.1813  0.1540
  145ccc    H18 4559  10.009   7.931  -0.792 -0.4938 -2.8406  1.6322
  145ccc    H19 4560  10.236   7.728  -0.804 -0.4726  0.1964 -1.4638
  145ccc    H20 4561  10.234   7.921  -0.976 -0.1590 -0.1061  0.4033
  145ccc     O1 4562  10.123   8.087  -0.965  0.4101  0.8040  0.1665
  145ccc     O6 4563  10.083   7.701  -0.666  0.1735 -0.4099 -0.1412
  145ccc    C16 4564   9.985   7.689  -1.155  0.8409  0.2120 -0.1376
  145ccc    H21 4565  10.092   7.772  -0.601  0.7852  1.0364 -1.7501
  145ccc    H22 4566  10.280   8.018  -0.747 -0.7330  2.1760  1.3281
  145ccc    H23 4567   9.881   7.718  -1.138  0.0906 -1.7396 -1.0983
  145ccc    H24 4568   9.987   7.579  -1.160  0.7633  0.2588 -1.4030
  145ccc     O7 4569  10.019   7.741  -1.284  0.2731 -0.3102 -0.0946
  145ccc    H25 4570  10.113   7.723  -1.299 -0.3917 -2.6012 -2.2567
  145ccc     O8 4571  10.043   7.886  -1.036 -0.0280 -0.2993 -0.3383
  145ccc    H26 4572  10.052   8.085  -1.032 -0.8811 -0.1444  1.4895
  145ccc    H27 4573   9.962   7.654  -0.875 -0.3376 -2.0811  0.2272
  145ccc     O9 4574  10.126   7.538  -0.913 -0.4421 -0.0872 -0.1109
  145ccc    H28 4575  10.063   7.491  -0.856 -1.8244  0.8806 -0.7887
  145ccc     N3 4576  10.206   7.963  -0.704 -0.2744  0.3096 -0.1153
  145ccc    C17 4577  10.051   8.970  -0.678 -0.5976  0.8040  0.7273
  145ccc    C18 4578  10.191   8.919  -0.714  0.0884 -0.2058 -0.1219
  145ccc    H29 4579  10.066   9.007  -0.576 -0.1589 -1.2637  1.4403
  145ccc    C19 4580  10.213   8.779  -0.655 -0.2508 -0.7928  0.3709
  145ccc    C20 4581  10.098   8.677  -0.673 -0.1144 -1.2895  0.3710
  145ccc    C21 4582   9.965   8.752  -0.636  0.5958  0.1877  0.4594
  145ccc    H30 4583  10.091   8.640  -0.776 -1.1009 -1.2975  0.4290
  145ccc    H31 4584  10.227   8.783  -0.546  1.8928 -0.0185  0.1109
  145ccc    H32 4585   9.954   8.776  -0.529  1.2502  1.5887  0.2426
  145ccc    O10 4586   9.854   8.675  -0.682 -0.7089 -0.4880 -0.3996
  145ccc    O11 4587  10.326   8.713  -0.724  0.5997 -1.0050 -0.2518
  145ccc    C22 4588  10.017   9.092  -0.762 -0.0405  0.5546 -0.1787
  145ccc    H33 4589  10.350   8.764  -0.803 -0.0028  1.2495  0.9285
  145ccc    H34 4590  10.092   8.472  -0.633  2.0259 -0.7002 -0.4538
  145ccc    H35 4591  10.008   9.060  -0.867 -1.6123  1.7892 -0.4684
  145ccc    H36 4592  10.096   9.168  -0.764  0.8708 -0.3766 -0.4731
  145ccc    O12 4593   9.888   9.144  -0.729 -0.3090  0.6708  0.1931
  145ccc    H37 4594   9.830   9.079  -0.685  1.6503 -0.8287  0.6739
  145ccc    O13 4595   9.949   8.870  -0.712  0.2155 -0.4387 -0.2809
  145ccc    H38 4596   9.790   8.657  -0.611  0.4026  2.8354  1.6873
  145ccc    H39 4597  10.199   8.919  -0.824 -1.7521  3.2418 -0.3926
  145ccc     O5 4598  10.286   9.004  -0.668 -0.5505  0.5630 -0.2994
  145ccc    H40 4599  10.370   8.973  -0.706 -0.2611 -0.1739  0.8739
  145ccc     N4 4600  10.119   8.557  -0.583  0.2927 -0.2722 -0.1822
  146ccc     N1 4601  12.695   8.449   2.516  0.0501 -0.0388 -0.2409
  146ccc     H4 4602  12.691   8.550   2.523  1.4777  0.2151 -2.3192
  146ccc     C3 4603  12.762   8.364   2.621  0.3302  0.2063  0.0117
  146ccc     H5 4604  12.695   8.283   2.652 -1.9914  1.0979 -2.2502
  146ccc     C4 4605  12.799   8.445   2.749 -0.3825  0.2172 -0.5453
  146ccc     H6 4606  12.859   8.328   2.584  0.9764  1.5122  0.3766
  146ccc     H7 4607  12.707   8.453   2.810  0.1632  1.0394  0.1942
  146ccc     H8 4608  12.835   8.547   2.728 -3.6137  1.6055 -0.0754
  146ccc     N2 4609  12.897   8.373   2.836  0.7311  0.4995 -0.0750
  146ccc     C5 4610  13.027   8.339   2.775  0.7745  0.3631  0.0976
  146ccc     C6 4611  12.922   8.435   2.963 -0.0388  0.0541 -0.8828
  146ccc     H9 4612  12.990   8.363   3.010 -0.7938 -0.8561 -1.1496
  146ccc     C7 4613  12.793   8.429   3.043  0.0348 -0.1965  0.1031
  146ccc    H10 4614  12.961   8.537   2.951 -0.7258  0.6346  1.3538
  146ccc    H11 4615  12.752   8.327   3.035  1.0462 -0.6933  1.0611
  146ccc    H12 4616  12.716   8.502   3.013  1.1091  0.9850  0.1280
  146ccc     C8 4617  12.819   8.454   3.184  0.2458  0.2552 -0.6795
  146ccc     O2 4618  12.922   8.496   3.235 -0.6266 -0.7098  0.2100
  146ccc    H13 4619  13.103   8.355   2.852 -0.4836 -2.9781  2.1998
  146ccc    H14 4620  13.054   8.406   2.692  0.4911  1.0706  0.5697
  146ccc     C9 4621  13.026   8.195   2.748 -0.4807  0.2517  0.3965
  146ccc    H15 4622  12.976   8.169   2.654  0.3193  1.2070 -0.3185
  146ccc    H16 4623  12.974   8.143   2.829 -0.1268  2.9097  2.4980
  146ccc    C10 4624  13.173   8.153   2.744  0.1628  0.1883  0.0355
  146ccc     O4 4625  13.242   8.177   2.648 -0.0800  0.2462 -0.1712
  146ccc    C11 4626  12.794   8.488   3.678  0.1244  0.2926  0.3064
  146ccc    C12 4627  12.680   8.571   3.617  0.0442 -0.3031 -0.5019
  146ccc    H17 4628  12.891   8.537   3.666  1.2405 -1.7996  0.3681
  146ccc    C13 4629  12.684   8.586   3.468  0.6179  0.2397 -0.0698
  146ccc    C14 4630  12.701   8.444   3.413 -0.0360 -0.3798  0.1843
  146ccc    C15 4631  12.819   8.374   3.480  1.0263 -0.5051  0.1242
  146ccc    H18 4632  12.618   8.380   3.444  0.4216 -1.3725 -0.6032
  146ccc    H19 4633  12.770   8.648   3.437  0.8219  0.6550  1.2444
  146ccc    H20 4634  12.918   8.420   3.468  0.5649  0.3076 -0.6528
  146ccc     O1 4635  12.830   8.243   3.430 -0.4812 -0.0772 -0.4278
  146ccc     O6 4636  12.558   8.643   3.419 -0.7080  0.2727  0.3946
  146ccc    C16 4637  12.756   8.460   3.826 -0.2384  0.4261  0.0818
  146ccc    H21 4638  12.557   8.740   3.409  0.6393  0.0413 -3.7921
  146ccc    H22 4639  12.616   8.420   3.224 -1.4125  1.3774  1.1510
  146ccc    H23 4640  12.670   8.392   3.823  0.1944 -0.1145 -2.6422
  146ccc    H24 4641  12.731   8.555   3.875  1.3302  0.6435  0.5312
  146ccc     O7 4642  12.866   8.399   3.889 -0.1833 -0.2825  0.0901
  146ccc    H25 4643  12.882   8.319   3.837  0.0692  0.1933 -0.5847
  146ccc     O8 4644  12.790   8.362   3.613  0.1203  0.8354  0.0648
  146ccc    H26 4645  12.849   8.190   3.510  0.5525  0.7923 -0.0737
  146ccc    H27 4646  12.585   8.519   3.633 -0.0419 -0.0340 -0.1472
  146ccc     O9 4647  12.689   8.701   3.677  0.2827  0.2932  0.4579
  146ccc    H28 4648  12.637   8.753   3.614 -1.1047 -0.4835  0.9232
  146ccc     N3 4649  12.708   8.439   3.264 -0.3486  0.3359 -0.6761
  146ccc    C17 4650  13.598   8.083   3.090  0.3742 -0.0450  0.9338
  146ccc    C18 4651  13.570   7.965   2.992 -0.8381 -0.3253  0.2943
  146ccc    H29 4652  13.539   8.052   3.177 -2.2988  0.1663 -0.6632
  146ccc    C19 4653  13.419   7.956   2.953 -0.8118  0.0327  0.5689
  146ccc    C20 4654  13.371   8.090   2.881 -0.3639 -0.1378 -1.0613
  146ccc    C21 4655  13.404   8.198   2.993 -0.3100 -0.4171 -0.3982
  146ccc    H30 4656  13.435   8.110   2.794 -0.6013 -0.9231 -1.4285
  146ccc    H31 4657  13.358   7.944   3.044  0.5194  2.2772  1.8407
  146ccc    H32 4658  13.338   8.185   3.080  2.3758 -1.4634  1.6182
  146ccc    O10 4659  13.377   8.331   2.941 -0.5655  0.5064 -0.7393
  146ccc    O11 4660  13.396   7.848   2.854  0.2235  0.2693 -0.5264
  146ccc    C22 4661  13.745   8.106   3.121  0.3226  0.9954  0.3611
  146ccc    H33 4662  13.306   7.849   2.817 -0.9072  1.2784  2.0053
  146ccc    H34 4663  13.176   8.064   2.928  0.8626 -2.0165 -0.5116
  146ccc    H35 4664  13.797   8.168   3.047  0.6505 -0.8554 -1.0457
  146ccc    H36 4665  13.789   8.005   3.124  0.8677  1.2435  0.9842
  146ccc    O12 4666  13.783   8.169   3.245 -0.7432 -0.9464 -0.0636
  146ccc    H37 4667  13.759   8.111   3.319  1.3873  0.1637  1.6451
  146ccc    O13 4668  13.540   8.201   3.034 -0.2786  0.3162 -0.2147
  146ccc    H38 4669  13.389   8.398   3.010 -2.0236  0.2628 -0.2061
  146ccc    H39 4670  13.621   7.990   2.898 -0.6289 -1.0964  0.1977
  146ccc     O5 4671  13.618   7.834   3.037 -0.1585 -0.0758 -0.0364
  146ccc    H40 4672  13.587   7.767   2.974  0.3759  0.0902 -0.4924
  146ccc     N4 4673  13.229   8.080   2.842  0.5653 -0.2024 -0.3859
  147ccc     N1 4674  12.890   8.490   1.826  0.2758 -0.1585  0.8622
  147ccc     H4 4675  12.881   8.396   1.862 -0.0721 -0.5345 -0.1918
  147ccc     C3 4676  12.987   8.517   1.721 -0.3803  0.4799 -0.2198
  147ccc     H5 4677  12.932   8.545   1.631  1.6289 -0.9009 -1.9627
  147ccc     C4 4678  13.073   8.399   1.680 -0.5271 -0.8034 -0.2463
  147ccc     H6 4679  13.043   8.605   1.755  2.8617 -1.4705 -0.0705
  147ccc     H7 4680  13.009   8.315   1.650  1.4357 -2.2124 -0.7280
  147ccc     H8 4681  13.128   8.365   1.769 -1.1159 -0.8230  0.1094
  147ccc     N2 4682  13.170   8.432   1.582 -0.1729  0.0307  0.4456
  147ccc     C5 4683  13.105   8.479   1.456 -0.3425  0.0058 -0.1594
  147ccc     C6 4684  13.277   8.510   1.637 -0.2171 -0.4525  0.0946
  147ccc     H9 4685  13.270   8.614   1.602 -1.3643 -0.1805  1.0813
  147ccc     C7 4686  13.424   8.432   1.609  0.5934 -0.0794 -0.0958
  147ccc    H10 4687  13.265   8.520   1.746  0.7743  0.2563  0.1543
  147ccc    H11 4688  13.385   8.405   1.510 -1.9978 -3.2808  1.5881
  147ccc    H12 4689  13.385   8.344   1.661 -3.4501  1.1154 -0.7708
  147ccc     C8 4690  13.667   8.497   1.624 -0.4474 -0.4255 -0.1790
  147ccc     O2 4691  13.757   8.510   1.538 -0.4158  0.2367 -0.1249
  147ccc    H13 4692  13.061   8.579   1.465  0.8078  0.3520  2.8213
  147ccc    H14 4693  13.024   8.410   1.427 -2.3254  2.4504 -0.7830
  147ccc     C9 4694  13.197   8.487   1.343  0.5673 -0.3294 -0.5845
  147ccc    H15 4695  13.239   8.388   1.322 -2.2666 -1.0233 -3.9271
  147ccc    H16 4696  13.275   8.557   1.376 -0.1421  0.4718 -0.5723
  147ccc    C10 4697  13.129   8.526   1.217  0.0473 -0.0135 -0.2280
  147ccc     O4 4698  13.010   8.548   1.203  0.5057  0.3369 -0.0484
  147ccc    C11 4699  14.170   8.535   1.644  0.1340  0.1792 -0.3549
  147ccc    C12 4700  14.118   8.675   1.685 -0.6268  0.0668 -0.1550
  147ccc    H17 4701  14.140   8.529   1.539 -1.8817  0.3991  0.1796
  147ccc    C13 4702  13.967   8.667   1.670  0.3624 -0.4138 -0.0405
  147ccc    C14 4703  13.899   8.544   1.744 -0.2831 -0.7767  0.1385
  147ccc    C15 4704  13.983   8.413   1.721 -0.0152  0.3452  0.4034
  147ccc    H18 4705  13.923   8.553   1.851  4.5846  0.1701 -0.7832
  147ccc    H19 4706  13.940   8.654   1.565 -2.3483  1.6830  0.2965
  147ccc    H20 4707  13.959   8.358   1.629  1.1475 -0.1616  0.3776
  147ccc     O1 4708  13.949   8.323   1.828 -1.0071  0.3838  0.5498
  147ccc     O6 4709  13.883   8.779   1.718 -0.6322 -0.1482  0.0873
  147ccc    C16 4710  14.326   8.521   1.627 -0.0604 -0.5088  0.2270
  147ccc    H21 4711  13.922   8.821   1.797 -1.1476  2.0900 -0.7941
  147ccc    H22 4712  13.724   8.517   1.828 -0.9321  1.4985 -0.8351
  147ccc    H23 4713  14.364   8.580   1.711 -0.2212 -0.8987  0.5797
  147ccc    H24 4714  14.364   8.563   1.534 -0.3872 -1.7016 -0.4792
  147ccc     O7 4715  14.369   8.386   1.634 -0.2355  0.1013  0.4913
  147ccc    H25 4716  14.382   8.367   1.728 -0.0069  0.4863  0.5389
  147ccc     O8 4717  14.118   8.443   1.738 -0.1459 -0.3769 -0.5319
  147ccc    H26 4718  14.009   8.247   1.824  0.4816  1.4545  1.6531
  147ccc    H27 4719  14.139   8.692   1.792  2.1799 -1.0757 -0.4568
  147ccc     O9 4720  14.167   8.774   1.599  0.4580 -0.6225  0.6047
  147ccc    H28 4721  14.178   8.852   1.656  3.0161  0.4365 -1.1723
  147ccc     N3 4722  13.758   8.523   1.732  0.1185 -0.2821 -0.6160
  147ccc    C17 4723  13.592   8.465   0.928  0.1935 -0.0216  0.2265
  147ccc    C18 4724  13.577   8.598   0.994 -0.6041  0.2013 -0.0975
  147ccc    H29 4725  13.566   8.469   0.821  1.6935 -0.3339 -0.1903
  147ccc    C19 4726  13.427   8.633   1.032 -0.2470 -0.4791 -0.5095
  147ccc    C20 4727  13.348   8.510   1.085  0.3540 -0.2634  0.1284
  147ccc    C21 4728  13.380   8.385   1.003 -0.2757 -0.0746  0.4848
  147ccc    H30 4729  13.394   8.487   1.183 -2.0840  0.5218  1.5426
  147ccc    H31 4730  13.383   8.660   0.935 -1.1865  1.5638  0.4156
  147ccc    H32 4731  13.342   8.403   0.901  0.2280  1.5435  0.5698
  147ccc    O10 4732  13.320   8.274   1.059  0.7100  0.0233 -0.8057
  147ccc    O11 4733  13.416   8.742   1.128 -0.3321  0.0282 -0.0846
  147ccc    C22 4734  13.743   8.422   0.926 -0.3080 -0.4933  0.4333
  147ccc    H33 4735  13.468   8.725   1.208  0.8684  2.4448 -0.2590
  147ccc    H34 4736  13.155   8.549   1.019 -1.7008 -1.8722  1.1808
  147ccc    H35 4737  13.773   8.424   1.031  1.6399  2.3585 -0.0658
  147ccc    H36 4738  13.791   8.503   0.870 -0.4658  0.6933  1.9366
  147ccc    O12 4739  13.761   8.292   0.858 -0.2385 -0.0903  0.0843
  147ccc    H37 4740  13.856   8.271   0.849 -0.3280 -0.2140 -0.5821
  147ccc    O13 4741  13.518   8.362   0.997  0.0587 -0.4737  0.7875
  147ccc    H38 4742  13.371   8.196   1.031  1.2469 -0.0889  0.4265
  147ccc    H39 4743  13.638   8.606   1.085 -0.3206 -1.7364 -0.0810
  147ccc     O5 4744  13.613   8.706   0.907  0.2290 -0.5466 -0.4051
  147ccc    H40 4745  13.672   8.767   0.954  0.7422 -1.9496  0.8233
  147ccc     N4 4746  13.202   8.536   1.108  1.0847  0.7757  0.2625
  148ccc     N1 4747  11.090   8.314   2.983  0.5771 -0.1735  0.5539
  148ccc     H4 4748  11.161   8.286   3.050 -0.3683  1.0608  2.1545
  148ccc     C3 4749  10.953   8.300   3.044 -0.0681  0.1646 -0.1802
  148ccc     H5 4750  10.967   8.258   3.145 -1.4449 -1.1256 -0.4796
  148ccc     C4 4751  10.855   8.210   2.974 -0.5852 -0.1125  0.3566
  148ccc     H6 4752  10.910   8.399   3.061 -1.0270 -0.0377 -1.3716
  148ccc     H7 4753  10.912   8.122   2.942 -1.7502 -2.2916  3.7094
  148ccc     H8 4754  10.806   8.254   2.887  0.7237 -1.3585 -1.0820
  148ccc     N2 4755  10.747   8.174   3.066 -0.4754  0.1322 -0.0815
  148ccc     C5 4756  10.679   8.283   3.139 -0.4957  0.9326  0.5939
  148ccc     C6 4757  10.657   8.091   2.998  0.7127  0.0266  0.0963
  148ccc     H9 4758  10.554   8.130   3.001  0.1519 -1.4528  0.8587
  148ccc     C7 4759  10.653   7.952   3.063  0.0715 -0.4121  0.1003
  148ccc    H10 4760  10.691   8.063   2.898  0.4859 -5.2439  1.2038
  148ccc    H11 4761  10.629   7.971   3.168  1.7981 -2.4567  0.9531
  148ccc    H12 4762  10.746   7.895   3.074  1.1435  1.6173  2.5062
  148ccc     C8 4763  10.552   7.857   3.010 -0.0359 -0.1773  0.3272
  148ccc     O2 4764  10.455   7.883   2.941  0.5241  0.2400  0.2486
  148ccc    H13 4765  10.630   8.350   3.068  0.9724  2.2927  0.8025
  148ccc    H14 4766  10.759   8.344   3.184  0.5464  0.8064 -1.0118
  148ccc     C9 4767  10.585   8.226   3.242  0.0961  0.3807  0.2817
  148ccc    H15 4768  10.638   8.161   3.312 -0.5468 -0.2327  0.2107
  148ccc    H16 4769  10.494   8.174   3.209  0.8573 -1.0241  0.3384
  148ccc    C10 4770  10.544   8.350   3.317  0.6270  0.8017  0.4739
  148ccc     O4 4771  10.593   8.383   3.424  0.2079  0.2261 -0.0736
  148ccc    C11 4772  10.226   7.319   3.180  0.3046  0.1966 -0.4187
  148ccc    C12 4773  10.140   7.508   3.138 -0.6817  0.4801  0.6558
  148ccc    H17 4774  10.214   7.301   3.288 -1.1170  2.9082 -0.0658
  148ccc    C13 4775  10.265   7.665   3.058  0.9960  0.2064 -0.0387
  148ccc    C14 4776  10.469   7.618   3.017  0.8483 -0.3637 -0.1350
  148ccc    C15 4777  10.547   7.432   3.075 -0.2539 -0.6918  0.1974
  148ccc    H18 4778  10.473   7.614   2.908  0.8366 -0.4423 -0.1324
  148ccc    H19 4779  10.251   7.743   3.133  0.0258  0.0925 -0.0975
  148ccc    H20 4780  10.615   7.451   3.158 -0.5799  2.1013 -0.0751
  148ccc     O1 4781  10.631   7.379   2.971 -0.7191 -0.3294 -0.0018
  148ccc     O6 4782  10.197   7.726   2.941 -0.0538 -0.1648 -0.4150
  148ccc    C16 4783  10.137   7.205   3.120 -0.0433 -0.3745 -0.4884
  148ccc    H21 4784  10.261   7.795   2.917  0.8166 -0.3071  1.4026
  148ccc    H22 4785  10.654   7.702   3.095  0.4962  0.8484  1.0784
  148ccc    H23 4786  10.041   7.199   3.171  0.8733 -3.4296  1.1264
  148ccc    H24 4787  10.186   7.108   3.137  0.7485  0.2493  1.0504
  148ccc     O7 4788  10.106   7.229   2.987 -1.0092 -0.4835  0.2585
  148ccc    H25 4789  10.096   7.143   2.942  1.8456  0.1701 -1.9290
  148ccc     O8 4790  10.418   7.290   3.142 -0.5832 -0.7261  0.2662
  148ccc    H26 4791  10.682   7.325   3.034 -0.2126  0.3882  0.2064
  148ccc    H27 4792  10.065   7.499   3.058 -0.7859  0.9332  0.6979
  148ccc     O9 4793  10.064   7.555   3.247 -0.6976  0.0389 -0.6708
  148ccc    H28 4794   9.975   7.518   3.233 -0.8067  0.0844 -0.1167
  148ccc     N3 4795  10.572   7.733   3.042  0.7811  0.1557  0.2188
  148ccc    C17 4796  10.093   8.468   3.027  0.5752  0.3123 -0.2757
  148ccc    C18 4797  10.227   8.513   2.958 -0.0089  0.1826  0.4551
  148ccc    H29 4798  10.058   8.542   3.100  0.5034 -2.7898  3.0885
  148ccc    C19 4799  10.338   8.529   3.063 -0.0382 -0.0553  0.0503
  148ccc    C20 4800  10.348   8.406   3.155  0.0511 -0.1933 -0.6280
  148ccc    C21 4801  10.210   8.376   3.215  0.0684 -0.5174 -0.2015
  148ccc    H30 4802  10.372   8.329   3.081  1.2467 -1.0622  0.5983
  148ccc    H31 4803  10.302   8.603   3.135 -0.2549 -0.5515  0.4581
  148ccc    H32 4804  10.170   8.449   3.287  1.3787 -1.4155  1.5118
  148ccc    O10 4805  10.208   8.259   3.292 -0.3292  0.1766 -0.2527
  148ccc    O11 4806  10.466   8.560   3.003 -0.0719  0.0955 -0.3707
  148ccc    C22 4807   9.972   8.441   2.941  0.0373  0.5012  0.3135
  148ccc    H33 4808  10.529   8.580   3.075  0.0300  2.4846 -1.0366
  148ccc    H34 4809  10.433   8.522   3.301 -2.0868  1.3280 -3.2504
  148ccc    H35 4810   9.943   8.541   2.906  0.8538  0.3469 -0.8294
  148ccc    H36 4811   9.883   8.408   2.997 -0.7695  1.7930 -0.1580
  148ccc    O12 4812   9.997   8.357   2.825  0.2060 -0.1402  0.3183
  148ccc    H37 4813  10.037   8.271   2.849 -0.7926 -0.7957 -0.3211
  148ccc    O13 4814  10.115   8.352   3.110  0.1383  0.6268  0.0546
  148ccc    H38 4815  10.217   8.183   3.231  0.5318 -0.7906  1.0366
  148ccc    H39 4816  10.266   8.437   2.889  2.4746  2.5909 -1.0000
  148ccc     O5 4817  10.213   8.633   2.884 -0.5662 -0.4126 -0.2271
  148ccc    H40 4818  10.286   8.634   2.820 -0.5084  0.1980 -0.1557
  148ccc     N4 4819  10.453   8.431   3.258  0.1973  0.3151 -0.3603
  149ccc     N1 4820  11.745   8.277   3.076 -0.1613  0.2794 -0.4377
  149ccc     H4 4821  11.710   8.372   3.074  1.0345  0.7134 -1.3299
  149ccc     C3 4822  11.810   8.222   3.201  0.5975 -0.1540 -0.9897
  149ccc     H5 4823  11.769   8.122   3.221  0.9660  0.0406  1.0313
  149ccc     C4 4824  11.786   8.316   3.326  0.3062 -0.1349  0.5720
  149ccc     H6 4825  11.918   8.210   3.188  0.9470  0.6483  0.8057
  149ccc     H7 4826  11.678   8.331   3.336  0.3607  0.1629  0.7207
  149ccc     H8 4827  11.826   8.414   3.299  0.0747 -0.3600 -0.6358
  149ccc     N2 4828  11.853   8.267   3.445  0.9236  0.6004  0.6641
  149ccc     C5 4829  11.974   8.343   3.478 -0.0573  0.3575  0.1259
  149ccc     C6 4830  11.773   8.260   3.564 -0.0329  0.6497 -0.0115
  149ccc     H9 4831  11.841   8.225   3.643  1.9841  1.4664 -1.2930
  149ccc     C7 4832  11.656   8.166   3.565 -0.1159  0.3213  0.5046
  149ccc    H10 4833  11.739   8.362   3.585 -1.4698  0.2137 -0.1119
  149ccc    H11 4834  11.668   8.092   3.486 -0.2319  1.3612 -0.5102
  149ccc    H12 4835  11.554   8.200   3.544 -1.3018 -2.2680  1.6392
  149ccc     C8 4836  11.655   8.093   3.696  0.1424 -0.3116  0.2735
  149ccc     O2 4837  11.658   8.151   3.803  0.3629  0.0592 -0.0466
  149ccc    H13 4838  12.033   8.283   3.548 -2.2824 -4.1922 -1.4711
  149ccc    H14 4839  11.944   8.437   3.528 -0.4342  0.3041  0.0034
  149ccc     C9 4840  12.067   8.368   3.359  0.3945  0.7595  0.3456
  149ccc    H15 4841  12.016   8.436   3.291 -0.1564 -0.9799 -1.0616
  149ccc    H16 4842  12.100   8.278   3.306  1.6944  2.2263 -1.4532
  149ccc    C10 4843  12.186   8.440   3.395  0.0986  0.1638 -0.0694
  149ccc     O4 4844  12.202   8.562   3.398  0.1585  0.3823  0.1440
  149ccc    C11 4845  11.485   7.843   4.081  0.1931  0.1848 -0.3367
  149ccc    C12 4846  11.382   7.843   3.965  0.1603  0.3206 -0.2376
  149ccc    H17 4847  11.494   7.947   4.116 -0.6634  0.3563 -0.6000
  149ccc    C13 4848  11.431   7.921   3.832  0.0471 -0.2437 -0.4316
  149ccc    C14 4849  11.583   7.881   3.803 -0.1596  0.1340 -0.0284
  149ccc    C15 4850  11.671   7.883   3.936  0.1647 -0.7786 -0.1359
  149ccc    H18 4851  11.564   7.778   3.769  0.8594  0.5080 -1.8308
  149ccc    H19 4852  11.442   8.028   3.854 -1.1525 -0.5159  1.7386
  149ccc    H20 4853  11.685   7.983   3.978 -0.0997 -1.4350  1.6171
  149ccc     O1 4854  11.804   7.834   3.918 -0.7690 -0.1387 -0.2143
  149ccc     O6 4855  11.352   7.893   3.713  0.7349 -0.0495  0.0226
  149ccc    C16 4856  11.443   7.759   4.198  0.1200  0.1346 -0.1861
  149ccc    H21 4857  11.415   7.894   3.638  0.0136 -0.5765 -0.6101
  149ccc    H22 4858  11.627   7.917   3.603  2.3280  1.3421 -1.5672
  149ccc    H23 4859  11.419   7.658   4.161  0.1441  0.5423 -1.3339
  149ccc    H24 4860  11.350   7.801   4.239 -0.1609 -0.1304 -0.5401
  149ccc     O7 4861  11.543   7.748   4.293  0.0400 -0.2829  0.3263
  149ccc    H25 4862  11.624   7.722   4.245 -0.0456  0.7587 -0.4087
  149ccc     O8 4863  11.609   7.788   4.026  0.1371 -0.5219 -0.2816
  149ccc    H26 4864  11.783   7.740   3.931 -1.8831  0.0954 -0.2174
  149ccc    H27 4865  11.379   7.738   3.931  0.7638  0.7501 -1.6978
  149ccc     O9 4866  11.255   7.878   4.009 -0.1855 -0.3850  0.0241
  149ccc    H28 4867  11.193   7.859   3.937 -0.6694  0.6557  0.1442
  149ccc     N3 4868  11.640   7.962   3.693  1.0568 -0.2414 -0.5421
  149ccc    C17 4869  12.485   8.034   3.580  0.4369 -0.0695  0.1161
  149ccc    C18 4870  12.408   8.112   3.685 -0.0952  0.1062  0.3847
  149ccc    H29 4871  12.581   8.084   3.562  0.6808 -1.1182 -1.8679
  149ccc    C19 4872  12.365   8.253   3.626 -0.6488 -0.1671 -0.0925
  149ccc    C20 4873  12.317   8.241   3.484 -0.0553  0.4124  0.1368
  149ccc    C21 4874  12.418   8.159   3.391  0.4442 -0.0618 -0.1749
  149ccc    H30 4875  12.224   8.183   3.481  0.2226 -0.3251  3.2444
  149ccc    H31 4876  12.458   8.310   3.616 -0.3019 -0.7921 -0.4998
  149ccc    H32 4877  12.523   8.191   3.391  0.3679  0.2687 -1.8727
  149ccc    O10 4878  12.372   8.139   3.260  0.2527  0.2014  0.2648
  149ccc    O11 4879  12.265   8.314   3.708 -0.6052 -0.0107 -0.0171
  149ccc    C22 4880  12.493   7.888   3.636 -0.3128 -0.1489  0.1697
  149ccc    H33 4881  12.309   8.313   3.795 -0.2365 -0.9165 -0.1999
  149ccc    H34 4882  12.380   8.441   3.425  0.0945  0.1970  1.7473
  149ccc    H35 4883  12.394   7.842   3.646 -0.5408 -0.0573 -1.3860
  149ccc    H36 4884  12.532   7.883   3.738 -0.7473  0.5186  0.3789
  149ccc    O12 4885  12.575   7.809   3.552 -0.2191  0.2057  0.0139
  149ccc    H37 4886  12.555   7.714   3.562  1.0687 -0.3096 -1.8348
  149ccc    O13 4887  12.411   8.031   3.455  0.2160  0.0269 -0.3076
  149ccc    H38 4888  12.425   8.202   3.209  1.0156 -0.3986  0.3033
  149ccc    H39 4889  12.326   8.052   3.725  0.5445 -1.5684 -0.7306
  149ccc     O5 4890  12.506   8.140   3.789 -0.6124  0.4414  0.4111
  149ccc    H40 4891  12.472   8.160   3.878 -0.3920  0.8657  0.4028
  149ccc     N4 4892  12.301   8.377   3.423  0.4722 -0.2616 -0.2091
  150ccc     N1 4893  12.116  10.826   0.046  0.5576 -0.5969  0.2252
  150ccc     H4 4894  12.118  10.781   0.136 -1.4192 -3.6055 -1.0898
  150ccc     C3 4895  12.125  10.968   0.030  0.2622 -0.3512  0.3659
  150ccc     H5 4896  12.102  10.996  -0.074  0.4210 -1.2960  0.0591
  150ccc     C4 4897  12.265  11.030   0.054 -0.2431 -0.5097  0.4724
  150ccc     H6 4898  12.047  11.021   0.086  1.3442  1.6151  0.0764
  150ccc     H7 4899  12.332  10.973  -0.011 -0.9438 -1.7111  0.7645
  150ccc     H8 4900  12.291  11.002   0.157  0.1645  0.8986  0.7776
  150ccc     N2 4901  12.291  11.173   0.036  0.7534  0.4995 -0.8790
  150ccc     C5 4902  12.239  11.234  -0.084  0.4300  0.3624 -0.2060
  150ccc     C6 4903  12.433  11.217   0.058  0.4226  0.5144  0.0925
  150ccc     H9 4904  12.507  11.164  -0.003  1.2142  1.8448 -0.1512
  150ccc     C7 4905  12.471  11.217   0.204 -0.1842  0.1573 -0.1407
  150ccc    H10 4906  12.443  11.322   0.025  0.3144 -0.3582 -3.0730
  150ccc    H11 4907  12.477  11.112   0.235 -0.5190  0.4660  1.0185
  150ccc    H12 4908  12.391  11.259   0.266  1.1327  0.8089  1.1879
  150ccc     C8 4909  12.605  11.288   0.227 -0.0170  0.0333  0.8365
  150ccc     O2 4910  12.621  11.409   0.242  0.2046 -0.0789 -0.3155
  150ccc    H13 4911  12.250  11.343  -0.084  0.5892  0.3455 -0.0383
  150ccc    H14 4912  12.131  11.224  -0.103  0.1654  0.8415  0.9994
  150ccc     C9 4913  12.315  11.191  -0.212 -0.1822 -0.2808 -0.0992
  150ccc    H15 4914  12.292  11.084  -0.220  0.2243 -0.2854 -1.6791
  150ccc    H16 4915  12.424  11.202  -0.208 -0.2681  0.3356  0.8420
  150ccc    C10 4916  12.271  11.265  -0.339  0.3295  0.3631  0.4211
  150ccc     O4 4917  12.338  11.356  -0.384  0.5511  0.0170  0.8019
  150ccc    C11 4918  13.095  11.423   0.301 -0.1979  0.4891 -0.0792
  150ccc    C12 4919  13.039  11.315   0.403 -0.9224  0.5580 -0.3683
  150ccc    H17 4920  13.050  11.521   0.320  0.3547  0.3271  2.4374
  150ccc    C13 4921  12.891  11.277   0.373 -0.5660 -0.4499 -1.2014
  150ccc    C14 4922  12.860  11.251   0.225  0.6428 -0.1830  0.0964
  150ccc    C15 4923  12.900  11.379   0.146  1.3345 -0.1271 -0.0342
  150ccc    H18 4924  12.924  11.173   0.182 -1.8475 -1.5421 -1.4195
  150ccc    H19 4925  12.834  11.366   0.404 -0.1485 -1.1912  2.1039
  150ccc    H20 4926  12.854  11.472   0.181 -1.4988 -1.0830 -0.9257
  150ccc     O1 4927  12.877  11.351   0.005 -0.0564 -0.0474  0.0772
  150ccc     O6 4928  12.852  11.168   0.451  0.3571  0.8998 -0.0798
  150ccc    C16 4929  13.251  11.444   0.304  0.4471 -0.1466  0.0990
  150ccc    H21 4930  12.907  11.090   0.428 -2.1446 -1.8301  2.3278
  150ccc    H22 4931  12.700  11.109   0.216  0.6300  0.1040 -3.5204
  150ccc    H23 4932  13.276  11.474   0.407  0.7386  0.9872 -0.2802
  150ccc    H24 4933  13.274  11.538   0.251 -1.6361  1.3376  1.6602
  150ccc     O7 4934  13.317  11.327   0.263  0.4860 -0.1138  0.1898
  150ccc    H25 4935  13.408  11.360   0.258  0.1684  0.9232  0.9246
  150ccc     O8 4936  13.049  11.390   0.164  0.4080 -0.1331  0.0409
  150ccc    H26 4937  12.932  11.274  -0.020 -1.9981 -1.2199 -0.8193
  150ccc    H27 4938  13.102  11.228   0.383 -0.0205  0.9658  0.6320
  150ccc     O9 4939  13.052  11.367   0.533  0.1390 -0.1915  0.1955
  150ccc    H28 4940  13.075  11.289   0.587 -0.9954 -0.5469  0.1769
  150ccc     N3 4941  12.711  11.209   0.207 -0.2507  0.6600 -0.0235
  150ccc    C17 4942  12.060  11.086  -0.795 -0.4818  0.3676  1.5751
  150ccc    C18 4943  11.998  11.218  -0.748 -0.2267 -0.6357 -0.2237
  150ccc    H29 4944  11.993  11.004  -0.768  0.1268 -0.8936 -0.4933
  150ccc    C19 4945  12.011  11.240  -0.592  0.4919 -0.2386  0.3179
  150ccc    C20 4946  12.156  11.210  -0.546 -0.0291  0.6283  0.2451
  150ccc    C21 4947  12.208  11.071  -0.601 -0.7512 -0.8316 -0.0137
  150ccc    H30 4948  12.215  11.290  -0.591 -1.0070  0.8794 -0.6201
  150ccc    H31 4949  11.953  11.165  -0.537  1.7201  0.4861  2.7444
  150ccc    H32 4950  12.163  10.987  -0.548  0.3591 -0.0235  2.3654
  150ccc    O10 4951  12.347  11.066  -0.567  0.2130  0.2816 -0.2068
  150ccc    O11 4952  11.973  11.376  -0.551  0.4810  0.1866 -0.2256
  150ccc    C22 4953  12.095  11.085  -0.949  0.4622  0.0575 -0.0473
  150ccc    H33 4954  12.010  11.391  -0.462  1.2173  0.5350 -0.5864
  150ccc    H34 4955  12.114  11.152  -0.346  0.0088  1.2506  1.6301
  150ccc    H35 4956  12.146  11.180  -0.971  1.2140 -0.1727  0.6426
  150ccc    H36 4957  12.009  11.076  -1.017  0.7903 -0.8499 -0.3652
  150ccc    O12 4958  12.182  10.976  -0.967 -0.1123  0.2492  0.1112
  150ccc    H37 4959  12.226  10.968  -0.880  0.1275 -3.9082 -0.2302
  150ccc    O13 4960  12.193  11.067  -0.740  0.4308  0.1982 -0.0162
  150ccc    H38 4961  12.388  11.032  -0.649 -0.4704  0.8979 -0.8119
  150ccc    H39 4962  12.051  11.306  -0.787 -0.0920 -0.4547  0.3500
  150ccc     O5 4963  11.865  11.215  -0.789 -0.4278 -0.0914 -0.2888
  150ccc    H40 4964  11.833  11.303  -0.761  2.1265  0.5759  0.7504
  150ccc     N4 4965  12.160  11.229  -0.395 -0.5113  0.4111 -0.2929
  151ccc     N1 4966  12.162   9.990  -0.352  0.8039  0.5562  0.2625
  151ccc     H4 4967  12.242   9.979  -0.290 -0.0135 -3.1971  0.8853
  151ccc     C3 4968  12.153   9.890  -0.463 -0.4441 -0.0216  0.6603
  151ccc     H5 4969  12.160   9.788  -0.424  0.8087  0.2098  1.0633
  151ccc     C4 4970  12.273   9.904  -0.562  0.0889 -0.0011  1.0226
  151ccc     H6 4971  12.058   9.906  -0.515  0.0387  1.4729  0.1929
  151ccc     H7 4972  12.359   9.917  -0.495  1.6276 -0.7643 -0.7005
  151ccc     H8 4973  12.259   9.989  -0.631 -0.5859  0.2555  1.4652
  151ccc     N2 4974  12.287   9.774  -0.635  0.3828  0.0620 -0.0695
  151ccc     C5 4975  12.412   9.755  -0.709  0.0578  0.0586  0.3858
  151ccc     C6 4976  12.175   9.761  -0.726  0.4402  0.2863 -0.2853
  151ccc     H9 4977  12.086   9.798  -0.674  1.8813  0.3165  2.3921
  151ccc     C7 4978  12.159   9.614  -0.757  0.8254  0.1192 -0.2892
  151ccc    H10 4979  12.186   9.826  -0.813  0.3348  1.5074  0.5842
  151ccc    H11 4980  12.172   9.552  -0.667  1.3053  0.5924 -0.0244
  151ccc    H12 4981  12.240   9.588  -0.826 -0.0288 -1.4983 -0.7034
  151ccc     C8 4982  12.028   9.593  -0.830  0.8871  0.4558 -0.7359
  151ccc     O2 4983  11.992   9.655  -0.933  0.1636  0.1286 -0.6881
  151ccc    H13 4984  12.411   9.820  -0.798  3.6246  0.6003  0.5808
  151ccc    H14 4985  12.419   9.649  -0.737  1.6215 -0.0359  1.0035
  151ccc     C9 4986  12.543   9.782  -0.630  0.6335  0.4490 -0.3315
  151ccc    H15 4987  12.539   9.723  -0.538 -3.3901 -0.0613 -0.6656
  151ccc    H16 4988  12.552   9.888  -0.604 -0.1099  0.5454 -0.4565
  151ccc    C10 4989  12.661   9.742  -0.709 -0.7276  0.2767 -0.1201
  151ccc     O4 4990  12.650   9.711  -0.826  0.3164  0.0180 -0.0280
  151ccc    C11 4991  11.712   9.166  -0.911  0.0578  0.6750 -0.2005
  151ccc    C12 4992  11.640   9.272  -0.820  0.4154  0.3937  0.9446
  151ccc    H17 4993  11.762   9.087  -0.854  0.9015  2.5435  1.8108
  151ccc    C13 4994  11.736   9.360  -0.738  0.1323  0.1450  0.1715
  151ccc    C14 4995  11.844   9.417  -0.835 -0.6603 -0.1147 -0.6978
  151ccc    C15 4996  11.909   9.292  -0.901 -0.1245  0.5886  0.7027
  151ccc    H18 4997  11.794   9.483  -0.907 -0.6752 -0.8687 -1.3891
  151ccc    H19 4998  11.788   9.299  -0.663 -1.5457 -0.9292  0.4864
  151ccc    H20 4999  11.937   9.218  -0.824  1.0505 -0.9349 -1.1071
  151ccc     O1 5000  12.018   9.325  -0.981 -0.4126  0.1144  0.1158
  151ccc     O6 5001  11.664   9.458  -0.663  0.1212  0.0676  0.4714
  151ccc    C16 5002  11.612   9.096  -1.003  0.0329  0.4176 -0.1318
  151ccc    H21 5003  11.629   9.525  -0.724  2.1192 -0.7574 -1.7452
  151ccc    H22 5004  12.004   9.449  -0.693  0.6062 -0.2769 -1.3338
  151ccc    H23 5005  11.579   9.166  -1.082  1.0966 -0.7844 -1.6915
  151ccc    H24 5006  11.516   9.064  -0.960  0.5718  0.1624  0.8950
  151ccc     O7 5007  11.668   8.984  -1.067 -0.5376 -0.2137 -0.3104
  151ccc    H25 5008  11.622   8.907  -1.028  0.7742  0.9528  4.0680
  151ccc     O8 5009  11.814   9.227  -0.983 -0.0143 -0.6399  0.2449
  151ccc    H26 5010  11.976   9.368  -1.058 -0.5312  0.9228  0.6150
  151ccc    H27 5011  11.579   9.341  -0.880  1.3798  0.2845 -0.2016
  151ccc     O9 5012  11.556   9.203  -0.725 -0.4509 -0.0998  0.2875
  151ccc    H28 5013  11.479   9.259  -0.708 -1.0713 -0.9226  0.2724
  151ccc     N3 5014  11.954   9.498  -0.767 -0.1705 -0.6124 -1.0502
  151ccc    C17 5015  13.051   9.632  -0.961 -0.5330  0.0704  0.0243
  151ccc    C18 5016  13.068   9.769  -0.916 -0.2713 -0.3948  0.2997
  151ccc    H29 5017  12.969   9.635  -1.033  0.3175 -0.4846 -0.9962
  151ccc    C19 5018  12.950   9.816  -0.820  0.5700  0.3023 -0.3375
  151ccc    C20 5019  12.909   9.709  -0.714 -0.3157 -0.2243  0.3921
  151ccc    C21 5020  12.915   9.563  -0.774 -0.8037 -0.5901 -0.1357
  151ccc    H30 5021  12.991   9.722  -0.641 -1.8760 -1.6460  2.5261
  151ccc    H31 5022  12.862   9.826  -0.885  0.8674 -2.5166 -1.2962
  151ccc    H32 5023  12.824   9.542  -0.832  0.3911 -1.2821 -1.8625
  151ccc    O10 5024  12.915   9.477  -0.661 -0.6281 -0.5460  0.4386
  151ccc    O11 5025  12.968   9.944  -0.770  0.3426  0.0767 -0.1727
  151ccc    C22 5026  13.177   9.583  -1.033 -0.6031 -0.9912  0.0977
  151ccc    H33 5027  12.888   9.998  -0.781 -1.7804 -2.8607 -0.2311
  151ccc    H34 5028  12.786   9.760  -0.547 -1.6477 -0.8816 -0.2036
  151ccc    H35 5029  13.254   9.567  -0.957 -0.3595  2.0876  0.6617
  151ccc    H36 5030  13.210   9.665  -1.099 -1.3457 -2.0161 -1.6245
  151ccc    O12 5031  13.152   9.471  -1.119 -0.1077  0.1571 -0.2332
  151ccc    H37 5032  13.075   9.428  -1.079  0.9186 -2.6192 -0.9595
  151ccc    O13 5033  13.035   9.546  -0.851 -0.1864  0.2163 -0.4063
  151ccc    H38 5034  12.906   9.388  -0.698 -0.6131 -0.6158  0.6018
  151ccc    H39 5035  13.158   9.772  -0.854 -0.2765  1.6354  0.2806
  151ccc     O5 5036  13.075   9.866  -1.031  0.0083  0.5619  0.1955
  151ccc    H40 5037  13.132   9.936  -0.997 -0.0924  0.3752  0.7584
  151ccc     N4 5038  12.784   9.736  -0.646 -0.0837 -0.3391 -0.3920
  152ccc     N1 5039  12.505  10.105   1.287 -0.1745  0.5968 -0.0488
  152ccc     H4 5040  12.454  10.022   1.258 -1.7611  1.6725 -0.4504
  152ccc     C3 5041  12.603  10.083   1.394 -0.3816  0.3089 -0.0622
  152ccc     H5 5042  12.683  10.156   1.374 -0.8756  0.9559  0.2901
  152ccc     C4 5043  12.659   9.936   1.409 -0.0635  0.3797  0.4394
  152ccc     H6 5044  12.560  10.130   1.483 -1.9127  2.6166 -1.9168
  152ccc     H7 5045  12.685   9.900   1.309 -2.3937  0.3101 -0.1979
  152ccc     H8 5046  12.573   9.869   1.422 -0.6667  0.4308 -2.6518
  152ccc     N2 5047  12.766   9.937   1.510  0.4066 -0.2551 -0.2418
  152ccc     C5 5048  12.731   9.841   1.616 -0.0402  0.2884 -0.1642
  152ccc     C6 5049  12.896   9.904   1.451  0.6763 -0.0786  0.8190
  152ccc     H9 5050  12.962   9.885   1.536 -2.1677 -3.0132  2.6063
  152ccc     C7 5051  12.937  10.023   1.366 -0.2297 -0.3128  0.2905
  152ccc    H10 5052  12.886   9.811   1.394 -1.7347  0.9549 -0.5925
  152ccc    H11 5053  12.930  10.114   1.426 -2.1222  0.3405 -0.8527
  152ccc    H12 5054  12.885  10.035   1.270  1.3856 -1.2915 -0.7567
  152ccc     C8 5055  13.087  10.004   1.334 -0.3489 -0.2551 -0.3277
  152ccc     O2 5056  13.167   9.915   1.370  0.3415 -0.6263 -0.2627
  152ccc    H13 5057  12.824   9.810   1.665  0.6291 -0.1414 -1.6376
  152ccc    H14 5058  12.696   9.746   1.573  1.1174 -1.1596  1.9438
  152ccc     C9 5059  12.616   9.895   1.706 -0.1800  0.7211  0.0474
  152ccc    H15 5060  12.520   9.869   1.660 -1.3862  1.8092  1.8622
  152ccc    H16 5061  12.619  10.004   1.717 -0.6715  0.7157  0.2500
  152ccc    C10 5062  12.634   9.835   1.839 -0.0079  0.5709 -0.4443
  152ccc     O4 5063  12.720   9.877   1.917  0.2851  0.2535  0.0376
  152ccc    C11 5064  13.550  10.029   1.209 -0.6922  0.5176  0.7428
  152ccc    C12 5065  13.463  10.013   1.091  0.7276  0.5241 -0.7065
  152ccc    H17 5066  13.544   9.941   1.275 -2.3314  0.4849  0.5912
  152ccc    C13 5067  13.314  10.004   1.129 -0.0440 -0.5883 -0.3749
  152ccc    C14 5068  13.272  10.123   1.218 -0.0473  0.0418 -0.0674
  152ccc    C15 5069  13.372  10.137   1.336  0.3012  0.1993 -0.2617
  152ccc    H18 5070  13.278  10.213   1.155 -0.2458  0.2103  0.1530
  152ccc    H19 5071  13.294   9.905   1.169 -0.3056 -0.5709 -0.4596
  152ccc    H20 5072  13.368  10.048   1.399  0.1455  0.1123 -0.3937
  152ccc     O1 5073  13.341  10.257   1.412 -0.1526  0.0318  0.0879
  152ccc     O6 5074  13.241  10.023   1.009  0.6950  0.1337 -0.3974
  152ccc    C16 5075  13.703  10.051   1.166 -0.4118  0.2663  0.0922
  152ccc    H21 5076  13.149  10.019   1.040  2.0114 -1.1434  4.0778
  152ccc    H22 5077  13.072  10.187   1.248 -2.6796 -1.7281 -0.5943
  152ccc    H23 5078  13.713  10.089   1.064 -0.3783 -1.6181 -0.6546
  152ccc    H24 5079  13.749   9.951   1.170  2.2549  1.1838 -3.2085
  152ccc     O7 5080  13.768  10.124   1.265  0.7428 -0.4426 -0.5599
  152ccc    H25 5081  13.707  10.199   1.274  0.6656 -0.4755 -0.8007
  152ccc     O8 5082  13.506  10.148   1.279  0.0224 -0.1946  0.1737
  152ccc    H26 5083  13.288  10.311   1.351 -1.5660 -0.6936  0.6346
  152ccc    H27 5084  13.475  10.101   1.027  1.4141  0.0508 -1.2430
  152ccc     O9 5085  13.502   9.902   1.006 -0.1377 -0.3869 -0.6520
  152ccc    H28 5086  13.452   9.927   0.926 -2.2702 -0.2040  0.6590
  152ccc     N3 5087  13.131  10.106   1.265 -0.1246  0.2309  0.4470
  152ccc    C17 5088  12.195   9.512   1.850  0.4249 -0.6232 -0.3075
  152ccc    C18 5089  12.188   9.667   1.827  0.8877  0.5825  0.1335
  152ccc    H29 5090  12.173   9.500   1.957  0.8397 -0.6685 -0.2270
  152ccc    C19 5091  12.312   9.741   1.882 -0.3504  0.3286  0.1367
  152ccc    C20 5092  12.441   9.665   1.838 -0.8129  0.4927  0.0213
  152ccc    C21 5093  12.433   9.511   1.878  0.4475  0.1095 -0.2193
  152ccc    H30 5094  12.436   9.666   1.729 -0.1243 -1.4531 -0.0500
  152ccc    H31 5095  12.315   9.760   1.990  2.2394  2.6574 -0.2160
  152ccc    H32 5096  12.415   9.491   1.984  0.5770  0.2414 -0.1730
  152ccc    O10 5097  12.549   9.439   1.830 -0.0336 -0.0092 -0.2203
  152ccc    O11 5098  12.311   9.865   1.815 -0.1616  0.2948  0.2527
  152ccc    C22 5099  12.087   9.434   1.769  0.7104 -0.0465  1.1033
  152ccc    H33 5100  12.235   9.908   1.857 -0.5720 -2.0989  2.2203
  152ccc    H34 5101  12.587   9.707   1.983  3.6177 -0.9780 -0.0525
  152ccc    H35 5102  12.116   9.435   1.663  2.1002 -4.4180  1.2297
  152ccc    H36 5103  11.994   9.492   1.769  1.4266  1.1737 -0.0043
  152ccc    O12 5104  12.071   9.295   1.802 -0.9302  0.1796  0.0135
  152ccc    H37 5105  12.155   9.251   1.824  1.0174  2.5297 -2.1184
  152ccc    O13 5106  12.323   9.466   1.805  0.0650  0.0167  0.2702
  152ccc    H38 5107  12.518   9.348   1.837 -0.7675  0.1790 -0.9350
  152ccc    H39 5108  12.180   9.664   1.717  1.2012  0.1435  0.1211
  152ccc     O5 5109  12.073   9.725   1.884  0.1230 -0.3064  0.8432
  152ccc    H40 5110  12.078   9.822   1.884 -1.1799 -0.1704 -1.2548
  152ccc     N4 5111  12.566   9.728   1.886 -0.2450 -0.7116  0.6530
  153ccc     N1 5112  11.747  10.472   1.336 -0.2914 -0.3024  0.7775
  153ccc     H4 5113  11.815  10.447   1.407 -1.0078  0.0741  1.6122
  153ccc     C3 5114  11.696  10.609   1.340  0.4718 -0.1368  0.5048
  153ccc     H5 5115  11.599  10.608   1.288  0.6078 -1.0757  0.2442
  153ccc     C4 5116  11.792  10.711   1.270 -0.8434 -0.4792 -0.1579
  153ccc     H6 5117  11.685  10.642   1.444  0.3920 -2.0356  1.1355
  153ccc     H7 5118  11.794  10.685   1.163 -4.5073  0.2891 -0.5558
  153ccc     H8 5119  11.889  10.698   1.320 -1.8860  0.0522  2.1369
  153ccc     N2 5120  11.756  10.853   1.282  0.0176  0.2065 -0.8812
  153ccc     C5 5121  11.623  10.879   1.234 -0.0347 -0.5493 -0.7807
  153ccc     C6 5122  11.858  10.936   1.220  0.1811 -0.3185  0.0259
  153ccc     H9 5123  11.857  10.934   1.111 -0.2338  0.8727 -0.0126
  153ccc     C7 5124  11.991  10.908   1.275  0.3152  0.1535  0.0356
  153ccc    H10 5125  11.839  11.042   1.239  0.0011 -0.2110 -0.7115
  153ccc    H11 5126  12.025  10.821   1.218 -0.3096  0.2897 -0.5563
  153ccc    H12 5127  11.996  10.866   1.377 -1.3678 -1.4358 -0.4973
  153ccc     C8 5128  12.094  11.009   1.233 -0.4543  0.5153 -0.5314
  153ccc     O2 5129  12.099  11.060   1.128 -0.3529  0.0539 -0.3563
  153ccc    H13 5130  11.550  10.812   1.281  1.5901 -0.8647  1.3846
  153ccc    H14 5131  11.613  10.884   1.125 -0.9641  0.8493 -0.6573
  153ccc     C9 5132  11.584  11.020   1.280  0.3340 -0.1661  0.0275
  153ccc    H15 5133  11.628  11.096   1.214  1.4621 -0.1348  0.7789
  153ccc    H16 5134  11.621  11.041   1.381  1.8784  0.0048 -0.5383
  153ccc    C10 5135  11.436  11.040   1.275 -0.2607  0.7586  0.0179
  153ccc     O4 5136  11.358  10.959   1.233 -0.1897  0.4518  1.0308
  153ccc    C11 5137  12.344  11.406   1.214 -0.3935 -0.2985  0.0561
  153ccc    C12 5138  12.246  11.416   1.335 -0.4150 -0.5457 -0.1181
  153ccc    H17 5139  12.296  11.393   1.117  0.2377 -0.7967 -0.1966
  153ccc    C13 5140  12.161  11.290   1.332  0.0835  0.0054 -0.4718
  153ccc    C14 5141  12.250  11.169   1.335 -0.1095 -0.4988 -0.0628
  153ccc    C15 5142  12.355  11.174   1.218 -0.8975 -0.3041 -0.0006
  153ccc    H18 5143  12.300  11.171   1.433 -0.8420  0.4921  0.3014
  153ccc    H19 5144  12.108  11.291   1.236 -2.2775  1.2272  0.7496
  153ccc    H20 5145  12.301  11.169   1.123 -3.3679 -0.5618  1.3532
  153ccc     O1 5146  12.452  11.069   1.233  0.5471 -0.5716 -0.0019
  153ccc     O6 5147  12.061  11.281   1.430  0.0001 -0.5125 -0.3484
  153ccc    C16 5148  12.417  11.544   1.211 -0.0617 -0.1530 -0.1417
  153ccc    H21 5149  11.995  11.352   1.426 -1.4248 -1.8320 -3.5131
  153ccc    H22 5150  12.156  11.020   1.425 -1.5064 -0.0068 -0.2111
  153ccc    H23 5151  12.471  11.559   1.306  0.8979 -1.0100 -0.5391
  153ccc    H24 5152  12.338  11.620   1.204 -0.3514 -0.2948  1.2203
  153ccc     O7 5153  12.505  11.541   1.098  0.1451 -0.1849  0.2121
  153ccc    H25 5154  12.526  11.449   1.075  2.2797  0.7614 -2.0681
  153ccc     O8 5155  12.430  11.291   1.235 -0.3424 -0.0105 -0.1088
  153ccc    H26 5156  12.534  11.108   1.267  0.8743 -0.3540 -1.0297
  153ccc    H27 5157  12.287  11.419   1.437 -0.4842  2.0040 -0.1106
  153ccc     O9 5158  12.150  11.520   1.317  0.5136 -0.3326 -0.5156
  153ccc    H28 5159  12.161  11.598   1.375 -2.1827 -1.4154  1.7124
  153ccc     N3 5160  12.179  11.042   1.329  0.0055 -0.3025  0.0544
  153ccc    C17 5161  11.377  11.550   1.414 -0.9164  0.0448  0.6572
  153ccc    C18 5162  11.427  11.442   1.512 -0.7644  0.4528  0.2940
  153ccc    H29 5163  11.269  11.550   1.399 -0.7880  2.2986 -0.7899
  153ccc    C19 5164  11.387  11.301   1.458 -0.1708 -0.0778  0.9567
  153ccc    C20 5165  11.444  11.279   1.313 -0.7228 -0.2571  0.8328
  153ccc    C21 5166  11.406  11.397   1.217  0.3900 -0.1167  0.3525
  153ccc    H30 5167  11.554  11.279   1.317 -0.6689  0.0740 -0.2791
  153ccc    H31 5168  11.279  11.295   1.444 -0.1481  0.9752  0.1890
  153ccc    H32 5169  11.299  11.398   1.197  0.4735  1.6636 -0.1673
  153ccc    O10 5170  11.495  11.384   1.106 -0.7831 -0.2740 -0.0329
  153ccc    O11 5171  11.436  11.201   1.545  0.3251 -0.3116 -0.0588
  153ccc    C22 5172  11.417  11.691   1.457  0.2272 -0.5012  0.2905
  153ccc    H33 5173  11.531  11.217   1.559 -0.2368  1.6118  2.3202
  153ccc    H34 5174  11.294  11.170   1.228 -1.1320 -2.5292 -0.0513
  153ccc    H35 5175  11.519  11.714   1.423  0.8386  1.0002  2.8724
  153ccc    H36 5176  11.424  11.697   1.567 -0.6577  0.0305  0.3227
  153ccc    O12 5177  11.315  11.775   1.400 -0.0277 -0.1977 -0.0116
  153ccc    H37 5178  11.306  11.760   1.305 -0.2086  0.8989 -0.1772
  153ccc    O13 5179  11.443  11.522   1.290 -0.1575  0.3901  0.4450
  153ccc    H38 5180  11.449  11.338   1.034 -1.1201 -0.0312  0.0277
  153ccc    H39 5181  11.536  11.443   1.511 -0.7658  0.5099 -0.8530
  153ccc     O5 5182  11.371  11.464   1.646  0.0331 -0.0318  0.0669
  153ccc    H40 5183  11.383  11.390   1.708 -1.9778 -1.1957 -0.8187
  153ccc     N4 5184  11.391  11.162   1.260 -0.6883  0.3334 -0.3742
  154ccc     N1 5185  10.398   8.533   0.051 -0.1421  0.1993 -0.2960
  154ccc     H4 5186  10.367   8.630   0.060  1.5749  1.1511 -3.3306
  154ccc     C3 5187  10.346   8.436   0.156  0.1290 -0.0530  0.0074
  154ccc     H5 5188  10.239   8.418   0.139  0.4485 -3.0680  0.6636
  154ccc     C4 5189  10.360   8.486   0.304 -0.4636  0.0780 -0.4092
  154ccc     H6 5190  10.403   8.342   0.153 -1.4397 -1.0670  0.9951
  154ccc     H7 5191  10.317   8.586   0.314  1.2602  1.2781 -3.5568
  154ccc     H8 5192  10.466   8.489   0.331 -0.6856 -2.1343  0.9558
  154ccc     N2 5193  10.297   8.387   0.389 -0.0866  0.2773 -0.2472
  154ccc     C5 5194  10.382   8.357   0.506  0.4010  0.4954  0.3170
  154ccc     C6 5195  10.155   8.401   0.416 -0.7121  0.0858  0.3999
  154ccc     H9 5196  10.133   8.472   0.496 -2.7561 -0.2330  0.1716
  154ccc     C7 5197  10.103   8.264   0.455 -0.0129 -0.4347 -0.5133
  154ccc    H10 5198  10.104   8.446   0.330  0.1912 -0.2271 -0.3164
  154ccc    H11 5199  10.152   8.225   0.545 -0.4705  1.1997  0.4887
  154ccc    H12 5200  10.122   8.204   0.365 -0.0119  2.6914 -2.7690
  154ccc     C8 5201   9.954   8.280   0.462 -0.5251 -0.0346  0.6571
  154ccc     O2 5202   9.904   8.390   0.467  0.3769 -0.0348 -0.0006
  154ccc    H13 5203  10.331   8.301   0.585  1.2415 -2.3028 -0.9922
  154ccc    H14 5204  10.422   8.447   0.554 -2.0406  0.6989  2.1483
  154ccc     C9 5205  10.504   8.265   0.468  0.2687 -0.4112  0.0340
  154ccc    H15 5206  10.571   8.314   0.396 -0.5733  0.4156 -0.1974
  154ccc    H16 5207  10.463   8.175   0.420  0.7466 -1.1784  1.0317
  154ccc    C10 5208  10.586   8.224   0.585 -0.5692  0.0070 -0.0432
  154ccc     O4 5209  10.702   8.259   0.613  0.0937  0.5727  0.3594
  154ccc    C11 5210   9.469   8.246   0.391 -0.6555  0.0624  0.0091
  154ccc    C12 5211   9.540   8.158   0.287 -0.2034  0.2642  1.0069
  154ccc    H17 5212   9.486   8.352   0.367  0.6463 -0.5618 -2.0808
  154ccc    C13 5213   9.695   8.168   0.300  0.4161 -0.4129  0.0198
  154ccc    C14 5214   9.736   8.148   0.443  0.5036 -0.2962 -0.2878
  154ccc    C15 5215   9.649   8.235   0.543  0.1973  0.2214 -0.5888
  154ccc    H18 5216   9.717   8.042   0.467 -2.2270  0.1493 -0.1745
  154ccc    H19 5217   9.726   8.270   0.271 -1.3009  0.7631  2.0237
  154ccc    H20 5218   9.681   8.340   0.533  1.1156  0.1124  0.9337
  154ccc     O1 5219   9.676   8.202   0.680 -0.4548  0.0958 -0.4410
  154ccc     O6 5220   9.764   8.077   0.217 -0.8886 -0.0183  0.0180
  154ccc    C16 5221   9.314   8.221   0.380  0.0095  0.1120  0.1672
  154ccc    H21 5222   9.708   8.051   0.141 -0.4427 -0.8044 -0.0580
  154ccc    H22 5223   9.934   8.083   0.443  1.8026  1.4254 -2.3537
  154ccc    H23 5224   9.278   8.127   0.424  0.1333  0.5102  1.1493
  154ccc    H24 5225   9.300   8.198   0.274  0.0382 -3.6128  0.8156
  154ccc     O7 5226   9.239   8.331   0.423  0.3524 -0.0755  0.3094
  154ccc    H25 5227   9.196   8.360   0.340  0.6041 -0.3784  0.0700
  154ccc     O8 5228   9.510   8.203   0.521 -0.2326 -0.1199  0.1540
  154ccc    H26 5229   9.763   8.243   0.692 -0.2045 -0.6978  0.5841
  154ccc    H27 5230   9.524   8.050   0.295  0.8064 -0.0640 -0.8421
  154ccc     O9 5231   9.514   8.201   0.158 -0.2432 -0.1347 -0.4549
  154ccc    H28 5232   9.437   8.150   0.129 -1.5050  1.2416  0.3457
  154ccc     N3 5233   9.883   8.167   0.471  0.1714 -0.1283 -0.3072
  154ccc    C17 5234  10.191   7.869   0.722 -0.3276 -0.0804 -0.8436
  154ccc    C18 5235  10.164   8.018   0.754 -0.4286 -0.0784 -0.5147
  154ccc    H29 5236  10.229   7.805   0.803 -0.7844  0.3160 -0.3110
  154ccc    C19 5237  10.302   8.082   0.793  0.0092 -0.5766 -1.0977
  154ccc    C20 5238  10.405   8.058   0.674 -0.0847 -0.3867  0.0621
  154ccc    C21 5239  10.418   7.902   0.651  0.1731  0.1852 -0.2520
  154ccc    H30 5240  10.357   8.078   0.577 -2.1990 -0.3749  1.0631
  154ccc    H31 5241  10.334   8.030   0.884 -1.5330  0.6209  0.1943
  154ccc    H32 5242  10.468   7.845   0.730  0.9048 -0.3059 -1.0510
  154ccc    O10 5243  10.495   7.869   0.535 -0.2831  0.4611 -0.0955
  154ccc    O11 5244  10.283   8.225   0.820 -0.6000  0.4611  0.5278
  154ccc    C22 5245  10.069   7.792   0.662  0.4809 -0.5828 -0.8977
  154ccc    H33 5246  10.371   8.263   0.839 -0.3489 -0.9325  2.5943
  154ccc    H34 5247  10.588   8.111   0.761 -1.7346 -2.1275  1.1897
  154ccc    H35 5248  10.048   7.841   0.567  0.2042 -0.2615 -0.6738
  154ccc    H36 5249   9.981   7.792   0.729  1.1284  1.5575  0.0499
  154ccc    O12 5250  10.098   7.656   0.648  0.0183  0.1764  0.2028
  154ccc    H37 5251  10.183   7.650   0.600 -0.8967  0.0350 -1.4878
  154ccc    O13 5252  10.281   7.862   0.616  0.0538  0.1965 -0.2238
  154ccc    H38 5253  10.435   7.907   0.468 -1.6963 -0.7377  0.4280
  154ccc    H39 5254  10.135   8.066   0.660 -0.9095  0.4527 -0.0972
  154ccc     O5 5255  10.065   8.036   0.849 -0.6962 -0.1065  0.4258
  154ccc    H40 5256  10.105   8.033   0.938 -0.0427  1.2984  0.2103
  154ccc     N4 5257  10.536   8.140   0.678  0.6926  0.6841  0.4763
  155ccc     N1 5258  10.130   8.940  -0.299  0.8210 -0.6816 -0.9213
  155ccc     H4 5259  10.128   8.839  -0.300 -0.8486 -0.6688 -1.8090
  155ccc     C3 5260  10.005   9.019  -0.257  0.7375 -0.3404 -0.1571
  155ccc     H5 5261  10.000   9.034  -0.148  1.6787 -0.3099 -0.1066
  155ccc     C4 5262   9.874   8.955  -0.301 -0.6563  0.0059  0.8956
  155ccc     H6 5263  10.004   9.120  -0.299 -0.2594 -1.0414 -1.8800
  155ccc     H7 5264   9.865   8.962  -0.410 -1.1469 -1.5416  0.8169
  155ccc     H8 5265   9.794   9.018  -0.260 -0.2530  1.1788 -0.0529
  155ccc     N2 5266   9.870   8.817  -0.252 -0.3353 -0.9806 -0.0881
  155ccc     C5 5267   9.765   8.755  -0.324 -0.3276 -0.4065  0.6076
  155ccc     C6 5268   9.869   8.804  -0.107 -0.4926  0.3705  0.0614
  155ccc     H9 5269   9.868   8.698  -0.077  1.2832 -0.1875 -1.6754
  155ccc     C7 5270   9.748   8.882  -0.046 -0.2966  0.4104  0.8029
  155ccc    H10 5271   9.963   8.850  -0.074  0.2388 -0.6882 -0.4817
  155ccc    H11 5272   9.654   8.858  -0.098 -0.6003  3.1265 -0.1015
  155ccc    H12 5273   9.765   8.990  -0.059  1.6096  0.0129 -0.4055
  155ccc     C8 5274   9.732   8.850   0.096  0.7010 -0.7383  0.2071
  155ccc     O2 5275   9.806   8.784   0.162  0.1875  0.1714  0.5589
  155ccc    H13 5276   9.790   8.774  -0.429  0.7146  0.0102  0.9229
  155ccc    H14 5277   9.665   8.798  -0.310 -0.4742 -0.4003 -0.3980
  155ccc     C9 5278   9.758   8.613  -0.292  0.0980  0.1707  0.6301
  155ccc    H15 5279   9.727   8.588  -0.190 -3.6834  0.6572 -0.2406
  155ccc    H16 5280   9.859   8.579  -0.315 -0.3500  0.2229 -1.6775
  155ccc    C10 5281   9.669   8.549  -0.393 -0.4803  0.2830 -0.3565
  155ccc     O4 5282   9.691   8.549  -0.515  0.8559  0.1131  0.1577
  155ccc    C11 5283   9.524   8.697   0.506  0.1861  0.5515 -0.5137
  155ccc    C12 5284   9.544   8.854   0.523  0.0577 -0.2949  0.1393
  155ccc    H17 5285   9.618   8.642   0.515 -0.0444  0.0466 -1.1063
  155ccc    C13 5286   9.623   8.906   0.404 -0.2538 -1.0448 -0.4103
  155ccc    C14 5287   9.555   8.869   0.267 -0.0233  0.6547 -0.3010
  155ccc    C15 5288   9.530   8.712   0.265  0.1934  0.5194 -0.4156
  155ccc    H18 5289   9.458   8.920   0.266 -0.8829 -0.8805  0.7635
  155ccc    H19 5290   9.728   8.873   0.400 -0.3407 -1.2289 -1.3264
  155ccc    H20 5291   9.625   8.657   0.266 -0.0839  0.0241 -0.6931
  155ccc     O1 5292   9.457   8.678   0.147 -0.0357 -0.4175  0.0612
  155ccc     O6 5293   9.621   9.051   0.413  0.5363  0.3558 -0.5078
  155ccc    C16 5294   9.440   8.643   0.626 -0.3292  0.3919  0.5195
  155ccc    H21 5295   9.697   9.071   0.471 -0.0372 -0.4401  0.5669
  155ccc    H22 5296   9.560   8.952   0.081  0.3566  0.8432 -0.0719
  155ccc    H23 5297   9.338   8.682   0.613 -0.6706 -0.4776  0.5722
  155ccc    H24 5298   9.492   8.671   0.718  1.5265 -2.1194  0.3105
  155ccc     O7 5299   9.449   8.500   0.629  0.2815  0.6892 -0.1592
  155ccc    H25 5300   9.406   8.462   0.550 -1.2049 -0.0146  0.9426
  155ccc     O8 5301   9.454   8.667   0.381 -0.1098 -0.0040  0.4981
  155ccc    H26 5302   9.401   8.756   0.130  1.5698  1.0648  1.0705
  155ccc    H27 5303   9.448   8.907   0.520 -0.2301 -0.8426 -0.6340
  155ccc     O9 5304   9.621   8.872   0.643  0.4046 -0.1731  0.0109
  155ccc    H28 5305   9.614   8.967   0.664  2.8905  0.0407  0.1832
  155ccc     N3 5306   9.627   8.910   0.145 -0.6824 -0.1951  0.3898
  155ccc    C17 5307   9.188   8.656  -0.225 -0.1728  0.7433  0.2089
  155ccc    C18 5308   9.245   8.542  -0.133 -0.5969 -0.1499  0.4981
  155ccc    H29 5309   9.124   8.612  -0.302  2.2810 -0.1774 -1.4560
  155ccc    C19 5310   9.359   8.472  -0.205  0.7601  0.0139  0.1689
  155ccc    C20 5311   9.455   8.565  -0.277  0.8409 -0.2044  0.5361
  155ccc    C21 5312   9.382   8.674  -0.367 -0.3147  0.6415 -0.0481
  155ccc    H30 5313   9.501   8.626  -0.198 -0.6109 -1.2474  2.2517
  155ccc    H31 5314   9.320   8.410  -0.286 -2.3828  0.3707  1.2627
  155ccc    H32 5315   9.329   8.633  -0.454 -1.3718  0.6096  0.5882
  155ccc    O10 5316   9.473   8.778  -0.416 -0.0126 -0.4869 -0.0843
  155ccc    O11 5317   9.439   8.390  -0.116  0.6043 -0.2137 -0.4166
  155ccc    C22 5318   9.109   8.758  -0.145  0.0852 -0.2075  0.1846
  155ccc    H33 5319   9.535   8.393  -0.131  0.7936 -0.3270  0.6704
  155ccc    H34 5320   9.532   8.399  -0.388  0.6038 -1.5207  2.3006
  155ccc    H35 5321   9.168   8.847  -0.122  0.5782 -1.4888  4.8620
  155ccc    H36 5322   9.069   8.712  -0.054  0.9642 -1.9858 -0.2820
  155ccc    O12 5323   8.995   8.793  -0.230 -0.1868  0.0656 -0.3984
  155ccc    H37 5324   8.949   8.708  -0.239  0.1832 -0.1784 -0.0293
  155ccc    O13 5325   9.296   8.742  -0.282  0.2755 -0.0021  0.9925
  155ccc    H38 5326   9.418   8.832  -0.474 -1.2468 -1.7333 -0.1209
  155ccc    H39 5327   9.284   8.586  -0.041 -1.5965  0.2353  0.7541
  155ccc     O5 5328   9.147   8.449  -0.087 -1.0758  0.0390 -0.6294
  155ccc    H40 5329   9.144   8.380  -0.155  2.7372 -2.7485  1.6387
  155ccc     N4 5330   9.564   8.485  -0.344  0.0452 -0.0284 -0.0082
  156ccc     N1 5331  12.245   9.043  -0.573  0.1601  0.1348  0.3542
  156ccc     H4 5332  12.154   9.057  -0.532  0.4978 -2.3495  2.2135
  156ccc     C3 5333  12.345   9.147  -0.539 -0.3144  0.4621  0.1185
  156ccc     H5 5334  12.318   9.193  -0.443  1.0299  3.1702 -0.6924
  156ccc     C4 5335  12.362   9.265  -0.640 -1.1848 -0.8832 -0.7795
  156ccc     H6 5336  12.441   9.098  -0.519 -0.4614  0.5653  1.1421
  156ccc     H7 5337  12.282   9.336  -0.616  0.4525 -0.3250  4.0243
  156ccc     H8 5338  12.359   9.231  -0.744  2.3033  2.4934 -2.2140
  156ccc     N2 5339  12.503   9.323  -0.626  0.4936  0.0988 -0.0844
  156ccc     C5 5340  12.549   9.387  -0.743 -0.8200 -0.5152  0.1667
  156ccc     C6 5341  12.500   9.412  -0.512 -0.2458  0.3634 -0.9091
  156ccc     H9 5342  12.453   9.508  -0.534  1.4683  1.1164 -1.4374
  156ccc     C7 5343  12.643   9.432  -0.456 -0.2653  0.3057  0.0832
  156ccc    H10 5344  12.440   9.371  -0.430 -0.4267  2.9788  0.3668
  156ccc    H11 5345  12.715   9.459  -0.534  0.1799  1.4500  0.8540
  156ccc    H12 5346  12.675   9.339  -0.406  2.1010  1.1512  0.2723
  156ccc     C8 5347  12.644   9.538  -0.356  0.1341  0.8648  0.0406
  156ccc     O2 5348  12.548   9.578  -0.297 -0.1971  0.4055 -0.2905
  156ccc    H13 5349  12.628   9.461  -0.723 -0.0501 -1.0055 -0.9544
  156ccc    H14 5350  12.466   9.452  -0.773 -1.7571 -0.4666  2.6048
  156ccc     C9 5351  12.588   9.290  -0.851  0.3824 -0.3385 -0.1947
  156ccc    H15 5352  12.619   9.350  -0.938 -0.9464 -0.0494 -0.4882
  156ccc    H16 5353  12.500   9.229  -0.874 -0.5219 -1.0779  4.3063
  156ccc    C10 5354  12.699   9.200  -0.808  0.1688  0.2582 -0.0047
  156ccc     O4 5355  12.814   9.236  -0.801 -0.2126 -0.5595  0.5550
  156ccc    C11 5356  12.982   9.820  -0.064  0.5404 -0.0287 -0.2615
  156ccc    C12 5357  12.965   9.899  -0.192  0.6328 -0.1521 -0.0747
  156ccc    H17 5358  13.061   9.747  -0.084 -0.2113 -0.6754 -0.9574
  156ccc    C13 5359  12.891   9.809  -0.295  0.5421 -0.5026  0.1401
  156ccc    C14 5360  12.780   9.711  -0.242 -0.5044 -0.4561 -0.5227
  156ccc    C15 5361  12.821   9.648  -0.109  0.2510 -0.9162 -0.5261
  156ccc    H18 5362  12.690   9.770  -0.220  0.5160  0.5670  1.0651
  156ccc    H19 5363  12.975   9.755  -0.343  2.1536  2.3262 -0.4393
  156ccc    H20 5364  12.908   9.582  -0.118  0.0210 -1.2711 -0.1828
  156ccc     O1 5365  12.714   9.581  -0.036  0.5033  0.1037 -0.3764
  156ccc     O6 5366  12.837   9.894  -0.399 -0.5648 -0.2498 -0.1220
  156ccc    C16 5367  13.031   9.922   0.045  0.0114 -0.2416  0.0990
  156ccc    H21 5368  12.912   9.939  -0.443  0.5668 -2.5533 -0.6792
  156ccc    H22 5369  12.839   9.568  -0.381 -0.6166 -0.1650 -0.6118
  156ccc    H23 5370  12.968  10.012   0.040  0.4339 -0.0085 -2.3818
  156ccc    H24 5371  13.133   9.949   0.014  0.0194 -1.7185 -1.2645
  156ccc     O7 5372  13.008   9.866   0.174 -0.2684 -0.5101 -0.4199
  156ccc    H25 5373  12.914   9.865   0.199  0.0273  0.8429  0.8944
  156ccc     O8 5374  12.864   9.752  -0.025 -0.1176  0.0630 -0.1251
  156ccc    H26 5375  12.642   9.646  -0.041  0.0837 -0.2986  0.2172
  156ccc    H27 5376  12.905   9.989  -0.174  1.0356  0.8853 -3.2887
  156ccc     O9 5377  13.097   9.941  -0.226  0.0662  0.2328 -0.3447
  156ccc    H28 5378  13.080  10.013  -0.289  0.6295  0.7679  0.0987
  156ccc     N3 5379  12.753   9.609  -0.344  0.0604  0.4818  0.2995
  156ccc    C17 5380  12.996   8.882  -0.593  1.1030  0.0076 -0.9284
  156ccc    C18 5381  12.893   8.944  -0.496 -0.8907 -0.0532 -0.4371
  156ccc    H29 5382  13.059   8.962  -0.634 -0.1688  1.3080 -0.4441
  156ccc    C19 5383  12.804   9.035  -0.578  0.8048  0.0040 -0.6702
  156ccc    C20 5384  12.735   8.974  -0.706  0.3843 -0.1308  0.6314
  156ccc    C21 5385  12.843   8.901  -0.790 -0.2339  1.1810  0.5065
  156ccc    H30 5386  12.668   8.889  -0.688  0.2708  0.3732  2.8279
  156ccc    H31 5387  12.864   9.121  -0.611  1.0081  0.1603  0.0867
  156ccc    H32 5388  12.906   8.972  -0.845  1.9468 -1.8382 -1.2540
  156ccc    O10 5389  12.794   8.802  -0.881  0.0959 -0.1329  0.5712
  156ccc    O11 5390  12.695   9.104  -0.499 -0.3764  0.1694  0.2184
  156ccc    C22 5391  13.079   8.773  -0.521  0.1623 -0.0587  0.1930
  156ccc    H33 5392  12.671   9.187  -0.544 -1.3628  0.5159  1.3426
  156ccc    H34 5393  12.563   9.046  -0.789 -0.6080 -0.2814  1.8377
  156ccc    H35 5394  13.133   8.828  -0.442  0.8928  1.0636 -1.0434
  156ccc    H36 5395  13.154   8.729  -0.588  1.3053 -1.3192  2.1959
  156ccc    O12 5396  13.001   8.668  -0.465 -0.5461 -0.0600  0.3176
  156ccc    H37 5397  13.050   8.633  -0.389  1.3668 -0.9930 -1.2618
  156ccc    O13 5398  12.924   8.816  -0.702  0.2570 -0.2818 -0.6518
  156ccc    H38 5399  12.868   8.740  -0.898  1.9455  2.3897 -1.5671
  156ccc    H39 5400  12.837   8.859  -0.456 -0.2386 -0.6700 -0.8207
  156ccc     O5 5401  12.968   9.019  -0.397  0.1696 -0.3291  0.1712
  156ccc    H40 5402  12.973   8.965  -0.317  1.6410  0.3291  0.5618
  156ccc     N4 5403  12.661   9.072  -0.781 -0.4193 -0.4261  0.3752
  157ccc     N1 5404  11.946   8.712  -1.004  0.4708 -0.0797 -0.1292
  157ccc     H4 5405  11.997   8.773  -0.941 -0.1113  0.8531 -0.5299
  157ccc     C3 5406  11.902   8.765  -1.130 -0.5820  0.6254  0.3186
  157ccc     H5 5407  11.924   8.681  -1.197  1.6784  0.5725  1.0287
  157ccc     C4 5408  11.973   8.904  -1.175  0.5943  0.6816  0.2661
  157ccc     H6 5409  11.792   8.761  -1.132 -0.5491 -0.3450 -0.6298
  157ccc     H7 5410  11.971   8.972  -1.088 -0.5952  2.3060 -0.9677
  157ccc     H8 5411  11.917   8.961  -1.250 -0.6733  1.8671  2.0323
  157ccc     N2 5412  12.115   8.872  -1.212  0.7475 -0.3666  0.1048
  157ccc     C5 5413  12.186   9.003  -1.235 -0.6806  1.2105  0.2317
  157ccc     C6 5414  12.125   8.779  -1.323  0.1107  0.3318 -0.8588
  157ccc     H9 5415  12.054   8.696  -1.312  1.1195 -0.3108  1.2525
  157ccc     C7 5416  12.263   8.718  -1.324 -0.4627  0.3603  0.3353
  157ccc    H10 5417  12.103   8.835  -1.415  1.7485  1.8358 -0.3854
  157ccc    H11 5418  12.303   8.680  -1.229  1.9504  0.1895 -0.6697
  157ccc    H12 5419  12.333   8.796  -1.355  1.5886 -0.4611  2.5553
  157ccc     C8 5420  12.273   8.593  -1.419  0.0512 -0.0393  0.2310
  157ccc     O2 5421  12.186   8.520  -1.455 -0.1313  0.2634 -0.3645
  157ccc    H13 5422  12.116   9.085  -1.259  0.0628  1.9122  0.4241
  157ccc    H14 5423  12.262   8.995  -1.314 -0.3041  0.1564  0.6878
  157ccc     C9 5424  12.257   9.036  -1.102  0.6494 -0.1464 -0.3379
  157ccc    H15 5425  12.267   8.942  -1.047  0.9427 -2.6429 -4.2372
  157ccc    H16 5426  12.191   9.107  -1.052 -0.0349 -0.8920 -0.1691
  157ccc    C10 5427  12.397   9.099  -1.132  0.5631 -0.5120  0.5612
  157ccc     O4 5428  12.507   9.056  -1.112  0.0367 -0.2404  0.2227
  157ccc    C11 5429  12.639   8.219  -1.518  0.4075  0.6126  0.3373
  157ccc    C12 5430  12.635   8.275  -1.375  0.2126  0.0552 -0.1109
  157ccc    H17 5431  12.732   8.247  -1.568  1.3036  2.7147  2.9386
  157ccc    C13 5432  12.573   8.421  -1.364 -0.1310  0.1723  0.1010
  157ccc    C14 5433  12.451   8.435  -1.454  0.0463 -0.8382  0.2707
  157ccc    C15 5434  12.497   8.395  -1.598  1.1999 -0.3939  0.4004
  157ccc    H18 5435  12.372   8.370  -1.415 -2.8133  2.2440  0.0566
  157ccc    H19 5436  12.645   8.497  -1.400 -1.4985  1.5357  0.1497
  157ccc    H20 5437  12.579   8.461  -1.631  0.9946  0.2157  1.1012
  157ccc     O1 5438  12.399   8.407  -1.697 -0.1130  0.1268 -0.1135
  157ccc     O6 5439  12.537   8.444  -1.234  0.4392 -0.4203 -0.3659
  157ccc    C16 5440  12.640   8.056  -1.517 -0.5736 -0.3802 -0.2239
  157ccc    H21 5441  12.609   8.488  -1.187  1.8819 -2.9950  0.0164
  157ccc    H22 5442  12.465   8.629  -1.393  1.1112 -0.3584 -0.8637
  157ccc    H23 5443  12.728   8.036  -1.455  0.6124  0.2538 -1.6500
  157ccc    H24 5444  12.652   8.010  -1.616 -0.4812 -1.1555  0.1349
  157ccc     O7 5445  12.528   8.000  -1.445  0.0489 -0.2070  0.2312
  157ccc    H25 5446  12.446   8.029  -1.490 -0.3965  1.6493  2.0612
  157ccc     O8 5447  12.525   8.259  -1.604  0.1124  1.0651 -0.1552
  157ccc    H26 5448  12.366   8.326  -1.740 -0.4259  0.7756 -1.1263
  157ccc    H27 5449  12.577   8.207  -1.313  0.0150  1.4317  1.2784
  157ccc     O9 5450  12.770   8.279  -1.324  0.0747 -0.3061 -0.4496
  157ccc    H28 5451  12.761   8.234  -1.239  2.3543 -0.9224 -0.4676
  157ccc     N3 5452  12.397   8.573  -1.443 -0.4401 -0.3217  1.0879
  157ccc    C17 5453  12.236   9.598  -1.233 -0.2095 -0.0824  0.3082
  157ccc    C18 5454  12.221   9.501  -1.359 -0.1412  0.1564  0.1953
  157ccc    H29 5455  12.326   9.658  -1.248 -0.6203  0.4065 -0.2801
  157ccc    C19 5456  12.332   9.389  -1.354  0.1913 -0.2940 -0.0143
  157ccc    C20 5457  12.317   9.318  -1.220 -0.7510 -0.6682  0.1011
  157ccc    C21 5458  12.324   9.421  -1.105 -0.4344  0.3742 -0.2436
  157ccc    H30 5459  12.218   9.271  -1.212 -2.0796  1.7231 -1.0311
  157ccc    H31 5460  12.426   9.444  -1.366 -0.4997  0.9165 -0.0242
  157ccc    H32 5461  12.423   9.467  -1.103  0.6984 -1.9830  0.4690
  157ccc    O10 5462  12.298   9.362  -0.976  0.1240 -0.3670  0.0925
  157ccc    O11 5463  12.320   9.292  -1.457  0.5465  0.6329  0.4717
  157ccc    C22 5464  12.122   9.699  -1.219 -0.3125  0.5743  0.0187
  157ccc    H33 5465  12.367   9.214  -1.420  2.6923  1.6220  0.0016
  157ccc    H34 5466  12.505   9.251  -1.216 -0.1483  0.7198  1.2949
  157ccc    H35 5467  12.025   9.649  -1.207 -0.8259  1.4947 -0.2616
  157ccc    H36 5468  12.116   9.760  -1.310 -3.0356 -0.3407 -0.4882
  157ccc    O12 5469  12.156   9.777  -1.106  0.0423 -0.1840 -0.0036
  157ccc    H37 5470  12.116   9.736  -1.028 -2.5688 -0.7515 -1.5189
  157ccc    O13 5471  12.225   9.523  -1.115 -0.3537  0.2207 -0.5919
  157ccc    H38 5472  12.205   9.332  -0.976 -0.5257  1.4695  0.9940
  157ccc    H39 5473  12.125   9.448  -1.369 -0.1858  0.5433 -1.9614
  157ccc     O5 5474  12.238   9.579  -1.472 -0.2571  0.7738  0.3163
  157ccc    H40 5475  12.204   9.529  -1.548  1.7218  2.0267 -1.5077
  157ccc     N4 5476  12.411   9.212  -1.210  0.0314  0.0945  0.2741
  158ccc     N1 5477   8.726   9.928   3.693 -0.1185  0.1331 -0.0596
  158ccc     H4 5478   8.772   9.844   3.727  0.6763  0.1514 -1.0644
  158ccc     C3 5479   8.759  10.051   3.775 -0.3450  0.0037 -0.5553
  158ccc     H5 5480   8.849  10.098   3.733 -0.0188  1.0290  1.2232
  158ccc     C4 5481   8.778  10.017   3.922  0.1868  0.4259  0.8478
  158ccc     H6 5482   8.684  10.130   3.761 -0.2819 -0.2449 -2.6458
  158ccc     H7 5483   8.841   9.931   3.948 -1.4040 -0.3363  2.4716
  158ccc     H8 5484   8.677   9.989   3.954 -1.3954  3.2163 -1.2929
  158ccc     N2 5485   8.814  10.133   4.004  0.2230 -0.6992 -0.1510
  158ccc     C5 5486   8.910  10.231   3.953 -0.1548 -0.0149  0.1592
  158ccc     C6 5487   8.847  10.095   4.139 -0.0332 -0.0821 -0.5111
  158ccc     H9 5488   8.883   9.991   4.141  0.9833  0.2723  0.4707
  158ccc     C7 5489   8.730  10.112   4.228  0.4350 -0.7658  0.1315
  158ccc    H10 5490   8.920  10.163   4.183 -1.0160  0.8032 -0.2241
  158ccc    H11 5491   8.642  10.052   4.202  0.8102 -1.5947  0.7196
  158ccc    H12 5492   8.695  10.216   4.227 -0.3953 -1.0443 -0.7732
  158ccc     C8 5493   8.769  10.084   4.370 -0.0482  0.6196 -0.4202
  158ccc     O2 5494   8.875  10.025   4.406  0.0750 -0.4689  0.0703
  158ccc    H13 5495   8.899  10.250   3.846  0.7758  2.4505  0.4356
  158ccc    H14 5496   9.014  10.200   3.970 -0.3979 -0.2709  1.2635
  158ccc     C9 5497   8.886  10.364   4.025 -0.2621 -0.3128 -0.2477
  158ccc    H15 5498   8.973  10.384   4.089  1.8849 -3.0976 -2.0791
  158ccc    H16 5499   8.789  10.382   4.073 -1.6267  2.0071 -3.5084
  158ccc    C10 5500   8.881  10.470   3.919  0.1163  0.1834 -0.2060
  158ccc     O4 5501   8.775  10.508   3.861 -0.3211 -0.0951 -0.2796
  158ccc    C11 5502   8.494   9.919   4.789 -1.0859  0.3029 -0.5719
  158ccc    C12 5503   8.551   9.828   4.676 -0.1827  0.0252  1.0581
  158ccc    H17 5504   8.396   9.959   4.762 -0.6777  1.8910  0.1956
  158ccc    C13 5505   8.566   9.910   4.550  1.1192  0.2289  0.0422
  158ccc    C14 5506   8.654  10.037   4.571  0.6246 -0.0331 -0.2032
  158ccc    C15 5507   8.628  10.114   4.700  0.5336 -0.3025 -0.1221
  158ccc    H18 5508   8.751   9.993   4.598  1.0374  2.1864  2.4296
  158ccc    H19 5509   8.468   9.942   4.512  2.5237  2.2601 -2.0897
  158ccc    H20 5510   8.548  10.188   4.686  0.0369 -0.3898  1.9616
  158ccc     O1 5511   8.754  10.164   4.757 -0.9876  0.1582 -1.0579
  158ccc     O6 5512   8.617   9.844   4.446 -0.6488 -0.2814 -0.0944
  158ccc    C16 5513   8.481   9.847   4.924 -0.1106 -0.0498 -0.2260
  158ccc    H21 5514   8.707   9.813   4.464 -1.5393 -2.3869  1.0941
  158ccc    H22 5515   8.591  10.167   4.424 -0.1803 -0.1319  0.9900
  158ccc    H23 5516   8.582   9.836   4.963 -1.0686 -2.3077  1.8422
  158ccc    H24 5517   8.428   9.752   4.908 -1.6610  0.9244 -1.1982
  158ccc     O7 5518   8.424   9.934   5.018  0.0064  0.2897  0.1322
  158ccc    H25 5519   8.479  10.011   4.997  1.1794 -0.6990 -0.5945
  158ccc     O8 5520   8.597  10.022   4.811 -0.2571 -0.5259  0.2849
  158ccc    H26 5521   8.734  10.182   4.851  3.4291 -0.8093  0.2847
  158ccc    H27 5522   8.652   9.798   4.705  0.2042 -1.4554 -1.5113
  158ccc     O9 5523   8.464   9.722   4.643 -0.0507 -0.8220 -0.1178
  158ccc    H28 5524   8.512   9.671   4.575  0.1405  0.8008 -1.2427
  158ccc     N3 5525   8.676  10.120   4.454  0.1597 -0.1249  0.0722
  158ccc    C17 5526   9.414  10.590   3.903 -0.2112 -0.1643  0.2431
  158ccc    C18 5527   9.331  10.612   4.030 -0.4058  0.4883  0.8198
  158ccc    H29 5528   9.410  10.667   3.826 -0.6886 -0.2806  0.1527
  158ccc    C19 5529   9.181  10.626   3.995  0.1235 -0.4604 -0.3292
  158ccc    C20 5530   9.140  10.493   3.918  0.4650 -0.4969 -0.1760
  158ccc    C21 5531   9.239  10.446   3.804 -0.1230 -0.5037 -0.6297
  158ccc    H30 5532   9.147  10.410   3.989 -0.0409 -1.6230 -1.4028
  158ccc    H31 5533   9.178  10.711   3.927  0.9277 -0.3621 -0.2487
  158ccc    H32 5534   9.220  10.505   3.713  0.4794 -0.2882 -0.6238
  158ccc    O10 5535   9.219  10.307   3.774  0.3637  0.1372 -0.4881
  158ccc    O11 5536   9.101  10.644   4.115 -0.1094 -0.4989  0.0063
  158ccc    C22 5537   9.567  10.566   3.941 -1.0707 -0.2925  0.7872
  158ccc    H33 5538   9.144  10.594   4.186  1.1029 -0.0335 -0.3741
  158ccc    H34 5539   8.988  10.593   3.813 -0.7571 -0.5541 -0.1315
  158ccc    H35 5540   9.602  10.661   3.983 -0.1220  0.3786 -1.4009
  158ccc    H36 5541   9.627  10.541   3.853  1.7178  2.5623  1.7034
  158ccc    O12 5542   9.569  10.463   4.034 -0.1205  0.2289 -0.2080
  158ccc    H37 5543   9.567  10.379   3.984  2.1878  0.7613 -1.3414
  158ccc    O13 5544   9.374  10.456   3.851  0.5640  0.0469 -0.3439
  158ccc    H38 5545   9.291  10.276   3.717  0.3008  2.3375 -1.8797
  158ccc    H39 5546   9.322  10.532   4.104  0.6342  0.8283  1.3388
  158ccc     O5 5547   9.376  10.735   4.091 -0.3735 -0.1668 -0.7117
  158ccc    H40 5548   9.453  10.720   4.148  0.7552  0.0299 -2.1433
  158ccc     N4 5549   9.000  10.509   3.868  0.1013 -0.3790 -0.0294
  159ccc     N1 5550   8.637   9.354   3.784 -0.6609  0.1059 -0.0565
  159ccc     H4 5551   8.716   9.379   3.727  0.6637 -0.3986  1.4922
  159ccc     C3 5552   8.663   9.318   3.919  0.1289  0.0104  0.5767
  159ccc     H5 5553   8.573   9.343   3.977 -0.5656 -0.9400 -0.0494
  159ccc     C4 5554   8.787   9.365   3.982  0.4639 -0.0856 -0.3436
  159ccc     H6 5555   8.674   9.209   3.914  2.0051  0.2273 -1.2938
  159ccc     H7 5556   8.777   9.474   3.976 -1.9840 -0.3108 -1.6021
  159ccc     H8 5557   8.875   9.336   3.923 -1.7554 -3.1327 -2.4947
  159ccc     N2 5558   8.777   9.310   4.116 -0.1508  0.2637  0.6635
  159ccc     C5 5559   8.916   9.291   4.164 -0.5845  1.3509  0.2368
  159ccc     C6 5560   8.700   9.402   4.207 -0.0687  0.2987 -0.2846
  159ccc     H9 5561   8.767   9.485   4.231  1.0889 -0.5451 -0.5554
  159ccc     C7 5562   8.665   9.325   4.332  0.0413  0.2839  0.1146
  159ccc    H10 5563   8.601   9.440   4.176 -1.1647 -0.8650  1.5742
  159ccc    H11 5564   8.752   9.288   4.387 -0.0937  1.3216  1.0658
  159ccc    H12 5565   8.593   9.247   4.304 -1.4817  1.5828  0.2148
  159ccc     C8 5566   8.588   9.409   4.433 -0.0113 -0.7756 -1.0186
  159ccc     O2 5567   8.578   9.531   4.434 -0.2429  0.2464  0.3706
  159ccc    H13 5568   8.913   9.250   4.266  0.1852 -0.5782 -0.4692
  159ccc    H14 5569   8.974   9.384   4.165 -1.6866  2.1772 -2.5781
  159ccc     C9 5570   8.980   9.173   4.091  0.0121 -0.4798 -0.0085
  159ccc    H15 5571   9.002   9.200   3.987  3.0653 -0.2542  0.5812
  159ccc    H16 5572   8.926   9.080   4.110 -2.9159  0.9675 -0.7033
  159ccc    C10 5573   9.120   9.164   4.152  0.6746  0.2994 -0.2499
  159ccc     O4 5574   9.159   9.231   4.243  0.2988 -0.1315  0.1898
  159ccc    C11 5575   8.184   9.304   4.764  0.8495  0.3361  0.7374
  159ccc    C12 5576   8.309   9.357   4.843  0.1221  0.2322 -0.0072
  159ccc    H17 5577   8.180   9.194   4.759 -0.1812  0.4283 -1.7759
  159ccc    C13 5578   8.446   9.332   4.768  0.2264  1.0823 -0.0815
  159ccc    C14 5579   8.437   9.372   4.624  0.2530  0.0243  0.2141
  159ccc    C15 5580   8.311   9.309   4.558 -0.7386  0.1532  0.4807
  159ccc    H18 5581   8.421   9.481   4.626 -2.4359 -0.2851 -0.6367
  159ccc    H19 5582   8.459   9.223   4.761 -2.2155  0.5605  1.8198
  159ccc    H20 5583   8.323   9.200   4.558 -1.5962  0.0074 -1.5721
  159ccc     O1 5584   8.290   9.349   4.424  0.1824  0.3067 -0.4510
  159ccc     O6 5585   8.560   9.387   4.833  0.4136  0.2033 -0.2217
  159ccc    C16 5586   8.052   9.346   4.826  0.4249  0.7178 -0.9379
  159ccc    H21 5587   8.635   9.348   4.784 -0.1670 -1.0563 -0.1427
  159ccc    H22 5588   8.563   9.241   4.544  3.0321 -0.0910 -1.1455
  159ccc    H23 5589   8.071   9.310   4.928  0.2103  1.5265 -0.6086
  159ccc    H24 5590   7.966   9.285   4.795 -0.9585  1.1967  1.7016
  159ccc     O7 5591   8.024   9.484   4.809 -0.3069 -0.2655 -1.0541
  159ccc    H25 5592   8.085   9.538   4.862  1.0481 -0.7860 -2.0382
  159ccc     O8 5593   8.194   9.355   4.626  0.2206  0.5870 -0.6150
  159ccc    H26 5594   8.299   9.445   4.411  0.6487  0.6812  2.1357
  159ccc    H27 5595   8.317   9.466   4.853  3.0020  0.1247 -0.2702
  159ccc     O9 5596   8.319   9.292   4.966 -0.1448  0.0300  0.5229
  159ccc    H28 5597   8.398   9.312   5.020 -1.3156 -1.5771  3.0120
  159ccc     N3 5598   8.556   9.343   4.546 -0.1101 -0.2264  0.0297
  159ccc    C17 5599   9.619   8.992   4.038 -0.1050  0.4732  0.2740
  159ccc    C18 5600   9.582   9.088   4.149  0.1723 -0.0825 -0.2135
  159ccc    H29 5601   9.614   9.043   3.941  1.0261 -0.9316 -0.5647
  159ccc    C19 5602   9.440   9.141   4.148  0.0027  1.2516 -0.7951
  159ccc    C20 5603   9.333   9.030   4.123  0.3116 -1.1415 -0.4499
  159ccc    C21 5604   9.385   8.925   4.017 -0.1760  0.3157 -0.2105
  159ccc    H30 5605   9.326   8.981   4.221  0.5168 -0.8341 -0.2781
  159ccc    H31 5606   9.418   9.214   4.070 -1.3175 -0.8531 -2.5214
  159ccc    H32 5607   9.384   8.963   3.914  1.7109 -1.6559 -1.0234
  159ccc    O10 5608   9.309   8.807   4.031  0.0378 -0.5888  0.3789
  159ccc    O11 5609   9.415   9.197   4.272 -0.3943  0.2320  0.6391
  159ccc    C22 5610   9.755   8.924   4.051  0.2145  0.3737  0.4054
  159ccc    H33 5611   9.323   9.226   4.274 -0.0109  1.9066 -1.6525
  159ccc    H34 5612   9.146   8.996   4.046 -1.5195  0.4319  1.7433
  159ccc    H35 5613   9.836   8.996   4.035  1.6730 -0.6871  2.5012
  159ccc    H36 5614   9.762   8.841   3.979  0.1019 -0.9296  1.8514
  159ccc    O12 5615   9.786   8.871   4.179 -0.3511  0.0725 -0.7888
  159ccc    H37 5616   9.729   8.793   4.192 -2.9738  1.3042 -3.6339
  159ccc    O13 5617   9.516   8.891   4.045 -0.4252  0.3345 -0.6242
  159ccc    H38 5618   9.353   8.742   3.973  2.3859  0.6971  0.6153
  159ccc    H39 5619   9.601   9.043   4.247  0.8111  2.5314  0.9526
  159ccc     O5 5620   9.658   9.207   4.142 -0.5818  0.4206 -0.4028
  159ccc    H40 5621   9.653   9.238   4.234 -2.6027 -3.0577  0.8218
  159ccc     N4 5622   9.195   9.074   4.090  0.4708  0.4518 -0.2985
  160ccc     N1 5623   9.087   9.772   2.301 -0.2671  0.0345 -0.0851
  160ccc     H4 5624   9.155   9.699   2.321  0.6356  1.0485  0.6573
  160ccc     C3 5625   8.984   9.742   2.200 -0.3178 -0.3241  0.4064
  160ccc     H5 5626   8.943   9.646   2.234 -1.3343  0.3701  1.2022
  160ccc     C4 5627   9.046   9.728   2.058  0.8485  0.0297 -0.3918
  160ccc     H6 5628   8.909   9.822   2.199  2.2749  2.3664  2.1680
  160ccc     H7 5629   9.131   9.661   2.074 -0.6524 -1.9764 -0.3766
  160ccc     H8 5630   9.076   9.826   2.019  1.0289  0.4211  0.7022
  160ccc     N2 5631   8.950   9.666   1.969 -0.2669 -0.3461 -0.5602
  160ccc     C5 5632   8.849   9.760   1.924  0.1437 -0.6100  0.1805
  160ccc     C6 5633   9.007   9.610   1.850  0.4049 -0.6150  0.4600
  160ccc     H9 5634   8.925   9.564   1.792  3.0563 -3.6319 -1.2354
  160ccc     C7 5635   9.099   9.494   1.871  0.4380  0.2439 -0.6171
  160ccc    H10 5636   9.051   9.684   1.781  0.9074 -1.6997 -0.4288
  160ccc    H11 5637   9.068   9.439   1.961 -0.8051  3.3614  1.0035
  160ccc    H12 5638   9.203   9.527   1.886  1.1010 -1.0861 -2.0292
  160ccc     C8 5639   9.118   9.403   1.756  0.6322  0.1436  0.2636
  160ccc     O2 5640   9.213   9.393   1.681 -0.0168  0.0541  0.1023
  160ccc    H13 5641   8.837   9.759   1.815  1.2452 -0.4482  0.0424
  160ccc    H14 5642   8.875   9.864   1.948  0.2642  0.1420 -2.8716
  160ccc     C9 5643   8.718   9.717   1.992  0.9631 -0.4247  0.5647
  160ccc    H15 5644   8.724   9.702   2.100 -2.0324 -0.4245  0.7954
  160ccc    H16 5645   8.687   9.626   1.940  0.0450 -0.1452  0.6188
  160ccc    C10 5646   8.617   9.820   1.943  0.8483 -0.3156 -0.9106
  160ccc     O4 5647   8.629   9.879   1.842  0.2736 -0.5401  0.2295
  160ccc    C11 5648   9.040   9.138   1.348  0.2903 -0.8756  0.1409
  160ccc    C12 5649   9.047   9.041   1.474  0.4900 -0.8845 -0.3715
  160ccc    H17 5650   9.138   9.173   1.314  0.4999 -1.0425  0.5564
  160ccc    C13 5651   9.079   9.128   1.604 -0.0804  0.4719  0.7977
  160ccc    C14 5652   8.980   9.241   1.624 -0.1653 -0.5646  0.2583
  160ccc    C15 5653   8.977   9.326   1.491 -0.1891 -0.1768  0.4222
  160ccc    H18 5654   8.879   9.203   1.637 -0.6777  1.0109  1.2391
  160ccc    H19 5655   9.175   9.176   1.579  0.5679  1.1602  4.1296
  160ccc    H20 5656   9.072   9.379   1.482 -0.5436  0.4217  0.2307
  160ccc     O1 5657   8.863   9.416   1.510 -0.3976  0.2260  0.1940
  160ccc     O6 5658   9.092   9.050   1.720 -0.5035  0.0337  0.1153
  160ccc    C16 5659   8.978   9.067   1.224 -0.7281  0.4351  0.2910
  160ccc    H21 5660   9.110   9.113   1.791 -1.2250 -0.7342  1.0117
  160ccc    H22 5661   8.935   9.312   1.810 -1.7974  0.7082 -1.2847
  160ccc    H23 5662   8.883   9.023   1.255 -0.8647 -0.2180 -1.0221
  160ccc    H24 5663   9.042   8.992   1.178 -0.5735  0.6129  0.2142
  160ccc     O7 5664   8.954   9.169   1.127 -0.8137 -0.4256  0.5671
  160ccc    H25 5665   9.000   9.249   1.156 -1.3941  0.1329 -0.0276
  160ccc     O8 5666   8.942   9.246   1.377  0.2908 -0.3741 -0.0966
  160ccc    H26 5667   8.899   9.504   1.492  2.3378 -1.0792 -1.4141
  160ccc    H27 5668   8.952   8.988   1.479  0.7130 -1.6458 -2.8635
  160ccc     O9 5669   9.144   8.944   1.446  0.1533 -0.2571  0.4561
  160ccc    H28 5670   9.146   8.879   1.519  1.5759 -0.4788  0.2567
  160ccc     N3 5671   9.012   9.321   1.745 -0.7527  0.4207 -0.1137
  160ccc    C17 5672   8.380   9.843   2.440  0.1985  0.0625 -0.2850
  160ccc    C18 5673   8.316   9.735   2.347 -0.2353  0.2602  0.2479
  160ccc    H29 5674   8.315   9.930   2.423 -0.1448 -0.1710 -0.1709
  160ccc    C19 5675   8.345   9.764   2.194  0.2701 -0.6144  0.5072
  160ccc    C20 5676   8.494   9.799   2.163 -0.1438 -0.0378  0.0745
  160ccc    C21 5677   8.540   9.915   2.260  0.2945  0.3932  0.4162
  160ccc    H30 5678   8.557   9.712   2.184  0.1362 -0.4666 -2.2147
  160ccc    H31 5679   8.289   9.850   2.157 -0.0862 -0.8241  0.5509
  160ccc    H32 5680   8.475  10.002   2.240 -0.7021 -0.7411 -1.6003
  160ccc    O10 5681   8.674   9.939   2.240 -0.0603  0.7843 -0.3327
  160ccc    O11 5682   8.310   9.640   2.124 -0.1288 -0.1773  0.8438
  160ccc    C22 5683   8.383   9.824   2.589  0.5606  0.2431 -0.3668
  160ccc    H33 5684   8.215   9.621   2.129 -0.1787 -0.2830 -0.3399
  160ccc    H34 5685   8.425   9.875   1.972 -0.2820 -1.6549 -0.4171
  160ccc    H35 5686   8.466   9.757   2.618  0.1163 -0.0548  0.2344
  160ccc    H36 5687   8.288   9.795   2.636  1.7999  1.3990  3.2322
  160ccc    O12 5688   8.406   9.948   2.653  0.0517  0.7904  0.2911
  160ccc    H37 5689   8.415   9.927   2.748  0.4517 -2.9509 -0.4208
  160ccc    O13 5690   8.520   9.873   2.396 -0.5127  0.1189 -0.0718
  160ccc    H38 5691   8.694  10.006   2.308  1.9838 -0.7985  0.7162
  160ccc    H39 5692   8.366   9.640   2.368  0.9564  0.4948 -1.3035
  160ccc     O5 5693   8.178   9.715   2.374 -0.4025  0.2478  0.1531
  160ccc    H40 5694   8.140   9.805   2.373  0.0420  0.4925  2.0045
  160ccc     N4 5695   8.506   9.830   2.016  0.9201  0.3345 -0.4822
  161ccc     N1 5696   9.266  10.080   3.107  0.5264 -0.2586  0.2379
  161ccc     H4 5697   9.279   9.981   3.087 -0.3857 -0.2719 -0.3229
  161ccc     C3 5698   9.161  10.113   3.206  0.2657  0.0378 -0.3039
  161ccc     H5 5699   9.195  10.182   3.285 -0.0993 -2.5569  2.2974
  161ccc     C4 5700   9.081   9.990   3.260 -0.6261  0.1786  1.4456
  161ccc     H6 5701   9.086  10.166   3.147 -0.1957 -0.1328  0.1214
  161ccc     H7 5702   9.156   9.917   3.294 -0.7925 -1.1633 -0.8764
  161ccc     H8 5703   9.025   9.942   3.179 -0.2584  1.2686  0.5173
  161ccc     N2 5704   8.988  10.039   3.362  0.0642  0.2167  0.6521
  161ccc     C5 5705   8.996   9.974   3.487  0.3861  0.9202 -0.6179
  161ccc     C6 5706   8.853  10.065   3.305 -0.3206 -0.2730 -0.1447
  161ccc     H9 5707   8.868  10.074   3.197  1.2683 -2.7882 -0.2261
  161ccc     C7 5708   8.785  10.183   3.370  0.0286  0.3175  0.4183
  161ccc    H10 5709   8.787   9.979   3.313  0.1894 -0.9179 -2.2746
  161ccc    H11 5710   8.847  10.271   3.390 -0.8265  1.1366 -0.4104
  161ccc    H12 5711   8.742  10.153   3.466 -0.3091  0.0928  0.1968
  161ccc     C8 5712   8.674  10.239   3.288  0.2933 -0.2024  0.2551
  161ccc     O2 5713   8.688  10.318   3.198 -0.4202 -0.4846  0.4991
  161ccc    H13 5714   8.978   9.866   3.484  1.3003  0.7194  0.4568
  161ccc    H14 5715   8.923  10.020   3.555 -0.5622  0.3571 -1.2277
  161ccc     C9 5716   9.131  10.016   3.545  0.0460  0.4930 -0.4342
  161ccc    H15 5717   9.120  10.125   3.553 -0.3681  0.4240 -0.0255
  161ccc    H16 5718   9.217   9.980   3.487  1.1676  2.5769 -0.1582
  161ccc    C10 5719   9.149   9.948   3.675  0.3610 -0.1268  0.9004
  161ccc     O4 5720   9.072   9.870   3.732  0.1996 -0.3754  0.3906
  161ccc    C11 5721   8.241  10.343   3.051 -1.5586  1.0001  0.2853
  161ccc    C12 5722   8.280  10.190   3.037 -0.2353  0.0352 -0.1203
  161ccc    H17 5723   8.302  10.398   2.978  1.0772  0.3990  1.9007
  161ccc    C13 5724   8.407  10.153   3.116  0.2338 -0.2107  0.3955
  161ccc    C14 5725   8.422  10.228   3.250 -0.2096 -0.1158  0.2819
  161ccc    C15 5726   8.408  10.375   3.224  0.6094 -0.0636  0.5071
  161ccc    H18 5727   8.337  10.198   3.313 -0.8448  0.2494 -0.3941
  161ccc    H19 5728   8.493  10.178   3.052  1.0655 -1.1489  1.1171
  161ccc    H20 5729   8.479  10.403   3.146  0.1050 -4.2088 -1.7285
  161ccc     O1 5730   8.415  10.450   3.351  0.5201  0.3064  0.0763
  161ccc     O6 5731   8.413  10.007   3.134  0.4335 -0.0126 -0.2686
  161ccc    C16 5732   8.086  10.375   3.036 -0.0555  0.3509  0.5960
  161ccc    H21 5733   8.416   9.966   3.046  0.4314 -0.0021 -0.2734
  161ccc    H22 5734   8.554  10.100   3.355  0.8245  0.1873  0.3219
  161ccc    H23 5735   8.023  10.349   3.121  0.3410 -1.4551  0.3695
  161ccc    H24 5736   8.040  10.322   2.951  2.0643 -1.7046  0.6103
  161ccc     O7 5737   8.067  10.512   3.008  0.2908  0.4288  0.4517
  161ccc    H25 5738   8.130  10.532   2.936  0.6454 -0.9416  0.3493
  161ccc     O8 5739   8.274  10.394   3.184  0.1022 -0.2624  0.4658
  161ccc    H26 5740   8.377  10.394   3.421  2.1108 -1.2649 -0.2224
  161ccc    H27 5741   8.195  10.131   3.073  0.1803 -1.3159 -1.2701
  161ccc     O9 5742   8.297  10.158   2.894  0.1046  0.0407 -0.4062
  161ccc    H28 5743   8.289  10.062   2.881  0.0123 -0.0016 -0.0519
  161ccc     N3 5744   8.555  10.195   3.319 -0.0386 -0.0592 -0.3866
  161ccc    C17 5745   9.463  10.012   4.105 -0.2593 -0.0158 -0.4957
  161ccc    C18 5746   9.316   9.952   4.117  0.2383  0.1727  0.2319
  161ccc    H29 5747   9.468  10.118   4.076 -0.2697  0.1261  0.0081
  161ccc    C19 5748   9.242   9.987   3.987 -0.3585 -0.0530 -0.2207
  161ccc    C20 5749   9.321   9.927   3.861 -0.1463  0.3066  0.2193
  161ccc    C21 5750   9.470   9.961   3.874 -0.4285  0.1118 -0.1844
  161ccc    H30 5751   9.309   9.818   3.868  2.2482 -0.0216  0.2796
  161ccc    H31 5752   9.224  10.095   3.991  1.2328  0.2579 -0.8449
  161ccc    H32 5753   9.493  10.067   3.861 -0.6992  0.1166 -0.6357
  161ccc    O10 5754   9.548   9.880   3.779  0.8041  0.3890 -0.2786
  161ccc    O11 5755   9.120   9.919   3.980 -0.8172 -0.0525 -0.2090
  161ccc    C22 5756   9.553   9.997   4.227  0.2903  0.2135 -0.0271
  161ccc    H33 5757   9.100   9.884   3.892  0.5365 -3.2835  0.6399
  161ccc    H34 5758   9.317  10.061   3.708  1.1669  0.6767  2.6445
  161ccc    H35 5759   9.552   9.894   4.266  0.9903 -1.2522 -3.5295
  161ccc    H36 5760   9.506  10.056   4.307 -1.1637 -0.6900 -0.1620
  161ccc    O12 5761   9.681  10.050   4.212 -0.1424 -0.2651  0.0207
  161ccc    H37 5762   9.714  10.020   4.126 -1.0854 -1.7008  0.1193
  161ccc    O13 5763   9.519   9.927   4.009 -0.6158  0.6375  0.5008
  161ccc    H38 5764   9.638   9.883   3.815  1.6933 -3.3549 -1.6884
  161ccc    H39 5765   9.336   9.845   4.131  0.6806  0.2528  0.2327
  161ccc     O5 5766   9.247   9.999   4.232 -0.3275  0.3970 -0.3705
  161ccc    H40 5767   9.172   9.938   4.247  1.6435 -2.0279  0.3607
  161ccc     N4 5768   9.263   9.977   3.730  0.2844  0.5876  0.4640
  162ccc     N1 5769   9.501   7.907   2.722  0.0480 -0.3794  0.2765
  162ccc     H4 5770   9.403   7.884   2.734 -0.1498 -1.6920 -2.7849
  162ccc     C3 5771   9.585   7.784   2.733  0.0816  0.2961 -0.2232
  162ccc     H5 5772   9.597   7.746   2.631 -1.8680  0.9685 -0.7542
  162ccc     C4 5773   9.537   7.680   2.826  0.1800 -0.4143 -0.7286
  162ccc     H6 5774   9.688   7.818   2.752  0.5457 -0.0206 -1.9565
  162ccc     H7 5775   9.435   7.656   2.793 -0.9656  3.4330 -0.4490
  162ccc     H8 5776   9.526   7.721   2.927  0.9826  1.1147 -1.2396
  162ccc     N2 5777   9.626   7.567   2.829  0.5500  0.4838  0.2662
  162ccc     C5 5778   9.634   7.497   2.956 -0.5256  0.3363 -0.4638
  162ccc     C6 5779   9.606   7.480   2.714  0.7645  0.3106  0.3501
  162ccc     H9 5780   9.581   7.377   2.745 -0.5287  0.1729 -1.0174
  162ccc     C7 5781   9.726   7.469   2.625 -0.5386 -0.0371  1.2062
  162ccc    H10 5782   9.512   7.505   2.663 -1.0334 -0.6999  2.9474
  162ccc    H11 5783   9.811   7.402   2.643  1.6097  2.4681  1.0648
  162ccc    H12 5784   9.765   7.570   2.607  0.1711 -0.5595 -0.3524
  162ccc     C8 5785   9.660   7.438   2.492  0.4685 -0.0108 -0.1104
  162ccc     O2 5786   9.610   7.525   2.427 -0.7609  0.3130 -0.5456
  162ccc    H13 5787   9.550   7.427   2.955 -1.5974  1.5225  1.1587
  162ccc    H14 5788   9.617   7.563   3.042  2.1055 -2.1427  2.1524
  162ccc     C9 5789   9.770   7.435   2.975 -0.7649 -0.5894  0.2463
  162ccc    H15 5790   9.840   7.520   2.978 -0.3494 -0.9361  0.4977
  162ccc    H16 5791   9.794   7.363   2.895 -0.2872  1.2767 -1.3797
  162ccc    C10 5792   9.786   7.385   3.110 -0.0030  0.7964 -0.6405
  162ccc     O4 5793   9.825   7.446   3.205 -0.2863 -0.3699  0.0630
  162ccc    C11 5794   9.560   7.309   2.044 -0.2726 -0.3213 -0.3510
  162ccc    C12 5795   9.700   7.250   2.086 -0.7159  0.3213 -0.0537
  162ccc    H17 5796   9.555   7.418   2.056 -0.3055 -0.3705  0.1031
  162ccc    C13 5797   9.724   7.277   2.235 -0.6517  0.1123 -0.4997
  162ccc    C14 5798   9.607   7.248   2.329  0.3560  0.1851  0.5409
  162ccc    C15 5799   9.480   7.310   2.263 -0.3858 -0.4957 -0.3273
  162ccc    H18 5800   9.587   7.140   2.340  1.4409 -0.1602 -0.6145
  162ccc    H19 5801   9.744   7.385   2.243 -0.5646  0.0744 -0.1771
  162ccc    H20 5802   9.493   7.418   2.250  1.0789 -0.6355 -0.2490
  162ccc     O1 5803   9.370   7.268   2.343  0.9700 -0.5380  0.0276
  162ccc     O6 5804   9.840   7.212   2.282  0.3990  0.1075 -0.0586
  162ccc    C16 5805   9.525   7.269   1.900  0.1787  0.4241  0.4395
  162ccc    H21 5806   9.893   7.285   2.320  1.1189 -0.5892  0.3042
  162ccc    H22 5807   9.700   7.239   2.510  0.2029  0.0345  0.1242
  162ccc    H23 5808   9.602   7.307   1.831  0.3999 -1.1605 -0.2301
  162ccc    H24 5809   9.430   7.317   1.875 -0.0503 -1.2089 -2.2548
  162ccc     O7 5810   9.504   7.136   1.891 -0.4557  0.9130  0.3719
  162ccc    H25 5811   9.451   7.114   1.969 -0.1733 -1.0183  0.0756
  162ccc     O8 5812   9.463   7.259   2.134 -0.0810 -0.0845  0.0042
  162ccc    H26 5813   9.295   7.307   2.295  0.7368 -2.4494 -1.2758
  162ccc    H27 5814   9.697   7.142   2.070 -0.0657  0.1112  1.1444
  162ccc     O9 5815   9.811   7.313   2.022 -0.1005  0.1417  0.1347
  162ccc    H28 5816   9.855   7.255   1.957 -0.1714  0.3323 -0.0856
  162ccc     N3 5817   9.641   7.307   2.461 -0.2498 -0.2204  0.3093
  162ccc    C17 5818   9.564   7.015   3.438  0.1171 -0.0148 -0.5898
  162ccc    C18 5819   9.684   6.965   3.365  0.4394 -0.4984 -0.3794
  162ccc    H29 5820   9.475   6.972   3.390  0.2000 -0.8439 -0.0089
  162ccc    C19 5821   9.717   7.033   3.227  0.0531  0.2003  0.1719
  162ccc    C20 5822   9.702   7.189   3.242 -0.3879 -0.1358  0.2191
  162ccc    C21 5823   9.565   7.222   3.301 -0.9938  0.1812  0.3019
  162ccc    H30 5824   9.777   7.221   3.314 -0.7134 -0.8898  0.9136
  162ccc    H31 5825   9.639   7.006   3.155 -2.9668  0.6130  3.0741
  162ccc    H32 5826   9.482   7.174   3.249 -0.8224 -1.0801  1.1388
  162ccc    O10 5827   9.535   7.355   3.342 -0.5218 -0.2062  0.7411
  162ccc    O11 5828   9.854   7.006   3.191  0.2280  0.3764 -0.1228
  162ccc    C22 5829   9.564   6.974   3.589 -0.8554 -0.0490 -0.1893
  162ccc    H33 5830   9.849   7.022   3.096  1.9826  1.2135 -0.1221
  162ccc    H34 5831   9.683   7.224   3.043 -0.3398  2.0859 -1.1232
  162ccc    H35 5832   9.649   7.027   3.634 -0.9213 -2.4808  3.0972
  162ccc    H36 5833   9.582   6.867   3.605  1.2105  0.4459  1.2926
  162ccc    O12 5834   9.445   7.021   3.652  0.0621 -0.1603 -0.6263
  162ccc    H37 5835   9.407   7.095   3.602 -0.7196  0.6495  1.0857
  162ccc    O13 5836   9.561   7.158   3.430 -0.2614  0.3490 -0.4336
  162ccc    H38 5837   9.494   7.339   3.429 -0.1144 -0.2391  0.9312
  162ccc    H39 5838   9.769   6.988   3.431 -0.2384 -2.3430  1.2445
  162ccc     O5 5839   9.682   6.826   3.338 -0.0376  0.5772 -0.5230
  162ccc    H40 5840   9.770   6.800   3.304 -0.4383 -3.1982  0.8530
  162ccc     N4 5841   9.741   7.257   3.120  0.4881 -0.4568 -0.5470
  163ccc     N1 5842   9.606   8.435   3.068  0.7296  0.3273 -0.7363
  163ccc     H4 5843   9.580   8.341   3.097 -3.3385  1.9160  1.5694
  163ccc     C3 5844   9.641   8.530   3.173  0.3713  0.4996 -0.2240
  163ccc     H5 5845   9.746   8.562   3.177 -0.0327  1.8441  0.0720
  163ccc     C4 5846   9.605   8.486   3.315 -0.0553 -0.1043  0.4733
  163ccc     H6 5847   9.584   8.623   3.160  2.0552  1.4048 -1.6245
  163ccc     H7 5848   9.653   8.388   3.327  0.0947 -0.4819 -2.5435
  163ccc     H8 5849   9.498   8.470   3.332  0.0691 -2.5023 -0.6428
  163ccc     N2 5850   9.662   8.568   3.418  0.1151 -0.1315  0.2605
  163ccc     C5 5851   9.606   8.705   3.418  0.8305  0.3023 -0.0356
  163ccc     C6 5852   9.633   8.505   3.544 -0.2355 -0.1352 -0.0008
  163ccc     H9 5853   9.672   8.571   3.622  0.9803 -0.0389 -0.6599
  163ccc     C7 5854   9.702   8.371   3.568  0.1528 -0.9783  0.1744
  163ccc    H10 5855   9.525   8.492   3.556 -0.1035 -2.9833 -1.1312
  163ccc    H11 5856   9.804   8.377   3.529 -0.7879 -0.3504 -2.3565
  163ccc    H12 5857   9.665   8.282   3.517  2.5073 -2.5486  1.0410
  163ccc     C8 5858   9.698   8.344   3.716 -0.1441 -0.4835 -0.2754
  163ccc     O2 5859   9.611   8.287   3.778 -0.7749  0.0373  0.0349
  163ccc    H13 5860   9.565   8.742   3.513  1.2347 -0.7996  0.5827
  163ccc    H14 5861   9.533   8.714   3.336 -0.2040  2.1899  1.0157
  163ccc     C9 5862   9.724   8.786   3.369 -0.1261 -0.3328 -0.7484
  163ccc    H15 5863   9.772   8.744   3.280  0.5064  0.2621 -0.6989
  163ccc    H16 5864   9.796   8.789   3.451  0.8573  3.2648 -1.5428
  163ccc    C10 5865   9.680   8.928   3.337  0.4516 -0.5094 -0.6669
  163ccc     O4 5866   9.581   8.990   3.381  0.1839 -0.2940 -0.1386
  163ccc    C11 5867   9.885   8.532   4.179  0.2687  0.5717 -0.7579
  163ccc    C12 5868   9.734   8.511   4.154 -0.5595  0.4016  0.5625
  163ccc    H17 5869   9.918   8.631   4.145 -1.2336  0.7879 -1.6983
  163ccc    C13 5870   9.712   8.487   4.001  0.3629 -0.0221  0.4235
  163ccc    C14 5871   9.818   8.394   3.928  0.0764 -0.5628 -0.7578
  163ccc    C15 5872   9.960   8.433   3.972 -0.2867  0.3852  0.4485
  163ccc    H18 5873   9.800   8.293   3.967  0.6582  0.1148  1.3993
  163ccc    H19 5874   9.729   8.585   3.955  0.4065 -0.3388 -0.2517
  163ccc    H20 5875   9.989   8.530   3.930 -0.1834 -0.5969 -1.8753
  163ccc     O1 5876  10.058   8.334   3.941  0.0448  0.9148  0.3217
  163ccc     O6 5877   9.575   8.455   3.975 -0.0219 -0.2038 -0.4604
  163ccc    C16 5878   9.926   8.521   4.328 -0.2957 -0.8177  1.0046
  163ccc    H21 5879   9.585   8.371   3.925 -0.0128 -0.3693 -0.1831
  163ccc    H22 5880   9.864   8.460   3.733 -2.2992  2.0973 -0.3634
  163ccc    H23 5881   9.885   8.428   4.370 -1.4978 -0.8566 -0.1985
  163ccc    H24 5882   9.880   8.606   4.379 -0.5325 -0.1907 -0.2090
  163ccc     O7 5883  10.066   8.540   4.336 -0.2070 -0.2451  0.1474
  163ccc    H25 5884  10.107   8.501   4.256 -2.0952 -0.6525 -0.6751
  163ccc     O8 5885   9.962   8.430   4.117  0.4183  0.2335  0.5953
  163ccc    H26 5886  10.071   8.277   4.019  1.5048  0.3169 -0.3316
  163ccc    H27 5887   9.701   8.424   4.213 -1.6277 -0.3544 -1.0530
  163ccc     O9 5888   9.664   8.631   4.182 -0.1353  0.2900  0.1755
  163ccc    H28 5889   9.568   8.613   4.174 -0.1432  0.3807  0.0653
  163ccc     N3 5890   9.808   8.388   3.778  0.1518  0.0655 -0.3290
  163ccc    C17 5891  10.140   9.013   3.059 -0.6612  0.0930  0.1566
  163ccc    C18 5892  10.141   9.060   3.206 -0.1292  0.1398  0.0234
  163ccc    H29 5893  10.113   9.100   2.998 -1.5101 -0.0863  0.2666
  163ccc    C19 5894  10.003   9.103   3.250 -0.1829 -0.2170 -0.4689
  163ccc    C20 5895   9.908   8.981   3.228 -0.7434 -0.0347  0.4212
  163ccc    C21 5896   9.907   8.948   3.077 -0.1348  0.1508 -0.6532
  163ccc    H30 5897   9.953   8.899   3.285  2.5300  0.7621 -0.8093
  163ccc    H31 5898   9.962   9.176   3.179  0.6048  0.3496 -0.3617
  163ccc    H32 5899   9.869   9.040   3.030  0.5786  0.0157 -1.5176
  163ccc    O10 5900   9.820   8.841   3.048  0.1539 -0.4226 -0.2380
  163ccc    O11 5901  10.007   9.141   3.390  0.0170 -0.0052  0.3755
  163ccc    C22 5902  10.278   8.967   3.010  0.5263  0.4549  0.0349
  163ccc    H33 5903   9.991   9.063   3.447 -0.1320  0.8037  1.4859
  163ccc    H34 5904   9.733   9.095   3.236  1.6380  0.5440 -0.7934
  163ccc    H35 5905  10.322   8.901   3.086 -1.7993 -1.4448 -0.1601
  163ccc    H36 5906  10.339   9.057   2.994  0.1565  0.8550  0.8066
  163ccc    O12 5907  10.263   8.906   2.882  0.2587 -0.2739  0.2084
  163ccc    H37 5908  10.246   8.810   2.890  1.1479 -0.3965  0.7530
  163ccc    O13 5909  10.040   8.909   3.035  0.2530 -0.1514  0.2562
  163ccc    H38 5910   9.783   8.862   2.960  2.1201  2.1527 -0.5990
  163ccc    H39 5911  10.185   8.986   3.273  0.6827  1.3591  0.8870
  163ccc     O5 5912  10.215   9.183   3.220 -0.4466 -0.0778  0.0637
  163ccc    H40 5913  10.181   9.233   3.296  0.0180 -0.2424  0.3900
  163ccc     N4 5914   9.768   9.009   3.277  0.0813  0.2381 -0.0143
  164ccc     N1 5915   8.531   8.634   4.099  0.6686 -0.7006 -0.5441
  164ccc     H4 5916   8.584   8.717   4.124 -0.4208  0.5176 -2.0465
  164ccc     C3 5917   8.386   8.630   4.137  0.3370 -0.1339 -0.2143
  164ccc     H5 5918   8.325   8.688   4.067  1.0666  1.3027  0.3041
  164ccc     C4 5919   8.362   8.678   4.281  0.1335  0.1939  0.1483
  164ccc     H6 5920   8.351   8.526   4.133 -0.6127  0.1541  0.2103
  164ccc     H7 5921   8.438   8.628   4.342  0.5056  0.1569 -0.3414
  164ccc     H8 5922   8.257   8.657   4.305 -0.9142  1.5767 -2.7243
  164ccc     N2 5923   8.387   8.821   4.311 -0.5301  0.3371 -0.9192
  164ccc     C5 5924   8.298   8.909   4.239 -0.4156  0.6464 -0.3649
  164ccc     C6 5925   8.356   8.840   4.453 -0.4118  0.0265  0.0939
  164ccc     H9 5926   8.311   8.938   4.470 -3.2751 -1.0688 -0.5896
  164ccc     C7 5927   8.475   8.832   4.543  0.7393 -0.3651  0.5729
  164ccc    H10 5928   8.278   8.768   4.484  0.4491 -1.1270 -0.3300
  164ccc    H11 5929   8.541   8.747   4.521  1.1627  0.1529 -0.2079
  164ccc    H12 5930   8.440   8.795   4.640  0.1857 -1.0964  0.1074
  164ccc     C8 5931   8.559   8.954   4.559 -0.1264 -0.4072  0.0576
  164ccc     O2 5932   8.508   9.064   4.578 -0.8656 -0.2979 -0.0711
  164ccc    H13 5933   8.195   8.905   4.274 -0.6992 -1.0691 -1.2630
  164ccc    H14 5934   8.299   8.889   4.131  2.9559 -0.8193 -0.1879
  164ccc     C9 5935   8.353   9.051   4.230  0.3233  0.3126 -0.3020
  164ccc    H15 5936   8.457   9.047   4.197  0.4265 -1.4392  0.1512
  164ccc    H16 5937   8.350   9.107   4.324 -0.1018 -0.7848  0.3586
  164ccc    C10 5938   8.272   9.125   4.133  0.6380  0.2595 -0.3558
  164ccc     O4 5939   8.256   9.109   4.015 -0.0318 -0.6535  0.6327
  164ccc    C11 5940   9.069   9.102   4.700  0.0359 -0.3003  1.5340
  164ccc    C12 5941   9.043   9.092   4.547  0.8028  0.5989 -0.1295
  164ccc    H17 5942   9.095   9.001   4.733 -0.3958 -0.7688  0.4881
  164ccc    C13 5943   8.922   8.994   4.522 -0.3813  0.5378  0.0963
  164ccc    C14 5944   8.796   9.034   4.599 -0.1275 -0.1036  0.0084
  164ccc    C15 5945   8.831   9.056   4.747  0.5798 -0.5356  0.4024
  164ccc    H18 5946   8.760   9.131   4.561 -0.5966 -0.1166  0.4088
  164ccc    H19 5947   8.949   8.895   4.561  1.0290  1.4722  1.6388
  164ccc    H20 5948   8.856   8.958   4.788  2.1061 -0.2985  0.0885
  164ccc     O1 5949   8.726   9.132   4.811  0.0319  0.0544  0.8253
  164ccc     O6 5950   8.898   8.979   4.373 -0.0699  0.1797 -0.0901
  164ccc    C16 5951   9.179   9.209   4.724 -0.2237  1.3171  0.2237
  164ccc    H21 5952   8.829   8.911   4.366  0.7439 -0.7935  0.8775
  164ccc    H22 5953   8.740   8.846   4.569  1.2565  0.2401 -0.5347
  164ccc    H23 5954   9.143   9.308   4.695 -2.0921  0.3702 -0.8718
  164ccc    H24 5955   9.263   9.182   4.658 -1.1854 -1.6258  0.0638
  164ccc     O7 5956   9.215   9.205   4.860 -0.2141 -0.1063  0.3466
  164ccc    H25 5957   9.142   9.238   4.916  1.0639 -0.9193  2.6548
  164ccc     O8 5958   8.945   9.148   4.759  0.3608  0.1764 -0.2098
  164ccc    H26 5959   8.764   9.154   4.898  2.3980 -2.7664  0.6646
  164ccc    H27 5960   9.009   9.190   4.511 -1.8501  0.1057  0.7768
  164ccc     O9 5961   9.152   9.045   4.470  0.0619 -0.3227 -0.2880
  164ccc    H28 5962   9.138   9.067   4.376  0.6178  2.9275  0.2625
  164ccc     N3 5963   8.687   8.933   4.572 -0.5034 -0.7976  0.0379
  164ccc    C17 5964   7.932   9.543   4.139 -0.3970 -0.1919  0.3279
  164ccc    C18 5965   8.051   9.532   4.043  0.5344 -0.1150 -1.1102
  164ccc    H29 5966   7.952   9.599   4.231 -0.1045  0.6923 -0.2709
  164ccc    C19 5967   8.167   9.443   4.107 -0.2108  0.4387  0.0417
  164ccc    C20 5968   8.105   9.305   4.143  0.1634  0.0617  0.2167
  164ccc    C21 5969   7.990   9.330   4.242  0.2064 -0.3155 -0.4908
  164ccc    H30 5970   8.050   9.257   4.061  0.4841 -1.9025  1.0947
  164ccc    H31 5971   8.209   9.495   4.194  1.5955  1.7978 -1.5599
  164ccc    H32 5972   8.022   9.389   4.328  0.4884 -0.1440 -0.7164
  164ccc    O10 5973   7.920   9.212   4.286 -0.4347  0.3708  0.2300
  164ccc    O11 5974   8.270   9.431   4.004  0.3761  0.1203  0.4627
  164ccc    C22 5975   7.797   9.598   4.077 -0.7565  0.1134  0.2981
  164ccc    H33 5976   8.264   9.347   3.954 -1.3067  1.5586 -2.0039
  164ccc    H34 5977   8.225   9.226   4.297  1.6629 -0.1261  0.0912
  164ccc    H35 5978   7.800   9.698   4.031  0.0384 -0.7238 -1.6017
  164ccc    H36 5979   7.725   9.601   4.159 -0.8300 -0.8190  0.2819
  164ccc    O12 5980   7.749   9.501   3.979  0.0870  0.1631 -0.0910
  164ccc    H37 5981   7.754   9.415   4.024  1.7225  0.5139  0.4477
  164ccc    O13 5982   7.886   9.408   4.182 -0.4556 -0.0393  0.2189
  164ccc    H38 5983   7.882   9.183   4.201 -0.1912  0.6055  0.0397
  164ccc    H39 5984   8.015   9.482   3.952  1.9023 -1.0798 -1.1575
  164ccc     O5 5985   8.100   9.661   4.000  0.2322 -0.6773  0.2283
  164ccc    H40 5986   8.164   9.694   4.065  0.4497 -3.3483  1.4914
  164ccc     N4 5987   8.196   9.207   4.201  0.5769  0.2106  0.3350
  165ccc     N1 5988   9.240   8.761   4.318 -0.0450  0.0121 -0.0831
  165ccc     H4 5989   9.266   8.770   4.221  0.4827  0.5441  0.0989
  165ccc     C3 5990   9.343   8.754   4.418  0.4609  0.0284  0.1143
  165ccc     H5 5991   9.311   8.797   4.513  1.1415  0.7323  0.0363
  165ccc     C4 5992   9.468   8.845   4.405  0.8099 -0.2143  0.4445
  165ccc     H6 5993   9.384   8.652   4.428  0.5361  0.0864  0.4013
  165ccc     H7 5994   9.430   8.942   4.372  1.2122 -0.4242 -0.6566
  165ccc     H8 5995   9.531   8.821   4.319 -2.1860 -0.4095 -1.8530
  165ccc     N2 5996   9.548   8.862   4.525 -0.0563  0.0589 -0.2730
  165ccc     C5 5997   9.642   8.752   4.532 -0.2192  0.0610  0.3763
  165ccc     C6 5998   9.609   8.991   4.529  0.3998 -0.0987 -0.5218
  165ccc     H9 5999   9.696   8.983   4.595 -0.4974  0.3819  0.7624
  165ccc     C7 6000   9.514   9.095   4.581  0.4060 -0.4425 -0.1580
  165ccc    H10 6001   9.650   9.016   4.430  1.0218 -0.9931 -0.5031
  165ccc    H11 6002   9.500   9.101   4.690 -0.0205 -1.2265 -0.1600
  165ccc    H12 6003   9.417   9.094   4.529 -0.9027 -0.3797  2.0875
  165ccc     C8 6004   9.583   9.232   4.573 -0.4437  0.7305 -0.0926
  165ccc     O2 6005   9.698   9.255   4.605 -0.2203 -0.1806 -0.6248
  165ccc    H13 6006   9.735   8.763   4.473  1.0940 -0.6185  2.2243
  165ccc    H14 6007   9.589   8.666   4.489 -2.9292  1.3043  1.0103
  165ccc     C9 6008   9.679   8.714   4.676  0.1056 -0.3302 -0.4968
  165ccc    H15 6009   9.585   8.686   4.725  0.3292 -0.6248 -0.2337
  165ccc    H16 6010   9.732   8.794   4.729 -0.1339 -0.6492  0.2216
  165ccc    C10 6011   9.760   8.586   4.669  0.1750  0.5493 -0.4271
  165ccc     O4 6012   9.726   8.489   4.604  0.3444  0.1787 -0.2250
  165ccc    C11 6013   9.709   9.718   4.609 -0.3104 -0.4044 -0.7402
  165ccc    C12 6014   9.695   9.655   4.467  0.1771  0.5705  0.6266
  165ccc    H17 6015   9.794   9.667   4.657 -0.3344  1.4861  1.5051
  165ccc    C13 6016   9.676   9.503   4.468 -0.1723  0.2076  0.0931
  165ccc    C14 6017   9.546   9.476   4.550  0.0096 -0.6145  0.5958
  165ccc    C15 6018   9.561   9.541   4.694  0.3496  0.2260 -0.0068
  165ccc    H18 6019   9.469   9.530   4.493  1.4515  1.1581  0.2318
  165ccc    H19 6020   9.761   9.459   4.521 -0.8835  0.3266  1.3841
  165ccc    H20 6021   9.640   9.492   4.752  0.0471 -1.4842 -0.9671
  165ccc     O1 6022   9.441   9.526   4.765  0.6511  0.1420 -0.5065
  165ccc     O6 6023   9.659   9.430   4.344  0.1587  0.0850  0.2339
  165ccc    C16 6024   9.736   9.867   4.626 -0.2689  0.1111 -0.4446
  165ccc    H21 6025   9.590   9.475   4.292 -0.4247 -0.8477  0.1765
  165ccc    H22 6026   9.406   9.316   4.516  1.1653 -1.7535 -2.6434
  165ccc    H23 6027   9.664   9.935   4.580 -0.1193  2.1653  2.0826
  165ccc    H24 6028   9.830   9.906   4.586  0.6619  1.0513  2.4057
  165ccc     O7 6029   9.728   9.892   4.767 -0.2165 -0.0445 -0.6160
  165ccc    H25 6030   9.655   9.838   4.802  1.7176 -4.1455 -2.2311
  165ccc     O8 6031   9.587   9.678   4.682 -0.7068 -0.2792  0.4820
  165ccc    H26 6032   9.457   9.460   4.835 -1.1098 -0.4521 -0.6153
  165ccc    H27 6033   9.602   9.690   4.420  0.3229 -0.0711 -0.1684
  165ccc     O9 6034   9.819   9.680   4.391  0.6931 -0.0667 -0.2670
  165ccc    H28 6035   9.795   9.705   4.300  1.1757  1.1117 -0.1002
  165ccc     N3 6036   9.499   9.336   4.551 -0.2088  0.2156  0.4084
  165ccc    C17 6037   9.977   8.176   4.819 -0.6383 -0.3147 -0.3818
  165ccc    C18 6038  10.083   8.268   4.758  0.2012 -0.9876 -0.4758
  165ccc    H29 6039   9.912   8.136   4.740  0.9590 -0.7200 -1.5551
  165ccc    C19 6040  10.025   8.404   4.717  0.6124 -0.8621  0.1261
  165ccc    C20 6041   9.920   8.460   4.818 -0.2439  0.4345 -0.5053
  165ccc    C21 6042   9.823   8.351   4.867  0.2199 -1.0323  0.0108
  165ccc    H30 6043   9.970   8.494   4.909 -0.3514  1.4556 -0.8078
  165ccc    H31 6044   9.972   8.389   4.622  0.9095  0.9431 -0.3613
  165ccc    H32 6045   9.759   8.313   4.787 -0.2567 -0.9774  0.3575
  165ccc    O10 6046   9.744   8.395   4.982  0.8030  0.0261 -0.1304
  165ccc    O11 6047  10.124   8.496   4.700  0.0756 -0.5828  0.5092
  165ccc    C22 6048  10.026   8.054   4.883  0.2504  0.4010 -0.3736
  165ccc    H33 6049  10.174   8.478   4.618  0.0315  0.9240  0.1262
  165ccc    H34 6050   9.858   8.662   4.822  2.0697  1.1167 -1.8611
  165ccc    H35 6051  10.049   7.984   4.801  1.4433 -1.8583  1.7383
  165ccc    H36 6052   9.943   8.005   4.936  0.7944 -0.0504  0.0777
  165ccc    O12 6053  10.149   8.060   4.968 -0.0779 -0.3769 -0.6162
  165ccc    H37 6054  10.163   7.978   5.018 -1.5452 -0.3912 -0.1802
  165ccc    O13 6055   9.898   8.241   4.917 -0.1065  0.3761  0.0600
  165ccc    H38 6056   9.808   8.428   5.048  3.6124 -0.1944 -2.5152
  165ccc    H39 6057  10.156   8.286   4.838 -2.1123 -0.3590  1.6561
  165ccc     O5 6058  10.156   8.214   4.659  0.0082  0.1874  0.3263
  165ccc    H40 6059  10.104   8.150   4.609  0.3777 -0.3891  0.6663
  165ccc     N4 6060   9.856   8.580   4.761 -0.0090  0.0923 -0.5465
  166ccc     N1 6061  10.903  10.570   1.469 -0.2117  0.3124  0.0025
  166ccc     H4 6062  10.939  10.484   1.508  0.4431  1.1490  1.3171
  166ccc     C3 6063  10.907  10.587   1.321  0.3476 -0.2977  0.4316
  166ccc     H5 6064  10.844  10.669   1.284  3.9943  3.1611  1.1731
  166ccc     C4 6065  10.866  10.464   1.255  0.3044 -0.1227  0.1499
  166ccc     H6 6066  11.013  10.610   1.301 -0.2256  1.7570 -0.5698
  166ccc     H7 6067  10.757  10.460   1.249  0.2439  0.9204  0.4528
  166ccc     H8 6068  10.918  10.395   1.323  0.5511 -0.6146 -0.5234
  166ccc     N2 6069  10.931  10.445   1.127  0.3764 -0.3297 -0.2471
  166ccc     C5 6070  10.924  10.313   1.073 -0.4402 -0.3853  0.2116
  166ccc     C6 6071  10.897  10.547   1.032 -0.2698 -0.7163 -0.8312
  166ccc     H9 6072  10.804  10.522   0.980 -0.7456 -1.9482  0.5325
  166ccc     C7 6073  11.012  10.571   0.928  0.7661 -0.0317  0.2014
  166ccc    H10 6074  10.886  10.643   1.083  1.4679 -1.4591  1.0628
  166ccc    H11 6075  11.014  10.506   0.839  0.8843  1.1218 -0.6654
  166ccc    H12 6076  11.113  10.554   0.967  1.1943  2.2865  0.2287
  166ccc     C8 6077  10.996  10.712   0.879 -0.6851 -0.0324 -0.3363
  166ccc     O2 6078  10.955  10.734   0.764  0.2662  0.3292  0.0105
  166ccc    H13 6079  10.985  10.242   1.131  0.3051 -0.4249 -0.5954
  166ccc    H14 6080  10.960  10.317   0.970 -1.1304 -0.8238 -0.0532
  166ccc     C9 6081  10.784  10.251   1.054 -0.1359  0.0915  0.1247
  166ccc    H15 6082  10.723  10.288   0.971  0.1844  1.2824  0.4037
  166ccc    H16 6083  10.717  10.267   1.139  0.7743 -1.0317  1.0912
  166ccc    C10 6084  10.791  10.099   1.026  0.3977  0.1615 -0.1094
  166ccc     O4 6085  10.818  10.017   1.114  0.8354 -0.3395  0.5364
  166ccc    C11 6086  10.900  11.211   1.076  0.6450 -0.3259  0.1420
  166ccc    C12 6087  11.053  11.179   1.073  0.7247 -0.6225  0.2392
  166ccc    H17 6088  10.851  11.173   1.167 -1.0897 -1.2516 -1.1377
  166ccc    C13 6089  11.090  11.032   1.063  0.2606 -0.4441  0.5367
  166ccc    C14 6090  11.006  10.959   0.954 -0.3773 -0.3837  0.9071
  166ccc    C15 6091  10.854  10.994   0.970 -0.5872  0.3155  0.4079
  166ccc    H18 6092  11.021  10.999   0.853 -2.1107 -1.8106  0.0154
  166ccc    H19 6093  11.072  10.988   1.163 -0.5968 -0.9846  0.1614
  166ccc    H20 6094  10.811  10.961   1.065 -1.5423  1.6422  0.4664
  166ccc     O1 6095  10.775  10.942   0.865 -0.7258  0.3772  0.0520
  166ccc     O6 6096  11.224  11.012   1.020 -0.2265  0.2580  0.1002
  166ccc    C16 6097  10.866  11.359   1.071 -0.1356  0.5680  0.8812
  166ccc    H21 6098  11.273  10.976   1.096  2.2558 -0.4227 -1.6893
  166ccc    H22 6099  11.104  10.795   1.032 -0.5973  1.6266  0.2031
  166ccc    H23 6100  10.873  11.402   1.172  0.7585  0.6256  0.8085
  166ccc    H24 6101  10.764  11.360   1.032  0.2242  2.5442 -0.1503
  166ccc     O7 6102  10.959  11.437   0.987 -0.3363 -0.4145 -0.1286
  166ccc    H25 6103  10.910  11.497   0.929  0.2082  1.4498  1.2561
  166ccc     O8 6104  10.831  11.138   0.971 -0.9090  0.0229  0.7221
  166ccc    H26 6105  10.797  10.847   0.867  0.0057  0.5469  0.4152
  166ccc    H27 6106  11.103  11.230   0.990 -0.8807 -0.1715 -0.4811
  166ccc     O9 6107  11.107  11.235   1.189  0.3674  0.1960 -0.4510
  166ccc    H28 6108  11.066  11.187   1.264  0.4004  0.6725 -0.1237
  166ccc     N3 6109  11.038  10.813   0.957  0.1123  0.1869 -0.8081
  166ccc    C17 6110  11.175   9.938   0.699  0.0650  0.0479 -0.5603
  166ccc    C18 6111  11.091  10.043   0.626 -0.2924 -0.0350  0.3915
  166ccc    H29 6112  11.140   9.840   0.665 -0.7085  0.3435 -0.6442
  166ccc    C19 6113  10.946  10.047   0.682  0.9188  0.3008  0.6653
  166ccc    C20 6114  10.946  10.052   0.835 -0.8716  0.2247 -0.2744
  166ccc    C21 6115  11.033   9.934   0.891  0.1948  0.4632 -0.0764
  166ccc    H30 6116  10.995  10.148   0.854 -1.8577  0.8221 -0.6382
  166ccc    H31 6117  10.898   9.957   0.641  1.3225  0.7207 -0.8207
  166ccc    H32 6118  11.003   9.834   0.858 -0.4119  1.0844 -1.4431
  166ccc    O10 6119  11.040   9.942   1.029  0.2506  0.7006  0.3270
  166ccc    O11 6120  10.883  10.167   0.631  0.0498 -0.2338 -0.2017
  166ccc    C22 6121  11.327   9.943   0.668  0.0754  0.3469 -0.3248
  166ccc    H33 6122  10.901  10.164   0.536  0.3071 -0.5484 -0.1446
  166ccc    H34 6123  10.762  10.133   0.829 -2.8438 -1.9437 -0.4996
  166ccc    H35 6124  11.355  10.049   0.665 -4.2574  1.6695 -0.5011
  166ccc    H36 6125  11.339   9.889   0.573  2.3856 -1.0501  0.6580
  166ccc    O12 6126  11.405   9.885   0.777 -0.5504  0.0868 -0.3411
  166ccc    H37 6127  11.356   9.885   0.861 -0.8987  1.2561 -0.5291
  166ccc    O13 6128  11.163   9.951   0.841 -0.1923 -0.0606  0.9378
  166ccc    H38 6129  10.948   9.946   1.058 -0.3688 -1.9462 -0.9456
  166ccc    H39 6130  11.143  10.139   0.637  0.3914 -0.6553  3.7597
  166ccc     O5 6131  11.079  10.008   0.486 -0.4644  0.1731 -0.4909
  166ccc    H40 6132  11.161  10.038   0.442  0.2314  2.2616  1.9987
  166ccc     N4 6133  10.807  10.068   0.893  0.7568  0.8404  0.1410
  167ccc     N1 6134  11.402  10.497   1.896  0.3743  0.1599  0.2560
  167ccc     H4 6135  11.382  10.468   1.801  1.1342  1.1670 -0.2321
  167ccc     C3 6136  11.539  10.536   1.921  0.2506 -0.4277 -0.7845
  167ccc     H5 6137  11.585  10.594   1.840 -1.1708  2.1283  0.1091
  167ccc     C4 6138  11.641  10.426   1.958  0.1077 -0.3271  0.0327
  167ccc     H6 6139  11.542  10.601   2.009  2.1860 -1.7018  0.1662
  167ccc     H7 6140  11.653  10.363   1.869 -0.9016 -1.3209  0.5780
  167ccc     H8 6141  11.607  10.370   2.046 -1.0234  0.2646  0.0055
  167ccc     N2 6142  11.770  10.492   1.997  0.2994 -0.9349  0.3975
  167ccc     C5 6143  11.889  10.404   2.001 -0.0331 -0.0231  0.2336
  167ccc     C6 6144  11.755  10.564   2.122  0.1416 -0.0106  0.1650
  167ccc     H9 6145  11.665  10.541   2.180 -0.0129  2.8840  1.2483
  167ccc     C7 6146  11.780  10.717   2.111 -0.3176  0.8038 -1.3174
  167ccc    H10 6147  11.833  10.528   2.191 -0.8384  2.8391  3.0550
  167ccc    H11 6148  11.705  10.755   2.040 -0.4446  0.0799 -1.5895
  167ccc    H12 6149  11.882  10.717   2.070  0.7639 -0.5547  1.1725
  167ccc     C8 6150  11.763  10.764   2.257 -0.4109  0.5683  0.1334
  167ccc     O2 6151  11.721  10.699   2.352  0.2770 -0.1493 -0.2616
  167ccc    H13 6152  11.892  10.326   1.925 -0.9059 -0.8768  1.0413
  167ccc    H14 6153  11.868  10.336   2.084 -0.7095  1.9132  1.7181
  167ccc     C9 6154  12.024  10.468   2.011  0.1431  0.4241 -0.0302
  167ccc    H15 6155  12.032  10.522   2.106 -0.9868  1.6170 -0.5684
  167ccc    H16 6156  12.040  10.534   1.924  0.9032  0.1416 -0.1144
  167ccc    C10 6157  12.132  10.370   2.006  0.7062  0.5749 -0.1411
  167ccc     O4 6158  12.122  10.250   2.020  0.0736 -0.1847 -0.0698
  167ccc    C11 6159  11.888  11.161   2.616  0.2441  0.3995  0.2586
  167ccc    C12 6160  11.802  11.201   2.494 -0.3442 -0.9482 -0.4047
  167ccc    H17 6161  11.989  11.192   2.586  1.3406 -1.2790  1.9880
  167ccc    C13 6162  11.823  11.109   2.372 -0.3519  0.3413 -0.2107
  167ccc    C14 6163  11.801  10.959   2.405  0.3265  0.8641  0.6042
  167ccc    C15 6164  11.898  10.919   2.521  0.1216 -0.5243  0.1681
  167ccc    H18 6165  11.695  10.945   2.430  0.7583  0.3908  2.3585
  167ccc    H19 6166  11.924  11.117   2.332 -0.1120  1.8166  0.6037
  167ccc    H20 6167  12.001  10.921   2.485 -0.1979 -0.5747 -0.7853
  167ccc     O1 6168  11.859  10.789   2.566 -0.1018  0.4720 -0.0931
  167ccc     O6 6169  11.724  11.156   2.286 -0.5266 -0.2199 -0.1631
  167ccc    C16 6170  11.874  11.244   2.747  0.2010  1.0142 -0.7176
  167ccc    H21 6171  11.733  11.252   2.292  1.8704 -0.4348  0.3704
  167ccc    H22 6172  11.845  10.948   2.198  1.2912 -1.1834 -1.0146
  167ccc    H23 6173  11.869  11.351   2.723  1.1522  0.7117 -2.4040
  167ccc    H24 6174  11.953  11.230   2.822 -1.5265  0.5750  1.1115
  167ccc     O7 6175  11.748  11.212   2.803 -0.4052 -0.3999  0.2766
  167ccc    H25 6176  11.753  11.243   2.895 -0.8360  1.7771 -0.3733
  167ccc     O8 6177  11.875  11.012   2.635  0.2884  0.0545 -0.0621
  167ccc    H26 6178  11.798  10.762   2.495 -0.5354 -2.5851  1.3083
  167ccc    H27 6179  11.698  11.194   2.529  0.0233  0.0958  1.0008
  167ccc     O9 6180  11.833  11.335   2.460 -0.0757  0.0536  0.0639
  167ccc    H28 6181  11.777  11.397   2.511 -0.2037  0.0204 -0.0338
  167ccc     N3 6182  11.816  10.886   2.273  0.1595 -0.0999 -0.5225
  167ccc    C17 6183  12.518  10.693   2.171 -0.7258  0.9923 -0.3309
  167ccc    C18 6184  12.459  10.728   2.029  0.3586 -0.1981  0.8462
  167ccc    H29 6185  12.612  10.640   2.153 -1.9039 -0.6551 -2.0069
  167ccc    C19 6186  12.400  10.607   1.957  0.3695  0.4958 -0.2969
  167ccc    C20 6187  12.312  10.524   2.050  0.8380  0.6132  0.4943
  167ccc    C21 6188  12.396  10.486   2.176 -0.6217 -0.2666 -0.4790
  167ccc    H30 6189  12.234  10.593   2.083  0.0986  0.8998 -1.7340
  167ccc    H31 6190  12.485  10.547   1.922 -0.2513 -0.7968  0.3470
  167ccc    H32 6191  12.484  10.426   2.152 -1.0801 -1.3705  0.5309
  167ccc    O10 6192  12.311  10.428   2.268  0.4586  0.0423 -0.1724
  167ccc    O11 6193  12.327  10.651   1.847  0.5263  0.3394  0.3377
  167ccc    C22 6194  12.545  10.829   2.253  0.1202 -0.7064 -0.3789
  167ccc    H33 6195  12.322  10.580   1.781 -1.4911  1.7621 -1.1930
  167ccc    H34 6196  12.326  10.336   1.968  1.2446 -0.1302 -5.3179
  167ccc    H35 6197  12.628  10.894   2.220 -0.5579 -0.5205 -1.7805
  167ccc    H36 6198  12.561  10.805   2.359  0.0668  1.4277  0.1630
  167ccc    O12 6199  12.428  10.917   2.261 -0.5021  0.2810  0.1331
  167ccc    H37 6200  12.461  11.002   2.295 -0.2976 -0.0990  0.9033
  167ccc    O13 6201  12.433  10.601   2.242 -0.0161 -0.9014  0.1292
  167ccc    H38 6202  12.243  10.497   2.277 -1.6844 -1.7433 -1.6732
  167ccc    H39 6203  12.379  10.800   2.044  1.2696  0.9457  0.3850
  167ccc     O5 6204  12.554  10.790   1.940  0.2165  0.1733  0.2155
  167ccc    H40 6205  12.520  10.813   1.852  2.4690  1.6374 -0.3543
  167ccc     N4 6206  12.254  10.408   1.968  0.3897 -0.5357  0.1476
  168ccc     N1 6207   9.600  10.719   1.547 -0.3787 -0.4044 -0.1793
  168ccc     H4 6208   9.598  10.735   1.647 -0.7147  0.8133 -0.3620
  168ccc     C3 6209   9.482  10.673   1.474 -0.5445 -0.0932 -0.2915
  168ccc     H5 6210   9.510  10.601   1.396 -4.4004  0.9072 -2.8799
  168ccc     C4 6211   9.408  10.782   1.400 -0.7058  0.0834  0.4041
  168ccc     H6 6212   9.417  10.618   1.542 -0.2978 -0.6345 -0.4862
  168ccc     H7 6213   9.336  10.736   1.331 -1.0914  0.7312  0.3611
  168ccc     H8 6214   9.482  10.842   1.345 -0.3631  0.7341  1.5404
  168ccc     N2 6215   9.347  10.879   1.491  0.6721 -0.0264 -0.1385
  168ccc     C5 6216   9.310  11.004   1.420 -0.1623  1.0226 -0.5698
  168ccc     C6 6217   9.233  10.818   1.564  0.0939  0.1437 -0.2484
  168ccc     H9 6218   9.151  10.809   1.492 -0.5834  0.9306  0.4109
  168ccc     C7 6219   9.194  10.908   1.679 -0.3033  0.7326 -0.7260
  168ccc    H10 6220   9.252  10.717   1.603  0.1390  0.5670  0.8570
  168ccc    H11 6221   9.153  11.002   1.641  0.1052  1.3012  0.1985
  168ccc    H12 6222   9.279  10.914   1.749  0.1106 -1.3464 -0.9908
  168ccc     C8 6223   9.070  10.848   1.756 -0.4913  0.1078  0.8492
  168ccc     O2 6224   9.007  10.756   1.717  0.3865  0.3921  0.6358
  168ccc    H13 6225   9.236  11.064   1.475 -1.2417 -1.0239  0.2826
  168ccc    H14 6226   9.269  10.975   1.323 -3.4025  0.9860  0.6791
  168ccc     C9 6227   9.455  11.083   1.404  0.0102  0.1486 -0.0044
  168ccc    H15 6228   9.486  11.058   1.302  0.4480  0.3805  0.0729
  168ccc    H16 6229   9.530  11.043   1.473 -2.9063  0.1425  3.4695
  168ccc    C10 6230   9.449  11.230   1.438 -0.3426  1.0447 -0.7625
  168ccc     O4 6231   9.343  11.290   1.448 -0.1035 -0.1480 -0.2004
  168ccc    C11 6232   8.767  10.695   2.112  0.0645 -0.1502 -0.2550
  168ccc    C12 6233   8.899  10.721   2.174 -0.1755  0.0188  0.3475
  168ccc    H17 6234   8.791  10.611   2.045  0.0222 -0.0430 -0.4068
  168ccc    C13 6235   8.999  10.778   2.065 -0.3128  0.0686 -0.6071
  168ccc    C14 6236   8.941  10.890   1.978 -0.5270 -1.1078  0.1558
  168ccc    C15 6237   8.801  10.847   1.930 -0.2297  0.1313 -0.4881
  168ccc    H18 6238   8.937  10.983   2.037 -0.0031 -0.6103 -0.5795
  168ccc    H19 6239   9.024  10.696   1.997 -1.3175 -2.9160  2.3156
  168ccc    H20 6240   8.805  10.763   1.860  0.9146 -0.9693  0.8388
  168ccc     O1 6241   8.722  10.949   1.882 -0.3054  0.2002 -0.2058
  168ccc     O6 6242   9.119  10.834   2.131  0.3905 -0.0242  0.5759
  168ccc    C16 6243   8.670  10.659   2.219 -0.0482  0.1789 -0.4722
  168ccc    H21 6244   9.163  10.879   2.056  0.2803 -1.3998 -0.3481
  168ccc    H22 6245   9.096  11.000   1.885  0.7716 -0.0218 -1.4182
  168ccc    H23 6246   8.652  10.748   2.281 -0.8387 -1.1817  1.3734
  168ccc    H24 6247   8.705  10.578   2.284 -2.0471 -1.2377 -1.0809
  168ccc     O7 6248   8.547  10.603   2.167 -0.2771 -0.3610  0.1318
  168ccc    H25 6249   8.561  10.610   2.071  1.1026  0.2159  0.3508
  168ccc     O8 6250   8.722  10.815   2.041  0.4777  0.2193  0.0844
  168ccc    H26 6251   8.753  10.960   1.791 -0.9570  1.0500 -0.3354
  168ccc    H27 6252   8.890  10.807   2.242 -0.3718  0.5265 -0.3162
  168ccc     O9 6253   8.951  10.609   2.241  0.2398 -0.0081  0.5271
  168ccc    H28 6254   9.028  10.643   2.291  0.3919  0.7945 -0.2311
  168ccc     N3 6255   9.033  10.923   1.862 -0.1174 -0.0107  0.7586
  168ccc    C17 6256   9.933  11.348   1.260 -0.0709 -0.3774  0.2173
  168ccc    C18 6257   9.942  11.266   1.383  0.9254  0.3537  0.2561
  168ccc    H29 6258   9.934  11.452   1.292 -1.6092 -0.5599  0.9580
  168ccc    C19 6259   9.817  11.297   1.466  0.0474 -0.0707  0.7134
  168ccc    C20 6260   9.691  11.251   1.388 -0.8166  0.0704 -0.5023
  168ccc    C21 6261   9.694  11.339   1.262  0.8745 -0.6409  0.0089
  168ccc    H30 6262   9.706  11.145   1.365 -2.1436 -0.0993 -0.6842
  168ccc    H31 6263   9.817  11.405   1.489  2.1614  0.0148  0.4815
  168ccc    H32 6264   9.683  11.446   1.285  1.0583 -0.7165  0.4476
  168ccc    O10 6265   9.591  11.306   1.165 -0.5742 -0.1075  0.0023
  168ccc    O11 6266   9.825  11.211   1.586 -0.8390 -0.3749  0.5470
  168ccc    C22 6267  10.051  11.325   1.164 -0.9973 -0.2819 -0.8132
  168ccc    H33 6268   9.885  11.256   1.647 -1.3573 -0.7787  1.3683
  168ccc    H34 6269   9.560  11.377   1.493 -1.6931 -0.7036 -0.2053
  168ccc    H35 6270  10.047  11.224   1.122  1.8029  0.6121 -3.6036
  168ccc    H36 6271  10.144  11.337   1.222 -1.3044  2.2289 -0.7236
  168ccc    O12 6272  10.048  11.414   1.058 -0.2131  0.0978 -0.1169
  168ccc    H37 6273  10.076  11.502   1.089 -1.4167 -0.1210  1.7443
  168ccc    O13 6274   9.820  11.317   1.188  0.3886 -0.1035 -0.4297
  168ccc    H38 6275   9.524  11.377   1.165  0.1946  0.6351  0.8270
  168ccc    H39 6276   9.937  11.159   1.357 -0.4410 -0.3178  2.9098
  168ccc     O5 6277  10.062  11.306   1.452  0.3076  0.5866 -0.2093
  168ccc    H40 6278  10.063  11.253   1.533  1.6013  0.2635 -0.4154
  168ccc     N4 6279   9.567  11.278   1.474  0.1297 -0.8176  0.8355
  169ccc     N1 6280  10.366  10.894   1.474 -0.2307  0.3527 -0.1943
  169ccc     H4 6281  10.294  10.902   1.403 -1.6392  0.0633  1.1447
  169ccc     C3 6282  10.487  10.803   1.448  0.3238 -1.1797  0.2133
  169ccc     H5 6283  10.566  10.850   1.388 -1.3590  0.5635 -0.7841
  169ccc     C4 6284  10.437  10.670   1.390  0.6410  0.6993  0.2237
  169ccc     H6 6285  10.529  10.779   1.546  2.9263  1.7865 -0.0280
  169ccc     H7 6286  10.356  10.644   1.459  0.4428  1.2678  0.2047
  169ccc     H8 6287  10.514  10.593   1.405  2.0244  2.3256  2.1976
  169ccc     N2 6288  10.385  10.688   1.255  0.3583 -0.3422 -0.2065
  169ccc     C5 6289  10.491  10.703   1.159 -0.2839  0.6812  0.5082
  169ccc     C6 6290  10.305  10.573   1.213  0.3522  0.2446 -0.2787
  169ccc     H9 6291  10.302  10.550   1.106  2.6176 -2.0243  0.0532
  169ccc     C7 6292  10.166  10.583   1.271  0.7746 -0.6353 -0.0512
  169ccc    H10 6293  10.345  10.482   1.259 -0.0652  1.9331  3.8815
  169ccc    H11 6294  10.109  10.667   1.228  0.8319 -0.8533 -0.5519
  169ccc    H12 6295  10.172  10.588   1.381  1.8573  1.4941 -0.1484
  169ccc     C8 6296  10.079  10.462   1.255 -0.2559  0.2963 -0.1945
  169ccc     O2 6297  10.071  10.376   1.337 -0.4417  0.5590 -0.9292
  169ccc    H13 6298  10.530  10.604   1.131  0.6656  1.1522  0.1251
  169ccc    H14 6299  10.582  10.751   1.196  0.9771 -1.5477  0.4847
  169ccc     C9 6300  10.457  10.783   1.026 -0.0968 -0.4216  0.2916
  169ccc    H15 6301  10.491  10.886   1.036 -0.8573 -0.3005  1.9122
  169ccc    H16 6302  10.352  10.785   0.995  0.1305 -0.8298 -0.5453
  169ccc    C10 6303  10.529  10.723   0.910  0.0704 -1.1163  0.1915
  169ccc     O4 6304  10.651  10.715   0.897  0.5243  0.0466 -0.5317
  169ccc    C11 6305   9.668  10.206   1.183  0.2676  0.6655  0.6028
  169ccc    C12 6306   9.642  10.358   1.163 -0.1476  0.2308 -0.1982
  169ccc    H17 6307   9.696  10.182   1.286  1.3354 -0.0967  0.1580
  169ccc    C13 6308   9.769  10.439   1.183  0.6787  0.1111 -0.5343
  169ccc    C14 6309   9.887  10.382   1.108  0.4397 -0.0175  0.7419
  169ccc    C15 6310   9.901  10.229   1.132  0.0245 -0.1739  0.1248
  169ccc    H18 6311   9.867  10.404   1.002  0.5128 -1.6030  0.3717
  169ccc    H19 6312   9.803  10.440   1.288  0.5387  1.0312 -0.4920
  169ccc    H20 6313   9.930  10.207   1.235 -0.3455  0.4446  0.3635
  169ccc     O1 6314   9.998  10.171   1.039  0.2847 -0.7009 -0.8548
  169ccc     O6 6315   9.746  10.574   1.145 -0.1499 -0.9476  0.4559
  169ccc    C16 6316   9.543  10.121   1.155 -0.2711  0.1805  0.5241
  169ccc    H21 6317   9.751  10.634   1.221 -1.9795  0.2726 -0.3010
  169ccc    H22 6318  10.025  10.541   1.079 -0.2062 -0.5721 -0.6578
  169ccc    H23 6319   9.530  10.138   1.047 -0.5538 -0.4347  0.4586
  169ccc    H24 6320   9.461  10.174   1.205 -0.0045  1.2352 -0.1179
  169ccc     O7 6321   9.555   9.975   1.191  0.2764  0.2892 -0.6576
  169ccc    H25 6322   9.464   9.948   1.168  0.3204 -0.4312 -0.0527
  169ccc     O8 6323   9.773  10.168   1.098  0.5280  0.1318 -0.0445
  169ccc    H26 6324  10.025  10.091   1.088  1.4089 -0.0396 -0.3471
  169ccc    H27 6325   9.609  10.389   1.063 -2.1503  3.2017  1.2179
  169ccc     O9 6326   9.535  10.407   1.249  0.4797  0.4852 -0.2303
  169ccc    H28 6327   9.543  10.380   1.342 -1.2589  1.4042  0.2334
  169ccc     N3 6328  10.007  10.463   1.143  0.6601 -0.4729 -0.2777
  169ccc    C17 6329  10.642  10.393   0.552 -0.2421  0.1349 -0.1297
  169ccc    C18 6330  10.535  10.340   0.651 -0.1305 -0.2357  0.1863
  169ccc    H29 6331  10.732  10.375   0.612 -2.0653 -0.0781  2.7407
  169ccc    C19 6332  10.498  10.438   0.767 -0.1125 -0.4984 -0.3828
  169ccc    C20 6333  10.493  10.584   0.716  0.2801 -0.0326 -1.0610
  169ccc    C21 6334  10.618  10.620   0.634 -0.1080 -0.7337 -0.3129
  169ccc    H30 6335  10.408  10.581   0.647  1.0954 -0.6655 -2.0731
  169ccc    H31 6336  10.576  10.440   0.844 -2.8322  0.0375  2.5958
  169ccc    H32 6337  10.706  10.609   0.698  1.1410  2.7204 -1.1954
  169ccc    O10 6338  10.619  10.756   0.588 -0.2257  0.6493 -0.7032
  169ccc    O11 6339  10.377  10.390   0.824  0.1106  0.8111  0.4012
  169ccc    C22 6340  10.644  10.308   0.421  0.0144  0.6025  0.4673
  169ccc    H33 6341  10.396  10.302   0.860  2.4435  1.1830  0.2418
  169ccc    H34 6342  10.353  10.662   0.847 -0.6729 -1.3884  1.0859
  169ccc    H35 6343  10.668  10.204   0.448 -1.1237  0.9742  3.2141
  169ccc    H36 6344  10.713  10.345   0.344 -1.2785 -0.0216 -1.0414
  169ccc    O12 6345  10.520  10.310   0.355  0.1479  0.2003  0.3864
  169ccc    H37 6346  10.512  10.397   0.313  0.4615 -0.5578 -1.3010
  169ccc    O13 6347  10.621  10.534   0.521  0.5436 -0.2831 -0.1149
  169ccc    H38 6348  10.633  10.813   0.665 -1.4832 -0.0863  0.0892
  169ccc    H39 6349  10.442  10.320   0.596  0.0476 -0.1966 -0.1267
  169ccc     O5 6350  10.593  10.219   0.703  0.8805 -0.2427  0.3053
  169ccc    H40 6351  10.594  10.152   0.633 -1.8486 -0.4254  0.3396
  169ccc     N4 6352  10.449  10.679   0.817 -0.9901 -0.9882  0.2573
  170ccc     N1 6353   9.409   9.648   3.550 -0.1056 -0.1178  0.0232
  170ccc     H4 6354   9.461   9.733   3.565 -0.3214  0.2139 -1.0228
  170ccc     C3 6355   9.342   9.562   3.660 -0.0128 -0.2302  1.0562
  170ccc     H5 6356   9.271   9.622   3.719 -3.3316 -0.4246 -2.3074
  170ccc     C4 6357   9.441   9.510   3.760 -0.0057  0.1776 -0.0886
  170ccc     H6 6358   9.280   9.485   3.613  1.0904 -0.7200  0.3543
  170ccc     H7 6359   9.510   9.589   3.792  0.6988 -0.1861 -0.6834
  170ccc     H8 6360   9.492   9.429   3.706  0.8258  2.0724 -2.3339
  170ccc     N2 6361   9.372   9.455   3.878  0.1055  0.5442  0.4313
  170ccc     C5 6362   9.348   9.554   3.987  0.1779  0.2437  0.5790
  170ccc     C6 6363   9.259   9.364   3.850 -0.4640 -0.2961 -0.0437
  170ccc     H9 6364   9.237   9.337   3.953 -0.8503  1.6673  0.4308
  170ccc     C7 6365   9.294   9.236   3.775 -0.0059  0.2331 -0.1859
  170ccc    H10 6366   9.179   9.423   3.803 -0.3714 -0.3290 -0.2467
  170ccc    H11 6367   9.367   9.171   3.826  1.4695 -1.5338 -4.1585
  170ccc    H12 6368   9.323   9.254   3.671 -0.7125 -3.0025 -1.0553
  170ccc     C8 6369   9.167   9.156   3.760  0.2637  0.3286  0.6689
  170ccc     O2 6370   9.057   9.199   3.762  0.3962 -0.4853 -0.1142
  170ccc    H13 6371   9.267   9.619   3.952 -1.5856 -1.6467  0.9308
  170ccc    H14 6372   9.431   9.626   3.990  0.2050  0.2721 -0.3551
  170ccc     C9 6373   9.306   9.502   4.121  0.1895 -0.3533  0.5655
  170ccc    H15 6374   9.351   9.403   4.137  1.1818  0.3195  2.2766
  170ccc    H16 6375   9.197   9.494   4.122  0.0030  1.2487 -1.0394
  170ccc    C10 6376   9.356   9.592   4.231 -0.2370  0.4704  0.3437
  170ccc     O4 6377   9.475   9.608   4.244  0.4110  0.5731  0.1092
  170ccc    C11 6378   8.788   8.863   3.642 -0.1450  0.1408  0.2996
  170ccc    C12 6379   8.899   8.872   3.531 -0.7331  0.5815 -0.0111
  170ccc    H17 6380   8.729   8.955   3.655  0.1406  0.4502 -0.5368
  170ccc    C13 6381   9.016   8.974   3.565  0.2641 -0.2473  0.8081
  170ccc    C14 6382   9.072   8.932   3.702 -0.1135 -0.1877 -0.7508
  170ccc    C15 6383   8.953   8.937   3.803  0.2846 -0.2386  0.1305
  170ccc    H18 6384   9.102   8.827   3.696  0.5494  0.0309 -1.3403
  170ccc    H19 6385   8.975   9.076   3.564 -0.6272 -0.5782  1.4613
  170ccc    H20 6386   8.908   9.037   3.806 -0.8702 -0.5859 -2.9210
  170ccc     O1 6387   9.003   8.898   3.930 -0.0838 -0.3007 -0.6646
  170ccc     O6 6388   9.118   8.959   3.470 -0.6051  0.1197  0.3071
  170ccc    C16 6389   8.688   8.747   3.603 -0.3053  0.1995 -0.6471
  170ccc    H21 6390   9.203   8.984   3.511  0.5808  0.4404 -2.2044
  170ccc    H22 6391   9.269   8.988   3.693  2.0879  2.3102  1.3720
  170ccc    H23 6392   8.743   8.652   3.605 -2.0203 -0.8426 -0.3529
  170ccc    H24 6393   8.658   8.764   3.499 -2.0310  1.6155  0.0269
  170ccc     O7 6394   8.581   8.739   3.696 -0.1285  0.5006 -0.2648
  170ccc    H25 6395   8.599   8.810   3.761  0.6681  0.0560  0.0206
  170ccc     O8 6396   8.858   8.837   3.764  0.3002  0.7878  0.1658
  170ccc    H26 6397   8.988   8.801   3.931 -0.5908 -0.2545  1.4567
  170ccc    H27 6398   8.942   8.774   3.507 -1.9161  0.6417 -2.8295
  170ccc     O9 6399   8.841   8.917   3.406  0.2776  0.2811  0.2155
  170ccc    H28 6400   8.907   8.959   3.347 -0.9677  2.9377  0.5788
  170ccc     N3 6401   9.188   9.024   3.744  0.4035  0.8609 -0.1937
  170ccc    C17 6402   8.977   9.553   4.581  0.7255  0.0223 -0.0063
  170ccc    C18 6403   8.939   9.668   4.482  0.7217  0.3596  0.7106
  170ccc    H29 6404   9.038   9.607   4.655  0.4458  0.1378  0.1380
  170ccc    C19 6405   9.066   9.720   4.414  0.1128 -0.0350 -1.0290
  170ccc    C20 6406   9.152   9.605   4.356  0.4242  0.2834 -0.7030
  170ccc    C21 6407   9.180   9.508   4.474  0.6802 -0.1783 -0.3305
  170ccc    H30 6408   9.098   9.558   4.273  1.9526 -1.4808 -0.7669
  170ccc    H31 6409   9.122   9.773   4.492  0.6606 -1.8960 -0.1056
  170ccc    H32 6410   9.228   9.570   4.550 -0.3239  1.1216 -0.7277
  170ccc    O10 6411   9.247   9.395   4.432 -0.5940  0.3669  0.6114
  170ccc    O11 6412   9.042   9.821   4.319 -0.2337 -0.2338 -0.1198
  170ccc    C22 6413   8.849   9.484   4.647 -0.5827 -0.5591  0.3850
  170ccc    H33 6414   8.990   9.888   4.367  0.0940  0.2488 -0.4274
  170ccc    H34 6415   9.321   9.729   4.367  0.6515 -1.3554  0.9679
  170ccc    H35 6416   8.814   9.416   4.568 -0.6733  0.6813 -0.6853
  170ccc    H36 6417   8.771   9.557   4.673 -0.8158 -0.3470 -0.8367
  170ccc    O12 6418   8.889   9.424   4.766  0.0139  0.0071 -0.2772
  170ccc    H37 6419   8.911   9.330   4.755 -0.1118 -0.0153 -0.3352
  170ccc    O13 6420   9.058   9.454   4.520 -0.7535  0.1870 -0.0858
  170ccc    H38 6421   9.184   9.345   4.376 -0.4182  2.9874 -2.1894
  170ccc    H39 6422   8.873   9.623   4.406  1.7487 -0.3008  0.1841
  170ccc     O5 6423   8.875   9.778   4.544 -0.3710 -0.3694 -0.0440
  170ccc    H40 6424   8.940   9.823   4.601 -1.7683 -0.0355  1.3713
  170ccc     N4 6425   9.275   9.669   4.299  0.1445  0.1405 -0.0536
  171ccc     N1 6426   9.927   9.565   3.706 -0.2806 -0.1006  0.2222
  171ccc     H4 6427   9.914   9.504   3.626  0.5459  2.0368 -1.6784
  171ccc     C3 6428  10.036   9.545   3.804  0.0646 -0.0368 -0.2673
  171ccc     H5 6429  10.125   9.604   3.779 -0.6184  1.5993  0.9826
  171ccc     C4 6430  10.081   9.398   3.818  0.8223  0.2909 -0.1549
  171ccc     H6 6431   9.999   9.587   3.898 -3.2264 -2.3440 -0.3548
  171ccc     H7 6432   9.990   9.348   3.854  0.6852 -1.4260 -2.6950
  171ccc     H8 6433  10.159   9.397   3.895 -1.1040 -0.6406  1.9052
  171ccc     N2 6434  10.128   9.336   3.694 -0.2049 -0.6544  0.2062
  171ccc     C5 6435  10.256   9.391   3.638 -0.4560 -1.0321 -0.7205
  171ccc     C6 6436  10.152   9.193   3.714 -0.5290 -0.5436  0.0176
  171ccc     H9 6437  10.197   9.146   3.626  1.2059  0.6063  0.2398
  171ccc     C7 6438  10.013   9.130   3.719  0.4024  0.0876 -0.0169
  171ccc    H10 6439  10.206   9.174   3.808 -0.4453  0.6995  0.2502
  171ccc    H11 6440   9.956   9.171   3.635  0.1348  0.3831  0.3079
  171ccc    H12 6441   9.956   9.141   3.812  1.5499 -0.2983  0.7504
  171ccc     C8 6442  10.024   8.987   3.682  0.0577 -0.0317  0.2155
  171ccc     O2 6443  10.010   8.950   3.568  0.7971  0.4465 -0.3782
  171ccc    H13 6444  10.341   9.343   3.688 -0.8992 -1.9658 -0.8304
  171ccc    H14 6445  10.252   9.500   3.649 -1.9598 -0.8538 -2.6411
  171ccc     C9 6446  10.263   9.365   3.493 -0.1837 -0.7029  0.4753
  171ccc    H15 6447  10.175   9.384   3.431  1.5422 -0.4750 -2.0077
  171ccc    H16 6448  10.299   9.266   3.463  0.3936 -0.6009  0.8100
  171ccc    C10 6449  10.348   9.462   3.412  0.0829 -0.2436 -0.1859
  171ccc     O4 6450  10.334   9.584   3.397 -0.4989 -0.1014  0.2344
  171ccc    C11 6451  10.155   8.514   3.626  0.4721  0.1700 -0.5983
  171ccc    C12 6452  10.281   8.589   3.679  0.7464  0.1379 -0.3561
  171ccc    H17 6453  10.134   8.561   3.529 -1.5824 -0.1210 -0.3454
  171ccc    C13 6454  10.258   8.740   3.707 -0.0441  0.9550  0.6259
  171ccc    C14 6455  10.114   8.770   3.773 -0.7935  0.4514  0.6085
  171ccc    C15 6456  10.004   8.684   3.708  0.1806 -0.7644 -0.0247
  171ccc    H18 6457  10.123   8.742   3.879  0.9244 -0.6553  0.2155
  171ccc    H19 6458  10.268   8.792   3.611  0.4358 -0.6378 -0.2246
  171ccc    H20 6459   9.975   8.719   3.608 -0.9203 -1.2060  0.1224
  171ccc     O1 6460   9.889   8.690   3.794 -0.0086 -0.1158 -0.4338
  171ccc     O6 6461  10.360   8.798   3.790  0.2151  0.0707 -0.0052
  171ccc    C16 6462  10.156   8.367   3.606  0.5275  0.2205 -0.6715
  171ccc    H21 6463  10.419   8.721   3.799  0.5547  0.1509 -1.3899
  171ccc    H22 6464  10.119   8.947   3.865  1.0236 -3.1239  0.5742
  171ccc    H23 6465  10.219   8.336   3.522 -1.1771 -1.8138 -1.2917
  171ccc    H24 6466  10.059   8.328   3.572  0.6806 -1.4476  0.6751
  171ccc     O7 6467  10.198   8.283   3.710  0.0789 -0.2971 -0.5978
  171ccc    H25 6468  10.139   8.292   3.788 -1.1615 -0.2039 -1.5132
  171ccc     O8 6469  10.038   8.549   3.709 -0.1508  0.1126  0.3748
  171ccc    H26 6470   9.835   8.768   3.774 -0.9331 -0.5987  0.1299
  171ccc    H27 6471  10.303   8.542   3.776 -1.7006  2.3640  1.4051
  171ccc     O9 6472  10.384   8.571   3.589 -0.4573 -0.5242  0.2351
  171ccc    H28 6473  10.358   8.614   3.506  2.1264 -0.0775 -0.4398
  171ccc     N3 6474  10.081   8.914   3.776 -0.5406  0.5198 -0.3116
  171ccc    C17 6475  10.796   9.183   3.412  0.6313  0.3439 -0.1717
  171ccc    C18 6476  10.750   9.294   3.514 -0.1888  0.4030 -0.4141
  171ccc    H29 6477  10.876   9.225   3.350 -0.0574  0.1828 -1.1900
  171ccc    C19 6478  10.653   9.392   3.449  0.5425 -0.5828 -0.2526
  171ccc    C20 6479  10.542   9.317   3.372  0.2631 -0.6739 -0.4393
  171ccc    C21 6480  10.607   9.234   3.265 -0.1374  0.3640  0.2447
  171ccc    H30 6481  10.499   9.244   3.442 -1.3639  1.3931  0.8729
  171ccc    H31 6482  10.718   9.449   3.382  1.6492 -1.4904  0.0121
  171ccc    H32 6483  10.669   9.303   3.207 -1.3889 -0.2843 -1.9986
  171ccc    O10 6484  10.512   9.155   3.189  0.0930  0.1167  0.1084
  171ccc    O11 6485  10.596   9.475   3.549  0.0354  0.4553  0.9366
  171ccc    C22 6486  10.862   9.065   3.490 -0.5493 -0.1522 -0.2513
  171ccc    H33 6487  10.652   9.554   3.556  0.3286  0.1941  1.5742
  171ccc    H34 6488  10.479   9.487   3.272 -0.2558  0.5429  1.5130
  171ccc    H35 6489  10.942   9.108   3.551  1.2159 -3.2959 -0.1615
  171ccc    H36 6490  10.900   8.988   3.422  2.0769 -0.5047  1.5052
  171ccc    O12 6491  10.760   9.009   3.585  0.2744  0.0446 -0.1747
  171ccc    H37 6492  10.789   8.921   3.615 -1.6756 -0.1185  1.4954
  171ccc    O13 6493  10.687   9.130   3.326  0.8944  0.2517  0.0173
  171ccc    H38 6494  10.424   9.153   3.230 -0.1617 -0.0352 -0.4480
  171ccc    H39 6495  10.698   9.236   3.591 -0.7441 -2.7919 -2.9459
  171ccc     O5 6496  10.861   9.367   3.577  0.5048 -0.4348 -0.1890
  171ccc    H40 6497  10.888   9.332   3.663 -1.3562  1.9359  1.5196
  171ccc     N4 6498  10.434   9.412   3.325 -0.3249 -0.4779  0.0800
  172ccc     N1 6499   9.279  11.214   2.935 -0.2830  0.3541 -0.3536
  172ccc     H4 6500   9.353  11.207   3.003 -0.4623  0.2058 -0.1717
  172ccc     C3 6501   9.305  11.289   2.809 -0.2294 -1.1224  0.1548
  172ccc     H5 6502   9.238  11.261   2.727  2.0099 -1.0708 -1.8227
  172ccc     C4 6503   9.451  11.306   2.777 -0.0172 -0.7392  0.4120
  172ccc     H6 6504   9.284  11.397   2.817 -2.6460 -1.6160  1.2301
  172ccc     H7 6505   9.496  11.206   2.772 -1.8424 -1.6843  1.5237
  172ccc     H8 6506   9.495  11.364   2.858  1.3421 -0.3795 -0.5539
  172ccc     N2 6507   9.475  11.372   2.651 -0.2041 -0.2642 -0.2007
  172ccc     C5 6508   9.622  11.403   2.653  0.0131 -0.3227 -0.5459
  172ccc     C6 6509   9.450  11.273   2.539 -0.5194  0.2694  0.5654
  172ccc     H9 6510   9.510  11.181   2.535  1.1365  1.2648 -3.9807
  172ccc     C7 6511   9.482  11.329   2.406  0.2369  0.3825  0.9719
  172ccc    H10 6512   9.347  11.237   2.528  0.1177 -1.4799 -0.0138
  172ccc    H11 6513   9.589  11.338   2.385  0.2903 -0.0796  1.0464
  172ccc    H12 6514   9.450  11.434   2.398  1.3754  0.6509 -0.3558
  172ccc     C8 6515   9.416  11.249   2.293  0.2116 -0.4548 -0.2312
  172ccc     O2 6516   9.350  11.154   2.301  0.1064  0.6028  0.7925
  172ccc    H13 6517   9.687  11.318   2.631  2.3795  0.3248  3.1437
  172ccc    H14 6518   9.644  11.442   2.753 -0.2770  0.7570 -0.8869
  172ccc     C9 6519   9.656  11.524   2.565  0.7475 -0.1940 -0.6185
  172ccc    H15 6520   9.597  11.610   2.600  0.2225 -1.3614  1.5235
  172ccc    H16 6521   9.646  11.515   2.456  0.4381  0.4125 -0.6434
  172ccc    C10 6522   9.800  11.556   2.585 -0.3085 -0.2629  0.4955
  172ccc     O4 6523   9.868  11.500   2.669  0.5740  0.2078  0.0473
  172ccc    C11 6524   9.188  11.342   1.828  0.4421  0.0023  0.0860
  172ccc    C12 6525   9.339  11.374   1.820  0.2459 -0.2096 -0.6311
  172ccc    H17 6526   9.141  11.429   1.877 -2.8749 -1.0345 -0.9512
  172ccc    C13 6527   9.396  11.396   1.962 -0.3680 -0.6103 -1.0044
  172ccc    C14 6528   9.374  11.270   2.046  0.0405  0.8238 -0.2552
  172ccc    C15 6529   9.228  11.220   2.043 -0.3020  0.2832  0.0646
  172ccc    H18 6530   9.439  11.196   1.998 -0.7625 -1.0100  1.3588
  172ccc    H19 6531   9.347  11.481   2.010 -3.9875 -2.3985 -1.1930
  172ccc    H20 6532   9.170  11.283   2.111 -0.4238  1.4258 -1.0614
  172ccc     O1 6533   9.227  11.083   2.083  0.0589  0.2077 -0.3116
  172ccc     O6 6534   9.539  11.418   1.969 -0.2452 -0.4281  0.2969
  172ccc    C16 6535   9.136  11.318   1.684 -0.1647 -0.9858  0.2199
  172ccc    H21 6536   9.583  11.340   1.933  0.0082 -0.2977  0.3231
  172ccc    H22 6537   9.507  11.375   2.158 -0.5272 -1.1198 -3.0294
  172ccc    H23 6538   9.205  11.250   1.632  1.3762  0.4889  0.2356
  172ccc    H24 6539   9.131  11.413   1.631  1.1067 -0.5475  0.8512
  172ccc     O7 6540   9.006  11.261   1.683 -0.2074  0.3505  0.3592
  172ccc    H25 6541   8.963  11.274   1.769 -1.3695  2.2967 -0.4429
  172ccc     O8 6542   9.183  11.218   1.908  0.1326  0.4974  0.2255
  172ccc    H26 6543   9.278  11.085   2.165 -0.1745  1.3592 -0.1704
  172ccc    H27 6544   9.398  11.288   1.785  0.3863 -1.8533  3.1447
  172ccc     O9 6545   9.356  11.490   1.735  0.4881  0.3730  0.2147
  172ccc    H28 6546   9.274  11.542   1.746  0.3741  0.2517 -0.0418
  172ccc     N3 6547   9.432  11.310   2.180 -0.1084 -0.8677 -0.5777
  172ccc    C17 6548  10.175  11.938   2.597 -0.1143 -0.0454  0.2689
  172ccc    C18 6549  10.111  11.868   2.723  0.1158  1.0293 -0.2359
  172ccc    H29 6550  10.123  12.034   2.583 -0.0097  0.1694  1.3095
  172ccc    C19 6551   9.970  11.813   2.694  0.6846  0.4440  0.5572
  172ccc    C20 6552   9.972  11.732   2.561 -0.5902 -0.4143  0.6831
  172ccc    C21 6553  10.031  11.812   2.442  0.0445 -0.3416  0.3324
  172ccc    H30 6554  10.048  11.653   2.567 -1.4328 -1.4832 -1.5331
  172ccc    H31 6555   9.892  11.890   2.692 -0.8705 -1.0620  0.5134
  172ccc    H32 6556   9.956  11.890   2.423  1.2926  1.4351  2.2224
  172ccc    O10 6557  10.049  11.724   2.329  0.4968  0.0047  0.4674
  172ccc    O11 6558   9.922  11.727   2.796 -0.3614 -1.0537 -0.3107
  172ccc    C22 6559  10.324  11.962   2.622  0.1383 -0.0183 -0.4851
  172ccc    H33 6560   9.885  11.652   2.746 -1.2504 -0.2042 -0.9620
  172ccc    H34 6561   9.780  11.720   2.462  1.4819  0.3371 -0.8855
  172ccc    H35 6562  10.370  11.869   2.658  2.0494  0.6115 -1.2105
  172ccc    H36 6563  10.326  12.034   2.705 -1.0102 -2.0091  1.4037
  172ccc    O12 6564  10.398  12.012   2.510 -0.4942  0.1960 -0.5474
  172ccc    H37 6565  10.489  12.003   2.543 -0.8880 -0.8033  0.2961
  172ccc    O13 6566  10.160  11.865   2.475  0.4445 -0.4752 -0.3814
  172ccc    H38 6567  10.138  11.684   2.337  0.2612 -2.3668 -4.6173
  172ccc    H39 6568  10.168  11.778   2.748 -1.3087 -0.0610 -0.7601
  172ccc     O5 6569  10.108  11.963   2.836 -0.1693  0.4062  0.8602
  172ccc    H40 6570  10.080  11.910   2.913 -0.6611  0.5588  0.7851
  172ccc     N4 6571   9.840  11.674   2.530 -0.1379  0.1197  0.4381
  173ccc     N1 6572   8.616  11.085   3.112  0.1256  0.3437  0.5704
  173ccc     H4 6573   8.676  11.099   3.031 -2.7319  1.6730 -1.4686
  173ccc     C3 6574   8.479  11.029   3.095  0.6267  0.6825  0.5191
  173ccc     H5 6575   8.480  10.926   3.133 -1.0421 -0.2713 -1.8083
  173ccc     C4 6576   8.426  11.024   2.949 -0.0453 -0.2204 -0.0144
  173ccc     H6 6577   8.404  11.086   3.150 -0.8663  0.0561 -0.8032
  173ccc     H7 6578   8.416  11.126   2.910  0.3535  0.7364  2.1934
  173ccc     H8 6579   8.327  10.977   2.960  0.5026 -2.0743 -2.2819
  173ccc     N2 6580   8.511  10.949   2.858 -0.6825  0.4800 -0.3623
  173ccc     C5 6581   8.492  10.800   2.870 -0.2055  0.4393 -0.1049
  173ccc     C6 6582   8.495  10.987   2.722  0.2988  0.0890  0.0833
  173ccc     H9 6583   8.401  10.951   2.679 -0.4901 -0.8125  2.4557
  173ccc     C7 6584   8.612  10.933   2.636  0.2381 -0.7017  0.7555
  173ccc    H10 6585   8.495  11.096   2.718  1.4677  0.1464  1.0913
  173ccc    H11 6586   8.580  10.832   2.611 -1.8746  0.2136 -0.4713
  173ccc    H12 6587   8.711  10.935   2.684  1.2572 -0.4530 -1.2464
  173ccc     C8 6588   8.615  11.018   2.510 -0.0427  0.5351  0.5792
  173ccc     O2 6589   8.556  11.126   2.499  0.2740  0.1925  0.5423
  173ccc    H13 6590   8.487  10.754   2.771 -0.3356  1.9384 -0.8254
  173ccc    H14 6591   8.406  10.763   2.927 -0.0368 -0.6580 -0.5481
  173ccc     C9 6592   8.620  10.748   2.931 -0.2441 -0.4025  0.6747
  173ccc    H15 6593   8.627  10.786   3.033  0.6564 -2.4795  1.4469
  173ccc    H16 6594   8.707  10.777   2.872 -0.4569 -0.0438  0.5326
  173ccc    C10 6595   8.605  10.602   2.954  0.4715 -0.0670  0.7045
  173ccc     O4 6596   8.509  10.543   2.906  0.1944 -0.1786 -0.1783
  173ccc    C11 6597   8.802  11.290   2.137 -0.4394 -0.2102  0.3474
  173ccc    C12 6598   8.922  11.232   2.225 -0.0272  0.4936  0.0274
  173ccc    H17 6599   8.750  11.366   2.197  0.0072  0.6118 -0.2721
  173ccc    C13 6600   8.865  11.157   2.353  1.0728  0.5800  0.0102
  173ccc    C14 6601   8.757  11.055   2.301 -0.4031 -0.0934  0.2398
  173ccc    C15 6602   8.650  11.119   2.211 -0.2810 -0.0096 -0.4370
  173ccc    H18 6603   8.805  10.981   2.236 -1.0704 -2.1237  1.9784
  173ccc    H19 6604   8.812  11.225   2.421  1.8577  1.0260  0.1915
  173ccc    H20 6605   8.600  11.198   2.270  1.9206  0.5901  0.7423
  173ccc     O1 6606   8.569  11.019   2.154  0.3954 -0.3641 -0.5438
  173ccc     O6 6607   8.976  11.092   2.407 -0.1243  0.9722  0.5770
  173ccc    C16 6608   8.838  11.348   2.000  0.2900  0.1642  0.1913
  173ccc    H21 6609   9.002  11.145   2.485  2.3021  2.3049 -1.0385
  173ccc    H22 6610   8.774  10.908   2.456  0.2515  0.1792  0.6257
  173ccc    H23 6611   8.921  11.419   2.005 -0.8434  2.0097 -3.2170
  173ccc    H24 6612   8.758  11.404   1.948 -1.9857 -1.5009  1.7036
  173ccc     O7 6613   8.877  11.250   1.910 -0.1444  0.6853  0.3997
  173ccc    H25 6614   8.842  11.166   1.943 -0.7860 -0.3424 -2.6270
  173ccc     O8 6615   8.716  11.182   2.101  0.2391 -0.8418 -0.2552
  173ccc    H26 6616   8.622  10.953   2.107  0.9664  0.1728 -0.6659
  173ccc    H27 6617   8.981  11.160   2.167 -0.1878 -0.2029  0.7061
  173ccc     O9 6618   9.005  11.342   2.276  0.1541 -0.0425 -0.2532
  173ccc    H28 6619   8.992  11.342   2.372 -1.0857  0.2628 -0.3987
  173ccc     N3 6620   8.706  10.973   2.417  0.3507  0.1020  0.3294
  173ccc    C17 6621   8.982  10.585   3.336  0.0076  0.6700  0.4611
  173ccc    C18 6622   9.043  10.560   3.196  0.1154 -0.7361 -0.6393
  173ccc    H29 6623   8.948  10.489   3.375  0.6925  0.9368  1.7576
  173ccc    C19 6624   8.927  10.514   3.107  0.6695 -0.2026  0.5254
  173ccc    C20 6625   8.802  10.607   3.110 -0.5230  0.2613  0.0994
  173ccc    C21 6626   8.764  10.625   3.258  0.5184 -1.4146  0.0693
  173ccc    H30 6627   8.833  10.704   3.070  0.8868 -0.3714 -0.4157
  173ccc    H31 6628   8.893  10.412   3.128 -2.8556  0.6337 -0.3280
  173ccc    H32 6629   8.730  10.540   3.318 -4.1402  0.0294 -0.0904
  173ccc    O10 6630   8.650  10.710   3.275  0.6168  0.2766  0.7310
  173ccc    O11 6631   8.985  10.516   2.974 -0.8533 -0.1665 -0.5903
  173ccc    C22 6632   9.090  10.632   3.435 -0.0814 -0.0472  0.1657
  173ccc    H33 6633   8.914  10.482   2.916  0.7923  0.0994 -2.8756
  173ccc    H34 6634   8.680  10.440   3.045  1.2664 -0.0915 -1.6529
  173ccc    H35 6635   9.099  10.741   3.423 -0.5411 -0.0475 -0.1884
  173ccc    H36 6636   9.193  10.599   3.421  1.2117  3.8597 -0.7219
  173ccc    O12 6637   9.059  10.599   3.570  0.4061  0.5912  0.2419
  173ccc    H37 6638   8.968  10.635   3.573  0.8437  2.3344 -2.7214
  173ccc    O13 6639   8.878  10.679   3.331  0.3127  0.1096  0.2135
  173ccc    H38 6640   8.692  10.790   3.313  0.3687  0.6246  0.2886
  173ccc    H39 6641   9.089  10.646   3.145 -1.3004  0.0099 -0.6985
  173ccc     O5 6642   9.140  10.452   3.207  0.1947 -0.1723  0.3714
  173ccc    H40 6643   9.198  10.438   3.130 -0.6397 -1.4791 -0.0494
  173ccc     N4 6644   8.696  10.538   3.026  0.5067  0.3401 -0.2565
  174ccc     N1 6645  11.580   8.313   0.829 -0.4410 -0.3809  0.8256
  174ccc     H4 6646  11.656   8.379   0.815 -0.2179 -0.6797  0.6229
  174ccc     C3 6647  11.549   8.214   0.718  0.0512  0.2462  0.4602
  174ccc     H5 6648  11.517   8.124   0.772 -2.2028  0.0961 -0.9791
  174ccc     C4 6649  11.674   8.194   0.630  0.4495 -0.0028  0.2408
  174ccc     H6 6650  11.463   8.247   0.659  0.0838  6.2582  3.1442
  174ccc     H7 6651  11.757   8.163   0.695 -0.0615  0.7144  1.2815
  174ccc     H8 6652  11.689   8.285   0.572 -0.0791 -0.2652 -0.3167
  174ccc     N2 6653  11.643   8.085   0.537 -0.1189 -0.3116 -0.3316
  174ccc     C5 6654  11.558   8.122   0.425 -0.4896 -0.1202 -0.5795
  174ccc     C6 6655  11.767   8.028   0.497 -0.1449  0.6019  0.6908
  174ccc     H9 6656  11.759   7.978   0.400  1.9967 -3.7507  2.4916
  174ccc     C7 6657  11.791   7.910   0.578 -0.4496 -0.5176 -0.3211
  174ccc    H10 6658  11.852   8.096   0.480  1.6524 -1.4892  0.8554
  174ccc    H11 6659  11.703   7.846   0.588 -0.4688 -0.5281 -0.5558
  174ccc    H12 6660  11.821   7.943   0.678  0.4692 -1.3220 -0.3149
  174ccc     C8 6661  11.908   7.833   0.520  0.7166 -0.9316  0.2098
  174ccc     O2 6662  12.018   7.871   0.504 -0.8514 -0.2154  0.2025
  174ccc    H13 6663  11.611   8.188   0.355 -2.3509  0.7373 -1.2525
  174ccc    H14 6664  11.471   8.178   0.460 -1.4220 -0.5848 -2.0711
  174ccc     C9 6665  11.495   7.995   0.364  0.3110 -1.2170 -0.2540
  174ccc    H15 6666  11.416   7.948   0.424 -0.6124  0.5214 -0.0503
  174ccc    H16 6667  11.568   7.920   0.332 -0.3266 -1.2566 -1.7566
  174ccc    C10 6668  11.428   8.044   0.239 -0.0488 -0.3660  0.3938
  174ccc     O4 6669  11.498   8.069   0.144 -0.2471 -0.0498 -0.1665
  174ccc    C11 6670  12.063   7.559   0.128 -0.5507  0.7286  0.3280
  174ccc    C12 6671  12.103   7.497   0.271 -0.6106  0.3167  0.7876
  174ccc    H17 6672  12.130   7.644   0.108 -1.3085  1.5293  1.0924
  174ccc    C13 6673  12.059   7.589   0.389 -0.4285 -0.3396 -0.0018
  174ccc    C14 6674  11.916   7.628   0.370  0.7660  0.0810 -0.0484
  174ccc    C15 6675  11.910   7.704   0.228  0.6722 -0.0064  0.5166
  174ccc    H18 6676  11.849   7.542   0.372 -0.5728  1.0601 -1.2763
  174ccc    H19 6677  12.122   7.679   0.382 -0.5471 -0.3836 -2.5596
  174ccc    H20 6678  11.990   7.779   0.230  1.6709 -1.0414  0.3550
  174ccc     O1 6679  11.782   7.766   0.203 -0.1567  0.3507  0.0880
  174ccc     O6 6680  12.083   7.520   0.505  0.4523  0.1135  0.0906
  174ccc    C16 6681  12.075   7.468   0.005  0.3122 -0.0403 -0.5263
  174ccc    H21 6682  12.180   7.511   0.510  0.5547  0.6964 -0.5795
  174ccc    H22 6683  11.759   7.708   0.474  0.0138 -0.1416  2.2544
  174ccc    H23 6684  11.982   7.411   0.012  0.2917  0.0691  0.2423
  174ccc    H24 6685  12.155   7.396   0.028  0.6832  0.9850  1.7252
  174ccc     O7 6686  12.094   7.532  -0.117  0.0847 -0.1536  0.2445
  174ccc    H25 6687  12.037   7.611  -0.116  0.5176  0.1555  0.8480
  174ccc     O8 6688  11.923   7.602   0.137  0.0214  0.5364  0.6053
  174ccc    H26 6689  11.748   7.687   0.157  0.2090  1.6662 -2.6575
  174ccc    H27 6690  12.043   7.407   0.288 -2.1932  1.5455  2.0266
  174ccc     O9 6691  12.240   7.467   0.281  0.5912 -0.3447  0.0480
  174ccc    H28 6692  12.273   7.438   0.368  1.9633 -2.0139 -0.9797
  174ccc     N3 6693  11.860   7.718   0.474  0.0394  0.1757  0.2740
  174ccc    C17 6694  11.179   8.112  -0.186 -0.2884 -0.6413 -0.0986
  174ccc    C18 6695  11.149   7.980  -0.113  0.2672  0.1655  0.8953
  174ccc    H29 6696  11.285   8.125  -0.212  0.2034 -1.4363  1.4095
  174ccc    C19 6697  11.234   7.961   0.011  0.3326  0.1342  0.2817
  174ccc    C20 6698  11.217   8.085   0.101  0.3490  0.2238 -0.7541
  174ccc    C21 6699  11.250   8.219   0.020 -0.4026  0.2922 -0.6169
  174ccc    H30 6700  11.112   8.084   0.133  0.6545 -0.1791  0.2514
  174ccc    H31 6701  11.339   7.953  -0.018 -0.0134 -2.0201 -0.4856
  174ccc    H32 6702  11.354   8.224  -0.014 -0.6174 -1.4652 -1.6370
  174ccc    O10 6703  11.218   8.337   0.092  0.2007  0.4654  0.5751
  174ccc    O11 6704  11.192   7.838   0.082  0.1217 -0.0077  0.0037
  174ccc    C22 6705  11.089   8.129  -0.305  0.2314 -0.5886  0.0860
  174ccc    H33 6706  11.217   7.760   0.030  0.9501  0.4194 -0.2548
  174ccc    H34 6707  11.225   8.021   0.296 -1.8278  2.0397 -0.1311
  174ccc    H35 6708  11.099   8.049  -0.379 -1.2840 -0.2926 -0.4876
  174ccc    H36 6709  11.109   8.219  -0.365  0.7208 -0.6629  0.1347
  174ccc    O12 6710  10.954   8.133  -0.260  0.5743 -0.3672  0.0306
  174ccc    H37 6711  10.960   8.228  -0.240  2.3846  0.1088 -2.2790
  174ccc    O13 6712  11.155   8.219  -0.089  0.1314  0.5180 -0.0961
  174ccc    H38 6713  11.173   8.392   0.025  0.6738 -0.1572 -0.2566
  174ccc    H39 6714  11.046   7.969  -0.075  0.8932 -1.0565  2.3628
  174ccc     O5 6715  11.168   7.866  -0.197 -0.2804  0.3986  0.5728
  174ccc    H40 6716  11.091   7.856  -0.257 -1.7309  2.3149  1.9933
  174ccc     N4 6717  11.290   8.053   0.224 -0.0762 -0.2520  0.3222
  175ccc     N1 6718  11.299   9.089   0.980 -0.2032 -0.7536 -0.4146
  175ccc     H4 6719  11.272   9.074   1.077 -0.4407  0.0776 -0.3517
  175ccc     C3 6720  11.243   9.199   0.898  0.3945  0.4896  0.0406
  175ccc     H5 6721  11.255   9.167   0.794 -1.2440 -1.2799  0.3502
  175ccc     C4 6722  11.299   9.342   0.916 -0.9115  0.0741 -0.3077
  175ccc     H6 6723  11.134   9.202   0.901  0.4417  2.6568  2.0351
  175ccc     H7 6724  11.375   9.351   0.838  1.8802  1.2890  2.3128
  175ccc     H8 6725  11.350   9.346   1.014  0.0808 -0.8434 -0.7602
  175ccc     N2 6726  11.196   9.444   0.895 -0.3805 -0.0945  0.7505
  175ccc     C5 6727  11.100   9.447   1.009 -0.2871  0.3714 -0.1841
  175ccc     C6 6728  11.144   9.442   0.754  0.1238  0.1178  0.0841
  175ccc     H9 6729  11.143   9.344   0.705  2.1255 -0.2570  0.6870
  175ccc     C7 6730  11.214   9.549   0.671  0.0745 -0.1383 -0.0887
  175ccc    H10 6731  11.047   9.493   0.756  0.1469  0.1674 -0.0619
  175ccc    H11 6732  11.322   9.534   0.661  0.1007 -1.3221  1.6129
  175ccc    H12 6733  11.195   9.639   0.730  1.6901 -0.5552  1.1196
  175ccc     C8 6734  11.139   9.571   0.540  0.2991 -0.0242 -0.6081
  175ccc     O2 6735  11.045   9.649   0.531  0.7308 -0.2509  0.1315
  175ccc    H13 6736  11.142   9.411   1.103  0.5801  1.1564 -0.2614
  175ccc    H14 6737  11.019   9.375   0.995  1.7220 -2.1814  0.5838
  175ccc     C9 6738  11.056   9.592   1.034 -0.1810 -0.2528  0.1227
  175ccc    H15 6739  10.994   9.616   0.947  0.7381  3.2565  0.2538
  175ccc    H16 6740  11.148   9.651   1.044  0.0205 -0.6744  0.8101
  175ccc    C10 6741  10.967   9.609   1.158 -0.7135 -0.2097  0.1015
  175ccc     O4 6742  10.908   9.521   1.213 -0.6210  0.9065  0.0148
  175ccc    C11 6743  11.050   9.721   0.065  0.0006  0.7763  0.0549
  175ccc    C12 6744  11.184   9.772   0.124 -0.2072 -0.0662  0.4920
  175ccc    H17 6745  10.969   9.761   0.126  0.8708  1.8361  0.5552
  175ccc    C13 6746  11.195   9.727   0.279  0.5100 -0.4367 -0.7631
  175ccc    C14 6747  11.176   9.577   0.294  0.1937  0.2250  0.6505
  175ccc    C15 6748  11.046   9.532   0.225  0.0999  0.3083 -1.2109
  175ccc    H18 6749  11.253   9.545   0.222  0.9625 -0.3822  1.7098
  175ccc    H19 6750  11.117   9.776   0.338  0.3892  1.0292 -2.0542
  175ccc    H20 6751  10.962   9.578   0.279  0.7048 -0.5560  0.5559
  175ccc     O1 6752  11.024   9.384   0.218  0.1259 -0.7536 -0.4192
  175ccc     O6 6753  11.319   9.767   0.327  0.2642 -0.5305 -0.1464
  175ccc    C16 6754  11.022   9.750  -0.086  0.4713  0.4454  0.4843
  175ccc    H21 6755  11.380   9.778   0.252 -0.4543 -0.9588 -0.8083
  175ccc    H22 6756  11.262   9.444   0.427 -1.8734 -0.3462 -1.4249
  175ccc    H23 6757  11.010   9.855  -0.116  0.3078 -0.0614 -1.3769
  175ccc    H24 6758  10.929   9.701  -0.116  0.7534 -1.1060  2.0081
  175ccc     O7 6759  11.131   9.702  -0.167 -0.0764  1.0164  0.1014
  175ccc    H25 6760  11.176   9.777  -0.210 -0.5296  0.9298 -0.5419
  175ccc     O8 6761  11.040   9.582   0.087  0.5573 -0.3881  0.8672
  175ccc    H26 6762  11.013   9.357   0.311 -2.2572 -2.6220 -1.1553
  175ccc    H27 6763  11.261   9.721   0.066  1.2185  0.3128  1.9785
  175ccc     O9 6764  11.190   9.909   0.109 -0.0803 -0.1802 -0.6664
  175ccc    H28 6765  11.224   9.932   0.021 -1.1512  2.9426 -0.3772
  175ccc     N3 6766  11.202   9.526   0.428 -0.5641  0.6797  0.6953
  175ccc    C17 6767  10.753   9.724   1.589 -0.1740 -0.2305  0.1210
  175ccc    C18 6768  10.907   9.747   1.585  0.0071  0.7462 -0.0578
  175ccc    H29 6769  10.737   9.616   1.574  0.6081 -0.6007  1.7709
  175ccc    C19 6770  10.975   9.719   1.450  0.1395 -0.0693 -0.4827
  175ccc    C20 6771  10.891   9.780   1.334  0.5656  1.0660 -0.3648
  175ccc    C21 6772  10.740   9.740   1.346  0.0847  0.2794 -0.2864
  175ccc    H30 6773  10.900   9.889   1.331  0.3701  1.1024  0.3155
  175ccc    H31 6774  10.987   9.611   1.435 -1.1044 -0.0839 -1.4850
  175ccc    H32 6775  10.744   9.630   1.350 -3.0995  0.1006 -0.0521
  175ccc    O10 6776  10.650   9.790   1.247 -0.0524  0.1548  0.0496
  175ccc    O11 6777  11.110   9.776   1.456  1.0648 -0.4195  0.1195
  175ccc    C22 6778  10.681   9.777   1.713  0.3141 -0.4470 -0.3494
  175ccc    H33 6779  11.155   9.753   1.538  0.0384  1.2693  1.2069
  175ccc    H34 6780  11.031   9.799   1.175 -0.7328 -0.2671 -1.3934
  175ccc    H35 6781  10.683   9.704   1.795  0.8221  0.3350  0.3574
  175ccc    H36 6782  10.577   9.788   1.681 -0.3551  1.0794  2.1201
  175ccc    O12 6783  10.728   9.900   1.769 -0.1564 -0.0870 -0.6407
  175ccc    H37 6784  10.661   9.933   1.832  0.0102  0.3137 -0.6734
  175ccc    O13 6785  10.698   9.787   1.470  0.6193 -0.5365 -0.3073
  175ccc    H38 6786  10.684   9.878   1.225  0.4518 -0.6440 -2.7718
  175ccc    H39 6787  10.920   9.854   1.602 -2.1464  1.3271 -1.6824
  175ccc     O5 6788  10.977   9.671   1.687 -0.2255 -0.7417 -0.6797
  175ccc    H40 6789  11.061   9.719   1.700 -0.4730 -0.4238 -0.2081
  175ccc     N4 6790  10.965   9.732   1.213 -0.4045  0.0341 -0.2687
  176ccc     N1 6791  11.112   8.786   2.697  0.1329 -0.6298  0.2209
  176ccc     H4 6792  11.059   8.781   2.611  1.6733  1.3647 -0.9631
  176ccc     C3 6793  11.047   8.807   2.825 -0.2845 -0.3980 -0.7366
  176ccc     H5 6794  11.037   8.708   2.872 -2.8665 -0.0340 -0.3821
  176ccc     C4 6795  10.905   8.866   2.808  0.3989  0.1654  0.3760
  176ccc     H6 6796  11.106   8.878   2.884  0.8753 -0.3398 -1.9125
  176ccc     H7 6797  10.846   8.794   2.750 -1.0315  0.8443  0.9456
  176ccc     H8 6798  10.907   8.963   2.758 -5.3314  0.5029  0.1673
  176ccc     N2 6799  10.859   8.889   2.946  0.2916  0.1818 -0.2174
  176ccc     C5 6800  10.915   9.006   3.008 -0.8117 -0.2699 -0.0424
  176ccc     C6 6801  10.715   8.870   2.961  0.6425 -0.1135 -0.6062
  176ccc     H9 6802  10.656   8.950   2.914 -0.9783  0.5561  2.3390
  176ccc     C7 6803  10.665   8.852   3.111 -0.4634 -0.7765 -0.8737
  176ccc    H10 6804  10.688   8.775   2.915 -2.5531  0.3133  0.1632
  176ccc    H11 6805  10.556   8.849   3.112 -0.4890 -0.2448  0.3508
  176ccc    H12 6806  10.701   8.938   3.169  0.2575 -2.2430  0.9940
  176ccc     C8 6807  10.721   8.741   3.187  0.2156 -0.4090 -0.8277
  176ccc     O2 6808  10.702   8.627   3.160  0.9166 -0.4706  0.1803
  176ccc    H13 6809  11.023   9.016   2.991 -0.2493  1.2296  3.5132
  176ccc    H14 6810  10.906   8.996   3.117 -1.2647  1.2073  0.0775
  176ccc     C9 6811  10.849   9.135   2.977  0.0777 -1.1009 -0.3040
  176ccc    H15 6812  10.746   9.128   3.015  0.2072 -0.0886  0.2872
  176ccc    H16 6813  10.851   9.150   2.868 -0.4305  0.0453 -0.1764
  176ccc    C10 6814  10.910   9.259   3.037  0.4852  0.2302  0.1465
  176ccc     O4 6815  11.009   9.252   3.104  0.2139 -0.2361  0.4240
  176ccc    C11 6816  11.032   8.419   3.402 -0.8784 -0.8009 -0.0066
  176ccc    C12 6817  11.111   8.543   3.345  0.3369 -0.4025  0.0621
  176ccc    H17 6818  11.000   8.359   3.316  0.9986 -0.4527 -1.0044
  176ccc    C13 6819  11.019   8.649   3.276 -0.2087  0.8247  0.4246
  176ccc    C14 6820  10.901   8.681   3.360  0.5994  0.3136 -0.0764
  176ccc    C15 6821  10.836   8.547   3.400  0.1668 -0.0650 -0.3235
  176ccc    H18 6822  10.936   8.727   3.453  1.5699 -2.1552  0.8651
  176ccc    H19 6823  10.986   8.606   3.181 -1.1229  2.4712 -0.0343
  176ccc    H20 6824  10.790   8.499   3.313 -0.6417  0.5132 -0.2306
  176ccc     O1 6825  10.735   8.577   3.490 -0.5184 -0.2938 -0.1410
  176ccc     O6 6826  11.082   8.770   3.244 -0.7580  0.0136  0.2832
  176ccc    C16 6827  11.125   8.336   3.487  0.3692  0.7177  0.2969
  176ccc    H21 6828  11.146   8.753   3.173  0.0363  0.6570  0.8151
  176ccc    H22 6829  10.847   8.864   3.294  0.7331 -0.4301  0.8578
  176ccc    H23 6830  11.149   8.399   3.573 -0.8718 -1.1387  2.0819
  176ccc    H24 6831  11.219   8.310   3.437 -1.7916 -1.9419 -2.8410
  176ccc     O7 6832  11.054   8.223   3.532  0.2135  0.2530 -0.1356
  176ccc    H25 6833  11.101   8.184   3.608 -0.6159 -1.2877 -0.3576
  176ccc     O8 6834  10.922   8.470   3.483  0.1728 -0.2244  0.2175
  176ccc    H26 6835  10.664   8.514   3.471 -1.0418  0.0544  0.6343
  176ccc    H27 6836  11.157   8.587   3.434  0.5603 -1.5953  0.5458
  176ccc     O9 6837  11.204   8.490   3.252 -0.3353 -0.3780 -0.2726
  176ccc    H28 6838  11.241   8.561   3.196 -0.9744 -0.4889 -0.8536
  176ccc     N3 6839  10.803   8.772   3.291 -0.9045  0.3434  0.1325
  176ccc    C17 6840  10.665   9.634   2.731  0.0749  0.1120 -0.1446
  176ccc    C18 6841  10.759   9.526   2.672  0.2742  0.1275 -0.0449
  176ccc    H29 6842  10.726   9.717   2.766  1.6748 -1.0274 -0.1022
  176ccc    C19 6843  10.842   9.460   2.783  0.0653  0.2800 -0.0041
  176ccc    C20 6844  10.763   9.422   2.913  0.4410 -0.1746  0.1513
  176ccc    C21 6845  10.682   9.553   2.953  0.5189  0.1587 -0.2723
  176ccc    H30 6846  10.688   9.344   2.894  1.7965 -1.6041  0.4594
  176ccc    H31 6847  10.900   9.546   2.820  2.6905 -1.8697  1.2563
  176ccc    H32 6848  10.755   9.632   2.975  0.6313 -0.2239  0.8125
  176ccc    O10 6849  10.605   9.515   3.071  0.2423  0.0418  0.7017
  176ccc    O11 6850  10.915   9.347   2.739 -0.0591  0.4927  0.1437
  176ccc    C22 6851  10.560   9.684   2.626  0.5738  0.3389 -0.2708
  176ccc    H33 6852  10.985   9.383   2.682  0.9881 -0.5215  0.7584
  176ccc    H34 6853  10.901   9.466   3.062  1.4929  0.9392 -1.7606
  176ccc    H35 6854  10.618   9.723   2.542 -0.8604 -1.3796 -2.1525
  176ccc    H36 6855  10.499   9.766   2.666  0.0524 -0.4346  0.5539
  176ccc    O12 6856  10.483   9.577   2.570 -0.0591 -0.2082 -0.5172
  176ccc    H37 6857  10.390   9.606   2.565 -0.8898 -1.6033  3.4940
  176ccc    O13 6858  10.592   9.583   2.842 -0.7877  0.0760  0.8720
  176ccc    H38 6859  10.525   9.567   3.090 -0.3694 -0.9656  0.9956
  176ccc    H39 6860  10.700   9.445   2.626  2.2593 -1.4119 -0.0071
  176ccc     O5 6861  10.847   9.582   2.577  1.1850 -0.1071  0.2078
  176ccc    H40 6862  10.828   9.676   2.566  0.2515 -0.2605  0.4294
  176ccc     N4 6863  10.863   9.383   3.016  0.2681  0.5034 -0.0513
  177ccc     N1 6864  11.973   8.756   2.386 -0.5071 -0.0502 -0.0785
  177ccc     H4 6865  11.955   8.691   2.311  0.1889 -0.1265 -0.1906
  177ccc     C3 6866  12.112   8.742   2.448 -0.2237 -0.2917  0.0976
  177ccc     H5 6867  12.195   8.792   2.396 -0.2742  0.6923  0.9225
  177ccc     C4 6868  12.156   8.596   2.468  0.2105  0.1513 -0.3290
  177ccc     H6 6869  12.111   8.797   2.543  1.2614  1.8804 -1.0532
  177ccc     H7 6870  12.257   8.596   2.512 -0.2465  1.1599  0.7761
  177ccc     H8 6871  12.151   8.548   2.370 -1.1328 -0.2559 -0.0795
  177ccc     N2 6872  12.059   8.533   2.560  0.4518 -0.2961 -0.0719
  177ccc     C5 6873  12.060   8.389   2.538 -0.4335 -0.3701  0.0549
  177ccc     C6 6874  12.081   8.570   2.701 -0.5108  0.4264 -0.7341
  177ccc     H9 6875  12.152   8.505   2.755  0.2634  1.8090 -0.0305
  177ccc     C7 6876  11.957   8.564   2.790  0.4159 -0.5160  0.3144
  177ccc    H10 6877  12.121   8.672   2.704  0.4037  0.1057 -1.6248
  177ccc    H11 6878  11.916   8.464   2.808 -1.2422 -0.0236 -0.4707
  177ccc    H12 6879  11.875   8.626   2.750 -0.0752 -1.5996 -0.4092
  177ccc     C8 6880  11.995   8.626   2.921 -0.3415  0.3862  0.1819
  177ccc     O2 6881  12.094   8.601   2.977 -0.0763  0.2687 -0.5533
  177ccc    H13 6882  12.008   8.339   2.621 -1.7391  0.7329 -0.0571
  177ccc    H14 6883  12.161   8.346   2.536 -0.5726 -0.8724  1.8359
  177ccc     C9 6884  11.982   8.360   2.405 -0.2885  0.1274 -0.1387
  177ccc    H15 6885  12.052   8.368   2.321  1.4948  1.1115  1.3962
  177ccc    H16 6886  11.903   8.436   2.393  0.0524  0.4034 -0.7082
  177ccc    C10 6887  11.933   8.212   2.414 -0.2616  0.5157 -0.8595
  177ccc     O4 6888  11.825   8.180   2.462 -0.3248 -0.1135 -0.1021
  177ccc    C11 6889  12.121   8.965   3.277  0.0672  0.4354  0.5458
  177ccc    C12 6890  12.124   9.024   3.133  0.8203  0.0741 -0.5036
  177ccc    H17 6891  12.211   8.902   3.283 -0.7382 -0.7719  0.4298
  177ccc    C13 6892  12.064   8.917   3.027 -0.0538 -0.2101  0.0490
  177ccc    C14 6893  11.948   8.830   3.071 -0.1011  0.4646  0.1817
  177ccc    C15 6894  11.971   8.781   3.213  0.0539  0.0264  0.1951
  177ccc    H18 6895  11.870   8.907   3.065 -0.4642  0.1829  1.1233
  177ccc    H19 6896  12.147   8.845   3.013 -0.7188 -1.5255  2.3918
  177ccc    H20 6897  12.059   8.716   3.206  0.8741  1.1437 -0.1808
  177ccc     O1 6898  11.873   8.706   3.271 -0.3848 -0.2693 -0.4347
  177ccc     O6 6899  12.034   8.981   2.904 -0.2369  0.7585  0.0855
  177ccc    C16 6900  12.136   9.072   3.385 -0.0425  1.0372  0.0330
  177ccc    H21 6901  11.967   9.051   2.912  0.0301  1.1108 -0.6836
  177ccc    H22 6902  11.862   8.775   2.892 -0.1195 -0.8871 -0.1489
  177ccc    H23 6903  12.077   9.161   3.360 -0.9910 -0.2039 -2.4765
  177ccc    H24 6904  12.243   9.096   3.380  0.1680 -0.0187 -1.1202
  177ccc     O7 6905  12.095   9.027   3.510  0.0171 -0.6783  0.4106
  177ccc    H25 6906  12.079   8.933   3.494  0.5720 -0.3512 -2.5107
  177ccc     O8 6907  11.990   8.899   3.302  0.0189  0.2289 -0.1025
  177ccc    H26 6908  11.808   8.676   3.206 -0.8879 -2.9628  1.1769
  177ccc    H27 6909  12.084   9.126   3.128  1.1472  0.1780 -1.1572
  177ccc     O9 6910  12.264   9.022   3.095  0.3117 -0.0577 -0.0483
  177ccc    H28 6911  12.275   9.061   3.006  0.0215 -1.5036 -0.7404
  177ccc     N3 6912  11.910   8.725   2.967 -0.1247 -0.7030 -0.0209
  177ccc    C17 6913  12.423   7.990   2.386 -0.2599 -0.0966 -0.4321
  177ccc    C18 6914  12.378   8.064   2.260  0.5676 -0.1834  0.3355
  177ccc    H29 6915  12.434   7.883   2.364 -1.9064 -0.0269 -1.7929
  177ccc    C19 6916  12.226   8.056   2.239  0.0207  0.0554  0.1642
  177ccc    C20 6917  12.161   8.104   2.367  0.1921  0.0452 -0.4145
  177ccc    C21 6918  12.195   8.010   2.488 -0.0393  0.3717  0.0938
  177ccc    H30 6919  12.211   8.201   2.380  1.3697 -0.3399 -1.9119
  177ccc    H31 6920  12.188   7.954   2.229 -1.7173  0.6320  0.6005
  177ccc    H32 6921  12.152   7.911   2.470  2.0371 -1.0840  2.5579
  177ccc    O10 6922  12.154   8.062   2.614  0.0445  0.4808  0.0202
  177ccc    O11 6923  12.182   8.145   2.125  0.3963  0.1054 -0.0743
  177ccc    C22 6924  12.562   8.024   2.444  0.1959 -0.6727  0.4195
  177ccc    H33 6925  12.085   8.147   2.127  0.3178  0.0117 -1.9322
  177ccc    H34 6926  11.968   8.022   2.351  0.2391  0.4507 -0.7850
  177ccc    H35 6927  12.555   8.127   2.482  1.1552 -0.2798 -0.4233
  177ccc    H36 6928  12.626   8.028   2.355 -0.1213  0.2175  0.2177
  177ccc    O12 6929  12.618   7.938   2.544  0.6207  0.5333 -0.6662
  177ccc    H37 6930  12.544   7.885   2.579  0.9889  1.3460  1.5352
  177ccc    O13 6931  12.334   8.011   2.504  0.0435  0.3640  0.5170
  177ccc    H38 6932  12.162   7.994   2.683 -4.1768  0.2268  0.5244
  177ccc    H39 6933  12.408   8.169   2.259 -1.2227  0.3670  0.4019
  177ccc     O5 6934  12.444   8.009   2.144 -0.4972 -0.1157 -0.0329
  177ccc    H40 6935  12.466   7.916   2.159  1.0144  0.3549  0.9731
  177ccc     N4 6936  12.011   8.114   2.360 -0.1033  0.5489 -0.0931
  178ccc     N1 6937  10.039   7.908   3.710 -0.0623  0.4073 -0.0867
  178ccc     H4 6938  10.101   7.829   3.722 -0.1826  0.1066 -1.3308
  178ccc     C3 6939  10.015   7.986   3.840  0.0548 -0.3921 -0.4310
  178ccc     H5 6940   9.971   8.085   3.828 -1.6438 -0.8068  1.7810
  178ccc     C4 6941  10.135   7.996   3.933 -0.0876 -0.5155  0.7480
  178ccc     H6 6942   9.937   7.932   3.895  0.6304 -0.8666 -0.0621
  178ccc     H7 6943  10.209   8.066   3.893  0.9445 -1.3243  1.1791
  178ccc     H8 6944  10.186   7.899   3.940  0.4221 -0.2007  1.5781
  178ccc     N2 6945  10.101   8.039   4.072 -0.2726 -0.0844  0.6849
  178ccc     C5 6946  10.026   7.939   4.152 -0.4056 -0.0235  0.4987
  178ccc     C6 6947  10.215   8.094   4.137 -0.2465 -0.3155 -0.5877
  178ccc     H9 6948  10.295   8.023   4.164  2.0899  1.3284 -2.6520
  178ccc     C7 6949  10.176   8.172   4.256 -0.3201  0.0777 -0.2308
  178ccc    H10 6950  10.263   8.159   4.062  0.8908 -1.5850 -1.0051
  178ccc    H11 6951  10.171   8.107   4.344  0.3007 -0.6688 -0.7271
  178ccc    H12 6952  10.086   8.232   4.237 -1.0917 -0.6410  1.0512
  178ccc     C8 6953  10.279   8.273   4.282 -0.4490 -0.3581  0.3144
  178ccc     O2 6954  10.285   8.383   4.229 -0.1391  0.0965 -0.5109
  178ccc    H13 6955  10.072   7.935   4.251  0.4779 -0.5055  0.0846
  178ccc    H14 6956  10.035   7.834   4.120 -0.8534 -0.6523  2.2969
  178ccc     C9 6957   9.876   7.984   4.165  0.2278 -0.5025 -0.5513
  178ccc    H15 6958   9.812   7.956   4.081  1.0394  1.3117 -1.8692
  178ccc    H16 6959   9.869   8.093   4.181 -4.4774 -0.8927  1.6946
  178ccc    C10 6960   9.808   7.923   4.279 -0.5589  0.2231 -0.4072
  178ccc     O4 6961   9.849   7.822   4.332  0.0408 -0.1809 -0.3007
  178ccc    C11 6962  10.707   8.386   4.717 -0.5864  0.7429  0.2725
  178ccc    C12 6963  10.832   8.295   4.601  0.7639 -0.6964  0.1762
  178ccc    H17 6964  10.683   8.307   4.789 -0.4434 -0.3095 -0.8008
  178ccc    C13 6965  10.770   8.246   4.436 -0.3521  0.1407  0.1077
  178ccc    C14 6966  10.510   8.314   4.396  0.3996  0.3064 -0.6721
  178ccc    C15 6967  10.443   8.391   4.549  0.4769 -0.0253  0.4785
  178ccc    H18 6968  10.486   8.405   4.341  1.6556  0.7062 -0.5883
  178ccc    H19 6969  10.797   8.140   4.447  0.4273  0.2867 -0.2976
  178ccc    H20 6970  10.394   8.306   4.598 -0.7051  0.5142  0.2669
  178ccc     O1 6971  10.346   8.488   4.522 -0.0850  0.2733  0.2373
  178ccc     O6 6972  10.889   8.268   4.357 -0.7627  0.3991  0.0150
  178ccc    C16 6973  10.761   8.497   4.806  0.1601 -0.6402  0.7437
  178ccc    H21 6974  10.891   8.363   4.335 -2.0688  0.1780 -1.2078
  178ccc    H22 6975  10.383   8.139   4.392  0.2946  1.7481  1.5890
  178ccc    H23 6976  10.834   8.464   4.881 -1.0133 -2.0701  1.2970
  178ccc    H24 6977  10.682   8.555   4.856 -0.1093  0.5088 -0.9212
  178ccc     O7 6978  10.835   8.589   4.731  0.2333 -0.4041  0.6695
  178ccc    H25 6979  10.912   8.545   4.692 -1.0032 -0.2798 -2.0756
  178ccc     O8 6980  10.544   8.432   4.674  0.0991  0.6651  0.5157
  178ccc    H26 6981  10.370   8.528   4.436 -0.4107  0.4571  0.2303
  178ccc    H27 6982  10.913   8.360   4.566 -0.7557  1.2149  0.0506
  178ccc     O9 6983  10.881   8.181   4.675 -0.2077  0.0318 -0.2395
  178ccc    H28 6984  10.812   8.119   4.706  1.5301 -0.8620  2.1349
  178ccc     N3 6985  10.386   8.230   4.347  0.1424  0.8347 -0.4078
  178ccc    C17 6986   9.403   8.296   4.313  0.6120 -0.7212  0.7182
  178ccc    C18 6987   9.526   8.326   4.404 -0.0873  0.6370  0.6900
  178ccc    H29 6988   9.337   8.237   4.379 -0.1326 -2.6219 -1.5832
  178ccc    C19 6989   9.613   8.197   4.432 -1.2297 -0.3500 -0.0328
  178ccc    C20 6990   9.641   8.118   4.303  0.1098 -0.8036 -0.5547
  178ccc    C21 6991   9.512   8.104   4.219 -0.2977  0.1318 -0.3962
  178ccc    H30 6992   9.711   8.177   4.242 -0.3912  0.1076 -0.2638
  178ccc    H31 6993   9.557   8.136   4.504 -2.4755 -0.2423 -0.8708
  178ccc    H32 6994   9.449   8.031   4.271  0.0231 -0.0088 -0.2044
  178ccc    O10 6995   9.555   8.038   4.102 -0.7898 -0.7417  0.0672
  178ccc    O11 6996   9.744   8.242   4.483  0.0740 -0.6886  0.0209
  178ccc    C22 6997   9.324   8.419   4.263  0.1648 -0.3538 -0.2280
  178ccc    H33 6998   9.737   8.322   4.538  0.4727 -1.0956  0.6757
  178ccc    H34 6999   9.655   7.935   4.417 -3.3765  1.6533 -0.6383
  178ccc    H35 7000   9.285   8.467   4.354  2.0963  2.3724 -0.6871
  178ccc    H36 7001   9.242   8.387   4.199  2.1905 -2.0504 -2.1673
  178ccc    O12 7002   9.409   8.510   4.190 -0.3455 -0.1409  0.6661
  178ccc    H37 7003   9.439   8.466   4.109 -1.0869 -0.9098  0.7919
  178ccc    O13 7004   9.442   8.221   4.198 -0.2878  0.1092 -0.2096
  178ccc    H38 7005   9.477   8.011   4.051 -0.1667 -3.1523  0.2565
  178ccc    H39 7006   9.581   8.408   4.356 -0.8375 -0.5844 -2.5050
  178ccc     O5 7007   9.479   8.371   4.528  0.7054 -0.0563 -0.0714
  178ccc    H40 7008   9.545   8.434   4.561  0.0526 -0.1233  1.4284
  178ccc     N4 7009   9.699   7.983   4.338  0.3418  0.6110  0.5839
  179ccc     N1 7010  10.325   7.440   3.012  0.4230  0.7563  0.0134
  179ccc     H4 7011  10.318   7.340   3.025 -1.0945  0.9154  0.6633
  179ccc     C3 7012  10.281   7.464   2.866 -0.2522 -0.1548 -0.2550
  179ccc     H5 7013  10.173   7.480   2.867 -0.3209 -0.3346 -1.8242
  179ccc     C4 7014  10.295   7.342   2.773 -0.6335  0.0125 -0.4548
  179ccc     H6 7015  10.333   7.543   2.811  2.9770 -2.1346 -0.3254
  179ccc     H7 7016  10.207   7.279   2.792 -1.1067  1.2282  1.6087
  179ccc     H8 7017  10.388   7.286   2.794 -0.8777 -0.6224 -1.0097
  179ccc     N2 7018  10.301   7.394   2.633 -0.4676  0.4638  0.4952
  179ccc     C5 7019  10.407   7.319   2.554 -0.0751  0.2532 -0.0405
  179ccc     C6 7020  10.170   7.399   2.567  0.0857 -0.2608  0.4380
  179ccc     H9 7021  10.148   7.298   2.531 -0.5718  0.1043 -0.2219
  179ccc     C7 7022  10.167   7.503   2.456  0.0697 -0.3537 -0.3492
  179ccc    H10 7023  10.089   7.417   2.639 -2.8015 -2.9495 -1.8370
  179ccc    H11 7024  10.216   7.467   2.365 -1.4732 -1.2087 -0.8734
  179ccc    H12 7025  10.213   7.599   2.482 -1.9069  0.8312 -1.0432
  179ccc     C8 7026  10.032   7.534   2.415  0.0894  0.0894  0.6486
  179ccc     O2 7027   9.956   7.443   2.378 -0.4101 -0.3851  0.4711
  179ccc    H13 7028  10.371   7.312   2.450 -2.3553 -1.8855  0.8064
  179ccc    H14 7029  10.415   7.213   2.578 -1.3325  0.1074 -0.1608
  179ccc     C9 7030  10.541   7.384   2.575  0.6855  0.1415  0.5184
  179ccc    H15 7031  10.574   7.360   2.677 -0.5669 -0.5712  0.7809
  179ccc    H16 7032  10.527   7.490   2.552  0.1285  0.0607  0.4614
  179ccc    C10 7033  10.636   7.323   2.480  0.2835  0.1814 -0.5387
  179ccc     O4 7034  10.691   7.221   2.487  0.6253  0.3757  0.1461
  179ccc    C11 7035   9.778   7.940   2.167 -0.2122 -0.4118  0.1543
  179ccc    C12 7036   9.799   7.802   2.101  0.1546 -0.9457  0.6111
  179ccc    H17 7037   9.876   7.986   2.148 -0.4222 -0.6251 -1.6498
  179ccc    C13 7038   9.898   7.715   2.184  0.0933 -0.3205 -0.0084
  179ccc    C14 7039   9.877   7.718   2.337  0.3660 -0.3517  0.3792
  179ccc    C15 7040   9.848   7.863   2.382  1.2252  0.1528 -0.0618
  179ccc    H18 7041   9.787   7.665   2.369  1.1297 -1.3464  0.9479
  179ccc    H19 7042  10.001   7.749   2.166  0.2980  0.7759  2.7723
  179ccc    H20 7043   9.938   7.924   2.373 -0.2605  2.3779 -0.7176
  179ccc     O1 7044   9.810   7.859   2.524 -0.3122  0.4300  0.2031
  179ccc     O6 7045   9.882   7.576   2.151  0.3650 -0.6276  0.5862
  179ccc    C16 7046   9.661   8.028   2.102 -0.5954  0.9439 -0.2032
  179ccc    H21 7047   9.912   7.514   2.219  1.6062 -0.8991 -0.1818
  179ccc    H22 7048  10.054   7.730   2.447  0.9406 -1.5538  1.0348
  179ccc    H23 7049   9.687   8.050   1.998 -1.4558 -0.6148 -0.7932
  179ccc    H24 7050   9.649   8.118   2.162 -2.3501  2.3093 -2.4348
  179ccc     O7 7051   9.542   7.951   2.115 -0.0922  0.1877  0.0473
  179ccc    H25 7052   9.553   7.895   2.036  0.9414 -0.1228  0.4043
  179ccc     O8 7053   9.746   7.925   2.303 -0.1772 -0.0426  0.4680
  179ccc    H26 7054   9.743   7.927   2.545 -0.5915  0.2696 -0.1536
  179ccc    H27 7055   9.704   7.747   2.104  0.0698 -0.7925  0.8240
  179ccc     O9 7056   9.840   7.824   1.970  0.2597 -0.1455  0.9757
  179ccc    H28 7057   9.755   7.819   1.923  0.8471  2.0337 -0.5003
  179ccc     N3 7058   9.992   7.658   2.412 -0.4350  0.0978 -0.0674
  179ccc    C17 7059  10.649   7.670   2.077 -0.0552  0.5730 -0.2474
  179ccc    C18 7060  10.521   7.594   2.064  0.3309 -0.1222 -0.1151
  179ccc    H29 7061  10.731   7.612   2.033 -1.5019 -0.1773 -2.0631
  179ccc    C19 7062  10.533   7.476   2.163 -0.7713  0.2288  0.1734
  179ccc    C20 7063  10.596   7.505   2.300 -0.3315 -0.0399  0.1128
  179ccc    C21 7064  10.702   7.616   2.295  0.5698 -0.5474  0.4882
  179ccc    H30 7065  10.514   7.551   2.356  0.4329  1.8388 -0.2222
  179ccc    H31 7066  10.596   7.399   2.116 -0.3454 -1.6959  3.5481
  179ccc    H32 7067  10.792   7.572   2.252 -0.3633  0.5936 -2.9465
  179ccc    O10 7068  10.723   7.668   2.418 -0.2084  0.0599  0.1696
  179ccc    O11 7069  10.401   7.435   2.182 -0.1191  0.2279  0.3604
  179ccc    C22 7070  10.648   7.788   1.981 -0.7345  0.5096  0.0233
  179ccc    H33 7071  10.369   7.406   2.095  0.2515  1.7257 -0.3047
  179ccc    H34 7072  10.736   7.344   2.305  0.5357  0.7933 -0.6847
  179ccc    H35 7073  10.573   7.864   2.006  0.0646  0.9541  1.1428
  179ccc    H36 7074  10.637   7.744   1.881 -0.3168 -1.3686  0.7842
  179ccc    O12 7075  10.774   7.847   1.985 -0.0178  0.9379 -0.3345
  179ccc    H37 7076  10.776   7.917   2.053  0.0438  1.2684 -0.6701
  179ccc    O13 7077  10.664   7.716   2.208  0.4817 -0.2348  0.1018
  179ccc    H38 7078  10.779   7.746   2.402 -1.1940  0.3460 -2.4366
  179ccc    H39 7079  10.441   7.660   2.100  1.5331  1.0179  0.5489
  179ccc     O5 7080  10.478   7.561   1.931  0.5238  0.3473 -0.4556
  179ccc    H40 7081  10.396   7.509   1.926  0.8517 -0.4107  1.3350
  179ccc     N4 7082  10.661   7.386   2.360 -0.4345 -0.1212 -1.2676
  180ccc     N1 7083  11.549   7.406   4.001 -0.7027  0.0652  0.2965
  180ccc     H4 7084  11.627   7.444   3.948 -0.6422 -1.4414 -0.7647
  180ccc     C3 7085  11.569   7.303   4.115  0.3390  0.2065 -0.0224
  180ccc     H5 7086  11.497   7.221   4.108 -1.8807  2.1005 -0.3656
  180ccc     C4 7087  11.575   7.375   4.253 -0.3568  0.4711 -0.1791
  180ccc     H6 7088  11.665   7.258   4.085 -0.7418 -0.8588 -2.0990
  180ccc     H7 7089  11.487   7.436   4.277 -2.0515 -1.4879 -1.0649
  180ccc     H8 7090  11.657   7.448   4.248 -0.5155  0.9331  2.6361
  180ccc     N2 7091  11.607   7.282   4.360  0.0584 -0.7140  0.4691
  180ccc     C5 7092  11.728   7.202   4.353  0.0933 -0.2568  0.1843
  180ccc     C6 7093  11.575   7.349   4.487 -0.7666 -0.1164 -0.6784
  180ccc     H9 7094  11.646   7.431   4.507 -0.6076 -0.5465  0.5553
  180ccc     C7 7095  11.581   7.248   4.606  0.4660 -0.1593 -0.2885
  180ccc    H10 7096  11.475   7.394   4.482 -0.1954  1.1035 -2.8231
  180ccc    H11 7097  11.687   7.223   4.619  0.8815  1.1390 -1.0168
  180ccc    H12 7098  11.514   7.167   4.572  0.0049  0.9527 -2.1707
  180ccc     C8 7099  11.533   7.297   4.737  0.1380  0.5081  0.3989
  180ccc     O2 7100  11.419   7.304   4.773  0.6170  0.3641  0.0432
  180ccc    H13 7101  11.791   7.203   4.443  0.4561  1.3995 -0.0606
  180ccc    H14 7102  11.797   7.239   4.277  0.8284 -1.9073 -0.0119
  180ccc     C9 7103  11.691   7.059   4.334  0.9409 -0.2902 -0.5747
  180ccc    H15 7104  11.670   7.022   4.435  3.4404 -1.1870 -0.3166
  180ccc    H16 7105  11.602   7.066   4.269 -0.2358  0.5902  1.0610
  180ccc    C10 7106  11.805   6.976   4.279 -0.7047 -0.5366 -0.5060
  180ccc     O4 7107  11.924   7.007   4.282  0.4152  0.1162 -0.0550
  180ccc    C11 7108  11.489   7.349   5.218  0.0587  0.0506 -0.1519
  180ccc    C12 7109  11.569   7.221   5.184 -0.4598 -0.2541  0.5687
  180ccc    H17 7110  11.385   7.338   5.183  0.0922  2.7960 -1.4409
  180ccc    C13 7111  11.585   7.210   5.031  0.0513 -0.3437 -0.2235
  180ccc    C14 7112  11.626   7.347   4.964  0.5959 -0.1084  0.0490
  180ccc    C15 7113  11.538   7.464   5.019  0.0893 -0.1516 -0.3739
  180ccc    H18 7114  11.722   7.377   5.009 -0.3403  2.4257  0.5491
  180ccc    H19 7115  11.495   7.166   4.988  0.0655 -2.4844  1.7424
  180ccc    H20 7116  11.439   7.461   4.971 -0.0216  0.9874 -0.2601
  180ccc     O1 7117  11.594   7.597   4.979  0.3202 -0.3845 -0.8135
  180ccc     O6 7118  11.696   7.121   5.009  0.1739  0.6924  0.1151
  180ccc    C16 7119  11.483   7.373   5.374  0.1768 -0.5495 -0.4939
  180ccc    H21 7120  11.673   7.064   4.934  1.2317 -0.3856  0.5731
  180ccc    H22 7121  11.728   7.306   4.797  1.0154  2.8546  1.0956
  180ccc    H23 7122  11.425   7.291   5.418 -1.9342  0.5761 -1.0201
  180ccc    H24 7123  11.429   7.464   5.401 -0.9491 -1.5124  0.6446
  180ccc     O7 7124  11.612   7.386   5.428  0.3050 -0.2173  0.4950
  180ccc    H25 7125  11.660   7.301   5.429  2.4441  0.8844 -0.9841
  180ccc     O8 7126  11.549   7.467   5.159  0.3554  0.4371 -0.4172
  180ccc    H26 7127  11.535   7.626   4.907  0.8194  1.8551 -0.3916
  180ccc    H27 7128  11.667   7.241   5.227 -1.1516  1.1984  1.5441
  180ccc     O9 7129  11.512   7.097   5.234  0.1262  0.0932 -0.5724
  180ccc    H28 7130  11.584   7.034   5.218 -0.1636 -0.4825  0.3433
  180ccc     N3 7131  11.632   7.334   4.818 -0.1264 -0.0249  0.2634
  180ccc    C17 7132  11.513   6.623   4.005  0.0892  0.0601 -0.3826
  180ccc    C18 7133  11.510   6.586   4.158 -0.5425 -0.0982  0.2687
  180ccc    H29 7134  11.611   6.592   3.967 -0.7379 -3.0315 -0.3177
  180ccc    C19 7135  11.635   6.653   4.229 -0.8557  0.0397 -0.0566
  180ccc    C20 7136  11.650   6.807   4.197 -0.1621  0.2599 -0.5636
  180ccc    C21 7137  11.625   6.828   4.045  0.2826 -1.0896  0.7563
  180ccc    H30 7138  11.568   6.852   4.254 -0.4732  0.2361 -0.9905
  180ccc    H31 7139  11.727   6.608   4.190 -1.0583 -1.5385  1.2224
  180ccc    H32 7140  11.708   6.788   3.984  0.7340  2.1103 -0.9290
  180ccc    O10 7141  11.609   6.963   4.012 -0.6375  0.5818  0.1062
  180ccc    O11 7142  11.624   6.630   4.370 -0.4135  0.1128 -0.1384
  180ccc    C22 7143  11.401   6.563   3.919  0.0575  0.5778  0.3058
  180ccc    H33 7144  11.649   6.537   4.381 -0.1217  0.2800  0.6868
  180ccc    H34 7145  11.854   6.805   4.185  0.0125  0.3017 -0.6049
  180ccc    H35 7146  11.301   6.591   3.955 -1.7927 -1.8410 -2.5118
  180ccc    H36 7147  11.406   6.454   3.921 -1.8084  0.4699  0.8890
  180ccc    O12 7148  11.428   6.597   3.779 -0.3224 -0.1135  0.3703
  180ccc    H37 7149  11.520   6.582   3.753 -0.6836  0.3585 -1.3249
  180ccc    O13 7150  11.504   6.766   3.997 -0.5671  0.3853 -0.2297
  180ccc    H38 7151  11.513   6.979   4.001 -0.3197  2.9610  0.1609
  180ccc    H39 7152  11.414   6.621   4.197 -0.8858 -0.4630 -0.2366
  180ccc     O5 7153  11.518   6.444   4.187 -0.3429 -0.1111 -0.1864
  180ccc    H40 7154  11.459   6.426   4.262 -1.9912  0.4072 -1.2908
  180ccc     N4 7155  11.780   6.855   4.234  0.0681 -0.4537  0.2782
  181ccc     N1 7156  11.896   7.148   3.489  0.3624 -0.4154 -0.0168
  181ccc     H4 7157  11.915   7.179   3.584 -1.4387  0.3863  0.1198
  181ccc     C3 7158  11.969   7.043   3.422  0.0168  0.0598  0.2198
  181ccc     H5 7159  11.924   7.027   3.324 -0.9950 -3.1514  1.1079
  181ccc     C4 7160  11.988   6.916   3.501 -1.1586 -0.7001  0.1420
  181ccc     H6 7161  12.066   7.093   3.406  0.0778  0.5709  1.9376
  181ccc     H7 7162  11.987   6.947   3.607 -0.1301 -1.4033  0.3731
  181ccc     H8 7163  12.088   6.873   3.487 -0.6333 -0.0148  1.5598
  181ccc     N2 7164  11.876   6.821   3.475  0.3652  0.6289  0.0964
  181ccc     C5 7165  11.910   6.684   3.513 -0.4113  0.2040  0.0288
  181ccc     C6 7166  11.755   6.862   3.555 -0.1611  0.5256  0.7012
  181ccc     H9 7167  11.770   6.863   3.663 -0.0472  1.7677  0.6831
  181ccc     C7 7168  11.629   6.789   3.510 -0.5697  0.1476 -0.7023
  181ccc    H10 7169  11.721   6.963   3.529 -2.3922 -0.3656 -0.1554
  181ccc    H11 7170  11.625   6.698   3.571  1.6378 -0.0441 -0.7622
  181ccc    H12 7171  11.646   6.758   3.406 -0.5361  2.2395 -1.3516
  181ccc     C8 7172  11.503   6.873   3.519 -1.4841  0.0930 -0.2418
  181ccc     O2 7173  11.492   6.979   3.462 -0.9044 -0.1877  0.5847
  181ccc    H13 7174  11.829   6.613   3.532 -0.3114  0.1712  0.3446
  181ccc    H14 7175  11.976   6.680   3.601  1.0111  1.0035 -0.9464
  181ccc     C9 7176  11.994   6.631   3.396 -0.2016  0.2627 -0.1074
  181ccc    H15 7177  12.086   6.691   3.382 -0.3636  0.9774  1.6890
  181ccc    H16 7178  11.943   6.632   3.299  1.4602 -1.0017 -1.0469
  181ccc    C10 7179  12.037   6.492   3.419  0.2409  0.0247 -0.6566
  181ccc     O4 7180  12.003   6.429   3.519  0.4268  0.2984 -0.3180
  181ccc    C11 7181  11.102   6.933   3.863 -0.0303 -0.2198  0.4541
  181ccc    C12 7182  11.209   7.044   3.839  0.0690 -0.2034 -1.0834
  181ccc    H17 7183  11.140   6.859   3.934  0.5670  0.8996  1.3162
  181ccc    C13 7184  11.335   6.979   3.774  0.6070 -0.0743  0.1912
  181ccc    C14 7185  11.292   6.896   3.651 -0.2900 -0.2261 -0.0084
  181ccc    C15 7186  11.183   6.795   3.688  0.0599  0.3122 -0.3889
  181ccc    H18 7187  11.229   6.960   3.588  1.0428 -1.1601 -2.4376
  181ccc    H19 7188  11.391   6.915   3.844  0.3470  0.7301  1.1510
  181ccc    H20 7189  11.221   6.722   3.761 -0.7737  0.2599  0.0065
  181ccc     O1 7190  11.137   6.724   3.576  0.2266  0.0919  0.7911
  181ccc     O6 7191  11.420   7.086   3.731 -0.5334 -0.7463  0.0048
  181ccc    C16 7192  10.979   6.995   3.920  0.1326 -0.0147 -0.0776
  181ccc    H21 7193  11.464   7.061   3.647 -0.2793  0.6001 -0.2844
  181ccc    H22 7194  11.431   6.751   3.656  1.5344 -0.8243 -1.1819
  181ccc    H23 7195  10.992   7.020   4.026  2.9722 -2.4518  0.2572
  181ccc    H24 7196  10.898   6.921   3.913  0.9085 -0.7836 -1.4544
  181ccc     O7 7197  10.942   7.110   3.847  0.1423  0.5434 -0.7825
  181ccc    H25 7198  10.854   7.129   3.886 -0.7774  1.4071 -3.0995
  181ccc     O8 7199  11.070   6.864   3.736  0.1582  0.5442 -0.0014
  181ccc    H26 7200  11.122   6.634   3.612  0.1534  1.4528  4.6219
  181ccc    H27 7201  11.170   7.124   3.775 -0.6064 -0.1437 -0.6092
  181ccc     O9 7202  11.255   7.099   3.964 -0.2436 -0.4241 -0.1647
  181ccc    H28 7203  11.275   7.192   3.945  1.3555 -0.9085 -1.0464
  181ccc     N3 7204  11.403   6.825   3.592  0.3842  0.0069  0.2159
  181ccc    C17 7205  12.408   6.521   3.023 -0.8334  0.3423  0.1974
  181ccc    C18 7206  12.264   6.481   2.971 -0.0960 -0.2456 -0.6943
  181ccc    H29 7207  12.465   6.429   3.043 -0.2530  0.6090 -0.1946
  181ccc    C19 7208  12.181   6.418   3.084  0.4948  0.1028 -0.1765
  181ccc    C20 7209  12.181   6.504   3.217 -0.2938 -0.3052 -0.1146
  181ccc    C21 7210  12.334   6.530   3.249  0.2956 -0.6157  0.2258
  181ccc    H30 7211  12.130   6.597   3.188  0.3556  0.5099  1.3054
  181ccc    H31 7212  12.224   6.321   3.112  0.8408  0.6052  1.0984
  181ccc    H32 7213  12.383   6.432   3.255 -0.0646 -0.7696  0.7394
  181ccc    O10 7214  12.347   6.615   3.363 -0.4512  0.2060  0.1313
  181ccc    O11 7215  12.038   6.396   3.043  0.0187  0.0984  0.3040
  181ccc    C22 7216  12.495   6.601   2.920 -0.3330  0.8195 -0.3426
  181ccc    H33 7217  11.993   6.481   3.029 -2.8728 -1.5537 -1.4051
  181ccc    H34 7218  12.158   6.348   3.343  0.3716  0.7434  0.6513
  181ccc    H35 7219  12.467   6.706   2.927  0.2066  0.8701  1.4371
  181ccc    H36 7220  12.474   6.549   2.825 -0.5126 -0.2059  0.2379
  181ccc    O12 7221  12.635   6.586   2.953 -0.0731  0.1363 -0.3888
  181ccc    H37 7222  12.653   6.654   3.020 -0.1019 -1.5455  1.4082
  181ccc    O13 7223  12.393   6.603   3.146 -0.2151  0.2794 -0.5793
  181ccc    H38 7224  12.372   6.701   3.323 -0.0428  0.7042  1.4174
  181ccc    H39 7225  12.217   6.574   2.938  0.2653 -0.0898 -0.7703
  181ccc     O5 7226  12.283   6.394   2.858  0.0982  0.6315 -0.1326
  181ccc    H40 7227  12.304   6.306   2.894 -3.1082  0.2555  1.1936
  181ccc     N4 7228  12.106   6.433   3.322  0.4522  0.6908  0.2275
  182ccc     N1 7229   9.004   7.598   1.355 -0.3698  0.0919  0.5668
  182ccc     H4 7230   8.969   7.676   1.302  0.8945 -0.4933 -1.2282
  182ccc     C3 7231   9.056   7.473   1.289  0.4148 -0.1006 -0.7697
  182ccc     H5 7232   9.152   7.449   1.338 -0.6138 -0.8031  1.0135
  182ccc     C4 7233   9.067   7.462   1.143 -0.4820 -0.0024  0.9765
  182ccc     H6 7234   8.989   7.392   1.323 -0.2056  0.7831  0.1799
  182ccc     H7 7235   8.966   7.447   1.105 -0.0355  1.2418 -0.8212
  182ccc     H8 7236   9.136   7.379   1.121  0.1009  0.3108  1.5682
  182ccc     N2 7237   9.120   7.593   1.082 -0.3726 -0.2092  0.3286
  182ccc     C5 7238   9.133   7.582   0.935 -0.2520 -0.9192 -0.1721
  182ccc     C6 7239   9.241   7.651   1.141 -0.1228 -0.2821 -0.1770
  182ccc     H9 7240   9.229   7.649   1.250 -2.1073 -0.2925 -0.3581
  182ccc     C7 7241   9.283   7.786   1.093 -0.1821  0.6569  0.4730
  182ccc    H10 7242   9.313   7.571   1.123 -1.4771 -1.3707 -0.8859
  182ccc    H11 7243   9.199   7.856   1.107 -1.2870 -0.5750  0.2425
  182ccc    H12 7244   9.319   7.779   0.989 -0.2644  0.8375  0.4311
  182ccc     C8 7245   9.391   7.833   1.185 -0.4687 -0.0818 -0.0085
  182ccc     O2 7246   9.506   7.788   1.190  0.6636 -0.6417  0.2665
  182ccc    H13 7247   9.086   7.488   0.903 -0.5913 -1.0985  0.8142
  182ccc    H14 7248   9.237   7.578   0.900 -1.2770 -0.4500 -3.6768
  182ccc     C9 7249   9.048   7.680   0.868 -0.0171 -0.1117 -1.0065
  182ccc    H15 7250   9.098   7.777   0.879 -2.2020  0.8789  1.3040
  182ccc    H16 7251   8.947   7.687   0.911 -0.8190  0.3540 -2.8436
  182ccc    C10 7252   9.024   7.649   0.724 -0.1735 -1.0654  0.0658
  182ccc     O4 7253   8.926   7.600   0.679  0.2549  0.6518  0.2694
  182ccc    C11 7254   9.658   8.022   1.553 -0.8264 -0.2218  0.1485
  182ccc    C12 7255   9.601   8.130   1.461 -0.0421  0.6697 -0.1683
  182ccc    H17 7256   9.742   7.979   1.498 -0.0674  1.0262  0.2965
  182ccc    C13 7257   9.511   8.072   1.349  0.4363 -0.0421 -0.1319
  182ccc    C14 7258   9.410   7.966   1.392 -0.9780  0.3251  0.1987
  182ccc    C15 7259   9.486   7.858   1.476  0.3600 -0.2383 -0.7838
  182ccc    H18 7260   9.338   8.015   1.458  0.3512  0.7458  1.4039
  182ccc    H19 7261   9.590   8.021   1.292  0.8078 -0.7745  1.0096
  182ccc    H20 7262   9.560   7.798   1.422 -0.4953 -1.3297 -0.7920
  182ccc     O1 7263   9.402   7.761   1.540  0.2953 -0.1756  0.0638
  182ccc     O6 7264   9.436   8.166   1.269  0.4363  0.4021  0.0878
  182ccc    C16 7265   9.710   8.083   1.687 -0.4504 -0.3958 -0.3597
  182ccc    H21 7266   9.489   8.191   1.191  2.0195 -0.2550  0.9136
  182ccc    H22 7267   9.245   7.950   1.267  0.7638 -0.2621 -0.1485
  182ccc    H23 7268   9.793   8.149   1.661 -0.1984 -0.7357 -0.4338
  182ccc    H24 7269   9.742   7.998   1.748 -3.2374 -0.0080  1.8459
  182ccc     O7 7270   9.611   8.150   1.761 -0.1778  0.1294  0.1903
  182ccc    H25 7271   9.529   8.097   1.754  1.9405 -3.6617  1.4724
  182ccc     O8 7272   9.554   7.930   1.586 -0.1064 -0.4606 -0.1913
  182ccc    H26 7273   9.457   7.739   1.617 -0.0620 -1.9077 -0.1202
  182ccc    H27 7274   9.541   8.202   1.519 -0.0757  0.1630  0.4390
  182ccc     O9 7275   9.717   8.201   1.415  0.6492  0.0502  0.0227
  182ccc    H28 7276   9.683   8.272   1.358  0.4884 -0.3031 -0.3252
  182ccc     N3 7277   9.338   7.909   1.278  0.7921 -0.2535 -0.3441
  182ccc    C17 7278   9.290   7.792   0.300  0.0716 -0.0080  0.0782
  182ccc    C18 7279   9.291   7.635   0.319  0.8026  0.5497  0.5105
  182ccc    H29 7280   9.368   7.839   0.362 -1.1137  0.3615  1.3593
  182ccc    C19 7281   9.271   7.602   0.464  0.0196  0.2093  0.6090
  182ccc    C20 7282   9.144   7.672   0.505 -0.7389  0.1140 -0.4671
  182ccc    C21 7283   9.134   7.827   0.476  0.6430  0.3540 -0.6529
  182ccc    H30 7284   9.061   7.615   0.462 -0.7530  0.1223 -0.4515
  182ccc    H31 7285   9.352   7.634   0.531  0.9921 -4.0253  1.7620
  182ccc    H32 7286   9.208   7.876   0.542  0.6226 -0.3678 -0.0847
  182ccc    O10 7287   9.002   7.875   0.495  0.5213 -0.2009  0.6248
  182ccc    O11 7288   9.259   7.458   0.469 -0.1666 -0.6766  0.3625
  182ccc    C22 7289   9.314   7.825   0.153  0.6033 -0.2591  0.5014
  182ccc    H33 7290   9.219   7.425   0.552  0.9877 -1.2560  0.7120
  182ccc    H34 7291   9.215   7.721   0.691  1.4218 -0.2892 -1.4698
  182ccc    H35 7292   9.236   7.779   0.091  0.5235  0.8459 -0.2411
  182ccc    H36 7293   9.411   7.792   0.114  0.7024  0.2459  0.3097
  182ccc    O12 7294   9.312   7.970   0.141  0.3020  0.0425 -0.4160
  182ccc    H37 7295   9.221   8.003   0.140  0.5272  0.7311  0.5553
  182ccc    O13 7296   9.155   7.844   0.337 -0.5720  0.1883  0.3155
  182ccc    H38 7297   8.973   7.890   0.403 -0.3707 -0.2589  0.8832
  182ccc    H39 7298   9.203   7.607   0.259  1.1299  2.4922 -0.9682
  182ccc     O5 7299   9.418   7.588   0.271 -0.3622 -0.1802  0.5534
  182ccc    H40 7300   9.407   7.491   0.275 -0.3322 -0.2056  0.0607
  182ccc     N4 7301   9.136   7.670   0.652  0.3700  0.6729 -0.6553
  183ccc     N1 7302   9.242   8.173   1.961  0.1575  0.1939  0.1161
  183ccc     H4 7303   9.147   8.208   1.969  0.4541  1.4099 -1.3007
  183ccc     C3 7304   9.334   8.221   2.067 -0.4530  0.4214  0.0749
  183ccc     H5 7305   9.437   8.198   2.037 -0.0177  0.3538  1.5581
  183ccc     C4 7306   9.306   8.163   2.200  0.2092 -0.8947  0.4541
  183ccc     H6 7307   9.326   8.330   2.071  1.4261  0.6443 -0.8908
  183ccc     H7 7308   9.368   8.197   2.283 -1.4872 -3.0937  2.7657
  183ccc     H8 7309   9.337   8.059   2.181 -0.8823 -1.1315 -0.1661
  183ccc     N2 7310   9.156   8.167   2.235  0.2960 -0.2191  0.3794
  183ccc     C5 7311   9.131   8.080   2.348 -0.1939 -0.1839 -0.7826
  183ccc     C6 7312   9.114   8.305   2.262 -0.6123  0.3428 -0.1206
  183ccc     H9 7313   9.142   8.324   2.367 -0.2449  0.5612 -0.2547
  183ccc     C7 7314   8.971   8.328   2.243 -0.2100  0.2423  0.0638
  183ccc    H10 7315   9.180   8.372   2.206 -1.5962 -0.3227 -2.1791
  183ccc    H11 7316   8.967   8.438   2.238  1.6163  0.2561 -3.0263
  183ccc    H12 7317   8.911   8.300   2.331 -0.0633 -0.5621 -0.0900
  183ccc     C8 7318   8.912   8.273   2.121 -0.4500  0.1599  0.3476
  183ccc     O2 7319   8.965   8.280   2.013  0.4691  0.1140  0.4748
  183ccc    H13 7320   9.037   8.104   2.399  1.7521  1.9711  2.1519
  183ccc    H14 7321   9.197   8.087   2.436 -0.5864 -0.9776 -0.4129
  183ccc     C9 7322   9.132   7.933   2.299  0.7894 -0.7459  0.4365
  183ccc    H15 7323   9.216   7.892   2.241  0.5886 -1.6915  0.8015
  183ccc    H16 7324   9.039   7.921   2.243  0.5672  0.8790  0.4008
  183ccc    C10 7325   9.126   7.854   2.429 -0.3353  0.0611  0.1599
  183ccc     O4 7326   9.020   7.828   2.483  0.1578 -0.4282 -0.1414
  183ccc    C11 7327   8.713   7.957   1.800 -0.5735 -0.0580 -0.1886
  183ccc    C12 7328   8.728   7.887   1.940  0.0859 -0.4848 -0.6718
  183ccc    H17 7329   8.810   7.973   1.750 -0.8515 -0.7605 -0.9936
  183ccc    C13 7330   8.782   7.989   2.043 -0.1371 -0.7612  0.1432
  183ccc    C14 7331   8.724   8.131   2.038  0.1279 -0.1231 -0.3428
  183ccc    C15 7332   8.718   8.185   1.894 -0.2578  0.6341 -0.6059
  183ccc    H18 7333   8.619   8.121   2.070 -0.4222 -0.5099 -2.1547
  183ccc    H19 7334   8.887   8.014   2.020 -0.9023  1.1286 -1.6347
  183ccc    H20 7335   8.816   8.205   1.849 -1.0900 -1.4293 -3.5897
  183ccc     O1 7336   8.641   8.305   1.893  0.5066  0.4353 -0.3819
  183ccc     O6 7337   8.765   7.930   2.172 -0.0814 -0.4049 -0.5519
  183ccc    C16 7338   8.632   7.874   1.695 -0.0526  0.3742  0.0136
  183ccc    H21 7339   8.784   7.835   2.160 -2.9317 -1.4111  1.7490
  183ccc    H22 7340   8.768   8.178   2.229 -0.6567 -1.8663 -0.9344
  183ccc    H23 7341   8.687   7.789   1.653 -1.3492  0.9537 -3.1397
  183ccc    H24 7342   8.626   7.942   1.609 -0.4914  3.2784  2.1982
  183ccc     O7 7343   8.504   7.826   1.744 -0.0596  0.1314  0.0003
  183ccc    H25 7344   8.518   7.742   1.791  0.2767 -0.2189 -0.7152
  183ccc     O8 7345   8.647   8.088   1.820 -0.2576  0.0043  1.2222
  183ccc    H26 7346   8.665   8.352   1.974 -0.8244 -0.8024  0.7834
  183ccc    H27 7347   8.632   7.856   1.983 -0.1049  0.9792  0.0280
  183ccc     O9 7348   8.825   7.784   1.930 -0.4547 -0.3138  0.1335
  183ccc    H28 7349   8.800   7.704   1.881  0.3051 -0.2791 -0.3099
  183ccc     N3 7350   8.790   8.223   2.140  0.3275  0.1188  0.2322
  183ccc    C17 7351   9.139   7.468   2.753 -0.0648  0.8184  0.1112
  183ccc    C18 7352   9.221   7.437   2.620  0.0442  0.4991  0.0366
  183ccc    H29 7353   9.033   7.477   2.726  0.2852  1.9730 -0.9652
  183ccc    C19 7354   9.225   7.549   2.511 -0.2363  0.6633 -0.2288
  183ccc    C20 7355   9.250   7.684   2.575  0.0388  0.0457 -0.5780
  183ccc    C21 7356   9.171   7.698   2.706 -0.0526 -0.4074 -0.1740
  183ccc    H30 7357   9.354   7.674   2.609 -0.2089 -3.2637 -0.5080
  183ccc    H31 7358   9.123   7.557   2.470 -1.6798  0.2134  2.9613
  183ccc    H32 7359   9.066   7.708   2.677  0.0364  0.5748 -0.2026
  183ccc    O10 7360   9.217   7.816   2.769 -0.1129 -0.4387  0.2524
  183ccc    O11 7361   9.330   7.533   2.413  0.3918  0.5216 -0.1250
  183ccc    C22 7362   9.145   7.357   2.858  0.0318 -0.3581  0.5600
  183ccc    H33 7363   9.415   7.578   2.426 -0.0468  0.9132  1.6781
  183ccc    H34 7364   9.329   7.814   2.413  1.3611  0.1013  0.8902
  183ccc    H35 7365   9.098   7.262   2.829 -1.7403 -0.1053  2.4255
  183ccc    H36 7366   9.093   7.385   2.950 -0.8396 -1.7051  0.5025
  183ccc    O12 7367   9.280   7.326   2.904  0.2216 -0.2577 -0.1591
  183ccc    H37 7368   9.299   7.396   2.969  0.4781  2.4315 -2.9281
  183ccc    O13 7369   9.192   7.594   2.802  0.2393 -0.2133 -0.2008
  183ccc    H38 7370   9.181   7.806   2.859  3.7388 -1.9505  1.8546
  183ccc    H39 7371   9.312   7.389   2.658 -2.2344 -2.1878  2.5843
  183ccc     O5 7372   9.138   7.339   2.552 -0.1962  0.2482 -0.6463
  183ccc    H40 7373   9.185   7.300   2.476 -0.5016  1.3579 -1.4371
  183ccc     N4 7374   9.245   7.803   2.470  0.5751 -0.6211 -0.3597
  184ccc     N1 7375   9.393   9.082   2.428  0.7114 -0.0006 -0.7497
  184ccc     H4 7376   9.321   9.152   2.413 -0.1497  0.0596  2.6989
  184ccc     C3 7377   9.521   9.131   2.475 -0.4844  0.1251  0.0528
  184ccc     H5 7378   9.513   9.210   2.551  2.3659  1.0726 -0.5198
  184ccc     C4 7379   9.611   9.190   2.368 -0.4042 -0.0504  0.5216
  184ccc     H6 7380   9.572   9.050   2.529  1.3006  0.9927 -0.2712
  184ccc     H7 7381   9.657   9.102   2.323 -2.2951 -0.3565 -0.9434
  184ccc     H8 7382   9.678   9.261   2.419 -2.0090  2.6579 -0.8871
  184ccc     N2 7383   9.538   9.276   2.275 -0.4223 -0.1145 -0.0248
  184ccc     C5 7384   9.495   9.397   2.343 -0.4807  0.2756  0.1369
  184ccc     C6 7385   9.623   9.298   2.155  0.2232  0.5922  0.0737
  184ccc     H9 7386   9.567   9.374   2.098 -0.2162  0.7583  0.7132
  184ccc     C7 7387   9.636   9.169   2.068  0.2448 -0.0826 -0.5091
  184ccc    H10 7388   9.725   9.338   2.166 -0.3512  2.1595  0.0321
  184ccc    H11 7389   9.534   9.140   2.040 -0.9246 -1.7038  4.4710
  184ccc    H12 7390   9.681   9.084   2.120  0.7518  0.2872 -0.3333
  184ccc     C8 7391   9.721   9.202   1.948 -0.0293  0.0387 -0.1406
  184ccc     O2 7392   9.712   9.303   1.879 -0.5746  0.3463  0.6082
  184ccc    H13 7393   9.434   9.378   2.433 -1.1830  1.8614  0.0407
  184ccc    H14 7394   9.432   9.454   2.274 -2.3707 -0.6074  1.0501
  184ccc     C9 7395   9.607   9.489   2.389  0.4958  0.0374  0.0441
  184ccc    H15 7396   9.664   9.530   2.305  0.6652  0.4459  0.3510
  184ccc    H16 7397   9.670   9.446   2.468 -1.1542  0.0310  1.4206
  184ccc    C10 7398   9.548   9.602   2.474 -0.0427 -0.1910 -0.5043
  184ccc     O4 7399   9.429   9.625   2.491 -0.0634 -0.0453 -0.3557
  184ccc    C11 7400  10.126   9.302   1.675  0.3259  0.1873  0.4382
  184ccc    C12 7401  10.157   9.288   1.828 -0.9248 -0.5229  1.0397
  184ccc    H17 7402  10.063   9.391   1.663  1.9228  1.5249  1.4476
  184ccc    C13 7403  10.034   9.254   1.916 -0.3800  0.3584  0.0078
  184ccc    C14 7404   9.945   9.137   1.857 -0.2565 -0.3631 -0.3967
  184ccc    C15 7405   9.917   9.162   1.708 -0.5370  0.1408  0.1474
  184ccc    H18 7406  10.002   9.043   1.857  1.1435  0.4273 -1.9608
  184ccc    H19 7407   9.978   9.346   1.937 -1.5835  0.0361 -1.6163
  184ccc    H20 7408   9.858   9.254   1.697 -0.2839  0.6123  2.2597
  184ccc     O1 7409   9.855   9.053   1.642  0.1110 -1.2427 -0.2606
  184ccc     O6 7410  10.075   9.209   2.043  0.0855 -0.0713  0.2763
  184ccc    C16 7411  10.246   9.306   1.579 -1.1340 -0.4065  0.0282
  184ccc    H21 7412  10.003   9.233   2.103 -0.2801 -0.0531 -0.1662
  184ccc    H22 7413   9.828   9.038   1.997 -1.4970  0.1148  0.3247
  184ccc    H23 7414  10.298   9.209   1.572 -0.3702  0.0889 -1.8058
  184ccc    H24 7415  10.315   9.381   1.620  1.4460 -2.5368 -0.1618
  184ccc     O7 7416  10.206   9.346   1.444  0.2240  0.2623 -0.1983
  184ccc    H25 7417  10.286   9.330   1.391  0.0036 -0.0635 -0.4366
  184ccc     O8 7418  10.043   9.185   1.639  0.0210 -0.3731  0.3754
  184ccc    H26 7419   9.915   8.976   1.636  0.8288 -0.7152  0.0141
  184ccc    H27 7420  10.230   9.206   1.828  3.2778  2.8198 -0.6442
  184ccc     O9 7421  10.232   9.401   1.873 -0.2683 -0.3459  0.0313
  184ccc    H28 7422  10.326   9.394   1.849  0.0768 -0.8557  1.4261
  184ccc     N3 7423   9.823   9.117   1.933  0.0737  0.1430  0.2137
  184ccc    C17 7424  10.051   9.804   2.551  0.7365  0.6347 -0.8726
  184ccc    C18 7425  10.004   9.691   2.646  0.5144 -0.5129 -0.2654
  184ccc    H29 7426  10.025   9.901   2.595  2.3269  0.6483  0.1288
  184ccc    C19 7427   9.851   9.679   2.646  0.8450 -0.2459 -0.2538
  184ccc    C20 7428   9.786   9.691   2.505  0.1423  0.3566 -0.5060
  184ccc    C21 7429   9.836   9.818   2.431 -0.5600 -0.4832 -0.0060
  184ccc    H30 7430   9.812   9.608   2.438 -1.8847 -0.6087 -0.1824
  184ccc    H31 7431   9.817   9.758   2.714 -3.0962 -0.8300 -1.3029
  184ccc    H32 7432   9.811   9.910   2.486 -1.4211 -0.2024 -0.8509
  184ccc    O10 7433   9.795   9.847   2.299 -0.3559 -0.5820 -0.8070
  184ccc    O11 7434   9.813   9.554   2.697  0.0164  0.2007  0.0569
  184ccc    C22 7435  10.202   9.815   2.517  0.4818  0.0609  0.5054
  184ccc    H33 7436   9.724   9.564   2.734  0.0003 -0.3729  0.1753
  184ccc    H34 7437   9.616   9.765   2.589  1.6808 -0.0043  0.0573
  184ccc    H35 7438  10.260   9.847   2.605 -0.4234  2.9549  0.1233
  184ccc    H36 7439  10.208   9.897   2.445  1.1718 -0.7617 -0.4145
  184ccc    O12 7440  10.247   9.697   2.460 -0.0941  0.5980  0.2884
  184ccc    H37 7441  10.204   9.684   2.374 -0.8672 -0.7207  0.8435
  184ccc    O13 7442   9.975   9.806   2.430 -0.4066  0.1852  0.4879
  184ccc    H38 7443   9.699   9.859   2.305 -0.3989 -1.1971 -0.1682
  184ccc    H39 7444  10.055   9.599   2.615 -0.9268 -1.4534  0.0661
  184ccc     O5 7445  10.047   9.728   2.779 -0.2032 -0.4693 -0.0537
  184ccc    H40 7446  10.032   9.654   2.840 -0.6489 -2.3326 -2.2753
  184ccc     N4 7447   9.640   9.688   2.526 -0.1299 -0.6613  0.0851
  185ccc     N1 7448   8.834   9.232   2.117 -0.4818 -0.0454  0.0101
  185ccc     H4 7449   8.854   9.193   2.208 -0.3994  0.2805  0.1320
  185ccc     C3 7450   8.772   9.360   2.114 -0.1033 -0.0741  0.6159
  185ccc     H5 7451   8.847   9.431   2.150  0.1616 -1.1677  2.3315
  185ccc     C4 7452   8.638   9.378   2.184  0.6105 -0.2382 -0.1009
  185ccc     H6 7453   8.751   9.375   2.007 -2.8569 -1.4233  0.8628
  185ccc     H7 7454   8.563   9.315   2.134  0.9229 -0.0393 -0.8340
  185ccc     H8 7455   8.605   9.483   2.187 -1.0372 -0.7458  0.8857
  185ccc     N2 7456   8.643   9.344   2.327  0.1335 -0.5631 -0.6543
  185ccc     C5 7457   8.645   9.198   2.352  0.1775  0.4190  0.1043
  185ccc     C6 7458   8.743   9.422   2.406  0.2881  0.5867  0.5890
  185ccc     H9 7459   8.748   9.387   2.509  2.0714  1.0119  0.6841
  185ccc     C7 7460   8.699   9.571   2.422 -0.5336 -0.2800 -0.0816
  185ccc    H10 7461   8.845   9.431   2.366  0.5484  0.6865  1.2659
  185ccc    H11 7462   8.597   9.582   2.462 -0.3015 -1.1153  0.7768
  185ccc    H12 7463   8.706   9.619   2.324 -0.0454  1.0466  0.5648
  185ccc     C8 7464   8.799   9.656   2.510 -0.0788  0.5711  0.1558
  185ccc     O2 7465   8.895   9.617   2.569  0.0413 -0.1292 -0.2944
  185ccc    H13 7466   8.750   9.170   2.368 -0.5363 -1.8576  1.1962
  185ccc    H14 7467   8.617   9.148   2.258  0.9747  1.3876 -0.6795
  185ccc     C9 7468   8.563   9.165   2.480  0.7145  0.8191  0.3506
  185ccc    H15 7469   8.456   9.177   2.460  0.8582 -1.0481 -2.1481
  185ccc    H16 7470   8.595   9.232   2.560 -0.8537  0.1249  1.6078
  185ccc    C10 7471   8.585   9.024   2.525  0.5283 -0.0438 -0.1138
  185ccc     O4 7472   8.506   8.926   2.526 -0.1192 -0.2013  0.1544
  185ccc    C11 7473   8.773  10.113   2.802 -0.2732 -0.0317  0.6469
  185ccc    C12 7474   8.829   9.981   2.858  0.3711  0.0190 -0.1306
  185ccc    H17 7475   8.664  10.121   2.792 -0.3287  1.4150  2.1559
  185ccc    C13 7476   8.802   9.859   2.766  0.1547  0.0380  0.2429
  185ccc    C14 7477   8.829   9.888   2.612 -0.3649  0.2794  0.0080
  185ccc    C15 7478   8.763  10.020   2.583 -0.5663 -0.5270 -0.0368
  185ccc    H18 7479   8.936   9.900   2.590  0.0620  0.3233  1.9003
  185ccc    H19 7480   8.695   9.838   2.779  0.2883 -1.1023 -0.3300
  185ccc    H20 7481   8.655  10.023   2.601 -0.7556  1.3018 -1.2350
  185ccc     O1 7482   8.792  10.060   2.451  0.1997 -0.2713 -0.0411
  185ccc     O6 7483   8.866   9.740   2.808 -0.2010  0.0271 -0.7726
  185ccc    C16 7484   8.823  10.236   2.888  0.0048  1.1281  0.3846
  185ccc    H21 7485   8.870   9.692   2.723  2.6293  0.4288 -0.9779
  185ccc    H22 7486   8.673   9.814   2.500 -1.2440 -0.9998  1.4481
  185ccc    H23 7487   8.931  10.223   2.905 -0.0177  1.0605  0.4799
  185ccc    H24 7488   8.777  10.235   2.987 -1.4354  0.2178 -0.2562
  185ccc     O7 7489   8.794  10.359   2.827 -0.3984  0.0139 -0.6031
  185ccc    H25 7490   8.785  10.343   2.732  0.0241 -1.5903 -0.4052
  185ccc     O8 7491   8.823  10.125   2.667 -0.1166  0.1262  0.2297
  185ccc    H26 7492   8.882  10.031   2.429 -0.1510 -1.2616 -0.2661
  185ccc    H27 7493   8.937  10.000   2.863  0.2240  1.5984 -1.7852
  185ccc     O9 7494   8.772   9.961   2.989 -0.2332  0.8491 -0.4760
  185ccc    H28 7495   8.781   9.867   3.012  1.0704  1.5190  2.1907
  185ccc     N3 7496   8.765   9.782   2.530 -0.9445 -0.4898  1.0951
  185ccc    C17 7497   8.888   8.627   2.613  0.0993 -0.7343  0.2632
  185ccc    C18 7498   8.963   8.728   2.518 -0.0943  0.8741 -0.8876
  185ccc    H29 7499   8.810   8.575   2.556 -1.8335 -0.1724  2.2573
  185ccc    C19 7500   8.858   8.843   2.481 -0.3722 -0.2929  1.1642
  185ccc    C20 7501   8.791   8.902   2.609  0.5180  0.0064 -0.7157
  185ccc    C21 7502   8.729   8.785   2.693 -0.0977  0.8205  0.1331
  185ccc    H30 7503   8.875   8.941   2.668  2.7251 -1.4236 -2.7509
  185ccc    H31 7504   8.781   8.797   2.418  0.0401 -0.1281  0.5409
  185ccc    H32 7505   8.665   8.720   2.632  1.5863 -0.4065 -0.4123
  185ccc    O10 7506   8.661   8.829   2.805 -0.5332 -0.1413  0.6637
  185ccc    O11 7507   8.911   8.941   2.391 -0.4027  0.2416 -0.2723
  185ccc    C22 7508   8.991   8.528   2.673  0.5229 -0.3344  0.0814
  185ccc    H33 7509   8.927   9.022   2.442 -1.1117 -0.9274  1.9692
  185ccc    H34 7510   8.764   9.097   2.568  1.0043  0.2780 -0.9414
  185ccc    H35 7511   9.016   8.462   2.589  2.1903 -0.5790  0.7222
  185ccc    H36 7512   8.951   8.470   2.757  1.4261 -0.1467  0.6615
  185ccc    O12 7513   9.113   8.590   2.717  0.3747  0.1604 -0.4410
  185ccc    H37 7514   9.086   8.658   2.781 -1.4460 -0.1950 -0.7987
  185ccc    O13 7515   8.837   8.693   2.728  0.8803 -0.7948 -0.5155
  185ccc    H38 7516   8.728   8.866   2.867 -0.1246  0.5252 -0.1520
  185ccc    H39 7517   9.047   8.775   2.571  0.0400 -0.2056 -0.1116
  185ccc     O5 7518   9.002   8.657   2.407 -1.0291  0.4903 -0.1040
  185ccc    H40 7519   8.960   8.705   2.334 -0.8832  0.7402 -0.0249
  185ccc     N4 7520   8.702   9.019   2.587  0.3764  0.7531 -1.0237
  186ccc     N1 7521  10.625   6.867   1.968 -0.5878 -0.2756 -0.2665
  186ccc     H4 7522  10.587   6.793   2.025 -1.1866  0.3788  0.2066
  186ccc     C3 7523  10.762   6.876   1.908 -0.4997  0.4475 -0.6290
  186ccc     H5 7524  10.752   6.896   1.800 -1.8883 -1.2561 -0.8625
  186ccc     C4 7525  10.857   6.763   1.938 -0.5500 -0.1441 -0.7999
  186ccc     H6 7526  10.806   6.968   1.950 -2.1411  1.7005 -1.5028
  186ccc     H7 7527  10.828   6.672   1.885 -1.0849  0.7930 -2.1612
  186ccc     H8 7528  10.843   6.743   2.045 -3.1449 -3.0927 -1.5768
  186ccc     N2 7529  11.003   6.786   1.908  1.0033 -0.1532 -0.1883
  186ccc     C5 7530  11.085   6.683   1.968 -0.3985  0.1243  0.4818
  186ccc     C6 7531  11.032   6.792   1.767 -0.1645  0.5347 -0.8356
  186ccc     H9 7532  11.086   6.708   1.723 -0.2233  0.0847 -0.0659
  186ccc     C7 7533  11.117   6.918   1.746  0.4907 -0.5376  0.3832
  186ccc    H10 7534  10.934   6.789   1.717 -0.5113 -0.7478 -0.1088
  186ccc    H11 7535  11.217   6.903   1.788  0.7981  1.0740  0.3066
  186ccc    H12 7536  11.069   7.008   1.786 -0.0558 -0.7838  0.2928
  186ccc     C8 7537  11.120   6.939   1.600  0.2224 -0.8130 -0.1868
  186ccc     O2 7538  11.026   6.914   1.528  0.2338  0.2433  0.6774
  186ccc    H13 7539  11.063   6.584   1.927 -2.7338  0.6084  0.4213
  186ccc    H14 7540  11.060   6.696   2.075 -2.6001 -1.3003  0.2185
  186ccc     C9 7541  11.238   6.715   1.955 -1.0633 -0.4539  0.5361
  186ccc    H15 7542  11.264   6.814   1.992  3.4840 -1.5194  0.7172
  186ccc    H16 7543  11.259   6.706   1.848  1.2003  0.1705  0.8946
  186ccc    C10 7544  11.311   6.603   2.026 -0.1890 -0.2793 -0.1242
  186ccc     O4 7545  11.336   6.494   1.978  1.0150 -0.6742  0.7948
  186ccc    C11 7546  11.331   7.248   1.214  1.0134 -0.3560  0.1168
  186ccc    C12 7547  11.418   7.123   1.232  0.1389  0.0241  0.1390
  186ccc    H17 7548  11.372   7.331   1.274  0.1624  1.0406 -1.1725
  186ccc    C13 7549  11.396   7.062   1.375  0.1348  0.3243 -0.7507
  186ccc    C14 7550  11.242   7.050   1.411  0.1128  0.0144 -0.5104
  186ccc    C15 7551  11.173   7.185   1.390  0.1772  0.2739 -0.2326
  186ccc    H18 7552  11.194   6.986   1.336 -1.2557  0.5249 -0.0849
  186ccc    H19 7553  11.441   7.130   1.448  1.0730  0.9031 -1.8490
  186ccc    H20 7554  11.203   7.269   1.454 -2.1287  0.6333  0.4643
  186ccc     O1 7555  11.039   7.160   1.409  0.6437 -0.2932  0.1596
  186ccc     O6 7556  11.459   6.937   1.382 -0.3669  0.4913 -0.5074
  186ccc    C16 7557  11.317   7.301   1.071  0.0057  0.0811  0.5474
  186ccc    H21 7558  11.426   6.876   1.314  2.3280 -2.1940  0.3963
  186ccc    H22 7559  11.304   7.019   1.616 -0.7016 -3.0245  1.3275
  186ccc    H23 7560  11.270   7.226   1.005  1.4159  1.0704 -1.6982
  186ccc    H24 7561  11.421   7.310   1.037  0.2098 -0.2187  1.0783
  186ccc     O7 7562  11.240   7.425   1.069  0.1354 -0.2310  0.3233
  186ccc    H25 7563  11.153   7.395   1.099 -0.7871  0.0803 -1.8032
  186ccc     O8 7564  11.195   7.216   1.257  0.0357 -0.3174  0.7918
  186ccc    H26 7565  11.039   7.076   1.458  0.3111 -0.0628  0.5630
  186ccc    H27 7566  11.391   7.050   1.155 -0.3710  0.2685  0.0836
  186ccc     O9 7567  11.558   7.144   1.204 -0.4394 -0.3343 -0.0953
  186ccc    H28 7568  11.556   7.150   1.107 -1.3325  1.0245 -0.0147
  186ccc     N3 7569  11.229   6.999   1.549 -0.5461 -0.7785  0.3735
  186ccc    C17 7570  11.693   6.786   2.356  0.3539 -0.1412  0.0942
  186ccc    C18 7571  11.698   6.783   2.199  0.2625 -0.3508  0.5302
  186ccc    H29 7572  11.725   6.689   2.398  2.1790  0.3772  0.0117
  186ccc    C19 7573  11.587   6.689   2.147 -0.2602 -1.0991  1.2469
  186ccc    C20 7574  11.448   6.713   2.204  0.3712 -0.6466  0.4869
  186ccc    C21 7575  11.454   6.714   2.357 -0.0882 -0.2201  0.0072
  186ccc    H30 7576  11.409   6.813   2.181 -1.4177 -1.5618 -0.7686
  186ccc    H31 7577  11.612   6.585   2.171 -0.3422 -1.1744  1.0080
  186ccc    H32 7578  11.476   6.611   2.390  0.9402  0.1143  0.4217
  186ccc    O10 7579  11.345   6.760   2.431  0.4351 -0.8075  0.7353
  186ccc    O11 7580  11.594   6.710   2.007 -0.0802  0.2868  0.0392
  186ccc    C22 7581  11.788   6.898   2.407 -0.0880  0.0209 -0.1306
  186ccc    H33 7582  11.595   6.804   1.984 -0.3226  0.0865 -0.8248
  186ccc    H34 7583  11.378   6.531   2.200  0.1362  0.3210  1.0705
  186ccc    H35 7584  11.731   6.990   2.420  0.4326  0.9978 -3.6189
  186ccc    H36 7585  11.864   6.918   2.331  1.5130  1.1394  1.7018
  186ccc    O12 7586  11.847   6.857   2.531 -0.0358 -0.1788  0.3828
  186ccc    H37 7587  11.889   6.935   2.570 -0.9063 -0.2599  1.5701
  186ccc    O13 7588  11.559   6.812   2.394  0.3639 -0.0444  0.0401
  186ccc    H38 7589  11.266   6.715   2.394  1.5722 -1.4954 -1.0113
  186ccc    H39 7590  11.672   6.883   2.163  1.1150 -0.7146 -1.2114
  186ccc     O5 7591  11.827   6.741   2.142  0.4226  0.1805  0.0210
  186ccc    H40 7592  11.824   6.773   2.050 -1.0327  0.7680  0.2380
  186ccc     N4 7593  11.348   6.618   2.156  0.4277 -0.2970 -0.3979
  187ccc     N1 7594  10.440   6.885   2.610  0.2796  0.2880 -0.0917
  187ccc     H4 7595  10.501   6.833   2.548 -1.1191 -0.8877 -0.5315
  187ccc     C3 7596  10.468   6.893   2.762  0.2009  0.2465  0.0389
  187ccc     H5 7597  10.373   6.936   2.798 -0.9400 -0.2652 -2.1714
  187ccc     C4 7598  10.594   6.968   2.788 -0.1849  1.1237 -0.0582
  187ccc     H6 7599  10.483   6.792   2.803  0.5208  0.6518  0.9435
  187ccc     H7 7600  10.567   7.073   2.770  0.9346  1.5746  0.8173
  187ccc     H8 7601  10.668   6.932   2.715  0.0990  1.2195  0.1837
  187ccc     N2 7602  10.646   6.940   2.922  0.0365 -0.1013  0.0571
  187ccc     C5 7603  10.782   6.989   2.935  0.1760 -0.1996  0.1608
  187ccc     C6 7604  10.547   6.990   3.022 -0.3510  0.5767  0.0191
  187ccc     H9 7605  10.549   7.099   3.029  0.5263  0.4707  1.6653
  187ccc     C7 7606  10.582   6.925   3.159 -0.0896 -0.4054 -0.5653
  187ccc    H10 7607  10.443   6.960   3.000  0.5657 -2.9308 -0.1381
  187ccc    H11 7608  10.689   6.931   3.185  0.2342 -3.1914 -0.8704
  187ccc    H12 7609  10.569   6.816   3.166  5.3885 -1.2509  2.7831
  187ccc     C8 7610  10.490   6.988   3.267 -0.7805  0.1762  0.0552
  187ccc     O2 7611  10.375   6.964   3.297 -0.0758  0.2503 -0.3519
  187ccc    H13 7612  10.815   6.975   3.038  1.2714  0.8692 -0.0221
  187ccc    H14 7613  10.800   7.095   2.911  2.6687 -0.2464  1.5168
  187ccc     C9 7614  10.880   6.913   2.843  0.5738 -0.0315  0.4944
  187ccc    H15 7615  10.867   6.952   2.741  1.1055  1.9296  1.1285
  187ccc    H16 7616  10.862   6.805   2.837  0.4126  0.0403 -0.5847
  187ccc    C10 7617  11.018   6.952   2.887 -0.0644  0.4018  0.4593
  187ccc     O4 7618  11.079   6.890   2.973  0.3690  0.0301  0.7507
  187ccc    C11 7619  10.495   7.289   3.723 -0.1819 -0.3800  0.6168
  187ccc    C12 7620  10.545   7.374   3.601  0.3189  0.2473 -0.5584
  187ccc    H17 7621  10.585   7.260   3.777  0.7481  1.2598  0.0183
  187ccc    C13 7622  10.606   7.285   3.488  0.2899 -0.0838  0.0809
  187ccc    C14 7623  10.504   7.179   3.445  0.0915  0.7711 -0.4276
  187ccc    C15 7624  10.469   7.095   3.573 -0.4316  0.0055  0.0365
  187ccc    H18 7625  10.419   7.239   3.410  0.0834  1.0785  0.1068
  187ccc    H19 7626  10.694   7.229   3.521 -0.4604 -2.2948 -1.4448
  187ccc    H20 7627  10.561   7.050   3.613  0.2552  2.0613  0.9251
  187ccc     O1 7628  10.373   6.991   3.556 -0.9770  0.3206 -0.2117
  187ccc     O6 7629  10.636   7.374   3.384  0.3032  0.4929  0.0999
  187ccc    C16 7630  10.389   7.359   3.809 -0.1677 -0.3604  0.5788
  187ccc    H21 7631  10.554   7.424   3.366  0.4344  0.8632  0.4951
  187ccc    H22 7632  10.643   7.125   3.303  0.9463 -1.1474  1.0341
  187ccc    H23 7633  10.288   7.370   3.767 -0.2529 -1.4883  0.4472
  187ccc    H24 7634  10.422   7.461   3.830 -1.8006  0.3539 -0.1672
  187ccc     O7 7635  10.371   7.292   3.935  0.2913  0.0912 -0.4578
  187ccc    H25 7636  10.380   7.359   4.005  1.0086 -0.1090 -0.3482
  187ccc     O8 7637  10.413   7.182   3.672  0.1263  0.0048 -0.1868
  187ccc    H26 7638  10.325   7.013   3.474 -0.7809 -0.8415 -0.6632
  187ccc    H27 7639  10.461   7.428   3.556  0.2438  1.0169  0.4873
  187ccc     O9 7640  10.650   7.464   3.643  0.0891 -0.0140  0.4208
  187ccc    H28 7641  10.700   7.479   3.561 -2.1766 -3.0197 -1.7597
  187ccc     N3 7642  10.556   7.086   3.338  0.0005  0.2826  0.3799
  187ccc    C17 7643  11.515   7.001   2.854 -0.4317 -0.2171 -0.6929
  187ccc    C18 7644  11.440   6.974   2.724 -0.5174  0.2997  0.5201
  187ccc    H29 7645  11.505   6.913   2.918 -1.7977  0.9024  0.7123
  187ccc    C19 7646  11.282   6.949   2.741 -1.0298  0.0099  0.2021
  187ccc    C20 7647  11.224   7.062   2.826 -0.0882  0.0784 -0.0205
  187ccc    C21 7648  11.303   7.082   2.958  0.0842  0.4533  0.1360
  187ccc    H30 7649  11.239   7.153   2.766 -1.1560 -0.7665 -1.6450
  187ccc    H31 7650  11.282   6.851   2.791 -3.9474 -1.0906 -1.7275
  187ccc    H32 7651  11.294   6.997   3.026  0.4218  0.9548  0.8108
  187ccc    O10 7652  11.268   7.201   3.015 -0.2540 -0.1262  0.1462
  187ccc    O11 7653  11.202   6.930   2.623 -0.6340 -0.4076  0.2892
  187ccc    C22 7654  11.664   7.044   2.831 -0.5843 -0.4570 -0.1223
  187ccc    H33 7655  11.253   6.890   2.551 -2.7441 -0.1244 -1.4675
  187ccc    H34 7656  11.030   7.087   2.744 -1.3823  0.1916  0.0896
  187ccc    H35 7657  11.663   7.125   2.757  1.8172 -0.4821 -0.2582
  187ccc    H36 7658  11.706   6.955   2.783  0.2432 -0.3746  0.4282
  187ccc    O12 7659  11.740   7.086   2.949  0.5794 -0.2862 -0.4562
  187ccc    H37 7660  11.703   7.039   3.025  0.8836 -0.1743 -0.2381
  187ccc    O13 7661  11.445   7.103   2.929  0.3655 -0.0523  0.5653
  187ccc    H38 7662  11.316   7.196   3.099 -0.9730 -1.2236  0.5124
  187ccc    H39 7663  11.461   7.056   2.654  0.0507 -1.1957 -1.1475
  187ccc     O5 7664  11.496   6.856   2.662 -0.4290 -0.1141  0.5841
  187ccc    H40 7665  11.482   6.862   2.566 -2.5101  0.5438  0.8628
  187ccc     N4 7666  11.074   7.055   2.829  0.4156  0.8398 -0.5564
  188ccc     N1 7667   9.578   7.462   1.022 -0.1168  0.8905 -0.1587
  188ccc     H4 7668   9.657   7.479   1.082 -0.4221  0.7759  0.2805
  188ccc     C3 7669   9.567   7.541   0.898  0.1966 -0.2123  0.3021
  188ccc     H5 7670   9.551   7.480   0.808 -1.4401 -1.7328  1.5526
  188ccc     C4 7671   9.681   7.636   0.879  0.2177 -0.1463 -0.0813
  188ccc     H6 7672   9.480   7.606   0.897 -0.0936 -0.5173 -2.2120
  188ccc     H7 7673   9.767   7.591   0.828  1.1896  1.3267  0.1841
  188ccc     H8 7674   9.725   7.652   0.978  0.7762 -2.0674  0.0263
  188ccc     N2 7675   9.633   7.767   0.828 -0.2003 -0.2492 -0.3205
  188ccc     C5 7676   9.595   7.762   0.685  0.3620 -0.7819  0.0864
  188ccc     C6 7677   9.716   7.887   0.859 -0.1455  0.5037  0.2365
  188ccc     H9 7678   9.823   7.866   0.860  0.1850  2.1096  0.6452
  188ccc     C7 7679   9.686   7.942   0.999  0.1201  1.2259 -0.6232
  188ccc    H10 7680   9.694   7.971   0.792  2.4255 -0.3015 -1.7738
  188ccc    H11 7681   9.709   7.856   1.063  1.0255  0.5974 -1.7703
  188ccc    H12 7682   9.579   7.966   1.008 -0.2790 -0.5828 -0.2927
  188ccc     C8 7683   9.762   8.062   1.032  0.0506 -0.1154 -0.5674
  188ccc     O2 7684   9.851   8.060   1.116 -1.0852 -0.0655  0.6284
  188ccc    H13 7685   9.516   7.688   0.666 -1.6838  1.0756  0.9154
  188ccc    H14 7686   9.682   7.735   0.624 -0.3630  0.7277 -1.7031
  188ccc     C9 7687   9.522   7.885   0.639 -0.2425 -0.6949  0.2720
  188ccc    H15 7688   9.485   7.866   0.537  2.0245 -0.2708 -0.6993
  188ccc    H16 7689   9.591   7.967   0.616  0.0179 -0.3401  2.2080
  188ccc    C10 7690   9.408   7.931   0.727  0.8375 -0.0969  0.1790
  188ccc     O4 7691   9.312   7.864   0.760  0.1519  0.0258  0.8483
  188ccc    C11 7692  10.004   8.504   1.088  0.6790 -0.0117  0.4195
  188ccc    C12 7693  10.006   8.453   0.939 -0.1520  0.0779 -0.1451
  188ccc    H17 7694  10.064   8.436   1.150  1.9513  0.3289 -0.3860
  188ccc    C13 7695   9.954   8.310   0.929  0.6633  0.1162 -0.0461
  188ccc    C14 7696   9.810   8.304   0.991  0.5276 -0.1184  0.2318
  188ccc    C15 7697   9.817   8.355   1.139  0.1360  0.1041  0.6310
  188ccc    H18 7698   9.756   8.378   0.930  1.4513  0.7026  0.3888
  188ccc    H19 7699  10.020   8.241   0.982 -2.1210 -2.1229  0.7681
  188ccc    H20 7700   9.878   8.284   1.197  0.7228  0.1165  0.0401
  188ccc     O1 7701   9.687   8.374   1.195  0.5786 -0.1260  0.7355
  188ccc     O6 7702   9.947   8.281   0.791  0.1696  0.2131 -0.4301
  188ccc    C16 7703  10.048   8.650   1.088 -0.1384  0.1206  0.5604
  188ccc    H21 7704   9.977   8.189   0.790 -0.0482  0.1321  0.2162
  188ccc    H22 7705   9.672   8.181   0.897  0.6551  0.3245 -0.3619
  188ccc    H23 7706   9.965   8.700   1.038 -0.7903 -1.6549 -0.2272
  188ccc    H24 7707  10.146   8.656   1.038 -0.3421  0.9753  0.2625
  188ccc     O7 7708  10.053   8.700   1.221 -0.0327 -0.0256  0.1425
  188ccc    H25 7709   9.977   8.679   1.277  0.2934  2.3582  1.6161
  188ccc     O8 7710   9.872   8.484   1.140 -0.1777 -0.1544  0.4731
  188ccc    H26 7711   9.650   8.445   1.140  0.0725 -0.2822  0.8659
  188ccc    H27 7712   9.937   8.512   0.877  0.3109 -0.1954 -0.9492
  188ccc     O9 7713  10.138   8.467   0.874  0.0791  0.0275  0.6269
  188ccc    H28 7714  10.164   8.379   0.843 -0.3357  0.2568 -0.4262
  188ccc     N3 7715   9.740   8.174   0.973  0.2919 -0.4164 -0.0907
  188ccc    C17 7716   9.151   8.386   0.853 -0.2161  0.1753  0.2717
  188ccc    C18 7717   9.087   8.258   0.807  0.6148  0.3320 -0.1859
  188ccc    H29 7718   9.179   8.440   0.762 -2.0138 -0.1273 -0.5098
  188ccc    C19 7719   9.182   8.155   0.747 -0.3677  0.1201 -0.1066
  188ccc    C20 7720   9.312   8.147   0.833 -0.8037 -0.0664  0.1553
  188ccc    C21 7721   9.366   8.289   0.883  0.0837 -0.4065  0.3795
  188ccc    H30 7722   9.289   8.098   0.928 -0.0110  0.2380  0.5129
  188ccc    H31 7723   9.211   8.186   0.646  1.3891  1.4378  0.7574
  188ccc    H32 7724   9.393   8.342   0.791 -1.6399  1.1919  0.7348
  188ccc    O10 7725   9.468   8.274   0.978  0.3432  0.0263  0.1401
  188ccc    O11 7726   9.110   8.028   0.748 -0.4558 -0.2338 -0.6037
  188ccc    C22 7727   9.046   8.475   0.921 -0.2174 -0.5092 -0.0523
  188ccc    H33 7728   9.172   7.954   0.734 -1.3221 -1.1667  0.2987
  188ccc    H34 7729   9.493   8.118   0.726  1.0192 -1.1697 -1.0017
  188ccc    H35 7730   9.021   8.433   1.018 -0.3223 -1.8942 -0.6581
  188ccc    H36 7731   8.960   8.492   0.854  0.8340  2.0589 -0.8828
  188ccc    O12 7732   9.090   8.609   0.946  0.2173  0.1179  0.2195
  188ccc    H37 7733   9.182   8.609   0.977 -0.1379  2.5283  1.5279
  188ccc    O13 7734   9.265   8.375   0.942  0.2756  0.3479  0.6056
  188ccc    H38 7735   9.479   8.360   1.022  1.7239 -0.8300  1.5718
  188ccc    H39 7736   9.038   8.217   0.896  0.6551  0.0535 -0.2900
  188ccc     O5 7737   8.981   8.274   0.719 -0.4059 -0.1128 -0.0729
  188ccc    H40 7738   8.942   8.185   0.720  1.5568 -1.0813 -1.5885
  188ccc     N4 7739   9.419   8.059   0.763  0.0676  0.1506 -0.7424
  189ccc     N1 7740   9.427   6.874   1.718  0.1778  0.0093 -0.6981
  189ccc     H4 7741   9.476   6.950   1.764 -2.7238  0.0224  2.7741
  189ccc     C3 7742   9.366   6.762   1.801  0.4339  0.3599  0.3989
  189ccc     H5 7743   9.257   6.763   1.790  0.2968 -1.6049  1.1564
  189ccc     C4 7744   9.403   6.763   1.949  0.0889  0.1766 -0.2022
  189ccc     H6 7745   9.391   6.662   1.764 -0.2759 -0.0513  0.9863
  189ccc     H7 7746   9.512   6.753   1.944  0.3678  1.8908  1.4402
  189ccc     H8 7747   9.355   6.679   2.002  0.1231  0.0905 -0.3081
  189ccc     N2 7748   9.372   6.891   2.013 -0.4700  0.4335 -0.1336
  189ccc     C5 7749   9.232   6.920   2.005 -0.5355 -0.2090 -0.5623
  189ccc     C6 7750   9.425   6.879   2.154  0.0686  0.6624  0.7553
  189ccc     H9 7751   9.380   6.960   2.213 -1.8066  0.2761 -0.0585
  189ccc     C7 7752   9.572   6.895   2.156  0.3063 -0.2934  0.3891
  189ccc    H10 7753   9.396   6.786   2.204  1.5034 -0.6474 -0.7694
  189ccc    H11 7754   9.608   6.999   2.159 -0.5136 -0.0246  1.8083
  189ccc    H12 7755   9.617   6.856   2.064 -1.5560  1.3945 -1.3462
  189ccc     C8 7756   9.640   6.834   2.267 -0.0504 -0.0796  0.1467
  189ccc     O2 7757   9.602   6.735   2.332  0.0077 -0.1714 -0.1982
  189ccc    H13 7758   9.176   6.832   2.040  1.7247 -1.8021 -0.7361
  189ccc    H14 7759   9.207   6.936   1.899 -3.3427 -0.9688 -0.1033
  189ccc     C9 7760   9.183   7.045   2.080  0.2093  0.3681 -0.8500
  189ccc    H15 7761   9.253   7.129   2.068 -0.0327  0.3328 -2.9011
  189ccc    H16 7762   9.165   7.031   2.187  1.9838 -0.6911 -0.6597
  189ccc    C10 7763   9.051   7.077   2.016 -0.2964  0.2125 -0.8802
  189ccc     O4 7764   8.963   6.994   1.995 -0.2692  0.0031  0.5873
  189ccc    C11 7765   9.913   6.685   2.658  0.3904  0.9583 -0.1002
  189ccc    C12 7766   9.995   6.681   2.534 -0.9420 -0.6338  0.4668
  189ccc    H17 7767   9.840   6.604   2.644  1.3288  0.0017  0.3330
  189ccc    C13 7768   9.922   6.709   2.400  0.2052  0.0825 -0.2860
  189ccc    C14 7769   9.842   6.841   2.424  0.0548  0.3197  0.4646
  189ccc    C15 7770   9.761   6.843   2.564 -0.0513 -0.3296  1.4551
  189ccc    H18 7771   9.927   6.907   2.443  1.1883 -1.1752  0.7705
  189ccc    H19 7772   9.858   6.622   2.379  1.2238 -0.4573 -1.2906
  189ccc    H20 7773   9.678   6.772   2.567 -1.2886  1.0897  2.6361
  189ccc     O1 7774   9.707   6.971   2.596 -0.0454 -0.4352  0.0932
  189ccc     O6 7775  10.009   6.733   2.291 -0.4341  0.1090  0.5827
  189ccc    C16 7776   9.987   6.644   2.791  0.1516  0.1772  1.1510
  189ccc    H21 7777  10.038   6.647   2.256  1.2570  0.5070  0.9502
  189ccc    H22 7778   9.787   6.985   2.279  0.8747  0.6509  2.0974
  189ccc    H23 7779   9.994   6.534   2.793  1.2632  0.1807 -0.6199
  189ccc    H24 7780   9.919   6.670   2.873 -0.2384  0.6331  0.6854
  189ccc     O7 7781  10.112   6.717   2.815  0.5237 -0.6114  0.5122
  189ccc    H25 7782  10.183   6.671   2.766 -0.2820 -0.0717 -1.2227
  189ccc     O8 7783   9.848   6.811   2.671 -0.5520  0.2607  0.2139
  189ccc    H26 7784   9.789   7.022   2.606 -0.2067 -0.2332  0.3830
  189ccc    H27 7785  10.067   6.763   2.552 -1.3711  0.5369 -2.5834
  189ccc     O9 7786  10.062   6.552   2.519 -0.2898  0.0172  0.1936
  189ccc    H28 7787  10.109   6.543   2.435  1.6249  1.9477  0.9620
  189ccc     N3 7788   9.757   6.891   2.302 -0.2504  0.3574 -0.1980
  189ccc    C17 7789   9.188   7.603   1.970  0.2253  0.2555 -0.6386
  189ccc    C18 7790   9.190   7.525   2.102  0.0192 -0.3250  0.2850
  189ccc    H29 7791   9.101   7.670   1.973  0.0203  0.0654 -1.7564
  189ccc    C19 7792   9.102   7.402   2.112  0.1447  0.1344 -0.0442
  189ccc    C20 7793   9.108   7.321   1.981  0.2262  0.1417  0.5704
  189ccc    C21 7794   9.072   7.418   1.865 -0.0595 -0.2437  0.4746
  189ccc    H30 7795   9.211   7.286   1.966 -0.0911 -0.0645 -1.3204
  189ccc    H31 7796   9.002   7.448   2.111 -0.3838 -0.8030 -3.7694
  189ccc    H32 7797   8.978   7.471   1.882 -0.6140 -0.3200 -2.0425
  189ccc    O10 7798   9.062   7.354   1.741 -0.4056  0.4759 -0.0386
  189ccc    O11 7799   9.130   7.322   2.230  0.2089 -0.0924  0.1126
  189ccc    C22 7800   9.312   7.699   1.948 -0.1786 -0.6188  0.2450
  189ccc    H33 7801   9.046   7.274   2.242  0.9722 -2.1083 -1.8820
  189ccc    H34 7802   8.913   7.225   1.966 -0.7417 -0.6340 -0.0499
  189ccc    H35 7803   9.301   7.795   1.999 -0.8900 -0.3353 -0.4407
  189ccc    H36 7804   9.303   7.716   1.841  0.7882 -2.3370 -0.1571
  189ccc    O12 7805   9.432   7.629   1.980 -0.3612 -0.0770 -0.0163
  189ccc    H37 7806   9.493   7.652   1.908 -1.3303  1.6888 -0.3225
  189ccc    O13 7807   9.182   7.514   1.852  0.4194 -0.0226  0.5077
  189ccc    H38 7808   9.050   7.427   1.677  0.0105  1.2734  0.7885
  189ccc    H39 7809   9.291   7.486   2.123  0.8793  0.6158 -1.8709
  189ccc     O5 7810   9.145   7.624   2.199 -0.0521 -0.2111 -0.0587
  189ccc    H40 7811   9.188   7.595   2.281  0.7489  0.9081 -0.0639
  189ccc     N4 7812   9.012   7.201   1.979 -0.6851 -0.2274  0.2683
  190ccc     N1 7813  13.054   6.259   1.335 -0.5623 -0.3128  0.4061
  190ccc     H4 7814  12.998   6.330   1.380  1.8119  1.8864  0.1629
  190ccc     C3 7815  13.140   6.181   1.424  0.1850 -0.3796  0.0249
  190ccc     H5 7816  13.098   6.081   1.411  0.5836 -0.4507 -0.7737
  190ccc     C4 7817  13.139   6.218   1.574  0.1824  0.1268  0.6555
  190ccc     H6 7818  13.242   6.170   1.385  0.2143  1.5128 -0.5313
  190ccc     H7 7819  13.217   6.163   1.628  0.6536  0.1566  0.0183
  190ccc     H8 7820  13.043   6.180   1.611  0.5739 -1.1384  0.4000
  190ccc     N2 7821  13.129   6.357   1.611 -0.5040  0.0053  0.1043
  190ccc     C5 7822  13.262   6.413   1.615  0.1332  0.5573 -0.0958
  190ccc     C6 7823  13.056   6.391   1.733  0.7573 -0.0943  0.5277
  190ccc     H9 7824  13.108   6.340   1.815 -0.0601 -0.5443  0.7699
  190ccc     C7 7825  12.907   6.348   1.733  0.0344  0.3162 -0.1993
  190ccc    H10 7826  13.066   6.499   1.753 -1.2225  0.3403 -0.5084
  190ccc    H11 7827  12.886   6.240   1.726  2.1034 -0.0835 -0.9435
  190ccc    H12 7828  12.846   6.401   1.660 -0.3794  2.2070  1.4303
  190ccc     C8 7829  12.852   6.391   1.867 -0.2527  0.6898  0.1593
  190ccc     O2 7830  12.894   6.483   1.933 -0.0673  0.2578 -0.0101
  190ccc    H13 7831  13.337   6.359   1.675 -0.5326  1.6487  1.8135
  190ccc    H14 7832  13.266   6.511   1.663  0.2231  0.8191 -0.6339
  190ccc     C9 7833  13.307   6.438   1.473 -0.2600  0.8374 -0.1329
  190ccc    H15 7834  13.219   6.454   1.409 -0.5658 -0.1309  0.0330
  190ccc    H16 7835  13.366   6.356   1.432  0.3732  0.2754  1.8266
  190ccc    C10 7836  13.380   6.566   1.457  0.8890 -0.5337  0.1986
  190ccc     O4 7837  13.389   6.663   1.541  0.5086  0.2690  0.3647
  190ccc    C11 7838  12.625   6.455   2.298 -0.0297  0.4032 -0.4966
  190ccc    C12 7839  12.517   6.461   2.187 -0.1135 -0.0654 -0.8715
  190ccc    H17 7840  12.688   6.545   2.301  0.3244  0.1358  0.4742
  190ccc    C13 7841  12.593   6.461   2.055  0.2605  0.3016 -0.4090
  190ccc    C14 7842  12.680   6.333   2.039 -0.1263  0.2328  0.1368
  190ccc    C15 7843  12.775   6.319   2.157  0.1217  0.2032  0.6065
  190ccc    H18 7844  12.609   6.251   2.049 -0.3019  0.1247 -1.6058
  190ccc    H19 7845  12.659   6.548   2.055 -0.6633  1.0634  1.4993
  190ccc    H20 7846  12.854   6.394   2.150 -0.1176  0.5066  1.1057
  190ccc     O1 7847  12.852   6.197   2.155 -0.2595 -0.4221  0.0711
  190ccc     O6 7848  12.500   6.459   1.946 -0.3088 -0.4060  0.1158
  190ccc    C16 7849  12.565   6.455   2.440  0.2013  0.2089 -0.3993
  190ccc    H21 7850  12.441   6.384   1.966 -0.8564  0.6092  2.8452
  190ccc    H22 7851  12.696   6.256   1.848 -0.0866 -0.3972  1.3836
  190ccc    H23 7852  12.537   6.561   2.450  0.4938  0.4157 -1.5764
  190ccc    H24 7853  12.655   6.432   2.497  1.0966  0.9694 -1.4729
  190ccc     O7 7854  12.471   6.348   2.455 -0.2216  0.0692 -0.4281
  190ccc    H25 7855  12.395   6.382   2.505  0.6866 -0.9210  1.7255
  190ccc     O8 7856  12.705   6.336   2.280 -0.0932 -0.6307 -0.2141
  190ccc    H26 7857  12.896   6.199   2.068  2.2420  0.4081  1.2486
  190ccc    H27 7858  12.446   6.378   2.199  0.5332 -0.5377 -0.2166
  190ccc     O9 7859  12.446   6.581   2.197 -0.6791  0.1689  0.0688
  190ccc    H28 7860  12.368   6.569   2.253 -0.7906  3.0804  0.6648
  190ccc     N3 7861  12.743   6.329   1.902  0.2806 -0.1558  0.7503
  190ccc    C17 7862  13.441   6.576   0.921  0.8998 -0.6653  0.3046
  190ccc    C18 7863  13.523   6.460   0.983 -0.1720  0.1123 -0.2528
  190ccc    H29 7864  13.487   6.675   0.928 -3.3040  1.5718 -0.1024
  190ccc    C19 7865  13.545   6.487   1.137  0.1953 -0.0866  0.2433
  190ccc    C20 7866  13.413   6.526   1.207 -0.5807  0.1121 -0.4572
  190ccc    C21 7867  13.320   6.619   1.127 -1.3433 -0.2379 -1.2186
  190ccc    H30 7868  13.349   6.438   1.221  0.7564 -1.0075 -1.2413
  190ccc    H31 7869  13.611   6.574   1.136  0.4003 -0.2398 -0.8621
  190ccc    H32 7870  13.357   6.721   1.142  1.5370 -1.3093 -0.3397
  190ccc    O10 7871  13.189   6.606   1.157  0.1986  0.0745 -0.0655
  190ccc    O11 7872  13.592   6.379   1.221  0.0394  0.7226  0.3432
  190ccc    C22 7873  13.393   6.542   0.779 -0.6147  0.2036  0.1263
  190ccc    H33 7874  13.527   6.307   1.210  1.5733 -0.7655  0.7968
  190ccc    H34 7875  13.492   6.677   1.323 -1.1710  0.3169 -3.4354
  190ccc    H35 7876  13.482   6.500   0.729  0.8159  0.1759  2.5058
  190ccc    H36 7877  13.360   6.638   0.738 -1.1092 -0.1481 -0.3084
  190ccc    O12 7878  13.286   6.446   0.772  0.6878  0.1165 -0.4139
  190ccc    H37 7879  13.257   6.433   0.864 -0.9467 -0.1260 -0.9194
  190ccc    O13 7880  13.315   6.588   0.990 -0.2079  0.2830  0.1666
  190ccc    H38 7881  13.139   6.658   1.092  0.8661  1.0752  0.2057
  190ccc    H39 7882  13.459   6.372   0.965 -1.1680  0.5926  0.7828
  190ccc     O5 7883  13.651   6.455   0.914  1.0036 -0.3394  0.1085
  190ccc    H40 7884  13.709   6.399   0.970  1.6563  0.3651  0.1534
  190ccc     N4 7885  13.442   6.589   1.338  0.0605  0.0093 -0.2034
  191ccc     N1 7886  12.998   6.803   0.726  0.0351 -0.6752  0.2857
  191ccc     H4 7887  12.933   6.758   0.663 -0.3241 -0.8417  0.7700
  191ccc     C3 7888  13.113   6.879   0.680  0.0042 -0.3147 -0.1717
  191ccc     H5 7889  13.202   6.859   0.740 -0.1769  1.2303  0.6776
  191ccc     C4 7890  13.088   7.029   0.699 -0.1117 -0.8128  0.0544
  191ccc     H6 7891  13.133   6.847   0.577  1.8672  0.3750 -0.0684
  191ccc     H7 7892  13.180   7.087   0.691 -1.0768  0.9239  0.9940
  191ccc     H8 7893  13.050   7.029   0.802 -3.3936 -0.4177 -1.0082
  191ccc     N2 7894  12.976   7.086   0.619 -0.2638 -0.0755  0.3296
  191ccc     C5 7895  12.937   7.220   0.655 -0.1250 -0.3402 -0.1516
  191ccc     C6 7896  13.008   7.059   0.471 -0.1844 -0.7031  0.0031
  191ccc     H9 7897  13.104   7.102   0.442  0.1965 -0.6026  1.3559
  191ccc     C7 7898  12.916   7.130   0.379  0.3896 -0.0366 -0.0790
  191ccc    H10 7899  12.984   6.954   0.452  0.0420 -0.8101  0.3164
  191ccc    H11 7900  12.926   7.239   0.380  1.1765 -0.0384 -2.2486
  191ccc    H12 7901  12.812   7.104   0.405  0.8020 -0.5397  1.1554
  191ccc     C8 7902  12.942   7.080   0.236  0.7650  0.0823  0.7164
  191ccc     O2 7903  12.886   6.986   0.186  0.2848  0.0855 -0.1411
  191ccc    H13 7904  12.846   7.247   0.601  0.2964  1.7097  0.0819
  191ccc    H14 7905  13.014   7.295   0.633 -0.8456  0.4610  0.0337
  191ccc     C9 7906  12.900   7.235   0.802 -0.3101 -0.8270 -0.5396
  191ccc    H15 7907  12.989   7.231   0.865 -0.1208 -0.7152 -0.7992
  191ccc    H16 7908  12.834   7.155   0.838 -0.2590  0.1804  1.9421
  191ccc    C10 7909  12.827   7.367   0.821 -0.7206  0.0674  0.2704
  191ccc     O4 7910  12.809   7.444   0.729 -0.3845 -0.2857 -0.1541
  191ccc    C11 7911  13.077   6.962  -0.219  0.0789  0.0224 -0.1085
  191ccc    C12 7912  13.028   7.107  -0.216  0.5976  0.1695  0.3161
  191ccc    H17 7913  12.988   6.905  -0.193  0.0276  0.0812 -0.1545
  191ccc    C13 7914  12.982   7.144  -0.072 -0.0402 -0.2625 -1.0430
  191ccc    C14 7915  13.090   7.106   0.037 -0.0833  0.3926  0.4865
  191ccc    C15 7916  13.133   6.949   0.019 -0.2969 -0.7167 -0.3150
  191ccc    H18 7917  13.178   7.172   0.032 -0.7645  1.3459  0.8636
  191ccc    H19 7918  12.892   7.088  -0.042  0.9974 -1.7368 -0.5930
  191ccc    H20 7919  13.054   6.878   0.045 -0.8391 -0.0508 -0.1208
  191ccc     O1 7920  13.247   6.940   0.104 -0.4313  0.7069  0.1089
  191ccc     O6 7921  12.951   7.285  -0.075  0.1686 -0.5139 -0.4526
  191ccc    C16 7922  13.138   6.910  -0.357 -0.3423  0.3869  0.0371
  191ccc    H21 7923  12.920   7.314   0.012 -1.0708  0.9102 -1.3214
  191ccc    H22 7924  13.090   7.217   0.227 -1.0210  1.1215  0.4377
  191ccc    H23 7925  13.063   6.872  -0.428 -0.9201  0.6213  0.5191
  191ccc    H24 7926  13.201   6.823  -0.334 -1.1842 -0.6488 -1.4082
  191ccc     O7 7927  13.217   7.011  -0.424 -0.0594 -0.4754 -0.5323
  191ccc    H25 7928  13.158   7.078  -0.461  1.2427  1.9330  1.4004
  191ccc     O8 7929  13.178   6.938  -0.119  0.1639  0.7315 -0.0863
  191ccc    H26 7930  13.321   6.939   0.042  0.0498  2.2664  0.6039
  191ccc    H27 7931  13.109   7.172  -0.252  1.0895 -0.2581  0.6281
  191ccc     O9 7932  12.910   7.112  -0.298 -0.0579 -0.7160  0.5393
  191ccc    H28 7933  12.867   7.192  -0.262  1.8211  0.6280 -0.0501
  191ccc     N3 7934  13.042   7.140   0.180  0.2485  0.3214  0.4204
  191ccc    C17 7935  12.892   7.440   1.340  0.5244  0.3889  0.2092
  191ccc    C18 7936  12.792   7.325   1.314 -0.2408 -0.0521 -0.0186
  191ccc    H29 7937  12.841   7.536   1.353 -0.0649  0.0894  0.1652
  191ccc    C19 7938  12.721   7.333   1.180  0.0359 -0.1073  0.1688
  191ccc    C20 7939  12.821   7.358   1.064  0.2391  0.0190 -0.3860
  191ccc    C21 7940  12.921   7.480   1.102  0.4308 -0.3264  0.4462
  191ccc    H30 7941  12.882   7.267   1.062  0.6913  0.3270 -1.0778
  191ccc    H31 7942  12.650   7.415   1.192 -0.9305 -0.5771 -1.8483
  191ccc    H32 7943  12.869   7.576   1.109 -2.1241 -1.7253  2.3150
  191ccc    O10 7944  13.030   7.481   1.012  0.2337  0.2282  0.0613
  191ccc    O11 7945  12.660   7.207   1.148 -0.0916 -0.6008  0.0562
  191ccc    C22 7946  12.981   7.414   1.465 -0.1770  0.2261  0.2696
  191ccc    H33 7947  12.729   7.153   1.104  1.2699 -0.7464  2.1958
  191ccc    H34 7948  12.709   7.471   0.930  1.3873  1.1600  0.1982
  191ccc    H35 7949  13.071   7.355   1.441  0.4313  1.4191 -0.4684
  191ccc    H36 7950  12.933   7.345   1.536 -2.3392  1.5916  0.1918
  191ccc    O12 7951  13.026   7.533   1.528  0.7237  0.1940  0.0198
  191ccc    H37 7952  13.118   7.520   1.558  1.0328  2.5910  0.3331
  191ccc    O13 7953  12.981   7.448   1.228  0.2093 -0.2012  0.2746
  191ccc    H38 7954  13.109   7.499   1.065 -0.9873 -0.6800  2.3369
  191ccc    H39 7955  12.850   7.233   1.301 -1.5836 -0.6799 -2.1392
  191ccc     O5 7956  12.697   7.326   1.420  0.2393 -0.1853 -0.0569
  191ccc    H40 7957  12.694   7.235   1.454 -2.3781 -0.0367  0.3292
  191ccc     N4 7958  12.760   7.383   0.933 -0.0984  0.2179 -0.8659
  192ccc     N1 7959  11.855   6.438   2.003 -0.2888 -0.1099  0.1079
  192ccc     H4 7960  11.840   6.532   1.968 -0.6141  0.0073  0.5523
  192ccc     C3 7961  11.742   6.341   2.005  0.7748 -0.3188 -0.3458
  192ccc     H5 7962  11.763   6.249   2.061  0.2627 -1.0956 -1.3943
  192ccc     C4 7963  11.693   6.291   1.871 -0.1298 -0.4647  0.1603
  192ccc     H6 7964  11.660   6.395   2.054  1.7810  0.4593  0.5315
  192ccc     H7 7965  11.634   6.372   1.826  1.0947  1.2443  1.4617
  192ccc     H8 7966  11.614   6.217   1.886 -1.4663  0.9404  0.3192
  192ccc     N2 7967  11.803   6.245   1.783 -0.6253 -0.3738 -0.3524
  192ccc     C5 7968  11.759   6.217   1.649  0.4465  0.1261  0.0964
  192ccc     C6 7969  11.854   6.124   1.838 -0.9624  0.3779  0.1494
  192ccc     H9 7970  11.873   6.144   1.944 -1.6109  3.4602 -0.2011
  192ccc     C7 7971  11.990   6.086   1.770  0.2224 -0.0129 -1.0565
  192ccc    H10 7972  11.783   6.041   1.827  0.0930 -0.4461 -0.6825
  192ccc    H11 7973  12.031   6.181   1.734 -1.8533  1.8280  1.0954
  192ccc    H12 7974  11.981   6.022   1.681  2.0494 -1.3066 -0.3872
  192ccc     C8 7975  12.088   6.029   1.871 -0.2136 -0.5574  0.2153
  192ccc     O2 7976  12.044   5.965   1.966  0.2804 -0.8136 -0.4195
  192ccc    H13 7977  11.658   6.173   1.647  0.4038  0.1667  1.0992
  192ccc    H14 7978  11.825   6.145   1.599  0.1725 -0.2810  0.3152
  192ccc     C9 7979  11.764   6.357   1.573 -0.0677 -0.1205 -0.3150
  192ccc    H15 7980  11.866   6.396   1.567  0.0263 -0.3479 -0.1876
  192ccc    H16 7981  11.700   6.429   1.625  1.2908  0.0515  1.1656
  192ccc    C10 7982  11.703   6.363   1.440 -0.2692 -0.0344  0.2574
  192ccc     O4 7983  11.586   6.341   1.419  0.2763 -0.1747  0.0226
  192ccc    C11 7984  12.455   6.000   2.222  0.8503 -0.3297 -0.4294
  192ccc    C12 7985  12.468   5.876   2.122  0.3886 -0.1347  0.7428
  192ccc    H17 7986  12.370   5.980   2.288 -0.5310  0.0681 -1.9919
  192ccc    C13 7987  12.355   5.883   2.009  0.5169 -0.4452  0.2210
  192ccc    C14 7988  12.330   6.030   1.951 -0.4799  0.3612  0.0443
  192ccc    C15 7989  12.314   6.132   2.068 -0.3710 -0.0006 -0.0492
  192ccc    H18 7990  12.427   6.048   1.903  0.2830 -3.0427  0.0505
  192ccc    H19 7991  12.260   5.851   2.055 -0.3320  1.6808  0.0534
  192ccc    H20 7992  12.225   6.101   2.124  0.1890  1.4357  1.7278
  192ccc     O1 7993  12.289   6.263   2.025  0.1164 -0.8304  0.1279
  192ccc     O6 7994  12.392   5.791   1.909  0.2555 -0.3293  0.4919
  192ccc    C16 7995  12.580   6.019   2.312 -0.2226  0.1725 -0.3703
  192ccc    H21 7996  12.366   5.705   1.946 -0.6613  0.3267  1.4232
  192ccc    H22 7997  12.253   6.131   1.795  0.9115  1.4838  1.4138
  192ccc    H23 7998  12.575   5.947   2.394  2.9258 -1.0964 -1.1581
  192ccc    H24 7999  12.579   6.117   2.360  1.2725 -1.0556  2.3379
  192ccc     O7 8000  12.695   5.989   2.240 -0.2814  0.8527 -0.2373
  192ccc    H25 8001  12.713   6.070   2.190 -0.1848  1.5416  0.8821
  192ccc     O8 8002  12.425   6.123   2.158 -0.4570  0.8378  0.2722
  192ccc    H26 8003  12.195   6.289   2.032  0.7259  1.3407  1.2012
  192ccc    H27 8004  12.566   5.879   2.072  0.6270 -2.0238  1.0594
  192ccc     O9 8005  12.464   5.755   2.197  0.1676  0.2763  0.4237
  192ccc    H28 8006  12.523   5.689   2.158 -0.1736  0.0536  0.2777
  192ccc     N3 8007  12.219   6.054   1.851 -0.2018  0.2024 -0.8821
  192ccc    C17 8008  12.064   6.225   1.099  0.1636  0.7795  0.5935
  192ccc    C18 8009  12.111   6.344   1.174 -0.5188 -0.5105 -0.8386
  192ccc    H29 8010  12.009   6.250   1.007 -0.0664  0.3466  0.6109
  192ccc    C19 8011  11.988   6.420   1.220  0.6932  0.2793 -0.0869
  192ccc    C20 8012  11.898   6.325   1.305 -0.4288  0.6864 -0.1111
  192ccc    C21 8013  11.864   6.192   1.233  0.7547 -0.0046 -0.0129
  192ccc    H30 8014  11.953   6.297   1.395  0.0721 -1.4114 -1.0149
  192ccc    H31 8015  11.927   6.453   1.135  0.2685  2.3236  0.9392
  192ccc    H32 8016  11.806   6.214   1.142  1.8005  1.2610 -0.4142
  192ccc    O10 8017  11.819   6.095   1.326 -0.1713  0.1056 -0.2963
  192ccc    O11 8018  12.027   6.534   1.300  0.6290  0.7642  0.3341
  192ccc    C22 8019  12.187   6.132   1.045  0.0970  0.0769  0.3606
  192ccc    H33 8020  11.947   6.569   1.343 -1.1312 -0.6700 -1.5726
  192ccc    H34 8021  11.738   6.418   1.255  1.0657 -0.9463 -0.9389
  192ccc    H35 8022  12.214   6.077   1.136  1.4232  0.9123  0.4987
  192ccc    H36 8023  12.267   6.198   1.010  0.7594 -0.9669 -0.1412
  192ccc    O12 8024  12.146   6.029   0.954  0.1130 -0.1008 -0.2687
  192ccc    H37 8025  12.072   5.981   0.994 -2.7066  1.1373 -3.5182
  192ccc    O13 8026  11.991   6.136   1.193  0.1401 -0.4942  0.3085
  192ccc    H38 8027  11.880   6.024   1.301  0.9117  0.9790 -0.2108
  192ccc    H39 8028  12.161   6.308   1.265 -0.3692  2.1033  0.1985
  192ccc     O5 8029  12.188   6.418   1.079 -0.7516  0.1215  0.1582
  192ccc    H40 8030  12.281   6.389   1.079 -1.0152 -0.7898 -1.1547
  192ccc     N4 8031  11.785   6.402   1.344 -0.0671  0.6655 -0.0014
  193ccc     N1 8032  12.491   6.782   2.002 -0.2885 -0.0245  0.6232
  193ccc     H4 8033  12.453   6.704   2.055 -0.5103  1.1217  2.2361
  193ccc     C3 8034  12.635   6.827   2.008  0.1142  0.6909 -0.9069
  193ccc     H5 8035  12.695   6.756   1.951 -0.3790  0.7954 -1.5704
  193ccc     C4 8036  12.665   6.843   2.158 -0.1063  0.7214  0.7344
  193ccc     H6 8037  12.648   6.925   1.961  1.0238 -0.8195 -4.0608
  193ccc     H7 8038  12.642   6.756   2.220 -1.3495  0.4036 -0.1308
  193ccc     H8 8039  12.587   6.912   2.193  0.7052  1.6481  0.7600
  193ccc     N2 8040  12.799   6.887   2.189 -0.0885 -0.4428  0.6825
  193ccc     C5 8041  12.804   6.974   2.302 -0.8149  0.2292  0.4369
  193ccc     C6 8042  12.894   6.777   2.179  0.0752  0.3988  0.3022
  193ccc     H9 8043  12.954   6.770   2.271  0.2038  1.5769  0.3333
  193ccc     C7 8044  12.984   6.779   2.059  0.6852 -0.4672  0.8000
  193ccc    H10 8045  12.839   6.682   2.176  1.0312 -0.1902  0.9686
  193ccc    H11 8046  12.993   6.883   2.024 -2.3429 -0.6971 -0.9723
  193ccc    H12 8047  12.936   6.720   1.980 -0.8460  0.6104  0.8698
  193ccc     C8 8048  13.116   6.717   2.094 -0.3480  0.0667 -0.8131
  193ccc     O2 8049  13.202   6.757   2.167 -0.2467 -0.2760  0.7256
  193ccc    H13 8050  12.786   6.911   2.390 -2.3918 -0.3453 -0.2553
  193ccc    H14 8051  12.721   7.046   2.294 -2.2053 -1.4302 -1.1805
  193ccc     C9 8052  12.935   7.051   2.315  0.0806  0.1213 -0.1460
  193ccc    H15 8053  12.936   7.117   2.228  2.4994 -0.3472 -0.5624
  193ccc    H16 8054  13.019   6.981   2.300 -0.9779 -1.0890 -0.6026
  193ccc    C10 8055  12.939   7.123   2.444  0.5345 -0.3062 -1.0527
  193ccc     O4 8056  12.847   7.183   2.489 -0.1928 -0.8849  0.2786
  193ccc    C11 8057  13.498   6.395   2.184 -0.2673 -0.6588  1.0780
  193ccc    C12 8058  13.357   6.334   2.197  0.3059 -0.8768 -0.6769
  193ccc    H17 8059  13.513   6.461   2.270  0.2477  2.0406 -0.9641
  193ccc    C13 8060  13.239   6.432   2.178 -0.1199  0.1443 -0.6730
  193ccc    C14 8061  13.260   6.514   2.053  0.6732 -0.2488  0.1002
  193ccc    C15 8062  13.395   6.583   2.074  0.1412 -0.5533 -0.2581
  193ccc    H18 8063  13.264   6.445   1.968 -2.0198  1.2290 -1.3774
  193ccc    H19 8064  13.239   6.500   2.264 -0.9861 -0.8591  0.1555
  193ccc    H20 8065  13.402   6.644   2.164  0.9292  0.3630 -0.9314
  193ccc     O1 8066  13.418   6.671   1.964  0.0664  0.2228  0.0580
  193ccc     O6 8067  13.117   6.360   2.173  0.8707  0.1476 -0.2491
  193ccc    C16 8068  13.608   6.290   2.167 -0.0543 -0.9808 -0.2710
  193ccc    H21 8069  13.127   6.276   2.124  1.8895 -0.1684  0.4694
  193ccc    H22 8070  13.057   6.550   2.002 -1.0761  0.9388  1.4174
  193ccc    H23 8071  13.614   6.231   2.259  1.6504  0.1559  0.4073
  193ccc    H24 8072  13.704   6.341   2.156 -0.6882  0.8679  1.7623
  193ccc     O7 8073  13.581   6.204   2.051  0.1682 -0.2135 -0.3475
  193ccc    H25 8074  13.559   6.266   1.979  1.0996 -0.5324 -0.9218
  193ccc     O8 8075  13.486   6.476   2.066  0.4107 -0.2639 -0.1978
  193ccc    H26 8076  13.342   6.731   1.954  1.2764  1.7756  0.0068
  193ccc    H27 8077  13.349   6.248   2.130 -1.1405 -0.1702 -1.4673
  193ccc     O9 8078  13.346   6.280   2.326  0.3354 -0.5277  0.3213
  193ccc    H28 8079  13.280   6.209   2.318  1.5914 -1.5524 -2.5205
  193ccc     N3 8080  13.138   6.603   2.031 -0.0355  0.0769  0.1923
  193ccc    C17 8081  13.237   7.023   2.865 -0.9494 -1.0185  1.1451
  193ccc    C18 8082  13.212   7.178   2.849  0.5077 -0.9207  0.5530
  193ccc    H29 8083  13.330   6.999   2.810 -0.7952  1.7368  0.0186
  193ccc    C19 8084  13.183   7.208   2.701 -0.2737 -0.8653 -0.3938
  193ccc    C20 8085  13.084   7.114   2.640 -0.1629 -0.3101 -0.0221
  193ccc    C21 8086  13.117   6.961   2.670 -0.2444 -0.1519  0.0955
  193ccc    H30 8087  12.987   7.121   2.693  0.2685 -1.7345  1.0293
  193ccc    H31 8088  13.275   7.207   2.642 -1.4262  1.1954 -2.3586
  193ccc    H32 8089  13.204   6.937   2.608 -0.6685  0.2100 -0.6560
  193ccc    O10 8090  13.005   6.880   2.630  0.2410  0.5835  0.0301
  193ccc    O11 8091  13.134   7.344   2.695  0.2576 -0.2393 -0.4402
  193ccc    C22 8092  13.246   6.980   3.015 -0.6904  0.0059  0.3720
  193ccc    H33 8093  13.061   7.356   2.759  0.8301  1.5186 -0.0774
  193ccc    H34 8094  13.132   7.085   2.438 -0.4939 -1.9599 -0.6952
  193ccc    H35 8095  13.342   6.995   3.066 -0.2910 -0.4253 -0.2286
  193ccc    H36 8096  13.233   6.871   3.015  1.8496 -0.4474 -2.5621
  193ccc    O12 8097  13.136   7.043   3.085 -0.0901  0.3204  0.2454
  193ccc    H37 8098  13.070   6.973   3.093  0.4914 -0.4411 -1.3024
  193ccc    O13 8099  13.132   6.942   2.809 -0.0752 -0.1947  0.3803
  193ccc    H38 8100  13.032   6.819   2.560 -2.0985 -0.7097  0.1644
  193ccc    H39 8101  13.124   7.214   2.904  0.2110 -0.4922 -0.2041
  193ccc     O5 8102  13.316   7.259   2.888  0.0521 -0.1588  0.2385
  193ccc    H40 8103  13.322   7.339   2.832 -1.9975 -0.1323 -0.0109
  193ccc     N4 8104  13.059   7.129   2.494  0.9215 -0.6248  0.1610
  194ccc     N1 8105  13.180   8.989   0.364 -0.4490 -0.0034  1.1907
  194ccc     H4 8106  13.090   9.020   0.400 -0.9579  1.4832 -1.1300
  194ccc     C3 8107  13.307   9.033   0.435  0.1694 -0.1774 -0.5118
  194ccc     H5 8108  13.373   8.953   0.467 -1.1097 -0.8196  0.6280
  194ccc     C4 8109  13.268   9.122   0.554  0.5245  0.1285  0.4903
  194ccc     H6 8110  13.362   9.093   0.362  0.7092  1.6849  1.3327
  194ccc     H7 8111  13.198   9.062   0.614 -2.2962  0.1932 -2.4500
  194ccc     H8 8112  13.207   9.207   0.521  1.2993  0.5611  0.1447
  194ccc     N2 8113  13.383   9.164   0.637 -0.3204  0.2097 -0.7634
  194ccc     C5 8114  13.452   9.278   0.574 -0.2944  0.1989 -0.4291
  194ccc     C6 8115  13.357   9.183   0.784  0.0292 -0.5102 -0.5091
  194ccc     H9 8116  13.448   9.228   0.827 -1.9567  1.8265  1.5642
  194ccc     C7 8117  13.326   9.060   0.865  0.3905  0.2804 -0.3666
  194ccc    H10 8118  13.281   9.262   0.792 -1.1452 -1.6904  0.3996
  194ccc    H11 8119  13.408   8.987   0.873  0.4352  0.4445  0.9813
  194ccc    H12 8120  13.245   9.008   0.814  0.6230 -1.5326  1.0041
  194ccc     C8 8121  13.278   9.104   1.000 -0.0646  0.3479 -0.4171
  194ccc     O2 8122  13.236   9.214   1.026  0.3455  0.5162  0.3551
  194ccc    H13 8123  13.466   9.243   0.471  1.1384 -0.3569 -0.0618
  194ccc    H14 8124  13.544   9.305   0.628 -1.6913  5.6210 -0.2065
  194ccc     C9 8125  13.366   9.401   0.565 -0.3338 -0.2402 -0.0132
  194ccc    H15 8126  13.292   9.415   0.645 -0.5045  0.6970 -0.3169
  194ccc    H16 8127  13.316   9.405   0.468 -0.1893  0.2670 -0.0700
  194ccc    C10 8128  13.444   9.528   0.575  0.2388 -0.6182 -0.4814
  194ccc     O4 8129  13.559   9.533   0.615  0.3018 -0.9262  0.3162
  194ccc    C11 8130  12.972   8.861   1.382 -0.4069  0.8666 -0.5980
  194ccc    C12 8131  13.105   8.918   1.433 -0.3171  0.4123 -0.6272
  194ccc    H17 8132  12.989   8.754   1.363 -0.0526  0.8836 -0.3689
  194ccc    C13 8133  13.212   8.926   1.326  0.3573  0.1130  0.0658
  194ccc    C14 8134  13.169   9.002   1.201  0.6472  0.3452  0.3206
  194ccc    C15 8135  13.017   8.958   1.160 -0.0692  0.5877 -0.1589
  194ccc    H18 8136  13.167   9.107   1.234  1.3771  0.7276 -0.8044
  194ccc    H19 8137  13.231   8.821   1.299 -1.6042 -0.5381  0.9888
  194ccc    H20 8138  13.028   8.860   1.111 -2.4865  1.4194 -2.6006
  194ccc     O1 8139  12.955   9.052   1.074  0.0564  0.0173 -0.0327
  194ccc     O6 8140  13.329   8.981   1.381  0.3294 -0.5762 -0.0068
  194ccc    C16 8141  12.857   8.876   1.484  0.8393  0.0925  0.0396
  194ccc    H21 8142  13.371   9.030   1.308 -1.5933  1.7332  0.2903
  194ccc    H22 8143  13.315   8.919   1.067 -0.9144 -0.5177  0.3021
  194ccc    H23 8144  12.843   8.977   1.523 -2.5516 -0.5285  0.7219
  194ccc    H24 8145  12.889   8.819   1.573  0.9019  0.7483  0.4405
  194ccc     O7 8146  12.734   8.824   1.441 -0.5689 -0.1823  0.5263
  194ccc    H25 8147  12.753   8.817   1.346  0.7826 -2.7606  0.9085
  194ccc     O8 8148  12.927   8.939   1.271  0.3990  0.1349  0.0812
  194ccc    H26 8149  12.918   9.107   1.145  1.1263 -0.1003  0.6376
  194ccc    H27 8150  13.084   9.018   1.475 -1.6117 -0.3823  0.7048
  194ccc     O9 8151  13.159   8.834   1.540 -0.2091  0.2406 -0.1360
  194ccc    H28 8152  13.254   8.852   1.549 -0.1059 -0.5220  0.3776
  194ccc     N3 8153  13.271   9.008   1.090 -0.2752 -0.1366  0.0597
  194ccc    C17 8154  13.664   9.960   0.529 -0.3377  0.3031  0.0635
  194ccc    C18 8155  13.622   9.897   0.398 -0.2649  0.0694 -0.0424
  194ccc    H29 8156  13.738   9.890   0.570  1.0238  0.3796 -2.1184
  194ccc    C19 8157  13.567   9.759   0.409  0.0637  0.4224 -0.0217
  194ccc    C20 8158  13.452   9.766   0.520  0.1191 -0.1936  0.2702
  194ccc    C21 8159  13.497   9.838   0.652  1.0885 -0.3037 -1.1210
  194ccc    H30 8160  13.372   9.835   0.492  0.0699  0.5998  2.1950
  194ccc    H31 8161  13.649   9.693   0.439  0.5888  1.5274  1.0487
  194ccc    H32 8162  13.573   9.788   0.714 -0.5992 -1.5306  0.0374
  194ccc    O10 8163  13.388   9.864   0.734 -0.2938 -0.6340  0.1968
  194ccc    O11 8164  13.498   9.711   0.295 -0.2669 -0.1964  0.2760
  194ccc    C22 8165  13.717  10.105   0.514 -0.1087 -0.4801  0.0211
  194ccc    H33 8166  13.467   9.790   0.247 -2.9401 -0.4223  1.4532
  194ccc    H34 8167  13.296   9.631   0.480  0.6964  2.7789 -0.2441
  194ccc    H35 8168  13.648  10.176   0.467  0.9894  1.4028  1.1338
  194ccc    H36 8169  13.808  10.109   0.454 -0.5333  2.9931 -0.6129
  194ccc    O12 8170  13.750  10.150   0.647  0.2547  0.2202 -0.0210
  194ccc    H37 8171  13.807  10.081   0.686 -2.1674 -1.5944  0.5786
  194ccc    O13 8172  13.545   9.969   0.610  0.0596  0.6653  0.0726
  194ccc    H38 8173  13.335   9.783   0.741  0.7762 -1.4345 -0.6109
  194ccc    H39 8174  13.542   9.960   0.357 -0.6897  0.0062  0.6788
  194ccc     O5 8175  13.735   9.904   0.308 -0.4987  0.0305 -0.4799
  194ccc    H40 8176  13.806   9.843   0.336 -0.4861  0.6128  0.8676
  194ccc     N4 8177  13.377   9.636   0.542  0.3789 -0.0531  0.5510
  195ccc     N1 8178  12.604   8.980   0.403  0.0049  0.5018 -0.8580
  195ccc     H4 8179  12.703   9.000   0.413 -0.2845  1.5739  0.1500
  195ccc     C3 8180  12.511   9.042   0.504  0.2535  0.1115 -0.4356
  195ccc     H5 8181  12.408   9.019   0.475 -0.4282  0.5781  1.5000
  195ccc     C4 8182  12.528   9.199   0.529 -0.1383  0.5546 -0.4205
  195ccc     H6 8183  12.513   8.993   0.602  1.2448 -0.5963 -0.7908
  195ccc     H7 8184  12.632   9.216   0.561  0.5903 -1.0827 -1.7731
  195ccc     H8 8185  12.470   9.225   0.619  1.3819 -0.1138  0.7921
  195ccc     N2 8186  12.497   9.283   0.417 -0.3067  0.6353  0.4640
  195ccc     C5 8187  12.551   9.418   0.427  0.4517 -0.6118  0.1355
  195ccc     C6 8188  12.351   9.277   0.381  0.0529  0.1601 -0.1899
  195ccc     H9 8189  12.287   9.227   0.454  1.1699  1.3697  1.6902
  195ccc     C7 8190  12.356   9.204   0.249 -0.0328 -0.2388 -0.0006
  195ccc    H10 8191  12.313   9.379   0.364 -0.8607 -0.4921 -2.4854
  195ccc    H11 8192  12.332   9.098   0.261 -1.2809  0.0325 -0.0152
  195ccc    H12 8193  12.460   9.212   0.216 -0.0161  2.1831  0.4408
  195ccc     C8 8194  12.282   9.268   0.136 -0.2519  0.5287  0.4395
  195ccc     O2 8195  12.214   9.367   0.146 -0.0262 -0.4139  0.2757
  195ccc    H13 8196  12.659   9.417   0.445  0.8910  2.7881 -1.4808
  195ccc    H14 8197  12.498   9.479   0.501  1.1073  0.8633 -0.5747
  195ccc     C9 8198  12.552   9.486   0.287 -0.0616  0.7212  0.0075
  195ccc    H15 8199  12.461   9.466   0.229 -0.4263 -1.2497  1.1652
  195ccc    H16 8200  12.635   9.449   0.226 -2.3105 -1.0231 -2.2345
  195ccc    C10 8201  12.580   9.630   0.317 -0.2738 -0.2191 -0.8117
  195ccc     O4 8202  12.682   9.653   0.385  0.5872 -0.0495  0.0666
  195ccc    C11 8203  12.072   9.441  -0.272  0.0258 -0.0781 -0.1146
  195ccc    C12 8204  12.226   9.439  -0.284  0.2219  0.0923  0.3604
  195ccc    H17 8205  12.050   9.509  -0.189  2.2702 -0.4458  0.8745
  195ccc    C13 8206  12.296   9.381  -0.159  0.3738 -0.6040  0.1076
  195ccc    C14 8207  12.231   9.246  -0.110  0.0466  0.0432 -0.5337
  195ccc    C15 8208  12.074   9.253  -0.104 -0.0370  0.1512  0.4328
  195ccc    H18 8209  12.247   9.164  -0.181 -2.5479 -0.2030 -0.9239
  195ccc    H19 8210  12.296   9.460  -0.084  1.4333 -0.1077 -0.3870
  195ccc    H20 8211  12.050   9.319  -0.019 -0.9286  1.3870 -0.7450
  195ccc     O1 8212  12.007   9.129  -0.087 -0.0609 -0.2849  0.5647
  195ccc     O6 8213  12.436   9.360  -0.181  0.4651  0.1617  0.4117
  195ccc    C16 8214  11.995   9.480  -0.396  0.0051  0.0734 -0.4291
  195ccc    H21 8215  12.478   9.438  -0.220  1.0742 -0.6235 -0.5494
  195ccc    H22 8216  12.315   9.106   0.013 -1.7025 -0.1084  0.2387
  195ccc    H23 8217  12.025   9.576  -0.439  2.3494 -1.5716 -2.8059
  195ccc    H24 8218  11.889   9.490  -0.373  0.1908  0.1052  0.4217
  195ccc     O7 8219  12.018   9.388  -0.498  0.7288  1.1115  0.0409
  195ccc    H25 8220  12.021   9.305  -0.448  1.4096  1.1969  0.1445
  195ccc     O8 8221  12.021   9.309  -0.227 -0.1059  0.4793  0.2777
  195ccc    H26 8222  11.917   9.161  -0.066 -1.0217 -1.5590 -1.3167
  195ccc    H27 8223  12.248   9.379  -0.373  2.3081 -0.7666  1.3894
  195ccc     O9 8224  12.267   9.577  -0.296 -0.0212 -0.5283  0.4259
  195ccc    H28 8225  12.360   9.574  -0.325 -0.4703 -1.8883 -1.0385
  195ccc     N3 8226  12.292   9.205   0.020 -0.0807  0.2794  0.3828
  195ccc    C17 8227  12.181   9.825  -0.002 -0.0440 -0.4951 -0.2613
  195ccc    C18 8228  12.326   9.840  -0.060  0.3086  0.6567  0.1241
  195ccc    H29 8229  12.161   9.907   0.068 -0.0827  0.1839 -1.0634
  195ccc    C19 8230  12.433   9.839   0.053  0.6959 -0.2978 -0.5581
  195ccc    C20 8231  12.415   9.721   0.154 -0.5181 -0.1116  1.2792
  195ccc    C21 8232  12.268   9.711   0.204 -0.7301  0.0322 -0.3440
  195ccc    H30 8233  12.436   9.638   0.086  0.6474  0.7176  0.5811
  195ccc    H31 8234  12.427   9.930   0.114  2.4566 -0.7155  0.2851
  195ccc    H32 8235  12.242   9.798   0.265 -0.5245  0.3675 -0.7294
  195ccc    O10 8236  12.240   9.600   0.288 -0.2108  0.1087 -0.3615
  195ccc    O11 8237  12.565   9.822   0.004 -0.1431  0.4400  0.0118
  195ccc    C22 8238  12.069   9.816  -0.098  0.2705  0.5770 -0.3271
  195ccc    H33 8239  12.629   9.843   0.074  1.7193  0.4152 -1.6095
  195ccc    H34 8240  12.541   9.828   0.288 -0.5149  0.8063  0.3109
  195ccc    H35 8241  12.091   9.745  -0.178 -0.8098 -0.0756 -0.0738
  195ccc    H36 8242  12.056   9.911  -0.152  0.4581 -0.0261 -1.4684
  195ccc    O12 8243  11.952   9.773  -0.036 -0.0939  0.5703  0.0127
  195ccc    H37 8244  11.981   9.694   0.013  0.2841  0.5369 -0.2620
  195ccc    O13 8245  12.175   9.711   0.087  0.1488 -0.2295  0.3169
  195ccc    H38 8246  12.214   9.533   0.222 -0.9757 -2.8182  2.6005
  195ccc    H39 8247  12.353   9.755  -0.124  1.0079  1.2062 -0.3238
  195ccc     O5 8248  12.335   9.955  -0.139 -0.4550 -0.5317 -0.0990
  195ccc    H40 8249  12.431   9.974  -0.136 -0.5353 -0.1944  1.9419
  195ccc     N4 8250  12.510   9.733   0.265  0.1626  0.4871  0.6763
  196ccc     N1 8251  12.808   7.737  -0.132  0.0116 -0.5583 -0.4881
  196ccc     H4 8252  12.825   7.637  -0.140  0.4360 -0.6742  1.4591
  196ccc     C3 8253  12.721   7.786  -0.241 -0.4254  0.6405  0.4739
  196ccc     H5 8254  12.632   7.839  -0.205 -0.3565  0.7347  0.5095
  196ccc     C4 8255  12.660   7.677  -0.326 -0.5063 -0.1832 -0.0088
  196ccc     H6 8256  12.786   7.847  -0.306  1.7288 -0.7944  1.1745
  196ccc     H7 8257  12.604   7.614  -0.255  1.3359 -0.8123  0.9392
  196ccc     H8 8258  12.745   7.620  -0.363 -0.0068 -0.3353  1.3159
  196ccc     N2 8259  12.590   7.716  -0.448 -0.0888  0.2652  0.0411
  196ccc     C5 8260  12.690   7.761  -0.552  0.2091  0.5506  0.3201
  196ccc     C6 8261  12.503   7.598  -0.487 -0.0206  0.1550  0.5706
  196ccc     H9 8262  12.473   7.607  -0.592 -0.1375 -0.1976  0.5717
  196ccc     C7 8263  12.375   7.608  -0.409  1.1313 -0.1500  0.2367
  196ccc    H10 8264  12.561   7.504  -0.489 -0.3838 -0.0702 -2.1777
  196ccc    H11 8265  12.321   7.698  -0.439 -0.0376 -0.6983  0.6288
  196ccc    H12 8266  12.398   7.604  -0.302  2.6810 -1.4893 -0.1037
  196ccc     C8 8267  12.290   7.486  -0.444  0.0201  0.5388 -0.1828
  196ccc     O2 8268  12.338   7.376  -0.455 -0.5687 -0.2630  0.7447
  196ccc    H13 8269  12.756   7.674  -0.559  0.1317  0.4632  0.6584
  196ccc    H14 8270  12.747   7.847  -0.515  0.8535  0.7587 -1.0736
  196ccc     C9 8271  12.628   7.789  -0.685  0.5193  0.1258  0.2968
  196ccc    H15 8272  12.531   7.840  -0.683 -0.0073 -0.6878 -1.9214
  196ccc    H16 8273  12.611   7.695  -0.739  0.4635 -0.9573  2.1402
  196ccc    C10 8274  12.711   7.871  -0.773  0.1774  0.2948 -0.1958
  196ccc     O4 8275  12.825   7.911  -0.741  0.2313  0.6178  0.4565
  196ccc    C11 8276  11.796   7.279  -0.415  0.4212 -0.1189  0.9204
  196ccc    C12 8277  11.822   7.342  -0.556  0.2007  0.0562 -0.4996
  196ccc    H17 8278  11.764   7.363  -0.352  0.5409  0.2270  0.5263
  196ccc    C13 8279  11.932   7.455  -0.546  0.6638 -0.3307  0.6661
  196ccc    C14 8280  12.060   7.406  -0.471 -0.6048  0.2333  0.0128
  196ccc    C15 8281  12.024   7.329  -0.338  0.2183 -0.7692  0.5524
  196ccc    H18 8282  12.111   7.334  -0.536  0.8427  1.2772 -0.0580
  196ccc    H19 8283  11.887   7.542  -0.496  1.6855  1.9309 -2.0688
  196ccc    H20 8284  11.983   7.400  -0.265  0.0602  0.2334 -0.4935
  196ccc     O1 8285  12.138   7.258  -0.289  0.6828 -0.2919  0.3925
  196ccc     O6 8286  11.951   7.503  -0.682 -0.0997 -0.0824 -0.2847
  196ccc    C16 8287  11.691   7.173  -0.415  0.3943  0.1284 -0.0148
  196ccc    H21 8288  11.903   7.449  -0.747 -0.1305 -0.1315 -0.2229
  196ccc    H22 8289  12.110   7.600  -0.418 -0.0223  0.1934 -1.4305
  196ccc    H23 8290  11.598   7.220  -0.449  1.3240  1.7490 -0.4388
  196ccc    H24 8291  11.682   7.144  -0.310  1.0924  2.7765  0.8471
  196ccc     O7 8292  11.724   7.072  -0.513  0.0751  0.4562 -0.1873
  196ccc    H25 8293  11.653   7.007  -0.525  0.0556  0.4586 -0.0799
  196ccc     O8 8294  11.923   7.230  -0.362 -0.7216  0.1461  0.2535
  196ccc    H26 8295  12.210   7.280  -0.350 -0.4397  0.3839 -0.7243
  196ccc    H27 8296  11.853   7.271  -0.634 -0.1878  1.7381 -2.2504
  196ccc     O9 8297  11.706   7.405  -0.601  0.1158  0.1361 -0.0307
  196ccc    H28 8298  11.703   7.409  -0.698  0.1366 -0.4237 -0.0586
  196ccc     N3 8299  12.158   7.516  -0.448  0.4460 -0.2043  0.3079
  196ccc    C17 8300  12.968   8.015  -1.150 -0.1586  0.4030 -0.1508
  196ccc    C18 8301  12.905   7.875  -1.185 -0.2070 -0.2809  0.0961
  196ccc    H29 8302  13.031   8.005  -1.060 -1.0456  0.3349  0.4792
  196ccc    C19 8303  12.817   7.840  -1.065  0.0821 -0.6120 -0.1077
  196ccc    C20 8304  12.721   7.950  -1.014 -0.4033  0.1815  0.2909
  196ccc    C21 8305  12.798   8.082  -1.001  0.4095  0.0877  0.2210
  196ccc    H30 8306  12.651   7.956  -1.098 -0.7745 -1.0279  0.4949
  196ccc    H31 8307  12.882   7.789  -0.993  0.5681  0.1398 -0.0049
  196ccc    H32 8308  12.870   8.072  -0.918 -0.7841 -0.9423  1.1743
  196ccc    O10 8309  12.708   8.187  -0.976 -0.5324 -0.1099 -0.1975
  196ccc    O11 8310  12.733   7.743  -1.126 -0.6881 -0.4125  0.5045
  196ccc    C22 8311  13.063   8.069  -1.265  0.3076 -0.2258  0.3533
  196ccc    H33 8312  12.655   7.719  -1.073  0.3729  1.1111  2.8778
  196ccc    H34 8313  12.559   7.863  -0.912 -0.9434  0.2300  2.0048
  196ccc    H35 8314  13.140   7.996  -1.293 -0.5377 -0.7150 -0.7666
  196ccc    H36 8315  13.115   8.160  -1.233 -2.2840  2.3696 -2.2356
  196ccc    O12 8316  12.980   8.091  -1.380  0.1753  0.1745 -0.1683
  196ccc    H37 8317  12.925   8.170  -1.364 -0.1531 -0.3945  1.7451
  196ccc    O13 8318  12.865   8.107  -1.127  0.3151  0.1845 -0.6208
  196ccc    H38 8319  12.749   8.235  -0.902 -0.9382 -0.1109  0.0341
  196ccc    H39 8320  12.843   7.888  -1.274  1.5888  1.2578 -0.9933
  196ccc     O5 8321  13.007   7.780  -1.197 -0.0586  0.2313  0.1653
  196ccc    H40 8322  12.974   7.700  -1.243  1.2014 -0.3988  0.3082
  196ccc     N4 8323  12.650   7.902  -0.890 -0.1573 -0.0657 -0.4235
  197ccc     N1 8324  13.371   7.424   0.086 -0.5934  0.0445 -0.1620
  197ccc     H4 8325  13.348   7.489   0.012  0.2445 -1.9323 -2.2762
  197ccc     C3 8326  13.506   7.359   0.088  0.3227  0.7692  0.2742
  197ccc     H5 8327  13.544   7.359   0.191 -1.3480 -3.4189  1.1003
  197ccc     C4 8328  13.606   7.424  -0.011  0.0369 -0.4554 -0.2585
  197ccc     H6 8329  13.496   7.252   0.066  0.1856  0.5306  1.4661
  197ccc     H7 8330  13.584   7.530   0.008  2.0590 -0.1800  0.8123
  197ccc     H8 8331  13.580   7.407  -0.116  0.9008  1.6714 -0.8714
  197ccc     N2 8332  13.752   7.412   0.017  0.3674  0.2766 -0.0091
  197ccc     C5 8333  13.798   7.269   0.011 -0.4530 -0.3691  0.4055
  197ccc     C6 8334  13.833   7.499  -0.074  0.6661 -0.5658  0.2513
  197ccc     H9 8335  13.813   7.480  -0.180  0.9605  0.7061 -0.0487
  197ccc     C7 8336  13.982   7.497  -0.037 -0.5119 -0.7191 -0.0524
  197ccc    H10 8337  13.795   7.601  -0.058  0.1716 -0.9250  1.4980
  197ccc    H11 8338  14.036   7.415  -0.087 -0.2677  0.6240 -2.0777
  197ccc    H12 8339  13.989   7.499   0.072 -0.3394  0.1250 -0.0765
  197ccc     C8 8340  14.045   7.626  -0.084  0.1496  0.3798 -0.3784
  197ccc     O2 8341  13.986   7.707  -0.157 -0.0709  0.2828 -0.2216
  197ccc    H13 8342  13.761   7.220   0.102  0.7886 -1.4702  0.3480
  197ccc    H14 8343  13.908   7.263   0.011 -0.3633  0.8623  0.8584
  197ccc     C9 8344  13.751   7.193  -0.117 -0.6697  0.2541  0.0689
  197ccc    H15 8345  13.766   7.247  -0.211 -1.7071 -1.1667 -0.9671
  197ccc    H16 8346  13.643   7.175  -0.116 -0.2663 -2.6509  0.6365
  197ccc    C10 8347  13.829   7.062  -0.122  0.7369  0.4374 -0.5975
  197ccc     O4 8348  13.923   7.034  -0.192 -0.2105 -0.7140  0.4625
  197ccc    C11 8349  14.344   7.909  -0.334  0.4814 -0.6065  0.9351
  197ccc    C12 8350  14.333   7.959  -0.184  0.6809  0.6530 -0.3370
  197ccc    H17 8351  14.243   7.921  -0.373  1.4055 -0.0155 -1.4671
  197ccc    C13 8352  14.222   7.877  -0.120 -0.2932 -0.3336  0.1230
  197ccc    C14 8353  14.265   7.737  -0.125 -0.0970  0.1881  0.3901
  197ccc    C15 8354  14.289   7.684  -0.270  0.3186  0.1957  0.7244
  197ccc    H18 8355  14.365   7.733  -0.079 -0.5327 -1.6578  1.2544
  197ccc    H19 8356  14.133   7.895  -0.181  0.7457  2.9692 -0.6056
  197ccc    H20 8357  14.194   7.693  -0.325  0.8530 -0.4621 -0.3426
  197ccc     O1 8358  14.349   7.557  -0.267  0.2638  0.4180  0.0226
  197ccc     O6 8359  14.214   7.923   0.018  0.3655  0.3394  0.8201
  197ccc    C16 8360  14.443   7.987  -0.422  0.6687 -0.2718 -0.1614
  197ccc    H21 8361  14.239   8.017   0.010  1.7851  0.0487  1.4578
  197ccc    H22 8362  14.219   7.555  -0.018  0.9204 -0.2865 -0.4703
  197ccc    H23 8363  14.414   8.093  -0.411  1.2436 -0.2903  1.9004
  197ccc    H24 8364  14.420   7.952  -0.523  0.7500 -2.2488  0.4562
  197ccc     O7 8365  14.576   7.968  -0.388 -0.6151  0.0016  0.4023
  197ccc    H25 8366  14.618   8.055  -0.399 -0.3725 -0.0667  0.7726
  197ccc     O8 8367  14.380   7.774  -0.341  0.3296  0.0885  0.1659
  197ccc    H26 8368  14.363   7.531  -0.359  0.4725  1.0159 -0.1232
  197ccc    H27 8369  14.424   7.931  -0.130 -0.2651 -2.0928 -0.0037
  197ccc     O9 8370  14.297   8.099  -0.161 -0.4089 -0.1260  0.3429
  197ccc    H28 8371  14.374   8.152  -0.190 -0.4672 -0.3588 -0.2522
  197ccc     N3 8372  14.174   7.642  -0.047 -0.3227 -0.4416  0.8612
  197ccc    C17 8373  13.731   6.540  -0.029 -0.3339  0.2746  0.9797
  197ccc    C18 8374  13.730   6.607  -0.172  0.0147 -0.0498  0.3019
  197ccc    H29 8375  13.634   6.560   0.017 -1.7716  0.4251 -1.9018
  197ccc    C19 8376  13.720   6.760  -0.160  0.3380 -0.3362 -0.8713
  197ccc    C20 8377  13.814   6.821  -0.055 -0.3959 -0.2326  0.9841
  197ccc    C21 8378  13.823   6.741   0.076  0.4816 -1.2061 -0.6492
  197ccc    H30 8379  13.913   6.808  -0.100 -0.3674 -1.4376  1.3684
  197ccc    H31 8380  13.617   6.787  -0.134  0.4786 -0.7916  0.1994
  197ccc    H32 8381  13.733   6.755   0.137  1.6631  0.1449  0.8791
  197ccc    O10 8382  13.934   6.789   0.155  0.1101 -0.3911  0.4972
  197ccc    O11 8383  13.753   6.806  -0.288 -0.6531 -0.1683  0.0375
  197ccc    C22 8384  13.759   6.391  -0.043 -0.0623  0.7603 -0.1978
  197ccc    H33 8385  13.846   6.779  -0.299 -1.0043 -1.5156  0.2279
  197ccc    H34 8386  13.697   6.994  -0.005 -0.3522  3.4585 -2.3776
  197ccc    H35 8387  13.707   6.347  -0.128  0.4800 -2.4389  1.0001
  197ccc    H36 8388  13.721   6.337   0.045 -0.0428  1.1617  0.0609
  197ccc    O12 8389  13.895   6.356  -0.068 -0.2339  0.1882 -0.2944
  197ccc    H37 8390  13.951   6.413  -0.012 -0.8673 -0.5461  1.1391
  197ccc    O13 8391  13.834   6.597   0.057 -0.5165  0.2735  0.4312
  197ccc    H38 8392  13.928   6.884   0.135 -1.2589 -0.0530  2.2901
  197ccc    H39 8393  13.825   6.585  -0.222 -0.0202  1.8048 -0.6414
  197ccc     O5 8394  13.621   6.553  -0.247  0.1202  0.2066  0.0812
  197ccc    H40 8395  13.624   6.597  -0.334 -3.1335 -0.3560 -0.4545
  197ccc     N4 8396  13.790   6.971  -0.040 -0.4362 -0.4688 -0.6164
  198ccc     N1 8397  11.095   7.549   3.983 -0.3461 -0.0179  0.1195
  198ccc     H4 8398  11.167   7.478   3.983  0.3504  0.6001 -2.2166
  198ccc     C3 8399  11.072   7.630   4.104 -1.0655 -0.0871 -0.2221
  198ccc     H5 8400  11.172   7.648   4.147 -0.9513  0.6062 -0.7619
  198ccc     C4 8401  10.976   7.572   4.207  0.6486  0.1270 -0.5716
  198ccc     H6 8402  11.036   7.726   4.066 -0.4156  0.8672  1.4666
  198ccc     H7 8403  10.961   7.636   4.294 -0.0499 -1.2033  0.3080
  198ccc     H8 8404  11.017   7.476   4.240  0.3360 -0.2876 -1.3552
  198ccc     N2 8405  10.845   7.540   4.142  0.0648 -0.3036 -0.1212
  198ccc     C5 8406  10.803   7.406   4.141 -0.0938 -0.4194  0.2602
  198ccc     C6 8407  10.737   7.626   4.203 -0.0853 -0.5278  0.2384
  198ccc     H9 8408  10.638   7.601   4.161 -0.5024  1.4605 -0.0434
  198ccc     C7 8409  10.761   7.779   4.180  0.1060 -0.1869  0.5826
  198ccc    H10 8410  10.751   7.610   4.310  3.7145  0.4501  0.0083
  198ccc    H11 8411  10.743   7.795   4.073 -1.0099  1.7146  1.0185
  198ccc    H12 8412  10.862   7.811   4.211 -0.4468  0.9541  1.2729
  198ccc     C8 8413  10.675   7.864   4.262 -0.0260 -0.1720  0.4786
  198ccc     O2 8414  10.580   7.814   4.322 -0.1493  0.6250  0.9065
  198ccc    H13 8415  10.759   7.381   4.238 -2.0706 -1.0987 -0.7652
  198ccc    H14 8416  10.883   7.336   4.114 -0.5330 -0.2203 -1.7682
  198ccc     C9 8417  10.697   7.386   4.047 -0.0477  0.3692  0.2898
  198ccc    H15 8418  10.729   7.425   3.950  0.6442  1.9292  1.1144
  198ccc    H16 8419  10.607   7.440   4.079 -0.0797  0.7484 -0.4290
  198ccc    C10 8420  10.660   7.245   4.036  0.4347  0.3145 -0.6588
  198ccc     O4 8421  10.706   7.166   3.960 -0.3924  0.2172 -0.5706
  198ccc    C11 8422  10.675   8.449   4.473 -0.6741  0.2540 -0.0303
  198ccc    C12 8423  10.691   8.432   4.290  0.0624  0.3012 -0.3322
  198ccc    H17 8424  10.780   8.476   4.490 -0.4779 -0.4705 -0.0725
  198ccc    C13 8425  10.667   8.260   4.209 -0.2591  0.2821  0.0715
  198ccc    C14 8426  10.619   8.105   4.299 -0.2607 -0.2599  0.3054
  198ccc    C15 8427  10.588   8.092   4.475  0.1056 -0.7875 -0.1882
  198ccc    H18 8428  10.530   8.079   4.241  0.4110 -0.6004 -0.6039
  198ccc    H19 8429  10.768   8.243   4.171  0.2699  2.2153  0.5024
  198ccc    H20 8430  10.670   8.031   4.514  0.1231 -0.5732  0.1120
  198ccc     O1 8431  10.463   8.033   4.509 -0.6111  0.7718 -0.1859
  198ccc     O6 8432  10.583   8.271   4.090 -0.6665 -0.3626  0.5731
  198ccc    C16 8433  10.620   8.604   4.494 -0.5573 -0.5307 -0.2623
  198ccc    H21 8434  10.545   8.360   4.081 -0.7809 -0.5487 -1.2832
  198ccc    H22 8435  10.775   8.017   4.191 -0.2426 -0.4557  0.1334
  198ccc    H23 8436  10.708   8.668   4.482  0.0939 -1.1704  0.8802
  198ccc    H24 8437  10.593   8.619   4.599  1.7883 -2.6366  0.7392
  198ccc     O7 8438  10.524   8.647   4.400  0.4496 -0.4671  0.3937
  198ccc    H25 8439  10.529   8.743   4.385  0.7949 -0.3983  0.9336
  198ccc     O8 8440  10.607   8.233   4.573  0.0802 -0.2654 -0.2030
  198ccc    H26 8441  10.464   8.014   4.605  0.4557  1.1546 -0.1041
  198ccc    H27 8442  10.622   8.498   4.237 -0.5844 -0.3656 -0.3368
  198ccc     O9 8443  10.821   8.477   4.246  0.3467 -0.5781 -0.1624
  198ccc    H28 8444  10.812   8.493   4.150 -1.6613  1.2272  0.2531
  198ccc     N3 8445  10.706   7.989   4.260 -0.0594 -1.0015  0.0968
  198ccc    C17 8446  10.447   6.883   4.382  0.4925  0.0823 -0.1976
  198ccc    C18 8447  10.354   6.924   4.269  0.8094 -0.0127 -0.2895
  198ccc    H29 8448  10.422   6.946   4.468 -0.5808  1.0448 -1.1937
  198ccc    C19 8449  10.389   7.058   4.207  0.2039  0.0490  0.1469
  198ccc    C20 8450  10.543   7.073   4.172  0.0359  0.4512  0.2321
  198ccc    C21 8451  10.632   7.033   4.291  0.1169 -0.3844 -0.0389
  198ccc    H30 8452  10.575   7.008   4.091 -0.8549  1.7703 -1.2343
  198ccc    H31 8453  10.370   7.132   4.286 -0.5542  1.7607 -1.5512
  198ccc    H32 8454  10.631   7.110   4.369  2.4870 -0.3531  0.0272
  198ccc    O10 8455  10.768   7.009   4.257 -0.4666  0.2380  0.4752
  198ccc    O11 8456  10.298   7.080   4.101  0.0098 -0.4906  0.2238
  198ccc    C22 8457  10.424   6.734   4.418 -0.8640 -0.1400  0.5614
  198ccc    H33 8458  10.341   7.150   4.049  0.6556  0.8022  2.3775
  198ccc    H34 8459  10.536   7.289   4.190  1.6605 -1.0328  2.2971
  198ccc    H35 8460  10.319   6.725   4.447 -0.9709 -0.7591  0.0013
  198ccc    H36 8461  10.491   6.703   4.499  1.0397 -0.0916 -0.9194
  198ccc    O12 8462  10.454   6.648   4.303  0.3285  0.1924 -0.7038
  198ccc    H37 8463  10.376   6.622   4.252  0.8743 -0.7527 -1.0942
  198ccc    O13 8464  10.586   6.904   4.340 -0.5915  0.5746  0.4848
  198ccc    H38 8465  10.822   7.079   4.298  1.8707 -1.2533  0.2012
  198ccc    H39 8466  10.358   6.847   4.190 -1.6557  0.5843 -1.0767
  198ccc     O5 8467  10.224   6.927   4.316  0.0147  0.7551  0.5220
  198ccc    H40 8468  10.172   6.963   4.243  0.0724  0.6331  0.4196
  198ccc     N4 8469  10.565   7.215   4.127 -0.7618 -0.0635 -0.1202
  199ccc     N1 8470  10.875   7.017   3.576  0.6702  0.6988 -0.5474
  199ccc     H4 8471  10.907   7.037   3.669  0.1708 -1.6428  0.1833
  199ccc     C3 8472  10.768   6.919   3.558  0.2789 -0.2221  0.5557
  199ccc     H5 8473  10.702   6.899   3.644 -2.6600  1.2632 -1.1931
  199ccc     C4 8474  10.835   6.787   3.509 -0.1700 -0.0627 -0.3529
  199ccc     H6 8475  10.707   6.945   3.470  1.5398  1.8094  0.2050
  199ccc     H7 8476  10.879   6.731   3.592  0.9410  0.0175 -0.8761
  199ccc     H8 8477  10.911   6.804   3.432  1.6124 -0.3442  1.2739
  199ccc     N2 8478  10.735   6.703   3.444 -0.8785  0.5429 -0.4694
  199ccc     C5 8479  10.797   6.601   3.357  0.6205 -0.2641  0.4798
  199ccc     C6 8480  10.634   6.647   3.536 -0.2360  0.6904  0.1300
  199ccc     H9 8481  10.643   6.539   3.549 -3.2146  0.1847 -1.0694
  199ccc     C7 8482  10.501   6.659   3.463  0.1243 -0.5586  0.2570
  199ccc    H10 8483  10.637   6.696   3.634  0.1039 -0.2043  0.5787
  199ccc    H11 8484  10.505   6.592   3.376 -0.8711  0.4182 -0.5733
  199ccc    H12 8485  10.492   6.763   3.430 -3.0161 -0.5789  0.6987
  199ccc     C8 8486  10.380   6.618   3.542 -0.6499  0.1798 -0.0672
  199ccc     O2 8487  10.316   6.521   3.515 -0.0535 -0.0625  0.0487
  199ccc    H13 8488  10.724   6.525   3.327  3.2662 -2.4244 -1.0855
  199ccc    H14 8489  10.876   6.548   3.412  1.6786  1.1933  0.4114
  199ccc     C9 8490  10.865   6.659   3.229 -0.3681  0.0179 -0.3224
  199ccc    H15 8491  10.943   6.729   3.260 -0.2375 -0.2229 -0.1068
  199ccc    H16 8492  10.789   6.708   3.167 -1.0638 -1.0754 -0.3768
  199ccc    C10 8493  10.930   6.559   3.135 -0.7441  0.3531  0.3776
  199ccc     O4 8494  10.907   6.440   3.134 -0.3214 -0.0846 -0.3021
  199ccc    C11 8495   9.990   6.763   3.875  0.2960  0.1164 -0.0963
  199ccc    C12 8496   9.964   6.687   3.740  0.3851 -0.3857 -0.5114
  199ccc    H17 8497  10.007   6.871   3.861  1.1964  0.2300  1.6897
  199ccc    C13 8498  10.091   6.701   3.651  0.1717  0.7997  0.4875
  199ccc    C14 8499  10.227   6.673   3.720 -0.1176  0.4398 -0.2215
  199ccc    C15 8500  10.230   6.749   3.855 -0.3091  0.5269  0.0996
  199ccc    H18 8501  10.220   6.566   3.744 -1.6893  0.5553 -0.1116
  199ccc    H19 8502  10.100   6.806   3.623  0.5870  0.9788  1.2683
  199ccc    H20 8503  10.228   6.856   3.829  3.6575  0.5656 -0.5564
  199ccc     O1 8504  10.343   6.726   3.928 -0.0278  0.5543 -0.3485
  199ccc     O6 8505  10.069   6.629   3.526 -0.1533  0.1646  0.3289
  199ccc    C16 8506   9.870   6.742   3.973 -0.1154 -0.3686  1.5436
  199ccc    H21 8507  10.155   6.587   3.507 -0.2217 -0.3691  1.1619
  199ccc    H22 8508  10.399   6.784   3.654 -0.8084  0.2521  0.1104
  199ccc    H23 8509   9.866   6.635   3.996 -0.2491 -0.6044  0.4834
  199ccc    H24 8510   9.776   6.771   3.924  0.0370 -1.6748  0.4126
  199ccc     O7 8511   9.884   6.806   4.096  0.9584  0.1745 -0.4437
  199ccc    H25 8512   9.850   6.896   4.080  0.3603 -0.4911 -3.5764
  199ccc     O8 8513  10.112   6.709   3.935 -0.4057  0.1306 -0.2956
  199ccc    H26 8514  10.414   6.773   3.881  2.5380 -0.8805  1.8081
  199ccc    H27 8515   9.944   6.582   3.763 -0.0934  0.1771  1.8956
  199ccc     O9 8516   9.848   6.745   3.687  0.6883  0.0302  0.4338
  199ccc    H28 8517   9.817   6.673   3.629 -1.0896  1.0510  0.0365
  199ccc     N3 8518  10.348   6.698   3.637 -0.2800  0.0550 -0.4977
  199ccc    C17 8519  11.241   6.538   2.693 -0.2310  0.2804  0.4911
  199ccc    C18 8520  11.326   6.531   2.822  0.4759  0.3351 -0.7041
  199ccc    H29 8521  11.236   6.642   2.660  1.2411 -0.2116 -1.4315
  199ccc    C19 8522  11.247   6.589   2.943 -0.4729  0.9802  0.3206
  199ccc    C20 8523  11.105   6.542   2.952  0.0006  0.3543  0.5061
  199ccc    C21 8524  11.035   6.557   2.813 -0.1639 -0.0632 -0.8671
  199ccc    H30 8525  11.107   6.435   2.975 -2.8482  0.1698  0.2584
  199ccc    H31 8526  11.243   6.697   2.926 -1.3825  0.6520 -1.8496
  199ccc    H32 8527  11.021   6.662   2.782  0.1687  1.0291  2.3127
  199ccc    O10 8528  10.912   6.490   2.814 -0.1642 -0.1330 -0.3086
  199ccc    O11 8529  11.325   6.561   3.067 -0.4385  0.3899  0.2893
  199ccc    C22 8530  11.311   6.459   2.575  0.0467 -0.6877 -0.3463
  199ccc    H33 8531  11.268   6.582   3.143  1.1171 -0.2515  1.7010
  199ccc    H34 8532  11.043   6.710   3.058  1.5954 -0.1274  1.1933
  199ccc    H35 8533  11.310   6.356   2.612  1.4331 -1.5191 -2.4117
  199ccc    H36 8534  11.416   6.483   2.551 -0.0613 -1.1908 -1.3787
  199ccc    O12 8535  11.240   6.467   2.461 -0.0818  0.5027  0.2971
  199ccc    H37 8536  11.282   6.393   2.413  1.6539  1.3448  0.4355
  199ccc    O13 8537  11.111   6.484   2.721 -0.1648 -0.1436  1.0367
  199ccc    H38 8538  10.847   6.529   2.875 -1.4388 -0.4394 -1.4213
  199ccc    H39 8539  11.327   6.423   2.841 -0.9291  0.5116  0.4922
  199ccc     O5 8540  11.456   6.584   2.802 -0.0122 -0.2748  0.1250
  199ccc    H40 8541  11.501   6.570   2.887 -1.5097 -2.4459  0.6368
  199ccc     N4 8542  11.035   6.609   3.066 -0.1280 -0.0272  1.2225
  200ccc     N1 8543  10.381   8.054   2.146 -0.3940  0.5695  0.2331
  200ccc     H4 8544  10.444   8.074   2.223 -0.8241  1.4207  0.3758
  200ccc     C3 8545  10.409   8.101   2.007  0.2593  0.0690 -0.2925
  200ccc     H5 8546  10.403   8.016   1.939 -0.1653 -0.8732  0.8799
  200ccc     C4 8547  10.539   8.174   1.978  0.2446  0.2346 -0.3486
  200ccc     H6 8548  10.331   8.170   1.974  0.1284 -0.1443 -0.4244
  200ccc     H7 8549  10.622   8.103   1.980 -1.2086 -1.5058  0.8309
  200ccc     H8 8550  10.560   8.242   2.062  3.4527  1.0731 -1.6868
  200ccc     N2 8551  10.538   8.239   1.844  0.1475  0.0661 -0.3786
  200ccc     C5 8552  10.461   8.364   1.821 -1.3985 -0.5281 -0.4646
  200ccc     C6 8553  10.528   8.134   1.738  0.2432  0.3739 -0.9391
  200ccc     H9 8554  10.586   8.044   1.763 -0.5359 -0.3238 -1.6241
  200ccc     C7 8555  10.581   8.167   1.602  0.3543 -0.1491  0.5327
  200ccc    H10 8556  10.423   8.104   1.728  0.2986  0.1645 -0.8865
  200ccc    H11 8557  10.690   8.178   1.602  0.2387  1.1901  0.3051
  200ccc    H12 8558  10.546   8.265   1.566 -2.3197 -0.3769  2.2465
  200ccc     C8 8559  10.536   8.067   1.498  0.6069  0.0397  0.3479
  200ccc     O2 8560  10.426   8.069   1.442 -0.2136 -0.1243 -0.6869
  200ccc    H13 8561  10.355   8.345   1.799 -1.5757 -0.0687 -0.0302
  200ccc    H14 8562  10.503   8.408   1.730 -1.8182  1.4816  0.2627
  200ccc     C9 8563  10.473   8.456   1.939 -0.1466 -0.1533  0.5189
  200ccc    H15 8564  10.579   8.481   1.946 -0.2727  0.1047  1.8085
  200ccc    H16 8565  10.435   8.426   2.038  0.7438 -0.1400  0.8789
  200ccc    C10 8566  10.396   8.578   1.912 -0.5745  0.7480  0.9278
  200ccc     O4 8567  10.285   8.576   1.874  0.1290  0.2787  0.5300
  200ccc    C11 8568  10.425   7.769   1.149  0.2990  0.0361  0.3518
  200ccc    C12 8569  10.547   7.846   1.103  0.0628 -0.4631  0.4808
  200ccc    H17 8570  10.345   7.841   1.172  1.7027  0.9720  2.5948
  200ccc    C13 8571  10.579   7.946   1.216 -0.1291 -0.4574  1.4459
  200ccc    C14 8572  10.592   7.878   1.351  0.1293 -0.2425 -0.5797
  200ccc    C15 8573  10.470   7.785   1.382 -0.2492  0.2492  0.0523
  200ccc    H18 8574  10.685   7.821   1.355  1.3271  1.6018 -0.8524
  200ccc    H19 8575  10.505   8.027   1.209  0.5362  0.0244 -0.7667
  200ccc    H20 8576  10.376   7.838   1.403 -0.2797 -0.2614  1.3181
  200ccc     O1 8577  10.506   7.705   1.490  0.3408 -0.1231  0.2138
  200ccc     O6 8578  10.708   7.998   1.175  0.2299  0.3476  0.1445
  200ccc    C16 8579  10.380   7.664   1.045  0.7085 -0.2806 -0.2192
  200ccc    H21 8580  10.725   8.081   1.223  0.4493  1.3235 -1.5634
  200ccc    H22 8581  10.706   7.958   1.518  0.2027  1.0016  0.2394
  200ccc    H23 8582  10.466   7.609   1.005  0.9048  0.7805 -1.3266
  200ccc    H24 8583  10.340   7.717   0.957 -1.9971 -1.7580  0.0271
  200ccc     O7 8584  10.276   7.576   1.086  0.3018  0.1840  0.0036
  200ccc    H25 8585  10.318   7.514   1.149 -0.7764  0.6366  1.2051
  200ccc     O8 8586  10.455   7.692   1.273 -0.0479  0.1095  0.1794
  200ccc    H26 8587  10.474   7.614   1.482 -0.2510  0.0343  0.7204
  200ccc    H27 8588  10.634   7.779   1.093  0.4156  0.1296 -0.5315
  200ccc     O9 8589  10.523   7.919   0.983  0.0561  0.3931  0.4582
  200ccc    H28 8590  10.589   7.989   0.969 -0.3640  1.0859  1.8265
  200ccc     N3 8591  10.625   7.977   1.458 -0.2774  0.3985  0.6954
  200ccc    C17 8592  10.439   9.063   2.116  0.0128 -0.6123  0.2766
  200ccc    C18 8593  10.462   9.078   1.966  0.3443  0.0237  0.1024
  200ccc    H29 8594  10.535   9.025   2.155  0.2849 -0.7500 -0.5175
  200ccc    C19 8595  10.503   8.935   1.912  1.1335  0.6957  0.4160
  200ccc    C20 8596  10.400   8.821   1.956  0.4118 -0.5262 -0.0847
  200ccc    C21 8597  10.359   8.835   2.108  0.2079 -0.3309  0.3630
  200ccc    H30 8598  10.307   8.839   1.901  0.7502  1.1032 -0.1710
  200ccc    H31 8599  10.599   8.906   1.958  1.2522  3.0279  1.8341
  200ccc    H32 8600  10.440   8.792   2.169  0.3699  1.1090  1.2197
  200ccc    O10 8601  10.235   8.770   2.139 -0.8929 -0.1053 -0.2997
  200ccc    O11 8602  10.509   8.923   1.768  0.2706 -0.2567  0.0924
  200ccc    C22 8603  10.398   9.197   2.191 -0.3439  0.2088  0.6619
  200ccc    H33 8604  10.424   8.943   1.724  1.5356 -0.4261 -2.5449
  200ccc    H34 8605  10.557   8.671   1.964  0.5989 -1.1376 -2.3723
  200ccc    H35 8606  10.291   9.212   2.173 -0.2602  0.2629  0.1726
  200ccc    H36 8607  10.444   9.281   2.138 -0.5908  0.1026  0.2743
  200ccc    O12 8608  10.432   9.201   2.331 -0.1827 -0.6623 -0.7044
  200ccc    H37 8609  10.368   9.144   2.377 -1.4940  0.8363 -0.5742
  200ccc    O13 8610  10.330   8.969   2.151 -0.1917  0.4279  0.1602
  200ccc    H38 8611  10.181   8.845   2.171 -1.8311 -0.5315 -0.8360
  200ccc    H39 8612  10.373   9.106   1.909  0.3575 -1.8682 -0.9189
  200ccc     O5 8613  10.574   9.165   1.936  0.0001  0.2770 -0.5556
  200ccc    H40 8614  10.645   9.147   2.000 -0.8663 -1.1392  0.0491
  200ccc     N4 8615  10.463   8.689   1.930  0.0291  0.6859 -0.1223
  201ccc     N1 8616   9.948   7.955   2.849  0.7178 -0.2165 -0.2296
  201ccc     H4 8617   9.904   7.903   2.774 -1.3292  0.7235  0.2685
  201ccc     C3 8618   9.859   7.976   2.969  1.1798 -0.0196  0.1422
  201ccc     H5 8619   9.822   8.078   2.985 -2.9883 -0.8917 -2.5062
  201ccc     C4 8620   9.900   7.919   3.105  0.9509  0.1515  0.1917
  201ccc     H6 8621   9.766   7.932   2.932  1.6242  0.1031 -1.1837
  201ccc     H7 8622   9.954   7.996   3.161 -0.6772  0.6996  1.0720
  201ccc     H8 8623   9.969   7.835   3.093  0.2034 -0.3752 -0.5640
  201ccc     N2 8624   9.780   7.883   3.190  0.2027 -1.0014  0.5478
  201ccc     C5 8625   9.828   7.843   3.318 -0.1426  0.5391 -0.6674
  201ccc     C6 8626   9.681   7.991   3.201  0.0235 -0.2745 -0.4274
  201ccc     H9 8627   9.632   7.990   3.300 -1.4283  1.0879 -1.0761
  201ccc     C7 8628   9.570   7.957   3.110 -0.0494  0.3642 -0.3130
  201ccc    H10 8629   9.719   8.092   3.181  0.8686 -0.8110 -1.5908
  201ccc    H11 8630   9.544   7.852   3.130  1.1972  0.0521 -0.2531
  201ccc    H12 8631   9.586   7.988   3.006 -0.2174  2.6690  0.2762
  201ccc     C8 8632   9.449   8.036   3.148  0.3790  0.1263  0.3654
  201ccc     O2 8633   9.423   8.140   3.094  0.2009 -0.0666  0.8016
  201ccc    H13 8634   9.847   7.928   3.384  1.4795 -0.3153  0.0062
  201ccc    H14 8635   9.916   7.778   3.311 -0.2306  0.0428  1.9631
  201ccc     C9 8636   9.720   7.752   3.379 -0.8133 -0.3873 -0.0070
  201ccc    H15 8637   9.687   7.679   3.305 -0.3160  0.6016 -1.2511
  201ccc    H16 8638   9.641   7.818   3.417  1.6558  2.4659  0.6299
  201ccc    C10 8639   9.777   7.693   3.499  0.4661 -0.3922  0.4658
  201ccc     O4 8640   9.784   7.756   3.601 -0.4922 -0.6114 -0.2303
  201ccc    C11 8641   9.076   8.117   3.533  0.1075  0.1689 -0.3895
  201ccc    C12 8642   9.222   8.179   3.530  0.7743 -0.1115  0.1886
  201ccc    H17 8643   9.079   8.027   3.596  0.1670  0.2436 -0.2853
  201ccc    C13 8644   9.321   8.083   3.460 -0.1431  0.1867 -0.5517
  201ccc    C14 8645   9.263   8.050   3.320  1.1438 -0.0631 -0.7016
  201ccc    C15 8646   9.122   7.995   3.329  0.4088 -0.0225 -0.2968
  201ccc    H18 8647   9.258   8.151   3.279 -0.9993  1.3137  2.5797
  201ccc    H19 8648   9.332   7.989   3.516  2.8341 -0.1476 -1.5383
  201ccc    H20 8649   9.133   7.909   3.396  0.8107  0.5301  0.3591
  201ccc     O1 8650   9.071   7.968   3.195 -0.0651 -0.8766  0.4383
  201ccc     O6 8651   9.454   8.144   3.455 -0.2380 -0.3637 -0.1012
  201ccc    C16 8652   8.957   8.210   3.586  0.1451 -1.1080 -0.0762
  201ccc    H21 8653   9.519   8.087   3.499  0.4982  0.9761  0.6400
  201ccc    H22 8654   9.393   7.889   3.277  0.9190 -0.4817 -0.1861
  201ccc    H23 8655   8.961   8.215   3.695 -1.8106 -1.6061  0.0541
  201ccc    H24 8656   8.861   8.170   3.550 -1.3266  2.1423 -0.0476
  201ccc     O7 8657   8.951   8.344   3.532  0.6971  0.2912 -0.5839
  201ccc    H25 8658   8.900   8.350   3.449  0.2055  3.8395 -0.2001
  201ccc     O8 8659   9.038   8.086   3.397  0.1494  0.9391 -0.0321
  201ccc    H26 8660   9.144   7.919   3.154  1.2472  0.6737  0.8215
  201ccc    H27 8661   9.217   8.272   3.472  0.1811  0.0520  0.4920
  201ccc     O9 8662   9.276   8.215   3.657 -0.0996  0.7658 -0.4643
  201ccc    H28 8663   9.372   8.225   3.652  0.2263 -1.7338 -0.1914
  201ccc     N3 8664   9.358   7.973   3.231  1.0175 -0.3422 -0.0079
  201ccc    C17 8665   9.926   7.196   3.627 -0.4114  1.0684 -0.5778
  201ccc    C18 8666  10.038   7.300   3.609 -0.5643  0.3056 -0.2910
  201ccc    H29 8667   9.902   7.162   3.525  1.0145 -0.5995 -0.4034
  201ccc    C19 8668   9.984   7.421   3.523 -0.5600  1.1520 -0.7602
  201ccc    C20 8669   9.858   7.473   3.575  0.2938  0.0500 -0.0629
  201ccc    C21 8670   9.753   7.361   3.607 -0.1228 -0.4952 -0.1266
  201ccc    H30 8671   9.870   7.515   3.676 -0.0001  0.5383 -0.2288
  201ccc    H31 8672   9.974   7.385   3.420 -1.4538  2.1700 -1.0455
  201ccc    H32 8673   9.720   7.319   3.512 -1.0632 -0.9476  0.3817
  201ccc    O10 8674   9.640   7.423   3.679 -0.3035  0.1410  0.3313
  201ccc    O11 8675  10.082   7.516   3.524 -0.0204 -0.1756 -0.1540
  201ccc    C22 8676   9.961   7.074   3.719  0.1027  0.3579 -0.4197
  201ccc    H33 8677  10.083   7.550   3.433 -0.6657 -1.1792 -0.5419
  201ccc    H34 8678   9.779   7.516   3.392  1.9348  0.4295 -1.1447
  201ccc    H35 8679   9.998   6.987   3.663  1.0129  0.9291 -0.7374
  201ccc    H36 8680   9.866   7.044   3.765  1.0134 -0.7558  0.8232
  201ccc    O12 8681  10.048   7.104   3.830 -0.3669 -0.2176  0.4342
  201ccc    H37 8682   9.999   7.152   3.899 -1.1691  0.8713 -0.8523
  201ccc    O13 8683   9.817   7.263   3.689 -0.0895 -0.7079  0.3261
  201ccc    H38 8684   9.670   7.408   3.771 -0.6517 -1.1182  0.2582
  201ccc    H39 8685  10.081   7.339   3.702  0.0055  1.5573 -1.0572
  201ccc     O5 8686  10.137   7.228   3.535  0.1564 -0.5808 -0.0412
  201ccc    H40 8687  10.212   7.200   3.591  1.1846  1.8809 -0.0764
  201ccc     N4 8688   9.798   7.566   3.479  0.1078  0.1409 -0.5322
  202ccc     N1 8689  12.951   6.899   1.724 -0.3084  0.2973 -0.4249
  202ccc     H4 8690  12.855   6.930   1.710 -0.2883  1.0553  0.9478
  202ccc     C3 8691  12.988   6.755   1.710 -0.4814 -0.1172 -0.1018
  202ccc     H5 8692  13.069   6.746   1.784  0.4527 -0.3192 -1.1193
  202ccc     C4 8693  13.062   6.727   1.575  0.8026  0.0474  0.0322
  202ccc     H6 8694  12.906   6.684   1.722 -0.4361 -0.0693  0.5157
  202ccc     H7 8695  13.114   6.630   1.574  2.7360  1.0397 -0.2849
  202ccc     H8 8696  13.139   6.802   1.554 -0.9204  1.1843 -2.7850
  202ccc     N2 8697  12.969   6.741   1.469  0.1837  0.2277 -0.3020
  202ccc     C5 8698  13.024   6.817   1.361 -0.5567  0.8064  0.0789
  202ccc     C6 8699  12.909   6.612   1.434 -0.1814 -1.5545 -0.1075
  202ccc     H9 8700  12.975   6.553   1.368 -1.9457 -1.4000 -2.1068
  202ccc     C7 8701  12.776   6.626   1.366  0.1273 -0.0423  0.2989
  202ccc    H10 8702  12.897   6.570   1.535 -0.2572 -0.4778  0.3466
  202ccc    H11 8703  12.794   6.635   1.258 -0.0221 -2.1216  0.0600
  202ccc    H12 8704  12.724   6.710   1.414 -0.2704 -0.0237 -0.1608
  202ccc     C8 8705  12.700   6.502   1.373 -0.3841 -0.5915 -0.0430
  202ccc     O2 8706  12.748   6.388   1.390  0.5731  0.3079 -0.0788
  202ccc    H13 8707  12.972   6.783   1.270 -1.2055 -0.5395  0.9130
  202ccc    H14 8708  13.129   6.794   1.340 -1.5738 -3.0086 -1.6809
  202ccc     C9 8709  13.003   6.964   1.371  0.4677 -0.1092 -0.1097
  202ccc    H15 8710  13.044   6.993   1.469  2.9370 -1.3137 -0.6876
  202ccc    H16 8711  12.895   6.983   1.364  0.2383 -1.2958 -0.0833
  202ccc    C10 8712  13.054   7.029   1.246 -0.4027 -0.4702  0.3055
  202ccc     O4 8713  12.990   7.076   1.152  0.1114  0.5859  0.3994
  202ccc    C11 8714  12.348   6.169   1.441 -0.4320  0.9615 -0.2685
  202ccc    C12 8715  12.326   6.295   1.527 -0.3583  0.7673  0.6435
  202ccc    H17 8716  12.435   6.114   1.478 -0.6513  0.4447 -0.5171
  202ccc    C13 8717  12.448   6.392   1.502 -0.3258 -0.3390 -0.2743
  202ccc    C14 8718  12.462   6.430   1.361 -0.5017 -0.2008  0.4009
  202ccc    C15 8719  12.478   6.295   1.281 -0.2789 -0.5658 -0.2434
  202ccc    H18 8720  12.373   6.484   1.326 -0.6007 -0.6093  0.0121
  202ccc    H19 8721  12.537   6.341   1.541 -1.1790 -0.5575  1.4798
  202ccc    H20 8722  12.565   6.235   1.312 -0.8947 -1.0646  0.5453
  202ccc     O1 8723  12.472   6.321   1.141  0.4406  0.0837  0.4559
  202ccc     O6 8724  12.419   6.513   1.569 -0.2608 -0.3889 -0.4541
  202ccc    C16 8725  12.232   6.072   1.456  0.0093 -0.5932  0.0075
  202ccc    H21 8726  12.401   6.578   1.499 -0.5068 -1.0891 -1.0434
  202ccc    H22 8727  12.545   6.621   1.356 -0.4264 -0.8856  3.2391
  202ccc    H23 8728  12.136   6.118   1.430  0.6897 -0.8729 -3.4930
  202ccc    H24 8729  12.223   6.042   1.561 -2.9778 -0.9688 -0.2792
  202ccc     O7 8730  12.250   5.949   1.385 -0.3433 -0.0512  0.7386
  202ccc    H25 8731  12.342   5.921   1.400 -0.1612  0.9792  1.6984
  202ccc     O8 8732  12.364   6.209   1.308 -0.5263  0.1555  0.6921
  202ccc    H26 8733  12.477   6.229   1.109  1.6040  0.1993  0.2620
  202ccc    H27 8734  12.235   6.347   1.496 -1.0950 -1.1497 -0.6534
  202ccc     O9 8735  12.306   6.252   1.663  0.2032  0.0264 -0.5159
  202ccc    H28 8736  12.336   6.325   1.720 -1.2607  0.1008  0.1957
  202ccc     N3 8737  12.575   6.525   1.341 -0.7759 -0.6250  0.3363
  202ccc    C17 8738  13.301   7.295   0.915 -0.3693  0.0229  0.2524
  202ccc    C18 8739  13.347   7.344   1.060 -0.1362  0.4845 -0.3230
  202ccc    H29 8740  13.196   7.322   0.900 -0.1060  2.5882  2.3083
  202ccc    C19 8741  13.275   7.271   1.172 -0.0175 -0.7864  0.6237
  202ccc    C20 8742  13.276   7.118   1.154 -0.1690  0.5718  0.1670
  202ccc    C21 8743  13.249   7.075   1.006 -0.4485  0.9076  0.3705
  202ccc    H30 8744  13.382   7.091   1.167 -0.2697 -0.0741 -0.2904
  202ccc    H31 8745  13.169   7.298   1.167  0.2056  0.0442  0.0815
  202ccc    H32 8746  13.144   7.097   0.981 -0.9932  1.4742  2.8828
  202ccc    O10 8747  13.293   6.938   0.987  0.1461  0.0722 -0.0282
  202ccc    O11 8748  13.333   7.310   1.295 -0.3522  0.1041 -0.1152
  202ccc    C22 8749  13.383   7.354   0.799 -0.2134 -0.0923 -0.7562
  202ccc    H33 8750  13.299   7.256   1.368 -0.7530  1.7727  0.9865
  202ccc    H34 8751  13.228   7.016   1.338 -1.0894  0.1587  0.1695
  202ccc    H35 8752  13.487   7.336   0.829 -0.6328  1.5516  2.0600
  202ccc    H36 8753  13.362   7.462   0.806 -0.2341 -0.1886  1.2408
  202ccc    O12 8754  13.364   7.288   0.673  0.1213 -0.3188  0.4624
  202ccc    H37 8755  13.404   7.200   0.680 -0.3228 -0.5837 -0.2213
  202ccc    O13 8756  13.322   7.153   0.911 -0.0432  0.0005 -0.0908
  202ccc    H38 8757  13.215   6.882   0.972 -0.7597  1.6163 -1.5259
  202ccc    H39 8758  13.456   7.330   1.063  0.2265  2.5186 -1.6546
  202ccc     O5 8759  13.312   7.480   1.067 -0.0685  0.3613 -0.1071
  202ccc    H40 8760  13.358   7.525   1.140  0.2675  0.2957 -0.2799
  202ccc     N4 8761  13.189   7.028   1.245 -0.1897 -0.1416 -0.2676
  203ccc     N1 8762  13.182   7.643   2.015  0.1166  0.5661  0.0629
  203ccc     H4 8763  13.144   7.606   2.101  1.4275 -2.4253 -0.5116
  203ccc     C3 8764  13.224   7.783   1.987 -0.5172 -0.6538  1.0156
  203ccc     H5 8765  13.332   7.781   1.969 -0.4261 -0.3310  1.5240
  203ccc     C4 8766  13.183   7.884   2.090 -0.2113 -0.1045  0.2742
  203ccc     H6 8767  13.183   7.815   1.890  1.5798  0.4886  0.4434
  203ccc     H7 8768  13.212   7.850   2.190 -0.9744  1.8142  1.2169
  203ccc     H8 8769  13.073   7.882   2.090 -0.2241  0.2500  0.9629
  203ccc     N2 8770  13.242   8.013   2.063  0.1850 -0.0100  0.3559
  203ccc     C5 8771  13.173   8.117   2.141  0.2779  0.5247  0.8883
  203ccc     C6 8772  13.390   8.018   2.076  0.3434  1.2961  0.0093
  203ccc     H9 8773  13.413   8.115   2.123 -1.9816  2.1802 -0.5445
  203ccc     C7 8774  13.468   8.009   1.945 -0.1766  0.0985  0.1621
  203ccc    H10 8775  13.427   7.941   2.145  0.2246  0.6607 -0.6232
  203ccc    H11 8776  13.409   7.970   1.861  0.9103 -1.3409  0.0420
  203ccc    H12 8777  13.541   7.930   1.968 -0.7392 -1.1870 -2.1362
  203ccc     C8 8778  13.525   8.143   1.911 -0.3665  0.0920 -0.1177
  203ccc     O2 8779  13.595   8.208   1.995  0.0936  0.7201 -0.5948
  203ccc    H13 8780  13.213   8.122   2.243  1.8914  1.4843  0.2426
  203ccc    H14 8781  13.066   8.093   2.136  0.3905  0.0579  0.7087
  203ccc     C9 8782  13.195   8.248   2.060 -0.0838 -0.2533 -0.1068
  203ccc    H15 8783  13.169   8.215   1.958 -0.1532 -0.6678  0.0423
  203ccc    H16 8784  13.295   8.291   2.047 -1.1479  1.8984 -1.8346
  203ccc    C10 8785  13.105   8.358   2.104 -0.0688 -0.0341  0.1279
  203ccc     O4 8786  12.992   8.369   2.069  0.0483  0.2111 -0.2622
  203ccc    C11 8787  13.510   8.629   1.507  0.1771  0.3815 -0.0397
  203ccc    C12 8788  13.505   8.644   1.709 -0.1252  0.5782  0.2630
  203ccc    H17 8789  13.408   8.658   1.479 -1.1029 -1.2392  2.5630
  203ccc    C13 8790  13.527   8.472   1.816  0.3952  0.4300 -0.2403
  203ccc    C14 8791  13.585   8.302   1.726 -0.4441 -0.3202  0.3168
  203ccc    C15 8792  13.597   8.301   1.520 -0.1253  0.3264 -0.1943
  203ccc    H18 8793  13.689   8.292   1.759  0.0255  1.7964 -0.3340
  203ccc    H19 8794  13.427   8.446   1.853  0.8056  1.4059  1.7168
  203ccc    H20 8795  13.521   8.232   1.485  0.3823 -0.6765  0.6234
  203ccc     O1 8796  13.719   8.244   1.474  0.0606 -0.2384  0.2812
  203ccc     O6 8797  13.586   8.487   1.944  0.5090 -0.0705 -0.2904
  203ccc    C16 8798  13.596   8.748   1.448  0.2011 -0.2545  0.4364
  203ccc    H21 8799  13.602   8.395   1.970  1.6102  0.4009  0.8082
  203ccc    H22 8800  13.451   8.129   1.723 -0.8908 -0.4651  1.2008
  203ccc    H23 8801  13.676   8.774   1.518  0.4087 -0.9780  0.4796
  203ccc    H24 8802  13.542   8.842   1.434 -2.6287 -1.5960  1.4785
  203ccc     O7 8803  13.642   8.696   1.325  0.4818  0.2991 -0.4536
  203ccc    H25 8804  13.660   8.603   1.348  2.3762  1.1376  1.8165
  203ccc     O8 8805  13.562   8.467   1.424  0.0436 -0.3452  0.2249
  203ccc    H26 8806  13.704   8.223   1.380  0.0576  1.8866 -0.2555
  203ccc    H27 8807  13.590   8.710   1.727  1.1015 -0.5598 -1.0387
  203ccc     O9 8808  13.405   8.731   1.761  0.0129 -0.1244  0.1717
  203ccc    H28 8809  13.418   8.719   1.857 -0.7398 -1.9446  0.0697
  203ccc     N3 8810  13.512   8.184   1.784  0.1565 -0.2961  0.0634
  203ccc    C17 8811  13.002   8.824   2.123  0.1233 -0.7541  0.1211
  203ccc    C18 8812  12.975   8.757   2.258  0.0247 -0.0005  0.0785
  203ccc    H29 8813  12.935   8.780   2.048  1.0398 -1.8246 -0.0878
  203ccc    C19 8814  13.000   8.604   2.257  0.4408  0.5725  0.0173
  203ccc    C20 8815  13.140   8.575   2.198  0.2389  0.1854  0.1693
  203ccc    C21 8816  13.155   8.646   2.063  0.4766  0.0583 -0.7191
  203ccc    H30 8817  13.211   8.620   2.269 -0.0255 -1.2678  1.4112
  203ccc    H31 8818  12.924   8.561   2.190  0.6744  0.6049 -0.2694
  203ccc    H32 8819  13.092   8.602   1.985  0.3535 -2.0405  0.4864
  203ccc    O10 8820  13.282   8.648   2.016  0.0069  0.2106  0.0504
  203ccc    O11 8821  12.990   8.553   2.389  0.6323 -0.4436 -0.0967
  203ccc    C22 8822  12.980   8.977   2.115  0.5513  0.1621  0.5990
  203ccc    H33 8823  13.065   8.492   2.403  0.8781 -0.2692 -0.6422
  203ccc    H34 8824  13.269   8.421   2.198 -0.2801 -0.5365 -2.5442
  203ccc    H35 8825  13.049   9.029   2.181  0.1350  3.6474 -1.4622
  203ccc    H36 8826  12.878   8.991   2.154  0.5104 -1.0984  0.9943
  203ccc    O12 8827  12.994   9.013   1.977  1.0301  0.6112 -0.7708
  203ccc    H37 8828  13.075   8.977   1.938  0.2037 -0.4759 -1.5299
  203ccc    O13 8829  13.131   8.791   2.077 -0.0182  0.0173  0.4070
  203ccc    H38 8830  13.339   8.652   2.094 -2.3772  0.7097  1.8753
  203ccc    H39 8831  13.047   8.803   2.328 -0.5010  1.4475 -0.2961
  203ccc     O5 8832  12.848   8.792   2.299 -0.2480 -0.0150 -0.3879
  203ccc    H40 8833  12.837   8.743   2.382  1.2615  2.5709  1.4795
  203ccc     N4 8834  13.169   8.437   2.192 -0.3828 -0.3161 -0.6596
  204ccc     N1 8835  11.797   6.739   3.031 -0.3116  0.1313  0.4784
  204ccc     H4 8836  11.765   6.816   3.089 -0.0078  0.2616  0.4731
  204ccc     C3 8837  11.705   6.626   3.025 -0.1736  0.2702  0.0981
  204ccc     H5 8838  11.603   6.665   3.026 -0.5484 -0.6755  1.6477
  204ccc     C4 8839  11.735   6.526   3.148  0.1084 -0.0339  0.1798
  204ccc     H6 8840  11.715   6.571   2.931  0.6930  0.8507 -0.1677
  204ccc     H7 8841  11.712   6.584   3.238  2.1815  1.9896 -0.4967
  204ccc     H8 8842  11.841   6.501   3.153 -0.2942 -1.9360  0.3037
  204ccc     N2 8843  11.636   6.419   3.134  0.4679 -0.3544 -0.9379
  204ccc     C5 8844  11.609   6.355   3.261 -0.4462 -0.6932  0.3717
  204ccc     C6 8845  11.684   6.316   3.048 -0.7345 -0.6686 -0.0589
  204ccc     H9 8846  11.746   6.362   2.971 -0.8735  1.6734  1.1512
  204ccc     C7 8847  11.569   6.242   2.982  0.3898 -0.1254  0.0998
  204ccc    H10 8848  11.743   6.249   3.111 -1.5028 -0.0615  1.3658
  204ccc    H11 8849  11.481   6.308   2.981 -0.4583 -1.2120 -0.5356
  204ccc    H12 8850  11.537   6.153   3.037 -1.8408  0.9843  0.7099
  204ccc     C8 8851  11.608   6.220   2.839 -0.6545 -0.1939 -0.1729
  204ccc     O2 8852  11.575   6.292   2.749  0.0118 -0.0201 -0.0819
  204ccc    H13 8853  11.707   6.338   3.308 -0.1430 -0.8431 -0.2990
  204ccc    H14 8854  11.554   6.262   3.243 -2.0007  0.6600 -2.6566
  204ccc     C9 8855  11.531   6.450   3.349  0.2101 -0.6775 -0.0345
  204ccc    H15 8856  11.491   6.533   3.290  0.6070  1.4029  2.4360
  204ccc    H16 8857  11.594   6.480   3.434  1.0230  1.1248 -1.2207
  204ccc    C10 8858  11.412   6.376   3.405 -0.6583 -0.2415  0.4420
  204ccc     O4 8859  11.411   6.261   3.446 -0.7478  0.5249  0.8481
  204ccc    C11 8860  12.052   6.139   2.664 -0.2175  0.3021 -0.3743
  204ccc    C12 8861  12.039   6.071   2.807  0.7330 -0.2820  0.3643
  204ccc    H17 8862  12.064   6.248   2.674  0.2341  0.2306 -0.0685
  204ccc    C13 8863  11.896   6.098   2.856  0.2605 -0.3698 -0.0043
  204ccc    C14 8864  11.786   6.070   2.752  0.5406  0.1917  0.2066
  204ccc    C15 8865  11.812   6.149   2.619 -0.3573  0.8585  0.5043
  204ccc    H18 8866  11.790   5.963   2.729  0.2087  0.4950 -1.3164
  204ccc    H19 8867  11.892   6.206   2.877 -1.5616 -0.0785 -1.5987
  204ccc    H20 8868  11.805   6.256   2.639 -1.0888  0.8954  0.0925
  204ccc     O1 8869  11.724   6.113   2.512  0.7347  0.0160  0.1594
  204ccc     O6 8870  11.871   6.023   2.974  0.1570 -0.0748 -0.6642
  204ccc    C16 8871  12.182   6.105   2.593  0.1651  0.1709 -0.5984
  204ccc    H21 8872  11.886   5.929   2.955 -1.0230 -0.7776  1.5502
  204ccc    H22 8873  11.631   6.028   2.883  2.3371 -1.8327 -1.4645
  204ccc    H23 8874  12.269   6.152   2.642 -1.1693  1.8346  0.2686
  204ccc    H24 8875  12.182   6.143   2.490 -2.0704 -1.1153 -1.1207
  204ccc     O7 8876  12.197   5.965   2.588 -0.0486 -0.0774  0.2934
  204ccc    H25 8877  12.137   5.948   2.513  1.4310  1.0018 -1.2256
  204ccc     O8 8878  11.943   6.111   2.578 -0.1974  0.1332 -0.4391
  204ccc    H26 8879  11.741   6.018   2.501  0.5617 -0.6738  4.2730
  204ccc    H27 8880  12.047   5.961   2.801 -0.7200 -0.4674  1.2659
  204ccc     O9 8881  12.132   6.127   2.894  0.4945 -0.2337 -0.0650
  204ccc    H28 8882  12.098   6.212   2.926 -0.6109 -0.8113  0.3281
  204ccc     N3 8883  11.655   6.095   2.809  0.6727 -0.2744 -0.6701
  204ccc    C17 8884  10.971   6.159   3.482 -0.0088 -0.1552  0.1664
  204ccc    C18 8885  10.979   6.281   3.582  0.7410 -0.4305  0.2247
  204ccc    H29 8886  11.033   6.076   3.519 -1.0576 -0.9449  0.2082
  204ccc    C19 8887  11.115   6.361   3.578  0.0428  0.9231 -0.0266
  204ccc    C20 8888  11.167   6.401   3.436  0.7333 -0.4629  0.2913
  204ccc    C21 8889  11.141   6.279   3.336 -0.4117 -0.3023 -0.5315
  204ccc    H30 8890  11.094   6.475   3.401  2.2685  1.0230  0.1029
  204ccc    H31 8891  11.185   6.297   3.633 -0.3478  1.3037  0.9412
  204ccc    H32 8892  11.212   6.199   3.358 -0.8971 -0.8555 -0.9400
  204ccc    O10 8893  11.143   6.313   3.201 -0.1916  0.2402 -0.6363
  204ccc    O11 8894  11.091   6.474   3.660 -0.2454 -0.1519  0.3288
  204ccc    C22 8895  10.829   6.096   3.456  0.1846 -0.3197 -0.1262
  204ccc    H33 8896  11.059   6.455   3.750 -1.1769  1.9915  0.4929
  204ccc    H34 8897  11.302   6.552   3.378  1.1393  1.0026  1.1951
  204ccc    H35 8898  10.794   6.071   3.557  0.0567 -0.3776 -0.1851
  204ccc    H36 8899  10.834   6.020   3.378  0.8659  1.1027 -1.5183
  204ccc    O12 8900  10.740   6.197   3.406 -0.4259  0.1036 -0.0925
  204ccc    H37 8901  10.786   6.216   3.322  0.4134  0.7664  0.5010
  204ccc    O13 8902  11.003   6.223   3.357 -0.8002 -0.1953 -0.3587
  204ccc    H38 8903  11.064   6.369   3.211 -0.0182  0.1814  1.4656
  204ccc    H39 8904  10.899   6.353   3.561 -0.4535 -1.8320 -0.2043
  204ccc     O5 8905  10.952   6.243   3.712  0.2851 -0.5789  0.0587
  204ccc    H40 8906  10.898   6.317   3.745 -0.1156  0.2848 -2.3724
  204ccc     N4 8907  11.305   6.459   3.420  0.2747  0.3605 -0.1011
  205ccc     N1 8908  12.537   7.104   3.297 -0.0340  0.3874  0.6534
  205ccc     H4 8909  12.502   7.194   3.265  1.8221  0.5565 -1.0865
  205ccc     C3 8910  12.665   7.101   3.370  0.0848  0.7539 -0.6139
  205ccc     H5 8911  12.664   7.164   3.459 -0.2384  0.6940 -0.5745
  205ccc     C4 8912  12.791   7.129   3.287 -0.9374 -0.3122 -0.7089
  205ccc     H6 8913  12.669   7.002   3.417  1.7807  1.5061  0.9651
  205ccc     H7 8914  12.788   7.062   3.199 -0.8956 -3.9554  1.8421
  205ccc     H8 8915  12.879   7.107   3.347 -1.3059 -1.0499 -0.4196
  205ccc     N2 8916  12.780   7.268   3.244  0.5758  0.1665  0.2874
  205ccc     C5 8917  12.842   7.287   3.109 -0.3424 -0.3119 -0.1554
  205ccc     C6 8918  12.838   7.354   3.348  0.2790  0.5436  0.3978
  205ccc     H9 8919  12.814   7.314   3.448 -2.1329 -1.7129 -0.9524
  205ccc     C7 8920  12.779   7.495   3.335  0.1989 -1.1128  0.8676
  205ccc    H10 8921  12.947   7.360   3.355  0.5005 -0.8379 -1.2070
  205ccc    H11 8922  12.670   7.485   3.338  0.0026  0.1090 -1.0293
  205ccc    H12 8923  12.807   7.533   3.236 -1.9891 -0.5224  0.4118
  205ccc     C8 8924  12.821   7.596   3.443 -0.4843 -0.0790 -0.7398
  205ccc     O2 8925  12.812   7.591   3.562 -0.6326  0.0032  0.1587
  205ccc    H13 8926  12.926   7.217   3.098 -2.1299 -2.4404 -0.9670
  205ccc    H14 8927  12.869   7.391   3.089  1.2882 -0.3015  1.7560
  205ccc     C9 8928  12.749   7.243   3.004  0.4735  0.2623 -0.4428
  205ccc    H15 8929  12.657   7.301   3.015 -0.1801 -1.0869  1.9235
  205ccc    H16 8930  12.727   7.136   3.006 -0.3036  0.3955 -1.5125
  205ccc    C10 8931  12.806   7.268   2.865  0.2578 -0.0957 -0.1724
  205ccc     O4 8932  12.909   7.328   2.839 -0.1416  1.1671  0.2629
  205ccc    C11 8933  13.082   7.907   3.728 -0.3315 -0.4324 -0.7133
  205ccc    C12 8934  13.175   7.812   3.655 -0.1746  0.5233  0.5377
  205ccc    H17 8935  13.035   7.854   3.811 -0.4393  1.9969  0.8887
  205ccc    C13 8936  13.101   7.710   3.565  0.0122  0.4453 -0.2374
  205ccc    C14 8937  12.990   7.779   3.478 -0.1864  0.6739  0.0812
  205ccc    C15 8938  12.905   7.872   3.569  0.1612 -0.2166 -0.6192
  205ccc    H18 8939  13.047   7.845   3.412  0.2985 -0.2319 -0.4207
  205ccc    H19 8940  13.054   7.628   3.620 -1.3269 -0.1018 -2.0793
  205ccc    H20 8941  12.844   7.815   3.640 -0.4465  0.9775 -0.1453
  205ccc     O1 8942  12.825   7.954   3.486  0.1593 -0.0862  0.0140
  205ccc     O6 8943  13.206   7.660   3.486 -0.1471  0.4592  0.4041
  205ccc    C16 8944  13.162   8.030   3.790  0.5912  0.2398 -0.4828
  205ccc    H21 8945  13.279   7.620   3.536  1.8286  0.6821 -2.1198
  205ccc    H22 8946  12.968   7.641   3.323  0.3678 -0.4096 -0.1650
  205ccc    H23 8947  13.182   8.092   3.702 -2.2161  0.6042 -0.9577
  205ccc    H24 8948  13.251   7.997   3.845  0.0798  1.4321  1.1372
  205ccc     O7 8949  13.081   8.097   3.887 -0.3074  0.3382  0.4466
  205ccc    H25 8950  12.989   8.096   3.856  0.1275 -0.6160 -0.9311
  205ccc     O8 8951  12.982   7.965   3.638 -0.0817  0.1771 -0.1110
  205ccc    H26 8952  12.737   7.920   3.511  0.9363 -2.6492 -0.4385
  205ccc    H27 8953  13.243   7.869   3.590  0.0112 -0.0666  0.2004
  205ccc     O9 8954  13.251   7.736   3.756  0.9016 -0.1334  0.2953
  205ccc    H28 8955  13.321   7.684   3.713  1.8128  0.0122  1.5518
  205ccc     N3 8956  12.908   7.681   3.395 -0.1507 -0.2058 -0.7047
  205ccc    C17 8957  12.507   6.913   2.567 -0.5697  0.0842  0.4736
  205ccc    C18 8958  12.586   6.871   2.700 -0.3227  0.1531 -0.1280
  205ccc    H29 8959  12.578   6.910   2.483 -0.4372 -0.2885  0.5940
  205ccc    C19 8960  12.701   6.965   2.727 -0.0786  0.2113 -0.5569
  205ccc    C20 8961  12.650   7.113   2.737  0.6682 -0.3700 -0.0584
  205ccc    C21 8962  12.555   7.152   2.612 -0.1154  0.2498 -0.8719
  205ccc    H30 8963  12.587   7.100   2.826  2.6825  0.0926  1.5238
  205ccc    H31 8964  12.752   6.952   2.631 -4.2184 -2.8167 -2.6918
  205ccc    H32 8965  12.617   7.161   2.522  0.6632 -1.2904 -0.5323
  205ccc    O10 8966  12.480   7.274   2.633 -0.3566  1.0720  0.0599
  205ccc    O11 8967  12.780   6.929   2.843  0.0459 -0.2495 -0.3220
  205ccc    C22 8968  12.374   6.833   2.542  0.5520  0.1763 -0.5510
  205ccc    H33 8969  12.854   6.993   2.844  0.3615 -0.6088 -0.5038
  205ccc    H34 8970  12.808   7.232   2.669  0.1709 -1.0046 -0.4356
  205ccc    H35 8971  12.297   6.884   2.601  0.5252  0.3812 -0.7636
  205ccc    H36 8972  12.395   6.736   2.588  1.5069  0.4648 -0.3661
  205ccc    O12 8973  12.340   6.828   2.397 -0.5932  0.2294  0.3929
  205ccc    H37 8974  12.249   6.796   2.385 -0.6773  0.8037 -0.6328
  205ccc    O13 8975  12.463   7.048   2.593  0.3799 -0.4105  0.6556
  205ccc    H38 8976  12.489   7.346   2.569  2.6756  1.9713  1.3420
  205ccc    H39 8977  12.511   6.875   2.780  0.3423 -1.1882  0.6043
  205ccc     O5 8978  12.632   6.735   2.683 -0.4651  0.2029 -0.0823
  205ccc    H40 8979  12.699   6.727   2.753 -1.6668  1.3710  1.2522
  205ccc     N4 8980  12.755   7.211   2.753 -0.5058 -0.7438 -0.7960
  206ccc     N1 8981  13.060  11.371   2.254 -0.5214 -0.2094  0.2579
  206ccc     H4 8982  12.979  11.409   2.206  0.1781 -0.1064 -0.8873
  206ccc     C3 8983  13.192  11.435   2.220  0.1088  0.1552  0.0564
  206ccc     H5 8984  13.180  11.544   2.232 -1.2610  0.0307 -0.0485
  206ccc     C4 8985  13.250  11.399   2.089  0.1660  0.6447 -0.1751
  206ccc     H6 8986  13.268  11.395   2.289 -1.3161 -0.4643  1.3366
  206ccc     H7 8987  13.285  11.296   2.100  0.7007  0.8442  0.0631
  206ccc     H8 8988  13.336  11.465   2.072  1.3227 -0.6814  0.3746
  206ccc     N2 8989  13.155  11.413   1.977 -0.0076 -0.3965 -0.2744
  206ccc     C5 8990  13.142  11.552   1.930 -0.7919 -0.4854 -0.2013
  206ccc     C6 8991  13.179  11.326   1.857  0.4291  0.6424 -0.0525
  206ccc     H9 8992  13.099  11.341   1.784  0.9006  1.9633 -0.3284
  206ccc     C7 8993  13.175  11.176   1.897 -0.8510 -0.7374 -0.0425
  206ccc    H10 8994  13.273  11.346   1.805  1.5060 -2.6837  0.3858
  206ccc    H11 8995  13.092  11.157   1.966 -1.5185  0.2965 -0.5484
  206ccc    H12 8996  13.265  11.147   1.952 -1.3158 -1.8700  0.1644
  206ccc     C8 8997  13.170  11.089   1.775 -0.1036 -0.2016  0.4526
  206ccc     O2 8998  13.258  11.034   1.714 -0.1907 -0.1995 -0.0155
  206ccc    H13 8999  13.226  11.580   1.864 -1.2979 -0.1626 -0.7241
  206ccc    H14 9000  13.141  11.619   2.016 -1.0948 -1.4636  0.5734
  206ccc     C9 9001  13.014  11.572   1.852 -0.1008  0.0518 -0.3717
  206ccc    H15 9002  12.930  11.540   1.915 -0.0512  0.0622 -0.3006
  206ccc    H16 9003  13.018  11.515   1.759  1.1247 -1.7397  0.7048
  206ccc    C10 9004  12.984  11.716   1.823 -0.7348  0.0331  0.3085
  206ccc     O4 9005  13.067  11.802   1.804 -0.1930 -0.5255  0.5029
  206ccc    C11 9006  12.846  10.963   1.376  0.1420 -0.5048 -0.1214
  206ccc    C12 9007  12.800  11.091   1.440 -0.1359  0.1667  0.1832
  206ccc    H17 9008  12.791  10.884   1.429 -0.5017 -0.5600 -0.8677
  206ccc    C13 9009  12.862  11.109   1.581  0.0323  0.0477  0.5052
  206ccc    C14 9010  13.010  11.069   1.587 -0.4642 -0.2395  0.1798
  206ccc    C15 9011  13.037  10.940   1.513 -0.4744 -0.1408  0.1723
  206ccc    H18 9012  13.062  11.152   1.539 -2.1737  0.8640  0.1312
  206ccc    H19 9013  12.796  11.042   1.638 -0.6165  1.3303  1.3164
  206ccc    H20 9014  12.987  10.855   1.560 -0.4068 -0.9000 -1.0855
  206ccc     O1 9015  13.179  10.922   1.503  0.2778 -0.4210 -0.3144
  206ccc     O6 9016  12.846  11.244   1.635  0.4717 -0.4388  0.4072
  206ccc    C16 9017  12.792  10.941   1.233  0.7236  1.1555  0.6356
  206ccc    H21 9018  12.870  11.316   1.574 -1.1040 -0.5510 -0.3979
  206ccc    H22 9019  12.984  11.123   1.787  0.8514 -1.2501  1.8086
  206ccc    H23 9020  12.785  11.035   1.176 -2.7724  1.6777  1.6683
  206ccc    H24 9021  12.692  10.897   1.244  0.6888  0.9664 -0.3932
  206ccc     O7 9022  12.880  10.844   1.168  0.3051 -0.1835 -0.7748
  206ccc    H25 9023  12.975  10.858   1.187  0.2282  0.1910 -0.6552
  206ccc     O8 9024  12.989  10.949   1.376  0.1095 -0.6298  0.4973
  206ccc    H26 9025  13.207  10.959   1.589  0.2830 -0.2165 -0.4064
  206ccc    H27 9026  12.844  11.175   1.384  2.1643 -0.6118  0.7131
  206ccc     O9 9027  12.656  11.110   1.431 -0.4756  0.0290  0.0797
  206ccc    H28 9028  12.621  11.166   1.502 -1.5718  0.1477 -0.5315
  206ccc     N3 9029  13.047  11.065   1.732 -0.3487 -0.4474 -0.5625
  206ccc    C17 9030  12.824  12.147   1.937  0.3727  0.1413 -0.1512
  206ccc    C18 9031  12.763  12.116   1.799 -0.2622  0.2206  0.1430
  206ccc    H29 9032  12.933  12.156   1.935  0.3607  0.2997 -2.5809
  206ccc    C19 9033  12.810  11.977   1.739  0.4592 -0.0686 -0.3421
  206ccc    C20 9034  12.799  11.871   1.844 -0.1692  0.0978 -0.5467
  206ccc    C21 9035  12.851  11.917   1.986 -0.0109  0.1566 -0.3658
  206ccc    H30 9036  12.691  11.858   1.858 -0.2449 -0.1271 -1.2704
  206ccc    H31 9037  12.913  11.997   1.708  0.2988  1.6451  0.1264
  206ccc    H32 9038  12.961  11.920   1.989  0.3593 -3.7936 -2.5606
  206ccc    O10 9039  12.813  11.829   2.084 -0.2682  0.0122 -0.4495
  206ccc    O11 9040  12.725  11.946   1.628  0.6023  0.1733  0.5156
  206ccc    C22 9041  12.771  12.293   1.981  0.2656  0.4864  0.2356
  206ccc    H33 9042  12.633  11.975   1.642  0.3240  1.0953 -2.5244
  206ccc    H34 9043  12.797  11.668   1.861 -2.6455  1.9786  0.6859
  206ccc    H35 9044  12.832  12.365   1.924  3.2185 -1.3189  0.8563
  206ccc    H36 9045  12.803  12.308   2.085  0.3977 -0.7884  0.3850
  206ccc    O12 9046  12.628  12.310   1.961  0.0396  0.2172  0.0421
  206ccc    H37 9047  12.581  12.269   2.035  1.8995 -0.8432  0.6988
  206ccc    O13 9048  12.795  12.044   2.031  0.1740  0.3504 -0.0091
  206ccc    H38 9049  12.872  11.858   2.156 -0.4395  0.1965 -0.3810
  206ccc    H39 9050  12.654  12.108   1.814  0.0852  0.7510  3.9412
  206ccc     O5 9051  12.797  12.221   1.706  0.1914 -0.2145  0.1730
  206ccc    H40 9052  12.715  12.263   1.675  0.0107  0.0333  0.9673
  206ccc     N4 9053  12.855  11.738   1.815  0.1426 -0.3393  0.3480
  207ccc     N1 9054  12.509  11.389   1.941  0.1287 -0.3543  0.0074
  207ccc     H4 9055  12.482  11.291   1.941  2.0655 -0.9317 -0.5395
  207ccc     C3 9056  12.407  11.495   1.938  0.0361 -0.1336  0.3969
  207ccc     H5 9057  12.304  11.460   1.954 -1.3097  2.8933 -0.9463
  207ccc     C4 9058  12.418  11.567   1.802  0.6303 -0.3760 -0.1067
  207ccc     H6 9059  12.425  11.566   2.020 -0.8230 -1.8743  2.2080
  207ccc     H7 9060  12.422  11.487   1.727  1.2555 -0.1757 -0.2923
  207ccc     H8 9061  12.502  11.638   1.801  0.1567  0.2073  0.6757
  207ccc     N2 9062  12.288  11.637   1.788  0.1337 -0.1010 -0.0524
  207ccc     C5 9063  12.187  11.556   1.719  0.4097  0.1220 -0.4049
  207ccc     C6 9064  12.299  11.770   1.723 -0.4176 -0.5262  0.3983
  207ccc     H9 9065  12.376  11.768   1.645 -0.9981  0.6800 -0.2262
  207ccc     C7 9066  12.340  11.869   1.828  0.5142 -0.2253  0.5276
  207ccc    H10 9067  12.211  11.807   1.669 -0.0944 -0.7871 -0.3169
  207ccc    H11 9068  12.438  11.834   1.864  1.5256  0.5175 -1.3507
  207ccc    H12 9069  12.266  11.869   1.908  0.6169  1.7710  0.6751
  207ccc     C8 9070  12.360  12.000   1.760 -0.4126  0.1400  0.6320
  207ccc     O2 9071  12.463  12.028   1.696 -0.0141 -0.4328  0.2218
  207ccc    H13 9072  12.201  11.458   1.765  0.3641  0.0767 -0.4887
  207ccc    H14 9073  12.189  11.548   1.610  0.8251 -0.7232 -0.3420
  207ccc     C9 9074  12.050  11.599   1.758  0.1047 -0.4554  0.1148
  207ccc    H15 9075  12.013  11.675   1.689 -1.5677 -1.0807  0.2686
  207ccc    H16 9076  12.064  11.646   1.857  1.0356 -2.0542  0.7795
  207ccc    C10 9077  11.956  11.481   1.769 -0.2229 -0.0087 -0.0442
  207ccc     O4 9078  11.982  11.368   1.735  0.1943 -0.5772 -0.3411
  207ccc    C11 9079  12.103  12.451   1.607 -0.2864 -0.3145 -0.3934
  207ccc    C12 9080  12.194  12.463   1.731 -0.0949  0.1289  0.0105
  207ccc    H17 9081  12.000  12.460   1.642 -1.6651 -2.4599 -3.4534
  207ccc    C13 9082  12.225  12.323   1.798  0.0605 -0.5819 -0.2402
  207ccc    C14 9083  12.250  12.212   1.692  0.5158  0.0830  0.0305
  207ccc    C15 9084  12.133  12.210   1.594  1.0301  0.0458 -0.0526
  207ccc    H18 9085  12.345  12.233   1.643  1.6172  2.4882  2.9328
  207ccc    H19 9086  12.140  12.290   1.859 -0.6536  1.5833  0.0168
  207ccc    H20 9087  12.038  12.185   1.643  1.4289  1.5205  1.5841
  207ccc     O1 9088  12.150  12.121   1.488 -0.5609  0.2674 -0.4468
  207ccc     O6 9089  12.336  12.328   1.886  0.4571 -0.2697  0.5145
  207ccc    C16 9090  12.135  12.579   1.510  0.0669  0.3029  0.0020
  207ccc    H21 9091  12.372  12.238   1.893 -0.0532 -0.6593 -1.3294
  207ccc    H22 9092  12.177  12.062   1.811 -0.5531  1.1561  1.1673
  207ccc    H23 9093  12.236  12.565   1.470  0.2271 -0.6926  0.7015
  207ccc    H24 9094  12.132  12.665   1.579 -3.1836  0.4155 -0.1397
  207ccc     O7 9095  12.031  12.591   1.410  0.0991 -0.0425  0.2550
  207ccc    H25 9096  12.056  12.663   1.350 -1.8803  0.1853 -0.3686
  207ccc     O8 9097  12.127  12.332   1.521 -0.1303 -0.4291 -0.0349
  207ccc    H26 9098  12.081  12.140   1.422 -1.4952 -1.0384  0.1111
  207ccc    H27 9099  12.293  12.503   1.708 -0.3499  0.4538 -0.5294
  207ccc     O9 9100  12.132  12.550   1.826  0.5357 -0.0563 -0.1898
  207ccc    H28 9101  12.167  12.637   1.800  2.6402 -0.8477 -0.1328
  207ccc     N3 9102  12.264  12.086   1.764 -0.5312 -0.8140  0.0745
  207ccc    C17 9103  11.537  11.796   1.890  0.8000 -0.3306  0.6537
  207ccc    C18 9104  11.614  11.750   2.013  0.3426  0.1643 -0.6724
  207ccc    H29 9105  11.453  11.727   1.880 -1.1331  1.8594  0.7876
  207ccc    C19 9106  11.681  11.612   1.990  0.3171 -0.6877 -0.0756
  207ccc    C20 9107  11.769  11.618   1.857 -0.9624  0.0841  0.2280
  207ccc    C21 9108  11.681  11.665   1.738  0.2454 -0.2681 -0.1130
  207ccc    H30 9109  11.839  11.700   1.881 -1.6151  0.6731  0.1453
  207ccc    H31 9110  11.598  11.539   1.982 -0.4771 -0.0398  1.7507
  207ccc    H32 9111  11.607  11.587   1.715  0.3764 -0.1900 -0.8183
  207ccc    O10 9112  11.743  11.704   1.615 -0.2538 -0.4412 -0.0275
  207ccc    O11 9113  11.755  11.575   2.105 -0.0051  0.1912  0.3253
  207ccc    C22 9114  11.487  11.943   1.897 -0.3453 -0.1199 -1.0866
  207ccc    H33 9115  11.831  11.636   2.110 -1.2614  1.6879  2.7718
  207ccc    H34 9116  11.787  11.407   1.860  0.3167 -0.2979  0.2532
  207ccc    H35 9117  11.397  11.954   1.960 -0.1031  1.7712 -1.0158
  207ccc    H36 9118  11.454  11.977   1.798  1.0330  0.9764 -1.1915
  207ccc    O12 9119  11.580  12.039   1.968 -0.1770  0.2042  0.0591
  207ccc    H37 9120  11.550  12.121   1.925 -1.1501 -0.9559 -1.6217
  207ccc    O13 9121  11.621  11.793   1.768  0.1287  0.2361 -0.5962
  207ccc    H38 9122  11.697  11.782   1.580  1.9227  2.0904  2.2295
  207ccc    H39 9123  11.696  11.820   2.033  0.0282 -0.0555  1.7461
  207ccc     O5 9124  11.522  11.742   2.121 -0.2266  0.0371  0.3128
  207ccc    H40 9125  11.581  11.765   2.195  2.0773  1.9157 -1.9051
  207ccc     N4 9126  11.843  11.490   1.842  0.2541 -0.1694  0.6348
  208ccc     N1 9127  13.216  10.581   0.387  0.0675  0.2246  0.8892
  208ccc     H4 9128  13.264  10.494   0.405 -1.7204 -0.9109  0.4431
  208ccc     C3 9129  13.220  10.637   0.252  0.1008 -0.7891  0.1752
  208ccc     H5 9130  13.233  10.746   0.265 -0.0703 -0.8349  0.7328
  208ccc     C4 9131  13.089  10.607   0.169 -0.1651 -0.4830  0.1418
  208ccc     H6 9132  13.305  10.596   0.196  0.1844 -3.6716  2.2385
  208ccc     H7 9133  13.103  10.661   0.075  1.9931 -0.7429  0.2601
  208ccc     H8 9134  13.007  10.640   0.234 -0.4517 -0.3254 -0.3044
  208ccc     N2 9135  13.081  10.459   0.159  0.4425 -0.0751  0.1438
  208ccc     C5 9136  13.173  10.400   0.052 -0.3697  0.4917 -0.2367
  208ccc     C6 9137  12.938  10.426   0.149 -0.3068  0.1213  0.7650
  208ccc     H9 9138  12.880  10.519   0.164  0.7406  1.1066 -1.0243
  208ccc     C7 9139  12.903  10.337   0.273  0.2213  0.1664  0.1104
  208ccc    H10 9140  12.904  10.386   0.053 -0.8114  1.1397  0.4950
  208ccc    H11 9141  12.926  10.387   0.368  0.2074  1.8247 -0.7110
  208ccc    H12 9142  12.955  10.240   0.271 -0.8355 -0.5493  2.7420
  208ccc     C8 9143  12.756  10.314   0.266  0.6559  0.1748 -0.0027
  208ccc     O2 9144  12.715  10.220   0.202 -0.0887  0.5243  0.1240
  208ccc    H13 9145  13.275  10.414   0.090  0.7484  0.7667 -3.1089
  208ccc    H14 9146  13.152  10.448  -0.044  0.4714 -0.4141 -0.8950
  208ccc     C9 9147  13.163  10.247   0.044  0.1526  0.1997 -0.2149
  208ccc    H15 9148  13.069  10.207   0.002 -0.6176  0.1744  1.4729
  208ccc    H16 9149  13.167  10.205   0.145 -0.5425  1.8906  0.5608
  208ccc    C10 9150  13.282  10.191  -0.032  0.0015 -0.5839  0.2180
  208ccc     O4 9151  13.379  10.142   0.023 -0.0007  0.4933 -0.0748
  208ccc    C11 9152  12.365  10.367   0.609 -0.1462  0.3062 -0.6665
  208ccc    C12 9153  12.326  10.408   0.464  0.0277  0.3690 -0.2164
  208ccc    H17 9154  12.411  10.451   0.662  0.0712 -0.8508  1.0741
  208ccc    C13 9155  12.458  10.458   0.398 -0.1827  0.2255  0.4767
  208ccc    C14 9156  12.564  10.341   0.398 -0.0394 -0.4868  0.0653
  208ccc    C15 9157  12.587  10.290   0.539 -0.0173 -0.2270 -0.0928
  208ccc    H18 9158  12.519  10.262   0.336 -0.0457  0.4536 -1.1618
  208ccc    H19 9159  12.491  10.547   0.453  0.4881 -0.3478  1.0155
  208ccc    H20 9160  12.623  10.382   0.588 -0.4860  0.9641 -1.8602
  208ccc     O1 9161  12.674  10.180   0.546  0.8417 -0.0792 -0.0027
  208ccc     O6 9162  12.443  10.491   0.261  0.1345 -0.7240  0.4915
  208ccc    C16 9163  12.245  10.317   0.688 -0.2586 -0.0269  0.5470
  208ccc    H21 9164  12.391  10.573   0.258 -1.5003 -1.7593 -1.8630
  208ccc    H22 9165  12.722  10.478   0.389  1.8244  0.3644 -0.6186
  208ccc    H23 9166  12.169  10.395   0.697 -1.1609 -0.2238 -3.4368
  208ccc    H24 9167  12.280  10.308   0.791  1.1308  0.2175  0.1111
  208ccc     O7 9168  12.200  10.188   0.649 -0.2494  0.9693 -0.3225
  208ccc    H25 9169  12.288  10.146   0.656 -0.2142  1.0790 -0.0941
  208ccc     O8 9170  12.457  10.256   0.594 -0.3530  0.1947 -0.2468
  208ccc    H26 9171  12.623  10.107   0.506 -0.5672  0.2517  1.1129
  208ccc    H27 9172  12.282  10.320   0.417 -0.4707  1.4368 -1.8296
  208ccc     O9 9173  12.229  10.512   0.457 -0.1993  0.2836 -0.5409
  208ccc    H28 9174  12.158  10.467   0.407 -1.0749 -0.4840  1.3244
  208ccc     N3 9175  12.685  10.397   0.340  0.7205 -0.1322  0.9521
  208ccc    C17 9176  13.518  10.122  -0.519  0.0076 -0.8702  0.4863
  208ccc    C18 9177  13.444  10.261  -0.515  0.0633  0.3909 -0.0785
  208ccc    H29 9178  13.453  10.046  -0.563  1.0041 -1.8228  0.6290
  208ccc    C19 9179  13.329  10.252  -0.410  0.3103  0.0991  0.4667
  208ccc    C20 9180  13.393  10.208  -0.273  0.6084 -0.8006  0.3035
  208ccc    C21 9181  13.466  10.070  -0.289  0.4328  0.2096  0.0239
  208ccc    H30 9182  13.464  10.289  -0.249 -0.9654  0.5047  0.7206
  208ccc    H31 9183  13.254  10.185  -0.454 -1.4684  2.4851 -0.3223
  208ccc    H32 9184  13.400   9.990  -0.325  1.1407  0.7628 -2.7255
  208ccc    O10 9185  13.528  10.031  -0.166  0.3959  0.0323  0.3264
  208ccc    O11 9186  13.262  10.378  -0.390 -0.7414  1.1501 -0.0829
  208ccc    C22 9187  13.647  10.126  -0.602  0.0420 -0.2695  0.0042
  208ccc    H33 9188  13.186  10.380  -0.450  0.2708 -1.7752 -1.7209
  208ccc    H34 9189  13.194  10.247  -0.203  0.4760 -0.2034 -0.8409
  208ccc    H35 9190  13.623  10.138  -0.708  0.6054  1.5010  0.0508
  208ccc    H36 9191  13.695  10.029  -0.584 -0.0674 -0.3975 -0.3981
  208ccc    O12 9192  13.731  10.233  -0.567  0.3530  0.2312 -0.5069
  208ccc    H37 9193  13.743  10.237  -0.470  1.6707  0.5325 -0.6598
  208ccc    O13 9194  13.561  10.082  -0.390 -0.5085 -0.2408 -0.4511
  208ccc    H38 9195  13.471  10.061  -0.093  0.4715 -1.5539  1.0666
  208ccc    H39 9196  13.509  10.345  -0.488 -1.7366  1.6384  0.5722
  208ccc     O5 9197  13.389  10.285  -0.643 -0.0570  0.0646  0.0796
  208ccc    H40 9198  13.353  10.375  -0.642  1.7323  0.8427 -0.5388
  208ccc     N4 9199  13.282  10.210  -0.167  0.2823 -0.0492 -0.1887
  209ccc     N1 9200  13.598  10.370   0.934  0.1439  0.6711  0.4328
  209ccc     H4 9201  13.565  10.311   0.858 -0.3950 -0.2638  1.3537
  209ccc     C3 9202  13.736  10.420   0.931 -0.2056  0.2951 -0.5193
  209ccc     H5 9203  13.752  10.487   1.016  0.8972 -0.2965 -0.2318
  209ccc     C4 9204  13.783  10.485   0.802  0.2319 -0.1834  0.6546
  209ccc     H6 9205  13.797  10.331   0.950  1.7927  2.0137  1.7798
  209ccc     H7 9206  13.785  10.411   0.722 -0.4991  1.5592 -1.0740
  209ccc     H8 9207  13.885  10.522   0.818  1.7701 -2.6758 -2.5184
  209ccc     N2 9208  13.695  10.598   0.762  0.5471 -0.2209  0.4764
  209ccc     C5 9209  13.718  10.721   0.845  0.3513  0.5983  0.3914
  209ccc     C6 9210  13.708  10.622   0.620 -0.0122 -0.4420 -0.5230
  209ccc     H9 9211  13.664  10.719   0.593 -0.0223 -0.1338  0.5350
  209ccc     C7 9212  13.631  10.522   0.538 -0.4395 -0.1820 -0.3789
  209ccc    H10 9213  13.812  10.616   0.588 -0.8686 -3.4135 -3.1986
  209ccc    H11 9214  13.524  10.542   0.549  0.0024  1.6051  1.2744
  209ccc    H12 9215  13.647  10.415   0.556  0.1726 -0.1221 -0.5260
  209ccc     C8 9216  13.667  10.537   0.397  0.7552  0.4597 -0.6711
  209ccc     O2 9217  13.779  10.572   0.360 -0.5218 -0.1787  0.2999
  209ccc    H13 9218  13.784  10.794   0.797  2.1515  1.6825  4.1000
  209ccc    H14 9219  13.766  10.683   0.936  0.5270 -0.8726 -0.2839
  209ccc     C9 9220  13.590  10.788   0.868  0.3710 -0.1519  0.1183
  209ccc    H15 9221  13.532  10.720   0.932  2.0064 -0.1046  1.7245
  209ccc    H16 9222  13.534  10.808   0.776  0.4523  0.5008  0.2009
  209ccc    C10 9223  13.606  10.919   0.944 -0.1745  0.3265  0.3356
  209ccc     O4 9224  13.704  10.954   1.003  0.0082  0.1331 -0.3691
  209ccc    C11 9225  13.777  10.423  -0.060  0.1825  0.5855  0.9970
  209ccc    C12 9226  13.713  10.296   0.007  0.1854 -0.1916  0.1089
  209ccc    H17 9227  13.876  10.447  -0.020  0.5254  1.7427 -0.4661
  209ccc    C13 9228  13.675  10.319   0.155  0.1622  0.5597  0.7575
  209ccc    C14 9229  13.593  10.450   0.173 -0.0776  0.3241  0.4211
  209ccc    C15 9230  13.646  10.569   0.085  0.1978  0.4453 -0.5722
  209ccc    H18 9231  13.492  10.429   0.135 -0.7618  0.5112  2.0608
  209ccc    H19 9232  13.772  10.329   0.206  1.3959 -2.2190 -0.7795
  209ccc    H20 9233  13.733  10.614   0.133  0.7532  1.0022 -2.0490
  209ccc     O1 9234  13.534  10.657   0.065  0.0501  0.3223 -0.3935
  209ccc     O6 9235  13.617  10.205   0.213  0.5979  0.2616 -0.1979
  209ccc    C16 9236  13.811  10.396  -0.206 -0.2162  0.5379 -0.6454
  209ccc    H21 9237  13.665  10.125   0.183 -1.1508 -0.8235 -0.2673
  209ccc    H22 9238  13.501  10.422   0.362 -0.0450 -0.8365 -2.0977
  209ccc    H23 9239  13.885  10.316  -0.213  0.1672  0.5411  2.0626
  209ccc    H24 9240  13.875  10.477  -0.243 -0.5355  0.8535 -0.5206
  209ccc     O7 9241  13.707  10.374  -0.296 -0.2344  0.8288 -0.0111
  209ccc    H25 9242  13.665  10.457  -0.325  0.5213  1.3391  0.3123
  209ccc     O8 9243  13.686  10.533  -0.048  0.5673  0.8075  0.4352
  209ccc    H26 9244  13.464  10.612   0.015 -0.8046  0.4901  0.6285
  209ccc    H27 9245  13.624  10.259  -0.045 -0.2251  0.7635  0.1166
  209ccc     O9 9246  13.809  10.188   0.003  0.3056 -0.3543  0.4959
  209ccc    H28 9247  13.791  10.119  -0.064  0.7867 -0.7926  0.8082
  209ccc     N3 9248  13.575  10.478   0.320 -0.0724  0.3751 -0.6006
  209ccc    C17 9249  13.090  11.040   0.856  1.3080  0.0486  0.2664
  209ccc    C18 9250  13.184  11.021   0.732  0.4259  0.3738  0.3875
  209ccc    H29 9251  13.086  11.147   0.881 -0.8072  0.2605 -0.7724
  209ccc    C19 9252  13.328  11.045   0.781  0.3632 -0.0527 -0.0765
  209ccc    C20 9253  13.360  10.966   0.907 -0.7698 -0.3615 -0.8094
  209ccc    C21 9254  13.255  10.987   1.019  0.3166  0.2053 -0.7255
  209ccc    H30 9255  13.360  10.857   0.893 -2.1364 -0.6615  1.0404
  209ccc    H31 9256  13.341  11.151   0.807  0.9801  0.1201 -1.0252
  209ccc    H32 9257  13.262  11.091   1.055  0.9279  0.3098 -1.1257
  209ccc    O10 9258  13.277  10.896   1.130  0.1396  0.3921  0.1077
  209ccc    O11 9259  13.421  11.014   0.673  0.3800 -0.0825  0.6822
  209ccc    C22 9260  12.942  10.995   0.817  0.5991 -0.0150 -0.5470
  209ccc    H33 9261  13.373  10.991   0.591  1.4499 -2.3435  0.6224
  209ccc    H34 9262  13.510  11.091   0.989 -0.5797  0.2370 -0.5186
  209ccc    H35 9263  12.949  10.888   0.795  2.6005 -0.1352  0.3762
  209ccc    H36 9264  12.890  11.054   0.741  0.0007  1.0361  0.6257
  209ccc    O12 9265  12.862  11.004   0.930 -0.2502 -0.0125 -0.4561
  209ccc    H37 9266  12.903  10.952   1.001  3.4836  0.9024 -1.7400
  209ccc    O13 9267  13.124  10.962   0.970  0.1440  0.5906 -0.5171
  209ccc    H38 9268  13.336  10.937   1.196 -0.3625  1.0297  0.1703
  209ccc    H39 9269  13.173  10.923   0.684 -0.7000  1.3875 -1.5525
  209ccc     O5 9270  13.151  11.122   0.637  0.1857  0.3846  0.0672
  209ccc    H40 9271  13.209  11.106   0.561 -1.5406 -1.0834 -1.0502
  209ccc     N4 9272  13.497  10.993   0.967  0.3215 -0.0354  0.1221
  210ccc     N1 9273  10.182  10.340   1.639  0.3382  0.1484 -0.4343
  210ccc     H4 9274  10.135  10.338   1.549 -2.7230  1.2621  0.9847
  210ccc     C3 9275  10.098  10.317   1.758 -0.0144 -0.2593 -0.1929
  210ccc     H5 9276  10.123  10.215   1.791  1.4889  0.9275  2.6843
  210ccc     C4 9277   9.945  10.328   1.749  0.3638 -0.5994  0.1695
  210ccc     H6 9278  10.137  10.380   1.839 -0.1281 -1.4043  0.7747
  210ccc     H7 9279   9.917  10.433   1.765 -2.0062 -1.3591  1.4731
  210ccc     H8 9280   9.896  10.280   1.835 -1.1818  1.3877  0.4674
  210ccc     N2 9281   9.893  10.276   1.625 -0.6884  0.1183  0.1211
  210ccc     C5 9282   9.907  10.131   1.621 -0.5470 -0.3280 -0.4813
  210ccc     C6 9283   9.762  10.318   1.580 -0.9328 -0.6665  0.6041
  210ccc     H9 9284   9.769  10.426   1.562  1.6210 -0.9242 -0.3418
  210ccc     C7 9285   9.659  10.299   1.689 -0.1215  0.3175  0.0045
  210ccc    H10 9286   9.734  10.266   1.488 -1.2137  0.6131 -0.0595
  210ccc    H11 9287   9.664  10.375   1.769 -2.5492 -0.5961  1.1175
  210ccc    H12 9288   9.663  10.208   1.749 -0.0870  0.2588 -0.0866
  210ccc     C8 9289   9.524  10.317   1.634 -0.2937 -0.3892  0.8859
  210ccc     O2 9290   9.487  10.285   1.523 -0.1110  0.2433  0.4538
  210ccc    H13 9291   9.846  10.080   1.696  2.1686 -1.1711  1.3234
  210ccc    H14 9292  10.008  10.104   1.656 -0.8288  0.6882  1.1866
  210ccc     C9 9293   9.884  10.065   1.482 -0.3031  0.2173  0.1320
  210ccc    H15 9294   9.937  10.130   1.411 -1.2351 -0.7806 -1.5193
  210ccc    H16 9295   9.777  10.064   1.458 -0.1017 -1.0440 -0.7947
  210ccc    C10 9296   9.931   9.921   1.498  0.3165 -0.2790 -0.0977
  210ccc     O4 9297   9.986   9.877   1.599  0.5254 -0.2011  0.0314
  210ccc    C11 9298   9.039  10.264   2.012 -0.2675  0.0521 -0.5069
  210ccc    C12 9299   9.158  10.115   1.931 -0.0331  0.3665 -0.0060
  210ccc    H17 9300   8.947  10.267   1.953 -1.6121 -1.6818  1.3641
  210ccc    C13 9301   9.335  10.157   1.844 -0.1734 -0.3710  0.4712
  210ccc    C14 9302   9.399  10.357   1.844 -0.1356  0.0410  0.2208
  210ccc    C15 9303   9.273  10.503   1.912 -0.0757  0.1874 -0.8361
  210ccc    H18 9304   9.498  10.368   1.890  0.8932 -3.3066 -0.9078
  210ccc    H19 9305   9.303  10.152   1.740 -0.6093  0.7706  0.5295
  210ccc    H20 9306   9.242  10.540   1.814  1.6295 -0.6517 -1.7346
  210ccc     O1 9307   9.334  10.615   1.976 -0.0198 -0.1409 -0.3844
  210ccc     O6 9308   9.437  10.050   1.865 -0.4643  0.7573 -0.1143
  210ccc    C16 9309   8.968  10.228   2.141 -0.2919 -0.0338 -0.1686
  210ccc    H21 9310   9.385   9.971   1.844  1.2306 -1.4082  3.0225
  210ccc    H22 9311   9.354  10.406   1.648  0.1894  0.7832  1.0682
  210ccc    H23 9312   9.037  10.212   2.225 -2.5810  0.1700  1.8752
  210ccc    H24 9313   8.908  10.138   2.123 -0.6822  0.8430 -3.9688
  210ccc     O7 9314   8.874  10.330   2.177 -0.5672  0.3198  0.2925
  210ccc    H25 9315   8.909  10.421   2.182 -1.8953  1.0606 -2.2932
  210ccc     O8 9316   9.103  10.450   1.995 -0.1586  0.0861  0.1507
  210ccc    H26 9317   9.353  10.586   2.067 -1.5654  0.6031  0.2279
  210ccc    H27 9318   9.181  10.045   2.012 -3.7849 -0.6644  0.3417
  210ccc     O9 9319   9.082  10.039   1.838  0.1764  0.2422 -0.0564
  210ccc    H28 9320   9.031  10.089   1.772 -0.9735 -1.0131 -0.1561
  210ccc     N3 9321   9.440  10.394   1.702  0.3215 -0.6357  0.5953
  210ccc    C17 9322   9.923   9.782   0.976 -0.2447 -0.5783 -0.3142
  210ccc    C18 9323   9.788   9.765   1.041  0.3114  0.0162  0.0704
  210ccc    H29 9324   9.982   9.691   0.988  1.4587  0.3080 -1.5249
  210ccc    C19 9325   9.794   9.748   1.192  0.7268  0.5476 -0.9085
  210ccc    C20 9326   9.881   9.863   1.258 -0.0494  0.3107  0.3037
  210ccc    C21 9327  10.020   9.864   1.180  0.7710  0.1017 -0.4215
  210ccc    H30 9328   9.822   9.954   1.244 -0.7753 -0.4650 -2.2888
  210ccc    H31 9329   9.842   9.651   1.210 -1.8365 -0.3528  1.8276
  210ccc    H32 9330  10.069   9.770   1.206  0.1333  0.0600  0.6746
  210ccc    O10 9331  10.096   9.973   1.220 -0.3472 -0.0040 -0.1982
  210ccc    O11 9332   9.667   9.747   1.257 -0.7064 -0.7548 -0.1546
  210ccc    C22 9333   9.914   9.819   0.822 -0.0361  0.7512  0.1587
  210ccc    H33 9334   9.628   9.833   1.230  1.5912 -0.2901 -2.3259
  210ccc    H34 9335   9.954   9.748   1.419 -0.6338  0.0903 -0.9509
  210ccc    H35 9336   9.897   9.730   0.759 -3.1102  2.0616 -1.0338
  210ccc    H36 9337  10.006   9.867   0.784 -0.9366  0.8155 -2.0864
  210ccc    O12 9338   9.811   9.913   0.795  0.5874 -0.1585  0.0533
  210ccc    H37 9339   9.847  10.003   0.805 -1.7549  0.6986  2.0295
  210ccc    O13 9340   9.991   9.888   1.042 -0.3971  0.0054  0.1044
  210ccc    H38 9341  10.147   9.950   1.300 -0.9568  3.0682  1.2230
  210ccc    H39 9342   9.722   9.852   1.029 -0.6905 -0.7114  0.1669
  210ccc     O5 9343   9.716   9.656   0.978 -0.5769 -0.4949  0.3901
  210ccc    H40 9344   9.629   9.655   1.021  0.7368 -1.3656  3.2883
  210ccc     N4 9345   9.916   9.841   1.401 -0.0533  0.4579 -0.3260
  211ccc     N1 9346  10.276  10.020   0.999  0.4290 -0.4433 -0.1074
  211ccc     H4 9347  10.200   9.994   1.061  0.5625 -1.5227 -0.3776
  211ccc     C3 9348  10.265   9.965   0.862 -0.5958 -0.5592  0.0875
  211ccc     H5 9349  10.171   9.997   0.816  0.0791  1.6748  0.1576
  211ccc     C4 9350  10.295   9.815   0.853 -0.5270 -0.4878 -0.3034
  211ccc     H6 9351  10.342  10.009   0.797  2.5403 -2.9602  1.8473
  211ccc     H7 9352  10.249   9.792   0.756 -1.2826 -0.6374  0.0849
  211ccc     H8 9353  10.239   9.758   0.927  0.8475  1.6471  2.5585
  211ccc     N2 9354  10.437   9.781   0.877 -0.4118 -0.0344  0.3817
  211ccc     C5 9355  10.457   9.633   0.893 -0.5864 -0.2691 -0.4419
  211ccc     C6 9356  10.530   9.839   0.781  0.0815  0.0687  0.4529
  211ccc     H9 9357  10.517   9.947   0.770  1.3047  0.3583  1.6255
  211ccc     C7 9358  10.526   9.771   0.643 -0.4660 -0.0195 -0.1253
  211ccc    H10 9359  10.631   9.829   0.822  0.5650  0.5972 -0.5618
  211ccc    H11 9360  10.427   9.734   0.612 -0.0347 -1.7690  0.4795
  211ccc    H12 9361  10.587   9.680   0.649  0.5974  0.4007 -2.8455
  211ccc     C8 9362  10.591   9.859   0.544  0.2159 -0.0972  0.8402
  211ccc     O2 9363  10.642   9.973   0.546  0.4531  0.2180  0.3873
  211ccc    H13 9364  10.441   9.576   0.801  1.0595 -1.7977  0.1601
  211ccc    H14 9365  10.398   9.595   0.977  0.8196  0.4703  0.9272
  211ccc     C9 9366  10.600   9.597   0.935  0.2594 -0.0564  0.5730
  211ccc    H15 9367  10.627   9.672   1.011  0.0006  0.3132  0.3082
  211ccc    H16 9368  10.673   9.607   0.853  0.1775  1.5162  0.6626
  211ccc    C10 9369  10.606   9.469   1.000 -0.6869  0.4756 -0.1018
  211ccc     O4 9370  10.637   9.455   1.116 -0.0083 -0.7297 -0.1467
  211ccc    C11 9371  10.706  10.089   0.106  0.7182  0.6734  0.7180
  211ccc    C12 9372  10.815   9.986   0.157  0.0808  0.1641 -0.5099
  211ccc    H17 9373  10.704  10.187   0.157  0.2557  0.0005  2.0219
  211ccc    C13 9374  10.782   9.930   0.298  0.5591 -0.4853 -0.1813
  211ccc    C14 9375  10.644   9.867   0.295 -0.1212 -0.1217  0.5431
  211ccc    C15 9376  10.545   9.985   0.244 -0.7522 -0.0266  0.6784
  211ccc    H18 9377  10.646   9.787   0.221 -0.6406  0.2134  0.1634
  211ccc    H19 9378  10.768  10.014   0.367  0.5463 -0.3600 -0.3346
  211ccc    H20 9379  10.554  10.072   0.310 -1.1748  0.6386 -0.1145
  211ccc     O1 9380  10.412   9.947   0.227  0.7793 -0.1825 -0.1598
  211ccc     O6 9381  10.878   9.830   0.337 -0.3470 -0.0787  0.6715
  211ccc    C16 9382  10.727  10.110  -0.046  0.5699 -0.0406 -0.4356
  211ccc    H21 9383  10.877   9.831   0.434  0.7634 -0.6175  0.7041
  211ccc    H22 9384  10.627   9.701   0.421  2.1072  0.2863 -0.5798
  211ccc    H23 9385  10.817  10.168  -0.068 -0.0209  1.3458  0.6531
  211ccc    H24 9386  10.641  10.164  -0.089 -0.8159 -1.2544  0.6903
  211ccc     O7 9387  10.723   9.991  -0.125 -0.2808  0.4597  0.0883
  211ccc    H25 9388  10.741  10.018  -0.217 -0.0196 -3.2693 -1.1176
  211ccc     O8 9389  10.570  10.029   0.115 -0.3316  0.4594  0.1920
  211ccc    H26 9390  10.377  10.023   0.177  1.6234  0.4374  0.1714
  211ccc    H27 9391  10.821   9.900   0.089  0.5546 -0.1433 -0.0864
  211ccc     O9 9392  10.936  10.053   0.164  0.0313 -0.7898  0.5635
  211ccc    H28 9393  11.001   9.983   0.182  2.0585  1.0613  1.0019
  211ccc     N3 9394  10.607   9.801   0.425 -0.0441 -0.1186  0.4221
  211ccc    C17 9395  10.618   9.119   0.577 -0.7517 -0.5739  0.5129
  211ccc    C18 9396  10.478   9.190   0.592 -0.0727  0.0398  0.0430
  211ccc    H29 9397  10.627   9.030   0.640  0.2516 -0.0441  1.1621
  211ccc    C19 9398  10.465   9.237   0.742 -0.2555  0.2060 -0.2973
  211ccc    C20 9399  10.583   9.329   0.788  0.5294 -0.6805  0.1012
  211ccc    C21 9400  10.719   9.251   0.766 -0.2583  0.2198 -0.1393
  211ccc    H30 9401  10.588   9.422   0.732 -0.0362 -0.1519  0.9127
  211ccc    H31 9402  10.474   9.147   0.804  0.2902 -0.3744 -1.2074
  211ccc    H32 9403  10.721   9.165   0.835  0.0752 -0.7593 -1.3356
  211ccc    O10 9404  10.830   9.341   0.789  0.0067  0.2793  0.1980
  211ccc    O11 9405  10.344   9.306   0.769 -0.3974  0.2723 -0.5203
  211ccc    C22 9406  10.640   9.079   0.429  0.5690  0.9562 -0.2456
  211ccc    H33 9407  10.360   9.351   0.854  1.4101  2.1759 -1.7868
  211ccc    H34 9408  10.559   9.280   0.988  0.8332  1.7457  2.3133
  211ccc    H35 9409  10.611   9.162   0.363 -0.1326 -0.4180 -1.7281
  211ccc    H36 9410  10.569   8.998   0.408  2.2544 -0.4070 -0.9305
  211ccc    O12 9411  10.773   9.035   0.409 -0.2638  0.4357  0.4977
  211ccc    H37 9412  10.836   9.058   0.480  0.4012  1.1060 -0.2683
  211ccc    O13 9413  10.721   9.220   0.622  0.3077 -0.2136 -0.3227
  211ccc    H38 9414  10.824   9.414   0.725  0.2728 -1.4836 -1.9554
  211ccc    H39 9415  10.495   9.279   0.530  1.8479 -0.2620  0.0722
  211ccc     O5 9416  10.371   9.116   0.543  0.1339 -0.5096  0.0969
  211ccc    H40 9417  10.361   9.121   0.447  0.7423 -2.3812 -0.1028
  211ccc     N4 9418  10.556   9.365   0.932  0.4949  0.6896  0.6255
  212ccc     N1 9419  10.927  10.457   2.873 -0.2359  0.3578 -0.1811
  212ccc     H4 9420  10.832  10.468   2.837 -0.0326  0.8981 -0.5731
  212ccc     C3 9421  10.984  10.572   2.953 -0.0955 -0.1294 -0.9883
  212ccc     H5 9422  11.087  10.593   2.924  0.7443 -0.5772  1.4537
  212ccc     C4 9423  10.993  10.531   3.102 -0.2293  0.6516 -0.0058
  212ccc     H6 9424  10.922  10.661   2.939 -1.4260 -0.7378  0.6612
  212ccc     H7 9425  11.073  10.456   3.107  0.8172  1.7907  1.7709
  212ccc     H8 9426  10.900  10.483   3.133 -0.6636  0.5029 -1.4845
  212ccc     N2 9427  11.020  10.645   3.187 -0.3794 -0.5980  0.3035
  212ccc     C5 9428  10.889  10.712   3.216 -0.4695 -0.5191  0.1638
  212ccc     C6 9429  11.078  10.596   3.304 -0.6468  0.5206 -0.4887
  212ccc     H9 9430  11.039  10.647   3.393  0.3517 -0.5582  0.6032
  212ccc     C7 9431  11.227  10.609   3.291 -0.1541  1.2154  0.0010
  212ccc    H10 9432  11.051  10.490   3.312  1.0381  0.1744  1.5643
  212ccc    H11 9433  11.268  10.603   3.189 -0.8811  1.2451 -0.3036
  212ccc    H12 9434  11.246  10.510   3.334 -0.8717  0.1761 -1.9339
  212ccc     C8 9435  11.281  10.706   3.384 -0.4846 -0.5649 -0.2828
  212ccc     O2 9436  11.215  10.783   3.451  0.2049 -0.5658 -0.1973
  212ccc    H13 9437  10.837  10.645   3.286  0.8340 -0.0413  1.6489
  212ccc    H14 9438  10.833  10.711   3.122 -1.2457 -0.9054  0.6191
  212ccc     C9 9439  10.918  10.858   3.263 -0.7661 -0.1767  0.6193
  212ccc    H15 9440  10.978  10.900   3.181 -1.4955  0.2490  0.2947
  212ccc    H16 9441  10.973  10.862   3.358 -0.7423  0.1966  0.5903
  212ccc    C10 9442  10.787  10.930   3.278 -0.2284  0.2320 -0.1288
  212ccc     O4 9443  10.679  10.872   3.278  0.0301 -0.2644 -0.0905
  212ccc    C11 9444  11.757  10.765   3.788 -0.1597 -0.2066  0.2417
  212ccc    C12 9445  11.575  10.839   3.805  0.4848  0.2277 -0.4023
  212ccc    H17 9446  11.782  10.713   3.881  2.4115 -0.7775 -0.6863
  212ccc    C13 9447  11.436  10.801   3.665 -0.0750  0.1173  0.6859
  212ccc    C14 9448  11.483  10.658   3.524  0.0975 -0.6239  0.4532
  212ccc    C15 9449  11.667  10.583   3.516 -0.0022  0.1053 -0.3266
  212ccc    H18 9450  11.427  10.566   3.547  0.8010 -0.7917  1.5315
  212ccc    H19 9451  11.417  10.895   3.611 -0.4714 -0.4057 -0.0944
  212ccc    H20 9452  11.705  10.605   3.415 -0.9690  0.8422 -0.5565
  212ccc     O1 9453  11.666  10.442   3.525  0.0316 -0.7801 -0.4890
  212ccc     O6 9454  11.300  10.776   3.717  0.0006 -0.0589  0.1713
  212ccc    C16 9455  11.864  10.873   3.795 -0.6341  0.4504 -0.2087
  212ccc    H21 9456  11.234  10.784   3.646 -1.4050 -0.3402  1.3912
  212ccc    H22 9457  11.456  10.626   3.334 -0.9926  0.8841 -1.3471
  212ccc    H23 9458  11.852  10.926   3.890 -3.2901  0.4958 -0.4884
  212ccc    H24 9459  11.851  10.943   3.712 -2.5594  1.7782  1.1327
  212ccc     O7 9460  11.995  10.816   3.785  0.4518  0.1471 -0.1596
  212ccc    H25 9461  11.993  10.768   3.700 -0.3694  2.2616 -1.4193
  212ccc     O8 9462  11.793  10.642   3.642 -1.0104 -0.3471 -0.3381
  212ccc    H26 9463  11.660  10.433   3.622 -0.8712  3.4009  0.0362
  212ccc    H27 9464  11.536  10.796   3.898 -0.8771  0.3605 -0.8950
  212ccc     O9 9465  11.579  10.985   3.821 -0.1868  0.2567 -0.2837
  212ccc    H28 9466  11.513  11.006   3.889  1.7705 -1.0562  2.1796
  212ccc     N3 9467  11.415  10.695   3.396 -0.2462 -0.2579  0.4862
  212ccc    C17 9468  10.590  11.427   3.295 -0.2166 -0.3063 -0.2699
  212ccc    C18 9469  10.665  11.401   3.167 -0.1644 -0.7380 -0.3883
  212ccc    H29 9470  10.664  11.455   3.371  0.6351 -0.7903 -0.9016
  212ccc    C19 9471  10.768  11.286   3.198  0.4792  0.3777 -1.2095
  212ccc    C20 9472  10.698  11.164   3.256 -0.8230  0.5136 -0.5106
  212ccc    C21 9473  10.598  11.198   3.371 -0.3425 -0.2793 -0.0712
  212ccc    H30 9474  10.636  11.118   3.179 -2.8258  0.6495  0.9453
  212ccc    H31 9475  10.837  11.325   3.273 -0.7574  1.8656 -0.7775
  212ccc    H32 9476  10.650  11.218   3.466 -1.4192 -3.6727  1.4209
  212ccc    O10 9477  10.498  11.100   3.391  0.5314  0.6627 -0.0941
  212ccc    O11 9478  10.835  11.256   3.077  0.0936  0.1084 -0.1437
  212ccc    C22 9479  10.484  11.535   3.278 -0.3004 -0.0571  0.7074
  212ccc    H33 9480  10.913  11.204   3.103  1.3422  1.1068 -1.7432
  212ccc    H34 9481  10.891  11.098   3.310 -0.5238  0.9172  2.7223
  212ccc    H35 9482  10.410  11.490   3.210  0.6535 -0.5259 -0.0435
  212ccc    H36 9483  10.526  11.617   3.218  1.6744  1.0591  3.4532
  212ccc    O12 9484  10.421  11.596   3.389  0.4233 -0.4310 -0.3307
  212ccc    H37 9485  10.382  11.524   3.441 -0.4263 -0.2744 -0.7299
  212ccc    O13 9486  10.519  11.312   3.340  0.3913  0.3999 -0.3660
  212ccc    H38 9487  10.429  11.147   3.341 -0.8282 -1.3874 -0.2557
  212ccc    H39 9488  10.589  11.371   3.094 -0.4064  0.6954 -0.7686
  212ccc     O5 9489  10.736  11.515   3.116  0.8587  0.5855  0.1708
  212ccc    H40 9490  10.811  11.480   3.065 -0.4059 -2.4825  0.1872
  212ccc     N4 9491  10.798  11.060   3.296  0.1117  0.0669  0.1694
  213ccc     N1 9492  10.363  10.116   2.442  0.1045 -0.0353 -0.5213
  213ccc     H4 9493  10.403  10.075   2.359  1.0592  1.9261 -1.0993
  213ccc     C3 9494  10.224  10.168   2.444 -0.4072  0.0847 -0.1965
  213ccc     H5 9495  10.179  10.137   2.539 -1.3019  1.0883 -0.2687
  213ccc     C4 9496  10.132  10.156   2.317  0.0671  0.3075  0.0765
  213ccc     H6 9497  10.235  10.277   2.455  0.2525  0.1119 -1.0617
  213ccc     H7 9498  10.088  10.056   2.315  1.9186 -0.5483  0.0331
  213ccc     H8 9499  10.196  10.167   2.229  0.4735 -0.0422  0.3250
  213ccc     N2 9500  10.025  10.251   2.318  0.2400  0.2035 -0.9693
  213ccc     C5 9501   9.974  10.305   2.193 -0.2941 -0.3170  0.5438
  213ccc     C6 9502   9.930  10.244   2.427 -0.1291  0.1426  0.4216
  213ccc     H9 9503   9.837  10.192   2.398 -0.0040  0.6729 -1.0277
  213ccc     C7 9504   9.889  10.380   2.483  0.4636  0.2280 -0.1292
  213ccc    H10 9505   9.964  10.176   2.506 -2.6529 -0.4144  1.1155
  213ccc    H11 9506   9.864  10.454   2.406  4.0940  1.4066 -0.3421
  213ccc    H12 9507   9.975  10.434   2.526  1.3193 -1.2336  0.0563
  213ccc     C8 9508   9.785  10.370   2.582 -0.2625  0.4934  0.4427
  213ccc     O2 9509   9.736  10.263   2.619  1.0493 -0.6198 -0.2003
  213ccc    H13 9510  10.055  10.328   2.123 -1.0457  1.8960  0.3241
  213ccc    H14 9511   9.918  10.397   2.213 -1.1194 -0.7949  0.4679
  213ccc     C9 9512   9.885  10.203   2.119 -0.7334  0.8281 -0.1747
  213ccc    H15 9513   9.888  10.112   2.181  3.0903  1.8182  1.4172
  213ccc    H16 9514   9.948  10.184   2.031 -0.4551  1.4096 -0.1097
  213ccc    C10 9515   9.738  10.236   2.092 -0.1251 -0.7202 -0.4967
  213ccc     O4 9516   9.704  10.298   1.993  0.1928  0.2723  0.2976
  213ccc    C11 9517   9.424  10.679   2.834  0.0114  0.0585  0.7166
  213ccc    C12 9518   9.393  10.539   2.783 -0.1231  0.1800 -0.0986
  213ccc    H17 9519   9.429  10.756   2.756 -0.7330 -1.7047 -1.1576
  213ccc    C13 9520   9.507  10.489   2.682  0.0477 -0.8184 -0.1321
  213ccc    C14 9521   9.647  10.501   2.742  0.2254  0.1762  0.4348
  213ccc    C15 9522   9.661  10.642   2.801  0.2782 -0.6472 -0.0297
  213ccc    H18 9523   9.665  10.426   2.819  1.3275  0.4008  0.4192
  213ccc    H19 9524   9.491  10.532   2.582  0.4609 -2.0601 -0.7605
  213ccc    H20 9525   9.664  10.711   2.716  0.4799 -1.2289 -0.5027
  213ccc     O1 9526   9.782  10.645   2.876  0.6644 -0.3182  0.0346
  213ccc     O6 9527   9.492  10.345   2.661  0.3049  0.1638  0.0972
  213ccc    C16 9528   9.323  10.724   2.939 -0.6087  0.3307 -0.1867
  213ccc    H21 9529   9.582  10.311   2.670 -0.6838 -2.1574  3.1976
  213ccc    H22 9530   9.789  10.570   2.604  2.9064 -1.4838 -1.6859
  213ccc    H23 9531   9.305  10.641   3.009  0.6380 -0.2974 -0.5751
  213ccc    H24 9532   9.228  10.749   2.891 -0.8212  0.7305  0.4359
  213ccc     O7 9533   9.370  10.836   3.015  0.2395 -0.6964  0.3365
  213ccc    H25 9534   9.467  10.825   3.014  0.0598 -2.6336 -0.1912
  213ccc     O8 9535   9.555  10.674   2.893  0.2715  0.0461  0.0227
  213ccc    H26 9536   9.804  10.739   2.889 -0.6837  0.1832 -0.9820
  213ccc    H27 9537   9.387  10.471   2.868 -2.6913  1.6668  1.0253
  213ccc     O9 9538   9.270  10.540   2.722 -1.0684  0.2794 -0.2063
  213ccc    H28 9539   9.236  10.450   2.739 -0.7093  0.7733  4.2097
  213ccc     N3 9540   9.748  10.483   2.639  0.5016  0.1350 -0.1953
  213ccc    C17 9541   9.278  10.399   2.182 -0.6628 -0.3582 -0.0704
  213ccc    C18 9542   9.282  10.297   2.048 -0.1706 -0.4183  0.7698
  213ccc    H29 9543   9.204  10.480   2.185  1.2859  1.5127  0.0061
  213ccc    C19 9544   9.418  10.212   2.090  0.3095 -0.4973  0.2343
  213ccc    C20 9545   9.519  10.270   2.193  0.0930 -0.2462 -0.4433
  213ccc    C21 9546   9.529  10.421   2.208 -0.2695 -0.0306  0.4248
  213ccc    H30 9547   9.479  10.228   2.286  0.2312 -1.0144 -0.7247
  213ccc    H31 9548   9.490  10.215   2.008  0.1747 -1.2771  0.0807
  213ccc    H32 9549   9.600  10.461   2.135 -0.3068  0.1199  0.4715
  213ccc    O10 9550   9.587  10.468   2.330  0.1409 -0.0472  0.5836
  213ccc    O11 9551   9.387  10.077   2.128 -0.1521 -0.0719  0.1049
  213ccc    C22 9552   9.257  10.346   2.328 -0.2739 -0.5027 -0.1620
  213ccc    H33 9553   9.433  10.019   2.064 -0.2305 -1.9837  1.7052
  213ccc    H34 9554   9.689  10.188   2.283 -0.0651  1.2209 -0.3549
  213ccc    H35 9555   9.345  10.371   2.388  0.1163 -1.6602 -0.2302
  213ccc    H36 9556   9.244  10.237   2.333  0.1444 -0.7460 -2.8366
  213ccc    O12 9557   9.141  10.413   2.388 -0.0553 -0.3853  0.0146
  213ccc    H37 9558   9.179  10.501   2.407 -0.7058 -0.0309 -0.2628
  213ccc    O13 9559   9.401  10.477   2.190  0.4236 -0.3521 -0.4024
  213ccc    H38 9560   9.563  10.562   2.338 -1.7229 -0.4662  0.2298
  213ccc    H39 9561   9.220  10.234   2.113 -1.3903 -0.2462 -0.2059
  213ccc     O5 9562   9.177  10.316   1.842  0.3483  0.2147  0.2864
  213ccc    H40 9563   9.109  10.384   1.856 -0.2505 -0.2466 -0.3118
  213ccc     N4 9564   9.654  10.216   2.191 -0.0409  0.7657 -0.5038
  214ccc     N1 9565  12.428   7.400   0.082  0.0657  0.5626  0.3175
  214ccc     H4 9566  12.367   7.450   0.145  0.2384  0.8669  0.2440
  214ccc     C3 9567  12.422   7.254   0.058 -0.8941  0.1241  0.0953
  214ccc     H5 9568  12.378   7.241  -0.042  0.6711 -0.2057 -0.5925
  214ccc     C4 9569  12.359   7.161   0.169 -0.0722  0.4799  0.9778
  214ccc     H6 9570  12.528   7.224   0.054 -0.9017 -0.0532  1.0090
  214ccc     H7 9571  12.251   7.178   0.164  0.1246  1.5086 -2.1977
  214ccc     H8 9572  12.407   7.207   0.256  1.9577  0.6640 -0.1574
  214ccc     N2 9573  12.402   7.021   0.153 -0.3240 -0.6447  0.0748
  214ccc     C5 9574  12.403   6.958   0.287  0.8732 -0.1881 -0.1224
  214ccc     C6 9575  12.327   6.956   0.045  0.0081  0.1897  0.3352
  214ccc     H9 9576  12.219   6.956   0.065  0.1137  1.6044  1.0340
  214ccc     C7 9577  12.377   6.815   0.017 -0.4825  0.1973 -0.1510
  214ccc    H10 9578  12.351   7.015  -0.044  1.0556  0.8159  1.0056
  214ccc    H11 9579  12.348   6.751   0.102  0.8376 -0.5212 -0.2171
  214ccc    H12 9580  12.483   6.793   0.002 -0.4459  0.5205 -0.3704
  214ccc     C8 9581  12.307   6.756  -0.099  0.3614  0.1296 -0.2114
  214ccc     O2 9582  12.198   6.691  -0.105 -0.3078  0.0995  0.0724
  214ccc    H13 9583  12.323   6.883   0.285  0.4379  0.2918 -1.5059
  214ccc    H14 9584  12.368   7.034   0.358 -1.4593  0.7914 -2.1998
  214ccc     C9 9585  12.539   6.891   0.303 -0.3604  0.4717  0.5919
  214ccc    H15 9586  12.622   6.961   0.288 -1.8119  1.5967 -3.5551
  214ccc    H16 9587  12.554   6.813   0.228  0.0322  0.0057  1.1498
  214ccc    C10 9588  12.541   6.839   0.444 -0.0802 -0.3746  0.1560
  214ccc     O4 9589  12.546   6.911   0.539  0.4755 -0.3194  0.4141
  214ccc    C11 9590  12.343   6.778  -0.641  0.3539  0.2280 -0.4850
  214ccc    C12 9591  12.279   6.655  -0.569  0.6215  0.2736  0.3712
  214ccc    H17 9592  12.452   6.780  -0.650  0.3217  0.5701 -0.8363
  214ccc    C13 9593  12.304   6.656  -0.415 -0.0870  0.0271 -0.1298
  214ccc    C14 9594  12.290   6.794  -0.347 -0.0306 -0.5694 -0.1761
  214ccc    C15 9595  12.343   6.907  -0.431  0.3862  0.1184  0.1091
  214ccc    H18 9596  12.183   6.807  -0.332 -0.0760 -0.3074 -0.7027
  214ccc    H19 9597  12.409   6.627  -0.409  0.8363  2.9568 -0.5650
  214ccc    H20 9598  12.452   6.896  -0.428  0.2888 -0.8079  2.1052
  214ccc     O1 9599  12.291   7.028  -0.377  0.1442 -0.1781  0.2311
  214ccc     O6 9600  12.227   6.551  -0.350  0.1695  0.0945 -0.2354
  214ccc    C16 9601  12.287   6.791  -0.780 -0.8438 -1.2404  0.0228
  214ccc    H21 9602  12.222   6.589  -0.261  1.3426  1.7640 -0.8186
  214ccc    H22 9603  12.445   6.855  -0.212 -0.4599  0.9735  2.3448
  214ccc    H23 9604  12.178   6.805  -0.776 -0.9697 -1.9667 -0.6752
  214ccc    H24 9605  12.306   6.694  -0.829 -1.8837 -0.5093 -1.9380
  214ccc     O7 9606  12.346   6.905  -0.849 -0.2956  0.3647  0.2974
  214ccc    H25 9607  12.276   6.927  -0.913 -1.3470  1.9138  1.9119
  214ccc     O8 9608  12.301   6.894  -0.565 -0.1912 -0.0541  0.2129
  214ccc    H26 9609  12.195   7.015  -0.389  0.3975 -0.0809 -2.7671
  214ccc    H27 9610  12.173   6.655  -0.599  0.7630  0.3966 -0.1435
  214ccc     O9 9611  12.331   6.531  -0.624 -0.0946 -0.1982 -0.4977
  214ccc    H28 9612  12.271   6.457  -0.605  1.2694 -1.6186 -1.5451
  214ccc     N3 9613  12.359   6.800  -0.213  0.3180 -0.3517 -0.0000
  214ccc    C17 9614  12.752   6.351   0.386  0.0637 -0.4185 -0.0468
  214ccc    C18 9615  12.626   6.377   0.303 -0.1896 -0.4317 -0.0463
  214ccc    H29 9616  12.714   6.316   0.482 -0.3644 -0.7115 -0.3236
  214ccc    C19 9617  12.541   6.499   0.352  0.6838 -0.2784  0.0638
  214ccc    C20 9618  12.626   6.620   0.383 -0.1316  0.0837 -0.5187
  214ccc    C21 9619  12.748   6.568   0.477  0.1623 -0.8266  0.1008
  214ccc    H30 9620  12.669   6.668   0.294  1.0600  1.1898  0.5929
  214ccc    H31 9621  12.491   6.457   0.441  2.2975 -2.8188 -0.1365
  214ccc    H32 9622  12.708   6.530   0.572 -1.7117  1.7056  0.4419
  214ccc    O10 9623  12.833   6.680   0.501  0.2079  0.2396 -0.1443
  214ccc    O11 9624  12.448   6.534   0.251  0.3279 -0.2360  0.1386
  214ccc    C22 9625  12.859   6.249   0.329  0.1026  0.5766  0.0540
  214ccc    H33 9626  12.401   6.607   0.294  1.9921  1.3575 -0.6342
  214ccc    H34 9627  12.530   6.672   0.561  0.5233 -2.4989 -0.3914
  214ccc    H35 9628  12.899   6.279   0.232 -1.2403 -0.3109 -0.8181
  214ccc    H36 9629  12.804   6.156   0.307  0.3128  0.6393 -0.7534
  214ccc    O12 9630  12.963   6.234   0.425  0.0836  0.0721  0.0666
  214ccc    H37 9631  12.926   6.171   0.490 -1.4868 -0.4710 -1.2876
  214ccc    O13 9632  12.829   6.475   0.405  0.4941  0.2166 -0.5092
  214ccc    H38 9633  12.903   6.660   0.437 -0.2954 -0.5352 -0.4528
  214ccc    H39 9634  12.653   6.400   0.199  1.5078  0.9371  0.6415
  214ccc     O5 9635  12.533   6.270   0.293 -0.5815  0.1583 -0.2841
  214ccc    H40 9636  12.570   6.214   0.222 -0.0847 -1.2704  1.0471
  214ccc     N4 9637  12.539   6.709   0.466  0.3949  0.8230  0.7615
  215ccc     N1 9638  12.489   8.148  -0.127  0.6098  0.0567 -0.1539
  215ccc     H4 9639  12.413   8.090  -0.160 -0.2015  0.8431  0.3094
  215ccc     C3 9640  12.519   8.263  -0.215 -0.5250 -0.3233  0.1359
  215ccc     H5 9641  12.438   8.261  -0.289 -2.1104  0.4967  1.7723
  215ccc     C4 9642  12.650   8.268  -0.288  0.9274  0.5807 -0.3666
  215ccc     H6 9643  12.516   8.360  -0.164 -0.1805  1.1149 -2.3583
  215ccc     H7 9644  12.730   8.281  -0.213 -1.5745  0.5730  2.5204
  215ccc     H8 9645  12.652   8.359  -0.349  2.8807  2.4035  2.1691
  215ccc     N2 9646  12.684   8.151  -0.374  0.3654 -0.6792  1.2835
  215ccc     C5 9647  12.583   8.108  -0.477  0.0903 -0.2244 -0.2213
  215ccc     C6 9648  12.817   8.156  -0.424 -0.5108 -0.2096  0.0378
  215ccc     H9 9649  12.834   8.068  -0.486  1.1845  0.6804 -0.8262
  215ccc     C7 9650  12.921   8.145  -0.318 -0.2102  0.4882  0.4244
  215ccc    H10 9651  12.827   8.243  -0.491  0.3406 -1.0822 -0.9919
  215ccc    H11 9652  12.892   8.059  -0.257 -2.1700  1.0305  0.3132
  215ccc    H12 9653  12.933   8.234  -0.255  0.9294 -0.7720  2.0625
  215ccc     C8 9654  13.052   8.109  -0.385 -0.2014  0.3266  0.3210
  215ccc     O2 9655  13.081   8.110  -0.509  0.2944  0.1324  0.0529
  215ccc    H13 9656  12.485   8.095  -0.429 -0.3391  0.7878 -0.8057
  215ccc    H14 9657  12.615   8.009  -0.513  0.9538 -0.4095  1.0006
  215ccc     C9 9658  12.566   8.198  -0.597 -0.2784 -0.5877 -0.2560
  215ccc    H15 9659  12.647   8.178  -0.668  1.0734  1.1438  0.7250
  215ccc    H16 9660  12.587   8.303  -0.574 -0.7794 -0.5347 -0.0413
  215ccc    C10 9661  12.442   8.169  -0.671 -0.5416  0.0642  0.8814
  215ccc     O4 9662  12.371   8.071  -0.662 -0.0144  0.2039 -0.0168
  215ccc    C11 9663  13.427   7.790  -0.464 -0.7315 -0.4454  0.5819
  215ccc    C12 9664  13.484   7.940  -0.450  0.0582 -0.2345  0.2013
  215ccc    H17 9665  13.391   7.776  -0.567  1.2782  1.6578 -0.5132
  215ccc    C13 9666  13.368   8.041  -0.444  0.0761  0.4366  0.2886
  215ccc    C14 9667  13.270   7.991  -0.334  0.5068  0.2640 -0.9436
  215ccc    C15 9668  13.209   7.847  -0.369 -1.0364 -0.9974  0.0622
  215ccc    H18 9669  13.320   7.977  -0.238 -0.8672  1.2735 -0.0388
  215ccc    H19 9670  13.330   8.052  -0.547 -1.7573  0.7076  0.9575
  215ccc    H20 9671  13.149   7.841  -0.461 -0.7633 -2.7839 -0.0435
  215ccc     O1 9672  13.132   7.813  -0.256  0.6815  0.4244 -0.4665
  215ccc     O6 9673  13.423   8.163  -0.407  0.3741 -0.6115 -0.5447
  215ccc    C16 9674  13.536   7.688  -0.454 -0.0999  0.1362 -0.2695
  215ccc    H21 9675  13.356   8.225  -0.442 -0.5820 -0.8116  0.8461
  215ccc    H22 9676  13.125   8.068  -0.206 -2.3925  0.2317 -0.2083
  215ccc    H23 9677  13.608   7.708  -0.533  0.2778 -0.2171 -0.0216
  215ccc    H24 9678  13.476   7.597  -0.471 -1.2262  0.9473 -0.7451
  215ccc     O7 9679  13.597   7.685  -0.323 -0.4095 -0.0162  0.4077
  215ccc    H25 9680  13.523   7.700  -0.262  0.6680 -0.8574  1.9729
  215ccc     O8 9681  13.319   7.758  -0.375  0.0190 -0.2048 -0.7959
  215ccc    H26 9682  13.099   7.723  -0.270 -2.4737  1.8895 -4.4483
  215ccc    H27 9683  13.528   7.944  -0.350  2.0922  0.5142 -0.6875
  215ccc     O9 9684  13.582   7.972  -0.549  0.5873 -0.0566  0.6841
  215ccc    H28 9685  13.575   8.067  -0.567  0.5997 -0.1234  0.3089
  215ccc     N3 9686  13.153   8.083  -0.303 -0.0044  0.4644  0.4638
  215ccc    C17 9687  12.226   8.299  -1.158  0.0635 -0.1291  0.4925
  215ccc    C18 9688  12.255   8.157  -1.112  0.3232  0.0689 -0.9621
  215ccc    H29 9689  12.306   8.328  -1.228 -0.9208 -1.7667 -1.4290
  215ccc    C19 9690  12.352   8.145  -0.988  0.2379  0.2780 -0.0412
  215ccc    C20 9691  12.326   8.253  -0.883  0.2385 -0.2179  0.0525
  215ccc    C21 9692  12.326   8.392  -0.950 -0.3963  0.4474  0.1582
  215ccc    H30 9693  12.228   8.235  -0.837 -1.3898  0.5959 -2.8943
  215ccc    H31 9694  12.456   8.159  -1.021  0.7496  2.7809  2.3190
  215ccc    H32 9695  12.418   8.414  -1.006 -0.3892 -2.0289 -0.9322
  215ccc    O10 9696  12.296   8.496  -0.855  0.0394 -0.2438 -0.1683
  215ccc    O11 9697  12.328   8.012  -0.932 -0.6257  0.3698  0.2105
  215ccc    C22 9698  12.096   8.308  -1.236  0.0968  0.4359  0.1888
  215ccc    H33 9699  12.332   8.040  -0.838  0.2626  2.4130 -0.3719
  215ccc    H34 9700  12.492   8.332  -0.790 -0.7463  0.8465  0.0220
  215ccc    H35 9701  12.103   8.246  -1.326 -0.8197  0.3922  0.1417
  215ccc    H36 9702  12.083   8.411  -1.273  1.0938  0.5551  0.1257
  215ccc    O12 9703  11.979   8.270  -1.155  0.3862 -0.1509  0.8603
  215ccc    H37 9704  11.980   8.333  -1.081 -1.9406  0.4514  0.4512
  215ccc    O13 9705  12.220   8.392  -1.049 -0.0763 -0.6635  0.0596
  215ccc    H38 9706  12.295   8.577  -0.909 -0.3730 -0.3285 -0.2929
  215ccc    H39 9707  12.162   8.113  -1.076  0.7237  0.9102  1.3063
  215ccc     O5 9708  12.315   8.075  -1.217 -0.1462  0.6514  0.1457
  215ccc    H40 9709  12.317   7.984  -1.184  2.0100  1.5248  2.7518
  215ccc     N4 9710  12.429   8.253  -0.777  0.3529 -0.0295  0.1382
  216ccc     N1 9711  11.342   7.837   0.831  0.3513 -0.3684  0.0880
  216ccc     H4 9712  11.373   7.892   0.910 -0.1589  0.5052 -0.3051
  216ccc     C3 9713  11.264   7.902   0.721  0.6499  1.1362 -0.1544
  216ccc     H5 9714  11.328   7.910   0.632 -0.1609  1.5429 -0.7097
  216ccc     C4 9715  11.228   8.042   0.764  0.4047 -0.0026 -0.2718
  216ccc     H6 9716  11.175   7.841   0.702  2.4343 -1.1474 -1.7599
  216ccc     H7 9717  11.314   8.110   0.766 -1.6953  2.9037 -1.0348
  216ccc     H8 9718  11.184   8.038   0.865  3.3418 -0.6728  1.0821
  216ccc     N2 9719  11.129   8.098   0.669  0.5305  0.0575  0.4791
  216ccc     C5 9720  10.990   8.099   0.715 -0.4036  0.5996  0.3544
  216ccc     C6 9721  11.174   8.224   0.616 -0.3096  0.0466 -0.1345
  216ccc     H9 9722  11.173   8.295   0.700 -1.8850  0.7604 -0.6996
  216ccc     C7 9723  11.106   8.282   0.489 -0.1612 -0.6158  0.0441
  216ccc    H10 9724  11.278   8.203   0.591  0.3331  1.1874  1.4306
  216ccc    H11 9725  10.997   8.287   0.498  0.0204  1.0227  2.0114
  216ccc    H12 9726  11.130   8.218   0.403 -0.9231 -0.6803 -0.1298
  216ccc     C8 9727  11.141   8.424   0.473 -0.1071  0.3914 -0.8688
  216ccc     O2 9728  11.100   8.514   0.549  0.0380  0.2267  0.1354
  216ccc    H13 9729  10.963   7.997   0.743 -0.1421  0.6067  0.6478
  216ccc    H14 9730  10.927   8.127   0.630  0.8816  0.5996 -0.6339
  216ccc     C9 9731  10.968   8.199   0.832 -0.0390 -1.0635  0.2623
  216ccc    H15 9732  10.985   8.300   0.794  0.6734 -1.2148  0.1647
  216ccc    H16 9733  11.032   8.172   0.916 -1.0692 -0.8275  1.1351
  216ccc    C10 9734  10.826   8.180   0.886 -0.2629  0.1494  0.0225
  216ccc     O4 9735  10.755   8.084   0.867 -0.0424 -0.2836 -0.3361
  216ccc    C11 9736  11.507   8.760   0.241 -0.1642  0.1207  0.0805
  216ccc    C12 9737  11.356   8.794   0.238  0.2950  0.3520 -0.1923
  216ccc    H17 9738  11.534   8.722   0.142 -0.0874 -0.2779  0.2532
  216ccc    C13 9739  11.272   8.659   0.249 -0.0206 -0.3945  0.4095
  216ccc    C14 9740  11.312   8.562   0.359 -0.9338 -0.3868 -0.6666
  216ccc    C15 9741  11.461   8.535   0.341 -0.9164 -0.3091 -0.2489
  216ccc    H18 9742  11.313   8.617   0.454  1.2687 -0.7070 -0.4470
  216ccc    H19 9743  11.274   8.613   0.149 -2.9256  1.6751 -0.7407
  216ccc    H20 9744  11.496   8.482   0.252  1.5732 -0.9700  1.0338
  216ccc     O1 9745  11.503   8.462   0.452  0.6731 -0.2699  0.6070
  216ccc     O6 9746  11.131   8.697   0.261 -0.8150  0.1114 -0.2436
  216ccc    C16 9747  11.578   8.890   0.275  0.5561  0.0430  0.0777
  216ccc    H21 9748  11.075   8.619   0.242  0.5308 -0.8257 -0.5623
  216ccc    H22 9749  11.240   8.372   0.303 -0.8251 -1.5527  1.1272
  216ccc    H23 9750  11.548   8.915   0.378 -0.5161  1.1990 -0.4952
  216ccc    H24 9751  11.544   8.971   0.210 -2.5413 -0.5572  0.7963
  216ccc     O7 9752  11.720   8.864   0.267 -0.5810 -0.0909  0.1046
  216ccc    H25 9753  11.772   8.942   0.295 -0.5746 -0.2003  0.3970
  216ccc     O8 9754  11.545   8.656   0.340  0.1675  0.0167  0.1369
  216ccc    H26 9755  11.600   8.463   0.452  0.8547  1.8577 -3.2058
  216ccc    H27 9756  11.325   8.861   0.319 -1.2025  1.6587 -1.7506
  216ccc     O9 9757  11.326   8.855   0.110  0.0035 -0.2989 -0.4573
  216ccc    H28 9758  11.229   8.860   0.109  0.0540  2.0266 -1.1196
  216ccc     N3 9759  11.228   8.441   0.377 -0.1476  0.2487 -0.3828
  216ccc    C17 9760  10.495   8.432   1.233  0.3629  0.4567  0.0656
  216ccc    C18 9761  10.459   8.423   1.079 -0.7806  0.5812 -0.6117
  216ccc    H29 9762  10.541   8.528   1.259  1.5280 -0.4583  1.5458
  216ccc    C19 9763  10.576   8.395   0.992  0.2069  0.1847  0.6271
  216ccc    C20 9764  10.668   8.287   1.053 -0.3384  0.1824  0.0539
  216ccc    C21 9765  10.709   8.333   1.192 -0.1365 -0.4667  0.7367
  216ccc    H30 9766  10.606   8.196   1.048  0.4542 -0.3248 -1.7713
  216ccc    H31 9767  10.635   8.483   0.963  0.6907 -0.4378 -0.3441
  216ccc    H32 9768  10.738   8.438   1.178 -1.1285 -0.5357 -2.7324
  216ccc    O10 9769  10.802   8.243   1.255 -0.0531  0.0989 -0.4692
  216ccc    O11 9770  10.513   8.357   0.865 -0.0854  0.3445  0.0414
  216ccc    C22 9771  10.368   8.418   1.325 -0.0336 -0.5357  1.1121
  216ccc    H33 9772  10.582   8.364   0.798 -1.1373  1.9733 -0.9386
  216ccc    H34 9773  10.850   8.360   0.979 -1.6150  1.5893  1.0383
  216ccc    H35 9774  10.290   8.491   1.299  2.0494  1.6662  0.6894
  216ccc    H36 9775  10.398   8.434   1.430  0.9345  2.2252  0.5115
  216ccc    O12 9776  10.316   8.282   1.291 -0.1617 -0.0396  0.5025
  216ccc    H37 9777  10.386   8.218   1.316  0.9808 -0.3839 -3.0754
  216ccc    O13 9778  10.590   8.333   1.274 -0.4812  0.1826 -0.3499
  216ccc    H38 9779  10.827   8.288   1.337  2.6220 -0.2397 -1.0027
  216ccc    H39 9780  10.384   8.344   1.090  0.0435  0.0334  1.8447
  216ccc     O5 9781  10.402   8.544   1.047  0.1677 -0.2215  0.4737
  216ccc    H40 9782  10.351   8.523   0.967  2.9125 -2.7144 -0.8046
  216ccc     N4 9783  10.787   8.280   0.964  0.4188  0.0680  0.0361
  217ccc     N1 9784  11.959   7.270   0.717  0.5318  0.1708  0.0942
  217ccc     H4 9785  11.947   7.326   0.633  0.2340  1.4293  0.9502
  217ccc     C3 9786  12.045   7.151   0.722  0.2644 -0.0387 -0.0849
  217ccc     H5 9787  12.136   7.166   0.781  1.0472 -0.2044 -1.2082
  217ccc     C4 9788  12.115   7.105   0.595 -0.2005 -0.5119  0.5660
  217ccc     H6 9789  11.987   7.075   0.776 -0.6340  1.6558  1.4551
  217ccc     H7 9790  12.191   7.033   0.627  1.1454  0.6025  0.0135
  217ccc     H8 9791  12.167   7.190   0.549 -0.9481 -0.4563 -0.1989
  217ccc     N2 9792  12.017   7.046   0.501  0.1886  0.2871  0.2694
  217ccc     C5 9793  11.968   7.152   0.412  0.0706 -0.6768 -0.8919
  217ccc     C6 9794  12.069   6.940   0.420 -0.6150  0.1980 -0.1726
  217ccc     H9 9795  11.991   6.894   0.357  0.0324  1.4375 -1.9779
  217ccc     C7 9796  12.119   6.821   0.505 -0.4345  0.2246 -0.4393
  217ccc    H10 9797  12.152   6.978   0.359  1.2419 -0.0541  2.0659
  217ccc    H11 9798  12.043   6.799   0.581 -0.1980 -0.6315 -0.4444
  217ccc    H12 9799  12.220   6.830   0.547  1.3564 -2.2800 -3.6782
  217ccc     C8 9800  12.141   6.704   0.413  0.8515 -0.3782  0.1807
  217ccc     O2 9801  12.252   6.678   0.364  0.6076  0.0092  1.0565
  217ccc    H13 9802  12.034   7.178   0.328  1.1851 -0.4480  0.0291
  217ccc    H14 9803  11.943   7.241   0.470  0.2692  0.0965 -1.9528
  217ccc     C9 9804  11.830   7.106   0.351  0.1940  0.0382  0.4097
  217ccc    H15 9805  11.757   7.090   0.431  0.0118 -1.1155  0.0435
  217ccc    H16 9806  11.834   7.007   0.303  3.1158  0.5008 -0.5049
  217ccc    C10 9807  11.789   7.202   0.243 -0.3808 -0.0640  0.5512
  217ccc     O4 9808  11.745   7.309   0.268  0.2372 -0.2558  0.1478
  217ccc    C11 9809  12.185   6.356   0.094  0.3702  0.1392  0.9252
  217ccc    C12 9810  12.124   6.292   0.225 -0.6129 -0.3646 -0.0253
  217ccc    H17 9811  12.277   6.412   0.114  0.3181  0.9532 -0.8892
  217ccc    C13 9812  12.093   6.396   0.335  1.2776 -0.2099 -1.0582
  217ccc    C14 9813  12.025   6.529   0.276  0.5866  0.2647  0.2615
  217ccc    C15 9814  12.083   6.569   0.136 -0.1994  0.8481  0.6408
  217ccc    H18 9815  11.921   6.500   0.256  0.1727  2.5774 -1.3114
  217ccc    H19 9816  12.187   6.438   0.373 -0.5269  3.7028 -0.4277
  217ccc    H20 9817  12.186   6.605   0.137 -0.0878  0.6560 -0.9129
  217ccc     O1 9818  12.008   6.668   0.077 -0.6971  0.0235  0.5690
  217ccc     O6 9819  12.016   6.324   0.429  0.2336  0.0290  0.2362
  217ccc    C16 9820  12.192   6.263  -0.034  0.0151  0.1132  0.0487
  217ccc    H21 9821  12.021   6.374   0.512  0.3679  1.0960 -0.3905
  217ccc    H22 9822  11.939   6.648   0.421  1.0531  2.6517 -0.2234
  217ccc    H23 9823  12.088   6.262  -0.070 -0.4026 -3.0905  1.0207
  217ccc    H24 9824  12.219   6.163   0.002  1.1888  0.2359 -0.4568
  217ccc     O7 9825  12.292   6.296  -0.133 -0.2507  0.4996  0.2869
  217ccc    H25 9826  12.273   6.250  -0.217 -2.7479  2.6880 -0.4451
  217ccc     O8 9827  12.084   6.452   0.048  0.7281 -0.0976  0.1312
  217ccc    H26 9828  12.058   6.670  -0.006 -0.6220  0.4240  0.6236
  217ccc    H27 9829  12.036   6.231   0.203 -0.6247  0.4113 -2.3871
  217ccc     O9 9830  12.232   6.221   0.290  0.2215  0.1941 -0.0684
  217ccc    H28 9831  12.303   6.280   0.321 -0.0744  0.8451 -0.5907
  217ccc     N3 9832  12.030   6.631   0.377  1.1607 -0.0146  0.8519
  217ccc    C17 9833  11.835   6.871  -0.180  0.0349  0.1525 -0.3246
  217ccc    C18 9834  11.959   6.951  -0.159 -0.0685  0.4887  0.7895
  217ccc    H29 9835  11.767   6.929  -0.244 -2.2215 -0.6652  1.2297
  217ccc    C19 9836  11.941   7.083  -0.081  0.0408 -0.1658  0.4316
  217ccc    C20 9837  11.857   7.055   0.046  0.3008 -0.0150  0.0153
  217ccc    C21 9838  11.725   6.977   0.006 -0.6597 -0.1180 -0.2994
  217ccc    H30 9839  11.923   6.993   0.108  0.9810  2.0210  1.4550
  217ccc    H31 9840  11.878   7.146  -0.145  0.7239  0.6687  0.5780
  217ccc    H32 9841  11.661   7.028  -0.066  0.1056 -0.2651 -1.1034
  217ccc    O10 9842  11.645   6.943   0.118 -0.6082 -0.4860  0.0990
  217ccc    O11 9843  12.072   7.141  -0.048 -0.7180  0.2537 -0.3319
  217ccc    C22 9844  11.856   6.727  -0.229 -0.6517 -0.1517  0.1796
  217ccc    H33 9845  12.119   7.177  -0.125 -1.3285  3.1720  0.5253
  217ccc    H34 9846  11.802   7.250   0.049  0.7378  1.2442  2.3786
  217ccc    H35 9847  11.925   6.675  -0.160  0.8161  3.2637  1.5098
  217ccc    H36 9848  11.905   6.726  -0.327  1.4379 -0.2570  1.1569
  217ccc    O12 9849  11.732   6.669  -0.242  0.0228 -0.0891 -0.1144
  217ccc    H37 9850  11.685   6.692  -0.161  1.5898 -2.0309  1.4617
  217ccc    O13 9851  11.761   6.856  -0.054  0.3074  0.1489  0.5182
  217ccc    H38 9852  11.599   6.866   0.080  0.1404 -0.0281 -1.8857
  217ccc    H39 9853  12.027   6.886  -0.102  1.8037 -0.1706 -1.9699
  217ccc     O5 9854  12.020   6.988  -0.286 -0.2375 -0.0029  0.1868
  217ccc    H40 9855  12.005   7.080  -0.313 -0.0182 -0.3172 -1.0459
  217ccc     N4 9856  11.827   7.180   0.119 -0.6749 -0.6961  1.0912
  218ccc     N1 9857  13.625   9.765   1.460 -0.3864  0.1561 -0.0400
  218ccc     H4 9858  13.527   9.743   1.469  0.0011 -1.7327  0.0777
  218ccc     C3 9859  13.673   9.880   1.548  0.2030 -0.1420 -0.0879
  218ccc     H5 9860  13.750   9.838   1.614 -0.1110  1.3891  1.3054
  218ccc     C4 9861  13.562   9.941   1.637 -0.3375 -0.5059  0.6845
  218ccc     H6 9862  13.723   9.960   1.493 -0.6758 -0.7252 -1.7990
  218ccc     H7 9863  13.513   9.854   1.683 -0.9456 -1.4249 -1.5795
  218ccc     H8 9864  13.489   9.983   1.566 -1.2636 -1.1015  1.2596
  218ccc     N2 9865  13.624  10.029   1.736 -0.1729 -0.1952 -0.3138
  218ccc     C5 9866  13.535  10.051   1.848 -0.1439 -0.2020 -0.3385
  218ccc     C6 9867  13.690  10.153   1.688 -0.0412 -0.5622 -0.2070
  218ccc     H9 9868  13.738  10.200   1.774 -1.1212  0.1072  0.0528
  218ccc     C7 9869  13.590  10.245   1.631 -0.1522 -0.3210  0.7585
  218ccc    H10 9870  13.765  10.115   1.617  0.1941  0.2580 -0.4077
  218ccc    H11 9871  13.501  10.258   1.694 -0.1490 -1.8711  1.1138
  218ccc    H12 9872  13.556  10.197   1.539 -5.0581  2.0277  1.0493
  218ccc     C8 9873  13.636  10.383   1.595 -0.4861 -0.0403  0.7303
  218ccc     O2 9874  13.741  10.434   1.642  0.2864  0.2538 -0.0824
  218ccc    H13 9875  13.436  10.070   1.805  0.7856  0.2283 -2.4039
  218ccc    H14 9876  13.549  10.147   1.900  0.3290 -0.1731 -0.5179
  218ccc     C9 9877  13.519   9.932   1.946 -0.0298 -0.4446 -0.4925
  218ccc    H15 9878  13.619   9.918   1.990  0.1802  1.1652 -0.3907
  218ccc    H16 9879  13.504   9.840   1.888  0.0675 -0.1792 -0.9408
  218ccc    C10 9880  13.402   9.946   2.042 -0.0046 -0.7768 -0.0516
  218ccc     O4 9881  13.335  10.048   2.050  0.2812 -0.5119 -0.8583
  218ccc    C11 9882  13.808  10.761   1.371 -0.1381  0.6697 -0.3984
  218ccc    C12 9883  13.809  10.636   1.278  0.2857 -0.1843 -0.3586
  218ccc    H17 9884  13.867  10.754   1.463  0.0118  1.5867 -0.4114
  218ccc    C13 9885  13.746  10.510   1.349 -0.1853 -0.0239  0.0499
  218ccc    C14 9886  13.615  10.556   1.424  0.0856 -0.4617  0.1802
  218ccc    C15 9887  13.629  10.680   1.515 -0.4819  0.6044  0.1403
  218ccc    H18 9888  13.540  10.588   1.351  0.4724  1.1834  0.4791
  218ccc    H19 9889  13.825  10.478   1.418  0.5313  2.3764  0.4495
  218ccc    H20 9890  13.707  10.664   1.590 -1.6598 -2.8912  0.8279
  218ccc     O1 9891  13.501  10.716   1.571  0.0699 -0.8357  0.2603
  218ccc     O6 9892  13.719  10.400   1.258 -0.8741 -0.8341  0.9990
  218ccc    C16 9893  13.849  10.887   1.292  0.4024  0.2819  0.3292
  218ccc    H21 9894  13.671  10.442   1.184 -0.9145 -1.7651  0.4685
  218ccc    H22 9895  13.503  10.378   1.437 -1.6921  0.6666 -0.5459
  218ccc    H23 9896  13.766  10.914   1.226  0.7578  1.2878  0.2868
  218ccc    H24 9897  13.936  10.865   1.228 -0.2108 -1.4752  0.0307
  218ccc     O7 9898  13.881  10.990   1.383 -0.0350 -0.1048  0.4064
  218ccc    H25 9899  13.839  11.070   1.346  0.4292 -0.7186 -1.5621
  218ccc     O8 9900  13.674  10.785   1.423 -0.0077  0.7163 -0.7671
  218ccc    H26 9901  13.515  10.784   1.639  0.2044  0.1112 -0.6907
  218ccc    H27 9902  13.751  10.668   1.191 -0.7985 -0.7699  0.1211
  218ccc     O9 9903  13.947  10.607   1.242  0.0841  0.1781  0.5491
  218ccc    H28 9904  14.007  10.607   1.318  0.4719 -1.4330  0.2809
  218ccc     N3 9905  13.560  10.438   1.496 -0.6713 -0.4281 -0.3686
  218ccc    C17 9906  13.077   9.621   2.341 -0.2518  0.3701  0.3597
  218ccc    C18 9907  13.173   9.714   2.416  0.9858  0.1710  0.0494
  218ccc    H29 9908  13.144   9.536   2.322  1.4793  1.7439 -0.0553
  218ccc    C19 9909  13.297   9.752   2.325 -0.1711  0.2639  0.0068
  218ccc    C20 9910  13.255   9.798   2.183  0.2050  0.1954 -0.3851
  218ccc    C21 9911  13.159   9.696   2.123 -0.2830  0.1217  0.4546
  218ccc    H30 9912  13.193   9.887   2.197 -0.4486 -0.3934  0.5136
  218ccc    H31 9913  13.359   9.662   2.313 -1.0961 -0.0892 -3.1406
  218ccc    H32 9914  13.213   9.602   2.109 -1.5803 -0.3662 -1.8346
  218ccc    O10 9915  13.107   9.746   1.995 -0.0024  0.1607 -0.3456
  218ccc    O11 9916  13.380   9.852   2.384 -0.0352  0.4216 -0.0611
  218ccc    C22 9917  12.940   9.591   2.404  0.6433  0.2305 -0.0961
  218ccc    H33 9918  13.318   9.926   2.373  1.0009  1.1272 -1.4820
  218ccc    H34 9919  13.413   9.742   2.065 -1.5391 -0.4056 -0.1768
  218ccc    H35 9920  12.957   9.544   2.502 -0.2914  1.9146  0.9313
  218ccc    H36 9921  12.894   9.509   2.348  0.2562  0.9216 -0.7952
  218ccc    O12 9922  12.864   9.710   2.438 -0.2385 -0.0733  0.6458
  218ccc    H37 9923  12.781   9.675   2.475  0.8983 -0.0570  3.4717
  218ccc    O13 9924  13.044   9.671   2.210  0.2479  0.1750 -0.5384
  218ccc    H38 9925  13.066   9.832   2.012 -0.4098 -0.1076  0.0587
  218ccc    H39 9926  13.115   9.804   2.437  3.6479  2.6149 -2.2064
  218ccc     O5 9927  13.218   9.655   2.540  0.5970  0.1224  0.3682
  218ccc    H40 9928  13.240   9.738   2.586  0.1698  1.8924 -2.3506
  218ccc     N4 9929  13.363   9.828   2.088 -0.3193  0.2653  0.0576
  219ccc     N1 9930  13.699   9.169   0.829  0.4295  0.3572  0.3786
  219ccc     H4 9931  13.599   9.164   0.810  0.6806 -0.4974 -0.8618
  219ccc     C3 9932  13.775   9.082   0.736 -0.2404  0.2659 -0.4368
  219ccc     H5 9933  13.844   9.020   0.793  2.6238  2.7085 -0.9827
  219ccc     C4 9934  13.865   9.167   0.633  0.2513 -0.2903 -0.3279
  219ccc     H6 9935  13.701   9.018   0.687 -1.0180 -0.1078  1.1642
  219ccc     H7 9936  13.943   9.226   0.685 -0.5931  4.3844 -3.7198
  219ccc     H8 9937  13.794   9.234   0.584  1.8780 -0.0845 -2.5481
  219ccc     N2 9938  13.922   9.072   0.538 -0.4316 -0.1128 -0.4049
  219ccc     C5 9939  13.955   9.137   0.408  0.6511 -0.2567 -0.1174
  219ccc     C6 9940  14.031   8.984   0.597 -0.0454 -0.0116  0.1787
  219ccc     H9 9941  14.130   9.024   0.572 -0.1800  1.3352  1.7003
  219ccc     C7 9942  14.032   8.844   0.530  0.8037 -0.3908 -0.4142
  219ccc    H10 9943  14.013   8.969   0.704 -0.8473  1.5170  0.2883
  219ccc    H11 9944  14.132   8.799   0.540  0.2852 -1.9463 -1.8590
  219ccc    H12 9945  14.008   8.840   0.423 -0.6713  0.1649 -0.1246
  219ccc     C8 9946  13.938   8.751   0.602  0.1989 -0.6320  0.7685
  219ccc     O2 9947  13.976   8.680   0.688  0.3716 -0.0294 -0.1975
  219ccc    H13 9948  14.021   9.064   0.358  0.0354  0.9168 -2.8351
  219ccc    H14 9949  14.006   9.233   0.422 -1.3007  0.9478 -0.8576
  219ccc     C9 9950  13.824   9.150   0.325  0.5929 -0.1342  0.5753
  219ccc    H15 9951  13.747   9.214   0.370  1.6142  1.2794  0.3673
  219ccc    H16 9952  13.766   9.057   0.312 -1.4012  1.2970 -1.6439
  219ccc    C10 9953  13.834   9.200   0.188 -0.3493 -1.1587  0.1918
  219ccc     O4 9954  13.941   9.244   0.145 -0.3460  0.0332 -0.6180
  219ccc    C11 9955  13.489   8.458   0.528 -0.3806  0.3756  0.2583
  219ccc    C12 9956  13.633   8.404   0.521 -0.0440 -0.2998 -0.4673
  219ccc    H17 9957  13.453   8.487   0.428  2.0501  3.1268  0.0385
  219ccc    C13 9958  13.740   8.512   0.485 -0.0654  0.2255 -0.2932
  219ccc    C14 9959  13.716   8.638   0.572 -0.2553 -0.2895 -0.5358
  219ccc    C15 9960  13.571   8.686   0.561  0.1577 -0.5189 -0.0076
  219ccc    H18 9961  13.730   8.613   0.678 -2.6841  0.6174  0.0575
  219ccc    H19 9962  13.730   8.528   0.377  2.0301  0.9042 -0.4241
  219ccc    H20 9963  13.550   8.706   0.455  1.8335 -1.5152 -0.5690
  219ccc     O1 9964  13.540   8.805   0.634 -0.4455  0.8305 -0.8013
  219ccc     O6 9965  13.878   8.464   0.513  0.2805  0.0932  0.2260
  219ccc    C16 9966  13.385   8.361   0.591 -0.0620  0.3532  0.3093
  219ccc    H21 9967  13.914   8.517   0.587  0.1977 -0.0564  0.3744
  219ccc    H22 9968  13.783   8.802   0.474 -1.9042 -2.1345 -0.3951
  219ccc    H23 9969  13.409   8.345   0.697  2.1631 -0.2120 -0.2073
  219ccc    H24 9970  13.396   8.261   0.547  3.0218  0.6293  0.2161
  219ccc     O7 9971  13.255   8.421   0.570 -0.2406  0.7220  0.0835
  219ccc    H25 9972  13.242   8.479   0.647  1.4629  1.4291 -0.0999
  219ccc     O8 9973  13.489   8.581   0.612  0.5146  0.3533 -0.0875
  219ccc    H26 9974  13.567   8.772   0.722  1.4104 -2.8100 -2.5253
  219ccc    H27 9975  13.651   8.359   0.620 -1.5996  1.7846  0.8450
  219ccc     O9 9976  13.634   8.305   0.419 -0.1934  0.6797 -0.3831
  219ccc    H28 9977  13.727   8.278   0.418 -0.8086 -1.7878 -2.7161
  219ccc     N3 9978  13.818   8.745   0.551  0.6493  0.2975  0.4388
  219ccc    C17 9979  13.325   9.306   0.097 -0.7175 -0.4453 -0.2188
  219ccc    C18 9980  13.358   9.160   0.064 -0.2266 -0.1201 -0.1013
  219ccc    H29 9981  13.333   9.367   0.007 -2.4478  1.0078  0.5413
  219ccc    C19 9982  13.511   9.148   0.028 -0.8376  0.3653 -0.4689
  219ccc    C20 9983  13.593   9.209   0.146  0.0329 -0.2700  0.5520
  219ccc    C21 9984  13.541   9.359   0.173  0.1430 -0.1559 -0.2081
  219ccc    H30 9985  13.570   9.142   0.230 -1.5975  0.8767  1.0708
  219ccc    H31 9986  13.525   9.198  -0.068 -0.7693  0.8378 -0.2154
  219ccc    H32 9987  13.556   9.428   0.089 -0.5428  0.9930  0.5747
  219ccc    O10 9988  13.615   9.417   0.284 -0.0183 -0.2147 -0.0552
  219ccc    O11 9989  13.546   9.008   0.026  0.2287 -0.4055  0.1192
  219ccc    C22 9990  13.176   9.331   0.129  0.0493 -0.4373  0.1965
  219ccc    H33 9991  13.641   9.001   0.045  0.3023 -0.0484 -0.1191
  219ccc    H34 9992  13.744   9.283   0.040 -0.0395  0.5452  0.0018
  219ccc    H35 9993  13.163   9.314   0.237  4.0622  0.0719  0.9082
  219ccc    H36 9994  13.119   9.253   0.078 -0.6797  1.6657 -2.4477
  219ccc    O12 9995  13.127   9.462   0.082  0.1055 -0.3075  0.2962
  219ccc    H37 9996  13.069   9.491   0.155 -0.5449 -1.7915  0.4010
  219ccc    O13 9997  13.403   9.345   0.206  0.2199  0.4049 -0.3325
  219ccc    H38 9998  13.546   9.473   0.324 -0.6718  0.5643 -2.1623
  219ccc    H39 9999  13.326   9.105   0.153  0.9402 -2.3080 -0.9452
  219ccc     O510000  13.275   9.108  -0.038  0.0998  0.4023 -0.3179
  219ccc    H4010001  13.267   9.011  -0.035  1.9277  0.1620 -1.4240
  219ccc     N410002  13.736   9.205   0.105 -0.0722  0.3114 -0.2830
  220ccc     N110003  12.569   8.929  -0.287  0.0743 -0.4081 -0.0423
  220ccc     H410004  12.622   8.991  -0.346  0.0422  1.1635  1.4963
  220ccc     C310005  12.471   8.830  -0.338  0.0933 -0.3708  0.4237
  220ccc     H510006  12.481   8.745  -0.269 -1.1838 -0.8626  0.0164
  220ccc     C410007  12.514   8.794  -0.477 -0.1057 -0.0138 -0.7794
  220ccc     H610008  12.372   8.876  -0.343  0.3833  0.1708 -0.7777
  220ccc     H710009  12.621   8.814  -0.489 -0.4081  3.2386  0.8554
  220ccc     H810010  12.467   8.858  -0.553 -1.1436  0.2125  0.0227
  220ccc     N210011  12.479   8.648  -0.496 -0.1422 -0.9259 -0.0447
  220ccc     C510012  12.332   8.633  -0.497 -0.7269 -0.0655 -0.1858
  220ccc     C610013  12.539   8.603  -0.621  0.1501  0.5011  0.1141
  220ccc     H910014  12.471   8.534  -0.672  0.5989 -0.3778  0.6833
  220ccc     C710015  12.673   8.545  -0.605  0.0139  0.0307  1.0770
  220ccc    H1010016  12.552   8.691  -0.685  1.1850 -0.5975 -1.2613
  220ccc    H1110017  12.669   8.475  -0.521  0.6260  0.7434  1.7175
  220ccc    H1210018  12.736   8.628  -0.570 -2.4184  2.6873 -0.4412
  220ccc     C810019  12.748   8.494  -0.724 -0.0552 -0.0056  0.0345
  220ccc     O210020  12.687   8.458  -0.824  0.3474  0.4012 -0.3078
  220ccc    H1310021  12.306   8.692  -0.585  1.6465  1.9770  0.3829
  220ccc    H1410022  12.288   8.684  -0.410  0.5990  1.5784 -0.4428
  220ccc     C910023  12.291   8.483  -0.482 -0.3869 -0.5852 -0.5211
  220ccc    H1510024  12.351   8.432  -0.406 -0.9628  0.5734  0.7636
  220ccc    H1610025  12.305   8.425  -0.574  2.3509 -2.5794  1.0110
  220ccc    C1010026  12.145   8.481  -0.450  0.8195 -0.1081 -0.1011
  220ccc     O410027  12.064   8.563  -0.423  0.1978 -0.7133  0.1123
  220ccc    C1110028  13.244   8.369  -0.870  0.1921  0.1380 -0.7372
  220ccc    C1210029  13.142   8.262  -0.821 -0.0360 -0.2069  0.5518
  220ccc    H1710030  13.303   8.405  -0.784 -1.4693 -2.2069  1.5418
  220ccc    C1310031  13.032   8.327  -0.740  0.2822  0.3673  0.1547
  220ccc    C1410032  12.974   8.449  -0.810 -0.0462 -1.2063  0.1426
  220ccc    C1510033  13.089   8.553  -0.839  0.4316  0.7572 -1.0543
  220ccc    H1810034  12.922   8.425  -0.904  0.9192 -2.7732 -0.0350
  220ccc    H1910035  13.066   8.347  -0.638 -0.9277 -2.9437  1.3527
  220ccc    H2010036  13.139   8.577  -0.745 -1.9181 -4.2083  1.8982
  220ccc     O110037  13.039   8.663  -0.911 -0.1620  0.4427 -0.1664
  220ccc     O610038  12.926   8.231  -0.724  0.0161  0.2267 -0.4134
  220ccc    C1610039  13.345   8.308  -0.971  0.3812  0.1693  0.0536
  220ccc    H2110040  12.967   8.161  -0.669  0.1602  1.2686  0.8558
  220ccc    H2210041  12.919   8.552  -0.636 -0.1711 -0.7079  1.0490
  220ccc    H2310042  13.394   8.222  -0.924 -0.2783 -0.0196  0.3941
  220ccc    H2410043  13.419   8.385  -0.999 -0.3542  0.8982  0.0792
  220ccc     O710044  13.288   8.267  -1.095  0.5069  0.1887 -0.3391
  220ccc    H2510045  13.222   8.337  -1.109  1.8433  1.6846  0.5317
  220ccc     O810046  13.172   8.481  -0.928 -0.3334  0.1155  0.0177
  220ccc    H2610047  13.114   8.696  -0.962 -2.3514  1.5312 -2.9339
  220ccc    H2710048  13.093   8.210  -0.905 -0.3002  0.7394  0.1050
  220ccc     O910049  13.210   8.170  -0.744  0.5837  1.0429  0.4217
  220ccc    H2810050  13.187   8.176  -0.650 -3.2808 -2.4505 -0.0131
  220ccc     N310051  12.875   8.512  -0.719  0.0013  0.1962  0.5108
  220ccc    C1710052  12.162   7.985  -0.265  0.0962 -0.1913 -0.1552
  220ccc    C1810053  12.140   7.989  -0.417 -0.1765  0.0919  0.3034
  220ccc    H2910054  12.068   7.949  -0.222  0.3700  0.4051  0.9953
  220ccc    C1910055  12.079   8.114  -0.478  0.2680  0.9879 -0.3349
  220ccc    C2010056  12.144   8.241  -0.418  0.4925 -0.2498 -0.2349
  220ccc    C2110057  12.119   8.224  -0.265  0.3277  0.3966 -0.3273
  220ccc    H3010058  12.251   8.225  -0.437  0.6164  1.5369 -1.2513
  220ccc    H3110059  11.971   8.125  -0.459  0.4730 -0.2089  1.8864
  220ccc    H3210060  12.012   8.209  -0.245 -0.6337  2.3282 -3.3348
  220ccc    O1010061  12.177   8.329  -0.199  0.5405  0.5150  0.1012
  220ccc    O1110062  12.113   8.112  -0.617 -0.1729 -0.2824  0.0531
  220ccc    C2210063  12.268   7.881  -0.215  0.3116  0.0954 -0.4468
  220ccc    H3310064  12.208   8.101  -0.630 -0.5086 -2.5878 -0.9356
  220ccc    H3410065  11.986   8.367  -0.476  0.6158  1.6804 -0.9412
  220ccc    H3510066  12.240   7.780  -0.245 -1.8438  0.5384 -0.0893
  220ccc    H3610067  12.272   7.889  -0.106  0.5629  1.0204 -0.5122
  220ccc    O1210068  12.403   7.908  -0.255 -0.0651  0.4368 -0.3523
  220ccc    H3710069  12.415   7.875  -0.345 -2.1309 -0.4255 -0.3762
  220ccc    O1310070  12.201   8.113  -0.213 -0.6678 -0.5638  0.1588
  220ccc    H3810071  12.162   8.321  -0.103  0.7184  0.6959  0.1456
  220ccc    H3910072  12.244   7.991  -0.451 -0.2030  0.1586  0.2279
  220ccc     O510073  12.071   7.869  -0.461  0.2354 -0.0739  0.3669
  220ccc    H4010074  12.088   7.867  -0.557 -0.9616  0.4640  0.1263
  220ccc     N410075  12.088   8.365  -0.475  0.6055 -0.4551 -0.4029
  221ccc     N110076  13.106   9.267  -0.416  0.8458 -0.1620 -0.5198
  221ccc     H410077  13.090   9.179  -0.369 -0.2491  0.2586 -0.0789
  221ccc     C310078  13.136   9.281  -0.556 -0.0593  0.6920 -0.2112
  221ccc     H510079  13.055   9.243  -0.620 -1.0207  0.0164  1.3466
  221ccc     C410080  13.263   9.215  -0.595 -1.1316 -0.0280 -0.2137
  221ccc     H610081  13.140   9.388  -0.580  0.1360  0.8492  0.5009
  221ccc     H710082  13.242   9.107  -0.597 -1.3782 -0.2408  4.0128
  221ccc     H810083  13.335   9.229  -0.514 -0.3629 -1.7549 -0.5598
  221ccc     N210084  13.317   9.248  -0.736 -0.1626  0.2800 -0.4615
  221ccc     C510085  13.442   9.316  -0.738 -0.1650  0.4812 -0.1537
  221ccc     C610086  13.239   9.239  -0.854  0.0890 -0.2539  0.3466
  221ccc     H910087  13.172   9.326  -0.849 -0.0377 -0.4104  2.1047
  221ccc     C710088  13.154   9.120  -0.858  0.2670 -0.1752  0.1408
  221ccc    H1010089  13.300   9.252  -0.944 -1.2728 -4.3627 -1.3849
  221ccc    H1110090  13.068   9.131  -0.791  1.0873  0.7651  1.0583
  221ccc    H1210091  13.203   9.029  -0.822  1.6110  1.0288  1.4921
  221ccc     C810092  13.120   9.102  -1.002 -0.0823 -0.1054 -0.1087
  221ccc     O210093  13.176   9.041  -1.087 -0.2808  0.0975  0.6766
  221ccc    H1310094  13.489   9.318  -0.837 -1.3325 -0.3842 -0.7563
  221ccc    H1410095  13.514   9.276  -0.666  0.7716  0.8992 -0.8341
  221ccc     C910096  13.408   9.462  -0.707  0.5916 -0.2700  0.6540
  221ccc    H1510097  13.424   9.469  -0.599 -3.6029  0.5468  1.3826
  221ccc    H1610098  13.304   9.486  -0.731  0.9464 -1.2949 -2.3919
  221ccc    C1010099  13.494   9.557  -0.793  0.5950  0.5214 -0.2868
  221ccc     O410100  13.532   9.542  -0.912 -0.1134  0.1146 -0.7206
  221ccc    C1110101  12.742   9.214  -1.378 -0.4478  0.3462  0.2662
  221ccc    C1210102  12.764   9.332  -1.277 -0.1496  0.4329  0.0921
  221ccc    H1710103  12.646   9.173  -1.343  0.3701 -1.5865  0.3596
  221ccc    C1310104  12.828   9.295  -1.144 -0.1034 -0.2638 -0.3158
  221ccc    C1410105  12.943   9.195  -1.158  0.6622 -0.4364  0.4406
  221ccc    C1510106  12.886   9.069  -1.243 -0.3972 -0.0355 -0.1662
  221ccc    H1810107  13.016   9.246  -1.222  0.1040  2.5099  1.9727
  221ccc    H1910108  12.755   9.236  -1.087 -0.4992  0.1370 -0.4002
  221ccc    H2010109  12.795   9.036  -1.192 -0.7586  0.0321 -0.7686
  221ccc     O110110  12.972   8.957  -1.250 -0.9543 -0.0389 -0.2746
  221ccc     O610111  12.869   9.417  -1.071 -0.0818 -0.2331  0.2080
  221ccc    C1610112  12.721   9.253  -1.525 -0.2064 -0.1939  0.1630
  221ccc    H2110113  12.791   9.475  -1.071 -0.7286 -1.0759  0.3534
  221ccc    H2210114  12.952   9.221  -0.957  2.9349  2.6713  0.9500
  221ccc    H2310115  12.826   9.269  -1.549 -0.7480 -1.1761 -3.4092
  221ccc    H2410116  12.671   9.350  -1.536 -0.4581 -0.4412 -0.9711
  221ccc     O710117  12.684   9.151  -1.611  0.3346  0.0548 -0.1456
  221ccc    H2510118  12.708   9.178  -1.702  2.7999  0.1739  0.4811
  221ccc     O810119  12.849   9.114  -1.374  0.1535  0.6507  0.2243
  221ccc    H2610120  13.037   8.972  -1.179 -3.0932  1.2814  1.5617
  221ccc    H2710121  12.845   9.392  -1.321 -0.6554  1.6950  0.8325
  221ccc     O910122  12.642   9.403  -1.267  0.4794 -0.2574 -0.1851
  221ccc    H2810123  12.661   9.498  -1.277 -2.3442  0.4738  0.5930
  221ccc     N310124  13.000   9.164  -1.027 -0.8427  0.4839 -0.1650
  221ccc    C1710125  13.736   9.922  -1.023 -0.2958  0.0598 -0.4238
  221ccc    C1810126  13.589   9.956  -0.987 -0.0553  0.1381 -0.3209
  221ccc    H2910127  13.738   9.839  -1.096  0.2769  1.8243 -2.5252
  221ccc    C1910128  13.511   9.839  -0.917 -0.3949  0.7028 -0.1230
  221ccc    C2010129  13.587   9.788  -0.797 -0.5640  0.3092 -0.3346
  221ccc    C2110130  13.732   9.759  -0.832 -0.3977 -0.9482 -0.0642
  221ccc    H3010131  13.585   9.861  -0.715 -0.4171  0.1814 -0.2177
  221ccc    H3110132  13.514   9.758  -0.991  0.5285  1.1704 -0.6178
  221ccc    H3210133  13.740   9.668  -0.893 -1.3339 -1.3089  0.3219
  221ccc    O1010134  13.800   9.756  -0.710 -0.2008  1.1924 -0.7034
  221ccc    O1110135  13.385   9.876  -0.879  0.7604  0.1091  0.2102
  221ccc    C2210136  13.814  10.039  -1.084 -0.2933  0.5187  0.3779
  221ccc    H3310137  13.352   9.942  -0.942 -1.8949 -0.5561  0.7617
  221ccc    H3410138  13.515   9.670  -0.631 -0.9123 -0.7586 -0.7767
  221ccc    H3510139  13.808  10.129  -1.021 -2.1496  1.6714 -1.3029
  221ccc    H3610140  13.772  10.078  -1.178  1.3918  0.8936 -0.2506
  221ccc    O1210141  13.942  10.000  -1.114  0.5276  0.4274 -0.0987
  221ccc    H3710142  13.969  10.036  -1.201  3.3663 -0.4163  0.3123
  221ccc    O1310143  13.796   9.871  -0.897 -0.0420  0.4003  0.2259
  221ccc    H3810144  13.891   9.761  -0.744 -0.2367 -1.0720 -1.2818
  221ccc    H3910145  13.592  10.039  -0.914 -0.1095 -0.1205 -0.0247
  221ccc     O510146  13.523   9.992  -1.111 -0.3694  0.3564 -0.6007
  221ccc    H4010147  13.487  10.083  -1.104  1.0832  0.8749  1.0480
  221ccc     N410148  13.517   9.671  -0.733 -0.2503 -0.3115 -0.7630
  222ccc     N110149  10.940   9.948   4.658 -0.8886 -1.1686  0.1053
  222ccc     H410150  10.910   9.926   4.752 -0.9277  1.1108  0.6809
  222ccc     C310151  11.035  10.066   4.639 -0.2589 -0.5954  0.3087
  222ccc     H510152  11.141  10.037   4.648 -0.4138 -0.6959  2.0720
  222ccc     C410153  11.002  10.188   4.721  0.2860  0.0753 -0.1762
  222ccc     H610154  11.028  10.103   4.535  0.7182  0.1028  0.4728
  222ccc     H710155  11.011  10.156   4.826 -0.9241 -0.7662 -0.3016
  222ccc     H810156  10.895  10.207   4.706  0.5588  0.6713 -1.5331
  222ccc     N210157  11.085  10.308   4.697  0.1030 -0.2938  0.0967
  222ccc     C510158  11.221  10.292   4.751 -0.1820 -0.1073 -0.3432
  222ccc     C610159  11.097  10.359   4.558 -0.2858  0.4456  0.5307
  222ccc     H910160  11.169  10.440   4.540  1.3447 -1.5717 -2.9649
  222ccc     C710161  10.960  10.412   4.518  0.5183  0.5069 -0.1474
  222ccc    H1010162  11.130  10.277   4.493 -0.6641  0.8579 -0.2002
  222ccc    H1110163  10.926  10.499   4.577 -0.9800  1.2083 -1.9527
  222ccc    H1210164  10.877  10.341   4.508 -1.5215  2.8362 -0.8524
  222ccc     C810165  10.983  10.483   4.386  0.3973 -0.3313  0.4882
  222ccc     O210166  11.064  10.571   4.362  0.2515 -0.4821  0.0053
  222ccc    H1310167  11.282  10.377   4.720  2.7695 -2.0388 -0.2626
  222ccc    H1410168  11.262  10.197   4.714  1.4595  0.3343  0.2369
  222ccc     C910169  11.234  10.291   4.900  0.2585  0.1164 -0.8085
  222ccc    H1510170  11.171  10.213   4.946  1.4785  0.0278  0.8028
  222ccc    H1610171  11.203  10.389   4.941  0.9650  0.9454 -2.1794
  222ccc    C1010172  11.374  10.272   4.941 -0.3139  0.1281 -0.2619
  222ccc     O410173  11.469  10.251   4.872 -0.0788 -0.2434 -0.1355
  222ccc    C1110174  10.872  10.480   3.869 -0.3154 -0.2591 -0.3897
  222ccc    C1210175  10.746  10.531   3.952  0.4789  0.6082 -0.9669
  222ccc    H1710176  10.884  10.372   3.857 -1.6087 -0.4891  0.2794
  222ccc    C1310177  10.756  10.468   4.094 -0.5513  0.0545  0.2370
  222ccc    C1410178  10.890  10.506   4.157  0.0565  0.3359  0.9337
  222ccc    C1510179  11.009  10.472   4.060  0.8144  0.6738 -0.2510
  222ccc    H1810180  10.887  10.615   4.164 -0.9411  0.4794 -0.9961
  222ccc    H1910181  10.749  10.358   4.090  4.4202 -0.4264 -1.3979
  222ccc    H2010182  11.017  10.363   4.051  0.3625  0.7856 -2.6804
  222ccc     O110183  11.130  10.518   4.106 -0.2932  0.5758 -0.0234
  222ccc     O610184  10.655  10.513   4.177  0.4887  1.0417 -0.0892
  222ccc    C1610185  10.870  10.536   3.726  0.3289 -0.4209  1.3317
  222ccc    H2110186  10.649  10.446   4.247  2.3860 -0.3064 -1.1207
  222ccc    H2210187  10.849  10.355   4.302 -2.4033  1.6942  0.6053
  222ccc    H2310188  10.887  10.644   3.732  1.0306 -0.4923  0.8256
  222ccc    H2410189  10.774  10.519   3.675  1.4355 -0.2469 -0.9477
  222ccc     O710190  10.961  10.475   3.635 -0.2790 -0.4503 -0.4733
  222ccc    H2510191  11.051  10.483   3.670  0.2850  0.0492 -1.9569
  222ccc     O810192  10.985  10.533   3.934 -0.3658 -0.6114 -0.2731
  222ccc    H2610193  11.116  10.543   4.199 -0.8940 -0.2738  0.1271
  222ccc    H2710194  10.724  10.638   3.963 -0.7045  0.5453 -2.3675
  222ccc     O910195  10.632  10.469   3.889  1.0318  0.1711 -0.5685
  222ccc    H2810196  10.609  10.542   3.828  2.3956  1.2361  0.1299
  222ccc     N310197  10.910  10.436   4.287 -0.3403  0.1373  0.0282
  222ccc    C1710198  11.711  10.332   5.377  0.2465  1.0805  0.7998
  222ccc    C1810199  11.722  10.222   5.267 -0.4388 -0.7587  0.2693
  222ccc    H2910200  11.642  10.289   5.451 -0.4588  0.6151 -0.1069
  222ccc    C1910201  11.595  10.202   5.179  0.7422 -0.1367  0.6921
  222ccc    C2010202  11.528  10.338   5.135  0.1214 -0.4555 -0.3233
  222ccc    C2110203  11.524  10.439   5.250 -0.3463 -0.3852  0.2430
  222ccc    H3010204  11.598  10.385   5.066  0.3077  0.5220  0.5036
  222ccc    H3110205  11.525  10.146   5.242  0.3030 -0.2744  0.0877
  222ccc    H3210206  11.451  10.404   5.324  0.9037 -0.8761  1.2765
  222ccc    O1010207  11.499  10.566   5.194 -0.0524 -0.5345  0.1495
  222ccc    O1110208  11.632  10.126   5.061  0.3855 -0.5469 -0.4478
  222ccc    C2210209  11.842  10.377   5.438  0.1160  0.0292 -0.2847
  222ccc    H3310210  11.586  10.160   4.982 -2.9585 -0.2210  1.4768
  222ccc    H3410211  11.314  10.306   5.137 -1.7023  0.5748 -0.4001
  222ccc    H3510212  11.880  10.461   5.378 -0.7660  0.9014  0.3417
  222ccc    H3610213  11.913  10.294   5.446  0.3296  0.2868  0.5509
  222ccc    O1210214  11.812  10.415   5.570  0.1601  0.0087  0.3608
  222ccc    H3710215  11.897  10.421   5.616  1.7841  0.9725 -2.5020
  222ccc    O1310216  11.662  10.447   5.299 -0.1592  0.7490  0.2598
  222ccc    H3810217  11.545  10.639   5.239  1.1100  0.3410 -2.2554
  222ccc    H3910218  11.796  10.256   5.193 -0.8950  0.3155  0.2897
  222ccc     O510219  11.747  10.087   5.318 -0.2204  0.5986  0.1655
  222ccc    H4010220  11.719  10.025   5.249 -0.8771  0.7209  0.3155
  222ccc     N410221  11.392  10.302   5.072 -0.9184 -0.5421  0.5893
  223ccc     N110222  10.622   9.532   4.095  0.6154 -0.4526 -0.5420
  223ccc     H410223  10.597   9.617   4.144  0.7646  0.0856 -1.3822
  223ccc     C310224  10.589   9.514   3.953  0.3914 -0.5371 -0.4070
  223ccc     H510225  10.621   9.608   3.906 -0.0785  0.3806  1.0507
  223ccc     C410226  10.450   9.483   3.908 -0.0766  0.6379 -0.1584
  223ccc     H610227  10.648   9.429   3.916  3.0701  1.6475 -1.4078
  223ccc     H710228  10.427   9.381   3.940  1.8514  0.8760  2.3003
  223ccc     H810229  10.447   9.486   3.798 -2.4313 -0.2130 -0.1629
  223ccc     N210230  10.342   9.575   3.959  0.3114  0.0521  0.4132
  223ccc     C510231  10.376   9.719   3.948 -0.3779 -0.2024  0.6168
  223ccc     C610232  10.302   9.531   4.096 -0.2439  0.3806  0.2355
  223ccc     H910233  10.267   9.428   4.107 -0.6099  0.6451  1.6393
  223ccc     C710234  10.171   9.588   4.160  0.3697 -0.0509 -0.1998
  223ccc    H1010235  10.379   9.537   4.173 -0.5650  1.3960  0.4870
  223ccc    H1110236  10.128   9.514   4.228 -0.4488 -0.5813 -1.2538
  223ccc    H1210237  10.087   9.592   4.090 -1.2103  0.5435  1.6480
  223ccc     C810238  10.193   9.717   4.228 -0.7363 -0.4697  0.1507
  223ccc     O210239  10.300   9.758   4.265 -0.0470  0.5177 -0.2738
  223ccc    H1310240  10.470   9.735   4.002  0.8742  0.3636 -1.5981
  223ccc    H1410241  10.301   9.778   4.002  0.3106 -0.0937  1.4843
  223ccc     C910242  10.395   9.761   3.805 -0.4346  0.4530  0.1981
  223ccc    H1510243  10.298   9.780   3.758 -0.2372 -1.6868 -1.1859
  223ccc    H1610244  10.442   9.681   3.748  0.5476  0.1127  1.4294
  223ccc    C1010245  10.466   9.898   3.808  0.5090 -0.1065  0.1070
  223ccc     O410246  10.470   9.972   3.903 -0.0086  0.5379 -0.1300
  223ccc    C1110247  10.159  10.150   4.463 -0.4595 -0.2473 -0.4229
  223ccc    C1210248  10.109  10.168   4.323 -0.9845  0.5625  0.0320
  223ccc    H1710249  10.268  10.138   4.460 -0.4837 -0.7571  0.4231
  223ccc    C1310250  10.133  10.036   4.238  0.2439  0.2493 -0.8583
  223ccc    C1410251  10.079   9.916   4.324  0.7201 -0.3218 -0.5681
  223ccc    C1510252  10.128   9.905   4.470  0.2937 -0.0591  0.2213
  223ccc    H1810253   9.974   9.944   4.331  1.3491  2.1391  0.1668
  223ccc    H1910254  10.240  10.016   4.222  0.3511  1.3978 -1.6923
  223ccc    H2010255  10.235   9.880   4.463  0.2730  0.2258 -1.6923
  223ccc     O110256  10.067   9.802   4.544  0.2998  0.6038 -0.2615
  223ccc     O610257  10.056  10.036   4.123 -0.7877  0.2217 -0.2938
  223ccc    C1610258  10.124  10.280   4.543 -0.2578 -0.0350  0.0955
  223ccc    H2110259  10.119   9.999   4.059 -1.4911 -1.0249 -0.3137
  223ccc    H2210260   9.991   9.750   4.230 -2.0235  0.1356  3.5286
  223ccc    H2310261  10.131  10.362   4.471  0.5809 -0.4758 -0.3327
  223ccc    H2410262  10.200  10.283   4.623 -1.3941  0.3452  1.1936
  223ccc     O710263   9.995  10.260   4.602  0.4941 -0.5067 -0.1018
  223ccc    H2510264   9.999  10.162   4.606  0.5889 -0.5273 -0.5723
  223ccc     O810265  10.096  10.033   4.528 -0.1914 -0.4298 -0.4429
  223ccc    H2610266  10.029   9.749   4.472 -0.5713  3.1125 -1.8157
  223ccc    H2710267  10.000  10.168   4.330 -1.0703 -2.1971 -0.1800
  223ccc     O910268  10.156  10.280   4.247  0.5219  0.0826  0.6799
  223ccc    H2810269  10.120  10.260   4.159  0.2133 -1.3998  1.1088
  223ccc     N310270  10.081   9.784   4.263 -0.7402  0.4327  0.1456
  223ccc    C1710271  10.549   9.869   3.271 -0.6071  0.5618  0.1997
  223ccc    C1810272  10.641   9.786   3.364  0.0582  0.3077  0.4067
  223ccc    H2910273  10.595   9.965   3.244  0.1766 -0.2701 -1.5943
  223ccc    C1910274  10.648   9.841   3.510  0.5774 -0.0364  0.2756
  223ccc    C2010275  10.506   9.880   3.558  0.4113  0.3538  1.1041
  223ccc    C2110276  10.440   9.973   3.454  0.2853  0.3819 -0.6686
  223ccc    H3010277  10.442   9.791   3.551  0.7591  0.2502 -1.8517
  223ccc    H3110278  10.706   9.934   3.516 -1.3822  1.1858  1.4651
  223ccc    H3210279  10.488  10.070   3.436 -4.2397  2.8323 -0.9151
  223ccc    O1010280  10.314  10.007   3.498  0.4656  0.4373 -0.1633
  223ccc    O1110281  10.695   9.738   3.602 -0.3377  0.0759  0.6060
  223ccc    C2210282  10.502   9.799   3.140  0.2774  0.3029 -0.3865
  223ccc    H3310283  10.748   9.774   3.675  1.1363  0.0347 -0.3999
  223ccc    H3410284  10.528  10.046   3.686 -1.8739  0.3988 -0.0381
  223ccc    H3510285  10.592   9.776   3.082  0.2158 -1.1148  0.0510
  223ccc    H3610286  10.436   9.856   3.073 -0.8421  0.3922  0.7443
  223ccc    O1210287  10.430   9.679   3.172  0.2722  0.8113 -0.6053
  223ccc    H3710288  10.387   9.700   3.257 -0.5215  3.2754 -1.5149
  223ccc    O1310289  10.424   9.904   3.335 -0.1135 -0.4310 -0.5256
  223ccc    H3810290  10.269   9.926   3.470  2.3261 -0.3135 -1.1757
  223ccc    H3910291  10.599   9.684   3.366  1.5941 -0.4318 -1.4223
  223ccc     O510292  10.769   9.775   3.306 -0.3503 -0.0498 -0.5473
  223ccc    H4010293  10.824   9.740   3.378  0.0719 -1.6899 -1.6134
  223ccc     N410294  10.507   9.946   3.693  0.5560 -0.1771 -0.0892
  224ccc     N110295  11.677   7.983   4.725  0.4193 -0.4778 -1.0996
  224ccc     H410296  11.738   8.047   4.775  0.8342 -1.0941 -0.7968
  224ccc     C310297  11.736   7.891   4.632 -0.4522 -0.3096  0.0343
  224ccc     H510298  11.676   7.888   4.540 -0.6000 -0.5024  0.1357
  224ccc     C410299  11.761   7.750   4.688 -0.4785 -0.1165  1.2243
  224ccc     H610300  11.834   7.931   4.602 -0.6204 -0.3804 -0.6219
  224ccc     H710301  11.666   7.703   4.659 -0.7309  1.0716  0.0409
  224ccc     H810302  11.794   7.750   4.793  0.2007  1.9723  1.0611
  224ccc     N210303  11.874   7.690   4.612  0.1396  0.1122  0.2586
  224ccc     C510304  11.847   7.669   4.469  0.1965 -0.1165  0.4203
  224ccc     C610305  11.904   7.559   4.675  0.5451  0.4874  0.1231
  224ccc     H910306  11.806   7.514   4.692 -0.4976  2.6988  0.2974
  224ccc     C710307  11.971   7.569   4.816 -0.1788  0.3502 -0.3295
  224ccc    H1010308  11.969   7.492   4.617 -1.2891 -0.7371 -0.6092
  224ccc    H1110309  11.919   7.622   4.897  3.4459 -0.4019  2.7462
  224ccc    H1210310  12.074   7.606   4.808 -0.5393  1.5147  0.1376
  224ccc     C810311  11.986   7.438   4.879 -0.9528 -0.3052 -0.5553
  224ccc     O210312  11.935   7.338   4.846  0.0919 -0.0401  0.5170
  224ccc    H1310313  11.779   7.742   4.422  2.7929  0.4908 -2.6589
  224ccc    H1410314  11.796   7.575   4.446 -1.2530  1.2698 -2.5769
  224ccc     C910315  11.979   7.686   4.394  0.7515 -0.5402  0.4139
  224ccc    H1510316  12.059   7.632   4.447  0.8670 -0.6891  0.0888
  224ccc    H1610317  12.006   7.792   4.394  0.7514 -0.5297 -0.5361
  224ccc    C1010318  11.971   7.617   4.256 -0.4829  0.2274 -0.3401
  224ccc     O410319  11.901   7.528   4.215  0.3923 -0.3551  0.6362
  224ccc    C1110320  12.026   7.045   5.184 -0.0665  0.4912  0.2547
  224ccc    C1210321  12.162   7.074   5.124  0.4348 -0.2176  0.0142
  224ccc    H1710322  11.947   7.026   5.110 -0.5765 -1.8053  1.3087
  224ccc    C1310323  12.160   7.196   5.025 -0.1054  0.4602 -0.3584
  224ccc    C1410324  12.090   7.323   5.086 -0.1592 -0.3325 -0.3555
  224ccc    C1510325  11.958   7.276   5.154 -0.1348  0.1815 -0.3179
  224ccc    H1810326  12.165   7.360   5.157  1.2469 -2.3597 -0.7072
  224ccc    H1910327  12.108   7.166   4.933  0.4669 -1.7207 -0.0106
  224ccc    H2010328  11.886   7.247   5.078  0.8585 -1.3277 -0.7168
  224ccc     O110329  11.920   7.379   5.236  0.2920 -0.0091  0.3600
  224ccc     O610330  12.294   7.241   4.990  0.6135  0.3680 -0.7444
  224ccc    C1610331  12.039   6.939   5.289 -0.5136  0.0189 -0.3823
  224ccc    H2110332  12.353   7.239   5.067 -0.3346 -0.5100 -0.0215
  224ccc    H2210333  12.129   7.523   5.004  0.6902 -0.1038  0.2498
  224ccc    H2310334  12.108   6.978   5.366  0.7053  0.2212 -1.5384
  224ccc    H2410335  12.091   6.855   5.242  0.1129 -0.0145  0.3422
  224ccc     O710336  11.911   6.895   5.345 -0.2828 -0.4856  0.0373
  224ccc    H2510337  11.947   6.838   5.415 -2.3443  0.9579  2.4233
  224ccc     O810338  11.983   7.164   5.246 -0.2914  0.2033  0.0351
  224ccc    H2610339  11.979   7.371   5.314  2.8245  0.1893 -1.4060
  224ccc    H2710340  12.235   7.098   5.203 -1.0993  0.7702  1.1810
  224ccc     O910341  12.211   6.951   5.056 -0.6610 -0.4234  0.7656
  224ccc    H2810342  12.307   6.938   5.072 -0.2631  1.1288 -0.1621
  224ccc     N310343  12.070   7.442   4.988  0.2805  0.1638  0.4120
  224ccc    C1710344  12.497   7.601   4.175  0.2944 -0.6024  0.5179
  224ccc    C1810345  12.434   7.746   4.148  0.4014 -0.3520  0.2259
  224ccc    H2910346  12.507   7.557   4.074  2.8725 -1.7685  1.1974
  224ccc    C1910347  12.288   7.740   4.105  0.2953  0.4212 -0.4906
  224ccc    C2010348  12.209   7.664   4.213 -0.2928  0.1660  0.5920
  224ccc    C2110349  12.274   7.523   4.225 -0.1495 -0.8630  0.2761
  224ccc    H3010350  12.225   7.718   4.307 -2.1093  2.0126 -0.0913
  224ccc    H3110351  12.272   7.691   4.008 -2.2163  1.8706 -0.9043
  224ccc    H3210352  12.272   7.467   4.131  0.3811  1.4578 -1.2026
  224ccc    O1010353  12.208   7.454   4.321  0.2533  0.2853 -0.1388
  224ccc    O1110354  12.246   7.874   4.094  0.5114  0.1386  0.0773
  224ccc    C2210355  12.639   7.613   4.235 -0.5844  0.0696  0.5818
  224ccc    H3310356  12.190   7.886   4.015  1.4663  0.3950 -0.5718
  224ccc    H3410357  12.053   7.632   4.075 -2.2387  1.1847 -0.9238
  224ccc    H3510358  12.627   7.644   4.339 -2.7985 -2.8408  1.2983
  224ccc    H3610359  12.700   7.691   4.187  2.0479 -0.3745  2.9774
  224ccc    O1210360  12.710   7.483   4.224  0.2765  0.5150  0.7189
  224ccc    H3710361  12.717   7.470   4.128 -1.4948  1.3986  0.4154
  224ccc    O1310362  12.410   7.535   4.272  0.4259 -0.1660  0.1243
  224ccc    H3810363  12.265   7.376   4.309  0.3713  0.5690 -1.6060
  224ccc    H3910364  12.437   7.801   4.243 -4.2629  0.2951  0.2487
  224ccc     O510365  12.505   7.812   4.046 -0.0285 -0.2568 -0.2231
  224ccc    H4010366  12.451   7.883   4.007 -0.3676 -0.8814 -0.8993
  224ccc     N410367  12.066   7.662   4.171  0.4414 -0.3456 -0.7072
  225ccc     N110368  10.949   7.876   5.084  0.5696 -0.4223  0.4264
  225ccc     H410369  10.992   7.821   5.011  1.0616 -0.3083  0.6286
  225ccc     C310370  10.917   7.800   5.208  0.1109 -0.5352 -0.2869
  225ccc     H510371  10.835   7.852   5.260  0.5985 -1.1315  1.1360
  225ccc     C410372  11.035   7.796   5.311  0.2377  0.2099  0.4571
  225ccc     H610373  10.877   7.699   5.194  0.1178 -0.7288  0.9411
  225ccc     H710374  10.996   7.782   5.412 -0.3847  1.6920  0.4489
  225ccc     H810375  11.088   7.892   5.317  1.2887 -0.1200 -2.2879
  225ccc     N210376  11.134   7.689   5.282  0.5492 -0.4811  1.2962
  225ccc     C510377  11.267   7.711   5.340 -0.4524  0.2286  0.1893
  225ccc     C610378  11.094   7.557   5.322 -0.5427  0.2934 -0.0844
  225ccc     H910379  11.174   7.507   5.376  2.2187  2.8007 -1.5646
  225ccc     C710380  11.070   7.482   5.197 -0.2927  0.4232 -0.6537
  225ccc    H1010381  11.004   7.563   5.385  0.7204  0.1536  1.7905
  225ccc    H1110382  11.157   7.475   5.130  0.9305  0.1082  0.9222
  225ccc    H1210383  10.989   7.535   5.145 -1.8435  0.2773  1.4669
  225ccc     C810384  11.032   7.344   5.224 -0.8027  0.3847 -0.4681
  225ccc     O210385  11.114   7.255   5.226  0.1967 -0.7786  0.1138
  225ccc    H1310386  11.330   7.622   5.332  0.2913  0.7225  0.4824
  225ccc    H1410387  11.259   7.725   5.449 -1.3998 -0.0939  0.1712
  225ccc     C910388  11.340   7.828   5.273 -0.3681 -0.0259  0.0537
  225ccc    H1510389  11.297   7.919   5.316  0.6568  0.3236  0.3596
  225ccc    H1610390  11.333   7.832   5.164  0.3195 -1.2874 -0.0628
  225ccc    C1010391  11.485   7.829   5.318  0.7156 -0.3573  0.0118
  225ccc     O410392  11.526   7.869   5.424 -0.4992 -0.4406  0.2612
  225ccc    C1110393  10.829   6.903   5.123 -0.3586 -0.4177  0.1646
  225ccc    C1210394  10.781   6.957   5.263 -0.3885 -0.0132  0.1191
  225ccc    H1710395  10.937   6.884   5.128 -0.0144  1.1220 -0.8707
  225ccc    C1310396  10.858   7.087   5.296  0.4173 -0.8427  0.4567
  225ccc    C1410397  10.837   7.190   5.178 -0.0222 -0.5849  0.7332
  225ccc    C1510398  10.890   7.125   5.053  0.3951  0.2054  0.2390
  225ccc    H1810399  10.730   7.207   5.168  0.2066  0.3999 -0.2254
  225ccc    H1910400  10.966   7.069   5.289  0.5945  0.6479 -3.0060
  225ccc    H2010401  10.998   7.111   5.062  0.7121  1.2110 -1.5270
  225ccc     O110402  10.867   7.207   4.940 -0.5462 -0.4362 -0.1925
  225ccc     O610403  10.816   7.147   5.426 -0.4623  0.7522 -0.1432
  225ccc    C1610404  10.760   6.777   5.070 -0.2333 -0.2129  0.5159
  225ccc    H2110405  10.854   7.084   5.490 -2.7808 -0.3614  0.2366
  225ccc    H2210406  10.832   7.399   5.218  0.7752  1.0924 -0.8522
  225ccc    H2310407  10.775   6.700   5.147  1.0811 -0.3029  0.1982
  225ccc    H2410408  10.806   6.740   4.977 -0.1917  1.9105 -0.3811
  225ccc     O710409  10.618   6.797   5.048 -0.0725  0.3418  0.7290
  225ccc    H2510410  10.605   6.853   4.970  1.9449  0.4985  0.4411
  225ccc     O810411  10.813   7.007   5.027  0.7424 -0.2516  0.4001
  225ccc    H2610412  10.916   7.158   4.871  0.7823  1.5566 -0.7733
  225ccc    H2710413  10.674   6.973   5.246 -0.6976 -2.6375 -0.8318
  225ccc     O910414  10.803   6.860   5.366  0.2556 -0.1013 -0.6447
  225ccc    H2810415  10.737   6.788   5.364  0.4556 -0.7439  4.0936
  225ccc     N310416  10.900   7.323   5.209 -0.0599  0.1324  0.4609
  225ccc    C1710417  11.991   7.734   5.230 -0.9641 -0.3270 -0.5889
  225ccc    C1810418  11.946   7.851   5.140 -0.1281  0.0415  0.4615
  225ccc    H2910419  12.002   7.636   5.183 -0.8464 -1.3955  1.5443
  225ccc    C1910420  11.794   7.844   5.110  0.8568 -0.4118  0.6718
  225ccc    C2010421  11.711   7.813   5.235 -0.5598  0.4378 -0.5410
  225ccc    C2110422  11.769   7.686   5.304  0.1817  0.2653 -0.5891
  225ccc    H3010423  11.744   7.893   5.303 -0.2433 -0.2951  0.1833
  225ccc    H3110424  11.776   7.774   5.028 -1.0478  3.6356 -2.7621
  225ccc    H3210425  11.773   7.599   5.238 -0.8385 -1.5930  1.6702
  225ccc    O1010426  11.707   7.649   5.427  0.2824  0.0413 -0.2572
  225ccc    O1110427  11.747   7.968   5.053  0.5585 -0.7144  0.0772
  225ccc    C2210428  12.131   7.761   5.288  0.5406  0.1461 -0.2786
  225ccc    H3310429  11.793   7.989   4.971 -0.6965  1.4068 -0.1471
  225ccc    H3410430  11.547   7.743   5.141  0.6422 -1.9570  1.5975
  225ccc    H3510431  12.114   7.822   5.378 -1.4007  1.4070 -1.4313
  225ccc    H3610432  12.189   7.824   5.219  0.4379 -0.0365 -0.5340
  225ccc    O1210433  12.198   7.638   5.314 -0.0801  0.2150  0.5409
  225ccc    H3710434  12.137   7.581   5.363  0.8639 -0.0416  1.4565
  225ccc    O1310435  11.900   7.724   5.338  0.3637  0.3253  0.0561
  225ccc    H3810436  11.660   7.564   5.423  1.0020 -0.3709 -0.0762
  225ccc    H3910437  11.954   7.948   5.192  0.7535 -0.3201  1.0269
  225ccc     O510438  12.010   7.838   5.018  0.5796  0.1987  0.6533
  225ccc    H4010439  12.049   7.923   4.994 -3.0210  1.7359 -0.4320
  225ccc     N410440  11.566   7.804   5.220 -0.5472  0.1226  0.3691
  226ccc     N110441  11.950  10.756   4.193  0.4025 -0.2281  0.1565
  226ccc     H410442  11.958  10.655   4.202 -0.3639 -0.5724 -2.1972
  226ccc     C310443  12.075  10.834   4.184 -0.6765 -0.1060  0.4142
  226ccc     H510444  12.087  10.833   4.075 -1.0971 -2.2636  0.3519
  226ccc     C410445  12.191  10.773   4.258  0.9366 -0.1128 -1.5677
  226ccc     H610446  12.056  10.935   4.221 -0.0826  0.0625  0.2784
  226ccc     H710447  12.165  10.669   4.280 -2.3871  0.3667 -2.7338
  226ccc     H810448  12.195  10.827   4.354 -1.5196 -3.4301  0.6351
  226ccc     N210449  12.319  10.783   4.188  0.8076  0.8235 -0.2325
  226ccc     C510450  12.356  10.922   4.169  0.4304 -0.2456 -0.1669
  226ccc     C610451  12.424  10.712   4.269  0.0912 -0.8442  0.9765
  226ccc     H910452  12.521  10.758   4.249  0.4409 -2.0223 -0.1218
  226ccc     C710453  12.441  10.565   4.231 -0.1338 -0.3052  0.6124
  226ccc    H1010454  12.418  10.720   4.379  1.5385 -1.8159  1.1496
  226ccc    H1110455  12.448  10.550   4.122 -0.7020 -0.5798  0.6091
  226ccc    H1210456  12.355  10.506   4.264 -0.9024 -0.1726 -1.0370
  226ccc     C810457  12.568  10.511   4.279  0.5325 -0.4762  0.4400
  226ccc     O210458  12.660  10.479   4.211  0.4185 -0.0336  0.1953
  226ccc    H1310459  12.420  10.952   4.252 -0.3374  0.8362  0.0570
  226ccc    H1410460  12.269  10.985   4.147  1.4007  0.2198 -3.1826
  226ccc     C910461  12.438  10.944   4.046  0.0819 -0.2774 -0.3733
  226ccc    H1510462  12.391  10.881   3.969  0.6131 -1.2340  0.0626
  226ccc    H1610463  12.538  10.904   4.067  0.4420  0.0874 -1.3711
  226ccc    C1010464  12.453  11.091   4.010 -0.3559  0.6117  0.3586
  226ccc     O410465  12.421  11.183   4.084 -0.0561  0.0326  0.4000
  226ccc    C1110466  12.890  10.233   4.505  0.9477  0.6710  0.0352
  226ccc    C1210467  12.922  10.387   4.545  0.3799  0.6634 -0.3741
  226ccc    H1710468  12.902  10.228   4.396  0.1976  0.6333 -0.0511
  226ccc    C1310469  12.814  10.469   4.480  0.2799 -1.1550  0.1634
  226ccc    C1410470  12.666  10.413   4.491  0.2723  0.5148 -0.1386
  226ccc    C1510471  12.655  10.269   4.453  0.5279 -0.2650 -0.3771
  226ccc    H1810472  12.634  10.409   4.595 -1.4538 -2.6044 -0.6682
  226ccc    H1910473  12.838  10.478   4.373  1.5907  0.2066  0.5305
  226ccc    H2010474  12.677  10.242   4.348  0.7595  2.3641 -1.0690
  226ccc     O110475  12.530  10.219   4.491  0.2117  0.1915  0.5197
  226ccc     O610476  12.815  10.608   4.529  0.4217 -0.5123 -0.3260
  226ccc    C1610477  12.985  10.120   4.560  0.7740  0.0342  0.6343
  226ccc    H2110478  12.904  10.645   4.511  0.9877 -1.5725  0.1896
  226ccc    H2210479  12.477  10.502   4.460 -1.2097 -2.4833 -0.6871
  226ccc    H2310480  13.086  10.136   4.520  0.8981  1.3001  1.3903
  226ccc    H2410481  12.950  10.021   4.529 -0.0698  0.5628 -0.1927
  226ccc     O710482  12.986  10.131   4.704  0.3473  0.8094 -0.0969
  226ccc    H2510483  12.910  10.079   4.736 -0.2622 -0.2461 -2.9006
  226ccc     O810484  12.751  10.201   4.538 -0.1709 -0.4249 -0.0567
  226ccc    H2610485  12.546  10.209   4.587 -1.4685 -0.0605  0.8058
  226ccc    H2710486  12.918  10.393   4.655 -0.0962 -1.1057 -0.2595
  226ccc     O910487  13.045  10.439   4.494 -0.5941 -0.1016  0.1056
  226ccc    H2810488  13.086  10.493   4.563 -0.2611 -0.0023 -0.1697
  226ccc     N310489  12.565  10.490   4.411 -0.3493  0.0049  0.0907
  226ccc    C1710490  12.634  10.993   3.512  0.8458  0.1294  0.3183
  226ccc    C1810491  12.732  10.979   3.633  0.3272  0.0734  0.0215
  226ccc    H2910492  12.634  11.098   3.480  0.5073  0.1813  0.4815
  226ccc    C1910493  12.692  11.078   3.743  0.3216  1.1771  0.4762
  226ccc    C2010494  12.549  11.033   3.786 -0.5850  0.7787  0.8439
  226ccc    C2110495  12.453  11.033   3.662  0.5828 -0.5002 -0.6060
  226ccc    H3010496  12.560  10.930   3.823  0.5758  0.5899  0.0063
  226ccc    H3110497  12.685  11.173   3.690  1.7917  1.4503  0.7293
  226ccc    H3210498  12.428  11.135   3.632  0.0342 -0.7185 -0.9020
  226ccc    O1010499  12.330  10.970   3.696  0.1975  0.4535  0.4961
  226ccc    O1110500  12.784  11.084   3.854  0.4211  0.0050  0.0298
  226ccc    C2210501  12.674  10.901   3.394 -0.7889  0.1243 -0.8741
  226ccc    H3310502  12.862  11.136   3.827  1.3265 -0.9819  0.6568
  226ccc    H3410503  12.504  11.210   3.854  1.3977 -0.6102 -0.6151
  226ccc    H3510504  12.671  10.799   3.435  0.0750  0.0085 -1.0707
  226ccc    H3610505  12.780  10.917   3.368 -1.1521  0.9037 -1.9718
  226ccc    O1210506  12.594  10.928   3.282  0.0902 -0.1987  0.6208
  226ccc    H3710507  12.512  10.883   3.306  1.1013 -2.4554  0.1566
  226ccc    O1310508  12.500  10.957   3.556 -0.1053 -0.2719  0.1972
  226ccc    H3810509  12.276  11.020   3.759  1.0574  1.4689  0.4453
  226ccc    H3910510  12.730  10.880   3.680  3.6544  0.3575  0.9867
  226ccc     O510511  12.867  11.012   3.593 -0.5757 -0.2681  0.1929
  226ccc    H4010512  12.930  10.969   3.653 -0.5412 -0.1547  0.2386
  226ccc     N410513  12.504  11.117   3.895  0.3633 -0.3991 -0.1046
  227ccc     N110514  11.135  10.846   3.976  0.3396 -0.0814 -0.4750
  227ccc     H410515  11.214  10.847   3.912  0.1245  0.0797 -0.7408
  227ccc     C310516  11.007  10.903   3.931  0.6873 -0.0951 -0.4774
  227ccc     H510517  10.929  10.827   3.941 -0.5680  1.0836 -1.1070
  227ccc     C410518  11.004  10.941   3.781 -0.5533 -0.3368  0.9997
  227ccc     H610519  10.963  10.985   3.989  0.2368 -0.5522 -0.1617
  227ccc     H710520  11.030  10.851   3.723  2.1212  0.6358  0.5585
  227ccc     H810521  11.085  11.015   3.775 -1.5160  0.6168 -0.9848
  227ccc     N210522  10.877  10.991   3.737  0.0869 -0.2742  0.1247
  227ccc     C510523  10.890  11.064   3.610  0.3244 -0.2612 -0.1868
  227ccc     C610524  10.770  10.885   3.725 -0.8832  0.2896 -0.1906
  227ccc     H910525  10.794  10.811   3.647 -1.3228  0.7800 -0.8075
  227ccc     C710526  10.623  10.926   3.714 -0.3984  0.7613 -0.0996
  227ccc    H1010527  10.773  10.825   3.816  2.6544 -0.8628 -0.9043
  227ccc    H1110528  10.599  10.967   3.615 -0.2994  3.9633  1.0669
  227ccc    H1210529  10.596  11.000   3.790 -1.0740  1.2185 -0.7649
  227ccc     C810530  10.530  10.803   3.744 -0.2404 -0.4232 -0.0038
  227ccc     O210531  10.567  10.683   3.747 -0.1066 -0.3443 -0.7095
  227ccc    H1310532  10.792  11.090   3.568  1.4072  2.4540 -1.2436
  227ccc    H1410533  10.938  11.003   3.533  0.3004  1.3187 -1.5251
  227ccc     C910534  10.954  11.202   3.624  0.0125 -0.3471 -0.2539
  227ccc    H1510535  11.013  11.237   3.539 -0.2338  1.0537  0.1241
  227ccc    H1610536  11.019  11.212   3.712  0.1307  0.0650 -0.3864
  227ccc    C1010537  10.858  11.314   3.629  0.4111 -0.1534 -0.6436
  227ccc     O410538  10.812  11.367   3.532 -0.1546  0.0719 -0.3142
  227ccc    C1110539  10.021  10.687   3.683  0.5829 -0.7488  0.2543
  227ccc    C1210540  10.130  10.596   3.622  0.3042 -0.2231  0.0858
  227ccc    H1710541  10.017  10.775   3.618 -0.6121 -0.2498  0.9912
  227ccc    C1310542  10.264  10.674   3.626 -1.3026  0.5428 -0.3612
  227ccc    C1410543  10.295  10.738   3.763  0.7389  0.4293  0.3946
  227ccc    C1510544  10.165  10.806   3.825  0.0721  0.1619 -0.4239
  227ccc    H1810545  10.327  10.656   3.828 -1.0994  0.4746  1.4155
  227ccc    H1910546  10.262  10.751   3.547 -0.2098  0.4922 -0.4508
  227ccc    H2010547  10.142  10.903   3.779 -1.1708  0.5522  0.9508
  227ccc     O110548  10.174  10.838   3.961 -0.0098 -0.3585  0.0001
  227ccc     O610549  10.360  10.580   3.592  0.3571 -0.2299 -0.0863
  227ccc    C1610550   9.888  10.622   3.687  0.5089  0.0322 -0.0601
  227ccc    H2110551  10.445  10.609   3.629 -1.2048  3.9980  0.7442
  227ccc    H2210552  10.380  10.926   3.712  1.1436  0.5062  0.0074
  227ccc    H2310553   9.892  10.539   3.758 -0.8493  1.1086  1.3413
  227ccc    H2410554   9.862  10.575   3.591 -0.7560 -0.3475  0.4628
  227ccc     O710555   9.793  10.718   3.726 -0.2137 -0.4154 -0.4891
  227ccc    H2510556   9.782  10.773   3.646  0.1087 -2.6538 -2.1950
  227ccc     O810557  10.052  10.722   3.818  0.3359 -0.1427  0.3683
  227ccc    H2610558  10.130  10.758   3.995 -1.3761  0.3729  0.0051
  227ccc    H2710559  10.144  10.510   3.688  1.8884 -0.3936 -0.4302
  227ccc     O910560  10.089  10.557   3.489  0.2303  0.8235 -0.2672
  227ccc    H2810561  10.032  10.479   3.490 -0.7093  1.4393 -1.9815
  227ccc     N310562  10.402  10.831   3.743  0.2954  0.2391 -0.1679
  227ccc    C1710563  10.573  11.696   3.774  0.4985 -0.1966 -1.4222
  227ccc    C1810564  10.506  11.549   3.790 -0.7041 -0.1171  0.0749
  227ccc    H2910565  10.579  11.721   3.668 -0.2445  3.6109 -0.6903
  227ccc    C1910566  10.591  11.440   3.716 -0.9638 -0.1740  0.1752
  227ccc    C2010567  10.727  11.454   3.784 -0.1641 -0.5821 -1.2013
  227ccc    C2110568  10.788  11.599   3.761 -0.7091 -0.0372 -0.5736
  227ccc    H3010569  10.711  11.465   3.892 -2.1873 -0.1387 -1.5074
  227ccc    H3110570  10.591  11.466   3.610 -2.4066  0.6701  0.3527
  227ccc    H3210571  10.800  11.625   3.655  1.9803 -3.2525 -1.2019
  227ccc    O1010572  10.918  11.593   3.828 -0.3482 -0.0134 -0.1819
  227ccc    O1110573  10.538  11.308   3.728  0.4816 -0.0419 -0.0949
  227ccc    C2210574  10.488  11.815   3.829 -0.6809  1.0583 -1.4384
  227ccc    H3310575  10.570  11.273   3.813 -1.5927  1.6274  1.4879
  227ccc    H3410576  10.866  11.305   3.843 -0.1528  2.0018  0.7933
  227ccc    H3510577  10.452  11.791   3.930 -2.0983 -1.2921 -2.3932
  227ccc    H3610578  10.393  11.818   3.774  0.3415 -0.4574 -3.4209
  227ccc    O1210579  10.543  11.937   3.807  0.5755 -0.3114  0.4239
  227ccc    H3710580  10.630  11.936   3.851  0.3106  0.1264  0.9760
  227ccc    O1310581  10.709  11.703   3.827  0.1600  0.1551  0.0068
  227ccc    H3810582  10.965  11.678   3.819  1.6487 -0.9077  0.9387
  227ccc    H3910583  10.508  11.521   3.896 -0.6938 -0.3501  0.0129
  227ccc     O510584  10.376  11.544   3.738  0.1292 -0.0131  0.1000
  227ccc    H4010585  10.316  11.568   3.811  0.1941  0.2375  0.0740
  227ccc     N410586  10.820  11.340   3.759  0.0399 -0.1252 -0.2599
  228ccc     N110587  12.491   9.485   4.631  0.1017 -0.4422 -0.2947
  228ccc     H410588  12.426   9.504   4.706 -0.0329 -3.7334  0.5786
  228ccc     C310589  12.630   9.473   4.673  0.0361 -0.0921 -0.4067
  228ccc     H510590  12.687   9.466   4.579 -1.1620  2.4645 -1.4324
  228ccc     C410591  12.661   9.372   4.786  0.5553 -0.1888 -0.1143
  228ccc     H610592  12.663   9.569   4.714 -0.1561  0.2391 -1.0066
  228ccc     H710593  12.623   9.412   4.881 -0.1632  0.7943 -0.8061
  228ccc     H810594  12.770   9.367   4.801  0.4858  0.2060  0.5684
  228ccc     N210595  12.601   9.238   4.772 -0.9438 -0.7000  0.1192
  228ccc     C510596  12.648   9.181   4.649 -0.2577  0.2038  0.3132
  228ccc     C610597  12.660   9.158   4.877  0.1596  0.1161 -1.0249
  228ccc     H910598  12.658   9.050   4.856  0.9322 -0.3772  1.1428
  228ccc     C710599  12.577   9.186   5.010 -0.7004 -0.3886 -0.1939
  228ccc    H1010600  12.765   9.176   4.901 -0.1129  0.0240  0.3814
  228ccc    H1110601  12.469   9.169   4.999 -0.6185 -1.8180  0.8752
  228ccc    H1210602  12.596   9.292   5.034 -0.6103 -0.2839 -0.7185
  228ccc     C810603  12.630   9.105   5.121 -0.0602  0.1531  0.3918
  228ccc     O210604  12.582   8.997   5.152  0.1566 -0.1488  0.2551
  228ccc    H1310605  12.741   9.123   4.658 -0.4959 -0.1619  0.4359
  228ccc    H1410606  12.662   9.252   4.566  0.6827  0.9329  1.0772
  228ccc     C910607  12.550   9.082   4.602  0.1626  0.3167 -0.1676
  228ccc    H1510608  12.450   9.127   4.603 -0.1988 -0.4693  0.5491
  228ccc    H1610609  12.552   8.998   4.673 -1.2048  0.1515 -0.3097
  228ccc    C1010610  12.588   9.042   4.465  0.5592 -0.7892  0.1706
  228ccc     O410611  12.636   8.938   4.431 -0.4418  0.4849 -1.2665
  228ccc    C1110612  12.917   8.866   5.460  1.0545  0.7506 -0.2011
  228ccc    C1210613  12.986   8.896   5.327 -0.0001 -0.0976 -0.1977
  228ccc    H1710614  12.831   8.799   5.443  0.8753  0.1897  2.4743
  228ccc    C1310615  12.898   8.967   5.229  0.7323 -0.5888  0.3581
  228ccc    C1410616  12.825   9.095   5.283  0.1529 -0.7678  0.5257
  228ccc    C1510617  12.752   9.055   5.411 -0.8367  0.3338  0.0758
  228ccc    H1810618  12.907   9.161   5.315 -0.9383  1.9700 -1.8180
  228ccc    H1910619  12.829   8.893   5.188 -1.5614  0.2748  2.4148
  228ccc    H2010620  12.672   8.988   5.379  1.4122 -2.3253 -0.4010
  228ccc     O110621  12.699   9.164   5.489 -0.2150  0.4396 -0.3229
  228ccc     O610622  12.978   9.022   5.122  0.6208  1.0741 -0.6221
  228ccc    C1610623  13.002   8.818   5.577 -0.1859 -0.7066 -0.1754
  228ccc    H2110624  12.987   8.948   5.059 -1.9309  0.3254 -0.2237
  228ccc    H2210625  12.773   9.247   5.163 -0.8860  0.3131 -1.0269
  228ccc    H2310626  13.038   8.718   5.551 -1.0531 -1.0826  0.0320
  228ccc    H2410627  12.940   8.837   5.665  0.7843  4.2952 -0.2503
  228ccc     O710628  13.119   8.898   5.589  0.2105  0.2531 -0.0101
  228ccc    H2510629  13.148   8.894   5.682  3.1599 -0.6003 -0.8733
  228ccc     O810630  12.854   8.985   5.505 -0.5986  0.1605 -0.2344
  228ccc    H2610631  12.691   9.125   5.578  1.0844  0.2147 -0.2796
  228ccc    H2710632  13.066   8.966   5.354  1.3652 -1.9494  0.7570
  228ccc     O910633  13.037   8.772   5.277  0.4359  0.0813  0.4504
  228ccc    H2810634  13.117   8.793   5.227 -1.2029  0.2262 -2.3233
  228ccc     N310635  12.736   9.155   5.186  0.7597  0.0180  0.6644
  228ccc    C1710636  12.696   9.307   4.013 -0.8444  0.3098  0.0318
  228ccc    C1810637  12.796   9.223   4.097 -0.4044 -0.2092  0.2905
  228ccc    H2910638  12.694   9.401   4.070  0.5457 -0.2457  1.0701
  228ccc    C1910639  12.737   9.187   4.236  0.2089  0.3779 -0.2456
  228ccc    C2010640  12.598   9.128   4.232 -0.5020 -0.0493  0.4832
  228ccc    C2110641  12.511   9.225   4.149  0.1893 -0.1647  0.1460
  228ccc    H3010642  12.604   9.026   4.194 -0.9331 -0.1992  0.8149
  228ccc    H3110643  12.738   9.275   4.302 -1.0689 -0.0068  0.3188
  228ccc    H3210644  12.493   9.320   4.201  0.3920  0.8845 -1.5855
  228ccc    O1010645  12.386   9.167   4.112  0.5700 -1.0015  0.0124
  228ccc    O1110646  12.822   9.090   4.292 -0.7285 -0.0678  0.2388
  228ccc    C2210647  12.743   9.346   3.874  0.0161  0.3797  0.0505
  228ccc    H3310648  12.911   9.130   4.303 -0.2456 -0.7048 -1.1402
  228ccc    H3410649  12.510   9.218   4.393  2.6508  0.5966  1.6110
  228ccc    H3510650  12.748   9.255   3.813  0.7339  0.4608 -0.0208
  228ccc    H3610651  12.847   9.377   3.887  0.3468  0.5623 -2.4939
  228ccc    O1210652  12.657   9.446   3.815  0.5260 -0.1590 -0.7874
  228ccc    H3710653  12.565   9.418   3.824  0.2718  0.3618 -1.6994
  228ccc    O1310654  12.563   9.245   4.016 -0.3465 -0.4368  0.4366
  228ccc    H3810655  12.383   9.197   4.020  0.2102 -2.6015 -0.5312
  228ccc    H3910656  12.807   9.136   4.031  2.2339  1.7320 -2.1234
  228ccc     O510657  12.919   9.300   4.113 -0.4427 -0.1778 -0.1387
  228ccc    H4010658  12.988   9.264   4.054  1.4475  0.1786  1.7303
  228ccc     N410659  12.550   9.129   4.365  0.0492  0.0408 -0.6987
  229ccc     N110660  12.140   9.631   4.111 -0.3774  0.3762  0.0278
  229ccc     H410661  12.235   9.597   4.106 -0.0180  1.1035  1.3307
  229ccc     C310662  12.117   9.759   4.039 -0.6105  0.2392  0.0248
  229ccc     H510663  12.198   9.794   3.974 -1.6983  1.2377 -0.8498
  229ccc     C410664  12.071   9.874   4.127  0.5680 -0.4880 -0.5646
  229ccc     H610665  12.044   9.735   3.961  0.9174 -2.8475 -0.6158
  229ccc     H710666  12.000   9.827   4.196 -0.5904 -1.2171 -2.1896
  229ccc     H810667  12.011   9.938   4.061  1.3722  1.6227  0.6413
  229ccc     N210668  12.180   9.940   4.204 -0.4040  0.0609 -1.2040
  229ccc     C510669  12.125  10.055   4.276  0.4460  0.0183  0.0628
  229ccc     C610670  12.284   9.860   4.269  0.4574 -0.8437 -0.0600
  229ccc     H910671  12.244   9.794   4.347  0.5755 -1.8068 -0.7954
  229ccc     C710672  12.384   9.945   4.340 -0.2559  0.3549 -0.0972
  229ccc    H1010673  12.343   9.801   4.198  2.1358  0.5723  0.0887
  229ccc    H1110674  12.346   9.974   4.438  2.4206 -1.8767  1.7705
  229ccc    H1210675  12.412  10.033   4.280  1.8037 -1.6437 -2.2641
  229ccc     C810676  12.502   9.856   4.377  0.0608 -0.2975 -0.4016
  229ccc     O210677  12.501   9.800   4.488 -0.2026  0.1853  0.3272
  229ccc    H1310678  12.068  10.112   4.202  1.1468  0.1123 -0.4068
  229ccc    H1410679  12.203  10.116   4.322  0.5067 -1.5287  2.1816
  229ccc     C910680  12.021  10.009   4.385  0.0913 -0.5491 -0.7736
  229ccc    H1510681  12.060   9.932   4.453 -0.6835  0.7299  1.2227
  229ccc    H1610682  11.925   9.978   4.342 -0.9432  1.4682 -0.0587
  229ccc    C1010683  11.981  10.121   4.469 -0.0141 -1.1362  0.7755
  229ccc     O410684  11.967  10.237   4.437  0.1020  0.1182  0.0529
  229ccc    C1110685  12.979   9.653   4.257  0.6029  0.0833 -0.2552
  229ccc    C1210686  12.925   9.677   4.403  0.6245 -0.1506  0.3278
  229ccc    H1710687  13.021   9.746   4.216  2.5708 -0.2953  0.7748
  229ccc    C1310688  12.810   9.778   4.405 -0.3405 -0.0473  0.4883
  229ccc    C1410689  12.697   9.740   4.303 -0.1488 -0.1111 -0.0341
  229ccc    C1510690  12.760   9.702   4.167 -0.0731 -0.1442  0.2806
  229ccc    H1810691  12.642   9.649   4.329 -0.7708  0.7563  1.8799
  229ccc    H1910692  12.847   9.878   4.379 -2.9231  0.6824 -0.7254
  229ccc    H2010693  12.794   9.791   4.114  0.4699 -0.5527 -0.0661
  229ccc     O110694  12.663   9.644   4.092  0.0557  0.3784  0.3320
  229ccc     O610695  12.752   9.782   4.538 -0.3279 -0.2147 -0.1916
  229ccc    C1610696  13.096   9.552   4.256 -0.0639 -0.1435 -0.2773
  229ccc    H2110697  12.656   9.789   4.523 -0.5872  0.7593  1.6604
  229ccc    H2210698  12.583   9.896   4.200 -0.2150 -2.3734 -1.7329
  229ccc    H2310699  13.183   9.596   4.307 -0.7453  0.5517  0.3195
  229ccc    H2410700  13.116   9.538   4.149  0.6046 -0.7315 -0.0781
  229ccc     O710701  13.070   9.433   4.324 -0.4752  0.2538 -0.0630
  229ccc    H2510702  12.988   9.397   4.284 -0.8828  0.9373  0.1393
  229ccc     O810703  12.874   9.611   4.174  1.2836 -0.3642 -0.1068
  229ccc    H2610704  12.662   9.701   4.013  0.5646  2.3273  1.6593
  229ccc    H2710705  12.882   9.584   4.440  2.6555 -1.2247  0.1226
  229ccc     O910706  13.034   9.732   4.480  0.0738  0.1816  0.0211
  229ccc    H2810707  13.014   9.725   4.575  1.3545 -1.0762  0.2118
  229ccc     N310708  12.592   9.842   4.287 -0.5519 -0.3997 -0.4213
  229ccc    C1710709  11.879  10.436   4.836 -0.7252 -0.2291  0.6285
  229ccc    C1810710  11.763  10.341   4.803  0.8579  0.1965 -0.0884
  229ccc    H2910711  11.891  10.512   4.758 -1.7569 -1.5569 -0.8913
  229ccc    C1910712  11.801  10.250   4.682  0.1298  0.3831 -0.4802
  229ccc    C2010713  11.935  10.187   4.706 -0.3439  0.7842 -0.2253
  229ccc    C2110714  12.043  10.302   4.729  0.4302  0.7441 -0.4554
  229ccc    H3010715  11.928  10.128   4.798 -0.1668  2.2240  0.7486
  229ccc    H3110716  11.803  10.313   4.592  1.6706  0.1829 -0.6057
  229ccc    H3210717  12.046  10.372   4.645  0.3215  0.8154 -0.3992
  229ccc    O1010718  12.169  10.245   4.758 -0.0891  0.0280 -0.4548
  229ccc    O1110719  11.707  10.145   4.660  0.0283 -0.0221 -0.1675
  229ccc    C2210720  11.852  10.515   4.969  0.5567  0.0011 -0.1110
  229ccc    H3310721  11.650  10.158   4.582 -1.1787 -1.5962  0.4053
  229ccc    H3410722  11.983   9.997   4.636 -1.8218 -0.4950 -1.3352
  229ccc    H3510723  11.841  10.442   5.051  0.0501  4.6448  4.5249
  229ccc    H3610724  11.754  10.563   4.957  0.4813 -0.3257 -0.8447
  229ccc    O1210725  11.968  10.598   4.997  0.1058 -0.0218 -0.5386
  229ccc    H3710726  11.942  10.657   5.070 -0.9629 -0.8013 -0.2599
  229ccc    O1310727  12.001  10.365   4.854  0.1594 -0.3639 -0.0696
  229ccc    H3810728  12.150  10.189   4.835  1.8810  1.9010  1.5075
  229ccc    H3910729  11.744  10.287   4.897  0.2409  1.6802  0.6729
  229ccc     O510730  11.642  10.414   4.776  0.3833 -0.1531  0.2392
  229ccc    H4010731  11.570  10.356   4.808 -0.8578  1.8385  1.2643
  229ccc     N410732  11.971  10.091   4.597  0.0295  0.2744 -0.2202
  230ccc     N110733  12.049   7.704   2.317 -0.2801  0.2196  0.1741
  230ccc     H410734  11.963   7.757   2.327 -0.9250 -0.3796 -1.7528
  230ccc     C310735  12.087   7.663   2.175  1.0308  0.6243 -0.2432
  230ccc     H510736  12.197   7.652   2.178  0.8354 -1.9570  0.6741
  230ccc     C410737  12.039   7.749   2.056  0.0698 -0.5244  0.6477
  230ccc     H610738  12.039   7.564   2.168 -2.4206  2.0137  1.5288
  230ccc     H710739  12.056   7.855   2.080 -0.5037 -0.3155  0.1633
  230ccc     H810740  11.931   7.750   2.036  0.3749  1.7990 -1.3984
  230ccc     N210741  12.103   7.700   1.930  0.2144 -0.3723 -0.1186
  230ccc     C510742  12.062   7.567   1.888 -0.2008 -0.2230  0.1074
  230ccc     C610743  12.098   7.798   1.827 -0.2461  0.2266  0.6572
  230ccc     H910744  12.165   7.759   1.749 -0.6630  0.0283  0.3955
  230ccc     C710745  12.152   7.931   1.874 -0.4898  0.4321  0.0644
  230ccc    H1010746  11.998   7.803   1.783  0.8238  1.8406 -1.8322
  230ccc    H1110747  12.224   7.926   1.957  0.3989  1.1549 -0.6390
  230ccc    H1210748  12.065   7.993   1.898 -0.6106 -0.9019  3.9105
  230ccc     C810749  12.222   8.015   1.774  0.5033  0.2286 -0.1968
  230ccc     O210750  12.212   8.004   1.650 -0.5103 -0.1843 -0.2883
  230ccc    H1310751  11.962   7.578   1.843 -0.6405  0.4663  1.2021
  230ccc    H1410752  12.061   7.507   1.980 -0.4883  0.7964  0.7992
  230ccc     C910753  12.151   7.499   1.788  0.5333  0.0119 -0.7585
  230ccc    H1510754  12.252   7.481   1.827  0.1152 -1.2633 -0.2024
  230ccc    H1610755  12.159   7.559   1.697  2.1684 -1.1941 -1.4718
  230ccc    C1010756  12.081   7.374   1.744  0.0807  0.3748  0.2347
  230ccc     O410757  11.965   7.344   1.781  0.2768  0.2342 -0.4168
  230ccc    C1110758  12.494   8.367   1.538 -0.2159  0.0968  0.2639
  230ccc    C1210759  12.374   8.424   1.625 -0.8995  0.4792 -0.3868
  230ccc    H1710760  12.450   8.328   1.444  0.6102  1.1748 -0.5892
  230ccc    C1310761  12.285   8.307   1.680 -0.0548 -0.2587  0.4513
  230ccc    C1410762  12.380   8.209   1.753 -0.1467 -0.6844 -0.2204
  230ccc    C1510763  12.484   8.151   1.649  0.5265  0.5599 -0.0622
  230ccc    H1810764  12.435   8.270   1.826 -0.7382  2.0173 -1.8777
  230ccc    H1910765  12.245   8.249   1.596  1.9884 -1.1352  0.0496
  230ccc    H2010766  12.446   8.091   1.565  1.0447  0.5785 -0.3129
  230ccc     O110767  12.583   8.080   1.717  0.0990 -0.2492 -0.1056
  230ccc     O610768  12.180   8.358   1.765  0.6787  0.5346  0.3436
  230ccc    C1610769  12.597   8.479   1.503  0.2814 -0.3237  0.7906
  230ccc    H2110770  12.128   8.430   1.725  0.2405  0.7870  1.3427
  230ccc    H2210771  12.283   8.128   1.928  2.7340 -0.8219  0.6715
  230ccc    H2310772  12.625   8.528   1.597  0.8441  1.5807 -0.3172
  230ccc    H2410773  12.550   8.557   1.442  2.0620  0.6610  0.6082
  230ccc     O710774  12.713   8.423   1.434  0.6209  0.1313 -0.0509
  230ccc    H2510775  12.723   8.332   1.464  0.5341  0.4270  0.8963
  230ccc     O810776  12.564   8.265   1.610  0.2370  0.2399  0.3681
  230ccc    H2610777  12.609   8.140   1.789  0.5512 -1.5739  0.8644
  230ccc    H2710778  12.419   8.478   1.710  2.2919 -0.4391 -1.3262
  230ccc     O910779  12.287   8.510   1.541 -0.6013  0.4435  0.0144
  230ccc    H2810780  12.250   8.456   1.469 -1.3445  0.4352  0.3959
  230ccc     N310781  12.304   8.105   1.832  0.5775 -0.5621  0.0813
  230ccc    C1710782  12.433   7.096   1.450 -0.1175  0.0589  0.2597
  230ccc    C1810783  12.401   7.228   1.380 -0.1109 -0.4709  0.3674
  230ccc    H2910784  12.341   7.038   1.432  0.7367 -0.8608 -1.3953
  230ccc    C1910785  12.262   7.276   1.434  0.2596 -0.3083  0.7694
  230ccc    C2010786  12.269   7.293   1.587  0.7871 -0.0249  0.1189
  230ccc    C2110787  12.322   7.162   1.651  0.0339 -0.1699 -0.2016
  230ccc    H3010788  12.341   7.368   1.622  0.7379  0.4818 -0.8287
  230ccc    H3110789  12.187   7.205   1.398  1.2873 -0.1925 -1.7640
  230ccc    H3210790  12.250   7.079   1.650  1.0443 -1.0773  0.2118
  230ccc    O1010791  12.350   7.176   1.787 -0.4653  0.0887  0.3769
  230ccc    O1110792  12.224   7.397   1.367 -0.3704 -0.0236 -0.0006
  230ccc    C2210793  12.556   7.017   1.399 -0.0970  0.5034  0.5851
  230ccc    H3310794  12.292   7.465   1.378  1.2119 -0.7154 -3.9102
  230ccc    H3410795  12.067   7.255   1.583 -1.8447  0.3498  1.5307
  230ccc    H3510796  12.568   7.030   1.291  2.9350 -1.7170  0.5216
  230ccc    H3610797  12.532   6.911   1.415  0.8953  0.3435  1.0989
  230ccc    O1210798  12.674   7.050   1.472  0.2158  0.4321  0.8062
  230ccc    H3710799  12.675   6.981   1.540 -0.3846 -0.8754 -0.4555
  230ccc    O1310800  12.442   7.120   1.590 -0.4375 -0.4451  0.7108
  230ccc    H3810801  12.385   7.086   1.803 -1.6312 -1.4931 -4.2408
  230ccc    H3910802  12.476   7.299   1.415 -0.6533  0.0947  0.3970
  230ccc     O510803  12.406   7.213   1.240  0.7314  0.1873  0.7840
  230ccc    H4010804  12.500   7.209   1.218  0.1217 -0.1577 -2.1844
  230ccc     N410805  12.132   7.313   1.636 -0.1161 -0.2707  0.2090
  231ccc     N110806  11.543   7.233   2.413  0.1684 -0.7280 -0.1007
  231ccc     H410807  11.627   7.229   2.355 -0.1387 -0.5049 -0.5661
  231ccc     C310808  11.443   7.132   2.390  0.3356  0.8782  0.0796
  231ccc     H510809  11.471   7.036   2.436 -0.6173 -0.4651 -2.0035
  231ccc     C410810  11.430   7.103   2.235  0.0594  0.6858 -0.4578
  231ccc     H610811  11.348   7.164   2.434 -0.5187  0.2058 -1.2194
  231ccc     H710812  11.458   7.001   2.204  2.6299  1.0550  0.3795
  231ccc     H810813  11.504   7.167   2.185  1.7303 -0.6898  0.1536
  231ccc     N210814  11.298   7.131   2.184  0.2079 -0.4031  0.1019
  231ccc     C510815  11.303   7.148   2.036 -0.4712 -0.1648  0.2021
  231ccc     C610816  11.201   7.032   2.218 -0.5905  0.4021 -0.1934
  231ccc     H910817  11.138   7.004   2.132 -1.2172  0.7648  0.1386
  231ccc     C710818  11.113   7.096   2.318  0.1761 -0.5448 -0.0305
  231ccc    H1010819  11.245   6.940   2.258 -4.0155 -1.3911 -0.2068
  231ccc    H1110820  11.097   7.200   2.289 -1.6351 -1.1034 -1.2110
  231ccc    H1210821  11.148   7.097   2.422 -0.7400  0.9108  0.2874
  231ccc     C810822  10.980   7.027   2.322 -0.3216 -0.3326 -0.1300
  231ccc     O210823  10.891   7.043   2.240  0.4063  0.0873  0.7502
  231ccc    H1310824  11.294   7.052   1.983  0.1177 -1.2055  1.9002
  231ccc    H1410825  11.404   7.184   2.009 -0.2000  0.4739  1.9159
  231ccc     C910826  11.197   7.251   1.990  0.0434  0.0205 -0.1280
  231ccc    H1510827  11.200   7.337   2.058 -3.1394 -1.5278  2.2012
  231ccc    H1610828  11.099   7.204   2.006 -0.0510  0.1005 -0.4732
  231ccc    C1010829  11.208   7.279   1.847 -0.1167  0.5960 -0.1015
  231ccc     O410830  11.263   7.209   1.763 -0.4218  0.0149 -0.0794
  231ccc    C1110831  10.707   6.605   2.358 -0.8248 -0.4742  0.7411
  231ccc    C1210832  10.856   6.582   2.414  0.5353  0.4492 -0.2788
  231ccc    H1710833  10.709   6.612   2.248  0.9069 -0.6699  0.7311
  231ccc    C1310834  10.943   6.705   2.394 -0.0956 -0.7029  0.8642
  231ccc    C1410835  10.868   6.834   2.445  0.9274  0.2018 -0.5564
  231ccc    C1510836  10.724   6.842   2.378  0.1384  0.6484 -0.6467
  231ccc    H1810837  10.849   6.815   2.551  0.4497 -0.4247 -0.7472
  231ccc    H1910838  10.958   6.708   2.285  1.6738 -0.2968  1.0760
  231ccc    H2010839  10.729   6.850   2.269  1.8211  0.8448 -0.5803
  231ccc     O110840  10.642   6.945   2.426  0.0482 -1.0927 -0.4238
  231ccc     O610841  11.063   6.679   2.462  0.1984 -0.0306  0.2983
  231ccc    C1610842  10.606   6.492   2.397 -0.4171  0.5345  0.6989
  231ccc    H2110843  11.085   6.586   2.446  2.8374  0.4192  0.7965
  231ccc    H2210844  11.043   6.941   2.489  0.7145 -2.6225 -2.0315
  231ccc    H2310845  10.605   6.483   2.506 -0.4915 -0.8402  0.5921
  231ccc    H2410846  10.646   6.396   2.364 -2.2388  0.1881 -0.6146
  231ccc     O710847  10.471   6.498   2.340  0.1866 -0.6133  0.6108
  231ccc    H2510848  10.416   6.423   2.368 -1.6892  0.9640  1.4033
  231ccc     O810849  10.656   6.724   2.411 -0.0813  0.1147 -0.3434
  231ccc    H2610850  10.690   7.026   2.403  0.7085 -0.8015  1.7555
  231ccc    H2710851  10.841   6.565   2.522  3.9550  1.0003  0.3933
  231ccc     O910852  10.916   6.467   2.354  0.0600 -0.1119  0.3547
  231ccc    H2810853  10.950   6.414   2.428 -0.3404  0.2473  0.8054
  231ccc     N310854  10.961   6.950   2.429 -0.0413 -0.3979 -0.7639
  231ccc    C1710855  10.970   7.566   1.468  0.0649 -0.4347  0.3864
  231ccc    C1810856  11.122   7.600   1.492  0.6957  0.1799 -0.6492
  231ccc    H2910857  10.910   7.639   1.523 -0.3209  0.8379 -1.6395
  231ccc    C1910858  11.174   7.579   1.633 -0.3681  0.0382 -0.4771
  231ccc    C2010859  11.130   7.438   1.673  0.2945  0.7742  0.1922
  231ccc    C2110860  10.980   7.410   1.648  0.1481  0.8446  0.4788
  231ccc    H3010861  11.190   7.375   1.607 -0.1293  0.0782  0.4698
  231ccc    H3110862  11.120   7.651   1.697  1.3775 -1.7060  3.2973
  231ccc    H3210863  10.912   7.467   1.713  0.5979  1.8868  0.0572
  231ccc    O1010864  10.940   7.274   1.659 -0.0291  0.0923  0.2532
  231ccc    O1110865  11.324   7.593   1.641  0.1691 -0.4016  0.2903
  231ccc    C2210866  10.921   7.574   1.321  0.1050 -0.3816  0.3441
  231ccc    H3310867  11.350   7.684   1.619 -2.1109  0.8634  2.2806
  231ccc    H3410868  11.113   7.452   1.883 -0.1499  0.7114  0.5057
  231ccc    H3510869  10.918   7.677   1.284 -3.0993 -0.5574 -0.1959
  231ccc    H3610870  10.818   7.537   1.312  0.1842 -0.7001  0.7060
  231ccc    O1210871  10.989   7.480   1.232  0.1350  0.3474  0.0864
  231ccc    H3710872  10.959   7.391   1.258 -1.5864  0.7409 -0.3995
  231ccc    O1310873  10.949   7.429   1.507  0.6663 -0.6632 -0.4721
  231ccc    H3810874  10.965   7.245   1.569 -2.6291  0.2335 -0.5879
  231ccc    H3910875  11.179   7.536   1.424  0.0881 -0.5756 -0.4582
  231ccc     O510876  11.139   7.739   1.455  0.1266  0.3048  0.0356
  231ccc    H4010877  11.172   7.737   1.364  1.0592 -0.7937  0.3732
  231ccc     N410878  11.164   7.401   1.812 -0.4756  0.6121  0.3421
  232ccc     N110879  13.051   8.118   3.307  0.2474  0.1204 -0.2051
  232ccc     H410880  12.961   8.119   3.354  1.4025  3.2444  2.2603
  232ccc     C310881  13.174   8.150   3.387  0.3527 -0.0342 -0.1281
  232ccc     H510882  13.151   8.117   3.489 -1.3946  1.7093  0.1013
  232ccc     C410883  13.212   8.300   3.409  0.4174  0.3663 -0.0571
  232ccc     H610884  13.263   8.092   3.361  0.4406 -1.0223  2.1485
  232ccc     H710885  13.119   8.358   3.416 -0.9047 -1.7550  1.1705
  232ccc     H810886  13.259   8.346   3.321 -2.6273 -1.4413 -2.8861
  232ccc     N210887  13.292   8.307   3.532 -0.4411  0.1820  0.0181
  232ccc     C510888  13.424   8.253   3.513 -0.1084  0.2479 -0.1088
  232ccc     C610889  13.284   8.440   3.602 -0.3636 -0.6440 -1.1208
  232ccc     H910890  13.361   8.516   3.582 -1.1754  0.3072 -0.7591
  232ccc     C710891  13.263   8.409   3.754  0.3932  0.2162 -0.2717
  232ccc    H1010892  13.184   8.476   3.577 -0.3659 -0.3798 -0.7405
  232ccc    H1110893  13.350   8.370   3.808  2.4098  1.2379 -2.6095
  232ccc    H1210894  13.190   8.328   3.764  0.5450  0.0717 -0.3391
  232ccc     C810895  13.212   8.536   3.827 -0.1138  0.6192  0.3232
  232ccc     O210896  13.200   8.644   3.770 -0.2526  0.0252 -0.3843
  232ccc    H1310897  13.493   8.317   3.456  0.6835  0.6309  1.2425
  232ccc    H1410898  13.421   8.157   3.460  0.1094  0.8114 -1.1595
  232ccc     C910899  13.499   8.220   3.638  0.4348  0.0036 -0.6484
  232ccc    H1510900  13.433   8.151   3.692  1.6441 -1.6830 -1.2440
  232ccc    H1610901  13.520   8.308   3.699 -2.5737  1.4815 -1.5391
  232ccc    C1010902  13.631   8.151   3.601  0.4293  0.2800  0.1822
  232ccc     O410903  13.681   8.157   3.490 -0.0737 -0.2751  0.0774
  232ccc    C1110904  13.148   8.916   4.130 -0.7461  0.3640  0.0913
  232ccc    C1210905  13.017   8.835   4.119  0.3966  0.6063 -0.1440
  232ccc    H1710906  13.184   8.950   4.032  1.6874 -4.2041 -0.8829
  232ccc    C1310907  13.034   8.719   4.020  0.1793 -0.2772 -0.4093
  232ccc    C1410908  13.157   8.631   4.055  0.2761 -0.7676 -0.1197
  232ccc    C1510909  13.290   8.716   4.081  0.7096  0.0531  0.6834
  232ccc    H1810910  13.137   8.587   4.154 -0.7382  0.5455  0.2777
  232ccc    H1910911  13.044   8.758   3.918 -0.5908  1.2675  0.0765
  232ccc    H2010912  13.326   8.767   3.990  0.3297 -0.4633  0.2425
  232ccc     O110913  13.394   8.637   4.137 -0.2894 -0.3606 -0.2257
  232ccc     O610914  12.918   8.634   4.027  0.3109 -0.2954 -0.5025
  232ccc    C1610915  13.154   9.040   4.225  0.1694  0.0908  0.1405
  232ccc    H2110916  12.932   8.549   3.983 -0.3832 -1.3980  1.2962
  232ccc    H2210917  13.195   8.432   3.994 -1.3996 -0.4463 -1.5671
  232ccc    H2310918  13.085   9.114   4.184 -0.7002  0.2343  1.7846
  232ccc    H2410919  13.258   9.075   4.229  0.4792 -0.8222  0.1680
  232ccc     O710920  13.115   9.014   4.357  0.0056  0.0046  0.1649
  232ccc    H2510921  13.183   9.057   4.411 -0.0214  0.1671  0.0719
  232ccc     O810922  13.243   8.820   4.180 -0.3999 -0.2187 -0.4228
  232ccc    H2610923  13.467   8.676   4.085 -1.1854  1.9056  0.1263
  232ccc    H2710924  13.001   8.791   4.218  0.9300  3.2323  1.2177
  232ccc     O910925  12.899   8.918   4.085 -0.0880  0.0203  0.4928
  232ccc    H2810926  12.880   8.948   4.176  1.5567 -2.2921  1.7130
  232ccc     N310927  13.175   8.525   3.957 -0.3103  0.6424  0.4344
  232ccc    C1710928  13.684   7.949   4.105 -0.1829  0.0932  0.2595
  232ccc    C1810929  13.750   8.089   4.083 -0.1569  0.5522  0.0023
  232ccc    H2910930  13.759   7.873   4.080 -0.8360 -0.4386 -0.1237
  232ccc    C1910931  13.794   8.104   3.939 -0.7353 -0.2340 -0.4028
  232ccc    C2010932  13.679   8.076   3.841 -0.6128 -0.7817 -0.0327
  232ccc    C2110933  13.626   7.931   3.870 -0.0400  0.4354  0.4047
  232ccc    H3010934  13.602   8.146   3.874  0.3958  0.9133 -1.1077
  232ccc    H3110935  13.876   8.034   3.922  0.0747  0.5603  0.1472
  232ccc    H3210936  13.705   7.861   3.840 -0.3752  0.8192 -1.4891
  232ccc    O1010937  13.514   7.891   3.796 -0.2329 -0.0611  0.2166
  232ccc    O1110938  13.847   8.244   3.911 -0.5835  0.3680 -0.2641
  232ccc    C2210939  13.631   7.910   4.242 -0.2027 -0.3280  0.5339
  232ccc    H3310940  13.915   8.233   3.842 -0.1073 -0.7610  0.3604
  232ccc    H3410941  13.801   8.053   3.666 -0.1417  0.5223 -0.9451
  232ccc    H3510942  13.709   7.863   4.303 -0.9559 -1.9207  0.3241
  232ccc    H3610943  13.545   7.842   4.241 -1.1090  0.7710 -0.9728
  232ccc    O1210944  13.594   8.024   4.315 -0.0147 -0.2273  0.2638
  232ccc    H3710945  13.533   8.005   4.389 -0.5574  0.4502 -0.0033
  232ccc    O1310946  13.583   7.918   4.010  0.3329  0.0971  0.4070
  232ccc    H3810947  13.547   7.862   3.709 -1.9137 -1.1867 -0.0968
  232ccc    H3910948  13.663   8.154   4.101 -1.1564 -0.5870 -0.5490
  232ccc     O510949  13.867   8.106   4.162 -0.4538  0.2908  0.0648
  232ccc    H4010950  13.903   8.195   4.149 -0.6198  0.7040  2.1189
  232ccc     N410951  13.714   8.097   3.694  0.1249  0.2230  0.4045
  233ccc     N110952  12.796   7.619   2.632  0.4464  0.0721 -0.5516
  233ccc     H410953  12.872   7.685   2.618 -0.0343  0.4603 -1.4436
  233ccc     C310954  12.780   7.504   2.535  0.8490  0.6065  0.5328
  233ccc     H510955  12.869   7.440   2.536 -0.4188 -1.2406  1.9044
  233ccc     C410956  12.757   7.541   2.387 -0.5636 -1.0218 -0.3221
  233ccc     H610957  12.702   7.436   2.569  1.3323  0.3681  1.1914
  233ccc     H710958  12.670   7.605   2.365 -0.3116 -0.2931  0.7352
  233ccc     H810959  12.748   7.455   2.320 -0.7932 -1.4136  0.2100
  233ccc     N210960  12.871   7.619   2.343  0.1305 -0.0242  0.6984
  233ccc     C510961  12.855   7.754   2.284  0.5466  1.1631  0.0053
  233ccc     C610962  12.993   7.540   2.309  0.9860  0.3084  0.0272
  233ccc     H910963  12.967   7.434   2.316 -0.6645  0.6544 -0.4789
  233ccc     C710964  13.100   7.577   2.413 -0.0078  0.3398  1.0080
  233ccc    H1010965  13.027   7.563   2.207  0.5031  0.9448  0.0038
  233ccc    H1110966  13.070   7.541   2.512  0.8839 -0.3154  1.0500
  233ccc    H1210967  13.124   7.684   2.410  0.9155  0.1277  0.2148
  233ccc     C810968  13.223   7.516   2.365  0.7173 -0.1332 -0.0789
  233ccc     O210969  13.279   7.556   2.262  0.2632  0.0382 -0.0453
  233ccc    H1310970  12.952   7.804   2.287  1.7604 -1.0387 -0.0197
  233ccc    H1410971  12.784   7.814   2.341  1.1551  2.3620 -0.4752
  233ccc     C910972  12.796   7.735   2.143 -0.1353 -0.6046 -0.1993
  233ccc    H1510973  12.708   7.670   2.146  1.4243 -2.7975  0.3100
  233ccc    H1610974  12.869   7.683   2.081  0.4848  0.2363 -0.1904
  233ccc    C1010975  12.765   7.865   2.078  0.2335 -0.2347 -0.3921
  233ccc     O410976  12.810   7.972   2.112 -0.3022 -0.3028  0.6513
  233ccc    C1110977  13.651   7.275   2.306 -0.2552  0.0168  0.3282
  233ccc    C1210978  13.618   7.309   2.459 -0.2026 -0.6941 -1.2775
  233ccc    H1710979  13.656   7.370   2.252 -0.0306 -0.3158 -0.2376
  233ccc    C1310980  13.486   7.384   2.484 -0.4392  0.0272  0.1629
  233ccc    C1410981  13.373   7.319   2.401  0.0158 -0.0746 -0.2069
  233ccc    C1510982  13.420   7.292   2.256  0.4938  0.2105  0.1530
  233ccc    H1810983  13.361   7.219   2.444 -0.2100  0.1285  0.2137
  233ccc    H1910984  13.499   7.487   2.448 -0.0917 -0.0563  0.0453
  233ccc    H2010985  13.436   7.388   2.206  0.7821 -0.4398 -1.0315
  233ccc     O110986  13.326   7.216   2.184  0.5300  0.5292 -0.4983
  233ccc     O610987  13.461   7.384   2.630  0.5344 -0.1331  0.3040
  233ccc    C1610988  13.774   7.189   2.288  0.7110  0.1152  0.1872
  233ccc    H2110989  13.440   7.478   2.645 -0.6038 -0.6295  2.0964
  233ccc    H2210990  13.206   7.356   2.505  0.6376 -0.3599 -0.3327
  233ccc    H2310991  13.864   7.240   2.324  2.2723 -1.6947 -0.9117
  233ccc    H2410992  13.786   7.159   2.183 -2.1537 -0.5672 -0.0150
  233ccc     O710993  13.781   7.079   2.379  0.0503 -0.5101  0.1234
  233ccc    H2510994  13.876   7.070   2.398  0.6852  1.7177 -1.5854
  233ccc     O810995  13.539   7.205   2.253 -0.2714  0.1537  0.0570
  233ccc    H2610996  13.315   7.127   2.223  0.1305  0.5254 -0.6068
  233ccc    H2710997  13.616   7.221   2.524 -0.5081 -0.6864 -1.2748
  233ccc     O910998  13.732   7.382   2.515  0.3735 -0.3572 -0.2364
  233ccc    H2810999  13.741   7.366   2.611  2.3911  2.4855  0.1833
  233ccc     N311000  13.244   7.397   2.420  0.1761 -0.1255 -0.4271
  233ccc    C1711001  12.590   7.696   1.610 -0.2311  0.2435 -0.2999
  233ccc    C1811002  12.733   7.676   1.657 -0.2640 -0.3148  0.1488
  233ccc    H2911003  12.575   7.799   1.575 -1.0218  0.9887  2.0534
  233ccc    C1911004  12.759   7.767   1.781  0.1951 -0.4105 -0.5553
  233ccc    C2011005  12.650   7.749   1.889  0.2787  0.0335 -0.3105
  233ccc    C2111006  12.503   7.747   1.827  0.4199 -0.6497 -0.2966
  233ccc    H3011007  12.660   7.650   1.936 -0.6098 -0.6569 -1.5007
  233ccc    H3111008  12.760   7.875   1.758  0.7228 -0.3432 -0.2449
  233ccc    H3211009  12.477   7.848   1.796  1.4866 -0.0208  0.7752
  233ccc    O1011010  12.401   7.714   1.917 -0.0370  0.0057  0.4031
  233ccc    O1111011  12.882   7.725   1.830 -0.2484 -0.0351  0.1015
  233ccc    C2211012  12.563   7.606   1.494  0.4429 -0.4605  0.5930
  233ccc    H3311013  12.948   7.795   1.816 -0.1644 -0.1345  0.0023
  233ccc    H3411014  12.630   7.950   1.950  0.5064 -0.2688  0.7026
  233ccc    H3511015  12.601   7.506   1.514 -0.7783 -1.0808 -0.0578
  233ccc    H3611016  12.622   7.646   1.410  0.3926 -0.6372  0.4721
  233ccc    O1211017  12.421   7.606   1.459  0.0263  0.0584 -0.3842
  233ccc    H3711018  12.385   7.690   1.492 -1.2359 -0.7642  0.4082
  233ccc    O1311019  12.500   7.657   1.721 -0.0343 -0.1961 -0.3537
  233ccc    H3811020  12.316   7.700   1.870 -0.4348  1.3351  0.6649
  233ccc    H3911021  12.744   7.574   1.694  4.1210  0.8403  2.7630
  233ccc     O511022  12.818   7.704   1.545  0.3136  0.2235 -0.6117
  233ccc    H4011023  12.888   7.637   1.551 -0.8092 -0.9163  0.5856
  233ccc     N411024  12.670   7.864   1.986  0.0354 -0.5424  0.5687
  234ccc     N111025  11.145   9.294   4.113 -0.1974  0.7427  0.1601
  234ccc     H411026  11.143   9.332   4.207  0.3029  1.6871 -0.1993
  234ccc     C311027  11.191   9.385   4.001  0.5665 -0.1473 -0.2741
  234ccc     H511028  11.273   9.341   3.942  0.7841 -0.9638  0.6059
  234ccc     C411029  11.238   9.525   4.040  0.5314  0.5894 -0.1288
  234ccc     H611030  11.114   9.400   3.924 -0.0182  0.7424  0.4581
  234ccc     H711031  11.277   9.576   3.952  2.2715  0.5148  0.5677
  234ccc     H811032  11.318   9.513   4.114 -0.0398  1.1670  0.5939
  234ccc     N211033  11.130   9.609   4.088 -0.2862 -0.1307 -0.8533
  234ccc     C511034  11.036   9.661   3.988  0.1117 -0.4666  0.4004
  234ccc     C611035  11.176   9.707   4.195  0.2265  0.6391 -0.8248
  234ccc     H911036  11.235   9.783   4.142 -2.6552  2.2791 -1.8726
  234ccc     C711037  11.241   9.638   4.314 -0.0702  0.2869 -0.1122
  234ccc    H1011038  11.093   9.760   4.243 -0.2303 -0.6981 -0.1057
  234ccc    H1111039  11.345   9.610   4.294 -0.3670 -0.4183 -0.7198
  234ccc    H1211040  11.178   9.556   4.350 -0.7816  0.8503 -0.0624
  234ccc     C811041  11.258   9.741   4.428 -0.8303 -0.1334 -0.1919
  234ccc     O211042  11.255   9.861   4.413 -0.3071 -0.0564  0.3297
  234ccc    H1311043  10.975   9.585   3.937 -0.3526  0.9832 -1.3037
  234ccc    H1411044  11.093   9.716   3.912 -1.5148  1.7754  0.7366
  234ccc     C911045  10.931   9.756   4.047 -0.5517 -0.2680  0.3269
  234ccc    H1511046  10.981   9.846   4.086 -0.3258 -0.5261  0.6425
  234ccc    H1611047  10.877   9.710   4.130 -0.6605  1.4843  1.2759
  234ccc    C1011048  10.840   9.814   3.953 -0.0162  0.6196 -0.0419
  234ccc     O411049  10.860   9.831   3.834  0.5877  0.0600  0.4413
  234ccc    C1111050  11.396   9.810   4.930 -0.0539 -0.7703 -0.2585
  234ccc    C1211051  11.438   9.890   4.807  0.2486 -0.4664 -0.2590
  234ccc    H1711052  11.470   9.731   4.948 -0.0603 -1.3739 -2.5924
  234ccc    C1311053  11.428   9.819   4.679 -0.7197  0.0371  0.6737
  234ccc    C1411054  11.287   9.755   4.671  0.3006 -0.8196  0.2257
  234ccc    C1511055  11.265   9.661   4.789 -0.4788 -0.4176  0.4123
  234ccc    H1811056  11.216   9.837   4.687  0.4428 -0.6634  0.0648
  234ccc    H1911057  11.505   9.741   4.680 -0.7449 -0.0089 -0.2939
  234ccc    H2011058  11.329   9.575   4.765 -2.7676 -1.2940 -3.4173
  234ccc     O111059  11.132   9.618   4.795 -0.4404 -0.4667 -0.3378
  234ccc     O611060  11.462   9.914   4.579 -0.5176  0.1427  0.3383
  234ccc    C1611061  11.373   9.894   5.060  0.0132  0.4300  0.2468
  234ccc    H2111062  11.381   9.913   4.525  0.1383  0.9519 -0.7017
  234ccc    H2211063  11.278   9.577   4.551  1.4716 -0.5252  0.1327
  234ccc    H2311064  11.464   9.948   5.088 -0.3791  0.0705  2.3362
  234ccc    H2411065  11.346   9.827   5.142 -0.1981 -0.4135 -0.5003
  234ccc     O711066  11.268   9.981   5.041 -0.2079  0.3759 -0.0830
  234ccc    H2511067  11.197   9.926   5.003 -0.2071 -0.4292  1.0324
  234ccc     O811068  11.276   9.734   4.911  0.6908 -0.8920 -0.4943
  234ccc    H2611069  11.101   9.683   4.860 -0.4672  1.2637 -1.9977
  234ccc    H2711070  11.378   9.981   4.794  1.6534  0.4375 -0.6143
  234ccc     O911071  11.578   9.939   4.830  0.7031 -0.1234 -0.2720
  234ccc    H2811072  11.611   9.998   4.760 -0.5352  0.6458 -0.2490
  234ccc     N311073  11.270   9.678   4.546 -0.8331 -0.6542  0.0210
  234ccc    C1711074  10.604  10.129   4.344  0.4651  0.2672 -0.4290
  234ccc    C1811075  10.574   9.978   4.355 -0.3399  0.1307  0.0965
  234ccc    H2911076  10.525  10.174   4.282 -0.3431  0.1927  0.5120
  234ccc    C1911077  10.583   9.905   4.212 -0.3539 -0.0369  0.4670
  234ccc    C2011078  10.724   9.925   4.153  0.1045 -0.9030  0.9714
  234ccc    C2111079  10.739  10.081   4.135 -0.8967  0.3956  0.5024
  234ccc    H3011080  10.802   9.890   4.222  0.4716 -1.7056  0.1640
  234ccc    H3111081  10.517   9.953   4.139 -0.6879  0.5493  1.1402
  234ccc    H3211082  10.655  10.129   4.083 -0.0622  1.7533  0.3393
  234ccc    O1011083  10.866  10.121   4.083  0.3320 -0.1035 -0.2509
  234ccc    O1111084  10.558   9.772   4.237  0.5073  0.9178  0.2305
  234ccc    C2211085  10.620  10.194   4.486 -0.2415  0.2068 -0.2438
  234ccc    H3311086  10.467   9.765   4.271  0.1844 -0.2881 -0.8286
  234ccc    H3411087  10.674   9.918   3.947  1.4470  0.8162 -1.1594
  234ccc    H3511088  10.722  10.190   4.524  0.6221  1.6062 -2.2074
  234ccc    H3611089  10.530  10.172   4.545 -0.8414  1.2460 -0.7236
  234ccc    O1211090  10.599  10.331   4.446 -0.4961 -0.0149 -0.0582
  234ccc    H3711091  10.502  10.341   4.454 -0.2574  1.8158  1.1121
  234ccc    O1311092  10.732  10.141   4.267  0.2031 -0.0604  0.2268
  234ccc    H3811093  10.926  10.093   4.155  0.3546 -0.2168 -0.3148
  234ccc    H3911094  10.648   9.935   4.423 -1.4053  2.6442  3.0610
  234ccc     O511095  10.443   9.950   4.404 -0.2022 -0.0571  0.3672
  234ccc    H4011096  10.438   9.866   4.452 -2.3551  0.1878  0.6701
  234ccc     N411097  10.735   9.867   4.012 -0.2033 -0.1326 -0.2951
  235ccc     N111098  10.534   9.127   4.335 -0.0878 -0.2194 -0.3182
  235ccc     H411099  10.579   9.215   4.314  0.4555 -0.2884  0.5314
  235ccc     C311100  10.384   9.132   4.332 -0.1621 -0.0590 -0.5771
  235ccc     H511101  10.339   9.110   4.235 -0.5530  0.8998 -0.6249
  235ccc     C411102  10.326   9.268   4.394  0.2042  0.7847  0.0297
  235ccc     H611103  10.350   9.056   4.404 -1.2972  0.7809 -0.2006
  235ccc     H711104  10.224   9.239   4.421  0.4911  0.4953  0.8045
  235ccc     H811105  10.330   9.348   4.318  3.3813  1.0609  0.3577
  235ccc     N211106  10.409   9.322   4.507 -0.2141 -1.0124 -0.2064
  235ccc     C511107  10.413   9.229   4.618 -0.5675 -0.0539 -0.0135
  235ccc     C611108  10.374   9.463   4.536 -0.5443 -0.0649 -0.0122
  235ccc     H911109  10.393   9.519   4.443  0.6672  0.3975  0.4916
  235ccc     C711110  10.468   9.521   4.637 -0.8665 -0.2132  0.0427
  235ccc    H1011111  10.267   9.477   4.556 -0.3215  1.1990  0.3766
  235ccc    H1111112  10.567   9.505   4.592  0.2069 -0.6892  2.4077
  235ccc    H1211113  10.445   9.470   4.732 -1.0090 -0.1776  0.0272
  235ccc     C811114  10.437   9.669   4.657 -0.4245  0.4593  0.3594
  235ccc     O211115  10.392   9.745   4.573  0.0622 -0.0039 -0.3930
  235ccc    H1311116  10.486   9.265   4.692  0.3466 -1.1449 -0.3500
  235ccc    H1411117  10.444   9.131   4.580  0.7370  0.1703  0.3920
  235ccc     C911118  10.282   9.214   4.687  0.1685 -0.0289 -0.2832
  235ccc    H1511119  10.209   9.161   4.624  1.3271 -1.1618 -0.6978
  235ccc    H1611120  10.234   9.307   4.718 -0.0662 -0.3889  0.4711
  235ccc    C1011121  10.293   9.121   4.798 -1.0572  0.2839  0.0121
  235ccc     O411122  10.267   8.998   4.796 -0.4387 -0.3805 -0.3105
  235ccc    C1111123  10.371  10.131   4.775 -0.2234 -0.7093  0.3188
  235ccc    C1211124  10.296  10.046   4.877  0.7315  0.3811  0.3403
  235ccc    H1711125  10.322  10.130   4.677 -1.1055  3.0909  0.5833
  235ccc    C1311126  10.300   9.898   4.838  0.0732  0.0741 -0.0644
  235ccc    C1411127  10.446   9.856   4.828 -0.5761 -0.3994 -0.0673
  235ccc    C1511128  10.531   9.957   4.733  0.4395 -0.1034 -0.4378
  235ccc    H1811129  10.492   9.860   4.927 -1.5756  0.5830  0.3758
  235ccc    H1911130  10.250   9.890   4.741 -0.2402 -0.4389  0.1308
  235ccc    H2011131  10.509   9.946   4.626  0.9249  0.8865 -0.6542
  235ccc     O111132  10.668   9.942   4.756 -0.1823  0.7272 -0.2924
  235ccc     O611133  10.239   9.807   4.938 -0.1294  0.5395 -0.0842
  235ccc    C1611134  10.385  10.280   4.827 -0.7024 -0.2307  1.2499
  235ccc    H2111135  10.147   9.810   4.910 -0.4330  0.8495  0.8950
  235ccc    H2211136  10.479   9.650   4.855  2.0353  0.9461  0.5444
  235ccc    H2311137  10.450  10.273   4.915  0.3424 -0.5325  0.4721
  235ccc    H2411138  10.286  10.313   4.859 -1.1236  0.4528 -0.6077
  235ccc     O711139  10.448  10.376   4.736  0.2958  0.3227  0.1064
  235ccc    H2511140  10.374  10.426   4.698  0.6966 -0.3974 -1.7271
  235ccc     O811141  10.510  10.089   4.775 -0.2614  0.2515  0.5105
  235ccc    H2611142  10.687   9.981   4.843  1.4706  0.0361 -0.3159
  235ccc    H2711143  10.355  10.057   4.968  1.3853 -0.7419  0.0718
  235ccc     O911144  10.158  10.087   4.894  0.3236 -0.0221  0.9141
  235ccc    H2811145  10.129  10.034   4.971  3.1172  0.4219  2.4203
  235ccc     N311146  10.473   9.717   4.779  0.2010  0.2613  0.0365
  235ccc    C1711147  10.315   8.911   5.236 -0.1470  0.0810  0.0184
  235ccc    C1811148  10.454   8.937   5.178  0.1074 -0.4861 -0.1665
  235ccc    H2911149  10.270   8.833   5.174  0.0444 -0.6272  0.7460
  235ccc    C1911150  10.444   9.000   5.036 -0.1044  0.3315  0.4111
  235ccc    C2011151  10.347   9.115   5.039  0.1802 -0.0173  0.3754
  235ccc    C2111152  10.213   9.073   5.085  0.4356  0.5211 -0.5689
  235ccc    H3011153  10.389   9.196   5.101 -1.6556  1.0674  0.2868
  235ccc    H3111154  10.411   8.925   4.963 -1.2632  0.8456  0.3956
  235ccc    H3211155  10.179   8.990   5.022 -0.2759  0.8863 -0.6814
  235ccc    O1011156  10.115   9.173   5.094  0.6256  0.0530 -0.1562
  235ccc    O1111157  10.572   9.041   4.994 -0.7254 -0.4245  0.6382
  235ccc    C2211158  10.307   8.860   5.382 -0.2787  0.3108 -0.5305
  235ccc    H3311159  10.573   9.053   4.898 -1.0411  0.6157  0.7463
  235ccc    H3411160  10.342   9.277   4.915  0.3699  0.2378  3.3042
  235ccc    H3511161  10.362   8.927   5.448  2.0587 -2.5392  0.6820
  235ccc    H3611162  10.362   8.765   5.395  0.8716  1.0227 -0.0683
  235ccc    O1211163  10.171   8.845   5.426  0.4717  0.1726 -0.3147
  235ccc    H3711164  10.179   8.841   5.523  0.0337  3.2396 -0.0460
  235ccc    O1311165  10.225   9.030   5.222 -0.4378  0.0475  0.1117
  235ccc    H3811166  10.063   9.151   5.173 -0.4728  0.4353 -0.7392
  235ccc    H3911167  10.503   9.016   5.236  0.1803 -0.6702  0.0222
  235ccc     O511168  10.528   8.814   5.157  0.3534  0.5308  0.2593
  235ccc    H4011169  10.581   8.825   5.076 -3.1674  0.0506 -2.3349
  235ccc     N411170  10.342   9.175   4.907  0.6371  0.3889  0.1617
  236ccc     N111171  11.098   7.271   4.406 -0.3745  0.6154 -0.7253
  236ccc     H411172  11.159   7.340   4.447 -0.9684  0.9943 -0.4729
  236ccc     C311173  11.151   7.205   4.280 -0.9502  0.0697 -0.4389
  236ccc     H511174  11.074   7.150   4.224 -0.5166 -1.2849  0.2474
  236ccc     C411175  11.269   7.110   4.306 -0.2906 -0.2141  0.4676
  236ccc     H611176  11.178   7.288   4.214 -2.0423  0.9622  0.1951
  236ccc     H711177  11.341   7.159   4.372 -2.3918  0.8428  2.1105
  236ccc     H811178  11.325   7.098   4.213 -0.8919  1.7653 -0.1801
  236ccc     N211179  11.225   6.976   4.352 -1.0051 -0.0413 -0.0235
  236ccc     C511180  11.187   6.898   4.237 -0.0515 -0.0675  0.7305
  236ccc     C611181  11.323   6.903   4.444  0.3790 -0.3953  0.2572
  236ccc     H911182  11.309   6.795   4.429  0.2721  0.0082 -3.4370
  236ccc     C711183  11.287   6.958   4.587 -0.2780  1.3872 -0.5054
  236ccc    H1011184  11.424   6.931   4.414 -0.2449  1.2423 -0.4328
  236ccc    H1111185  11.178   6.949   4.588 -0.2054 -0.2993 -2.4176
  236ccc    H1211186  11.323   7.060   4.608  0.8463  0.6001  1.7028
  236ccc     C811187  11.347   6.872   4.695 -0.3571 -0.3858  0.2475
  236ccc     O211188  11.353   6.752   4.701  0.0902 -0.3104  0.1509
  236ccc    H1311189  11.271   6.855   4.181 -0.5282 -1.5260  1.1022
  236ccc    H1411190  11.124   6.956   4.168 -3.9925 -4.0143  0.5866
  236ccc     C911191  11.087   6.798   4.285  0.4835  0.2710  0.1689
  236ccc    H1511192  10.994   6.845   4.320 -0.3882 -0.4819 -1.0697
  236ccc    H1611193  11.130   6.733   4.362 -0.5358  1.6600  2.0112
  236ccc    C1011194  11.045   6.707   4.173  0.0483 -0.1268 -0.3904
  236ccc     O411195  11.125   6.628   4.126 -0.5716 -0.1706 -0.4476
  236ccc    C1111196  11.575   6.714   5.122 -0.3637 -0.0462 -0.1659
  236ccc    C1211197  11.663   6.803   5.027 -0.0101 -0.1742 -0.2457
  236ccc    H1711198  11.567   6.616   5.075 -0.4728 -0.0458 -0.1466
  236ccc    C1311199  11.598   6.833   4.890  0.6847  0.4217  0.3887
  236ccc    C1411200  11.460   6.884   4.912 -0.3950 -0.5925  0.0606
  236ccc    C1511201  11.372   6.779   4.984  0.2608 -0.0666  0.0762
  236ccc    H1811202  11.474   6.964   4.986 -2.0462 -0.6489  0.4694
  236ccc    H1911203  11.582   6.738   4.837  0.3363 -0.6530  2.3495
  236ccc    H2011204  11.373   6.687   4.925  1.2429  0.7382 -1.2046
  236ccc     O111205  11.236   6.820   5.008 -0.2425  0.1777 -0.0451
  236ccc     O611206  11.679   6.922   4.814 -0.0913  0.2533  0.4268
  236ccc    C1611207  11.620   6.708   5.268 -0.5505  0.2738  0.1247
  236ccc    H2111208  11.682   6.888   4.723 -1.2378 -1.6727  1.0373
  236ccc    H2211209  11.392   7.044   4.792 -0.6596 -0.8944 -3.7351
  236ccc    H2311210  11.700   6.633   5.275 -1.1854 -0.4898 -0.6183
  236ccc    H2411211  11.540   6.657   5.323 -0.9875  0.5302 -0.2722
  236ccc     O711212  11.647   6.834   5.331 -0.3832 -0.0174  0.0238
  236ccc    H2511213  11.740   6.853   5.311 -0.9662  1.5046 -1.4618
  236ccc     O811214  11.438   6.757   5.109 -0.3838 -0.0466 -0.2468
  236ccc    H2611215  11.236   6.909   5.046 -3.0682  0.3489 -0.2368
  236ccc    H2711216  11.671   6.896   5.085 -1.4735 -0.3554  0.2804
  236ccc     O911217  11.791   6.738   5.007  0.4566  0.8912  0.4465
  236ccc    H2811218  11.767   6.654   4.964  0.8137  1.7134 -1.4586
  236ccc     N311219  11.410   6.944   4.788  0.6012 -1.0576  0.6918
  236ccc    C1711220  10.682   6.407   3.940 -0.0804 -0.2127  0.3042
  236ccc    C1811221  10.609   6.543   3.973 -0.3307  0.1437  0.0579
  236ccc    H2911222  10.688   6.352   4.035  1.0949  0.1970  0.4877
  236ccc    C1911223  10.697   6.628   4.072 -0.5916  0.8793 -0.3923
  236ccc    C2011224  10.844   6.646   4.024  0.0210 -0.5857  0.0183
  236ccc    C2111225  10.899   6.499   3.991  0.4771  0.1659  0.7705
  236ccc    H3011226  10.856   6.714   3.939  1.2605 -0.6157  0.1409
  236ccc    H3111227  10.707   6.567   4.163  0.0273 -0.2872 -1.2139
  236ccc    H3211228  10.912   6.439   4.082 -1.4989 -2.5044 -0.5750
  236ccc    O1011229  11.021   6.507   3.925 -0.1559  0.3325 -0.0219
  236ccc    O1111230  10.642   6.757   4.090 -0.1468 -0.4469 -0.3014
  236ccc    C2211231  10.610   6.317   3.837  0.0632 -0.4800 -0.0045
  236ccc    H3311232  10.589   6.743   4.171 -0.0178 -0.9940 -0.3034
  236ccc    H3411233  10.856   6.787   4.182  1.2585  1.5279  0.9554
  236ccc    H3511234  10.509   6.296   3.875 -0.3772  1.0819 -0.2365
  236ccc    H3611235  10.667   6.227   3.810  1.6256  0.2922  0.5870
  236ccc    O1211236  10.584   6.380   3.710  0.1702  0.3216  0.0390
  236ccc    H3711237  10.533   6.318   3.655 -1.8712  0.7917  1.2916
  236ccc    O1311238  10.820   6.439   3.894 -0.0714 -0.2288  0.0017
  236ccc    H3811239  11.072   6.545   3.999 -0.5418 -0.8915  0.8990
  236ccc    H3911240  10.594   6.600   3.880  2.0933 -0.1891 -0.6102
  236ccc     O511241  10.485   6.515   4.037 -0.2335 -0.1953  0.4504
  236ccc    H4011242  10.422   6.589   4.027  0.0925 -0.1433 -1.5379
  236ccc     N411243  10.914   6.717   4.137 -0.6103  0.5598 -0.0743
  237ccc     N111244  10.606   7.395   5.000 -0.7827 -0.2720 -0.7240
  237ccc     H411245  10.677   7.330   4.968  0.3090  0.9521 -0.8673
  237ccc     C311246  10.477   7.344   5.040  0.4866  0.5845 -0.3976
  237ccc     H511247  10.478   7.245   5.086 -0.1712  0.9225  0.3762
  237ccc     C411248  10.379   7.328   4.921  0.1724 -0.6017 -0.3462
  237ccc     H611249  10.422   7.417   5.101 -3.5861 -0.3900 -2.5534
  237ccc     H711250  10.322   7.421   4.908 -0.9776 -1.3995 -1.2595
  237ccc     H811251  10.307   7.254   4.960 -0.0416 -0.7319 -0.9895
  237ccc     N211252  10.425   7.278   4.786  0.7992  0.0371 -0.0427
  237ccc     C511253  10.499   7.155   4.804 -0.5615  0.2950  0.2283
  237ccc     C611254  10.310   7.268   4.697 -0.3877 -0.8094  0.2440
  237ccc     H911255  10.341   7.202   4.614 -0.4946 -2.2216  1.2862
  237ccc     C711256  10.272   7.406   4.643  0.0582 -0.5222 -0.1391
  237ccc    H1011257  10.230   7.217   4.752 -0.0526 -1.9028 -0.2553
  237ccc    H1111258  10.367   7.461   4.632  0.0624 -0.1133  1.5788
  237ccc    H1211259  10.199   7.453   4.710 -1.1089 -2.0824 -0.2660
  237ccc     C811260  10.219   7.388   4.505  0.8439  0.1685  0.1976
  237ccc     O211261  10.173   7.282   4.461  0.3078  0.3304 -0.1333
  237ccc    H1311262  10.440   7.068   4.835  0.6308 -0.6864 -0.1960
  237ccc    H1411263  10.570   7.170   4.887 -2.3903  1.6361  1.6313
  237ccc     C911264  10.578   7.125   4.671 -0.0136  0.2813 -0.1051
  237ccc    H1511265  10.650   7.203   4.643  0.0564  0.9573  1.8002
  237ccc    H1611266  10.502   7.109   4.593 -0.7215  1.1939  0.3688
  237ccc    C1011267  10.654   6.999   4.690  0.1599  0.7293  0.1440
  237ccc     O411268  10.627   6.910   4.766 -0.1081  0.1376 -0.0503
  237ccc    C1111269   9.971   7.431   4.088 -0.0303 -0.3766 -0.2318
  237ccc    C1211270   9.917   7.532   4.198 -0.2352 -0.1383  0.1010
  237ccc    H1711271   9.942   7.334   4.130 -0.7004  0.3604  1.0679
  237ccc    C1311272   9.994   7.512   4.329 -0.8310  0.2303  0.9070
  237ccc    C1411273  10.146   7.524   4.308 -0.3243 -0.6785  0.3501
  237ccc    C1511274  10.193   7.422   4.189  0.0667  0.1209 -0.6386
  237ccc    H1811275  10.176   7.621   4.267 -0.6523 -0.9214 -0.4923
  237ccc    H1911276   9.980   7.410   4.367  1.3911  0.0850  1.4941
  237ccc    H2011277  10.164   7.318   4.210 -1.0052  0.7898  1.4719
  237ccc     O111278  10.327   7.434   4.157 -0.4691 -0.2055  0.1562
  237ccc     O611279   9.955   7.604   4.428 -0.1874 -0.1599  0.5926
  237ccc    C1611280   9.907   7.435   3.949 -0.3943 -0.0032 -0.1142
  237ccc    H2111281   9.923   7.687   4.389  2.0113  0.8822  0.8549
  237ccc    H2211282  10.193   7.586   4.485 -0.8216 -1.0304  1.1128
  237ccc    H2311283   9.818   7.371   3.945  0.5012 -1.3277  0.1336
  237ccc    H2411284   9.971   7.382   3.877  1.1286 -1.2801  2.0188
  237ccc     O711285   9.869   7.567   3.909 -0.5313 -0.0490  0.2102
  237ccc    H2511286   9.952   7.616   3.891 -0.9123  0.8484  0.7959
  237ccc     O811287  10.115   7.460   4.076  0.3218  0.3879 -0.0666
  237ccc    H2611288  10.338   7.529   4.138 -1.7348  0.0423  0.5651
  237ccc    H2711289   9.930   7.635   4.162 -0.0897 -0.0129  0.5081
  237ccc     O911290   9.778   7.499   4.217 -0.3356 -0.4602  0.1866
  237ccc    H2811291   9.731   7.530   4.137 -1.2357 -0.7450  0.5974
  237ccc     N311292  10.221   7.503   4.432  0.6848  0.2233 -0.1899
  237ccc    C1711293  10.984   6.648   4.735 -0.3284  0.1322  0.2893
  237ccc    C1811294  10.907   6.630   4.604 -0.9311 -0.7059  0.0036
  237ccc    H2911295  10.923   6.624   4.823  0.4317 -1.1939  0.4900
  237ccc    C1911296  10.810   6.739   4.577 -0.5833 -0.1622  0.7465
  237ccc    C2011297  10.866   6.882   4.609  0.3685  0.1328  0.1854
  237ccc    C2111298  10.936   6.891   4.751  0.1313 -0.5219  0.1869
  237ccc    H3011299  10.937   6.906   4.529  0.3487 -0.3844  0.0099
  237ccc    H3111300  10.731   6.723   4.651 -0.7008 -0.9974  0.4542
  237ccc    H3211301  10.867   6.873   4.834  1.7342 -0.4190  1.5863
  237ccc    O1011302  11.000   7.017   4.765 -0.2276 -0.3132  0.2585
  237ccc    O1111303  10.765   6.717   4.440  0.7432  0.0644  0.4193
  237ccc    C2211304  11.100   6.548   4.748  0.0790 -0.8240 -0.0333
  237ccc    H3311305  10.713   6.796   4.417  2.1269  1.6460  2.2753
  237ccc    H3411306  10.779   7.063   4.545  1.1074 -1.2135 -1.2888
  237ccc    H3511307  11.045   6.453   4.757 -2.1169  0.4008  0.0694
  237ccc    H3611308  11.148   6.561   4.845  0.2445  0.6003 -0.2888
  237ccc    O1211309  11.193   6.557   4.636 -0.5631 -0.3918  0.1283
  237ccc    H3711310  11.242   6.639   4.653 -1.3636  0.2917 -0.7590
  237ccc    O1311311  11.035   6.790   4.749  0.3646  0.4200  0.1476
  237ccc    H3811312  11.093   6.989   4.762 -0.2907 -0.5397 -2.6936
  237ccc    H3911313  10.982   6.625   4.525  0.4007  0.1507  1.1823
  237ccc     O511314  10.829   6.512   4.607  0.1493  0.5043 -0.3136
  237ccc    H4011315  10.780   6.514   4.522 -0.3097  1.1636 -0.0402
  237ccc     N411316  10.754   6.983   4.603 -0.9315  0.2791  0.0329
  238ccc     N111317  12.351   9.816   0.933  0.0750  0.6387 -0.6560
  238ccc     H411318  12.272   9.859   0.885 -0.6278  1.1423  0.9048
  238ccc     C311319  12.460   9.907   0.985 -0.6574  0.5712  0.0052
  238ccc     H511320  12.440   9.949   1.085  0.6924 -2.2999  1.6042
  238ccc     C411321  12.484  10.029   0.898  0.4368 -0.4989  0.3723
  238ccc     H611322  12.552   9.851   1.007 -0.2096  1.5798  0.7823
  238ccc     H711323  12.392  10.087   0.909  1.4408  1.6702 -1.5445
  238ccc     H811324  12.508  10.010   0.792  3.1149 -0.0664  0.8207
  238ccc     N211325  12.582  10.118   0.961 -0.3182 -0.8687  0.7031
  238ccc     C511326  12.723  10.066   0.987  0.2773  0.2187 -0.6439
  238ccc     C611327  12.588  10.246   0.897  0.1582  0.3637 -0.7112
  238ccc     H911328  12.639  10.234   0.801 -0.9769  0.0308 -1.2991
  238ccc     C711329  12.659  10.360   0.955  0.1783  0.1377  0.0353
  238ccc    H1011330  12.483  10.277   0.884  0.5438  1.5803 -1.0285
  238ccc    H1111331  12.767  10.343   0.947  0.2799  0.5581  0.4713
  238ccc    H1211332  12.615  10.375   1.055 -1.5491 -1.6492 -0.3976
  238ccc     C811333  12.611  10.479   0.871 -0.4187 -0.6307  0.0697
  238ccc     O211334  12.674  10.510   0.768  0.1763 -0.3310  0.2551
  238ccc    H1311335  12.716   9.966   1.031 -0.0272  0.1789 -0.7796
  238ccc    H1411336  12.774  10.139   1.052 -0.8083 -0.3955  0.9521
  238ccc     C911337  12.803  10.038   0.862  0.5747  0.0406 -0.3017
  238ccc    H1511338  12.808  10.127   0.798 -0.1984 -0.6202 -1.3266
  238ccc    H1611339  12.734   9.981   0.797  0.4945  1.0625 -1.1438
  238ccc    C1011340  12.935   9.965   0.888  0.7601  0.4657  0.2367
  238ccc     O411341  12.975   9.916   0.995  0.3334 -0.6617  0.3661
  238ccc    C1111342  12.357  10.947   0.908 -0.0931 -0.7221 -0.1082
  238ccc    C1211343  12.501  10.923   0.862  0.2426  0.1431  0.0787
  238ccc    H1711344  12.357  10.965   1.016  0.3172  0.5084 -0.3009
  238ccc    C1311345  12.557  10.784   0.909  0.1889  0.0311  0.4567
  238ccc    C1411346  12.456  10.673   0.871 -0.1036  0.2911 -0.0229
  238ccc    C1511347  12.317  10.717   0.931  0.1449 -0.1387 -0.4924
  238ccc    H1811348  12.445  10.672   0.762 -1.5209  0.9080  0.0826
  238ccc    H1911349  12.572  10.782   1.017  1.9102 -0.1404  0.2459
  238ccc    H2011350  12.327  10.736   1.039 -0.6692  0.8870 -0.5856
  238ccc     O111351  12.228  10.615   0.911  0.1699 -0.0667  0.0103
  238ccc     O611352  12.688  10.767   0.849 -0.1627  0.4403 -0.4161
  238ccc    C1611353  12.296  11.069   0.843  0.4612 -0.6372 -0.0067
  238ccc    H2111354  12.673  10.685   0.798 -2.7440 -0.3666  1.4711
  238ccc    H2211355  12.488  10.517   1.017 -1.6873 -1.1046 -0.8655
  238ccc    H2311356  12.315  11.061   0.736  1.3977 -2.5195  0.2501
  238ccc    H2411357  12.358  11.153   0.875 -0.0734 -0.5845  0.9470
  238ccc     O711358  12.159  11.089   0.859  0.1286 -0.0408 -1.1116
  238ccc    H2511359  12.128  11.046   0.940  0.6663  1.2957 -0.1652
  238ccc     O811360  12.270  10.840   0.872 -1.0257  0.6564  0.3967
  238ccc    H2611361  12.138  10.650   0.920 -0.5963 -1.8792 -0.1333
  238ccc    H2711362  12.506  10.931   0.752  0.2448  1.7691  0.1794
  238ccc     O911363  12.580  11.037   0.908 -0.6225  0.4008  0.3368
  238ccc    H2811364  12.672  11.011   0.890 -0.8046  0.3116 -0.5103
  238ccc     N311365  12.501  10.540   0.919  0.0809  0.0861 -0.3961
  238ccc    C1711366  13.250  10.138   0.520 -0.4373 -0.2228 -0.0617
  238ccc    C1811367  13.148  10.035   0.451 -0.0678  0.5899 -0.6776
  238ccc    H2911368  13.336  10.081   0.560  0.4282  1.7239  1.0087
  238ccc    C1911369  13.084   9.935   0.556  0.2004 -0.5898 -0.0082
  238ccc    C2011370  13.042  10.013   0.676 -0.2118 -0.2841  0.0447
  238ccc    C2111371  13.146  10.109   0.737 -0.2246 -0.4410 -0.4475
  238ccc    H3011372  12.958  10.075   0.640 -0.8647 -0.9572  0.4037
  238ccc    H3111373  13.161   9.864   0.589 -0.1132 -0.5048  0.9505
  238ccc    H3211374  13.232  10.055   0.780  0.5407 -1.3270 -2.9533
  238ccc    O1011375  13.077  10.197   0.833 -0.2753 -0.0303  0.4342
  238ccc    O1111376  12.959   9.878   0.507 -0.6993  0.1954  0.2670
  238ccc    C2211377  13.298  10.248   0.418 -1.3876 -0.6370 -0.2500
  238ccc    H3311378  12.888   9.872   0.573 -1.0395  1.3556  0.0327
  238ccc    H3411379  13.082   9.875   0.833 -0.3282  0.2291  0.5219
  238ccc    H3511380  13.210  10.306   0.386 -0.5205  0.4642 -0.6939
  238ccc    H3611381  13.344  10.195   0.334 -0.4094  0.6021 -0.5359
  238ccc    O1211382  13.396  10.326   0.486  0.4296  0.0877 -0.2059
  238ccc    H3711383  13.383  10.288   0.574  0.9986 -1.3779 -0.7306
  238ccc    O1311384  13.187  10.203   0.632  0.5019 -0.0092  0.0263
  238ccc    H3811385  13.153  10.257   0.841  1.0296 -1.5970  0.3591
  238ccc    H3911386  13.068  10.098   0.410 -0.9719  1.0235  1.6224
  238ccc     O511387  13.208   9.967   0.341  0.7186  0.2196  0.5296
  238ccc    H4011388  13.134   9.920   0.299  0.4900  2.0054 -1.2256
  238ccc     N411389  13.004   9.917   0.783 -0.2976 -0.2164  0.0980
  239ccc     N111390  12.104   9.165   0.791  0.2110  0.6568  0.0247
  239ccc     H411391  12.038   9.145   0.864  0.6000  2.1388  0.8206
  239ccc     C311392  12.171   9.055   0.715  0.2674 -0.1934 -0.2666
  239ccc     H511393  12.151   9.074   0.609  1.3916 -2.6145 -0.9926
  239ccc     C411394  12.113   8.920   0.752 -0.5196  0.8200  0.5421
  239ccc     H611395  12.277   9.070   0.737  0.0780  1.6866 -0.5382
  239ccc     H711396  12.004   8.925   0.751 -0.6062 -0.1364  1.7851
  239ccc     H811397  12.136   8.896   0.857  0.7019 -0.6067 -0.0035
  239ccc     N211398  12.173   8.807   0.679 -0.9486 -0.2036 -0.1483
  239ccc     C511399  12.109   8.675   0.700  0.8211  0.4050  0.9074
  239ccc     C611400  12.316   8.793   0.706 -0.3303 -0.2435 -0.6018
  239ccc     H911401  12.364   8.707   0.659  2.0377  0.3101  0.6577
  239ccc     C711402  12.359   8.782   0.849  0.0292  0.4821 -0.1341
  239ccc    H1011403  12.359   8.889   0.673 -1.2038  0.8708  1.3184
  239ccc    H1111404  12.295   8.712   0.905 -0.4500  1.2367  0.2739
  239ccc    H1211405  12.351   8.885   0.886 -2.6366  0.2237  0.1839
  239ccc     C811406  12.499   8.740   0.861  0.2733  0.1469  0.4920
  239ccc     O211407  12.545   8.639   0.819 -0.0292  0.0500  0.4536
  239ccc    H1311408  12.001   8.696   0.698  0.9749  1.3439 -1.0918
  239ccc    H1411409  12.120   8.632   0.800 -0.7253  2.0031  1.8210
  239ccc     C911410  12.144   8.579   0.592 -0.6366  0.0553  0.3477
  239ccc    H1511411  12.249   8.590   0.566 -0.1042  1.2287  2.6828
  239ccc    H1611412  12.075   8.608   0.511 -0.0845 -0.7251 -0.4112
  239ccc    C1011413  12.111   8.436   0.624 -0.4368  0.1367  0.6445
  239ccc     O411414  12.003   8.381   0.605  0.0606  0.1693 -0.0467
  239ccc    C1111415  12.967   8.732   0.813 -0.5268 -0.1396 -0.2431
  239ccc    C1211416  12.923   8.871   0.768  0.2131 -0.1682  0.0980
  239ccc    H1711417  12.906   8.663   0.753 -1.7520 -1.1362  2.0365
  239ccc    C1311418  12.766   8.880   0.791  0.0980  0.4129 -0.1489
  239ccc    C1411419  12.721   8.826   0.932 -0.7164  0.0740  0.6926
  239ccc    C1511420  12.789   8.696   0.985 -0.5581 -0.3440  0.7684
  239ccc    H1811421  12.750   8.909   0.997  0.1305 -0.5113  1.0937
  239ccc    H1911422  12.708   8.833   0.710  1.2093  1.6871 -1.7507
  239ccc    H2011423  12.746   8.613   0.928 -2.2739  1.2407 -0.3758
  239ccc     O111424  12.784   8.669   1.123  0.0782 -0.1858  0.2027
  239ccc     O611425  12.729   9.015   0.777  0.5121 -0.0765 -0.0176
  239ccc    C1611426  13.122   8.716   0.798  0.3569  0.7992 -0.6267
  239ccc    H2111427  12.650   9.037   0.830  2.2032  1.3898  2.0757
  239ccc    H2211428  12.534   8.911   0.955  0.7762 -0.9141  0.5630
  239ccc    H2311429  13.166   8.772   0.882 -1.2006  1.9803 -0.5519
  239ccc    H2411430  13.157   8.768   0.708 -0.0842  2.6379  0.2061
  239ccc     O711431  13.147   8.576   0.794  0.2370  0.0199 -0.2325
  239ccc    H2511432  13.065   8.524   0.790 -0.2774  0.2030  3.7523
  239ccc     O811433  12.929   8.706   0.950 -0.1079 -0.1606 -0.2443
  239ccc    H2611434  12.851   8.605   1.152 -0.4555 -1.0318 -0.3853
  239ccc    H2711435  12.965   8.944   0.838  2.0956 -1.3849  0.3127
  239ccc     O911436  12.967   8.906   0.635 -0.3517  0.5685 -0.6589
  239ccc    H2811437  12.924   8.992   0.620  0.0467  0.7130 -0.9808
  239ccc     N311438  12.573   8.820   0.931  0.7031 -0.7742 -0.1258
  239ccc    C1711439  12.450   8.148   1.055  0.1578 -0.5169  0.3662
  239ccc    C1811440  12.558   8.185   0.884  0.5358  0.4945  0.5616
  239ccc    H2911441  12.423   8.045   1.028  1.5534 -1.1195  1.1976
  239ccc    C1911442  12.478   8.315   0.746  0.1355 -0.3677  0.2737
  239ccc    C2011443  12.300   8.406   0.780  0.3427  0.6712 -0.9819
  239ccc    C2111444  12.208   8.369   0.959 -0.0078 -0.6136  0.0879
  239ccc    H3011445  12.312   8.515   0.773 -0.6066  0.7727 -1.2340
  239ccc    H3111446  12.466   8.276   0.644  0.2454 -0.3771  0.2639
  239ccc    H3211447  12.109   8.329   0.937 -0.9836  1.0486  1.2469
  239ccc    O1011448  12.179   8.486   1.029  0.1492  0.0693  0.5470
  239ccc    O1111449  12.578   8.412   0.708 -0.2105 -0.1138 -0.0710
  239ccc    C2211450  12.535   8.109   1.177 -0.5024 -0.7531  0.3552
  239ccc    H3311451  12.554   8.494   0.756  0.1414 -0.8458  1.4202
  239ccc    H3411452  12.194   8.265   0.674 -0.3080  0.2112  0.6041
  239ccc    H3511453  12.616   8.182   1.185  0.1323 -1.5232  1.0677
  239ccc    H3611454  12.582   8.011   1.167 -1.7972 -1.3116 -0.6806
  239ccc    O1211455  12.445   8.101   1.286 -0.4921  0.3279  0.2230
  239ccc    H3711456  12.360   8.076   1.246 -0.0052  1.8810 -1.9726
  239ccc    O1311457  12.294   8.253   1.087  0.0419  0.3793  0.6222
  239ccc    H3811458  12.255   8.490   1.090  0.5896 -0.1530  0.0251
  239ccc    H3911459  12.649   8.229   0.928  1.0138 -0.1184  0.2043
  239ccc     O511460  12.623   8.070   0.830 -0.1048 -0.2696 -0.0531
  239ccc    H4011461  12.620   8.090   0.735  0.2847 -1.8296 -0.4253
  239ccc     N411462  12.212   8.365   0.664 -0.4963  0.2998  1.1410
  240ccc     N111463  11.218   9.632   2.576 -0.2025  0.4261 -0.2600
  240ccc     H411464  11.264   9.710   2.530  0.7889  0.3784  0.6412
  240ccc     C311465  11.208   9.615   2.716 -0.4727  0.3506 -0.1389
  240ccc     H511466  11.103   9.641   2.736 -1.0742 -1.2894 -0.9647
  240ccc     C411467  11.304   9.695   2.799  0.5867 -0.1796  0.1394
  240ccc     H611468  11.205   9.509   2.747  0.8922  0.1121 -0.7595
  240ccc     H711469  11.244   9.726   2.886  0.8924 -1.2580  0.7574
  240ccc     H811470  11.333   9.784   2.743  1.6612  0.7495  2.0539
  240ccc     N211471  11.418   9.613   2.844  0.1238 -0.0082  0.2337
  240ccc     C511472  11.504   9.559   2.732 -0.3040 -0.2914 -0.6806
  240ccc     C611473  11.387   9.499   2.930 -0.0372 -0.5528 -0.1341
  240ccc     H911474  11.330   9.416   2.886 -0.2510 -1.0759  1.1022
  240ccc     C711475  11.314   9.546   3.051 -0.1830  0.0024 -0.1489
  240ccc    H1011476  11.477   9.454   2.974 -1.5178 -1.1841  2.4549
  240ccc    H1111477  11.208   9.560   3.028 -0.2271  1.3345  0.7875
  240ccc    H1211478  11.363   9.639   3.082 -0.1549  0.2623 -0.9547
  240ccc     C811479  11.334   9.453   3.167 -0.4846 -0.2604  0.1376
  240ccc     O211480  11.445   9.417   3.201  0.5811  0.4232 -0.2901
  240ccc    H1311481  11.513   9.638   2.656  1.9700  0.2444  0.0833
  240ccc    H1411482  11.454   9.470   2.692  0.8349 -1.8013  1.0971
  240ccc     C911483  11.652   9.527   2.779 -0.4537  0.6931  0.7790
  240ccc    H1511484  11.649   9.450   2.856  1.1747  1.5911  1.7964
  240ccc    H1611485  11.691   9.619   2.824  0.2840  1.0299 -0.4817
  240ccc    C1011486  11.753   9.474   2.674  0.0636  0.1177  0.0105
  240ccc     O411487  11.728   9.467   2.555  0.4463  0.1483 -0.2285
  240ccc    C1111488  11.339   9.189   3.581  0.3311  0.5334 -0.1343
  240ccc    C1211489  11.283   9.334   3.606  0.2671  0.9296  0.5223
  240ccc    H1711490  11.446   9.192   3.557  0.6097 -1.5296  0.6531
  240ccc    C1311491  11.283   9.424   3.479 -0.1747 -0.1953  0.2253
  240ccc    C1411492  11.218   9.349   3.358  0.1997  0.0781  0.0512
  240ccc    C1511493  11.276   9.201   3.346  0.2809  0.7355 -0.1195
  240ccc    H1811494  11.113   9.334   3.384 -0.8022  0.2354 -3.4132
  240ccc    H1911495  11.384   9.455   3.448 -0.6019  3.2547  1.8099
  240ccc    H2011496  11.384   9.202   3.325  0.1270 -3.4451 -2.0791
  240ccc     O111497  11.202   9.125   3.248  0.9098  0.2056 -0.0171
  240ccc     O611498  11.208   9.544   3.515 -0.0675  0.1601 -0.2447
  240ccc    C1611499  11.321   9.082   3.688  0.2509 -0.0654  0.8596
  240ccc    H2111500  11.180   9.589   3.434 -2.0305  0.9066  0.7881
  240ccc    H2211501  11.145   9.487   3.213  2.1812  3.0293 -0.7881
  240ccc    H2311502  11.397   9.111   3.762 -1.0669  0.6968  1.9592
  240ccc    H2411503  11.355   8.989   3.640  0.6998  0.4282  0.1996
  240ccc     O711504  11.183   9.062   3.734  0.2820 -0.5590  0.1384
  240ccc    H2511505  11.190   9.056   3.831  1.5335 -2.4156 -0.0136
  240ccc     O811506  11.253   9.136   3.472 -0.1864  0.2199 -0.0424
  240ccc    H2611507  11.142   9.176   3.190 -0.3612 -1.8916 -0.6459
  240ccc    H2711508  11.179   9.333   3.639  0.4505  0.1960  1.0897
  240ccc     O911509  11.363   9.379   3.711  0.2671 -0.4638 -0.0550
  240ccc    H2811510  11.448   9.404   3.672 -0.0176  0.1543 -0.2813
  240ccc     N311511  11.220   9.423   3.237 -0.1820  0.4459  0.2753
  240ccc    C1711512  12.148   9.408   3.042 -0.2934 -0.8688  0.0637
  240ccc    C1811513  12.129   9.544   2.978 -0.0379 -0.4756 -0.4347
  240ccc    H2911514  12.228   9.351   2.994  0.9740 -0.0706  1.1489
  240ccc    C1911515  12.056   9.543   2.841  0.6207 -0.0926 -0.5000
  240ccc    C2011516  11.933   9.451   2.850  0.4602 -0.9329  0.0077
  240ccc    C2111517  11.972   9.315   2.911 -0.4180  0.2748  0.1469
  240ccc    H3011518  11.863   9.502   2.917 -1.0480 -0.2679 -1.9787
  240ccc    H3111519  12.127   9.500   2.770  1.2889 -0.9101  0.6353
  240ccc    H3211520  12.041   9.253   2.852  0.0850  0.1388  0.8665
  240ccc    O1011521  11.846   9.243   2.937  0.2290 -0.1670 -0.2959
  240ccc    O1111522  12.017   9.672   2.790  0.4358  0.7708  0.2772
  240ccc    C2211523  12.197   9.430   3.184 -0.6105  0.4920  0.2759
  240ccc    H3311524  12.095   9.731   2.785  1.2225 -0.1562  1.0389
  240ccc    H3411525  11.941   9.396   2.650 -2.4774 -2.3585 -1.8666
  240ccc    H3511526  12.294   9.480   3.172 -0.6375  0.4685 -0.0610
  240ccc    H3611527  12.217   9.331   3.226  0.8997  0.2636 -0.9020
  240ccc    O1211528  12.111   9.508   3.268 -0.1141 -0.1062 -0.1966
  240ccc    H3711529  12.043   9.442   3.288  2.3680 -2.5913  0.6334
  240ccc    O1311530  12.024   9.340   3.039  0.2025  0.1429  0.1889
  240ccc    H3811531  11.807   9.245   2.848 -0.7753  0.1320  0.1481
  240ccc    H3911532  12.072   9.606   3.049 -0.3698 -1.1994 -0.0415
  240ccc     O511533  12.254   9.598   2.947 -0.1658 -0.8155  0.0132
  240ccc    H4011534  12.234   9.684   2.908  2.0963 -0.8578 -1.4008
  240ccc     N411535  11.877   9.440   2.715  0.1201 -0.2375 -0.5734
  241ccc     N111536  10.577   9.640   2.172  0.7370 -0.1486  0.8253
  241ccc     H411537  10.612   9.559   2.221 -0.2281 -0.9465  0.2412
  241ccc     C311538  10.439   9.695   2.190  0.1043 -0.3008 -0.0932
  241ccc     H511539  10.440   9.757   2.280 -1.6579 -2.9264  1.8594
  241ccc     C411540  10.333   9.582   2.195 -0.3672  0.3435  0.4088
  241ccc     H611541  10.404   9.758   2.107 -0.8406  0.5322  0.9076
  241ccc     H711542  10.349   9.516   2.281 -0.5189 -2.7320 -1.7676
  241ccc     H811543  10.341   9.512   2.111  0.0856  0.6841  0.1589
  241ccc     N211544  10.195   9.626   2.197  0.0446  0.2927  0.3033
  241ccc     C511545  10.158   9.681   2.066 -0.3181  0.8172 -0.3819
  241ccc     C611546  10.095   9.519   2.223  0.6300  0.8212  0.4201
  241ccc     H911547   9.995   9.561   2.228  0.1161  0.2142 -2.6601
  241ccc     C711548  10.118   9.440   2.351  0.4610 -0.0723 -0.0442
  241ccc    H1011549  10.105   9.445   2.142 -1.0077  2.5442 -1.4737
  241ccc    H1111550  10.122   9.500   2.443 -1.3779 -0.5497  0.4103
  241ccc    H1211551  10.213   9.387   2.347  1.1901  1.1755  0.3398
  241ccc     C811552  10.008   9.341   2.370  0.2574 -0.4794 -0.4786
  241ccc     O211553   9.940   9.292   2.277 -0.1364  0.5379 -0.6382
  241ccc    H1311554  10.083   9.622   2.013 -1.6609  2.5554 -0.5054
  241ccc    H1411555  10.245   9.695   2.001 -1.0924 -1.6177 -2.0588
  241ccc     C911556  10.103   9.816   2.100 -0.4300 -0.4330  0.1356
  241ccc    H1511557  10.180   9.881   2.143 -0.0078 -1.6215  1.2815
  241ccc    H1611558  10.015   9.810   2.165 -0.9086  0.4967 -0.4191
  241ccc    C1011559  10.067   9.878   1.968 -0.2265 -0.0785  0.7957
  241ccc     O411560  10.149   9.950   1.913  0.1714 -0.1108  0.4697
  241ccc    C1111561   9.918   8.920   2.687  0.1666 -0.1785  0.0950
  241ccc    C1211562   9.808   9.025   2.690 -0.3073 -0.0555 -0.5570
  241ccc    H1711563   9.983   8.948   2.770 -0.1105  0.1224  0.2123
  241ccc    C1311564   9.863   9.168   2.667 -0.4745  0.0789 -0.5067
  241ccc    C1411565   9.932   9.172   2.533 -0.3938  0.1321  0.3128
  241ccc    C1511566  10.051   9.072   2.541  0.4313 -0.3713 -1.0445
  241ccc    H1811567   9.861   9.126   2.463  0.0963 -0.3968  0.1547
  241ccc    H1911568   9.922   9.198   2.754 -3.7652  1.0637  1.6077
  241ccc    H2011569  10.115   9.099   2.625  1.4131 -0.8321 -1.6306
  241ccc     O111570  10.138   9.075   2.432 -1.0024 -0.3100  0.2211
  241ccc     O611571   9.748   9.258   2.667 -0.7876 -0.2018  0.2746
  241ccc    C1611572   9.868   8.774   2.695  0.3760 -0.1586  0.2305
  241ccc    H2111573   9.772   9.353   2.664  1.1183 -0.6335  0.1580
  241ccc    H2211574  10.062   9.337   2.560  1.8647 -0.8757 -0.3990
  241ccc    H2311575   9.808   8.766   2.787 -0.4313  0.6157 -0.2157
  241ccc    H2411576   9.956   8.711   2.716  1.3009  0.5657 -1.3693
  241ccc     O711577   9.796   8.730   2.572  0.2106  0.0774 -0.2152
  241ccc    H2511578   9.752   8.648   2.601  1.1822  0.8710  4.4466
  241ccc     O811579  10.005   8.942   2.568  0.6476 -0.0929 -0.0340
  241ccc    H2611580  10.091   9.032   2.358 -1.1129  1.4919 -0.8295
  241ccc    H2711581   9.734   9.000   2.612 -1.7652 -1.5356  1.2295
  241ccc     O911582   9.744   9.019   2.819  0.5275 -0.3226  0.2102
  241ccc    H2811583   9.666   8.961   2.813  1.4031 -1.3924 -1.1882
  241ccc     N311584   9.989   9.306   2.496  0.0618  0.2576  1.0208
  241ccc    C1711585   9.542   9.750   1.962 -0.5012 -0.4942 -0.4971
  241ccc    C1811586   9.640   9.624   1.947 -0.5017 -0.6353  0.1071
  241ccc    H2911587   9.501   9.775   1.863 -2.4788 -3.2980 -0.4976
  241ccc    C1911588   9.770   9.675   1.887  0.1018  0.1478  0.9252
  241ccc    C2011589   9.830   9.795   1.956 -0.1922 -0.3637 -0.1593
  241ccc    C2111590   9.731   9.908   1.968  0.0833  0.5847 -0.9088
  241ccc    H3011591   9.844   9.774   2.063  1.8684  3.0794  0.4119
  241ccc    H3111592   9.746   9.709   1.786  2.7562 -0.6284 -0.0504
  241ccc    H3211593   9.768   9.994   2.024 -2.1890 -0.2500  2.0775
  241ccc    O1011594   9.699   9.958   1.841  0.1400 -0.5898 -0.3698
  241ccc    O1111595   9.862   9.565   1.879  0.0920  0.6806 -0.2136
  241ccc    C2211596   9.422   9.718   2.055  0.5463  0.3345  0.7913
  241ccc    H3311597   9.948   9.597   1.849  0.4873  0.8705  1.0704
  241ccc    H3411598   9.957   9.871   1.803  1.4286  1.0845  0.4488
  241ccc    H3511599   9.355   9.805   2.055 -1.2102 -0.9730  1.0337
  241ccc    H3611600   9.366   9.629   2.024 -0.4738  0.9089  0.9507
  241ccc    O1211601   9.467   9.694   2.190  0.3293  0.2200  0.3099
  241ccc    H3711602   9.517   9.771   2.222 -0.4087  0.6719  0.4126
  241ccc    O1311603   9.612   9.856   2.030 -0.0174 -0.0788  0.4998
  241ccc    H3811604   9.611   9.999   1.838 -0.3043 -1.5578 -1.5063
  241ccc    H3911605   9.655   9.577   2.045 -0.8832 -0.0585  0.4524
  241ccc     O511606   9.574   9.531   1.861  0.8957 -0.0866 -0.4929
  241ccc    H4011607   9.632   9.453   1.866  0.3766 -0.3930  3.2851
  241ccc     N411608   9.959   9.834   1.898 -0.1070 -0.1582  0.0397
  242ccc     N111609  11.311  11.284   3.315  0.4017  0.0754  0.5570
  242ccc     H411610  11.405  11.271   3.280  0.0479 -1.4300  0.0898
  242ccc     C311611  11.286  11.363   3.434  0.1773  0.3260  0.4770
  242ccc     H511612  11.320  11.465   3.413 -1.3236  0.4570 -1.6691
  242ccc     C411613  11.370  11.324   3.554 -0.1201 -0.0755  0.1186
  242ccc     H611614  11.180  11.364   3.460  0.2691  2.8994  0.9714
  242ccc     H711615  11.479  11.325   3.538 -0.3204 -1.7015 -1.6747
  242ccc     H811616  11.347  11.222   3.587 -1.7564 -0.5311 -2.1760
  242ccc     N211617  11.343  11.410   3.677 -0.1866  0.3671  0.1880
  242ccc     C511618  11.368  11.547   3.663  0.6825  0.7141 -0.6230
  242ccc     C611619  11.393  11.358   3.799 -0.0255  0.1206  0.3340
  242ccc     H911620  11.478  11.294   3.774 -1.2580 -1.2573 -0.5252
  242ccc     C711621  11.291  11.288   3.877  0.7636  0.3458 -0.2378
  242ccc    H1011622  11.431  11.439   3.863 -0.5523 -0.4711  1.4355
  242ccc    H1111623  11.229  11.227   3.811  0.1328  0.4360  0.2643
  242ccc    H1211624  11.217  11.360   3.913 -0.1761 -0.4572 -0.5117
  242ccc     C811625  11.351  11.211   3.992  0.0169  0.0573 -0.3063
  242ccc     O211626  11.417  11.108   3.974  0.2511 -0.1237  0.0543
  242ccc    H1311627  11.373  11.575   3.557 -1.1145 -1.5242 -1.3881
  242ccc    H1411628  11.457  11.579   3.719 -0.1117  1.7814  0.0821
  242ccc     C911629  11.255  11.616   3.739 -0.0327 -0.1752 -0.3157
  242ccc    H1511630  11.241  11.568   3.837 -0.6721 -0.8233 -0.7158
  242ccc    H1611631  11.158  11.600   3.689  0.1375  0.8012 -0.9850
  242ccc    C1011632  11.278  11.760   3.737 -0.6976  0.2296  0.8151
  242ccc     O411633  11.286  11.817   3.630  0.1881 -0.1763 -0.6412
  242ccc    C1111634  11.682  11.191   4.349  0.8617  0.6703  0.1851
  242ccc    C1211635  11.681  11.323   4.279  0.3825 -0.4019 -0.0832
  242ccc    H1711636  11.717  11.112   4.281  0.3114 -0.2842  0.9765
  242ccc    C1311637  11.581  11.320   4.162 -0.4257 -0.6527  0.2678
  242ccc    C1411638  11.440  11.280   4.217  0.1766 -0.0102  0.1033
  242ccc    C1511639  11.443  11.145   4.288  0.0199  0.6011  0.0302
  242ccc    H1811640  11.413  11.359   4.288  0.9986  2.9451 -2.6852
  242ccc    H1911641  11.624  11.248   4.092 -1.7627 -1.5638  0.3462
  242ccc    H2011642  11.462  11.061   4.220 -0.3866  1.1105 -0.7189
  242ccc     O111643  11.323  11.123   4.358 -0.5585  0.3759 -0.1161
  242ccc     O611644  11.566  11.446   4.096  0.0680  0.0411 -0.9369
  242ccc    C1611645  11.776  11.191   4.476  0.1305 -0.1667  0.1982
  242ccc    H2111646  11.653  11.488   4.088 -0.1722  0.2020 -3.2632
  242ccc    H2211647  11.275  11.361   4.107 -0.4656 -0.8708  0.3320
  242ccc    H2311648  11.866  11.251   4.455 -0.9531  1.7638  0.8514
  242ccc    H2411649  11.810  11.089   4.495 -0.2561 -0.0562  1.5294
  242ccc     O711650  11.718  11.238   4.596 -0.2494 -0.2013  0.8530
  242ccc    H2511651  11.637  11.281   4.563 -0.3117 -0.6648  0.3908
  242ccc     O811652  11.545  11.145   4.385 -0.2270 -0.2599  0.2404
  242ccc    H2611653  11.338  11.151   4.450  1.7568 -3.1903  0.7994
  242ccc    H2711654  11.649  11.407   4.343 -2.3016 -0.9588 -0.5885
  242ccc     O911655  11.818  11.359   4.241  0.5058 -0.2769 -0.1605
  242ccc    H2811656  11.867  11.277   4.225  1.3046 -0.4117  2.5456
  242ccc     N311657  11.344  11.286   4.104  0.6588  0.1373 -0.0145
  242ccc    C1711658  11.478  11.819   4.235 -0.2084 -0.5100  0.2468
  242ccc    C1811659  11.324  11.775   4.220 -0.1592 -0.2290  0.8025
  242ccc    H2911660  11.487  11.927   4.223  1.2794 -0.8211 -2.1050
  242ccc    C1911661  11.265  11.817   4.083  0.0558  0.5649  0.2344
  242ccc    C2011662  11.356  11.770   3.977 -0.0243 -0.4386 -0.1888
  242ccc    C2111663  11.510  11.806   3.995  0.7473  0.1399 -0.2450
  242ccc    H3011664  11.351  11.661   3.982  0.4550 -0.4684 -0.3431
  242ccc    H3111665  11.263  11.926   4.071 -0.5101  0.5050 -0.2157
  242ccc    H3211666  11.536  11.911   3.976  1.2505  0.4389  1.7910
  242ccc    O1011667  11.578  11.722   3.902 -0.0437 -0.1543  0.0912
  242ccc    O1111668  11.126  11.766   4.070 -0.6010 -0.2735 -0.2569
  242ccc    C2211669  11.535  11.757   4.358  0.1737  0.4290 -1.0897
  242ccc    H3311670  11.084  11.799   3.989 -1.1024 -2.3459 -0.8970
  242ccc    H3411671  11.337  11.924   3.835 -2.4147  1.4397 -2.0891
  242ccc    H3511672  11.538  11.649   4.341  1.8465  0.2512  0.1246
  242ccc    H3611673  11.483  11.784   4.451 -0.8488 -2.9928 -0.5354
  242ccc    O1211674  11.670  11.796   4.366 -0.4784 -0.0359  0.0708
  242ccc    H3711675  11.704  11.763   4.281 -0.3214  1.9649 -0.7088
  242ccc    O1311676  11.554  11.767   4.124  0.1630 -0.3581  0.5392
  242ccc    H3811677  11.634  11.666   3.959  0.3092  0.1539  0.0571
  242ccc    H3911678  11.328  11.665   4.222 -1.4651 -0.2944  0.7722
  242ccc     O511679  11.251  11.836   4.321  0.2019  0.4220 -0.3356
  242ccc    H4011680  11.215  11.769   4.382  1.0033  0.5870  0.3248
  242ccc     N411681  11.310  11.827   3.848  0.8284  0.6875  0.1776
  243ccc     N111682  11.794  10.942   2.957  0.0703 -0.5417 -0.2101
  243ccc     H411683  11.772  11.026   2.905  0.3889 -0.0256  0.4691
  243ccc     C311684  11.917  10.859   2.935  0.7581 -0.4328  0.0890
  243ccc     H511685  11.911  10.779   3.009  1.3912  1.0412  1.8032
  243ccc     C411686  12.042  10.942   2.978 -0.0561 -0.0427 -0.9127
  243ccc     H611687  11.932  10.823   2.832  1.0721  1.3200 -0.5093
  243ccc     H711688  12.035  10.956   3.087  0.5047 -1.2330 -0.7148
  243ccc     H811689  12.050  11.034   2.919  1.7353 -0.6810 -1.7041
  243ccc     N211690  12.153  10.852   2.952  0.4323 -0.1301 -0.6306
  243ccc     C511691  12.196  10.867   2.809  0.1475  0.1509 -0.0761
  243ccc     C611692  12.253  10.849   3.062 -0.7551 -0.1760  0.0734
  243ccc     H911693  12.354  10.826   3.027 -0.2210 -1.6036  2.2923
  243ccc     C711694  12.220  10.724   3.138 -0.5335  0.5748 -0.3607
  243ccc    H1011695  12.254  10.939   3.126  0.9002  0.3475 -0.6634
  243ccc    H1111696  12.223  10.633   3.076 -2.2233  0.5242 -0.4121
  243ccc    H1211697  12.116  10.724   3.173 -0.7259 -2.2059 -0.7066
  243ccc     C811698  12.308  10.703   3.263 -0.0528 -0.5399  0.2644
  243ccc     O211699  12.385  10.786   3.304 -0.1160 -0.0827 -0.9622
  243ccc    H1311700  12.265  10.948   2.785  0.0428  0.1030 -0.5620
  243ccc    H1411701  12.103  10.878   2.751  0.2639  0.4258 -0.2127
  243ccc     C911702  12.275  10.748   2.765 -0.2206  0.3333  0.6864
  243ccc    H1511703  12.211  10.661   2.780 -1.1881  0.6120 -1.4040
  243ccc    H1611704  12.369  10.732   2.818  0.5201 -3.6162 -1.4550
  243ccc    C1011705  12.304  10.758   2.613  1.3167  0.2728 -1.3289
  243ccc     O411706  12.241  10.825   2.537  0.6830 -0.1333 -0.3325
  243ccc    C1111707  12.474  10.610   3.709 -0.2181  0.4654 -0.6714
  243ccc    C1211708  12.322  10.614   3.709  0.2323  0.3863  0.1112
  243ccc    H1711709  12.511  10.712   3.693 -1.5447  1.2229  0.8764
  243ccc    C1311710  12.251  10.633   3.569 -0.3776  0.0389 -0.1275
  243ccc    C1411711  12.314  10.541   3.461 -0.0283 -0.1280  0.0581
  243ccc    C1511712  12.470  10.545   3.476  0.3713  0.2765  0.3562
  243ccc    H1811713  12.293  10.434   3.477 -0.4933 -0.1103 -0.4256
  243ccc    H1911714  12.272  10.736   3.537  0.7659  0.1707  0.9561
  243ccc    H2011715  12.510  10.645   3.454 -1.0654  0.5881 -1.0572
  243ccc     O111716  12.534  10.449   3.386 -0.2587 -0.2318  0.4344
  243ccc     O611717  12.107  10.609   3.574  0.3179  0.0608  0.3121
  243ccc    C1611718  12.519  10.550   3.845 -0.6275 -0.0518 -0.1169
  243ccc    H2111719  12.087  10.566   3.490  2.6727  0.5541 -0.5817
  243ccc    H2211720  12.190  10.538   3.297  0.8142 -0.2300 -0.2900
  243ccc    H2311721  12.482  10.447   3.845  1.8851 -1.0448 -0.1333
  243ccc    H2411722  12.481  10.607   3.930  0.4512  0.5053  0.0167
  243ccc     O711723  12.663  10.533   3.856  0.5747  0.2730 -0.4071
  243ccc    H2511724  12.703  10.619   3.877  2.1797 -0.4559 -0.3759
  243ccc     O811725  12.511  10.522   3.610 -0.0420  0.3605 -0.0771
  243ccc    H2611726  12.503  10.362   3.418 -0.2878 -1.4603 -2.6158
  243ccc    H2711727  12.293  10.514   3.742 -1.0940 -0.1787 -2.4563
  243ccc     O911728  12.284  10.713   3.803  0.1012 -0.1755 -0.4480
  243ccc    H2811729  12.270  10.799   3.761 -0.2652 -0.4216 -0.8423
  243ccc     N311730  12.279  10.582   3.320  0.5346  0.2584 -0.1505
  243ccc    C1711731  12.588  10.301   2.580  0.5047 -0.2246  0.5404
  243ccc    C1811732  12.685  10.420   2.596  0.7047  0.5256  0.6228
  243ccc    H2911733  12.564  10.289   2.474  3.8120  1.0269 -0.4836
  243ccc    C1911734  12.614  10.552   2.552 -1.1464  0.9228  1.0305
  243ccc    C2011735  12.478  10.569   2.620  0.4055 -0.5816  0.4391
  243ccc    C2111736  12.394  10.440   2.621  0.9089 -0.1366  0.9022
  243ccc    H3011737  12.510  10.586   2.724 -0.2410  0.3593  0.5023
  243ccc    H3111738  12.592  10.548   2.445  0.9236 -1.6846  0.5971
  243ccc    H3211739  12.344  10.430   2.524  1.6128  0.7501  0.4306
  243ccc    O1011740  12.300  10.446   2.724 -0.2666  0.3322  0.3479
  243ccc    O1111741  12.693  10.663   2.575  0.0910 -0.1792 -0.2432
  243ccc    C2211742  12.636  10.175   2.645 -0.2525 -0.0329  0.0319
  243ccc    H3311743  12.778  10.628   2.544  0.4649 -0.3516  0.9260
  243ccc    H3411744  12.406  10.684   2.459  0.0687  0.1793  0.5255
  243ccc    H3511745  12.618  10.188   2.753 -1.3066  3.2945 -0.4081
  243ccc    H3611746  12.745  10.177   2.636 -0.2637 -0.4733 -0.2195
  243ccc    O1211747  12.579  10.058   2.592  0.1655  0.1432  0.2516
  243ccc    H3711748  12.648  10.031   2.528 -0.8163  0.1677 -0.8481
  243ccc    O1311749  12.466  10.328   2.650  0.2401 -0.1955 -0.0309
  243ccc    H3811750  12.340  10.379   2.782  0.9748 -0.0353 -0.8788
  243ccc    H3911751  12.715  10.432   2.701 -2.1846 -0.4190  1.6656
  243ccc     O511752  12.805  10.396   2.527  1.1314 -0.0590 -0.2491
  243ccc    H4011753  12.853  10.345   2.595  0.8931 -0.7755 -0.6059
  243ccc     N411754  12.406  10.687   2.561 -0.6947 -0.4191  0.5496
  244ccc     N111755   9.971  10.927   2.078  0.1736  0.2659 -0.2764
  244ccc     H411756   9.984  10.905   2.175  0.2980  1.4925  0.0047
  244ccc     C311757   9.835  10.889   2.022 -0.2347  0.0643  0.0540
  244ccc     H511758   9.854  10.856   1.919 -1.5373 -2.7536  0.6260
  244ccc     C411759   9.720  10.995   2.023 -0.3154 -0.3178  0.1617
  244ccc     H611760   9.799  10.802   2.078  2.4916 -0.0732  1.7628
  244ccc     H711761   9.632  10.940   1.989 -0.0930 -1.0396  0.7173
  244ccc     H811762   9.759  11.055   1.940  0.5046 -2.0685 -0.7807
  244ccc     N211763   9.693  11.057   2.155 -0.1588  0.7743 -0.1370
  244ccc     C511764   9.795  11.142   2.234  0.4428 -0.2902  0.0910
  244ccc     C611765   9.641  10.964   2.249 -0.1543  0.8237 -0.2583
  244ccc     H911766   9.722  10.902   2.291  0.5972  2.0507  0.1706
  244ccc     C711767   9.521  10.886   2.205  0.3524  0.7285  0.4823
  244ccc    H1011768   9.594  11.023   2.328  1.1830 -0.3440  1.4931
  244ccc    H1111769   9.550  10.808   2.133 -0.7678  1.4608 -0.7783
  244ccc    H1211770   9.445  10.949   2.159 -0.2186  2.0453  3.0458
  244ccc     C811771   9.471  10.816   2.326  0.5695  0.5046  0.2604
  244ccc     O211772   9.493  10.698   2.362  0.2077 -0.7788 -0.1241
  244ccc    H1311773   9.882  11.086   2.269  2.0927  1.5532 -0.8579
  244ccc    H1411774   9.730  11.176   2.316 -1.9488  1.6232 -2.4071
  244ccc     C911775   9.822  11.263   2.148  0.2099 -0.1214 -0.1899
  244ccc    H1511776   9.728  11.306   2.110  1.0745  0.6872 -1.5098
  244ccc    H1611777   9.873  11.229   2.057  0.7405 -2.5669  0.9455
  244ccc    C1011778   9.906  11.356   2.230 -0.8579 -0.7286  1.3151
  244ccc     O411779   9.930  11.346   2.351 -0.1814 -0.2633  0.2717
  244ccc    C1111780   9.049  10.868   2.664 -0.2644 -0.0119 -0.3435
  244ccc    C1211781   9.063  10.759   2.557 -0.2035  0.4577  0.1245
  244ccc    H1711782   8.990  10.950   2.621 -1.1612  0.3678  1.5150
  244ccc    C1311783   9.162  10.786   2.443  0.5776 -0.4273 -0.2222
  244ccc    C1411784   9.301  10.841   2.501  0.3692 -0.1421 -0.0683
  244ccc    C1511785   9.265  10.958   2.596 -0.4854  0.1960  0.7807
  244ccc    H1811786   9.337  10.759   2.564 -1.1013 -0.2547  0.6626
  244ccc    H1911787   9.111  10.852   2.372 -0.6091 -0.0488  0.9482
  244ccc    H2011788   9.223  11.042   2.540  0.0699 -1.3827 -2.1762
  244ccc     O111789   9.379  10.988   2.670  0.1595 -0.4526  0.0995
  244ccc     O611790   9.190  10.664   2.377  0.3388  0.4226 -0.1467
  244ccc    C1611791   8.978  10.820   2.786  0.9026 -0.3211  0.0829
  244ccc    H2111792   9.285  10.668   2.358  0.1982  1.6688 -0.6340
  244ccc    H2211793   9.350  10.979   2.354 -0.3339 -0.0092  0.3261
  244ccc    H2311794   9.041  10.750   2.842  0.3671 -0.4286  0.5588
  244ccc    H2411795   8.890  10.767   2.745  0.4679  0.7728 -0.4410
  244ccc     O711796   8.932  10.937   2.852 -0.2022  0.2133 -0.7716
  244ccc    H2511797   9.003  11.003   2.854  0.2933 -0.3177 -0.4886
  244ccc     O811798   9.177  10.916   2.702  0.0128 -0.4867  0.1502
  244ccc    H2611799   9.346  10.990   2.761  1.6609 -0.0145  0.6713
  244ccc    H2711800   9.096  10.668   2.609 -0.1779  0.0869 -0.5372
  244ccc     O911801   8.930  10.732   2.498  0.1504 -0.7306  0.0313
  244ccc    H2811802   8.937  10.637   2.476  0.9767 -1.1120  1.7806
  244ccc     N311803   9.389  10.892   2.390  0.1204 -0.1753 -0.5281
  244ccc    C1711804   9.855  11.771   1.899  0.0116  0.3565  0.7648
  244ccc    C1811805   9.979  11.677   1.860  0.7127  0.3289 -0.0802
  244ccc    H2911806   9.894  11.850   1.965 -1.4847  2.6571 -0.9744
  244ccc    C1911807  10.024  11.589   1.981  0.5375  0.2823  0.1637
  244ccc    C2011808   9.903  11.527   2.056 -0.6472  0.4223 -0.2350
  244ccc    C2111809   9.806  11.640   2.098  0.0950 -0.5366 -0.4882
  244ccc    H3011810   9.855  11.455   1.989 -1.9128  0.2024  0.8636
  244ccc    H3111811  10.077  11.643   2.060  1.1264 -1.5697  1.0853
  244ccc    H3211812   9.862  11.708   2.163  0.3907  1.2352 -2.4765
  244ccc    O1011813   9.692  11.579   2.161  0.0689  0.2391  0.3846
  244ccc    O1111814  10.106  11.482   1.943 -0.1388  0.2123 -0.2856
  244ccc    C2211815   9.781  11.836   1.779 -0.7880 -0.2231 -0.4108
  244ccc    H3311816  10.189  11.522   1.910  2.1703 -1.1691  3.2503
  244ccc    H3411817   9.991  11.535   2.242  1.1402 -0.4975 -0.9051
  244ccc    H3511818   9.730  11.763   1.715 -2.2952  1.2994 -1.0516
  244ccc    H3611819   9.853  11.879   1.709  0.3707 -1.5827 -0.1029
  244ccc    O1211820   9.681  11.932   1.826  0.0452  0.0221  0.0249
  244ccc    H3711821   9.619  11.878   1.879 -1.8734  2.5083  0.5047
  244ccc    O1311822   9.757  11.697   1.975 -0.2550  0.9426  0.5820
  244ccc    H3811823   9.632  11.580   2.085 -0.3005 -0.3259  0.6610
  244ccc    H3911824   9.956  11.617   1.772  0.4664  0.2624  0.0282
  244ccc     O511825  10.091  11.753   1.812  0.4707 -0.0158 -0.4495
  244ccc    H4011826  10.161  11.701   1.768  2.8968 -0.0580  3.0255
  244ccc     N411827   9.959  11.465   2.175  0.1085 -0.4213 -0.5206
  245ccc     N111828  10.471  11.484   2.512 -0.3459 -0.0165 -0.6970
  245ccc     H411829  10.542  11.413   2.519  0.2166  0.6792  1.2681
  245ccc     C311830  10.473  11.591   2.618  0.4139 -0.2983 -0.0348
  245ccc     H511831  10.554  11.664   2.605  0.9069 -0.8753 -0.2497
  245ccc     C411832  10.480  11.542   2.766  0.1982 -0.0419  0.4448
  245ccc     H611833  10.374  11.639   2.618  0.6913  0.3250  1.0942
  245ccc     H711834  10.583  11.506   2.783  0.5821 -0.4260 -2.3146
  245ccc     H811835  10.406  11.461   2.768  1.0581 -0.8396  0.7516
  245ccc     N211836  10.428  11.644   2.862  0.5086 -0.3122  0.1300
  245ccc     C511837  10.528  11.741   2.897 -0.1656  0.7258  0.7900
  245ccc     C611838  10.345  11.589   2.972  0.4674 -0.5398 -0.3916
  245ccc     H911839  10.384  11.493   3.008  0.7179 -0.4800 -0.5001
  245ccc     C711840  10.196  11.572   2.934  0.1858 -0.6932  0.2992
  245ccc    H1011841  10.352  11.649   3.063  1.2465 -3.3560  1.5359
  245ccc    H1111842  10.179  11.556   2.827  2.0643 -1.2318  0.0591
  245ccc    H1211843  10.150  11.666   2.969  0.6745 -1.4091  3.1885
  245ccc     C811844  10.132  11.456   3.018  0.2734 -0.5435 -0.2023
  245ccc     O211845  10.162  11.423   3.132 -0.3621 -1.3278  0.3122
  245ccc    H1311846  10.578  11.764   2.803 -1.7796 -0.6640 -0.4712
  245ccc    H1411847  10.603  11.688   2.959  0.6205 -2.3373 -2.4204
  245ccc     C911848  10.476  11.874   2.946 -0.0528 -1.0618 -0.9099
  245ccc    H1511849  10.440  11.863   3.049  0.2235  0.7105 -0.5962
  245ccc    H1611850  10.391  11.910   2.886 -0.1444 -0.1546 -0.2531
  245ccc    C1011851  10.589  11.984   2.943  0.3558 -0.1168 -0.1787
  245ccc     O411852  10.707  11.961   2.957 -0.0235 -0.4029  0.3759
  245ccc    C1111853   9.751  11.085   2.915  0.2390 -0.4812  0.3127
  245ccc    C1211854   9.893  11.034   2.951 -0.1239  0.4701 -0.4713
  245ccc    H1711855   9.742  11.106   2.808  3.2314  1.4752  0.3240
  245ccc    C1311856   9.998  11.146   2.928  0.0931 -0.1005 -0.2657
  245ccc    C1411857   9.955  11.282   2.987 -0.1073 -0.2425 -0.0278
  245ccc    C1511858   9.809  11.327   2.959  0.4645 -0.3285  0.5895
  245ccc    H1811859   9.969  11.269   3.095  0.2575  1.0390  0.1036
  245ccc    H1911860  10.012  11.150   2.819 -0.7551  0.9890 -0.3395
  245ccc    H2011861   9.808  11.346   2.852  1.8201  2.8359  1.0543
  245ccc     O111862   9.766  11.432   3.046 -0.6901 -0.0285  0.4618
  245ccc     O611863  10.120  11.099   2.997 -0.2604 -0.2145 -0.1933
  245ccc    C1611864   9.636  10.990   2.956 -0.0642  0.1133  0.6834
  245ccc    H2111865  10.185  11.171   2.996 -0.7816  0.2986  0.7477
  245ccc    H2211866  10.029  11.431   2.851  2.5371  2.7984  0.4002
  245ccc    H2311867   9.627  10.929   2.865  0.1039 -0.5626  1.1081
  245ccc    H2411868   9.543  11.046   2.968 -0.2138  0.5255 -1.7728
  245ccc     O711869   9.658  10.914   3.067 -0.6845  0.7534 -0.3451
  245ccc    H2511870   9.668  10.981   3.137 -0.2187 -1.7431  2.1519
  245ccc     O811871   9.724  11.209   2.985  0.5379 -0.0877 -0.1005
  245ccc    H2611872   9.802  11.399   3.130  1.3404 -1.2698 -0.7907
  245ccc    H2711873   9.879  11.018   3.058 -1.6014  1.2276 -0.5268
  245ccc     O911874   9.925  10.908   2.884 -0.1262 -0.5977  0.4456
  245ccc    H2811875  10.007  10.919   2.831 -1.2937 -1.4729 -1.6559
  245ccc     N311876  10.045  11.389   2.943 -0.6687  0.1506 -0.0868
  245ccc    C1711877  10.901  12.317   2.818  0.2115  0.3176  0.0072
  245ccc    C1811878  10.792  12.307   2.708 -0.6290  0.3560  0.2831
  245ccc    H2911879  10.942  12.219   2.846 -1.4156 -0.3072  0.3654
  245ccc    C1911880  10.671  12.221   2.749 -0.2481 -0.2963  0.6175
  245ccc    C2011881  10.622  12.227   2.896  0.0525  0.1588  0.5886
  245ccc    C2111882  10.734  12.271   2.995  0.0681 -0.2393  1.0899
  245ccc    H3011883  10.549  12.309   2.894 -2.5162 -1.8901 -3.3129
  245ccc    H3111884  10.706  12.117   2.742 -0.2169 -0.3586  1.5962
  245ccc    H3211885  10.800  12.189   3.028  0.3803 -1.4563 -2.1529
  245ccc    O1011886  10.683  12.335   3.109 -0.0553  0.5881  1.2190
  245ccc    O1111887  10.569  12.244   2.653  0.0140  0.3507 -0.4033
  245ccc    C2211888  11.015  12.414   2.780 -0.2282 -0.1707 -0.5213
  245ccc    H3311889  10.600  12.207   2.569 -0.5623 -0.3347 -0.3251
  245ccc    H3411890  10.445  12.118   2.931 -0.4391 -2.6659  1.9843
  245ccc    H3511891  10.971  12.515   2.775  1.3633  0.5262 -1.3286
  245ccc    H3611892  11.064  12.386   2.686  1.7700 -1.0054  0.7121
  245ccc    O1211893  11.106  12.406   2.893 -0.3913 -0.3612 -0.3688
  245ccc    H3711894  11.085  12.466   2.967 -0.5647 -1.4303  0.4750
  245ccc    O1311895  10.822  12.364   2.930 -0.5592  0.1683 -0.1608
  245ccc    H3811896  10.657  12.256   3.160  2.8347 -0.7761  0.8218
  245ccc    H3911897  10.756  12.409   2.690 -0.0812  0.4854 -0.0707
  245ccc     O511898  10.854  12.241   2.591  0.3008  0.2734 -0.1894
  245ccc    H4011899  10.789  12.240   2.519 -0.2906  3.0507  0.2069
  245ccc     N411900  10.547  12.108   2.929 -0.0896  0.2316  0.2386
  246ccc     N111901  12.927  10.266   3.455 -0.2558 -0.4038 -0.9970
  246ccc     H411902  12.872  10.233   3.534 -0.4556 -0.3397 -1.1086
  246ccc     C311903  12.868  10.362   3.363  0.1984  0.0004  0.2207
  246ccc     H511904  12.924  10.373   3.269 -1.7000 -0.2327 -0.9874
  246ccc     C411905  12.841  10.492   3.433 -1.0408  0.2213 -0.0472
  246ccc     H611906  12.777  10.316   3.322 -0.8894  2.4713 -0.3996
  246ccc     H711907  12.767  10.474   3.512 -0.6285  2.4900  0.9369
  246ccc     H811908  12.788  10.566   3.371  0.5571  1.7441  0.3463
  246ccc     N211909  12.963  10.549   3.490  0.3457  0.3845  0.4457
  246ccc     C511910  13.054  10.595   3.386 -0.9341  0.2606 -0.5324
  246ccc     C611911  12.931  10.624   3.605 -0.5943 -0.7360 -0.1901
  246ccc     H911912  12.879  10.717   3.580  2.1645  1.1698  0.6673
  246ccc     C711913  13.054  10.648   3.695 -0.4347  0.5581  0.3563
  246ccc    H1011914  12.866  10.570   3.674  0.7529 -0.8680  1.0400
  246ccc    H1111915  13.132  10.691   3.631 -1.0690  0.4532 -0.5042
  246ccc    H1211916  13.085  10.551   3.735 -0.2056 -0.0395 -1.1891
  246ccc     C811917  13.034  10.758   3.799 -0.3943  0.0538  0.2836
  246ccc     O211918  13.013  10.878   3.783 -0.1400 -0.4746 -0.1174
  246ccc    H1311919  13.064  10.525   3.303 -1.8454 -2.9125  1.8609
  246ccc    H1411920  13.150  10.605   3.438 -2.2665 -0.4540  2.2843
  246ccc     C911921  13.009  10.729   3.324  0.3619  0.3580  0.1904
  246ccc    H1511922  13.006  10.810   3.398  0.9758  1.2101 -0.6883
  246ccc    H1611923  12.909  10.725   3.280 -0.8125  2.7082  2.3906
  246ccc    C1011924  13.104  10.774   3.226 -0.3413 -0.2338  0.7462
  246ccc     O411925  13.195  10.846   3.247  0.4497 -1.2183 -0.3762
  246ccc    C1111926  12.820  10.812   4.283  0.0107  0.1966  0.0479
  246ccc    C1211927  12.972  10.832   4.284 -0.0406  0.7395  0.0949
  246ccc    H1711928  12.790  10.709   4.307  1.6233 -1.0445 -2.7147
  246ccc    C1311929  13.043  10.754   4.170 -0.1741  0.4890  0.0612
  246ccc    C1411930  12.975  10.791   4.034 -0.0193  0.0588 -0.3109
  246ccc    C1511931  12.825  10.757   4.049  0.3308 -0.0909 -0.2302
  246ccc    H1811932  12.991  10.899   4.019  1.0559 -0.1797 -0.9839
  246ccc    H1911933  13.031  10.647   4.194  2.8327 -0.0949 -0.5491
  246ccc    H2011934  12.819  10.651   4.079  0.9968 -0.7123 -2.1629
  246ccc     O111935  12.756  10.790   3.928  0.2223 -0.4556  0.2215
  246ccc     O611936  13.180  10.794   4.165 -0.2789  0.7460  0.0179
  246ccc    C1611937  12.752  10.918   4.377  0.0842  0.2760  0.4013
  246ccc    H2111938  13.217  10.776   4.076 -1.5558 -0.7901 -0.2351
  246ccc    H2211939  13.035  10.619   3.943 -0.1359  1.0511  3.3946
  246ccc    H2311940  12.769  10.897   4.483 -0.4365 -0.2434  0.3886
  246ccc    H2411941  12.644  10.906   4.359  0.2908 -2.0449  0.4953
  246ccc     O711942  12.793  11.052   4.348  0.3428 -0.7409 -0.0236
  246ccc    H2511943  12.802  11.075   4.253  2.0868  1.6707  0.6324
  246ccc     O811944  12.770  10.839   4.157  0.4327  0.2874  0.6816
  246ccc    H2611945  12.768  10.886   3.927  2.6103 -0.6823  1.2547
  246ccc    H2711946  13.000  10.938   4.276  1.1481  0.3002 -2.7026
  246ccc     O911947  13.020  10.769   4.404 -0.6397 -0.2163 -0.3082
  246ccc    H2811948  13.101  10.820   4.422  0.2016 -1.3551 -0.8087
  246ccc     N311949  13.037  10.719   3.921  0.5160  0.4639  0.4186
  246ccc    C1711950  13.405  10.856   2.842  0.1031  0.2792  0.5084
  246ccc    C1811951  13.378  10.704   2.880  0.3738 -0.1292  0.1159
  246ccc    H2911952  13.474  10.893   2.919 -0.7736 -2.8958  3.0214
  246ccc    C1911953  13.286  10.680   3.004 -0.4219 -0.4829 -0.6130
  246ccc    C2011954  13.157  10.760   2.984 -0.1333  0.1069  0.4410
  246ccc    C2111955  13.204  10.911   2.963  0.2325  0.5658  0.5673
  246ccc    H3011956  13.101  10.738   2.892  0.7648  1.4576 -0.4501
  246ccc    H3111957  13.336  10.729   3.089  0.3517  0.4315 -1.5653
  246ccc    H3211958  13.266  10.946   3.046  0.8395 -1.9730  1.2884
  246ccc    O1011959  13.097  10.997   2.950  0.4346  0.2885  0.6023
  246ccc    O1111960  13.257  10.538   3.028 -0.1432 -0.1149 -0.0708
  246ccc    C2211961  13.470  10.880   2.708 -0.5850 -0.6098  0.2698
  246ccc    H3311962  13.294  10.521   3.116 -1.5556  0.3785  0.6581
  246ccc    H3411963  12.994  10.674   3.086 -0.0559  0.4708 -0.1271
  246ccc    H3511964  13.392  10.897   2.632 -0.0123  0.8330 -0.0231
  246ccc    H3611965  13.521  10.786   2.683 -0.0585 -0.0193 -0.9635
  246ccc    O1211966  13.552  11.001   2.707 -0.0439 -0.3813  0.1087
  246ccc    H3711967  13.503  11.072   2.752  2.2413  1.4841 -0.1425
  246ccc    O1311968  13.285  10.927   2.847 -0.0936  0.3289 -0.1330
  246ccc    H3811969  13.072  11.040   3.034 -0.2455 -1.0112  1.0970
  246ccc    H3911970  13.332  10.647   2.798  3.2430 -0.3272 -1.4907
  246ccc     O511971  13.497  10.637   2.918 -0.0889  0.0302  0.0567
  246ccc    H4011972  13.473  10.544   2.928 -0.8426 -0.3108 -3.4471
  246ccc     N411973  13.075  10.734   3.103  0.1575  0.1364  0.0483
  247ccc     N111974  13.752  10.123   3.503  0.5009 -0.3132  0.2116
  247ccc     H411975  13.726  10.026   3.486  0.3481  0.0133 -1.6417
  247ccc     C311976  13.821  10.181   3.388  0.0837 -0.2173 -0.0521
  247ccc     H511977  13.885  10.269   3.406 -0.3883  0.5641 -2.0111
  247ccc     C411978  13.726  10.234   3.283  0.2697  0.1771  0.2264
  247ccc     H611979  13.884  10.113   3.330  0.6488 -0.3164  0.6579
  247ccc     H711980  13.777  10.306   3.218  1.1461 -0.8325 -0.2551
  247ccc     H811981  13.643  10.288   3.331  0.9715  0.2555  1.4026
  247ccc     N211982  13.651  10.135   3.202  0.1320  0.1831  0.7580
  247ccc     C511983  13.540  10.079   3.279  0.4756  0.3031 -0.0416
  247ccc     C611984  13.731  10.043   3.119  0.1982 -0.0610  0.1167
  247ccc     H911985  13.806   9.992   3.182 -0.4976  1.5771  2.4440
  247ccc     C711986  13.798  10.125   3.016 -0.8151 -0.3368 -0.2150
  247ccc    H1011987  13.664   9.970   3.073  1.2606 -1.6171  0.9458
  247ccc    H1111988  13.890  10.159   3.066 -1.0786  1.7787 -1.0341
  247ccc    H1211989  13.741  10.212   2.981  2.0121  0.9235 -2.0799
  247ccc     C811990  13.829  10.042   2.897  0.4256 -0.1481 -0.1106
  247ccc     O211991  13.755   9.957   2.849 -0.8459 -0.6851 -0.5595
  247ccc    H1311992  13.505  10.151   3.354  2.2953  0.9625  0.2343
  247ccc    H1411993  13.574   9.984   3.322  0.5253 -1.7425 -4.0884
  247ccc     C911994  13.411  10.064   3.199 -0.0725 -0.3501 -0.0969
  247ccc    H1511995  13.420  10.017   3.100 -1.1169  2.6278 -1.7603
  247ccc    H1611996  13.366  10.162   3.175 -0.1155 -0.1804  0.6633
  247ccc    C1011997  13.312   9.989   3.283 -0.0952  0.1183  0.3728
  247ccc     O411998  13.337   9.910   3.368 -0.7870 -0.4615  0.5049
  247ccc    C1111999  14.123  10.019   2.464  0.0657 -0.8260 -0.2277
  247ccc    C1212000  14.199   9.940   2.575 -0.0415 -0.0716  0.2179
  247ccc    H1712001  14.140  10.127   2.473  0.4647 -0.7432 -1.7697
  247ccc    C1312002  14.151   9.981   2.717 -0.4404 -0.0159  0.2558
  247ccc    C1412003  13.995   9.981   2.731 -0.4293  0.4344 -0.2244
  247ccc    C1512004  13.926  10.026   2.600 -1.1868 -0.2390 -0.3703
  247ccc    H1812005  13.961   9.878   2.744  0.3231  0.3589  1.3525
  247ccc    H1912006  14.183  10.086   2.725 -0.4204  0.1076 -1.1712
  247ccc    H2012007  13.926  10.135   2.591  1.3710 -0.0840  0.6449
  247ccc     O112008  13.792   9.990   2.603 -0.0781 -0.2754 -0.8494
  247ccc     O612009  14.208   9.888   2.809 -0.3875  0.0388 -0.1682
  247ccc    C1612010  14.170   9.972   2.324 -0.8670  0.5775 -0.3340
  247ccc    H2112011  14.258   9.943   2.872 -0.5660 -0.3600  0.3233
  247ccc    H2212012  13.997  10.154   2.847 -0.2547  0.2530 -0.2447
  247ccc    H2312013  14.165   9.863   2.325 -3.1125  0.6381  0.2591
  247ccc    H2412014  14.274  10.001   2.305 -0.4304  1.0401  2.3516
  247ccc     O712015  14.084  10.023   2.230  0.5330 -0.0823 -0.4698
  247ccc    H2512016  14.007   9.963   2.229  0.5929 -0.1637 -0.1374
  247ccc     O812017  13.987   9.983   2.478 -0.1242  0.4466 -0.3314
  247ccc    H2612018  13.769   9.969   2.695 -1.9372 -0.8560 -1.4088
  247ccc    H2712019  14.177   9.833   2.563  2.4127 -0.9144  2.3376
  247ccc     O912020  14.340   9.961   2.569  0.0866  0.3099  0.2818
  247ccc    H2812021  14.388   9.901   2.629 -0.7647 -1.4750 -0.7273
  247ccc     N312022  13.949  10.065   2.843  0.5884 -0.1828 -1.0063
  247ccc    C1712023  12.944   9.892   2.914  0.7512  0.6239 -0.0578
  247ccc    C1812024  12.943  10.041   2.955 -0.5198 -0.0357  0.0453
  247ccc    H2912025  12.870   9.844   2.979  0.7911 -1.2648 -1.3361
  247ccc    C1912026  12.997  10.049   3.096 -0.0342 -0.1667  0.3035
  247ccc    C2012027  13.133   9.980   3.111 -0.2151  0.0154 -0.2989
  247ccc    C2112028  13.114   9.831   3.083  0.0078  0.3531 -0.0627
  247ccc    H3012029  13.208  10.024   3.044  0.9290 -1.6023 -0.1597
  247ccc    H3112030  12.917  10.019   3.165 -2.6991  2.7733 -1.2802
  247ccc    H3212031  13.042   9.784   3.151  0.2664 -0.7607 -0.5331
  247ccc    O1012032  13.236   9.763   3.086 -0.1601 -0.1960  0.3527
  247ccc    O1112033  13.022  10.185   3.131  0.5525 -0.2123 -0.3605
  247ccc    C2212034  12.917   9.871   2.762 -0.1982 -0.2437  1.1488
  247ccc    H3312035  13.056  10.191   3.222  2.1807  0.1573 -0.9567
  247ccc    H3412036  13.120   9.965   3.313  0.1563 -0.7052  0.1128
  247ccc    H3512037  12.824   9.923   2.737 -0.2478 -0.1306  1.5620
  247ccc    H3612038  12.910   9.764   2.737  1.3476 -0.1327  0.0907
  247ccc    O1212039  13.028   9.915   2.684 -0.5496  0.2676 -0.3912
  247ccc    H3712040  13.102   9.856   2.706 -1.9718 -1.0973  1.0006
  247ccc    O1312041  13.074   9.826   2.942 -1.0095  0.2993  0.4576
  247ccc    H3812042  13.227   9.716   3.001 -1.8081  1.0042 -0.1970
  247ccc    H3912043  13.007  10.096   2.885 -2.5586  0.5422 -1.4804
  247ccc     O512044  12.810  10.088   2.931 -0.5397 -0.6572 -0.2658
  247ccc    H4012045  12.820  10.174   2.886  0.2492 -0.5792  0.0359
  247ccc     N412046  13.185  10.009   3.248 -0.5290  0.4970  0.2172
  248ccc     N112047  12.836   8.853   3.144 -0.4652  0.1512  0.3392
  248ccc     H412048  12.921   8.798   3.151  0.9764  2.1891 -0.1599
  248ccc     C312049  12.752   8.810   3.030 -0.9434  0.1376  0.5068
  248ccc     H512050  12.763   8.889   2.954  1.4622 -0.1861  0.4535
  248ccc     C412051  12.604   8.795   3.063  0.4182 -0.2600 -0.1393
  248ccc     H612052  12.794   8.719   2.986  1.5577  1.6376 -0.4037
  248ccc     H712053  12.556   8.892   3.077  0.7797 -0.1101  0.0847
  248ccc     H812054  12.599   8.743   3.159  2.1362  2.3560  1.5011
  248ccc     N212055  12.529   8.716   2.963 -0.2750  0.1029  0.0927
  248ccc     C512056  12.393   8.678   3.010  0.0869 -0.3235  0.3823
  248ccc     C612057  12.535   8.775   2.827 -0.1338  0.4460  0.2009
  248ccc     H912058  12.472   8.865   2.832 -1.0073 -0.1542  0.1674
  248ccc     C712059  12.495   8.675   2.719  0.1288 -0.8390  0.2447
  248ccc    H1012060  12.636   8.815   2.806 -0.7529  1.7239 -0.4968
  248ccc    H1112061  12.387   8.659   2.714 -0.0550 -0.2775  1.9145
  248ccc    H1212062  12.548   8.579   2.731 -0.5037 -1.1555  0.6151
  248ccc     C812063  12.527   8.736   2.593 -0.7014  0.2956 -0.5682
  248ccc     O212064  12.637   8.722   2.540  0.2913 -0.2459 -0.1679
  248ccc    H1312065  12.346   8.638   2.920  4.2339 -1.0493 -1.6836
  248ccc    H1412066  12.344   8.768   3.050 -2.6353 -1.6989  0.3571
  248ccc     C912067  12.386   8.559   3.110 -0.3943  0.0096  0.4780
  248ccc    H1512068  12.286   8.569   3.154 -1.2327 -0.0502 -1.2967
  248ccc    H1612069  12.451   8.574   3.197  0.8895  0.2454 -0.4910
  248ccc    C1012070  12.418   8.420   3.045 -0.3579 -1.4031 -0.0652
  248ccc     O412071  12.491   8.335   3.102  0.9667  0.0792  0.4893
  248ccc    C1112072  12.638   9.084   2.273 -0.6819  0.6250 -0.4992
  248ccc    C1212073  12.530   8.989   2.207  0.0384  1.1491  0.0286
  248ccc    H1712074  12.732   9.029   2.287 -1.5807 -0.2339  4.2584
  248ccc    C1312075  12.491   8.867   2.300 -0.6009 -0.4155  0.1412
  248ccc    C1412076  12.464   8.920   2.443  0.1320 -0.6040 -0.3253
  248ccc    C1512077  12.570   9.022   2.492 -0.2407  0.3818 -0.0193
  248ccc    H1812078  12.368   8.971   2.430  1.2286  1.2052 -1.9207
  248ccc    H1912079  12.579   8.803   2.317  0.4053  0.6185 -0.9559
  248ccc    H2012080  12.654   8.955   2.517 -2.2013 -1.5704  1.7433
  248ccc     O112081  12.524   9.092   2.598 -0.2459 -0.4195 -0.3556
  248ccc     O612082  12.393   8.781   2.263  0.1241 -0.2803  0.7378
  248ccc    C1612083  12.670   9.208   2.188  0.4016  0.7069  0.7016
  248ccc    H2112084  12.432   8.720   2.198  0.1411  0.9403 -0.4534
  248ccc    H2212085  12.352   8.839   2.600 -1.3997 -1.5119 -1.3097
  248ccc    H2312086  12.581   9.271   2.188  0.0220  0.2011 -0.8908
  248ccc    H2412087  12.680   9.173   2.085  0.4472 -0.5418  1.1120
  248ccc     O712088  12.788   9.273   2.230  0.2291  0.5893 -0.4632
  248ccc    H2512089  12.824   9.300   2.144 -0.7167  1.8575 -0.4880
  248ccc     O812090  12.594   9.127   2.402 -0.4180 -0.5159  0.4763
  248ccc    H2612091  12.574   9.175   2.588 -0.7216  0.0364  0.8180
  248ccc    H2712092  12.438   9.047   2.196 -0.9525 -0.5568 -0.8919
  248ccc     O912093  12.575   8.931   2.087 -1.1748 -0.9335  0.3792
  248ccc    H2812094  12.497   8.889   2.048 -2.6846 -0.2907  2.5522
  248ccc     N312095  12.436   8.820   2.546 -0.2614  0.1657 -0.2252
  248ccc    C1712096  12.242   7.984   2.948  0.7702 -0.0720 -0.6863
  248ccc    C1812097  12.129   8.088   2.959  0.9294  0.0472  0.6061
  248ccc    H2912098  12.288   7.975   3.047  0.1274  1.3039 -0.2395
  248ccc    C1912099  12.177   8.227   2.987 -0.0989 -0.5218  0.2137
  248ccc    C2012100  12.292   8.274   2.896 -0.0020  0.4560 -1.0968
  248ccc    C2112101  12.402   8.160   2.882  0.3397 -0.5633 -0.8485
  248ccc    H3012102  12.250   8.287   2.795 -2.0817  1.8482 -0.1407
  248ccc    H3112103  12.206   8.212   3.092 -1.0939 -3.0049  0.2088
  248ccc    H3212104  12.465   8.154   2.972  1.9376  1.6081 -1.7269
  248ccc    O1012105  12.481   8.180   2.772 -0.0715 -0.0436  0.7704
  248ccc    O1112106  12.076   8.324   2.975  0.2770 -0.5690 -0.1515
  248ccc    C2212107  12.197   7.845   2.912  0.0755 -0.0914 -0.0836
  248ccc    H3312108  12.096   8.412   3.011 -1.4565 -0.2830  0.2092
  248ccc    H3412109  12.280   8.470   2.903  1.6443  1.4116  0.0767
  248ccc    H3512110  12.101   7.828   2.962 -0.9391 -0.6333 -2.0929
  248ccc    H3612111  12.270   7.775   2.957  0.4049  1.3371  1.7094
  248ccc    O1212112  12.187   7.825   2.768  1.0068 -0.3251  0.2624
  248ccc    H3712113  12.279   7.808   2.741  1.1526  2.2625 -1.2097
  248ccc    O1312114  12.339   8.033   2.857 -0.0263  0.1144  0.2051
  248ccc    H3812115  12.426   8.142   2.701 -0.7684  2.2731 -0.0308
  248ccc    H3912116  12.076   8.099   2.863 -0.3568  1.7050  1.4560
  248ccc     O512117  12.031   8.041   3.056  0.3246 -0.1032 -0.4166
  248ccc    H4012118  11.944   8.075   3.029  0.1803  0.4993  0.7763
  248ccc     N412119  12.346   8.401   2.936  0.9263  0.8227  0.3169
  249ccc     N112120  13.493   8.717   3.448  0.8217 -1.0443  0.3870
  249ccc     H412121  13.520   8.775   3.526 -2.6927  0.7105  0.4891
  249ccc     C312122  13.589   8.691   3.343 -0.3160 -0.2724  0.1262
  249ccc     H512123  13.678   8.638   3.380  2.3889  2.5114 -1.7846
  249ccc     C412124  13.662   8.817   3.280  0.0651  0.0284 -0.1554
  249ccc     H612125  13.545   8.636   3.259  1.2025  1.6106 -2.0835
  249ccc     H712126  13.734   8.773   3.210 -3.2999 -2.2815 -2.4908
  249ccc     H812127  13.716   8.874   3.356 -2.9905  0.8671  1.5298
  249ccc     N212128  13.570   8.902   3.204 -0.1705 -0.9446 -0.4376
  249ccc     C512129  13.580   9.042   3.247 -0.0805  0.5045 -0.3264
  249ccc     C612130  13.584   8.890   3.055  0.2416  0.4191 -0.0430
  249ccc     H912131  13.525   8.969   3.007 -2.4066 -0.8648  0.9349
  249ccc     C712132  13.532   8.748   3.021 -0.0259 -0.6986  0.0452
  249ccc    H1012133  13.692   8.899   3.038  0.4327  0.9564  1.3079
  249ccc    H1112134  13.427   8.757   3.053 -0.0558  0.1218 -0.2570
  249ccc    H1212135  13.580   8.662   3.069  1.1072 -0.1130 -0.0120
  249ccc     C812136  13.538   8.731   2.868 -0.0350  0.1122 -0.0353
  249ccc     O212137  13.581   8.813   2.789  0.2471  0.2524 -0.1362
  249ccc    H1312138  13.657   9.092   3.188  2.1826 -0.1556  1.8866
  249ccc    H1412139  13.607   9.050   3.353 -0.7411  0.7277 -0.1692
  249ccc     C912140  13.446   9.111   3.231 -0.0373  0.5891  0.2226
  249ccc    H1512141  13.378   9.066   3.303  0.4556 -1.2705 -0.4124
  249ccc    H1612142  13.409   9.106   3.128 -0.2776  0.4351  0.3162
  249ccc    C1012143  13.454   9.259   3.251 -0.3949  0.1994 -0.5169
  249ccc     O412144  13.566   9.311   3.269 -0.0306  0.2553 -0.4180
  249ccc    C1112145  13.514   8.354   2.500 -0.4067 -0.0811 -0.2451
  249ccc    C1212146  13.387   8.435   2.503 -0.2724  0.1659  0.3176
  249ccc    H1712147  13.497   8.263   2.559 -2.6723  0.3988 -0.0619
  249ccc    C1312148  13.363   8.488   2.647  0.0602  0.3431  0.1735
  249ccc    C1412149  13.494   8.564   2.693  0.0190 -0.1124 -0.0040
  249ccc    C1512150  13.603   8.452   2.694  0.1433 -0.3657 -0.0399
  249ccc    H1812151  13.526   8.628   2.610  1.6642 -3.0264 -1.7918
  249ccc    H1912152  13.333   8.408   2.716 -1.8148  1.1835  0.3936
  249ccc    H2012153  13.584   8.362   2.753  1.6028 -1.0404 -0.5327
  249ccc     O112154  13.728   8.502   2.737 -0.1170  0.5278 -0.2090
  249ccc     O612155  13.261   8.583   2.656  0.1029  0.6912  0.1596
  249ccc    C1612156  13.549   8.301   2.362  0.5199 -0.4165  0.1672
  249ccc    H2112157  13.245   8.620   2.745  0.0172  0.4322  0.2539
  249ccc    H2212158  13.447   8.545   2.890 -1.3804  1.3531  1.0309
  249ccc    H2312159  13.462   8.241   2.333  1.4737 -0.7585 -2.2184
  249ccc    H2412160  13.632   8.230   2.376  0.3227 -0.9906 -1.3388
  249ccc     O712161  13.571   8.403   2.268  0.2042  0.1284 -0.6655
  249ccc    H2512162  13.663   8.431   2.282  0.4961 -0.1266 -1.9350
  249ccc     O812163  13.629   8.429   2.558 -0.2822  0.5752 -0.0585
  249ccc    H2612164  13.795   8.434   2.721  0.4474  0.6423  1.4511
  249ccc    H2712165  13.397   8.524   2.441 -1.0742 -1.1073 -1.7437
  249ccc     O912166  13.270   8.367   2.466  0.8140 -0.1924 -0.5918
  249ccc    H2812167  13.241   8.301   2.530 -2.8106  0.5858 -1.2349
  249ccc     N312168  13.472   8.622   2.828  0.6920  0.0812  0.1957
  249ccc    C1712169  12.972   9.399   3.386  0.0911  0.1124  0.9010
  249ccc    C1812170  12.984   9.411   3.235  0.4607  0.0355  0.0910
  249ccc    H2912171  13.012   9.493   3.426 -0.7830  1.2863 -0.8569
  249ccc    C1912172  13.128   9.423   3.187  0.3609 -0.5609  0.1921
  249ccc    C2012173  13.216   9.317   3.255  0.0415  0.5413 -0.0971
  249ccc    C2112174  13.186   9.294   3.407 -0.1092 -0.5051 -0.0748
  249ccc    H3012175  13.183   9.224   3.207  0.9569  1.0841 -1.8865
  249ccc    H3112176  13.167   9.523   3.212 -1.2315 -0.3231  1.9435
  249ccc    H3212177  13.215   9.382   3.464 -2.0223 -1.7158  3.0010
  249ccc    O1012178  13.242   9.177   3.457  0.1764 -0.1495 -0.5872
  249ccc    O1112179  13.130   9.409   3.050  0.8572 -0.6098  0.5792
  249ccc    C2212180  12.826   9.375   3.434  0.1052 -0.1001  0.6075
  249ccc    H3312181  13.049   9.445   3.009  0.6863 -2.0336 -0.4231
  249ccc    H3412182  13.377   9.447   3.228  2.3460 -0.1644  1.5753
  249ccc    H3512183  12.779   9.314   3.356 -0.3942  0.4650  0.4608
  249ccc    H3612184  12.766   9.467   3.432 -1.8872 -1.3435  0.4553
  249ccc    O1212185  12.818   9.322   3.564 -0.3024 -0.5223 -0.0989
  249ccc    H3712186  12.726   9.323   3.594 -0.3560 -0.6686 -0.2539
  249ccc    O1312187  13.044   9.282   3.424 -0.3534  0.3660 -0.1999
  249ccc    H3812188  13.169   9.113   3.453  1.0145 -1.1024 -0.9776
  249ccc    H3912189  12.948   9.315   3.195 -1.2151 -0.8316  3.3152
  249ccc     O512190  12.904   9.527   3.189 -0.2590 -0.0388 -0.4980
  249ccc    H4012191  12.917   9.527   3.092  1.8994  1.9093 -0.2912
  249ccc     N412192  13.359   9.347   3.227 -0.2796  0.2290  0.1516
  250ccc     N112193  12.276  11.405   2.565  0.4550  0.1964 -0.5936
  250ccc     H412194  12.373  11.376   2.552  0.3448 -0.4607 -0.0302
  250ccc     C312195  12.191  11.436   2.455  0.1491 -0.1879 -0.5161
  250ccc     H512196  12.116  11.356   2.455  1.1530 -1.1530 -0.6252
  250ccc     C412197  12.265  11.445   2.326 -0.0233 -0.0668 -0.0541
  250ccc     H612198  12.134  11.529   2.467  0.6073  0.4565 -2.8794
  250ccc     H712199  12.317  11.348   2.333  0.1110 -0.1458 -1.7807
  250ccc     H812200  12.342  11.523   2.324  1.7892 -1.7727 -1.2556
  250ccc     N212201  12.177  11.434   2.210 -0.1598  0.1880  0.0536
  250ccc     C512202  12.080  11.540   2.190  0.1893  0.1844 -0.3548
  250ccc     C612203  12.120  11.295   2.180  1.0295 -0.6764 -0.0354
  250ccc     H912204  12.193  11.214   2.193 -0.8035 -2.3156  0.4061
  250ccc     C712205  12.048  11.286   2.045  0.6071  0.1982 -0.2884
  250ccc    H1012206  12.050  11.278   2.262  1.6378 -2.8998  0.0907
  250ccc    H1112207  12.096  11.340   1.962 -1.7754  2.1465 -0.5233
  250ccc    H1212208  11.946  11.326   2.056 -0.6029 -1.9508 -2.6828
  250ccc     C812209  12.022  11.146   2.007 -0.7436 -0.3964 -0.3463
  250ccc     O212210  11.994  11.053   2.081  0.3780 -0.6065 -0.3635
  250ccc    H1312211  12.021  11.566   2.279 -0.1379  0.1397 -0.5542
  250ccc    H1412212  12.014  11.509   2.108  0.2182 -1.5515  0.2529
  250ccc     C912213  12.157  11.668   2.154 -0.0270  0.1607 -0.9694
  250ccc    H1512214  12.217  11.645   2.065  1.0633 -1.3599  0.1060
  250ccc    H1612215  12.230  11.695   2.232  2.3723 -3.5759 -1.6734
  250ccc    C1012216  12.064  11.781   2.120 -0.2396 -0.3848  0.2164
  250ccc     O412217  11.944  11.768   2.111  0.1104  0.3198 -0.0642
  250ccc    C1112218  11.928  10.717   1.745 -0.1419  0.5384 -0.6355
  250ccc    C1212219  11.841  10.834   1.697  0.4907  0.0544  0.0189
  250ccc    H1712220  11.891  10.681   1.843  0.7390  1.4500  0.0495
  250ccc    C1312221  11.847  10.958   1.793  0.0841  0.1761 -0.5470
  250ccc    C1412222  11.994  11.003   1.806  0.2657  0.1894  0.1992
  250ccc    C1512223  12.075  10.877   1.854  0.7709  0.2747 -0.3110
  250ccc    H1812224  12.029  11.025   1.704  1.5681 -0.8163  0.4086
  250ccc    H1912225  11.808  10.917   1.888 -2.0465  1.1263 -0.9424
  250ccc    H2012226  12.050  10.843   1.955  0.0549  0.7303 -0.3301
  250ccc     O112227  12.216  10.902   1.847  0.5430 -0.0754  0.4650
  250ccc     O612228  11.772  11.065   1.747  0.8058 -0.6038 -0.7885
  250ccc    C1612229  11.954  10.591   1.656  0.1003 -0.9165  0.0849
  250ccc    H2112230  11.723  11.111   1.818  0.1913  1.3061 -2.3353
  250ccc    H2212231  11.987  11.201   1.817 -0.3760 -0.8014 -0.9724
  250ccc    H2312232  11.858  10.542   1.639 -1.2504  1.3910  0.7040
  250ccc    H2412233  12.021  10.527   1.715 -1.5891 -1.8233  1.1039
  250ccc     O712234  12.006  10.630   1.533 -0.3064 -0.6200 -0.4590
  250ccc    H2512235  12.103  10.621   1.530 -0.3148 -0.6302 -0.7075
  250ccc     O812236  12.057  10.770   1.769  0.1780  0.5108  0.2679
  250ccc    H2612237  12.255  10.813   1.856 -0.8744 -0.9204 -1.0472
  250ccc    H2712238  11.877  10.866   1.599 -0.0322  3.8576  0.9270
  250ccc     O912239  11.701  10.801   1.694  0.5462 -0.5545  0.9083
  250ccc    H2812240  11.666  10.879   1.646  0.1415 -0.1203  1.8872
  250ccc     N312241  12.027  11.127   1.874 -0.1452 -0.1068 -0.2168
  250ccc    C1712242  11.841  12.235   2.076 -0.8133  0.2732 -0.2469
  250ccc    C1812243  11.952  12.223   2.187 -0.3277  0.6229 -0.3192
  250ccc    H2912244  11.759  12.170   2.108  1.0146 -2.0959 -0.0940
  250ccc    C1912245  12.008  12.084   2.209 -0.2769  0.3476 -0.1091
  250ccc    C2012246  12.060  12.030   2.077 -0.2498  0.1346  0.3679
  250ccc    C2112247  11.949  12.045   1.967 -0.1025  0.4614  0.3379
  250ccc    H3012248  12.145  12.094   2.050  0.1135 -1.2347 -2.0138
  250ccc    H3112249  11.918  12.023   2.227 -1.0960  0.6628 -2.7132
  250ccc    H3212250  11.865  11.976   1.984  0.4819 -0.7667 -1.5053
  250ccc    O1012251  12.003  12.022   1.840  0.2025 -0.2088 -0.1181
  250ccc    O1112252  12.104  12.068   2.317 -0.0459  0.2928 -0.4484
  250ccc    C2212253  11.793  12.378   2.070  0.0204 -0.5981  0.1021
  250ccc    H3312254  12.172  12.137   2.303 -0.0521  0.3116 -0.3888
  250ccc    H3412255  12.220  11.910   2.134 -0.3553 -1.2524  0.3553
  250ccc    H3512256  11.877  12.440   2.035 -0.5117 -0.6272 -1.2917
  250ccc    H3612257  11.769  12.413   2.171  0.5034  0.3144 -0.0910
  250ccc    O1212258  11.685  12.403   1.973 -0.1702 -0.7570  0.0805
  250ccc    H3712259  11.678  12.500   1.963 -0.5412 -0.7796  0.1090
  250ccc    O1312260  11.902  12.181   1.954  1.0911 -0.0213 -0.3831
  250ccc    H3812261  11.929  12.001   1.781  1.0726 -1.9691 -0.6555
  250ccc    H3912262  12.043  12.282   2.167  0.1493  0.3242  0.9014
  250ccc     O512263  11.908  12.264   2.317  0.0328 -0.2407 -0.2577
  250ccc    H4012264  11.955  12.219   2.389 -0.0926 -0.6217 -0.4115
  250ccc     N412265  12.125  11.900   2.099 -0.4090  0.5500 -0.1570
  251ccc     N112266  12.188  11.034   3.401  0.0864 -0.0160 -0.7766
  251ccc     H412267  12.257  10.967   3.371  0.2141 -1.1779  1.8948
  251ccc     C312268  12.070  10.986   3.472  0.4162 -0.6823 -0.0028
  251ccc     H512269  12.080  10.886   3.515 -4.0284 -2.0191 -1.4408
  251ccc     C412270  11.946  10.981   3.376  0.3773  0.4977 -0.7962
  251ccc     H612271  12.042  11.058   3.550 -0.6917  0.4409 -1.3693
  251ccc     H712272  11.952  10.900   3.302  0.5832 -1.1993  0.9787
  251ccc     H812273  11.945  11.076   3.322 -0.8726 -0.0839 -1.8570
  251ccc     N212274  11.816  10.975   3.457 -0.2600  0.0149 -0.8722
  251ccc     C512275  11.713  11.050   3.394  0.1352  0.1858 -0.2819
  251ccc     C612276  11.789  10.835   3.486  0.8233  0.0344 -0.9930
  251ccc     H912277  11.781  10.771   3.398  0.1956 -0.7436 -0.3938
  251ccc     C712278  11.656  10.811   3.576  0.4833  0.7308  0.0892
  251ccc    H1012279  11.880  10.807   3.540 -0.0853 -3.2479 -0.9526
  251ccc    H1112280  11.601  10.835   3.484 -1.5761 -4.9662 -0.6209
  251ccc    H1212281  11.653  10.913   3.616  0.8448  0.3211  1.2031
  251ccc     C812282  11.585  10.622   3.730 -0.0338  0.4734  0.2835
  251ccc     O212283  11.651  10.528   3.787 -0.5285 -0.2879  0.0763
  251ccc    H1312284  11.614  11.030   3.438 -0.2520  0.0016 -1.2071
  251ccc    H1412285  11.713  11.049   3.284  1.1008 -1.1242 -0.2956
  251ccc     C912286  11.737  11.198   3.433 -0.2155 -0.2048 -0.2835
  251ccc    H1512287  11.840  11.232   3.445 -1.2584  3.9687 -1.5662
  251ccc    H1612288  11.688  11.209   3.530 -1.9228  0.2248 -1.1503
  251ccc    C1012289  11.667  11.297   3.337 -0.3279 -0.3381  1.0027
  251ccc     O412290  11.595  11.259   3.243  0.2448 -1.3630 -0.1220
  251ccc    C1112291  11.293  10.217   3.970 -0.1924  0.1793 -0.7188
  251ccc    C1212292  11.248  10.256   3.824 -0.3143 -0.1367 -0.5266
  251ccc    H1712293  11.220  10.266   4.036  1.3690  1.9179 -0.1789
  251ccc    C1312294  11.281  10.403   3.799 -0.0595 -0.0454  0.5072
  251ccc    C1412295  11.435  10.431   3.825  0.3558  0.2138  0.0498
  251ccc    C1512296  11.453  10.401   3.974  0.6980 -0.0561 -0.2307
  251ccc    H1812297  11.487  10.362   3.758  1.3605 -0.1660  1.1921
  251ccc    H1912298  11.222  10.463   3.869 -0.1442 -0.6456  0.9573
  251ccc    H2012299  11.398  10.472   4.038  1.9807 -0.5587  1.5108
  251ccc     O112300  11.595  10.424   4.013  0.6162 -0.0334  0.4084
  251ccc     O612301  11.245  10.441   3.658 -0.7340 -0.0437 -0.5980
  251ccc    C1612302  11.287  10.062   4.002 -0.0539 -0.4173  0.1838
  251ccc    H2112303  11.291  10.379   3.600  0.4325 -0.3425  0.5999
  251ccc    H2212304  11.380  10.623   3.760 -1.3467 -1.3414  1.8016
  251ccc    H2312305  11.182  10.029   4.003 -0.2272  0.0715  2.0371
  251ccc    H2412306  11.339  10.040   4.096  1.5154  0.2021 -0.5193
  251ccc     O712307  11.347   9.983   3.896 -0.0056 -0.1090 -0.4031
  251ccc    H2512308  11.284   9.909   3.890  0.4594 -0.7064  1.4925
  251ccc     O812309  11.430  10.266   3.997  0.1758 -0.3151  0.3257
  251ccc    H2612310  11.626  10.456   3.926 -2.0523  2.7834  0.3398
  251ccc    H2712311  11.298  10.191   3.751 -1.1240  0.1990 -1.3919
  251ccc     O912312  11.105  10.235   3.812  0.2166  0.1715 -0.1344
  251ccc    H2812313  11.083  10.253   3.719  0.1372 -0.5969 -0.2640
  251ccc     N312314  11.467  10.577   3.785 -0.1602 -0.2379 -0.0475
  251ccc    C1712315  12.001  11.696   3.438  0.0861 -0.3959  0.2434
  251ccc    C1812316  11.873  11.693   3.527 -0.1375  0.4383 -0.4692
  251ccc    H2912317  11.993  11.766   3.354  1.8486  0.5418  0.8079
  251ccc    C1912318  11.749  11.629   3.454 -0.0178 -0.1075 -0.0731
  251ccc    C2012319  11.799  11.492   3.405 -0.6486  0.3321 -0.0504
  251ccc    C2112320  11.923  11.504   3.313  0.0417 -0.4693  0.0937
  251ccc    H3012321  11.834  11.428   3.488  0.8831 -0.2639 -1.1101
  251ccc    H3112322  11.728  11.699   3.373 -1.3869  2.0849  2.0286
  251ccc    H3212323  11.909  11.570   3.226  0.3389 -1.6164 -0.8556
  251ccc    O1012324  11.967  11.380   3.257 -0.6467 -0.3848 -0.5567
  251ccc    O1112325  11.636  11.616   3.548  1.1850 -0.0551 -0.1647
  251ccc    C2212326  12.130  11.748   3.514 -0.1193 -1.2791  0.4344
  251ccc    H3312327  11.670  11.565   3.624  0.3717 -0.4807 -0.0803
  251ccc    H3412328  11.640  11.487   3.273 -0.4273 -0.1929 -0.0644
  251ccc    H3512329  12.164  11.670   3.584 -1.2035 -0.4906  1.8846
  251ccc    H3612330  12.104  11.821   3.591 -0.5503  0.0595 -0.9485
  251ccc    O1212331  12.223  11.804   3.415 -0.5367  0.1714  0.3500
  251ccc    H3712332  12.316  11.801   3.440  0.2004  3.1250 -1.4933
  251ccc    O1312333  12.028  11.558   3.390 -0.6432  0.4011  0.0110
  251ccc    H3812334  12.031  11.356   3.326 -0.4559 -1.2716 -1.0221
  251ccc    H3912335  11.901  11.637   3.618  0.4711 -0.3744 -1.1366
  251ccc     O512336  11.842  11.820   3.570  0.4309 -0.9157 -0.9227
  251ccc    H4012337  11.752  11.814   3.607  0.1963  1.2316 -0.9822
  251ccc     N412338  11.683  11.426   3.343 -0.7349 -0.3535 -0.0134
  252ccc     N112339  13.498   9.820   2.786 -0.1144  0.1560  0.2960
  252ccc     H412340  13.566   9.862   2.848  1.1769 -0.5981 -0.5612
  252ccc     C312341  13.527   9.701   2.698 -0.8636  0.3351 -0.7295
  252ccc     H512342  13.439   9.640   2.675 -0.7606 -0.7428  1.4469
  252ccc     C412343  13.644   9.619   2.756  0.0381  0.3983  0.0690
  252ccc     H612344  13.561   9.739   2.601  0.9474  1.2016  0.1884
  252ccc     H712345  13.713   9.697   2.790 -1.1330  1.7681 -0.5681
  252ccc     H812346  13.688   9.560   2.675 -3.3156 -2.1695 -0.0803
  252ccc     N212347  13.596   9.532   2.866  0.2032  0.3082 -0.1112
  252ccc     C512348  13.558   9.405   2.807 -0.1792  0.5837 -0.0049
  252ccc     C612349  13.694   9.519   2.972  0.2658 -0.0089  0.2927
  252ccc     H912350  13.655   9.445   3.042 -0.1364 -1.3248 -1.2552
  252ccc     C712351  13.710   9.647   3.059 -0.9392  0.0680  0.2457
  252ccc    H1012352  13.788   9.472   2.941 -0.3483 -2.6187  2.0413
  252ccc    H1112353  13.608   9.676   3.085 -1.4060 -1.9149  0.8414
  252ccc    H1212354  13.761   9.725   3.002 -1.7144 -0.1330 -0.7487
  252ccc     C812355  13.785   9.624   3.188 -0.1952  0.4760 -0.4915
  252ccc     O212356  13.909   9.631   3.205  0.1229  0.3457  0.7518
  252ccc    H1312357  13.647   9.355   2.765  1.0696  2.6012  0.1105
  252ccc    H1412358  13.482   9.426   2.731  1.6848  0.3058 -2.0723
  252ccc     C912359  13.489   9.318   2.913  0.7588 -0.8053 -0.3277
  252ccc    H1512360  13.417   9.378   2.970  2.5038  0.8053  0.2805
  252ccc    H1612361  13.563   9.275   2.981  0.9959  0.6616  0.3726
  252ccc    C1012362  13.406   9.211   2.851  0.1909  0.0558 -0.1800
  252ccc     O412363  13.459   9.124   2.786 -0.2322  0.4425  0.1101
  252ccc    C1112364  13.653   9.699   3.702 -0.2295  0.0379  0.0170
  252ccc    C1212365  13.688   9.549   3.666  0.2253  0.3004  0.2997
  252ccc    H1712366  13.546   9.717   3.687  0.1770  2.8629 -0.0110
  252ccc    C1312367  13.664   9.509   3.519 -0.3993 -0.4767 -0.5282
  252ccc    C1412368  13.745   9.610   3.431 -0.3642 -0.1230  0.3321
  252ccc    C1512369  13.713   9.756   3.466 -1.4263 -0.3219 -0.1822
  252ccc    H1812370  13.852   9.596   3.447 -0.1788  0.5657 -0.2510
  252ccc    H1912371  13.557   9.535   3.510 -0.3089  2.3589  3.7240
  252ccc    H2012372  13.615   9.790   3.430 -1.0628  2.1805  0.9985
  252ccc     O112373  13.807   9.847   3.404  0.4375 -0.4749  0.0280
  252ccc     O612374  13.697   9.383   3.488  0.0537 -0.4775 -0.2168
  252ccc    C1612375  13.690   9.732   3.847 -0.3454 -0.1107 -0.1526
  252ccc    H2112376  13.637   9.364   3.414  0.6793  1.3513 -1.2383
  252ccc    H2212377  13.608   9.575   3.272 -0.3783  2.3930 -0.0177
  252ccc    H2312378  13.798   9.739   3.864 -0.1942  2.7990 -1.7206
  252ccc    H2412379  13.664   9.647   3.912  0.4099  0.0191  0.3341
  252ccc     O712380  13.629   9.847   3.909  0.2148  0.0819 -0.0719
  252ccc    H2512381  13.674   9.923   3.870 -0.9586  1.2214  0.7266
  252ccc     O812382  13.726   9.783   3.611 -0.1851  0.3738 -0.0953
  252ccc    H2612383  13.891   9.832   3.450  0.0483 -0.6648  0.6924
  252ccc    H2712384  13.792   9.521   3.685  0.7567  0.5324 -1.9756
  252ccc     O912385  13.606   9.462   3.746  0.0774  0.3986 -0.0647
  252ccc    H2812386  13.670   9.415   3.803 -0.6020  0.1617  0.5246
  252ccc     N312387  13.707   9.587   3.291 -0.1249  0.0984  0.4759
  252ccc    C1712388  13.083   8.868   2.721 -0.3461 -0.0525  0.2101
  252ccc    C1812389  13.102   8.865   2.878  0.7538  0.6208 -0.1714
  252ccc    H2912390  13.177   8.842   2.670 -1.2772  0.2639 -1.7562
  252ccc    C1912391  13.212   8.959   2.915  0.0616 -0.0455  0.5908
  252ccc    C2012392  13.178   9.098   2.861 -0.0901 -0.3001  0.3904
  252ccc    C2112393  13.148   9.100   2.712 -0.3410 -0.6759  0.1740
  252ccc    H3012394  13.085   9.123   2.912  0.2073 -1.9266  1.8364
  252ccc    H3112395  13.304   8.925   2.865  0.1802  2.2950 -1.0019
  252ccc    H3212396  13.237   9.081   2.650 -0.3326  0.0557 -0.0538
  252ccc    O1012397  13.085   9.222   2.676  0.0617 -0.0813 -0.0071
  252ccc    O1112398  13.230   8.960   3.058 -0.5967  0.1338  0.1973
  252ccc    C2212399  12.972   8.783   2.669  0.2780  0.5690 -0.1057
  252ccc    H3312400  13.325   8.958   3.079 -0.3471  1.6086 -0.6638
  252ccc    H3412401  13.234   9.272   2.948 -1.2295 -1.1767  1.0093
  252ccc    H3512402  12.991   8.684   2.711 -3.3478 -0.9110 -1.6325
  252ccc    H3612403  12.984   8.789   2.560  1.2197 -1.3404 -0.1460
  252ccc    O1212404  12.841   8.826   2.704  0.8876 -0.0091  0.5474
  252ccc    H3712405  12.779   8.771   2.654  0.5838  0.8938 -0.0784
  252ccc    O1312406  13.046   9.003   2.685  0.4823  0.6301  0.1455
  252ccc    H3812407  13.049   9.206   2.587 -1.5092 -1.3083  0.8024
  252ccc    H3912408  13.014   8.873   2.943  2.1381 -0.8320  2.0099
  252ccc     O512409  13.146   8.731   2.904 -0.1979  0.3466 -0.2992
  252ccc    H4012410  13.132   8.724   3.000 -1.1439  0.7416 -0.3933
  252ccc     N412411  13.279   9.201   2.892 -0.3659  0.3509 -0.3233
  253ccc     N112412  13.683  10.495   2.444 -0.3887  0.0424 -0.2730
  253ccc     H412413  13.590  10.498   2.406  0.0360 -2.7840 -1.8016
  253ccc     C312414  13.802  10.502   2.363  0.1122  0.7876  1.0028
  253ccc     H512415  13.794  10.588   2.296 -0.4437  0.3258  0.4594
  253ccc     C412416  13.831  10.367   2.282 -0.0894 -0.2600 -0.2470
  253ccc     H612417  13.885  10.527   2.431  3.4140 -0.5481 -2.1965
  253ccc     H712418  13.895  10.299   2.340  0.5606  1.9941  1.8098
  253ccc     H812419  13.897  10.395   2.198  1.5487  0.8124  1.3101
  253ccc     N212420  13.707  10.307   2.221 -0.1972 -0.0407 -0.1835
  253ccc     C512421  13.642  10.397   2.123 -0.4015  1.4625  0.0854
  253ccc     C612422  13.725  10.173   2.168 -0.5281 -0.1558 -0.4094
  253ccc     H912423  13.649  10.146   2.094  1.3310  0.1234 -2.5196
  253ccc     C712424  13.718  10.072   2.281  1.1262  0.2407  0.5031
  253ccc    H1012425  13.822  10.165   2.117  1.1552 -2.0429  2.7401
  253ccc    H1112426  13.617  10.080   2.324  0.9938  0.7100  0.1177
  253ccc    H1212427  13.791  10.103   2.357  0.2993  0.9108  1.0493
  253ccc     C812428  13.744   9.933   2.240  0.0566  0.8628  0.5566
  253ccc     O212429  13.845   9.904   2.182  0.4451 -0.2808  0.2412
  253ccc    H1312430  13.644  10.360   2.020 -0.1096  0.1668  0.5397
  253ccc    H1412431  13.690  10.496   2.129 -0.1299  1.2659  1.5646
  253ccc     C912432  13.499  10.415   2.160 -0.0538 -0.3916  0.7218
  253ccc    H1512433  13.484  10.427   2.268 -0.5201  1.6356  0.4684
  253ccc    H1612434  13.440  10.327   2.132 -0.9243  0.6996 -1.0543
  253ccc    C1012435  13.447  10.539   2.086  0.2683  0.9553 -0.3425
  253ccc     O412436  13.510  10.613   2.018  0.4856 -0.1647 -0.1773
  253ccc    C1112437  13.853   9.458   2.240  0.2617 -0.2304 -0.0368
  253ccc    C1212438  13.827   9.512   2.383  0.1379 -0.6987 -0.7881
  253ccc    H1712439  13.941   9.511   2.202  0.5670 -0.2679  0.6068
  253ccc    C1312440  13.802   9.665   2.376  0.2601  0.2356 -0.2397
  253ccc    C1412441  13.684   9.689   2.281  0.0291 -0.1769 -0.5184
  253ccc    C1512442  13.714   9.634   2.144 -0.3244 -0.4612 -0.1218
  253ccc    H1812443  13.598   9.637   2.326 -1.6903  0.4954 -2.8326
  253ccc    H1912444  13.888   9.715   2.330  1.2763 -1.0454  0.2118
  253ccc    H2012445  13.795   9.690   2.095  0.0322  0.1184  1.0853
  253ccc     O112446  13.597   9.642   2.065  0.1744  0.4269  0.2395
  253ccc     O612447  13.777   9.715   2.511 -0.5082  0.5477  0.0863
  253ccc    C1612448  13.862   9.301   2.226  0.2336  0.3075  0.3225
  253ccc    H2112449  13.800   9.809   2.500  2.8797 -0.1688 -0.0670
  253ccc    H2212450  13.567   9.857   2.319  0.4714 -0.2108  0.9037
  253ccc    H2312451  13.957   9.274   2.273  0.8207 -0.6120 -1.3232
  253ccc    H2412452  13.870   9.275   2.120 -1.9017  2.1158 -0.3873
  253ccc     O712453  13.749   9.232   2.284  0.5522  0.1516 -0.1774
  253ccc    H2512454  13.676   9.239   2.221  1.0172  0.2982 -0.7097
  253ccc     O812455  13.745   9.496   2.153  0.3172  0.1576  0.4687
  253ccc    H2612456  13.541   9.568   2.093 -1.0738  0.7113 -1.3230
  253ccc    H2712457  13.744   9.463   2.435 -0.4180 -1.4042 -2.2973
  253ccc     O912458  13.941   9.491   2.460 -0.4474  0.4931  0.6151
  253ccc    H2812459  13.947   9.525   2.551 -1.1456  1.3348  0.3583
  253ccc     N312460  13.657   9.836   2.277 -0.2085  0.0137 -0.7511
  253ccc    C1712461  13.070  10.731   2.403 -0.9094 -0.1064 -0.0105
  253ccc    C1812462  13.013  10.608   2.321 -0.1006 -0.2846  0.4131
  253ccc    H2912463  13.045  10.818   2.341 -1.6429  0.0300  0.4541
  253ccc    C1912464  13.088  10.587   2.192 -0.3597 -0.6808 -0.3319
  253ccc    C2012465  13.244  10.587   2.219 -0.9476 -0.8719  0.3251
  253ccc    C2112466  13.285  10.724   2.285 -0.1443  0.5302  0.7828
  253ccc    H3012467  13.279  10.510   2.288  0.2754  1.0113  1.8994
  253ccc    H3112468  13.054  10.667   2.125 -1.8482  0.1432  1.3220
  253ccc    H3212469  13.255  10.803   2.215 -3.0612 -1.7155 -0.6952
  253ccc    O1012470  13.421  10.729   2.319 -0.0826  0.0589  0.8534
  253ccc    O1112471  13.048  10.471   2.134  0.3720  0.3517  0.0814
  253ccc    C2212472  13.021  10.745   2.549 -0.1438  0.5786 -0.2463
  253ccc    H3312473  13.079  10.458   2.043 -2.8472 -1.1301 -0.9709
  253ccc    H3412474  13.286  10.636   2.029 -0.2179 -0.7788 -2.4689
  253ccc    H3512475  12.912  10.746   2.560  0.0747  1.1604  2.7776
  253ccc    H3612476  13.052  10.843   2.589 -0.2252 -0.6987  3.2957
  253ccc    O1212477  13.082  10.640   2.628  0.3201 -0.4461  0.2874
  253ccc    H3712478  13.171  10.643   2.589 -0.1319  1.1151 -0.7241
  253ccc    O1312479  13.220  10.735   2.409  0.1925  0.0162  0.5209
  253ccc    H3812480  13.433  10.823   2.345 -2.0090  0.1009  1.7430
  253ccc    H3912481  13.029  10.515   2.377  0.4707 -0.6466 -0.3427
  253ccc     O512482  12.871  10.634   2.302  0.9261 -0.4142  0.3694
  253ccc    H4012483  12.828  10.562   2.254 -0.5205  0.8323 -0.3012
  253ccc     N412484  13.316  10.561   2.090 -0.0411  0.9064 -0.3464
  254SOL     OW12485   5.466   2.807   1.746 -0.1058 -0.2275  0.1706
  254SOL    HW112486   5.532   2.759   1.795 -0.8758 -0.6870  0.7764
  254SOL    HW212487   5.503   2.815   1.658  0.2948 -1.3955  0.2172
  255SOL     OW12488   3.781  11.768   1.692 -0.0849 -0.0094 -0.1492
  255SOL    HW112489   3.797  11.786   1.599  2.2271 -1.3453 -0.0703
  255SOL    HW212490   3.687  11.751   1.697 -0.1897 -0.3202 -2.3089
  256SOL     OW12491   6.596   3.629   5.945  0.2489  0.0739  0.4333
  256SOL    HW112492   6.630   3.563   6.005 -1.6736  0.0423  1.5721
  256SOL    HW212493   6.501   3.627   5.958 -0.1429  0.8415 -1.8441
  257SOL     OW12494   7.559  10.779   8.521  1.0420 -0.2787  0.0929
  257SOL    HW112495   7.653  10.790   8.531  0.8283  1.0185  0.9057
  257SOL    HW212496   7.535  10.836   8.448  0.5235  1.6112  1.6597
  258SOL     OW12497   3.774   1.793   6.800 -0.4497  0.2760  0.4416
  258SOL    HW112498   3.854   1.748   6.826 -1.0259 -1.2202 -0.2581
  258SOL    HW212499   3.724   1.801   6.882 -0.0861  0.1782  0.6776
  259SOL     OW12500   5.957   9.784   1.217  0.6664  0.4135 -0.1291
  259SOL    HW112501   6.053   9.790   1.219  0.6986 -0.1206  0.4660
  259SOL    HW212502   5.931   9.798   1.307  0.4382 -2.6993  0.4210
  260SOL     OW12503   3.990   8.550   9.599  0.1820 -0.0634 -0.2861
  260SOL    HW112504   3.910   8.498   9.605  1.0865 -1.3452  1.7299
  260SOL    HW212505   4.016   8.544   9.507 -1.6933 -0.0806 -0.8605
  261SOL     OW12506   0.790   2.303   6.798  0.1638  0.2535 -0.6366
  261SOL    HW112507   0.816   2.249   6.873  1.3437  2.1988  0.4281
  261SOL    HW212508   0.723   2.362   6.832 -0.3272  0.2185 -1.5004
  262SOL     OW12509  10.072  11.551   3.370 -0.5722  0.1535 -0.8115
  262SOL    HW112510  10.134  11.509   3.429  0.9804  1.1178 -1.6763
  262SOL    HW212511  10.081  11.504   3.287 -1.6464 -0.2457 -0.7147
  263SOL     OW12512   5.950   6.860   2.907 -0.3601  0.1968  0.1396
  263SOL    HW112513   5.916   6.796   2.844 -3.1508  2.1799 -0.5662
  263SOL    HW212514   5.918   6.830   2.992  2.1110 -1.6319  0.5516
  264SOL     OW12515   7.397   1.329   9.247 -0.1021  0.1841 -0.0915
  264SOL    HW112516   7.438   1.413   9.228 -1.7302  1.3638  1.3069
  264SOL    HW212517   7.328   1.349   9.311 -1.8521 -1.8823 -1.1784
  265SOL     OW12518   7.205  10.058   3.765 -0.2613 -0.3225 -0.3684
  265SOL    HW112519   7.164  10.098   3.842  0.2754  0.5898 -0.5420
  265SOL    HW212520   7.290  10.027   3.797 -0.0358  0.0621 -0.5885
  266SOL     OW12521   6.209   6.929  10.058 -0.5639 -0.0670  0.5085
  266SOL    HW112522   6.300   6.913  10.083  0.0056  3.1748  1.0207
  266SOL    HW212523   6.162   6.932  10.141 -1.3271 -2.2873  0.2142
  267SOL     OW12524   7.116   8.188   8.727 -0.8166  0.2948  0.3020
  267SOL    HW112525   7.210   8.196   8.744 -0.0868 -1.0166 -2.5752
  267SOL    HW212526   7.077   8.183   8.814  2.1090 -2.6987  1.6707
  268SOL     OW12527   8.697   6.152   7.337  0.1600  0.2243  0.0578
  268SOL    HW112528   8.723   6.152   7.429 -0.1778 -0.0985  0.1571
  268SOL    HW212529   8.612   6.195   7.335  0.4315  0.7607 -0.1876
  269SOL     OW12530  10.349   9.993   6.694  0.0521  0.1387 -0.4802
  269SOL    HW112531  10.443   9.975   6.686  0.1182  0.8147 -1.4706
  269SOL    HW212532  10.310   9.945   6.621 -0.9735 -3.6717  2.2645
  270SOL     OW12533   4.353   7.895   2.467  0.3233  0.4879  0.6693
  270SOL    HW112534   4.433   7.920   2.514  0.0345 -0.3233  1.6224
  270SOL    HW212535   4.284   7.901   2.533 -0.4191  1.1815 -0.1447
  271SOL     OW12536   8.085   3.433   1.756 -0.7683 -0.4299  0.1833
  271SOL    HW112537   8.061   3.482   1.835 -0.3814 -1.2721  0.8345
  271SOL    HW212538   8.133   3.357   1.788 -0.0411 -0.4545 -0.9066
  272SOL     OW12539   1.242   2.033   4.797  0.5677 -0.1869  0.7271
  272SOL    HW112540   1.161   2.054   4.751 -0.0426 -2.0844  0.8724
  272SOL    HW212541   1.214   1.979   4.871  1.9931 -1.2370  0.5373
  273SOL     OW12542   4.083  10.360  10.008 -0.2909  0.6809 -0.2104
  273SOL    HW112543   4.079  10.452   9.980  2.0356  0.5032 -1.3704
  273SOL    HW212544   3.992  10.334  10.017 -1.0992  2.3531 -2.5359
  274SOL     OW12545   4.749  11.427   2.872 -0.4074  0.1817 -0.5204
  274SOL    HW112546   4.786  11.436   2.784 -1.1760 -0.7626 -0.9547
  274SOL    HW212547   4.734  11.517   2.900  1.5272  0.5918 -0.5985
  275SOL     OW12548   5.006  11.071   1.312  0.0757  0.4449  0.4136
  275SOL    HW112549   5.004  11.158   1.352 -3.4247  1.1500 -0.8642
  275SOL    HW212550   5.001  11.088   1.218  0.4283 -1.1485  0.0713
  276SOL     OW12551   5.700   7.968  11.410  0.2262 -0.6188 -0.2363
  276SOL    HW112552   5.766   8.022  11.365 -1.1687  0.7164 -0.7635
  276SOL    HW212553   5.620   8.020  11.405 -0.9704 -2.3759  0.0441
  277SOL     OW12554   2.488   4.760   1.784  0.4729  0.4007 -0.2590
  277SOL    HW112555   2.481   4.707   1.864  0.7932  2.5692  1.3000
  277SOL    HW212556   2.574   4.800   1.789  0.6336  0.3061 -1.9028
  278SOL     OW12557  11.044   9.688   8.272  0.1541  0.3836 -0.4005
  278SOL    HW112558  11.087   9.634   8.338 -0.4678 -0.2015 -0.4633
  278SOL    HW212559  11.064   9.643   8.189 -0.2725  0.3086 -0.4641
  279SOL     OW12560   5.518   7.730   2.399 -0.1554  0.1258  0.5017
  279SOL    HW112561   5.424   7.746   2.406 -0.2620  0.1446 -0.7333
  279SOL    HW212562   5.525   7.636   2.385 -0.3358  0.5178 -3.4211
  280SOL     OW12563   6.379  11.577   4.208 -0.3742  0.4496 -0.7159
  280SOL    HW112564   6.349  11.596   4.298 -1.4575  1.0684 -1.1805
  280SOL    HW212565   6.338  11.493   4.187 -0.8772  0.7463 -0.9453
  281SOL     OW12566   8.005   8.843   4.491 -0.1092  0.0571  0.0999
  281SOL    HW112567   8.009   8.831   4.396  0.2538 -0.8715  0.2257
  281SOL    HW212568   8.001   8.938   4.503  0.5786  0.2171 -0.8193
  282SOL     OW12569  10.798  11.799  10.904 -0.7588 -0.0385 -0.1934
  282SOL    HW112570  10.806  11.705  10.886  0.7518  0.2178 -1.0104
  282SOL    HW212571  10.814  11.840  10.819 -0.0513  1.0037  0.4268
  283SOL     OW12572  10.369   5.422   1.707 -0.4628  0.2917 -0.0639
  283SOL    HW112573  10.436   5.391   1.767 -0.6666 -1.4011 -0.6321
  283SOL    HW212574  10.302   5.460   1.762 -1.0893 -2.0655  0.9384
  284SOL     OW12575   8.177   9.695   4.916 -0.7273 -0.1929  0.3789
  284SOL    HW112576   8.164   9.781   4.955 -0.9612 -0.7523  1.6071
  284SOL    HW212577   8.187   9.711   4.823  1.8208  1.4215  0.8491
  285SOL     OW12578   7.677  11.377   6.665  0.2676  0.0517 -0.4677
  285SOL    HW112579   7.753  11.327   6.696  1.3652  0.7084 -1.9452
  285SOL    HW212580   7.712  11.464   6.647 -0.8054  0.3198 -1.3575
  286SOL     OW12581   6.518   8.303   2.586 -0.6064 -0.0855 -0.0028
  286SOL    HW112582   6.544   8.325   2.675 -0.4596  0.8741 -0.2736
  286SOL    HW212583   6.429   8.338   2.579 -0.5543 -0.0170 -0.2925
  287SOL     OW12584   7.168   7.149   6.253 -0.1120  0.9910  0.4632
  287SOL    HW112585   7.125   7.142   6.338 -1.9815  2.1381 -0.3239
  287SOL    HW212586   7.111   7.207   6.202  1.4981  1.1570 -1.2387
  288SOL     OW12587   7.616   7.522   9.086 -0.2380  0.3986 -0.2961
  288SOL    HW112588   7.545   7.489   9.140 -2.2819  1.5366 -2.1538
  288SOL    HW212589   7.660   7.587   9.141 -1.1563  0.2843  0.5976
  289SOL     OW12590   4.781   9.922   5.115  0.0936  0.3210 -0.1600
  289SOL    HW112591   4.855   9.982   5.117 -0.3742  0.9575 -1.1345
  289SOL    HW212592   4.705   9.976   5.138 -0.0805 -0.3322  0.8755
  290SOL     OW12593   2.272   4.052  11.155  0.7188  0.2142  0.1494
  290SOL    HW112594   2.312   4.039  11.241 -1.2635 -1.0952  0.9319
  290SOL    HW212595   2.237   3.967  11.131  0.5068  0.7514 -1.6156
  291SOL     OW12596   5.114   6.871   7.110  0.4001  0.0521  0.2680
  291SOL    HW112597   5.127   6.943   7.049  0.0076  0.4502  0.6415
  291SOL    HW212598   5.194   6.867   7.161  1.2072 -1.0310 -1.0171
  292SOL     OW12599   5.413  10.020   9.146  0.3905  0.1799  0.2133
  292SOL    HW112600   5.451  10.042   9.061 -1.2702  1.6947 -0.2087
  292SOL    HW212601   5.331   9.975   9.125  0.1947  0.1397  1.0090
  293SOL     OW12602   2.623   8.548   7.847 -0.0324 -0.6314 -0.9571
  293SOL    HW112603   2.585   8.607   7.782 -2.1300 -1.0285 -0.1493
  293SOL    HW212604   2.695   8.505   7.800  1.4820  2.3595 -1.6345
  294SOL     OW12605   1.996  11.924   6.148 -0.1933 -0.1143 -0.1970
  294SOL    HW112606   2.025  11.840   6.111 -0.5880 -0.6598  0.7045
  294SOL    HW212607   1.971  11.976   6.072  0.7717 -0.5415 -0.8220
  295SOL     OW12608   6.681  10.731   7.650 -0.0343 -0.4178  0.0369
  295SOL    HW112609   6.596  10.774   7.639 -1.4826 -3.3837 -1.7784
  295SOL    HW212610   6.666  10.663   7.715  0.7208 -1.3946 -0.7644
  296SOL     OW12611   2.584  11.319  11.323 -0.0156  0.8215  0.3259
  296SOL    HW112612   2.656  11.301  11.263  0.5456 -0.1640  1.2535
  296SOL    HW212613   2.519  11.364  11.269 -0.2047 -1.3967 -1.4530
  297SOL     OW12614   8.980   6.660   2.377 -0.3819 -0.3528 -0.2747
  297SOL    HW112615   8.952   6.568   2.376  0.0312 -0.4735 -1.0077
  297SOL    HW212616   8.906   6.706   2.416 -0.3997 -1.0580  0.5503
  298SOL     OW12617   8.434   2.481  11.885  0.0637  0.3582 -0.6926
  298SOL    HW112618   8.403   2.541  11.816  0.3744 -0.0103 -1.1648
  298SOL    HW212619   8.461   2.403  11.837 -0.3241 -0.1555 -0.0766
  299SOL     OW12620   8.837   8.545   0.571  0.1661  0.6809  0.0142
  299SOL    HW112621   8.928   8.573   0.575  0.9011 -1.3354 -1.1722
  299SOL    HW212622   8.836   8.474   0.506 -2.0455 -0.0739  0.7634
  300SOL     OW12623   8.685   8.171   0.445 -0.1770  0.2423 -1.2812
  300SOL    HW112624   8.619   8.113   0.483 -0.4891  1.5197  0.2176
  300SOL    HW212625   8.637   8.252   0.426  0.9527  1.2101 -0.1165
  301SOL     OW12626   7.861   4.921   7.092 -0.4573  0.1030 -0.2140
  301SOL    HW112627   7.942   4.929   7.141  0.3314 -0.0089 -1.4486
  301SOL    HW212628   7.801   4.875   7.151 -0.0329  1.2643  1.1586
  302SOL     OW12629   3.156   2.825   7.263  0.8858 -0.2320  0.1869
  302SOL    HW112630   3.099   2.887   7.310  0.7125  1.1370 -1.7118
  302SOL    HW212631   3.242   2.867   7.264  0.7913  0.0200 -1.0254
  303SOL     OW12632  11.775   5.309   7.516 -0.2350 -0.2365 -0.1807
  303SOL    HW112633  11.776   5.214   7.503 -0.5634 -0.3890  0.8287
  303SOL    HW212634  11.682   5.333   7.510 -0.2613 -0.1353  0.6107
  304SOL     OW12635  11.799   9.270   0.047  0.3452  0.1326 -0.2378
  304SOL    HW112636  11.709   9.241   0.031  0.2563 -0.2569  0.8588
  304SOL    HW212637  11.798   9.364   0.032 -0.2467  0.1276 -0.2332
  305SOL     OW12638   8.886   2.026   6.600  0.1784 -0.6435 -0.4950
  305SOL    HW112639   8.917   1.962   6.537 -2.9321 -1.7516 -1.1029
  305SOL    HW212640   8.793   2.036   6.580  0.2632  3.2462  0.3503
  306SOL     OW12641   3.164   2.141  10.370 -0.7975 -0.2565 -0.4186
  306SOL    HW112642   3.142   2.157  10.278  1.9563  0.6849 -0.9999
  306SOL    HW212643   3.222   2.065  10.368  0.3937  0.5936  0.3344
  307SOL     OW12644   9.678   0.499   7.715  0.1307  0.8298 -0.9581
  307SOL    HW112645   9.771   0.512   7.694  0.4839 -0.7555 -0.4784
  307SOL    HW212646   9.632   0.540   7.642  1.2414 -0.0425 -2.2047
  308SOL     OW12647  10.550   8.820   6.640 -1.0399 -0.0556  0.0301
  308SOL    HW112648  10.635   8.819   6.595  0.4036  1.3905  2.5052
  308SOL    HW212649  10.510   8.736   6.616  0.7681 -0.5076 -1.7454
  309SOL     OW12650  10.976   2.323   5.364 -0.1372 -0.9081 -0.3428
  309SOL    HW112651  10.986   2.391   5.431 -1.9037 -0.5267 -0.4200
  309SOL    HW212652  11.062   2.281   5.360 -0.3729 -2.0261  3.2775
  310SOL     OW12653   8.498   4.127   6.626  0.2770  0.0215  0.3482
  310SOL    HW112654   8.548   4.053   6.590 -1.0564 -0.1437 -1.3142
  310SOL    HW212655   8.543   4.205   6.593 -0.7653 -0.1283 -1.5491
  311SOL     OW12656   3.123  11.799   7.707 -0.0285 -0.6041  0.1221
  311SOL    HW112657   3.140  11.794   7.613  2.3167  1.2123  0.3830
  311SOL    HW212658   3.154  11.715   7.741 -0.2738 -1.0057 -0.6179
  312SOL     OW12659   5.121   3.004   4.385 -0.2575 -0.0641 -1.0316
  312SOL    HW112660   5.051   3.038   4.329 -0.4150  0.0083 -0.7914
  312SOL    HW212661   5.091   3.023   4.474 -0.6330 -1.3777 -0.8591
  313SOL     OW12662   1.439   4.828  11.082 -0.1094  0.3465 -0.5744
  313SOL    HW112663   1.504   4.897  11.069  0.1947  0.5375  1.6572
  313SOL    HW212664   1.385   4.858  11.155 -2.2466 -0.1920 -1.8352
  314SOL     OW12665   6.686   9.998   6.912 -0.3847  0.0762  0.7132
  314SOL    HW112666   6.592   9.990   6.900 -0.3083  1.2895 -1.1322
  314SOL    HW212667   6.697  10.052   6.990 -1.2050 -0.1864  1.0155
  315SOL     OW12668   2.146   1.229  11.575 -0.5109  0.0576  0.2583
  315SOL    HW112669   2.223   1.181  11.607  0.1058  1.2983  0.7268
  315SOL    HW212670   2.072   1.191  11.622  0.1295  0.4671  1.6335
  316SOL     OW12671   7.036  10.310   2.095  0.3152  0.2949  0.4210
  316SOL    HW112672   7.001  10.270   2.174  0.7311  1.3279  1.1508
  316SOL    HW212673   7.048  10.403   2.118  0.7056  0.5559 -0.7544
  317SOL     OW12674   8.024   8.335  10.707 -0.3952 -0.3682  0.6673
  317SOL    HW112675   8.044   8.422  10.674 -1.9550 -0.6230 -1.1489
  317SOL    HW212676   8.004   8.284  10.628 -0.8300 -2.0015  1.7860
  318SOL     OW12677   3.669   8.156   6.101 -0.1208  0.3802  0.2414
  318SOL    HW112678   3.742   8.107   6.062 -0.9727 -0.0431 -0.8805
  318SOL    HW212679   3.657   8.231   6.044  0.1084  1.0284  1.0270
  319SOL     OW12680   1.551  11.535   7.250 -0.2617  0.1714 -0.4620
  319SOL    HW112681   1.507  11.498   7.326  0.2978  0.2957 -0.0672
  319SOL    HW212682   1.564  11.627   7.271  0.9562 -0.0475 -0.1896
  320SOL     OW12683   9.607   5.218   2.056 -0.3684 -0.4618 -0.4839
  320SOL    HW112684   9.631   5.139   2.105  0.9981  0.1199 -0.1483
  320SOL    HW212685   9.661   5.215   1.977  0.5841  0.6864  0.0864
  321SOL     OW12686   2.571   9.480   0.822 -0.0846  0.0476  0.2612
  321SOL    HW112687   2.659   9.519   0.825 -0.5380  1.0402  1.1866
  321SOL    HW212688   2.531   9.518   0.744 -0.1975  0.7252  0.6461
  322SOL     OW12689   7.558  10.384   3.303 -0.0842 -0.3545  0.1022
  322SOL    HW112690   7.548  10.431   3.386  1.2638  2.9266 -1.4316
  322SOL    HW212691   7.490  10.421   3.247  0.0841 -1.3372 -0.7768
  323SOL     OW12692  10.597   4.182   6.838 -0.4864 -0.4206  0.5038
  323SOL    HW112693  10.613   4.253   6.776  0.3596 -0.2800  0.8637
  323SOL    HW212694  10.529   4.128   6.796 -0.9737  0.4682  0.1290
  324SOL     OW12695   8.441   6.809   8.653  0.0490 -0.4884 -0.1511
  324SOL    HW112696   8.428   6.892   8.699  0.4230 -0.4105 -0.1822
  324SOL    HW212697   8.397   6.822   8.569  1.4406  0.2501 -0.7849
  325SOL     OW12698   5.122   4.435  11.803 -0.4430  0.0408 -0.2053
  325SOL    HW112699   5.182   4.500  11.765 -1.3402  0.9506 -0.1080
  325SOL    HW212700   5.101   4.377  11.730 -0.8527  0.7956 -0.7061
  326SOL     OW12701  11.685   5.547   9.981  0.2679  0.2507 -0.0274
  326SOL    HW112702  11.597   5.512   9.996  0.5886 -0.0436  1.3554
  326SOL    HW212703  11.728   5.541  10.067  1.9004 -0.3684 -0.8434
  327SOL     OW12704   6.790  10.899   7.204 -0.5450  0.6727 -0.4059
  327SOL    HW112705   6.706  10.868   7.238 -0.7189  1.5114 -0.0684
  327SOL    HW212706   6.852  10.881   7.274 -0.6694  1.1931 -0.1578
  328SOL     OW12707   8.903  11.684   9.957  0.1051  0.9987 -0.6325
  328SOL    HW112708   8.979  11.651  10.005  0.7155  2.3261 -0.6560
  328SOL    HW212709   8.828  11.644  10.001  0.6984  1.4636  0.8516
  329SOL     OW12710   2.749   5.848  11.809 -0.0954 -0.2920 -0.2026
  329SOL    HW112711   2.778   5.930  11.849 -1.3778  0.1986 -0.2341
  329SOL    HW212712   2.708   5.800  11.880 -0.2905 -0.4463 -0.4186
  330SOL     OW12713   3.117   2.771   6.235 -0.0147  0.1933  0.4664
  330SOL    HW112714   3.101   2.683   6.268 -0.4683  0.7531  1.8265
  330SOL    HW212715   3.183   2.760   6.167  1.3088 -0.9863  1.8830
  331SOL     OW12716   0.069   0.524   0.437 -0.1041 -0.2810  0.3451
  331SOL    HW112717   0.103   0.613   0.444  1.2456 -0.7961  0.9079
  331SOL    HW212718   0.030   0.506   0.522  0.3772 -0.4961  0.5271
  332SOL     OW12719   5.780   5.745   5.842 -0.4046 -0.3844  0.2657
  332SOL    HW112720   5.708   5.723   5.901 -1.9546 -0.6637 -1.6465
  332SOL    HW212721   5.849   5.778   5.900 -1.6087 -1.2167  2.2723
  333SOL     OW12722   4.978   1.410  10.217  0.0738 -0.1641 -0.2145
  333SOL    HW112723   5.066   1.382  10.242 -0.0019  0.6107  0.9862
  333SOL    HW212724   4.935   1.433  10.299 -0.8589  0.5987 -0.8831
  334SOL     OW12725   8.565   1.496   7.806 -0.2465 -0.7392  0.1030
  334SOL    HW112726   8.498   1.462   7.865 -1.4528 -1.7020 -1.7167
  334SOL    HW212727   8.518   1.515   7.725  1.0009  2.3227 -0.0093
  335SOL     OW12728   9.330   9.612   6.548  0.1310 -0.0752 -0.2834
  335SOL    HW112729   9.273   9.681   6.513  1.9570  1.0932 -1.0693
  335SOL    HW212730   9.347   9.639   6.639 -0.0858 -0.1328 -0.2231
  336SOL     OW12731   0.258   4.245   4.107  0.3362 -0.2143  0.0075
  336SOL    HW112732   0.208   4.277   4.182  1.5523  0.8364  0.4225
  336SOL    HW212733   0.223   4.293   4.032 -0.4318 -0.7710  0.0031
  337SOL     OW12734   2.882   2.290   1.578  0.5751  0.0025  0.5759
  337SOL    HW112735   2.970   2.255   1.562  0.4206  0.6232 -2.1908
  337SOL    HW212736   2.830   2.258   1.504 -1.3897  0.1508  1.8411
  338SOL     OW12737   7.146   1.322   9.969 -0.2059  0.0472  0.7535
  338SOL    HW112738   7.080   1.254   9.955  0.2396 -0.4059  0.8197
  338SOL    HW212739   7.110   1.400   9.927 -0.6021 -0.3034  0.4362
  339SOL     OW12740   3.745   4.350   6.342 -0.5409  0.1311  0.5648
  339SOL    HW112741   3.840   4.364   6.347 -0.5502  0.6522 -0.4779
  339SOL    HW212742   3.710   4.435   6.316 -1.0758 -0.5925 -1.1806
  340SOL     OW12743   0.779   7.881   3.932  0.0619 -0.3622  0.1469
  340SOL    HW112744   0.691   7.858   3.960 -0.8679  1.3251 -1.1536
  340SOL    HW212745   0.811   7.803   3.887 -0.6136 -1.1311  0.9685
  341SOL     OW12746   5.526   7.124   3.664  0.2071  0.6436 -0.0745
  341SOL    HW112747   5.461   7.192   3.680 -0.7424 -0.2900  0.1003
  341SOL    HW212748   5.610   7.169   3.674 -0.3900  1.5886  0.9037
  342SOL     OW12749   9.817   6.796   7.474  0.4867 -0.0263  0.0419
  342SOL    HW112750   9.906   6.787   7.440  1.1001  0.0837  1.5311
  342SOL    HW212751   9.765   6.826   7.400  1.3177 -1.7653 -1.3184
  343SOL     OW12752  11.336   9.063   5.467  0.9295  0.4622  0.1336
  343SOL    HW112753  11.327   9.152   5.499  0.0209 -0.2726  2.0875
  343SOL    HW212754  11.258   9.048   5.413  0.6857  0.6231  0.4376
  344SOL     OW12755   0.850   7.797   8.888 -0.1252  0.1720  0.5721
  344SOL    HW112756   0.935   7.831   8.860 -0.0340  0.5708  1.2802
  344SOL    HW212757   0.788   7.830   8.824  0.2993 -0.4343 -0.1630
  345SOL     OW12758   6.159  11.822   5.950  0.0613 -0.6119 -0.7180
  345SOL    HW112759   6.165  11.726   5.951  0.3920 -0.5959 -1.0012
  345SOL    HW212760   6.129  11.843   5.862  3.2477 -0.2845 -1.8571
  346SOL     OW12761   3.301   8.071   3.965 -0.6984  0.0917 -0.0990
  346SOL    HW112762   3.293   8.097   4.057  2.1654 -0.0821  0.2966
  346SOL    HW212763   3.297   8.154   3.916 -0.8406  0.3270  0.3087
  347SOL     OW12764  10.508   2.024   3.298 -0.4215 -0.2908 -0.0327
  347SOL    HW112765  10.480   2.005   3.208 -1.9015  0.0875  0.3187
  347SOL    HW212766  10.526   1.938   3.335 -2.9810 -0.7936  0.2562
  348SOL     OW12767   4.178   1.970  10.142  0.2166  0.5849  0.2922
  348SOL    HW112768   4.269   1.949  10.161 -0.2701  0.5489  2.8378
  348SOL    HW212769   4.128   1.926  10.210 -1.5230  2.7123  0.4881
  349SOL     OW12770   2.118   4.675   9.819  0.1386  0.2013  0.3422
  349SOL    HW112771   2.123   4.770   9.830 -0.1258  0.0206  2.1876
  349SOL    HW212772   2.209   4.649   9.800  0.0654  0.8917 -1.1034
  350SOL     OW12773   7.019   4.621   6.126  0.6744  0.8213 -0.5596
  350SOL    HW112774   7.048   4.536   6.091 -2.1584 -0.1971 -0.7092
  350SOL    HW212775   7.034   4.683   6.054  2.9592  0.5573 -0.3821
  351SOL     OW12776   0.583   1.666   1.446 -0.1308  0.1741  0.3155
  351SOL    HW112777   0.507   1.725   1.445  0.3268  0.7719 -0.4767
  351SOL    HW212778   0.564   1.601   1.378  0.1118  0.3883  0.0412
  352SOL     OW12779   7.300  10.977   2.505 -0.7668 -0.9665 -0.2765
  352SOL    HW112780   7.297  10.981   2.600  1.0272  0.6375 -0.2252
  352SOL    HW212781   7.245  11.049   2.475  1.4282  0.8274 -0.2906
  353SOL     OW12782   6.752   2.906   7.539  0.2699  0.4602 -0.0410
  353SOL    HW112783   6.757   2.950   7.624  0.8037 -0.9274  0.6689
  353SOL    HW212784   6.821   2.840   7.542 -1.5744 -1.5894 -0.4020
  354SOL     OW12785   3.204   0.739   4.134 -0.0061  0.1697  0.0671
  354SOL    HW112786   3.269   0.808   4.147  0.8776 -0.5129 -0.6307
  354SOL    HW212787   3.230   0.696   4.053 -0.2566 -1.2938  0.7290
  355SOL     OW12788   4.722   2.300   2.733  0.0796 -0.2169 -0.3075
  355SOL    HW112789   4.643   2.347   2.706 -1.9236 -2.5191  1.0753
  355SOL    HW212790   4.788   2.325   2.669 -2.3423  0.3185 -2.7958
  356SOL     OW12791   3.370   2.031   5.014  0.0451 -0.2302  0.2723
  356SOL    HW112792   3.339   2.109   5.060  1.9312 -0.1074  1.4407
  356SOL    HW212793   3.352   1.959   5.074 -0.8118 -0.6073 -0.4010
  357SOL     OW12794  11.112   0.976  10.190  0.3784 -0.6350  0.7515
  357SOL    HW112795  11.206   0.995  10.183  0.2792 -0.6303 -0.9210
  357SOL    HW212796  11.076   1.000  10.105 -1.2563 -0.1164  1.5466
  358SOL     OW12797   6.994   9.455   1.959 -0.4441 -0.5543 -0.2127
  358SOL    HW112798   6.965   9.540   1.926  0.5221  0.1531  0.6946
  358SOL    HW212799   7.060   9.476   2.025  0.6967 -2.0481 -0.8367
  359SOL     OW12800   5.190   6.681   5.998 -0.1250 -0.1290  0.1575
  359SOL    HW112801   5.113   6.628   5.980 -0.1105 -1.1428  2.7101
  359SOL    HW212802   5.263   6.630   5.962 -0.5443  0.8250 -2.2442
  360SOL     OW12803   0.516  11.837   3.492  0.2198 -0.4032 -0.3153
  360SOL    HW112804   0.591  11.778   3.485  0.2749 -0.1991 -1.8175
  360SOL    HW212805   0.551  11.923   3.467  0.0184  0.1869  1.3144
  361SOL     OW12806  10.955   6.206  11.663 -0.2722 -0.3728 -0.4408
  361SOL    HW112807  10.892   6.138  11.639  0.9046 -1.3866 -0.7262
  361SOL    HW212808  10.904   6.287  11.661 -0.8259 -0.6622 -4.0254
  362SOL     OW12809   8.041   7.989   9.930 -0.8799  0.4298 -0.5953
  362SOL    HW112810   8.033   7.976   9.835  1.1530  1.7258 -1.0078
  362SOL    HW212811   8.096   8.067   9.939  1.4379 -1.2638  1.6027
  363SOL     OW12812   9.899   1.983   5.537  0.1864 -0.0588 -0.1139
  363SOL    HW112813   9.956   1.908   5.557 -0.7844 -0.5254  1.0290
  363SOL    HW212814   9.923   2.049   5.601 -1.0179 -0.5301  0.8750
  364SOL     OW12815   3.634   6.980   0.455 -0.4273 -0.1444  0.2402
  364SOL    HW112816   3.647   7.041   0.527 -3.1146 -0.7941  1.4316
  364SOL    HW212817   3.660   6.895   0.490 -1.2676 -0.3860  0.3149
  365SOL     OW12818   5.626  10.161  10.985  0.3313 -0.2518 -0.6494
  365SOL    HW112819   5.671  10.079  11.007 -0.6787 -0.1393  2.2573
  365SOL    HW212820   5.551  10.134  10.932 -0.7106 -1.4537  1.3238
  366SOL     OW12821   6.413   7.273   2.946 -0.0645  0.0518 -0.1405
  366SOL    HW112822   6.364   7.340   2.898 -1.0292 -1.4612 -1.3414
  366SOL    HW212823   6.428   7.313   3.032 -2.2293  1.1184 -0.1834
  367SOL     OW12824   9.824   3.547   3.471  0.4034 -0.0785 -0.4091
  367SOL    HW112825   9.842   3.632   3.432 -0.4612  0.2933 -0.0333
  367SOL    HW212826   9.910   3.510   3.490  0.9543  2.5897  3.5174
  368SOL     OW12827  11.622   1.850   2.495 -0.2311  0.0489 -0.3471
  368SOL    HW112828  11.704   1.807   2.470 -1.2656 -2.2874 -0.0263
  368SOL    HW212829  11.593   1.897   2.417  1.0434  0.3246 -0.6671
  369SOL     OW12830   8.432   3.258   2.026 -0.1683 -0.6660  0.1555
  369SOL    HW112831   8.425   3.293   1.938  1.2840  0.7120  0.5453
  369SOL    HW212832   8.498   3.189   2.020  1.6662  0.9622  0.5264
  370SOL     OW12833   3.171   6.554   2.021 -0.6440  0.0758 -0.1224
  370SOL    HW112834   3.205   6.471   2.055  1.9020  0.5971 -1.1756
  370SOL    HW212835   3.195   6.618   2.088 -2.0496  0.1078  0.3907
  371SOL     OW12836   3.786  10.808   5.563 -0.8442 -0.7248  0.5497
  371SOL    HW112837   3.862  10.785   5.617  0.1473  0.4396 -0.2859
  371SOL    HW212838   3.816  10.795   5.473 -0.2498  3.2658 -0.0213
  372SOL     OW12839   2.946   2.875   9.511 -0.4461  0.3886 -0.6534
  372SOL    HW112840   2.914   2.823   9.437 -0.1753  1.0710 -1.2630
  372SOL    HW212841   2.969   2.960   9.473 -1.6581  1.2695  0.4509
  373SOL     OW12842  10.376   3.358   6.803 -0.7421  0.2046 -0.1123
  373SOL    HW112843  10.326   3.428   6.845 -2.5997 -0.6318 -0.8052
  373SOL    HW212844  10.420   3.400   6.730 -1.9197  0.6630 -0.5809
  374SOL     OW12845   4.167   2.390   1.665 -0.2761 -0.6865 -0.6600
  374SOL    HW112846   4.239   2.420   1.721 -0.3572  0.2341 -1.0204
  374SOL    HW212847   4.201   2.402   1.576  0.3197 -3.2873 -0.8395
  375SOL     OW12848  10.043   9.430  11.193 -0.0317 -0.3984  0.1322
  375SOL    HW112849   9.968   9.417  11.252 -0.9896  1.8539 -0.4673
  375SOL    HW212850  10.114   9.459  11.250 -0.1034 -0.9472  0.5058
  376SOL     OW12851   3.846   3.529  10.037  0.0750 -0.1376 -0.0062
  376SOL    HW112852   3.839   3.447  10.086  1.0725 -0.5385 -0.5155
  376SOL    HW212853   3.867   3.502   9.948 -2.6974  0.5171 -0.9728
  377SOL     OW12854   1.622   3.586   1.128 -0.2453  0.2382  0.7695
  377SOL    HW112855   1.671   3.624   1.055 -0.1541  0.6062  1.0166
  377SOL    HW212856   1.534   3.622   1.120 -0.0568  0.8110  1.2258
  378SOL     OW12857   3.905  11.880   7.894  0.4310  0.7029  0.3276
  378SOL    HW112858   3.927  11.895   7.802  1.8256  2.8952  0.9407
  378SOL    HW212859   3.811  11.895   7.899  0.0627 -0.9136 -0.9714
  379SOL     OW12860   5.826   1.620  10.139  0.3278 -0.1267 -0.3182
  379SOL    HW112861   5.896   1.623  10.204 -0.2000  0.9637  0.2135
  379SOL    HW212862   5.872   1.610  10.055  1.0552 -0.6266  0.1252
  380SOL     OW12863  11.687   0.711   0.637 -0.1894  1.0241 -0.4166
  380SOL    HW112864  11.674   0.619   0.612  2.0975  0.9236 -1.5174
  380SOL    HW212865  11.634   0.760   0.575 -2.0435  0.4614  0.6652
  381SOL     OW12866   8.837   0.729  11.517 -0.3055  0.2219 -0.2515
  381SOL    HW112867   8.785   0.691  11.446  1.9034 -2.1155 -0.7415
  381SOL    HW212868   8.841   0.661  11.584  1.3969  0.6417  0.1272
  382SOL     OW12869   8.138   3.754   5.398  0.6745 -0.0273 -0.5955
  382SOL    HW112870   8.142   3.841   5.358  1.8351  0.1451 -0.1315
  382SOL    HW212871   8.120   3.770   5.490  2.7640 -0.1391 -0.1208
  383SOL     OW12872   0.779  10.803   5.444 -0.2685  0.1679 -0.5619
  383SOL    HW112873   0.735  10.806   5.359  2.5437  0.4904 -2.1441
  383SOL    HW212874   0.856  10.748   5.429  1.0545  1.3767  1.3637
  384SOL     OW12875   7.883   7.510   4.388 -0.0825 -0.0414  0.7120
  384SOL    HW112876   7.958   7.560   4.356 -0.1534  0.2021  0.9223
  384SOL    HW212877   7.823   7.577   4.421 -0.8542 -0.1576 -0.4111
  385SOL     OW12878   9.151   5.800   3.099 -0.7401  0.7007 -0.6063
  385SOL    HW112879   9.201   5.750   3.164 -0.5532  0.1311 -1.1770
  385SOL    HW212880   9.200   5.789   3.018 -0.8259  1.6349 -0.7938
  386SOL     OW12881   3.651  11.660   3.964  0.3374  0.1128  0.5826
  386SOL    HW112882   3.587  11.670   3.893  0.5635 -1.0828  0.1773
  386SOL    HW212883   3.727  11.709   3.935  0.3258 -0.1350  0.1287
  387SOL     OW12884   9.307   3.356   0.022  0.5272 -0.1610  0.1714
  387SOL    HW112885   9.349   3.287  -0.030  0.3415  0.1047 -0.3348
  387SOL    HW212886   9.373   3.381   0.086  0.5515 -0.9058  0.4449
  388SOL     OW12887   7.627   4.998   0.828 -0.1743  0.2482 -0.2828
  388SOL    HW112888   7.555   4.936   0.842 -0.2099  0.0320 -1.3814
  388SOL    HW212889   7.703   4.943   0.812  0.1004  0.4883  0.1619
  389SOL     OW12890   7.667   1.938   4.436  0.1109  0.3371 -0.1503
  389SOL    HW112891   7.665   1.971   4.347  2.7598 -0.1618 -0.4802
  389SOL    HW212892   7.688   1.845   4.427  2.2141  0.6333  0.9588
  390SOL     OW12893   7.002   8.644   5.317 -0.0387  0.3794 -0.1412
  390SOL    HW112894   7.091   8.667   5.290 -0.6380  2.7039 -0.3464
  390SOL    HW212895   6.995   8.679   5.406 -0.7927  0.3766 -0.1970
  391SOL     OW12896   4.838   3.259   6.713  0.3756  0.2854  0.1381
  391SOL    HW112897   4.759   3.206   6.698  1.9523 -1.5731 -2.2485
  391SOL    HW212898   4.893   3.244   6.636  3.1220  1.4566  1.7152
  392SOL     OW12899   1.128   7.223   7.267 -0.0806  0.2529 -0.0090
  392SOL    HW112900   1.060   7.158   7.244  0.8078  0.1640 -2.8073
  392SOL    HW212901   1.110   7.245   7.358 -1.8856 -2.1568  0.3285
  393SOL     OW12902   5.451   9.558   1.222 -0.1789 -0.3044 -0.1148
  393SOL    HW112903   5.530   9.533   1.175  0.1901 -1.2062  0.9417
  393SOL    HW212904   5.433   9.484   1.280 -2.0524 -0.3120 -0.6276
  394SOL     OW12905   4.692   8.616   7.795  0.3146 -0.7571  0.2831
  394SOL    HW112906   4.640   8.685   7.836 -0.1806  0.1034 -1.6432
  394SOL    HW212907   4.721   8.561   7.867 -2.1841 -0.5180  1.5867
  395SOL     OW12908   1.661   4.853   3.545 -0.1860 -0.0608 -0.8769
  395SOL    HW112909   1.571   4.872   3.571  0.3412  3.0979 -0.8908
  395SOL    HW212910   1.714   4.912   3.598  1.7609 -0.7849 -1.9037
  396SOL     OW12911   6.828   4.138   3.908 -0.4940 -1.0754 -0.0174
  396SOL    HW112912   6.766   4.205   3.936  0.2965 -1.1725  2.1530
  396SOL    HW212913   6.782   4.089   3.840 -1.4880  0.9449 -0.8767
  397SOL     OW12914   7.164   7.337   3.634 -0.0473 -0.6850  0.2078
  397SOL    HW112915   7.192   7.339   3.725  0.0825  0.1275  0.1520
  397SOL    HW212916   7.109   7.415   3.623  0.5874 -0.3366 -0.6116
  398SOL     OW12917   0.902   9.713   9.704  0.4283 -0.1669  0.1279
  398SOL    HW112918   0.810   9.687   9.713  0.3713  0.6387  3.4667
  398SOL    HW212919   0.950   9.648   9.755  2.0292 -1.5555 -2.9215
  399SOL     OW12920   0.299  10.847   6.573 -0.4078 -0.1543 -0.0840
  399SOL    HW112921   0.284  10.909   6.645  0.5087  0.1097 -0.1060
  399SOL    HW212922   0.314  10.903   6.497  1.3262 -0.3682  0.0732
  400SOL     OW12923   9.992   4.817  11.576  0.0068  0.2497  0.1474
  400SOL    HW112924   9.910   4.806  11.528  0.2946 -0.8994 -0.1297
  400SOL    HW212925  10.059   4.824  11.508  0.2667 -0.0556  0.3673
  401SOL     OW12926   8.695   4.465   4.449  0.0074 -0.3394  0.4315
  401SOL    HW112927   8.699   4.382   4.401 -0.0602 -0.5873  0.8520
  401SOL    HW212928   8.771   4.463   4.507 -0.0023 -0.1143  0.4498
  402SOL     OW12929   2.706   2.614  10.721 -0.2233  0.4579  0.5930
  402SOL    HW112930   2.671   2.636  10.635  1.4046  0.8110  0.0048
  402SOL    HW212931   2.797   2.591  10.705 -0.0939 -0.2176  2.1292
  403SOL     OW12932  10.331   9.497  10.609  0.2458 -0.0965  0.3683
  403SOL    HW112933  10.342   9.500  10.514  0.0745 -2.3986  0.2233
  403SOL    HW212934  10.238   9.478  10.621  0.2212  0.4071  1.0199
  404SOL     OW12935   1.052   3.320   3.729  0.3290 -0.0289  0.3254
  404SOL    HW112936   1.085   3.237   3.765 -0.7147 -1.1788 -1.2055
  404SOL    HW212937   1.123   3.352   3.673  0.7384  0.1202  0.9245
  405SOL     OW12938   1.534   0.235   1.876  0.2479  0.1211  0.0115
  405SOL    HW112939   1.581   0.219   1.958  0.1881 -0.5668 -0.0853
  405SOL    HW212940   1.603   0.248   1.811  0.2985  1.0920  0.2378
  406SOL     OW12941   4.655   3.411   7.578 -0.1606  0.3640 -0.0216
  406SOL    HW112942   4.688   3.403   7.668  0.5567  1.0027 -0.2228
  406SOL    HW212943   4.583   3.348   7.574  1.3883 -1.4998  0.2498
  407SOL     OW12944   6.451  10.949   6.348  0.5496 -0.8309 -0.4159
  407SOL    HW112945   6.495  10.873   6.385  0.6421 -1.2508 -1.3740
  407SOL    HW212946   6.422  10.921   6.261  1.0615  0.3899 -1.0057
  408SOL     OW12947  10.332   0.254   8.476  0.0335 -0.0453  0.4831
  408SOL    HW112948  10.361   0.179   8.527  0.1078  0.0448  0.5760
  408SOL    HW212949  10.407   0.279   8.423  1.1119  1.8937  2.7327
  409SOL     OW12950   3.386   7.142   0.647 -0.0335  0.2135  0.2780
  409SOL    HW112951   3.458   7.082   0.667 -0.3404 -0.4165 -0.4662
  409SOL    HW212952   3.309   7.102   0.687 -0.2735  0.0037 -0.3818
  410SOL     OW12953   8.924   8.000   9.138 -0.2047  0.2353 -0.5379
  410SOL    HW112954   8.932   7.908   9.163 -1.0981  0.5545  1.0760
  410SOL    HW212955   8.961   8.005   9.050 -0.7313 -1.7764 -0.9069
  411SOL     OW12956   7.358   1.987   5.323  0.2622  0.0921  0.0058
  411SOL    HW112957   7.404   1.908   5.351 -0.5450  0.2041  1.7844
  411SOL    HW212958   7.265   1.963   5.324 -0.1454  1.4123  2.1271
  412SOL     OW12959  11.593   9.574   8.149 -0.9218 -0.5684 -0.1715
  412SOL    HW112960  11.679   9.617   8.146 -0.4737 -1.4049  0.3609
  412SOL    HW212961  11.531   9.644   8.129 -0.2636  0.4846  1.2748
  413SOL     OW12962   7.226   9.681   9.147  0.3521  0.0151  0.3058
  413SOL    HW112963   7.163   9.664   9.078  3.0631  0.1630 -2.4005
  413SOL    HW212964   7.205   9.769   9.178 -0.6428  0.1328 -0.6505
  414SOL     OW12965   9.536   5.839   0.851 -0.3215  0.2178 -0.2507
  414SOL    HW112966   9.533   5.925   0.809 -0.6853 -0.3981 -1.5072
  414SOL    HW212967   9.617   5.841   0.903 -0.5658  1.4773  0.1174
  415SOL     OW12968   9.493   2.808   8.840  0.0470  0.7922 -0.1448
  415SOL    HW112969   9.499   2.882   8.780  2.0599  0.3944 -0.4780
  415SOL    HW212970   9.517   2.732   8.788 -1.8379 -0.1278  0.2383
  416SOL     OW12971  11.271   1.610   7.688  0.1087 -0.2810  0.3519
  416SOL    HW112972  11.278   1.515   7.685  0.5078 -0.4035  2.9148
  416SOL    HW212973  11.329   1.641   7.619  0.3368 -1.8829 -0.2084
  417SOL     OW12974   2.343   9.254   4.019  0.7412  0.0498 -0.8053
  417SOL    HW112975   2.300   9.316   4.077 -0.9264 -0.1717 -1.7439
  417SOL    HW212976   2.290   9.174   4.025  0.5856 -0.0201 -2.4961
  418SOL     OW12977   6.909   4.285   8.549 -0.1096  0.8210 -0.3298
  418SOL    HW112978   6.870   4.257   8.466  0.7607 -0.2384 -0.3876
  418SOL    HW212979   6.946   4.371   8.530  0.4599  0.4016 -1.1637
  419SOL     OW12980   7.214   6.212  10.687  0.3074 -0.0924  0.1300
  419SOL    HW112981   7.127   6.216  10.647 -0.2362 -2.4744  0.9059
  419SOL    HW212982   7.273   6.241  10.618 -0.8745 -1.1930 -1.4381
  420SOL     OW12983   9.365   2.889   2.985  0.1877  0.5358 -0.9204
  420SOL    HW112984   9.418   2.850   2.915  1.2481  0.2348  0.0092
  420SOL    HW212985   9.421   2.958   3.021  0.1104 -0.0163  0.3092
  421SOL     OW12986   3.590   0.686   2.824  0.5326  0.0071 -0.0320
  421SOL    HW112987   3.610   0.759   2.766 -1.0287  0.7382  0.2945
  421SOL    HW212988   3.558   0.617   2.765 -1.6389  0.9603 -0.0719
  422SOL     OW12989   9.629   6.753   9.242 -0.8657  0.3897  0.2995
  422SOL    HW112990   9.685   6.709   9.307 -0.2768  0.6652 -0.0088
  422SOL    HW212991   9.561   6.689   9.222  0.4297 -0.7333 -0.7385
  423SOL     OW12992   9.652  11.929   9.926  0.2946 -0.1872 -0.2612
  423SOL    HW112993   9.657  11.839   9.958  3.1030  0.0986  0.3578
  423SOL    HW212994   9.652  11.983  10.005  2.9554  0.4090 -0.5911
  424SOL     OW12995   7.343   0.558   1.551  0.0814  0.1800  0.4472
  424SOL    HW112996   7.420   0.513   1.517 -0.3974  0.8315 -1.6840
  424SOL    HW212997   7.361   0.651   1.537 -0.6419  0.3999  0.9246
  425SOL     OW12998   1.208   2.682   9.325 -0.3332 -0.1002  0.4252
  425SOL    HW112999   1.273   2.726   9.381 -0.1153  1.2250 -0.8053
  425SOL    HW213000   1.234   2.590   9.325  2.2963  0.5572 -0.9803
  426SOL     OW13001  11.953   2.504   1.935  0.4359  0.4205  0.4988
  426SOL    HW113002  12.048   2.513   1.943  0.6625 -0.7491 -0.5015
  426SOL    HW213003  11.923   2.481   2.023  1.2840 -0.6142  0.5344
  427SOL     OW13004   2.038   8.495   3.879 -0.0365 -0.0726 -0.4552
  427SOL    HW113005   2.115   8.552   3.877 -0.5857  0.7400  0.3800
  427SOL    HW213006   2.059   8.424   3.819  0.9323  0.6842 -1.0509
  428SOL     OW13007   7.861  10.937  10.223 -0.2259 -0.0373  0.3056
  428SOL    HW113008   7.786  10.880  10.206  0.8531 -1.1806 -0.9397
  428SOL    HW213009   7.824  11.023  10.238 -1.9933 -1.1534  3.0127
  429SOL     OW13010  11.931   5.491  11.237 -0.1307  0.0654 -0.0071
  429SOL    HW113011  11.868   5.473  11.306 -0.2360  1.9019  0.4156
  429SOL    HW213012  12.013   5.454  11.270 -0.2400  0.6780  1.0133
  430SOL     OW13013   3.544  10.238   7.881 -0.1085  0.3932 -0.3985
  430SOL    HW113014   3.549  10.208   7.972 -2.8692  0.9308  0.0277
  430SOL    HW213015   3.612  10.189   7.835  2.4383  1.2420  2.1951
  431SOL     OW13016   6.592   0.748   2.822 -0.0038  0.2789  0.0002
  431SOL    HW113017   6.611   0.668   2.871 -2.9408 -0.7441 -0.3067
  431SOL    HW213018   6.612   0.819   2.882  0.4113 -0.7823  1.1512
  432SOL     OW13019   5.427   9.806   6.942  0.2487 -0.0832  0.1165
  432SOL    HW113020   5.336   9.794   6.968  0.1033  2.1506  0.8434
  432SOL    HW213021   5.429   9.892   6.901  1.7623 -0.7642 -1.3515
  433SOL     OW13022   7.156   2.122   1.445 -0.1294 -0.3459 -0.4710
  433SOL    HW113023   7.083   2.064   1.470  0.7207 -0.8658  0.9322
  433SOL    HW213024   7.177   2.169   1.526  0.7492  0.1872 -0.9966
  434SOL     OW13025   4.435   0.478   0.650  0.2767 -0.0974 -0.2594
  434SOL    HW113026   4.491   0.450   0.723 -0.6800 -0.1797  0.4564
  434SOL    HW213027   4.495   0.482   0.575  1.0896 -0.9431  0.3148
  435SOL     OW13028   7.823  10.944  11.410  0.0723 -0.0427 -0.0876
  435SOL    HW113029   7.788  10.984  11.330 -0.8979 -2.0459 -0.7360
  435SOL    HW213030   7.862  11.016  11.458  0.7873  1.2284 -2.4261
  436SOL     OW13031   1.736   9.408   5.155 -0.1722  0.4283  0.3720
  436SOL    HW113032   1.824   9.396   5.191 -0.2503 -0.0513  0.4078
  436SOL    HW213033   1.749   9.411   5.061 -0.0872  0.6249  0.3895
  437SOL     OW13034   6.660   8.873   6.987  0.3469 -0.5699  0.1761
  437SOL    HW113035   6.603   8.945   7.015 -1.1286 -1.6882  0.1438
  437SOL    HW213036   6.603   8.796   6.985  1.8179 -1.6983 -0.0894
  438SOL     OW13037   7.465   6.022   9.237  1.0640  0.5117  0.3192
  438SOL    HW113038   7.454   6.035   9.143 -0.2402 -3.4753 -0.2673
  438SOL    HW213039   7.548   5.974   9.245  0.4698 -0.4462  0.9959
  439SOL     OW13040   3.845   0.774   5.545 -0.3437  0.6696  0.1425
  439SOL    HW113041   3.821   0.815   5.462  0.8627 -0.4882 -0.8267
  439SOL    HW213042   3.770   0.721   5.569  0.1887 -0.8950 -1.4999
  440SOL     OW13043   0.746   5.354   7.771 -0.5752  0.0997  0.3037
  440SOL    HW113044   0.705   5.278   7.730 -1.2703  0.7240 -0.1992
  440SOL    HW213045   0.774   5.409   7.697  1.8911 -0.6305  0.5989
  441SOL     OW13046   6.718  10.895   2.543 -0.5302  0.3906 -0.0232
  441SOL    HW113047   6.722  10.895   2.639  1.0726 -1.3109 -0.0513
  441SOL    HW213048   6.746  10.983   2.519 -0.1945  0.5965  1.0456
  442SOL     OW13049   5.311   6.506   6.212 -0.3243  0.2426 -0.5693
  442SOL    HW113050   5.232   6.451   6.208  0.0308 -0.5013  1.4635
  442SOL    HW213051   5.346   6.505   6.123 -1.8278 -0.5637 -1.1880
  443SOL     OW13052   6.492   9.102   7.782  0.0888  0.4898  0.6158
  443SOL    HW113053   6.557   9.115   7.713 -0.9146 -1.0145 -0.6738
  443SOL    HW213054   6.468   9.191   7.809  0.9486  1.1014 -0.5440
  444SOL     OW13055  11.735   7.636  10.641  0.0803  0.8074 -0.1279
  444SOL    HW113056  11.830   7.641  10.651  0.0067  1.6178  0.2245
  444SOL    HW213057  11.720   7.657  10.549  0.4692 -2.8045 -1.1795
  445SOL     OW13058   4.961   9.271  11.366  0.6348 -0.3816  0.0631
  445SOL    HW113059   4.940   9.361  11.339  0.2121 -0.0302  1.5173
  445SOL    HW213060   4.929   9.264  11.455  1.6055 -1.6610  0.3421
  446SOL     OW13061   4.389   5.680   7.424 -0.1184 -0.0741  0.0218
  446SOL    HW113062   4.366   5.676   7.331  0.0522  1.5197 -0.1233
  446SOL    HW213063   4.485   5.685   7.424  0.1386 -3.0456  0.4643
  447SOL     OW13064   8.916   0.192   7.999  0.0325  0.1576  0.8001
  447SOL    HW113065   8.909   0.287   7.987  1.4483  0.2759  0.7864
  447SOL    HW213066   8.888   0.156   7.915  0.0267  0.5863  0.6123
  448SOL     OW13067   0.417   5.514   1.988 -0.0382 -1.0449  0.7198
  448SOL    HW113068   0.486   5.521   2.055 -1.1837 -1.1605  1.9519
  448SOL    HW213069   0.421   5.423   1.958  0.1047 -1.1474  1.0466
  449SOL     OW13070   5.000   3.898   5.808 -0.2225  0.6388 -0.2911
  449SOL    HW113071   5.086   3.931   5.835 -0.4229  0.3353  0.7722
  449SOL    HW213072   4.945   3.976   5.803  0.3049  0.9331 -1.7705
  450SOL     OW13073   6.725   2.463  10.724  0.1523  0.7914 -0.3146
  450SOL    HW113074   6.679   2.433  10.645 -1.2326  2.6013 -0.2841
  450SOL    HW213075   6.813   2.484  10.693  0.1942 -0.2758 -0.9703
  451SOL     OW13076   2.871   8.731   2.930 -0.3674 -0.0973  0.4480
  451SOL    HW113077   2.842   8.717   2.840  0.2809  1.8696 -0.1062
  451SOL    HW213078   2.956   8.686   2.935 -1.2061 -1.7415  0.6560
  452SOL     OW13079   8.188   8.072  11.333 -0.1783 -0.3115  0.0786
  452SOL    HW113080   8.192   8.101  11.242 -1.8138  0.4209  0.2187
  452SOL    HW213081   8.138   8.139  11.379 -1.4653 -1.8471  1.0322
  453SOL     OW13082   0.775   3.305   6.828 -0.0037 -0.3659 -0.0201
  453SOL    HW113083   0.688   3.336   6.801  0.0046 -0.8775 -0.6762
  453SOL    HW213084   0.771   3.302   6.923 -1.1431 -1.5568 -0.0689
  454SOL     OW13085  11.164  10.878  10.824  0.1197 -0.2448 -0.0374
  454SOL    HW113086  11.098  10.812  10.847 -0.7743 -0.2445 -2.4019
  454SOL    HW213087  11.245  10.827  10.813 -0.4042 -0.8806 -1.1227
  455SOL     OW13088   8.282   6.803   9.185  0.0195  0.5917 -0.5085
  455SOL    HW113089   8.346   6.857   9.139  2.0396 -2.0667 -1.0585
  455SOL    HW213090   8.301   6.816   9.278 -0.1695  1.5367 -0.5964
  456SOL     OW13091  11.168   4.979   5.863  0.2651  0.1415  0.8748
  456SOL    HW113092  11.227   5.037   5.815 -2.5948  1.2849 -1.5199
  456SOL    HW213093  11.196   4.891   5.839  0.9247  0.6532 -0.2986
  457SOL     OW13094  11.080   3.079   6.753 -0.0414 -0.3683  0.0365
  457SOL    HW113095  11.052   2.993   6.722  0.6754 -0.1946 -1.1476
  457SOL    HW213096  11.093   3.131   6.673 -1.1936  1.0965  0.7327
  458SOL     OW13097   0.735   3.122   5.382  0.1007 -0.1925  0.1253
  458SOL    HW113098   0.718   3.201   5.331 -2.1600  1.1825  2.6898
  458SOL    HW213099   0.823   3.134   5.418 -0.2240  1.2330  0.5084
  459SOL     OW13100   8.738   8.409   4.562  0.0733 -0.4057  0.3638
  459SOL    HW113101   8.827   8.389   4.532  0.7913  1.8573  0.7507
  459SOL    HW213102   8.714   8.334   4.616  1.4428 -1.4243 -0.3595
  460SOL     OW13103   3.465   9.246   4.296 -0.0698  0.1184  0.2991
  460SOL    HW113104   3.553   9.236   4.330  0.7680  0.2853 -1.6490
  460SOL    HW213105   3.408   9.240   4.372  1.7007  1.5682  1.8220
  461SOL     OW13106   6.827  10.968  10.394 -0.2726 -0.2748  0.0642
  461SOL    HW113107   6.760  11.030  10.422 -0.9994 -0.3960 -1.2926
  461SOL    HW213108   6.820  10.968  10.299 -2.1383 -4.3064 -0.0326
  462SOL     OW13109  10.350   6.917   6.729 -0.7073  0.9468  0.1420
  462SOL    HW113110  10.382   6.864   6.802 -0.2133  2.7994  1.3443
  462SOL    HW213111  10.293   6.858   6.680  1.8115 -1.4837 -0.1294
  463SOL     OW13112   7.134   3.029   0.003  0.0154 -0.2044  0.3215
  463SOL    HW113113   7.131   2.933  -0.002  1.6897 -0.2469 -0.6071
  463SOL    HW213114   7.177   3.046   0.087  2.4059 -0.4070 -0.7678
  464SOL     OW13115   8.347   6.322   5.700 -0.2418  0.0545  0.2387
  464SOL    HW113116   8.253   6.307   5.709 -0.2600  0.2859  0.4304
  464SOL    HW213117   8.381   6.239   5.666 -0.6383  0.2543 -0.6664
  465SOL     OW13118   2.662   1.151   8.643  0.4268 -0.4592  0.1081
  465SOL    HW113119   2.676   1.057   8.642  1.1128 -0.3707  0.6537
  465SOL    HW213120   2.725   1.185   8.578  0.7052 -0.3158  0.4483
  466SOL     OW13121  10.969   8.755   0.488 -0.1731  0.0942 -0.5333
  466SOL    HW113122  11.008   8.671   0.512 -2.8985 -1.0379  0.4174
  466SOL    HW213123  10.999   8.772   0.399  1.3594 -1.3047 -0.3132
  467SOL     OW13124   3.213   3.721   1.624  0.0814  0.0002 -0.0225
  467SOL    HW113125   3.268   3.796   1.647 -0.0690  0.2201 -0.3783
  467SOL    HW213126   3.267   3.644   1.647  0.1564  0.2104  0.5309
  468SOL     OW13127  11.878   6.835   9.207  0.2518 -0.0598  0.2209
  468SOL    HW113128  11.852   6.926   9.219 -1.0456 -0.6761  2.6735
  468SOL    HW213129  11.829   6.807   9.130  1.3773  1.5157 -1.1394
  469SOL     OW13130  10.959   5.837   9.990 -0.0792 -0.2201 -0.1279
  469SOL    HW113131  11.038   5.890  10.001 -0.0025 -0.5457  1.0094
  469SOL    HW213132  10.943   5.836   9.895 -0.2299  2.0400 -0.1754
  470SOL     OW13133   6.061   3.438   6.381 -0.8451 -0.2885 -0.0307
  470SOL    HW113134   6.045   3.373   6.449 -1.6148  0.3013  0.3712
  470SOL    HW213135   6.153   3.427   6.358 -0.5887 -0.5384  1.0606
  471SOL     OW13136  11.517   9.174   5.233  0.4956 -0.1251 -0.0385
  471SOL    HW113137  11.511   9.088   5.190  1.6880  0.4394 -1.3939
  471SOL    HW213138  11.465   9.163   5.313 -0.1325 -1.8310 -0.6114
  472SOL     OW13139  11.247   9.119  10.205 -0.5346  0.7607 -0.5281
  472SOL    HW113140  11.318   9.062  10.235  0.6849  2.8014  0.6886
  472SOL    HW213141  11.266   9.136  10.113 -0.3608  0.0174 -0.6332
  473SOL     OW13142   4.796   7.958   0.498  0.6575  0.7849 -0.0804
  473SOL    HW113143   4.762   7.869   0.487  0.5170  0.8069  0.1796
  473SOL    HW213144   4.782   7.999   0.412  2.3444  0.0182 -0.7718
  474SOL     OW13145   1.263   3.135   5.229  0.0157 -0.2367 -0.4556
  474SOL    HW113146   1.277   3.204   5.295  0.6349  0.7372 -1.5778
  474SOL    HW213147   1.344   3.133   5.179 -0.6751 -0.5460 -1.5808
  475SOL     OW13148   5.259   5.546   7.438 -0.2855  0.0568  0.0429
  475SOL    HW113149   5.341   5.590   7.418 -0.9039  1.2121 -0.0340
  475SOL    HW213150   5.247   5.483   7.366  1.6954 -1.8602  1.3015
  476SOL     OW13151   4.204  10.050   3.199  0.1593  0.0355  0.1099
  476SOL    HW113152   4.210   9.969   3.250 -0.2702  0.5151  0.9514
  476SOL    HW213153   4.247  10.029   3.116  0.0894 -1.0417  0.3221
  477SOL     OW13154   3.187  10.759   9.411  0.1897 -0.1048  0.3884
  477SOL    HW113155   3.264  10.804   9.446  0.6365 -2.1122  2.1581
  477SOL    HW213156   3.141  10.726   9.488 -2.0985  0.4078 -0.6676
  478SOL     OW13157   4.060   4.631   9.580  0.8047 -0.2043 -0.2110
  478SOL    HW113158   4.025   4.716   9.605 -3.5483 -2.1034  1.1347
  478SOL    HW213159   4.040   4.623   9.487 -0.8046 -0.5065  0.1314
  479SOL     OW13160   7.662   6.112   7.657 -0.9310  0.1822 -0.0449
  479SOL    HW113161   7.645   6.192   7.705 -0.3969  1.3462 -1.7103
  479SOL    HW213162   7.627   6.128   7.570  0.2723 -0.9277 -0.7707
  480SOL     OW13163  10.536   2.643   3.692 -0.1937  0.3603 -0.2167
  480SOL    HW113164  10.533   2.601   3.778  0.7795  1.2695  0.2840
  480SOL    HW213165  10.563   2.573   3.632  1.8564  0.3286  0.6707
  481SOL     OW13166   7.103   9.107   1.128 -0.5738 -0.9591  0.4763
  481SOL    HW113167   7.143   9.074   1.048  1.7596 -2.2022  2.0490
  481SOL    HW213168   7.020   9.146   1.099  0.8377  0.0157 -2.7060
  482SOL     OW13169   3.959   6.132   9.232  0.2394  0.1151  0.1834
  482SOL    HW113170   4.001   6.049   9.257 -0.5763 -0.4951 -0.3819
  482SOL    HW213171   3.890   6.105   9.171 -2.0295  0.8942  2.2762
  483SOL     OW13172   5.681   6.401   4.824  0.0257 -0.1073 -0.0942
  483SOL    HW113173   5.760   6.442   4.859  0.8251  0.8198 -2.7172
  483SOL    HW213174   5.611   6.465   4.839  0.8284  1.3662 -2.1297
  484SOL     OW13175   1.620   3.419   0.437  0.0077  0.1845  0.7875
  484SOL    HW113176   1.591   3.338   0.395  0.0756 -0.0584  1.2029
  484SOL    HW213177   1.614   3.401   0.531  0.1218  0.6269  0.8835
  485SOL     OW13178   7.786   6.673   6.788 -0.1571 -0.0609  0.2187
  485SOL    HW113179   7.794   6.760   6.749 -0.9821  0.7180  1.6758
  485SOL    HW213180   7.747   6.619   6.719  0.3880  0.7079 -0.7170
  486SOL     OW13181   7.611  11.194   6.436 -0.3832  0.0765 -0.0612
  486SOL    HW113182   7.646  11.105   6.426  1.5360  0.5134  1.8342
  486SOL    HW213183   7.590  11.222   6.347  3.6672 -0.5311 -1.4121
  487SOL     OW13184   8.939  11.767  10.926 -0.4469  0.4000 -0.7287
  487SOL    HW113185   8.958  11.860  10.934  1.0301  0.1095 -0.6220
  487SOL    HW213186   9.019  11.729  10.890 -0.3466 -1.0862  0.9351
  488SOL     OW13187   5.497   9.415   0.244 -0.3817 -0.3015  0.2136
  488SOL    HW113188   5.542   9.385   0.165  2.1906  1.2870  0.9567
  488SOL    HW213189   5.560   9.405   0.314 -2.1916 -0.5450  1.8967
  489SOL     OW13190   4.068   7.411   3.607  0.2251 -0.3867  0.1848
  489SOL    HW113191   4.099   7.347   3.543 -0.0481 -0.1586 -0.1787
  489SOL    HW213192   4.024   7.477   3.555 -0.1031 -0.2575  0.6226
  490SOL     OW13193   2.427   7.269   0.625 -0.8441  0.4451 -0.1073
  490SOL    HW113194   2.354   7.236   0.677 -1.0643 -0.0936 -0.7387
  490SOL    HW213195   2.451   7.195   0.568 -2.2694  1.7510 -2.5789
  491SOL     OW13196   3.200   0.376  11.804  0.6149 -0.1061 -0.2250
  491SOL    HW113197   3.173   0.463  11.833 -2.4979 -1.4258  1.4010
  491SOL    HW213198   3.235   0.335  11.883 -0.9310 -1.2881 -0.0927
  492SOL     OW13199   7.177   3.258   9.399 -0.6464 -0.8193 -0.0556
  492SOL    HW113200   7.135   3.197   9.338 -1.2347 -1.2988  0.7991
  492SOL    HW213201   7.107   3.318   9.424 -1.0469 -1.9723  1.8234
  493SOL     OW13202   7.305   6.066   7.644 -0.2185 -0.1653  0.1732
  493SOL    HW113203   7.307   6.083   7.739  2.5763 -0.4797  0.2542
  493SOL    HW213204   7.326   6.150   7.604  3.4626 -0.9230  0.1510
  494SOL     OW13205  10.251   9.953   5.855 -0.1151  0.8073 -0.2725
  494SOL    HW113206  10.334   9.979   5.894  0.0885 -0.2851  0.0648
  494SOL    HW213207  10.247  10.000   5.772  0.6379  1.2016 -0.0941
  495SOL     OW13208   5.813   4.917  11.834  0.1184  0.2488  0.6116
  495SOL    HW113209   5.818   4.884  11.744 -0.4957  0.0787  0.6324
  495SOL    HW213210   5.809   5.012  11.825  0.7921  0.2693  0.4969
  496SOL     OW13211   1.115  10.952   5.775 -0.3687  0.3304  0.1224
  496SOL    HW113212   1.100  11.046   5.766 -1.1241  0.2467  0.4086
  496SOL    HW213213   1.027  10.914   5.773 -0.1413 -0.2715  1.0474
  497SOL     OW13214   4.872   7.736   9.958 -0.2390  0.1228  1.1006
  497SOL    HW113215   4.945   7.718   9.900 -0.3485 -0.3047  1.0916
  497SOL    HW213216   4.808   7.667   9.939  0.8361 -1.7118  3.6274
  498SOL     OW13217  11.446   6.128   1.493  0.0417  0.5737 -0.2945
  498SOL    HW113218  11.378   6.159   1.553  0.3362  0.0882  0.3018
  498SOL    HW213219  11.487   6.208   1.459 -1.1279  0.8837 -1.0258
  499SOL     OW13220   2.418  11.779   5.958  0.0813 -0.5827  0.3711
  499SOL    HW113221   2.472  11.816   5.889 -0.0920  0.3715  0.7411
  499SOL    HW213222   2.341  11.835   5.961  0.0174 -0.7082  1.2397
  500SOL     OW13223   3.403   4.089   0.303  0.1868  0.4447  0.0886
  500SOL    HW113224   3.452   4.044   0.234 -0.6375  3.4686 -2.6849
  500SOL    HW213225   3.470   4.134   0.354  0.6358  1.0825 -1.0226
  501SOL     OW13226   7.158   3.779   8.438  0.5482 -0.1794  0.1259
  501SOL    HW113227   7.074   3.755   8.477  0.1302  0.8594 -0.0992
  501SOL    HW213228   7.148   3.760   8.345  0.8706 -0.8408  0.2156
  502SOL     OW13229  10.531  10.648  10.052  0.0503 -0.2518 -0.0666
  502SOL    HW113230  10.448  10.685  10.084  0.6675 -0.1094  1.4614
  502SOL    HW213231  10.578  10.723  10.017 -0.3061 -0.2713 -0.6020
  503SOL     OW13232   7.169   5.944   6.012 -0.1859 -0.0418  0.2556
  503SOL    HW113233   7.227   5.922   6.085  0.2871 -1.0746 -0.4000
  503SOL    HW213234   7.199   6.030   5.982  0.6483 -0.3056  0.2934
  504SOL     OW13235   0.996   3.127   5.178  0.4956 -0.5846  0.1241
  504SOL    HW113236   1.088   3.145   5.195 -0.1514  3.0766  0.4632
  504SOL    HW213237   0.983   3.152   5.087 -0.2842 -0.5631  0.2369
  505SOL     OW13238  11.720   3.588   9.022 -0.0236  0.1385 -0.2319
  505SOL    HW113239  11.718   3.642   9.102  0.6734 -0.0939 -0.0471
  505SOL    HW213240  11.776   3.637   8.962  0.9868 -0.5862  0.0988
  506SOL     OW13241   0.109   1.072   0.319  0.0280 -0.2407 -0.1224
  506SOL    HW113242   0.140   1.143   0.263 -2.4600  0.2066 -1.0361
  506SOL    HW213243   0.050   1.021   0.264 -0.1606 -1.5608  1.2392
  507SOL     OW13244  11.896   7.598   6.452  0.8221  0.1997 -0.5447
  507SOL    HW113245  11.961   7.587   6.383  0.6991  0.2710 -0.6740
  507SOL    HW213246  11.927   7.544   6.524  2.1084  1.7938  0.1634
  508SOL     OW13247   3.810  11.047  10.235 -0.0519 -0.3642 -0.1604
  508SOL    HW113248   3.729  11.097  10.246  0.0873 -0.1322 -0.1715
  508SOL    HW213249   3.851  11.084  10.156  0.0269 -0.5300 -0.1978
  509SOL     OW13250   7.783   8.734   9.024  0.1856 -0.1408  0.3912
  509SOL    HW113251   7.832   8.764   9.100  0.3671 -1.1926  0.7120
  509SOL    HW213252   7.708   8.686   9.061  1.9515 -3.4833  0.0541
  510SOL     OW13253   5.594   5.655   2.066 -0.0698  0.0748 -0.3026
  510SOL    HW113254   5.629   5.698   2.144 -1.7282  0.3820  0.3132
  510SOL    HW213255   5.634   5.568   2.066  0.3229  0.2479  0.6165
  511SOL     OW13256   3.553   8.354   8.833 -0.0509 -0.1037 -0.8720
  511SOL    HW113257   3.509   8.404   8.764  0.6249  0.7373 -0.7139
  511SOL    HW213258   3.485   8.296   8.868 -0.8599  0.7221 -1.0466
  512SOL     OW13259   1.670   4.944   4.639  0.2771  0.1763  1.0254
  512SOL    HW113260   1.670   4.952   4.544 -0.8200 -1.8220  0.8129
  512SOL    HW213261   1.645   4.853   4.656 -0.7507  0.8022  3.2399
  513SOL     OW13262   6.975   8.325  10.495 -0.3030  0.0901 -0.4936
  513SOL    HW113263   7.049   8.265  10.501 -0.7831 -0.4859 -0.1352
  513SOL    HW213264   6.970   8.366  10.582 -0.5583 -0.0707 -0.4297
  514SOL     OW13265   2.149   9.480  11.814 -0.1555  0.1026  0.8072
  514SOL    HW113266   2.209   9.495  11.741  1.2043 -1.9869  1.4172
  514SOL    HW213267   2.103   9.563  11.825  0.2644  0.7560 -1.8019
  515SOL     OW13268   8.592   9.018   1.175  0.3724 -0.0446  0.8277
  515SOL    HW113269   8.624   9.021   1.084 -0.1473 -0.1884  0.6400
  515SOL    HW213270   8.616   9.103   1.211  1.6122 -0.4080  0.9068
  516SOL     OW13271  10.783  10.059   2.024  0.0535 -0.5439 -0.4120
  516SOL    HW113272  10.756   9.968   2.038 -0.3271 -0.6563 -1.6869
  516SOL    HW213273  10.705  10.101   1.988  0.0501  0.4441  0.7045
  517SOL     OW13274  10.546  10.958   0.028 -0.0317  0.1306  0.3887
  517SOL    HW113275  10.555  10.909  -0.054  0.7000  2.3441 -0.9482
  517SOL    HW213276  10.635  10.976   0.056 -0.2665  1.1702  0.5190
  518SOL     OW13277   3.729   0.232   3.888  0.0204 -0.0336 -0.0200
  518SOL    HW113278   3.699   0.270   3.970 -1.3631 -0.3952 -0.3283
  518SOL    HW213279   3.821   0.209   3.904  0.8696  3.1492  0.2402
  519SOL     OW13280   3.661   3.346   1.923 -0.3223  0.3081  0.0855
  519SOL    HW113281   3.623   3.343   2.010 -4.3845  0.0066 -1.4762
  519SOL    HW213282   3.637   3.262   1.883 -0.9945  1.4609 -2.1319
  520SOL     OW13283  11.786   7.175   7.843 -0.1661  0.0530 -0.1725
  520SOL    HW113284  11.791   7.124   7.924  1.6719  0.8790  0.2876
  520SOL    HW213285  11.877   7.187   7.817 -0.6841  0.5885 -1.8898
  521SOL     OW13286   3.114   4.270   8.615  0.4905  0.0728  0.1551
  521SOL    HW113287   3.126   4.195   8.557 -0.0684 -0.8765  1.2200
  521SOL    HW213288   3.194   4.271   8.669 -0.1470 -0.7080  1.1546
  522SOL     OW13289   7.271   5.888   2.705  0.1527 -0.1774 -0.5055
  522SOL    HW113290   7.289   5.871   2.797 -1.5897 -1.2444 -0.3135
  522SOL    HW213291   7.357   5.900   2.665  0.9078  2.1742  1.5620
  523SOL     OW13292   3.133   4.022   8.125 -0.0280 -0.0764 -0.0835
  523SOL    HW113293   3.080   3.946   8.101 -1.6678  1.0044 -0.0614
  523SOL    HW213294   3.179   3.995   8.205 -0.7374 -0.9754  0.0437
  524SOL     OW13295   5.320   3.471   9.350  0.2220 -0.0468  0.5662
  524SOL    HW113296   5.357   3.385   9.371  3.6468  1.0376 -0.3584
  524SOL    HW213297   5.297   3.465   9.258  1.6907  0.3749  0.1561
  525SOL     OW13298   5.776   6.650   5.588 -0.0636  0.0694 -0.0220
  525SOL    HW113299   5.695   6.622   5.546 -0.3293 -2.1662  1.7946
  525SOL    HW213300   5.845   6.624   5.526 -0.4282 -3.3386  0.8011
  526SOL     OW13301   9.560   5.355   8.321  0.4863  0.1938 -0.1729
  526SOL    HW113302   9.472   5.329   8.295  0.4355 -0.2101  0.3872
  526SOL    HW213303   9.616   5.282   8.294  0.2499 -0.8703  2.0270
  527SOL     OW13304   5.033   3.580   2.937 -0.5328 -0.5630 -0.5740
  527SOL    HW113305   5.125   3.604   2.925 -0.6637 -0.2207 -0.9020
  527SOL    HW213306   5.015   3.600   3.029 -0.6708  0.7216 -0.8651
  528SOL     OW13307   7.833   0.098   4.684 -0.1563  0.0103 -0.5263
  528SOL    HW113308   7.895   0.025   4.676 -0.7313 -0.8040  1.7498
  528SOL    HW213309   7.774   0.086   4.610 -1.3081 -2.9869  0.7149
  529SOL     OW13310   9.764   0.900   7.197 -0.0455 -0.1191 -0.7999
  529SOL    HW113311   9.740   0.924   7.107 -2.1820 -0.0668 -0.2523
  529SOL    HW213312   9.835   0.836   7.186 -0.8184 -0.7384 -2.5576
  530SOL     OW13313  11.574   9.076  10.014  0.9174  0.6927 -0.1843
  530SOL    HW113314  11.571   9.162  10.057 -0.9838  0.5288  0.0937
  530SOL    HW213315  11.626   9.021  10.073 -0.7471  0.7630  1.4034
  531SOL     OW13316   3.581   5.596   3.522  0.7280 -0.6780  0.0509
  531SOL    HW113317   3.633   5.640   3.455  2.3784  0.8079  2.1607
  531SOL    HW213318   3.620   5.623   3.605 -1.0098 -2.6606  1.6566
  532SOL     OW13319   4.424   4.101   8.278 -0.3386  0.3353 -0.4799
  532SOL    HW113320   4.418   4.023   8.332  2.6601  0.2474 -0.0925
  532SOL    HW213321   4.346   4.152   8.299 -1.0009 -1.3085  1.2677
  533SOL     OW13322  10.935   6.399   8.630  0.0545  0.2896 -0.0517
  533SOL    HW113323  10.949   6.411   8.536  1.4682 -0.2491  0.0582
  533SOL    HW213324  11.022   6.411   8.669 -0.8534  2.6720  1.4557
  534SOL     OW13325  10.564  10.683   4.854  0.6337  0.6669  0.0992
  534SOL    HW113326  10.482  10.726   4.831 -0.4183 -0.5403  1.3815
  534SOL    HW213327  10.603  10.659   4.769 -2.1641 -1.9669 -0.6353
  535SOL     OW13328  11.526   4.558  10.931  0.1417  0.3272  0.3853
  535SOL    HW113329  11.436   4.547  10.901 -0.2638 -0.5310  1.8303
  535SOL    HW213330  11.528   4.647  10.967  0.5405  1.2308 -1.7534
  536SOL     OW13331   8.766  11.240   2.900 -0.2336  0.1183  0.4674
  536SOL    HW113332   8.746  11.221   2.808  0.4289  1.4741  0.0273
  536SOL    HW213333   8.859  11.218   2.909 -0.1777  0.4415  0.6881
  537SOL     OW13334  11.567   4.330   3.749  0.8480 -0.3390  0.1459
  537SOL    HW113335  11.513   4.328   3.669  1.7187 -1.1463 -0.4486
  537SOL    HW213336  11.504   4.345   3.820 -0.1150 -0.8465 -0.5715
  538SOL     OW13337   9.282   2.382   6.435  0.1371  0.8059 -0.4608
  538SOL    HW113338   9.216   2.318   6.408  0.2410  0.4484  0.1161
  538SOL    HW213339   9.287   2.372   6.531  0.2635  1.5689 -0.3808
  539SOL     OW13340  11.548   4.817   8.880  0.2302 -0.0296 -0.3864
  539SOL    HW113341  11.496   4.878   8.932  0.3399 -0.5733  0.3835
  539SOL    HW213342  11.615   4.785   8.940  1.8381  1.0894 -1.5298
  540SOL     OW13343   4.393   8.828   4.729 -0.6217  0.2865 -0.7708
  540SOL    HW113344   4.467   8.853   4.784  2.2677 -3.4203 -2.4816
  540SOL    HW213345   4.363   8.745   4.765 -2.4184  0.5679 -1.5222
  541SOL     OW13346   1.238   7.019  10.043 -0.5278  0.8472 -0.0545
  541SOL    HW113347   1.277   6.971  10.117 -0.0876  1.7129  0.2869
  541SOL    HW213348   1.144   7.007  10.054 -0.4257 -0.3956 -0.2964
  542SOL     OW13349   2.064   7.904   4.707 -0.2852  0.2114  0.1788
  542SOL    HW113350   2.145   7.924   4.661 -1.2345  1.3613 -1.0747
  542SOL    HW213351   2.088   7.907   4.800  0.7788  2.1780 -0.1098
  543SOL     OW13352   6.931  10.032   9.032  0.1565 -0.4916  0.2460
  543SOL    HW113353   6.903  10.016   8.942 -0.8914 -0.4128  0.5516
  543SOL    HW213354   6.980  10.115   9.027 -2.7045  1.3225  0.2592
  544SOL     OW13355   1.213   2.309   0.856 -0.5197 -0.0612 -0.4565
  544SOL    HW113356   1.273   2.330   0.784 -1.0692  0.0356 -0.8896
  544SOL    HW213357   1.259   2.341   0.934 -0.4197  0.8889 -0.8848
  545SOL     OW13358   0.300   5.538  10.400  0.6204 -0.3482  0.1877
  545SOL    HW113359   0.340   5.473  10.458 -0.5876  0.3795  1.9072
  545SOL    HW213360   0.249   5.486  10.337  0.6866 -1.1109  0.7486
  546SOL     OW13361   5.808   4.616   5.050  0.0412  0.0398 -0.1509
  546SOL    HW113362   5.876   4.644   4.989  0.5382  2.3924  1.3547
  546SOL    HW213363   5.732   4.671   5.029  0.0105  0.4283  0.9071
  547SOL     OW13364   7.437   8.876   9.223  0.4467  0.0007  0.0169
  547SOL    HW113365   7.453   8.843   9.311  1.1273 -1.0639 -0.4803
  547SOL    HW213366   7.461   8.803   9.166  1.0585  1.0370 -1.0958
  548SOL     OW13367   4.723   6.572   8.108 -0.0949  0.4304  0.2111
  548SOL    HW113368   4.809   6.570   8.066  0.0960  1.4025  0.5389
  548SOL    HW213369   4.679   6.647   8.069 -0.6497  0.1690  0.3285
  549SOL     OW13370  10.014   4.120   7.216  0.2997 -0.6638 -0.2872
  549SOL    HW113371   9.982   4.184   7.280 -0.3957  0.1589 -1.4224
  549SOL    HW213372  10.106   4.107   7.239  0.2541  0.1806  0.4195
  550SOL     OW13373   3.800   8.110   0.298  0.1162 -0.1576 -0.0556
  550SOL    HW113374   3.809   8.023   0.336 -0.9715 -0.0097  0.5739
  550SOL    HW213375   3.718   8.106   0.248 -0.5275  0.8204  0.8845
  551SOL     OW13376   5.419   1.465   1.153  0.2485 -0.7599  0.1918
  551SOL    HW113377   5.362   1.402   1.198 -1.8544  0.9363  0.0489
  551SOL    HW213378   5.429   1.430   1.065 -2.6276 -0.0112 -0.5518
  552SOL     OW13379   3.340   0.189   5.263  0.2523  0.4739  0.0425
  552SOL    HW113380   3.428   0.215   5.235  0.6973  0.1963  1.1217
  552SOL    HW213381   3.285   0.263   5.239  1.2997  1.9982  2.0506
  553SOL     OW13382   5.960   8.933  11.181 -0.6436 -0.3191 -0.5851
  553SOL    HW113383   5.957   8.840  11.204 -0.5824 -0.1651  0.0443
  553SOL    HW213384   5.891   8.973  11.233 -0.6438  0.0003 -0.8245
  554SOL     OW13385   1.583   3.112  11.297  0.7065  0.2424 -0.5501
  554SOL    HW113386   1.504   3.159  11.270  0.0539 -1.0022 -0.8790
  554SOL    HW213387   1.571   3.023  11.262  1.8897 -0.1823  0.0730
  555SOL     OW13388   2.346   5.960   6.726 -0.5652 -0.1652  0.1579
  555SOL    HW113389   2.438   5.940   6.741 -0.9737 -1.2449  1.4291
  555SOL    HW213390   2.312   5.983   6.813 -2.0287 -2.2105  0.1843
  556SOL     OW13391   3.398   9.221  10.813  0.0076 -0.2584  0.0259
  556SOL    HW113392   3.414   9.150  10.876  1.2939 -1.3995 -1.4972
  556SOL    HW213393   3.341   9.182  10.747 -2.6423  1.3881  1.1844
  557SOL     OW13394   8.562   1.273  10.060  0.2853 -0.0306 -0.8641
  557SOL    HW113395   8.545   1.363  10.086 -2.0932 -1.3051  2.7656
  557SOL    HW213396   8.496   1.255   9.992  0.0876  0.6598 -0.8603
  558SOL     OW13397   4.698  11.795   7.363  0.4144  0.2617 -0.2599
  558SOL    HW113398   4.647  11.821   7.439 -1.4172  0.8891 -1.6245
  558SOL    HW213399   4.782  11.841   7.373  0.6988 -0.6252  1.9317
  559SOL     OW13400   9.684   4.567   4.777 -0.6837 -0.1784  0.3343
  559SOL    HW113401   9.773   4.600   4.790 -1.2079  1.6749 -0.4670
  559SOL    HW213402   9.695   4.494   4.716  0.2497  0.4066 -0.2270
  560SOL     OW13403   0.122   8.968   4.933  0.2908  0.5402  0.1368
  560SOL    HW113404   0.131   8.880   4.970  1.5011 -0.0753 -1.5217
  560SOL    HW213405   0.087   9.020   5.006 -2.5703 -1.7064  0.5832
  561SOL     OW13406   8.364  11.658   3.202 -0.9151  0.1811  0.1581
  561SOL    HW113407   8.441  11.603   3.215 -0.3951  1.2222  1.8639
  561SOL    HW213408   8.290  11.597   3.200 -0.0853 -0.8714 -1.8341
  562SOL     OW13409   3.632   3.005   7.569  0.1148 -1.2938  0.1290
  562SOL    HW113410   3.591   2.922   7.542 -1.3670 -0.5213 -0.0894
  562SOL    HW213411   3.691   2.980   7.640 -0.9248 -2.4462  0.6296
  563SOL     OW13412   5.272   6.469   2.170  0.1115  0.0201  0.5053
  563SOL    HW113413   5.267   6.394   2.229 -3.5128 -1.3086 -1.1496
  563SOL    HW213414   5.365   6.491   2.166  1.4098 -4.3903  1.1315
  564SOL     OW13415   5.334   1.284   9.948 -0.5906  0.1403 -0.5668
  564SOL    HW113416   5.426   1.312   9.948 -0.5377  0.1868  1.6365
  564SOL    HW213417   5.304   1.304  10.037 -2.1341 -1.7894 -0.6069
  565SOL     OW13418   9.872   7.096   4.076  0.2899 -0.1506 -0.0006
  565SOL    HW113419   9.802   7.142   4.123  2.8463  2.1318  1.8277
  565SOL    HW213420   9.941   7.085   4.141  2.1081 -1.2891 -2.0229
  566SOL     OW13421   4.189   6.102   1.461 -0.7070  0.0905 -0.2325
  566SOL    HW113422   4.199   6.187   1.503 -1.5564 -0.1226  0.4315
  566SOL    HW213423   4.211   6.038   1.530  0.3858 -0.2358 -0.8543
  567SOL     OW13424   8.918   6.078   4.073  0.2381 -0.0987  0.8384
  567SOL    HW113425   8.904   6.041   3.987  0.8217 -0.8701  1.0599
  567SOL    HW213426   8.959   6.163   4.056  0.1071 -0.1324  0.3484
  568SOL     OW13427   7.756   3.105   8.087 -0.0929 -0.1410  0.1553
  568SOL    HW113428   7.706   3.070   8.161 -0.9611 -0.7367 -0.6997
  568SOL    HW213429   7.713   3.188   8.066 -0.8956 -0.7540 -0.7163
  569SOL     OW13430   4.932   1.731   5.449 -0.0207 -0.0353  0.0721
  569SOL    HW113431   4.903   1.818   5.478  0.5710  0.4457 -0.7310
  569SOL    HW213432   4.980   1.696   5.524 -2.1729 -0.6507  1.2572
  570SOL     OW13433   4.196   2.404   1.396 -0.0701 -0.7844 -0.7910
  570SOL    HW113434   4.259   2.460   1.351  1.8686 -1.7870  0.5494
  570SOL    HW213435   4.148   2.361   1.325  1.8444 -1.1733 -1.9232
  571SOL     OW13436   7.313   1.480   3.593 -0.0883 -0.2352 -0.1086
  571SOL    HW113437   7.282   1.471   3.503  1.1670  0.0912 -0.5843
  571SOL    HW213438   7.285   1.568   3.619 -1.4940 -0.7545  0.2657
  572SOL     OW13439   6.855   2.317   8.489  0.4082 -0.5859  0.2346
  572SOL    HW113440   6.826   2.263   8.415 -0.2308  1.0855 -0.8042
  572SOL    HW213441   6.914   2.382   8.450  0.5092 -0.0186  1.2922
  573SOL     OW13442   3.147   2.239   1.520  0.0595  0.4312 -0.3559
  573SOL    HW113443   3.160   2.326   1.557 -0.8119  0.0661  0.8665
  573SOL    HW213444   3.236   2.208   1.501  0.5159  0.8701  0.9374
  574SOL     OW13445  10.917   5.148   5.599 -0.1896 -0.1731 -0.5709
  574SOL    HW113446  11.002   5.175   5.566 -0.3491  2.0216  0.6758
  574SOL    HW213447  10.854   5.195   5.544 -0.5843 -0.4994 -0.4088
  575SOL     OW13448   0.975   5.320   7.957  0.6162  0.2083  0.2823
  575SOL    HW113449   0.971   5.409   7.992  0.6053 -0.0992  1.0759
  575SOL    HW213450   0.913   5.320   7.884  0.6664  0.8688  0.2326
  576SOL     OW13451   2.285  11.820   8.195  0.3157 -0.5063 -0.2540
  576SOL    HW113452   2.329  11.874   8.130  2.1606 -0.9545  0.5576
  576SOL    HW213453   2.255  11.744   8.146  0.2968 -0.1182 -0.8592
  577SOL     OW13454   8.415   2.697   0.524  0.5993 -0.0159  0.2097
  577SOL    HW113455   8.394   2.620   0.576  0.6430  0.5749  1.1214
  577SOL    HW213456   8.369   2.769   0.567  0.6055  0.4865 -0.5879
  578SOL     OW13457  10.180   8.601   9.436 -0.0965  0.9388  0.5604
  578SOL    HW113458  10.134   8.588   9.353 -1.4912  0.5021  1.3592
  578SOL    HW213459  10.237   8.676   9.421  0.1179  0.5000 -0.9599
  579SOL     OW13460  11.209   1.425   3.841  0.3596 -0.2755  0.0000
  579SOL    HW113461  11.121   1.423   3.877  0.1308  1.6644 -0.3387
  579SOL    HW213462  11.248   1.341   3.867 -1.8031 -1.5108 -0.4903
  580SOL     OW13463   3.327   6.385   6.989  0.2553 -0.4057  0.1471
  580SOL    HW113464   3.376   6.452   7.036 -1.1072  0.8079 -0.1060
  580SOL    HW213465   3.348   6.401   6.897 -1.3706  0.8194 -0.0593
  581SOL     OW13466   6.990   9.691   6.446 -0.4474  0.2966  0.4851
  581SOL    HW113467   6.924   9.626   6.469 -0.5250  0.5040  0.8531
  581SOL    HW213468   6.974   9.709   6.353  0.2512 -0.9828  0.0973
  582SOL     OW13469  10.648   0.735   7.126 -0.1922 -0.2747 -0.2808
  582SOL    HW113470  10.719   0.752   7.189  1.7327 -2.0163 -1.8225
  582SOL    HW213471  10.573   0.781   7.162  1.2647  0.2737  2.3543
  583SOL     OW13472   3.563   7.357   5.276 -0.4626 -0.3673 -0.6793
  583SOL    HW113473   3.486   7.405   5.246 -1.2953 -0.7549  0.7020
  583SOL    HW213474   3.551   7.268   5.243 -0.8264 -0.5272 -0.1288
  584SOL     OW13475   2.969   4.772   3.306  0.8415 -0.0701  0.3634
  584SOL    HW113476   2.916   4.846   3.334 -0.6599 -0.8329 -0.3306
  584SOL    HW213477   3.020   4.748   3.384  2.7761  2.7593  0.1184
  585SOL     OW13478   3.832   4.133   3.168 -0.2489  0.6997 -0.0056
  585SOL    HW113479   3.796   4.218   3.193  0.4361  1.0266 -0.1086
  585SOL    HW213480   3.759   4.088   3.126 -0.8754  0.8733  0.8787
  586SOL     OW13481   6.336   6.709   0.745  0.4948 -0.3112  0.0172
  586SOL    HW113482   6.427   6.688   0.764  0.8642  0.4864 -0.7712
  586SOL    HW213483   6.324   6.684   0.653 -0.3686 -1.3217  0.3943
  587SOL     OW13484   4.511   3.965   3.792  0.4108 -0.2300 -0.3024
  587SOL    HW113485   4.519   3.888   3.849 -2.3599  0.3226  1.0163
  587SOL    HW213486   4.601   3.992   3.776  1.3842 -1.7571  2.0095
  588SOL     OW13487   6.276   5.463  10.067 -0.4135 -0.3904 -0.5989
  588SOL    HW113488   6.220   5.539  10.084 -0.4955 -0.5580 -0.1038
  588SOL    HW213489   6.233   5.418   9.993 -1.5659 -1.1113  0.4617
  589SOL     OW13490   6.236   7.998  10.415  1.2878  0.4108 -0.1586
  589SOL    HW113491   6.323   7.969  10.443  1.0744 -0.9009 -0.7570
  589SOL    HW213492   6.188   8.012  10.497  2.2148  1.7281  0.1911
  590SOL     OW13493   7.537   9.345   5.728  0.2205 -0.4212 -0.4817
  590SOL    HW113494   7.546   9.298   5.811 -0.8131 -0.3577 -0.3169
  590SOL    HW213495   7.604   9.413   5.731  0.5355 -0.7507  0.0695
  591SOL     OW13496  10.682   3.847   1.092  0.1894 -0.5565 -0.1744
  591SOL    HW113497  10.615   3.859   1.160  1.0595 -4.0287  1.5351
  591SOL    HW213498  10.637   3.797   1.024  0.7689 -2.3375  0.6890
  592SOL     OW13499  11.631   4.590   3.287 -0.4300 -0.6589 -0.2840
  592SOL    HW113500  11.633   4.598   3.192  0.9689 -1.1824 -0.3120
  592SOL    HW213501  11.538   4.595   3.309 -0.8483 -1.4061 -1.7505
  593SOL     OW13502   3.723   7.024   2.700 -0.1752  1.3587  0.2980
  593SOL    HW113503   3.702   7.076   2.778 -1.3876  2.1665 -0.5319
  593SOL    HW213504   3.704   7.082   2.627 -2.1807 -0.4144 -0.6885
  594SOL     OW13505   8.534   0.042   0.422  0.8860 -0.0722 -0.2168
  594SOL    HW113506   8.475  -0.008   0.365  0.8083  0.5502 -0.6953
  594SOL    HW213507   8.608  -0.017   0.436 -0.3168 -1.3070  1.3094
  595SOL     OW13508   4.998   1.063   3.030 -0.1088  0.2787 -0.4074
  595SOL    HW113509   4.971   1.068   2.938 -0.8172  1.1678 -0.1549
  595SOL    HW213510   4.923   1.023   3.074  0.2052 -0.0800 -0.1888
  596SOL     OW13511   4.302   2.324   6.556  0.1619 -0.5586 -0.3231
  596SOL    HW113512   4.328   2.335   6.465 -0.5938 -1.4243 -0.6636
  596SOL    HW213513   4.206   2.326   6.554  0.1312 -0.9854  0.3977
  597SOL     OW13514   8.174   1.920   1.768 -0.2715  0.0074 -0.6254
  597SOL    HW113515   8.228   1.878   1.700 -0.4202  0.5114 -1.0653
  597SOL    HW213516   8.105   1.856   1.786 -0.3378 -0.0616 -1.0932
  598SOL     OW13517   9.730   2.836   0.472 -0.0897  0.1347  0.2149
  598SOL    HW113518   9.714   2.914   0.420 -1.0932 -1.0520 -1.3464
  598SOL    HW213519   9.644   2.795   0.480  0.1868 -0.1374  2.1629
  599SOL     OW13520  11.724   6.079   4.450 -0.0522 -0.0259 -0.5893
  599SOL    HW113521  11.806   6.031   4.437 -1.1129 -1.5059 -2.3930
  599SOL    HW213522  11.667   6.016   4.494 -0.5478  0.6380 -0.2752
  600SOL     OW13523   3.665   0.779   7.074  0.4191 -0.1126 -0.2228
  600SOL    HW113524   3.694   0.784   7.165  0.2336 -1.6401 -0.0490
  600SOL    HW213525   3.614   0.858   7.060 -1.0780 -0.7115  1.5647
  601SOL     OW13526   6.648   7.123   4.351 -0.0725 -0.0989 -0.1188
  601SOL    HW113527   6.624   7.214   4.365 -0.0587 -0.1606  0.3199
  601SOL    HW213528   6.585   7.073   4.402 -1.4888 -0.4611 -2.0910
  602SOL     OW13529  10.369   4.581   9.220  0.0335 -0.3838  0.0633
  602SOL    HW113530  10.449   4.564   9.269  0.1764 -1.0663 -0.3865
  602SOL    HW213531  10.310   4.511   9.246 -0.9679  0.9309  1.5001
  603SOL     OW13532   6.108   8.739   3.014 -0.1770 -0.5103 -0.5817
  603SOL    HW113533   6.037   8.735   2.951 -0.7244  0.7245 -0.0783
  603SOL    HW213534   6.181   8.778   2.965 -0.5463  0.2866 -0.5157
  604SOL     OW13535   9.369   5.658   0.958  0.0329  0.1144 -0.1434
  604SOL    HW113536   9.309   5.720   1.000  0.2700  0.3948 -0.2149
  604SOL    HW213537   9.438   5.713   0.920 -0.0622 -0.1487 -0.7094
  605SOL     OW13538   4.568   3.029   3.202  0.0799  0.5484 -0.0865
  605SOL    HW113539   4.572   3.091   3.129  0.2690 -1.2431 -1.6693
  605SOL    HW213540   4.641   2.969   3.187  0.1744  0.1631  1.6462
  606SOL     OW13541   4.688   9.993  10.553  0.2144  0.4028  0.6279
  606SOL    HW113542   4.758   9.930  10.571 -0.9708 -0.7533  1.3835
  606SOL    HW213543   4.684  10.048  10.630  0.6762  0.8524  0.3345
  607SOL     OW13544   0.632  11.674   2.436 -0.2637  0.3414  0.2992
  607SOL    HW113545   0.715  11.712   2.463  0.6090 -1.3959  0.1884
  607SOL    HW213546   0.624  11.697   2.343 -1.0362  2.3778  0.7972
  608SOL     OW13547   4.090   0.161  10.923 -0.5213  0.3159  0.3965
  608SOL    HW113548   4.049   0.076  10.940 -1.4443  0.8472  0.9014
  608SOL    HW213549   4.165   0.165  10.982  0.3124 -0.6765 -0.5507
  609SOL     OW13550   1.512   7.249   6.554  0.3185 -0.8381  0.5175
  609SOL    HW113551   1.419   7.266   6.570  0.4750  1.6260 -0.7030
  609SOL    HW213552   1.517   7.222   6.462  0.9123  0.5430  0.1131
  610SOL     OW13553   5.787   3.247   7.067 -0.2294  0.2758 -0.1502
  610SOL    HW113554   5.743   3.229   6.984  0.0776  1.4069 -0.5674
  610SOL    HW213555   5.784   3.163   7.114 -1.7809  0.0284 -0.6408
  611SOL     OW13556   9.210   6.449  11.077 -0.1078  0.2921  0.5315
  611SOL    HW113557   9.200   6.454  11.172 -0.1362 -0.0800  0.5495
  611SOL    HW213558   9.303   6.466  11.062 -0.2151  0.9574  0.5768
  612SOL     OW13559  10.155  10.384   7.283  1.1266  0.0712  0.5921
  612SOL    HW113560  10.106  10.316   7.238  1.2020  0.9584 -0.9181
  612SOL    HW213561  10.212  10.337   7.344 -2.7359 -0.9503  3.7900
  613SOL     OW13562   6.670  11.189  11.791 -0.1871  0.0047 -0.3058
  613SOL    HW113563   6.719  11.167  11.870  0.0929  0.0786 -0.4562
  613SOL    HW213564   6.630  11.273  11.810 -1.2087 -0.5903  0.2508
  614SOL     OW13565   8.684   7.498   6.864  0.3612 -0.0227 -0.0714
  614SOL    HW113566   8.673   7.445   6.943 -0.4244  1.2980  0.7669
  614SOL    HW213567   8.682   7.589   6.897  3.3021  0.5634 -1.2046
  615SOL     OW13568  10.080   5.765  10.498  0.6434 -0.2658 -0.0719
  615SOL    HW113569  10.037   5.679  10.498  0.5840 -0.2375  0.0260
  615SOL    HW213570  10.066   5.797  10.587  2.7007 -1.1739  0.6444
  616SOL     OW13571   2.957   3.483  10.037  0.7153  0.4350  0.0019
  616SOL    HW113572   2.937   3.410   9.978 -0.7578 -0.2777  1.3012
  616SOL    HW213573   3.021   3.447  10.099  0.2174  0.3353  0.4616
  617SOL     OW13574   6.249  11.559   5.928  0.0617 -0.2697  0.5348
  617SOL    HW113575   6.236  11.542   5.835 -1.9103  2.8869  0.0824
  617SOL    HW213576   6.313  11.494   5.955  2.2022 -0.1322 -3.4465
  618SOL     OW13577   1.385   4.580  10.495  0.3603 -0.2219  0.5207
  618SOL    HW113578   1.460   4.605  10.548  0.6757  1.3408 -0.5862
  618SOL    HW213579   1.328   4.656  10.497  1.1523  0.6087 -2.6653
  619SOL     OW13580   3.214   6.355  10.293  0.0071 -0.1589 -0.0554
  619SOL    HW113581   3.218   6.322  10.203  0.7724  0.2900 -0.1884
  619SOL    HW213582   3.129   6.324  10.325 -0.6206  0.3267 -1.1905
  620SOL     OW13583   2.588   6.974  11.340  0.3346  0.2191 -0.0597
  620SOL    HW113584   2.666   6.956  11.393  0.9720  0.7660 -0.7963
  620SOL    HW213585   2.566   7.065  11.360 -0.0803  0.0832  0.1020
  621SOL     OW13586   9.977   2.019   9.289  0.2335  0.5785 -0.0481
  621SOL    HW113587   9.934   2.078   9.228 -0.5134  0.3644  0.2492
  621SOL    HW213588   9.928   2.030   9.371  0.4799  0.0098  0.1821
  622SOL     OW13589  11.835   7.174   8.717 -0.5567  0.1721 -0.0714
  622SOL    HW113590  11.797   7.261   8.727 -1.5360  0.2577 -3.2951
  622SOL    HW213591  11.759   7.116   8.705  0.1319 -0.7143 -0.2711
  623SOL     OW13592   6.407   9.076   6.692 -0.1048  0.1337  0.3837
  623SOL    HW113593   6.318   9.107   6.678  0.6645  2.2207 -0.1836
  623SOL    HW213594   6.452   9.094   6.610  1.0163 -0.3193  0.8766
  624SOL     OW13595   1.563   0.511   9.044  0.0926 -0.3789 -0.0694
  624SOL    HW113596   1.557   0.567   9.122  0.8303  1.3734 -1.1969
  624SOL    HW213597   1.472   0.487   9.025 -0.0699 -1.1308  1.5070
  625SOL     OW13598   2.678   0.230   3.222  0.3538 -0.4691 -0.1695
  625SOL    HW113599   2.678   0.320   3.254  0.5289 -0.5762  0.1436
  625SOL    HW213600   2.610   0.228   3.155 -0.5850 -0.4252  0.7554
  626SOL     OW13601   4.374   0.082   8.835  0.2596 -0.5517 -0.4330
  626SOL    HW113602   4.304   0.039   8.885 -0.2062  1.4731  0.7618
  626SOL    HW213603   4.448   0.085   8.895 -0.3262  1.9709  0.2896
  627SOL     OW13604   1.481   2.260  11.144  0.4056 -0.2982  0.3253
  627SOL    HW113605   1.413   2.324  11.120 -2.3162 -3.3603 -0.9745
  627SOL    HW213606   1.563   2.309  11.139 -1.3318  2.7429 -1.8592
  628SOL     OW13607  10.639   7.506   1.695  0.1707  0.7727  0.1774
  628SOL    HW113608  10.597   7.420   1.695 -0.2319  0.9305  1.7316
  628SOL    HW213609  10.607   7.548   1.775  1.4672  1.8305  0.1738
  629SOL     OW13610   7.695   5.731   9.469  0.3413  0.1990  0.4560
  629SOL    HW113611   7.673   5.792   9.398 -0.9706  0.3679  0.9750
  629SOL    HW213612   7.777   5.764   9.505  1.3178 -0.1918 -1.2986
  630SOL     OW13613   1.482  11.676   6.265 -0.2860  0.1215 -0.4840
  630SOL    HW113614   1.557  11.679   6.324 -1.4074 -2.0361  1.1902
  630SOL    HW213615   1.512  11.622   6.191  0.4976  1.1985 -0.9792
  631SOL     OW13616   5.358   2.470   2.424  0.2855  0.1154  0.1560
  631SOL    HW113617   5.371   2.521   2.504 -0.4214  0.3641  0.1225
  631SOL    HW213618   5.313   2.391   2.453  3.1749 -1.5398  0.5244
  632SOL     OW13619  11.495   7.061   7.774 -0.5620  0.3111  0.8087
  632SOL    HW113620  11.566   7.026   7.721 -1.3715  1.3986 -1.1129
  632SOL    HW213621  11.534   7.076   7.860  0.9831 -0.9458  0.3768
  633SOL     OW13622   3.164   0.682  11.356 -0.4734  0.4242 -0.5609
  633SOL    HW113623   3.211   0.686  11.440 -0.7707  1.0917 -0.4227
  633SOL    HW213624   3.095   0.616  11.371  0.8088 -1.0834 -0.9846
  634SOL     OW13625   7.746   8.009   1.850 -0.0342  0.2404 -0.0908
  634SOL    HW113626   7.753   7.922   1.811  1.1485  0.5401 -0.5843
  634SOL    HW213627   7.778   8.068   1.782  1.0110  0.8870  0.9330
  635SOL     OW13628   2.348   2.428   3.807 -0.7264  0.1820 -0.7394
  635SOL    HW113629   2.415   2.371   3.771  1.3649  1.8644  0.2514
  635SOL    HW213630   2.287   2.369   3.852  0.3069 -1.3612 -1.3045
  636SOL     OW13631   4.444   9.883   0.353 -0.0287 -0.1740 -0.0345
  636SOL    HW113632   4.359   9.926   0.362  0.9627  1.5531  2.0514
  636SOL    HW213633   4.459   9.840   0.438  0.6382 -1.5698 -0.8223
  637SOL     OW13634   3.311   4.476   4.859 -0.3985  0.4927 -0.4572
  637SOL    HW113635   3.254   4.468   4.782 -2.3053  0.6783  0.8739
  637SOL    HW213636   3.254   4.458   4.933  0.8799  2.3706  1.0738
  638SOL     OW13637   1.696  10.387   9.943 -0.1942  0.2082 -0.1977
  638SOL    HW113638   1.634  10.371  10.013 -0.6809 -0.4436 -0.7667
  638SOL    HW213639   1.697  10.306   9.892  0.6226  0.4432 -0.5841
  639SOL     OW13640   2.897   6.321   2.776 -0.0840 -0.1725 -0.0066
  639SOL    HW113641   2.815   6.354   2.739 -1.0269 -1.3061  0.9712
  639SOL    HW213642   2.876   6.232   2.805  1.0289  0.0782  1.7185
  640SOL     OW13643  10.194   6.134   8.186  0.0163  0.2590 -0.3487
  640SOL    HW113644  10.157   6.196   8.124 -1.5226 -0.9322 -0.6967
  640SOL    HW213645  10.273   6.102   8.143 -0.6667 -0.0448 -1.4205
  641SOL     OW13646   4.761   4.896   7.056 -0.5858 -0.0185  0.5404
  641SOL    HW113647   4.722   4.812   7.031  0.5978 -1.1890  2.3354
  641SOL    HW213648   4.693   4.940   7.107 -0.3392 -1.1465  1.9197
  642SOL     OW13649   6.333   2.472   3.838  0.1575  0.5223 -0.1270
  642SOL    HW113650   6.286   2.393   3.814 -0.5419  0.8261  0.2139
  642SOL    HW213651   6.425   2.449   3.828 -0.0620  0.4565 -2.5414
  643SOL     OW13652   4.403   6.401  11.238  0.3328  0.0364 -0.1591
  643SOL    HW113653   4.437   6.313  11.251  1.1128  0.5102  1.2416
  643SOL    HW213654   4.481   6.456  11.229 -0.0948  0.7955  0.5921
  644SOL     OW13655  10.412   5.065   0.882 -0.4086 -0.1315  0.1052
  644SOL    HW113656  10.468   5.114   0.941 -1.0712 -0.2483  0.8471
  644SOL    HW213657  10.461   4.985   0.862 -0.3610 -0.2925  0.8472
  645SOL     OW13658   6.418   7.471  10.291  0.3135  0.3324 -0.0774
  645SOL    HW113659   6.507   7.441  10.272 -0.2955  0.4415 -3.8037
  645SOL    HW213660   6.417   7.563  10.264 -0.4350  0.9644  1.9467
  646SOL     OW13661   5.711   0.070  10.053  0.2292 -0.4064  0.9362
  646SOL    HW113662   5.631   0.065  10.106  0.2536 -1.0668  0.9215
  646SOL    HW213663   5.753  -0.015  10.067  0.9715 -0.0284  1.0146
  647SOL     OW13664   7.708   2.113   6.751  0.1759 -0.0026 -0.3754
  647SOL    HW113665   7.647   2.064   6.805  1.3028 -0.9374  0.0903
  647SOL    HW213666   7.655   2.182   6.710 -1.1424 -0.7209  0.0895
  648SOL     OW13667   1.264   0.558   9.827  0.5841  0.3153 -0.0272
  648SOL    HW113668   1.260   0.653   9.840 -2.9773  0.3334 -0.2257
  648SOL    HW213669   1.210   0.522   9.897  1.3934 -1.5530 -0.3047
  649SOL     OW13670   1.229   4.250   0.263 -0.4397 -0.1744  0.3875
  649SOL    HW113671   1.190   4.238   0.177 -0.2214  0.6818  0.1637
  649SOL    HW213672   1.285   4.327   0.254 -1.4126  0.7115  1.6325
  650SOL     OW13673  10.276  10.065   6.343  0.3649 -0.0549 -0.4560
  650SOL    HW113674  10.361  10.110   6.350  0.2688  0.8462 -3.6432
  650SOL    HW213675  10.287   9.986   6.395  2.0201  1.5688  1.8735
  651SOL     OW13676   9.181  11.934   7.874 -0.3980  0.2201 -0.8268
  651SOL    HW113677   9.150  11.851   7.909  0.5562  0.3512  0.3968
  651SOL    HW213678   9.145  12.000   7.933  0.8469  0.4895 -0.3535
  652SOL     OW13679  10.952   4.301   7.240  0.0859 -0.0165 -0.0032
  652SOL    HW113680  10.874   4.277   7.190  1.9144 -1.5222 -2.3787
  652SOL    HW213681  10.997   4.217   7.254  0.8439  0.6920  2.1458
  653SOL     OW13682   6.313   8.575  10.359  0.4128 -1.1473 -0.4167
  653SOL    HW113683   6.335   8.630  10.284  0.9428 -0.4731  0.2085
  653SOL    HW213684   6.397   8.560  10.403  0.0201 -0.9648  0.4173
  654SOL     OW13685   8.790  11.165   9.802  0.3886  0.8455  0.4585
  654SOL    HW113686   8.708  11.215   9.805  0.2622  0.7068 -0.3779
  654SOL    HW213687   8.830  11.180   9.887 -0.1046  1.6001  0.5733
  655SOL     OW13688   4.309   5.718   6.688  0.3356 -0.2365  0.1055
  655SOL    HW113689   4.380   5.699   6.628  0.3971 -0.0439  0.1166
  655SOL    HW213690   4.318   5.653   6.758 -0.7448 -1.5454 -0.9264
  656SOL     OW13691   5.410   6.000   5.764  0.4783  0.5517 -0.1638
  656SOL    HW113692   5.471   6.020   5.835 -0.9029 -1.7292  1.8508
  656SOL    HW213693   5.336   6.059   5.779  0.4406  0.4772 -0.0524
  657SOL     OW13694   0.067   2.052   6.710 -0.7610 -0.1787 -0.1574
  657SOL    HW113695   0.138   2.023   6.767 -0.5267 -0.6220 -0.6606
  657SOL    HW213696  -0.003   1.989   6.723 -0.7889 -0.1570 -0.2005
  658SOL     OW13697   8.432  11.441   8.766 -0.1073 -0.2635 -0.0387
  658SOL    HW113698   8.416  11.527   8.727 -0.4606 -0.2902  0.0402
  658SOL    HW213699   8.494  11.399   8.707  2.8947  1.3477  1.7044
  659SOL     OW13700   5.938  10.362   4.773 -0.5279  0.2717  0.3488
  659SOL    HW113701   5.991  10.288   4.804 -0.1891 -0.0741 -1.0264
  659SOL    HW213702   5.987  10.440   4.800 -0.2406 -0.0205  0.6812
  660SOL     OW13703  11.746   7.878  10.217 -0.1005 -0.3705  0.0989
  660SOL    HW113704  11.816   7.933  10.250  1.4511 -3.2840  2.1526
  660SOL    HW213705  11.791   7.807  10.170 -1.7725 -1.3158 -0.1558
  661SOL     OW13706   9.725   9.190   7.285  0.0491  0.0294  0.4096
  661SOL    HW113707   9.705   9.264   7.228  1.0517 -2.6485 -3.8840
  661SOL    HW213708   9.819   9.196   7.300 -0.2916  1.0535  2.5555
  662SOL     OW13709   1.855   3.568   7.675  0.1653  0.0508  0.0497
  662SOL    HW113710   1.795   3.567   7.750 -0.8558  0.2218 -0.7479
  662SOL    HW213711   1.831   3.646   7.626  1.7584  0.7077  0.2499
  663SOL     OW13712   7.310  11.715   1.755  0.0272 -0.2547  0.2619
  663SOL    HW113713   7.338  11.804   1.731 -0.7467  0.0187  0.3628
  663SOL    HW213714   7.384  11.680   1.806  0.8342 -0.1055 -0.7643
  664SOL     OW13715   1.619  11.260   7.985 -0.5523  0.4580 -0.5749
  664SOL    HW113716   1.706  11.298   7.972 -1.0046  1.3067 -1.1853
  664SOL    HW213717   1.582  11.254   7.897 -0.6984 -0.9350 -0.4393
  665SOL     OW13718   1.022   6.133   7.816 -0.6677  0.0244  0.4949
  665SOL    HW113719   0.988   6.192   7.749  2.1729  2.0086  0.6251
  665SOL    HW213720   0.958   6.062   7.820 -3.1158  1.9622 -1.2558
  666SOL     OW13721   7.437   2.476   7.524  0.3600 -0.4370 -0.2885
  666SOL    HW113722   7.506   2.537   7.499  1.5374 -1.9761 -0.9717
  666SOL    HW213723   7.405   2.508   7.608  1.6927  0.4770 -0.1086
  667SOL     OW13724   7.330   2.873   0.610  0.2262  0.6123 -0.3454
  667SOL    HW113725   7.413   2.844   0.573 -0.1399  0.8946 -1.4358
  667SOL    HW213726   7.263   2.826   0.559 -0.2942  0.8368  0.1173
  668SOL     OW13727   9.415   8.543   8.865  0.3224 -0.1874  0.5858
  668SOL    HW113728   9.488   8.488   8.894  0.8104 -0.8432 -1.6774
  668SOL    HW213729   9.456   8.626   8.839  0.3223 -0.6187 -0.8522
  669SOL     OW13730   6.920  10.266   1.020 -0.0835  0.2385 -0.5527
  669SOL    HW113731   6.852  10.276   1.086 -1.3830 -0.5830 -1.7185
  669SOL    HW213732   6.975  10.344   1.031 -0.3068  0.1742  1.3954
  670SOL     OW13733   6.577   2.407   9.550  0.3699 -0.3986 -0.1395
  670SOL    HW113734   6.658   2.357   9.553  0.5365 -0.1355 -0.2243
  670SOL    HW213735   6.605   2.497   9.534  0.1391 -0.0873  1.1092
  671SOL     OW13736   7.358   8.378   4.852 -0.1664 -0.6324  0.0352
  671SOL    HW113737   7.276   8.364   4.805 -0.9023 -0.7925  1.3192
  671SOL    HW213738   7.411   8.302   4.831  0.2471  0.1590 -1.9641
  672SOL     OW13739   6.237   5.916   3.893 -0.7221 -0.3493 -0.5641
  672SOL    HW113740   6.289   5.971   3.833  1.4282 -0.9148  0.6530
  672SOL    HW213741   6.227   5.833   3.847  1.2106 -0.8986 -0.1194
  673SOL     OW13742   8.597   5.744   3.992 -0.1886  0.2633  0.0045
  673SOL    HW113743   8.523   5.724   4.049  1.1435 -0.9075  1.4091
  673SOL    HW213744   8.558   5.755   3.905 -1.9262 -1.0589  0.5563
  674SOL     OW13745   4.516   4.753   9.978  0.3934 -0.2287 -0.4490
  674SOL    HW113746   4.545   4.766  10.068 -0.8519 -0.9193  0.0940
  674SOL    HW213747   4.574   4.686   9.943 -0.1895 -1.2310  0.4418
  675SOL     OW13748   6.887   8.255   1.885 -0.3704 -0.6404 -0.3563
  675SOL    HW113749   6.837   8.192   1.937 -2.3473 -1.0325 -2.5813
  675SOL    HW213750   6.836   8.336   1.890  1.7078  0.6720  1.7787
  676SOL     OW13751   9.018   2.235   0.855 -0.1110 -0.4695  0.0264
  676SOL    HW113752   9.023   2.139   0.856  1.8554 -0.4211  0.2354
  676SOL    HW213753   9.105   2.262   0.826 -0.4086  1.2670  0.6542
  677SOL     OW13754   1.669   5.209  11.443 -0.0672 -0.1507 -0.3052
  677SOL    HW113755   1.603   5.265  11.404 -0.6781 -1.4943 -1.2584
  677SOL    HW213756   1.620   5.152  11.502  0.7376  1.2927  1.8822
  678SOL     OW13757   6.854   7.564  10.468  0.2925  0.3740 -0.3223
  678SOL    HW113758   6.805   7.518  10.400  1.2249 -2.4634  0.7662
  678SOL    HW213759   6.934   7.593  10.424 -0.6533  1.7511 -1.2140
  679SOL     OW13760   9.965   4.828   4.415 -0.5357  0.2983  0.1019
  679SOL    HW113761  10.009   4.912   4.424 -1.4930  0.9476 -1.0049
  679SOL    HW213762   9.894   4.845   4.353  0.0712 -1.6471 -1.1913
  680SOL     OW13763   1.479   6.115   2.564 -0.4694 -0.1468 -0.0784
  680SOL    HW113764   1.454   6.195   2.518  1.5943  0.3204 -0.4582
  680SOL    HW213765   1.456   6.044   2.504 -0.2791  0.2944 -0.6827
  681SOL     OW13766   4.528   4.558  11.393  0.1077 -0.0629  0.5638
  681SOL    HW113767   4.525   4.570  11.298 -0.6148 -0.3248  0.5461
  681SOL    HW213768   4.516   4.646  11.428  0.8323  0.1005  0.4141
  682SOL     OW13769   4.057   4.283   7.649 -0.2141 -0.4865 -0.1795
  682SOL    HW113770   4.049   4.243   7.563  2.9406  0.0439 -0.8595
  682SOL    HW213771   4.047   4.377   7.633  0.5390 -0.3737 -0.0049
  683SOL     OW13772   6.952   3.387   6.078 -0.4710  0.2404 -0.0570
  683SOL    HW113773   6.908   3.329   6.015 -1.4914 -0.5445  1.3283
  683SOL    HW213774   6.945   3.474   6.038  0.3659 -0.4318 -1.7893
  684SOL     OW13775   1.566   6.703   5.563 -0.3326 -0.3391  0.2805
  684SOL    HW113776   1.655   6.735   5.580 -0.7525  0.9822  0.1615
  684SOL    HW213777   1.550   6.638   5.631 -0.4379  1.7780  2.4111
  685SOL     OW13778   1.273   1.968   1.227  0.2372 -0.1230  0.4275
  685SOL    HW113779   1.342   1.995   1.167  1.4233 -1.0425  1.3176
  685SOL    HW213780   1.270   2.036   1.294  1.7518 -1.0647  1.5107
  686SOL     OW13781   7.253   1.758   3.689 -0.5054  0.1021  0.1911
  686SOL    HW113782   7.187   1.823   3.715  0.4043  0.8169  0.7640
  686SOL    HW213783   7.326   1.809   3.656 -0.6666 -0.7234 -1.5784
  687SOL     OW13784   8.959  10.821   6.397  0.3940 -0.2381 -0.0983
  687SOL    HW113785   8.917  10.886   6.454 -0.2346  0.0692 -0.8848
  687SOL    HW213786   8.973  10.745   6.453 -0.2060  0.0530  0.4598
  688SOL     OW13787   3.002   8.917   0.564  0.3014  0.0103 -0.1928
  688SOL    HW113788   2.994   8.822   0.575 -0.0788 -0.4304 -3.3501
  688SOL    HW213789   3.049   8.928   0.481  0.2892  2.5971  0.0571
  689SOL     OW13790  11.174   4.365   0.729  0.3833  0.1778 -0.3808
  689SOL    HW113791  11.190   4.271   0.713  1.5363  0.2049  0.4771
  689SOL    HW213792  11.082   4.377   0.706  0.5169 -0.9031 -1.6677
  690SOL     OW13793  10.937   8.771   7.794  0.7027  0.5677  0.0119
  690SOL    HW113794  11.013   8.766   7.736  1.5342  1.9245  0.9322
  690SOL    HW213795  10.973   8.795   7.879 -0.5976 -0.4362  0.8805
  691SOL     OW13796  10.367   8.580   9.855  0.0423 -0.6208  0.1776
  691SOL    HW113797  10.370   8.536   9.770  0.3476 -0.4802  0.1148
  691SOL    HW213798  10.393   8.670   9.837  0.8060 -0.7622  0.5259
  692SOL     OW13799   5.421   2.110   2.166 -0.2537 -0.5980  0.8816
  692SOL    HW113800   5.331   2.090   2.189 -0.1915 -1.4730  0.3756
  692SOL    HW213801   5.470   2.031   2.187  0.0464 -0.9008 -0.8432
  693SOL     OW13802   7.411  11.572   5.291 -0.1214 -0.5616 -0.5039
  693SOL    HW113803   7.459  11.501   5.249 -0.0330 -0.4894 -0.5233
  693SOL    HW213804   7.333  11.529   5.329 -0.6292 -0.4953 -1.4416
  694SOL     OW13805   6.689   0.971   5.425  0.2371  1.0406  0.0703
  694SOL    HW113806   6.603   0.929   5.414  0.4501  0.3018  1.0118
  694SOL    HW213807   6.704   1.017   5.343 -1.2693  1.5803  0.0609
  695SOL     OW13808   9.342   3.457   1.301  0.7496  0.1950  0.2074
  695SOL    HW113809   9.313   3.432   1.213  0.6129 -0.0947  0.3311
  695SOL    HW213810   9.344   3.552   1.300  0.2144  0.2079  0.0624
  696SOL     OW13811   1.102   1.033   4.291  0.5443  0.3988 -0.0017
  696SOL    HW113812   1.090   1.029   4.386  1.1535  2.8071  0.2298
  696SOL    HW213813   1.149   1.115   4.275  1.0477 -0.2532 -2.3479
  697SOL     OW13814   8.789  11.389   0.457  0.4457 -0.7297  0.2289
  697SOL    HW113815   8.781  11.314   0.517 -0.9132 -0.4731  0.4057
  697SOL    HW213816   8.716  11.379   0.396 -0.4531  1.0192  0.9312
  698SOL     OW13817   7.312   6.793   9.833  0.0098 -0.4199  0.5211
  698SOL    HW113818   7.304   6.872   9.887  3.5117  1.5300 -1.3940
  698SOL    HW213819   7.388   6.747   9.870 -1.2261 -2.3242  0.8307
  699SOL     OW13820   3.693   7.718   4.172 -0.4520 -0.3191  0.6060
  699SOL    HW113821   3.756   7.790   4.169 -1.4788  0.7132  2.3581
  699SOL    HW213822   3.728   7.654   4.110  0.4772  1.6700 -1.0538
  700SOL     OW13823   3.005   5.718   2.167 -1.3620 -0.4773 -0.0764
  700SOL    HW113824   3.042   5.802   2.139 -3.8585  0.3989 -0.9738
  700SOL    HW213825   3.054   5.653   2.116 -2.3520  0.7715 -2.8356
  701SOL     OW13826   9.951   2.589  11.654  0.0853 -0.0079 -0.2969
  701SOL    HW113827   9.869   2.621  11.617  0.0695  0.2167 -0.0655
  701SOL    HW213828  10.014   2.594  11.581 -0.0305  0.1121 -0.3871
  702SOL     OW13829   2.976   2.549   9.137 -0.2008  0.6190 -0.1780
  702SOL    HW113830   2.945   2.545   9.047  0.2087  0.4209 -0.3104
  702SOL    HW213831   3.029   2.470   9.148  0.2952  0.9795  0.0344
  703SOL     OW13832   3.946   2.170  10.848 -0.4547 -0.1585 -0.6180
  703SOL    HW113833   3.946   2.137  10.758 -2.1869 -0.0531 -0.6792
  703SOL    HW213834   3.948   2.091  10.902 -0.7316 -0.2619 -0.7564
  704SOL     OW13835   5.738   8.352   0.937  0.3331 -0.4080 -0.6271
  704SOL    HW113836   5.810   8.291   0.923  0.3481 -0.6982  0.5669
  704SOL    HW213837   5.761   8.396   1.020 -1.7796 -1.8892  0.8378
  705SOL     OW13838   8.980   0.868   2.738 -0.5513  0.3831 -0.0130
  705SOL    HW113839   8.945   0.913   2.815  1.2643 -0.1394  1.1772
  705SOL    HW213840   8.921   0.794   2.724 -0.5450  0.1054  1.3006
  706SOL     OW13841  11.326   1.447  11.142  0.2180  0.3493  0.3768
  706SOL    HW113842  11.415   1.429  11.170  0.2536 -0.0200  0.0312
  706SOL    HW213843  11.286   1.361  11.132 -0.0490  0.5023  0.1141
  707SOL     OW13844   7.855   4.947  11.110  0.0848 -0.1169 -0.9348
  707SOL    HW113845   7.886   4.940  11.020  1.2184 -1.1740 -0.4930
  707SOL    HW213846   7.778   5.003  11.105 -1.0743 -1.7513 -2.8536
  708SOL     OW13847   9.225   8.402  11.069 -0.2323  0.0949  0.0656
  708SOL    HW113848   9.315   8.375  11.088 -0.6265 -1.0246  0.3759
  708SOL    HW213849   9.231   8.448  10.985  0.5071 -0.6836 -0.3198
  709SOL     OW13850   8.542   1.831   5.775 -0.0148  0.2711 -0.0245
  709SOL    HW113851   8.482   1.902   5.749  0.0736  0.1595 -0.5606
  709SOL    HW213852   8.514   1.757   5.722  1.7956  0.7357 -1.7508
  710SOL     OW13853   6.648   9.813   6.580  0.5006  0.0079 -0.5617
  710SOL    HW113854   6.718   9.750   6.594 -0.5138 -1.1652 -0.6135
  710SOL    HW213855   6.601   9.817   6.663  0.6269  0.7957 -0.5191
  711SOL     OW13856   2.031   2.604   6.261 -0.0704  0.5030  0.7437
  711SOL    HW113857   2.124   2.607   6.240 -0.2335 -1.7316 -0.7416
  711SOL    HW213858   2.017   2.515   6.294 -1.8027  0.4876  0.0995
  712SOL     OW13859   9.324   3.703   1.189  0.0430  0.3882  0.6949
  712SOL    HW113860   9.250   3.740   1.140  0.5659 -1.7588 -1.9932
  712SOL    HW213861   9.401   3.740   1.146  0.5097 -1.1211  0.1541
  713SOL     OW13862  10.376   7.294   0.919 -0.1839 -0.1356  0.1678
  713SOL    HW113863  10.355   7.333   1.004  1.5561 -2.2661  1.6744
  713SOL    HW213864  10.383   7.200   0.937  0.5758 -0.6107 -2.2793
  714SOL     OW13865  10.876   8.500   5.873 -0.1558  0.6517 -0.2364
  714SOL    HW113866  10.958   8.496   5.823 -1.1069 -0.2931 -1.7842
  714SOL    HW213867  10.823   8.564   5.826 -0.1962  1.5563  0.9905
  715SOL     OW13868   9.353   1.961   1.575  0.4202  0.3393  0.2077
  715SOL    HW113869   9.305   2.027   1.525  2.8130  1.1401 -1.1802
  715SOL    HW213870   9.396   2.011   1.645  0.5070 -0.1100  0.4778
  716SOL     OW13871   8.361   2.468   6.584 -0.4940  0.5143  0.0680
  716SOL    HW113872   8.374   2.436   6.495  2.1629 -0.1507  0.5937
  716SOL    HW213873   8.389   2.559   6.582 -1.0556  0.6910  0.1004
  717SOL     OW13874   6.757   7.100   8.200  0.0340 -0.3625 -0.2088
  717SOL    HW113875   6.837   7.061   8.235 -0.1841 -0.0571  0.6442
  717SOL    HW213876   6.733   7.167   8.264 -0.7106 -0.2120 -0.6376
  718SOL     OW13877   6.472  10.678   8.531  0.5431 -0.5661 -0.5086
  718SOL    HW113878   6.468  10.603   8.591  2.2579 -0.3220 -0.0142
  718SOL    HW213879   6.382  10.707   8.523  0.1031 -1.3609  1.0191
  719SOL     OW13880   2.545  11.524   2.282  0.2329 -0.4143  0.0765
  719SOL    HW113881   2.461  11.499   2.320 -0.0366  1.4136  0.7414
  719SOL    HW213882   2.522  11.566   2.199  0.6444 -1.6259 -0.6880
  720SOL     OW13883   0.626   9.447   6.721  0.4897 -0.0251 -0.2668
  720SOL    HW113884   0.565   9.418   6.788 -0.2393  0.7507 -0.5758
  720SOL    HW213885   0.672   9.521   6.760  0.9890 -0.3891 -0.1601
  721SOL     OW13886   7.969   0.988   0.841  0.3954 -0.5240  0.9047
  721SOL    HW113887   7.883   1.005   0.879 -0.2030 -0.9184 -0.2315
  721SOL    HW213888   7.952   0.930   0.767  1.3209  1.3533 -0.8787
  722SOL     OW13889   3.167   2.953   8.493  0.1109  0.7898  0.4680
  722SOL    HW113890   3.143   2.911   8.576  0.4600  0.1085  0.2287
  722SOL    HW213891   3.154   2.885   8.427  1.6760  0.7233  0.1933
  723SOL     OW13892   7.339   7.525  11.724  0.6259  0.0828  0.0090
  723SOL    HW113893   7.412   7.549  11.781 -1.4165  0.4457  2.6852
  723SOL    HW213894   7.296   7.609  11.705  0.5561 -0.1828 -1.0124
  724SOL     OW13895   2.944   9.294  10.474 -0.1435  0.2086 -0.3927
  724SOL    HW113896   2.890   9.240  10.416  0.8627  0.2210 -1.3784
  724SOL    HW213897   3.008   9.336  10.416  0.2449  1.0373  0.5950
  725SOL     OW13898   2.248   0.440   3.886 -0.2980  0.5925 -0.0731
  725SOL    HW113899   2.305   0.496   3.832 -0.6642  1.9734  0.9119
  725SOL    HW213900   2.286   0.444   3.974 -0.2475 -0.8707 -0.0010
  726SOL     OW13901   7.936  11.482   8.197 -0.2908  0.4968  0.2365
  726SOL    HW113902   7.904  11.567   8.228 -0.2931  1.0621 -1.2513
  726SOL    HW213903   7.950  11.494   8.103 -0.5667 -1.2432 -0.0541
  727SOL     OW13904   8.495   4.027   4.036 -0.5622 -0.1241 -0.3443
  727SOL    HW113905   8.464   4.017   4.126 -0.8639 -0.4912 -0.4884
  727SOL    HW213906   8.544   4.110   4.037 -1.0778  0.1852  0.0110
  728SOL     OW13907   7.590   6.170   9.842  0.1217 -0.1022  0.3652
  728SOL    HW113908   7.504   6.165   9.882 -0.6365  2.6939 -0.7071
  728SOL    HW213909   7.601   6.085   9.798 -1.9315 -0.6166  0.7609
  729SOL     OW13910   7.879   0.154   5.284  0.6332  0.0657  0.0919
  729SOL    HW113911   7.884   0.238   5.239  0.6416  0.3688  0.6516
  729SOL    HW213912   7.913   0.090   5.221  2.1381  0.6983  0.2296
  730SOL     OW13913   3.908   5.355   4.414 -0.1314 -0.1627 -0.1929
  730SOL    HW113914   3.921   5.398   4.329 -1.7774 -1.0770 -0.9558
  730SOL    HW213915   3.829   5.397   4.449 -2.2342 -2.9119 -1.2850
  731SOL     OW13916   8.104   6.658   4.204 -0.3017 -0.3062 -0.2985
  731SOL    HW113917   8.143   6.697   4.127  1.8063  1.2086  1.4166
  731SOL    HW213918   8.177   6.617   4.251 -1.2206  0.0470  1.5732
  732SOL     OW13919   5.289   0.355   6.911  0.3694  0.1068 -0.0855
  732SOL    HW113920   5.282   0.451   6.914 -0.7410  0.0115  1.4816
  732SOL    HW213921   5.202   0.325   6.884  0.1394 -0.5076  1.2679
  733SOL     OW13922   4.059   7.295  10.562 -0.5921  0.0014 -0.1158
  733SOL    HW113923   4.021   7.269  10.478 -0.6579 -0.0993 -0.0549
  733SOL    HW213924   4.005   7.251  10.627  0.3915 -1.1686 -0.0515
  734SOL     OW13925   4.085   8.697   0.584  0.4036 -0.0995 -0.3878
  734SOL    HW113926   4.035   8.777   0.600 -0.1571 -0.4616 -0.2849
  734SOL    HW213927   4.067   8.675   0.493 -0.5438 -0.8401 -0.0423
  735SOL     OW13928   2.216   6.528   7.556 -0.4274  0.4035 -0.2101
  735SOL    HW113929   2.241   6.469   7.626 -1.8407  0.2014  0.1693
  735SOL    HW213930   2.251   6.488   7.476 -2.4530 -1.7163 -0.1475
  736SOL     OW13931   7.421   4.682  11.095 -0.2576 -0.3430  0.1732
  736SOL    HW113932   7.399   4.775  11.102  1.2610  0.0274  0.5313
  736SOL    HW213933   7.468   4.663  11.177 -1.2298 -1.6400  0.4585
  737SOL     OW13934   6.698   8.001   0.869  0.0507  0.0360 -0.5577
  737SOL    HW113935   6.658   8.033   0.950 -0.2696  1.0199 -1.0892
  737SOL    HW213936   6.714   8.080   0.817  1.2985 -0.4792 -0.9918
  738SOL     OW13937   4.025   9.773   8.607  0.1315  0.2496  0.0278
  738SOL    HW113938   4.069   9.839   8.552 -1.0013  1.3756  0.4245
  738SOL    HW213939   4.052   9.794   8.696  1.5415 -1.2461 -0.0121
  739SOL     OW13940   1.011  11.657   6.222  0.6469 -0.0217 -0.6373
  739SOL    HW113941   0.996  11.742   6.181  0.4134 -0.7139 -2.0497
  739SOL    HW213942   1.106  11.648   6.225  0.6833  0.4936 -0.0103
  740SOL     OW13943   1.210   1.934   2.273  0.2112 -0.3985 -0.6740
  740SOL    HW113944   1.208   1.919   2.368  0.4804 -0.5930 -0.6990
  740SOL    HW213945   1.139   1.880   2.239 -1.5051  1.5041 -0.3407
  741SOL     OW13946   6.202   5.902   6.719 -0.1486 -0.5446 -0.3562
  741SOL    HW113947   6.288   5.908   6.761 -0.1190  1.3957 -0.6363
  741SOL    HW213948   6.141   5.900   6.793 -0.0264  1.6261 -0.1473
  742SOL     OW13949  10.180   4.541   9.645  0.0808 -0.0605  0.4440
  742SOL    HW113950  10.257   4.496   9.611  0.1797  0.6521 -0.3066
  742SOL    HW213951  10.133   4.475   9.695  0.9680 -0.6061  0.5623
  743SOL     OW13952   8.384   6.853   0.896  0.0574  0.0576 -0.3451
  743SOL    HW113953   8.324   6.808   0.837 -0.3719 -0.0379  0.1616
  743SOL    HW213954   8.332   6.922   0.936 -0.0177 -0.6570  0.8596
  744SOL     OW13955   1.481   3.091   7.773  0.3957 -0.0844  0.1204
  744SOL    HW113956   1.550   3.038   7.734  0.9526  1.2671 -0.7896
  744SOL    HW213957   1.466   3.052   7.860  3.0398  0.2390  0.7834
  745SOL     OW13958   9.825  11.088   8.335  0.7876 -0.3588 -0.2286
  745SOL    HW113959   9.853  11.125   8.251  1.6922  1.7347  0.9254
  745SOL    HW213960   9.749  11.034   8.313  1.8074 -0.9890 -2.5645
  746SOL     OW13961   6.662  11.594   8.432  0.4459 -0.1917  0.4734
  746SOL    HW113962   6.699  11.534   8.496 -0.9599 -1.8968 -0.2010
  746SOL    HW213963   6.636  11.538   8.359  1.1016  1.5522 -1.1999
  747SOL     OW13964   7.832   0.613   5.307 -0.3784 -0.1059  1.1156
  747SOL    HW113965   7.886   0.541   5.340  0.3741 -0.6757 -1.1731
  747SOL    HW213966   7.742   0.586   5.329 -0.0980 -1.6634  0.5145
  748SOL     OW13967  10.074  10.771  10.201  0.3059 -0.2746  0.1551
  748SOL    HW113968  10.039  10.859  10.185  0.0705 -0.5206 -0.7369
  748SOL    HW213969   9.997  10.717  10.216  0.5180  0.0444  2.8819
  749SOL     OW13970   8.671   7.207   6.793  0.7176  0.0010  0.2173
  749SOL    HW113971   8.684   7.301   6.806 -0.0608 -0.0801  1.9092
  749SOL    HW213972   8.584   7.189   6.829  1.0248 -1.4241  0.3427
  750SOL     OW13973   2.443   6.102  10.943 -0.1153  0.1349 -0.4693
  750SOL    HW113974   2.417   6.010  10.944  1.4580 -0.3524  0.4921
  750SOL    HW213975   2.513   6.107  11.009 -0.4586  2.1129 -0.2059
  751SOL     OW13976   6.423   9.543   7.065 -0.0905  0.3829  0.0573
  751SOL    HW113977   6.336   9.518   7.095 -0.3968  0.1958 -0.9690
  751SOL    HW213978   6.456   9.467   7.017  0.1855  0.8435 -0.5066
  752SOL     OW13979  11.298   0.752   6.121 -0.3277 -0.9762  0.2396
  752SOL    HW113980  11.280   0.697   6.198 -1.4968 -1.1208 -0.1090
  752SOL    HW213981  11.317   0.690   6.051  0.0351 -0.8716  0.2459
  753SOL     OW13982   7.734   6.353   9.364  0.3554  0.0738  0.3397
  753SOL    HW113983   7.752   6.429   9.420  0.9356  1.2490 -1.3579
  753SOL    HW213984   7.639   6.340   9.370  0.1365  1.4387  0.0702
  754SOL     OW13985   3.152   1.737  10.716  0.6631 -0.6082 -0.1586
  754SOL    HW113986   3.139   1.657  10.768 -1.6814 -2.1853 -2.8477
  754SOL    HW213987   3.225   1.715  10.657  2.0375  0.4671  1.0518
  755SOL     OW13988   4.805   8.899   6.353  0.6795 -0.1560  0.6550
  755SOL    HW113989   4.855   8.954   6.413  0.1835  0.5670  0.4180
  755SOL    HW213990   4.806   8.946   6.270 -1.4561  0.5514  0.9614
  756SOL     OW13991   5.149  10.578   6.165  0.3017 -0.1871  0.3348
  756SOL    HW113992   5.202  10.653   6.193  0.8011 -0.3223 -0.2345
  756SOL    HW213993   5.143  10.523   6.243 -1.8625  1.4232  1.4147
  757SOL     OW13994   7.431   3.431   1.577  0.3528 -0.4464  0.3690
  757SOL    HW113995   7.415   3.491   1.649 -1.2953  2.3327 -2.1280
  757SOL    HW213996   7.527   3.426   1.571  0.5108  0.5040  1.7681
  758SOL     OW13997   7.103   8.469   2.370 -0.1641  1.0098  0.1471
  758SOL    HW113998   7.020   8.453   2.416 -0.5237  0.5483 -0.6400
  758SOL    HW213999   7.101   8.563   2.350  0.4435  1.4339  1.8877
  759SOL     OW14000   7.978   2.111   7.200 -0.0832  0.0013 -0.1334
  759SOL    HW114001   7.950   2.117   7.109  0.6198  0.7443 -0.3093
  759SOL    HW214002   7.947   2.025   7.229  0.3961 -0.5841 -1.3085
  760SOL     OW14003  11.135  10.795  11.692  0.5127 -0.2651 -0.0172
  760SOL    HW114004  11.165  10.878  11.728  1.4725 -0.2015 -0.9140
  760SOL    HW214005  11.112  10.815  11.601  2.1624 -1.2464 -0.6969
  761SOL     OW14006   6.716   6.474   9.666 -0.6598  0.4030 -0.0651
  761SOL    HW114007   6.676   6.389   9.647 -0.2485 -0.0953  1.1660
  761SOL    HW214008   6.722   6.517   9.581 -1.8479 -0.3606 -0.5737
  762SOL     OW14009   4.977   2.429   8.452  0.0057 -0.7983 -0.2334
  762SOL    HW114010   5.022   2.511   8.472  1.9526 -1.3119 -2.0930
  762SOL    HW214011   4.914   2.418   8.523  0.5124  1.6802  0.7048
  763SOL     OW14012   8.373   9.407   7.984  0.4976 -0.4686  0.2415
  763SOL    HW114013   8.369   9.382   8.076 -0.7738  0.2446  0.4005
  763SOL    HW214014   8.282   9.407   7.955  0.8432 -0.2460 -0.8974
  764SOL     OW14015   6.730   2.742   2.939 -0.4809 -0.3080  0.0245
  764SOL    HW114016   6.732   2.715   2.847  1.8687 -1.8823  0.4460
  764SOL    HW214017   6.755   2.834   2.938 -0.1222 -0.4091 -0.8934
  765SOL     OW14018   6.856   6.392   3.176  0.2992  0.4185 -0.2107
  765SOL    HW114019   6.929   6.453   3.190  0.1012  0.5682  0.1877
  765SOL    HW214020   6.851   6.342   3.258  1.0357 -0.7664 -0.8605
  766SOL     OW14021  10.939   0.752   6.760 -0.1144  0.0801  0.3239
  766SOL    HW114022  10.886   0.684   6.801  0.6225 -0.7224 -0.0363
  766SOL    HW214023  11.008   0.705   6.714  0.8021  1.0933  0.6099
  767SOL     OW14024  11.120   4.223  10.265 -0.5354 -0.0437  0.3578
  767SOL    HW114025  11.121   4.297  10.204 -0.8199  0.4473  0.9308
  767SOL    HW214026  11.202   4.177  10.250 -1.1844 -0.7084 -1.3254
  768SOL     OW14027   0.837  10.207   8.885  0.2432  0.9822 -0.1150
  768SOL    HW114028   0.924  10.241   8.867  0.8667  0.5074  1.7971
  768SOL    HW214029   0.780  10.251   8.821  1.8407  1.3398 -1.3497
  769SOL     OW14030   4.123  11.444   9.030  0.8394  0.1481  0.1263
  769SOL    HW114031   4.195  11.463   8.968  1.6429 -3.0813 -0.0724
  769SOL    HW214032   4.123  11.349   9.038 -1.9099  0.2195  2.0281
  770SOL     OW14033   7.060   8.803   7.502 -0.2118 -0.0941 -0.7109
  770SOL    HW114034   7.143   8.831   7.463  1.1936 -1.7118  0.9237
  770SOL    HW214035   7.003   8.787   7.427  1.1758  0.3854 -1.9281
  771SOL     OW14036   9.536  11.351   9.948  0.3414  0.0408 -0.2807
  771SOL    HW114037   9.578  11.323  10.029 -1.4991 -0.5428  0.5230
  771SOL    HW214038   9.442  11.343   9.965 -0.1746  2.0846 -1.6924
  772SOL     OW14039   2.069   6.848   8.472  0.1528  0.2172  0.0796
  772SOL    HW114040   2.008   6.787   8.513 -1.4534  1.4878 -0.3386
  772SOL    HW214041   2.082   6.917   8.537 -0.5510  1.0261 -0.6095
  773SOL     OW14042   5.131   2.196   8.725  0.8670 -0.4102 -0.7297
  773SOL    HW114043   5.151   2.171   8.635 -2.4994  2.3094 -2.4652
  773SOL    HW214044   5.053   2.144   8.747 -1.5912  2.6078 -1.5899
  774SOL     OW14045   1.546   6.239   8.300  0.1065 -0.4795 -0.1094
  774SOL    HW114046   1.637   6.230   8.273  0.5395  1.3765  0.5665
  774SOL    HW214047   1.529   6.162   8.354  1.7994 -0.0777  1.0802
  775SOL     OW14048   2.779   6.694   2.885 -0.2468 -0.5900 -0.3972
  775SOL    HW114049   2.785   6.708   2.790  0.3029 -1.4517 -0.5025
  775SOL    HW214050   2.815   6.773   2.924 -0.2954 -0.3133 -0.9127
  776SOL     OW14051  10.490   0.613  11.234  0.2596 -0.4086  0.1945
  776SOL    HW114052  10.572   0.597  11.187 -0.6136  1.8525 -2.3372
  776SOL    HW214053  10.515   0.672  11.306  0.8268  0.6870 -0.8678
  777SOL     OW14054   8.909   9.510   6.764  0.0163  0.4695 -0.3560
  777SOL    HW114055   8.915   9.495   6.858  0.8062 -0.5759 -0.5458
  777SOL    HW214056   8.927   9.424   6.725 -1.2503  0.6739 -1.4466
  778SOL     OW14057   7.537   6.452   5.287  0.7827  0.1313  0.6992
  778SOL    HW114058   7.558   6.359   5.281  0.8905  0.1894  0.1146
  778SOL    HW214059   7.444   6.455   5.309  0.2907 -0.1215 -1.1984
  779SOL     OW14060   5.892   5.659   7.273 -0.2512 -0.5389 -0.7727
  779SOL    HW114061   5.843   5.577   7.279  0.1154 -0.6892  0.8263
  779SOL    HW214062   5.920   5.676   7.363  1.0134  0.5253 -1.3344
  780SOL     OW14063  11.000   8.859   6.033  0.1420  0.0210  0.3695
  780SOL    HW114064  11.060   8.797   5.991  0.4336 -1.5794  2.9220
  780SOL    HW214065  11.053   8.938   6.046  0.3600  0.1654 -1.1886
  781SOL     OW14066   4.243   1.442   4.317 -0.2413  0.3920  0.0725
  781SOL    HW114067   4.150   1.420   4.328 -0.0130 -0.0012  1.4807
  781SOL    HW214068   4.284   1.409   4.397  1.2035  0.0921 -0.7761
  782SOL     OW14069  10.659   6.144   0.221 -0.6290 -0.2511 -0.8847
  782SOL    HW114070  10.615   6.105   0.296  1.1106 -0.4251  0.0982
  782SOL    HW214071  10.616   6.229   0.209 -3.5778 -1.8061 -2.2352
  783SOL     OW14072   6.360   8.912   8.953 -0.3066  0.2187  0.2611
  783SOL    HW114073   6.338   8.970   8.879  1.8707 -0.7371 -1.2339
  783SOL    HW214074   6.403   8.969   9.016  1.0599  0.4401 -0.8293
  784SOL     OW14075   6.480   7.789  10.796  0.4201  0.5186  0.7012
  784SOL    HW114076   6.410   7.766  10.856  0.6564 -1.6104  0.2334
  784SOL    HW214077   6.561   7.770  10.844  0.6127 -1.4217 -0.2737
  785SOL     OW14078  10.435   5.620   3.158 -0.1145  0.0669 -0.4368
  785SOL    HW114079  10.382   5.625   3.078 -3.8220  1.9320  1.8189
  785SOL    HW214080  10.493   5.696   3.153 -1.2000  0.8962 -0.8555
  786SOL     OW14081  11.639   1.909   8.818  0.6704  0.1091  0.3838
  786SOL    HW114082  11.592   1.937   8.896 -1.2878 -1.6383 -0.0742
  786SOL    HW214083  11.703   1.845   8.850  0.4854  0.0568  0.6531
  787SOL     OW14084   7.177   2.281   9.969 -0.2691  0.1675  0.1551
  787SOL    HW114085   7.271   2.295   9.965 -0.4036  0.9520 -0.6507
  787SOL    HW214086   7.160   2.253  10.059  0.9189 -1.5514 -0.1199
  788SOL     OW14087   0.702   8.948   6.319  0.1319 -0.1882  0.1944
  788SOL    HW114088   0.716   8.871   6.264 -0.0453 -1.1510  1.4473
  788SOL    HW214089   0.670   8.913   6.402  0.5515  1.2003  0.9860
  789SOL     OW14090   1.729   2.683  11.458 -0.3523 -0.3961  0.2484
  789SOL    HW114091   1.782   2.761  11.475 -0.9599  0.0369  0.1932
  789SOL    HW214092   1.790   2.610  11.467  0.3188  0.1077 -0.0945
  790SOL     OW14093   3.676   6.069   7.211 -0.0260 -0.0703 -0.3072
  790SOL    HW114094   3.590   6.037   7.184  0.6866 -0.5887 -2.0688
  790SOL    HW214095   3.734   5.993   7.203  1.2421  1.0394 -2.3698
  791SOL     OW14096   5.031   5.885   9.007 -0.5837  0.5130 -0.2437
  791SOL    HW114097   5.095   5.829   8.963 -1.0149 -1.5742  1.6184
  791SOL    HW214098   5.083   5.943   9.061 -0.1911  0.5396 -0.6437
  792SOL     OW14099   7.597   3.427   5.558  0.1165 -0.4819 -0.2195
  792SOL    HW114100   7.535   3.390   5.495 -0.4237 -2.0743  1.1564
  792SOL    HW214101   7.679   3.434   5.510 -0.4971 -0.7867 -1.3552
  793SOL     OW14102   5.633  11.079   4.890  0.0614 -0.6001 -0.2238
  793SOL    HW114103   5.675  11.155   4.932  1.6146 -1.9541  0.8183
  793SOL    HW214104   5.573  11.117   4.826  1.0263  1.4950  0.0240
  794SOL     OW14105  10.819   2.897   7.282  0.4256 -0.2679  0.1374
  794SOL    HW114106  10.891   2.945   7.322  0.9402  0.0511 -1.1102
  794SOL    HW214107  10.742   2.953   7.296  0.5784 -0.1985  0.7173
  795SOL     OW14108   5.060   4.978   6.368  0.1556  0.0503  0.0292
  795SOL    HW114109   5.124   4.922   6.325  2.4078  2.0663  0.5112
  795SOL    HW214110   5.108   5.018   6.440 -1.3726  2.3742 -0.1265
  796SOL     OW14111   5.143   3.364   4.562  0.4227  0.0122  0.5990
  796SOL    HW114112   5.087   3.292   4.591 -1.0235  0.9981  0.3160
  796SOL    HW214113   5.204   3.323   4.500  0.5740 -1.2299  1.5298
  797SOL     OW14114   9.472   1.600   1.371  0.2471 -0.4965  0.0074
  797SOL    HW114115   9.499   1.669   1.431  1.6935 -1.0778  0.0654
  797SOL    HW214116   9.381   1.580   1.396 -0.2228  1.3803 -0.0531
  798SOL     OW14117   3.372   7.811  11.591 -0.3252  0.4897 -0.1375
  798SOL    HW114118   3.353   7.718  11.598 -1.9091  0.8097  0.2386
  798SOL    HW214119   3.442   7.817  11.526  0.8979 -1.0609  0.9539
  799SOL     OW14120   2.994   1.715  10.275  0.3042 -0.2503  0.2781
  799SOL    HW114121   3.062   1.648  10.262  2.0722  1.5275 -0.1736
  799SOL    HW214122   3.017   1.785  10.215 -0.4716  1.4973  1.8961
  800SOL     OW14123   5.850   8.897   9.711  0.6447  0.6070  0.1027
  800SOL    HW114124   5.844   8.802   9.699  2.2655  0.3670  0.8556
  800SOL    HW214125   5.890   8.928   9.630  0.8893  0.5353  0.1954
  801SOL     OW14126  11.497   1.616   8.498 -0.1879  0.2419 -0.1668
  801SOL    HW114127  11.510   1.523   8.478 -0.2843  0.1852  0.0345
  801SOL    HW214128  11.577   1.658   8.468 -1.1432  0.4662 -2.6977
  802SOL     OW14129   7.184   3.330  11.931  0.1526 -0.7079 -0.8044
  802SOL    HW114130   7.202   3.416  11.894 -0.3331 -0.4073 -0.3728
  802SOL    HW214131   7.096   3.309  11.900  0.1431 -0.9013 -0.6473
  803SOL     OW14132   8.064   0.866   8.746 -0.0556  0.2260  0.0810
  803SOL    HW114133   8.098   0.953   8.765  1.1488 -0.0669 -0.6075
  803SOL    HW214134   7.987   0.881   8.691  1.1752  0.8427 -1.5538
  804SOL     OW14135   3.728  11.764  10.935  0.2761 -0.5585 -0.5732
  804SOL    HW114136   3.652  11.815  10.964  0.5206  0.0559 -0.9938
  804SOL    HW214137   3.719  11.759  10.840 -0.0714 -1.8423 -0.4902
  805SOL     OW14138   8.780  11.668   8.616  0.1188  0.2454 -0.0681
  805SOL    HW114139   8.852  11.637   8.561  0.1197  0.5339 -0.2300
  805SOL    HW214140   8.803  11.758   8.637  0.1737  0.1000  0.4995
  806SOL     OW14141   3.526   2.321   1.566 -0.4510 -0.0418 -0.3464
  806SOL    HW114142   3.608   2.276   1.542 -1.5219 -2.5692  0.4319
  806SOL    HW214143   3.518   2.307   1.660 -1.8280  0.0943 -0.4313
  807SOL     OW14144   8.130   6.833   1.170 -0.0988  0.5180 -0.2046
  807SOL    HW114145   8.039   6.847   1.198 -0.1849  0.0991 -0.2652
  807SOL    HW214146   8.155   6.915   1.128 -0.8912  0.1927 -1.3750
  808SOL     OW14147   6.973   8.818   9.672  0.2806 -0.3645 -0.3424
  808SOL    HW114148   6.898   8.758   9.677  0.3933 -0.5029 -0.3005
  808SOL    HW214149   7.029   8.781   9.603  0.4401 -0.4107 -0.1890
  809SOL     OW14150   8.609   0.476   5.974 -0.2305 -0.0842 -0.3665
  809SOL    HW114151   8.537   0.440   5.922 -0.8214 -0.3533  0.6196
  809SOL    HW214152   8.658   0.400   6.004 -0.0917  0.0523 -0.2447
  810SOL     OW14153   4.149  10.402   0.751 -0.2413  0.1876  0.0424
  810SOL    HW114154   4.213  10.446   0.695  1.3973  1.3781  2.6328
  810SOL    HW214155   4.194  10.325   0.784 -2.4875 -2.7218 -3.0312
  811SOL     OW14156   6.276   1.732   1.653  0.5764  0.0083  0.8858
  811SOL    HW114157   6.307   1.643   1.668  3.1388  0.3639 -1.5279
  811SOL    HW214158   6.256   1.765   1.741  0.6052 -2.5393  1.9404
  812SOL     OW14159   6.399   0.314   8.331 -0.6481  0.0438 -0.5173
  812SOL    HW114160   6.349   0.270   8.263 -0.4202 -0.6126 -0.2807
  812SOL    HW214161   6.444   0.242   8.376 -2.7329  0.1133  1.9462
  813SOL     OW14162   0.794   1.949   1.935 -0.5007  0.6194 -0.5924
  813SOL    HW114163   0.715   1.971   1.984  0.0574 -0.3861  0.8473
  813SOL    HW214164   0.768   1.877   1.878 -0.0045 -2.1613  2.3348
  814SOL     OW14165   5.417   2.516   8.180 -0.6044 -0.7148 -0.1424
  814SOL    HW114166   5.404   2.495   8.088 -2.1340  1.5687 -0.5338
  814SOL    HW214167   5.372   2.600   8.192  0.0463 -0.6606  2.5533
  815SOL     OW14168  10.771   2.776   3.491 -0.2457 -0.4448  0.5497
  815SOL    HW114169  10.712   2.719   3.442 -1.5400 -0.7981  2.3871
  815SOL    HW214170  10.713   2.831   3.543  1.0294  1.0089  0.5091
  816SOL     OW14171  10.381   3.126   6.066  0.1762  0.1835  0.3230
  816SOL    HW114172  10.382   3.044   6.016  0.0594 -0.3028  1.0977
  816SOL    HW214173  10.352   3.100   6.154 -1.1661  1.2595  0.2213
  817SOL     OW14174   4.712   8.850   9.987 -0.0002 -0.3175 -0.0134
  817SOL    HW114175   4.786   8.799  10.021  0.1125 -0.4618 -0.4667
  817SOL    HW214176   4.634   8.803  10.018  0.0660  0.5602  1.5819
  818SOL     OW14177   7.937  11.483   2.244 -0.7204  0.5648  0.4868
  818SOL    HW114178   8.032  11.475   2.247 -0.8876 -2.1517  1.5404
  818SOL    HW214179   7.913  11.523   2.328 -0.4607  3.8863 -0.8601
  819SOL     OW14180   4.744   8.306   8.784 -0.1631 -0.4602  0.5512
  819SOL    HW114181   4.819   8.341   8.833 -0.0363  0.6536 -0.3798
  819SOL    HW214182   4.729   8.371   8.715 -0.5409 -1.8062 -0.6751
  820SOL     OW14183   3.408   5.187   4.621 -0.7445  0.0361 -0.2096
  820SOL    HW114184   3.420   5.273   4.581  0.9812 -0.6508 -1.2990
  820SOL    HW214185   3.446   5.196   4.708 -0.1416  0.2651 -0.4903
  821SOL     OW14186  11.027   2.425   4.023  0.2514 -0.4427 -0.1486
  821SOL    HW114187  10.984   2.490   4.079  0.3864 -1.2540  0.9144
  821SOL    HW214188  10.963   2.354   4.014  0.8204 -1.0210  0.2798
  822SOL     OW14189  11.829   1.600   0.939  0.1967  0.0487 -0.1245
  822SOL    HW114190  11.885   1.559   1.004 -0.7893 -1.5313 -0.2283
  822SOL    HW214191  11.858   1.692   0.937  1.2764 -0.2232  1.3876
  823SOL     OW14192   0.393   3.646  11.796 -0.2548 -0.1768  0.4354
  823SOL    HW114193   0.414   3.709  11.865 -1.6637  0.4467  0.3353
  823SOL    HW214194   0.477   3.628  11.753  0.3399  0.8424  1.1260
  824SOL     OW14195   8.759  10.508   4.343 -0.2292  0.2949 -0.0700
  824SOL    HW114196   8.838  10.478   4.388  1.1372 -2.0216 -3.5503
  824SOL    HW214197   8.688  10.462   4.387  0.8445 -0.7165  0.6763
  825SOL     OW14198   3.591   6.570   5.227 -0.0962  0.1832 -0.1748
  825SOL    HW114199   3.501   6.602   5.215 -0.2682  0.3242  1.3852
  825SOL    HW214200   3.591   6.527   5.312  1.6959  1.5692  0.6041
  826SOL     OW14201  11.608   4.648   8.418 -0.1452 -0.2505  0.3362
  826SOL    HW114202  11.562   4.573   8.456  0.0105 -0.6029 -0.1619
  826SOL    HW214203  11.574   4.654   8.329 -0.5582  0.6135  0.5406
  827SOL     OW14204   1.561   9.461   8.692  0.4491 -0.1995  0.5763
  827SOL    HW114205   1.558   9.373   8.728  0.0324 -0.4311 -0.0138
  827SOL    HW214206   1.473   9.478   8.661  0.6490  0.2297  0.2264
  828SOL     OW14207   1.909   2.884   6.243 -0.3204 -0.4955 -0.3132
  828SOL    HW114208   1.913   2.789   6.236 -2.3109 -0.4847 -3.2504
  828SOL    HW214209   1.950   2.916   6.163 -0.5116  1.1084  0.1952
  829SOL     OW14210   0.114   2.305   3.786  0.2970  0.1026 -0.5734
  829SOL    HW114211   0.140   2.229   3.734  0.3048  0.3676 -0.9701
  829SOL    HW214212   0.194   2.359   3.791  0.5309 -0.3178  0.4412
  830SOL     OW14213   7.456   4.828   0.938 -0.1326  0.3985 -0.0293
  830SOL    HW114214   7.373   4.786   0.913  0.4518 -0.1597 -1.1257
  830SOL    HW214215   7.520   4.757   0.935  0.6018  1.0640 -0.3909
  831SOL     OW14216  10.416   6.270   6.958  0.0668 -0.1545 -0.4522
  831SOL    HW114217  10.420   6.260   6.863 -1.6548  1.4473 -0.7684
  831SOL    HW214218  10.443   6.185   6.993 -0.1828 -1.0797 -2.3925
  832SOL     OW14219   5.761   0.665   2.422 -1.0716 -0.2212  0.1800
  832SOL    HW114220   5.754   0.713   2.340 -1.0966 -2.2641 -1.0598
  832SOL    HW214221   5.717   0.582   2.406 -1.0376 -0.6912  2.2559
  833SOL     OW14222   4.104   1.745  11.198  0.4253  0.0637  0.1391
  833SOL    HW114223   4.061   1.765  11.282  0.0780  0.2984 -0.0894
  833SOL    HW214224   4.053   1.672  11.162  0.9181 -0.4110  0.3858
  834SOL     OW14225   6.472   1.422   4.703  0.2526 -0.3846  0.4955
  834SOL    HW114226   6.492   1.515   4.693  3.6579 -0.9024  1.4126
  834SOL    HW214227   6.418   1.418   4.781  0.2515  0.7976  0.5828
  835SOL     OW14228   6.192   5.605   9.759 -0.0755 -0.0698  0.0556
  835SOL    HW114229   6.171   5.517   9.792 -3.4813  0.9095  0.9634
  835SOL    HW214230   6.272   5.630   9.805  0.6667 -2.4592  0.1848
  836SOL     OW14231   9.916  10.923   5.510 -0.5151  0.7073 -0.4453
  836SOL    HW114232   9.954  10.874   5.583 -0.6703 -0.6495 -1.2348
  836SOL    HW214233   9.989  10.969   5.471 -0.0521 -0.1901 -0.6633
  837SOL     OW14234   8.264   6.467  11.455  0.4041  0.5803 -0.3936
  837SOL    HW114235   8.322   6.518  11.399 -0.1817  1.0153 -0.6182
  837SOL    HW214236   8.296   6.482  11.544  1.6928 -0.5733 -0.6307
  838SOL     OW14237  11.489   0.294   8.272  0.0609  0.0276  0.0604
  838SOL    HW114238  11.515   0.202   8.267  1.2500  0.3972 -1.7096
  838SOL    HW214239  11.503   0.319   8.363  1.7158 -1.0189  0.1312
  839SOL     OW14240   7.944   6.624   9.930  0.3233  0.0829 -0.2924
  839SOL    HW114241   7.873   6.607   9.992  0.3351 -0.1764 -0.3466
  839SOL    HW214242   7.923   6.570   9.854 -0.7542  1.9028 -1.3531
  840SOL     OW14243   3.594   8.450   3.267  0.2670 -0.1340  0.0801
  840SOL    HW114244   3.626   8.430   3.179 -1.2021 -2.2297 -0.0409
  840SOL    HW214245   3.664   8.420   3.325  0.2527 -0.9295 -0.3033
  841SOL     OW14246   8.762  10.582   6.411  0.5034  0.1852  0.5450
  841SOL    HW114247   8.708  10.650   6.369  1.0266  0.4729  0.3217
  841SOL    HW214248   8.699  10.519   6.445  0.0383  0.3119 -0.0557
  842SOL     OW14249   4.346   0.360   1.100  0.1018 -0.2151 -0.1679
  842SOL    HW114250   4.400   0.307   1.159  0.3529 -1.8725 -1.8114
  842SOL    HW214251   4.403   0.432   1.073  0.1688  0.2352  1.1068
  843SOL     OW14252   4.167   5.621   0.835 -0.7580  0.1878  0.0577
  843SOL    HW114253   4.153   5.695   0.776 -0.6109  0.6387  0.5806
  843SOL    HW214254   4.159   5.544   0.779 -0.5163  0.6122 -0.5714
  844SOL     OW14255   3.379  11.467  10.965 -0.7580  0.4985 -0.2580
  844SOL    HW114256   3.435  11.532  10.923  0.5482  0.2344  0.9791
  844SOL    HW214257   3.393  11.387  10.915  3.4449 -0.7572  2.3706
  845SOL     OW14258  11.413   5.683  10.457 -0.3338  0.2973  0.2150
  845SOL    HW114259  11.473   5.716  10.391 -0.6919  0.3067 -0.1042
  845SOL    HW214260  11.413   5.588  10.445  0.4075  0.2008  0.8875
  846SOL     OW14261   0.022   8.103   6.055  0.2521  0.4838  0.1074
  846SOL    HW114262  -0.054   8.144   6.096  1.2025  0.9856  1.4375
  846SOL    HW214263  -0.014   8.052   5.982 -1.4325  0.0707  1.1879
  847SOL     OW14264   1.780  10.278   6.940  0.5967  0.2572  0.1211
  847SOL    HW114265   1.718  10.348   6.957  1.2372  1.6393 -2.7006
  847SOL    HW214266   1.864  10.321   6.930  1.3045 -1.1028 -0.0973
  848SOL     OW14267   9.359  10.480   7.424 -0.3023 -0.7567 -0.2305
  848SOL    HW114268   9.375  10.567   7.460  0.7500 -1.2458  0.5206
  848SOL    HW214269   9.393  10.484   7.335 -3.0979  0.5240 -1.3573
  849SOL     OW14270   3.641   6.826   8.526  0.0040  0.4987  0.6508
  849SOL    HW114271   3.554   6.812   8.489  1.0713 -3.4716 -0.9274
  849SOL    HW214272   3.637   6.788   8.613 -0.4699  2.8919  1.7478
  850SOL     OW14273  11.031   2.161   0.569  0.3892  0.3958  0.6694
  850SOL    HW114274  11.006   2.132   0.657 -3.4112 -1.4561 -0.8395
  850SOL    HW214275  10.975   2.237   0.552 -1.8490 -1.5425 -1.4074
  851SOL     OW14276   2.725   4.999   7.480  0.6492 -0.0942 -0.2215
  851SOL    HW114277   2.654   5.028   7.537 -0.8173 -2.1874 -0.8698
  851SOL    HW214278   2.754   5.078   7.435 -2.2399  0.6401 -0.9772
  852SOL     OW14279   4.963   8.330   8.060  0.0312  0.2666 -0.2935
  852SOL    HW114280   4.892   8.265   8.059 -0.8336  1.1713  0.0069
  852SOL    HW214281   5.038   8.284   8.097 -1.1773  0.0315  2.0036
  853SOL     OW14282   0.240   2.242   2.927  0.5667  0.3393  0.2434
  853SOL    HW114283   0.328   2.262   2.959  1.0610 -1.4847  0.0997
  853SOL    HW214284   0.247   2.154   2.891 -1.1405  0.4799 -0.5160
  854SOL     OW14285   2.848  11.427   5.920  0.2319 -0.1034  0.3466
  854SOL    HW114286   2.893  11.503   5.882  1.1869 -0.2806  1.0969
  854SOL    HW214287   2.910  11.391   5.983 -0.0437 -1.7595 -0.2884
  855SOL     OW14288   1.228  11.669   9.648  0.3846  0.3375  0.1570
  855SOL    HW114289   1.258  11.677   9.557 -0.9044  0.0220 -0.3126
  855SOL    HW214290   1.196  11.756   9.671  1.1244  0.5319  0.4698
  856SOL     OW14291   5.608   2.779   7.865 -0.3976 -0.4118 -0.3107
  856SOL    HW114292   5.643   2.711   7.808  0.1578  0.1680 -0.6667
  856SOL    HW214293   5.513   2.775   7.852 -0.3175 -0.6780 -0.8167
  857SOL     OW14294   3.119  10.227   1.726  0.0643 -0.0646 -0.1117
  857SOL    HW114295   3.191  10.202   1.784 -0.9362 -0.4782  1.0302
  857SOL    HW214296   3.091  10.144   1.686  0.1079  0.0593 -0.3935
  858SOL     OW14297   6.921  10.419   3.365 -0.0061  0.0498  0.3972
  858SOL    HW114298   6.920  10.406   3.270 -0.0403 -0.3513  0.4491
  858SOL    HW214299   7.014  10.422   3.388  0.0397 -1.5932  0.5654
  859SOL     OW14300   9.836  11.159   5.949  0.8240  0.1985 -0.2918
  859SOL    HW114301   9.836  11.121   5.861 -1.2752  1.6616 -1.0292
  859SOL    HW214302   9.798  11.091   6.004  1.6251 -0.5256 -0.6103
  860SOL     OW14303   0.409   2.998   7.457 -0.4169 -0.3782  0.2986
  860SOL    HW114304   0.411   2.902   7.452 -0.0820 -0.4477  1.5575
  860SOL    HW214305   0.325   3.018   7.498  0.0285 -0.1906  1.1250
  861SOL     OW14306   0.064   2.423   3.431 -0.6584  0.2823 -0.6067
  861SOL    HW114307   0.139   2.363   3.433 -1.2017 -0.4173 -0.7904
  861SOL    HW214308   0.086   2.490   3.496  0.9497  1.1251 -1.9338
  862SOL     OW14309   4.241   8.028   9.679 -0.0914  0.3684 -0.0528
  862SOL    HW114310   4.147   8.044   9.672 -0.1593 -0.3035 -0.7333
  862SOL    HW214311   4.264   8.061   9.766 -0.6362  2.0221 -0.5064
  863SOL     OW14312   6.389   3.131   7.368  1.1525 -0.3140  0.2372
  863SOL    HW114313   6.431   3.110   7.452 -0.3075 -0.2451  1.0099
  863SOL    HW214314   6.329   3.203   7.388  1.0580 -0.0463 -0.9529
  864SOL     OW14315   8.932   0.207   7.434  0.5006 -0.1145  0.5199
  864SOL    HW114316   8.989   0.278   7.463 -0.2403  0.7541 -0.0957
  864SOL    HW214317   8.941   0.205   7.339  0.8668 -1.1715  0.5554
  865SOL     OW14318   5.931  10.795  11.709  0.1358 -0.5226 -0.1457
  865SOL    HW114319   5.851  10.808  11.658  0.5191 -1.5888 -1.0396
  865SOL    HW214320   5.948  10.881  11.748 -2.0108 -0.5215  0.9330
  866SOL     OW14321   5.471   3.204   8.627 -0.0218 -0.5704 -0.3202
  866SOL    HW114322   5.426   3.178   8.707 -1.9669 -0.0060 -1.1690
  866SOL    HW214323   5.486   3.122   8.580 -1.1240 -0.6876 -0.4885
  867SOL     OW14324   7.074   0.555   7.285  0.9157  0.0394  0.1113
  867SOL    HW114325   7.076   0.511   7.200  1.8747 -0.8983  0.5970
  867SOL    HW214326   7.161   0.541   7.321  0.2864 -0.2623  1.5912
  868SOL     OW14327   5.201   7.257   1.963 -0.0642 -0.6270  0.2459
  868SOL    HW114328   5.268   7.197   1.930  0.2189 -1.3020  1.9271
  868SOL    HW214329   5.120   7.224   1.926  0.3671 -0.6504 -0.7019
  869SOL     OW14330   7.786   0.413   3.857 -0.6047 -0.0592 -0.1497
  869SOL    HW114331   7.726   0.430   3.930 -0.2234  1.7874 -0.2374
  869SOL    HW214332   7.771   0.321   3.836 -1.0612 -0.5255  1.9471
  870SOL     OW14333   2.956   2.313   4.256 -0.3482  0.0469 -0.1776
  870SOL    HW114334   2.973   2.378   4.325 -0.9312 -0.5825  0.5872
  870SOL    HW214335   2.998   2.233   4.288  1.4773  0.3270 -1.7120
  871SOL     OW14336   1.132   3.805   1.473 -0.2207 -0.9790 -0.8337
  871SOL    HW114337   1.085   3.787   1.555 -0.2997 -1.8710 -1.0606
  871SOL    HW214338   1.063   3.831   1.412  0.0148  1.3011 -0.2116
  872SOL     OW14339   2.934   4.253   5.159 -0.2308  0.7309 -0.2293
  872SOL    HW114340   2.932   4.158   5.151 -0.5958  0.5571  1.4025
  872SOL    HW214341   2.889   4.271   5.242  1.5467  2.1856  0.5020
  873SOL     OW14342   3.882   2.655   3.236  0.7812 -0.2266  0.4071
  873SOL    HW114343   3.931   2.711   3.296 -0.8260  0.0710  1.4981
  873SOL    HW214344   3.912   2.682   3.149  1.4116  1.0269  0.9819
  874SOL     OW14345   2.060   9.923   3.587  0.3863 -0.2766 -0.0879
  874SOL    HW114346   2.123   9.971   3.534  1.0909 -0.2664  0.7405
  874SOL    HW214347   2.014   9.991   3.637  1.1944 -0.4307  0.8808
  875SOL     OW14348  10.642   9.210  11.289  0.0775  0.1225 -0.1079
  875SOL    HW114349  10.672   9.300  11.279 -0.8857  0.2536 -2.8870
  875SOL    HW214350  10.717   9.157  11.264 -0.2495  0.2983 -1.5782
  876SOL     OW14351   0.577   3.947  11.275 -0.0306 -0.1841 -0.1420
  876SOL    HW114352   0.530   3.895  11.340 -1.3173  0.3783 -0.5994
  876SOL    HW214353   0.568   3.898  11.194  0.9055 -0.4852 -0.0832
  877SOL     OW14354  11.210   5.252  11.920 -0.4201 -0.1452  0.2437
  877SOL    HW114355  11.136   5.221  11.972 -1.0282 -1.1183 -1.1523
  877SOL    HW214356  11.265   5.175  11.908 -1.7512 -0.7806 -2.9289
  878SOL     OW14357   5.896  10.180  10.689 -0.4459 -0.4748  0.0378
  878SOL    HW114358   5.851  10.264  10.701  0.2351  0.0111 -0.7085
  878SOL    HW214359   5.975  10.188  10.743  0.3289 -0.0633 -1.1085
  879SOL     OW14360   4.474   5.848   3.198 -0.5156 -0.3697  0.0701
  879SOL    HW114361   4.402   5.793   3.230 -1.0824 -0.3769 -1.1631
  879SOL    HW214362   4.433   5.931   3.176  0.1316  0.1462  0.7730
  880SOL     OW14363   8.224   7.712   4.701 -0.0658 -0.0555  0.3955
  880SOL    HW114364   8.189   7.715   4.611 -1.1690 -0.7661  0.7797
  880SOL    HW214365   8.176   7.780   4.747 -0.0223 -0.1821  0.6258
  881SOL     OW14366  11.092   6.757   8.825  0.4808 -0.1305 -0.2106
  881SOL    HW114367  11.021   6.793   8.772  0.5764 -0.4331 -0.5481
  881SOL    HW214368  11.092   6.810   8.905 -0.9796 -0.9633  0.3871
  882SOL     OW14369   1.617   8.137   6.391 -0.0695 -0.0840  0.0090
  882SOL    HW114370   1.625   8.232   6.403 -0.0480 -0.2114  1.1304
  882SOL    HW214371   1.642   8.122   6.300 -0.2519  1.0063 -0.2394
  883SOL     OW14372   2.681   8.040   5.572 -0.2512 -0.4064 -0.7000
  883SOL    HW114373   2.588   8.057   5.558 -1.1266 -3.6623  0.2876
  883SOL    HW214374   2.711   7.999   5.491 -0.3202 -1.4817 -0.2015
  884SOL     OW14375   0.978   4.326  10.690 -0.1370  0.1765  0.0106
  884SOL    HW114376   0.904   4.353  10.636 -0.7099 -1.8781 -0.3271
  884SOL    HW214377   0.971   4.230  10.694  1.0959  0.1093  2.0070
  885SOL     OW14378  10.149   9.844   5.310  0.2636  0.1530  0.4187
  885SOL    HW114379  10.197   9.837   5.393  0.0436 -0.5015  0.5032
  885SOL    HW214380  10.119   9.754   5.293  1.3118  0.0343 -0.9740
  886SOL     OW14381   0.812   7.350   0.102  0.0310 -0.3915 -0.2369
  886SOL    HW114382   0.739   7.366   0.042  0.1344  0.3058 -0.1866
  886SOL    HW214383   0.783   7.386   0.186 -0.1658 -1.4767  0.1861
  887SOL     OW14384   9.088   1.767   2.497 -0.9547 -0.3074  0.3648
  887SOL    HW114385   8.994   1.765   2.481 -0.8039 -1.2893 -0.6017
  887SOL    HW214386   9.097   1.782   2.591 -2.0897 -0.7254  0.5554
  888SOL     OW14387   4.205   5.124   1.546 -0.2704  0.0435 -0.6089
  888SOL    HW114388   4.115   5.115   1.577 -0.4030  1.1339 -0.6195
  888SOL    HW214389   4.196   5.143   1.452  0.1217 -3.3006 -1.4377
  889SOL     OW14390   3.474   9.962   6.237 -0.0808  0.5601  0.1603
  889SOL    HW114391   3.461  10.056   6.222 -1.7498  0.4987  1.0148
  889SOL    HW214392   3.544   9.938   6.175  0.7805  2.4548  0.3114
  890SOL     OW14393   5.996   6.161   3.751 -0.0262  0.2576 -0.2040
  890SOL    HW114394   6.078   6.149   3.704 -1.8562 -2.1594 -3.1535
  890SOL    HW214395   5.969   6.250   3.728  1.2375  0.6985 -0.0546
  891SOL     OW14396  10.693   4.599   7.053  0.3585 -0.2242 -0.7673
  891SOL    HW114397  10.709   4.683   7.012 -0.6993  1.1197  1.3619
  891SOL    HW214398  10.764   4.589   7.117  0.7006 -1.1445 -1.2800
  892SOL     OW14399   0.607   4.396   3.358  0.2087 -0.6441  0.2906
  892SOL    HW114400   0.606   4.346   3.439  0.2050 -1.3216 -0.1101
  892SOL    HW214401   0.670   4.466   3.372 -0.9435  0.1976  1.4192
  893SOL     OW14402   7.735   4.112   7.441  0.3102 -0.4386  0.2607
  893SOL    HW114403   7.753   4.205   7.424  0.2423 -0.4752 -0.0155
  893SOL    HW214404   7.649   4.097   7.404  0.6786 -0.8169 -0.4575
  894SOL     OW14405   7.263   2.795   8.613  0.0807 -0.1563 -0.1268
  894SOL    HW114406   7.182   2.837   8.643 -0.0715  0.1288 -0.8937
  894SOL    HW214407   7.333   2.854   8.641 -0.0456  0.0172 -0.1742
  895SOL     OW14408   2.594   0.192   6.445 -0.4743 -0.1889  0.3688
  895SOL    HW114409   2.557   0.209   6.358  3.0643  1.1936 -1.0305
  895SOL    HW214410   2.640   0.109   6.436  0.7762  0.4648  0.5712
  896SOL     OW14411   2.792   2.926   8.499 -0.5077 -0.2476 -0.3749
  896SOL    HW114412   2.846   2.948   8.423  0.9251 -2.0025  0.0881
  896SOL    HW214413   2.792   3.006   8.551 -1.4355  0.9647 -2.1219
  897SOL     OW14414   1.966  10.977   4.425  0.1321  0.2060 -0.3479
  897SOL    HW114415   1.879  11.011   4.449  0.5059  1.0132 -0.1208
  897SOL    HW214416   1.957  10.882   4.433 -0.5338  0.3180  0.3672
  898SOL     OW14417   6.913   0.267   4.970  0.4407 -0.5715  0.6948
  898SOL    HW114418   6.892   0.360   4.972  4.8711  0.6898  2.2182
  898SOL    HW214419   6.930   0.247   4.878  0.2823  0.3866  0.4582
  899SOL     OW14420   6.000  11.754   1.479  0.2644 -1.1942 -0.3231
  899SOL    HW114421   5.923  11.701   1.459 -2.1922  1.7352  0.7539
  899SOL    HW214422   5.983  11.789   1.566  2.7625 -0.2525 -0.1397
  900SOL     OW14423   0.065  11.497   3.848 -0.0563 -0.3404 -0.2444
  900SOL    HW114424   0.089  11.484   3.756  2.1697  2.3805 -0.1929
  900SOL    HW214425   0.141  11.464   3.897 -0.2686  0.2194  0.4756
  901SOL     OW14426   3.468   9.254   2.054 -0.0967  0.9891  0.3289
  901SOL    HW114427   3.504   9.170   2.084 -0.0568  0.6143 -0.7339
  901SOL    HW214428   3.522   9.279   1.980 -1.1513  1.1058 -0.4262
  902SOL     OW14429   6.900   9.702   7.836 -0.0772 -0.1726  0.6188
  902SOL    HW114430   6.933   9.781   7.880 -1.7254  0.3216  1.0715
  902SOL    HW214431   6.824   9.733   7.786  0.0823 -1.2423 -0.3229
  903SOL     OW14432  10.063   2.740   5.112  0.0054 -0.3154  0.5378
  903SOL    HW114433   9.998   2.674   5.137 -1.2530  0.0604 -1.5532
  903SOL    HW214434  10.052   2.810   5.177 -2.4661  0.2030 -0.3260
  904SOL     OW14435   7.626   7.056   1.313  0.0627 -0.5402  0.0089
  904SOL    HW114436   7.660   7.095   1.393  0.0203  0.7828 -0.5908
  904SOL    HW214437   7.559   7.117   1.283 -0.2945 -1.2820 -0.7613
  905SOL     OW14438   1.845   0.658  10.081 -0.1926  0.1848  0.4261
  905SOL    HW114439   1.791   0.696  10.012 -1.0679 -3.0221 -0.8623
  905SOL    HW214440   1.784   0.633  10.149  0.3595  1.0982  1.2752
  906SOL     OW14441   3.894   2.078   8.219 -0.8240 -0.1793  0.2407
  906SOL    HW114442   3.915   2.109   8.131  0.1868  0.7387  0.7824
  906SOL    HW214443   3.828   2.138   8.251  0.2638  0.7359  0.8393
  907SOL     OW14444   0.087   9.816   4.709  0.2236 -0.2499 -0.1221
  907SOL    HW114445   0.081   9.770   4.625  1.7166 -0.5078 -0.1239
  907SOL    HW214446   0.102   9.746   4.773 -0.1420  0.0093  0.2473
  908SOL     OW14447   0.960   5.600   3.734  0.0266 -0.0827  0.3657
  908SOL    HW114448   1.036   5.565   3.781  0.2251 -0.4910 -0.2474
  908SOL    HW214449   0.886   5.581   3.792  0.1825 -1.1818  0.2305
  909SOL     OW14450   9.412   2.261   7.414 -0.7906  0.2037 -0.2967
  909SOL    HW114451   9.350   2.222   7.476  0.4239 -0.8237  0.3211
  909SOL    HW214452   9.357   2.290   7.341 -2.3422  1.9510  1.4294
  910SOL     OW14453   6.725   1.152  11.406 -0.9799 -0.2034 -0.1217
  910SOL    HW114454   6.748   1.244  11.424  1.6940 -0.6316 -0.8465
  910SOL    HW214455   6.763   1.104  11.480 -0.6760 -0.8747 -0.7106
  911SOL     OW14456   0.088   2.938   5.597  0.0389  0.5461 -0.0866
  911SOL    HW114457   0.138   2.949   5.678  0.5121  0.1516 -0.3147
  911SOL    HW214458   0.098   3.021   5.551  1.4805  0.0894 -0.6603
  912SOL     OW14459   6.954   3.619   5.934  0.0737 -0.8484  0.7301
  912SOL    HW114460   7.042   3.606   5.900  0.1669  1.1002  0.1388
  912SOL    HW214461   6.898   3.627   5.857 -0.3164 -0.2351  1.0621
  913SOL     OW14462   6.339   7.624   7.306  0.0492 -0.0097  0.9109
  913SOL    HW114463   6.389   7.567   7.247 -1.3031 -0.8592  0.5467
  913SOL    HW214464   6.282   7.564   7.354 -1.9767  1.0574 -0.0340
  914SOL     OW14465   3.909   6.111   0.259  0.0824  0.4405 -0.1468
  914SOL    HW114466   3.932   6.196   0.219  1.1927  0.3612  0.2916
  914SOL    HW214467   3.932   6.047   0.192 -2.0365  0.5181 -1.0334
  915SOL     OW14468   0.584   1.026   7.319  0.0216 -0.6705  0.2324
  915SOL    HW114469   0.559   0.962   7.252  1.3076 -1.9262  0.8916
  915SOL    HW214470   0.655   1.076   7.280  0.6698 -1.3028  0.5750
  916SOL     OW14471  10.940   2.170   3.910  0.0710 -0.0616 -0.2164
  916SOL    HW114472  10.873   2.103   3.924 -0.4326  0.6816  1.1474
  916SOL    HW214473  11.011   2.145   3.969 -0.6560  1.2567  1.2969
  917SOL     OW14474   9.722  10.708  10.529 -0.0066  0.7641  0.2433
  917SOL    HW114475   9.671  10.692  10.450 -0.2830  1.0619  0.3591
  917SOL    HW214476   9.696  10.638  10.589  0.8527  0.0199 -0.2319
  918SOL     OW14477   6.453   5.609   3.849  0.7453 -0.4071  0.0376
  918SOL    HW114478   6.391   5.554   3.801  1.2023  0.0790 -1.1542
  918SOL    HW214479   6.535   5.601   3.801  1.3127 -0.1527  0.9370
  919SOL     OW14480  10.603   4.356  11.254 -0.1791  0.8590  0.2046
  919SOL    HW114481  10.534   4.292  11.272 -1.9381  2.4156 -0.7060
  919SOL    HW214482  10.571   4.437  11.292  2.3966  1.1191  2.0946
  920SOL     OW14483   8.249  10.674   6.135 -0.1883  0.6477 -0.1097
  920SOL    HW114484   8.318  10.740   6.142  0.9562 -0.3387 -1.4818
  920SOL    HW214485   8.191  10.708   6.067  1.1516 -0.3141 -1.8266
  921SOL     OW14486   9.853   0.139   4.381 -0.0039 -0.0236  0.3038
  921SOL    HW114487   9.884   0.151   4.471 -0.6622 -1.9375  0.8224
  921SOL    HW214488   9.916   0.078   4.342  0.9879  1.7099 -0.9758
  922SOL     OW14489   5.713  10.349   6.155  0.5747 -0.0574  0.1264
  922SOL    HW114490   5.723  10.324   6.063 -2.6911  3.7299 -1.5842
  922SOL    HW214491   5.622  10.327   6.176  0.6621  0.9926  1.7793
  923SOL     OW14492   0.400   7.393   7.520  1.0050  0.2120 -0.1103
  923SOL    HW114493   0.335   7.381   7.452 -1.2860 -1.6984  2.2322
  923SOL    HW214494   0.422   7.305   7.550  2.4874  0.9422  1.1561
  924SOL     OW14495   6.394  11.150   9.418  0.9364 -0.3253  0.3485
  924SOL    HW114496   6.439  11.211   9.476  3.0738  0.0077 -1.5005
  924SOL    HW214497   6.318  11.198   9.386  1.6626  0.7551  0.2081
  925SOL     OW14498   1.709   5.671  10.432 -1.0135 -0.3101 -0.1499
  925SOL    HW114499   1.620   5.695  10.409 -0.7553  1.5289  0.6298
  925SOL    HW214500   1.764   5.719  10.370 -0.5458 -1.4002 -0.6016
  926SOL     OW14501   0.224  10.557   3.993  0.1600  0.3722 -0.4795
  926SOL    HW114502   0.220  10.605   4.076 -2.1297  0.0910 -0.3625
  926SOL    HW214503   0.264  10.618   3.932  1.3526  0.7996  0.6847
  927SOL     OW14504   9.222   7.175  11.458 -0.0079 -0.1015 -0.0066
  927SOL    HW114505   9.166   7.192  11.533  0.5113  1.3896  0.0873
  927SOL    HW214506   9.163   7.174  11.383 -0.4072 -0.6457  0.3069
  928SOL     OW14507   6.265   0.171   8.137 -0.6263  0.3991  0.1109
  928SOL    HW114508   6.349   0.136   8.108  0.6302 -0.5627  4.2167
  928SOL    HW214509   6.199   0.111   8.101  0.8750 -1.5649  0.4914
  929SOL     OW14510   9.043   4.880   6.733  0.2879 -0.2155  0.3965
  929SOL    HW114511   9.135   4.865   6.713  0.2820 -0.5886  0.6315
  929SOL    HW214512   9.020   4.959   6.685  0.8748  0.1915  0.7760
  930SOL     OW14513   3.017   1.216   1.178  0.3487  0.6190  0.5662
  930SOL    HW114514   3.049   1.231   1.267 -0.3709 -1.4667  1.2344
  930SOL    HW214515   3.093   1.186   1.129  0.1757 -1.2233  1.3281
  931SOL     OW14516   2.439   8.951  11.656  0.0828 -0.0030  0.4773
  931SOL    HW114517   2.397   9.013  11.596 -0.0374 -0.7635 -0.2456
  931SOL    HW214518   2.379   8.877  11.659  1.3384 -1.1093 -0.5630
  932SOL     OW14519   4.062   9.990   1.498 -0.0797 -0.0230  0.5778
  932SOL    HW114520   4.059  10.028   1.586  1.7043  0.1333  0.6116
  932SOL    HW214521   4.125  10.044   1.450  1.1039 -1.7579  0.0703
  933SOL     OW14522   6.970   2.149   2.116  0.3194 -0.1435  0.3586
  933SOL    HW114523   7.023   2.090   2.171  0.6952 -0.9436 -0.8294
  933SOL    HW214524   6.921   2.090   2.058  0.1207  0.6884 -0.3352
  934SOL     OW14525   9.168   9.728   8.182  0.5769  0.4470 -0.1741
  934SOL    HW114526   9.218   9.663   8.231 -0.4128  0.6694  1.1806
  934SOL    HW214527   9.136   9.789   8.248 -1.6110  0.2299 -0.9442
  935SOL     OW14528   3.309   1.969   4.546 -0.5629 -0.5144 -0.5916
  935SOL    HW114529   3.340   2.056   4.523 -0.6519  0.1194  1.4578
  935SOL    HW214530   3.292   1.974   4.640 -1.8782 -2.3627 -0.6789
  936SOL     OW14531   5.061   1.945   3.190 -0.1872 -0.8968  0.7288
  936SOL    HW114532   5.030   1.983   3.273  0.2413 -0.5664  0.7388
  936SOL    HW214533   5.046   2.014   3.125  0.4319 -0.7736  0.7159
  937SOL     OW14534   6.429   8.118   7.571  0.2806 -0.4705 -0.0483
  937SOL    HW114535   6.477   8.053   7.520 -1.0023 -2.2524  0.8933
  937SOL    HW214536   6.382   8.067   7.636 -1.3307  1.3729  0.3263
  938SOL     OW14537   1.745   2.769   9.357  0.3466  0.4587 -0.3542
  938SOL    HW114538   1.836   2.754   9.381  0.5754 -0.1248 -1.5245
  938SOL    HW214539   1.731   2.713   9.281 -1.4399 -0.6712  0.7275
  939SOL     OW14540  11.220   0.915   9.326 -0.0597  0.0263 -0.0213
  939SOL    HW114541  11.164   0.901   9.402 -0.4417  1.5526  0.0109
  939SOL    HW214542  11.172   0.977   9.272  2.3166  2.8365  0.8755
  940SOL     OW14543   8.297  10.057   9.587  0.0195  0.2279  0.4997
  940SOL    HW114544   8.320  10.079   9.497 -1.2091 -0.3265  0.0350
  940SOL    HW214545   8.378  10.023   9.625  0.0852 -1.3927 -0.9919
  941SOL     OW14546   8.824   7.431   6.081  0.2409  0.3820 -0.4095
  941SOL    HW114547   8.896   7.479   6.124  0.3842 -0.9183  0.8746
  941SOL    HW214548   8.867   7.372   6.020  0.4688 -1.4755  1.4139
  942SOL     OW14549   4.820   6.334   6.945 -0.0193  0.3437 -0.0238
  942SOL    HW114550   4.745   6.286   6.981 -0.5607  1.1097 -0.1056
  942SOL    HW214551   4.846   6.394   7.014  0.0250  0.6258 -0.2854
  943SOL     OW14552   8.052  10.069  10.007  0.1623  0.2371  0.2561
  943SOL    HW114553   7.962  10.102  10.009 -0.4201 -1.3242  2.0567
  943SOL    HW214554   8.049   9.986  10.054  2.3460 -0.4282 -0.6453
  944SOL     OW14555   4.300   9.233   0.861  0.4269  0.3749 -0.5674
  944SOL    HW114556   4.313   9.320   0.900 -1.9967  0.3609  0.4828
  944SOL    HW214557   4.356   9.233   0.784  2.1421  2.0466  0.5746
  945SOL     OW14558  10.154   9.676   6.732  0.0230 -0.3850  0.9709
  945SOL    HW114559  10.111   9.609   6.786  0.1868 -0.5209  0.9325
  945SOL    HW214560  10.235   9.695   6.778 -0.0002 -0.2479  0.9550
  946SOL     OW14561   3.841   0.346   1.586  0.2717 -0.1847 -0.4970
  946SOL    HW114562   3.880   0.423   1.544  0.6004 -1.2793 -2.2649
  946SOL    HW214563   3.892   0.272   1.555  0.0115 -1.1649  1.2362
  947SOL     OW14564   7.177   1.722  10.131 -0.0343  0.3550  0.0320
  947SOL    HW114565   7.204   1.655  10.067 -0.9914  0.0157 -0.0272
  947SOL    HW214566   7.211   1.690  10.214  1.8603  1.1630 -0.3815
  948SOL     OW14567   5.084   7.817   6.966 -0.4167 -0.1804 -0.1245
  948SOL    HW114568   5.128   7.898   6.991  1.5584 -0.9641 -0.8319
  948SOL    HW214569   4.992   7.833   6.983  0.1155  1.5855  1.4089
  949SOL     OW14570   9.375  11.653   3.967  0.3798  0.1616  0.2801
  949SOL    HW114571   9.422  11.711   4.028 -1.4155  2.1842 -0.1470
  949SOL    HW214572   9.297  11.702   3.942 -0.5712 -1.9367 -1.1946
  950SOL     OW14573   7.240   1.083   3.601  0.0942 -0.6695 -0.1358
  950SOL    HW114574   7.274   1.005   3.556  0.6377 -0.8626  0.5881
  950SOL    HW214575   7.276   1.076   3.689 -0.5393 -0.0245  0.1732
  951SOL     OW14576   6.909  10.355   6.319 -0.0116  0.2304 -0.4349
  951SOL    HW114577   6.828  10.342   6.368 -0.1424  1.2897 -0.3427
  951SOL    HW214578   6.955  10.271   6.325 -1.3677 -0.5769 -1.0034
  952SOL     OW14579   6.841   4.264   1.782  0.3296 -0.3558  0.4616
  952SOL    HW114580   6.894   4.339   1.755 -1.3256  0.1239 -1.7157
  952SOL    HW214581   6.849   4.202   1.709 -0.7144 -1.0016  0.8802
  953SOL     OW14582   6.646   2.785   1.866  0.3648  0.2233 -0.4000
  953SOL    HW114583   6.727   2.794   1.816  0.9290 -0.4102  0.3758
  953SOL    HW214584   6.657   2.705   1.917 -1.6201 -1.0914 -1.8578
  954SOL     OW14585   3.912   9.304   3.333  0.0166  0.0956 -0.1666
  954SOL    HW114586   3.877   9.216   3.323  0.4457 -0.1607  0.5141
  954SOL    HW214587   3.836   9.359   3.353 -0.1634 -0.2299  0.0437
  955SOL     OW14588  11.169   9.191   6.353  0.2657  0.4059  0.1574
  955SOL    HW114589  11.231   9.124   6.326 -0.4219 -1.3138  2.5738
  955SOL    HW214590  11.103   9.192   6.284  0.0659 -1.7459  0.2575
  956SOL     OW14591   8.915  11.348   5.045 -0.5456  0.0308  0.3904
  956SOL    HW114592   8.924  11.427   5.098 -0.5865 -1.6261  3.1261
  956SOL    HW214593   8.825  11.350   5.012 -0.1012  1.7571 -0.8153
  957SOL     OW14594   4.136   9.641   6.937 -0.1360 -0.3752 -0.0668
  957SOL    HW114595   4.178   9.582   7.000 -0.8249 -0.9701 -0.1420
  957SOL    HW214596   4.081   9.583   6.883 -2.3423  0.5123  1.0861
  958SOL     OW14597   6.179   1.589   8.376  0.1887  0.5750  0.4828
  958SOL    HW114598   6.237   1.665   8.371 -0.4152  1.0036 -0.3137
  958SOL    HW214599   6.177   1.555   8.286  0.1954 -0.1869  0.7656
  959SOL     OW14600   2.651  10.690   8.741 -0.4207 -0.4391  0.2560
  959SOL    HW114601   2.566  10.677   8.698 -0.1004 -0.8935 -0.2557
  959SOL    HW214602   2.674  10.603   8.774 -1.1583  0.0960  2.3249
  960SOL     OW14603   4.943   1.691   5.174 -0.0341  0.4173  0.4330
  960SOL    HW114604   4.928   1.705   5.267 -0.6096  1.4888  0.1919
  960SOL    HW214605   4.882   1.750   5.130 -0.6551 -0.9600 -0.6469
  961SOL     OW14606   0.814  10.501   6.970 -0.5039  0.9404 -0.5604
  961SOL    HW114607   0.757  10.430   6.940 -0.6312  0.7505  0.1111
  961SOL    HW214608   0.845  10.472   7.056  1.3277  0.6262 -1.2797
  962SOL     OW14609  10.922   4.667   8.722 -0.4437 -0.2050 -0.3405
  962SOL    HW114610  10.998   4.680   8.779  0.1330 -0.1448 -1.1203
  962SOL    HW214611  10.846   4.684   8.779  0.0881 -1.1845  0.6951
  963SOL     OW14612   7.338   0.987   2.798  0.1156  0.4198  0.1876
  963SOL    HW114613   7.277   0.984   2.871 -1.1584  1.9897 -0.7494
  963SOL    HW214614   7.416   0.942   2.830 -2.3922 -4.2642  0.5107
  964SOL     OW14615   1.887   6.847  11.145 -0.5984  0.0391  0.1907
  964SOL    HW114616   1.797   6.846  11.177 -0.7440 -3.2441  0.0174
  964SOL    HW214617   1.937   6.885  11.217 -2.0264  1.8265  0.3294
  965SOL     OW14618   2.079   1.032  10.146  0.0058 -0.2684  0.4878
  965SOL    HW114619   2.117   1.118  10.127  0.4318 -0.2713  1.3047
  965SOL    HW214620   2.004   1.050  10.202  0.2648 -0.4417  0.8976
  966SOL     OW14621   6.966   2.533   8.322  0.3749  0.1399  0.7436
  966SOL    HW114622   6.996   2.598   8.258 -1.2027 -0.5933 -0.7916
  966SOL    HW214623   6.883   2.567   8.354 -0.1039 -0.7687  0.4777
  967SOL     OW14624  10.487   6.524  10.177 -0.0704 -0.5895 -0.3375
  967SOL    HW114625  10.440   6.441  10.178  0.1205 -0.6935  0.7182
  967SOL    HW214626  10.580   6.500  10.177  0.1291 -0.4911  3.8934
  968SOL     OW14627   5.197   2.124   8.045  0.1800 -0.6424 -0.6845
  968SOL    HW114628   5.272   2.071   8.070  0.2508 -1.1744 -1.9712
  968SOL    HW214629   5.195   2.195   8.110  0.8139 -1.5196  0.3237
  969SOL     OW14630   3.115   1.177   9.430  0.5807  0.7909 -0.4023
  969SOL    HW114631   3.197   1.133   9.410 -0.0174 -1.0869  0.9635
  969SOL    HW214632   3.133   1.270   9.414  1.5852  0.0709 -4.3759
  970SOL     OW14633   7.395   2.406   7.995  0.1343 -0.4830 -0.2587
  970SOL    HW114634   7.393   2.316   8.027  2.1915 -0.4673  0.0575
  970SOL    HW214635   7.472   2.445   8.037  0.3064  0.8877 -1.7381
  971SOL     OW14636   6.096   1.716  11.131 -0.2466  0.3323 -0.3900
  971SOL    HW114637   6.150   1.658  11.184 -0.9438  0.3103  0.3165
  971SOL    HW214638   6.034   1.755  11.193 -0.2645  1.2750 -0.9732
  972SOL     OW14639   7.357   8.682   0.807  0.3221 -0.0089 -0.0173
  972SOL    HW114640   7.335   8.628   0.882 -2.3600  0.6221 -0.2603
  972SOL    HW214641   7.425   8.742   0.840  0.8958 -1.2534  1.1771
  973SOL     OW14642   9.680  11.157   4.729 -0.0887 -0.0351 -0.8109
  973SOL    HW114643   9.725  11.210   4.663  1.5658  0.3826  0.5799
  973SOL    HW214644   9.647  11.221   4.793 -1.9781 -0.4035 -1.3608
  974SOL     OW14645   2.085   3.116   9.778  0.0904  0.2552  0.5468
  974SOL    HW114646   2.074   3.092   9.686 -0.0280 -1.3836  0.9618
  974SOL    HW214647   2.174   3.087   9.800  0.1880  0.8102  0.9125
  975SOL     OW14648   6.234   7.582   9.662  0.4761 -0.4143 -0.4048
  975SOL    HW114649   6.210   7.494   9.633  0.6807 -0.0522 -1.7413
  975SOL    HW214650   6.326   7.574   9.689 -0.3853 -1.3009  2.6051
  976SOL     OW14651   5.373   7.590  11.278 -0.1424  0.1137  0.1973
  976SOL    HW114652   5.434   7.651  11.238 -0.1754 -0.4087 -0.6718
  976SOL    HW214653   5.349   7.530  11.207 -0.6307 -0.4938  0.8640
  977SOL     OW14654   8.745   0.899   0.677 -0.2041 -0.3807  0.2694
  977SOL    HW114655   8.793   0.835   0.623 -0.9710 -2.2721  1.7164
  977SOL    HW214656   8.809   0.929   0.741 -0.4802 -1.6686  1.1797
  978SOL     OW14657  10.294   2.776   5.321  0.1038  0.5865 -0.3850
  978SOL    HW114658  10.274   2.849   5.379  0.7153  0.4004  0.0728
  978SOL    HW214659  10.208   2.744   5.292 -0.1440  2.2895 -1.6349
  979SOL     OW14660   5.138   2.072   6.077  0.4373 -0.1580 -0.1027
  979SOL    HW114661   5.118   1.995   6.024 -0.2424  0.3854 -0.6794
  979SOL    HW214662   5.060   2.084   6.131  0.6820 -0.0821  0.2303
  980SOL     OW14663   8.446   6.273   0.317  0.1815 -0.2234  0.1883
  980SOL    HW114664   8.417   6.253   0.406 -2.7282  0.1022 -0.5741
  980SOL    HW214665   8.383   6.337   0.285  2.5983  1.5819 -1.3251
  981SOL     OW14666   3.401   1.054   2.684  0.2099 -0.4053  0.2987
  981SOL    HW114667   3.402   1.074   2.591  2.6091 -0.7467  0.1864
  981SOL    HW214668   3.335   0.985   2.693  0.3945 -0.8160 -1.2379
  982SOL     OW14669   1.878   2.421   5.829  0.1342 -0.0546  0.3515
  982SOL    HW114670   1.888   2.514   5.848 -0.9353  0.1714 -0.1033
  982SOL    HW214671   1.967   2.386   5.832  0.7306  1.2578 -0.8434
  983SOL     OW14672   1.450  11.492  10.678 -0.2588 -0.4126 -0.1257
  983SOL    HW114673   1.382  11.465  10.616  0.1812 -0.2284 -0.7003
  983SOL    HW214674   1.403  11.542  10.745 -0.9056 -1.5629  0.3088
  984SOL     OW14675   4.046   4.896   9.411  0.3669 -0.5161  0.3489
  984SOL    HW114676   4.038   4.988   9.385 -0.6378 -0.2435  1.5572
  984SOL    HW214677   4.134   4.871   9.383  0.6188  0.7826 -0.0829
  985SOL     OW14678   4.768  11.435   3.405  0.2067  0.7500 -0.6812
  985SOL    HW114679   4.765  11.516   3.456  0.4065 -1.2588  2.9209
  985SOL    HW214680   4.843  11.446   3.347  1.1915  2.5790  0.8146
  986SOL     OW14681   3.037   5.671   6.134  0.2799  0.2787  0.5312
  986SOL    HW114682   3.066   5.636   6.219  0.0382  0.5094  0.7125
  986SOL    HW214683   3.107   5.648   6.073 -0.5430 -1.8889  0.3056
  987SOL     OW14684   5.867   4.927   0.549  0.6204 -0.0605 -0.4511
  987SOL    HW114685   5.800   4.993   0.572  0.6124 -0.3302  0.3493
  987SOL    HW214686   5.848   4.905   0.458 -1.4999 -1.4024  0.2421
  988SOL     OW14687  10.916   6.490   7.095 -0.0697 -0.1764 -0.2930
  988SOL    HW114688  10.985   6.427   7.116 -2.0485 -2.1117  0.7726
  988SOL    HW214689  10.933   6.515   7.004  1.8961 -0.7283 -0.1222
  989SOL     OW14690   4.327   6.864  10.522  0.0392 -0.1288 -0.2693
  989SOL    HW114691   4.393   6.829  10.581  0.4143  0.0058 -0.6015
  989SOL    HW214692   4.313   6.954  10.553 -0.8802 -0.5381  0.5446
  990SOL     OW14693   7.002   8.057   5.601 -0.3364  0.7792 -0.0756
  990SOL    HW114694   6.986   8.142   5.642 -0.3988  0.2882  0.9398
  990SOL    HW214695   6.923   8.007   5.618 -0.6742  0.8043 -1.4690
  991SOL     OW14696   4.382   1.912   3.885  0.9848  0.5637 -0.1952
  991SOL    HW114697   4.354   1.824   3.909  1.7261  0.4234  0.1645
  991SOL    HW214698   4.459   1.929   3.938  1.2035  1.2029 -0.6983
  992SOL     OW14699   4.362   1.459   5.074 -0.2146  0.3793 -0.2450
  992SOL    HW114700   4.431   1.521   5.048 -1.5269  1.6954 -0.7178
  992SOL    HW214701   4.383   1.379   5.026  1.0043  0.7319 -0.3492
  993SOL     OW14702   6.082   3.387   9.739 -0.3791  0.5861  1.0543
  993SOL    HW114703   6.160   3.408   9.791 -0.0742  0.0578  0.8244
  993SOL    HW214704   6.117   3.358   9.655 -0.8724  1.5979  0.4818
  994SOL     OW14705   5.305  10.954   8.939 -0.5375  0.7387 -0.8122
  994SOL    HW114706   5.349  11.011   9.002 -0.8035 -0.3752  0.3956
  994SOL    HW214707   5.321  10.997   8.854  2.3329  0.7280 -0.3884
  995SOL     OW14708   5.060   7.513  10.935  0.0000 -0.2049 -0.4249
  995SOL    HW114709   5.028   7.487  11.021 -0.2605 -0.5690 -0.6324
  995SOL    HW214710   4.989   7.564  10.897 -0.4418 -1.2072 -0.9772
  996SOL     OW14711   1.989   0.599   1.056 -0.3278  0.2589  0.0182
  996SOL    HW114712   2.065   0.645   1.020 -0.7864  0.7930 -0.2831
  996SOL    HW214713   2.023   0.552   1.132  0.6097 -0.6790 -0.9449
  997SOL     OW14714   6.169   7.167  10.938 -0.0477 -0.1578  0.4770
  997SOL    HW114715   6.076   7.184  10.925  0.1294 -0.0641 -0.7534
  997SOL    HW214716   6.172   7.091  10.996 -0.9323 -1.5176 -1.1685
  998SOL     OW14717   0.438   2.765  11.289  0.3100 -0.3301  0.3679
  998SOL    HW114718   0.413   2.854  11.314  0.4940 -0.6178  1.6528
  998SOL    HW214719   0.424   2.713  11.369  1.7398 -1.1417  0.1117
  999SOL     OW14720   9.537   0.687   7.541  0.1138  0.4917  0.0162
  999SOL    HW114721   9.578   0.750   7.481  1.3763  1.7280  2.0460
  999SOL    HW214722   9.513   0.740   7.617 -0.6455 -1.1719  0.9735
 1000SOL     OW14723   5.390   3.086   1.538 -0.0753 -0.0493  0.0726
 1000SOL    HW114724   5.349   3.002   1.517  0.2550 -0.3257  0.5278
 1000SOL    HW214725   5.483   3.071   1.527 -0.1388  1.0848 -2.7748
 1001SOL     OW14726   7.136   8.887   6.681  0.5115 -0.1485  0.2044
 1001SOL    HW114727   7.171   8.803   6.709  0.8467  0.1050  0.5738
 1001SOL    HW214728   7.123   8.936   6.763 -0.3267 -0.0844  0.0416
 1002SOL     OW14729   8.800   0.253   1.910  0.5429 -0.0866  0.1576
 1002SOL    HW114730   8.807   0.240   2.004  0.7295  0.0655  0.1638
 1002SOL    HW214731   8.872   0.202   1.873 -0.0496 -0.8612  0.0380
 1003SOL     OW14732   2.572   0.849   3.913 -0.0894  0.4074  0.1008
 1003SOL    HW114733   2.580   0.941   3.889 -0.5192  0.1312 -1.1754
 1003SOL    HW214734   2.658   0.812   3.894 -0.5379  0.1044 -1.5174
 1004SOL     OW14735  11.486  11.490   7.165  0.1654  0.5832 -0.1799
 1004SOL    HW114736  11.454  11.531   7.084 -1.3900  0.4462  0.3420
 1004SOL    HW214737  11.451  11.401   7.162 -1.8164  1.2270  1.6574
 1005SOL     OW14738   1.148   5.982   0.737  0.4392  0.2062  0.6107
 1005SOL    HW114739   1.124   5.986   0.830  2.9328  0.1474  1.3332
 1005SOL    HW214740   1.221   6.042   0.729 -0.3347  0.9436 -1.5883
 1006SOL     OW14741   7.979   4.201   6.049  0.3978  0.0443 -0.3581
 1006SOL    HW114742   7.904   4.243   6.008  0.0449  0.1901  0.4091
 1006SOL    HW214743   8.055   4.247   6.015  0.2375 -0.8117 -1.9970
 1007SOL     OW14744   5.769  10.861   8.651 -0.1137  0.0241  0.4398
 1007SOL    HW114745   5.740  10.876   8.741 -0.8986  0.3012  0.1483
 1007SOL    HW214746   5.747  10.769   8.634  1.5050 -0.5088  1.0555
 1008SOL     OW14747  10.984   2.177   7.836 -0.4701 -0.7383  0.2936
 1008SOL    HW114748  10.964   2.093   7.877  0.3717 -1.1495 -0.1099
 1008SOL    HW214749  11.030   2.226   7.904 -0.9992 -0.5811  0.5434
 1009SOL     OW14750   3.231  10.367   0.474  0.2728 -0.1692  0.5732
 1009SOL    HW114751   3.199  10.445   0.520 -0.4576  0.7736 -1.3981
 1009SOL    HW214752   3.187  10.370   0.389  1.8218 -1.6196 -0.3423
 1010SOL     OW14753  10.167   1.522  10.426 -0.3094 -0.0725  0.3565
 1010SOL    HW114754  10.115   1.455  10.381 -0.9218 -0.1629  1.1768
 1010SOL    HW214755  10.252   1.519  10.383 -0.8225 -0.2641 -0.6858
 1011SOL     OW14756   0.852   2.880   6.821  0.1912 -0.2828 -0.1934
 1011SOL    HW114757   0.842   2.950   6.756  0.8674 -2.0300 -2.2882
 1011SOL    HW214758   0.943   2.886   6.849  0.0488  0.1226  0.1938
 1012SOL     OW14759   9.954   6.785   9.119  0.2427 -0.1429 -0.2824
 1012SOL    HW114760   9.985   6.852   9.180  0.1178 -1.2599  1.0908
 1012SOL    HW214761   9.894   6.830   9.060  0.9302  1.1311 -0.0316
 1013SOL     OW14762   0.104   9.321   7.978 -0.0547  0.0156  0.2484
 1013SOL    HW114763   0.133   9.230   7.990  1.9390  0.7283  1.1175
 1013SOL    HW214764   0.009   9.313   7.965  0.1538 -2.2478 -0.4762
 1014SOL     OW14765   5.691   2.240   3.385  0.6168 -0.8033 -0.1626
 1014SOL    HW114766   5.618   2.179   3.373 -0.7148  0.4776  1.0306
 1014SOL    HW214767   5.670   2.314   3.328  0.7553 -0.2263  0.5337
 1015SOL     OW14768   4.494   4.026   7.937  0.2376 -0.5936 -0.3345
 1015SOL    HW114769   4.433   4.090   7.973  0.7455 -0.0500 -0.4212
 1015SOL    HW214770   4.460   3.941   7.966  0.9202 -0.1680  1.8781
 1016SOL     OW14771  11.661   1.718   6.662  0.3298  0.0877  0.1639
 1016SOL    HW114772  11.632   1.737   6.572 -1.1801 -0.5412  0.4834
 1016SOL    HW214773  11.691   1.627   6.658 -0.9193 -0.3634  0.5340
 1017SOL     OW14774   1.016   6.301   3.154 -0.3223 -0.0503 -0.6766
 1017SOL    HW114775   1.095   6.248   3.164 -1.1924 -1.4689 -0.9031
 1017SOL    HW214776   1.005   6.312   3.060  0.6527  1.8595 -0.6048
 1018SOL     OW14777  10.780   0.114   0.868 -0.4227  0.2738 -0.2285
 1018SOL    HW114778  10.847   0.177   0.841 -1.6363  1.3576 -0.8331
 1018SOL    HW214779  10.770   0.129   0.962  0.7116 -0.4347  0.0154
 1019SOL     OW14780   5.717   8.118   4.076  0.2828 -0.3623  0.6227
 1019SOL    HW114781   5.805   8.155   4.077 -0.2753  1.2149 -1.6366
 1019SOL    HW214782   5.726   8.036   4.027  0.2352  0.8070 -1.4790
 1020SOL     OW14783   4.949  11.408   4.024 -0.1466 -0.3607  0.1633
 1020SOL    HW114784   4.964  11.323   4.065  0.5780  0.0737  0.8285
 1020SOL    HW214785   4.996  11.470   4.080 -0.6953  0.4845 -0.2896
 1021SOL     OW14786   9.295   9.775   7.937 -0.3325 -0.3549  0.5129
 1021SOL    HW114787   9.259   9.767   8.025 -0.7972  0.0088  0.3625
 1021SOL    HW214788   9.386   9.747   7.946 -0.6867 -1.4434  0.8623
 1022SOL     OW14789   5.316   8.533   3.367  0.4223 -0.4169  0.2808
 1022SOL    HW114790   5.333   8.461   3.427  0.2913 -1.1668 -0.5564
 1022SOL    HW214791   5.379   8.520   3.296  0.6241  0.4927  0.2893
 1023SOL     OW14792   7.687  10.703   7.247 -0.2902 -0.1578  0.0259
 1023SOL    HW114793   7.682  10.798   7.260  0.2064 -0.1543  0.2257
 1023SOL    HW214794   7.774  10.680   7.279 -0.4990 -0.7161  0.1907
 1024SOL     OW14795   0.469   4.761   7.101 -0.2054  0.0795 -0.1211
 1024SOL    HW114796   0.470   4.780   7.007  2.7061  0.7927 -0.0395
 1024SOL    HW214797   0.503   4.672   7.109  4.7489  1.6682  0.2906
 1025SOL     OW14798   5.684   2.817   2.898 -0.1290  0.3782  0.5373
 1025SOL    HW114799   5.650   2.810   2.987  0.3056  1.0179  0.7587
 1025SOL    HW214800   5.666   2.907   2.872  2.3237  1.1131  1.0772
 1026SOL     OW14801   5.524   7.029  10.552 -0.2888  0.0815  0.1221
 1026SOL    HW114802   5.592   6.969  10.521  0.1778  0.5781  0.1483
 1026SOL    HW214803   5.451   6.973  10.576 -0.6206 -0.3258 -1.7493
 1027SOL     OW14804   5.249   5.715   9.504 -0.1012 -0.1939 -0.1354
 1027SOL    HW114805   5.171   5.713   9.448 -0.2631  1.4762 -0.0147
 1027SOL    HW214806   5.222   5.672   9.585 -0.9265  0.4321 -0.0716
 1028SOL     OW14807  11.503   4.350   2.379 -0.1041  0.3255  0.4174
 1028SOL    HW114808  11.459   4.299   2.446 -1.3947 -0.1893 -0.7772
 1028SOL    HW214809  11.481   4.441   2.399 -0.3889  0.1848  0.7465
 1029SOL     OW14810   3.965   2.697   2.512 -0.0542  0.9420 -0.2134
 1029SOL    HW114811   3.915   2.727   2.436  0.6316  0.2046 -0.9856
 1029SOL    HW214812   4.057   2.711   2.487  0.1502  1.8281  0.9789
 1030SOL     OW14813  11.531   5.117   9.544  0.6991  0.3789 -0.4187
 1030SOL    HW114814  11.567   5.205   9.552 -1.7631  1.4024  0.1038
 1030SOL    HW214815  11.584   5.064   9.605  2.1682  1.4522 -0.7051
 1031SOL     OW14816   2.986  10.542   1.367 -0.0409  0.1677  0.6157
 1031SOL    HW114817   3.017  10.621   1.324  0.6601  0.0105  0.8223
 1031SOL    HW214818   2.990  10.562   1.461 -1.2024  0.3752  0.6455
 1032SOL     OW14819   8.268   4.410  11.721  0.2638  0.0648  0.4195
 1032SOL    HW114820   8.293   4.318  11.710 -0.5581  0.0334 -1.4693
 1032SOL    HW214821   8.333   4.445  11.782  1.2861 -1.4706  0.2637
 1033SOL     OW14822   5.130   5.479   4.520 -1.1755  0.3895  0.0839
 1033SOL    HW114823   5.165   5.567   4.525 -1.6887  0.5545  2.7567
 1033SOL    HW214824   5.205   5.424   4.497  0.0050  1.1855  1.7628
 1034SOL     OW14825   2.289   8.708  11.880  0.1652 -0.6968  0.1782
 1034SOL    HW114826   2.230   8.638  11.853  0.6365 -1.4149  0.9535
 1034SOL    HW214827   2.231   8.779  11.909 -0.3159 -0.6102 -0.9594
 1035SOL     OW14828   2.462   2.831   4.650 -0.2369  0.0142  0.1608
 1035SOL    HW114829   2.457   2.800   4.740 -0.1845 -0.7415 -0.0885
 1035SOL    HW214830   2.372   2.852   4.626 -0.4437 -1.0792 -0.0471
 1036SOL     OW14831   6.290   7.193  11.411  0.4375  0.0512 -0.0300
 1036SOL    HW114832   6.230   7.119  11.406  1.1405 -1.2539  5.0869
 1036SOL    HW214833   6.377   7.154  11.402  0.7564  0.4841  1.0550
 1037SOL     OW14834   7.910   0.419   5.475  0.6729  0.3637 -0.2281
 1037SOL    HW114835   7.821   0.386   5.481  0.0792  1.7916 -0.8577
 1037SOL    HW214836   7.962   0.359   5.528 -0.7067 -0.3019  0.3906
 1038SOL     OW14837   5.866   1.418   9.602  0.1488  0.0048  0.1604
 1038SOL    HW114838   5.960   1.416   9.621  0.1672  2.9096  0.7624
 1038SOL    HW214839   5.856   1.365   9.523  2.3969  0.2614 -0.3519
 1039SOL     OW14840   2.731  10.958   4.237 -0.2445 -0.2537  0.2068
 1039SOL    HW114841   2.815  11.005   4.234  0.1535 -0.9633 -0.0754
 1039SOL    HW214842   2.682  10.991   4.161  0.3442 -0.8547 -0.4482
 1040SOL     OW14843   9.271  10.567   5.848 -0.2562 -0.0640  0.1231
 1040SOL    HW114844   9.361  10.594   5.866  0.5061 -0.6756 -2.4136
 1040SOL    HW214845   9.219  10.615   5.913  1.7982  0.8395  1.2136
 1041SOL     OW14846  11.052   8.519   6.980 -0.1190 -0.3579 -0.6863
 1041SOL    HW114847  11.041   8.472   6.897 -0.8620 -0.7297 -0.3929
 1041SOL    HW214848  10.976   8.578   6.984  0.7725  0.8499 -1.0214
 1042SOL     OW14849   8.989   1.268   2.113  0.1239 -0.7990 -0.1528
 1042SOL    HW114850   9.026   1.189   2.153  0.1921 -0.8783 -0.3705
 1042SOL    HW214851   9.061   1.330   2.109 -0.1035 -0.4710  0.6735
 1043SOL     OW14852   0.366   8.457   5.799 -0.0634  0.0831 -0.0862
 1043SOL    HW114853   0.398   8.505   5.723 -0.4383 -0.0131 -0.3102
 1043SOL    HW214854   0.442   8.408   5.831  0.5032  1.3179  0.5434
 1044SOL     OW14855  11.093   0.298  10.172 -0.7342  0.6896 -0.0005
 1044SOL    HW114856  11.053   0.238  10.236  1.1409 -0.5517  0.0685
 1044SOL    HW214857  11.118   0.242  10.099 -0.2592  1.6487 -0.5891
 1045SOL     OW14858   0.502   1.899   6.666 -0.6505 -0.0890  0.4155
 1045SOL    HW114859   0.446   1.969   6.701  1.2236  2.1506 -0.7302
 1045SOL    HW214860   0.588   1.915   6.704 -0.1453 -1.7789  0.0683
 1046SOL     OW14861   9.349   9.920  11.105  0.0034  0.5040 -0.2797
 1046SOL    HW114862   9.415   9.988  11.093  0.7274 -0.2812 -0.8643
 1046SOL    HW214863   9.353   9.899  11.198  1.2075 -0.1462 -0.4617
 1047SOL     OW14864   4.631  11.894   9.568  0.3340  0.9888  0.5307
 1047SOL    HW114865   4.574  11.841   9.512 -0.5416  3.0489 -0.6472
 1047SOL    HW214866   4.718  11.855   9.558 -0.4473 -0.8977  0.6419
 1048SOL     OW14867   8.684   1.552   9.081  0.0635 -0.0865 -0.3574
 1048SOL    HW114868   8.605   1.501   9.063 -0.1635  0.5195 -1.1253
 1048SOL    HW214869   8.651   1.633   9.121  0.1976  0.6456 -1.6889
 1049SOL     OW14870   2.195   3.836  10.717 -0.4663  0.4202  0.4501
 1049SOL    HW114871   2.251   3.866  10.646 -3.5281  0.1362 -2.3262
 1049SOL    HW214872   2.186   3.912  10.774  1.2399  0.9873  0.0330
 1050SOL     OW14873   9.727  10.559   5.713 -0.0097  0.7969 -0.0332
 1050SOL    HW114874   9.686  10.473   5.725 -0.1306  0.4518 -2.5538
 1050SOL    HW214875   9.806  10.556   5.767  0.3262 -1.1507 -0.5750
 1051SOL     OW14876   6.530  10.036   9.275  0.6860 -0.1469 -0.1567
 1051SOL    HW114877   6.524   9.946   9.309 -1.3707 -0.6092 -1.5288
 1051SOL    HW214878   6.453  10.080   9.309  0.3105  0.3155 -1.5318
 1052SOL     OW14879  10.536  10.094  10.022  0.9743  0.3205  0.5559
 1052SOL    HW114880  10.494  10.021  10.069  0.2136  1.4940  1.7565
 1052SOL    HW214881  10.621  10.103  10.065  2.5495 -1.9248 -1.7444
 1053SOL     OW14882   0.973   7.860  10.408 -0.2846 -0.2933  0.2482
 1053SOL    HW114883   0.896   7.810  10.379  0.8743 -0.8974 -2.0607
 1053SOL    HW214884   0.967   7.860  10.503 -3.1198 -0.3339  0.1746
 1054SOL     OW14885   3.631   7.976   7.124  0.1157 -0.1183  0.0381
 1054SOL    HW114886   3.539   8.002   7.132 -0.5675 -2.6219  0.9832
 1054SOL    HW214887   3.646   7.973   7.029 -0.6378  0.6982 -0.1264
 1055SOL     OW14888   9.432   6.288   3.023  0.0841  0.6173 -0.1444
 1055SOL    HW114889   9.343   6.322   3.029  0.0190  0.8786 -2.0803
 1055SOL    HW214890   9.421   6.193   3.026 -0.1304  0.6566  0.7516
 1056SOL     OW14891   7.327   1.504   6.403 -0.4118  0.0845  0.0563
 1056SOL    HW114892   7.389   1.471   6.468 -0.3614  0.0198 -0.0235
 1056SOL    HW214893   7.310   1.594   6.429  0.5826  0.4703 -0.5528
 1057SOL     OW14894  10.791   0.656   1.523 -0.0230  0.4150  0.1237
 1057SOL    HW114895  10.757   0.743   1.503  0.1617  0.6327  0.7537
 1057SOL    HW214896  10.716   0.609   1.560  0.0761  0.5512  0.5001
 1058SOL     OW14897   9.430   3.391   9.850 -0.2920  0.0488  0.1405
 1058SOL    HW114898   9.510   3.387   9.902 -1.3892  0.2993  1.9085
 1058SOL    HW214899   9.359   3.386   9.914 -1.7052  0.3241 -1.3441
 1059SOL     OW14900   5.037   4.849   5.522 -0.6338  0.2212 -0.1816
 1059SOL    HW114901   5.049   4.932   5.569  2.3097  0.2833 -0.8309
 1059SOL    HW214902   5.006   4.788   5.588  0.9012  0.9346  1.2805
 1060SOL     OW14903   5.314   5.989   7.725 -0.3473 -0.5865  0.2129
 1060SOL    HW114904   5.224   6.014   7.747 -0.7829  0.0153 -2.0127
 1060SOL    HW214905   5.337   6.046   7.652  1.4098 -1.5884 -0.0584
 1061SOL     OW14906   4.922   9.578   0.231 -0.6382  0.4412 -0.2433
 1061SOL    HW114907   4.989   9.510   0.235 -1.8198 -0.7317 -0.0055
 1061SOL    HW214908   4.970   9.659   0.251  0.7678 -0.3053 -0.4425
 1062SOL     OW14909   2.738   6.560   5.763  0.0963  0.2252 -0.0086
 1062SOL    HW114910   2.747   6.466   5.748 -0.3322  0.1664  0.0955
 1062SOL    HW214911   2.828   6.593   5.764  0.5458 -0.7314  3.3777
 1063SOL     OW14912   9.183   9.143  10.154  0.1916 -0.5051  0.4541
 1063SOL    HW114913   9.142   9.184  10.230 -0.5575 -0.2920 -0.0503
 1063SOL    HW214914   9.277   9.154  10.168  0.0151  1.3794  0.3255
 1064SOL     OW14915   3.096   4.387   5.613  0.2200 -0.4184  0.0717
 1064SOL    HW114916   3.008   4.379   5.650  0.5648 -0.0018  1.0362
 1064SOL    HW214917   3.127   4.296   5.607 -0.1262 -0.5422  0.1212
 1065SOL     OW14918   1.962   4.350   3.311  0.1846  0.4908  0.6913
 1065SOL    HW114919   1.894   4.283   3.306 -0.5348  1.0712  2.1586
 1065SOL    HW214920   2.044   4.301   3.322  0.0050 -0.1982 -0.7369
 1066SOL     OW14921   4.275  10.282  10.593 -0.0231  0.4023 -0.2190
 1066SOL    HW114922   4.240  10.360  10.550 -0.1877 -0.0302 -0.8928
 1066SOL    HW214923   4.232  10.279  10.678  1.9287  2.5110  0.9690
 1067SOL     OW14924   8.909   7.217   5.758  0.7399 -0.2843  0.0941
 1067SOL    HW114925   8.923   7.135   5.804  0.6196 -0.4445 -0.1514
 1067SOL    HW214926   8.934   7.198   5.667 -2.7859 -1.1596 -0.8552
 1068SOL     OW14927   7.011  11.831  11.722  0.6186 -0.2958 -0.4682
 1068SOL    HW114928   7.068  11.805  11.794 -0.6160 -1.5480  0.0817
 1068SOL    HW214929   7.060  11.807  11.643  1.4050 -0.1277 -0.0432
 1069SOL     OW14930   3.097   6.108  10.618  0.2427 -0.1865  0.1719
 1069SOL    HW114931   3.063   6.181  10.669 -0.1570  0.5122 -1.0403
 1069SOL    HW214932   3.183   6.090  10.656  0.6843  1.4454  0.0232
 1070SOL     OW14933   7.598   6.179   4.807  0.3814 -0.4172 -0.6578
 1070SOL    HW114934   7.513   6.142   4.786  0.5925 -0.5248 -1.3280
 1070SOL    HW214935   7.620   6.142   4.893 -0.4605 -0.0085 -0.2504
 1071SOL     OW14936   4.353  11.783   5.444  0.0057 -0.1242 -0.1033
 1071SOL    HW114937   4.293  11.857   5.445  0.3631  0.1878 -0.8327
 1071SOL    HW214938   4.437  11.819   5.472  0.3929 -0.0483 -1.3184
 1072SOL     OW14939   9.388   7.514   4.273 -0.4714  0.4828 -0.3413
 1072SOL    HW114940   9.366   7.462   4.196 -0.2512  1.0899 -0.8170
 1072SOL    HW214941   9.325   7.586   4.272 -1.1251 -0.0544  0.6173
 1073SOL     OW14942  10.911   0.982   4.993 -0.1964 -0.2749  0.0418
 1073SOL    HW114943  10.913   1.074   4.966  2.2558 -0.2853 -0.0432
 1073SOL    HW214944  10.983   0.973   5.054 -1.4733 -1.7970  1.4317
 1074SOL     OW14945   4.233   6.818   6.827 -0.1186 -0.1372 -0.4838
 1074SOL    HW114946   4.175   6.748   6.799  0.5311 -0.8887  0.0041
 1074SOL    HW214947   4.191   6.898   6.797 -1.2661 -0.6818 -0.3561
 1075SOL     OW14948   5.596   8.373   4.438 -0.6356 -0.0657 -0.2659
 1075SOL    HW114949   5.568   8.308   4.502  0.5835 -2.7497 -2.2621
 1075SOL    HW214950   5.552   8.454   4.465 -1.6044 -1.4743  2.8224
 1076SOL     OW14951   9.457   8.140   9.140 -0.2572 -0.0618 -0.0584
 1076SOL    HW114952   9.422   8.100   9.220  0.8511  0.5794  0.7770
 1076SOL    HW214953   9.528   8.196   9.171  1.3501 -1.1290 -1.6586
 1077SOL     OW14954   7.571   0.072   0.319 -0.1569 -0.2888 -0.5916
 1077SOL    HW114955   7.566  -0.002   0.379  0.0865 -0.8739 -1.2757
 1077SOL    HW214956   7.494   0.125   0.340  0.5704  0.1866  1.0688
 1078SOL     OW14957   6.562   3.317   6.903 -0.9924 -0.3345 -0.1593
 1078SOL    HW114958   6.581   3.235   6.857  0.8957  0.1621 -0.3471
 1078SOL    HW214959   6.551   3.292   6.995  1.4362 -0.6489  0.1148
 1079SOL     OW14960  10.543   6.720   0.075  0.4401  0.7255 -0.4452
 1079SOL    HW114961  10.513   6.650   0.017  0.9856 -0.0457  0.1848
 1079SOL    HW214962  10.627   6.690   0.108  0.9966  1.9796 -0.6577
 1080SOL     OW14963   7.659   3.296   0.109 -0.0037  0.5392  0.0748
 1080SOL    HW114964   7.611   3.345   0.042 -0.2004  0.3266  0.0604
 1080SOL    HW214965   7.706   3.229   0.061  1.0023  1.2809 -0.0127
 1081SOL     OW14966   3.322   3.086   0.998  0.0745 -0.1209  0.5489
 1081SOL    HW114967   3.396   3.073   1.057  0.3676  0.1865  0.2576
 1081SOL    HW214968   3.337   3.025   0.926  1.7476  2.0735 -1.0950
 1082SOL     OW14969   0.023   1.295   2.558  0.3663  0.3441  0.1982
 1082SOL    HW114970  -0.003   1.358   2.624 -0.3809  1.2200 -0.8961
 1082SOL    HW214971   0.115   1.276   2.578  0.0851  0.3985  1.6099
 1083SOL     OW14972   9.389  10.914   6.937 -0.0975 -0.0072 -0.3060
 1083SOL    HW114973   9.477  10.947   6.918 -0.6694  2.2372  0.5971
 1083SOL    HW214974   9.346  10.909   6.852  0.7235 -0.6532 -0.6980
 1084SOL     OW14975   1.842   8.294   4.657  0.0369  0.3118  0.1244
 1084SOL    HW114976   1.798   8.227   4.605  0.9432 -0.7440  0.6715
 1084SOL    HW214977   1.771   8.348   4.692 -0.6602  0.1364 -0.9834
 1085SOL     OW14978   3.429   6.598  10.963 -0.4923  0.1115  0.0168
 1085SOL    HW114979   3.463   6.605  10.874 -1.1580  2.4613 -0.1346
 1085SOL    HW214980   3.461   6.677  11.007 -1.9970  0.1291  1.1777
 1086SOL     OW14981   8.345   2.393   6.854  0.2920  0.1458  0.1899
 1086SOL    HW114982   8.340   2.474   6.904  3.7477  0.4973  0.2552
 1086SOL    HW214983   8.321   2.418   6.765 -2.0648  0.3822  0.8422
 1087SOL     OW14984   7.095   6.047   3.045 -0.2399  0.5612  0.7818
 1087SOL    HW114985   7.063   6.122   2.994  1.4569  1.0289  0.3395
 1087SOL    HW214986   7.098   6.080   3.135  1.5950  1.4953  0.4472
 1088SOL     OW14987   0.610   6.071   6.784  0.3537 -0.2222  0.0892
 1088SOL    HW114988   0.654   5.986   6.787  1.5001  0.3001 -0.9137
 1088SOL    HW214989   0.626   6.103   6.695  1.1525  1.6550  0.8476
 1089SOL     OW14990   4.512   4.651   4.212 -0.2721 -0.1349 -0.4324
 1089SOL    HW114991   4.508   4.639   4.307  0.7994  0.5853 -0.2827
 1089SOL    HW214992   4.432   4.608   4.180 -0.1966 -1.2036  0.6971
 1090SOL     OW14993   5.190   5.076   1.147  0.5356  0.3322  0.5185
 1090SOL    HW114994   5.275   5.091   1.105 -0.5079  1.5853 -1.3052
 1090SOL    HW214995   5.180   4.980   1.145  1.6626  0.2023  0.2664
 1091SOL     OW14996   1.815   8.458  11.912 -0.2092 -0.4124  0.2849
 1091SOL    HW114997   1.746   8.489  11.971 -1.3108 -0.1009 -1.1084
 1091SOL    HW214998   1.789   8.369  11.890  1.1053 -1.1507  1.5555
 1092SOL     OW14999   4.077   7.133   7.336 -0.2548  0.2808  0.0159
 1092SOL    HW115000   4.005   7.174   7.287 -0.5481 -0.5950 -0.3160
 1092SOL    HW215001   4.058   7.039   7.331  1.1899 -0.0081 -0.5150
 1093SOL     OW15002  11.229   7.012   9.554 -0.1681 -0.3228 -0.6483
 1093SOL    HW115003  11.199   7.071   9.623 -0.2145 -1.5528  0.4212
 1093SOL    HW215004  11.302   6.963   9.593  0.1869 -0.6409 -1.6628
 1094SOL     OW15005   7.902   7.168   1.215  0.0555 -0.0522 -0.6492
 1094SOL    HW115006   7.868   7.199   1.299 -0.0432  1.2401 -1.1520
 1094SOL    HW215007   7.884   7.074   1.215  1.1257 -0.3147  1.2851
 1095SOL     OW15008   0.417   1.002   6.920 -0.0516 -0.1822  0.9036
 1095SOL    HW115009   0.471   0.940   6.969  1.1838  0.4346  0.3711
 1095SOL    HW215010   0.443   0.990   6.829 -1.1696 -0.2004  0.5717
 1096SOL     OW15011   4.886  10.210   0.527  0.0611  0.4114  0.2562
 1096SOL    HW115012   4.936  10.290   0.546  1.4817  0.0957 -1.7447
 1096SOL    HW215013   4.937  10.167   0.458 -1.7052 -1.2484 -0.0820
 1097SOL     OW15014   7.374   4.585   0.185  0.2480  0.3864 -0.4976
 1097SOL    HW115015   7.393   4.500   0.145 -0.7699 -0.7437  1.2788
 1097SOL    HW215016   7.439   4.594   0.255 -1.9353 -0.8339  1.8548
 1098SOL     OW15017   4.270   7.992   5.605  0.3769  0.2989 -0.1011
 1098SOL    HW115018   4.228   8.077   5.617 -0.6705 -0.2701  0.4017
 1098SOL    HW215019   4.363   8.013   5.596  0.1935  1.4653  0.4465
 1099SOL     OW15020   4.630   5.120   1.335 -0.1881 -0.3584 -0.3048
 1099SOL    HW115021   4.563   5.182   1.306 -1.4458 -1.3951  0.3518
 1099SOL    HW215022   4.588   5.067   1.402  1.7767  0.0549  1.3818
 1100SOL     OW15023   5.161   8.442   1.520 -0.0376 -0.2326  0.2794
 1100SOL    HW115024   5.202   8.436   1.607 -4.1659  1.2489  2.6105
 1100SOL    HW215025   5.088   8.381   1.525 -0.7694  0.4055 -1.9518
 1101SOL     OW15026   6.766  10.806  11.884 -0.0431 -0.4242  0.8914
 1101SOL    HW115027   6.837  10.773  11.829 -0.2851 -1.4878  1.1885
 1101SOL    HW215028   6.698  10.739  11.878 -1.3542  0.9174  0.0146
 1102SOL     OW15029   4.534   0.293   2.306 -0.0160 -0.0900  0.0402
 1102SOL    HW115030   4.573   0.207   2.318 -1.1517 -0.4721  1.1940
 1102SOL    HW215031   4.512   0.323   2.395 -1.1850  0.6399 -0.4655
 1103SOL     OW15032   7.471   0.697   1.247 -0.2785 -0.7524 -0.1724
 1103SOL    HW115033   7.534   0.668   1.181 -1.5513  0.0569 -1.8324
 1103SOL    HW215034   7.397   0.636   1.237 -1.6911  1.0483 -1.5848
 1104SOL     OW15035   5.446   3.697   5.943  0.5814  0.0846  0.0740
 1104SOL    HW115036   5.526   3.671   5.897  0.3642  1.1991 -0.9792
 1104SOL    HW215037   5.397   3.616   5.952  1.3485 -0.4327 -0.2330
 1105SOL     OW15038   5.097   7.534   8.270 -0.9642  0.0819  0.2812
 1105SOL    HW115039   5.041   7.562   8.197 -0.5231  0.8497  0.2232
 1105SOL    HW215040   5.183   7.570   8.250 -0.5910 -0.5718  0.6761
 1106SOL     OW15041  11.439   0.127   4.630 -0.1178  0.0747  0.0334
 1106SOL    HW115042  11.369   0.070   4.661  0.8490 -1.1550  0.0118
 1106SOL    HW215043  11.514   0.069   4.618  1.0869  1.4521  0.6211
 1107SOL     OW15044   2.925   5.858  10.656  0.4501  0.6597 -0.1811
 1107SOL    HW115045   2.961   5.943  10.629  0.0815  0.6969 -0.5724
 1107SOL    HW215046   2.831   5.875  10.668  0.3614  0.2876 -0.3395
 1108SOL     OW15047   0.417  11.404   6.772  0.2124  0.3568 -0.1225
 1108SOL    HW115048   0.424  11.498   6.790 -1.1889  0.3680  0.5518
 1108SOL    HW215049   0.371  11.369   6.849  1.8130 -1.1105  0.2260
 1109SOL     OW15050   8.362   0.486   2.269 -0.3939 -0.0101  0.1799
 1109SOL    HW115051   8.281   0.491   2.321 -1.0848  0.2923 -0.8895
 1109SOL    HW215052   8.404   0.404   2.298 -1.5768 -0.6874  0.0629
 1110SOL     OW15053  10.151   3.342   2.298  0.9225  0.3699  0.9447
 1110SOL    HW115054  10.080   3.304   2.350  0.9004 -1.2866 -0.2179
 1110SOL    HW215055  10.125   3.326   2.207  2.4145  0.4203  0.4877
 1111SOL     OW15056   4.614   6.065   3.393  0.1822  0.2758 -0.1635
 1111SOL    HW115057   4.538   6.037   3.342  0.8525 -0.7004 -0.6623
 1111SOL    HW215058   4.676   6.098   3.328  1.8445 -2.7630 -0.3335
 1112SOL     OW15059   9.281   7.332   8.971  0.1750  0.0538  0.0314
 1112SOL    HW115060   9.287   7.280   9.052 -2.4507  0.2634  0.4449
 1112SOL    HW215061   9.317   7.417   8.994 -1.1771  0.3369  1.2507
 1113SOL     OW15062   4.529   3.124   8.243  1.1232 -0.1719 -0.4032
 1113SOL    HW115063   4.492   3.049   8.197  0.5518 -1.3038  1.7430
 1113SOL    HW215064   4.458   3.189   8.243  0.8768 -0.4377 -0.5076
 1114SOL     OW15065   6.734  11.143   4.577  0.1738  0.1572  0.0611
 1114SOL    HW115066   6.768  11.134   4.488  0.7636 -1.4395  0.4269
 1114SOL    HW215067   6.780  11.077   4.628 -2.1088 -0.8307  0.9801
 1115SOL     OW15068   1.119   5.174   5.601 -0.0564 -0.2095 -0.0230
 1115SOL    HW115069   1.100   5.237   5.670 -0.1418 -0.0640 -0.1807
 1115SOL    HW215070   1.047   5.111   5.606 -0.3489  0.0968 -0.3303
 1116SOL     OW15071   8.881   3.857   2.031  0.1297 -0.1847  0.6233
 1116SOL    HW115072   8.945   3.786   2.039  2.6501  1.8750  0.2667
 1116SOL    HW215073   8.885   3.882   1.939  1.1783  1.9260  1.1684
 1117SOL     OW15074   5.791   8.682  10.233  0.6900  0.1531 -0.6749
 1117SOL    HW115075   5.869   8.647  10.190  1.2282  0.3229  0.1302
 1117SOL    HW215076   5.718   8.651  10.180  1.2576 -0.6969 -0.9855
 1118SOL     OW15077  10.306   1.725   7.987 -0.0349  0.4290  0.4602
 1118SOL    HW115078  10.399   1.726   8.006  0.3282 -2.2533 -0.6801
 1118SOL    HW215079  10.270   1.660   8.048 -1.1048  1.1833  0.6552
 1119SOL     OW15080   0.335   3.530   6.631  0.1558 -0.0902  0.4519
 1119SOL    HW115081   0.291   3.550   6.714 -2.1241 -0.7017 -0.5354
 1119SOL    HW215082   0.319   3.606   6.576 -0.2055 -0.5677 -0.1156
 1120SOL     OW15083   7.884   5.721  10.905 -0.4160 -0.7559 -0.3579
 1120SOL    HW115084   7.837   5.690  10.827  0.5212 -1.4863 -0.6508
 1120SOL    HW215085   7.860   5.658  10.973 -1.0852 -0.2256 -0.0883
 1121SOL     OW15086   3.356   8.139   8.887 -0.1666  0.0407  0.2651
 1121SOL    HW115087   3.389   8.058   8.927 -3.1658 -1.2250  0.4185
 1121SOL    HW215088   3.307   8.110   8.811 -2.0661  1.6047  0.8152
 1122SOL     OW15089   7.863   7.307   6.413 -0.1810  0.2114 -0.4319
 1122SOL    HW115090   7.772   7.334   6.422  0.1237  0.5807  2.3354
 1122SOL    HW215091   7.864   7.217   6.446  0.5775  0.5059  0.3860
 1123SOL     OW15092  10.906   0.125   8.906  0.1046 -0.2742  0.3319
 1123SOL    HW115093  10.856   0.199   8.870  1.6272  0.5965 -0.1013
 1123SOL    HW215094  10.909   0.061   8.836 -0.1841 -0.2105  0.2625
 1124SOL     OW15095   2.596   4.464   4.459 -0.4306 -0.7441  0.4522
 1124SOL    HW115096   2.645   4.516   4.523 -0.0385 -0.0727 -0.3765
 1124SOL    HW215097   2.658   4.451   4.387 -1.5539  0.4092 -0.7678
 1125SOL     OW15098   4.361   2.600   4.965 -0.5470  0.4863  0.0603
 1125SOL    HW115099   4.451   2.632   4.967 -0.1810 -0.5036 -0.1185
 1125SOL    HW215100   4.352   2.562   4.878 -0.8144 -0.3392  0.4469
 1126SOL     OW15101   4.515  10.220   3.445  0.4728 -0.1859  0.0404
 1126SOL    HW115102   4.606  10.243   3.431  0.1906  0.9146 -0.0639
 1126SOL    HW215103   4.465  10.292   3.405 -0.4654 -1.3613 -1.0105
 1127SOL     OW15104   1.877   3.642   1.840 -0.7799  1.2604 -0.2384
 1127SOL    HW115105   1.855   3.663   1.749  0.7321  0.1134 -0.9305
 1127SOL    HW215106   1.827   3.704   1.892 -3.4176  0.5473 -1.7398
 1128SOL     OW15107   0.905   4.924   4.324 -0.1914 -0.2372 -0.0972
 1128SOL    HW115108   0.949   4.962   4.400 -0.9667  0.7064 -0.1093
 1128SOL    HW215109   0.973   4.872   4.281  0.4310 -0.2364  0.8626
 1129SOL     OW15110   6.426   2.732   4.571  0.1322 -0.2915 -0.5799
 1129SOL    HW115111   6.387   2.783   4.642  2.3938  1.4748 -0.4929
 1129SOL    HW215112   6.375   2.754   4.494  0.0104  0.8196 -0.2013
 1130SOL     OW15113   0.733   2.669   7.019  0.2972 -0.0250 -0.5289
 1130SOL    HW115114   0.784   2.717   6.953 -1.2498 -0.1248 -1.8700
 1130SOL    HW215115   0.789   2.595   7.042  1.3403  0.6176 -0.9003
 1131SOL     OW15116   4.747   2.924   3.016  0.2669  0.1445  0.2887
 1131SOL    HW115117   4.705   2.983   2.953  0.0312 -1.1628 -0.8107
 1131SOL    HW215118   4.755   2.841   2.970  0.2462 -0.8159  1.9456
 1132SOL     OW15119   6.519  10.216   6.717  0.0024  0.8665 -0.5336
 1132SOL    HW115120   6.520  10.243   6.809  1.1408  1.7268 -0.7767
 1132SOL    HW215121   6.494  10.123   6.720  0.2784  0.8093  0.6634
 1133SOL     OW15122   8.654   1.308   0.151 -0.1752  0.3731 -0.0469
 1133SOL    HW115123   8.735   1.360   0.158  0.4052 -0.5230  0.0580
 1133SOL    HW215124   8.644   1.269   0.238  0.3308 -1.0338 -0.5994
 1134SOL     OW15125   4.275   1.096   9.749 -0.2512 -0.1121  0.3329
 1134SOL    HW115126   4.317   1.050   9.822 -0.8413 -0.9090  0.1837
 1134SOL    HW215127   4.199   1.042   9.727  0.7514 -0.7486 -1.8695
 1135SOL     OW15128   7.343   9.774   6.274  0.2520  0.2957  0.6161
 1135SOL    HW115129   7.315   9.797   6.185  1.1082  0.2616  0.3304
 1135SOL    HW215130   7.392   9.693   6.263 -0.7184 -0.4176  1.3010
 1136SOL     OW15131   7.449   0.713  10.651 -0.2303 -0.2099 -0.0151
 1136SOL    HW115132   7.404   0.766  10.717  1.2602  0.9633  0.1263
 1136SOL    HW215133   7.506   0.655  10.701  1.4415  1.1772 -0.2090
 1137SOL     OW15134  11.390   8.728   9.599  0.1596 -0.3120 -0.1194
 1137SOL    HW115135  11.425   8.798   9.543  1.5719 -0.1334  0.9194
 1137SOL    HW215136  11.351   8.774   9.673 -0.6411 -0.5814 -0.3713
 1138SOL     OW15137   5.692   4.370   3.710  0.0366 -0.0109 -0.3610
 1138SOL    HW115138   5.689   4.363   3.806  1.1026 -0.2534 -0.3303
 1138SOL    HW215139   5.694   4.279   3.680  0.3096  0.0664 -0.5823
 1139SOL     OW15140   0.908   0.761   7.834  0.1766  0.5826 -0.0358
 1139SOL    HW115141   0.815   0.754   7.814  0.3254  1.2004 -0.9935
 1139SOL    HW215142   0.945   0.679   7.802 -0.3980 -0.9144  2.7840
 1140SOL     OW15143   3.993   1.369   5.545  0.4639 -0.2355 -0.0987
 1140SOL    HW115144   4.074   1.417   5.559 -0.5412  1.1512  1.2939
 1140SOL    HW215145   4.020   1.278   5.540  2.3410  0.3413 -1.9916
 1141SOL     OW15146   7.406   5.162  10.024 -0.1157  0.1688  0.2372
 1141SOL    HW115147   7.341   5.226   9.995  0.7879  1.1606  0.3464
 1141SOL    HW215148   7.372   5.078   9.992 -2.5422  0.3023  2.1213
 1142SOL     OW15149   9.392   2.508   8.944  0.1616 -0.0493  0.0046
 1142SOL    HW115150   9.372   2.601   8.936  2.8026  0.6272  0.4804
 1142SOL    HW215151   9.335   2.478   9.016  0.5300  1.6235  1.0521
 1143SOL     OW15152  11.186   4.839   2.555  0.5704 -0.5163  0.1929
 1143SOL    HW115153  11.156   4.903   2.619  0.4508 -0.6714  0.2908
 1143SOL    HW215154  11.167   4.880   2.470  0.1835 -0.5677  0.2542
 1144SOL     OW15155   6.852   0.053   0.752  0.0164 -0.5256  0.1844
 1144SOL    HW115156   6.879  -0.030   0.713  0.9005 -0.9679  1.6541
 1144SOL    HW215157   6.915   0.068   0.823 -1.5024  0.2334  1.4298
 1145SOL     OW15158   7.604   8.230   3.909  0.6326  0.3568  0.2235
 1145SOL    HW115159   7.692   8.256   3.933  0.5730  0.0706  0.7701
 1145SOL    HW215160   7.555   8.312   3.903  0.5217  0.4101  1.6043
 1146SOL     OW15161   0.728   2.404   4.121 -0.1024 -0.6045 -0.2891
 1146SOL    HW115162   0.704   2.366   4.037 -0.0974  0.1270 -0.6281
 1146SOL    HW215163   0.766   2.489   4.100  1.0553 -0.9334  0.3678
 1147SOL     OW15164   6.439   4.773   3.417 -0.4354  0.4679  0.0392
 1147SOL    HW115165   6.465   4.864   3.404  1.2351  0.1795  1.0022
 1147SOL    HW215166   6.385   4.775   3.497 -1.0163  0.6956 -0.3521
 1148SOL     OW15167   1.811   2.317   2.848  0.0767  0.3345 -0.4443
 1148SOL    HW115168   1.895   2.363   2.852 -0.0996  0.6004  0.4236
 1148SOL    HW215169   1.805   2.271   2.932  0.0079 -0.8637 -1.0843
 1149SOL     OW15170  10.048   3.985  11.495 -0.0453 -0.2813 -0.0622
 1149SOL    HW115171  10.109   4.032  11.553 -0.1518 -0.0302 -0.1564
 1149SOL    HW215172  10.100   3.965  11.417 -0.3224  0.6715 -0.4963
 1150SOL     OW15173   4.769   2.059  11.488  0.2174  0.0501  0.1369
 1150SOL    HW115174   4.790   1.977  11.444 -2.1390 -0.5548  0.0116
 1150SOL    HW215175   4.816   2.054  11.571 -0.2922 -1.7188  0.3656
 1151SOL     OW15176   0.493   8.569   7.982 -0.0055  0.0063 -0.2104
 1151SOL    HW115177   0.536   8.648   8.016 -0.4444  0.5343 -0.8476
 1151SOL    HW215178   0.542   8.497   8.020  0.6990  0.5898  0.0189
 1152SOL     OW15179   0.608  10.617   9.954 -0.4333 -0.1581 -0.1771
 1152SOL    HW115180   0.527  10.639   9.909 -0.9727 -0.4147  0.6413
 1152SOL    HW215181   0.672  10.681   9.921 -1.3032  0.9263  0.1723
 1153SOL     OW15182   4.036   0.467   2.461  0.2646 -0.1727  0.3486
 1153SOL    HW115183   4.104   0.535   2.458  0.5990 -0.4632  1.0524
 1153SOL    HW215184   3.955   0.514   2.443  0.3283  0.6666  2.0763
 1154SOL     OW15185  11.015   5.454   8.484 -0.1500  0.5256 -0.2713
 1154SOL    HW115186  10.972   5.443   8.400 -1.6520  1.3431  0.3491
 1154SOL    HW215187  11.095   5.402   8.477 -0.6378 -0.0713 -1.9004
 1155SOL     OW15188   9.744   2.987   0.013 -0.5840 -0.3219 -0.0856
 1155SOL    HW115189   9.775   3.022   0.097 -0.5678 -0.2650 -0.1152
 1155SOL    HW215190   9.719   3.064  -0.037 -1.1703 -0.3873  0.0950
 1156SOL     OW15191   7.007   7.695  10.834 -0.2023 -0.3189  0.2415
 1156SOL    HW115192   7.063   7.632  10.879  0.9953 -1.4293 -2.5845
 1156SOL    HW215193   7.066   7.768  10.812 -0.1876 -0.7719 -1.3426
 1157SOL     OW15194   7.010   2.615   4.331 -0.3834  0.1286  0.2988
 1157SOL    HW115195   6.935   2.657   4.289 -0.8388 -1.4694 -0.5689
 1157SOL    HW215196   6.985   2.609   4.423 -0.5820  1.1302  0.3196
 1158SOL     OW15197   8.335   1.202   6.091 -0.1606 -0.1201 -0.1493
 1158SOL    HW115198   8.368   1.219   6.003 -0.7603 -0.9787 -0.5436
 1158SOL    HW215199   8.252   1.157   6.078 -0.5990  0.3624  0.8563
 1159SOL     OW15200   8.536   3.985   8.066  0.2355 -0.2418  0.2215
 1159SOL    HW115201   8.513   3.904   8.022 -0.5459  0.7368 -1.2669
 1159SOL    HW215202   8.454   4.014   8.106  0.6365 -0.4519  1.2021
 1160SOL     OW15203   5.636   5.319   2.039 -0.1570 -0.3698 -0.2752
 1160SOL    HW115204   5.642   5.224   2.029 -0.6815 -0.2416 -2.1919
 1160SOL    HW215205   5.557   5.343   1.991  0.6288  1.1683 -0.8576
 1161SOL     OW15206   5.788   2.002   1.294 -0.0967  0.3738  0.0530
 1161SOL    HW115207   5.716   2.001   1.231  0.3455 -0.4784 -0.4397
 1161SOL    HW215208   5.774   1.925   1.349 -0.9385  1.5195  1.5570
 1162SOL     OW15209   7.268   5.587   8.687  0.0511  0.6034  0.1960
 1162SOL    HW115210   7.177   5.577   8.661  0.8771 -2.8136 -2.1768
 1162SOL    HW215211   7.289   5.679   8.670 -2.7281  1.2975  0.1948
 1163SOL     OW15212   5.660   9.564   2.348  0.8890 -0.1738 -0.5232
 1163SOL    HW115213   5.619   9.478   2.338 -0.8502  0.6028 -0.4364
 1163SOL    HW215214   5.677   9.593   2.258  0.8880 -0.3398 -0.5771
 1164SOL     OW15215   8.229   6.227  11.188  0.6450 -0.1394  0.0046
 1164SOL    HW115216   8.172   6.173  11.134  1.3821 -1.2145  0.2571
 1164SOL    HW215217   8.203   6.317  11.169 -1.2238 -0.5985  0.2499
 1165SOL     OW15218   1.147   0.902   0.584 -0.6295  0.5923 -0.6088
 1165SOL    HW115219   1.202   0.825   0.571 -0.1614  0.8022  0.0873
 1165SOL    HW215220   1.208   0.975   0.595 -1.0655  1.1616 -1.7501
 1166SOL     OW15221   4.199  10.847  10.277  0.5671  0.0249  0.3742
 1166SOL    HW115222   4.109  10.841  10.308  0.6077 -0.9681  0.3258
 1166SOL    HW215223   4.206  10.935  10.239 -0.4770 -0.0155  0.0701
 1167SOL     OW15224   9.693  10.752   4.972 -0.1741  0.1471 -0.1157
 1167SOL    HW115225   9.610  10.737   5.017 -0.2198 -0.5422 -0.4163
 1167SOL    HW215226   9.672  10.818   4.905 -0.6547 -0.5183 -0.6435
 1168SOL     OW15227   4.789   2.066   3.814 -0.2215 -0.3463 -0.4003
 1168SOL    HW115228   4.722   2.130   3.792  0.5480  0.6046 -0.0700
 1168SOL    HW215229   4.746   2.006   3.876 -0.0046  1.9901  2.2160
 1169SOL     OW15230   7.704   3.493   1.007 -0.6029 -0.1146 -0.5363
 1169SOL    HW115231   7.787   3.492   0.960 -0.3636 -0.2765 -0.1130
 1169SOL    HW215232   7.728   3.512   1.098 -0.8679 -1.7267 -0.0994
 1170SOL     OW15233   2.190   1.454  10.417 -0.4609  0.1307  0.0460
 1170SOL    HW115234   2.202   1.362  10.437  0.1840  0.0516 -0.6757
 1170SOL    HW215235   2.259   1.499  10.465  1.0258 -0.0498 -1.7888
 1171SOL     OW15236   0.856   2.958  10.349  0.3361 -0.5307 -0.1202
 1171SOL    HW115237   0.939   2.912  10.363  0.7131  0.4064  0.9164
 1171SOL    HW215238   0.880   3.050  10.344 -0.4556 -0.3776 -1.6950
 1172SOL     OW15239   4.166   0.048  11.690 -0.0993 -0.5539 -0.5658
 1172SOL    HW115240   4.080   0.006  11.690  0.1010 -1.0005  0.5040
 1172SOL    HW215241   4.228  -0.025  11.700  0.3504 -0.1511 -0.4003
 1173SOL     OW15242   7.677   4.970   2.382  0.7224 -0.2460 -0.2674
 1173SOL    HW115243   7.685   4.930   2.469  1.4456  1.7046  0.6173
 1173SOL    HW215244   7.667   4.896   2.323  0.1715 -1.6368  1.4743
 1174SOL     OW15245   0.634  10.158   8.676  0.6199  0.7069  0.2521
 1174SOL    HW115246   0.574  10.143   8.750 -0.2674 -1.0238 -0.7613
 1174SOL    HW215247   0.579  10.147   8.599  1.7363  1.6143 -0.7096
 1175SOL     OW15248   2.298   1.127   0.580  0.4597  0.5724  0.0231
 1175SOL    HW115249   2.375   1.178   0.554  1.0271 -0.4638 -0.3954
 1175SOL    HW215250   2.256   1.104   0.497 -0.3580  1.1934  0.2525
 1176SOL     OW15251   8.470   7.561   7.435  0.2514  0.1681  0.1434
 1176SOL    HW115252   8.375   7.561   7.430  0.1938 -0.3178  1.0306
 1176SOL    HW215253   8.499   7.549   7.344 -0.5659 -1.3965  0.0498
 1177SOL     OW15254   7.587   7.098   9.592 -0.3234  0.3149 -0.0984
 1177SOL    HW115255   7.670   7.144   9.603  0.3071 -0.3509 -1.8566
 1177SOL    HW215256   7.532   7.131   9.664  1.8949 -0.3233  2.0382
 1178SOL     OW15257   5.404   1.509   3.128  0.1378  0.5834  0.1219
 1178SOL    HW115258   5.411   1.479   3.037  1.5797 -0.3419  0.5086
 1178SOL    HW215259   5.461   1.586   3.132  0.9118  0.0063  0.4709
 1179SOL     OW15260   8.635   0.533  11.492  0.4023  0.1025 -0.3013
 1179SOL    HW115261   8.652   0.500  11.403 -1.5858 -1.2079 -0.2386
 1179SOL    HW215262   8.540   0.537  11.499  0.1788  6.6051 -0.5042
 1180SOL     OW15263   3.356   0.595   1.067  0.4396 -0.0543 -0.2271
 1180SOL    HW115264   3.412   0.622   1.140 -0.3872  0.2222  0.3175
 1180SOL    HW215265   3.405   0.620   0.989  0.1264  2.2544  0.2447
 1181SOL     OW15266   0.537   4.838   2.739 -0.1923 -0.0159 -0.1949
 1181SOL    HW115267   0.459   4.799   2.699  0.2258 -0.5725 -0.4735
 1181SOL    HW215268   0.606   4.825   2.674  0.4792 -0.8731  0.6625
 1182SOL     OW15269   7.496   5.377   5.084 -0.3173 -0.5228 -0.4227
 1182SOL    HW115270   7.411   5.393   5.042 -1.1229 -0.8798  0.9867
 1182SOL    HW215271   7.528   5.297   5.044 -0.6199 -0.3680 -0.9934
 1183SOL     OW15272   6.051   9.656   9.842  0.6701 -0.3342  0.6291
 1183SOL    HW115273   6.062   9.658   9.747 -0.3415 -1.0100  0.4774
 1183SOL    HW215274   5.963   9.620   9.855 -0.3167  2.1974  1.7556
 1184SOL     OW15275   3.520  11.589   9.018  0.1123 -0.0143  0.1289
 1184SOL    HW115276   3.428  11.610   9.005  0.1152  0.4372  0.8190
 1184SOL    HW215277   3.519  11.506   9.066  0.0486  0.3909  0.8391
 1185SOL     OW15278   9.301  11.241   0.850  0.1053 -0.5792 -0.7231
 1185SOL    HW115279   9.228  11.227   0.911 -0.4470  0.0678 -1.2222
 1185SOL    HW215280   9.320  11.334   0.857  0.7991 -0.7166 -0.7039
 1186SOL     OW15281   8.864  11.007   9.602 -0.2520 -0.4469 -0.0832
 1186SOL    HW115282   8.904  11.076   9.549  1.0639 -0.4341  0.8775
 1186SOL    HW215283   8.841  11.050   9.684 -0.1144 -0.9773  0.2374
 1187SOL     OW15284   4.017   8.072   6.818 -0.0829 -0.6065 -0.7550
 1187SOL    HW115285   3.945   8.042   6.874 -1.2104 -0.1937 -1.9531
 1187SOL    HW215286   3.999   8.165   6.805  1.0823 -0.3278 -0.4928
 1188SOL     OW15287   3.240   8.244   5.519 -0.5502 -0.1904  0.2991
 1188SOL    HW115288   3.162   8.233   5.574 -1.1255 -0.7633 -0.6045
 1188SOL    HW215289   3.234   8.173   5.455  0.0510  0.5085 -0.5531
 1189SOL     OW15290   9.379   2.499  10.405 -0.0365 -0.1030 -0.3099
 1189SOL    HW115291   9.301   2.451  10.431 -0.2549  0.3744 -0.0667
 1189SOL    HW215292   9.428   2.511  10.486 -0.0689  0.2304 -0.3369
 1190SOL     OW15293   5.930   8.621   0.294 -0.2217 -0.3079 -0.1882
 1190SOL    HW115294   5.849   8.575   0.315  0.3827 -1.8891 -1.1496
 1190SOL    HW215295   5.993   8.591   0.360 -0.5861  1.5222  1.0433
 1191SOL     OW15296   9.727   3.481   2.190  0.2901 -0.0647 -0.2496
 1191SOL    HW115297   9.689   3.437   2.265  0.5964  0.5724  0.2895
 1191SOL    HW215298   9.793   3.420   2.156  1.4671  0.3704  1.1306
 1192SOL     OW15299   7.731   7.814   0.649  0.1867  0.2557  0.1024
 1192SOL    HW115300   7.693   7.763   0.578  0.8611 -1.1382  0.6912
 1192SOL    HW215301   7.672   7.888   0.661 -0.0142  0.4510 -1.7932
 1193SOL     OW15302   5.826   7.988   3.241  0.1674 -0.1036 -0.3793
 1193SOL    HW115303   5.795   7.898   3.247 -1.6427  0.3414 -2.0305
 1193SOL    HW215304   5.922   7.981   3.237  0.0981 -1.8629  0.4958
 1194SOL     OW15305   8.887   3.719   7.984  0.7471 -0.0877  0.5987
 1194SOL    HW115306   8.934   3.681   7.911  0.2217  0.1856  0.1084
 1194SOL    HW215307   8.811   3.762   7.944  0.3518 -0.0969  1.3161
 1195SOL     OW15308   4.299   7.398   0.552 -0.1426  0.0767 -0.5286
 1195SOL    HW115309   4.302   7.397   0.456 -0.2188  0.8945 -0.5463
 1195SOL    HW215310   4.233   7.464   0.573 -0.2202 -0.1936  0.0886
 1196SOL     OW15311  11.028   9.654   5.650 -0.0611 -0.3271 -0.4117
 1196SOL    HW115312  11.058   9.639   5.560 -0.1325 -1.8664 -0.2067
 1196SOL    HW215313  10.958   9.590   5.662 -1.7739  1.5144 -0.0579
 1197SOL     OW15314  10.563   1.671   8.027  0.4797 -0.1196  0.0299
 1197SOL    HW115315  10.600   1.584   8.037  1.2133 -0.2169 -2.6832
 1197SOL    HW215316  10.630   1.730   8.063  1.3208 -0.5495 -0.7771
 1198SOL     OW15317   0.997   7.077   3.804 -0.3599  0.1399  1.0642
 1198SOL    HW115318   0.981   7.171   3.794 -0.8516 -0.1438 -1.3536
 1198SOL    HW215319   1.002   7.044   3.715 -0.1101 -2.1426  1.8664
 1199SOL     OW15320   9.596   8.418   6.671 -0.3955 -0.0143 -0.1069
 1199SOL    HW115321   9.630   8.451   6.589  0.1012  0.5968  0.3390
 1199SOL    HW215322   9.556   8.494   6.713  0.5271 -0.0132  0.8051
 1200SOL     OW15323   6.866   4.571   3.348 -0.0627 -0.1950 -0.0191
 1200SOL    HW115324   6.838   4.592   3.438 -0.3768 -1.3430  0.1650
 1200SOL    HW215325   6.788   4.590   3.295 -0.0414 -0.0028  0.0165
 1201SOL     OW15326  11.590   7.233  10.824 -0.4124  0.3021  0.2864
 1201SOL    HW115327  11.649   7.287  10.771  0.1429  1.7820  2.2768
 1201SOL    HW215328  11.562   7.163  10.765  1.9991  0.4972 -1.2334
 1202SOL     OW15329  10.926   2.944   4.157  0.0764 -0.0002 -0.0223
 1202SOL    HW115330  10.869   2.943   4.081 -0.6735  0.4331  0.5197
 1202SOL    HW215331  10.889   2.878   4.216 -1.1608  1.7109  1.2252
 1203SOL     OW15332   5.488   0.073   0.155  0.1824  0.0698  0.3932
 1203SOL    HW115333   5.455   0.107   0.071 -0.4109  0.3613  0.7357
 1203SOL    HW215334   5.558   0.013   0.130  0.7881  1.0065 -0.2682
 1204SOL     OW15335   5.838   8.092  11.197 -0.2410 -0.5476  0.2674
 1204SOL    HW115336   5.790   8.158  11.148 -0.8957 -0.9989  0.2763
 1204SOL    HW215337   5.873   8.033  11.130 -0.6936 -0.8680  0.3011
 1205SOL     OW15338   0.319   1.169  11.394  0.6922  0.1042 -0.5001
 1205SOL    HW115339   0.387   1.105  11.376  0.1597 -0.3239 -1.0538
 1205SOL    HW215340   0.363   1.239  11.443  1.2237 -0.7918  0.3153
 1206SOL     OW15341   2.307   0.337   5.306  0.1926  0.0714 -0.6900
 1206SOL    HW115342   2.328   0.319   5.215 -0.7624 -0.0126 -0.9120
 1206SOL    HW215343   2.261   0.421   5.304 -1.5824 -0.8441 -0.5702
 1207SOL     OW15344   4.845   3.673  11.560  0.2663  0.2994 -0.5303
 1207SOL    HW115345   4.751   3.689  11.563 -0.3126 -2.2070 -2.1462
 1207SOL    HW215346   4.873   3.674  11.652 -1.0325  2.3775 -0.1084
 1208SOL     OW15347   1.924   7.859   7.022  0.4949  0.3169  0.3956
 1208SOL    HW115348   1.840   7.901   7.007  1.1907  1.4193 -0.7097
 1208SOL    HW215349   1.907   7.791   7.087 -0.6255  2.5954  2.6579
 1209SOL     OW15350   6.860   3.117   9.911  0.2581 -0.6360  0.1189
 1209SOL    HW115351   6.906   3.118   9.995  1.5586  0.8325 -0.5523
 1209SOL    HW215352   6.902   3.047   9.861 -0.1826 -1.1823  0.5059
 1210SOL     OW15353   5.437   6.846   1.509 -0.1630  0.3261 -0.1836
 1210SOL    HW115354   5.379   6.803   1.573 -0.5102 -0.0441 -0.7305
 1210SOL    HW215355   5.382   6.913   1.468  0.1119  0.6868  0.0335
 1211SOL     OW15356   0.646   2.883   3.167 -0.6952  0.0177  0.1807
 1211SOL    HW115357   0.654   2.946   3.238 -2.0116  0.7733 -0.3016
 1211SOL    HW215358   0.710   2.911   3.102 -2.4253  1.9708 -0.7926
 1212SOL     OW15359   0.053   2.825  10.035  0.2133  0.1797 -0.4825
 1212SOL    HW115360   0.063   2.730  10.044 -1.5349  0.1156  1.6918
 1212SOL    HW215361   0.126   2.861  10.086 -1.7434 -0.1262  2.7693
 1213SOL     OW15362   7.274   1.702   5.233 -0.4102 -0.0922  0.2082
 1213SOL    HW115363   7.357   1.718   5.278  1.0779  0.7766 -2.5782
 1213SOL    HW215364   7.275   1.608   5.214  0.7223  0.1723 -1.1489
 1214SOL     OW15365   9.872   2.066   8.306  0.1752 -0.1017  0.3023
 1214SOL    HW115366   9.908   1.980   8.330 -0.9322 -0.3981  0.9618
 1214SOL    HW215367   9.945   2.127   8.318  0.9548 -0.9256 -0.1007
 1215SOL     OW15368   5.356   7.182   3.448  0.5394  0.0767 -0.4330
 1215SOL    HW115369   5.414   7.137   3.510  1.0479  0.2800 -0.7625
 1215SOL    HW215370   5.346   7.120   3.376 -0.3663 -0.3215  0.0128
 1216SOL     OW15371   2.718  10.450   8.881 -0.1191  0.5923 -0.1591
 1216SOL    HW115372   2.768  10.390   8.826  0.5662  0.9829  0.0317
 1216SOL    HW215373   2.780  10.482   8.946 -0.6532  0.9604  0.1857
 1217SOL     OW15374  10.159   2.254   2.175  0.0447 -0.1207  0.0763
 1217SOL    HW115375  10.076   2.299   2.160 -0.0465 -0.0778  0.6744
 1217SOL    HW215376  10.167   2.194   2.101 -1.2048 -1.1330  0.7113
 1218SOL     OW15377   8.659  11.440   9.141 -0.0274 -0.2272  0.4336
 1218SOL    HW115378   8.690  11.509   9.082 -0.3911  0.5276  1.0978
 1218SOL    HW215379   8.604  11.384   9.086  0.8030 -0.3848 -0.2699
 1219SOL     OW15380   3.962   3.896  11.522 -0.3856 -0.7843  0.6860
 1219SOL    HW115381   3.886   3.838  11.530  0.0516 -1.4906 -0.0854
 1219SOL    HW215382   4.028   3.843  11.478 -0.7452  0.9719 -2.2750
 1220SOL     OW15383   8.851  11.531   6.602 -0.3503 -0.3021 -0.2026
 1220SOL    HW115384   8.894  11.506   6.684  0.6443 -0.3603 -0.7196
 1220SOL    HW215385   8.817  11.619   6.618  1.1149  0.2916 -0.1641
 1221SOL     OW15386   4.793   1.818   0.020 -0.7464  0.0411 -0.3671
 1221SOL    HW115387   4.862   1.779   0.074 -0.9238 -1.3444 -1.0981
 1221SOL    HW215388   4.767   1.749  -0.040 -1.2650  1.2276 -1.5674
 1222SOL     OW15389   5.047   0.208   3.755 -0.3054 -0.4934 -0.2925
 1222SOL    HW115390   5.111   0.278   3.769 -0.2875 -0.4378 -0.6660
 1222SOL    HW215391   4.964   0.254   3.745 -0.5401 -0.5951  0.9364
 1223SOL     OW15392  10.445  11.203   6.541  0.0101  0.7463 -0.4437
 1223SOL    HW115393  10.415  11.280   6.589  0.5701  0.3713  0.5376
 1223SOL    HW215394  10.390  11.200   6.463  2.0865  4.0058 -2.2491
 1224SOL     OW15395   0.967   6.983   9.989  0.0925 -0.6034 -0.3095
 1224SOL    HW115396   0.887   7.022   9.952  1.1983  0.3519 -1.8022
 1224SOL    HW215397   0.977   6.901   9.942  0.5906 -0.1778 -0.9664
 1225SOL     OW15398   7.460   8.947   5.533  0.0319 -0.1027 -0.6478
 1225SOL    HW115399   7.386   8.886   5.525  0.1182 -0.3098  0.1002
 1225SOL    HW215400   7.482   8.970   5.443 -1.7350  0.9008 -0.8711
 1226SOL     OW15401   9.441   9.743   9.494 -0.1968  0.0120  0.3524
 1226SOL    HW115402   9.371   9.747   9.429 -1.5080 -0.4457  1.6808
 1226SOL    HW215403   9.515   9.789   9.453 -0.5245 -1.3591 -1.9527
 1227SOL     OW15404   8.987   4.319   3.212 -0.4316  0.0835 -0.1051
 1227SOL    HW115405   8.923   4.369   3.263  0.7277  1.1796  0.3282
 1227SOL    HW215406   9.057   4.381   3.194  0.4328 -1.0363 -0.7160
 1228SOL     OW15407   8.183   9.061   3.431  0.0035 -0.1479  0.5622
 1228SOL    HW115408   8.263   9.026   3.472 -0.2941 -2.0495 -0.3898
 1228SOL    HW215409   8.146   9.119   3.498  1.6449 -0.0119  1.4110
 1229SOL     OW15410   8.332   3.223   1.221  0.5738 -0.1421  0.1347
 1229SOL    HW115411   8.411   3.232   1.168  0.2286 -1.8783 -0.7629
 1229SOL    HW215412   8.261   3.255   1.164  0.5110  0.6223  0.6249
 1230SOL     OW15413   8.828  10.930   5.154  0.5431 -0.1507 -0.5743
 1230SOL    HW115414   8.789  11.010   5.191  1.3179 -0.0023 -0.0313
 1230SOL    HW215415   8.802  10.861   5.214  0.7189 -0.1260 -0.4662
 1231SOL     OW15416   1.666   2.042  11.025  0.0655  0.1109 -0.6586
 1231SOL    HW115417   1.609   2.118  11.040  0.4856  0.4116 -0.5677
 1231SOL    HW215418   1.739   2.055  11.086  0.0855 -0.4219 -0.5678
 1232SOL     OW15419   6.556   0.636  11.541  0.5643 -0.0250 -0.0844
 1232SOL    HW115420   6.607   0.657  11.463 -2.0460  1.4453 -1.5591
 1232SOL    HW215421   6.597   0.687  11.611  2.1463 -0.2988 -0.7681
 1233SOL     OW15422   9.517   9.270   0.263 -0.1375  0.4296 -0.0638
 1233SOL    HW115423   9.536   9.200   0.326 -1.8643 -1.4145 -1.4481
 1233SOL    HW215424   9.546   9.235   0.179 -0.7602  1.5032 -0.7523
 1234SOL     OW15425   7.870   0.540   2.013 -0.1197 -0.1087  0.2255
 1234SOL    HW115426   7.855   0.620   1.962 -1.6175  0.1505  1.0157
 1234SOL    HW215427   7.932   0.567   2.082 -0.7546  0.4278  0.5934
 1235SOL     OW15428   5.611   8.186   4.655 -0.2773 -0.7490  0.1627
 1235SOL    HW115429   5.652   8.109   4.694  0.1159 -0.3765  0.4977
 1235SOL    HW215430   5.668   8.259   4.680 -1.9201  0.0174  1.9119
 1236SOL     OW15431   1.570   0.616   7.909  0.0447  0.3281 -0.7526
 1236SOL    HW115432   1.546   0.707   7.891 -1.6155  0.9293  3.4276
 1236SOL    HW215433   1.486   0.572   7.927  0.9732 -1.5028 -0.6353
 1237SOL     OW15434   1.449   6.219  10.319  0.1555 -0.0840  1.0174
 1237SOL    HW115435   1.371   6.192  10.366  0.0991 -2.0247 -0.0666
 1237SOL    HW215436   1.514   6.151  10.339  1.1666  0.8244  0.9120
 1238SOL     OW15437   0.916   4.788  11.504 -0.1201 -0.0593  0.4255
 1238SOL    HW115438   0.956   4.873  11.525  0.2865  0.0656 -0.7731
 1238SOL    HW215439   0.987   4.737  11.466 -0.5806 -0.6206  0.3079
 1239SOL     OW15440   8.696   1.125  11.071  0.4680  0.0414  0.3518
 1239SOL    HW115441   8.703   1.052  11.009  0.8221  1.0815 -0.9007
 1239SOL    HW215442   8.691   1.202  11.015  1.0477  1.0572  1.6450
 1240SOL     OW15443   1.092   1.433   2.966 -0.6147 -0.1100  0.3681
 1240SOL    HW115444   1.004   1.442   3.003 -0.6443 -0.1869  0.3174
 1240SOL    HW215445   1.150   1.445   3.041 -0.7129 -1.9184  0.7948
 1241SOL     OW15446   0.420   9.517   5.478  0.2383 -0.1944 -0.2152
 1241SOL    HW115447   0.385   9.600   5.447 -0.7444 -0.4481  0.1484
 1241SOL    HW215448   0.489   9.541   5.539  1.0492  0.3232 -1.3203
 1242SOL     OW15449   6.692   6.817   3.813 -0.4684  0.3066  0.0122
 1242SOL    HW115450   6.609   6.791   3.853 -1.0620  0.2244 -1.2291
 1242SOL    HW215451   6.667   6.865   3.734  0.6497 -1.4414 -1.4860
 1243SOL     OW15452   2.014   0.322   1.549 -0.1289 -0.4877 -0.4269
 1243SOL    HW115453   1.977   0.234   1.557 -0.3842 -0.2598  1.1276
 1243SOL    HW215454   2.103   0.315   1.583 -0.3508 -0.0240  0.2674
 1244SOL     OW15455   9.659   0.971   2.452 -0.1082  0.7556  0.3628
 1244SOL    HW115456   9.593   0.902   2.449  1.7410 -1.0733 -1.3476
 1244SOL    HW215457   9.684   0.976   2.544 -0.2392 -0.9452  0.5203
 1245SOL     OW15458   0.539   6.265   5.988  0.3001  0.1025  0.1662
 1245SOL    HW115459   0.553   6.358   6.008  0.1639  0.3487 -0.8640
 1245SOL    HW215460   0.468   6.263   5.924 -0.7410 -0.8219  1.2843
 1246SOL     OW15461   1.749   8.511  11.211 -0.5691  0.4810  0.9668
 1246SOL    HW115462   1.774   8.575  11.277  1.8727  0.2610  0.3559
 1246SOL    HW215463   1.813   8.522  11.141 -0.6839 -1.9319  0.3941
 1247SOL     OW15464   8.887   1.269   2.815 -0.2742 -0.0226 -0.1148
 1247SOL    HW115465   8.972   1.282   2.858  0.5596 -2.1109 -0.9882
 1247SOL    HW215466   8.833   1.228   2.882 -0.4243  0.7571  0.2562
 1248SOL     OW15467   5.108  11.449  10.209 -0.0418 -0.1964  0.1064
 1248SOL    HW115468   5.155  11.409  10.282  0.4114  0.2295  0.0572
 1248SOL    HW215469   5.069  11.375  10.163 -1.1517 -0.4036  1.3177
 1249SOL     OW15470   8.149   8.595   0.136  0.3472  0.2355  0.0122
 1249SOL    HW115471   8.243   8.577   0.137 -0.0023 -1.9151  0.0794
 1249SOL    HW215472   8.113   8.539   0.205 -1.2793 -1.2873 -1.9451
 1250SOL     OW15473   7.030   4.598   2.064  0.3351  0.6678  0.0901
 1250SOL    HW115474   7.090   4.525   2.081 -0.0166  0.2073 -0.6125
 1250SOL    HW215475   7.057   4.632   1.979 -0.4264  0.4122 -0.2662
 1251SOL     OW15476   4.995   4.115   3.643  1.0643 -0.6825  0.2528
 1251SOL    HW115477   5.085   4.085   3.655  1.0230 -0.4010  1.3782
 1251SOL    HW215478   4.941   4.036   3.653  1.1943 -0.9008 -0.7026
 1252SOL     OW15479   7.590  10.113   8.537 -0.4302 -0.0518  0.3877
 1252SOL    HW115480   7.595  10.071   8.623 -1.0883  0.1459  0.5249
 1252SOL    HW215481   7.540  10.194   8.552 -1.0426 -0.2952 -0.2797
 1253SOL     OW15482   6.848   5.407   2.876  0.8227  0.0895  0.1625
 1253SOL    HW115483   6.796   5.433   2.952  1.1047 -0.5215  0.5791
 1253SOL    HW215484   6.861   5.488   2.827 -0.6890  0.2166 -0.0757
 1254SOL     OW15485   9.705   5.344   2.881  0.1929 -0.2335 -0.1130
 1254SOL    HW115486   9.741   5.307   2.962 -1.7753 -0.6526  0.6088
 1254SOL    HW215487   9.625   5.388   2.908  0.8804  1.9884 -1.4414
 1255SOL     OW15488   1.440  10.740  11.103  0.3499  0.2259  0.0413
 1255SOL    HW115489   1.478  10.825  11.078  0.5972  0.6938  1.9157
 1255SOL    HW215490   1.397  10.710  11.023 -1.5661  3.0922 -0.1834
 1256SOL     OW15491   1.963   0.595   7.042  0.6306  0.1610  0.2331
 1256SOL    HW115492   2.043   0.591   7.094 -0.6459 -1.7408  2.2004
 1256SOL    HW215493   1.986   0.552   6.960  1.6746 -0.2023  0.6998
 1257SOL     OW15494   0.207   4.222   1.416 -0.0393 -0.1877 -0.3425
 1257SOL    HW115495   0.172   4.298   1.370 -1.3247 -0.9219 -0.6028
 1257SOL    HW215496   0.295   4.212   1.380  0.3303  1.4197  0.0168
 1258SOL     OW15497   9.351   7.914   6.806 -0.2561 -0.1250  0.4136
 1258SOL    HW115498   9.441   7.884   6.799 -0.1778 -0.5323  2.5246
 1258SOL    HW215499   9.339   7.973   6.732  1.5933 -0.4087 -0.1578
 1259SOL     OW15500   9.431   8.614   6.010  0.4227 -0.2007  0.2778
 1259SOL    HW115501   9.398   8.685   5.955  0.1072  0.0711  0.8083
 1259SOL    HW215502   9.512   8.587   5.968 -0.4613 -0.8863 -1.0454
 1260SOL     OW15503   8.235   4.985  10.001 -0.3693 -0.2968  0.0260
 1260SOL    HW115504   8.310   4.992  10.060  0.2195  1.0070 -0.8313
 1260SOL    HW215505   8.159   4.986  10.060  0.1953  1.1113  0.7871
 1261SOL     OW15506  10.082  10.464  10.838  0.2468 -0.2786 -0.0817
 1261SOL    HW115507  10.177  10.474  10.837  0.2476 -0.3050 -0.7265
 1261SOL    HW215508  10.063  10.403  10.768 -0.3125  0.3893 -0.5322
 1262SOL     OW15509   6.253   9.753  10.667 -0.1231 -0.1496 -0.1670
 1262SOL    HW115510   6.192   9.799  10.725 -0.5376 -2.2412  1.1905
 1262SOL    HW215511   6.201   9.730  10.590 -1.2281 -2.1051  1.0715
 1263SOL     OW15512   9.013   6.502   0.118  0.1424 -0.3356  0.3164
 1263SOL    HW115513   9.053   6.458   0.194  2.0495 -0.5883 -0.7695
 1263SOL    HW215514   9.007   6.594   0.144  0.1294 -0.5284  1.0246
 1264SOL     OW15515   0.086   7.568   9.160 -0.4179 -0.3493  1.0252
 1264SOL    HW115516   0.063   7.483   9.122 -1.4644  0.2752  0.2376
 1264SOL    HW215517   0.165   7.550   9.211  1.0640 -1.2283 -1.4308
 1265SOL     OW15518   8.292   2.964   4.653  0.0303 -0.1163 -0.2875
 1265SOL    HW115519   8.365   2.907   4.632  0.8881  1.6102 -2.4071
 1265SOL    HW215520   8.214   2.916   4.624  0.3992 -1.3695  0.6905
 1266SOL     OW15521   6.840   5.725   9.570 -0.4997  0.2141 -0.0928
 1266SOL    HW115522   6.878   5.663   9.633 -2.5199 -0.1145  0.8985
 1266SOL    HW215523   6.889   5.711   9.489 -0.5986 -2.3953  0.2182
 1267SOL     OW15524   6.870   0.439  10.238 -0.6577 -0.1323  0.0760
 1267SOL    HW115525   6.896   0.528  10.262  1.2142 -0.4481 -0.6327
 1267SOL    HW215526   6.837   0.401  10.320 -1.5261  1.1867  0.3832
 1268SOL     OW15527   9.825   7.173  11.638  0.2236 -0.4087  0.0720
 1268SOL    HW115528   9.913   7.197  11.667 -0.7086  1.7328  1.3722
 1268SOL    HW215529   9.770   7.244  11.669 -1.9951 -1.7177 -0.6829
 1269SOL     OW15530   7.843  10.686   6.879 -0.3478 -0.0012 -0.3695
 1269SOL    HW115531   7.874  10.643   6.800 -1.7936  1.1209 -1.6238
 1269SOL    HW215532   7.753  10.713   6.858 -0.6564  0.6430  1.5390
 1270SOL     OW15533   7.185   3.461   5.226  0.5530  0.2548  0.4910
 1270SOL    HW115534   7.156   3.412   5.304 -0.4338  1.6573  1.0444
 1270SOL    HW215535   7.108   3.511   5.199  0.8251 -0.3088 -1.5137
 1271SOL     OW15536  11.923   1.557   8.765 -0.5529 -0.8451 -0.3095
 1271SOL    HW115537  11.878   1.592   8.842 -0.4322 -1.4302  0.0398
 1271SOL    HW215538  11.997   1.509   8.802  0.0545 -0.3329 -0.8479
 1272SOL     OW15539  10.793   4.443   0.927  0.3614  0.4336 -0.1032
 1272SOL    HW115540  10.738   4.520   0.912  1.2624  1.1735  0.2979
 1272SOL    HW215541  10.823   4.416   0.840 -0.6524 -0.0042 -0.3299
 1273SOL     OW15542   0.201   0.859   1.774  0.0294  0.0353 -0.3738
 1273SOL    HW115543   0.265   0.912   1.727 -1.1895 -0.4518 -2.7606
 1273SOL    HW215544   0.117   0.902   1.757 -0.8240 -1.8609 -1.2627
 1274SOL     OW15545   8.267  10.269   4.682  0.1653 -1.2338 -0.1691
 1274SOL    HW115546   8.239  10.260   4.591 -1.0807 -1.0585  0.1701
 1274SOL    HW215547   8.193  10.235   4.733 -0.9011  2.1567  0.8824
 1275SOL     OW15548   6.683   8.398  11.390  0.3047 -0.0533  0.1595
 1275SOL    HW115549   6.630   8.433  11.462  0.0091 -0.5623  0.1966
 1275SOL    HW215550   6.773   8.420  11.412  0.1429  0.4987  0.2820
 1276SOL     OW15551   3.799   8.831   5.064  0.2738 -0.1053  0.0053
 1276SOL    HW115552   3.858   8.757   5.047  1.5290  1.0806 -1.1501
 1276SOL    HW215553   3.854   8.895   5.109 -0.4400  0.6009 -0.1046
 1277SOL     OW15554   1.584  10.896   5.783 -0.4945 -0.3840  0.6716
 1277SOL    HW115555   1.666  10.934   5.815  0.0132 -1.2018  0.3732
 1277SOL    HW215556   1.583  10.806   5.817 -0.6618 -0.7856 -0.3452
 1278SOL     OW15557   5.649  11.170   2.248 -0.2538 -0.0147 -0.1711
 1278SOL    HW115558   5.585  11.142   2.313 -0.4821 -0.3389 -0.5271
 1278SOL    HW215559   5.678  11.088   2.207 -0.1152  0.1855 -0.4731
 1279SOL     OW15560  11.952  10.019   9.373 -0.0465 -0.2135 -0.4838
 1279SOL    HW115561  11.862  10.027   9.340  0.8773  1.7639 -2.8643
 1279SOL    HW215562  11.991   9.949   9.321 -0.2834 -1.3838  0.8616
 1280SOL     OW15563  10.891   2.558   5.065  0.2388 -0.0360  0.0616
 1280SOL    HW115564  10.895   2.560   4.970 -0.2017 -0.5277  0.0299
 1280SOL    HW215565  10.944   2.633   5.093 -2.4482  2.2966 -0.6364
 1281SOL     OW15566   6.045   9.079   4.928 -0.3360 -0.3251  0.4152
 1281SOL    HW115567   6.024   9.172   4.916 -0.0821 -0.2422  0.5892
 1281SOL    HW215568   6.080   9.074   5.017  0.8626 -0.3603 -0.0380
 1282SOL     OW15569   3.617   3.077   2.743 -0.0348  0.0279 -0.0031
 1282SOL    HW115570   3.701   3.112   2.772 -0.2404  1.0091 -0.5560
 1282SOL    HW215571   3.640   3.015   2.674  0.2162  0.6596 -0.4972
 1283SOL     OW15572   6.010   1.224   1.472  0.1750 -0.5081 -0.4084
 1283SOL    HW115573   6.000   1.134   1.504 -1.2947 -0.2645 -0.1480
 1283SOL    HW215574   6.014   1.277   1.552 -3.8499  0.1425 -0.4406
 1284SOL     OW15575   4.823   9.988   3.345  0.9079 -0.4885  0.1064
 1284SOL    HW115576   4.827   9.980   3.250  0.4168 -3.2116  0.2128
 1284SOL    HW215577   4.912  10.011   3.371  1.1009  0.0699 -0.9874
 1285SOL     OW15578   4.575   3.521   0.848  0.1381 -0.2406 -0.6179
 1285SOL    HW115579   4.662   3.527   0.809 -0.0179  2.5977 -0.7311
 1285SOL    HW215580   4.589   3.475   0.931  1.6253 -0.3798 -0.9148
 1286SOL     OW15581   4.938   9.663   6.396 -0.0046 -0.0004 -0.1325
 1286SOL    HW115582   4.913   9.684   6.486 -2.6374 -0.5521 -0.6484
 1286SOL    HW215583   4.911   9.741   6.346 -0.4598 -0.5191 -0.7022
 1287SOL     OW15584   3.321   4.739   2.479  0.5325 -0.0520  0.1044
 1287SOL    HW115585   3.292   4.714   2.567  3.2049 -2.2799  0.4697
 1287SOL    HW215586   3.416   4.730   2.482  0.7015 -0.1383 -3.0389
 1288SOL     OW15587   7.941  10.728   8.095  0.3550 -0.0246 -0.2640
 1288SOL    HW115588   7.957  10.673   8.172 -0.3808  0.5572  0.3257
 1288SOL    HW215589   8.026  10.768   8.076  0.3062  0.7316  0.9791
 1289SOL     OW15590  10.898   6.000   7.824  0.3058 -0.1886 -0.2685
 1289SOL    HW115591  10.899   6.004   7.920  1.0944 -2.4742 -0.1244
 1289SOL    HW215592  10.806   5.986   7.802  0.0588  0.7496  0.0913
 1290SOL     OW15593  11.181   2.415   8.698 -0.0064  0.2419  0.4273
 1290SOL    HW115594  11.177   2.488   8.760 -1.0373 -0.3918  1.1420
 1290SOL    HW215595  11.274   2.404   8.680  0.1220  2.4509 -0.5909
 1291SOL     OW15596   4.314   8.208   8.739 -0.3020  0.4565  0.0572
 1291SOL    HW115597   4.396   8.179   8.699 -0.5387  0.9799 -0.8241
 1291SOL    HW215598   4.250   8.141   8.717  0.2447 -0.9260  2.2924
 1292SOL     OW15599   8.789   1.109   2.051  0.3099 -0.2538  0.2341
 1292SOL    HW115600   8.809   1.052   2.125  0.3660 -1.2968 -0.5609
 1292SOL    HW215601   8.864   1.167   2.045  1.1430 -1.3184 -0.0716
 1293SOL     OW15602  10.472   8.566   9.151 -0.7060  0.1838 -0.0965
 1293SOL    HW115603  10.463   8.552   9.057  0.2497  0.1632 -0.1944
 1293SOL    HW215604  10.426   8.492   9.191 -2.3200  0.9132 -0.5054
 1294SOL     OW15605   4.983   5.975   0.082 -0.2204  0.4779  0.3920
 1294SOL    HW115606   5.058   6.028   0.108 -1.0817  1.5683  0.7540
 1294SOL    HW215607   4.940   5.952   0.165  0.4991 -1.4006  0.3009
 1295SOL     OW15608  10.213   4.365   3.346 -0.1153  0.3414  0.3108
 1295SOL    HW115609  10.300   4.373   3.386  0.1824  0.8038 -0.3899
 1295SOL    HW215610  10.218   4.420   3.268 -0.9052  0.0307  0.0287
 1296SOL     OW15611   9.206   4.123   1.683 -0.1452  0.1517  0.0726
 1296SOL    HW115612   9.183   4.103   1.774  2.3296 -0.0723  0.7277
 1296SOL    HW215613   9.124   4.148   1.643 -1.4061 -0.1948  2.2535
 1297SOL     OW15614  11.273   8.348  10.702  0.6106  0.2069  0.2181
 1297SOL    HW115615  11.178   8.342  10.703  0.5994  0.4374  0.6564
 1297SOL    HW215616  11.293   8.423  10.757  0.9954  0.8623 -0.7904
 1298SOL     OW15617   2.695   0.589   4.835  0.3334  0.0807 -0.0885
 1298SOL    HW115618   2.641   0.609   4.912 -1.1208  1.1328 -1.3395
 1298SOL    HW215619   2.650   0.515   4.793  2.3082 -1.9560  1.1664
 1299SOL     OW15620   5.711   4.257  11.724 -0.1183  0.2856  0.3459
 1299SOL    HW115621   5.737   4.220  11.639 -1.3983  1.5458 -0.6546
 1299SOL    HW215622   5.616   4.268  11.717 -0.2295  0.5409  1.9069
 1300SOL     OW15623   3.225   9.303   8.789  0.6363 -0.3751  0.1661
 1300SOL    HW115624   3.300   9.317   8.847 -0.4857  2.4948  1.1162
 1300SOL    HW215625   3.174   9.234   8.832  0.5044  0.7780  1.9877
 1301SOL     OW15626   3.344   1.615   3.651 -0.2006 -0.7585  0.0588
 1301SOL    HW115627   3.381   1.527   3.653  0.0307 -0.7278 -1.5204
 1301SOL    HW215628   3.313   1.626   3.561  1.0294  1.2586 -0.1849
 1302SOL     OW15629   0.472   7.502  10.753  0.1574 -0.3726 -0.6002
 1302SOL    HW115630   0.553   7.451  10.756  0.2800 -0.3076 -2.0234
 1302SOL    HW215631   0.473   7.544  10.667 -0.6542  0.8698 -0.0348
 1303SOL     OW15632   6.216  10.127   2.760  0.4341 -0.0550  0.8891
 1303SOL    HW115633   6.239  10.219   2.747 -0.6949 -0.0123 -1.3249
 1303SOL    HW215634   6.280  10.079   2.708  1.2112 -0.5980  2.2856
 1304SOL     OW15635   6.297   5.522   8.428 -0.1826 -0.1179  0.2979
 1304SOL    HW115636   6.321   5.615   8.433 -0.3319 -0.0260 -0.5451
 1304SOL    HW215637   6.376   5.478   8.397 -0.1194 -0.2793  0.6735
 1305SOL     OW15638   3.075   0.034   3.965  0.1784  0.4400 -0.2844
 1305SOL    HW115639   3.042  -0.008   4.045  0.3409 -1.5499 -1.2073
 1305SOL    HW215640   3.150   0.085   3.994 -0.7432  1.0991  1.0725
 1306SOL     OW15641  10.855   5.905  10.664  0.1455  0.2572 -0.0146
 1306SOL    HW115642  10.913   5.832  10.645  0.6284  0.3951  0.9028
 1306SOL    HW215643  10.813   5.882  10.746  0.8137  1.3125  0.6440
 1307SOL     OW15644   0.833   0.492   1.022  0.4253 -0.0043  0.6837
 1307SOL    HW115645   0.901   0.467   0.959  0.2819 -1.1066  0.9560
 1307SOL    HW215646   0.798   0.409   1.054 -0.5756  0.5570  1.0675
 1308SOL     OW15647   5.790   3.132   0.329 -0.4571  0.1626  0.1793
 1308SOL    HW115648   5.884   3.139   0.317 -0.6416  0.1554 -1.4615
 1308SOL    HW215649   5.753   3.203   0.276 -1.5061 -1.8359 -1.9303
 1309SOL     OW15650   0.244   5.093  10.403 -0.4991 -0.2522 -0.2692
 1309SOL    HW115651   0.304   5.028  10.366 -2.0748 -2.9018  1.4875
 1309SOL    HW215652   0.178   5.105  10.335 -0.5454 -1.0439 -0.3774
 1310SOL     OW15653   1.353  10.909   7.771  0.5399  0.1860 -0.4733
 1310SOL    HW115654   1.284  10.965   7.807  2.4386  1.0627  2.1037
 1310SOL    HW215655   1.317  10.877   7.689 -2.7422  0.9441  0.5097
 1311SOL     OW15656   7.208   1.752   6.830  0.3708 -0.1671 -0.4666
 1311SOL    HW115657   7.254   1.830   6.862  0.2956 -0.3320  0.0590
 1311SOL    HW215658   7.170   1.713   6.909  0.8067 -0.9945 -0.6589
 1312SOL     OW15659   1.654   1.690   4.705  0.9267  0.1294  0.1283
 1312SOL    HW115660   1.630   1.614   4.757  0.4560  0.0968 -0.1259
 1312SOL    HW215661   1.613   1.764   4.750  3.3960  0.6234  1.7907
 1313SOL     OW15662   7.587   2.415   0.395  0.1232  0.2053 -0.0189
 1313SOL    HW115663   7.621   2.387   0.480  0.7808  1.3332  0.1045
 1313SOL    HW215664   7.492   2.407   0.403  0.1483  0.7735  1.0027
 1314SOL     OW15665   8.762   4.516   6.782 -0.2827  0.0206 -0.5016
 1314SOL    HW115666   8.754   4.428   6.819 -0.9554 -0.5243 -1.8532
 1314SOL    HW215667   8.682   4.561   6.809 -0.5298 -0.2110 -0.8241
 1315SOL     OW15668   7.547   7.547   1.652 -0.5525  0.5028  0.2602
 1315SOL    HW115669   7.489   7.527   1.579  0.3623 -1.1686 -0.0805
 1315SOL    HW215670   7.501   7.513   1.729 -0.3448 -0.2220  0.0768
 1316SOL     OW15671   9.013   4.634  11.118 -0.0040 -0.3710 -0.1427
 1316SOL    HW115672   8.952   4.678  11.058  1.0100  0.7907 -0.3621
 1316SOL    HW215673   9.012   4.543  11.090  0.7641  0.2022 -2.2604
 1317SOL     OW15674   5.240  10.304   0.827  0.5141 -0.2208  0.2675
 1317SOL    HW115675   5.326  10.275   0.857  0.2244 -0.5789  0.7689
 1317SOL    HW215676   5.235  10.272   0.737  1.8509  1.8438 -0.6213
 1318SOL     OW15677   5.438   5.157   3.061  0.6879 -0.2843  0.7662
 1318SOL    HW115678   5.359   5.105   3.073  1.0725 -1.0983 -0.1127
 1318SOL    HW215679   5.471   5.170   3.150 -1.0916  1.1741  1.2865
 1319SOL     OW15680   2.909   4.108   9.886 -0.0303 -0.3838 -0.3907
 1319SOL    HW115681   2.949   4.179   9.936 -1.6584  0.7069 -0.5478
 1319SOL    HW215682   2.949   4.029   9.920  1.4685  0.5724  0.1588
 1320SOL     OW15683   0.897   2.681   3.330  0.5094  0.1242 -1.1308
 1320SOL    HW115684   0.975   2.737   3.334  0.2627  0.3805  1.2452
 1320SOL    HW215685   0.927   2.602   3.285  2.1889  0.1681 -0.1776
 1321SOL     OW15686  11.099   2.345   2.059  0.3422 -0.2299  0.2008
 1321SOL    HW115687  11.125   2.348   2.151  2.5222  0.7460 -0.3848
 1321SOL    HW215688  11.177   2.317   2.013 -0.0653  1.3237 -1.5452
 1322SOL     OW15689   1.699   0.106   2.107  0.1480  0.6934  0.2531
 1322SOL    HW115690   1.776   0.149   2.147  0.6010 -0.2920  0.4691
 1322SOL    HW215691   1.649   0.075   2.182  0.6971 -0.6425  0.0919
 1323SOL     OW15692   5.039  10.427   6.961 -0.3181 -1.1205  0.2444
 1323SOL    HW115693   4.995  10.512   6.969  1.0654 -0.0228 -2.3339
 1323SOL    HW215694   4.995  10.385   6.887  1.3268 -0.9920 -0.8678
 1324SOL     OW15695  11.716   0.421  10.534 -0.0847 -0.2278 -0.0357
 1324SOL    HW115696  11.707   0.515  10.552 -0.1516 -0.4351  1.1066
 1324SOL    HW215697  11.705   0.413  10.439  2.0350  1.1676 -0.4604
 1325SOL     OW15698   0.683   1.378   5.555 -0.7836  0.2385  0.1754
 1325SOL    HW115699   0.764   1.349   5.598 -1.4746 -0.3198  1.1383
 1325SOL    HW215700   0.629   1.299   5.549 -1.5792  0.7583  0.2807
 1326SOL     OW15701   1.862   9.487   6.747 -0.1086  0.3263  0.3110
 1326SOL    HW115702   1.832   9.568   6.787  1.0787  1.2276 -0.5741
 1326SOL    HW215703   1.803   9.420   6.782 -0.0314  1.2832  2.3906
 1327SOL     OW15704   1.236  10.183   8.360 -0.1449 -0.0683 -0.4862
 1327SOL    HW115705   1.260  10.252   8.422 -0.6223 -1.0442  0.8364
 1327SOL    HW215706   1.162  10.220   8.311  1.3244  1.3691 -1.7222
 1328SOL     OW15707   8.147   2.766   5.171  0.1239 -0.2523  0.0176
 1328SOL    HW115708   8.113   2.677   5.161  0.4305 -0.2171 -1.6203
 1328SOL    HW215709   8.241   2.755   5.181  0.3808 -0.0662 -1.8832
 1329SOL     OW15710   0.478   2.002  11.475 -0.3206  0.5752  0.4955
 1329SOL    HW115711   0.573   1.999  11.484 -0.1470 -1.4011 -1.2183
 1329SOL    HW215712   0.445   2.005  11.565  1.3372  0.9706  1.1157
 1330SOL     OW15713   5.533   0.881  11.583  0.5717  0.0997 -0.3825
 1330SOL    HW115714   5.512   0.935  11.507 -0.5983 -0.9320 -0.8337
 1330SOL    HW215715   5.593   0.935  11.635 -1.0443  2.0990 -0.4619
 1331SOL     OW15716   2.312  11.237   0.565 -0.6391  0.4803  0.2019
 1331SOL    HW115717   2.334  11.176   0.636 -0.7479 -0.0427 -0.2027
 1331SOL    HW215718   2.326  11.324   0.602 -0.6146  0.2091  0.8353
 1332SOL     OW15719   1.877   0.420   3.576  0.2032  0.3191 -0.2484
 1332SOL    HW115720   1.822   0.401   3.500 -0.4561  0.5108  0.1680
 1332SOL    HW215721   1.957   0.457   3.539 -0.4710  1.2678 -0.8233
 1333SOL     OW15722   3.620   0.103   1.027  0.3822 -0.2678  0.7353
 1333SOL    HW115723   3.643   0.115   0.935 -0.7693 -1.0643  0.3128
 1333SOL    HW215724   3.567   0.022   1.028 -0.0482  0.0002  2.0149
 1334SOL     OW15725   7.968   4.444  11.082  0.0422  0.1527 -0.4294
 1334SOL    HW115726   7.985   4.530  11.122  4.0901  0.2594 -1.9015
 1334SOL    HW215727   7.986   4.457  10.989 -2.5405 -1.6323 -1.2842
 1335SOL     OW15728   7.409  11.290   0.039  0.3634 -0.3377  0.2569
 1335SOL    HW115729   7.455  11.223  -0.012  2.3681  0.3415  1.0718
 1335SOL    HW215730   7.407  11.254   0.128 -1.5540 -0.7489  0.0793
 1336SOL     OW15731   4.098  11.632   7.622  0.1767  0.0474 -0.3295
 1336SOL    HW115732   4.122  11.686   7.698 -1.8131  1.5698 -0.7006
 1336SOL    HW215733   4.072  11.548   7.659 -2.2069  1.2428  0.9089
 1337SOL     OW15734   2.996   8.361   3.921 -0.0323 -0.2737 -0.7180
 1337SOL    HW115735   2.942   8.334   3.847 -0.3039  0.1025 -0.6600
 1337SOL    HW215736   3.005   8.282   3.974 -0.0155 -0.4923 -1.0403
 1338SOL     OW15737   6.732   4.086   6.700  0.4956  0.2261  0.5321
 1338SOL    HW115738   6.821   4.055   6.719  0.5984  1.1572  1.6889
 1338SOL    HW215739   6.741   4.134   6.618  1.2447  0.9817  1.0379
 1339SOL     OW15740   4.619   1.972   4.009 -0.4428 -0.1111  0.2242
 1339SOL    HW115741   4.622   2.062   4.041  1.9550  0.4897 -1.4208
 1339SOL    HW215742   4.656   1.919   4.079  0.3721  0.5326  0.2821
 1340SOL     OW15743  10.169   0.484   5.336  0.3554  0.1513 -0.1318
 1340SOL    HW115744  10.178   0.469   5.242 -1.9826 -1.1488 -0.2052
 1340SOL    HW215745  10.213   0.568   5.351  2.3851 -0.4682 -2.0246
 1341SOL     OW15746   8.990   3.880   0.812  0.2726 -0.1456  0.2330
 1341SOL    HW115747   9.010   3.892   0.719  0.0190 -1.0719  0.0536
 1341SOL    HW215748   8.935   3.802   0.815  1.9909 -1.3663  1.3629
 1342SOL     OW15749   5.950   1.888   2.014 -0.0276 -0.1660  0.4797
 1342SOL    HW115750   5.947   1.935   2.097 -0.2347  2.3053 -0.8238
 1342SOL    HW215751   5.863   1.847   2.006 -0.5703  0.8918  0.7812
 1343SOL     OW15752   6.132   7.082   1.009 -0.2863 -0.1223 -0.2402
 1343SOL    HW115753   6.105   7.173   1.023 -1.8519 -0.7512  1.2096
 1343SOL    HW215754   6.126   7.070   0.914  0.2774  1.3671 -0.4900
 1344SOL     OW15755   8.368   5.347   1.680 -0.3390 -0.1972  0.1087
 1344SOL    HW115756   8.316   5.270   1.703  0.8501 -1.3999 -1.0688
 1344SOL    HW215757   8.304   5.418   1.674 -1.4769 -1.0865  1.1584
 1345SOL     OW15758   9.236   2.688  11.401 -0.0229 -0.4202  0.7850
 1345SOL    HW115759   9.204   2.681  11.491 -0.8448  0.4806  0.5761
 1345SOL    HW215760   9.224   2.780  11.379  3.2882  0.1603  0.8882
 1346SOL     OW15761   8.777   6.151   2.778  0.2481 -0.1964  0.3998
 1346SOL    HW115762   8.697   6.102   2.761  0.9505 -1.2727  0.0560
 1346SOL    HW215763   8.826   6.148   2.696 -0.1594  2.0704  0.0046
 1347SOL     OW15764   2.524   2.540   5.701  0.0012 -0.0260 -0.3913
 1347SOL    HW115765   2.480   2.466   5.660  0.8490 -1.7893  1.7134
 1347SOL    HW215766   2.616   2.514   5.706 -0.2969 -0.9508  4.3613
 1348SOL     OW15767   2.363   2.102  11.108  0.2683 -0.1638  0.7577
 1348SOL    HW115768   2.437   2.074  11.162  1.0219 -0.4094 -0.3708
 1348SOL    HW215769   2.390   2.186  11.071  0.7119 -1.0249 -0.9844
 1349SOL     OW15770   1.918   4.216   2.316  0.3130 -0.2972  0.3682
 1349SOL    HW115771   1.962   4.136   2.345  0.7024  0.4366  1.9107
 1349SOL    HW215772   1.827   4.205   2.344 -0.6501 -1.8119 -2.8165
 1350SOL     OW15773  11.454   9.936   7.659  0.1406  0.0809  0.0227
 1350SOL    HW115774  11.415  10.002   7.717 -2.0487 -0.7156 -0.4441
 1350SOL    HW215775  11.542   9.969   7.641 -0.2123  1.8872  1.3394
 1351SOL     OW15776   2.952   3.635   9.331 -0.3233  0.2540  0.1222
 1351SOL    HW115777   2.890   3.668   9.396 -0.2405 -0.6180  0.6612
 1351SOL    HW215778   3.017   3.705   9.322 -1.6416  1.4084 -0.8448
 1352SOL     OW15779   5.405   2.787   1.214  0.0787 -0.0587  0.3042
 1352SOL    HW115780   5.403   2.718   1.147  0.2278  0.0761  0.1590
 1352SOL    HW215781   5.382   2.867   1.167  2.5293  0.4827 -0.1441
 1353SOL     OW15782  10.822   5.382  11.856  0.7638  0.4940 -0.3093
 1353SOL    HW115783  10.900   5.362  11.908  1.5381  1.1354 -1.1900
 1353SOL    HW215784  10.779   5.453  11.904 -0.8421 -1.6430  1.6790
 1354SOL     OW15785   0.342   8.595   5.163 -0.0787 -0.3974  0.0305
 1354SOL    HW115786   0.416   8.654   5.150  0.5778 -1.2716 -0.2805
 1354SOL    HW215787   0.328   8.596   5.258 -0.6484  0.9190 -0.0471
 1355SOL     OW15788  10.304  11.654  10.966 -0.1482  0.2112 -0.1435
 1355SOL    HW115789  10.383  11.706  10.981  2.3310 -2.6882 -1.7977
 1355SOL    HW215790  10.265  11.692  10.888  0.8939  0.3988 -0.5968
 1356SOL     OW15791  11.560   2.220  10.460  0.2269  0.1904 -0.3145
 1356SOL    HW115792  11.636   2.277  10.447  0.1815 -0.0617 -1.9010
 1356SOL    HW215793  11.564   2.158  10.387 -0.8979 -0.5185  0.2038
 1357SOL     OW15794   0.252   9.314   5.483 -0.0996 -0.0322  0.0864
 1357SOL    HW115795   0.312   9.387   5.469 -1.0120  0.6266 -0.5225
 1357SOL    HW215796   0.170   9.343   5.445 -0.4500 -1.4406 -0.2918
 1358SOL     OW15797  11.174   3.255   9.614  0.3474  0.6953  0.0793
 1358SOL    HW115798  11.094   3.203   9.626  1.1354 -0.6535 -0.3161
 1358SOL    HW215799  11.241   3.209   9.664  1.4482  0.3599 -1.6213
 1359SOL     OW15800   4.488   7.117   6.823 -0.2006 -0.2625  0.2469
 1359SOL    HW115801   4.564   7.065   6.848 -0.4071 -1.8956 -2.1591
 1359SOL    HW215802   4.525   7.202   6.797  0.9342 -1.1777 -1.3299
 1360SOL     OW15803   4.223   4.305   8.107  0.0864 -0.4359 -0.7529
 1360SOL    HW115804   4.158   4.263   8.163  0.7324 -0.0983  0.2804
 1360SOL    HW215805   4.177   4.322   8.025 -0.0723 -3.6544 -1.4701
 1361SOL     OW15806   3.310   7.526   0.554  0.4869  0.0702 -0.5867
 1361SOL    HW115807   3.318   7.521   0.459 -1.6884  1.0702 -0.8819
 1361SOL    HW215808   3.300   7.619   0.573  2.1577  0.0302  0.7961
 1362SOL     OW15809   7.038   9.061  10.839 -0.1156 -0.0011  0.3471
 1362SOL    HW115810   7.005   9.132  10.895 -1.5130  1.1214 -1.7593
 1362SOL    HW215811   6.962   9.035  10.786  1.0161 -1.3268 -0.7172
 1363SOL     OW15812   5.081   4.980   8.706  0.3404 -0.3404 -0.2351
 1363SOL    HW115813   5.029   4.954   8.782 -0.1460 -0.4990 -0.6109
 1363SOL    HW215814   5.018   5.023   8.648  0.6221 -0.5904 -0.7293
 1364SOL     OW15815   9.254   5.220   7.799 -0.6534 -0.2939  0.5349
 1364SOL    HW115816   9.286   5.288   7.858  1.3442 -1.0826  0.4374
 1364SOL    HW215817   9.166   5.200   7.831 -0.8157  1.4420  1.3112
 1365SOL     OW15818   6.245   1.277   7.464 -0.4181  0.1674 -0.1881
 1365SOL    HW115819   6.203   1.191   7.457 -2.0040  0.9960 -1.4546
 1365SOL    HW215820   6.338   1.260   7.446 -0.8470 -1.1515 -1.3035
 1366SOL     OW15821   3.277   5.826   7.428  0.1747  0.0200 -0.0592
 1366SOL    HW115822   3.362   5.786   7.448  0.2639  1.4462  3.0234
 1366SOL    HW215823   3.298   5.914   7.399 -0.2309 -0.0495 -0.5736
 1367SOL     OW15824   3.121   3.712  10.166  0.1604 -0.3265 -0.5982
 1367SOL    HW115825   3.049   3.671  10.118  0.0718 -1.0144  0.0995
 1367SOL    HW215826   3.182   3.739  10.097 -2.3422  3.6646 -1.5614
 1368SOL     OW15827   4.742   9.932  11.398  0.1475 -0.2517  0.7695
 1368SOL    HW115828   4.660   9.982  11.399 -0.7586 -1.6844  0.9869
 1368SOL    HW215829   4.724   9.855  11.452  1.1318 -1.3952 -0.4531
 1369SOL     OW15830   4.955   7.374   6.419  0.0093  0.5817 -0.4436
 1369SOL    HW115831   4.993   7.296   6.380  0.5940  0.9981 -0.7123
 1369SOL    HW215832   4.986   7.373   6.510 -0.0268  0.4745 -0.4322
 1370SOL     OW15833   2.598   3.007  10.787 -0.2766  0.2661 -0.7625
 1370SOL    HW115834   2.508   2.997  10.817 -0.0205 -1.7816 -0.5387
 1370SOL    HW215835   2.594   2.990  10.692 -0.2504  1.0970 -0.9186
 1371SOL     OW15836   4.606   9.937   2.242 -0.0106  0.2593  0.0140
 1371SOL    HW115837   4.686   9.974   2.205 -0.5306  1.4308  0.0399
 1371SOL    HW215838   4.558   9.901   2.167  0.8392 -1.0773  0.0778
 1372SOL     OW15839   7.991   7.969   4.394 -0.8234  0.1388 -0.1036
 1372SOL    HW115840   7.948   7.892   4.358 -0.2983 -0.9191  1.4214
 1372SOL    HW215841   8.072   7.978   4.343  0.5812 -2.1398  1.5264
 1373SOL     OW15842   3.812   9.075   3.268  0.1556  0.3110  0.2889
 1373SOL    HW115843   3.772   9.107   3.188  0.5733 -0.0472 -0.0721
 1373SOL    HW215844   3.849   8.990   3.244 -0.5267 -0.2325  1.1008
 1374SOL     OW15845   0.533   8.993  10.465  0.5786 -0.4001  0.0904
 1374SOL    HW115846   0.572   8.910  10.492  1.1955 -0.3400 -0.5865
 1374SOL    HW215847   0.607   9.050  10.448  0.1895 -0.1265 -0.7372
 1375SOL     OW15848   6.019   6.782   0.534 -0.3452  0.6187  0.1797
 1375SOL    HW115849   6.088   6.717   0.519  0.3507  1.2491  0.5831
 1375SOL    HW215850   6.059   6.844   0.595 -0.6888  1.9277 -0.9062
 1376SOL     OW15851  10.166  11.601   6.186  0.2942  0.5745 -0.1934
 1376SOL    HW115852  10.207  11.619   6.101  1.2536  0.5935  0.2513
 1376SOL    HW215853  10.147  11.507   6.185 -0.3711  0.7085 -0.7010
 1377SOL     OW15854   8.381   3.674   0.278  0.2210 -0.7615 -0.0349
 1377SOL    HW115855   8.421   3.593   0.310 -1.5974 -1.5113  0.4300
 1377SOL    HW215856   8.289   3.668   0.304 -0.3982  0.5479 -1.7440
 1378SOL     OW15857   6.170   2.671   2.497  0.1415 -0.1197 -0.0470
 1378SOL    HW115858   6.253   2.674   2.546  0.0288  0.2104  0.1213
 1378SOL    HW215859   6.116   2.739   2.536  0.3618  0.7447 -1.2103
 1379SOL     OW15860   7.723   8.057   7.875  0.3311 -0.4672  0.0079
 1379SOL    HW115861   7.629   8.074   7.883  0.6769  0.8305  1.8047
 1379SOL    HW215862   7.741   7.987   7.938  0.6772 -0.2709  0.1307
 1380SOL     OW15863   0.972   3.309   9.200 -0.1681 -0.1444  0.2579
 1380SOL    HW115864   0.942   3.341   9.115 -0.3824 -1.2517 -0.0978
 1380SOL    HW215865   0.970   3.214   9.192 -1.3668 -0.3046  1.9168
 1381SOL     OW15866   2.357  11.147   9.123 -0.0503  0.5648  0.1860
 1381SOL    HW115867   2.426  11.127   9.185 -0.9555 -1.2690  0.6805
 1381SOL    HW215868   2.398  11.205   9.059  1.9538 -0.4707  0.4402
 1382SOL     OW15869   2.474   0.420   4.979  0.0120  0.3235 -0.0549
 1382SOL    HW115870   2.454   0.367   4.901 -1.5582 -0.4073  0.8071
 1382SOL    HW215871   2.405   0.486   4.981  0.8034  1.1579  0.0094
 1383SOL     OW15872  11.941   4.723   3.590 -0.4685  0.1714 -0.3839
 1383SOL    HW115873  11.896   4.646   3.626 -0.0532 -0.1095 -0.4512
 1383SOL    HW215874  11.882   4.756   3.522  0.2703 -1.3701 -1.8535
 1384SOL     OW15875   3.740  10.786   6.914  0.3030 -0.1250 -0.4363
 1384SOL    HW115876   3.652  10.821   6.907 -0.1347 -0.7084  1.5605
 1384SOL    HW215877   3.732  10.695   6.887 -0.4181 -1.0560  2.5658
 1385SOL     OW15878   9.888   6.289  10.923 -0.1187 -0.1765 -0.2061
 1385SOL    HW115879   9.968   6.240  10.942  0.6082  1.3219  0.8039
 1385SOL    HW215880   9.907   6.336  10.841 -0.6594 -1.2239 -0.9473
 1386SOL     OW15881   4.004   7.219   2.251 -0.5345  0.0569  0.7756
 1386SOL    HW115882   4.055   7.146   2.215 -0.7703 -0.1630  0.8915
 1386SOL    HW215883   3.913   7.198   2.230 -0.7197 -0.2908  1.8781
 1387SOL     OW15884   9.638   1.809   2.283 -0.1678  0.6111  0.1448
 1387SOL    HW115885   9.566   1.746   2.283 -0.0792  0.5072  0.4554
 1387SOL    HW215886   9.711   1.762   2.324 -0.0376  0.8432  0.1774
 1388SOL     OW15887   3.539   3.426   7.401 -0.6040 -0.8717  0.4616
 1388SOL    HW115888   3.481   3.437   7.326  1.4526 -0.5693 -1.1961
 1388SOL    HW215889   3.517   3.499   7.460  0.3165  1.3266 -1.7235
 1389SOL     OW15890   5.491   0.488   7.121  0.0562 -0.3461 -0.4627
 1389SOL    HW115891   5.547   0.554   7.079  0.2844 -0.9767 -1.1678
 1389SOL    HW215892   5.402   0.521   7.109  0.2206  0.2999  0.0235
 1390SOL     OW15893   7.341   8.735   5.795  0.0571  0.1667  0.1029
 1390SOL    HW115894   7.405   8.664   5.806 -1.7316 -1.7254 -1.1068
 1390SOL    HW215895   7.393   8.808   5.760  1.8220 -0.7847  0.6173
 1391SOL     OW15896   2.152   6.409   8.725  0.0059 -0.4364 -0.0301
 1391SOL    HW115897   2.099   6.480   8.689  0.1796  0.2002  0.9436
 1391SOL    HW215898   2.147   6.420   8.820 -0.4926 -2.1243  0.1667
 1392SOL     OW15899   1.955   9.233   6.190 -0.2197 -0.2313  0.1879
 1392SOL    HW115900   1.909   9.305   6.234 -1.4482 -0.8813  0.0164
 1392SOL    HW215901   1.885   9.176   6.159  0.7392 -1.9847  1.1220
 1393SOL     OW15902   8.203   7.631   2.491  0.3574  0.8521  0.3611
 1393SOL    HW115903   8.140   7.560   2.502  0.9378  0.4581  1.1394
 1393SOL    HW215904   8.154   7.697   2.442 -0.0522 -0.2513 -0.7779
 1394SOL     OW15905   3.987   3.097  10.343  1.1089  0.9767 -0.0063
 1394SOL    HW115906   3.936   3.018  10.324  1.1404  1.4109 -2.1800
 1394SOL    HW215907   3.982   3.107  10.438  0.1093 -0.9571  0.1904
 1395SOL     OW15908   9.283   5.577  11.591 -0.7020  0.7135  0.3220
 1395SOL    HW115909   9.275   5.618  11.505  0.5206  1.2623  0.4577
 1395SOL    HW215910   9.288   5.650  11.653 -1.3608  0.3277  0.8546
 1396SOL     OW15911  11.215   3.587   0.936  0.3298  0.1162 -0.1052
 1396SOL    HW115912  11.268   3.511   0.913 -0.7007 -0.1128 -1.9636
 1396SOL    HW215913  11.174   3.565   1.020 -0.6994 -1.8222 -1.0645
 1397SOL     OW15914   4.047   6.937   8.043 -0.1355  0.6262  0.0779
 1397SOL    HW115915   4.139   6.913   8.039 -0.0002  0.9828  0.8350
 1397SOL    HW215916   4.000   6.854   8.053  0.2785  0.5812  2.0596
 1398SOL     OW15917   1.938  11.922   1.895  0.0705 -0.0119  0.4175
 1398SOL    HW115918   1.945  11.979   1.972  0.6414  0.3974  0.0672
 1398SOL    HW215919   1.859  11.870   1.911  0.3810 -0.1904  1.4556
 1399SOL     OW15920   4.814   6.018   7.707  0.3025  0.4582 -0.1179
 1399SOL    HW115921   4.860   6.017   7.623  1.1584 -1.3064  0.3295
 1399SOL    HW215922   4.797   5.926   7.726  0.7445  0.7601  1.9784
 1400SOL     OW15923   3.972   5.133  10.320  0.1749  0.1294  0.5167
 1400SOL    HW115924   3.904   5.108  10.256 -1.0544 -0.6440  2.0374
 1400SOL    HW215925   4.018   5.206  10.279  0.1951 -1.0385 -1.7286
 1401SOL     OW15926   5.017   1.478   4.049  0.6564 -0.0193  0.2017
 1401SOL    HW115927   5.023   1.555   3.992  2.1035 -0.4808 -0.2884
 1401SOL    HW215928   5.054   1.407   3.998  0.2184 -0.8527  1.0228
 1402SOL     OW15929   3.570   7.304   3.287 -0.2479  0.5056 -0.0866
 1402SOL    HW115930   3.507   7.368   3.255  1.5196  1.8339 -1.0640
 1402SOL    HW215931   3.628   7.353   3.345  1.3335 -0.0737 -1.1029
 1403SOL     OW15932   0.551   1.819   6.063 -0.5999  0.4065 -0.8154
 1403SOL    HW115933   0.463   1.794   6.093 -0.6148  0.9287 -0.4114
 1403SOL    HW215934   0.567   1.763   5.987 -1.4717  0.6372 -1.1751
 1404SOL     OW15935   1.618   7.219  11.273  0.2142 -0.5597  0.4297
 1404SOL    HW115936   1.634   7.236  11.365  1.9316 -1.2009  0.2812
 1404SOL    HW215937   1.704   7.227  11.231 -0.7870  1.6123 -1.4664
 1405SOL     OW15938   9.496   3.607   5.868 -0.2214  0.1237 -0.1175
 1405SOL    HW115939   9.547   3.639   5.942  0.3095 -0.1475 -0.3645
 1405SOL    HW215940   9.485   3.684   5.812 -0.8737  0.4011  0.3727
 1406SOL     OW15941   7.295   2.160   8.123 -0.0542  0.2569  0.2700
 1406SOL    HW115942   7.207   2.199   8.126 -0.5061 -0.5587 -1.3051
 1406SOL    HW215943   7.280   2.066   8.132  0.4368 -0.0885 -1.9991
 1407SOL     OW15944   9.188   1.945  11.275 -0.7003 -0.4248  0.1151
 1407SOL    HW115945   9.215   1.854  11.289  0.7902 -0.0427 -0.0619
 1407SOL    HW215946   9.206   1.961  11.182  1.7203  0.8266  0.7093
 1408SOL     OW15947   5.514   0.106   8.640 -0.1119  0.0847 -0.4818
 1408SOL    HW115948   5.445   0.115   8.705  0.6690 -2.0281  0.7404
 1408SOL    HW215949   5.468   0.077   8.561 -0.7722 -0.0084 -0.0724
 1409SOL     OW15950  11.436  11.280  10.861  0.2631  0.0581 -0.1269
 1409SOL    HW115951  11.403  11.316  10.778  0.7724  0.3912 -0.1884
 1409SOL    HW215952  11.522  11.244  10.839 -0.7363 -2.3544 -0.3450
 1410SOL     OW15953   5.784   8.960  11.412 -0.7008  0.0225  0.3178
 1410SOL    HW115954   5.794   9.048  11.448 -0.2896  0.2001 -0.2207
 1410SOL    HW215955   5.761   8.906  11.488  0.1307  0.3894  0.8465
 1411SOL     OW15956  10.017   5.877   9.479  0.0378 -0.1104  0.0552
 1411SOL    HW115957   9.955   5.937   9.521  1.4964  0.2588  1.8750
 1411SOL    HW215958  10.103   5.918   9.496  0.7958 -0.4641 -2.5638
 1412SOL     OW15959   9.433   4.281  11.951 -0.8361  0.0716 -0.0111
 1412SOL    HW115960   9.427   4.208  12.012  0.0006 -0.5755 -0.6602
 1412SOL    HW215961   9.458   4.356  12.005 -1.3230 -0.2045  0.6090
 1413SOL     OW15962   0.556   4.952   4.889 -0.0741  1.0626  0.2938
 1413SOL    HW115963   0.596   4.871   4.920  2.2330  1.4835 -1.2852
 1413SOL    HW215964   0.510   4.928   4.808 -1.3721  0.9578  1.0332
 1414SOL     OW15965  11.847   3.505  10.856  0.2890  0.0980 -0.1913
 1414SOL    HW115966  11.922   3.548  10.814 -1.6533  1.1979 -2.8079
 1414SOL    HW215967  11.877   3.415  10.871  1.9339  0.3026 -1.8321
 1415SOL     OW15968   3.019   1.050   8.305  0.0155 -0.4501 -0.7136
 1415SOL    HW115969   3.109   1.070   8.329 -0.2669  0.7097 -0.5263
 1415SOL    HW215970   3.016   1.064   8.210 -0.2771  0.9435 -0.5306
 1416SOL     OW15971   9.697   5.879  11.002 -0.2651  0.3377 -0.7189
 1416SOL    HW115972   9.765   5.944  11.023 -1.0776  1.2994 -0.9828
 1416SOL    HW215973   9.651   5.917  10.927 -0.8973 -0.4484 -0.7365
 1417SOL     OW15974   9.415   0.275   9.170  0.2712 -0.3495  0.0355
 1417SOL    HW115975   9.393   0.253   9.080 -1.8731  1.4911  0.0246
 1417SOL    HW215976   9.332   0.301   9.210  1.5000  1.0356  1.8931
 1418SOL     OW15977   5.747   3.848   6.209 -0.1803  0.2298  0.1810
 1418SOL    HW115978   5.775   3.936   6.184 -0.9426  0.4841  0.1981
 1418SOL    HW215979   5.828   3.800   6.224  0.2396  0.9452  0.2152
 1419SOL     OW15980   5.305   2.830   5.719  0.6124  0.3925 -0.0501
 1419SOL    HW115981   5.353   2.758   5.760 -0.0057  0.3178  0.5552
 1419SOL    HW215982   5.371   2.899   5.707  0.6889  0.6460  1.6292
 1420SOL     OW15983   3.398   5.220   5.414  0.5915 -0.2190 -0.2172
 1420SOL    HW115984   3.476   5.276   5.412  0.9602 -0.7274 -0.2001
 1420SOL    HW215985   3.405   5.166   5.335  0.6483 -0.7841  0.1631
 1421SOL     OW15986   2.786   1.021   3.296  0.5998  0.2089 -0.1853
 1421SOL    HW115987   2.769   1.088   3.362  0.6945 -1.0041  1.1302
 1421SOL    HW215988   2.730   1.045   3.222  0.3857  1.5323  0.3780
 1422SOL     OW15989   4.098   7.678   2.450  0.6462 -0.7144  0.5108
 1422SOL    HW115990   4.018   7.698   2.498  0.8344 -1.4369  1.1629
 1422SOL    HW215991   4.168   7.714   2.505  0.8041 -0.5748  0.2213
 1423SOL     OW15992   7.958   0.482   8.198 -0.2061 -0.3590 -0.1417
 1423SOL    HW115993   7.961   0.413   8.264  0.2236 -0.3214 -0.1155
 1423SOL    HW215994   8.015   0.450   8.127  0.2316  0.0870 -0.0010
 1424SOL     OW15995   5.918   7.384   6.067 -0.1939 -0.2238 -0.1052
 1424SOL    HW115996   5.998   7.368   6.118 -1.6663 -2.1859  1.7725
 1424SOL    HW215997   5.917   7.314   6.002 -1.6131 -1.9171  1.6100
 1425SOL     OW15998   8.611  11.062   4.503 -0.1100 -0.2194 -0.0338
 1425SOL    HW115999   8.644  11.064   4.413 -1.3300  0.9171 -0.4939
 1425SOL    HW216000   8.618  11.153   4.533 -0.6933 -0.3884  0.6477
 1426SOL     OW16001   1.847   8.914   5.590 -0.7766  0.0394 -0.5730
 1426SOL    HW116002   1.891   8.997   5.604  0.2655 -0.4679 -0.7110
 1426SOL    HW216003   1.895   8.852   5.646 -2.2725 -0.2601  0.4455
 1427SOL     OW16004  11.598  10.266   3.313  0.0731  0.1622 -0.2348
 1427SOL    HW116005  11.570  10.301   3.228  1.6179 -0.5718 -1.0789
 1427SOL    HW216006  11.599  10.342   3.371 -0.9297  0.6874 -0.8724
 1428SOL     OW16007   3.144   5.943   4.582 -0.0988 -0.6013 -0.0480
 1428SOL    HW116008   3.163   5.948   4.676  0.7918  0.4906 -0.2679
 1428SOL    HW216009   3.060   5.987   4.571  0.3940  0.4060  0.0909
 1429SOL     OW16010   9.276  11.008   5.391 -0.4214  0.0901 -0.4007
 1429SOL    HW116011   9.303  11.022   5.300  0.4399 -1.4079 -0.4169
 1429SOL    HW216012   9.316  10.924   5.415  0.8515  1.2667  1.9519
 1430SOL     OW16013   8.689   1.121   2.946  0.0306 -0.6238  0.1197
 1430SOL    HW116014   8.614   1.072   2.981 -1.2242  1.0596 -0.0488
 1430SOL    HW216015   8.765   1.069   2.969 -0.9682 -1.0665  2.7599
 1431SOL     OW16016   7.915   8.159   6.182 -0.7230  0.4187  0.3894
 1431SOL    HW116017   7.851   8.104   6.136 -0.7059  2.3244 -2.1336
 1431SOL    HW216018   7.997   8.109   6.178 -1.4154 -0.8290  1.2071
 1432SOL     OW16019   8.961   4.096   7.946  0.2660 -0.0263 -0.2582
 1432SOL    HW116020   9.032   4.034   7.931  1.3637  0.8127  1.2257
 1432SOL    HW216021   8.902   4.082   7.872  0.9338 -2.1622 -0.4789
 1433SOL     OW16022   7.121   0.238   3.502 -0.0739  0.0778  0.3850
 1433SOL    HW116023   7.081   0.270   3.583  1.3637  0.2744  1.0546
 1433SOL    HW216024   7.102   0.306   3.437  1.0268  1.2470  1.2395
 1434SOL     OW16025   0.404   1.446  11.704  0.1229  0.0741  0.4022
 1434SOL    HW116026   0.407   1.538  11.730 -0.2899  0.9069 -2.2042
 1434SOL    HW216027   0.329   1.439  11.645  0.2990 -1.8754  0.3263
 1435SOL     OW16028   7.166   4.599   5.049  0.3318 -0.4052 -0.0613
 1435SOL    HW116029   7.224   4.523   5.044  1.4235  0.4216 -0.4661
 1435SOL    HW216030   7.120   4.600   4.965  1.8971  0.5645 -0.9570
 1436SOL     OW16031  10.125  10.993   3.233 -0.4507 -0.1150 -0.5054
 1436SOL    HW116032  10.193  11.058   3.253  0.0537 -0.4984 -0.9629
 1436SOL    HW216033  10.093  11.018   3.146 -0.9508  0.1086 -0.2601
 1437SOL     OW16034   1.875  10.873   9.851 -0.3604 -0.1437  0.1998
 1437SOL    HW116035   1.886  10.788   9.808  2.6155  0.2106  0.0447
 1437SOL    HW216036   1.917  10.935   9.791 -0.5363  1.1061  1.3424
 1438SOL     OW16037   1.379   8.531   5.269 -0.5057  0.2253  0.0209
 1438SOL    HW116038   1.379   8.467   5.340  0.4111  0.9160  0.6645
 1438SOL    HW216039   1.374   8.616   5.313 -0.9253  0.6283 -0.7882
 1439SOL     OW16040   0.793   1.362   4.249  0.3590  0.0468  0.6108
 1439SOL    HW116041   0.774   1.439   4.302 -0.7174  0.8790 -0.9038
 1439SOL    HW216042   0.797   1.290   4.312 -0.9029  0.9780  1.8238
 1440SOL     OW16043   4.411   9.537   5.896  0.1872  0.2609  0.1099
 1440SOL    HW116044   4.394   9.594   5.971  1.4478  0.4287  0.2900
 1440SOL    HW216045   4.392   9.449   5.928 -0.4014  0.4406  0.2635
 1441SOL     OW16046   3.458   1.139   6.741 -0.0702 -0.0023  0.4885
 1441SOL    HW116047   3.478   1.046   6.743 -0.1650 -0.0504 -0.2739
 1441SOL    HW216048   3.381   1.146   6.685  0.6182  0.6349 -0.4248
 1442SOL     OW16049   6.207   9.537   5.327 -0.7901  0.0196 -0.0605
 1442SOL    HW116050   6.270   9.513   5.259 -1.3093  1.5844 -1.1541
 1442SOL    HW216051   6.138   9.472   5.320 -0.4083 -0.3530 -0.4184
 1443SOL     OW16052   8.086   4.061   2.701 -0.2020 -0.6616  0.3402
 1443SOL    HW116053   8.173   4.031   2.674 -0.5636 -0.7889 -0.7257
 1443SOL    HW216054   8.054   3.993   2.761  0.4255 -0.6075  0.7511
 1444SOL     OW16055   8.771   1.777   7.625  0.0803  0.1997  0.1591
 1444SOL    HW116056   8.806   1.723   7.554  1.4898  0.0441  0.9365
 1444SOL    HW216057   8.720   1.716   7.678 -0.4351  0.1848 -0.3299
 1445SOL     OW16058  11.243   1.569   3.105  0.1320 -0.0410 -0.2633
 1445SOL    HW116059  11.176   1.637   3.100  0.6882  0.4923 -0.5126
 1445SOL    HW216060  11.237   1.524   3.021  0.1477  0.0614 -0.3192
 1446SOL     OW16061  10.935   6.106  10.910 -0.6366 -0.2704  0.1755
 1446SOL    HW116062  10.985   6.178  10.947 -0.0221 -0.8568  0.5284
 1446SOL    HW216063  10.988   6.077  10.835 -1.1617  0.0042 -0.3048
 1447SOL     OW16064   6.937  10.903   0.113  1.1753 -0.1722 -0.6987
 1447SOL    HW116065   6.936  10.996   0.089  0.7296  0.0897  0.3113
 1447SOL    HW216066   6.873  10.862   0.054 -0.1895  0.5300  0.2636
 1448SOL     OW16067   4.821   2.958   9.130 -0.1817  0.0353  0.6547
 1448SOL    HW116068   4.799   3.018   9.059  1.0278 -0.8003 -0.4791
 1448SOL    HW216069   4.769   2.988   9.204 -1.3819  1.0291 -0.5384
 1449SOL     OW16070   5.945   3.185   3.703  0.3400  0.3479  0.0360
 1449SOL    HW116071   5.879   3.189   3.635  0.3801  1.0303  0.0308
 1449SOL    HW216072   6.026   3.210   3.660  0.9125 -1.8554 -0.3020
 1450SOL     OW16073   9.279  10.963   6.055 -0.4170 -0.3198  0.5296
 1450SOL    HW116074   9.316  10.923   6.134 -0.2583  2.1402  1.7686
 1450SOL    HW216075   9.185  10.953   6.065 -0.5807  2.2503  2.4192
 1451SOL     OW16076   9.072   4.005   2.366 -0.1030 -0.1324 -0.3118
 1451SOL    HW116077   9.006   4.066   2.333 -0.2836 -0.2140 -0.1104
 1451SOL    HW216078   9.139   4.060   2.406  0.7279  0.0422 -1.8516
 1452SOL     OW16079   4.171   9.881   6.206  0.5209 -0.6521 -0.2225
 1452SOL    HW116080   4.093   9.935   6.213  1.1942  0.5236 -1.3606
 1452SOL    HW216081   4.171   9.828   6.286 -0.9854 -0.0871  0.1798
 1453SOL     OW16082   4.509  10.968  11.383 -0.0942  0.5619 -0.1607
 1453SOL    HW116083   4.508  11.060  11.359 -1.3538  0.4253 -0.7089
 1453SOL    HW216084   4.490  10.968  11.477  1.7425  0.9249  0.2571
 1454SOL     OW16085   6.782  11.045   6.448  0.3850  0.4008  0.1556
 1454SOL    HW116086   6.798  11.057   6.354 -0.8873 -0.8681 -0.2501
 1454SOL    HW216087   6.846  10.980   6.475  0.9974  1.0360  0.2676
 1455SOL     OW16088   2.274   2.560   9.143  0.2228  0.0709  0.1539
 1455SOL    HW116089   2.283   2.596   9.055 -1.1056 -2.5037 -1.1446
 1455SOL    HW216090   2.364   2.545   9.172  0.6858 -0.8620 -1.6150
 1456SOL     OW16091  11.895  11.069  10.306 -0.0563 -0.1016  0.1354
 1456SOL    HW116092  11.966  11.010  10.330  1.4117  1.8445  0.7887
 1456SOL    HW216093  11.834  11.013  10.257  1.6201 -1.9635  0.0191
 1457SOL     OW16094   8.256   9.765   8.762 -0.0521 -0.4366  0.0304
 1457SOL    HW116095   8.313   9.817   8.819 -1.3909  0.1141  0.9096
 1457SOL    HW216096   8.225   9.827   8.696 -1.9120  0.0246  1.2729
 1458SOL     OW16097   3.520  11.924  10.639  0.2260 -0.2069 -0.1681
 1458SOL    HW116098   3.613  11.943  10.633  0.3806 -1.2627 -2.1391
 1458SOL    HW216099   3.492  11.963  10.721  2.6369 -0.8794  1.0574
 1459SOL     OW16100   9.345   0.078   1.632 -0.5718 -0.1211 -0.2076
 1459SOL    HW116101   9.402   0.009   1.599  0.0921  1.1016 -1.7309
 1459SOL    HW216102   9.283   0.094   1.561  0.0771  1.6872 -0.4211
 1460SOL     OW16103   5.535  10.310   5.473 -0.0841 -0.0730 -0.1154
 1460SOL    HW116104   5.629  10.295   5.479  0.0998  1.4977  2.7613
 1460SOL    HW216105   5.495  10.232   5.511 -0.0049 -0.8097 -1.4832
 1461SOL     OW16106   2.589   9.342   6.605  0.3531 -0.3812 -0.1457
 1461SOL    HW116107   2.567   9.331   6.513 -0.0684  1.2483 -0.2827
 1461SOL    HW216108   2.685   9.348   6.606  0.2849  1.7231 -0.8101
 1462SOL     OW16109  11.559   0.051   7.969 -0.2286 -0.2853  0.0182
 1462SOL    HW116110  11.561   0.057   8.065  0.1206  1.1511 -0.0457
 1462SOL    HW216111  11.467   0.038   7.948 -0.2501 -1.0874  0.5575
 1463SOL     OW16112   0.426   0.489   9.886 -0.0219 -0.5103  0.0520
 1463SOL    HW116113   0.467   0.568   9.922 -3.9526  1.2073  1.3334
 1463SOL    HW216114   0.406   0.512   9.795 -0.2735 -0.4314  0.1280
 1464SOL     OW16115   3.094   5.859   9.808 -0.2150 -0.0581  0.2150
 1464SOL    HW116116   3.034   5.833   9.739  0.2978 -0.2058 -0.1851
 1464SOL    HW216117   3.061   5.815   9.887 -0.1483 -0.8227 -0.1749
 1465SOL     OW16118   9.826  10.526  10.908 -0.1833 -0.0370  0.2378
 1465SOL    HW116119   9.918  10.511  10.888 -1.0443 -2.8867 -2.2326
 1465SOL    HW216120   9.812  10.483  10.993  0.0343 -3.2913 -1.2372
 1466SOL     OW16121   7.152   0.795   6.497 -0.3506 -0.0911  0.4482
 1466SOL    HW116122   7.171   0.882   6.463 -0.3439  0.1215  0.9799
 1466SOL    HW216123   7.062   0.778   6.470  0.1092 -0.5070 -0.8565
 1467SOL     OW16124   7.646   6.294   1.099 -1.0850 -0.1460  0.2965
 1467SOL    HW116125   7.728   6.289   1.049 -1.4922 -1.2631 -0.3099
 1467SOL    HW216126   7.673   6.284   1.190 -0.5141 -0.2139  0.1246
 1468SOL     OW16127   0.552   1.380   9.607 -0.3914 -0.0310  0.1992
 1468SOL    HW116128   0.619   1.432   9.563 -1.7142  1.4756 -0.1323
 1468SOL    HW216129   0.593   1.295   9.620  1.1993  0.5007 -0.9572
 1469SOL     OW16130  10.995   0.737   6.067 -0.6281  0.6451  0.3537
 1469SOL    HW116131  11.081   0.701   6.092 -0.0234  1.6657 -0.1712
 1469SOL    HW216132  10.935   0.706   6.135 -0.3706 -2.1754 -0.5932
 1470SOL     OW16133   4.061   0.853   3.424 -0.4363 -0.1215 -0.0452
 1470SOL    HW116134   4.071   0.759   3.412 -0.6063 -0.2415  0.7262
 1470SOL    HW216135   3.969   0.870   3.406 -0.0288  0.2089 -2.0928
 1471SOL     OW16136   5.946   8.755   2.481  0.1685  0.2156  0.0579
 1471SOL    HW116137   6.002   8.795   2.413  1.7631  0.5768  1.5141
 1471SOL    HW216138   5.862   8.800   2.471  0.9703  1.7020 -0.4190
 1472SOL     OW16139   1.294   5.680   7.859 -0.6408 -0.0738  0.2967
 1472SOL    HW116140   1.376   5.630   7.864 -1.2489 -1.0087  1.3851
 1472SOL    HW216141   1.230   5.618   7.823 -1.2251  0.1498  0.9333
 1473SOL     OW16142   1.941   0.645   6.576  0.2609 -0.3378 -0.1735
 1473SOL    HW116143   1.943   0.694   6.659  0.6400  1.1295 -1.0102
 1473SOL    HW216144   1.943   0.713   6.509 -0.7367 -1.4667 -1.4031
 1474SOL     OW16145   8.480   8.469   7.266  0.5250 -0.6328  0.1233
 1474SOL    HW116146   8.408   8.508   7.216  1.2272  0.3728 -0.1311
 1474SOL    HW216147   8.483   8.521   7.347  0.9458 -0.6883  0.1437
 1475SOL     OW16148   9.450   1.009   4.107 -0.0584  0.5491  0.3489
 1475SOL    HW116149   9.416   0.921   4.089 -0.8105  0.2674  2.8203
 1475SOL    HW216150   9.429   1.025   4.199  0.9333  2.9479  0.2345
 1476SOL     OW16151   4.052   3.189   4.071  0.1719 -0.3540  0.2091
 1476SOL    HW116152   3.998   3.209   4.147  0.1324  2.4793 -0.4573
 1476SOL    HW216153   3.997   3.134   4.016 -0.7402 -0.3470  1.0796
 1477SOL     OW16154   0.193   8.074   5.543 -0.2203 -0.4011 -0.0860
 1477SOL    HW116155   0.110   8.062   5.496 -0.3770  1.3324 -0.3178
 1477SOL    HW216156   0.171   8.134   5.615  0.7914 -0.0286 -0.0725
 1478SOL     OW16157   5.262   8.716   6.162 -0.0236 -0.0417  0.3174
 1478SOL    HW116158   5.320   8.772   6.214  0.6548 -0.4131 -0.0297
 1478SOL    HW216159   5.218   8.662   6.227  2.8115 -2.4376  0.4754
 1479SOL     OW16160   8.642   9.804  10.660  0.2098 -0.2713 -0.4016
 1479SOL    HW116161   8.590   9.805  10.580 -1.4619 -2.7124  0.5593
 1479SOL    HW216162   8.655   9.711  10.680  0.4686  0.2431  2.2293
 1480SOL     OW16163  11.278   4.898   9.687  0.1635  0.2646 -0.0700
 1480SOL    HW116164  11.202   4.865   9.639 -0.1484  0.5474  0.2226
 1480SOL    HW216165  11.267   4.993   9.688  0.1853  0.2637  0.5315
 1481SOL     OW16166   1.454   0.920   4.390  0.2386  0.2574 -0.3802
 1481SOL    HW116167   1.540   0.946   4.356  0.6925 -1.2895 -0.4835
 1481SOL    HW216168   1.454   0.824   4.385 -1.7792  0.2454 -1.0598
 1482SOL     OW16169   4.343   6.884   4.962 -0.0782 -0.2834 -0.6195
 1482SOL    HW116170   4.371   6.968   4.998 -1.0637 -0.2389  0.0865
 1482SOL    HW216171   4.424   6.841   4.936  0.5866  0.1386  0.6655
 1483SOL     OW16172  10.304  10.219   7.445 -0.2865 -0.3173  1.0034
 1483SOL    HW116173  10.275  10.235   7.535 -2.6740 -1.3195  0.5054
 1483SOL    HW216174  10.248  10.147   7.415 -1.0039  1.2924 -1.9155
 1484SOL     OW16175   4.279   7.512   4.164  0.3737 -0.6923  0.1482
 1484SOL    HW116176   4.252   7.422   4.144  0.6895 -1.0976  1.4548
 1484SOL    HW216177   4.369   7.518   4.131 -0.3043 -0.2105 -1.7147
 1485SOL     OW16178   0.530   4.294   2.703  0.0853 -0.5882  0.3320
 1485SOL    HW116179   0.504   4.207   2.734  0.1020 -0.3709  0.9758
 1485SOL    HW216180   0.619   4.305   2.734 -0.2152  0.0046  1.0099
 1486SOL     OW16181   5.266   9.758   1.462 -0.0789  0.0212  0.3817
 1486SOL    HW116182   5.176   9.790   1.458 -0.2183 -0.3308  0.7499
 1486SOL    HW216183   5.261   9.668   1.431  0.1692  0.0377  0.2909
 1487SOL     OW16184  11.444  11.578   8.394 -0.3346 -0.3674  0.0440
 1487SOL    HW116185  11.403  11.570   8.308 -0.2089 -2.2717  0.1180
 1487SOL    HW216186  11.376  11.548   8.455 -0.1140  0.1196  0.5442
 1488SOL     OW16187  10.902   3.296   6.993 -0.0167 -0.0281 -0.6098
 1488SOL    HW116188  10.914   3.226   7.058 -1.7682  2.0621  2.2429
 1488SOL    HW216189  10.816   3.278   6.954 -0.6852  0.6818  0.4670
 1489SOL     OW16190   9.405   2.410   2.617  0.4334 -0.3523  0.2123
 1489SOL    HW116191   9.424   2.467   2.543 -0.8195  0.0790  0.1980
 1489SOL    HW216192   9.480   2.421   2.676  0.5324  0.7786 -0.1001
 1490SOL     OW16193   9.370  10.528   4.864 -0.2326 -0.1773 -0.3988
 1490SOL    HW116194   9.340  10.591   4.799 -0.2865 -0.8124 -1.0060
 1490SOL    HW216195   9.315  10.451   4.851 -0.4518 -0.2061  0.6128
 1491SOL     OW16196   2.820   0.558   0.514 -0.4499 -0.4817 -0.0931
 1491SOL    HW116197   2.749   0.621   0.528  0.1800  0.0564  0.8469
 1491SOL    HW216198   2.895   0.598   0.559  0.2494 -1.3838 -0.4466
 1492SOL     OW16199   8.189  11.266   8.547  0.1914  0.0290 -0.0125
 1492SOL    HW116200   8.207  11.287   8.456  2.3534  1.7298  0.7233
 1492SOL    HW216201   8.098  11.237   8.548  1.2384 -4.4851 -3.3866
 1493SOL     OW16202   6.360   4.246   6.234 -0.5736 -0.5249 -0.2638
 1493SOL    HW116203   6.348   4.209   6.146 -1.8628 -0.6704 -0.0395
 1493SOL    HW216204   6.328   4.335   6.228 -0.9050 -0.6146  0.1200
 1494SOL     OW16205   4.831  10.219   4.894 -0.2329  0.0584 -0.1638
 1494SOL    HW116206   4.763  10.285   4.912  0.8915  1.3284 -0.3764
 1494SOL    HW216207   4.903  10.243   4.952  0.3954 -0.6877 -0.6185
 1495SOL     OW16208   7.868   3.205   2.614  0.4651  0.4616  0.0107
 1495SOL    HW116209   7.917   3.207   2.531  0.8521  0.8745  0.2469
 1495SOL    HW216210   7.829   3.118   2.616  0.0205  0.6250 -0.8586
 1496SOL     OW16211   3.306  11.348   1.202 -0.1330 -0.7153  0.4241
 1496SOL    HW116212   3.286  11.256   1.186  1.2072 -1.2760  1.6704
 1496SOL    HW216213   3.285  11.392   1.120 -2.5269 -1.8061  0.3856
 1497SOL     OW16214  11.549   0.306   9.608 -0.2333 -0.5772  0.6857
 1497SOL    HW116215  11.565   0.251   9.532 -0.3449 -0.3633  0.5059
 1497SOL    HW216216  11.635   0.342   9.630 -0.3962  0.3275 -0.0901
 1498SOL     OW16217   6.161   2.738   1.322 -0.1083 -0.2983  0.2159
 1498SOL    HW116218   6.108   2.692   1.387 -0.0745 -0.9285 -0.1974
 1498SOL    HW216219   6.244   2.691   1.321 -0.2574 -0.5538 -0.5861
 1499SOL     OW16220   8.152   5.276   0.420 -0.1387  0.1311  0.9288
 1499SOL    HW116221   8.102   5.340   0.470  0.7912  0.6851  1.1632
 1499SOL    HW216222   8.140   5.302   0.329  0.1792  0.6090  1.0190
 1500SOL     OW16223   9.061   1.611   8.636 -0.3815  0.1431  0.3523
 1500SOL    HW116224   9.141   1.589   8.589 -1.1644  0.3587 -1.1664
 1500SOL    HW216225   9.087   1.618   8.728  0.9052 -2.0062  0.2234
 1501SOL     OW16226   7.012   1.096  11.550  0.0255  0.2851  0.6345
 1501SOL    HW116227   6.992   1.168  11.610  1.6422  0.0215  1.5569
 1501SOL    HW216228   7.026   1.020  11.608 -0.9173 -0.6287 -0.2690
 1502SOL     OW16229   9.481   3.170   8.888 -0.0537  0.5806  0.3731
 1502SOL    HW116230   9.560   3.219   8.913 -0.7616  0.8555  2.2373
 1502SOL    HW216231   9.478   3.177   8.793  0.6605  2.9654  0.4513
 1503SOL     OW16232   3.435   5.341   8.621  0.2206  0.3781  0.1694
 1503SOL    HW116233   3.365   5.278   8.636  0.1436  0.6393  0.9332
 1503SOL    HW216234   3.433   5.398   8.698  1.0690  0.5737  0.0547
 1504SOL     OW16235   6.839  11.235   5.862  0.0417 -0.3573 -0.3229
 1504SOL    HW116236   6.783  11.309   5.885  2.5877  1.3531  0.7362
 1504SOL    HW216237   6.801  11.200   5.781 -3.6206 -0.5627  1.3048
 1505SOL     OW16238   7.696   0.873  10.920  0.0435  0.3277  0.0683
 1505SOL    HW116239   7.777   0.919  10.895  0.9647 -1.4006 -0.3141
 1505SOL    HW216240   7.628   0.939  10.913  1.0871  1.3039 -1.8504
 1506SOL     OW16241   4.348  11.740   6.481 -0.5495 -0.3328  0.1872
 1506SOL    HW116242   4.289  11.748   6.407 -0.4750  1.2264  0.2658
 1506SOL    HW216243   4.291  11.739   6.558 -0.5154  1.6266  0.2922
 1507SOL     OW16244   1.908   1.767   9.260 -0.3378 -0.0519  0.0963
 1507SOL    HW116245   1.902   1.813   9.344  0.3566 -0.6972  0.5083
 1507SOL    HW216246   1.839   1.807   9.206  1.1970  2.5758 -0.1138
 1508SOL     OW16247  10.285   2.901   8.070  0.1077 -0.2689 -0.2781
 1508SOL    HW116248  10.228   2.839   8.023  1.0138 -2.2735  1.1085
 1508SOL    HW216249  10.340   2.939   8.002 -1.1362 -0.2262 -1.3014
 1509SOL     OW16250   1.561   9.631  10.593 -0.0690  0.1025  0.3910
 1509SOL    HW116251   1.536   9.686  10.519 -0.3617 -0.5246  0.0123
 1509SOL    HW216252   1.542   9.542  10.564  0.1987 -0.1834  1.0700
 1510SOL     OW16253   5.387   9.577   4.773  0.4239  0.2530 -0.4401
 1510SOL    HW116254   5.428   9.514   4.714  2.4256  1.6954 -0.7234
 1510SOL    HW216255   5.459   9.607   4.829 -0.5396  1.9113 -0.0201
 1511SOL     OW16256  10.791  11.141  11.030  0.2688 -0.1399 -0.2402
 1511SOL    HW116257  10.697  11.127  11.033  0.2583 -0.1463  3.2427
 1511SOL    HW216258  10.801  11.236  11.033  0.3816 -0.1503 -0.2836
 1512SOL     OW16259   4.447   5.608   5.357  0.2767 -0.9656 -0.3660
 1512SOL    HW116260   4.371   5.573   5.403  2.3443 -0.6053  3.8917
 1512SOL    HW216261   4.422   5.696   5.332 -0.8629 -1.0238  0.4883
 1513SOL     OW16262   6.433   0.257   6.777 -0.1112 -0.4094 -0.0543
 1513SOL    HW116263   6.495   0.225   6.843 -0.0485 -1.5656 -0.6576
 1513SOL    HW216264   6.483   0.257   6.695 -0.4605  0.1439 -0.2733
 1514SOL     OW16265   5.352   5.695   0.106 -0.6977  0.1314  0.4884
 1514SOL    HW116266   5.422   5.749   0.069 -1.5515  0.4972 -0.6178
 1514SOL    HW216267   5.398   5.617   0.140  0.1913  0.0850 -0.7492
 1515SOL     OW16268   3.495   0.083   0.745 -0.0713 -0.0014  0.0727
 1515SOL    HW116269   3.427   0.015   0.746 -1.4759  1.2313 -2.2404
 1515SOL    HW216270   3.461   0.151   0.803 -0.3387  0.1697 -0.2783
 1516SOL     OW16271  10.192   1.545   7.511  0.1232 -0.3318 -0.1661
 1516SOL    HW116272  10.102   1.514   7.505 -0.1742  0.3335  0.6393
 1516SOL    HW216273  10.194   1.598   7.591  1.5499 -1.3900  0.5563
 1517SOL     OW16274   1.828   0.364   0.329 -0.5302 -0.2877  0.3412
 1517SOL    HW116275   1.820   0.337   0.420 -0.1851  1.3095  0.8897
 1517SOL    HW216276   1.742   0.398   0.306 -0.2180  0.7058  0.5839
 1518SOL     OW16277   9.208   5.178   6.436  0.5083 -0.2537  0.5979
 1518SOL    HW116278   9.132   5.168   6.493 -0.5006  0.1408 -0.6291
 1518SOL    HW216279   9.212   5.272   6.417 -0.4110 -0.5802 -1.5274
 1519SOL     OW16280   5.589  10.763   6.362 -0.2533 -0.2177  0.4848
 1519SOL    HW116281   5.562  10.703   6.432 -2.7135 -0.4763 -0.5752
 1519SOL    HW216282   5.651  10.713   6.310  0.4835 -0.5344  1.6170
 1520SOL     OW16283   3.414   4.366   1.419 -0.0702  0.2753  0.7161
 1520SOL    HW116284   3.457   4.450   1.400 -0.4979  0.8451  2.1622
 1520SOL    HW216285   3.361   4.348   1.341 -1.0699  2.0731  0.9241
 1521SOL     OW16286   3.961   9.551   1.661 -0.3866 -0.1606  0.0010
 1521SOL    HW116287   3.967   9.642   1.632 -0.2762 -0.0262  0.4331
 1521SOL    HW216288   3.968   9.556   1.757 -1.7925 -0.4985  0.1446
 1522SOL     OW16289   3.631   1.829   5.880 -0.0155  0.5919  0.7166
 1522SOL    HW116290   3.680   1.890   5.824  0.2392  0.1097  0.4117
 1522SOL    HW216291   3.649   1.743   5.843  0.2315  0.2549  1.6127
 1523SOL     OW16292   5.120   9.402   0.001 -0.0443 -0.4775  0.6274
 1523SOL    HW116293   5.196   9.444  -0.039  0.9523 -1.7253  1.1470
 1523SOL    HW216294   5.045   9.446  -0.038  0.9387  1.6665  1.0279
 1524SOL     OW16295  11.867   8.004   5.785  0.2537  0.2575  0.4676
 1524SOL    HW116296  11.834   8.090   5.761 -0.3935  0.2429  1.2404
 1524SOL    HW216297  11.919   7.976   5.710  0.6670  1.4141  0.2987
 1525SOL     OW16298   3.230   0.153   3.568 -0.0140  0.0936 -0.3918
 1525SOL    HW116299   3.180   0.100   3.630 -0.0004  0.6449  0.0928
 1525SOL    HW216300   3.250   0.092   3.496 -0.9179 -0.2754 -0.3460
 1526SOL     OW16301  10.194   8.917   6.897 -0.0580  0.2706  0.3796
 1526SOL    HW116302  10.103   8.917   6.868 -0.2353 -0.9782  0.8883
 1526SOL    HW216303  10.190   8.933   6.991  0.1939 -0.5517  0.5368
 1527SOL     OW16304   9.774   9.511   9.040  0.2766  0.2683  0.0931
 1527SOL    HW116305   9.744   9.437   9.093 -0.9569  0.4322 -0.3338
 1527SOL    HW216306   9.858   9.483   9.004 -0.9389 -1.6575 -1.4541
 1528SOL     OW16307  10.279   8.463   5.497 -0.4020 -0.4466 -0.3909
 1528SOL    HW116308  10.290   8.375   5.459 -1.5340  0.3024 -2.6798
 1528SOL    HW216309  10.313   8.456   5.586  0.1951 -3.0136 -0.7514
 1529SOL     OW16310  11.002   5.681  10.646  0.0828  0.5504 -0.2622
 1529SOL    HW116311  11.066   5.628  10.694  0.5801  1.2435 -0.1462
 1529SOL    HW216312  11.021   5.663  10.554 -0.6518 -0.5219 -0.2304
 1530SOL     OW16313   8.861   3.803   4.355  0.0110 -0.4250  0.5984
 1530SOL    HW116314   8.858   3.710   4.334  2.3117 -0.4056 -0.0108
 1530SOL    HW216315   8.934   3.837   4.304 -0.4459  1.6199  1.2270
 1531SOL     OW16316   1.431   8.627  11.338  0.2910 -1.1693 -0.3579
 1531SOL    HW116317   1.459   8.652  11.250  1.5931 -0.8190  0.1231
 1531SOL    HW216318   1.450   8.704  11.391 -1.3821 -1.0272  0.0761
 1532SOL     OW16319   0.206  10.494   5.286  0.3065 -0.3705  0.3105
 1532SOL    HW116320   0.147  10.564   5.260  0.0968 -1.0357 -1.0686
 1532SOL    HW216321   0.292  10.536   5.289  0.3861 -0.2881 -1.7377
 1533SOL     OW16322   5.690   6.359   4.004 -0.4335 -0.0628  0.2799
 1533SOL    HW116323   5.665   6.358   3.912 -1.5930  0.8478  0.5568
 1533SOL    HW216324   5.606   6.355   4.052  0.0702  0.6659  1.2685
 1534SOL     OW16325   9.935   8.867   9.137 -0.0341 -0.8281  0.3272
 1534SOL    HW116326   9.932   8.796   9.074  1.4403 -0.9736  0.3697
 1534SOL    HW216327  10.023   8.904   9.127 -1.2344  2.0178 -0.7964
 1535SOL     OW16328  10.334   3.758   5.330 -0.8572  0.5256  0.5835
 1535SOL    HW116329  10.321   3.703   5.408 -2.0304 -0.0110  0.0219
 1535SOL    HW216330  10.358   3.696   5.261 -0.8262  0.8870  0.2682
 1536SOL     OW16331  11.751   1.250   4.893 -0.1290 -0.2214  0.1958
 1536SOL    HW116332  11.804   1.326   4.870  0.9597 -0.7927  0.7272
 1536SOL    HW216333  11.669   1.262   4.846  0.1414  1.1294  0.0442
 1537SOL     OW16334   7.699   6.052   0.184  0.4884  0.1565 -0.5993
 1537SOL    HW116335   7.613   6.040   0.143 -0.1775  0.6118  0.6046
 1537SOL    HW216336   7.699   5.991   0.258  1.5606 -0.4613 -1.0912
 1538SOL     OW16337   8.959   1.097   9.018 -0.8363 -0.0285  0.0596
 1538SOL    HW116338   8.982   1.190   9.022  2.4910 -0.7487  2.0676
 1538SOL    HW216339   9.006   1.065   8.941  0.3664 -0.4885  0.9535
 1539SOL     OW16340   6.305   9.914   0.775 -0.5601 -0.3658 -0.1277
 1539SOL    HW116341   6.372   9.961   0.824 -0.9041  1.2442 -1.1407
 1539SOL    HW216342   6.342   9.827   0.762  1.4465  0.5480 -0.8553
 1540SOL     OW16343   8.411   2.537   0.208 -0.3668 -0.0733 -0.1960
 1540SOL    HW116344   8.413   2.510   0.116  0.3771 -0.3556 -0.1030
 1540SOL    HW216345   8.500   2.524   0.239 -0.8131 -0.8229  0.8169
 1541SOL     OW16346   0.365   1.023   6.399 -0.4131 -0.1897 -0.6898
 1541SOL    HW116347   0.386   0.992   6.487 -0.5924 -0.0983 -0.6153
 1541SOL    HW216348   0.423   0.972   6.342  0.0999  0.1467 -0.4765
 1542SOL     OW16349   8.083   8.313   2.442 -0.0143 -0.5129  0.3200
 1542SOL    HW116350   8.133   8.381   2.487 -0.0335 -0.7253  0.6649
 1542SOL    HW216351   8.037   8.360   2.373  1.9883 -0.5461 -1.1351
 1543SOL     OW16352  10.569   4.391   7.832 -0.3733 -0.0405  0.2900
 1543SOL    HW116353  10.567   4.317   7.893 -1.5666  0.0917  0.4306
 1543SOL    HW216354  10.491   4.442   7.854  0.6429  1.5147  0.5036
 1544SOL     OW16355   6.887   1.798   0.522  0.4820  0.1326  0.0699
 1544SOL    HW116356   6.854   1.785   0.434 -2.1102  1.8013  0.6684
 1544SOL    HW216357   6.971   1.842   0.511 -0.3244  1.3533 -1.6085
 1545SOL     OW16358   1.199   7.572   5.228 -0.0843  0.6110  0.7924
 1545SOL    HW116359   1.249   7.510   5.176 -1.5617 -0.3713  0.4860
 1545SOL    HW216360   1.230   7.560   5.318  0.6802  0.5000  0.5173
 1546SOL     OW16361   0.102   3.768   8.277 -0.3384  0.2110  0.2229
 1546SOL    HW116362   0.134   3.681   8.252 -3.7572 -1.3984  0.9317
 1546SOL    HW216363   0.094   3.764   8.372 -0.8036  1.2428  0.2387
 1547SOL     OW16364   2.380   2.689   7.120  0.4203 -0.3990 -0.2049
 1547SOL    HW116365   2.420   2.712   7.037 -1.2750 -1.0363 -1.2660
 1547SOL    HW216366   2.315   2.622   7.097  0.1942 -0.8959  1.6983
 1548SOL     OW16367   2.139   7.864   5.020  0.2325  0.2901 -0.2776
 1548SOL    HW116368   2.049   7.869   5.050  0.2232  0.7700 -0.3733
 1548SOL    HW216369   2.184   7.934   5.068  0.9903 -1.1615  1.2441
 1549SOL     OW16370   0.400  10.251   7.347 -0.1142 -0.0242  0.0247
 1549SOL    HW116371   0.467  10.290   7.291 -1.2825 -1.8229 -2.8532
 1549SOL    HW216372   0.424  10.279   7.436  2.5774  1.9703 -1.1716
 1550SOL     OW16373   3.627  11.056   0.672  0.2186  0.1515  0.1396
 1550SOL    HW116374   3.608  10.963   0.672  0.5588  0.0742 -0.4400
 1550SOL    HW216375   3.565  11.093   0.610 -2.6661  0.9416  3.2285
 1551SOL     OW16376   6.131   8.878   9.438 -0.3051  0.1151  0.0725
 1551SOL    HW116377   6.125   8.842   9.350  0.7629  0.3616 -0.1147
 1551SOL    HW216378   6.055   8.934   9.447 -1.2049 -1.0322 -0.1602
 1552SOL     OW16379   6.676   7.177  11.898 -0.0783  0.0934 -0.8203
 1552SOL    HW116380   6.678   7.108  11.831  0.6589  0.0284 -0.7315
 1552SOL    HW216381   6.601   7.232  11.872  0.5390  0.4044 -2.0363
 1553SOL     OW16382   7.611  11.586   3.626  0.5646  0.6123  0.4043
 1553SOL    HW116383   7.518  11.563   3.628  0.8107 -0.5162 -0.5454
 1553SOL    HW216384   7.657  11.502   3.631  1.5034  0.9674 -1.4710
 1554SOL     OW16385   9.522   5.444   8.796  0.1412 -0.2406 -0.4163
 1554SOL    HW116386   9.488   5.412   8.879 -1.3120  0.5968 -0.6338
 1554SOL    HW216387   9.590   5.506   8.819  0.1890 -0.4969  0.1306
 1555SOL     OW16388   1.508   1.825   2.183  0.2949  0.5860 -0.3882
 1555SOL    HW116389   1.415   1.849   2.185 -0.2326 -1.3427  1.5606
 1555SOL    HW216390   1.546   1.867   2.261  0.8391  0.5038 -0.6019
 1556SOL     OW16391   4.894  10.885   0.746 -0.0852 -0.2994  0.1488
 1556SOL    HW116392   4.805  10.873   0.781  0.3520 -0.5446  1.2190
 1556SOL    HW216393   4.951  10.849   0.813  0.8295 -0.2935 -0.6049
 1557SOL     OW16394   8.308   2.568  10.737 -0.2253  0.3883 -0.0556
 1557SOL    HW116395   8.402   2.551  10.749  0.0949  0.9011 -1.6997
 1557SOL    HW216396   8.279   2.502  10.675 -1.0526  0.0316  0.6780
 1558SOL     OW16397   0.745   1.233  11.035  0.1199 -0.1097  0.4892
 1558SOL    HW116398   0.806   1.295  10.996 -0.6014 -0.1600 -0.8040
 1558SOL    HW216399   0.675   1.287  11.072 -0.3058 -0.1122 -0.2819
 1559SOL     OW16400   8.631   5.472  11.848  1.0904 -0.6042 -0.4466
 1559SOL    HW116401   8.571   5.514  11.786 -0.7440 -2.7424 -0.2316
 1559SOL    HW216402   8.604   5.505  11.933  1.9074  0.3171 -0.5155
 1560SOL     OW16403   2.617   4.961  10.894 -0.2492  0.5757  0.3255
 1560SOL    HW116404   2.523   4.960  10.877 -0.2807 -1.8278  0.3165
 1560SOL    HW216405   2.629   4.902  10.968  1.1416  1.8550  1.1728
 1561SOL     OW16406   1.429   0.118  11.391  0.4269 -0.5058 -0.6808
 1561SOL    HW116407   1.401   0.194  11.442 -1.3470 -1.8745  0.4877
 1561SOL    HW216408   1.446   0.154  11.304  0.4403  1.3536  0.0252
 1562SOL     OW16409   2.339   3.071   2.265 -0.0357  0.1776  0.2854
 1562SOL    HW116410   2.266   3.057   2.205 -0.0763  0.2543  0.3171
 1562SOL    HW216411   2.393   2.992   2.256  0.8079  0.8740 -1.0360
 1563SOL     OW16412   8.215   6.019   2.075  0.4280  0.9258 -0.2730
 1563SOL    HW116413   8.277   5.963   2.122  2.4771 -1.2865 -4.9732
 1563SOL    HW216414   8.131   5.976   2.088  1.4431 -1.5375 -1.0882
 1564SOL     OW16415   8.297   3.897  11.186 -0.1943 -0.1918  0.1768
 1564SOL    HW116416   8.234   3.831  11.217 -0.0822 -0.2125  0.3606
 1564SOL    HW216417   8.309   3.956  11.261 -0.1722 -0.0547  0.0658
 1565SOL     OW16418   1.343   9.361   8.396 -0.0680 -0.1233 -0.2489
 1565SOL    HW116419   1.344   9.439   8.340  0.5926 -0.1278 -0.2530
 1565SOL    HW216420   1.297   9.388   8.475 -0.6857 -0.0076 -0.6449
 1566SOL     OW16421   3.056   4.709   6.264 -0.2950  0.3813 -0.1115
 1566SOL    HW116422   3.132   4.751   6.224 -0.1945  0.5492  0.2522
 1566SOL    HW216423   3.034   4.638   6.204 -0.6796  1.1627 -0.9176
 1567SOL     OW16424   6.022   2.889   0.663 -0.2249  0.2745  0.3900
 1567SOL    HW116425   5.934   2.926   0.654 -0.6674 -0.5693  1.1058
 1567SOL    HW216426   6.048   2.868   0.573 -0.0600  2.0307 -0.0096
 1568SOL     OW16427   6.062   4.099   5.851  0.2174  0.0475 -0.1054
 1568SOL    HW116428   5.987   4.156   5.836  0.2414 -0.0372 -0.5516
 1568SOL    HW216429   6.034   4.013   5.820 -0.0599 -0.3526  1.1913
 1569SOL     OW16430   7.599   7.575   2.567  0.1932  0.5188 -0.1658
 1569SOL    HW116431   7.619   7.663   2.598 -0.9529  1.3242 -1.6127
 1569SOL    HW216432   7.635   7.571   2.479 -0.7675 -0.0418 -0.5530
 1570SOL     OW16433   4.373   7.744  11.752  0.4189 -0.7264 -0.9366
 1570SOL    HW116434   4.392   7.793  11.832  0.3573 -1.1951 -0.6365
 1570SOL    HW216435   4.439   7.774  11.690  2.2930 -2.4727  0.1435
 1571SOL     OW16436   0.088   6.131  10.258 -0.4958 -0.5743 -0.0734
 1571SOL    HW116437   0.110   6.206  10.203  0.0803 -1.3191 -0.8826
 1571SOL    HW216438  -0.008   6.134  10.265 -0.4035  0.9881  1.0280
 1572SOL     OW16439   6.664  10.138   8.882 -0.1770 -0.1316  0.9835
 1572SOL    HW116440   6.749  10.115   8.845 -0.3762  0.1449  0.3538
 1572SOL    HW216441   6.612  10.058   8.873 -0.0903 -0.1965  1.0578
 1573SOL     OW16442   4.924   0.655   0.882  0.1615 -0.0274  0.2420
 1573SOL    HW116443   4.847   0.673   0.828 -0.4066  1.2088  1.3955
 1573SOL    HW216444   4.983   0.606   0.825 -1.5953 -1.2835 -0.5947
 1574SOL     OW16445   2.569  11.306   0.891 -0.0303  0.1739 -0.1465
 1574SOL    HW116446   2.519  11.356   0.954  1.1394  1.2547 -0.0428
 1574SOL    HW216447   2.504  11.277   0.827 -1.0358  0.0836  0.8828
 1575SOL     OW16448  11.366   6.273  11.049 -0.0390 -0.6022  0.0202
 1575SOL    HW116449  11.372   6.279  11.144 -0.8037 -0.5962  0.0679
 1575SOL    HW216450  11.328   6.356  11.021  1.9543  0.2035 -0.4716
 1576SOL     OW16451   9.119  10.227  10.450  0.2715 -0.2589  0.4262
 1576SOL    HW116452   9.087  10.137  10.440  1.0342 -0.4615 -0.2594
 1576SOL    HW216453   9.065  10.263  10.520 -0.2777 -1.1423  0.4808
 1577SOL     OW16454   2.831   9.614   9.177  0.3564  0.6874  0.3783
 1577SOL    HW116455   2.762   9.553   9.203  0.5309 -0.1013 -0.9691
 1577SOL    HW216456   2.816   9.629   9.084  0.7072  2.2187  0.5450
 1578SOL     OW16457   9.049   5.907  11.488 -0.2984 -0.4226 -0.8027
 1578SOL    HW116458   9.023   5.825  11.446 -1.2794 -0.4645 -0.1629
 1578SOL    HW216459   9.116   5.881  11.552  0.3395 -0.5229 -1.4953
 1579SOL     OW16460   2.601   9.265   7.501  0.2073 -0.0371 -0.0230
 1579SOL    HW116461   2.636   9.315   7.575  1.2054 -1.6993  0.6863
 1579SOL    HW216462   2.656   9.186   7.498 -1.5718 -1.3068 -0.7955
 1580SOL     OW16463  10.148   6.342   7.998 -0.2484 -0.0839 -0.3008
 1580SOL    HW116464  10.242   6.355   7.987  0.0787 -0.5704  1.5419
 1580SOL    HW216465  10.109   6.428   7.984  0.4588  0.0940 -1.1934
 1581SOL     OW16466   4.592  10.662   5.223 -0.2060 -0.0800 -0.3809
 1581SOL    HW116467   4.513  10.686   5.176 -1.8692  2.3996  3.2416
 1581SOL    HW216468   4.578  10.571   5.250 -1.4153  0.0498 -0.5453
 1582SOL     OW16469   4.391   4.088   6.845  0.1380  0.3629 -0.5682
 1582SOL    HW116470   4.316   4.030   6.832 -0.2421  0.2223  1.8862
 1582SOL    HW216471   4.354   4.169   6.880  1.0297  0.6583 -0.2722
 1583SOL     OW16472  11.742   2.184   8.969 -0.1075 -0.2164 -0.4409
 1583SOL    HW116473  11.710   2.275   8.969 -1.9978 -0.7674  1.8183
 1583SOL    HW216474  11.716   2.150   9.055  4.3569 -1.6626  0.5881
 1584SOL     OW16475   3.543   3.974  10.944 -0.0859  0.2212 -0.0555
 1584SOL    HW116476   3.457   3.932  10.939  0.1531 -0.1857 -0.8112
 1584SOL    HW216477   3.558   4.010  10.857  1.1780 -1.0826 -0.4255
 1585SOL     OW16478   5.339  10.433   3.889 -0.3194 -0.3903 -0.3276
 1585SOL    HW116479   5.375  10.353   3.928 -0.8948 -1.1372 -1.2735
 1585SOL    HW216480   5.246  10.412   3.874 -0.0220 -0.3293 -2.5445
 1586SOL     OW16481  10.067   6.058   2.440  0.3405  0.3658  0.0248
 1586SOL    HW116482  10.006   6.116   2.394 -0.5999 -0.2510  0.4456
 1586SOL    HW216483  10.047   5.971   2.406  1.0086  0.1523  0.1614
 1587SOL     OW16484   5.383   8.837  11.221 -0.5122 -0.0582  0.0661
 1587SOL    HW116485   5.388   8.882  11.136  1.2268  1.6038  0.9687
 1587SOL    HW216486   5.315   8.771  11.209 -0.5764  0.3676 -2.5035
 1588SOL     OW16487   0.653   5.966   4.189  0.5178 -0.1288  0.2977
 1588SOL    HW116488   0.580   5.909   4.165 -0.2397  0.8530  0.2096
 1588SOL    HW216489   0.706   5.913   4.248  0.9545 -1.6399 -1.3753
 1589SOL     OW16490  10.541   1.634   2.352 -0.4876 -0.3601  0.6410
 1589SOL    HW116491  10.459   1.649   2.306  0.0560 -0.4280 -0.3853
 1589SOL    HW216492  10.532   1.547   2.391 -1.0894 -0.1579  0.9523
 1590SOL     OW16493  10.886   6.308   1.046  0.1385  0.4196  0.1825
 1590SOL    HW116494  10.862   6.316   0.954  0.4826 -1.6141 -0.1391
 1590SOL    HW216495  10.826   6.241   1.080  1.0864 -0.0435  0.9922
 1591SOL     OW16496   4.156   9.289   4.555 -0.0302 -0.5864  0.1372
 1591SOL    HW116497   4.114   9.336   4.627  1.2486  0.3849  0.2864
 1591SOL    HW216498   4.115   9.324   4.476 -0.7438 -0.9475  0.3375
 1592SOL     OW16499   4.501   4.658   6.884 -0.2670  0.1166  0.0175
 1592SOL    HW116500   4.525   4.726   6.822  0.1496 -1.1847 -1.2965
 1592SOL    HW216501   4.468   4.586   6.830  1.4291 -1.6235  1.1217
 1593SOL     OW16502   8.256   8.086  10.509  0.2388  0.4314 -0.5189
 1593SOL    HW116503   8.316   8.042  10.449  0.9127 -2.1345  1.8261
 1593SOL    HW216504   8.313   8.137  10.566 -0.1603  0.7794 -0.4268
 1594SOL     OW16505   5.879   6.897   0.800  0.1364  0.2690  0.5214
 1594SOL    HW116506   5.927   6.893   0.717 -1.2525  1.0906 -0.3606
 1594SOL    HW216507   5.905   6.980   0.838  0.7941 -0.1200  0.9395
 1595SOL     OW16508   6.701   2.061  11.751  0.0814 -0.4742 -1.1281
 1595SOL    HW116509   6.735   2.119  11.819  0.2320 -1.1362 -0.6224
 1595SOL    HW216510   6.623   2.106  11.717  0.5678  0.3243 -1.2102
 1596SOL     OW16511   7.801   7.122  10.547 -0.8956 -0.1971 -0.2274
 1596SOL    HW116512   7.838   7.201  10.506 -1.0965 -1.0693 -2.1917
 1596SOL    HW216513   7.876   7.082  10.592 -1.0306  1.6703  1.8801
 1597SOL     OW16514   6.772   3.167   8.417  0.1502  0.6352  0.0076
 1597SOL    HW116515   6.800   3.237   8.476 -0.0730  1.0762 -0.4075
 1597SOL    HW216516   6.818   3.089   8.449  1.2970  1.1939 -0.2215
 1598SOL     OW16517   6.255   5.955  10.594  0.0828 -0.0759  0.4944
 1598SOL    HW116518   6.303   5.934  10.514 -1.1566 -2.3536  0.2685
 1598SOL    HW216519   6.277   5.883  10.655 -0.6968  0.4452  1.4226
 1599SOL     OW16520   8.698   7.087   5.566 -0.1316  0.0847 -0.2185
 1599SOL    HW116521   8.644   7.039   5.628  0.0532 -0.8595 -0.7674
 1599SOL    HW216522   8.659   7.069   5.481  0.8740 -0.4105 -0.5985
 1600SOL     OW16523   6.799   3.855   8.348  0.6615 -0.3478  1.0033
 1600SOL    HW116524   6.749   3.774   8.356  0.2364 -0.1760  0.1450
 1600SOL    HW216525   6.768   3.909   8.421 -0.7621 -0.0740  0.2495
 1601SOL     OW16526   0.041   2.401   1.673  0.2562 -0.1745 -0.2309
 1601SOL    HW116527   0.062   2.438   1.759  0.5499 -1.1380  0.1316
 1601SOL    HW216528   0.126   2.379   1.635  0.2120  1.4104 -1.3351
 1602SOL     OW16529   3.063   2.636  10.988  0.2455 -0.0573 -0.3892
 1602SOL    HW116530   3.048   2.590  10.905 -0.6752  1.6785 -1.2184
 1602SOL    HW216531   3.157   2.652  10.990  0.6171 -1.9730 -0.0336
 1603SOL     OW16532   4.072  11.819   0.097  0.3850  0.5235 -0.1012
 1603SOL    HW116533   4.134  11.871   0.046 -0.2193 -0.1619 -1.5852
 1603SOL    HW216534   4.069  11.862   0.183  2.1976  1.0984 -0.2944
 1604SOL     OW16535   5.117   2.527   1.357 -0.1237  0.2813  0.5677
 1604SOL    HW116536   5.066   2.523   1.276 -1.1953  0.5971  1.2126
 1604SOL    HW216537   5.054   2.510   1.427  0.5312  1.2866  1.4392
 1605SOL     OW16538  10.587   5.503   0.919  0.6894  0.1710 -0.0403
 1605SOL    HW116539  10.647   5.562   0.964 -0.7666  1.8233 -0.1634
 1605SOL    HW216540  10.538   5.560   0.859 -0.6153 -1.2044 -0.3419
 1606SOL     OW16541   5.851   1.587   3.182 -0.3910  0.6629 -0.1511
 1606SOL    HW116542   5.804   1.667   3.206  0.4423  0.7702  1.2254
 1606SOL    HW216543   5.786   1.517   3.188 -0.7548  1.0232  0.1508
 1607SOL     OW16544   7.994  10.174  11.517 -0.5390 -0.1746  0.5256
 1607SOL    HW116545   7.920  10.229  11.493 -0.8458 -0.5442  0.6285
 1607SOL    HW216546   7.964  10.085  11.502 -0.1154 -0.3261  0.5679
 1608SOL     OW16547   6.188   1.363   5.804 -0.7134 -0.4242  0.3783
 1608SOL    HW116548   6.263   1.313   5.771 -0.3254 -0.6639  1.5602
 1608SOL    HW216549   6.189   1.444   5.753  0.4817 -0.3337  0.5059
 1609SOL     OW16550   2.471   6.118  11.700 -0.1560 -0.2783  0.1956
 1609SOL    HW116551   2.509   6.067  11.628 -1.7645 -0.6410 -0.4329
 1609SOL    HW216552   2.432   6.194  11.657  2.6748  1.9099  1.1622
 1610SOL     OW16553   1.421   2.668   8.869 -0.2272 -0.2991  0.4943
 1610SOL    HW116554   1.341   2.632   8.830  1.0776  0.2675 -3.0630
 1610SOL    HW216555   1.413   2.763   8.857  0.6911 -0.1849  0.7068
 1611SOL     OW16556  11.864   5.159   0.498 -0.1561 -0.0121  0.2311
 1611SOL    HW116557  11.797   5.219   0.530  0.2710  0.4346  0.2970
 1611SOL    HW216558  11.851   5.157   0.403 -0.5705 -0.3086  0.2888
 1612SOL     OW16559  11.148  11.891   5.785 -0.1914 -0.0562  0.0440
 1612SOL    HW116560  11.080  11.935   5.733  0.9078  1.0149 -0.5215
 1612SOL    HW216561  11.100  11.854   5.859 -1.5463 -0.1904 -0.8551
 1613SOL     OW16562   1.805  11.664   9.982 -0.8345 -0.1489 -0.0296
 1613SOL    HW116563   1.757  11.597  10.030 -1.0473  0.3031  0.3971
 1613SOL    HW216564   1.896  11.653  10.011 -0.9159 -0.0675  0.2627
 1614SOL     OW16565   4.336   5.008   4.610 -0.3514 -0.3606  0.3908
 1614SOL    HW116566   4.244   5.004   4.586 -0.3204 -0.3955  0.2791
 1614SOL    HW216567   4.349   4.933   4.668 -0.4127 -0.3078  0.4744
 1615SOL     OW16568   7.129   2.527   1.240  0.1633 -0.2884 -0.0119
 1615SOL    HW116569   7.073   2.514   1.164 -0.1294 -1.4836  0.3835
 1615SOL    HW216570   7.206   2.474   1.222  0.3270 -0.1578  0.2954
 1616SOL     OW16571   9.666   4.922  11.185  0.3386 -0.2040  0.5488
 1616SOL    HW116572   9.621   4.962  11.110  1.5302  1.9686  0.9043
 1616SOL    HW216573   9.609   4.850  11.212 -1.4285  0.6127 -0.8200
 1617SOL     OW16574   9.181   3.326  11.565  0.7465  0.6332 -0.1136
 1617SOL    HW116575   9.212   3.349  11.653  1.5164  0.9991 -0.4686
 1617SOL    HW216576   9.089   3.349  11.566  0.4772 -0.3884  0.9445
 1618SOL     OW16577   9.722   5.959   9.494  0.0824  0.1332 -0.7421
 1618SOL    HW116578   9.738   5.955   9.588 -1.5427  0.1036 -0.4330
 1618SOL    HW216579   9.719   6.053   9.474  2.2046  0.1770 -1.1505
 1619SOL     OW16580  10.586  10.288  10.288 -0.5732  0.2928  0.1353
 1619SOL    HW116581  10.660  10.267  10.231  0.5859  1.3415  1.1945
 1619SOL    HW216582  10.595  10.226  10.361  0.5506  1.7721  1.3141
 1620SOL     OW16583   2.532   4.737   3.045  0.2588 -0.2459 -0.1560
 1620SOL    HW116584   2.458   4.797   3.049 -0.7638 -1.3933 -0.9356
 1620SOL    HW216585   2.607   4.789   3.072 -0.8910  0.8417  1.0858
 1621SOL     OW16586   1.398   5.076   7.913  0.2369  0.2042  0.1835
 1621SOL    HW116587   1.364   5.152   7.867  0.4182  0.2397  0.1074
 1621SOL    HW216588   1.358   5.080   8.000  0.2091  0.3590  0.1635
 1622SOL     OW16589   3.661  10.553   4.060  0.1170  0.5098  0.5591
 1622SOL    HW116590   3.709  10.492   4.116  2.6160 -0.2553 -2.1332
 1622SOL    HW216591   3.729  10.609   4.022 -1.6294  2.0779 -0.4340
 1623SOL     OW16592  11.065   9.781   9.572  0.5370 -0.0830  0.0584
 1623SOL    HW116593  11.015   9.863   9.568 -0.2027 -0.5749 -1.8411
 1623SOL    HW216594  11.126   9.794   9.645 -0.1854  1.7830  0.3994
 1624SOL     OW16595   6.194   6.472   8.978 -0.4172  0.3821 -0.1783
 1624SOL    HW116596   6.250   6.398   8.956  0.1471  0.7298  0.0586
 1624SOL    HW216597   6.240   6.517   9.049  0.0294  1.8527 -1.3434
 1625SOL     OW16598   7.650   5.736   0.252 -0.2839  0.0081 -0.1983
 1625SOL    HW116599   7.721   5.676   0.228 -0.9392 -0.3189 -1.4007
 1625SOL    HW216600   7.571   5.683   0.244 -0.8701  1.0108 -1.2273
 1626SOL     OW16601   5.365   4.447   5.273  0.0869  0.1722  0.5164
 1626SOL    HW116602   5.371   4.361   5.230  0.7228  0.2649  0.4126
 1626SOL    HW216603   5.272   4.458   5.291 -0.3609  0.5472 -1.7039
 1627SOL     OW16604   9.977   1.298   1.954  0.0694  0.3766 -0.0952
 1627SOL    HW116605   9.989   1.204   1.942 -2.6923  0.0097 -0.8032
 1627SOL    HW216606   9.905   1.306   2.016  0.3544  2.0345  0.0837
 1628SOL     OW16607   0.713  10.316   5.581 -0.1440  0.0287 -0.9437
 1628SOL    HW116608   0.747  10.226   5.585 -0.2058  0.0325 -0.1057
 1628SOL    HW216609   0.622  10.309   5.609  0.5498  0.6753  1.7234
 1629SOL     OW16610   3.116   7.155   3.031  0.1762  0.0064  0.8171
 1629SOL    HW116611   3.193   7.152   3.088  1.4737  1.1284 -0.7425
 1629SOL    HW216612   3.122   7.076   2.978 -0.8128 -0.8417  1.9425
 1630SOL     OW16613   2.874   4.391   7.821  0.3573 -0.3124  0.3306
 1630SOL    HW116614   2.877   4.449   7.897 -1.3213  0.7685 -0.3750
 1630SOL    HW216615   2.865   4.303   7.859  2.1852 -0.1012  1.3908
 1631SOL     OW16616   2.546   6.735   8.221  0.2229  0.2318  0.1836
 1631SOL    HW116617   2.591   6.677   8.159 -0.2770 -0.8882  0.8286
 1631SOL    HW216618   2.536   6.682   8.299  1.2016  1.7568  1.3976
 1632SOL     OW16619   8.268   3.111   7.916 -0.1019  0.0672 -0.4496
 1632SOL    HW116620   8.298   3.197   7.945  0.0735  0.2927 -1.2645
 1632SOL    HW216621   8.177   3.107   7.944 -0.6281  1.2262 -1.8438
 1633SOL     OW16622   3.999   3.346   6.905  0.3306  0.2769 -0.1461
 1633SOL    HW116623   4.006   3.436   6.872  0.0720  0.3888  0.1034
 1633SOL    HW216624   4.087   3.324   6.934  1.0016 -0.4465 -2.4994
 1634SOL     OW16625   3.333   6.650   7.471 -0.3144  0.3987  0.0821
 1634SOL    HW116626   3.408   6.618   7.421 -1.3798 -1.3792 -0.4442
 1634SOL    HW216627   3.367   6.728   7.517  1.4090  0.5429 -1.3168
 1635SOL     OW16628   6.677   4.685  11.921  0.1298  0.2199  0.4015
 1635SOL    HW116629   6.623   4.738  11.862  0.1615 -0.2883 -0.0953
 1635SOL    HW216630   6.706   4.747  11.988 -0.4240  0.6720  0.2381
 1636SOL     OW16631   3.243   4.991   0.874 -0.0497 -0.3865  0.2629
 1636SOL    HW116632   3.282   5.051   0.937 -2.0198 -0.2836  1.4965
 1636SOL    HW216633   3.313   4.929   0.852  1.3011  0.8739  0.8502
 1637SOL     OW16634   2.833   2.374   7.273  0.1264 -0.0670  0.2579
 1637SOL    HW116635   2.789   2.312   7.331 -0.6270 -0.3097 -0.5623
 1637SOL    HW216636   2.766   2.437   7.249  0.0321 -0.7854 -1.4950
 1638SOL     OW16637   8.556  11.491   6.697  0.3160  0.0483  0.2334
 1638SOL    HW116638   8.609  11.419   6.732 -1.0896 -2.0275 -1.6677
 1638SOL    HW216639   8.574  11.491   6.603  0.4340  2.4042  0.1805
 1639SOL     OW16640   1.547   4.276   2.320  0.9971  0.5788 -0.2032
 1639SOL    HW116641   1.575   4.189   2.289 -0.4297 -0.3669  1.0193
 1639SOL    HW216642   1.562   4.274   2.414  0.4382  1.4596 -0.0858
 1640SOL     OW16643   6.672   0.593   5.308  0.2861 -0.5120 -0.0195
 1640SOL    HW116644   6.687   0.503   5.279 -0.4840 -0.2518 -1.3071
 1640SOL    HW216645   6.647   0.639   5.229 -2.3781  0.1671  1.1270
 1641SOL     OW16646   1.466   6.116   3.730  0.4409  0.0466  0.3906
 1641SOL    HW116647   1.560   6.132   3.726  0.7050 -1.0753  1.4094
 1641SOL    HW216648   1.439   6.107   3.639  1.4254 -0.1902  0.1153
 1642SOL     OW16649   0.025  11.514   7.924  0.3165 -0.0198  0.1761
 1642SOL    HW116650   0.110  11.545   7.955  0.0755  1.5273 -0.6321
 1642SOL    HW216651  -0.003  11.578   7.859 -0.3492 -1.7965 -1.4119
 1643SOL     OW16652  11.715   4.641   5.982  0.3392  0.4043  0.2044
 1643SOL    HW116653  11.708   4.547   5.965 -0.5983  0.5312 -0.1658
 1643SOL    HW216654  11.730   4.679   5.895 -0.6987  0.7193  0.1544
 1644SOL     OW16655   8.823   5.666   1.419 -0.6305 -0.0181 -0.1333
 1644SOL    HW116656   8.905   5.709   1.443 -1.1595  1.0066 -0.1057
 1644SOL    HW216657   8.779   5.650   1.502 -0.5574 -0.3683 -0.1614
 1645SOL     OW16658   5.894   2.912   3.156 -0.0586 -0.3664  0.5493
 1645SOL    HW116659   5.929   2.897   3.068  0.5793 -1.0466  0.9040
 1645SOL    HW216660   5.803   2.885   3.151  0.6648 -3.1323  0.7748
 1646SOL     OW16661   2.153   5.488   2.540 -0.5687  0.4051 -0.4293
 1646SOL    HW116662   2.202   5.427   2.595 -0.4837  1.0812  0.2610
 1646SOL    HW216663   2.061   5.465   2.555 -0.5196  0.1440 -0.5288
 1647SOL     OW16664   9.456   4.442  11.565  0.3371 -0.2481 -0.4894
 1647SOL    HW116665   9.543   4.404  11.579  0.1591  0.1073  2.0338
 1647SOL    HW216666   9.451   4.456  11.470  2.2987 -1.9415 -0.9169
 1648SOL     OW16667   6.407   9.823   8.441 -0.2940  0.3385 -0.1725
 1648SOL    HW116668   6.379   9.888   8.506 -0.6728 -1.3597  1.4465
 1648SOL    HW216669   6.329   9.768   8.428  0.4552 -0.7042 -0.3301
 1649SOL     OW16670  10.528   2.546  11.618 -0.1336 -0.6480 -0.1423
 1649SOL    HW116671  10.518   2.625  11.564  2.3701 -0.3774 -0.3583
 1649SOL    HW216672  10.448   2.542  11.670 -0.0278  2.5229  0.4888
 1650SOL     OW16673   9.271   0.265   4.153 -0.2741  0.6265 -0.2182
 1650SOL    HW116674   9.232   0.178   4.147 -0.0544  0.6302 -2.2164
 1650SOL    HW216675   9.355   0.250   4.198 -1.8982  0.4503  3.0009
 1651SOL     OW16676   1.121   2.558   9.660 -0.0892 -0.2868  0.1684
 1651SOL    HW116677   1.052   2.532   9.720 -0.8616  2.9350  0.8835
 1651SOL    HW216678   1.077   2.615   9.597  1.7840  1.5379  0.4041
 1652SOL     OW16679   9.632   0.623  10.086  0.2862 -0.1798  0.0320
 1652SOL    HW116680   9.651   0.717  10.088  1.1266 -0.3419  0.0846
 1652SOL    HW216681   9.682   0.587  10.159 -0.2328 -0.6359  0.1659
 1653SOL     OW16682  11.122  11.361   6.319  0.0356  0.1021 -0.0994
 1653SOL    HW116683  11.099  11.313   6.239  1.4901  2.1827 -1.8908
 1653SOL    HW216684  11.069  11.441   6.316 -0.6683 -0.2522  1.6216
 1654SOL     OW16685   0.410   9.218   6.528 -0.1820  0.0145 -0.1014
 1654SOL    HW116686   0.356   9.178   6.460  0.6696 -0.6074 -0.4285
 1654SOL    HW216687   0.365   9.196   6.610 -0.5773 -0.2538 -0.3856
 1655SOL     OW16688   2.461  11.028   8.009  0.9535 -0.0328 -0.0949
 1655SOL    HW116689   2.416  10.953   7.969  0.4476  0.7278 -1.0034
 1655SOL    HW216690   2.391  11.087   8.035  1.3812  0.6536 -0.4705
 1656SOL     OW16691   5.043  11.133   4.059  0.7437  0.1114  0.0709
 1656SOL    HW116692   5.105  11.123   3.986 -0.4393  0.0146 -0.9513
 1656SOL    HW216693   4.957  11.129   4.018  0.0528  1.0509  1.3629
 1657SOL     OW16694   4.496   5.509   9.091  0.1960  0.0794 -0.0350
 1657SOL    HW116695   4.491   5.603   9.077 -0.4003 -0.1051 -1.1858
 1657SOL    HW216696   4.485   5.471   9.004  0.2710 -1.0579  0.4339
 1658SOL     OW16697   1.815   8.665  11.431  0.0648  1.4156  0.6229
 1658SOL    HW116698   1.797   8.759  11.438 -1.8961  1.0989  0.4202
 1658SOL    HW216699   1.771   8.626  11.507 -1.1195  0.4617 -0.4894
 1659SOL     OW16700   6.582   2.358   3.164  0.3311  0.3703 -0.1541
 1659SOL    HW116701   6.576   2.449   3.133 -0.1313  0.6874  0.8202
 1659SOL    HW216702   6.510   2.350   3.227  0.2771 -0.7262 -0.3481
 1660SOL     OW16703   4.484   9.911   2.975  0.2424 -0.2534  0.1572
 1660SOL    HW116704   4.519   9.868   2.896  0.9267 -2.0055  1.3412
 1660SOL    HW216705   4.389   9.913   2.961  0.4963  1.9398 -1.8487
 1661SOL     OW16706   8.197  10.707   9.521  0.8413 -0.6627  0.1524
 1661SOL    HW116707   8.121  10.703   9.463  0.9317  3.1170 -0.4821
 1661SOL    HW216708   8.166  10.670   9.604 -2.0174  1.4214  0.1661
 1662SOL     OW16709   7.377   5.185   2.284  0.3721 -0.3947 -0.1126
 1662SOL    HW116710   7.324   5.119   2.329 -0.2840 -0.6490 -1.2424
 1662SOL    HW216711   7.323   5.264   2.285  0.8088 -0.0952  0.4912
 1663SOL     OW16712   1.620   2.950   8.602 -0.1277  0.2767  1.1142
 1663SOL    HW116713   1.557   3.022   8.592  0.7645  1.2488  2.1561
 1663SOL    HW216714   1.581   2.893   8.668 -1.3882 -0.8766 -0.5386
 1664SOL     OW16715   6.311   9.642   2.741 -0.1047  0.3328 -0.5737
 1664SOL    HW116716   6.241   9.578   2.753 -1.2155  1.8403  1.9410
 1664SOL    HW216717   6.391   9.595   2.764 -0.9449 -0.1510  1.6683
 1665SOL     OW16718   6.611   0.775   9.961  0.2441  0.3944 -0.2995
 1665SOL    HW116719   6.524   0.751   9.992 -0.0155  2.3161  0.5706
 1665SOL    HW216720   6.599   0.793   9.867 -0.2701  0.5326 -0.2069
 1666SOL     OW16721   3.294  11.496   9.248  0.0032  0.5564 -0.0823
 1666SOL    HW116722   3.371  11.459   9.291  0.6361 -0.7467 -2.1899
 1666SOL    HW216723   3.311  11.590   9.242  0.6517  0.5136  0.9285
 1667SOL     OW16724  10.307   7.709  10.630  0.4283 -0.9101  0.5258
 1667SOL    HW116725  10.354   7.640  10.678  0.5473 -0.6963  0.7156
 1667SOL    HW216726  10.375   7.767  10.597  0.4472 -1.7797 -1.0509
 1668SOL     OW16727   4.767   9.090   6.690  0.3499  0.5162  0.5442
 1668SOL    HW116728   4.771   9.185   6.695  1.6869  0.5952 -1.1536
 1668SOL    HW216729   4.840   9.065   6.634  0.9884 -1.6539  2.2003
 1669SOL     OW16730   0.593   3.211   9.117  0.1823 -0.2311  0.7112
 1669SOL    HW116731   0.649   3.219   9.194 -0.4659 -0.1904  1.1795
 1669SOL    HW216732   0.522   3.154   9.145  0.6923 -1.3956 -0.2847
 1670SOL     OW16733   6.544   2.743   7.511 -0.8706  0.0088  0.1142
 1670SOL    HW116734   6.489   2.752   7.589 -0.5076  1.4294  0.2316
 1670SOL    HW216735   6.613   2.809   7.523 -0.0452 -0.6802 -0.7730
 1671SOL     OW16736   7.192   2.335   3.509  0.5822  0.3532 -0.2943
 1671SOL    HW116737   7.205   2.254   3.460 -0.8291  1.1261 -2.0920
 1671SOL    HW216738   7.194   2.403   3.442 -0.8784  1.5266  0.7942
 1672SOL     OW16739   6.944  11.001   5.918  0.2217 -0.5024 -0.2251
 1672SOL    HW116740   6.885  11.076   5.904  1.9373  0.7099 -1.3408
 1672SOL    HW216741   6.959  10.966   5.830 -0.8931 -2.4854  0.3232
 1673SOL     OW16742   8.283   5.866   6.942 -0.1678  0.0468  0.7168
 1673SOL    HW116743   8.303   5.827   6.857 -1.0790 -0.7159  0.8286
 1673SOL    HW216744   8.368   5.891   6.978  0.2949 -0.3184 -0.0958
 1674SOL     OW16745  11.034   1.826   8.674 -0.0212 -0.7074 -0.1522
 1674SOL    HW116746  10.981   1.905   8.682 -0.3005 -0.9406  0.3457
 1674SOL    HW216747  10.974   1.760   8.640  0.3559 -0.5631 -1.1238
 1675SOL     OW16748  10.195   5.086   7.033 -0.0566  0.1628 -0.3927
 1675SOL    HW116749  10.269   5.101   6.974  0.2064  1.3664  0.2148
 1675SOL    HW216750  10.135   5.158   7.015  0.8740  1.6728  2.0711
 1676SOL     OW16751   5.178   6.595   9.132 -0.1585  0.2099  0.2662
 1676SOL    HW116752   5.142   6.569   9.216 -0.2487 -0.4838  0.0220
 1676SOL    HW216753   5.273   6.585   9.141 -0.1246  0.6641  0.4541
 1677SOL     OW16754   7.078   9.118   4.857  0.4830 -0.0997  0.2482
 1677SOL    HW116755   7.055   9.210   4.872  0.2892 -0.1468  0.2410
 1677SOL    HW216756   7.052   9.101   4.767  1.6409  0.1785 -0.1505
 1678SOL     OW16757   6.992  10.531   5.365 -0.5144  0.3617 -0.2880
 1678SOL    HW116758   7.042  10.501   5.441 -1.8008 -0.8745  0.1018
 1678SOL    HW216759   6.969  10.451   5.318 -0.5829  1.0448 -1.4693
 1679SOL     OW16760   7.684   2.031   5.649  0.2698  0.0345  0.0363
 1679SOL    HW116761   7.642   1.945   5.647 -0.0051  0.0893  1.8450
 1679SOL    HW216762   7.768   2.016   5.694 -0.4052  0.9163  1.6802
 1680SOL     OW16763   9.503   4.819   2.353 -0.1119  0.0913 -0.4897
 1680SOL    HW116764   9.496   4.745   2.293  1.9050 -0.2920 -0.3222
 1680SOL    HW216765   9.419   4.864   2.346 -1.4567 -2.2920 -0.4617
 1681SOL     OW16766   6.329   7.493   4.974  0.6821  0.1819 -0.5970
 1681SOL    HW116767   6.281   7.567   5.010  0.2998  0.1754 -1.0790
 1681SOL    HW216768   6.374   7.528   4.897 -0.4774 -0.3441 -1.5500
 1682SOL     OW16769   0.514   7.529   3.672  0.2043  0.0847 -0.0075
 1682SOL    HW116770   0.433   7.519   3.722  0.1477  0.0205 -0.1118
 1682SOL    HW216771   0.544   7.440   3.656  1.2353  0.1057  1.5374
 1683SOL     OW16772   9.902   6.218   2.292  0.0577  0.1124 -0.1279
 1683SOL    HW116773   9.858   6.283   2.346 -0.8328 -0.7085  0.1559
 1683SOL    HW216774   9.930   6.267   2.214 -2.2518  0.5010 -0.8011
 1684SOL     OW16775   5.220  11.330   2.434 -0.0147 -0.1135  0.0790
 1684SOL    HW116776   5.299  11.295   2.390 -0.8296 -2.6139  0.4333
 1684SOL    HW216777   5.155  11.261   2.423 -2.7782  2.5145 -1.6437
 1685SOL     OW16778   3.062   3.166   5.577  0.0354  0.8495 -0.1218
 1685SOL    HW116779   3.115   3.157   5.656 -0.3537 -0.3974  0.0062
 1685SOL    HW216780   3.098   3.103   5.515 -1.9058 -0.8287  0.3322
 1686SOL     OW16781   5.753   7.303  11.570 -0.0807  0.2847 -0.6196
 1686SOL    HW116782   5.799   7.383  11.595 -0.5822  0.3549  0.1314
 1686SOL    HW216783   5.680   7.333  11.515 -0.1929  0.3373 -0.4442
 1687SOL     OW16784   4.604   8.446   6.984  0.4115 -0.1040  0.0089
 1687SOL    HW116785   4.582   8.508   7.054 -0.5331  1.4876 -1.6215
 1687SOL    HW216786   4.680   8.484   6.941 -0.0572 -0.1632 -0.8924
 1688SOL     OW16787   1.447   3.684   0.088 -0.4082 -0.2979 -0.3451
 1688SOL    HW116788   1.436   3.776   0.067 -0.3335 -0.2083 -0.0033
 1688SOL    HW216789   1.517   3.682   0.153  0.1023 -0.6633 -0.8931
 1689SOL     OW16790   1.823   5.121   8.836 -0.1570 -0.2091 -0.1966
 1689SOL    HW116791   1.730   5.099   8.830  0.0356 -1.1761  0.3101
 1689SOL    HW216792   1.830   5.175   8.915 -0.4381  0.7713 -0.8114
 1690SOL     OW16793  10.768   3.472   9.385  0.4934  0.6339  0.5659
 1690SOL    HW116794  10.746   3.565   9.378 -2.1849  0.0498  0.3133
 1690SOL    HW216795  10.715   3.430   9.318  0.4393 -1.2443  1.7302
 1691SOL     OW16796   7.363   5.749   8.399  0.1170  0.3589 -0.1884
 1691SOL    HW116797   7.295   5.727   8.335 -0.9701 -0.1162  1.1079
 1691SOL    HW216798   7.333   5.831   8.438  0.2788  0.1227  0.4283
 1692SOL     OW16799   2.353   6.981   2.702 -0.7161 -0.5995 -0.2377
 1692SOL    HW116800   2.436   7.003   2.659 -0.6494  0.0992  0.2494
 1692SOL    HW216801   2.289   6.982   2.631 -0.1642 -2.0727 -0.7913
 1693SOL     OW16802   4.645   7.758  10.555 -0.0294 -0.1414 -0.2532
 1693SOL    HW116803   4.562   7.728  10.517  0.7744 -0.6423 -1.6777
 1693SOL    HW216804   4.705   7.685  10.541  0.6199  0.1405  0.9488
 1694SOL     OW16805  11.144   8.586  11.072  0.1955 -0.8819 -0.6629
 1694SOL    HW116806  11.118   8.664  11.122 -2.3355 -2.4060  0.6196
 1694SOL    HW216807  11.220   8.615  11.021  2.8670  0.9936  3.7030
 1695SOL     OW16808   8.311   3.697   4.844 -0.2681 -0.1268  0.0376
 1695SOL    HW116809   8.397   3.687   4.884 -0.5290 -0.1009  0.6168
 1695SOL    HW216810   8.325   3.675   4.752  0.6243  1.1045 -0.1490
 1696SOL     OW16811  10.682  11.227   4.027 -0.3462  0.0072 -0.0608
 1696SOL    HW116812  10.700  11.134   4.033 -0.3245  0.0511  0.6693
 1696SOL    HW216813  10.768  11.269   4.041 -0.2795  0.1304 -0.8059
 1697SOL     OW16814   4.905   8.714   2.449  0.5104 -0.4776  0.1979
 1697SOL    HW116815   4.868   8.651   2.511 -1.7709  0.3131 -0.2894
 1697SOL    HW216816   4.924   8.791   2.502 -0.8933 -0.0133  0.0727
 1698SOL     OW16817  10.750   9.161   6.706  0.6615  0.1807 -0.5339
 1698SOL    HW116818  10.655   9.172   6.697  0.5532  0.1817  0.4836
 1698SOL    HW216819  10.784   9.251   6.709  0.3704  0.2808  1.9782
 1699SOL     OW16820  11.845  10.985   5.869 -0.1091 -0.5184 -0.2707
 1699SOL    HW116821  11.879  11.002   5.957  1.7858 -1.7482 -0.6885
 1699SOL    HW216822  11.923  10.986   5.813 -0.7399 -3.3719 -1.3468
 1700SOL     OW16823   4.589   6.150   4.172  0.4337 -0.9282 -0.3057
 1700SOL    HW116824   4.580   6.070   4.223  0.7654  0.0360  1.3659
 1700SOL    HW216825   4.582   6.220   4.237  1.8487  0.3457 -1.4496
 1701SOL     OW16826   8.837   1.524  11.761 -0.2506 -0.6385 -0.4098
 1701SOL    HW116827   8.836   1.431  11.741 -1.7898 -0.2300 -2.5180
 1701SOL    HW216828   8.919   1.556  11.722 -0.6039 -0.8097 -1.3115
 1702SOL     OW16829   6.507   5.800   4.398 -0.1414 -0.2081 -0.5323
 1702SOL    HW116830   6.591   5.757   4.414 -0.3438 -0.7349 -0.8529
 1702SOL    HW216831   6.526   5.867   4.333  0.1549  0.1128 -0.1170
 1703SOL     OW16832  11.214   2.577   4.597 -0.3518  0.1679 -0.6915
 1703SOL    HW116833  11.304   2.568   4.567 -1.0351 -1.4871 -2.4523
 1703SOL    HW216834  11.202   2.507   4.661 -0.1073  1.1030  0.4223
 1704SOL     OW16835  10.711  10.966   7.058 -0.0582  0.3461 -0.1345
 1704SOL    HW116836  10.648  10.920   7.113  2.1814 -3.1201 -0.1589
 1704SOL    HW216837  10.785  10.984   7.116  0.3658  1.1712 -0.9007
 1705SOL     OW16838   1.716  11.522  10.701 -0.2330  0.2229  0.3901
 1705SOL    HW116839   1.622  11.510  10.708 -0.1436 -0.7808  0.0125
 1705SOL    HW216840   1.727  11.614  10.677 -1.2282 -0.0721 -1.3978
 1706SOL     OW16841   3.092   5.171   1.923  0.0201  0.2188 -0.1354
 1706SOL    HW116842   3.107   5.131   2.009  1.7552  1.8899  0.4023
 1706SOL    HW216843   3.150   5.247   1.921 -0.8512  0.9112 -2.3415
 1707SOL     OW16844   3.338   4.979  10.419  0.3801  0.4253 -0.3950
 1707SOL    HW116845   3.427   5.006  10.399  0.7213  1.1823  1.9608
 1707SOL    HW216846   3.348   4.906  10.480 -0.6264 -1.6066 -2.4961
 1708SOL     OW16847   2.017   7.330   2.060 -0.6552 -0.3781 -0.2130
 1708SOL    HW116848   2.096   7.383   2.045  1.2675 -2.9844 -0.0562
 1708SOL    HW216849   1.946   7.393   2.064  1.2043  2.0046 -1.8626
 1709SOL     OW16850   8.430   4.615   0.965  0.1285 -0.7789 -0.4667
 1709SOL    HW116851   8.415   4.540   0.908  0.0689 -1.2290  0.1282
 1709SOL    HW216852   8.460   4.576   1.047  1.5136 -0.0842 -0.6080
 1710SOL     OW16853   1.700   4.440   6.806  0.1021  0.0746 -0.4039
 1710SOL    HW116854   1.664   4.389   6.879 -0.0936  0.1406 -0.4545
 1710SOL    HW216855   1.652   4.409   6.730 -0.6728  0.9971 -0.2991
 1711SOL     OW16856   5.523   0.718   8.364 -0.4751  0.9682  0.0858
 1711SOL    HW116857   5.432   0.748   8.365 -0.1493  2.1775  2.5029
 1711SOL    HW216858   5.525   0.648   8.429  0.7421  2.7115  2.0661
 1712SOL     OW16859   4.558   0.771   3.965 -0.3522  0.0417 -0.2443
 1712SOL    HW116860   4.641   0.769   3.918  0.1312 -0.8688  0.6029
 1712SOL    HW216861   4.499   0.821   3.909  0.0518 -1.3954 -2.0328
 1713SOL     OW16862   2.190   9.603   9.422 -0.2503 -0.5009  0.3738
 1713SOL    HW116863   2.095   9.612   9.429 -0.2495 -1.4344  2.0345
 1713SOL    HW216864   2.205   9.508   9.426  0.6706 -0.5011 -1.6546
 1714SOL     OW16865   1.998  10.302  10.304 -0.5179 -0.6867 -0.2852
 1714SOL    HW116866   1.920  10.303  10.359 -0.3936 -1.6282 -0.0778
 1714SOL    HW216867   1.965  10.314  10.215 -0.8302 -0.3579 -0.1248
 1715SOL     OW16868   2.016  10.068  11.185 -0.5624  0.4381 -0.1031
 1715SOL    HW116869   1.958  10.018  11.128 -0.3351  0.7071 -0.5780
 1715SOL    HW216870   1.995  10.159  11.166  0.5174  0.5481 -0.8097
 1716SOL     OW16871   6.511  11.695   7.801  0.2913  0.1845 -0.8405
 1716SOL    HW116872   6.590  11.723   7.755  2.5948 -2.5566  1.0948
 1716SOL    HW216873   6.524  11.724   7.891 -0.9546 -0.2700 -0.4862
 1717SOL     OW16874   7.789   8.040   6.990 -0.1479  0.2957  0.3721
 1717SOL    HW116875   7.752   7.987   7.060 -0.0307  1.4213  1.3303
 1717SOL    HW216876   7.883   8.023   6.993 -0.3794 -1.6623 -1.2885
 1718SOL     OW16877   8.320   4.996   0.595  0.1669 -0.2881  0.0169
 1718SOL    HW116878   8.294   4.959   0.511  1.1519 -1.4860  0.2092
 1718SOL    HW216879   8.260   4.957   0.659 -0.4474  0.4618 -0.0878
 1719SOL     OW16880   3.838   3.786   3.126 -0.4712 -0.4465  0.2266
 1719SOL    HW116881   3.918   3.736   3.112  1.1264  1.8714  0.5768
 1719SOL    HW216882   3.832   3.796   3.221 -0.3207  0.6665  0.1301
 1720SOL     OW16883   6.638   7.751   7.548 -0.0876 -0.0299 -0.0814
 1720SOL    HW116884   6.565   7.764   7.487 -1.3454 -0.7780  1.1972
 1720SOL    HW216885   6.598   7.751   7.634  1.3759 -0.8976  0.6442
 1721SOL     OW16886   9.095  11.921   0.767  0.4151 -0.0393  0.8516
 1721SOL    HW116887   9.057  11.961   0.688 -2.7661 -2.4705  0.9188
 1721SOL    HW216888   9.137  11.994   0.813  0.4909  1.8875 -1.9863
 1722SOL     OW16889   7.244   2.309   4.541  0.0903  0.1551  0.1719
 1722SOL    HW116890   7.207   2.339   4.458 -0.7656  1.6017  1.0215
 1722SOL    HW216891   7.182   2.342   4.607  0.1927 -1.8451  1.3239
 1723SOL     OW16892   3.838   5.221   5.148  0.1255  0.2636  0.4080
 1723SOL    HW116893   3.816   5.308   5.183  1.2340  1.3176 -1.3647
 1723SOL    HW216894   3.754   5.184   5.123 -0.3493  0.9211  0.9793
 1724SOL     OW16895   3.998   1.171   6.454  0.4388 -0.1641 -0.2245
 1724SOL    HW116896   4.023   1.243   6.395  0.7135  1.0755  1.3440
 1724SOL    HW216897   4.080   1.141   6.492  0.0767  0.8472  1.4820
 1725SOL     OW16898   9.192   4.434   2.207  0.3574 -0.4199 -0.3629
 1725SOL    HW116899   9.160   4.362   2.260 -1.1728  1.3146  1.1818
 1725SOL    HW216900   9.133   4.437   2.132 -1.0148  0.5766  0.7109
 1726SOL     OW16901  10.276   6.189   2.136 -0.1747 -0.4466  0.4607
 1726SOL    HW116902  10.305   6.168   2.225 -1.9142 -1.2628  0.8712
 1726SOL    HW216903  10.207   6.125   2.117 -0.3739  0.2064 -1.1804
 1727SOL     OW16904   9.869   8.501   0.222 -0.1954  0.1118 -0.3232
 1727SOL    HW116905   9.907   8.490   0.309  0.2330  0.4364 -0.4650
 1727SOL    HW216906   9.855   8.595   0.214  2.1247  0.4242 -1.5565
 1728SOL     OW16907   7.427   5.454   8.401  0.1532  0.3983  0.4981
 1728SOL    HW116908   7.386   5.540   8.391 -0.4966  0.2668  1.8161
 1728SOL    HW216909   7.518   5.468   8.373 -0.1212  1.3327  0.0255
 1729SOL     OW16910   1.366  11.727   1.529  0.4324  0.1974 -0.3193
 1729SOL    HW116911   1.368  11.777   1.448 -1.3582  1.5153  0.3960
 1729SOL    HW216912   1.417  11.779   1.591  2.1074 -0.9813 -0.6098
 1730SOL     OW16913   6.966   0.828   0.551 -0.1639 -0.4004  0.5081
 1730SOL    HW116914   7.006   0.806   0.635 -0.3453 -0.3859  0.5992
 1730SOL    HW216915   6.933   0.744   0.517 -0.0260 -0.4180  0.4170
 1731SOL     OW16916   2.776   5.226  10.517 -0.4215  0.1580 -0.8290
 1731SOL    HW116917   2.775   5.148  10.573 -0.0253 -0.4746 -1.6827
 1731SOL    HW216918   2.849   5.211  10.457 -0.4742  1.0969 -1.1418
 1732SOL     OW16919   4.500  11.904   7.623  0.3595  0.5453 -0.1044
 1732SOL    HW116920   4.556  11.889   7.699  1.9828 -0.3829 -1.4268
 1732SOL    HW216921   4.449  11.824   7.615  0.8115  0.2947 -0.4928
 1733SOL     OW16922   6.877   4.565   9.650 -0.4027  0.1192 -0.1397
 1733SOL    HW116923   6.827   4.488   9.621  0.9263 -1.0645  0.5310
 1733SOL    HW216924   6.846   4.580   9.740  0.4297 -0.6452  0.2934
 1734SOL     OW16925   5.841  11.916   7.662  0.0388 -0.0788  0.5817
 1734SOL    HW116926   5.778  11.880   7.600  2.1865 -0.8048 -1.3411
 1734SOL    HW216927   5.834  11.861   7.739  0.2388 -1.9381 -0.6789
 1735SOL     OW16928   1.997   5.529   7.943  0.1373 -0.3581  0.1261
 1735SOL    HW116929   1.938   5.559   7.875  0.1752 -0.7789 -0.0971
 1735SOL    HW216930   2.013   5.607   7.997 -1.0746 -0.3735  0.5392
 1736SOL     OW16931   2.463  11.239   2.568 -0.2477  0.7014 -0.2976
 1736SOL    HW116932   2.433  11.330   2.564 -2.6176  0.0566  0.9338
 1736SOL    HW216933   2.387  11.187   2.543  0.7659 -0.9915 -0.0297
 1737SOL     OW16934  11.451  11.834   7.560 -0.2569 -0.1246  0.4132
 1737SOL    HW116935  11.423  11.756   7.511  1.1754 -0.7711  0.5686
 1737SOL    HW216936  11.483  11.799   7.643 -0.5955  0.7540  0.9311
 1738SOL     OW16937   8.426   1.508  10.630  0.1368 -0.3592  0.9106
 1738SOL    HW116938   8.420   1.573  10.560  3.0563 -0.6140  0.2955
 1738SOL    HW216939   8.445   1.559  10.708 -0.4522 -0.2762  1.0029
 1739SOL     OW16940   8.302   2.048  11.151 -0.1583  0.1603  0.3973
 1739SOL    HW116941   8.317   2.143  11.143 -0.7718  0.2122 -0.2436
 1739SOL    HW216942   8.268   2.022  11.066 -1.4068 -0.3694  1.0271
 1740SOL     OW16943  11.169  11.774   8.540 -0.6946 -0.3234 -0.0604
 1740SOL    HW116944  11.215  11.816   8.468 -0.5080 -0.6553 -0.1395
 1740SOL    HW216945  11.158  11.683   8.512  0.2653 -0.7094  0.7229
 1741SOL     OW16946   4.234   2.726   5.345  0.4514 -0.1463 -0.2936
 1741SOL    HW116947   4.268   2.639   5.324  0.2947 -0.6359  1.3956
 1741SOL    HW216948   4.205   2.720   5.436 -0.5934  1.3649 -0.4854
 1742SOL     OW16949   4.044   0.459   5.005 -0.0495  0.4446  0.0140
 1742SOL    HW116950   4.126   0.452   5.054 -0.3915  0.5735  0.6154
 1742SOL    HW216951   4.018   0.368   4.990 -1.1451  0.3368  2.1477
 1743SOL     OW16952   1.611   3.318  10.435  0.0273 -0.3662  0.1835
 1743SOL    HW116953   1.524   3.280  10.421 -0.9292  1.6807  0.2746
 1743SOL    HW216954   1.608   3.403  10.392  2.2622 -0.5256 -0.4417
 1744SOL     OW16955   1.568   1.341   7.409  0.2877  0.1968 -0.4791
 1744SOL    HW116956   1.517   1.415   7.376  0.5365  0.5905  0.0138
 1744SOL    HW216957   1.639   1.381   7.459 -0.4830 -0.3968  1.1514
 1745SOL     OW16958   3.031   2.963   4.567 -0.1647  0.1014  0.2415
 1745SOL    HW116959   2.967   2.896   4.544  0.6309 -0.2465 -1.0545
 1745SOL    HW216960   3.021   3.030   4.499  2.3970 -1.0562 -1.4189
 1746SOL     OW16961   6.479   0.683   9.365 -0.1077  0.0655 -0.2871
 1746SOL    HW116962   6.511   0.640   9.444  0.2865  2.5618  0.9848
 1746SOL    HW216963   6.536   0.759   9.353 -2.5187  1.9381 -0.7350
 1747SOL     OW16964  11.772   6.500   4.855  0.3128 -0.1835  0.2626
 1747SOL    HW116965  11.701   6.519   4.794  0.0236 -0.5289  0.4827
 1747SOL    HW216966  11.793   6.408   4.839 -0.0370 -0.3909  0.9500
 1748SOL     OW16967   1.493   6.650  10.894 -0.6442 -0.0942  0.2734
 1748SOL    HW116968   1.433   6.594  10.845 -0.8512 -0.3658  0.8218
 1748SOL    HW216969   1.486   6.736  10.853  0.2626 -0.6311 -1.0872
 1749SOL     OW16970  11.563   1.982   9.999 -0.0923 -0.3738  0.4520
 1749SOL    HW116971  11.599   2.048   9.940 -0.1031 -0.3757  0.4429
 1749SOL    HW216972  11.626   1.911   9.996  0.1417 -0.1807  0.8044
 1750SOL     OW16973   1.016   8.861   6.146 -0.5652  0.2789 -0.5633
 1750SOL    HW116974   1.025   8.948   6.185 -1.3770  0.9529 -1.8067
 1750SOL    HW216975   0.980   8.806   6.216 -0.0476  0.9350  0.2321
 1751SOL     OW16976  10.628   6.128   2.603  0.0979  0.3230  0.2550
 1751SOL    HW116977  10.569   6.124   2.678  1.2478  0.6130  1.2133
 1751SOL    HW216978  10.672   6.043   2.602  0.9354  0.7350  0.6528
 1752SOL     OW16979   5.224   4.627  10.176 -0.2216 -0.1280 -0.2634
 1752SOL    HW116980   5.266   4.597  10.256 -2.6068 -1.3444  0.6512
 1752SOL    HW216981   5.138   4.658  10.204  0.0828  2.6000 -1.9564
 1753SOL     OW16982   9.451  11.421  10.392  0.4015  0.2694 -0.0846
 1753SOL    HW116983   9.513  11.463  10.451 -1.0515  1.6002  0.5980
 1753SOL    HW216984   9.465  11.327  10.405  0.9163  0.5378  1.5260
 1754SOL     OW16985   7.512   4.264   2.969 -0.2740  0.0416 -0.1858
 1754SOL    HW116986   7.417   4.267   2.977 -0.3120  2.2045 -0.7019
 1754SOL    HW216987   7.543   4.320   3.040  0.6622 -1.0449  0.2857
 1755SOL     OW16988   4.544   4.911   8.511 -0.8576  0.3216 -0.1321
 1755SOL    HW116989   4.471   4.853   8.493 -1.7249  1.5103 -0.5653
 1755SOL    HW216990   4.510   4.974   8.574 -0.2480  0.9645 -0.4249
 1756SOL     OW16991   1.493   7.588   4.566 -0.1401 -0.1680 -0.1641
 1756SOL    HW116992   1.583   7.621   4.564 -0.3941  0.5607  0.3372
 1756SOL    HW216993   1.475   7.563   4.475  0.8984 -1.2491 -0.1061
 1757SOL     OW16994   5.495   8.625  11.547 -0.3710  0.0087 -0.0740
 1757SOL    HW116995   5.571   8.577  11.579 -0.5034  0.1044  0.3987
 1757SOL    HW216996   5.425   8.602  11.609 -0.8932 -0.5904 -0.8681
 1758SOL     OW16997   9.153   9.129   6.863 -0.5142  0.0383 -0.5658
 1758SOL    HW116998   9.104   9.070   6.921 -0.5885 -1.1876 -1.8008
 1758SOL    HW216999   9.197   9.070   6.801 -0.3537  1.2792 -1.6873
 1759SOL     OW17000   4.978   5.603  10.909 -0.2149  0.1490 -0.1960
 1759SOL    HW117001   5.031   5.665  10.958  0.1351  0.8062 -1.3829
 1759SOL    HW217002   4.889   5.614  10.943 -0.0013  0.6893  0.1843
 1760SOL     OW17003   3.839  10.527   6.877  0.1039 -0.2068 -0.5067
 1760SOL    HW117004   3.804  10.450   6.921 -0.5912  0.3474 -0.0501
 1760SOL    HW217005   3.923  10.499   6.842  1.6550 -0.1642  2.8390
 1761SOL     OW17006   5.569   6.805   0.822  0.6298 -0.0125  0.0432
 1761SOL    HW117007   5.642   6.794   0.883  0.3821 -1.4422  0.1051
 1761SOL    HW217008   5.495   6.764   0.866 -0.0805  0.8679 -0.2927
 1762SOL     OW17009   7.324  10.906   4.981 -0.0555 -0.1934 -0.5193
 1762SOL    HW117010   7.290  10.958   5.054 -0.6520  0.1954 -1.0547
 1762SOL    HW217011   7.295  10.817   4.998 -0.8540  0.0335 -0.6642
 1763SOL     OW17012   8.857   9.329   9.689 -0.1048  0.6002  0.4606
 1763SOL    HW117013   8.858   9.252   9.745  0.0596 -0.6131 -1.1316
 1763SOL    HW217014   8.786   9.383   9.723 -0.1949 -0.2317  1.6306
 1764SOL     OW17015   9.667   0.737   1.156 -0.8319  0.0396  0.4659
 1764SOL    HW117016   9.699   0.736   1.066  0.4505 -1.4066  0.9015
 1764SOL    HW217017   9.573   0.717   1.148 -1.3063  2.3754 -0.6861
 1765SOL     OW17018   3.514  10.495   9.864 -0.1815  1.0353  0.2866
 1765SOL    HW117019   3.592  10.524   9.815  1.8202 -0.3250  2.4439
 1765SOL    HW217020   3.465  10.576   9.880  0.9062  1.9864 -0.9497
 1766SOL     OW17021  11.397   4.657  11.470  0.2930  0.7415  0.6902
 1766SOL    HW117022  11.443   4.610  11.539 -1.1956 -1.2302  0.4100
 1766SOL    HW217023  11.446   4.637  11.390 -1.2695 -1.8704  0.2905
 1767SOL     OW17024   7.891   3.143   2.228 -0.1880  0.2478  0.4921
 1767SOL    HW117025   7.838   3.211   2.187  0.0351  0.2854  0.2598
 1767SOL    HW217026   7.950   3.191   2.286 -0.8681  0.1528  1.2774
 1768SOL     OW17027  11.489  11.818   8.519  0.0148 -0.6239  0.4203
 1768SOL    HW117028  11.481  11.740   8.464 -0.3998 -0.1033 -0.2876
 1768SOL    HW217029  11.530  11.883   8.462 -0.6316  0.0020  0.6426
 1769SOL     OW17030   2.735   9.311   1.970  0.4158 -0.1065  0.3281
 1769SOL    HW117031   2.699   9.224   1.989 -0.1936  0.1459  0.3710
 1769SOL    HW217032   2.676   9.347   1.904 -0.6112  1.0902  1.8153
 1770SOL     OW17033   0.781   5.772   0.690  0.6810  0.2681  0.4390
 1770SOL    HW117034   0.830   5.710   0.744  0.4988 -0.1111  0.1707
 1770SOL    HW217035   0.798   5.745   0.600 -0.6467 -0.3702  0.3575
 1771SOL     OW17036   2.862  11.124   8.767  0.3271  0.4761 -0.7169
 1771SOL    HW117037   2.902  11.069   8.834 -1.1003  0.1892 -0.0771
 1771SOL    HW217038   2.792  11.071   8.730 -0.5193  1.5405 -0.6888
 1772SOL     OW17039   5.691   2.850   4.179  0.3850 -0.2452 -0.0685
 1772SOL    HW117040   5.659   2.760   4.173 -0.2218 -0.0022 -0.5801
 1772SOL    HW217041   5.681   2.873   4.271 -0.6289 -0.2885 -0.1550
 1773SOL     OW17042  10.746   0.064  10.362  0.1047  0.3647  0.2580
 1773SOL    HW117043  10.772  -0.002  10.297 -0.4121  1.5643 -1.2454
 1773SOL    HW217044  10.812   0.132  10.354  0.3777  0.2435  1.4601
 1774SOL     OW17045  11.911   6.236   4.705  0.1431 -0.0741 -0.0690
 1774SOL    HW117046  11.979   6.180   4.743 -0.3068 -0.6141 -0.0502
 1774SOL    HW217047  11.960   6.301   4.654  0.6848 -0.2830  0.1766
 1775SOL     OW17048   3.092   0.954   2.932 -0.0518 -0.2526  0.1260
 1775SOL    HW117049   3.135   0.908   2.860 -1.0364 -0.5177 -0.3156
 1775SOL    HW217050   3.160   1.008   2.971  0.1188  1.2157 -2.0694
 1776SOL     OW17051   3.541   0.353   5.861  0.2996 -0.4123  0.2894
 1776SOL    HW117052   3.584   0.293   5.799 -1.5227 -0.6052 -0.8676
 1776SOL    HW217053   3.515   0.297   5.934  1.1033 -0.4875  0.5194
 1777SOL     OW17054   2.310   8.927  10.330 -0.2496 -0.1220 -0.9435
 1777SOL    HW117055   2.319   9.004  10.386  1.2315 -0.6519 -0.4142
 1777SOL    HW217056   2.224   8.892  10.352 -0.7839  1.1445 -0.9184
 1778SOL     OW17057   1.665   0.990   4.930 -0.0314 -0.0881  0.1726
 1778SOL    HW117058   1.656   1.019   5.020 -0.8989  0.0639  0.0479
 1778SOL    HW217059   1.613   1.052   4.879  1.3205  0.4700 -0.5692
 1779SOL     OW17060   2.325   2.660   3.947 -0.2005  0.2016  0.0793
 1779SOL    HW117061   2.393   2.651   4.014 -0.6766  0.2833  0.5759
 1779SOL    HW217062   2.351   2.598   3.879  1.0035  1.0454 -0.2759
 1780SOL     OW17063   8.026  10.575   2.034  0.0497  0.2212  0.4850
 1780SOL    HW117064   8.070  10.658   2.014 -1.4906  1.0371  0.3220
 1780SOL    HW217065   7.984  10.590   2.119  1.8909 -1.3093  1.7380
 1781SOL     OW17066  10.199   5.811   0.809 -0.1920  0.4797  0.2893
 1781SOL    HW117067  10.285   5.822   0.768 -0.0832  2.1911  0.8833
 1781SOL    HW217068  10.162   5.734   0.767  0.8963  0.7719 -1.2938
 1782SOL     OW17069   5.549   1.923  10.772  0.6226 -0.0773  0.4602
 1782SOL    HW117070   5.608   1.894  10.842  1.4636  1.0118  0.2235
 1782SOL    HW217071   5.604   1.975  10.714 -0.9272  2.6929  1.2852
 1783SOL     OW17072  10.266   0.340   8.092  0.0746  0.0984 -0.1847
 1783SOL    HW117073  10.313   0.411   8.135 -0.0633  0.8406 -1.2362
 1783SOL    HW217074  10.229   0.379   8.013 -2.2460 -0.4731  0.5233
 1784SOL     OW17075   2.773   6.187   1.441 -0.5811 -0.7068  1.0323
 1784SOL    HW117076   2.813   6.168   1.356 -3.0366 -1.8174  0.0138
 1784SOL    HW217077   2.749   6.279   1.437 -0.7277 -0.7656  0.4655
 1785SOL     OW17078   6.358   9.111   2.452  0.0018  0.1026  0.4783
 1785SOL    HW117079   6.400   9.025   2.450 -0.9250 -0.3563 -0.0631
 1785SOL    HW217080   6.408   9.161   2.516  1.5396 -0.3310 -0.3332
 1786SOL     OW17081   6.154   6.998   7.742 -0.2382 -0.5885  0.0994
 1786SOL    HW117082   6.168   7.072   7.683  0.1452  0.9446  1.9726
 1786SOL    HW217083   6.066   7.013   7.778 -0.7482 -1.8768 -0.5850
 1787SOL     OW17084   9.148   3.925   1.079 -0.0521  0.0956 -0.1829
 1787SOL    HW117085   9.115   3.973   1.155  0.7356  0.0998  0.1708
 1787SOL    HW217086   9.104   3.966   1.004  1.2352  2.0285  0.0169
 1788SOL     OW17087   6.217   4.742   0.128 -0.0276 -0.0666  0.3561
 1788SOL    HW117088   6.179   4.677   0.187  0.1160 -1.0086 -0.5550
 1788SOL    HW217089   6.153   4.752   0.058  0.6041 -0.3460 -0.2775
 1789SOL     OW17090   0.671   0.694   0.240  0.4407  0.4098 -0.4625
 1789SOL    HW117091   0.691   0.607   0.275 -0.8069  0.3182  0.0844
 1789SOL    HW217092   0.710   0.695   0.153  1.5544 -0.2344  0.0145
 1790SOL     OW17093   3.331  11.284   3.464 -0.2524  0.1089  0.0873
 1790SOL    HW117094   3.398  11.254   3.402  0.2655 -0.3796  0.8670
 1790SOL    HW217095   3.340  11.226   3.539 -3.7422 -2.1923 -1.0219
 1791SOL     OW17096   3.894   7.588   1.322 -0.2213  0.5558 -0.3216
 1791SOL    HW117097   3.887   7.541   1.405  2.1217  1.1506  0.2886
 1791SOL    HW217098   3.809   7.576   1.280 -0.3242 -2.7328  0.5674
 1792SOL     OW17099   9.795   8.689  10.362 -0.5136 -0.2435  0.1851
 1792SOL    HW117100   9.856   8.633  10.315 -1.1719  0.0601 -1.0966
 1792SOL    HW217101   9.719   8.696  10.304 -0.8793  1.1220  0.7767
 1793SOL     OW17102   6.976  11.008   3.597 -0.1711 -0.4053  0.3171
 1793SOL    HW117103   6.939  11.017   3.509 -1.4097  1.1438  0.9752
 1793SOL    HW217104   7.035  11.083   3.606  0.8659 -1.2016  0.4115
 1794SOL     OW17105  10.197   6.968   4.619  0.1200 -0.0234 -0.6032
 1794SOL    HW117106  10.104   6.953   4.605 -0.3804  1.3068  1.0262
 1794SOL    HW217107  10.235   6.970   4.531 -1.7457  1.5449 -1.4415
 1795SOL     OW17108   7.531   4.661   6.145  0.2124 -0.4223 -0.1896
 1795SOL    HW117109   7.475   4.590   6.175 -2.2784  0.2562 -2.7804
 1795SOL    HW217110   7.517   4.665   6.050  1.2455  2.6871 -0.3285
 1796SOL     OW17111   4.524   8.006   3.376 -0.2968 -0.3380 -0.2072
 1796SOL    HW117112   4.613   7.998   3.343 -0.0576  2.3253 -0.4086
 1796SOL    HW217113   4.481   8.067   3.316 -2.2720 -1.5525 -0.1025
 1797SOL     OW17114   5.122   2.262   0.705  0.6138  0.6091 -0.6333
 1797SOL    HW117115   5.046   2.315   0.679  0.7584  1.5774  0.8026
 1797SOL    HW217116   5.126   2.271   0.800  2.3974  0.3890 -0.6571
 1798SOL     OW17117   7.267   7.393   0.775 -0.2896 -0.3767  0.1641
 1798SOL    HW117118   7.237   7.412   0.864  0.2655 -1.8999  0.7036
 1798SOL    HW217119   7.187   7.364   0.729 -0.2603 -1.3726  0.7083
 1799SOL     OW17120   7.681   6.492   6.318  0.2270 -0.3095 -0.2772
 1799SOL    HW117121   7.616   6.423   6.306 -1.4393  1.0888  0.3580
 1799SOL    HW217122   7.700   6.522   6.229 -3.0081  1.8473 -0.4406
 1800SOL     OW17123   1.050   3.782  11.895 -0.1210  0.4786  0.0674
 1800SOL    HW117124   1.085   3.800  11.807 -1.2089  1.2378 -0.2264
 1800SOL    HW217125   0.957   3.804  11.889 -0.9337 -2.3720  0.5669
 1801SOL     OW17126  11.905   0.690   6.925 -0.4749  0.2145 -0.0702
 1801SOL    HW117127  11.912   0.627   6.853  0.0244 -0.1266  0.2700
 1801SOL    HW217128  11.941   0.644   7.001 -1.5418  0.3594  0.5431
 1802SOL     OW17129   7.795   1.564   4.147  0.9195  0.5066 -0.3476
 1802SOL    HW117130   7.875   1.511   4.149 -1.0975 -2.8083 -1.0173
 1802SOL    HW217131   7.784   1.586   4.055  0.9150  0.7341 -0.2920
 1803SOL     OW17132   7.071   6.525   3.278  0.5099 -0.2162 -0.8439
 1803SOL    HW117133   7.114   6.492   3.357 -1.2050  0.2767  0.3615
 1803SOL    HW217134   7.099   6.616   3.271 -1.0417  0.4290  0.5527
 1804SOL     OW17135   5.521   5.135   3.317 -0.2986 -0.4342  0.3942
 1804SOL    HW117136   5.575   5.117   3.394  0.5184 -2.5207 -0.5961
 1804SOL    HW217137   5.433   5.148   3.352  0.2219 -0.4310  1.7529
 1805SOL     OW17138  11.171   4.343   8.471 -0.2380 -0.2048  0.6402
 1805SOL    HW117139  11.115   4.415   8.501 -0.2944  1.6337 -3.2121
 1805SOL    HW217140  11.138   4.322   8.384  2.1975 -2.3273  0.1073
 1806SOL     OW17141  10.952   8.942   1.573 -0.3607 -0.3139 -0.1519
 1806SOL    HW117142  10.928   9.035   1.582 -0.7200 -0.3169 -1.0185
 1806SOL    HW217143  10.904   8.898   1.643  1.6828  0.4425  1.8652
 1807SOL     OW17144   6.987   7.744   9.207  0.5585  0.5269 -0.1685
 1807SOL    HW117145   7.081   7.761   9.211  0.7788 -0.4539 -0.7309
 1807SOL    HW217146   6.981   7.651   9.184 -0.5251  0.9816 -1.9344
 1808SOL     OW17147   1.575   1.288   0.894  0.2570  0.0883  0.0214
 1808SOL    HW117148   1.604   1.201   0.923 -0.4429  0.1335  0.8789
 1808SOL    HW217149   1.657   1.338   0.885  0.7159 -0.8334 -1.1049
 1809SOL     OW17150  11.340   4.182   9.120  0.2271  0.4714 -0.8889
 1809SOL    HW117151  11.351   4.216   9.031 -2.0691 -2.0553 -2.3044
 1809SOL    HW217152  11.260   4.129   9.116  0.3740 -0.2640  2.5573
 1810SOL     OW17153  10.019   2.895  11.601 -0.2854 -0.0489  0.1209
 1810SOL    HW117154  10.099   2.931  11.640 -0.6838  0.5114  0.4249
 1810SOL    HW217155  10.002   2.816  11.652 -0.9063  0.7705  1.2464
 1811SOL     OW17156   3.814   1.271   8.290 -0.0342  0.0443 -0.2261
 1811SOL    HW117157   3.760   1.338   8.248  1.1449  0.6125 -0.8851
 1811SOL    HW217158   3.787   1.273   8.382 -0.7852  0.6479 -0.4513
 1812SOL     OW17159   8.620   2.115   1.135 -0.4990 -0.2578 -0.3168
 1812SOL    HW117160   8.643   2.039   1.081  1.4627 -0.3009  0.4861
 1812SOL    HW217161   8.704   2.155   1.157 -1.2830  0.3810  1.8010
 1813SOL     OW17162  10.006   8.852   9.943 -0.5239  0.2283  0.1682
 1813SOL    HW117163   9.930   8.885   9.990 -1.6602 -1.8257 -0.1380
 1813SOL    HW217164   9.985   8.864   9.851  0.1868  0.9889  0.0864
 1814SOL     OW17165   5.069   6.930  11.022 -0.2842  0.1125 -0.7066
 1814SOL    HW117166   5.036   6.853  10.976 -1.6380  0.8934 -1.1029
 1814SOL    HW217167   5.161   6.910  11.039 -0.2787 -1.0560 -1.9242
 1815SOL     OW17168  11.595   8.182   7.151  0.1636 -0.5769  0.9645
 1815SOL    HW117169  11.641   8.112   7.196  0.4727 -1.5232 -0.7382
 1815SOL    HW217170  11.582   8.150   7.062  1.5964  2.0654 -0.3256
 1816SOL     OW17171   1.429   7.996  10.850  0.2909  0.6936 -0.1152
 1816SOL    HW117172   1.492   7.996  10.922 -0.3142 -0.9628  0.4609
 1816SOL    HW217173   1.386   8.081  10.855  1.2761  1.1727  0.5503
 1817SOL     OW17174   8.779   9.940   9.918 -0.8114 -0.5046  0.2800
 1817SOL    HW117175   8.736   9.857   9.900 -0.1010 -0.3137 -2.8729
 1817SOL    HW217176   8.707  10.002   9.932 -1.6013 -0.7524 -2.1495
 1818SOL     OW17177  11.797   5.666   7.245 -0.0738 -0.2427  0.4920
 1818SOL    HW117178  11.771   5.722   7.172 -1.6525  1.0817  1.9575
 1818SOL    HW217179  11.890   5.650   7.231  0.3382  2.3210 -0.3312
 1819SOL     OW17180   1.226   2.021   9.650  0.1297 -0.0972 -0.0977
 1819SOL    HW117181   1.192   1.934   9.630  0.3819 -0.1152 -0.4503
 1819SOL    HW217182   1.149   2.070   9.681 -0.1449 -0.2482 -0.5314
 1820SOL     OW17183   7.386   2.494   6.588 -0.4884  0.2863  0.3136
 1820SOL    HW117184   7.458   2.459   6.535  0.6248 -0.6996  2.3611
 1820SOL    HW217185   7.370   2.581   6.551  1.0222  0.1165 -0.8770
 1821SOL     OW17186   6.551   3.391  10.081 -0.3819 -0.3948 -0.4683
 1821SOL    HW117187   6.492   3.368  10.153  0.9241 -1.1813  0.3963
 1821SOL    HW217188   6.551   3.486  10.080 -0.3065 -0.3632  0.6858
 1822SOL     OW17189   6.162   3.852  11.427 -0.2425 -0.7854 -0.1377
 1822SOL    HW117190   6.122   3.782  11.479  0.7644 -1.0369  0.3112
 1822SOL    HW217191   6.089   3.910  11.406 -0.4466  0.3147  3.0830
 1823SOL     OW17192   9.662   7.832   4.582  0.5475  0.1928  0.0575
 1823SOL    HW117193   9.635   7.781   4.658 -0.9621  1.2099  0.2552
 1823SOL    HW217194   9.682   7.767   4.515  0.5879 -0.6844  0.9032
 1824SOL     OW17195   7.335   9.263   2.463 -0.0485  0.3127 -0.2043
 1824SOL    HW117196   7.388   9.337   2.493  1.3036 -0.6865 -0.0458
 1824SOL    HW217197   7.287   9.235   2.540  2.3772 -1.3729  0.8130
 1825SOL     OW17198   5.989   6.348   6.452  0.5934  0.0466 -0.5106
 1825SOL    HW117199   6.030   6.402   6.520  0.7700 -0.8317  0.0927
 1825SOL    HW217200   5.898   6.377   6.450  0.3968 -0.4626  0.6614
 1826SOL     OW17201   9.200   6.703  10.896 -0.1776  0.3545  0.7004
 1826SOL    HW117202   9.118   6.685  10.941 -0.2503  0.9613  0.8293
 1826SOL    HW217203   9.268   6.683  10.960 -0.2229 -0.1837  0.5811
 1827SOL     OW17204   1.090   1.259   3.450  0.1196 -0.0365 -0.3523
 1827SOL    HW117205   1.145   1.333   3.477 -0.0336  0.5616 -1.5899
 1827SOL    HW217206   1.120   1.238   3.362  0.1937 -1.5082  0.0079
 1828SOL     OW17207   3.820  10.568  10.415 -0.1869  0.1197 -0.1032
 1828SOL    HW117208   3.848  10.482  10.384  2.0915  0.0692  1.8337
 1828SOL    HW217209   3.865  10.630  10.357 -0.4369  0.0118 -0.4127
 1829SOL     OW17210  11.795   4.587   5.154  0.3847  0.1162 -0.1147
 1829SOL    HW117211  11.849   4.600   5.076  0.3126 -0.4316 -0.2597
 1829SOL    HW217212  11.857   4.585   5.227  0.5752 -0.5598 -0.2862
 1830SOL     OW17213   9.293  10.260   9.887 -0.0248  0.0718 -0.1484
 1830SOL    HW117214   9.253  10.180   9.921 -0.4256  0.2855 -0.1100
 1830SOL    HW217215   9.236  10.330   9.918 -0.4988  0.2607 -1.3844
 1831SOL     OW17216   0.144   3.505   8.228 -0.0920  0.3143  0.5277
 1831SOL    HW117217   0.141   3.433   8.291 -0.6617  0.3983  0.6050
 1831SOL    HW217218   0.122   3.463   8.144 -0.8253  0.4606  0.6384
 1832SOL     OW17219   6.153   8.888   7.485 -0.1619  0.3859 -0.2263
 1832SOL    HW117220   6.238   8.923   7.511  0.5946 -1.5771  0.1836
 1832SOL    HW217221   6.107   8.874   7.568 -1.0117  1.6545 -0.4591
 1833SOL     OW17222   7.106  10.293  10.577 -0.5092 -0.7815  0.7461
 1833SOL    HW117223   7.167  10.219  10.577  0.3732 -0.0743  0.4842
 1833SOL    HW217224   7.078  10.301  10.668  0.0332 -0.9227  0.9324
 1834SOL     OW17225   0.661   7.238   4.910 -0.3277 -0.1785  0.2574
 1834SOL    HW117226   0.603   7.233   4.987 -0.2785 -0.7549  0.2664
 1834SOL    HW217227   0.649   7.153   4.867  1.2598 -0.6987  0.7972
 1835SOL     OW17228   0.370   8.613   3.642 -0.0481 -0.5077 -0.0888
 1835SOL    HW117229   0.362   8.599   3.548  1.9230 -0.6830 -0.2756
 1835SOL    HW217230   0.316   8.545   3.681  0.3021 -1.3903 -1.0911
 1836SOL     OW17231   0.382   9.207   9.333  0.3775  0.6367 -0.2443
 1836SOL    HW117232   0.456   9.147   9.346  1.4384  1.8905 -0.3414
 1836SOL    HW217233   0.318   9.179   9.398  1.4224  0.2794  0.6708
 1837SOL     OW17234  10.071   1.662   9.130  0.2557  0.6365 -0.3067
 1837SOL    HW117235  10.066   1.670   9.225  2.4760  0.5148 -0.1139
 1837SOL    HW217236  10.098   1.571   9.115 -1.1246  0.3392 -1.1344
 1838SOL     OW17237   8.802   9.425   9.993 -0.3795 -0.4547  0.5083
 1838SOL    HW117238   8.852   9.347   9.970  1.3341  0.5175  0.7869
 1838SOL    HW217239   8.863   9.479  10.043 -1.2433  1.4513 -0.3956
 1839SOL     OW17240   5.127   2.630   5.634  0.2834 -0.4818  0.2324
 1839SOL    HW117241   5.174   2.550   5.660  0.9878 -0.4670 -0.9228
 1839SOL    HW217242   5.190   2.700   5.650 -0.0843 -0.2251  0.5750
 1840SOL     OW17243   6.970   7.367   5.559 -0.0351  0.2378  0.0311
 1840SOL    HW117244   7.056   7.353   5.600 -0.0099  2.0472  0.6759
 1840SOL    HW217245   6.974   7.314   5.479  2.2709  1.3338 -0.7010
 1841SOL     OW17246   1.250   8.940   6.819 -0.0415 -0.3631 -0.2020
 1841SOL    HW117247   1.218   9.030   6.819 -0.3355 -0.4489 -1.5554
 1841SOL    HW217248   1.172   8.888   6.800  0.7084 -0.6359 -2.8058
 1842SOL     OW17249   0.323   3.536   4.351  0.7645 -0.3933  0.0406
 1842SOL    HW117250   0.379   3.541   4.274 -0.7986  0.7825 -1.0781
 1842SOL    HW217251   0.299   3.627   4.369 -1.5362 -0.9059 -0.1321
 1843SOL     OW17252   9.137   7.908  10.180  0.2237 -0.2384  0.0007
 1843SOL    HW117253   9.096   7.949  10.104  1.4951  1.6173  0.2590
 1843SOL    HW217254   9.080   7.833  10.200  0.7330 -1.8181 -3.7108
 1844SOL     OW17255  10.632   3.263   4.163  0.0694 -0.0512  0.0443
 1844SOL    HW117256  10.665   3.243   4.076 -0.0171  0.6305 -0.1532
 1844SOL    HW217257  10.564   3.330   4.148  1.5650  1.7302  0.7938
 1845SOL     OW17258   6.476   9.946   5.927 -0.4243  0.1700  0.0973
 1845SOL    HW117259   6.419  10.014   5.963  0.0245  0.8343 -0.4337
 1845SOL    HW217260   6.419   9.870   5.917 -1.4900  1.1065 -1.3454
 1846SOL     OW17261   9.181   4.801  10.789 -0.0787 -0.1462  0.1892
 1846SOL    HW117262   9.221   4.758  10.713  0.1480 -0.0149  0.2340
 1846SOL    HW217263   9.096   4.831  10.757  0.4850  0.9326 -0.3579
 1847SOL     OW17264   6.554   9.118   1.289 -0.9724  0.1807  0.6206
 1847SOL    HW117265   6.564   9.028   1.321 -0.6670 -0.2486 -0.6113
 1847SOL    HW217266   6.642   9.155   1.295 -0.6274 -0.3142 -0.8148
 1848SOL     OW17267   5.418   7.669   0.037 -0.0397  0.1982  0.1932
 1848SOL    HW117268   5.449   7.718   0.113  1.6722  1.1473 -1.0515
 1848SOL    HW217269   5.476   7.593   0.032  0.1201  0.3487 -0.3691
 1849SOL     OW17270   8.073   1.159   1.040  0.1849  0.0083 -0.2045
 1849SOL    HW117271   8.053   1.089   0.977  1.3282 -0.9079  0.4360
 1849SOL    HW217272   8.027   1.236   1.004  0.0676 -0.7071 -1.6763
 1850SOL     OW17273   5.853  10.264  11.149  0.2106 -0.1454  0.0197
 1850SOL    HW117274   5.941  10.236  11.128 -0.4394 -1.4969 -1.0455
 1850SOL    HW217275   5.796  10.208  11.096 -1.2401  1.8348 -0.6591
 1851SOL     OW17276  11.683   9.313   1.589  0.2566 -0.1282  0.2815
 1851SOL    HW117277  11.620   9.241   1.590  0.6465 -0.4835 -0.2714
 1851SOL    HW217278  11.697   9.331   1.496 -0.4618  1.2199  0.4122
 1852SOL     OW17279   3.291   6.706   9.453  0.2787  0.0552  0.2124
 1852SOL    HW117280   3.232   6.638   9.421  0.7393 -0.2666  0.0372
 1852SOL    HW217281   3.367   6.701   9.396  0.2948  0.7656  0.1538
 1853SOL     OW17282   1.450   4.725   6.944 -0.3879 -0.4088  0.0738
 1853SOL    HW117283   1.507   4.736   6.868  0.0645 -0.3990  0.4111
 1853SOL    HW217284   1.380   4.789   6.931 -0.8199 -1.0566 -0.8051
 1854SOL     OW17285   2.981  11.346   8.698  0.1360 -0.6172 -0.3144
 1854SOL    HW117286   2.939  11.263   8.719 -0.4404 -0.1700  0.3627
 1854SOL    HW217287   3.074  11.326   8.697  0.2471 -0.7576  2.5848
 1855SOL     OW17288   3.014   6.712  11.753  0.2555  0.5959  0.0615
 1855SOL    HW117289   2.949   6.737  11.688  1.6858  0.9621 -1.2977
 1855SOL    HW217290   3.081   6.780  11.746  1.3716 -0.4244  0.5243
 1856SOL     OW17291   1.547   6.346   4.764 -0.0007 -0.5980 -0.2943
 1856SOL    HW117292   1.479   6.413   4.777  1.0515  0.6297 -0.8552
 1856SOL    HW217293   1.565   6.349   4.670  1.8626  0.2017  0.0319
 1857SOL     OW17294   4.660   7.158   3.332  0.2183 -0.5608  0.5145
 1857SOL    HW117295   4.596   7.152   3.262 -0.0932 -1.7680  0.8783
 1857SOL    HW217296   4.709   7.076   3.328  1.8118  0.3495  0.2080
 1858SOL     OW17297   5.754  10.821   5.541 -0.4632  0.6969 -0.4394
 1858SOL    HW117298   5.674  10.874   5.538 -0.1582  1.2345  0.5080
 1858SOL    HW217299   5.722  10.730   5.540 -1.0301  0.8900 -1.1125
 1859SOL     OW17300   7.898   9.687   1.199 -0.2458  0.1822 -0.2825
 1859SOL    HW117301   7.811   9.647   1.195 -0.8978  1.4010  0.8675
 1859SOL    HW217302   7.906   9.737   1.118  0.3358 -1.7039 -1.4496
 1860SOL     OW17303   0.272   0.297  10.661  0.1487 -0.4052 -0.6495
 1860SOL    HW117304   0.355   0.313  10.616  0.4172 -0.5711 -0.2160
 1860SOL    HW217305   0.296   0.280  10.752 -0.2526 -1.6920 -0.7630
 1861SOL     OW17306   8.248   6.826   7.784  0.6361  0.1211  0.2293
 1861SOL    HW117307   8.292   6.757   7.832  1.6221  0.2072 -0.5095
 1861SOL    HW217308   8.194   6.871   7.849  0.3319 -1.0477  0.8059
 1862SOL     OW17309   8.480  11.611   7.730 -0.6859 -0.1436  0.0490
 1862SOL    HW117310   8.412  11.596   7.796 -1.7687 -0.3169 -1.0906
 1862SOL    HW217311   8.470  11.703   7.706 -1.0301 -0.3682 -0.6822
 1863SOL     OW17312   5.056   5.048   9.754 -0.1861  0.2364  0.5014
 1863SOL    HW117313   5.063   5.143   9.746 -0.0899  0.2200  0.3933
 1863SOL    HW217314   5.078   5.015   9.667  1.6597  0.0244  0.9944
 1864SOL     OW17315  11.137   4.236   2.305 -0.1309  0.8029  0.1086
 1864SOL    HW117316  11.209   4.229   2.242 -0.7035 -0.2449 -0.4588
 1864SOL    HW217317  11.071   4.175   2.272 -0.4741  0.2766  1.6978
 1865SOL     OW17318   4.089   4.245   3.426  0.2221 -0.1515  0.0399
 1865SOL    HW117319   4.102   4.263   3.519 -1.7408 -0.7088  0.4679
 1865SOL    HW217320   3.994   4.248   3.413  0.4331 -0.1512 -1.9439
 1866SOL     OW17321   7.676   0.547   2.482 -0.0727  0.0642 -0.7821
 1866SOL    HW117322   7.610   0.477   2.478  0.4058 -0.4306 -0.2272
 1866SOL    HW217323   7.666   0.594   2.400 -0.7466 -0.3469 -0.9458
 1867SOL     OW17324   2.998   5.056   0.453  0.8874 -0.5064  0.1317
 1867SOL    HW117325   3.017   4.998   0.380 -0.2797 -1.0014  0.1997
 1867SOL    HW217326   2.931   5.116   0.420  1.4302  0.2429  0.3431
 1868SOL     OW17327   1.940  11.634   0.147 -0.4986  0.3789  0.3735
 1868SOL    HW117328   1.965  11.621   0.239  1.7741 -1.4161 -0.4104
 1868SOL    HW217329   1.967  11.724   0.128 -0.4883  0.5873  1.3162
 1869SOL     OW17330   5.907   3.509   5.253  0.3431 -0.0280  0.4538
 1869SOL    HW117331   5.935   3.462   5.175  0.4078  0.4645  0.1757
 1869SOL    HW217332   5.822   3.471   5.274 -0.5526  1.0997 -0.9597
 1870SOL     OW17333   7.977   3.197   5.208 -0.4495  0.7430  0.5185
 1870SOL    HW117334   7.934   3.256   5.147  0.0564  0.7993  0.2090
 1870SOL    HW217335   7.906   3.147   5.249 -0.7005 -0.4675 -1.3017
 1871SOL     OW17336   2.054  11.309   5.425 -0.1367  0.6835 -0.2875
 1871SOL    HW117337   2.012  11.258   5.495 -1.2328  1.0061 -0.6904
 1871SOL    HW217338   2.138  11.335   5.462  0.9292 -2.2158 -0.4091
 1872SOL     OW17339   4.635   7.595   6.513  0.3864 -0.7107  0.2801
 1872SOL    HW117340   4.540   7.604   6.521  0.5964  1.2955  1.1917
 1872SOL    HW217341   4.668   7.614   6.601  1.6945 -0.5001 -0.2342
 1873SOL     OW17342   3.371   8.540  10.600  0.2275  0.6827 -0.4650
 1873SOL    HW117343   3.303   8.603  10.624 -0.1356 -0.1221  0.6634
 1873SOL    HW217344   3.453   8.579  10.632  0.4422  1.9517 -2.3783
 1874SOL     OW17345   1.667   1.897  10.248 -0.0509  0.2873  0.1514
 1874SOL    HW117346   1.732   1.871  10.314 -2.1956 -2.0139  1.4960
 1874SOL    HW217347   1.718   1.903  10.167  2.1521  0.2816  1.4384
 1875SOL     OW17348   4.536  10.085   1.443 -0.3754  0.3186  0.1616
 1875SOL    HW117349   4.619  10.058   1.405 -0.8390 -1.3199  0.2113
 1875SOL    HW217350   4.526  10.029   1.520 -1.0123  1.2635  0.7855
 1876SOL     OW17351   0.074   0.876   5.977 -0.0948 -0.4546 -0.1557
 1876SOL    HW117352   0.085   0.948   6.039  1.1119  0.1517 -1.0370
 1876SOL    HW217353   0.154   0.876   5.926 -0.2738 -2.1440 -0.4876
 1877SOL     OW17354   2.923   8.948   2.004  0.2139  0.1636 -0.0942
 1877SOL    HW117355   2.969   9.031   1.994  0.8322  0.0258  1.2717
 1877SOL    HW217356   2.987   8.882   1.978 -0.0516  0.0753 -0.5348
 1878SOL     OW17357  10.032   6.826  11.182  0.6551  0.3802  0.3233
 1878SOL    HW117358  10.021   6.846  11.090  1.5367  0.0394  0.1329
 1878SOL    HW217359  10.051   6.732  11.184  1.4905  0.5505  0.7705
 1879SOL     OW17360  11.250   2.868   9.266 -0.5686  0.2146  0.1118
 1879SOL    HW117361  11.245   2.960   9.240 -0.5305  0.7719  1.9475
 1879SOL    HW217362  11.208   2.866   9.352  0.3273 -1.3159  0.5323
 1880SOL     OW17363   6.050   3.910   0.617  0.1671 -0.2301  0.2123
 1880SOL    HW117364   6.035   3.871   0.530 -1.5610  0.2282  0.2782
 1880SOL    HW217365   6.145   3.914   0.625  0.3610 -0.5761 -1.5334
 1881SOL     OW17366  11.351   9.507   9.338  0.0332  0.0719  0.2544
 1881SOL    HW117367  11.442   9.535   9.345  0.1192 -0.0418 -0.3629
 1881SOL    HW217368  11.352   9.417   9.372  0.4274 -0.4453 -1.0795
 1882SOL     OW17369   9.358   0.729   5.348 -0.3040  0.0201  0.2875
 1882SOL    HW117370   9.272   0.722   5.389  0.6428  0.3212  2.4888
 1882SOL    HW217371   9.360   0.817   5.311 -0.6339  0.3582  1.0441
 1883SOL     OW17372   9.615   8.260   8.141 -0.3092  0.7980 -0.1182
 1883SOL    HW117373   9.549   8.191   8.131 -0.0127  0.4681  0.1749
 1883SOL    HW217374   9.617   8.277   8.235  0.9216 -0.0934  0.0429
 1884SOL     OW17375   5.406   2.736  10.096 -0.7294 -0.2249  0.0733
 1884SOL    HW117376   5.402   2.736  10.191 -1.4626 -3.5095  0.1708
 1884SOL    HW217377   5.334   2.679  10.069 -1.0788  1.2794 -2.5305
 1885SOL     OW17378   0.002   7.005   9.967  0.0497 -0.1453  0.0719
 1885SOL    HW117379   0.042   7.091   9.955  0.4886 -0.1721  1.2375
 1885SOL    HW217380  -0.088   7.016   9.937 -0.5950  1.3743  2.2600
 1886SOL     OW17381   1.104   2.466   4.207 -0.0287 -0.0132 -0.0811
 1886SOL    HW117382   1.046   2.394   4.231  1.1917 -1.5996 -1.5631
 1886SOL    HW217383   1.051   2.544   4.216 -2.0016 -1.2721 -0.1876
 1887SOL     OW17384  10.563   8.707   8.225  0.1021  0.1550 -0.2201
 1887SOL    HW117385  10.482   8.710   8.174  0.1843  1.6985 -0.3071
 1887SOL    HW217386  10.535   8.711   8.316  0.0706  1.0872 -0.2587
 1888SOL     OW17387   1.701   0.099   4.425 -0.2752  0.4235 -0.1558
 1888SOL    HW117388   1.627   0.117   4.483  0.3408  0.2746  0.6887
 1888SOL    HW217389   1.663   0.101   4.337 -1.7968 -2.1188  0.3590
 1889SOL     OW17390   7.634   4.882   7.259  0.1100  0.0495  0.4906
 1889SOL    HW117391   7.645   4.872   7.354  1.1875  0.1825  0.3829
 1889SOL    HW217392   7.627   4.977   7.245  0.7843  0.0844  0.3565
 1890SOL     OW17393  11.391   8.400   6.079  0.2603 -0.4578 -0.1931
 1890SOL    HW117394  11.482   8.427   6.068  0.2087 -0.1437  0.1551
 1890SOL    HW217395  11.380   8.329   6.015  0.1357  0.9202 -1.7719
 1891SOL     OW17396   6.443  11.520   2.656 -0.4897  0.3108  0.1386
 1891SOL    HW117397   6.462  11.519   2.562  0.6162  0.8899  0.3349
 1891SOL    HW217398   6.438  11.427   2.680  0.8180  0.1274 -0.2108
 1892SOL     OW17399   7.767  10.304   1.232  1.2246 -0.8539  0.4687
 1892SOL    HW117400   7.743  10.217   1.262 -0.0835 -0.8186 -0.3900
 1892SOL    HW217401   7.786  10.353   1.313 -0.7247 -1.1756  1.1657
 1893SOL     OW17402   5.744   3.717   2.936  0.5475 -0.2738 -0.1895
 1893SOL    HW117403   5.683   3.653   2.972  0.0053  0.4118  0.1544
 1893SOL    HW217404   5.726   3.718   2.842 -0.8228  0.7681  0.0587
 1894SOL     OW17405  10.754   0.255  10.078 -0.4751 -0.1830  0.3665
 1894SOL    HW117406  10.799   0.300  10.006  0.4015 -1.5098  0.0623
 1894SOL    HW217407  10.712   0.326  10.127 -1.3235  0.7324 -1.5825
 1895SOL     OW17408   9.937   7.547   6.710 -0.5956  0.3630  0.2364
 1895SOL    HW117409  10.010   7.542   6.772 -0.0694 -2.1365 -0.4941
 1895SOL    HW217410   9.978   7.551   6.624 -1.3315  0.8509 -0.1032
 1896SOL     OW17411   7.875   4.850   7.734  0.1864 -0.3857 -0.1834
 1896SOL    HW117412   7.946   4.791   7.707 -0.0330 -1.3784  1.2613
 1896SOL    HW217413   7.842   4.811   7.815  0.9280  2.4289  1.6243
 1897SOL     OW17414   3.604   7.537   7.486  0.1349  0.7674 -0.2689
 1897SOL    HW117415   3.662   7.462   7.502 -0.3044  0.6716  1.0096
 1897SOL    HW217416   3.645   7.609   7.533  0.5249  1.3386 -1.4508
 1898SOL     OW17417   0.298  11.214   1.671  0.6770  0.3074  0.0520
 1898SOL    HW117418   0.261  11.194   1.757  0.4599 -0.8441 -0.2886
 1898SOL    HW217419   0.226  11.255   1.623  0.3914 -0.2369  0.0037
 1899SOL     OW17420   9.634   0.129   9.193  0.0657 -0.2848  0.1105
 1899SOL    HW117421   9.548   0.170   9.187  0.6486  0.7151 -2.0013
 1899SOL    HW217422   9.628   0.074   9.272 -1.7981  1.3426  1.1881
 1900SOL     OW17423   3.120   8.689  11.809 -0.6848  0.6713  0.4071
 1900SOL    HW117424   3.083   8.733  11.732 -1.2983  1.3127  1.0449
 1900SOL    HW217425   3.065   8.719  11.881 -0.6649 -0.5998  0.9754
 1901SOL     OW17426   4.144   7.870  10.293  0.1110 -0.4341 -0.2802
 1901SOL    HW117427   4.124   7.788  10.249  1.5456 -1.1894  0.4129
 1901SOL    HW217428   4.068   7.926  10.275 -0.2835 -1.4271 -1.8943
 1902SOL     OW17429   6.856   8.743   0.942 -0.0888 -0.2229  0.2908
 1902SOL    HW117430   6.784   8.795   0.906  0.7863 -0.5680 -2.1367
 1902SOL    HW217431   6.825   8.653   0.937 -0.4560 -0.2086  1.7390
 1903SOL     OW17432   2.895   5.565   8.343 -0.0077 -0.2485  0.4030
 1903SOL    HW117433   2.861   5.612   8.419  2.4384  2.5057 -0.0220
 1903SOL    HW217434   2.990   5.569   8.353  0.3557 -1.7339 -1.7129
 1904SOL     OW17435   9.988   1.582   5.818 -0.4345  0.0519 -0.1364
 1904SOL    HW117436  10.023   1.516   5.877 -0.4139 -0.4286 -0.6818
 1904SOL    HW217437   9.917   1.624   5.867 -1.3821 -1.3141 -0.2799
 1905SOL     OW17438   2.991   6.303   9.308 -0.0928 -0.2207 -0.2287
 1905SOL    HW117439   2.917   6.274   9.361 -0.2731  1.0939  0.2820
 1905SOL    HW217440   3.007   6.230   9.247 -0.1787 -1.5777  1.3030
 1906SOL     OW17441   1.587   1.227  10.562  0.5877 -0.2847  0.2768
 1906SOL    HW117442   1.631   1.230  10.647 -1.1954  0.7649  1.2414
 1906SOL    HW217443   1.589   1.134  10.537  3.1720 -0.2963  0.2851
 1907SOL     OW17444   1.836   2.285   1.143 -0.3527  0.2855 -0.1666
 1907SOL    HW117445   1.863   2.363   1.095  0.2390  0.9260  1.1732
 1907SOL    HW217446   1.816   2.316   1.231 -2.2125 -0.7371 -0.1637
 1908SOL     OW17447   1.666   5.829   6.882 -0.1893 -0.3436  0.2104
 1908SOL    HW117448   1.656   5.915   6.841  1.2922  0.3189  1.1318
 1908SOL    HW217449   1.761   5.819   6.894 -0.2567 -2.4688 -0.5656
 1909SOL     OW17450   5.878   7.693   7.323  0.3553  0.3894 -0.0501
 1909SOL    HW117451   5.851   7.754   7.254 -0.0677  0.7458  0.4222
 1909SOL    HW217452   5.868   7.606   7.283 -1.1269  0.5245 -0.0324
 1910SOL     OW17453   7.324   1.629   1.794  0.3855  0.1940  0.1011
 1910SOL    HW117454   7.393   1.581   1.839  0.2818 -0.3975 -0.3461
 1910SOL    HW217455   7.297   1.697   1.855 -0.0303 -0.8382  1.1054
 1911SOL     OW17456   9.870   3.172   5.195  0.1756  0.2530  0.1441
 1911SOL    HW117457   9.890   3.210   5.280  1.1890  0.1666 -0.0447
 1911SOL    HW217458   9.797   3.225   5.162  0.7630  1.2542  0.4186
 1912SOL     OW17459   5.146   8.368   4.489 -0.7238  0.0896 -0.1444
 1912SOL    HW117460   5.217   8.393   4.548 -0.6689 -0.8853  0.2239
 1912SOL    HW217461   5.067   8.397   4.534 -0.5347  2.0548 -1.0066
 1913SOL     OW17462   0.325  10.776   5.530  0.1320 -0.0538 -0.1787
 1913SOL    HW117463   0.235  10.759   5.559  0.2259 -0.1820  0.0455
 1913SOL    HW217464   0.347  10.862   5.567 -0.3094  0.5193 -1.2302
 1914SOL     OW17465   0.184   1.304  10.721  0.2263 -0.0147 -0.3270
 1914SOL    HW117466   0.235   1.223  10.720  1.3466  0.5888  2.0357
 1914SOL    HW217467   0.248   1.372  10.742 -1.3674  0.8670  2.0025
 1915SOL     OW17468   8.747   9.914  11.691 -0.5121  0.0871  1.1448
 1915SOL    HW117469   8.713   9.836  11.734 -2.4134  0.7891  1.0109
 1915SOL    HW217470   8.671   9.970  11.680  0.5598  1.3866 -0.0092
 1916SOL     OW17471   0.327   8.340   5.409  0.3419 -0.0891  0.4122
 1916SOL    HW117472   0.255   8.382   5.363  0.3962 -0.7199 -0.2607
 1916SOL    HW217473   0.285   8.283   5.473  0.2496 -0.3884  0.0816
 1917SOL     OW17474   5.039   9.835   8.097  0.3151  0.2179 -0.4010
 1917SOL    HW117475   4.953   9.839   8.057 -0.4939 -2.9372  0.6855
 1917SOL    HW217476   5.081   9.760   8.055  0.7392 -1.0636  2.0743
 1918SOL     OW17477   6.298   0.838   6.546  0.3251  0.1023  0.4625
 1918SOL    HW117478   6.325   0.902   6.479  1.3175 -2.2249 -1.4935
 1918SOL    HW217479   6.380   0.800   6.577 -0.2539 -0.3083  1.5292
 1919SOL     OW17480   9.416   9.613   9.214 -0.2726  0.3732  0.2875
 1919SOL    HW117481   9.479   9.609   9.285 -0.8285  0.1373  0.7787
 1919SOL    HW217482   9.464   9.653   9.141  0.1751  1.0210  0.9223
 1920SOL     OW17483   5.720   4.281   8.599 -0.0617 -0.6508 -0.2576
 1920SOL    HW117484   5.692   4.211   8.659  0.3381 -0.6155 -0.0269
 1920SOL    HW217485   5.638   4.321   8.570 -0.2420  0.0579  1.1450
 1921SOL     OW17486   2.187   1.183   2.891 -0.9353 -0.0565  0.3833
 1921SOL    HW117487   2.180   1.224   2.806  0.8089  1.7237  1.0103
 1921SOL    HW217488   2.098   1.179   2.925 -1.3058  2.1534 -0.2306
 1922SOL     OW17489   4.029   4.524   2.952  0.2055 -1.0419 -0.8055
 1922SOL    HW117490   4.022   4.561   3.040 -0.9201  1.0527 -1.7017
 1922SOL    HW217491   4.115   4.553   2.921  0.6888 -1.9521 -0.3490
 1923SOL     OW17492   1.987  11.313   6.524  0.2006 -0.0793 -0.0252
 1923SOL    HW117493   1.987  11.409   6.521 -0.1998 -0.0494 -3.4995
 1923SOL    HW217494   1.902  11.290   6.562 -0.2324  0.9828 -0.3127
 1924SOL     OW17495   6.700   0.843   6.453 -0.7533  0.4862  0.2481
 1924SOL    HW117496   6.788   0.868   6.482 -1.3044  0.3039  2.2333
 1924SOL    HW217497   6.657   0.813   6.532 -2.2057 -0.6736 -0.9308
 1925SOL     OW17498  10.820   6.983   6.285  0.9339  0.7332 -0.4543
 1925SOL    HW117499  10.840   6.972   6.378 -0.6548 -1.5924 -0.3031
 1925SOL    HW217500  10.877   6.921   6.240  1.3710  1.5270 -1.0422
 1926SOL     OW17501   1.786   9.830   7.082  0.8230  0.0263 -0.0516
 1926SOL    HW117502   1.715   9.778   7.121 -0.3488  2.1411  0.8104
 1926SOL    HW217503   1.754   9.920   7.085  3.0750  0.9155 -0.7797
 1927SOL     OW17504   6.358   9.132  10.339  0.5698  0.5828  0.2279
 1927SOL    HW117505   6.293   9.124  10.270  0.8029 -1.5613  0.2117
 1927SOL    HW217506   6.342   9.219  10.377 -1.2568  0.7360 -0.7873
 1928SOL     OW17507   2.162   3.556  10.749 -0.4683  0.2699  0.3056
 1928SOL    HW117508   2.193   3.644  10.770 -1.2724  0.3324  1.2717
 1928SOL    HW217509   2.073   3.570  10.715  0.1250  0.0023 -1.5068
 1929SOL     OW17510   6.872  10.309   5.221 -0.4518 -0.9099  0.3014
 1929SOL    HW117511   6.960  10.274   5.238  0.3252  1.1011  0.5989
 1929SOL    HW217512   6.847  10.271   5.137  1.2826 -0.4680 -0.4536
 1930SOL     OW17513   3.002   4.723   7.111 -0.5367  0.2120  0.0656
 1930SOL    HW117514   2.938   4.714   7.182 -2.1881  0.5809 -1.3021
 1930SOL    HW217515   3.037   4.811   7.122 -0.8879  0.3206  0.3509
 1931SOL     OW17516   1.048   1.732   4.745  0.4826 -0.4681 -0.1176
 1931SOL    HW117517   1.027   1.808   4.799  2.9497  0.0252  0.2720
 1931SOL    HW217518   1.034   1.657   4.803 -0.4339 -0.2182  0.0007
 1932SOL     OW17519   2.970  11.168   8.183 -0.3243  0.3465  0.3956
 1932SOL    HW117520   2.894  11.152   8.127  0.1592  0.7067 -0.3840
 1932SOL    HW217521   3.028  11.093   8.167 -0.7717 -0.2511  1.4624
 1933SOL     OW17522   8.112   0.989   7.978  0.5019  0.7414  0.5451
 1933SOL    HW117523   8.204   0.983   8.004  1.0797  3.4982 -0.5589
 1933SOL    HW217524   8.114   0.996   7.882 -0.8691  0.8074  0.4969
 1934SOL     OW17525   8.485   3.470  10.073 -0.2444 -0.3250 -0.0036
 1934SOL    HW117526   8.395   3.491  10.098 -0.2263 -0.2420 -0.0095
 1934SOL    HW217527   8.506   3.532  10.004 -0.0462 -0.0830  0.2725
 1935SOL     OW17528  10.844   3.319   3.287 -0.7362 -0.2734  0.1044
 1935SOL    HW117529  10.827   3.400   3.239 -0.7640 -0.7567 -0.7206
 1935SOL    HW217530  10.893   3.346   3.364 -0.8577  0.5404 -0.0982
 1936SOL     OW17531   3.567   1.999   0.137  0.2898 -0.1143  0.3227
 1936SOL    HW117532   3.512   1.962   0.206  1.7040 -2.9033  0.0906
 1936SOL    HW217533   3.627   2.057   0.184 -2.9237  3.4198  0.5248
 1937SOL     OW17534   4.844   0.569  11.945  0.0869 -0.5564 -0.2448
 1937SOL    HW117535   4.767   0.624  11.934 -0.0630 -0.7534 -0.1753
 1937SOL    HW217536   4.855   0.527  11.859  1.5251  1.2840 -1.0426
 1938SOL     OW17537   2.679   5.465   5.535 -0.2255  0.0385  0.5171
 1938SOL    HW117538   2.686   5.558   5.515  0.0654  0.1931  1.3248
 1938SOL    HW217539   2.748   5.424   5.483 -1.2375  0.0821 -0.9316
 1939SOL     OW17540   8.686   5.453   2.613 -0.2368 -0.1103 -0.3764
 1939SOL    HW117541   8.718   5.500   2.536  1.2707  1.1307  0.9455
 1939SOL    HW217542   8.733   5.370   2.611  0.4288  0.2566 -0.3573
 1940SOL     OW17543   8.111   9.532   3.007  0.1092  0.6835 -0.6510
 1940SOL    HW117544   8.077   9.596   3.070  1.1140 -0.8746  1.6156
 1940SOL    HW217545   8.034   9.503   2.958 -0.9811  0.9296  0.8489
 1941SOL     OW17546   7.992   5.280   6.827 -0.0193 -0.1362 -0.0914
 1941SOL    HW117547   7.941   5.270   6.908  0.7899 -0.2602  0.4084
 1941SOL    HW217548   7.927   5.306   6.762 -0.5666  0.7234  0.7627
 1942SOL     OW17549   9.222   1.412   4.808  0.5227 -0.0105 -0.4746
 1942SOL    HW117550   9.240   1.477   4.740  0.3668 -0.9888 -1.4878
 1942SOL    HW217551   9.309   1.383   4.837  0.5910  0.4753 -0.1878
 1943SOL     OW17552   6.412   4.263   5.416  0.5029  0.3931 -0.3750
 1943SOL    HW117553   6.490   4.209   5.413 -0.2796 -0.7640 -3.0672
 1943SOL    HW217554   6.427   4.331   5.350 -0.4657  0.5935 -0.4146
 1944SOL     OW17555  10.049   6.018   2.108 -0.2089  0.2772 -0.5511
 1944SOL    HW117556  10.057   5.965   2.029 -0.0529 -0.7237  0.1239
 1944SOL    HW217557   9.993   5.967   2.167  1.5384 -0.1073  0.8776
 1945SOL     OW17558   0.889   0.886   6.090  1.1419  0.4231  0.1799
 1945SOL    HW117559   0.909   0.835   6.169  0.5963  1.1062  0.7738
 1945SOL    HW217560   0.893   0.822   6.019 -1.1334 -0.8284  1.0946
 1946SOL     OW17561  11.641   0.907   7.779  0.3858 -0.1878 -0.4900
 1946SOL    HW117562  11.705   0.835   7.772  0.3067 -0.3342  0.1941
 1946SOL    HW217563  11.572   0.872   7.836  0.2418  0.3576 -0.3230
 1947SOL     OW17564   2.798   0.274   9.668  0.6647  0.2272  0.1080
 1947SOL    HW117565   2.756   0.211   9.610 -1.2244  0.1317  1.5078
 1947SOL    HW217566   2.784   0.240   9.757  0.9830  1.8084  0.8142
 1948SOL     OW17567   9.854   9.347   8.215  0.3476  0.0319  0.3391
 1948SOL    HW117568   9.920   9.282   8.193 -0.5983 -0.4559 -1.2240
 1948SOL    HW217569   9.892   9.396   8.289  1.2734 -1.9586  1.2535
 1949SOL     OW17570   6.740   0.409   8.389 -0.8604  0.3441 -0.2631
 1949SOL    HW117571   6.730   0.405   8.294 -1.2883 -0.1215 -0.2042
 1949SOL    HW217572   6.834   0.401   8.404 -0.8008  0.3244 -0.6408
 1950SOL     OW17573   5.304   6.577   9.786 -0.4311  0.2401 -0.3949
 1950SOL    HW117574   5.320   6.659   9.739 -1.6910 -0.2103 -1.7026
 1950SOL    HW217575   5.223   6.594   9.835  0.4636  0.4513  1.0824
 1951SOL     OW17576  11.653   2.144  10.754  0.2999 -0.3965  0.1520
 1951SOL    HW117577  11.598   2.214  10.719 -0.8961 -0.6850  1.3807
 1951SOL    HW217578  11.702   2.111  10.678  1.5675  2.3232 -0.3184
 1952SOL     OW17579   8.711   3.082   6.436 -0.2850  0.2346  0.6786
 1952SOL    HW117580   8.725   3.155   6.495 -1.5280 -0.5892  2.0588
 1952SOL    HW217581   8.777   3.017   6.461  1.7461  1.3208 -1.4575
 1953SOL     OW17582   7.257   0.151   1.681  0.1808  0.3176  0.1624
 1953SOL    HW117583   7.228   0.217   1.617  1.4074  0.4951 -0.2314
 1953SOL    HW217584   7.263   0.200   1.763  0.2383  0.4986  0.0537
 1954SOL     OW17585  10.771   3.033   4.840 -0.4171  0.1268 -0.0286
 1954SOL    HW117586  10.755   3.011   4.932 -2.4294  1.0227 -0.1007
 1954SOL    HW217587  10.804   3.123   4.842  0.1283 -0.0720 -0.1461
 1955SOL     OW17588  11.735   0.956  10.452  0.1522 -0.3048 -0.4191
 1955SOL    HW117589  11.807   0.894  10.458 -0.8544 -1.7146 -1.9890
 1955SOL    HW217590  11.664   0.915  10.502  0.1982  0.7234  0.5133
 1956SOL     OW17591   9.328   6.616  11.310 -0.3052  0.1614 -0.1117
 1956SOL    HW117592   9.419   6.613  11.280 -0.1212  0.0518  0.4367
 1956SOL    HW217593   9.335   6.633  11.404 -0.8327 -0.4231  0.0412
 1957SOL     OW17594  11.152  11.152   8.895  0.1036  0.1661  0.1179
 1957SOL    HW117595  11.171  11.127   8.805  2.8851  1.4371  0.2336
 1957SOL    HW217596  11.238  11.156   8.937 -0.7937  2.7650  1.9637
 1958SOL     OW17597   8.023   9.431   3.382  0.2859  0.2637  0.4587
 1958SOL    HW117598   7.999   9.509   3.332  0.9211 -0.2016 -0.6377
 1958SOL    HW217599   8.100   9.397   3.335 -0.0396 -1.0623  0.8581
 1959SOL     OW17600   8.595   2.007  10.755 -0.3757  0.0212  0.0055
 1959SOL    HW117601   8.536   1.937  10.728 -1.9333  0.7012  1.4589
 1959SOL    HW217602   8.599   2.066  10.681 -2.1426  0.3326  0.1161
 1960SOL     OW17603  10.153   8.299   8.961  0.1704 -0.3130  0.5568
 1960SOL    HW117604  10.181   8.233   9.023  0.7369 -0.9240 -0.3213
 1960SOL    HW217605  10.217   8.294   8.890  0.5671  1.5830  0.7297
 1961SOL     OW17606   7.170   1.588   3.936 -0.4266  0.2513 -0.4031
 1961SOL    HW117607   7.187   1.669   3.886  0.6270  0.4720  0.2969
 1961SOL    HW217608   7.213   1.602   4.020  0.7345 -1.4941 -0.6736
 1962SOL     OW17609   5.840   8.549   2.940  0.5622  0.0805  0.4107
 1962SOL    HW117610   5.862   8.625   2.886 -0.0511 -0.0376 -0.0101
 1962SOL    HW217611   5.779   8.498   2.887  1.3485 -0.9727  0.4874
 1963SOL     OW17612   9.637   5.187   5.031  0.3038 -0.4201 -0.2896
 1963SOL    HW117613   9.653   5.176   4.937  1.2392 -0.3069 -0.1477
 1963SOL    HW217614   9.546   5.216   5.036  1.1822  2.8929 -1.3807
 1964SOL     OW17615  11.272   9.543   7.765 -0.5147  0.4345  0.2027
 1964SOL    HW117616  11.242   9.582   7.683 -0.6869  1.6215  0.8045
 1964SOL    HW217617  11.364   9.567   7.771 -0.6675  0.9319  0.6653
 1965SOL     OW17618   5.651  11.440   3.817 -0.2512 -0.7698  0.2340
 1965SOL    HW117619   5.696  11.361   3.787 -0.8176 -2.4462  3.2958
 1965SOL    HW217620   5.713  11.482   3.877 -0.5920  0.2041 -0.0715
 1966SOL     OW17621   2.165   5.217   9.141 -0.2453 -0.2149  0.0060
 1966SOL    HW117622   2.134   5.168   9.217  2.2562  1.1974  2.1266
 1966SOL    HW217623   2.260   5.205   9.142  0.0582  1.5160 -1.6759
 1967SOL     OW17624   0.760   4.527   1.804 -1.0213  0.2639  0.4627
 1967SOL    HW117625   0.763   4.441   1.847 -1.2621 -0.7101 -1.3907
 1967SOL    HW217626   0.673   4.531   1.765 -0.0310  0.0479 -1.9433
 1968SOL     OW17627   4.245   7.116   6.941 -0.1065 -0.9530  0.5820
 1968SOL    HW117628   4.326   7.122   6.891  0.0102  0.4450  0.8868
 1968SOL    HW217629   4.270   7.136   7.031 -0.8548  0.0490  0.5881
 1969SOL     OW17630   7.469  11.454   6.477 -0.0691 -0.7996  0.3875
 1969SOL    HW117631   7.517  11.429   6.399 -0.1239 -1.3531  0.5278
 1969SOL    HW217632   7.377  11.456   6.450  0.1051  1.8050 -0.3024
 1970SOL     OW17633   2.873   0.039   4.915 -0.7538 -0.6500 -0.5206
 1970SOL    HW117634   2.806  -0.018   4.953 -0.4230  0.0219  1.1634
 1970SOL    HW217635   2.873   0.117   4.970  1.1254 -0.4688 -0.6841
 1971SOL     OW17636   4.308   5.451   0.214  0.1893  0.1627  0.1868
 1971SOL    HW117637   4.293   5.395   0.290  2.9229  1.2574  1.6727
 1971SOL    HW217638   4.262   5.532   0.233 -1.6740 -0.5912 -0.8212
 1972SOL     OW17639   4.444   2.453   3.675 -0.1228 -0.1624 -0.1296
 1972SOL    HW117640   4.356   2.418   3.664  0.0215 -0.2036 -1.3766
 1972SOL    HW217641   4.487   2.435   3.591  1.1593 -0.3860  0.5498
 1973SOL     OW17642  10.665   3.386   7.434  0.6900  0.8191 -0.2934
 1973SOL    HW117643  10.586   3.349   7.395  0.8840  0.9185 -0.7780
 1973SOL    HW217644  10.681   3.332   7.512 -0.7966  1.8296  0.7680
 1974SOL     OW17645   4.873   3.856  10.282  0.1247 -0.1679  0.5348
 1974SOL    HW117646   4.850   3.947  10.261  0.4322 -0.0761  0.5930
 1974SOL    HW217647   4.796   3.805  10.255  0.6195 -0.1004 -1.1443
 1975SOL     OW17648   8.133  10.768   5.921 -0.5529 -0.0288 -0.6568
 1975SOL    HW117649   8.209  10.824   5.906  1.9173 -3.3715 -1.7745
 1975SOL    HW217650   8.062  10.811   5.873  1.1315  2.0912 -1.4528
 1976SOL     OW17651   2.265   9.908  10.508  0.1994 -1.3080  0.0893
 1976SOL    HW117652   2.224   9.831  10.547  0.1346 -1.3271 -0.0148
 1976SOL    HW217653   2.299   9.957  10.582  0.5889 -1.6349  0.1320
 1977SOL     OW17654  10.380   4.166  11.882 -0.4709 -0.2531 -0.0254
 1977SOL    HW117655  10.426   4.082  11.885  0.3312  0.1860  0.6283
 1977SOL    HW217656  10.445   4.227  11.849 -0.4605  0.4496  1.2374
 1978SOL     OW17657   4.340   0.156   2.492  0.1377 -0.7177 -0.0826
 1978SOL    HW117658   4.344   0.193   2.580  1.3238 -1.1118  0.0514
 1978SOL    HW217659   4.427   0.119   2.477 -0.4339 -1.8157 -0.9165
 1979SOL     OW17660   0.773   8.231   9.412 -0.1873  0.3840 -0.0124
 1979SOL    HW117661   0.857   8.184   9.405 -0.6008 -0.3921  0.1545
 1979SOL    HW217662   0.728   8.210   9.330 -0.8841 -0.5394  0.5824
 1980SOL     OW17663   6.329   4.520   3.277  0.0634  0.2483 -0.0218
 1980SOL    HW117664   6.384   4.442   3.291  0.5273  0.4285 -0.7733
 1980SOL    HW217665   6.372   4.589   3.327 -0.6274 -0.0874  1.0527
 1981SOL     OW17666   4.400   2.699   0.943  0.3997  0.0377  0.2086
 1981SOL    HW117667   4.493   2.687   0.966  0.3668  0.0625  0.3548
 1981SOL    HW217668   4.381   2.626   0.884  0.5085  0.0254  0.1871
 1982SOL     OW17669   1.885   1.734   7.193  0.1384 -0.0953 -0.1717
 1982SOL    HW117670   1.813   1.767   7.140 -1.7633 -2.4458  0.7845
 1982SOL    HW217671   1.937   1.680   7.134  1.8160  2.3174 -1.0988
 1983SOL     OW17672   6.905   6.646   4.268  0.1862 -0.1299 -0.2976
 1983SOL    HW117673   6.838   6.644   4.200  1.7545 -0.5644 -1.8883
 1983SOL    HW217674   6.906   6.557   4.303  0.6097 -0.3843 -0.9550
 1984SOL     OW17675   5.813   5.653   0.320  0.0329  0.3047 -0.7497
 1984SOL    HW117676   5.891   5.708   0.318 -0.2539  0.7663  0.3067
 1984SOL    HW217677   5.833   5.581   0.259  0.4989  1.4439 -1.9814
 1985SOL     OW17678   8.933  11.523   0.655  0.0979  0.5430 -0.7893
 1985SOL    HW117679   8.867  11.553   0.716 -0.3881  1.4528 -1.7322
 1985SOL    HW217680   8.884  11.484   0.583  0.6798 -1.3651 -0.2112
 1986SOL     OW17681   9.741   2.076   3.068  1.2226 -0.2249  0.0567
 1986SOL    HW117682   9.812   2.030   3.025  2.3437  1.3117  0.1760
 1986SOL    HW217683   9.750   2.167   3.040 -0.6568  0.0396  0.1360
 1987SOL     OW17684   7.413   7.963   2.997  0.0175 -0.0500 -0.1498
 1987SOL    HW117685   7.456   8.030   2.944  0.4856  0.1539  0.4795
 1987SOL    HW217686   7.325   7.955   2.959  0.8543 -1.0539 -1.9728
 1988SOL     OW17687   6.428   9.397   2.526 -0.4749 -0.4587 -0.0928
 1988SOL    HW117688   6.351   9.454   2.528 -1.7512 -2.1073  0.6038
 1988SOL    HW217689   6.475   9.422   2.447 -1.7979  0.5260 -0.5911
 1989SOL     OW17690   9.011   2.122   9.023  0.6708 -0.1436 -0.1906
 1989SOL    HW117691   9.037   2.032   9.006 -0.4359 -0.7113  0.9418
 1989SOL    HW217692   8.952   2.116   9.098  0.1219  1.4621 -0.4573
 1990SOL     OW17693  11.704   4.980   2.314  0.2576 -0.0464  0.0795
 1990SOL    HW117694  11.621   5.028   2.313  0.2508  0.0119  1.3611
 1990SOL    HW217695  11.692   4.909   2.251 -1.5828 -1.3333  1.7591
 1991SOL     OW17696   8.585  10.955   8.036  0.7788  0.0508  0.0619
 1991SOL    HW117697   8.576  10.885   8.101 -1.5247  0.0220 -0.2144
 1991SOL    HW217698   8.590  11.035   8.088 -0.2212 -0.0407  0.3173
 1992SOL     OW17699   6.620   0.343  10.776  0.2191 -0.0486 -0.5811
 1992SOL    HW117700   6.609   0.281  10.848  2.6760  0.4596  0.3085
 1992SOL    HW217701   6.568   0.419  10.802  0.1657 -0.3122  0.1039
 1993SOL     OW17702   7.168   8.318   4.263  0.1309  0.2462  0.5633
 1993SOL    HW117703   7.096   8.299   4.202  0.7280  0.4125 -0.2059
 1993SOL    HW217704   7.231   8.247   4.249  0.4422  0.4859  0.7237
 1994SOL     OW17705   5.196   6.567   2.922 -0.1056  0.0112 -0.2513
 1994SOL    HW117706   5.280   6.521   2.908 -0.4948 -0.7268 -0.2380
 1994SOL    HW217707   5.221   6.655   2.947  0.6595  0.1058 -1.2838
 1995SOL     OW17708   3.505   2.838   1.306 -0.9222 -0.5399 -0.2845
 1995SOL    HW117709   3.537   2.910   1.360 -0.6665 -2.4792  2.3598
 1995SOL    HW217710   3.551   2.849   1.222  2.3791  0.0630  1.4027
 1996SOL     OW17711   5.930   2.367   8.045 -0.7018 -0.1525  0.5184
 1996SOL    HW117712   5.892   2.397   7.962  0.4864  1.6676  0.5858
 1996SOL    HW217713   6.005   2.424   8.059  3.0915 -4.3653 -0.3628
 1997SOL     OW17714   9.806   4.714   7.387 -0.1104  0.4210  0.4364
 1997SOL    HW117715   9.746   4.782   7.358  0.2478 -0.1553 -1.9069
 1997SOL    HW217716   9.750   4.648   7.429 -1.0532  0.2546 -1.0197
 1998SOL     OW17717   0.249   8.249   8.231 -0.1309 -0.3325 -0.1784
 1998SOL    HW117718   0.338   8.256   8.265 -0.0727 -0.1684 -0.3647
 1998SOL    HW217719   0.223   8.339   8.213  0.6407 -0.5277 -2.6401
 1999SOL     OW17720   6.512   8.282  10.370  0.2580 -0.5827  0.1164
 1999SOL    HW117721   6.592   8.253  10.326 -0.0853 -0.3876 -0.6392
 1999SOL    HW217722   6.534   8.368  10.407  0.7086 -0.9789  0.7993
 2000SOL     OW17723   4.884   5.463   4.326  0.4059 -0.1349 -0.3195
 2000SOL    HW117724   4.881   5.398   4.256 -3.5149 -0.3406 -0.2021
 2000SOL    HW217725   4.868   5.547   4.283 -0.6347 -0.0890  0.1075
 2001SOL     OW17726  10.547   0.084   5.160 -0.1979  0.0423 -0.1998
 2001SOL    HW117727  10.523   0.176   5.176  0.9349  0.3160  0.0342
 2001SOL    HW217728  10.625   0.090   5.106 -0.9504 -0.8213 -1.4043
 2002SOL     OW17729   0.648   5.029   0.033  0.0831 -0.6311  0.1153
 2002SOL    HW117730   0.735   5.016  -0.006 -0.0020  0.8671 -0.6490
 2002SOL    HW217731   0.665   5.038   0.127  0.8247  0.0935 -0.0736
 2003SOL     OW17732   2.791   7.826   2.709 -0.3391  0.2870 -0.2863
 2003SOL    HW117733   2.877   7.791   2.731 -1.4838 -2.3261  0.4791
 2003SOL    HW217734   2.791   7.914   2.747  1.2540 -0.4432  1.6270
 2004SOL     OW17735  10.655   2.954   4.601 -0.0641  0.0690 -0.0436
 2004SOL    HW117736  10.696   2.992   4.678 -2.7347 -1.0580  2.0852
 2004SOL    HW217737  10.608   3.026   4.559  0.8939  0.5589 -0.2923
 2005SOL     OW17738   8.329   2.187   1.637 -0.2163 -0.0097  0.1315
 2005SOL    HW117739   8.393   2.242   1.592  1.4647 -1.3372  0.8189
 2005SOL    HW217740   8.286   2.138   1.567 -0.5916  0.9638 -0.3451
 2006SOL     OW17741   6.940   3.979   9.387 -0.1204 -0.5390 -0.0273
 2006SOL    HW117742   6.855   4.010   9.355 -1.5283 -1.9138  2.1154
 2006SOL    HW217743   6.959   4.035   9.462  1.7472  0.7895 -1.3724
 2007SOL     OW17744   7.944   1.051   3.051 -0.6874  0.6202 -0.3895
 2007SOL    HW117745   7.908   1.112   3.115 -0.5179  1.8163 -1.4115
 2007SOL    HW217746   8.001   1.104   2.996  1.3095 -0.9071  0.1090
 2008SOL     OW17747  10.251  10.873   8.259 -0.2321 -0.1418 -0.1029
 2008SOL    HW117748  10.307  10.825   8.197  1.8883  1.5282  0.3863
 2008SOL    HW217749  10.168  10.825   8.258 -0.2802 -0.3673 -4.0643
 2009SOL     OW17750   1.560   5.673   8.709 -0.4529 -0.3482  0.3945
 2009SOL    HW117751   1.651   5.694   8.728 -0.7063 -1.4542  3.6237
 2009SOL    HW217752   1.509   5.739   8.756 -1.2042 -1.9121  1.9543
 2010SOL     OW17753   4.267   7.342  11.357  0.1154  0.0198 -0.7847
 2010SOL    HW117754   4.295   7.261  11.400  1.2634  0.9851  0.3659
 2010SOL    HW217755   4.183   7.320  11.316  0.7978 -1.9754 -1.2247
 2011SOL     OW17756   4.776   6.167   3.962 -0.2455 -0.3732 -0.5638
 2011SOL    HW117757   4.730   6.146   4.043 -0.9444 -1.2075 -1.1509
 2011SOL    HW217758   4.706   6.184   3.899  0.2812 -0.2361 -1.1226
 2012SOL     OW17759   8.106   7.020  11.685 -0.1274 -0.2435 -0.0031
 2012SOL    HW117760   8.022   7.065  11.681 -0.5660 -1.0371  0.0247
 2012SOL    HW217761   8.168   7.081  11.646 -0.9108 -0.0870 -1.0552
 2013SOL     OW17762  10.505   5.940   1.471  0.1418 -0.5614 -0.0710
 2013SOL    HW117763  10.483   6.028   1.439  1.7388 -0.2533 -0.3796
 2013SOL    HW217764  10.573   5.955   1.537  0.9899 -1.6179 -0.6763
 2014SOL     OW17765   3.778  11.815   1.436 -0.5349  0.8214 -0.2200
 2014SOL    HW117766   3.787  11.739   1.378 -0.7869 -0.6894  1.6085
 2014SOL    HW217767   3.773  11.890   1.377  3.2607 -0.1461 -2.0361
 2015SOL     OW17768   4.764   4.650  11.578  0.3718 -0.5100 -0.2717
 2015SOL    HW117769   4.676   4.670  11.546  0.5039 -0.6751 -0.7430
 2015SOL    HW217770   4.801   4.591  11.513  0.7004 -0.7392  0.1129
 2016SOL     OW17771   1.900   2.985   4.162 -0.5391 -0.2517 -0.2784
 2016SOL    HW117772   1.993   3.000   4.151 -0.4912  0.0791  0.5221
 2016SOL    HW217773   1.868   2.967   4.073  0.1594  0.2951 -0.6479
 2017SOL     OW17774   4.320   7.601   5.243  0.1286 -0.5391  0.0922
 2017SOL    HW117775   4.311   7.695   5.253  0.1559 -0.5340  0.0698
 2017SOL    HW217776   4.231   7.567   5.251  0.0695 -0.4757 -0.2847
 2018SOL     OW17777   5.726   6.141   1.827  0.2115  0.1610  0.1157
 2018SOL    HW117778   5.797   6.077   1.834  0.5228  0.4765 -0.0882
 2018SOL    HW217779   5.670   6.123   1.902  1.2248  0.7592  1.0485
 2019SOL     OW17780   3.478   4.592   2.021  0.1388 -0.2026  0.3471
 2019SOL    HW117781   3.412   4.639   2.071  1.3148  1.4798  0.3798
 2019SOL    HW217782   3.477   4.503   2.059  1.1153  1.0082  3.5630
 2020SOL     OW17783   6.380   7.804   3.709 -0.5816 -0.0866  0.3958
 2020SOL    HW117784   6.286   7.821   3.717 -0.4015  1.0831  0.1340
 2020SOL    HW217785   6.394   7.788   3.616 -0.4198  0.4205  0.3297
 2021SOL     OW17786   7.508   8.957   4.688 -0.2655 -0.1931 -0.2524
 2021SOL    HW117787   7.433   8.927   4.636 -1.3718  0.9979  0.6096
 2021SOL    HW217788   7.532   8.881   4.741 -0.9175 -0.5685 -0.4857
 2022SOL     OW17789   9.714   2.537   8.190 -0.1009 -0.1712  0.4436
 2022SOL    HW117790   9.778   2.565   8.125  1.8346 -0.2055  2.2350
 2022SOL    HW217791   9.644   2.496   8.138  1.5773 -0.6642 -1.5681
 2023SOL     OW17792   5.853  11.591   7.541  0.4998  0.3450 -0.7162
 2023SOL    HW117793   5.770  11.632   7.518  0.6438  0.9174 -0.2252
 2023SOL    HW217794   5.904  11.660   7.583  1.1736 -0.0376 -0.8812
 2024SOL     OW17795  11.260   6.879   8.152 -0.0859  0.2517  0.4454
 2024SOL    HW117796  11.184   6.930   8.127  0.2626 -0.0020 -1.2860
 2024SOL    HW217797  11.334   6.938   8.137  0.1310  0.1180  0.9923
 2025SOL     OW17798   1.129   1.213   8.328  0.4842  0.0357 -0.1711
 2025SOL    HW117799   1.151   1.121   8.345  1.9672  0.0470 -1.7037
 2025SOL    HW217800   1.038   1.211   8.298  0.5120 -0.9376 -0.2298
 2026SOL     OW17801   3.083   9.810   0.661  0.0662  0.1133  0.2750
 2026SOL    HW117802   3.145   9.879   0.684 -0.1657  0.0410  1.1696
 2026SOL    HW217803   3.129   9.757   0.596 -0.5704  2.3803 -2.1959
 2027SOL     OW17804   8.827   3.809   3.737  0.3619 -0.4135  0.1671
 2027SOL    HW117805   8.843   3.734   3.680 -0.4468  0.7613 -1.6908
 2027SOL    HW217806   8.869   3.883   3.693 -0.5155  0.5856  0.9515
 2028SOL     OW17807   1.305   5.910   8.547  0.4185  0.2412  1.1741
 2028SOL    HW117808   1.232   5.972   8.547 -0.3287 -0.6034  0.9282
 2028SOL    HW217809   1.262   5.824   8.548  1.3606 -0.2975 -0.3813
 2029SOL     OW17810   1.277   7.262   8.927 -0.1521 -0.1435  0.4964
 2029SOL    HW117811   1.204   7.324   8.931  1.3975  1.7511  0.7772
 2029SOL    HW217812   1.275   7.230   8.837  0.2491  1.9825 -0.3449
 2030SOL     OW17813   0.964  11.402   8.740  0.1975 -0.4076  0.0525
 2030SOL    HW117814   0.977  11.429   8.831 -0.8908 -0.3471  0.2141
 2030SOL    HW217815   0.935  11.481   8.695 -0.9624 -0.8009  0.0580
 2031SOL     OW17816   6.630   7.323   7.102  0.0098  0.3033 -0.0361
 2031SOL    HW117817   6.670   7.408   7.117  0.1893 -0.0955  2.0066
 2031SOL    HW217818   6.644   7.275   7.183  1.2092 -2.2209 -1.6143
 2032SOL     OW17819   5.750  11.689   7.209 -0.0245 -0.1710  0.0809
 2032SOL    HW117820   5.774  11.612   7.157  1.2109  0.0863  0.2231
 2032SOL    HW217821   5.680  11.659   7.266  0.1237 -1.0656 -0.1895
 2033SOL     OW17822   9.284   1.686   4.334 -0.5174 -0.3718  0.7684
 2033SOL    HW117823   9.378   1.692   4.319 -0.6536 -1.1926 -0.6139
 2033SOL    HW217824   9.274   1.614   4.396 -0.2462 -0.3924  0.7892
 2034SOL     OW17825   3.723   6.574   1.166 -0.0444  1.0730  0.2260
 2034SOL    HW117826   3.685   6.486   1.162 -0.3827  1.1191  1.8382
 2034SOL    HW217827   3.649   6.631   1.185  0.0532  1.8430 -1.5004
 2035SOL     OW17828   2.143   9.635  10.347 -0.4156  0.1268  0.5175
 2035SOL    HW117829   2.159   9.713  10.294 -1.2761  1.6398  2.3429
 2035SOL    HW217830   2.177   9.658  10.434  1.3075 -2.3969  0.6075
 2036SOL     OW17831  11.794   0.743   9.601 -0.2946  0.3990 -0.7489
 2036SOL    HW117832  11.827   0.811   9.542  0.6734  1.4221  0.8873
 2036SOL    HW217833  11.810   0.778   9.689  0.5580 -2.0811  0.1682
 2037SOL     OW17834  11.609   6.345   7.852 -0.3763  0.4376  0.2051
 2037SOL    HW117835  11.550   6.339   7.777 -1.6490 -1.1075  1.2416
 2037SOL    HW217836  11.666   6.268   7.843 -0.9017 -0.0689  1.0732
 2038SOL     OW17837   8.596   3.675   4.303  0.0622 -0.3542  0.3369
 2038SOL    HW117838   8.672   3.647   4.253 -0.0150 -0.1762  0.1173
 2038SOL    HW217839   8.547   3.594   4.319  0.1950 -0.4404  0.3095
 2039SOL     OW17840   1.648   7.103   8.124  0.1987 -0.3120 -0.1190
 2039SOL    HW117841   1.682   7.188   8.151  0.2039 -0.6424  0.9286
 2039SOL    HW217842   1.611   7.119   8.037 -1.5293  1.2179  0.8372
 2040SOL     OW17843   1.107   2.200  10.621 -0.5432 -0.1998  0.1507
 2040SOL    HW117844   1.046   2.194  10.547 -0.7627 -0.8133  0.3729
 2040SOL    HW217845   1.192   2.176  10.583 -0.4553  0.5363 -0.1332
 2041SOL     OW17846   5.675   0.294   4.194 -0.2804 -0.2702 -0.1699
 2041SOL    HW117847   5.765   0.292   4.162 -0.7831 -1.2698 -1.6465
 2041SOL    HW217848   5.664   0.382   4.231  1.4622 -0.3422  0.5863
 2042SOL     OW17849   4.605   2.062   0.725  0.7685  0.2068  0.2704
 2042SOL    HW117850   4.538   2.032   0.787  0.7110 -0.0383  0.0923
 2042SOL    HW217851   4.558   2.077   0.644  1.2245 -2.0537 -0.5091
 2043SOL     OW17852   3.401   8.090   7.292 -0.7238 -0.1859 -0.8654
 2043SOL    HW117853   3.337   8.050   7.351  0.6255 -1.3889 -0.1859
 2043SOL    HW217854   3.468   8.126   7.349 -1.1421  1.8044 -1.5356
 2044SOL     OW17855   9.318   0.427   9.847  0.6029 -0.0172 -0.1031
 2044SOL    HW117856   9.229   0.392   9.856  0.5676 -0.0580 -0.5965
 2044SOL    HW217857   9.375   0.354   9.873  0.4703  0.5614  1.9833
 2045SOL     OW17858   6.414   4.041   7.323  0.0767 -0.5734 -0.0008
 2045SOL    HW117859   6.467   4.072   7.250  0.4574  1.1265  0.9484
 2045SOL    HW217860   6.443   3.951   7.338  1.4789 -0.2314 -0.5715
 2046SOL     OW17861   1.398   2.950  10.464  0.2234  0.3012  0.3445
 2046SOL    HW117862   1.388   3.044  10.447 -1.9747  0.2024  0.7561
 2046SOL    HW217863   1.312   2.922  10.495  0.9279 -1.7962  0.5805
 2047SOL     OW17864   5.921   2.183   3.245 -1.0640  0.4002  0.5688
 2047SOL    HW117865   5.917   2.109   3.184 -0.5072 -0.5657  1.6718
 2047SOL    HW217866   5.837   2.180   3.291 -1.4723  1.1126 -0.1124
 2048SOL     OW17867  11.750   3.120  10.647  0.0226  0.9772  0.1224
 2048SOL    HW117868  11.666   3.080  10.628  0.2626  0.6517 -0.2582
 2048SOL    HW217869  11.771   3.092  10.736 -0.3322  1.1750  0.2715
 2049SOL     OW17870   6.628   7.853   0.625  0.0264  0.1824  0.1552
 2049SOL    HW117871   6.544   7.894   0.606 -0.8970 -0.7157  1.9844
 2049SOL    HW217872   6.651   7.884   0.713  0.4353 -1.3584  0.6324
 2050SOL     OW17873   1.876   7.818   3.319  0.1200  0.3369 -0.6800
 2050SOL    HW117874   1.893   7.746   3.380 -0.9637 -0.9844 -1.8566
 2050SOL    HW217875   1.781   7.831   3.324  0.5094  3.3214  1.2102
 2051SOL     OW17876   0.977   0.859   8.392 -0.0124 -0.4564 -0.0046
 2051SOL    HW117877   1.000   0.884   8.481 -2.0129 -1.1544  0.7540
 2051SOL    HW217878   1.026   0.778   8.377 -0.6478 -1.0378  0.9605
 2052SOL     OW17879  10.771   0.182   9.337  0.0823 -0.1745  0.0983
 2052SOL    HW117880  10.848   0.185   9.394  0.0910  0.8186  0.0454
 2052SOL    HW217881  10.797   0.125   9.265  0.7862  0.1712  0.0676
 2053SOL     OW17882   6.828   9.585   4.772 -0.1083 -0.4907  0.2435
 2053SOL    HW117883   6.892   9.565   4.840  0.1635 -2.8307 -0.6187
 2053SOL    HW217884   6.880   9.618   4.699 -0.0964 -0.5331  0.2326
 2054SOL     OW17885   5.303   1.105   6.686 -0.4873 -0.1264  0.0365
 2054SOL    HW117886   5.236   1.169   6.709  0.8486  0.7353  1.7809
 2054SOL    HW217887   5.373   1.157   6.645 -0.1304 -0.7384 -0.1525
 2055SOL     OW17888   7.416   9.553   8.100 -0.2881  0.0410  0.1016
 2055SOL    HW117889   7.484   9.517   8.042 -0.1890 -0.7556  0.6906
 2055SOL    HW217890   7.334   9.522   8.062 -0.2459 -0.1714  0.1851
 2056SOL     OW17891   1.189   7.318   6.005  0.1700 -0.6229  0.4890
 2056SOL    HW117892   1.160   7.236   5.965  1.9846 -1.1310  0.0967
 2056SOL    HW217893   1.175   7.305   6.099  1.3201 -1.8085  0.5299
 2057SOL     OW17894   2.423   3.425  10.679 -0.7382 -0.0823 -0.0621
 2057SOL    HW117895   2.396   3.516  10.689 -0.7928 -0.2071  1.0547
 2057SOL    HW217896   2.420   3.409  10.584 -0.2346  1.2144 -0.3135
 2058SOL     OW17897   1.143   9.542   1.341  0.0442  0.3357 -0.0379
 2058SOL    HW117898   1.100   9.605   1.282  0.1900  0.3589 -0.1192
 2058SOL    HW217899   1.117   9.457   1.307  1.1900  0.3264 -0.9359
 2059SOL     OW17900   2.088   8.214   4.571 -0.7570  0.2602 -0.0622
 2059SOL    HW117901   2.030   8.144   4.542 -0.8267 -0.2649  1.2672
 2059SOL    HW217902   2.029   8.282   4.604 -0.6567 -0.0494  0.7920
 2060SOL     OW17903  10.856   5.668   7.260  0.3461  0.2541 -0.1197
 2060SOL    HW117904  10.869   5.747   7.209  0.3209 -0.0411 -0.5945
 2060SOL    HW217905  10.935   5.660   7.314 -0.1417  1.1956  0.7595
 2061SOL     OW17906   9.376   0.332   1.443 -0.4079  0.3602  0.0736
 2061SOL    HW117907   9.390   0.243   1.475  0.7800  0.3718 -0.3646
 2061SOL    HW217908   9.458   0.377   1.460  0.4687  0.2787 -3.1941
 2062SOL     OW17909   7.084   2.456   7.095  0.2762 -0.5596 -0.5394
 2062SOL    HW117910   6.993   2.486   7.097 -0.1397 -1.5440  3.2292
 2062SOL    HW217911   7.084   2.382   7.035 -1.1534  0.0660 -1.3671
 2063SOL     OW17912   1.256  11.720   5.749  0.1461 -0.2986  0.3706
 2063SOL    HW117913   1.297  11.791   5.798  1.6252 -1.0942  0.3451
 2063SOL    HW217914   1.235  11.759   5.664  0.1116  0.3342  0.6606
 2064SOL     OW17915   1.997   1.840   7.807  0.3248  0.4093  0.0482
 2064SOL    HW117916   2.045   1.761   7.833  0.3849  0.6208  0.5926
 2064SOL    HW217917   1.934   1.809   7.742  1.9128  0.3055 -1.4961
 2065SOL     OW17918   6.371   5.337   2.325  0.1478  0.3668  0.5193
 2065SOL    HW117919   6.333   5.249   2.323  0.0694  0.3982  0.6079
 2065SOL    HW217920   6.444   5.331   2.386 -2.0806  1.2302  3.5448
 2066SOL     OW17921   2.286   2.660   5.899 -0.2497  0.7976  0.8904
 2066SOL    HW117922   2.233   2.707   5.835  0.5226 -0.4894 -0.7546
 2066SOL    HW217923   2.265   2.567   5.885 -0.1310  0.4654  2.5868
 2067SOL     OW17924   5.983  11.686   8.070 -0.4030  0.2770  0.2033
 2067SOL    HW117925   6.076  11.709   8.068 -0.4318  0.4175  0.4420
 2067SOL    HW217926   5.960  11.686   8.163 -0.7367  0.6317  0.1274
 2068SOL     OW17927   5.430   0.616   9.006 -0.1438 -0.2822 -0.2732
 2068SOL    HW117928   5.384   0.598   9.088 -0.3877  0.7497 -0.1758
 2068SOL    HW217929   5.464   0.705   9.017 -2.2105  0.8319 -2.2029
 2069SOL     OW17930   6.607   8.647   0.167 -0.1717 -0.0263  0.4747
 2069SOL    HW117931   6.671   8.617   0.102 -2.3996 -1.3661 -1.2706
 2069SOL    HW217932   6.615   8.742   0.167 -0.1131  0.0332 -1.8893
 2070SOL     OW17933   8.179   6.971   8.900  0.6561 -0.3871  0.2557
 2070SOL    HW117934   8.115   6.948   8.832  0.3722  2.4783 -0.5920
 2070SOL    HW217935   8.130   7.029   8.960  1.5744 -0.8948  1.5380
 2071SOL     OW17936  11.835   3.387   2.583  0.1833 -0.2900  0.1986
 2071SOL    HW117937  11.856   3.320   2.648  1.2939 -0.2770 -0.1213
 2071SOL    HW217938  11.741   3.378   2.568  0.2484 -1.5211  0.4341
 2072SOL     OW17939   2.105  11.805   2.210 -0.1401 -0.0909  0.4529
 2072SOL    HW117940   2.174  11.837   2.268 -0.7435  1.6154  0.2660
 2072SOL    HW217941   2.144  11.728   2.167  1.7739  1.0021  0.1234
 2073SOL     OW17942   2.743   4.965   5.667 -0.1787 -0.2003 -0.7420
 2073SOL    HW117943   2.661   5.003   5.698  1.0094  0.6595  1.6049
 2073SOL    HW217944   2.810   5.004   5.723  1.6514 -2.2470 -1.3615
 2074SOL     OW17945   2.037   7.052   3.161  0.0777  0.3262  0.2416
 2074SOL    HW117946   2.128   7.051   3.191 -0.1199 -1.4644  0.9705
 2074SOL    HW217947   2.002   7.135   3.192  1.0953  0.4325  1.1686
 2075SOL     OW17948   5.489   7.467   6.731 -0.0592  0.4545  0.1819
 2075SOL    HW117949   5.506   7.402   6.800  0.4237 -0.0206 -0.3700
 2075SOL    HW217950   5.399   7.449   6.704  0.0790 -0.0226  0.0129
 2076SOL     OW17951   4.129  11.465  10.066  0.4453 -0.2514 -0.0331
 2076SOL    HW117952   4.076  11.483   9.988 -1.1669  0.3281  1.1384
 2076SOL    HW217953   4.126  11.369  10.075  1.2725 -0.3887 -1.0809
 2077SOL     OW17954   1.545   6.207  10.652  0.0082 -0.4372 -0.3305
 2077SOL    HW117955   1.501   6.124  10.632 -0.6654 -0.1711  0.0237
 2077SOL    HW217956   1.580   6.195  10.740 -0.2521 -0.2829 -0.2044
 2078SOL     OW17957  10.626   6.713   0.764 -0.1989  0.4538 -0.5144
 2078SOL    HW117958  10.592   6.788   0.813  0.9805  0.9707 -0.4612
 2078SOL    HW217959  10.698   6.748   0.712  0.0215 -0.5374 -0.9010
 2079SOL     OW17960   9.569   3.790  11.885 -0.0985  0.3466 -0.2493
 2079SOL    HW117961   9.541   3.752  11.802  0.3990  1.0325 -0.7421
 2079SOL    HW217962   9.592   3.880  11.864 -2.1967  1.2769  1.0720
 2080SOL     OW17963   8.318   3.219   9.628  0.3820  0.1420 -0.1270
 2080SOL    HW117964   8.298   3.275   9.553  0.8667  0.4894 -0.0014
 2080SOL    HW217965   8.235   3.213   9.677 -0.3020 -1.1656 -1.3786
 2081SOL     OW17966   8.924   7.727   3.590 -0.2535  0.0113 -0.2252
 2081SOL    HW117967   8.874   7.769   3.661 -0.3934  0.6766 -0.7066
 2081SOL    HW217968   8.888   7.765   3.510 -0.1792 -0.8284 -0.6665
 2082SOL     OW17969   8.279   3.080   0.194  0.8659 -0.0166 -0.1971
 2082SOL    HW117970   8.195   3.098   0.151  1.2208  1.3511 -0.3726
 2082SOL    HW217971   8.336   3.049   0.124  1.1071  1.0920 -0.5099
 2083SOL     OW17972   6.560   5.094   5.043 -0.2050  0.4050  0.1517
 2083SOL    HW117973   6.645   5.132   5.018 -0.8673 -0.2151 -3.5529
 2083SOL    HW217974   6.581   5.004   5.067  0.1012 -0.1266 -1.9789
 2084SOL     OW17975   3.903   5.018   4.772  0.2922 -0.0149  0.2347
 2084SOL    HW117976   3.836   5.085   4.762 -1.1148 -0.8971  2.9057
 2084SOL    HW217977   3.978   5.063   4.810 -0.6774  0.1012  2.1047
 2085SOL     OW17978   4.223   3.813   4.330  0.3888 -0.6741 -0.5823
 2085SOL    HW117979   4.288   3.880   4.310  1.6128 -1.6767 -0.0750
 2085SOL    HW217980   4.214   3.763   4.249 -0.2630 -0.1488 -0.8514
 2086SOL     OW17981   6.430   9.049   9.195 -0.5022  0.4931 -0.2053
 2086SOL    HW117982   6.456   9.141   9.187  1.6143  0.0569  0.8343
 2086SOL    HW217983   6.512   9.002   9.206 -1.6416 -1.2647  1.5278
 2087SOL     OW17984   2.097   3.555  11.451  0.0607 -0.2583  0.0947
 2087SOL    HW117985   2.094   3.555  11.547 -1.8759 -0.4573  0.0734
 2087SOL    HW217986   2.188   3.576  11.430  0.0432  2.1093  1.9557
 2088SOL     OW17987   9.660  10.256   7.444  0.0498  0.1489 -0.1152
 2088SOL    HW117988   9.679  10.342   7.407  1.0173 -0.4746 -1.1365
 2088SOL    HW217989   9.623  10.206   7.371  0.6181 -0.6596  0.1383
 2089SOL     OW17990   0.147   1.438   7.705 -1.6268 -0.3380 -0.0299
 2089SOL    HW117991   0.105   1.366   7.753 -1.1852 -1.7061 -1.6404
 2089SOL    HW217992   0.180   1.398   7.625 -0.8263  1.5527 -0.6905
 2090SOL     OW17993   4.863   2.705   9.043 -0.0070  0.8530 -0.4998
 2090SOL    HW117994   4.901   2.650   9.111  1.4367  0.7519 -1.3506
 2090SOL    HW217995   4.871   2.794   9.078  0.4162  0.7748 -0.3930
 2091SOL     OW17996   8.459   4.746  11.758  0.3096 -0.0976  0.4763
 2091SOL    HW117997   8.458   4.668  11.813  0.4578 -1.3013 -1.1622
 2091SOL    HW217998   8.423   4.816  11.814 -0.4239 -1.4654  1.7728
 2092SOL     OW17999   3.418   7.822   3.883 -0.2739  0.1571 -0.0648
 2092SOL    HW118000   3.382   7.778   3.960 -0.1268  0.5847  0.2525
 2092SOL    HW218001   3.361   7.897   3.869 -0.6085 -0.2088 -0.6901
 2093SOL     OW18002   7.867   2.912   2.381  0.1990 -0.0846 -0.2956
 2093SOL    HW118003   7.873   2.999   2.342 -1.3368 -0.2791 -1.0333
 2093SOL    HW218004   7.821   2.927   2.464 -0.2539 -0.2051 -0.5208
 2094SOL     OW18005   4.776   0.551   5.998 -0.0956  0.2241 -0.0476
 2094SOL    HW118006   4.688   0.516   6.013 -0.1269  0.3057 -0.0405
 2094SOL    HW218007   4.762   0.643   5.979 -0.1581 -0.0956 -1.6799
 2095SOL     OW18008   8.319   6.625   7.497  0.4505 -0.5173  0.4158
 2095SOL    HW118009   8.408   6.651   7.517  0.4795  0.5933 -1.0026
 2095SOL    HW218010   8.302   6.661   7.409 -1.1679 -1.2326  0.3943
 2096SOL     OW18011   8.787  10.377   8.558  0.4154 -0.4042 -0.0119
 2096SOL    HW118012   8.772  10.402   8.649  0.6970 -1.3908  0.3133
 2096SOL    HW218013   8.878  10.399   8.542  0.5197 -0.7448  0.1140
 2097SOL     OW18014   7.777   4.085   2.550 -0.2244 -0.5053 -0.1858
 2097SOL    HW118015   7.747   4.169   2.584  0.6898  1.1516 -3.1497
 2097SOL    HW218016   7.738   4.020   2.609 -0.5514  1.9492  2.5262
 2098SOL     OW18017   0.168   9.460  10.257  0.3671  0.1436  0.4014
 2098SOL    HW118018   0.150   9.391  10.193  0.4113 -0.9487  1.5204
 2098SOL    HW218019   0.120   9.536  10.225  2.0858  0.3071 -2.0601
 2099SOL     OW18020   4.334   8.804  10.991 -0.3265  0.0794  0.1947
 2099SOL    HW118021   4.312   8.771  11.078 -0.7489  0.1798  0.1286
 2099SOL    HW218022   4.410   8.862  11.005 -0.5474  0.2881  0.5299
 2100SOL     OW18023   4.459   4.539   1.780 -0.0885 -0.0928 -0.0368
 2100SOL    HW118024   4.467   4.534   1.875 -0.3791 -0.0626 -0.0108
 2100SOL    HW218025   4.497   4.624   1.757 -0.5916  0.1775  0.1171
 2101SOL     OW18026   5.309   5.039   5.005 -0.4589  0.0792 -0.0985
 2101SOL    HW118027   5.214   5.031   5.011 -0.5351  1.7586  3.3506
 2101SOL    HW218028   5.341   5.013   5.092  2.2347 -0.0548 -1.0201
 2102SOL     OW18029  11.023   2.316   5.056 -0.6452  0.1520 -0.1136
 2102SOL    HW118030  10.990   2.390   5.108  0.8562  0.8321 -0.0742
 2102SOL    HW218031  10.949   2.290   5.002 -1.4339  1.1947  0.4198
 2103SOL     OW18032   5.010   9.441   8.870 -0.7115  0.3767 -0.8254
 2103SOL    HW118033   4.971   9.453   8.957  0.1813  0.5277 -0.4393
 2103SOL    HW218034   4.952   9.378   8.827 -1.8244  1.1658 -0.5508
 2104SOL     OW18035   9.822  10.432   0.683 -0.5684 -0.1064  0.3737
 2104SOL    HW118036   9.758  10.503   0.677 -0.5882 -0.1922 -0.7519
 2104SOL    HW218037   9.904  10.471   0.650 -0.3924 -0.3939  0.4680
 2105SOL     OW18038   7.257  11.655   3.277  0.2527  0.2496  0.4511
 2105SOL    HW118039   7.257  11.751   3.276 -2.0567  0.3019 -0.3794
 2105SOL    HW218040   7.176  11.631   3.323 -0.2340 -1.2660 -1.0983
 2106SOL     OW18041   8.507   3.225   8.950 -0.1571  0.2138  0.0033
 2106SOL    HW118042   8.477   3.228   8.859  1.5531 -0.8016 -0.6452
 2106SOL    HW218043   8.533   3.315   8.970  1.9357  0.0254 -1.4751
 2107SOL     OW18044   8.880  10.740  10.894  0.6873  0.5286 -0.0846
 2107SOL    HW118045   8.892  10.646  10.878 -0.4593  0.0362  1.6536
 2107SOL    HW218046   8.924  10.756  10.977 -0.1504  1.2865  0.2230
 2108SOL     OW18047   1.041   5.052  11.563 -0.1418  0.1829  0.2332
 2108SOL    HW118048   1.096   5.038  11.640  1.3535  1.9584 -0.4302
 2108SOL    HW218049   0.988   5.129  11.584 -1.7125 -0.8957  0.4618
 2109SOL     OW18050   2.261   5.566   1.635 -0.0029  0.1747 -0.4724
 2109SOL    HW118051   2.290   5.562   1.544  0.6931 -3.0633 -0.2177
 2109SOL    HW218052   2.165   5.562   1.629  0.0135  0.4918 -1.0499
 2110SOL     OW18053   1.583   6.246   5.057  0.2921  0.1640 -0.3904
 2110SOL    HW118054   1.532   6.169   5.030 -0.7668  0.5574  0.4109
 2110SOL    HW218055   1.520   6.301   5.104  1.4818  0.6488  0.6844
 2111SOL     OW18056  10.606   1.655   5.794  0.9797  0.4287 -0.2947
 2111SOL    HW118057  10.620   1.589   5.726  0.1080  0.3193 -0.3820
 2111SOL    HW218058  10.585   1.734   5.745 -0.0776  0.2454 -0.1540
 2112SOL     OW18059   7.867   6.728   6.326 -0.2955  0.2006  0.0432
 2112SOL    HW118060   7.780   6.696   6.306 -0.2033 -1.2489  1.6820
 2112SOL    HW218061   7.926   6.658   6.299  0.4523  1.3427 -1.4656
 2113SOL     OW18062   9.034   1.864   7.247 -0.7108 -0.3135  0.1621
 2113SOL    HW118063   8.943   1.862   7.214 -0.9584 -1.1318  0.8435
 2113SOL    HW218064   9.029   1.913   7.329 -0.0119  2.1262 -1.1584
 2114SOL     OW18065   8.020   4.925   1.790  0.1402 -0.4418 -0.4261
 2114SOL    HW118066   8.028   4.960   1.878  2.1622 -1.8162  0.0013
 2114SOL    HW218067   7.947   4.973   1.751  0.5195  1.6337  1.2882
 2115SOL     OW18068   5.995   1.061   8.216  0.1247 -0.3206  0.3536
 2115SOL    HW118069   6.012   1.145   8.258  0.4867 -1.2108  2.0397
 2115SOL    HW218070   5.955   1.085   8.132 -0.4595  1.5153  1.0947
 2116SOL     OW18071   7.046   4.407   6.383  0.4902 -0.6016 -0.3023
 2116SOL    HW118072   7.033   4.331   6.440  0.4084 -0.0042  0.5055
 2116SOL    HW218073   7.049   4.371   6.295 -0.7931 -1.4058 -0.0395
 2117SOL     OW18074   4.628   4.571  11.119 -0.0397 -0.1709  0.4215
 2117SOL    HW118075   4.603   4.576  11.027 -0.3641 -2.5874  0.3042
 2117SOL    HW218076   4.680   4.650  11.134  1.2350 -0.3858 -2.2124
 2118SOL     OW18077   3.585   0.463   6.256 -0.3673  0.2006  0.4247
 2118SOL    HW118078   3.510   0.423   6.300 -1.9234  1.5856 -0.8095
 2118SOL    HW218079   3.621   0.525   6.320 -0.0067 -0.7702  1.1723
 2119SOL     OW18080   8.016   5.222  10.134  0.1820  0.3362 -0.6947
 2119SOL    HW118081   7.973   5.289  10.186  2.2721  1.3111 -0.0963
 2119SOL    HW218082   7.982   5.234  10.046 -1.1168  0.6956 -0.1650
 2120SOL     OW18083   4.847   0.460   1.071 -0.0970 -0.2051 -0.2065
 2120SOL    HW118084   4.841   0.384   1.130 -1.5422 -1.3233 -1.7211
 2120SOL    HW218085   4.868   0.422   0.986  0.9916  1.3054 -0.6380
 2121SOL     OW18086  10.853   6.790   6.798  0.0387  0.4996 -0.5439
 2121SOL    HW118087  10.872   6.697   6.807  0.6628  0.7505  0.9955
 2121SOL    HW218088  10.923   6.834   6.846 -1.4474  1.6666  0.6655
 2122SOL     OW18089   3.702  11.681   9.626  0.3646 -0.1022  0.0357
 2122SOL    HW118090   3.749  11.599   9.608 -0.7413 -0.4348 -1.5895
 2122SOL    HW218091   3.772  11.745   9.638  1.2474 -1.0166  0.0194
 2123SOL     OW18092   9.461   2.313   3.884 -0.1475  0.4722  0.2559
 2123SOL    HW118093   9.540   2.277   3.844 -1.5649 -1.7161 -0.8397
 2123SOL    HW218094   9.419   2.362   3.813 -2.1258 -2.5207 -0.8875
 2124SOL     OW18095   5.200  10.448   5.211 -0.1879  0.5391 -0.0525
 2124SOL    HW118096   5.190  10.542   5.223 -0.1418  0.4186  1.0273
 2124SOL    HW218097   5.294  10.435   5.198 -0.2810  0.7128 -0.9221
 2125SOL     OW18098   9.246   5.122   1.079 -0.5511 -0.1201  0.2821
 2125SOL    HW118099   9.273   5.210   1.054 -1.0871  0.4243  1.5676
 2125SOL    HW218100   9.292   5.065   1.018 -1.2271  1.0990 -1.4536
 2126SOL     OW18101   8.251   2.584   3.667  0.4303 -0.3170  0.0032
 2126SOL    HW118102   8.198   2.545   3.737 -0.6551  0.8358 -0.1375
 2126SOL    HW218103   8.306   2.649   3.712  1.3685 -1.1288  0.0709
 2127SOL     OW18104   9.790   7.288   8.932 -0.4155 -0.4117  0.3175
 2127SOL    HW118105   9.755   7.288   8.842 -0.1334 -0.7452  0.2077
 2127SOL    HW218106   9.884   7.304   8.921 -0.1977 -1.5256  0.4792
 2128SOL     OW18107   0.813   0.548   4.728 -0.0176  0.6350 -0.5175
 2128SOL    HW118108   0.837   0.527   4.818 -2.9800 -1.1652 -0.0023
 2128SOL    HW218109   0.755   0.624   4.736 -1.8040 -0.6508 -0.5957
 2129SOL     OW18110   6.616   0.690  10.674  0.1029  0.4168  0.0778
 2129SOL    HW118111   6.626   0.687  10.769  1.5644 -0.2227 -0.0790
 2129SOL    HW218112   6.545   0.629  10.655  0.4266 -0.1494  0.6741
 2130SOL     OW18113   8.531   2.950   2.909 -0.0629 -0.0429 -0.3891
 2130SOL    HW118114   8.518   3.024   2.849 -1.6174 -0.9277 -1.1920
 2130SOL    HW218115   8.449   2.901   2.906  0.8980 -1.7803  0.1735
 2131SOL     OW18116   2.870   2.338   0.168 -0.1678 -0.0529  0.6865
 2131SOL    HW118117   2.804   2.367   0.105  1.0627  1.5188  0.0197
 2131SOL    HW218118   2.820   2.303   0.242 -1.7157  0.4851 -0.0611
 2132SOL     OW18119   3.390   1.220   1.616  0.2824  0.4005  0.2997
 2132SOL    HW118120   3.478   1.184   1.603  0.1847  0.7618 -1.6804
 2132SOL    HW218121   3.364   1.250   1.529 -2.6209 -1.5329  0.3722
 2133SOL     OW18122  10.517   5.192   2.466 -0.0883 -0.3028 -0.2150
 2133SOL    HW118123  10.504   5.271   2.518 -0.2648 -1.4882  1.6556
 2133SOL    HW218124  10.571   5.136   2.521  2.0644 -0.6222 -2.4715
 2134SOL     OW18125   2.644   1.214  10.805  0.0814  0.1124 -0.3621
 2134SOL    HW118126   2.718   1.176  10.852  0.5433  1.2532 -0.1343
 2134SOL    HW218127   2.646   1.306  10.829 -1.1074  0.2547 -0.7706
 2135SOL     OW18128   3.544   4.911   1.392  1.0308 -0.3418 -0.4304
 2135SOL    HW118129   3.457   4.896   1.356  1.0482  0.2695 -0.7431
 2135SOL    HW218130   3.599   4.929   1.316  0.8362  2.0585 -0.0790
 2136SOL     OW18131   3.082   5.473   7.930  0.5243 -0.2904  0.6348
 2136SOL    HW118132   3.015   5.448   7.995 -0.7082 -0.6403 -0.7195
 2136SOL    HW218133   3.156   5.416   7.950  0.6729  0.4824  2.5159
 2137SOL     OW18134   9.440   0.259   3.147  0.1340 -0.1338 -0.0367
 2137SOL    HW118135   9.493   0.207   3.087 -1.0184 -1.4210  0.0274
 2137SOL    HW218136   9.502   0.288   3.215  0.8206 -1.3534 -0.1235
 2138SOL     OW18137  10.190   3.608   6.794 -0.0739  0.2102 -0.4200
 2138SOL    HW118138  10.223   3.694   6.818 -0.5090  0.4648 -0.7264
 2138SOL    HW218139  10.104   3.602   6.837  0.6764 -0.7624  1.0286
 2139SOL     OW18140   7.717   1.669   7.843 -0.6254 -0.5834 -0.4065
 2139SOL    HW118141   7.706   1.577   7.816 -1.0213 -0.5138 -0.4993
 2139SOL    HW218142   7.643   1.685   7.902  0.2135 -0.7180  0.7102
 2140SOL     OW18143   0.480   4.490   6.841  0.1540 -0.2810  0.0892
 2140SOL    HW118144   0.410   4.501   6.905 -0.6576 -1.6472 -0.5175
 2140SOL    HW218145   0.453   4.543   6.766 -0.4927 -1.1564 -0.3195
 2141SOL     OW18146   5.174  10.231   8.314  0.5288 -0.1250  0.0252
 2141SOL    HW118147   5.112  10.304   8.321  0.0496 -0.4969 -0.2893
 2141SOL    HW218148   5.174  10.209   8.221  1.9413  0.5630 -0.1690
 2142SOL     OW18149   7.693  11.094   9.224  0.4066  0.2666 -0.5199
 2142SOL    HW118150   7.642  11.140   9.158  1.2909 -0.3663 -1.6895
 2142SOL    HW218151   7.724  11.015   9.179 -0.2190 -0.9690  1.1010
 2143SOL     OW18152   2.749   2.407   0.967 -0.6190 -0.0219 -0.4551
 2143SOL    HW118153   2.740   2.329   1.022 -1.0605  0.0940 -0.3550
 2143SOL    HW218154   2.718   2.479   1.022  0.0341  0.2662 -0.4551
 2144SOL     OW18155   2.881   3.520   3.609  0.6752 -0.3232  0.2571
 2144SOL    HW118156   2.916   3.602   3.643 -3.0406  1.6374 -0.0331
 2144SOL    HW218157   2.942   3.494   3.541  1.7732  2.5461  0.0052
 2145SOL     OW18158   6.632   1.911   4.520 -0.0109 -0.0068 -0.1800
 2145SOL    HW118159   6.624   2.006   4.513 -1.2990 -0.1036 -0.3377
 2145SOL    HW218160   6.722   1.892   4.493  0.3208  1.1737  0.0411
 2146SOL     OW18161   8.505   8.431   8.524  0.1765  0.4470  0.3189
 2146SOL    HW118162   8.452   8.510   8.531  0.9069  1.0207 -0.4492
 2146SOL    HW218163   8.463   8.369   8.584 -0.2326  1.4999  1.1533
 2147SOL     OW18164   2.411   1.384  10.646  0.0814  0.0673 -0.4165
 2147SOL    HW118165   2.353   1.318  10.609  0.7273  0.1837 -1.6946
 2147SOL    HW218166   2.496   1.340  10.651  0.0338  0.0980  0.8377
 2148SOL     OW18167   2.503   1.950   5.525  0.2210  0.0883  0.2047
 2148SOL    HW118168   2.435   1.923   5.586  1.5848  0.3841  1.9326
 2148SOL    HW218169   2.482   1.903   5.444 -2.7675  1.2012  0.1994
 2149SOL     OW18170   4.849   9.080   3.328  0.7860  0.6478 -0.5251
 2149SOL    HW118171   4.821   9.165   3.361  0.1983  0.2791 -0.0485
 2149SOL    HW218172   4.770   9.042   3.290  0.9396  0.1238 -0.3263
 2150SOL     OW18173   5.770   1.849   0.899  0.4554  0.2341 -0.2314
 2150SOL    HW118174   5.840   1.847   0.965 -1.5449  1.2943  2.0828
 2150SOL    HW218175   5.725   1.765   0.909  1.0413 -0.2580 -1.4123
 2151SOL     OW18176   9.153   9.733   8.465  0.1610  0.1258  0.0754
 2151SOL    HW118177   9.101   9.711   8.542 -1.7035  1.7355 -0.6523
 2151SOL    HW218178   9.241   9.700   8.485 -0.4079 -0.0358  2.6091
 2152SOL     OW18179   3.085   3.985   8.606 -0.0831 -0.2504  0.0153
 2152SOL    HW118180   2.990   3.985   8.620 -0.1687 -1.8112 -0.3345
 2152SOL    HW218181   3.120   3.935   8.680  0.5407  0.7960  0.4480
 2153SOL     OW18182   6.279  10.365   6.347  0.0898  0.1007  0.1001
 2153SOL    HW118183   6.250  10.301   6.413 -0.1635  0.9050  0.7829
 2153SOL    HW218184   6.299  10.312   6.270  1.5439 -1.0373  1.1762
 2154SOL     OW18185   5.989   9.470   6.291 -0.5460  0.6661 -0.1951
 2154SOL    HW118186   6.055   9.471   6.222 -2.2890 -1.4917 -2.0476
 2154SOL    HW218187   5.925   9.536   6.265 -0.5674  0.7475  0.0580
 2155SOL     OW18188   6.200   4.260   1.597  0.0602  0.3131  0.5502
 2155SOL    HW118189   6.152   4.201   1.655 -1.8670 -0.0659 -1.3144
 2155SOL    HW218190   6.282   4.215   1.578 -0.2235 -0.5166  1.2339
 2156SOL     OW18191   4.143   2.956   8.746  0.2227 -0.2866  0.6130
 2156SOL    HW118192   4.175   2.934   8.659  1.8119  0.3756  0.9988
 2156SOL    HW218193   4.048   2.944   8.740  0.5773 -3.7360 -0.1703
 2157SOL     OW18194   7.548   0.496   5.166  0.4487 -0.3230 -0.5910
 2157SOL    HW118195   7.524   0.585   5.195  1.5866 -0.7653  1.9977
 2157SOL    HW218196   7.558   0.447   5.247  0.8136 -2.5906 -1.9402
 2158SOL     OW18197  10.133   2.217   1.538  0.0140 -0.0736 -0.4168
 2158SOL    HW118198  10.187   2.147   1.501  0.2151 -0.8648  1.2610
 2158SOL    HW218199  10.170   2.298   1.503  2.3000 -0.5921  0.6133
 2159SOL     OW18200   7.692  11.585   4.986 -0.6534  0.2102  0.1342
 2159SOL    HW118201   7.614  11.621   4.943 -2.6049  0.3233  3.4233
 2159SOL    HW218202   7.692  11.492   4.963 -0.2170  0.6772 -1.9342
 2160SOL     OW18203   1.452   7.448   5.108  0.0764  0.4580 -0.0863
 2160SOL    HW118204   1.485   7.521   5.160  0.3853  0.7490 -0.6795
 2160SOL    HW218205   1.449   7.481   5.018 -1.3465  0.2627 -0.1333
 2161SOL     OW18206  11.068   7.129  11.734  0.1137 -0.6800 -0.1751
 2161SOL    HW118207  11.013   7.207  11.743  0.9266 -0.2121  0.9687
 2161SOL    HW218208  11.123   7.148  11.658 -0.0570 -0.3599 -0.2240
 2162SOL     OW18209   5.178   4.794  11.237 -0.0939  0.0220  0.0800
 2162SOL    HW118210   5.096   4.746  11.246 -0.8136  1.1732 -0.2580
 2162SOL    HW218211   5.241   4.743  11.288 -1.0875 -0.6912  0.6133
 2163SOL     OW18212  11.020   2.808   5.109 -0.5314 -0.7828 -0.2511
 2163SOL    HW118213  11.059   2.833   5.192 -1.9066  0.3851  0.0821
 2163SOL    HW218214  11.040   2.880   5.050 -0.0450 -1.3467 -0.7952
 2164SOL     OW18215   3.431   6.840   7.824  0.1716  0.2546  0.2840
 2164SOL    HW118216   3.427   6.754   7.865 -0.0226  0.7683  1.3877
 2164SOL    HW218217   3.468   6.897   7.891 -1.5878  1.4441  0.3257
 2165SOL     OW18218   9.461   0.790   0.119 -0.0969  0.4898  0.1990
 2165SOL    HW118219   9.510   0.814   0.041 -0.6740 -0.5492 -0.5042
 2165SOL    HW218220   9.517   0.728   0.165 -1.3387 -1.9841 -1.4407
 2166SOL     OW18221   7.591   0.452   0.377  0.1357 -0.5538  0.0446
 2166SOL    HW118222   7.527   0.422   0.313 -1.1831 -0.2704  1.1802
 2166SOL    HW218223   7.543   0.517   0.430  1.1003 -0.9433  1.4443
 2167SOL     OW18224   8.454   7.419   1.704  0.0396  0.6662  0.2215
 2167SOL    HW118225   8.365   7.437   1.673 -1.6273 -3.7936  1.7214
 2167SOL    HW218226   8.462   7.471   1.784 -2.0604 -0.2752  1.1221
 2168SOL     OW18227   2.575   3.227   7.868 -0.0396  0.1139 -0.4038
 2168SOL    HW118228   2.570   3.135   7.840  0.6546 -0.9884  2.6300
 2168SOL    HW218229   2.668   3.247   7.868 -0.1931  0.8452 -1.0685
 2169SOL     OW18230  10.448   4.408   5.649 -0.1250 -0.0341 -0.2091
 2169SOL    HW118231  10.542   4.394   5.636  0.1241  0.8888  0.5483
 2169SOL    HW218232  10.417   4.326   5.687  0.3953 -0.2999 -0.3493
 2170SOL     OW18233   5.175   6.875   2.414  0.0298 -0.1011 -0.2794
 2170SOL    HW118234   5.107   6.825   2.369 -0.2901  0.9460 -0.9907
 2170SOL    HW218235   5.232   6.906   2.344  0.4526  0.2017  0.1928
 2171SOL     OW18236   9.940   6.394   4.605  0.5649  0.2692 -0.7195
 2171SOL    HW118237  10.011   6.448   4.638  1.2408 -0.2736 -1.2527
 2171SOL    HW218238   9.898   6.358   4.684  0.5027  1.0605 -0.3891
 2172SOL     OW18239   0.471   3.827   6.134 -0.3312  0.5686  0.2599
 2172SOL    HW118240   0.537   3.849   6.067 -1.1251 -0.1794 -0.8015
 2172SOL    HW218241   0.511   3.854   6.216  2.4604 -2.2074 -0.0001
 2173SOL     OW18242  11.189   1.698   2.766  0.0499  0.4826  0.4225
 2173SOL    HW118243  11.269   1.651   2.741 -0.1810  1.0112 -1.4079
 2173SOL    HW218244  11.220   1.780   2.804  0.3852 -0.0275  1.3003
 2174SOL     OW18245   4.500  10.203   8.490  0.1419 -0.3911 -0.2468
 2174SOL    HW118246   4.482  10.262   8.416 -2.1350  0.4371  0.8772
 2174SOL    HW218247   4.577  10.242   8.533  0.0092  0.5188 -0.7933
 2175SOL     OW18248   1.073   6.679   4.047  0.1693 -0.3262 -0.5721
 2175SOL    HW118249   1.032   6.763   4.067 -0.0931 -0.4380 -0.6432
 2175SOL    HW218250   1.131   6.662   4.121 -0.1801 -0.3415 -0.2995
 2176SOL     OW18251   5.884  10.943   7.848  0.9876  0.2058 -0.7069
 2176SOL    HW118252   5.891  10.900   7.763 -1.4661 -1.1957 -0.2888
 2176SOL    HW218253   5.854  11.032   7.828  1.6427  0.2895 -1.3535
 2177SOL     OW18254  10.060   1.747   3.901 -0.0663  0.0323 -0.3809
 2177SOL    HW118255   9.992   1.769   3.965  1.1380 -0.6924  1.2040
 2177SOL    HW218256  10.011   1.706   3.829 -1.3096 -0.7248  0.8318
 2178SOL     OW18257   9.448  11.549   7.772  0.0833  0.7061  0.7249
 2178SOL    HW118258   9.471  11.504   7.853  1.1019  1.0583  0.6442
 2178SOL    HW218259   9.507  11.511   7.707 -1.8685 -0.8355 -0.2637
 2179SOL     OW18260   8.479   3.330   4.059  0.0223  0.2751 -0.3241
 2179SOL    HW118261   8.546   3.324   3.991  1.0726  1.4791  0.5608
 2179SOL    HW218262   8.451   3.239   4.073  2.0068 -0.3624 -0.2055
 2180SOL     OW18263   6.660  11.496   6.848 -0.5942  0.8918  0.5663
 2180SOL    HW118264   6.705  11.579   6.862  0.7611  0.0903  1.1897
 2180SOL    HW218265   6.729  11.430   6.851 -0.8784 -0.0003 -4.3181
 2181SOL     OW18266   1.457   2.812   9.411  0.2354 -0.3776  0.0159
 2181SOL    HW118267   1.545   2.775   9.404  0.2627 -0.7687  1.9328
 2181SOL    HW218268   1.439   2.815   9.505 -1.3560  0.7756 -0.2793
 2182SOL     OW18269  11.791  10.638   8.287  0.1080 -0.1903 -0.0253
 2182SOL    HW118270  11.887  10.639   8.294  0.0088  1.2831  2.4077
 2182SOL    HW218271  11.768  10.721   8.245 -0.1345  0.1993  0.8516
 2183SOL     OW18272   3.455   2.913   8.715 -0.2484  0.0704 -0.7060
 2183SOL    HW118273   3.451   2.869   8.800  0.2201  0.2028 -0.6126
 2183SOL    HW218274   3.389   2.982   8.721 -0.5113 -0.1844 -0.6052
 2184SOL     OW18275   2.088   0.784   7.986  0.4996 -0.3867  0.3983
 2184SOL    HW118276   2.133   0.732   8.052  2.0789  0.9531  0.4346
 2184SOL    HW218277   1.999   0.749   7.984  1.6117 -3.4781 -0.0038
 2185SOL     OW18278   0.644   5.239   5.397  0.4047  0.4955  0.1621
 2185SOL    HW118279   0.565   5.246   5.343 -1.3006 -2.4356  1.9718
 2185SOL    HW218280   0.673   5.329   5.410 -3.6035  1.9199  0.7035
 2186SOL     OW18281   1.766   5.273   7.519  0.0887  0.1504 -0.6118
 2186SOL    HW118282   1.716   5.339   7.469 -0.2304 -0.3657 -0.9867
 2186SOL    HW218283   1.851   5.314   7.535  0.1885  0.3427 -1.5707
 2187SOL     OW18284   4.805   7.799  11.522 -0.1157  0.3417  0.1663
 2187SOL    HW118285   4.719   7.808  11.563  0.4373  0.4421  1.3682
 2187SOL    HW218286   4.821   7.884  11.480 -0.0316  0.8189  1.1296
 2188SOL     OW18287   7.488   2.963   4.688  0.0739 -0.4009  0.3129
 2188SOL    HW118288   7.554   3.004   4.744 -0.8978 -0.2851  1.3937
 2188SOL    HW218289   7.513   2.989   4.599  0.9281  0.4393  0.7860
 2189SOL     OW18290   5.036   0.948   7.430 -0.3437  0.2841 -0.0957
 2189SOL    HW118291   5.021   0.854   7.424  0.4156  0.1790 -0.4807
 2189SOL    HW218292   4.995   0.974   7.512 -1.4790 -0.1912 -0.4910
 2190SOL     OW18293   6.584   9.926   2.055 -0.2110  0.2073 -0.4689
 2190SOL    HW118294   6.561   9.916   2.147  0.1198  1.7395 -0.1947
 2190SOL    HW218295   6.553   9.845   2.013 -0.2050 -0.5830  1.0036
 2191SOL     OW18296  11.938   3.677  10.542 -0.4188 -0.5616 -0.1594
 2191SOL    HW118297  11.882   3.738  10.590 -0.5029  1.3027 -2.4770
 2191SOL    HW218298  11.888   3.595  10.541 -2.7238  0.7526 -1.3004
 2192SOL     OW18299   0.777   4.511   6.893  0.0393  0.0670 -0.1980
 2192SOL    HW118300   0.816   4.580   6.947 -3.0315  0.2350  2.1402
 2192SOL    HW218301   0.682   4.521   6.908 -0.7083 -2.6396 -2.3524
 2193SOL     OW18302   2.342   3.870  11.556  0.3736 -0.0788 -0.6274
 2193SOL    HW118303   2.354   3.876  11.651  0.6244  1.3598 -0.7340
 2193SOL    HW218304   2.380   3.786  11.533 -0.5753 -0.9179  0.6684
 2194SOL     OW18305   0.293   7.982  10.131  0.3639  0.0644 -0.1770
 2194SOL    HW118306   0.302   8.077  10.133 -1.2038  0.2758 -1.3259
 2194SOL    HW218307   0.316   7.957  10.042  0.8087 -0.6598  0.1245
 2195SOL     OW18308   9.888   7.233   6.249  0.1206 -0.6587  0.2976
 2195SOL    HW118309   9.846   7.181   6.317 -0.4853 -0.7933 -0.1795
 2195SOL    HW218310   9.870   7.187   6.168 -0.7470  0.4753 -0.1770
 2196SOL     OW18311   5.495   9.816   7.678 -0.2320  0.6905  0.2327
 2196SOL    HW118312   5.574   9.795   7.630  0.5426  0.9695  1.3363
 2196SOL    HW218313   5.502   9.765   7.759 -0.3392  1.9637  1.0848
 2197SOL     OW18314   3.810   4.855   0.074  0.2096  0.1488 -0.2244
 2197SOL    HW118315   3.839   4.771   0.111 -0.2619 -0.0162 -0.2172
 2197SOL    HW218316   3.865   4.867  -0.003  2.0493  1.0872  1.1539
 2198SOL     OW18317   5.897  11.361  11.106 -0.1902 -0.8020 -0.0958
 2198SOL    HW118318   5.854  11.446  11.099  1.4481  0.1094  0.3763
 2198SOL    HW218319   5.841  11.302  11.055 -2.6412  0.0144  1.4949
 2199SOL     OW18320  10.231   9.446   5.068 -0.4299 -0.2162 -0.7665
 2199SOL    HW118321  10.296   9.481   5.129 -1.9997  2.7569 -0.6359
 2199SOL    HW218322  10.169   9.399   5.123 -0.6423  0.5580 -0.3305
 2200SOL     OW18323   6.876   4.401   2.585  0.0894  0.5008  0.0732
 2200SOL    HW118324   6.794   4.436   2.619 -1.5283 -0.8129 -2.1608
 2200SOL    HW218325   6.868   4.306   2.597  1.1325  0.3234 -0.4781
 2201SOL     OW18326   2.674   6.440   1.461 -0.0859 -0.8573 -0.2039
 2201SOL    HW118327   2.585   6.416   1.488 -0.4704  0.3378 -0.3377
 2201SOL    HW218328   2.661   6.492   1.382  0.8944 -2.6077 -1.5945
 2202SOL     OW18329   5.610   5.482   7.582  0.1988 -0.3081 -0.2865
 2202SOL    HW118330   5.607   5.394   7.545 -3.1870 -0.4233 -0.0646
 2202SOL    HW218331   5.569   5.537   7.515  1.3708  0.9662 -0.0091
 2203SOL     OW18332   7.969   9.888  11.531 -0.6162 -1.0376  0.3339
 2203SOL    HW118333   7.874   9.893  11.520 -0.6389 -1.3827  0.3691
 2203SOL    HW218334   8.003   9.881  11.442 -0.6456 -1.2844  0.3427
 2204SOL     OW18335   7.427   2.653   6.218  0.0202  0.0056 -0.5422
 2204SOL    HW118336   7.374   2.657   6.298  0.4891  1.6132 -0.2846
 2204SOL    HW218337   7.514   2.629   6.248 -0.0559 -0.5121 -0.7204
 2205SOL     OW18338   6.433   3.672   3.931  0.3289  0.0537  0.2171
 2205SOL    HW118339   6.422   3.608   4.001 -0.0608  0.3789  0.4548
 2205SOL    HW218340   6.374   3.744   3.953 -1.9363 -1.0203 -1.8856
 2206SOL     OW18341   9.722   0.101   2.160  0.2445  0.3436  0.0064
 2206SOL    HW118342   9.714   0.150   2.242  1.4087 -0.9020  0.8883
 2206SOL    HW218343   9.658   0.030   2.169  1.2271 -0.5156  0.3941
 2207SOL     OW18344   0.347   0.036   9.737  0.2176 -0.0902 -0.6121
 2207SOL    HW118345   0.254   0.028   9.759 -0.4324  1.6644 -2.2936
 2207SOL    HW218346   0.390  -0.034   9.784 -1.9355 -0.7829  0.4461
 2208SOL     OW18347   9.539   6.542   3.813 -0.1267  0.4895  0.4065
 2208SOL    HW118348   9.470   6.587   3.862 -1.8589 -1.1490 -0.3972
 2208SOL    HW218349   9.505   6.454   3.800  1.2969  0.1925 -1.6972
 2209SOL     OW18350   0.582   8.949   8.683  0.0345  0.8011 -0.1725
 2209SOL    HW118351   0.565   8.864   8.642 -0.6799  0.2162  1.2676
 2209SOL    HW218352   0.496   8.991   8.689 -0.0345  0.5293  1.3714
 2210SOL     OW18353   3.274   5.431   0.528 -0.1404 -0.3433 -0.1137
 2210SOL    HW118354   3.199   5.444   0.471 -0.6904 -0.7757  0.4989
 2210SOL    HW218355   3.304   5.342   0.510  0.4994 -0.0194 -0.6714
 2211SOL     OW18356   6.163   9.082   9.230 -0.3788  0.2780  0.0472
 2211SOL    HW118357   6.256   9.061   9.234 -0.3770  0.2775  0.0009
 2211SOL    HW218358   6.127   9.047   9.312 -0.0070  1.9439  0.9556
 2212SOL     OW18359   6.832   6.748   2.518 -0.0956  0.3896 -0.5976
 2212SOL    HW118360   6.758   6.689   2.526 -1.9648  2.8204  1.8645
 2212SOL    HW218361   6.812   6.802   2.441 -0.7876  0.8608 -0.0959
 2213SOL     OW18362   5.369   7.259   5.188  0.0499 -0.6889  0.0788
 2213SOL    HW118363   5.297   7.298   5.237 -0.7327 -0.3489 -1.2827
 2213SOL    HW218364   5.443   7.318   5.204 -0.2434 -0.4750  0.6762
 2214SOL     OW18365   9.036   3.014   2.307 -0.1497  0.1839  0.0717
 2214SOL    HW118366   8.999   3.042   2.223  1.1984 -0.1703 -0.6693
 2214SOL    HW218367   9.020   3.088   2.366  0.5614  1.2475 -1.0067
 2215SOL     OW18368   4.537   5.283   7.705  0.1796 -0.0178 -0.0380
 2215SOL    HW118369   4.565   5.323   7.787 -1.5439 -0.9925  1.1172
 2215SOL    HW218370   4.451   5.322   7.688  0.1363 -0.4751 -0.9058
 2216SOL     OW18371   3.909   2.117   3.946  0.0547 -0.0142 -0.3214
 2216SOL    HW118372   3.951   2.201   3.968  0.0648  0.1468 -0.9381
 2216SOL    HW218373   3.830   2.116   3.999  0.3498  0.1221  0.1261
 2217SOL     OW18374   6.482   1.699   0.677 -0.5806  0.0958  0.1444
 2217SOL    HW118375   6.451   1.633   0.616 -0.2647  0.2115 -0.1425
 2217SOL    HW218376   6.435   1.779   0.652 -0.5883  0.0989  0.1690
 2218SOL     OW18377  11.242  11.006  11.810 -0.2466  0.6869  0.1330
 2218SOL    HW118378  11.282  11.050  11.735  1.2606  0.3591  0.6929
 2218SOL    HW218379  11.268  11.059  11.885  0.4818 -0.3797  0.6739
 2219SOL     OW18380   2.357   2.352   0.277  0.2692 -0.3974 -0.2417
 2219SOL    HW118381   2.390   2.359   0.366 -0.5822 -0.1125  0.0668
 2219SOL    HW218382   2.387   2.266   0.247  0.5688 -0.4923  0.3184
 2220SOL     OW18383   5.651   1.572   5.423 -0.2708 -0.0326  0.1007
 2220SOL    HW118384   5.596   1.594   5.498 -2.2987 -2.8407 -0.3734
 2220SOL    HW218385   5.709   1.504   5.455  0.8893  0.7904 -0.1962
 2221SOL     OW18386  10.140  11.893   0.937  0.0880  0.4831 -0.3172
 2221SOL    HW118387  10.199  11.848   0.876  0.3860 -2.8369  2.1413
 2221SOL    HW218388  10.199  11.946   0.991  0.6159 -1.0044  0.6310
 2222SOL     OW18389   4.500  10.386   9.497  0.4727  0.2293 -0.5188
 2222SOL    HW118390   4.486  10.480   9.506  0.6295  0.5304 -2.9127
 2222SOL    HW218391   4.566  10.377   9.428  2.1288 -1.6015  1.1826
 2223SOL     OW18392   0.701   9.791   8.003 -0.0844 -0.3371 -0.1619
 2223SOL    HW118393   0.730   9.721   8.060 -0.1104 -0.8709 -0.7965
 2223SOL    HW218394   0.776   9.810   7.947 -0.4115 -0.5686 -0.6830
 2224SOL     OW18395   9.056   9.521   0.017  0.2554 -0.4870 -0.4001
 2224SOL    HW118396   9.125   9.525  -0.049 -0.3133 -0.6084 -1.0036
 2224SOL    HW218397   8.990   9.462  -0.019  0.5762 -1.6887  0.8811
 2225SOL     OW18398  10.033   2.234   4.598 -0.2249  0.3017 -0.0364
 2225SOL    HW118399  10.081   2.153   4.580  0.8624  0.7074  0.8838
 2225SOL    HW218400   9.951   2.206   4.637 -0.6286 -0.4068 -1.3456
 2226SOL     OW18401   6.100   5.774   7.130 -0.3930  0.4323  0.1869
 2226SOL    HW118402   6.045   5.844   7.095 -0.4587  1.3235  1.9912
 2226SOL    HW218403   6.047   5.733   7.199  1.4590  1.9689  2.6881
 2227SOL     OW18404  11.843   7.068   6.870 -0.4568 -0.6655  0.2931
 2227SOL    HW118405  11.793   7.128   6.814  1.3432 -1.0866 -1.8925
 2227SOL    HW218406  11.777   7.007   6.904 -1.8705  0.6761  0.1296
 2228SOL     OW18407  10.986   3.991   1.381 -0.4720  0.5270 -0.1085
 2228SOL    HW118408  10.908   4.006   1.329 -0.2745  0.1705 -0.5128
 2228SOL    HW218409  11.058   4.026   1.328  0.0050 -1.8063 -1.1043
 2229SOL     OW18410   9.517   1.233   3.441  0.4606  0.1957 -0.0877
 2229SOL    HW118411   9.584   1.225   3.509  0.1639  2.9295  0.6217
 2229SOL    HW218412   9.465   1.310   3.466 -1.6817 -0.5949 -1.7189
 2230SOL     OW18413   1.332   9.729   9.057 -0.5032 -0.1920  0.3794
 2230SOL    HW118414   1.264   9.758   9.117  0.8635  0.2427  1.7747
 2230SOL    HW218415   1.390   9.805   9.047  0.8910 -1.1461  0.8503
 2231SOL     OW18416   2.147   7.238   2.910  0.3293 -0.5558  0.0547
 2231SOL    HW118417   2.177   7.238   2.819 -0.0957  0.8731 -0.1112
 2231SOL    HW218418   2.102   7.154   2.920 -0.3702 -0.3857 -1.3373
 2232SOL     OW18419   6.499   3.085   7.613 -0.0058 -0.6857 -0.5306
 2232SOL    HW118420   6.556   3.011   7.636 -1.0461 -1.1656  0.5997
 2232SOL    HW218421   6.475   3.123   7.697 -1.1137 -0.3199 -1.0083
 2233SOL     OW18422  11.070  10.012  11.662  0.4004 -0.0711  0.4126
 2233SOL    HW118423  11.094  10.033  11.572 -0.0067 -0.7998  0.1269
 2233SOL    HW218424  10.975  10.020  11.664  0.4280  0.2184  0.8621
 2234SOL     OW18425   1.073   1.465   3.942  0.0492 -0.3153 -0.4348
 2234SOL    HW118426   0.979   1.451   3.929 -0.2303 -0.5981  1.5731
 2234SOL    HW218427   1.115   1.400   3.886 -1.0142 -1.2944 -0.1391
 2235SOL     OW18428   5.702   6.012  10.880  0.4214 -0.5027 -0.6276
 2235SOL    HW118429   5.756   6.083  10.915  0.9709 -0.6442 -1.1662
 2235SOL    HW218430   5.641   5.991  10.950 -0.6884  1.4317 -0.9228
 2236SOL     OW18431  11.161   3.522   7.323  0.6634  0.4628  0.0054
 2236SOL    HW118432  11.166   3.492   7.233  1.0043  0.0220  0.1691
 2236SOL    HW218433  11.087   3.475   7.360 -1.4757  2.9040 -0.8753
 2237SOL     OW18434   7.453   8.019  11.614  0.0356  0.4359 -0.4714
 2237SOL    HW118435   7.539   7.986  11.588  0.5757  0.1155  1.6041
 2237SOL    HW218436   7.472   8.097  11.666 -0.8634 -0.1181  0.7318
 2238SOL     OW18437  10.730   1.977  10.362 -0.2593  0.4782  0.7443
 2238SOL    HW118438  10.705   1.998  10.272 -0.6078 -1.0694  0.4533
 2238SOL    HW218439  10.825   1.984  10.362 -0.1476 -0.7172 -0.0954
 2239SOL     OW18440   6.925   4.988   0.645  0.1173 -0.0020 -0.7267
 2239SOL    HW118441   6.956   4.944   0.724  0.6507 -0.5288 -1.2291
 2239SOL    HW218442   6.999   5.041   0.617  0.0935 -0.1932 -1.1516
 2240SOL     OW18443   0.786   3.261   2.629 -0.1559  0.0610  0.2551
 2240SOL    HW118444   0.814   3.177   2.667  2.7874  0.2196 -1.3541
 2240SOL    HW218445   0.691   3.261   2.642 -0.0078 -2.4761  2.3141
 2241SOL     OW18446   7.724   7.472  10.640 -0.2153 -0.4115  0.2624
 2241SOL    HW118447   7.721   7.522  10.559 -0.6427 -0.1217  0.4552
 2241SOL    HW218448   7.651   7.505  10.692 -0.1347 -0.8113  0.6398
 2242SOL     OW18449   7.179   7.423   2.444  0.3237  0.6432  0.1044
 2242SOL    HW118450   7.185   7.329   2.425  0.2296  0.8215 -0.8633
 2242SOL    HW218451   7.253   7.441   2.502  0.5828  0.0545 -0.0395
 2243SOL     OW18452   2.722   4.635   4.638 -0.1648  0.2175 -0.4186
 2243SOL    HW118453   2.673   4.705   4.680 -1.2357  0.0658 -1.3691
 2243SOL    HW218454   2.786   4.607   4.704  0.6893  2.4636 -0.2255
 2244SOL     OW18455   2.358   2.075   0.747 -0.4098  0.1206  0.1015
 2244SOL    HW118456   2.422   2.076   0.818 -0.1928 -0.3415 -0.0805
 2244SOL    HW218457   2.359   1.985   0.715 -0.4197  0.3501 -0.5663
 2245SOL     OW18458   9.657   7.243   4.184 -0.4274  0.1580  0.0788
 2245SOL    HW118459   9.691   7.308   4.246 -0.6808  1.1982 -0.8481
 2245SOL    HW218460   9.611   7.294   4.118 -1.5026 -1.0474 -0.1407
 2246SOL     OW18461   5.480   6.616   3.214  0.3740  0.1535 -0.3432
 2246SOL    HW118462   5.534   6.554   3.166  0.2826  0.1526 -0.4473
 2246SOL    HW218463   5.501   6.601   3.306 -1.2288 -1.5408 -0.1907
 2247SOL     OW18464   7.461  10.221   6.758  0.3126  0.3327  0.0271
 2247SOL    HW118465   7.383  10.198   6.707  0.2468  0.7697 -0.0755
 2247SOL    HW218466   7.429  10.283   6.824  0.6124  0.7110 -0.1773
 2248SOL     OW18467   7.012  10.132   9.373  0.2221  0.2338 -0.0887
 2248SOL    HW118468   6.974  10.199   9.316  0.0025 -0.1086 -0.3460
 2248SOL    HW218469   7.075  10.180   9.427 -1.2094  0.9998  0.9856
 2249SOL     OW18470   4.795  11.440   2.313 -0.7492  0.5593  0.6691
 2249SOL    HW118471   4.773  11.532   2.301  0.5991  0.7202 -1.0565
 2249SOL    HW218472   4.789  11.403   2.225 -1.0125 -0.9503  1.2971
 2250SOL     OW18473   5.868   3.619   4.455  0.5415  0.3144 -0.2230
 2250SOL    HW118474   5.776   3.641   4.471  0.3979 -0.2893 -0.1812
 2250SOL    HW218475   5.865   3.561   4.379  0.9499  0.8146 -0.6222
 2251SOL     OW18476  11.343  10.763   8.913 -0.0506 -0.2456 -0.1540
 2251SOL    HW118477  11.313  10.688   8.862 -1.2408  0.7189 -0.9244
 2251SOL    HW218478  11.400  10.812   8.853  1.3112 -0.8743  0.5761
 2252SOL     OW18479   2.574   5.263   6.004 -0.1374 -0.3394 -0.3964
 2252SOL    HW118480   2.543   5.313   6.079  1.6682  0.6528 -0.2720
 2252SOL    HW218481   2.549   5.315   5.927  0.7138  0.1865 -0.3230
 2253SOL     OW18482   7.666  11.231  10.760 -0.3119 -0.0781 -0.3837
 2253SOL    HW118483   7.591  11.172  10.758 -0.0133 -0.4437 -0.9612
 2253SOL    HW218484   7.732  11.184  10.812 -1.0452  0.9467  1.5748
 2254SOL     OW18485   1.058   8.085   5.997  0.1114  0.1248  0.6471
 2254SOL    HW118486   0.983   8.060   6.051 -1.0675 -0.4303 -1.1598
 2254SOL    HW218487   1.113   8.007   5.994 -0.0268  0.0262  0.6939
 2255SOL     OW18488  11.594   5.352   4.474  0.6475  0.1495 -0.0959
 2255SOL    HW118489  11.591   5.260   4.502 -0.2947  0.3074  0.3696
 2255SOL    HW218490  11.544   5.354   4.392 -0.3431  0.4286  0.4934
 2256SOL     OW18491   8.704  10.133   5.529 -0.0607  0.7343  0.4975
 2256SOL    HW118492   8.697  10.089   5.614  0.1708  0.9378  0.6236
 2256SOL    HW218493   8.670  10.069   5.466  1.6568 -0.2354  0.4913
 2257SOL     OW18494   4.321   1.229   0.783  0.0961  0.5201  0.0079
 2257SOL    HW118495   4.246   1.281   0.755  0.1669  1.7758  1.9313
 2257SOL    HW218496   4.303   1.141   0.752 -1.7035  1.0099 -0.4069
 2258SOL     OW18497   0.668   4.548   8.857 -0.5189  0.1012 -0.0593
 2258SOL    HW118498   0.685   4.505   8.941  0.2738 -0.9021 -0.6963
 2258SOL    HW218499   0.740   4.518   8.801 -0.1669  1.9745 -0.6650
 2259SOL     OW18500   2.174   8.427  11.640  0.3107  0.4201 -0.2250
 2259SOL    HW118501   2.222   8.369  11.581 -1.0820 -0.0063 -0.9830
 2259SOL    HW218502   2.170   8.510  11.593  1.4553  0.8785  0.4374
 2260SOL     OW18503   0.041   3.752   4.685 -0.2327 -0.2212 -0.5335
 2260SOL    HW118504  -0.044   3.770   4.725  0.5961 -0.3076  1.3721
 2260SOL    HW218505   0.082   3.688   4.743  0.8326 -0.8090 -1.8595
 2261SOL     OW18506   2.909   4.876  10.981  0.0043  0.1990 -0.0136
 2261SOL    HW118507   2.838   4.836  10.931 -0.6188 -1.1621  1.8435
 2261SOL    HW218508   2.865   4.934  11.043  0.5008 -0.4585  0.9856
 2262SOL     OW18509   2.938   7.775   9.901  0.4635  0.1595  0.3416
 2262SOL    HW118510   2.855   7.809   9.868  0.1516 -1.4401 -0.6456
 2262SOL    HW218511   3.004   7.834   9.866 -0.0990  0.1453 -0.7747
 2263SOL     OW18512   0.975   9.542   8.289 -0.4057  0.1764  0.0449
 2263SOL    HW118513   0.946   9.632   8.303 -0.2997  0.2326 -0.0916
 2263SOL    HW218514   0.971   9.531   8.194 -1.7207 -0.3982  0.1421
 2264SOL     OW18515   1.035  10.676   5.574  0.3462 -0.2590 -0.3628
 2264SOL    HW118516   1.054  10.594   5.529  1.3812 -0.4220  0.3406
 2264SOL    HW218517   1.120  10.707   5.605 -0.0433  1.0196 -0.5027
 2265SOL     OW18518   0.149   8.268  10.364 -0.6388  0.2587  0.4618
 2265SOL    HW118519   0.225   8.211  10.373 -1.0645 -0.0882  2.0590
 2265SOL    HW218520   0.180   8.355  10.389 -0.5690  0.2871  0.2810
 2266SOL     OW18521   8.058   3.515   1.177 -0.0167  0.0888  0.0734
 2266SOL    HW118522   7.974   3.560   1.170 -0.0593  0.6192  2.9803
 2266SOL    HW218523   8.039   3.435   1.225  0.6370 -1.5685 -2.2214
 2267SOL     OW18524   2.741  11.258   5.712  0.2215 -0.1362  0.5623
 2267SOL    HW118525   2.753  11.318   5.785  0.2140 -0.5876  0.9384
 2267SOL    HW218526   2.768  11.172   5.746  0.2397 -0.3466  0.0327
 2268SOL     OW18527   2.729   3.651   9.893  0.9264 -0.6412 -0.0856
 2268SOL    HW118528   2.769   3.596   9.961  2.4887  0.2734 -0.2298
 2268SOL    HW218529   2.772   3.624   9.812  0.8036 -0.0664 -0.3432
 2269SOL     OW18530   8.267  10.008  11.054  0.0202 -0.0892  0.6795
 2269SOL    HW118531   8.212  10.035  11.128 -1.8828 -3.4428  0.6882
 2269SOL    HW218532   8.276   9.913  11.064  1.3088 -0.3936 -2.3478
 2270SOL     OW18533   5.934  10.494   3.751 -0.3017  0.8037 -0.2849
 2270SOL    HW118534   6.021  10.456   3.738 -0.8679 -1.2572  1.3173
 2270SOL    HW218535   5.876  10.438   3.699 -0.9388  0.5606  0.6602
 2271SOL     OW18536   3.297   3.169   9.966 -0.2732 -0.1255 -0.0304
 2271SOL    HW118537   3.223   3.154   9.907 -0.1906 -0.4488 -0.0550
 2271SOL    HW218538   3.258   3.190  10.050 -0.4047  1.4579 -0.4663
 2272SOL     OW18539   9.220   4.660   2.839  0.1972 -0.5163  0.0748
 2272SOL    HW118540   9.264   4.714   2.773 -1.0433 -1.2087 -1.3777
 2272SOL    HW218541   9.129   4.690   2.838  0.1124 -0.6917  1.3286
 2273SOL     OW18542   1.912   3.654  10.696  0.4600 -0.7604 -0.5368
 2273SOL    HW118543   1.973   3.717  10.657  0.5871 -0.3980  0.2302
 2273SOL    HW218544   1.830   3.668  10.650  0.3430  0.3382 -0.0266
 2274SOL     OW18545   8.902   7.896   6.315  0.0236 -0.2746  0.5465
 2274SOL    HW118546   8.883   7.852   6.233  1.7777 -0.1263  0.0207
 2274SOL    HW218547   8.847   7.851   6.380 -2.1191  0.2377 -0.8127
 2275SOL     OW18548   5.528   3.462  11.335 -0.1967  0.1712 -0.1691
 2275SOL    HW118549   5.589   3.396  11.304 -2.3277 -2.0705  0.1025
 2275SOL    HW218550   5.526   3.529  11.266  1.5645 -0.3248 -0.7326
 2276SOL     OW18551   6.823   9.329   3.865  0.0313  0.1350  0.4047
 2276SOL    HW118552   6.753   9.306   3.804  0.7856 -0.3488 -0.3012
 2276SOL    HW218553   6.783   9.391   3.926 -1.2097 -0.6785  0.4510
 2277SOL     OW18554   8.541   9.951  10.471  0.5242  0.2029  0.5923
 2277SOL    HW118555   8.536  10.047  10.473  1.5423  0.2635  0.4877
 2277SOL    HW218556   8.529   9.928  10.378 -0.6041  0.1624  0.7327
 2278SOL     OW18557   7.247   9.294   5.122 -0.1464 -0.3032 -0.0571
 2278SOL    HW118558   7.274   9.230   5.055 -0.1558  0.8224 -1.1716
 2278SOL    HW218559   7.240   9.377   5.075  1.8144  0.9881  1.7047
 2279SOL     OW18560   1.033   8.324   9.193  0.0024 -0.2845  0.0294
 2279SOL    HW118561   1.035   8.272   9.113 -0.3891 -0.6827  0.2697
 2279SOL    HW218562   1.045   8.259   9.263  0.9802  0.1358  0.2638
 2280SOL     OW18563   4.980   7.574   9.255 -0.0160  0.1249 -0.4508
 2280SOL    HW118564   4.927   7.618   9.188 -0.7876  1.4920  1.0100
 2280SOL    HW218565   4.918   7.546   9.321  0.8349 -0.3734  0.1580
 2281SOL     OW18566   9.717   3.247  11.899  0.4772  0.2623 -0.0944
 2281SOL    HW118567   9.754   3.293  11.975  0.8607 -1.5162  0.8445
 2281SOL    HW218568   9.788   3.246  11.835  0.0436  2.0676 -0.6688
 2282SOL     OW18569   8.231   2.025   7.210 -0.2626  0.3226  0.5929
 2282SOL    HW118570   8.267   2.078   7.139  3.0758 -0.7503  1.3042
 2282SOL    HW218571   8.149   2.069   7.234  0.6606  3.1735 -1.0405
 2283SOL     OW18572   4.236  10.077   8.567  0.0926 -0.0786 -0.2664
 2283SOL    HW118573   4.329  10.095   8.557 -0.1215  1.3584  0.1246
 2283SOL    HW218574   4.222  10.068   8.661 -0.4712  1.7040 -0.1413
 2284SOL     OW18575  10.875   1.591   1.944  0.0633  0.1669 -0.1279
 2284SOL    HW118576  10.889   1.510   1.993 -0.6050 -0.2321 -0.5753
 2284SOL    HW218577  10.802   1.633   1.989  0.2802  0.4223 -0.0164
 2285SOL     OW18578   4.864   4.864   5.788  0.2868 -0.0123 -0.3332
 2285SOL    HW118579   4.941   4.846   5.843  0.7035  0.6902 -0.6633
 2285SOL    HW218580   4.844   4.957   5.805  0.1353  0.0834 -1.0117
 2286SOL     OW18581   1.161   5.089   0.525 -0.2353 -0.3740  0.0109
 2286SOL    HW118582   1.188   5.181   0.523 -0.2357 -0.2829  2.1665
 2286SOL    HW218583   1.073   5.090   0.487  0.1740  0.3224 -0.9728
 2287SOL     OW18584   7.915   4.142   9.391 -0.2218 -0.3058 -0.3564
 2287SOL    HW118585   7.898   4.224   9.437  1.6413 -0.4087  0.6098
 2287SOL    HW218586   7.897   4.074   9.456  0.4368 -0.5474 -0.4210
 2288SOL     OW18587   1.796  10.763   8.713  0.3393  0.0906  0.6114
 2288SOL    HW118588   1.827  10.842   8.667  0.5539  0.2364  0.9988
 2288SOL    HW218589   1.733  10.723   8.653 -0.5115  1.0892  0.8070
 2289SOL     OW18590   6.980   7.341  10.543 -0.0625 -0.7062  0.1123
 2289SOL    HW118591   6.943   7.430  10.539 -0.6688 -0.9903 -1.4987
 2289SOL    HW218592   7.074   7.355  10.554 -0.2242  0.1213  0.5494
 2290SOL     OW18593   3.219  10.386  11.332  0.2690 -0.1667 -0.1507
 2290SOL    HW118594   3.264  10.428  11.406 -0.4435 -0.3607  0.3999
 2290SOL    HW218595   3.186  10.459  11.280 -2.0343  0.0495  1.4481
 2291SOL     OW18596   8.868  10.374   2.514 -0.1384 -0.0367  0.2454
 2291SOL    HW118597   8.930  10.375   2.442  0.9687 -0.7194  1.1502
 2291SOL    HW218598   8.873  10.286   2.550  0.2725  0.6013  1.8979
 2292SOL     OW18599   9.290   8.925   7.148  0.7101  0.0188 -0.3677
 2292SOL    HW118600   9.341   8.986   7.095  1.0692 -0.2261 -0.3152
 2292SOL    HW218601   9.308   8.839   7.109  1.6230 -0.2749  0.6131
 2293SOL     OW18602  11.494   6.086  10.887 -0.0266 -0.6162 -0.0090
 2293SOL    HW118603  11.584   6.109  10.909 -0.1858  0.9786 -0.8696
 2293SOL    HW218604  11.441   6.152  10.932 -0.4903  1.0359 -2.7371
 2294SOL     OW18605   5.170  10.810   9.292 -0.9071  0.4618  0.2222
 2294SOL    HW118606   5.086  10.847   9.319 -2.3035 -1.2531 -1.4420
 2294SOL    HW218607   5.147  10.739   9.232  1.6428 -1.4409  1.2534
 2295SOL     OW18608   7.165  11.560   0.278 -0.0727 -0.5508  0.0379
 2295SOL    HW118609   7.204  11.556   0.191  1.5471  1.2513  0.6080
 2295SOL    HW218610   7.178  11.472   0.315  2.4359 -0.3761 -0.2740
 2296SOL     OW18611   9.509   1.583   5.671  0.2502  0.0694  0.1158
 2296SOL    HW118612   9.547   1.550   5.589 -2.4957  0.1988 -1.3626
 2296SOL    HW218613   9.583   1.612   5.723  2.0798  1.8625 -3.1667
 2297SOL     OW18614  10.223   6.745   3.312  0.0832  0.0446  0.0539
 2297SOL    HW118615  10.246   6.838   3.305 -0.6188  0.4436  2.1120
 2297SOL    HW218616  10.149   6.744   3.373 -0.5497 -1.8066 -0.6716
 2298SOL     OW18617  11.347   4.899   9.328  0.1904  0.4114 -0.3031
 2298SOL    HW118618  11.378   4.860   9.247 -1.5386  0.7151 -1.1607
 2298SOL    HW218619  11.399   4.857   9.397  1.5494  0.0019 -1.5252
 2299SOL     OW18620   1.095   0.288   0.433  0.1704  0.5686 -0.1612
 2299SOL    HW118621   1.129   0.267   0.345 -0.2458  0.0572 -0.2058
 2299SOL    HW218622   1.131   0.219   0.489 -1.6995 -0.6826 -0.4121
 2300SOL     OW18623   1.676   7.972   5.317 -0.1501  0.0630 -0.0179
 2300SOL    HW118624   1.658   8.045   5.377  1.8680  1.5670 -1.0968
 2300SOL    HW218625   1.590   7.947   5.282 -0.8530  2.6368 -0.3559
 2301SOL     OW18626   6.989   6.530   4.593  0.2575  0.6551  0.1548
 2301SOL    HW118627   7.080   6.537   4.563  0.4193  1.1454  0.7386
 2301SOL    HW218628   6.947   6.609   4.558 -0.3540 -0.3506 -1.4640
 2302SOL     OW18629  11.587   5.711   9.566  0.3152  0.2373 -0.1750
 2302SOL    HW118630  11.679   5.709   9.539  0.0233  1.5183 -1.3743
 2302SOL    HW218631  11.591   5.716   9.662  1.4283 -1.6933 -0.0573
 2303SOL     OW18632   4.211   9.169   0.488  0.0526 -0.2287  0.4377
 2303SOL    HW118633   4.180   9.123   0.566  0.5554  1.1487  1.4891
 2303SOL    HW218634   4.145   9.235   0.470 -1.0059 -1.6817 -1.4692
 2304SOL     OW18635   1.455   5.281   0.401 -0.1254  0.0560  0.2703
 2304SOL    HW118636   1.518   5.352   0.409 -0.8748  1.0208 -1.6905
 2304SOL    HW218637   1.373   5.318   0.433 -0.5061  0.0959 -0.7102
 2305SOL     OW18638   5.153   8.631   2.343 -0.2714 -0.3123  0.1462
 2305SOL    HW118639   5.194   8.616   2.428 -3.0107 -2.0010  1.3055
 2305SOL    HW218640   5.065   8.663   2.364 -1.0444 -0.8576 -2.0435
 2306SOL     OW18641   2.389   1.804   4.205  0.3707  0.0018 -0.1505
 2306SOL    HW118642   2.366   1.896   4.194 -0.9109  0.1349  2.7552
 2306SOL    HW218643   2.485   1.804   4.211  0.3972  1.1234 -0.3276
 2307SOL     OW18644   8.793   6.829   3.966  0.1276 -0.3437 -0.2868
 2307SOL    HW118645   8.750   6.805   3.884  0.1907 -0.6005 -0.2451
 2307SOL    HW218646   8.877   6.867   3.940 -0.7301  1.5651 -0.4569
 2308SOL     OW18647   7.396   0.996   3.922  0.3173 -0.2447 -0.3836
 2308SOL    HW118648   7.464   1.063   3.918 -0.8459  0.9463 -2.7844
 2308SOL    HW218649   7.440   0.916   3.894  1.2754 -0.0601  0.5316
 2309SOL     OW18650   4.767   4.600   5.180  0.0139  0.5457 -0.5225
 2309SOL    HW118651   4.703   4.656   5.135  0.7177  1.2537 -0.6522
 2309SOL    HW218652   4.821   4.660   5.230 -0.9057 -0.2540  1.5332
 2310SOL     OW18653   3.499   4.011   7.645  0.3845  0.3915 -0.0829
 2310SOL    HW118654   3.579   4.028   7.695  0.3602 -0.8823  0.4260
 2310SOL    HW218655   3.529   4.000   7.555  0.6272  1.0935 -0.0947
 2311SOL     OW18656  10.067   1.926   9.607  0.8589 -0.3617 -0.1025
 2311SOL    HW118657  10.162   1.921   9.624  0.6541  1.2334  1.8482
 2311SOL    HW218658  10.048   2.019   9.603 -0.2691 -0.6197 -3.2881
 2312SOL     OW18659   7.002   8.637   8.026 -0.0842  0.0026 -0.2168
 2312SOL    HW118660   7.021   8.729   8.012  1.2685 -0.7209 -4.5208
 2312SOL    HW218661   7.074   8.605   8.080  1.4702  0.8258 -1.7192
 2313SOL     OW18662   3.154  10.601   6.732  0.0256  0.2917 -0.0572
 2313SOL    HW118663   3.069  10.565   6.755 -0.3903  1.2912  0.0302
 2313SOL    HW218664   3.135  10.677   6.678  0.9315 -0.5003 -1.5504
 2314SOL     OW18665   9.696   6.358   2.936  0.2172  0.0765 -0.1802
 2314SOL    HW118666   9.628   6.294   2.955  1.2335 -1.8305 -2.4265
 2314SOL    HW218667   9.648   6.436   2.907 -1.0516  0.5549  2.8418
 2315SOL     OW18668   9.034   1.693  10.432  0.7380 -0.4868 -0.0099
 2315SOL    HW118669   8.978   1.639  10.487  0.2213 -1.7704 -1.6945
 2315SOL    HW218670   9.121   1.656  10.443  0.6984 -0.5249  0.1815
 2316SOL     OW18671  11.808   6.052   6.633 -0.3940 -0.0982 -0.2808
 2316SOL    HW118672  11.787   6.012   6.718 -0.1866  1.3736  0.5035
 2316SOL    HW218673  11.749   6.127   6.627  0.4718  0.5577 -0.8394
 2317SOL     OW18674   7.831   6.934   6.710 -0.3878 -0.4092 -0.7425
 2317SOL    HW118675   7.864   7.024   6.706  0.9304 -0.8773 -0.7326
 2317SOL    HW218676   7.771   6.935   6.785 -0.0838  0.3687 -0.4930
 2318SOL     OW18677   1.603   6.072   4.044  0.3220 -0.1758 -0.7030
 2318SOL    HW118678   1.652   6.038   3.969  0.6934 -0.3967 -0.3660
 2318SOL    HW218679   1.512   6.065   4.019  0.4490  2.7871 -2.4774
 2319SOL     OW18680   3.222  11.556   2.402  0.3434  0.2388 -0.1482
 2319SOL    HW118681   3.171  11.520   2.329 -1.5370  1.7120  0.3704
 2319SOL    HW218682   3.187  11.512   2.479  0.2931  0.8186  0.1583
 2320SOL     OW18683  10.640   5.797   0.652 -0.1501  0.0702  0.0377
 2320SOL    HW118684  10.697   5.753   0.589 -1.1808 -1.1812 -0.0453
 2320SOL    HW218685  10.701   5.845   0.709  0.8259  1.1597 -1.7877
 2321SOL     OW18686   3.354   3.894  11.632  0.0249  0.3071 -0.1538
 2321SOL    HW118687   3.321   3.897  11.721 -1.0130  2.0480 -0.5667
 2321SOL    HW218688   3.406   3.813  11.629  1.1566  0.8518  2.3662
 2322SOL     OW18689   8.287   9.973   1.796 -0.0785  0.3008  0.0727
 2322SOL    HW118690   8.373  10.013   1.810 -0.1152  0.7128 -0.8407
 2322SOL    HW218691   8.239  10.036   1.743 -0.7480 -0.1902  0.0801
 2323SOL     OW18692   3.462   5.877   5.305 -0.2214 -0.5931 -0.6505
 2323SOL    HW118693   3.504   5.958   5.276 -0.8144 -0.6080 -1.6042
 2323SOL    HW218694   3.517   5.846   5.377  1.7317 -0.8582 -2.1484
 2324SOL     OW18695   1.338   4.031   9.312 -0.1770  0.0031 -0.5166
 2324SOL    HW118696   1.360   4.016   9.403 -0.9127 -1.0528 -0.4991
 2324SOL    HW218697   1.337   3.944   9.272  0.1125  0.4406 -1.5351
 2325SOL     OW18698   5.307   0.922   7.897 -0.3942 -0.2706  0.1239
 2325SOL    HW118699   5.343   0.984   7.835 -0.6387 -0.0481  0.2002
 2325SOL    HW218700   5.236   0.878   7.849  0.7872 -1.6223 -0.4498
 2326SOL     OW18701   1.049   7.715   6.805 -0.0152 -0.2976  0.0453
 2326SOL    HW118702   1.124   7.742   6.753 -0.4127  0.1704 -0.3005
 2326SOL    HW218703   0.985   7.785   6.792 -0.1528 -0.2051  1.1027
 2327SOL     OW18704   2.957   8.270   0.315 -0.5775  0.0084  0.2433
 2327SOL    HW118705   2.916   8.203   0.261 -1.5509 -0.9950  2.1058
 2327SOL    HW218706   3.039   8.230   0.345  0.3367  0.8463 -1.0107
 2328SOL     OW18707   7.020   8.595  10.396  0.1896 -0.2202  0.3355
 2328SOL    HW118708   7.017   8.505  10.429 -1.8168  0.2521  1.5918
 2328SOL    HW218709   7.080   8.641  10.455 -2.6755  0.4018  3.0250
 2329SOL     OW18710   3.975   4.467  10.129 -0.2624 -0.0156  0.0805
 2329SOL    HW118711   3.884   4.489  10.108  0.3873  1.8696 -0.9437
 2329SOL    HW218712   3.971   4.376  10.156 -2.3209 -0.2879 -0.9071
 2330SOL     OW18713   6.488   8.256   8.449  0.2640  0.2626 -0.0792
 2330SOL    HW118714   6.422   8.187   8.440  1.0365 -0.6792  1.1884
 2330SOL    HW218715   6.515   8.275   8.359 -1.2282  0.1953 -0.5703
 2331SOL     OW18716   3.946  11.368   5.346  0.3022 -0.0461  0.3784
 2331SOL    HW118717   3.928  11.462   5.340  2.4501  0.4378  0.6744
 2331SOL    HW218718   3.972  11.342   5.258  1.1345 -0.0261  0.6140
 2332SOL     OW18719  11.737   0.775  11.801 -0.6725 -0.4143  0.1003
 2332SOL    HW118720  11.807   0.840  11.804 -1.7036  0.6692  1.5111
 2332SOL    HW218721  11.779   0.698  11.763  0.4327  1.1998 -2.1513
 2333SOL     OW18722  10.529  11.876   0.539 -0.9893 -0.1578  0.0546
 2333SOL    HW118723  10.455  11.877   0.479  0.2837 -0.0532 -1.5851
 2333SOL    HW218724  10.604  11.853   0.484  0.6053  2.0533  1.1607
 2334SOL     OW18725   5.529   8.557  11.293 -0.3508 -0.1458  0.1908
 2334SOL    HW118726   5.602   8.604  11.254 -0.7200 -1.6236 -2.5853
 2334SOL    HW218727   5.499   8.613  11.365  0.3557  2.9453 -1.7395
 2335SOL     OW18728   9.587   5.220   6.213 -0.0232  0.1048 -0.0979
 2335SOL    HW118729   9.660   5.282   6.217  0.6256 -0.6639  0.3492
 2335SOL    HW218730   9.535   5.249   6.138  0.3946  1.0400 -0.0432
 2336SOL     OW18731   1.984  10.072  11.732 -0.2473  0.0621 -0.2257
 2336SOL    HW118732   1.992  10.132  11.658 -3.4914  0.3197 -0.5143
 2336SOL    HW218733   1.940   9.995  11.696 -1.1189 -0.1559  1.2051
 2337SOL     OW18734   6.590   1.929   1.880  0.2205 -0.4206  0.4731
 2337SOL    HW118735   6.602   1.863   1.811  0.9762  2.3420 -2.3010
 2337SOL    HW218736   6.516   1.981   1.850 -0.1171  0.2541  2.3694
 2338SOL     OW18737   8.346  11.926   8.514 -0.0017  0.4426 -0.0673
 2338SOL    HW118738   8.386  12.013   8.517  0.3965  0.3054 -1.0506
 2338SOL    HW218739   8.407  11.874   8.463 -0.5919 -0.2330 -0.0965
 2339SOL     OW18740   4.902   2.204   2.544 -0.1693  0.0865  0.3222
 2339SOL    HW118741   4.965   2.200   2.472 -0.8081  2.0931 -0.3892
 2339SOL    HW218742   4.838   2.136   2.524  2.1578 -2.7051  1.5608
 2340SOL     OW18743   9.642   6.601   6.572  0.0103  0.3441 -0.1829
 2340SOL    HW118744   9.671   6.519   6.532  0.6772  0.1486  0.6590
 2340SOL    HW218745   9.700   6.668   6.535 -0.4526  0.4262 -0.7754
 2341SOL     OW18746   0.858   8.246   9.771  0.0025 -1.0401  0.4318
 2341SOL    HW118747   0.921   8.307   9.810  0.4576 -0.4156 -1.1913
 2341SOL    HW218748   0.896   8.159   9.787  0.8164 -0.7185  0.2914
 2342SOL     OW18749   6.572   5.640  10.088  0.2171  0.1603  0.3796
 2342SOL    HW118750   6.583   5.596  10.004  2.4995 -0.3706  0.8808
 2342SOL    HW218751   6.520   5.578  10.140  2.5293 -1.6310  0.7386
 2343SOL     OW18752   7.695   5.250   6.819 -0.7392 -0.5497  0.1904
 2343SOL    HW118753   7.646   5.304   6.882 -1.0427 -0.3107 -0.2440
 2343SOL    HW218754   7.696   5.302   6.739  1.1628 -0.0884  0.4844
 2344SOL     OW18755   6.715   9.723   4.170 -0.0396 -0.4222 -0.7923
 2344SOL    HW118756   6.804   9.712   4.137  0.2669 -0.6530  0.0825
 2344SOL    HW218757   6.673   9.781   4.107  1.3497  1.3840 -0.1583
 2345SOL     OW18758   1.810   3.984   7.993 -0.0617 -0.1073 -0.1940
 2345SOL    HW118759   1.813   3.977   8.089 -0.7221  0.1523 -0.1500
 2345SOL    HW218760   1.744   4.051   7.976  0.1815 -0.0277 -0.8282
 2346SOL     OW18761   2.417   9.802   3.849  0.1207 -0.7665 -0.2959
 2346SOL    HW118762   2.500   9.782   3.892 -0.6660 -1.3245  1.0323
 2346SOL    HW218763   2.442   9.838   3.764  1.7097 -1.1544 -0.0278
 2347SOL     OW18764   7.198   1.953   0.016 -0.0344 -0.8414  0.2989
 2347SOL    HW118765   7.222   1.866  -0.018 -3.0478 -1.1527 -1.3736
 2347SOL    HW218766   7.118   1.938   0.065 -1.5390  1.1625 -1.3786
 2348SOL     OW18767   7.709   0.670  11.671  0.4000  0.2624 -0.2504
 2348SOL    HW118768   7.765   0.616  11.726 -0.9839 -0.6006  0.3861
 2348SOL    HW218769   7.676   0.609  11.604 -1.0554  0.3134  0.3770
 2349SOL     OW18770   9.482   4.102   0.243 -0.4627  0.3838  0.7286
 2349SOL    HW118771   9.547   4.036   0.222 -2.4098 -1.0828 -1.0816
 2349SOL    HW218772   9.471   4.096   0.338 -0.3909 -1.7539  0.6455
 2350SOL     OW18773   9.676   8.586   5.272  0.3583  0.2971 -0.0541
 2350SOL    HW118774   9.617   8.646   5.317  0.1429  1.1348 -1.4004
 2350SOL    HW218775   9.763   8.625   5.283  0.4082  0.0839  0.3058
 2351SOL     OW18776   1.245   0.843  10.681  0.9771  0.0068  0.4335
 2351SOL    HW118777   1.190   0.921  10.671  1.6344  0.5456  0.9438
 2351SOL    HW218778   1.184   0.774  10.707  0.2700  0.1598 -0.7648
 2352SOL     OW18779   8.109  11.717   9.567 -0.2396 -0.2358  0.3351
 2352SOL    HW118780   8.146  11.648   9.512  0.7435  1.0822 -0.7041
 2352SOL    HW218781   8.028  11.742   9.522  0.4960  0.7478 -0.5040
 2353SOL     OW18782   7.549  11.948   8.957  0.0631  0.4830 -0.0932
 2353SOL    HW118783   7.530  11.857   8.934 -0.5714  0.1170  1.7168
 2353SOL    HW218784   7.636  11.945   8.996 -0.3507  0.4774  0.8482
 2354SOL     OW18785  11.324   3.514   6.804  0.1164  0.0337 -0.9945
 2354SOL    HW118786  11.413   3.518   6.840 -0.3806  0.0285  0.3229
 2354SOL    HW218787  11.304   3.421   6.804 -0.1293  0.0849 -0.6364
 2355SOL     OW18788   3.491   4.091   4.737 -0.2813 -0.6670  0.0806
 2355SOL    HW118789   3.514   4.027   4.669 -0.6154 -0.6513 -0.0500
 2355SOL    HW218790   3.407   4.127   4.708  0.0426  0.0491  0.0012
 2356SOL     OW18791   7.985   0.194   2.815 -0.3057  0.3317 -0.4870
 2356SOL    HW118792   8.020   0.183   2.726  1.3379 -0.5917  0.2138
 2356SOL    HW218793   8.008   0.112   2.859 -1.5916  0.5553  0.6452
 2357SOL     OW18794   4.500   4.328  11.065 -0.2323  0.2174 -0.0227
 2357SOL    HW118795   4.558   4.400  11.089 -1.8957  1.3188  0.8956
 2357SOL    HW218796   4.459   4.356  10.983 -2.1365  1.2000  1.1673
 2358SOL     OW18797   6.302   9.902   6.424 -0.0525  0.5231 -0.6530
 2358SOL    HW118798   6.275   9.865   6.340  0.1530  0.8818 -0.8805
 2358SOL    HW218799   6.263   9.844   6.490  0.1868 -0.0377 -1.0001
 2359SOL     OW18800   3.012   3.859   2.416  0.1518 -0.7659  0.2999
 2359SOL    HW118801   2.942   3.821   2.363  1.5163 -1.3946 -1.1835
 2359SOL    HW218802   3.086   3.799   2.403  2.1156  1.7936 -1.3353
 2360SOL     OW18803  11.423   6.672   5.955 -0.0210  0.5706  0.3340
 2360SOL    HW118804  11.512   6.700   5.974  0.3288  0.7542 -1.4444
 2360SOL    HW218805  11.373   6.753   5.947 -0.0250  0.5223 -0.1458
 2361SOL     OW18806   4.027   2.856   7.040  0.3394 -0.2269  0.1818
 2361SOL    HW118807   4.047   2.932   7.094  1.4040 -2.3433  3.0151
 2361SOL    HW218808   4.113   2.825   7.011  0.0617 -1.2610  0.4368
 2362SOL     OW18809   3.141   4.026   1.200  0.5613 -0.2928 -0.0146
 2362SOL    HW118810   3.216   3.966   1.198  0.0263 -0.9738 -1.5056
 2362SOL    HW218811   3.084   3.995   1.129 -1.4458 -0.1959  1.4675
 2363SOL     OW18812   1.872   1.561   6.350 -0.3983  0.3180 -0.1147
 2363SOL    HW118813   1.963   1.579   6.376  0.3735 -0.2618 -2.2109
 2363SOL    HW218814   1.864   1.466   6.356 -0.8824  0.3646  0.0437
 2364SOL     OW18815   4.400   9.391   6.227  0.1653  0.3909 -0.1749
 2364SOL    HW118816   4.389   9.486   6.219  0.3419  0.5730  1.2964
 2364SOL    HW218817   4.383   9.374   6.320 -0.2916 -1.0841 -0.5158
 2365SOL     OW18818   6.568   7.616  11.680 -0.4320 -0.3407 -0.0425
 2365SOL    HW118819   6.661   7.609  11.701 -0.0916  1.2298 -0.8870
 2365SOL    HW218820   6.526   7.640  11.764  0.0451 -0.2485  0.1715
 2366SOL     OW18821   4.295  11.157   7.366  0.1816 -0.0206  0.3491
 2366SOL    HW118822   4.348  11.080   7.346  1.6744  1.0932 -0.2434
 2366SOL    HW218823   4.207  11.133   7.338  0.2102 -2.1387  1.8578
 2367SOL     OW18824  11.220   6.642   8.282 -1.1658 -0.1322 -0.7045
 2367SOL    HW118825  11.239   6.726   8.240  1.2969 -0.1814  0.1547
 2367SOL    HW218826  11.294   6.586   8.259 -1.3122 -1.1473  1.1145
 2368SOL     OW18827   1.797   9.278   8.153 -0.1145 -0.2158  0.3207
 2368SOL    HW118828   1.822   9.370   8.151  0.2146 -0.2332  1.8500
 2368SOL    HW218829   1.750   9.268   8.236 -0.8877 -1.2502 -0.2216
 2369SOL     OW18830   5.507   6.508   6.722  0.0970  0.5656  0.1856
 2369SOL    HW118831   5.448   6.497   6.648 -1.4757 -1.3535  1.5939
 2369SOL    HW218832   5.496   6.599   6.749 -1.0180  0.6706 -0.5732
 2370SOL     OW18833   8.154  11.527   2.642 -0.7229  0.2144 -0.1538
 2370SOL    HW118834   8.196  11.483   2.716  1.5347 -0.3772 -1.7079
 2370SOL    HW218835   8.206  11.606   2.628 -2.3336  1.3818  0.0615
 2371SOL     OW18836   4.964   2.521   1.130 -0.1715 -0.1641 -0.0185
 2371SOL    HW118837   4.876   2.548   1.102 -0.3338 -0.7090 -0.0359
 2371SOL    HW218838   5.017   2.528   1.051 -0.1262  0.4568  0.0588
 2372SOL     OW18839   7.249   1.460   7.680 -0.4247  0.1265  0.3401
 2372SOL    HW118840   7.336   1.427   7.701 -0.0641  1.2477  0.6936
 2372SOL    HW218841   7.191   1.386   7.696  0.3278 -0.3007  1.2185
 2373SOL     OW18842   4.293   4.036   2.438 -0.2406  0.1928  0.1318
 2373SOL    HW118843   4.216   4.085   2.412  1.5401  3.3447  0.3016
 2373SOL    HW218844   4.303   4.055   2.532  1.6098  1.2552 -0.2354
 2374SOL     OW18845  11.193   8.125   3.762  0.2446 -0.0423  0.2449
 2374SOL    HW118846  11.128   8.068   3.802 -0.0973 -1.5479 -2.2681
 2374SOL    HW218847  11.263   8.066   3.734  1.8334  1.3124  1.1546
 2375SOL     OW18848   9.402   9.717   7.333  0.1746 -0.0806  0.0486
 2375SOL    HW118849   9.453   9.769   7.271 -0.0437 -1.3586 -1.2861
 2375SOL    HW218850   9.432   9.744   7.419 -1.4288  3.7923 -0.4022
 2376SOL     OW18851   7.736   4.595   6.318  0.0876 -0.9082 -0.2970
 2376SOL    HW118852   7.740   4.503   6.292  1.1851 -0.7771 -0.6360
 2376SOL    HW218853   7.665   4.632   6.265 -0.6796 -1.6565  0.1897
 2377SOL     OW18854   9.415   4.818   9.305 -0.4517 -0.1151  0.4206
 2377SOL    HW118855   9.343   4.810   9.367 -0.0722  1.5838  1.1318
 2377SOL    HW218856   9.493   4.822   9.359  0.0889 -0.8559 -0.2881
 2378SOL     OW18857   0.745   5.311  10.076 -0.2353  0.3569 -0.3952
 2378SOL    HW118858   0.685   5.274  10.141  0.8208 -0.2439  0.2709
 2378SOL    HW218859   0.691   5.373  10.026 -1.1650  0.5420  0.7927
 2379SOL     OW18860   7.522   3.371  10.572 -0.2135  0.4811  0.6159
 2379SOL    HW118861   7.463   3.416  10.632  0.5736  0.8433  1.1353
 2379SOL    HW218862   7.469   3.356  10.493 -1.4404 -0.4962  1.5785
 2380SOL     OW18863   6.422  10.838   0.243  0.8390  0.7208  0.1184
 2380SOL    HW118864   6.396  10.823   0.334  0.8889 -1.6771 -0.1848
 2380SOL    HW218865   6.350  10.803   0.191  1.9369 -0.3953 -0.7335
 2381SOL     OW18866   5.602   2.800   1.485 -0.1558  0.0096 -0.3021
 2381SOL    HW118867   5.663   2.734   1.517 -0.2363 -0.3883 -0.9332
 2381SOL    HW218868   5.657   2.867   1.445 -0.1082 -1.5459 -3.1683
 2382SOL     OW18869   1.388   4.602   5.921 -0.2634  0.6899  0.2174
 2382SOL    HW118870   1.301   4.642   5.927 -0.6740  0.7133 -3.5117
 2382SOL    HW218871   1.378   4.517   5.964 -2.9439 -0.3036 -2.0047
 2383SOL     OW18872   2.986   5.758   5.578  0.0003 -0.2452  0.2405
 2383SOL    HW118873   2.929   5.714   5.641  1.1416 -0.5518  1.0829
 2383SOL    HW218874   2.983   5.703   5.500 -0.4381 -0.5480  0.4662
 2384SOL     OW18875   0.871  10.373   7.216  0.0579 -0.9983  0.0870
 2384SOL    HW118876   0.863  10.295   7.270 -1.4402 -0.7212  0.3098
 2384SOL    HW218877   0.893  10.443   7.278  0.9791 -1.1501 -0.0541
 2385SOL     OW18878   4.074   8.629   3.109 -0.7313 -0.1206  0.3077
 2385SOL    HW118879   4.141   8.694   3.132  1.1000 -0.9389 -2.3170
 2385SOL    HW218880   4.115   8.574   3.043 -3.5520 -1.5909 -0.3780
 2386SOL     OW18881   3.414   4.213   3.039 -0.1060  0.0712  0.1882
 2386SOL    HW118882   3.500   4.174   3.050 -0.5263 -0.5511  1.4200
 2386SOL    HW218883   3.387   4.188   2.950  0.9384  0.2370 -0.1921
 2387SOL     OW18884   5.183   9.990   0.406 -0.0717  0.2027  0.0045
 2387SOL    HW118885   5.138  10.052   0.350  0.3446  1.1638  0.7085
 2387SOL    HW218886   5.175   9.906   0.360  0.4116  0.9861 -1.5784
 2388SOL     OW18887   5.006   5.411   6.679 -0.7511  0.4117  0.1449
 2388SOL    HW118888   4.961   5.481   6.633  0.8555  1.6171  0.3225
 2388SOL    HW218889   5.078   5.454   6.724 -0.4357 -1.1884  1.2708
 2389SOL     OW18890  11.901   3.581   7.322  0.6686  0.3824  0.3120
 2389SOL    HW118891  11.951   3.577   7.241  0.4660  1.4270  0.1155
 2389SOL    HW218892  11.960   3.546   7.389  0.5624 -1.2039 -0.3910
 2390SOL     OW18893   5.593   7.327   1.786  0.3305 -0.0961  0.2215
 2390SOL    HW118894   5.674   7.276   1.788  0.1200 -0.4657 -0.5314
 2390SOL    HW218895   5.530   7.274   1.834 -0.5308 -1.7085 -2.4709
 2391SOL     OW18896   2.301   3.012  10.853  0.0582 -0.2822 -0.2075
 2391SOL    HW118897   2.244   2.947  10.813  0.4624  0.6807 -2.5114
 2391SOL    HW218898   2.263   3.096  10.829  0.0422  0.3993  1.9714
 2392SOL     OW18899  10.890   3.733   8.767 -0.0124  0.3106  0.1871
 2392SOL    HW118900  10.858   3.824   8.769 -0.4954  0.1487 -0.1062
 2392SOL    HW218901  10.934   3.722   8.852  0.6701  1.0364 -0.0522
 2393SOL     OW18902   9.121   1.560   8.167  0.2034  0.3421  0.0071
 2393SOL    HW118903   9.161   1.529   8.086 -2.0794  0.7444 -1.3724
 2393SOL    HW218904   9.115   1.655   8.157  0.0931  0.4225  0.7532
 2394SOL     OW18905   8.733   8.325  10.107  0.8216 -0.3779  0.1162
 2394SOL    HW118906   8.767   8.415  10.106 -1.6170  0.6625 -2.3961
 2394SOL    HW218907   8.681   8.320  10.188  2.0234 -0.0184  0.9376
 2395SOL     OW18908   9.148   1.130   7.590  0.1941 -0.1229 -0.1558
 2395SOL    HW118909   9.216   1.178   7.637 -0.9421  0.1214  1.3094
 2395SOL    HW218910   9.092   1.198   7.553  0.4904 -0.3255 -1.0010
 2396SOL     OW18911   9.918   8.672   7.688 -0.2888  0.4842 -0.0190
 2396SOL    HW118912   9.939   8.584   7.718 -0.9498  0.4845  0.4622
 2396SOL    HW218913   9.875   8.660   7.603  1.1166  0.4555 -0.7750
 2397SOL     OW18914   5.386   2.191   3.338 -0.3817 -0.4822  0.2750
 2397SOL    HW118915   5.390   2.125   3.268 -2.9212 -0.3840 -0.0720
 2397SOL    HW218916   5.330   2.152   3.405 -1.3858  0.9963  0.3622
 2398SOL     OW18917   0.433   4.197   9.395 -0.1210 -0.1820 -0.1815
 2398SOL    HW118918   0.358   4.175   9.450  0.0031 -1.5135 -0.5140
 2398SOL    HW218919   0.422   4.290   9.375 -1.0936 -0.1023  0.6582
 2399SOL     OW18920   1.531   7.569  10.734 -0.7760 -0.6397 -0.4042
 2399SOL    HW118921   1.497   7.535  10.651 -2.0032 -0.2054 -0.0916
 2399SOL    HW218922   1.459   7.620  10.771  0.4954  0.9922 -0.0984
 2400SOL     OW18923  11.930   8.034  10.646 -0.1571 -0.6993  0.0893
 2400SOL    HW118924  11.955   8.100  10.711 -0.4364 -0.3742 -0.1298
 2400SOL    HW218925  11.850   7.995  10.682 -0.7926  0.0677 -0.4542
 2401SOL     OW18926   6.935   2.265   5.281  0.2322 -0.5813  0.2627
 2401SOL    HW118927   6.942   2.270   5.376  0.7332  0.8506  0.1692
 2401SOL    HW218928   7.015   2.306   5.248  0.1318 -1.1778 -0.7870
 2402SOL     OW18929  11.520   1.675   5.637 -0.1166 -0.2248  0.0396
 2402SOL    HW118930  11.610   1.670   5.669 -0.5673 -1.1745  1.2228
 2402SOL    HW218931  11.478   1.596   5.672 -1.5774  0.5322  0.0423
 2403SOL     OW18932  10.554   4.247   3.931  0.5934  0.2079 -0.1044
 2403SOL    HW118933  10.550   4.324   3.988 -0.3366  0.1916 -0.1167
 2403SOL    HW218934  10.462   4.222   3.919  0.9116 -1.8996  1.2715
 2404SOL     OW18935   7.210   5.549   4.683 -0.1539  0.6764 -0.3050
 2404SOL    HW118936   7.206   5.560   4.588  0.3208  1.3623 -0.2558
 2404SOL    HW218937   7.125   5.577   4.715 -0.4806 -0.0052 -0.5650
 2405SOL     OW18938   4.341   8.512   4.593  0.4519 -0.1849 -0.1520
 2405SOL    HW118939   4.247   8.496   4.602  0.7649 -1.0620  2.0588
 2405SOL    HW218940   4.381   8.425   4.601  1.5211  0.3060 -0.0029
 2406SOL     OW18941  10.534  10.037   8.407 -0.4721 -0.0518 -0.3934
 2406SOL    HW118942  10.606  10.077   8.359 -1.5617  1.6596 -0.6813
 2406SOL    HW218943  10.455  10.075   8.368 -1.5643 -1.9218 -0.1446
 2407SOL     OW18944   6.759   5.215   7.190 -0.3084  0.3143 -0.0309
 2407SOL    HW118945   6.667   5.214   7.165  0.0269 -1.9559 -1.4520
 2407SOL    HW218946   6.758   5.242   7.282 -2.2416  1.6816 -0.3879
 2408SOL     OW18947   6.769   9.666   1.708 -0.2766  0.1508 -0.6406
 2408SOL    HW118948   6.711   9.593   1.685 -0.9920  0.6021 -0.3111
 2408SOL    HW218949   6.806   9.695   1.625  1.5696 -1.8387 -0.5916
 2409SOL     OW18950   0.916   4.614   0.594  0.0347  0.0535 -0.0673
 2409SOL    HW118951   0.978   4.555   0.638  0.6186  0.0974 -0.8072
 2409SOL    HW218952   0.832   4.567   0.598  0.7687 -1.5544 -1.9493
 2410SOL     OW18953   6.124   6.204   9.779 -0.0914 -0.3215  0.4264
 2410SOL    HW118954   6.068   6.229   9.852  2.4078 -0.0347  2.3651
 2410SOL    HW218955   6.186   6.276   9.770 -0.0915 -0.5325 -1.7680
 2411SOL     OW18956   7.328  11.807   2.188 -0.7781 -0.1869 -0.1024
 2411SOL    HW118957   7.417  11.773   2.184 -1.9197 -3.5253 -0.7129
 2411SOL    HW218958   7.324  11.874   2.121  1.1354 -0.3051 -0.3814
 2412SOL     OW18959   7.596  10.887   4.748 -0.3167 -0.3044 -0.1513
 2412SOL    HW118960   7.675  10.931   4.780 -0.8066 -0.1523  0.8795
 2412SOL    HW218961   7.532  10.957   4.738 -0.6787 -0.5874  0.1571
 2413SOL     OW18962   2.742   0.735  10.111  0.2685 -0.2574 -0.7138
 2413SOL    HW118963   2.648   0.722  10.096  0.6436 -1.6293 -2.1714
 2413SOL    HW218964   2.748   0.761  10.203 -1.6025  0.8450 -0.8376
 2414SOL     OW18965   6.225   5.153  10.211  0.0639  0.2148 -0.1149
 2414SOL    HW118966   6.319   5.168  10.225  0.8305 -2.8097 -1.2400
 2414SOL    HW218967   6.220   5.107  10.127 -2.3511 -0.3142  0.2454
 2415SOL     OW18968   4.916   9.966   0.658 -0.1017 -0.0030 -0.5743
 2415SOL    HW118969   4.975   9.982   0.731  0.6446 -1.0459 -0.9277
 2415SOL    HW218970   4.909  10.050   0.613 -2.5001  1.3409  2.0264
 2416SOL     OW18971   0.958   5.854   3.640 -0.2573  0.1713  0.0842
 2416SOL    HW118972   0.937   5.766   3.669 -2.6804  0.9659  0.9831
 2416SOL    HW218973   1.033   5.843   3.581 -0.0006 -2.3520  0.7736
 2417SOL     OW18974   9.284   1.017   5.384  0.6591  0.8717 -0.0947
 2417SOL    HW118975   9.238   1.018   5.468  1.6850  0.3054  0.4853
 2417SOL    HW218976   9.214   1.012   5.318 -0.1005 -0.1088  0.7660
 2418SOL     OW18977  10.057   2.113   3.080  0.3727 -0.0488  0.7058
 2418SOL    HW118978  10.141   2.159   3.074  1.4723 -1.9315  0.9807
 2418SOL    HW218979  10.080   2.020   3.083 -1.5729 -0.5659  3.1487
 2419SOL     OW18980   5.972   9.100   0.712  0.4095 -0.5282  0.4003
 2419SOL    HW118981   5.930   9.185   0.727 -1.2123 -0.7568 -2.1669
 2419SOL    HW218982   5.899   9.037   0.710  1.3803 -1.6959  0.3798
 2420SOL     OW18983   3.043   2.049   3.422  0.7126 -0.3525  0.5141
 2420SOL    HW118984   3.023   2.134   3.461 -0.0894 -0.3384  0.0834
 2420SOL    HW218985   3.039   1.987   3.496 -2.0655 -0.5256  0.2923
 2421SOL     OW18986   7.347   6.540   2.401 -0.4857  0.1083 -0.2478
 2421SOL    HW118987   7.359   6.470   2.337 -2.1853 -1.0511  0.6059
 2421SOL    HW218988   7.355   6.495   2.486  0.1887  1.3078  0.3414
 2422SOL     OW18989   1.389   6.419   9.631 -0.4997  0.1913  0.2501
 2422SOL    HW118990   1.407   6.353   9.698 -1.5195 -0.7398 -0.3578
 2422SOL    HW218991   1.304   6.394   9.595  0.0800  0.5872 -1.4951
 2423SOL     OW18992   8.315   9.721   9.158  0.5141 -0.5300 -0.2082
 2423SOL    HW118993   8.403   9.736   9.124 -0.0067  1.8072 -0.7316
 2423SOL    HW218994   8.263   9.698   9.081  0.1098  1.0468 -0.4515
 2424SOL     OW18995   2.893   0.420   7.313  0.1857  0.2174  0.0079
 2424SOL    HW118996   2.832   0.354   7.346  0.7642 -0.7289 -0.7694
 2424SOL    HW218997   2.884   0.494   7.374 -1.2085 -0.1771  0.3087
 2425SOL     OW18998   4.391   1.754   1.228  0.1493  0.1952 -0.0015
 2425SOL    HW118999   4.407   1.720   1.139 -0.2675  1.5867 -0.6264
 2425SOL    HW219000   4.307   1.798   1.222  0.1614  0.3767  1.0785
 2426SOL     OW19001   7.503   7.481   3.175  0.1090  0.0612  0.2389
 2426SOL    HW119002   7.527   7.570   3.149 -0.7563  0.2404  0.0208
 2426SOL    HW219003   7.410   7.474   3.154  0.7038 -1.7626 -2.2569
 2427SOL     OW19004   8.493   8.026   9.881 -0.2865 -0.6149 -0.1940
 2427SOL    HW119005   8.448   8.016   9.797 -0.0553 -0.0821 -0.3863
 2427SOL    HW219006   8.574   7.976   9.871 -0.5958 -1.1650 -0.0216
 2428SOL     OW19007  10.194   7.784  11.692  0.8181 -0.1166 -0.4607
 2428SOL    HW119008  10.232   7.790  11.604  2.6899 -0.8042  0.2690
 2428SOL    HW219009  10.116   7.730  11.679  0.3959  0.7643 -1.8792
 2429SOL     OW19010  11.577   7.927   6.466  0.1123 -0.1541 -0.1617
 2429SOL    HW119011  11.647   7.893   6.410  0.6518  0.1983  0.2951
 2429SOL    HW219012  11.548   8.007   6.422 -0.4488 -0.6285 -0.6844
 2430SOL     OW19013  11.470   8.649   7.331  0.1500 -0.0807  0.0469
 2430SOL    HW119014  11.540   8.657   7.265  0.5643  1.4291  0.6431
 2430SOL    HW219015  11.505   8.587   7.395  2.5542  3.1672  2.1993
 2431SOL     OW19016   1.827   2.195   0.318 -0.0367  0.4148 -0.4140
 2431SOL    HW119017   1.887   2.141   0.266  1.4599  1.2024  0.4199
 2431SOL    HW219018   1.760   2.224   0.256  0.6549 -0.1786 -1.4679
 2432SOL     OW19019  11.358   5.172   2.020 -0.3318  0.1237 -0.1165
 2432SOL    HW119020  11.358   5.204   1.930 -1.1776 -1.9923 -0.9334
 2432SOL    HW219021  11.265   5.163   2.042 -0.1380 -1.2687  0.2291
 2433SOL     OW19022   7.111   5.012   1.204 -0.1508  0.1702 -0.0752
 2433SOL    HW119023   7.144   5.074   1.270  0.5977 -1.7243  1.4245
 2433SOL    HW219024   7.029   4.979   1.242 -0.4641  0.1173 -0.7868
 2434SOL     OW19025   6.624   8.686   5.460 -0.3268  0.1168  0.5150
 2434SOL    HW119026   6.607   8.732   5.542 -0.1399 -0.8565  1.1104
 2434SOL    HW219027   6.537   8.667   5.425 -0.4840  2.8272 -0.8902
 2435SOL     OW19028   6.316   3.931   3.336 -0.1688 -0.5013  0.0213
 2435SOL    HW119029   6.298   3.848   3.291 -0.4018 -0.1696 -0.4998
 2435SOL    HW219030   6.331   3.994   3.266  1.9883 -0.5176  0.4177
 2436SOL     OW19031   5.763   1.168  10.731 -0.1426  0.5600  0.2146
 2436SOL    HW119032   5.762   1.240  10.668  0.0554  0.1258 -0.2955
 2436SOL    HW219033   5.849   1.126  10.719 -0.7346 -0.5321 -0.3981
 2437SOL     OW19034   1.686   3.176   6.604  0.1191  0.1122 -0.0345
 2437SOL    HW119035   1.627   3.177   6.680 -0.2955 -0.6957 -0.3355
 2437SOL    HW219036   1.636   3.218   6.534 -0.2129 -0.7926 -0.3585
 2438SOL     OW19037   6.444  10.455   6.545 -0.2030 -0.0318  0.0143
 2438SOL    HW119038   6.388  10.452   6.468 -0.0157  1.0391 -0.1708
 2438SOL    HW219039   6.456  10.363   6.568 -1.0615 -0.3287 -0.6417
 2439SOL     OW19040   2.102   3.622   2.655 -0.0065 -0.2093 -0.2607
 2439SOL    HW119041   2.150   3.626   2.737 -1.3815 -0.0141  0.5658
 2439SOL    HW219042   2.036   3.555   2.668 -1.3936  1.0410 -0.5286
 2440SOL     OW19043   3.106   2.700   8.768 -0.1660 -0.1447 -0.6782
 2440SOL    HW119044   3.042   2.640   8.807  0.0262  2.5610  4.8699
 2440SOL    HW219045   3.183   2.647   8.753 -0.9549 -1.9314  1.0955
 2441SOL     OW19046   6.972   3.784   1.520 -0.2958 -0.1477 -0.3080
 2441SOL    HW119047   7.046   3.739   1.560 -0.4874 -0.5591 -0.4103
 2441SOL    HW219048   7.012   3.857   1.472  0.0390 -0.3344 -0.3177
 2442SOL     OW19049   4.680   7.199  11.174  0.5951 -0.2330 -0.8004
 2442SOL    HW119050   4.636   7.128  11.220 -0.9479  1.4275  0.4013
 2442SOL    HW219051   4.700   7.162  11.087 -0.2063 -2.0787 -0.2524
 2443SOL     OW19052  10.221   6.468   5.325  0.0696 -0.3648 -0.2145
 2443SOL    HW119053  10.275   6.389   5.321 -0.4032 -0.7302  0.5290
 2443SOL    HW219054  10.274   6.535   5.282  1.2929 -0.6319  0.8115
 2444SOL     OW19055   5.308   8.022   3.697 -0.5337  0.0864 -1.0073
 2444SOL    HW119056   5.231   8.060   3.741 -1.1329  0.1781 -2.1021
 2444SOL    HW219057   5.378   8.030   3.761 -1.1029  1.2996 -0.5033
 2445SOL     OW19058   1.597  11.340   0.526  0.3874  0.3152 -0.4889
 2445SOL    HW119059   1.570  11.408   0.588  1.4022  0.2691  0.0432
 2445SOL    HW219060   1.649  11.279   0.580 -0.2305 -0.7027 -1.0214
 2446SOL     OW19061  10.260   2.927   8.913  0.1910  0.5856 -0.0773
 2446SOL    HW119062  10.181   2.937   8.966 -0.0513  0.6772 -0.4488
 2446SOL    HW219063  10.310   3.007   8.929  0.2653  0.4742  0.2515
 2447SOL     OW19064   1.424   5.907   8.219  0.1291  0.5142 -0.3915
 2447SOL    HW119065   1.474   5.951   8.288  1.9869  0.8277 -1.8597
 2447SOL    HW219066   1.389   5.829   8.262 -1.0757  2.0324  1.5781
 2448SOL     OW19067   9.133   1.480   3.450  0.4484 -0.9899 -1.0426
 2448SOL    HW119068   9.108   1.483   3.543 -0.9907 -1.0828 -1.4081
 2448SOL    HW219069   9.225   1.507   3.450  0.5668 -1.2680  0.4375
 2449SOL     OW19070   5.720   0.309   5.613 -0.2754  0.3408 -0.0164
 2449SOL    HW119071   5.705   0.260   5.694  2.3089  2.0071  1.6115
 2449SOL    HW219072   5.681   0.395   5.630  0.6993  0.8571 -0.3312
 2450SOL     OW19073   3.573   7.270   0.057  0.2230 -0.6302 -0.2254
 2450SOL    HW119074   3.547   7.333   0.125  1.6281 -0.2165 -0.0379
 2450SOL    HW219075   3.548   7.185   0.093 -0.9557 -0.2685 -0.1235
 2451SOL     OW19076   0.609   1.339   0.020 -0.1467 -0.3840  0.0180
 2451SOL    HW119077   0.522   1.376   0.034 -0.1926 -0.4800 -0.0134
 2451SOL    HW219078   0.612   1.264   0.079  0.2036  0.0774  0.6065
 2452SOL     OW19079   6.036  11.464   7.380  0.0391 -0.0128  0.1708
 2452SOL    HW119080   5.977  11.501   7.445 -0.1815 -0.2807  0.1242
 2452SOL    HW219081   6.104  11.531   7.369  0.6776 -0.4096  1.4671
 2453SOL     OW19082   7.208   8.775   0.305 -0.5201 -0.3798  0.1332
 2453SOL    HW119083   7.228   8.762   0.398  0.1344  1.0114  0.2111
 2453SOL    HW219084   7.294   8.777   0.262 -0.7375  0.4349 -0.2866
 2454SOL     OW19085  11.885   4.396   0.604 -0.1356  0.6667 -0.6016
 2454SOL    HW119086  11.815   4.377   0.541 -0.5625  0.5402 -0.0991
 2454SOL    HW219087  11.863   4.482   0.639 -0.1896  0.5101 -0.2461
 2455SOL     OW19088   9.665   7.225   9.601  0.1046 -0.6261  0.3376
 2455SOL    HW119089   9.666   7.169   9.679 -0.8718  0.2238  0.9927
 2455SOL    HW219090   9.587   7.198   9.553  0.4735 -0.8623 -0.1283
 2456SOL     OW19091   3.889   5.440   3.497 -0.0648  0.2347  0.7038
 2456SOL    HW119092   3.814   5.485   3.460 -1.9602 -1.7957  1.8672
 2456SOL    HW219093   3.935   5.403   3.421 -0.8525  0.5898  0.0456
 2457SOL     OW19094  10.404   0.874   6.416 -0.7098  0.0998 -0.4948
 2457SOL    HW119095  10.467   0.803   6.404  0.0649  0.8231 -0.7796
 2457SOL    HW219096  10.329   0.848   6.362 -1.5305 -1.7348  1.3479
 2458SOL     OW19097   5.941   1.088   1.075  0.0258  0.5447  0.0242
 2458SOL    HW119098   5.919   1.013   1.020  2.0089 -2.5035  2.9684
 2458SOL    HW219099   6.001   1.139   1.022 -2.5014  0.9946 -2.6231
 2459SOL     OW19100   3.595   2.983   4.845  0.3880  0.6739  0.3083
 2459SOL    HW119101   3.665   3.013   4.903  1.3094  0.3824 -0.6221
 2459SOL    HW219102   3.514   3.015   4.886  0.9677  0.1367  1.9495
 2460SOL     OW19103   4.013   5.138  11.766 -0.7132 -0.2787 -0.0061
 2460SOL    HW119104   3.999   5.045  11.785 -0.9085 -0.0870  0.8093
 2460SOL    HW219105   4.088   5.163  11.820 -0.7377  0.0721 -0.1322
 2461SOL     OW19106   8.242   5.813   1.876  0.5158  0.7971 -0.6017
 2461SOL    HW119107   8.315   5.767   1.916  1.3648  1.1884 -1.6689
 2461SOL    HW219108   8.280   5.892   1.839 -0.4866  1.1261 -0.9711
 2462SOL     OW19109   4.239   3.415   7.106 -0.1344  0.5401 -0.4172
 2462SOL    HW119110   4.254   3.473   7.032  0.5887 -0.4884 -1.1152
 2462SOL    HW219111   4.301   3.445   7.173  0.6583  0.2244 -0.9932
 2463SOL     OW19112   6.868   2.670   0.246 -0.5935 -0.7735 -0.4078
 2463SOL    HW119113   6.807   2.597   0.253  0.8114 -1.7981  2.8977
 2463SOL    HW219114   6.948   2.632   0.209 -1.2438  0.2250 -3.1533
 2464SOL     OW19115   7.507   3.683   9.355  0.3621  0.6214 -0.1331
 2464SOL    HW119116   7.448   3.723   9.419 -0.2894 -0.3654 -0.0946
 2464SOL    HW219117   7.595   3.695   9.392  0.0636  0.8497  0.5135
 2465SOL     OW19118   4.981   5.264   3.770 -0.0547 -0.7348 -0.2356
 2465SOL    HW119119   5.017   5.258   3.682 -1.7667  0.6723 -1.1044
 2465SOL    HW219120   4.893   5.225   3.762 -0.5151  0.0878  0.6530
 2466SOL     OW19121   5.969   8.401  11.551 -0.2165  0.0206  0.4772
 2466SOL    HW119122   6.054   8.442  11.534 -1.7248  2.2301 -2.7547
 2466SOL    HW219123   5.979   8.311  11.519  0.8318  0.3376 -0.1557
 2467SOL     OW19124  10.054   5.651   4.486 -0.2959  0.6237 -0.0379
 2467SOL    HW119125   9.985   5.637   4.551  0.8175 -0.7407  0.9263
 2467SOL    HW219126  10.105   5.724   4.520 -1.3842  1.8399 -0.9079
 2468SOL     OW19127   7.861   8.778   5.660 -0.2632  0.2478  0.3658
 2468SOL    HW119128   7.942   8.785   5.609 -0.1301  0.0495  0.5496
 2468SOL    HW219129   7.889   8.746   5.746 -0.4869  0.6082  0.5739
 2469SOL     OW19130   3.376   1.212   3.521  0.7114 -0.5159 -0.0729
 2469SOL    HW119131   3.442   1.142   3.523  1.6107  0.2831  2.2927
 2469SOL    HW219132   3.406   1.274   3.588 -1.8992  0.3949  0.3511
 2470SOL     OW19133   9.975   3.239   3.763  0.1786 -0.2127 -0.6060
 2470SOL    HW119134   9.993   3.145   3.756 -2.6945 -0.8315 -0.9094
 2470SOL    HW219135  10.011   3.276   3.682 -0.9457 -1.5203 -1.7662
 2471SOL     OW19136   6.401   5.387   1.565 -0.9117  0.0635 -0.0002
 2471SOL    HW119137   6.330   5.351   1.513 -1.0576  0.5274 -0.1214
 2471SOL    HW219138   6.391   5.345   1.651 -2.1912  1.1755  0.4268
 2472SOL     OW19139   9.782   2.951   4.182  0.4970  0.0801 -0.0391
 2472SOL    HW119140   9.851   3.013   4.205  0.7977 -0.8118  1.6345
 2472SOL    HW219141   9.714   3.004   4.142  1.7248  1.1238 -0.8017
 2473SOL     OW19142   4.406   7.383   3.066 -0.4550  0.4133  0.6268
 2473SOL    HW119143   4.417   7.301   3.017  3.2766  1.0272  0.1047
 2473SOL    HW219144   4.443   7.364   3.153  0.8407  1.5533  0.3697
 2474SOL     OW19145  11.500   1.978  10.901 -0.3790 -0.2615  0.1803
 2474SOL    HW119146  11.499   1.891  10.860 -0.1338  0.3744 -1.2013
 2474SOL    HW219147  11.556   2.031  10.844  1.5373  0.1862  2.3323
 2475SOL     OW19148   3.055  10.572   7.254 -0.1438  0.3933 -0.3807
 2475SOL    HW119149   2.971  10.569   7.210 -0.4739  0.4935  0.2224
 2475SOL    HW219150   3.060  10.490   7.304  0.3442  0.1535 -0.8168
 2476SOL     OW19151  11.585   3.763   2.777 -0.0601 -0.3253  0.3547
 2476SOL    HW119152  11.579   3.668   2.766  1.0932 -0.3927  0.0946
 2476SOL    HW219153  11.680   3.780   2.780 -0.2245  0.5502  2.8680
 2477SOL     OW19154   5.456  11.093   2.423  0.2405 -0.3679 -0.5708
 2477SOL    HW119155   5.408  11.060   2.499 -0.6060  1.4015 -0.2781
 2477SOL    HW219156   5.401  11.070   2.348  1.2457 -2.4281 -0.7481
 2478SOL     OW19157   5.747  10.402   6.771  0.4249 -0.4541 -0.1569
 2478SOL    HW119158   5.739  10.357   6.855  0.1617 -1.7261 -0.8462
 2478SOL    HW219159   5.732  10.334   6.705  0.7511  0.4925 -1.2433
 2479SOL     OW19160   6.224   3.163   3.612  0.0933  0.1209  0.1206
 2479SOL    HW119161   6.231   3.100   3.684  0.8616 -0.6278 -0.5832
 2479SOL    HW219162   6.304   3.150   3.561 -0.8358 -0.0046 -1.3726
 2480SOL     OW19163   4.528   3.746  10.353 -0.0628 -0.1017  0.1331
 2480SOL    HW119164   4.587   3.725  10.280  0.5125  1.5375  0.0827
 2480SOL    HW219165   4.461   3.678  10.351 -0.0282 -0.1159 -1.8996
 2481SOL     OW19166   4.897   9.430   9.497  0.9012 -0.3840  0.5698
 2481SOL    HW119167   4.854   9.345   9.498  1.7512 -0.8414  2.3052
 2481SOL    HW219168   4.906   9.453   9.589  1.1092  1.3816  0.1418
 2482SOL     OW19169  11.048   7.566   9.663 -0.7915  0.2269  0.6096
 2482SOL    HW119170  10.989   7.610   9.602 -1.1411  1.6797  1.9418
 2482SOL    HW219171  11.001   7.486   9.688 -1.2432  0.3120  0.0490
 2483SOL     OW19172   4.361   7.877  11.429  0.4077  0.6178 -0.0505
 2483SOL    HW119173   4.296   7.818  11.466  0.8568  0.1878  0.0581
 2483SOL    HW219174   4.352   7.866  11.334  0.4251  0.4496 -0.0326
 2484SOL     OW19175   6.173   9.877   8.630 -0.4250 -0.1748 -0.1409
 2484SOL    HW119176   6.184   9.801   8.687 -0.1208 -1.4617 -1.8245
 2484SOL    HW219177   6.127   9.941   8.684 -1.5004 -1.8823  1.0787
 2485SOL     OW19178   7.639   7.023   2.528  0.0283  0.0903 -0.0847
 2485SOL    HW119179   7.615   6.949   2.584 -0.4770  1.7115  1.9738
 2485SOL    HW219180   7.735   7.020   2.526  0.1466  0.6623  1.9490
 2486SOL     OW19181   7.435   2.127   4.903 -0.0077 -0.0632 -0.1255
 2486SOL    HW119182   7.440   2.045   4.952  1.3470 -0.6047 -1.0885
 2486SOL    HW219183   7.404   2.191   4.967  0.4843 -0.9936  1.1029
 2487SOL     OW19184   5.799   0.190  11.575  0.5163  0.5303 -0.1563
 2487SOL    HW119185   5.765   0.166  11.661  1.4539 -1.8233 -0.3618
 2487SOL    HW219186   5.893   0.200  11.588  0.7322 -0.2933 -0.9622
 2488SOL     OW19187   6.707  10.289   0.826 -0.5997 -0.4683  0.0394
 2488SOL    HW119188   6.786  10.296   0.880  0.1988 -2.1063 -0.8499
 2488SOL    HW219189   6.737  10.307   0.737 -1.7032  1.1406 -0.0632
 2489SOL     OW19190  11.770   2.672   7.460 -0.2020  0.5795  1.4544
 2489SOL    HW119191  11.794   2.581   7.441 -2.6075  0.2283 -0.3544
 2489SOL    HW219192  11.838   2.724   7.417 -1.2869 -0.3837 -1.7457
 2490SOL     OW19193   3.516   5.569   7.663 -0.2877 -0.2848  0.3644
 2490SOL    HW119194   3.609   5.594   7.671 -0.0848 -1.3574  1.9998
 2490SOL    HW219195   3.479   5.592   7.748 -1.2271 -1.0251  0.1621
 2491SOL     OW19196   0.758   9.927   6.712  0.2566 -0.0327  0.0468
 2491SOL    HW119197   0.711   9.970   6.641  1.3882 -0.2768 -0.8803
 2491SOL    HW219198   0.701   9.936   6.788  0.9253  4.2443  0.2811
 2492SOL     OW19199   3.932   6.151   3.408 -0.0124 -0.7662  0.2077
 2492SOL    HW119200   3.860   6.135   3.347  0.1253 -1.1946  0.1532
 2492SOL    HW219201   3.892   6.194   3.483  0.0624  1.2963 -0.8621
 2493SOL     OW19202   2.664   8.341   2.754 -0.5425  0.4638  0.1827
 2493SOL    HW119203   2.631   8.402   2.820 -1.6786 -0.9871  1.0321
 2493SOL    HW219204   2.626   8.370   2.672 -0.8006  1.0921  0.5192
 2494SOL     OW19205   3.707   5.423  11.783 -0.0124  0.0896  0.3426
 2494SOL    HW119206   3.716   5.332  11.757  0.1305  0.1722  0.1038
 2494SOL    HW219207   3.624   5.452  11.745 -0.0939  0.0385  0.4809
 2495SOL     OW19208   1.913   7.674   4.882  0.0687  0.0823 -0.4183
 2495SOL    HW119209   1.963   7.744   4.922 -2.7660  1.5555  0.8038
 2495SOL    HW219210   1.948   7.667   4.793  0.5732  2.9429 -0.5126
 2496SOL     OW19211  10.921   4.397   2.497 -0.5615  0.2443 -0.0122
 2496SOL    HW119212  10.864   4.420   2.423 -0.0988 -2.3131 -1.2924
 2496SOL    HW219213  10.975   4.325   2.463  1.0892  0.3398  2.2208
 2497SOL     OW19214   4.280   0.350   3.984  0.5279  0.3523  0.0339
 2497SOL    HW119215   4.360   0.300   4.001 -1.4708 -1.9135  4.2364
 2497SOL    HW219216   4.227   0.292   3.928  0.5099  0.3629  0.0400
 2498SOL     OW19217  11.011   0.445   9.474 -0.2813 -0.1640 -0.3250
 2498SOL    HW119218  11.032   0.351   9.468 -0.7026 -0.2401 -0.6806
 2498SOL    HW219219  11.083   0.488   9.428  0.1782 -0.2781  0.2869
 2499SOL     OW19220   8.141   7.372   6.527 -0.2431  0.5676  0.4105
 2499SOL    HW119221   8.170   7.283   6.510 -0.5300  0.4569  0.4881
 2499SOL    HW219222   8.045   7.367   6.524 -0.3542  0.4481  2.3788
 2500SOL     OW19223   9.751   2.337   5.467  0.0010  0.4478  0.0531
 2500SOL    HW119224   9.683   2.374   5.411  1.2582  0.4917 -1.5289
 2500SOL    HW219225   9.761   2.247   5.436  0.0712  0.1608  0.8741
 2501SOL     OW19226   6.025   7.958   7.935 -0.3039  0.1520  0.0077
 2501SOL    HW119227   6.008   7.974   7.842 -0.6216 -0.5940 -0.0688
 2501SOL    HW219228   6.067   7.872   7.938  2.0067  1.2117  0.3441
 2502SOL     OW19229   4.921   8.120  10.062  0.1241 -0.2520  0.0401
 2502SOL    HW119230   4.852   8.137   9.997 -0.4867 -1.9866  0.1774
 2502SOL    HW219231   4.891   8.042  10.108  1.6332 -0.3428  0.9219
 2503SOL     OW19232  11.320   9.623  10.373 -0.4869 -1.1218 -0.2348
 2503SOL    HW119233  11.364   9.691  10.322 -1.8812  1.0402  1.3103
 2503SOL    HW219234  11.250   9.592  10.315  0.6766 -1.9138 -1.2693
 2504SOL     OW19235   8.543   0.016   3.702 -0.2021  0.5778 -0.2598
 2504SOL    HW119236   8.581  -0.009   3.618 -0.7633  0.5735 -0.5216
 2504SOL    HW219237   8.570   0.107   3.715  0.9456  0.1876  0.1776
 2505SOL     OW19238   4.079   1.860   3.053 -0.4846  0.0135  0.0890
 2505SOL    HW119239   4.004   1.915   3.032 -0.5136 -0.0634 -0.0127
 2505SOL    HW219240   4.041   1.787   3.103 -0.6687 -0.6717 -1.0074
 2506SOL     OW19241   8.307   2.004   5.783  0.0060 -0.3043  0.6060
 2506SOL    HW119242   8.290   2.019   5.690  1.5579 -1.6314  0.0782
 2506SOL    HW219243   8.238   2.054   5.828 -0.6237  0.5592 -1.2262
 2507SOL     OW19244   4.592   8.302   9.068 -0.1354  0.3930  0.0221
 2507SOL    HW119245   4.623   8.345   8.988  0.5657  1.3165  0.7710
 2507SOL    HW219246   4.553   8.372   9.119 -0.1177 -0.0968  0.7198
 2508SOL     OW19247   5.176  11.943  11.751 -0.1993  0.1693 -0.2161
 2508SOL    HW119248   5.092  11.948  11.797  0.3675 -0.2899  0.9138
 2508SOL    HW219249   5.190  11.850  11.736 -0.0032  0.2616 -0.6023
 2509SOL     OW19250  10.458  10.313   8.591  0.6953 -0.3109  0.0755
 2509SOL    HW119251  10.410  10.396   8.594  2.6504  0.8584  0.6310
 2509SOL    HW219252  10.397  10.249   8.629 -0.4717  1.0616  0.6052
 2510SOL     OW19253   0.687  10.340   5.311 -0.0560  0.4213  0.5008
 2510SOL    HW119254   0.730  10.352   5.396  0.5327  0.5238  0.1968
 2510SOL    HW219255   0.737  10.270   5.269  0.4094  1.1652 -0.2315
 2511SOL     OW19256   1.380   4.178   3.521 -0.5503  0.2371 -0.3277
 2511SOL    HW119257   1.304   4.131   3.555 -0.0787 -1.7221 -1.8062
 2511SOL    HW219258   1.344   4.241   3.459 -0.9827 -2.3393 -2.9151
 2512SOL     OW19259   1.821   1.876  10.479 -0.3286 -0.0677 -0.3248
 2512SOL    HW119260   1.861   1.958  10.506 -0.4988 -0.5372  1.4793
 2512SOL    HW219261   1.893   1.827  10.439 -0.1750  0.8396 -1.2062
 2513SOL     OW19262   8.999   0.490   2.704  0.3680  0.7330  0.3822
 2513SOL    HW119263   8.978   0.436   2.780 -1.4928  0.8661  0.0134
 2513SOL    HW219264   8.919   0.539   2.687  0.5638  0.3606 -1.9305
 2514SOL     OW19265   5.064   8.362   7.810 -0.2427 -0.3588 -0.0311
 2514SOL    HW119266   5.002   8.396   7.746 -1.7783 -2.1365  0.4223
 2514SOL    HW219267   5.023   8.378   7.895  1.1704  0.8007  0.4689
 2515SOL     OW19268   7.802   1.359   2.216 -0.3272  0.9716  0.2804
 2515SOL    HW119269   7.734   1.410   2.259 -0.4403  1.4300 -0.4135
 2515SOL    HW219270   7.834   1.417   2.146  1.4579  1.1620  1.1932
 2516SOL     OW19271   0.170   7.701   5.698  0.4020 -0.4289 -0.3077
 2516SOL    HW119272   0.159   7.607   5.709  0.5654 -0.5596 -1.2326
 2516SOL    HW219273   0.248   7.710   5.644 -1.2712  0.1092 -2.7829
 2517SOL     OW19274   1.701   3.302   2.414  0.0546 -0.4828  0.0886
 2517SOL    HW119275   1.752   3.266   2.487  0.7667  0.7867  0.2314
 2517SOL    HW219276   1.643   3.367   2.455  1.5380  1.3614 -0.6213
 2518SOL     OW19277   0.440   1.142   2.100  0.2524  0.2183  0.1826
 2518SOL    HW119278   0.457   1.080   2.029 -0.0812 -0.3415  0.5854
 2518SOL    HW219279   0.474   1.098   2.179  0.8231  0.9255  0.3404
 2519SOL     OW19280   5.739   3.572   0.048  0.0630  0.5821  0.5840
 2519SOL    HW119281   5.663   3.557  -0.009 -0.1119 -0.4937  1.0723
 2519SOL    HW219282   5.801   3.504   0.023  0.5914  1.0252  0.6725
 2520SOL     OW19283   5.674   4.252   6.611  0.3770  0.7769 -0.1177
 2520SOL    HW119284   5.680   4.178   6.551  0.7415  0.2545  0.5466
 2520SOL    HW219285   5.707   4.218   6.694  0.1691  1.5741  0.3008
 2521SOL     OW19286   9.350   5.881   5.870  0.2028  0.6304 -0.3226
 2521SOL    HW119287   9.303   5.841   5.943 -0.7011  0.5975 -0.9074
 2521SOL    HW219288   9.317   5.835   5.793  0.7612  1.0222 -0.8001
 2522SOL     OW19289   5.722   6.224   4.337  0.3550 -0.1366  0.3496
 2522SOL    HW119290   5.732   6.304   4.389 -1.2450 -0.3645  1.0290
 2522SOL    HW219291   5.772   6.158   4.385  2.0464  0.5013 -0.4346
 2523SOL     OW19292   8.267   9.180   8.953 -0.6518 -0.1997  0.4582
 2523SOL    HW119293   8.358   9.151   8.960  0.1584  2.3553  2.3443
 2523SOL    HW219294   8.223   9.111   8.904  2.6570 -0.6898 -2.1805
 2524SOL     OW19295   9.090  11.593   6.110  0.2350 -0.3417  0.4029
 2524SOL    HW119296   9.021  11.532   6.083 -3.2622  2.3947  2.3603
 2524SOL    HW219297   9.120  11.633   6.028  1.6061 -3.4147 -0.7665
 2525SOL     OW19298   1.482   4.992   8.696 -0.5055  0.3846 -0.3176
 2525SOL    HW119299   1.518   5.051   8.761  0.1806  1.0151 -1.2368
 2525SOL    HW219300   1.532   5.011   8.616 -0.6344 -1.0558 -0.7799
 2526SOL     OW19301   3.569   1.982   4.279  0.1723 -0.4237  0.5471
 2526SOL    HW119302   3.646   1.926   4.265  1.2355  0.9857  0.4941
 2526SOL    HW219303   3.494   1.923   4.269  1.0941 -1.2409 -2.9042
 2527SOL     OW19304   6.486   0.267   6.291 -1.0030  0.0936  0.1248
 2527SOL    HW119305   6.476   0.337   6.226  1.0703  0.8487  0.5306
 2527SOL    HW219306   6.512   0.191   6.240  0.7085  0.7075  0.0212
 2528SOL     OW19307   8.548   7.109   1.104  0.4763 -0.5022 -0.3879
 2528SOL    HW119308   8.613   7.162   1.151 -0.0463 -0.4080  0.2290
 2528SOL    HW219309   8.590   7.090   1.020  1.3213 -0.4675  0.0152
 2529SOL     OW19310   8.000  10.749  10.075 -0.8226 -0.1427 -0.3876
 2529SOL    HW119311   7.981  10.767   9.983 -2.5671 -0.1338 -0.0590
 2529SOL    HW219312   7.968  10.826  10.122 -1.4703 -0.8460  0.3604
 2530SOL     OW19313   0.122   2.989   1.556  0.2723  0.3243  0.2549
 2530SOL    HW119314   0.090   2.904   1.585  1.9973 -0.7412 -0.7631
 2530SOL    HW219315   0.166   3.026   1.633  3.1641 -1.6375 -0.2679
 2531SOL     OW19316   3.988   3.215  11.932 -0.0148 -0.1049 -0.5974
 2531SOL    HW119317   4.010   3.127  11.962  0.0229  0.9635  2.8569
 2531SOL    HW219318   3.893   3.221  11.942  0.1599  0.7320  0.8114
 2532SOL     OW19319   9.898   0.865   8.072  0.2447 -0.4757 -0.3838
 2532SOL    HW119320   9.841   0.865   8.149 -0.4123  0.4333 -0.8411
 2532SOL    HW219321   9.870   0.943   8.022  0.6589 -1.0329 -1.5217
 2533SOL     OW19322   0.143  11.255   8.596 -0.0231 -0.1649 -0.1186
 2533SOL    HW119323   0.132  11.323   8.530 -0.3121  0.9057  0.9847
 2533SOL    HW219324   0.057  11.214   8.603  0.0362 -0.3543 -0.4727
 2534SOL     OW19325   2.146   8.763   8.242  0.0844  0.1146  0.3941
 2534SOL    HW119326   2.151   8.859   8.240 -2.1256  0.2692 -0.5187
 2534SOL    HW219327   2.124   8.739   8.152 -0.8670 -1.1271  0.9373
 2535SOL     OW19328   7.537   7.075   9.927 -0.5440  0.2140  0.1102
 2535SOL    HW119329   7.516   7.168   9.912  0.5054  0.4789  0.1847
 2535SOL    HW219330   7.628   7.076   9.957 -1.0691 -0.6959  1.8581
 2536SOL     OW19331   7.026   2.948   4.140  0.6422 -0.1656 -0.9566
 2536SOL    HW119332   6.998   2.860   4.164  2.4080 -0.8463 -1.2475
 2536SOL    HW219333   7.120   2.949   4.159  0.6510  1.6599 -0.9555
 2537SOL     OW19334  10.376   0.191   0.387 -0.6584  0.2008  0.5168
 2537SOL    HW119335  10.451   0.202   0.445 -1.0527 -0.8269  1.2392
 2537SOL    HW219336  10.378   0.098   0.362 -0.1041  0.7426 -1.6747
 2538SOL     OW19337   5.453   2.043  11.004 -0.4002 -0.3811  0.2219
 2538SOL    HW119338   5.546   2.065  11.015 -0.1833 -1.5562  0.8238
 2538SOL    HW219339   5.452   1.980  10.933 -1.0664  1.7118 -1.7665
 2539SOL     OW19340   1.105   4.322   1.963 -0.6851  0.5723 -0.2356
 2539SOL    HW119341   1.119   4.249   2.024  1.1663  0.7167 -0.4363
 2539SOL    HW219342   1.072   4.393   2.018  0.5740  0.5730  0.5620
 2540SOL     OW19343   7.910   8.661   6.683 -0.6188 -0.4370 -0.9321
 2540SOL    HW119344   7.817   8.685   6.679 -0.7961 -1.2641 -2.4563
 2540SOL    HW219345   7.914   8.573   6.646  0.6709 -0.7912 -0.0249
 2541SOL     OW19346   1.397   3.742   9.525 -0.1807 -0.0036  0.2985
 2541SOL    HW119347   1.460   3.730   9.597  1.5381  0.1757 -1.1118
 2541SOL    HW219348   1.359   3.828   9.540  0.2468  0.0820  0.9313
 2542SOL     OW19349  10.079  10.006  10.904  0.9121  0.4836  0.3412
 2542SOL    HW119350  10.101   9.972  10.991  1.7803 -2.8803 -1.0648
 2542SOL    HW219351   9.988   9.979  10.889  1.2751 -0.3844 -0.3835
 2543SOL     OW19352   9.521   3.298   0.209  0.7938  0.3416  0.4614
 2543SOL    HW119353   9.490   3.293   0.300  0.5215  0.7318  0.3929
 2543SOL    HW219354   9.608   3.337   0.216  1.6779 -1.5503  0.7334
 2544SOL     OW19355   4.902   7.171   7.104  0.1790 -0.2565 -0.3804
 2544SOL    HW119356   4.884   7.139   7.016 -1.3916 -2.4209  0.6361
 2544SOL    HW219357   4.826   7.145   7.156  1.3604  0.3020  1.7875
 2545SOL     OW19358   3.944  11.367   4.840  0.1909 -0.4976 -0.8597
 2545SOL    HW119359   3.887  11.430   4.884  1.0974 -0.6570  0.6095
 2545SOL    HW219360   3.997  11.421   4.781 -0.4034 -0.1565 -1.0977
 2546SOL     OW19361   4.163   3.029  10.811 -0.6989 -0.1513  0.1132
 2546SOL    HW119362   4.153   2.981  10.893 -1.9097 -2.1637 -1.1391
 2546SOL    HW219363   4.202   2.967  10.751 -3.4358 -0.0819 -1.9186
 2547SOL     OW19364   5.817   4.874   3.688  0.3545  0.3203  0.0128
 2547SOL    HW119365   5.781   4.786   3.671 -0.8752  0.9508 -0.7792
 2547SOL    HW219366   5.776   4.899   3.771  0.4449  0.2760  0.0705
 2548SOL     OW19367  11.022  11.224   6.103  0.0543  0.0946 -0.0140
 2548SOL    HW119368  10.979  11.144   6.073  0.3367 -0.1423  0.2116
 2548SOL    HW219369  10.968  11.295   6.068  1.1985 -0.1098 -2.4276
 2549SOL     OW19370   7.968   4.864   2.521  0.5006 -0.0431  0.0562
 2549SOL    HW119371   8.019   4.844   2.599  0.2604  1.1925  0.5471
 2549SOL    HW219372   7.890   4.908   2.553  0.7203  1.1166 -0.9152
 2550SOL     OW19373   3.911   4.578   9.812 -0.1774  0.0848 -0.2259
 2550SOL    HW119374   3.959   4.603   9.890  1.8297 -1.7579 -0.7598
 2550SOL    HW219375   3.975   4.587   9.741 -1.9045  1.5842 -1.6834
 2551SOL     OW19376   2.755   4.841   1.813  0.3289  0.1233  0.0273
 2551SOL    HW119377   2.832   4.787   1.800  1.5587  0.7883  3.5338
 2551SOL    HW219378   2.789   4.930   1.823 -0.8691  0.4627  1.4020
 2552SOL     OW19379   4.280   1.081   3.334 -0.1082  0.4551 -0.3007
 2552SOL    HW119380   4.238   1.003   3.371  1.7396 -0.1162  0.6914
 2552SOL    HW219381   4.288   1.062   3.241  0.6994 -0.7521 -0.0080
 2553SOL     OW19382   9.709   3.896   8.891  0.3982  0.9084  0.4136
 2553SOL    HW119383   9.803   3.891   8.910  0.5175 -0.8059 -0.4486
 2553SOL    HW219384   9.700   3.975   8.839  1.7568 -0.0022 -1.3306
 2554SOL     OW19385   4.448   0.579   8.225 -0.2220  0.2682 -0.5457
 2554SOL    HW119386   4.419   0.629   8.301 -0.2311  0.9968 -1.0174
 2554SOL    HW219387   4.532   0.543   8.252 -1.0435 -0.9833  0.4488
 2555SOL     OW19388   3.660   1.876   3.645  0.0554  0.3939  0.1765
 2555SOL    HW119389   3.661   1.971   3.658 -2.9885  0.6975 -1.0697
 2555SOL    HW219390   3.620   1.841   3.725 -0.9818  0.4180 -0.3195
 2556SOL     OW19391   4.480   6.897   4.257 -0.5763 -0.8072 -1.0609
 2556SOL    HW119392   4.551   6.928   4.315 -1.7334 -0.8011  0.4154
 2556SOL    HW219393   4.519   6.826   4.207  0.7177 -0.2319 -0.9184
 2557SOL     OW19394   9.002  10.434   5.038  0.0889  0.3232  0.1845
 2557SOL    HW119395   8.942  10.486   4.985 -1.4370 -1.5899 -0.1200
 2557SOL    HW219396   9.050  10.381   4.974  2.5114  2.1128  0.3924
 2558SOL     OW19397  11.836   3.646   2.791 -0.5279  0.0371  0.5584
 2558SOL    HW119398  11.815   3.559   2.757  2.0636 -0.9541  1.3139
 2558SOL    HW219399  11.907   3.677   2.734 -0.3634  1.0022  1.2697
 2559SOL     OW19400  11.220   1.573   3.516 -0.0360 -0.1270  0.3195
 2559SOL    HW119401  11.127   1.588   3.538 -0.2308  0.8913 -1.1000
 2559SOL    HW219402  11.246   1.652   3.469  0.4875 -1.9654 -2.6618
 2560SOL     OW19403   6.858   8.922   2.256  0.0438 -0.6485 -0.1866
 2560SOL    HW119404   6.769   8.894   2.277  0.5739 -1.2901  1.3626
 2560SOL    HW219405   6.871   9.000   2.308  0.2117 -0.2197 -0.8561
 2561SOL     OW19406   7.098   5.429   0.443  0.0211  0.0207 -0.2129
 2561SOL    HW119407   7.003   5.435   0.439  0.0943  1.2900 -0.3755
 2561SOL    HW219408   7.127   5.441   0.353  0.3304 -0.9668 -0.2654
 2562SOL     OW19409   9.267   5.796   5.400 -0.2663 -0.3360 -0.0675
 2562SOL    HW119410   9.332   5.744   5.354  0.1642 -0.4924  0.6923
 2562SOL    HW219411   9.299   5.886   5.395 -2.4132  0.4286 -3.8479
 2563SOL     OW19412   3.974   3.661   0.454  0.3770  0.0522  0.1751
 2563SOL    HW119413   4.033   3.722   0.411  0.7304 -0.1519  0.3615
 2563SOL    HW219414   3.970   3.692   0.545  1.3621 -0.7663  0.5296
 2564SOL     OW19415   7.580   0.422   4.413  0.1554 -0.0349  0.4157
 2564SOL    HW119416   7.625   0.496   4.372 -2.1067  0.9294 -0.5381
 2564SOL    HW219417   7.594   0.435   4.507  4.8665 -1.9048  0.1935
 2565SOL     OW19418   8.740   7.111   9.459  0.1358  0.4899 -0.6051
 2565SOL    HW119419   8.693   7.037   9.498  1.3566  0.4610  0.8993
 2565SOL    HW219420   8.737   7.094   9.365 -2.3147  0.1979 -0.5488
 2566SOL     OW19421   8.361   7.976   7.737 -0.0190 -0.2779 -0.7944
 2566SOL    HW119422   8.396   7.895   7.699  1.5544 -0.6020  1.1685
 2566SOL    HW219423   8.332   8.027   7.661  0.5150 -1.9645 -2.2091
 2567SOL     OW19424   5.079   9.463   5.912  0.6834  0.6689  0.1758
 2567SOL    HW119425   5.114   9.443   5.999  1.4706 -1.7913 -0.6456
 2567SOL    HW219426   5.062   9.378   5.872  2.5682  1.6030 -2.9848
 2568SOL     OW19427   4.803   5.913   6.491 -0.0290  0.2262  0.0713
 2568SOL    HW119428   4.735   5.944   6.552  1.0843  0.3948  1.2617
 2568SOL    HW219429   4.869   5.982   6.491  0.5261 -0.2903 -0.4710
 2569SOL     OW19430   7.054  11.348   9.215 -1.0474  0.6163  0.0682
 2569SOL    HW119431   7.028  11.334   9.123 -0.3416  0.2551 -0.0790
 2569SOL    HW219432   7.052  11.443   9.226  3.4748  1.1784 -1.7507
 2570SOL     OW19433   4.707   6.521   5.314  0.3551  0.3994 -0.0839
 2570SOL    HW119434   4.642   6.557   5.375 -0.6966  0.2257 -1.0782
 2570SOL    HW219435   4.685   6.559   5.230 -0.1309 -1.6900 -0.9690
 2571SOL     OW19436   4.531   8.039   5.584 -0.2791  0.0975  0.1854
 2571SOL    HW119437   4.530   7.944   5.592  0.8167  0.0387 -0.2643
 2571SOL    HW219438   4.602   8.067   5.642 -2.2637  0.8863  2.4118
 2572SOL     OW19439   3.787   9.904   7.234  0.3038 -0.3340 -0.0406
 2572SOL    HW119440   3.840   9.881   7.158 -0.2729  0.3247 -0.6473
 2572SOL    HW219441   3.850   9.917   7.305  0.9097 -0.0383 -0.6339
 2573SOL     OW19442  11.792   4.346   2.510 -0.4149 -0.8566  0.1337
 2573SOL    HW119443  11.849   4.383   2.577  1.6601 -0.4392 -1.7140
 2573SOL    HW219444  11.772   4.419   2.452 -0.1427 -1.6382 -0.9927
 2574SOL     OW19445   2.006   1.287   0.347 -0.1996  0.8382 -0.4634
 2574SOL    HW119446   1.987   1.194   0.356  0.4206  0.6837 -0.6856
 2574SOL    HW219447   2.009   1.302   0.253  1.4990  0.6783 -0.4700
 2575SOL     OW19448   0.392   6.611   5.549 -0.2735  0.4093 -0.1705
 2575SOL    HW119449   0.316   6.625   5.606  0.7738  3.2224  0.7102
 2575SOL    HW219450   0.353   6.601   5.461 -1.7202  1.2785  0.3254
 2576SOL     OW19451   6.627   4.924   1.174 -0.6384  0.4044 -0.5820
 2576SOL    HW119452   6.541   4.947   1.211 -0.4907  0.6009 -0.3602
 2576SOL    HW219453   6.679   4.898   1.249 -0.7716 -0.5920 -0.8137
 2577SOL     OW19454   1.938   2.568  10.512  0.5814  0.5603  0.3268
 2577SOL    HW119455   1.882   2.585  10.587  1.8048  1.5026  1.0641
 2577SOL    HW219456   1.911   2.631  10.446 -0.6295 -0.3985 -0.1349
 2578SOL     OW19457   2.462   9.933   1.939 -0.1672 -0.5186 -0.1707
 2578SOL    HW119458   2.555   9.933   1.916 -0.4552 -0.8028 -1.4323
 2578SOL    HW219459   2.436   9.841   1.933 -0.3369 -0.5698  1.0844
 2579SOL     OW19460   8.576   3.913  11.206 -0.1084  0.3353 -0.2177
 2579SOL    HW119461   8.585   4.006  11.185 -0.8784  0.5914  0.5076
 2579SOL    HW219462   8.489   3.889  11.175 -0.3200  0.1246  0.5092
 2580SOL     OW19463   9.228   8.392  11.427  0.5421 -0.2726  0.0159
 2580SOL    HW119464   9.292   8.450  11.386  0.2080  0.9340  1.1378
 2580SOL    HW219465   9.266   8.305  11.419  1.7717  0.2820 -0.3836
 2581SOL     OW19466   7.706   0.830   6.011 -0.8278 -0.1858 -0.0161
 2581SOL    HW119467   7.639   0.763   6.021 -0.1376 -0.7382  1.1180
 2581SOL    HW219468   7.739   0.818   5.922  0.1307 -2.1986  0.5450
 2582SOL     OW19469   0.057   2.309   1.365 -0.3140 -0.2673  0.0169
 2582SOL    HW119470  -0.008   2.370   1.330  0.5474  0.4473 -0.3633
 2582SOL    HW219471   0.025   2.222   1.338 -1.3018  0.0372  0.1731
 2583SOL     OW19472   9.490   5.092   6.442  0.0798  0.1792 -0.1227
 2583SOL    HW119473   9.453   5.134   6.521  0.5009  0.6116 -0.1486
 2583SOL    HW219474   9.500   5.164   6.380  2.1482  0.3286  0.3189
 2584SOL     OW19475   3.007   8.589   8.470  0.3533 -0.0696 -0.0862
 2584SOL    HW119476   2.964   8.532   8.406  1.5185 -1.0638 -0.0293
 2584SOL    HW219477   3.001   8.541   8.553 -0.0045  0.6069  0.2808
 2585SOL     OW19478   2.170   9.203   0.873 -0.2003 -0.0161 -0.0681
 2585SOL    HW119479   2.094   9.193   0.930 -0.7286  0.8098 -0.5998
 2585SOL    HW219480   2.180   9.297   0.862  0.7236 -0.1193 -0.2610
 2586SOL     OW19481   2.145   5.176   6.176  0.1002  0.1853  0.5360
 2586SOL    HW119482   2.085   5.188   6.102 -1.0505 -1.5888  1.1163
 2586SOL    HW219483   2.208   5.111   6.146  1.3988  1.5559  0.1646
 2587SOL     OW19484   1.899   4.256   6.022  0.2864  0.1873 -0.2084
 2587SOL    HW119485   1.907   4.335   6.076 -1.1209  0.2455 -0.0288
 2587SOL    HW219486   1.944   4.188   6.071  0.9417  0.7237 -0.0484
 2588SOL     OW19487   8.679   8.838  11.713  0.3534 -0.4003 -0.3314
 2588SOL    HW119488   8.772   8.821  11.696  0.8213  1.5256  0.1240
 2588SOL    HW219489   8.668   8.932  11.697 -1.1093 -0.2252  1.3680
 2589SOL     OW19490   1.876   7.759   0.887  0.7878 -0.3124  0.0250
 2589SOL    HW119491   1.927   7.696   0.837 -1.0775 -1.3438 -0.6768
 2589SOL    HW219492   1.797   7.711   0.914  0.3796  1.0631  1.4617
 2590SOL     OW19493   6.442   5.038   7.832  0.0155 -0.4332 -0.2529
 2590SOL    HW119494   6.415   5.030   7.924 -0.5265 -0.1683 -0.3887
 2590SOL    HW219495   6.509   5.107   7.833 -0.9894  0.5702 -0.2526
 2591SOL     OW19496   7.941   7.355   5.748  0.3484 -0.6729  0.6269
 2591SOL    HW119497   8.021   7.366   5.697 -1.3670  1.0039 -1.8946
 2591SOL    HW219498   7.925   7.441   5.787 -1.6393 -0.1185 -1.2433
 2592SOL     OW19499   8.558   4.820   7.391  0.3793 -0.0187 -0.0429
 2592SOL    HW119500   8.507   4.809   7.311 -0.0508  0.8937  0.0899
 2592SOL    HW219501   8.524   4.755   7.452  0.1357 -0.1572 -0.3291
 2593SOL     OW19502   4.495   1.488  11.253 -0.1639 -0.3695  0.0524
 2593SOL    HW119503   4.414   1.437  11.254 -0.1824 -0.3275  0.6516
 2593SOL    HW219504   4.466   1.578  11.234 -0.2481 -0.3625  0.2182
 2594SOL     OW19505   5.390   5.764   2.326  0.2865 -0.6746 -0.5123
 2594SOL    HW119506   5.394   5.755   2.421 -0.0362  1.4407 -0.2490
 2594SOL    HW219507   5.482   5.765   2.298  0.5250  1.6860  0.1679
 2595SOL     OW19508   9.057   3.960   8.596  0.3265  0.6077 -0.9106
 2595SOL    HW119509   9.036   3.881   8.547  0.0604 -0.6338  1.0674
 2595SOL    HW219510   9.144   3.986   8.565  1.0342 -1.2897 -0.6395
 2596SOL     OW19511   0.891   6.984  10.867 -0.2399  0.4376  0.1428
 2596SOL    HW119512   0.811   6.960  10.914 -0.8328  1.0544 -0.5382
 2596SOL    HW219513   0.875   6.955  10.777  1.0338 -1.0661  0.3527
 2597SOL     OW19514   8.916   8.585   8.861  0.2870 -0.6300  0.0784
 2597SOL    HW119515   8.861   8.570   8.784 -0.2259 -0.0616  0.3220
 2597SOL    HW219516   9.005   8.571   8.830  0.0647 -0.7191 -0.5417
 2598SOL     OW19517   7.940  10.525   5.933 -0.2861  0.7828  0.4501
 2598SOL    HW119518   7.862  10.523   5.878 -0.2858  1.9933  0.3921
 2598SOL    HW219519   7.936  10.609   5.979  1.3867  1.2410 -0.1615
 2599SOL     OW19520   1.378   1.101   8.573 -0.0686  0.1948 -0.4384
 2599SOL    HW119521   1.395   1.177   8.518 -1.7285  0.1243 -1.1150
 2599SOL    HW219522   1.372   1.028   8.511 -2.9177  0.2665 -0.3656
 2600SOL     OW19523   7.885   7.407   9.374  0.3757 -0.0799 -0.1810
 2600SOL    HW119524   7.842   7.323   9.362 -1.2189 -0.0978  3.9655
 2600SOL    HW219525   7.960   7.388   9.432 -0.7375  1.3872  1.8577
 2601SOL     OW19526   5.182   1.526   8.149 -0.5949 -0.7067 -0.2622
 2601SOL    HW119527   5.217   1.575   8.074 -0.9182 -1.1454 -0.7078
 2601SOL    HW219528   5.158   1.441   8.112 -0.3236 -1.0961  0.4390
 2602SOL     OW19529   7.997   9.482  11.449 -0.0655  0.0359 -0.2461
 2602SOL    HW119530   8.058   9.428  11.498  2.0873  1.4424 -1.2116
 2602SOL    HW219531   7.975   9.553  11.509  1.7305  1.1765 -0.8483
 2603SOL     OW19532   2.769   2.682   2.809  0.5403 -0.2577 -0.3299
 2603SOL    HW119533   2.697   2.745   2.804  0.0885 -0.3005  2.9248
 2603SOL    HW219534   2.843   2.727   2.768 -0.0111  2.1133  1.0630
 2604SOL     OW19535   8.755   5.808   6.959  0.2952 -0.5959  1.0828
 2604SOL    HW119536   8.808   5.736   6.990 -0.3675 -1.0330  1.2313
 2604SOL    HW219537   8.788   5.828   6.871 -0.0125 -1.5803  0.7382
 2605SOL     OW19538   0.785   5.369   3.224 -0.0156 -0.6826  0.3977
 2605SOL    HW119539   0.853   5.303   3.237 -0.6455 -1.2849  0.6703
 2605SOL    HW219540   0.703   5.320   3.224 -0.4088 -0.0609 -0.7519
 2606SOL     OW19541   3.774   2.252   4.761  0.3696  0.2155  0.2632
 2606SOL    HW119542   3.742   2.187   4.824  0.7813  0.9684  1.2798
 2606SOL    HW219543   3.773   2.206   4.677 -0.2511 -0.8011  0.7981
 2607SOL     OW19544   4.940   2.824   3.917 -0.2675  0.2259 -0.2884
 2607SOL    HW119545   4.930   2.858   3.828 -1.2809 -0.9038 -0.6339
 2607SOL    HW219546   4.905   2.893   3.973  0.3571  0.9370 -0.7524
 2608SOL     OW19547   1.832   3.608   7.051 -0.0135  0.3000  0.2101
 2608SOL    HW119548   1.838   3.670   6.978 -0.6538 -0.6417 -0.6608
 2608SOL    HW219549   1.770   3.648   7.112  1.5487  1.7568  0.9533
 2609SOL     OW19550   3.334   2.882   0.783 -0.5429  0.5151  0.3541
 2609SOL    HW119551   3.256   2.840   0.746  0.3012  0.0850 -1.0098
 2609SOL    HW219552   3.407   2.845   0.733  0.3290  2.7706 -0.1339
 2610SOL     OW19553   3.497   9.148   8.705  0.1824 -0.1716 -0.2900
 2610SOL    HW119554   3.561   9.088   8.667  1.0044  0.9465 -0.7189
 2610SOL    HW219555   3.439   9.091   8.756  1.0202 -1.3040 -0.5478
 2611SOL     OW19556   3.522   0.134   3.047 -0.7797 -0.9261  0.5609
 2611SOL    HW119557   3.555   0.099   3.130 -0.2492  0.7258  1.0896
 2611SOL    HW219558   3.569   0.085   2.980  0.6898 -0.5603  1.2782
 2612SOL     OW19559   6.230   6.851   4.885 -0.1279  0.7007 -0.3895
 2612SOL    HW119560   6.146   6.891   4.905  0.4474  0.6747  2.4408
 2612SOL    HW219561   6.234   6.773   4.940  1.7720  0.7529 -0.3724
 2613SOL     OW19562  11.698   9.966   0.997 -0.0917 -0.1215  0.2229
 2613SOL    HW119563  11.729   9.974   1.087  2.4057  0.1320 -0.5785
 2613SOL    HW219564  11.660   9.878   0.993  0.5321 -0.4570  1.3008
 2614SOL     OW19565  11.806   9.587   8.809  0.2692 -0.4711 -0.2929
 2614SOL    HW119566  11.727   9.636   8.785  0.4209 -0.7927 -1.5222
 2614SOL    HW219567  11.839   9.631   8.887 -1.3924 -0.6347  0.5438
 2615SOL     OW19568   6.291   5.664   2.588 -0.2010 -0.4755  0.5194
 2615SOL    HW119569   6.334   5.586   2.622  0.5872 -0.3487 -0.1413
 2615SOL    HW219570   6.348   5.736   2.616  0.4943 -0.3734 -1.0524
 2616SOL     OW19571   4.662   8.642  10.772  0.0695 -0.1536 -0.6117
 2616SOL    HW119572   4.579   8.596  10.763 -0.1299  0.1909 -0.5520
 2616SOL    HW219573   4.661   8.675  10.862  1.6104 -2.7431  0.4802
 2617SOL     OW19574   2.599  11.264   9.373  0.0730 -0.5122  0.0739
 2617SOL    HW119575   2.633  11.177   9.396 -1.0404 -1.4381 -1.6504
 2617SOL    HW219576   2.579  11.304   9.458  1.6631 -1.4598  0.9598
 2618SOL     OW19577   2.811   7.104   6.517  0.1600  0.4034  0.3208
 2618SOL    HW119578   2.767   7.187   6.534  0.8453  1.0394 -0.9109
 2618SOL    HW219579   2.857   7.084   6.599 -1.7688  0.0873  1.3891
 2619SOL     OW19580   8.760  11.712   1.279 -0.1151  0.6328  0.3389
 2619SOL    HW119581   8.788  11.620   1.277 -1.2742  0.2744 -1.0631
 2619SOL    HW219582   8.744  11.730   1.372  0.2246 -0.5498  0.6479
 2620SOL     OW19583   7.876   5.168   8.098  0.6290  0.2655 -0.0616
 2620SOL    HW119584   7.972   5.178   8.099  0.7290 -0.6735  0.1838
 2620SOL    HW219585   7.844   5.252   8.063  1.6776 -0.3461 -2.7891
 2621SOL     OW19586  10.715   2.668  11.044 -0.4216 -0.4187 -0.4089
 2621SOL    HW119587  10.631   2.710  11.025  0.5011  2.3174  1.0013
 2621SOL    HW219588  10.771   2.692  10.970  0.3865  1.8520  0.8503
 2622SOL     OW19589   7.925   1.472   6.642 -0.1269 -0.0834 -0.0481
 2622SOL    HW119590   7.877   1.533   6.587  0.9434  0.9824  0.1712
 2622SOL    HW219591   7.924   1.390   6.593  0.5126  0.7439 -1.5040
 2623SOL     OW19592   7.241   7.103  10.343 -0.0259 -0.0270 -0.5468
 2623SOL    HW119593   7.265   7.063  10.260 -0.6211  1.2773 -1.3854
 2623SOL    HW219594   7.167   7.160  10.322  0.5926  1.2866  0.6116
 2624SOL     OW19595   1.265   9.266   5.511 -0.6321 -0.4680  0.3977
 2624SOL    HW119596   1.193   9.315   5.470 -1.0883 -2.1002 -0.8734
 2624SOL    HW219597   1.229   9.235   5.594 -0.5646  0.7510  0.8939
 2625SOL     OW19598   9.480  11.534   6.030 -0.4760 -0.5410 -0.2926
 2625SOL    HW119599   9.441  11.612   6.069 -0.0391  0.5831 -1.9931
 2625SOL    HW219600   9.574  11.554   6.026 -0.0509 -1.9998  1.0338
 2626SOL     OW19601   4.616   0.223   5.138  0.3671 -0.0636  0.2057
 2626SOL    HW119602   4.643   0.243   5.049 -0.4540 -0.2297 -0.0926
 2626SOL    HW219603   4.621   0.306   5.185  1.5424 -0.1223  0.2155
 2627SOL     OW19604   1.953   6.350   5.044  0.1271  0.0847 -0.7996
 2627SOL    HW119605   1.938   6.435   5.085 -1.6354 -0.6787  0.2714
 2627SOL    HW219606   1.930   6.364   4.952 -1.3156  0.5233 -0.4073
 2628SOL     OW19607   3.304   9.787   6.363 -0.2553  0.1012 -0.0425
 2628SOL    HW119608   3.381   9.835   6.332 -0.8143  0.8199 -0.3488
 2628SOL    HW219609   3.337   9.699   6.381  0.2743 -0.1004 -1.8348
 2629SOL     OW19610   8.831   8.589  11.646 -0.4308  0.0429  0.2941
 2629SOL    HW119611   8.823   8.553  11.558 -1.4663  0.9441 -0.0040
 2629SOL    HW219612   8.760   8.547  11.695 -1.1735  1.0578  0.1344
 2630SOL     OW19613   2.768   0.107   4.669  0.0069 -0.2121  0.9245
 2630SOL    HW119614   2.794   0.080   4.758  0.4648 -1.2100  0.5043
 2630SOL    HW219615   2.850   0.120   4.623 -0.2153 -0.8411  0.3271
 2631SOL     OW19616   9.414   6.369   9.610 -0.1636 -0.3934 -0.3929
 2631SOL    HW119617   9.444   6.350   9.521 -0.8699 -2.4064 -0.2587
 2631SOL    HW219618   9.324   6.401   9.599 -0.4113 -1.0682 -0.4078
 2632SOL     OW19619  11.729   1.170   3.130  0.0785  0.1002  0.7745
 2632SOL    HW119620  11.728   1.261   3.098  0.5134  0.2532  1.1978
 2632SOL    HW219621  11.650   1.131   3.091  0.4431  0.3619 -0.2661
 2633SOL     OW19622   5.887   6.228   2.631  0.0336 -0.5619  0.0058
 2633SOL    HW119623   5.798   6.207   2.606  0.1720  0.2518 -1.2699
 2633SOL    HW219624   5.890   6.324   2.633  0.4062 -0.5733  1.8733
 2634SOL     OW19625   6.028   1.543   1.578  0.3459  0.4322  0.0729
 2634SOL    HW119626   6.010   1.537   1.484 -1.8908  0.4892  0.4400
 2634SOL    HW219627   6.052   1.634   1.592  0.4654  0.4772 -0.3922
 2635SOL     OW19628  11.693  11.268   1.933 -0.0008  0.2490  0.1419
 2635SOL    HW119629  11.736  11.249   2.016  0.1489  0.6579  0.1575
 2635SOL    HW219630  11.608  11.225   1.939  0.7980 -1.5042 -0.3070
 2636SOL     OW19631   4.447   1.668  10.101  0.1893  0.1712  0.9202
 2636SOL    HW119632   4.448   1.740  10.038  0.0351  1.4462  2.3253
 2636SOL    HW219633   4.500   1.599  10.060  0.5597  1.1810 -0.3387
 2637SOL     OW19634   2.863   7.769   8.579  0.1623 -0.1576 -0.1656
 2637SOL    HW119635   2.850   7.797   8.488 -0.8803 -0.7018 -0.2007
 2637SOL    HW219636   2.944   7.718   8.577 -0.3809 -1.0278 -1.0086
 2638SOL     OW19637   3.743  11.630   2.713 -0.1304 -0.0128 -0.4487
 2638SOL    HW119638   3.836  11.624   2.733 -0.1142  0.7503 -0.2690
 2638SOL    HW219639   3.724  11.550   2.664  0.0566 -1.4490  1.6685
 2639SOL     OW19640  10.020  11.720   5.410  0.2893 -0.2733  0.0628
 2639SOL    HW119641   9.941  11.706   5.359  0.8512  1.2963 -1.3409
 2639SOL    HW219642   9.989  11.740   5.498 -0.8672  0.0126 -0.4009
 2640SOL     OW19643   5.886   4.631   1.409 -0.2405  0.1681  0.2857
 2640SOL    HW119644   5.959   4.579   1.443 -0.3098  0.1127  0.3488
 2640SOL    HW219645   5.807   4.583   1.435 -0.6078  2.5683  4.5574
 2641SOL     OW19646  10.188   2.089   1.027 -0.0639 -0.3295  0.0639
 2641SOL    HW119647  10.113   2.031   1.014 -0.2669 -0.6732  2.2707
 2641SOL    HW219648  10.261   2.030   1.048 -0.0803  0.1254  1.5235
 2642SOL     OW19649   2.519   6.855   5.676  0.1366 -0.0817  0.4415
 2642SOL    HW119650   2.491   6.765   5.693 -0.0352  0.1220  1.2489
 2642SOL    HW219651   2.543   6.855   5.583  2.0486 -1.4661  0.8832
 2643SOL     OW19652   5.561   7.935  10.064  0.0443  0.3492 -0.2537
 2643SOL    HW119653   5.653   7.934  10.038 -0.2747  0.8465 -1.4406
 2643SOL    HW219654   5.550   7.857  10.118  0.7627 -0.6612 -1.5390
 2644SOL     OW19655   4.824   2.521   5.814  0.1411 -0.6769 -0.6915
 2644SOL    HW119656   4.826   2.596   5.873  0.9006 -0.8753 -0.4477
 2644SOL    HW219657   4.916   2.506   5.790  0.2753 -2.6547  0.7424
 2645SOL     OW19658   1.566   2.844   2.072  1.0444 -0.1966  0.5293
 2645SOL    HW119659   1.486   2.824   2.024  0.7415  1.5371  0.2525
 2645SOL    HW219660   1.631   2.864   2.005  0.7382  1.8055  0.7502
 2646SOL     OW19661   7.778   4.728   6.593 -0.3730 -0.1085 -0.4824
 2646SOL    HW119662   7.748   4.817   6.572  1.0876  0.3663 -0.7000
 2646SOL    HW219663   7.781   4.684   6.508  0.1184  0.0430 -0.5479
 2647SOL     OW19664  11.583   3.896   8.935  0.6089 -0.5697 -0.0724
 2647SOL    HW119665  11.609   3.979   8.895 -0.6980 -1.3021 -2.7253
 2647SOL    HW219666  11.630   3.893   9.018  2.2836  1.8649 -0.8189
 2648SOL     OW19667   4.266   7.653   2.109  0.5190  0.4207  0.2004
 2648SOL    HW119668   4.289   7.694   2.192  1.9991 -0.2246  0.1395
 2648SOL    HW219669   4.203   7.585   2.132  0.8004  0.3502  0.7739
 2649SOL     OW19670   2.657   2.480   3.549 -0.1356 -0.0435  0.3734
 2649SOL    HW119671   2.690   2.444   3.632 -0.4259 -1.2013  0.0095
 2649SOL    HW219672   2.620   2.404   3.504  0.9680  0.3487 -1.2877
 2650SOL     OW19673   6.188   9.052   3.298 -0.0299 -0.0891 -0.3622
 2650SOL    HW119674   6.226   8.991   3.361  1.7162  0.5768 -0.7062
 2650SOL    HW219675   6.127   8.999   3.246 -0.6014 -0.9013  1.1018
 2651SOL     OW19676   8.062  11.367   3.640  0.2077 -0.0713 -0.2486
 2651SOL    HW119677   8.075  11.453   3.679  0.4993 -1.2508  2.4327
 2651SOL    HW219678   8.141  11.318   3.663  0.4031 -0.8919 -2.3976
 2652SOL     OW19679   5.897   5.432   6.043  0.3896 -0.2292 -0.1335
 2652SOL    HW119680   5.982   5.459   6.008  0.7866  0.1593  1.0776
 2652SOL    HW219681   5.916   5.405   6.133 -0.7460 -0.2554  0.1083
 2653SOL     OW19682   6.964   4.215   5.920 -0.3475  0.5080  0.5474
 2653SOL    HW119683   6.897   4.264   5.871 -0.9589 -0.0463  0.8107
 2653SOL    HW219684   6.997   4.150   5.858  0.5496  1.3048  0.1602
 2654SOL     OW19685   2.051   9.392  10.950 -0.1119  0.2750 -0.5973
 2654SOL    HW119686   1.973   9.389  11.006 -0.1743  3.1951 -0.3992
 2654SOL    HW219687   2.109   9.325  10.986 -2.0411 -1.2088 -0.0695
 2655SOL     OW19688  10.222  11.288   6.337  0.0087 -0.3571  0.5983
 2655SOL    HW119689  10.156  11.246   6.282  0.2887 -1.3032  0.9659
 2655SOL    HW219690  10.172  11.340   6.400 -0.3040  1.5845 -1.1436
 2656SOL     OW19691   0.426   6.832   6.250  0.0536 -0.8064  0.4076
 2656SOL    HW119692   0.477   6.907   6.280  0.2375 -0.7304 -0.0902
 2656SOL    HW219693   0.373   6.866   6.178  1.0377 -1.4224 -0.6475
 2657SOL     OW19694   3.937   2.933  11.340  0.1760  0.0901 -0.1657
 2657SOL    HW119695   3.948   2.839  11.328 -1.6487 -0.1107 -0.6109
 2657SOL    HW219696   4.026   2.967  11.351  0.8681 -1.6633 -0.0670
 2658SOL     OW19697   6.804   2.380   2.819 -0.0728 -0.3161  0.1374
 2658SOL    HW119698   6.845   2.382   2.906  1.5569  0.6356 -0.6037
 2658SOL    HW219699   6.877   2.384   2.758 -1.2457  0.7995 -1.2732
 2659SOL     OW19700   8.274   1.360   7.370 -0.9615  0.3279 -0.0610
 2659SOL    HW119701   8.291   1.266   7.373 -2.6202  0.0002 -0.2172
 2659SOL    HW219702   8.326   1.392   7.296 -0.5045 -0.4850 -0.0973
 2660SOL     OW19703   9.768   7.488  11.724 -0.0427  0.1225 -0.1953
 2660SOL    HW119704   9.686   7.478  11.677 -0.5262 -2.3476  1.0312
 2660SOL    HW219705   9.758   7.434  11.802  1.7279  1.9645  1.4221
 2661SOL     OW19706   9.591   0.920  11.053 -1.0387 -0.2889 -0.4250
 2661SOL    HW119707   9.674   0.951  11.089 -0.5351 -2.3997  0.3588
 2661SOL    HW219708   9.530   0.992  11.066  0.6627  1.3462 -1.0892
 2662SOL     OW19709  10.618  10.209   9.803 -0.1344  0.4153  0.0330
 2662SOL    HW119710  10.613  10.301   9.829 -1.1073  0.2927  0.3306
 2662SOL    HW219711  10.579  10.161   9.876  0.5918 -0.2591 -0.0068
 2663SOL     OW19712   4.562   3.065   1.378  0.3630 -0.0430 -0.7512
 2663SOL    HW119713   4.475   3.046   1.344 -0.0594  0.2411  0.1239
 2663SOL    HW219714   4.604   2.979   1.388 -0.4200 -0.3232  0.3345
 2664SOL     OW19715   2.021   7.461   6.012 -0.5423 -0.6287 -0.1818
 2664SOL    HW119716   2.044   7.445   6.103 -0.3100 -0.3694 -0.1944
 2664SOL    HW219717   1.929   7.434   6.005 -0.7285 -0.1239  0.2600
 2665SOL     OW19718   4.092  10.091   2.103 -0.4759 -0.1786  0.0731
 2665SOL    HW119719   4.145  10.047   2.036  1.0167  0.8687  0.4993
 2665SOL    HW219720   4.008  10.106   2.060  0.4890  0.6264 -1.6847
 2666SOL     OW19721   0.981  11.760   5.857 -0.2168  0.5471  0.3855
 2666SOL    HW119722   1.039  11.712   5.799 -1.2832 -0.1023 -0.1660
 2666SOL    HW219723   1.035  11.833   5.890  0.9321 -0.1092  0.0068
 2667SOL     OW19724   7.059   3.543  11.597  0.8257  0.0276 -0.1516
 2667SOL    HW119725   6.994   3.526  11.665  1.8162  0.8683  1.0596
 2667SOL    HW219726   7.137   3.574  11.645  1.2565  1.5333 -1.7062
 2668SOL     OW19727  11.241   6.945   5.870 -0.2466  0.1940 -0.2281
 2668SOL    HW119728  11.259   7.039   5.863 -0.4366  0.1647 -1.3458
 2668SOL    HW219729  11.159   6.933   5.822 -0.1551 -0.5682 -0.2130
 2669SOL     OW19730   3.426   8.642   5.053  0.0446  0.0349  0.0441
 2669SOL    HW119731   3.503   8.588   5.070  0.2290  0.4271  0.4940
 2669SOL    HW219732   3.359   8.581   5.024  0.7500 -0.2211 -1.1048
 2670SOL     OW19733   3.876   0.909   1.621  0.1579  0.4616  0.2421
 2670SOL    HW119734   3.828   0.848   1.564 -0.1781  0.4055  0.5771
 2670SOL    HW219735   3.967   0.881   1.615  0.1113  0.4000 -0.1994
 2671SOL     OW19736   6.099  10.164   2.318  1.0300  0.4077  0.3394
 2671SOL    HW119737   6.175  10.136   2.266  0.4229  0.0643 -0.3711
 2671SOL    HW219738   6.125  10.250   2.352  1.5919  0.4702 -0.2154
 2672SOL     OW19739   0.154   6.240   8.085 -0.4668  0.4359  0.5765
 2672SOL    HW119740   0.237   6.286   8.101 -0.9433  0.9831  1.6163
 2672SOL    HW219741   0.140   6.247   7.991  1.0841 -0.4050  0.2454
 2673SOL     OW19742  11.592   2.555  10.594  0.3178  0.6534  0.3694
 2673SOL    HW119743  11.649   2.620  10.553  0.8508 -0.7248 -1.2013
 2673SOL    HW219744  11.536   2.524  10.523 -0.4717 -0.0539  1.2670
 2674SOL     OW19745   7.546   5.546   9.844  0.1260 -0.4390 -0.3866
 2674SOL    HW119746   7.547   5.533   9.939 -1.5359  0.8982 -0.1307
 2674SOL    HW219747   7.453   5.561   9.823  0.6304  0.6202 -2.0106
 2675SOL     OW19748  11.139   2.309   1.334  0.0671  0.2361 -0.4991
 2675SOL    HW119749  11.085   2.350   1.401  1.0341 -0.8333  0.9892
 2675SOL    HW219750  11.104   2.342   1.251 -0.1503  2.8469  0.5370
 2676SOL     OW19751   8.470   9.463   6.185 -0.1795 -0.2840 -0.4253
 2676SOL    HW119752   8.533   9.535   6.177 -1.5053  0.8068 -1.6532
 2676SOL    HW219753   8.451   9.457   6.278  1.9827 -0.9029  0.0349
 2677SOL     OW19754   0.357  10.569   7.879 -0.1266  0.5935 -0.0542
 2677SOL    HW119755   0.342  10.491   7.826  1.2586  1.0168 -1.1179
 2677SOL    HW219756   0.272  10.610   7.886 -0.8636 -0.9328  0.4134
 2678SOL     OW19757   0.687   0.040   7.915  0.3337  0.1686 -0.0036
 2678SOL    HW119758   0.606   0.091   7.911 -0.0002 -0.3897 -0.4896
 2678SOL    HW219759   0.756   0.105   7.899 -0.1378  0.3527 -1.4930
 2679SOL     OW19760   7.719   2.593   5.132  0.0618  0.2625 -0.0798
 2679SOL    HW119761   7.731   2.533   5.058  1.7848  0.2088  0.2227
 2679SOL    HW219762   7.631   2.572   5.165  1.1660 -3.2495  1.0384
 2680SOL     OW19763   2.107   8.220   6.900 -0.3178  0.1718  0.2041
 2680SOL    HW119764   2.177   8.199   6.961  0.0279  0.1357 -0.1952
 2680SOL    HW219765   2.068   8.301   6.933  1.3549  1.4454 -0.7609
 2681SOL     OW19766   7.567   8.100   1.181  0.6669 -0.1417  0.3674
 2681SOL    HW119767   7.589   8.074   1.091  0.2538  0.7446  0.0018
 2681SOL    HW219768   7.651   8.121   1.222  0.7931  0.1574 -0.0403
 2682SOL     OW19769   7.330   7.480   7.120 -0.5215 -0.0175 -0.3637
 2682SOL    HW119770   7.357   7.551   7.063  0.1511 -1.1006 -1.4310
 2682SOL    HW219771   7.288   7.523   7.194  0.0107  1.4823 -0.9117
 2683SOL     OW19772   2.672   2.236   8.536 -0.1387  0.0269  0.0518
 2683SOL    HW119773   2.603   2.204   8.479  0.7605 -3.4281  0.6848
 2683SOL    HW219774   2.626   2.262   8.616 -0.8393 -1.7283  0.2706
 2684SOL     OW19775   7.723   0.613   4.276  0.1160 -0.3349  0.2855
 2684SOL    HW119776   7.703   0.706   4.286  0.6193 -0.4250  2.6240
 2684SOL    HW219777   7.818   0.609   4.277  0.0907 -0.9582  1.4257
 2685SOL     OW19778   2.704  11.749   9.655 -0.7453  0.0259  0.4018
 2685SOL    HW119779   2.750  11.824   9.618 -0.5226 -0.3282 -0.0609
 2685SOL    HW219780   2.741  11.738   9.742 -0.8348  0.4973  0.5017
 2686SOL     OW19781  11.144   3.446  10.501 -0.8128  0.5222 -0.0065
 2686SOL    HW119782  11.186   3.486  10.578  0.2420 -0.1467 -0.2081
 2686SOL    HW219783  11.066   3.404  10.536 -0.3577  0.2444  0.7144
 2687SOL     OW19784   4.785   1.849   3.285  0.1397 -0.5850 -0.2373
 2687SOL    HW119785   4.789   1.769   3.338  0.7671 -0.3553  0.0775
 2687SOL    HW219786   4.731   1.909   3.337 -0.2325 -0.7587 -0.4185
 2688SOL     OW19787   8.954   5.097   6.569 -0.3109  0.1262  0.2713
 2688SOL    HW119788   8.902   5.122   6.493 -0.6286 -0.3910  0.3109
 2688SOL    HW219789   8.904   5.129   6.644  0.0290  0.6836  0.2713
 2689SOL     OW19790   8.762   7.354  10.638 -0.1814  0.1148  0.0768
 2689SOL    HW119791   8.830   7.340  10.572  1.3497  0.9459  1.4059
 2689SOL    HW219792   8.807   7.337  10.722 -1.8345 -0.0903  0.9562
 2690SOL     OW19793   2.243   5.247  10.435  0.3788 -0.3305 -0.1256
 2690SOL    HW119794   2.301   5.173  10.419  0.5865  0.1947 -2.1879
 2690SOL    HW219795   2.301   5.317  10.465  0.5107 -0.4103 -0.1952
 2691SOL     OW19796   7.074   6.927   2.880  0.0200  0.1351  0.3818
 2691SOL    HW119797   7.063   6.855   2.817  3.0658  0.6816 -0.9619
 2691SOL    HW219798   7.126   6.889   2.951 -0.4918  0.3970  0.9039
 2692SOL     OW19799  10.159   6.055   9.839  0.1310  0.2935 -0.3328
 2692SOL    HW119800  10.152   5.967   9.876  0.7254  0.3797  0.0004
 2692SOL    HW219801  10.093   6.107   9.886 -1.1038 -0.2424 -1.4008
 2693SOL     OW19802   4.331   0.189   5.220 -0.1086  0.3303 -0.0445
 2693SOL    HW119803   4.410   0.234   5.188 -0.3599  2.4233  1.9583
 2693SOL    HW219804   4.355   0.096   5.221  1.9601  0.7957 -0.5019
 2694SOL     OW19805   5.175   5.323   6.980 -0.5896 -0.1436  0.0067
 2694SOL    HW119806   5.093   5.282   6.954 -0.4064  0.0464 -0.9127
 2694SOL    HW219807   5.243   5.268   6.942 -0.3440  1.2274 -1.6951
 2695SOL     OW19808   3.476   9.139  10.181 -0.0179  0.1685 -0.0938
 2695SOL    HW119809   3.424   9.070  10.139 -2.0905  0.8375  1.2317
 2695SOL    HW219810   3.431   9.220  10.159  1.6377  1.0120 -0.5300
 2696SOL     OW19811   0.350   1.745   2.247 -0.5030  0.1828 -0.1700
 2696SOL    HW119812   0.350   1.736   2.152  0.0170 -3.0652  0.0441
 2696SOL    HW219813   0.434   1.786   2.267 -0.7604  1.2071 -1.0696
 2697SOL     OW19814   7.860   6.585  10.459 -0.5525 -0.2019 -0.1363
 2697SOL    HW119815   7.951   6.604  10.435 -0.2083 -0.7578  0.6871
 2697SOL    HW219816   7.831   6.663  10.506  0.2513 -0.8943  1.5890
 2698SOL     OW19817   2.743   7.906   5.308  0.3187 -0.8066 -0.1661
 2698SOL    HW119818   2.754   7.891   5.215 -2.4127 -1.5581 -0.4636
 2698SOL    HW219819   2.720   7.999   5.315 -1.5148 -1.1849 -0.5529
 2699SOL     OW19820   6.811   8.325   0.206 -0.0775 -0.0036  0.0654
 2699SOL    HW119821   6.906   8.331   0.202  0.0039  0.2464  1.5458
 2699SOL    HW219822   6.794   8.281   0.290 -1.2626  0.1679 -0.0714
 2700SOL     OW19823  11.274   8.166   6.862  0.5635 -0.0252 -0.7314
 2700SOL    HW119824  11.180   8.171   6.842 -0.0759  0.8646  2.0069
 2700SOL    HW219825  11.302   8.257   6.869  0.9877 -0.2526  0.9274
 2701SOL     OW19826   5.903   4.461   6.434 -0.2187  0.3100 -0.2367
 2701SOL    HW119827   5.941   4.527   6.492  1.3072 -1.0932  0.4314
 2701SOL    HW219828   5.952   4.381   6.453 -2.5793 -1.2628 -0.3806
 2702SOL     OW19829  11.086   1.840   4.651  0.2940 -0.4046  0.2097
 2702SOL    HW119830  11.108   1.819   4.561 -0.1089 -0.2536  0.0747
 2702SOL    HW219831  11.041   1.925   4.646  1.9355  0.5468  0.7427
 2703SOL     OW19832   4.659   5.009  11.594  0.5662  0.5431  0.5185
 2703SOL    HW119833   4.592   5.076  11.581  1.2844  1.2870  0.5637
 2703SOL    HW219834   4.696   5.028  11.680 -0.0531 -0.6824  1.0869
 2704SOL     OW19835   2.607  10.610  11.475  0.6909  0.6285  0.2115
 2704SOL    HW119836   2.593  10.529  11.426  0.8463 -0.9863  2.6499
 2704SOL    HW219837   2.520  10.651  11.479  0.1147 -0.5952  0.8277
 2705SOL     OW19838   5.714   8.540   2.487 -0.2202  0.6847  0.0705
 2705SOL    HW119839   5.769   8.610   2.454  0.9592 -0.0319  0.4474
 2705SOL    HW219840   5.775   8.471   2.512 -1.2179  0.2325  1.4021
 2706SOL     OW19841   0.202   2.704  10.376 -0.1073 -0.1647  0.5021
 2706SOL    HW119842   0.273   2.756  10.339 -0.6430 -1.1727 -2.1506
 2706SOL    HW219843   0.124   2.758  10.366 -0.1795 -0.2298  0.6966
 2707SOL     OW19844   3.853   6.179   1.442  0.1213 -0.3740  0.1428
 2707SOL    HW119845   3.758   6.191   1.440  0.1296  0.1362 -2.9966
 2707SOL    HW219846   3.888   6.268   1.445  0.4177 -0.4039 -1.5198
 2708SOL     OW19847   4.839   8.225   2.170 -0.1434 -0.0701 -1.2695
 2708SOL    HW119848   4.760   8.204   2.219  0.1130 -1.0636 -1.2530
 2708SOL    HW219849   4.889   8.283   2.227 -0.4504 -0.1624 -0.9097
 2709SOL     OW19850   1.842   7.948   1.492  0.0302 -0.7000 -0.1810
 2709SOL    HW119851   1.860   7.902   1.575  1.3400  1.2553  0.7217
 2709SOL    HW219852   1.815   8.036   1.519  1.6497  0.3769 -1.7912
 2710SOL     OW19853   1.290   2.333  10.039  0.3871  0.1417  0.2841
 2710SOL    HW119854   1.328   2.418  10.062 -0.7489  0.6892  0.1965
 2710SOL    HW219855   1.200   2.353  10.012  0.7251 -0.8365 -1.7544
 2711SOL     OW19856   1.974   3.790   7.367 -0.6082 -0.0055  0.1456
 2711SOL    HW119857   2.038   3.855   7.337  0.3529 -1.1354 -0.3262
 2711SOL    HW219858   1.957   3.814   7.458 -2.2098  2.3922 -0.6777
 2712SOL     OW19859  11.123   3.000   1.533  0.2277  0.1610  0.2976
 2712SOL    HW119860  11.081   2.931   1.585 -0.2805 -0.1634 -0.5109
 2712SOL    HW219861  11.200   2.957   1.496  0.6297  0.4123  0.8304
 2713SOL     OW19862   8.107  10.031   1.251  0.3724 -0.3700 -0.1720
 2713SOL    HW119863   8.143   9.963   1.194  1.3405 -0.5750  0.6598
 2713SOL    HW219864   8.032   9.990   1.293 -0.3245 -0.2314 -1.2498
 2714SOL     OW19865   5.565  10.210   3.724  0.1076  0.4378 -0.3078
 2714SOL    HW119866   5.509  10.221   3.801 -0.4180  0.3016 -0.6640
 2714SOL    HW219867   5.654  10.222   3.757 -0.0051 -1.0024  0.5951
 2715SOL     OW19868  11.854   2.403   7.078 -0.5292  0.8870 -0.1245
 2715SOL    HW119869  11.889   2.389   6.990 -0.3083  2.3552 -0.2896
 2715SOL    HW219870  11.899   2.338   7.132 -0.1519  0.4379 -0.9675
 2716SOL     OW19871   4.075   8.449   9.369 -0.4207  0.4890 -0.3906
 2716SOL    HW119872   4.127   8.501   9.308 -2.5881  1.1835 -1.7610
 2716SOL    HW219873   4.042   8.377   9.316  1.6781 -1.8363  1.2393
 2717SOL     OW19874  10.347   5.698   9.497 -0.1171 -1.0567 -0.2667
 2717SOL    HW119875  10.287   5.769   9.521 -2.1772 -2.4559 -1.0074
 2717SOL    HW219876  10.386   5.670   9.580  0.5504  0.7361  0.0678
 2718SOL     OW19877   3.079  11.430   3.568 -0.1019  0.1230 -0.6674
 2718SOL    HW119878   3.041  11.347   3.598 -1.8861  0.9899 -0.4121
 2718SOL    HW219879   3.105  11.412   3.477 -2.8390 -0.0719 -1.5175
 2719SOL     OW19880   8.973  10.501   1.704  0.0529 -0.1304  0.4212
 2719SOL    HW119881   8.895  10.479   1.755  1.2958 -0.4237  2.3004
 2719SOL    HW219882   8.983  10.596   1.717  1.4402 -0.4858  2.4405
 2720SOL     OW19883  10.426   9.395   8.862  0.4059 -0.2111  0.3906
 2720SOL    HW119884  10.442   9.486   8.887  1.2055  0.2884 -1.7055
 2720SOL    HW219885  10.402   9.400   8.769  0.3407 -2.1353  0.2687
 2721SOL     OW19886   3.637  10.805   4.925  0.3234  0.2756  0.0412
 2721SOL    HW119887   3.704  10.782   4.989 -0.8620  0.0566  1.2350
 2721SOL    HW219888   3.679  10.789   4.840  1.1032 -1.8120  0.7665
 2722SOL     OW19889   3.118   3.475   4.125 -0.3502 -0.5234  0.0163
 2722SOL    HW119890   3.134   3.431   4.041  1.9025 -0.4665  0.3621
 2722SOL    HW219891   3.084   3.406   4.182  2.7830 -1.8987  0.4481
 2723SOL     OW19892   2.007  10.456   4.660 -0.0036  0.4533 -0.2137
 2723SOL    HW119893   2.044  10.492   4.580  2.7278  0.4961  0.9599
 2723SOL    HW219894   2.073  10.473   4.727 -2.5596  1.2955  2.3192
 2724SOL     OW19895   8.191   3.658   9.216  0.0895  0.1572 -0.3326
 2724SOL    HW119896   8.137   3.737   9.220 -2.1022 -1.2780  0.5804
 2724SOL    HW219897   8.144   3.601   9.155  2.6434  0.1906 -2.4809
 2725SOL     OW19898   8.125   0.173   4.487 -0.2210  0.0157 -0.7228
 2725SOL    HW119899   8.078   0.151   4.567  0.1567  0.8825 -0.2487
 2725SOL    HW219900   8.056   0.191   4.423 -0.6191  2.1465  0.1933
 2726SOL     OW19901   4.109   2.068   2.013  0.3880  0.2915 -0.0942
 2726SOL    HW119902   4.128   2.120   2.092 -1.3998  0.0824  0.5126
 2726SOL    HW219903   4.065   2.129   1.954 -1.0722 -0.2967  0.3352
 2727SOL     OW19904   5.086   5.854   4.537  0.1168  0.3625 -0.5906
 2727SOL    HW119905   5.106   5.905   4.458 -0.9544  2.1075  0.1979
 2727SOL    HW219906   5.098   5.916   4.609  0.4815 -1.0254  0.5976
 2728SOL     OW19907   5.454   7.350  11.482 -0.0677  0.6813 -0.0945
 2728SOL    HW119908   5.435   7.380  11.571 -0.9093 -1.1143  0.3779
 2728SOL    HW219909   5.426   7.422  11.425 -1.6538  0.9656  0.9948
 2729SOL     OW19910   5.836   2.889   2.349  0.0911 -0.1646 -0.4638
 2729SOL    HW119911   5.822   2.915   2.258  0.1523  0.3259 -0.3358
 2729SOL    HW219912   5.775   2.817   2.362 -2.9858  2.3112  0.2777
 2730SOL     OW19913   0.595   7.416   6.666  0.2202  0.2174  0.2432
 2730SOL    HW119914   0.611   7.367   6.746  0.6332  1.3518  0.8717
 2730SOL    HW219915   0.502   7.403   6.647  0.0403  0.2173  1.0968
 2731SOL     OW19916   5.744   3.192   5.783  0.6261 -0.8651 -0.3433
 2731SOL    HW119917   5.828   3.174   5.826  0.9516  1.1273 -0.0311
 2731SOL    HW219918   5.699   3.251   5.843 -0.0242 -0.0977 -1.5515
 2732SOL     OW19919   7.759   5.786   4.181  0.3280  0.0959  0.3827
 2732SOL    HW119920   7.731   5.695   4.179 -0.1812  0.2608 -1.6410
 2732SOL    HW219921   7.802   5.796   4.266  1.6633 -2.3924  0.0693
 2733SOL     OW19922  10.456   6.545   0.446  0.8315 -0.5761  0.1146
 2733SOL    HW119923  10.364   6.565   0.430  0.9795 -1.8246 -2.9207
 2733SOL    HW219924  10.500   6.630   0.441  0.0793 -0.2065 -0.3742
 2734SOL     OW19925  11.215   8.188   8.740  0.0756  0.2081 -0.2182
 2734SOL    HW119926  11.182   8.226   8.822  0.0354 -0.8145  0.2463
 2734SOL    HW219927  11.137   8.156   8.695 -0.1363  2.4218 -1.5661
 2735SOL     OW19928   7.168   8.555   9.037 -0.5828  0.4820 -0.3692
 2735SOL    HW119929   7.081   8.576   9.004 -0.3555 -0.0479 -1.3576
 2735SOL    HW219930   7.157   8.470   9.079 -0.4873  0.2794 -0.7515
 2736SOL     OW19931   3.852   2.450   0.832  0.3970  0.2147 -0.3079
 2736SOL    HW119932   3.910   2.513   0.875 -1.3396 -0.7736  3.9161
 2736SOL    HW219933   3.766   2.492   0.832  0.2220  0.0353 -2.8189
 2737SOL     OW19934   8.280  11.952   5.083  0.2707  0.1497  0.4940
 2737SOL    HW119935   8.271  12.012   5.009 -0.9426 -0.2717  0.2843
 2737SOL    HW219936   8.336  11.999   5.145 -0.5953  1.4793  0.3166
 2738SOL     OW19937  10.469   4.715  10.920 -0.5930  0.6921  0.2189
 2738SOL    HW119938  10.442   4.796  10.963 -2.6497  1.0737 -1.6351
 2738SOL    HW219939  10.388   4.676  10.888  0.6908  0.0031 -2.5021
 2739SOL     OW19940   9.267   9.885   0.607  0.0450  0.0781 -0.1581
 2739SOL    HW119941   9.361   9.902   0.609 -0.2840  2.2085 -0.4186
 2739SOL    HW219942   9.230   9.962   0.565 -1.7557 -1.1005 -0.8395
 2740SOL     OW19943   4.809   0.093  10.655  0.5035 -0.4292  0.1330
 2740SOL    HW119944   4.721   0.101  10.617  0.6284 -0.8872 -0.2599
 2740SOL    HW219945   4.867   0.122  10.584  0.6098  1.2319  0.8484
 2741SOL     OW19946   4.163   8.815   8.562 -0.3428 -0.5111 -0.4629
 2741SOL    HW119947   4.224   8.742   8.551 -0.5154 -0.4514 -2.0418
 2741SOL    HW219948   4.190   8.880   8.497 -1.2771  0.0731 -0.2987
 2742SOL     OW19949   6.101   7.488   1.622  0.5783 -0.3390  0.7946
 2742SOL    HW119950   6.073   7.511   1.710 -0.0736 -0.0351  0.5110
 2742SOL    HW219951   6.195   7.469   1.631  0.6951  0.4787  1.4041
 2743SOL     OW19952  10.033   2.316   7.119 -0.2039  0.4320  0.1913
 2743SOL    HW119953  10.085   2.241   7.088 -0.3047  1.2061 -2.0603
 2743SOL    HW219954   9.953   2.277   7.153  0.6879 -0.6034  1.2385
 2744SOL     OW19955   3.524   5.871   9.271 -0.5424 -0.1405  0.1928
 2744SOL    HW119956   3.492   5.927   9.200 -1.1259 -1.3430 -0.5349
 2744SOL    HW219957   3.467   5.890   9.345 -1.7824 -0.8967 -0.5298
 2745SOL     OW19958   7.121  11.712   8.632 -0.5386 -0.6792 -0.5743
 2745SOL    HW119959   7.194  11.752   8.680 -1.3477  0.1303  0.0128
 2745SOL    HW219960   7.109  11.627   8.675  0.1007 -0.8494 -0.7204
 2746SOL     OW19961   2.487   2.914   7.847  0.3720 -0.1349 -0.3559
 2746SOL    HW119962   2.546   2.888   7.777  1.2829  0.2799  0.2405
 2746SOL    HW219963   2.423   2.971   7.805  1.3987  0.7812 -0.7099
 2747SOL     OW19964   7.787   2.494   7.430  0.2946 -0.2798 -0.1505
 2747SOL    HW119965   7.740   2.577   7.432 -1.2283 -1.1031  0.3372
 2747SOL    HW219966   7.786   2.463   7.521 -1.2852 -1.9204 -0.6600
 2748SOL     OW19967   6.607   2.495   8.053 -0.1376 -0.4910 -0.0155
 2748SOL    HW119968   6.644   2.579   8.082 -2.3093  0.8470 -0.8724
 2748SOL    HW219969   6.616   2.497   7.957  0.1321 -1.4455 -0.0235
 2749SOL     OW19970   8.036   2.080  10.373  0.4867  0.1095  0.0333
 2749SOL    HW119971   7.980   2.013  10.332 -0.5995  0.7702  0.3924
 2749SOL    HW219972   7.975   2.136  10.421  1.4367  1.0525  0.1781
 2750SOL     OW19973   0.371   1.078  10.401 -0.2697 -1.1565  0.0188
 2750SOL    HW119974   0.289   1.036  10.373 -1.4943  0.9358  0.2807
 2750SOL    HW219975   0.426   1.076  10.323 -1.0829 -1.3662 -0.5732
 2751SOL     OW19976  10.870   4.347  11.350  0.1286 -0.0510 -0.0951
 2751SOL    HW119977  10.844   4.439  11.344 -1.0387 -0.0788  2.8375
 2751SOL    HW219978  10.797   4.298  11.314  1.3835  0.1080 -3.1014
 2752SOL     OW19979   4.692  10.773   5.590  0.6742 -0.3102  0.0304
 2752SOL    HW119980   4.679  10.858   5.631 -2.2854 -1.1919  1.2407
 2752SOL    HW219981   4.736  10.792   5.508  1.0406  2.2517  0.7385
 2753SOL     OW19982   2.513   2.437  10.761  0.5804 -0.1234 -0.2502
 2753SOL    HW119983   2.567   2.371  10.717  1.8407 -1.0812  2.4544
 2753SOL    HW219984   2.568   2.514  10.767 -0.1168  0.4992 -1.5474
 2754SOL     OW19985  11.248   7.058   5.135  0.0996  0.1574 -0.2972
 2754SOL    HW119986  11.339   7.075   5.161 -0.4233 -0.6606  2.4244
 2754SOL    HW219987  11.199   7.130   5.173 -0.5013  0.1466 -1.0360
 2755SOL     OW19988   3.762   8.414   1.715  0.4680  0.9621 -0.3632
 2755SOL    HW119989   3.706   8.338   1.730 -2.6698  2.8817 -1.3232
 2755SOL    HW219990   3.825   8.384   1.648  0.0412 -1.0424  0.0546
 2756SOL     OW19991   5.412  10.794  11.624  0.0529 -0.3803  0.5785
 2756SOL    HW119992   5.327  10.804  11.667 -0.4593 -1.7037 -0.0556
 2756SOL    HW219993   5.424  10.874  11.573 -0.6782 -0.0559  0.9155
 2757SOL     OW19994   6.172   2.927   1.118 -0.2675  0.0599 -0.1460
 2757SOL    HW119995   6.255   2.880   1.129 -0.5370 -0.5914 -0.8026
 2757SOL    HW219996   6.109   2.877   1.169 -0.8250 -1.0760 -1.8571
 2758SOL     OW19997  11.341   0.057   4.972 -0.0230 -0.2739 -0.3489
 2758SOL    HW119998  11.413   0.028   5.028 -1.1647  0.5515  1.6814
 2758SOL    HW219999  11.283  -0.019   4.967 -0.6763  0.1116  0.9501
 2759SOL     OW20000   5.110   4.016   5.221 -0.2790 -0.0173  0.3501
 2759SOL    HW120001   5.131   3.926   5.244  0.9570 -0.5086 -2.3512
 2759SOL    HW220002   5.159   4.068   5.285 -1.5322 -1.1927  2.3615
 2760SOL     OW20003   4.005   5.139   7.402  0.5418 -0.1536 -0.4113
 2760SOL    HW120004   3.988   5.045   7.394 -0.8770  0.0826 -0.4103
 2760SOL    HW220005   4.021   5.152   7.495  0.2461 -0.3187 -0.3358
 2761SOL     OW20006   3.131   9.255   5.596  0.7487  0.4927  0.2280
 2761SOL    HW120007   3.096   9.214   5.517  0.6819 -0.9229  0.9585
 2761SOL    HW220008   3.208   9.303   5.566  0.3442  0.5194 -0.8016
 2762SOL     OW20009   3.343  11.031   9.153 -0.1976 -0.1640  0.5914
 2762SOL    HW120010   3.412  10.989   9.101 -1.2963 -0.9229 -0.3018
 2762SOL    HW220011   3.381  11.038   9.241  1.4202  0.4717 -0.1133
 2763SOL     OW20012  11.828   1.239   9.918 -0.4089 -0.4940 -0.1509
 2763SOL    HW120013  11.858   1.301   9.984 -2.0614  1.5395 -1.1851
 2763SOL    HW220014  11.890   1.247   9.846 -2.6686  3.1966 -2.0032
 2764SOL     OW20015   7.110  10.243   9.036  0.6536  0.6755 -0.1395
 2764SOL    HW120016   7.082  10.327   9.072 -0.3466  0.9320 -1.4704
 2764SOL    HW220017   7.197  10.260   9.001  0.9170  0.8572  0.5726
 2765SOL     OW20018   3.296   5.730   0.539 -0.2234 -0.4834  0.8564
 2765SOL    HW120019   3.260   5.643   0.520 -0.8761 -0.7249  2.8815
 2765SOL    HW220020   3.384   5.714   0.570 -0.0365 -0.3284  0.4170
 2766SOL     OW20021   9.094  10.392  10.015 -0.1038 -0.4473  0.4458
 2766SOL    HW120022   9.006  10.367   9.985  0.4869 -1.4021 -0.5948
 2766SOL    HW220023   9.084  10.408  10.108 -1.6642  0.8140  0.1055
 2767SOL     OW20024  10.155   2.782   5.764 -0.4410  0.4427 -0.3440
 2767SOL    HW120025  10.061   2.770   5.780 -0.5043 -1.3514 -1.7769
 2767SOL    HW220026  10.183   2.699   5.724  1.5008  1.3991 -1.0607
 2768SOL     OW20027  10.368   6.991   7.792 -0.4592 -0.2960 -0.1646
 2768SOL    HW120028  10.306   6.980   7.719  0.3617  2.2074 -1.3604
 2768SOL    HW220029  10.427   6.916   7.784 -1.7241 -1.2730 -0.6706
 2769SOL     OW20030  10.696   1.910  11.008 -0.1777  0.5203  0.3447
 2769SOL    HW120031  10.729   1.839  11.062 -0.2182  0.7742  0.7024
 2769SOL    HW220032  10.761   1.920  10.938 -0.5970 -0.4449 -0.2061
 2770SOL     OW20033   6.373   5.410   2.663  0.3621 -0.0795  0.2353
 2770SOL    HW120034   6.422   5.386   2.742  0.5160 -0.3756  0.0507
 2770SOL    HW220035   6.297   5.352   2.664 -0.2254  0.6820  0.7582
 2771SOL     OW20036  10.518   1.962   3.028 -0.1291  0.4199 -0.2179
 2771SOL    HW120037  10.472   2.029   2.977  0.7871 -0.4505 -2.3363
 2771SOL    HW220038  10.610   1.973   3.003  0.0631 -1.4253 -0.4197
 2772SOL     OW20039   5.463   4.899   9.819  0.0471  0.0986  0.8650
 2772SOL    HW120040   5.429   4.970   9.872 -0.8175 -0.1358  0.6409
 2772SOL    HW220041   5.464   4.933   9.729  1.4465  0.4742  1.0056
 2773SOL     OW20042   9.512  10.051   7.336 -0.1677 -0.0258  0.1966
 2773SOL    HW120043   9.584  10.015   7.285  0.1393  0.7311  0.0825
 2773SOL    HW220044   9.439  10.058   7.274  0.3014  1.1992 -0.2362
 2774SOL     OW20045  10.049   5.756   0.440 -0.4524  0.1587 -0.3259
 2774SOL    HW120046  10.018   5.737   0.528 -0.2225  0.5415 -0.1581
 2774SOL    HW220047   9.979   5.809   0.401 -0.3419  0.3975 -0.2034
 2775SOL     OW20048   3.119   9.076   1.381  0.0428 -0.2093  0.0961
 2775SOL    HW120049   3.038   9.064   1.331 -0.1087 -1.9302  0.6819
 2775SOL    HW220050   3.107   9.159   1.427 -0.9543  0.0648 -0.6172
 2776SOL     OW20051   2.751   3.399   2.866 -0.3571  0.0996  0.9482
 2776SOL    HW120052   2.772   3.493   2.869 -1.8874  0.4636  0.9453
 2776SOL    HW220053   2.678   3.389   2.927 -1.3204 -0.7931 -0.3169
 2777SOL     OW20054   9.705   5.650   8.926 -0.4223  0.0388  0.7736
 2777SOL    HW120055   9.735   5.580   8.983 -1.1682  0.9342  2.3178
 2777SOL    HW220056   9.779   5.666   8.867  1.0858  0.2911  2.6466
 2778SOL     OW20057   9.663   1.233   4.366 -0.6493  0.0208 -0.0022
 2778SOL    HW120058   9.637   1.144   4.388  0.4513  0.0440  1.5629
 2778SOL    HW220059   9.759   1.232   4.368 -0.5965  0.9799 -1.0669
 2779SOL     OW20060   4.812   8.281   1.911  0.2698  0.3028 -0.0406
 2779SOL    HW120061   4.818   8.251   2.002 -0.5267  0.2411 -0.0010
 2779SOL    HW220062   4.856   8.366   1.911 -1.6732  1.3961  0.9403
 2780SOL     OW20063   1.425  11.355   8.496  0.0708 -0.0786 -0.3843
 2780SOL    HW120064   1.364  11.299   8.448 -0.9483  1.3189 -0.8135
 2780SOL    HW220065   1.415  11.441   8.455  1.1190  0.5645  0.6481
 2781SOL     OW20066   2.465   4.277  11.510 -0.0927 -0.3332  0.1875
 2781SOL    HW120067   2.408   4.351  11.488 -1.1537 -1.7652 -2.3113
 2781SOL    HW220068   2.468   4.225  11.430  3.9075 -0.9557  0.5732
 2782SOL     OW20069   3.634   0.499   7.589 -0.5951 -0.3083 -0.6507
 2782SOL    HW120070   3.703   0.501   7.655 -0.5669  1.6366 -0.7023
 2782SOL    HW220071   3.568   0.440   7.625  1.0315 -2.1937 -0.5807
 2783SOL     OW20072   1.982   1.955   6.590 -0.4613 -0.1675 -0.0103
 2783SOL    HW120073   1.976   1.862   6.568 -1.0607 -0.0753 -0.2587
 2783SOL    HW220074   1.923   1.965   6.665  0.3961 -0.1806  0.6924
 2784SOL     OW20075   0.530  11.144   2.407  0.0551 -0.3082 -0.0667
 2784SOL    HW120076   0.595  11.102   2.463 -0.1184 -1.6100 -0.8189
 2784SOL    HW220077   0.558  11.235   2.402  0.2671 -0.2294  1.8545
 2785SOL     OW20078   7.658  10.261   0.117  0.1793 -0.2678  0.0687
 2785SOL    HW120079   7.750  10.243   0.098  0.2313  1.1653 -1.1621
 2785SOL    HW220080   7.660  10.342   0.167 -0.3014 -1.4442  2.1099
 2786SOL     OW20081   2.040   9.090  10.163 -0.2313 -0.0911 -0.1819
 2786SOL    HW120082   2.106   9.080  10.094 -1.4762 -1.1239 -1.2838
 2786SOL    HW220083   2.082   9.144  10.229  1.8125 -0.9299 -0.7163
 2787SOL     OW20084   3.079   3.871  10.865 -0.1140  0.1767  0.3771
 2787SOL    HW120085   2.989   3.858  10.836  0.1097 -0.3428 -0.0954
 2787SOL    HW220086   3.111   3.945  10.813 -0.7413  1.3852  1.6339
 2788SOL     OW20087  10.628   1.989   6.830  0.1355  0.1517 -0.1211
 2788SOL    HW120088  10.577   2.064   6.800 -0.1706  1.9974  4.2610
 2788SOL    HW220089  10.717   2.007   6.799 -0.2145  1.6128 -0.3447
 2789SOL     OW20090   7.250   3.328   7.600  0.5917 -0.2353  0.2795
 2789SOL    HW120091   7.252   3.245   7.647  2.6210 -0.8139 -0.6927
 2789SOL    HW220092   7.236   3.303   7.508 -3.8496  0.8883  0.4318
 2790SOL     OW20093   0.077   3.851   2.383  0.3505 -0.2568  0.3231
 2790SOL    HW120094   0.122   3.912   2.324  1.0133 -1.6329 -0.6510
 2790SOL    HW220095   0.030   3.791   2.325 -0.3809 -0.6095  1.2583
 2791SOL     OW20096   4.167   5.404   8.202 -0.1260  0.5732 -0.3962
 2791SOL    HW120097   4.158   5.417   8.297 -0.8668  0.8083 -0.4915
 2791SOL    HW220098   4.261   5.410   8.186  0.1377 -0.7530  0.4985
 2792SOL     OW20099   8.275   9.590  11.884  0.0859 -0.0540 -0.2238
 2792SOL    HW120100   8.221   9.659  11.847  0.9472  1.2681  0.9067
 2792SOL    HW220101   8.243   9.579  11.973  0.6333 -0.3896 -0.0623
 2793SOL     OW20102   0.258   1.607   5.497  0.7005 -0.1232 -0.1579
 2793SOL    HW120103   0.351   1.586   5.493  0.9445  0.4401  1.4452
 2793SOL    HW220104   0.233   1.623   5.407  1.4019 -3.2171 -1.0148
 2794SOL     OW20105  11.790   7.876  11.279 -0.3294 -0.0021 -0.2466
 2794SOL    HW120106  11.830   7.945  11.226  1.8191 -0.8904  0.1450
 2794SOL    HW220107  11.753   7.815  11.215 -0.0515  0.2451 -0.6498
 2795SOL     OW20108   5.803  10.426   1.440 -0.1352 -0.3190  0.1133
 2795SOL    HW120109   5.747  10.502   1.423  1.7022  1.4684  1.5516
 2795SOL    HW220110   5.808  10.421   1.535 -0.2410 -2.3294  0.0498
 2796SOL     OW20111   4.800  11.780  10.691  0.2621  0.0005 -0.3126
 2796SOL    HW120112   4.786  11.874  10.679 -2.6805 -0.4755 -1.4451
 2796SOL    HW220113   4.829  11.771  10.782 -0.9791  1.8819  0.3145
 2797SOL     OW20114   4.535   7.895   9.775 -0.2459 -0.0851  0.5495
 2797SOL    HW120115   4.525   7.927   9.685  1.4274 -0.7126  0.0935
 2797SOL    HW220116   4.557   7.973   9.826  4.4701 -0.2913 -0.6608
 2798SOL     OW20117   2.680   2.357  11.931  0.1513 -0.3100  0.0821
 2798SOL    HW120118   2.613   2.425  11.940  0.8673  0.4278 -0.0478
 2798SOL    HW220119   2.646   2.298  11.865 -0.1725  0.3067 -0.3053
 2799SOL     OW20120   4.439   8.900   9.601  0.5714 -0.0178 -0.1578
 2799SOL    HW120121   4.473   8.872   9.686  0.0178 -0.9918 -0.2374
 2799SOL    HW220122   4.462   8.829   9.541 -0.3960 -0.0730 -0.4906
 2800SOL     OW20123  10.022   2.823   1.562 -0.5713 -0.1438 -0.1059
 2800SOL    HW120124  10.085   2.848   1.494 -2.2569 -0.7813 -1.9717
 2800SOL    HW220125  10.008   2.904   1.611  0.3272  0.4487 -0.7813
 2801SOL     OW20126   3.106   9.610   1.461  0.0772 -0.2954  0.2692
 2801SOL    HW120127   3.035   9.671   1.477 -0.3118  0.1397 -2.5728
 2801SOL    HW220128   3.181   9.666   1.440  0.6278 -0.7790  0.9186
 2802SOL     OW20129   8.421   5.607   9.936  0.3048 -0.2065  0.0308
 2802SOL    HW120130   8.499   5.628   9.884 -0.3864 -0.0729 -0.9778
 2802SOL    HW220131   8.351   5.656   9.894 -0.0641  0.9288  1.8810
 2803SOL     OW20132   2.854  11.753  10.289  0.2324  0.4498  0.1384
 2803SOL    HW120133   2.766  11.760  10.252 -0.6699  0.4315  2.1646
 2803SOL    HW220134   2.846  11.790  10.377  2.5345  1.5479 -0.0374
 2804SOL     OW20135   3.202   3.172   7.027 -0.4766  0.4218 -0.0488
 2804SOL    HW120136   3.281   3.159   7.078  0.3603 -0.8388 -1.5582
 2804SOL    HW220137   3.188   3.266   7.027  0.6905  0.6166  0.7147
 2805SOL     OW20138   3.426   7.015  11.477 -0.4343 -0.1868 -0.3748
 2805SOL    HW120139   3.448   7.108  11.468 -1.4491 -0.0694 -2.4201
 2805SOL    HW220140   3.359   7.000  11.410 -1.6600 -1.9931  1.1407
 2806SOL     OW20141   7.701   6.462   4.774  0.1633  0.0190  0.0629
 2806SOL    HW120142   7.796   6.452   4.773  0.3633  0.0643  3.5789
 2806SOL    HW220143   7.668   6.374   4.793 -0.3418  0.2939  0.5037
 2807SOL     OW20144   4.141   9.715   8.225 -0.0912  0.0912  0.1461
 2807SOL    HW120145   4.193   9.740   8.302 -2.9442  1.2621  1.8394
 2807SOL    HW220146   4.101   9.632   8.250  0.2185 -0.3388 -0.7681
 2808SOL     OW20147   8.976   1.352   9.985 -0.4922  0.6466  0.2182
 2808SOL    HW120148   8.952   1.261   9.968 -1.2668  0.7856  0.4953
 2808SOL    HW220149   8.893   1.400   9.977 -0.0408  1.3724 -0.2353
 2809SOL     OW20150   0.408   5.381   3.269  0.8829 -0.2199  0.2106
 2809SOL    HW120151   0.456   5.318   3.215  1.2118 -1.0616  1.4425
 2809SOL    HW220152   0.394   5.336   3.352 -0.2410  0.7804  0.5947
 2810SOL     OW20153   6.605   5.224   6.484 -0.4824 -0.0880 -0.3004
 2810SOL    HW120154   6.656   5.151   6.519 -1.9205 -1.4454 -0.8913
 2810SOL    HW220155   6.668   5.274   6.432  0.7108 -0.4474  0.7393
 2811SOL     OW20156  10.815   6.087   2.292  0.6040 -0.6042 -0.1612
 2811SOL    HW120157  10.893   6.081   2.237 -0.1586 -0.4591 -1.2699
 2811SOL    HW220158  10.759   6.151   2.248  0.9729  1.3673  2.0278
 2812SOL     OW20159  11.748   1.387   5.636 -0.1401 -0.5171 -0.1177
 2812SOL    HW120160  11.665   1.427   5.663  0.2519  0.0775  0.2258
 2812SOL    HW220161  11.798   1.378   5.717  0.1382 -0.8574 -0.3237
 2813SOL     OW20162   4.660   0.344  10.775  0.0419  0.9898 -0.2877
 2813SOL    HW120163   4.755   0.328  10.775 -0.1436 -0.3110 -0.9283
 2813SOL    HW220164   4.629   0.308  10.858  0.0309  0.8543 -0.3508
 2814SOL     OW20165   6.896   5.323   6.934 -0.3974  0.6433 -0.0304
 2814SOL    HW120166   6.955   5.250   6.915 -1.0673  0.6600 -2.6938
 2814SOL    HW220167   6.864   5.307   7.022  1.2837 -0.9873  0.3352
 2815SOL     OW20168   8.147   0.778   0.303  0.2517  0.2433 -0.0157
 2815SOL    HW120169   8.233   0.736   0.306  0.7454  1.1331 -0.8129
 2815SOL    HW220170   8.146   0.824   0.219 -0.5198  1.2614  0.5258
 2816SOL     OW20171   2.277   2.969  11.221  0.2947 -0.2368 -0.0814
 2816SOL    HW120172   2.288   2.892  11.165 -2.4015 -1.2125  0.5982
 2816SOL    HW220173   2.260   3.041  11.159  2.5044 -0.1756 -0.6985
 2817SOL     OW20174   1.252   4.484   4.633  0.1763  0.2259  0.0336
 2817SOL    HW120175   1.247   4.440   4.718 -1.5576 -1.6775 -0.9485
 2817SOL    HW220176   1.166   4.524   4.621  0.1560 -0.0969 -1.0706
 2818SOL     OW20177   2.487   1.954   2.229 -0.1956 -0.4363 -0.3646
 2818SOL    HW120178   2.493   2.049   2.238  2.1607 -0.3532 -1.9657
 2818SOL    HW220179   2.576   1.922   2.241 -0.8361 -2.4042 -0.4137
 2819SOL     OW20180   8.217   7.575   1.042 -0.5641  0.3693 -0.1352
 2819SOL    HW120181   8.155   7.511   1.078 -0.4725 -0.6673 -1.7345
 2819SOL    HW220182   8.303   7.535   1.056 -0.4678  0.4076 -0.6066
 2820SOL     OW20183   0.025   9.885   9.803 -0.4447  0.5019  0.0533
 2820SOL    HW120184  -0.002   9.921   9.888  0.4496 -0.0668  0.5919
 2820SOL    HW220185  -0.058   9.869   9.757 -0.9906  0.0225  1.1518
 2821SOL     OW20186   5.952   4.469   5.658 -0.5348 -0.3136  0.1453
 2821SOL    HW120187   6.030   4.448   5.607  0.9203  0.6614  1.8553
 2821SOL    HW220188   5.911   4.384   5.674 -1.0519 -0.6548 -2.5195
 2822SOL     OW20189  11.912   1.212   3.548 -0.6783  0.0689 -0.2408
 2822SOL    HW120190  11.958   1.295   3.557 -0.1360 -0.1274 -1.0369
 2822SOL    HW220191  11.868   1.199   3.632 -0.5141  1.0013  0.0004
 2823SOL     OW20192   7.319   2.889   3.069  0.2034  0.2929  0.0460
 2823SOL    HW120193   7.338   2.981   3.087  0.8715  0.3507 -0.8688
 2823SOL    HW220194   7.316   2.884   2.974 -0.7394 -0.4649  0.1053
 2824SOL     OW20195  11.934   6.224   8.617  0.2379 -0.3546  0.0904
 2824SOL    HW120196  11.898   6.180   8.540 -1.0887  0.1204  0.4125
 2824SOL    HW220197  11.864   6.220   8.682  0.6441  0.8858  0.6386
 2825SOL     OW20198   7.119   8.403   3.040  0.0222  0.6916  0.6611
 2825SOL    HW120199   7.051   8.355   2.992 -1.1505  1.0054  1.9381
 2825SOL    HW220200   7.119   8.490   3.000  0.3414  0.4084  0.0351
 2826SOL     OW20201   9.027   8.728  11.267 -0.2858  0.1317 -0.1232
 2826SOL    HW120202   8.995   8.638  11.265  1.1868 -0.4555  1.0119
 2826SOL    HW220203   8.948   8.782  11.275 -1.1709 -1.0516 -0.6798
 2827SOL     OW20204   0.591   2.870   6.846 -0.1410 -0.8874 -0.2578
 2827SOL    HW120205   0.574   2.958   6.880 -2.1457 -1.2362 -0.2218
 2827SOL    HW220206   0.686   2.864   6.842  0.0914  1.9279 -1.9058
 2828SOL     OW20207   6.298   7.352   4.508 -0.1564  0.2973  0.0767
 2828SOL    HW120208   6.324   7.427   4.453 -0.0166  0.0240 -0.2314
 2828SOL    HW220209   6.369   7.342   4.570 -0.3514  0.6586  0.3628
 2829SOL     OW20210   1.453   5.212   1.848  0.2013  0.0240  0.2493
 2829SOL    HW120211   1.533   5.224   1.900  0.0172 -1.5493  0.9624
 2829SOL    HW220212   1.384   5.198   1.912 -0.2013 -1.0066 -0.3718
 2830SOL     OW20213   4.844   3.360   9.698  0.2908  0.3128  0.2515
 2830SOL    HW120214   4.823   3.449   9.726  0.5284  0.3958  0.1651
 2830SOL    HW220215   4.903   3.326   9.765  1.0993  0.6177 -0.2949
 2831SOL     OW20216   3.280   5.744   0.215  0.2843  0.8915 -0.0141
 2831SOL    HW120217   3.318   5.821   0.173 -1.0389  1.3134 -0.4655
 2831SOL    HW220218   3.301   5.754   0.308  0.8067  1.3762 -0.1777
 2832SOL     OW20219   9.566   5.069   1.267  0.0687  0.8166  0.3703
 2832SOL    HW120220   9.648   5.032   1.300  1.0412  1.5815 -1.0474
 2832SOL    HW220221   9.582   5.080   1.173 -1.6403  1.0671  0.0890
 2833SOL     OW20222  11.437   0.328   4.448 -0.0170 -0.2800 -0.2640
 2833SOL    HW120223  11.424   0.261   4.515 -0.0387 -0.5066 -0.4932
 2833SOL    HW220224  11.408   0.409   4.489  0.3547 -0.3474  0.1443
 2834SOL     OW20225   8.978  11.050   5.735 -0.7516 -0.0218 -0.3521
 2834SOL    HW120226   8.979  11.047   5.640 -0.4101  0.3558 -0.3636
 2834SOL    HW220227   8.891  11.017   5.760 -0.7993 -0.2208 -0.7880
 2835SOL     OW20228   1.943   1.493   3.513 -0.6110 -0.5597  0.0112
 2835SOL    HW120229   1.983   1.463   3.432 -0.6756  0.1961 -0.3097
 2835SOL    HW220230   1.993   1.451   3.583 -1.3204 -2.2053 -0.4143
 2836SOL     OW20231   2.618   7.032   6.329  0.2870 -0.0745  0.2867
 2836SOL    HW120232   2.673   7.051   6.405  0.4645  0.2737  0.0788
 2836SOL    HW220233   2.678   6.993   6.265  0.6608  1.6632 -0.5066
 2837SOL     OW20234   5.570   8.912   3.397  0.0935 -0.0160 -0.1285
 2837SOL    HW120235   5.645   8.954   3.440 -0.6843  2.3596 -0.8963
 2837SOL    HW220236   5.602   8.888   3.311 -0.1204  1.5770 -0.6929
 2838SOL     OW20237   3.310   6.756   0.548  0.5886 -0.1095 -0.3509
 2838SOL    HW120238   3.243   6.796   0.493  1.3323  0.8293 -0.6095
 2838SOL    HW220239   3.289   6.785   0.637  1.7306  1.8404 -0.6522
 2839SOL     OW20240   1.631   4.133   5.939 -0.5581 -0.2132  0.1853
 2839SOL    HW120241   1.703   4.136   5.876 -0.3571 -0.1023  0.4211
 2839SOL    HW220242   1.586   4.051   5.920  0.1508 -0.7108  0.6107
 2840SOL     OW20243   2.366   4.327   1.329 -0.0695 -0.1905 -0.3284
 2840SOL    HW120244   2.386   4.406   1.278 -0.1940  0.8381  1.1539
 2840SOL    HW220245   2.367   4.357   1.420  1.3965 -2.2136  0.3943
 2841SOL     OW20246   5.992   8.135  11.430  0.9052 -0.5523  0.5014
 2841SOL    HW120247   5.913   8.117  11.480  1.2519 -1.6634  0.6764
 2841SOL    HW220248   5.963   8.191  11.358  0.0847 -0.4177  0.9267
 2842SOL     OW20249   3.600   2.585   0.734  0.2685 -0.1032  0.2078
 2842SOL    HW120250   3.544   2.638   0.678  2.1549  1.9778  0.1716
 2842SOL    HW220251   3.632   2.515   0.676  1.7377  1.6851 -1.2480
 2843SOL     OW20252   9.240   5.938   4.256  0.2223  0.0334  0.3883
 2843SOL    HW120253   9.249   5.845   4.234  1.8092  0.4848 -1.0711
 2843SOL    HW220254   9.147   5.956   4.243  0.2832 -0.8364 -1.6301
 2844SOL     OW20255   1.294   1.275   4.630 -0.4826  0.0964  0.2464
 2844SOL    HW120256   1.289   1.184   4.601  0.5509  0.2056 -0.3509
 2844SOL    HW220257   1.209   1.293   4.669 -0.8642 -0.9810 -0.0510
 2845SOL     OW20258   0.716   6.517   6.618 -0.5901  0.4704  0.7357
 2845SOL    HW120259   0.771   6.492   6.692  0.5457  0.6736 -0.0220
 2845SOL    HW220260   0.766   6.584   6.572 -0.9574 -0.1543 -0.6207
 2846SOL     OW20261  11.141   1.063   8.139  0.2473 -0.5273 -0.4493
 2846SOL    HW120262  11.113   0.989   8.085  1.4816 -0.7532 -0.8034
 2846SOL    HW220263  11.236   1.054   8.145  0.6211  1.7499 -1.6108
 2847SOL     OW20264   5.049   0.609   8.595  0.1526  0.1122 -1.0461
 2847SOL    HW120265   5.021   0.567   8.676  1.0536  1.8602  0.2592
 2847SOL    HW220266   5.124   0.557   8.565  0.1655 -0.2334 -0.4215
 2848SOL     OW20267  11.487   6.888  10.040 -1.1314 -0.0830  0.1375
 2848SOL    HW120268  11.515   6.814  10.095 -1.4559 -0.6599 -0.4661
 2848SOL    HW220269  11.411   6.925  10.086 -0.4239  0.4612  0.9169
 2849SOL     OW20270  10.895  11.914   6.513  0.3263 -0.0097 -0.2966
 2849SOL    HW120271  10.889  11.832   6.463 -0.1836 -0.0887 -0.1127
 2849SOL    HW220272  10.900  11.886   6.604 -2.0899  0.1708 -0.0362
 2850SOL     OW20273   9.218   2.195   8.610  0.1202  0.5582  0.1444
 2850SOL    HW120274   9.204   2.129   8.678  1.6133  0.0883  0.0475
 2850SOL    HW220275   9.144   2.186   8.551 -0.8658  0.5257  1.3507
 2851SOL     OW20276   8.290   6.283   8.035  0.0659 -0.1181 -0.1739
 2851SOL    HW120277   8.278   6.217   8.103  0.4779  0.3637  0.3859
 2851SOL    HW220278   8.336   6.238   7.964 -3.2382 -1.5165 -1.5854
 2852SOL     OW20279   3.874   3.493   1.989 -0.1464  0.4384  0.4871
 2852SOL    HW120280   3.959   3.451   1.977 -0.3501  0.0627  0.3624
 2852SOL    HW220281   3.811   3.434   1.948 -0.6668 -0.0887  1.9775
 2853SOL     OW20282   6.731   9.582   9.878  0.2345  0.0076  0.0119
 2853SOL    HW120283   6.700   9.495   9.850 -0.0302  0.1835 -0.2518
 2853SOL    HW220284   6.823   9.569   9.900  0.6671 -0.0053 -1.6332
 2854SOL     OW20285   0.146   7.128   6.795  0.3111  0.2162 -0.1491
 2854SOL    HW120286   0.137   7.202   6.855  0.8602  0.0937  0.0878
 2854SOL    HW220287   0.056   7.100   6.779  0.1395  0.4398  0.3840
 2855SOL     OW20288   5.490   5.703   7.458 -0.4737  0.1661 -0.5141
 2855SOL    HW120289   5.488   5.729   7.550 -0.0506 -1.1468 -0.1116
 2855SOL    HW220290   5.530   5.778   7.414  0.7116  0.2322  0.5974
 2856SOL     OW20291   0.161   1.836   9.373 -0.3642  0.2649 -0.0885
 2856SOL    HW120292   0.212   1.916   9.379  1.8266 -0.9122 -1.6908
 2856SOL    HW220293   0.127   1.822   9.462  1.0763  1.7755  0.7476
 2857SOL     OW20294   2.297   5.334   6.775  0.4079  0.4568  0.8538
 2857SOL    HW120295   2.328   5.244   6.767 -1.3440 -0.0345 -2.0918
 2857SOL    HW220296   2.345   5.382   6.706 -1.6806  0.7400 -0.4900
 2858SOL     OW20297   9.692   3.337   8.922 -0.0959 -0.0506  0.1201
 2858SOL    HW120298   9.752   3.340   8.847 -0.5766 -0.7158 -0.3132
 2858SOL    HW220299   9.637   3.415   8.913  1.2128  0.9991  0.9794
 2859SOL     OW20300   2.869   7.301   0.398 -0.3182  0.3488  0.6527
 2859SOL    HW120301   2.868   7.382   0.450 -1.4743 -0.5317  2.0670
 2859SOL    HW220302   2.924   7.241   0.448  1.4615  0.5564 -0.9533
 2860SOL     OW20303   7.154   2.784   2.639  0.2482 -0.1338  0.5323
 2860SOL    HW120304   7.126   2.708   2.587 -0.1517  0.9934 -0.9487
 2860SOL    HW220305   7.081   2.800   2.699 -0.5436  0.2792 -0.5156
 2861SOL     OW20306   3.335   3.975   9.546 -0.0991  0.3879 -0.1335
 2861SOL    HW120307   3.294   3.889   9.548 -1.7567  1.1147 -0.9433
 2861SOL    HW220308   3.395   3.975   9.621 -0.7732 -1.1211  0.4447
 2862SOL     OW20309   9.347   8.307   6.688 -0.0912  0.3730  0.3992
 2862SOL    HW120310   9.442   8.316   6.681  0.4629 -1.9291  2.8110
 2862SOL    HW220311   9.327   8.227   6.640 -1.1808  1.7854 -1.6325
 2863SOL     OW20312  11.855   4.501   7.593  0.4323 -0.0132  0.1027
 2863SOL    HW120313  11.934   4.517   7.644 -0.0158 -1.1583  1.2163
 2863SOL    HW220314  11.800   4.578   7.609  0.9605  0.3810  0.0270
 2864SOL     OW20315   5.059   6.038   4.756  0.0592 -0.0199  0.1005
 2864SOL    HW120316   4.983   5.984   4.779  0.4942 -0.7524 -0.1332
 2864SOL    HW220317   5.098   6.062   4.840 -0.8443  0.9931  0.2533
 2865SOL     OW20318  10.363   3.855   5.890  0.3035  0.3092  0.4035
 2865SOL    HW120319  10.388   3.764   5.907  2.3871  0.7517  0.0189
 2865SOL    HW220320  10.446   3.900   5.873 -0.8513  1.6501 -2.4723
 2866SOL     OW20321   6.517   2.379   1.830 -0.3035 -0.3219 -0.6829
 2866SOL    HW120322   6.512   2.300   1.776 -1.0053 -0.1024 -0.9407
 2866SOL    HW220323   6.604   2.414   1.812 -0.2397 -0.6696 -1.0802
 2867SOL     OW20324   1.867   7.192   4.334  0.1734  0.0025 -0.5774
 2867SOL    HW120325   1.900   7.108   4.302  0.9155 -0.6249  1.6272
 2867SOL    HW220326   1.774   7.192   4.310 -0.2449 -2.2105  0.6891
 2868SOL     OW20327   4.190   4.351   2.642  0.4126 -0.0383  0.1438
 2868SOL    HW120328   4.156   4.280   2.587  1.3277 -0.6871  0.3902
 2868SOL    HW220329   4.216   4.308   2.723 -0.5063  0.8468  0.9251
 2869SOL     OW20330   4.496   0.372   6.996  0.2423 -0.5133  0.6549
 2869SOL    HW120331   4.483   0.394   6.903  1.7490 -3.3965 -0.3742
 2869SOL    HW220332   4.486   0.277   6.999  0.5016 -0.5222  3.4551
 2870SOL     OW20333   5.416   1.513   9.728  0.0809 -0.0981 -0.3922
 2870SOL    HW120334   5.499   1.552   9.700  0.4541 -0.9450 -0.5002
 2870SOL    HW220335   5.401   1.442   9.666 -2.1663  1.7511 -2.1175
 2871SOL     OW20336   2.757   6.166  10.164  0.2032 -0.7362 -0.2407
 2871SOL    HW120337   2.764   6.182  10.258 -1.0665 -1.2859 -0.0440
 2871SOL    HW220338   2.690   6.098  10.155 -0.9663  0.5371 -1.6456
 2872SOL     OW20339   7.976   2.387  11.797 -0.2041  0.1664  0.0921
 2872SOL    HW120340   8.043   2.410  11.733  0.3155  1.2983  1.0121
 2872SOL    HW220341   8.023   2.378  11.879 -1.0036 -0.2949  0.5149
 2873SOL     OW20342   5.656   4.532   4.081 -0.4089  0.3606 -0.3319
 2873SOL    HW120343   5.633   4.515   4.172  2.7426 -0.5544  0.4141
 2873SOL    HW220344   5.639   4.449   4.036 -0.8425  0.4584 -0.3588
 2874SOL     OW20345   3.533   2.100  11.673 -0.2574 -0.2505 -0.1706
 2874SOL    HW120346   3.535   2.084  11.768  0.0383 -3.9534 -0.6421
 2874SOL    HW220347   3.452   2.059  11.644  0.1176 -0.0080 -1.6312
 2875SOL     OW20348   5.994   3.772   7.968  0.0890  0.0632 -0.1561
 2875SOL    HW120349   5.975   3.754   7.876  0.0102 -0.3867 -0.0542
 2875SOL    HW220350   6.085   3.743   7.980  0.2410  0.5140 -0.1935
 2876SOL     OW20351  10.552   2.006   1.289  0.2802  0.2846  0.3951
 2876SOL    HW120352  10.579   1.970   1.204 -0.2927 -0.0213  0.3437
 2876SOL    HW220353  10.635   2.026   1.333  0.5935  1.7877 -0.7913
 2877SOL     OW20354   4.632   7.952   3.869 -0.1060 -0.0537  0.8517
 2877SOL    HW120355   4.543   7.990   3.869  0.1223  0.4959  0.8287
 2877SOL    HW220356   4.642   7.917   3.781  0.1705  1.0485  0.4212
 2878SOL     OW20357   5.143   5.528   7.687 -0.2150  0.0151 -0.7186
 2878SOL    HW120358   5.198   5.467   7.735 -0.6033  1.0792  1.1479
 2878SOL    HW220359   5.190   5.543   7.605  1.3553 -0.4967  0.0577
 2879SOL     OW20360   9.223   1.033   1.413 -0.2035  0.3556 -0.0149
 2879SOL    HW120361   9.287   1.055   1.481  0.2012  0.1600 -0.3244
 2879SOL    HW220362   9.183   1.117   1.390 -0.5431  0.3810  0.6591
 2880SOL     OW20363   6.409   0.693   0.360  0.1693 -0.3044  0.6807
 2880SOL    HW120364   6.399   0.700   0.455 -1.6617 -1.5114  0.6182
 2880SOL    HW220365   6.408   0.599   0.343  0.0477 -0.0887 -0.5751
 2881SOL     OW20366  10.620  10.793   2.847 -0.3594  0.4257 -0.1862
 2881SOL    HW120367  10.633  10.848   2.925 -1.4660  0.6157 -0.1158
 2881SOL    HW220368  10.610  10.855   2.776  1.8970  0.2447 -0.7448
 2882SOL     OW20369   4.496   0.397   7.861 -0.3660 -0.3796  0.4992
 2882SOL    HW120370   4.469   0.488   7.873  1.4122  0.7595 -2.8280
 2882SOL    HW220371   4.426   0.357   7.810 -0.7655 -0.6696  1.2600
 2883SOL     OW20372   9.604   7.851   1.865 -0.0223  0.3985  0.3116
 2883SOL    HW120373   9.617   7.787   1.796 -0.7137 -1.4488  1.7987
 2883SOL    HW220374   9.542   7.914   1.828  1.3116  0.7369 -1.4723
 2884SOL     OW20375   4.644   6.222   6.551 -0.0204 -0.2833  0.1139
 2884SOL    HW120376   4.614   6.311   6.572  0.8619  0.5458 -1.8832
 2884SOL    HW220377   4.564   6.175   6.526 -0.7375 -0.6024  2.6265
 2885SOL     OW20378  10.040   8.896   9.636  0.0038 -0.0975  0.0005
 2885SOL    HW120379  10.131   8.917   9.614  0.9731 -3.2411  0.4489
 2885SOL    HW220380   9.995   8.890   9.552  1.2960 -2.4681 -0.6093
 2886SOL     OW20381   4.219   7.375   3.826 -0.5469  0.1587 -0.1469
 2886SOL    HW120382   4.177   7.373   3.740 -0.2150  1.5042 -0.3664
 2886SOL    HW220383   4.251   7.465   3.835 -0.0144 -0.1331  1.1181
 2887SOL     OW20384   2.984   8.280   9.514  0.3869  0.1335 -0.5610
 2887SOL    HW120385   3.011   8.238   9.433  2.2122  0.1624 -0.0157
 2887SOL    HW220386   3.018   8.369   9.507  1.6116 -0.2005  0.6930
 2888SOL     OW20387   8.708  11.937   6.359 -0.1226 -0.2796  0.4120
 2888SOL    HW120388   8.719  11.844   6.338 -0.7727 -0.6384  1.5550
 2888SOL    HW220389   8.797  11.971   6.364  0.1555 -1.0081  0.6317
 2889SOL     OW20390  11.798   6.341  11.699  0.3462  0.1569 -0.7700
 2889SOL    HW120391  11.810   6.436  11.695 -0.8049  0.3372 -0.3166
 2889SOL    HW220392  11.848   6.315  11.777 -0.2941  0.5730 -0.2010
 2890SOL     OW20393   3.894   9.120   0.807  0.1398 -0.1950 -0.5219
 2890SOL    HW120394   3.913   9.208   0.838  0.7290 -0.0961 -1.1604
 2890SOL    HW220395   3.823   9.131   0.744  0.4193 -0.1397 -0.8281
 2891SOL     OW20396  10.998   1.103  10.401  1.1134  0.9382 -0.8446
 2891SOL    HW120397  11.020   1.027  10.349  0.1602 -0.0556  0.1403
 2891SOL    HW220398  10.963   1.167  10.338 -0.6356 -0.4682 -1.3759
 2892SOL     OW20399   6.096   7.534   6.572  0.7333  0.3504 -0.0915
 2892SOL    HW120400   6.157   7.501   6.638 -0.6559 -2.4238 -0.0282
 2892SOL    HW220401   6.065   7.617   6.607  0.9089 -0.4838  2.2199
 2893SOL     OW20402   9.484  11.478   3.069 -0.0792 -0.2251 -0.3267
 2893SOL    HW120403   9.564  11.434   3.096 -1.0878 -1.0615  1.4461
 2893SOL    HW220404   9.514  11.558   3.026  1.6971 -0.5605  0.2334
 2894SOL     OW20405   0.550   3.893   0.847  0.2075  0.7279 -0.0274
 2894SOL    HW120406   0.597   3.900   0.764 -0.1997  0.5140 -0.2799
 2894SOL    HW220407   0.506   3.808   0.843 -0.5069  1.0842  0.0342
 2895SOL     OW20408  11.164   5.613   8.183  0.1902  0.6233 -0.1943
 2895SOL    HW120409  11.100   5.542   8.173 -0.2889  1.1010 -0.6288
 2895SOL    HW220410  11.239   5.572   8.226  0.0574 -0.2261 -0.7418
 2896SOL     OW20411   6.786   3.621   7.432  0.2338  0.5228  0.0635
 2896SOL    HW120412   6.815   3.530   7.445 -0.3520  0.0933 -1.3627
 2896SOL    HW220413   6.865   3.667   7.404  0.3288  0.2035 -0.2074
 2897SOL     OW20414   4.114   1.387  10.490  0.5419 -0.1063 -0.4001
 2897SOL    HW120415   4.153   1.350  10.569 -1.4170 -1.4997 -0.0184
 2897SOL    HW220416   4.188   1.418  10.438  1.9027  0.3089  1.7038
 2898SOL     OW20417   3.429   5.376   6.125  0.2560  0.0438  0.0328
 2898SOL    HW120418   3.366   5.402   6.057  1.2636  0.3748 -0.7997
 2898SOL    HW220419   3.411   5.436   6.198 -1.8271 -1.2763  0.6785
 2899SOL     OW20420   4.406   8.985  10.478  0.3168 -0.0183  0.1512
 2899SOL    HW120421   4.384   8.892  10.480 -1.1934  0.3201  2.4420
 2899SOL    HW220422   4.492   8.990  10.520  0.0329 -0.2838  0.7567
 2900SOL     OW20423   0.664   9.667   3.643 -0.2594  0.5045  0.0045
 2900SOL    HW120424   0.592   9.629   3.591  0.5596 -0.1542 -0.6779
 2900SOL    HW220425   0.692   9.596   3.700 -1.2432  1.2684  1.4893
 2901SOL     OW20426   6.211   3.799  10.846  0.7900  0.2637  0.1577
 2901SOL    HW120427   6.211   3.856  10.769 -3.5832 -0.6492 -0.7896
 2901SOL    HW220428   6.273   3.729  10.824 -0.1599  0.1465 -2.5002
 2902SOL     OW20429   7.046   2.479   7.484  0.2881  0.1392 -0.2038
 2902SOL    HW120430   7.117   2.541   7.472 -0.0175  0.3068 -1.2026
 2902SOL    HW220431   7.030   2.443   7.397  0.0708 -0.9152  0.2514
 2903SOL     OW20432   9.670   7.228   0.772  0.3456  0.2246 -0.3029
 2903SOL    HW120433   9.730   7.232   0.847 -1.3538  2.3159  1.0434
 2903SOL    HW220434   9.610   7.157   0.794 -0.2893  0.9833  0.4551
 2904SOL     OW20435   6.732   7.815   9.146 -0.0811 -0.6008  0.3059
 2904SOL    HW120436   6.825   7.798   9.162 -0.2054 -1.4892  0.1452
 2904SOL    HW220437   6.727   7.834   9.053 -0.2107 -1.6915  0.0842
 2905SOL     OW20438   3.922   2.035   3.468 -0.4560 -0.4228  0.5952
 2905SOL    HW120439   4.005   2.026   3.515  0.0217  0.4097 -0.0601
 2905SOL    HW220440   3.869   2.090   3.525 -0.1568 -0.0558  0.5265
 2906SOL     OW20441  11.429   6.074   6.549  0.1919  0.2882 -0.2183
 2906SOL    HW120442  11.355   6.015   6.551  0.2545  0.2227  1.1451
 2906SOL    HW220443  11.410   6.135   6.477 -0.9083 -0.0582 -0.2303
 2907SOL     OW20444   7.856   7.763   4.248  0.3202 -0.0444  0.5029
 2907SOL    HW120445   7.910   7.749   4.170  0.3631 -0.3884  0.5935
 2907SOL    HW220446   7.766   7.761   4.215  0.3657  1.5604  0.1826
 2908SOL     OW20447   8.944  11.219  11.199 -0.2760  0.3645  0.1808
 2908SOL    HW120448   8.992  11.288  11.246 -0.0536 -0.0727  0.6038
 2908SOL    HW220449   8.904  11.166  11.269  0.1321 -0.3446 -0.1183
 2909SOL     OW20450   0.704   7.578   9.875  0.0074  0.5348  0.6392
 2909SOL    HW120451   0.746   7.495   9.897 -0.4211  0.6801  2.1246
 2909SOL    HW220452   0.774   7.632   9.840 -0.0369 -1.0168 -2.1580
 2910SOL     OW20453  11.746   1.458   8.595 -0.1553  0.2102  0.3521
 2910SOL    HW120454  11.677   1.463   8.661  0.6255 -0.9558  1.2945
 2910SOL    HW220455  11.827   1.479   8.642  0.7661 -3.0166  0.4460
 2911SOL     OW20456   1.745  11.291   6.367  0.9729 -0.5729  0.4428
 2911SOL    HW120457   1.779  11.371   6.326  1.0368 -0.6546  0.3356
 2911SOL    HW220458   1.822  11.237   6.381  0.8157 -1.0273 -0.3870
 2912SOL     OW20459   6.379   6.663   5.923 -0.0907  0.0637  0.0817
 2912SOL    HW120460   6.356   6.740   5.871  0.1883 -0.3023 -0.6019
 2912SOL    HW220461   6.319   6.595   5.892 -0.1070 -0.0839  0.4396
 2913SOL     OW20462   2.374  10.428   8.265 -0.2186  0.3736 -0.2116
 2913SOL    HW120463   2.424  10.349   8.289 -2.1427 -0.9701 -0.3821
 2913SOL    HW220464   2.356  10.417   8.172  0.7088  1.7811 -0.5869
 2914SOL     OW20465  11.821   0.617   5.242  0.3535  0.5901  0.5580
 2914SOL    HW120466  11.872   0.620   5.160 -0.5341  0.0898 -0.0340
 2914SOL    HW220467  11.733   0.643   5.216 -0.0123  0.1124  1.2983
 2915SOL     OW20468   9.904   3.427   9.092  0.3689  0.1196  0.0634
 2915SOL    HW120469   9.845   3.405   9.020 -1.5598  0.7981  1.3558
 2915SOL    HW220470   9.863   3.389   9.170  1.9828  0.0627  0.9298
 2916SOL     OW20471   8.649   8.683   5.908  0.4187 -0.3858 -0.0563
 2916SOL    HW120472   8.695   8.715   5.986  2.0125 -2.5975  0.0021
 2916SOL    HW220473   8.556   8.685   5.933  0.6944  1.0744  1.0358
 2917SOL     OW20474   7.038   2.400   9.784  0.2251  0.9241 -0.2003
 2917SOL    HW120475   7.096   2.361   9.849 -0.7833  0.2636  0.3209
 2917SOL    HW220476   7.071   2.368   9.700  0.7675  0.7722  0.0678
 2918SOL     OW20477   9.980   1.793   4.363  0.0580  0.4183 -0.3869
 2918SOL    HW120478   9.888   1.810   4.342 -0.3744 -1.2972 -0.0610
 2918SOL    HW220479  10.029   1.830   4.290 -1.0087 -0.0402 -1.3563
 2919SOL     OW20480   8.963   0.447   5.461 -0.2749  0.0715 -0.4464
 2919SOL    HW120481   8.947   0.439   5.555 -0.4429  1.1126 -0.3777
 2919SOL    HW220482   8.899   0.388   5.421 -0.3469 -0.2138  0.0737
 2920SOL     OW20483   7.633   4.051   6.386  0.5350 -0.0044  0.1750
 2920SOL    HW120484   7.611   3.998   6.310 -0.8353 -1.0402  1.2478
 2920SOL    HW220485   7.639   3.989   6.459 -1.5180  1.2749  1.5468
 2921SOL     OW20486   5.408  10.046  11.601 -0.2297 -0.3728 -0.2546
 2921SOL    HW120487   5.477   9.980  11.601  0.0768 -0.0505 -0.0509
 2921SOL    HW220488   5.427  10.101  11.524  1.0274  1.0495  1.0045
 2922SOL     OW20489   0.624   4.241   3.958  0.7148 -0.5255  0.3678
 2922SOL    HW120490   0.719   4.249   3.956  0.6698  1.4063  1.9468
 2922SOL    HW220491   0.592   4.323   3.921 -0.1839  1.0557  4.1516
 2923SOL     OW20492   5.931   0.638   8.881 -0.1017 -0.8338  0.1311
 2923SOL    HW120493   5.946   0.592   8.964  0.2466 -0.0908  0.4883
 2923SOL    HW220494   5.836   0.647   8.876 -0.0878  3.2626  2.8211
 2924SOL     OW20495   3.825  10.592   7.619 -0.3601 -0.3896 -0.0156
 2924SOL    HW120496   3.845  10.542   7.699  0.2938 -1.4564 -0.8223
 2924SOL    HW220497   3.909  10.604   7.576 -0.7663 -0.2434 -0.7931
 2925SOL     OW20498   5.930   3.884   9.934 -0.8082  0.1065 -0.4151
 2925SOL    HW120499   5.877   3.936   9.874  1.0536 -0.1560 -2.4133
 2925SOL    HW220500   5.870   3.859  10.004 -2.1633  3.6709 -0.0735
 2926SOL     OW20501  10.007   2.593   1.388 -0.0138 -0.2038 -0.4463
 2926SOL    HW120502  10.030   2.664   1.449 -0.1345 -1.7328  1.5028
 2926SOL    HW220503  10.088   2.543   1.380 -0.0333 -0.0758 -1.5055
 2927SOL     OW20504   5.462   1.609   9.952  0.6558 -0.1394 -0.5293
 2927SOL    HW120505   5.427   1.588   9.865 -2.4983 -1.0863  0.8178
 2927SOL    HW220506   5.539   1.554   9.961 -0.2905 -1.7874 -1.8993
 2928SOL     OW20507   2.927   4.571   5.466 -0.1876 -0.1521 -0.4918
 2928SOL    HW120508   2.998   4.552   5.527  1.2097  1.4848 -1.4901
 2928SOL    HW220509   2.966   4.631   5.402 -2.0742 -0.3789 -1.9614
 2929SOL     OW20510   9.527   9.108  10.421 -0.1463 -0.4569  0.6316
 2929SOL    HW120511   9.622   9.115  10.436 -0.2174  0.6567  0.5957
 2929SOL    HW220512   9.517   9.118  10.326 -0.2665 -1.0737  0.5741
 2930SOL     OW20513   8.393   1.053   9.651  0.3310 -0.7306 -0.1532
 2930SOL    HW120514   8.309   1.054   9.604 -0.1637 -0.0902  0.7339
 2930SOL    HW220515   8.380   0.992   9.723  1.0540 -1.6160 -0.7480
 2931SOL     OW20516   2.288   3.052   0.664 -0.2095  0.0910 -0.1585
 2931SOL    HW120517   2.243   2.967   0.657  0.4903 -0.2805 -0.2306
 2931SOL    HW220518   2.217   3.115   0.674 -0.7491 -0.4936 -0.1799
 2932SOL     OW20519   8.093   9.987   4.243 -0.2671 -0.7978 -0.1030
 2932SOL    HW120520   8.028  10.053   4.220 -3.1376 -3.6029 -0.8790
 2932SOL    HW220521   8.090   9.983   4.338  0.0733  0.2715 -0.0355
 2933SOL     OW20522   5.392   7.474   1.245 -0.5843  0.2072  0.0743
 2933SOL    HW120523   5.433   7.463   1.159 -0.0774 -0.9239  0.4489
 2933SOL    HW220524   5.298   7.462   1.227 -0.3587 -1.5365 -0.1047
 2934SOL     OW20525   7.624   4.831   7.519  0.1170  0.1702  0.0743
 2934SOL    HW120526   7.534   4.816   7.545  0.3293  0.3670  0.9769
 2934SOL    HW220527   7.672   4.838   7.602  0.9727 -0.0329 -0.3932
 2935SOL     OW20528   9.666   5.764   4.806 -0.1744 -0.0299  0.9224
 2935SOL    HW120529   9.643   5.830   4.740  2.9747  1.0622  0.7446
 2935SOL    HW220530   9.664   5.811   4.889  2.1668  0.4249  0.7855
 2936SOL     OW20531   7.542  11.032   4.496 -0.3457 -0.2087  0.1932
 2936SOL    HW120532   7.542  10.940   4.522  1.5431  0.2539  2.1400
 2936SOL    HW220533   7.464  11.069   4.538 -0.3658 -0.6514  0.5472
 2937SOL     OW20534   6.256   2.152   0.283 -0.0669  0.4183  0.1704
 2937SOL    HW120535   6.276   2.225   0.224  0.5701 -0.7049 -1.0463
 2937SOL    HW220536   6.168   2.123   0.256  1.1395 -1.6064 -1.9307
 2938SOL     OW20537   2.135  10.990  11.717 -0.0799 -0.1823  0.0228
 2938SOL    HW120538   2.105  11.050  11.785 -1.2176  1.9553 -2.2403
 2938SOL    HW220539   2.231  10.993  11.723 -0.1460 -0.0136  1.4457
 2939SOL     OW20540   7.044  10.029   4.715  0.0190  0.7306 -0.2934
 2939SOL    HW120541   7.111   9.969   4.683 -0.2762  0.4657 -0.4189
 2939SOL    HW220542   7.092  10.089   4.773  0.1660 -0.2034  0.5846
 2940SOL     OW20543   5.912   2.033  10.022 -0.0936  0.9550 -0.0890
 2940SOL    HW120544   5.895   2.064   9.933 -0.5258  0.3754 -0.2146
 2940SOL    HW220545   5.827   2.040  10.067 -0.2941 -0.3293 -0.2174
 2941SOL     OW20546   4.475   7.821   6.705 -0.3599 -0.4510  0.3622
 2941SOL    HW120547   4.479   7.901   6.757  0.4599 -0.0406 -0.3171
 2941SOL    HW220548   4.503   7.847   6.617  1.9875 -1.8763  0.5967
 2942SOL     OW20549   6.373   1.773   0.318 -0.5452 -0.3442 -0.1915
 2942SOL    HW120550   6.293   1.743   0.361  0.2324 -1.0410  0.8128
 2942SOL    HW220551   6.406   1.696   0.272 -1.9270  0.6354 -3.0556
 2943SOL     OW20552  10.664  10.524   8.620  0.7353  0.1109  0.5913
 2943SOL    HW120553  10.600  10.454   8.636  1.2131 -0.7084 -0.9187
 2943SOL    HW220554  10.739  10.479   8.580  0.2245  1.7264 -2.4605
 2944SOL     OW20555   1.955   1.786   8.819 -0.0647  0.0482 -0.1429
 2944SOL    HW120556   1.985   1.787   8.910  0.1970 -0.5457 -0.2200
 2944SOL    HW220557   1.860   1.773   8.825  0.0332 -0.5902  0.0270
 2945SOL     OW20558   8.783  10.089  11.273 -0.2334 -0.5737 -0.0681
 2945SOL    HW120559   8.734  10.055  11.198 -1.0893  0.2918  0.0721
 2945SOL    HW220560   8.875  10.077  11.249 -0.4942 -0.5355 -1.1491
 2946SOL     OW20561   5.834   4.250   5.860 -0.5142 -0.4252 -0.1378
 2946SOL    HW120562   5.755   4.207   5.826 -1.3796  0.9363  0.0657
 2946SOL    HW220563   5.803   4.304   5.932  0.5378  0.4614 -0.3149
 2947SOL     OW20564   3.163   7.624   9.400 -0.2634  0.2014  0.0274
 2947SOL    HW120565   3.177   7.672   9.481 -1.7696  1.3478 -0.3419
 2947SOL    HW220566   3.092   7.671   9.356  0.9718  0.0578 -2.3057
 2948SOL     OW20567   1.385   0.329   3.244  0.1612 -0.0767 -0.4626
 2948SOL    HW120568   1.366   0.418   3.218 -0.3278 -0.4081 -1.2683
 2948SOL    HW220569   1.319   0.308   3.310  1.1102  0.6014  0.7459
 2949SOL     OW20570   5.918   5.777  11.055 -0.3007  0.6281  0.3154
 2949SOL    HW120571   5.896   5.810  11.142 -1.1313  0.8178  0.0431
 2949SOL    HW220572   5.976   5.844  11.019  2.2985 -0.7371  1.7196
 2950SOL     OW20573   1.205   7.423   4.841  0.1483  0.1555  0.6519
 2950SOL    HW120574   1.132   7.411   4.902  0.8144 -0.3359  1.3748
 2950SOL    HW220575   1.164   7.424   4.755 -0.7272  0.0170  1.0536
 2951SOL     OW20576   6.348  10.795   3.405 -0.5460  0.1144  0.4105
 2951SOL    HW120577   6.435  10.778   3.369  0.3881  1.0332  2.0829
 2951SOL    HW220578   6.364  10.855   3.478 -2.6810  0.9379  0.2835
 2952SOL     OW20579   3.810   0.623   2.406  0.2064  0.5835  0.5014
 2952SOL    HW120580   3.874   0.692   2.419  1.6929 -0.5041 -0.6771
 2952SOL    HW220581   3.775   0.639   2.318 -0.1033  0.3707  0.5839
 2953SOL     OW20582   7.199   7.482  11.284  0.3554  0.4226  0.0929
 2953SOL    HW120583   7.146   7.552  11.321  0.6149  0.6628  0.0089
 2953SOL    HW220584   7.261   7.459  11.354 -1.3501 -1.4753  1.1062
 2954SOL     OW20585   0.025   4.196   0.364 -0.5330  0.2396  0.3844
 2954SOL    HW120586   0.011   4.114   0.413 -0.3036  0.9369  1.6741
 2954SOL    HW220587   0.079   4.170   0.290  0.1962 -0.6623  1.1988
 2955SOL     OW20588   3.980   8.814   6.013  0.1731 -0.0583 -0.3449
 2955SOL    HW120589   3.971   8.856   6.098 -0.8841  1.0866 -0.9916
 2955SOL    HW220590   4.005   8.724   6.033 -1.3779 -0.1905  1.2506
 2956SOL     OW20591   6.055   3.901   4.905 -0.0426 -0.4750 -0.1191
 2956SOL    HW120592   6.090   3.965   4.843 -0.3663  1.3758  1.5255
 2956SOL    HW220593   6.126   3.838   4.917  0.6508  0.1038 -1.0326
 2957SOL     OW20594   5.324   9.596  11.774 -1.1489 -0.3887 -0.0003
 2957SOL    HW120595   5.393   9.609  11.710 -0.9443  1.0825  0.4845
 2957SOL    HW220596   5.243   9.617  11.728 -0.9995  0.6934  0.2177
 2958SOL     OW20597  11.854   3.677  10.029 -0.2751 -0.4124 -0.3581
 2958SOL    HW120598  11.825   3.765  10.007 -0.1174 -0.5532 -1.1634
 2958SOL    HW220599  11.813   3.658  10.113  1.7821  1.4350  1.1642
 2959SOL     OW20600   7.986   8.150  10.497 -0.6030  0.3174 -0.3834
 2959SOL    HW120601   8.074   8.125  10.524 -0.1148  1.7118 -0.5712
 2959SOL    HW220602   7.997   8.182  10.407 -1.5600 -0.8099 -0.9197
 2960SOL     OW20603   6.562   9.611  11.219 -0.0338 -0.2626  0.0966
 2960SOL    HW120604   6.505   9.626  11.144  0.1227 -0.7266 -0.1184
 2960SOL    HW220605   6.576   9.698  11.257 -2.1257 -0.2818  1.0762
 2961SOL     OW20606   2.549   6.121   7.867 -0.2182  0.3341 -0.7225
 2961SOL    HW120607   2.484   6.052   7.859  1.1928 -1.0637 -0.7415
 2961SOL    HW220608   2.602   6.094   7.942  0.4792  1.2963 -0.8576
 2962SOL     OW20609  11.460   7.640   9.324 -0.4695  0.3043  0.2545
 2962SOL    HW120610  11.411   7.649   9.406  0.1551  0.6220  0.5966
 2962SOL    HW220611  11.473   7.729   9.294  2.7644  0.5510  1.8923
 2963SOL     OW20612   6.923   3.069  10.703 -0.5761  0.7492 -0.0496
 2963SOL    HW120613   6.937   3.117  10.621  0.2535 -0.8477 -0.8905
 2963SOL    HW220614   6.830   3.080  10.722 -0.7025  1.4462 -0.9941
 2964SOL     OW20615   2.441   5.293   8.274 -0.4922  0.1627  0.7676
 2964SOL    HW120616   2.352   5.258   8.279 -0.9367  1.4226  2.3258
 2964SOL    HW220617   2.473   5.289   8.363  1.6282 -1.6492  0.0182
 2965SOL     OW20618   5.376  11.156   9.125 -0.3401 -0.3646 -0.5244
 2965SOL    HW120619   5.377  11.105   9.207 -1.0041  0.9416  0.3325
 2965SOL    HW220620   5.467  11.181   9.111 -0.5921  2.0724  1.5896
 2966SOL     OW20621   2.294   6.461   6.360 -0.0266  0.5291 -0.2588
 2966SOL    HW120622   2.352   6.460   6.284  0.2525 -0.1627 -0.0442
 2966SOL    HW220623   2.352   6.445   6.434 -0.5837 -0.9383 -0.1134
 2967SOL     OW20624  10.422   7.444   6.253  0.3413 -0.4158  0.9692
 2967SOL    HW120625  10.452   7.535   6.264 -0.3824  0.1975 -1.5265
 2967SOL    HW220626  10.328   7.447   6.275  0.3839 -0.6299  1.1818
 2968SOL     OW20627  11.325   9.749   8.733  0.1410  0.0346  0.1952
 2968SOL    HW120628  11.242   9.709   8.761 -0.4448  1.3484  0.4356
 2968SOL    HW220629  11.298   9.816   8.670  0.9810  0.7326  0.5618
 2969SOL     OW20630   0.336   9.741   3.750  0.2151  0.4162 -0.5704
 2969SOL    HW120631   0.287   9.728   3.669 -1.4585  0.0357  0.4656
 2969SOL    HW220632   0.377   9.657   3.768 -0.4055  0.1537 -0.3873
 2970SOL     OW20633   0.112   4.442   7.796  0.2162 -0.7070 -0.1756
 2970SOL    HW120634   0.158   4.514   7.839 -0.1546 -0.8416  0.4488
 2970SOL    HW220635   0.152   4.363   7.831  0.4957 -0.8185 -0.7238
 2971SOL     OW20636   7.062   7.711  11.354 -0.1449  0.2919 -0.1184
 2971SOL    HW120637   7.108   7.780  11.305  0.1933 -0.0616 -0.2995
 2971SOL    HW220638   6.993   7.758  11.401  0.0005  0.7399 -0.3424
 2972SOL     OW20639   3.091   1.007   4.707  0.4383 -0.5088  0.1916
 2972SOL    HW120640   3.143   0.961   4.641  1.3758  0.8440 -0.0511
 2972SOL    HW220641   3.045   1.075   4.658  0.4646 -0.0421  0.8057
 2973SOL     OW20642   9.189   1.343  11.662  0.5205  0.2321  0.9432
 2973SOL    HW120643   9.165   1.436  11.671 -0.2314  0.1544 -0.0876
 2973SOL    HW220644   9.270   1.335  11.711  0.3968  1.3575  1.3735
 2974SOL     OW20645  11.134   5.701   2.817  0.3359  0.0163 -0.3674
 2974SOL    HW120646  11.213   5.755   2.821  0.7283 -0.4411 -1.6276
 2974SOL    HW220647  11.127   5.674   2.725 -0.2238 -1.5151  0.0918
 2975SOL     OW20648   9.345   6.023   1.655 -0.9837 -0.5568  0.3542
 2975SOL    HW120649   9.349   6.042   1.562 -1.0165 -0.5320  0.3578
 2975SOL    HW220650   9.380   5.934   1.663 -0.2783 -0.2834  0.4050
 2976SOL     OW20651   4.769   9.361   7.357  0.3556 -0.1564 -0.4587
 2976SOL    HW120652   4.678   9.349   7.329 -0.8608  1.5685  2.3230
 2976SOL    HW220653   4.806   9.421   7.292 -0.4058 -1.0250 -1.7366
 2977SOL     OW20654   9.443   1.694   6.400 -0.2003 -0.2426 -0.1190
 2977SOL    HW120655   9.448   1.734   6.487  1.0349 -1.0431  0.2075
 2977SOL    HW220656   9.377   1.745   6.354  0.3810  1.3255  0.7055
 2978SOL     OW20657   0.785   9.256   9.071 -0.1675 -0.1942 -0.2113
 2978SOL    HW120658   0.780   9.325   9.004 -1.5894  1.5206  1.5592
 2978SOL    HW220659   0.872   9.267   9.109 -0.0962  0.1196 -0.4545
 2979SOL     OW20660   5.762   6.459   2.626 -0.2950  0.0680 -0.8153
 2979SOL    HW120661   5.833   6.517   2.598  0.1153 -0.6892 -1.3970
 2979SOL    HW220662   5.683   6.500   2.590  0.2056 -0.8193 -3.1173
 2980SOL     OW20663   6.422   4.713   6.682 -0.0275 -0.2562 -0.0270
 2980SOL    HW120664   6.418   4.803   6.649  0.7629 -0.5012 -0.8177
 2980SOL    HW220665   6.515   4.696   6.694 -0.2268 -0.6189  1.1292
 2981SOL     OW20666   0.880   2.008   0.141  0.2128 -0.5041 -0.3291
 2981SOL    HW120667   0.832   1.929   0.165 -1.8636  1.1944  1.5488
 2981SOL    HW220668   0.849   2.075   0.203  1.8974  1.7775 -1.7880
 2982SOL     OW20669   1.176   7.748   4.884 -0.1644  0.3904  0.4417
 2982SOL    HW120670   1.239   7.678   4.899 -0.9466 -0.2167  0.9849
 2982SOL    HW220671   1.167   7.751   4.789 -0.2799 -0.4051  0.4157
 2983SOL     OW20672   2.382   0.286   9.642  0.1052 -0.2817 -0.1421
 2983SOL    HW120673   2.464   0.239   9.631  0.9856  1.2158 -0.2860
 2983SOL    HW220674   2.355   0.267   9.732  0.7044 -0.6379 -0.0352
 2984SOL     OW20675   1.408   5.829   9.124  0.1364 -0.7977 -0.4549
 2984SOL    HW120676   1.382   5.760   9.184 -0.9186  1.1075  1.4274
 2984SOL    HW220677   1.504   5.825   9.122  0.1530 -1.4205  0.7302
 2985SOL     OW20678   1.834  11.589   7.408  0.1886  0.2592 -0.8893
 2985SOL    HW120679   1.831  11.494   7.413 -0.0516  0.3142  0.4220
 2985SOL    HW220680   1.802  11.610   7.321  0.3432 -0.8624 -1.2267
 2986SOL     OW20681   5.381   5.718   3.511 -0.5569 -0.0705  0.3139
 2986SOL    HW120682   5.353   5.629   3.530  0.1069 -0.3511  0.0259
 2986SOL    HW220683   5.316   5.774   3.553 -0.7110 -0.6911  0.9129
 2987SOL     OW20684   1.975   3.465   5.681  0.4775  0.5591  0.0713
 2987SOL    HW120685   1.966   3.391   5.741 -1.8358 -0.2395 -1.1328
 2987SOL    HW220686   2.060   3.453   5.641  0.0727 -1.6150 -0.2450
 2988SOL     OW20687   8.622   7.997   1.274  0.5642 -0.2005 -0.1625
 2988SOL    HW120688   8.583   7.959   1.195 -0.7989  0.1994  0.3045
 2988SOL    HW220689   8.634   8.090   1.252  0.2145 -0.0965  0.0839
 2989SOL     OW20690   7.937   0.942  11.631  0.0297  0.1631 -0.3456
 2989SOL    HW120691   7.988   0.895  11.565 -1.8812 -0.9816 -1.0938
 2989SOL    HW220692   7.928   0.879  11.703 -2.2200 -0.6114 -1.1950
 2990SOL     OW20693   2.551   6.409  11.877  0.3981 -0.2903 -0.2748
 2990SOL    HW120694   2.510   6.387  11.794 -0.5446 -0.8321  0.3190
 2990SOL    HW220695   2.506   6.489  11.906 -0.0253 -0.7052  0.2234
 2991SOL     OW20696   2.402   3.584   2.110  0.5582  0.1712  0.1816
 2991SOL    HW120697   2.440   3.497   2.097  0.6669  0.1935  0.3488
 2991SOL    HW220698   2.473   3.635   2.150  0.3955  0.2511  0.3708
 2992SOL     OW20699  11.814   2.717  10.491 -0.0358 -0.0825 -0.0534
 2992SOL    HW120700  11.857   2.787  10.441  0.7713 -1.2752 -1.1156
 2992SOL    HW220701  11.798   2.648  10.426 -0.7539 -0.9116  0.9695
 2993SOL     OW20702   9.198   9.542   2.423 -0.0510  0.0289 -0.5681
 2993SOL    HW120703   9.151   9.549   2.507 -0.5554 -0.5279 -0.8022
 2993SOL    HW220704   9.286   9.575   2.443 -0.8263  2.1402 -0.3843
 2994SOL     OW20705   3.972  10.903   8.407  0.0877 -0.8236 -0.1892
 2994SOL    HW120706   4.039  10.895   8.339 -0.3111  1.2351 -0.9157
 2994SOL    HW220707   3.962  10.998   8.418 -1.9918 -1.0949  0.6024
 2995SOL     OW20708   0.679   5.838   1.766 -0.1260 -0.1657 -0.5257
 2995SOL    HW120709   0.632   5.825   1.848 -1.1641 -0.4660 -1.1510
 2995SOL    HW220710   0.632   5.784   1.702  1.7864 -1.4672 -0.9407
 2996SOL     OW20711   0.832   2.278   5.538 -0.1376  0.0260 -0.0981
 2996SOL    HW120712   0.818   2.364   5.499 -0.4407  0.5199  1.0527
 2996SOL    HW220713   0.837   2.295   5.632  0.2178 -1.1639  0.1122
 2997SOL     OW20714   3.187   0.383  11.489  0.3042 -0.1342 -0.9731
 2997SOL    HW120715   3.203   0.310  11.549  2.8177  0.4336 -0.8432
 2997SOL    HW220716   3.128   0.441  11.537 -0.9561 -1.5736 -0.7024
 2998SOL     OW20717   5.362   8.300   4.679  0.4532 -0.3320 -0.5664
 2998SOL    HW120718   5.443   8.251   4.665  1.3600  1.3079 -1.2708
 2998SOL    HW220719   5.309   8.242   4.735  2.9110 -0.6113  1.6735
 2999SOL     OW20720   1.715   7.254   9.217 -0.1177 -0.4290  0.0522
 2999SOL    HW120721   1.692   7.171   9.176  0.6965 -0.6280 -0.0193
 2999SOL    HW220722   1.805   7.271   9.190 -0.1694  0.3291  0.3104
 3000SOL     OW20723   3.323   3.638   3.664 -0.3938  0.1193 -0.1306
 3000SOL    HW120724   3.399   3.676   3.709  0.5537 -0.4046 -1.2263
 3000SOL    HW220725   3.265   3.712   3.649 -1.1173  0.2245  2.5604
 3001SOL     OW20726   4.057   4.211  11.574  0.3118 -0.2429 -0.4208
 3001SOL    HW120727   4.078   4.156  11.650 -1.8499  1.7773  1.8567
 3001SOL    HW220728   3.961   4.219  11.577  0.4833  4.0069 -0.1394
 3002SOL     OW20729   9.582   6.413   2.606  0.5258 -0.0347 -0.0176
 3002SOL    HW120730   9.492   6.392   2.581 -0.0589 -0.7751  2.4295
 3002SOL    HW220731   9.573   6.488   2.665  1.6624  0.6426 -0.6785
 3003SOL     OW20732  10.902   1.342   2.070  0.0664  0.2960 -0.0952
 3003SOL    HW120733  10.855   1.289   2.134  0.8184 -0.3747 -0.0955
 3003SOL    HW220734  10.992   1.311   2.073  0.4634  1.3590 -0.3168
 3004SOL     OW20735  11.553   0.271   1.509  0.2012 -0.4204  0.0130
 3004SOL    HW120736  11.551   0.238   1.419 -0.3041 -0.9196  0.2021
 3004SOL    HW220737  11.629   0.329   1.512  0.0350 -0.1492 -0.8243
 3005SOL     OW20738   5.992   2.513  11.647 -0.4854 -0.2550 -0.2786
 3005SOL    HW120739   6.020   2.524  11.556 -1.4235  1.4104 -0.3935
 3005SOL    HW220740   6.054   2.565  11.697 -0.6036 -0.3273 -0.0569
 3006SOL     OW20741   8.982   1.270   7.395 -0.8356  0.4493  0.1081
 3006SOL    HW120742   8.917   1.235   7.457 -0.5853  0.1193  0.1847
 3006SOL    HW220743   8.929   1.305   7.323 -1.1736  1.6222  0.9010
 3007SOL     OW20744  10.654   7.270  11.718 -0.3380  0.0015  0.1706
 3007SOL    HW120745  10.608   7.241  11.796 -0.9363 -0.6013 -0.3904
 3007SOL    HW220746  10.590   7.323  11.670  0.2146  0.8608  0.3719
 3008SOL     OW20747   6.868  10.754   9.460  0.1713  0.6720 -0.4298
 3008SOL    HW120748   6.866  10.704   9.379  1.5698  0.0491 -0.0994
 3008SOL    HW220749   6.814  10.831   9.442 -0.6337 -0.1088 -1.4927
 3009SOL     OW20750   8.257   6.833   4.055  0.0394  0.6455  0.2824
 3009SOL    HW120751   8.223   6.882   3.981  0.9413 -1.8144 -1.9352
 3009SOL    HW220752   8.344   6.868   4.070 -0.1939  1.2337  0.2858
 3010SOL     OW20753   3.530   5.500   8.366  0.7038 -0.0377 -0.0354
 3010SOL    HW120754   3.542   5.434   8.298 -0.1725 -0.8594  0.5857
 3010SOL    HW220755   3.569   5.461   8.444 -2.2340 -1.0808  1.0348
 3011SOL     OW20756  10.580   3.717   3.817  0.3420  0.2660  0.2612
 3011SOL    HW120757  10.497   3.761   3.834  0.9071  1.9303 -1.0231
 3011SOL    HW220758  10.579   3.699   3.723  1.8428  1.2855  0.0105
 3012SOL     OW20759   7.904   4.500   9.934 -0.2350  0.1369  0.2634
 3012SOL    HW120760   7.969   4.474   9.870  0.3108  0.2733  0.7551
 3012SOL    HW220761   7.896   4.425   9.993  1.4869  1.1004  1.7988
 3013SOL     OW20762   5.222   7.318   0.032 -0.2726  0.5149 -0.4040
 3013SOL    HW120763   5.209   7.245   0.092  0.3802  1.0475  0.4145
 3013SOL    HW220764   5.316   7.336   0.036 -0.5601  2.0714  0.2450
 3014SOL     OW20765   4.133   5.790   8.532  0.2092 -0.0482 -0.1442
 3014SOL    HW120766   4.218   5.757   8.502 -0.1342 -0.5089 -0.6251
 3014SOL    HW220767   4.144   5.885   8.535  2.0424 -0.1679  3.6867
 3015SOL     OW20768   2.367   4.529   6.633 -0.0498 -0.2672 -0.4980
 3015SOL    HW120769   2.378   4.617   6.599 -0.0490  0.3770  1.0890
 3015SOL    HW220770   2.433   4.477   6.587  1.0967  0.9091 -0.2473
 3016SOL     OW20771   9.326   5.535   1.927  0.3146  0.0594  0.1764
 3016SOL    HW120772   9.323   5.442   1.907 -1.2096  0.6286 -3.0323
 3016SOL    HW220773   9.404   5.546   1.981  0.1479 -3.1108  1.2706
 3017SOL     OW20774   2.102   2.121   1.006 -0.1035 -0.0459 -0.5058
 3017SOL    HW120775   2.078   2.029   0.994 -3.2171  0.6534 -0.3671
 3017SOL    HW220776   2.077   2.163   0.923 -0.7333  1.0057  0.2019
 3018SOL     OW20777  10.119   6.709   9.727  0.6921 -0.2608  0.4989
 3018SOL    HW120778  10.207   6.672   9.737  0.6378 -0.3603  0.6067
 3018SOL    HW220779  10.062   6.649   9.775  0.6315  0.0795  0.8590
 3019SOL     OW20780   9.303   4.568   5.594 -0.2524  0.0178 -0.2676
 3019SOL    HW120781   9.322   4.561   5.687 -0.0862  1.7301 -0.1465
 3019SOL    HW220782   9.328   4.483   5.558  1.2506 -0.1180  0.9886
 3020SOL     OW20783   1.529   0.243   8.949  0.1818 -0.0415  0.1533
 3020SOL    HW120784   1.622   0.263   8.948  0.2456 -0.3333 -0.0752
 3020SOL    HW220785   1.515   0.195   9.030  0.3354 -0.4682 -0.0701
 3021SOL     OW20786   1.882   6.086   7.694  0.4712 -0.4679 -0.0129
 3021SOL    HW120787   1.882   5.996   7.663  1.1469 -0.2558 -0.6667
 3021SOL    HW220788   1.956   6.127   7.649  0.8730  0.1165  1.1380
 3022SOL     OW20789   4.000  11.319   2.859 -0.4772 -0.0807 -0.1771
 3022SOL    HW120790   3.942  11.282   2.792 -3.1274 -0.2927  2.0508
 3022SOL    HW220791   4.028  11.243   2.910 -0.4930  0.3300  0.4426
 3023SOL     OW20792   3.843   3.482   1.075 -0.2054  0.1257  0.1615
 3023SOL    HW120793   3.908   3.552   1.074  0.4269 -0.4224  1.0524
 3023SOL    HW220794   3.849   3.445   1.163 -0.9396 -0.6716 -0.1047
 3024SOL     OW20795  10.234   2.257  10.781 -0.1992  0.6270 -0.1098
 3024SOL    HW120796  10.328   2.260  10.763  0.5336 -1.5209  2.6423
 3024SOL    HW220797  10.205   2.172  10.746 -0.8072  0.6580  0.3000
 3025SOL     OW20798  10.850  11.188   4.317  0.6902 -0.0769  0.0105
 3025SOL    HW120799  10.857  11.124   4.388  1.1937 -1.3410 -1.1277
 3025SOL    HW220800  10.917  11.161   4.254  1.9065  2.4378  0.1142
 3026SOL     OW20801  10.046   3.686   2.052 -0.7253 -0.5492 -0.0329
 3026SOL    HW120802  10.053   3.618   1.985 -1.0535 -0.2937 -0.3303
 3026SOL    HW220803  10.035   3.637   2.134  1.5497 -0.9142  0.1179
 3027SOL     OW20804   0.338   2.866   4.138  0.2474  0.1452 -0.0285
 3027SOL    HW120805   0.247   2.892   4.120 -0.5076 -2.4260 -0.3619
 3027SOL    HW220806   0.336   2.832   4.227  0.2849 -2.0180 -0.7817
 3028SOL     OW20807   3.628  11.922   3.839  0.6320 -0.5354  0.1054
 3028SOL    HW120808   3.641  12.017   3.836 -1.4062 -0.2138 -0.3420
 3028SOL    HW220809   3.542  11.909   3.800  1.0261 -2.6262 -0.1670
 3029SOL     OW20810   9.462   2.286  10.799 -0.0030  0.2458 -0.5011
 3029SOL    HW120811   9.512   2.349  10.850  0.1877  0.8087 -1.3779
 3029SOL    HW220812   9.504   2.202  10.818 -1.0649  0.1197  1.7170
 3030SOL     OW20813   4.859   3.322   2.366 -0.4693  0.6732 -0.4486
 3030SOL    HW120814   4.937   3.368   2.398  0.5489 -0.5442 -1.1096
 3030SOL    HW220815   4.853   3.346   2.274  0.1301 -0.5417 -0.8273
 3031SOL     OW20816   7.224   8.562   3.818  0.4963 -0.5350  0.3945
 3031SOL    HW120817   7.179   8.635   3.774 -1.0144 -1.2395  0.6916
 3031SOL    HW220818   7.300   8.544   3.763  1.6354  2.0513  0.9693
 3032SOL     OW20819   4.090   2.395   1.152  0.1660  0.0119 -0.1766
 3032SOL    HW120820   4.081   2.428   1.062  0.9532 -0.2657 -0.3641
 3032SOL    HW220821   4.005   2.412   1.192 -0.0747  0.4774 -0.8635
 3033SOL     OW20822   3.970   9.292   8.988  0.2778  0.5874 -0.4701
 3033SOL    HW120823   3.935   9.339   8.912  1.8077  1.8525 -0.4398
 3033SOL    HW220824   3.998   9.207   8.953  0.1173  0.7968 -1.1221
 3034SOL     OW20825  11.149   8.585   3.948 -0.8379 -0.2418  0.0839
 3034SOL    HW120826  11.159   8.628   3.864 -2.3469 -0.9742 -0.5149
 3034SOL    HW220827  11.070   8.625   3.985 -0.1373  0.1424  1.2166
 3035SOL     OW20828   5.844   1.781   5.042 -0.2142  0.2231  0.2197
 3035SOL    HW120829   5.764   1.728   5.040  0.0681 -0.2103 -1.7359
 3035SOL    HW220830   5.867   1.786   5.135 -0.6473 -2.5112  0.5619
 3036SOL     OW20831   3.190   8.856   9.819 -0.6487 -0.3157 -0.1505
 3036SOL    HW120832   3.228   8.799   9.752 -0.6140 -1.7860  1.0566
 3036SOL    HW220833   3.260   8.867   9.883 -1.1287 -0.1190  0.3520
 3037SOL     OW20834   8.679   3.673   9.445 -0.2255  0.8969 -0.0226
 3037SOL    HW120835   8.680   3.755   9.395  0.3972  0.5685 -0.5618
 3037SOL    HW220836   8.761   3.675   9.495 -0.8708  1.2541  1.0616
 3038SOL     OW20837  10.833   5.020   3.755 -0.0861 -0.6681 -0.2720
 3038SOL    HW120838  10.906   4.981   3.707 -0.2710 -0.6849 -0.5448
 3038SOL    HW220839  10.759   4.963   3.735 -0.3966 -0.0894 -0.8016
 3039SOL     OW20840   7.812  11.760   3.675 -0.2044 -0.8576 -0.1004
 3039SOL    HW120841   7.813  11.784   3.768 -0.4187  0.5556 -0.4396
 3039SOL    HW220842   7.737  11.701   3.667  0.4585 -1.8721  0.8070
 3040SOL     OW20843   9.152   6.450  11.750  0.2971  0.4745 -0.0788
 3040SOL    HW120844   9.176   6.376  11.694  0.8864 -0.2363  1.0649
 3040SOL    HW220845   9.231   6.504  11.754  0.8934 -0.4218  1.4610
 3041SOL     OW20846   4.974   6.997   5.559 -0.3823  0.2364 -0.0213
 3041SOL    HW120847   4.906   6.937   5.529  0.2501 -0.6473  0.2481
 3041SOL    HW220848   5.008   7.037   5.479 -0.5883 -0.0120 -0.2351
 3042SOL     OW20849   9.092   0.467  11.398  0.6541  0.4214  0.4672
 3042SOL    HW120850   9.157   0.448  11.330 -2.0601 -0.5546 -2.0808
 3042SOL    HW220851   9.060   0.381  11.424 -0.5893  0.9069  0.5966
 3043SOL     OW20852   1.336   9.608   2.889  0.0065 -0.0504  0.2996
 3043SOL    HW120853   1.314   9.529   2.840 -1.0927 -0.2041  1.0054
 3043SOL    HW220854   1.430   9.620   2.874 -0.2516 -0.1258 -1.7654
 3044SOL     OW20855   1.640  11.223  11.094 -0.8510 -0.2630  0.3872
 3044SOL    HW120856   1.586  11.300  11.073  0.1636  0.7891  1.4914
 3044SOL    HW220857   1.643  11.222  11.190  2.0033  0.4141  0.3877
 3045SOL     OW20858   2.182   6.442   1.414  0.2005 -0.0487  0.0062
 3045SOL    HW120859   2.131   6.367   1.445 -0.3808  0.0032 -0.8008
 3045SOL    HW220860   2.209   6.419   1.326  3.6410 -1.0827  1.1615
 3046SOL     OW20861  10.984   5.201  11.666  0.8249  0.6120 -0.7221
 3046SOL    HW120862  10.961   5.115  11.632  1.5113  0.5129 -0.9662
 3046SOL    HW220863  10.938   5.208  11.749  2.2615 -0.8153  0.2642
 3047SOL     OW20864   4.777  11.074   4.451  0.0289  0.6402 -0.4342
 3047SOL    HW120865   4.683  11.058   4.460  0.4757 -1.5878  1.1627
 3047SOL    HW220866   4.790  11.163   4.483 -1.3507  0.3721  1.0144
 3048SOL     OW20867   3.009   1.026   8.598 -0.0852  0.1563  1.0999
 3048SOL    HW120868   3.092   1.068   8.621 -0.0350  1.4101 -1.1139
 3048SOL    HW220869   3.016   1.008   8.504 -2.0785 -0.2954  0.9880
 3049SOL     OW20870   7.175  10.102  10.796 -0.2051 -0.1379 -0.0917
 3049SOL    HW120871   7.082  10.082  10.806 -0.5408  1.2165 -0.3359
 3049SOL    HW220872   7.199  10.060  10.713 -0.6895 -0.1737 -0.2180
 3050SOL     OW20873  11.075   6.097   5.603  0.1717 -0.2158 -0.2470
 3050SOL    HW120874  11.108   6.186   5.611  1.0077 -0.5602  0.2283
 3050SOL    HW220875  11.141   6.051   5.551  1.3516 -1.3365  2.1210
 3051SOL     OW20876   6.869   3.351  10.955 -0.3387  0.1379 -0.2073
 3051SOL    HW120877   6.847   3.444  10.964 -0.2372  0.1840 -0.4213
 3051SOL    HW220878   6.798   3.305  11.001 -0.9422  0.2806 -0.9747
 3052SOL     OW20879   2.743   1.027   6.907 -0.2778 -0.2958 -0.1588
 3052SOL    HW120880   2.812   1.058   6.966 -0.5459 -2.3957  1.3768
 3052SOL    HW220881   2.791   0.987   6.834  0.1107 -0.3807  0.1362
 3053SOL     OW20882   1.727   0.956   7.967  0.2687 -0.0063  0.2178
 3053SOL    HW120883   1.635   0.959   7.993 -0.1743 -1.5385 -1.0365
 3053SOL    HW220884   1.768   0.896   8.029  0.3302  0.3203  0.4954
 3054SOL     OW20885   2.166  10.080   5.690  0.7660  0.2519 -0.2109
 3054SOL    HW120886   2.134  10.001   5.647  1.3170 -1.5133  2.4138
 3054SOL    HW220887   2.261  10.074   5.684  0.8368  0.1635  0.8983
 3055SOL     OW20888   4.682   6.427   5.651  0.7449  0.5853  0.1436
 3055SOL    HW120889   4.767   6.383   5.642 -0.2473 -0.9914 -2.5567
 3055SOL    HW220890   4.618   6.356   5.646 -0.8622  2.0698 -2.7924
 3056SOL     OW20891   8.309   5.955   9.062 -0.6261  0.5957 -0.2053
 3056SOL    HW120892   8.260   5.953   9.144  2.7663  0.1076  2.0182
 3056SOL    HW220893   8.351   5.869   9.057 -0.7318  0.6023 -2.5447
 3057SOL     OW20894   4.331   3.049   3.758  0.0810  0.2184  0.6197
 3057SOL    HW120895   4.367   3.034   3.671 -2.3152 -2.8676 -0.0172
 3057SOL    HW220896   4.296   3.138   3.755 -0.9424 -0.1995 -1.9937
 3058SOL     OW20897   6.550   0.947  10.668  0.2363 -0.2740 -0.1269
 3058SOL    HW120898   6.615   1.014  10.689 -0.8225  0.0207  2.5881
 3058SOL    HW220899   6.596   0.864  10.679  0.2376 -0.0666  1.6602
 3059SOL     OW20900   2.362   2.508   8.540 -0.0834 -0.3844 -0.0870
 3059SOL    HW120901   2.386   2.586   8.490  0.8124 -0.7243 -0.2058
 3059SOL    HW220902   2.357   2.439   8.474 -0.4849 -0.5105  0.0746
 3060SOL     OW20903   7.463  11.946   1.715 -0.0451 -0.1872  0.2896
 3060SOL    HW120904   7.495  11.910   1.633 -0.1159 -1.4429  0.7829
 3060SOL    HW220905   7.395  12.008   1.690 -0.4036 -0.9162 -0.5871
 3061SOL     OW20906   1.548   0.694   5.703 -0.0313  0.3238 -0.4950
 3061SOL    HW120907   1.481   0.675   5.638  1.2493 -2.3320 -1.1966
 3061SOL    HW220908   1.576   0.783   5.684 -0.8371  0.1947 -2.5326
 3062SOL     OW20909   7.194   1.182   4.710 -0.0869 -0.1968  0.4935
 3062SOL    HW120910   7.165   1.102   4.754 -2.4910  1.2849  1.7927
 3062SOL    HW220911   7.213   1.243   4.781  0.4374  0.8148 -0.4807
 3063SOL     OW20912   1.156   9.079   8.153 -0.7074 -0.2414  0.1328
 3063SOL    HW120913   1.072   9.125   8.155 -1.7641 -2.1008  1.4133
 3063SOL    HW220914   1.213   9.137   8.103 -2.0675  2.1955  1.2071
 3064SOL     OW20915   0.280   1.032   8.094  0.4610  0.4105 -0.4930
 3064SOL    HW120916   0.333   1.092   8.147 -1.5233  0.1264  2.0172
 3064SOL    HW220917   0.318   0.946   8.112 -0.3653  0.2846  0.7581
 3065SOL     OW20918   2.671   0.190   9.894  0.5512 -0.0739 -0.3657
 3065SOL    HW120919   2.678   0.095   9.885  0.3507 -0.3308  1.6925
 3065SOL    HW220920   2.590   0.204   9.942 -0.2349  1.2745 -1.9895
 3066SOL     OW20921   3.256   8.477   8.801  0.5950  0.1689  0.0012
 3066SOL    HW120922   3.192   8.508   8.865  2.0254 -0.4182  1.8062
 3066SOL    HW220923   3.230   8.387   8.783 -1.3502  1.0969 -2.3613
 3067SOL     OW20924   3.581   2.245   7.490  0.6879  0.3135 -0.1839
 3067SOL    HW120925   3.552   2.270   7.402  1.1411 -0.8706 -0.6876
 3067SOL    HW220926   3.676   2.258   7.488  0.5188  2.0841  0.7641
 3068SOL     OW20927   4.785  11.334   1.833  0.7629 -0.3712  0.7443
 3068SOL    HW120928   4.759  11.242   1.845  0.8433 -0.9168 -2.5475
 3068SOL    HW220929   4.855  11.331   1.768 -0.0985  2.1243 -0.4070
 3069SOL     OW20930   8.719   1.428   7.317 -0.6167 -0.2317  0.1343
 3069SOL    HW120931   8.682   1.401   7.233 -0.2624 -2.3389  0.6073
 3069SOL    HW220932   8.664   1.385   7.382  0.2268 -0.1246  0.9378
 3070SOL     OW20933   2.911   9.678  11.736  0.0272 -0.8747  0.1500
 3070SOL    HW120934   2.911   9.583  11.746  0.4112 -0.7689  1.2629
 3070SOL    HW220935   2.820   9.700  11.718 -0.1378 -1.4153  0.3042
 3071SOL     OW20936   8.187   0.109  10.924 -0.8193 -0.3410  0.2468
 3071SOL    HW120937   8.215   0.021  10.900  1.0214  0.4699 -0.7548
 3071SOL    HW220938   8.266   0.151  10.959 -1.1098  1.5580 -1.2156
 3072SOL     OW20939   8.380   2.892  11.070 -0.0188  0.3488  0.1132
 3072SOL    HW120940   8.358   2.976  11.029  1.5539 -0.0876 -1.7800
 3072SOL    HW220941   8.322   2.829  11.029 -0.5286  0.3453  0.8220
 3073SOL     OW20942   7.264   3.426   9.604  0.3289 -0.1096  0.2927
 3073SOL    HW120943   7.211   3.505   9.592 -1.7541 -1.0973  2.2536
 3073SOL    HW220944   7.253   3.377   9.522  1.3020  1.3594 -0.7741
 3074SOL     OW20945   1.685   5.435   8.950  0.2547 -0.1884  0.0410
 3074SOL    HW120946   1.679   5.435   8.855 -1.5264  0.1011  0.1208
 3074SOL    HW220947   1.721   5.521   8.972 -0.3106  0.1523 -0.3381
 3075SOL     OW20948   7.049  11.849   8.387 -0.2121 -0.3699 -0.2300
 3075SOL    HW120949   7.111  11.908   8.430 -0.3396 -0.4377  0.0487
 3075SOL    HW220950   7.047  11.772   8.443 -1.2755  0.0169  0.2990
 3076SOL     OW20951   0.205   3.228   4.222 -0.3705 -0.1247  0.2197
 3076SOL    HW120952   0.299   3.249   4.222 -0.3983  0.0260  0.8289
 3076SOL    HW220953   0.203   3.133   4.238 -0.3222 -0.1218  0.2451
 3077SOL     OW20954   7.706   5.092  11.682  0.9916  0.0889  0.0356
 3077SOL    HW120955   7.721   5.107  11.775 -1.5362  1.2231  0.3390
 3077SOL    HW220956   7.639   5.024  11.678  1.6924 -0.5820 -1.0200
 3078SOL     OW20957   3.436   5.034   9.274  0.0276 -0.1910  0.2061
 3078SOL    HW120958   3.508   5.015   9.214 -0.5571  0.9639 -0.9047
 3078SOL    HW220959   3.474   5.093   9.339  0.9372 -2.2530  1.6654
 3079SOL     OW20960   4.315   6.277   3.542  0.4713  0.3459 -0.8185
 3079SOL    HW120961   4.387   6.300   3.483 -1.0351  1.3448 -2.3533
 3079SOL    HW220962   4.279   6.361   3.571  0.1612 -0.1353  0.2490
 3080SOL     OW20963   5.138   7.580   9.874  0.1102 -0.0130  0.6278
 3080SOL    HW120964   5.178   7.505   9.919 -0.1999  0.5498  1.8855
 3080SOL    HW220965   5.192   7.654   9.900  1.0582  0.1015 -1.4465
 3081SOL     OW20966   2.974   8.189   7.913 -0.3304  0.5314 -0.2464
 3081SOL    HW120967   2.899   8.139   7.883 -0.8659  0.5472  1.0151
 3081SOL    HW220968   3.047   8.127   7.914 -0.9873 -0.2689  1.3202
 3082SOL     OW20969   3.379   1.402   2.347 -0.7587  0.2285  0.1532
 3082SOL    HW120970   3.322   1.412   2.270  0.3354  0.6265 -0.6401
 3082SOL    HW220971   3.463   1.439   2.319  0.1048 -0.9654  1.0558
 3083SOL     OW20972   5.083  10.562   4.956 -0.3517  0.0934  0.3510
 3083SOL    HW120973   5.091  10.472   4.988 -0.0853  0.1080  0.3283
 3083SOL    HW220974   5.117  10.558   4.866  1.2378  0.5427  0.9025
 3084SOL     OW20975   1.480   2.086   5.569  0.1807  0.3086  0.0855
 3084SOL    HW120976   1.514   2.000   5.545  0.9940  0.7625 -0.4717
 3084SOL    HW220977   1.502   2.097   5.661 -1.6481 -0.8571  0.6913
 3085SOL     OW20978  11.939   8.029   7.775 -0.6672  0.5203  0.4284
 3085SOL    HW120979  11.934   8.121   7.804 -0.2283  0.0441  2.1724
 3085SOL    HW220980  12.031   8.005   7.789 -1.3488 -1.0224  2.9638
 3086SOL     OW20981   2.787   3.180  10.177 -0.2478  0.2502  0.4999
 3086SOL    HW120982   2.768   3.240  10.249 -0.0853  0.4214  0.4007
 3086SOL    HW220983   2.763   3.229  10.099 -1.9684 -0.5123  0.5051
 3087SOL     OW20984  11.715   9.722   6.756 -0.0834  0.4451 -0.3246
 3087SOL    HW120985  11.686   9.803   6.799 -1.3792 -1.2827  2.3063
 3087SOL    HW220986  11.788   9.691   6.810  1.8797  0.8843 -2.5764
 3088SOL     OW20987   7.272   9.639   5.410  0.1780  0.0873 -0.0284
 3088SOL    HW120988   7.324   9.717   5.390 -0.7850  1.0780  1.2082
 3088SOL    HW220989   7.314   9.601   5.487 -0.3827  0.3660  0.4150
 3089SOL     OW20990   4.935   4.338   5.234 -0.0802 -0.0184 -1.0678
 3089SOL    HW120991   4.899   4.269   5.180 -1.3935 -0.4222  0.2381
 3089SOL    HW220992   4.870   4.409   5.229 -0.4602 -0.2399  0.2936
 3090SOL     OW20993  11.468   3.401   8.905 -0.3608  0.3166  0.1077
 3090SOL    HW120994  11.445   3.370   8.817 -0.7376 -0.4689  0.4741
 3090SOL    HW220995  11.493   3.493   8.892 -2.2002  0.7680 -0.5554
 3091SOL     OW20996   9.586   5.935   4.587 -0.0665  0.3055  0.1165
 3091SOL    HW120997   9.555   6.021   4.613 -0.0559  1.0028 -1.9607
 3091SOL    HW220998   9.508   5.879   4.588 -0.7274  1.1282 -1.4681
 3092SOL     OW20999   9.671   0.204   3.569  0.2126 -0.4542 -0.3355
 3092SOL    HW121000   9.726   0.161   3.503 -1.3273 -0.5903 -1.6111
 3092SOL    HW221001   9.636   0.131   3.622 -1.0882 -0.6844 -1.4517
 3093SOL     OW21002   4.131   8.311   4.100  0.4841  0.4233 -0.3831
 3093SOL    HW121003   4.207   8.363   4.124  1.0571 -0.5219 -0.0930
 3093SOL    HW221004   4.150   8.224   4.134 -1.2055  0.4125  0.6470
 3094SOL     OW21005   5.723   3.422   7.514 -0.0726  0.0417 -0.1378
 3094SOL    HW121006   5.785   3.408   7.443 -0.4438 -2.0981 -0.0916
 3094SOL    HW221007   5.659   3.483   7.478  0.2236 -0.3205 -1.3328
 3095SOL     OW21008   1.249   8.956   1.819  0.0761  0.0752  0.4528
 3095SOL    HW121009   1.271   8.881   1.763 -0.3974  0.7182 -0.6278
 3095SOL    HW221010   1.320   8.960   1.883  1.2903  0.0463 -0.8488
 3096SOL     OW21011   2.127  11.031   5.860  0.3207  0.1751  0.2021
 3096SOL    HW121012   2.186  11.023   5.936  0.5916 -0.4437 -0.0719
 3096SOL    HW221013   2.173  11.092   5.802 -0.0227  0.8813  0.6548
 3097SOL     OW21014  11.202   4.601   2.364 -0.0039  0.6955 -0.5304
 3097SOL    HW121015  11.198   4.667   2.434  1.4620  0.3464 -0.0843
 3097SOL    HW221016  11.296   4.593   2.344 -0.0419 -1.8163 -0.0098
 3098SOL     OW21017  11.864   0.203   5.132  0.7631 -0.0084  0.0837
 3098SOL    HW121018  11.894   0.144   5.063 -1.5203  0.6726 -1.6227
 3098SOL    HW221019  11.799   0.152   5.180  0.7692  0.2361  0.3499
 3099SOL     OW21020   4.935  10.604  10.840 -0.6365 -0.4665  0.2960
 3099SOL    HW121021   4.983  10.686  10.851 -1.8468  0.4042 -0.6379
 3099SOL    HW221022   4.953  10.555  10.921  0.1121  0.7128  0.8726
 3100SOL     OW21023   3.714  11.225  11.722  0.6617 -0.3657 -0.0247
 3100SOL    HW121024   3.735  11.297  11.781 -3.4134  0.4519  0.6868
 3100SOL    HW221025   3.768  11.241  11.644 -0.3428  3.7473 -0.0793
 3101SOL     OW21026   7.372   1.838  11.582 -0.2029  0.4825 -0.0149
 3101SOL    HW121027   7.375   1.931  11.605 -0.1762  0.7979 -1.1909
 3101SOL    HW221028   7.433   1.796  11.642 -1.3566  0.9640  1.5670
 3102SOL     OW21029   9.412   4.983   5.292  0.3332  0.4606  0.6823
 3102SOL    HW121030   9.396   4.930   5.370  0.6472  1.6801  1.6013
 3102SOL    HW221031   9.458   5.060   5.324 -0.4098  1.4655 -0.5671
 3103SOL     OW21032   7.323   1.958   8.838  0.3883  0.0036 -0.3206
 3103SOL    HW121033   7.310   1.895   8.767 -2.2963  0.9497 -0.7969
 3103SOL    HW221034   7.391   1.919   8.892  0.3235 -2.2723 -1.7235
 3104SOL     OW21035   9.748   8.093  11.331  0.8110  0.3717 -1.1613
 3104SOL    HW121036   9.753   8.005  11.294 -1.9807 -0.6949  0.6467
 3104SOL    HW221037   9.799   8.089  11.412 -1.7181 -0.6741  0.5294
 3105SOL     OW21038   2.981   4.097   0.355 -0.3109 -0.1000  0.3014
 3105SOL    HW121039   2.886   4.112   0.353 -0.2177  0.6891  1.1824
 3105SOL    HW221040   2.992   4.018   0.407 -0.4936 -0.2611  0.0979
 3106SOL     OW21041   3.295   0.518   4.547  0.0539 -0.3550 -0.1076
 3106SOL    HW121042   3.250   0.599   4.571 -0.5194 -0.9110  0.7131
 3106SOL    HW221043   3.232   0.448   4.567  0.4014 -0.9872 -1.1454
 3107SOL     OW21044   2.654   3.744   9.456  0.0256 -0.4755 -0.2837
 3107SOL    HW121045   2.669   3.837   9.472 -1.1529 -0.7084  2.6817
 3107SOL    HW221046   2.578   3.742   9.398  1.4425  0.3658 -2.2914
 3108SOL     OW21047   4.067   8.228  10.038  0.0778  0.1439  1.0103
 3108SOL    HW121048   4.022   8.172  10.102  0.6888 -1.9041 -0.2377
 3108SOL    HW221049   4.003   8.244   9.970  0.7368 -1.6390 -0.1020
 3109SOL     OW21050  10.288  10.416   3.345 -0.9465 -0.3105  0.3566
 3109SOL    HW121051  10.262  10.479   3.412  1.1099  0.0398  0.9132
 3109SOL    HW221052  10.371  10.380   3.377  0.8577  0.8559 -2.5477
 3110SOL     OW21053   4.421  11.286  11.404 -0.2259 -0.3408  0.2545
 3110SOL    HW121054   4.348  11.260  11.348 -1.3611 -0.2023  1.6213
 3110SOL    HW221055   4.382  11.300  11.490  1.7003 -2.1327  1.5363
 3111SOL     OW21056   5.470   1.079   1.106 -0.1741  0.1702 -0.2521
 3111SOL    HW121057   5.543   1.032   1.146 -2.4673 -1.2878  2.6378
 3111SOL    HW221058   5.472   1.053   1.014  3.4283  1.0347 -0.5886
 3112SOL     OW21059   5.350   6.854   7.228 -0.0395  0.5580  0.2658
 3112SOL    HW121060   5.358   6.943   7.262  0.6799  0.9771 -0.9345
 3112SOL    HW221061   5.440   6.822   7.222 -0.1688  0.3540 -0.8233
 3113SOL     OW21062  11.370  10.244   7.247 -0.8256  0.0451  0.5322
 3113SOL    HW121063  11.336  10.333   7.244 -0.3070  0.2218 -0.2104
 3113SOL    HW221064  11.314  10.199   7.311 -1.9591  0.5302 -0.1069
 3114SOL     OW21065   8.312   0.272  11.825  0.0809 -0.1550 -0.1000
 3114SOL    HW121066   8.340   0.329  11.753 -0.1908  1.0381  0.7067
 3114SOL    HW221067   8.217   0.268  11.818  0.0199  0.2687  0.3944
 3115SOL     OW21068   8.478   0.749   4.069  0.0287 -0.3272 -0.2778
 3115SOL    HW121069   8.480   0.844   4.086 -0.3675 -0.1645 -1.0917
 3115SOL    HW221070   8.515   0.740   3.981 -1.1967 -0.7814 -0.7673
 3116SOL     OW21071   3.000   0.169   8.680 -0.2261  0.8219 -0.2155
 3116SOL    HW121072   2.977   0.150   8.771 -0.6892 -0.5036 -0.5829
 3116SOL    HW221073   3.055   0.095   8.654  0.5031  1.5549 -0.8077
 3117SOL     OW21074   3.383  10.130   3.522  0.6779 -0.2520  0.1714
 3117SOL    HW121075   3.384  10.141   3.617  0.4678  0.3145  0.1117
 3117SOL    HW221076   3.440  10.056   3.506  0.3621 -0.6385  0.7795
 3118SOL     OW21077  10.037  10.911  11.261 -0.0348 -0.3798  0.0064
 3118SOL    HW121078   9.996  10.930  11.176 -0.0529 -1.9201 -0.3535
 3118SOL    HW221079  10.125  10.882  11.239  0.6574  1.1083  0.6695
 3119SOL     OW21080   6.928   8.378   9.824 -0.0481  0.8208 -0.3617
 3119SOL    HW121081   6.900   8.313   9.889  2.2872 -0.1750 -0.2419
 3119SOL    HW221082   6.857   8.380   9.760 -0.9050 -0.6602  0.4776
 3120SOL     OW21083   6.974   0.840  10.958 -0.5339  0.3482  0.1004
 3120SOL    HW121084   6.963   0.831  11.053  0.2491 -0.0860  0.1596
 3120SOL    HW221085   7.057   0.797  10.940  0.0922  1.7686 -0.5692
 3121SOL     OW21086   9.344   0.739   0.493  0.0339 -0.2136  0.3676
 3121SOL    HW121087   9.358   0.690   0.413 -0.4726 -1.8895  1.2595
 3121SOL    HW221088   9.420   0.798   0.499 -0.3283  0.5312 -1.7071
 3122SOL     OW21089   7.543   7.171   8.883 -0.1861  0.1306  0.1781
 3122SOL    HW121090   7.564   7.252   8.837 -0.6649 -0.0833 -0.4407
 3122SOL    HW221091   7.628   7.138   8.913  0.1539  0.2544 -0.6113
 3123SOL     OW21092  10.927   9.110   7.541 -0.1240 -0.0213 -0.2335
 3123SOL    HW121093  10.957   9.201   7.543  1.5532 -0.5404  1.0600
 3123SOL    HW221094  10.860   9.105   7.609 -0.6784  0.3820 -0.7450
 3124SOL     OW21095   6.711   3.565   6.403  0.0599 -0.5299  0.0028
 3124SOL    HW121096   6.698   3.659   6.390  0.7636 -0.1596  1.7539
 3124SOL    HW221097   6.687   3.549   6.494  1.4770 -1.7452  0.2103
 3125SOL     OW21098   7.074   1.902  10.880  0.1373 -0.3961 -0.3898
 3125SOL    HW121099   7.166   1.914  10.901  0.0126 -0.1155  0.0043
 3125SOL    HW221100   7.040   1.991  10.870 -0.2198 -0.4810  0.0407
 3126SOL     OW21101   2.412   4.018   0.484  0.0073  0.8520 -0.2444
 3126SOL    HW121102   2.460   4.003   0.566 -1.2320 -0.8753  0.2216
 3126SOL    HW221103   2.461   4.088   0.440  1.9029  0.4042  1.0157
 3127SOL     OW21104   7.500   6.472   0.885 -0.3321  0.0089  0.1599
 3127SOL    HW121105   7.488   6.377   0.892  1.4044 -0.2565 -0.0336
 3127SOL    HW221106   7.575   6.491   0.940 -0.2981  1.2001 -0.2739
 3128SOL     OW21107   8.229   6.833   8.462  0.3013  0.1986 -0.0666
 3128SOL    HW121108   8.138   6.861   8.457  0.3574  0.6827  1.2988
 3128SOL    HW221109   8.226   6.737   8.455 -0.2129  0.2678 -0.9306
 3129SOL     OW21110   4.720   5.123   3.818  0.1498 -0.1327 -0.6400
 3129SOL    HW121111   4.767   5.075   3.887 -0.8438  2.0673  1.7311
 3129SOL    HW221112   4.686   5.054   3.761  1.2175 -2.0804  0.9153
 3130SOL     OW21113  11.323   5.167  11.337  0.4177 -0.3060 -0.0137
 3130SOL    HW121114  11.293   5.188  11.426 -1.1638  0.7932 -0.7615
 3130SOL    HW221115  11.351   5.075  11.343  1.0978 -0.0252  1.7892
 3131SOL     OW21116   8.987   9.134  11.025  0.0236  0.6718  0.6229
 3131SOL    HW121117   9.049   9.085  10.971 -1.6089 -0.2907 -0.4652
 3131SOL    HW221118   8.977   9.218  10.981 -0.0776  0.5122  0.3425
 3132SOL     OW21119   3.172   7.608   6.148 -0.0090 -0.5635 -0.1199
 3132SOL    HW121120   3.133   7.520   6.151  0.1589 -0.6179  1.1483
 3132SOL    HW221121   3.097   7.667   6.140 -0.2211 -0.7746  0.2469
 3133SOL     OW21122   8.773   9.030   5.884 -0.0891  0.1680  0.1261
 3133SOL    HW121123   8.822   9.094   5.936 -1.1992  1.9926 -0.9555
 3133SOL    HW221124   8.692   9.017   5.932 -1.0706  1.7737 -1.0010
 3134SOL     OW21125   6.362  11.622  11.357  0.6894 -0.5754  0.0023
 3134SOL    HW121126   6.425  11.557  11.324 -0.8127 -1.6139 -0.9445
 3134SOL    HW221127   6.304  11.571  11.415 -1.4828 -0.5119 -1.9693
 3135SOL     OW21128   4.866   7.916   3.408  0.5957  0.0721  0.0827
 3135SOL    HW121129   4.941   7.961   3.448  0.8802 -0.1428 -0.2072
 3135SOL    HW221130   4.896   7.826   3.394  0.0959 -0.1573  0.4704
 3136SOL     OW21131   0.918   2.528   8.313 -0.3022 -0.1146  0.0919
 3136SOL    HW121132   0.893   2.612   8.351  0.6233 -0.8381  2.5231
 3136SOL    HW221133   0.875   2.526   8.228 -0.6219  2.6487  0.1008
 3137SOL     OW21134   4.247   1.048   8.208 -0.0387 -0.3998  0.3960
 3137SOL    HW121135   4.318   1.103   8.175 -1.0960 -0.0170 -1.3711
 3137SOL    HW221136   4.202   1.102   8.273  0.3806 -0.0854  0.4225
 3138SOL     OW21137   7.882   9.026  10.422 -0.5411 -0.5416  0.3237
 3138SOL    HW121138   7.943   9.002  10.492 -0.7727 -0.1726  0.6547
 3138SOL    HW221139   7.806   9.062  10.467 -1.5545 -2.1380 -0.0220
 3139SOL     OW21140   5.220  11.348   1.996  0.6887  0.0049  0.7490
 3139SOL    HW121141   5.299  11.331   2.048  0.2018 -0.1400  1.4578
 3139SOL    HW221142   5.154  11.375   2.060 -0.3872 -1.7067  0.4480
 3140SOL     OW21143   4.833   7.631   3.599  0.5542 -0.3190 -0.1533
 3140SOL    HW121144   4.749   7.588   3.583  0.0445  0.4676  0.3467
 3140SOL    HW221145   4.872   7.640   3.512 -0.7049  0.9514 -0.6256
 3141SOL     OW21146   1.494   1.027   1.198  0.8785 -0.4329  0.0251
 3141SOL    HW121147   1.547   1.079   1.138  1.7928 -0.3002  0.9186
 3141SOL    HW221148   1.424   0.991   1.144  2.1599 -1.0128 -1.2918
 3142SOL     OW21149   3.217   9.823   9.989  0.3366  0.1266  0.3598
 3142SOL    HW121150   3.203   9.803   9.896 -0.1646 -1.8871  0.8241
 3142SOL    HW221151   3.313   9.820   9.999  0.5247  2.1123 -0.4052
 3143SOL     OW21152   9.393   0.567   5.722  0.1258  0.7267 -0.7750
 3143SOL    HW121153   9.446   0.627   5.774  0.1095  0.0206  0.0810
 3143SOL    HW221154   9.436   0.566   5.636  2.0481 -0.4603  0.1221
 3144SOL     OW21155   9.268   4.894   7.261 -0.9792  0.0978 -0.7727
 3144SOL    HW121156   9.331   4.867   7.194 -1.1129  1.2766 -1.4144
 3144SOL    HW221157   9.321   4.932   7.331 -0.8406 -1.1117 -0.2051
 3145SOL     OW21158  10.684   3.790   7.423  0.6533 -0.4844  0.6125
 3145SOL    HW121159  10.621   3.731   7.463  0.3958 -0.3899  0.3524
 3145SOL    HW221160  10.731   3.736   7.360  0.2898 -0.3756  0.2391
 3146SOL     OW21161  10.847   7.790   6.077 -0.1123  0.5559 -0.5192
 3146SOL    HW121162  10.881   7.731   6.144  1.6198  0.4223 -1.4410
 3146SOL    HW221163  10.868   7.878   6.111  0.2087  0.5116 -0.5984
 3147SOL     OW21164   1.425   3.664   4.271 -0.5877  0.1124  0.5013
 3147SOL    HW121165   1.514   3.678   4.241 -0.3154  1.0554  1.6611
 3147SOL    HW221166   1.415   3.569   4.274 -0.3646 -0.0248 -1.6745
 3148SOL     OW21167   4.262   1.515   6.240  0.3110 -0.6065  0.3469
 3148SOL    HW121168   4.322   1.449   6.274  0.9611 -0.2224 -0.0252
 3148SOL    HW221169   4.201   1.531   6.312  0.4279 -1.2699  0.6010
 3149SOL     OW21170   3.129   1.301   7.783 -0.0407 -0.1126 -0.3860
 3149SOL    HW121171   3.130   1.272   7.692  0.4494  2.4932 -1.3086
 3149SOL    HW221172   3.216   1.279   7.816  0.6247  0.9555 -1.3289
 3150SOL     OW21173   7.217   2.895   5.093  0.4292  0.8737  0.0588
 3150SOL    HW121174   7.212   2.828   5.161 -1.6078  1.0005  0.0759
 3150SOL    HW221175   7.287   2.865   5.035  0.7386 -0.3471  1.0245
 3151SOL     OW21176   5.862   2.511   6.089 -0.7751 -0.3321 -0.9549
 3151SOL    HW121177   5.856   2.584   6.027  0.3809  0.2147 -0.4589
 3151SOL    HW221178   5.814   2.539   6.166  0.4557  0.3253 -0.4007
 3152SOL     OW21179   4.532   9.142   9.939 -0.2254  0.0515  0.6891
 3152SOL    HW121180   4.523   9.189   9.856 -0.6211 -0.9230  0.1625
 3152SOL    HW221181   4.625   9.118   9.943 -0.6198 -1.9888 -0.6831
 3153SOL     OW21182   9.467   1.824   6.630 -0.7297  0.2516 -0.3574
 3153SOL    HW121183   9.440   1.759   6.695 -1.1527  1.0976  0.3275
 3153SOL    HW221184   9.461   1.908   6.675 -1.7709  0.9465 -1.7065
 3154SOL     OW21185   0.917  11.691   8.079  0.2676  1.0435 -0.1361
 3154SOL    HW121186   0.924  11.690   8.174 -0.3499  1.6955 -0.0798
 3154SOL    HW221187   0.988  11.748   8.050 -0.1563  1.6561  0.0015
 3155SOL     OW21188   5.270   0.357  11.501 -0.1971 -0.2173 -0.1999
 3155SOL    HW121189   5.340   0.302  11.468  0.6572  1.9457 -2.3201
 3155SOL    HW221190   5.192   0.301  11.498  0.6574 -1.4121 -1.9692
 3156SOL     OW21191   6.419   7.038   3.119  0.2045  0.3665 -0.6418
 3156SOL    HW121192   6.418   7.117   3.065 -0.8042 -0.7055 -2.2803
 3156SOL    HW221193   6.326   7.022   3.139  0.3783 -0.5261 -0.5228
 3157SOL     OW21194   3.254   5.437   5.734  0.5915 -0.7298 -0.0228
 3157SOL    HW121195   3.241   5.389   5.816 -1.2271 -1.3526 -0.6094
 3157SOL    HW221196   3.171   5.427   5.688  1.2516  0.4023 -1.5416
 3158SOL     OW21197   3.608   3.322   6.588  0.1226  0.0516 -0.0566
 3158SOL    HW121198   3.590   3.304   6.496 -4.2952  0.9176  0.4116
 3158SOL    HW221199   3.609   3.236   6.630 -0.1022 -0.2229 -0.6021
 3159SOL     OW21200   7.618  10.518  10.694  0.2221 -0.1011 -0.0696
 3159SOL    HW121201   7.701  10.473  10.712  0.9482  1.2393  0.1343
 3159SOL    HW221202   7.578  10.530  10.780  0.5798  0.6056  0.0111
 3160SOL     OW21203   7.133   4.412  10.104  0.7826 -0.1226  0.3977
 3160SOL    HW121204   7.148   4.358  10.182  0.7999 -1.1705 -0.3027
 3160SOL    HW221205   7.038   4.409  10.091  1.0121 -4.3423 -2.4976
 3161SOL     OW21206   4.701   9.363   3.187 -0.1862  0.7424 -0.7013
 3161SOL    HW121207   4.658   9.424   3.246 -0.2726  1.5285 -1.5451
 3161SOL    HW221208   4.645   9.286   3.186 -1.4790  1.6609 -1.6043
 3162SOL     OW21209   8.574   9.399  11.654 -0.6080 -0.0827  0.4323
 3162SOL    HW121210   8.522   9.431  11.580 -0.2332  0.2213  0.2980
 3162SOL    HW221211   8.509   9.373  11.719 -1.0057 -1.8715 -0.6103
 3163SOL     OW21212   4.677   8.363   5.534  0.5128 -0.2679 -0.1911
 3163SOL    HW121213   4.665   8.369   5.439  3.3505 -2.0698 -0.7992
 3163SOL    HW221214   4.726   8.442   5.557  0.6257 -0.2788 -0.3904
 3164SOL     OW21215  11.564   9.252   9.507 -0.0267 -0.1018  0.2985
 3164SOL    HW121216  11.588   9.271   9.597  1.5710  2.1597 -0.5189
 3164SOL    HW221217  11.468   9.250   9.507 -0.0514 -1.4025  2.2215
 3165SOL     OW21218   0.595   4.822   8.945  0.0967 -0.5969  0.0016
 3165SOL    HW121219   0.589   4.860   8.857 -1.0276  0.0841  0.3624
 3165SOL    HW221220   0.650   4.744   8.933 -0.2174 -0.6402 -1.3496
 3166SOL     OW21221   1.755   4.986   7.492  0.1139 -0.0333 -0.4902
 3166SOL    HW121222   1.828   4.966   7.433 -0.1545  0.2015 -0.9121
 3166SOL    HW221223   1.739   5.080   7.479  0.4334  0.1552  0.4011
 3167SOL     OW21224   0.963   9.689   6.023  0.2486  0.0416 -0.9899
 3167SOL    HW121225   1.017   9.610   6.032  2.0095  1.0681 -2.0564
 3167SOL    HW221226   1.026   9.761   6.017 -1.3204  1.7064  1.0525
 3168SOL     OW21227   1.356   3.914   7.205 -0.2144  0.1976 -0.2500
 3168SOL    HW121228   1.449   3.929   7.189 -0.0836  0.0257  0.3288
 3168SOL    HW221229   1.318   4.002   7.208 -0.7203  0.2935 -3.9576
 3169SOL     OW21230   2.781   7.138   8.121 -0.5816 -0.1068 -0.7761
 3169SOL    HW121231   2.841   7.180   8.059  0.2919  0.0075  0.1308
 3169SOL    HW221232   2.741   7.210   8.169  0.0593 -0.2497 -0.0100
 3170SOL     OW21233  11.051   2.472   5.610 -0.6282 -0.3356 -0.5591
 3170SOL    HW121234  11.017   2.434   5.691  2.8866 -1.3131  0.6310
 3170SOL    HW221235  11.061   2.565   5.630  1.1028 -0.7183  0.5631
 3171SOL     OW21236   6.676   2.591  10.976  0.2622 -0.0439  0.1692
 3171SOL    HW121237   6.696   2.503  11.007  2.8589  0.4637  0.1455
 3171SOL    HW221238   6.723   2.599  10.893  0.1452  1.3775  0.2101
 3172SOL     OW21239   8.364   1.084   7.304  0.2301  0.1595 -0.3109
 3172SOL    HW121240   8.454   1.070   7.334  0.4240 -0.1110 -0.9996
 3172SOL    HW221241   8.371   1.086   7.209 -0.5408 -0.1948 -0.3808
 3173SOL     OW21242   2.969   0.670   8.037  0.4117  0.1584  0.2232
 3173SOL    HW121243   3.031   0.599   8.058 -2.3268 -2.7151 -0.5910
 3173SOL    HW221244   2.953   0.714   8.120  0.4646 -1.7026  1.2729
 3174SOL     OW21245   8.535   5.962   7.022  0.7904 -0.2210  0.7107
 3174SOL    HW121246   8.606   5.902   7.000  1.0844  0.5576 -0.5068
 3174SOL    HW221247   8.556   5.992   7.111  1.9224 -0.0930  0.4179
 3175SOL     OW21248  11.090   2.215   8.885  0.4676  0.2910 -0.3031
 3175SOL    HW121249  11.098   2.142   8.824 -0.1662 -0.4831  0.5072
 3175SOL    HW221250  11.148   2.282   8.850 -0.9449  0.4392 -2.5263
 3176SOL     OW21251  10.666   5.476  10.381 -0.8105 -0.3079 -0.2127
 3176SOL    HW121252  10.654   5.386  10.348 -1.3044 -0.3953  0.1903
 3176SOL    HW221253  10.718   5.465  10.461  0.2355 -0.1122 -0.8596
 3177SOL     OW21254  11.450  10.139   6.184  0.4804 -0.1735 -0.1279
 3177SOL    HW121255  11.399  10.114   6.107  1.3308 -1.8636 -0.1990
 3177SOL    HW221256  11.541  10.140   6.154  0.6459  1.2907  0.3526
 3178SOL     OW21257   8.161   6.684   9.643 -0.1756 -0.4634 -0.1505
 3178SOL    HW121258   8.201   6.689   9.729  1.3759  0.3316 -0.8882
 3178SOL    HW221259   8.102   6.609   9.649 -0.4812 -0.1287  1.7353
 3179SOL     OW21260   8.018   6.444   9.397 -0.6516 -0.1593 -0.4258
 3179SOL    HW121261   7.960   6.398   9.336 -0.8535  1.9056 -1.8881
 3179SOL    HW221262   7.960   6.478   9.465 -0.7255 -0.6370 -0.2464
 3180SOL     OW21263   0.627  11.159   5.930 -0.1783 -0.6905 -0.2543
 3180SOL    HW121264   0.658  11.108   5.855 -0.1355  0.4929 -1.0754
 3180SOL    HW221265   0.702  11.214   5.953 -0.0561 -1.3278  0.9347
 3181SOL     OW21266   0.147   8.424   7.985  0.3608  0.2257  0.0351
 3181SOL    HW121267   0.174   8.459   7.901  0.2592  0.8691  0.2665
 3181SOL    HW221268   0.186   8.483   8.050 -0.7332  0.5870  0.3976
 3182SOL     OW21269   8.838   2.475   2.246  0.0033  0.3268 -0.4373
 3182SOL    HW121270   8.884   2.395   2.272  3.2107  1.0875 -3.0058
 3182SOL    HW221271   8.897   2.517   2.183 -1.0870  5.2045  1.3355
 3183SOL     OW21272   7.861   7.152   3.587 -0.1040 -0.1166  0.1855
 3183SOL    HW121273   7.808   7.131   3.510  0.3378  1.3525 -0.5558
 3183SOL    HW221274   7.867   7.247   3.586  1.1219 -0.1623  1.2239
 3184SOL     OW21275   3.860   2.340   9.910 -0.0245  0.2833  0.3709
 3184SOL    HW121276   3.893   2.255   9.937 -0.5028  0.1284  0.4779
 3184SOL    HW221277   3.783   2.354   9.964 -0.4690  0.3760 -0.2703
 3185SOL     OW21278  10.567   7.910   7.779  0.4483 -0.0173 -0.3316
 3185SOL    HW121279  10.632   7.847   7.749 -0.2843 -0.6916 -0.5516
 3185SOL    HW221280  10.564   7.898   7.874  1.8796  1.2499 -0.0866
 3186SOL     OW21281   7.510  11.931  11.076  0.2603 -0.5288  0.3503
 3186SOL    HW121282   7.438  11.973  11.030  0.0235 -1.7638 -0.4310
 3186SOL    HW221283   7.559  12.004  11.115 -0.4498  0.4272 -0.5008
 3187SOL     OW21284   7.403   9.765   2.576 -0.6755 -0.4591 -0.0311
 3187SOL    HW121285   7.422   9.707   2.649 -0.3030  0.8419  0.9576
 3187SOL    HW221286   7.456   9.843   2.593 -2.6123  0.9832 -0.2342
 3188SOL     OW21287   8.377  11.487   8.465 -0.1204  0.3571  0.3446
 3188SOL    HW121288   8.337  11.445   8.388  2.5739  1.7855 -2.0548
 3188SOL    HW221289   8.304  11.532   8.508 -1.8032 -0.6550 -1.2588
 3189SOL     OW21290  10.033   7.332   1.202  0.0121 -0.6430  0.4863
 3189SOL    HW121291  10.022   7.425   1.184 -1.0096 -0.9485 -0.6570
 3189SOL    HW221292  10.127   7.316   1.192  0.0509  0.0601 -0.3929
 3190SOL     OW21293   6.210   5.038   2.978 -0.1325 -0.4627 -0.2250
 3190SOL    HW121294   6.115   5.026   2.980 -0.2263  0.2707 -0.1119
 3190SOL    HW221295   6.230   5.081   3.061  0.2283 -0.1177 -0.4868
 3191SOL     OW21296   2.731  11.423   8.392 -0.0114 -0.4293  0.3394
 3191SOL    HW121297   2.772  11.439   8.477  1.1878 -3.6318  0.5010
 3191SOL    HW221298   2.663  11.358   8.411 -0.9674  0.1866 -0.8910
 3192SOL     OW21299   5.347   3.416   3.988  0.5821 -0.3949 -0.3124
 3192SOL    HW121300   5.362   3.332   4.033 -0.0141 -1.6846 -2.3981
 3192SOL    HW221301   5.253   3.431   3.996  0.7771  0.4719  0.6308
 3193SOL     OW21302   4.458   4.651   5.552  0.2120  0.0876 -0.0042
 3193SOL    HW121303   4.488   4.631   5.641  0.5553 -2.3340 -0.5698
 3193SOL    HW221304   4.527   4.705   5.515  1.5249 -1.2660  0.3362
 3194SOL     OW21305   8.997   8.471   4.981  0.2503  0.1963  0.1382
 3194SOL    HW121306   8.937   8.538   4.950  2.7225  1.5649 -2.1370
 3194SOL    HW221307   9.081   8.517   4.990  1.3885 -1.9743  1.3916
 3195SOL     OW21308  10.979   0.840  11.903 -0.1628 -0.3386 -0.1366
 3195SOL    HW121309  11.068   0.871  11.915 -0.3819 -0.0197  0.7409
 3195SOL    HW221310  10.958   0.794  11.985 -1.5825  1.5602  0.6329
 3196SOL     OW21311   7.830   5.280   8.590 -0.4904  0.3655 -0.0376
 3196SOL    HW121312   7.799   5.356   8.640 -0.1042  0.0618  0.6847
 3196SOL    HW221313   7.750   5.237   8.560 -0.7315  0.5302  0.3618
 3197SOL     OW21314   5.597   3.802  11.933  0.2178 -0.4470 -0.8822
 3197SOL    HW121315   5.556   3.720  11.906 -1.8323  0.6698 -1.3316
 3197SOL    HW221316   5.681   3.776  11.970 -0.2174 -2.7040 -1.3695
 3198SOL     OW21317   4.613   6.271   5.030 -0.1322 -0.3374  0.1178
 3198SOL    HW121318   4.553   6.209   4.989  0.5646 -0.0252 -1.4606
 3198SOL    HW221319   4.621   6.342   4.967  0.9562  0.2026  0.8301
 3199SOL     OW21320   7.673   1.422   8.920  0.0477  0.4076  0.1719
 3199SOL    HW121321   7.616   1.466   8.857  0.5831 -0.2078 -0.7476
 3199SOL    HW221322   7.634   1.335   8.931  1.7461 -0.6966 -1.8384
 3200SOL     OW21323   8.256   5.164   6.229 -0.0441 -0.2495 -0.3480
 3200SOL    HW121324   8.189   5.232   6.227 -0.2575 -0.4748 -1.4291
 3200SOL    HW221325   8.339   5.212   6.231 -0.2017  0.0409 -0.7341
 3201SOL     OW21326   3.299   4.369   7.522  0.1375  0.1209 -0.2952
 3201SOL    HW121327   3.267   4.278   7.526  0.9767 -0.1638  0.1027
 3201SOL    HW221328   3.219   4.422   7.526 -0.4027 -0.6015 -1.0744
 3202SOL     OW21329  11.241   2.067   9.367  0.3577 -0.2322  0.2364
 3202SOL    HW121330  11.210   2.101   9.283 -1.9071 -0.3327  0.9438
 3202SOL    HW221331  11.248   2.144   9.424  2.0772 -0.1383 -0.0611
 3203SOL     OW21332   7.419  11.569   2.608 -0.0113 -0.3541 -0.5597
 3203SOL    HW121333   7.419  11.495   2.668 -0.6265  0.4602  0.4931
 3203SOL    HW221334   7.452  11.534   2.525  2.7671 -1.0870  0.7581
 3204SOL     OW21335   0.740   0.003   7.387  0.4385 -0.2601  0.4609
 3204SOL    HW121336   0.667   0.027   7.444  1.4334  0.0619  1.6271
 3204SOL    HW221337   0.771  -0.081   7.421  2.1672  0.7761  1.5508
 3205SOL     OW21338   1.195   3.714   5.319 -0.6927  0.1616  0.8605
 3205SOL    HW121339   1.113   3.691   5.363 -1.1739 -0.9173 -0.5274
 3205SOL    HW221340   1.185   3.680   5.230  0.1538  2.4829 -0.1919
 3206SOL     OW21341   7.400  11.829  10.481 -0.0380 -0.0317 -0.5570
 3206SOL    HW121342   7.360  11.823  10.567 -3.8356 -2.9083 -2.2251
 3206SOL    HW221343   7.341  11.886  10.431  0.2619 -0.9269 -2.0166
 3207SOL     OW21344  11.096  11.667   8.790 -0.0255  0.0769  0.6053
 3207SOL    HW121345  11.096  11.669   8.694  0.2862 -0.2381  0.5978
 3207SOL    HW221346  11.006  11.691   8.814 -0.4155 -0.8984  0.2024
 3208SOL     OW21347   6.586   1.550   7.407 -0.5375 -0.2401  0.1511
 3208SOL    HW121348   6.588   1.583   7.317 -1.5252 -0.5250  0.0214
 3208SOL    HW221349   6.575   1.628   7.461 -0.0641 -0.0825  0.0306
 3209SOL     OW21350  10.731   9.897   7.602  0.0450 -0.3719  0.3358
 3209SOL    HW121351  10.659   9.898   7.666 -0.2630  0.6246 -0.0035
 3209SOL    HW221352  10.738   9.806   7.576 -1.3450 -0.4498  0.1304
 3210SOL     OW21353   2.325   9.165   2.803 -0.1424  0.1760  0.3969
 3210SOL    HW121354   2.260   9.094   2.808  1.0999 -1.1374 -1.0079
 3210SOL    HW221355   2.273   9.245   2.796 -1.6123 -0.7868 -0.1688
 3211SOL     OW21356   1.498   2.302   7.619 -0.2761  0.2612 -0.3364
 3211SOL    HW121357   1.443   2.365   7.572  0.1976 -0.2609 -1.6260
 3211SOL    HW221358   1.506   2.228   7.560  3.1116  0.9544 -0.9435
 3212SOL     OW21359   4.179  10.593  10.158 -0.2621  0.0368 -0.1993
 3212SOL    HW121360   4.118  10.625  10.092 -0.3977  1.0375  0.3885
 3212SOL    HW221361   4.183  10.663  10.223 -1.7451 -1.7174  1.9412
 3213SOL     OW21362  11.091   3.198  10.818 -0.0410 -0.2598  0.3246
 3213SOL    HW121363  11.034   3.162  10.885  1.5337 -3.5075  0.1261
 3213SOL    HW221364  11.037   3.261  10.771 -2.1766 -0.2925  2.5514
 3214SOL     OW21365   7.020   5.017   4.357  0.0353  0.2533 -0.0536
 3214SOL    HW121366   6.987   4.946   4.303 -0.3060  1.5564 -1.6563
 3214SOL    HW221367   7.089   5.057   4.304  0.5211  0.8382  0.9925
 3215SOL     OW21368   8.470   4.713   9.822 -0.2606  0.1144  0.0941
 3215SOL    HW121369   8.477   4.737   9.914  0.5652 -0.2551  0.1340
 3215SOL    HW221370   8.466   4.617   9.822  0.8268  0.0543 -0.3021
 3216SOL     OW21371   8.555   9.712   8.705 -0.3583 -0.0336  0.2025
 3216SOL    HW121372   8.532   9.713   8.612  1.9070  2.2277 -0.4431
 3216SOL    HW221373   8.507   9.785   8.743 -1.0359 -0.7623  0.8006
 3217SOL     OW21374   4.142   0.607   6.988 -0.1749  0.4417 -0.0889
 3217SOL    HW121375   4.203   0.542   7.023 -1.1339 -0.3853  0.0825
 3217SOL    HW221376   4.114   0.571   6.904  1.1643  1.8261 -1.1953
 3218SOL     OW21377   8.454   1.391  10.981 -0.2038 -0.8041 -0.4921
 3218SOL    HW121378   8.484   1.332  10.912 -0.5534 -0.0979 -1.2727
 3218SOL    HW221379   8.469   1.343  11.062  1.3638 -1.1771 -0.9643
 3219SOL     OW21380   0.947   0.045   5.079  0.3496 -0.3440 -0.3113
 3219SOL    HW121381   0.865   0.085   5.109  0.3785 -0.9394  0.6028
 3219SOL    HW221382   0.924  -0.046   5.062  0.8234 -0.5095 -0.0553
 3220SOL     OW21383   8.494  11.673   9.581 -0.4022  0.3474  0.7439
 3220SOL    HW121384   8.509  11.698   9.490  1.0244 -0.5738  0.6958
 3220SOL    HW221385   8.399  11.662   9.588 -0.8474  3.1198  0.1185
 3221SOL     OW21386  11.757   0.496   1.499 -0.6221  0.5196  0.3134
 3221SOL    HW121387  11.819   0.568   1.492 -0.2270  0.0566 -1.7907
 3221SOL    HW221388  11.788   0.444   1.573  1.2727  0.5520 -0.4021
 3222SOL     OW21389  10.625   3.172   3.353 -0.8135  0.2003  0.6017
 3222SOL    HW121390  10.707   3.221   3.353 -0.9745  0.5401  2.5190
 3222SOL    HW221391  10.640   3.100   3.292  0.3433  1.1435 -0.2732
 3223SOL     OW21392   4.575   5.897  11.545 -0.4194  0.8949 -0.1823
 3223SOL    HW121393   4.586   5.804  11.523  1.3408  1.5478 -2.4158
 3223SOL    HW221394   4.494   5.923  11.502  1.0847  1.2432 -3.0329
 3224SOL     OW21395   8.984   6.480   7.030  0.0933 -0.0880  0.0164
 3224SOL    HW121396   9.058   6.467   7.089  1.1906  1.3208 -1.0049
 3224SOL    HW221397   8.955   6.570   7.047  0.4568  0.3573 -1.5973
 3225SOL     OW21398   9.851   7.156   8.629 -0.0241  0.4337 -0.1572
 3225SOL    HW121399   9.913   7.214   8.585  0.2861  1.9958  2.1788
 3225SOL    HW221400   9.905   7.089   8.670  0.1657  1.5331  1.4910
 3226SOL     OW21401   5.669   2.447   1.531 -0.0123 -0.3655 -0.4658
 3226SOL    HW121402   5.700   2.413   1.447  1.1679 -1.4861  0.3808
 3226SOL    HW221403   5.580   2.479   1.513 -0.4663 -2.2019 -1.7547
 3227SOL     OW21404   5.641   3.640   7.196 -0.5474  0.8697 -0.5059
 3227SOL    HW121405   5.647   3.709   7.262  0.7433  0.2317  0.0604
 3227SOL    HW221406   5.653   3.686   7.113  0.8453  1.2684 -0.1008
 3228SOL     OW21407   1.442   8.703   9.167 -0.3455  0.3882  0.2176
 3228SOL    HW121408   1.532   8.717   9.139 -0.1055 -0.7209  0.4088
 3228SOL    HW221409   1.404   8.646   9.100 -0.0542 -1.4570  1.5469
 3229SOL     OW21410   4.701   8.205   9.843 -0.2967  0.3539  0.3391
 3229SOL    HW121411   4.655   8.249   9.772  0.3865  0.1391 -0.2440
 3229SOL    HW221412   4.757   8.141   9.799  0.6756  0.7193  1.0204
 3230SOL     OW21413   1.681   8.610   5.432 -0.4176 -0.2470  0.4308
 3230SOL    HW121414   1.763   8.600   5.383 -0.5896 -0.6906  0.2367
 3230SOL    HW221415   1.657   8.702   5.418  1.6857  0.8476  3.0397
 3231SOL     OW21416   0.484   9.519   3.463  0.4990 -0.1223 -0.1237
 3231SOL    HW121417   0.527   9.450   3.514  0.2643  0.2245  0.5464
 3231SOL    HW221418   0.541   9.530   3.386  0.0810 -1.6657 -0.6940
 3232SOL     OW21419   1.371   0.871   9.635  0.0747  0.2406  0.0976
 3232SOL    HW121420   1.380   0.843   9.544 -2.0842  0.1495 -0.1400
 3232SOL    HW221421   1.363   0.967   9.630 -0.6964  0.1805  0.1215
 3233SOL     OW21422   4.151  11.410  11.867 -0.0750  1.0027  0.0546
 3233SOL    HW121423   4.068  11.433  11.825 -0.3380  1.5803  0.8639
 3233SOL    HW221424   4.126  11.356  11.941  0.4212 -0.4129 -0.7811
 3234SOL     OW21425  10.394   7.064   6.010  0.1190 -0.0870 -0.1066
 3234SOL    HW121426  10.420   7.026   6.094  1.4577 -0.2629 -0.5827
 3234SOL    HW221427  10.428   7.154   6.013  1.3242 -0.4887 -0.9580
 3235SOL     OW21428   4.424  10.550   8.550  0.1264  0.5132 -0.2485
 3235SOL    HW121429   4.403  10.460   8.525  2.2009 -0.1419  0.1508
 3235SOL    HW221430   4.359  10.572   8.616  0.4967 -1.2708  0.7777
 3236SOL     OW21431   7.285   6.897   0.750  0.1253 -0.2648 -0.1430
 3236SOL    HW121432   7.194   6.924   0.737  0.1994 -0.3203 -0.7749
 3236SOL    HW221433   7.335   6.979   0.745  0.0231 -0.0792  1.2479
 3237SOL     OW21434   7.018   1.250   8.222 -0.0384  0.1525 -0.0200
 3237SOL    HW121435   6.976   1.187   8.280 -0.9276  1.1441  0.4281
 3237SOL    HW221436   7.056   1.196   8.152 -0.1999 -0.9248  0.7080
 3238SOL     OW21437   9.792   0.209   0.219  0.0530 -0.7579  0.4115
 3238SOL    HW121438   9.789   0.260   0.138  0.2406  0.0052  0.8795
 3238SOL    HW221439   9.743   0.130   0.199 -0.0826 -0.4825 -0.3840
 3239SOL     OW21440   9.701   3.753  10.620  0.5843 -0.0966 -0.0990
 3239SOL    HW121441   9.751   3.671  10.613 -0.4975 -0.6980 -1.2134
 3239SOL    HW221442   9.661   3.749  10.706 -1.0032 -1.7119 -0.8413
 3240SOL     OW21443   8.251   3.942   6.005  0.7633  0.3787  0.0927
 3240SOL    HW121444   8.280   3.887   6.077  0.2282  0.9987  0.7890
 3240SOL    HW221445   8.156   3.940   6.010  0.5444 -1.8627 -2.3327
 3241SOL     OW21446   2.821  10.289  10.219  0.5802 -0.2157  0.2551
 3241SOL    HW121447   2.862  10.258  10.300 -0.6294  0.7079  1.2604
 3241SOL    HW221448   2.860  10.375  10.203  2.2405 -1.1917 -1.2576
 3242SOL     OW21449   2.380   2.323   9.327 -0.3154  0.4152  0.1660
 3242SOL    HW121450   2.323   2.274   9.386  0.2272 -1.0775 -0.4947
 3242SOL    HW221451   2.379   2.273   9.245  1.6843  0.4843  0.0419
 3243SOL     OW21452   8.771   9.091  11.197 -0.3042  0.2979  0.0372
 3243SOL    HW121453   8.821   9.092  11.116 -0.3741 -1.7381 -0.0871
 3243SOL    HW221454   8.830   9.051  11.261 -0.8928  0.1693  0.5106
 3244SOL     OW21455  11.200   1.901  10.924  0.4269  0.3982  0.4796
 3244SOL    HW121456  11.255   1.823  10.928 -0.5345 -0.2860  0.9944
 3244SOL    HW221457  11.260   1.974  10.933  1.5232 -0.2077 -1.2918
 3245SOL     OW21458   9.668   6.214   8.762 -0.4970 -0.1878 -0.3725
 3245SOL    HW121459   9.761   6.219   8.741 -0.6108  0.5958 -0.7125
 3245SOL    HW221460   9.644   6.123   8.745  0.0953 -0.2719 -0.7555
 3246SOL     OW21461   8.530   5.234   9.318 -0.2506  0.7343 -0.2034
 3246SOL    HW121462   8.556   5.255   9.228  0.8371 -0.9198 -0.3177
 3246SOL    HW221463   8.597   5.275   9.372  1.3006 -1.4368 -0.3770
 3247SOL     OW21464   3.432   4.396   8.347 -0.5741 -0.5855 -0.2884
 3247SOL    HW121465   3.456   4.317   8.298  0.0635 -1.5794  1.5361
 3247SOL    HW221466   3.500   4.404   8.414 -1.4300  0.7011  0.4586
 3248SOL     OW21467  10.422   7.900   7.552 -0.3463  0.1466  0.3823
 3248SOL    HW121468  10.459   7.814   7.530  2.3930  2.1371 -4.0920
 3248SOL    HW221469  10.477   7.932   7.623 -0.5381 -1.1615  1.1652
 3249SOL     OW21470   4.713   4.372   1.805  0.4445  0.3229 -0.2277
 3249SOL    HW121471   4.708   4.363   1.710 -0.5128  1.6518 -0.3374
 3249SOL    HW221472   4.622   4.368   1.835  0.6836  0.5452  0.5708
 3250SOL     OW21473  11.164   0.055   4.617  0.0748  0.2471 -0.6539
 3250SOL    HW121474  11.116  -0.008   4.671  1.6245  1.4453  2.4029
 3250SOL    HW221475  11.196   0.003   4.543 -1.1349 -1.8447  0.1819
 3251SOL     OW21476  11.532   5.947   4.573  0.1574 -0.1645 -0.1382
 3251SOL    HW121477  11.443   5.966   4.544  0.6489 -0.9794 -2.3442
 3251SOL    HW221478  11.522   5.885   4.645 -1.0650  0.5873  0.3642
 3252SOL     OW21479  11.200   7.782   6.479 -0.3588  0.0870 -0.0237
 3252SOL    HW121480  11.227   7.865   6.518  0.1172  0.3318 -0.8505
 3252SOL    HW221481  11.105   7.785   6.477 -0.4260 -0.1426  1.5517
 3253SOL     OW21482   7.498   1.799  10.797 -0.7774  0.1644  0.1872
 3253SOL    HW121483   7.429   1.733  10.807 -0.0381 -0.5707  0.6123
 3253SOL    HW221484   7.571   1.751  10.756  0.1418  0.4401  1.4229
 3254SOL     OW21485  11.786   2.910   0.494 -0.1376  0.2303 -0.9318
 3254SOL    HW121486  11.703   2.865   0.510  1.0978 -1.3631  1.5520
 3254SOL    HW221487  11.777   2.994   0.539  0.5163 -1.0824  1.8133
 3255SOL     OW21488   7.432   1.095  11.775  0.0322 -0.1062  0.1710
 3255SOL    HW121489   7.436   1.167  11.713 -0.6152 -0.0473  0.1940
 3255SOL    HW221490   7.492   1.029  11.740  0.5688  0.4080  0.1121
 3256SOL     OW21491  10.866   7.316   5.724  0.2045  0.4652 -0.0761
 3256SOL    HW121492  10.794   7.256   5.738  1.4378 -0.9713  0.3863
 3256SOL    HW221493  10.868   7.370   5.803  0.3401 -0.2731  0.4370
 3257SOL     OW21494   2.953   4.098   4.580  0.0781 -0.1375  0.2690
 3257SOL    HW121495   2.912   4.178   4.613  1.6255  0.5568  0.6243
 3257SOL    HW221496   2.955   4.110   4.485  0.5711  0.4007  0.3389
 3258SOL     OW21497   3.602   4.450  10.949 -0.0221  0.0606  0.2793
 3258SOL    HW121498   3.616   4.506  10.872  0.0105  0.8074  0.8111
 3258SOL    HW221499   3.508   4.432  10.949  0.0469 -0.3202 -0.1830
 3259SOL     OW21500   6.547   0.320   8.017 -0.0617 -0.4148  0.3598
 3259SOL    HW121501   6.637   0.336   8.045 -0.6461  0.9564  1.6337
 3259SOL    HW221502   6.516   0.250   8.075 -0.4718  0.6573  1.4885
 3260SOL     OW21503   2.911   4.414   6.503  0.0118  0.0855 -0.9675
 3260SOL    HW121504   2.995   4.453   6.477  0.6732 -1.7191 -1.6978
 3260SOL    HW221505   2.872   4.384   6.422 -1.1838  0.5511 -0.5820
 3261SOL     OW21506   3.619   6.752   4.747  0.4068  0.2744 -0.0057
 3261SOL    HW121507   3.663   6.809   4.810 -0.9321 -0.2990  1.5495
 3261SOL    HW221508   3.681   6.681   4.731  1.5055  1.3838 -0.8338
 3262SOL     OW21509   6.762   5.247  10.997 -0.1689  0.4353 -0.6104
 3262SOL    HW121510   6.753   5.336  11.032 -2.1050 -0.4357  1.3571
 3262SOL    HW221511   6.672   5.213  10.996  0.5818 -1.6701 -0.8850
 3263SOL     OW21512   6.438  11.169   1.132 -0.0474 -0.0559 -0.3178
 3263SOL    HW121513   6.415  11.076   1.123  0.7727 -0.1738 -1.4931
 3263SOL    HW221514   6.489  11.188   1.054  0.6545  1.1343  0.4044
 3264SOL     OW21515   4.022   7.696   8.210 -0.4550 -0.0931  0.0078
 3264SOL    HW121516   3.948   7.711   8.269  0.1023  0.1351  0.6600
 3264SOL    HW221517   4.093   7.669   8.267  0.1726  0.4027 -0.5256
 3265SOL     OW21518  10.179   1.857   7.229  0.4501  0.2584 -0.6317
 3265SOL    HW121519  10.174   1.881   7.322  0.9871 -0.9127 -0.2855
 3265SOL    HW221520  10.221   1.772   7.229  0.4157  0.2310 -1.9644
 3266SOL     OW21521   5.397   6.112   7.209 -0.9758  0.5752  0.0806
 3266SOL    HW121522   5.456   6.187   7.219 -0.1926 -0.1319  0.9563
 3266SOL    HW221523   5.322   6.147   7.162  0.1450  1.5137 -1.1151
 3267SOL     OW21524   4.838   8.900  11.774  0.1666  0.0587  0.2809
 3267SOL    HW121525   4.771   8.932  11.713  1.1284 -0.2141 -0.9687
 3267SOL    HW221526   4.828   8.805  11.773 -0.6154  0.1144  1.5271
 3268SOL     OW21527   0.796   6.198   6.990 -0.3131  0.1255 -0.1493
 3268SOL    HW121528   0.749   6.220   7.071 -0.0488  0.5431 -0.1104
 3268SOL    HW221529   0.727   6.171   6.929 -0.9816  3.6058 -1.1027
 3269SOL     OW21530   6.969   1.964   8.511  0.6979  0.4483 -0.0444
 3269SOL    HW121531   6.882   1.967   8.472 -0.1043 -0.4380  1.6021
 3269SOL    HW221532   7.004   1.879   8.485  0.6092  0.3200  0.2585
 3270SOL     OW21533   5.006   8.026   0.668 -0.5329 -0.1667  0.6069
 3270SOL    HW121534   4.935   8.003   0.609 -0.1545  0.0385  0.0716
 3270SOL    HW221535   4.966   8.025   0.755 -1.2193  0.0831  0.2968
 3271SOL     OW21536   1.746   8.595   5.789  0.5113  0.4850 -0.4696
 3271SOL    HW121537   1.681   8.643   5.841 -0.5588  1.5160 -2.6133
 3271SOL    HW221538   1.706   8.510   5.772  0.6952  0.2909  0.0736
 3272SOL     OW21539   2.785   8.018  11.234 -0.0934 -0.8573  0.2886
 3272SOL    HW121540   2.852   8.013  11.166  1.3246  0.0563  1.5521
 3272SOL    HW221541   2.762   7.927  11.252 -1.5464 -1.1116 -2.3176
 3273SOL     OW21542  10.853   0.273  10.876  0.0036  0.1685  0.5439
 3273SOL    HW121543  10.821   0.278  10.967  1.4814  0.1334  1.0872
 3273SOL    HW221544  10.948   0.266  10.884  0.6097  3.8627 -1.0430
 3274SOL     OW21545   1.112   2.890   5.009 -0.6357  0.7712 -0.3415
 3274SOL    HW121546   1.115   2.943   5.089 -1.9949  0.8151 -0.3067
 3274SOL    HW221547   1.035   2.921   4.962 -0.2320  0.2751 -1.3553
 3275SOL     OW21548   6.190   6.552   3.844  0.0077 -0.0539  0.1617
 3275SOL    HW121549   6.283   6.530   3.833 -0.6355 -2.6862 -0.9787
 3275SOL    HW221550   6.189   6.624   3.907  2.8354  0.5167 -0.2982
 3276SOL     OW21551   6.846   7.773   5.912  0.7382 -0.1678  0.1517
 3276SOL    HW121552   6.889   7.695   5.876  0.5158  0.5701 -1.7902
 3276SOL    HW221553   6.758   7.744   5.933  1.2683 -0.9486  1.4386
 3277SOL     OW21554   6.515   3.886   6.621 -0.2173 -0.0077 -0.3348
 3277SOL    HW121555   6.439   3.920   6.668  0.1444  0.8550 -0.3570
 3277SOL    HW221556   6.590   3.920   6.669  0.1582  0.4599 -1.2378
 3278SOL     OW21557   2.668   5.159   6.392  0.6139  0.1574 -0.1541
 3278SOL    HW121558   2.594   5.211   6.424 -1.2869 -1.0538 -2.2272
 3278SOL    HW221559   2.666   5.079   6.444  0.1562 -0.0599 -0.4978
 3279SOL     OW21560  11.629   0.914   8.855 -0.1646 -0.3986 -0.3252
 3279SOL    HW121561  11.541   0.949   8.846 -0.7941 -1.8556 -0.1155
 3279SOL    HW221562  11.667   0.923   8.767 -0.6870 -0.1694 -0.5315
 3280SOL     OW21563   5.343   4.786   7.360  0.2053  0.4279 -0.4974
 3280SOL    HW121564   5.401   4.859   7.385  1.5485 -0.6595 -0.3171
 3280SOL    HW221565   5.326   4.800   7.267 -0.1629  1.3594 -0.3092
 3281SOL     OW21566   1.644   9.363   6.891  0.5141  0.3765  0.0113
 3281SOL    HW121567   1.564   9.311   6.896  0.6128  0.2945  0.9536
 3281SOL    HW221568   1.669   9.377   6.982  1.6716  0.2512 -0.2736
 3282SOL     OW21569   9.935   1.292   2.326  0.3888  0.6362 -0.3802
 3282SOL    HW121570   9.854   1.287   2.276  0.0327 -0.6467  0.2858
 3282SOL    HW221571   9.911   1.334   2.408  0.1999 -0.4826  0.1557
 3283SOL     OW21572   5.323   8.860   3.185 -0.1651 -0.5555 -0.0068
 3283SOL    HW121573   5.278   8.792   3.135  0.9706 -1.5959  0.3186
 3283SOL    HW221574   5.295   8.846   3.275 -0.8434  0.1865 -0.0928
 3284SOL     OW21575   6.702   2.747   8.175 -0.0304  0.0256  0.2339
 3284SOL    HW121576   6.650   2.806   8.120 -0.9379 -0.4972  0.5085
 3284SOL    HW221577   6.682   2.774   8.264  0.6053  0.1689  0.3397
 3285SOL     OW21578   3.539   6.616   0.496 -0.5202  0.5000 -0.1240
 3285SOL    HW121579   3.599   6.680   0.535 -0.6510 -0.3564  1.5874
 3285SOL    HW221580   3.452   6.653   0.510 -0.6737 -0.4548  1.8239
 3286SOL     OW21581   4.441   0.464   5.593  0.0187  0.1488 -0.0592
 3286SOL    HW121582   4.458   0.539   5.650 -0.0384 -1.3025  1.9644
 3286SOL    HW221583   4.351   0.438   5.613 -0.1928 -0.0927 -1.2217
 3287SOL     OW21584   1.993  11.004   5.030  0.3820 -0.7863 -0.6702
 3287SOL    HW121585   1.915  11.035   5.076  0.5728 -0.8127 -0.3223
 3287SOL    HW221586   1.986  10.908   5.034  0.0590 -0.7924 -1.2847
 3288SOL     OW21587   5.940   7.988   3.503  0.1476 -0.0739 -0.2892
 3288SOL    HW121588   5.893   7.997   3.420  0.6817  0.3853 -0.5445
 3288SOL    HW221589   5.885   7.929   3.555  0.5384 -1.5720 -1.5066
 3289SOL     OW21590   8.253   1.824   1.157 -0.0142  0.1221  0.1521
 3289SOL    HW121591   8.290   1.817   1.069  0.0113 -1.7989  0.2663
 3289SOL    HW221592   8.318   1.874   1.206  0.5109  0.2432 -0.6468
 3290SOL     OW21593   2.542   2.339   6.430  0.0837 -0.2962  0.2910
 3290SOL    HW121594   2.539   2.243   6.437  2.4546 -0.3806  0.9405
 3290SOL    HW221595   2.606   2.356   6.361 -1.3228  0.8609 -0.7869
 3291SOL     OW21596   4.677  11.081   1.840 -0.5795  0.0565  0.3726
 3291SOL    HW121597   4.721  10.997   1.853 -1.8085 -0.6607  0.0559
 3291SOL    HW221598   4.592  11.058   1.801 -0.7514  1.4775 -0.1590
 3292SOL     OW21599   8.613   4.830   0.703  0.3544 -0.4035 -0.1149
 3292SOL    HW121600   8.648   4.883   0.775  0.1422 -0.8561  0.3239
 3292SOL    HW221601   8.643   4.875   0.624  1.9075 -0.7483  0.2413
 3293SOL     OW21602   0.189   3.707   9.724 -0.1563  0.2649  0.0472
 3293SOL    HW121603   0.114   3.746   9.679 -0.3108 -0.2518 -0.1477
 3293SOL    HW221604   0.216   3.635   9.667 -0.4532 -0.5011  0.8407
 3294SOL     OW21605   4.345  11.305  11.667  0.3564  0.7511  0.2476
 3294SOL    HW121606   4.355  11.321  11.761 -1.0047  0.4615  0.4688
 3294SOL    HW221607   4.259  11.342  11.646  0.8778  1.3189 -1.0167
 3295SOL     OW21608  11.435   7.306  10.487 -0.0215 -0.5090 -0.4029
 3295SOL    HW121609  11.523   7.336  10.509 -0.2702  0.2646 -0.4241
 3295SOL    HW221610  11.437   7.211  10.501  0.2120 -0.2365  1.6252
 3296SOL     OW21611   1.856  10.340  11.175 -0.0966 -0.2296 -0.0395
 3296SOL    HW121612   1.799  10.416  11.164 -0.9556 -1.0474 -1.4982
 3296SOL    HW221613   1.842  10.313  11.266 -1.4914  0.0168 -0.1617
 3297SOL     OW21614   6.511   2.242   6.315  0.0691 -0.3974  0.0138
 3297SOL    HW121615   6.536   2.152   6.331  0.4132 -0.3498 -0.2443
 3297SOL    HW221616   6.447   2.262   6.383  1.8510 -0.0402  1.6783
 3298SOL     OW21617   7.254   9.815   0.277  0.2190 -0.9813 -0.4288
 3298SOL    HW121618   7.338   9.769   0.287  1.1875  0.2472 -2.2550
 3298SOL    HW221619   7.213   9.773   0.202 -0.7846 -1.5028  0.3935
 3299SOL     OW21620   6.869   7.815   3.581 -0.3805  0.3817 -0.3317
 3299SOL    HW121621   6.876   7.889   3.641 -1.1777  0.2789 -0.1052
 3299SOL    HW221622   6.832   7.852   3.501  1.0239  0.5905 -0.9122
 3300SOL     OW21623   0.027   5.680   1.559  0.5844  0.0803 -0.0871
 3300SOL    HW121624   0.082   5.733   1.618  0.1529 -0.2449  0.6183
 3300SOL    HW221625  -0.033   5.634   1.618 -0.9764  1.0270 -0.8924
 3301SOL     OW21626   9.354   6.731   7.209 -0.0788 -0.2979 -0.0367
 3301SOL    HW121627   9.276   6.710   7.260 -0.4654  0.1470 -0.4376
 3301SOL    HW221628   9.415   6.659   7.227  0.1334  0.2904  1.7600
 3302SOL     OW21629   8.920   9.227  11.511 -0.3967 -0.1620  0.0162
 3302SOL    HW121630   8.832   9.216  11.548 -0.8152 -0.9495 -1.1365
 3302SOL    HW221631   8.942   9.141  11.476  1.5281 -0.4161  1.6501
 3303SOL     OW21632   6.947   8.603   2.615  0.9352  1.0701  0.2285
 3303SOL    HW121633   7.040   8.618   2.630  0.8485  0.7581  1.1101
 3303SOL    HW221634   6.908   8.603   2.702  0.4903 -1.3631  0.1088
 3304SOL     OW21635   4.088   5.600   9.648  0.2677  0.4901 -0.0492
 3304SOL    HW121636   4.067   5.617   9.740  0.9544 -0.0869  0.2181
 3304SOL    HW221637   4.020   5.647   9.600  0.6908  1.9570  0.7150
 3305SOL     OW21638   8.025   4.910  10.193  0.1738 -0.2700 -0.0689
 3305SOL    HW121639   8.049   4.821  10.219  0.5265 -0.1833 -0.0844
 3305SOL    HW221640   8.052   4.964  10.267  1.7976  0.0575 -0.8557
 3306SOL     OW21641   3.089   4.834  11.799  0.0169 -0.0295 -0.3425
 3306SOL    HW121642   3.073   4.908  11.857 -1.5339  0.1273 -0.9322
 3306SOL    HW221643   3.013   4.777  11.811  1.4384 -1.8920  0.5595
 3307SOL     OW21644   8.298   8.115   7.509  0.3325  0.5918  0.9088
 3307SOL    HW121645   8.289   8.207   7.535 -0.5980  1.5393 -2.2819
 3307SOL    HW221646   8.350   8.117   7.429  1.4820 -1.8549  1.4993
 3308SOL     OW21647   4.574   1.593   1.895 -0.0647  0.0490 -0.3348
 3308SOL    HW121648   4.582   1.688   1.886 -0.0942  0.5964  3.6612
 3308SOL    HW221649   4.480   1.577   1.895 -0.1310  0.3444  0.9691
 3309SOL     OW21650   5.501   7.758   7.764  0.1345  0.5006 -0.2083
 3309SOL    HW121651   5.538   7.839   7.729  0.0950  1.4904  1.8909
 3309SOL    HW221652   5.577   7.704   7.785  0.2043  0.5609 -0.3034
 3310SOL     OW21653   7.775   9.194   7.500 -0.4648  0.2437 -0.0468
 3310SOL    HW121654   7.853   9.203   7.446 -0.5847  1.3806 -0.0650
 3310SOL    HW221655   7.787   9.111   7.547  1.0228  0.6703  0.3797
 3311SOL     OW21656   0.992   2.964   6.350 -0.4598  0.6805 -0.1646
 3311SOL    HW121657   0.978   3.051   6.387  0.5711  1.2845 -1.1225
 3311SOL    HW221658   1.067   2.928   6.398 -1.1712  0.1217  0.5442
 3312SOL     OW21659  11.559   5.830   8.058 -0.2337 -0.4181  0.1170
 3312SOL    HW121660  11.626   5.895   8.077  0.9326 -1.3568 -0.6364
 3312SOL    HW221661  11.594   5.749   8.095 -0.0202 -1.3313 -1.9430
 3313SOL     OW21662   7.811   1.622   2.833  0.1587  0.5261 -0.4565
 3313SOL    HW121663   7.823   1.678   2.910 -0.4475  0.0287  0.0093
 3313SOL    HW221664   7.827   1.533   2.865 -0.5007  0.2767 -0.8072
 3314SOL     OW21665  11.090  11.639  10.856  0.2151 -0.1760  0.5122
 3314SOL    HW121666  11.126  11.589  10.929  1.6670 -0.5723 -0.4315
 3314SOL    HW221667  11.106  11.731  10.879  1.3322 -0.3289  0.3721
 3315SOL     OW21668   6.248   9.890   7.869 -0.0419  0.2568 -0.5215
 3315SOL    HW121669   6.286   9.978   7.878  0.5283 -0.1066  1.0238
 3315SOL    HW221670   6.154   9.905   7.871  0.0449  0.8523 -0.4736
 3316SOL     OW21671   4.801   2.074   6.846 -0.0436 -0.8406  0.0780
 3316SOL    HW121672   4.830   2.148   6.793 -0.3984  0.0075  1.0425
 3316SOL    HW221673   4.881   2.025   6.865  0.0784 -1.2316 -1.3086
 3317SOL     OW21674   0.170   6.406   6.983 -0.6265 -0.2504  0.3494
 3317SOL    HW121675   0.111   6.392   6.909 -0.7871  1.7142  0.0427
 3317SOL    HW221676   0.257   6.390   6.947 -0.8486 -1.8355  0.4497
 3318SOL     OW21677  10.474   6.724   6.899  0.0594 -0.5802 -0.2328
 3318SOL    HW121678  10.446   6.746   6.988  2.5427  1.1591  0.2233
 3318SOL    HW221679  10.529   6.647   6.910 -0.6167 -1.1165 -0.4842
 3319SOL     OW21680  10.404   3.909   4.669 -0.3100 -0.7572  0.1891
 3319SOL    HW121681  10.357   3.954   4.599  1.1007  0.4315 -0.0193
 3319SOL    HW221682  10.477   3.966   4.691  0.2776 -1.9234  1.4490
 3320SOL     OW21683   0.194  10.840   2.174 -0.2524 -0.0090 -0.3403
 3320SOL    HW121684   0.161  10.930   2.174  0.0952  0.1215 -0.8087
 3320SOL    HW221685   0.288  10.849   2.193 -0.4658 -0.3745  0.9469
 3321SOL     OW21686   1.650   5.100   8.214  0.6201  0.0306  0.2837
 3321SOL    HW121687   1.665   5.182   8.167 -0.2892 -0.2359 -0.5134
 3321SOL    HW221688   1.572   5.063   8.172  1.5884 -1.7317 -0.0465
 3322SOL     OW21689   3.513   9.111   5.967 -0.1894 -0.2328 -0.1585
 3322SOL    HW121690   3.420   9.128   5.952  0.2818  0.9888 -2.1389
 3322SOL    HW221691   3.551   9.114   5.879  1.6308 -1.3478  0.5525
 3323SOL     OW21692   6.092   4.682   2.860 -0.7811  0.0098 -0.4315
 3323SOL    HW121693   6.042   4.607   2.891 -0.3185 -1.5615 -3.1140
 3323SOL    HW221694   6.034   4.724   2.795 -1.2095  2.3350  1.3177
 3324SOL     OW21695   1.136   9.610   0.441 -0.2076  0.2029  0.1082
 3324SOL    HW121696   1.107   9.684   0.495  0.0364  0.0953  0.3952
 3324SOL    HW221697   1.086   9.617   0.360 -0.1237  0.7318  0.1023
 3325SOL     OW21698   3.528   5.206   9.505  0.0283 -0.2831  0.5911
 3325SOL    HW121699   3.465   5.278   9.509  1.1272  0.7523 -0.1613
 3325SOL    HW221700   3.606   5.244   9.466  0.7031 -1.8545  0.3169
 3326SOL     OW21701   6.933   3.000   1.372 -0.2247 -0.6310 -0.3842
 3326SOL    HW121702   6.844   3.013   1.403 -0.3382  1.4749 -1.4675
 3326SOL    HW221703   6.932   2.912   1.334 -2.4164  0.0598 -2.1528
 3327SOL     OW21704   8.455   6.472  10.934  0.1825  0.3892  0.4042
 3327SOL    HW121705   8.475   6.565  10.941  1.4257  0.1064  1.0061
 3327SOL    HW221706   8.471   6.438  11.023 -1.3927 -0.2036  0.4958
 3328SOL     OW21707   4.296   0.672   0.530 -0.1147  0.1537 -0.0547
 3328SOL    HW121708   4.350   0.678   0.451 -0.7242 -0.4734 -0.5432
 3328SOL    HW221709   4.319   0.587   0.568 -1.4174 -0.5647 -0.7981
 3329SOL     OW21710   1.698  11.358   9.430 -0.0858  0.6813 -0.2601
 3329SOL    HW121711   1.747  11.414   9.490 -0.5509  0.6567  0.1552
 3329SOL    HW221712   1.733  11.271   9.444  0.1594  0.7573 -0.3983
 3330SOL     OW21713  11.544   3.020   3.526 -0.0523 -0.0010  0.1215
 3330SOL    HW121714  11.566   3.096   3.579  1.1596 -0.3607  0.1705
 3330SOL    HW221715  11.461   3.043   3.484  0.5485  1.5441 -0.2755
 3331SOL     OW21716   0.922   5.223   6.891 -0.0281 -0.1604 -0.3947
 3331SOL    HW121717   0.941   5.129   6.881  1.1376 -0.0076  0.2007
 3331SOL    HW221718   1.005   5.266   6.870 -0.3841  0.6978 -0.0623
 3332SOL     OW21719   1.244   4.790   1.895  0.9649 -0.2297 -0.0325
 3332SOL    HW121720   1.183   4.806   1.966 -1.9717  1.2065 -2.6081
 3332SOL    HW221721   1.251   4.694   1.890 -0.5980 -0.4162  0.7696
 3333SOL     OW21722   7.551   7.878   5.895  0.0111  0.0232 -0.3761
 3333SOL    HW121723   7.489   7.951   5.905 -1.5581 -1.2900 -0.0103
 3333SOL    HW221724   7.578   7.882   5.803 -1.2602  0.1846 -0.7630
 3334SOL     OW21725   1.928   6.931   5.552 -0.4379  0.2354  0.3096
 3334SOL    HW121726   2.012   6.951   5.592 -1.0419  1.1984  1.1420
 3334SOL    HW221727   1.889   6.865   5.609 -0.2776 -0.1776 -0.0503
 3335SOL     OW21728   4.846   7.327   5.571 -0.6470  0.1802 -0.2864
 3335SOL    HW121729   4.783   7.255   5.564  0.2101 -0.4750 -1.6176
 3335SOL    HW221730   4.792   7.406   5.564 -1.5175 -0.3168  0.4616
 3336SOL     OW21731  10.803   0.462   9.867  0.0924 -0.4238 -0.5546
 3336SOL    HW121732  10.832   0.487   9.780 -1.7507 -0.0099 -1.0919
 3336SOL    HW221733  10.710   0.444   9.857 -0.1487 -0.4128  1.3191
 3337SOL     OW21734   5.992   5.872   1.357 -0.2207  0.2003 -0.7544
 3337SOL    HW121735   5.941   5.903   1.432  1.1605 -0.3815  0.4830
 3337SOL    HW221736   6.055   5.943   1.341 -1.2763  0.8527 -2.1734
 3338SOL     OW21737   1.387  10.378   7.236  0.1244  0.4202 -0.2826
 3338SOL    HW121738   1.342  10.457   7.206  0.0658  0.3605 -0.3543
 3338SOL    HW221739   1.329  10.306   7.210  0.5723  0.3009 -0.9691
 3339SOL     OW21740   8.135  10.443   3.462  0.1037  0.3062 -0.6756
 3339SOL    HW121741   8.060  10.503   3.466  1.9504  3.0024 -2.6411
 3339SOL    HW221742   8.172  10.457   3.375  3.1816 -0.5415  0.3669
 3340SOL     OW21743   2.962   3.125   9.434  0.4874  0.2883 -0.5778
 3340SOL    HW121744   2.894   3.189   9.456  0.5649  0.3032 -0.3863
 3340SOL    HW221745   2.932   3.088   9.351  0.1267  0.1324 -0.3838
 3341SOL     OW21746   2.292  10.397   2.534  0.3314  0.0365 -0.0971
 3341SOL    HW121747   2.307  10.441   2.617 -0.9093 -0.5110  0.4488
 3341SOL    HW221748   2.379  10.372   2.503  0.8566  0.9116  0.6643
 3342SOL     OW21749   6.221   2.337   2.899 -0.1936  0.3296  0.3904
 3342SOL    HW121750   6.279   2.331   2.975 -0.1329 -0.4598  0.2893
 3342SOL    HW221751   6.158   2.406   2.922 -0.1961  0.0788  1.1688
 3343SOL     OW21752   0.991   9.794   8.762  0.6009  0.0614  0.1462
 3343SOL    HW121753   0.919   9.839   8.720  0.8531  2.3061  1.9232
 3343SOL    HW221754   1.056   9.782   8.693  0.0300  1.3752 -0.6400
 3344SOL     OW21755   3.916   5.922   6.716 -0.0588 -0.3028 -0.0067
 3344SOL    HW121756   3.948   5.834   6.696  1.1679  0.0847  0.1722
 3344SOL    HW221757   3.976   5.981   6.671 -1.2622  0.4601 -0.6775
 3345SOL     OW21758   3.472   7.522   1.408 -0.5171  0.6779 -0.2473
 3345SOL    HW121759   3.556   7.566   1.392 -0.9562  1.4169 -0.5967
 3345SOL    HW221760   3.422   7.537   1.327 -1.2449  0.8682  0.2293
 3346SOL     OW21761   3.101   4.797   1.074  0.3417 -0.3465  0.4837
 3346SOL    HW121762   3.049   4.846   1.138  0.9825  0.0000  0.7506
 3346SOL    HW221763   3.069   4.707   1.081 -1.0487  0.0794 -0.2241
 3347SOL     OW21764   7.235   9.193  11.283 -0.3367 -0.4047 -0.1515
 3347SOL    HW121765   7.183   9.273  11.290 -0.7379 -0.7283  0.7610
 3347SOL    HW221766   7.279   9.186  11.367  2.1664  0.4850 -1.2866
 3348SOL     OW21767   9.807   4.774   9.290  0.2350 -0.3300  0.0328
 3348SOL    HW121768   9.741   4.797   9.355  0.0306 -0.9378  0.0511
 3348SOL    HW221769   9.868   4.717   9.338 -1.4247 -3.1261 -0.9512
 3349SOL     OW21770  10.629   3.184  10.210  0.2049  0.1228  0.4886
 3349SOL    HW121771  10.547   3.142  10.184  0.5904 -2.1344  2.5737
 3349SOL    HW221772  10.603   3.247  10.277  0.0891  0.2127  0.3623
 3350SOL     OW21773  11.603   1.780   6.365 -0.1055 -0.1431 -0.0835
 3350SOL    HW121774  11.507   1.778   6.362 -0.0960  0.2263 -1.1542
 3350SOL    HW221775  11.630   1.691   6.341 -0.1789 -0.2726  0.3118
 3351SOL     OW21776   1.864   2.606  10.015  0.5935 -0.1079 -0.0502
 3351SOL    HW121777   1.911   2.673   9.965 -0.2896  0.8543  0.3813
 3351SOL    HW221778   1.899   2.523   9.982  2.4940  0.5568  0.1511
 3352SOL     OW21779   4.552   6.999  11.343 -0.0181 -0.1052 -0.0343
 3352SOL    HW121780   4.566   7.043  11.428  0.2154  0.6299 -0.4430
 3352SOL    HW221781   4.476   6.943  11.358  0.2142 -0.2247  0.7566
 3353SOL     OW21782   5.159   1.607  11.535 -0.0871  0.2043  0.0518
 3353SOL    HW121783   5.254   1.595  11.530  0.1113  1.5466  0.4793
 3353SOL    HW221784   5.133   1.622  11.444  0.1516  0.2081 -0.0172
 3354SOL     OW21785   2.041   0.256   6.067 -0.1108 -0.1220  0.1865
 3354SOL    HW121786   2.064   0.289   6.154 -0.9096 -0.3010  0.4744
 3354SOL    HW221787   1.963   0.202   6.081 -0.5920  0.3043 -0.7199
 3355SOL     OW21788   7.922   7.550  10.095 -0.1500  0.7379  0.1042
 3355SOL    HW121789   7.991   7.616  10.103  0.4983 -0.0384  1.0081
 3355SOL    HW221790   7.918   7.509  10.181 -1.0425  0.0813 -0.2443
 3356SOL     OW21791   8.407   9.432   7.633 -0.4844 -0.4187 -0.1122
 3356SOL    HW121792   8.388   9.526   7.632  0.4323 -0.2257  0.1970
 3356SOL    HW221793   8.324   9.392   7.657 -0.6573  0.3693  0.6650
 3357SOL     OW21794   9.893   8.946  10.671  0.6687  0.0309  0.1697
 3357SOL    HW121795   9.922   9.032  10.702 -1.2473  1.0096 -0.6323
 3357SOL    HW221796   9.857   8.962  10.584 -1.8914 -1.1106  0.9203
 3358SOL     OW21797   0.866   2.058   7.030 -0.6215  0.0381  0.4014
 3358SOL    HW121798   0.955   2.026   7.017 -0.7520 -0.8000  1.4377
 3358SOL    HW221799   0.871   2.112   7.109 -1.1595 -0.6117  0.8933
 3359SOL     OW21800   3.112   1.642   8.940 -0.4661 -0.4070  0.6087
 3359SOL    HW121801   3.195   1.641   8.988 -0.5818 -0.5079  0.8107
 3359SOL    HW221802   3.062   1.571   8.979 -0.6172 -0.3958  0.4333
 3360SOL     OW21803   7.929  10.379  10.275 -0.1337 -0.1478 -0.1329
 3360SOL    HW121804   7.861  10.329  10.230  0.3593 -2.0420  1.1173
 3360SOL    HW221805   7.925  10.349  10.366  1.6401  0.4898  0.2037
 3361SOL     OW21806   5.344   5.510  11.266 -0.2862 -0.0231  0.6322
 3361SOL    HW121807   5.398   5.447  11.314  0.3055  0.0448  0.0689
 3361SOL    HW221808   5.396   5.533  11.189 -1.3526 -0.4252 -0.2598
 3362SOL     OW21809   2.415   2.630   7.502 -0.3680  0.0101 -0.0491
 3362SOL    HW121810   2.374   2.549   7.470 -0.9814  1.0021 -1.9846
 3362SOL    HW221811   2.377   2.699   7.446  0.9520  1.4914  0.8073
 3363SOL     OW21812   0.214   2.251   0.949 -0.1522  0.7064  0.8707
 3363SOL    HW121813   0.227   2.344   0.963 -0.0648  0.4240  3.0250
 3363SOL    HW221814   0.125   2.244   0.914 -0.0567  1.5870  0.4319
 3364SOL     OW21815   4.325   4.706  10.806  0.0923  0.0288 -0.5322
 3364SOL    HW121816   4.323   4.669  10.718  2.0306 -1.5775  0.0333
 3364SOL    HW221817   4.409   4.678  10.843 -0.6468  0.6566  1.8426
 3365SOL     OW21818   1.784   8.856   1.119  0.1811 -0.3178  0.5769
 3365SOL    HW121819   1.867   8.824   1.086  0.8888  2.1471 -0.2713
 3365SOL    HW221820   1.778   8.821   1.208  0.7377 -2.7986 -0.2810
 3366SOL     OW21821   0.123   1.797   8.873 -0.3216 -0.1304 -0.0432
 3366SOL    HW121822   0.042   1.757   8.903 -0.5857  0.3391 -0.1108
 3366SOL    HW221823   0.100   1.889   8.858  0.5991  0.3758  1.4580
 3367SOL     OW21824   3.289   7.110   8.975 -0.2690  0.6577  0.0049
 3367SOL    HW121825   3.270   7.164   9.052 -0.8155 -0.9884  1.0810
 3367SOL    HW221826   3.232   7.033   8.984  1.2134 -0.6266 -0.8917
 3368SOL     OW21827   1.101   3.658   8.954  0.0074  0.3897  0.3815
 3368SOL    HW121828   1.131   3.585   8.900  0.4001  1.3175 -0.6900
 3368SOL    HW221829   1.067   3.617   9.033 -1.3491 -1.0621 -0.8975
 3369SOL     OW21830  11.491   4.416   2.085  0.2414 -0.4243  0.2153
 3369SOL    HW121831  11.580   4.395   2.054  0.6091  1.1690  0.1177
 3369SOL    HW221832  11.497   4.410   2.180  0.2632 -1.0287  0.1777
 3370SOL     OW21833   6.616   7.180   5.839  0.3141 -0.5832 -0.0106
 3370SOL    HW121834   6.678   7.220   5.899  0.1150 -0.1506 -0.0920
 3370SOL    HW221835   6.538   7.236   5.843 -0.0684 -1.1159  0.0847
 3371SOL     OW21836  10.190   0.771  10.503 -0.0781 -0.0760 -0.1578
 3371SOL    HW121837  10.155   0.716  10.573 -0.3031  0.2058 -0.0446
 3371SOL    HW221838  10.268   0.724  10.472 -0.4327 -0.5925 -0.2657
 3372SOL     OW21839   3.917   4.907  10.497 -0.0007 -0.0362  0.5793
 3372SOL    HW121840   3.959   4.982  10.455 -1.1814  0.9068  1.0538
 3372SOL    HW221841   3.972   4.890  10.574  0.0246  0.6225  0.7126
 3373SOL     OW21842   7.059   0.850  11.678 -0.2778  0.2547  0.0291
 3373SOL    HW121843   7.148   0.815  11.682  0.0658  1.1674  3.3567
 3373SOL    HW221844   7.003   0.779  11.709 -0.8062 -0.2952 -1.9950
 3374SOL     OW21845   6.981   4.361   3.965 -0.4512  0.0977  0.3487
 3374SOL    HW121846   6.967   4.270   3.940  1.4030 -0.3195  0.6671
 3374SOL    HW221847   6.987   4.358   4.061 -1.1990  0.6852  0.4172
 3375SOL     OW21848   6.045   5.124   0.752 -0.4969 -0.0538 -0.3167
 3375SOL    HW121849   6.060   5.090   0.664  0.8598  0.6043 -0.3615
 3375SOL    HW221850   6.018   5.215   0.739  0.2854  0.2246 -0.0480
 3376SOL     OW21851   9.281   1.822   5.762 -0.7939  0.6699  0.1565
 3376SOL    HW121852   9.246   1.733   5.752 -1.3793  0.9149 -0.0138
 3376SOL    HW221853   9.374   1.809   5.781 -0.5045  0.0468 -1.4665
 3377SOL     OW21854   8.636   4.686   8.589  0.2877 -0.3355  0.4836
 3377SOL    HW121855   8.544   4.687   8.563  0.0380 -1.0691  1.2889
 3377SOL    HW221856   8.640   4.747   8.662  0.5921  0.2470 -0.0163
 3378SOL     OW21857   4.539   3.688   5.078 -0.3626 -0.0979 -0.0122
 3378SOL    HW121858   4.565   3.754   5.014 -1.0497  0.4611  0.2700
 3378SOL    HW221859   4.540   3.734   5.162 -1.4375 -0.2655  0.1122
 3379SOL     OW21860   8.721   3.370   8.004 -0.7436  0.5042  0.2761
 3379SOL    HW121861   8.656   3.369   7.933 -1.2944 -1.5380  0.7533
 3379SOL    HW221862   8.672   3.400   8.081 -0.8335  0.1121  0.3742
 3380SOL     OW21863   8.854  10.078   6.529  0.4791 -0.0009 -0.0392
 3380SOL    HW121864   8.870  10.150   6.590  0.8521 -2.0630  2.4514
 3380SOL    HW221865   8.784  10.111   6.472  0.6175  2.2969  1.0020
 3381SOL     OW21866  11.214   2.306   9.471 -0.0919 -0.2120  0.4835
 3381SOL    HW121867  11.287   2.363   9.447 -0.2255 -1.1632 -2.5145
 3381SOL    HW221868  11.148   2.367   9.506  1.0320  1.0031  0.5865
 3382SOL     OW21869   7.750   8.475   1.333 -0.3432  0.0574  0.2498
 3382SOL    HW121870   7.785   8.452   1.247 -1.0163  0.9046 -0.2747
 3382SOL    HW221871   7.814   8.440   1.396 -0.1584 -1.1197 -0.5625
 3383SOL     OW21872   9.809   5.934  11.317  0.2243 -0.1906 -0.3089
 3383SOL    HW121873   9.738   5.947  11.379 -0.2895  2.8974 -1.3623
 3383SOL    HW221874   9.782   5.982  11.239  2.2297 -1.3170 -1.8010
 3384SOL     OW21875   2.220  10.865   8.680  0.2044  0.4838 -0.0042
 3384SOL    HW121876   2.202  10.927   8.750  1.4488 -1.1265  1.8639
 3384SOL    HW221877   2.140  10.812   8.674  0.3005  0.2517  0.6534
 3385SOL     OW21878   0.310   0.045   4.769 -0.1533 -0.0981  0.6347
 3385SOL    HW121879   0.236   0.064   4.826  0.2075  0.6750  0.8703
 3385SOL    HW221880   0.285   0.080   4.684 -0.6272 -1.1099  0.3466
 3386SOL     OW21881   2.457   9.912   9.393 -0.4893 -0.6768 -0.5805
 3386SOL    HW121882   2.533   9.890   9.339  0.3264  2.2847 -0.8183
 3386SOL    HW221883   2.382   9.889   9.338  0.2880 -0.2598 -1.8784
 3387SOL     OW21884   2.342   0.708  11.034  0.1343 -0.3551 -0.3273
 3387SOL    HW121885   2.266   0.677  10.985 -0.2680 -0.2485  0.2178
 3387SOL    HW221886   2.417   0.661  10.996  0.1621  1.3114 -2.5373
 3388SOL     OW21887   7.147   3.041   0.327  0.3880  0.6188  0.0167
 3388SOL    HW121888   7.229   3.037   0.278 -0.8934 -2.9627 -2.2211
 3388SOL    HW221889   7.135   2.953   0.362 -1.6423  1.5355  1.8688
 3389SOL     OW21890   2.024   1.760   5.313  0.2081 -0.0519 -0.5663
 3389SOL    HW121891   2.022   1.743   5.219 -0.0720 -2.8352 -0.1357
 3389SOL    HW221892   1.939   1.799   5.332  0.8271  1.9691 -1.6352
 3390SOL     OW21893   0.110   2.411   8.258  0.4624 -0.4815 -0.1339
 3390SOL    HW121894   0.075   2.489   8.302  1.0501  1.3793 -2.7577
 3390SOL    HW221895   0.033   2.358   8.240 -0.2122  0.3961  0.0497
 3391SOL     OW21896   6.053   4.780   7.258  0.2849 -0.7877  0.0808
 3391SOL    HW121897   6.093   4.693   7.251 -0.2514 -1.0094 -0.2699
 3391SOL    HW221898   6.073   4.808   7.348 -0.9548 -1.9828  0.7689
 3392SOL     OW21899   9.800   9.251  10.989 -0.5597 -0.7861 -0.6931
 3392SOL    HW121900   9.863   9.245  10.918  0.0161  0.0647 -0.2786
 3392SOL    HW221901   9.840   9.202  11.061 -1.0522 -1.4824 -0.8791
 3393SOL     OW21902   5.219   2.682   1.831  0.2027  0.2402  0.2432
 3393SOL    HW121903   5.248   2.591   1.831 -0.2172  0.0729 -1.6136
 3393SOL    HW221904   5.294   2.731   1.798  0.4575  0.6107  1.3161
 3394SOL     OW21905   6.395   1.979   1.182 -0.4154 -0.1459  0.3604
 3394SOL    HW121906   6.322   1.992   1.123 -0.2118 -1.4188 -0.2016
 3394SOL    HW221907   6.453   1.918   1.137 -0.0732 -0.8714  1.7036
 3395SOL     OW21908   3.669  11.324   0.709 -0.3400 -0.1053 -0.2648
 3395SOL    HW121909   3.617  11.375   0.647 -0.6088 -1.3622 -1.1209
 3395SOL    HW221910   3.664  11.234   0.675  1.3167 -0.4625  0.3560
 3396SOL     OW21911   3.438   2.865   6.930  0.0293 -0.3858 -0.3697
 3396SOL    HW121912   3.524   2.822   6.924 -0.2919 -0.9932 -0.7497
 3396SOL    HW221913   3.451   2.950   6.890  0.8948  0.2384  1.1403
 3397SOL     OW21914   3.219   9.639   7.092  0.1551  0.0225 -0.1492
 3397SOL    HW121915   3.287   9.616   7.028  0.6119 -0.2772  0.4401
 3397SOL    HW221916   3.146   9.580   7.070  1.2593 -1.9781  1.2449
 3398SOL     OW21917  10.420   1.700   8.295  0.2461 -0.0281  0.2710
 3398SOL    HW121918  10.488   1.670   8.235  0.0378 -0.1448  0.0937
 3398SOL    HW221919  10.349   1.638   8.285 -0.0419  0.3123  0.1736
 3399SOL     OW21920   7.769  11.863   4.457 -0.3255 -0.7286 -0.3621
 3399SOL    HW121921   7.681  11.830   4.437 -0.7310 -0.7103  1.1964
 3399SOL    HW221922   7.822  11.785   4.469  0.6691 -0.8024 -4.0628
 3400SOL     OW21923   7.318   7.877   0.534 -0.0065  0.7913 -0.1557
 3400SOL    HW121924   7.283   7.896   0.447 -3.7885  2.3611  1.4899
 3400SOL    HW221925   7.299   7.784   0.547 -0.4633  0.8171 -0.6104
 3401SOL     OW21926   4.703   7.442  10.868 -0.1831 -0.4728 -0.3981
 3401SOL    HW121927   4.703   7.494  10.948 -0.8155  0.2439 -0.8487
 3401SOL    HW221928   4.697   7.351  10.899 -0.4757 -0.2036  0.3683
 3402SOL     OW21929   1.378   4.970   4.200  0.0225 -0.1347 -0.0671
 3402SOL    HW121930   1.418   4.904   4.257 -0.5671  0.4972  1.1129
 3402SOL    HW221931   1.321   5.020   4.258  0.3757  1.3472 -0.9576
 3403SOL     OW21932  11.852   1.707   5.509  0.5872 -0.2033 -0.8964
 3403SOL    HW121933  11.757   1.712   5.494  0.3090  2.0012  0.9769
 3403SOL    HW221934  11.890   1.728   5.424 -0.5937 -0.8624 -1.6205
 3404SOL     OW21935   4.518   3.702   9.516  0.5660  0.5368 -0.1249
 3404SOL    HW121936   4.445   3.765   9.506  1.6167  1.6051 -1.4585
 3404SOL    HW221937   4.596   3.752   9.492  1.8915 -0.3447  2.0635
 3405SOL     OW21938  10.508  11.169  11.364  0.3622 -0.0847 -0.3234
 3405SOL    HW121939  10.413  11.163  11.356  0.4497 -0.6002 -1.0279
 3405SOL    HW221940  10.522  11.236  11.431 -0.5130 -0.9800  0.7869
 3406SOL     OW21941   5.347   6.818   6.420  0.1728 -0.0340 -0.6908
 3406SOL    HW121942   5.397   6.737   6.430  1.6979  1.0021  0.5307
 3406SOL    HW221943   5.347   6.835   6.326 -0.1161 -1.3835 -0.9596
 3407SOL     OW21944   6.023   2.448   3.941 -0.1004  0.1727  0.1650
 3407SOL    HW121945   6.093   2.443   3.876  0.2529 -2.0730  0.6353
 3407SOL    HW221946   6.065   2.423   4.023 -1.2630 -0.4276  0.6058
 3408SOL     OW21947   9.623   4.174   2.567 -0.3904 -0.2201  0.2622
 3408SOL    HW121948   9.635   4.121   2.488  1.3542 -2.1090  1.6871
 3408SOL    HW221949   9.565   4.121   2.622  0.1430  0.0766  1.1175
 3409SOL     OW21950  11.343   0.293  11.088 -0.3042 -0.2058 -0.4193
 3409SOL    HW121951  11.249   0.285  11.104 -0.1290 -0.5557  0.5287
 3409SOL    HW221952  11.376   0.204  11.094  0.2561  0.0418  0.4847
 3410SOL     OW21953   5.900   3.452  10.870  0.4843 -0.2023 -0.4505
 3410SOL    HW121954   5.992   3.425  10.878  0.3812 -0.9121 -1.4821
 3410SOL    HW221955   5.851   3.373  10.891  0.1423 -0.2765 -1.4889
 3411SOL     OW21956   6.082  11.710  11.223 -0.2321 -0.1282  0.3742
 3411SOL    HW121957   6.140  11.689  11.150  0.5246  1.9542  0.3010
 3411SOL    HW221958   6.136  11.698  11.301  0.0975  1.0872  0.3504
 3412SOL     OW21959   9.244   0.119   1.133  0.1559  0.7372 -0.6025
 3412SOL    HW121960   9.226   0.031   1.098 -0.1688  0.9592 -1.0072
 3412SOL    HW221961   9.328   0.111   1.177 -0.2026  0.0439 -0.0258
 3413SOL     OW21962  10.877   2.948   0.328 -0.0446  0.3179 -0.3988
 3413SOL    HW121963  10.827   2.871   0.304  1.1918 -0.5410 -0.3325
 3413SOL    HW221964  10.916   2.978   0.246 -0.7240  1.0430 -0.4696
 3414SOL     OW21965   5.587   7.210   0.143 -0.2570 -0.4315 -0.0019
 3414SOL    HW121966   5.499   7.185   0.170 -0.1470 -0.2559  0.5406
 3414SOL    HW221967   5.632   7.232   0.225  0.2829 -0.5007 -0.2733
 3415SOL     OW21968   2.282   5.537  11.247 -0.0177 -0.4509  0.1201
 3415SOL    HW121969   2.250   5.555  11.159  0.0313 -0.1263  0.1668
 3415SOL    HW221970   2.362   5.486  11.234  0.7376  0.7321 -0.0762
 3416SOL     OW21971   4.806   9.017  10.849  0.0739  0.2928 -0.0500
 3416SOL    HW121972   4.824   8.964  10.771 -0.9438 -0.5342  0.2654
 3416SOL    HW221973   4.827   8.960  10.922 -0.6553  0.4532  0.2930
 3417SOL     OW21974   9.340   7.349   8.583 -0.1461  0.3158 -0.6622
 3417SOL    HW121975   9.334   7.355   8.487  0.1042 -0.3039 -0.7143
 3417SOL    HW221976   9.262   7.299   8.608  1.6522 -2.8238 -0.8740
 3418SOL     OW21977   2.536   2.877   0.871 -0.0123 -0.2561  0.5942
 3418SOL    HW121978   2.554   2.801   0.817 -2.4663  1.3145 -2.7999
 3418SOL    HW221979   2.448   2.862   0.905  0.8174 -0.4019  2.8505
 3419SOL     OW21980   4.771   8.004   0.854 -0.1921  0.0294 -0.3827
 3419SOL    HW121981   4.727   8.031   0.935  2.2891 -1.4474  1.5887
 3419SOL    HW221982   4.731   8.059   0.786 -3.0686  0.6710  1.6223
 3420SOL     OW21983   7.717   9.071   1.181  0.0010 -0.1825 -0.0146
 3420SOL    HW121984   7.663   9.012   1.233  1.6221 -1.2290  0.5451
 3420SOL    HW221985   7.736   9.021   1.101  0.2624  0.1202 -0.1410
 3421SOL     OW21986   9.298   5.250   1.792  1.0058  0.1599  0.8666
 3421SOL    HW121987   9.206   5.238   1.815  0.4757  2.0808  0.0197
 3421SOL    HW221988   9.344   5.252   1.876  0.1547 -0.0402  1.3486
 3422SOL     OW21989   9.983   7.460   7.341 -0.0301  0.1996 -0.0559
 3422SOL    HW121990   9.990   7.383   7.284  0.8278  0.6055 -0.5268
 3422SOL    HW221991   9.946   7.528   7.284 -0.3331  0.2739  0.2255
 3423SOL     OW21992   4.180   3.121   4.776  0.2418  0.3645  0.4422
 3423SOL    HW121993   4.246   3.116   4.707 -2.1647  1.7854 -2.2056
 3423SOL    HW221994   4.165   3.215   4.786 -1.7285  0.0821  0.4985
 3424SOL     OW21995   7.716   9.551   5.697 -0.1614  0.4656  0.4888
 3424SOL    HW121996   7.683   9.592   5.617  0.7295 -2.5475 -1.5969
 3424SOL    HW221997   7.810   9.538   5.681 -0.6265 -3.8590  0.0776
 3425SOL     OW21998   5.839   3.047   9.372 -0.1532  0.1381 -0.3971
 3425SOL    HW121999   5.784   3.116   9.334 -0.7118  0.6422  1.2377
 3425SOL    HW222000   5.898   3.093   9.431 -0.4420 -0.7585  0.6162
 3426SOL     OW22001   1.063  11.423   6.496  0.1312  0.3427 -0.2931
 3426SOL    HW122002   1.138  11.447   6.442  0.5472 -0.9600 -0.3212
 3426SOL    HW222003   1.074  11.473   6.577  1.6765 -0.6937  0.1738
 3427SOL     OW22004   4.858   9.858   4.851 -0.4233 -0.0401 -0.1385
 3427SOL    HW122005   4.833   9.875   4.942 -1.7500 -1.0777 -0.2848
 3427SOL    HW222006   4.786   9.892   4.799  1.2377  2.4991 -1.0215
 3428SOL     OW22007   4.705   2.918   8.732  0.1655 -0.2605 -0.1005
 3428SOL    HW122008   4.637   2.961   8.785  0.1485  1.6480 -1.5637
 3428SOL    HW222009   4.695   2.957   8.645  3.3956  0.3827 -0.2726
 3429SOL     OW22010   0.133  11.463   5.777  0.4254 -0.6913  0.4049
 3429SOL    HW122011   0.073  11.529   5.813  0.1663 -1.0027  0.5510
 3429SOL    HW222012   0.115  11.384   5.828 -1.2527 -1.6873 -1.5388
 3430SOL     OW22013   0.445   5.162   8.790 -0.3437  0.8633  0.4447
 3430SOL    HW122014   0.388   5.238   8.804  0.6699  1.5726  0.8410
 3430SOL    HW222015   0.389   5.087   8.809 -0.9429  1.5636  1.6024
 3431SOL     OW22016   5.160   2.847   7.573 -0.0708 -0.1854  1.0402
 3431SOL    HW122017   5.138   2.918   7.634 -0.5084  0.1719  0.4809
 3431SOL    HW222018   5.255   2.847   7.568 -0.0617  0.2170  1.2172
 3432SOL     OW22019   1.192   8.207   7.864 -0.0161 -0.6227 -0.4401
 3432SOL    HW122020   1.184   8.256   7.782 -2.4465  0.3050  0.2463
 3432SOL    HW222021   1.125   8.138   7.857 -0.8904  0.0179  1.0502
 3433SOL     OW22022   3.334   2.087   7.256  0.2960  0.5237  0.0380
 3433SOL    HW122023   3.317   2.142   7.179  1.0543  1.9134  0.8139
 3433SOL    HW222024   3.349   2.150   7.327  1.7904 -0.6869  0.8537
 3434SOL     OW22025  11.836  11.809   7.990 -0.0616 -0.1768  0.0305
 3434SOL    HW122026  11.912  11.818   8.047 -0.9008 -3.4325  1.9250
 3434SOL    HW222027  11.779  11.882   8.014  1.7609  1.4942 -0.4316
 3435SOL     OW22028   6.100   9.473   2.128  0.3364  0.2624 -0.5751
 3435SOL    HW122029   6.159   9.538   2.166  0.8737  0.7304 -2.1230
 3435SOL    HW222030   6.148   9.437   2.053 -0.5578 -0.8211 -0.6588
 3436SOL     OW22031   2.539  11.237   8.417 -0.7606 -0.7409  0.0329
 3436SOL    HW122032   2.506  11.258   8.504 -1.1918 -0.7136 -0.1315
 3436SOL    HW222033   2.495  11.155   8.395  0.0893 -1.2640  0.2338
 3437SOL     OW22034   2.565   7.558   4.010  0.2081 -0.3040  0.4863
 3437SOL    HW122035   2.564   7.529   3.919  0.9230 -0.8220  0.6350
 3437SOL    HW222036   2.577   7.653   4.004  0.3323 -0.3429  0.0475
 3438SOL     OW22037   2.254   1.841   6.496 -0.0593  0.3941 -0.0835
 3438SOL    HW122038   2.237   1.850   6.402  0.2401 -2.2137 -0.4487
 3438SOL    HW222039   2.174   1.874   6.538 -1.1197 -0.4442 -1.3586
 3439SOL     OW22040  10.629   2.288   7.023  0.3389 -0.5451  0.4061
 3439SOL    HW122041  10.644   2.207   6.975  0.8829 -0.7808  0.9573
 3439SOL    HW222042  10.550   2.272   7.075  0.8696 -1.0044  1.0910
 3440SOL     OW22043   7.686   0.398   9.167  0.4513  0.1109  0.2351
 3440SOL    HW122044   7.699   0.428   9.257  0.1249 -1.5982  0.8878
 3440SOL    HW222045   7.742   0.321   9.159 -0.4415 -0.4718 -0.6238
 3441SOL     OW22046  10.455   8.187   6.945 -0.5969  0.3662  0.1402
 3441SOL    HW122047  10.396   8.244   6.896  0.1125  0.4293 -0.6521
 3441SOL    HW222048  10.524   8.164   6.883  0.1318  0.1691  1.0004
 3442SOL     OW22049   9.097  11.322   7.060 -0.1681  0.4819  0.6215
 3442SOL    HW122050   9.031  11.323   7.130  0.0604 -1.2935  0.9142
 3442SOL    HW222051   9.122  11.230   7.053 -0.7149  0.4770 -2.3200
 3443SOL     OW22052  10.972   0.567  11.529  0.4517  0.2876  0.1033
 3443SOL    HW122053  10.930   0.562  11.443 -1.2815  0.4027  0.9021
 3443SOL    HW222054  10.944   0.487  11.574 -0.2136  1.0973  1.1920
 3444SOL     OW22055   1.579   2.379   6.769 -0.3682  0.8626 -0.4393
 3444SOL    HW122056   1.672   2.393   6.750  0.2780 -1.7547  0.5080
 3444SOL    HW222057   1.537   2.374   6.682  0.2050  2.6733 -0.8663
 3445SOL     OW22058   5.723   8.120   6.405 -0.2921 -0.1267 -0.0218
 3445SOL    HW122059   5.766   8.037   6.427 -0.8161 -0.4202 -0.0750
 3445SOL    HW222060   5.757   8.143   6.319 -0.5288 -0.5606 -0.2348
 3446SOL     OW22061   7.453   3.130   8.020  0.2890  0.3168 -0.2103
 3446SOL    HW122062   7.501   3.183   7.957 -1.2687  1.0402 -0.8307
 3446SOL    HW222063   7.448   3.043   7.980  0.5057  0.4015 -0.4238
 3447SOL     OW22064   2.148  10.782   9.471  0.1375 -0.0955  0.0235
 3447SOL    HW122065   2.167  10.836   9.395 -0.1474 -0.9175 -0.6463
 3447SOL    HW222066   2.211  10.811   9.537 -0.1340  1.1727 -0.2493
 3448SOL     OW22067   0.266   8.721   1.718 -0.1383 -0.3250 -0.2592
 3448SOL    HW122068   0.203   8.652   1.737 -1.9566  0.8648 -1.6808
 3448SOL    HW222069   0.344   8.674   1.687 -0.9582 -1.7547 -0.2565
 3449SOL     OW22070   1.835   0.144  10.817 -0.2456 -0.1234 -0.1190
 3449SOL    HW122071   1.859   0.052  10.823  0.0711 -0.0460 -0.1853
 3449SOL    HW222072   1.900   0.189  10.872 -0.0713  0.1161 -0.5189
 3450SOL     OW22073   0.768   3.291   0.223 -0.0108 -0.0494 -0.2802
 3450SOL    HW122074   0.792   3.284   0.131  0.7584 -0.4610 -0.0517
 3450SOL    HW222075   0.799   3.210   0.262 -0.9049 -0.1643  0.2227
 3451SOL     OW22076   7.774   5.445   7.677  0.5711 -0.0937 -0.0279
 3451SOL    HW122077   7.849   5.454   7.737  0.3863 -0.4695  0.2632
 3451SOL    HW222078   7.736   5.533   7.673  0.7882  0.0094  0.1402
 3452SOL     OW22079   3.230   2.728   7.542 -0.4150  0.5531  0.0129
 3452SOL    HW122080   3.187   2.756   7.461 -1.6473 -0.3951  0.3035
 3452SOL    HW222081   3.174   2.659   7.576  0.9846 -0.2491  0.8076
 3453SOL     OW22082   2.771   9.344   4.226  0.0572  0.2117 -0.0163
 3453SOL    HW122083   2.681   9.362   4.252  0.2391  0.7698  0.2373
 3453SOL    HW222084   2.776   9.371   4.134 -0.1476 -0.2383 -0.1646
 3454SOL     OW22085   1.243   2.116   1.765 -0.5678 -0.4179  0.2115
 3454SOL    HW122086   1.215   2.069   1.843 -1.8810  0.1389  0.0951
 3454SOL    HW222087   1.167   2.116   1.707 -0.3304  1.0557 -0.1595
 3455SOL     OW22088   2.217   0.840   6.870  0.2323  0.1549 -0.3509
 3455SOL    HW122089   2.241   0.849   6.962  0.6532  0.3488 -0.4722
 3455SOL    HW222090   2.295   0.869   6.822  0.1150 -0.1991 -0.7683
 3456SOL     OW22091  10.683   5.235   1.343  0.5427 -0.8556  0.2623
 3456SOL    HW122092  10.639   5.196   1.419 -0.1179  0.3838  0.5415
 3456SOL    HW222093  10.748   5.169   1.317 -0.0633 -1.8319  1.1288
 3457SOL     OW22094   1.506   5.406   7.043 -0.0605  0.2405  0.2432
 3457SOL    HW122095   1.518   5.452   6.960  0.0154 -1.1775 -0.5700
 3457SOL    HW222096   1.532   5.316   7.024 -1.4682 -0.4457  1.3994
 3458SOL     OW22097   0.199   9.272   7.689 -0.2236 -0.4128 -0.5130
 3458SOL    HW122098   0.151   9.305   7.765 -0.7407 -1.8108 -0.1838
 3458SOL    HW222099   0.287   9.308   7.698 -1.0595  1.8270 -0.8746
 3459SOL     OW22100   4.133   5.395   7.052  0.5034  0.3715  0.0761
 3459SOL    HW122101   4.143   5.414   7.145 -0.7887  1.8409 -0.0522
 3459SOL    HW222102   4.118   5.480   7.011  1.5967 -0.1729 -1.5796
 3460SOL     OW22103   2.190   8.798   7.608  0.0568  0.6106  0.2868
 3460SOL    HW122104   2.160   8.713   7.576 -1.5077  1.0436  0.5093
 3460SOL    HW222105   2.172   8.859   7.536 -0.0783  0.9726  0.6197
 3461SOL     OW22106   6.575   8.643   9.282 -0.1472 -0.4490 -0.1240
 3461SOL    HW122107   6.621   8.562   9.303 -0.4218 -0.2594  1.3338
 3461SOL    HW222108   6.512   8.618   9.214  0.8171 -1.0939 -0.8132
 3462SOL     OW22109  10.884   1.830   8.347  0.0277 -0.2813 -0.1150
 3462SOL    HW122110  10.875   1.788   8.432  1.0594  1.5893  0.9612
 3462SOL    HW222111  10.978   1.844   8.336 -0.1436  0.0646 -1.2864
 3463SOL     OW22112   1.084   1.052   6.648 -0.4689 -0.5305  0.1146
 3463SOL    HW122113   1.033   1.133   6.636  1.8897  0.7568 -2.1650
 3463SOL    HW222114   1.083   1.011   6.562  0.6649 -1.4989  0.5437
 3464SOL     OW22115  10.503   1.351   6.642 -0.1754 -0.3377 -0.3722
 3464SOL    HW122116  10.447   1.325   6.716  0.0212 -0.2012 -0.1753
 3464SOL    HW222117  10.447   1.406   6.588  0.3924  1.6181  0.9445
 3465SOL     OW22118   4.880   2.706   8.753 -0.5045  0.6430 -0.1949
 3465SOL    HW122119   4.898   2.693   8.846  2.7801 -0.2051 -0.8297
 3465SOL    HW222120   4.836   2.791   8.749  0.5171  1.3590  2.0125
 3466SOL     OW22121   5.906   2.018   3.043  0.0823  0.1986 -0.3102
 3466SOL    HW122122   5.897   2.096   2.988  0.3450  1.2364  1.0806
 3466SOL    HW222123   5.975   1.967   3.001 -0.1760  0.6409 -1.3083
 3467SOL     OW22124   7.676   5.153   9.977 -0.1894 -0.3779  0.0291
 3467SOL    HW122125   7.689   5.059   9.967 -1.8706 -0.5137 -1.3883
 3467SOL    HW222126   7.583   5.162   9.998 -0.3351  1.0187 -1.0837
 3468SOL     OW22127   3.024   6.341  10.768  0.1186  0.3297 -0.1705
 3468SOL    HW122128   2.974   6.393  10.704  0.0741  1.6790  0.9111
 3468SOL    HW222129   3.068   6.407  10.822  0.9316 -0.8050  0.5761
 3469SOL     OW22130   5.794  11.081  10.626 -0.4129  0.5872 -0.0404
 3469SOL    HW122131   5.723  11.145  10.626 -0.3943  0.6185  0.4829
 3469SOL    HW222132   5.778  11.028  10.705 -0.4662 -0.0905 -0.4983
 3470SOL     OW22133   6.102   1.966   2.661  0.3973 -0.4234  0.1258
 3470SOL    HW122134   6.109   1.932   2.572  0.6904  0.8204 -0.3427
 3470SOL    HW222135   6.165   2.038   2.665  0.0148 -0.1240  1.1760
 3471SOL     OW22136   7.587   8.926   7.454 -0.3068 -0.2265  0.1873
 3471SOL    HW122137   7.629   8.904   7.371  0.0573  1.7179 -0.2082
 3471SOL    HW222138   7.660   8.947   7.513 -0.6205  0.2213  0.4222
 3472SOL     OW22139   1.356   8.413   7.305  0.3737 -0.1070  0.0693
 3472SOL    HW122140   1.306   8.406   7.387  1.0970 -2.4766  0.3898
 3472SOL    HW222141   1.438   8.454   7.331 -0.6739  2.3563 -0.1795
 3473SOL     OW22142   4.091   7.716   2.853 -0.1198  0.8616  0.2825
 3473SOL    HW122143   4.137   7.703   2.936 -0.1143  2.8236  0.6346
 3473SOL    HW222144   4.056   7.630   2.831  0.7597  0.0799  1.7839
 3474SOL     OW22145   9.508  10.444   4.327  0.4993  0.0779  0.3732
 3474SOL    HW122146   9.543  10.463   4.239  0.1269  0.7072  0.3517
 3474SOL    HW222147   9.476  10.354   4.321  3.5007 -1.1525  0.8452
 3475SOL     OW22148   5.775   2.261   1.056 -0.2138  0.1991 -0.6187
 3475SOL    HW122149   5.766   2.208   0.977 -1.0144 -0.4565 -0.1033
 3475SOL    HW222150   5.837   2.212   1.111  0.0522  0.4629 -0.6820
 3476SOL     OW22151   9.544   3.101   4.081 -0.4585 -0.3613  0.1601
 3476SOL    HW122152   9.598   3.094   4.003 -0.9258  0.6596 -0.2679
 3476SOL    HW222153   9.458   3.067   4.055 -0.0812 -1.9373  0.8254
 3477SOL     OW22154   0.578   1.494   9.841 -0.0183  0.6021  0.7117
 3477SOL    HW122155   0.609   1.411   9.879  3.3181  1.4918  0.2675
 3477SOL    HW222156   0.555   1.471   9.750  0.8148  0.1209  0.6100
 3478SOL     OW22157   0.026   6.374  11.430  0.1557  0.1678  0.4935
 3478SOL    HW122158   0.101   6.378  11.490  0.8496 -2.4200 -0.0962
 3478SOL    HW222159  -0.002   6.283  11.433 -1.2424  0.4860 -1.3873
 3479SOL     OW22160   0.894   5.274  11.622 -0.1191 -0.1924 -0.6557
 3479SOL    HW122161   0.898   5.319  11.538 -0.4456  2.1450  0.5113
 3479SOL    HW222162   0.802   5.276  11.646  0.0600 -0.2983  0.0483
 3480SOL     OW22163   7.444   3.520   4.183  0.1044  0.3098 -0.2615
 3480SOL    HW122164   7.379   3.483   4.123  0.4582  0.3469 -0.6661
 3480SOL    HW222165   7.513   3.454   4.188 -1.4014 -1.2744  2.7122
 3481SOL     OW22166   5.276   4.010   4.668 -0.0123  0.4180  0.1036
 3481SOL    HW122167   5.253   4.063   4.592 -0.0003  0.8047  0.3676
 3481SOL    HW222168   5.249   4.063   4.743  1.5203  0.7917  0.4261
 3482SOL     OW22169  11.692   9.654   8.508 -0.1190  0.2322  0.2041
 3482SOL    HW122170  11.688   9.728   8.447 -0.6962 -0.2270 -0.3199
 3482SOL    HW222171  11.786   9.640   8.522  0.0115  0.5821 -0.2865
 3483SOL     OW22172   5.725  10.263   6.989  0.3826 -0.2257 -0.7024
 3483SOL    HW122173   5.731  10.172   7.020 -1.8503 -0.4307 -0.7168
 3483SOL    HW222174   5.816  10.292   6.983  1.3516 -3.2428 -3.0332
 3484SOL     OW22175   9.749   2.919  10.870 -0.3546  0.5037  0.1154
 3484SOL    HW122176   9.739   2.954  10.781 -0.8208  1.9760  0.7190
 3484SOL    HW222177   9.730   2.993  10.927 -0.3429 -0.4973  1.4607
 3485SOL     OW22178   7.619  10.029   7.079 -0.0032  0.1574  0.4966
 3485SOL    HW122179   7.631   9.935   7.065 -0.7836  0.0179  0.7390
 3485SOL    HW222180   7.702  10.068   7.052  0.6925 -0.6980  1.3720
 3486SOL     OW22181   8.557   5.473   6.191  0.0247 -0.5057 -0.6530
 3486SOL    HW122182   8.646   5.506   6.184  0.0106 -0.0950  0.7127
 3486SOL    HW222183   8.560   5.409   6.263 -0.3605 -2.0783 -1.9818
 3487SOL     OW22184   2.538   9.256   3.407 -0.1007  0.0694 -0.0223
 3487SOL    HW122185   2.580   9.262   3.321  0.0081 -2.1142 -0.1769
 3487SOL    HW222186   2.608   9.225   3.466  0.2590  2.9915  1.2832
 3488SOL     OW22187   8.576   6.475   1.647  0.3768  0.0040  0.1929
 3488SOL    HW122188   8.637   6.403   1.631  1.8814  1.0777  0.7935
 3488SOL    HW222189   8.544   6.499   1.560 -0.0687 -1.2968 -0.0217
 3489SOL     OW22190   4.038  11.106   2.417 -0.7205 -0.2383  0.6162
 3489SOL    HW122191   4.119  11.111   2.366  0.4894 -1.2170  2.3254
 3489SOL    HW222192   4.005  11.018   2.402 -1.0244 -0.1153  0.5641
 3490SOL     OW22193   5.249   0.261   8.197 -0.0357 -0.6328  0.1412
 3490SOL    HW122194   5.324   0.222   8.152 -0.7165 -1.9165  0.0902
 3490SOL    HW222195   5.258   0.355   8.181  1.0660 -0.8497 -0.6185
 3491SOL     OW22196   4.075   3.344   2.354  0.5538 -0.0036 -0.6101
 3491SOL    HW122197   4.081   3.256   2.318 -1.4982 -0.1158 -0.8105
 3491SOL    HW222198   4.053   3.399   2.279  1.4012  0.6259 -0.4131
 3492SOL     OW22199   7.573   1.798   1.881 -0.2412 -0.1772  0.3497
 3492SOL    HW122200   7.506   1.799   1.949  0.9448  0.3291  1.5340
 3492SOL    HW222201   7.534   1.849   1.809 -0.5204  1.4988  1.6317
 3493SOL     OW22202   8.999   5.509   1.032  0.4783  0.0702 -0.3535
 3493SOL    HW122203   8.927   5.494   1.094  0.7559  1.8776  0.4789
 3493SOL    HW222204   9.022   5.601   1.045  0.7512  0.4404 -2.9507
 3494SOL     OW22205  10.962   4.178   3.595  0.3302 -0.3057  0.7007
 3494SOL    HW122206  10.904   4.251   3.615  0.1262 -0.0812 -0.6287
 3494SOL    HW222207  11.043   4.199   3.640 -0.2386 -0.0576  1.6397
 3495SOL     OW22208   8.257   8.977   2.873 -0.3727  0.0949  0.1720
 3495SOL    HW122209   8.211   8.893   2.865 -2.1979  1.1417 -1.2908
 3495SOL    HW222210   8.203   9.028   2.933 -0.9224  1.1765 -1.1753
 3496SOL     OW22211   8.833   4.282   2.004 -0.1935 -0.6098 -0.5226
 3496SOL    HW122212   8.921   4.310   1.980  0.3174  0.3763  2.1095
 3496SOL    HW222213   8.845   4.230   2.083 -1.9901  0.1703  0.3241
 3497SOL     OW22214  11.949   8.373   8.908  0.4170 -0.4756  0.2829
 3497SOL    HW122215  11.913   8.358   8.821  0.7603 -0.7863  0.1909
 3497SOL    HW222216  11.911   8.304   8.963 -0.6373  0.3643  0.6286
 3498SOL     OW22217  11.269  10.728   5.841  0.0854 -0.0233 -0.2300
 3498SOL    HW122218  11.208  10.800   5.828  0.0084 -0.0174  0.1405
 3498SOL    HW222219  11.223  10.651   5.809 -0.4028 -0.1318  0.6961
 3499SOL     OW22220   2.798   4.581   7.288 -0.3232 -0.5702 -0.1629
 3499SOL    HW122221   2.840   4.496   7.299 -2.2035 -1.4444  0.7110
 3499SOL    HW222222   2.714   4.573   7.334 -0.3158  1.9458  0.4309
 3500SOL     OW22223  10.675   5.750   3.121 -0.1703 -0.4788 -0.5122
 3500SOL    HW122224  10.711   5.762   3.034 -0.7754 -2.3425 -1.0662
 3500SOL    HW222225  10.749   5.722   3.175  0.1755  0.5446 -0.4337
 3501SOL     OW22226   8.316  10.935   9.392  0.2951 -0.2001  0.3021
 3501SOL    HW122227   8.290  10.845   9.410  1.1824 -0.1682  1.9669
 3501SOL    HW222228   8.241  10.988   9.420 -0.2587 -0.4147 -0.7540
 3502SOL     OW22229  11.458   5.709   9.339  0.2523 -0.6400 -0.0751
 3502SOL    HW122230  11.433   5.801   9.331  2.2482 -0.0637 -0.0749
 3502SOL    HW222231  11.498   5.702   9.426  0.2258 -1.4948 -0.1213
 3503SOL     OW22232   3.859   1.403   6.558 -0.2427  0.4121 -0.1647
 3503SOL    HW122233   3.820   1.319   6.531 -0.2310  0.5608 -0.6479
 3503SOL    HW222234   3.949   1.399   6.526  0.7894 -0.7115  2.5375
 3504SOL     OW22235   2.646   3.753   3.934  0.1785  0.1595  0.7585
 3504SOL    HW122236   2.710   3.691   3.970  0.2955  0.1034  0.4490
 3504SOL    HW222237   2.574   3.751   3.997  0.2455 -0.1845  0.8250
 3505SOL     OW22238   3.901   8.062   0.839 -0.6367  0.1785 -0.0885
 3505SOL    HW122239   3.818   8.099   0.808 -0.8495 -1.0047 -0.9741
 3505SOL    HW222240   3.934   8.127   0.902 -2.6072  0.3184  0.8822
 3506SOL     OW22241   5.030   9.179   9.979  0.4980  0.0651  0.2896
 3506SOL    HW122242   5.056   9.271   9.978 -1.9101  0.8232  1.2776
 3506SOL    HW222243   4.974   9.170  10.056 -0.8475 -1.7660 -0.8217
 3507SOL     OW22244   9.117   7.622   4.384 -0.3540 -0.0419 -0.1679
 3507SOL    HW122245   9.095   7.683   4.455 -0.7607  0.9111 -1.0867
 3507SOL    HW222246   9.148   7.678   4.313  0.3931 -1.0097 -0.6275
 3508SOL     OW22247   9.716   2.024  10.051 -0.3189 -0.3301 -0.3358
 3508SOL    HW122248   9.629   2.054  10.076 -0.1590  0.6965 -0.9766
 3508SOL    HW222249   9.776   2.085  10.093  0.0314 -0.0810 -1.1816
 3509SOL     OW22250   2.799   3.605   9.624  0.2817 -0.2846  0.3473
 3509SOL    HW122251   2.836   3.529   9.579  1.0418  0.6984 -0.7295
 3509SOL    HW222252   2.739   3.643   9.560 -2.2143 -1.4871  1.8379
 3510SOL     OW22253   5.825   7.269   1.447  0.2328 -0.9582  0.5879
 3510SOL    HW122254   5.779   7.230   1.521 -0.8687 -1.2152 -0.2108
 3510SOL    HW222255   5.815   7.363   1.458 -1.7405 -1.0289 -0.3241
 3511SOL     OW22256   8.352   2.573   8.825  0.0627  0.2637  0.0427
 3511SOL    HW122257   8.319   2.648   8.875 -2.2339  0.8747 -2.1820
 3511SOL    HW222258   8.278   2.514   8.819  0.2356  0.1727 -2.4480
 3512SOL     OW22259   8.866   7.478   3.845 -0.3344  0.7722  0.2165
 3512SOL    HW122260   8.855   7.414   3.915 -1.5127  1.5847  0.7988
 3512SOL    HW222261   8.867   7.563   3.890  2.6948  1.1770 -0.3491
 3513SOL     OW22262   8.062  11.335   6.155  1.0378  0.2408  0.0474
 3513SOL    HW122263   8.105  11.413   6.121 -0.1380  0.7063 -0.4422
 3513SOL    HW222264   7.986  11.369   6.202  1.5126 -0.5180  1.4151
 3514SOL     OW22265   2.640   3.976   0.060 -0.7112 -0.0410  0.1577
 3514SOL    HW122266   2.587   3.900   0.083  0.4759 -0.5112  1.5182
 3514SOL    HW222267   2.680   3.953  -0.024 -2.0418  0.0195 -0.5113
 3515SOL     OW22268   5.675   5.610   6.062 -0.0924  0.1215 -0.0171
 3515SOL    HW122269   5.675   5.678   6.129  0.4755  0.7645 -0.6578
 3515SOL    HW222270   5.753   5.558   6.081 -0.0330  0.1916 -0.0696
 3516SOL     OW22271   2.457   4.891   7.814 -0.2334 -0.1160 -0.0391
 3516SOL    HW122272   2.476   4.928   7.727  0.2314 -0.2590  0.0016
 3516SOL    HW222273   2.436   4.968   7.867  0.2697  0.0532 -0.0755
 3517SOL     OW22274   7.598   9.780   2.245 -0.5537  0.1446  0.4285
 3517SOL    HW122275   7.692   9.765   2.234 -0.6069 -3.6280  3.1247
 3517SOL    HW222276   7.592   9.848   2.312  0.3694 -0.8566  1.5777
 3518SOL     OW22277   4.484   9.578  10.474  0.7331  0.1414  0.4782
 3518SOL    HW122278   4.517   9.646  10.415  0.0073 -0.6017 -0.8213
 3518SOL    HW222279   4.533   9.500  10.450 -2.1132 -1.1189 -1.8389
 3519SOL     OW22280   1.765   2.415   5.532 -0.5186  0.0508 -0.7799
 3519SOL    HW122281   1.790   2.384   5.619 -1.4012  1.8422  0.1626
 3519SOL    HW222282   1.819   2.493   5.518 -0.6492 -0.0050 -1.6901
 3520SOL     OW22283   0.455   7.236   7.015  0.0866  0.6676  0.6850
 3520SOL    HW122284   0.474   7.210   7.105  2.5897  0.9529  0.3139
 3520SOL    HW222285   0.525   7.196   6.964 -1.1061  0.7780 -1.1158
 3521SOL     OW22286   3.633   6.127  10.021 -0.4393  0.0114 -0.6085
 3521SOL    HW122287   3.646   6.077  10.102  1.0096  0.3745 -0.5913
 3521SOL    HW222288   3.704   6.191  10.021 -0.4622  0.0670 -2.1412
 3522SOL     OW22289  11.357   8.150   9.579 -0.2087  0.1362  0.3239
 3522SOL    HW122290  11.438   8.168   9.531  0.7628 -1.1047  1.4030
 3522SOL    HW222291  11.303   8.228   9.566  0.7645  0.6061 -1.2042
 3523SOL     OW22292   9.295   9.522   7.808 -0.2132 -0.1824 -0.4743
 3523SOL    HW122293   9.294   9.450   7.871  1.9629  0.6097  0.5968
 3523SOL    HW222294   9.274   9.599   7.860  1.3190  0.4426 -0.7364
 3524SOL     OW22295   6.259   1.546  10.969  0.4095 -0.0481 -0.0261
 3524SOL    HW122296   6.346   1.584  10.982  0.2538 -0.4236  2.7890
 3524SOL    HW222297   6.199   1.611  11.006 -0.3397 -0.6163 -0.2190
 3525SOL     OW22298   3.197   2.683   9.887  0.3114 -0.3849 -0.0303
 3525SOL    HW122299   3.166   2.687   9.796 -2.3460 -0.5640  0.8043
 3525SOL    HW222300   3.276   2.738   9.887 -1.2412  2.0737 -1.8462
 3526SOL     OW22301   5.111   4.941   4.479  0.2049 -0.1869 -0.1910
 3526SOL    HW122302   5.066   4.939   4.564 -0.0316 -0.4274 -0.3218
 3526SOL    HW222303   5.059   4.999   4.425  0.7605  0.5541  0.0476
 3527SOL     OW22304  11.520   4.020   6.045 -0.2008  0.0053  0.0092
 3527SOL    HW122305  11.553   3.930   6.045  0.3054  0.1634  1.4899
 3527SOL    HW222306  11.557   4.059   5.966  0.1762 -0.8841 -0.2638
 3528SOL     OW22307  11.465   1.250  10.434  0.3646  0.6255  0.0947
 3528SOL    HW122308  11.521   1.215  10.365  2.4562  1.5109  1.2443
 3528SOL    HW222309  11.515   1.236  10.515 -1.3443  0.9569  1.2635
 3529SOL     OW22310   9.732   9.688  11.472 -0.3908  0.3189  0.6727
 3529SOL    HW122311   9.693   9.769  11.438 -1.5820 -1.1160 -1.5946
 3529SOL    HW222312   9.668   9.654  11.534 -2.2611 -1.2700 -1.9503
 3530SOL     OW22313  10.146   0.831   2.590  0.1603 -0.0245 -0.4952
 3530SOL    HW122314  10.200   0.863   2.663 -1.8905 -0.8998  1.5518
 3530SOL    HW222315  10.164   0.892   2.518  2.7927  0.4971  0.4697
 3531SOL     OW22316   7.585  11.710   2.269 -0.5181  0.0160 -0.0166
 3531SOL    HW122317   7.587  11.776   2.338  0.7872 -1.3831  1.3767
 3531SOL    HW222318   7.671  11.715   2.228  0.0315 -1.4576  0.8373
 3532SOL     OW22319   4.672  11.804   7.914  0.1018  0.7793 -0.3274
 3532SOL    HW122320   4.639  11.894   7.918 -1.9484  0.0859 -0.6594
 3532SOL    HW222321   4.639  11.762   7.993 -1.3958 -0.4048 -1.5029
 3533SOL     OW22322   6.026   5.489  11.702  0.4957 -0.2072  0.8510
 3533SOL    HW122323   6.045   5.415  11.644 -0.5310  0.7879 -0.8760
 3533SOL    HW222324   5.930   5.491  11.707  0.4961  1.0555  0.7294
 3534SOL     OW22325   0.862   6.748   6.988  0.3491  0.4167  0.5037
 3534SOL    HW122326   0.915   6.753   7.068  0.3678  1.7378  0.4357
 3534SOL    HW222327   0.849   6.655   6.973  2.2690  0.0733  0.7861
 3535SOL     OW22328  10.443  11.416  11.530 -0.0356 -1.1301  0.4649
 3535SOL    HW122329  10.372  11.390  11.589 -0.5376 -0.9093 -0.0306
 3535SOL    HW222330  10.398  11.455  11.455  0.6130 -1.0087  0.1354
 3536SOL     OW22331   7.777   6.325  10.526 -0.3421 -0.0059  0.1151
 3536SOL    HW122332   7.833   6.299  10.452  0.5243  1.4865  0.1888
 3536SOL    HW222333   7.778   6.421  10.523  1.1748  0.1923  3.0812
 3537SOL     OW22334   1.839   0.412   2.626  0.2651 -0.5397  0.2302
 3537SOL    HW122335   1.906   0.451   2.570 -0.0901  0.2822  0.3635
 3537SOL    HW222336   1.855   0.318   2.620 -0.4138 -0.5783 -2.0849
 3538SOL     OW22337  10.326  11.751   5.590  0.1771 -0.0086  0.4377
 3538SOL    HW122338  10.280  11.732   5.671 -0.9197  0.2762 -0.0989
 3538SOL    HW222339  10.323  11.847   5.583  1.4640  0.0736  0.7295
 3539SOL     OW22340   5.210   4.662   8.443  0.0647  0.3490 -0.0411
 3539SOL    HW122341   5.302   4.687   8.441  0.4040 -0.8816 -0.7619
 3539SOL    HW222342   5.199   4.617   8.527  0.7352 -1.6232 -0.9616
 3540SOL     OW22343  10.579   1.657   4.322 -0.7627 -0.0881  0.0183
 3540SOL    HW122344  10.612   1.647   4.232  0.1051  0.8040  0.2317
 3540SOL    HW222345  10.484   1.651   4.312 -0.6653 -0.3177 -0.9210
 3541SOL     OW22346   9.076  10.484   0.918  0.1409  0.7918 -0.3011
 3541SOL    HW122347   9.118  10.468   1.002 -2.7315  1.8350  1.4810
 3541SOL    HW222348   9.127  10.555   0.879  1.2001  0.6641  0.7870
 3542SOL     OW22349  11.652  10.618   9.516  0.0628 -0.0558 -0.4726
 3542SOL    HW122350  11.564  10.587   9.495  0.2381 -0.1009 -1.1421
 3542SOL    HW222351  11.681  10.665   9.439  0.9453 -0.7482 -0.5809
 3543SOL     OW22352  10.219   2.095   6.110 -0.3827  0.3150 -0.2225
 3543SOL    HW122353  10.144   2.150   6.086  0.4592  0.4947 -2.7866
 3543SOL    HW222354  10.228   2.106   6.205 -3.8234 -0.0723  0.2837
 3544SOL     OW22355   9.036   5.058   3.939 -0.2866  0.7324 -0.6741
 3544SOL    HW122356   9.117   5.098   3.906 -0.2439  3.8333  2.5428
 3544SOL    HW222357   8.966   5.117   3.908 -0.7953  0.5863  0.1702
 3545SOL     OW22358  11.505   1.435   4.298 -0.4384  0.0762 -0.6004
 3545SOL    HW122359  11.597   1.458   4.301 -0.5374  0.3936  0.2435
 3545SOL    HW222360  11.499   1.370   4.228  0.7996 -1.5703  0.7385
 3546SOL     OW22361  11.730   4.701  11.304 -0.4308 -0.5956 -0.2188
 3546SOL    HW122362  11.714   4.673  11.214  0.3564 -0.4118 -0.4272
 3546SOL    HW222363  11.757   4.622  11.350 -1.5379 -0.8303  0.0386
 3547SOL     OW22364   8.536   9.776   0.676  0.4312 -0.2636 -0.1909
 3547SOL    HW122365   8.547   9.835   0.602 -0.1692 -1.8207 -1.5847
 3547SOL    HW222366   8.624   9.749   0.699  0.9043  2.3657  1.5872
 3548SOL     OW22367   5.079   1.892   3.809  0.2851  0.3178 -0.5180
 3548SOL    HW122368   5.001   1.837   3.816  0.5203 -0.4765 -3.0981
 3548SOL    HW222369   5.055   1.973   3.854 -1.8297 -0.1268 -0.7307
 3549SOL     OW22370   7.278   4.581   9.949  0.5338 -0.7166 -0.4972
 3549SOL    HW122371   7.228   4.540  10.020  0.0294 -2.0091 -1.5583
 3549SOL    HW222372   7.245   4.539   9.869  0.5830  1.1875 -1.5816
 3550SOL     OW22373   7.983   7.586   7.382 -0.3149  0.1987 -0.3339
 3550SOL    HW122374   8.044   7.534   7.435 -0.4434  0.4491  0.0670
 3550SOL    HW222375   7.949   7.525   7.317 -0.3299 -0.1759  0.0229
 3551SOL     OW22376   4.320   5.455   4.340 -0.2721 -0.3678  0.2398
 3551SOL    HW122377   4.236   5.501   4.347 -0.6776 -0.9316 -0.6483
 3551SOL    HW222378   4.298   5.363   4.354  0.3486 -0.4185  0.8836
 3552SOL     OW22379   0.409   5.763   5.402 -0.9990 -0.3957  0.2331
 3552SOL    HW122380   0.371   5.850   5.412 -0.5175 -0.3618  2.5008
 3552SOL    HW222381   0.503   5.777   5.409 -0.6769 -0.7995 -2.4668
 3553SOL     OW22382   1.369   1.257  10.714  0.2820 -0.4765 -0.3987
 3553SOL    HW122383   1.450   1.256  10.664  0.9238  1.6106  0.4777
 3553SOL    HW222384   1.376   1.184  10.775  1.8258  0.0867  0.1249
 3554SOL     OW22385   6.360  11.895   7.041  0.2605 -0.2479  0.1956
 3554SOL    HW122386   6.275  11.940   7.045 -0.1897 -1.0963  0.3297
 3554SOL    HW222387   6.374  11.880   6.947 -0.0013 -0.5973  0.2113
 3555SOL     OW22388   0.874   0.270   4.137 -0.2628  0.6381 -0.1137
 3555SOL    HW122389   0.895   0.362   4.125 -0.9347  0.9713  1.1383
 3555SOL    HW222390   0.785   0.261   4.104  0.1316  0.2093 -1.1178
 3556SOL     OW22391   7.992   3.303   1.335 -0.5956  0.6600  0.2886
 3556SOL    HW122392   7.908   3.259   1.320  0.1407 -0.7520  0.1893
 3556SOL    HW222393   7.993   3.319   1.429 -0.6508 -0.0120  0.4085
 3557SOL     OW22394   9.040   5.768   4.156 -0.0453 -0.1276  0.1567
 3557SOL    HW122395   8.998   5.715   4.223  0.1282 -1.2649 -0.6172
 3557SOL    HW222396   8.969   5.790   4.095 -0.1190  0.5537  0.4770
 3558SOL     OW22397   7.497  11.514   1.663 -0.7722 -0.2691  0.0635
 3558SOL    HW122398   7.576  11.542   1.616 -1.7236  0.5604 -1.0984
 3558SOL    HW222399   7.499  11.564   1.744 -0.6170  0.5138 -0.4140
 3559SOL     OW22400   5.503   9.104   4.560 -0.3960 -0.3287  0.0531
 3559SOL    HW122401   5.468   9.039   4.621 -0.5166  1.0898  1.5788
 3559SOL    HW222402   5.585   9.066   4.528 -0.7041 -1.4285  0.5465
 3560SOL     OW22403   5.554   1.835   7.538 -0.0602  0.0799  0.7096
 3560SOL    HW122404   5.511   1.897   7.480  1.0805 -0.8023 -1.1778
 3560SOL    HW222405   5.648   1.849   7.522  0.3163  0.1409  2.7353
 3561SOL     OW22406   8.392   5.620   5.419  0.0410  0.8051 -1.0108
 3561SOL    HW122407   8.469   5.625   5.475 -0.2426 -0.0071 -0.5296
 3561SOL    HW222408   8.423   5.645   5.332  0.8798  0.3282 -0.8544
 3562SOL     OW22409   5.344   5.990   1.011 -0.6698 -0.1438 -0.2276
 3562SOL    HW122410   5.398   6.030   1.078 -0.1527 -0.3975 -0.4832
 3562SOL    HW222411   5.338   5.898   1.037 -0.2307 -0.3027 -0.6729
 3563SOL     OW22412   1.618   2.199   2.232  0.1527 -0.0929  0.0743
 3563SOL    HW122413   1.570   2.268   2.187 -2.1541 -1.9399 -0.5027
 3563SOL    HW222414   1.582   2.197   2.320  0.3657 -0.4148  0.1561
 3564SOL     OW22415   4.412   3.049   7.752 -0.2839 -0.5914 -0.2884
 3564SOL    HW122416   4.425   3.128   7.700 -0.8355 -2.0001 -2.7485
 3564SOL    HW222417   4.337   3.068   7.807  0.8170  1.2452  0.6823
 3565SOL     OW22418   2.121   1.115   7.329  0.4980  0.3089  0.5410
 3565SOL    HW122419   2.029   1.088   7.328  0.8458 -1.1935  2.2704
 3565SOL    HW222420   2.154   1.081   7.413  2.5467  1.0919  0.0978
 3566SOL     OW22421   0.781   6.046  10.822  0.2801 -0.0724 -0.4799
 3566SOL    HW122422   0.716   6.015  10.886 -0.7703  1.0268 -0.9814
 3566SOL    HW222423   0.787   6.140  10.838  0.0795  0.2033 -1.9160
 3567SOL     OW22424   8.330   8.908   8.643 -0.0836  0.7457  0.1684
 3567SOL    HW122425   8.310   8.925   8.551 -0.3420  0.3498  0.1473
 3567SOL    HW222426   8.426   8.904   8.646 -0.0784  0.6061 -0.1150
 3568SOL     OW22427   5.568  10.968   7.495  0.0174  0.3948 -0.2226
 3568SOL    HW122428   5.641  10.907   7.499 -1.3596 -1.3909 -0.7076
 3568SOL    HW222429   5.522  10.957   7.578 -1.0782 -0.4088 -0.8915
 3569SOL     OW22430   8.349   5.852   1.199 -0.1999  0.2219  0.4674
 3569SOL    HW122431   8.371   5.765   1.165  1.6201  0.6650  0.4153
 3569SOL    HW222432   8.385   5.912   1.134 -2.5824  1.0576 -0.1706
 3570SOL     OW22433   1.902   1.226   1.164 -0.6639  0.0891  0.2060
 3570SOL    HW122434   1.907   1.138   1.202  0.6319 -0.4698 -1.1347
 3570SOL    HW222435   1.913   1.285   1.239  1.1264 -0.9560  0.8309
 3571SOL     OW22436   5.697   7.721   2.113 -0.0005  0.6855 -0.4598
 3571SOL    HW122437   5.603   7.705   2.117 -0.2355  1.2134 -2.5496
 3571SOL    HW222438   5.735   7.655   2.171 -1.4901 -1.5330 -1.8565
 3572SOL     OW22439   3.186   5.784   5.015 -0.4424  0.2688  0.7881
 3572SOL    HW122440   3.238   5.717   5.059  0.2156  1.0141  1.1718
 3572SOL    HW222441   3.138   5.737   4.947  0.1919 -0.5487  0.8982
 3573SOL     OW22442   3.801   8.299  11.376  0.3837 -0.0060  0.4845
 3573SOL    HW122443   3.839   8.354  11.308 -0.7595  0.3279  0.0825
 3573SOL    HW222444   3.784   8.216  11.333 -0.7609  0.3515  0.2127
 3574SOL     OW22445   8.423  10.853   8.634 -0.0011 -0.0349 -0.1961
 3574SOL    HW122446   8.482  10.824   8.565 -0.5882 -1.6986 -0.0494
 3574SOL    HW222447   8.441  10.946   8.644  1.6274 -0.2195 -1.0840
 3575SOL     OW22448   1.767   3.661   3.311  0.2149 -0.3581  0.3241
 3575SOL    HW122449   1.759   3.591   3.376  2.2306 -0.7756  0.1718
 3575SOL    HW222450   1.833   3.720   3.347  0.1845  0.2743 -0.6187
 3576SOL     OW22451   7.041   9.590   0.925  0.0239  0.3450  0.4676
 3576SOL    HW122452   7.083   9.674   0.906 -1.9446  1.5116  0.9060
 3576SOL    HW222453   7.040   9.584   1.020  2.0974 -1.3003  0.4591
 3577SOL     OW22454   8.157   0.429  11.221  0.5003  0.3083  0.2962
 3577SOL    HW122455   8.115   0.444  11.306  1.2046 -1.7713  1.0829
 3577SOL    HW222456   8.092   0.378  11.171  1.0625 -0.6850  0.5598
 3578SOL     OW22457   6.422   6.860   5.112 -0.7941 -0.4251 -0.3719
 3578SOL    HW122458   6.339   6.874   5.066 -1.5870 -3.6970 -0.1977
 3578SOL    HW222459   6.483   6.831   5.043 -0.4679 -0.2544 -0.1581
 3579SOL     OW22460   1.671   7.017   9.830 -0.1198  0.4503  0.2519
 3579SOL    HW122461   1.606   6.979   9.889 -1.2930 -0.6721 -1.6546
 3579SOL    HW222462   1.736   6.948   9.817  0.3718  0.8492  0.5519
 3580SOL     OW22463   7.093   2.982   9.879  0.1505  0.1548 -0.4255
 3580SOL    HW122464   7.122   2.935   9.801  0.0613  0.7525 -0.8253
 3580SOL    HW222465   7.092   3.074   9.853  0.4573  0.3945  0.3933
 3581SOL     OW22466   4.921   1.251   1.765  0.3932  0.5197  0.7080
 3581SOL    HW122467   4.975   1.294   1.832  1.0268  0.1441  0.4546
 3581SOL    HW222468   4.837   1.236   1.808  0.2499  1.7315  0.8951
 3582SOL     OW22469  11.936   3.367  10.240  0.0254  0.1841  0.2227
 3582SOL    HW122470  11.922   3.302  10.309 -1.1534  0.9445  0.7312
 3582SOL    HW222471  11.848   3.389  10.209  0.4564  0.8725 -0.5669
 3583SOL     OW22472   1.995   0.947  11.141 -0.3771 -0.4051 -0.2808
 3583SOL    HW122473   2.080   0.973  11.177  1.3076 -2.3449 -2.5785
 3583SOL    HW222474   1.962   1.026  11.098  2.1111 -0.4925 -2.5957
 3584SOL     OW22475   7.212   4.263   9.882 -0.0034 -0.3514 -0.0017
 3584SOL    HW122476   7.176   4.307   9.959 -0.3299  0.7833 -0.7791
 3584SOL    HW222477   7.194   4.322   9.810  0.0775 -1.5103 -1.0085
 3585SOL     OW22478   6.113   7.139   2.421  0.1779  0.0288 -0.0070
 3585SOL    HW122479   6.186   7.128   2.359  0.7905 -0.3262  0.7573
 3585SOL    HW222480   6.119   7.230   2.449  1.2498 -0.3719  1.1522
 3586SOL     OW22481   0.169  11.591  10.544  0.2318 -0.3747  0.3194
 3586SOL    HW122482   0.083  11.602  10.584 -0.6098 -1.3665 -1.1305
 3586SOL    HW222483   0.223  11.658  10.586 -1.0619 -0.1484  1.7241
 3587SOL     OW22484   4.488  11.658  11.581 -0.4101  0.4355 -0.0788
 3587SOL    HW122485   4.423  11.650  11.511  0.8181 -0.6657 -1.1620
 3587SOL    HW222486   4.571  11.669  11.534  0.8651 -3.1044  1.0346
 3588SOL     OW22487   4.005   9.244   1.995  0.3206  0.3709  0.0203
 3588SOL    HW122488   4.097   9.224   1.977  0.2056  1.0135 -1.4075
 3588SOL    HW222489   4.008   9.321   2.052  0.6577 -0.1486  0.7291
 3589SOL     OW22490  11.781   8.476   0.474  0.1601  0.4574 -0.2487
 3589SOL    HW122491  11.851   8.429   0.520  0.7828  0.1667 -1.4522
 3589SOL    HW222492  11.818   8.562   0.455 -0.1510  0.6315 -0.0829
 3590SOL     OW22493   5.566   4.345  10.030  0.5399  0.1209  0.5421
 3590SOL    HW122494   5.475   4.354  10.003  0.3016 -3.7077 -0.5543
 3590SOL    HW222495   5.562   4.296  10.113  1.5853  0.6085  0.8982
 3591SOL     OW22496   8.103   2.513   3.908  0.1348 -0.0899  0.1109
 3591SOL    HW122497   8.137   2.536   3.995  2.7835 -2.3834 -0.1806
 3591SOL    HW222498   8.128   2.422   3.896 -1.1599 -0.1765 -2.6570
 3592SOL     OW22499   8.907   3.283   1.189  0.1271  0.2304  0.4841
 3592SOL    HW122500   8.942   3.226   1.258 -0.0169  1.3473  1.5073
 3592SOL    HW222501   8.924   3.372   1.221  2.6509  0.8558 -2.1987
 3593SOL     OW22502   4.253   5.452   2.231  0.6697  0.2234 -0.3976
 3593SOL    HW122503   4.320   5.398   2.273  0.3775 -0.3185 -0.6149
 3593SOL    HW222504   4.254   5.534   2.279 -0.8966 -0.9902  1.8700
 3594SOL     OW22505  11.168   9.250   5.765  0.2023 -0.4229  0.3367
 3594SOL    HW122506  11.107   9.291   5.826 -0.2292  2.5157 -1.7921
 3594SOL    HW222507  11.252   9.252   5.809 -0.1955  1.1083  1.0811
 3595SOL     OW22508   7.618   4.966   8.909  0.6258  0.0212  0.4408
 3595SOL    HW122509   7.602   5.056   8.879 -0.4476 -0.4201 -0.3604
 3595SOL    HW222510   7.553   4.914   8.863  0.5343 -1.0380  1.7223
 3596SOL     OW22511   8.795   4.940   4.092 -0.3737  0.0214 -0.0066
 3596SOL    HW122512   8.873   4.988   4.065  0.1463  0.0342  1.4205
 3596SOL    HW222513   8.813   4.914   4.182 -1.7558 -0.5499  0.1328
 3597SOL     OW22514   3.001   7.969   0.213  0.4105  0.1116 -0.4516
 3597SOL    HW122515   2.945   7.891   0.208  0.5394  0.0030 -0.2244
 3597SOL    HW222516   3.037   7.978   0.125 -0.6915  0.7313 -0.8679
 3598SOL     OW22517   8.314  10.595   1.059  0.0850  0.6227  0.2495
 3598SOL    HW122518   8.356  10.516   1.023  0.8479  1.7131 -1.4067
 3598SOL    HW222519   8.226  10.595   1.020 -0.3112  0.0374  1.1242
 3599SOL     OW22520   2.260   2.792   7.653  0.2705  0.4552  0.1729
 3599SOL    HW122521   2.349   2.759   7.652  1.1301  2.6048  0.5882
 3599SOL    HW222522   2.257   2.856   7.581 -0.5336  1.3393  0.9659
 3600SOL     OW22523  11.806   3.227   1.802  0.0462 -0.2410 -0.1617
 3600SOL    HW122524  11.744   3.167   1.842 -0.3438  0.3237  0.1027
 3600SOL    HW222525  11.756   3.271   1.733  0.0742  0.3672  0.1902
 3601SOL     OW22526  10.696   7.754   8.729  0.1019 -0.0330 -0.2877
 3601SOL    HW122527  10.699   7.849   8.715 -0.9754 -0.0527 -0.7802
 3601SOL    HW222528  10.709   7.743   8.823 -1.3563  0.7399  0.0416
 3602SOL     OW22529   9.570   1.350   7.707  0.4034 -0.1730  0.1354
 3602SOL    HW122530   9.586   1.353   7.801 -2.2706 -2.2656  0.7772
 3602SOL    HW222531   9.536   1.437   7.685 -0.9444 -0.2888  1.5885
 3603SOL     OW22532   5.582   1.529   0.014 -0.0051 -0.1607  0.1418
 3603SOL    HW122533   5.623   1.524  -0.072  0.0086 -2.1292  0.2214
 3603SOL    HW222534   5.488   1.526  -0.004 -0.0050 -0.4424  0.1878
 3604SOL     OW22535   2.145  10.949  10.684 -0.3423 -0.2400  0.5940
 3604SOL    HW122536   2.160  10.899  10.604 -0.4387 -0.9850  1.0363
 3604SOL    HW222537   2.052  10.936  10.702 -0.0312 -1.2465  1.5949
 3605SOL     OW22538   4.135   1.787   6.965  0.0908  0.0835 -0.3160
 3605SOL    HW122539   4.163   1.736   7.041 -0.6071  1.6120  1.0507
 3605SOL    HW222540   4.086   1.860   7.003 -0.0854  1.0282 -2.2446
 3606SOL     OW22541   8.083   4.712   8.019  0.0944 -0.1887 -0.0534
 3606SOL    HW122542   8.022   4.646   8.052 -0.5550  0.4566  0.0637
 3606SOL    HW222543   8.096   4.772   8.092 -0.4856  0.6336 -0.6062
 3607SOL     OW22544   1.428   4.158   0.767 -0.3188 -0.4300 -0.1746
 3607SOL    HW122545   1.432   4.252   0.787 -0.3875 -0.1368 -1.4615
 3607SOL    HW222546   1.436   4.115   0.853  0.6992  0.7191  0.3379
 3608SOL     OW22547   0.989   5.977   0.197  0.6474 -0.5692 -0.3274
 3608SOL    HW122548   0.963   6.025   0.118  0.5747 -0.2790 -0.1307
 3608SOL    HW222549   1.071   6.018   0.224 -1.6689  2.7752  2.5330
 3609SOL     OW22550   7.184   1.995  10.584 -0.5681  0.3119  0.2511
 3609SOL    HW122551   7.230   2.010  10.667 -2.0164  1.9418  0.8061
 3609SOL    HW222552   7.173   1.900  10.580 -0.0300  0.1672  1.6675
 3610SOL     OW22553   5.043  10.014   5.169  0.8661  0.1157  0.0256
 3610SOL    HW122554   5.069  10.069   5.242  1.5375 -0.9473  0.6178
 3610SOL    HW222555   5.046   9.925   5.204 -3.0681 -0.1914  0.0211
 3611SOL     OW22556   9.601   9.482   9.397  0.2120  0.2666 -0.1160
 3611SOL    HW122557   9.669   9.549   9.407  0.7214 -0.1077 -1.0322
 3611SOL    HW222558   9.647   9.405   9.364 -0.5551 -0.1925 -0.1379
 3612SOL     OW22559  11.524   3.422   3.010 -0.0679 -0.2426 -0.5082
 3612SOL    HW122560  11.602   3.478   3.014 -0.3298  0.1362 -0.6687
 3612SOL    HW222561  11.520   3.393   2.919  0.9625 -1.8195 -0.0916
 3613SOL     OW22562   3.966   0.926  11.830  0.1237 -0.3998  0.1949
 3613SOL    HW122563   3.987   0.923  11.924 -0.6586 -1.4454  0.3597
 3613SOL    HW222564   4.032   0.985  11.793 -0.0296  0.6796  1.5200
 3614SOL     OW22565   2.832   5.764   3.320  0.1784 -0.2247 -0.4036
 3614SOL    HW122566   2.852   5.715   3.241  0.5139  0.7872 -0.9623
 3614SOL    HW222567   2.847   5.856   3.296 -1.6093  0.2745  0.2391
 3615SOL     OW22568   8.070  10.389   2.635 -0.0108 -0.2778 -0.2105
 3615SOL    HW122569   8.134  10.453   2.667  0.6049 -1.0176  0.0415
 3615SOL    HW222570   8.059  10.410   2.542 -0.7787  1.0037  0.1327
 3616SOL     OW22571   7.149   4.720   7.989 -0.4205 -0.2219  0.1282
 3616SOL    HW122572   7.224   4.663   8.004  0.6036  1.0430 -0.0355
 3616SOL    HW222573   7.125   4.752   8.075 -0.0008  0.3027  0.0570
 3617SOL     OW22574   6.789  11.599   8.724 -0.1076 -0.4430 -0.3529
 3617SOL    HW122575   6.712  11.643   8.761 -0.6596  0.5635 -2.5296
 3617SOL    HW222576   6.765  11.507   8.720 -0.2649 -0.4839  1.1509
 3618SOL     OW22577   7.465   6.951   7.320  0.5430  0.2057  0.3540
 3618SOL    HW122578   7.411   6.959   7.241 -0.8867 -1.7579  1.0515
 3618SOL    HW222579   7.408   6.982   7.391 -0.3795 -3.2971  1.3184
 3619SOL     OW22580   4.856   1.062   2.018 -0.2805  0.7088  0.3080
 3619SOL    HW122581   4.860   1.022   1.931 -0.0088  0.1093  0.5913
 3619SOL    HW222582   4.945   1.053   2.052 -0.5820  0.1974  0.9744
 3620SOL     OW22583   1.700   0.537   6.550 -0.2679  0.2279 -1.4251
 3620SOL    HW122584   1.787   0.565   6.577 -0.3134 -0.5716 -0.4086
 3620SOL    HW222585   1.681   0.460   6.604 -1.1724 -0.2457 -2.3719
 3621SOL     OW22586   0.863   5.737   6.050 -0.6841 -0.1887 -0.2756
 3621SOL    HW122587   0.833   5.827   6.058 -0.2561 -0.0517 -0.1943
 3621SOL    HW222588   0.854   5.717   5.957  2.0098  0.9425 -0.8740
 3622SOL     OW22589  10.720   5.061   3.042  0.3583  0.5593 -0.4256
 3622SOL    HW122590  10.664   5.031   3.114 -0.7372  1.5030 -0.8396
 3622SOL    HW222591  10.806   5.075   3.083  0.2755 -0.7918  0.2570
 3623SOL     OW22592   5.632   1.030   5.827  0.1803 -0.2828 -0.1487
 3623SOL    HW122593   5.657   1.109   5.778  0.5197  0.4877  1.2173
 3623SOL    HW222594   5.538   1.022   5.812 -0.2702  1.6077  1.3438
 3624SOL     OW22595   1.596   6.333   8.662 -0.1874  0.0341 -0.5436
 3624SOL    HW122596   1.586   6.263   8.727 -1.1760  0.5206 -0.1452
 3624SOL    HW222597   1.506   6.361   8.643  0.1053  0.1654 -1.8458
 3625SOL     OW22598   0.469   5.765   9.777 -0.8746 -0.1575  0.0762
 3625SOL    HW122599   0.486   5.796   9.687  1.7335 -0.5565  0.3422
 3625SOL    HW222600   0.458   5.671   9.768 -1.1675 -0.1293  0.1273
 3626SOL     OW22601   6.383   5.167   4.871 -0.2562 -0.2787  0.4152
 3626SOL    HW122602   6.441   5.127   4.936 -0.4264  0.0927  0.7986
 3626SOL    HW222603   6.415   5.133   4.787  0.7547  0.2169  0.5818
 3627SOL     OW22604   8.237   8.222   6.451  0.1361  0.2593  0.0504
 3627SOL    HW122605   8.309   8.163   6.473 -0.2211 -0.7497 -1.3660
 3627SOL    HW222606   8.183   8.173   6.389 -0.3194  1.9890 -0.9916
 3628SOL     OW22607   3.274   2.260   5.109  0.2858  0.4354 -0.2348
 3628SOL    HW122608   3.227   2.236   5.189  0.2140 -0.5897 -0.5773
 3628SOL    HW222609   3.222   2.332   5.072 -1.1288 -0.7489 -0.6769
 3629SOL     OW22610   4.474   5.805   3.764  0.4415 -0.0222 -0.3005
 3629SOL    HW122611   4.486   5.900   3.757 -0.2703  0.1898  1.0221
 3629SOL    HW222612   4.380   5.792   3.755  0.4142 -0.4876  0.5969
 3630SOL     OW22613   5.171   8.705   2.947  0.4907  0.0382  0.2610
 3630SOL    HW122614   5.079   8.728   2.962  0.4613 -0.8299  1.5068
 3630SOL    HW222615   5.175   8.610   2.960  1.3733 -0.1123 -0.8567
 3631SOL     OW22616   8.816  10.037  10.185  0.2223 -0.0181 -0.1181
 3631SOL    HW122617   8.849  10.127  10.191 -3.4697  1.7453 -2.5586
 3631SOL    HW222618   8.825  10.014  10.093 -0.4181 -1.4693  0.1533
 3632SOL     OW22619   4.508   0.032   8.337  0.0636 -0.8442 -0.0728
 3632SOL    HW122620   4.532   0.119   8.306  2.0964 -1.3396 -0.0378
 3632SOL    HW222621   4.529   0.033   8.431  1.8536 -1.8867 -0.4188
 3633SOL     OW22622   2.261  11.842   5.544  0.5698 -0.6058  0.6098
 3633SOL    HW122623   2.224  11.837   5.632 -1.3349  0.3537 -0.0918
 3633SOL    HW222624   2.244  11.931   5.515  0.0128 -1.2462 -1.1882
 3634SOL     OW22625   8.448  10.165   8.765  0.2463 -0.0516  0.4261
 3634SOL    HW122626   8.533  10.122   8.773 -0.2270 -0.8694  1.2320
 3634SOL    HW222627   8.467  10.258   8.769  1.1486 -0.2204  0.1318
 3635SOL     OW22628   6.325   1.782   5.033  0.4925  0.3940  0.0226
 3635SOL    HW122629   6.292   1.857   4.984  3.2871  1.1663 -0.8379
 3635SOL    HW222630   6.247   1.729   5.050 -1.2075  2.2294 -1.4834
 3636SOL     OW22631   3.471   7.675   6.152 -0.0799  0.1411 -0.2648
 3636SOL    HW122632   3.386   7.635   6.134  0.9449 -1.3978 -2.0455
 3636SOL    HW222633   3.498   7.638   6.236 -1.2366  0.8505  0.4498
 3637SOL     OW22634  11.733   2.661   0.175 -0.0033  0.1838  0.1165
 3637SOL    HW122635  11.666   2.698   0.233  1.1557  0.3231  1.4153
 3637SOL    HW222636  11.738   2.568   0.201 -1.9702 -0.6807 -2.2341
 3638SOL     OW22637  10.273   6.882   0.521  0.5198 -1.1127  0.0297
 3638SOL    HW122638  10.308   6.954   0.574 -2.4228  2.7202 -2.6135
 3638SOL    HW222639  10.334   6.875   0.447 -0.0467 -0.0213 -0.5688
 3639SOL     OW22640   9.484   1.191   8.541 -0.1336  0.9028 -0.2924
 3639SOL    HW122641   9.400   1.221   8.507 -1.0449  0.8546  1.7333
 3639SOL    HW222642   9.545   1.262   8.521 -0.8113  1.2454 -1.1856
 3640SOL     OW22643   1.392   9.456   8.096  0.4966 -0.0352  0.1435
 3640SOL    HW122644   1.472   9.507   8.086  0.8944 -0.5313  0.7434
 3640SOL    HW222645   1.334   9.489   8.026  2.3156 -1.8107 -2.3966
 3641SOL     OW22646   2.491   9.435   9.987 -0.1442 -0.3107  0.0105
 3641SOL    HW122647   2.487   9.446   9.892 -0.7933 -1.0426 -0.0638
 3641SOL    HW222648   2.402   9.454  10.017  0.2905  0.8928  0.6001
 3642SOL     OW22649  10.431   6.063   7.146  0.1487  0.3883 -0.3424
 3642SOL    HW122650  10.365   5.997   7.167  0.3612  0.1544 -0.4096
 3642SOL    HW222651  10.476   6.080   7.229  0.9400 -0.4830 -0.5806
 3643SOL     OW22652   9.978   1.886   8.986  0.2823  0.0303  0.0929
 3643SOL    HW122653  10.041   1.855   9.050  0.9069  1.2849  0.0936
 3643SOL    HW222654   9.997   1.979   8.974  1.7294 -0.5596 -3.5973
 3644SOL     OW22655   6.183   5.150   6.775 -0.1303  0.3452 -0.3025
 3644SOL    HW122656   6.096   5.119   6.749  1.1930 -2.0828 -2.2514
 3644SOL    HW222657   6.200   5.104   6.857 -0.1301 -0.3235 -0.6693
 3645SOL     OW22658   5.390   4.497   6.902 -0.3661  0.0187 -0.2468
 3645SOL    HW122659   5.448   4.489   6.825 -0.1629  3.4920 -0.5885
 3645SOL    HW222660   5.411   4.582   6.939 -3.9714  0.6173  0.7619
 3646SOL     OW22661   2.687   1.970  11.069 -0.4830 -1.0309  0.0104
 3646SOL    HW122662   2.716   1.999  11.155 -0.1350 -1.3279 -0.0031
 3646SOL    HW222663   2.653   1.881  11.085 -0.9890 -0.8492 -0.0495
 3647SOL     OW22664   4.885  10.686   5.766 -0.4410 -0.4454 -0.0197
 3647SOL    HW122665   4.817  10.707   5.702 -0.0543  0.1453 -0.2448
 3647SOL    HW222666   4.896  10.767   5.816 -0.6105 -0.8473  0.6841
 3648SOL     OW22667   3.285   0.381   3.404 -0.6579 -0.2504 -0.1020
 3648SOL    HW122668   3.285   0.333   3.321 -0.7112  1.2085 -0.9828
 3648SOL    HW222669   3.268   0.314   3.471 -1.0023 -1.3931 -1.2964
 3649SOL     OW22670   9.350   4.498   1.251  0.1787  0.1975 -0.1921
 3649SOL    HW122671   9.258   4.474   1.257  0.4868 -1.2734 -0.8632
 3649SOL    HW222672   9.384   4.444   1.179  2.1959 -1.5168  1.9019
 3650SOL     OW22673   2.587   5.901   1.380 -0.0669 -0.2297 -0.2853
 3650SOL    HW122674   2.661   5.958   1.357 -0.1974  0.3563  0.7054
 3650SOL    HW222675   2.618   5.813   1.362  0.9570 -0.0042  0.3326
 3651SOL     OW22676   6.921   0.748   1.212  0.1384 -0.3331 -0.4952
 3651SOL    HW122677   6.835   0.790   1.206 -0.0624 -0.4062  1.2664
 3651SOL    HW222678   6.978   0.815   1.250  0.2053 -1.0927  0.8083
 3652SOL     OW22679   1.346   6.751   9.415  0.4432 -0.2306 -0.2550
 3652SOL    HW122680   1.279   6.785   9.474 -0.6856 -0.4926 -1.3378
 3652SOL    HW222681   1.297   6.713   9.342  1.7904  1.5515 -2.2019
 3653SOL     OW22682   3.864   2.005  11.870  0.5014 -0.0261  0.2167
 3653SOL    HW122683   3.778   1.965  11.873  0.7402 -0.6856 -1.1825
 3653SOL    HW222684   3.864   2.058  11.790  1.2445  0.3115  0.4270
 3654SOL     OW22685   5.661   0.991   5.416  0.1148  0.1762 -0.6948
 3654SOL    HW122686   5.607   1.052   5.364  0.4092  2.9861  2.0253
 3654SOL    HW222687   5.751   1.019   5.400  0.1957  1.3581  1.4597
 3655SOL     OW22688   1.350   6.000   4.054 -0.4688 -0.2941 -0.5334
 3655SOL    HW122689   1.310   5.943   4.119 -0.8040  1.1309  0.5545
 3655SOL    HW222690   1.322   5.963   3.970 -2.4318 -0.5224  0.1614
 3656SOL     OW22691   7.698   5.888   9.224 -0.1386 -0.2891  0.3756
 3656SOL    HW122692   7.697   5.837   9.143 -0.1263 -0.6092  0.5761
 3656SOL    HW222693   7.775   5.945   9.215 -0.0895 -0.3823  0.1986
 3657SOL     OW22694  10.301  11.245   8.944  0.1687  0.8367 -0.4320
 3657SOL    HW122695  10.305  11.208   9.032  0.0834 -1.7218 -1.4314
 3657SOL    HW222696  10.208  11.241   8.921  0.4140 -0.1122 -1.2714
 3658SOL     OW22697   9.623   4.041  11.836  0.2883 -0.0432  0.0298
 3658SOL    HW122698   9.640   4.072  11.925 -0.6062 -1.5136  0.7468
 3658SOL    HW222699   9.684   4.091  11.781 -0.5429  2.3635  1.1670
 3659SOL     OW22700   0.823   7.862   8.544 -0.1729 -0.2584  0.3017
 3659SOL    HW122701   0.899   7.804   8.548 -0.8635 -1.1425  1.1426
 3659SOL    HW222702   0.816   7.886   8.452  2.4585  1.7037  0.5015
 3660SOL     OW22703  10.071   6.925   1.797  0.9137  0.2881  0.7411
 3660SOL    HW122704  10.089   6.871   1.875  0.6699  0.9338  1.2587
 3660SOL    HW222705  10.082   6.865   1.723  0.0366 -0.6553  1.3319
 3661SOL     OW22706   3.331   9.283   0.634  0.0371  0.1941 -0.4592
 3661SOL    HW122707   3.355   9.301   0.543  1.4645 -2.3962 -0.6819
 3661SOL    HW222708   3.314   9.189   0.637  0.8628  0.0385  2.1109
 3662SOL     OW22709  10.452   6.572  11.544 -0.4221  0.1850  0.1601
 3662SOL    HW122710  10.375   6.628  11.528 -0.0862  0.6692  0.2080
 3662SOL    HW222711  10.526   6.623  11.512 -0.1238 -0.3110  0.0460
 3663SOL     OW22712   3.938  10.449   2.262  0.0714  0.0415 -0.0420
 3663SOL    HW122713   3.943  10.513   2.332  2.2610  2.1786 -1.9591
 3663SOL    HW222714   3.981  10.371   2.298  0.7238  0.9266  1.1721
 3664SOL     OW22715   9.196   6.616   0.326 -0.2843 -0.6312 -0.1981
 3664SOL    HW122716   9.239   6.591   0.244 -0.4485 -1.1523 -0.1290
 3664SOL    HW222717   9.267   6.653   0.379  0.2547 -2.1781  0.2033
 3665SOL     OW22718   4.606   7.990   9.117  0.4732  0.2753  0.1072
 3665SOL    HW122719   4.595   8.083   9.136 -3.4944  0.1813 -0.9422
 3665SOL    HW222720   4.568   7.945   9.193 -1.1554 -0.3583 -1.0339
 3666SOL     OW22721   1.554   0.540   0.118 -0.1705 -0.4004  0.3509
 3666SOL    HW122722   1.615   0.590   0.064 -0.0920 -0.9595 -0.0884
 3666SOL    HW222723   1.571   0.570   0.207  1.7123 -1.5077  0.4229
 3667SOL     OW22724  11.238   4.596   2.001  0.4230 -0.3013  0.1651
 3667SOL    HW122725  11.287   4.514   2.004 -0.3186 -0.7889 -0.8307
 3667SOL    HW222726  11.264   4.636   1.918  0.2637  0.1475  0.3304
 3668SOL     OW22727   2.537   2.493   6.156  0.0340  0.3368  0.0327
 3668SOL    HW122728   2.620   2.446   6.160 -0.6737 -0.9316  0.2981
 3668SOL    HW222729   2.536   2.532   6.069  0.4049 -0.5880 -0.3935
 3669SOL     OW22730   9.949   6.376   1.796 -0.1754  0.8192  0.7770
 3669SOL    HW122731  10.021   6.312   1.799 -1.9516 -1.3415 -0.0806
 3669SOL    HW222732   9.956   6.416   1.709 -1.7218 -1.6326 -0.5888
 3670SOL     OW22733   3.092   9.180   8.987 -0.5679  0.1174 -0.0772
 3670SOL    HW122734   3.023   9.116   8.969 -1.3374  0.9587 -0.2408
 3670SOL    HW222735   3.146   9.140   9.055 -1.0417 -0.6892 -0.1663
 3671SOL     OW22736   5.032   6.745   1.173 -0.4139 -0.2088  0.0442
 3671SOL    HW122737   4.938   6.753   1.155 -0.8216 -1.3870  1.4686
 3671SOL    HW222738   5.037   6.688   1.249  1.5325 -1.4671 -0.9455
 3672SOL     OW22739   7.396   3.144   3.106 -0.7685  0.2798  0.1739
 3672SOL    HW122740   7.325   3.205   3.127 -1.2675  0.2541 -1.3438
 3672SOL    HW222741   7.466   3.199   3.072  0.0186  0.3139  1.7545
 3673SOL     OW22742   3.071   6.305   8.076  0.1002 -0.2053 -0.3195
 3673SOL    HW122743   3.035   6.353   8.002 -1.4046  0.8299  1.0074
 3673SOL    HW222744   3.007   6.236   8.094 -1.6099  1.8498  2.2662
 3674SOL     OW22745   5.276  10.392   1.309 -0.3605  0.5058 -0.1490
 3674SOL    HW122746   5.367  10.363   1.319 -0.7944 -1.7052 -1.8897
 3674SOL    HW222747   5.236  10.373   1.394  0.9484  2.4530  1.0014
 3675SOL     OW22748   7.091   5.498   6.805  0.5847  0.0446 -0.0978
 3675SOL    HW122749   7.057   5.582   6.834 -1.6898 -0.5308 -0.9055
 3675SOL    HW222750   7.039   5.433   6.853  1.4245 -0.9046 -0.4345
 3676SOL     OW22751   9.670   4.478   7.453  0.2294  0.9717 -0.1193
 3676SOL    HW122752   9.682   4.424   7.531 -1.5449  1.5202  0.5871
 3676SOL    HW222753   9.701   4.423   7.381  0.5209 -0.1209  0.8096
 3677SOL     OW22754   8.280   2.121   3.476 -0.3796 -0.0377 -0.7785
 3677SOL    HW122755   8.210   2.186   3.465  0.5772  0.7892 -2.3868
 3677SOL    HW222756   8.236   2.037   3.467 -1.2980  0.4370 -0.8960
 3678SOL     OW22757   4.513  10.278   1.890  0.1017  0.4460 -0.1621
 3678SOL    HW122758   4.441  10.336   1.863 -0.1856  0.5731  0.8611
 3678SOL    HW222759   4.527  10.298   1.982 -0.4232 -1.5766  0.3878
 3679SOL     OW22760  10.107  11.354   4.512  0.0948 -0.1087  0.3922
 3679SOL    HW122761  10.166  11.404   4.568 -0.9009  3.2529 -1.2922
 3679SOL    HW222762  10.164  11.309   4.450  1.0035 -0.4449  1.4447
 3680SOL     OW22763   2.834  10.688   0.788 -0.1528  0.3740  0.5477
 3680SOL    HW122764   2.784  10.613   0.755  0.4276 -0.8200  2.2743
 3680SOL    HW222765   2.840  10.673   0.882  4.8140 -0.4570  0.3535
 3681SOL     OW22766   5.673   1.764   9.178 -0.1313 -0.1363 -0.4854
 3681SOL    HW122767   5.662   1.855   9.152 -0.9685  0.1071  0.6222
 3681SOL    HW222768   5.762   1.759   9.214 -1.4027  1.3744  3.4640
 3682SOL     OW22769  10.429   7.422   1.482  0.3391 -0.3234  0.2105
 3682SOL    HW122770  10.417   7.377   1.566  0.4279  0.1174  0.4659
 3682SOL    HW222771  10.515   7.394   1.451 -0.2060 -1.4300 -0.3266
 3683SOL     OW22772   6.944   5.409  11.544  0.1400  0.4337  0.1677
 3683SOL    HW122773   6.982   5.463  11.475 -0.5394  0.4196 -0.2300
 3683SOL    HW222774   7.015   5.352  11.572 -0.2395 -1.4998 -2.4407
 3684SOL     OW22775   2.320   0.132   8.363 -0.3096 -0.6436  0.0158
 3684SOL    HW122776   2.317   0.131   8.268 -0.9740  1.7318 -0.0409
 3684SOL    HW222777   2.253   0.195   8.389  0.6748 -0.3212  1.9892
 3685SOL     OW22778   2.235   6.206   1.778 -0.4487  0.2431 -0.1538
 3685SOL    HW122779   2.293   6.131   1.770  0.5842  0.8678  1.0747
 3685SOL    HW222780   2.164   6.176   1.834 -0.2582  0.0432 -0.0142
 3686SOL     OW22781   4.816   1.805  11.333  0.0518 -0.2298  0.1957
 3686SOL    HW122782   4.773   1.769  11.256 -0.4615  0.3734  0.1909
 3686SOL    HW222783   4.869   1.877  11.300 -0.9497  0.6778  0.5102
 3687SOL     OW22784   5.262   1.225   4.358  0.5103 -0.0810  0.3978
 3687SOL    HW122785   5.325   1.201   4.291  0.5413  1.1995 -0.0513
 3687SOL    HW222786   5.178   1.195   4.323  0.8665 -2.2649  1.2301
 3688SOL     OW22787   4.030  11.802  11.393 -0.2086 -0.8546 -0.0690
 3688SOL    HW122788   4.117  11.840  11.384  1.1304 -3.8967 -1.4341
 3688SOL    HW222789   3.989  11.851  11.464  1.8670  1.9235 -0.6236
 3689SOL     OW22790   3.853   7.258   2.989 -0.0614  0.4698 -0.1062
 3689SOL    HW122791   3.948   7.250   3.001 -0.0467 -1.4169 -1.1110
 3689SOL    HW222792   3.816   7.188   3.042 -0.8494  0.8021 -0.2067
 3690SOL     OW22793   0.767   7.348  11.666  0.4319 -0.0938 -0.0428
 3690SOL    HW122794   0.720   7.357  11.750  0.2421  1.4401 -0.2785
 3690SOL    HW222795   0.836   7.413  11.671  1.4738 -1.1444 -0.4276
 3691SOL     OW22796   4.750   4.006  11.467  0.0280 -0.1969  0.7709
 3691SOL    HW122797   4.822   4.003  11.404 -0.5701 -2.2939  0.0802
 3691SOL    HW222798   4.701   4.085  11.444  1.0707  0.2560  0.0338
 3692SOL     OW22799   3.346   1.113   6.367  0.2664 -0.0145  0.1085
 3692SOL    HW122800   3.290   1.148   6.437 -0.7873  1.9618 -1.5888
 3692SOL    HW222801   3.303   1.032   6.340  1.1333 -1.2409  2.2062
 3693SOL     OW22802   1.444   3.617   9.269 -0.7650  0.3600 -0.4019
 3693SOL    HW122803   1.445   3.634   9.363 -3.1711 -0.1130 -0.2249
 3693SOL    HW222804   1.398   3.692   9.231  2.0461  1.6427 -1.5504
 3694SOL     OW22805   2.546   0.562   1.821  0.0893 -0.2156  0.5862
 3694SOL    HW122806   2.517   0.476   1.790  1.0849 -0.9793  1.6844
 3694SOL    HW222807   2.641   0.561   1.806 -0.1146  1.4608 -1.1504
 3695SOL     OW22808   5.993   1.425  11.887  0.0704  0.2496  0.0692
 3695SOL    HW122809   5.957   1.343  11.854  0.0237 -0.1482  1.0537
 3695SOL    HW222810   6.048   1.399  11.961  1.7926  0.9233 -0.9112
 3696SOL     OW22811   7.182  11.807   2.413 -0.1947  0.1152 -0.1374
 3696SOL    HW122812   7.230  11.804   2.496 -0.6191 -1.1713  0.0801
 3696SOL    HW222813   7.248  11.794   2.346 -0.1626 -1.3746  0.1463
 3697SOL     OW22814   9.857   6.809   8.610 -0.3909  0.4881  0.0256
 3697SOL    HW122815   9.779   6.863   8.620 -1.0081 -0.7355  2.3979
 3697SOL    HW222816   9.823   6.720   8.598  0.6205  0.0566  0.2514
 3698SOL     OW22817   0.903   1.490   7.322 -0.5399  0.5956 -1.0989
 3698SOL    HW122818   0.889   1.401   7.289  5.2090 -1.5873  1.0891
 3698SOL    HW222819   0.933   1.539   7.246 -0.2319 -0.4200 -1.6478
 3699SOL     OW22820   3.345   8.608   6.081 -0.2115  0.3987 -0.0912
 3699SOL    HW122821   3.314   8.694   6.109  1.6179  1.5380 -1.3680
 3699SOL    HW222822   3.289   8.546   6.128  0.1687  2.1995  3.0040
 3700SOL     OW22823   3.946   7.336   9.328 -0.1539  0.2919  0.4777
 3700SOL    HW122824   3.935   7.415   9.380 -0.0302  0.0129  0.9337
 3700SOL    HW222825   4.028   7.297   9.359 -0.0019  0.1987 -0.0282
 3701SOL     OW22826  11.603   5.077   5.777  0.0800  0.0448 -0.1995
 3701SOL    HW122827  11.690   5.051   5.747 -0.3213 -0.2688 -1.1200
 3701SOL    HW222828  11.619   5.150   5.836  0.9560  0.1161 -0.5072
 3702SOL     OW22829   1.030  10.271  11.682 -0.3189 -0.1121 -0.4188
 3702SOL    HW122830   1.026  10.245  11.590  1.9017 -1.6831 -0.1546
 3702SOL    HW222831   0.948  10.240  11.720 -1.6192  1.2369 -1.9591
 3703SOL     OW22832   3.164   7.725   5.153 -0.3283 -0.3553  0.0953
 3703SOL    HW122833   3.091   7.672   5.121 -0.5874  0.2697 -0.3721
 3703SOL    HW222834   3.131   7.766   5.232  0.0856 -1.3693  0.8166
 3704SOL     OW22835   9.351  11.044   8.284  0.2533 -0.1186  0.5722
 3704SOL    HW122836   9.286  10.975   8.300 -1.9113  1.2224 -1.8436
 3704SOL    HW222837   9.352  11.094   8.366 -0.4826 -1.1554  1.2465
 3705SOL     OW22838   9.756   4.885   1.059  0.3197 -0.5637 -0.2048
 3705SOL    HW122839   9.735   4.796   1.087 -1.9638  0.3825  1.3987
 3705SOL    HW222840   9.744   4.884   0.964  0.1218 -1.8794 -0.1859
 3706SOL     OW22841   7.415  10.692   8.722 -0.0510  0.3334 -0.4451
 3706SOL    HW122842   7.335  10.674   8.673  0.2936  0.1114 -0.9374
 3706SOL    HW222843   7.477  10.724   8.656  0.8816 -1.3434 -0.4449
 3707SOL     OW22844   4.908   0.595  10.235  0.5022  0.1237 -0.1164
 3707SOL    HW122845   4.932   0.515  10.188  1.7288 -0.4234  1.3517
 3707SOL    HW222846   4.887   0.565  10.324  2.7331  1.5415  1.0025
 3708SOL     OW22847   0.252   0.910   5.416  0.2023  0.7779  0.5516
 3708SOL    HW122848   0.170   0.954   5.391 -0.4967 -1.0034 -0.4903
 3708SOL    HW222849   0.319   0.953   5.364 -0.3044  1.2668  0.2903
 3709SOL     OW22850   8.409   6.043   6.141 -0.8041 -0.3325 -0.0691
 3709SOL    HW122851   8.340   6.024   6.078  0.2931 -0.7881 -1.1678
 3709SOL    HW222852   8.484   6.069   6.088 -0.2535  0.6428  1.1180
 3710SOL     OW22853  11.219   4.616   6.616  0.6889 -0.8399  0.2484
 3710SOL    HW122854  11.190   4.549   6.554 -3.4740  1.6144 -0.9060
 3710SOL    HW222855  11.285   4.666   6.568 -0.2976 -0.7775 -1.1072
 3711SOL     OW22856   0.632  11.368   5.689 -0.5624 -0.3398 -0.3831
 3711SOL    HW122857   0.558  11.391   5.746 -1.1171 -0.5351 -1.0140
 3711SOL    HW222858   0.612  11.412   5.606 -0.0512 -0.5353 -0.6117
 3712SOL     OW22859   2.411  10.280   9.666  0.2998  0.0437  0.0903
 3712SOL    HW122860   2.447  10.250   9.749  0.2924 -0.0654  0.0546
 3712SOL    HW222861   2.325  10.238   9.660 -0.3933  1.3135  0.7741
 3713SOL     OW22862   7.746   3.941  10.407 -0.4092 -0.1868 -0.2713
 3713SOL    HW122863   7.745   3.866  10.347  3.2327 -0.2166 -0.4836
 3713SOL    HW222864   7.794   3.911  10.484 -1.5279  1.0735  0.9754
 3714SOL     OW22865   5.029   7.961   8.069 -0.2759 -0.2876 -0.8310
 3714SOL    HW122866   4.943   8.003   8.078 -0.7846 -1.6582  1.5791
 3714SOL    HW222867   5.092   8.030   8.091 -1.0054 -0.2547  1.4108
 3715SOL     OW22868   0.298   4.949   8.832  0.2473 -0.7040 -0.6284
 3715SOL    HW122869   0.269   4.860   8.814 -0.3457 -0.2306 -2.2017
 3715SOL    HW222870   0.242   4.979   8.903 -0.6444 -1.0521 -1.1661
 3716SOL     OW22871   9.251   2.795  10.397 -0.2482 -0.2350 -0.3225
 3716SOL    HW122872   9.310   2.722  10.414  2.0628  1.7257  0.6872
 3716SOL    HW222873   9.258   2.810  10.303  1.6073  0.4522 -0.1272
 3717SOL     OW22874   1.209   3.973   6.512 -0.3314  0.3452  0.3501
 3717SOL    HW122875   1.220   3.894   6.566 -0.3945 -1.1275 -1.6508
 3717SOL    HW222876   1.133   3.953   6.456  1.0464  0.8140 -1.8165
 3718SOL     OW22877  11.743   3.416   6.313 -0.3431 -0.2489  0.1032
 3718SOL    HW122878  11.837   3.404   6.321  0.0885  2.1857 -0.5344
 3718SOL    HW222879  11.718   3.361   6.239  0.7177 -0.2948 -0.2356
 3719SOL     OW22880   8.883   8.180   5.524 -0.0423  0.0132  0.8612
 3719SOL    HW122881   8.942   8.180   5.449 -1.1370  0.4718 -0.0379
 3719SOL    HW222882   8.872   8.273   5.547 -0.3533 -0.0690  1.0604
 3720SOL     OW22883   7.900  11.792  10.368  0.0847  0.2426 -0.7265
 3720SOL    HW122884   7.847  11.808  10.446 -3.1442  2.2969 -3.0863
 3720SOL    HW222885   7.955  11.870  10.360 -0.9510  0.9144 -1.4540
 3721SOL     OW22886   8.707   1.866  10.046 -0.1295  0.3510 -0.1353
 3721SOL    HW122887   8.734   1.787  10.093 -1.0209  1.1199  1.7819
 3721SOL    HW222888   8.639   1.836   9.985 -0.2380 -0.4134  0.3490
 3722SOL     OW22889   6.935   2.441   0.564  0.0683 -0.1384  0.3971
 3722SOL    HW122890   6.977   2.437   0.478 -1.1095  1.2836 -0.2976
 3722SOL    HW222891   6.854   2.392   0.553 -0.2721  0.3803  0.5742
 3723SOL     OW22892   7.196   8.682   8.683  0.9548 -0.4731 -0.2420
 3723SOL    HW122893   7.180   8.745   8.753  0.9751  0.8760 -1.3922
 3723SOL    HW222894   7.215   8.737   8.606 -2.9518 -1.6735 -2.3571
 3724SOL     OW22895   0.368   2.835   1.627  0.1103 -0.1582 -0.0431
 3724SOL    HW122896   0.313   2.756   1.625 -1.5321  0.9477 -1.6254
 3724SOL    HW222897   0.318   2.897   1.679 -0.0600  0.7819 -1.2782
 3725SOL     OW22898   6.274   0.471   8.924  0.3082  0.1466  0.5634
 3725SOL    HW122899   6.332   0.464   9.001 -1.4484  0.3283  1.9749
 3725SOL    HW222900   6.247   0.563   8.925  0.1251  0.0993 -0.1844
 3726SOL     OW22901   5.747   9.633   1.499 -0.9587  0.5765 -0.4413
 3726SOL    HW122902   5.698   9.680   1.432 -2.6167 -0.5968 -0.1167
 3726SOL    HW222903   5.680   9.591   1.553  0.3942 -0.8879  0.1984
 3727SOL     OW22904   4.999   3.138  10.266 -0.0552 -0.3786  0.4153
 3727SOL    HW122905   4.931   3.076  10.294 -1.2164 -0.1547 -1.7054
 3727SOL    HW222906   5.076   3.115  10.319 -1.6282 -0.9365  2.5612
 3728SOL     OW22907   4.742   6.234   2.157  0.8709 -0.5075 -0.4926
 3728SOL    HW122908   4.717   6.174   2.227  0.2409 -0.2358 -0.4714
 3728SOL    HW222909   4.681   6.307   2.166  1.7479  0.2363 -0.3866
 3729SOL     OW22910   2.249   5.721   6.272 -0.2758  0.2353 -0.2525
 3729SOL    HW122911   2.187   5.696   6.203  0.1107  1.3560 -1.0360
 3729SOL    HW222912   2.292   5.639   6.297 -2.0588 -0.5810  0.3303
 3730SOL     OW22913   4.280   0.729   9.846  0.1477  0.3847  0.0140
 3730SOL    HW122914   4.264   0.692   9.759  2.0210 -0.7914  0.0928
 3730SOL    HW222915   4.349   0.794   9.832  0.0032  0.6463  0.5159
 3731SOL     OW22916   7.877   2.821   3.185 -0.1461 -0.1515  0.1697
 3731SOL    HW122917   7.900   2.857   3.099 -1.1200 -1.8237 -0.8644
 3731SOL    HW222918   7.880   2.726   3.172 -0.9262 -0.4384  1.8302
 3732SOL     OW22919   1.469   3.865  11.120 -0.2191 -0.0618  0.5220
 3732SOL    HW122920   1.526   3.856  11.043 -1.6540  0.2727 -0.6162
 3732SOL    HW222921   1.493   3.791  11.176 -0.7391 -1.7126 -1.3316
 3733SOL     OW22922   2.245   3.987   2.585 -0.5074 -0.0592 -0.5902
 3733SOL    HW122923   2.307   3.916   2.570  0.0841  0.7132 -2.1335
 3733SOL    HW222924   2.184   3.981   2.511 -1.6205 -0.1222  0.3067
 3734SOL     OW22925  10.993   4.889   0.506 -0.0927  0.4002  0.4813
 3734SOL    HW122926  10.938   4.811   0.497 -0.0662  0.3021  1.1068
 3734SOL    HW222927  11.079   4.861   0.475 -0.3704  0.5310 -0.4266
 3735SOL     OW22928   3.991  11.842   5.531  0.0863 -0.3368  0.0031
 3735SOL    HW122929   4.015  11.795   5.611  1.6315 -1.9731 -1.3471
 3735SOL    HW222930   4.071  11.886   5.503  0.0817 -1.2510 -1.5737
 3736SOL     OW22931   9.237  11.815   6.620  0.1699  0.5194  0.2210
 3736SOL    HW122932   9.204  11.727   6.607 -0.1848  0.8553 -1.3103
 3736SOL    HW222933   9.273  11.841   6.535  0.3047  1.8403  0.6473
 3737SOL     OW22934   4.487   1.254   7.373 -0.2891  0.3228 -0.4069
 3737SOL    HW122935   4.454   1.300   7.450  0.7149  2.7987 -1.3424
 3737SOL    HW222936   4.466   1.313   7.300  1.5998 -0.4318 -1.6111
 3738SOL     OW22937   7.180   9.710   4.800  0.1519 -0.0664  0.3965
 3738SOL    HW122938   7.220   9.772   4.740  1.5221  0.6366  1.9707
 3738SOL    HW222939   7.090   9.702   4.769 -0.2135  3.0120  0.3403
 3739SOL     OW22940   1.021   7.173   8.517 -0.3943 -0.0273  0.4628
 3739SOL    HW122941   1.000   7.087   8.483  0.5400 -0.0277 -0.1565
 3739SOL    HW222942   0.963   7.185   8.592 -1.7688 -0.4492 -0.5127
 3740SOL     OW22943   3.464   4.292   3.480  0.8425  0.3554 -0.2961
 3740SOL    HW122944   3.466   4.320   3.572 -2.0090 -0.9220  0.2889
 3740SOL    HW222945   3.478   4.197   3.484 -0.5175  0.0919 -0.9844
 3741SOL     OW22946  10.286   3.348   9.357 -0.2945  0.6283 -0.2397
 3741SOL    HW122947  10.310   3.343   9.264 -1.0570  0.1715 -0.4173
 3741SOL    HW222948  10.310   3.262   9.392 -2.5368 -0.2118 -0.6455
 3742SOL     OW22949   1.398  10.901   9.731 -0.1780  0.6366 -0.2489
 3742SOL    HW122950   1.379  10.867   9.643 -1.3446  2.7082 -0.8655
 3742SOL    HW222951   1.315  10.939   9.760  0.2132  0.0959  1.7513
 3743SOL     OW22952   0.324   3.713   0.467 -0.2543  0.7274 -0.5497
 3743SOL    HW122953   0.315   3.774   0.540  2.6526 -1.4349  1.9006
 3743SOL    HW222954   0.361   3.633   0.506  0.8288 -0.8564 -4.2774
 3744SOL     OW22955  11.539   8.426   7.892  0.1927 -0.5028 -0.0497
 3744SOL    HW122956  11.598   8.496   7.865 -0.3813  0.5959  1.4133
 3744SOL    HW222957  11.540   8.364   7.819 -1.2905  2.2421 -2.6227
 3745SOL     OW22958   9.738   2.348   1.114 -0.1718 -0.6916  0.7081
 3745SOL    HW122959   9.678   2.276   1.134 -0.9695  0.0210  0.9391
 3745SOL    HW222960   9.753   2.390   1.199  1.1407 -1.2282  0.7498
 3746SOL     OW22961   1.960   0.162   0.903  0.1161  0.4070  0.0112
 3746SOL    HW122962   1.870   0.143   0.929 -0.3576  1.7373 -0.5642
 3746SOL    HW222963   1.982   0.092   0.841 -0.6318  0.2429 -0.0742
 3747SOL     OW22964   6.214   8.166   9.409 -0.2145  0.3658 -0.1146
 3747SOL    HW122965   6.270   8.225   9.359 -0.2452 -0.2132 -0.8533
 3747SOL    HW222966   6.262   8.149   9.490 -0.5580  2.0081  0.4728
 3748SOL     OW22967   3.083   1.931   2.643 -0.1722 -0.1136 -0.4575
 3748SOL    HW122968   3.011   1.874   2.672  0.5338 -0.3592  0.9420
 3748SOL    HW222969   3.162   1.887   2.675  0.4119  1.5338  0.4838
 3749SOL     OW22970   0.139   1.844   4.537 -0.7100 -0.2806  0.1859
 3749SOL    HW122971   0.051   1.821   4.565 -1.0212 -0.7477 -1.1003
 3749SOL    HW222972   0.197   1.795   4.595 -1.3137 -0.7582  0.3882
 3750SOL     OW22973   3.567  10.779   0.664 -0.3022  0.3329 -0.3633
 3750SOL    HW122974   3.608  10.745   0.744  0.6618 -0.0588 -1.0066
 3750SOL    HW222975   3.474  10.767   0.678 -0.1228 -0.0420  0.5668
 3751SOL     OW22976  11.411   1.395   1.015  0.8833  1.0363 -0.7216
 3751SOL    HW122977  11.334   1.449   1.035 -0.5550 -0.8355 -0.9454
 3751SOL    HW222978  11.434   1.355   1.098 -1.3131 -1.9666 -1.3928
 3752SOL     OW22979   6.433   1.942   8.877  0.2218 -0.0274 -0.0422
 3752SOL    HW122980   6.345   1.908   8.893  1.1793 -2.3718  0.6646
 3752SOL    HW222981   6.468   1.963   8.964  1.2747 -1.7049 -0.0080
 3753SOL     OW22982   5.914   1.010   9.975 -0.2905  0.5692 -0.2268
 3753SOL    HW122983   5.896   0.943  10.041  0.6455  0.3797 -0.1480
 3753SOL    HW222984   5.828   1.042   9.949 -0.7192 -0.1731  0.2446
 3754SOL     OW22985   0.735   1.261   7.678 -0.4960 -0.2805  0.5325
 3754SOL    HW122986   0.790   1.238   7.604 -0.9522  0.7282 -0.1366
 3754SOL    HW222987   0.740   1.185   7.736 -0.5828 -1.3308 -0.7907
 3755SOL     OW22988   8.451   9.825   6.981 -0.1268 -0.4452  0.1675
 3755SOL    HW122989   8.435   9.915   6.952  0.5385 -0.6031 -0.7663
 3755SOL    HW222990   8.438   9.827   7.075 -0.9614  0.4354  0.0514
 3756SOL     OW22991   1.583   5.991  11.706  0.4125 -0.8596 -0.1337
 3756SOL    HW122992   1.596   5.982  11.800  1.3280  1.2423 -0.0140
 3756SOL    HW222993   1.560   6.083  11.693  0.5127 -1.0496 -1.9969
 3757SOL     OW22994   3.980   4.137   6.587 -0.2994 -0.3991 -0.2044
 3757SOL    HW122995   3.901   4.105   6.631  0.1621 -0.8704  0.2995
 3757SOL    HW222996   3.983   4.230   6.607 -0.3754 -0.5078  0.3303
 3758SOL     OW22997   4.435   1.027   5.245  0.5435  0.3284  0.1766
 3758SOL    HW122998   4.380   1.022   5.168  0.8035 -0.5845  0.0350
 3758SOL    HW222999   4.412   1.110   5.287  0.5910  0.9554 -1.0135
 3759SOL     OW23000   4.048   8.292   5.026 -0.3012  0.1837  0.1243
 3759SOL    HW123001   3.993   8.366   5.001 -1.1612 -0.8231 -1.0692
 3759SOL    HW223002   4.131   8.308   4.982 -0.7887 -0.0121 -0.8813
 3760SOL     OW23003   3.016  10.043   2.094  0.2881  0.0861  0.5488
 3760SOL    HW123004   3.025  10.009   2.005  1.5279  1.3050  0.1694
 3760SOL    HW223005   2.975   9.971   2.143 -1.4678 -0.2074 -1.2130
 3761SOL     OW23006   6.251   5.461   3.256 -0.0051 -0.2335 -0.4642
 3761SOL    HW123007   6.327   5.403   3.252  1.6126  1.6092  1.0897
 3761SOL    HW223008   6.266   5.514   3.335 -2.1598  1.2328 -0.9459
 3762SOL     OW23009   9.272   2.444   9.860  0.5755 -0.0275 -0.6785
 3762SOL    HW123010   9.321   2.432   9.778  1.8793  1.6232 -0.1848
 3762SOL    HW223011   9.221   2.524   9.846 -0.1645 -0.4238 -0.3075
 3763SOL     OW23012   6.085   9.350   9.374  0.0826 -0.8105  0.5873
 3763SOL    HW123013   6.121   9.269   9.337  1.8042 -0.0854  0.5615
 3763SOL    HW223014   6.119   9.420   9.317  1.4561  0.1951  2.5339
 3764SOL     OW23015   1.135   5.571   4.144 -0.7057  0.3489  0.6073
 3764SOL    HW123016   1.047   5.547   4.173  0.2231 -2.5758  1.3992
 3764SOL    HW223017   1.155   5.508   4.074  1.5794 -0.7312  2.0879
 3765SOL     OW23018   8.268   1.130   0.654  0.1182 -0.0234 -0.0946
 3765SOL    HW123019   8.214   1.209   0.652 -0.1720 -0.1966 -2.1983
 3765SOL    HW223020   8.207   1.059   0.635  0.3608 -0.7925  1.8722
 3766SOL     OW23021   9.370  11.523   6.792  0.3155  0.1953 -0.3567
 3766SOL    HW123022   9.391  11.590   6.726  0.6812  0.3697 -0.0714
 3766SOL    HW223023   9.296  11.560   6.840  2.6562  2.1114  2.1305
 3767SOL     OW23024   9.578   0.503   1.989  0.0577 -0.1724  0.6585
 3767SOL    HW123025   9.628   0.541   1.917 -2.0076 -1.9041 -1.8899
 3767SOL    HW223026   9.593   0.408   1.981 -0.2915 -0.4243  2.5040
 3768SOL     OW23027   5.930  11.539  11.906  0.2106  0.2384 -0.3635
 3768SOL    HW123028   5.864  11.563  11.971  0.2684  2.8252 -1.1387
 3768SOL    HW223029   5.883  11.484  11.843 -1.3174  2.1126 -0.9627
 3769SOL     OW23030   5.980   6.895   3.969 -0.1102  0.2648 -0.3418
 3769SOL    HW123031   6.045   6.837   4.010  0.0415 -0.8749 -2.0855
 3769SOL    HW223032   5.927   6.926   4.042 -0.3017 -2.2026  0.6766
 3770SOL     OW23033   9.301   0.225   7.736 -0.0770  0.2591  0.0384
 3770SOL    HW123034   9.375   0.214   7.795  1.1646  0.9517 -1.3244
 3770SOL    HW223035   9.274   0.136   7.713  0.8109 -0.0089 -0.0000
 3771SOL     OW23036   2.944   0.042   6.497 -0.1217 -0.1720  0.0877
 3771SOL    HW123037   2.869   0.015   6.445  0.5867  1.4880 -1.9442
 3771SOL    HW223038   2.999  -0.037   6.503 -0.3491 -0.4871 -1.5033
 3772SOL     OW23039   4.246   6.767   7.940 -0.4102 -0.1507  0.0703
 3772SOL    HW123040   4.230   6.827   7.867 -0.6458  0.0543  0.2880
 3772SOL    HW223041   4.307   6.702   7.905  1.0025  1.0177  0.2447
 3773SOL     OW23042   8.114   0.352   7.960 -0.0825  0.2264  0.4572
 3773SOL    HW123043   8.036   0.300   7.940  0.7576 -0.7028 -0.5297
 3773SOL    HW223044   8.148   0.378   7.874  0.3445  1.1450  0.8990
 3774SOL     OW23045   7.199   0.913   6.087 -0.0753 -0.0247  0.1597
 3774SOL    HW123046   7.265   0.854   6.125  0.1014  0.6591  0.9458
 3774SOL    HW223047   7.135   0.854   6.048  1.1909 -0.7012 -0.9804
 3775SOL     OW23048   4.227   5.987   1.707 -0.1194 -0.7885  0.1051
 3775SOL    HW123049   4.278   6.012   1.784  1.7836 -1.5754 -0.8154
 3775SOL    HW223050   4.137   5.983   1.737  0.7779 -3.6309  3.0142
 3776SOL     OW23051   9.368   7.741   9.187  0.2426  0.2579 -0.3426
 3776SOL    HW123052   9.308   7.674   9.220 -0.4535  0.0225 -1.9580
 3776SOL    HW223053   9.379   7.802   9.259 -0.6010 -0.6105  0.5456
 3777SOL     OW23054   4.846   3.906   6.517  0.4856  0.4478  0.2565
 3777SOL    HW123055   4.897   3.908   6.598  0.5086 -0.8507  0.2906
 3777SOL    HW223056   4.838   3.998   6.492  2.2507  0.7243  0.6154
 3778SOL     OW23057   3.991   7.518   0.891 -0.4607 -0.7215  0.1599
 3778SOL    HW123058   4.026   7.554   0.972 -2.2124  1.2347  0.1315
 3778SOL    HW223059   3.905   7.484   0.915 -1.6850  1.2909 -1.0904
 3779SOL     OW23060   5.123   4.529   5.258  0.2206  0.4991 -0.3784
 3779SOL    HW123061   5.068   4.451   5.260 -0.2041  0.7995 -0.2257
 3779SOL    HW223062   5.111   4.564   5.169  0.0779  0.6243 -0.3106
 3780SOL     OW23063   9.897   2.697   4.414 -0.2301 -0.4763 -0.1172
 3780SOL    HW123064   9.958   2.660   4.350 -0.3404  1.7955 -1.6467
 3780SOL    HW223065   9.855   2.770   4.368 -0.8096  0.8624  2.3383
 3781SOL     OW23066   5.005   5.408  11.549 -0.0718 -0.1743 -0.2706
 3781SOL    HW123067   5.078   5.351  11.571  0.0433  0.4393  1.0451
 3781SOL    HW223068   5.044   5.477  11.495  1.4627  2.7683  4.0892
 3782SOL     OW23069  11.515   0.392   8.562 -0.6192 -0.4092 -0.0216
 3782SOL    HW123070  11.505   0.323   8.627 -0.1067  0.9461  1.5594
 3782SOL    HW223071  11.451   0.458   8.586  0.5644  0.7664  0.0219
 3783SOL     OW23072   1.663   3.915   0.149 -0.5295 -0.6808  0.2459
 3783SOL    HW123073   1.691   3.848   0.211  1.5816  2.5380  3.1350
 3783SOL    HW223074   1.744   3.947   0.109 -1.2161  1.2527  0.2854
 3784SOL     OW23075   7.996  11.083   5.976  0.1528  0.0301  0.6759
 3784SOL    HW123076   8.073  11.038   6.012  0.1537 -0.6517 -0.1452
 3784SOL    HW223077   8.011  11.085   5.882  0.1082  1.7201  0.6859
 3785SOL     OW23078   8.543   7.733  10.610 -0.3821  0.4756  0.2145
 3785SOL    HW123079   8.591   7.715  10.529 -0.9307 -0.1665  0.0261
 3785SOL    HW223080   8.451   7.727  10.585 -0.6141  2.6893  0.3333
 3786SOL     OW23081   0.552   9.181   3.319 -0.0087 -0.5239  0.1936
 3786SOL    HW123082   0.486   9.137   3.265 -0.5735  0.5606 -0.0224
 3786SOL    HW223083   0.634   9.167   3.272 -0.2874 -0.7540 -0.2321
 3787SOL     OW23084   9.804   1.602   9.375 -0.7203  0.6353  0.0079
 3787SOL    HW123085   9.875   1.665   9.384 -0.5489  0.4826 -0.2912
 3787SOL    HW223086   9.736   1.650   9.327 -1.1410  1.0419  0.9746
 3788SOL     OW23087   1.844   1.669  11.111 -0.3110 -0.0612 -0.1278
 3788SOL    HW123088   1.884   1.742  11.064  1.8811 -0.3269  1.1447
 3788SOL    HW223089   1.875   1.591  11.065  2.5805 -0.3719  1.9893
 3789SOL     OW23090   0.347   2.766   7.956  0.1695  0.4024  0.8805
 3789SOL    HW123091   0.388   2.744   7.872  1.5140  3.2200  0.6923
 3789SOL    HW223092   0.300   2.686   7.981 -0.6219 -0.4412 -2.7123
 3790SOL     OW23093   7.091   8.471   3.288  0.1985  1.3160  0.3094
 3790SOL    HW123094   7.179   8.493   3.321  0.6820  1.9106 -1.3100
 3790SOL    HW223095   7.105   8.439   3.199 -1.0880 -0.2572  0.6177
 3791SOL     OW23096  10.930   6.263   0.121  0.7239 -0.0433 -0.1248
 3791SOL    HW123097  10.968   6.325   0.183 -0.5628  0.2024  0.4525
 3791SOL    HW223098  10.835   6.270   0.134  0.5031 -1.4507 -0.7018
 3792SOL     OW23099   5.464   3.942   3.847 -0.6974 -0.2011 -0.0920
 3792SOL    HW123100   5.464   3.848   3.830  0.2920 -0.6661  2.1877
 3792SOL    HW223101   5.532   3.976   3.789  0.8552 -1.3449  0.9654
 3793SOL     OW23102   1.271   5.925   9.437 -0.1715 -0.3203  0.1264
 3793SOL    HW123103   1.219   5.958   9.363 -0.7982  0.9578  1.0984
 3793SOL    HW223104   1.349   5.981   9.438 -1.7306  2.0396  2.4339
 3794SOL     OW23105  11.689   9.791   9.035  0.7158  0.2552 -0.0521
 3794SOL    HW123106  11.607   9.828   9.067 -0.3783 -1.1057 -1.1545
 3794SOL    HW223107  11.684   9.799   8.940  1.3649 -0.8149 -0.2001
 3795SOL     OW23108   5.532   9.235  10.912 -0.0698  0.2871 -0.5339
 3795SOL    HW123109   5.554   9.149  10.874  1.0519 -0.0263  0.7393
 3795SOL    HW223110   5.582   9.238  10.993 -0.3477  2.0377 -0.4046
 3796SOL     OW23111   8.636   7.910   3.146  0.6892  0.1801  0.5668
 3796SOL    HW123112   8.707   7.969   3.172 -0.2338  2.6024 -1.8162
 3796SOL    HW223113   8.556   7.956   3.172 -0.0555 -1.0273  0.4767
 3797SOL     OW23114   5.092   5.369   1.493 -0.0887 -0.2935  0.0195
 3797SOL    HW123115   5.031   5.436   1.524 -0.9504 -1.2232  0.4011
 3797SOL    HW223116   5.118   5.322   1.572  2.0007  0.7654  0.0118
 3798SOL     OW23117   7.439   5.231   4.704 -0.0485 -0.1608  0.1751
 3798SOL    HW123118   7.423   5.139   4.728  1.3158 -0.6253 -0.5627
 3798SOL    HW223119   7.356   5.275   4.720 -1.2292 -1.8478 -0.9653
 3799SOL     OW23120  10.716   8.715   2.403 -0.1793 -0.1785  0.1222
 3799SOL    HW123121  10.711   8.670   2.487 -0.8780  1.4129  0.9820
 3799SOL    HW223122  10.800   8.760   2.405  0.3268 -1.0679 -0.5519
 3800SOL     OW23123   3.560   2.665   7.342  0.3756  0.3516 -0.4453
 3800SOL    HW123124   3.609   2.645   7.262 -1.1874  0.6160 -1.5064
 3800SOL    HW223125   3.495   2.595   7.349 -0.9243  1.5055 -0.6273
 3801SOL     OW23126   3.861   6.336   8.059 -0.1592  0.0755 -0.3918
 3801SOL    HW123127   3.843   6.284   7.981  1.0415  0.1658 -0.7423
 3801SOL    HW223128   3.923   6.402   8.030 -0.3946  0.6840  0.4391
 3802SOL     OW23129  10.352   6.330   4.424 -0.3956 -0.1059 -0.3166
 3802SOL    HW123130  10.434   6.313   4.469 -0.3131 -1.6282 -0.9665
 3802SOL    HW223131  10.286   6.281   4.473 -0.7570  0.3546 -0.3337
 3803SOL     OW23132   2.145   6.854   0.977 -0.1160  0.1628 -0.1279
 3803SOL    HW123133   2.112   6.789   0.916  0.5348  0.6272 -1.0006
 3803SOL    HW223134   2.156   6.807   1.060 -0.3795 -0.6337 -0.5415
 3804SOL     OW23135   9.748  10.618   6.111  0.8503  0.1158  0.0658
 3804SOL    HW123136   9.712  10.626   6.200 -0.1811 -2.3204 -0.0378
 3804SOL    HW223137   9.837  10.585   6.125  1.2351  1.1535  0.1891
 3805SOL     OW23138   5.319   8.078  10.096  0.0733  0.0379 -0.5021
 3805SOL    HW123139   5.398   8.034  10.064 -0.0920  0.4158 -1.4607
 3805SOL    HW223140   5.257   8.007  10.112 -0.0969 -0.1337 -1.7691
 3806SOL     OW23141   9.321   0.294   2.882 -0.0691  0.2080  0.1546
 3806SOL    HW123142   9.362   0.347   2.813 -0.1609  0.0081 -0.0557
 3806SOL    HW223143   9.360   0.327   2.963 -0.4807  0.9258  0.0680
 3807SOL     OW23144  10.482   4.646  10.090 -0.1998  0.6547  0.3693
 3807SOL    HW123145  10.415   4.583  10.118 -0.8533  1.1474 -0.0487
 3807SOL    HW223146  10.565   4.604  10.112 -0.6364 -0.1093  0.6091
 3808SOL     OW23147   6.495   4.159   9.089 -0.5117  0.4631 -0.3209
 3808SOL    HW123148   6.486   4.070   9.122  0.2253  0.6297  0.3311
 3808SOL    HW223149   6.418   4.205   9.123  0.8353  0.9631  2.2826
 3809SOL     OW23150   1.270   7.909   1.356 -0.6216 -0.2328 -0.0033
 3809SOL    HW123151   1.199   7.970   1.378 -0.9827 -1.0459  1.2327
 3809SOL    HW223152   1.225   7.830   1.327 -0.2106 -0.5461  0.2038
 3810SOL     OW23153   2.307   7.482   5.404  0.4717 -0.2387  0.2036
 3810SOL    HW123154   2.235   7.543   5.390  1.8234  1.3189 -0.3347
 3810SOL    HW223155   2.385   7.531   5.377  1.4584 -2.8257 -2.0595
 3811SOL     OW23156   4.095   6.596   8.612 -0.2169 -0.1531 -0.0403
 3811SOL    HW123157   4.176   6.565   8.652 -0.6497 -0.6019  0.4953
 3811SOL    HW223158   4.092   6.552   8.527  0.3819  0.3156 -0.3216
 3812SOL     OW23159  10.325   8.843   9.874 -0.0557  0.5698  0.0759
 3812SOL    HW123160  10.349   8.857   9.965 -0.0801 -0.1404  0.1994
 3812SOL    HW223161  10.230   8.858   9.871 -0.2663 -0.5792  0.4276
 3813SOL     OW23162   1.512   5.588   4.644  0.4073  0.1907 -0.2474
 3813SOL    HW123163   1.490   5.606   4.735  1.0063 -0.7593  0.1042
 3813SOL    HW223164   1.608   5.581   4.643  0.3691 -0.4137 -0.8182
 3814SOL     OW23165   3.174  11.032   0.059  0.1054 -0.2524 -0.1523
 3814SOL    HW123166   3.139  10.943   0.050 -1.1846  0.1657  0.5809
 3814SOL    HW223167   3.162  11.072  -0.027  0.7669 -0.7956 -0.5095
 3815SOL     OW23168  11.185   2.325   8.266 -0.3037  0.8102  0.0950
 3815SOL    HW123169  11.143   2.323   8.351  0.6887  1.3247  0.6215
 3815SOL    HW223170  11.271   2.364   8.283 -0.0478  0.8146 -1.1184
 3816SOL     OW23171   4.195  11.356   5.758  0.2282 -0.0648  0.3220
 3816SOL    HW123172   4.267  11.310   5.714 -0.5337  0.4619 -1.5976
 3816SOL    HW223173   4.228  11.445   5.772  0.6131 -0.3375  1.2395
 3817SOL     OW23174   1.418   5.938   1.679  0.6868  0.3563 -0.4817
 3817SOL    HW123175   1.341   5.902   1.636 -0.8018  1.5668  1.0338
 3817SOL    HW223176   1.479   5.958   1.608  0.6934 -2.8971 -1.5439
 3818SOL     OW23177   1.822   0.547   7.911 -0.0496 -0.1542  0.6025
 3818SOL    HW123178   1.833   0.526   8.004 -0.3995 -0.9021  0.4837
 3818SOL    HW223179   1.735   0.585   7.905  0.5809  1.3944  0.8158
 3819SOL     OW23180   7.992   0.878  11.180 -0.5854 -0.5048 -0.2866
 3819SOL    HW123181   8.019   0.870  11.272 -1.3032  3.4406  0.4431
 3819SOL    HW223182   8.074   0.881  11.131 -0.1667 -1.5816  0.3166
 3820SOL     OW23183   0.018   0.249   7.689 -0.0194  0.4376  0.6547
 3820SOL    HW123184  -0.062   0.228   7.640 -0.0205 -0.7253  1.1256
 3820SOL    HW223185   0.046   0.165   7.726  1.3197  0.8680  0.6562
 3821SOL     OW23186   1.802   4.858   5.261  0.3851  0.5004 -0.0913
 3821SOL    HW123187   1.738   4.807   5.211 -0.6031  0.7340  0.9037
 3821SOL    HW223188   1.784   4.949   5.237  0.3107  0.5702  0.2229
 3822SOL     OW23189   3.181  10.386   2.641  0.0654  0.2696  0.4306
 3822SOL    HW123190   3.177  10.313   2.580 -2.2813  0.0069  0.8128
 3822SOL    HW223191   3.140  10.459   2.594 -0.3603  0.4937  1.1427
 3823SOL     OW23192   3.945   6.328   0.540 -0.4051 -0.2852 -0.0825
 3823SOL    HW123193   3.990   6.400   0.585 -1.7007  0.3657  0.2169
 3823SOL    HW223194   3.975   6.333   0.450  1.5085 -1.0179  0.4432
 3824SOL     OW23195   7.308   1.607  11.177  0.3341 -0.6480  0.7845
 3824SOL    HW123196   7.388   1.650  11.145 -0.6005 -0.4620 -1.4353
 3824SOL    HW223197   7.340   1.543  11.241  2.1846 -0.1019  0.4780
 3825SOL     OW23198   0.460   5.315   0.895 -0.1380 -0.3291  0.2517
 3825SOL    HW123199   0.403   5.339   0.969  0.0902  0.1924  0.2675
 3825SOL    HW223200   0.547   5.345   0.922 -0.1389  0.3243 -0.4392
 3826SOL     OW23201   9.286  11.114  11.367 -0.3347  0.2199 -0.1550
 3826SOL    HW123202   9.341  11.152  11.299 -1.1239  0.6569 -0.5664
 3826SOL    HW223203   9.336  11.039  11.399 -0.0683 -0.1784 -1.4269
 3827SOL     OW23204   4.076   3.487   5.493  0.0522  0.1838 -0.4492
 3827SOL    HW123205   3.993   3.487   5.540 -0.2125  0.8089 -0.9059
 3827SOL    HW223206   4.114   3.574   5.512  0.4161  0.0541 -0.5700
 3828SOL     OW23207   6.015   4.244  10.289  0.3693 -0.1428 -0.6059
 3828SOL    HW123208   6.104   4.272  10.266  0.7162 -0.6972  0.0063
 3828SOL    HW223209   5.968   4.242  10.205  0.5839  1.3167 -0.7757
 3829SOL     OW23210   0.096   2.012   5.092 -0.1916  0.1064  0.2863
 3829SOL    HW123211   0.132   2.094   5.125  0.6881 -0.1581  0.0194
 3829SOL    HW223212   0.141   1.998   5.008 -1.3924  0.0874 -0.3831
 3830SOL     OW23213   8.403   6.156  10.057 -0.7875 -0.0913  0.6549
 3830SOL    HW123214   8.466   6.171  10.128 -0.4616  2.5352 -0.0960
 3830SOL    HW223215   8.456   6.121   9.985 -0.7422 -0.6884  0.9691
 3831SOL     OW23216   9.290   4.202   3.347 -0.4955  0.3481 -0.0629
 3831SOL    HW123217   9.289   4.128   3.408 -0.4579  0.7882  0.4880
 3831SOL    HW223218   9.258   4.276   3.399 -1.0863  0.5973 -0.7665
 3832SOL     OW23219  10.617   1.178   0.603  0.0645  0.3583 -0.3203
 3832SOL    HW123220  10.626   1.124   0.524 -0.9193  0.6173 -0.6184
 3832SOL    HW223221  10.632   1.267   0.573 -2.7194  0.7695 -0.7621
 3833SOL     OW23222   4.454   1.999   5.879  0.2558  0.0483 -0.3267
 3833SOL    HW123223   4.511   1.948   5.820 -0.8725 -0.0524 -1.3780
 3833SOL    HW223224   4.408   2.060   5.821 -2.2690 -1.2931  0.1300
 3834SOL     OW23225   2.723   1.895   3.523  0.3512  0.2428 -0.0914
 3834SOL    HW123226   2.727   1.816   3.576 -0.1489 -0.2072 -0.7118
 3834SOL    HW223227   2.762   1.963   3.578 -1.4521  0.1079  1.4240
 3835SOL     OW23228   1.949   5.993   6.095  0.2853 -0.2467 -0.9492
 3835SOL    HW123229   1.900   6.066   6.057  1.2300 -0.5999 -2.9904
 3835SOL    HW223230   1.990   6.030   6.173 -0.5092  0.9587 -1.0732
 3836SOL     OW23231   1.982   8.007   8.176  0.1657 -1.1486  0.1250
 3836SOL    HW123232   2.061   8.018   8.124 -0.9750  1.7932 -1.1776
 3836SOL    HW223233   1.911   8.014   8.113 -1.2353  0.9214  1.8115
 3837SOL     OW23234   9.110  10.062   4.547  0.2676 -0.2792  0.1230
 3837SOL    HW123235   9.037  10.031   4.492 -0.2219 -0.9119  1.1015
 3837SOL    HW223236   9.086  10.035   4.636  0.3915  1.9216  0.8687
 3838SOL     OW23237   2.770   9.854   9.961 -0.6265 -0.1244  0.0751
 3838SOL    HW123238   2.745   9.770  10.000 -0.0609  0.1931  1.1668
 3838SOL    HW223239   2.725   9.920  10.014  0.0218  0.3189  0.0935
 3839SOL     OW23240   8.259   6.154   3.873 -0.6556 -0.2988 -0.5330
 3839SOL    HW123241   8.240   6.079   3.930 -0.6672  0.1885  0.1112
 3839SOL    HW223242   8.317   6.118   3.806  1.1621 -0.4225  1.0214
 3840SOL     OW23243  10.467   3.574  11.070  0.3864  0.6193  0.4141
 3840SOL    HW123244  10.396   3.623  11.111 -0.0169  0.0613  0.3901
 3840SOL    HW223245  10.497   3.514  11.138 -1.9638 -2.1322 -0.7456
 3841SOL     OW23246   9.281   4.622  11.656 -0.6957 -0.0858 -0.2431
 3841SOL    HW123247   9.251   4.612  11.746 -0.3724 -0.0931 -0.1329
 3841SOL    HW223248   9.341   4.548  11.643 -1.5967 -0.7300 -0.8238
 3842SOL     OW23249   4.791  10.179  11.880  0.0775 -0.2314  0.2893
 3842SOL    HW123250   4.803  10.235  11.957 -0.6623 -2.2488  1.9718
 3842SOL    HW223251   4.834  10.096  11.903 -2.4522 -1.8281 -0.3051
 3843SOL     OW23252   4.089   9.022   7.639 -0.3845 -0.0993  0.3106
 3843SOL    HW123253   4.073   8.995   7.729 -0.5914 -0.6729  0.1085
 3843SOL    HW223254   4.014   8.990   7.590 -0.4542  0.5369 -0.0076
 3844SOL     OW23255   4.030   0.658   4.233 -0.0405  0.3843  0.3406
 3844SOL    HW123256   4.054   0.687   4.145 -2.2001 -0.8057 -0.6982
 3844SOL    HW223257   4.016   0.740   4.282 -0.3132  1.0831 -0.8590
 3845SOL     OW23258   5.655   5.908   0.312  0.7702 -0.0939  0.3653
 3845SOL    HW123259   5.722   5.843   0.292  1.1585  0.0455  1.1519
 3845SOL    HW223260   5.586   5.859   0.357  0.5932 -0.1413  0.0431
 3846SOL     OW23261   2.396   0.720  11.591 -0.6199  0.4169  0.4017
 3846SOL    HW123262   2.361   0.774  11.661  0.6392  0.1747  1.2491
 3846SOL    HW223263   2.387   0.774  11.512  0.0164  1.6045  1.1151
 3847SOL     OW23264   5.837   2.519   7.848  0.3451  0.5339  0.2370
 3847SOL    HW123265   5.817   2.472   7.767  1.3813  0.8431 -0.2114
 3847SOL    HW223266   5.917   2.568   7.828  1.4719 -0.5364  1.8926
 3848SOL     OW23267   7.211   8.889   8.514  0.0934  0.0849 -1.1327
 3848SOL    HW123268   7.298   8.901   8.476  1.3820 -1.5882  1.0251
 3848SOL    HW223269   7.187   8.976   8.547  1.6599  0.2981 -0.4489
 3849SOL     OW23270   7.271   5.187   1.361  0.3266 -0.0859  0.5427
 3849SOL    HW123271   7.356   5.152   1.386  0.0276  0.4304  2.4242
 3849SOL    HW223272   7.288   5.237   1.281  1.6324 -0.5619  0.4956
 3850SOL     OW23273   5.503   0.703   1.271 -0.0115 -0.1097 -0.0596
 3850SOL    HW123274   5.546   0.750   1.200 -1.2338 -1.3321 -1.6816
 3850SOL    HW223275   5.521   0.611   1.253 -1.3602 -0.5064  0.5191
 3851SOL     OW23276   2.212   0.548   7.135 -0.9202 -0.0147  0.2699
 3851SOL    HW123277   2.243   0.497   7.210 -0.0144  0.3812  0.1821
 3851SOL    HW223278   2.215   0.639   7.166  0.1951  0.2303 -0.4649
 3852SOL     OW23279   7.966   8.565   3.859 -0.3440 -0.2677  0.2564
 3852SOL    HW123280   7.964   8.561   3.763 -0.5256  2.5866  0.0455
 3852SOL    HW223281   7.998   8.653   3.878 -0.7615 -0.5991  2.8265
 3853SOL     OW23282   9.837   4.184   7.923  0.0741 -0.0309 -0.3331
 3853SOL    HW123283   9.858   4.139   8.004 -1.1673 -1.4864 -0.7578
 3853SOL    HW223284   9.745   4.209   7.932 -0.0095  0.0151 -1.1606
 3854SOL     OW23285   9.273   1.980   7.107 -0.5981 -0.3267  0.2522
 3854SOL    HW123286   9.190   1.977   7.155 -0.1467  0.9782  1.1957
 3854SOL    HW223287   9.302   2.071   7.116  2.0071 -1.2091  1.8659
 3855SOL     OW23288   0.003   3.703   0.345  0.1497 -0.0368 -0.1707
 3855SOL    HW123289  -0.012   3.686   0.252  0.8677  1.2398 -0.5347
 3855SOL    HW223290   0.078   3.647   0.367  1.0624  0.9061 -0.7993
 3856SOL     OW23291   3.014   1.979  10.143 -0.3464  0.4812 -0.2874
 3856SOL    HW123292   3.049   2.064  10.117 -0.6009  0.4973 -0.5799
 3856SOL    HW223293   2.945   2.000  10.207 -2.3989  0.7041 -2.4204
 3857SOL     OW23294   8.438   0.287  10.135  0.2668  0.0533 -0.0230
 3857SOL    HW123295   8.346   0.268  10.117  0.0574  0.3623  0.6945
 3857SOL    HW223296   8.479   0.292  10.048 -0.6057  1.0119 -0.3961
 3858SOL     OW23297   0.279   7.467   6.749  0.2462 -0.1015 -0.1373
 3858SOL    HW123298   0.254   7.559   6.751  1.2178  0.1723 -0.0313
 3858SOL    HW223299   0.255   7.434   6.836 -0.5695 -0.0862 -0.3497
 3859SOL     OW23300   8.426   0.660   7.110  0.2315 -0.3276 -0.2507
 3859SOL    HW123301   8.518   0.687   7.115  0.7908 -1.8455 -1.6982
 3859SOL    HW223302   8.395   0.664   7.201  1.5261  0.7943  0.1766
 3860SOL     OW23303  11.756   9.737  10.885 -0.0135  0.6200 -0.0451
 3860SOL    HW123304  11.742   9.829  10.906 -0.7380  0.1062  2.0177
 3860SOL    HW223305  11.826   9.709  10.944  0.5222 -0.0652 -0.9720
 3861SOL     OW23306   7.266   8.961  10.695 -0.0134 -0.5058 -0.0574
 3861SOL    HW123307   7.184   8.977  10.741 -2.6025 -1.0667 -3.9502
 3861SOL    HW223308   7.301   8.880  10.733 -0.3938  0.4883  2.6221
 3862SOL     OW23309   7.216   6.896   9.575  0.0593 -0.1294  0.3703
 3862SOL    HW123310   7.229   6.991   9.564  0.8633 -0.1815  0.7884
 3862SOL    HW223311   7.254   6.877   9.661  2.4295 -1.2901 -0.8544
 3863SOL     OW23312   6.829   3.651   5.680 -0.5428 -0.4347 -1.1766
 3863SOL    HW123313   6.900   3.650   5.616  1.6312  0.0586  1.0346
 3863SOL    HW223314   6.792   3.739   5.674 -0.0298 -0.2336 -1.4456
 3864SOL     OW23315   2.850  10.019   0.409  0.4310 -0.2124  0.6074
 3864SOL    HW123316   2.829  10.110   0.390  1.8340 -0.4921 -3.1214
 3864SOL    HW223317   2.766   9.981   0.438 -0.5230  1.8776  0.7647
 3865SOL     OW23318  11.312   7.562   9.113  0.2611 -0.0712 -0.2837
 3865SOL    HW123319  11.340   7.584   9.202  0.5878 -0.4075 -0.3031
 3865SOL    HW223320  11.337   7.639   9.061  0.1867  0.0725 -0.1061
 3866SOL     OW23321   6.993   5.035  10.326  0.4836  0.4387  0.1028
 3866SOL    HW123322   7.077   4.993  10.342  0.6649  0.6524 -0.2706
 3866SOL    HW223323   7.013   5.110  10.269 -0.1630 -0.4903 -1.4037
 3867SOL     OW23324   1.755   0.235   5.953  0.4289 -0.3074 -0.0848
 3867SOL    HW123325   1.687   0.214   6.016 -0.1712 -0.2803 -0.7176
 3867SOL    HW223326   1.717   0.304   5.898 -0.3066 -2.4569 -2.4966
 3868SOL     OW23327   3.026   6.489   7.565  0.3383 -0.1333 -0.3384
 3868SOL    HW123328   3.049   6.410   7.516 -0.9695 -1.2022  0.6982
 3868SOL    HW223329   2.935   6.507   7.541 -0.0911 -0.2510  1.1186
 3869SOL     OW23330   3.925   2.985   6.226  0.4205  0.4545  0.1292
 3869SOL    HW123331   3.929   2.900   6.271 -0.4589  0.6849  0.6747
 3869SOL    HW223332   3.877   3.042   6.286  1.7163  1.5945  0.1409
 3870SOL     OW23333   8.409   5.554   6.912 -0.1712 -0.4707 -0.2371
 3870SOL    HW123334   8.479   5.551   6.846  0.2019  2.4090 -0.1279
 3870SOL    HW223335   8.328   5.545   6.862  0.0045  3.1658 -1.5139
 3871SOL     OW23336   9.210   8.899   0.898  0.3171  1.0585 -0.0418
 3871SOL    HW123337   9.294   8.944   0.904 -0.1033  1.8903 -0.2166
 3871SOL    HW223338   9.185   8.905   0.806 -0.4312  1.7728  0.1918
 3872SOL     OW23339   1.231   4.160   5.632 -0.0504  0.0865  0.2473
 3872SOL    HW123340   1.271   4.232   5.582 -1.3006  0.6505  0.0240
 3872SOL    HW223341   1.277   4.082   5.601  1.9940  0.8582  1.1828
 3873SOL     OW23342  11.953  11.235  10.723  0.0220  0.4695  0.4192
 3873SOL    HW123343  11.904  11.279  10.654  1.7569  0.0688 -1.1653
 3873SOL    HW223344  11.891  11.173  10.761 -0.8318  0.2744 -1.2067
 3874SOL     OW23345   6.113   6.446  10.875 -0.3336 -0.1835 -0.5175
 3874SOL    HW123346   6.094   6.370  10.929 -1.3132 -0.1377 -0.7908
 3874SOL    HW223347   6.126   6.411  10.787 -0.4242 -0.0726 -0.5759
 3875SOL     OW23348   1.161  10.467   1.868  0.1038  0.3029 -0.4734
 3875SOL    HW123349   1.186  10.540   1.811 -0.4625  1.6128  0.8753
 3875SOL    HW223350   1.230  10.402   1.856  0.8124  1.2092 -1.4566
 3876SOL     OW23351   0.187   2.678   7.556  0.4046 -0.2621  0.2185
 3876SOL    HW123352   0.263   2.675   7.615  0.8483 -1.0486 -0.3668
 3876SOL    HW223353   0.124   2.734   7.601  1.2479  0.2466  0.8188
 3877SOL     OW23354   4.844   8.581   8.027  0.1688  0.6311  0.2778
 3877SOL    HW123355   4.881   8.510   8.080  2.3109  2.1482  0.9294
 3877SOL    HW223356   4.917   8.641   8.012 -0.8778  1.3756 -2.5982
 3878SOL     OW23357  11.136   7.834   8.874  0.1663  0.6682  0.1487
 3878SOL    HW123358  11.067   7.901   8.879 -1.1542 -0.7113  1.2139
 3878SOL    HW223359  11.196   7.867   8.807 -1.6327  1.8381 -0.9722
 3879SOL     OW23360   4.048  10.912   4.681 -0.0373  0.0891 -0.0052
 3879SOL    HW123361   3.981  10.954   4.734  0.0818 -0.3321  0.4878
 3879SOL    HW223362   4.126  10.912   4.737  0.0807 -0.3941 -0.1678
 3880SOL     OW23363   9.145  11.805   3.900 -0.3092  0.5447  0.8243
 3880SOL    HW123364   9.055  11.776   3.888 -0.5926  1.9338 -0.8462
 3880SOL    HW223365   9.143  11.859   3.979 -0.9330  0.5772  0.7895
 3881SOL     OW23366   5.539   9.458   3.415  0.5398  0.2156  0.4813
 3881SOL    HW123367   5.517   9.368   3.393  0.7329  0.0598  0.9209
 3881SOL    HW223368   5.563   9.498   3.331 -2.9254  0.8630 -0.3788
 3882SOL     OW23369   5.031   9.978   0.020  0.2775  0.5504 -0.0870
 3882SOL    HW123370   5.075   9.996  -0.063  0.8787  1.3592  0.3947
 3882SOL    HW223371   4.961   9.916  -0.003  2.9043 -2.5232 -0.5792
 3883SOL     OW23372   3.948   0.292   2.965  0.1741 -0.6662  0.0309
 3883SOL    HW123373   3.966   0.284   2.872  1.8914 -0.8123  0.3378
 3883SOL    HW223374   3.990   0.214   3.004  1.3157  0.4441  1.1258
 3884SOL     OW23375   7.825   7.445   9.675  0.4092  0.0332  0.2894
 3884SOL    HW123376   7.819   7.497   9.755  1.0845  1.5924 -0.6039
 3884SOL    HW223377   7.750   7.474   9.623  0.3592 -0.4613  0.0874
 3885SOL     OW23378   9.200   7.687  10.510 -0.2559 -0.1589  0.1324
 3885SOL    HW123379   9.245   7.761  10.551 -1.3196  2.5656 -3.2052
 3885SOL    HW223380   9.271   7.629  10.481  0.6844  0.3370  1.3340
 3886SOL     OW23381  11.680   2.168   8.686  0.2402  0.4480 -0.1132
 3886SOL    HW123382  11.649   2.109   8.755  1.7130 -2.1023 -1.4577
 3886SOL    HW223383  11.704   2.248   8.731 -2.5543  0.3643  1.7315
 3887SOL     OW23384   3.192  11.501   2.044 -0.1252 -0.0170  0.5859
 3887SOL    HW123385   3.152  11.456   2.118 -1.7883  1.3673  0.5759
 3887SOL    HW223386   3.191  11.593   2.068  0.7887  0.3054 -0.5039
 3888SOL     OW23387   1.462   9.361   2.383  0.1794  0.4657 -0.4206
 3888SOL    HW123388   1.382   9.308   2.385 -0.3056  1.1970  1.4200
 3888SOL    HW223389   1.528   9.308   2.428  0.2650  0.5680 -0.4253
 3889SOL     OW23390  10.022   0.016   9.795 -0.7016  0.0097  0.0991
 3889SOL    HW123391  10.059   0.082   9.736 -2.0494  1.6235  0.9703
 3889SOL    HW223392  10.089   0.004   9.863  0.1313 -0.5721 -0.8062
 3890SOL     OW23393   2.882   6.617   0.337 -0.2169  0.3759  0.0356
 3890SOL    HW123394   2.871   6.551   0.268  1.1547  0.0207  0.1254
 3890SOL    HW223395   2.977   6.622   0.350 -0.4606 -1.1216  3.3924
 3891SOL     OW23396   1.275   3.001   3.112  0.1088 -0.1918  0.1027
 3891SOL    HW123397   1.330   3.031   3.184  0.2891 -1.3132  0.4534
 3891SOL    HW223398   1.188   2.992   3.149 -0.0362  0.3070 -0.1121
 3892SOL     OW23399   9.443   2.619   2.438 -0.6805 -0.0156  1.1603
 3892SOL    HW123400   9.418   2.649   2.351  0.0641  0.0502  0.9641
 3892SOL    HW223401   9.412   2.688   2.497 -0.9789  0.0518  0.9265
 3893SOL     OW23402   6.960   9.682   4.072  0.0799  0.3095  0.0820
 3893SOL    HW123403   7.011   9.627   4.013  1.3717 -0.1680  1.5704
 3893SOL    HW223404   6.952   9.630   4.152  1.6784  2.3645  1.6822
 3894SOL     OW23405   7.938   7.722   9.096 -0.4498 -0.3153 -0.5376
 3894SOL    HW123406   7.916   7.808   9.059  2.4859  0.3250 -0.9972
 3894SOL    HW223407   7.951   7.666   9.019  1.1019 -0.2006 -0.3898
 3895SOL     OW23408   9.681   4.842   4.850 -0.4954  0.0445  0.0358
 3895SOL    HW123409   9.773   4.817   4.842 -0.6836 -0.3391 -1.1236
 3895SOL    HW223410   9.633   4.766   4.819 -1.2414 -0.0526  1.3800
 3896SOL     OW23411   9.403   1.572   6.011 -0.0379 -0.3126 -0.0644
 3896SOL    HW123412   9.426   1.549   5.921 -1.5442  0.2711 -0.6310
 3896SOL    HW223413   9.413   1.667   6.015  1.6910 -0.4892  0.9229
 3897SOL     OW23414   5.135   5.437   0.871  0.2327 -0.2337  0.2803
 3897SOL    HW123415   5.221   5.478   0.882  0.5293 -1.5401  3.8460
 3897SOL    HW223416   5.145   5.349   0.905 -2.2491 -0.8718 -0.4219
 3898SOL     OW23417  10.200   7.647   8.101 -0.0897 -0.0585 -0.4016
 3898SOL    HW123418  10.231   7.557   8.108 -1.2797 -0.3956  0.7985
 3898SOL    HW223419  10.246   7.682   8.024  0.1750 -1.7670 -1.0631
 3899SOL     OW23420   4.678   8.169  11.936  0.7745  0.0638  0.2893
 3899SOL    HW123421   4.582   8.167  11.943  0.6271 -0.1127 -1.4931
 3899SOL    HW223422   4.700   8.262  11.937  0.5870  0.1085  0.6312
 3900SOL     OW23423   5.594   4.476   1.441 -0.1014 -0.2541 -0.1290
 3900SOL    HW123424   5.593   4.561   1.397  0.2344 -0.1353  0.0910
 3900SOL    HW223425   5.517   4.430   1.407 -1.2108  0.7460  0.9890
 3901SOL     OW23426   9.955   8.359   6.716  0.4476  0.4613 -0.5652
 3901SOL    HW123427  10.001   8.384   6.636  0.2981  1.0559 -0.4713
 3901SOL    HW223428   9.889   8.296   6.688 -0.4436  1.6017 -1.1234
 3902SOL     OW23429   0.464   4.177   1.302  0.1268  0.5298 -0.3598
 3902SOL    HW123430   0.451   4.098   1.249  0.9874 -0.4125  0.7823
 3902SOL    HW223431   0.529   4.228   1.254 -0.5167  0.6165 -1.1601
 3903SOL     OW23432   1.120   3.172   8.671 -0.3098  0.2495  0.2222
 3903SOL    HW123433   1.191   3.155   8.732  0.0707  0.7560 -0.0685
 3903SOL    HW223434   1.089   3.260   8.693  0.8566  1.0795 -1.2850
 3904SOL     OW23435   1.019   0.593   2.241 -0.8053 -0.2597  0.2270
 3904SOL    HW123436   0.970   0.654   2.186 -2.2895  1.3090  3.0384
 3904SOL    HW223437   1.056   0.649   2.310  0.7954 -2.1116  0.9336
 3905SOL     OW23438   1.686   8.715   8.999  0.1328 -0.3110 -0.1989
 3905SOL    HW123439   1.753   8.756   9.053 -0.8402 -2.3708  2.8499
 3905SOL    HW223440   1.674   8.775   8.925  0.8994  3.2868  2.3431
 3906SOL     OW23441   7.201   4.172   6.650  0.5223  0.4191  0.7325
 3906SOL    HW123442   7.221   4.234   6.721  0.0923  0.7394  0.5783
 3906SOL    HW223443   7.285   4.153   6.610  0.5835  1.4056  0.3725
 3907SOL     OW23444   1.847   6.537   4.136  0.1095  0.0038 -0.2842
 3907SOL    HW123445   1.831   6.565   4.046  0.4815 -2.0977 -1.0550
 3907SOL    HW223446   1.798   6.455   4.146  0.7551 -0.2499  1.1482
 3908SOL     OW23447   2.429   9.036   8.427  0.1625 -0.1445  0.1257
 3908SOL    HW123448   2.343   9.053   8.466  0.3144 -0.7673  0.7602
 3908SOL    HW223449   2.412   9.031   8.333 -0.1947  1.5431  0.0713
 3909SOL     OW23450   8.476  10.762   7.819 -0.0219  0.4647  0.1182
 3909SOL    HW123451   8.524  10.710   7.884  0.8813 -0.6456 -1.3734
 3909SOL    HW223452   8.545  10.809   7.771 -0.5020 -0.1187 -1.1800
 3910SOL     OW23453  10.197  11.859   7.369  0.4441 -0.3447  0.6502
 3910SOL    HW123454  10.148  11.932   7.332  0.5981 -0.6056 -0.0919
 3910SOL    HW223455  10.277  11.854   7.316 -0.2681 -2.0263 -0.3824
 3911SOL     OW23456  10.438   4.980   6.089 -0.4828 -0.2433  0.0462
 3911SOL    HW123457  10.447   5.064   6.043 -0.7306  0.4033  1.1396
 3911SOL    HW223458  10.354   4.945   6.060 -0.4432 -0.0411 -0.3094
 3912SOL     OW23459   4.051   5.560  11.344  0.2285 -0.3544 -0.0985
 3912SOL    HW123460   4.060   5.465  11.345  0.5036 -0.3201  0.9153
 3912SOL    HW223461   4.038   5.581  11.251  1.9341 -1.2041 -0.5772
 3913SOL     OW23462   4.779  10.086  10.187 -0.2029 -0.3571  0.2167
 3913SOL    HW123463   4.773  10.052  10.276  0.3578 -1.7149 -0.2376
 3913SOL    HW223464   4.747  10.015  10.131 -0.5692  0.4779 -0.6754
 3914SOL     OW23465   8.069   0.529   1.770 -0.0440 -0.0042 -0.0665
 3914SOL    HW123466   8.001   0.561   1.711 -0.9718 -0.3096  0.8253
 3914SOL    HW223467   8.040   0.442   1.797  0.5107  0.0119  0.6171
 3915SOL     OW23468   4.668   6.330   3.186 -0.6618 -0.1723  0.3213
 3915SOL    HW123469   4.656   6.288   3.100 -1.5541 -0.1567  0.4262
 3915SOL    HW223470   4.762   6.322   3.204 -0.3266  0.4525 -0.9824
 3916SOL     OW23471   9.040   5.539   5.945 -0.2046  0.3079  0.0339
 3916SOL    HW123472   9.073   5.464   5.896 -2.7388  0.0128 -1.3916
 3916SOL    HW223473   8.995   5.500   6.021 -0.6174  0.4299 -0.1429
 3917SOL     OW23474   3.362  10.055   3.212 -0.2591 -0.1793  0.5922
 3917SOL    HW123475   3.447  10.072   3.170 -1.1133  1.8282 -0.4466
 3917SOL    HW223476   3.381  10.058   3.306  0.5714  1.9449  0.4051
 3918SOL     OW23477   2.512  10.808  10.247  0.0421 -0.2947  0.5511
 3918SOL    HW123478   2.487  10.873  10.181 -0.3677  0.7764  1.7085
 3918SOL    HW223479   2.438  10.805  10.307  1.0108 -0.0992  1.7918
 3919SOL     OW23480   0.054   4.815   3.269  0.2522  0.0879 -0.9188
 3919SOL    HW123481   0.060   4.910   3.279 -0.3323 -0.1275  2.6652
 3919SOL    HW223482  -0.038   4.795   3.288 -0.1212 -1.1194 -3.5137
 3920SOL     OW23483   6.731   5.622   0.275  1.0371 -1.0727  0.0247
 3920SOL    HW123484   6.780   5.553   0.319 -0.0664 -0.9371  1.5853
 3920SOL    HW223485   6.645   5.620   0.317  1.1833  1.6786  0.6605
 3921SOL     OW23486  10.457  10.490   1.949  0.0181  0.0595 -0.5660
 3921SOL    HW123487  10.486  10.581   1.944 -0.4003  0.2846  0.7445
 3921SOL    HW223488  10.428  10.469   1.860 -0.7001  1.4862 -0.6948
 3922SOL     OW23489   4.879   2.713   6.026 -0.1899 -0.2362  0.0824
 3922SOL    HW123490   4.956   2.689   6.077  1.8396 -1.8412 -3.3127
 3922SOL    HW223491   4.912   2.777   5.962 -2.1672  0.5390 -0.2151
 3923SOL     OW23492  10.373   3.144   1.234 -0.0951  0.4970 -0.1512
 3923SOL    HW123493  10.325   3.221   1.264  1.7430  1.7241 -0.2423
 3923SOL    HW223494  10.390   3.160   1.142 -2.1231 -1.3627 -0.9318
 3924SOL     OW23495   0.290   2.802  11.773  0.2979  1.2287 -0.2700
 3924SOL    HW123496   0.273   2.708  11.773  0.2803  1.1998  1.5935
 3924SOL    HW223497   0.205   2.842  11.750 -0.3552  0.8330  1.3166
 3925SOL     OW23498   0.999   3.146   5.456  0.0127  0.5724 -0.5076
 3925SOL    HW123499   1.012   3.143   5.361 -1.5643 -0.0874 -0.7344
 3925SOL    HW223500   1.069   3.091   5.491 -1.3421 -1.9916 -1.5557
 3926SOL     OW23501  11.051   2.481   1.683  0.6343  0.3384 -0.3619
 3926SOL    HW123502  11.003   2.415   1.733 -0.6723  0.9358 -0.7789
 3926SOL    HW223503  11.131   2.495   1.733  0.4585 -0.7962  0.2809
 3927SOL     OW23504   0.193   0.976   8.785 -0.3804  0.2524 -0.9978
 3927SOL    HW123505   0.123   0.952   8.724  0.1593 -0.3225 -1.4013
 3927SOL    HW223506   0.268   0.997   8.728  0.5398 -1.5583 -0.5420
 3928SOL     OW23507   5.161   8.775  11.736 -0.3666  0.7410 -0.2430
 3928SOL    HW123508   5.106   8.715  11.687 -1.1083  0.3507  1.0263
 3928SOL    HW223509   5.228   8.719  11.776  1.1600  1.2342 -1.9559
 3929SOL     OW23510   0.933   6.286   6.119  0.1739 -0.3558 -0.4981
 3929SOL    HW123511   0.930   6.380   6.135  0.7949 -0.1562 -1.4302
 3929SOL    HW223512   0.987   6.250   6.189 -0.6991 -0.1360  0.3007
 3930SOL     OW23513   5.781   7.321   8.560  0.4880  0.3854 -0.1440
 3930SOL    HW123514   5.828   7.401   8.585  0.9620 -0.3372  1.3680
 3930SOL    HW223515   5.690   7.349   8.550  0.2055  0.7367  2.6558
 3931SOL     OW23516   5.003   3.896   8.986  0.3434 -0.2177  0.4534
 3931SOL    HW123517   4.992   3.838   9.061  2.9033 -1.3392  0.0351
 3931SOL    HW223518   5.060   3.966   9.017 -0.3222  0.5067  0.1063
 3932SOL     OW23519   3.340   5.531   6.335  0.3484  0.3155 -0.5023
 3932SOL    HW123520   3.328   5.608   6.390 -2.4691 -0.4102  0.0544
 3932SOL    HW223521   3.312   5.559   6.248 -1.6945 -0.2599 -0.0878
 3933SOL     OW23522   7.350   2.471   1.976  0.1929 -0.1699  0.0266
 3933SOL    HW123523   7.296   2.543   1.944 -0.1042 -0.9049 -1.1859
 3933SOL    HW223524   7.300   2.392   1.955  1.1319 -0.8002  0.0913
 3934SOL     OW23525   9.780   1.755   6.788  0.3158  0.2485 -0.3207
 3934SOL    HW123526   9.844   1.685   6.776  1.2392  1.2770 -1.7579
 3934SOL    HW223527   9.708   1.732   6.730 -0.4750 -0.6837  0.9721
 3935SOL     OW23528   9.405  11.413   4.092 -0.0424 -0.3919  0.5381
 3935SOL    HW123529   9.369  11.434   4.178  0.7746 -1.8039  1.2809
 3935SOL    HW223530   9.397  11.494   4.041 -3.2154 -0.3080  0.9606
 3936SOL     OW23531   0.183   0.981   2.504  0.4876 -0.6558 -0.2554
 3936SOL    HW123532   0.212   1.052   2.562  0.3792  0.3389 -1.3922
 3936SOL    HW223533   0.156   1.024   2.424 -1.1800 -1.8363 -0.3946
 3937SOL     OW23534   1.888   2.207   7.260 -0.7493 -0.1621 -0.5039
 3937SOL    HW123535   1.946   2.163   7.198 -0.1264  0.3933 -0.3203
 3937SOL    HW223536   1.807   2.221   7.210 -0.1876  0.4564 -1.2577
 3938SOL     OW23537   0.312   0.327   8.294  0.1947  0.2519  0.1492
 3938SOL    HW123538   0.374   0.394   8.264  1.9401 -0.3558  2.1491
 3938SOL    HW223539   0.248   0.375   8.347  0.2414  0.5872 -0.0982
 3939SOL     OW23540   7.653   8.666  11.776  0.1048 -0.4715  0.1962
 3939SOL    HW123541   7.722   8.607  11.745  0.2125 -0.6970  0.8612
 3939SOL    HW223542   7.583   8.655  11.711  0.8526  0.0952 -0.7333
 3940SOL     OW23543   5.471   4.929   6.790 -0.3218  0.4246  0.6613
 3940SOL    HW123544   5.461   4.972   6.705 -1.3981 -0.2845  0.4171
 3940SOL    HW223545   5.565   4.936   6.809 -0.2783  1.8463  0.1017
 3941SOL     OW23546   5.731   7.833   7.097  0.0696  0.5894  0.1031
 3941SOL    HW123547   5.657   7.890   7.121  0.7073  1.0012  1.1449
 3941SOL    HW223548   5.801   7.893   7.075  0.6427  0.2217  0.8658
 3942SOL     OW23549   4.694  11.252   5.898 -0.3561  0.2184 -0.2807
 3942SOL    HW123550   4.659  11.246   5.987 -1.6292 -0.7656 -0.8042
 3942SOL    HW223551   4.784  11.280   5.909 -1.1404  2.3982  1.1827
 3943SOL     OW23552   6.344   1.402   4.944  0.1251  0.2505  0.1620
 3943SOL    HW123553   6.398   1.419   5.021  1.2413 -0.2455 -0.4973
 3943SOL    HW223554   6.259   1.440   4.966 -0.3152 -1.8816  2.6192
 3944SOL     OW23555   4.280   5.404   1.136 -0.3282  0.7492  0.9714
 3944SOL    HW123556   4.203   5.434   1.088 -2.8183 -2.8771  2.2316
 3944SOL    HW223557   4.296   5.472   1.201 -1.6582  2.1709 -0.1321
 3945SOL     OW23558   5.050  10.795   2.517  0.4392  0.2545  0.1349
 3945SOL    HW123559   5.041  10.834   2.430  1.1478  2.4955  0.9826
 3945SOL    HW223560   5.096  10.712   2.502  1.5686  1.1293 -1.5409
 3946SOL     OW23561   8.379   1.749   0.463 -0.2654  0.0871  0.3947
 3946SOL    HW123562   8.414   1.827   0.421 -1.2581  0.7407  0.7368
 3946SOL    HW223563   8.398   1.678   0.402  0.8411  0.5541  0.1763
 3947SOL     OW23564   5.552   8.582   6.965 -0.0722 -0.2618 -0.2000
 3947SOL    HW123565   5.601   8.515   7.013 -0.4181  0.4535  1.1963
 3947SOL    HW223566   5.476   8.535   6.929  0.4271 -0.8998 -0.4477
 3948SOL     OW23567   5.153   5.963   3.896  0.1561 -0.4713 -0.0430
 3948SOL    HW123568   5.131   6.054   3.914 -0.0380 -0.2052 -1.5530
 3948SOL    HW223569   5.249   5.962   3.892  0.1694 -0.3924  0.2385
 3949SOL     OW23570  11.833   3.666   1.355 -0.1121  0.0230 -0.0966
 3949SOL    HW123571  11.750   3.674   1.308 -1.0853  1.6908  1.7350
 3949SOL    HW223572  11.873   3.753   1.348  0.7591 -0.3351  0.2717
 3950SOL     OW23573   1.168   0.041  11.956 -0.5281  0.3193  0.0014
 3950SOL    HW123574   1.147  -0.033  11.900  0.2224 -0.2423  0.4429
 3950SOL    HW223575   1.264   0.043  11.959 -0.5391  0.1423  1.4909
 3951SOL     OW23576  11.235   2.639   7.060  0.3898 -0.5779 -0.2766
 3951SOL    HW123577  11.178   2.581   7.010  0.5061 -0.1643 -0.9070
 3951SOL    HW223578  11.207   2.629   7.151 -1.9317  0.9933 -0.7457
 3952SOL     OW23579   2.430   3.407   0.680  0.4133 -0.2001  0.1902
 3952SOL    HW123580   2.355   3.357   0.712 -1.0017  1.7594  0.1397
 3952SOL    HW223581   2.499   3.342   0.669 -1.0844 -1.9981  0.7927
 3953SOL     OW23582   4.970   6.712  11.240 -0.3335 -0.2278  0.1847
 3953SOL    HW123583   4.893   6.718  11.184 -1.3878 -2.1739  1.3444
 3953SOL    HW223584   4.988   6.803  11.264 -1.0744  0.4519 -1.6153
 3954SOL     OW23585   1.693   8.046   7.030 -0.5944  0.0627 -0.0070
 3954SOL    HW123586   1.661   8.134   7.010 -0.6409  0.1474  0.4482
 3954SOL    HW223587   1.614   7.993   7.042 -0.5661  0.1389  0.5206
 3955SOL     OW23588   4.764   9.608   5.381  0.0042 -0.2976 -0.3750
 3955SOL    HW123589   4.847   9.587   5.424  0.6402  1.0785 -0.8607
 3955SOL    HW223590   4.779   9.693   5.340 -1.1998 -0.6573 -1.6648
 3956SOL     OW23591   2.414   9.618   3.423  0.6035 -0.3057 -0.3271
 3956SOL    HW123592   2.474   9.578   3.360 -0.3342 -0.3609 -1.2191
 3956SOL    HW223593   2.334   9.634   3.373  0.3861  1.1882  0.4325
 3957SOL     OW23594   4.486   9.638   6.825 -0.6100  0.3827 -0.3661
 3957SOL    HW123595   4.433   9.558   6.832  0.1619 -0.0348  1.4428
 3957SOL    HW223596   4.557   9.615   6.765 -1.6412  0.4899 -1.6770
 3958SOL     OW23597   7.069  10.576   4.032  0.0626 -0.5092  0.3689
 3958SOL    HW123598   7.012  10.641   4.075 -0.5344 -1.6385  1.3383
 3958SOL    HW223599   7.049  10.584   3.939  1.4392  2.0668  0.1829
 3959SOL     OW23600   0.061   8.206  10.083 -0.0720 -0.6314 -0.5496
 3959SOL    HW123601  -0.009   8.269  10.067  2.0850  2.2889  0.6123
 3959SOL    HW223602   0.094   8.229  10.170  0.9652 -3.3166 -0.1360
 3960SOL     OW23603  11.623   1.883   3.631  0.0824  0.5248 -0.4769
 3960SOL    HW123604  11.703   1.935   3.630  1.2299 -1.1336  0.2417
 3960SOL    HW223605  11.614   1.856   3.723 -0.8917  0.0662 -0.6973
 3961SOL     OW23606   6.074   7.423   5.258  0.5598 -0.2476  0.2312
 3961SOL    HW123607   5.981   7.418   5.281  0.6640  0.7199  0.9593
 3961SOL    HW223608   6.079   7.496   5.196  1.0678  0.9866  1.6681
 3962SOL     OW23609  10.011   2.362  10.138 -0.0558 -0.0527  0.1711
 3962SOL    HW123610   9.958   2.302  10.191 -1.1221 -0.6033 -1.4519
 3962SOL    HW223611   9.962   2.444  10.138 -1.4841 -0.8048 -2.0367
 3963SOL     OW23612   6.006   9.918   2.434 -0.3418  0.3968 -0.5527
 3963SOL    HW123613   6.052   9.969   2.367  2.9557 -2.1032 -0.4838
 3963SOL    HW223614   5.960   9.850   2.384 -0.3836  0.3326 -0.4257
 3964SOL     OW23615   6.821   4.877   3.421  0.2253  0.0445 -0.0485
 3964SOL    HW123616   6.796   4.808   3.482 -1.2750  0.3141 -0.3062
 3964SOL    HW223617   6.905   4.909   3.453  0.6321 -1.4578  0.4389
 3965SOL     OW23618   5.508   4.350   0.820 -0.1277 -0.2432 -0.0359
 3965SOL    HW123619   5.540   4.281   0.763 -3.2655 -1.8561 -0.0893
 3965SOL    HW223620   5.507   4.429   0.766  0.3818 -0.9099 -1.0286
 3966SOL     OW23621   4.156   2.740   5.088  0.0559  0.1807  0.0128
 3966SOL    HW123622   4.188   2.747   5.178  0.0316  0.3144  0.0115
 3966SOL    HW223623   4.231   2.706   5.039 -0.2480 -0.8878  0.2638
 3967SOL     OW23624   4.787  11.156   6.973 -0.3574  0.0235  0.6183
 3967SOL    HW123625   4.880  11.156   6.949 -0.9685  0.0714 -2.0050
 3967SOL    HW223626   4.757  11.068   6.954 -1.7331  1.0618 -2.7594
 3968SOL     OW23627   4.736   8.829   1.235  0.7450  0.4792 -0.1672
 3968SOL    HW123628   4.752   8.741   1.267 -0.0207  0.2169 -0.5023
 3968SOL    HW223629   4.794   8.837   1.159  0.5026  0.1141 -0.3913
 3969SOL     OW23630   1.891  10.034   7.915  0.1167 -0.3046  0.3558
 3969SOL    HW123631   1.962  10.009   7.975  1.0033  0.4920 -0.3132
 3969SOL    HW223632   1.855   9.952   7.884  0.3104 -0.7256  1.2228
 3970SOL     OW23633   9.371  11.160   4.492  0.2719 -0.0088  0.2293
 3970SOL    HW123634   9.451  11.189   4.448 -1.7262  1.4646 -2.7939
 3970SOL    HW223635   9.351  11.076   4.451 -0.5430  0.3966 -0.2245
 3971SOL     OW23636   6.564   8.052   8.149 -0.2250 -0.6709 -0.1049
 3971SOL    HW123637   6.587   8.111   8.221  0.0370 -0.1475 -0.6115
 3971SOL    HW223638   6.480   8.085   8.117  0.9357  0.8038 -1.8026
 3972SOL     OW23639   2.705   5.699  10.392 -0.2741  0.0828  0.0282
 3972SOL    HW123640   2.667   5.625  10.344 -0.5272  0.2622 -0.0547
 3972SOL    HW223641   2.629   5.754  10.414  0.0145  0.8969 -0.9126
 3973SOL     OW23642   6.912  11.565   3.677 -0.4928 -0.4005  0.0747
 3973SOL    HW123643   6.868  11.480   3.673  1.1151 -1.2721 -0.2824
 3973SOL    HW223644   6.997  11.549   3.635 -0.6867  1.7388 -1.2737
 3974SOL     OW23645   3.897   8.308   6.819 -0.3692 -0.3205  0.0799
 3974SOL    HW123646   3.901   8.353   6.904  1.2439  1.5975 -0.9422
 3974SOL    HW223647   3.867   8.376   6.758 -0.2747 -1.3252 -1.1075
 3975SOL     OW23648   5.610   1.033   2.083 -0.3960  0.0789  0.1205
 3975SOL    HW123649   5.613   0.958   2.023  1.4798 -0.5653  0.9330
 3975SOL    HW223650   5.610   1.109   2.026 -1.2958 -0.5232 -0.7123
 3976SOL     OW23651   7.168   0.144   3.132  0.0711  0.0333 -0.5553
 3976SOL    HW123652   7.171   0.197   3.212 -1.7215  0.2013 -0.5584
 3976SOL    HW223653   7.187   0.206   3.061 -0.3389  0.3344 -0.4114
 3977SOL     OW23654   1.672   2.584   2.906  0.1257  0.3392 -0.1388
 3977SOL    HW123655   1.748   2.533   2.880  1.2745  2.2747 -0.7186
 3977SOL    HW223656   1.601   2.553   2.849  0.3969 -1.5444  0.4755
 3978SOL     OW23657   5.140   6.779   0.649  0.5374 -0.1092  0.5952
 3978SOL    HW123658   5.106   6.732   0.724 -0.6249 -0.2418  0.0083
 3978SOL    HW223659   5.123   6.871   0.668 -1.0213 -0.2254 -0.0755
 3979SOL     OW23660   3.983   5.056   8.187 -0.0104  0.5963  0.0105
 3979SOL    HW123661   3.915   5.122   8.175  0.6669  0.9946 -1.9681
 3979SOL    HW223662   4.063   5.097   8.153  1.0570 -0.1950  1.4346
 3980SOL     OW23663   4.224   5.449   3.647  0.3184 -0.3238 -0.1466
 3980SOL    HW123664   4.260   5.450   3.736 -1.2544 -3.0467  0.6224
 3980SOL    HW223665   4.265   5.524   3.604  1.1443  1.0933  2.8474
 3981SOL     OW23666   6.474   9.870  10.721  0.2011 -0.4875  0.0155
 3981SOL    HW123667   6.395   9.823  10.697  0.7952 -0.3503 -2.4718
 3981SOL    HW223668   6.511   9.899  10.638  2.9262 -0.6298  1.0775
 3982SOL     OW23669   0.982   4.164  10.151 -0.0811  0.0002  0.5827
 3982SOL    HW123670   0.916   4.110  10.108 -0.1564 -1.1071  2.0048
 3982SOL    HW223671   0.954   4.254  10.136 -0.0906 -0.3319 -1.6295
 3983SOL     OW23672   7.560   3.201   6.847 -0.2533 -0.0550 -0.0563
 3983SOL    HW123673   7.604   3.120   6.872 -0.4743 -0.0545  0.3385
 3983SOL    HW223674   7.531   3.239   6.930  2.3366  1.8712  0.0813
 3984SOL     OW23675   8.512   1.964   9.087  0.0037 -0.3655  0.1837
 3984SOL    HW123676   8.477   2.032   9.030  0.0014  0.2578  0.9036
 3984SOL    HW223677   8.523   1.888   9.030 -1.1315 -0.1354 -0.3768
 3985SOL     OW23678  10.327   3.632   5.078 -0.1528  0.1415 -0.5854
 3985SOL    HW123679  10.239   3.638   5.115 -0.1022  2.6809 -0.7081
 3985SOL    HW223680  10.325   3.555   5.022 -1.9621 -0.4593  0.2490
 3986SOL     OW23681   0.302   7.979   9.217 -0.1585 -0.6356 -0.2136
 3986SOL    HW123682   0.234   7.914   9.236  1.1493 -1.8003  0.7139
 3986SOL    HW223683   0.295   7.993   9.123 -1.0562 -1.4609 -0.2933
 3987SOL     OW23684   4.340   7.013   1.029  0.3164  0.1090 -0.4024
 3987SOL    HW123685   4.405   6.950   1.061  0.6066  1.2277  1.3166
 3987SOL    HW223686   4.350   7.089   1.086 -1.2163  1.0484 -1.3247
 3988SOL     OW23687   6.928   0.506   3.854 -0.0327  0.4925  0.8514
 3988SOL    HW123688   6.927   0.601   3.864  0.2635  0.4790  1.0135
 3988SOL    HW223689   6.835   0.481   3.852 -0.1297  0.9081 -0.4273
 3989SOL     OW23690   3.380   9.829   5.424  0.1121  0.7616 -0.3498
 3989SOL    HW123691   3.405   9.767   5.355 -0.7699 -0.3382  0.2815
 3989SOL    HW223692   3.442   9.902   5.415  2.1261 -0.8299 -0.2314
 3990SOL     OW23693   2.262   0.507   9.487  0.1562  0.3262  0.1292
 3990SOL    HW123694   2.309   0.441   9.537 -0.3120 -0.5946 -0.6138
 3990SOL    HW223695   2.330   0.550   9.435  0.5015  0.6269  0.8256
 3991SOL     OW23696   3.584   1.694   9.950 -0.2571 -0.0618  0.2368
 3991SOL    HW123697   3.641   1.671   9.876 -0.0454  0.3085  0.2789
 3991SOL    HW223698   3.583   1.790   9.949 -2.2006 -0.0550 -0.7749
 3992SOL     OW23699   7.523   6.609   7.727 -0.2351 -0.1511  0.0137
 3992SOL    HW123700   7.545   6.553   7.652  0.3882 -0.4291  0.3982
 3992SOL    HW223701   7.430   6.593   7.742  0.0004 -1.3805  0.3379
 3993SOL     OW23702   7.664  11.169   1.617 -0.3479 -0.6930 -0.0076
 3993SOL    HW123703   7.586  11.122   1.645  0.1411 -1.5053  0.0134
 3993SOL    HW223704   7.674  11.146   1.525 -0.3274 -0.3166 -0.1003
 3994SOL     OW23705   0.997   0.570  11.849  0.4553  0.1122 -0.2448
 3994SOL    HW123706   1.022   0.659  11.824 -0.5045  0.2011 -0.9471
 3994SOL    HW223707   1.016   0.566  11.943  0.3476  1.1165 -0.1637
 3995SOL     OW23708   1.091   3.716   2.146  0.2018  0.4273  0.1569
 3995SOL    HW123709   1.025   3.778   2.114 -1.3797  0.1521  2.6374
 3995SOL    HW223710   1.051   3.630   2.130  0.7844  0.1726  0.0481
 3996SOL     OW23711   6.482  10.935   8.781 -0.3551  0.1273  0.2362
 3996SOL    HW123712   6.441  11.011   8.821  0.3514  1.5419 -1.5418
 3996SOL    HW223713   6.472  10.950   8.687  1.2069 -1.1651 -0.1847
 3997SOL     OW23714   6.040   0.054   4.340  0.3901 -0.2006  0.0121
 3997SOL    HW123715   5.986   0.131   4.359  0.9328  0.1720  0.0870
 3997SOL    HW223716   6.079   0.031   4.425  0.8729 -0.0500 -0.1647
 3998SOL     OW23717   9.568   4.085   0.883  0.2151  0.2014  0.2952
 3998SOL    HW123718   9.623   4.154   0.921  1.9692 -1.0654  0.1361
 3998SOL    HW223719   9.622   4.007   0.885 -0.8072 -0.6429 -1.8544
 3999SOL     OW23720  11.805   7.142   8.149  0.3577 -0.2112  0.4879
 3999SOL    HW123721  11.768   7.230   8.141 -0.0660 -0.3275  1.1576
 3999SOL    HW223722  11.752   7.099   8.215  1.3614 -0.5570  1.0962
 4000SOL     OW23723   3.644   5.005  10.420 -0.2400 -0.8851 -0.0042
 4000SOL    HW123724   3.715   4.974  10.476 -0.5761 -1.2533  0.2217
 4000SOL    HW223725   3.669   4.976  10.332  1.0753  1.0588 -0.3241
 4001SOL     OW23726   0.552   4.161   7.035 -0.0107  0.1410 -0.1332
 4001SOL    HW123727   0.626   4.106   7.009  0.0536  0.1955 -0.0622
 4001SOL    HW223728   0.487   4.147   6.966  0.1088  0.1816 -0.2547
 4002SOL     OW23729   8.608   2.083   5.901  0.1749 -0.4691 -0.3088
 4002SOL    HW123730   8.699   2.059   5.881 -0.6513 -2.4518 -2.1113
 4002SOL    HW223731   8.558   2.003   5.885 -1.8844  0.5083  0.8417
 4003SOL     OW23732   3.598   2.133   2.912  0.1323  0.2393  0.7193
 4003SOL    HW123733   3.561   2.198   2.972 -0.8079  0.2862  0.1117
 4003SOL    HW223734   3.683   2.168   2.887 -0.3373  1.1986  0.4509
 4004SOL     OW23735   0.595   8.913   3.450  0.3734 -0.3231  0.6924
 4004SOL    HW123736   0.624   9.004   3.441  0.9155 -0.2145  2.9143
 4004SOL    HW223737   0.514   8.919   3.500 -0.1118 -1.0379  0.0200
 4005SOL     OW23738   9.238   1.438   9.506  0.3467  0.2196 -0.1123
 4005SOL    HW123739   9.180   1.498   9.554  0.3817 -0.5960  0.9880
 4005SOL    HW223740   9.264   1.373   9.571  3.2945  1.0606 -0.2929
 4006SOL     OW23741   4.190   2.426   3.208  0.6133  0.5526 -0.1509
 4006SOL    HW123742   4.130   2.424   3.282  0.4825  1.3441 -0.2282
 4006SOL    HW223743   4.145   2.376   3.140  0.7017 -0.1109  0.2665
 4007SOL     OW23744   3.320   6.907   1.306 -0.2324  0.0000  0.5565
 4007SOL    HW123745   3.386   6.840   1.325 -1.2516 -0.9359  0.8784
 4007SOL    HW223746   3.371   6.983   1.280  0.9391 -1.7263 -2.7753
 4008SOL     OW23747   7.164   0.948  10.326 -0.1485  0.6090  0.6058
 4008SOL    HW123748   7.144   0.953  10.420  1.4261 -1.1333  1.0851
 4008SOL    HW223749   7.136   0.861  10.300  0.5077  0.6601 -0.2822
 4009SOL     OW23750   0.890   9.340   8.434  0.2933 -0.0048  0.4244
 4009SOL    HW123751   0.847   9.301   8.358 -0.4870 -0.6872  1.1887
 4009SOL    HW223752   0.945   9.409   8.398  0.8731 -1.1034 -0.8726
 4010SOL     OW23753   9.662   0.187   1.505 -0.4417 -0.3187  0.0994
 4010SOL    HW123754   9.659   0.134   1.585  1.0779 -0.0967  0.3207
 4010SOL    HW223755   9.659   0.278   1.537 -0.0462 -0.2339 -0.1001
 4011SOL     OW23756   1.940   0.857   6.405  0.7610 -0.7252  0.7720
 4011SOL    HW123757   1.955   0.940   6.449  0.4149 -0.4137  0.3079
 4011SOL    HW223758   1.863   0.872   6.351  1.1538 -1.1142  0.0911
 4012SOL     OW23759   5.978   4.860   6.200  0.1030 -0.2376 -0.2638
 4012SOL    HW123760   6.019   4.775   6.215  1.4339  0.2662 -0.8890
 4012SOL    HW223761   5.978   4.871   6.105  0.1224  0.5410 -0.1819
 4013SOL     OW23762   0.841   4.048   4.067 -0.6433 -0.5248  0.1466
 4013SOL    HW123763   0.935   4.038   4.085 -0.9759 -3.0364  0.9145
 4013SOL    HW223764   0.822   4.140   4.086  1.3243 -0.3733  1.6815
 4014SOL     OW23765   7.093   4.669   4.737 -0.1858  0.4049 -0.3944
 4014SOL    HW123766   7.116   4.577   4.749  0.0745  0.2498 -1.8930
 4014SOL    HW223767   7.008   4.666   4.692  0.9233  0.8007 -2.6618
 4015SOL     OW23768   8.721   8.544   8.657  0.1378 -0.3344  0.1334
 4015SOL    HW123769   8.633   8.516   8.633 -0.7943  1.0191  1.7220
 4015SOL    HW223770   8.766   8.557   8.574 -1.9919  1.3937 -0.8693
 4016SOL     OW23771   5.278   9.936   1.882 -0.7073 -0.3436 -0.4447
 4016SOL    HW123772   5.271   9.991   1.804  4.7822  2.0835  0.2718
 4016SOL    HW223773   5.303   9.850   1.849 -0.9621 -0.0478 -1.4228
 4017SOL     OW23774   2.204   0.696   9.727 -0.1791 -0.2682  0.5811
 4017SOL    HW123775   2.150   0.759   9.679  1.0541  0.7398  0.4746
 4017SOL    HW223776   2.246   0.644   9.658  1.8198  1.3686  0.4605
 4018SOL     OW23777   1.544   7.463   9.222 -0.3136 -0.2340 -0.0820
 4018SOL    HW123778   1.593   7.545   9.230 -0.4216 -0.0446 -1.1452
 4018SOL    HW223779   1.610   7.399   9.194 -0.5732 -0.0510 -1.1902
 4019SOL     OW23780   9.657  11.923   0.127  0.3665  0.4382  0.4087
 4019SOL    HW123781   9.681  11.955   0.040 -0.8893  0.9280  0.2267
 4019SOL    HW223782   9.629  11.833   0.113  1.5453  0.0226  0.5521
 4020SOL     OW23783   5.823   3.347   2.232 -0.6815  0.2715 -0.4677
 4020SOL    HW123784   5.891   3.283   2.250  0.4210  1.6824  0.6269
 4020SOL    HW223785   5.804   3.337   2.139  0.4450 -0.6813 -0.6139
 4021SOL     OW23786   2.097   8.669   5.992  0.1263  0.3027 -0.4372
 4021SOL    HW123787   2.192   8.677   5.989  0.1193  0.3940 -3.3220
 4021SOL    HW223788   2.068   8.749   6.037  1.3609  0.6758 -0.2520
 4022SOL     OW23789  11.740  10.375   9.580 -0.6489  0.6577 -0.5256
 4022SOL    HW123790  11.820  10.368   9.528  0.7431  0.4302  1.5076
 4022SOL    HW223791  11.713  10.467   9.571 -0.1961  0.7176 -1.2848
 4023SOL     OW23792   6.722   0.997   7.585 -0.2277 -0.5332 -0.6330
 4023SOL    HW123793   6.668   1.076   7.579  0.6155  0.2289  1.1584
 4023SOL    HW223794   6.811   1.030   7.600  0.1665 -1.8164 -0.0156
 4024SOL     OW23795   4.018  10.331  11.844  0.4512  0.2366 -0.7770
 4024SOL    HW123796   4.053  10.292  11.924 -0.6280 -1.0467 -0.8979
 4024SOL    HW223797   4.090  10.385  11.810  1.3256 -0.1364  0.4218
 4025SOL     OW23798  11.121   4.672  11.841 -0.0704 -0.0338 -0.1356
 4025SOL    HW123799  11.156   4.716  11.764  0.9822 -1.2149 -0.3657
 4025SOL    HW223800  11.115   4.580  11.816  0.0161 -0.3950  1.0919
 4026SOL     OW23801   9.586  10.150   7.697 -0.7871  0.1247  0.5697
 4026SOL    HW123802   9.500  10.189   7.686  0.0387  1.2531 -2.8041
 4026SOL    HW223803   9.626  10.152   7.610  2.3166 -1.2075  1.7951
 4027SOL     OW23804   5.129  11.079   2.420  0.0967  0.8308  0.0166
 4027SOL    HW123805   5.181  11.027   2.359 -2.3132 -0.9892 -0.6325
 4027SOL    HW223806   5.145  11.039   2.505 -2.5706 -1.9399 -0.6123
 4028SOL     OW23807   8.213   4.147  10.375 -0.4119 -0.0069  0.1139
 4028SOL    HW123808   8.201   4.208  10.448  0.9598 -0.9261  1.1784
 4028SOL    HW223809   8.161   4.070  10.399  1.0888 -0.8421  0.8336
 4029SOL     OW23810   4.923   6.827   6.109  0.1758  0.0621  0.0052
 4029SOL    HW123811   5.002   6.881   6.117  0.2536 -0.2264  1.2794
 4029SOL    HW223812   4.906   6.825   6.015  1.8539 -0.1128 -0.3360
 4030SOL     OW23813   3.760   3.477   8.012 -0.3658 -0.4474 -0.2412
 4030SOL    HW123814   3.690   3.525   7.967  0.1824  1.5610  0.9607
 4030SOL    HW223815   3.720   3.444   8.092 -0.3939 -0.8911 -0.4321
 4031SOL     OW23816   4.230   7.929   6.560  0.2717 -0.6788  0.0517
 4031SOL    HW123817   4.319   7.959   6.540 -0.1953  1.5795  1.0798
 4031SOL    HW223818   4.243   7.849   6.611  1.6657 -0.9852 -0.7305
 4032SOL     OW23819   4.190   0.289   4.602 -0.3109  0.2958 -0.4156
 4032SOL    HW123820   4.127   0.326   4.539 -0.8680  0.7662  0.4073
 4032SOL    HW223821   4.137   0.235   4.660  0.4110 -1.3257 -1.2109
 4033SOL     OW23822  10.596   2.894   1.961 -0.2690  0.8270 -0.4649
 4033SOL    HW123823  10.528   2.863   1.902 -0.0302  0.6228 -0.6405
 4033SOL    HW223824  10.551   2.949   2.025 -0.6867  0.2198 -0.2318
 4034SOL     OW23825   9.777  10.409  11.456  0.9502  0.2064 -0.1686
 4034SOL    HW123826   9.745  10.323  11.429  0.0309 -0.3596  2.4081
 4034SOL    HW223827   9.705  10.469  11.435  0.4599 -0.1425  0.4486
 4035SOL     OW23828  10.791  11.197   5.136 -0.7873  0.3567 -0.4973
 4035SOL    HW123829  10.799  11.270   5.074  2.9123 -0.0168 -0.6617
 4035SOL    HW223830  10.732  11.136   5.092 -1.7151  1.9683 -1.6260
 4036SOL     OW23831   1.864   1.761   1.645  0.0466 -0.1157 -0.0931
 4036SOL    HW123832   1.898   1.762   1.734 -0.1239 -0.5068 -0.0213
 4036SOL    HW223833   1.841   1.852   1.627  2.5828  0.4811 -0.7309
 4037SOL     OW23834   1.126   3.250   1.786 -0.5121 -0.4005 -0.1065
 4037SOL    HW123835   1.215   3.217   1.772  0.2126  0.7904  1.3873
 4037SOL    HW223836   1.121   3.327   1.730 -0.5309 -0.3544 -0.0413
 4038SOL     OW23837   5.051   3.260   9.149  0.3759  0.7191  0.0251
 4038SOL    HW123838   5.140   3.279   9.179  0.4200  1.0492 -0.3042
 4038SOL    HW223839   5.054   3.170   9.118  0.2168  0.2014  1.4353
 4039SOL     OW23840   8.326   0.257   6.713  0.2939  0.1715 -0.0131
 4039SOL    HW123841   8.378   0.208   6.649  0.3556  0.8718 -0.5135
 4039SOL    HW223842   8.238   0.259   6.675  0.0526 -0.4324  0.5065
 4040SOL     OW23843   5.684   9.872   0.797  0.3629 -0.1035 -0.0939
 4040SOL    HW123844   5.724   9.791   0.829 -0.7135 -1.5174 -2.0475
 4040SOL    HW223845   5.621   9.896   0.865 -0.0135 -1.5143  0.1028
 4041SOL     OW23846   0.395   0.180   2.581 -0.5182 -0.2378  0.2563
 4041SOL    HW123847   0.427   0.225   2.659 -2.1307  1.9793 -0.2482
 4041SOL    HW223848   0.364   0.095   2.612  1.2045 -0.4322  1.5504
 4042SOL     OW23849   4.324   0.089  10.633  0.3017  0.6544  0.3290
 4042SOL    HW123850   4.347   0.181  10.647  0.3833  0.3665  2.4749
 4042SOL    HW223851   4.408   0.043  10.629  0.2799  0.6971 -1.2694
 4043SOL     OW23852   7.418   1.574   4.869  0.1645  0.1982 -0.4598
 4043SOL    HW123853   7.501   1.526   4.870  1.0339  1.6056  1.7559
 4043SOL    HW223854   7.427   1.636   4.797  0.6538 -0.2387 -0.7860
 4044SOL     OW23855   3.096  10.171   5.593  0.1433 -0.1413  1.0980
 4044SOL    HW123856   3.181  10.171   5.549 -0.8788  1.0173 -1.0650
 4044SOL    HW223857   3.109  10.223   5.672  1.3018  0.5221  0.4877
 4045SOL     OW23858   6.020  11.235   7.562 -0.3473 -0.3356  0.5046
 4045SOL    HW123859   6.066  11.317   7.583  2.0759 -1.4296 -0.1109
 4045SOL    HW223860   5.931  11.262   7.541  0.1758  2.0562  1.0354
 4046SOL     OW23861   6.527   7.932   9.337  0.5644  0.2233  0.2976
 4046SOL    HW123862   6.593   7.920   9.268 -0.1510  1.0180 -0.5563
 4046SOL    HW223863   6.445   7.945   9.289 -0.1362 -0.2248  1.3338
 4047SOL     OW23864   1.616   3.710   6.091  0.2069 -0.7117  0.1353
 4047SOL    HW123865   1.652   3.636   6.140  0.9522 -1.0191 -0.8581
 4047SOL    HW223866   1.529   3.723   6.130 -0.0819 -2.3279  0.1203
 4048SOL     OW23867   4.678  10.223   2.852  0.2176 -0.3299  0.1975
 4048SOL    HW123868   4.654  10.186   2.937  0.4204 -0.4118  0.2194
 4048SOL    HW223869   4.730  10.155   2.810 -0.7092 -0.6798 -0.3985
 4049SOL     OW23870   2.403   7.101   2.967  0.7989  0.0877  0.1348
 4049SOL    HW123871   2.340   7.069   2.903  1.7062 -3.0945  0.6610
 4049SOL    HW223872   2.465   7.153   2.916 -0.5177  0.7432 -0.8748
 4050SOL     OW23873   5.534   2.612  10.350 -0.5929  0.9317 -0.5865
 4050SOL    HW123874   5.445   2.631  10.381 -1.0571 -0.6239 -0.8854
 4050SOL    HW223875   5.548   2.520  10.372  1.0996  1.2478 -0.2131
 4051SOL     OW23876  11.632   4.189  11.572  0.0101  0.2989 -0.4712
 4051SOL    HW123877  11.602   4.214  11.484  1.8540 -1.3076 -1.6723
 4051SOL    HW223878  11.707   4.246  11.589 -0.8251  1.1477  0.4390
 4052SOL     OW23879   8.414   8.431   2.307  0.5759 -0.0473 -0.0871
 4052SOL    HW123880   8.508   8.421   2.322  0.3999  0.5770  1.7755
 4052SOL    HW223881   8.407   8.472   2.221  1.9478 -1.0596 -0.7100
 4053SOL     OW23882   8.496   8.643   7.498  0.5353 -0.5657 -0.3329
 4053SOL    HW123883   8.552   8.721   7.505  0.3125 -0.3794 -0.5935
 4053SOL    HW223884   8.422   8.663   7.556  1.0696 -1.1057  0.5533
 4054SOL     OW23885   3.108  10.032   3.860  0.4786 -0.6263  0.5647
 4054SOL    HW123886   3.196  10.068   3.872 -0.1748  1.8590 -1.2590
 4054SOL    HW223887   3.067  10.041   3.946  1.3660  0.1162  0.9274
 4055SOL     OW23888   7.795   0.354   0.002 -0.0256  0.7154  0.0755
 4055SOL    HW123889   7.887   0.376   0.017  0.5873 -0.9806 -0.9632
 4055SOL    HW223890   7.786   0.263   0.031 -1.3639  0.8180  0.0591
 4056SOL     OW23891   4.317   4.135   9.833 -0.4662 -0.3782  0.2384
 4056SOL    HW123892   4.338   4.072   9.902  1.8811  0.2074  0.1334
 4056SOL    HW223893   4.295   4.081   9.757 -1.8724 -1.0215  1.0576
 4057SOL     OW23894   3.641   1.839  10.885  0.1450 -0.7033 -0.1048
 4057SOL    HW123895   3.649   1.845  10.789 -0.0749 -3.5366 -0.3722
 4057SOL    HW223896   3.731   1.851  10.916  0.3364 -0.4900 -0.7073
 4058SOL     OW23897   5.905   3.714   9.070 -0.0332  0.0203  0.3184
 4058SOL    HW123898   5.823   3.761   9.053 -0.0850 -0.1529  0.0744
 4058SOL    HW223899   5.888   3.664   9.149 -0.7906 -1.4316 -0.7164
 4059SOL     OW23900  10.173   9.028   4.070 -0.5223 -0.2257 -0.1222
 4059SOL    HW123901  10.116   9.104   4.075  0.7757  0.7871 -0.1296
 4059SOL    HW223902  10.148   8.974   4.146 -0.2119  1.1280  0.9749
 4060SOL     OW23903   9.393   9.467   8.848  0.2422 -0.1695 -0.0820
 4060SOL    HW123904   9.367   9.375   8.854  0.8669 -0.3286  0.2160
 4060SOL    HW223905   9.458   9.478   8.917  0.4188  0.4141 -0.3371
 4061SOL     OW23906   8.329   9.339   9.369 -0.5157 -0.2223 -0.4083
 4061SOL    HW123907   8.268   9.266   9.360 -1.4964  0.3200  1.4259
 4061SOL    HW223908   8.329   9.360   9.462  0.3336  1.6220 -0.7717
 4062SOL     OW23909  11.606  11.935   3.676  0.3774 -0.0245 -0.6954
 4062SOL    HW123910  11.575  11.863   3.730 -0.8786 -0.7093 -2.2451
 4062SOL    HW223911  11.528  11.987   3.657  0.7301  0.0665 -2.0232
 4063SOL     OW23912   9.067   3.592   4.007 -0.2483 -0.3670  0.3617
 4063SOL    HW123913   9.071   3.595   4.102 -1.9530 -0.5551  0.4685
 4063SOL    HW223914   9.122   3.517   3.983 -0.0498 -0.4989  1.2109
 4064SOL     OW23915   9.715   1.539  10.005 -0.1122 -0.1328 -0.3808
 4064SOL    HW123916   9.691   1.622   9.964  0.2172 -1.3864 -3.3437
 4064SOL    HW223917   9.632   1.501  10.032 -0.3778  0.5982 -0.1466
 4065SOL     OW23918  10.631   5.528  10.877  0.6008 -0.2511 -0.8439
 4065SOL    HW123919  10.604   5.537  10.968  1.2009  2.1757 -0.8479
 4065SOL    HW223920  10.709   5.472  10.881 -0.7817 -2.2702 -0.2109
 4066SOL     OW23921   2.525   8.122  10.388 -0.1967 -0.1854  0.0147
 4066SOL    HW123922   2.501   8.154  10.475  0.8296  0.2084  0.1614
 4066SOL    HW223923   2.457   8.157  10.330  0.8306  2.2996  0.1691
 4067SOL     OW23924   1.403   4.678   7.966  0.6451 -0.8655  0.3349
 4067SOL    HW123925   1.475   4.680   8.029  0.3836 -2.1237  0.7125
 4067SOL    HW223926   1.326   4.655   8.019  0.3189 -1.3916 -0.3461
 4068SOL     OW23927   7.724   5.788  11.921  0.7195 -0.4319 -0.5442
 4068SOL    HW123928   7.702   5.813  12.011 -1.3686  0.0817 -1.1373
 4068SOL    HW223929   7.819   5.789  11.919  0.8254 -0.5668  1.6845
 4069SOL     OW23930   2.694   6.806   0.305  0.2600 -0.3067 -0.1648
 4069SOL    HW123931   2.619   6.781   0.359  1.6785 -0.0509  2.0500
 4069SOL    HW223932   2.764   6.746   0.331  1.5767  1.1446 -0.1955
 4070SOL     OW23933   8.624   2.950   5.833  0.2501  0.0969 -0.3905
 4070SOL    HW123934   8.618   2.877   5.771  1.4739  0.0305 -0.4431
 4070SOL    HW223935   8.534   2.981   5.842 -0.2565 -1.2704 -0.5455
 4071SOL     OW23936   5.243   6.421  11.857 -0.6395  0.4680  0.2863
 4071SOL    HW123937   5.309   6.382  11.913 -1.4027  0.1208  0.9563
 4071SOL    HW223938   5.244   6.367  11.778 -0.7755 -0.1067  0.6731
 4072SOL     OW23939   1.300   5.369   1.343  0.0869 -0.3273  0.3575
 4072SOL    HW123940   1.269   5.456   1.319  0.1502  0.0023  1.4240
 4072SOL    HW223941   1.394   5.381   1.361  0.2319 -0.7450 -0.0959
 4073SOL     OW23942   5.365   5.904   0.650 -0.2523 -0.6111 -0.1928
 4073SOL    HW123943   5.321   5.858   0.721 -2.3643 -0.7406 -1.4637
 4073SOL    HW223944   5.355   5.996   0.671 -1.8570 -0.6131 -0.7884
 4074SOL     OW23945   5.628   6.169   0.229 -0.6542 -0.4581 -0.0289
 4074SOL    HW123946   5.649   6.077   0.245 -1.7000 -0.6243  0.4930
 4074SOL    HW223947   5.555   6.167   0.167 -1.4701 -0.0355  0.8894
 4075SOL     OW23948   7.174  10.424  10.108  0.2406  0.0687 -0.3524
 4075SOL    HW123949   7.202  10.472  10.186 -0.3103 -0.8713  0.4535
 4075SOL    HW223950   7.125  10.488  10.056  1.9421  1.1322 -0.7144
 4076SOL     OW23951  11.884  11.550   4.739  0.2425 -0.0214  0.2508
 4076SOL    HW123952  11.944  11.520   4.671 -1.7955 -0.0235 -1.6841
 4076SOL    HW223953  11.896  11.489   4.811  0.2939 -1.9993 -1.3371
 4077SOL     OW23954   6.879   1.122   6.194  0.1428  0.3118  0.3523
 4077SOL    HW123955   6.853   1.191   6.255  0.8179  0.6633  0.2563
 4077SOL    HW223956   6.954   1.159   6.146 -0.2329 -0.0431 -0.5330
 4078SOL     OW23957   5.436   7.474   0.946  0.0072  0.2245  0.5385
 4078SOL    HW123958   5.344   7.478   0.919 -0.1159 -0.1656  0.8970
 4078SOL    HW223959   5.480   7.429   0.874 -0.2205 -0.2976  0.7232
 4079SOL     OW23960   8.909   5.109   7.562  0.0453  0.9726  0.4371
 4079SOL    HW123961   8.972   5.042   7.587 -0.3717  1.0392  1.7622
 4079SOL    HW223962   8.884   5.088   7.472 -1.9068 -2.1370  1.5540
 4080SOL     OW23963   4.795   0.851   4.537 -0.2829  0.1495  0.0847
 4080SOL    HW123964   4.710   0.810   4.554 -0.7146  0.7887 -0.4852
 4080SOL    HW223965   4.777   0.945   4.538  0.2197  0.2720 -0.9996
 4081SOL     OW23966   3.427  11.939   7.563  0.1154 -0.1942  0.1439
 4081SOL    HW123967   3.433  11.852   7.523 -0.5451 -1.1478  1.9747
 4081SOL    HW223968   3.351  11.980   7.521 -2.2730 -2.2269  2.1425
 4082SOL     OW23969   6.838  11.550   4.879 -0.0224 -0.5710 -0.3894
 4082SOL    HW123970   6.836  11.557   4.974  0.4412  1.7252 -0.4905
 4082SOL    HW223971   6.772  11.613   4.849 -0.7474 -1.8407 -1.6014
 4083SOL     OW23972   8.061   7.791   3.454 -0.6400 -0.0082  0.4293
 4083SOL    HW123973   8.156   7.793   3.444 -0.5983  1.4571  0.9032
 4083SOL    HW223974   8.042   7.859   3.518 -2.0176 -0.2798  0.3406
 4084SOL     OW23975   1.559   3.471   1.848  0.2698 -0.2060  0.0974
 4084SOL    HW123976   1.479   3.515   1.819  0.2535 -0.3477 -0.0748
 4084SOL    HW223977   1.612   3.462   1.769  1.7256  2.4616  0.6394
 4085SOL     OW23978   7.183   0.595   6.212 -0.0536  0.0169  0.4235
 4085SOL    HW123979   7.253   0.658   6.229  0.9680 -0.9731 -0.0163
 4085SOL    HW223980   7.188   0.577   6.119 -1.4944  0.5993  0.2055
 4086SOL     OW23981   0.681   3.615   6.013  0.4059 -0.7574 -0.2022
 4086SOL    HW123982   0.755   3.587   5.958  1.0615  0.3923  0.0432
 4086SOL    HW223983   0.688   3.711   6.013 -0.0932 -0.7088  1.1918
 4087SOL     OW23984   9.861   2.058   8.031 -0.0958  0.5420  0.2199
 4087SOL    HW123985   9.927   2.113   7.990  1.3704 -0.2101  1.4493
 4087SOL    HW223986   9.865   2.081   8.124 -2.7098  1.5991  0.1507
 4088SOL     OW23987   5.823  10.411  11.428 -0.4187  0.0935 -0.5190
 4088SOL    HW123988   5.732  10.433  11.450 -0.3084 -0.8212  1.0822
 4088SOL    HW223989   5.818  10.370  11.342 -1.1129  2.5502 -1.7377
 4089SOL     OW23990   2.155   1.619   1.063 -0.6702 -0.2527  0.4387
 4089SOL    HW123991   2.112   1.535   1.082 -1.3546 -0.0256 -0.0655
 4089SOL    HW223992   2.248   1.597   1.058 -0.7898 -0.8912  0.8151
 4090SOL     OW23993   1.958   9.146   3.796 -0.0588 -0.2069 -0.0949
 4090SOL    HW123994   1.978   9.240   3.798 -1.9618  0.2383  0.1913
 4090SOL    HW223995   2.036   9.104   3.832  0.8482  1.2552 -0.2738
 4091SOL     OW23996   1.315   4.793  10.843 -0.0984 -0.1702 -0.3309
 4091SOL    HW123997   1.232   4.818  10.884  0.0910 -1.6895  1.0938
 4091SOL    HW223998   1.382   4.816  10.908  0.7470  1.9058 -1.8433
 4092SOL     OW23999  10.099   2.745   9.788  0.0743 -0.3083  0.0213
 4092SOL    HW124000  10.097   2.659   9.746  1.4096  0.2889 -1.4184
 4092SOL    HW224001  10.168   2.792   9.741  0.1327  1.1839  1.4978
 4093SOL     OW24002   8.545   8.695   9.539 -0.2074  0.4557 -0.6353
 4093SOL    HW124003   8.607   8.665   9.606 -1.2319  0.1937  0.2310
 4093SOL    HW224004   8.599   8.718   9.464  0.8423 -0.9054 -0.3323
 4094SOL     OW24005   9.442   3.187   8.577  0.3201 -0.2916  0.6033
 4094SOL    HW124006   9.443   3.256   8.511  0.3523  0.3113  1.2205
 4094SOL    HW224007   9.525   3.141   8.565 -0.4042 -1.3102 -0.9031
 4095SOL     OW24008   6.021   8.309   3.055 -0.5646  0.2552  0.5640
 4095SOL    HW124009   6.048   8.309   2.963 -1.8362 -1.7480  0.1029
 4095SOL    HW224010   5.932   8.343   3.053 -0.7831 -0.2746  0.9478
 4096SOL     OW24011   1.470   5.991   7.094  0.7317  0.3041  0.0739
 4096SOL    HW124012   1.475   6.073   7.145  0.3930  1.7951 -2.1588
 4096SOL    HW224013   1.484   6.018   7.004 -0.2460 -2.0187 -0.8454
 4097SOL     OW24014   7.093   1.789   5.803  0.8762 -0.2259 -0.2395
 4097SOL    HW124015   7.088   1.853   5.731 -0.3630  0.8896  0.7824
 4097SOL    HW224016   7.005   1.751   5.807  0.5734  0.5622  1.3915
 4098SOL     OW24017  10.802   1.476  10.145  0.7234 -0.2554 -0.1199
 4098SOL    HW124018  10.834   1.527  10.220  0.5676 -0.4779  0.1012
 4098SOL    HW224019  10.877   1.425  10.116  0.4921 -1.0395  0.6154
 4099SOL     OW24020   2.876   9.563   8.402 -0.1225  0.6688 -0.0884
 4099SOL    HW124021   2.889   9.656   8.419  1.6309  0.8159 -1.8766
 4099SOL    HW224022   2.959   9.533   8.365 -0.7786 -1.5243  0.0448
 4100SOL     OW24023   2.446   4.343   3.848 -0.3100 -0.0005  0.2511
 4100SOL    HW124024   2.400   4.372   3.769 -1.1411  1.5374  1.2417
 4100SOL    HW224025   2.384   4.358   3.919 -0.0714 -2.5587  1.1085
 4101SOL     OW24026   7.519   7.240   2.644  0.0612 -0.1418  0.0624
 4101SOL    HW124027   7.546   7.320   2.598 -0.8910 -0.7043 -1.5341
 4101SOL    HW224028   7.573   7.171   2.605  0.1523 -0.4511  0.7186
 4102SOL     OW24029   3.185   4.835   7.523  0.1600  0.1969  0.1279
 4102SOL    HW124030   3.216   4.749   7.495 -0.4314 -0.4671  1.4276
 4102SOL    HW224031   3.212   4.843   7.614 -1.3921  0.5840  0.5949
 4103SOL     OW24032   8.045   2.915   7.495 -0.2777  0.2494 -0.1358
 4103SOL    HW124033   8.053   2.968   7.574 -0.6288  0.0900  0.0068
 4103SOL    HW224034   8.115   2.851   7.502  1.0288  1.5255 -0.9664
 4104SOL     OW24035   5.082  11.935   6.761  0.1053 -0.1084 -0.2679
 4104SOL    HW124036   4.995  11.909   6.794  0.7913 -0.2372  1.5629
 4104SOL    HW224037   5.103  12.014   6.811  0.9959 -0.0028 -0.7989
 4105SOL     OW24038  10.491   9.311   8.539 -0.3273  0.5308  0.5068
 4105SOL    HW124039  10.584   9.329   8.532 -0.2326 -0.1855 -0.3642
 4105SOL    HW224040  10.449   9.379   8.485 -0.3021  0.8160  0.8500
 4106SOL     OW24041   2.563  10.124   0.193  0.2852 -0.4161 -0.1752
 4106SOL    HW124042   2.548  10.034   0.162  1.8702 -0.7650 -0.0197
 4106SOL    HW224043   2.546  10.119   0.287 -1.9089  0.0247 -0.4961
 4107SOL     OW24044   8.636   7.641   3.100 -0.1310  0.0371 -0.3385
 4107SOL    HW124045   8.563   7.586   3.127 -0.2638 -0.1453 -1.0382
 4107SOL    HW224046   8.617   7.727   3.139 -0.7723  0.0140 -0.5771
 4108SOL     OW24047   7.186  10.721   2.964 -0.3621 -0.2436  0.2018
 4108SOL    HW124048   7.126  10.789   2.995  0.4251  0.4678  0.2373
 4108SOL    HW224049   7.133  10.643   2.955 -0.7871 -0.2760  2.5841
 4109SOL     OW24050   7.744   1.897   0.083 -0.0683 -0.1667 -0.2447
 4109SOL    HW124051   7.721   1.813   0.124 -2.9685 -0.9108 -2.9929
 4109SOL    HW224052   7.829   1.880   0.042  0.7179 -0.7937  1.5063
 4110SOL     OW24053   9.828   6.085   2.855  0.1801 -0.4370  0.5321
 4110SOL    HW124054   9.838   5.992   2.835  0.7410 -0.4798  0.9884
 4110SOL    HW224055   9.912   6.124   2.830  0.1105 -0.1325  0.7689
 4111SOL     OW24056   5.708   6.826  11.483  0.0777  0.1854 -0.6532
 4111SOL    HW124057   5.710   6.894  11.550  1.8448 -1.0826  0.6849
 4111SOL    HW224058   5.776   6.852  11.421 -0.0573  0.2612 -0.7673
 4112SOL     OW24059  10.545  11.832   0.956  0.7771  0.1364  0.3712
 4112SOL    HW124060  10.515  11.743   0.973  2.6442 -0.3306  1.5674
 4112SOL    HW224061  10.488  11.887   1.010 -1.7426 -0.0254 -1.9014
 4113SOL     OW24062   1.723   8.106   7.651 -0.2173  0.5098 -0.3244
 4113SOL    HW124063   1.706   8.022   7.610  1.4508 -0.7016  1.2556
 4113SOL    HW224064   1.675   8.103   7.734  1.5164  0.1221  0.7391
 4114SOL     OW24065   9.240   5.202   7.514 -0.3219  0.1565 -0.8188
 4114SOL    HW124066   9.334   5.217   7.506 -0.3389  0.2551 -0.8397
 4114SOL    HW224067   9.220   5.219   7.606 -0.4360  0.7887 -0.9572
 4115SOL     OW24068   7.480   7.104   3.711  0.1158  0.0132  0.7391
 4115SOL    HW124069   7.491   7.185   3.662  1.0072 -1.4640 -1.6817
 4115SOL    HW224070   7.405   7.121   3.768  0.7094  2.7396  0.8403
 4116SOL     OW24071   5.484  11.131   8.402 -0.6376 -0.6050 -0.1804
 4116SOL    HW124072   5.455  11.216   8.371 -0.2933 -0.1013  0.8469
 4116SOL    HW224073   5.578  11.142   8.418 -0.5160 -1.2854 -0.3783
 4117SOL     OW24074  10.022   8.618   9.678  0.1234  0.1730  0.2256
 4117SOL    HW124075  10.011   8.712   9.661  0.0715 -0.1121 -1.4018
 4117SOL    HW224076  10.068   8.585   9.602  0.6162 -1.0536  1.0210
 4118SOL     OW24077   0.549   0.171   9.339 -0.4860 -0.5332 -0.4502
 4118SOL    HW124078   0.609   0.149   9.410 -2.4377 -0.6817  1.2268
 4118SOL    HW224079   0.551   0.267   9.335 -0.6061 -0.5092  0.0200
 4119SOL     OW24080   3.746   8.321   7.371 -0.0008  0.2453  0.3183
 4119SOL    HW124081   3.653   8.342   7.379 -0.6756 -1.7886 -1.1857
 4119SOL    HW224082   3.786   8.358   7.450 -1.8199  2.3822  0.3204
 4120SOL     OW24083   8.477   3.757   7.260  0.2485 -0.5138 -0.8256
 4120SOL    HW124084   8.531   3.796   7.329  0.5275  0.4474 -1.5859
 4120SOL    HW224085   8.524   3.677   7.236  0.6409 -0.3630 -0.5723
 4121SOL     OW24086   8.752  11.119   0.532 -0.2473 -0.1347  0.2725
 4121SOL    HW124087   8.724  11.050   0.592 -2.3258 -0.9695 -1.5126
 4121SOL    HW224088   8.698  11.106   0.454  1.6264  1.4986 -1.4135
 4122SOL     OW24089   3.422  11.668   7.433 -0.9430 -1.0942  0.0067
 4122SOL    HW124090   3.500  11.629   7.472  0.9824  0.6017 -1.8871
 4122SOL    HW224091   3.429  11.647   7.340 -3.7558 -2.4087 -0.0028
 4123SOL     OW24092   4.009   0.126   1.019 -0.4131  0.3810 -0.2416
 4123SOL    HW124093   4.023   0.078   0.937  2.2957  0.9365 -0.2196
 4123SOL    HW224094   4.031   0.062   1.087  0.9902  0.9338 -0.1369
 4124SOL     OW24095   1.208   0.189   5.464  0.3175 -0.1351 -0.1599
 4124SOL    HW124096   1.154   0.166   5.539  2.5584 -0.4483  1.4596
 4124SOL    HW224097   1.285   0.232   5.502  1.8793 -0.9446 -2.1991
 4125SOL     OW24098   4.594   3.072   1.065 -0.1402 -0.2862 -0.1286
 4125SOL    HW124099   4.500   3.071   1.086 -0.3479  0.3082 -0.9948
 4125SOL    HW224100   4.601   3.022   0.984  0.4561 -1.2506  0.4866
 4126SOL     OW24101  10.707   7.608   5.560  0.0251  0.0747  0.8676
 4126SOL    HW124102  10.664   7.625   5.644  0.8483 -0.3708  1.3948
 4126SOL    HW224103  10.798   7.633   5.575  0.0685  0.4774 -0.0589
 4127SOL     OW24104   6.237   6.243   9.454  0.5020  0.7576 -0.6117
 4127SOL    HW124105   6.296   6.310   9.418 -0.5146  1.8148 -0.3496
 4127SOL    HW224106   6.268   6.229   9.544 -0.1628  1.9497 -0.1857
 4128SOL     OW24107   4.243   6.725  10.106 -0.6455 -0.5060  0.0432
 4128SOL    HW124108   4.240   6.640  10.063 -1.7800 -0.6090  0.3123
 4128SOL    HW224109   4.201   6.711  10.190 -0.3366  0.1976  0.3226
 4129SOL     OW24110   2.404   2.740   5.522 -0.1326  0.7306  0.2429
 4129SOL    HW124111   2.445   2.698   5.597  1.5636  1.7753 -0.0657
 4129SOL    HW224112   2.388   2.668   5.461 -0.3483  0.0647  1.0555
 4130SOL     OW24113  10.963   2.127  11.946 -0.3474 -0.5743  0.2061
 4130SOL    HW124114  10.962   2.119  12.041 -0.6248  2.8576  0.6418
 4130SOL    HW224115  11.032   2.191  11.929 -1.9219  0.7433 -1.6241
 4131SOL     OW24116   7.735   7.468  11.890 -0.0674  0.6189 -0.1261
 4131SOL    HW124117   7.709   7.524  11.963  1.0287  2.8058 -1.3131
 4131SOL    HW224118   7.692   7.384  11.907 -1.2185  1.5913  2.1011
 4132SOL     OW24119   9.813   9.973   6.140  0.2942 -0.1636 -0.1565
 4132SOL    HW124120   9.852   9.980   6.227  0.8866 -0.1891 -0.4102
 4132SOL    HW224121   9.884   9.937   6.085 -0.6397 -2.0330 -0.2416
 4133SOL     OW24122   7.491  11.769   0.696 -0.6781  0.0545  0.2376
 4133SOL    HW124123   7.415  11.732   0.653 -1.4219  0.7665  0.8859
 4133SOL    HW224124   7.534  11.695   0.739  0.2998 -0.7278 -1.9763
 4134SOL     OW24125   0.205   4.251   0.598  0.1080 -0.4469  0.3170
 4134SOL    HW124126   0.163   4.225   0.516  0.7312  0.0909 -0.1789
 4134SOL    HW224127   0.132   4.256   0.661 -0.3665 -0.9198 -0.1774
 4135SOL     OW24128   6.822   3.708   2.884 -0.2733 -0.2974  0.4240
 4135SOL    HW124129   6.894   3.761   2.918 -0.8267 -0.0645  1.2591
 4135SOL    HW224130   6.759   3.773   2.850  0.2318 -0.5207 -0.9931
 4136SOL     OW24131   9.227   0.418   5.290 -0.4556  0.5673 -0.2970
 4136SOL    HW124132   9.223   0.447   5.381  0.5092  0.5950 -0.2440
 4136SOL    HW224133   9.307   0.365   5.286 -2.4373 -2.7144 -0.2224
 4137SOL     OW24134   2.702   6.782   7.819  0.2546 -0.1903 -0.8116
 4137SOL    HW124135   2.780   6.830   7.844  0.0600  1.6963 -3.4443
 4137SOL    HW224136   2.631   6.825   7.867  0.5721 -0.7744  0.2220
 4138SOL     OW24137   6.456   0.574   8.203  0.0894 -0.3286 -0.3196
 4138SOL    HW124138   6.543   0.612   8.216 -0.8297  1.1125  2.3892
 4138SOL    HW224139   6.466   0.482   8.225  1.3514 -0.7183 -2.2814
 4139SOL     OW24140   4.980   1.387  10.815  0.5386 -0.3289  0.2433
 4139SOL    HW124141   4.954   1.467  10.861  2.4325 -0.2379  1.2423
 4139SOL    HW224142   5.006   1.417  10.728 -0.4538 -0.1312 -0.0039
 4140SOL     OW24143   1.927   9.611   4.475  0.5036  0.1348  0.2694
 4140SOL    HW124144   1.915   9.599   4.569  0.7079 -0.0336  0.2769
 4140SOL    HW224145   1.852   9.568   4.435  0.1259  0.6958  0.3753
 4141SOL     OW24146   4.538   5.529   9.415 -0.6434 -0.6097  0.0960
 4141SOL    HW124147   4.536   5.531   9.320 -1.4777 -1.1926  0.0922
 4141SOL    HW224148   4.447   5.526   9.442 -0.4110 -0.8141  0.9051
 4142SOL     OW24149   8.424   6.143   1.025 -0.0571  0.0760 -0.1491
 4142SOL    HW124150   8.351   6.182   0.976  1.8526  3.3655 -0.7149
 4142SOL    HW224151   8.434   6.200   1.101  1.4063 -0.7571  0.3236
 4143SOL     OW24152   6.457   6.511   1.997 -0.2858 -0.2810 -0.1707
 4143SOL    HW124153   6.434   6.427   2.036  0.6982 -0.4169  0.1357
 4143SOL    HW224154   6.463   6.494   1.903  0.4551 -0.6938 -0.0570
 4144SOL     OW24155   1.926   9.292   2.757 -0.2373  0.7152 -0.1663
 4144SOL    HW124156   1.896   9.201   2.757  0.0431  0.6183 -0.6766
 4144SOL    HW224157   1.965   9.304   2.844 -0.1768  0.3104 -0.1344
 4145SOL     OW24158   5.645  10.864   2.143  0.2386  0.1152 -0.4423
 4145SOL    HW124159   5.627  10.779   2.183  2.9936 -0.8146 -0.9362
 4145SOL    HW224160   5.700  10.843   2.068  1.5474  2.3565 -0.1903
 4146SOL     OW24161   8.726  11.214  11.778  0.6579 -0.1352 -0.0324
 4146SOL    HW124162   8.717  11.142  11.715 -1.0609 -1.1556  1.3069
 4146SOL    HW224163   8.650  11.269  11.763 -0.3640 -0.9585  1.7848
 4147SOL     OW24164   0.066   1.493   5.293 -0.0764 -0.0279  0.0493
 4147SOL    HW124165  -0.003   1.558   5.295 -2.5922 -2.3294 -2.9315
 4147SOL    HW224166   0.045   1.433   5.365 -1.3086 -0.7305 -0.8583
 4148SOL     OW24167   8.143   5.127   8.984 -0.2917  0.0926 -0.0660
 4148SOL    HW124168   8.107   5.122   8.896 -1.1096  0.3195  0.2405
 4148SOL    HW224169   8.235   5.103   8.975 -0.4084 -0.0326 -0.9511
 4149SOL     OW24170   5.778   9.976   8.347  0.8402 -0.7486  1.0256
 4149SOL    HW124171   5.872   9.970   8.364  1.2278  0.5255 -0.4616
 4149SOL    HW224172   5.771   9.993   8.253 -0.7718  0.9121  1.3791
 4150SOL     OW24173   9.026   8.442   7.671  0.4156  0.4758  0.0982
 4150SOL    HW124174   9.037   8.352   7.642  0.7769  0.8898 -1.1010
 4150SOL    HW224175   9.094   8.491   7.625  0.9196  1.2050  1.5562
 4151SOL     OW24176  11.628   8.466  10.822 -0.0213  0.9623  0.5140
 4151SOL    HW124177  11.602   8.399  10.885 -0.5856  1.6473  1.0220
 4151SOL    HW224178  11.705   8.507  10.861  1.1483 -0.2711 -0.4306
 4152SOL     OW24179   9.329   3.034   0.436  0.1297  0.2457  0.5173
 4152SOL    HW124180   9.343   3.050   0.342  0.6526 -0.8939  0.3854
 4152SOL    HW224181   9.234   3.030   0.446  0.0639  0.5814  0.0826
 4153SOL     OW24182   4.231  10.967   6.142  0.1428  0.1005  0.0584
 4153SOL    HW124183   4.199  10.992   6.055  0.9122 -2.0116 -0.9296
 4153SOL    HW224184   4.320  11.002   6.146 -0.0136  0.4865  0.1267
 4154SOL     OW24185   4.164   3.282   8.468 -0.2834  0.4143  0.4095
 4154SOL    HW124186   4.096   3.326   8.518  0.2672 -0.1810  1.7449
 4154SOL    HW224187   4.245   3.328   8.492  0.3023 -1.2091  1.8140
 4155SOL     OW24188  11.363  10.040   3.069  0.1252 -0.2082  0.5142
 4155SOL    HW124189  11.438  10.044   3.010  0.1952  0.5748  0.6456
 4155SOL    HW224190  11.401  10.032   3.156  0.0937  0.8513  0.6439
 4156SOL     OW24191   9.990   2.928   5.311  0.3500 -0.4356 -0.5717
 4156SOL    HW124192   9.895   2.928   5.300  0.2462 -1.8336  0.1176
 4156SOL    HW224193  10.006   2.993   5.379 -0.4863 -2.4248  1.6697
 4157SOL     OW24194   5.419  10.095   8.021 -0.0059  0.6179  0.4018
 4157SOL    HW124195   5.435  10.050   7.939  0.2726  0.3038  0.6255
 4157SOL    HW224196   5.397  10.185   7.996 -0.0920  0.4809 -0.0206
 4158SOL     OW24197   4.149   9.355   3.501  0.2712 -0.3006 -0.1057
 4158SOL    HW124198   4.087   9.353   3.428 -1.0246  0.7786  0.9264
 4158SOL    HW224199   4.212   9.422   3.477 -1.3124  1.5419  0.6033
 4159SOL     OW24200   8.675   9.340  10.537  0.6254 -0.3502  0.2397
 4159SOL    HW124201   8.596   9.383  10.503 -0.1139 -3.1031 -1.8919
 4159SOL    HW224202   8.728   9.412  10.570 -1.6841  1.8880 -0.5372
 4160SOL     OW24203   9.389   9.419   9.594  0.0618  0.0281  0.0415
 4160SOL    HW124204   9.428   9.493   9.547 -1.5864  0.6613 -0.4168
 4160SOL    HW224205   9.300   9.447   9.613 -0.0102 -1.1122  1.6005
 4161SOL     OW24206   0.046   3.369   4.057 -0.2599  0.0302  0.1083
 4161SOL    HW124207   0.106   3.319   4.114 -0.3837  1.8958  1.9849
 4161SOL    HW224208  -0.026   3.308   4.040  1.2280 -1.6239 -0.6514
 4162SOL     OW24209   3.096   5.018   5.168 -0.4973  0.5422 -0.0213
 4162SOL    HW124210   3.105   5.047   5.077  0.1382  1.2404  0.2503
 4162SOL    HW224211   3.093   5.099   5.219  2.0387  0.1944  0.8293
 4163SOL     OW24212  11.108   1.500   7.918  0.4055 -0.0737 -0.2370
 4163SOL    HW124213  11.089   1.440   7.990 -1.5352  0.1951 -0.4580
 4163SOL    HW224214  11.130   1.443   7.845 -0.3202 -0.4752 -0.1466
 4164SOL     OW24215   4.717   6.640   0.617  0.0477  0.5008 -0.3445
 4164SOL    HW124216   4.792   6.607   0.569  1.4907 -0.4374  2.3458
 4164SOL    HW224217   4.656   6.565   0.620 -0.2438  0.6990 -1.0004
 4165SOL     OW24218   9.711  11.047   0.227 -0.1530  0.2591 -0.0200
 4165SOL    HW124219   9.740  10.985   0.160  0.8215 -0.4910  1.0606
 4165SOL    HW224220   9.673  10.992   0.296  0.9787  0.8067  1.0782
 4166SOL     OW24221   1.590   9.037   1.218 -0.3323  0.5122 -0.3109
 4166SOL    HW124222   1.665   9.019   1.161 -0.1885  2.3875 -0.7853
 4166SOL    HW224223   1.628   9.051   1.304 -0.3138 -0.0306 -0.2246
 4167SOL     OW24224   0.748   1.553  11.906  0.2168  0.6521 -0.3924
 4167SOL    HW124225   0.814   1.532  11.840 -1.2589  2.1258 -2.5039
 4167SOL    HW224226   0.693   1.475  11.911 -0.5679  1.0266 -2.1774
 4168SOL     OW24227   5.180   6.279   8.527 -0.2251  0.2823  0.1631
 4168SOL    HW124228   5.152   6.276   8.436  1.8232  0.8349 -0.5298
 4168SOL    HW224229   5.223   6.364   8.537 -2.1813  1.1068  2.2306
 4169SOL     OW24230   2.955   1.008   7.402 -0.0307 -0.1910 -0.5787
 4169SOL    HW124231   2.863   1.031   7.412  0.0897  0.1829 -0.2601
 4169SOL    HW224232   2.955   0.923   7.360 -0.5071  0.3154 -1.6405
 4170SOL     OW24233   1.526  11.725  11.238 -0.0566 -0.7456  0.4421
 4170SOL    HW124234   1.450  11.676  11.270  0.1686 -0.7338  1.0009
 4170SOL    HW224235   1.513  11.814  11.270 -0.9837 -0.1506 -1.4178
 4171SOL     OW24236   2.965   0.062  10.947 -0.0437 -0.3245  0.3462
 4171SOL    HW124237   3.000  -0.022  10.918  0.7847  0.1071  0.0707
 4171SOL    HW224238   2.987   0.066  11.040  2.5341  0.8254 -0.2325
 4172SOL     OW24239   3.076   4.599  10.966 -0.4414  0.0008  0.4394
 4172SOL    HW124240   3.015   4.673  10.966 -1.7839 -0.9329 -2.6237
 4172SOL    HW224241   3.029   4.529  11.011 -1.1026 -0.2783 -0.6401
 4173SOL     OW24242   8.998  10.626   7.764 -0.2192 -0.5561 -0.1402
 4173SOL    HW124243   9.080  10.591   7.799 -0.1669  0.9348  1.3689
 4173SOL    HW224244   9.016  10.718   7.747 -1.8212  0.0822  1.2491
 4174SOL     OW24245   9.321   9.002   6.651 -0.3255  0.1501  0.1133
 4174SOL    HW124246   9.258   9.010   6.580  0.7207  0.1162 -0.8439
 4174SOL    HW224247   9.350   9.092   6.668  1.5388 -0.0710 -1.5074
 4175SOL     OW24248   4.697  10.793   7.629  0.0000  0.0275 -0.3842
 4175SOL    HW124249   4.668  10.786   7.720 -0.0955  0.6887 -0.3574
 4175SOL    HW224250   4.638  10.859   7.591  0.4412  0.2084 -0.7565
 4176SOL     OW24251   8.754   8.913   3.064  0.2224  0.2122 -0.0065
 4176SOL    HW124252   8.770   8.820   3.083 -0.4266  0.0760 -0.1063
 4176SOL    HW224253   8.760   8.956   3.150 -0.4507 -0.0756  0.1991
 4177SOL     OW24254   2.139   3.899   1.846 -0.4430 -0.4388  0.0594
 4177SOL    HW124255   2.054   3.918   1.885  0.8891  2.0854  2.0109
 4177SOL    HW224256   2.165   3.816   1.887 -1.1147 -0.2046  1.0101
 4178SOL     OW24257  10.354   3.260   0.969 -0.4232 -0.0343  0.2939
 4178SOL    HW124258  10.368   3.300   0.883 -1.1089  0.1514  0.2671
 4178SOL    HW224259  10.313   3.176   0.949  1.2857 -0.9168  0.3308
 4179SOL     OW24260   8.617   2.710   1.089 -0.0163 -0.5818 -0.2574
 4179SOL    HW124261   8.553   2.768   1.048  1.8643  0.5819 -1.6870
 4179SOL    HW224262   8.638   2.753   1.172  1.3637  0.8853 -1.3063
 4180SOL     OW24263   9.236   5.503   9.035 -0.4411  0.4296 -0.1482
 4180SOL    HW124264   9.278   5.558   9.101  1.7080  0.6929 -1.6055
 4180SOL    HW224265   9.287   5.423   9.034 -2.8019 -1.2097  1.0974
 4181SOL     OW24266   7.620   3.217  11.244  0.2240 -0.1567 -0.3581
 4181SOL    HW124267   7.617   3.308  11.215  0.5126  0.0478  0.2538
 4181SOL    HW224268   7.702   3.183  11.209  1.1061  0.3968  1.0881
 4182SOL     OW24269   7.743   0.862   8.341 -0.4946  0.1157 -0.1489
 4182SOL    HW124270   7.723   0.806   8.266 -3.3842 -0.5331  0.9678
 4182SOL    HW224271   7.718   0.810   8.417 -0.1633  1.7226  1.1141
 4183SOL     OW24272   1.156   0.402   1.163 -0.2313 -0.4446 -0.3757
 4183SOL    HW124273   1.161   0.383   1.069 -2.3781 -0.0634 -0.6180
 4183SOL    HW224274   1.068   0.375   1.189 -0.5793  1.7344  0.9831
 4184SOL     OW24275   5.474   0.949   8.806 -0.4604  0.4386  0.4197
 4184SOL    HW124276   5.498   0.939   8.898 -0.4000 -0.1615  0.3436
 4184SOL    HW224277   5.553   0.922   8.758 -0.5196  0.6691  0.1942
 4185SOL     OW24278   9.255   5.418   1.026  0.0420  0.5178 -0.2828
 4185SOL    HW124279   9.164   5.437   1.003 -0.8345 -4.1493 -1.8433
 4185SOL    HW224280   9.306   5.485   0.980 -2.4634  0.8722 -2.8067
 4186SOL     OW24281   1.461   7.380   8.445  0.4977  0.0318 -0.1520
 4186SOL    HW124282   1.539   7.418   8.486  0.0653  0.4760  0.2580
 4186SOL    HW224283   1.405   7.454   8.425 -0.5053 -0.3986  0.9774
 4187SOL     OW24284   6.421   0.169   0.795  0.3232  0.3260  0.6061
 4187SOL    HW124285   6.477   0.175   0.718 -1.1889 -1.7644 -0.7697
 4187SOL    HW224286   6.430   0.254   0.838  2.4304  1.0040 -0.9920
 4188SOL     OW24287   9.549   6.589   2.893  0.1703 -0.2810  0.4993
 4188SOL    HW124288   9.461   6.617   2.870  0.4290  0.2923  0.1805
 4188SOL    HW224289   9.566   6.630   2.978  0.1211 -0.4022  0.5669
 4189SOL     OW24290   2.260   8.051   1.522  1.2181 -0.2864  0.0731
 4189SOL    HW124291   2.183   8.108   1.510 -0.2701 -2.0359  0.8614
 4189SOL    HW224292   2.255   7.989   1.449  2.6321  0.3236 -0.5826
 4190SOL     OW24293   8.547   2.056   1.888 -0.2308 -0.0261 -0.1657
 4190SOL    HW124294   8.485   1.983   1.895 -0.3414 -0.0760 -1.4757
 4190SOL    HW224295   8.514   2.109   1.816  0.8866  0.3079 -0.4572
 4191SOL     OW24296   6.838   0.044   6.994 -0.1523  0.2065 -0.4136
 4191SOL    HW124297   6.871   0.036   7.083  1.1965  1.3325 -0.7789
 4191SOL    HW224298   6.752   0.084   7.004 -0.5914 -0.8791  0.4345
 4192SOL     OW24299   4.051   6.379   9.148 -0.0957 -0.3755 -0.3202
 4192SOL    HW124300   4.071   6.349   9.060 -1.5950 -2.0416 -0.1628
 4192SOL    HW224301   3.997   6.309   9.186 -1.0364  1.1091  1.2725
 4193SOL     OW24302  10.550   3.545   5.602  0.6378 -0.1695 -0.6035
 4193SOL    HW124303  10.640   3.577   5.611  0.3293  0.4889  0.3876
 4193SOL    HW224304  10.497   3.625   5.592  0.1665 -0.5487 -1.1614
 4194SOL     OW24305   0.173   0.507   2.480  0.3240 -0.3897  0.8293
 4194SOL    HW124306   0.098   0.562   2.454 -0.1774 -1.3287  0.2388
 4194SOL    HW224307   0.218   0.559   2.547 -1.0321  0.0620  1.4262
 4195SOL     OW24308   6.552   7.020   7.827 -0.3177  0.0557  0.2762
 4195SOL    HW124309   6.564   6.963   7.904 -1.8747  0.6046  0.9712
 4195SOL    HW224310   6.590   7.104   7.854 -0.4844  0.1253  0.2979
 4196SOL     OW24311   1.855   4.650   6.746  0.3491  0.3341  0.1835
 4196SOL    HW124312   1.896   4.657   6.832  1.9172  0.7938 -0.5559
 4196SOL    HW224313   1.798   4.574   6.753 -2.0663  2.1950  2.5578
 4197SOL     OW24314  11.096   1.295   3.615  0.0751 -0.1336 -0.2448
 4197SOL    HW124315  11.041   1.367   3.582  0.8546  0.2461 -0.7644
 4197SOL    HW224316  11.141   1.333   3.690  0.9962  0.1587 -0.9225
 4198SOL     OW24317   9.478   6.207   2.262 -0.0327 -0.2671 -0.2980
 4198SOL    HW124318   9.425   6.272   2.215  0.3247  0.4793  0.2969
 4198SOL    HW224319   9.538   6.172   2.196  1.2047  1.5538 -0.2384
 4199SOL     OW24320   7.439   9.521   2.456  1.0337 -0.0556 -0.1600
 4199SOL    HW124321   7.476   9.608   2.471 -0.9606  0.8632 -0.2207
 4199SOL    HW224322   7.498   9.480   2.393  1.6380  1.5151 -0.6631
 4200SOL     OW24323   2.717   3.188  11.179  0.2823 -0.8967  0.4590
 4200SOL    HW124324   2.773   3.259  11.212 -1.3479 -0.5511  2.6989
 4200SOL    HW224325   2.763   3.156  11.102  1.4149  2.1963 -0.3146
 4201SOL     OW24326   8.768   7.559   1.800  0.1846 -0.2678 -0.0173
 4201SOL    HW124327   8.753   7.466   1.816  1.2780 -0.7732 -1.7571
 4201SOL    HW224328   8.756   7.570   1.706 -1.8147  1.7510  0.3753
 4202SOL     OW24329   6.275  10.091   3.321 -0.0386 -0.0201  0.1248
 4202SOL    HW124330   6.262  10.100   3.226 -0.1737  0.0852  0.1544
 4202SOL    HW224331   6.219  10.158   3.360 -0.2535 -0.3001  0.2961
 4203SOL     OW24332   2.089   1.906   4.159  0.1215  0.3138 -0.6195
 4203SOL    HW124333   2.110   1.870   4.245 -1.8305 -1.1649 -0.7144
 4203SOL    HW224334   2.134   1.848   4.097  1.0280  1.0239 -0.6565
 4204SOL     OW24335   7.859   2.735   9.076 -0.1747 -0.5706 -0.1890
 4204SOL    HW124336   7.927   2.755   9.141 -0.7790  2.2382 -0.2892
 4204SOL    HW224337   7.899   2.758   8.992 -0.6410 -0.6090 -0.4221
 4205SOL     OW24338   4.502   6.423   3.394 -0.8141 -0.4477  0.0935
 4205SOL    HW124339   4.558   6.497   3.416 -0.5808 -0.8879  1.0240
 4205SOL    HW224340   4.542   6.385   3.316 -0.7439  0.1892 -0.1954
 4206SOL     OW24341   3.483  10.929   4.646  0.4992  0.4164 -0.2397
 4206SOL    HW124342   3.547  10.869   4.685 -0.0204 -1.3175 -1.8641
 4206SOL    HW224343   3.520  10.949   4.559 -0.4780  0.5348 -0.6403
 4207SOL     OW24344   0.529   2.413   2.458  0.2836 -0.4784  0.1334
 4207SOL    HW124345   0.511   2.373   2.543 -0.5612 -0.0393  0.1747
 4207SOL    HW224346   0.516   2.507   2.473  1.8520 -0.1992 -0.0510
 4208SOL     OW24347   7.400   8.668   6.292 -0.0436 -0.0653 -0.3911
 4208SOL    HW124348   7.410   8.750   6.243 -0.3512 -0.6155 -1.4115
 4208SOL    HW224349   7.465   8.610   6.252  0.9180 -0.0058  1.0439
 4209SOL     OW24350   9.558  11.920   7.309  0.3552 -0.4901 -0.1716
 4209SOL    HW124351   9.525  12.009   7.296  1.4978 -0.3113 -2.2635
 4209SOL    HW224352   9.482  11.864   7.300  0.0822  0.1007 -1.8911
 4210SOL     OW24353   2.210  10.849   3.459  0.5351  0.3348  0.9628
 4210SOL    HW124354   2.123  10.837   3.422  0.6705  1.0385  0.4002
 4210SOL    HW224355   2.232  10.940   3.441  1.8640 -0.1302  0.0335
 4211SOL     OW24356   2.186   5.122  10.751 -0.0372 -0.0394  0.5642
 4211SOL    HW124357   2.207   5.096  10.661  0.8927 -0.8510  0.9889
 4211SOL    HW224358   2.091   5.118  10.756 -0.1609  1.0028 -0.6673
 4212SOL     OW24359   3.179   5.491   3.113  0.1148  0.0117 -0.1987
 4212SOL    HW124360   3.224   5.420   3.067 -1.2068  0.1727 -1.8087
 4212SOL    HW224361   3.181   5.464   3.205 -0.8669 -2.4366 -0.8052
 4213SOL     OW24362   9.161   0.600   5.108  0.9064 -0.0008  0.3554
 4213SOL    HW124363   9.188   0.532   5.169 -0.9454  0.8032  2.2134
 4213SOL    HW224364   9.134   0.673   5.164 -0.3760  0.9948 -1.4343
 4214SOL     OW24365   8.604  10.988   0.347  0.2407 -0.7137 -0.0754
 4214SOL    HW124366   8.596  10.967   0.254 -0.4652 -0.8866  0.0178
 4214SOL    HW224367   8.655  10.917   0.384  2.9815  0.7343 -0.8106
 4215SOL     OW24368   7.608   3.573   7.475 -0.1046 -0.3081 -0.1981
 4215SOL    HW124369   7.552   3.594   7.401 -0.3064 -1.7927 -0.5019
 4215SOL    HW224370   7.589   3.640   7.540 -2.2203 -0.7508 -0.3039
 4216SOL     OW24371   8.364   3.363   8.048 -0.1731  0.1564  0.5667
 4216SOL    HW124372   8.388   3.401   8.133  1.2874  0.6732 -0.0371
 4216SOL    HW224373   8.313   3.431   8.004  0.2743  0.4443  0.4862
 4217SOL     OW24374   1.315   2.695  11.309 -0.1742 -0.0460 -0.0713
 4217SOL    HW124375   1.272   2.725  11.389 -0.9725  2.7344 -1.4276
 4217SOL    HW224376   1.274   2.612  11.289 -1.1105 -0.0074  1.5391
 4218SOL     OW24377   9.807   6.608   1.990  0.3652  0.0500  0.5513
 4218SOL    HW124378   9.835   6.525   1.954 -1.6868  0.3822 -2.0862
 4218SOL    HW224379   9.873   6.671   1.961 -0.5752  0.0842 -1.6916
 4219SOL     OW24380   8.061   3.004   4.140 -0.2340 -0.4177  0.4550
 4219SOL    HW124381   8.076   2.934   4.076  0.5631 -0.1218  0.3121
 4219SOL    HW224382   8.060   2.959   4.225 -1.8210 -0.8935  0.2318
 4220SOL     OW24383   9.897   6.931   5.801  0.1062  0.9799  0.4812
 4220SOL    HW124384   9.986   6.965   5.797  0.9015 -1.0395 -0.5591
 4220SOL    HW224385   9.868   6.926   5.710  0.3485 -1.7099  0.4738
 4221SOL     OW24386   3.498   8.348   0.033  0.1672  0.2112 -0.1087
 4221SOL    HW124387   3.443   8.414   0.075 -0.1582  0.3026 -0.6587
 4221SOL    HW224388   3.588   8.379   0.047  0.0414  0.4848  0.1034
 4222SOL     OW24389   8.411   2.677   5.875 -0.8945  0.8160 -0.3803
 4222SOL    HW124390   8.414   2.582   5.862 -0.7367  0.5400  1.4049
 4222SOL    HW224391   8.483   2.711   5.823  0.8833 -0.3591  1.1914
 4223SOL     OW24392   5.999   8.663   1.172 -0.1131 -0.1485 -0.4838
 4223SOL    HW124393   5.983   8.753   1.142 -1.4903 -0.5923 -1.1531
 4223SOL    HW224394   5.977   8.664   1.265  0.1233  0.2531 -0.4276
 4224SOL     OW24395   9.468   1.446   6.724  0.0228 -0.0983  0.6591
 4224SOL    HW124396   9.470   1.514   6.791  0.5811 -0.2119  0.7644
 4224SOL    HW224397   9.559   1.416   6.717  0.2799  0.9748 -1.2404
 4225SOL     OW24398   6.542  10.653   4.439  0.1685  0.0147  0.2030
 4225SOL    HW124399   6.539  10.703   4.521 -2.6070 -1.5313  1.1848
 4225SOL    HW224400   6.597  10.578   4.459  2.4221  1.3872 -0.5466
 4226SOL     OW24401   6.344   7.002   1.435 -0.3504  0.1212 -0.3570
 4226SOL    HW124402   6.267   6.975   1.386 -0.2274  0.8105 -0.9352
 4226SOL    HW224403   6.312   7.068   1.496 -0.4300 -0.4488  0.2314
 4227SOL     OW24404   7.599   7.616   4.382  1.0902 -0.3601 -0.5741
 4227SOL    HW124405   7.628   7.560   4.310 -0.7512  0.7917 -2.3314
 4227SOL    HW224406   7.531   7.564   4.426  0.2807 -0.0651 -1.4232
 4228SOL     OW24407   7.585   3.107   7.404 -0.4460  0.3956  0.3613
 4228SOL    HW124408   7.551   3.126   7.491 -2.6805 -0.7705 -0.2057
 4228SOL    HW224409   7.519   3.143   7.344  0.5790  0.3285 -0.8501
 4229SOL     OW24410   9.544   9.244  10.179 -0.3745 -0.1915 -0.2999
 4229SOL    HW124411   9.514   9.192  10.104  1.1597  0.9868 -1.8142
 4229SOL    HW224412   9.604   9.308  10.141  0.0636  0.7904  1.8996
 4230SOL     OW24413   2.605   0.853   2.230  0.4598 -0.1898  0.2887
 4230SOL    HW124414   2.624   0.764   2.260 -1.7292 -0.2983  1.6291
 4230SOL    HW224415   2.647   0.859   2.144  1.1816 -2.3015  0.4319
 4231SOL     OW24416  10.721   5.598   0.426  0.0765  0.1911 -0.2298
 4231SOL    HW124417  10.811   5.563   0.430  0.3343  0.8823  0.1711
 4231SOL    HW224418  10.710   5.624   0.334  0.3392  0.2488 -0.2454
 4232SOL     OW24419   9.436   4.408   8.539  0.3579  0.5926 -0.2747
 4232SOL    HW124420   9.421   4.403   8.633 -0.3758  0.6832 -0.3795
 4232SOL    HW224421   9.415   4.499   8.516  0.6200  0.5951 -0.5118
 4233SOL     OW24422   3.493   5.378   6.499 -0.0299  0.3139  0.5419
 4233SOL    HW124423   3.555   5.343   6.435  0.8810  0.0831  1.5187
 4233SOL    HW224424   3.445   5.446   6.451  2.1988  1.7720  0.1991
 4234SOL     OW24425   7.228   9.499   6.443 -0.1185  1.2647 -0.5265
 4234SOL    HW124426   7.254   9.591   6.451 -0.4969  1.6991 -3.3031
 4234SOL    HW224427   7.178   9.495   6.362  0.0589 -1.4585 -0.5995
 4235SOL     OW24428   9.531   5.597   7.422 -0.1258 -0.2808  0.0376
 4235SOL    HW124429   9.545   5.692   7.421 -0.2111 -0.2568  0.7093
 4235SOL    HW224430   9.617   5.561   7.401 -0.3864 -0.0483 -1.5510
 4236SOL     OW24431   2.885   8.696   6.202 -0.7220 -0.2021  0.0558
 4236SOL    HW124432   2.932   8.707   6.119  1.1063 -1.1111  0.9035
 4236SOL    HW224433   2.919   8.614   6.238 -1.4266  0.2057  1.7395
 4237SOL     OW24434   0.004   4.975  11.946 -0.2563  0.1702 -0.2899
 4237SOL    HW124435  -0.069   4.936  11.993 -0.1287 -1.3460 -1.3030
 4237SOL    HW224436   0.080   4.960  12.003 -0.4495  0.2116 -0.0214
 4238SOL     OW24437   2.785   6.738   8.572  0.4694  0.0094 -0.4088
 4238SOL    HW124438   2.822   6.678   8.637 -1.5116 -1.3032 -0.4021
 4238SOL    HW224439   2.812   6.703   8.488  1.3845  0.5765 -0.3667
 4239SOL     OW24440   9.905   0.768  11.048 -0.4717 -0.5118 -0.8579
 4239SOL    HW124441   9.977   0.786  10.987 -0.2742  1.6372 -0.0409
 4239SOL    HW224442   9.898   0.846  11.102 -4.0461 -0.2059 -1.4910
 4240SOL     OW24443   0.888  10.011   9.156 -0.1822  0.3736  0.3025
 4240SOL    HW124444   0.898  10.078   9.088  1.0512 -0.1587 -0.0587
 4240SOL    HW224445   0.899  10.058   9.238  1.8020  0.4734  0.0298
 4241SOL     OW24446   1.462  10.856  11.376  0.8558 -0.1658  0.1123
 4241SOL    HW124447   1.419  10.942  11.379 -1.1704 -1.1047  2.8667
 4241SOL    HW224448   1.459  10.831  11.284 -1.6427  1.2958 -0.3045
 4242SOL     OW24449   6.338   5.553   0.609 -0.3977  0.2341 -0.0506
 4242SOL    HW124450   6.408   5.501   0.650  0.4771 -0.0672 -1.8373
 4242SOL    HW224451   6.378   5.590   0.531 -2.0796  0.5535 -0.8070
 4243SOL     OW24452  11.441   1.111   8.369  0.5265 -0.2844 -0.2113
 4243SOL    HW124453  11.389   1.191   8.360 -0.3354 -0.9179 -1.0189
 4243SOL    HW224454  11.502   1.131   8.440 -0.7561  0.5158  0.7186
 4244SOL     OW24455   5.647   6.244   0.504  0.0257  0.2098 -0.1946
 4244SOL    HW124456   5.561   6.284   0.516 -0.8251 -1.8625  1.2126
 4244SOL    HW224457   5.658   6.239   0.409 -2.1402 -0.8252 -0.4596
 4245SOL     OW24458  11.158   0.718   6.359  0.3856 -0.2936 -0.0709
 4245SOL    HW124459  11.065   0.742   6.369 -0.2965 -2.5484 -0.5578
 4245SOL    HW224460  11.205   0.791   6.399 -1.5151  1.7432 -1.2714
 4246SOL     OW24461   5.562   8.163   8.209  0.1516 -0.5899 -0.1778
 4246SOL    HW124462   5.609   8.244   8.227  1.1575 -1.3675  0.8727
 4246SOL    HW224463   5.582   8.142   8.118 -0.2745  0.4282 -0.5122
 4247SOL     OW24464   1.381   8.218  11.859 -0.1837 -0.4326 -0.3880
 4247SOL    HW124465   1.332   8.140  11.884  0.1536 -1.2391 -2.1134
 4247SOL    HW224466   1.378   8.220  11.764  0.8893  0.9667 -0.4373
 4248SOL     OW24467   7.771   1.174   7.158 -0.3109 -0.0790  0.7371
 4248SOL    HW124468   7.781   1.124   7.077  2.4801 -1.0214  1.5183
 4248SOL    HW224469   7.816   1.257   7.141 -1.1193  0.3847  0.8267
 4249SOL     OW24470   8.805   6.095   7.588  0.5249  0.5894 -0.0014
 4249SOL    HW124471   8.769   6.087   7.676  1.6228  1.9511  0.5972
 4249SOL    HW224472   8.900   6.085   7.600  0.5435 -1.7542 -1.3858
 4250SOL     OW24473   5.070  10.107   3.403 -0.5341 -0.1073 -0.5021
 4250SOL    HW124474   5.161  10.131   3.422 -0.1995 -1.0924 -0.7505
 4250SOL    HW224475   5.029  10.188   3.375  0.6517  0.1238 -1.7274
 4251SOL     OW24476   8.793   2.214   6.361 -0.4470  0.0595  0.1000
 4251SOL    HW124477   8.710   2.178   6.329 -0.2378 -0.8847  0.5879
 4251SOL    HW224478   8.770   2.302   6.392 -1.3161 -0.2755  0.4470
 4252SOL     OW24479   7.543   2.937  10.704 -0.3306 -0.5683 -0.3585
 4252SOL    HW124480   7.469   2.935  10.765 -0.5326  1.0719 -0.4978
 4252SOL    HW224481   7.618   2.959  10.760 -0.3045 -0.2752 -0.5061
 4253SOL     OW24482   9.991   7.924   7.909 -0.2376  0.0842 -0.3775
 4253SOL    HW124483   9.930   7.890   7.844 -0.0723 -1.4220  0.1999
 4253SOL    HW224484   9.957   8.010   7.933 -1.0376  0.0803 -1.4617
 4254SOL     OW24485   2.410   0.573   0.938 -0.3960 -0.2291  0.4570
 4254SOL    HW124486   2.339   0.613   0.888  0.9344 -1.4174 -2.6415
 4254SOL    HW224487   2.372   0.492   0.973 -1.2632  0.4528  1.1392
 4255SOL     OW24488   7.870   6.662  11.333  0.2715 -0.3808 -0.4649
 4255SOL    HW124489   7.919   6.581  11.321  0.9095 -0.2142  0.8580
 4255SOL    HW224490   7.779   6.638  11.315  0.7057 -0.8688 -2.2132
 4256SOL     OW24491   8.933   2.784   3.481 -0.3401  0.3043  0.1641
 4256SOL    HW124492   8.855   2.809   3.530 -0.5384  1.3667 -0.6409
 4256SOL    HW224493   8.903   2.716   3.421 -1.1384  1.9533 -1.4161
 4257SOL     OW24494   8.830   1.431   8.715  0.5741  0.1072  0.3277
 4257SOL    HW124495   8.911   1.388   8.743  1.0391  0.8448  0.1607
 4257SOL    HW224496   8.856   1.481   8.637  0.0182  0.5457  0.4199
 4258SOL     OW24497   3.389   5.631   1.721 -0.2448  0.1787 -0.3197
 4258SOL    HW124498   3.453   5.600   1.784  1.7767  1.2520 -1.7499
 4258SOL    HW224499   3.350   5.551   1.685  1.5581 -0.5879 -0.6567
 4259SOL     OW24500   9.516   4.302  11.089  0.3083  0.5566 -0.4083
 4259SOL    HW124501   9.581   4.344  11.146  0.7109 -0.6726  0.0910
 4259SOL    HW224502   9.466   4.374  11.052  0.1604  1.4275  1.3677
 4260SOL     OW24503   8.083  10.098   6.949  0.2902  0.3229 -0.3277
 4260SOL    HW124504   8.078  10.003   6.938  1.3343  0.3879 -1.6885
 4260SOL    HW224505   8.038  10.134   6.872 -0.7503  0.9474  0.5515
 4261SOL     OW24506   3.729   3.778  10.761  0.0364  0.2516 -0.0576
 4261SOL    HW124507   3.697   3.721  10.691  0.4297 -0.8315  0.6048
 4261SOL    HW224508   3.649   3.815  10.799 -0.4628 -1.7492  1.0225
 4262SOL     OW24509   9.234   1.978  10.986  0.0896 -0.5383 -0.3111
 4262SOL    HW124510   9.248   1.901  10.930 -0.1342 -1.5364  0.9582
 4262SOL    HW224511   9.320   2.020  10.991 -0.0383  0.0008 -1.9619
 4263SOL     OW24512   0.475   0.687   5.053  0.5541  0.1570  0.3685
 4263SOL    HW124513   0.451   0.594   5.058  0.4894 -0.1763 -3.4186
 4263SOL    HW224514   0.562   0.692   5.092 -0.0759 -1.1511  2.0593
 4264SOL     OW24515   3.978   8.353   3.215  0.3343 -0.1230 -0.2890
 4264SOL    HW124516   4.038   8.281   3.231 -0.3208 -0.0446  3.5283
 4264SOL    HW224517   4.033   8.431   3.211  0.7300 -0.3599  0.3948
 4265SOL     OW24518  10.930  11.319   7.794  0.3736 -0.3712  0.4482
 4265SOL    HW124519  10.891  11.397   7.834 -0.1510 -1.0214  1.2436
 4265SOL    HW224520  10.886  11.310   7.710  0.0570 -0.1027  0.5822
 4266SOL     OW24521   2.224   1.152   5.833 -0.1463  0.4612  0.1904
 4266SOL    HW124522   2.201   1.061   5.853  0.9391 -0.2059 -1.3328
 4266SOL    HW224523   2.149   1.203   5.864 -1.3732 -1.0883 -0.0595
 4267SOL     OW24524   3.185   5.993   5.192  0.0081  0.1819 -0.0068
 4267SOL    HW124525   3.131   6.052   5.139 -2.2164 -0.5182  1.4011
 4267SOL    HW224526   3.186   5.911   5.143 -2.4347 -0.6104  1.1676
 4268SOL     OW24527  11.855   1.838   8.162  0.1555 -0.0286 -0.4343
 4268SOL    HW124528  11.899   1.768   8.210  1.2396  0.2138 -1.0512
 4268SOL    HW224529  11.763   1.830   8.188  0.3975 -1.1372  0.1533
 4269SOL     OW24530   3.950  11.309   9.449  0.1469 -0.5287 -0.4475
 4269SOL    HW124531   4.032  11.359   9.443  0.3788 -1.0791 -2.6457
 4269SOL    HW224532   3.969  11.227   9.403 -0.5704 -2.2661  2.1278
 4270SOL     OW24533   4.683   8.520   2.152  0.5361 -0.0552  0.3552
 4270SOL    HW124534   4.718   8.606   2.172 -0.0509  0.3315 -0.2443
 4270SOL    HW224535   4.739   8.459   2.201  1.5183  0.5951  0.0726
 4271SOL     OW24536   8.830   4.384   0.610 -0.2396 -0.3106  0.2345
 4271SOL    HW124537   8.792   4.306   0.650  0.8944 -0.9967  0.0223
 4271SOL    HW224538   8.784   4.457   0.652 -1.3232 -1.0730  0.4348
 4272SOL     OW24539  11.430   2.494  11.306 -0.1474  0.0471  0.1951
 4272SOL    HW124540  11.356   2.435  11.318  0.8184 -1.3360 -0.4236
 4272SOL    HW224541  11.422   2.557  11.378 -1.6027 -0.4003  0.4512
 4273SOL     OW24542   3.620   0.800   0.547  0.0696 -0.3951 -0.7141
 4273SOL    HW124543   3.706   0.760   0.562 -0.0516 -0.0310  1.1319
 4273SOL    HW224544   3.567   0.730   0.508 -0.5216 -2.6371  3.5572
 4274SOL     OW24545   6.282   7.318   1.840 -0.7989  0.1821 -0.1663
 4274SOL    HW124546   6.285   7.377   1.915 -2.6937  0.0193  0.0895
 4274SOL    HW224547   6.300   7.374   1.764  0.7763  0.4124  0.3381
 4275SOL     OW24548   7.870   5.388   9.483 -0.0208  0.0807  0.3020
 4275SOL    HW124549   7.945   5.447   9.483  0.0918  0.0497 -2.4218
 4275SOL    HW224550   7.904   5.304   9.451 -0.6786 -0.7830  1.7475
 4276SOL     OW24551   4.128   5.548   4.920 -0.0717 -0.5023  0.8086
 4276SOL    HW124552   4.107   5.469   4.969 -0.3029 -0.0646  1.4277
 4276SOL    HW224553   4.046   5.575   4.880  0.2563 -1.2370 -0.4029
 4277SOL     OW24554   6.759   5.509   4.981  0.3310  0.3925 -0.2880
 4277SOL    HW124555   6.714   5.557   5.051 -0.3200  0.6098 -0.8388
 4277SOL    HW224556   6.689   5.472   4.928  0.8251 -1.1390  0.0794
 4278SOL     OW24557   7.555   6.656   9.894 -0.1221  0.3254  0.2232
 4278SOL    HW124558   7.591   6.568   9.900  1.2764  0.8140 -0.4990
 4278SOL    HW224559   7.613   6.701   9.833  1.6811  2.9610  3.5874
 4279SOL     OW24560   6.494   2.660   2.354  0.1524  0.2642 -0.1586
 4279SOL    HW124561   6.486   2.742   2.402  0.7347 -0.2926  0.9241
 4279SOL    HW224562   6.554   2.607   2.406 -1.4206 -1.4464  0.0272
 4280SOL     OW24563  11.075   9.494   9.862 -0.2371 -0.3590  0.0497
 4280SOL    HW124564  11.111   9.582   9.848 -0.0980 -0.1947  1.2995
 4280SOL    HW224565  10.987   9.498   9.826  0.5338 -0.4003 -1.9482
 4281SOL     OW24566   3.201   6.044   2.343  0.3930  0.2366 -0.7971
 4281SOL    HW124567   3.107   6.060   2.351  0.5652  0.8824  0.0997
 4281SOL    HW224568   3.223   5.989   2.418  0.6618 -0.2639 -1.2386
 4282SOL     OW24569   4.088   9.131   9.369 -0.2648 -0.3692 -0.0744
 4282SOL    HW124570   4.068   9.068   9.300  1.4659 -1.7811  0.6312
 4282SOL    HW224571   4.078   9.217   9.327 -0.4646 -1.1534 -1.7187
 4283SOL     OW24572   9.338   0.900  11.728  0.5462 -0.2265  0.4596
 4283SOL    HW124573   9.325   0.994  11.735  0.6328 -0.1748 -0.0437
 4283SOL    HW224574   9.264   0.862  11.775 -0.3955  0.0798 -0.7535
 4284SOL     OW24575   5.806  10.319   5.577  0.4299 -0.6042  0.3138
 4284SOL    HW124576   5.828  10.309   5.669  0.4761 -2.6539  0.1128
 4284SOL    HW224577   5.883  10.289   5.530  0.2945  0.1454 -0.4036
 4285SOL     OW24578   6.134   7.335   9.588  0.0598 -0.3051 -0.4879
 4285SOL    HW124579   6.136   7.320   9.493 -0.0776  1.0082 -0.7160
 4285SOL    HW224580   6.062   7.281   9.619 -0.8867  0.3968 -1.3685
 4286SOL     OW24581   2.518   3.114   3.718  0.2758  0.3700  0.0161
 4286SOL    HW124582   2.592   3.105   3.657  0.8696  2.0135  0.4516
 4286SOL    HW224583   2.460   3.041   3.695  3.4701 -3.0668  1.7613
 4287SOL     OW24584  11.007   2.878   7.939 -0.1851 -0.1758  0.0193
 4287SOL    HW124585  10.941   2.925   7.889 -0.4772  0.8573  1.3115
 4287SOL    HW224586  10.985   2.785   7.928 -0.4191  0.0376 -1.4723
 4288SOL     OW24587   9.358   4.672   4.927 -0.7813  0.2967  0.1783
 4288SOL    HW124588   9.300   4.630   4.990 -1.1583  0.7917  0.1684
 4288SOL    HW224589   9.382   4.755   4.969 -1.3848  0.8328 -0.5027
 4289SOL     OW24590  10.455   6.244   0.706 -0.0230  0.0333  0.4457
 4289SOL    HW124591  10.380   6.304   0.701  0.5676  0.7376 -0.2817
 4289SOL    HW224592  10.501   6.270   0.786  0.2667  0.6076  0.1001
 4290SOL     OW24593   1.446  10.000   7.083 -0.5311 -0.4245  0.3559
 4290SOL    HW124594   1.540  10.019   7.093 -0.5809 -0.3481  0.6998
 4290SOL    HW224595   1.414   9.991   7.173 -1.1908  1.1709  0.3058
 4291SOL     OW24596   5.488   0.335  11.740 -0.4283  0.0747  0.6655
 4291SOL    HW124597   5.565   0.316  11.794  0.1084  1.3285  0.3615
 4291SOL    HW224598   5.520   0.395  11.673 -1.4238 -0.3013 -0.1725
 4292SOL     OW24599   4.689   9.920   2.615 -0.3869 -0.1290  0.0953
 4292SOL    HW124600   4.604   9.944   2.577  0.5551 -0.3652 -2.3200
 4292SOL    HW224601   4.699   9.827   2.593  1.0788  0.2338 -0.9110
 4293SOL     OW24602  10.383   1.715   6.122 -0.1139 -0.2740  0.5223
 4293SOL    HW124603  10.351   1.717   6.032  1.1007 -0.5390  0.0690
 4293SOL    HW224604  10.379   1.806   6.151 -0.9426 -0.2513  0.3699
 4294SOL     OW24605   1.370   9.032   7.106 -0.3677 -0.4011 -0.1048
 4294SOL    HW124606   1.324   8.953   7.080 -0.7114 -0.3799  0.4194
 4294SOL    HW224607   1.393   9.018   7.198  0.6729 -0.4059 -0.3519
 4295SOL     OW24608   0.299   6.448   9.447  0.0595 -0.0085  0.4358
 4295SOL    HW124609   0.267   6.408   9.366 -0.8802  0.2482  0.6733
 4295SOL    HW224610   0.393   6.429   9.447 -0.0167 -0.4495 -0.4613
 4296SOL     OW24611  11.835   3.170   0.609  0.1113  0.1155 -0.1163
 4296SOL    HW124612  11.922   3.203   0.634  0.1781 -0.0092 -0.1818
 4296SOL    HW224613  11.814   3.217   0.528 -0.3826  0.9866  0.5045
 4297SOL     OW24614   2.318   8.394   4.797  0.8875 -0.3136 -0.0617
 4297SOL    HW124615   2.228   8.425   4.814  1.6864  0.4216  3.7850
 4297SOL    HW224616   2.307   8.308   4.757 -1.5243  0.1583 -0.5647
 4298SOL     OW24617   1.698   8.755   7.188 -0.0183  0.3034 -0.5586
 4298SOL    HW124618   1.702   8.786   7.278 -1.6597  1.1845 -0.7422
 4298SOL    HW224619   1.780   8.783   7.149  0.9955 -0.6281  0.7938
 4299SOL     OW24620  10.958   2.385   8.517 -0.1364 -0.1519  0.1715
 4299SOL    HW124621  10.881   2.334   8.544  0.1499 -0.2174  0.8941
 4299SOL    HW224622  11.007   2.399   8.599  0.2422  0.5205 -0.1605
 4300SOL     OW24623  11.274   6.276   7.464 -0.1666  0.0503 -0.1827
 4300SOL    HW124624  11.213   6.337   7.505 -1.2457 -1.1575  0.0623
 4300SOL    HW224625  11.296   6.317   7.381 -3.0038 -0.4239 -1.2774
 4301SOL     OW24626   6.442   3.352   2.776 -0.1394 -0.3107 -0.1792
 4301SOL    HW124627   6.346   3.351   2.776 -0.1754 -2.3816 -0.9876
 4301SOL    HW224628   6.465   3.411   2.704 -0.9327 -2.4818 -2.3668
 4302SOL     OW24629   0.466  10.841   7.064  0.0562 -0.2843  0.0777
 4302SOL    HW124630   0.438  10.931   7.079 -0.7221 -0.5435  0.2209
 4302SOL    HW224631   0.514  10.844   6.982 -1.8617 -0.1059 -1.1014
 4303SOL     OW24632   9.099   2.900   3.015 -0.5117 -0.0780  0.0905
 4303SOL    HW124633   9.195   2.905   3.010 -0.5086 -0.3041 -0.0841
 4303SOL    HW224634   9.081   2.812   3.049 -0.6446  0.1351  0.5836
 4304SOL     OW24635   9.519   0.830   3.514 -0.5631 -0.5268  0.3736
 4304SOL    HW124636   9.574   0.874   3.449 -1.4400  2.1508  1.3151
 4304SOL    HW224637   9.560   0.851   3.598 -2.9036  1.5580  1.1100
 4305SOL     OW24638   9.344   9.381  10.308  0.2189 -0.4326 -0.4074
 4305SOL    HW124639   9.418   9.326  10.286  1.3992  0.1138  1.8610
 4305SOL    HW224640   9.362   9.412  10.397 -2.5102  0.0869  0.0810
 4306SOL     OW24641   5.241   4.758   5.354  0.6567  0.2956  0.1798
 4306SOL    HW124642   5.201   4.675   5.329 -0.0107  1.0253 -1.3214
 4306SOL    HW224643   5.172   4.804   5.403  0.2649  0.8078 -0.8274
 4307SOL     OW24644   9.598   5.811   5.975 -0.1560 -0.1721  0.2493
 4307SOL    HW124645   9.585   5.879   6.041 -0.9378  0.0003 -0.0741
 4307SOL    HW224646   9.534   5.831   5.906  0.3944 -0.5650 -0.3867
 4308SOL     OW24647   7.256   7.162  11.502 -0.5011  0.7620 -0.2332
 4308SOL    HW124648   7.230   7.158  11.410 -0.3871  3.2422 -0.4416
 4308SOL    HW224649   7.345   7.198  11.500 -0.0178 -0.2988  0.8229
 4309SOL     OW24650   9.385   6.475   6.575 -0.4580  0.3562  0.3602
 4309SOL    HW124651   9.450   6.469   6.645  0.6737  1.3851 -0.5469
 4309SOL    HW224652   9.427   6.432   6.500 -1.8613 -1.2069  0.4128
 4310SOL     OW24653   9.217   8.209   9.776  0.1291 -0.1215  0.3639
 4310SOL    HW124654   9.258   8.128   9.806 -1.7105 -1.2507  0.0114
 4310SOL    HW224655   9.148   8.180   9.717  0.3561  1.8009 -0.9502
 4311SOL     OW24656   0.796   5.540   9.513  0.1632  0.3503  0.0561
 4311SOL    HW124657   0.785   5.571   9.603  1.0048  1.2885 -0.1467
 4311SOL    HW224658   0.808   5.619   9.461 -0.8783 -0.1524 -0.9830
 4312SOL     OW24659   4.613   4.993   3.596 -0.0015  0.3953  0.2945
 4312SOL    HW124660   4.656   4.908   3.603 -0.6512  0.1295  1.3148
 4312SOL    HW224661   4.524   4.973   3.569  0.3377  0.9126 -1.3696
 4313SOL     OW24662   3.934  11.951   8.144 -0.1736 -0.2028  0.0340
 4313SOL    HW124663   3.866  12.015   8.164 -0.4244  0.1444 -1.7580
 4313SOL    HW224664   3.930  11.941   8.049  0.8158 -1.8285  0.1307
 4314SOL     OW24665   4.220   5.038   9.862  0.0454  0.5095 -0.2380
 4314SOL    HW124666   4.305   5.041   9.905 -1.3004  0.5222  2.6636
 4314SOL    HW224667   4.191   4.947   9.870 -1.4131  1.0685  1.5324
 4315SOL     OW24668   7.416   6.913   8.844 -0.0640  0.1900 -0.0687
 4315SOL    HW124669   7.359   6.949   8.776  0.3653 -0.7019 -0.9222
 4315SOL    HW224670   7.464   6.988   8.877  0.9819  0.4206 -1.9638
 4316SOL     OW24671   6.482   4.116   2.849  0.2836 -0.2336 -0.3826
 4316SOL    HW124672   6.450   4.143   2.935  0.9878 -0.4459 -0.0393
 4316SOL    HW224673   6.414   4.059   2.814  0.5036 -1.1136  0.5602
 4317SOL     OW24674   3.793   8.350   4.685  0.8688  0.0411  0.1197
 4317SOL    HW124675   3.701   8.363   4.708  0.4859  0.0121 -1.3133
 4317SOL    HW224676   3.792   8.336   4.590  2.3738  0.2486  0.0579
 4318SOL     OW24677   3.956  10.576   3.134 -0.1434 -0.4050  0.5191
 4318SOL    HW124678   4.023  10.645   3.130 -1.2942  0.8249  1.6826
 4318SOL    HW224679   3.988  10.515   3.201  0.2755 -0.3519  0.3704
 4319SOL     OW24680   2.133   2.649   8.309 -0.2642  0.1741  0.1859
 4319SOL    HW124681   2.056   2.596   8.331 -0.4837 -0.0209 -1.0071
 4319SOL    HW224682   2.198   2.585   8.277 -0.3662  0.5585 -0.8210
 4320SOL     OW24683   2.293   1.953   2.026 -0.5730 -0.0173  0.3103
 4320SOL    HW124684   2.361   1.969   2.090 -3.0420  0.8000  2.9337
 4320SOL    HW224685   2.263   1.863   2.045 -0.2759 -0.3724 -0.8105
 4321SOL     OW24686   5.380   5.649   6.049  0.9764  0.8736  0.1166
 4321SOL    HW124687   5.399   5.599   5.970  1.7443  1.2765  0.0396
 4321SOL    HW224688   5.465   5.662   6.090  0.6907  1.4708  0.5290
 4322SOL     OW24689   4.821  11.442  11.415 -0.3238  0.2923 -0.3603
 4322SOL    HW124690   4.854  11.475  11.498 -2.2719  1.3067  0.0639
 4322SOL    HW224691   4.808  11.520  11.361  0.3039 -0.2988 -1.4031
 4323SOL     OW24692   1.209  11.922  11.071 -0.8782  0.0269 -0.3262
 4323SOL    HW124693   1.267  11.985  11.112  1.0036 -2.3984  1.0360
 4323SOL    HW224694   1.138  11.909  11.134  0.7682 -1.9296  1.2881
 4324SOL     OW24695   7.650   8.186   4.238 -0.5045 -0.4061 -0.1996
 4324SOL    HW124696   7.556   8.181   4.257 -0.2622 -1.1954  0.8800
 4324SOL    HW224697   7.675   8.275   4.259 -1.0605 -0.1054 -0.7694
 4325SOL     OW24698   8.446  11.673   1.395 -0.1540  0.0511  0.1965
 4325SOL    HW124699   8.446  11.578   1.410  1.3888  0.1803  1.2709
 4325SOL    HW224700   8.525  11.704   1.440  0.3041  1.6311 -1.5784
 4326SOL     OW24701   3.002   3.222  10.444 -0.3026 -0.2457 -0.4746
 4326SOL    HW124702   2.958   3.139  10.463  1.8771 -1.3694 -0.0524
 4326SOL    HW224703   3.030   3.215  10.353  0.6382 -0.3631 -0.1874
 4327SOL     OW24704   5.160   5.362  11.146  0.1299 -0.4793 -0.1731
 4327SOL    HW124705   5.239   5.407  11.177 -0.6584  1.4465 -0.7910
 4327SOL    HW224706   5.147   5.395  11.058 -1.6733 -0.2940  0.1281
 4328SOL     OW24707   7.731  10.774   3.301 -0.1738  0.1893 -0.2256
 4328SOL    HW124708   7.812  10.742   3.260 -0.2387 -1.4142  0.8178
 4328SOL    HW224709   7.673  10.794   3.227  0.0371 -1.7784 -0.9846
 4329SOL     OW24710  11.005   1.259   1.065  0.0249  0.6634  0.4476
 4329SOL    HW124711  10.982   1.301   1.148  0.7144  0.5399  0.7019
 4329SOL    HW224712  11.017   1.332   1.004 -2.5103  0.7110 -0.1088
 4330SOL     OW24713   0.439  11.134  10.766 -0.1774 -0.1425  0.0842
 4330SOL    HW124714   0.535  11.129  10.757 -0.3702 -2.5305 -1.2350
 4330SOL    HW224715   0.413  11.048  10.798 -1.9347  0.4001  0.2049
 4331SOL     OW24716   6.682   7.087   8.928 -0.7860 -0.1686  0.0687
 4331SOL    HW124717   6.717   7.010   8.972 -0.5779 -0.3604 -0.4250
 4331SOL    HW224718   6.629   7.131   8.994 -1.7090 -1.2464  0.0810
 4332SOL     OW24719   1.988   0.252  11.680 -0.5186  0.5820 -0.3079
 4332SOL    HW124720   1.931   0.279  11.752 -0.0346  2.6664 -0.6415
 4332SOL    HW224721   1.930   0.246  11.605 -0.9803 -1.3601  0.1470
 4333SOL     OW24722   1.917  11.199   2.969 -0.2221 -0.2324  0.0129
 4333SOL    HW124723   1.908  11.242   3.054 -0.8687  0.8622 -0.5896
 4333SOL    HW224724   2.011  11.199   2.951 -0.2228  1.1373 -0.0633
 4334SOL     OW24725   7.825  11.917   3.964  0.2904 -0.2451 -0.0302
 4334SOL    HW124726   7.845  12.003   3.927  0.9499 -0.7727 -0.9564
 4334SOL    HW224727   7.813  11.933   4.058 -3.1022  1.4219 -0.6162
 4335SOL     OW24728  11.802   1.715   1.850 -0.0699  0.6117 -0.2452
 4335SOL    HW124729  11.740   1.788   1.858 -0.2027  0.5311 -0.5684
 4335SOL    HW224730  11.886   1.758   1.832 -0.6711  0.5995 -3.7425
 4336SOL     OW24731   2.870   0.796   0.058  0.6150 -0.0539  0.3775
 4336SOL    HW124732   2.810   0.795  -0.016  0.8110 -1.5676  0.2141
 4336SOL    HW224733   2.845   0.721   0.111  2.9718 -1.3440 -0.2059
 4337SOL     OW24734   1.293   4.102   8.678  0.5655  0.0381  0.3818
 4337SOL    HW124735   1.371   4.146   8.713 -0.1823  0.8442  1.1032
 4337SOL    HW224736   1.235   4.094   8.753 -0.6670  0.8587 -0.4538
 4338SOL     OW24737   3.631   1.329   6.260 -0.1338 -0.2759 -0.1987
 4338SOL    HW124738   3.617   1.402   6.199  1.1078  0.8652  0.8017
 4338SOL    HW224739   3.559   1.337   6.322 -0.5265 -0.4835 -0.6222
 4339SOL     OW24740  10.041   6.986   7.791 -0.3405 -0.1816  0.7942
 4339SOL    HW124741  10.065   6.958   7.703  2.3080  1.4992  0.8559
 4339SOL    HW224742   9.966   7.045   7.778 -0.5626 -0.6670 -0.2047
 4340SOL     OW24743   6.750   8.510   7.966 -0.8162  0.3561 -0.1616
 4340SOL    HW124744   6.741   8.416   7.982 -1.9734  0.1057 -1.9788
 4340SOL    HW224745   6.826   8.536   8.018 -1.4819 -1.2289  1.7023
 4341SOL     OW24746   5.955  10.047   5.772  0.6696  0.0399  0.3865
 4341SOL    HW124747   5.865  10.031   5.801 -0.2992  1.0073 -1.7874
 4341SOL    HW224748   5.972   9.977   5.709  1.6752 -0.4812  1.2292
 4342SOL     OW24749   3.731   1.812   5.121 -0.2640 -0.1182 -0.1846
 4342SOL    HW124750   3.790   1.879   5.086  0.5741  0.4841  2.2062
 4342SOL    HW224751   3.768   1.729   5.090  1.1956  0.3189  0.3391
 4343SOL     OW24752  11.160   0.122   9.995 -0.2417  0.4753  0.0014
 4343SOL    HW124753  11.248   0.100  10.026  0.4421  0.3955 -1.8459
 4343SOL    HW224754  11.175   0.162   9.909 -1.9035  2.0604  0.3804
 4344SOL     OW24755   6.969   0.314  11.156  0.0659  0.3235 -0.1473
 4344SOL    HW124756   7.034   0.301  11.225 -0.0950 -0.7736 -0.1862
 4344SOL    HW224757   6.894   0.353  11.201  0.6601  1.4331 -0.0723
 4345SOL     OW24758   8.831   5.476   0.746 -0.1205  0.3971 -0.1919
 4345SOL    HW124759   8.814   5.465   0.653  2.1360 -0.7213 -0.5242
 4345SOL    HW224760   8.770   5.417   0.789 -0.1880 -0.1545 -1.0356
 4346SOL     OW24761   8.592  10.254  11.753 -0.2626 -0.8418  0.5407
 4346SOL    HW124762   8.514  10.286  11.707 -0.4586  0.0051  1.4282
 4346SOL    HW224763   8.644  10.332  11.769  0.5255 -1.3334  0.4180
 4347SOL     OW24764   8.233   9.841  10.462  0.1841 -0.2131 -0.0470
 4347SOL    HW124765   8.321   9.807  10.446  0.7549  0.6501  1.1876
 4347SOL    HW224766   8.203   9.794  10.539  1.2255  2.3897  2.0751
 4348SOL     OW24767   5.883   6.248   8.375 -0.3233 -0.5419  0.0017
 4348SOL    HW124768   5.850   6.162   8.347 -0.9152  0.0434 -1.1693
 4348SOL    HW224769   5.950   6.227   8.440 -0.7616 -1.8775  0.0709
 4349SOL     OW24770   8.054   3.207   5.571  0.3240  0.0491  0.2020
 4349SOL    HW124771   8.044   3.158   5.653  2.5494 -0.0867  0.4722
 4349SOL    HW224772   8.079   3.141   5.507  0.1014  0.3659 -0.2108
 4350SOL     OW24773  10.529   1.609   7.763  0.1069  0.6566  0.5347
 4350SOL    HW124774  10.511   1.685   7.707  1.3878  0.3261 -0.3723
 4350SOL    HW224775  10.528   1.645   7.852 -2.1539  1.1562  0.3628
 4351SOL     OW24776   4.982   7.422  11.202 -0.2881 -0.3170 -0.1540
 4351SOL    HW124777   5.015   7.333  11.189 -0.1765 -0.4358  0.8723
 4351SOL    HW224778   4.907   7.412  11.260  0.4981  0.3567  1.0397
 4352SOL     OW24779   9.231   5.571   4.047 -0.0799  0.5931 -0.3446
 4352SOL    HW124780   9.181   5.647   4.076 -1.4870 -1.0093  1.8021
 4352SOL    HW224781   9.177   5.532   3.978 -0.5910  0.2455  0.2386
 4353SOL     OW24782  10.024  11.315   0.587  0.1611  0.2066 -0.4560
 4353SOL    HW124783   9.963  11.365   0.642  0.0148  0.1432 -0.5581
 4353SOL    HW224784  10.034  11.231   0.632  0.9260  0.5625  0.0654
 4354SOL     OW24785   5.413   6.954   3.870  0.3115 -0.1055  0.5308
 4354SOL    HW124786   5.325   6.992   3.867  0.1685 -0.3776  1.2658
 4354SOL    HW224787   5.464   7.010   3.811 -0.3896 -0.0573 -0.0450
 4355SOL     OW24788   7.471   0.989   1.067  0.0946 -0.5314 -0.4069
 4355SOL    HW124789   7.551   0.950   1.032  0.5294  0.6214 -0.7279
 4355SOL    HW224790   7.442   0.927   1.134 -0.0935 -2.1914 -1.9249
 4356SOL     OW24791   4.880   9.027   8.531 -0.4290  0.2748 -0.1132
 4356SOL    HW124792   4.975   9.038   8.529 -0.3197 -0.6932 -1.9797
 4356SOL    HW224793   4.864   8.962   8.600  0.3440 -0.3178 -0.4951
 4357SOL     OW24794   2.945   7.598   1.141  0.0779  0.2762 -0.2424
 4357SOL    HW124795   2.984   7.599   1.054  0.0277 -2.1171 -0.3516
 4357SOL    HW224796   3.018   7.580   1.200 -0.1341  0.3387  0.0411
 4358SOL     OW24797   0.481   0.193   2.105  0.5862  0.0070  0.1640
 4358SOL    HW124798   0.481   0.100   2.125 -3.2940 -0.2589 -0.3990
 4358SOL    HW224799   0.432   0.234   2.176  0.5699  1.3518 -0.5795
 4359SOL     OW24800   2.317   4.785   0.133  0.3273  0.6893 -0.2422
 4359SOL    HW124801   2.366   4.753   0.058  0.2174  1.4927 -0.6627
 4359SOL    HW224802   2.235   4.735   0.131  1.1759 -0.8185  0.5928
 4360SOL     OW24803   5.879   3.696  11.446 -0.1077  0.3167 -0.2671
 4360SOL    HW124804   5.867   3.737  11.361 -1.3344 -0.6001 -0.5602
 4360SOL    HW224805   5.801   3.719  11.496 -0.1512 -0.4574  0.0447
 4361SOL     OW24806   3.008  11.036   3.798  0.0218  0.1473 -0.6349
 4361SOL    HW124807   3.064  10.960   3.814 -0.5867 -0.0063  0.9212
 4361SOL    HW224808   3.069  11.108   3.784  0.6404 -0.0148  1.0169
 4362SOL     OW24809   4.116   9.959  11.676  0.2005 -0.1759  0.0176
 4362SOL    HW124810   4.153   9.949  11.764  1.7892  2.1869 -0.2763
 4362SOL    HW224811   4.125   9.872  11.637 -1.1527 -1.4728  2.3325
 4363SOL     OW24812   8.769   4.236   8.414  0.3521  0.0252  0.0567
 4363SOL    HW124813   8.851   4.286   8.407  1.5310 -1.5050  1.8777
 4363SOL    HW224814   8.770   4.178   8.338 -0.4652  1.8303 -1.4346
 4364SOL     OW24815   5.308   2.439   4.735  0.0889  0.2212  0.7694
 4364SOL    HW124816   5.385   2.384   4.723 -0.7889 -0.7140 -0.9498
 4364SOL    HW224817   5.234   2.380   4.725 -0.8853  1.5743 -0.5289
 4365SOL     OW24818   1.949   6.290   2.324  0.1717 -0.2510  0.1506
 4365SOL    HW124819   1.873   6.238   2.351 -0.7843  0.6397 -0.7312
 4365SOL    HW224820   1.981   6.247   2.244  0.0283 -0.0902  0.0071
 4366SOL     OW24821   6.932   1.863   2.719 -0.0026 -0.1967 -0.4845
 4366SOL    HW124822   7.000   1.885   2.656  0.6692  1.0531  0.6085
 4366SOL    HW224823   6.978   1.860   2.803 -1.0910 -0.5330  0.1172
 4367SOL     OW24824  10.294   5.169   1.617 -0.0354  0.7254 -0.0625
 4367SOL    HW124825  10.206   5.185   1.582  0.0173  0.7468 -0.1841
 4367SOL    HW224826  10.340   5.252   1.607 -0.0840  0.7898  0.2461
 4368SOL     OW24827   9.202   7.869   3.812  0.1053  0.0044  0.4816
 4368SOL    HW124828   9.199   7.781   3.849 -0.8941 -0.6649 -1.1143
 4368SOL    HW224829   9.201   7.856   3.717 -1.6976  1.7772  0.1954
 4369SOL     OW24830   3.909  11.087  10.873 -0.2546 -0.0233 -0.1782
 4369SOL    HW124831   3.931  11.175  10.842 -1.1365  0.5377  0.7287
 4369SOL    HW224832   3.951  11.029  10.809 -0.2960  1.0477 -1.2365
 4370SOL     OW24833   5.488   2.580   5.479 -0.3314  0.1569  0.1972
 4370SOL    HW124834   5.404   2.565   5.435  0.3703 -0.2706 -1.0477
 4370SOL    HW224835   5.528   2.493   5.482 -0.4279  0.1391  1.8819
 4371SOL     OW24836   7.563   4.271   7.086  0.2203 -0.1142  0.0814
 4371SOL    HW124837   7.631   4.325   7.046  0.0299  0.7643  0.9092
 4371SOL    HW224838   7.499   4.333   7.120 -0.7720 -0.9170 -0.2758
 4372SOL     OW24839   2.925   0.813   6.797  0.2880  0.0527 -0.2512
 4372SOL    HW124840   2.915   0.791   6.705 -0.0039  0.4279 -0.3130
 4372SOL    HW224841   2.857   0.762   6.841 -0.3104  0.7199 -0.3801
 4373SOL     OW24842   9.053   9.884   0.333 -0.1150 -0.0682  0.1550
 4373SOL    HW124843   9.109   9.955   0.363 -2.7836  0.9205  3.5644
 4373SOL    HW224844   9.093   9.805   0.369  1.8362 -0.1905 -2.0479
 4374SOL     OW24845   5.737   4.154   2.137 -0.8617 -0.4147  0.1604
 4374SOL    HW124846   5.713   4.096   2.065 -1.7882  3.2746 -2.7902
 4374SOL    HW224847   5.830   4.171   2.124 -0.9407 -0.0555  0.0490
 4375SOL     OW24848   0.938   4.378   4.681  0.2748 -0.6721 -0.7704
 4375SOL    HW124849   0.936   4.302   4.623  0.9425 -1.5472  0.3291
 4375SOL    HW224850   0.962   4.451   4.624  0.7424 -1.4773 -1.6273
 4376SOL     OW24851   1.895   0.546  11.675  0.2846  0.3897 -0.8230
 4376SOL    HW124852   1.829   0.490  11.717  1.2408 -0.1155  0.0558
 4376SOL    HW224853   1.844   0.612  11.628 -0.8601 -0.5085 -0.9021
 4377SOL     OW24854   1.628   9.682   4.300  0.3028 -0.1291  0.4389
 4377SOL    HW124855   1.703   9.651   4.248 -0.3980  1.2105 -1.5268
 4377SOL    HW224856   1.574   9.605   4.312  0.5943 -0.5420 -0.7036
 4378SOL     OW24857  10.604   2.484  10.762  0.0122  0.4562  0.2911
 4378SOL    HW124858  10.554   2.556  10.802 -0.9774  0.3210 -0.6840
 4378SOL    HW224859  10.609   2.507  10.669 -0.8163 -1.0308 -0.1344
 4379SOL     OW24860   4.913   2.879  11.389 -0.3363 -0.3931  0.0554
 4379SOL    HW124861   4.932   2.927  11.308  0.8751  0.8184  0.9943
 4379SOL    HW224862   4.825   2.907  11.413  0.2352  1.2122  0.4287
 4380SOL     OW24863   1.336   6.114   6.618 -0.0863  0.0596  0.1180
 4380SOL    HW124864   1.340   6.199   6.573  0.1962 -0.4601 -0.8760
 4380SOL    HW224865   1.297   6.055   6.553 -1.2600 -0.3635  1.1541
 4381SOL     OW24866   4.092   8.434   2.558 -0.4762  0.0090 -0.2845
 4381SOL    HW124867   4.150   8.363   2.585 -0.8458  0.7694  2.9292
 4381SOL    HW224868   4.146   8.490   2.503  1.9391  0.6021  2.4406
 4382SOL     OW24869  11.096   2.875   6.249  0.1036 -0.9309  1.3426
 4382SOL    HW124870  11.016   2.926   6.240 -0.4149 -1.7867  1.0131
 4382SOL    HW224871  11.144   2.917   6.320 -0.5948 -0.3651  1.4847
 4383SOL     OW24872   1.461   2.852   2.973 -0.1289 -0.0113 -0.4515
 4383SOL    HW124873   1.465   2.903   2.893 -0.9578 -0.9903 -1.1567
 4383SOL    HW224874   1.398   2.899   3.029 -0.1989  0.2182 -0.7239
 4384SOL     OW24875   8.750   7.548   9.391  0.4683 -0.0586 -0.3571
 4384SOL    HW124876   8.829   7.512   9.350  0.6049  0.4228 -0.5265
 4384SOL    HW224877   8.679   7.491   9.359  0.7675 -0.6349 -0.0192
 4385SOL     OW24878   6.498   6.709   8.519  0.2616 -0.4982 -0.6771
 4385SOL    HW124879   6.453   6.662   8.449 -0.4057  1.1884 -1.4429
 4385SOL    HW224880   6.443   6.696   8.596 -1.5827  1.4280 -1.5698
 4386SOL     OW24881   3.577   3.148   9.651  0.0122  0.2095  0.3625
 4386SOL    HW124882   3.538   3.215   9.595 -1.3506 -0.8276  0.0211
 4386SOL    HW224883   3.633   3.096   9.592 -0.4662 -0.1356  0.2069
 4387SOL     OW24884   5.534   0.688   5.918 -0.1257  0.0567  0.3180
 4387SOL    HW124885   5.529   0.777   5.882  1.8406 -0.3414 -1.1644
 4387SOL    HW224886   5.462   0.683   5.980 -2.1194  1.7318 -1.6594
 4388SOL     OW24887   5.266   5.613   7.964 -0.3591 -0.0812  0.1997
 4388SOL    HW124888   5.198   5.677   7.941 -0.0287  0.1108 -0.2593
 4388SOL    HW224889   5.347   5.663   7.964  0.0845 -0.7214 -1.4099
 4389SOL     OW24890   4.088   6.380  11.513  0.1174 -0.0137 -0.4274
 4389SOL    HW124891   4.081   6.396  11.607  1.0686 -1.2204 -0.1320
 4389SOL    HW224892   4.014   6.323  11.492 -0.0438  0.1839 -0.3926
 4390SOL     OW24893   5.480   6.036   4.971 -0.0375  0.4525 -0.3768
 4390SOL    HW124894   5.511   5.967   5.030 -0.9808 -1.2290 -1.7838
 4390SOL    HW224895   5.549   6.044   4.905 -0.9488 -0.8455 -1.5371
 4391SOL     OW24896  10.012  10.409   6.102 -0.3479 -0.3592  0.2016
 4391SOL    HW124897  10.012  10.477   6.170 -0.0574 -1.6539  1.5491
 4391SOL    HW224898  10.068  10.340   6.137 -2.3741 -2.2687 -0.1281
 4392SOL     OW24899   7.355   3.628   3.833 -0.2534 -0.1461 -0.0423
 4392SOL    HW124900   7.324   3.570   3.903 -0.0954  0.1530  0.2813
 4392SOL    HW224901   7.446   3.603   3.820  0.3614  1.1902  1.3399
 4393SOL     OW24902   3.650  10.164   3.983  0.4087 -0.5855 -0.1114
 4393SOL    HW124903   3.592  10.156   4.059  0.8944 -1.0306  0.2126
 4393SOL    HW224904   3.732  10.123   4.010  1.1702  0.7399 -0.2883
 4394SOL     OW24905   4.387   1.666   9.180  0.0019 -0.4107  0.8454
 4394SOL    HW124906   4.367   1.752   9.142  0.3873 -0.5715  0.2544
 4394SOL    HW224907   4.483   1.659   9.174  0.0334 -0.6067  1.5026
 4395SOL     OW24908   2.833   7.724   4.058 -0.1943  0.2926  0.3169
 4395SOL    HW124909   2.907   7.783   4.072 -0.1495  0.2114  0.4159
 4395SOL    HW224910   2.798   7.707   4.145 -1.7475  2.1537  0.1389
 4396SOL     OW24911   9.787  11.918  10.652  0.1170  0.0786  0.2234
 4396SOL    HW124912   9.709  11.898  10.704  0.6634 -1.0640  0.6223
 4396SOL    HW224913   9.756  11.979  10.585 -1.1483 -0.4668  0.2948
 4397SOL     OW24914   5.800  11.920   4.196  0.4355 -0.5155  0.1538
 4397SOL    HW124915   5.830  11.905   4.106 -0.7154 -0.5750 -0.2427
 4397SOL    HW224916   5.870  11.969   4.238 -0.1346  1.9140 -1.5686
 4398SOL     OW24917   2.940   9.993   2.917 -0.0536  0.1399  0.1436
 4398SOL    HW124918   2.933  10.074   2.967 -1.3880 -0.3745  0.8462
 4398SOL    HW224919   2.859   9.988   2.867 -0.9054 -1.6685  1.5736
 4399SOL     OW24920  10.734   1.007   8.507  0.0803  0.0966 -0.1855
 4399SOL    HW124921  10.706   0.962   8.586 -0.7115  0.2696 -0.3554
 4399SOL    HW224922  10.787   0.942   8.460 -0.5019 -0.4419 -0.1170
 4400SOL     OW24923   1.236   7.247   4.085  0.0383  0.0367 -0.6826
 4400SOL    HW124924   1.141   7.246   4.073 -0.1869  0.8337  0.8755
 4400SOL    HW224925   1.267   7.314   4.025 -0.5429  0.6922 -0.2716
 4401SOL     OW24926  11.451  10.571   1.086 -0.2681  0.0382 -0.1872
 4401SOL    HW124927  11.414  10.527   1.009 -0.9705 -1.6744  1.0565
 4401SOL    HW224928  11.530  10.522   1.106  0.4364  1.0747 -0.3453
 4402SOL     OW24929  11.769   1.223   7.149  0.4376  0.4457 -0.1781
 4402SOL    HW124930  11.820   1.300   7.174 -0.5334  0.9740  0.2188
 4402SOL    HW224931  11.819   1.149   7.182  0.5423  0.9968  0.9516
 4403SOL     OW24932   7.139   0.176   2.457 -0.2313  0.0833  0.0264
 4403SOL    HW124933   7.126   0.081   2.459 -0.6103  0.1377  0.3084
 4403SOL    HW224934   7.174   0.193   2.370  0.4069 -0.3837  0.1823
 4404SOL     OW24935   3.070   7.165   0.601  0.1356 -0.6039  0.8126
 4404SOL    HW124936   3.083   7.209   0.686  1.5269  2.3233 -0.7635
 4404SOL    HW224937   3.135   7.205   0.544 -2.2321 -0.7797 -2.2408
 4405SOL     OW24938   9.509   7.009   4.807  0.1818 -0.4101  0.0917
 4405SOL    HW124939   9.414   7.013   4.796 -0.1914  0.5770  2.8995
 4405SOL    HW224940   9.531   6.917   4.792 -1.1212 -0.5650 -1.0372
 4406SOL     OW24941   4.127   6.775   6.468 -0.1402  0.7802  0.3427
 4406SOL    HW124942   4.060   6.788   6.535 -1.2188  0.4039 -0.6375
 4406SOL    HW224943   4.168   6.862   6.458 -2.3821  1.7685 -0.9932
 4407SOL     OW24944   2.786   1.997  10.597  0.0647  0.6508 -0.2341
 4407SOL    HW124945   2.709   2.022  10.649  0.6237  1.3441  0.2865
 4407SOL    HW224946   2.852   1.975  10.662  0.3775  0.2912 -0.6743
 4408SOL     OW24947   5.825   5.316   8.348 -0.1149 -0.1637 -0.0770
 4408SOL    HW124948   5.790   5.394   8.305 -0.4035  0.2131  0.8255
 4408SOL    HW224949   5.890   5.349   8.410 -0.7638 -0.5577  0.8437
 4409SOL     OW24950   3.140   5.854   4.164  0.0204  0.0998  0.4684
 4409SOL    HW124951   3.107   5.817   4.082 -0.7103 -0.6891  1.0947
 4409SOL    HW224952   3.063   5.856   4.221  0.6464  0.1004  1.3191
 4410SOL     OW24953   5.218   9.826   4.403 -0.0641  0.1436 -0.2230
 4410SOL    HW124954   5.310   9.853   4.409  0.5381 -1.8261  0.2031
 4410SOL    HW224955   5.178   9.890   4.345  1.4508  1.3637  0.0110
 4411SOL     OW24956   7.008   6.765   5.418  0.4368  0.2561  0.3863
 4411SOL    HW124957   7.044   6.680   5.392  0.8328  0.4651  0.2416
 4411SOL    HW224958   6.924   6.770   5.372  0.9371  0.4370 -0.5381
 4412SOL     OW24959  10.108  11.360   2.626  0.1123  0.3278 -0.1229
 4412SOL    HW124960  10.023  11.401   2.638 -0.6779 -1.2675  0.0529
 4412SOL    HW224961  10.130  11.377   2.534  0.0184  1.4619  0.0515
 4413SOL     OW24962   5.735   8.553   7.894 -0.6151  0.1106 -0.1561
 4413SOL    HW124963   5.688   8.479   7.857  3.3523 -2.6367 -0.3142
 4413SOL    HW224964   5.804   8.573   7.831 -0.4725  2.8681  0.7196
 4414SOL     OW24965   3.043   3.074   9.870  0.2130 -0.0450 -0.0048
 4414SOL    HW124966   3.051   3.011   9.942  3.0229  0.6793  0.4395
 4414SOL    HW224967   2.974   3.038   9.815 -1.6275 -0.9836  2.6633
 4415SOL     OW24968   4.165  10.797   5.358  0.7079  0.7673 -0.0598
 4415SOL    HW124969   4.241  10.785   5.415  0.9619 -0.9501 -0.7233
 4415SOL    HW224970   4.093  10.755   5.405  0.5223  0.9488 -0.1804
 4416SOL     OW24971   7.484   1.219   4.889  0.6755  0.5718 -0.0687
 4416SOL    HW124972   7.478   1.208   4.794 -0.9819 -1.2812  0.1700
 4416SOL    HW224973   7.404   1.267   4.913  2.0707  2.8945  0.2434
 4417SOL     OW24974   3.837  11.626   1.921  0.1137  0.1153 -0.4858
 4417SOL    HW124975   3.901  11.564   1.886  0.8708  0.0917  0.8760
 4417SOL    HW224976   3.803  11.671   1.844  1.9783  0.3290 -1.2372
 4418SOL     OW24977   1.919   8.446   6.068 -0.6510 -0.1658 -0.1117
 4418SOL    HW124978   2.001   8.493   6.086 -0.4593 -1.2860  2.3838
 4418SOL    HW224979   1.856   8.514   6.044  0.2776  1.0372  0.7827
 4419SOL     OW24980   8.219   4.421   3.518 -0.1786 -0.3709  0.4068
 4419SOL    HW124981   8.208   4.512   3.491  0.1161  0.0637  1.6587
 4419SOL    HW224982   8.200   4.370   3.440  0.1563  0.7853 -0.4518
 4420SOL     OW24983   8.113   7.674   9.290  0.3124 -0.4021  0.0702
 4420SOL    HW124984   8.045   7.675   9.223  1.0416 -2.1341 -0.7728
 4420SOL    HW224985   8.196   7.676   9.241  0.8612 -0.4474  0.9630
 4421SOL     OW24986   1.927   2.604   3.414 -0.3634 -0.2679  0.2834
 4421SOL    HW124987   2.008   2.560   3.439 -0.2562  0.3814  1.1098
 4421SOL    HW224988   1.860   2.535   3.414  0.4038 -1.1120 -1.7546
 4422SOL     OW24989  10.161   3.493   5.642 -0.4699 -0.2518 -0.1646
 4422SOL    HW124990  10.209   3.575   5.639 -2.7127  1.1487 -0.2055
 4422SOL    HW224991  10.116   3.489   5.557 -4.1051  0.9769  1.4926
 4423SOL     OW24992   0.552   4.147   4.379 -0.1422  0.5833 -0.5410
 4423SOL    HW124993   0.532   4.091   4.304  0.5393 -2.3289  1.2883
 4423SOL    HW224994   0.470   4.153   4.428  0.2385 -0.5756  0.2903
 4424SOL     OW24995   7.395   7.998   1.374  0.2616 -0.1351 -0.1409
 4424SOL    HW124996   7.472   8.029   1.326  0.9901 -0.3727  0.8436
 4424SOL    HW224997   7.429   7.933   1.435 -0.4663  0.9190  1.4602
 4425SOL     OW24998   2.422   3.520   3.267 -0.1389  0.0711  0.1600
 4425SOL    HW124999   2.354   3.455   3.247  0.6623 -0.8738  0.3930
 4425SOL    HW225000   2.429   3.520   3.362  1.4323 -1.2293  0.0997
 4426SOL     OW25001   1.759   3.719   2.835  0.2957 -0.1014 -0.3673
 4426SOL    HW125002   1.837   3.694   2.885  1.2162 -0.3952 -1.8992
 4426SOL    HW225003   1.727   3.636   2.798 -1.0627 -0.0688  0.6151
 4427SOL     OW25004   4.022   1.704   0.994 -0.0075 -0.8586 -0.8367
 4427SOL    HW125005   4.008   1.792   1.027  1.7487 -0.7861 -0.2054
 4427SOL    HW225006   4.041   1.652   1.072  1.7761 -1.1886 -1.4584
 4428SOL     OW25007   6.046   9.186   1.087 -0.1035 -0.0622 -0.0893
 4428SOL    HW125008   6.062   9.197   0.993 -0.1493 -0.7279 -0.1810
 4428SOL    HW225009   6.133   9.175   1.125 -0.1267 -0.4555 -0.1466
 4429SOL     OW25010   5.776  10.141   4.858  0.0569  0.2252  0.2557
 4429SOL    HW125011   5.865  10.109   4.872  0.1538 -0.3994 -1.6251
 4429SOL    HW225012   5.786  10.215   4.798 -0.6997  0.0493 -0.1004
 4430SOL     OW25013  11.481   4.335   9.435  0.1650  0.0923  0.7374
 4430SOL    HW125014  11.386   4.323   9.426  0.0369  1.9362 -1.2016
 4430SOL    HW225015  11.493   4.430   9.434  2.1202 -0.1276 -0.3886
 4431SOL     OW25016  10.642   2.290   0.453 -0.2329  0.2804 -0.6996
 4431SOL    HW125017  10.609   2.241   0.528  2.1147  0.1585  0.3488
 4431SOL    HW225018  10.564   2.313   0.403 -1.7459 -0.9520  0.9621
 4432SOL     OW25019   3.844   8.395   2.427 -0.1339 -0.2850  0.0575
 4432SOL    HW125020   3.780   8.420   2.493  0.9635  1.5802  0.4804
 4432SOL    HW225021   3.927   8.429   2.459  0.5527  0.0602 -1.9129
 4433SOL     OW25022   2.755   7.976   4.272 -0.1984 -0.0071  0.6885
 4433SOL    HW125023   2.668   8.012   4.254 -1.0397 -1.7449  1.0558
 4433SOL    HW225024   2.738   7.893   4.317  1.7047  0.8845  3.2679
 4434SOL     OW25025   9.257   0.776   8.840  0.1946  0.4580  0.1788
 4434SOL    HW125026   9.322   0.751   8.774 -0.1091 -1.7438  0.6306
 4434SOL    HW225027   9.241   0.695   8.889  0.8395  2.0929  3.3665
 4435SOL     OW25028   4.114   4.888  10.673  0.2320  0.2329 -0.3134
 4435SOL    HW125029   4.195   4.837  10.678 -0.7272 -1.4546 -1.1876
 4435SOL    HW225030   4.064   4.860  10.750  0.9196  2.1542  0.8950
 4436SOL     OW25031  11.719   0.412  10.242  0.3709 -0.1583 -1.1922
 4436SOL    HW125032  11.805   0.384  10.210  0.9081  0.5934 -0.4745
 4436SOL    HW225033  11.656   0.360  10.192  1.2676 -1.4692 -1.0229
 4437SOL     OW25034   5.116   4.296   8.936  0.1282  0.2373 -0.0590
 4437SOL    HW125035   5.034   4.308   8.889 -0.3749 -0.6978  0.5451
 4437SOL    HW225036   5.116   4.365   9.002 -0.3701 -0.0024  0.1954
 4438SOL     OW25037   6.158   7.150   9.384  0.3156  0.5681 -0.1329
 4438SOL    HW125038   6.208   7.098   9.322  0.1154  0.0392  0.1442
 4438SOL    HW225039   6.189   7.121   9.470  0.5007  1.2000  0.0254
 4439SOL     OW25040   0.203   7.868   8.950 -0.1846 -0.8683 -0.3259
 4439SOL    HW125041   0.110   7.881   8.968 -0.9086 -2.3300 -2.4891
 4439SOL    HW225042   0.220   7.920   8.871  0.5067 -1.5831 -0.6684
 4440SOL     OW25043   2.221   6.763  10.715 -0.4637 -0.7010 -0.0617
 4440SOL    HW125044   2.205   6.780  10.623  1.0618 -0.2884 -0.2844
 4440SOL    HW225045   2.158   6.818  10.762 -0.8790 -0.5031 -0.8447
 4441SOL     OW25046   7.123  11.772  11.043 -0.0790 -0.5213 -0.0881
 4441SOL    HW125047   7.194  11.709  11.055  0.4561  0.1447  0.3568
 4441SOL    HW225048   7.145  11.844  11.102  0.1606  0.7830 -1.6665
 4442SOL     OW25049   2.218   2.521   2.051  0.0301 -0.2810  0.3195
 4442SOL    HW125050   2.293   2.522   2.111 -0.6868  0.0933  1.2248
 4442SOL    HW225051   2.220   2.433   2.012 -0.3464 -1.0662  1.9950
 4443SOL     OW25052  10.887   4.951  11.623  0.4344 -0.5939  0.0557
 4443SOL    HW125053  10.891   4.858  11.601 -0.9399 -0.2626 -1.7925
 4443SOL    HW225054  10.932   4.957  11.707  3.0368 -2.4810 -1.0794
 4444SOL     OW25055   9.633   1.537   7.407 -0.1238 -0.1076  0.3719
 4444SOL    HW125056   9.660   1.627   7.388 -0.1737 -0.3702 -1.0690
 4444SOL    HW225057   9.572   1.545   7.480 -1.3825  1.2323 -0.7465
 4445SOL     OW25058  11.101   1.217  11.478  0.3756 -0.1743 -0.1154
 4445SOL    HW125059  11.049   1.137  11.491 -0.0963 -0.5055 -3.3590
 4445SOL    HW225060  11.036   1.286  11.468  0.4091 -0.4369 -3.2018
 4446SOL     OW25061   1.605   1.115   2.771 -0.2699  0.2318 -0.3485
 4446SOL    HW125062   1.549   1.047   2.733 -1.4423 -0.1874  1.9102
 4446SOL    HW225063   1.544   1.187   2.791  0.3276  0.5339  0.4295
 4447SOL     OW25064   6.577   2.338   8.574 -0.1568  0.2909  0.0631
 4447SOL    HW125065   6.530   2.388   8.641  1.7219  0.5797  1.2361
 4447SOL    HW225066   6.601   2.256   8.617 -0.9723 -0.5599 -1.0382
 4448SOL     OW25067  11.282   4.277   6.723  0.6742  0.0052  0.1520
 4448SOL    HW125068  11.253   4.191   6.756 -0.7172  0.7220  0.9293
 4448SOL    HW225069  11.253   4.339   6.790 -2.2854  1.5653 -2.2945
 4449SOL     OW25070   0.117   3.738  11.726 -0.0225 -0.1864 -0.0692
 4449SOL    HW125071   0.105   3.825  11.687 -1.9285 -0.7764 -0.9065
 4449SOL    HW225072   0.198   3.706  11.687 -1.0502 -0.1122 -2.4584
 4450SOL     OW25073  10.011   9.929  11.730 -0.2695 -0.2747 -0.2337
 4450SOL    HW125074   9.948   9.882  11.675 -0.8641 -0.4749  0.5991
 4450SOL    HW225075  10.014  10.017  11.691 -0.9729 -0.2982 -0.3695
 4451SOL     OW25076   6.399   8.367  11.203 -0.5274  0.5874 -0.3039
 4451SOL    HW125077   6.331   8.312  11.164  0.3618 -1.3640  0.7677
 4451SOL    HW225078   6.481   8.332  11.168  0.0133  2.5022 -1.0784
 4452SOL     OW25079   1.351   9.535   7.435  0.3535 -0.5938  0.3908
 4452SOL    HW125080   1.356   9.471   7.364  1.1166  0.6997 -0.7743
 4452SOL    HW225081   1.428   9.517   7.488 -1.0156 -2.5697  1.8556
 4453SOL     OW25082   8.205   9.436  11.084  0.5962  0.0242 -0.6341
 4453SOL    HW125083   8.215   9.343  11.101  0.0438 -0.2497 -1.7235
 4453SOL    HW225084   8.262   9.453  11.009  0.6696  0.5563 -0.4611
 4454SOL     OW25085   5.054   3.466   2.459  0.0325  0.1409  0.6107
 4454SOL    HW125086   5.091   3.464   2.548  0.0115 -2.2854  0.6405
 4454SOL    HW225087   5.051   3.559   2.436  2.9860  0.6854  1.9348
 4455SOL     OW25088   2.489   3.744   0.395 -0.3487 -0.1369 -0.3088
 4455SOL    HW125089   2.446   3.829   0.393  0.6645  0.3671 -1.4388
 4455SOL    HW225090   2.579   3.762   0.422 -0.1645 -0.8586 -0.4147
 4456SOL     OW25091   1.550   5.305   8.445  0.4893  0.9223 -0.0672
 4456SOL    HW125092   1.518   5.221   8.413 -2.7211  2.4634 -1.3628
 4456SOL    HW225093   1.596   5.343   8.370  1.9269  0.3915  0.5124
 4457SOL     OW25094   5.299   6.076   6.856 -0.5985  0.1230 -0.4968
 4457SOL    HW125095   5.208   6.100   6.872 -0.2139  1.0007  0.4649
 4457SOL    HW225096   5.348   6.158   6.865  0.3843 -0.4691 -0.2176
 4458SOL     OW25097   5.401   2.367   8.401  0.3550 -0.4009 -0.5006
 4458SOL    HW125098   5.408   2.418   8.320 -2.2440 -0.6297 -0.9458
 4458SOL    HW225099   5.331   2.304   8.384 -1.9177  1.0025  2.6242
 4459SOL     OW25100   2.531   4.006   8.374 -0.0705 -0.0530 -0.0279
 4459SOL    HW125101   2.497   3.950   8.444  0.6569  0.0484  0.4228
 4459SOL    HW225102   2.510   3.960   8.293 -1.3274  0.0426  0.2168
 4460SOL     OW25103   2.687   9.208   9.462  0.0237  0.8904 -0.0007
 4460SOL    HW125104   2.760   9.187   9.521  0.0318  0.1714 -0.2558
 4460SOL    HW225105   2.721   9.190   9.375 -0.2786  1.0984 -0.1629
 4461SOL     OW25106   3.266   1.954   0.880  0.0914 -0.1848  0.0025
 4461SOL    HW125107   3.251   2.049   0.882 -1.4116 -0.4033  0.8558
 4461SOL    HW225108   3.298   1.937   0.792  0.1104  1.0870 -0.2575
 4462SOL     OW25109   6.132   1.955   3.783  0.1246  0.1383  0.3932
 4462SOL    HW125110   6.204   2.017   3.797  1.5579 -1.2895 -0.2395
 4462SOL    HW225111   6.158   1.877   3.832  0.2379 -1.2574 -1.7495
 4463SOL     OW25112  10.821   3.510   0.497  0.2295 -0.1298 -0.4810
 4463SOL    HW125113  10.758   3.555   0.553 -1.0606 -0.0253 -1.9544
 4463SOL    HW225114  10.806   3.417   0.513  1.7259 -0.1302  1.2901
 4464SOL     OW25115   3.544   1.725   2.474 -0.0711  0.4251  0.0653
 4464SOL    HW125116   3.599   1.657   2.436 -0.0461 -0.8231  2.1869
 4464SOL    HW225117   3.457   1.687   2.476  0.1260 -0.0354  2.2201
 4465SOL     OW25118   6.987   7.849   8.298  0.8456  0.4568 -0.4805
 4465SOL    HW125119   6.900   7.832   8.334  0.3366  1.0019 -1.4058
 4465SOL    HW225120   7.014   7.766   8.258 -0.5491  1.0253 -2.7853
 4466SOL     OW25121   4.241   0.515   2.216  0.0632 -0.5204 -0.4659
 4466SOL    HW125122   4.209   0.605   2.222  1.6966  0.1192 -0.8447
 4466SOL    HW225123   4.321   0.521   2.165  0.4853 -2.1330 -0.0582
 4467SOL     OW25124   4.882   8.008  10.634 -0.1324  0.1274  0.4213
 4467SOL    HW125125   4.844   8.069  10.571 -0.2922  0.4007  0.7756
 4467SOL    HW225126   4.976   8.023  10.628 -0.0800 -0.4477 -0.3558
 4468SOL     OW25127   1.184   6.006  11.362 -0.0113  0.1394 -1.2051
 4468SOL    HW125128   1.225   5.931  11.406 -0.0067 -0.2335 -1.8428
 4468SOL    HW225129   1.216   6.082  11.411  1.6587 -0.1233 -1.8338
 4469SOL     OW25130   9.119   4.240   5.981 -0.1539  0.1883  0.9976
 4469SOL    HW125131   9.089   4.233   5.891 -1.9629 -0.3867  1.6094
 4469SOL    HW225132   9.051   4.290   6.026  0.3102 -0.2255  2.2109
 4470SOL     OW25133   3.956   1.707   1.275  0.3077  0.0088  0.2362
 4470SOL    HW125134   4.004   1.657   1.341  1.6713  0.0211 -0.6897
 4470SOL    HW225135   3.865   1.683   1.287  0.7288 -1.2588  1.0436
 4471SOL     OW25136   0.439   2.437   6.792 -0.1545 -0.6410  0.1864
 4471SOL    HW125137   0.509   2.477   6.740 -0.9062 -0.3953 -0.6553
 4471SOL    HW225138   0.389   2.511   6.827 -0.7392 -0.8159 -0.2554
 4472SOL     OW25139   4.473   9.838   5.324  0.1932 -0.3433  0.8972
 4472SOL    HW125140   4.468   9.855   5.418  0.7970  0.7185  0.7491
 4472SOL    HW225141   4.474   9.742   5.317 -2.0996 -0.5027  1.8344
 4473SOL     OW25142   0.620   3.544   9.953  0.0039  0.0861  0.2016
 4473SOL    HW125143   0.603   3.637   9.938 -0.6426 -0.2991 -1.6419
 4473SOL    HW225144   0.712   3.542   9.982 -0.5965  1.4555  2.4686
 4474SOL     OW25145   9.549   5.511   0.144 -0.6385  0.0619 -0.5396
 4474SOL    HW125146   9.607   5.456   0.197  0.0580  1.6084  0.3630
 4474SOL    HW225147   9.555   5.474   0.056  4.2726  1.8953 -1.3025
 4475SOL     OW25148   6.686   9.678   1.104 -0.2587 -0.2776 -0.5716
 4475SOL    HW125149   6.636   9.710   1.179 -3.2481 -1.5728 -1.8728
 4475SOL    HW225150   6.746   9.750   1.083 -1.6247  1.4290  1.0515
 4476SOL     OW25151  11.441   4.053   6.502  0.0379  0.7774  0.2206
 4476SOL    HW125152  11.470   4.144   6.491  0.8877  0.3636 -1.2900
 4476SOL    HW225153  11.511   4.012   6.553  0.0265  0.7980  0.2528
 4477SOL     OW25154   5.532   3.832   0.230 -0.3288 -0.7366  0.1692
 4477SOL    HW125155   5.559   3.842   0.138  0.9041  0.7525  0.6481
 4477SOL    HW225156   5.614   3.815   0.277 -0.9387 -1.4213  1.0269
 4478SOL     OW25157   2.462   6.739   2.757  0.3657  0.1273 -0.2441
 4478SOL    HW125158   2.426   6.699   2.836  1.3057  1.1251  0.7236
 4478SOL    HW225159   2.412   6.820   2.745  0.1807 -0.0521 -0.7147
 4479SOL     OW25160   6.732   1.818   3.993 -0.5782  0.4681  0.1091
 4479SOL    HW125161   6.758   1.726   3.987 -1.0156  0.3609 -0.1720
 4479SOL    HW225162   6.801   1.859   4.045  0.0275  0.1426 -0.4264
 4480SOL     OW25163   0.227   7.062   6.369  0.0242  0.0007  0.1531
 4480SOL    HW125164   0.290   7.096   6.305  0.5270 -0.8451  0.1894
 4480SOL    HW225165   0.275   6.993   6.415 -0.8615 -0.5073  0.3303
 4481SOL     OW25166  11.939   3.538  11.474 -0.0925  0.2018 -0.5488
 4481SOL    HW125167  11.902   3.626  11.468 -0.1260  0.1169 -2.0607
 4481SOL    HW225168  11.906   3.504  11.557 -1.3733  1.0402 -0.6780
 4482SOL     OW25169   2.652   5.935   6.003 -0.1254  0.6671 -0.4786
 4482SOL    HW125170   2.717   5.879   5.960  1.1690  1.3541  0.5078
 4482SOL    HW225171   2.575   5.930   5.946  0.4447 -0.9279 -1.1849
 4483SOL     OW25172   8.927  11.846  11.677 -0.2486 -0.0149 -0.8296
 4483SOL    HW125173   8.925  11.760  11.636 -0.5852 -0.4876  0.1562
 4483SOL    HW225174   8.853  11.894  11.638 -0.7062 -0.5365 -0.6100
 4484SOL     OW25175   4.881   5.169   4.463  0.5157  0.2242 -0.1751
 4484SOL    HW125176   4.804   5.222   4.485  1.3546  1.2066  0.4963
 4484SOL    HW225177   4.931   5.223   4.403 -1.0535 -1.8747 -3.6649
 4485SOL     OW25178  11.581   5.095   7.130  0.0281 -0.0548  0.0026
 4485SOL    HW125179  11.675   5.105   7.144 -0.0235  1.5511 -0.5586
 4485SOL    HW225180  11.543   5.092   7.218  0.5285  0.2838  0.2351
 4486SOL     OW25181  10.769   6.177   9.102  0.5298  0.2287  0.7779
 4486SOL    HW125182  10.804   6.093   9.072  0.0192  0.5081 -0.6882
 4486SOL    HW225183  10.755   6.227   9.022  0.4199  1.5594  1.6035
 4487SOL     OW25184   9.809   6.882   5.257  0.2698 -0.7840 -0.5125
 4487SOL    HW125185   9.879   6.943   5.236  1.1361 -1.1978  1.0295
 4487SOL    HW225186   9.820   6.811   5.195  1.2548 -0.8609 -0.2680
 4488SOL     OW25187   3.573   2.106   0.433 -0.2896  0.6291  0.2550
 4488SOL    HW125188   3.654   2.131   0.388 -0.5345  0.9633  0.0035
 4488SOL    HW225189   3.588   2.132   0.524  0.4478 -0.5911  0.5149
 4489SOL     OW25190  11.145   3.619   9.235  0.0438 -0.2595 -0.0660
 4489SOL    HW125191  11.162   3.661   9.319 -2.2978 -0.7492  0.7383
 4489SOL    HW225192  11.126   3.528   9.257 -3.7180  0.2063 -0.5832
 4490SOL     OW25193   1.858   3.532  11.337 -0.3829  0.4324  0.2518
 4490SOL    HW125194   1.855   3.436  11.344  0.5548  0.1739 -1.9398
 4490SOL    HW225195   1.942   3.556  11.376 -0.8196  0.4229  1.2131
 4491SOL     OW25196   8.888   2.980   6.822 -0.0052  0.0096 -0.1270
 4491SOL    HW125197   8.929   3.043   6.881  0.5821  1.3393 -1.8677
 4491SOL    HW225198   8.851   2.913   6.880  0.1084  1.4843  1.7472
 4492SOL     OW25199   6.737   1.270   3.515 -0.2300 -0.2852 -0.5067
 4492SOL    HW125200   6.761   1.343   3.457 -1.2833 -1.9432 -3.2146
 4492SOL    HW225201   6.818   1.250   3.563  0.1989  2.3094  0.0222
 4493SOL     OW25202   5.031   4.148  10.103  0.1183 -1.0004 -0.3401
 4493SOL    HW125203   5.047   4.238  10.133 -0.0786 -0.4472 -1.8380
 4493SOL    HW225204   5.116   4.105  10.109 -0.0523 -1.1875  1.7693
 4494SOL     OW25205   7.164   5.215   1.755  0.3804 -0.0366  0.3584
 4494SOL    HW125206   7.151   5.263   1.673 -1.0313 -0.6446  0.1935
 4494SOL    HW225207   7.245   5.166   1.741  0.1693 -0.1153 -0.6758
 4495SOL     OW25208  10.352  10.765  11.433 -0.6063  0.0374 -0.8330
 4495SOL    HW125209  10.399  10.798  11.509  0.7619 -0.4927 -1.4222
 4495SOL    HW225210  10.265  10.744  11.467  0.5119 -2.0015  1.0750
 4496SOL     OW25211   0.294   2.759   0.232  0.6155  0.2317 -0.1679
 4496SOL    HW125212   0.203   2.749   0.261  1.3871 -0.7475  2.1030
 4496SOL    HW225213   0.294   2.841   0.183 -1.0205  1.5916  1.9172
 4497SOL     OW25214   5.472  11.925  10.443 -0.3277  0.2910 -0.3261
 4497SOL    HW125215   5.390  11.886  10.412  0.5568  0.0738 -2.6131
 4497SOL    HW225216   5.531  11.850  10.456 -0.1051  0.5322  0.0638
 4498SOL     OW25217   8.284   7.736   8.759  0.5358 -0.2310 -0.0456
 4498SOL    HW125218   8.350   7.710   8.696  1.7835  1.0249  0.6642
 4498SOL    HW225219   8.267   7.658   8.811  0.0417 -1.0700 -1.4280
 4499SOL     OW25220   4.495   9.185   8.086 -0.1864  0.1632 -0.1857
 4499SOL    HW125221   4.421   9.226   8.132  0.9024  3.8223 -1.3492
 4499SOL    HW225222   4.549   9.148   8.156 -1.0562  1.1217  1.0425
 4500SOL     OW25223  10.511   6.653   2.114 -0.1827 -0.9091  0.6115
 4500SOL    HW125224  10.491   6.626   2.204 -1.0305 -0.0993  0.6734
 4500SOL    HW225225  10.555   6.577   2.076 -0.3842 -1.4935  1.5189
 4501SOL     OW25226  10.600   1.250   7.286  0.6685 -0.2969  0.1910
 4501SOL    HW125227  10.669   1.316   7.294  0.7075 -0.3890  0.6412
 4501SOL    HW225228  10.532   1.279   7.347  0.4593 -0.3967  0.0096
 4502SOL     OW25229   7.865   4.411   2.183 -0.1935 -0.8268  0.0204
 4502SOL    HW125230   7.902   4.456   2.107  0.1481 -0.4165  0.4218
 4502SOL    HW225231   7.790   4.465   2.209  1.3510  0.6766  1.6928
 4503SOL     OW25232   9.953   6.118   5.603 -0.4817 -0.1961  0.4580
 4503SOL    HW125233   9.889   6.068   5.553  0.3725 -0.4238 -0.4334
 4503SOL    HW225234  10.035   6.110   5.554 -0.0962  1.2978  0.7946
 4504SOL     OW25235   9.188   2.190   5.308  0.1783 -0.5797  0.3198
 4504SOL    HW125236   9.242   2.243   5.249  0.2212 -2.3396 -1.3149
 4504SOL    HW225237   9.141   2.131   5.250 -1.1761 -1.1855  1.9574
 4505SOL     OW25238  10.312   3.304   5.112  0.4960 -0.4018 -0.8658
 4505SOL    HW125239  10.346   3.220   5.142  0.7293  0.4380  1.4880
 4505SOL    HW225240  10.250   3.282   5.043  1.0400 -2.4344 -0.7790
 4506SOL     OW25241  11.621   6.959   1.918  0.2851 -0.2580 -0.5446
 4506SOL    HW125242  11.702   6.919   1.887  0.0569 -0.3121 -1.0688
 4506SOL    HW225243  11.595   7.019   1.848  0.5536  0.7236  0.1592
 4507SOL     OW25244   8.302   6.775   7.211 -0.2365 -0.1989  0.2622
 4507SOL    HW125245   8.341   6.743   7.129 -0.9809 -1.8346  0.4954
 4507SOL    HW225246   8.213   6.800   7.186  0.5124  2.4242 -0.0394
 4508SOL     OW25247   0.999   2.726   5.207 -0.3350 -0.2066 -0.3959
 4508SOL    HW125248   0.904   2.740   5.199 -0.2143  0.4726 -0.6775
 4508SOL    HW225249   1.036   2.766   5.129 -0.0787 -3.6477 -2.2698
 4509SOL     OW25250   4.218   9.677  10.540 -0.1686  0.0104  0.2023
 4509SOL    HW125251   4.312   9.656  10.535  0.4341  2.5507 -1.2007
 4509SOL    HW225252   4.192   9.690  10.449 -1.7446 -0.1128  0.6206
 4510SOL     OW25253  11.569   2.442  10.850  0.0579 -0.0222  0.2529
 4510SOL    HW125254  11.570   2.478  10.761 -0.9194  1.2408  0.7153
 4510SOL    HW225255  11.661   2.427  10.871  0.3372  0.1638 -0.7772
 4511SOL     OW25256   9.006   8.819   0.175  0.0437  0.4432  0.5988
 4511SOL    HW125257   8.970   8.823   0.263  0.8299  2.7479  0.8724
 4511SOL    HW225258   8.930   8.803   0.119 -0.6467  0.1898  1.5835
 4512SOL     OW25259   5.924  11.867   3.150  0.4473  0.0500  0.1506
 4512SOL    HW125260   5.897  11.956   3.176 -1.1582 -0.4885  0.4649
 4512SOL    HW225261   5.864  11.809   3.198 -0.7083 -1.1014 -2.4747
 4513SOL     OW25262   0.317   5.673   2.378 -0.2256  0.0403 -0.0550
 4513SOL    HW125263   0.388   5.695   2.317 -1.1096  2.1894 -0.4016
 4513SOL    HW225264   0.320   5.578   2.384  0.8639 -0.1463 -2.3062
 4514SOL     OW25265   8.001   9.083   8.091 -0.0749 -0.0201 -0.0558
 4514SOL    HW125266   7.939   9.014   8.112 -0.5384  0.5074  0.3164
 4514SOL    HW225267   8.041   9.106   8.175  0.5358 -0.2564 -0.2685
 4515SOL     OW25268   0.758   8.571  10.913  0.3469 -0.9463  0.0835
 4515SOL    HW125269   0.750   8.543  11.004  2.9588  1.8176  1.3659
 4515SOL    HW225270   0.696   8.643  10.905  1.9811  0.6132  0.6522
 4516SOL     OW25271   9.499   6.782  11.811 -0.1504  0.3325  0.4966
 4516SOL    HW125272   9.565   6.713  11.815 -1.3638 -0.8848  0.4965
 4516SOL    HW225273   9.463   6.776  11.722 -0.4705  0.7710  0.5916
 4517SOL     OW25274   7.261   3.419   4.026  0.1413 -0.0282  0.2786
 4517SOL    HW125275   7.293   3.356   3.961 -0.1964 -1.0961  1.1263
 4517SOL    HW225276   7.179   3.381   4.059 -0.3087  1.0838  0.4750
 4518SOL     OW25277   7.989  10.005   3.057 -0.6293 -0.6074 -0.2037
 4518SOL    HW125278   8.059   9.963   3.006 -0.0086 -2.7226  2.1680
 4518SOL    HW225279   7.930   9.933   3.078 -0.9479  0.1988  1.8407
 4519SOL     OW25280   4.365   7.557   4.413 -0.0572  0.0246 -0.2865
 4519SOL    HW125281   4.311   7.608   4.473 -0.7001 -0.7653 -0.1840
 4519SOL    HW225282   4.335   7.583   4.326  0.6520  0.9289 -0.2723
 4520SOL     OW25283   3.156  10.085   0.034 -0.3566 -0.2141 -0.1041
 4520SOL    HW125284   3.150   9.997  -0.003 -3.1449  0.2568 -1.0546
 4520SOL    HW225285   3.130  10.073   0.125  0.0889 -0.4734 -0.0059
 4521SOL     OW25286   1.046   7.662   9.756  0.0695  0.1667  0.9574
 4521SOL    HW125287   1.019   7.573   9.735 -1.1346  0.5557  0.8107
 4521SOL    HW225288   1.115   7.651   9.822 -0.0243 -0.8653  0.8970
 4522SOL     OW25289  11.601   3.800   0.494 -0.6703  0.4950 -0.0792
 4522SOL    HW125290  11.514   3.793   0.535 -0.7810  1.7381 -0.0414
 4522SOL    HW225291  11.595   3.880   0.442  0.4177  0.5076 -0.1893
 4523SOL     OW25292   2.635   9.562   6.218  0.1313  0.1385  0.0457
 4523SOL    HW125293   2.653   9.468   6.211  0.1370 -0.0178  1.6630
 4523SOL    HW225294   2.563   9.578   6.158  1.9543 -0.3078 -2.4269
 4524SOL     OW25295   6.112   6.869   3.697 -0.2719  0.7011 -0.0728
 4524SOL    HW125296   6.055   6.870   3.773 -0.8896  0.8714 -0.5297
 4524SOL    HW225297   6.053   6.855   3.623  0.2701  0.9185 -0.5552
 4525SOL     OW25298   9.446  10.444   7.162  0.3581 -0.0111 -0.1398
 4525SOL    HW125299   9.504  10.411   7.094  0.8433  0.7030 -0.0884
 4525SOL    HW225300   9.439  10.538   7.144  0.6507  0.2262  0.9097
 4526SOL     OW25301  10.628   6.188   2.119 -0.5502 -0.5697 -0.0083
 4526SOL    HW125302  10.605   6.281   2.107  1.6725  0.2308  1.3891
 4526SOL    HW225303  10.577   6.143   2.052 -1.9519  1.6080 -0.5397
 4527SOL     OW25304  10.683   3.663   0.024 -0.6353 -0.4717  0.1896
 4527SOL    HW125305  10.770   3.685  -0.009 -1.2276 -0.9121 -1.7686
 4527SOL    HW225306  10.682   3.697   0.114  1.8263 -1.1937  0.5596
 4528SOL     OW25307   5.404   1.045   3.414  0.4585  0.1997 -0.6004
 4528SOL    HW125308   5.354   1.120   3.384  1.7599  1.2044 -0.3449
 4528SOL    HW225309   5.495   1.065   3.392  0.6632 -2.1926 -2.3271
 4529SOL     OW25310   2.333   2.390   2.940  0.2034 -0.3321  0.5757
 4529SOL    HW125311   2.342   2.481   2.967  2.1079 -0.5596  0.8047
 4529SOL    HW225312   2.420   2.352   2.953 -0.2410 -1.8704 -0.6651
 4530SOL     OW25313   3.543   8.702   9.105  0.0943 -0.1728 -0.0643
 4530SOL    HW125314   3.561   8.752   9.025  0.3143  1.2601  0.8495
 4530SOL    HW225315   3.628   8.668   9.131  0.3050  0.7219  0.4352
 4531SOL     OW25316   1.701   5.230   5.509  0.7292  0.0983 -0.5819
 4531SOL    HW125317   1.623   5.277   5.540 -0.2735 -1.3116 -0.9021
 4531SOL    HW225318   1.722   5.272   5.426 -1.6692 -1.5596 -2.1306
 4532SOL     OW25319   5.772   3.355   6.807  0.0313  0.5357  0.3366
 4532SOL    HW125320   5.747   3.325   6.720  0.8727 -0.3553  0.3911
 4532SOL    HW225321   5.862   3.325   6.819  0.1055  1.0775  1.3220
 4533SOL     OW25322   7.883  11.360  11.486 -0.4700 -0.7920 -0.7677
 4533SOL    HW125323   7.898  11.271  11.517 -1.2790 -0.7735 -0.2924
 4533SOL    HW225324   7.789  11.365  11.470 -0.4293 -0.0389 -0.8427
 4534SOL     OW25325   8.155   5.835   7.834  0.0055  0.2403 -0.1917
 4534SOL    HW125326   8.115   5.913   7.795  0.7433  0.3342 -0.7910
 4534SOL    HW225327   8.148   5.768   7.766 -0.8582 -0.2984  0.4181
 4535SOL     OW25328   2.096  11.684   4.316 -0.1694  0.3428 -0.1619
 4535SOL    HW125329   2.190  11.702   4.313  0.2695 -1.7889 -0.9964
 4535SOL    HW225330   2.055  11.760   4.275  1.1097  1.5831  0.7675
 4536SOL     OW25331   5.564   9.641   7.920 -0.2244  0.1161 -0.3553
 4536SOL    HW125332   5.654   9.620   7.943 -0.1064 -0.8765 -1.6824
 4536SOL    HW225333   5.518   9.643   8.004  0.8542 -0.1883  0.2555
 4537SOL     OW25334  11.333   9.219   6.572  0.1234  0.1117 -0.2274
 4537SOL    HW125335  11.292   9.233   6.487 -1.0717 -0.2222  0.2760
 4537SOL    HW225336  11.344   9.124   6.579 -0.8217  0.0361  0.4426
 4538SOL     OW25337   3.434  11.680   9.757 -0.2005  0.5073 -0.0758
 4538SOL    HW125338   3.472  11.674   9.670  1.5931  0.8632  0.6428
 4538SOL    HW225339   3.439  11.590   9.791 -1.0200  0.3417 -0.3623
 4539SOL     OW25340   5.544   2.504   0.138 -0.0905 -0.0866  0.2042
 4539SOL    HW125341   5.572   2.423   0.180  1.2866  1.0446  1.6401
 4539SOL    HW225342   5.620   2.532   0.087 -0.2285  0.7107  0.4192
 4540SOL     OW25343   7.043   3.905   5.107  0.0838  0.2486  0.0696
 4540SOL    HW125344   7.013   3.833   5.051 -0.0204  0.4286 -0.1079
 4540SOL    HW225345   7.135   3.885   5.124  0.8452  1.4389 -2.1956
 4541SOL     OW25346   5.860   7.169   3.106 -0.2400 -0.0622 -0.4076
 4541SOL    HW125347   5.829   7.085   3.141 -0.1117 -0.2178 -0.6631
 4541SOL    HW225348   5.859   7.156   3.011 -1.1452  0.5503 -0.4908
 4542SOL     OW25349   1.378   4.425   5.147  0.0225 -0.2476  0.2154
 4542SOL    HW125350   1.470   4.448   5.146 -0.6615  3.0084  0.9442
 4542SOL    HW225351   1.373   4.351   5.208  2.1555 -0.8715 -0.2767
 4543SOL     OW25352   8.103   0.817   1.600  0.1599 -0.4387 -0.2833
 4543SOL    HW125353   8.061   0.773   1.674 -0.3916  2.0853  1.0350
 4543SOL    HW225354   8.145   0.747   1.550 -0.3405 -2.3534  1.8351
 4544SOL     OW25355   9.779   1.492   0.854  0.1492  0.0292  0.4016
 4544SOL    HW125356   9.821   1.424   0.800 -0.4822 -0.1783  0.1661
 4544SOL    HW225357   9.710   1.446   0.901 -1.1751  0.7418 -0.7689
 4545SOL     OW25358  10.536   8.372   2.816  0.0598  0.5551 -0.0843
 4545SOL    HW125359  10.484   8.446   2.847 -1.6384 -0.2411 -0.8936
 4545SOL    HW225360  10.625   8.392   2.845 -0.0447  3.6037 -1.4405
 4546SOL     OW25361   2.836   5.093   1.788 -0.1535 -0.2577  0.2392
 4546SOL    HW125362   2.821   5.178   1.748  1.0768 -1.2055 -2.4195
 4546SOL    HW225363   2.919   5.102   1.835 -0.1963  0.0809  0.2486
 4547SOL     OW25364   9.606   9.504   8.456  0.1060  0.1249  0.0624
 4547SOL    HW125365   9.666   9.448   8.506  1.2909 -0.0375 -1.4329
 4547SOL    HW225366   9.525   9.503   8.505  0.5844 -1.6543  0.9036
 4548SOL     OW25367   2.654   8.885   4.334  0.4347  0.2587  0.1368
 4548SOL    HW125368   2.582   8.845   4.284  0.8974 -2.1518  1.2604
 4548SOL    HW225369   2.614   8.909   4.417  0.5475  0.5392  0.1079
 4549SOL     OW25370   4.243   9.067   3.446  0.0423  0.2372  0.0424
 4549SOL    HW125371   4.158   9.039   3.481  0.4257 -0.0830  0.7596
 4549SOL    HW225372   4.230   9.158   3.420 -1.4612 -0.7314 -3.0803
 4550SOL     OW25373   6.312   5.117   0.822 -0.2958 -0.3939 -0.2385
 4550SOL    HW125374   6.321   5.153   0.910 -0.3458  0.5310 -0.6022
 4550SOL    HW225375   6.220   5.131   0.800 -0.3394 -0.8376 -0.3500
 4551SOL     OW25376   1.917   4.891   1.748  0.2827  0.3399 -0.6674
 4551SOL    HW125377   1.966   4.930   1.675  0.4231 -3.2523 -2.6870
 4551SOL    HW225378   1.980   4.834   1.791 -0.8416 -0.5293 -0.1504
 4552SOL     OW25379   8.952   6.428   7.408 -0.4835  0.3454 -0.5115
 4552SOL    HW125380   8.893   6.500   7.385  2.2165  3.3760  1.0833
 4552SOL    HW225381   8.949   6.424   7.503  2.2691  1.1322 -0.3061
 4553SOL     OW25382  10.450   5.340   7.172  0.9022  0.5278  0.4156
 4553SOL    HW125383  10.493   5.424   7.190  1.3597  0.4953 -0.4543
 4553SOL    HW225384  10.496   5.306   7.095  0.5521 -0.4060  0.6059
 4554SOL     OW25385   3.899   8.448   7.059 -0.2910  0.2833  0.4551
 4554SOL    HW125386   3.887   8.507   7.133  1.0586  0.4839  0.5272
 4554SOL    HW225387   3.896   8.360   7.098  0.5606  0.3937  0.7715
 4555SOL     OW25388   4.339   3.020   5.814  0.9176 -0.4687 -0.0293
 4555SOL    HW125389   4.420   3.064   5.788  0.6116 -0.2690 -0.6562
 4555SOL    HW225390   4.341   3.021   5.910  0.3562  1.9827  0.0214
 4556SOL     OW25391   9.754   2.732   6.381 -0.2358  0.0935 -0.7154
 4556SOL    HW125392   9.807   2.679   6.440 -1.4814 -0.1189  0.2469
 4556SOL    HW225393   9.677   2.756   6.432 -0.7714  0.9357 -1.8669
 4557SOL     OW25394  11.774   2.553   3.372  0.2926 -0.2799 -0.1571
 4557SOL    HW125395  11.859   2.511   3.376 -0.2289 -1.2462  1.8152
 4557SOL    HW225396  11.759   2.588   3.459 -1.5340 -0.5956 -0.2835
 4558SOL     OW25397  10.848  11.368   9.355  0.0607 -0.2980  0.9355
 4558SOL    HW125398  10.822  11.441   9.298  0.1564 -0.9074  0.0820
 4558SOL    HW225399  10.854  11.406   9.442 -1.3075  0.3933  0.7509
 4559SOL     OW25400   7.559   5.017   5.115  0.1132 -0.2549  0.1334
 4559SOL    HW125401   7.483   4.964   5.094  0.0191 -0.1212  0.1336
 4559SOL    HW225402   7.574   5.071   5.038 -0.2782  0.2861  0.4238
 4560SOL     OW25403   7.837   3.467   2.749  0.0014 -0.8363  0.0562
 4560SOL    HW125404   7.876   3.412   2.681 -0.2823  1.7883 -2.3663
 4560SOL    HW225405   7.850   3.557   2.719  0.0609  0.5089  3.6292
 4561SOL     OW25406  10.836   4.943   7.146  0.3182 -0.1028  0.0171
 4561SOL    HW125407  10.817   4.996   7.224  1.8110 -0.9210  0.9707
 4561SOL    HW225408  10.751   4.904   7.123 -0.4143  1.1792  0.4183
 4562SOL     OW25409   6.176   2.638   1.843  0.0231 -0.2416  0.0034
 4562SOL    HW125410   6.234   2.711   1.867  0.8255 -0.7197 -0.4509
 4562SOL    HW225411   6.168   2.644   1.748 -0.8869 -0.0385  0.0770
 4563SOL     OW25412   2.000   2.101   7.882 -0.2412 -0.2057  0.3381
 4563SOL    HW125413   1.953   2.128   7.803 -1.6181 -0.1890  1.1193
 4563SOL    HW225414   2.010   2.006   7.874  1.4196  0.0146 -0.7514
 4564SOL     OW25415   7.450   2.761   3.979  0.1999  0.5615 -0.2847
 4564SOL    HW125416   7.493   2.766   4.065 -0.9467 -1.6319  0.4875
 4564SOL    HW225417   7.496   2.826   3.926  1.3923  1.5201  1.7843
 4565SOL     OW25418   0.448   2.338   0.436  0.1954  0.5772  0.3363
 4565SOL    HW125419   0.360   2.331   0.400  0.9273  1.7535 -1.8685
 4565SOL    HW225420   0.474   2.428   0.419  2.2851 -0.0803 -0.2591
 4566SOL     OW25421   6.245   3.039   6.891 -0.0673  0.4609  0.2392
 4566SOL    HW125422   6.316   2.980   6.868 -1.2360 -0.2321 -1.8610
 4566SOL    HW225423   6.266   3.120   6.845 -0.3407  0.4349  0.0672
 4567SOL     OW25424   2.614   8.027   8.094  0.4375 -0.1027 -0.2583
 4567SOL    HW125425   2.627   7.963   8.024  2.0513 -0.0204 -0.0844
 4567SOL    HW225426   2.588   8.107   8.049  2.3121  0.1978 -0.9013
 4568SOL     OW25427   3.802   7.702   8.381 -0.2822  0.4218 -0.5068
 4568SOL    HW125428   3.709   7.721   8.392 -0.3850 -0.6749  0.7487
 4568SOL    HW225429   3.847   7.769   8.433 -0.3110  1.1614 -1.3832
 4569SOL     OW25430   0.567   6.749   9.642  0.2777  0.6225 -0.2157
 4569SOL    HW125431   0.516   6.807   9.584 -1.9458  0.2522  1.2202
 4569SOL    HW225432   0.571   6.797   9.725  1.8097  0.3445 -0.1022
 4570SOL     OW25433  10.381   4.940   7.297 -0.4636  0.1609 -0.2033
 4570SOL    HW125434  10.439   4.922   7.223 -0.6415 -0.8914 -0.1148
 4570SOL    HW225435  10.327   4.861   7.304 -1.2171  0.7106  0.3443
 4571SOL     OW25436   0.014   8.785  10.320  0.4819 -0.0200 -0.5399
 4571SOL    HW125437   0.045   8.705  10.362 -1.2588  0.0164  0.9486
 4571SOL    HW225438  -0.002   8.846  10.392 -1.1382  0.5789 -1.3430
 4572SOL     OW25439   4.388   5.080   5.708  0.5723  0.3409 -0.0080
 4572SOL    HW125440   4.349   4.993   5.720  0.1526  0.2552 -1.7477
 4572SOL    HW225441   4.313   5.138   5.694  0.9702  0.4165 -1.9969
 4573SOL     OW25442   4.908   9.830  11.728  0.3205  0.4891 -0.7758
 4573SOL    HW125443   4.828   9.857  11.774 -0.1186  1.5535 -2.1104
 4573SOL    HW225444   4.926   9.901  11.666  0.9754 -0.7889 -2.1249
 4574SOL     OW25445   0.055  10.795  10.677  0.6252  0.7791  0.0647
 4574SOL    HW125446  -0.015  10.732  10.660  0.2282  0.3947  2.7460
 4574SOL    HW225447   0.028  10.874  10.629 -1.6972  0.6408  1.0381
 4575SOL     OW25448   7.625   7.952   6.345  0.0965 -0.2873  0.0280
 4575SOL    HW125449   7.665   8.018   6.403  0.1256 -1.2172  1.1036
 4575SOL    HW225450   7.681   7.951   6.268 -0.3965  1.5569 -0.3994
 4576SOL     OW25451   0.899   5.209   2.850 -0.4915 -0.0369  0.5982
 4576SOL    HW125452   0.892   5.263   2.772  1.4220  0.3387  0.6463
 4576SOL    HW225453   0.827   5.146   2.842  1.2869 -1.9182 -2.9730
 4577SOL     OW25454  11.361   1.640   3.742 -0.4125 -0.4808  0.0728
 4577SOL    HW125455  11.343   1.555   3.781  0.2514 -0.5465  0.2465
 4577SOL    HW225456  11.372   1.623   3.649  0.1794 -0.6620  0.1711
 4578SOL     OW25457   0.681   8.648   4.766  0.2644 -0.2378 -0.1809
 4578SOL    HW125458   0.745   8.661   4.697 -0.0156  2.0950 -0.0807
 4578SOL    HW225459   0.708   8.707   4.836 -1.2512 -0.1550  0.3826
 4579SOL     OW25460   5.146  10.635   1.159 -0.4326 -0.0977  0.3166
 4579SOL    HW125461   5.241  10.627   1.150 -0.4343  1.1955 -1.5614
 4579SOL    HW225462   5.134  10.697   1.231  0.2477  1.2471 -0.6905
 4580SOL     OW25463   1.832   5.369   0.087  0.2788  0.0086 -0.8064
 4580SOL    HW125464   1.909   5.313   0.079  0.5469 -0.0254  1.3966
 4580SOL    HW225465   1.860   5.441   0.143 -1.4879 -0.5252  0.9042
 4581SOL     OW25466   5.165  11.051  10.135  0.1415  0.5349  0.3707
 4581SOL    HW125467   5.242  11.045  10.192 -0.9235  0.5532  1.8624
 4581SOL    HW225468   5.127  10.963  10.137  0.0296  0.5668 -0.2243
 4582SOL     OW25469   1.424  11.340   4.737  0.8721  0.2466  0.1606
 4582SOL    HW125470   1.395  11.421   4.779  0.8203  1.0394 -1.3369
 4582SOL    HW225471   1.518  11.352   4.724  0.7134  0.4904 -0.8933
 4583SOL     OW25472   4.140   1.693   5.067  0.0998  0.1003  0.1215
 4583SOL    HW125473   4.086   1.770   5.049  1.6563  1.0312 -0.8651
 4583SOL    HW225474   4.181   1.711   5.151  0.0875  0.1168  0.1237
 4584SOL     OW25475   6.461   4.487  11.890  0.3218 -0.0655 -0.2732
 4584SOL    HW125476   6.547   4.520  11.863 -0.7744  3.5828  0.0605
 4584SOL    HW225477   6.465   4.487  11.986 -0.1904  0.7880 -0.2366
 4585SOL     OW25478   2.444   2.263   2.553  0.0254  0.2493  0.2697
 4585SOL    HW125479   2.511   2.194   2.554 -0.6698 -0.4497  1.5691
 4585SOL    HW225480   2.476   2.329   2.615 -0.2144  0.1768  0.4737
 4586SOL     OW25481   4.389   2.083   4.326  0.2657 -0.1194 -0.4730
 4586SOL    HW125482   4.473   2.040   4.338 -0.2402 -0.8334  0.6886
 4586SOL    HW225483   4.405   2.150   4.259  1.9677  0.3726  0.3690
 4587SOL     OW25484   5.540   1.382   8.119 -0.0792 -0.4693 -0.1714
 4587SOL    HW125485   5.490   1.447   8.070  0.3523 -0.1994 -0.2537
 4587SOL    HW225486   5.544   1.306   8.061  1.9847  0.4718 -1.3288
 4588SOL     OW25487   9.905   6.007   4.675 -0.0033  0.2065  0.0033
 4588SOL    HW125488   9.861   6.011   4.759  1.0724 -2.0666  0.7493
 4588SOL    HW225489   9.851   6.061   4.617 -2.7589 -0.9864  1.2765
 4589SOL     OW25490   2.614   5.795  10.709 -0.1442 -0.2262  0.1745
 4589SOL    HW125491   2.573   5.834  10.632  4.2711  0.1446 -2.3307
 4589SOL    HW225492   2.596   5.702  10.701 -0.8138 -0.0391 -0.6152
 4590SOL     OW25493   8.133   4.724   4.593  0.6254  0.2895 -0.3586
 4590SOL    HW125494   8.201   4.759   4.651 -0.0063  1.7603 -0.4773
 4590SOL    HW225495   8.113   4.795   4.532 -1.8513  0.3319  0.3919
 4591SOL     OW25496  11.956   6.861   6.528  0.1700 -0.4103  0.0845
 4591SOL    HW125497  11.941   6.954   6.510 -1.4441  0.0265  3.1201
 4591SOL    HW225498  12.047   6.857   6.557 -0.2211  0.5487  1.5309
 4592SOL     OW25499   0.343   5.361  11.008 -0.1491 -0.2176  0.0175
 4592SOL    HW125500   0.348   5.399  11.095 -0.2190  0.5831 -0.3240
 4592SOL    HW225501   0.381   5.427  10.950 -0.5938 -0.5152 -0.6262
 4593SOL     OW25502   3.508   1.484   5.650 -0.3693 -0.8270 -0.1742
 4593SOL    HW125503   3.486   1.392   5.638 -1.1092 -0.7949  0.7528
 4593SOL    HW225504   3.568   1.485   5.725  0.1213 -0.6067 -0.5669
 4594SOL     OW25505   5.786   2.149   0.800  0.5471 -0.3814  0.1631
 4594SOL    HW125506   5.724   2.155   0.727 -0.6305 -1.6675  0.9970
 4594SOL    HW225507   5.798   2.055   0.813  2.7405 -0.1656  0.0208
 4595SOL     OW25508  10.148   6.265   5.903  0.1532  0.2981 -0.1156
 4595SOL    HW125509  10.216   6.243   5.840 -0.7304 -1.4955 -0.4898
 4595SOL    HW225510  10.183   6.239   5.988 -0.1809 -0.9619 -0.3511
 4596SOL     OW25511   4.419  10.185   8.973 -0.2385  0.1873 -0.3097
 4596SOL    HW125512   4.435  10.279   8.960  0.2668  0.3944  1.4883
 4596SOL    HW225513   4.495  10.142   8.935 -1.3295  0.3195 -2.8463
 4597SOL     OW25514  11.400  11.101   6.058  0.2340 -0.3242 -0.2270
 4597SOL    HW125515  11.411  11.190   6.091 -0.3786 -0.2109 -0.3321
 4597SOL    HW225516  11.335  11.061   6.117  0.4003 -0.6591 -0.2662
 4598SOL     OW25517   7.275   7.753   1.832  0.3764  0.1032  0.4038
 4598SOL    HW125518   7.271   7.697   1.754  0.4688  1.5014 -0.6590
 4598SOL    HW225519   7.184   7.779   1.848  0.4172  0.2324  0.4297
 4599SOL     OW25520  10.597  10.228   3.627  0.2860 -0.1515  0.4562
 4599SOL    HW125521  10.687  10.206   3.651  0.0011 -1.3852  0.4798
 4599SOL    HW225522  10.605  10.298   3.562  1.3107 -1.0734 -0.4313
 4600SOL     OW25523   3.455   3.829  10.049 -0.1507  0.2064  0.4385
 4600SOL    HW125524   3.384   3.771  10.022  0.1175  0.6899 -1.4663
 4600SOL    HW225525   3.477   3.879   9.970 -0.2309  2.7820  1.9124
 4601SOL     OW25526  11.491   8.818   5.449  0.2637  0.3294 -0.0264
 4601SOL    HW125527  11.439   8.893   5.478  0.8921  0.4342  0.9000
 4601SOL    HW225528  11.581   8.843   5.470  0.3858 -1.1391  1.4135
 4602SOL     OW25529   3.701   5.456   7.357  0.8912 -0.1547 -0.1911
 4602SOL    HW125530   3.676   5.366   7.336  1.9297 -0.7397  0.9362
 4602SOL    HW225531   3.780   5.471   7.305  1.7084 -0.5332  0.8935
 4603SOL     OW25532   1.112   3.732   5.052  0.1792 -0.2153  0.1170
 4603SOL    HW125533   1.151   3.803   5.002 -0.1199  1.1841  1.7786
 4603SOL    HW225534   1.062   3.682   4.988 -1.1866  2.1990 -0.8166
 4604SOL     OW25535   6.191   7.685  10.429  1.1288  0.1540 -0.2685
 4604SOL    HW125536   6.250   7.724  10.493  0.2111  0.5491  0.3436
 4604SOL    HW225537   6.119   7.649  10.480  1.0584 -0.7289 -0.9733
 4605SOL     OW25538   8.940   8.018   8.358 -0.1563 -0.5043 -0.3658
 4605SOL    HW125539   9.010   7.965   8.320 -1.0736 -1.3883 -0.8563
 4605SOL    HW225540   8.917   7.973   8.439  1.9164  1.4662  1.4793
 4606SOL     OW25541   5.333   9.214   8.392 -0.2159  0.2076 -0.0659
 4606SOL    HW125542   5.415   9.184   8.354  0.3115 -0.6264  1.6163
 4606SOL    HW225543   5.327   9.306   8.368  0.4069 -0.1187 -1.5361
 4607SOL     OW25544   6.501  10.095   5.523 -0.2626 -0.3155  0.0885
 4607SOL    HW125545   6.460  10.172   5.561  0.9087  0.8197 -0.8485
 4607SOL    HW225546   6.478  10.099   5.430 -1.3800 -1.9160  0.2587
 4608SOL     OW25547   9.769  10.166  11.220  0.0073 -0.3464  0.5205
 4608SOL    HW125548   9.720  10.145  11.140  1.1854  0.7183 -0.5295
 4608SOL    HW225549   9.748  10.095  11.281 -0.7927 -1.2739 -0.7858
 4609SOL     OW25550   8.325   5.609   0.165 -0.0647 -0.5384  0.1454
 4609SOL    HW125551   8.381   5.600   0.242  0.0808 -2.0950 -0.1032
 4609SOL    HW225552   8.381   5.649   0.099  1.1024 -2.7845 -0.3541
 4610SOL     OW25553   5.447   9.917   9.791 -0.1741  0.0763  0.2963
 4610SOL    HW125554   5.365   9.910   9.742  0.2061  2.0980 -0.7739
 4610SOL    HW225555   5.452   9.837   9.843 -2.5167 -0.3622 -0.0644
 4611SOL     OW25556   1.168  10.024   8.933  0.2111  0.0476 -0.4033
 4611SOL    HW125557   1.154  10.099   8.991  1.8578  0.1205 -0.0417
 4611SOL    HW225558   1.094   9.966   8.950 -0.0449  0.6885  0.7847
 4612SOL     OW25559   3.538   6.219   3.870  0.3274  0.0089 -0.6354
 4612SOL    HW125560   3.476   6.166   3.919 -0.1927  3.2631  2.6516
 4612SOL    HW225561   3.484   6.272   3.812  0.2922  0.7233  0.0398
 4613SOL     OW25562   1.894  11.805   3.373  0.4638  0.4588 -0.6185
 4613SOL    HW125563   1.876  11.893   3.405 -0.2597  0.1341 -0.1236
 4613SOL    HW225564   1.983  11.811   3.336  0.1951  1.5304 -1.1259
 4614SOL     OW25565  11.650   3.472   1.002  0.3550 -0.1319 -0.0494
 4614SOL    HW125566  11.578   3.462   0.940 -0.3043  2.7949  0.0638
 4614SOL    HW225567  11.613   3.447   1.087 -0.4377  0.9131 -0.0632
 4615SOL     OW25568   1.615   0.755   3.058 -0.2919 -0.4471 -0.7694
 4615SOL    HW125569   1.663   0.837   3.064  1.2112 -1.3934  1.5016
 4615SOL    HW225570   1.605   0.740   2.963  3.9232 -0.1430 -1.4685
 4616SOL     OW25571   6.390   3.401   8.367  0.3199 -0.7203  0.0069
 4616SOL    HW125572   6.403   3.313   8.332  1.5836 -0.8735  0.7932
 4616SOL    HW225573   6.385   3.388   8.462 -0.5371 -0.0467  0.0627
 4617SOL     OW25574   8.316  10.207   2.511 -0.4758 -0.1484 -0.2337
 4617SOL    HW125575   8.334  10.284   2.564  1.3236 -0.2922 -0.5761
 4617SOL    HW225576   8.346  10.134   2.565  0.1259 -0.4032 -0.9119
 4618SOL     OW25577   7.257   0.554   1.130 -0.5296 -0.6211  0.1514
 4618SOL    HW125578   7.270   0.617   1.060  0.6747 -0.1500  0.7737
 4618SOL    HW225579   7.170   0.575   1.165 -1.0104 -0.6672 -0.9740
 4619SOL     OW25580   1.854   1.019   2.258 -0.4585 -0.4709 -0.3821
 4619SOL    HW125581   1.834   1.093   2.315  0.1917 -0.5177 -0.0767
 4619SOL    HW225582   1.817   0.943   2.302  0.0580 -0.5093 -0.0012
 4620SOL     OW25583   8.722   5.979   8.185 -0.1465 -0.0889  0.6401
 4620SOL    HW125584   8.746   5.962   8.094  0.5676 -1.1402  1.0050
 4620SOL    HW225585   8.642   6.031   8.179 -0.2983 -0.4280 -0.5812
 4621SOL     OW25586  11.667   6.845   9.603  1.1255  0.9675 -0.1761
 4621SOL    HW125587  11.742   6.831   9.545  0.2814  0.7223 -1.2585
 4621SOL    HW225588  11.618   6.763   9.597  0.4926  1.3273  0.0806
 4622SOL     OW25589   5.447   3.013  11.776  0.0315  0.2012  0.1942
 4622SOL    HW125590   5.464   2.921  11.755  1.1714  0.7399 -1.4253
 4622SOL    HW225591   5.423   3.053  11.693  1.3435  1.7464  0.5049
 4623SOL     OW25592   4.742   3.359  11.019  0.3974 -0.0876  0.5410
 4623SOL    HW125593   4.829   3.389  11.043 -0.7446  2.1600  2.2551
 4623SOL    HW225594   4.739   3.369  10.923  1.8341  0.2978  0.5136
 4624SOL     OW25595   2.673   6.136   4.682  0.8438  0.4840 -0.3592
 4624SOL    HW125596   2.591   6.175   4.714  1.2871 -1.4609  3.7051
 4624SOL    HW225597   2.644   6.066   4.624 -0.3810  0.2262  0.5095
 4625SOL     OW25598  10.633   9.222   5.405  0.1299  0.4947  0.1193
 4625SOL    HW125599  10.542   9.238   5.431 -0.4716 -1.0803 -0.9080
 4625SOL    HW225600  10.684   9.266   5.473 -1.3856  0.0192  1.6596
 4626SOL     OW25601   7.547   4.622   0.390  0.4523 -0.1464 -0.4041
 4626SOL    HW125602   7.630   4.577   0.380  0.3020 -0.7138  0.7048
 4626SOL    HW225603   7.569   4.706   0.431  0.3343 -1.1576  1.8945
 4627SOL     OW25604   3.942   2.686  11.184  0.2092  0.2053  0.0412
 4627SOL    HW125605   3.965   2.695  11.092  1.0392  0.1902  0.2353
 4627SOL    HW225606   4.003   2.619  11.217 -0.3995 -0.1383  0.4875
 4628SOL     OW25607   4.918   7.158   1.313 -0.1948  0.0504 -0.4756
 4628SOL    HW125608   4.854   7.215   1.269  0.2501 -0.5070 -1.8930
 4628SOL    HW225609   5.003   7.194   1.288  0.0728 -0.2838 -0.0555
 4629SOL     OW25610  10.709   2.542   9.756 -0.3547 -0.2476  0.0080
 4629SOL    HW125611  10.647   2.497   9.698 -0.6941  1.5333 -1.0888
 4629SOL    HW225612  10.744   2.472   9.811 -2.4970 -1.5017 -0.0772
 4630SOL     OW25613   0.842  11.852  11.322 -0.0274 -0.1098 -0.4119
 4630SOL    HW125614   0.906  11.923  11.317 -0.9202  0.8667  1.1625
 4630SOL    HW225615   0.821  11.846  11.416 -0.1898 -2.2701 -0.5353
 4631SOL     OW25616   8.725   6.780  10.127  0.6871 -0.1528 -0.1139
 4631SOL    HW125617   8.747   6.731  10.207 -0.5108 -1.0789 -0.3230
 4631SOL    HW225618   8.665   6.848  10.157  1.4553  0.4909 -0.0026
 4632SOL     OW25619   3.326   8.008   6.910  0.0731  0.1651 -0.1497
 4632SOL    HW125620   3.265   7.993   6.838 -0.9410 -2.5860  1.1576
 4632SOL    HW225621   3.299   8.092   6.948 -1.5595  0.0062 -0.8810
 4633SOL     OW25622   1.397   3.830   0.762 -0.4348 -0.0565  0.3532
 4633SOL    HW125623   1.309   3.840   0.726 -0.8446 -0.1174  1.2977
 4633SOL    HW225624   1.456   3.856   0.691 -1.2391  0.8897  0.0095
 4634SOL     OW25625  11.168   8.212   8.121 -0.0925  0.2558  0.7080
 4634SOL    HW125626  11.253   8.215   8.165  0.7336 -0.7676 -0.7217
 4634SOL    HW225627  11.107   8.248   8.185  1.2442  0.0478  2.1746
 4635SOL     OW25628   2.912   8.497   2.466  0.1176 -0.0176 -0.3452
 4635SOL    HW125629   2.876   8.413   2.494 -1.5403  0.3391 -1.3000
 4635SOL    HW225630   2.866   8.517   2.385  1.2782  1.3051 -0.7110
 4636SOL     OW25631  11.539   2.147  11.285  0.0243 -0.2883 -0.7011
 4636SOL    HW125632  11.500   2.113  11.366  1.3234 -0.9282 -0.3186
 4636SOL    HW225633  11.549   2.071  11.229 -0.4808  0.0874 -1.3161
 4637SOL     OW25634  11.952   5.556   0.589 -0.2055  0.2114 -0.4150
 4637SOL    HW125635  12.002   5.638   0.584 -1.8095  1.1778 -1.6836
 4637SOL    HW225636  11.861   5.585   0.603 -0.6895 -1.4002 -0.0527
 4638SOL     OW25637   4.185   9.670  10.258  0.0579  0.0105  0.2140
 4638SOL    HW125638   4.158   9.595  10.206 -2.2994  1.6372 -1.1385
 4638SOL    HW225639   4.137   9.744  10.219  1.2999  1.9995  2.2283
 4639SOL     OW25640   5.767   1.139   5.140 -0.4854 -0.5331  0.0993
 4639SOL    HW125641   5.793   1.085   5.065 -0.1584  0.7574 -0.7607
 4639SOL    HW225642   5.819   1.106   5.213  0.6028 -0.6100 -0.6860
 4640SOL     OW25643  10.282   1.563   0.653 -0.1818  0.3396 -0.4458
 4640SOL    HW125644  10.246   1.500   0.591 -1.6026  0.1580  0.4958
 4640SOL    HW225645  10.205   1.596   0.700  0.5842  2.4203 -0.5840
 4641SOL     OW25646   6.426   3.882  10.197 -0.5146  0.4620  0.5371
 4641SOL    HW125647   6.342   3.913  10.163 -0.9879 -1.1137  0.2028
 4641SOL    HW225648   6.405   3.843  10.282 -0.3340 -1.0338 -0.0904
 4642SOL     OW25649   9.330   7.292   3.550 -0.3124 -0.2002  0.1100
 4642SOL    HW125650   9.256   7.277   3.491 -0.6053 -0.5813  0.5605
 4642SOL    HW225651   9.290   7.309   3.635  0.1040  0.4197  0.1894
 4643SOL     OW25652  11.033   0.996   4.339  0.0553  0.0314 -0.5839
 4643SOL    HW125653  11.125   1.005   4.364  0.0215  0.5860 -0.6286
 4643SOL    HW225654  10.984   1.033   4.412 -0.2444 -2.0165  0.3164
 4644SOL     OW25655   7.391   8.222   5.503 -0.2451  0.1318 -0.7826
 4644SOL    HW125656   7.375   8.199   5.595 -0.9626  0.4560 -0.8114
 4644SOL    HW225657   7.474   8.270   5.504  0.3932 -0.9602 -0.4910
 4645SOL     OW25658   2.707   5.711   2.150 -0.3984 -0.6357  0.0359
 4645SOL    HW125659   2.710   5.796   2.105 -0.5010 -0.2719  0.7063
 4645SOL    HW225660   2.799   5.685   2.157 -0.4585 -1.6483 -2.1208
 4646SOL     OW25661   9.618   2.297   3.250  0.4010 -0.0779 -0.5805
 4646SOL    HW125662   9.707   2.263   3.237  1.2834  1.4736  0.8824
 4646SOL    HW225663   9.620   2.383   3.206 -0.5746 -0.2767 -1.0244
 4647SOL     OW25664   3.022  10.461   3.924  0.4089  0.0523 -0.0462
 4647SOL    HW125665   3.026  10.504   3.839  1.2061 -1.6302 -0.9050
 4647SOL    HW225666   2.932  10.475   3.954 -0.3738 -0.6722 -1.9091
 4648SOL     OW25667   9.436  10.127   5.176  0.1125 -0.1759  0.1116
 4648SOL    HW125668   9.470  10.210   5.207 -1.2890  0.5718 -0.2395
 4648SOL    HW225669   9.489  10.106   5.099 -1.3296  1.9315 -1.5818
 4649SOL     OW25670   7.655  10.040  11.837 -0.1588 -0.7698 -0.1371
 4649SOL    HW125671   7.623  10.122  11.876 -2.0076 -1.4699 -0.0885
 4649SOL    HW225672   7.624   9.972  11.897  1.8443 -1.4956  0.1180
 4650SOL     OW25673   8.819  10.734   9.629 -0.6542  0.3087  0.6036
 4650SOL    HW125674   8.824  10.829   9.621 -1.3714  0.3105  0.1072
 4650SOL    HW225675   8.835  10.701   9.540  0.4253 -0.0786  0.9244
 4651SOL     OW25676   8.659   4.225   9.632  0.2895  0.2748  0.8756
 4651SOL    HW125677   8.601   4.301   9.621 -0.7436 -0.5655  0.3576
 4651SOL    HW225678   8.719   4.230   9.558 -0.0282  0.3819  0.6181
 4652SOL     OW25679   5.886   2.265  10.373  0.1807 -0.6522 -0.5016
 4652SOL    HW125680   5.922   2.193  10.426 -0.5989 -0.0611  0.8904
 4652SOL    HW225681   5.859   2.331  10.437  0.8128  0.8716 -1.7413
 4653SOL     OW25682   6.988   9.419   7.221 -0.0903 -0.5681 -0.3781
 4653SOL    HW125683   7.060   9.358   7.236  0.2164  0.1744  1.5073
 4653SOL    HW225684   6.946   9.428   7.307 -0.5082  1.3751 -0.7246
 4654SOL     OW25685   8.553   9.237   1.860  0.2386  0.1190  0.5125
 4654SOL    HW125686   8.534   9.313   1.915  0.5636  0.5117  0.0954
 4654SOL    HW225687   8.644   9.215   1.880  0.2582  0.0698  0.3732
 4655SOL     OW25688   0.242   1.850   6.424  0.3503  0.2131 -0.3527
 4655SOL    HW125689   0.282   1.936   6.413 -0.5648  0.8081  0.7819
 4655SOL    HW225690   0.275   1.818   6.507  0.4744 -0.4272 -0.6406
 4656SOL     OW25691   5.367  11.301   9.928  0.4534  0.5022 -0.2333
 4656SOL    HW125692   5.397  11.336  10.012  1.0098  0.1525 -0.2819
 4656SOL    HW225693   5.444  11.259   9.890  0.4059  1.3138 -1.2669
 4657SOL     OW25694   3.858   9.691   5.471 -0.0674  0.1099 -0.2604
 4657SOL    HW125695   3.877   9.765   5.528 -0.7268  0.1660 -0.1159
 4657SOL    HW225696   3.919   9.703   5.397  0.1010  0.5782 -0.0528
 4658SOL     OW25697  11.580   0.638   6.557 -0.0507 -0.3865 -0.0209
 4658SOL    HW125698  11.566   0.635   6.462  0.9746 -1.3402 -0.1553
 4658SOL    HW225699  11.551   0.726   6.582 -0.2723 -0.0945 -1.2259
 4659SOL     OW25700   2.355  11.948   9.189 -0.0993 -0.3556  0.0976
 4659SOL    HW125701   2.321  12.025   9.235  0.4401 -0.5583  0.8599
 4659SOL    HW225702   2.421  11.983   9.129 -1.5322  0.0295 -1.3295
 4660SOL     OW25703   1.035   1.259  10.886  0.3990  0.2820 -0.1968
 4660SOL    HW125704   1.008   1.347  10.914  1.7508  0.2205  1.4803
 4660SOL    HW225705   1.070   1.272  10.798 -0.1062  1.2729 -0.2726
 4661SOL     OW25706   6.806   6.504  10.890  0.2283  0.2373 -0.0328
 4661SOL    HW125707   6.862   6.495  10.813  0.8399  0.6030  0.3612
 4661SOL    HW225708   6.725   6.458  10.867 -1.3892  3.8878 -2.6134
 4662SOL     OW25709  10.378  10.450  10.216 -0.4154  0.5420 -0.3383
 4662SOL    HW125710  10.459  10.406  10.239 -0.6660  0.0951 -0.2990
 4662SOL    HW225711  10.405  10.527  10.166  0.0090  0.1554 -0.7101
 4663SOL     OW25712   8.820   1.089   5.256 -0.8222  0.4076  0.4202
 4663SOL    HW125713   8.810   1.127   5.169 -0.3889 -0.9459 -0.2477
 4663SOL    HW225714   8.848   1.162   5.311  3.6055  0.5445 -1.5522
 4664SOL     OW25715   5.587  10.597   1.350  0.0575 -0.1141  0.3346
 4664SOL    HW125716   5.550  10.509   1.345  1.7923 -0.8141 -2.1459
 4664SOL    HW225717   5.538  10.648   1.285 -0.5902  0.6318  1.3879
 4665SOL     OW25718   8.074  11.862   4.719  0.2430 -0.5212 -0.0693
 4665SOL    HW125719   8.144  11.871   4.784 -1.0183  1.4151  1.1108
 4665SOL    HW225720   8.018  11.793   4.754 -0.5044  0.6073  1.0097
 4666SOL     OW25721   6.346   2.453   2.262  0.2956  0.1158  0.5004
 4666SOL    HW125722   6.305   2.436   2.347  1.0171 -0.0414  0.8301
 4666SOL    HW225723   6.402   2.530   2.278 -0.8911  1.1754 -0.2823
 4667SOL     OW25724   4.919   4.090  11.192  0.2129 -0.3748  0.2551
 4667SOL    HW125725   4.975   4.072  11.117  0.8957  1.5511  0.2590
 4667SOL    HW225726   4.831   4.096  11.155  0.3139 -1.0368 -0.1159
 4668SOL     OW25727   2.808   9.902   4.494  0.3627  0.0399  0.2316
 4668SOL    HW125728   2.857   9.856   4.563 -1.8281 -2.0536  0.5204
 4668SOL    HW225729   2.828   9.854   4.414 -0.8732 -0.6533  0.3032
 4669SOL     OW25730   7.322   6.358   5.983  0.5859 -0.4829  0.0161
 4669SOL    HW125731   7.297   6.450   5.990  0.0656 -0.5835 -0.4044
 4669SOL    HW225732   7.244   6.310   6.011  0.9923 -0.7985  0.6352
 4670SOL     OW25733  11.958   6.233   8.315 -0.5051  0.4521 -0.2277
 4670SOL    HW125734  12.016   6.246   8.240 -1.1012 -0.7879 -0.9394
 4670SOL    HW225735  11.903   6.158   8.290  1.0687 -1.8160  2.4887
 4671SOL     OW25736   5.718   8.976   2.445  0.3915  0.0859 -0.4335
 4671SOL    HW125737   5.746   8.941   2.360  2.9533  0.3539  0.2165
 4671SOL    HW225738   5.703   9.069   2.428 -0.9354 -0.1929 -0.9461
 4672SOL     OW25739   4.645   8.596   5.803 -0.0692 -0.0924 -0.8269
 4672SOL    HW125740   4.556   8.563   5.810  0.0233  0.0087  2.5732
 4672SOL    HW225741   4.699   8.517   5.801 -0.1289 -0.2226  1.0303
 4673SOL     OW25742   5.583   2.452   9.884  0.1556  0.8699  0.1147
 4673SOL    HW125743   5.551   2.374   9.839 -1.7214  1.2217  0.7250
 4673SOL    HW225744   5.620   2.420   9.966  1.0987  0.4858 -0.4416
 4674SOL     OW25745   2.484   3.332   8.101  0.5777  0.1348 -0.1434
 4674SOL    HW125746   2.490   3.298   8.012 -1.7517  0.6379 -0.5532
 4674SOL    HW225747   2.468   3.255   8.155 -1.8775  0.1827 -0.7093
 4675SOL     OW25748   1.435   9.219   6.891  0.3255  0.1030  0.1581
 4675SOL    HW125749   1.408   9.153   6.827  2.1581 -0.7926  0.2554
 4675SOL    HW225750   1.450   9.169   6.971  2.4370  0.4729  0.0418
 4676SOL     OW25751   9.055   5.832  11.949  0.4021 -0.2959 -0.2979
 4676SOL    HW125752   8.980   5.773  11.953  1.1921 -1.3964 -0.8440
 4676SOL    HW225753   9.110   5.806  12.023  0.4620  0.1735 -0.1784
 4677SOL     OW25754   0.358   2.475   5.228 -0.3552 -0.0278  0.3160
 4677SOL    HW125755   0.393   2.491   5.316 -1.5519 -1.1484  1.0339
 4677SOL    HW225756   0.434   2.447   5.177  0.2121 -0.1541  1.2042
 4678SOL     OW25757  11.077   6.306   4.496 -0.4965  0.0563 -0.4759
 4678SOL    HW125758  11.017   6.297   4.570  0.2916 -0.0514  0.1612
 4678SOL    HW225759  11.122   6.389   4.511  1.8156 -1.3443  0.8012
 4679SOL     OW25760   2.648   9.140   6.896  0.1391  0.1998  0.6153
 4679SOL    HW125761   2.664   9.197   6.820 -0.4464  1.0425  1.1087
 4679SOL    HW225762   2.692   9.183   6.969  0.3787 -0.4106  0.8359
 4680SOL     OW25763  10.885   5.473  11.168  0.3306 -0.7717  0.3587
 4680SOL    HW125764  10.918   5.399  11.218  0.7594 -0.5559  0.4026
 4680SOL    HW225765  10.834   5.524  11.231 -0.1350 -1.1369  0.2779
 4681SOL     OW25766   1.773  10.091   7.492 -0.1276 -0.5205  0.3761
 4681SOL    HW125767   1.799  10.161   7.552  0.0133 -0.8470  0.6988
 4681SOL    HW225768   1.699  10.128   7.443 -0.5849 -0.4354  1.1235
 4682SOL     OW25769   0.509   2.368   1.981  0.3446  0.1405  0.3780
 4682SOL    HW125770   0.470   2.401   2.062 -0.6100 -0.3830  0.1483
 4682SOL    HW225771   0.437   2.324   1.936  0.2346  2.3045 -1.7944
 4683SOL     OW25772   5.299   8.182   6.675  0.5671  0.2366 -0.2960
 4683SOL    HW125773   5.236   8.109   6.670 -0.2176  0.8095  0.7140
 4683SOL    HW225774   5.329   8.194   6.586  0.7749 -1.3813 -0.4842
 4684SOL     OW25775   3.097   9.629   5.754  0.2873 -0.1651  0.3435
 4684SOL    HW125776   3.123   9.720   5.768  0.4547 -0.2721  0.7641
 4684SOL    HW225777   3.156   9.598   5.686 -0.5198  0.3623 -0.6245
 4685SOL     OW25778  11.442   4.396   8.128  0.1450 -0.0452  0.7826
 4685SOL    HW125779  11.478   4.317   8.166 -1.6346 -0.1294  2.4003
 4685SOL    HW225780  11.351   4.375   8.109  0.0894  1.0925 -0.3710
 4686SOL     OW25781   5.993   3.146   5.887  0.3644 -0.1538  0.5353
 4686SOL    HW125782   6.001   3.157   5.982 -2.0056 -0.8759  0.8758
 4686SOL    HW225783   6.061   3.083   5.864  1.3250  0.4398  1.6471
 4687SOL     OW25784   0.050   5.520  11.552  0.2457 -0.0018 -0.2696
 4687SOL    HW125785   0.048   5.607  11.511 -1.0850  1.3456  2.4205
 4687SOL    HW225786  -0.040   5.488  11.545  0.7403 -1.3176 -1.3389
 4688SOL     OW25787   3.914   9.359   0.943  0.2316  0.3033 -0.3798
 4688SOL    HW125788   3.891   9.449   0.920  0.0736  0.7447  1.3343
 4688SOL    HW225789   3.842   9.330   0.999  1.8932  0.3693  1.9617
 4689SOL     OW25790   8.506   1.613   4.743  0.0307  0.3231  0.4183
 4689SOL    HW125791   8.466   1.532   4.775 -0.9910  0.4637 -0.4413
 4689SOL    HW225792   8.524   1.595   4.650  0.7421  0.7363  0.4677
 4690SOL     OW25793   8.282   2.011   8.380 -0.1502 -0.0931 -0.1379
 4690SOL    HW125794   8.212   1.948   8.364 -0.4110  0.4030 -1.0014
 4690SOL    HW225795   8.282   2.067   8.303  0.5379  0.5406  0.3110
 4691SOL     OW25796   3.755   5.959   9.407  0.1800  0.2109 -0.5430
 4691SOL    HW125797   3.671   5.921   9.379  0.1252 -1.7144  1.8968
 4691SOL    HW225798   3.776   6.022   9.338 -2.7256  0.0011 -1.8029
 4692SOL     OW25799   3.172   6.637   2.579 -0.0945  0.1890  0.1474
 4692SOL    HW125800   3.171   6.570   2.648 -2.3926  1.9031  1.9223
 4692SOL    HW225801   3.216   6.712   2.620  0.2733  0.6048 -0.9839
 4693SOL     OW25802   4.149   1.198   2.777 -0.3480 -0.1658  0.5176
 4693SOL    HW125803   4.160   1.290   2.753  2.1758 -0.2880  0.9167
 4693SOL    HW225804   4.151   1.198   2.873 -2.4692 -0.4746  0.6101
 4694SOL     OW25805  10.792   8.091  10.015 -0.1138  0.5285 -0.6474
 4694SOL    HW125806  10.710   8.047   9.992 -1.0499  0.4349  2.4815
 4694SOL    HW225807  10.860   8.034   9.978 -1.3715  0.3370 -2.8596
 4695SOL     OW25808   2.737   0.947  11.352 -0.7004 -0.0326  0.6041
 4695SOL    HW125809   2.832   0.952  11.356 -0.5319 -1.5795 -0.8108
 4695SOL    HW225810   2.712   1.003  11.279 -0.8210 -0.2523  0.4765
 4696SOL     OW25811   3.832   2.812  11.576  0.2982  0.2762 -0.2848
 4696SOL    HW125812   3.778   2.739  11.547 -0.6847  0.8805 -0.0233
 4696SOL    HW225813   3.860   2.855  11.495 -1.7761  1.4846 -0.4401
 4697SOL     OW25814   4.423   1.225   8.019  0.0227  0.8486  0.1256
 4697SOL    HW125815   4.453   1.149   7.968 -0.8196  1.4702 -1.3674
 4697SOL    HW225816   4.336   1.244   7.984 -0.6213  1.2796  1.8852
 4698SOL     OW25817   9.170   6.881  10.697 -1.0142  0.2418 -0.5628
 4698SOL    HW125818   9.163   6.817  10.767 -2.4857  1.3259  0.3446
 4698SOL    HW225819   9.169   6.830  10.616  1.2033 -1.0734  0.1692
 4699SOL     OW25820   2.380   7.203   4.630  0.0187 -0.1845 -0.7014
 4699SOL    HW125821   2.465   7.200   4.673  0.1160  0.5929 -0.8278
 4699SOL    HW225822   2.329   7.265   4.682 -1.0655 -1.9220  0.4023
 4700SOL     OW25823   5.472   3.743   0.616  0.0437  0.1663  0.1093
 4700SOL    HW125824   5.450   3.745   0.709 -0.5886 -0.3944 -0.0243
 4700SOL    HW225825   5.413   3.807   0.576  0.2200  0.3072  0.0716
 4701SOL     OW25826   5.656  11.249   1.113  0.3095  0.4269  0.3241
 4701SOL    HW125827   5.569  11.211   1.102  0.8652 -0.2832 -2.2520
 4701SOL    HW225828   5.712  11.174   1.137  0.5222  0.5528  0.2236
 4702SOL     OW25829   0.707   4.510   8.219  0.1161 -0.5582 -0.1445
 4702SOL    HW125830   0.697   4.419   8.247 -1.0013 -0.4717 -0.2422
 4702SOL    HW225831   0.657   4.516   8.137  0.0781  0.1709 -0.0745
 4703SOL     OW25832   4.845   8.733   2.187  0.1569  0.1581 -0.1223
 4703SOL    HW125833   4.875   8.720   2.277  0.1261  1.8819  0.1615
 4703SOL    HW225834   4.922   8.769   2.141  0.6576 -2.1000 -1.2143
 4704SOL     OW25835   5.343   1.970   6.582 -0.4380  0.6170 -0.2115
 4704SOL    HW125836   5.424   2.022   6.589 -0.8531  1.0243  2.1289
 4704SOL    HW225837   5.369   1.882   6.608 -0.6248  0.6083 -0.0571
 4705SOL     OW25838   7.451   0.706   4.144  0.3358 -0.5733 -0.6051
 4705SOL    HW125839   7.439   0.770   4.074 -0.4832 -2.0086 -1.8342
 4705SOL    HW225840   7.529   0.657   4.119  0.7074 -0.3547  0.0973
 4706SOL     OW25841   1.720   4.855   5.862 -0.3848 -0.1435  0.6966
 4706SOL    HW125842   1.642   4.863   5.808  0.5471  0.1185 -0.6570
 4706SOL    HW225843   1.709   4.772   5.908 -0.5684 -1.0919 -0.9650
 4707SOL     OW25844   7.213   3.880   2.117  0.7190  0.4087  0.3173
 4707SOL    HW125845   7.166   3.810   2.164  2.7931 -1.4787 -0.2444
 4707SOL    HW225846   7.223   3.846   2.028 -0.4481  2.5992 -0.7319
 4708SOL     OW25847  11.786   3.419   8.799 -0.1064 -0.3457 -0.0217
 4708SOL    HW125848  11.753   3.508   8.810  2.4549  0.6579  0.4271
 4708SOL    HW225849  11.790   3.384   8.888 -0.6670 -0.7423 -0.1503
 4709SOL     OW25850   0.042  10.639   8.877  0.0418  1.2800 -0.7266
 4709SOL    HW125851   0.090  10.557   8.887 -0.0625  1.3603  0.5381
 4709SOL    HW225852   0.011  10.637   8.786 -1.1205 -0.7337 -0.3606
 4710SOL     OW25853   1.990   8.167   0.522  0.0894 -0.0537 -0.8598
 4710SOL    HW125854   1.931   8.100   0.555 -1.7625  1.2306 -1.4169
 4710SOL    HW225855   2.023   8.210   0.601  3.2159 -3.0258 -0.3431
 4711SOL     OW25856  11.063   0.967  10.643 -0.6204 -0.4217 -0.0754
 4711SOL    HW125857  11.019   1.006  10.567  0.9827  1.0242 -0.3610
 4711SOL    HW225858  11.113   0.894  10.606 -1.0320 -0.6728 -0.1404
 4712SOL     OW25859   3.210  11.382   0.938  0.3693  0.9149  0.4081
 4712SOL    HW125860   3.290  11.397   0.887 -0.7016  2.8156 -0.8369
 4712SOL    HW225861   3.151  11.338   0.877 -0.1527  1.1594  0.7327
 4713SOL     OW25862   4.352   1.830  11.484 -0.0392  0.2131 -0.2885
 4713SOL    HW125863   4.290   1.902  11.478 -0.0599  0.1736 -0.5583
 4713SOL    HW225864   4.300   1.752  11.466  0.0617  0.1682 -0.3839
 4714SOL     OW25865   2.207   0.759   0.945  0.0334 -0.4075 -0.3199
 4714SOL    HW125866   2.295   0.794   0.957 -0.3653  0.0826  1.5074
 4714SOL    HW225867   2.156   0.833   0.912  0.4555 -0.9220 -2.2302
 4715SOL     OW25868   9.228   9.416   1.161  0.2709  0.4010  0.6735
 4715SOL    HW125869   9.147   9.465   1.178  0.0114  0.6150 -1.0213
 4715SOL    HW225870   9.246   9.430   1.069  2.2895  0.3823  1.0152
 4716SOL     OW25871   4.946  11.161  10.740  0.2793  0.1292 -0.0427
 4716SOL    HW125872   4.885  11.123  10.803 -0.1881 -1.3757 -1.3517
 4716SOL    HW225873   5.021  11.190  10.793 -0.0485 -1.1669  1.1750
 4717SOL     OW25874  10.171   3.265   9.105 -0.0664 -0.3524 -0.2996
 4717SOL    HW125875  10.081   3.238   9.087 -0.2303 -2.5883  3.0223
 4717SOL    HW225876  10.225   3.196   9.065  0.1763  0.5176 -1.5201
 4718SOL     OW25877   2.686   4.955   0.793  1.0378  0.5081 -0.0591
 4718SOL    HW125878   2.627   4.943   0.719  2.2668 -1.5020 -0.7833
 4718SOL    HW225879   2.655   5.035   0.835  0.3408  1.7500 -2.7436
 4719SOL     OW25880  11.421   7.134  11.892 -0.0528  0.2072 -0.6598
 4719SOL    HW125881  11.403   7.096  11.978  0.3633  0.5952 -0.4005
 4719SOL    HW225882  11.431   7.058  11.835 -1.9894 -0.0565 -0.7360
 4720SOL     OW25883   5.589   5.279   9.842 -0.2322 -0.2052 -0.0941
 4720SOL    HW125884   5.519   5.235   9.890 -0.2516 -2.1010 -1.7159
 4720SOL    HW225885   5.670   5.250   9.885 -0.3104 -0.7243 -0.2908
 4721SOL     OW25886   6.552   7.767   3.488  0.1742 -0.1646 -0.8544
 4721SOL    HW125887   6.611   7.832   3.450  0.4969  2.1118  3.0659
 4721SOL    HW225888   6.609   7.713   3.544 -0.9239 -0.1695  0.2888
 4722SOL     OW25889   8.320   0.762   6.237 -0.1394  0.2793  0.4986
 4722SOL    HW125890   8.326   0.666   6.232  1.3071  0.3710 -0.0322
 4722SOL    HW225891   8.343   0.792   6.150 -1.9550  1.1076  0.2513
 4723SOL     OW25892   2.499   9.002   6.248  0.8756  0.0460  0.0429
 4723SOL    HW125893   2.425   8.974   6.301  0.2849  2.3695  0.5571
 4723SOL    HW225894   2.576   8.979   6.301  0.3130  2.0863  1.9160
 4724SOL     OW25895   9.258   6.139   0.092 -0.3239  0.4918  0.4525
 4724SOL    HW125896   9.180   6.192   0.072  1.1644  2.6099 -0.0710
 4724SOL    HW225897   9.261   6.074   0.022 -0.6885  1.4855 -0.5082
 4725SOL     OW25898   2.930   6.063   8.156 -0.6796 -0.2212  0.4964
 4725SOL    HW125899   2.881   5.992   8.197 -0.1959 -1.0948 -0.3878
 4725SOL    HW225900   3.021   6.034   8.160 -0.5405  0.0451 -0.4261
 4726SOL     OW25901   6.647   4.046  10.872 -0.0227 -0.3686 -0.5519
 4726SOL    HW125902   6.736   4.038  10.906  0.2936 -0.7840 -1.4546
 4726SOL    HW225903   6.620   3.955  10.856 -1.6437 -0.5032  2.2405
 4727SOL     OW25904   2.561   2.968  11.803 -0.1415 -0.1231  0.0331
 4727SOL    HW125905   2.498   2.896  11.793 -1.3014  0.9815 -1.0887
 4727SOL    HW225906   2.595   2.982  11.714  1.5909 -0.5725  0.5882
 4728SOL     OW25907   5.353   2.741   7.854  0.5841 -0.4530 -0.3123
 4728SOL    HW125908   5.352   2.739   7.949 -0.4985  1.5399 -0.2322
 4728SOL    HW225909   5.313   2.659   7.827 -3.3556  0.8014  1.0888
 4729SOL     OW25910   1.422  11.149  11.658 -0.0490 -0.0476 -0.2184
 4729SOL    HW125911   1.391  11.079  11.716  0.8459  0.4648  0.9076
 4729SOL    HW225912   1.517  11.144  11.663  0.0483  2.1078  0.9648
 4730SOL     OW25913   1.337   4.010   9.595 -0.0615  0.0348  0.9219
 4730SOL    HW125914   1.273   4.077   9.571 -1.9531 -1.2310  2.1653
 4730SOL    HW225915   1.394   4.053   9.659 -0.5955  0.7603  0.9229
 4731SOL     OW25916   9.865   3.648   7.902 -0.0038  0.3425  0.3448
 4731SOL    HW125917   9.798   3.602   7.851  1.9079 -1.5678 -0.5739
 4731SOL    HW225918   9.887   3.724   7.849  1.5362 -1.3084 -1.5230
 4732SOL     OW25919   4.134   6.438  10.907 -0.0118  0.2733  0.7270
 4732SOL    HW125920   4.212   6.479  10.942 -0.7245  0.3283  2.3630
 4732SOL    HW225921   4.117   6.484  10.824  0.9563  1.1156  0.9782
 4733SOL     OW25922   0.897   0.071   6.327  0.2480 -0.2320 -0.3465
 4733SOL    HW125923   0.925   0.046   6.415 -0.3962  1.6096  0.4315
 4733SOL    HW225924   0.860  -0.009   6.290  1.7196 -1.3739  0.5349
 4734SOL     OW25925   5.030   5.939  11.402 -0.0155  0.2706  0.0295
 4734SOL    HW125926   5.021   5.863  11.460  0.5600  0.3682  0.2559
 4734SOL    HW225927   4.959   5.997  11.426 -0.9765 -0.5623 -0.7155
 4735SOL     OW25928   1.072   6.642   5.316  0.3933  0.1519  0.8453
 4735SOL    HW125929   1.079   6.548   5.334  0.6437  0.0320  0.1554
 4735SOL    HW225930   1.148   6.681   5.358  1.7946 -0.3109 -1.1293
 4736SOL     OW25931   8.882   0.553  11.721 -0.0529  0.1222  0.1163
 4736SOL    HW125932   8.833   0.586  11.797 -0.1440 -0.2180  0.2074
 4736SOL    HW225933   8.826   0.485  11.684 -0.7434  1.3427 -1.2102
 4737SOL     OW25934   9.222   7.751   3.551  0.0023 -0.1153  0.3904
 4737SOL    HW125935   9.138   7.706   3.539  0.6905 -1.5547  0.7255
 4737SOL    HW225936   9.286   7.680   3.559  1.1309  0.9403  1.0512
 4738SOL     OW25937   6.584   1.172   6.572 -1.1906  0.2637 -0.0837
 4738SOL    HW125938   6.530   1.214   6.639 -0.6618  1.0700 -0.1472
 4738SOL    HW225939   6.615   1.092   6.613 -2.3376 -0.1638 -0.0105
 4739SOL     OW25940   6.702   7.299  10.633  0.2330  0.4827 -0.9512
 4739SOL    HW125941   6.640   7.250  10.580  0.7282 -0.9097 -0.3041
 4739SOL    HW225942   6.788   7.279  10.595  0.6256 -0.8011  0.5079
 4740SOL     OW25943   1.070   8.933   7.163 -0.9244  0.6359 -0.3833
 4740SOL    HW125944   1.040   9.023   7.159  0.0378  1.0453  0.9735
 4740SOL    HW225945   1.001   8.886   7.210 -0.6578  1.0261  0.4100
 4741SOL     OW25946   5.079   2.532   4.902 -0.2965  0.1976  0.9871
 4741SOL    HW125947   5.037   2.491   4.827  1.7089 -0.8116  0.3420
 4741SOL    HW225948   5.154   2.475   4.922  0.7999  1.8918  2.0268
 4742SOL     OW25949   1.327   0.563   4.696  0.5078 -0.4691 -0.4885
 4742SOL    HW125950   1.303   0.635   4.754  0.8020 -0.4131 -0.4319
 4742SOL    HW225951   1.422   0.572   4.684  0.3682 -0.1411 -1.4361
 4743SOL     OW25952   2.554   9.196  10.093  0.5829 -0.0666 -0.3168
 4743SOL    HW125953   2.594   9.163  10.013  1.3641  2.8055 -1.2282
 4743SOL    HW225954   2.524   9.284  10.071 -4.3488 -1.0794  0.9338
 4744SOL     OW25955   0.815   1.979   8.533 -0.1898 -0.9158 -0.2971
 4744SOL    HW125956   0.739   2.013   8.580 -0.1676 -1.1414 -0.0948
 4744SOL    HW225957   0.849   2.054   8.485  1.2875  0.0198  2.0102
 4745SOL     OW25958   9.754  10.569   1.978 -0.4000  0.4116 -0.3431
 4745SOL    HW125959   9.748  10.473   1.971 -0.8333  0.3615  0.5391
 4745SOL    HW225960   9.846  10.585   1.999 -0.7339  0.0087  1.6323
 4746SOL     OW25961   0.520  10.954  11.160  0.6841 -0.4256 -0.1367
 4746SOL    HW125962   0.599  10.975  11.211  1.0608 -1.0329 -0.4515
 4746SOL    HW225963   0.543  10.978  11.070 -0.5950  2.3104  0.1827
 4747SOL     OW25964   8.163   7.086   7.259  0.0665  0.3426  0.2915
 4747SOL    HW125965   8.104   7.113   7.330 -0.9575  3.3805 -1.5141
 4747SOL    HW225966   8.249   7.120   7.286  0.1082 -0.2644  0.9507
 4748SOL     OW25967   4.543   3.646   6.815 -0.1136  0.4216  0.0896
 4748SOL    HW125968   4.618   3.667   6.869 -0.1079 -0.5202  0.4675
 4748SOL    HW225969   4.553   3.701   6.737  1.4360 -0.3299 -0.2697
 4749SOL     OW25970   3.123   7.099  10.392  0.4087 -0.4419 -0.1821
 4749SOL    HW125971   3.211   7.076  10.422  1.4413  1.0235 -1.8724
 4749SOL    HW225972   3.129   7.095  10.297 -1.6787 -1.3261 -0.3074
 4750SOL     OW25973   3.529   4.613   1.417  0.4024 -0.4719  0.2297
 4750SOL    HW125974   3.551   4.706   1.423  0.7007 -0.6231  2.9844
 4750SOL    HW225975   3.433   4.611   1.410  0.4647  0.0285 -0.9307
 4751SOL     OW25976  10.700   8.044   8.699  0.1545  0.4065 -0.5722
 4751SOL    HW125977  10.627   8.028   8.638 -0.0619  1.2843 -0.5582
 4751SOL    HW225978  10.661   8.096   8.769  0.3260 -0.8912  0.5029
 4752SOL     OW25979   3.577   4.283   1.837  0.3363  0.0024 -0.1060
 4752SOL    HW125980   3.666   4.297   1.806 -0.2243  1.1616 -1.2952
 4752SOL    HW225981   3.584   4.286   1.932  1.5030  0.5099 -0.1918
 4753SOL     OW25982   7.413  10.820  10.672  0.0330 -0.1801  1.0220
 4753SOL    HW125983   7.481  10.814  10.604 -1.0085  0.3987 -0.1051
 4753SOL    HW225984   7.338  10.860  10.628 -0.7762 -0.0465  2.4560
 4754SOL     OW25985   8.302   8.412   5.275  0.5936 -0.3357  0.2100
 4754SOL    HW125986   8.374   8.461   5.315 -1.0939  3.5680 -1.1113
 4754SOL    HW225987   8.228   8.424   5.334  0.1787 -1.6021 -0.0161
 4755SOL     OW25988   5.549   1.892   7.226 -0.0550  0.5706 -0.1134
 4755SOL    HW125989   5.633   1.870   7.267 -0.7361 -1.8285  0.1417
 4755SOL    HW225990   5.550   1.988   7.219  1.6909  0.7921  2.0494
 4756SOL     OW25991   7.384   6.440   3.753 -0.2127  0.1992 -0.1643
 4756SOL    HW125992   7.443   6.380   3.708 -1.7583 -0.5409 -1.2582
 4756SOL    HW225993   7.360   6.394   3.834  1.1598  0.7781  0.6126
 4757SOL     OW25994   2.332  10.197   7.298 -0.0578  0.2148 -0.1609
 4757SOL    HW125995   2.395  10.163   7.234  0.6727  1.6485 -0.2377
 4757SOL    HW225996   2.322  10.289   7.275 -1.5915  0.2044  0.3553
 4758SOL     OW25997   6.156   2.444   0.120 -0.4605  0.2742 -0.4746
 4758SOL    HW125998   6.192   2.522   0.161 -0.5474  0.7075 -1.2080
 4758SOL    HW225999   6.184   2.450   0.029 -2.5009  0.7123 -1.1099
 4759SOL     OW26000  10.170   6.894   6.308  0.2456  0.3737  0.1341
 4759SOL    HW126001  10.203   6.973   6.349  0.8754 -0.5497  1.4717
 4759SOL    HW226002  10.083   6.918   6.277  1.3171  2.2589 -1.6615
 4760SOL     OW26003   6.315   7.603   4.246 -0.4213  0.3051 -0.1111
 4760SOL    HW126004   6.382   7.669   4.262 -0.4550  0.3499 -0.1517
 4760SOL    HW226005   6.308   7.598   4.151 -1.2941  1.1523 -0.1135
 4761SOL     OW26006   3.759  10.907  10.593 -0.3536  0.4787  0.5503
 4761SOL    HW126007   3.828  10.873  10.650 -0.8979 -0.9036  0.4254
 4761SOL    HW226008   3.739  10.834  10.533 -1.1383  1.2359 -0.1387
 4762SOL     OW26009   7.776   7.168   0.559  0.3143 -0.5439  0.3923
 4762SOL    HW126010   7.866   7.163   0.591  0.5560 -0.1898 -0.2061
 4762SOL    HW226011   7.733   7.091   0.596  0.3823  0.2031  2.1239
 4763SOL     OW26012   7.010   8.867   3.350 -0.1733  0.0980  0.2130
 4763SOL    HW126013   7.085   8.828   3.305 -0.2963 -1.6903  1.4589
 4763SOL    HW226014   7.046   8.945   3.392  0.4108  0.6285 -1.1977
 4764SOL     OW26015   0.040   8.777   4.510  0.0085  0.0655 -0.3291
 4764SOL    HW126016   0.020   8.838   4.581 -0.8571  0.6320 -1.0447
 4764SOL    HW226017   0.133   8.757   4.521 -0.2054 -0.2315  1.2489
 4765SOL     OW26018   4.672   0.624   2.262  0.2492  0.6115 -0.6543
 4765SOL    HW126019   4.600   0.672   2.302  0.5203  0.4110  0.0825
 4765SOL    HW226020   4.729   0.599   2.335 -0.0571 -1.1360 -0.9688
 4766SOL     OW26021   6.494   8.503   3.310  0.0120 -0.1250 -0.7891
 4766SOL    HW126022   6.549   8.502   3.232  1.9470 -1.5356  0.5004
 4766SOL    HW226023   6.533   8.571   3.366 -0.2396 -0.3660 -0.3150
 4767SOL     OW26024   7.660   4.052   9.259  0.2921  0.0966 -0.6218
 4767SOL    HW126025   7.723   4.109   9.304  1.1744 -0.5175 -1.0452
 4767SOL    HW226026   7.692   4.048   9.169 -0.7017  0.2380 -0.9947
 4768SOL     OW26027   7.520   9.343  10.135  0.6329 -0.4053 -0.0512
 4768SOL    HW126028   7.430   9.323  10.109  0.2765  0.5947  0.3564
 4768SOL    HW226029   7.525   9.314  10.226  1.1911 -1.8291 -0.5137
 4769SOL     OW26030   2.178   0.722   6.384 -0.5362  0.0206  0.0109
 4769SOL    HW126031   2.107   0.784   6.401 -0.2983  0.1603  0.5048
 4769SOL    HW226032   2.213   0.750   6.299  0.1570  1.1532  0.6441
 4770SOL     OW26033   4.865   1.031   7.026 -0.1343 -0.5452  0.2753
 4770SOL    HW126034   4.825   1.031   7.113  1.2877 -0.2552  0.9523
 4770SOL    HW226035   4.871   1.123   7.002  3.1812 -0.2417  1.7027
 4771SOL     OW26036   7.779   6.336  11.423 -0.0921 -0.2085 -0.2342
 4771SOL    HW126037   7.792   6.241  11.423 -0.7622 -0.3315 -1.6623
 4771SOL    HW226038   7.861   6.372  11.456  1.1158 -1.2097 -1.9825
 4772SOL     OW26039   8.778   5.967   0.627 -0.3307 -0.0134 -0.7351
 4772SOL    HW126040   8.754   5.920   0.547 -1.8515  0.7725 -0.7756
 4772SOL    HW226041   8.794   5.898   0.692 -1.0640 -0.6149 -1.1843
 4773SOL     OW26042   6.233   9.155   9.774  0.1514 -0.1952  0.3022
 4773SOL    HW126043   6.259   9.246   9.758 -0.7218 -0.1912 -1.2094
 4773SOL    HW226044   6.148   9.162   9.816  0.4064 -0.3166  0.8531
 4774SOL     OW26045   0.058   6.403   4.470  0.1285  0.3205 -0.2110
 4774SOL    HW126046   0.073   6.372   4.380  0.4366  0.2228 -0.1253
 4774SOL    HW226047   0.045   6.497   4.460  3.6098  0.9753 -0.0230
 4775SOL     OW26048   7.619  11.818   3.129  0.7018 -0.0921 -0.1001
 4775SOL    HW126049   7.577  11.774   3.203  0.0927  1.2647  0.4034
 4775SOL    HW226050   7.615  11.755   3.057  1.5618 -1.5483  1.0898
 4776SOL     OW26051   5.369   8.252   0.199 -0.4156  0.3779  0.2183
 4776SOL    HW126052   5.424   8.191   0.149 -0.4659  0.2441  0.3252
 4776SOL    HW226053   5.289   8.203   0.217 -0.5577  0.5610  0.0923
 4777SOL     OW26054   1.115   9.171  10.084  0.3971 -0.3056 -0.6636
 4777SOL    HW126055   1.196   9.137  10.122  1.9263  2.5451 -1.0517
 4777SOL    HW226056   1.143   9.249  10.035 -2.6030  0.7969 -0.8176
 4778SOL     OW26057   9.183   7.303  10.678  0.3015 -0.1560  0.0441
 4778SOL    HW126058   9.112   7.360  10.651  0.5090 -0.3304 -0.9158
 4778SOL    HW226059   9.170   7.223  10.627 -0.6993 -1.4880  2.2231
 4779SOL     OW26060   6.546   2.843   4.167 -0.9934  0.1064 -0.4902
 4779SOL    HW126061   6.500   2.862   4.085 -1.6869  2.1965  0.3186
 4779SOL    HW226062   6.550   2.927   4.212 -1.5137 -1.1601  2.0683
 4780SOL     OW26063  11.866  11.517   7.389 -0.0334  0.0959  0.3400
 4780SOL    HW126064  11.835  11.605   7.408  0.0757 -0.0508  1.2094
 4780SOL    HW226065  11.827  11.495   7.304  0.2747  1.1384 -0.0828
 4781SOL     OW26066   9.740   0.649   7.957 -0.0541 -0.1682  0.3649
 4781SOL    HW126067   9.727   0.578   7.894 -0.6896  0.8363 -0.6954
 4781SOL    HW226068   9.817   0.623   8.008  0.5497 -0.9793 -0.9102
 4782SOL     OW26069  11.727   8.773   9.399 -0.2194  0.2036  0.2639
 4782SOL    HW126070  11.758   8.775   9.490 -0.9365  0.5231  0.5050
 4782SOL    HW226071  11.649   8.828   9.399  1.7378  3.2592 -1.3096
 4783SOL     OW26072   2.912   7.190  11.614 -0.2444 -0.2503 -0.0795
 4783SOL    HW126073   2.908   7.236  11.698 -0.5994 -0.2529 -0.0922
 4783SOL    HW226074   2.998   7.148  11.614  0.5416  1.2810 -0.5270
 4784SOL     OW26075  11.315   9.314   5.509  0.0045  0.1842  0.0398
 4784SOL    HW126076  11.236   9.332   5.559  0.5777 -0.9704  1.4345
 4784SOL    HW226077  11.371   9.390   5.525 -0.8011  1.0064 -0.9608
 4785SOL     OW26078   1.152   5.689   0.948 -0.1537 -0.5965 -0.3697
 4785SOL    HW126079   1.176   5.672   0.857  1.5792  0.9135 -0.2484
 4785SOL    HW226080   1.139   5.784   0.953 -2.3800 -0.8901  0.5145
 4786SOL     OW26081  10.839   5.170   7.774  0.4926 -0.4028 -0.2568
 4786SOL    HW126082  10.935   5.176   7.778  0.4021  3.3861  2.8861
 4786SOL    HW226083  10.814   5.141   7.862 -1.2647 -0.2923 -0.6964
 4787SOL     OW26084  10.725   1.585  10.956  0.1499 -0.0776 -0.3194
 4787SOL    HW126085  10.788   1.610  11.024 -0.1082  0.5284 -0.2927
 4787SOL    HW226086  10.764   1.616  10.875 -0.3957  0.8717 -0.2333
 4788SOL     OW26087   7.422   7.529  10.768  0.1290 -0.2214 -0.1430
 4788SOL    HW126088   7.500   7.492  10.810 -1.8446 -1.8444  2.4159
 4788SOL    HW226089   7.396   7.601  10.825  1.2660  2.2424 -2.5612
 4789SOL     OW26090   9.804   2.733   7.016 -0.5220  0.3208 -0.3932
 4789SOL    HW126091   9.798   2.642   7.045 -0.8119 -0.0487 -1.5794
 4789SOL    HW226092   9.766   2.734   6.928  0.7377  1.3140 -0.9738
 4790SOL     OW26093   7.227   4.986   5.874 -0.3945  0.4437 -0.8018
 4790SOL    HW126094   7.287   4.930   5.824 -0.1550  0.3232 -0.3802
 4790SOL    HW226095   7.255   5.075   5.853  2.1767  0.4373  2.0063
 4791SOL     OW26096   6.943   7.701   6.404  0.1419 -0.9371 -0.3536
 4791SOL    HW126097   6.993   7.667   6.330 -1.3113 -1.7482 -1.0049
 4791SOL    HW226098   6.911   7.786   6.373 -0.7987 -1.4514 -0.8424
 4792SOL     OW26099   1.992   0.325   3.022 -0.0464  0.1677 -0.6666
 4792SOL    HW126100   2.068   0.372   2.988  1.0667 -0.8125  0.3855
 4792SOL    HW226101   2.027   0.271   3.093 -1.7518 -0.2181 -0.0834
 4793SOL     OW26102   4.389  11.042   3.228 -0.0270 -0.2074 -0.1526
 4793SOL    HW126103   4.482  11.061   3.242 -0.2490  0.2349  0.8065
 4793SOL    HW226104   4.384  11.010   3.138  0.9677  0.3115 -0.4006
 4794SOL     OW26105   6.310   4.233   4.471 -0.8643 -0.1983  0.0592
 4794SOL    HW126106   6.253   4.293   4.424 -0.1024 -0.1308 -0.8064
 4794SOL    HW226107   6.315   4.156   4.415 -0.8521 -0.5814  0.5782
 4795SOL     OW26108   1.468   2.570   3.273  0.0735 -0.3073 -0.5303
 4795SOL    HW126109   1.425   2.620   3.204 -1.8468 -0.6802  0.3068
 4795SOL    HW226110   1.428   2.483   3.267 -2.0490  0.2809  2.5073
 4796SOL     OW26111   8.114  10.880   9.831  0.0015 -0.4724 -0.2955
 4796SOL    HW126112   8.130  10.881   9.737 -0.5664 -1.4885 -0.4215
 4796SOL    HW226113   8.192  10.840   9.869  0.2803  0.0433 -0.3161
 4797SOL     OW26114   1.186   4.339  11.681 -0.0143  0.0665 -0.6793
 4797SOL    HW126115   1.273   4.369  11.654  0.5190 -0.8460 -0.0309
 4797SOL    HW226116   1.126   4.400  11.639  0.8938  0.2086 -1.8532
 4798SOL     OW26117   1.091   6.842   6.797  0.1188  0.2019  0.0301
 4798SOL    HW126118   1.091   6.937   6.795 -1.8390  0.2290 -0.2504
 4798SOL    HW226119   1.026   6.819   6.863  0.3325 -0.9351 -0.1320
 4799SOL     OW26120   6.005  11.033   8.986 -0.5474 -0.0030 -0.8071
 4799SOL    HW126121   6.029  11.009   8.896  2.5393 -0.6650  0.0923
 4799SOL    HW226122   5.996  11.128   8.983  0.2647  0.0643 -1.6902
 4800SOL     OW26123   8.896   0.024   3.278  0.1658 -0.4215 -0.6513
 4800SOL    HW126124   8.874   0.108   3.236 -0.6409  0.5667  1.5684
 4800SOL    HW226125   8.811  -0.013   3.301  0.5510  0.1403  1.9614
 4801SOL     OW26126   1.845   4.684  11.658 -0.2451 -0.1469  0.1126
 4801SOL    HW126127   1.828   4.590  11.648  0.1612 -0.0460 -2.0857
 4801SOL    HW226128   1.922   4.689  11.714 -1.3860 -1.0067  1.8393
 4802SOL     OW26129  11.097   9.909   2.637  0.2654  0.3675 -0.3247
 4802SOL    HW126130  11.139   9.962   2.705 -0.1197  0.9379 -0.5179
 4802SOL    HW226131  11.159   9.910   2.564  0.3598  0.3658 -0.2452
 4803SOL     OW26132   8.653   1.077   7.831 -0.0090 -0.0758  0.2635
 4803SOL    HW126133   8.643   1.025   7.911  0.0948  0.8941  0.9152
 4803SOL    HW226134   8.705   1.153   7.858 -1.2516  1.0330 -0.3806
 4804SOL     OW26135   9.215   5.493   2.623  0.1699  0.3826 -0.1030
 4804SOL    HW126136   9.169   5.470   2.704  1.6082  0.2323  0.7116
 4804SOL    HW226137   9.262   5.573   2.645 -0.8010  1.3437 -1.3656
 4805SOL     OW26138   1.185   4.075   1.258 -0.0090  0.2502 -0.3991
 4805SOL    HW126139   1.252   4.007   1.257  0.1444  0.3250 -3.1764
 4805SOL    HW226140   1.228   4.152   1.220 -1.1656  0.8345 -0.5783
 4806SOL     OW26141   5.455   6.328   4.149 -0.5097 -0.4595 -0.3916
 4806SOL    HW126142   5.370   6.371   4.144  0.5573  1.9650  0.5009
 4806SOL    HW226143   5.451   6.274   4.228 -1.0499  0.1001 -0.0288
 4807SOL     OW26144   7.185  11.720   7.255  0.2151  0.2558 -0.5996
 4807SOL    HW126145   7.214  11.744   7.167 -0.6417  0.7821 -0.7531
 4807SOL    HW226146   7.217  11.790   7.311  2.3099 -0.9610 -0.1670
 4808SOL     OW26147   2.388   0.141   6.964 -0.0619  0.0002  0.2369
 4808SOL    HW126148   2.405   0.235   6.966 -0.3432  0.1884 -2.4738
 4808SOL    HW226149   2.470   0.102   6.934  0.0668 -0.6682  1.3758
 4809SOL     OW26150   3.136   3.256  10.199 -0.2133 -0.0324  0.2081
 4809SOL    HW126151   3.182   3.316  10.257  0.0930 -0.0202 -0.0463
 4809SOL    HW226152   3.155   3.169  10.235 -0.4392  0.0079  0.4223
 4810SOL     OW26153   8.532   2.515   4.403  0.6590 -0.2089  0.4533
 4810SOL    HW126154   8.618   2.536   4.368  1.1292  0.9054  2.1594
 4810SOL    HW226155   8.470   2.558   4.344  1.3796  0.8391  0.4489
 4811SOL     OW26156   8.335   9.125   0.947  0.3058 -0.4137  0.1282
 4811SOL    HW126157   8.417   9.084   0.975  0.1895  0.6462  2.2163
 4811SOL    HW226158   8.269   9.092   1.009 -0.9513 -1.4673 -1.6793
 4812SOL     OW26159   0.678  10.817   6.836 -0.0979  0.7461  0.3925
 4812SOL    HW126160   0.625  10.823   6.757  0.0255  0.8278  0.3160
 4812SOL    HW226161   0.769  10.817   6.805 -0.0625 -1.0481  0.4031
 4813SOL     OW26162   2.652   2.040   9.316  0.1162 -0.2787 -0.0362
 4813SOL    HW126163   2.581   2.003   9.263  0.4396  0.3740 -0.9599
 4813SOL    HW226164   2.726   1.981   9.300  0.5768  0.5982 -1.3567
 4814SOL     OW26165   4.488   6.401   9.510 -0.3298 -0.0590  0.4395
 4814SOL    HW126166   4.538   6.384   9.590 -1.1944 -0.9871  0.8056
 4814SOL    HW226167   4.530   6.347   9.443  0.4805  0.8239  0.2192
 4815SOL     OW26168  11.864   6.212   7.527 -0.6670  0.3238  0.1653
 4815SOL    HW126169  11.842   6.303   7.511  2.7139  1.4401  1.0647
 4815SOL    HW226170  11.870   6.205   7.622 -2.7127 -1.4308  0.2517
 4816SOL     OW26171   6.918  11.194   8.296 -0.3803  0.1227  0.4704
 4816SOL    HW126172   6.829  11.174   8.269  0.2847 -0.7994 -1.1961
 4816SOL    HW226173   6.964  11.110   8.291  0.7531  0.7175  0.5787
 4817SOL     OW26174   9.315  11.501   9.157 -0.0802 -0.1934  0.0709
 4817SOL    HW126175   9.399  11.464   9.130 -0.3319 -0.4583 -0.3788
 4817SOL    HW226176   9.296  11.458   9.241  1.1030  1.2594  1.1227
 4818SOL     OW26177   7.161   0.673   8.154  0.0201 -0.1545 -0.0245
 4818SOL    HW126178   7.161   0.708   8.065  0.2919  0.6584  0.2879
 4818SOL    HW226179   7.250   0.690   8.186 -0.2556  0.1143  0.6141
 4819SOL     OW26180  11.459   4.364   7.310  0.0455 -0.0948 -0.5163
 4819SOL    HW126181  11.498   4.446   7.341 -0.1928 -0.0419 -0.3599
 4819SOL    HW226182  11.366   4.384   7.298  0.0530 -0.2363 -0.8428
 4820SOL     OW26183   3.137   4.979   2.492 -0.1392 -0.2274  0.1652
 4820SOL    HW126184   3.056   5.004   2.447  1.1708  0.5593 -1.9177
 4820SOL    HW226185   3.137   4.883   2.491 -0.5009 -0.2351 -0.9380
 4821SOL     OW26186   3.193   1.490   1.187 -0.4514  0.5926  0.5679
 4821SOL    HW126187   3.118   1.532   1.230 -0.0708  0.4373  1.3952
 4821SOL    HW226188   3.173   1.497   1.093 -0.9365  1.6019  0.7265
 4822SOL     OW26189   5.662   6.111   1.438 -0.1073 -0.8130  0.1291
 4822SOL    HW126190   5.746   6.071   1.462  0.4985 -0.8802 -1.9416
 4822SOL    HW226191   5.673   6.204   1.461  0.6220 -0.7846 -0.3020
 4823SOL     OW26192   9.415   3.232   6.006  0.0244 -0.2161  0.2618
 4823SOL    HW126193   9.328   3.232   5.967 -0.5352  0.4818  1.4404
 4823SOL    HW226194   9.403   3.191   6.092  0.6400  0.7466  0.8363
 4824SOL     OW26195   1.837   6.692   4.789 -0.4192  0.6061  0.0233
 4824SOL    HW126196   1.867   6.636   4.718 -0.4312  0.6491 -0.0160
 4824SOL    HW226197   1.758   6.735   4.754 -0.3836  0.6825  0.0365
 4825SOL     OW26198   1.983   9.775   9.913 -0.7295 -0.4790 -0.1078
 4825SOL    HW126199   1.911   9.816   9.962  0.6671 -1.5248  3.0877
 4825SOL    HW226200   1.994   9.689   9.954  1.8610 -0.6347 -0.9525
 4826SOL     OW26201   8.928  10.219   1.235 -0.4890  0.1356  0.1258
 4826SOL    HW126202   9.021  10.225   1.212  0.1903 -0.9498  2.3005
 4826SOL    HW226203   8.915  10.286   1.302 -0.3102 -1.9748  2.4198
 4827SOL     OW26204  11.537   8.982   5.045 -0.4027 -0.8073 -0.4093
 4827SOL    HW126205  11.534   9.070   5.009 -1.4392 -0.9875 -0.8102
 4827SOL    HW226206  11.609   8.939   4.999 -0.9996 -0.6920 -1.4923
 4828SOL     OW26207  10.625   3.754   9.381  0.4215  0.8638  0.5140
 4828SOL    HW126208  10.577   3.798   9.310 -0.1737  1.2417  1.1321
 4828SOL    HW226209  10.560   3.696   9.421  1.3108 -0.9884 -0.5844
 4829SOL     OW26210   3.172   8.498   9.563  0.4579  0.2138 -0.4996
 4829SOL    HW126211   3.224   8.478   9.485 -0.0897  2.6577 -1.6008
 4829SOL    HW226212   3.187   8.591   9.579 -2.0281  0.5703  0.2667
 4830SOL     OW26213   4.646  11.579   5.096  0.5056  0.0741  0.2798
 4830SOL    HW126214   4.727  11.625   5.072  1.4132 -2.1637 -1.3433
 4830SOL    HW226215   4.674  11.512   5.158  0.0787 -1.1986 -0.8538
 4831SOL     OW26216   3.073   7.920   4.992 -0.0423  0.5158  0.2096
 4831SOL    HW126217   2.986   7.898   4.960  1.0431 -2.3649 -1.0407
 4831SOL    HW226218   3.094   7.851   5.055  1.9711  0.1368 -0.7983
 4832SOL     OW26219   9.181   8.281   4.626  0.2457  0.1540 -0.0780
 4832SOL    HW126220   9.206   8.327   4.706  0.4712  1.0520 -0.6399
 4832SOL    HW226221   9.246   8.211   4.617 -1.0403 -1.3429  1.6360
 4833SOL     OW26222  10.131   7.394   6.359  0.1965 -0.0774 -0.0286
 4833SOL    HW126223  10.118   7.487   6.375  0.1628 -0.0005 -0.5048
 4833SOL    HW226224  10.059   7.369   6.302  0.6191 -0.2376 -0.4956
 4834SOL     OW26225   9.374   0.688   1.968  0.5097 -0.1572  0.7571
 4834SOL    HW126226   9.305   0.653   1.911  1.2299  0.9224 -0.8437
 4834SOL    HW226227   9.436   0.615   1.978  2.1747  0.5246 -2.8110
 4835SOL     OW26228   9.815   8.198   6.323  0.2567  0.2167 -0.0596
 4835SOL    HW126229   9.833   8.178   6.415  1.3839  0.8058 -0.1319
 4835SOL    HW226230   9.728   8.162   6.307  0.8055 -1.6184  0.7295
 4836SOL     OW26231   9.784  11.562   1.052  0.7213  0.0098 -0.2153
 4836SOL    HW126232   9.798  11.473   1.084  0.7724  0.0694 -0.0701
 4836SOL    HW226233   9.865  11.609   1.074 -0.0855  0.6408  1.6299
 4837SOL     OW26234  11.230   1.201   4.264 -0.3429  0.5606 -0.5052
 4837SOL    HW126235  11.195   1.172   4.180 -2.2145 -2.3496  1.1005
 4837SOL    HW226236  11.309   1.149   4.277 -0.2112  0.7984 -0.3487
 4838SOL     OW26237   0.410   9.839   0.612 -0.2969 -0.2930  0.1004
 4838SOL    HW126238   0.390   9.747   0.594  0.7760 -0.6626  0.7344
 4838SOL    HW226239   0.342   9.867   0.673 -0.0118 -0.9747  0.7417
 4839SOL     OW26240   3.082  11.262  11.468  0.2490  0.0096 -0.4431
 4839SOL    HW126241   3.103  11.220  11.384 -1.0095 -1.8616  0.1207
 4839SOL    HW226242   2.992  11.237  11.486 -0.4887  2.7077  0.1632
 4840SOL     OW26243   2.348   9.804  11.414  0.3678  0.5724  0.0682
 4840SOL    HW126244   2.332   9.877  11.474 -0.4213  2.8524 -2.6577
 4840SOL    HW226245   2.433   9.823  11.376  0.6996 -0.6394  0.1760
 4841SOL     OW26246   5.173   4.104   4.888  0.3794 -0.0321 -0.3397
 4841SOL    HW126247   5.213   4.107   4.975  0.6984 -2.7377 -0.3150
 4841SOL    HW226248   5.080   4.084   4.905  0.4595 -0.6507 -0.5946
 4842SOL     OW26249  11.109   3.556   4.640  0.2238 -0.0486 -0.1852
 4842SOL    HW126250  11.049   3.482   4.627  0.1731  0.0296 -0.4020
 4842SOL    HW226251  11.058   3.621   4.687  0.2145 -0.0823 -0.1493
 4843SOL     OW26252   7.997   8.685  10.366 -0.0197 -0.2589 -0.0160
 4843SOL    HW126253   7.957   8.735  10.436  0.2774 -0.1751  0.0978
 4843SOL    HW226254   7.968   8.595  10.380  0.8108 -0.4118  0.7883
 4844SOL     OW26255   2.161   0.584   6.071  0.3401 -0.0964 -0.1537
 4844SOL    HW126256   2.125   0.667   6.101 -1.6085 -0.3906 -1.4810
 4844SOL    HW226257   2.137   0.522   6.140  0.1148  0.0864 -0.0662
 4845SOL     OW26258   3.035  10.887   6.545 -0.5423  0.1109 -0.0070
 4845SOL    HW126259   3.063  10.931   6.625  0.4096  0.3211 -0.4524
 4845SOL    HW226260   3.062  10.945   6.474 -0.3573 -0.6071 -0.5365
 4846SOL     OW26261  11.223   1.191   2.364 -0.5113 -0.2597  0.5775
 4846SOL    HW126262  11.316   1.201   2.384 -0.6831 -0.6538  1.6707
 4846SOL    HW226263  11.181   1.266   2.405 -0.8338 -0.8813  1.4231
 4847SOL     OW26264   3.508   5.132   4.060 -0.1345 -0.0706 -0.3815
 4847SOL    HW126265   3.468   5.205   4.013 -0.1721  0.4342  0.4127
 4847SOL    HW226266   3.601   5.154   4.063 -0.0740 -0.2992 -0.5674
 4848SOL     OW26267   4.063   8.066   1.532  0.0173  0.0678  0.1091
 4848SOL    HW126268   4.068   8.119   1.452  0.2207 -1.8062 -1.1722
 4848SOL    HW226269   4.144   8.087   1.579 -0.9584  2.5965  0.8121
 4849SOL     OW26270   3.235   8.209   0.407  0.5167 -0.0957 -0.2032
 4849SOL    HW126271   3.227   8.292   0.453 -3.5144 -0.5110  0.1998
 4849SOL    HW226272   3.234   8.233   0.314  1.1677  0.3535 -0.1026
 4850SOL     OW26273   2.025   3.884   3.091  0.8398  0.7097 -0.2175
 4850SOL    HW126274   2.065   3.893   3.004 -1.0109 -1.2639 -1.3757
 4850SOL    HW226275   2.081   3.823   3.138 -0.1131 -1.2192 -1.4532
 4851SOL     OW26276   7.626  10.391   0.755  0.2169 -0.4850 -0.0307
 4851SOL    HW126277   7.536  10.364   0.773 -0.4942  1.2339 -0.8195
 4851SOL    HW226278   7.618  10.455   0.685  1.9642  0.4726  0.5960
 4852SOL     OW26279   3.529   0.546   1.633 -0.6780  0.4494  0.0179
 4852SOL    HW126280   3.444   0.518   1.666 -1.3956 -0.0924 -2.1534
 4852SOL    HW226281   3.592   0.493   1.682 -1.4537  1.4766  2.2927
 4853SOL     OW26282   0.993   7.249  10.869 -0.3492  0.3635 -0.2915
 4853SOL    HW126283   0.911   7.267  10.822 -1.7061 -0.2516  1.7294
 4853SOL    HW226284   0.989   7.156  10.889 -0.0638  0.6883  1.4208
 4854SOL     OW26285   7.128  10.076   8.340 -0.2203 -0.0773 -0.1626
 4854SOL    HW126286   7.146   9.982   8.334 -0.4867 -0.3706  2.3042
 4854SOL    HW226287   7.035  10.084   8.321 -0.5575 -0.5695  1.1732
 4855SOL     OW26288   9.157   2.899   6.451 -0.0363 -0.1585  0.2077
 4855SOL    HW126289   9.203   2.897   6.366  0.8697  1.0871  0.6281
 4855SOL    HW226290   9.138   2.992   6.465  1.7160 -0.0339  2.3246
 4856SOL     OW26291   3.700   9.176   7.332  0.0745  0.0072 -0.2099
 4856SOL    HW126292   3.730   9.182   7.422 -1.7654 -0.9876  0.5164
 4856SOL    HW226293   3.609   9.145   7.338 -0.2745  0.4065 -2.3729
 4857SOL     OW26294   3.864   4.751   6.162  0.0497  0.3737 -0.4077
 4857SOL    HW126295   3.840   4.799   6.082  1.6102 -0.9014 -1.7275
 4857SOL    HW226296   3.960   4.759   6.166  0.0572 -0.2188  0.9455
 4858SOL     OW26297  10.564  10.042   5.137  0.9007  0.2545 -0.7966
 4858SOL    HW126298  10.507  10.117   5.151  1.8957  1.1292 -1.3678
 4858SOL    HW226299  10.503   9.968   5.125 -0.0822  0.7647  0.7121
 4859SOL     OW26300   6.061  10.399  10.160  0.1778 -0.0487  0.1674
 4859SOL    HW126301   6.048  10.491  10.137  1.1506 -0.3972 -2.0704
 4859SOL    HW226302   6.155  10.383  10.146  0.3449 -1.0084  2.0843
 4860SOL     OW26303   9.033   7.374   0.128 -0.0422 -0.3880 -0.1964
 4860SOL    HW126304   9.022   7.364   0.222 -0.2970  0.0345 -0.1750
 4860SOL    HW226305   9.121   7.341   0.109 -0.7527 -2.4175 -0.1257
 4861SOL     OW26306   8.002   3.061   4.636 -0.4156  0.5077 -0.0835
 4861SOL    HW126307   7.983   3.066   4.730  0.9954  1.8750  0.1582
 4861SOL    HW226308   7.924   3.100   4.594 -0.9064  0.2024  0.5304
 4862SOL     OW26309   8.682   3.629   6.004 -0.0703 -0.4544  0.2244
 4862SOL    HW126310   8.626   3.559   5.971  0.7966 -0.7604 -0.6295
 4862SOL    HW226311   8.632   3.668   6.076 -0.1657 -2.5618  1.3615
 4863SOL     OW26312   7.964   6.607   5.457  0.4834 -1.0659 -0.3771
 4863SOL    HW126313   7.886   6.649   5.421  1.3309  1.4657  0.5028
 4863SOL    HW226314   7.931   6.530   5.504 -1.1704 -1.3796 -1.9511
 4864SOL     OW26315   5.101   0.639   0.034 -0.0338  0.2257  0.7416
 4864SOL    HW126316   5.009   0.619   0.014  0.3514 -0.6739 -0.2172
 4864SOL    HW226317   5.151   0.583  -0.024  1.1365  1.2722  0.6898
 4865SOL     OW26318   5.328   8.612   5.686  0.3463 -0.2816 -0.3112
 4865SOL    HW126319   5.363   8.532   5.725  0.8675  0.4111  0.6860
 4865SOL    HW226320   5.376   8.623   5.604 -1.2591 -2.1408 -1.6025
 4866SOL     OW26321   8.945   9.834   5.704  0.2452 -0.0033 -0.1960
 4866SOL    HW126322   9.016   9.877   5.752  0.4732 -0.8522  0.2665
 4866SOL    HW226323   8.879   9.816   5.771 -0.1058  0.1602 -0.4945
 4867SOL     OW26324   7.028  10.923   9.149 -0.2284 -0.0128  0.3245
 4867SOL    HW126325   6.943  10.912   9.191 -0.7444  0.3365 -0.6003
 4867SOL    HW226326   7.008  10.940   9.057  0.8867 -1.0726 -0.1450
 4868SOL     OW26327   5.302   2.960   2.978  0.4235 -0.3509  0.2373
 4868SOL    HW126328   5.271   2.875   3.007 -1.0987  0.5993  1.5668
 4868SOL    HW226329   5.329   3.005   3.058  1.7256  0.2366 -0.4962
 4869SOL     OW26330   8.620   6.964   1.364  0.4067  0.0820  0.9107
 4869SOL    HW126331   8.555   6.962   1.294  0.0937  0.4975  1.1786
 4869SOL    HW226332   8.623   7.057   1.390 -0.8060 -0.3088  2.6513
 4870SOL     OW26333   1.406  10.712   9.928 -0.0161  0.1755  0.4775
 4870SOL    HW126334   1.419  10.779   9.861  1.3936  0.8352  1.3739
 4870SOL    HW226335   1.493  10.696   9.964 -0.4553 -1.5110  0.9030
 4871SOL     OW26336   9.313  10.926   4.370  0.0473  0.0831  0.0499
 4871SOL    HW126337   9.356  10.851   4.328 -0.5958 -0.7213  0.7692
 4871SOL    HW226338   9.233  10.939   4.319  0.1405  0.2471 -0.0518
 4872SOL     OW26339   1.828   2.939  10.763 -0.2126  0.4886 -0.3800
 4872SOL    HW126340   1.777   3.001  10.710 -0.3947 -1.1073 -2.1759
 4872SOL    HW226341   1.822   2.973  10.852 -2.7307  1.4578 -0.8394
 4873SOL     OW26342   4.105   4.563  11.895 -0.1167 -0.7084 -0.4668
 4873SOL    HW126343   4.150   4.647  11.896  1.7200 -1.6237 -1.3015
 4873SOL    HW226344   4.118   4.530  11.805  0.8078 -2.6577  0.3198
 4874SOL     OW26345   0.703   1.428   1.562  0.2797  0.2348  0.1847
 4874SOL    HW126346   0.671   1.501   1.510 -0.9290 -0.1023  0.4338
 4874SOL    HW226347   0.710   1.355   1.501 -0.9893 -0.1191  0.4455
 4875SOL     OW26348   7.910   9.642   6.231  0.2404  0.2432  0.5965
 4875SOL    HW126349   7.847   9.710   6.254 -0.6913  0.3047 -1.8421
 4875SOL    HW226350   7.864   9.587   6.167  2.1193 -0.6645 -0.0441
 4876SOL     OW26351   1.080   0.182  10.418  0.3076  0.2531  0.5593
 4876SOL    HW126352   0.988   0.156  10.419  0.2133  0.3854 -1.5780
 4876SOL    HW226353   1.128   0.100  10.406  0.3455  0.3775 -0.1871
 4877SOL     OW26354   9.814   4.514   0.293 -1.1929  0.5342  0.2023
 4877SOL    HW126355   9.795   4.453   0.364  1.5067 -1.3922 -0.5682
 4877SOL    HW226356   9.885   4.569   0.326  0.7047 -0.9557 -1.1596
 4878SOL     OW26357   6.991  10.730   3.249 -0.6081  0.3002 -0.2992
 4878SOL    HW126358   6.915  10.676   3.229  0.3941 -1.2165 -0.1137
 4878SOL    HW226359   7.020  10.762   3.163 -0.3113 -0.7185 -0.5943
 4879SOL     OW26360   2.697   1.183   4.179 -0.1341 -0.4333 -0.1630
 4879SOL    HW126361   2.704   1.257   4.120 -0.1343 -0.2842  0.0220
 4879SOL    HW226362   2.787   1.159   4.200 -0.0947 -1.2950 -1.2150
 4880SOL     OW26363   2.260   9.457   0.806 -0.1954 -0.5241  0.2279
 4880SOL    HW126364   2.341   9.431   0.761 -0.7970 -0.9337 -0.6470
 4880SOL    HW226365   2.235   9.539   0.764 -0.3971 -0.5581  0.2791
 4881SOL     OW26366  10.801   2.388   8.952  0.2863 -0.0607 -0.0670
 4881SOL    HW126367  10.855   2.323   8.997  1.1828 -0.0874 -1.1495
 4881SOL    HW226368  10.779   2.346   8.868 -1.8238 -0.2433  0.5283
 4882SOL     OW26369   8.594   3.793  10.775 -0.2308  0.3272  0.5078
 4882SOL    HW126370   8.532   3.730  10.739 -0.1308  0.2255  0.5092
 4882SOL    HW226371   8.596   3.773  10.869  0.7538 -0.5285  0.3316
 4883SOL     OW26372   0.198   0.181  11.532 -0.1417  0.2597 -0.0705
 4883SOL    HW126373   0.244   0.229  11.602  0.2593  0.6139 -0.5743
 4883SOL    HW226374   0.253   0.104  11.517  0.2928  0.6777 -0.6660
 4884SOL     OW26375   2.669   9.189   0.236 -0.1701  0.6059 -0.2522
 4884SOL    HW126376   2.681   9.094   0.242  0.1635  0.5612 -1.3544
 4884SOL    HW226377   2.579   9.204   0.264  0.0622  0.0675  0.8048
 4885SOL     OW26378   5.851  11.350   4.240  0.8254  0.3580 -0.6259
 4885SOL    HW126379   5.915  11.280   4.253 -0.6252 -0.5591  2.5922
 4885SOL    HW226380   5.886  11.424   4.290 -1.3561 -0.8111  3.0164
 4886SOL     OW26381  10.716   2.653   4.063  0.4793  0.4395 -0.4216
 4886SOL    HW126382  10.792   2.658   4.005  0.0929  0.8430 -0.9047
 4886SOL    HW226383  10.651   2.603   4.012  1.2195 -2.0403  0.8962
 4887SOL     OW26384   5.409  11.221   3.210 -0.3748  0.0477 -0.1953
 4887SOL    HW126385   5.339  11.163   3.240 -0.2146  0.0123  0.1205
 4887SOL    HW226386   5.417  11.204   3.117  0.2144 -1.0217  0.0391
 4888SOL     OW26387   1.882   2.479   0.093  0.0403  0.3391  0.5127
 4888SOL    HW126388   1.816   2.444   0.033  0.9568  0.7714 -0.7865
 4888SOL    HW226389   1.964   2.437   0.066  0.5070  0.6927  1.3400
 4889SOL     OW26390  11.282   0.754   0.138  0.0397  0.3587 -0.3969
 4889SOL    HW126391  11.298   0.748   0.044  1.6147 -2.6161 -0.0693
 4889SOL    HW226392  11.265   0.663   0.164  1.3124  0.8557  2.4467
 4890SOL     OW26393   7.659   7.566  10.036  0.6677  0.7891  0.3187
 4890SOL    HW126394   7.744   7.575  10.078  0.1069  0.8197  1.4773
 4890SOL    HW226395   7.597   7.561  10.108 -0.2314 -0.1435 -0.4987
 4891SOL     OW26396   7.620   3.148   3.453 -0.5438  0.2125  0.6282
 4891SOL    HW126397   7.681   3.074   3.443  0.5729  1.3674 -2.4455
 4891SOL    HW226398   7.548   3.127   3.394 -1.4023  0.5133  1.5507
 4892SOL     OW26399   1.462   2.914   7.970 -0.3576  0.0539 -0.5612
 4892SOL    HW126400   1.536   2.863   8.003 -0.7514 -0.9913 -1.2443
 4892SOL    HW226401   1.418   2.946   8.049 -0.2637 -0.9283 -0.0954
 4893SOL     OW26402   7.098   3.226  11.097 -0.1676 -0.1179  0.1749
 4893SOL    HW126403   7.063   3.216  11.009 -2.6699  1.6632  0.8604
 4893SOL    HW226404   7.028   3.269  11.146  1.1566 -0.9479  3.0295
 4894SOL     OW26405   9.270   4.670   8.868 -0.0472 -0.3328  0.0383
 4894SOL    HW126406   9.180   4.652   8.839  0.1853 -1.4698 -0.0415
 4894SOL    HW226407   9.259   4.713   8.953 -0.6742  0.3619 -0.3804
 4895SOL     OW26408   9.704   5.792  11.806 -0.2913 -0.2287 -0.4818
 4895SOL    HW126409   9.714   5.778  11.900 -0.0886 -0.7767 -0.5791
 4895SOL    HW226410   9.790   5.825  11.777 -1.0622  2.3005 -0.0867
 4896SOL     OW26411   0.463  10.568   5.331  0.2140  0.0889 -0.0294
 4896SOL    HW126412   0.540  10.511   5.335  1.6768  1.9424 -0.0223
 4896SOL    HW226413   0.489  10.647   5.378 -1.5328  0.9815 -0.4620
 4897SOL     OW26414   6.497   1.741   1.414 -0.0002  0.7207 -0.2305
 4897SOL    HW126415   6.409   1.714   1.440  1.1006 -1.0577  2.0723
 4897SOL    HW226416   6.483   1.811   1.350 -3.0458 -0.8072 -1.4128
 4898SOL     OW26417  10.924   5.859   2.918  0.3580 -0.4832 -0.2813
 4898SOL    HW126418  11.005   5.809   2.910  0.6305  0.0557 -0.9748
 4898SOL    HW226419  10.949   5.942   2.956  0.1008 -0.3850 -0.3196
 4899SOL     OW26420   8.310  10.470   6.286 -0.4027  0.3284  0.1945
 4899SOL    HW126421   8.247  10.397   6.279 -1.0536  0.7947  0.9858
 4899SOL    HW226422   8.272  10.539   6.231  0.3922 -0.0262 -0.8381
 4900SOL     OW26423   4.790   2.632  11.789 -0.0402 -0.2163 -0.0364
 4900SOL    HW126424   4.722   2.695  11.766  1.8304  2.0492  0.2520
 4900SOL    HW226425   4.834   2.612  11.706  2.9959  3.4718  0.4032
 4901SOL     OW26426   4.910   9.968   4.466  0.7496 -0.0048  0.6442
 4901SOL    HW126427   4.925  10.004   4.554 -1.3707  0.6445  0.7987
 4901SOL    HW226428   4.829  10.009   4.438  0.8835 -0.9643 -1.2448
 4902SOL     OW26429   9.531   8.266   5.910  0.2049  0.4173  0.2299
 4902SOL    HW126430   9.548   8.300   5.822 -0.0111  1.3030  0.5232
 4902SOL    HW226431   9.613   8.282   5.957 -0.0358  0.9323  0.4851
 4903SOL     OW26432   7.403   7.314   9.817  0.4194 -0.4693  0.2429
 4903SOL    HW126433   7.308   7.304   9.814  0.6109 -2.6197 -2.2399
 4903SOL    HW226434   7.419   7.403   9.784 -0.7229 -0.5758 -0.6461
 4904SOL     OW26435  10.309   8.986   9.615 -0.1065 -0.2010 -0.1738
 4904SOL    HW126436  10.375   9.024   9.558  0.9557  0.3845  1.3799
 4904SOL    HW226437  10.359   8.948   9.687 -1.3810 -1.2114  0.2210
 4905SOL     OW26438   1.246   2.766   7.778  0.4462 -0.1022  0.3631
 4905SOL    HW126439   1.162   2.758   7.823 -0.7263 -0.3865 -1.7959
 4905SOL    HW226440   1.259   2.861   7.769  0.4857 -0.0538  0.8931
 4906SOL     OW26441   1.650  11.308   3.916 -0.0193  0.5640  0.6607
 4906SOL    HW126442   1.648  11.391   3.963  2.0845  0.1780  1.5148
 4906SOL    HW226443   1.683  11.245   3.979  0.0387 -0.5860 -0.4706
 4907SOL     OW26444   8.978   2.457   9.359 -0.0980  0.0295 -0.1334
 4907SOL    HW126445   9.017   2.487   9.441 -0.1536  2.2577 -0.8724
 4907SOL    HW226446   9.050   2.413   9.313  0.7002  1.2839 -0.1148
 4908SOL     OW26447   4.378   4.356  10.823  0.3998  1.0171  0.5972
 4908SOL    HW126448   4.294   4.312  10.822  0.3783  1.0463  0.8583
 4908SOL    HW226449   4.415   4.342  10.736  0.3207  0.6286  0.6280
 4909SOL     OW26450   1.631   4.147   1.626 -0.1006 -0.1863  0.2214
 4909SOL    HW126451   1.699   4.080   1.633  0.7980  0.5707 -0.9276
 4909SOL    HW226452   1.679   4.227   1.606 -1.3165  0.4414 -0.2378
 4910SOL     OW26453   4.754   1.873   4.703  0.3497  0.3599 -0.0144
 4910SOL    HW126454   4.722   1.783   4.693 -1.3237  0.6247  2.2495
 4910SOL    HW226455   4.843   1.863   4.736 -0.4572 -0.5538  2.0469
 4911SOL     OW26456   3.383   9.348   3.061 -0.3623 -0.1536  0.1623
 4911SOL    HW126457   3.326   9.425   3.064 -0.6870 -0.4096  0.5189
 4911SOL    HW226458   3.327   9.275   3.086 -0.3362 -0.6787 -1.2349
 4912SOL     OW26459   7.025   0.833   3.704 -0.2684  0.3026  0.1209
 4912SOL    HW126460   7.040   0.924   3.728 -0.9588  1.1283 -2.3090
 4912SOL    HW226461   6.943   0.834   3.655 -0.3234 -1.6543  0.0752
 4913SOL     OW26462   8.292   1.656   2.423 -0.1365 -0.3416 -0.3671
 4913SOL    HW126463   8.211   1.700   2.450 -0.3899 -1.2013  0.2918
 4913SOL    HW226464   8.340   1.640   2.504 -0.2319 -1.6260 -0.5503
 4914SOL     OW26465   1.144   7.566   3.194  0.3676 -0.0797 -0.4001
 4914SOL    HW126466   1.145   7.470   3.196 -0.7835 -0.1055  0.4748
 4914SOL    HW226467   1.235   7.591   3.178  0.6256 -1.3196 -0.9903
 4915SOL     OW26468   4.780   4.540   2.804  0.2295 -0.3372 -0.2852
 4915SOL    HW126469   4.839   4.476   2.845 -0.3965 -0.4395  0.4745
 4915SOL    HW226470   4.726   4.488   2.744 -0.0922 -0.4812  0.1262
 4916SOL     OW26471   0.503   6.035   3.258  0.5042 -0.5226 -0.0334
 4916SOL    HW126472   0.553   5.978   3.317  0.5058 -1.7286 -1.1446
 4916SOL    HW226473   0.562   6.049   3.184  0.8831  1.7814  0.6397
 4917SOL     OW26474   9.106   7.547   5.513 -0.0439 -0.1383 -0.2752
 4917SOL    HW126475   9.200   7.529   5.513 -0.1614 -0.8502  1.1765
 4917SOL    HW226476   9.086   7.571   5.603 -0.9843  1.6343 -0.9040
 4918SOL     OW26477   9.688   9.180   3.683  0.5168 -0.4079 -0.4410
 4918SOL    HW126478   9.728   9.218   3.761 -1.3750  0.0719  0.3540
 4918SOL    HW226479   9.689   9.250   3.618  0.2710 -0.1548 -0.1712
 4919SOL     OW26480   5.575  10.446   2.419  0.0880  0.5657 -0.1866
 4919SOL    HW126481   5.644  10.380   2.423 -1.3902 -1.0871 -0.4791
 4919SOL    HW226482   5.568  10.478   2.509 -0.3670 -1.0482  0.4016
 4920SOL     OW26483   5.514   2.291   8.640 -0.1635  0.0364  0.1236
 4920SOL    HW126484   5.593   2.343   8.655  0.1168 -0.1388 -0.6981
 4920SOL    HW226485   5.491   2.308   8.548 -1.0151 -0.0073  0.3165
 4921SOL     OW26486   2.673   8.857   5.130 -0.0861  0.4088  0.6379
 4921SOL    HW126487   2.768   8.858   5.135 -0.0934  0.4991  0.7571
 4921SOL    HW226488   2.648   8.949   5.122 -0.0618  0.2871 -1.2242
 4922SOL     OW26489   0.883   5.004   7.539  0.2475  0.0341  0.2625
 4922SOL    HW126490   0.885   5.025   7.445  2.2058  0.4201  0.3512
 4922SOL    HW226491   0.910   4.912   7.544  0.8035  0.2014  0.4689
 4923SOL     OW26492   0.689   0.783   4.806 -0.1983  0.1964 -0.3952
 4923SOL    HW126493   0.767   0.837   4.816  0.1105  0.1193 -2.0419
 4923SOL    HW226494   0.662   0.762   4.895  0.3023  2.1594  0.2682
 4924SOL     OW26495   0.016   9.703   5.841 -0.4811  0.2239 -0.4247
 4924SOL    HW126496   0.093   9.738   5.797  1.3289 -0.2778  2.0936
 4924SOL    HW226497   0.008   9.614   5.807  0.2043  0.2048 -0.5642
 4925SOL     OW26498   7.679   3.125   8.861  0.2783 -0.4797  0.3026
 4925SOL    HW126499   7.677   3.056   8.927  0.3174  0.4957  1.3549
 4925SOL    HW226500   7.751   3.100   8.802  0.3948 -1.2329  0.7490
 4926SOL     OW26501   6.132   3.631   6.564  0.1729 -0.3838  0.1331
 4926SOL    HW126502   6.088   3.577   6.499 -1.1304 -0.0870  0.7374
 4926SOL    HW226503   6.064   3.654   6.627  1.3971 -0.6676  1.6251
 4927SOL     OW26504   7.830   9.087   1.768  0.3878 -0.0786  0.7181
 4927SOL    HW126505   7.909   9.076   1.716 -0.5283  2.8911 -1.5399
 4927SOL    HW226506   7.861   9.120   1.852  1.6509 -1.3817  0.8066
 4928SOL     OW26507   9.747   1.836  11.710  0.0672  0.0889  0.0592
 4928SOL    HW126508   9.738   1.903  11.778  0.2141 -0.1684  0.3370
 4928SOL    HW226509   9.839   1.809  11.716  0.3881  0.8824 -1.0181
 4929SOL     OW26510   9.156  10.188   5.314  0.4006 -0.4643 -0.0976
 4929SOL    HW126511   9.180  10.120   5.250  0.6791 -0.1924 -0.2837
 4929SOL    HW226512   9.062  10.174   5.328  0.2961 -0.4135 -0.7075
 4930SOL     OW26513   3.145  11.689   4.227 -0.4072  0.0510 -0.1412
 4930SOL    HW126514   3.070  11.740   4.197 -0.0276  0.3596 -0.5842
 4930SOL    HW226515   3.148  11.704   4.322  0.9123  2.5503 -0.4948
 4931SOL     OW26516   9.937   1.240   4.327 -0.2970 -0.4076 -0.2410
 4931SOL    HW126517   9.935   1.182   4.251  0.9412  0.7955 -1.2585
 4931SOL    HW226518  10.017   1.292   4.315 -1.7141  2.0432  0.1809
 4932SOL     OW26519  11.262   6.941  10.306 -0.1248 -0.0720 -0.0095
 4932SOL    HW126520  11.237   7.018  10.358 -1.8242 -0.3071 -0.4113
 4932SOL    HW226521  11.185   6.923  10.251 -0.0470 -2.4792  0.5634
 4933SOL     OW26522   1.366   6.525   7.501  0.1548 -0.4025  0.2303
 4933SOL    HW126523   1.425   6.564   7.566  0.5142 -1.2789  0.4437
 4933SOL    HW226524   1.324   6.452   7.547 -0.6045 -0.1946 -0.1189
 4934SOL     OW26525  11.440   5.032   1.728  0.3732 -0.4749  0.3518
 4934SOL    HW126526  11.400   5.119   1.729 -3.1595 -1.8610  2.9221
 4934SOL    HW226527  11.448   5.011   1.635 -0.9840  1.6987 -0.3404
 4935SOL     OW26528   3.044   0.325   4.395 -0.2663 -0.0788  0.3457
 4935SOL    HW126529   2.954   0.323   4.363 -0.5737 -0.0075  1.1929
 4935SOL    HW226530   3.089   0.385   4.336 -0.6422 -0.5350 -0.4119
 4936SOL     OW26531   7.012   5.237   8.995  0.3820 -0.0821  0.2977
 4936SOL    HW126532   7.057   5.155   9.015  0.2828 -0.2809 -0.3010
 4936SOL    HW226533   7.079   5.292   8.953 -0.3153 -0.9885 -2.1699
 4937SOL     OW26534   9.035   3.418  10.997  0.1085 -0.0507 -0.3283
 4937SOL    HW126535   9.054   3.478  11.070  0.8861 -0.6828 -0.0043
 4937SOL    HW226536   8.969   3.464  10.946 -1.5380 -0.1958  1.5497
 4938SOL     OW26537   5.316   7.928   4.871  0.0671 -0.5920  0.1054
 4938SOL    HW126538   5.270   8.006   4.841 -1.1309 -0.5069  1.9617
 4938SOL    HW226539   5.403   7.960   4.897 -0.0489 -0.0696 -0.1476
 4939SOL     OW26540   9.381   0.052   9.698  0.6097 -0.1337 -0.0567
 4939SOL    HW126541   9.452   0.100   9.740 -0.4557  0.1198  1.5470
 4939SOL    HW226542   9.349  -0.008   9.765 -0.2310 -0.7562 -0.9764
 4940SOL     OW26543   2.147   4.537  10.491 -0.6209  0.0226 -0.0639
 4940SOL    HW126544   2.126   4.600  10.559 -2.6904  1.1112 -1.5943
 4940SOL    HW226545   2.240   4.553  10.471 -0.0927 -0.0454  2.1224
 4941SOL     OW26546  10.367   5.590   0.174 -0.2459 -0.3322 -0.3711
 4941SOL    HW126547  10.372   5.613   0.267  0.5515  1.2155 -0.7509
 4941SOL    HW226548  10.274   5.574   0.157 -0.4826  0.0198  0.5608
 4942SOL     OW26549   3.329   6.074  11.874  0.3603 -0.2045 -0.3838
 4942SOL    HW126550   3.257   6.133  11.850 -0.3335 -1.0694 -0.4999
 4942SOL    HW226551   3.356   6.036  11.791  0.2572 -0.6469 -0.2170
 4943SOL     OW26552   5.199   5.556   3.773  0.4656 -0.2608  0.2980
 4943SOL    HW126553   5.139   5.628   3.753  2.6843  1.8905  0.8775
 4943SOL    HW226554   5.244   5.539   3.691  0.3081 -0.6824  0.2936
 4944SOL     OW26555   2.564   6.540   0.654  0.0680 -0.1733  0.2544
 4944SOL    HW126556   2.555   6.612   0.591 -0.2895 -0.3106  0.1453
 4944SOL    HW226557   2.658   6.536   0.672  0.0928  0.3160  0.2586
 4945SOL     OW26558  10.959   9.178   9.925  0.2724 -0.3266  0.3986
 4945SOL    HW126559  10.876   9.225   9.921 -0.4215 -1.4048  1.4903
 4945SOL    HW226560  10.993   9.195  10.012 -0.6973 -2.9055  1.3774
 4946SOL     OW26561   9.065   1.275   8.697  0.0869  0.2937  0.4302
 4946SOL    HW126562   9.073   1.316   8.611 -0.8732  2.1140  1.1387
 4946SOL    HW226563   9.152   1.284   8.736  0.7409 -1.2523 -0.6130
 4947SOL     OW26564   8.717   2.960  10.454 -0.1145 -0.4523 -0.2210
 4947SOL    HW126565   8.699   2.915  10.371  0.6827 -1.1172 -0.0397
 4947SOL    HW226566   8.756   2.893  10.510  2.4973  0.7748 -0.4384
 4948SOL     OW26567  11.828   9.118   0.302 -0.2249  0.5722 -0.4005
 4948SOL    HW126568  11.809   9.188   0.240  0.6042  0.3149 -0.9608
 4948SOL    HW226569  11.910   9.080   0.271 -1.1146 -1.2422 -0.6641
 4949SOL     OW26570   1.756   7.345   7.877  0.5597 -0.1535  0.0028
 4949SOL    HW126571   1.765   7.372   7.968 -0.0896  1.1038 -0.2807
 4949SOL    HW226572   1.827   7.391   7.831  0.0312  0.3473 -0.3338
 4950SOL     OW26573   2.003   4.931   5.758  0.0087 -0.7246 -0.3130
 4950SOL    HW126574   1.987   4.895   5.671 -0.0249 -1.0651 -0.1692
 4950SOL    HW226575   1.917   4.930   5.800  0.4338 -3.1643  0.6917
 4951SOL     OW26576   4.112   0.170   5.942  0.6730  0.1432  0.7421
 4951SOL    HW126577   4.172   0.131   5.879  0.2697  0.0372  0.4185
 4951SOL    HW226578   4.092   0.257   5.907 -0.2889 -0.2711  0.2193
 4952SOL     OW26579   5.857   4.829   7.089 -0.1966  0.2039 -0.0421
 4952SOL    HW126580   5.782   4.810   7.146 -0.4141 -0.9185 -0.6726
 4952SOL    HW226581   5.933   4.825   7.147 -0.4090 -0.9678  0.1726
 4953SOL     OW26582   8.593   1.934   5.005 -0.3711  0.4987 -0.3170
 4953SOL    HW126583   8.579   1.860   4.945 -0.2392 -0.2510  0.5625
 4953SOL    HW226584   8.580   2.012   4.950 -0.6407 -0.1716 -1.2276
 4954SOL     OW26585   0.694  11.377   6.758 -0.4729  0.1485  0.1138
 4954SOL    HW126586   0.670  11.406   6.670 -1.3964  1.7258  0.8490
 4954SOL    HW226587   0.610  11.362   6.802 -0.0268 -0.3771  0.8182
 4955SOL     OW26588  10.747   4.908  11.339 -0.6611  0.7483 -0.5804
 4955SOL    HW126589  10.739   4.991  11.290  1.0240  1.9674  1.0879
 4955SOL    HW226590  10.779   4.934  11.425 -1.7216 -1.5242  0.5825
 4956SOL     OW26591   1.145   7.699   7.579  0.3964 -0.3191  0.5294
 4956SOL    HW126592   1.114   7.685   7.490 -0.0294  1.0098  0.4495
 4956SOL    HW226593   1.113   7.786   7.603 -0.1323 -0.9341  2.2504
 4957SOL     OW26594  10.793  11.607   1.635 -0.4285 -0.5913 -0.1120
 4957SOL    HW126595  10.850  11.683   1.624  0.6051 -1.1011  1.3256
 4957SOL    HW226596  10.809  11.578   1.725 -2.4780 -1.1757  0.1118
 4958SOL     OW26597   8.624   3.145   2.193 -0.2679 -0.3714  0.1424
 4958SOL    HW126598   8.615   3.122   2.285 -1.2089 -1.0221 -0.0950
 4958SOL    HW226599   8.666   3.231   2.193 -0.3861 -0.3071  1.1803
 4959SOL     OW26600  10.186   6.668  11.846 -0.2073 -0.0717 -0.4494
 4959SOL    HW126601  10.162   6.759  11.863 -1.0260 -0.2719 -0.4610
 4959SOL    HW226602  10.110   6.617  11.876  0.5210 -0.8045  0.1889
 4960SOL     OW26603   3.299   0.999  11.821 -0.1719  0.2233 -0.0580
 4960SOL    HW126604   3.348   1.062  11.767  1.9547 -0.9391  0.4014
 4960SOL    HW226605   3.318   1.025  11.911 -0.9292  0.0964  0.1470
 4961SOL     OW26606   9.500   8.290   9.894 -0.2313  0.1743 -0.5875
 4961SOL    HW126607   9.445   8.344   9.951 -0.0218 -1.0494  0.8251
 4961SOL    HW226608   9.451   8.209   9.882  0.0563  0.1326 -1.5904
 4962SOL     OW26609   5.968   1.700   9.892  0.4185 -0.8035  0.2195
 4962SOL    HW126610   5.921   1.712   9.810  1.1661 -0.0299 -0.1096
 4962SOL    HW226611   5.948   1.779   9.943 -0.2082 -1.3670  0.8856
 4963SOL     OW26612   8.080   1.984   5.060 -0.0412 -0.1134  0.0786
 4963SOL    HW126613   8.158   1.929   5.065  0.7031  0.9582  0.5205
 4963SOL    HW226614   8.050   1.993   5.150  2.3695  3.6539  0.7533
 4964SOL     OW26615   2.889   6.933   6.207  0.5213  0.1668  0.0709
 4964SOL    HW126616   2.899   6.876   6.131  0.0624  0.8711 -0.5455
 4964SOL    HW226617   2.969   6.921   6.258  1.4691  0.7171 -1.2435
 4965SOL     OW26618   1.636   5.440   7.323  0.0298  0.5373  0.0653
 4965SOL    HW126619   1.670   5.448   7.234 -1.5493 -1.3955 -0.7725
 4965SOL    HW226620   1.627   5.531   7.353  2.3530  1.2046 -0.9891
 4966SOL     OW26621   9.235   4.980   2.318 -0.4258 -0.2307  0.4010
 4966SOL    HW126622   9.193   5.029   2.389  0.3640 -0.7601  1.2666
 4966SOL    HW226623   9.168   4.917   2.290 -1.5738  1.5018 -0.9666
 4967SOL     OW26624  10.857   2.260   3.353  0.3085  0.5225 -0.2386
 4967SOL    HW126625  10.892   2.349   3.349  0.8879  0.3312  0.2970
 4967SOL    HW226626  10.855   2.240   3.447  1.8132 -0.6448 -0.4303
 4968SOL     OW26627   5.457   5.793   8.035  0.1706  0.2335 -0.4494
 4968SOL    HW126628   5.411   5.774   8.117 -0.0494 -0.0217 -0.6295
 4968SOL    HW226629   5.432   5.883   8.014 -0.3513  0.0588 -0.6086
 4969SOL     OW26630   4.651   9.614   5.803 -0.3433  0.1341 -0.3050
 4969SOL    HW126631   4.571   9.574   5.839  0.2710 -0.2111  0.7032
 4969SOL    HW226632   4.713   9.541   5.794  0.0783  0.5089 -0.4847
 4970SOL     OW26633   4.857   4.172   7.945 -0.5652  0.0994 -0.3444
 4970SOL    HW126634   4.899   4.091   7.975  0.2307  0.5897 -0.1067
 4970SOL    HW226635   4.787   4.142   7.887 -0.5119 -0.7717  0.0202
 4971SOL     OW26636   2.518  10.387  10.463 -0.7067 -0.4177 -0.2991
 4971SOL    HW126637   2.591  10.431  10.507 -0.4513 -0.0503 -1.0816
 4971SOL    HW226638   2.491  10.447  10.394 -3.1529  0.4156  1.2661
 4972SOL     OW26639   9.030   0.210   8.658 -0.0687 -0.5195 -0.0385
 4972SOL    HW126640   9.065   0.261   8.731 -1.8831  0.6717  0.0545
 4972SOL    HW226641   9.072   0.124   8.666  0.5034 -0.1044  1.8182
 4973SOL     OW26642   6.344   5.651   5.596  0.0250  0.5767 -0.5195
 4973SOL    HW126643   6.404   5.626   5.666  0.2900  1.1578 -0.5334
 4973SOL    HW226644   6.274   5.699   5.641 -0.2274  0.2372 -0.5515
 4974SOL     OW26645   5.298   4.718   8.913 -0.1064  0.0315 -0.1251
 4974SOL    HW126646   5.252   4.755   8.988  1.4305  0.6786  0.5245
 4974SOL    HW226647   5.356   4.652   8.950 -0.5595 -0.8531 -0.9442
 4975SOL     OW26648   0.060   4.531   2.607  0.1945 -0.3506 -0.2249
 4975SOL    HW126649   0.141   4.487   2.632 -0.0037 -0.5271  0.1113
 4975SOL    HW226650   0.085   4.586   2.532  0.0469 -2.4395 -1.8893
 4976SOL     OW26651   5.163   9.078   5.100  0.4683 -0.2218  0.1307
 4976SOL    HW126652   5.180   8.989   5.069 -1.3105  0.2430 -2.4350
 4976SOL    HW226653   5.216   9.134   5.044  0.2103  0.4623  0.5566
 4977SOL     OW26654   3.004  10.481   2.116 -0.1036  0.1525 -0.8306
 4977SOL    HW126655   2.982  10.469   2.024 -0.1888 -1.4380 -0.6292
 4977SOL    HW226656   3.018  10.392   2.149  0.6809  0.7467  0.5064
 4978SOL     OW26657   0.470   1.625   6.563  0.1920 -0.4633  0.3532
 4978SOL    HW126658   0.507   1.703   6.605 -1.7330 -0.2681  1.8178
 4978SOL    HW226659   0.404   1.594   6.625 -2.7718 -0.2459 -2.4245
 4979SOL     OW26660   4.409   4.073  11.167  0.1193  0.3930 -0.3873
 4979SOL    HW126661   4.449   4.157  11.143 -1.9620  0.8701 -2.7185
 4979SOL    HW226662   4.336   4.097  11.224 -1.7298  0.5280 -2.6442
 4980SOL     OW26663   6.918  10.012  10.782  0.3919  0.2328  0.2232
 4980SOL    HW126664   6.943   9.924  10.812 -1.1918 -0.0468  0.8182
 4980SOL    HW226665   6.871  10.050  10.857 -0.4723  0.9051 -0.6369
 4981SOL     OW26666  11.536   5.652   7.357 -0.0984  0.1459  0.0751
 4981SOL    HW126667  11.513   5.734   7.399 -1.1438  0.3898 -0.9221
 4981SOL    HW226668  11.632   5.654   7.352 -0.1384  2.1264 -1.4487
 4982SOL     OW26669   3.744   2.616  10.399 -0.6422 -0.0389 -0.2852
 4982SOL    HW126670   3.654   2.585  10.395 -0.2640 -1.1219 -4.2103
 4982SOL    HW226671   3.797   2.536  10.399  0.3532  0.5907  0.6114
 4983SOL     OW26672   2.741   3.336  10.440 -0.5830  0.3417 -0.5933
 4983SOL    HW126673   2.815   3.283  10.468 -0.9854  0.3588  0.5633
 4983SOL    HW226674   2.759   3.424  10.474  0.0267  0.9574 -2.3976
 4984SOL     OW26675  11.835  10.789   6.555 -0.1330 -1.0196  0.7174
 4984SOL    HW126676  11.832  10.736   6.475 -1.4459 -0.6425  0.4948
 4984SOL    HW226677  11.893  10.741   6.613 -0.8782 -2.4528  0.3352
 4985SOL     OW26678  11.066   8.325   7.150  0.1759  0.3449 -0.0730
 4985SOL    HW126679  11.159   8.310   7.166  0.2448 -0.3826 -1.0438
 4985SOL    HW226680  11.064   8.398   7.088  0.1185  0.1244 -0.3325
 4986SOL     OW26681   2.128   8.953   7.398 -0.4508 -1.0714 -0.2419
 4986SOL    HW126682   2.041   8.994   7.401 -0.4136 -0.9162 -1.0508
 4986SOL    HW226683   2.181   9.013   7.346  0.2528 -0.9716  0.5838
 4987SOL     OW26684   6.816  11.543  10.507  0.0921  0.5080  0.6830
 4987SOL    HW126685   6.892  11.577  10.554  0.0071 -0.0563  1.2517
 4987SOL    HW226686   6.773  11.485  10.571  0.3542 -0.8310 -0.3111
 4988SOL     OW26687   1.001   3.112   1.998  0.1803 -0.6463 -0.1792
 4988SOL    HW126688   0.910   3.085   1.985 -0.1986  0.1555  0.6428
 4988SOL    HW226689   1.035   3.129   1.911 -0.8344  0.1872 -0.4280
 4989SOL     OW26690  11.308   5.871  11.460  0.1193  0.1706  0.1879
 4989SOL    HW126691  11.310   5.776  11.447  0.5603  0.0332  1.1502
 4989SOL    HW226692  11.232   5.886  11.516  0.5828  0.2613  0.8127
 4990SOL     OW26693   1.925   1.157  10.931  0.2776  0.0986  0.2948
 4990SOL    HW126694   2.017   1.182  10.937  0.1964  0.9691 -1.4161
 4990SOL    HW226695   1.915   1.124  10.842 -0.7817 -1.3290  0.8933
 4991SOL     OW26696   3.604   5.778   8.292 -0.1817 -0.2272  0.2739
 4991SOL    HW126697   3.540   5.707   8.291 -0.3243 -0.0983  0.1617
 4991SOL    HW226698   3.689   5.735   8.279 -0.1663 -0.4751  1.1473
 4992SOL     OW26699   1.900   0.031   5.814 -0.2371  0.1702 -0.3773
 4992SOL    HW126700   1.816  -0.014   5.816 -0.0692 -0.1434 -0.3102
 4992SOL    HW226701   1.878   0.124   5.819 -0.6943  0.2206 -2.3037
 4993SOL     OW26702   4.334   7.176   1.932  0.5651 -0.0159  0.1603
 4993SOL    HW126703   4.423   7.204   1.952  0.0982  1.0872  0.7615
 4993SOL    HW226704   4.280   7.252   1.953 -0.5179 -0.6706 -0.2071
 4994SOL     OW26705   2.908   0.776   9.129 -0.2029  0.1671 -0.5398
 4994SOL    HW126706   2.943   0.851   9.178 -2.7221  2.0709 -1.3955
 4994SOL    HW226707   2.928   0.796   9.038 -0.5407 -0.4008 -0.7406
 4995SOL     OW26708   3.287   1.413   8.460  0.4067  0.5021  0.3785
 4995SOL    HW126709   3.299   1.320   8.439 -3.1403  0.1185 -0.7488
 4995SOL    HW226710   3.229   1.413   8.535  0.7396  1.8368  0.6535
 4996SOL     OW26711   8.397   1.270   0.920 -0.0854 -0.3505  0.2393
 4996SOL    HW126712   8.325   1.207   0.911 -1.4355  1.3530 -1.5558
 4996SOL    HW226713   8.476   1.215   0.928 -1.3638 -2.2527  0.3573
 4997SOL     OW26714   2.239  10.111  10.287  0.0685 -0.4705  0.1791
 4997SOL    HW126715   2.240  10.058  10.367  0.3214 -1.1179 -0.2461
 4997SOL    HW226716   2.168  10.173  10.301  1.1701  0.5214  1.5939
 4998SOL     OW26717  11.939   1.336   0.826 -0.0253  0.0605  0.1235
 4998SOL    HW126718  11.963   1.247   0.799 -0.3994  0.0759 -0.2663
 4998SOL    HW226719  12.020   1.386   0.817  0.1021 -0.1630  0.0043
 4999SOL     OW26720  11.704  10.774   9.283 -0.1677  0.0314 -0.0155
 4999SOL    HW126721  11.682  10.854   9.237 -1.8544 -1.3248 -1.7144
 4999SOL    HW226722  11.720  10.710   9.214 -0.9152 -1.5997  1.2515
 5000SOL     OW26723   9.347  11.792   7.024  0.0143  0.3109 -0.0397
 5000SOL    HW126724   9.303  11.711   6.997  0.4818 -0.8576  2.3738
 5000SOL    HW226725   9.386  11.826   6.944 -1.6251 -0.9169 -1.4610
 5001SOL     OW26726   9.617   6.256   6.022  0.7107 -0.1409 -0.1808
 5001SOL    HW126727   9.703   6.295   6.007  0.7817 -0.2106  0.0450
 5001SOL    HW226728   9.598   6.208   5.941  0.8421 -0.0529 -0.2656
 5002SOL     OW26729   9.197   3.042   2.625 -0.0652  0.6904  0.2329
 5002SOL    HW126730   9.139   3.115   2.603 -0.1265  0.6998  0.4226
 5002SOL    HW226731   9.263   3.080   2.683  0.1838  0.6983 -0.0509
 5003SOL     OW26732   2.491   0.387  11.244  0.1187 -0.1155  0.0400
 5003SOL    HW126733   2.461   0.299  11.263 -0.4567  0.0076 -0.2781
 5003SOL    HW226734   2.415   0.431  11.207  0.3221  0.5939  0.4423
 5004SOL     OW26735   7.351   2.322   7.290 -0.2074 -0.7453 -0.7938
 5004SOL    HW126736   7.390   2.364   7.366 -3.1692 -0.4389  0.6759
 5004SOL    HW226737   7.335   2.394   7.228 -1.1043 -0.3920 -0.1677
 5005SOL     OW26738   7.010   6.389   3.947 -0.2903  0.2752 -0.3490
 5005SOL    HW126739   7.098   6.426   3.955 -0.7437  1.1666  0.9197
 5005SOL    HW226740   6.955   6.463   3.919 -0.7418 -0.1171 -0.5223
 5006SOL     OW26741  10.593  10.279   3.234 -0.0410 -0.2201 -0.3281
 5006SOL    HW126742  10.687  10.270   3.251 -0.3033 -1.6443  0.5248
 5006SOL    HW226743  10.586  10.272   3.139  0.6592 -0.8262 -0.3474
 5007SOL     OW26744   9.794   3.607   5.579  0.0448  0.2354  0.3002
 5007SOL    HW126745   9.840   3.691   5.589  0.0979  0.0963  1.3517
 5007SOL    HW226746   9.859   3.550   5.539  0.9227 -0.0142  1.9623
 5008SOL     OW26747   2.524   0.969   9.018 -0.0183  0.1078  0.7991
 5008SOL    HW126748   2.455   0.923   8.971  0.4663 -0.0186  0.2002
 5008SOL    HW226749   2.485   1.053   9.043 -0.2378  0.2395  0.0353
 5009SOL     OW26750   6.268  10.538   6.977 -0.2773 -0.0909  0.3024
 5009SOL    HW126751   6.343  10.529   6.918  0.2497  2.6183  0.4146
 5009SOL    HW226752   6.298  10.503   7.061  0.5438  0.0965  0.0916
 5010SOL     OW26753   4.820   3.300   0.367 -0.0968 -0.7037 -0.2058
 5010SOL    HW126754   4.800   3.224   0.421  1.1500 -0.4445  0.6770
 5010SOL    HW226755   4.780   3.374   0.414  0.4613 -0.5600  0.0545
 5011SOL     OW26756   1.229   5.172   1.999 -0.2409 -0.0976 -0.4134
 5011SOL    HW126757   1.233   5.082   2.032  0.1348 -0.1690 -0.6452
 5011SOL    HW226758   1.188   5.222   2.070  1.0135 -0.1556  0.3829
 5012SOL     OW26759   2.969   3.754   3.686  0.5567 -0.0541 -0.0649
 5012SOL    HW126760   3.056   3.794   3.678 -0.3925  2.1855  0.3035
 5012SOL    HW226761   2.908   3.823   3.663 -1.1631 -1.6669 -0.5801
 5013SOL     OW26762   6.136   9.503   3.735 -0.2507  0.0652 -0.1807
 5013SOL    HW126763   6.096   9.526   3.819 -0.4366  1.0557 -0.5202
 5013SOL    HW226764   6.140   9.586   3.687 -0.8600 -0.6023 -1.4532
 5014SOL     OW26765   7.753  10.054   8.312 -0.4507  0.0510  0.4007
 5014SOL    HW126766   7.742  10.061   8.407 -1.5706  0.0987  0.2801
 5014SOL    HW226767   7.688  10.114   8.276 -1.0402 -1.0372 -0.4217
 5015SOL     OW26768   3.377   1.735   3.341  0.6156 -0.0222 -0.3351
 5015SOL    HW126769   3.300   1.678   3.345 -0.2170  1.1026 -0.0134
 5015SOL    HW226770   3.342   1.824   3.346  1.9473  0.5101 -0.0653
 5016SOL     OW26771   6.090   6.461   7.643 -0.0350 -0.0620  0.0408
 5016SOL    HW126772   6.174   6.469   7.689 -0.1798 -0.0826  0.3086
 5016SOL    HW226773   6.080   6.544   7.597  0.2396 -0.1447 -0.1799
 5017SOL     OW26774  10.034   6.262  11.200  0.0319 -0.1144 -0.0987
 5017SOL    HW126775  10.033   6.355  11.224  0.1930 -0.3067  0.6660
 5017SOL    HW226776   9.960   6.224  11.247  0.5238 -0.5519  0.3274
 5018SOL     OW26777  10.575   2.739  11.418  0.1047 -0.3607 -0.0758
 5018SOL    HW126778  10.562   2.663  11.361 -0.9072 -1.0573  1.0441
 5018SOL    HW226779  10.531   2.810  11.373 -2.1585 -1.2751  0.5838
 5019SOL     OW26780   5.821  11.225   0.317  0.3612 -0.2900 -0.1300
 5019SOL    HW126781   5.785  11.148   0.273  0.9202 -0.2053 -0.7493
 5019SOL    HW226782   5.850  11.282   0.246  1.1933 -0.1065  0.3431
 5020SOL     OW26783   6.168   7.687   3.455  0.7144  0.1216 -0.1133
 5020SOL    HW126784   6.109   7.756   3.484 -0.4931 -0.6777 -0.5720
 5020SOL    HW226785   6.118   7.606   3.466  2.0139 -0.6726  0.2218
 5021SOL     OW26786   1.293  10.229   7.577 -0.4033 -0.7229 -0.2000
 5021SOL    HW126787   1.258  10.225   7.666  0.0863 -0.2853  0.0148
 5021SOL    HW226788   1.310  10.322   7.562 -0.1967 -0.8292 -0.6436
 5022SOL     OW26789   7.344   3.364   8.449 -0.2133  0.4768 -1.2053
 5022SOL    HW126790   7.374   3.388   8.537  1.8751 -0.1169 -1.6935
 5022SOL    HW226791   7.317   3.273   8.457  0.5785  0.2285 -1.2984
 5023SOL     OW26792   7.580   0.462   4.694  0.1895  0.1290  0.4218
 5023SOL    HW126793   7.540   0.442   4.778 -1.4665  0.6128 -0.2218
 5023SOL    HW226794   7.547   0.549   4.671 -0.4369 -0.5203 -1.3045
 5024SOL     OW26795   5.210  10.955   6.690 -0.3799  0.3388 -0.3027
 5024SOL    HW126796   5.294  10.962   6.645 -0.2341 -1.3118 -0.3711
 5024SOL    HW226797   5.214  11.020   6.760  0.7620  0.6102 -0.6037
 5025SOL     OW26798   4.551   4.374  10.018 -0.3359 -0.0820  0.1979
 5025SOL    HW126799   4.484   4.307  10.027  2.0355 -2.8025 -0.8130
 5025SOL    HW226800   4.554   4.417  10.104 -1.2260 -1.9942  1.2413
 5026SOL     OW26801   3.765   6.398   3.112  0.3082  0.1669  0.0130
 5026SOL    HW126802   3.753   6.459   3.184 -1.0469 -0.0008 -0.0272
 5026SOL    HW226803   3.685   6.409   3.059  0.9013 -0.3006 -1.0034
 5027SOL     OW26804   3.276   2.474  10.778  0.1408 -0.2148  0.3948
 5027SOL    HW126805   3.345   2.418  10.815  1.3203  1.5578  0.9967
 5027SOL    HW226806   3.323   2.549  10.742 -1.5000  1.5206  1.6536
 5028SOL     OW26807   4.054   3.142   5.695  0.1794  0.9248  0.6717
 5028SOL    HW126808   4.088   3.166   5.781 -1.9114 -2.2140  2.5864
 5028SOL    HW226809   4.061   3.046   5.692 -2.2685  0.6847 -1.4837
 5029SOL     OW26810   2.083   2.380   8.811 -0.7836 -0.2917 -0.3971
 5029SOL    HW126811   2.014   2.364   8.746 -1.2292 -0.1539  0.0377
 5029SOL    HW226812   2.090   2.298   8.859 -0.6825 -0.2872 -0.4044
 5030SOL     OW26813   1.112   2.024   0.852 -0.1201 -0.0914 -0.1903
 5030SOL    HW126814   1.166   1.984   0.785 -0.7018  0.9059 -1.3070
 5030SOL    HW226815   1.161   2.102   0.880  0.8910 -1.3607  1.7834
 5031SOL     OW26816   1.329   1.743   2.571  0.4046 -0.0409  0.3098
 5031SOL    HW126817   1.317   1.698   2.654 -1.8533  0.0605  0.1011
 5031SOL    HW226818   1.318   1.836   2.592  0.2173  0.0166 -0.0316
 5032SOL     OW26819   0.432   4.943   0.270 -0.2850 -0.0056 -0.0102
 5032SOL    HW126820   0.450   5.024   0.319 -0.9056 -0.1373  0.4481
 5032SOL    HW226821   0.491   4.947   0.195 -0.5013  1.0149 -0.1444
 5033SOL     OW26822   2.216   7.114   6.540  0.1007 -0.1475 -0.3426
 5033SOL    HW126823   2.283   7.047   6.549  1.3074  0.9659 -0.6416
 5033SOL    HW226824   2.146   7.086   6.599  0.8400 -1.3302  0.0124
 5034SOL     OW26825  10.478   0.682  10.130 -0.5711  0.2972  0.0311
 5034SOL    HW126826  10.390   0.670  10.093  0.4025 -0.1795 -2.2958
 5034SOL    HW226827  10.527   0.728  10.062  1.5718 -1.3784  0.3218
 5035SOL     OW26828   4.805   4.875  10.835  0.5806 -0.0073  0.0865
 5035SOL    HW126829   4.814   4.947  10.773  0.0360 -0.4829 -0.5526
 5035SOL    HW226830   4.823   4.915  10.920 -0.6672  1.0947 -0.1406
 5036SOL     OW26831   9.082   0.989   8.375  0.2673  0.3924 -0.3531
 5036SOL    HW126832   9.164   0.953   8.343  0.4267  0.0263  0.4428
 5036SOL    HW226833   9.051   1.045   8.305  1.7026  1.3381 -0.2537
 5037SOL     OW26834   6.794   7.436   8.112  0.1826 -0.3619 -0.1377
 5037SOL    HW126835   6.720   7.474   8.064  0.6668  0.6885 -0.0772
 5037SOL    HW226836   6.768   7.441   8.204  0.1975 -0.2859 -0.1380
 5038SOL     OW26837   1.151   3.207  10.720 -0.5208  0.1151  0.1587
 5038SOL    HW126838   1.218   3.192  10.788 -1.2861  2.6730  1.6350
 5038SOL    HW226839   1.195   3.262  10.656 -0.6824  0.2934  0.2001
 5039SOL     OW26840   9.934   1.347  11.372  0.1015  0.5608 -0.3599
 5039SOL    HW126841  10.025   1.319  11.359  0.2069  0.9782 -0.5619
 5039SOL    HW226842   9.942   1.441  11.392 -0.2399  0.4621  0.2623
 5040SOL     OW26843  11.792   5.114   2.781 -0.0876  0.5009 -0.5758
 5040SOL    HW126844  11.795   5.114   2.686  1.8818  0.7704 -0.5507
 5040SOL    HW226845  11.740   5.192   2.803 -0.5135  0.4663 -1.3993
 5041SOL     OW26846   5.505   2.255  11.288  0.3533 -0.4163 -0.4319
 5041SOL    HW126847   5.575   2.232  11.227  0.6257  0.1170 -0.3252
 5041SOL    HW226848   5.483   2.172  11.332  1.7216 -0.3715  0.3738
 5042SOL     OW26849   7.670   4.270   3.698 -0.0202 -0.3052  0.6313
 5042SOL    HW126850   7.693   4.223   3.618 -0.7135 -0.3095  0.4271
 5042SOL    HW226851   7.752   4.276   3.747  0.7225  0.9758 -0.7262
 5043SOL     OW26852   4.599  11.683   4.545  0.1073  0.2557  0.5343
 5043SOL    HW126853   4.534  11.726   4.601  0.3783  2.7388 -0.9255
 5043SOL    HW226854   4.557  11.677   4.459  0.7100 -0.9337  0.3011
 5044SOL     OW26855  10.694   4.910   2.361 -0.8162 -0.4593  0.1924
 5044SOL    HW126856  10.638   4.871   2.428 -0.9943 -0.4874  0.0265
 5044SOL    HW226857  10.636   4.965   2.310 -1.2896 -2.5894 -1.6923
 5045SOL     OW26858   4.338  10.671  10.429  0.3315 -0.1522  0.4560
 5045SOL    HW126859   4.357  10.604  10.363  2.5892  1.7035 -0.9419
 5045SOL    HW226860   4.323  10.751  10.379  0.0101  0.8975  2.1392
 5046SOL     OW26861  11.369   2.188   1.735 -0.4568  0.1240 -0.1632
 5046SOL    HW126862  11.310   2.118   1.708 -0.2690 -1.2069  2.5251
 5046SOL    HW226863  11.398   2.228   1.653 -1.8219 -1.8800 -1.7320
 5047SOL     OW26864   7.380   1.479   6.105  0.0514 -0.0185 -0.8608
 5047SOL    HW126865   7.391   1.473   6.200 -0.9913  1.0282 -0.6576
 5047SOL    HW226866   7.310   1.543   6.092  0.5060  0.2259 -2.3580
 5048SOL     OW26867   5.408   5.265   9.454 -0.2911  0.6921  0.3711
 5048SOL    HW126868   5.445   5.178   9.471  0.1387  1.0615  1.4144
 5048SOL    HW226869   5.318   5.247   9.426 -0.3026 -0.0812  0.8687
 5049SOL     OW26870  10.707   1.713   1.008 -0.0135 -0.5499  0.9863
 5049SOL    HW126871  10.647   1.645   0.977 -2.5002  0.4409  3.2193
 5049SOL    HW226872  10.710   1.777   0.937 -0.0292 -1.5388  0.0672
 5050SOL     OW26873   2.509   8.766   0.107 -0.1183 -0.8343  0.9667
 5050SOL    HW126874   2.436   8.716   0.069 -0.9479  1.1441 -0.1800
 5050SOL    HW226875   2.518   8.842   0.050  1.3911  0.1302  2.4033
 5051SOL     OW26876   5.621   2.600   9.608 -0.1270 -0.0726  0.1663
 5051SOL    HW126877   5.529   2.607   9.633 -0.3307 -1.5904 -0.1048
 5051SOL    HW226878   5.668   2.594   9.691  0.0978  3.6113  0.4954
 5052SOL     OW26879   7.496  11.053   3.484  0.4064 -0.0784 -1.0995
 5052SOL    HW126880   7.481  11.138   3.442  1.8225 -0.3358 -2.1757
 5052SOL    HW226881   7.555  11.072   3.557 -1.0490  0.1673  0.0744
 5053SOL     OW26882   7.219   4.525   1.768 -0.1135 -0.0342 -0.0461
 5053SOL    HW126883   7.231   4.459   1.699 -1.1689 -0.2492 -0.0324
 5053SOL    HW226884   7.283   4.500   1.835 -0.4662 -1.0226 -0.0598
 5054SOL     OW26885   7.453   4.860   5.734  0.4107  0.6828  0.1275
 5054SOL    HW126886   7.400   4.877   5.655  1.9227  1.0602 -0.8470
 5054SOL    HW226887   7.518   4.930   5.734  1.4319 -0.2363  0.8283
 5055SOL     OW26888   0.124   5.695  10.198  0.6100  0.8503  0.7255
 5055SOL    HW126889   0.196   5.716  10.138 -1.0557 -1.3199 -2.3101
 5055SOL    HW226890   0.120   5.599  10.198 -1.2498  0.8645  2.1420
 5056SOL     OW26891   0.492   7.453   2.444 -0.1600 -0.6473 -0.6520
 5056SOL    HW126892   0.399   7.475   2.443  0.1322  0.7109  0.2585
 5056SOL    HW226893   0.520   7.464   2.353 -0.5940  0.2612 -0.6838
 5057SOL     OW26894   5.258  11.018   9.852  0.3837  0.1250 -0.0029
 5057SOL    HW126895   5.249  11.031   9.946 -0.6400  1.1694 -0.2203
 5057SOL    HW226896   5.331  11.074   9.826  2.9136 -2.6282  0.6077
 5058SOL     OW26897   2.052   8.899   4.230 -0.0354 -0.3200 -0.2318
 5058SOL    HW126898   2.137   8.937   4.208 -0.3732  0.0604 -0.9330
 5058SOL    HW226899   1.990   8.969   4.212 -0.3720  0.0060  1.9085
 5059SOL     OW26900   8.062   6.126   3.429 -0.1999 -0.2750  0.7104
 5059SOL    HW126901   7.979   6.079   3.419 -0.3132 -0.2023  1.2528
 5059SOL    HW226902   8.082   6.159   3.341 -1.1563  0.3823  0.7303
 5060SOL     OW26903   2.202   8.513   2.386  0.0792 -0.2186  0.1152
 5060SOL    HW126904   2.269   8.483   2.325  1.1639  0.1053  1.1276
 5060SOL    HW226905   2.156   8.433   2.412 -0.7498 -0.3080 -1.4900
 5061SOL     OW26906   5.300   9.359   0.429  0.2138  0.4326 -0.1014
 5061SOL    HW126907   5.229   9.424   0.429 -1.1685 -0.9842 -1.1106
 5061SOL    HW226908   5.358   9.387   0.359 -1.0447 -0.0421 -1.3963
 5062SOL     OW26909   4.987  10.169   9.992 -0.1261 -0.2462 -0.0649
 5062SOL    HW126910   4.904  10.153  10.037 -0.7889  0.5546 -0.9556
 5062SOL    HW226911   4.999  10.263   9.998 -0.8487  0.0710 -2.5206
 5063SOL     OW26912   6.626   0.637  11.248  0.2276 -0.1378 -0.5803
 5063SOL    HW126913   6.700   0.692  11.224 -0.5236  1.8648  1.4148
 5063SOL    HW226914   6.550   0.680  11.209 -0.3573  0.2385  0.9081
 5064SOL     OW26915   7.317   0.154  10.972  0.0101  0.2936  0.0874
 5064SOL    HW126916   7.361   0.198  10.899 -0.8363  1.5881  0.3228
 5064SOL    HW226917   7.233   0.125  10.935  0.6917 -1.4946 -0.1606
 5065SOL     OW26918   4.844   4.022   5.196  0.5659  0.3986 -0.1000
 5065SOL    HW126919   4.939   4.020   5.186  0.3954 -0.1314 -2.2441
 5065SOL    HW226920   4.814   3.937   5.163 -0.6508  0.6213  0.3817
 5066SOL     OW26921   9.927   9.604  11.661 -0.2060 -0.1349  0.1151
 5066SOL    HW126922   9.865   9.558  11.717 -0.7125  0.3243 -0.0622
 5066SOL    HW226923   9.877   9.628  11.583 -0.5001  2.3068  0.9522
 5067SOL     OW26924   0.315   9.498   8.086 -0.3230  0.1261  0.2712
 5067SOL    HW126925   0.404   9.468   8.102 -0.0173  1.0208  0.3135
 5067SOL    HW226926   0.278   9.435   8.024  0.2312 -0.4220  0.4968
 5068SOL     OW26927   6.897   8.643   3.190  0.0258 -0.3271  0.3252
 5068SOL    HW126928   6.952   8.720   3.203  0.5277 -0.6511  0.1444
 5068SOL    HW226929   6.949   8.570   3.223 -0.8378 -0.4811  1.4293
 5069SOL     OW26930   1.041   9.603   8.968 -0.7855 -0.1527  0.8705
 5069SOL    HW126931   1.062   9.656   9.045  1.3888 -0.5243  0.5922
 5069SOL    HW226932   1.010   9.667   8.903 -1.0721  0.3606  1.4907
 5070SOL     OW26933   9.924   2.226   2.887 -0.1700  0.8737 -0.5044
 5070SOL    HW126934   9.998   2.221   2.947 -0.7510 -0.7073  0.1353
 5070SOL    HW226935   9.924   2.317   2.857  0.6905  1.4885  1.1888
 5071SOL     OW26936   7.017   1.414   8.851  0.6511 -0.2279  0.2534
 5071SOL    HW126937   6.939   1.424   8.905 -0.2163  2.5644 -1.2662
 5071SOL    HW226938   7.090   1.433   8.910 -0.0363 -0.1563  1.1040
 5072SOL     OW26939   8.110   2.013  10.953  0.2483 -0.5114  0.1098
 5072SOL    HW126940   8.041   2.080  10.952  0.4518 -0.3024  0.1568
 5072SOL    HW226941   8.146   2.014  10.865 -0.3688 -1.2005 -0.1573
 5073SOL     OW26942   3.685   7.755  11.734  0.4454  0.9428  0.6662
 5073SOL    HW126943   3.675   7.782  11.643 -1.1426  2.5145  1.2543
 5073SOL    HW226944   3.689   7.659  11.730 -0.2980  0.9486 -0.9920
 5074SOL     OW26945  11.753  11.466   3.756 -0.5814  0.0275 -0.0070
 5074SOL    HW126946  11.740  11.377   3.789 -0.5915 -0.1081 -0.3784
 5074SOL    HW226947  11.841  11.490   3.787 -1.1183  0.4138  1.2738
 5075SOL     OW26948   8.469   4.315   8.713 -0.2740  0.3920  0.1559
 5075SOL    HW126949   8.556   4.351   8.696  0.4514 -1.3082  0.0656
 5075SOL    HW226950   8.437   4.288   8.627  0.1700 -1.2446  0.4825
 5076SOL     OW26951   4.734   1.640  11.798  0.2809 -0.0354 -0.0576
 5076SOL    HW126952   4.775   1.554  11.795  1.1987  0.4235 -1.7559
 5076SOL    HW226953   4.683   1.646  11.718 -1.1768  0.3637  0.8599
 5077SOL     OW26954   1.136   4.229   3.854  0.1894 -0.6680  0.2941
 5077SOL    HW126955   1.171   4.315   3.832  1.3984 -0.8690  1.2800
 5077SOL    HW226956   1.154   4.175   3.777 -0.2126 -0.1405 -0.1715
 5078SOL     OW26957   6.180  11.773   3.201 -0.0948 -0.5454 -0.0313
 5078SOL    HW126958   6.226  11.742   3.123 -2.1446 -0.7843 -1.2020
 5078SOL    HW226959   6.090  11.786   3.173 -0.5113  1.1675  1.8427
 5079SOL     OW26960   9.084   6.570   3.300 -0.1014 -0.2007 -0.4710
 5079SOL    HW126961   8.992   6.593   3.290 -0.1516 -0.6299 -1.0490
 5079SOL    HW226962   9.094   6.555   3.394 -0.2776  1.2182 -0.2113
 5080SOL     OW26963  10.684   3.117   0.057 -0.2490  0.2205  0.2072
 5080SOL    HW126964  10.680   3.189  -0.006  1.2224 -0.1633 -0.3780
 5080SOL    HW226965  10.750   3.057   0.021 -0.8513 -1.0284  1.0866
 5081SOL     OW26966   9.826   6.177   3.896  0.3271 -0.2248  0.4212
 5081SOL    HW126967   9.850   6.219   3.814  2.2862 -2.0605 -0.0348
 5081SOL    HW226968   9.742   6.134   3.877  0.3735  0.0172 -0.3667
 5082SOL     OW26969  10.890  11.033   5.947  0.1780  0.1335  0.8816
 5082SOL    HW126970  10.814  11.015   5.892 -0.3281 -0.6814  1.8007
 5082SOL    HW226971  10.947  11.089   5.894 -0.8557  0.3793  0.0143
 5083SOL     OW26972   3.084   8.700   0.309 -0.4244 -0.2286  0.4246
 5083SOL    HW126973   3.027   8.624   0.320  0.8609 -1.2437  0.2827
 5083SOL    HW226974   3.153   8.689   0.374  0.5347  0.0863 -0.4939
 5084SOL     OW26975   3.381   9.801  11.365 -0.2007 -0.3186  0.7407
 5084SOL    HW126976   3.440   9.867  11.328  1.5941 -2.0915  0.2412
 5084SOL    HW226977   3.308   9.796  11.304 -0.6005  1.4853  1.0255
 5085SOL     OW26978   8.318   9.119   1.781 -0.4484  0.1185  0.1338
 5085SOL    HW126979   8.400   9.167   1.784 -0.4500  0.2857 -1.4279
 5085SOL    HW226980   8.330   9.045   1.840 -0.2358  1.6903  2.1375
 5086SOL     OW26981   5.267   8.452   1.769 -0.6958  0.0477  0.3036
 5086SOL    HW126982   5.314   8.399   1.833  0.5574  1.9325  1.0240
 5086SOL    HW226983   5.202   8.501   1.820 -1.3080 -0.1954 -0.2297
 5087SOL     OW26984  11.640   6.933   6.979 -0.1358  0.2314 -0.3625
 5087SOL    HW126985  11.594   7.002   7.027 -1.0808 -1.4966  1.3453
 5087SOL    HW226986  11.595   6.928   6.895 -2.0888 -0.2904  0.6492
 5088SOL     OW26987   2.060   2.210   0.516  0.0192 -0.3009  0.2837
 5088SOL    HW126988   2.011   2.228   0.436 -1.5306 -0.9818  1.0323
 5088SOL    HW226989   2.148   2.243   0.498 -0.7305  1.1291 -1.0671
 5089SOL     OW26990   6.674   8.512   3.124 -0.5559 -0.5756  0.5933
 5089SOL    HW126991   6.752   8.563   3.145 -1.0750 -0.3241  2.1048
 5089SOL    HW226992   6.704   8.421   3.120  0.0554 -0.3343 -0.2602
 5090SOL     OW26993   1.747   5.424   2.200 -0.2897  0.2786 -0.1878
 5090SOL    HW126994   1.783   5.407   2.287 -1.7437 -0.7134  0.2649
 5090SOL    HW226995   1.804   5.492   2.163  1.0459 -0.0964  1.0708
 5091SOL     OW26996  11.270   1.709  10.156  0.8908 -0.2814  0.6677
 5091SOL    HW126997  11.345   1.651  10.145  0.2411 -1.5824  2.6670
 5091SOL    HW226998  11.288   1.755  10.238  0.1129  0.3745  0.4784
 5092SOL     OW26999   3.668   2.762   5.740  0.1919  0.0067 -0.1258
 5092SOL    HW127000   3.737   2.716   5.788  0.2008 -1.8201 -1.7610
 5092SOL    HW227001   3.669   2.722   5.653 -1.7918  1.1439 -0.7266
 5093SOL     OW27002   4.839   5.315   9.266 -0.7434  0.3994 -0.6747
 5093SOL    HW127003   4.764   5.260   9.242 -0.2828 -0.6355  0.2154
 5093SOL    HW227004   4.912   5.255   9.272 -0.4796  0.8683  1.5987
 5094SOL     OW27005   7.796  11.673  11.364  0.0688 -0.3041  0.2066
 5094SOL    HW127006   7.752  11.633  11.439  1.4394  0.7714  1.6509
 5094SOL    HW227007   7.729  11.676  11.296 -1.1508 -1.5221  1.2884
 5095SOL     OW27008   1.741   0.291   7.177 -0.0128  0.3008  0.4070
 5095SOL    HW127009   1.741   0.371   7.124  1.5850 -0.6590 -1.1661
 5095SOL    HW227010   1.822   0.296   7.228  0.7202 -0.8189 -0.5910
 5096SOL     OW27011   2.009   7.564   8.603 -0.2304  0.1348  0.3657
 5096SOL    HW127012   2.072   7.600   8.665 -2.8638  1.6451  2.4289
 5096SOL    HW227013   2.035   7.600   8.518  1.1423  1.4466  1.2982
 5097SOL     OW27014   8.171   1.613   0.596 -0.3400 -0.2905 -0.6484
 5097SOL    HW127015   8.195   1.634   0.506  0.6263  0.9943 -0.1351
 5097SOL    HW227016   8.207   1.686   0.648 -2.4076 -0.0718  0.5899
 5098SOL     OW27017   3.683  10.302   1.522  0.2750  0.6647  0.5841
 5098SOL    HW127018   3.617  10.360   1.483  0.7667  2.3112  2.0852
 5098SOL    HW227019   3.756  10.305   1.461 -0.7508 -0.7094 -0.7963
 5099SOL     OW27020  10.290   8.104   9.119  0.3317  0.5975  0.4055
 5099SOL    HW127021  10.239   8.029   9.086  0.7017  0.7288 -0.4742
 5099SOL    HW227022  10.313   8.079   9.209  1.5627 -0.9290 -0.2898
 5100SOL     OW27023   8.007   8.798   2.254 -0.1510  0.1955 -0.2470
 5100SOL    HW127024   7.962   8.869   2.299 -1.2214 -0.9825  0.6010
 5100SOL    HW227025   7.942   8.764   2.192  0.1006 -0.5007 -0.1382
 5101SOL     OW27026   0.970  10.683   4.828  0.3914  0.2324 -0.0495
 5101SOL    HW127027   1.058  10.648   4.813  0.5399  1.0964 -1.3150
 5101SOL    HW227028   0.914  10.631   4.770  0.0284 -0.4257  0.8736
 5102SOL     OW27029   1.380   7.912   5.194 -1.1472  0.6060 -0.4396
 5102SOL    HW127030   1.294   7.929   5.155 -1.4077 -0.5241 -0.4040
 5102SOL    HW227031   1.435   7.885   5.119 -0.3685  2.7476 -0.7185
 5103SOL     OW27032   3.617   0.823   0.211  0.5235  0.0608  0.2057
 5103SOL    HW127033   3.563   0.760   0.257  1.3886 -0.0334  1.1159
 5103SOL    HW227034   3.632   0.783   0.125 -2.6864  1.0783 -1.0073
 5104SOL     OW27035   7.753   6.152   8.599 -0.9288  0.2919  0.3074
 5104SOL    HW127036   7.844   6.149   8.570 -1.4165  1.2582 -1.4826
 5104SOL    HW227037   7.710   6.079   8.553 -0.9408 -0.6260  1.7160
 5105SOL     OW27038  10.299   6.797   5.358  0.1147  0.2925 -0.5389
 5105SOL    HW127039  10.242   6.838   5.423 -0.3708  0.1293 -0.8538
 5105SOL    HW227040  10.295   6.855   5.282  0.9665  0.6711 -0.3020
 5106SOL     OW27041  11.181   3.874   8.897 -0.1775  0.3460  0.8383
 5106SOL    HW127042  11.127   3.801   8.925  0.1914 -0.2102  0.1431
 5106SOL    HW227043  11.122   3.950   8.898 -1.3310 -0.4562 -1.0595
 5107SOL     OW27044   8.196  10.594   4.798  0.6434  0.2636 -0.3757
 5107SOL    HW127045   8.245  10.526   4.845 -0.2775 -0.0235  0.1992
 5107SOL    HW227046   8.260  10.662   4.781  1.0326  0.3459  1.2657
 5108SOL     OW27047  11.296   9.835   6.040  0.3195 -0.1005  0.0602
 5108SOL    HW127048  11.312   9.784   6.119 -1.2563 -1.5544 -0.4974
 5108SOL    HW227049  11.240   9.907   6.068  0.8731  0.1709  0.4899
 5109SOL     OW27050   7.283  10.377   6.886  0.2299 -0.2872  0.1063
 5109SOL    HW127051   7.245  10.410   6.805  1.0587  1.4483  0.3802
 5109SOL    HW227052   7.268  10.446   6.950  1.8207 -0.5151  0.7837
 5110SOL     OW27053   6.084   9.085   5.188 -0.4895  0.0009 -0.3563
 5110SOL    HW127054   6.007   9.040   5.224  0.0897 -1.6988 -1.1324
 5110SOL    HW227055   6.146   9.090   5.261  0.5406 -3.1094 -0.8848
 5111SOL     OW27056   1.370   6.146   1.890  0.2614 -0.2339 -0.0446
 5111SOL    HW127057   1.363   6.076   1.825 -0.5937  1.4659 -1.8947
 5111SOL    HW227058   1.441   6.202   1.859 -0.2773  0.7103  0.3590
 5112SOL     OW27059  10.789   9.705   6.840 -0.0962 -0.3263  0.7327
 5112SOL    HW127060  10.846   9.689   6.915 -0.1453 -0.1453  0.8112
 5112SOL    HW227061  10.746   9.788   6.861 -0.1180 -0.2804  0.5076
 5113SOL     OW27062  11.207   2.373   4.875 -0.1675  0.0988  0.3920
 5113SOL    HW127063  11.262   2.298   4.852  0.6761  0.4591  1.1771
 5113SOL    HW227064  11.140   2.336   4.933 -0.6827 -0.3057 -0.4227
 5114SOL     OW27065   9.185   1.939   8.742 -0.6023 -0.0828  0.0670
 5114SOL    HW127066   9.116   1.899   8.795 -1.4389  1.2579  0.0406
 5114SOL    HW227067   9.171   1.905   8.654 -1.6358  0.6514 -0.0636
 5115SOL     OW27068   6.004   4.836  10.069  0.3367 -0.2630  0.1805
 5115SOL    HW127069   6.073   4.874  10.015 -0.5043  0.7409 -0.2298
 5115SOL    HW227070   6.029   4.856  10.159 -0.3792  1.9091 -0.0276
 5116SOL     OW27071   1.319   2.877  11.100  0.1132  0.0108 -0.0261
 5116SOL    HW127072   1.308   2.854  11.192 -1.5636 -0.9524 -0.4187
 5116SOL    HW227073   1.349   2.968  11.101  0.5057 -0.1045  1.4599
 5117SOL     OW27074   0.095   3.285   5.925 -0.4713  0.0020 -0.2112
 5117SOL    HW127075   0.184   3.301   5.955 -0.0130 -0.5063 -1.2369
 5117SOL    HW227076   0.056   3.229   5.992  0.1239 -0.1047  0.0492
 5118SOL     OW27077   4.717   3.778   6.019  0.3564 -0.8675  0.4197
 5118SOL    HW127078   4.721   3.683   6.007 -2.9649 -1.3219  1.9432
 5118SOL    HW227079   4.781   3.796   6.088  0.1922 -2.2054  0.9449
 5119SOL     OW27080   8.042   5.756   7.577 -0.4473 -0.0892  0.2389
 5119SOL    HW127081   8.094   5.817   7.523  0.9499  0.1275  1.7388
 5119SOL    HW227082   7.969   5.809   7.609 -0.2778  0.2838  0.0156
 5120SOL     OW27083   1.644   8.986   2.576  0.2785  0.1789 -0.6507
 5120SOL    HW127084   1.616   8.929   2.648  1.0418  2.2800  1.4622
 5120SOL    HW227085   1.599   9.069   2.593 -0.3990  0.4307 -3.3137
 5121SOL     OW27086   5.585   4.140   8.790  0.2501 -0.2571  0.4254
 5121SOL    HW127087   5.627   4.116   8.872  2.5932 -0.6265 -0.7898
 5121SOL    HW227088   5.591   4.061   8.736 -3.2494 -0.7720  0.5389
 5122SOL     OW27089   0.611  10.539   5.983  0.0200 -0.2257  1.0237
 5122SOL    HW127090   0.572  10.625   5.969 -2.6967 -1.2670  1.5212
 5122SOL    HW227091   0.599  10.521   6.076  0.4005 -1.2165  0.9037
 5123SOL     OW27092   9.473   9.388   0.625  0.1547  0.3299  0.8579
 5123SOL    HW127093   9.414   9.461   0.605 -0.6566  0.0403  2.1096
 5123SOL    HW227094   9.558   9.430   0.641 -0.0896  0.9058  0.6801
 5124SOL     OW27095   8.841   2.347   4.594 -0.2806  0.6457 -1.0189
 5124SOL    HW127096   8.790   2.426   4.612 -1.4323 -0.3525  0.3359
 5124SOL    HW227097   8.796   2.306   4.521 -1.5054 -0.2293  0.1680
 5125SOL     OW27098   7.336   2.748   1.070  0.3696  0.3919  0.2433
 5125SOL    HW127099   7.322   2.817   1.006  0.1012 -0.3112 -0.4749
 5125SOL    HW227100   7.296   2.781   1.150  0.4583  1.1639 -0.0231
 5126SOL     OW27101   4.724   7.517   8.561 -0.1868  0.1798  0.3526
 5126SOL    HW127102   4.675   7.470   8.629  0.0149  0.8344  0.9542
 5126SOL    HW227103   4.662   7.581   8.526 -0.0352  0.4047  0.4952
 5127SOL     OW27104   2.015   6.083   4.176 -0.1695  0.5022  0.2659
 5127SOL    HW127105   2.017   6.117   4.086 -0.9101 -0.6187 -0.1907
 5127SOL    HW227106   2.102   6.047   4.191  0.5782  2.3737  0.6946
 5128SOL     OW27107   2.339   9.180   0.355 -0.0450  0.4033 -0.5033
 5128SOL    HW127108   2.370   9.141   0.436 -1.9489  0.8104  0.4666
 5128SOL    HW227109   2.352   9.274   0.367  2.0053  0.3478 -1.7454
 5129SOL     OW27110   2.647   9.512   3.280 -0.7320 -0.7663 -0.0030
 5129SOL    HW127111   2.647   9.490   3.373 -0.3191 -0.5004  0.0613
 5129SOL    HW227112   2.667   9.429   3.236 -1.6469 -1.0536  0.0996
 5130SOL     OW27113   2.776  10.382   4.988 -0.0092 -0.8311 -0.0024
 5130SOL    HW127114   2.854  10.366   4.935  1.5181  0.1706  1.7829
 5130SOL    HW227115   2.775  10.477   5.000 -1.5509 -0.8209 -0.0279
 5131SOL     OW27116   1.807   4.583   8.415  0.6249 -0.0665 -0.2486
 5131SOL    HW127117   1.837   4.616   8.500 -1.0570 -1.0196  0.7734
 5131SOL    HW227118   1.792   4.661   8.363  0.4690  0.6122  0.7806
 5132SOL     OW27119   1.860   5.447   4.895  0.0604 -0.6242  0.3493
 5132SOL    HW127120   1.878   5.476   4.806 -0.6600 -1.4573 -0.0809
 5132SOL    HW227121   1.815   5.521   4.936 -0.8091 -0.7147 -0.4035
 5133SOL     OW27122   6.720  10.167   2.588 -0.2128 -0.7947  0.0387
 5133SOL    HW127123   6.779  10.220   2.641  0.0412  0.4174 -1.3820
 5133SOL    HW227124   6.778  10.105   2.544 -0.0511 -0.0447 -0.8387
 5134SOL     OW27125   5.002   6.722  10.892 -0.1262  0.2864 -0.2571
 5134SOL    HW127126   4.923   6.687  10.932  0.4170  0.2453  0.8338
 5134SOL    HW227127   5.066   6.650  10.898  1.3122  1.6395  2.9152
 5135SOL     OW27128   4.088   3.611   6.186  1.1361  0.6025 -0.1184
 5135SOL    HW127129   4.122   3.522   6.188  2.2479  0.8788 -2.5348
 5135SOL    HW227130   4.166   3.666   6.181  0.4345  1.5712 -0.8716
 5136SOL     OW27131   2.602  11.687   5.183  0.6674  0.7348 -0.1923
 5136SOL    HW127132   2.589  11.600   5.144 -0.9215  0.6207  0.5575
 5136SOL    HW227133   2.678  11.676   5.241  1.6545  0.3479 -1.4910
 5137SOL     OW27134  10.782   8.787   9.877 -0.2913  0.1026  0.3441
 5137SOL    HW127135  10.725   8.754   9.947 -1.7807  0.6690 -0.5600
 5137SOL    HW227136  10.729   8.853   9.832  1.5939  1.7200  0.3561
 5138SOL     OW27137   8.049   8.045   5.316 -0.3039  0.0452 -0.0675
 5138SOL    HW127138   8.136   8.083   5.328 -0.3940  0.4756 -0.7190
 5138SOL    HW227139   8.047   7.970   5.375  0.3592  0.2784  0.2581
 5139SOL     OW27140   3.735   8.523   7.725  0.0527  0.1690  0.0534
 5139SOL    HW127141   3.778   8.599   7.765  1.5852 -1.0491  0.8377
 5139SOL    HW227142   3.646   8.524   7.761  0.3746  0.9929  0.8603
 5140SOL     OW27143  10.805  10.788   9.161 -0.4255 -0.3033  0.6861
 5140SOL    HW127144  10.846  10.786   9.248 -1.1139  0.6732  1.0481
 5140SOL    HW227145  10.869  10.833   9.106 -0.1079 -0.6719  0.7473
 5141SOL     OW27146   0.196   2.461   0.221  0.1601 -0.2131 -0.2057
 5141SOL    HW127147   0.152   2.480   0.138 -2.4140  1.4852  1.4100
 5141SOL    HW227148   0.256   2.535   0.233  1.4489 -1.0839 -1.0732
 5142SOL     OW27149   4.022   0.446  10.500 -0.3690 -0.4189 -0.1294
 5142SOL    HW127150   3.945   0.463  10.446 -0.0182 -1.6861 -1.0770
 5142SOL    HW227151   4.001   0.365  10.547  0.8397 -1.5036 -1.3678
 5143SOL     OW27152  10.003   5.265   0.950  0.1098 -0.0932 -0.0715
 5143SOL    HW127153  10.040   5.178   0.937 -0.0493  0.0365 -1.5104
 5143SOL    HW227154  10.078   5.324   0.954  0.1903 -0.2178  0.2586
 5144SOL     OW27155  10.913   9.018   1.855  0.0888  0.6557  0.1421
 5144SOL    HW127156  10.941   9.109   1.863  1.0592  0.3509  0.3320
 5144SOL    HW227157  10.892   8.992   1.944  1.7439  0.1070  0.3982
 5145SOL     OW27158   6.842   9.973   5.412  0.0677  0.3413  0.5759
 5145SOL    HW127159   6.789   9.897   5.435  0.8025 -0.4776 -0.3656
 5145SOL    HW227160   6.800  10.047   5.457 -1.6725 -0.3307  0.0946
 5146SOL     OW27161   2.041  11.745  10.169 -0.5866  0.5698 -0.4713
 5146SOL    HW127162   1.962  11.708  10.208 -0.0401  1.0026  1.1452
 5146SOL    HW227163   2.011  11.824  10.124 -1.1732  0.3659 -0.4364
 5147SOL     OW27164   4.743   1.300   0.760 -0.0281 -0.0166  0.5117
 5147SOL    HW127165   4.825   1.277   0.717 -1.9337 -0.0759 -3.5327
 5147SOL    HW227166   4.694   1.218   0.765 -0.6905  0.3834  0.8139
 5148SOL     OW27167   5.214   3.447   1.715 -0.1923  0.0608  0.0882
 5148SOL    HW127168   5.252   3.534   1.715 -2.4004  1.1065 -0.5673
 5148SOL    HW227169   5.183   3.434   1.805  1.6071 -0.8011  0.6287
 5149SOL     OW27170   5.474   7.457   9.405 -0.1620 -0.2167  0.1205
 5149SOL    HW127171   5.554   7.416   9.371 -0.2063 -0.8376  0.7260
 5149SOL    HW227172   5.444   7.515   9.335  0.3452 -0.6324 -0.4496
 5150SOL     OW27173   2.182   7.402   9.582  0.4040 -0.0910 -0.3421
 5150SOL    HW127174   2.222   7.325   9.542  0.9073 -0.5587  0.9879
 5150SOL    HW227175   2.145   7.451   9.509  1.0669 -1.0193 -1.3310
 5151SOL     OW27176   2.275   9.121   3.070 -0.4713  0.5588  0.6833
 5151SOL    HW127177   2.193   9.169   3.054 -2.2803 -2.6471 -0.5069
 5151SOL    HW227178   2.325   9.131   2.989 -0.2782  1.3644  0.8900
 5152SOL     OW27179   3.610   2.283   1.001 -0.5286  0.1202  0.0899
 5152SOL    HW127180   3.584   2.283   1.093  0.6857  1.8606  0.4791
 5152SOL    HW227181   3.529   2.301   0.953 -0.7498  1.6852  1.0093
 5153SOL     OW27182   8.319   2.800   9.340  0.2112 -0.1910  0.3214
 5153SOL    HW127183   8.333   2.851   9.419 -1.1644 -0.9731  1.0988
 5153SOL    HW227184   8.406   2.771   9.315  0.4464 -3.0070  3.6661
 5154SOL     OW27185  11.828   4.348   6.772  0.2387 -0.4562 -0.3728
 5154SOL    HW127186  11.827   4.280   6.705 -1.1830 -0.3613 -0.4832
 5154SOL    HW227187  11.738   4.381   6.773  0.0276 -0.9429  2.0958
 5155SOL     OW27188   8.324  10.178   4.363  1.0658 -0.4086  0.1672
 5155SOL    HW127189   8.267  10.116   4.409  0.2887  0.5211  0.4975
 5155SOL    HW227190   8.341  10.136   4.278  0.4404 -1.0117  0.3304
 5156SOL     OW27191   4.244   7.431   0.271  0.2051 -0.4628  0.3183
 5156SOL    HW127192   4.288   7.393   0.195 -0.4502  0.0653 -0.3348
 5156SOL    HW227193   4.153   7.401   0.263 -0.5870  1.9898 -0.7712
 5157SOL     OW27194   8.129   8.392   8.131 -0.1246 -0.1245 -0.2087
 5157SOL    HW127195   8.176   8.474   8.147  1.2119 -1.0095  0.5906
 5157SOL    HW227196   8.038   8.419   8.117  0.5733  1.6612 -1.8730
 5158SOL     OW27197  11.245   7.575  11.649 -0.1036  0.1047  0.5111
 5158SOL    HW127198  11.241   7.642  11.580 -0.0058  1.1373  1.4738
 5158SOL    HW227199  11.278   7.497  11.605  2.7790  1.5247 -0.0602
 5159SOL     OW27200   3.434   2.902   8.188 -0.7264  0.2404  0.2695
 5159SOL    HW127201   3.345   2.881   8.215 -0.5463 -0.0167  0.6794
 5159SOL    HW227202   3.468   2.819   8.153 -0.7605  0.4226 -0.1953
 5160SOL     OW27203  10.253   6.422   0.689 -0.4722  0.3758  0.3634
 5160SOL    HW127204  10.209   6.361   0.630  2.1406 -2.4110  1.0878
 5160SOL    HW227205  10.250   6.506   0.643 -0.3965 -1.2017 -2.7803
 5161SOL     OW27206   3.450   2.508   2.577 -0.5433 -0.4192 -0.3865
 5161SOL    HW127207   3.357   2.492   2.560 -0.4473 -0.1819 -1.1953
 5161SOL    HW227208   3.492   2.425   2.556 -0.4694 -0.2439 -0.9467
 5162SOL     OW27209   9.052   5.603   1.782  0.4589  0.0103  0.7661
 5162SOL    HW127210   9.001   5.626   1.859  0.2851  0.3215  0.5617
 5162SOL    HW227211   9.141   5.588   1.815 -0.3305 -3.6590  1.6402
 5163SOL     OW27212   6.627   2.837   8.429 -0.2901  0.3933 -0.0208
 5163SOL    HW127213   6.537   2.847   8.397 -0.2391  1.6585  0.1724
 5163SOL    HW227214   6.620   2.843   8.524  0.0961  1.5730 -0.0463
 5164SOL     OW27215   1.873   4.158   5.766 -0.5823  0.0029  0.3776
 5164SOL    HW127216   1.871   4.062   5.768 -1.5117  0.0223  0.6206
 5164SOL    HW227217   1.908   4.184   5.851  2.8323 -0.1530 -0.8058
 5165SOL     OW27218  10.406   8.038  10.803 -0.7638  0.4065 -0.6555
 5165SOL    HW127219  10.452   8.114  10.767 -0.5527 -0.1055 -1.4907
 5165SOL    HW227220  10.437   7.964  10.750 -0.5808 -0.3471  0.4713
 5166SOL     OW27221   0.358   5.011   3.946 -0.3186 -0.0065  0.4490
 5166SOL    HW127222   0.327   4.939   3.891 -1.1112  0.7022 -0.0584
 5166SOL    HW227223   0.281   5.037   3.997 -0.0932  0.5957  0.4898
 5167SOL     OW27224   7.853   9.644   9.931  0.0544 -0.5917  0.2016
 5167SOL    HW127225   7.860   9.597   9.848 -1.3250  0.3728 -0.5082
 5167SOL    HW227226   7.768   9.617   9.966 -0.1315  0.2997  0.4516
 5168SOL     OW27227   7.157  10.186  11.424 -0.3878  0.5669  0.2691
 5168SOL    HW127228   7.140  10.092  11.434 -1.8338  0.9099  1.5449
 5168SOL    HW227229   7.237  10.201  11.474  0.6633 -0.1878 -1.1189
 5169SOL     OW27230  10.434   8.069  11.068 -0.0057 -0.7550 -0.1422
 5169SOL    HW127231  10.402   8.155  11.093  0.3836 -0.4758 -0.5948
 5169SOL    HW227232  10.412   8.061  10.975  1.3953 -0.4706 -0.5230
 5170SOL     OW27233   6.590   6.856  11.934 -0.5521  0.3974 -0.1782
 5170SOL    HW127234   6.646   6.899  11.870 -1.2500  0.6299 -0.6406
 5170SOL    HW227235   6.525   6.923  11.958  0.0741  0.5259  1.2492
 5171SOL     OW27236   9.925   5.573   1.600  0.0980  0.4384  0.4409
 5171SOL    HW127237   9.939   5.612   1.514  1.6393 -0.2583  0.3497
 5171SOL    HW227238   9.886   5.643   1.652 -0.0036  1.1403 -0.5546
 5172SOL     OW27239   3.084   4.568   7.594 -0.1693  0.1678  0.6335
 5172SOL    HW127240   3.000   4.600   7.561 -1.4513 -2.7577  0.7295
 5172SOL    HW227241   3.080   4.584   7.689 -0.3876  0.4832  0.5739
 5173SOL     OW27242  10.528   6.855   9.005 -0.3714 -0.0009  0.4869
 5173SOL    HW127243  10.587   6.799   8.954 -0.5639  2.0302 -2.2269
 5173SOL    HW227244  10.503   6.802   9.080  1.4742 -2.5353 -0.5439
 5174SOL     OW27245   4.533   2.839   7.889  0.8143 -0.0421 -0.2742
 5174SOL    HW127246   4.475   2.902   7.846 -0.1680 -0.0595  0.9541
 5174SOL    HW227247   4.533   2.866   7.981  3.1253  0.2088 -0.2856
 5175SOL     OW27248   3.935   5.210   2.284 -0.0964 -0.4697 -0.1248
 5175SOL    HW127249   3.976   5.250   2.208 -3.7726  1.0090 -1.5702
 5175SOL    HW227250   3.965   5.263   2.358 -0.5404  1.5573 -1.3051
 5176SOL     OW27251   9.097   6.719   3.062 -0.0083  0.1952  0.0492
 5176SOL    HW127252   9.151   6.687   3.134  1.1572 -0.3944 -1.0542
 5176SOL    HW227253   9.127   6.670   2.986 -1.5949  0.4049 -0.7519
 5177SOL     OW27254  11.466   2.037   2.824 -0.4674  0.1736 -0.1052
 5177SOL    HW127255  11.434   2.094   2.894  0.2535  0.1377  0.2628
 5177SOL    HW227256  11.403   2.049   2.753 -2.0193 -0.8489  1.0378
 5178SOL     OW27257  11.059   7.564  11.098 -0.2828  0.2906  0.3464
 5178SOL    HW127258  11.053   7.580  11.004 -1.5397  0.6135  0.4651
 5178SOL    HW227259  11.055   7.651  11.137 -2.0376  0.0529  0.7787
 5179SOL     OW27260   8.389   2.432   5.714  0.5086  0.0091  0.1277
 5179SOL    HW127261   8.313   2.407   5.661  0.2696 -0.9128  0.8559
 5179SOL    HW227262   8.461   2.381   5.678  0.5447  0.0809  0.0993
 5180SOL     OW27263   8.973   6.069   0.362 -0.8079 -0.2993  0.5347
 5180SOL    HW127264   8.899   6.088   0.420 -0.4273 -0.7725  1.1873
 5180SOL    HW227265   8.969   5.975   0.348 -0.6929 -0.2359  0.0686
 5181SOL     OW27266  10.086   3.008   3.799  0.5520 -0.2072  0.4407
 5181SOL    HW127267  10.130   2.938   3.752  1.7274  1.5284 -1.1835
 5181SOL    HW227268  10.140   3.023   3.877 -0.2556 -1.7084  1.3278
 5182SOL     OW27269   9.679   3.732   4.358 -0.0678 -0.3203  0.2961
 5182SOL    HW127270   9.715   3.818   4.379  0.0197 -0.7315  1.9124
 5182SOL    HW227271   9.584   3.746   4.356 -0.1270 -0.3894  1.6713
 5183SOL     OW27272   2.405  10.072   2.957  0.2014 -0.1295  0.7287
 5183SOL    HW127273   2.496  10.080   2.987  0.4478  0.6904 -0.1847
 5183SOL    HW227274   2.380  10.161   2.932 -1.0273 -0.2668  1.4082
 5184SOL     OW27275   0.022  10.272  10.685 -0.0750  0.5917 -0.6176
 5184SOL    HW127276   0.028  10.186  10.728 -1.4819  1.6083  1.8324
 5184SOL    HW227277   0.012  10.252  10.592  0.5158 -1.8504 -0.2346
 5185SOL     OW27278   4.247   9.293   9.087  0.0832  0.2486 -0.0304
 5185SOL    HW127279   4.157   9.312   9.114 -0.0334 -0.0441 -0.2174
 5185SOL    HW227280   4.280   9.377   9.054 -0.0249  0.4247  0.3020
 5186SOL     OW27281  10.197   5.903  11.078  0.3089 -0.8536 -0.3681
 5186SOL    HW127282  10.154   5.885  11.162 -1.4475 -2.3095 -1.4898
 5186SOL    HW227283  10.277   5.851  11.081  1.0602  0.3211  0.9828
 5187SOL     OW27284   7.194   6.421   1.953  0.3388  0.4795  0.3119
 5187SOL    HW127285   7.118   6.449   1.903 -1.4929 -1.4356  1.8786
 5187SOL    HW227286   7.255   6.387   1.888 -0.2490  1.7089 -0.9283
 5188SOL     OW27287   8.678  10.527  10.038 -0.4669  0.0175 -0.2428
 5188SOL    HW127288   8.660  10.609   9.993 -2.7240  0.4778  1.3118
 5188SOL    HW227289   8.736  10.552  10.111  0.5214 -0.1668 -0.9434
 5189SOL     OW27290  11.843   0.111   8.175  0.1782 -0.5206 -0.2180
 5189SOL    HW127291  11.834   0.152   8.088 -1.4436  0.0579  0.1849
 5189SOL    HW227292  11.937   0.117   8.194  0.2402  1.6593 -0.8649
 5190SOL     OW27293   2.206   6.026   4.769 -0.1410 -0.1065  0.4511
 5190SOL    HW127294   2.143   5.973   4.818 -0.1110 -0.2374  0.3486
 5190SOL    HW227295   2.153   6.077   4.709 -0.0164 -2.6189 -2.0323
 5191SOL     OW27296  11.447   1.224   0.424  0.2077  0.2349  0.6034
 5191SOL    HW127297  11.429   1.171   0.346  1.4212  0.1298  0.3814
 5191SOL    HW227298  11.378   1.199   0.486 -1.6809  1.3845 -0.9200
 5192SOL     OW27299  11.416   1.803   0.033 -0.0340 -0.0931  1.2117
 5192SOL    HW127300  11.364   1.748  -0.026 -0.0280 -0.1477  1.2580
 5192SOL    HW227301  11.493   1.827  -0.019  0.0725 -0.3143  1.2686
 5193SOL     OW27302  11.482  11.377   6.693 -0.0526 -0.4241 -0.1157
 5193SOL    HW127303  11.548  11.384   6.624 -1.1132  0.3862 -1.0919
 5193SOL    HW227304  11.399  11.379   6.646 -0.8533  1.4865  1.2500
 5194SOL     OW27305   3.631  11.143   8.936  0.1261 -0.0393 -0.1300
 5194SOL    HW127306   3.584  11.171   8.857  2.1460  0.9144 -1.0734
 5194SOL    HW227307   3.695  11.212   8.951  0.2050 -0.5109  2.0303
 5195SOL     OW27308   6.340  11.326   4.558  0.2344  0.3185  0.2193
 5195SOL    HW127309   6.324  11.419   4.542 -0.4062  0.1749 -0.0088
 5195SOL    HW227310   6.264  11.297   4.609 -0.4727 -0.4838 -1.2421
 5196SOL     OW27311   2.699   0.360   5.885  0.2804 -0.3203  0.0914
 5196SOL    HW127312   2.753   0.427   5.926 -1.1228  0.9832 -0.1105
 5196SOL    HW227313   2.720   0.367   5.792  1.2189 -1.2050  0.2162
 5197SOL     OW27314   8.263  11.265  10.690 -0.0686 -0.4011  0.4292
 5197SOL    HW127315   8.264  11.359  10.674 -0.8757 -0.6398 -1.3231
 5197SOL    HW227316   8.173  11.247  10.717 -1.0068 -1.0605 -2.6438
 5198SOL     OW27317   5.060   1.669   6.439 -0.3902 -0.1397 -0.5343
 5198SOL    HW127318   5.121   1.733   6.404  0.3094 -0.9249 -0.7875
 5198SOL    HW227319   4.982   1.720   6.462 -0.4694  0.5676 -2.2231
 5199SOL     OW27320  10.543   4.739   4.804 -0.0281  0.5309  0.4824
 5199SOL    HW127321  10.504   4.796   4.870  0.4023  0.9145  0.4092
 5199SOL    HW227322  10.596   4.677   4.854 -0.2840  0.3559  0.5423
 5200SOL     OW27323   8.695   9.749   4.184  0.4645  0.7830  0.0945
 5200SOL    HW127324   8.621   9.710   4.138  0.0581 -0.2488  1.5340
 5200SOL    HW227325   8.679   9.729   4.276  1.5007  2.3172  0.6510
 5201SOL     OW27326   2.079   5.597   6.623 -1.3103  0.1540 -0.3544
 5201SOL    HW127327   2.051   5.583   6.532  1.7155 -0.6031 -1.2744
 5201SOL    HW227328   2.130   5.679   6.619 -1.6073  0.4079  0.7994
 5202SOL     OW27329   2.940   3.328   4.253  0.2320  0.2583  0.0903
 5202SOL    HW127330   2.920   3.250   4.201  1.0358  0.1218 -0.0216
 5202SOL    HW227331   2.949   3.295   4.343  0.2994  0.2639  0.0854
 5203SOL     OW27332   5.197   1.861   6.287  0.0085 -0.0847 -0.3163
 5203SOL    HW127333   5.289   1.855   6.314 -0.0999 -0.5853 -0.0504
 5203SOL    HW227334   5.201   1.862   6.191  0.3280  0.6137 -0.3046
 5204SOL     OW27335   4.376   6.325   6.318 -0.6378 -0.0321 -0.6544
 5204SOL    HW127336   4.436   6.399   6.304 -4.1271  3.6173  1.5638
 5204SOL    HW227337   4.326   6.319   6.236 -1.2818  1.1185 -0.3689
 5205SOL     OW27338   2.619   1.725   4.444  0.2386 -0.8259  0.3232
 5205SOL    HW127339   2.619   1.646   4.390  0.9125 -0.8381  0.3299
 5205SOL    HW227340   2.598   1.695   4.532  1.6266 -1.1791  0.5563
 5206SOL     OW27341   0.032   9.376   0.496  0.3547 -0.1799  0.1428
 5206SOL    HW127342  -0.048   9.394   0.546  0.4102 -0.8158  0.4679
 5206SOL    HW227343   0.098   9.356   0.563  0.7745  0.2686 -0.1254
 5207SOL     OW27344   5.738   6.475   6.918  0.1593  0.3917  0.3498
 5207SOL    HW127345   5.676   6.431   6.860  2.1006 -2.6535  0.3516
 5207SOL    HW227346   5.685   6.539   6.965 -3.2279 -2.4794  0.8796
 5208SOL     OW27347   3.526   8.353   9.993  0.4624 -0.2104 -0.1201
 5208SOL    HW127348   3.548   8.264   9.964 -0.5695 -0.4135 -0.3078
 5208SOL    HW227349   3.566   8.360  10.080  0.2405 -0.9925  0.0553
 5209SOL     OW27350   3.973   5.608   2.486  0.3425  0.3587 -0.2306
 5209SOL    HW127351   4.049   5.654   2.452  0.3149  1.1441  0.7321
 5209SOL    HW227352   3.933   5.669   2.548  0.1185 -0.8360  0.8376
 5210SOL     OW27353   1.140   1.264   1.016 -0.3692  0.2465 -0.4038
 5210SOL    HW127354   1.063   1.312   0.987 -0.1331 -0.7366 -2.9347
 5210SOL    HW227355   1.124   1.174   0.989  0.2101 -0.7204  2.1322
 5211SOL     OW27356   7.738   9.331   6.554  0.0121  0.2798  0.2580
 5211SOL    HW127357   7.831   9.311   6.541  0.1868  1.5554 -0.6988
 5211SOL    HW227358   7.694   9.246   6.551  1.0582 -0.2614 -0.1937
 5212SOL     OW27359   9.263   4.854   8.339 -0.0629  0.4173  0.0976
 5212SOL    HW127360   9.206   4.834   8.413  1.4188 -3.0569  0.5267
 5212SOL    HW227361   9.233   4.796   8.270  1.7273 -0.1655 -0.2498
 5213SOL     OW27362   9.975   4.492   7.910 -0.3128  0.7964  0.3433
 5213SOL    HW127363   9.906   4.432   7.939  0.9433 -1.5030 -1.0569
 5213SOL    HW227364   9.937   4.539   7.836 -0.3236 -0.7211 -0.6588
 5214SOL     OW27365   4.732   6.655   2.897  0.3283 -0.1574 -0.1903
 5214SOL    HW127366   4.656   6.627   2.845  1.3927 -0.9212 -1.3961
 5214SOL    HW227367   4.795   6.583   2.888  0.6386 -0.2310  2.0456
 5215SOL     OW27368   6.576   9.669   1.911 -0.2804  0.3030 -0.2657
 5215SOL    HW127369   6.652   9.670   1.852 -1.2643  0.2531 -1.5944
 5215SOL    HW227370   6.570   9.578   1.940  0.6255  0.4707  0.5089
 5216SOL     OW27371   8.857   2.823   9.355  0.4957 -0.0763 -0.4188
 5216SOL    HW127372   8.937   2.790   9.312  0.8488 -1.2027  1.0336
 5216SOL    HW227373   8.849   2.770   9.434 -0.5705  1.4226  0.5168
 5217SOL     OW27374   0.553  11.370   3.725  0.0490 -0.0007 -0.0470
 5217SOL    HW127375   0.530  11.428   3.653 -1.2884 -1.0786 -0.5202
 5217SOL    HW227376   0.643  11.396   3.749 -0.1673  1.5992 -0.8506
 5218SOL     OW27377  11.479   8.496   8.156 -0.1950 -0.2414  0.5880
 5218SOL    HW127378  11.482   8.457   8.069  0.0441 -0.5707  0.7448
 5218SOL    HW227379  11.399   8.550   8.155  0.0887  0.1788 -0.0092
 5219SOL     OW27380   8.786   2.728   6.139  0.2522 -0.1952  0.2091
 5219SOL    HW127381   8.828   2.707   6.223  0.7008 -0.3034 -0.0422
 5219SOL    HW227382   8.771   2.643   6.098 -2.2806 -0.3377  1.2686
 5220SOL     OW27383   2.139   1.372   5.529 -0.6490 -0.1781  0.1160
 5220SOL    HW127384   2.184   1.289   5.514 -0.5790  0.2581 -2.5238
 5220SOL    HW227385   2.053   1.361   5.488 -1.0934  0.6619  0.7816
 5221SOL     OW27386   0.311   0.886   5.802  0.2720  0.6043 -0.5656
 5221SOL    HW127387   0.405   0.895   5.788  0.1653  1.4083 -0.8271
 5221SOL    HW227388   0.294   0.792   5.794  0.7624  0.6407 -2.4898
 5222SOL     OW27389  10.679   1.844   0.755  0.2974 -0.5174 -0.1534
 5222SOL    HW127390  10.759   1.842   0.702 -0.1736  0.8444 -0.9484
 5222SOL    HW227391  10.621   1.781   0.713  0.5912 -0.8068 -0.1357
 5223SOL     OW27392   7.844   0.597   6.220 -0.2254  0.0736  0.0129
 5223SOL    HW127393   7.810   0.599   6.131 -1.1043  0.6866  0.3536
 5223SOL    HW227394   7.938   0.583   6.209 -0.4476 -0.7773 -0.9746
 5224SOL     OW27395   1.075   3.545   3.891 -0.0631 -0.3232  0.1954
 5224SOL    HW127396   1.052   3.611   3.826  0.2609 -0.2579  0.1474
 5224SOL    HW227397   1.061   3.462   3.846 -1.5224 -0.3182  0.6010
 5225SOL     OW27398   5.912   1.617   2.493 -0.0703 -0.1718  0.0656
 5225SOL    HW127399   5.891   1.701   2.534 -0.6067 -0.3394  0.1496
 5225SOL    HW227400   5.831   1.592   2.448  0.5832  0.1428 -1.3504
 5226SOL     OW27401  10.504   9.910   7.247 -0.5427 -0.0097  0.6270
 5226SOL    HW127402  10.439   9.953   7.192 -1.1150  0.3855  1.5898
 5226SOL    HW227403  10.453   9.849   7.300  0.1891 -1.5751 -0.3718
 5227SOL     OW27404   1.785   8.052   9.344  0.0152  0.2419  0.5751
 5227SOL    HW127405   1.808   8.041   9.252  0.1525 -1.0416  0.7339
 5227SOL    HW227406   1.868   8.040   9.391 -0.2218 -0.1245  0.9119
 5228SOL     OW27407   8.383  10.829   3.694 -0.0528  0.3854  0.6975
 5228SOL    HW127408   8.301  10.793   3.726  0.7500 -1.3479  0.9068
 5228SOL    HW227409   8.429  10.860   3.772 -0.0453  0.3740  0.6971
 5229SOL     OW27410   6.720   2.738  10.128  0.1176  0.1877  0.4138
 5229SOL    HW127411   6.799   2.746  10.074  0.6244 -1.9843  0.7347
 5229SOL    HW227412   6.681   2.655  10.102 -0.7259  0.0530  1.9606
 5230SOL     OW27413   2.600   8.142   7.636  0.1089 -0.7800 -0.2733
 5230SOL    HW127414   2.507   8.166   7.641  0.1831 -0.7098  1.4108
 5230SOL    HW227415   2.646   8.226   7.627  0.1587 -0.4710  2.1409
 5231SOL     OW27416   3.593   6.397   6.332  0.0309 -0.7542  0.1110
 5231SOL    HW127417   3.665   6.446   6.373 -1.7993  2.9934 -0.7801
 5231SOL    HW227418   3.631   6.361   6.252  0.8291  1.8794 -0.7922
 5232SOL     OW27419   4.809   5.118  10.691 -0.4642  0.2072  0.6795
 5232SOL    HW127420   4.782   5.153  10.776 -0.7769  0.7988  0.3471
 5232SOL    HW227421   4.876   5.179  10.661  0.2728 -0.4914  0.8856
 5233SOL     OW27422   2.687   7.535   3.371 -0.4029 -0.5173 -0.4115
 5233SOL    HW127423   2.658   7.459   3.321  1.2494 -1.3772 -0.0964
 5233SOL    HW227424   2.779   7.519   3.390 -0.8579 -0.1129  2.6782
 5234SOL     OW27425   3.131   4.316   2.619  0.1866  0.4796  0.1124
 5234SOL    HW127426   3.036   4.312   2.629  0.2357  0.3589  0.5694
 5234SOL    HW227427   3.152   4.408   2.638  0.4765 -0.1131  3.1816
 5235SOL     OW27428   2.158   1.023   4.984 -0.0679 -0.1867 -0.1560
 5235SOL    HW127429   2.187   0.965   4.914 -1.0064  0.2517 -0.9264
 5235SOL    HW227430   2.239   1.046   5.031  0.3207 -2.0563  0.1416
 5236SOL     OW27431  11.551   3.186   0.410 -0.4054 -0.5196 -0.6610
 5236SOL    HW127432  11.554   3.234   0.492  2.0673 -3.7082  1.3774
 5236SOL    HW227433  11.465   3.144   0.409 -1.0633  0.8005 -0.5464
 5237SOL     OW27434   8.955   0.973   0.833  0.4752 -0.4369 -0.1653
 5237SOL    HW127435   8.964   1.037   0.903 -1.0192  1.9529 -1.9891
 5237SOL    HW227436   9.040   0.973   0.789  1.1712 -1.3759  1.1348
 5238SOL     OW27437   5.225   2.677  11.307  0.0884  0.0541  0.1169
 5238SOL    HW127438   5.277   2.607  11.269 -0.3383 -0.0895 -0.2138
 5238SOL    HW227439   5.146   2.633  11.340  0.1036  0.2872  0.4686
 5239SOL     OW27440  10.249   6.317   3.860 -0.1137 -0.1346  0.0153
 5239SOL    HW127441  10.343   6.337   3.857  0.6180 -3.0171  0.7433
 5239SOL    HW227442  10.220   6.325   3.770  0.5101  1.8608 -0.0740
 5240SOL     OW27443   5.177   5.497   6.176 -0.0430  0.1541 -0.1807
 5240SOL    HW127444   5.230   5.575   6.165 -0.2305  0.3027 -0.0429
 5240SOL    HW227445   5.144   5.477   6.089  0.6751 -0.2503 -0.3618
 5241SOL     OW27446   1.914   3.603   6.338  0.4876  0.7928 -0.5496
 5241SOL    HW127447   1.920   3.698   6.346  1.5394  0.6864  0.0484
 5241SOL    HW227448   1.979   3.581   6.272  0.8252  0.4039 -0.0878
 5242SOL     OW27449   3.248   2.595  11.294 -0.1423 -0.2272 -0.5392
 5242SOL    HW127450   3.310   2.523  11.287 -1.0649 -1.0510 -0.5513
 5242SOL    HW227451   3.270   2.655  11.223 -1.2328 -1.9970 -2.4568
 5243SOL     OW27452   4.680   4.098  11.051  0.3594  0.2310  0.3411
 5243SOL    HW127453   4.639   4.184  11.052  1.1044  0.5890  0.6685
 5243SOL    HW227454   4.747   4.104  10.982  1.4966  0.4465  1.4202
 5244SOL     OW27455  11.305   3.914   2.429 -0.5087  0.5126  0.3323
 5244SOL    HW127456  11.270   3.838   2.383 -0.8364  0.4484  0.6771
 5244SOL    HW227457  11.302   3.890   2.521  1.6247  0.0223  0.3229
 5245SOL     OW27458   8.498   3.256  11.468  0.1327 -0.1981 -0.2863
 5245SOL    HW127459   8.554   3.183  11.440  0.2593  0.5581 -2.0641
 5245SOL    HW227460   8.414   3.239  11.426 -1.1481 -1.4092  2.4836
 5246SOL     OW27461   9.449   8.700   2.576  0.0120 -0.2696 -0.0091
 5246SOL    HW127462   9.531   8.650   2.566 -0.7964 -2.0875  1.7326
 5246SOL    HW227463   9.448   8.759   2.501  3.5389  0.7585  0.5455
 5247SOL     OW27464   1.490   2.830   6.495 -0.4870  0.2246  0.0662
 5247SOL    HW127465   1.584   2.847   6.504 -0.3777 -1.3163  3.0899
 5247SOL    HW227466   1.476   2.825   6.400  2.8273 -1.1495 -0.5015
 5248SOL     OW27467   7.792   3.077   0.503  0.4110  0.5685 -0.5607
 5248SOL    HW127468   7.820   2.995   0.544 -1.8513  0.8016  1.7479
 5248SOL    HW227469   7.810   3.144   0.569  0.3098  1.6064 -1.5632
 5249SOL     OW27470   1.408   0.992  10.945  0.3265  0.6019  0.2358
 5249SOL    HW127471   1.456   1.039  11.014  0.4751  1.5147 -0.4729
 5249SOL    HW227472   1.472   0.932  10.908  0.2852  0.2067  0.7941
 5250SOL     OW27473   4.477   2.749   8.475 -0.0353 -0.3544  0.7776
 5250SOL    HW127474   4.432   2.768   8.557 -1.3449  3.0642 -0.5337
 5250SOL    HW227475   4.560   2.709   8.502 -0.7117 -0.0489  3.6926
 5251SOL     OW27476   1.622   5.927   3.178 -0.2417  0.0779  0.1415
 5251SOL    HW127477   1.689   5.860   3.164  0.5002  0.8282 -0.0068
 5251SOL    HW227478   1.631   5.950   3.271 -0.7057 -0.2409  0.2680
 5252SOL     OW27479   0.596   1.554   2.128 -0.3824 -0.5272 -0.1776
 5252SOL    HW127480   0.681   1.573   2.088 -0.0836 -1.5033 -0.0454
 5252SOL    HW227481   0.574   1.467   2.094 -1.5401 -0.1008 -0.5450
 5253SOL     OW27482   7.244   1.233   7.165 -0.7749 -0.0335  0.1442
 5253SOL    HW127483   7.294   1.279   7.098  0.5302 -0.0598  1.0549
 5253SOL    HW227484   7.209   1.156   7.121  2.3520 -1.5567  0.0644
 5254SOL     OW27485  10.021   9.605   5.344  0.2102  0.0809  0.2353
 5254SOL    HW127486  10.014   9.593   5.439  0.1499  1.3089  0.4061
 5254SOL    HW227487  10.052   9.521   5.311  0.6710 -0.2265  1.4060
 5255SOL     OW27488  11.632   2.304   9.354  0.0697  0.4719  0.0242
 5255SOL    HW127489  11.682   2.385   9.345  0.3187  0.1208 -2.4118
 5255SOL    HW227490  11.541   2.333   9.354  0.1591  0.9947  3.0024
 5256SOL     OW27491   9.971   2.710   5.509 -0.5121 -0.5466  0.7982
 5256SOL    HW127492  10.004   2.784   5.559  3.2215 -1.8517  0.5332
 5256SOL    HW227493   9.984   2.733   5.418 -1.0297 -0.8236  0.6478
 5257SOL     OW27494   9.614  10.440   9.801  0.5285  0.4996  0.0031
 5257SOL    HW127495   9.708  10.456   9.797  0.6136 -0.1294 -0.8956
 5257SOL    HW227496   9.605  10.347   9.781 -0.1429 -0.0154  2.4200
 5258SOL     OW27497   5.783   8.767   3.871  0.0467  0.0747 -0.2411
 5258SOL    HW127498   5.772   8.750   3.965 -0.1416  2.8000  0.3114
 5258SOL    HW227499   5.877   8.775   3.859 -0.0194  1.5967  0.1278
 5259SOL     OW27500  10.591   2.501   8.648 -0.6016  0.4424  0.3200
 5259SOL    HW127501  10.560   2.444   8.577 -0.0162 -0.1653  0.5530
 5259SOL    HW227502  10.611   2.442   8.720  1.8314  0.7040 -0.0591
 5260SOL     OW27503   0.725   7.699   6.246  0.8124  0.1356  0.5848
 5260SOL    HW127504   0.784   7.671   6.316 -1.9085 -0.2946  2.8983
 5260SOL    HW227505   0.747   7.642   6.172  1.9874 -1.3150  1.9802
 5261SOL     OW27506   4.024   0.265   9.778  0.2269 -0.2455  0.3806
 5261SOL    HW127507   4.117   0.288   9.767 -0.0113  0.8426  0.5340
 5261SOL    HW227508   3.986   0.340   9.823 -0.9592 -0.1953 -0.6563
 5262SOL     OW27509  11.221   5.839   1.629  0.4774 -0.2087 -0.0054
 5262SOL    HW127510  11.134   5.838   1.669  0.5680  0.1051  0.2103
 5262SOL    HW227511  11.204   5.831   1.535 -0.0020  2.5767 -0.2688
 5263SOL     OW27512  10.759   6.925   0.398 -0.3198 -0.2655 -0.2910
 5263SOL    HW127513  10.666   6.920   0.375  0.2869 -1.4360 -2.8153
 5263SOL    HW227514  10.798   6.979   0.330  1.0661 -0.9601 -0.0812
 5264SOL     OW27515   7.958   1.913   4.607  0.2618 -0.2340  0.3064
 5264SOL    HW127516   7.876   1.946   4.570 -0.1137  0.3557  1.5998
 5264SOL    HW227517   7.930   1.852   4.675  0.9299 -0.6633  0.2014
 5265SOL     OW27518   6.958  11.292   8.950  0.2513  0.8480 -0.0290
 5265SOL    HW127519   6.937  11.320   8.860  0.1830  1.3701  0.1475
 5265SOL    HW227520   6.873  11.286   8.993  0.1238 -1.1175 -0.4766
 5266SOL     OW27521   9.770   2.459   7.109 -0.1163  0.1147  0.0599
 5266SOL    HW127522   9.854   2.445   7.153  0.4643  0.7275 -0.8230
 5266SOL    HW227523   9.706   2.417   7.166  0.6496  0.6146  1.3320
 5267SOL     OW27524   6.352   7.119   0.749 -0.0113  0.2553 -0.0943
 5267SOL    HW127525   6.380   7.118   0.657  0.8539 -0.8392  0.1585
 5267SOL    HW227526   6.302   7.200   0.758  1.8448  1.5747 -0.9663
 5268SOL     OW27527   4.982  10.614   0.309 -0.4040  0.1900 -0.1288
 5268SOL    HW127528   5.019  10.701   0.291  0.3356 -0.1472 -0.2780
 5268SOL    HW227529   4.934  10.592   0.229  1.1401 -0.4081 -0.9549
 5269SOL     OW27530  11.906   0.125   4.501 -0.0066  0.0095  0.5388
 5269SOL    HW127531  11.910   0.178   4.580 -0.3436  0.0649  0.5177
 5269SOL    HW227532  11.840   0.168   4.446 -0.7250 -0.7716  0.7743
 5270SOL     OW27533   3.549   0.117   0.281  0.4392 -0.0019 -0.4079
 5270SOL    HW127534   3.580   0.073   0.201  2.1082 -0.3150  0.3768
 5270SOL    HW227535   3.474   0.064   0.309  0.3119 -0.3397 -1.3419
 5271SOL     OW27536  10.668  11.382   6.040 -0.4620 -0.3294 -0.4536
 5271SOL    HW127537  10.609  11.407   6.111 -0.5051 -1.0662 -0.2254
 5271SOL    HW227538  10.742  11.441   6.048 -1.0616  0.4570 -0.6013
 5272SOL     OW27539   1.941   6.381   0.591 -0.1480  1.3612  0.1033
 5272SOL    HW127540   1.957   6.358   0.683 -0.0534 -1.5851 -0.5588
 5272SOL    HW227541   1.846   6.387   0.584 -0.3297 -0.6889  0.0115
 5273SOL     OW27542   8.671   1.098   8.392 -0.0750 -0.0259  0.2048
 5273SOL    HW127543   8.683   1.193   8.397 -0.0999 -0.0075 -0.0673
 5273SOL    HW227544   8.705   1.065   8.476 -1.3300  0.3474  0.8899
 5274SOL     OW27545   6.186  10.285   8.589  0.1849  0.0520 -0.0596
 5274SOL    HW127546   6.104  10.261   8.544 -0.0049  0.7364 -0.0908
 5274SOL    HW227547   6.209  10.207   8.639 -2.1006  0.7995  2.3682
 5275SOL     OW27548   8.959   7.242   9.563 -0.1179  0.4440  0.1691
 5275SOL    HW127549   8.933   7.310   9.626 -0.1005  1.7217 -1.1547
 5275SOL    HW227550   8.878   7.219   9.518 -0.0730 -0.2549  0.4292
 5276SOL     OW27551   7.932   0.876   9.119  0.8466  0.1059  0.8342
 5276SOL    HW127552   7.879   0.807   9.079  0.6619  0.8810 -0.3314
 5276SOL    HW227553   8.020   0.839   9.122  0.6550 -0.3729  0.7176
 5277SOL     OW27554  10.626   4.016   9.021  0.3494 -0.2363 -0.1718
 5277SOL    HW127555  10.568   3.960   8.969 -1.8983  1.8255 -0.0614
 5277SOL    HW227556  10.577   4.032   9.102  1.1360  1.4356  0.0117
 5278SOL     OW27557   6.004   5.233   8.087  0.3964  0.2865 -0.1976
 5278SOL    HW127558   5.924   5.285   8.094 -0.5595 -1.0639 -0.6921
 5278SOL    HW227559   6.062   5.286   8.031 -0.5555  0.8034 -0.7145
 5279SOL     OW27560  10.775   9.344   1.348 -0.0657  0.5455  0.3647
 5279SOL    HW127561  10.825   9.414   1.306  0.3594  0.2033  0.2966
 5279SOL    HW227562  10.693   9.339   1.298  0.6775 -0.2607 -0.8077
 5280SOL     OW27563  10.117   6.577   8.987  0.2708 -0.3676  0.0592
 5280SOL    HW127564  10.069   6.659   8.999  0.6132 -0.0600 -0.6163
 5280SOL    HW227565  10.122   6.539   9.075 -0.5771 -0.0569  0.2496
 5281SOL     OW27566   2.271   4.635   2.782 -0.0725 -0.7478 -0.0220
 5281SOL    HW127567   2.211   4.709   2.777  0.6774  0.0650  1.8827
 5281SOL    HW227568   2.270   4.596   2.695 -2.5560 -0.1498 -0.3254
 5282SOL     OW27569   1.612   4.690   3.275 -0.2689  0.1580  0.1068
 5282SOL    HW127570   1.628   4.758   3.210  1.3637 -0.7189 -0.4722
 5282SOL    HW227571   1.623   4.735   3.359  0.7174  0.6418 -0.2647
 5283SOL     OW27572   7.699   1.554   6.092  0.5058 -0.3788 -0.0444
 5283SOL    HW127573   7.624   1.502   6.119  0.0532  0.5905  0.6354
 5283SOL    HW227574   7.674   1.645   6.111  1.9507 -0.0608  0.4987
 5284SOL     OW27575   8.459   7.943   8.003 -0.0575  0.1464 -0.6537
 5284SOL    HW127576   8.463   7.856   8.042 -2.2559 -0.0423 -0.7205
 5284SOL    HW227577   8.420   7.929   7.917  1.1641  1.0270 -1.3870
 5285SOL     OW27578   3.062   6.303   2.244 -1.0326  0.5120 -0.4385
 5285SOL    HW127579   3.140   6.284   2.191 -2.2328 -0.2512 -2.0024
 5285SOL    HW227580   2.989   6.268   2.193 -2.1716 -1.5354  2.3583
 5286SOL     OW27581   7.638   2.645   9.398  0.0229  0.2573  0.0975
 5286SOL    HW127582   7.637   2.654   9.303  0.6037 -2.4316 -0.2449
 5286SOL    HW227583   7.731   2.647   9.421 -0.0582 -0.2377  0.4771
 5287SOL     OW27584  11.162  10.669   9.484  0.0211  0.2122 -0.0433
 5287SOL    HW127585  11.080  10.622   9.489  0.3451 -0.4189 -0.4676
 5287SOL    HW227586  11.195  10.651   9.395  1.4579 -1.0026  0.6879
 5288SOL     OW27587   4.346   2.876   3.265  0.1763 -0.4671 -0.4752
 5288SOL    HW127588   4.408   2.948   3.256 -1.2939  0.9441  0.2082
 5288SOL    HW227589   4.269   2.915   3.305 -0.7413 -2.4068 -0.2229
 5289SOL     OW27590   1.176   9.507   5.770 -0.4398 -0.0536 -0.0401
 5289SOL    HW127591   1.128   9.531   5.850 -0.6401 -0.0626 -0.1578
 5289SOL    HW227592   1.247   9.452   5.801  0.9005  1.8233  0.4213
 5290SOL     OW27593   5.536   4.221   8.081  0.2408 -0.1776  0.3554
 5290SOL    HW127594   5.530   4.312   8.107 -1.0298 -0.0334 -0.3668
 5290SOL    HW227595   5.591   4.180   8.148  0.5004  1.0216  0.8970
 5291SOL     OW27596   8.124  11.905   8.824  0.0578 -0.1558  0.3099
 5291SOL    HW127597   8.130  11.971   8.894  2.6912 -0.2546  0.3026
 5291SOL    HW227598   8.170  11.829   8.859  3.5340  0.5412 -2.1868
 5292SOL     OW27599   9.588  11.312   8.464 -0.3032 -0.0060  0.7804
 5292SOL    HW127600   9.539  11.391   8.442 -1.0410 -0.3286  1.2382
 5292SOL    HW227601   9.677  11.343   8.482  0.2224  0.3809 -1.9370
 5293SOL     OW27602   2.472   4.046  10.944 -0.4199  0.8361 -0.3686
 5293SOL    HW127603   2.498   3.954  10.943  1.3308  1.2956 -1.4417
 5293SOL    HW227604   2.419   4.055  11.024 -0.0662 -0.9448  0.1099
 5294SOL     OW27605  10.233   2.086   8.510  0.3470 -0.0434 -0.3600
 5294SOL    HW127606  10.198   2.041   8.433  0.4584  0.5064 -0.7345
 5294SOL    HW227607  10.304   2.141   8.476 -0.0882  0.7637  0.0255
 5295SOL     OW27608   6.396   8.694   3.986 -0.1600  0.2411  0.0340
 5295SOL    HW127609   6.474   8.679   4.040  0.8098  1.6256 -0.8879
 5295SOL    HW227610   6.322   8.684   4.045  0.7210 -0.8635  0.9968
 5296SOL     OW27611   2.347   4.725   5.862  0.1713  0.1182  0.7251
 5296SOL    HW127612   2.404   4.675   5.921 -0.7074 -2.6364 -0.5634
 5296SOL    HW227613   2.377   4.702   5.774 -0.9250  1.0877  0.0643
 5297SOL     OW27614   0.295   5.878   4.040  0.1409 -0.3760 -0.7568
 5297SOL    HW127615   0.357   5.821   3.994  0.2337  1.0377 -2.4701
 5297SOL    HW227616   0.213   5.829   4.038  0.5459 -1.0658 -0.9447
 5298SOL     OW27617  10.143   1.835   0.373  0.2552 -0.0074  0.2832
 5298SOL    HW127618  10.181   1.910   0.327 -0.0724  1.3430  2.1345
 5298SOL    HW227619  10.219   1.787   0.406  0.4568 -0.3113 -0.5976
 5299SOL     OW27620   5.594   2.375   7.051 -0.0799  0.5861 -0.2526
 5299SOL    HW127621   5.518   2.381   7.108  0.2790  0.8146  0.2083
 5299SOL    HW227622   5.647   2.305   7.088 -0.5210 -0.2343 -1.1348
 5300SOL     OW27623   6.253   8.106   4.454  0.2493 -0.0117  0.2133
 5300SOL    HW127624   6.241   8.115   4.549  0.4978 -1.2661  0.3845
 5300SOL    HW227625   6.333   8.055   4.445  0.1946  0.0471 -0.6718
 5301SOL     OW27626  10.106   5.422   5.307  0.0066  0.1217  0.1408
 5301SOL    HW127627  10.021   5.450   5.340  1.1586  1.0689  2.5064
 5301SOL    HW227628  10.156   5.503   5.297  2.0750 -0.5678  3.2666
 5302SOL     OW27629   6.064   7.329   2.992  0.4601  0.3271  0.0679
 5302SOL    HW127630   6.050   7.364   3.080 -1.1228  2.3657 -0.9423
 5302SOL    HW227631   5.977   7.310   2.959  1.0236 -0.2505 -1.1486
 5303SOL     OW27632   6.355   8.680   4.480 -0.0780 -0.5703  0.0630
 5303SOL    HW127633   6.434   8.654   4.526  0.5056  0.5286 -0.2997
 5303SOL    HW227634   6.300   8.601   4.481  0.0527 -0.7005  2.2836
 5304SOL     OW27635   3.163   4.203  11.403  0.1704  0.2401 -0.1446
 5304SOL    HW127636   3.219   4.203  11.480  0.5498  0.7713 -0.4128
 5304SOL    HW227637   3.221   4.178  11.331 -0.2590 -0.6041 -0.2147
 5305SOL     OW27638   3.160   1.992   6.303 -0.0802 -0.2969 -0.6650
 5305SOL    HW127639   3.160   2.031   6.391  0.2187 -0.7522 -0.4540
 5305SOL    HW227640   3.157   2.067   6.243  2.0451  0.1477 -0.2982
 5306SOL     OW27641   0.312   6.225   3.790 -0.1910  0.3910 -0.2503
 5306SOL    HW127642   0.327   6.297   3.851 -0.1905  2.5112 -2.5954
 5306SOL    HW227643   0.223   6.238   3.757 -0.3968 -1.0200 -0.3249
 5307SOL     OW27644  11.077   7.176   8.495 -0.5151  0.1702  0.2245
 5307SOL    HW127645  11.171   7.171   8.512 -0.5472 -1.1515  0.1529
 5307SOL    HW227646  11.069   7.161   8.401 -0.6779  2.3348 -0.1362
 5308SOL     OW27647  10.756   2.326   7.877 -0.0663  0.2696 -0.2500
 5308SOL    HW127648  10.836   2.324   7.825  1.1888 -1.5633  1.5962
 5308SOL    HW227649  10.691   2.282   7.822  1.0372 -1.0305 -0.5660
 5309SOL     OW27650   7.493   2.317   0.016 -0.3605  0.1795 -0.2987
 5309SOL    HW127651   7.559   2.385   0.000  0.9359 -1.5277 -2.9712
 5309SOL    HW227652   7.542   2.245   0.054 -0.8985 -0.6937 -1.2229
 5310SOL     OW27653   6.223   9.251   7.095 -0.3769 -0.5604 -0.0068
 5310SOL    HW127654   6.294   9.189   7.080  0.6661 -0.3629  3.3743
 5310SOL    HW227655   6.179   9.258   7.010  1.8733 -2.8559 -1.4978
 5311SOL     OW27656   1.893   1.131   4.877 -0.3714  0.3494 -0.0682
 5311SOL    HW127657   1.824   1.067   4.897 -1.5978  1.8457  0.7378
 5311SOL    HW227658   1.954   1.124   4.950  0.1716 -0.7385 -0.6060
 5312SOL     OW27659  11.828   7.863   2.392  0.7220 -0.6786  0.9338
 5312SOL    HW127660  11.738   7.856   2.363  1.2152 -1.3986 -0.5017
 5312SOL    HW227661  11.823   7.911   2.475 -0.7777  1.0744 -0.0998
 5313SOL     OW27662  11.603   0.817   3.350  0.2596 -0.9351  0.4551
 5313SOL    HW127663  11.640   0.804   3.438  1.7523  0.6077  0.1081
 5313SOL    HW227664  11.660   0.764   3.293 -0.5139 -1.6816  0.3525
 5314SOL     OW27665   8.455  11.876  11.442  0.4633  0.6574 -0.5302
 5314SOL    HW127666   8.398  11.950  11.422  0.0808 -0.0772 -2.3306
 5314SOL    HW227667   8.541  11.915  11.456  0.3021  1.4404 -1.6150
 5315SOL     OW27668   1.615   6.687   6.843 -0.4822 -0.2349 -0.5367
 5315SOL    HW127669   1.536   6.731   6.812  1.1363  2.9952 -0.4069
 5315SOL    HW227670   1.610   6.692   6.938  0.1166  0.4661 -0.5378
 5316SOL     OW27671   3.273   8.896   6.613 -0.0636  0.3536 -0.6230
 5316SOL    HW127672   3.180   8.895   6.590 -0.4810 -0.4287  0.9757
 5316SOL    HW227673   3.279   8.948   6.692  0.2972 -2.2977  1.2480
 5317SOL     OW27674   4.106   0.401   5.505  0.2664 -0.0456  0.1732
 5317SOL    HW127675   4.018   0.372   5.528 -0.6831  0.2824 -2.5776
 5317SOL    HW227676   4.109   0.494   5.529 -1.0751  0.5769 -1.7926
 5318SOL     OW27677   7.104   3.930   0.232 -0.1787  0.1069 -0.0331
 5318SOL    HW127678   7.095   3.919   0.327  2.2789  0.3784  0.3152
 5318SOL    HW227679   7.120   4.024   0.221  1.7019 -0.2177 -0.4256
 5319SOL     OW27680  11.592   0.825   3.973 -0.1808 -0.4939 -0.1257
 5319SOL    HW127681  11.638   0.744   3.995 -1.4182 -1.3459 -0.5681
 5319SOL    HW227682  11.583   0.823   3.878 -1.4948 -0.5763 -0.0152
 5320SOL     OW27683   5.300   8.263   7.714 -0.0704 -0.1960 -0.4832
 5320SOL    HW127684   5.224   8.263   7.772  0.2420  0.1285 -0.0718
 5320SOL    HW227685   5.359   8.329   7.750  0.9224 -1.2287 -0.1255
 5321SOL     OW27686   1.604   5.362  11.080 -0.3323 -0.0673 -0.2306
 5321SOL    HW127687   1.524   5.407  11.109 -0.4333 -0.6738  0.4625
 5321SOL    HW227688   1.578   5.314  11.002 -0.5867 -0.0536 -0.1573
 5322SOL     OW27689   8.261   8.753   9.652  0.5726 -0.3010 -0.1333
 5322SOL    HW127690   8.231   8.667   9.682  0.3629  0.0913  0.8102
 5322SOL    HW227691   8.337   8.734   9.598 -0.0613 -1.1510 -0.7466
 5323SOL     OW27692   6.639   9.623   7.398 -0.3352 -0.2052 -0.1090
 5323SOL    HW127693   6.589   9.664   7.328 -1.6127 -0.2536  0.7470
 5323SOL    HW227694   6.637   9.686   7.470  1.1241 -0.0734 -0.1488
 5324SOL     OW27695   6.306   8.127   6.131  0.5248  0.2384  0.1147
 5324SOL    HW127696   6.341   8.116   6.042  0.6777 -0.1955  0.2267
 5324SOL    HW227697   6.216   8.157   6.117  0.4922  0.0067 -0.1960
 5325SOL     OW27698   2.506  11.378   7.603  0.6351  0.1169 -0.2663
 5325SOL    HW127699   2.476  11.304   7.657 -3.5935  1.4138 -0.4246
 5325SOL    HW227700   2.521  11.449   7.665 -3.5496  1.3998 -0.4160
 5326SOL     OW27701   8.109   1.308   5.023  0.0307 -0.4697 -0.3227
 5326SOL    HW127702   8.137   1.226   4.982  0.3746 -0.3309 -0.3675
 5326SOL    HW227703   8.160   1.376   4.979 -0.6550 -0.1704 -0.6696
 5327SOL     OW27704   1.187   3.004   6.136  0.1512 -0.0338  0.1190
 5327SOL    HW127705   1.136   3.002   6.216  0.4385  0.0567  0.3067
 5327SOL    HW227706   1.209   3.097   6.123 -1.1258  0.1545 -0.8564
 5328SOL     OW27707   7.709   2.993   4.366 -0.5243  0.0856 -0.2782
 5328SOL    HW127708   7.627   3.036   4.391 -1.3013 -0.9344 -0.9878
 5328SOL    HW227709   7.733   2.939   4.441  0.0074  1.0760  0.2874
 5329SOL     OW27710   5.399   1.126   5.558 -0.0223  0.1848  0.0755
 5329SOL    HW127711   5.314   1.082   5.556  0.6303 -1.1102 -0.4760
 5329SOL    HW227712   5.459   1.060   5.593  0.5681  1.4710  1.6684
 5330SOL     OW27713   2.110   9.004   2.795  0.1495 -0.1794  0.1654
 5330SOL    HW127714   2.119   8.991   2.701 -0.1281  2.0549 -0.2273
 5330SOL    HW227715   2.015   8.999   2.810  0.0461  1.0594  0.0224
 5331SOL     OW27716   4.049   2.266   8.775 -0.3314 -0.1355  0.7155
 5331SOL    HW127717   4.074   2.351   8.811  3.0761  0.0187 -1.5425
 5331SOL    HW227718   4.072   2.204   8.843 -1.4081  0.6026  1.7917
 5332SOL     OW27719  11.531  10.456  10.039  0.1602 -0.3395 -0.0799
 5332SOL    HW127720  11.611  10.409  10.016  0.6516  0.0951  0.6859
 5332SOL    HW227721  11.548  10.547  10.013 -0.1024 -0.2490  0.0610
 5333SOL     OW27722   8.212   4.609   9.590 -0.1352 -0.0529 -0.6673
 5333SOL    HW127723   8.210   4.640   9.499  2.0708  0.8716 -0.4652
 5333SOL    HW227724   8.210   4.689   9.642 -1.1554 -0.5724  0.1176
 5334SOL     OW27725   5.914   5.583   2.077 -0.2461 -0.0606 -0.5688
 5334SOL    HW127726   5.986   5.524   2.056  0.7079  0.6683  0.5500
 5334SOL    HW227727   5.861   5.534   2.140 -0.8329 -0.6520 -1.4972
 5335SOL     OW27728   8.632   6.316   8.327  0.0797  0.1550  0.1728
 5335SOL    HW127729   8.709   6.265   8.351 -0.5944 -0.9727  0.0083
 5335SOL    HW227730   8.637   6.395   8.381  0.6313 -0.5335  1.1543
 5336SOL     OW27731   1.168  10.276   7.133 -0.4648  0.1433 -0.3683
 5336SOL    HW127732   1.090  10.329   7.117  0.1562  0.9190 -0.8739
 5336SOL    HW227733   1.192  10.241   7.048  0.7736  1.3772 -0.5524
 5337SOL     OW27734   2.875   3.353  11.373  0.7232  0.3518  0.4175
 5337SOL    HW127735   2.840   3.421  11.315 -0.7025 -0.0190  0.7827
 5337SOL    HW227736   2.868   3.390  11.461  1.4768  0.3465  0.4831
 5338SOL     OW27737   1.723   0.132   1.031 -0.2385  0.0882 -0.0588
 5338SOL    HW127738   1.691   0.172   1.112  0.5483  3.2416 -1.1760
 5338SOL    HW227739   1.645   0.096   0.990 -1.1508  1.1769  0.6622
 5339SOL     OW27740   4.946   3.893   7.904  0.3925 -0.5511  0.4100
 5339SOL    HW127741   4.955   3.875   7.810  0.5290  1.3707  0.0220
 5339SOL    HW227742   4.952   3.807   7.945  1.3336 -1.3410 -1.2653
 5340SOL     OW27743   8.746   1.580   3.233 -0.4640  0.1430 -0.9040
 5340SOL    HW127744   8.697   1.533   3.301  0.5183  0.1667 -0.1591
 5340SOL    HW227745   8.723   1.535   3.152  0.8883 -2.0662 -0.1555
 5341SOL     OW27746   8.997   9.886  11.520  0.1286  0.2006  0.1862
 5341SOL    HW127747   8.913   9.845  11.499  0.1804  0.0779  0.2183
 5341SOL    HW227748   8.982   9.929  11.604 -0.0232  0.5311 -0.0085
 5342SOL     OW27749   4.453  10.955   7.294 -0.4860  0.4906  0.4107
 5342SOL    HW127750   4.452  10.970   7.199 -1.0489 -1.7150 -0.0151
 5342SOL    HW227751   4.498  10.871   7.304 -4.2729 -1.6844  1.5591
 5343SOL     OW27752  11.659  11.246   9.513 -0.3377 -0.0268  0.0140
 5343SOL    HW127753  11.637  11.172   9.456  0.9554  0.0408 -0.6146
 5343SOL    HW227754  11.754  11.252   9.509 -0.3120  0.7564  1.2367
 5344SOL     OW27755   8.614   0.643   9.469  0.6712  0.3092 -0.0993
 5344SOL    HW127756   8.644   0.676   9.384  0.8927  0.6374  0.1025
 5344SOL    HW227757   8.677   0.575   9.492  1.3321  1.0603  0.3661
 5345SOL     OW27758   8.266   7.814  11.734 -0.2594 -0.1084 -0.2382
 5345SOL    HW127759   8.225   7.836  11.651 -1.0984  3.0709  0.8614
 5345SOL    HW227760   8.346   7.866  11.736 -0.0182 -0.4854  0.7732
 5346SOL     OW27761   3.792   8.460   3.067 -0.0092 -0.3394  0.0859
 5346SOL    HW127762   3.829   8.530   3.013 -0.9659  0.9351  1.0137
 5346SOL    HW227763   3.856   8.446   3.137 -1.4757  2.4508  2.1791
 5347SOL     OW27764   2.913   6.958   7.062 -0.1701 -0.1842  0.0328
 5347SOL    HW127765   2.998   6.999   7.049  0.0116  0.0988  1.8430
 5347SOL    HW227766   2.886   6.930   6.975  0.8150  1.5929 -0.8894
 5348SOL     OW27767   6.838  11.409   1.771  0.1327  0.1895  0.1780
 5348SOL    HW127768   6.926  11.447   1.778 -0.1668  0.8912  0.1791
 5348SOL    HW227769   6.850  11.332   1.715  0.7750  0.1982  0.2938
 5349SOL     OW27770  11.489   3.946   8.197 -0.3018 -0.4678  0.1885
 5349SOL    HW127771  11.517   3.988   8.115  0.3475 -1.3107 -0.0337
 5349SOL    HW227772  11.530   3.999   8.266 -1.7415  0.9110  0.0421
 5350SOL     OW27773   7.704   4.141   4.740 -0.0832 -0.1104 -1.2309
 5350SOL    HW127774   7.756   4.176   4.668  0.1258 -4.0207 -3.2564
 5350SOL    HW227775   7.613   4.151   4.712 -0.0383 -0.8040 -1.6402
 5351SOL     OW27776   4.882   4.408   9.207  0.2204  0.3134  0.4556
 5351SOL    HW127777   4.897   4.315   9.187  1.0521  0.7929 -1.4467
 5351SOL    HW227778   4.907   4.418   9.298  1.4804 -1.0611  0.2897
 5352SOL     OW27779   5.254   1.143   2.381 -0.1757  0.3410 -0.2844
 5352SOL    HW127780   5.281   1.051   2.380 -2.4240 -0.3674 -1.7784
 5352SOL    HW227781   5.159   1.140   2.392 -0.0652  2.6211  2.4532
 5353SOL     OW27782   2.701   9.327   9.779  0.2093 -0.1760  0.3083
 5353SOL    HW127783   2.760   9.289   9.714 -0.1450  0.0456 -0.1498
 5353SOL    HW227784   2.695   9.419   9.755  0.4394  0.0056  0.9358
 5354SOL     OW27785   9.642   0.904  10.583  0.2859  0.1932  0.3594
 5354SOL    HW127786   9.561   0.858  10.605 -0.3667  1.3757  0.5084
 5354SOL    HW227787   9.660   0.959  10.659  0.5142  0.9008 -0.1955
 5355SOL     OW27788   3.824  11.121   4.561 -0.0845 -0.1426  0.0126
 5355SOL    HW127789   3.844  11.102   4.653 -0.6637 -1.7951 -0.1755
 5355SOL    HW227790   3.887  11.070   4.511  0.6880  1.2869 -0.5515
 5356SOL     OW27791  11.433   1.641   0.247 -0.0209  0.1655  0.0403
 5356SOL    HW127792  11.343   1.656   0.274 -0.8831 -1.0259 -1.9612
 5356SOL    HW227793  11.444   1.692   0.167  0.9346 -0.0308  0.0284
 5357SOL     OW27794   6.408   6.696   8.785 -0.2846  0.2295 -0.2041
 5357SOL    HW127795   6.467   6.739   8.847  0.0777  1.1889 -1.1829
 5357SOL    HW227796   6.434   6.604   8.787  1.6397  0.7187 -1.0091
 5358SOL     OW27797   6.295   0.772   1.861 -0.0859 -0.6040 -0.2307
 5358SOL    HW127798   6.325   0.704   1.922  0.4522 -0.0587  0.1244
 5358SOL    HW227799   6.319   0.854   1.904 -2.0328 -0.1261  0.0448
 5359SOL     OW27800   6.504   4.818   5.794  0.2623 -0.4201  0.6886
 5359SOL    HW127801   6.459   4.735   5.779 -0.0944 -0.1007 -0.0867
 5359SOL    HW227802   6.435   4.884   5.789  0.7087  0.0170  0.0930
 5360SOL     OW27803   2.001   7.274   7.210  0.4257 -0.3493 -0.0193
 5360SOL    HW127804   2.069   7.251   7.147 -0.1723 -1.0296 -0.4201
 5360SOL    HW227805   1.981   7.193   7.255 -0.9957 -0.4353 -0.7636
 5361SOL     OW27806   9.722   2.940   5.465 -0.4229 -0.1187 -0.3298
 5361SOL    HW127807   9.631   2.935   5.494 -0.5972  2.8543 -0.0144
 5361SOL    HW227808   9.772   2.956   5.545  0.2069 -0.5110 -0.6450
 5362SOL     OW27809   9.851   0.589   4.456  1.0219 -0.3070  0.0820
 5362SOL    HW127810   9.851   0.540   4.539 -0.3037 -1.9760 -0.8554
 5362SOL    HW227811   9.943   0.613   4.443  1.4280 -0.9726  1.4620
 5363SOL     OW27812   7.872  10.106   7.135  0.1902 -0.5718  0.4891
 5363SOL    HW127813   7.919  10.150   7.064 -0.6857  1.7198  1.2415
 5363SOL    HW227814   7.913  10.138   7.215 -2.2994  1.2870  1.1582
 5364SOL     OW27815   6.419   0.524   5.608  0.2652  0.3296 -0.2545
 5364SOL    HW127816   6.387   0.440   5.640  1.6489 -0.4923 -0.9513
 5364SOL    HW227817   6.344   0.583   5.617 -0.7102 -0.9494  0.3017
 5365SOL     OW27818   9.365   5.008   2.056  0.2422  0.3244  0.0903
 5365SOL    HW127819   9.352   5.103   2.056  2.2803  0.6533  1.1389
 5365SOL    HW227820   9.317   4.977   2.133 -0.0114  0.5527  0.0250
 5366SOL     OW27821   4.991   9.569   8.479 -0.0169 -0.2904 -0.2660
 5366SOL    HW127822   4.953   9.646   8.435  1.2254  0.3900 -0.1930
 5366SOL    HW227823   4.985   9.590   8.572 -0.7337 -0.8097 -0.1872
 5367SOL     OW27824   4.553   8.557   2.630 -0.6766  0.5374 -0.5258
 5367SOL    HW127825   4.486   8.494   2.603 -0.5471  0.9322 -1.8119
 5367SOL    HW227826   4.505   8.639   2.640 -1.2351 -0.0527  3.0341
 5368SOL     OW27827   6.208   7.815   9.520 -0.0899  0.3796 -0.2176
 5368SOL    HW127828   6.260   7.883   9.562  0.4590  0.2983 -0.7512
 5368SOL    HW227829   6.244   7.733   9.554  1.0665  0.2715 -1.6022
 5369SOL     OW27830   3.689   9.090   2.678 -0.3892  0.0366 -0.7249
 5369SOL    HW127831   3.661   9.064   2.765  0.9697 -0.2656 -0.3482
 5369SOL    HW227832   3.778   9.055   2.670 -0.4617  0.1323 -2.1972
 5370SOL     OW27833   5.166  10.584   4.699 -0.4155  0.0153  0.3615
 5370SOL    HW127834   5.220  10.572   4.620 -1.2134  1.5240 -0.4500
 5370SOL    HW227835   5.076  10.584   4.667 -0.8225 -0.5520  1.4581
 5371SOL     OW27836  10.916   0.782   9.459  0.1877 -0.2278 -0.5634
 5371SOL    HW127837  10.905   0.787   9.554 -2.3374  0.7067 -0.8317
 5371SOL    HW227838  10.839   0.734   9.428  0.4498  0.3553 -2.2229
 5372SOL     OW27839   3.951   9.222   4.978  0.0694  0.3131 -0.0240
 5372SOL    HW127840   4.034   9.244   4.936 -0.4731  2.6130 -0.0037
 5372SOL    HW227841   3.886   9.231   4.908 -0.5938  2.2637  0.7760
 5373SOL     OW27842   9.237   8.385   8.267  0.4228 -0.2332  0.3841
 5373SOL    HW127843   9.266   8.305   8.222 -0.1579 -0.5007  0.4792
 5373SOL    HW227844   9.151   8.363   8.302 -0.3099  0.8302 -0.6581
 5374SOL     OW27845   9.583   7.659   4.392  0.5496  0.0040 -0.3094
 5374SOL    HW127846   9.537   7.600   4.333  0.2732 -0.2829  0.1865
 5374SOL    HW227847   9.657   7.691   4.341  0.0059  0.1952 -1.0006
 5375SOL     OW27848   1.802   9.394  11.851 -0.1134 -0.3237 -0.1900
 5375SOL    HW127849   1.865   9.451  11.895  1.1523 -1.2457 -0.7396
 5375SOL    HW227850   1.762   9.450  11.783 -1.4544  0.8542  1.4784
 5376SOL     OW27851   7.876  11.393   1.145  0.1567 -0.1404 -0.1431
 5376SOL    HW127852   7.908  11.448   1.074  0.3956  0.0065  0.0780
 5376SOL    HW227853   7.949  11.335   1.165 -0.3775 -1.1286 -0.9578
 5377SOL     OW27854   6.503   8.992   0.482  0.6731 -0.3877 -0.1819
 5377SOL    HW127855   6.475   9.080   0.458  0.2468  0.1053  1.8981
 5377SOL    HW227856   6.597   8.999   0.497  0.6542 -0.3050 -0.1012
 5378SOL     OW27857   6.530   2.204   0.772  0.2197  0.7250  0.3317
 5378SOL    HW127858   6.527   2.175   0.863  1.2457  0.2741  0.2352
 5378SOL    HW227859   6.623   2.207   0.751  0.0115  1.3386 -0.5445
 5379SOL     OW27860   5.990   1.214   7.690  0.1962 -0.4069 -0.3093
 5379SOL    HW127861   6.056   1.200   7.623  1.0469  1.1947  0.1495
 5379SOL    HW227862   5.940   1.290   7.659  0.1579 -0.0821  0.5224
 5380SOL     OW27863   1.026   7.940   9.653 -0.5444 -0.0252 -0.3339
 5380SOL    HW127864   1.020   7.847   9.676  0.4548 -0.0610 -0.2024
 5380SOL    HW227865   0.987   7.986   9.728 -0.1839 -0.2968  0.0204
 5381SOL     OW27866   7.274  11.942   8.061 -0.6965  0.1944 -0.7971
 5381SOL    HW127867   7.243  12.032   8.075 -0.3927  0.8592 -3.7140
 5381SOL    HW227868   7.367  11.946   8.080 -1.1691 -0.2925  1.9440
 5382SOL     OW27869   2.838   2.753   3.934 -0.4797 -0.4647 -0.2884
 5382SOL    HW127870   2.847   2.836   3.981  2.2827 -1.7970  1.9297
 5382SOL    HW227871   2.744   2.735   3.933 -0.9771  1.7234  0.9642
 5383SOL     OW27872   4.027  11.318   5.102 -0.4411  0.1059  0.0898
 5383SOL    HW127873   4.098  11.272   5.057 -1.1342 -1.6364  0.6962
 5383SOL    HW227874   3.973  11.353   5.031  0.5409  0.7321 -0.3808
 5384SOL     OW27875  10.640   1.413   4.703  0.2932 -0.2521 -0.2491
 5384SOL    HW127876  10.687   1.336   4.734 -0.9474 -0.6737  0.6550
 5384SOL    HW227877  10.548   1.391   4.712 -0.1120  1.5471  0.5880
 5385SOL     OW27878   4.046   6.484   3.661 -0.0842  0.0109  0.4787
 5385SOL    HW127879   4.083   6.565   3.625  0.7721 -0.3015  0.6105
 5385SOL    HW227880   3.952   6.495   3.655  0.0184  0.3045 -1.1434
 5386SOL     OW27881   5.296   4.053   3.079  0.1123 -0.4927 -0.0453
 5386SOL    HW127882   5.357   4.116   3.119 -1.3575  2.3279 -1.9170
 5386SOL    HW227883   5.211   4.097   3.081 -0.6525 -1.5401 -3.1860
 5387SOL     OW27884   8.404   6.964  11.525 -0.2607  1.1296  0.2235
 5387SOL    HW127885   8.380   7.017  11.448 -0.4664  0.9980  0.1946
 5387SOL    HW227886   8.342   6.891  11.523  1.3332 -0.2763 -0.9397
 5388SOL     OW27887   0.580   2.547   2.891  0.3285  0.1001  0.0796
 5388SOL    HW127888   0.536   2.481   2.944  0.6946  0.5810  1.0007
 5388SOL    HW227889   0.658   2.503   2.857  0.8752  0.1995  1.1515
 5389SOL     OW27890   1.504   6.070   9.465 -0.3717  0.4716  1.1522
 5389SOL    HW127891   1.509   6.165   9.477  0.6320  0.6516 -0.3593
 5389SOL    HW227892   1.580   6.036   9.511  0.2617  0.6053  0.2475
 5390SOL     OW27893  10.288   4.106   3.894  0.9380 -0.2384 -0.2532
 5390SOL    HW127894  10.196   4.119   3.914  0.8523 -0.3952 -0.5549
 5390SOL    HW227895  10.297   4.013   3.876  0.6724  0.1318 -2.6258
 5391SOL     OW27896  10.137   3.538   8.034 -0.4199 -0.1923 -0.0908
 5391SOL    HW127897  10.079   3.603   8.071 -0.3916  0.2016 -0.7223
 5391SOL    HW227898  10.101   3.519   7.948  0.2102 -0.1714 -0.3667
 5392SOL     OW27899   1.509  11.208   6.405 -0.3854 -0.2544  0.0605
 5392SOL    HW127900   1.599  11.235   6.385 -0.2344 -1.1280 -0.4725
 5392SOL    HW227901   1.456  11.283   6.378  0.1017 -0.1126 -0.5496
 5393SOL     OW27902   7.663   7.383   5.046  0.3154  0.1469  0.1950
 5393SOL    HW127903   7.583   7.332   5.062 -0.1092  0.7579  0.0467
 5393SOL    HW227904   7.722   7.321   5.003 -0.7533  0.1796 -1.4039
 5394SOL     OW27905   7.068   2.063   6.271  0.2996  0.3369 -0.1902
 5394SOL    HW127906   7.095   2.140   6.320  0.0710 -0.8833  1.9404
 5394SOL    HW227907   7.002   2.020   6.325 -0.6626 -0.6065 -1.9894
 5395SOL     OW27908   2.259   5.374   2.755  0.1749  0.2418 -0.7651
 5395SOL    HW127909   2.231   5.283   2.764  0.7121  0.1038 -0.4104
 5395SOL    HW227910   2.289   5.398   2.843  1.5756  0.2362 -1.2247
 5396SOL     OW27911   1.601   8.184   5.525 -0.1579 -0.3235  0.1146
 5396SOL    HW127912   1.628   8.160   5.614  0.1234 -2.0672 -0.4011
 5396SOL    HW227913   1.519   8.136   5.512 -0.3759  0.1968 -0.4537
 5397SOL     OW27914   1.740   9.398   7.847  0.2759  0.0857  0.0604
 5397SOL    HW127915   1.751   9.399   7.942  0.1448  1.0254  0.0734
 5397SOL    HW227916   1.828   9.381   7.813  0.2720 -0.5429  0.3474
 5398SOL     OW27917   7.263  11.568   3.017 -0.3267 -0.5175  0.1421
 5398SOL    HW127918   7.279  11.592   3.109 -0.5950  0.0350  0.0457
 5398SOL    HW227919   7.287  11.645   2.967 -4.0969  0.8065  0.0341
 5399SOL     OW27920   7.472  10.296  11.856  0.3574 -0.0552  0.0871
 5399SOL    HW127921   7.391  10.330  11.894  0.9740  2.0562 -0.3348
 5399SOL    HW227922   7.530  10.282  11.931  0.2917  0.4157  0.2273
 5400SOL     OW27923   4.504   2.847   8.205  0.3799 -0.8789  0.3477
 5400SOL    HW127924   4.432   2.792   8.174  0.1044 -0.2125 -0.2499
 5400SOL    HW227925   4.492   2.853   8.299 -0.4888 -0.6070  0.2324
 5401SOL     OW27926   6.997   9.575   4.965  0.4107 -0.2019 -0.0089
 5401SOL    HW127927   7.048   9.634   5.021 -0.1744 -1.3377  1.8048
 5401SOL    HW227928   7.060   9.509   4.936  0.3463 -0.6204  0.7938
 5402SOL     OW27929   6.978  11.583   0.508 -0.3043  0.8339  0.0474
 5402SOL    HW127930   6.907  11.530   0.474  0.5784 -0.1438 -0.3258
 5402SOL    HW227931   7.056  11.550   0.465  0.8669 -0.3314  2.7925
 5403SOL     OW27932  10.773   8.785   6.180  0.1141  0.2048  0.0609
 5403SOL    HW127933  10.687   8.821   6.157 -0.3193 -1.0082 -0.3268
 5403SOL    HW227934  10.827   8.799   6.103 -0.2399 -0.5090 -0.3308
 5404SOL     OW27935   8.382   1.528   4.100 -0.6102  0.1179 -0.6235
 5404SOL    HW127936   8.419   1.480   4.173 -1.3271 -1.2567 -1.1275
 5404SOL    HW227937   8.438   1.505   4.025 -0.8866  0.1525 -0.8429
 5405SOL     OW27938   8.977   5.228   1.010  0.3346  0.1943  0.0414
 5405SOL    HW127939   8.986   5.320   0.984  1.0135  0.7632  2.1243
 5405SOL    HW227940   8.896   5.225   1.060  1.0454 -0.0034  1.2198
 5406SOL     OW27941   8.649   8.867   5.342 -0.3192 -0.3996  0.0355
 5406SOL    HW127942   8.712   8.799   5.369 -0.7677 -0.7458  0.2269
 5406SOL    HW227943   8.583   8.820   5.292 -0.3226 -0.0026 -0.3344
 5407SOL     OW27944  10.137   3.804   8.724  0.1197  0.2553  0.6565
 5407SOL    HW127945  10.192   3.880   8.704 -0.5494  0.3048 -1.2789
 5407SOL    HW227946  10.196   3.729   8.721  0.2602  0.3868 -0.6979
 5408SOL     OW27947   6.344  10.573  10.742 -0.2643 -0.7347  0.2261
 5408SOL    HW127948   6.353  10.663  10.712  0.5373 -1.1921 -0.9464
 5408SOL    HW227949   6.273  10.536  10.689  1.3444 -1.6260 -1.3864
 5409SOL     OW27950   3.552  10.486   9.453  0.2734 -0.1080  0.1800
 5409SOL    HW127951   3.518  10.473   9.541 -1.3167  0.6396 -0.2933
 5409SOL    HW227952   3.550  10.399   9.413 -1.6295 -0.0106  0.0031
 5410SOL     OW27953   3.709   0.238  10.314 -0.0411 -0.3885 -0.5851
 5410SOL    HW127954   3.741   0.149  10.329  0.6477  0.0061  0.3596
 5410SOL    HW227955   3.677   0.237  10.223  0.9983 -1.2883 -0.9625
 5411SOL     OW27956   9.043   5.260   8.755  0.4661  0.0105  0.0892
 5411SOL    HW127957   9.037   5.284   8.662  0.0635  1.2038  0.4099
 5411SOL    HW227958   9.080   5.172   8.754  0.5463  0.0356 -1.2028
 5412SOL     OW27959  11.697  11.024   6.258 -0.1834  0.3913 -0.4064
 5412SOL    HW127960  11.742  11.055   6.337 -0.2131  0.9737 -0.6202
 5412SOL    HW227961  11.604  11.033   6.279 -0.2525 -1.4217  0.2887
 5413SOL     OW27962  11.784   8.951   7.958 -0.4810  0.0965  0.1797
 5413SOL    HW127963  11.824   8.936   7.872 -1.1894 -0.7415 -0.0210
 5413SOL    HW227964  11.817   9.036   7.986  1.0410 -0.3349 -0.2045
 5414SOL     OW27965   6.718   3.185   0.340 -0.3916 -0.7599  0.4182
 5414SOL    HW127966   6.680   3.175   0.253  0.2232 -0.1804  0.0807
 5414SOL    HW227967   6.800   3.137   0.336 -0.8577 -1.6464  1.0185
 5415SOL     OW27968  11.324   7.635  11.919  0.1387 -0.4216 -0.0565
 5415SOL    HW127969  11.318   7.635  11.824 -1.9461 -1.3060  0.0300
 5415SOL    HW227970  11.333   7.543  11.943  1.1395 -0.1707  0.6059
 5416SOL     OW27971   2.473   2.592   2.128 -0.6373  0.2294 -0.1288
 5416SOL    HW127972   2.519   2.510   2.147 -0.7525  0.0395 -0.6239
 5416SOL    HW227973   2.541   2.650   2.093 -0.5897  0.2827  0.0527
 5417SOL     OW27974  10.367   7.364  11.191  0.3326 -0.0282 -0.2371
 5417SOL    HW127975  10.281   7.344  11.154  1.3760 -0.7996 -2.4151
 5417SOL    HW227976  10.387   7.289  11.248  0.5738 -1.0803 -1.6628
 5418SOL     OW27977   9.347  11.219   8.778 -0.1170  0.6905  0.7336
 5418SOL    HW127978   9.402  11.286   8.819 -0.7520  0.3258  2.2412
 5418SOL    HW227979   9.306  11.173   8.851  1.3210 -2.2694 -0.1838
 5419SOL     OW27980   5.688   0.612  10.803 -0.4908  0.3323  0.5996
 5419SOL    HW127981   5.640   0.691  10.826 -0.1052  0.8189 -0.1855
 5419SOL    HW227982   5.629   0.563  10.746  0.6442  2.0176 -2.2759
 5420SOL     OW27983   1.936   8.871   8.861  0.0817 -0.6870 -0.2923
 5420SOL    HW127984   2.020   8.901   8.896 -0.5627  1.1913 -0.2186
 5420SOL    HW227985   1.958   8.797   8.804  1.6394 -0.9461  0.5820
 5421SOL     OW27986   5.060   8.798   4.447  0.4228  0.0077  0.0922
 5421SOL    HW127987   5.143   8.834   4.414  0.8645  1.0288  2.1003
 5421SOL    HW227988   4.997   8.869   4.435  0.0656 -0.4051 -0.5124
 5422SOL     OW27989   0.822  11.856   3.155  0.7176 -0.3071  0.4277
 5422SOL    HW127990   0.799  11.764   3.142  0.5004 -0.3367  0.9659
 5422SOL    HW227991   0.829  11.892   3.067 -1.7143 -0.2361  0.1772
 5423SOL     OW27992  10.680   1.404   3.125 -0.6259 -0.2580 -0.2803
 5423SOL    HW127993  10.695   1.466   3.196 -1.9985 -1.0807  0.7903
 5423SOL    HW227994  10.766   1.391   3.086  0.1147  0.4441  1.0400
 5424SOL     OW27995  11.645   0.822   8.247  0.1011  0.1067  0.3737
 5424SOL    HW127996  11.558   0.832   8.210  0.6529  0.8591 -0.7777
 5424SOL    HW227997  11.683   0.748   8.199  0.3542  0.2608  0.3302
 5425SOL     OW27998   2.500   6.071   9.807  0.0822 -0.3697  0.7307
 5425SOL    HW127999   2.519   6.046   9.717  1.5372 -0.0640  0.9308
 5425SOL    HW228000   2.560   6.142   9.826 -0.2656 -0.3608  1.9206
 5426SOL     OW28001   8.394  10.755  11.489 -0.6471  0.0163 -0.5812
 5426SOL    HW128002   8.326  10.762  11.422 -0.3761 -0.4304 -0.9117
 5426SOL    HW228003   8.348  10.726  11.568 -0.9909  0.6867 -0.5273
 5427SOL     OW28004   2.582   7.678   1.294 -0.1946 -0.4667  0.5123
 5427SOL    HW128005   2.624   7.604   1.251 -1.6848 -0.5679 -0.8910
 5427SOL    HW228006   2.654   7.733   1.323  1.0111 -2.8826  2.4712
 5428SOL     OW28007   7.277   6.206  11.216 -0.3858 -0.3751 -0.3584
 5428SOL    HW128008   7.221   6.223  11.140 -1.2258 -0.7269  0.1620
 5428SOL    HW228009   7.267   6.284  11.271  1.1410  0.4000 -1.1251
 5429SOL     OW28010   1.793   4.198   3.999  0.4107 -0.0275 -0.9983
 5429SOL    HW128011   1.878   4.180   4.038  0.2903  0.8179 -0.3249
 5429SOL    HW228012   1.810   4.199   3.904  1.0429 -0.3541 -0.8943
 5430SOL     OW28013  10.322   1.348   4.462 -0.4114 -0.5733 -0.3120
 5430SOL    HW128014  10.365   1.342   4.548  0.8738 -0.0803 -0.8937
 5430SOL    HW228015  10.330   1.260   4.425 -1.3587 -0.9070  0.2246
 5431SOL     OW28016   2.700   0.745   6.322 -0.1172  0.4225 -0.9320
 5431SOL    HW128017   2.782   0.703   6.348 -0.4803 -0.4556 -1.1643
 5431SOL    HW228018   2.725   0.805   6.253  0.5085  1.0632 -0.1606
 5432SOL     OW28019  11.603   2.151   0.340  0.2860 -0.0096  0.4297
 5432SOL    HW128020  11.582   2.133   0.249 -1.5531 -0.5344  0.9124
 5432SOL    HW228021  11.634   2.068   0.375 -2.0146 -0.7183  1.0120
 5433SOL     OW28022   0.345   5.441   4.284 -0.2713  0.1231 -0.9106
 5433SOL    HW128023   0.290   5.520   4.293  1.3789  1.4093 -1.5874
 5433SOL    HW228024   0.282   5.370   4.272 -1.8241  1.3372 -0.4261
 5434SOL     OW28025  11.011   1.021   0.498  0.1749  1.1065 -0.2053
 5434SOL    HW128026  10.933   0.974   0.528  2.2937 -0.8681  2.9007
 5434SOL    HW228027  11.027   0.988   0.409 -1.0178 -0.5658  0.1557
 5435SOL     OW28028   7.910   6.845   2.290 -0.3664  0.1468 -0.3366
 5435SOL    HW128029   7.845   6.801   2.235 -2.7062  2.3412  0.4494
 5435SOL    HW228030   7.895   6.810   2.378  1.2710 -1.1249 -0.5263
 5436SOL     OW28031   8.349   7.432  10.363  0.2245 -0.2883 -0.2287
 5436SOL    HW128032   8.299   7.414  10.442  0.9301  1.4368  0.6664
 5436SOL    HW228033   8.322   7.520  10.338  0.3889 -0.6188 -1.6352
 5437SOL     OW28034  10.426  11.186   0.146 -0.3087  0.1576  0.2785
 5437SOL    HW128035  10.449  11.094   0.132 -0.4082 -0.1547  1.9831
 5437SOL    HW228036  10.332  11.185   0.160 -0.1683  0.3787  1.2881
 5438SOL     OW28037   6.426   8.759  11.340 -0.3577 -0.0532 -0.1640
 5438SOL    HW128038   6.420   8.842  11.387 -1.0619 -1.4419  2.3925
 5438SOL    HW228039   6.356   8.764  11.274 -2.0096  0.5137  1.5247
 5439SOL     OW28040   8.946   0.069   5.546 -0.1214  0.1063  0.0756
 5439SOL    HW128041   9.031   0.051   5.507 -0.9740  0.7797 -2.3158
 5439SOL    HW228042   8.961   0.067   5.640  1.6292 -4.1637 -0.0713
 5440SOL     OW28043   1.804  11.307  11.675  0.1396  0.2025 -0.4350
 5440SOL    HW128044   1.766  11.225  11.708  1.6456 -0.1329  0.5704
 5440SOL    HW228045   1.757  11.376  11.723  0.2267 -0.1605  0.1867
 5441SOL     OW28046   4.187  11.708   2.560  1.1110 -0.4464  0.2552
 5441SOL    HW128047   4.263  11.766   2.562  1.6936 -1.1956  0.0901
 5441SOL    HW228048   4.164  11.702   2.467 -0.3638  1.3159  0.4594
 5442SOL     OW28049   6.272   2.525   8.527  0.2608  0.0692 -0.2579
 5442SOL    HW128050   6.274   2.620   8.537 -0.7609 -0.0923  2.1750
 5442SOL    HW228051   6.340   2.494   8.587  0.3576 -0.7467 -0.7814
 5443SOL     OW28052  10.520   4.065   4.157  0.2615 -0.0535 -0.2880
 5443SOL    HW128053  10.512   4.123   4.082  0.7736  0.0105 -0.2925
 5443SOL    HW228054  10.537   4.123   4.231 -2.9274  0.1897  0.4230
 5444SOL     OW28055  11.674   4.686   7.691  0.1357  0.0057 -0.2274
 5444SOL    HW128056  11.586   4.679   7.728  0.1634 -0.2474 -0.2089
 5444SOL    HW228057  11.697   4.778   7.700 -0.4498  0.2346 -0.9735
 5445SOL     OW28058   4.867   4.210   1.947  0.2574  0.0719 -0.4756
 5445SOL    HW128059   4.787   4.195   1.997  0.4608 -1.1751 -0.4694
 5445SOL    HW228060   4.839   4.262   1.872 -0.5391 -0.2209 -0.3942
 5446SOL     OW28061   7.377   9.174   0.963  0.5940  0.0069 -0.0711
 5446SOL    HW128062   7.331   9.228   1.028 -0.2657 -1.2131  0.3701
 5446SOL    HW228063   7.358   9.215   0.879 -1.8653 -0.7810  0.0205
 5447SOL     OW28064  10.096   4.972   4.986 -0.2443  0.1677 -0.0822
 5447SOL    HW128065  10.156   4.937   5.052  0.4701  0.6536 -0.4588
 5447SOL    HW228066  10.072   5.059   5.018 -0.0219  0.3408 -0.3795
 5448SOL     OW28067   3.577  11.638   8.549  0.3466  0.0883  0.0094
 5448SOL    HW128068   3.595  11.687   8.468 -1.8701  1.5481  0.3406
 5448SOL    HW228069   3.591  11.701   8.619  0.2792 -0.5975  0.6530
 5449SOL     OW28070   7.725   6.893   4.359  0.4343 -0.0103  0.4063
 5449SOL    HW128071   7.769   6.809   4.360 -1.8629 -1.3115  0.2557
 5449SOL    HW228072   7.773   6.945   4.295  1.7953 -1.2626  0.3698
 5450SOL     OW28073   4.656   7.076   5.532 -0.0088  0.6248  0.4315
 5450SOL    HW128074   4.682   6.984   5.523  0.4832  0.7526  0.5188
 5450SOL    HW228075   4.576   7.073   5.584  0.3508  0.2756  0.9868
 5451SOL     OW28076   7.179   6.591   3.700  0.1510  0.5880 -0.3327
 5451SOL    HW128077   7.260   6.555   3.734 -0.0948  0.4497  0.1085
 5451SOL    HW228078   7.135   6.630   3.776 -0.6097 -0.1223 -0.3976
 5452SOL     OW28079   2.429  11.677   9.167  0.3398 -0.0880  0.3028
 5452SOL    HW128080   2.406  11.770   9.170 -0.4102 -0.2692  0.4199
 5452SOL    HW228081   2.519  11.673   9.199  0.2353  0.5583  0.6890
 5453SOL     OW28082   0.323   1.192   1.691  0.3507  0.4659  0.1554
 5453SOL    HW128083   0.286   1.139   1.620 -0.5205  1.5277 -0.2038
 5453SOL    HW228084   0.406   1.223   1.656  0.7822 -0.4870  0.2974
 5454SOL     OW28085   8.493   7.561   2.439 -0.1407  0.0954 -0.6555
 5454SOL    HW128086   8.400   7.582   2.435 -0.4256 -0.9917 -0.1089
 5454SOL    HW228087   8.495   7.467   2.455  1.0391  0.3325  0.7826
 5455SOL     OW28088   3.725   4.279   2.426 -0.2633  0.4468 -0.6268
 5455SOL    HW128089   3.685   4.366   2.422 -0.2816  0.4667 -0.1219
 5455SOL    HW228090   3.765   4.276   2.513 -1.1587 -0.4365 -0.2216
 5456SOL     OW28091   9.986  11.677   7.426 -0.8258 -0.4500 -0.2859
 5456SOL    HW128092  10.030  11.687   7.510  1.9968 -0.1582 -1.6764
 5456SOL    HW228093  10.034  11.735   7.367 -3.0803 -0.1954 -2.0064
 5457SOL     OW28094   1.165   1.861   2.955 -0.1566  0.1456  0.7462
 5457SOL    HW128095   1.090   1.816   2.994  0.4510 -2.6411 -0.9874
 5457SOL    HW228096   1.211   1.793   2.906  1.3951  2.5267 -1.4064
 5458SOL     OW28097   1.593   0.610   4.701 -0.0187 -0.0798  0.3340
 5458SOL    HW128098   1.662   0.671   4.674 -1.1641  1.9417  1.7203
 5458SOL    HW228099   1.575   0.632   4.792 -1.1148 -1.9382  0.6304
 5459SOL     OW28100   6.027   2.132   5.176 -0.6898  0.3954  0.9127
 5459SOL    HW128101   6.065   2.099   5.257  1.2773  0.1332 -0.0483
 5459SOL    HW228102   5.940   2.093   5.173 -0.3347 -0.5987  2.2756
 5460SOL     OW28103   7.638   7.754   5.340  0.3357 -0.0766  0.1183
 5460SOL    HW128104   7.713   7.700   5.366  0.7954  0.0273 -0.9174
 5460SOL    HW228105   7.608   7.713   5.258 -0.0822  0.4998 -0.0187
 5461SOL     OW28106   7.886   8.019   9.099 -0.0359 -0.3769  0.2456
 5461SOL    HW128107   7.863   8.055   9.184 -1.3612  1.7622 -0.9284
 5461SOL    HW228108   7.937   8.088   9.056 -1.1428 -0.5412 -1.4455
 5462SOL     OW28109   3.384   1.131   9.410  0.1607 -0.2189 -0.1252
 5462SOL    HW128110   3.410   1.041   9.388  0.0581 -0.1198 -0.6438
 5462SOL    HW228111   3.401   1.182   9.331 -1.5541 -0.1373 -0.4778
 5463SOL     OW28112   6.478  11.677   3.778  0.3300 -0.1951  0.0531
 5463SOL    HW128113   6.383  11.682   3.764 -0.0517  2.0417  2.7827
 5463SOL    HW228114   6.509  11.766   3.766  2.0341 -0.7654 -0.0804
 5464SOL     OW28115   5.437   9.757  11.317  0.3822  0.0018  0.3650
 5464SOL    HW128116   5.415   9.782  11.227  1.9038  1.8184  0.4315
 5464SOL    HW228117   5.358   9.778  11.368 -0.0542  0.1284 -0.3513
 5465SOL     OW28118   2.715   3.891   7.918  0.1306  0.2825 -0.2764
 5465SOL    HW128119   2.677   3.806   7.940  2.0136 -0.7446 -0.8548
 5465SOL    HW228120   2.653   3.930   7.857 -0.6271 -0.7737 -0.2005
 5466SOL     OW28121   4.937   5.807  11.663  0.5609  0.5425 -0.0440
 5466SOL    HW128122   4.993   5.748  11.714 -0.1370  0.1134  0.2478
 5466SOL    HW228123   4.894   5.861  11.729 -1.3132 -0.8568 -0.0279
 5467SOL     OW28124  11.135  10.504   5.757 -0.2027  0.3165 -0.1872
 5467SOL    HW128125  11.107  10.432   5.701  2.6508 -0.0751 -1.3038
 5467SOL    HW228126  11.059  10.562   5.762 -2.3126 -2.2581  0.0078
 5468SOL     OW28127   3.104   6.253  11.783 -0.8048 -0.2033 -0.4556
 5468SOL    HW128128   3.133   6.232  11.695 -1.4299 -2.9969 -0.0990
 5468SOL    HW228129   3.012   6.278  11.773 -1.2226 -1.6432 -0.5545
 5469SOL     OW28130  10.438   0.467   1.964 -0.6517 -0.4217  0.2650
 5469SOL    HW128131  10.413   0.560   1.964 -0.5047 -0.3533 -1.3682
 5469SOL    HW228132  10.376   0.426   1.903 -1.4523 -1.6382  1.8178
 5470SOL     OW28133   0.457   6.239   7.583 -0.1352 -0.1487  0.2977
 5470SOL    HW128134   0.367   6.258   7.610 -1.2943 -2.3099 -1.5809
 5470SOL    HW228135   0.461   6.267   7.492  1.1086 -0.0688  0.3585
 5471SOL     OW28136  10.517   0.669   9.725  0.0514  0.3469 -0.8407
 5471SOL    HW128137  10.477   0.715   9.651  1.8393 -0.9385 -2.7609
 5471SOL    HW228138  10.611   0.677   9.709  0.4611 -2.4509 -0.3630
 5472SOL     OW28139   0.035   3.291   6.999 -0.1543 -0.6221 -0.1693
 5472SOL    HW128140   0.052   3.310   6.907 -0.4100  1.2415  0.1310
 5472SOL    HW228141  -0.056   3.318   7.013 -0.0963 -0.8128  0.6485
 5473SOL     OW28142  10.464   2.591   2.753 -0.2861 -0.5591  0.3695
 5473SOL    HW128143  10.485   2.612   2.663 -0.1594  0.1664  0.5621
 5473SOL    HW228144  10.546   2.603   2.801 -0.8359  1.2680  0.9468
 5474SOL     OW28145   3.306   3.906   3.961  0.0578  0.7138 -0.0899
 5474SOL    HW128146   3.387   3.908   4.011  0.4646  0.2231 -0.7266
 5474SOL    HW228147   3.250   3.845   4.008  0.0060  1.1344  0.4110
 5475SOL     OW28148   3.678   9.794   5.283 -0.4426 -0.3394  0.1612
 5475SOL    HW128149   3.749   9.751   5.332 -0.4274 -0.5922 -0.0789
 5475SOL    HW228150   3.668   9.740   5.204  0.6275  0.9534 -0.9152
 5476SOL     OW28151   3.222   9.567   7.388  0.6524  0.3946  0.2159
 5476SOL    HW128152   3.236   9.610   7.303  0.7429 -1.4599 -0.7670
 5476SOL    HW228153   3.154   9.619   7.430  0.4512  1.2475 -1.0901
 5477SOL     OW28154   9.836   7.466  10.951  0.0663  0.4441 -0.0684
 5477SOL    HW128155   9.790   7.425  11.024 -1.2484  0.2668 -0.9528
 5477SOL    HW228156   9.775   7.457  10.877  1.9081 -0.6938 -1.5488
 5478SOL     OW28157   0.560   4.844   3.482 -0.9862 -0.2694  0.8755
 5478SOL    HW128158   0.602   4.804   3.406 -1.3977  1.3902 -0.2912
 5478SOL    HW228159   0.496   4.780   3.512  1.3345 -2.2884  1.8574
 5479SOL     OW28160   6.714   7.675   2.363  0.3894  0.4031  0.2863
 5479SOL    HW128161   6.717   7.771   2.363  0.3388  0.4937  3.2798
 5479SOL    HW228162   6.622   7.654   2.352  0.2095  0.7685  1.0361
 5480SOL     OW28163   1.630   1.420   4.823  0.8083 -0.5056  0.1929
 5480SOL    HW128164   1.715   1.416   4.779  1.4189 -1.4059  1.4191
 5480SOL    HW228165   1.603   1.329   4.831  1.3570 -0.5153  2.8553
 5481SOL     OW28166   7.758   6.907   1.017 -0.0155 -0.3413  0.6107
 5481SOL    HW128167   7.675   6.952   1.008 -0.6811 -1.4147  1.1514
 5481SOL    HW228168   7.810   6.936   0.943 -1.4701 -0.9103 -0.6845
 5482SOL     OW28169   6.827   1.237   2.742 -0.0672 -0.1612 -0.0855
 5482SOL    HW128170   6.795   1.148   2.761 -2.0083  0.7683  1.3044
 5482SOL    HW228171   6.922   1.229   2.746 -0.1801 -1.5420  3.5578
 5483SOL     OW28172   1.700   2.965   4.706  0.0981  0.3036 -0.0061
 5483SOL    HW128173   1.708   2.921   4.622  0.5482 -1.2798  0.8331
 5483SOL    HW228174   1.786   3.002   4.723 -0.2085  1.3190 -0.5882
 5484SOL     OW28175   2.295   5.070   7.089  0.1277  0.3790 -0.9411
 5484SOL    HW128176   2.303   4.984   7.047 -2.5102 -0.7889  0.6638
 5484SOL    HW228177   2.334   5.059   7.176 -0.4203  0.7146 -0.6428
 5485SOL     OW28178   9.322   0.470   3.730 -0.1226  0.3008 -0.0332
 5485SOL    HW128179   9.406   0.516   3.729  0.2435 -0.3557 -0.0540
 5485SOL    HW228180   9.261   0.533   3.767 -0.1874  1.7510 -2.3809
 5486SOL     OW28181  11.008  11.294   6.889 -0.9810  0.0236 -0.6634
 5486SOL    HW128182  11.069  11.277   6.817 -0.1710 -0.3028  0.0686
 5486SOL    HW228183  11.043  11.374   6.931  0.9419 -1.8890  1.7214
 5487SOL     OW28184   0.109   3.355   8.454  0.1966  0.3843  0.3578
 5487SOL    HW128185   0.121   3.389   8.542 -2.1336  1.0609  0.4743
 5487SOL    HW228186   0.038   3.292   8.462 -0.2260  0.6372 -1.0763
 5488SOL     OW28187   6.361   1.496   0.491 -0.3754  0.9082  0.2694
 5488SOL    HW128188   6.273   1.511   0.458 -0.8840 -1.2607  0.5478
 5488SOL    HW228189   6.381   1.405   0.470  2.5087  1.7657 -1.3553
 5489SOL     OW28190   8.211   6.864   5.327  0.5526 -0.4595  0.1054
 5489SOL    HW128191   8.193   6.958   5.331 -1.0241 -0.7406  0.1710
 5489SOL    HW228192   8.294   6.858   5.279  0.0655  0.8886 -0.9796
 5490SOL     OW28193   3.853   8.586   7.287  0.3592 -0.0950  0.5607
 5490SOL    HW128194   3.819   8.669   7.322  0.2613  0.2134 -0.2444
 5490SOL    HW228195   3.945   8.586   7.312  0.8277  1.1384 -0.9851
 5491SOL     OW28196   7.231   1.139   1.005 -0.7704 -0.0744 -0.3773
 5491SOL    HW128197   7.325   1.139   0.984 -0.4226  0.5259  1.0475
 5491SOL    HW228198   7.199   1.056   0.969  0.4851 -0.6847 -0.1566
 5492SOL     OW28199   4.946   6.875   0.134  0.2084 -0.0082 -0.3241
 5492SOL    HW128200   4.997   6.851   0.211 -1.6266 -0.0290  0.9461
 5492SOL    HW228201   4.880   6.807   0.126 -0.0442  0.3496 -1.5287
 5493SOL     OW28202   1.006   5.847   4.369 -0.4927 -0.0127 -0.1804
 5493SOL    HW128203   0.931   5.819   4.420 -0.5750  0.2485 -0.1571
 5493SOL    HW228204   1.029   5.933   4.405  0.5956 -0.6287  0.6535
 5494SOL     OW28205  10.518   8.839  10.586 -0.3161 -0.0523  0.0536
 5494SOL    HW128206  10.510   8.877  10.499  1.3598 -0.3971 -0.2971
 5494SOL    HW228207  10.444   8.779  10.594 -1.6203  1.4388 -0.3218
 5495SOL     OW28208   3.990  10.841  10.756 -0.2420  0.7572 -0.2436
 5495SOL    HW128209   4.033  10.775  10.700 -0.8426  0.2654 -0.1366
 5495SOL    HW228210   4.035  10.834  10.840 -0.0476  0.7477 -0.3483
 5496SOL     OW28211   5.664  10.400   4.723  0.3042 -0.5054 -0.1289
 5496SOL    HW128212   5.757  10.380   4.732  0.3648 -0.6264 -0.9213
 5496SOL    HW228213   5.643  10.453   4.800  1.2099  0.1721 -0.3369
 5497SOL     OW28214   6.009   8.580   7.762  0.5471  0.1540 -0.0959
 5497SOL    HW128215   6.097   8.613   7.745  1.2227 -1.4085  0.2405
 5497SOL    HW228216   5.998   8.507   7.700 -1.3610  1.6690 -1.6764
 5498SOL     OW28217   5.823   9.887   9.704 -0.0250 -0.1679 -0.3711
 5498SOL    HW128218   5.833   9.800   9.666  0.2842 -0.4207  0.2725
 5498SOL    HW228219   5.895   9.938   9.667  1.9668 -1.1543  1.9042
 5499SOL     OW28220   0.537   2.080  11.205 -0.3714 -0.0131  0.2960
 5499SOL    HW128221   0.517   2.062  11.297 -1.7360  2.1855  0.5142
 5499SOL    HW228222   0.473   2.029  11.156 -0.0662 -0.6891  0.6022
 5500SOL     OW28223   3.267   1.047   7.460 -0.6148  0.1850 -0.1179
 5500SOL    HW128224   3.320   1.106   7.514  1.2824 -1.2785 -0.2612
 5500SOL    HW228225   3.206   1.104   7.414  0.7325  1.9609  0.1963
 5501SOL     OW28226   9.429   9.430   5.697  0.2604 -0.3894 -0.0155
 5501SOL    HW128227   9.512   9.424   5.649 -0.0429  2.5399 -1.1216
 5501SOL    HW228228   9.455   9.430   5.789  1.3809 -0.6965 -0.3095
 5502SOL     OW28229  11.105   9.577  10.763  0.1362 -0.1657 -0.1317
 5502SOL    HW128230  11.198   9.568  10.741 -0.3836  0.1938 -2.7534
 5502SOL    HW228231  11.087   9.670  10.752 -0.3355 -0.0225  1.5023
 5503SOL     OW28232   0.093   3.961   7.936  0.7229  0.3107 -0.3155
 5503SOL    HW128233   0.156   3.948   7.865  2.8953 -0.4175  1.6143
 5503SOL    HW228234   0.147   3.967   8.015 -1.6037  0.5336  1.3591
 5504SOL     OW28235   5.473   9.504  10.832 -0.0683 -0.7841 -0.0593
 5504SOL    HW128236   5.512   9.416  10.828 -0.8547 -1.0973 -1.0194
 5504SOL    HW228237   5.412   9.499  10.906  0.4610 -0.7967  0.3880
 5505SOL     OW28238  11.483   1.955   9.051 -0.4880  0.6766 -0.3535
 5505SOL    HW128239  11.556   1.986   9.105 -0.0730  1.1131 -1.1496
 5505SOL    HW228240  11.410   1.948   9.112  0.5765 -1.2442  0.8178
 5506SOL     OW28241   0.572   6.877   6.639 -0.4451  0.3320 -0.3752
 5506SOL    HW128242   0.491   6.839   6.673  0.1991 -0.6567  0.0741
 5506SOL    HW228243   0.544   6.930   6.564 -1.6186  0.7747  0.3546
 5507SOL     OW28244   7.165  11.448   4.786 -0.4079 -0.2344 -0.4628
 5507SOL    HW128245   7.211  11.415   4.863 -0.0008 -1.7115 -1.3009
 5507SOL    HW228246   7.175  11.543   4.791  1.9604 -0.4491 -0.1224
 5508SOL     OW28247   7.539   1.666   3.161  0.1973  0.5463 -0.3438
 5508SOL    HW128248   7.574   1.618   3.236 -2.1504  2.4019  2.1484
 5508SOL    HW228249   7.475   1.606   3.122 -0.9934  0.6744  1.2853
 5509SOL     OW28250   0.654   8.332   9.147 -0.1407  0.1498 -0.2961
 5509SOL    HW128251   0.587   8.391   9.182  0.8945  1.6813 -0.7448
 5509SOL    HW228252   0.642   8.336   9.052  0.1564 -0.0911 -0.3449
 5510SOL     OW28253   9.903   9.386   1.023 -0.3304  0.1377  0.2730
 5510SOL    HW128254   9.856   9.469   1.028 -3.3290 -1.3249 -0.9241
 5510SOL    HW228255   9.845   9.323   1.064  1.4080 -1.5726  0.2487
 5511SOL     OW28256   0.326   7.259   6.170  0.3042  0.4504 -0.4146
 5511SOL    HW128257   0.373   7.338   6.196  0.7400  0.0136  0.1467
 5511SOL    HW228258   0.290   7.280   6.084 -0.9584  1.8423  0.4055
 5512SOL     OW28259   1.681  11.369   1.161 -0.1462 -0.1857  0.0881
 5512SOL    HW128260   1.735  11.313   1.217 -0.5771 -1.0452 -0.3481
 5512SOL    HW228261   1.695  11.458   1.196  0.0300 -0.6362  1.2011
 5513SOL     OW28262   0.872   6.789  11.396 -0.1781  0.8123 -0.0411
 5513SOL    HW128263   0.851   6.882  11.398 -0.8353  0.6578  0.8479
 5513SOL    HW228264   0.881   6.765  11.489 -1.8309 -0.4093 -0.1649
 5514SOL     OW28265   4.135  10.337  10.832  0.1758 -0.2414  0.1438
 5514SOL    HW128266   4.184  10.305  10.908 -0.0108  2.9507  1.7751
 5514SOL    HW228267   4.049  10.295  10.839 -0.2787  0.9178  2.5093
 5515SOL     OW28268   3.172   0.499   5.659  0.2131 -0.7184 -0.1667
 5515SOL    HW128269   3.091   0.506   5.708 -0.4168  1.3380 -1.4020
 5515SOL    HW228270   3.231   0.563   5.698  0.1177  0.0700 -1.2567
 5516SOL     OW28271   6.827   8.583  10.938 -0.2992  0.1195  0.4385
 5516SOL    HW128272   6.777   8.549  11.012  1.1549 -2.3748  0.3667
 5516SOL    HW228273   6.885   8.649  10.976 -0.5579 -0.1198  1.2588
 5517SOL     OW28274   7.684   5.367   6.025 -0.4513  0.6063 -0.8397
 5517SOL    HW128275   7.713   5.281   6.056 -1.5043  1.1285  1.9490
 5517SOL    HW228276   7.753   5.427   6.053 -0.9866  0.9794 -0.2740
 5518SOL     OW28277  11.477   7.340   6.786  0.4895  0.0085 -0.4234
 5518SOL    HW128278  11.547   7.405   6.782  1.3183 -0.8625 -0.3264
 5518SOL    HW228279  11.482   7.303   6.874 -0.4768  0.3402 -0.2141
 5519SOL     OW28280   1.698   5.727   2.356 -0.0422  0.1484 -0.0018
 5519SOL    HW128281   1.749   5.766   2.427 -0.4411  0.6514  0.0149
 5519SOL    HW228282   1.762   5.712   2.286  0.2522  0.1458  0.2663
 5520SOL     OW28283  11.495   0.315   7.598 -0.0262 -0.1888  0.0726
 5520SOL    HW128284  11.446   0.239   7.565  2.6477 -2.0008 -0.0660
 5520SOL    HW228285  11.514   0.367   7.521 -2.5022  1.1479  0.2530
 5521SOL     OW28286   8.780   1.731   9.642  0.0464 -0.4219  0.3025
 5521SOL    HW128287   8.691   1.730   9.607  0.0357 -3.3027  0.2425
 5521SOL    HW228288   8.833   1.770   9.573 -0.9841  0.3649 -0.0738
 5522SOL     OW28289   7.957   0.306   1.911  0.3820 -0.2695  0.1426
 5522SOL    HW128290   8.026   0.282   1.973  0.8990  0.3399 -0.1831
 5522SOL    HW228291   7.916   0.383   1.950  1.6793  1.0292 -0.9476
 5523SOL     OW28292   5.803   6.782   2.075  0.2652  0.6416 -0.6812
 5523SOL    HW128293   5.837   6.751   2.159  0.1363 -0.2381 -0.9415
 5523SOL    HW228294   5.745   6.854   2.098 -0.3287 -0.0511  0.0490
 5524SOL     OW28295   8.208   6.720   3.262  0.1030 -0.0644  0.7706
 5524SOL    HW128296   8.171   6.643   3.305  1.5225 -0.6952  0.9413
 5524SOL    HW228297   8.243   6.772   3.334 -0.1009  0.3195  0.5902
 5525SOL     OW28298   2.860   5.428   1.991 -0.4427 -0.0740 -0.2806
 5525SOL    HW128299   2.938   5.479   2.010 -0.7424  0.5029 -0.5619
 5525SOL    HW228300   2.857   5.422   1.895 -1.5073  1.1702 -0.3607
 5526SOL     OW28301   8.723   2.508   2.740  0.2438  0.3425  0.2444
 5526SOL    HW128302   8.814   2.517   2.710  0.1349 -0.4249 -0.3588
 5526SOL    HW228303   8.731   2.473   2.829  0.5606  2.0856  0.9396
 5527SOL     OW28304   7.454   2.035   7.931 -0.0605 -0.2208  0.2921
 5527SOL    HW128305   7.419   2.101   7.871  1.8488  0.8343  0.2588
 5527SOL    HW228306   7.448   2.075   8.017 -0.7895 -0.8675  0.5573
 5528SOL     OW28307   6.480   8.946   3.890  0.7188  0.0389 -0.5073
 5528SOL    HW128308   6.407   9.000   3.860  0.6921  0.1012 -0.3380
 5528SOL    HW228309   6.442   8.859   3.904 -0.0409  0.7353  2.3975
 5529SOL     OW28310   8.428  11.284   7.898 -0.3181  0.0556  0.8878
 5529SOL    HW128311   8.426  11.244   7.811 -1.5733 -0.6957  1.2456
 5529SOL    HW228312   8.520  11.310   7.910 -0.3143  1.0962 -1.0556
 5530SOL     OW28313   2.219  11.574   2.462  0.1612  0.4249 -0.2404
 5530SOL    HW128314   2.298  11.534   2.497 -0.0729 -0.5673 -0.8199
 5530SOL    HW228315   2.153  11.505   2.466  0.5524 -0.4074 -4.3248
 5531SOL     OW28316   5.438   4.706   4.796  0.1514  0.0803 -0.0845
 5531SOL    HW128317   5.405   4.657   4.872  1.5854 -0.9756 -0.0835
 5531SOL    HW228318   5.361   4.720   4.741 -1.2022  2.1062  2.1696
 5532SOL     OW28319   8.613   5.281   1.791 -0.3312  0.1458  0.1393
 5532SOL    HW128320   8.629   5.192   1.758 -0.2081  0.0510  0.4476
 5532SOL    HW228321   8.536   5.311   1.742  0.1081  0.1772 -0.5435
 5533SOL     OW28322   6.762   8.034   4.656  0.0000 -0.8669 -0.2952
 5533SOL    HW128323   6.670   8.024   4.681 -0.4779 -1.8329 -2.2538
 5533SOL    HW228324   6.806   7.958   4.694 -0.1046 -0.6997  0.1711
 5534SOL     OW28325   6.832   6.942   6.353  0.0836  0.2550  0.0342
 5534SOL    HW128326   6.812   7.023   6.306 -0.7950  0.5596  0.8960
 5534SOL    HW228327   6.764   6.880   6.324 -0.3214  0.3743  0.7034
 5535SOL     OW28328   4.696  11.217  11.247 -0.0966  0.0089 -0.4240
 5535SOL    HW128329   4.714  11.280  11.317 -1.3941 -0.3952  0.3108
 5535SOL    HW228330   4.753  11.143  11.267  0.2307  0.2784 -0.3424
 5536SOL     OW28331  10.077   0.227  10.065  0.3106 -0.2227 -0.0936
 5536SOL    HW128332  10.131   0.152  10.038  0.2402  0.5208 -2.5602
 5536SOL    HW228333  10.138   0.301  10.064 -0.3437  0.3253 -1.1836
 5537SOL     OW28334   8.863   5.718   3.117  0.3690 -0.4521  0.2022
 5537SOL    HW128335   8.821   5.775   3.052 -0.4795  0.8281  1.7918
 5537SOL    HW228336   8.956   5.721   3.095  0.0793 -0.2048 -1.0589
 5538SOL     OW28337   2.069   9.624   7.614  0.1822  0.4001 -0.1163
 5538SOL    HW128338   1.981   9.598   7.586  0.8836 -1.0329 -1.0749
 5538SOL    HW228339   2.098   9.684   7.545  0.0012  0.8376  0.1775
 5539SOL     OW28340  10.170   1.919   3.289  0.4731 -0.6624  0.0619
 5539SOL    HW128341  10.200   1.911   3.379 -1.1574 -0.7633  0.6363
 5539SOL    HW228342  10.082   1.881   3.290  1.0666 -2.2423 -1.9499
 5540SOL     OW28343   5.672  10.630   8.780  0.8081  0.1260 -0.2455
 5540SOL    HW128344   5.638  10.541   8.795 -0.3194  0.9192  2.5884
 5540SOL    HW228345   5.745  10.639   8.841 -0.6020  1.8558  1.3085
 5541SOL     OW28346   2.612  10.213  10.834 -0.2308  0.4014  0.6340
 5541SOL    HW128347   2.692  10.165  10.810 -0.9602  0.1506 -1.5199
 5541SOL    HW228348   2.642  10.299  10.860  0.8461 -0.1658  1.3415
 5542SOL     OW28349   3.753   5.275   3.243  0.3212  0.3064  0.0641
 5542SOL    HW128350   3.717   5.198   3.287  0.7467  0.5272  0.8102
 5542SOL    HW228351   3.843   5.282   3.276  1.0871 -0.2523 -1.8047
 5543SOL     OW28352   3.620   8.833  11.951 -0.2603  0.3286 -0.1664
 5543SOL    HW128353   3.550   8.769  11.938  1.5196 -1.5408 -1.0032
 5543SOL    HW228354   3.651   8.852  11.862  1.7722 -0.6516  0.2808
 5544SOL     OW28355   3.824   9.989   1.282 -0.3925 -0.0844  0.0913
 5544SOL    HW128356   3.765   9.932   1.332 -2.1487  0.1569 -1.5749
 5544SOL    HW228357   3.767  10.059   1.250  0.8313  0.2429 -1.4780
 5545SOL     OW28358  11.459   8.912   4.471 -0.0156  0.0337  0.4342
 5545SOL    HW128359  11.418   8.841   4.519  0.3404 -0.0167  0.6682
 5545SOL    HW228360  11.457   8.884   4.379 -1.1442  0.3508  0.3474
 5546SOL     OW28361   3.335   6.577   0.310 -0.2807 -0.1351  0.2614
 5546SOL    HW128362   3.421   6.552   0.344 -0.5286  0.3590  1.3137
 5546SOL    HW228363   3.274   6.554   0.380 -1.1178 -1.2312 -0.7955
 5547SOL     OW28364   8.565   5.742   0.668 -0.2020  0.2367  0.4871
 5547SOL    HW128365   8.580   5.796   0.746 -1.5669  1.6798 -0.2091
 5547SOL    HW228366   8.562   5.653   0.702 -0.2853  0.7870  2.0226
 5548SOL     OW28367   4.635   9.146   4.696 -0.2694 -0.4000 -0.0447
 5548SOL    HW128368   4.728   9.161   4.710 -0.0278 -1.4675 -0.4173
 5548SOL    HW228369   4.627   9.131   4.602 -0.7137 -0.9762  0.0782
 5549SOL     OW28370   2.187   4.562  11.714 -0.0258 -0.8487  0.2396
 5549SOL    HW128371   2.203   4.548  11.620  0.9534 -0.9451  0.4043
 5549SOL    HW228372   2.134   4.488  11.741 -0.5341 -0.6850 -0.2897
 5550SOL     OW28373  10.052   5.750   9.154  0.6667  0.5322  0.2185
 5550SOL    HW128374  10.036   5.722   9.064  0.1754 -3.0643  1.2519
 5550SOL    HW228375   9.990   5.821   9.169  1.3790  1.8453 -2.4593
 5551SOL     OW28376   8.004  10.602   6.306 -0.2163 -0.1785  0.2270
 5551SOL    HW128377   8.082  10.567   6.262 -1.3971 -2.3452 -0.3131
 5551SOL    HW228378   7.982  10.681   6.258  0.9529 -0.2091 -0.3837
 5552SOL     OW28379   6.691   2.750   3.430 -0.0183  0.2284  0.0671
 5552SOL    HW128380   6.714   2.820   3.369 -0.9959  0.4704 -0.0512
 5552SOL    HW228381   6.685   2.793   3.516  0.8413 -0.0096  0.2543
 5553SOL     OW28382   3.607   2.233   4.427  0.0111  0.1709 -0.7447
 5553SOL    HW128383   3.571   2.150   4.394 -1.1242  0.5874 -0.5947
 5553SOL    HW228384   3.701   2.217   4.433 -0.2409 -1.2826 -0.2342
 5554SOL     OW28385   8.090   3.070  11.180  0.1789  0.2227  0.2874
 5554SOL    HW128386   8.107   3.007  11.111  1.5641 -0.4659  1.2134
 5554SOL    HW228387   8.040   3.140  11.137 -1.6796 -1.5868 -0.6918
 5555SOL     OW28388  11.142   5.152   8.435  0.4810 -0.7479 -0.4265
 5555SOL    HW128389  11.115   5.104   8.356  0.0614 -1.2249 -0.0010
 5555SOL    HW228390  11.118   5.094   8.507 -0.4467  0.2764  0.1257
 5556SOL     OW28391  11.773   5.378   3.284  0.2153 -0.4612  0.2130
 5556SOL    HW128392  11.868   5.386   3.293  0.2034  1.3023 -0.6925
 5556SOL    HW228393  11.738   5.455   3.328 -0.7087 -0.3592 -0.6644
 5557SOL     OW28394   9.130   8.846   7.935  0.1823  0.1718  0.1734
 5557SOL    HW128395   9.109   8.754   7.949 -0.2081  0.1436 -0.5743
 5557SOL    HW228396   9.209   8.860   7.988  0.4148 -0.6632  0.0732
 5558SOL     OW28397   4.318   8.298   6.091 -0.0879 -0.4927  0.1653
 5558SOL    HW128398   4.324   8.206   6.116 -1.2033 -0.5311  0.3458
 5558SOL    HW228399   4.275   8.341   6.165  1.5485  0.4366  0.6347
 5559SOL     OW28400   9.159   5.010  11.240 -0.0523  0.2188  0.5274
 5559SOL    HW128401   9.077   4.967  11.262  0.2346  0.3811  2.0645
 5559SOL    HW228402   9.196   4.959  11.168 -2.3731  1.2672 -1.5399
 5560SOL     OW28403   2.450   7.286   6.301 -0.3007  0.2970  0.2029
 5560SOL    HW128404   2.515   7.240   6.355 -0.5807  0.4858  0.7051
 5560SOL    HW228405   2.485   7.280   6.212 -0.1823 -0.6214  0.3014
 5561SOL     OW28406  11.498   5.185   7.392 -0.0797  0.0399 -0.0539
 5561SOL    HW128407  11.491   5.270   7.434 -2.2060 -0.3505  0.4781
 5561SOL    HW228408  11.409   5.151   7.390  0.7367 -2.2881 -0.0428
 5562SOL     OW28409  10.983   6.470   0.500 -0.3944  0.7161  0.0635
 5562SOL    HW128410  10.896   6.448   0.466 -1.0407  0.1612  1.9271
 5562SOL    HW228411  11.025   6.385   0.514  0.2476  0.9676 -0.2762
 5563SOL     OW28412   1.558   4.009   8.865  0.9679  0.0401 -0.5845
 5563SOL    HW128413   1.480   3.966   8.831  1.5078 -0.6557 -0.9641
 5563SOL    HW228414   1.531   4.047   8.948 -0.5186  2.1330 -1.9025
 5564SOL     OW28415   6.875   2.262   4.922 -0.2568  0.1323  0.6942
 5564SOL    HW128416   6.933   2.186   4.915 -1.3305 -0.7786  1.2238
 5564SOL    HW228417   6.882   2.288   5.014  0.1298  0.7074  0.5061
 5565SOL     OW28418   6.126   8.246   7.869  0.1362  0.2465  0.1437
 5565SOL    HW128419   6.093   8.328   7.833  1.4654  0.6290 -0.2664
 5565SOL    HW228420   6.071   8.178   7.830 -1.5089  0.9611  1.0990
 5566SOL     OW28421   6.847   7.541   8.577  0.9234  0.1252  0.0711
 5566SOL    HW128422   6.820   7.580   8.660  0.9097 -0.8217  0.5303
 5566SOL    HW228423   6.787   7.578   8.512 -0.7496 -1.0177  0.8824
 5567SOL     OW28424  10.985   2.486   9.528 -0.5564  0.2712  0.3855
 5567SOL    HW128425  10.895   2.470   9.499 -0.6117  0.7301  0.2951
 5567SOL    HW228426  10.975   2.519   9.618 -0.4371 -0.2907  0.6088
 5568SOL     OW28427   1.277   0.426  11.925  0.5442  0.6624 -0.0819
 5568SOL    HW128428   1.191   0.464  11.946  0.5985  0.4402  0.5646
 5568SOL    HW228429   1.340   0.482  11.971  0.6287 -0.1703  0.8437
 5569SOL     OW28430   6.875   8.803   8.717  0.5871  0.3429  0.0999
 5569SOL    HW128431   6.932   8.746   8.665  1.4611  1.2077  0.0973
 5569SOL    HW228432   6.862   8.880   8.662 -0.8026  0.0617 -0.0006
 5570SOL     OW28433   0.276   4.158   5.492  0.2875  0.1226 -0.3936
 5570SOL    HW128434   0.206   4.221   5.513  1.3279  0.7546  1.3677
 5570SOL    HW228435   0.230   4.075   5.478 -0.7978  0.3235  1.6030
 5571SOL     OW28436   7.976   5.547  11.711  0.0990  0.2401 -0.5262
 5571SOL    HW128437   8.038   5.560  11.639 -0.1641 -0.5522 -0.9153
 5571SOL    HW228438   8.021   5.487  11.771 -0.7432 -1.4274 -1.4622
 5572SOL     OW28439   7.743   6.435   6.614 -0.1336  0.2786  0.3479
 5572SOL    HW128440   7.742   6.458   6.521  1.1375  2.0527  0.7134
 5572SOL    HW228441   7.809   6.367   6.622  0.7365  1.0788  0.1142
 5573SOL     OW28442   5.577  11.273   1.390  0.5997 -0.0822  0.5067
 5573SOL    HW128443   5.563  11.317   1.307  2.2696  2.0872  1.2944
 5573SOL    HW228444   5.552  11.182   1.373  0.5278  0.3678 -2.2291
 5574SOL     OW28445   6.405   0.219   1.316 -0.3736  1.0979  0.0933
 5574SOL    HW128446   6.386   0.135   1.357  0.0755 -0.2702 -2.3116
 5574SOL    HW228447   6.341   0.279   1.353  0.4032  0.2057  3.2095
 5575SOL     OW28448   8.194   6.401   6.996 -0.0728 -0.2231  0.2003
 5575SOL    HW128449   8.120   6.375   6.941  0.5436 -0.7605 -0.3923
 5575SOL    HW228450   8.170   6.373   7.084 -1.0318  0.5646  0.2046
 5576SOL     OW28451  10.844   1.706  10.631 -0.2235  0.2692  0.3375
 5576SOL    HW128452  10.873   1.751  10.710 -0.0626  2.4987 -0.9273
 5576SOL    HW228453  10.879   1.758  10.559 -0.8976 -1.3415 -1.2353
 5577SOL     OW28454   3.268   3.085  10.351 -0.4262  0.3341  0.5277
 5577SOL    HW128455   3.312   3.001  10.333 -0.3965  0.5844 -0.6422
 5577SOL    HW228456   3.338   3.142  10.384  0.3207  0.8985 -1.8321
 5578SOL     OW28457   0.614   6.281   5.077  0.0388 -0.0321 -0.6909
 5578SOL    HW128458   0.549   6.217   5.047  0.6696 -0.6178 -0.8495
 5578SOL    HW228459   0.656   6.311   4.997  1.7782 -1.6520 -0.4645
 5579SOL     OW28460   3.459   4.315   4.271  0.0819  0.0897 -0.6751
 5579SOL    HW128461   3.507   4.319   4.354  2.3304 -2.8313 -1.6663
 5579SOL    HW228462   3.405   4.394   4.271  1.1133  0.9752  2.8582
 5580SOL     OW28463   8.324   2.771   5.593 -0.7482 -0.3372  0.4182
 5580SOL    HW128464   8.384   2.707   5.631  0.8549  0.7369 -0.1833
 5580SOL    HW228465   8.238   2.749   5.629 -0.0227 -2.0231  1.1911
 5581SOL     OW28466   0.655   2.576   3.384  0.9213 -0.5421 -0.2058
 5581SOL    HW128467   0.597   2.599   3.311  0.7764  0.2245  0.1408
 5581SOL    HW228468   0.737   2.621   3.365  0.3797  0.9522  0.8812
 5582SOL     OW28469   8.353   6.764   1.508  0.1004 -0.1647 -0.3973
 5582SOL    HW128470   8.269   6.807   1.521  0.2397  0.1347 -0.4717
 5582SOL    HW228471   8.413   6.810   1.566  0.3509  0.0496 -0.8168
 5583SOL     OW28472   2.301   6.363   8.090 -0.1959 -0.2843 -0.3766
 5583SOL    HW128473   2.396   6.358   8.076  0.2179  1.3654  1.3811
 5583SOL    HW228474   2.278   6.276   8.124  1.2163  0.0825  1.7071
 5584SOL     OW28475   5.456   6.677  10.709 -0.2428 -0.1216 -0.4184
 5584SOL    HW128476   5.387   6.735  10.740 -0.1630 -0.4543  0.4039
 5584SOL    HW228477   5.433   6.591  10.742  0.2598 -0.3428 -0.6244
 5585SOL     OW28478   1.751   4.701   5.018  0.6653  0.2406  0.8784
 5585SOL    HW128479   1.844   4.716   5.033  0.3371  1.2742  2.1303
 5585SOL    HW228480   1.716   4.789   5.000  0.3527 -0.4409 -2.4434
 5586SOL     OW28481   7.280   3.128   1.781  0.1857 -0.0086 -0.3784
 5586SOL    HW128482   7.358   3.081   1.812 -1.1797 -1.2255  1.3951
 5586SOL    HW228483   7.255   3.185   1.854  0.5077  1.9283 -1.6767
 5587SOL     OW28484   0.840   1.101   2.751 -0.4559  0.1157 -0.3994
 5587SOL    HW128485   0.843   1.196   2.746  1.0128  0.1703  0.7400
 5587SOL    HW228486   0.923   1.072   2.714  0.6668 -0.4965  2.3600
 5588SOL     OW28487   4.815   0.852  10.817  0.1686  0.5657  0.4581
 5588SOL    HW128488   4.808   0.946  10.800  0.2963  0.8067  1.6431
 5588SOL    HW228489   4.909   0.834  10.814  0.0904  0.3095 -0.5778
 5589SOL     OW28490   7.949   3.833  10.821  0.4038 -0.5452  0.1458
 5589SOL    HW128491   7.937   3.918  10.863 -3.3944 -0.3755 -0.9043
 5589SOL    HW228492   7.961   3.772  10.893 -2.5846  0.1825  1.4051
 5590SOL     OW28493   8.689   6.764   1.914 -0.0454 -0.2568  0.3364
 5590SOL    HW128494   8.674   6.730   2.002  1.8947 -1.1028  0.3949
 5590SOL    HW228495   8.776   6.732   1.891  0.4588  1.8996 -0.9820
 5591SOL     OW28496   2.163   3.207   5.141  0.0065 -0.6529  0.9526
 5591SOL    HW128497   2.255   3.208   5.114 -0.6182 -2.0190 -1.4974
 5591SOL    HW228498   2.123   3.279   5.092 -0.3864 -0.5567  1.4077
 5592SOL     OW28499  11.626  11.517   5.873 -0.4015  0.0112 -0.2733
 5592SOL    HW128500  11.670  11.432   5.885  0.7601  0.6387  0.0433
 5592SOL    HW228501  11.640  11.563   5.956 -1.5291  0.3009 -0.2358
 5593SOL     OW28502  11.341   3.284   3.154  0.0170 -0.1333  0.0107
 5593SOL    HW128503  11.416   3.327   3.113 -0.4405  1.3928  0.6908
 5593SOL    HW228504  11.269   3.299   3.092 -0.0199 -0.4171 -0.0139
 5594SOL     OW28505   8.506   1.696   9.524 -0.1678  0.2251 -0.3597
 5594SOL    HW128506   8.479   1.632   9.457 -2.5061  0.3654  0.3591
 5594SOL    HW228507   8.425   1.741   9.548  0.5204  0.0701  2.6748
 5595SOL     OW28508   3.551   3.351   1.662  0.0344 -0.2488  0.3272
 5595SOL    HW128509   3.587   3.368   1.749  1.1253  0.1788 -0.1843
 5595SOL    HW228510   3.623   3.313   1.613 -0.5910 -0.5516 -0.3780
 5596SOL     OW28511   8.787   1.248   3.587  0.1749  0.5386 -0.6354
 5596SOL    HW128512   8.819   1.215   3.503  0.3835  0.5109 -0.5456
 5596SOL    HW228513   8.866   1.260   3.639  0.0518  0.6434 -0.4744
 5597SOL     OW28514   6.159  10.656   4.523  0.2005  0.7208  0.4983
 5597SOL    HW128515   6.201  10.645   4.608  1.4825 -0.9595 -0.2888
 5597SOL    HW228516   6.101  10.580   4.515 -0.4882  1.2650  0.1787
 5598SOL     OW28517  11.095   1.106   4.056 -0.1785  0.2513  0.0351
 5598SOL    HW128518  11.035   1.106   3.981 -0.8064  2.1377  0.4718
 5598SOL    HW228519  11.048   1.059   4.125  0.4487 -1.5916 -0.7301
 5599SOL     OW28520   6.169   7.853   2.239 -0.5058  0.4698  0.5222
 5599SOL    HW128521   6.167   7.948   2.237 -1.4960  0.4703  0.8662
 5599SOL    HW228522   6.089   7.828   2.285  0.0479 -0.5173  0.9837
 5600SOL     OW28523   0.060   1.419   3.813 -0.1042 -0.3668  0.3773
 5600SOL    HW128524  -0.011   1.363   3.845 -0.1195 -0.1172  0.7797
 5600SOL    HW228525   0.133   1.400   3.871  0.2825 -0.9162 -0.2820
 5601SOL     OW28526  11.462   7.521   6.025 -0.1022 -0.0913  0.7041
 5601SOL    HW128527  11.509   7.541   5.944 -2.8568 -1.0432 -1.3177
 5601SOL    HW228528  11.506   7.571   6.092  1.3915  2.0138 -1.6832
 5602SOL     OW28529   7.655   5.462  10.092 -0.4644  0.0654 -0.2993
 5602SOL    HW128530   7.737   5.504  10.117 -0.1332  0.8168 -2.4371
 5602SOL    HW228531   7.682   5.374  10.063 -0.3845  0.3467 -1.0952
 5603SOL     OW28532  10.028   0.111   7.309  0.5312  0.3710  0.4422
 5603SOL    HW128533   9.954   0.059   7.275 -0.3881  2.1247 -0.3410
 5603SOL    HW228534   9.991   0.198   7.323  2.1913  0.9796  1.1588
 5604SOL     OW28535   6.157   5.425   2.996 -0.0888 -0.4093  0.3137
 5604SOL    HW128536   6.191   5.429   3.085 -0.3914 -0.6687  0.4420
 5604SOL    HW228537   6.083   5.365   3.001 -0.2897 -0.1936 -0.0546
 5605SOL     OW28538   9.305   1.949   9.643 -0.1807 -0.3255 -0.3296
 5605SOL    HW128539   9.231   1.996   9.604 -0.4765 -0.7837 -0.3376
 5605SOL    HW228540   9.330   1.884   9.577  2.1216  1.6808 -1.5610
 5606SOL     OW28541   9.937   4.526   5.801  0.3590 -0.3420 -0.0874
 5606SOL    HW128542   9.922   4.435   5.775  1.0313  0.0750 -2.0340
 5606SOL    HW228543   9.938   4.575   5.719 -0.9179  1.5866  0.9760
 5607SOL     OW28544   6.118   1.398   6.847  0.7553 -0.7369  0.2968
 5607SOL    HW128545   6.174   1.473   6.866  2.0085 -1.8173  1.0845
 5607SOL    HW228546   6.111   1.352   6.931 -1.2979 -0.6789  0.2077
 5608SOL     OW28547   9.216   2.208   2.168 -0.3653  0.1864 -0.1675
 5608SOL    HW128548   9.195   2.245   2.253  2.6638  1.8282  0.0262
 5608SOL    HW228549   9.248   2.120   2.187 -1.0856  0.0106  0.2194
 5609SOL     OW28550  11.487   1.025   1.598  0.0723 -0.5627 -0.0572
 5609SOL    HW128551  11.482   1.109   1.644 -0.9263  0.4485 -1.8954
 5609SOL    HW228552  11.396   1.004   1.578  0.5287 -0.2299 -2.7567
 5610SOL     OW28553   8.039   0.262  11.865 -0.0905  0.0642 -0.0929
 5610SOL    HW128554   7.955   0.238  11.827 -1.6476  1.5442  2.1354
 5610SOL    HW228555   8.039   0.220  11.951  2.7444 -2.1702 -1.0475
 5611SOL     OW28556   4.026   8.593   1.207  0.2952 -0.6537 -0.1427
 5611SOL    HW128557   4.005   8.535   1.134 -2.5983 -0.8176  0.6981
 5611SOL    HW228558   3.950   8.652   1.213  0.7341 -0.2469  2.3060
 5612SOL     OW28559   1.914   0.774   6.091 -0.2962 -0.1669  0.4357
 5612SOL    HW128560   1.826   0.795   6.060 -0.5343  0.1845  1.3288
 5612SOL    HW228561   1.901   0.710   6.161  0.1433  0.0350  0.7068
 5613SOL     OW28562   1.440   6.036   3.478 -0.1793  0.2136  0.1994
 5613SOL    HW128563   1.409   6.122   3.449  0.0193  0.5319  0.8954
 5613SOL    HW228564   1.533   6.034   3.455  0.2989  0.9831  1.8901
 5614SOL     OW28565  10.990   0.229   7.797  0.1021  0.6381  0.3418
 5614SOL    HW128566  10.919   0.286   7.768 -1.1792 -0.1265  1.8187
 5614SOL    HW228567  10.966   0.142   7.766  0.5807  0.4249  0.5495
 5615SOL     OW28568   1.360   1.020   2.970  0.7177  0.1546  0.0708
 5615SOL    HW128569   1.410   1.053   3.045 -2.3171 -0.8152  2.7195
 5615SOL    HW228570   1.321   1.099   2.932  1.2624  0.5489  0.3098
 5616SOL     OW28571   9.583   3.545   2.969  0.1499  0.7561  0.3516
 5616SOL    HW128572   9.524   3.555   3.044 -0.7882  0.8028 -0.3641
 5616SOL    HW228573   9.615   3.633   2.952  0.4480  0.7283  0.7572
 5617SOL     OW28574   5.245   4.123   5.432 -0.2169  0.2639 -0.2125
 5617SOL    HW128575   5.320   4.129   5.373  0.6629  2.5427  1.0129
 5617SOL    HW228576   5.277   4.155   5.517 -2.6010  1.7025  0.2789
 5618SOL     OW28577   4.952   4.137   4.497 -0.0032 -0.3462  0.2694
 5618SOL    HW128578   4.906   4.220   4.484  0.6846  0.1543  0.9892
 5618SOL    HW228579   4.883   4.076   4.525 -0.4590  0.0532  0.0370
 5619SOL     OW28580   5.425  11.043  10.261  0.4204 -0.2653 -0.4866
 5619SOL    HW128581   5.439  10.959  10.305 -1.2960 -1.5705 -2.2662
 5619SOL    HW228582   5.513  11.074  10.240  1.0995 -1.4809  0.3951
 5620SOL     OW28583   3.968  10.267   2.969 -0.1583  0.3360  0.4326
 5620SOL    HW128584   3.972  10.340   2.908  3.0913  0.1835  0.2893
 5620SOL    HW228585   4.038  10.284   3.032 -0.2406 -1.9419  1.2496
 5621SOL     OW28586   1.260   3.804   4.095  0.0921  0.3625 -0.6090
 5621SOL    HW128587   1.193   3.742   4.124 -2.0863  1.8916 -2.1185
 5621SOL    HW228588   1.342   3.753   4.097 -1.3978 -2.2031 -0.7346
 5622SOL     OW28589   8.949   7.050  10.700  0.3512 -0.0401 -0.3014
 5622SOL    HW128590   8.955   7.103  10.779 -0.1191  3.3610 -2.3260
 5622SOL    HW228591   9.028   6.997  10.700  1.6460  1.7538  1.2325
 5623SOL     OW28592   4.323   8.560   2.915  0.6584 -0.1059 -0.6566
 5623SOL    HW128593   4.306   8.583   2.824  1.7109  0.1238 -0.8116
 5623SOL    HW228594   4.330   8.645   2.960 -1.8471 -0.2050  0.0708
 5624SOL     OW28595  10.604   7.246  10.108 -0.4298 -0.8999 -0.7928
 5624SOL    HW128596  10.590   7.226  10.201 -0.7913 -0.1565 -0.6779
 5624SOL    HW228597  10.699   7.241  10.097 -0.0126  2.1787  0.4229
 5625SOL     OW28598  11.862  10.433  10.854 -0.3363  0.2490 -0.2542
 5625SOL    HW128599  11.844  10.503  10.792 -0.5069  0.1715 -0.2913
 5625SOL    HW228600  11.913  10.369  10.804 -1.1632 -0.1996 -0.5490
 5626SOL     OW28601  11.034   1.415   5.812 -0.6805  0.4323 -0.3372
 5626SOL    HW128602  11.080   1.457   5.740 -1.5999  2.7240  0.3179
 5626SOL    HW228603  11.104   1.377   5.867  0.1360  0.4674 -1.3234
 5627SOL     OW28604   8.004   6.322   6.567  0.1949  0.3967 -0.2642
 5627SOL    HW128605   8.050   6.398   6.532  0.0174 -0.0500 -1.5221
 5627SOL    HW228606   8.061   6.248   6.546  0.4989  0.1975  1.1940
 5628SOL     OW28607   0.786  11.062   9.696  0.1057  0.2611  1.1069
 5628SOL    HW128608   0.800  11.148   9.736 -0.5744  0.5514  0.7433
 5628SOL    HW228609   0.873  11.032   9.671  0.1947  1.6041 -0.2984
 5629SOL     OW28610   4.616   0.410   0.835 -0.5229  0.1121  0.4459
 5629SOL    HW128611   4.628   0.318   0.860 -0.0503  0.1130  0.2250
 5629SOL    HW228612   4.589   0.453   0.917  0.2017 -0.0448  0.7761
 5630SOL     OW28613   5.738   4.413   1.797  0.4206 -0.4291  0.0741
 5630SOL    HW128614   5.813   4.411   1.856  1.3944 -0.8020 -1.1257
 5630SOL    HW228615   5.662   4.419   1.855  1.3473 -0.3446  1.3334
 5631SOL     OW28616   3.718   4.736   9.124  0.3545  0.1163  0.5428
 5631SOL    HW128617   3.742   4.674   9.055 -0.1121 -0.6933  1.1028
 5631SOL    HW228618   3.655   4.795   9.082 -0.3275 -0.6910  0.4165
 5632SOL     OW28619  11.608   9.822   8.784 -0.3630 -0.3042  0.3563
 5632SOL    HW128620  11.515   9.839   8.797 -0.7099 -1.9877  0.3657
 5632SOL    HW228621  11.615   9.798   8.691  0.5934  2.6521 -0.4501
 5633SOL     OW28622  10.609  10.749   7.534  0.4752  0.0018  0.3248
 5633SOL    HW128623  10.564  10.710   7.459  0.2385  1.6336 -0.4345
 5633SOL    HW228624  10.540  10.793   7.583  0.7048 -0.6619  1.2678
 5634SOL     OW28625  10.322  11.159   2.714 -0.4334  0.2756  0.0262
 5634SOL    HW128626  10.266  11.236   2.712  0.1872  0.7389  0.2577
 5634SOL    HW228627  10.348  11.151   2.806  2.2219  1.8041 -0.4904
 5635SOL     OW28628   4.349   1.642  10.733  0.3736  0.4187  0.2401
 5635SOL    HW128629   4.398   1.714  10.772  0.0596  1.5518 -1.3402
 5635SOL    HW228630   4.327   1.673  10.645  0.9509 -1.9425 -0.8190
 5636SOL     OW28631   2.030   4.103   7.583 -0.2227 -0.5618  0.0836
 5636SOL    HW128632   2.092   4.061   7.524  0.1494 -1.5560  1.1506
 5636SOL    HW228633   2.083   4.160   7.638 -0.3645 -0.7462  0.4172
 5637SOL     OW28634   7.111   0.692   7.890  0.2586 -0.1340  0.6384
 5637SOL    HW128635   7.115   0.640   7.810  3.7917  0.2181  0.4359
 5637SOL    HW228636   7.044   0.758   7.873 -1.2898 -1.9629 -0.7441
 5638SOL     OW28637   1.518   8.123   5.980 -0.5985 -0.1389  0.2648
 5638SOL    HW128638   1.578   8.127   6.055  0.8369 -2.4474 -0.6494
 5638SOL    HW228639   1.442   8.076   6.014 -0.5911  0.1234  0.6539
 5639SOL     OW28640   3.542   5.066   1.978  0.6466  0.4232 -0.3476
 5639SOL    HW128641   3.520   5.127   2.047 -2.1976 -0.3725 -0.4362
 5639SOL    HW228642   3.514   5.109   1.897  2.3150  0.6059 -0.8773
 5640SOL     OW28643   0.605  11.626   8.019  0.2043  0.1994 -0.4373
 5640SOL    HW128644   0.520  11.588   7.997  0.1228  0.1476 -0.0413
 5640SOL    HW228645   0.628  11.585   8.102  0.3470  0.6439 -0.2562
 5641SOL     OW28646   3.429  11.517   0.781 -0.0701 -0.0264  0.0316
 5641SOL    HW128647   3.499  11.453   0.796  0.2688  0.3731  0.1513
 5641SOL    HW228648   3.428  11.530   0.686 -1.3582 -1.5797 -0.2123
 5642SOL     OW28649   2.918   3.551   4.774 -0.2056 -0.1519 -0.2011
 5642SOL    HW128650   2.988   3.606   4.809 -0.0021  0.2469 -1.1989
 5642SOL    HW228651   2.957   3.465   4.764  0.0547 -0.0078 -0.4504
 5643SOL     OW28652   3.318   1.656   9.118 -0.2392 -0.2294  0.1185
 5643SOL    HW128653   3.346   1.616   9.201 -0.0948 -1.0678 -0.3299
 5643SOL    HW228654   3.363   1.740   9.116 -2.2950  1.0691  2.1657
 5644SOL     OW28655   0.073   7.511   1.215  0.1688  0.1110  0.2233
 5644SOL    HW128656  -0.011   7.497   1.258 -0.0381 -0.7967 -0.4470
 5644SOL    HW228657   0.137   7.466   1.270 -0.2367 -2.0018 -0.9077
 5645SOL     OW28658   5.918   9.359   1.346  0.3840  0.5599  0.5364
 5645SOL    HW128659   5.855   9.327   1.282 -1.2632  3.6044  0.4523
 5645SOL    HW228660   5.932   9.285   1.405 -2.1744 -0.6790 -0.2837
 5646SOL     OW28661   1.596   3.821   7.833 -0.8130 -0.2233  0.8250
 5646SOL    HW128662   1.602   3.881   7.758 -0.5400 -0.3789  0.7219
 5646SOL    HW228663   1.657   3.857   7.897 -2.3705  0.9547  1.7146
 5647SOL     OW28664   5.850   9.940   3.848  0.0065 -0.0382  0.2395
 5647SOL    HW128665   5.928   9.966   3.895 -0.2997  0.6126  0.4046
 5647SOL    HW228666   5.850   9.995   3.769  0.0850 -0.5328 -0.1089
 5648SOL     OW28667   8.471   1.792   0.002  0.2383 -0.1141 -0.4544
 5648SOL    HW128668   8.547   1.849  -0.009 -0.5737  0.8730 -0.9670
 5648SOL    HW228669   8.481   1.725  -0.066  1.4889 -0.9654  0.5038
 5649SOL     OW28670   2.949   3.498   0.001  0.0971 -0.3760 -0.6240
 5649SOL    HW128671   2.871   3.510  -0.053 -0.3166  1.3673  0.2696
 5649SOL    HW228672   2.939   3.562   0.071  1.5606 -1.2381  0.4258
 5650SOL     OW28673   9.427  11.912  10.463  0.4006 -0.1837 -0.9838
 5650SOL    HW128674   9.467  11.889  10.379  1.5868  0.3086 -0.5675
 5650SOL    HW228675   9.484  11.980  10.499 -0.0446 -0.4497  0.2618
 5651SOL     OW28676   7.882   4.530   6.772  0.4203 -0.1106 -0.3204
 5651SOL    HW128677   7.829   4.596   6.728 -1.5399  0.2956  2.4071
 5651SOL    HW228678   7.850   4.447   6.736 -0.0010  0.2499 -0.7981
 5652SOL     OW28679   5.982   6.195  10.021  0.1407 -0.2935  0.5722
 5652SOL    HW128680   5.903   6.143  10.039  0.5947 -0.6903  1.4996
 5652SOL    HW228681   5.981   6.264  10.088  0.5715 -0.2879  0.5742
 5653SOL     OW28682   4.248   1.618   8.092  0.5346  0.6180 -0.5658
 5653SOL    HW128683   4.231   1.541   8.147 -0.8199  1.9104  0.9618
 5653SOL    HW228684   4.338   1.643   8.112  0.2213  0.7737  0.7428
 5654SOL     OW28685   5.193   7.654   1.812 -0.4408 -0.2185  0.0317
 5654SOL    HW128686   5.205   7.749   1.806 -2.2034  0.0294 -0.3337
 5654SOL    HW228687   5.230   7.619   1.732 -0.6783  0.2845 -0.3013
 5655SOL     OW28688   2.996   4.053   4.316  0.4610  0.0033 -0.0720
 5655SOL    HW128689   2.938   3.981   4.291  0.6452 -0.0979 -0.2083
 5655SOL    HW228690   3.069   4.011   4.361  0.3708  0.1414  0.2061
 5656SOL     OW28691   0.395   9.509   9.758  0.5162  0.2688  0.4110
 5656SOL    HW128692   0.412   9.415   9.771 -0.5278 -0.2166 -1.3986
 5656SOL    HW228693   0.369   9.541   9.844 -0.3145 -1.3901  0.8180
 5657SOL     OW28694   5.609   6.775   8.289 -0.4611 -0.0518  0.8653
 5657SOL    HW128695   5.661   6.739   8.217 -1.7080  0.6200 -0.4191
 5657SOL    HW228696   5.610   6.707   8.356  0.0671 -1.0402 -0.1128
 5658SOL     OW28697   7.350   0.568   9.881  0.5318 -0.2349  0.1103
 5658SOL    HW128698   7.433   0.545   9.838 -0.2301 -0.9022 -1.0551
 5658SOL    HW228699   7.324   0.650   9.839  0.4003 -0.2343  0.1946
 5659SOL     OW28700   6.107  10.660   0.879 -0.5382  0.3618 -0.1920
 5659SOL    HW128701   6.175  10.599   0.849  0.7538  0.4356  2.3307
 5659SOL    HW228702   6.027  10.630   0.836  0.6365 -1.2204 -1.3855
 5660SOL     OW28703   5.762   6.776   0.998 -0.1374  0.0809  0.1352
 5660SOL    HW128704   5.788   6.829   1.073 -0.6755  3.0121 -1.5927
 5660SOL    HW228705   5.797   6.822   0.922 -2.5669 -0.8135 -1.6650
 5661SOL     OW28706  11.811   4.412   8.194 -0.2486 -0.0869 -0.0254
 5661SOL    HW128707  11.796   4.446   8.106 -0.1246 -0.5141 -0.2131
 5661SOL    HW228708  11.904   4.388   8.195  0.2098  1.5654  0.7925
 5662SOL     OW28709   7.463  11.065  10.790  0.1783  0.2324  0.1414
 5662SOL    HW128710   7.400  11.086  10.859 -0.3939 -0.3959 -0.1869
 5662SOL    HW228711   7.461  10.970  10.783  0.5315  0.2642 -0.4689
 5663SOL     OW28712   2.220   1.725   3.965 -0.3794 -0.5441 -0.0294
 5663SOL    HW128713   2.273   1.788   3.915 -1.2389  2.7730  2.8554
 5663SOL    HW228714   2.285   1.674   4.013  0.3205  0.2856 -0.0524
 5664SOL     OW28715  11.063   6.629   5.082 -0.0571  0.4102  0.5466
 5664SOL    HW128716  11.119   6.558   5.115  0.6158  0.6027 -0.1606
 5664SOL    HW228717  11.123   6.702   5.067 -0.2534  0.1912 -1.5292
 5665SOL     OW28718   7.236   6.956   4.754 -0.2647  0.0979 -0.2979
 5665SOL    HW128719   7.297   6.941   4.826 -0.5726 -1.1544 -0.2708
 5665SOL    HW228720   7.276   6.913   4.678 -1.0809 -0.7511 -0.2792
 5666SOL     OW28721   3.919   3.319   9.386  0.0893  0.6461  0.2817
 5666SOL    HW128722   3.845   3.363   9.344 -1.1227 -0.3046  1.3569
 5666SOL    HW228723   3.959   3.386   9.442 -0.3541  0.9678  0.2152
 5667SOL     OW28724   0.559   5.357  11.382  0.3030  0.3002 -0.4895
 5667SOL    HW128725   0.574   5.451  11.382 -0.9762  0.5212 -0.2640
 5667SOL    HW228726   0.604   5.325  11.303  1.2607  1.0028 -0.2343
 5668SOL     OW28727  10.985   0.673   1.219  0.4064 -0.1489 -0.0501
 5668SOL    HW128728  10.913   0.689   1.158  1.0817 -0.8349 -1.0583
 5668SOL    HW228729  10.962   0.592   1.263  0.7006 -0.5429 -0.6072
 5669SOL     OW28730   2.366   4.099  10.211 -0.2029 -0.3418 -0.5292
 5669SOL    HW128731   2.455   4.094  10.176 -0.1955 -0.1424 -0.5450
 5669SOL    HW228732   2.342   4.191  10.200 -0.7454 -0.5695 -1.3542
 5670SOL     OW28733   4.073  10.648   8.464 -0.1445  0.0562  0.1254
 5670SOL    HW128734   4.129  10.627   8.539 -1.9987  0.1727  1.6195
 5670SOL    HW228735   4.043  10.737   8.481 -2.3816 -0.6834  0.5199
 5671SOL     OW28736   7.614   6.602  11.322 -0.1958 -0.2696  0.5417
 5671SOL    HW128737   7.599   6.577  11.413 -0.1164 -1.2764  0.2929
 5671SOL    HW228738   7.570   6.533  11.271 -1.8600  1.2367 -0.2026
 5672SOL     OW28739   6.613   2.927   4.518 -0.8116 -0.2298 -0.1037
 5672SOL    HW128740   6.691   2.887   4.558 -0.2992  0.5123 -0.3347
 5672SOL    HW228741   6.543   2.863   4.533 -0.7683  0.2440  2.4593
 5673SOL     OW28742   0.735   3.089   7.351 -0.0392  0.2129  0.1924
 5673SOL    HW128743   0.690   3.015   7.309 -0.2218  1.4723 -1.9605
 5673SOL    HW228744   0.735   3.067   7.444  0.2060 -2.6547 -0.3835
 5674SOL     OW28745   3.907   4.226   2.620  0.5349 -0.0595  0.1181
 5674SOL    HW128746   3.873   4.279   2.691 -1.0847  0.5217 -1.0333
 5674SOL    HW228747   3.969   4.167   2.662 -0.2874  0.3329  1.9917
 5675SOL     OW28748   2.711   2.680   8.495  0.4444  0.4781 -0.3351
 5675SOL    HW128749   2.655   2.682   8.572 -0.2443  1.5446 -0.8475
 5675SOL    HW228750   2.727   2.772   8.474  0.7935  0.1992 -1.3523
 5676SOL     OW28751   3.893   5.841  10.288  0.1385 -0.0388 -0.4310
 5676SOL    HW128752   3.937   5.907  10.234  2.0149  0.2954  1.4176
 5676SOL    HW228753   3.910   5.759  10.242  4.2611 -0.1835  0.9305
 5677SOL     OW28754  10.789   1.188   4.031 -0.0804  0.3929 -0.1608
 5677SOL    HW128755  10.750   1.197   4.118  0.2256 -3.2248  0.4903
 5677SOL    HW228756  10.714   1.176   3.972 -0.2018 -0.4553  0.1509
 5678SOL     OW28757  11.266  11.311   7.758  0.6649  0.4316 -0.3681
 5678SOL    HW128758  11.193  11.333   7.700 -2.4357  1.4107  3.4684
 5678SOL    HW228759  11.295  11.396   7.792  0.4907 -0.2173  1.4871
 5679SOL     OW28760   5.201   2.228   5.522 -1.4394 -0.5223  0.6790
 5679SOL    HW128761   5.194   2.249   5.429 -2.5240  1.1493  1.0851
 5679SOL    HW228762   5.159   2.142   5.530  0.1883 -1.4911 -0.5891
 5680SOL     OW28763   6.044   6.599  11.544  0.0164 -0.1828  0.1930
 5680SOL    HW128764   6.129   6.610  11.502 -0.6066  3.2906 -0.4885
 5680SOL    HW228765   6.055   6.637  11.631 -0.5229 -0.8367  0.5511
 5681SOL     OW28766   4.460  10.597   0.016  0.1382 -0.6147  0.0108
 5681SOL    HW128767   4.473  10.597   0.111 -0.9117 -2.6886  0.2104
 5681SOL    HW228768   4.424  10.684  -0.003  1.2842  0.1958  1.3418
 5682SOL     OW28769  10.339   7.185   9.021 -0.6845  0.3016 -0.1425
 5682SOL    HW128770  10.328   7.267   8.973  1.1814  0.6957  0.0383
 5682SOL    HW228771  10.361   7.212   9.110 -1.2436 -0.4120  0.2167
 5683SOL     OW28772  11.934   1.706   4.693  0.6212  0.2147  0.6382
 5683SOL    HW128773  11.949   1.614   4.674  1.5013  0.2313  1.1893
 5683SOL    HW228774  11.840   1.713   4.710  0.3222 -0.3293 -0.6975
 5684SOL     OW28775   5.603   0.810   3.248  0.0083 -0.4443 -0.0203
 5684SOL    HW128776   5.682   0.775   3.291  1.5318  0.5379 -1.8446
 5684SOL    HW228777   5.573   0.879   3.307 -1.0424 -2.4166  1.9250
 5685SOL     OW28778   3.702   6.849   2.336  0.3481 -0.6332 -0.3560
 5685SOL    HW128779   3.724   6.832   2.244  0.5151 -2.0023 -0.0824
 5685SOL    HW228780   3.606   6.842   2.339  0.2900  0.0335 -0.5367
 5686SOL     OW28781   8.201   7.528  11.448 -0.4524 -0.0358 -0.2569
 5686SOL    HW128782   8.151   7.581  11.510 -0.8235 -1.6032  0.8272
 5686SOL    HW228783   8.194   7.438  11.480  1.6183 -0.5588 -1.0445
 5687SOL     OW28784   6.124   7.597   1.858  0.4289 -0.3218  0.0806
 5687SOL    HW128785   6.174   7.552   1.926 -1.2019 -1.2968  0.7139
 5687SOL    HW228786   6.086   7.673   1.903  1.5547  0.6023 -0.4785
 5688SOL     OW28787  10.339   1.148  11.012  0.4918  0.3635  0.8577
 5688SOL    HW128788  10.364   1.089  10.941 -0.1573 -2.6121  2.9188
 5688SOL    HW228789  10.397   1.223  11.002  1.5364 -0.6717 -1.7971
 5689SOL     OW28790   8.042   8.365   8.963 -0.0204  0.0691 -0.0952
 5689SOL    HW128791   8.118   8.371   9.021 -0.1295 -0.2613  0.0907
 5689SOL    HW228792   7.966   8.376   9.021 -0.2588 -2.8915  0.3367
 5690SOL     OW28793  10.554   0.526   3.707 -0.0832  0.2196  0.8613
 5690SOL    HW128794  10.532   0.596   3.768 -0.2259  0.6489  0.3214
 5690SOL    HW228795  10.607   0.567   3.640  1.2983 -0.5511  1.4449
 5691SOL     OW28796   5.274   1.929   0.274 -0.0836 -0.1007 -0.0056
 5691SOL    HW128797   5.275   1.945   0.179 -1.1021  1.6817  0.2368
 5691SOL    HW228798   5.303   2.011   0.312  0.2410 -0.7782  1.2543
 5692SOL     OW28799   6.571   1.363   2.295 -0.7641 -0.4437  0.2152
 5692SOL    HW128800   6.647   1.335   2.345 -0.4649 -2.1779 -1.1144
 5692SOL    HW228801   6.506   1.295   2.311 -1.2826 -0.0931 -0.3684
 5693SOL     OW28802   0.220  10.270   7.795 -0.0053 -0.7231  0.1972
 5693SOL    HW128803   0.291  10.253   7.856 -1.5694  0.1257  2.3864
 5693SOL    HW228804   0.143  10.281   7.851 -1.3087  1.3231 -1.8446
 5694SOL     OW28805   2.112   7.330   4.199 -0.0869  0.5488  0.1792
 5694SOL    HW128806   2.050   7.265   4.231 -0.6196  0.5696 -0.7750
 5694SOL    HW228807   2.194   7.311   4.246 -0.6210  0.0906  0.9378
 5695SOL     OW28808   3.581   0.996   2.396 -0.1212  0.1886  0.1794
 5695SOL    HW128809   3.623   1.021   2.313 -0.9149  0.5900 -0.1113
 5695SOL    HW228810   3.508   1.056   2.405 -0.2206 -0.0476  1.0357
 5696SOL     OW28811   4.370   8.312  10.620  0.5002 -0.7093 -0.4230
 5696SOL    HW128812   4.344   8.223  10.597 -0.9628 -0.5446  0.5001
 5696SOL    HW228813   4.304   8.342  10.682  1.0034  1.0019 -0.6449
 5697SOL     OW28814   7.255  11.086   6.207 -0.2875  0.2008 -0.1035
 5697SOL    HW128815   7.161  11.103   6.207 -0.4969 -0.7209 -2.3465
 5697SOL    HW228816   7.264  10.999   6.247 -0.4613 -0.0309 -0.5668
 5698SOL     OW28817   9.215   0.462   8.035  0.1887  0.6078  0.1368
 5698SOL    HW128818   9.223   0.375   8.075 -0.3299 -0.0430 -1.1345
 5698SOL    HW228819   9.243   0.523   8.105 -0.4629 -0.4919  1.4016
 5699SOL     OW28820   9.487   1.675   7.937 -0.0342  0.0001  0.3183
 5699SOL    HW128821   9.558   1.695   7.876  0.8117 -1.3921  0.8007
 5699SOL    HW228822   9.521   1.700   8.023 -0.6720  0.6001  0.4119
 5700SOL     OW28823   5.596   1.830   2.303  0.4415 -0.2057  0.1980
 5700SOL    HW128824   5.653   1.885   2.356 -1.7549  0.1303  2.3582
 5700SOL    HW228825   5.517   1.817   2.356 -0.1578 -3.4733 -1.1994
 5701SOL     OW28826   0.962   4.041  10.660 -0.4618 -0.4043  0.3716
 5701SOL    HW128827   1.000   4.059  10.574  0.1528 -0.1301  0.6947
 5701SOL    HW228828   0.883   3.990  10.641 -1.1168  0.8675 -0.4407
 5702SOL     OW28829  11.561   9.956   9.787  0.1420 -0.3109  0.2186
 5702SOL    HW128830  11.493   9.906   9.742 -0.1318  1.3879 -1.3935
 5702SOL    HW228831  11.552   9.931   9.879 -2.4879 -0.3533  0.0293
 5703SOL     OW28832   4.144   2.563   8.408  0.4087  0.4207 -0.7262
 5703SOL    HW128833   4.237   2.544   8.391  0.3969  0.9336 -1.4455
 5703SOL    HW228834   4.097   2.515   8.340  0.1036 -0.2510 -0.0482
 5704SOL     OW28835   1.961   6.989   6.072 -0.7175 -0.1548  0.3731
 5704SOL    HW128836   2.027   7.034   6.123 -0.8774  0.1974  0.2734
 5704SOL    HW228837   1.989   7.000   5.981 -0.6362 -0.4525  0.3603
 5705SOL     OW28838   9.845   0.747   1.613 -0.5324  0.0538  0.2309
 5705SOL    HW128839   9.800   0.774   1.533 -2.1731  0.7146  1.3218
 5705SOL    HW228840   9.924   0.800   1.616 -1.8783  2.1280  0.4644
 5706SOL     OW28841   4.455  11.305   5.591  0.5038  0.0512 -0.6703
 5706SOL    HW128842   4.485  11.374   5.650  1.6499 -1.0965  0.1323
 5706SOL    HW228843   4.404  11.351   5.524 -0.3170  1.4531  0.8599
 5707SOL     OW28844  10.148   5.938   7.400  0.7211 -0.1676 -0.0741
 5707SOL    HW128845  10.131   5.951   7.493  1.0628 -0.5829  0.0482
 5707SOL    HW228846  10.112   5.851   7.380  0.1313  0.1528 -0.4650
 5708SOL     OW28847   2.386   2.073   5.250 -0.1087  0.4105 -0.3769
 5708SOL    HW128848   2.471   2.039   5.278 -0.0369  1.7016  1.1551
 5708SOL    HW228849   2.325   2.001   5.267  0.6685 -0.5876 -1.6471
 5709SOL     OW28850   9.269   6.216   9.793  0.1335  1.0341 -0.1925
 5709SOL    HW128851   9.191   6.197   9.742  1.7703 -0.3461 -2.3806
 5709SOL    HW228852   9.310   6.290   9.749 -0.4778  2.5392  1.6450
 5710SOL     OW28853   6.980   4.001   7.476 -0.3129  0.0983 -0.2120
 5710SOL    HW128854   7.024   3.933   7.426 -2.1767 -0.9772 -0.4920
 5710SOL    HW228855   6.893   3.965   7.493 -1.1437  2.1693  0.1879
 5711SOL     OW28856   1.146   2.791   9.076  0.0483  0.2422 -0.1325
 5711SOL    HW128857   1.155   2.886   9.082 -0.0807  0.1958  1.0172
 5711SOL    HW228858   1.199   2.757   9.148  0.1934 -0.5652 -0.6099
 5712SOL     OW28859   3.934  10.686   5.099 -0.3298 -0.2714 -0.0987
 5712SOL    HW128860   3.983  10.694   5.017  0.6609 -0.3849  0.4709
 5712SOL    HW228861   3.968  10.755   5.154  2.7769 -3.2147  2.0711
 5713SOL     OW28862   4.026   5.798   3.560  0.2932  0.1428 -0.0483
 5713SOL    HW128863   4.073   5.879   3.580 -2.1458  2.0250 -1.3858
 5713SOL    HW228864   4.082   5.753   3.498  1.3711  1.1870  0.1257
 5714SOL     OW28865   2.392   1.401   7.266  0.2443 -0.2507 -0.0998
 5714SOL    HW128866   2.322   1.422   7.328 -0.4115  1.4748 -1.3334
 5714SOL    HW228867   2.346   1.361   7.192  0.8319 -0.9311 -0.1029
 5715SOL     OW28868   9.534   4.190   6.054 -0.0640  0.5847  0.5645
 5715SOL    HW128869   9.538   4.095   6.041 -1.5829  0.8139 -2.4558
 5715SOL    HW228870   9.626   4.217   6.063  0.5795 -0.9390 -0.8940
 5716SOL     OW28871   6.198   1.209   3.784 -0.7234  0.4515  0.5813
 5716SOL    HW128872   6.240   1.143   3.839 -0.9718 -2.0871 -2.0327
 5716SOL    HW228873   6.269   1.270   3.762  0.0750 -0.2071  1.2658
 5717SOL     OW28874   5.707  11.050   3.109  0.5569  0.1826 -0.3730
 5717SOL    HW128875   5.794  11.015   3.089 -0.2112 -0.7522 -2.4057
 5717SOL    HW228876   5.653  10.972   3.124  0.2487  0.7770  1.9443
 5718SOL     OW28877   1.496   0.959   8.083  0.3064  0.6385  0.1124
 5718SOL    HW128878   1.424   0.897   8.095  0.0929  0.9129  0.2861
 5718SOL    HW228879   1.453   1.040   8.054  0.6137  0.6097 -0.4385
 5719SOL     OW28880   1.022   0.702  10.173  0.1972 -0.3838 -0.2621
 5719SOL    HW128881   1.049   0.760  10.245 -1.8866  0.7933 -0.3315
 5719SOL    HW228882   1.087   0.633  10.172  2.0703  1.2647  0.6946
 5720SOL     OW28883   8.398   9.589  10.878 -0.0621 -0.3286 -0.1350
 5720SOL    HW128884   8.484   9.580  10.836 -0.0647  1.1833 -0.5022
 5720SOL    HW228885   8.344   9.521  10.837  0.9284 -1.2823  0.0806
 5721SOL     OW28886   3.437   0.134   2.543 -0.4577 -0.0849  0.0165
 5721SOL    HW128887   3.473   0.170   2.624  0.6149 -0.6167 -0.2062
 5721SOL    HW228888   3.514   0.110   2.491 -1.1340 -0.3127 -0.9050
 5722SOL     OW28889   5.502   2.674   7.300 -0.3397  0.0514 -0.1975
 5722SOL    HW128890   5.582   2.625   7.280  0.7038  0.6582  2.0770
 5722SOL    HW228891   5.431   2.616   7.276  0.8359 -1.9254  0.8954
 5723SOL     OW28892   6.345   2.727  10.097  0.3244  0.0426  0.3393
 5723SOL    HW128893   6.362   2.814  10.134  0.6303 -0.6983  2.0669
 5723SOL    HW228894   6.280   2.742  10.028  3.0693  2.1014 -2.0164
 5724SOL     OW28895   0.460   9.535   5.108  0.2817  0.3168 -0.1380
 5724SOL    HW128896   0.380   9.558   5.156 -0.5222  0.8821 -1.6870
 5724SOL    HW228897   0.485   9.449   5.143 -0.7166  0.3585  0.7271
 5725SOL     OW28898   4.504   9.896   1.662 -0.3741 -0.6240  0.3818
 5725SOL    HW128899   4.558   9.849   1.725  0.2778 -0.2559  0.1057
 5725SOL    HW228900   4.423   9.917   1.710  0.0686 -0.4407  1.0655
 5726SOL     OW28901   8.722   6.223   0.683  0.1625  0.5364 -0.1721
 5726SOL    HW128902   8.742   6.134   0.653  1.4762  0.3020  1.3000
 5726SOL    HW228903   8.731   6.219   0.778 -0.5055  2.0789 -0.0210
 5727SOL     OW28904   4.382   8.557   5.511 -0.0483 -0.6145  0.3272
 5727SOL    HW128905   4.348   8.471   5.537 -2.5032  0.3902  0.7306
 5727SOL    HW228906   4.379   8.609   5.591 -4.2552  1.4690 -0.8872
 5728SOL     OW28907  11.495   1.610   1.360  0.0421  0.2836  0.0899
 5728SOL    HW128908  11.444   1.684   1.394 -0.0877 -0.3688  1.3567
 5728SOL    HW228909  11.435   1.535   1.367  0.7899 -0.2807  0.5433
 5729SOL     OW28910   0.502   2.600  10.172 -0.2207  0.0515  0.4292
 5729SOL    HW128911   0.564   2.666  10.202 -1.0059  1.0074 -0.0100
 5729SOL    HW228912   0.487   2.621  10.080  1.9795 -2.6983 -0.7136
 5730SOL     OW28913   5.881  10.864   4.643  0.2079 -0.6203 -0.0866
 5730SOL    HW128914   5.899  10.946   4.688 -0.5633 -1.4338  1.8006
 5730SOL    HW228915   5.957  10.809   4.661  0.6928 -0.3903 -1.2905
 5731SOL     OW28916   5.465  10.307   1.562  0.3295 -0.3245  0.3534
 5731SOL    HW128917   5.420  10.245   1.505 -0.3290  0.3790  0.0940
 5731SOL    HW228918   5.497  10.255   1.635 -1.7375 -0.7014  1.0423
 5732SOL     OW28919   4.905   4.680   8.387 -0.2136  0.0296 -0.1804
 5732SOL    HW128920   4.987   4.631   8.394  0.6915  1.0148 -2.6191
 5732SOL    HW228921   4.867   4.651   8.304 -2.3493 -0.3449  0.8644
 5733SOL     OW28922   7.832   1.174   3.325 -0.2658 -0.7000 -0.4281
 5733SOL    HW128923   7.771   1.219   3.383  0.4778 -0.6618  0.3541
 5733SOL    HW228924   7.804   1.083   3.326 -0.6253 -0.5928 -0.4985
 5734SOL     OW28925   6.999   1.086   2.447 -0.4262  0.3532  0.8145
 5734SOL    HW128926   7.020   1.003   2.490  1.6806  1.5163  2.2402
 5734SOL    HW228927   6.998   1.065   2.354 -2.5234 -1.7311  1.2046
 5735SOL     OW28928  10.857  11.177   7.217 -0.1663  0.0301 -0.4176
 5735SOL    HW128929  10.806  11.116   7.271 -1.6385  0.6003 -1.0931
 5735SOL    HW228930  10.903  11.232   7.281 -2.6906  1.3851  0.3880
 5736SOL     OW28931   3.019  11.354   0.063  0.2664  0.7898 -0.6354
 5736SOL    HW128932   2.985  11.286   0.121  2.9148  1.2664  1.7441
 5736SOL    HW228933   3.051  11.422   0.123  1.3181  2.2896 -2.7752
 5737SOL     OW28934   7.881   0.470   0.777 -0.3695  0.0007  0.2551
 5737SOL    HW128935   7.838   0.390   0.746 -0.2359 -1.1294  2.7548
 5737SOL    HW228936   7.812   0.537   0.772 -1.2312 -0.8416  0.4102
 5738SOL     OW28937   2.190   1.220  11.252 -0.6910 -0.3337 -1.2922
 5738SOL    HW128938   2.168   1.243  11.162  0.1945  2.1231 -0.9615
 5738SOL    HW228939   2.179   1.301  11.301  0.8017 -1.0951  0.4453
 5739SOL     OW28940   5.948   6.564   5.384  0.0772 -0.7374 -0.2734
 5739SOL    HW128941   6.010   6.500   5.420 -0.0080 -0.3889  0.5034
 5739SOL    HW228942   5.901   6.516   5.316  1.5651 -0.8698 -1.2717
 5740SOL     OW28943  10.424   0.290   8.943 -0.1055 -0.0949  0.2321
 5740SOL    HW128944  10.464   0.325   9.022  0.1612  0.0715  0.0241
 5740SOL    HW228945  10.361   0.356   8.916  0.6349  0.3873 -0.3490
 5741SOL     OW28946   4.338   2.033   9.559  0.1938 -0.5201  0.8822
 5741SOL    HW128947   4.278   2.010   9.629 -0.9508 -1.2869 -0.3105
 5741SOL    HW228948   4.342   1.956   9.503  0.0407  0.4948 -0.6054
 5742SOL     OW28949   4.194   0.470   5.769  0.1760  0.1759  0.2465
 5742SOL    HW128950   4.173   0.479   5.861  1.3260  0.2145  0.5273
 5742SOL    HW228951   4.146   0.540   5.725 -1.9978 -1.0795  0.5207
 5743SOL     OW28952   2.825   5.982   4.832 -0.2230 -0.1107  0.0935
 5743SOL    HW128953   2.776   6.043   4.777 -1.3567 -1.4746 -0.4825
 5743SOL    HW228954   2.865   6.036   4.899 -2.0865  1.1334  0.2649
 5744SOL     OW28955   3.857   3.808   0.132 -0.3877 -0.1470  0.4664
 5744SOL    HW128956   3.902   3.890   0.154 -0.7775  0.0792  0.4387
 5744SOL    HW228957   3.796   3.794   0.204  0.0308 -0.6843  0.7211
 5745SOL     OW28958   7.600   9.695   9.126 -0.4140 -0.2032 -0.3428
 5745SOL    HW128959   7.682   9.696   9.175  0.8796  1.7703 -2.3670
 5745SOL    HW228960   7.533   9.721   9.191  0.8873  0.3051  0.8468
 5746SOL     OW28961   6.349  10.923   7.126  0.0748 -0.7505  0.3018
 5746SOL    HW128962   6.410  10.954   7.058  1.2651 -0.0476  1.6214
 5746SOL    HW228963   6.277  10.883   7.077  0.9618 -0.4319 -1.3628
 5747SOL     OW28964   5.957  11.757  10.365  0.6705  0.5909  0.1329
 5747SOL    HW128965   6.007  11.687  10.322  2.4175  3.0791 -2.2062
 5747SOL    HW228966   6.020  11.799  10.423 -0.5766 -0.1286  2.1259
 5748SOL     OW28967  10.990   9.331   5.993  0.0022  0.2993 -0.1258
 5748SOL    HW128968  10.990   9.400   6.059 -0.0942  0.2882 -0.1130
 5748SOL    HW228969  10.900   9.331   5.958 -0.5967 -1.1506  1.2838
 5749SOL     OW28970   3.187   1.497   7.519  0.0151 -0.1444 -0.0557
 5749SOL    HW128971   3.093   1.503   7.506 -0.3020  0.6545  2.1444
 5749SOL    HW228972   3.200   1.521   7.611  2.3530 -0.3754 -0.2644
 5750SOL     OW28973   0.896   8.564   5.975  0.3697  0.4115  0.0583
 5750SOL    HW128974   0.903   8.654   6.008 -0.5972  0.8029 -0.7655
 5750SOL    HW228975   0.820   8.528   6.021 -0.0687  0.4666 -0.6166
 5751SOL     OW28976   1.671   6.327   4.119 -0.6036  0.8052 -0.1660
 5751SOL    HW128977   1.657   6.235   4.099 -0.2259  0.7759 -0.2926
 5751SOL    HW228978   1.609   6.346   4.190 -1.2666  0.6680 -0.6973
 5752SOL     OW28979   1.237   0.446   8.368  0.2909  0.0741 -0.1863
 5752SOL    HW128980   1.290   0.413   8.295  0.9197  1.2197 -0.2606
 5752SOL    HW228981   1.280   0.411   8.446  0.2331 -0.2812 -0.3114
 5753SOL     OW28982   7.347   1.013   8.905  0.1577 -0.3725  0.6663
 5753SOL    HW128983   7.261   0.977   8.881  0.8053 -1.0368 -0.7528
 5753SOL    HW228984   7.410   0.954   8.864  1.2906  0.6596  0.8675
 5754SOL     OW28985   1.235   4.687   9.623  0.0241 -0.8307 -0.5171
 5754SOL    HW128986   1.318   4.718   9.587  0.5087 -0.7359  0.6359
 5754SOL    HW228987   1.178   4.676   9.547  0.4013  1.1796 -1.1315
 5755SOL     OW28988   9.686   5.498   8.006  0.1138 -0.0308  0.0135
 5755SOL    HW128989   9.667   5.549   8.085 -2.1276 -0.6172 -0.0739
 5755SOL    HW228990   9.760   5.443   8.030 -0.8946 -0.6452  1.9490
 5756SOL     OW28991   1.641   3.787   6.864 -0.4754  0.3986  0.8845
 5756SOL    HW128992   1.702   3.845   6.911  1.9745 -1.6760  0.4620
 5756SOL    HW228993   1.608   3.840   6.792  0.2735  1.8327  1.5545
 5757SOL     OW28994   6.952   3.261   1.925  0.2724  0.2555 -0.1147
 5757SOL    HW128995   6.944   3.186   1.866  0.3098 -0.3456  0.6415
 5757SOL    HW228996   7.045   3.262   1.950  0.4215  0.9691 -0.6550
 5758SOL     OW28997   2.380  11.927   4.480  0.1201 -0.0563  0.4729
 5758SOL    HW128998   2.357  11.837   4.458  0.5050 -0.4198  1.5193
 5758SOL    HW228999   2.430  11.958   4.404 -0.1854 -0.6503  0.0225
 5759SOL     OW29000   1.301   1.339   0.015  0.3282  0.2694  0.6060
 5759SOL    HW129001   1.256   1.264   0.051  0.9866 -0.6421 -0.3887
 5759SOL    HW229002   1.352   1.375   0.088  0.1279 -0.3372  1.0448
 5760SOL     OW29003   4.744   6.040  11.160  0.1987 -0.7322  0.5329
 5760SOL    HW129004   4.735   6.070  11.250 -2.0878  0.0287  0.1256
 5760SOL    HW229005   4.831   6.067  11.133 -0.6447  3.0945  1.1238
 5761SOL     OW29006   8.887   2.954   3.692  0.5156 -0.0224 -0.4629
 5761SOL    HW129007   8.904   3.048   3.683  0.5717 -0.1990 -2.4898
 5761SOL    HW229008   8.970   2.912   3.671  0.2704 -0.5633 -0.3775
 5762SOL     OW29009   1.395   3.353  11.375 -0.2196  0.0680  0.0296
 5762SOL    HW129010   1.458   3.349  11.447 -2.5356  0.3340  2.2134
 5762SOL    HW229011   1.328   3.289  11.399 -0.2733 -1.0683 -2.7967
 5763SOL     OW29012   0.307   1.731   8.688  0.0085  0.3454  0.1948
 5763SOL    HW129013   0.349   1.660   8.736 -1.3208 -0.4368  0.2416
 5763SOL    HW229014   0.229   1.752   8.739 -0.9735  0.0789 -1.1268
 5764SOL     OW29015  11.438   0.816   7.940 -0.1615  0.2757 -0.2375
 5764SOL    HW129016  11.382   0.747   7.906  0.3492  0.3255 -1.2137
 5764SOL    HW229017  11.413   0.824   8.032 -0.2895 -1.1531 -0.1163
 5765SOL     OW29018   3.541   4.995   8.989 -0.2457 -0.0425  0.0099
 5765SOL    HW129019   3.626   5.022   8.954  0.8848  1.1056  3.2580
 5765SOL    HW229020   3.482   5.067   8.968  0.3264  0.4933  0.2218
 5766SOL     OW29021  10.620   7.451   8.525 -0.3267  0.8108 -0.8191
 5766SOL    HW129022  10.528   7.472   8.506 -0.9987 -1.5668 -0.5273
 5766SOL    HW229023  10.616   7.402   8.607  1.2888  1.2027 -0.4891
 5767SOL     OW29024  10.499  10.741   8.791  0.0235  0.1558 -0.2192
 5767SOL    HW129025  10.447  10.740   8.711  0.2096  0.3326 -0.3430
 5767SOL    HW229026  10.536  10.830   8.795  1.2622 -0.3255 -0.7409
 5768SOL     OW29027   0.425   8.021   4.306 -0.3867  0.0776 -0.2970
 5768SOL    HW129028   0.401   8.020   4.399 -0.0677  0.0382 -0.2159
 5768SOL    HW229029   0.341   8.019   4.260 -0.5348 -0.6550 -0.0131
 5769SOL     OW29030   2.144   0.447   5.604 -1.1027 -0.1040 -0.4670
 5769SOL    HW129031   2.086   0.392   5.658 -0.7896 -0.3730 -0.3994
 5769SOL    HW229032   2.220   0.391   5.587 -0.0008  0.8736  1.0321
 5770SOL     OW29033  11.366  11.117   5.373 -0.1308  0.7088 -0.2620
 5770SOL    HW129034  11.280  11.156   5.385 -0.6974 -0.6057  0.1913
 5770SOL    HW229035  11.384  11.127   5.280 -1.4217 -0.2010 -0.6513
 5771SOL     OW29036  11.643  11.608   4.623 -0.0215  0.3075 -0.2514
 5771SOL    HW129037  11.672  11.658   4.547 -0.4321 -1.1272 -1.4154
 5771SOL    HW229038  11.721  11.598   4.677  0.2447  1.4649 -0.4038
 5772SOL     OW29039   6.263   8.608   7.693  0.1643 -0.0840 -0.1255
 5772SOL    HW129040   6.309   8.524   7.688 -1.9641 -1.2856 -2.1696
 5772SOL    HW229041   6.332   8.674   7.689  1.7980 -1.7564 -1.2930
 5773SOL     OW29042   3.239  10.585   8.775  0.3653  0.5322  0.3815
 5773SOL    HW129043   3.207  10.604   8.863 -0.3208  2.1593 -0.1659
 5773SOL    HW229044   3.280  10.667   8.746  1.2409 -0.1977 -0.5478
 5774SOL     OW29045   9.175   5.817   6.331 -0.4526  0.7143 -0.2820
 5774SOL    HW129046   9.268   5.799   6.342 -0.2832  1.3442 -0.6243
 5774SOL    HW229047   9.161   5.816   6.236 -1.4889 -2.7226 -0.2268
 5775SOL     OW29048  11.635   6.105   4.185  0.4942  0.4934  0.2274
 5775SOL    HW129049  11.542   6.100   4.207  0.1672 -1.5730 -1.3351
 5775SOL    HW229050  11.679   6.111   4.270 -0.9823 -0.1255  1.0844
 5776SOL     OW29051   6.671   1.808   8.788 -0.4014 -0.1525 -0.1136
 5776SOL    HW129052   6.609   1.870   8.828 -0.9957 -1.2776  0.7767
 5776SOL    HW229053   6.691   1.746   8.858 -0.4919 -1.4703 -1.2164
 5777SOL     OW29054  11.733   3.403   8.276  0.1365  0.0739 -0.2135
 5777SOL    HW129055  11.719   3.496   8.259 -1.5651 -0.0919  0.0708
 5777SOL    HW229056  11.756   3.399   8.369  1.2468  0.2794 -0.4659
 5778SOL     OW29057  11.622   9.537  10.793 -0.2363  1.0214 -0.3463
 5778SOL    HW129058  11.690   9.489  10.746 -1.7066 -0.5582 -0.9881
 5778SOL    HW229059  11.667   9.611  10.832  1.8095  0.1166 -0.8579
 5779SOL     OW29060   9.651   1.630   4.483 -0.0581  0.5599  0.0338
 5779SOL    HW129061   9.614   1.715   4.506 -1.0989  0.0943  0.1599
 5779SOL    HW229062   9.746   1.642   4.491 -0.2244  1.4818  0.8228
 5780SOL     OW29063   5.395   7.536   3.194 -0.0821 -0.1886 -0.2045
 5780SOL    HW129064   5.420   7.545   3.286 -0.9356 -0.2882  0.0472
 5780SOL    HW229065   5.427   7.450   3.169 -0.3212 -0.3882  0.1620
 5781SOL     OW29066   7.126   7.042   8.280 -0.2531  0.5247 -0.0199
 5781SOL    HW129067   7.068   6.984   8.329 -1.3568  0.8809 -0.8572
 5781SOL    HW229068   7.210   7.037   8.326 -0.3815 -1.5223  0.0563
 5782SOL     OW29069   7.911   1.961  11.470 -0.7093 -0.4763  0.1921
 5782SOL    HW129070   7.829   2.000  11.500  0.4327  1.5201  0.9291
 5782SOL    HW229071   7.956   1.933  11.550  0.1836  0.3257  0.0006
 5783SOL     OW29072   5.588   5.847   3.627 -0.2267 -0.0271  0.3042
 5783SOL    HW129073   5.526   5.784   3.592 -2.4299  0.7648  2.4497
 5783SOL    HW229074   5.624   5.805   3.705  0.0331  0.4803  0.4642
 5784SOL     OW29075   9.379  10.574   9.942  0.0470 -0.3214  0.4460
 5784SOL    HW129076   9.423  10.657   9.958 -0.4903  0.3288 -1.2555
 5784SOL    HW229077   9.450  10.510   9.940  0.7064  0.4122 -0.2531
 5785SOL     OW29078   4.829   8.012   7.200 -0.1597  0.0751  0.4595
 5785SOL    HW129079   4.807   7.986   7.289 -0.8410 -0.9631  0.0029
 5785SOL    HW229080   4.803   8.104   7.195  1.2466  0.5740  1.7595
 5786SOL     OW29081  10.898   1.787   2.726 -0.3811 -0.1213 -0.4014
 5786SOL    HW129082  10.909   1.869   2.679 -0.3226 -0.5464 -1.1352
 5786SOL    HW229083  10.983   1.744   2.720  0.0028  0.3453  1.1348
 5787SOL     OW29084   3.719   4.277   7.998  0.0752 -0.2439  0.1375
 5787SOL    HW129085   3.741   4.339   8.068 -0.1381 -1.7722  1.6214
 5787SOL    HW229086   3.629   4.298   7.975 -0.0365 -0.0681  0.7074
 5788SOL     OW29087   8.901   7.822   1.210  0.0709 -0.2757 -0.0262
 5788SOL    HW129088   8.943   7.844   1.127 -0.3554  0.4599 -0.0559
 5788SOL    HW229089   8.899   7.904   1.259 -0.3495 -0.5398  0.4151
 5789SOL     OW29090   3.872   0.257   2.343  0.2627  0.2750  0.3180
 5789SOL    HW129091   3.957   0.226   2.312  0.5162  1.8638 -0.7049
 5789SOL    HW229092   3.892   0.305   2.423  0.0411 -0.9844  1.1616
 5790SOL     OW29093   7.444   8.503   4.061  0.2637  0.7294 -0.4705
 5790SOL    HW129094   7.389   8.506   3.982 -0.2392  2.3797 -0.1027
 5790SOL    HW229095   7.461   8.410   4.074 -2.2847  0.1331 -0.7250
 5791SOL     OW29096  11.947  10.818   7.437 -0.6255  0.0132 -0.0379
 5791SOL    HW129097  11.859  10.782   7.434 -0.4026 -0.8751  2.2114
 5791SOL    HW229098  12.000  10.750   7.477  1.1525  0.4809 -1.4518
 5792SOL     OW29099   8.689   8.404   6.031  0.0718  0.2437  0.2273
 5792SOL    HW129100   8.768   8.349   6.031  0.4332  0.7490  0.4861
 5792SOL    HW229101   8.723   8.494   6.029 -0.4600  0.4957  1.5612
 5793SOL     OW29102   9.616   3.863   0.199  0.1227 -0.5010  0.0133
 5793SOL    HW129103   9.711   3.859   0.203  0.2213 -0.9469 -1.9931
 5793SOL    HW229104   9.594   3.832   0.112 -1.6784  2.6773 -0.8001
 5794SOL     OW29105   5.694   6.719   1.483  0.0372 -0.1330 -0.2654
 5794SOL    HW129106   5.610   6.765   1.479  0.2905  0.3377 -0.2366
 5794SOL    HW229107   5.677   6.636   1.438 -0.0632  0.5725 -1.5780
 5795SOL     OW29108   3.608  11.003  11.328 -0.3483 -0.0929  0.5046
 5795SOL    HW129109   3.564  10.970  11.249  1.0905  2.4199 -1.4858
 5795SOL    HW229110   3.586  11.096  11.330  0.2729  0.0482  2.7024
 5796SOL     OW29111   7.375   3.696   2.608  0.2381 -0.3216  0.1787
 5796SOL    HW129112   7.362   3.662   2.697  1.1589  1.9441  1.2566
 5796SOL    HW229113   7.291   3.736   2.586  0.4182  0.3307  0.6296
 5797SOL     OW29114   1.345   7.239   5.670  0.0143  0.6476  0.3591
 5797SOL    HW129115   1.399   7.168   5.635  0.2344  0.8773  0.2283
 5797SOL    HW229116   1.255   7.208   5.660  0.0396  0.9253 -0.9109
 5798SOL     OW29117   1.920   5.187  11.121  0.3890 -0.3588 -0.3321
 5798SOL    HW129118   2.014   5.180  11.103  0.2966  0.5449 -1.2469
 5798SOL    HW229119   1.895   5.272  11.084 -0.4464  0.1931  1.3934
 5799SOL     OW29120   4.588  10.756   6.591 -0.1649 -0.3379 -0.1881
 5799SOL    HW129121   4.662  10.721   6.641  0.3208  0.3791 -0.3989
 5799SOL    HW229122   4.591  10.708   6.508  0.1750 -0.1832 -0.2671
 5800SOL     OW29123   3.866   9.839   2.774  0.0534 -0.4588 -0.0218
 5800SOL    HW129124   3.865   9.924   2.730  0.3295 -1.3650 -1.9145
 5800SOL    HW229125   3.957   9.810   2.767 -0.6908 -2.5447 -2.9298
 5801SOL     OW29126   2.303   8.479   6.195 -0.3819 -0.0486  0.0093
 5801SOL    HW129127   2.379   8.526   6.160 -0.5353 -0.4791 -0.9475
 5801SOL    HW229128   2.244   8.548   6.225 -0.6019  0.4008 -1.3637
 5802SOL     OW29129   9.721   5.006   6.035 -0.0559  0.5305 -0.0194
 5802SOL    HW129130   9.722   5.084   5.980  0.0991  2.0031  1.9353
 5802SOL    HW229131   9.658   4.947   5.994 -0.6560  1.9471 -1.2164
 5803SOL     OW29132  11.789   2.239   2.792 -0.4256 -0.1920  0.1336
 5803SOL    HW129133  11.801   2.309   2.857  0.3832 -0.4443  0.2728
 5803SOL    HW229134  11.745   2.169   2.840  1.0760 -0.7838  0.7289
 5804SOL     OW29135   1.072   0.613  10.692  0.4383  0.2742  0.1427
 5804SOL    HW129136   1.070   0.524  10.727 -2.4701  0.0096 -0.3691
 5804SOL    HW229137   1.014   0.663  10.750 -2.3739  0.4444 -2.4935
 5805SOL     OW29138  11.819   4.627  10.449 -0.2912 -0.6230 -0.1283
 5805SOL    HW129139  11.798   4.615  10.542 -1.8435 -0.4536 -0.4409
 5805SOL    HW229140  11.743   4.672  10.413  0.4035 -0.4702 -1.4493
 5806SOL     OW29141   5.537   7.706   3.870 -0.5339  0.1667  0.0789
 5806SOL    HW129142   5.464   7.733   3.924 -1.6330 -0.9295 -0.7945
 5806SOL    HW229143   5.498   7.653   3.800  1.2046 -1.5745  0.3171
 5807SOL     OW29144   0.582   4.525   7.605  0.0499  0.1050  0.3934
 5807SOL    HW129145   0.554   4.519   7.696 -0.4038  1.3545  0.3488
 5807SOL    HW229146   0.551   4.610   7.575 -0.1036 -0.4203 -1.0345
 5808SOL     OW29147  10.795  10.499  10.360 -0.2366  0.0895 -0.5095
 5808SOL    HW129148  10.847  10.524  10.283  0.1756 -2.7405 -1.2748
 5808SOL    HW229149  10.705  10.500  10.329 -0.1530 -0.1508 -0.7639
 5809SOL     OW29150   0.610   5.204   9.271  0.6423 -0.4751 -0.1478
 5809SOL    HW129151   0.554   5.170   9.201 -3.2265  1.4583  1.6659
 5809SOL    HW229152   0.609   5.137   9.338  1.1264 -0.7244 -0.3836
 5810SOL     OW29153   1.313   9.663   6.664  0.2388 -0.3117  0.2839
 5810SOL    HW129154   1.358   9.583   6.639  1.7444  0.5971 -0.0302
 5810SOL    HW229155   1.330   9.672   6.758 -0.9847 -0.9797  0.5935
 5811SOL     OW29156   9.094   0.954   1.785  0.3320  0.6936 -0.3403
 5811SOL    HW129157   9.028   1.019   1.762  1.0117  0.9540 -1.6749
 5811SOL    HW229158   9.133   0.986   1.866 -2.0040 -0.1255  1.2357
 5812SOL     OW29159  10.572   9.119   1.119 -0.4564 -0.3207  0.5480
 5812SOL    HW129160  10.508   9.150   1.184 -1.0707  1.2582 -0.7564
 5812SOL    HW229161  10.528   9.047   1.074 -0.2298 -1.0661  1.4823
 5813SOL     OW29162   2.856   1.169   5.419 -0.8517 -0.9321 -0.1446
 5813SOL    HW129163   2.923   1.104   5.399 -2.1935 -2.2578 -0.4617
 5813SOL    HW229164   2.809   1.181   5.336  0.5849  1.9697 -0.6700
 5814SOL     OW29165   5.991   8.486   4.552  0.8716 -0.3282  0.3076
 5814SOL    HW129166   6.069   8.464   4.501  0.2587 -2.0119  0.0547
 5814SOL    HW229167   6.004   8.578   4.576  1.9250  0.0580 -1.5197
 5815SOL     OW29168  10.967  11.717  10.127  0.0606  0.1156  0.4330
 5815SOL    HW129169  11.054  11.697  10.094  0.2231 -0.6591  1.2813
 5815SOL    HW229170  10.948  11.805  10.095  1.5763  0.6930  1.0530
 5816SOL     OW29171   3.435  10.026   6.699 -0.5941  0.2771  0.3258
 5816SOL    HW129172   3.475  10.099   6.747  1.6812 -0.6246 -0.0867
 5816SOL    HW229173   3.459  10.042   6.608  0.5403 -1.3121  0.3163
 5817SOL     OW29174   4.749   6.280   7.832  0.2790  0.1680 -0.0758
 5817SOL    HW129175   4.759   6.186   7.818 -0.6392 -0.2662  1.8643
 5817SOL    HW229176   4.738   6.316   7.744  1.1691 -1.4431 -0.9055
 5818SOL     OW29177  10.230   7.090   8.001  0.6041  0.3309 -0.1966
 5818SOL    HW129178  10.296   7.065   7.937 -0.1695 -0.5050 -0.6921
 5818SOL    HW229179  10.147   7.082   7.954  0.1429  1.3656  0.4119
 5819SOL     OW29180   1.244   2.179   4.169 -0.2940  0.2576 -0.0398
 5819SOL    HW129181   1.238   2.116   4.240  1.3792 -0.6724 -0.6710
 5819SOL    HW229182   1.278   2.259   4.211  3.0955 -1.0033 -0.0760
 5820SOL     OW29183   5.914   1.211   7.999  0.1736 -0.0318  0.2247
 5820SOL    HW129184   5.880   1.296   7.969 -0.0204  0.4143  1.6278
 5820SOL    HW229185   6.009   1.224   8.004  0.3272 -0.4386 -1.1222
 5821SOL     OW29186   8.077  11.237   1.343 -0.2962 -0.0399 -0.5411
 5821SOL    HW129187   8.170  11.215   1.354  0.1955  1.0697 -2.0689
 5821SOL    HW229188   8.044  11.170   1.282 -0.6482 -0.7223  0.3754
 5822SOL     OW29189   9.141   6.903  11.744 -0.1865 -0.4358  0.4822
 5822SOL    HW129190   9.177   6.992  11.746 -1.3803  0.0635  1.7724
 5822SOL    HW229191   9.177   6.860  11.821  2.7485 -2.1479 -1.6446
 5823SOL     OW29192   1.741   1.357   9.720  0.3118 -0.3917 -0.4381
 5823SOL    HW129193   1.715   1.316   9.803  1.1622 -2.7414 -1.2332
 5823SOL    HW229194   1.670   1.336   9.660  1.0329 -1.2908 -1.0094
 5824SOL     OW29195   4.132   0.758   1.648  0.0217 -0.0842 -0.6735
 5824SOL    HW129196   4.196   0.815   1.690 -1.9585  0.7455  1.4222
 5824SOL    HW229197   4.137   0.676   1.696 -0.1161 -0.1975 -0.8513
 5825SOL     OW29198   2.518   1.383  11.906 -0.2622 -0.4928 -0.4098
 5825SOL    HW129199   2.492   1.414  11.820  0.5278 -0.6877 -0.7228
 5825SOL    HW229200   2.437   1.350  11.945 -0.9529  1.0762 -0.4257
 5826SOL     OW29201   1.640  10.320   5.169 -0.3307  0.3884 -0.0967
 5826SOL    HW129202   1.638  10.231   5.135 -1.3471 -0.1225  1.2008
 5826SOL    HW229203   1.564  10.363   5.129  2.2408  1.9868 -3.8211
 5827SOL     OW29204   5.997   2.055   0.346  0.0519  0.3181 -0.3391
 5827SOL    HW129205   5.924   2.061   0.284 -0.4607 -1.8456 -0.0432
 5827SOL    HW229206   5.955   2.049   0.432  0.6985  1.5714  0.0883
 5828SOL     OW29207   1.789   8.818   7.493  0.5993  0.4712  0.1759
 5828SOL    HW129208   1.812   8.726   7.505  0.3310  0.5495  1.3914
 5828SOL    HW229209   1.710   8.830   7.545  0.8855  1.5010  0.3952
 5829SOL     OW29210   3.601   8.272   7.879 -0.2262  0.1927 -0.2216
 5829SOL    HW129211   3.654   8.352   7.886  1.4636 -0.9535  1.0155
 5829SOL    HW229212   3.587   8.244   7.970 -0.5202 -1.0507 -0.6247
 5830SOL     OW29213   0.626   8.370   5.815 -0.5589  0.2303  0.3067
 5830SOL    HW129214   0.581   8.389   5.732 -1.0543 -1.1659  0.2245
 5830SOL    HW229215   0.712   8.338   5.789 -0.1919  1.1390  0.3925
 5831SOL     OW29216   6.278   8.548   6.317  0.0846  0.7832  0.0782
 5831SOL    HW129217   6.320   8.633   6.328 -1.1393  1.4356 -0.0309
 5831SOL    HW229218   6.343   8.494   6.271  1.2518  1.3242  1.0435
 5832SOL     OW29219   6.487   2.000   9.673 -0.2622  0.6213  0.1792
 5832SOL    HW129220   6.463   2.019   9.764 -1.3665 -1.3089  0.3176
 5832SOL    HW229221   6.420   2.044   9.621  1.6453  3.7539  0.0851
 5833SOL     OW29222  11.420   0.768   1.307  0.3818  0.2690  0.0105
 5833SOL    HW129223  11.413   0.672   1.315 -1.4576  0.3847  0.3444
 5833SOL    HW229224  11.484   0.793   1.372  1.0563 -0.7572 -0.2279
 5834SOL     OW29225   5.182   7.274  11.461 -0.1014 -0.7283 -0.1333
 5834SOL    HW129226   5.098   7.266  11.506 -0.0659 -1.3492 -0.1647
 5834SOL    HW229227   5.245   7.293  11.530 -0.5226  1.5908 -0.3148
 5835SOL     OW29228   5.083   7.868   4.211 -0.1791  0.7957  0.3859
 5835SOL    HW129229   5.037   7.879   4.128  0.3597 -2.0021 -0.3893
 5835SOL    HW229230   5.146   7.940   4.214  1.3362 -0.2188 -2.7531
 5836SOL     OW29231   9.287  10.696   9.387 -0.0351  0.2450 -0.3820
 5836SOL    HW129232   9.329  10.699   9.473  1.1204  0.0164 -0.9239
 5836SOL    HW229233   9.209  10.751   9.397 -0.1575 -0.1148  0.9245
 5837SOL     OW29234   2.483   7.463   3.064 -0.3386  0.1108 -0.1556
 5837SOL    HW129235   2.533   7.403   3.121  1.0465  0.6332 -0.7701
 5837SOL    HW229236   2.538   7.540   3.057 -1.1872  0.6591 -1.0028
 5838SOL     OW29237  11.501   3.311   1.602 -0.4392  0.0356  0.1310
 5838SOL    HW129238  11.467   3.342   1.518 -0.1487  2.2460  0.7560
 5838SOL    HW229239  11.431   3.257   1.638 -0.6302 -0.8150 -1.4367
 5839SOL     OW29240  10.439   3.485   4.424 -0.0803 -0.0204  0.3463
 5839SOL    HW129241  10.447   3.516   4.515 -2.3398 -0.9590  0.9336
 5839SOL    HW229242  10.523   3.507   4.384  0.8817  0.6877  2.5831
 5840SOL     OW29243   3.466  11.006   3.722 -0.1512  0.4195  0.6267
 5840SOL    HW129244   3.526  10.942   3.759  0.3928 -0.1163 -1.0963
 5840SOL    HW229245   3.523  11.073   3.683 -0.6698  0.3150 -0.3373
 5841SOL     OW29246   6.105   6.014  10.286  0.2916  0.2921  0.0523
 5841SOL    HW129247   6.081   5.955  10.214  0.9870 -2.5773  2.0153
 5841SOL    HW229248   6.198   6.032  10.272  0.4028 -0.1811  0.1722
 5842SOL     OW29249   3.748   4.048  11.415 -0.2406 -0.0352 -0.3419
 5842SOL    HW129250   3.823   4.000  11.451 -1.0873 -1.4560 -0.4073
 5842SOL    HW229251   3.770   4.140  11.428  1.8543 -0.3824 -1.0392
 5843SOL     OW29252   6.850   3.914   7.106 -0.1413  0.0971  0.3126
 5843SOL    HW129253   6.790   3.979   7.141 -1.4439 -0.9308  0.0411
 5843SOL    HW229254   6.795   3.855   7.055  0.2278 -3.5426  3.6565
 5844SOL     OW29255   9.781   6.194   3.296  0.6796 -0.0114  0.3233
 5844SOL    HW129256   9.806   6.276   3.338 -0.4558  0.1057  0.8174
 5844SOL    HW229257   9.713   6.158   3.353  2.4697 -2.2794  1.1799
 5845SOL     OW29258   1.396  11.492   9.802  0.4031 -0.3916  0.1482
 5845SOL    HW129259   1.446  11.443   9.736 -0.5657 -0.3288 -0.6577
 5845SOL    HW229260   1.331  11.540   9.752  0.3366  0.5169  1.0749
 5846SOL     OW29261   2.780   3.057   2.402  0.1240  0.4063  0.1057
 5846SOL    HW129262   2.815   3.115   2.469  0.8724 -1.0205  1.0044
 5846SOL    HW229263   2.851   2.994   2.385 -0.1557  0.5337 -1.7983
 5847SOL     OW29264   1.136   9.771   8.093 -0.0383 -0.0657  0.0576
 5847SOL    HW129265   1.141   9.866   8.107  1.0302  0.2994 -2.2524
 5847SOL    HW229266   1.157   9.733   8.178  1.5924  1.7786  0.5475
 5848SOL     OW29267   0.468   3.860   8.220 -0.3308  0.4684 -0.0631
 5848SOL    HW129268   0.444   3.768   8.233 -0.3794  0.6396  1.1609
 5848SOL    HW229269   0.436   3.880   8.132  0.5390 -0.9510 -0.7377
 5849SOL     OW29270   3.131   3.747   1.004 -0.3720  0.3148  0.4618
 5849SOL    HW129271   3.052   3.767   0.953 -1.3908 -0.4181  1.6865
 5849SOL    HW229272   3.107   3.670   1.056  2.1023 -1.7905 -1.2556
 5850SOL     OW29273  11.752   5.874  11.371 -0.1281  0.1319  0.1957
 5850SOL    HW129274  11.712   5.950  11.413  2.0951  0.7368  1.3857
 5850SOL    HW229275  11.698   5.858  11.293 -2.7026  0.7402  1.7496
 5851SOL     OW29276   6.725   5.937   9.693  0.6055 -0.0434 -0.8931
 5851SOL    HW129277   6.790   5.875   9.658  1.9314  1.5970 -1.4483
 5851SOL    HW229278   6.751   5.951   9.784  0.4640 -0.0741 -0.8467
 5852SOL     OW29279   1.056  11.699  10.666  0.1205  0.5972  0.3392
 5852SOL    HW129280   1.144  11.688  10.704  1.0461  2.7816 -0.9779
 5852SOL    HW229281   1.039  11.793  10.674 -1.1985  0.5201 -1.3188
 5853SOL     OW29282   5.211   7.319  10.792 -0.4080 -0.1655  0.5785
 5853SOL    HW129283   5.282   7.380  10.772 -0.8125  0.0159 -0.3314
 5853SOL    HW229284   5.141   7.374  10.828 -0.5399 -0.1791  0.3429
 5854SOL     OW29285   4.520   1.982   9.307  0.5426 -0.4698 -0.2912
 5854SOL    HW129286   4.602   1.948   9.270  2.2276 -0.7582  3.2815
 5854SOL    HW229287   4.534   2.076   9.313  0.0916 -0.3682 -0.7252
 5855SOL     OW29288   4.302   1.055   7.765  0.1099  0.6694  0.0743
 5855SOL    HW129289   4.263   1.125   7.713 -0.0622  0.6849  0.2239
 5855SOL    HW229290   4.259   0.975   7.733 -2.7754  0.9758  2.6477
 5856SOL     OW29291   9.586  10.385   9.141  0.6632 -0.7395  0.0631
 5856SOL    HW129292   9.615  10.342   9.221  0.5222 -2.4545 -0.7526
 5856SOL    HW229293   9.662  10.436   9.112  1.1039 -1.0433  0.6755
 5857SOL     OW29294   2.268   2.289   5.142 -0.1619 -0.2043 -0.0346
 5857SOL    HW129295   2.326   2.215   5.161  0.5207  0.0920 -0.8407
 5857SOL    HW229296   2.327   2.365   5.142 -0.7402  0.2468  0.1366
 5858SOL     OW29297   2.814   3.975   4.838 -0.2346  0.4552 -0.5507
 5858SOL    HW129298   2.758   4.030   4.893  0.6154  0.0754  0.7486
 5858SOL    HW229299   2.831   4.028   4.760 -0.4922  1.4940  0.0831
 5859SOL     OW29300   5.636   0.674   6.945  0.4156  0.0761  0.2184
 5859SOL    HW129301   5.600   0.682   6.857  1.4992  0.3588 -0.2241
 5859SOL    HW229302   5.637   0.763   6.979 -1.7423 -0.2469  1.2764
 5860SOL     OW29303   6.289   9.416   6.603 -0.6160  0.4851  0.3607
 5860SOL    HW129304   6.369   9.367   6.584 -1.1488 -0.0705 -0.5128
 5860SOL    HW229305   6.243   9.362   6.667 -1.8833 -0.9340 -1.6598
 5861SOL     OW29306  11.766   8.256   6.189  0.4617  0.3223  0.3095
 5861SOL    HW129307  11.746   8.349   6.179  0.9720  0.2007 -2.9837
 5861SOL    HW229308  11.713   8.213   6.122  1.4474 -1.5670  0.6717
 5862SOL     OW29309   0.325   9.901   5.207  0.1050  0.3796 -0.1028
 5862SOL    HW129310   0.386   9.904   5.133 -0.6021  2.0723 -0.6692
 5862SOL    HW229311   0.243   9.936   5.171 -0.3546  0.8802  1.3806
 5863SOL     OW29312   7.852   7.997   0.300 -0.0572  0.3234 -0.3830
 5863SOL    HW129313   7.865   7.934   0.371 -1.0403  0.7678  0.2078
 5863SOL    HW229314   7.925   8.058   0.308  1.1954 -0.9788 -1.2646
 5864SOL     OW29315   4.089   0.383   0.337  0.2622 -0.2906 -0.4813
 5864SOL    HW129316   4.120   0.366   0.426 -0.0337 -2.1587 -0.6964
 5864SOL    HW229317   4.167   0.413   0.290  0.6953 -0.4716  0.1154
 5865SOL     OW29318   3.944   5.127   1.163 -0.2033 -0.4513 -0.0149
 5865SOL    HW129319   3.973   5.108   1.073  0.8343 -0.8764  0.3817
 5865SOL    HW229320   3.870   5.068   1.177 -0.0244 -0.7791 -0.4133
 5866SOL     OW29321   8.892   8.391   0.176  0.6131 -0.0217 -0.4613
 5866SOL    HW129322   8.976   8.437   0.165  0.2824  1.0505  1.2035
 5866SOL    HW229323   8.896   8.354   0.264 -0.1829 -1.0384 -0.8320
 5867SOL     OW29324  11.607   9.816  10.373  0.3018 -0.1997  0.5288
 5867SOL    HW129325  11.602   9.768  10.455  0.8920  0.3924  0.9183
 5867SOL    HW229326  11.696   9.801  10.341 -0.2242 -1.2458 -0.5258
 5868SOL     OW29327   3.036   9.759   3.015  0.0334  0.1515  0.3218
 5868SOL    HW129328   2.975   9.690   2.990 -0.2794  0.4355  0.2881
 5868SOL    HW229329   2.997   9.839   2.979 -0.9904  0.7515  2.5669
 5869SOL     OW29330   7.659  10.744  10.210 -0.5754 -0.0302  0.0394
 5869SOL    HW129331   7.664  10.656  10.173 -1.7561 -0.4238  0.7748
 5869SOL    HW229332   7.633  10.730  10.301 -2.0310  1.1404 -0.1787
 5870SOL     OW29333   2.569  10.798   8.972  0.5119  0.2055  0.4255
 5870SOL    HW129334   2.533  10.714   9.001 -1.2501  0.3944 -1.0181
 5870SOL    HW229335   2.605  10.780   8.885 -1.2328  1.1978 -0.5591
 5871SOL     OW29336  11.760   8.375   7.714  0.1048 -0.1690 -0.5269
 5871SOL    HW129337  11.794   8.336   7.795  0.3283  0.0145 -0.5338
 5871SOL    HW229338  11.787   8.314   7.645 -1.4278 -1.1693 -0.3050
 5872SOL     OW29339   3.564   6.515   7.096 -0.2071  0.8221 -0.1194
 5872SOL    HW129340   3.635   6.485   7.040 -0.2934  1.0308 -0.3427
 5872SOL    HW229341   3.603   6.521   7.184 -0.0011  0.7578 -0.2064
 5873SOL     OW29342   1.253   9.738   5.001 -0.8817  0.1162 -0.3486
 5873SOL    HW129343   1.207   9.656   4.986 -0.6202 -0.0926 -0.0279
 5873SOL    HW229344   1.326   9.715   5.058  0.1019  0.3072 -1.4967
 5874SOL     OW29345   8.443  10.876   1.819 -0.5098  0.2914 -0.5314
 5874SOL    HW129346   8.486  10.866   1.734 -0.5259  0.0360 -0.5099
 5874SOL    HW229347   8.459  10.967   1.843 -1.6931  0.7676 -1.4602
 5875SOL     OW29348   3.420   0.091   7.013 -0.2810 -0.2591 -0.3256
 5875SOL    HW129349   3.491   0.140   7.055 -0.6999  0.6504 -0.6415
 5875SOL    HW229350   3.346   0.152   7.014 -0.9990 -1.1157 -0.1842
 5876SOL     OW29351   7.821   5.165   7.721  0.3245 -0.3681 -0.3567
 5876SOL    HW129352   7.742   5.117   7.748 -0.4114  0.3560 -1.1569
 5876SOL    HW229353   7.794   5.257   7.722  0.7938 -0.1996 -1.7739
 5877SOL     OW29354   5.062   2.971   6.388 -0.1092  0.2834 -0.4593
 5877SOL    HW129355   5.004   2.935   6.455 -0.1768 -0.8501 -1.0886
 5877SOL    HW229356   5.006   2.983   6.312  0.2426  0.2428 -0.7260
 5878SOL     OW29357   3.189   5.800   1.783 -0.1713  0.7673 -0.3847
 5878SOL    HW129358   3.272   5.757   1.763  0.3736  1.1591  0.9212
 5878SOL    HW229359   3.183   5.871   1.721  0.8793  1.2259  0.0108
 5879SOL     OW29360   5.960   5.124   8.454 -0.1145  0.1186 -0.1275
 5879SOL    HW129361   6.000   5.080   8.379 -1.4247  0.4920 -1.0765
 5879SOL    HW229362   5.898   5.186   8.416 -1.1595 -0.0204  1.2645
 5880SOL     OW29363   7.608   8.296  10.139  0.0038 -0.6463  0.1264
 5880SOL    HW129364   7.688   8.245  10.130 -0.0391 -0.4298 -2.3815
 5880SOL    HW229365   7.639   8.386  10.153  0.2878 -0.4693 -1.3830
 5881SOL     OW29366   1.484   0.064   9.137 -0.3361  0.2561 -0.3330
 5881SOL    HW129367   1.565   0.077   9.186  0.5842 -1.1846 -1.3945
 5881SOL    HW229368   1.415   0.070   9.202  0.6200  1.3462  0.6218
 5882SOL     OW29369   9.249   0.077   5.210 -0.3984  0.2419 -0.2386
 5882SOL    HW129370   9.179   0.097   5.147  0.1952 -0.0179 -0.9999
 5882SOL    HW229371   9.322   0.047   5.156  0.4122  0.7947  0.5209
 5883SOL     OW29372   8.400   4.295  11.127 -0.2808 -0.3283 -0.3682
 5883SOL    HW129373   8.322   4.256  11.166  0.0931 -1.2731 -0.5402
 5883SOL    HW229374   8.418   4.373  11.180 -1.4474  0.0078 -0.4547
 5884SOL     OW29375  11.671   2.054   0.822  0.4289  0.5518  0.2590
 5884SOL    HW129376  11.586   2.092   0.847 -0.1379 -0.7911  0.4657
 5884SOL    HW229377  11.650   1.964   0.797  1.8256  0.1584  0.4569
 5885SOL     OW29378   6.112   1.880   2.931 -0.1793 -0.7094 -0.6977
 5885SOL    HW129379   6.147   1.793   2.948 -1.6688 -1.0495  1.0279
 5885SOL    HW229380   6.112   1.888   2.836  1.7244 -1.8233 -0.8280
 5886SOL     OW29381   9.218   3.776   3.852  0.0093 -0.4530 -0.0032
 5886SOL    HW129382   9.226   3.868   3.876 -0.5911 -0.9883  2.6149
 5886SOL    HW229383   9.142   3.745   3.901  0.3534 -2.4005 -0.5987
 5887SOL     OW29384   3.782   6.209   5.623  0.0044  0.0925 -0.2868
 5887SOL    HW129385   3.775   6.221   5.717 -0.5249 -0.1565 -0.2902
 5887SOL    HW229386   3.865   6.251   5.599 -1.0748  2.4943 -0.1122
 5888SOL     OW29387   7.829   3.261   3.854  0.9728 -0.2219  0.1433
 5888SOL    HW129388   7.768   3.224   3.790  0.8907  1.3190 -0.7321
 5888SOL    HW229389   7.905   3.204   3.851  1.0888 -0.0405 -1.5925
 5889SOL     OW29390  11.670   5.934   3.870  0.0626 -0.2129 -0.2397
 5889SOL    HW129391  11.756   5.927   3.911 -0.2371  0.2625  0.5023
 5889SOL    HW229392  11.623   5.856   3.899 -0.1108  0.0658  0.2460
 5890SOL     OW29393   6.855   6.314   9.300  0.1892 -0.3809 -0.7676
 5890SOL    HW129394   6.823   6.276   9.381  1.0966 -2.2706 -1.2336
 5890SOL    HW229395   6.857   6.241   9.238  0.4855  0.7886 -2.2021
 5891SOL     OW29396   1.669   2.218   5.371 -0.4200 -0.7271  0.4651
 5891SOL    HW129397   1.723   2.260   5.438  0.7599 -0.5916 -0.5427
 5891SOL    HW229398   1.581   2.215   5.410 -0.4883  2.2634  0.7718
 5892SOL     OW29399   0.631   5.801   5.664 -0.2825 -0.4322 -0.0946
 5892SOL    HW129400   0.646   5.797   5.570  0.6412  0.2665  0.0012
 5892SOL    HW229401   0.718   5.794   5.703 -0.3450  1.6950  0.5923
 5893SOL     OW29402   6.054  10.016   9.575  0.4039  0.1086  0.2359
 5893SOL    HW129403   6.081   9.986   9.488 -1.1386  0.6207 -0.4484
 5893SOL    HW229404   6.122  10.078   9.601  1.0020 -0.2245 -0.4819
 5894SOL     OW29405   3.823   9.552   2.682  0.0056  0.4479  0.8003
 5894SOL    HW129406   3.731   9.549   2.657  0.2172 -0.5669  0.0526
 5894SOL    HW229407   3.860   9.623   2.630  0.2268 -1.0004 -1.1330
 5895SOL     OW29408   5.483   8.312  11.642  0.3833  0.5983  0.3621
 5895SOL    HW129409   5.550   8.370  11.676  3.3319 -0.5509 -2.8361
 5895SOL    HW229410   5.500   8.228  11.684  0.7250  0.4139 -0.1279
 5896SOL     OW29411   9.392   3.040   9.105  0.0462 -0.5043 -0.0053
 5896SOL    HW129412   9.411   3.060   9.014 -0.5410  0.0871 -0.0044
 5896SOL    HW229413   9.364   3.123   9.143 -1.3163 -1.0770  0.2986
 5897SOL     OW29414   9.234   7.660   5.913  0.2623 -0.6898  0.0166
 5897SOL    HW129415   9.246   7.750   5.884 -0.2870 -1.1584 -1.8007
 5897SOL    HW229416   9.282   7.655   5.996 -1.5984  1.8608  1.3932
 5898SOL     OW29417   3.111   7.976  11.927  0.2782 -0.5629  0.5157
 5898SOL    HW129418   3.079   7.917  11.860  1.6439 -1.2650  0.4344
 5898SOL    HW229419   3.202   7.994  11.902 -0.1609  1.8013  0.3989
 5899SOL     OW29420   6.429  11.098   8.240  0.0229 -0.0368  0.6564
 5899SOL    HW129421   6.375  11.172   8.216  1.5440  0.2895 -2.2387
 5899SOL    HW229422   6.370  11.023   8.239 -0.7240  0.5397 -0.7201
 5900SOL     OW29423  10.134   3.202  10.498 -0.6665  0.0379  0.1981
 5900SOL    HW129424  10.074   3.186  10.425 -0.5121  0.8017 -0.1117
 5900SOL    HW229425  10.080   3.191  10.577 -0.8369 -0.7871 -0.0238
 5901SOL     OW29426   9.153   3.240   1.601 -0.2143 -0.2824 -0.3560
 5901SOL    HW129427   9.073   3.191   1.620 -1.4033  1.0462 -1.6988
 5901SOL    HW229428   9.222   3.173   1.601 -1.3641 -1.5209  0.4619
 5902SOL     OW29429  10.483   0.116   0.838 -0.1416 -0.4228 -0.0964
 5902SOL    HW129430  10.501   0.023   0.847  0.5947 -0.1692  1.4001
 5902SOL    HW229431  10.564   0.159   0.867 -0.7050  0.6891 -0.1096
 5903SOL     OW29432  10.489   0.971  10.835 -0.3194 -0.1897  0.1521
 5903SOL    HW129433  10.578   0.934  10.830 -0.7066 -1.0668 -0.4198
 5903SOL    HW229434  10.458   0.969  10.745 -1.1551 -0.4770  0.4418
 5904SOL     OW29435   4.223   2.017   6.693 -0.8687  0.4762  0.1804
 5904SOL    HW129436   4.134   2.012   6.728 -0.8097 -0.2418  0.2583
 5904SOL    HW229437   4.225   1.951   6.623  0.0890 -0.8036  1.3468
 5905SOL     OW29438   7.644   1.529   3.375 -0.2803 -0.3775  0.4353
 5905SOL    HW129439   7.726   1.570   3.403  1.6234 -3.2434 -0.4767
 5905SOL    HW229440   7.640   1.448   3.426 -0.9021 -1.7747 -1.7151
 5906SOL     OW29441   5.343   6.976   8.855 -0.3934 -0.1722 -0.2477
 5906SOL    HW129442   5.426   6.990   8.899 -0.7694 -0.2171  0.4927
 5906SOL    HW229443   5.321   7.060   8.816 -0.6591  0.2242  0.7223
 5907SOL     OW29444   6.398   5.574  11.690  0.0688  0.0783 -0.4205
 5907SOL    HW129445   6.407   5.489  11.733  0.7542 -0.5677 -1.7857
 5907SOL    HW229446   6.488   5.602  11.673 -0.1731 -0.3502 -2.6314
 5908SOL     OW29447   2.451  10.967   1.683 -0.4145 -0.0590  0.0280
 5908SOL    HW129448   2.539  10.939   1.658  0.5619  1.8727  1.1556
 5908SOL    HW229449   2.425  10.905   1.751 -0.6944 -1.6839 -1.4573
 5909SOL     OW29450   5.667   4.349   6.316 -0.2111  0.0192  0.0728
 5909SOL    HW129451   5.604   4.347   6.388  0.9773 -0.0088  1.1422
 5909SOL    HW229452   5.737   4.405   6.347 -0.1623  0.9055 -1.5142
 5910SOL     OW29453   1.468   2.081   0.071 -0.2870 -0.1745 -0.0937
 5910SOL    HW129454   1.467   1.986   0.059 -1.2376 -0.2347  0.3395
 5910SOL    HW229455   1.376   2.105   0.074 -0.0528  0.7086  0.2521
 5911SOL     OW29456   4.913   9.391   2.720 -0.2017 -0.6048  0.2478
 5911SOL    HW129457   4.911   9.361   2.811 -1.0919 -0.3790  0.3138
 5911SOL    HW229458   4.985   9.343   2.681  0.9114  0.0884  1.3365
 5912SOL     OW29459  11.705   2.341   8.468  0.1486  0.4941  0.4935
 5912SOL    HW129460  11.780   2.327   8.410 -0.0490  0.9173  0.1274
 5912SOL    HW229461  11.707   2.268   8.529 -0.6598 -0.9514 -1.1412
 5913SOL     OW29462   9.980   6.574  10.778  0.4770  0.6247  0.7055
 5913SOL    HW129463   9.925   6.628  10.834 -1.0203 -0.6742  0.5503
 5913SOL    HW229464  10.058   6.628  10.762 -0.6952  2.4970  0.9853
 5914SOL     OW29465   2.589   0.286   4.530  0.1678  0.2015  0.0304
 5914SOL    HW129466   2.647   0.223   4.573  0.1735  0.8088  0.9445
 5914SOL    HW229467   2.648   0.343   4.480  0.1718 -0.4306 -0.7080
 5915SOL     OW29468   8.830   1.385   9.234 -0.3927  0.1944  0.2796
 5915SOL    HW129469   8.814   1.412   9.143  1.2302  2.0939  0.4826
 5915SOL    HW229470   8.925   1.386   9.242 -0.3502 -2.6758  1.2856
 5916SOL     OW29471   7.093  11.729   8.097 -0.3690 -0.6120 -0.0668
 5916SOL    HW129472   7.161  11.780   8.052  0.4206 -1.1774  0.4634
 5916SOL    HW229473   7.102  11.753   8.189  0.0106 -1.6813  0.1929
 5917SOL     OW29474   1.999   6.156   5.634 -0.0698 -0.7503  0.1360
 5917SOL    HW129475   1.971   6.124   5.720 -1.2599 -0.9797 -0.3239
 5917SOL    HW229476   1.979   6.249   5.636  1.0163 -0.4998  0.5230
 5918SOL     OW29477  11.364   6.234   8.644 -0.2122 -0.0542 -0.4543
 5918SOL    HW129478  11.352   6.322   8.680  1.2013 -0.1327  0.3063
 5918SOL    HW229479  11.412   6.247   8.562  0.7231 -0.1303  0.0593
 5919SOL     OW29480   6.871   0.422  10.714 -0.5729 -0.1257 -0.3757
 5919SOL    HW129481   6.785   0.415  10.756 -0.3310  0.0746  0.1651
 5919SOL    HW229482   6.854   0.464  10.630 -0.9878  0.0637 -0.1994
 5920SOL     OW29483   5.819  11.439   5.312  0.6606 -0.1690 -0.4686
 5920SOL    HW129484   5.844  11.444   5.220  0.4295  1.0628 -0.4751
 5920SOL    HW229485   5.818  11.530   5.342 -1.5925 -0.3307  0.1183
 5921SOL     OW29486   9.854   2.034   8.614  0.0822 -0.2798 -0.3513
 5921SOL    HW129487   9.784   2.097   8.630  0.7139  0.3652 -0.0426
 5921SOL    HW229488   9.932   2.076   8.650  0.4133 -1.5180  0.4488
 5922SOL     OW29489   4.861   0.559   1.559 -0.6146  0.1389 -0.0602
 5922SOL    HW129490   4.807   0.636   1.580 -0.0677  0.1425  1.4537
 5922SOL    HW229491   4.951   0.590   1.570 -0.3492 -0.4011 -0.6601
 5923SOL     OW29492   6.923   2.569  10.309 -0.1870 -0.1596  0.0942
 5923SOL    HW129493   6.939   2.548  10.218  0.7670  0.0260  0.2132
 5923SOL    HW229494   6.937   2.486  10.356  2.8975  0.4612  0.4796
 5924SOL     OW29495   8.972   0.572   4.340 -0.2695  0.6524 -0.3378
 5924SOL    HW129496   9.058   0.551   4.304 -0.5513 -0.0053 -0.6496
 5924SOL    HW229497   8.986   0.653   4.389  0.5946  0.3945 -0.1285
 5925SOL     OW29498  10.051   2.105   1.773 -0.4634 -0.1347  0.2012
 5925SOL    HW129499   9.958   2.123   1.783 -0.5305 -0.4915  0.2456
 5925SOL    HW229500  10.076   2.147   1.691 -1.2667 -2.2638 -1.2416
 5926SOL     OW29501  10.762   8.736   6.456 -0.1559  0.7307  0.1170
 5926SOL    HW129502  10.729   8.658   6.413  0.8604  1.2431 -1.7112
 5926SOL    HW229503  10.802   8.787   6.385  0.2747  2.3312  1.4531
 5927SOL     OW29504   9.701   7.837   3.870  0.0695 -0.6223 -0.0904
 5927SOL    HW129505   9.649   7.912   3.843  1.0896  0.3555  0.5540
 5927SOL    HW229506   9.730   7.797   3.787 -1.8082 -1.3219 -0.4636
 5928SOL     OW29507   2.513  11.039  10.779 -0.4325 -0.3727 -0.3851
 5928SOL    HW129508   2.436  11.094  10.792  0.3484  0.6297  0.0437
 5928SOL    HW229509   2.564  11.048  10.859  0.0788 -1.1267 -0.6132
 5929SOL     OW29510  11.794  11.808   7.336  0.5100 -0.2516  0.3528
 5929SOL    HW129511  11.712  11.805   7.286  0.7563  1.1708 -0.1847
 5929SOL    HW229512  11.770  11.852   7.418  0.2514 -1.9857  1.2627
 5930SOL     OW29513  10.327   3.821   3.841  0.8028 -0.8916 -0.2226
 5930SOL    HW129514  10.327   3.758   3.914 -0.4584 -0.9382 -0.2388
 5930SOL    HW229515  10.238   3.816   3.805  0.3470  1.5944  0.3833
 5931SOL     OW29516   8.495   0.985   3.119  0.3857  0.3045  0.3878
 5931SOL    HW129517   8.461   0.929   3.049  0.4637  0.2584  0.3869
 5931SOL    HW229518   8.450   1.068   3.108 -0.4964 -0.0745  1.0031
 5932SOL     OW29519   0.410   7.674   5.943 -0.0043 -0.2045 -0.0278
 5932SOL    HW129520   0.405   7.762   5.906 -1.6752 -0.6055 -0.8776
 5932SOL    HW229521   0.455   7.623   5.876 -2.3283 -0.7553 -1.2826
 5933SOL     OW29522   1.475   3.199   4.685  0.3146  0.4139  0.6345
 5933SOL    HW129523   1.514   3.115   4.710  1.6951  1.0992  0.8930
 5933SOL    HW229524   1.442   3.235   4.767 -1.6321 -0.4998  0.3066
 5934SOL     OW29525   7.052   4.501   7.849 -0.4505 -0.3004  0.2299
 5934SOL    HW129526   7.039   4.459   7.933 -1.8056  1.4612  0.9576
 5934SOL    HW229527   7.077   4.591   7.870  0.2285 -0.0965 -1.2607
 5935SOL     OW29528   1.340  11.289   5.023  0.1452  0.6479  0.4255
 5935SOL    HW129529   1.363  11.381   5.007 -1.4507  0.6174 -2.8996
 5935SOL    HW229530   1.341  11.248   4.937 -0.3134 -2.2174  1.6648
 5936SOL     OW29531   1.643   7.304   4.055 -0.0311  0.2950  0.7188
 5936SOL    HW129532   1.582   7.335   3.988 -1.2193  0.1282  1.6877
 5936SOL    HW229533   1.595   7.234   4.100  1.2166 -0.4350  0.9432
 5937SOL     OW29534   4.600   9.093   8.979 -0.9415  0.0844 -1.0010
 5937SOL    HW129535   4.583   9.153   8.907 -0.6195  0.4490 -0.7796
 5937SOL    HW229536   4.692   9.109   9.002 -0.9706 -0.2046 -0.6712
 5938SOL     OW29537  10.643   2.560   8.024  0.0727 -0.3699 -0.0321
 5938SOL    HW129538  10.725   2.519   8.054 -0.5082  0.4599  3.0781
 5938SOL    HW229539  10.664   2.653   8.017  0.0101 -0.4631 -1.7757
 5939SOL     OW29540   3.552   3.091   1.897  0.3206 -0.2726 -0.1079
 5939SOL    HW129541   3.513   3.055   1.818 -0.1091 -1.3923  0.5793
 5939SOL    HW229542   3.485   3.079   1.965  1.9026 -2.6323  1.1963
 5940SOL     OW29543   4.190   0.304   7.140  0.2678  0.3795  0.5280
 5940SOL    HW129544   4.174   0.350   7.223  1.4156  0.1791  0.8751
 5940SOL    HW229545   4.284   0.284   7.141  0.1848 -0.1384 -0.5630
 5941SOL     OW29546   6.394  10.854   7.997 -0.4438 -0.6487  0.4024
 5941SOL    HW129547   6.320  10.829   7.942 -0.4745 -2.5603  1.2475
 5941SOL    HW229548   6.360  10.853   8.086  0.4210 -0.8392  0.7377
 5942SOL     OW29549   2.187   9.547   4.393 -0.7290 -0.1993 -0.3327
 5942SOL    HW129550   2.091   9.545   4.390 -0.7726  1.2773 -0.4234
 5942SOL    HW229551   2.208   9.635   4.422  0.6357 -0.1156 -1.5040
 5943SOL     OW29552   8.632   6.050   3.248 -0.3236  0.1423 -0.0991
 5943SOL    HW129553   8.537   6.038   3.246 -0.0387 -2.7078 -1.3024
 5943SOL    HW229554   8.650   6.109   3.174 -1.0507 -0.4366 -0.7600
 5944SOL     OW29555  10.881   2.838  11.265 -0.4342 -0.0870  0.2938
 5944SOL    HW129556  10.969   2.829  11.229 -0.9816  0.6295 -1.2954
 5944SOL    HW229557  10.848   2.749  11.271  0.3602 -0.3591  0.8601
 5945SOL     OW29558   4.024   1.558   7.433  0.8770 -0.1159 -0.3807
 5945SOL    HW129559   4.096   1.619   7.448 -0.7533  1.2590  2.8902
 5945SOL    HW229560   4.061   1.472   7.451  2.6203  0.0673 -2.7188
 5946SOL     OW29561   3.089   3.187   8.226 -0.1884 -0.1523 -0.0924
 5946SOL    HW129562   3.155   3.195   8.295  0.7940  1.0555 -1.1357
 5946SOL    HW229563   3.019   3.247   8.252 -0.3610 -0.5674  0.4246
 5947SOL     OW29564   0.214   1.464   0.138  0.2749 -0.1021  0.0990
 5947SOL    HW129565   0.291   1.467   0.195  0.9344 -1.0612 -0.7138
 5947SOL    HW229566   0.207   1.372   0.111 -1.0660 -0.0016  0.0244
 5948SOL     OW29567   3.065   0.269   4.641  0.3915  0.5276 -0.1998
 5948SOL    HW129568   3.024   0.306   4.563 -0.5857  0.5310  0.3069
 5948SOL    HW229569   3.128   0.205   4.607 -2.1346 -1.7161 -0.9810
 5949SOL     OW29570   2.935   9.731   4.310  0.4456 -0.2896  0.5476
 5949SOL    HW129571   3.025   9.747   4.281  0.4027 -0.8346  0.0787
 5949SOL    HW229572   2.941   9.654   4.366  0.0379 -1.5013 -0.9986
 5950SOL     OW29573   0.623   3.952   8.446  0.0991  0.0969  0.1675
 5950SOL    HW129574   0.566   3.922   8.376  0.9722 -0.5839 -0.2623
 5950SOL    HW229575   0.585   4.036   8.473 -0.8320 -0.1213 -0.4102
 5951SOL     OW29576   6.323  11.916   7.925  0.5688 -0.1214 -0.6355
 5951SOL    HW129577   6.412  11.889   7.899  1.5094  0.0067  2.1320
 5951SOL    HW229578   6.292  11.844   7.980  1.0110  1.8960  2.4994
 5952SOL     OW29579   7.935   1.021  10.911  0.0211  0.0823 -0.6730
 5952SOL    HW129580   7.961   1.113  10.913  1.7643 -0.3680 -0.5135
 5952SOL    HW229581   7.975   0.983  10.990 -0.9152 -0.7634 -0.5738
 5953SOL     OW29582   5.759   7.156   6.271 -0.3132 -0.3202  0.3775
 5953SOL    HW129583   5.820   7.228   6.290  0.2371 -1.0010  1.2746
 5953SOL    HW229584   5.761   7.101   6.350 -0.2177 -1.6721 -0.5334
 5954SOL     OW29585   8.497   9.613   4.028 -0.0645 -0.0818  0.9623
 5954SOL    HW129586   8.489   9.678   3.959 -1.0442 -0.6745  0.5028
 5954SOL    HW229587   8.410   9.576   4.038  0.1415 -0.2963  2.2492
 5955SOL     OW29588   8.302   2.963   0.650 -1.0012 -0.4269  0.2595
 5955SOL    HW129589   8.255   2.982   0.732  0.4984 -0.2149  1.1124
 5955SOL    HW229590   8.270   3.028   0.588 -2.4124 -0.8007  0.5673
 5956SOL     OW29591   9.656   1.700   6.183 -0.6404  0.3832  0.4885
 5956SOL    HW129592   9.733   1.718   6.237 -0.0396 -0.7523  0.0482
 5956SOL    HW229593   9.582   1.705   6.244 -0.2098  1.2787  0.9601
 5957SOL     OW29594   8.133   3.206   9.218  0.7692 -0.6870  0.1098
 5957SOL    HW129595   8.205   3.241   9.269  0.7594 -0.5263  0.0118
 5957SOL    HW229596   8.175   3.151   9.151  0.7813 -0.9183  0.3057
 5958SOL     OW29597   2.007   8.104   5.317 -0.2814 -0.2980  0.0588
 5958SOL    HW129598   1.996   8.013   5.343 -0.7772 -0.4461 -0.6495
 5958SOL    HW229599   1.963   8.154   5.386  1.5175 -0.4644  1.4187
 5959SOL     OW29600   9.031   7.947   5.659  0.0376 -0.3088  0.4548
 5959SOL    HW129601   8.975   8.021   5.635 -0.4370 -0.8484 -0.1479
 5959SOL    HW229602   9.076   7.924   5.577 -0.5925 -1.3324  0.3829
 5960SOL     OW29603   0.248   6.531   2.317  0.2298 -0.5154 -0.1319
 5960SOL    HW129604   0.231   6.447   2.360 -0.2621  0.0767  0.8746
 5960SOL    HW229605   0.222   6.596   2.382 -0.1606  0.4166 -1.2078
 5961SOL     OW29606   7.934   8.466   2.256 -0.4274  0.0604  0.4444
 5961SOL    HW129607   7.894   8.387   2.220 -0.0381  0.1100 -0.1148
 5961SOL    HW229608   7.910   8.536   2.195  0.3548  0.1211  0.1982
 5962SOL     OW29609   3.370   8.721  11.936  0.1552 -0.0992  0.4726
 5962SOL    HW129610   3.368   8.651  12.002  1.2908 -0.9227 -0.3362
 5962SOL    HW229611   3.287   8.710  11.888 -0.9575  0.8665  2.0690
 5963SOL     OW29612   5.536   4.882   2.636 -0.4061  0.4849  0.1219
 5963SOL    HW129613   5.596   4.902   2.564  0.1560 -0.9411  0.1643
 5963SOL    HW229614   5.536   4.962   2.690 -0.5104  1.4186 -1.2102
 5964SOL     OW29615   4.744  10.712   3.161  0.3029  0.6957 -0.5323
 5964SOL    HW129616   4.671  10.732   3.219  0.4103 -1.6829  0.4870
 5964SOL    HW229617   4.801  10.789   3.167 -1.0905  1.7080  0.2321
 5965SOL     OW29618   4.587   2.482  11.274  0.7731  0.3548 -0.4069
 5965SOL    HW129619   4.633   2.413  11.322  1.7101  1.0821 -0.2288
 5965SOL    HW229620   4.495   2.470  11.297  0.9445 -0.7252 -0.2459
 5966SOL     OW29621   7.725   9.881  11.432 -1.1036 -0.2347  0.6748
 5966SOL    HW129622   7.720   9.786  11.426 -1.9165 -0.2488  1.3586
 5966SOL    HW229623   7.646   9.906  11.480 -0.8769  0.7810  0.5391
 5967SOL     OW29624   3.543  10.871   4.381 -0.3027 -0.5836 -0.8330
 5967SOL    HW129625   3.623  10.824   4.405  0.7516 -0.1791 -3.2310
 5967SOL    HW229626   3.502  10.816   4.314 -1.7995 -0.5346  0.0085
 5968SOL     OW29627   9.464   3.161  10.852  0.5050 -0.0563 -0.0671
 5968SOL    HW129628   9.380   3.201  10.832  0.6712  1.0614  1.3447
 5968SOL    HW229629   9.442   3.071  10.877  0.1501 -1.0365 -3.4051
 5969SOL     OW29630   7.492   8.474  10.898 -0.2514  0.0780  0.1714
 5969SOL    HW129631   7.541   8.520  10.966  0.3364 -0.5149  0.1555
 5969SOL    HW229632   7.492   8.383  10.926  0.3704 -0.2500 -0.8338
 5970SOL     OW29633   9.122   4.913   2.683  0.0790  0.5429  0.3293
 5970SOL    HW129634   9.028   4.920   2.666  0.1362  1.2323  0.2563
 5970SOL    HW229635   9.135   4.956   2.767  0.0300 -1.4749  1.4206
 5971SOL     OW29636   4.101  11.375   4.252 -0.0305  0.1264  0.5338
 5971SOL    HW129637   4.134  11.292   4.218 -0.3400  0.1265  0.2341
 5971SOL    HW229638   4.168  11.403   4.314  1.2222  0.7883 -1.0554
 5972SOL     OW29639   2.959   4.185   3.356 -0.0349  0.4792 -0.5915
 5972SOL    HW129640   2.932   4.272   3.328  0.2637  0.4394 -1.0064
 5972SOL    HW229641   2.902   4.166   3.431  1.8438  2.2528  1.4486
 5973SOL     OW29642   9.105   9.524   9.884  0.6797  0.1276 -0.2185
 5973SOL    HW129643   9.061   9.579   9.820 -0.8651  1.7074  2.0367
 5973SOL    HW229644   9.093   9.434   9.852 -1.1668  0.7644 -1.4510
 5974SOL     OW29645   1.550   2.388   1.522 -0.0154 -0.1671 -0.0478
 5974SOL    HW129646   1.535   2.466   1.575 -0.2059  1.0075 -1.7338
 5974SOL    HW229647   1.637   2.357   1.548 -0.3740 -0.0540  1.3900
 5975SOL     OW29648   6.613   5.585   5.210  0.1057 -0.0228 -0.4751
 5975SOL    HW129649   6.565   5.517   5.257 -1.1386  1.0447 -0.1494
 5975SOL    HW229650   6.630   5.652   5.276 -0.4689  0.8844 -1.2253
 5976SOL     OW29651   3.608   3.778   1.284 -0.7846  0.4589 -0.0849
 5976SOL    HW129652   3.635   3.687   1.302  0.7676  1.1051  1.0895
 5976SOL    HW229653   3.593   3.780   1.190  0.6241 -0.6705 -0.3735
 5977SOL     OW29654   4.244   6.146   7.644 -0.3880 -0.1530  0.2666
 5977SOL    HW129655   4.313   6.085   7.617  0.3829  1.0160 -0.5022
 5977SOL    HW229656   4.195   6.163   7.563 -0.1515  0.7860  0.3124
 5978SOL     OW29657   6.130   4.652   0.559 -0.5782  0.0058  0.1774
 5978SOL    HW129658   6.209   4.682   0.604 -0.5949  0.4864 -0.1128
 5978SOL    HW229659   6.074   4.617   0.629 -0.9533  1.4869  0.6510
 5979SOL     OW29660   8.828   8.551  10.219 -0.2555  0.3599  0.2298
 5979SOL    HW129661   8.921   8.532  10.233  0.2002  1.0590 -1.5750
 5979SOL    HW229662   8.785   8.522  10.300  1.4523 -0.4579  0.8922
 5980SOL     OW29663   2.101  11.837   9.232 -0.1840 -0.1353 -0.0610
 5980SOL    HW129664   2.194  11.860   9.228  0.1636 -0.8566  2.1445
 5980SOL    HW229665   2.055  11.915   9.200  1.1520  0.6619 -0.1135
 5981SOL     OW29666   7.914   7.804   0.877  0.2735  0.1121  0.2269
 5981SOL    HW129667   7.849   7.780   0.811 -0.1061  2.1864 -0.2285
 5981SOL    HW229668   7.891   7.752   0.954 -3.4042  2.2501  0.8347
 5982SOL     OW29669   1.018   1.716   7.986 -0.1582 -0.2768  0.1481
 5982SOL    HW129670   1.038   1.730   8.078  0.3856  0.7887 -0.1110
 5982SOL    HW229671   1.099   1.739   7.940 -0.6496 -0.0683 -0.6442
 5983SOL     OW29672   4.687  10.433   9.751  0.2117  0.1349  0.3743
 5983SOL    HW129673   4.666  10.490   9.825  1.1161  0.8169  0.1232
 5983SOL    HW229674   4.608  10.432   9.698  0.4248  1.8751 -0.0574
 5984SOL     OW29675   5.671   6.813   5.163 -0.2357  0.1332 -0.7536
 5984SOL    HW129676   5.663   6.764   5.244  1.2554  1.4719  0.2498
 5984SOL    HW229677   5.618   6.892   5.176  0.5215  0.6639 -0.8129
 5985SOL     OW29678   4.524   0.700   4.464  0.1304 -0.5161  0.5203
 5985SOL    HW129679   4.452   0.733   4.518  1.6695  2.4530  0.9519
 5985SOL    HW229680   4.497   0.719   4.374  0.4019  0.8029  0.6929
 5986SOL     OW29681   0.732   7.483   8.139 -0.6698  0.0028 -0.3373
 5986SOL    HW129682   0.736   7.548   8.069 -1.9706 -0.4550 -0.8579
 5986SOL    HW229683   0.776   7.406   8.102 -1.4868 -0.2881 -0.7189
 5987SOL     OW29684   3.904   5.689   4.457 -0.3253  0.0607 -0.0396
 5987SOL    HW129685   3.909   5.784   4.468 -0.8711  0.1014 -0.0871
 5987SOL    HW229686   3.888   5.677   4.363  1.1756 -0.1462 -0.2861
 5988SOL     OW29687   7.800   3.540   0.590  0.4174  0.2030 -0.0621
 5988SOL    HW129688   7.734   3.523   0.523 -2.1345 -1.0689  2.5798
 5988SOL    HW229689   7.764   3.611   0.643  0.2591 -1.5880  2.4009
 5989SOL     OW29690   8.898   7.471   4.959 -0.6442 -0.3614  0.1855
 5989SOL    HW129691   8.929   7.406   5.022  3.6329  0.2902 -0.8955
 5989SOL    HW229692   8.901   7.424   4.875 -2.9079 -0.2420  0.0002
 5990SOL     OW29693   6.102   7.981   3.202  0.3056 -0.0640  0.0467
 5990SOL    HW129694   6.124   8.044   3.271  2.1623 -0.3906 -0.1967
 5990SOL    HW229695   6.146   8.014   3.124 -1.1352 -0.1160 -0.8250
 5991SOL     OW29696   4.778   8.087   8.063 -0.0101  0.3083  0.5206
 5991SOL    HW129697   4.739   8.156   8.008 -1.4992 -0.9950 -0.1253
 5991SOL    HW229698   4.721   8.083   8.139  0.7278  0.5281  1.0931
 5992SOL     OW29699   2.876   9.307   7.363  0.2790  0.3904 -0.2905
 5992SOL    HW129700   2.854   9.229   7.414  0.6159  1.4129  1.4962
 5992SOL    HW229701   2.962   9.288   7.325  0.4424 -0.0282  0.2799
 5993SOL     OW29702   1.664   2.202  11.671  0.1457 -0.2247 -0.0298
 5993SOL    HW129703   1.582   2.153  11.661 -0.4716  0.5229  1.1557
 5993SOL    HW229704   1.651   2.254  11.750  0.9327  1.5666 -1.0426
 5994SOL     OW29705   5.345  10.330  10.417 -0.3157 -0.5121 -0.2736
 5994SOL    HW129706   5.409  10.263  10.441 -0.6751 -0.2040  1.6737
 5994SOL    HW229707   5.367  10.405  10.472 -1.3032  0.1971 -0.8262
 5995SOL     OW29708  10.350  11.018   5.835  0.0648  0.0759  0.4219
 5995SOL    HW129709  10.431  11.045   5.877  0.3404  0.1968 -0.1883
 5995SOL    HW229710  10.363  10.925   5.815  0.5380  0.3849 -0.7822
 5996SOL     OW29711   8.084   9.105   4.483  0.4409 -0.0772  0.5443
 5996SOL    HW129712   8.081   9.163   4.559  0.6666  0.8506 -0.1440
 5996SOL    HW229713   8.025   9.145   4.419 -0.2649 -1.2063  0.4648
 5997SOL     OW29714   1.301   3.812   9.154  0.0077  0.8343  0.5945
 5997SOL    HW129715   1.296   3.882   9.089  0.5012  0.8884  0.6071
 5997SOL    HW229716   1.235   3.749   9.126  0.8487  0.3957 -0.5314
 5998SOL     OW29717   1.360   4.488   0.631 -0.1625  0.1725  0.3014
 5998SOL    HW129718   1.422   4.450   0.568 -2.2135 -1.1552 -1.0396
 5998SOL    HW229719   1.356   4.581   0.607 -0.7144 -0.2590 -1.4148
 5999SOL     OW29720  11.605   5.806   2.999  0.3140 -0.1653 -0.4704
 5999SOL    HW129721  11.650   5.839   3.077 -0.2576  0.9664 -0.5968
 5999SOL    HW229722  11.672   5.756   2.952  0.1560 -2.6983  1.7455
 6000SOL     OW29723   3.712   2.744   1.670 -0.4840 -0.4829 -0.8540
 6000SOL    HW129724   3.728   2.694   1.750 -0.7856  0.5700 -0.1147
 6000SOL    HW229725   3.617   2.741   1.659 -0.4645 -0.4082 -1.0374
 6001SOL     OW29726   3.053   7.850   3.760  0.4547 -0.1846 -0.3195
 6001SOL    HW129727   2.962   7.881   3.767  0.3208 -0.2523 -1.6043
 6001SOL    HW229728   3.079   7.871   3.671  1.7324 -0.1291  0.0549
 6002SOL     OW29729   7.380   0.769   1.797  0.2762  0.8167 -0.0335
 6002SOL    HW129730   7.341   0.758   1.710  1.0047 -0.7941 -0.1846
 6002SOL    HW229731   7.385   0.864   1.809  0.1863  1.0705 -1.7558
 6003SOL     OW29732   6.846   7.550   7.665 -0.5990  0.0323  0.1083
 6003SOL    HW129733   6.760   7.592   7.660  0.1167  1.9356  2.2655
 6003SOL    HW229734   6.877   7.569   7.753  1.9109 -0.8879 -0.4968
 6004SOL     OW29735   2.611   5.920   6.760 -1.1010 -0.1595  0.3443
 6004SOL    HW129736   2.693   5.939   6.806  0.4731  0.2739 -2.3952
 6004SOL    HW229737   2.605   5.824   6.760 -0.7177 -0.1874  0.7388
 6005SOL     OW29738   8.177   7.995   3.640 -0.3852 -0.3106 -0.3967
 6005SOL    HW129739   8.200   8.088   3.638  3.2496 -1.0576 -0.7811
 6005SOL    HW229740   8.195   7.967   3.729  0.5364 -1.0176 -0.7848
 6006SOL     OW29741   7.579   7.908   3.603  0.1273 -0.0307  0.1339
 6006SOL    HW129742   7.669   7.883   3.625 -0.4010 -1.7464  0.4690
 6006SOL    HW229743   7.584   7.939   3.512  1.0915  0.1145  0.2313
 6007SOL     OW29744   0.773  10.288   3.700 -0.1640  0.1265  0.1195
 6007SOL    HW129745   0.765  10.346   3.776 -0.5915  1.6585 -1.0332
 6007SOL    HW229746   0.692  10.303   3.650 -0.1766 -1.3212 -0.3418
 6008SOL     OW29747   0.241  10.545   5.924  0.3820 -0.0468 -0.5469
 6008SOL    HW129748   0.310  10.515   5.864  1.4315  0.4045  0.3910
 6008SOL    HW229749   0.256  10.639   5.933 -1.7139  0.4888 -1.9896
 6009SOL     OW29750  11.497  10.429   6.876  0.3814 -0.1996  0.1491
 6009SOL    HW129751  11.456  10.515   6.878  0.3671 -0.1542 -1.0439
 6009SOL    HW229752  11.545  10.427   6.793 -1.6740 -2.2426 -1.1177
 6010SOL     OW29753   2.094   3.804   1.597 -0.2857 -0.6937  0.2272
 6010SOL    HW129754   2.170   3.745   1.597 -0.5070 -0.9830  0.2698
 6010SOL    HW229755   2.099   3.851   1.680 -0.1428 -0.7014  0.2223
 6011SOL     OW29756  10.904  10.294   5.836 -0.3452  0.2230  0.1705
 6011SOL    HW129757  10.871  10.379   5.864  1.1965  0.0390  2.8748
 6011SOL    HW229758  10.922  10.247   5.918  0.3290 -2.1202 -1.2249
 6012SOL     OW29759  11.050   7.654   9.075  0.8435 -0.2152  0.0643
 6012SOL    HW129760  11.071   7.702   8.994  0.8343 -0.0802  0.1406
 6012SOL    HW229761  11.135   7.629   9.110  0.8112 -1.1231 -0.4908
 6013SOL     OW29762   2.406   4.555   1.137  0.3601 -0.5085 -0.4588
 6013SOL    HW129763   2.323   4.562   1.091  0.2073 -1.7008 -0.3714
 6013SOL    HW229764   2.470   4.532   1.069  0.4835 -0.3769 -0.3904
 6014SOL     OW29765  10.761   6.117   0.656  0.5603  0.0771 -0.0029
 6014SOL    HW129766  10.790   6.198   0.698  1.0619  0.7646 -1.5995
 6014SOL    HW229767  10.689   6.144   0.598 -0.3149 -0.8894  0.5810
 6015SOL     OW29768  11.848   6.293   0.051 -0.0679  0.1867  0.4389
 6015SOL    HW129769  11.784   6.337   0.107  0.0322 -0.2800  0.9281
 6015SOL    HW229770  11.924   6.351   0.051 -0.6400  0.9816 -0.5257
 6016SOL     OW29771   5.660   3.726   2.075  0.6824  0.3654  0.3785
 6016SOL    HW129772   5.707   3.644   2.060  0.0586  0.2602 -1.3299
 6016SOL    HW229773   5.568   3.702   2.062  0.3535  1.0342  1.3863
 6017SOL     OW29774   5.146   8.147   0.280 -0.1978 -0.1690 -0.8011
 6017SOL    HW129775   5.121   8.070   0.331 -0.9597  0.0340 -0.8524
 6017SOL    HW229776   5.075   8.210   0.296  0.9842  0.9669  0.1770
 6018SOL     OW29777   5.030   2.974   8.154  0.0340 -0.0067 -0.0515
 6018SOL    HW129778   5.025   2.887   8.113 -0.1638 -0.1297  0.2305
 6018SOL    HW229779   4.940   3.005   8.156  0.2223  0.6540 -1.0940
 6019SOL     OW29780   0.414   3.098  10.105 -0.2059  0.4249 -0.0727
 6019SOL    HW129781   0.487   3.091  10.043 -1.7634  0.5504 -2.0038
 6019SOL    HW229782   0.437   3.173  10.161  1.5924 -0.1584  0.0434
 6020SOL     OW29783   1.367   8.188   8.676 -0.0284  0.5513 -0.4580
 6020SOL    HW129784   1.393   8.119   8.738 -1.5879  0.7987  0.5078
 6020SOL    HW229785   1.280   8.162   8.646 -0.5063  1.9246 -0.3189
 6021SOL     OW29786  10.694   7.176   7.299 -0.2198 -0.2592 -0.0872
 6021SOL    HW129787  10.742   7.100   7.266  0.0305 -0.3940  0.5657
 6021SOL    HW229788  10.761   7.232   7.339 -0.6489 -0.7102  1.3202
 6022SOL     OW29789  10.426   7.912   7.034  0.0064  0.5511  0.1193
 6022SOL    HW129790  10.442   8.006   7.043 -0.5086  0.5941  0.6612
 6022SOL    HW229791  10.491   7.870   7.090  0.7945  0.5370 -0.7849
 6023SOL     OW29792   7.352   5.183  11.473  0.5977 -0.8776  0.1396
 6023SOL    HW129793   7.412   5.251  11.506  1.3856 -0.6444 -1.6492
 6023SOL    HW229794   7.409   5.109  11.453  0.4017 -0.5569 -1.8440
 6024SOL     OW29795   9.553   0.354   8.276 -0.1940 -0.6450 -0.1101
 6024SOL    HW129796   9.537   0.434   8.326  0.7585  1.3456 -2.7571
 6024SOL    HW229797   9.638   0.323   8.309  1.2146  1.5383 -1.4095
 6025SOL     OW29798   9.652   8.424   9.004  0.0000 -0.5723 -0.1281
 6025SOL    HW129799   9.672   8.373   9.083 -1.1290  0.9604  1.2308
 6025SOL    HW229800   9.738   8.452   8.972  0.4659  1.2764  2.3624
 6026SOL     OW29801   1.228   9.018   9.043  0.1925 -0.1229  0.6204
 6026SOL    HW129802   1.168   8.995   8.972 -0.5225 -0.2403  1.2514
 6026SOL    HW229803   1.205   8.959   9.114 -0.0435  0.9238  1.4393
 6027SOL     OW29804   8.033  10.472   1.049 -0.3232  0.0749  0.1766
 6027SOL    HW129805   8.069  10.439   1.131 -0.6088 -0.3809  0.1193
 6027SOL    HW229806   7.966  10.408   1.024  0.8081 -0.6077 -1.2130
 6028SOL     OW29807   2.558   9.793   0.942 -0.5642 -0.2687 -0.1386
 6028SOL    HW129808   2.577   9.705   0.975  1.1013  0.3416  0.5957
 6028SOL    HW229809   2.556   9.848   1.019 -0.5271  0.5251 -0.6939
 6029SOL     OW29810   1.364   8.032   6.232 -0.4867  0.2290  0.2388
 6029SOL    HW129811   1.282   8.000   6.269  0.2848 -0.4289  1.4364
 6029SOL    HW229812   1.432   7.980   6.275  0.5030 -0.2087 -1.7271
 6030SOL     OW29813   5.640  10.983   1.520  0.9174 -0.3137  0.3658
 6030SOL    HW129814   5.607  11.003   1.432  2.0220  0.4226  0.0997
 6030SOL    HW229815   5.693  10.905   1.509  1.2043 -0.1155  0.3472
 6031SOL     OW29816   0.148   7.754   9.589  0.5944  0.1072 -0.4288
 6031SOL    HW129817   0.156   7.661   9.609 -0.5586  0.0584 -0.1051
 6031SOL    HW229818   0.060   7.763   9.552  0.2624  1.2437  0.5826
 6032SOL     OW29819  10.066   9.423   8.960 -0.2656 -0.1554  0.0914
 6032SOL    HW129820  10.132   9.397   9.025 -0.5516 -1.0645  0.0265
 6032SOL    HW229821  10.072   9.518   8.958  1.4854 -0.2349 -0.3763
 6033SOL     OW29822   1.556  10.921   4.261  0.0618  0.7438 -0.1070
 6033SOL    HW129823   1.481  10.979   4.266 -0.4425  0.2337 -1.3205
 6033SOL    HW229824   1.598  10.928   4.347 -1.3612  1.0456  0.5912
 6034SOL     OW29825   0.400   0.436   6.371 -0.0188 -0.9303  0.1495
 6034SOL    HW129826   0.431   0.362   6.423 -1.1130 -1.0232  0.7013
 6034SOL    HW229827   0.405   0.511   6.431  0.7412 -0.6145 -0.2946
 6035SOL     OW29828  11.511   0.186   9.859  0.1338  0.3213  0.1632
 6035SOL    HW129829  11.532   0.100   9.823 -1.2821  0.8966 -2.2439
 6035SOL    HW229830  11.495   0.241   9.783 -2.8557  1.7241  1.6545
 6036SOL     OW29831   9.086   1.046   7.214 -0.3643  0.0052 -0.3148
 6036SOL    HW129832   9.080   1.073   7.123  0.2444 -0.0176 -0.3675
 6036SOL    HW229833   9.119   1.123   7.260  0.0697 -0.2177 -0.2438
 6037SOL     OW29834   2.790  10.668   4.949  0.4326 -0.3274 -0.0029
 6037SOL    HW129835   2.785  10.650   4.855 -0.2699  0.7334 -0.1898
 6037SOL    HW229836   2.699  10.685   4.974  0.8428  1.3354  0.4453
 6038SOL     OW29837   1.751   7.230  10.230 -0.7046 -0.4558 -0.0741
 6038SOL    HW129838   1.678   7.290  10.243 -0.8529 -0.4686 -0.8070
 6038SOL    HW229839   1.805   7.241  10.308 -1.0842  0.1241  0.1143
 6039SOL     OW29840   4.803   2.434   6.142 -0.7608  0.3088  0.6395
 6039SOL    HW129841   4.862   2.440   6.067  2.2148 -2.0968  2.5389
 6039SOL    HW229842   4.829   2.505   6.200 -2.2738  1.4448  0.0071
 6040SOL     OW29843   5.299   0.868  10.163 -0.6112 -0.3104  0.0076
 6040SOL    HW129844   5.316   0.914  10.080  0.5423 -0.3214  0.2183
 6040SOL    HW229845   5.345   0.920  10.228  1.5871 -2.2610  0.1281
 6041SOL     OW29846   7.158   8.593  10.663 -0.3664 -0.1783 -0.1195
 6041SOL    HW129847   7.078   8.563  10.707 -1.4713 -0.2563 -2.0670
 6041SOL    HW229848   7.188   8.667  10.716 -1.4812 -0.4148  0.8927
 6042SOL     OW29849   3.050   2.560   5.100 -0.0155  0.0089 -0.4685
 6042SOL    HW129850   3.016   2.470   5.099  1.1387 -0.5054  1.2034
 6042SOL    HW229851   3.101   2.566   5.020  0.9566 -1.3207 -0.0002
 6043SOL     OW29852   5.997   2.725   3.391 -0.6281 -0.3533 -0.3911
 6043SOL    HW129853   6.055   2.650   3.403 -1.5463 -1.5004 -2.5639
 6043SOL    HW229854   5.923   2.708   3.449 -1.6610 -2.1092 -2.1132
 6044SOL     OW29855   4.313   8.035   7.936  0.0128 -0.0395 -0.4692
 6044SOL    HW129856   4.402   8.002   7.930  0.6432  1.6323 -0.6965
 6044SOL    HW229857   4.260   7.969   7.891  0.9316 -1.6526  0.7001
 6045SOL     OW29858   8.905  11.953   3.638  0.5065  0.4611  0.2252
 6045SOL    HW129859   8.879  11.885   3.699  0.4544  1.1461  0.9845
 6045SOL    HW229860   8.945  11.906   3.565  0.2198 -0.3907  0.6060
 6046SOL     OW29861   8.853   4.308  10.441 -0.4142 -0.0836  0.0229
 6046SOL    HW129862   8.806   4.389  10.422 -1.4071 -0.7994 -0.7194
 6046SOL    HW229863   8.944   4.334  10.452 -0.5451  0.9915 -1.2432
 6047SOL     OW29864   7.829   5.159   9.154  0.2891 -0.0373 -0.2711
 6047SOL    HW129865   7.866   5.088   9.100  1.3360  0.4370 -0.1920
 6047SOL    HW229866   7.867   5.146   9.240  0.0893  0.3384 -0.1251
 6048SOL     OW29867   4.995   2.680   8.100  0.0820 -0.0604  0.4109
 6048SOL    HW129868   4.978   2.592   8.135  0.9450 -0.2859  0.2960
 6048SOL    HW229869   4.932   2.690   8.029  0.3456 -0.8243  0.0559
 6049SOL     OW29870   5.951   2.252   2.595  0.1667  0.2128  0.7811
 6049SOL    HW129871   5.949   2.275   2.688  1.6809  0.7496  0.7185
 6049SOL    HW229872   5.967   2.158   2.593 -1.0006  0.0033  1.0536
 6050SOL     OW29873   4.289   1.783   5.994 -0.2848 -0.5559  0.5100
 6050SOL    HW129874   4.330   1.861   5.956 -1.3387 -0.5495 -0.6594
 6050SOL    HW229875   4.317   1.785   6.086  2.7649 -0.8873 -0.3144
 6051SOL     OW29876   0.131   1.167   6.499  0.8754  0.1515 -0.1504
 6051SOL    HW129877   0.208   1.126   6.459  0.1368  0.0641 -1.5323
 6051SOL    HW229878   0.141   1.260   6.480 -0.9510 -0.1700 -3.3121
 6052SOL     OW29879   2.443   0.440   7.278  0.0506 -0.7136  0.2881
 6052SOL    HW129880   2.491   0.507   7.326 -1.4410 -0.3648  1.3548
 6052SOL    HW229881   2.425   0.372   7.343 -1.7260 -0.3804  0.1932
 6053SOL     OW29882  11.589   3.334  10.116  0.2355 -0.1440  0.5577
 6053SOL    HW129883  11.584   3.429  10.116  0.3915 -0.1351  0.2064
 6053SOL    HW229884  11.548   3.308  10.199  2.4049  0.3355  1.8659
 6054SOL     OW29885   2.201   2.197   3.598  0.1804  0.4428  0.1648
 6054SOL    HW129886   2.185   2.157   3.513  0.3282 -4.1058  1.9718
 6054SOL    HW229887   2.130   2.166   3.653  1.8613  0.3756  2.4571
 6055SOL     OW29888   3.394  10.383   4.627 -0.0973  0.6282  0.2903
 6055SOL    HW129889   3.413  10.438   4.551 -0.9778  0.6770  0.0923
 6055SOL    HW229890   3.384  10.295   4.591  0.6406  0.4404  0.5170
 6056SOL     OW29891   9.043  11.648  10.551 -0.1166 -0.5556  0.0554
 6056SOL    HW129892   9.105  11.660  10.622 -0.4979  0.4850  0.2283
 6056SOL    HW229893   8.980  11.719  10.561 -1.4437 -1.6702 -0.0197
 6057SOL     OW29894   9.947   2.587   0.242 -0.2326 -0.4021 -0.0975
 6057SOL    HW129895   9.896   2.509   0.264 -1.0714 -0.0559 -0.7903
 6057SOL    HW229896   9.908   2.620   0.162  0.2408  0.6309  0.0815
 6058SOL     OW29897   3.014   7.639   4.813  0.2595 -0.7546  0.0691
 6058SOL    HW129898   2.990   7.570   4.875 -1.6207 -1.2882 -1.1370
 6058SOL    HW229899   2.936   7.695   4.809  1.1596  0.5268 -0.2023
 6059SOL     OW29900   0.826   5.041   5.416  0.0280  0.4813 -0.1642
 6059SOL    HW129901   0.766   5.110   5.443  1.1651  0.8507  1.6564
 6059SOL    HW229902   0.836   4.987   5.495  0.2699 -0.9315 -1.1281
 6060SOL     OW29903   8.494  10.420  11.102 -0.4942 -0.0830 -0.0488
 6060SOL    HW129904   8.422  10.479  11.124 -1.4765 -0.8964 -0.9888
 6060SOL    HW229905   8.557  10.475  11.054 -0.0221  0.8401  1.5367
 6061SOL     OW29906   3.810   7.962   1.608 -0.1458  0.4643 -1.0299
 6061SOL    HW129907   3.799   8.006   1.692  0.0402  0.1434 -0.8346
 6061SOL    HW229908   3.894   7.995   1.575  1.6424 -2.0672  0.5890
 6062SOL     OW29909   6.230   4.610   6.862 -0.1020  0.0900 -0.0613
 6062SOL    HW129910   6.301   4.622   6.799  0.6301 -1.4485  0.4220
 6062SOL    HW229911   6.174   4.687   6.850  0.8562  0.6082 -1.4739
 6063SOL     OW29912   7.435   0.246   9.530  0.5907 -0.0828  0.1251
 6063SOL    HW129913   7.517   0.200   9.512  0.1947 -0.6857 -0.2022
 6063SOL    HW229914   7.417   0.229   9.622 -0.5717 -2.3406 -0.4368
 6064SOL     OW29915   7.250   1.121   7.483  0.3984  0.2446  0.2661
 6064SOL    HW129916   7.320   1.058   7.502 -0.1878 -0.4962 -0.0172
 6064SOL    HW229917   7.266   1.147   7.392  0.7777  0.6970  0.4542
 6065SOL     OW29918   9.485  11.536   5.090  0.4755 -0.3770 -0.2745
 6065SOL    HW129919   9.534  11.619   5.096 -0.1325  0.1701 -2.0903
 6065SOL    HW229920   9.464  11.514   5.180  2.3019  0.4439  0.3935
 6066SOL     OW29921   3.183   8.752   7.305 -0.4469  0.1251 -0.2765
 6066SOL    HW129922   3.090   8.732   7.312 -0.3531 -0.1965  0.0868
 6066SOL    HW229923   3.214   8.695   7.234 -0.2080 -0.9833  0.6692
 6067SOL     OW29924   8.243   7.308   9.703  0.3441  0.3789 -0.3552
 6067SOL    HW129925   8.172   7.340   9.759  0.3622  0.1910 -0.2222
 6067SOL    HW229926   8.276   7.230   9.748 -0.8992 -0.8982 -1.5516
 6068SOL     OW29927   3.350   4.563   4.329 -0.0532  0.1959  0.4086
 6068SOL    HW129928   3.434   4.573   4.373 -0.1343  0.4696  0.5065
 6068SOL    HW229929   3.301   4.642   4.353  0.4714  1.1316 -1.4397
 6069SOL     OW29930  10.979   0.532  10.125 -0.8172  0.0103 -0.0510
 6069SOL    HW129931  11.021   0.449  10.144  1.5906  1.4216  1.1537
 6069SOL    HW229932  10.983   0.539  10.029  0.1679 -0.6615 -0.0728
 6070SOL     OW29933   5.276   2.986   8.299 -0.1920  0.1710  0.6102
 6070SOL    HW129934   5.196   2.980   8.246  0.2761  3.1296 -0.6068
 6070SOL    HW229935   5.274   3.075   8.335  2.8172  0.5426  0.0819
 6071SOL     OW29936   3.148   3.006  11.602 -0.3970  0.0669 -0.1608
 6071SOL    HW129937   3.149   2.914  11.577 -0.6629  0.2840 -0.9936
 6071SOL    HW229938   3.112   3.052  11.526 -1.3564  0.7335  0.6625
 6072SOL     OW29939   8.614  10.613   0.230  0.0758 -0.2800  0.0629
 6072SOL    HW129940   8.593  10.522   0.209 -0.7457 -0.1046  0.0984
 6072SOL    HW229941   8.579  10.626   0.318 -1.1720  0.5064 -0.5257
 6073SOL     OW29942   2.865   3.081   8.714 -0.1889 -0.7318 -0.1094
 6073SOL    HW129943   2.938   3.141   8.723  1.0470 -2.4540  2.4854
 6073SOL    HW229944   2.888   3.006   8.769 -3.2631 -1.9880 -0.3145
 6074SOL     OW29945   5.252   7.922   0.739  0.0443  0.2029  0.5167
 6074SOL    HW129946   5.174   7.974   0.719 -0.4706 -0.2658  1.2918
 6074SOL    HW229947   5.266   7.934   0.833  0.0960 -0.8194  0.6427
 6075SOL     OW29948  11.930   7.995   9.045  0.3457  0.3391  0.4287
 6075SOL    HW129949  11.849   7.946   9.057  0.3142  0.3681  0.3439
 6075SOL    HW229950  11.965   8.007   9.133 -0.6783  1.8853  0.6730
 6076SOL     OW29951   6.280  10.472   1.537 -0.2442  0.0388 -0.2023
 6076SOL    HW129952   6.255  10.441   1.624 -3.7118  0.5057 -0.8866
 6076SOL    HW229953   6.216  10.431   1.478  0.7022  1.3761 -2.2731
 6077SOL     OW29954   6.166   3.514   9.112 -0.2194  0.5807  0.7316
 6077SOL    HW129955   6.210   3.531   9.195 -0.8611  1.2606  0.9378
 6077SOL    HW229956   6.127   3.598   9.087 -2.3817 -0.2570  1.1243
 6078SOL     OW29957   7.983   5.918   0.495 -0.4627  0.1118 -0.1274
 6078SOL    HW129958   8.011   5.880   0.412 -1.1012 -2.6597  0.8313
 6078SOL    HW229959   7.890   5.937   0.483 -0.2166  1.2008 -0.4948
 6079SOL     OW29960  11.309   3.176   9.832  0.8526  0.3663 -0.0997
 6079SOL    HW129961  11.359   3.174   9.913  2.0669 -1.0941 -0.8224
 6079SOL    HW229962  11.324   3.090   9.793 -2.3190 -0.2124 -0.3391
 6080SOL     OW29963   5.250   2.221   2.565  0.1289  0.7057  0.0638
 6080SOL    HW129964   5.200   2.214   2.484 -0.2697 -2.0357  0.4716
 6080SOL    HW229965   5.322   2.159   2.554  1.6369  2.2319  0.7951
 6081SOL     OW29966  11.496   2.765   5.007  0.4469  0.1062 -0.3165
 6081SOL    HW129967  11.436   2.691   5.014  0.7294 -0.0285  0.7267
 6081SOL    HW229968  11.451   2.837   5.052  1.2736 -0.1315  0.9150
 6082SOL     OW29969   7.672   1.563   9.618 -0.6659 -0.3275  0.0471
 6082SOL    HW129970   7.642   1.625   9.551  0.1791  1.6472  1.4099
 6082SOL    HW229971   7.695   1.618   9.693  0.0613 -2.3244  1.3630
 6083SOL     OW29972   5.895   3.316   3.076 -0.1386 -0.5051  0.2313
 6083SOL    HW129973   5.865   3.395   3.121 -0.8305  0.1491 -1.3016
 6083SOL    HW229974   5.913   3.345   2.987  1.6187 -1.6536  0.1613
 6084SOL     OW29975   4.617   2.780  11.186  0.0840 -0.0478  0.2767
 6084SOL    HW129976   4.604   2.692  11.222 -1.1227 -0.4108 -0.9779
 6084SOL    HW229977   4.643   2.833  11.262  0.2840 -1.3553  1.1600
 6085SOL     OW29978  10.055   9.479   9.375  0.1553  0.3540 -0.2640
 6085SOL    HW129979  10.004   9.423   9.316  1.4002 -0.5696 -0.4871
 6085SOL    HW229980  10.131   9.505   9.324  0.3863  0.9624  0.3755
 6086SOL     OW29981   4.055   2.883   4.851 -0.6826  0.0159 -0.1627
 6086SOL    HW129982   4.120   2.952   4.837 -0.7248  0.4779  1.5815
 6086SOL    HW229983   4.081   2.842   4.933 -1.5641 -1.0008 -0.3682
 6087SOL     OW29984  11.416   0.645   2.305 -0.0189 -0.1023 -0.1195
 6087SOL    HW129985  11.401   0.688   2.389 -0.8017 -0.2374 -0.1778
 6087SOL    HW229986  11.356   0.690   2.245  1.5537  0.9840 -0.9535
 6088SOL     OW29987   9.542   9.853   0.828 -0.1451  0.0556 -0.1019
 6088SOL    HW129988   9.511   9.781   0.882 -0.7990  0.3096 -0.1266
 6088SOL    HW229989   9.635   9.862   0.851  0.2214 -1.4878 -0.8985
 6089SOL     OW29990   2.796   9.502   5.050  0.1093 -0.0325  0.0158
 6089SOL    HW129991   2.706   9.497   5.021 -0.4755  2.4818  1.1177
 6089SOL    HW229992   2.844   9.539   4.976  0.2613 -1.2063 -0.5052
 6090SOL     OW29993   7.920   6.188   2.875 -0.3915  0.3686  0.3767
 6090SOL    HW129994   7.931   6.255   2.943  0.9855 -0.2014  0.7584
 6090SOL    HW229995   7.961   6.110   2.912  0.6235  0.1202 -1.1851
 6091SOL     OW29996   8.814  11.804  10.559 -0.5962  0.1737  0.1507
 6091SOL    HW129997   8.857  11.882  10.524 -0.4107  0.0137  0.0193
 6091SOL    HW229998   8.787  11.829  10.647 -0.8656  0.5100 -0.0197
 6092SOL     OW29999   9.355   2.173   4.097  0.2213 -0.1480  0.5256
 6092SOL    HW130000   9.401   2.219   4.026 -1.0406  0.1222 -0.1393
 6092SOL    HW230001   9.330   2.242   4.158 -1.0965 -0.0106 -0.1456
 6093SOL     OW30002  10.060   2.635   8.592 -0.2123 -0.5296  0.1516
 6093SOL    HW130003  10.118   2.611   8.520 -0.1417 -1.6094  0.5475
 6093SOL    HW230004   9.990   2.687   8.551  0.9055  0.6209 -0.3588
 6094SOL     OW30005  10.045   9.766   0.455  0.0458 -0.2286 -0.2612
 6094SOL    HW130006  10.085   9.717   0.383 -1.6483 -0.8473 -0.8243
 6094SOL    HW230007  10.097   9.847   0.461 -1.6865  1.5099 -4.4952
 6095SOL     OW30008   8.889   0.542   7.251 -0.0582 -0.5241  0.9204
 6095SOL    HW130009   8.915   0.631   7.272 -0.4034 -0.2948  0.4144
 6095SOL    HW230010   8.953   0.513   7.185  0.6951 -1.0426  1.8532
 6096SOL     OW30011   8.079   4.369   8.514 -0.0865  0.4584  0.2105
 6096SOL    HW130012   8.016   4.303   8.542 -0.0976  0.3739 -0.0123
 6096SOL    HW230013   8.062   4.381   8.420 -1.9042  2.7284  0.7457
 6097SOL     OW30014   4.332   3.131   9.613 -0.3096 -0.4327 -0.3248
 6097SOL    HW130015   4.360   3.151   9.702 -0.8395 -1.6979  0.1530
 6097SOL    HW230016   4.388   3.185   9.557  0.7517 -0.4072  0.7247
 6098SOL     OW30017   2.069   3.853  11.473  0.2789 -0.1297 -0.6700
 6098SOL    HW130018   2.074   3.766  11.433  2.3582 -0.4302  0.0958
 6098SOL    HW230019   2.153   3.863  11.518 -1.2277  0.8272  2.2389
 6099SOL     OW30020   5.871  10.223   0.153  0.1646  0.0804  0.1216
 6099SOL    HW130021   5.889  10.153   0.215  0.4396 -0.0813 -0.1386
 6099SOL    HW230022   5.823  10.289   0.204 -1.1183 -0.7951  0.1008
 6100SOL     OW30023   1.155   4.214   5.102 -0.3351  0.5490  0.8589
 6100SOL    HW130024   1.077   4.231   5.155 -0.0313  2.0794  0.8634
 6100SOL    HW230025   1.228   4.228   5.161  0.0310  2.8040  0.0024
 6101SOL     OW30026   6.186  10.436   0.198  0.1456 -0.1020  0.1751
 6101SOL    HW130027   6.209  10.528   0.208  0.3948 -0.2423  1.0146
 6101SOL    HW230028   6.114  10.435   0.134 -0.0868  0.7039  0.4172
 6102SOL     OW30029   3.111   0.539   0.959 -0.1074 -0.3966  0.3677
 6102SOL    HW130030   3.171   0.573   1.025  0.6236  0.6060 -0.7712
 6102SOL    HW230031   3.026   0.578   0.982  0.1703  0.0625  0.6370
 6103SOL     OW30032   4.251   7.543  10.218 -0.0253  0.7646  0.0428
 6103SOL    HW130033   4.337   7.505  10.202  0.6677  2.0324  0.6620
 6103SOL    HW230034   4.248   7.556  10.312 -0.4157  1.8289 -0.1055
 6104SOL     OW30035   7.625   8.469   1.932  0.1739 -0.1990  0.2443
 6104SOL    HW130036   7.551   8.479   1.872 -0.5969  0.1721  1.2480
 6104SOL    HW230037   7.606   8.528   2.004  0.9823 -0.8155  0.9786
 6105SOL     OW30038   9.537  11.395  11.326  0.1292 -0.1276  0.1012
 6105SOL    HW130039   9.489  11.376  11.407  1.3007  0.1146  0.8695
 6105SOL    HW230040   9.521  11.319  11.271 -2.6386  0.7231 -0.4189
 6106SOL     OW30041   4.129   3.294   7.372 -0.3742 -0.1798  0.5364
 6106SOL    HW130042   4.164   3.359   7.310 -0.1060 -0.3734  0.4823
 6106SOL    HW230043   4.156   3.326   7.458 -0.2350 -0.2256  0.5093
 6107SOL     OW30044   2.378   7.242   8.621 -0.0005  0.0549 -0.0659
 6107SOL    HW130045   2.463   7.281   8.598  0.6069  0.0024  1.9045
 6107SOL    HW230046   2.393   7.148   8.618  0.5037  0.0342  1.7573
 6108SOL     OW30047   9.062   3.075   0.389 -0.0426  0.1298 -0.0212
 6108SOL    HW130048   9.046   2.983   0.367  1.3252 -0.0913 -0.1854
 6108SOL    HW230049   9.049   3.079   0.484 -0.6362 -0.1138 -0.0910
 6109SOL     OW30050   2.143   1.313   4.433  0.4935 -0.0914 -0.2591
 6109SOL    HW130051   2.166   1.223   4.412  0.0779 -0.0660 -0.8533
 6109SOL    HW230052   2.203   1.366   4.380  0.7215 -0.0191  0.0710
 6110SOL     OW30053  11.396   1.264   4.815 -0.3546 -0.0335  0.1484
 6110SOL    HW130054  11.305   1.246   4.841 -1.0596 -0.2217 -2.1792
 6110SOL    HW230055  11.400   1.237   4.723  2.6232 -1.8988  0.6877
 6111SOL     OW30056   9.067   3.560  11.414 -0.1121  0.1653  0.0661
 6111SOL    HW130057   9.006   3.583  11.483  0.9828  4.0365 -0.0203
 6111SOL    HW230058   9.146   3.533  11.460 -0.0456  0.7656  0.3115
 6112SOL     OW30059   8.934   7.387  11.796 -0.1790  0.0279  0.2142
 6112SOL    HW130060   9.004   7.452  11.804 -0.6478  0.7571 -1.2936
 6112SOL    HW230061   8.887   7.393  11.879  0.8111  0.3897  0.7710
 6113SOL     OW30062   3.342   8.322   6.193 -0.3154 -0.3768 -0.4098
 6113SOL    HW130063   3.368   8.270   6.269 -1.1622 -1.1436 -0.6247
 6113SOL    HW230064   3.423   8.332   6.142  0.1333 -0.3539  0.2900
 6114SOL     OW30065  10.638  11.086   6.264  0.0188 -0.0157  0.1435
 6114SOL    HW130066  10.561  11.109   6.211  0.8755  0.5445 -0.9015
 6114SOL    HW230067  10.662  11.167   6.308 -0.4316 -0.3764  1.0592
 6115SOL     OW30068   8.203   9.381   7.216  0.4191 -0.1457  0.4310
 6115SOL    HW130069   8.200   9.418   7.128  0.5105  0.4913  0.6893
 6115SOL    HW230070   8.228   9.455   7.272  1.4888 -0.7862  0.8424
 6116SOL     OW30071   1.382   5.165   9.722  0.4841 -0.2143 -0.5495
 6116SOL    HW130072   1.325   5.090   9.703  0.2567 -0.1921  0.0363
 6116SOL    HW230073   1.323   5.234   9.751  0.8441 -0.4009  0.7122
 6117SOL     OW30074   8.423   6.168  10.513 -0.1007  0.5286  0.3710
 6117SOL    HW130075   8.480   6.140  10.441 -0.4575 -2.1777  1.0420
 6117SOL    HW230076   8.483   6.197  10.581  0.4560 -1.0291  0.5736
 6118SOL     OW30077   6.569   6.405   4.028 -0.3634  0.2932 -0.0185
 6118SOL    HW130078   6.587   6.311   4.038 -1.1538 -0.0790 -1.7082
 6118SOL    HW230079   6.488   6.419   4.077 -2.0280 -0.6442 -2.3453
 6119SOL     OW30080   6.413   0.991   7.059  0.0106 -0.2573 -0.3264
 6119SOL    HW130081   6.441   0.902   7.036 -2.7904 -0.9396 -1.5894
 6119SOL    HW230082   6.472   1.048   7.010  1.7666 -1.3764  0.3780
 6120SOL     OW30083   7.331   3.487   6.267  0.1563  0.8037 -0.0316
 6120SOL    HW130084   7.418   3.528   6.261  0.4428 -0.0363 -2.2393
 6120SOL    HW230085   7.274   3.543   6.214  0.1309 -0.5141 -1.4492
 6121SOL     OW30086  10.193   3.485   8.936  0.4126 -0.0344  0.4721
 6121SOL    HW130087  10.201   3.405   8.988 -0.9132 -0.4006  0.1551
 6121SOL    HW230088  10.103   3.483   8.903  0.1928  1.8544  0.8712
 6122SOL     OW30089   0.575   3.828   7.534  0.3729  0.0216 -0.2338
 6122SOL    HW130090   0.560   3.905   7.480 -0.3711 -0.4008 -0.6392
 6122SOL    HW230091   0.660   3.794   7.504 -0.0524 -0.2313 -1.1690
 6123SOL     OW30092   7.974   5.632   5.836 -0.2221 -0.1788  0.1908
 6123SOL    HW130093   7.916   5.691   5.788 -0.5840  1.5939  2.6357
 6123SOL    HW230094   8.059   5.675   5.835  0.0506 -0.7062  0.1776
 6124SOL     OW30095   5.316   6.864   6.151  0.1321 -0.4942  0.6921
 6124SOL    HW130096   5.279   6.947   6.120  1.4272 -0.4891 -1.0288
 6124SOL    HW230097   5.264   6.797   6.107  0.4216 -0.5420  0.4197
 6125SOL     OW30098   7.393  11.331   7.894  0.1437  0.2878  0.3896
 6125SOL    HW130099   7.426  11.287   7.972 -1.5387 -2.2925 -0.1827
 6125SOL    HW230100   7.309  11.287   7.876  1.3193 -0.7342 -3.9312
 6126SOL     OW30101   4.698  10.580   2.885  0.2234  0.2151 -0.4315
 6126SOL    HW130102   4.607  10.560   2.864 -0.0505  0.8005  0.1509
 6126SOL    HW230103   4.694  10.623   2.970  1.0819 -0.0489 -0.2464
 6127SOL     OW30104   9.668   9.479  11.040  0.6130  0.6466 -0.5145
 6127SOL    HW130105   9.693   9.541  10.972  1.1867  1.0365  0.0434
 6127SOL    HW230106   9.727   9.404  11.028  0.1554  0.3566 -0.9676
 6128SOL     OW30107   9.066   7.926   8.924  0.5361  0.2608  0.4236
 6128SOL    HW130108   9.078   7.982   8.847 -0.0124 -0.2904 -0.0715
 6128SOL    HW230109   9.155   7.915   8.959  0.7388  0.8537  0.1195
 6129SOL     OW30110   7.015   1.962  10.255 -0.5136 -0.2168  0.4744
 6129SOL    HW130111   6.954   2.011  10.200  0.9843  1.8397  0.5584
 6129SOL    HW230112   7.055   1.898  10.195  1.4848  2.3309 -1.1051
 6130SOL     OW30113   0.796   0.815   1.485 -0.2449 -0.7272 -0.4349
 6130SOL    HW130114   0.878   0.842   1.444  1.1324 -0.6572  2.1619
 6130SOL    HW230115   0.743   0.781   1.413  2.6348 -2.1759 -2.0203
 6131SOL     OW30116   1.383   9.173   9.327  0.0473 -0.2975  0.4885
 6131SOL    HW130117   1.402   9.144   9.238 -3.8348 -0.3964 -0.5003
 6131SOL    HW230118   1.384   9.093   9.379  1.0247 -0.4255  0.2919
 6132SOL     OW30119   6.747   4.712   6.195  0.2330 -0.1555 -0.0310
 6132SOL    HW130120   6.824   4.657   6.204 -0.9827 -1.8665  0.3940
 6132SOL    HW230121   6.673   4.654   6.216 -1.1743  1.3912 -0.4822
 6133SOL     OW30122   5.026   3.533  10.895  0.5830  0.1033  0.7302
 6133SOL    HW130123   5.118   3.517  10.917  1.2702  3.7579  1.2224
 6133SOL    HW230124   5.029   3.590  10.819 -1.3473 -0.2961  0.2939
 6134SOL     OW30125   4.421   3.635   1.842 -0.0232  0.1694  0.0639
 6134SOL    HW130126   4.436   3.705   1.777  0.1457  1.2741  1.2588
 6134SOL    HW230127   4.330   3.647   1.868  0.2156  0.4219  0.8038
 6135SOL     OW30128   0.690  10.941   7.389 -0.3966 -0.3501 -0.3673
 6135SOL    HW130129   0.732  10.945   7.303 -0.3532  0.0084 -0.3323
 6135SOL    HW230130   0.761  10.956   7.451 -0.5498  0.1273 -0.3027
 6136SOL     OW30131   1.321   7.683   8.639  0.6292  0.4872 -0.4793
 6136SOL    HW130132   1.229   7.664   8.619  0.8945  0.9384 -2.2931
 6136SOL    HW230133   1.343   7.757   8.583  2.0655  0.4948  0.0549
 6137SOL     OW30134   6.458   4.530   5.682 -0.5904 -0.3824  0.0387
 6137SOL    HW130135   6.546   4.525   5.719 -0.4587  0.7902 -0.0826
 6137SOL    HW230136   6.467   4.493   5.594 -0.7641 -2.5401  0.8626
 6138SOL     OW30137   0.992   5.057   1.412  0.3351 -0.4291 -0.3603
 6138SOL    HW130138   1.082   5.082   1.394  0.0937  1.0159  0.3422
 6138SOL    HW230139   0.997   5.008   1.494  0.3932  0.3689  0.1224
 6139SOL     OW30140   7.779   6.519   6.062 -0.4280  0.4304 -0.1230
 6139SOL    HW130141   7.867   6.551   6.042 -0.6502  1.0253 -0.1802
 6139SOL    HW230142   7.721   6.582   6.020 -0.8819 -0.2428 -0.5177
 6140SOL     OW30143   8.116   8.184   8.768 -0.1193 -0.1486 -0.2356
 6140SOL    HW130144   8.091   8.248   8.834 -1.2219 -0.8083  0.0150
 6140SOL    HW230145   8.142   8.106   8.818  0.6028 -0.1240 -0.5499
 6141SOL     OW30146   8.305   6.107   4.371 -0.2553 -0.0632  0.3162
 6141SOL    HW130147   8.211   6.118   4.360  0.0042  0.4297 -2.0673
 6141SOL    HW230148   8.336   6.192   4.402 -0.6370 -0.3802  1.5948
 6142SOL     OW30149   0.888   7.116   7.179  0.0337  0.4722 -0.3556
 6142SOL    HW130150   0.807   7.163   7.199 -0.5201 -0.2553 -0.8575
 6142SOL    HW230151   0.865   7.024   7.185  0.6576  0.2496 -1.1673
 6143SOL     OW30152   4.641   0.427   6.527 -0.0006 -0.2765 -0.0397
 6143SOL    HW130153   4.732   0.448   6.506 -0.0899 -0.6250 -0.8249
 6143SOL    HW230154   4.633   0.334   6.508 -0.5511 -0.2224 -0.0983
 6144SOL     OW30155   9.700   9.341   3.913  0.0944  0.0294 -1.4200
 6144SOL    HW130156   9.678   9.287   3.988 -1.5934 -1.2995 -2.7973
 6144SOL    HW230157   9.753   9.412   3.949 -2.2416  0.5394  1.3333
 6145SOL     OW30158   8.229   8.137   3.896 -0.0322  0.0502  0.2903
 6145SOL    HW130159   8.271   8.058   3.930  1.9184  2.0299  2.9076
 6145SOL    HW230160   8.169   8.164   3.966 -0.6383  0.9460 -0.5395
 6146SOL     OW30161   5.666   7.751  11.834 -0.0723  0.3231 -0.1704
 6146SOL    HW130162   5.587   7.760  11.886  0.4640  2.4369  0.3655
 6146SOL    HW230163   5.657   7.816  11.764  1.5006  1.1673  0.3534
 6147SOL     OW30164   2.176  10.709   8.201 -0.4544 -0.1434  0.7266
 6147SOL    HW130165   2.196  10.651   8.128  0.4157 -1.3147  1.8438
 6147SOL    HW230166   2.247  10.773   8.202  0.5933 -1.2752  1.6577
 6148SOL     OW30167  10.038  11.165   8.145 -0.0577 -0.4109  0.6316
 6148SOL    HW130168  10.050  11.086   8.093 -0.1376 -0.6690  0.9952
 6148SOL    HW230169  10.095  11.152   8.221  0.2974  0.0982  0.4617
 6149SOL     OW30170   6.378   9.676  11.013  0.1768  0.0312 -0.0599
 6149SOL    HW130171   6.373   9.771  11.016  1.8835  0.1767 -0.7340
 6149SOL    HW230172   6.425   9.657  10.933 -1.3928 -1.4764 -0.6926
 6150SOL     OW30173   5.543   9.322   3.644  0.2583  0.4483 -0.3908
 6150SOL    HW130174   5.548   9.384   3.571  0.5030  0.7567 -0.1136
 6150SOL    HW230175   5.606   9.355   3.708 -0.1084  0.3002  0.0507
 6151SOL     OW30176  10.706   5.751   5.298 -0.4931  0.1763  0.0183
 6151SOL    HW130177  10.620   5.727   5.332  0.3902  0.7618  2.8894
 6151SOL    HW230178  10.699   5.844   5.279 -0.7262  0.0374 -0.6044
 6152SOL     OW30179   6.096   2.217   2.201 -0.0250  0.0402 -0.3166
 6152SOL    HW130180   6.096   2.296   2.255  0.5695 -1.0668  1.3815
 6152SOL    HW230181   6.097   2.249   2.111 -0.6148  1.9527  0.3194
 6153SOL     OW30182  11.551   1.266   3.965 -0.2541  0.1116 -0.4370
 6153SOL    HW130183  11.466   1.230   3.940 -0.2227 -0.0111 -0.3696
 6153SOL    HW230184  11.591   1.198   4.019 -1.5969  1.5297  2.5926
 6154SOL     OW30185   5.183   5.703   6.627 -0.0395  0.4343 -0.9096
 6154SOL    HW130186   5.095   5.687   6.594  0.3453  0.5283 -2.0422
 6154SOL    HW230187   5.172   5.720   6.721 -0.8579 -3.1043 -0.2303
 6155SOL     OW30188   1.644   8.474   4.712  0.1207 -0.0303  0.1647
 6155SOL    HW130189   1.584   8.427   4.655 -1.7774  1.0114  1.1916
 6155SOL    HW230190   1.666   8.554   4.664 -0.3283  0.1741  0.2956
 6156SOL     OW30191   6.479   2.020   8.441 -0.8068 -0.3487  0.3607
 6156SOL    HW130192   6.458   2.059   8.526  0.0440  3.0694 -0.8655
 6156SOL    HW230193   6.426   2.068   8.378  1.9923  0.4952 -1.5200
 6157SOL     OW30194   6.459   9.562   6.186 -0.3597  1.1442 -0.5937
 6157SOL    HW130195   6.374   9.519   6.177  0.1167 -0.1976  0.9424
 6157SOL    HW230196   6.461   9.594   6.276  0.5004  1.7667 -0.8184
 6158SOL     OW30197   0.955   5.155   6.565  0.5034  0.3786  0.0419
 6158SOL    HW130198   0.920   5.077   6.609  0.7506  0.1298 -0.1935
 6158SOL    HW230199   0.878   5.207   6.544  0.3347  0.1985  0.2066
 6159SOL     OW30200   5.598   8.599   3.724  0.0632  0.2447 -0.0060
 6159SOL    HW130201   5.662   8.532   3.701 -0.4260  0.0416 -0.8129
 6159SOL    HW230202   5.645   8.658   3.784  1.2875  0.6066 -1.2704
 6160SOL     OW30203  11.640  11.913   6.889  0.0782 -0.2506 -0.2201
 6160SOL    HW130204  11.698  11.915   6.965  1.2626  0.9422 -1.1083
 6160SOL    HW230205  11.557  11.950   6.921  0.4438 -0.0875  0.5648
 6161SOL     OW30206   3.684   8.496   1.408 -0.0789  0.0847  0.4813
 6161SOL    HW130207   3.615   8.446   1.366 -1.0159  0.4177  1.5704
 6161SOL    HW230208   3.737   8.431   1.454 -1.1932  0.0217  1.7547
 6162SOL     OW30209   2.108   5.035   0.919 -0.6008  0.0247 -0.0967
 6162SOL    HW130210   2.069   4.958   0.960  1.9746 -1.1992  0.2473
 6162SOL    HW230211   2.189   5.003   0.881  0.2258  2.4511 -0.5253
 6163SOL     OW30212  11.435  10.746   7.695  0.2505 -0.7537 -0.0556
 6163SOL    HW130213  11.384  10.668   7.671  0.2567 -0.5798 -0.6321
 6163SOL    HW230214  11.420  10.808   7.623  0.8586 -0.5064  0.0266
 6164SOL     OW30215   6.918  11.809   2.853 -0.1322  0.0582  0.1228
 6164SOL    HW130216   6.829  11.843   2.865 -0.9201 -1.1665 -1.7488
 6164SOL    HW230217   6.966  11.880   2.811 -0.6697  0.1938 -0.2726
 6165SOL     OW30218   2.927   5.050   2.342 -0.5855  0.4319 -0.0189
 6165SOL    HW130219   2.874   4.971   2.327 -1.6305  1.1464 -0.2021
 6165SOL    HW230220   2.876   5.121   2.303 -0.8246  1.5710  2.1784
 6166SOL     OW30221  10.174   7.939   7.479  0.3831  0.1517 -0.2671
 6166SOL    HW130222  10.165   7.928   7.384 -0.5577 -4.1320  0.1042
 6166SOL    HW230223  10.268   7.926   7.496  0.1943 -1.8318 -0.4883
 6167SOL     OW30224  10.377   1.630  11.462  0.1899 -0.0850 -0.4327
 6167SOL    HW130225  10.320   1.666  11.394 -0.2256  1.4016  0.6662
 6167SOL    HW230226  10.318   1.580  11.518 -0.0233  1.2359  0.5556
 6168SOL     OW30227   5.748  10.466   0.755  0.5018 -0.0365 -0.2896
 6168SOL    HW130228   5.805  10.541   0.741 -0.3893  0.4261 -1.6680
 6168SOL    HW230229   5.790  10.394   0.708  0.4174  0.0664 -0.5218
 6169SOL     OW30230   3.350   8.528   0.199  0.7522  0.6173 -0.0346
 6169SOL    HW130231   3.277   8.561   0.252  0.1112 -0.8979  0.0684
 6169SOL    HW230232   3.428   8.563   0.242  0.2115 -0.0735  1.5570
 6170SOL     OW30233   4.956   1.297   8.512  0.1148 -1.0641 -0.1019
 6170SOL    HW130234   5.026   1.325   8.453 -0.5609 -0.2752 -0.5390
 6170SOL    HW230235   4.889   1.260   8.454 -0.9672  0.5636  0.0373
 6171SOL     OW30236   1.444   1.376   6.265 -0.1451  0.7127  0.4104
 6171SOL    HW130237   1.525   1.359   6.217 -0.1942  0.6622  0.3459
 6171SOL    HW230238   1.438   1.307   6.330  0.0935  0.9728  0.7112
 6172SOL     OW30239   8.859   3.365   9.634  0.2071 -0.0733 -0.0441
 6172SOL    HW130240   8.907   3.351   9.552  0.3017 -0.8785  0.1394
 6172SOL    HW230241   8.793   3.296   9.635  0.4455 -0.2942  0.7258
 6173SOL     OW30242  10.845  10.156  10.759  0.0978 -0.1783  0.2659
 6173SOL    HW130243  10.864  10.223  10.693  0.1992 -1.2516 -0.8434
 6173SOL    HW230244  10.930  10.116  10.777 -0.0470 -0.3934  0.4784
 6174SOL     OW30245   2.725   1.967   6.579  0.3561 -0.0051 -0.4328
 6174SOL    HW130246   2.673   2.013   6.514  0.4727 -0.1192 -0.6095
 6174SOL    HW230247   2.789   2.032   6.609  0.4293 -0.0096 -0.5777
 6175SOL     OW30248  10.506   0.895   2.807 -0.2772 -0.4289  0.0148
 6175SOL    HW130249  10.570   0.874   2.875  0.3309  0.0961 -0.3722
 6175SOL    HW230250  10.530   0.838   2.734  0.0728  0.1034 -0.3011
 6176SOL     OW30251   7.682   3.058   4.862 -0.5348  0.0448 -0.1466
 6176SOL    HW130252   7.641   3.118   4.925  0.7497 -0.7635  1.5370
 6176SOL    HW230253   7.775   3.075   4.870 -0.2258 -1.3860 -0.4845
 6177SOL     OW30254   8.467   6.264   1.849  0.7930 -0.6210 -0.3290
 6177SOL    HW130255   8.423   6.229   1.772 -0.2837 -1.1744  0.5128
 6177SOL    HW230256   8.397   6.287   1.909  1.6175 -0.6362  0.6784
 6178SOL     OW30257   5.731   8.654   4.801 -0.6117 -0.6504 -0.4439
 6178SOL    HW130258   5.777   8.653   4.717 -0.3814 -0.6678 -0.3198
 6178SOL    HW230259   5.766   8.577   4.848  0.2730  0.1239  0.2069
 6179SOL     OW30260   2.765   3.119   7.465  0.3374  0.1494  0.6437
 6179SOL    HW130261   2.672   3.112   7.444  0.7778 -0.7081 -1.2285
 6179SOL    HW230262   2.789   3.208   7.438  0.4321 -0.2431 -0.6414
 6180SOL     OW30263   4.907   3.573   3.299 -0.0205 -0.0713  0.1370
 6180SOL    HW130264   4.985   3.565   3.353 -0.8807 -2.5288  1.1280
 6180SOL    HW230265   4.927   3.645   3.239  2.1338  0.7669  1.7395
 6181SOL     OW30266   9.630   2.052  10.846 -0.2953  0.4855  0.1324
 6181SOL    HW130267   9.718   2.089  10.848  0.1078 -0.4641  0.7157
 6181SOL    HW230268   9.597   2.065  10.935  0.5027 -2.0130  0.8553
 6182SOL     OW30269   1.612   4.079   6.205 -0.4720 -0.1638  0.7374
 6182SOL    HW130270   1.617   4.117   6.117 -3.9377  0.6139  0.7533
 6182SOL    HW230271   1.681   4.123   6.254  0.3797  0.6800 -1.1116
 6183SOL     OW30272   3.423   5.478   2.324 -0.0743  0.1695  0.0287
 6183SOL    HW130273   3.484   5.477   2.398  0.3358 -0.1755 -0.3122
 6183SOL    HW230274   3.338   5.495   2.364  0.0244 -0.7867  0.6660
 6184SOL     OW30275   7.511   3.874   1.831  0.5132  0.0164 -0.5014
 6184SOL    HW130276   7.469   3.955   1.861 -0.4277 -1.1481  1.6257
 6184SOL    HW230277   7.596   3.873   1.875 -0.6148 -1.3950  1.8759
 6185SOL     OW30278  10.649   0.227   4.649 -0.1179 -0.3746  0.2703
 6185SOL    HW130279  10.619   0.141   4.618 -1.2108  0.1102 -0.0545
 6185SOL    HW230280  10.647   0.283   4.571  2.3098 -0.4512  0.0599
 6186SOL     OW30281   5.631   4.782   4.979  0.1867  0.6197  0.1979
 6186SOL    HW130282   5.565   4.749   4.918  0.0568 -0.0967  0.7155
 6186SOL    HW230283   5.585   4.790   5.063  0.3668  1.5889  0.2176
 6187SOL     OW30284   3.165   4.484  11.664  0.0372 -0.3564  0.4384
 6187SOL    HW130285   3.216   4.524  11.734 -1.0562  2.4429 -0.2076
 6187SOL    HW230286   3.077   4.473  11.701  0.0199 -1.0924  0.2092
 6188SOL     OW30287   2.343   5.505   2.273  0.2477 -0.7048 -0.6506
 6188SOL    HW130288   2.297   5.479   2.353 -1.5532  0.8389 -1.1113
 6188SOL    HW230289   2.396   5.429   2.250 -2.4889 -2.8599 -0.3386
 6189SOL     OW30290   3.761   8.415   9.590 -0.0553  0.4023  0.4239
 6189SOL    HW130291   3.743   8.397   9.497  0.6903 -1.3546  0.5660
 6189SOL    HW230292   3.677   8.407   9.633 -0.1564 -0.4721  0.0994
 6190SOL     OW30293   7.465   7.875   6.661 -0.2436  0.3942 -0.1996
 6190SOL    HW130294   7.386   7.924   6.687 -0.3215 -0.0530  0.4295
 6190SOL    HW230295   7.536   7.938   6.668 -0.5102  0.7291 -0.5047
 6191SOL     OW30296   4.235  10.405   9.317 -0.3721  0.1892  0.2643
 6191SOL    HW130297   4.175  10.383   9.389 -2.0196 -0.1309 -1.1405
 6191SOL    HW230298   4.290  10.327   9.307 -0.6579 -0.0651  0.6597
 6192SOL     OW30299   3.050  10.824   0.892  0.1677  0.4793  0.0573
 6192SOL    HW130300   3.060  10.905   0.841  0.2451  0.6704  0.3719
 6192SOL    HW230301   2.993  10.769   0.838  0.5979  0.5056 -0.4372
 6193SOL     OW30302   6.994   4.316   6.780  0.0297 -0.2986  0.0557
 6193SOL    HW130303   7.027   4.284   6.696 -0.0668  1.2822 -0.6280
 6193SOL    HW230304   6.899   4.315   6.770  0.0279  1.7123 -0.6425
 6194SOL     OW30305   2.741   8.256   6.467  0.0647 -0.2773 -0.7078
 6194SOL    HW130306   2.734   8.248   6.562 -0.9416 -1.9013 -0.8914
 6194SOL    HW230307   2.704   8.342   6.448 -0.5638 -0.3084  0.2896
 6195SOL     OW30308  10.763   6.773  10.568  0.0257 -0.0223  0.4947
 6195SOL    HW130309  10.768   6.703  10.503 -0.2315  0.5542 -0.1706
 6195SOL    HW230310  10.715   6.735  10.641 -1.5735 -0.0866 -0.5164
 6196SOL     OW30311   5.558   7.461   2.357  0.6369  0.3810 -0.4323
 6196SOL    HW130312   5.540   7.373   2.391  0.5572  0.6363  0.2114
 6196SOL    HW230313   5.564   7.450   2.262 -1.1258 -0.0332 -0.5299
 6197SOL     OW30314   9.382   8.265   7.423 -0.4744  0.0182 -0.1786
 6197SOL    HW130315   9.311   8.329   7.426 -0.6506 -0.1644 -0.4018
 6197SOL    HW230316   9.416   8.263   7.512  0.5918  1.5953 -0.4935
 6198SOL     OW30317   5.600   4.476   6.710 -0.0223 -0.4146  0.2507
 6198SOL    HW130318   5.648   4.485   6.792 -0.9275  1.1859  0.6543
 6198SOL    HW230319   5.633   4.395   6.672  1.1629 -0.6628  1.6923
 6199SOL     OW30320   3.465  11.880   2.821 -0.5014  0.4969 -0.2312
 6199SOL    HW130321   3.559  11.898   2.825 -0.4577  0.5806 -1.2134
 6199SOL    HW230322   3.455  11.825   2.743 -1.0546 -0.9922  0.8429
 6200SOL     OW30323   6.943   9.014  11.495  0.1763  0.4308  0.1246
 6200SOL    HW130324   6.856   8.977  11.480 -0.3571  1.0431  1.4933
 6200SOL    HW230325   6.928   9.109  11.499  0.5425  0.4486  2.2739
 6201SOL     OW30326   1.322   3.077   1.952 -0.6110 -0.1924  0.3652
 6201SOL    HW130327   1.400   3.130   1.965 -0.1392 -0.6469 -0.5243
 6201SOL    HW230328   1.318   3.020   2.028 -0.6660  0.5458  0.9254
 6202SOL     OW30329  11.314   6.464   7.992  0.2741  0.5295  0.9728
 6202SOL    HW130330  11.387   6.513   8.029  0.3439  0.5747  0.7768
 6202SOL    HW230331  11.236   6.501   8.033  0.2833  1.1607  0.4415
 6203SOL     OW30332   8.558   2.483  10.285  0.2274 -0.3916 -0.7713
 6203SOL    HW130333   8.532   2.554  10.225 -0.2455  0.4134  0.3508
 6203SOL    HW230334   8.638   2.447  10.246 -0.5272 -0.4665 -2.3373
 6204SOL     OW30335   8.420   3.712   9.870 -0.1068  0.4617 -0.0925
 6204SOL    HW130336   8.340   3.724   9.922 -0.5784 -1.3275 -0.3501
 6204SOL    HW230337   8.467   3.795   9.880 -0.2699  0.2900  3.0185
 6205SOL     OW30338   5.174  11.653  10.683  0.2543  0.1253 -0.1655
 6205SOL    HW130339   5.242  11.589  10.660  0.6802  0.4663  0.1328
 6205SOL    HW230340   5.093  11.602  10.681  0.3374 -0.0175 -1.7748
 6206SOL     OW30341   6.172   3.261   0.348 -0.7299  0.8108  0.2961
 6206SOL    HW130342   6.218   3.326   0.403  0.4669  0.8418 -0.6903
 6206SOL    HW230343   6.220   3.180   0.362 -0.6150  0.7440 -0.4285
 6207SOL     OW30344   8.322   1.799   4.843  0.2369 -0.3206  0.0358
 6207SOL    HW130345   8.296   1.861   4.776  1.2232 -0.2863 -0.3358
 6207SOL    HW230346   8.358   1.725   4.795 -0.2906 -0.8882  0.4955
 6208SOL     OW30347  10.849   2.805   2.272 -0.0269 -0.0916  0.0598
 6208SOL    HW130348  10.888   2.773   2.191  0.1888 -1.2524  0.5986
 6208SOL    HW230349  10.768   2.755   2.281  0.9847 -1.5416  1.6094
 6209SOL     OW30350   4.931   0.072   8.922  0.0353 -0.5404  0.4120
 6209SOL    HW130351   4.879   0.044   8.846  1.6776 -0.8274 -0.6488
 6209SOL    HW230352   4.880   0.143   8.961 -0.9110 -0.4820 -0.8716
 6210SOL     OW30353   3.895  10.372   2.644 -0.1302  0.0350 -0.0006
 6210SOL    HW130354   3.985  10.383   2.613 -0.7284  2.9026 -1.0555
 6210SOL    HW230355   3.895  10.413   2.731 -0.5148  0.5508 -0.2389
 6211SOL     OW30356   8.696   9.071  10.540  0.1526  0.2841 -0.2353
 6211SOL    HW130357   8.712   9.042  10.630 -1.0831  0.6945  0.1324
 6211SOL    HW230358   8.667   9.162  10.548 -1.3157 -0.0964 -0.9199
 6212SOL     OW30359   8.983   9.264   6.387  0.3472  0.3524  0.0748
 6212SOL    HW130360   9.032   9.344   6.406  1.5672 -0.5924  1.0456
 6212SOL    HW230361   8.934   9.285   6.308  1.3024  1.7834 -0.1797
 6213SOL     OW30362   2.680   1.528  11.354  0.1496 -0.6460  0.4682
 6213SOL    HW130363   2.667   1.447  11.304  0.0128 -0.9793  1.0219
 6213SOL    HW230364   2.670   1.500  11.445 -1.3489  0.2686  0.6107
 6214SOL     OW30365   3.106   8.841  11.114  0.4984 -0.4229  0.0679
 6214SOL    HW130366   3.048   8.774  11.079  1.7023 -0.8615 -1.1621
 6214SOL    HW230367   3.186   8.794  11.137  1.2566  0.5334 -0.5421
 6215SOL     OW30368   6.743   2.267   6.026 -0.2681  0.4532  0.3608
 6215SOL    HW130369   6.770   2.304   6.111  1.2175 -0.6141  0.4030
 6215SOL    HW230370   6.815   2.208   6.003 -1.1942 -0.1321 -1.1081
 6216SOL     OW30371   6.830   3.506   1.443  0.6267 -0.3765 -0.1834
 6216SOL    HW130372   6.850   3.436   1.380  0.9888  0.0407 -0.5433
 6216SOL    HW230373   6.826   3.586   1.390  1.0019 -0.0058  0.3305
 6217SOL     OW30374   7.530   5.336   3.114 -0.0438  0.2207  0.0141
 6217SOL    HW130375   7.582   5.413   3.136 -0.4862  0.6253 -0.3268
 6217SOL    HW230376   7.543   5.276   3.188  0.9078  0.3063 -0.0763
 6218SOL     OW30377   0.092  10.640   6.623 -0.1953 -0.3519  0.4246
 6218SOL    HW130378   0.146  10.714   6.596 -1.9266  1.0594  0.6563
 6218SOL    HW230379   0.155  10.575   6.654  1.7013 -0.6567 -3.4161
 6219SOL     OW30380   3.049   9.558   5.432 -0.0741 -0.2321 -0.2001
 6219SOL    HW130381   2.966   9.541   5.477  0.7435 -0.4508  1.3048
 6219SOL    HW230382   3.113   9.507   5.482  1.4332  2.1537  0.4320
 6220SOL     OW30383   0.445   6.828  10.664  0.2044 -0.5847  0.1641
 6220SOL    HW130384   0.400   6.906  10.697 -0.0815 -0.2380 -0.9975
 6220SOL    HW230385   0.408   6.756  10.715  0.5633  0.0506  1.3401
 6221SOL     OW30386   2.474  10.676   5.400  0.5963  0.1967 -0.0897
 6221SOL    HW130387   2.433  10.654   5.316 -0.0763 -0.9373  0.5001
 6221SOL    HW230388   2.411  10.645   5.466  2.1994 -1.2524  0.8492
 6222SOL     OW30389   8.138  11.732   7.629 -0.3783 -0.0100 -0.1829
 6222SOL    HW130390   8.063  11.775   7.588 -1.4542 -0.5123  1.1712
 6222SOL    HW230391   8.156  11.784   7.708  1.3793  0.6979 -0.9858
 6223SOL     OW30392   8.430   7.201   4.730 -0.5071 -0.6645  0.0143
 6223SOL    HW130393   8.447   7.160   4.645  0.9595  2.2378 -1.2392
 6223SOL    HW230394   8.446   7.132   4.793 -0.2103 -2.5536 -2.0076
 6224SOL     OW30395   6.406   6.554   6.513 -0.2210  0.2386 -0.3153
 6224SOL    HW130396   6.408   6.497   6.436 -1.5506  0.6873 -0.7207
 6224SOL    HW230397   6.470   6.517   6.573 -0.0282 -0.8283 -1.1597
 6225SOL     OW30398  10.934   7.797   6.493  0.6988 -0.3515 -0.0680
 6225SOL    HW130399  10.873   7.791   6.419 -1.3322 -3.1555  1.6464
 6225SOL    HW230400  10.902   7.872   6.544  1.5386  1.0067 -1.4574
 6226SOL     OW30401   3.403   6.920  10.100 -0.3480 -0.5726  0.0291
 6226SOL    HW130402   3.399   6.838  10.052  0.4423 -0.4538 -0.2603
 6226SOL    HW230403   3.465   6.903  10.172  0.8633  0.1304 -0.8054
 6227SOL     OW30404   8.698   6.548   8.473  0.1368  0.8677 -0.2811
 6227SOL    HW130405   8.759   6.588   8.411  1.0611  0.6216  0.4347
 6227SOL    HW230406   8.742   6.558   8.558 -0.1416 -0.6224  0.0607
 6228SOL     OW30407   5.279   0.558  10.227 -0.2426  0.2985  0.4955
 6228SOL    HW130408   5.298   0.649  10.205 -1.5818  1.1140  2.4828
 6228SOL    HW230409   5.254   0.518  10.143  3.3643  0.8115 -1.0506
 6229SOL     OW30410   1.858   9.306   9.920 -0.4524  0.3260  0.2113
 6229SOL    HW130411   1.782   9.265   9.880  0.4044 -0.7647 -0.3287
 6229SOL    HW230412   1.934   9.262   9.882  0.5254  2.3292 -0.3351
 6230SOL     OW30413   5.537  10.986   5.578  0.0432  0.0231 -0.5578
 6230SOL    HW130414   5.553  11.075   5.546 -1.0282  0.2056 -0.6146
 6230SOL    HW230415   5.447  10.988   5.609  0.9494 -0.1799  2.3781
 6231SOL     OW30416   6.504   4.168   0.224  0.1110 -0.1946  0.2050
 6231SOL    HW130417   6.430   4.162   0.163 -1.1568 -5.7590  1.7493
 6231SOL    HW230418   6.582   4.156   0.169 -0.6300 -0.4107 -0.8269
 6232SOL     OW30419   7.579   5.572   4.174 -0.0447  0.4204  1.3626
 6232SOL    HW130420   7.514   5.625   4.128 -0.3879 -0.5492  0.6938
 6232SOL    HW230421   7.574   5.486   4.132  1.2983  0.1766  1.6521
 6233SOL     OW30422   7.990   7.753   2.186  0.0836 -0.2736  0.4147
 6233SOL    HW130423   8.057   7.816   2.162  0.8585 -1.0529  0.4651
 6233SOL    HW230424   7.986   7.692   2.112 -0.1623 -0.5532  0.6523
 6234SOL     OW30425   4.328   4.301   1.749 -0.1277 -0.3764  0.0372
 6234SOL    HW130426   4.325   4.299   1.653 -0.2796  1.6559 -0.0604
 6234SOL    HW230427   4.377   4.381   1.769  2.3882 -2.1758  1.6887
 6235SOL     OW30428   2.819   3.841   4.303  0.2231  0.4064  0.2111
 6235SOL    HW130429   2.853   3.762   4.345 -1.3903  0.0219  0.8672
 6235SOL    HW230430   2.819   3.820   4.209 -1.5577 -0.9727  0.4778
 6236SOL     OW30431  10.011   8.272   5.670 -0.1601  0.0217  0.3896
 6236SOL    HW130432   9.970   8.331   5.606 -0.3607  1.6722  1.9498
 6236SOL    HW230433   9.983   8.306   5.755  1.4740 -1.0579  1.4127
 6237SOL     OW30434   9.424   9.060  10.036  0.2160  0.1344  0.2913
 6237SOL    HW130435   9.420   8.964  10.031 -0.1637  0.2038 -1.0873
 6237SOL    HW230436   9.340   9.090   9.999 -0.8320  0.9860  3.0563
 6238SOL     OW30437   1.739  11.278   6.686  0.6025 -0.7466 -0.5995
 6238SOL    HW130438   1.775  11.366   6.683 -2.2579  1.2081  5.3609
 6238SOL    HW230439   1.650  11.287   6.652  0.1956 -1.1522  0.3008
 6239SOL     OW30440   4.621  10.888   0.864 -0.3404 -0.3638  0.2412
 6239SOL    HW130441   4.576  10.903   0.947  2.3871  0.4639  1.7026
 6239SOL    HW230442   4.635  10.975   0.828  0.4306 -0.5767  0.0106
 6240SOL     OW30443   6.624   6.117   3.727 -0.1916  0.4390  0.3686
 6240SOL    HW130444   6.604   6.027   3.701 -0.9900  0.4725  0.8376
 6240SOL    HW230445   6.538   6.160   3.733  0.0611  0.7878  1.7614
 6241SOL     OW30446   4.081   7.956   3.818 -0.0603  0.5835 -0.1686
 6241SOL    HW130447   4.051   8.037   3.860  1.0825  0.5805  0.7141
 6241SOL    HW230448   4.056   7.966   3.727  0.2096  2.0255 -0.1130
 6242SOL     OW30449   3.745   8.852  10.351 -0.2407  0.0854  0.0047
 6242SOL    HW130450   3.754   8.923  10.287  0.4103 -0.3231 -0.3772
 6242SOL    HW230451   3.653   8.827  10.347 -0.3011  0.3708 -0.4573
 6243SOL     OW30452   2.638   5.521  11.836  0.2125  0.2856 -0.2482
 6243SOL    HW130453   2.682   5.486  11.759  0.9024 -1.2145  0.7687
 6243SOL    HW230454   2.556   5.556  11.803 -0.1213 -1.5409 -1.5141
 6244SOL     OW30455   8.134   0.962   0.078  0.3564 -0.6993  0.3624
 6244SOL    HW130456   8.136   0.938  -0.015 -0.6432 -0.2626  0.2237
 6244SOL    HW230457   8.047   0.999   0.092  0.6831 -0.2726  1.3567
 6245SOL     OW30458   1.778   9.090  11.759  0.3492  0.8805  0.2440
 6245SOL    HW130459   1.717   9.070  11.830  2.2363 -0.4815  1.5596
 6245SOL    HW230460   1.782   9.186  11.758 -1.7211  1.0032  0.1629
 6246SOL     OW30461   6.820   3.516   2.673  0.6742  0.3855 -0.1727
 6246SOL    HW130462   6.748   3.455   2.685 -0.5343  1.4125 -1.8157
 6246SOL    HW230463   6.820   3.569   2.753  1.2380 -1.1919  0.9182
 6247SOL     OW30464   0.199   3.768   6.492 -0.2833 -0.3592  0.0156
 6247SOL    HW130465   0.144   3.816   6.431  0.5286 -0.1517 -0.5745
 6247SOL    HW230466   0.175   3.803   6.578 -2.4521 -1.6668 -0.0084
 6248SOL     OW30467   8.556   2.095   7.979 -0.0059  0.3875 -0.2884
 6248SOL    HW130468   8.495   2.118   7.908  0.2655  2.4414  0.1072
 6248SOL    HW230469   8.638   2.137   7.954  0.8496 -1.0383 -0.0061
 6249SOL     OW30470   7.691   7.985   9.941 -0.5241  0.2956  0.0425
 6249SOL    HW130471   7.677   7.972   9.848 -0.5580 -0.2304  0.1180
 6249SOL    HW230472   7.782   7.961   9.956 -0.6664 -0.1428  0.2332
 6250SOL     OW30473   7.135   6.556   6.012  0.1707 -0.4938  0.1340
 6250SOL    HW130474   7.060   6.500   6.032  0.3143 -1.2027 -1.2235
 6250SOL    HW230475   7.104   6.615   5.944 -0.0013  1.1847  1.5911
 6251SOL     OW30476   8.726   2.184   0.393  0.2661  1.2080  0.6359
 6251SOL    HW130477   8.643   2.225   0.367  0.0331  0.4916  0.2230
 6251SOL    HW230478   8.700   2.117   0.456  0.4488  0.5137 -0.0165
 6252SOL     OW30479  11.457   0.869   4.733 -0.1542 -0.0049 -0.0154
 6252SOL    HW130480  11.363   0.849   4.738  0.0343 -0.7364  0.9099
 6252SOL    HW230481  11.478   0.906   4.819 -0.2634  3.3988 -1.2659
 6253SOL     OW30482   6.020   2.587   4.514  0.1261 -0.0041  0.1421
 6253SOL    HW130483   5.943   2.531   4.505  1.0086 -1.1700 -0.3944
 6253SOL    HW230484   6.048   2.574   4.605 -0.9586  1.3451  0.7146
 6254SOL     OW30485   6.255   3.918   0.959  0.1260  0.7612 -0.5907
 6254SOL    HW130486   6.341   3.934   0.921  0.4879 -0.9455 -0.5508
 6254SOL    HW230487   6.229   3.832   0.927 -1.2547  0.9326 -0.0312
 6255SOL     OW30488  11.537   3.446   5.556 -0.1723 -0.4086  0.0750
 6255SOL    HW130489  11.597   3.405   5.493 -0.4087  0.0061 -0.4332
 6255SOL    HW230490  11.477   3.376   5.581 -0.3277 -0.4818 -0.4819
 6256SOL     OW30491   3.809   5.671   0.935 -0.0159  0.4580 -0.6614
 6256SOL    HW130492   3.800   5.639   1.024 -0.9265 -1.2784 -1.3280
 6256SOL    HW230493   3.884   5.624   0.899 -1.2171 -0.8491 -1.5776
 6257SOL     OW30494  10.609   3.544   3.194  0.4085 -0.5266 -0.1200
 6257SOL    HW130495  10.528   3.518   3.237  0.4276  0.2585  0.4050
 6257SOL    HW230496  10.640   3.620   3.244  0.2299  0.6647 -1.7538
 6258SOL     OW30497   3.351   7.504   3.968 -0.6408  0.1953  0.8614
 6258SOL    HW130498   3.434   7.525   3.925 -1.0309 -0.3493 -0.1884
 6258SOL    HW230499   3.286   7.554   3.920 -0.9954  0.2283  1.3650
 6259SOL     OW30500   4.093   0.662   5.601 -0.2456  0.1709 -0.2160
 6259SOL    HW130501   4.004   0.689   5.576 -0.4745 -0.0271  0.3678
 6259SOL    HW230502   4.149   0.697   5.531 -0.9279 -0.9043 -1.3459
 6260SOL     OW30503   1.608   6.005   4.323  0.6786  0.5979 -0.0385
 6260SOL    HW130504   1.555   5.929   4.346  2.2435 -0.3566  0.5601
 6260SOL    HW230505   1.588   6.021   4.231  1.4121 -1.5024 -0.6232
 6261SOL     OW30506  10.196  10.755  11.112  0.6084  0.6737 -0.4556
 6261SOL    HW130507  10.253  10.684  11.083  1.0780  0.7333  0.3034
 6261SOL    HW230508  10.241  10.835  11.084  0.3238  0.6880 -0.8756
 6262SOL     OW30509   8.451   0.863   7.552 -0.2142  0.1012  0.2906
 6262SOL    HW130510   8.509   0.800   7.510  3.1170  2.1547  1.4162
 6262SOL    HW230511   8.447   0.834   7.643  2.2083  1.8886  1.0691
 6263SOL     OW30512   4.441   6.838   7.697  0.0994 -0.0769 -0.1244
 6263SOL    HW130513   4.390   6.809   7.621 -0.7557  0.8170  0.0832
 6263SOL    HW230514   4.511   6.891   7.661  0.2852 -0.4742 -0.3505
 6264SOL     OW30515   5.338   2.437   1.813  0.0909 -0.1383 -0.3234
 6264SOL    HW130516   5.330   2.349   1.851  0.4143  0.1766  0.5122
 6264SOL    HW230517   5.381   2.422   1.728 -1.3473 -0.9377 -0.9475
 6265SOL     OW30518   7.884   9.823   4.588 -0.4202 -0.6536 -0.4430
 6265SOL    HW130519   7.921   9.739   4.558  1.5317  0.8166 -2.5348
 6265SOL    HW230520   7.942   9.851   4.659  0.7549  0.2084 -1.6819
 6266SOL     OW30521   6.038   7.518   0.135  0.3830 -0.1667  0.7674
 6266SOL    HW130522   5.977   7.515   0.061  0.3832  1.0255  0.7056
 6266SOL    HW230523   6.078   7.431   0.136  0.2336 -0.2679 -0.4996
 6267SOL     OW30524   0.682   8.751   8.066 -0.1137 -0.5045  0.5910
 6267SOL    HW130525   0.752   8.738   8.002 -0.6083 -2.7228  0.4436
 6267SOL    HW230526   0.723   8.733   8.151 -0.4849 -1.7982  0.5056
 6268SOL     OW30527   2.602   5.544   4.486  0.1097 -0.2844 -0.2568
 6268SOL    HW130528   2.696   5.536   4.500  0.2118 -0.4818 -0.9852
 6268SOL    HW230529   2.580   5.470   4.430 -0.7382 -1.0581  1.0340
 6269SOL     OW30530   0.914   3.278   7.703  0.4760 -0.3189 -0.1953
 6269SOL    HW130531   0.827   3.308   7.729  0.8945  0.2784  0.5655
 6269SOL    HW230532   0.924   3.194   7.748  0.6121  0.0035  0.3836
 6270SOL     OW30533   6.960   7.115   4.092 -0.0924 -0.3587 -0.4799
 6270SOL    HW130534   6.945   7.207   4.071 -0.2680 -0.9458 -3.4282
 6270SOL    HW230535   6.880   7.087   4.137  0.6137  1.2221  1.9473
 6271SOL     OW30536   9.358   7.150   0.431 -0.9486 -0.1017  0.2447
 6271SOL    HW130537   9.311   7.102   0.363 -1.2182  2.3431 -1.3895
 6271SOL    HW230538   9.303   7.226   0.450  0.4083  0.6760  1.2564
 6272SOL     OW30539   5.705   9.064  10.122 -0.1648 -0.1999  0.9681
 6272SOL    HW130540   5.635   9.001  10.111  0.2558 -0.3763 -1.2541
 6272SOL    HW230541   5.673   9.144  10.081  0.6180 -0.0327  0.6571
 6273SOL     OW30542   8.674   5.898   2.515  0.1894  0.2783 -0.3310
 6273SOL    HW130543   8.594   5.950   2.520  1.0680  1.6648  0.0845
 6273SOL    HW230544   8.670   5.854   2.431 -0.3266  1.5058 -0.9647
 6274SOL     OW30545   4.220   2.065  10.424 -0.1467 -0.3301 -0.3707
 6274SOL    HW130546   4.150   2.010  10.390  0.6487 -0.4474 -1.8745
 6274SOL    HW230547   4.290   2.004  10.445 -0.4174 -0.2026  1.0324
 6275SOL     OW30548   4.428   4.618   8.811 -0.1641 -0.4152  0.0544
 6275SOL    HW130549   4.367   4.545   8.805 -1.0972  0.3697 -0.3213
 6275SOL    HW230550   4.506   4.582   8.854 -0.1058 -1.9341 -1.2555
 6276SOL     OW30551   6.809   6.076   5.181 -0.3665 -0.5110  0.3267
 6276SOL    HW130552   6.722   6.070   5.222  0.0811 -1.6895  1.1654
 6276SOL    HW230553   6.850   5.992   5.200 -0.3860 -1.5011 -3.2610
 6277SOL     OW30554   3.417   3.169   0.655 -0.2957  0.2164 -0.4841
 6277SOL    HW130555   3.362   3.242   0.625 -0.6614 -0.0516 -0.4815
 6277SOL    HW230556   3.358   3.093   0.653  0.3557 -0.2664 -1.4076
 6278SOL     OW30557   2.855   9.089   4.936  0.0452  0.0269  0.6367
 6278SOL    HW130558   2.926   9.097   4.871  1.9109  0.5428  2.6365
 6278SOL    HW230559   2.777   9.071   4.883  0.9892  2.6869 -1.9986
 6279SOL     OW30560   0.584   8.379   6.380 -0.0696  0.6200 -0.1517
 6279SOL    HW130561   0.654   8.326   6.418  0.6096  1.7963  0.2953
 6279SOL    HW230562   0.524   8.316   6.340  0.8043 -0.4566  0.2098
 6280SOL     OW30563   3.999  10.351   6.250 -0.0746  0.4585 -0.5532
 6280SOL    HW130564   4.055  10.283   6.215  1.4801  2.0074 -1.2518
 6280SOL    HW230565   4.035  10.370   6.337 -0.1758  0.7552 -0.5745
 6281SOL     OW30566   2.649   4.988   0.380 -0.4151  0.0242  0.3938
 6281SOL    HW130567   2.716   4.920   0.378  0.1393  0.5838 -0.5797
 6281SOL    HW230568   2.616   4.992   0.290  0.0433  1.4999  0.2680
 6282SOL     OW30569   4.241  10.393   2.114 -0.1073 -0.1201 -0.5630
 6282SOL    HW130570   4.333  10.416   2.124 -0.2583 -0.2185  1.5717
 6282SOL    HW230571   4.217  10.353   2.198 -1.9480 -0.6286 -1.2727
 6283SOL     OW30572   2.538   7.592   9.901  0.0159 -0.0491 -0.0074
 6283SOL    HW130573   2.521   7.549   9.985  2.1004 -4.4844 -1.5269
 6283SOL    HW230574   2.465   7.564   9.845  1.2589 -1.6176 -0.9451
 6284SOL     OW30575  10.996   6.317   5.319  0.2279  0.5440  0.4941
 6284SOL    HW130576  11.064   6.264   5.277 -0.5197 -0.8041  0.8990
 6284SOL    HW230577  11.036   6.346   5.401  0.6171  0.5353  0.3090
 6285SOL     OW30578   1.053  10.543  11.719  0.4112 -0.1759  0.0011
 6285SOL    HW130579   1.083  10.457  11.688 -0.8048 -0.4991 -0.3270
 6285SOL    HW230580   0.959  10.543  11.702  0.0023  0.3701  2.0134
 6286SOL     OW30581   5.537   3.215   4.991  0.2775  0.1327  0.5142
 6286SOL    HW130582   5.481   3.196   4.916  0.9788 -2.6907  0.5778
 6286SOL    HW230583   5.477   3.241   5.061 -0.5644  0.7529 -0.4081
 6287SOL     OW30584   6.056   4.594   0.284 -0.5703  0.0396 -0.1602
 6287SOL    HW130585   6.104   4.519   0.248 -1.3065 -0.5147  0.0084
 6287SOL    HW230586   6.095   4.608   0.370 -1.6855 -1.3629  0.6095
 6288SOL     OW30587  10.115   6.994   2.858 -0.3576 -0.4631 -0.4609
 6288SOL    HW130588  10.108   6.899   2.864  1.9674 -0.7716 -1.6431
 6288SOL    HW230589  10.176   7.009   2.786 -0.7618  1.9454 -0.3783
 6289SOL     OW30590   0.425   3.848   9.740  0.2032 -0.1415  0.1894
 6289SOL    HW130591   0.350   3.791   9.726  0.1339 -0.5296  1.9981
 6289SOL    HW230592   0.388   3.930   9.773  0.4866  0.1040 -0.0959
 6290SOL     OW30593   9.987   8.256   7.917 -0.0132 -0.3032  0.2615
 6290SOL    HW130594  10.023   8.325   7.972 -0.0566 -0.6576  0.7375
 6290SOL    HW230595   9.907   8.294   7.881  0.4578  0.2357 -0.2425
 6291SOL     OW30596   8.383   6.936   8.065  0.8417  0.4144  0.5294
 6291SOL    HW130597   8.307   6.969   8.016  1.3715 -0.7889 -1.2077
 6291SOL    HW230598   8.458   6.981   8.026  1.2525 -0.3423  0.4291
 6292SOL     OW30599   2.728   7.186   8.758  0.8312  0.2375 -0.3914
 6292SOL    HW130600   2.750   7.152   8.671 -0.1650 -0.2923 -0.4505
 6292SOL    HW230601   2.697   7.275   8.742 -2.0572 -0.7665 -0.9849
 6293SOL     OW30602   6.104   1.480   5.367  0.6086  0.0066  0.1025
 6293SOL    HW130603   6.143   1.403   5.326 -2.0090 -0.9057 -0.9044
 6293SOL    HW230604   6.121   1.551   5.306 -0.2288 -0.6036 -0.8597
 6294SOL     OW30605  10.045   3.262   7.770 -0.0757 -0.8263 -0.7144
 6294SOL    HW130606  10.003   3.293   7.689  0.2617 -0.4717 -0.7555
 6294SOL    HW230607   9.972   3.238   7.827 -0.4508  1.8181  0.0461
 6295SOL     OW30608   8.215   1.622   7.755 -0.0340 -0.1221 -0.1703
 6295SOL    HW130609   8.184   1.713   7.758 -0.2093 -0.1775 -0.3159
 6295SOL    HW230610   8.151   1.573   7.806 -0.5105 -0.3292 -0.9464
 6296SOL     OW30611   8.487   2.425   4.975  0.0136 -0.4039  0.0139
 6296SOL    HW130612   8.420   2.423   4.907 -0.5674 -0.2702  0.5731
 6296SOL    HW230613   8.451   2.482   5.043  1.0369  0.3126 -0.0279
 6297SOL     OW30614   7.229   7.373  10.633  0.3217  0.0440 -0.5521
 6297SOL    HW130615   7.273   7.451  10.668 -0.3427  0.4154 -0.5275
 6297SOL    HW230616   7.246   7.305  10.698  0.8048  0.1974 -0.5122
 6298SOL     OW30617  11.411   3.258   8.374  0.3578  0.0213  0.0178
 6298SOL    HW130618  11.473   3.200   8.331  1.4648 -0.2277  1.8721
 6298SOL    HW230619  11.328   3.210   8.373  0.4810 -0.2083 -1.2640
 6299SOL     OW30620   9.070  10.871   7.790 -0.5184  0.0141 -0.4293
 6299SOL    HW130621   9.095  10.833   7.874  1.6738  0.0702 -0.9939
 6299SOL    HW230622   9.010  10.943   7.813 -0.4574 -0.3652  1.0120
 6300SOL     OW30623   9.625   0.457   1.582 -0.3235 -0.2058  0.1433
 6300SOL    HW130624   9.634   0.493   1.494  1.0614 -0.8105  0.0131
 6300SOL    HW230625   9.694   0.500   1.633  0.9431 -2.1051  0.1452
 6301SOL     OW30626   1.482   2.545   2.333  0.2483 -0.2738  0.1020
 6301SOL    HW130627   1.458   2.488   2.260  0.5207 -0.6820  0.3271
 6301SOL    HW230628   1.431   2.625   2.319  1.3907  0.2315 -1.3181
 6302SOL     OW30629   5.264   7.558   6.335 -0.2006  0.2462  0.1824
 6302SOL    HW130630   5.213   7.541   6.256 -0.8744  2.4487  0.0968
 6302SOL    HW230631   5.311   7.476   6.350 -2.6153 -1.3957 -0.5672
 6303SOL     OW30632   3.251   8.062   2.626 -0.3625 -0.2128 -0.0694
 6303SOL    HW130633   3.172   8.112   2.646 -0.7683 -0.8439 -0.0720
 6303SOL    HW230634   3.313   8.127   2.595 -0.4765  0.4640  1.0738
 6304SOL     OW30635   9.488   2.899   9.984 -0.3191 -0.4038 -0.2141
 6304SOL    HW130636   9.498   2.831   9.917  2.9494 -0.9243  0.6356
 6304SOL    HW230637   9.523   2.978   9.943  0.9295 -0.5322  0.5710
 6305SOL     OW30638   2.096   3.257   0.604 -0.1549  0.0337  0.2774
 6305SOL    HW130639   2.021   3.217   0.559  2.7198 -1.7377 -3.5244
 6305SOL    HW230640   2.122   3.329   0.547  2.0034 -0.4900  0.5106
 6306SOL     OW30641  11.402   5.415  11.011 -0.2653  0.8551  0.2066
 6306SOL    HW130642  11.395   5.504  10.977 -0.9874  0.3710 -0.9863
 6306SOL    HW230643  11.478   5.378  10.967 -0.1931  0.7531  0.4124
 6307SOL     OW30644   6.314   8.679   6.772 -0.1455 -0.1111 -0.1177
 6307SOL    HW130645   6.350   8.650   6.856 -1.4283 -3.8738 -0.6695
 6307SOL    HW230646   6.235   8.728   6.796 -0.0079 -0.3708  0.9162
 6308SOL     OW30647   2.078   8.190   1.348  0.8635  0.0204  0.2906
 6308SOL    HW130648   2.020   8.148   1.285 -2.0369  2.5895  0.9810
 6308SOL    HW230649   2.130   8.252   1.297  0.7485 -0.0898  0.0431
 6309SOL     OW30650   6.040   6.377   3.292 -0.0115 -0.5506 -0.1868
 6309SOL    HW130651   6.042   6.464   3.332 -1.3614 -0.5063 -0.1707
 6309SOL    HW230652   6.127   6.367   3.253  0.6364  0.2465  0.9730
 6310SOL     OW30653   0.105   7.430   5.743  0.0774 -0.1639 -0.1710
 6310SOL    HW130654   0.016   7.426   5.778  0.7065 -0.9943  1.4536
 6310SOL    HW230655   0.158   7.383   5.808  1.7766  0.7125 -0.8615
 6311SOL     OW30656   3.260   1.464   8.033 -0.2113  0.4841 -0.0019
 6311SOL    HW130657   3.169   1.432   8.030 -0.2612  0.6608 -0.4132
 6311SOL    HW230658   3.255   1.554   8.001  0.3538 -0.0765 -1.7881
 6312SOL     OW30659   4.510   9.414   0.674 -0.1672 -0.6043 -0.2022
 6312SOL    HW130660   4.562   9.488   0.704 -0.7638 -0.2302 -0.0654
 6312SOL    HW230661   4.420   9.445   0.679 -0.4233 -1.3335 -0.1675
 6313SOL     OW30662   2.232  11.129   5.112 -0.0752  0.3571  0.3270
 6313SOL    HW130663   2.139  11.124   5.092 -0.0512  3.5778 -1.3735
 6313SOL    HW230664   2.243  11.081   5.193 -3.0216 -0.9479  0.0557
 6314SOL     OW30665   7.392  11.864   4.255 -0.2571  0.5705  0.7783
 6314SOL    HW130666   7.315  11.894   4.207 -0.6976 -0.4720  0.8025
 6314SOL    HW230667   7.386  11.908   4.340  0.5106  2.4115 -0.0652
 6315SOL     OW30668   5.287  11.467   0.316  0.4041  0.0891  0.1319
 6315SOL    HW130669   5.311  11.546   0.364  0.3152  0.6977 -0.8061
 6315SOL    HW230670   5.363  11.447   0.262 -0.3210  0.7131 -1.1496
 6316SOL     OW30671   9.049  11.181   9.159 -0.3406  0.0813  0.4387
 6316SOL    HW130672   8.959  11.191   9.190 -0.1359  0.0489  1.0454
 6316SOL    HW230673   9.098  11.252   9.200 -0.1675  0.3512 -0.2196
 6317SOL     OW30674   9.786   4.002   4.364  0.0075 -0.5171 -0.3378
 6317SOL    HW130675   9.745   4.083   4.335 -2.0562 -1.1232  0.7096
 6317SOL    HW230676   9.874   4.028   4.391 -0.1982  1.1328 -1.1615
 6318SOL     OW30677  11.040   6.677   0.256  0.0175 -0.0042  0.2224
 6318SOL    HW130678  11.061   6.756   0.205 -2.0300 -0.1353 -0.9716
 6318SOL    HW230679  11.112   6.668   0.317  0.0649  3.1573  0.8425
 6319SOL     OW30680   8.894   0.783   8.788  0.4676  0.1932 -0.0698
 6319SOL    HW130681   8.949   0.847   8.832  0.2841 -0.6593  1.4855
 6319SOL    HW230682   8.804   0.811   8.806  0.3849 -0.4651  0.6275
 6320SOL     OW30683   8.949  11.374   4.362 -0.2341 -0.4468  0.6684
 6320SOL    HW130684   8.967  11.368   4.268 -0.0070 -0.6964  0.7299
 6320SOL    HW230685   8.958  11.468   4.381 -0.0845 -0.4213  0.4805
 6321SOL     OW30686   9.257  11.824   9.871  0.0247  0.0524 -0.1143
 6321SOL    HW130687   9.299  11.879   9.938 -0.5422  0.4115 -0.0476
 6321SOL    HW230688   9.170  11.862   9.861  0.1857  0.1471 -1.2256
 6322SOL     OW30689   5.787   9.954   7.705 -1.0167 -0.2538  0.0139
 6322SOL    HW130690   5.847  10.005   7.758  0.4783 -0.1468 -1.6943
 6322SOL    HW230691   5.755   9.885   7.764 -0.3537  0.5392  1.3452
 6323SOL     OW30692  10.619   7.337  11.069 -0.7566  0.2550 -0.3832
 6323SOL    HW130693  10.622   7.252  11.024 -0.4753 -0.1341  0.3499
 6323SOL    HW230694  10.529   7.346  11.098 -0.7495  0.1329 -0.3240
 6324SOL     OW30695   9.540   3.049   5.804 -0.1454  0.6581 -0.2530
 6324SOL    HW130696   9.534   2.975   5.864  0.0140  0.4156 -0.5356
 6324SOL    HW230697   9.521   3.125   5.859 -0.0529  0.4355  0.0936
 6325SOL     OW30698   8.274   6.340   0.726  0.2607  0.1706 -0.2685
 6325SOL    HW130699   8.328   6.288   0.666 -1.0333 -1.1000 -0.3957
 6325SOL    HW230700   8.184   6.322   0.699 -0.2741  1.5568  0.4742
 6326SOL     OW30701   9.054   1.323   5.649 -0.4142  0.4799  0.0774
 6326SOL    HW130702   9.098   1.391   5.702  0.3870  0.8775 -1.0585
 6326SOL    HW230703   9.067   1.351   5.559  0.4439 -1.4887 -0.4587
 6327SOL     OW30704  11.393   0.829  10.949  0.6393 -0.7022  0.2884
 6327SOL    HW130705  11.340   0.893  10.902  0.1523 -1.2857  0.0259
 6327SOL    HW230706  11.387   0.855  11.041 -0.3801 -0.9515  0.3026
 6328SOL     OW30707   0.060  10.212  10.412 -1.3118 -0.0513  0.2469
 6328SOL    HW130708   0.093  10.302  10.413 -2.5849  0.5487 -2.9088
 6328SOL    HW230709   0.138  10.158  10.425  0.5754  1.4046 -3.6656
 6329SOL     OW30710   5.728   0.195   7.898 -0.5497 -0.0332 -0.4911
 6329SOL    HW130711   5.724   0.243   7.816  0.5296 -0.9351 -1.0987
 6329SOL    HW230712   5.800   0.236   7.946 -2.0810  1.4406  0.6752
 6330SOL     OW30713  11.779   5.604   4.951 -0.1900 -0.1039 -0.4519
 6330SOL    HW130714  11.794   5.554   5.031  0.7891 -1.5343 -1.4618
 6330SOL    HW230715  11.840   5.566   4.888 -2.0269 -0.1324 -2.3253
 6331SOL     OW30716  11.628   6.492   5.786 -0.2901  0.6795  0.2021
 6331SOL    HW130717  11.618   6.585   5.806  0.2806  0.5394  1.2191
 6331SOL    HW230718  11.604   6.448   5.868  0.2626 -0.0232 -0.0062
 6332SOL     OW30719   8.127   2.180   4.283 -0.2793  0.0084  1.4082
 6332SOL    HW130720   8.065   2.123   4.238  0.9251  0.0384 -0.3821
 6332SOL    HW230721   8.194   2.120   4.318  1.8582  0.2427 -1.8331
 6333SOL     OW30722   1.767   7.725   4.526 -0.0901 -0.2289  0.7734
 6333SOL    HW130723   1.756   7.816   4.555 -0.2460 -0.1197  0.3850
 6333SOL    HW230724   1.859   7.705   4.543 -0.2659 -0.2912  1.6750
 6334SOL     OW30725   2.125   2.570   5.447  0.6305 -0.1449 -0.3787
 6334SOL    HW130726   2.215   2.573   5.414  0.5255  0.0361 -0.6527
 6334SOL    HW230727   2.074   2.614   5.380  0.2621 -0.6793 -0.4561
 6335SOL     OW30728   2.567   9.474   3.892 -0.4300  0.0453 -0.1723
 6335SOL    HW130729   2.569   9.487   3.987 -0.8515  1.8331 -0.3770
 6335SOL    HW230730   2.476   9.452   3.873 -0.2089 -0.9819 -0.1080
 6336SOL     OW30731   5.084   6.283   7.206 -0.5013  0.5041 -0.2219
 6336SOL    HW130732   5.088   6.190   7.183 -0.1645 -0.2246  2.4822
 6336SOL    HW230733   5.022   6.320   7.144  0.0829 -1.2916 -2.0031
 6337SOL     OW30734   1.896   5.014   6.623 -0.3522  0.0744 -0.2514
 6337SOL    HW130735   1.941   5.055   6.550 -0.8316 -2.2421 -1.9603
 6337SOL    HW230736   1.807   5.049   6.621  0.0831  1.2517  0.2990
 6338SOL     OW30737   8.235   2.738   7.527 -0.3704 -0.5061  0.0475
 6338SOL    HW130738   8.304   2.799   7.553 -1.8211  0.6423  1.3960
 6338SOL    HW230739   8.277   2.652   7.529  1.3311  0.2671 -0.3951
 6339SOL     OW30740   0.450   9.997   7.656  0.2724 -0.0815 -0.0016
 6339SOL    HW130741   0.454   9.955   7.570 -0.4822  1.8922 -1.0408
 6339SOL    HW230742   0.438   9.924   7.717  1.9507 -1.6471 -1.4112
 6340SOL     OW30743   3.002   1.638   2.538 -0.1612 -0.1866  0.4942
 6340SOL    HW130744   2.918   1.592   2.548 -0.8376  1.2875  2.1142
 6340SOL    HW230745   3.061   1.592   2.598  1.2939 -3.3326 -2.9467
 6341SOL     OW30746  10.896  10.342   8.504  0.4527  0.1763  0.5467
 6341SOL    HW130747  10.920  10.269   8.561 -1.4787 -2.0136 -1.3163
 6341SOL    HW230748  10.963  10.408   8.523  1.7761 -1.6622  2.9476
 6342SOL     OW30749   2.847  11.026   1.558 -0.4263  0.2048  0.0013
 6342SOL    HW130750   2.787  11.001   1.488  0.1142  0.1680 -0.4568
 6342SOL    HW230751   2.877  10.943   1.595  0.3934  0.1707 -0.6865
 6343SOL     OW30752   0.864   1.890   2.687 -0.9414 -0.0379 -0.6394
 6343SOL    HW130753   0.937   1.838   2.653 -0.2994  1.0943 -1.0582
 6343SOL    HW230754   0.811   1.828   2.737  0.3514 -0.8695 -0.2620
 6344SOL     OW30755  10.037  11.019   6.147 -0.3133 -0.2712  0.0005
 6344SOL    HW130756  10.021  11.016   6.241 -0.5606  1.0422  0.0318
 6344SOL    HW230757   9.955  10.991   6.107 -0.8024  0.8454  0.1868
 6345SOL     OW30758   6.552  10.352   4.684 -0.3145 -0.1989 -0.0294
 6345SOL    HW130759   6.504  10.306   4.615 -1.8702  0.0991  0.7905
 6345SOL    HW230760   6.483  10.396   4.734  0.8146 -0.0575  1.4457
 6346SOL     OW30761  11.504   2.454   7.972 -0.3830 -0.2986 -0.0981
 6346SOL    HW130762  11.568   2.426   8.038 -1.2487  0.9061  1.3212
 6346SOL    HW230763  11.437   2.386   7.971 -0.1824 -0.4968  0.0016
 6347SOL     OW30764   1.318   4.109   8.393 -0.0076  0.1022 -0.1578
 6347SOL    HW130765   1.308   4.133   8.485  0.0344 -0.8594  0.1189
 6347SOL    HW230766   1.239   4.141   8.350  0.1227  0.8413  0.1526
 6348SOL     OW30767   7.697   7.759  11.817  0.3236 -0.0496  0.1850
 6348SOL    HW130768   7.606   7.736  11.832 -0.0412  1.8422  1.1275
 6348SOL    HW230769   7.710   7.841  11.864  2.7666 -0.7167  0.8418
 6349SOL     OW30770   9.626   1.111  10.754  0.6692 -0.7591 -0.2662
 6349SOL    HW130771   9.703   1.145  10.799 -1.1798  0.5188  2.2175
 6349SOL    HW230772   9.574   1.070  10.823 -0.8445 -1.6381 -1.8494
 6350SOL     OW30773   0.311   9.147   1.895 -0.6655  0.1837 -0.6375
 6350SOL    HW130774   0.390   9.168   1.844 -0.6685  0.8085 -0.3960
 6350SOL    HW230775   0.323   9.055   1.921 -0.7373 -0.1962 -1.8738
 6351SOL     OW30776   3.962   4.457   6.757  0.4152 -0.0490  0.0347
 6351SOL    HW130777   3.884   4.403   6.771  0.3637  0.3323  1.3906
 6351SOL    HW230778   3.938   4.517   6.687 -0.7527  0.4705  0.8482
 6352SOL     OW30779  11.915   4.144   5.446  0.1457 -0.6218 -0.0001
 6352SOL    HW130780  11.955   4.058   5.462  2.3941  0.5610  1.1695
 6352SOL    HW230781  11.970   4.183   5.378 -0.2545  0.2801  0.1898
 6353SOL     OW30782  10.853   4.875   5.127 -0.0962  0.4343 -0.4865
 6353SOL    HW130783  10.818   4.944   5.184 -1.6486 -0.8884  0.2267
 6353SOL    HW230784  10.874   4.803   5.186  1.9315  0.4027 -1.1704
 6354SOL     OW30785   1.669   1.402   6.090  0.1556 -0.1677 -0.7093
 6354SOL    HW130786   1.727   1.349   6.145 -0.5703 -1.8039 -1.4384
 6354SOL    HW230787   1.713   1.487   6.082  0.9829 -0.3843  1.1526
 6355SOL     OW30788   6.306  10.337  11.775  0.3834  0.6346  0.2078
 6355SOL    HW130789   6.265  10.415  11.740 -1.4284  0.2196  1.2343
 6355SOL    HW230790   6.232  10.281  11.800  1.6089 -0.6055  1.2033
 6356SOL     OW30791   2.972   4.465   6.171 -0.1709 -0.1496  0.5441
 6356SOL    HW130792   3.001   4.378   6.145 -1.6835 -0.2789 -0.8766
 6356SOL    HW230793   2.895   4.482   6.116 -0.4136  1.7323  1.3921
 6357SOL     OW30794  10.977   1.067   3.789  0.5682  0.4097  0.0539
 6357SOL    HW130795  10.961   1.151   3.746 -0.8534 -0.8069 -1.9677
 6357SOL    HW230796  11.028   1.017   3.725 -0.5260 -1.0272  0.2604
 6358SOL     OW30797   3.995  10.086   5.323 -0.4361 -0.1945  0.2139
 6358SOL    HW130798   4.086  10.069   5.296 -0.8555 -0.1194 -1.3678
 6358SOL    HW230799   3.948  10.096   5.240 -1.4127  2.3958  1.0065
 6359SOL     OW30800   7.462   0.888  10.447 -0.7749 -0.5560 -0.5699
 6359SOL    HW130801   7.499   0.828  10.511 -0.1505  0.0769 -0.3312
 6359SOL    HW230802   7.367   0.882  10.460 -0.7106 -1.3647 -0.4468
 6360SOL     OW30803   6.182   6.308   4.756 -0.4701  0.0644  0.0876
 6360SOL    HW130804   6.156   6.395   4.723 -1.6939 -0.4508 -0.3765
 6360SOL    HW230805   6.141   6.303   4.842  2.2025  1.1548  1.5411
 6361SOL     OW30806   9.066   3.301  10.628 -0.0158  0.4879  0.6744
 6361SOL    HW130807   9.044   3.386  10.588  2.0206  0.0012 -1.7420
 6361SOL    HW230808   8.983   3.255  10.633 -0.6429  1.1969 -1.7138
 6362SOL     OW30809  11.608   9.309   6.836  0.4829  0.3795 -0.0822
 6362SOL    HW130810  11.549   9.234   6.837  1.3248 -0.3647 -1.6949
 6362SOL    HW230811  11.635   9.319   6.927  1.1937 -2.0068  0.0408
 6363SOL     OW30812  10.014   0.427   6.869  0.5342 -0.0889 -0.3239
 6363SOL    HW130813   9.946   0.470   6.818  2.1367  0.5829 -2.0166
 6363SOL    HW230814  10.001   0.460   6.959 -2.0285 -0.9100 -0.3251
 6364SOL     OW30815   5.612   3.789  11.486  0.2603  0.7226  0.3277
 6364SOL    HW130816   5.558   3.761  11.412  0.4101  0.7518  0.2076
 6364SOL    HW230817   5.569   3.750  11.562  1.2803 -1.0788  0.0318
 6365SOL     OW30818   6.932   0.905   3.324 -0.1344  0.2218  0.3013
 6365SOL    HW130819   6.993   0.840   3.359  1.7502  1.1578 -1.0704
 6365SOL    HW230820   6.983   0.986   3.318 -1.5545  1.0874 -0.7663
 6366SOL     OW30821   7.247   9.683  10.993  0.4677 -0.8425  0.2476
 6366SOL    HW130822   7.339   9.697  10.968  0.3453 -0.1436  0.1920
 6366SOL    HW230823   7.251   9.651  11.083  0.6733  1.1214  0.9743
 6367SOL     OW30824   2.656   1.457   3.071  0.0401  0.4261 -0.3249
 6367SOL    HW130825   2.619   1.420   2.991  0.8203  1.6550 -1.2840
 6367SOL    HW230826   2.736   1.407   3.086 -0.4214 -0.2168  0.0564
 6368SOL     OW30827   3.037   0.091   2.177 -0.2471  0.1584 -0.3794
 6368SOL    HW130828   3.071   0.147   2.107  0.4018  1.7178  1.1269
 6368SOL    HW230829   2.944   0.114   2.182 -0.2199  0.3019 -0.5139
 6369SOL     OW30830  10.199   5.863   4.569  0.1356 -0.0207 -0.2130
 6369SOL    HW130831  10.178   5.919   4.644 -2.3490 -1.7927  0.5426
 6369SOL    HW230832  10.274   5.811   4.598 -0.7713 -0.6577  1.0516
 6370SOL     OW30833   4.151   4.657   6.076  0.2653 -0.1315 -0.4657
 6370SOL    HW130834   4.134   4.573   6.118  0.2231  0.2201  0.2467
 6370SOL    HW230835   4.168   4.636   5.985 -0.6943 -0.8145 -0.4950
 6371SOL     OW30836   8.824   0.274  10.187  0.1428 -0.1495  0.5471
 6371SOL    HW130837   8.840   0.179  10.183 -0.5867 -0.4054  2.6599
 6371SOL    HW230838   8.836   0.297  10.278  1.4714  2.0726 -0.1246
 6372SOL     OW30839  10.517   8.212   8.868 -0.1265 -0.1742 -0.0027
 6372SOL    HW130840  10.580   8.280   8.891 -0.5501 -0.5565  2.5370
 6372SOL    HW230841  10.441   8.260   8.835  0.6735  0.3928 -1.0807
 6373SOL     OW30842   5.278   1.790   3.256  0.4789  0.0088 -0.3345
 6373SOL    HW130843   5.188   1.822   3.261 -0.4047 -1.2313 -4.2967
 6373SOL    HW230844   5.282   1.718   3.319 -1.8140 -0.8204 -1.0320
 6374SOL     OW30845   7.489  11.328   3.355  0.3936 -0.5017 -0.3664
 6374SOL    HW130846   7.584  11.338   3.349  0.3449  0.4556  0.2114
 6374SOL    HW230847   7.466  11.373   3.436 -0.8760  1.8859 -1.9350
 6375SOL     OW30848   1.523   5.882  10.310  0.2038  0.3207  0.0127
 6375SOL    HW130849   1.466   5.904  10.237 -1.1049  1.5488  1.3249
 6375SOL    HW230850   1.612   5.891  10.276 -0.3709  0.9418 -1.3770
 6376SOL     OW30851   9.497   6.975  11.517  0.0197 -0.0235 -0.2866
 6376SOL    HW130852   9.478   7.031  11.593  1.1447 -0.4873  0.3669
 6376SOL    HW230853   9.480   7.032  11.441 -0.1940  0.7625  0.3312
 6377SOL     OW30854   5.483   5.085   9.099  0.1995  0.1751 -0.1961
 6377SOL    HW130855   5.547   5.105   9.167  1.0912  1.3186 -1.3541
 6377SOL    HW230856   5.514   5.004   9.059 -0.2352 -0.4077  0.6060
 6378SOL     OW30857   5.508  11.686   0.901  0.1006 -0.7628  0.1128
 6378SOL    HW130858   5.554  11.749   0.846  1.5630 -1.0050  0.9979
 6378SOL    HW230859   5.495  11.732   0.984  0.6877 -1.3954  0.5793
 6379SOL     OW30860  10.129   0.776   9.152 -0.0444 -0.1196 -0.3317
 6379SOL    HW130861  10.038   0.807   9.157  0.0036  0.3016 -1.6852
 6379SOL    HW230862  10.178   0.851   9.119  1.4390  0.7772  3.4273
 6380SOL     OW30863   0.410   0.572   9.616  0.0550 -0.0252  0.0830
 6380SOL    HW130864   0.496   0.530   9.608  0.5948  1.1608 -0.6153
 6380SOL    HW230865   0.375   0.572   9.527  0.6385  2.1093 -0.2030
 6381SOL     OW30866   3.080   6.168   8.482 -0.0623 -0.1841 -0.2848
 6381SOL    HW130867   3.105   6.229   8.551 -1.6845 -0.7242  0.8478
 6381SOL    HW230868   3.104   6.082   8.516 -0.3445 -0.4099 -0.6468
 6382SOL     OW30869   8.027   1.468  10.219  0.1269  0.0448  0.2136
 6382SOL    HW130870   8.094   1.488  10.154 -0.5976  1.6743 -0.0839
 6382SOL    HW230871   8.047   1.379  10.248  2.8786  0.7309  0.7180
 6383SOL     OW30872   0.567   0.791  10.514  0.2674 -0.0398  0.3798
 6383SOL    HW130873   0.634   0.724  10.527  0.8913  0.5548  0.2509
 6383SOL    HW230874   0.615   0.874  10.516 -0.5627  0.4414  1.0632
 6384SOL     OW30875  10.982   2.551   4.808 -0.0593  0.6535  0.0243
 6384SOL    HW130876  11.067   2.506   4.809  1.0077  2.5770 -0.5356
 6384SOL    HW230877  10.949   2.539   4.719  0.0353  0.6429 -0.0090
 6385SOL     OW30878  10.594   4.721   3.663 -0.4547  0.7722 -0.9292
 6385SOL    HW130879  10.503   4.745   3.644 -0.9884 -0.7125 -0.3735
 6385SOL    HW230880  10.612   4.760   3.748 -0.7962  0.5412 -0.7472
 6386SOL     OW30881   8.761  11.541   5.869  0.3954  0.2599  0.5567
 6386SOL    HW130882   8.790  11.601   5.801  1.2434  0.0358  0.7046
 6386SOL    HW230883   8.820  11.466   5.862  0.1979  0.0310  1.2292
 6387SOL     OW30884  10.017   0.239   1.872 -0.3354 -0.1571 -0.3844
 6387SOL    HW130885   9.929   0.260   1.902  0.1010  1.0392  0.1399
 6387SOL    HW230886  10.050   0.176   1.936 -0.5615 -0.0798 -0.1907
 6388SOL     OW30887   3.788   0.684   1.902  0.5858 -0.2539 -0.4529
 6388SOL    HW130888   3.771   0.590   1.888  1.4260 -0.4544 -0.1819
 6388SOL    HW230889   3.875   0.698   1.865  0.7727  0.2566  0.1622
 6389SOL     OW30890   4.134   9.133  10.031 -0.7666  0.1933 -0.1318
 6389SOL    HW130891   4.149   9.168   9.943  1.2757  0.1159  0.1264
 6389SOL    HW230892   4.101   9.045  10.017  0.3964 -0.1574 -0.8738
 6390SOL     OW30893   2.470   6.698  10.266 -0.0526 -0.5889  0.5185
 6390SOL    HW130894   2.472   6.662  10.177  0.9220  0.0909  0.2496
 6390SOL    HW230895   2.405   6.768  10.261  1.5389  0.9118 -0.2809
 6391SOL     OW30896  10.438   5.722   4.629  0.3275  0.0922 -0.1085
 6391SOL    HW130897  10.492   5.798   4.605 -0.1414  0.9520  1.4168
 6391SOL    HW230898  10.501   5.652   4.645  0.7916  0.2518 -1.1480
 6392SOL     OW30899  11.953   9.654   8.561 -0.1849 -0.1153  0.0403
 6392SOL    HW130900  11.917   9.595   8.627 -0.8794  0.1926 -0.0550
 6392SOL    HW230901  12.044   9.668   8.588 -0.3795 -0.2148  0.7691
 6393SOL     OW30902  11.688   1.441   3.297 -0.0329  0.3520  0.0959
 6393SOL    HW130903  11.747   1.491   3.354 -0.8700  0.1504  1.1703
 6393SOL    HW230904  11.621   1.407   3.356 -1.0417  0.2892 -1.0478
 6394SOL     OW30905   9.920   1.476   8.610 -0.3246  0.8172 -0.6797
 6394SOL    HW130906   9.905   1.438   8.523 -0.9682  1.0736 -0.6848
 6394SOL    HW230907   9.869   1.421   8.669  0.9880 -0.0287 -0.3055
 6395SOL     OW30908   7.256   7.669   2.822  0.0757 -0.1401 -0.0526
 6395SOL    HW130909   7.282   7.758   2.844  2.0978  0.2155 -3.1265
 6395SOL    HW230910   7.184   7.679   2.760 -1.9877 -0.8731  2.0784
 6396SOL     OW30911   2.810  11.234  11.551 -0.2311  0.0971 -0.1871
 6396SOL    HW130912   2.728  11.272  11.581  1.6590  1.0695  4.8521
 6396SOL    HW230913   2.785  11.151  11.510 -3.7444  1.3560 -0.9461
 6397SOL     OW30914   6.001  11.264   0.034  0.0004 -0.2556 -0.2947
 6397SOL    HW130915   5.997  11.358   0.048 -0.4294 -0.2848 -0.1908
 6397SOL    HW230916   6.092  11.240   0.053  0.1009  0.1292 -0.2832
 6398SOL     OW30917   1.062   8.731   9.472 -0.0287  0.2968  0.6383
 6398SOL    HW130918   1.001   8.677   9.523 -0.1233  0.1966  0.4215
 6398SOL    HW230919   1.132   8.752   9.534 -0.5755  0.9204  1.0713
 6399SOL     OW30920   1.828   8.901   0.048 -0.2978  0.8117  0.4875
 6399SOL    HW130921   1.919   8.873   0.036 -0.8081 -0.2059 -1.2770
 6399SOL    HW230922   1.800   8.857   0.128  0.6051  0.7574  0.7840
 6400SOL     OW30923   0.595   3.356   2.979  0.3315  0.4189 -0.1529
 6400SOL    HW130924   0.580   3.262   2.971  0.6935  0.3939 -0.5912
 6400SOL    HW230925   0.678   3.371   2.934  0.7119  0.8207  0.6553
 6401SOL     OW30926   9.452   0.291   5.371  0.4081 -0.4351  0.0651
 6401SOL    HW130927   9.544   0.296   5.344  0.1982 -1.7100 -0.9902
 6401SOL    HW230928   9.424   0.204   5.343 -0.6721 -0.7171  1.8626
 6402SOL     OW30929   1.036   2.925   8.815  0.1156 -0.2371  0.1629
 6402SOL    HW130930   1.034   3.012   8.775 -1.6297 -0.5557 -0.5422
 6402SOL    HW230931   1.008   2.939   8.905 -2.1861 -0.2789 -0.4973
 6403SOL     OW30932   0.528   2.713   5.114 -0.6286  0.2363 -0.1340
 6403SOL    HW130933   0.478   2.751   5.186  0.3658  1.2544  0.0400
 6403SOL    HW230934   0.612   2.687   5.153 -1.2430 -2.1832 -0.2473
 6404SOL     OW30935   3.526   7.345   8.495  0.5798 -0.5676 -0.2549
 6404SOL    HW130936   3.447   7.396   8.479  0.7391 -0.5669 -1.0490
 6404SOL    HW230937   3.495   7.267   8.541  0.3490  0.2872  1.1191
 6405SOL     OW30938   0.792   2.788   6.509 -0.2187 -0.1665 -0.2070
 6405SOL    HW130939   0.812   2.877   6.538  0.8370  0.2777 -2.0732
 6405SOL    HW230940   0.848   2.776   6.432  0.3237 -2.7812  0.5141
 6406SOL     OW30941   5.388  10.330   7.431 -0.2275  0.1950 -0.3882
 6406SOL    HW130942   5.296  10.343   7.412  0.4858  1.9916 -3.2856
 6406SOL    HW230943   5.420  10.416   7.459  0.6705 -0.2827  0.1341
 6407SOL     OW30944  10.024   1.078  11.904 -0.2842 -0.7690  0.1826
 6407SOL    HW130945   9.936   1.101  11.934 -0.3336 -2.8327  1.8217
 6407SOL    HW230946  10.014   0.992  11.863  1.3013 -2.4033  2.8790
 6408SOL     OW30947   5.009   3.957   3.369  0.3623 -0.1498  0.6969
 6408SOL    HW130948   5.082   3.974   3.428 -0.0326  0.3761  1.0472
 6408SOL    HW230949   4.947   4.028   3.387 -0.0541 -0.3616  0.1203
 6409SOL     OW30950  10.685   5.672   3.884 -0.0925  1.0485 -0.5663
 6409SOL    HW130951  10.733   5.595   3.914  0.0084  1.8036  1.3798
 6409SOL    HW230952  10.623   5.638   3.820  1.3718 -0.3066 -1.3451
 6410SOL     OW30953   0.858   9.852   7.393 -0.1318 -0.1227 -0.3411
 6410SOL    HW130954   0.855   9.785   7.325 -3.1025 -0.3143 -0.1516
 6410SOL    HW230955   0.851   9.803   7.475 -2.3292  0.3194 -0.2025
 6411SOL     OW30956   0.544   0.075   7.581  0.1386 -0.5704 -0.2030
 6411SOL    HW130957   0.473   0.083   7.517 -0.5739  1.3706  0.7700
 6411SOL    HW230958   0.507   0.022   7.652 -1.7060  3.2201  1.9323
 6412SOL     OW30959  10.126  11.794   6.363 -0.0969 -0.5008  0.5008
 6412SOL    HW130960  10.059  11.856   6.334 -1.0863 -2.1763 -0.9708
 6412SOL    HW230961  10.123  11.723   6.299  0.9788 -2.0954  2.1076
 6413SOL     OW30962   8.018   5.151   8.728 -0.6246 -0.1208  0.4660
 6413SOL    HW130963   7.953   5.200   8.678 -0.8864 -0.0296  0.8956
 6413SOL    HW230964   7.999   5.059   8.708 -0.2062 -0.0608 -0.2457
 6414SOL     OW30965   8.358   3.027   5.870  0.8443  0.1871 -0.0481
 6414SOL    HW130966   8.286   3.019   5.809  1.3059 -2.0393 -0.3673
 6414SOL    HW230967   8.317   3.049   5.954 -0.0352  0.5090 -0.5591
 6415SOL     OW30968   0.348   9.741   9.531 -0.5064 -0.1485 -0.4714
 6415SOL    HW130969   0.399   9.660   9.533  1.0909  0.8215  0.0476
 6415SOL    HW230970   0.414   9.811   9.532 -1.8561  1.1804  1.3011
 6416SOL     OW30971   7.179   5.502   5.067 -0.1602 -0.4072 -0.4578
 6416SOL    HW130972   7.135   5.478   5.149 -0.3146 -0.4549 -0.5541
 6416SOL    HW230973   7.165   5.597   5.060 -1.3217 -0.6044 -1.1105
 6417SOL     OW30974   4.111   7.159  11.958  0.0519 -0.3065  0.2404
 6417SOL    HW130975   4.026   7.186  11.992  0.6966  0.7460  1.0718
 6417SOL    HW230976   4.156   7.122  12.033  0.5161 -0.4049 -0.0829
 6418SOL     OW30977   2.074   8.757   2.393 -0.1511  0.1042  0.7095
 6418SOL    HW130978   2.102   8.667   2.407  0.5710  0.5526  2.5529
 6418SOL    HW230979   2.137   8.810   2.443  0.1378  1.7452 -1.2336
 6419SOL     OW30980   5.641   8.098   3.008  0.7919  0.2015  0.0071
 6419SOL    HW130981   5.592   8.016   3.007  1.5426 -0.2575  0.2257
 6419SOL    HW230982   5.714   8.082   3.068  1.2780  0.8300 -0.3973
 6420SOL     OW30983   2.329   7.241   3.974 -0.6835  0.3042  0.7607
 6420SOL    HW130984   2.278   7.305   4.024 -0.8190  0.1605  0.8073
 6420SOL    HW230985   2.275   7.162   3.973 -0.6102  0.2548  0.5258
 6421SOL     OW30986   4.092   3.776   1.581 -0.3523 -0.3020  0.2559
 6421SOL    HW130987   4.108   3.701   1.524  0.2443  0.4148 -0.5390
 6421SOL    HW230988   4.000   3.767   1.606 -0.3209 -1.2286  0.0814
 6422SOL     OW30989   1.982  10.906   7.388  0.3596 -0.4069  0.4416
 6422SOL    HW130990   2.032  10.981   7.356 -1.0559 -0.0019 -0.9827
 6422SOL    HW230991   2.048  10.840   7.407  1.5176  0.4882 -0.2988
 6423SOL     OW30992   6.308   5.097   7.575  0.4022  0.1219 -0.3032
 6423SOL    HW130993   6.330   5.084   7.667 -1.2952  0.3112  0.1706
 6423SOL    HW230994   6.378   5.152   7.541  2.1513 -1.5850  0.3184
 6424SOL     OW30995   3.053   8.554   4.651  0.1272 -0.0182 -0.5270
 6424SOL    HW130996   3.010   8.570   4.567  0.9920 -2.5354 -1.5508
 6424SOL    HW230997   2.995   8.595   4.716 -1.5764  0.3325 -2.1774
 6425SOL     OW30998   0.522   2.934   4.911 -0.0854  0.3925  0.8945
 6425SOL    HW130999   0.432   2.913   4.886 -0.1664  1.6940  0.0238
 6425SOL    HW231000   0.549   2.860   4.966 -1.5272 -0.2297  0.8134
 6426SOL     OW31001  11.613   2.136   2.585 -0.2496 -0.2664 -0.1170
 6426SOL    HW131002  11.659   2.169   2.662  0.0082  0.0695 -0.4080
 6426SOL    HW231003  11.611   2.041   2.597 -0.9766 -0.1508  0.7201
 6427SOL     OW31004   3.061   0.861  10.113  0.0619  0.4258 -0.5027
 6427SOL    HW131005   3.050   0.766  10.118 -0.1293  0.4918  0.5349
 6427SOL    HW231006   3.103   0.876  10.028  0.4987 -0.6156 -0.4821
 6428SOL     OW31007   0.007   7.581  10.892  0.4979  0.2674  0.0697
 6428SOL    HW131008   0.010   7.582  10.797  0.6097  1.0061  0.0790
 6428SOL    HW231009   0.072   7.515  10.918  0.7422  0.3437 -0.3483
 6429SOL     OW31010   3.362   9.182   5.419  0.4308 -0.0597  0.1184
 6429SOL    HW131011   3.316   9.109   5.378 -0.7948  1.1976 -0.8328
 6429SOL    HW231012   3.437   9.141   5.463 -0.6715 -1.9664  0.3245
 6430SOL     OW31013   8.860   3.472  10.107 -0.0334 -0.0371  0.5032
 6430SOL    HW131014   8.852   3.484  10.013 -1.5239 -0.7743  0.5146
 6430SOL    HW231015   8.780   3.510  10.144  0.8367  0.8694  1.5537
 6431SOL     OW31016  11.942   1.463   6.161  0.6532 -0.3103 -0.2223
 6431SOL    HW131017  12.026   1.445   6.118  0.9235  0.1937  0.0908
 6431SOL    HW231018  11.936   1.398   6.230  1.8113  0.9650  1.1596
 6432SOL     OW31019  11.398  11.367   6.241  0.1782 -0.0824  0.2728
 6432SOL    HW131020  11.305  11.364   6.265 -0.4231 -2.6528 -1.9013
 6432SOL    HW231021  11.436  11.290   6.283  1.0098  0.1592 -0.0194
 6433SOL     OW31022   2.593   2.526   7.190 -0.2589 -0.6587 -0.2776
 6433SOL    HW131023   2.521   2.586   7.168 -0.9339 -0.8894  1.1963
 6433SOL    HW231024   2.557   2.439   7.173 -0.3075 -0.7672  0.3465
 6434SOL     OW31025   1.836   2.009   5.364 -0.1905 -0.0701  0.1277
 6434SOL    HW131026   1.779   2.083   5.343  1.5432  1.3633  0.2442
 6434SOL    HW231027   1.924   2.039   5.341  0.7821 -1.4540  1.7848
 6435SOL     OW31028   5.393   0.746   4.863 -0.4656  0.1158  0.4550
 6435SOL    HW131029   5.379   0.680   4.796  0.0209  1.9858 -1.5883
 6435SOL    HW231030   5.308   0.787   4.875  0.1281  2.1969 -1.7776
 6436SOL     OW31031   6.904   1.709   7.558  0.2308  0.3741  0.2561
 6436SOL    HW131032   6.878   1.712   7.466  0.5950 -0.7389  0.0925
 6436SOL    HW231033   6.997   1.732   7.557  0.2754  0.1991  0.3222
 6437SOL     OW31034   4.833  10.646   8.064 -0.4272  0.2342 -0.8837
 6437SOL    HW131035   4.785  10.607   8.137  0.0866 -1.3369 -1.3432
 6437SOL    HW231036   4.779  10.628   7.987 -1.0905  2.1030 -0.8974
 6438SOL     OW31037   9.377  10.464  11.656 -0.0893  0.0633 -0.2535
 6438SOL    HW131038   9.305  10.402  11.662  1.0400 -1.2178  0.7468
 6438SOL    HW231039   9.355  10.532  11.720 -0.1105 -0.6626  0.5302
 6439SOL     OW31040   0.212   2.523   1.021 -0.5700 -0.1589 -0.2937
 6439SOL    HW131041   0.207   2.610   0.982  1.6736  0.3040  0.2646
 6439SOL    HW231042   0.275   2.533   1.093 -0.2017 -2.2529 -0.2666
 6440SOL     OW31043   2.817   7.059   1.775  0.0856  0.1920  0.3797
 6440SOL    HW131044   2.872   7.089   1.703  0.8472 -0.8790  0.4917
 6440SOL    HW231045   2.865   6.986   1.813 -1.3630 -0.7030  0.5741
 6441SOL     OW31046   0.493   3.994   4.130  0.4571  0.0292 -0.7731
 6441SOL    HW131047   0.406   4.009   4.093  0.5363 -2.2301 -2.0630
 6441SOL    HW231048   0.551   4.051   4.080 -0.4454  3.2210  1.5399
 6442SOL     OW31049   4.739  10.333   3.361  0.5712  0.1977  0.0124
 6442SOL    HW131050   4.776  10.379   3.286  1.3291 -2.0839 -1.0927
 6442SOL    HW231051   4.771  10.383   3.437 -1.2965  3.3584 -1.0661
 6443SOL     OW31052   1.884   6.138   8.848  0.7148  0.7150 -0.0464
 6443SOL    HW131053   1.959   6.145   8.789  0.7639  1.8216  0.1138
 6443SOL    HW231054   1.922   6.147   8.936  0.5661 -0.2500  0.1226
 6444SOL     OW31055   3.249   2.519  10.123  0.1968  0.5625 -0.1276
 6444SOL    HW131056   3.229   2.589  10.061 -0.1901  0.2546 -0.3519
 6444SOL    HW231057   3.295   2.453  10.071  0.4439  0.5887  0.0555
 6445SOL     OW31058   8.173   7.015   9.706 -0.1430  0.1378  0.1348
 6445SOL    HW131059   8.188   6.937   9.653  2.2190  1.7698 -1.7477
 6445SOL    HW231060   8.085   7.001   9.742 -0.3436 -2.7715 -1.1337
 6446SOL     OW31061   5.363  11.053   4.055  0.7775  0.3276 -0.3290
 6446SOL    HW131062   5.445  11.003   4.059 -0.3509 -1.7166 -1.0658
 6446SOL    HW231063   5.322  11.040   4.140  1.3671  1.6943  0.1899
 6447SOL     OW31064   3.153   2.491   2.477 -0.2814  0.0800  0.8695
 6447SOL    HW131065   3.116   2.453   2.397  0.7588 -0.7020  0.7524
 6447SOL    HW231066   3.079   2.495   2.538 -1.0017  0.3538 -0.0053
 6448SOL     OW31067   8.780   0.530   6.831 -0.3334 -0.3309 -0.0634
 6448SOL    HW131068   8.749   0.610   6.789 -0.8131  0.0345  0.9736
 6448SOL    HW231069   8.704   0.496   6.878  0.8854  0.9305  3.0939
 6449SOL     OW31070   7.297   9.376   1.144 -0.3005  0.5268  0.0795
 6449SOL    HW131071   7.209   9.410   1.160 -0.3243  0.5800 -0.1621
 6449SOL    HW231072   7.329   9.351   1.231 -1.3307 -1.4330 -0.0550
 6450SOL     OW31073   6.661   5.224  11.945  0.4315  0.1748  0.7135
 6450SOL    HW131074   6.710   5.149  11.910 -0.0334 -0.2170  0.8865
 6450SOL    HW231075   6.583   5.185  11.985  1.0867  0.5807  2.4500
 6451SOL     OW31076   7.104   9.760   5.128 -0.5786  0.2204  0.2057
 6451SOL    HW131077   7.088   9.683   5.182  0.2811  0.3955  0.7215
 6451SOL    HW231078   7.080   9.834   5.184 -0.4175  0.3718  0.0750
 6452SOL     OW31079   4.830   2.646   0.112 -0.1390  0.0867  0.4353
 6452SOL    HW131080   4.835   2.552   0.131  0.9608  0.3458  1.5536
 6452SOL    HW231081   4.798   2.650   0.022  0.4992 -1.3804  0.1046
 6453SOL     OW31082   3.525   7.131   3.678  0.6357 -0.9983 -0.4793
 6453SOL    HW131083   3.464   7.144   3.606  0.4776 -1.2139 -0.3850
 6453SOL    HW231084   3.508   7.204   3.737 -0.7407 -1.9760  0.3950
 6454SOL     OW31085   6.999  11.749   4.788 -0.0547 -0.1363 -0.3098
 6454SOL    HW131086   6.969  11.820   4.845  1.6724  0.3587  0.0381
 6454SOL    HW231087   6.965  11.669   4.829  1.2582  0.1943  1.5615
 6455SOL     OW31088   5.456  10.189  11.882 -0.1974 -0.0655 -0.1415
 6455SOL    HW131089   5.437  10.146  11.799 -2.7486 -0.9060  0.7786
 6455SOL    HW231090   5.538  10.148  11.911  0.0869 -0.6334 -1.6442
 6456SOL     OW31091  11.024   0.797   9.855 -0.2857 -0.7379  0.0112
 6456SOL    HW131092  11.108   0.826   9.817 -0.8610  0.8107 -0.1687
 6456SOL    HW231093  11.027   0.702   9.849  1.4195 -0.7218 -0.0917
 6457SOL     OW31094   8.229   3.294  10.966  0.3779  0.5222  1.0605
 6457SOL    HW131095   8.197   3.207  10.987 -0.0505 -0.1652 -1.9732
 6457SOL    HW231096   8.155   3.338  10.924  1.0560  1.7683  1.1179
 6458SOL     OW31097   0.908   1.058   1.653 -0.1932  0.3339  0.5566
 6458SOL    HW131098   0.947   0.971   1.655  0.0116  0.3999 -0.3188
 6458SOL    HW231099   0.970   1.111   1.603 -0.4821  0.8988  0.7938
 6459SOL     OW31100   7.321   3.653  10.263 -0.7486 -0.1886 -0.1235
 6459SOL    HW131101   7.329   3.736  10.311  0.7791 -1.7332  2.5047
 6459SOL    HW231102   7.233   3.657  10.224 -0.7220  2.6389 -0.1104
 6460SOL     OW31103   9.863   4.160   3.626 -0.2252  0.1312  0.5257
 6460SOL    HW131104   9.940   4.156   3.569 -0.3105  0.4554  0.3845
 6460SOL    HW231105   9.898   4.153   3.715  0.1529  2.0487  0.5719
 6461SOL     OW31106   0.378   1.017   7.625  0.4919  0.4215  0.0567
 6461SOL    HW131107   0.339   1.051   7.706 -0.0142  1.4539 -0.5994
 6461SOL    HW231108   0.332   0.934   7.610  1.3226 -0.3149  1.3633
 6462SOL     OW31109  10.482  11.595   4.942  0.4784  0.3225  0.1379
 6462SOL    HW131110  10.491  11.668   4.881  0.3879  1.8820  1.8971
 6462SOL    HW231111  10.491  11.635   5.029 -2.9667 -1.1316  1.3482
 6463SOL     OW31112  11.721  11.869  10.939  0.1107 -0.3526 -0.1028
 6463SOL    HW131113  11.698  11.853  11.030 -1.8238  1.0771 -0.2864
 6463SOL    HW231114  11.775  11.948  10.941 -1.0359  0.4634 -0.2659
 6464SOL     OW31115   1.932   5.941   5.766 -0.0019  0.4242 -0.5414
 6464SOL    HW131116   1.855   5.901   5.807  1.7077 -0.7852  1.7545
 6464SOL    HW231117   1.905   5.957   5.675 -1.5696 -4.0928 -1.1425
 6465SOL     OW31118   6.230   2.854   3.273 -0.4877  0.0269 -0.2801
 6465SOL    HW131119   6.290   2.864   3.347  0.5057  1.3965 -1.2180
 6465SOL    HW231120   6.233   2.760   3.253  1.4706  0.0617 -0.3668
 6466SOL     OW31121   6.716   1.346   4.755  0.2728  0.1763 -0.6755
 6466SOL    HW131122   6.755   1.313   4.674 -0.0676  0.4272 -0.9470
 6466SOL    HW231123   6.637   1.393   4.726  0.0821  0.1631 -0.1891
 6467SOL     OW31124   2.429   8.171  11.086  0.2546 -0.4621  0.0318
 6467SOL    HW131125   2.514   8.127  11.073  0.3570  0.1612 -1.5172
 6467SOL    HW231126   2.372   8.133  11.020 -0.8151 -1.1130  1.2740
 6468SOL     OW31127   2.292   9.554   3.850 -0.1994 -0.1729  0.1518
 6468SOL    HW131128   2.322   9.642   3.830  1.7409 -1.0531 -1.0986
 6468SOL    HW231129   2.285   9.552   3.945 -1.4392  1.6532  0.1352
 6469SOL     OW31130   0.231   2.690  10.649 -0.0487 -0.6034  0.3339
 6469SOL    HW131131   0.225   2.682  10.554 -1.6336 -0.0579  0.3614
 6469SOL    HW231132   0.281   2.771  10.663 -2.0012  0.7382 -0.0861
 6470SOL     OW31133   7.617   0.037   5.608  0.0944  0.1725 -0.2560
 6470SOL    HW131134   7.561  -0.026   5.563  0.1065 -0.3747  0.4795
 6470SOL    HW231135   7.704   0.024   5.569  0.4822 -1.4862  1.0557
 6471SOL     OW31136   3.155  10.654   4.796 -0.0404  0.2647 -0.4837
 6471SOL    HW131137   3.220  10.651   4.726  0.0742  0.4879 -0.3903
 6471SOL    HW231138   3.156  10.745   4.825 -0.4398  0.2826 -0.5221
 6472SOL     OW31139   3.516  11.352   9.358  0.4541 -0.3600 -0.1750
 6472SOL    HW131140   3.579  11.420   9.383  0.5514 -0.5721  0.1594
 6472SOL    HW231141   3.541  11.276   9.410 -0.8591 -0.0707  0.9438
 6473SOL     OW31142   2.651   6.568   7.999  0.4640  0.1545  0.1077
 6473SOL    HW131143   2.641   6.499   7.933 -0.0345 -0.6930  1.0512
 6473SOL    HW231144   2.701   6.636   7.954  0.4837 -0.5757 -1.0231
 6474SOL     OW31145   7.497   5.346   7.674  0.0643  0.7224  0.0552
 6474SOL    HW131146   7.583   5.388   7.674  0.1421  0.6181  1.5231
 6474SOL    HW231147   7.449   5.388   7.746 -1.1970  0.9099 -0.8444
 6475SOL     OW31148   3.389   1.493   0.098  0.1818  0.4410  0.2903
 6475SOL    HW131149   3.457   1.427   0.090  0.6474  0.9268  0.1784
 6475SOL    HW231150   3.345   1.473   0.181  0.5318  0.1865  0.4137
 6476SOL     OW31151   3.044  11.464   2.915 -0.3821 -0.3073  0.4896
 6476SOL    HW131152   3.014  11.390   2.862 -0.4215 -0.9077  1.3319
 6476SOL    HW231153   2.966  11.515   2.932 -0.0060  1.3447 -2.1689
 6477SOL     OW31154   1.515   1.032   3.229 -0.4681 -0.7220  0.1992
 6477SOL    HW131155   1.560   1.099   3.280 -0.2469 -1.7710  1.4423
 6477SOL    HW231156   1.584   0.986   3.183 -0.7308  0.6968 -1.6978
 6478SOL     OW31157   3.234  11.478  10.531  0.6215  0.1600 -0.1830
 6478SOL    HW131158   3.144  11.506  10.548  0.6305  1.4050 -1.8490
 6478SOL    HW231159   3.248  11.403  10.589 -1.5884 -0.2610 -0.1078
 6479SOL     OW31160   8.349   6.563  11.698  0.2209 -0.0257 -0.2575
 6479SOL    HW131161   8.348   6.628  11.768  0.0706  1.2371 -1.4049
 6479SOL    HW231162   8.428   6.511  11.715  0.5080  0.6384  0.5006
 6480SOL     OW31163   8.680   2.957   3.997 -0.0293 -0.3061  0.3122
 6480SOL    HW131164   8.606   2.912   4.037  0.7517  0.3293  2.6244
 6480SOL    HW231165   8.659   2.959   3.904 -1.9594 -1.8739  0.6424
 6481SOL     OW31166   7.955   7.884   0.515  0.4822 -0.6459 -0.1126
 6481SOL    HW131167   8.032   7.833   0.539  1.2465 -0.2482 -1.6377
 6481SOL    HW231168   7.890   7.861   0.582  1.9311 -0.8988  1.2597
 6482SOL     OW31169   8.944   6.194   7.887  0.3542  0.9303  0.2038
 6482SOL    HW131170   8.889   6.265   7.919  0.7954  1.0499  0.7042
 6482SOL    HW231171   9.026   6.202   7.936  0.1795 -0.3132  0.7469
 6483SOL     OW31172   4.981   1.692   8.216  0.0095 -0.4577  0.2137
 6483SOL    HW131173   4.992   1.705   8.310  0.4302 -1.8833  0.3837
 6483SOL    HW231174   5.055   1.637   8.190 -0.0746 -0.0465 -0.9686
 6484SOL     OW31175  11.518   3.119   5.858  0.3009 -0.0527 -0.3321
 6484SOL    HW131176  11.505   3.200   5.908 -1.5341  1.7630 -3.4413
 6484SOL    HW231177  11.586   3.141   5.794 -0.0623 -1.0351 -1.0796
 6485SOL     OW31178  10.748   6.178   8.075  0.0347 -0.0867  0.0221
 6485SOL    HW131179  10.709   6.212   7.994 -0.4988 -1.4607 -0.3230
 6485SOL    HW231180  10.834   6.221   8.080  0.2504 -0.2816 -1.4964
 6486SOL     OW31181   4.604   7.299   6.552  0.2375 -0.1826  0.3193
 6486SOL    HW131182   4.599   7.325   6.644 -2.8599  4.6121 -0.8605
 6486SOL    HW231183   4.671   7.357   6.514  0.8960 -1.5263 -0.6749
 6487SOL     OW31184  10.585   0.770   6.796  0.3131  0.5257  0.0973
 6487SOL    HW131185  10.521   0.744   6.730 -0.1258 -0.7000  0.9706
 6487SOL    HW231186  10.593   0.865   6.786 -1.0801  0.6005 -0.5114
 6488SOL     OW31187   6.484   8.425  10.928  0.2888 -0.2032 -0.0231
 6488SOL    HW131188   6.540   8.426  11.006  0.7347  1.3524 -0.3251
 6488SOL    HW231189   6.447   8.513  10.924 -2.7807 -1.3340  0.5309
 6489SOL     OW31190   4.575   8.145  10.284 -0.0710 -0.0093 -0.1724
 6489SOL    HW131191   4.552   8.053  10.285  0.5477 -0.1895 -1.2878
 6489SOL    HW231192   4.507   8.187  10.232  0.2219 -0.0115 -0.5654
 6490SOL     OW31193   2.959   3.362   6.555 -0.4666  0.2056  0.7935
 6490SOL    HW131194   2.882   3.348   6.500 -0.2877 -1.8158  0.9814
 6490SOL    HW231195   2.945   3.304   6.630  1.8288 -1.2476  0.1895
 6491SOL     OW31196   2.547   9.282   8.831  0.0355 -0.0061 -0.2181
 6491SOL    HW131197   2.525   9.202   8.783 -0.0299  0.3219 -0.7485
 6491SOL    HW231198   2.578   9.343   8.763  0.2541  0.3572  0.2016
 6492SOL     OW31199   2.497  10.788   9.314 -0.3923 -0.9091  0.0508
 6492SOL    HW131200   2.412  10.823   9.340 -0.1383 -1.0536  1.1342
 6492SOL    HW231201   2.477  10.708   9.266 -0.8665 -1.0157  0.4165
 6493SOL     OW31202   4.867   1.998   0.713 -0.4388  1.0488  0.1677
 6493SOL    HW131203   4.900   2.079   0.673 -1.4865  2.2807  1.6553
 6493SOL    HW231204   4.771   2.006   0.707 -0.5777  0.4639  1.3185
 6494SOL     OW31205   0.193   5.381   7.296  0.1688 -0.1517  0.3420
 6494SOL    HW131206   0.166   5.463   7.256  0.5896  0.7125  1.7509
 6494SOL    HW231207   0.283   5.396   7.324 -0.2075 -0.5609  1.8993
 6495SOL     OW31208   8.597   9.460   9.676 -0.0891  0.1443  0.1562
 6495SOL    HW131209   8.570   9.515   9.749 -0.1732  0.5086 -0.1488
 6495SOL    HW231210   8.645   9.518   9.618  1.6875 -0.5462  0.8378
 6496SOL     OW31211   7.650   2.034   0.908  0.0520 -0.1176  0.1044
 6496SOL    HW131212   7.722   2.009   0.850 -1.4625  0.7378 -2.2879
 6496SOL    HW231213   7.628   2.123   0.880 -1.5559 -0.1517  1.1839
 6497SOL     OW31214   4.855   8.599   4.405 -1.0942 -0.1515 -0.2858
 6497SOL    HW131215   4.796   8.632   4.472 -1.1506  2.2085 -1.4102
 6497SOL    HW231216   4.943   8.616   4.440 -1.1026 -0.4696 -0.1055
 6498SOL     OW31217   7.879   7.327   8.718  0.2396 -0.0840  0.4094
 6498SOL    HW131218   7.800   7.366   8.681 -0.6958 -3.1696 -1.1926
 6498SOL    HW231219   7.942   7.325   8.646  1.9871  2.4872  1.7046
 6499SOL     OW31220   0.095   5.386   1.424 -0.0054  0.3210 -0.8167
 6499SOL    HW131221   0.162   5.398   1.492  0.7041 -1.0410 -1.2358
 6499SOL    HW231222   0.048   5.469   1.421  0.5618  0.7231  0.6872
 6500SOL     OW31223   9.389   7.888   4.456  0.3805 -0.6571 -0.2477
 6500SOL    HW131224   9.353   7.942   4.527 -0.0314  0.0462 -0.9688
 6500SOL    HW231225   9.467   7.848   4.494 -0.4989 -1.2718  0.9853
 6501SOL     OW31226   4.549   6.195  10.726 -0.1947 -0.2520 -0.2614
 6501SOL    HW131227   4.607   6.231  10.658  0.6104 -1.8325 -0.4516
 6501SOL    HW231228   4.478   6.154  10.677 -0.2189 -0.3844 -0.1134
 6502SOL     OW31229  10.947   6.667   6.335  0.0711 -0.0511 -0.4353
 6502SOL    HW131230  10.879   6.685   6.271  0.6636 -0.5545 -1.2187
 6502SOL    HW231231  10.969   6.575   6.323 -0.2568 -0.3431  0.9455
 6503SOL     OW31232   2.629   3.809   6.337  0.3403  0.9215 -0.3523
 6503SOL    HW131233   2.595   3.805   6.426 -0.1096  0.0295 -0.5590
 6503SOL    HW231234   2.724   3.807   6.347  0.3114  1.4941  0.1293
 6504SOL     OW31235  10.615   9.839   6.997  0.0558 -0.4511  0.2420
 6504SOL    HW131236  10.604   9.830   7.092  1.2071 -1.7399  0.2796
 6504SOL    HW231237  10.639   9.930   6.984 -0.3104 -0.2080  1.1623
 6505SOL     OW31238   5.207   1.805   5.985  0.1199 -0.2469  0.1060
 6505SOL    HW131239   5.295   1.788   5.953 -0.1092 -2.0128  0.3246
 6505SOL    HW231240   5.166   1.719   5.992 -1.2427  0.4270  1.1028
 6506SOL     OW31241   4.991   0.025   1.057  0.0922  0.3217  0.4423
 6506SOL    HW131242   4.947  -0.004   0.977 -1.5940  2.7308  0.3722
 6506SOL    HW231243   5.051   0.094   1.028  1.2564 -0.4279  1.0039
 6507SOL     OW31244   5.355   3.746  10.182  0.5032 -0.2735  0.1432
 6507SOL    HW131245   5.270   3.739  10.226  0.1367  1.7103 -0.1617
 6507SOL    HW231246   5.398   3.663  10.201 -1.8475 -1.7399 -0.4631
 6508SOL     OW31247   2.331   6.705  11.602  0.1752  0.2789 -0.1625
 6508SOL    HW131248   2.332   6.639  11.533 -0.1889  0.5279 -0.4092
 6508SOL    HW231249   2.392   6.671  11.668 -0.1355 -0.3861 -0.2080
 6509SOL     OW31250  10.044   6.230   9.617  0.1304 -0.0415 -0.1292
 6509SOL    HW131251   9.982   6.302   9.626  1.6400  1.1722  1.3048
 6509SOL    HW231252  10.049   6.191   9.705  1.5561  0.0831 -0.1198
 6510SOL     OW31253   6.869   8.940   4.740 -0.1654  0.0470  0.0970
 6510SOL    HW131254   6.851   9.023   4.784  2.9886  0.0829  1.5869
 6510SOL    HW231255   6.898   8.881   4.810  1.5336 -1.0374 -1.4374
 6511SOL     OW31256  11.736  11.271   5.977 -0.3238 -0.1661  0.3484
 6511SOL    HW131257  11.721  11.187   5.932 -1.0197  0.2307 -0.1803
 6511SOL    HW231258  11.733  11.248   6.070  0.7941 -0.9378  0.2159
 6512SOL     OW31259   2.425   8.602   6.489  0.3657  0.4374  0.1469
 6512SOL    HW131260   2.410   8.632   6.578  0.6032 -1.2912  0.8062
 6512SOL    HW231261   2.343   8.620   6.443  0.2339  1.3063  0.7083
 6513SOL     OW31262  11.240   7.206  10.903 -0.2099  0.2556 -0.3360
 6513SOL    HW131263  11.294   7.260  10.844  1.5433 -0.4900  0.4964
 6513SOL    HW231264  11.151   7.236  10.888 -0.0578 -0.6015 -4.1758
 6514SOL     OW31265  11.591  10.912   6.529  0.6903 -0.1042 -0.1678
 6514SOL    HW131266  11.683  10.892   6.550  1.0207  0.7581 -0.7702
 6514SOL    HW231267  11.576  10.867   6.446  0.8231  0.4552 -0.4952
 6515SOL     OW31268   3.197   1.104  10.221  0.6798  0.0594  0.1957
 6515SOL    HW131269   3.174   1.060  10.139 -0.3779 -0.3011  0.6684
 6515SOL    HW231270   3.221   1.193  10.195 -0.1183  0.0929 -0.4556
 6516SOL     OW31271   5.524   6.613   7.975 -0.1669 -0.2357  0.7515
 6516SOL    HW131272   5.517   6.649   7.887 -1.1288 -1.0830  0.4648
 6516SOL    HW231273   5.440   6.636   8.017 -0.4115 -1.3071  0.8707
 6517SOL     OW31274   3.688   9.774   5.763  0.6557  1.0078 -0.4559
 6517SOL    HW131275   3.748   9.830   5.713  2.2853  0.5117  0.8545
 6517SOL    HW231276   3.655   9.832   5.832  1.7479  0.6019  0.4367
 6518SOL     OW31277  11.111   6.983   8.978  0.3865 -0.0178  0.1528
 6518SOL    HW131278  11.070   6.979   9.065  0.6797  1.4995  0.3880
 6518SOL    HW231279  11.074   7.061   8.938  0.4247 -0.5850 -1.0191
 6519SOL     OW31280   3.843   3.657   1.545  0.2008  0.0197 -0.2154
 6519SOL    HW131281   3.775   3.718   1.572 -0.2010  0.2668 -1.6679
 6519SOL    HW231282   3.823   3.576   1.592 -0.5832  0.3501  0.0332
 6520SOL     OW31283   4.658  10.457   8.212 -0.3448  0.4217 -0.0424
 6520SOL    HW131284   4.682  10.523   8.278  0.6753 -2.0597  2.2480
 6520SOL    HW231285   4.568  10.433   8.235 -0.8543  1.2141 -1.1186
 6521SOL     OW31286  10.490   2.995   2.634  0.3180 -0.8589 -0.2238
 6521SOL    HW131287  10.566   3.009   2.578 -0.5642 -1.0910 -1.5486
 6521SOL    HW231288  10.421   2.966   2.573 -0.8210 -0.6652  0.9277
 6522SOL     OW31289   1.708  11.045   1.815  0.0112  0.3437 -0.0562
 6522SOL    HW131290   1.754  11.049   1.730 -0.1374  0.8927 -0.1138
 6522SOL    HW231291   1.747  11.116   1.866  1.1600 -0.9120  0.8849
 6523SOL     OW31292   5.877   0.811  10.670 -0.1153  0.3694  0.0237
 6523SOL    HW131293   5.830   0.889  10.701 -1.7222 -0.1312 -1.0445
 6523SOL    HW231294   5.925   0.780  10.747  0.0168  2.0022  0.6445
 6524SOL     OW31295   1.593   4.193  11.107 -0.7839 -0.1500 -0.3766
 6524SOL    HW131296   1.508   4.201  11.150 -0.1178 -1.4321  1.2736
 6524SOL    HW231297   1.587   4.111  11.058 -0.7693  0.1729 -0.9225
 6525SOL     OW31298   0.428   7.665  10.545  0.0958 -0.2997  0.4850
 6525SOL    HW131299   0.371   7.722  10.597 -1.0251 -0.4255 -0.5669
 6525SOL    HW231300   0.470   7.725  10.483 -0.6730 -0.5300 -0.2668
 6526SOL     OW31301   2.386   9.469  11.336  0.0457 -1.0665  0.0326
 6526SOL    HW131302   2.418   9.383  11.311  0.5647 -0.2924 -2.1723
 6526SOL    HW231303   2.419   9.528  11.268 -1.3894  0.6717  0.7538
 6527SOL     OW31304  10.432   4.265  10.195 -0.2147 -0.5390 -0.3042
 6527SOL    HW131305  10.407   4.228  10.110 -0.3779 -1.2878  0.0673
 6527SOL    HW231306  10.370   4.337  10.209 -0.5504 -0.7784 -0.5532
 6528SOL     OW31307   3.214   6.854   5.520 -0.0755  0.6770  0.4604
 6528SOL    HW131308   3.213   6.898   5.605  0.4593  0.8648  0.3741
 6528SOL    HW231309   3.247   6.921   5.459 -0.9821  0.7196  0.0048
 6529SOL     OW31310   2.260   1.514   5.052  0.0473 -0.3031  0.3349
 6529SOL    HW131311   2.189   1.578   5.046 -0.4197 -0.6843  1.5598
 6529SOL    HW231312   2.294   1.524   5.141  2.1812  0.5407 -0.5202
 6530SOL     OW31313   0.259   0.448   4.427 -0.5615  0.7487  0.1209
 6530SOL    HW131314   0.341   0.497   4.426 -1.2124  1.8836  0.8881
 6530SOL    HW231315   0.240   0.434   4.519 -0.0151 -1.6599 -0.0697
 6531SOL     OW31316   2.841   1.653  10.930 -0.0160 -0.4042  0.1960
 6531SOL    HW131317   2.878   1.588  10.870  1.6477 -0.1344  0.8757
 6531SOL    HW231318   2.875   1.736  10.899 -0.7579 -0.0286  0.3584
 6532SOL     OW31319   9.000   5.892   8.253 -0.4531 -0.1643 -0.0874
 6532SOL    HW131320   8.907   5.893   8.277 -0.8997 -0.7498 -1.6649
 6532SOL    HW231321   9.006   5.952   8.179  0.5937  0.4810  0.5112
 6533SOL     OW31322   3.123   1.273   9.119 -0.2624 -0.7562  0.2093
 6533SOL    HW131323   3.211   1.282   9.158 -0.4333 -1.0646  0.6781
 6533SOL    HW231324   3.125   1.189   9.075 -0.6491 -1.2598  1.1159
 6534SOL     OW31325   5.799  10.625   6.189 -0.3445 -0.1469  0.1253
 6534SOL    HW131326   5.802  10.548   6.246 -0.2641 -0.3126 -0.1043
 6534SOL    HW231327   5.887  10.632   6.153  0.2781  1.3196  1.8171
 6535SOL     OW31328   3.833   4.402   1.037  0.4889 -0.4311 -0.6301
 6535SOL    HW131329   3.740   4.416   1.056  1.0500  1.6887  0.7815
 6535SOL    HW231330   3.837   4.401   0.941 -0.9127 -0.1188 -0.7175
 6536SOL     OW31331  10.880   1.293   3.434 -0.0233 -0.2179  0.5290
 6536SOL    HW131332  10.969   1.259   3.429  0.3058  0.7144 -0.2148
 6536SOL    HW231333  10.879   1.368   3.374 -0.2774  1.9894  3.0856
 6537SOL     OW31334   3.734   6.795   0.216 -0.0053 -0.0373  0.6488
 6537SOL    HW131335   3.665   6.843   0.261 -0.5826  0.0531 -0.3018
 6537SOL    HW231336   3.692   6.760   0.138  1.3202  1.1203 -0.6446
 6538SOL     OW31337  10.976   9.655   9.333 -0.0319 -0.3524  0.0402
 6538SOL    HW131338  10.993   9.563   9.314  0.8649  0.2597 -2.5209
 6538SOL    HW231339  11.037   9.677   9.403 -0.4171 -1.7181  0.8447
 6539SOL     OW31340   8.831   6.603   3.275  0.1503 -0.1119 -0.1803
 6539SOL    HW131341   8.800   6.517   3.248  0.3896 -0.2180 -0.1136
 6539SOL    HW231342   8.751   6.651   3.299 -0.2938  0.5784 -2.7251
 6540SOL     OW31343   7.113   2.903   8.018  0.4225  0.0922  0.3448
 6540SOL    HW131344   7.084   2.892   7.928 -0.9322  1.7675  0.5223
 6540SOL    HW231345   7.208   2.903   8.014  0.3900 -0.8039 -0.9253
 6541SOL     OW31346   2.022   3.068  10.038  0.5075  0.6095  0.3494
 6541SOL    HW131347   2.027   3.135  10.106 -0.1026  2.0591 -1.0070
 6541SOL    HW231348   2.064   3.107   9.962 -0.1493 -0.4263 -0.5745
 6542SOL     OW31349   2.379   9.279   1.915  0.6024  0.2339 -0.2669
 6542SOL    HW131350   2.439   9.350   1.890 -1.3282  2.2273  0.4259
 6542SOL    HW231351   2.354   9.238   1.831  2.7642 -0.5666 -0.5665
 6543SOL     OW31352   3.837   8.306   9.855 -0.4298  0.2561 -0.2052
 6543SOL    HW131353   3.816   8.332   9.765  0.1789 -1.8536 -1.0041
 6543SOL    HW231354   3.800   8.219   9.865 -1.2174  0.7804  1.9115
 6544SOL     OW31355   2.385   3.100   1.356  0.0467 -0.1908 -0.0912
 6544SOL    HW131356   2.409   3.084   1.265  0.4293  0.1986 -0.0617
 6544SOL    HW231357   2.290   3.086   1.359 -0.1024  0.6298 -0.7388
 6545SOL     OW31358   2.688   4.988   2.818  0.4493  0.3806 -0.1594
 6545SOL    HW131359   2.675   4.901   2.857  0.8931 -0.8950 -2.6550
 6545SOL    HW231360   2.600   5.015   2.791  0.3320  0.6512  0.4827
 6546SOL     OW31361   1.451   1.985   9.864  0.1892 -0.9395  0.1783
 6546SOL    HW131362   1.396   1.979   9.785  0.7070 -0.6568 -0.2098
 6546SOL    HW231363   1.402   2.042   9.923  1.7061  2.4961 -1.5948
 6547SOL     OW31364   3.859  11.088   3.172 -0.2650  0.2776 -0.5042
 6547SOL    HW131365   3.825  10.999   3.170  0.2267  0.0543  0.6108
 6547SOL    HW231366   3.953  11.078   3.153 -0.1495  0.5227 -0.0684
 6548SOL     OW31367   2.685   4.009   2.076  0.3682  0.6336  0.0005
 6548SOL    HW131368   2.664   3.925   2.119  2.1610 -0.2350 -0.7361
 6548SOL    HW231369   2.778   4.003   2.055  0.2804  2.3819 -1.0749
 6549SOL     OW31370   7.394   9.271   0.585  0.3567  0.6465  0.2811
 6549SOL    HW131371   7.363   9.292   0.497  2.3455  1.6334 -0.2560
 6549SOL    HW231372   7.323   9.298   0.643 -0.7816  0.4510 -0.9573
 6550SOL     OW31373   1.094   9.764   4.748 -0.8822  0.0057 -0.0478
 6550SOL    HW131374   1.014   9.789   4.796 -0.1205  2.6822  0.0229
 6550SOL    HW231375   1.162   9.766   4.815 -0.3176  0.6260 -0.6302
 6551SOL     OW31376   8.696   8.793  10.500  0.3980 -0.0602  0.1958
 6551SOL    HW131377   8.699   8.889  10.508 -1.8191  0.0097  0.6900
 6551SOL    HW231378   8.685   8.777  10.407 -2.5839  0.3719  0.3853
 6552SOL     OW31379  11.361   0.649   5.383  0.6796  0.2550  0.1876
 6552SOL    HW131380  11.281   0.687   5.420  0.3644  0.0818 -0.3086
 6552SOL    HW231381  11.431   0.680   5.441  0.4118  1.4151 -0.0821
 6553SOL     OW31382   7.455   0.227   7.925 -0.0485  0.2811 -0.3933
 6553SOL    HW131383   7.375   0.185   7.894 -0.0863  0.3101 -0.3373
 6553SOL    HW231384   7.514   0.155   7.946 -0.0859  0.2576 -0.3688
 6554SOL     OW31385   5.542   7.892   5.219  0.2112 -0.6140  0.0023
 6554SOL    HW131386   5.610   7.930   5.275  1.0162 -2.1752  0.1405
 6554SOL    HW231387   5.480   7.964   5.204  0.8499  0.3006  1.5204
 6555SOL     OW31388   0.457   9.639   5.918 -0.3470 -0.3057  0.5130
 6555SOL    HW131389   0.525   9.650   5.852 -1.1556  1.0113 -0.1414
 6555SOL    HW231390   0.403   9.718   5.911 -0.2772  0.0508  2.9915
 6556SOL     OW31391   6.193  11.396   6.499  0.5965 -0.2889 -0.7876
 6556SOL    HW131392   6.204  11.454   6.424 -0.5070  0.2481 -0.5622
 6556SOL    HW231393   6.272  11.343   6.501  0.9677  0.2019 -1.8833
 6557SOL     OW31394   0.504   0.287   7.021  0.6800  0.0156  0.1028
 6557SOL    HW131395   0.529   0.360   7.078 -2.7479  0.3519  1.3908
 6557SOL    HW231396   0.444   0.325   6.957 -0.2515 -1.4405  0.0700
 6558SOL     OW31397   1.935   4.556   5.876  0.1383  0.3331 -0.7229
 6558SOL    HW131398   1.969   4.473   5.909  1.1412  1.0182  0.0350
 6558SOL    HW231399   1.968   4.561   5.786  0.1472 -0.0458 -0.7418
 6559SOL     OW31400   1.688   2.769   0.002  0.0071 -0.1023 -0.1216
 6559SOL    HW131401   1.783   2.770   0.012  0.1998 -2.5745 -1.1454
 6559SOL    HW231402   1.656   2.745   0.089  0.3198  0.3394  0.1225
 6560SOL     OW31403   9.432   9.840  10.437 -0.0872 -0.1393 -0.5651
 6560SOL    HW131404   9.378   9.815  10.512  0.0486 -1.1015 -0.7776
 6560SOL    HW231405   9.370   9.876  10.373 -0.2141  0.5829 -0.0400
 6561SOL     OW31406   3.787  11.500   3.721 -0.1872 -0.1005 -0.0977
 6561SOL    HW131407   3.822  11.558   3.788 -0.3273 -1.7861  1.4782
 6561SOL    HW231408   3.860  11.444   3.696 -0.1102  0.5625 -1.4607
 6562SOL     OW31409   8.814   0.976   9.215 -0.4671 -0.2734 -0.2756
 6562SOL    HW131410   8.759   1.049   9.244  0.4820  0.3439 -0.0162
 6562SOL    HW231411   8.867   1.012   9.145  0.2512 -0.6159  0.0858
 6563SOL     OW31412   8.305  11.082   0.219 -0.4192 -0.1653 -0.2822
 6563SOL    HW131413   8.220  11.127   0.221 -0.2945  0.0502  0.1869
 6563SOL    HW231414   8.295  11.008   0.280 -0.3801 -0.3415 -0.4874
 6564SOL     OW31415   7.346   1.956   4.384  0.7069  0.1873 -0.0452
 6564SOL    HW131416   7.317   1.870   4.414  0.3130  0.6403  0.9028
 6564SOL    HW231417   7.354   2.009   4.463 -0.8643  1.5671 -0.7153
 6565SOL     OW31418   5.366   5.204   6.831  0.0187  0.7469 -0.3063
 6565SOL    HW131419   5.417   5.257   6.770 -0.1793  0.2804 -0.8978
 6565SOL    HW231420   5.309   5.152   6.774 -2.3122  2.4246  0.3482
 6566SOL     OW31421   4.294  11.926   1.563 -0.1946  0.4543  0.2492
 6566SOL    HW131422   4.260  11.837   1.577  0.2588  0.4751  1.5829
 6566SOL    HW231423   4.289  11.938   1.468  1.3410 -1.6485 -0.1813
 6567SOL     OW31424   3.022  10.316   4.876  0.3715  0.6840  0.4371
 6567SOL    HW131425   3.065  10.230   4.870  0.2160  0.5805  0.8017
 6567SOL    HW231426   3.050  10.362   4.796 -0.6622 -0.2133 -0.4682
 6568SOL     OW31427  11.202   7.438   8.770 -0.9427 -0.4630 -0.3439
 6568SOL    HW131428  11.116   7.412   8.737 -2.3122  2.4671  0.5784
 6568SOL    HW231429  11.239   7.493   8.702 -0.2776 -0.8031 -0.2643
 6569SOL     OW31430   4.733  10.451   0.386  0.1554  0.0599  0.5177
 6569SOL    HW131431   4.798  10.388   0.415  0.3631 -0.0307 -0.1281
 6569SOL    HW231432   4.753  10.531   0.434  0.3159 -0.1683  0.8286
 6570SOL     OW31433   4.532   8.393   6.437 -0.0063 -0.4224  0.1360
 6570SOL    HW131434   4.536   8.325   6.370  0.2370 -0.6664  0.3943
 6570SOL    HW231435   4.528   8.475   6.389  3.9586 -0.2972 -0.2310
 6571SOL     OW31436   3.252   0.577   6.324  0.3402 -0.3511  0.1814
 6571SOL    HW131437   3.298   0.624   6.394  1.5055 -0.7426 -0.3083
 6571SOL    HW231438   3.291   0.490   6.323 -1.3739 -1.1507  0.6562
 6572SOL     OW31439  10.952   2.341   5.829 -0.2544 -0.6548  0.7822
 6572SOL    HW131440  10.878   2.348   5.890 -0.7549 -1.6972  0.3091
 6572SOL    HW231441  10.999   2.262   5.857  0.4269 -0.2579  0.7890
 6573SOL     OW31442  11.781  10.692   9.026 -0.1585  0.2724 -0.3530
 6573SOL    HW131443  11.870  10.682   8.992 -0.3160  2.9788 -1.8377
 6573SOL    HW231444  11.768  10.787   9.031 -2.5333 -0.0485  1.0612
 6574SOL     OW31445   4.904   1.210   3.909 -0.3076  0.4084 -0.2015
 6574SOL    HW131446   4.866   1.269   3.843  0.3701 -1.1549 -2.0792
 6574SOL    HW231447   4.830   1.155   3.936 -0.3720  0.3796 -0.4297
 6575SOL     OW31448   2.915   0.294   8.469 -0.7935  0.5140 -0.6919
 6575SOL    HW131449   2.845   0.345   8.509  0.4472  2.2464 -0.5969
 6575SOL    HW231450   2.944   0.234   8.539 -0.7477  1.3110 -0.0121
 6576SOL     OW31451   3.832   1.989   6.191 -0.4497 -0.0707  0.0205
 6576SOL    HW131452   3.776   1.911   6.191 -0.4612 -0.0751 -1.0967
 6576SOL    HW231453   3.891   1.975   6.266 -0.2704 -1.2867 -0.3201
 6577SOL     OW31454   2.480  11.693   6.477 -0.0700  0.1418  0.1710
 6577SOL    HW131455   2.500  11.683   6.384  0.2279 -0.8751  0.3288
 6577SOL    HW231456   2.386  11.707   6.480 -0.2442 -0.8456 -0.2365
 6578SOL     OW31457   1.162   4.844   2.721 -0.0098  0.2987  0.1625
 6578SOL    HW131458   1.070   4.828   2.700  0.1743 -0.9079  0.2490
 6578SOL    HW231459   1.177   4.935   2.694 -1.6062  1.0135  1.4998
 6579SOL     OW31460   0.464   8.161   6.948  0.4201  0.5492  0.4033
 6579SOL    HW131461   0.398   8.228   6.961 -1.3571 -0.9908 -0.2378
 6579SOL    HW231462   0.521   8.195   6.879 -0.5367  1.3335 -0.0139
 6580SOL     OW31463  11.828   4.717   1.994  0.3868 -0.2648  0.3889
 6580SOL    HW131464  11.805   4.778   1.924 -2.7420  0.5394  1.9580
 6580SOL    HW231465  11.924   4.724   2.001  0.5661  1.2624 -2.2532
 6581SOL     OW31466  11.726   1.947   0.475 -0.3238  0.2041  0.1173
 6581SOL    HW131467  11.785   2.019   0.497 -0.2516 -0.0164  0.6665
 6581SOL    HW231468  11.709   1.904   0.559  2.0946 -2.3174 -0.5224
 6582SOL     OW31469   9.871   3.799   0.212 -0.5912 -0.0586 -0.3063
 6582SOL    HW131470   9.897   3.835   0.296 -0.8735  2.2910 -1.1487
 6582SOL    HW231471   9.951   3.759   0.177 -0.5897 -1.4934  1.2268
 6583SOL     OW31472   1.007   1.182   9.750  0.1870  0.1547 -0.3699
 6583SOL    HW131473   0.987   1.276   9.753 -1.1818 -0.1102 -0.2883
 6583SOL    HW231474   1.015   1.162   9.657 -0.9014  0.1066 -0.4657
 6584SOL     OW31475   5.686  10.398   3.024 -0.4829  0.0476 -0.0266
 6584SOL    HW131476   5.644  10.312   3.026 -2.4484  0.9788  0.2584
 6584SOL    HW231477   5.637  10.451   3.087  0.7103  1.3971 -0.1644
 6585SOL     OW31478   5.710   1.997   4.952  0.4851  0.3795 -0.4580
 6585SOL    HW131479   5.652   1.922   4.939 -0.3362  1.1857 -1.6757
 6585SOL    HW231480   5.742   1.987   5.042  0.3655 -1.3842 -0.5739
 6586SOL     OW31481   8.995   2.047   5.142 -0.8118 -0.0026  0.1199
 6586SOL    HW131482   8.959   2.079   5.059  1.1668  1.2835 -0.3165
 6586SOL    HW231483   9.004   1.952   5.130 -0.4717  0.1779 -1.1979
 6587SOL     OW31484   0.321  11.696   4.672 -0.0668 -0.0974  0.3569
 6587SOL    HW131485   0.304  11.685   4.765  0.0118 -1.0409  0.2770
 6587SOL    HW231486   0.267  11.770   4.646 -2.3717 -1.5727  0.5803
 6588SOL     OW31487   1.861   2.960   7.005  0.2653  0.3657 -0.3956
 6588SOL    HW131488   1.918   2.904   6.952  0.3253  0.7041 -0.6990
 6588SOL    HW231489   1.776   2.918   7.002  0.2518  0.4166 -0.8259
 6589SOL     OW31490   9.374   3.532   6.807 -0.3539  0.2598 -0.0405
 6589SOL    HW131491   9.330   3.578   6.878 -0.1617  0.3257  0.0370
 6589SOL    HW231492   9.318   3.545   6.730 -1.6013 -1.4503  0.5226
 6590SOL     OW31493   0.899   4.232   8.517 -1.2310  0.3480 -0.0281
 6590SOL    HW131494   0.856   4.171   8.578  0.2424 -0.4016  0.3021
 6590SOL    HW231495   0.933   4.302   8.574 -0.4160 -0.0207 -0.0500
 6591SOL     OW31496   6.451   9.688   3.531  0.4724 -0.0426  0.0992
 6591SOL    HW131497   6.490   9.765   3.490 -0.5991  1.5069  1.8400
 6591SOL    HW231498   6.504   9.672   3.609  0.9212 -1.3432 -0.4460
 6592SOL     OW31499  10.083   3.370  11.864 -0.7349  0.3994  0.6991
 6592SOL    HW131500  10.043   3.335  11.784 -0.0042  1.6394 -0.2539
 6592SOL    HW231501  10.013   3.418  11.907 -0.9595  0.2863  0.4637
 6593SOL     OW31502   4.504   7.176   0.133 -0.7597 -0.1159  1.0393
 6593SOL    HW131503   4.570   7.109   0.148 -0.9435 -0.1383  1.8210
 6593SOL    HW231504   4.423   7.137   0.167 -1.0231  0.1948  0.7715
 6594SOL     OW31505   8.860   8.374   9.035  0.5673  0.2462 -0.4929
 6594SOL    HW131506   8.876   8.461   9.000 -1.5668  0.9847  0.2556
 6594SOL    HW231507   8.773   8.350   9.003  0.7824 -1.2846 -0.0400
 6595SOL     OW31508  11.281   2.760   1.569 -0.1852  0.0335 -0.2783
 6595SOL    HW131509  11.363   2.726   1.533 -0.3465  0.0111 -0.6353
 6595SOL    HW231510  11.213   2.711   1.523 -0.3931 -0.7958  0.8616
 6596SOL     OW31511   8.472  10.661  10.267 -0.6806 -0.4302 -0.5150
 6596SOL    HW131512   8.450  10.568  10.274 -2.2009 -0.0799 -0.2956
 6596SOL    HW231513   8.403  10.698  10.212  0.3883  0.4299 -1.3302
 6597SOL     OW31514   8.123   4.484   2.649 -0.1323 -0.1803  0.0064
 6597SOL    HW131515   8.118   4.440   2.734  1.7663 -0.3121  0.1078
 6597SOL    HW231516   8.097   4.417   2.586  0.5530 -0.7735  0.3388
 6598SOL     OW31517   6.157   5.503   1.932 -0.0460  0.0582 -0.8549
 6598SOL    HW131518   6.231   5.563   1.920  0.1838 -0.2401 -0.9266
 6598SOL    HW231519   6.108   5.509   1.850 -1.1947  1.7347 -0.0995
 6599SOL     OW31520   2.829  10.605   6.952 -0.1032 -0.9226  0.3401
 6599SOL    HW131521   2.871  10.521   6.935  0.1295 -1.3385  2.6487
 6599SOL    HW231522   2.857  10.661   6.879  0.0104 -2.7222 -1.0569
 6600SOL     OW31523   8.628   7.938  11.239  0.1039 -0.0752  1.0691
 6600SOL    HW131524   8.635   7.884  11.160 -2.0804  2.1693 -0.8639
 6600SOL    HW231525   8.612   7.876  11.310  1.6428 -2.1654 -0.3046
 6601SOL     OW31526   1.521  10.610   9.158  0.5391 -0.2336 -0.6692
 6601SOL    HW131527   1.427  10.600   9.139  0.6149 -1.2825 -0.5707
 6601SOL    HW231528   1.556  10.658   9.083  0.1615 -1.0427 -1.3813
 6602SOL     OW31529   5.411   4.189   7.098  0.4647 -0.5619 -0.3191
 6602SOL    HW131530   5.366   4.264   7.138  1.2479 -0.2470 -0.0239
 6602SOL    HW231531   5.374   4.185   7.009  0.3412  0.1139 -0.3072
 6603SOL     OW31532  10.068   4.497   8.461  0.0954  0.3585  1.0039
 6603SOL    HW131533  10.088   4.404   8.452  0.5277  0.4516  0.9315
 6603SOL    HW231534  10.152   4.536   8.486  0.0066  0.7842  0.6393
 6604SOL     OW31535   3.189   0.763   7.044 -0.3491 -0.2773  0.4589
 6604SOL    HW131536   3.122   0.697   7.024 -0.5666 -0.6127  2.0713
 6604SOL    HW231537   3.140   0.835   7.084 -0.1263  0.9808 -1.4138
 6605SOL     OW31538   9.246   3.653   6.575 -0.0137  0.3883  0.2291
 6605SOL    HW131539   9.173   3.620   6.522  1.1745  0.6976 -1.6647
 6605SOL    HW231540   9.219   3.740   6.602 -0.4939  0.3558 -0.1381
 6606SOL     OW31541   9.172   1.530   1.811 -0.3779 -0.3802 -0.2125
 6606SOL    HW131542   9.173   1.524   1.907  1.7363 -0.6537 -0.2161
 6606SOL    HW231543   9.167   1.439   1.782 -0.2666 -0.3390 -0.3586
 6607SOL     OW31544   0.411   5.993   6.466 -0.5117  0.0923  0.2167
 6607SOL    HW131545   0.470   6.024   6.396 -1.5982  1.9981  0.0803
 6607SOL    HW231546   0.351   5.932   6.422  0.9094 -1.3979  0.2381
 6608SOL     OW31547   5.001  10.432  10.097  0.0257 -0.1519 -0.0267
 6608SOL    HW131548   4.937  10.416  10.167  0.1092 -0.2897  0.0187
 6608SOL    HW231549   5.085  10.442  10.143  0.1696 -0.7708 -0.1421
 6609SOL     OW31550   4.470   0.645   5.806 -0.1297  0.7776  0.5625
 6609SOL    HW131551   4.421   0.727   5.817 -1.0066  0.3446  0.0680
 6609SOL    HW231552   4.443   0.591   5.881 -0.3097  0.5880  0.3633
 6610SOL     OW31553   5.777   9.888   3.363  0.0877 -0.0618 -0.0728
 6610SOL    HW131554   5.740   9.799   3.365  2.7840 -1.3069 -0.7559
 6610SOL    HW231555   5.763   9.917   3.273  0.4348 -0.4094 -0.2468
 6611SOL     OW31556   5.375   1.090   9.062  0.1796  0.1534  0.1356
 6611SOL    HW131557   5.304   1.077   9.125 -0.0311 -0.6991 -0.2533
 6611SOL    HW231558   5.351   1.170   9.016 -0.1604  0.2657  0.5007
 6612SOL     OW31559   4.419   7.018   2.190 -0.1551  0.0281  0.4309
 6612SOL    HW131560   4.445   7.091   2.245 -0.5715  0.9689 -0.5894
 6612SOL    HW231561   4.332   7.042   2.158 -0.2157 -0.8217 -0.0760
 6613SOL     OW31562  11.506   8.042   6.929  0.2805 -0.3426 -0.0602
 6613SOL    HW131563  11.506   7.956   6.887 -1.0397 -0.3537 -0.0627
 6613SOL    HW231564  11.420   8.079   6.910  0.6934  0.8339  0.2565
 6614SOL     OW31565   4.775   9.336   0.314  0.2806 -0.3473  0.5869
 6614SOL    HW131566   4.725   9.262   0.280 -0.2347  0.3253 -0.1926
 6614SOL    HW231567   4.865   9.320   0.287  0.1541 -0.6495  0.3451
 6615SOL     OW31568  11.420   1.144   3.546 -0.2497  0.0287  0.0205
 6615SOL    HW131569  11.482   1.184   3.608 -1.1927  1.8132 -0.1182
 6615SOL    HW231570  11.357   1.098   3.601  0.3188 -0.4931  0.2428
 6616SOL     OW31571   6.501   2.207   3.437  0.2276  0.2438  1.0548
 6616SOL    HW131572   6.537   2.128   3.399 -0.3637 -0.4271  1.8391
 6616SOL    HW231573   6.577   2.258   3.465  0.6925  0.9173 -1.2334
 6617SOL     OW31574   6.254   4.944   4.022 -0.1442  0.1062 -0.1594
 6617SOL    HW131575   6.285   4.854   4.034  0.7769 -0.0916 -3.1439
 6617SOL    HW231576   6.166   4.944   4.060  0.0870 -1.8509  0.4963
 6618SOL     OW31577   8.330   0.738  10.332  0.6494 -0.2462  0.3147
 6618SOL    HW131578   8.353   0.801  10.264  3.5686 -0.5710  0.8599
 6618SOL    HW231579   8.390   0.664  10.317  0.6464 -0.7816  2.5727
 6619SOL     OW31580   7.260   8.079   1.144 -0.4352 -0.2244 -0.5696
 6619SOL    HW131581   7.320   8.131   1.090 -1.1392 -0.9190 -2.0814
 6619SOL    HW231582   7.310   8.058   1.223  0.4622  1.2291 -0.7235
 6620SOL     OW31583   2.523   7.020   0.492 -0.7125  0.3153 -0.4047
 6620SOL    HW131584   2.559   7.024   0.403 -1.7894 -0.7014 -0.8983
 6620SOL    HW231585   2.505   6.928   0.507  1.8595  0.0563  1.8963
 6621SOL     OW31586  11.584   6.550   4.670  0.3511 -0.0794 -0.3130
 6621SOL    HW131587  11.584   6.504   4.586  2.3382  0.8597 -0.8921
 6621SOL    HW231588  11.521   6.621   4.658 -0.0119 -0.4558 -0.6988
 6622SOL     OW31589   4.324   0.878   1.803 -0.2570  0.0871  0.8529
 6622SOL    HW131590   4.379   0.838   1.870  2.2309  1.2938 -0.3493
 6622SOL    HW231591   4.315   0.970   1.830  0.7533  0.5812 -0.3934
 6623SOL     OW31592   7.678   5.866  11.530 -0.4443  0.0666 -0.6177
 6623SOL    HW131593   7.619   5.799  11.564  0.7133 -0.2687  0.8560
 6623SOL    HW231594   7.664   5.866  11.435 -0.2316 -2.5011 -0.6981
 6624SOL     OW31595   5.329   0.626   4.311 -0.7991  0.1257  0.8403
 6624SOL    HW131596   5.316   0.688   4.383 -1.8009  2.3793 -1.1336
 6624SOL    HW231597   5.398   0.666   4.258  0.5970 -1.9680  0.9778
 6625SOL     OW31598   9.408   6.553   7.496 -0.3746  0.0662 -0.2362
 6625SOL    HW131599   9.325   6.542   7.543  0.1199 -1.9105  0.2459
 6625SOL    HW231600   9.475   6.544   7.564  0.2832 -0.3211 -0.9234
 6626SOL     OW31601   0.893  10.210   9.419 -0.3442  0.0168 -0.0777
 6626SOL    HW131602   0.946  10.278   9.378 -0.9379 -0.2082 -1.3009
 6626SOL    HW231603   0.955  10.156   9.467  0.6541 -0.5657 -1.9124
 6627SOL     OW31604   1.928   2.092   6.960 -0.4356  0.2123  0.2534
 6627SOL    HW131605   1.901   2.183   6.948  1.7612  1.0538  1.1837
 6627SOL    HW231606   1.995   2.078   6.892 -0.8544 -0.7819  0.0259
 6628SOL     OW31607   8.945   6.323  10.364 -0.2074  0.3094  0.3798
 6628SOL    HW131608   8.857   6.298  10.336  0.1921 -2.3333  1.2201
 6628SOL    HW231609   8.999   6.312  10.286 -0.1639 -0.8720  0.5632
 6629SOL     OW31610   4.168  11.056   5.861 -0.7351  0.2073 -0.3416
 6629SOL    HW131611   4.216  11.090   5.785  1.6982  1.2965  1.5454
 6629SOL    HW231612   4.104  11.125   5.881 -1.5243 -0.1759 -1.4884
 6630SOL     OW31613   3.413   3.688   1.894  0.2118  0.3371  0.2640
 6630SOL    HW131614   3.427   3.783   1.892 -0.7728  0.5464 -2.8675
 6630SOL    HW231615   3.477   3.655   1.957  1.4659  2.9529  0.4794
 6631SOL     OW31616  10.641   0.002   7.607  0.1463 -0.4141  0.5160
 6631SOL    HW131617  10.546   0.005   7.600  0.0089 -2.4211  0.9831
 6631SOL    HW231618  10.666  -0.078   7.560  1.8906  1.4795 -2.0522
 6632SOL     OW31619   6.476   5.712   1.544 -0.3154 -0.2720 -0.0971
 6632SOL    HW131620   6.467   5.803   1.574 -1.9654 -0.5908  0.5207
 6632SOL    HW231621   6.459   5.716   1.450  1.0485  0.2312 -0.3382
 6633SOL     OW31622   5.099   4.081  10.544  0.1925  0.3180  0.0020
 6633SOL    HW131623   5.135   4.106  10.629  0.7184  2.3490 -0.7533
 6633SOL    HW231624   5.125   4.152  10.485 -2.7717  0.5794 -1.1953
 6634SOL     OW31625   0.523   0.060   6.699  0.7885  0.1760 -0.0088
 6634SOL    HW131626   0.619   0.057   6.703  0.7768  0.3181  0.4098
 6634SOL    HW231627   0.494   0.006   6.773  0.5277 -1.4050 -1.1875
 6635SOL     OW31628   4.812   2.218   8.039  0.0610  0.2535  0.1230
 6635SOL    HW131629   4.871   2.153   8.077 -0.1688 -0.6331 -0.9712
 6635SOL    HW231630   4.735   2.167   8.013 -0.7197  1.2150  0.5330
 6636SOL     OW31631   4.618   2.933  10.142  0.1598  0.0948  0.1066
 6636SOL    HW131632   4.612   3.029  10.139  0.6753  0.0964 -1.4452
 6636SOL    HW231633   4.702   2.917  10.185  1.6399  0.4345 -2.4581
 6637SOL     OW31634  10.183   7.396   9.122  0.1775  0.1014  0.2264
 6637SOL    HW131635  10.144   7.357   9.045  0.0299  3.1648 -1.3955
 6637SOL    HW231636  10.121   7.378   9.193 -0.8649 -0.7094 -0.8562
 6638SOL     OW31637   3.302   8.916   5.403  0.1389 -0.1332  0.0322
 6638SOL    HW131638   3.267   8.828   5.418  2.4082 -1.1020  0.0278
 6638SOL    HW231639   3.385   8.901   5.357  0.1845  2.0675 -0.7011
 6639SOL     OW31640   5.111   3.520   7.685  0.4285  0.1254  0.3490
 6639SOL    HW131641   5.169   3.555   7.753 -1.7319  0.9097  1.9141
 6639SOL    HW231642   5.072   3.598   7.645  1.0956 -0.3577 -1.3392
 6640SOL     OW31643   0.796   1.964   9.817 -0.4585 -0.0025 -0.4367
 6640SOL    HW131644   0.835   1.906   9.752 -0.3549 -2.6878  1.8579
 6640SOL    HW231645   0.767   1.906   9.887  0.6685  2.7898  2.5992
 6641SOL     OW31646   7.684   5.679   2.154  0.0888 -0.3471  0.3485
 6641SOL    HW131647   7.704   5.624   2.229 -0.7678 -0.8436  0.2206
 6641SOL    HW231648   7.595   5.711   2.169 -0.8101 -1.8972 -1.2804
 6642SOL     OW31649   8.434   2.215   9.301 -0.0063 -0.3876  0.5132
 6642SOL    HW131650   8.477   2.279   9.357 -1.3553  0.8713  0.1845
 6642SOL    HW231651   8.448   2.247   9.212 -0.1125 -0.9221  0.2974
 6643SOL     OW31652   6.987  10.662   4.657 -0.2686 -0.4804 -0.4259
 6643SOL    HW131653   6.994  10.579   4.611 -2.9255 -1.9231  1.5458
 6643SOL    HW231654   6.984  10.639   4.750  0.2237  1.9540  0.2881
 6644SOL     OW31655  10.175   4.741   4.612  0.2683 -0.2089  0.7377
 6644SOL    HW131656  10.112   4.723   4.542 -0.7836  1.9626  1.0598
 6644SOL    HW231657  10.233   4.807   4.575 -0.2879  0.9553  1.8857
 6645SOL     OW31658   2.211   3.885   9.315 -0.1663  0.2050 -0.8392
 6645SOL    HW131659   2.150   3.901   9.243 -1.9695  1.1324  0.7989
 6645SOL    HW231660   2.163   3.827   9.374 -0.0904  2.0431  1.1580
 6646SOL     OW31661  11.203   5.726   3.142 -0.3913  0.4298 -0.0900
 6646SOL    HW131662  11.187   5.809   3.189 -0.2919  0.2793  0.2105
 6646SOL    HW231663  11.244   5.753   3.060 -0.5788  0.6973 -0.1002
 6647SOL     OW31664   5.454   9.297  10.579 -0.1744  0.6527 -0.3894
 6647SOL    HW131665   5.417   9.216  10.545 -1.0112  1.0373 -0.4311
 6647SOL    HW231666   5.536   9.270  10.622  1.0570  0.1869 -2.8688
 6648SOL     OW31667  11.208   2.687  11.408 -0.2725  0.1939 -0.2694
 6648SOL    HW131668  11.166   2.668  11.324 -1.0994  1.2069 -0.1024
 6648SOL    HW231669  11.156   2.758  11.445  0.2863 -0.0177  0.9561
 6649SOL     OW31670   4.860  10.695   4.852  0.5073 -0.4273  0.2573
 6649SOL    HW131671   4.926  10.652   4.906 -0.0230  0.1008  1.3699
 6649SOL    HW231672   4.889  10.786   4.845 -0.8031  0.1848  2.0163
 6650SOL     OW31673   1.614   5.340   5.849  0.0296  0.5322 -0.6679
 6650SOL    HW131674   1.554   5.367   5.779 -1.4297  0.4376  0.4989
 6650SOL    HW231675   1.666   5.269   5.811 -1.2297 -0.0030 -1.4223
 6651SOL     OW31676   9.503   7.039   7.722  0.8201  0.0030 -0.1203
 6651SOL    HW131677   9.464   6.964   7.678 -0.9077  0.4687  0.5411
 6651SOL    HW231678   9.503   7.109   7.657 -1.6423  0.6633  0.4867
 6652SOL     OW31679   2.709   6.917   6.823 -0.4449 -0.0182 -0.2089
 6652SOL    HW131680   2.641   6.985   6.823  0.3528  0.8208 -1.1924
 6652SOL    HW231681   2.787   6.962   6.791  0.3700 -1.1664  0.1196
 6653SOL     OW31682   8.656   2.802   3.769 -0.4839  0.8480 -0.7434
 6653SOL    HW131683   8.734   2.848   3.736  1.0952 -0.9670  0.2703
 6653SOL    HW231684   8.682   2.710   3.772 -2.0077  0.4102  1.4447
 6654SOL     OW31685   6.588   3.450   4.991 -0.1433  0.1331  0.1843
 6654SOL    HW131686   6.599   3.369   5.041  0.7572  0.0166 -0.1960
 6654SOL    HW231687   6.538   3.507   5.050 -0.1479 -0.4329  0.7437
 6655SOL     OW31688   8.277   1.826   9.222  0.2205 -0.5455  0.4475
 6655SOL    HW131689   8.296   1.782   9.305  0.5762 -0.2842  0.5036
 6655SOL    HW231690   8.347   1.890   9.211  1.1497 -1.7293 -0.8865
 6656SOL     OW31691  10.294   5.726   6.202 -0.3143  0.9235  0.1394
 6656SOL    HW131692  10.343   5.657   6.247  1.3627  0.6568 -1.9213
 6656SOL    HW231693  10.202   5.705   6.218  0.1613 -1.4873  0.0384
 6657SOL     OW31694   4.787   1.970   7.437 -0.2076  0.7651  0.0614
 6657SOL    HW131695   4.843   1.997   7.364 -1.9629 -1.4843 -2.3047
 6657SOL    HW231696   4.707   2.022   7.426 -1.2835 -0.9891 -0.9856
 6658SOL     OW31697   3.238   0.842   2.131  0.1755  0.0960  0.6532
 6658SOL    HW131698   3.219   0.932   2.157  0.6844 -0.2293  2.2145
 6658SOL    HW231699   3.315   0.849   2.075 -2.1240  1.0295 -2.7914
 6659SOL     OW31700   3.833   8.114   1.851 -1.0339  0.0144  0.7277
 6659SOL    HW131701   3.928   8.111   1.839 -0.7025  1.0564  2.6389
 6659SOL    HW231702   3.815   8.203   1.880 -2.8954  0.4436 -1.4566
 6660SOL     OW31703   2.537   8.488   2.536 -0.2583  0.2012  0.2278
 6660SOL    HW131704   2.479   8.552   2.576 -0.9923  0.4386 -1.1439
 6660SOL    HW231705   2.540   8.513   2.444  0.8725 -0.6884 -0.0015
 6661SOL     OW31706   8.434   2.103  11.632 -0.1205 -0.5814  0.4794
 6661SOL    HW131707   8.466   2.194  11.633 -1.8883  0.1415 -1.6712
 6661SOL    HW231708   8.353   2.106  11.683  0.1861 -1.1402  1.0149
 6662SOL     OW31709   7.692   7.886   2.555 -0.1626  0.5678  0.1589
 6662SOL    HW131710   7.624   7.953   2.564 -0.8355 -0.1871  0.8491
 6662SOL    HW231711   7.709   7.882   2.461 -2.7614 -0.8310 -0.3349
 6663SOL     OW31712   4.939   5.295   3.092 -0.3052 -0.2686 -0.2238
 6663SOL    HW131713   4.942   5.201   3.108 -0.8009 -0.3237 -0.4382
 6663SOL    HW231714   5.012   5.330   3.143 -0.9828 -0.6128  1.0404
 6664SOL     OW31715   9.247   6.777   3.539  0.1815 -0.0785  0.3330
 6664SOL    HW131716   9.236   6.750   3.630  0.3194 -0.9363  0.0961
 6664SOL    HW231717   9.327   6.733   3.510 -1.6887 -2.6902 -1.2558
 6665SOL     OW31718   7.432   8.813   9.522 -0.2575 -0.2856 -0.3770
 6665SOL    HW131719   7.351   8.764   9.510 -0.1042 -0.7463  0.3979
 6665SOL    HW231720   7.498   8.746   9.539  0.3025  0.0831 -1.0455
 6666SOL     OW31721   0.695   9.715   2.619 -0.1900 -0.2028 -0.3792
 6666SOL    HW131722   0.639   9.780   2.576 -0.1781 -1.3979 -2.2967
 6666SOL    HW231723   0.700   9.745   2.710 -2.3860  0.9786 -0.5755
 6667SOL     OW31724   5.143   5.035  11.717 -0.3734  0.0177  0.1530
 6667SOL    HW131725   5.088   4.958  11.704 -0.2354 -0.0495 -0.0293
 6667SOL    HW231726   5.145   5.047  11.812 -0.7401  0.0485  0.1601
 6668SOL     OW31727   3.617   8.727   6.248  0.4213 -0.0020  0.4300
 6668SOL    HW131728   3.553   8.733   6.319 -0.8878 -2.4455 -0.4349
 6668SOL    HW231729   3.664   8.646   6.265 -0.2076 -0.8817 -1.6581
 6669SOL     OW31730   5.031  10.301   5.067  0.3696  0.1762  0.0317
 6669SOL    HW131731   5.060  10.210   5.070 -0.5636 -0.3309 -2.8030
 6669SOL    HW231732   5.082  10.345   5.135  1.3711 -2.2945  1.0032
 6670SOL     OW31733   5.391   0.506  11.216  0.2373 -0.8630 -0.5378
 6670SOL    HW131734   5.446   0.569  11.262  1.1231 -1.3500 -0.9182
 6670SOL    HW231735   5.401   0.425  11.265 -1.4325 -0.5914  0.3606
 6671SOL     OW31736   6.810   3.757   9.179  0.0056 -0.5773 -0.2213
 6671SOL    HW131737   6.812   3.773   9.273  0.2974 -0.2248 -0.2854
 6671SOL    HW231738   6.886   3.803   9.145 -0.6007  0.0625 -0.7453
 6672SOL     OW31739   1.834   8.773   9.963  0.3317  0.4335  0.2565
 6672SOL    HW131740   1.887   8.728   9.898  0.7188  1.4330 -0.1374
 6672SOL    HW231741   1.754   8.719   9.970  0.2063  0.3929 -1.1660
 6673SOL     OW31742  11.858   5.219   0.946 -0.2567 -0.2662  0.3883
 6673SOL    HW131743  11.768   5.226   0.914 -0.2887 -0.8651  0.3310
 6673SOL    HW231744  11.849   5.186   1.036 -0.1681  1.3243  1.0251
 6674SOL     OW31745   6.129   6.656  10.053 -0.2097 -0.9606  0.1640
 6674SOL    HW131746   6.216   6.632  10.021 -0.3059  0.9651 -1.7689
 6674SOL    HW231747   6.128   6.752  10.053 -2.7580 -0.8871 -1.2270
 6675SOL     OW31748  10.748   8.125   7.741 -0.2049  0.1919  0.7451
 6675SOL    HW131749  10.821   8.110   7.802 -0.0379 -0.3848  0.4101
 6675SOL    HW231750  10.680   8.066   7.771 -0.2471  0.1544  0.5704
 6676SOL     OW31751   0.600  10.017   5.951 -0.4862 -0.0549  0.2927
 6676SOL    HW131752   0.563  10.007   5.863  1.5088 -1.2256 -0.4713
 6676SOL    HW231753   0.638  10.105   5.950  0.1115 -0.3047 -0.2872
 6677SOL     OW31754   8.535   2.702   4.913 -0.3510  0.5835  0.2534
 6677SOL    HW131755   8.606   2.716   4.851 -0.5795  0.8716  0.0517
 6677SOL    HW231756   8.517   2.608   4.910  0.0356  0.5053  0.3245
 6678SOL     OW31757   1.747   4.392   1.577 -0.6115  0.4580 -0.1449
 6678SOL    HW131758   1.800   4.339   1.518 -0.9127 -0.1058  0.0892
 6678SOL    HW231759   1.799   4.472   1.591  0.9424 -0.7433  1.3402
 6679SOL     OW31760   0.472   5.171   1.454  0.8074  0.2265 -0.0153
 6679SOL    HW131761   0.401   5.205   1.400 -0.0222 -0.4649  0.6145
 6679SOL    HW231762   0.428   5.126   1.526  1.8944  1.4955  1.4928
 6680SOL     OW31763  10.744   2.230   5.254  0.3170  0.1117  0.1657
 6680SOL    HW131764  10.825   2.257   5.298  0.4213 -1.1775  0.8312
 6680SOL    HW231765  10.770   2.215   5.163  0.5122  1.0246  0.0618
 6681SOL     OW31766   3.056  10.238   5.138 -0.3486 -0.2004  0.0070
 6681SOL    HW131767   3.026  10.249   5.048  0.8595  0.8003 -0.3159
 6681SOL    HW231768   3.144  10.202   5.129 -1.3402 -3.0899  0.9093
 6682SOL     OW31769   9.293   1.700   7.451 -0.0506 -0.4557 -0.0597
 6682SOL    HW131770   9.274   1.658   7.367  1.4785  0.8021 -1.1137
 6682SOL    HW231771   9.248   1.647   7.516 -0.4896 -2.0396 -1.5870
 6683SOL     OW31772   2.963   5.844   6.402 -0.3883  0.3215 -0.2123
 6683SOL    HW131773   2.949   5.888   6.485  1.4310  1.0564 -0.2446
 6683SOL    HW231774   2.997   5.758   6.425  0.3132  0.6014 -0.1841
 6684SOL     OW31775   7.319  11.033   9.103 -0.4026 -0.9308  0.2856
 6684SOL    HW131776   7.264  11.075   9.038  1.7317 -0.6610 -1.4579
 6684SOL    HW231777   7.316  10.940   9.081  0.2292 -0.8529 -0.1536
 6685SOL     OW31778   0.791  11.458   4.451 -0.2884  0.2268  0.2067
 6685SOL    HW131779   0.767  11.530   4.392  1.3379  0.4165 -0.2622
 6685SOL    HW231780   0.715  11.401   4.451 -0.4847  0.4377 -1.7701
 6686SOL     OW31781  11.713   2.806   5.565  0.4664 -0.4455  0.3246
 6686SOL    HW131782  11.712   2.754   5.484 -1.1338 -0.1963  0.1609
 6686SOL    HW231783  11.633   2.781   5.610  0.1788  1.1301  0.7383
 6687SOL     OW31784   2.549   4.574   8.588  0.3690 -0.1273  0.4734
 6687SOL    HW131785   2.466   4.552   8.629  0.1819  0.7874  0.6004
 6687SOL    HW231786   2.603   4.496   8.600 -0.3660 -0.6182  0.6499
 6688SOL     OW31787   0.073   4.738   5.719 -0.2804 -0.2851  0.1196
 6688SOL    HW131788   0.135   4.667   5.704 -1.0914 -0.4834 -2.8608
 6688SOL    HW231789   0.001   4.697   5.768 -1.1668 -1.8780 -2.3329
 6689SOL     OW31790   2.924   2.882  11.128 -0.0239 -0.0253 -0.1698
 6689SOL    HW131791   2.990   2.829  11.082  0.7657 -1.1964  2.1540
 6689SOL    HW231792   2.845   2.873  11.074  0.9044 -1.0773 -1.4323
 6690SOL     OW31793   6.891   6.796  11.459  0.4535  0.2152  0.5172
 6690SOL    HW131794   6.815   6.829  11.506 -0.7453 -1.3706 -0.2292
 6690SOL    HW231795   6.887   6.838  11.373 -0.0925 -0.5258  0.1722
 6691SOL     OW31796   1.129   2.926  10.629  0.1628 -0.3363  0.1499
 6691SOL    HW131797   1.146   3.020  10.625 -1.8952  0.1319  0.7808
 6691SOL    HW231798   1.123   2.907  10.723  0.4426 -1.0794  0.0245
 6692SOL     OW31799   0.078   4.121   7.585 -0.1160  0.0547 -0.3868
 6692SOL    HW131800   0.028   4.075   7.517 -0.3639 -1.2763  0.6649
 6692SOL    HW231801   0.023   4.115   7.663  1.0345 -0.1793  0.4249
 6693SOL     OW31802   4.870   5.426   4.989  0.0206 -0.6155 -0.3685
 6693SOL    HW131803   4.861   5.497   5.053  1.3697 -0.1638 -0.6402
 6693SOL    HW231804   4.904   5.352   5.040 -0.9284 -0.9311 -0.1769
 6694SOL     OW31805   3.755   5.081  10.127  0.2274 -0.2478 -0.2343
 6694SOL    HW131806   3.674   5.125  10.103  0.8369  1.2672  0.3672
 6694SOL    HW231807   3.819   5.112  10.063  0.2974 -1.6702 -0.8924
 6695SOL     OW31808   7.509   6.590   4.184 -0.8356  0.2915 -0.0762
 6695SOL    HW131809   7.491   6.684   4.186  0.9011  0.7937 -2.7341
 6695SOL    HW231810   7.588   6.582   4.131 -1.1809 -2.7114 -0.2978
 6696SOL     OW31811   3.525   5.708   0.880  0.3457  0.6850 -0.0811
 6696SOL    HW131812   3.602   5.652   0.879 -0.7285 -0.8423 -0.3526
 6696SOL    HW231813   3.526   5.750   0.794  1.7966  2.0593  0.5508
 6697SOL     OW31814   4.932   0.571   8.362 -0.0250  0.3295 -0.2032
 6697SOL    HW131815   4.964   0.581   8.452  0.2443 -1.5746 -0.0261
 6697SOL    HW231816   4.979   0.637   8.312 -0.0747  1.3358  1.0371
 6698SOL     OW31817   0.608   0.860   5.596  0.3179 -0.1882  0.0570
 6698SOL    HW131818   0.694   0.888   5.565  0.0584  0.9343  0.3167
 6698SOL    HW231819   0.556   0.850   5.516  0.5378 -0.3682 -0.0650
 6699SOL     OW31820  10.329   3.263   8.719 -1.0279 -0.2452  0.4377
 6699SOL    HW131821  10.237   3.288   8.727 -0.2150  3.9208 -0.8231
 6699SOL    HW231822  10.337   3.233   8.629 -0.6786  2.7285 -0.6407
 6700SOL     OW31823   0.665   5.491  10.424  0.1193  0.3769  0.0670
 6700SOL    HW131824   0.616   5.546  10.364  1.6966  1.2090 -0.5195
 6700SOL    HW231825   0.739   5.459  10.372 -1.2564 -3.2257  0.0547
 6701SOL     OW31826  11.928   9.602   7.813  0.0567 -0.0542 -0.3601
 6701SOL    HW131827  11.936   9.603   7.908 -0.0703 -1.0880 -0.3205
 6701SOL    HW231828  11.955   9.689   7.785  2.0973 -0.3664  0.4542
 6702SOL     OW31829   9.613   1.310   3.147 -0.0693  0.4482  0.1099
 6702SOL    HW131830   9.582   1.221   3.130  1.5314 -0.0127 -0.6254
 6702SOL    HW231831   9.709   1.302   3.149  0.0681  1.8313  1.9177
 6703SOL     OW31832   4.880   0.299   0.866 -0.2169  0.5577 -0.6684
 6703SOL    HW131833   4.818   0.253   0.924 -1.2975  2.2797 -0.3749
 6703SOL    HW231834   4.847   0.281   0.778 -0.9748  1.2178 -0.5285
 6704SOL     OW31835   9.616   0.765   4.997 -0.1201  0.6868 -0.2769
 6704SOL    HW131836   9.628   0.692   4.936  0.1345 -1.6077  2.2900
 6704SOL    HW231837   9.693   0.821   4.984 -0.4128  0.6734 -2.4486
 6705SOL     OW31838   5.430   6.597   9.250 -0.1002 -0.1039 -0.2635
 6705SOL    HW131839   5.472   6.682   9.247 -0.4972  0.1184  0.2690
 6705SOL    HW231840   5.483   6.546   9.312  0.1377 -0.2494 -0.5824
 6706SOL     OW31841   0.998   3.879   1.243  0.4351  0.2251 -0.0976
 6706SOL    HW131842   1.084   3.920   1.227  0.9303 -0.4708  0.6952
 6706SOL    HW231843   0.956   3.879   1.158  0.8822  1.3395 -0.3470
 6707SOL     OW31844   5.823  11.706   3.382  0.0643 -0.0803  0.4948
 6707SOL    HW131845   5.782  11.636   3.433  1.4382  0.9385  3.1636
 6707SOL    HW231846   5.896  11.663   3.337 -1.1128 -0.9825 -0.6106
 6708SOL     OW31847   2.459   2.044   6.481 -0.2871  0.4970  0.7498
 6708SOL    HW131848   2.397   1.988   6.528 -0.3983 -0.8096 -0.8688
 6708SOL    HW231849   2.470   2.002   6.396  2.3442  1.0494  0.7447
 6709SOL     OW31850   2.146   5.520  11.491  0.1126 -0.4146 -0.1921
 6709SOL    HW131851   2.130   5.430  11.518 -1.0117  0.2995  1.6249
 6709SOL    HW231852   2.185   5.512  11.403 -1.6473 -2.5820 -0.8441
 6710SOL     OW31853   2.537   9.740   3.165 -0.3003 -0.1429 -0.5963
 6710SOL    HW131854   2.569   9.673   3.225 -0.6269 -0.0365 -0.3007
 6710SOL    HW231855   2.610   9.801   3.155 -1.0248  1.2439  1.7124
 6711SOL     OW31856   1.988   6.978   5.276 -0.3834 -0.0431  0.7778
 6711SOL    HW131857   1.952   6.960   5.362  1.7875 -0.0717  1.7639
 6711SOL    HW231858   2.069   6.926   5.273  0.6794  1.5620 -0.4064
 6712SOL     OW31859   2.320   8.047   1.950  0.2887 -0.2647 -0.5540
 6712SOL    HW131860   2.281   7.988   1.884  1.6374 -1.3745 -0.4031
 6712SOL    HW231861   2.384   7.993   1.995  2.4176  1.6208 -1.1621
 6713SOL     OW31862   9.754   3.252   1.929 -0.6259  0.2635  0.3381
 6713SOL    HW131863   9.837   3.285   1.965 -0.2414  1.1335 -1.2729
 6713SOL    HW231864   9.706   3.330   1.903 -1.0235 -0.3098 -0.7244
 6714SOL     OW31865  10.217   6.269   3.524 -0.1395  0.0924  0.2205
 6714SOL    HW131866  10.260   6.355   3.519 -0.4229  0.3732  1.9992
 6714SOL    HW231867  10.249   6.222   3.447  1.1847  1.2658  0.0114
 6715SOL     OW31868   9.426   6.060  10.306  0.0686  0.0107 -0.1303
 6715SOL    HW131869   9.420   6.155  10.312  0.0559  0.0807 -1.0778
 6715SOL    HW231870   9.366   6.037  10.235  0.9151 -0.5838 -0.6665
 6716SOL     OW31871   4.993   5.614   1.577  0.0707 -0.1007 -0.3869
 6716SOL    HW131872   4.909   5.644   1.612 -0.4563  0.2359 -1.8544
 6716SOL    HW231873   5.056   5.636   1.645 -0.8208  1.0792  0.1037
 6717SOL     OW31874   9.674   6.707   9.838 -0.3443 -0.0767 -0.4806
 6717SOL    HW131875   9.655   6.613   9.845 -3.1200  0.4743  1.6699
 6717SOL    HW231876   9.632   6.734   9.757 -1.8784 -0.3246  0.1884
 6718SOL     OW31877   8.181   8.263   3.661  0.3527 -0.0047  0.2229
 6718SOL    HW131878   8.216   8.228   3.743  0.4979  0.8030  0.5178
 6718SOL    HW231879   8.227   8.346   3.649 -0.4148  0.3798 -0.1405
 6719SOL     OW31880  11.870   1.255   0.073  0.2983  0.0163 -0.0490
 6719SOL    HW131881  11.819   1.274   0.151  0.1786 -0.3973 -0.0259
 6719SOL    HW231882  11.860   1.333   0.018  1.2633  0.7630  0.8024
 6720SOL     OW31883   2.122   7.428   6.859 -0.0245  0.0426 -0.1728
 6720SOL    HW131884   2.105   7.373   6.935 -0.7415  1.1289  0.4826
 6720SOL    HW231885   2.215   7.418   6.842  0.5344  1.0881  1.9393
 6721SOL     OW31886   0.602   9.433   8.013  0.6353  0.2769 -0.7626
 6721SOL    HW131887   0.656   9.504   8.048  1.1799 -1.1135  1.4947
 6721SOL    HW231888   0.664   9.369   7.980  0.1759  0.4528 -2.0335
 6722SOL     OW31889   4.319  10.093   3.632 -0.1395  0.5128 -0.4389
 6722SOL    HW131890   4.374  10.117   3.557 -0.4502 -1.2304 -1.2859
 6722SOL    HW231891   4.230  10.100   3.599 -0.3141  0.6364  0.0605
 6723SOL     OW31892   9.285   8.718  10.245 -0.3890 -0.2103  0.5242
 6723SOL    HW131893   9.238   8.788  10.289 -1.3975 -0.6245  0.1588
 6723SOL    HW231894   9.337   8.676  10.313  0.7666  1.2976  0.6077
 6724SOL     OW31895   3.609   1.200   7.908 -0.2663 -0.5648 -0.0122
 6724SOL    HW131896   3.699   1.170   7.917  0.0076 -0.1230 -1.0670
 6724SOL    HW231897   3.568   1.180   7.992  1.1520  0.3810  0.9531
 6725SOL     OW31898   5.829   0.771   2.041 -0.0657 -0.4817 -0.2694
 6725SOL    HW131899   5.891   0.789   1.971 -0.0237  0.5073  0.0005
 6725SOL    HW231900   5.765   0.711   2.002  0.8748 -1.2699 -0.6319
 6726SOL     OW31901   3.746   1.622   3.569 -0.3396 -0.5138 -0.2256
 6726SOL    HW131902   3.729   1.712   3.542 -0.2250 -0.6126 -0.6485
 6726SOL    HW231903   3.717   1.569   3.494 -1.6447 -0.9209  0.5443
 6727SOL     OW31904   4.465   2.082   3.003 -0.2435 -0.1175 -0.4259
 6727SOL    HW131905   4.401   2.113   3.067  0.5995 -0.5954  0.6864
 6727SOL    HW231906   4.452   2.138   2.927 -2.3219 -0.5248 -0.4343
 6728SOL     OW31907  10.661   3.546   7.833 -0.0027 -0.3044  0.0189
 6728SOL    HW131908  10.599   3.589   7.892 -0.3204 -3.1625  1.9376
 6728SOL    HW231909  10.737   3.525   7.888  0.4725 -1.4490 -1.0238
 6729SOL     OW31910   1.805   1.528   1.182  0.5875 -0.5056  0.2578
 6729SOL    HW131911   1.717   1.564   1.173  0.6024  0.0364  1.9721
 6729SOL    HW231912   1.826   1.493   1.095 -0.3095  1.5905 -0.8658
 6730SOL     OW31913   4.136   9.598   0.029  0.2564 -0.5233  0.2986
 6730SOL    HW131914   4.225   9.624   0.052 -0.1227  0.8581  0.2976
 6730SOL    HW231915   4.124   9.632  -0.060 -0.7528  0.6466  0.8450
 6731SOL     OW31916   3.190   4.133   5.592  0.0306  0.0518  0.8131
 6731SOL    HW131917   3.119   4.081   5.554  1.2657 -1.2949  0.2428
 6731SOL    HW231918   3.262   4.071   5.601  0.9956  1.2745  1.8014
 6732SOL     OW31919   1.093   6.252   8.062 -0.0372  0.4507 -0.3249
 6732SOL    HW131920   1.067   6.211   7.979 -0.8095 -0.1145  0.1770
 6732SOL    HW231921   1.177   6.211   8.084 -0.0706  0.2383 -0.5902
 6733SOL     OW31922   2.460   1.261   5.044  0.1956  0.3321  0.0132
 6733SOL    HW131923   2.552   1.287   5.045  0.2257  0.1994  0.8740
 6733SOL    HW231924   2.458   1.178   5.092 -0.5859  1.0524  1.2679
 6734SOL     OW31925  10.883   9.683  11.230 -0.5628 -0.4067 -0.4958
 6734SOL    HW131926  10.919   9.716  11.312 -2.4614  0.9038 -0.1370
 6734SOL    HW231927  10.956   9.635  11.190  0.6759 -0.2879  1.4944
 6735SOL     OW31928   1.967  11.353   5.168  0.3345 -0.8049 -0.1111
 6735SOL    HW131929   2.034  11.411   5.132 -2.0523  3.7585  1.8107
 6735SOL    HW231930   1.989  11.346   5.261 -0.9013 -0.5028  0.2313
 6736SOL     OW31931   2.308   2.732   9.941  0.2570 -0.6171  0.3499
 6736SOL    HW131932   2.324   2.716  10.034 -0.7852 -1.3256  0.4233
 6736SOL    HW231933   2.279   2.648   9.907 -0.7044 -0.0330 -0.3153
 6737SOL     OW31934  11.535   4.763   0.130  0.0590  0.5241 -0.0044
 6737SOL    HW131935  11.504   4.731   0.044  0.3579  0.8289 -0.2276
 6737SOL    HW231936  11.460   4.751   0.188 -0.6503  1.6788 -0.6377
 6738SOL     OW31937  10.050   8.430   6.450 -0.3271  0.0466 -0.2184
 6738SOL    HW131938  10.112   8.357   6.446 -0.0471  0.3253 -1.3185
 6738SOL    HW231939  10.002   8.426   6.367  0.3009  1.6083 -0.7090
 6739SOL     OW31940   4.562   4.817   6.684  0.2401 -0.2679 -0.4982
 6739SOL    HW131941   4.559   4.770   6.600  1.6675  1.1999 -1.4348
 6739SOL    HW231942   4.649   4.856   6.685 -0.5537  1.5550  0.6697
 6740SOL     OW31943  11.302   2.250  10.003 -0.2715 -0.0981 -0.1442
 6740SOL    HW131944  11.318   2.170   9.952 -0.0179 -2.3885  3.2183
 6740SOL    HW231945  11.208   2.262   9.999 -0.1510  0.5778 -2.1300
 6741SOL     OW31946   6.870  11.870   9.781  0.2654  0.2647  0.1621
 6741SOL    HW131947   6.939  11.898   9.721  1.1378 -0.1138  0.9658
 6741SOL    HW231948   6.826  11.799   9.735  0.3702  0.5489 -0.3830
 6742SOL     OW31949  11.108   1.949   0.332  0.2688  0.5279 -0.2016
 6742SOL    HW131950  11.080   1.861   0.359  1.1180  0.4727  0.5176
 6742SOL    HW231951  11.026   1.993   0.309 -0.1834 -0.4014 -0.4279
 6743SOL     OW31952   5.492   3.745   6.210 -0.8768  0.4182 -0.6977
 6743SOL    HW131953   5.446   3.738   6.127 -1.7734  1.8350 -0.3570
 6743SOL    HW231954   5.573   3.793   6.190 -0.5871 -0.1678 -0.9289
 6744SOL     OW31955   6.581   5.603   7.388  0.4308 -0.1739 -0.3243
 6744SOL    HW131956   6.529   5.524   7.372  0.1843 -0.4048  1.4060
 6744SOL    HW231957   6.526   5.655   7.447  1.8857 -0.1562  1.0774
 6745SOL     OW31958   9.985   3.521   4.564  0.2214  0.6435 -0.0897
 6745SOL    HW131959  10.071   3.558   4.543 -0.1198  2.2051  1.0033
 6745SOL    HW231960   9.990   3.430   4.536  0.8293  1.6499 -3.7940
 6746SOL     OW31961   6.420   9.955   6.812  0.4204 -0.5084  0.1459
 6746SOL    HW131962   6.346   9.917   6.765 -0.5733  0.4857  0.8354
 6746SOL    HW231963   6.384   9.979   6.897  0.2990  4.0454 -0.9514
 6747SOL     OW31964   9.141   3.028   9.966  0.1605  0.9376 -0.4183
 6747SOL    HW131965   9.075   3.013   9.899  0.3621 -1.0596 -0.2370
 6747SOL    HW231966   9.157   3.122   9.964 -0.8972  1.1181 -2.1534
 6748SOL     OW31967   0.826   1.020   5.507 -0.6349  0.2126 -0.3654
 6748SOL    HW131968   0.808   1.033   5.414 -0.0619 -0.3256 -0.5662
 6748SOL    HW231969   0.921   1.030   5.514 -0.6007 -0.3287  0.0527
 6749SOL     OW31970   2.919   7.082   3.851 -0.1769  0.2429  0.6248
 6749SOL    HW131971   2.878   7.160   3.889  0.9728  1.0346  0.2955
 6749SOL    HW231972   3.012   7.103   3.848  0.2337 -1.4204  1.1199
 6750SOL     OW31973  10.996   3.163   3.110  0.0545  0.3153  0.5727
 6750SOL    HW131974  11.027   3.142   3.198 -0.4912 -2.7372  0.1437
 6750SOL    HW231975  10.918   3.218   3.125 -0.7192 -1.0964  2.0736
 6751SOL     OW31976   4.971   1.395   5.273 -0.1760  0.2696  0.1195
 6751SOL    HW131977   4.884   1.427   5.251 -1.1786 -2.0609  0.4648
 6751SOL    HW231978   4.988   1.429   5.361 -1.1705 -0.0684  0.4522
 6752SOL     OW31979   6.498  10.291   3.434  0.2601 -0.9178 -0.6359
 6752SOL    HW131980   6.568  10.230   3.457  0.0898 -0.5025  1.1506
 6752SOL    HW231981   6.483  10.341   3.515  0.3412  1.4547 -1.9972
 6753SOL     OW31982  10.172   9.640   7.607  0.2166 -0.1124 -0.4305
 6753SOL    HW131983  10.100   9.697   7.634 -0.0990 -0.7720  0.1442
 6753SOL    HW231984  10.196   9.592   7.686  1.3304  0.1304 -0.6024
 6754SOL     OW31985   1.523   6.599  11.206 -0.0123 -0.0711 -0.4635
 6754SOL    HW131986   1.452   6.606  11.142 -1.0380 -1.7001  0.4211
 6754SOL    HW231987   1.590   6.547  11.163  0.3008  0.7641 -1.0042
 6755SOL     OW31988  10.305  11.379   8.587  0.0664 -0.3296 -0.3857
 6755SOL    HW131989  10.384  11.426   8.559 -0.5769  1.4264  0.5976
 6755SOL    HW231990  10.272  11.429   8.661 -1.4175 -1.6226 -0.1149
 6756SOL     OW31991  11.899   6.717   7.499 -0.0139  0.2027  0.3691
 6756SOL    HW131992  11.944   6.788   7.544 -0.8160  0.1808  1.2169
 6756SOL    HW231993  11.859   6.759   7.422  0.9775  0.3192 -0.1025
 6757SOL     OW31994   6.564   2.620   3.106 -0.2106 -0.4169 -0.4735
 6757SOL    HW131995   6.647   2.644   3.064  0.1331  0.6656  0.7395
 6757SOL    HW231996   6.499   2.676   3.064  0.0448  0.2823  0.0438
 6758SOL     OW31997   9.287   7.078   2.515 -0.3870 -0.6857  0.0342
 6758SOL    HW131998   9.240   7.006   2.473 -0.0767 -0.9293  0.1069
 6758SOL    HW231999   9.312   7.136   2.443 -0.5690 -0.6891 -0.0314
 6759SOL     OW32000   3.426   3.467   5.609 -0.4482 -0.1002  0.4399
 6759SOL    HW132001   3.491   3.533   5.632  0.9876 -0.9964 -0.8429
 6759SOL    HW232002   3.377   3.453   5.690 -0.2766  1.9183  0.9643
 6760SOL     OW32003   5.984   4.278   5.256  0.6738  0.2720  0.2078
 6760SOL    HW132004   5.969   4.230   5.175  1.4361 -0.4446  0.4707
 6760SOL    HW232005   5.947   4.365   5.240  1.2535  0.3100 -1.0854
 6761SOL     OW32006  11.125   0.695   3.701 -0.3751  0.3116  0.5285
 6761SOL    HW132007  11.041   0.658   3.727  0.3061 -0.7634  1.2592
 6761SOL    HW232008  11.190   0.645   3.750  0.8036  0.0345 -1.2441
 6762SOL     OW32009   7.089   5.924   1.487 -0.7074 -0.1379  0.2768
 6762SOL    HW132010   7.098   6.018   1.503  1.0167  0.0233 -1.3079
 6762SOL    HW232011   7.054   5.918   1.398  1.3934 -0.9375 -0.5701
 6763SOL     OW32012   7.501   5.109  10.282 -0.1073 -0.4673 -0.1703
 6763SOL    HW132013   7.501   5.201  10.307 -0.3744 -0.4580 -0.2006
 6763SOL    HW232014   7.483   5.109  10.189 -0.7032 -0.5774 -0.0574
 6764SOL     OW32015   3.319   0.375   6.670 -1.1921 -0.4331  0.5895
 6764SOL    HW132016   3.336   0.432   6.745 -1.9477  0.5245  0.0473
 6764SOL    HW232017   3.288   0.293   6.708  1.3590 -1.0811  1.4632
 6765SOL     OW32018  11.955   2.848   3.575  0.3853  0.2120 -0.3122
 6765SOL    HW132019  11.988   2.857   3.665  0.1782  0.0034 -0.2159
 6765SOL    HW232020  11.884   2.785   3.582  0.4768  0.0747 -0.6523
 6766SOL     OW32021   0.086   6.146   3.211 -0.1223  0.0960  0.2143
 6766SOL    HW132022   0.026   6.105   3.149 -0.1842 -1.1405  1.0676
 6766SOL    HW232023   0.075   6.240   3.195 -0.6672 -0.1732 -1.1297
 6767SOL     OW32024   6.780   3.107   4.096  0.0726  0.2220 -0.2317
 6767SOL    HW132025   6.729   3.100   4.177 -0.4983  0.0916 -0.5984
 6767SOL    HW232026   6.859   3.055   4.114 -0.2968 -0.2552  0.0567
 6768SOL     OW32027   8.968   9.402  10.938 -0.4385  0.3696 -0.4531
 6768SOL    HW132028   8.981   9.484  10.891  0.5618  1.6847  1.9323
 6768SOL    HW232029   8.945   9.429  11.027 -0.6865 -1.9531  0.2496
 6769SOL     OW32030  10.588   4.655   0.969  0.4811  0.8701 -0.3266
 6769SOL    HW132031  10.507   4.638   1.017  0.8918  0.1183  0.1374
 6769SOL    HW232032  10.612   4.744   0.994 -1.2077  1.8519 -2.0075
 6770SOL     OW32033   1.627   4.456   6.402  0.2478  0.5560  0.2840
 6770SOL    HW132034   1.587   4.541   6.422 -1.9315 -0.3843  0.2742
 6770SOL    HW232035   1.653   4.463   6.310 -0.6857  0.9570  0.0356
 6771SOL     OW32036   9.615  10.863   7.962 -0.4176 -0.0489  0.2489
 6771SOL    HW132037   9.613  10.907   8.047  0.8587  1.9634 -0.7068
 6771SOL    HW232038   9.528  10.876   7.925 -0.8018 -0.4573  0.9841
 6772SOL     OW32039   5.264   6.146   9.882  0.2305 -0.5134  0.5508
 6772SOL    HW132040   5.282   6.052   9.875 -0.7333 -0.6688 -0.0750
 6772SOL    HW232041   5.193   6.161   9.820  1.5536  0.9738 -0.6498
 6773SOL     OW32042   7.085   9.948   9.625  0.2738 -0.0852 -0.4994
 6773SOL    HW132043   6.993   9.954   9.601  0.3670  2.5464 -0.4981
 6773SOL    HW232044   7.088   9.968   9.718  0.9393  1.7000 -0.8541
 6774SOL     OW32045   3.214   2.899  10.567 -0.2542 -0.8493 -0.3600
 6774SOL    HW132046   3.234   2.981  10.522  0.4918 -0.7743  0.0946
 6774SOL    HW232047   3.156   2.926  10.639  1.4584 -0.4282  0.9107
 6775SOL     OW32048  11.650   8.989   9.737 -0.3851  0.1345 -0.0355
 6775SOL    HW132049  11.638   9.084   9.742  0.3070  0.2182  0.0958
 6775SOL    HW232050  11.676   8.964   9.825  1.4958  0.1285 -0.5469
 6776SOL     OW32051   7.388   5.036   9.664  0.2151 -0.0713 -0.5203
 6776SOL    HW132052   7.417   4.963   9.719 -0.3685 -1.0817 -1.5142
 6776SOL    HW232053   7.454   5.104   9.677  0.9175 -0.8776  0.2233
 6777SOL     OW32054   6.080  10.117   6.747  0.1128  0.6309 -0.2653
 6777SOL    HW132055   6.126  10.126   6.831  0.2428 -0.7704 -0.1692
 6777SOL    HW232056   6.000  10.069   6.768 -1.1584  2.5253 -0.5335
 6778SOL     OW32057   9.118   2.824   3.919  0.0633 -0.6928 -0.1040
 6778SOL    HW132058   9.208   2.813   3.952 -0.4192 -0.9815  1.1607
 6778SOL    HW232059   9.114   2.915   3.890  0.2579 -0.1323  1.5144
 6779SOL     OW32060   4.902   9.321   8.393 -0.0427 -0.6367  0.3486
 6779SOL    HW132061   4.958   9.301   8.318  1.5538 -0.0372  1.3373
 6779SOL    HW232062   4.934   9.405   8.425 -1.3615 -0.4000  1.1108
 6780SOL     OW32063  11.237   5.875   5.768 -0.2011 -0.4863 -0.4737
 6780SOL    HW132064  11.180   5.942   5.729  0.4738  0.1907 -0.3117
 6780SOL    HW232065  11.297   5.850   5.697  1.4232  1.1821  0.2503
 6781SOL     OW32066  10.749   4.797   1.809  0.1528  0.0617  0.0448
 6781SOL    HW132067  10.675   4.736   1.811  0.5798 -0.4417  1.3335
 6781SOL    HW232068  10.761   4.816   1.716 -0.2320 -1.5383 -0.3675
 6782SOL     OW32069   9.515   2.407   6.104  0.3955 -0.6751  0.2678
 6782SOL    HW132070   9.593   2.362   6.135  1.3099  0.0002 -0.9603
 6782SOL    HW232071   9.484   2.457   6.180  1.0845 -1.0458  0.8024
 6783SOL     OW32072   1.362   2.027   5.967  0.2981 -0.6705  0.4325
 6783SOL    HW132073   1.310   1.994   5.894 -0.0721  1.0685 -0.1468
 6783SOL    HW232074   1.421   1.955   5.990  1.4777 -0.7830 -2.5579
 6784SOL     OW32075  11.066   5.839  11.605 -0.1821 -0.2656  0.4520
 6784SOL    HW132076  10.997   5.898  11.634 -1.5582 -1.3401 -0.4635
 6784SOL    HW232077  11.037   5.810  11.518  0.1473 -2.6438  1.0719
 6785SOL     OW32078   3.092  10.958   2.963  0.5595 -0.6999 -0.8162
 6785SOL    HW132079   3.112  10.947   3.056 -0.5194  0.9715 -0.3472
 6785SOL    HW232080   3.172  10.996   2.926  0.9303 -1.2058 -0.5462
 6786SOL     OW32081   2.927   0.108  11.436 -0.3494  0.0408  0.3976
 6786SOL    HW132082   2.954   0.138  11.523 -0.1644 -0.7101  0.6057
 6786SOL    HW232083   2.883   0.184  11.397 -1.6703 -0.0240  1.6812
 6787SOL     OW32084   8.796   2.899   1.847  0.1876 -0.2163  0.2456
 6787SOL    HW132085   8.762   2.909   1.936 -0.9654 -0.8363 -0.0995
 6787SOL    HW232086   8.718   2.892   1.792  0.8501  1.6799 -1.0397
 6788SOL     OW32087  10.693   8.445   8.531 -0.1436 -0.3834 -0.4537
 6788SOL    HW132088  10.721   8.445   8.440  0.0125  2.5441 -0.4896
 6788SOL    HW232089  10.603   8.478   8.530 -0.4153 -1.0370  0.4047
 6789SOL     OW32090   4.012   0.019   2.647  0.5375 -0.1304  0.0439
 6789SOL    HW132091   3.918   0.018   2.629  0.1218 -0.1156  2.0499
 6789SOL    HW232092   4.052  -0.012   2.566 -1.1681  0.1211 -0.9413
 6790SOL     OW32093   4.535   8.267   1.124 -0.0790  0.2795 -0.0356
 6790SOL    HW132094   4.570   8.180   1.144  0.4675  1.0292  2.6333
 6790SOL    HW232095   4.584   8.295   1.047  2.0761 -0.4880  0.9921
 6791SOL     OW32096   3.734   5.782   2.418  0.4004 -0.0039  0.4975
 6791SOL    HW132097   3.797   5.712   2.439  0.7212  0.6646  1.8981
 6791SOL    HW232098   3.714   5.822   2.503 -0.6945  0.8368 -0.1376
 6792SOL     OW32099   7.504   3.005   9.153 -0.1835 -0.4684 -0.0079
 6792SOL    HW132100   7.441   2.944   9.191 -1.1737 -0.9781 -2.2731
 6792SOL    HW232101   7.458   3.088   9.149 -1.1872 -1.0706 -2.5935
 6793SOL     OW32102   0.223   9.009   6.014  0.6935  0.6675  0.2693
 6793SOL    HW132103   0.190   9.074   5.952  1.1049  1.2748  0.6764
 6793SOL    HW232104   0.317   9.024   6.016  1.0892 -1.2827 -1.1547
 6794SOL     OW32105  11.537  11.907   9.008  0.1939 -0.4607  0.2417
 6794SOL    HW132106  11.533  11.907   9.104 -0.8160 -2.1428  0.2289
 6794SOL    HW232107  11.483  11.982   8.982 -0.8067 -0.8989  0.9783
 6795SOL     OW32108   8.462   0.078   6.265 -0.4416 -0.3777 -0.8371
 6795SOL    HW132109   8.420   0.074   6.351 -0.2692 -0.1263 -0.7405
 6795SOL    HW232110   8.552   0.050   6.280 -0.5876 -0.9856 -1.0584
 6796SOL     OW32111   6.167  11.288  11.170 -0.3471  0.0034 -0.1449
 6796SOL    HW132112   6.240  11.310  11.111 -0.6445  0.4494 -0.3588
 6796SOL    HW232113   6.094  11.342  11.137 -1.8235 -2.9563 -2.1487
 6797SOL     OW32114  11.287   2.490   1.842  0.0431 -0.1387  0.5239
 6797SOL    HW132115  11.309   2.419   1.902 -1.7415 -0.7096  0.5622
 6797SOL    HW232116  11.368   2.505   1.791  0.2619 -2.7229 -0.0167
 6798SOL     OW32117   1.875   9.542  10.043 -0.1211 -0.3083  1.0293
 6798SOL    HW132118   1.907   9.463  10.001  0.6902  0.8259 -0.5884
 6798SOL    HW232119   1.894   9.530  10.136 -1.4427 -2.6512  1.0689
 6799SOL     OW32120   9.979   9.734   9.816  0.0325 -0.6166 -0.3876
 6799SOL    HW132121   9.987   9.643   9.846 -0.1466  0.0398  1.8072
 6799SOL    HW232122  10.055   9.747   9.759 -0.6487 -2.4945 -1.8274
 6800SOL     OW32123   6.305   4.152   0.013 -0.3485  0.0516  0.4351
 6800SOL    HW132124   6.298   4.075   0.070  1.3527 -0.0771  0.5474
 6800SOL    HW232125   6.376   4.129  -0.048 -1.2195  0.7192 -0.8731
 6801SOL     OW32126  10.955   3.343  11.870  0.5163 -0.4533  0.3944
 6801SOL    HW132127  10.983   3.434  11.868  0.2690 -0.3785  0.2855
 6801SOL    HW232128  10.861   3.347  11.888  0.6900 -0.7215  1.4402
 6802SOL     OW32129   7.532   9.683   0.300  0.1740  0.6075 -0.0517
 6802SOL    HW132130   7.523   9.595   0.265 -0.2677  0.7346 -0.2681
 6802SOL    HW232131   7.509   9.674   0.393 -2.4800  0.9201 -0.5847
 6803SOL     OW32132   0.407   6.364   6.814 -0.1420  0.6953  0.0907
 6803SOL    HW132133   0.387   6.277   6.781  1.0701  0.9452 -1.4314
 6803SOL    HW232134   0.442   6.411   6.738 -0.8988  2.5597  0.8298
 6804SOL     OW32135   7.017   1.415  10.306 -1.0462 -0.3989 -0.2610
 6804SOL    HW132136   7.049   1.452  10.223 -0.7939  2.6687  1.0545
 6804SOL    HW232137   6.923   1.433  10.305 -1.1802 -1.0712 -0.1961
 6805SOL     OW32138   3.893   1.506   4.089 -0.0206 -0.3681  0.1088
 6805SOL    HW132139   3.905   1.596   4.119 -1.2586  0.2181 -1.0429
 6805SOL    HW232140   3.875   1.515   3.995  4.0043 -2.0903 -1.0610
 6806SOL     OW32141   6.655   9.094   3.141 -0.0177 -0.0417 -0.0103
 6806SOL    HW132142   6.738   9.105   3.189 -1.0102  1.0690  1.5428
 6806SOL    HW232143   6.597   9.160   3.179 -1.3854 -0.2525 -1.6361
 6807SOL     OW32144   6.533   5.766   8.037 -0.4179  0.4039  0.2089
 6807SOL    HW132145   6.605   5.787   8.096 -0.3608 -0.3542  0.4267
 6807SOL    HW232146   6.564   5.689   7.989 -1.2134 -0.1485  0.5568
 6808SOL     OW32147   6.339   8.671   0.220 -0.1242 -0.0242  0.0049
 6808SOL    HW132148   6.427   8.669   0.183  0.3673  0.6268  1.1150
 6808SOL    HW232149   6.345   8.620   0.300 -0.8766 -0.3673 -0.1503
 6809SOL     OW32150   1.198  11.864   4.196  0.1646 -0.0685 -0.2863
 6809SOL    HW132151   1.182  11.888   4.287 -0.1816 -1.1801 -0.0387
 6809SOL    HW232152   1.130  11.910   4.147 -1.4754 -1.6923  0.3467
 6810SOL     OW32153   7.405   4.334  11.080 -0.3125 -0.0772 -0.0485
 6810SOL    HW132154   7.353   4.375  11.149 -0.3733 -0.4483  0.1247
 6810SOL    HW232155   7.492   4.323  11.118 -0.5019 -0.8276  0.1761
 6811SOL     OW32156  10.020   5.161  10.470  0.2260 -0.2785  0.1252
 6811SOL    HW132157  10.105   5.135  10.507  0.6989 -0.2468 -0.9095
 6811SOL    HW232158  10.037   5.173  10.376 -0.9839 -0.5229 -0.1428
 6812SOL     OW32159   5.697   1.733   2.825  0.0591 -0.2622  0.5998
 6812SOL    HW132160   5.775   1.681   2.844  0.2300  0.0890  0.8698
 6812SOL    HW232161   5.624   1.672   2.840  0.1819  0.0234  2.5342
 6813SOL     OW32162   6.686   9.059   2.011 -0.2171  0.2280  0.1095
 6813SOL    HW132163   6.725   9.145   1.996 -0.7237  0.4497  0.0254
 6813SOL    HW232164   6.742   9.018   2.077  0.0146  0.6310  0.1679
 6814SOL     OW32165   2.538   3.051   9.681  0.3897  0.5423  0.3554
 6814SOL    HW132166   2.470   3.042   9.748  0.3961 -1.4940  0.1607
 6814SOL    HW232167   2.491   3.041   9.598  0.9699 -1.8365  0.2400
 6815SOL     OW32168   4.404   6.485   5.385  0.3431  0.3743  0.1047
 6815SOL    HW132169   4.395   6.516   5.295  0.1983  0.4892  0.1576
 6815SOL    HW232170   4.403   6.390   5.378  4.0987  0.2227 -0.4160
 6816SOL     OW32171   3.971  11.029   1.838 -0.1772  0.2906  0.0816
 6816SOL    HW132172   3.994  10.986   1.755 -1.4521 -1.6418  0.6539
 6816SOL    HW232173   3.882  10.999   1.856 -0.3881  1.6791  1.5354
 6817SOL     OW32174   8.180   0.373   7.695 -0.2860  0.1273  0.3314
 6817SOL    HW132175   8.220   0.287   7.701  0.4294  0.3822 -0.4813
 6817SOL    HW232176   8.209   0.407   7.610 -1.7213  0.5942  0.0002
 6818SOL     OW32177   1.383   7.021   9.001 -0.2532 -0.1331  0.3180
 6818SOL    HW132178   1.389   7.012   9.096  0.0209  1.6297  0.5011
 6818SOL    HW232179   1.342   7.106   8.988 -0.8973 -0.6372 -1.1598
 6819SOL     OW32180  10.348   8.625   7.133 -0.2698  0.3422  0.3657
 6819SOL    HW132181  10.389   8.650   7.215  1.4965  3.9456 -1.3491
 6819SOL    HW232182  10.267   8.676   7.130 -1.0480 -0.8547  0.4402
 6820SOL     OW32183   5.518   1.236  11.305 -0.1115 -0.2166  0.2268
 6820SOL    HW132184   5.543   1.246  11.214  0.9641  0.3307  0.5696
 6820SOL    HW232185   5.446   1.173  11.304 -0.9099  0.6657 -1.1136
 6821SOL     OW32186   8.149   9.449  10.219  0.1369 -0.2342  0.1505
 6821SOL    HW132187   8.074   9.392  10.207 -0.3048  0.4982 -0.6450
 6821SOL    HW232188   8.116   9.537  10.204  0.4321  0.4489  2.9393
 6822SOL     OW32189   0.497   1.572   8.185 -0.3833 -0.4930  0.5140
 6822SOL    HW132190   0.536   1.509   8.124 -1.4445 -0.0282 -0.6913
 6822SOL    HW232191   0.481   1.650   8.132  0.5318  0.6679  1.8953
 6823SOL     OW32192   6.434   4.332   8.377 -0.2454  0.4879  0.3332
 6823SOL    HW132193   6.444   4.244   8.413 -0.5022  0.1722 -0.3577
 6823SOL    HW232194   6.409   4.318   8.286  0.1423  1.2776  0.0969
 6824SOL     OW32195   0.526  10.536   7.551  0.5170  0.3686 -0.4979
 6824SOL    HW132196   0.494  10.450   7.575 -0.1464  1.0174  1.0444
 6824SOL    HW232197   0.618  10.536   7.577  0.2723  0.4401  0.3762
 6825SOL     OW32198   2.849  11.273   3.071 -0.2319  0.3428  0.2104
 6825SOL    HW132199   2.935  11.270   3.114 -0.8199  0.5070  1.4532
 6825SOL    HW232200   2.858  11.215   2.996  0.7500 -0.2337  0.7445
 6826SOL     OW32201   6.453   5.403   4.538 -0.3968 -0.1915  0.1464
 6826SOL    HW132202   6.366   5.434   4.516 -1.5932 -1.2867  2.8708
 6826SOL    HW232203   6.477   5.449   4.619  1.5440  0.0432 -0.4981
 6827SOL     OW32204   5.945   8.986   5.421  0.2160  0.0677 -0.4479
 6827SOL    HW132205   5.873   8.985   5.358  0.1228  2.3759 -0.4594
 6827SOL    HW232206   5.909   9.027   5.499  1.0035 -0.5424  0.2567
 6828SOL     OW32207   5.701   9.315   0.381 -0.2137  0.0606 -0.5669
 6828SOL    HW132208   5.760   9.246   0.352 -0.4510 -0.7218  0.7397
 6828SOL    HW232209   5.756   9.373   0.434  0.0263  1.0123 -1.7954
 6829SOL     OW32210   2.192   3.459   5.488 -0.1077  0.3145  0.5396
 6829SOL    HW132211   2.267   3.451   5.546 -1.6525 -0.6377  2.5413
 6829SOL    HW232212   2.224   3.431   5.402  1.9544  0.5932  1.1670
 6830SOL     OW32213   8.188   8.194  11.087  0.2345  0.1286 -0.0583
 6830SOL    HW132214   8.114   8.232  11.040  2.4036  2.2823 -2.0010
 6830SOL    HW232215   8.233   8.269  11.125  2.1164 -0.9622 -0.0157
 6831SOL     OW32216   9.538   2.384   0.903  0.2204  0.7146 -0.2476
 6831SOL    HW132217   9.594   2.351   0.973  1.0974  2.0901 -0.2519
 6831SOL    HW232218   9.480   2.447   0.945  0.0139  0.7389 -0.5628
 6832SOL     OW32219   0.295   6.264  11.303  0.1908  0.2584 -0.9582
 6832SOL    HW132220   0.259   6.278  11.216  0.1856  0.2670 -0.9552
 6832SOL    HW232221   0.361   6.195  11.291 -0.2440 -0.1813 -0.8637
 6833SOL     OW32222   0.826   8.361   8.893  0.1151  0.6173  0.0127
 6833SOL    HW132223   0.921   8.365   8.900 -0.0418  2.0230  2.4980
 6833SOL    HW232224   0.795   8.436   8.944 -2.3186  0.7886 -1.5826
 6834SOL     OW32225   7.873  11.570  11.888  0.2502  0.1414  0.2733
 6834SOL    HW132226   7.937  11.508  11.922  0.8892 -0.1075 -1.3221
 6834SOL    HW232227   7.850  11.624  11.964  0.0617 -1.6770  1.5730
 6835SOL     OW32228   9.903   3.235  11.696  0.4618 -0.7200 -0.6940
 6835SOL    HW132229   9.851   3.292  11.639 -1.8706 -2.4226 -0.4106
 6835SOL    HW232230   9.895   3.148  11.658 -0.7901 -1.8416  1.8214
 6836SOL     OW32231   7.026  10.425   4.522 -0.2629  0.3094 -0.0965
 6836SOL    HW132232   7.043  10.347   4.574 -1.6492  0.6534  0.9705
 6836SOL    HW232233   7.021  10.394   4.432 -1.0423 -0.8857  0.3341
 6837SOL     OW32234   4.423  10.678   0.281 -0.0935  0.6911 -0.0264
 6837SOL    HW132235   4.359  10.608   0.269 -0.0043  0.6250 -0.1169
 6837SOL    HW232236   4.446  10.675   0.374 -0.3552  0.8301  0.0434
 6838SOL     OW32237   5.570   2.181   7.806 -0.5816  0.2583 -0.0415
 6838SOL    HW132238   5.584   2.196   7.713  1.3282 -2.3390 -0.2923
 6838SOL    HW232239   5.507   2.109   7.809  0.8892 -1.0620  0.5413
 6839SOL     OW32240   1.337  11.588   3.223  0.2867  0.1830  0.3143
 6839SOL    HW132241   1.401  11.543   3.277 -0.0221 -0.6924 -0.0233
 6839SOL    HW232242   1.369  11.678   3.217  1.8680 -0.3890 -0.4381
 6840SOL     OW32243   8.954   7.252   6.480 -0.3192 -0.3206  0.4768
 6840SOL    HW132244   8.904   7.323   6.521 -0.4916 -1.1948  1.8140
 6840SOL    HW232245   9.001   7.296   6.409  0.5933  1.4335  2.0505
 6841SOL     OW32246   5.021   9.257   4.382 -0.0389  0.0909  0.1230
 6841SOL    HW132247   5.027   9.345   4.346 -0.0414  0.0186 -0.0522
 6841SOL    HW232248   5.020   9.271   4.477 -0.8773  0.3222  0.0817
 6842SOL     OW32249  10.355   1.469   8.961  0.0847  0.2281  0.0907
 6842SOL    HW132250  10.289   1.509   8.905 -0.5896  0.8172  1.2941
 6842SOL    HW232251  10.355   1.377   8.935  0.9910  0.7616 -2.0434
 6843SOL     OW32252   4.785   0.120   7.061  0.5767 -0.0243 -0.5562
 6843SOL    HW132253   4.781   0.113   6.966  2.3809 -1.7011 -0.5686
 6843SOL    HW232254   4.694   0.108   7.089  0.2059 -0.9184 -2.0122
 6844SOL     OW32255   3.839   9.642   3.762 -0.3136 -0.5752  0.0853
 6844SOL    HW132256   3.932   9.657   3.777 -0.1711 -0.9623 -0.3491
 6844SOL    HW232257   3.832   9.547   3.750 -1.0054 -0.7499  1.6840
 6845SOL     OW32258   2.144   3.529   0.456  0.1133  0.2435 -0.0786
 6845SOL    HW132259   2.050   3.527   0.435  0.2089  1.4409 -0.7021
 6845SOL    HW232260   2.164   3.622   0.469  0.7999 -0.1288  2.0699
 6846SOL     OW32261   2.095   4.463   8.218 -0.2271 -0.2739 -0.5650
 6846SOL    HW132262   2.035   4.509   8.277 -0.1035 -0.5446 -0.2314
 6846SOL    HW232263   2.173   4.447   8.270  0.8390  1.5783 -1.4675
 6847SOL     OW32264  10.481  10.011   2.209 -0.3492  0.3097 -0.4592
 6847SOL    HW132265  10.558   9.954   2.200 -0.4401 -0.1520  1.2902
 6847SOL    HW232266  10.484  10.067   2.132  2.3329  1.0085  0.0262
 6848SOL     OW32267   0.634   8.449   9.499 -0.6298 -0.2023 -0.2231
 6848SOL    HW132268   0.697   8.397   9.449 -1.1573  1.4269 -2.7937
 6848SOL    HW232269   0.572   8.385   9.535  0.6202 -1.5639 -0.4276
 6849SOL     OW32270  10.198   0.328  10.898 -0.2398  0.1112  0.0990
 6849SOL    HW132271  10.189   0.271  10.821  0.0809  0.6123 -0.3232
 6849SOL    HW232272  10.187   0.270  10.973  0.2552 -0.5380 -0.3196
 6850SOL     OW32273   6.512  11.252   2.688 -0.2295  0.2293 -0.3807
 6850SOL    HW132274   6.601  11.222   2.669 -0.0957  0.5481 -0.2564
 6850SOL    HW232275   6.499  11.233   2.781 -1.1421 -2.0005 -0.8956
 6851SOL     OW32276   2.400   4.619   9.731  0.0419  0.8575  0.1896
 6851SOL    HW132277   2.361   4.545   9.685 -1.1449  1.0293  0.8833
 6851SOL    HW232278   2.482   4.585   9.767 -1.0224 -0.4750  1.4793
 6852SOL     OW32279  11.795   0.293   6.439 -0.2043 -0.1301  0.2255
 6852SOL    HW132280  11.770   0.368   6.385 -0.6478  0.2037  0.8908
 6852SOL    HW232281  11.889   0.304   6.453  0.0159 -0.4879 -0.8795
 6853SOL     OW32282   3.226   8.377   7.415  0.2395  0.3468 -0.3676
 6853SOL    HW132283   3.142   8.377   7.371  0.4593 -2.4728 -0.9656
 6853SOL    HW232284   3.283   8.430   7.359  0.0333 -1.6272 -2.5887
 6854SOL     OW32285   6.419  11.131   5.421 -0.5176 -0.2069 -0.3765
 6854SOL    HW132286   6.395  11.103   5.509 -0.2535  0.1506 -0.1903
 6854SOL    HW232287   6.374  11.214   5.409 -0.5658 -0.2625 -0.5868
 6855SOL     OW32288  10.872   2.714   7.588  1.1445 -1.0283  0.2344
 6855SOL    HW132289  10.845   2.664   7.511 -2.0432  0.5949  0.1289
 6855SOL    HW232290  10.966   2.727   7.577  1.3230 -3.3708 -1.8072
 6856SOL     OW32291   1.545   2.434   8.986  0.1622 -0.3219  0.7862
 6856SOL    HW132292   1.504   2.420   9.071  1.3803  0.3714  1.5175
 6856SOL    HW232293   1.509   2.517   8.955 -1.5874 -1.4001 -0.2073
 6857SOL     OW32294   5.547  11.675   4.649  0.2450  0.3356 -0.1372
 6857SOL    HW132295   5.580  11.620   4.578  0.7587 -0.4914  0.7219
 6857SOL    HW232296   5.569  11.764   4.623  0.4084  0.0415 -1.0252
 6858SOL     OW32297   6.467   7.961   6.916  0.2715  0.3122  0.4607
 6858SOL    HW132298   6.524   8.004   6.852  0.0292  2.7311  1.7694
 6858SOL    HW232299   6.504   7.984   7.001 -0.9963 -0.5176  1.2687
 6859SOL     OW32300   5.194  10.228   2.201  0.5500 -0.1259  0.3492
 6859SOL    HW132301   5.193  10.312   2.156  0.1994 -0.4050 -0.1802
 6859SOL    HW232302   5.156  10.245   2.287 -0.1017  0.1369  0.0159
 6860SOL     OW32303  10.072   1.184  11.638  0.1408 -0.1643 -0.3788
 6860SOL    HW132304  10.029   1.124  11.576  3.0901 -2.3601 -0.5176
 6860SOL    HW232305  10.073   1.135  11.720 -1.2318  1.5790  0.7273
 6861SOL     OW32306   1.342   3.476   6.001 -0.1922 -0.2055 -0.3741
 6861SOL    HW132307   1.274   3.446   6.061 -1.5792  0.6955 -1.4491
 6861SOL    HW232308   1.401   3.400   5.993 -0.3184 -0.5721  1.5627
 6862SOL     OW32309   9.250   5.145   3.359 -0.4234 -0.0136 -0.3974
 6862SOL    HW132310   9.294   5.120   3.278 -0.2064  0.0409 -0.2990
 6862SOL    HW232311   9.308   5.114   3.428  1.0745  2.7495 -0.2619
 6863SOL     OW32312   4.739   8.054   7.780  0.2082 -0.6794 -0.3540
 6863SOL    HW132313   4.668   8.101   7.736 -0.0712 -2.5588 -2.0837
 6863SOL    HW232314   4.703   8.030   7.865 -0.5937 -0.1272 -0.5220
 6864SOL     OW32315   0.057   2.590   6.808  0.0044 -0.1426  0.2134
 6864SOL    HW132316  -0.001   2.606   6.882  0.1123 -1.0013  0.5023
 6864SOL    HW232317   0.095   2.675   6.788 -0.4870  0.2120  0.7532
 6865SOL     OW32318   3.821  11.348   1.664  0.6476 -0.4784 -0.2104
 6865SOL    HW132319   3.752  11.400   1.622  0.9568 -0.6453 -0.9370
 6865SOL    HW232320   3.810  11.260   1.627  1.4031 -0.4485 -0.5192
 6866SOL     OW32321   7.542   4.707   9.374  0.4829 -0.2875 -0.2916
 6866SOL    HW132322   7.619   4.728   9.427  0.4851  0.2096 -0.4910
 6866SOL    HW232323   7.543   4.771   9.303 -1.3444  1.2451  0.9440
 6867SOL     OW32324   2.168   7.464  10.264  0.2109 -0.2439  0.3160
 6867SOL    HW132325   2.077   7.490  10.278 -0.3368 -0.9366 -1.6372
 6867SOL    HW232326   2.195   7.426  10.348 -0.2245  2.7896  1.9542
 6868SOL     OW32327  10.287   4.973   1.864  0.1967  0.1373  0.0213
 6868SOL    HW132328  10.278   4.879   1.847 -3.4093  0.5849 -1.5397
 6868SOL    HW232329  10.358   5.002   1.806  1.2369 -1.5365  0.3989
 6869SOL     OW32330   8.402   6.577   8.791  0.2130  0.1040  0.0203
 6869SOL    HW132331   8.363   6.532   8.716  2.2309  0.3932 -1.2637
 6869SOL    HW232332   8.412   6.667   8.762  2.4402 -0.0959  0.0081
 6870SOL     OW32333   4.694   7.132  10.618  0.0643 -0.0553  0.7236
 6870SOL    HW132334   4.622   7.181  10.577  1.6545  1.9880  0.1777
 6870SOL    HW232335   4.709   7.058  10.560 -0.2327  0.6945 -0.3476
 6871SOL     OW32336   5.588   2.988   6.539 -0.7376  0.1519  0.4425
 6871SOL    HW132337   5.496   2.966   6.557 -0.5311 -0.0567  1.3183
 6871SOL    HW232338   5.599   2.973   6.445 -1.0633 -1.8826  0.6775
 6872SOL     OW32339   7.428   8.868   8.861 -0.3026 -0.2650  0.1494
 6872SOL    HW132340   7.484   8.913   8.924  1.6095  0.2950 -1.8032
 6872SOL    HW232341   7.348   8.920   8.859  0.1263  0.4706  1.1624
 6873SOL     OW32342   3.541   8.943   8.203  0.2811  0.0692 -0.4523
 6873SOL    HW132343   3.492   9.021   8.228 -1.5129 -0.8755 -0.8426
 6873SOL    HW232344   3.542   8.889   8.282  0.4417 -0.0299 -0.5218
 6874SOL     OW32345   4.866   2.731   5.582 -0.1235  0.3329  0.0086
 6874SOL    HW132346   4.958   2.713   5.603 -0.3431 -1.5872 -0.5649
 6874SOL    HW232347   4.868   2.762   5.492  0.1226  2.2269  0.6129
 6875SOL     OW32348  10.522   4.943   5.002  0.4646  0.0183 -0.4018
 6875SOL    HW132349  10.435   4.968   4.972  0.7855  0.9985 -0.5525
 6875SOL    HW232350  10.513   4.931   5.096  0.1447 -0.0147 -0.4354
 6876SOL     OW32351   7.648  10.144   1.582  0.1225  0.0839  1.3007
 6876SOL    HW132352   7.580  10.124   1.647  0.2292 -0.9769  1.1016
 6876SOL    HW232353   7.681  10.230   1.608 -0.2935 -0.0317  2.2657
 6877SOL     OW32354   3.757   7.597   6.942  0.0381 -0.0976 -0.3098
 6877SOL    HW132355   3.694   7.529   6.917  0.2495 -0.2616 -0.3991
 6877SOL    HW232356   3.804   7.560   7.017  0.7290 -0.4024 -0.8764
 6878SOL     OW32357   7.651  10.128   7.366 -0.1974 -0.3691 -0.3789
 6878SOL    HW132358   7.562  10.161   7.353 -0.3724 -0.2554  0.9784
 6878SOL    HW232359   7.669  10.076   7.287 -1.4066 -0.2750 -0.7328
 6879SOL     OW32360   7.473  11.038   7.398  0.4956 -0.3293 -0.1049
 6879SOL    HW132361   7.549  10.985   7.374 -0.0049 -0.4760 -1.4808
 6879SOL    HW232362   7.408  10.974   7.428  1.0820 -0.1543  1.6611
 6880SOL     OW32363   5.536   9.692   9.531  0.3653  0.0215  0.3519
 6880SOL    HW132364   5.535   9.787   9.539 -1.9866  0.1234 -0.5171
 6880SOL    HW232365   5.564   9.675   9.441 -1.0407 -0.0080 -0.0972
 6881SOL     OW32366   0.422   5.848   3.723 -0.8304  0.3297 -0.0809
 6881SOL    HW132367   0.397   5.914   3.659 -1.8349 -2.0675 -2.3395
 6881SOL    HW232368   0.351   5.784   3.722  0.3246 -1.0995  1.5683
 6882SOL     OW32369   8.979   4.263   5.755  0.2270  0.2937 -0.1006
 6882SOL    HW132370   8.887   4.237   5.752  0.7027 -1.4649 -0.6104
 6882SOL    HW232371   9.009   4.254   5.664  1.1048  0.0134  0.2094
 6883SOL     OW32372   4.145   3.190   1.692 -0.1589  0.4813  0.7956
 6883SOL    HW132373   4.176   3.269   1.737  1.7475  0.2573 -0.0368
 6883SOL    HW232374   4.191   3.118   1.735  1.1263  0.2000 -0.9784
 6884SOL     OW32375   3.023   7.595   0.847  0.4177  0.2684  0.1821
 6884SOL    HW132376   3.088   7.665   0.844  0.1290  0.5077 -1.0782
 6884SOL    HW232377   2.954   7.623   0.787 -1.4749  0.5793  2.3880
 6885SOL     OW32378   4.943   7.891   2.045  0.4620  0.0889 -0.6066
 6885SOL    HW132379   4.927   7.821   2.108 -0.4693 -0.4147 -1.3665
 6885SOL    HW232380   4.855   7.915   2.014  0.7499  1.6507 -0.3138
 6886SOL     OW32381   2.880   2.586  11.211 -0.5129 -0.1764  0.4664
 6886SOL    HW132382   2.961   2.615  11.170  0.3230 -1.6855  0.9652
 6886SOL    HW232383   2.843   2.665  11.250  1.6933  0.2630  1.8522
 6887SOL     OW32384   2.122   1.930   1.672 -0.5345 -0.0148  0.6150
 6887SOL    HW132385   2.108   1.866   1.742  1.8190 -0.4634  0.7609
 6887SOL    HW232386   2.117   2.015   1.716 -1.4157 -0.1852  0.8562
 6888SOL     OW32387   5.430   4.274   5.643 -0.3780 -0.0011 -0.1966
 6888SOL    HW132388   5.388   4.352   5.678  1.0151  0.1409  1.3016
 6888SOL    HW232389   5.463   4.300   5.557 -2.7936  0.0262 -1.1863
 6889SOL     OW32390   9.409   7.952   9.382  0.2910  0.7487 -0.3406
 6889SOL    HW132391   9.427   7.887   9.450 -1.0515  1.2683  0.5291
 6889SOL    HW232392   9.456   8.030   9.410 -0.0638  0.8891 -0.1394
 6890SOL     OW32393  11.581   8.596   6.900  0.3016 -0.0732  0.3155
 6890SOL    HW132394  11.542   8.598   6.813  0.3693 -0.3874  0.2764
 6890SOL    HW232395  11.519   8.544   6.952  0.5787 -0.4298  0.2959
 6891SOL     OW32396   0.201   1.003   0.592  0.0952  0.0584  0.0145
 6891SOL    HW132397   0.151   1.036   0.666 -1.2552 -1.9491  0.0399
 6891SOL    HW232398   0.165   1.050   0.516 -0.6106 -0.0915  0.2523
 6892SOL     OW32399   3.735   1.456   1.630  0.0225  0.0199  0.2172
 6892SOL    HW132400   3.662   1.421   1.681  0.1467  0.6414  0.8408
 6892SOL    HW232401   3.717   1.430   1.540 -0.1863 -1.1398  0.5757
 6893SOL     OW32402   7.640   6.062  10.672 -0.5720  0.1111  0.3371
 6893SOL    HW132403   7.695   6.002  10.622 -0.4530 -0.2542  0.8938
 6893SOL    HW232404   7.596   6.005  10.736 -0.6721  0.5780  0.6850
 6894SOL     OW32405   4.172   9.720   8.900  0.1787 -0.3657  0.4197
 6894SOL    HW132406   4.191   9.798   8.952  1.8744 -1.2073  1.1508
 6894SOL    HW232407   4.084   9.693   8.929 -0.8230  1.7142 -0.5010
 6895SOL     OW32408   4.395   2.183   7.224  0.3215 -0.1251 -0.0088
 6895SOL    HW132409   4.485   2.195   7.191  0.0703  0.2986 -0.5687
 6895SOL    HW232410   4.341   2.190   7.146 -0.2550  0.3319  0.4258
 6896SOL     OW32411   2.469   0.581  10.388  0.8918  0.2283  0.0070
 6896SOL    HW132412   2.427   0.514  10.442  1.1899  0.0994  0.0833
 6896SOL    HW232413   2.544   0.536  10.348 -0.1788 -0.1236 -1.7410
 6897SOL     OW32414   9.027   7.649  11.811 -0.0520  0.1621  0.1688
 6897SOL    HW132415   8.932   7.640  11.805 -0.0389  0.5704 -0.9297
 6897SOL    HW232416   9.045   7.654  11.904 -1.1089  0.0532  0.3898
 6898SOL     OW32417   4.828   5.032   2.844  0.6388 -0.1103  0.5524
 6898SOL    HW132418   4.830   5.092   2.770  0.8771  0.3153  0.9031
 6898SOL    HW232419   4.827   4.945   2.803  0.8924  0.1160  0.0476
 6899SOL     OW32420   8.007   3.238   2.838  0.2741 -0.1103  0.4081
 6899SOL    HW132421   7.963   3.237   2.753 -0.2598  1.9747  0.6185
 6899SOL    HW232422   7.937   3.221   2.901 -0.2852  2.8796  0.7184
 6900SOL     OW32423   4.448   0.670   8.559  0.5397 -0.2982 -0.3069
 6900SOL    HW132424   4.379   0.603   8.563 -0.1353  0.4510  1.1049
 6900SOL    HW232425   4.515   0.639   8.620  0.4025  0.1239  0.0576
 6901SOL     OW32426   3.772   8.827   0.565 -0.2250  0.1850  0.0102
 6901SOL    HW132427   3.690   8.786   0.593 -1.2996  0.9186 -1.8767
 6901SOL    HW232428   3.820   8.757   0.522  0.5845 -0.4705  1.8914
 6902SOL     OW32429   4.369   0.535   3.745 -0.1978 -0.3083 -0.3546
 6902SOL    HW132430   4.328   0.620   3.761 -0.3217 -0.3083 -0.6664
 6902SOL    HW232431   4.335   0.478   3.814 -0.2308 -0.1432 -0.2343
 6903SOL     OW32432   8.041   3.469   8.105 -0.1823 -0.1810 -0.0247
 6903SOL    HW132433   8.113   3.532   8.105  0.4968 -0.8977  1.4036
 6903SOL    HW232434   8.030   3.446   8.013  1.9759 -0.6495 -0.2316
 6904SOL     OW32435   6.961  11.402   5.348 -0.3782  0.3720 -0.3900
 6904SOL    HW132436   6.869  11.376   5.348 -0.3986  0.2248  2.2390
 6904SOL    HW232437   6.972  11.453   5.267 -2.9196  0.9810 -0.4116
 6905SOL     OW32438   5.770   4.842  10.411  0.4328 -0.9611 -0.4425
 6905SOL    HW132439   5.727   4.781  10.351 -0.1248  0.0164 -1.0605
 6905SOL    HW232440   5.701   4.900  10.441  0.7061 -1.4384  1.1891
 6906SOL     OW32441   1.735   6.610   5.941 -0.6964 -0.0653 -0.2802
 6906SOL    HW132442   1.714   6.693   5.984 -2.2368  1.1189 -3.0406
 6906SOL    HW232443   1.673   6.547   5.979  0.2015  0.0931  1.5303
 6907SOL     OW32444   7.575  10.593   8.119  0.7885 -0.6412 -0.2147
 6907SOL    HW132445   7.587  10.688   8.122 -3.2996  0.1496 -2.1240
 6907SOL    HW232446   7.613  10.562   8.201  0.7354  2.8554  1.3346
 6908SOL     OW32447   3.802   4.769   0.785 -0.5103  0.0859  0.2581
 6908SOL    HW132448   3.873   4.734   0.838  0.6258 -0.2010 -1.3758
 6908SOL    HW232449   3.728   4.711   0.803  0.4217 -1.2341  0.0584
 6909SOL     OW32450   3.522   7.009   1.557 -0.3856 -0.1744 -0.4969
 6909SOL    HW132451   3.435   6.997   1.517  0.6459 -0.5035 -2.7665
 6909SOL    HW232452   3.539   7.102   1.550 -1.0723  0.1127  1.1885
 6910SOL     OW32453   2.998  10.519  11.733 -0.5091  0.1962  0.2275
 6910SOL    HW132454   2.973  10.472  11.812 -0.6028  0.8751  0.6084
 6910SOL    HW232455   3.062  10.462  11.690  0.1705  0.1931  1.2180
 6911SOL     OW32456   7.211   4.722   7.226  0.6697 -0.1219  0.0929
 6911SOL    HW132457   7.202   4.645   7.282 -2.0206 -0.6237 -0.8678
 6911SOL    HW232458   7.172   4.793   7.277  3.3863  0.7708  1.0887
 6912SOL     OW32459   5.296  10.508   0.210  0.8355 -0.1363 -0.2515
 6912SOL    HW132460   5.241  10.441   0.170  0.4246  0.8692 -1.4236
 6912SOL    HW232461   5.253  10.591   0.190  1.8089  0.5614  0.3880
 6913SOL     OW32462   5.661   8.592   0.312  0.2026 -0.1276  0.4205
 6913SOL    HW132463   5.617   8.615   0.230  0.8971 -2.0404 -0.5635
 6913SOL    HW232464   5.604   8.527   0.352  1.3703 -1.6092 -0.1994
 6914SOL     OW32465  10.135   5.125   4.749  0.8197 -0.4681 -0.4076
 6914SOL    HW132466  10.135   5.055   4.814  0.5446 -3.9164 -3.7898
 6914SOL    HW232467  10.225   5.159   4.750  1.7177 -2.6994 -0.3791
 6915SOL     OW32468   8.304   7.734   1.532 -0.5483 -0.1904  0.4522
 6915SOL    HW132469   8.333   7.774   1.614  0.7063 -3.8262  1.9851
 6915SOL    HW232470   8.384   7.722   1.481 -1.3483  2.3757 -1.6655
 6916SOL     OW32471  11.165   2.276   7.541 -0.1177 -0.2642 -0.6080
 6916SOL    HW132472  11.243   2.287   7.596  0.4360  0.5509 -1.5254
 6916SOL    HW232473  11.165   2.182   7.520  1.2074 -0.1163 -1.4122
 6917SOL     OW32474   2.851   1.063   2.203  0.4090 -0.1632  0.7245
 6917SOL    HW132475   2.829   0.979   2.243  0.0695 -0.0371  0.8138
 6917SOL    HW232476   2.766   1.108   2.195  0.0986 -1.1108 -2.3271
 6918SOL     OW32477   1.239   6.040   0.291  0.1686 -0.7752  0.2623
 6918SOL    HW132478   1.247   6.124   0.337 -2.0636  0.3809 -1.2482
 6918SOL    HW232479   1.309   6.042   0.226 -0.1429  0.1795 -0.0685
 6919SOL     OW32480   6.543  11.333   5.586 -0.4069 -0.1773  0.1045
 6919SOL    HW132481   6.506  11.372   5.506 -0.4728 -0.5618 -0.0573
 6919SOL    HW232482   6.596  11.403   5.624  2.8093 -1.0806 -2.2987
 6920SOL     OW32483   0.419   4.057   2.784  0.0850 -0.4787  0.1577
 6920SOL    HW132484   0.368   4.095   2.854 -1.5600  2.1439 -2.2482
 6920SOL    HW232485   0.378   3.972   2.767 -0.8247 -0.2174  0.9869
 6921SOL     OW32486  11.854   0.812   5.436 -0.0552 -0.4589 -0.2526
 6921SOL    HW132487  11.850   0.762   5.354 -0.3698  0.3504 -0.7367
 6921SOL    HW232488  11.910   0.759   5.493  0.3533 -0.9241 -1.0639
 6922SOL     OW32489   9.870  10.178   9.313  0.0758 -0.0909  0.5473
 6922SOL    HW132490   9.784  10.217   9.327  0.1198 -0.3105  1.5080
 6922SOL    HW232491   9.872  10.102   9.373  1.3785  0.6082  1.4500
 6923SOL     OW32492   9.862   9.478   4.118 -0.1423 -0.1682 -0.0976
 6923SOL    HW132493   9.858   9.443   4.207  0.8915  0.3511  0.1664
 6923SOL    HW232494   9.799   9.551   4.118  0.7216  0.5951  0.5698
 6924SOL     OW32495   0.579   4.335   5.073  0.5138  0.1310 -0.1823
 6924SOL    HW132496   0.612   4.402   5.133  0.2721 -0.5102  0.6995
 6924SOL    HW232497   0.645   4.328   5.005  0.5031  1.3170 -0.3382
 6925SOL     OW32498   2.579   1.417   5.236 -0.4820  0.5887  0.5671
 6925SOL    HW132499   2.648   1.371   5.283  0.1855 -2.5622 -2.9135
 6925SOL    HW232500   2.499   1.371   5.262  0.1508 -2.9410 -2.6800
 6926SOL     OW32501   9.065   7.770   9.901 -0.5578  0.1225 -0.5701
 6926SOL    HW132502   9.115   7.755   9.821 -1.7878  2.5094 -1.9291
 6926SOL    HW232503   9.044   7.864   9.899 -1.6434  0.0342  1.9755
 6927SOL     OW32504   0.163   3.376   5.659 -0.1795  0.6867 -0.8062
 6927SOL    HW132505   0.105   3.348   5.730  0.0045 -2.1541 -1.6311
 6927SOL    HW232506   0.238   3.316   5.665  0.6768  1.5551 -2.2991
 6928SOL     OW32507  10.133   4.019   4.869  0.2233 -0.0119 -0.3067
 6928SOL    HW132508  10.093   3.957   4.808 -1.8985  1.7145 -0.8034
 6928SOL    HW232509  10.218   4.040   4.830 -0.0962 -0.7094 -1.4375
 6929SOL     OW32510   8.842   0.513  11.263  0.0982 -0.0754  0.4165
 6929SOL    HW132511   8.914   0.495  11.324  0.2132  0.0662  0.3220
 6929SOL    HW232512   8.836   0.435  11.208  0.3863  0.0445  0.2173
 6930SOL     OW32513   8.077   4.357  10.675  0.1622  0.0880  0.1782
 6930SOL    HW132514   8.140   4.421  10.707  0.9000  0.3198 -1.6258
 6930SOL    HW232515   8.118   4.272  10.691  1.2284  0.2525 -1.4622
 6931SOL     OW32516   5.959   9.604   6.992 -0.6900  0.1400 -0.3682
 6931SOL    HW132517   5.969   9.556   6.910 -1.9042 -0.2953 -0.2830
 6931SOL    HW232518   5.867   9.591   7.017  0.1921 -1.8028  2.3337
 6932SOL     OW32519   6.334   5.844   9.394  0.0368 -0.2072  0.2933
 6932SOL    HW132520   6.329   5.760   9.440 -1.0032  0.1369  0.8518
 6932SOL    HW232521   6.242   5.869   9.382  0.3319  1.4779  1.3054
 6933SOL     OW32522   8.960   7.234   7.491  0.3631  0.1640  0.3201
 6933SOL    HW132523   9.045   7.275   7.475 -0.5260  1.7956 -0.4015
 6933SOL    HW232524   8.963   7.152   7.440  1.6918 -0.0895  0.7754
 6934SOL     OW32525   2.775   3.457   6.844 -0.1099  0.4740  0.5183
 6934SOL    HW132526   2.837   3.384   6.830 -0.6165 -0.7664  3.8823
 6934SOL    HW232527   2.692   3.423   6.811  0.2698  0.8202 -0.8590
 6935SOL     OW32528   7.357   8.825   3.611  0.0429 -0.0812 -0.1469
 6935SOL    HW132529   7.383   8.865   3.528 -0.5688 -0.3669 -0.4845
 6935SOL    HW232530   7.262   8.817   3.605 -0.0559  0.3201  0.7775
 6936SOL     OW32531   9.315   2.947   5.273  0.2550 -0.4277  0.3349
 6936SOL    HW132532   9.355   2.969   5.358  2.3313 -0.5129 -0.5603
 6936SOL    HW232533   9.319   2.852   5.269 -1.1842 -0.5257  0.7242
 6937SOL     OW32534   6.097   0.132   1.047  0.0163 -0.1221 -0.3512
 6937SOL    HW132535   6.147   0.195   0.995  0.7207 -0.0649  0.3766
 6937SOL    HW232536   6.163   0.074   1.086 -0.4954 -0.2455  0.3651
 6938SOL     OW32537   4.038  10.664   9.478  0.0885  0.7128 -0.0301
 6938SOL    HW132538   3.946  10.646   9.460  0.7230 -0.0122 -3.2210
 6938SOL    HW232539   4.075  10.579   9.504  0.5613 -0.0157 -2.7445
 6939SOL     OW32540   2.942  10.666   6.385 -0.1156  0.6131 -0.3997
 6939SOL    HW132541   3.024  10.666   6.434  1.3800  0.2898 -2.7840
 6939SOL    HW232542   2.919  10.759   6.377 -0.3266  0.6772  0.7450
 6940SOL     OW32543   1.503   8.346   4.159 -0.0965  0.3714 -0.2923
 6940SOL    HW132544   1.413   8.314   4.157 -0.2645  0.7348  0.8672
 6940SOL    HW232545   1.496   8.440   4.143  0.1667  0.2578 -1.1126
 6941SOL     OW32546  11.099   3.292   3.701 -0.3318  0.3405  0.4221
 6941SOL    HW132547  11.194   3.282   3.692 -0.2850  1.4641 -0.5758
 6941SOL    HW232548  11.084   3.291   3.796  0.5976 -0.4092  0.5792
 6942SOL     OW32549   1.897   8.791   4.550  0.0291 -0.2542  0.4328
 6942SOL    HW132550   1.939   8.742   4.621  1.1839  2.2308  1.6050
 6942SOL    HW232551   1.969   8.821   4.495 -0.7723 -1.1645 -1.1731
 6943SOL     OW32552   1.801  10.373   4.847 -0.0708  0.2904 -0.6928
 6943SOL    HW132553   1.733  10.436   4.825 -0.3480 -0.4709 -2.1838
 6943SOL    HW232554   1.863  10.377   4.774  0.4674 -0.3956 -0.2951
 6944SOL     OW32555   3.504   7.074   0.234 -0.2262  0.0254 -0.0119
 6944SOL    HW132556   3.503   6.996   0.179 -2.6887  0.9593 -1.4914
 6944SOL    HW232557   3.528   7.043   0.321  0.6154 -2.0448 -0.9300
 6945SOL     OW32558   5.842   6.849   7.893 -0.3233  0.1580 -0.7307
 6945SOL    HW132559   5.822   6.802   7.973  1.3587  0.7395  0.0937
 6945SOL    HW232560   5.848   6.941   7.920 -0.5849  0.4710 -1.7020
 6946SOL     OW32561   7.165   5.468   2.940 -0.4600 -0.5725  0.6425
 6946SOL    HW132562   7.088   5.481   2.884  0.3459 -2.1534 -0.9090
 6946SOL    HW232563   7.141   5.510   3.023 -1.6533  2.0124 -0.8712
 6947SOL     OW32564  11.421   1.999  11.533 -0.1830  0.1971 -0.1309
 6947SOL    HW132565  11.440   2.064  11.600  0.0727  1.3737 -1.3065
 6947SOL    HW232566  11.501   1.946  11.527  0.3700  1.0676 -0.5746
 6948SOL     OW32567   6.760  10.345   4.200  0.4252 -0.5269  0.0087
 6948SOL    HW132568   6.700  10.366   4.129 -0.0373  1.1395  0.8484
 6948SOL    HW232569   6.728  10.395   4.275  2.5607  0.0414  0.6178
 6949SOL     OW32570   9.492   2.683  11.308 -0.1677 -0.0296  0.0909
 6949SOL    HW132571   9.516   2.743  11.378  0.4777 -2.0137  1.6808
 6949SOL    HW232572   9.405   2.650  11.333 -0.2450 -0.2294 -0.4236
 6950SOL     OW32573   1.998   1.723   1.888 -0.0995 -0.2345 -0.0812
 6950SOL    HW132574   1.965   1.750   1.974 -1.0854 -1.9692  0.1325
 6950SOL    HW232575   2.073   1.668   1.908 -0.1996 -0.4640 -0.3385
 6951SOL     OW32576   3.189  11.447   6.011 -0.2861 -0.3050  0.3755
 6951SOL    HW132577   3.218  11.400   6.089 -0.2321 -0.1890  0.4246
 6951SOL    HW232578   3.132  11.385   5.965 -0.4093 -0.3298  0.5649
 6952SOL     OW32579   9.851   1.497   5.606 -0.1352  0.5476 -0.0060
 6952SOL    HW132580   9.899   1.415   5.613 -0.3806  0.4901  1.4593
 6952SOL    HW232581   9.882   1.549   5.681  1.0840  2.4075 -1.6683
 6953SOL     OW32582   5.167   0.793   5.160  0.1079  0.1766  0.8933
 6953SOL    HW132583   5.218   0.750   5.228  0.1760 -0.4879  0.4281
 6953SOL    HW232584   5.090   0.827   5.205 -0.3304 -1.0975  1.1409
 6954SOL     OW32585   6.361   0.516   0.584 -0.0506 -0.4335 -0.3749
 6954SOL    HW132586   6.369   0.518   0.679  1.7521  0.1872 -0.5099
 6954SOL    HW232587   6.442   0.476   0.553  0.2613  1.0965 -1.7215
 6955SOL     OW32588   7.209  11.216   7.623  0.1081 -0.2104 -0.4797
 6955SOL    HW132589   7.283  11.168   7.661 -0.0196 -0.4602 -0.5409
 6955SOL    HW232590   7.226  11.308   7.644  1.4799 -0.0129 -2.2046
 6956SOL     OW32591   6.524  11.154   0.618 -0.1124 -0.3635 -0.0387
 6956SOL    HW132592   6.537  11.060   0.626  3.6005 -0.0612 -1.0969
 6956SOL    HW232593   6.484  11.166   0.532 -0.7609 -0.9365  0.1708
 6957SOL     OW32594   1.848   6.787  10.766  0.1244 -0.5105  0.0688
 6957SOL    HW132595   1.841   6.692  10.765 -1.9135 -0.4308  0.9370
 6957SOL    HW232596   1.806   6.815  10.684  1.1126 -0.3474 -0.3984
 6958SOL     OW32597   2.906   5.600   0.982  0.1363  0.0052  0.2804
 6958SOL    HW132598   2.998   5.588   0.962  0.4322  0.4646  1.2616
 6958SOL    HW232599   2.874   5.661   0.915 -0.1476 -2.1815 -1.6676
 6959SOL     OW32600   2.101   9.861   9.150  0.0813  0.0750 -0.1175
 6959SOL    HW132601   2.134   9.779   9.114  0.0768  0.4912 -1.1315
 6959SOL    HW232602   2.179   9.917   9.156 -0.3505  1.1143 -2.6682
 6960SOL     OW32603   5.176   3.209  10.941  0.0284  0.4200 -0.6031
 6960SOL    HW132604   5.097   3.262  10.946 -0.3671 -0.2596  0.9481
 6960SOL    HW232605   5.208   3.205  11.032  1.1797 -0.2910 -1.0143
 6961SOL     OW32606   7.283   1.981  10.347  0.2637 -0.3166  0.6371
 6961SOL    HW132607   7.242   1.978  10.433  1.5785 -0.5962  1.2713
 6961SOL    HW232608   7.224   2.035  10.294 -1.8002 -2.0910  1.0145
 6962SOL     OW32609   1.275   0.695   6.545 -0.2972 -0.0089 -0.3868
 6962SOL    HW132610   1.292   0.666   6.635 -1.4199  2.2149  0.6113
 6962SOL    HW232611   1.360   0.727   6.515 -0.1042  0.0813  0.2297
 6963SOL     OW32612  11.880   4.223  10.598 -0.3776 -0.1940 -0.2287
 6963SOL    HW132613  11.889   4.168  10.676  0.3292  2.3530  1.6146
 6963SOL    HW232614  11.967   4.262  10.586 -0.8214  0.4641 -1.5416
 6964SOL     OW32615   0.985   1.933   4.900  0.1070 -0.1716 -0.1866
 6964SOL    HW132616   0.901   1.916   4.944 -0.4593  2.5975  0.0028
 6964SOL    HW232617   0.999   2.027   4.913  2.1403 -0.1485 -2.1578
 6965SOL     OW32618   2.138   2.133   3.999  0.5422 -0.6582 -0.1243
 6965SOL    HW132619   2.227   2.136   4.035  1.2757  0.3942 -1.9460
 6965SOL    HW232620   2.103   2.050   4.032  1.9219 -0.7718  1.2019
 6966SOL     OW32621   7.371   4.824   9.917  0.4892 -0.2432 -0.3417
 6966SOL    HW132622   7.344   4.733   9.926  2.5398 -0.7052  2.6481
 6966SOL    HW232623   7.308   4.874   9.969  0.2821 -0.1489 -0.6801
 6967SOL     OW32624  11.749   5.968   7.203  1.0591  0.5560 -0.0994
 6967SOL    HW132625  11.720   5.972   7.294  2.2818 -1.2848  0.4380
 6967SOL    HW232626  11.679   6.010   7.153  1.6768  4.4663  1.8794
 6968SOL     OW32627  10.751   4.041  11.035 -0.2169 -0.3758 -0.1583
 6968SOL    HW132628  10.697   4.024  11.112  1.3269  2.1630  1.6415
 6968SOL    HW232629  10.691   4.032  10.961 -2.7808  0.9411  1.6161
 6969SOL     OW32630   5.794  10.349   4.368  0.2120  0.4305  0.1367
 6969SOL    HW132631   5.771  10.373   4.278  1.2045 -0.1707 -0.2902
 6969SOL    HW232632   5.749  10.266   4.383  1.3209 -0.2789 -0.3762
 6970SOL     OW32633   1.168   2.714   3.324 -0.3122 -0.4445 -0.6021
 6970SOL    HW132634   1.221   2.656   3.378  0.8746 -0.6821 -1.9780
 6970SOL    HW232635   1.159   2.794   3.376  0.3458 -0.8579  0.1567
 6971SOL     OW32636   8.918   1.118   3.210 -0.3933 -0.1400  0.3890
 6971SOL    HW132637   8.920   1.214   3.214  2.2890 -0.1192  0.5510
 6971SOL    HW232638   8.967   1.090   3.288  0.9530 -1.5601 -0.9056
 6972SOL     OW32639   4.347   0.863   4.806  0.4654  0.5073 -0.5681
 6972SOL    HW132640   4.310   0.780   4.835 -0.9291  1.3847  0.2806
 6972SOL    HW232641   4.316   0.873   4.716 -0.1465  0.5191 -0.3645
 6973SOL     OW32642   4.950   1.991   8.798 -0.5332  0.0078 -0.3824
 6973SOL    HW132643   4.947   2.015   8.891  2.0601 -1.3550  0.1352
 6973SOL    HW232644   4.994   1.906   8.797  2.1607  1.2637 -3.0014
 6974SOL     OW32645   0.728   3.800   8.163  0.5963  0.0612  0.2114
 6974SOL    HW132646   0.644   3.817   8.207  0.2850 -0.6750 -0.0784
 6974SOL    HW232647   0.794   3.817   8.231  0.2566  1.1756  0.2857
 6975SOL     OW32648   7.939   4.335   1.374  0.0424  0.1612  0.6943
 6975SOL    HW132649   7.853   4.367   1.401  0.1564 -0.6317  2.0546
 6975SOL    HW232650   7.949   4.251   1.418  0.8088 -0.5773 -0.8115
 6976SOL     OW32651  11.492   5.528   4.788 -0.1044 -0.7387  0.1903
 6976SOL    HW132652  11.405   5.550   4.753  0.0343  0.5591  0.6190
 6976SOL    HW232653  11.499   5.579   4.868  2.1088  1.3508 -1.1957
 6977SOL     OW32654   3.398   4.117   7.140 -0.3095 -0.3946 -0.1910
 6977SOL    HW132655   3.435   4.193   7.187  1.3344 -1.4303  0.2660
 6977SOL    HW232656   3.322   4.091   7.193 -0.6673  0.6825 -0.1466
 6978SOL     OW32657   8.638   1.471   3.468 -0.3523  0.1650 -0.1640
 6978SOL    HW132658   8.585   1.528   3.523  0.4820  1.1013 -0.3195
 6978SOL    HW232659   8.683   1.413   3.529 -0.2787  0.4722  0.0734
 6979SOL     OW32660   3.478   2.364   3.051  0.2671 -0.4490 -0.5101
 6979SOL    HW132661   3.447   2.434   3.108  1.5270  0.2847 -0.6884
 6979SOL    HW232662   3.399   2.334   3.005 -0.3518  0.6459 -0.2063
 6980SOL     OW32663   0.411   8.914   9.083  0.1214  0.4592 -0.0537
 6980SOL    HW132664   0.449   9.002   9.082  1.3043 -0.0195  0.5416
 6980SOL    HW232665   0.321   8.927   9.114  0.5936  1.3578  1.0262
 6981SOL     OW32666   7.561   2.468   1.726  0.3824 -0.5037  0.0060
 6981SOL    HW132667   7.544   2.397   1.665  1.6412 -0.5977 -0.2577
 6981SOL    HW232668   7.475   2.494   1.758 -0.6007  1.0402 -3.4631
 6982SOL     OW32669   9.729   1.097   5.239  0.4151  0.0609  0.1012
 6982SOL    HW132670   9.701   1.030   5.301  1.1104 -1.1845 -0.8957
 6982SOL    HW232671   9.647   1.133   5.205  0.0305 -0.6147  0.2930
 6983SOL     OW32672  11.522   7.260   6.120  0.0075 -0.0622 -0.7695
 6983SOL    HW132673  11.516   7.353   6.098 -0.3021  0.3333  0.8540
 6983SOL    HW232674  11.586   7.256   6.191  0.5450 -1.1960 -1.2904
 6984SOL     OW32675   5.055   9.312   0.246  0.1537  0.1861 -0.2297
 6984SOL    HW132676   5.135   9.267   0.274 -0.6940 -0.7637  0.7638
 6984SOL    HW232677   5.068   9.330   0.153  1.6369  0.3206 -0.0154
 6985SOL     OW32678   0.498  10.564  10.941 -0.2504  0.4912 -0.3869
 6985SOL    HW132679   0.439  10.495  10.973  1.2376 -0.6173  0.0848
 6985SOL    HW232680   0.584  10.523  10.940  0.4657  1.9303 -1.4886
 6986SOL     OW32681   2.605   1.173   2.220  0.3956  0.2519 -0.0221
 6986SOL    HW132682   2.531   1.233   2.228 -0.0287 -0.3740  0.8447
 6986SOL    HW232683   2.565   1.087   2.208  0.9979  0.0944 -0.9708
 6987SOL     OW32684   0.198   1.862  10.327 -0.0922  0.0110  0.3643
 6987SOL    HW132685   0.202   1.841  10.233  0.9044 -0.0902  0.4169
 6987SOL    HW232686   0.104   1.864  10.347 -0.2978 -1.6368 -0.2607
 6988SOL     OW32687  11.877   4.643   2.943  0.1743 -0.6940  0.5190
 6988SOL    HW132688  11.959   4.692   2.944 -0.1930  0.1036  4.2758
 6988SOL    HW232689  11.897   4.562   2.990 -1.1094 -0.6018  1.2657
 6989SOL     OW32690   7.581   2.900   5.889 -0.2335 -0.2609  0.0270
 6989SOL    HW132691   7.572   2.981   5.840  0.3656  0.6648  1.3858
 6989SOL    HW232692   7.652   2.853   5.846  0.9427  0.9798  0.5494
 6990SOL     OW32693   6.884  10.053   8.726  0.1671 -0.0379 -0.4505
 6990SOL    HW132694   6.825  10.090   8.661 -1.0487 -0.8940  0.1285
 6990SOL    HW232695   6.971  10.077   8.696 -0.4811  3.3692 -0.0794
 6991SOL     OW32696   8.202  10.635   6.720 -0.0660 -0.1684 -0.3367
 6991SOL    HW132697   8.208  10.720   6.762 -1.7207 -0.2964  0.2372
 6991SOL    HW232698   8.109  10.625   6.698  0.3049 -1.2599 -1.5999
 6992SOL     OW32699   5.563   4.688   5.713 -0.6244  0.1356  0.2814
 6992SOL    HW132700   5.615   4.638   5.650  1.1154  1.3570  0.6992
 6992SOL    HW232701   5.582   4.780   5.693 -0.8664  0.5677  1.8934
 6993SOL     OW32702   4.892   4.966  10.248  0.7301  0.2753 -0.1793
 6993SOL    HW132703   4.956   5.035  10.231  1.8616 -0.7008 -0.0124
 6993SOL    HW232704   4.893   4.956  10.343 -0.6387  1.1137 -0.0378
 6994SOL     OW32705   9.616  11.805   2.410  0.3065 -0.0339 -0.0166
 6994SOL    HW132706   9.536  11.831   2.455  0.1649 -0.2609 -0.1378
 6994SOL    HW232707   9.607  11.839   2.321  0.3759 -0.0009 -0.0115
 6995SOL     OW32708   8.443   5.873  10.352 -0.2827  0.3042  0.1233
 6995SOL    HW132709   8.368   5.905  10.302 -1.8507 -1.0898  1.5088
 6995SOL    HW232710   8.495   5.824  10.288 -1.7038 -0.5799 -0.3787
 6996SOL     OW32711   1.640   5.719   4.375  0.5000 -0.2325  0.5652
 6996SOL    HW132712   1.678   5.632   4.388 -1.4327 -1.3483 -0.7085
 6996SOL    HW232713   1.588   5.735   4.454 -0.7279 -1.1721 -0.0074
 6997SOL     OW32714   4.845   3.759   5.210  0.5556  0.2525 -0.4406
 6997SOL    HW132715   4.808   3.681   5.253 -1.6425  2.4232  2.0046
 6997SOL    HW232716   4.937   3.759   5.234  0.6507 -1.6813 -0.6845
 6998SOL     OW32717  10.541   4.402  11.001  0.3314 -0.4581  0.1270
 6998SOL    HW132718  10.592   4.475  10.967  0.5548 -0.6094  0.1356
 6998SOL    HW232719  10.589   4.372  11.078  0.3801 -0.7820 -0.0275
 6999SOL     OW32720   3.020   8.503  11.268 -0.2243  0.6776 -0.1740
 6999SOL    HW132721   2.984   8.443  11.333  1.7299 -2.1478 -1.5115
 6999SOL    HW232722   3.084   8.556  11.316  0.6879 -0.8885  0.4022
 7000SOL     OW32723   5.556   9.717   2.054  0.0025  0.1583 -0.0748
 7000SOL    HW132724   5.509   9.739   2.134  0.1162  0.1678 -0.0112
 7000SOL    HW232725   5.626   9.782   2.047  0.0411  0.1112 -0.1396
 7001SOL     OW32726   7.672   9.715   3.623  0.1740  0.0703  0.2057
 7001SOL    HW132727   7.597   9.677   3.669  0.5136  1.6688  2.2504
 7001SOL    HW232728   7.685   9.800   3.664  3.1852 -0.1774  0.0459
 7002SOL     OW32729   9.284   7.559  10.777 -0.4727  0.0206 -0.0477
 7002SOL    HW132730   9.274   7.474  10.735  0.7368 -0.1410 -0.0435
 7002SOL    HW232731   9.197   7.580  10.811 -0.9196 -0.9206 -0.5928
 7003SOL     OW32732   0.444   0.156   6.453  0.5062  0.3060 -0.5254
 7003SOL    HW132733   0.397   0.080   6.419 -0.5943  1.1273 -0.9264
 7003SOL    HW232734   0.477   0.128   6.538  0.7066 -0.8282 -0.9691
 7004SOL     OW32735   7.110   5.999   0.653  0.5913 -0.4622 -0.4408
 7004SOL    HW132736   7.137   5.911   0.627 -1.7586 -1.3301 -0.2223
 7004SOL    HW232737   7.093   5.992   0.747 -0.5003 -0.0581 -0.5909
 7005SOL     OW32738   9.147   7.075   6.583  0.3696 -0.3087  0.2974
 7005SOL    HW132739   9.078   7.137   6.558  0.0063 -0.5912  0.5714
 7005SOL    HW232740   9.190   7.052   6.501  0.5926  0.4060  0.2085
 7006SOL     OW32741   4.884   8.201   5.524 -0.5153 -0.2062  0.1003
 7006SOL    HW132742   4.899   8.176   5.615 -1.8053  1.3934  0.8095
 7006SOL    HW232743   4.809   8.260   5.527  0.3978  1.1807 -1.8056
 7007SOL     OW32744   0.867   1.619   5.987  0.3357  0.3897  0.6557
 7007SOL    HW132745   0.800   1.686   5.976 -0.6801 -0.7050 -0.1151
 7007SOL    HW232746   0.939   1.663   6.033  0.6687  2.6291 -1.7570
 7008SOL     OW32747   6.838   5.706  10.061 -0.0758 -0.6725  0.4035
 7008SOL    HW132748   6.745   5.687  10.053 -0.3334  0.0103  1.5077
 7008SOL    HW232749   6.848   5.793  10.021  0.1940 -0.9658 -0.1837
 7009SOL     OW32750   3.499   3.746   0.783 -0.7614  0.4070  0.1196
 7009SOL    HW132751   3.439   3.675   0.759  0.2513  0.3680 -2.6929
 7009SOL    HW232752   3.452   3.826   0.760  0.2171  0.3713 -2.2450
 7010SOL     OW32753   0.593   4.000   1.867 -0.1193 -0.2844  0.0184
 7010SOL    HW132754   0.680   4.018   1.832 -0.3635 -2.1406 -1.7179
 7010SOL    HW232755   0.535   4.005   1.790 -1.4741  0.3585  1.0442
 7011SOL     OW32756   5.887   7.731   0.618  0.3121 -0.2270 -0.7218
 7011SOL    HW132757   5.882   7.715   0.523  0.8715 -1.8553 -0.5058
 7011SOL    HW232758   5.827   7.668   0.656 -0.6283  1.0473 -0.0052
 7012SOL     OW32759   6.787   3.983   1.873 -0.1823 -0.4369 -0.2065
 7012SOL    HW132760   6.843   3.905   1.874  0.7830  0.0741  3.8770
 7012SOL    HW232761   6.847   4.056   1.889 -1.4899  0.7334 -0.4626
 7013SOL     OW32762   4.156   9.436   6.400 -0.5198 -0.0233 -0.4296
 7013SOL    HW132763   4.081   9.410   6.347 -1.2586 -2.4859  1.6272
 7013SOL    HW232764   4.193   9.353   6.432  0.4117  1.2742  2.1425
 7014SOL     OW32765   4.334   2.864   9.896  0.3119  0.2414  0.2328
 7014SOL    HW132766   4.317   2.882   9.989  0.3971 -0.0957  0.3169
 7014SOL    HW232767   4.369   2.946   9.862 -0.7744  0.7190  0.2297
 7015SOL     OW32768   3.113   5.065  10.967 -0.1239 -0.2190 -0.8034
 7015SOL    HW132769   3.147   5.067  11.056 -0.3950 -0.4916 -0.6913
 7015SOL    HW232770   3.035   5.009  10.972 -1.7602  1.9274 -0.6298
 7016SOL     OW32771   8.305   8.179   0.553  0.1406  0.0013 -0.5983
 7016SOL    HW132772   8.344   8.265   0.569 -0.4186  0.3825 -1.2131
 7016SOL    HW232773   8.374   8.117   0.575  0.0363  0.5317  1.4658
 7017SOL     OW32774   8.288  10.724   3.244  0.1892  0.3929  0.1923
 7017SOL    HW132775   8.325  10.671   3.174  0.4886  0.5817  0.2059
 7017SOL    HW232776   8.364  10.758   3.292  0.0451  1.5980 -0.3845
 7018SOL     OW32777  11.579   6.506   8.721 -0.1577  0.0356 -0.1974
 7018SOL    HW132778  11.503   6.550   8.683  0.6546  1.0233 -0.7520
 7018SOL    HW232779  11.570   6.519   8.816 -1.1068 -0.6055 -0.1889
 7019SOL     OW32780   7.359   4.798   7.582 -0.3118  0.2797  0.0039
 7019SOL    HW132781   7.320   4.857   7.517 -1.1015 -1.4391 -1.1414
 7019SOL    HW232782   7.353   4.847   7.664 -1.9091  1.3926 -0.7196
 7020SOL     OW32783   7.441   2.072   3.033  0.1125  0.4831  0.8395
 7020SOL    HW132784   7.449   2.166   3.019  1.1600  0.1250 -1.6787
 7020SOL    HW232785   7.347   2.055   3.027  0.0667  1.1380 -1.1605
 7021SOL     OW32786   6.371   4.122   2.059 -0.5855  0.1258 -0.0426
 7021SOL    HW132787   6.330   4.077   1.985 -1.8130  1.0197  0.0816
 7021SOL    HW232788   6.382   4.212   2.030 -0.5593  0.3554  0.6544
 7022SOL     OW32789   7.197  10.267   5.256 -0.4694 -0.7342 -0.1609
 7022SOL    HW132790   7.181  10.279   5.349  0.5686  0.5654 -0.1084
 7022SOL    HW232791   7.260  10.336   5.234 -0.1751 -1.4468 -1.6755
 7023SOL     OW32792   3.236  11.489   5.574 -0.5780  0.3009 -0.4429
 7023SOL    HW132793   3.163  11.546   5.597 -1.2801 -0.4970 -0.6387
 7023SOL    HW232794   3.196  11.403   5.562  0.8781 -1.0294  2.9967
 7024SOL     OW32795   0.629   0.472   2.832  0.0934 -0.0393 -0.0735
 7024SOL    HW132796   0.587   0.493   2.915  0.0340  2.0094 -0.5867
 7024SOL    HW232797   0.626   0.552   2.781  2.2123 -0.5607 -1.1831
 7025SOL     OW32798   1.842  10.156   9.698 -0.2944 -0.1720 -0.0901
 7025SOL    HW132799   1.819  10.235   9.649 -1.6133  0.9637  2.1927
 7025SOL    HW232800   1.930  10.134   9.668  0.1329  2.2110 -0.7568
 7026SOL     OW32801   8.552   1.231   5.164  0.2324 -0.3886  0.7472
 7026SOL    HW132802   8.493   1.192   5.228  2.3781 -0.8500  2.5574
 7026SOL    HW232803   8.600   1.157   5.127 -0.1475 -0.0097 -0.5702
 7027SOL     OW32804   7.299   7.314   8.028  0.0706  0.0562 -0.4530
 7027SOL    HW132805   7.265   7.332   7.940  0.7606  1.6894 -0.4163
 7027SOL    HW232806   7.229   7.340   8.087 -0.2252 -0.6270 -0.4948
 7028SOL     OW32807   0.506  11.696   6.142 -0.0389  0.8201  0.1080
 7028SOL    HW132808   0.593  11.657   6.148  0.0544  0.7036 -1.4855
 7028SOL    HW232809   0.517  11.785   6.174  0.6042  0.7110  0.1894
 7029SOL     OW32810   7.822   7.113   3.064 -0.3303 -0.3983  0.3584
 7029SOL    HW132811   7.811   7.082   2.974  0.3509 -0.1434  0.1824
 7029SOL    HW232812   7.776   7.196   3.066 -0.3126 -0.3838  0.2290
 7030SOL     OW32813   9.816   2.749   2.008 -0.0033 -0.1221  0.5828
 7030SOL    HW132814   9.787   2.805   1.935  1.8900 -0.7965 -0.7719
 7030SOL    HW232815   9.748   2.681   2.014 -0.5642  0.3651 -0.0684
 7031SOL     OW32816   8.801   1.450  10.294 -0.6650  0.0359  0.1890
 7031SOL    HW132817   8.881   1.413  10.332 -0.1696 -0.1321 -0.9717
 7031SOL    HW232818   8.761   1.378  10.246 -0.4646  0.6067 -0.8639
 7032SOL     OW32819   6.838   7.653  11.660  0.5219 -0.4856  0.3919
 7032SOL    HW132820   6.878   7.713  11.596 -1.8825  1.3676  0.4690
 7032SOL    HW232821   6.887   7.669  11.741 -0.1136  1.5796  0.4429
 7033SOL     OW32822  11.956   2.904  11.904  0.2128  0.5467 -0.2849
 7033SOL    HW132823  11.959   2.923  11.810  0.9584  1.5041 -0.0878
 7033SOL    HW232824  11.969   2.809  11.910 -0.5991  0.3644 -1.1774
 7034SOL     OW32825   1.293   1.909   6.717 -0.0078 -0.0208 -0.2939
 7034SOL    HW132826   1.251   1.952   6.643  0.6388  0.3660 -0.4396
 7034SOL    HW232827   1.382   1.891   6.688 -0.4967 -2.2467 -0.5426
 7035SOL     OW32828   6.399   8.636   2.171  0.0022 -0.3622 -0.2829
 7035SOL    HW132829   6.485   8.673   2.193 -0.6473  0.7579  0.5172
 7035SOL    HW232830   6.389   8.651   2.077  0.8248 -0.8330 -0.4504
 7036SOL     OW32831   0.658   7.858   7.086 -0.4267 -0.1277  0.5501
 7036SOL    HW132832   0.649   7.953   7.091 -0.1351  0.0567 -1.4641
 7036SOL    HW232833   0.688   7.832   7.173 -2.4709  1.3524  1.7628
 7037SOL     OW32834   6.360   6.201   7.705  0.1518  0.1557 -0.1201
 7037SOL    HW132835   6.440   6.149   7.700  0.3350  0.4228  0.0131
 7037SOL    HW232836   6.387   6.289   7.680  0.1731  0.5384  1.1880
 7038SOL     OW32837   9.506   3.980   9.270 -0.5297 -0.1346  0.1597
 7038SOL    HW132838   9.535   4.011   9.356 -0.5645  0.6080 -0.0924
 7038SOL    HW232839   9.559   3.903   9.253  1.4951  1.3079 -0.3896
 7039SOL     OW32840   7.374  10.238  11.592 -0.9246 -0.7056 -0.2542
 7039SOL    HW132841   7.410  10.314  11.546 -1.0911 -0.3809  0.1463
 7039SOL    HW232842   7.421  10.235  11.675 -0.2530 -1.6056 -0.6520
 7040SOL     OW32843  10.051   0.169   9.221  0.5145  0.4236 -0.2188
 7040SOL    HW132844  10.144   0.192   9.221  0.1516  2.0139 -1.0117
 7040SOL    HW232845  10.049   0.077   9.195  1.9398 -0.1127  1.3749
 7041SOL     OW32846   0.652   3.090   9.648  0.5241  0.4656 -0.4177
 7041SOL    HW132847   0.622   2.999   9.650  3.0605 -0.4289 -0.0610
 7041SOL    HW232848   0.593   3.135   9.708  0.3905 -1.3376  0.8930
 7042SOL     OW32849   7.948   3.291  10.776  0.3217 -0.3199  0.3129
 7042SOL    HW132850   7.854   3.308  10.777  0.2993 -0.4127  0.0206
 7042SOL    HW232851   7.956   3.206  10.732  0.6709  0.6305 -1.5760
 7043SOL     OW32852  10.752   8.431  11.067 -0.3410 -0.2612  0.2560
 7043SOL    HW132853  10.766   8.465  10.979 -0.7861 -0.2978  0.1676
 7043SOL    HW232854  10.706   8.501  11.112 -1.3187 -0.7604  0.0566
 7044SOL     OW32855  10.918   5.903   1.465 -0.2805  1.0502 -0.3942
 7044SOL    HW132856  10.881   5.886   1.551 -0.6151  0.6417 -0.6143
 7044SOL    HW232857  10.947   5.995   1.468 -4.5728  2.6838 -1.3198
 7045SOL     OW32858   4.882   5.997   3.758 -0.3162  0.0893  0.0449
 7045SOL    HW132859   4.854   6.029   3.844  0.6443  0.7912  0.1112
 7045SOL    HW232860   4.977   5.987   3.766 -0.3867 -1.2305 -0.4929
 7046SOL     OW32861   0.416   6.984   3.910  0.2148 -0.7172 -0.0838
 7046SOL    HW132862   0.425   6.994   4.005  2.4024 -2.6750 -0.0005
 7046SOL    HW232863   0.363   6.906   3.899 -1.7246  0.5872 -0.5649
 7047SOL     OW32864   2.872   7.644  11.069 -0.2638 -0.2953 -0.4288
 7047SOL    HW132865   2.893   7.733  11.041 -0.4603  0.0366  0.4504
 7047SOL    HW232866   2.922   7.588  11.010 -0.3499  0.3882 -1.1681
 7048SOL     OW32867   6.848   1.540  11.047  0.2202 -0.1480 -0.3282
 7048SOL    HW132868   6.801   1.540  10.964  0.0559  1.4920 -0.2626
 7048SOL    HW232869   6.916   1.607  11.036  1.4822 -1.3078  0.1716
 7049SOL     OW32870   3.759   9.868   4.656  0.3049 -0.2184 -0.1744
 7049SOL    HW132871   3.676   9.861   4.609 -0.3032  0.1085  0.8321
 7049SOL    HW232872   3.780   9.961   4.654  0.9702 -0.3775 -0.9580
 7050SOL     OW32873   0.523   9.771   8.551 -0.0430  0.2713 -0.2419
 7050SOL    HW132874   0.451   9.822   8.589  0.9186  1.1357  0.4518
 7050SOL    HW232875   0.519   9.789   8.458 -3.4247 -3.0737 -1.0073
 7051SOL     OW32876   8.935   4.843   4.627  0.2040  0.2969  0.2117
 7051SOL    HW132877   8.897   4.763   4.593 -0.0838 -0.3332  1.9108
 7051SOL    HW232878   8.862   4.905   4.631  0.2895  0.4468 -0.5092
 7052SOL     OW32879   9.388   1.660   2.290  0.0611  0.2910 -0.0457
 7052SOL    HW132880   9.300   1.688   2.266 -0.0382 -1.1507 -1.5042
 7052SOL    HW232881   9.375   1.594   2.357  0.0627  0.3952  0.0581
 7053SOL     OW32882   4.966   5.520   9.901 -0.3280  0.5211 -0.0329
 7053SOL    HW132883   5.015   5.525   9.983 -0.9483 -0.0138  0.3788
 7053SOL    HW232884   4.876   5.542   9.926 -0.6584 -0.3467 -0.4396
 7054SOL     OW32885   8.394   0.756   9.904  0.0268  0.2354  0.6561
 7054SOL    HW132886   8.426   0.698   9.834  1.0803  1.6632 -0.0876
 7054SOL    HW232887   8.301   0.735   9.910  0.2490 -1.0910 -0.0223
 7055SOL     OW32888   0.594   6.339   7.847 -0.4930  0.2903 -0.0689
 7055SOL    HW132889   0.527   6.321   7.781  1.2082 -1.4319 -1.4247
 7055SOL    HW232890   0.616   6.253   7.882  1.4029  0.7439 -0.0776
 7056SOL     OW32891   9.772   5.195   9.326 -0.0070  0.2804  0.7225
 7056SOL    HW132892   9.857   5.238   9.317  0.6539 -0.5626  2.4131
 7056SOL    HW232893   9.769   5.132   9.254  0.8913  0.1713  0.7728
 7057SOL     OW32894   4.571   9.101  11.259 -0.0016  0.0142  0.1981
 7057SOL    HW132895   4.536   9.188  11.279 -2.4730 -0.7239 -0.4974
 7057SOL    HW232896   4.639   9.086  11.324 -0.1157  2.1146  0.8660
 7058SOL     OW32897  10.358   1.002  10.614 -0.0024 -0.3374 -0.0872
 7058SOL    HW132898  10.292   1.068  10.595  1.3293  1.1328  0.1924
 7058SOL    HW232899  10.363   0.949  10.535 -0.2332  0.6625 -0.7852
 7059SOL     OW32900   2.287   4.834  11.271 -0.0905 -0.5832 -0.4812
 7059SOL    HW132901   2.277   4.740  11.285 -0.1126 -0.7553 -1.5248
 7059SOL    HW232902   2.225   4.854  11.201 -0.0422  0.1989 -0.3105
 7060SOL     OW32903   9.430   2.185   8.204 -0.5759  0.0242  0.3801
 7060SOL    HW132904   9.507   2.140   8.238 -0.5517 -0.3392 -0.1519
 7060SOL    HW232905   9.374   2.115   8.171 -0.7471  0.3469 -0.0261
 7061SOL     OW32906   6.114   7.616   0.858 -0.0343 -0.5145  0.0925
 7061SOL    HW132907   6.080   7.646   0.774  0.1343  0.4026  0.3448
 7061SOL    HW232908   6.035   7.598   0.910 -0.2070  1.8130  0.7485
 7062SOL     OW32909   1.863   2.388   7.844  0.3239  0.3986 -0.6134
 7062SOL    HW132910   1.778   2.418   7.812 -0.2877  0.3081  0.8301
 7062SOL    HW232911   1.921   2.396   7.769 -1.0801 -0.0961 -1.8040
 7063SOL     OW32912   6.857   5.816   2.173  0.7778 -0.0038  1.0258
 7063SOL    HW132913   6.816   5.802   2.258  1.3085  1.5191  1.5802
 7063SOL    HW232914   6.822   5.900   2.144 -1.5428 -1.7257 -1.6181
 7064SOL     OW32915   7.929   1.413   2.977  0.4360  0.2428 -0.5448
 7064SOL    HW132916   7.970   1.458   3.051  0.4134  1.4602 -1.2426
 7064SOL    HW232917   7.998   1.358   2.941  0.4484 -0.3648  0.3706
 7065SOL     OW32918   4.719  11.097   7.231 -0.4450 -0.2749 -0.3918
 7065SOL    HW132919   4.626  11.087   7.211 -0.2404  0.4492 -1.8678
 7065SOL    HW232920   4.745  11.176   7.184  0.8127 -0.1799  0.4174
 7066SOL     OW32921   7.252   3.205   1.197 -0.1055 -0.3470 -0.4879
 7066SOL    HW132922   7.323   3.255   1.236 -0.8643  0.5755 -0.2700
 7066SOL    HW232923   7.268   3.209   1.103  0.0458 -0.0081 -0.4471
 7067SOL     OW32924   6.057   6.935   8.688  0.1417  0.1715 -0.0964
 7067SOL    HW132925   6.035   6.850   8.727  0.2848 -0.1193 -0.6433
 7067SOL    HW232926   5.972   6.971   8.661  0.0996  0.1125 -0.0446
 7068SOL     OW32927   1.544   3.746   6.452 -0.3316  0.3517  0.3538
 7068SOL    HW132928   1.580   3.670   6.497 -0.0553  0.7646  0.8423
 7068SOL    HW232929   1.591   3.820   6.490 -0.0153  0.6998 -0.6963
 7069SOL     OW32930   1.297   2.418   8.802  0.4706 -0.2188  0.7718
 7069SOL    HW132931   1.371   2.374   8.843  1.5930  0.3592 -0.5687
 7069SOL    HW232932   1.267   2.357   8.734  1.0011  0.3570 -0.0026
 7070SOL     OW32933   9.137   7.435   6.354 -0.3087  0.7893  0.5939
 7070SOL    HW132934   9.227   7.413   6.328  0.7578  2.8491  2.2626
 7070SOL    HW232935   9.098   7.471   6.275  0.5012  0.3648 -0.0191
 7071SOL     OW32936   0.245   4.604   3.080  0.3332 -0.1169  0.1423
 7071SOL    HW132937   0.272   4.536   3.142  1.1328 -0.2314 -0.3038
 7071SOL    HW232938   0.197   4.667   3.132 -0.3525 -0.9856  0.5862
 7072SOL     OW32939   0.115  11.199   4.283  0.0972  0.0539 -0.7713
 7072SOL    HW132940   0.145  11.130   4.343  0.1554 -0.0754 -0.9480
 7072SOL    HW232941   0.183  11.266   4.288 -0.2483  0.3686 -0.1484
 7073SOL     OW32942   6.778   8.033  10.943  0.2755 -0.4662  0.2884
 7073SOL    HW132943   6.839   8.064  10.875 -1.4020  1.4169 -0.4517
 7073SOL    HW232944   6.745   7.950  10.909  3.5125 -2.3909  1.4554
 7074SOL     OW32945   9.309   0.226   3.862 -0.0476  0.4223  0.0718
 7074SOL    HW132946   9.311   0.311   3.817 -0.6433  1.1221  1.3303
 7074SOL    HW232947   9.333   0.246   3.952 -2.4290 -0.3817  0.9396
 7075SOL     OW32948   7.421   8.152   3.231 -0.4914  0.0753  0.2190
 7075SOL    HW132949   7.416   8.085   3.162  1.0850 -0.3168  0.4578
 7075SOL    HW232950   7.509   8.143   3.267 -0.8196  1.2032  1.3677
 7076SOL     OW32951   6.890   1.205   7.271  0.0225  0.7469  0.8747
 7076SOL    HW132952   6.927   1.292   7.254  0.7977  0.4866  1.1402
 7076SOL    HW232953   6.917   1.186   7.361  4.1841 -1.7738 -0.6112
 7077SOL     OW32954   4.974   4.612   6.392 -0.2211 -0.0186 -0.0638
 7077SOL    HW132955   4.944   4.535   6.345  0.5174 -0.4553  0.1688
 7077SOL    HW232956   5.069   4.607   6.388 -0.1043 -0.5755  2.2804
 7078SOL     OW32957   2.433   0.329   8.029 -0.2561  0.3672  0.5034
 7078SOL    HW132958   2.449   0.236   8.020 -0.2230  0.2292  1.8462
 7078SOL    HW232959   2.340   0.340   8.009  0.0673  0.2951 -1.1893
 7079SOL     OW32960   9.279   2.796   2.580  0.1588 -0.5030  0.3383
 7079SOL    HW132961   9.344   2.775   2.647  1.3519  0.1917 -0.5614
 7079SOL    HW232962   9.259   2.888   2.593 -0.5251 -0.6687  0.4963
 7080SOL     OW32963   0.831  11.208   7.298  0.0315  0.1249  0.4161
 7080SOL    HW132964   0.761  11.272   7.305 -1.3519 -1.3121  0.1278
 7080SOL    HW232965   0.818  11.149   7.372 -0.0376 -1.0783 -0.5269
 7081SOL     OW32966   6.557   7.249   9.978 -0.1523  0.5102 -0.2155
 7081SOL    HW132967   6.620   7.242   9.907  0.3024 -0.2886  0.2455
 7081SOL    HW232968   6.505   7.326   9.957 -0.4442 -0.0575 -1.7493
 7082SOL     OW32969   2.272   3.162   8.262  0.4957 -0.4166  0.3824
 7082SOL    HW132970   2.192   3.132   8.220  0.3455 -0.9474  1.0213
 7082SOL    HW232971   2.314   3.082   8.293  0.3663 -0.0220  1.6413
 7083SOL     OW32972   8.429  10.803   0.099 -0.0138  0.0456 -0.1641
 7083SOL    HW132973   8.473  10.878   0.059 -0.5111  0.5489  0.2173
 7083SOL    HW232974   8.499  10.739   0.112  0.5433  0.6777  0.0699
 7084SOL     OW32975   6.433  10.173   1.091  0.2324 -0.2186  0.4905
 7084SOL    HW132976   6.358  10.232   1.086  0.4163 -0.0081  0.1091
 7084SOL    HW232977   6.400  10.094   1.132 -0.4616 -0.5569 -0.6914
 7085SOL     OW32978   6.381   6.817   3.584 -0.1769 -0.0919  0.2179
 7085SOL    HW132979   6.370   6.910   3.563 -0.4217 -0.5287 -1.7969
 7085SOL    HW232980   6.305   6.796   3.639 -1.0141  0.5352 -0.6670
 7086SOL     OW32981   7.169   1.078   6.307 -0.3648  0.0464  0.9829
 7086SOL    HW132982   7.178   1.036   6.222  2.6554  1.3028  0.5529
 7086SOL    HW232983   7.126   1.161   6.288  2.0468  1.2204  0.2346
 7087SOL     OW32984   2.832   4.982  11.600 -0.2662 -0.2724 -0.1470
 7087SOL    HW132985   2.772   4.934  11.543 -2.7096  0.9313  1.2757
 7087SOL    HW232986   2.813   4.951  11.688  0.3685  1.0131  0.4707
 7088SOL     OW32987   2.322   8.102   4.985  0.3350  0.9036  0.2498
 7088SOL    HW132988   2.411   8.083   5.015 -0.0760  0.6799  1.4092
 7088SOL    HW232989   2.324   8.086   4.891  1.0404 -1.0125  0.5349
 7089SOL     OW32990  10.907   4.565   6.777  0.0758  0.0136  0.2102
 7089SOL    HW132991  10.992   4.604   6.795  0.2112 -0.5405  0.8151
 7089SOL    HW232992  10.922   4.504   6.705  0.2879 -0.3788  0.5777
 7090SOL     OW32993  10.473   3.759  11.674  0.0398 -0.6392  0.0814
 7090SOL    HW132994  10.404   3.710  11.718 -1.2013  0.8191 -0.1646
 7090SOL    HW232995  10.463   3.736  11.582 -1.1288  0.7128 -0.1540
 7091SOL     OW32996   0.643  10.779   7.724  0.0756  0.6424  0.1279
 7091SOL    HW132997   0.654  10.867   7.759 -0.2660  1.1732 -1.0325
 7091SOL    HW232998   0.552  10.777   7.692  0.3429  0.1832 -0.6510
 7092SOL     OW32999  10.222   2.516  10.850  0.0688  0.3764  0.0881
 7092SOL    HW133000  10.189   2.426  10.855 -0.4093  0.5605  0.2787
 7092SOL    HW233001  10.220   2.537  10.757  2.2835 -0.5748 -0.2607
 7093SOL     OW33002   4.217   0.638   6.179  0.1203  0.4433 -0.1397
 7093SOL    HW133003   4.272   0.586   6.120  1.5627  0.3906  1.1749
 7093SOL    HW233004   4.135   0.650   6.131  0.8448 -0.4822 -1.7014
 7094SOL     OW33005   8.282   7.647   0.005 -0.3150  0.1384 -0.1988
 7094SOL    HW133006   8.196   7.606   0.003  0.0087 -0.5486 -0.5643
 7094SOL    HW233007   8.284   7.704  -0.072 -0.7525  0.8233  0.2891
 7095SOL     OW33008   7.948   5.441   4.867  0.4787  0.0470  0.5997
 7095SOL    HW133009   8.033   5.415   4.830  0.6992  1.1631  0.2780
 7095SOL    HW233010   7.911   5.360   4.901  0.9105 -0.7869 -0.8085
 7096SOL     OW33011   3.393   8.496   9.341 -0.2547 -0.4238  0.0946
 7096SOL    HW133012   3.350   8.429   9.287 -0.5588  0.7649 -1.2036
 7096SOL    HW233013   3.399   8.573   9.283  1.2255  0.2781  1.1251
 7097SOL     OW33014   2.383   9.417   9.713  0.3955  0.2321  0.4558
 7097SOL    HW133015   2.431   9.422   9.630 -0.0899 -0.9691  0.0894
 7097SOL    HW233016   2.324   9.493   9.711  0.4605  0.2691 -0.2600
 7098SOL     OW33017   7.210   5.979   8.182 -0.2052 -0.0616 -0.3668
 7098SOL    HW133018   7.233   6.023   8.100  0.7705 -0.7231 -0.4645
 7098SOL    HW233019   7.241   6.038   8.250  1.2133 -0.6317 -0.4970
 7099SOL     OW33020   3.470  10.078  10.467 -0.1909  0.4534 -0.2158
 7099SOL    HW133021   3.526  10.014  10.422  0.3962  1.3666 -0.8135
 7099SOL    HW233022   3.475  10.054  10.559  0.6386  0.1053 -0.3438
 7100SOL     OW33023   8.340   2.307  11.061  0.3538  0.5505  0.0337
 7100SOL    HW133024   8.373   2.291  10.973  0.5895  1.7119 -0.1056
 7100SOL    HW233025   8.269   2.370  11.048 -0.0553  0.2101  0.6080
 7101SOL     OW33026   1.900   9.438  11.397 -0.4354  0.3125 -0.1751
 7101SOL    HW133027   1.946   9.409  11.476 -0.0406  1.3523 -0.0080
 7101SOL    HW233028   1.967   9.485  11.347 -0.8839  0.3329 -0.7618
 7102SOL     OW33029   4.136   1.485   2.141  0.0437  0.6137 -0.5261
 7102SOL    HW133030   4.176   1.571   2.152  2.2796 -0.5403  1.0316
 7102SOL    HW233031   4.181   1.447   2.066 -0.6456  0.6222 -0.9523
 7103SOL     OW33032   3.554   9.114  11.881 -0.1911 -0.0423  0.1098
 7103SOL    HW133033   3.510   9.110  11.966  0.3497  0.1333  0.4027
 7103SOL    HW233034   3.522   9.037  11.834 -1.2539  0.3919  0.0935
 7104SOL     OW33035   0.273   6.486   8.373 -0.2938 -0.3046  0.1958
 7104SOL    HW133036   0.238   6.541   8.304  2.2617 -0.8065 -1.6416
 7104SOL    HW233037   0.259   6.536   8.453  0.2877  2.1924 -1.1711
 7105SOL     OW33038  10.311  10.572   9.246  0.0019 -0.1614 -0.1030
 7105SOL    HW133039  10.400  10.569   9.212  0.8739  0.6388  1.9598
 7105SOL    HW233040  10.302  10.491   9.296  1.0495  1.3935  2.8942
 7106SOL     OW33041  11.121   9.849   3.142 -0.0783  0.5086  1.0406
 7106SOL    HW133042  11.107   9.874   3.233  0.5000 -0.4861  1.4098
 7106SOL    HW233043  11.211   9.873   3.123 -0.4097  1.3846  0.4922
 7107SOL     OW33044   9.691   0.357   9.739  0.2310 -0.0914 -0.2498
 7107SOL    HW133045   9.768   0.315   9.779  0.8173 -0.5224 -1.7231
 7107SOL    HW233046   9.617   0.307   9.772  0.7432 -0.8149 -0.1482
 7108SOL     OW33047   7.556   0.701   9.766 -0.5276  0.2265  0.0798
 7108SOL    HW133048   7.478   0.734   9.811  0.7297  0.1608  2.4972
 7108SOL    HW233049   7.569   0.761   9.693 -3.8601 -0.8556 -1.6033
 7109SOL     OW33050   0.090   0.007   6.426 -0.7215 -0.2664  0.1030
 7109SOL    HW133051   0.152  -0.032   6.364 -2.1512 -1.0558 -0.8581
 7109SOL    HW233052   0.043  -0.067   6.463 -1.8056  0.3822  0.0576
 7110SOL     OW33053   3.410   0.268   1.150 -0.1102  0.0373  0.0993
 7110SOL    HW133054   3.462   0.191   1.130 -1.2348 -0.1325 -2.4800
 7110SOL    HW233055   3.319   0.239   1.140 -0.5491  1.8643 -1.9329
 7111SOL     OW33056   9.102  11.216   1.035  0.3534  0.1091  0.2607
 7111SOL    HW133057   9.011  11.216   1.006  0.3272  1.7761  0.2588
 7111SOL    HW233058   9.099  11.254   1.123  0.9245 -0.9370  0.7516
 7112SOL     OW33059   9.903   6.352   0.117  0.5859  0.3598 -0.2569
 7112SOL    HW133060   9.841   6.358   0.044  0.2772 -0.9709 -0.1418
 7112SOL    HW233061   9.865   6.407   0.185 -0.2010  0.0106 -0.3954
 7113SOL     OW33062   3.828   6.461   2.340 -0.0220 -0.4004  0.0062
 7113SOL    HW133063   3.876   6.517   2.401  0.5152 -1.9868  1.1227
 7113SOL    HW233064   3.736   6.471   2.365  0.0202  0.2905 -0.0933
 7114SOL     OW33065  11.476   4.596   9.316 -0.0648  0.1596  0.3122
 7114SOL    HW133066  11.567   4.618   9.298  0.3472 -0.8061  1.1875
 7114SOL    HW233067  11.458   4.634   9.402  0.0028 -1.0258  0.8616
 7115SOL     OW33068   2.924  11.236   9.311 -0.0078 -0.7516  0.6307
 7115SOL    HW133069   3.011  11.200   9.299  0.7273  0.1566  2.6545
 7115SOL    HW233070   2.874  11.166   9.353 -0.2616 -1.2585 -0.4952
 7116SOL     OW33071   9.542   9.609  11.635  0.7449 -0.3860  0.2835
 7116SOL    HW133072   9.575   9.548  11.702 -0.4950  0.2231  1.5074
 7116SOL    HW233073   9.483   9.556  11.582  1.0655 -0.6736  0.2081
 7117SOL     OW33074   8.262   0.230   4.938 -0.2051  0.2729  0.4244
 7117SOL    HW133075   8.195   0.298   4.936  0.1214  0.6112  0.7934
 7117SOL    HW233076   8.311   0.242   4.856 -1.8932 -1.3284 -0.9076
 7118SOL     OW33077   8.368   3.067   7.043 -0.0743 -0.4206 -0.1471
 7118SOL    HW133078   8.313   3.040   7.117 -0.7866 -0.5110 -0.7014
 7118SOL    HW233079   8.331   3.151   7.015 -1.1996 -1.4079 -1.7713
 7119SOL     OW33080  10.272   1.843   7.705  0.5993 -0.1719 -0.1554
 7119SOL    HW133081  10.356   1.863   7.746 -0.1694 -1.2345  2.0894
 7119SOL    HW233082  10.221   1.800   7.774 -0.8590 -1.9488 -2.2229
 7120SOL     OW33083   5.932   4.852   5.921  0.0117 -0.1624  0.5766
 7120SOL    HW133084   5.885   4.880   5.843 -0.2521 -0.8971  0.4621
 7120SOL    HW233085   5.940   4.757   5.911  1.4933 -0.0635  0.6069
 7121SOL     OW33086  11.446  11.736   6.578  0.2627  0.9963  0.2526
 7121SOL    HW133087  11.368  11.712   6.628  1.5969  1.4076  2.6566
 7121SOL    HW233088  11.412  11.761   6.492 -2.0055 -1.0054  0.4539
 7122SOL     OW33089   4.090   1.237   4.984  0.0337  0.4211 -0.0561
 7122SOL    HW133090   4.017   1.188   4.946  0.4687 -1.2678  1.1689
 7122SOL    HW233091   4.075   1.327   4.957 -1.6662 -0.1272 -1.0946
 7123SOL     OW33092   4.617   2.721   4.994  0.2421  0.2481  0.0237
 7123SOL    HW133093   4.711   2.727   5.008  0.4985 -0.0596 -1.4229
 7123SOL    HW233094   4.579   2.775   5.063  1.4728  0.4423  0.5740
 7124SOL     OW33095   5.342   0.961  11.044 -0.4462  0.9350  0.3385
 7124SOL    HW133096   5.287   0.884  11.032  0.0941  0.5468  0.3011
 7124SOL    HW233097   5.281   1.034  11.045 -0.9797  0.4960  0.5045
 7125SOL     OW33098   5.747   5.307   8.978 -0.1171  0.4701  0.2527
 7125SOL    HW133099   5.704   5.288   9.062  0.4337  0.2887  0.4982
 7125SOL    HW233100   5.825   5.251   8.978  1.0417  1.9964  0.5742
 7126SOL     OW33101   1.803   5.547  10.079 -0.1610 -0.1253 -1.1583
 7126SOL    HW133102   1.830   5.524  10.168 -1.0245  1.7331 -0.3673
 7126SOL    HW233103   1.804   5.464  10.031  0.5104 -1.1316  0.5227
 7127SOL     OW33104   0.447   4.925   5.433  0.6543  0.7802  0.5000
 7127SOL    HW133105   0.389   4.990   5.473 -1.2979 -1.1664  1.0480
 7127SOL    HW233106   0.432   4.935   5.339 -0.9334  0.0614  0.6409
 7128SOL     OW33107   2.431   5.260   6.462  0.2367 -0.4985 -0.5088
 7128SOL    HW133108   2.363   5.291   6.402 -1.6039 -0.1276  1.6431
 7128SOL    HW233109   2.479   5.339   6.488  0.3834 -0.5187 -0.7160
 7129SOL     OW33110   9.743   4.335   4.608 -0.2549 -0.0230 -0.2280
 7129SOL    HW133111   9.707   4.266   4.552  1.3516 -0.2946 -0.9707
 7129SOL    HW233112   9.829   4.355   4.571 -0.0730  1.3794  0.8274
 7130SOL     OW33113  11.172   2.821   9.509 -0.1904 -0.9114  0.3233
 7130SOL    HW133114  11.101   2.840   9.571 -0.1588  0.1399  0.0580
 7130SOL    HW233115  11.226   2.757   9.554 -0.2917 -0.3353  1.3043
 7131SOL     OW33116   1.118   3.801   0.681  0.0522 -0.0852  0.6382
 7131SOL    HW133117   1.074   3.731   0.730  0.8804 -1.8427 -1.0153
 7131SOL    HW233118   1.106   3.777   0.589  1.3988  1.3176  0.0617
 7132SOL     OW33119   8.211   1.364   0.315  0.1413 -0.0637  0.2109
 7132SOL    HW133120   8.125   1.325   0.325  0.4276 -0.5606  0.8575
 7132SOL    HW233121   8.246   1.327   0.234 -0.2296  0.1078 -0.0297
 7133SOL     OW33122   3.862   5.962   5.096 -0.0233  0.7173  0.2086
 7133SOL    HW133123   3.808   6.036   5.125 -1.0444 -0.6837  2.0299
 7133SOL    HW233124   3.915   5.940   5.173 -2.2488 -2.6166  0.9664
 7134SOL     OW33125   8.352  10.072   5.668  0.5619 -0.0857 -0.0464
 7134SOL    HW133126   8.320  10.155   5.632  1.3959  0.1102 -0.3795
 7134SOL    HW233127   8.445  10.089   5.686  0.2516 -0.2686  1.9324
 7135SOL     OW33128   9.529   3.493   7.692  0.2063 -0.0431 -0.1756
 7135SOL    HW133129   9.434   3.481   7.700  0.5033 -2.2862  0.7773
 7135SOL    HW233130   9.561   3.489   7.782  1.2791 -0.0506 -0.5457
 7136SOL     OW33131   7.133   9.486   1.519  0.0053  0.3336  0.3732
 7136SOL    HW133132   7.186   9.558   1.552 -0.1633  1.8864 -2.4058
 7136SOL    HW233133   7.196   9.427   1.478 -0.0212 -0.2790  1.1875
 7137SOL     OW33134   3.324   9.466   5.581  0.2220  0.8195  0.3106
 7137SOL    HW133135   3.389   9.459   5.511  0.0208  2.6167 -0.1120
 7137SOL    HW233136   3.364   9.525   5.645  0.1330 -0.2908  1.4203
 7138SOL     OW33137   0.788   5.856   4.602  0.0801  0.4389  0.2693
 7138SOL    HW133138   0.783   5.940   4.647 -0.7215  0.2479  0.5435
 7138SOL    HW233139   0.868   5.815   4.637 -0.8350  0.0324  2.0019
 7139SOL     OW33140   1.103   4.829   4.164  0.1258 -0.0190 -0.5026
 7139SOL    HW133141   1.158   4.904   4.138  1.8078 -1.0599 -0.1059
 7139SOL    HW233142   1.138   4.755   4.114 -0.1838 -0.9460  0.6129
 7140SOL     OW33143   9.910   3.306  10.995 -0.0767 -0.2772  0.1194
 7140SOL    HW133144   9.834   3.297  10.937  2.1052 -2.4149 -2.6931
 7140SOL    HW233145   9.942   3.216  11.006  2.1799  0.5743  1.0516
 7141SOL     OW33146   0.050   5.590   8.472 -0.2835 -0.0916 -0.0791
 7141SOL    HW133147   0.142   5.596   8.445  0.0384 -0.9333  0.8043
 7141SOL    HW233148   0.028   5.497   8.463 -0.9605  0.0522  0.0313
 7142SOL     OW33149   8.368   1.325  11.649  0.1437  0.1657  0.0944
 7142SOL    HW133150   8.402   1.298  11.734 -1.0012 -0.4675  0.3734
 7142SOL    HW233151   8.300   1.260  11.629 -1.3479  1.7207 -0.1269
 7143SOL     OW33152   0.723  10.452  10.616  0.2523  0.2782 -0.7052
 7143SOL    HW133153   0.713  10.434  10.709 -0.3460 -0.3620 -0.8798
 7143SOL    HW233154   0.739  10.546  10.611 -0.9060  0.5342 -0.0270
 7144SOL     OW33155   9.250   1.520   7.921  0.1522 -0.2019 -0.4995
 7144SOL    HW133156   9.331   1.571   7.928 -0.2123  0.1900  1.4767
 7144SOL    HW233157   9.280   1.429   7.920  0.6383 -0.0674  0.3836
 7145SOL     OW33158   5.175   8.700   0.360 -0.4051  0.0641  0.0994
 7145SOL    HW133159   5.222   8.660   0.432 -0.3215  0.2922  0.1747
 7145SOL    HW233160   5.117   8.764   0.401  0.9944  1.5558 -0.1247
 7146SOL     OW33161   5.628   6.840  11.777 -0.4575 -0.5978  0.1378
 7146SOL    HW133162   5.639   6.887  11.860 -0.0297 -1.2979  0.4902
 7146SOL    HW233163   5.605   6.908  11.713  0.3210  0.1084  0.5914
 7147SOL     OW33164   2.117   0.755   1.404 -0.3533 -0.4824 -0.0799
 7147SOL    HW133165   2.037   0.764   1.457 -1.0225  1.3041 -1.3165
 7147SOL    HW233166   2.087   0.765   1.314  1.1127 -1.0310 -0.6475
 7148SOL     OW33167   7.411   2.820   4.915  0.0453 -0.3148  0.2087
 7148SOL    HW133168   7.362   2.854   4.840 -2.7320 -0.6304  1.7212
 7148SOL    HW233169   7.453   2.741   4.882  0.6708  0.6827 -1.5188
 7149SOL     OW33170   2.522   1.562   2.651  0.0310 -0.0643  0.1649
 7149SOL    HW133171   2.427   1.563   2.642 -0.0894 -0.5857  1.1437
 7149SOL    HW233172   2.546   1.654   2.665 -0.5597 -0.1075  1.7472
 7150SOL     OW33173  10.785   2.809   8.629  0.1440  0.2346 -0.2888
 7150SOL    HW133174  10.784   2.732   8.573  1.0552  0.0492 -0.0564
 7150SOL    HW233175  10.749   2.778   8.713  0.7019  0.0075 -0.1308
 7151SOL     OW33176   4.527   9.361  11.603  0.5907  0.7290  0.2204
 7151SOL    HW133177   4.592   9.360  11.673  0.1333  0.0097  0.6384
 7151SOL    HW233178   4.457   9.417  11.636 -0.1461 -0.5313  0.8207
 7152SOL     OW33179   7.327  10.094   5.478  0.1946  0.7562 -0.7683
 7152SOL    HW133180   7.274  10.064   5.552  0.4863 -0.1336 -0.9142
 7152SOL    HW233181   7.319  10.189   5.481  0.1566  0.7391  0.3772
 7153SOL     OW33182   6.779   3.348  10.265 -0.5561  0.0318  0.8011
 7153SOL    HW133183   6.821   3.434  10.264  0.2367 -0.3325 -0.8291
 7153SOL    HW233184   6.714   3.353  10.195 -0.5331 -0.6743  0.7237
 7154SOL     OW33185   6.403   2.344   2.544  0.1441  0.1978  0.5395
 7154SOL    HW133186   6.380   2.425   2.589  0.4666  0.6907 -0.1674
 7154SOL    HW233187   6.373   2.274   2.602  0.4481  0.8196  1.4587
 7155SOL     OW33188   6.753   9.944  10.066  0.2793  0.1887  0.3874
 7155SOL    HW133189   6.793   9.984  10.143  0.3724  1.3113 -0.2154
 7155SOL    HW233190   6.816   9.959   9.996 -0.3290  0.2432 -0.1554
 7156SOL     OW33191  10.583   1.162   3.306 -0.3214 -0.7923  0.0314
 7156SOL    HW133192  10.628   1.241   3.276 -0.9347 -0.5096 -0.1533
 7156SOL    HW233193  10.626   1.091   3.258  2.6100 -1.0356  2.6925
 7157SOL     OW33194   1.118   0.075  11.572 -0.2182  0.0440 -0.4392
 7157SOL    HW133195   1.085   0.144  11.630  0.9085  0.5583 -0.3630
 7157SOL    HW233196   1.117  -0.004  11.626  1.0484  0.5670  0.4052
 7158SOL     OW33197  10.352  11.106   3.675  0.0014 -0.2846  0.0951
 7158SOL    HW133198  10.418  11.174   3.681 -0.5084  0.1934  0.3839
 7158SOL    HW233199  10.279  11.138   3.728 -0.5344 -0.7155 -0.3678
 7159SOL     OW33200   4.793  10.960   6.143  0.1287  0.6145 -0.3102
 7159SOL    HW133201   4.823  11.050   6.154 -0.7453  0.9559 -0.5524
 7159SOL    HW233202   4.841  10.928   6.067  2.1084  0.0969  1.0921
 7160SOL     OW33203  10.982   9.215   7.997  0.1842  0.0118 -0.3136
 7160SOL    HW133204  10.931   9.269   8.056  0.9709 -0.3337  0.7048
 7160SOL    HW233205  11.016   9.144   8.051  0.6398 -0.5130 -1.2473
 7161SOL     OW33206   8.164   5.331   4.266  0.4012 -0.3280  0.3061
 7161SOL    HW133207   8.087   5.276   4.276 -0.3450  0.6653  0.1660
 7161SOL    HW233208   8.130   5.417   4.241  1.6373 -0.4097 -2.0250
 7162SOL     OW33209   7.269   1.647   0.308 -0.1480  0.3398  0.1231
 7162SOL    HW133210   7.191   1.593   0.308  0.7123 -0.9690 -0.3905
 7162SOL    HW233211   7.275   1.680   0.219 -0.2982  0.7267  0.2546
 7163SOL     OW33212   0.012  10.693   5.262  0.5010  0.6244  0.4106
 7163SOL    HW133213  -0.066  10.687   5.317  0.0230  1.7884 -0.1198
 7163SOL    HW233214   0.042  10.783   5.273  0.1973  0.9944 -1.4773
 7164SOL     OW33215  11.682   8.600   3.104 -0.8686  0.2357 -0.0925
 7164SOL    HW133216  11.663   8.643   3.020 -1.7702 -0.6119 -0.3451
 7164SOL    HW233217  11.613   8.632   3.163 -0.9134 -0.0371  0.0065
 7165SOL     OW33218   9.553   9.927   8.582  0.3305 -0.3335 -0.0294
 7165SOL    HW133219   9.599  10.004   8.548  0.6448  0.8807  2.8376
 7165SOL    HW233220   9.542   9.870   8.506  1.5585  1.8061 -1.9412
 7166SOL     OW33221   4.735   8.810   4.215 -0.3104 -0.0223  0.3133
 7166SOL    HW133222   4.692   8.775   4.293 -0.1485 -0.2097  0.3182
 7166SOL    HW233223   4.810   8.859   4.250  0.7221 -1.4545  0.2033
 7167SOL     OW33224   4.403   4.215   5.067  0.9051 -0.2282  0.0767
 7167SOL    HW133225   4.445   4.287   5.019  2.2623 -1.4702 -0.6836
 7167SOL    HW233226   4.346   4.259   5.131  1.5333  1.5091 -0.4904
 7168SOL     OW33227   2.190   0.002   2.398  0.5891 -0.2426  0.0728
 7168SOL    HW133228   2.174   0.084   2.444  0.5934 -0.3367  0.2471
 7168SOL    HW233229   2.214  -0.060   2.468 -0.8566 -0.7677  0.1348
 7169SOL     OW33230   0.196   3.506  10.475 -0.3268 -0.0056 -0.2740
 7169SOL    HW133231   0.206   3.452  10.396 -2.8292 -3.5238  1.5302
 7169SOL    HW233232   0.113   3.552  10.462  1.0623  2.4748 -1.1341
 7170SOL     OW33233   3.656   1.797   6.152  0.1532 -0.4206  0.0087
 7170SOL    HW133234   3.570   1.816   6.187 -1.3915 -1.8627 -2.6604
 7170SOL    HW233235   3.644   1.797   6.057  3.2344 -0.1304 -0.4885
 7171SOL     OW33236  10.761   2.647   7.345  0.3811 -0.3127 -0.1786
 7171SOL    HW133237  10.787   2.586   7.276 -2.0944 -1.2954 -0.3188
 7171SOL    HW233238  10.796   2.732   7.316  1.1317 -1.0676 -1.5935
 7172SOL     OW33239  11.313   3.803   8.434  0.5636  0.0587 -0.4996
 7172SOL    HW133240  11.299   3.889   8.395  0.0479 -0.2254 -0.9544
 7172SOL    HW233241  11.230   3.782   8.476  1.4976  0.9351  1.9469
 7173SOL     OW33242   6.432   5.969   1.624 -0.1893  0.2258 -0.3905
 7173SOL    HW133243   6.443   5.984   1.718 -1.7087  0.6735 -0.2437
 7173SOL    HW233244   6.518   5.985   1.586  1.1877 -2.6289  1.2094
 7174SOL     OW33245   3.789   5.786   3.445  0.4143 -0.6707  0.2966
 7174SOL    HW133246   3.866   5.791   3.501  0.9632  0.0408 -0.4967
 7174SOL    HW233247   3.819   5.819   3.360 -0.8601  0.0120  0.0845
 7175SOL     OW33248   7.901   0.647   7.303  0.2266 -0.1194 -0.0266
 7175SOL    HW133249   7.912   0.675   7.394  3.4079  0.6723 -0.5200
 7175SOL    HW233250   7.897   0.728   7.253  0.4641 -0.5464 -0.7575
 7176SOL     OW33251   5.098   1.504   7.302 -0.6035 -0.1172  0.3598
 7176SOL    HW133252   5.168   1.494   7.238 -0.4913  0.5636  0.3800
 7176SOL    HW233253   5.084   1.415   7.335  1.6047  0.0083  1.8048
 7177SOL     OW33254   0.238   6.401   5.978 -0.0564 -0.0472  0.2186
 7177SOL    HW133255   0.263   6.378   6.067  1.7878  1.0692  0.0558
 7177SOL    HW233256   0.253   6.321   5.927  1.0039 -0.0794  0.5556
 7178SOL     OW33257   2.504   8.711   5.552 -0.2633 -0.3849  0.0596
 7178SOL    HW133258   2.473   8.623   5.576 -1.1307 -0.1751 -0.2431
 7178SOL    HW233259   2.594   8.698   5.524 -0.3935 -1.1910 -0.0217
 7179SOL     OW33260   9.115  10.544  11.538 -0.0366 -0.0194  0.3831
 7179SOL    HW133261   9.092  10.470  11.482  2.1945 -0.5199  0.0266
 7179SOL    HW233262   9.193  10.582  11.498 -0.1258  1.4634  1.5180
 7180SOL     OW33263   0.439   7.426  10.385  0.1269  0.7858  0.2073
 7180SOL    HW133264   0.397   7.421  10.300 -0.8131 -1.0061  0.7324
 7180SOL    HW233265   0.408   7.510  10.422 -0.0777  1.1954 -0.8684
 7181SOL     OW33266  11.864  11.127   6.866 -0.0349  0.1077 -0.3881
 7181SOL    HW133267  11.817  11.049   6.838  1.6459 -1.9106  2.0094
 7181SOL    HW233268  11.801  11.174   6.922 -0.4330 -0.5933 -0.2328
 7182SOL     OW33269   7.474   1.612   7.008  0.0024  0.3635 -0.4502
 7182SOL    HW133270   7.459   1.649   7.095 -0.5289  0.1254 -0.4408
 7182SOL    HW233271   7.568   1.592   7.007 -0.3906 -1.8602  0.9628
 7183SOL     OW33272   5.275   6.967   8.526  0.0214 -0.0530  0.2784
 7183SOL    HW133273   5.201   7.001   8.576 -1.0911 -0.8029 -0.7847
 7183SOL    HW233274   5.267   6.872   8.534 -0.1391 -0.1927 -1.2046
 7184SOL     OW33275   2.405   1.564   4.572  0.0877  0.2197 -0.2314
 7184SOL    HW133276   2.344   1.565   4.498  0.8708 -0.2152 -0.8849
 7184SOL    HW233277   2.447   1.479   4.569  3.9838  1.9594 -2.5106
 7185SOL     OW33278   0.698   6.103   1.718  0.3735 -0.3597  0.6856
 7185SOL    HW133279   0.717   6.104   1.625 -0.0455  0.8281  0.5960
 7185SOL    HW233280   0.673   6.012   1.736  0.5904 -0.6323 -0.3242
 7186SOL     OW33281   2.428   9.567   7.662 -0.2224 -0.2860  0.3368
 7186SOL    HW133282   2.501   9.619   7.627  0.5787 -1.0661  0.8149
 7186SOL    HW233283   2.371   9.554   7.586  0.8067 -0.8028 -0.3841
 7187SOL     OW33284   0.471   5.385   9.036 -0.1792  0.3360 -0.2923
 7187SOL    HW133285   0.483   5.293   9.013 -0.7502  0.3748 -0.7847
 7187SOL    HW233286   0.514   5.433   8.965  1.5532  0.4584  0.7980
 7188SOL     OW33287   2.986   2.905  10.771 -0.4527 -0.8043  0.8282
 7188SOL    HW133288   2.939   2.929  10.691  0.6425  1.2648  0.7618
 7188SOL    HW233289   2.976   2.810  10.776 -0.1152 -1.0842 -2.0574
 7189SOL     OW33290   7.476   3.867   4.743  0.0033  0.3120 -0.5447
 7189SOL    HW133291   7.539   3.869   4.671  2.4364 -0.3472  1.3996
 7189SOL    HW233292   7.530   3.860   4.822 -2.5184  0.6772  1.3593
 7190SOL     OW33293   0.436   9.494   6.473 -0.0230  0.5799  0.1765
 7190SOL    HW133294   0.387   9.481   6.554  0.1724  1.7893  0.5128
 7190SOL    HW233295   0.375   9.539   6.415  1.0544  3.5125  1.1272
 7191SOL     OW33296   0.081   7.267   7.774 -0.0301  0.1903  0.0375
 7191SOL    HW133297   0.138   7.216   7.830 -0.0776  1.7929  1.6334
 7191SOL    HW233298   0.104   7.240   7.685  0.7573 -1.6769  0.7660
 7192SOL     OW33299   9.505   6.988   4.131  0.3930 -0.0199 -0.4934
 7192SOL    HW133300   9.556   7.070   4.126  0.2501  0.0552 -0.7549
 7192SOL    HW233301   9.433   7.002   4.070 -0.5496  0.2894  0.6714
 7193SOL     OW33302   2.551   1.651   7.527 -0.4022 -0.4897 -0.4872
 7193SOL    HW133303   2.575   1.700   7.606 -1.2805 -0.1813 -0.3990
 7193SOL    HW233304   2.614   1.679   7.461  1.0953 -1.6337  0.4028
 7194SOL     OW33305   3.511   3.199   6.338  0.6627  0.1692  0.2349
 7194SOL    HW133306   3.486   3.115   6.298 -1.7882  1.0602 -0.2537
 7194SOL    HW233307   3.593   3.222   6.295 -0.6334 -0.0825 -2.6558
 7195SOL     OW33308   2.676   6.870  11.086 -0.1884  0.1655  0.1407
 7195SOL    HW133309   2.636   6.902  11.167 -1.4821  1.7897 -1.0569
 7195SOL    HW233310   2.626   6.913  11.016  1.1499 -0.8454 -1.5240
 7196SOL     OW33311   7.858   8.615   6.366  0.2164 -0.2704 -0.4396
 7196SOL    HW133312   7.853   8.520   6.353  2.4698 -0.5157  0.0384
 7196SOL    HW233313   7.854   8.651   6.278 -0.8896 -0.7620 -0.6147
 7197SOL     OW33314   9.450   2.681   9.766  0.5423  0.4769 -0.3365
 7197SOL    HW133315   9.434   2.607   9.707 -1.9627 -0.8358  1.7299
 7197SOL    HW233316   9.529   2.657   9.814  0.2178 -0.5114 -0.2696
 7198SOL     OW33317   3.662   4.234   5.552  0.0455  0.1993  0.4884
 7198SOL    HW133318   3.591   4.263   5.609 -0.6650 -2.3439  1.0054
 7198SOL    HW233319   3.630   4.249   5.463 -0.2891  0.9422  0.7287
 7199SOL     OW33320   0.883  11.956   2.905  0.1666 -0.2666  0.5524
 7199SOL    HW133321   0.917  11.906   2.831 -0.6389 -0.9376  0.6203
 7199SOL    HW233322   0.943  12.030   2.914 -1.0225  1.2001 -2.2799
 7200SOL     OW33323   5.052   0.784   2.189 -0.0302  0.5010  0.3879
 7200SOL    HW133324   5.134   0.792   2.142  1.4287 -1.0758  2.4843
 7200SOL    HW233325   5.022   0.695   2.170 -0.6953  0.6895  0.5107
 7201SOL     OW33326   1.346   3.573   1.688 -0.4975 -0.5641  0.4277
 7201SOL    HW133327   1.340   3.638   1.758 -0.3304  0.0142 -0.0890
 7201SOL    HW233328   1.255   3.560   1.661 -0.6520 -1.4024  1.2941
 7202SOL     OW33329   7.937   9.995  11.848 -0.6742 -0.4772 -0.4081
 7202SOL    HW133330   7.854   9.987  11.801 -0.6230  0.2142 -0.6238
 7202SOL    HW233331   7.938   9.919  11.907 -1.0131 -1.0314 -1.0920
 7203SOL     OW33332   3.244  11.858   6.938  0.1132  0.0461  0.0702
 7203SOL    HW133333   3.319  11.909   6.968  0.6665 -1.0644  0.6533
 7203SOL    HW233334   3.283  11.782   6.895 -0.6169 -1.3840  1.8215
 7204SOL     OW33335   2.728   6.593  11.230 -0.0960  0.1746  0.1985
 7204SOL    HW133336   2.813   6.557  11.258 -0.0278  0.5560  0.5050
 7204SOL    HW233337   2.751   6.670  11.178 -0.2560  0.9205  1.1914
 7205SOL     OW33338   6.779  10.628   8.823 -0.3187  0.3186 -0.4180
 7205SOL    HW133339   6.865  10.592   8.798 -1.6404 -2.0937 -1.9924
 7205SOL    HW233340   6.717  10.571   8.777 -2.7799  1.5515  1.2392
 7206SOL     OW33341  10.563   3.255   8.130 -0.5512  0.0507 -0.1148
 7206SOL    HW133342  10.486   3.300   8.096 -0.0080  0.9891 -0.1401
 7206SOL    HW233343  10.600   3.315   8.194 -0.5761 -0.9615  0.8851
 7207SOL     OW33344   2.718  10.988   9.716 -0.4640 -0.0806 -0.3199
 7207SOL    HW133345   2.705  10.896   9.739 -0.2580  0.4932  2.4494
 7207SOL    HW233346   2.813  10.999   9.713 -0.3936  0.5986  2.2965
 7208SOL     OW33347  11.884   5.681   3.151  0.0204  0.4701  0.1364
 7208SOL    HW133348  11.913   5.713   3.066  2.4034 -0.1733  0.6286
 7208SOL    HW233349  11.856   5.591   3.135  0.3648  0.3836  0.0244
 7209SOL     OW33350   2.116  11.047   0.452  0.2801 -0.5519  0.1049
 7209SOL    HW133351   2.197  11.077   0.494 -0.6649  1.0892  0.8758
 7209SOL    HW233352   2.081  11.126   0.410 -0.8521 -1.2739 -0.3497
 7210SOL     OW33353  11.846  11.938  11.618 -0.0420  0.6668  0.2961
 7210SOL    HW133354  11.904  11.992  11.565 -0.0888  0.8548  0.4391
 7210SOL    HW233355  11.760  11.947  11.576  0.1234 -0.0150 -0.2261
 7211SOL     OW33356   0.202  10.176   8.682 -0.3016  0.1716 -0.0438
 7211SOL    HW133357   0.131  10.147   8.740 -0.0748  1.1027  0.7186
 7211SOL    HW233358   0.160  10.236   8.620 -0.9024 -2.1336 -2.0370
 7212SOL     OW33359   1.022   4.650   2.403  0.2088  0.4615 -0.1016
 7212SOL    HW133360   1.040   4.740   2.378 -1.0480  1.0833  1.1279
 7212SOL    HW233361   0.928   4.640   2.390  0.0900 -0.2121  1.1671
 7213SOL     OW33362   9.985   6.320   4.343  0.1659  0.2012 -0.1528
 7213SOL    HW133363   9.919   6.358   4.285 -0.1912  0.9892  0.7441
 7213SOL    HW233364   9.986   6.377   4.420  0.6323 -0.8089  0.6248
 7214SOL     OW33365   3.422   6.195   8.749 -0.4230  0.1610 -0.3040
 7214SOL    HW133366   3.340   6.227   8.787 -1.1211  0.1281 -1.7129
 7214SOL    HW233367   3.439   6.254   8.675  0.7971  0.1215 -0.0699
 7215SOL     OW33368   5.024   1.819   0.845  0.5812  0.3170  0.1875
 7215SOL    HW133369   5.080   1.776   0.780 -0.2400  0.5149 -0.6751
 7215SOL    HW233370   4.975   1.884   0.795 -0.9795 -0.3709  0.7746
 7216SOL     OW33371   3.973   2.799   3.008  0.4430 -0.2171 -0.0483
 7216SOL    HW133372   4.064   2.770   3.020  0.8695  0.2234 -1.8222
 7216SOL    HW233373   3.967   2.820   2.914 -1.7002 -0.8994 -0.1176
 7217SOL     OW33374   0.684   4.545   0.980 -1.0980  0.5121  0.0989
 7217SOL    HW133375   0.655   4.538   0.889  0.2871  0.3949 -0.3642
 7217SOL    HW233376   0.711   4.636   0.990 -0.3193  0.2911  0.0799
 7218SOL     OW33377   9.041   3.631  11.159  0.9248 -0.1614 -0.0088
 7218SOL    HW133378   9.038   3.619  11.254  1.2578  1.2703  0.2167
 7218SOL    HW233379   9.128   3.668  11.143  0.5640  0.3855 -0.7599
 7219SOL     OW33380   2.560   9.947   1.177 -0.5104  0.1002  0.1862
 7219SOL    HW133381   2.525   9.947   1.266 -2.5106  1.0311 -0.5498
 7219SOL    HW233382   2.561  10.039   1.152 -2.4352 -0.3087 -1.6319
 7220SOL     OW33383   3.655  11.111   3.527 -0.3568 -0.2301 -0.0303
 7220SOL    HW133384   3.723  11.044   3.527  0.8594  0.9625  0.7943
 7220SOL    HW233385   3.643  11.132   3.434  1.2820  0.3815 -0.1376
 7221SOL     OW33386   0.396   4.305   1.773 -0.1767  0.3617 -0.1538
 7221SOL    HW133387   0.310   4.326   1.737  0.3313  0.0750 -1.6418
 7221SOL    HW233388   0.457   4.354   1.718  0.5934  1.0849  1.2969
 7222SOL     OW33389  10.251   0.733   8.665 -0.8648 -0.8644  0.1542
 7222SOL    HW133390  10.213   0.695   8.745 -1.9389  0.5601  0.3575
 7222SOL    HW233391  10.323   0.788   8.697 -0.1287 -1.6783 -0.0411
 7223SOL     OW33392   8.033   3.506   5.693  0.1579 -0.2605  0.0070
 7223SOL    HW133393   7.963   3.477   5.634 -1.6438  2.3685  0.6486
 7223SOL    HW233394   8.110   3.460   5.663 -1.6083 -2.4771 -1.4728
 7224SOL     OW33395   2.305   4.036   4.117 -0.0895 -0.4157 -0.2427
 7224SOL    HW133396   2.341   4.087   4.190  0.3793 -0.8361 -0.1679
 7224SOL    HW233397   2.367   4.050   4.046 -0.7572  0.3057 -0.6865
 7225SOL     OW33398   5.850   3.321  11.910  0.4198  0.0682  0.7238
 7225SOL    HW133399   5.907   3.299  11.984  0.8156  0.8386  0.6560
 7225SOL    HW233400   5.809   3.238  11.886  0.9358 -0.3496  1.2630
 7226SOL     OW33401  10.274  10.088   5.258  0.3163 -0.0351  0.4037
 7226SOL    HW133402  10.219  10.159   5.225  0.2049 -0.6032 -0.6717
 7226SOL    HW233403  10.214  10.013   5.266  1.2698 -1.3306 -2.9776
 7227SOL     OW33404   6.638   8.216   3.403 -0.6899 -0.5204  0.3856
 7227SOL    HW133405   6.729   8.238   3.386 -0.7199  0.4862  1.4693
 7227SOL    HW233406   6.590   8.298   3.390 -1.2808 -0.7588  1.0127
 7228SOL     OW33407  11.691   7.210   6.694  0.0950 -0.3809  0.2611
 7228SOL    HW133408  11.606   7.252   6.708  0.1174 -0.8503  2.0850
 7228SOL    HW233409  11.750   7.282   6.670 -0.4820  0.1901  0.5230
 7229SOL     OW33410   0.081   9.415   8.868  0.5323 -0.0390  0.5544
 7229SOL    HW133411   0.163   9.374   8.895  0.5481 -0.2534  0.1862
 7229SOL    HW233412   0.061   9.477   8.938  0.9530 -0.0613  0.6949
 7230SOL     OW33413  10.733   4.530  10.158  0.1277 -0.0584  0.0096
 7230SOL    HW133414  10.821   4.568  10.157 -0.4767  1.4925  1.2503
 7230SOL    HW233415  10.745   4.441  10.125  1.6574  1.0696 -2.8434
 7231SOL     OW33416   8.190   0.285   4.082  0.5814  0.1642  0.6638
 7231SOL    HW133417   8.241   0.204   4.085 -0.8251 -0.8953 -1.5137
 7231SOL    HW233418   8.244   0.345   4.031 -0.1481 -0.9161 -1.5413
 7232SOL     OW33419   6.779  10.509  11.515  0.0383  0.0849 -1.0036
 7232SOL    HW133420   6.850  10.529  11.575 -2.5445  1.8066  1.7475
 7232SOL    HW233421   6.797  10.563  11.438  0.9991  1.5918  0.2094
 7233SOL     OW33422   0.212   0.931   4.300 -0.5686 -0.5479  0.3540
 7233SOL    HW133423   0.150   0.982   4.249 -0.1119 -0.4541 -0.1085
 7233SOL    HW233424   0.157   0.880   4.360 -1.0165  0.6486  0.9868
 7234SOL     OW33425   5.632   3.762   6.708  0.2851 -0.4085 -0.1731
 7234SOL    HW133426   5.568   3.692   6.724 -0.3469 -0.1737 -1.5355
 7234SOL    HW233427   5.644   3.803   6.793 -1.9692  0.0166  0.0149
 7235SOL     OW33428  10.933   6.816   8.039  0.1371 -0.2745  0.2802
 7235SOL    HW133429  10.860   6.855   8.086  1.2061  1.0628  0.8993
 7235SOL    HW233430  10.996   6.887   8.028  0.4251 -0.8126 -2.2014
 7236SOL     OW33431   8.658   3.913   0.788  0.1114 -0.1736  0.5469
 7236SOL    HW133432   8.655   3.895   0.694  1.7046 -0.0624  0.4391
 7236SOL    HW233433   8.662   3.827   0.829  0.7169 -0.2127  0.4216
 7237SOL     OW33434   6.111   4.481   1.492 -0.5270 -0.3744  0.3654
 7237SOL    HW133435   6.148   4.415   1.552 -3.1352 -2.0783  0.2607
 7237SOL    HW233436   6.128   4.447   1.405  0.2762  0.3726  0.2229
 7238SOL     OW33437  10.458   1.642   4.022 -0.0688 -0.1300  0.5390
 7238SOL    HW133438  10.431   1.609   3.936 -0.6942  1.9867 -0.1274
 7238SOL    HW233439  10.496   1.565   4.066  0.5024 -1.2098 -1.6894
 7239SOL     OW33440   1.791  10.900   3.946 -0.3369 -0.2272  0.0150
 7239SOL    HW133441   1.846  10.977   3.934  0.5048 -0.7879  0.1520
 7239SOL    HW233442   1.729  10.924   4.015  0.0468  0.2550  0.1897
 7240SOL     OW33443   8.113   4.098   4.264 -0.3500  1.1766  0.3929
 7240SOL    HW133444   8.125   4.085   4.169 -2.3485  1.9779 -0.0123
 7240SOL    HW233445   8.165   4.029   4.304  2.0487  1.9039 -1.2158
 7241SOL     OW33446   3.704   3.091  11.506  0.1029  0.3772  0.4048
 7241SOL    HW133447   3.615   3.060  11.525  0.0630  0.3673  0.2015
 7241SOL    HW233448   3.761   3.027  11.549  0.0083  1.3598  2.0919
 7242SOL     OW33449   0.679   2.106   0.363  0.0616 -0.2139  0.2968
 7242SOL    HW133450   0.681   2.063   0.448 -1.4295  0.8166  0.8752
 7242SOL    HW233451   0.593   2.085   0.327 -0.4934  1.8135  0.3524
 7243SOL     OW33452   1.824  11.736   7.173 -0.2725  0.1084  0.1605
 7243SOL    HW133453   1.792  11.811   7.223  0.0945 -0.7687  1.7659
 7243SOL    HW233454   1.856  11.775   7.091 -2.7175  1.3487 -0.3138
 7244SOL     OW33455   5.814   2.616   6.793  0.5229 -0.6965 -0.2111
 7244SOL    HW133456   5.818   2.654   6.881  1.5545 -1.8979  0.2828
 7244SOL    HW233457   5.896   2.642   6.751  0.2811 -0.5929 -0.6341
 7245SOL     OW33458   0.624   4.864   8.344 -0.1764 -0.2948 -0.1458
 7245SOL    HW133459   0.610   4.917   8.265 -0.2288  0.1675  0.1745
 7245SOL    HW233460   0.647   4.927   8.412 -1.3007 -0.5593  0.4986
 7246SOL     OW33461   9.028   9.960  10.386  0.0479 -0.0998  0.3479
 7246SOL    HW133462   8.946   9.947  10.338  0.1606  2.0245 -0.5103
 7246SOL    HW233463   9.095   9.967  10.317  0.7677 -0.5136  0.9865
 7247SOL     OW33464   1.485   7.784   1.644 -0.6457  0.5661  0.2534
 7247SOL    HW133465   1.413   7.722   1.657 -2.1497  2.5271  2.1176
 7247SOL    HW233466   1.552   7.757   1.707 -1.2924  0.7834  1.0510
 7248SOL     OW33467   6.460  10.689   8.920 -0.2015  0.3362 -0.2934
 7248SOL    HW133468   6.458  10.759   8.856  1.3951  0.1281 -0.5986
 7248SOL    HW233469   6.541  10.701   8.968 -0.0888 -1.0490 -0.0736
 7249SOL     OW33470   8.459   4.247  10.299  0.0661 -0.2577  0.4655
 7249SOL    HW133471   8.502   4.306  10.361 -0.4493 -0.1360  0.7074
 7249SOL    HW233472   8.373   4.231  10.336 -0.5059  0.3534 -0.5439
 7250SOL     OW33473   2.035   5.286   5.933  0.0029  0.0657 -0.5612
 7250SOL    HW133474   2.076   5.332   5.860 -2.0154  2.5132 -0.2958
 7250SOL    HW233475   1.949   5.260   5.899 -0.3245 -0.2029  0.4523
 7251SOL     OW33476   4.218   3.835   2.810 -0.0654  0.0451 -0.2406
 7251SOL    HW133477   4.270   3.754   2.809 -0.7610 -0.4093 -1.6513
 7251SOL    HW233478   4.279   3.903   2.783  0.4388 -0.0537  0.6157
 7252SOL     OW33479   0.926   6.677   3.476 -0.0504  0.1826 -0.7724
 7252SOL    HW133480   0.890   6.622   3.407  0.9981 -1.4302 -0.0808
 7252SOL    HW233481   0.855   6.683   3.541 -0.3133  0.0068 -1.0416
 7253SOL     OW33482   7.311   2.464  10.248  0.0497 -0.5083 -0.0243
 7253SOL    HW133483   7.356   2.490  10.168 -0.8794 -1.6967 -0.9851
 7253SOL    HW233484   7.310   2.543  10.302 -0.7482  0.8330 -1.8710
 7254SOL     OW33485   5.303   8.387   5.065  0.3707  0.0757 -0.0573
 7254SOL    HW133486   5.256   8.304   5.076 -0.7671  0.2287 -2.9099
 7254SOL    HW233487   5.393   8.361   5.046  0.1534 -0.4991 -0.3252
 7255SOL     OW33488   2.192   5.620  10.976  0.7249 -0.0754 -0.1834
 7255SOL    HW133489   2.132   5.690  10.949 -0.1316  0.3474  2.5192
 7255SOL    HW233490   2.155   5.540  10.938 -0.0025  0.5274 -0.7763
 7256SOL     OW33491   1.249   8.091  10.327  0.2627 -0.5607 -0.1126
 7256SOL    HW133492   1.207   8.081  10.412 -1.1797  2.6879 -0.3005
 7256SOL    HW233493   1.340   8.115  10.347 -0.1436  0.4719  0.5515
 7257SOL     OW33494   7.565   2.862   3.663 -0.0825  1.0459  0.2342
 7257SOL    HW133495   7.495   2.808   3.698  0.1942  0.6042  0.1217
 7257SOL    HW233496   7.638   2.801   3.650  0.2119  1.4325  0.0375
 7258SOL     OW33497   7.132   0.736   3.457 -0.2986  0.0370 -0.1397
 7258SOL    HW133498   7.078   0.742   3.536 -0.8856  0.0410 -0.5346
 7258SOL    HW233499   7.222   0.747   3.488 -0.4124 -1.2914  0.7037
 7259SOL     OW33500   0.574  11.296   4.315 -0.0571  0.8217 -0.3054
 7259SOL    HW133501   0.605  11.214   4.353 -1.3413  0.3610 -0.1935
 7259SOL    HW233502   0.572  11.280   4.221 -0.0980  0.7924 -0.2998
 7260SOL     OW33503   2.359   8.899   5.053 -0.0671 -0.6495  0.3912
 7260SOL    HW133504   2.446   8.860   5.067  0.7380  1.2745  1.0287
 7260SOL    HW233505   2.314   8.885   5.136  1.3149  2.3204  1.7791
 7261SOL     OW33506  10.575   1.212   0.055 -0.7671 -0.4884  0.5962
 7261SOL    HW133507  10.568   1.252  -0.032  1.1522 -0.5403  0.3662
 7261SOL    HW233508  10.487   1.181   0.075 -1.7613  1.5842 -0.3162
 7262SOL     OW33509   5.249   8.719   0.801 -0.4414  0.1459  0.5998
 7262SOL    HW133510   5.217   8.809   0.808 -2.6589 -0.4231 -0.9401
 7262SOL    HW233511   5.189   8.669   0.855 -1.8127 -0.8540 -1.6746
 7263SOL     OW33512  11.825   3.727   3.364 -0.1816  0.0751  0.2623
 7263SOL    HW133513  11.895   3.687   3.312  1.3365 -1.3079  3.1341
 7263SOL    HW233514  11.851   3.819   3.372  1.5531 -0.4794  1.5350
 7264SOL     OW33515   9.159   5.644   9.432 -0.0153 -0.6141  0.7359
 7264SOL    HW133516   9.140   5.556   9.399  1.3700 -0.6951  0.0579
 7264SOL    HW233517   9.212   5.629   9.510 -0.2673 -0.3803  0.9527
 7265SOL     OW33518   2.694   8.563  10.119 -0.5134 -0.1917 -1.1111
 7265SOL    HW133519   2.720   8.606  10.200 -3.3191 -1.2153  0.4421
 7265SOL    HW233520   2.662   8.635  10.063  1.6091  0.5382 -1.5101
 7266SOL     OW33521   7.626   8.487   5.031  0.3415  0.3634 -0.2792
 7266SOL    HW133522   7.531   8.485   5.019  0.4346 -0.2545 -0.9807
 7266SOL    HW233523   7.660   8.425   4.967  1.2808  1.1494 -0.5665
 7267SOL     OW33524   8.205   8.269   0.127  0.6697 -0.3614  0.5056
 7267SOL    HW133525   8.255   8.321   0.064  1.0349 -0.6540  0.5530
 7267SOL    HW233526   8.269   8.243   0.193  0.6984 -1.6699 -0.0127
 7268SOL     OW33527   1.875   0.327   4.223 -0.0557 -0.7398  0.4465
 7268SOL    HW133528   1.787   0.364   4.209 -0.2256 -1.9496 -2.4618
 7268SOL    HW233529   1.914   0.327   4.136  1.8268 -2.7413  1.2117
 7269SOL     OW33530   0.799   6.266  11.559  0.2552  0.1536  0.3360
 7269SOL    HW133531   0.782   6.175  11.584  0.9300 -0.0916 -0.0634
 7269SOL    HW233532   0.894   6.273  11.557  0.2091  0.8599  0.3165
 7270SOL     OW33533   5.843  10.791   3.146 -0.1865  0.2369 -0.4321
 7270SOL    HW133534   5.924  10.810   3.193 -0.2669  1.3213 -0.6917
 7270SOL    HW233535   5.778  10.775   3.215 -0.1684  1.2261 -0.1715
 7271SOL     OW33536   4.565   7.519   9.343 -0.2581 -0.1579  0.8689
 7271SOL    HW133537   4.657   7.514   9.367  0.0573  0.2706 -0.1970
 7271SOL    HW233538   4.546   7.436   9.299 -0.6555 -0.6577  1.9466
 7272SOL     OW33539   2.016   5.722  11.854  0.4043  0.1722 -0.3793
 7272SOL    HW133540   2.102   5.701  11.818  0.5700  1.1405 -0.5746
 7272SOL    HW233541   1.954   5.691  11.788  0.5424 -1.4667  0.2259
 7273SOL     OW33542   7.947   7.551   3.831 -0.1721  0.0463  0.1142
 7273SOL    HW133543   7.966   7.521   3.741 -0.7046 -0.0107  0.0216
 7273SOL    HW233544   7.920   7.472   3.877 -0.8187  0.2412  0.0755
 7274SOL     OW33545  11.030   3.150   8.588 -0.3691  0.2096  0.1287
 7274SOL    HW133546  10.935   3.142   8.579 -0.2787 -0.9638  0.1435
 7274SOL    HW233547  11.066   3.082   8.532  0.5178  1.3594 -0.7610
 7275SOL     OW33548   6.399  10.394   9.231  0.1768  0.2472 -0.1384
 7275SOL    HW133549   6.482  10.367   9.194 -0.0681  0.3070 -0.7517
 7275SOL    HW233550   6.415  10.482   9.266  1.4854 -1.2646  3.5739
 7276SOL     OW33551   2.796   3.476   2.260 -0.1450 -0.2109 -0.3055
 7276SOL    HW133552   2.828   3.514   2.341 -1.1403 -0.1368  0.0751
 7276SOL    HW233553   2.742   3.544   2.220 -1.3589 -0.9239  0.0297
 7277SOL     OW33554   9.053   9.133   0.166 -0.3451 -0.1417  0.1457
 7277SOL    HW133555   9.122   9.150   0.229  0.1852  1.0516 -0.7194
 7277SOL    HW233556   9.094   9.147   0.081 -1.5110  0.0760 -0.4019
 7278SOL     OW33557  11.080   2.107   8.143  0.2686  0.3302  0.3050
 7278SOL    HW133558  10.992   2.145   8.146 -0.4896 -1.3678  2.9850
 7278SOL    HW233559  11.136   2.175   8.181 -0.4831  0.1878  1.7388
 7279SOL     OW33560   9.903   1.681   3.701 -0.1784  0.5984  0.2646
 7279SOL    HW133561   9.930   1.623   3.629  0.1511  1.7143 -0.5333
 7279SOL    HW233562   9.911   1.769   3.665 -0.8022  1.1430  1.4197
 7280SOL     OW33563   7.835  11.002   5.565 -0.1531  0.1518  0.2433
 7280SOL    HW133564   7.827  10.908   5.582  3.1068  0.0672  2.1826
 7280SOL    HW233565   7.752  11.039   5.597 -0.1536 -1.7445  2.7594
 7281SOL     OW33566   2.605   9.798   7.119 -0.0396  0.1819  0.3369
 7281SOL    HW133567   2.624   9.779   7.027 -0.2436 -1.3417  0.5775
 7281SOL    HW233568   2.532   9.741   7.141 -0.6213  1.2176  1.2116
 7282SOL     OW33569   7.280  10.776   5.753  0.0349 -0.0190  0.1756
 7282SOL    HW133570   7.295  10.827   5.833 -0.3832  2.2026 -1.0517
 7282SOL    HW233571   7.336  10.818   5.688 -0.9156 -0.6599 -1.0973
 7283SOL     OW33572  10.957   6.613   0.805  0.3241 -0.5591  0.2897
 7283SOL    HW133573  11.027   6.547   0.807  1.1500  0.2412 -1.0521
 7283SOL    HW233574  10.945   6.632   0.712 -0.2679  0.8188  0.6323
 7284SOL     OW33575   3.117   9.254   8.529 -0.3601 -0.1948  0.3910
 7284SOL    HW133576   3.129   9.159   8.520  2.8969  0.0926  0.4428
 7284SOL    HW233577   3.137   9.272   8.620 -1.6582  0.5171  0.5583
 7285SOL     OW33578   1.785   8.460  10.082 -0.1447  1.0866 -0.1930
 7285SOL    HW133579   1.722   8.389  10.098  0.1701  1.1472  1.4997
 7285SOL    HW233580   1.731   8.537  10.068 -0.4738  0.6892 -1.2264
 7286SOL     OW33581   4.963   6.179   4.542 -0.2361  0.0291  0.1174
 7286SOL    HW133582   5.013   6.130   4.608  0.3827  0.4523 -0.0328
 7286SOL    HW233583   4.936   6.112   4.479 -0.5620 -0.3282  0.6215
 7287SOL     OW33584   0.612  10.554   6.752  0.3560  0.6991 -0.0397
 7287SOL    HW133585   0.637  10.590   6.837 -2.2493  0.9562  0.7067
 7287SOL    HW233586   0.610  10.630   6.694  1.1901  0.6806 -0.1020
 7288SOL     OW33587   5.747   8.825   5.756 -0.1961 -0.0209  0.6302
 7288SOL    HW133588   5.834   8.795   5.783 -1.1318 -2.0820  1.5298
 7288SOL    HW233589   5.721   8.765   5.687 -0.8305  0.7550  0.1753
 7289SOL     OW33590   0.947   1.273   5.694  0.3383  0.0272  0.4520
 7289SOL    HW133591   0.912   1.198   5.742 -2.4724  1.4483  0.8395
 7289SOL    HW233592   0.963   1.340   5.760  0.6764  0.5377 -0.1254
 7290SOL     OW33593   2.969   6.338   5.429 -0.1340 -0.0954 -0.2776
 7290SOL    HW133594   3.048   6.359   5.478 -0.7447 -1.2641  1.2922
 7290SOL    HW233595   2.944   6.251   5.460 -2.1665  0.3517 -0.5271
 7291SOL     OW33596   1.523   4.514   1.302  0.2375 -0.0248 -0.7239
 7291SOL    HW133597   1.545   4.527   1.395 -0.9928  0.4670 -0.4762
 7291SOL    HW233598   1.575   4.439   1.275  1.5900  0.6155  0.0082
 7292SOL     OW33599  10.170   8.046   6.677 -0.2422 -0.0109  0.2668
 7292SOL    HW133600  10.208   7.966   6.714  0.2489 -0.6812 -1.5562
 7292SOL    HW233601  10.076   8.039   6.696  0.0816  0.1328  2.1024
 7293SOL     OW33602   6.304   2.340   5.803 -0.1691 -0.2691  0.2638
 7293SOL    HW133603   6.217   2.336   5.844 -0.2695  2.6455  0.5162
 7293SOL    HW233604   6.363   2.361   5.875  0.1807  1.3699 -0.4746
 7294SOL     OW33605   9.047   4.333   3.990 -0.0565 -0.4331 -0.5208
 7294SOL    HW133606   9.011   4.275   3.922  0.9193  0.1205 -1.5486
 7294SOL    HW233607   8.990   4.410   3.988 -0.4469 -0.7153 -0.2258
 7295SOL     OW33608   4.739   0.031  11.144 -0.4822  1.0328  0.5500
 7295SOL    HW133609   4.829   0.031  11.176  0.4798  1.8185 -1.9383
 7295SOL    HW233610   4.723  -0.058  11.115  0.4217  1.4014 -1.2325
 7296SOL     OW33611   4.384  11.350   9.880 -0.0679 -0.8372 -0.1673
 7296SOL    HW133612   4.360  11.427   9.828 -1.8938 -0.0247  1.7405
 7296SOL    HW233613   4.391  11.383   9.970  1.7670 -2.4225  0.3239
 7297SOL     OW33614   1.355   6.916   0.360 -0.6117 -0.4967  0.4662
 7297SOL    HW133615   1.360   6.989   0.422 -1.1435 -0.6659  0.7187
 7297SOL    HW233616   1.327   6.956   0.277 -1.1571 -0.4418  0.6706
 7298SOL     OW33617   2.651   9.225   8.343  0.6182 -0.5018  0.1286
 7298SOL    HW133618   2.624   9.315   8.321 -1.4947 -0.9836  0.5227
 7298SOL    HW233619   2.579   9.170   8.312  1.5427 -2.0085  0.5432
 7299SOL     OW33620   5.289   4.928   0.461 -0.3163 -0.7926 -0.6401
 7299SOL    HW133621   5.236   4.917   0.383 -0.9200  1.1315 -0.5402
 7299SOL    HW233622   5.229   4.908   0.533 -0.8998  1.1260 -0.5397
 7300SOL     OW33623   1.600  10.155   8.778  0.4467 -0.4211 -0.4057
 7300SOL    HW133624   1.658  10.133   8.850 -1.0071  0.4106  1.0826
 7300SOL    HW233625   1.532  10.087   8.779 -0.3002  0.3110 -0.1333
 7301SOL     OW33626   4.756   7.872   6.428  0.5486  0.1224 -0.8816
 7301SOL    HW133627   4.825   7.895   6.366  1.4948 -0.2448  0.0014
 7301SOL    HW233628   4.802   7.861   6.512 -0.8806  1.9911  0.2180
 7302SOL     OW33629   9.489   8.302  11.133  0.3766 -0.0148  0.3782
 7302SOL    HW133630   9.476   8.208  11.145  0.4075 -0.1171 -0.3628
 7302SOL    HW233631   9.568   8.310  11.080 -0.1053  0.3883 -0.3010
 7303SOL     OW33632   8.717   1.019  11.339  0.2686 -0.0845 -0.2393
 7303SOL    HW133633   8.700   1.037  11.247 -2.0614 -1.1440 -0.0862
 7303SOL    HW233634   8.807   1.048  11.353  0.0725  1.7970 -2.3672
 7304SOL     OW33635   9.359   2.836  11.103  0.0739  0.4706 -0.2617
 7304SOL    HW133636   9.271   2.802  11.114  0.3898 -0.1686  0.3663
 7304SOL    HW233637   9.406   2.807  11.181  1.1201 -0.0890 -1.0663
 7305SOL     OW33638   2.486   7.521   4.304  0.0662  0.2856  0.4940
 7305SOL    HW133639   2.542   7.508   4.227  0.3693 -2.6094  1.0899
 7305SOL    HW233640   2.546   7.553   4.372  0.2741  0.5787  0.1739
 7306SOL     OW33641   8.302   7.621   2.127 -0.3699  0.2680  0.5590
 7306SOL    HW133642   8.218   7.634   2.083  0.3066  1.4883 -0.4617
 7306SOL    HW233643   8.280   7.576   2.209 -1.6928 -2.0311 -0.9483
 7307SOL     OW33644   0.086   5.822   2.382 -0.1212 -0.3176  0.7628
 7307SOL    HW133645   0.175   5.787   2.384  0.3881  0.7725  3.8227
 7307SOL    HW233646   0.030   5.747   2.404  0.2349 -0.6455  0.5513
 7308SOL     OW33647   3.374   2.238  11.316  0.8609  0.4843 -0.1341
 7308SOL    HW133648   3.284   2.265  11.300  1.0456  0.3597 -1.5023
 7308SOL    HW233649   3.404   2.204  11.231  1.2769 -2.1497  0.9697
 7309SOL     OW33650   1.142   5.160  11.032 -0.0575  0.2907  0.5307
 7309SOL    HW133651   1.135   5.141  11.125  1.8336  1.7830  1.0395
 7309SOL    HW233652   1.052   5.177  11.004 -0.6069  0.2308  2.1729
 7310SOL     OW33653   6.568   0.123   6.996  0.6044  0.7438  0.5054
 7310SOL    HW133654   6.614   0.154   7.074  3.4186 -1.1624 -0.2345
 7310SOL    HW233655   6.495   0.070   7.031 -0.6865  3.1545  1.7155
 7311SOL     OW33656   6.155   1.195   5.063  0.2054  0.3799  0.2544
 7311SOL    HW133657   6.081   1.253   5.081 -0.2576  0.2877 -1.1923
 7311SOL    HW233658   6.178   1.158   5.149  0.3478  2.4490  1.1640
 7312SOL     OW33659   7.225   6.197   4.740  0.0301  0.0978 -0.0635
 7312SOL    HW133660   7.287   6.140   4.694  0.6387  1.0894 -0.5084
 7312SOL    HW233661   7.150   6.140   4.760  0.8051 -0.9571 -0.0873
 7313SOL     OW33662   2.554   4.051   5.923  0.5389 -0.0111  0.3321
 7313SOL    HW133663   2.497   4.006   5.986 -1.3822  1.6784 -0.0831
 7313SOL    HW233664   2.514   4.031   5.837  1.0479  0.5665 -0.0421
 7314SOL     OW33665   2.052   9.812   1.506 -0.0424  0.1504 -0.3086
 7314SOL    HW133666   2.067   9.896   1.464  0.8917 -0.2243 -0.7622
 7314SOL    HW233667   1.968   9.782   1.469 -0.5222  0.9917  0.0703
 7315SOL     OW33668   5.683   3.444   2.719  0.8249  0.1790  0.3033
 7315SOL    HW133669   5.591   3.465   2.701 -0.5946 -4.2612  1.2511
 7315SOL    HW233670   5.720   3.423   2.633  1.1987  2.4062 -0.1413
 7316SOL     OW33671  10.614   0.739  11.493  0.3349 -0.3775 -0.3435
 7316SOL    HW133672  10.681   0.673  11.510 -0.0802 -0.5266  0.8579
 7316SOL    HW233673  10.536   0.706  11.538  0.0447  0.7888  0.0551
 7317SOL     OW33674  11.918   4.530   3.938 -0.1001 -0.6320  0.1231
 7317SOL    HW133675  11.962   4.614   3.931 -0.3056 -0.5724 -0.5218
 7317SOL    HW233676  11.832   4.544   3.897  0.6173 -1.6777 -1.8721
 7318SOL     OW33677   5.168   9.729   4.672  0.3992 -0.0703  0.2054
 7318SOL    HW133678   5.211   9.759   4.592  1.6331  2.5988  1.7509
 7318SOL    HW233679   5.239   9.689   4.724 -0.1689 -0.7817  0.4591
 7319SOL     OW33680  10.147   8.657  11.863 -0.3819  0.0943  0.0563
 7319SOL    HW133681  10.134   8.646  11.768 -2.2716  1.6982  0.0597
 7319SOL    HW233682  10.083   8.598  11.903 -0.1109 -0.0194  0.3258
 7320SOL     OW33683  11.217   2.670   2.034  0.2220  0.1449  0.3754
 7320SOL    HW133684  11.123   2.670   2.050  0.5229  0.6905  2.5620
 7320SOL    HW233685  11.229   2.615   1.957 -2.1476  2.6187 -1.9971
 7321SOL     OW33686   3.105   8.177   4.949 -0.1036 -0.8588 -0.4494
 7321SOL    HW133687   3.188   8.204   4.986 -1.6000 -0.6342  3.1337
 7321SOL    HW233688   3.107   8.081   4.951 -0.2596 -0.8494  0.5447
 7322SOL     OW33689   6.058  11.562   4.150  0.4938  0.1162 -0.5081
 7322SOL    HW133690   6.122  11.492   4.137  1.0542  0.5371 -0.0665
 7322SOL    HW233691   6.111  11.640   4.167 -0.1390  0.4039  0.1984
 7323SOL     OW33692   3.941   6.428   1.486  0.3476 -1.1014  0.0963
 7323SOL    HW133693   3.978   6.440   1.573  0.4496 -1.9416  0.1809
 7323SOL    HW233694   3.945   6.515   1.446 -0.0449 -0.6218  1.0582
 7324SOL     OW33695   0.632   2.852   1.424 -0.0969 -0.4427  0.6302
 7324SOL    HW133696   0.588   2.793   1.486 -2.1619  1.6404  1.2587
 7324SOL    HW233697   0.724   2.847   1.449 -0.0853 -3.5959  0.4204
 7325SOL     OW33698   2.009   0.930   2.768  0.7321 -0.0001 -0.1398
 7325SOL    HW133699   2.087   0.942   2.714 -0.3367 -0.1042 -1.7869
 7325SOL    HW233700   1.970   1.017   2.773 -1.2085 -0.5907 -2.8719
 7326SOL     OW33701   4.877  11.709   0.683 -0.2943  0.3544  0.0081
 7326SOL    HW133702   4.903  11.647   0.752  1.3608  2.7773  1.7163
 7326SOL    HW233703   4.958  11.753   0.657 -1.5086  2.6130 -0.2516
 7327SOL     OW33704   3.227   8.500   7.069 -0.0589  0.1288  0.0330
 7327SOL    HW133705   3.312   8.467   7.041  0.5997  1.3514  0.5371
 7327SOL    HW233706   3.211   8.576   7.014 -1.7367 -1.1491 -1.3776
 7328SOL     OW33707  11.026   4.606   1.709 -0.4268 -0.0842 -0.0276
 7328SOL    HW133708  11.097   4.659   1.746  0.4525 -1.2194 -0.0363
 7328SOL    HW233709  10.978   4.574   1.785 -0.7325  0.4108 -0.0091
 7329SOL     OW33710   6.346   3.641   6.042  0.6183  0.0245 -0.1529
 7329SOL    HW133711   6.272   3.608   5.992  0.8899  1.1738 -1.3799
 7329SOL    HW233712   6.316   3.725   6.078  0.5978 -0.5515  1.2015
 7330SOL     OW33713   8.780   5.891   9.969 -0.0502  0.2837 -0.1090
 7330SOL    HW133714   8.749   5.805   9.998  3.3339 -0.9117  0.3258
 7330SOL    HW233715   8.821   5.875   9.884  2.9740  0.8608  1.1430
 7331SOL     OW33716   0.253   1.339   4.010 -0.3800  0.1469 -0.2965
 7331SOL    HW133717   0.217   1.255   3.981  0.1402 -0.5219  0.8968
 7331SOL    HW233718   0.308   1.316   4.086  1.6328  1.2532 -1.3469
 7332SOL     OW33719  10.209   4.015  10.165 -0.5178 -0.0636  0.3144
 7332SOL    HW133720  10.129   3.990  10.118  0.2931 -0.7130 -0.7864
 7332SOL    HW233721  10.221   4.108  10.145  0.1254 -0.4565 -1.3254
 7333SOL     OW33722   2.592   6.398   4.492 -1.0477 -0.2850 -0.4032
 7333SOL    HW133723   2.571   6.305   4.504 -2.1434 -0.2224 -1.6039
 7333SOL    HW233724   2.627   6.402   4.403 -0.9795  0.4610 -0.3457
 7334SOL     OW33725   6.703   9.321  10.248 -0.8462 -0.7455 -0.7566
 7334SOL    HW133726   6.660   9.374  10.315  0.9149  0.5530 -0.5747
 7334SOL    HW233727   6.761   9.263  10.297  1.1329  0.8396 -1.1055
 7335SOL     OW33728  11.044   9.143  10.795  0.1491 -0.0039  0.0687
 7335SOL    HW133729  10.999   9.226  10.777  0.8408  0.0973 -1.3142
 7335SOL    HW233730  10.999   9.079  10.740 -0.2467 -0.5225  0.9775
 7336SOL     OW33731   9.714   5.342   4.456 -0.0003 -0.4062  0.6019
 7336SOL    HW133732   9.763   5.395   4.518 -0.1842  0.4058  0.0757
 7336SOL    HW233733   9.772   5.269   4.436 -0.0306 -0.8058  1.8865
 7337SOL     OW33734  11.244  11.328  11.710  0.2314 -0.3454 -0.3755
 7337SOL    HW133735  11.162  11.295  11.746  0.8326 -0.7627  0.6446
 7337SOL    HW233736  11.236  11.423  11.715  0.5410 -0.3841  1.4726
 7338SOL     OW33737   1.166   1.853  10.688  0.5429  0.0740 -0.0683
 7338SOL    HW133738   1.133   1.899  10.611  1.7973 -0.9757 -1.2947
 7338SOL    HW233739   1.216   1.779  10.652 -1.0194 -2.0113  1.7777
 7339SOL     OW33740   3.471   7.788   6.868  0.3252  0.2504  0.0706
 7339SOL    HW133741   3.425   7.863   6.906  1.1068  0.1940  1.2037
 7339SOL    HW233742   3.451   7.792   6.775 -0.0918  1.5600  0.1859
 7340SOL     OW33743   0.530   4.540   5.664 -0.5646 -0.0147 -0.0842
 7340SOL    HW133744   0.617   4.502   5.672 -0.4080  0.2035 -0.7230
 7340SOL    HW233745   0.492   4.498   5.587  0.0960  2.0049 -1.6011
 7341SOL     OW33746   5.794   9.706   3.049 -0.7122 -0.1871 -0.4498
 7341SOL    HW133747   5.869   9.718   2.991  0.1546  0.7242  0.7875
 7341SOL    HW233748   5.720   9.694   2.990  0.2021  0.1800 -1.7309
 7342SOL     OW33749   6.850  10.171   8.135  0.1275  0.1231 -0.4557
 7342SOL    HW133750   6.906  10.127   8.071 -1.1922  0.1303 -1.6602
 7342SOL    HW233751   6.820  10.101   8.193  0.6188 -0.0239 -0.3713
 7343SOL     OW33752   2.136   7.229   4.795  0.0332  0.0952  0.0812
 7343SOL    HW133753   2.160   7.314   4.833  0.3589  0.3116 -0.6029
 7343SOL    HW233754   2.117   7.174   4.871 -2.1220  1.3222  0.5217
 7344SOL     OW33755  11.237  10.041   9.636 -0.0599 -0.3727  0.1959
 7344SOL    HW133756  11.184  10.097   9.579 -0.3218  0.1523  0.9243
 7344SOL    HW233757  11.212  10.068   9.725  1.1552 -0.3813  0.5552
 7345SOL     OW33758   2.495   9.051  10.843 -0.2132 -0.2125 -0.8168
 7345SOL    HW133759   2.520   9.138  10.873 -0.7086 -0.1290 -0.6298
 7345SOL    HW233760   2.569   8.995  10.866 -0.6644 -0.2069  0.8122
 7346SOL     OW33761   5.440   9.358   1.379  0.4240 -0.3032 -0.0635
 7346SOL    HW133762   5.382   9.297   1.332 -0.3801 -0.1474  0.6882
 7346SOL    HW233763   5.521   9.309   1.392  0.0176 -0.9900 -0.0490
 7347SOL     OW33764   2.432  10.760   7.819 -0.3216 -0.2720  0.3999
 7347SOL    HW133765   2.503  10.769   7.883 -0.6504  1.5534  0.5672
 7347SOL    HW233766   2.477  10.754   7.734  0.0514  0.5711  0.5288
 7348SOL     OW33767   5.507   5.017   8.548 -0.1758 -0.3965 -0.3255
 7348SOL    HW133768   5.544   4.937   8.511  3.1477 -0.0456  1.7345
 7348SOL    HW233769   5.471   4.990   8.633  1.3362  0.2197  0.5735
 7349SOL     OW33770  11.486   2.754  10.322 -0.0076 -0.2849  0.1867
 7349SOL    HW133771  11.403   2.785  10.359 -0.3962 -0.8421 -0.1950
 7349SOL    HW233772  11.460   2.700  10.247  0.6997 -0.4964  0.0854
 7350SOL     OW33773   7.793   1.782   8.155 -0.0418  0.1506 -0.3710
 7350SOL    HW133774   7.842   1.786   8.238 -0.5920  2.2905 -0.1014
 7350SOL    HW233775   7.859   1.757   8.090  0.4638 -1.2544  0.6247
 7351SOL     OW33776  10.088   5.167  10.189  0.1273 -0.4391 -0.4642
 7351SOL    HW133777  10.128   5.119  10.115 -0.8690 -0.0609 -1.2698
 7351SOL    HW233778  10.038   5.237  10.147 -0.7327 -0.4289  0.5674
 7352SOL     OW33779  11.142   0.029   6.243  0.0072 -0.3185 -0.4068
 7352SOL    HW133780  11.052   0.027   6.210 -0.4502 -1.7498  0.8324
 7352SOL    HW233781  11.145  -0.040   6.310  1.4837  1.0119  0.9772
 7353SOL     OW33782   1.756   6.304   4.465 -0.5666  0.5109 -0.6651
 7353SOL    HW133783   1.712   6.326   4.383  0.0337 -0.0733 -1.1622
 7353SOL    HW233784   1.849   6.304   4.442 -0.2093  2.5110  0.5394
 7354SOL     OW33785   8.495   6.350   5.179  0.3340  0.6116  0.1780
 7354SOL    HW133786   8.450   6.434   5.188 -0.2068  0.2235  1.3818
 7354SOL    HW233787   8.432   6.294   5.133 -0.3140  0.1829  1.5198
 7355SOL     OW33788   9.364   4.150  10.521  0.1101 -0.1017 -0.2347
 7355SOL    HW133789   9.339   4.236  10.489  3.1265  1.0862  0.2340
 7355SOL    HW233790   9.419   4.167  10.597 -1.9877 -2.6355  2.0809
 7356SOL     OW33791  11.221   0.980   1.566  0.3448 -0.3582  0.3276
 7356SOL    HW133792  11.189   0.896   1.532 -0.2465 -0.5332  1.3028
 7356SOL    HW233793  11.211   0.973   1.661  0.8623  0.5879  0.4589
 7357SOL     OW33794   0.223   1.767   6.806  0.1278 -0.0096 -0.2749
 7357SOL    HW133795   0.272   1.685   6.805  0.8877  0.3901  1.0546
 7357SOL    HW233796   0.131   1.741   6.803  0.2829 -1.0288  1.9847
 7358SOL     OW33797   4.646   9.040   3.040 -0.0963  0.0787 -0.2901
 7358SOL    HW133798   4.605   9.043   2.953  0.8135  1.9737 -0.7241
 7358SOL    HW233799   4.582   9.082   3.098 -1.3185 -2.4260  0.3254
 7359SOL     OW33800   6.421  11.145   4.379 -0.6019  0.7274 -0.2443
 7359SOL    HW133801   6.386  11.220   4.428  0.0364  1.2805 -0.6129
 7359SOL    HW233802   6.345  11.105   4.338 -1.1124  0.4445  0.9338
 7360SOL     OW33803   1.719   1.366   0.320  0.4000  0.2744  0.5585
 7360SOL    HW133804   1.662   1.333   0.390 -0.5015  0.0991 -0.2236
 7360SOL    HW233805   1.800   1.317   0.330  0.1293 -0.0564  1.2157
 7361SOL     OW33806   0.195   4.828   9.285  0.5507 -0.2329 -0.0009
 7361SOL    HW133807   0.118   4.819   9.227 -0.1183 -3.9100  1.1849
 7361SOL    HW233808   0.270   4.813   9.227  0.1113 -0.6032 -0.4904
 7362SOL     OW33809   0.203   2.043   3.708 -0.1879  0.4685  0.4761
 7362SOL    HW133810   0.202   2.007   3.797 -1.6161  3.3840  1.7550
 7362SOL    HW233811   0.286   2.012   3.671 -0.7801 -3.1563  1.6956
 7363SOL     OW33812   4.145   6.737   6.193  0.2160  0.3147  0.0874
 7363SOL    HW133813   4.155   6.745   6.288 -2.7771  0.3444  0.5018
 7363SOL    HW233814   4.137   6.643   6.178 -0.6560  0.3843  0.0699
 7364SOL     OW33815   2.063   3.648  11.747 -0.0211  0.0694  0.7882
 7364SOL    HW133816   1.968   3.649  11.757 -0.2248 -1.0189 -0.7219
 7364SOL    HW233817   2.089   3.740  11.751 -1.4508  0.6196 -1.2168
 7365SOL     OW33818   9.016   4.792   2.201 -0.1772  0.5041  0.1504
 7365SOL    HW133819   8.993   4.708   2.242 -1.1475 -1.1131 -3.3285
 7365SOL    HW233820   8.968   4.857   2.252 -1.0416 -1.2500  1.7363
 7366SOL     OW33821  11.619   3.910   1.644 -0.0248  0.1961  0.0085
 7366SOL    HW133822  11.548   3.940   1.700 -1.9518 -1.8128 -1.1675
 7366SOL    HW233823  11.643   3.987   1.592 -0.5189  1.2114  1.2502
 7367SOL     OW33824   7.907   3.651   0.098 -0.4486 -0.7962 -0.6382
 7367SOL    HW133825   7.988   3.608   0.124 -0.0412  0.8378  1.0237
 7367SOL    HW233826   7.932   3.704   0.022  0.4500  0.7508  0.6669
 7368SOL     OW33827   6.536   6.690   0.984  0.1328 -0.7435 -0.2525
 7368SOL    HW133828   6.623   6.649   0.980  0.6310  0.3105 -0.7898
 7368SOL    HW233829   6.548   6.766   1.041 -0.3703 -0.4488 -0.5306
 7369SOL     OW33830  10.956  11.564  11.488  0.1980 -0.3620  0.6432
 7369SOL    HW133831  11.047  11.544  11.462 -0.0298  2.1021 -2.8292
 7369SOL    HW233832  10.965  11.615  11.568  1.7049 -1.4384  1.2295
 7370SOL     OW33833  10.912   3.462   7.977 -0.4749 -0.8511 -0.1123
 7370SOL    HW133834  10.926   3.474   8.071  1.2631 -0.0836 -0.4159
 7370SOL    HW233835  10.967   3.386   7.955 -1.9331 -1.8901 -0.3121
 7371SOL     OW33836   6.139  11.052  10.355  0.1021 -0.0783  0.6596
 7371SOL    HW133837   6.212  11.061  10.294  0.0019  0.3763  0.5967
 7371SOL    HW233838   6.105  10.964  10.340 -1.6345  0.8924 -1.9192
 7372SOL     OW33839   4.927   8.999   8.239  0.5534  0.1123  0.2337
 7372SOL    HW133840   4.927   9.029   8.330  0.5279  0.5942  0.0793
 7372SOL    HW233841   5.018   8.976   8.222  0.2524 -1.7199  0.9282
 7373SOL     OW33842   4.707  10.251   4.128  0.1877 -0.0980  0.1324
 7373SOL    HW133843   4.614  10.237   4.145  0.1682 -0.5285 -0.3052
 7373SOL    HW233844   4.712  10.276   4.036  0.2205  3.0016  0.8676
 7374SOL     OW33845  10.523   5.429   6.378 -0.0751  0.1400  0.1013
 7374SOL    HW133846  10.535   5.334   6.383  0.8019  0.2226 -0.3827
 7374SOL    HW233847  10.586   5.459   6.313 -1.5485  0.8437 -1.0817
 7375SOL     OW33848   7.496  10.028   9.755  0.4914 -0.2771  0.3081
 7375SOL    HW133849   7.533   9.956   9.805  1.8225  0.9212  1.0993
 7375SOL    HW233850   7.569  10.065   9.707  0.1204  1.3737  0.9457
 7376SOL     OW33851   8.937   0.819  10.634 -0.5985  0.1888 -0.6857
 7376SOL    HW133852   8.951   0.899  10.685 -1.9340 -0.5709  0.9498
 7376SOL    HW233853   8.844   0.822  10.609 -0.2850 -0.1106 -1.9890
 7377SOL     OW33854   9.662   4.852   7.648 -0.3189  0.6551  0.5204
 7377SOL    HW133855   9.702   4.938   7.660  0.8854  0.0811  0.7267
 7377SOL    HW233856   9.659   4.814   7.736 -0.0194  0.1409  0.3173
 7378SOL     OW33857   5.130   0.659   9.620 -0.0076  0.3437  0.6349
 7378SOL    HW133858   5.147   0.569   9.592 -1.5054  0.4794 -0.9198
 7378SOL    HW233859   5.214   0.703   9.612  0.6116 -0.7725  0.8408
 7379SOL     OW33860   9.110   5.920   0.666 -0.5148  0.1923  0.5682
 7379SOL    HW133861   9.184   5.958   0.619 -2.1886  0.1992 -2.2577
 7379SOL    HW233862   9.106   5.829   0.637 -2.6398  0.6573 -0.8595
 7380SOL     OW33863  11.780   2.470   1.519 -0.6362  0.1266  0.6351
 7380SOL    HW133864  11.777   2.557   1.559 -2.3723 -0.0977  1.0515
 7380SOL    HW233865  11.868   2.437   1.540 -0.4029  1.2594  1.5560
 7381SOL     OW33866   5.195   7.627   5.628  0.0041 -0.0723  0.3178
 7381SOL    HW133867   5.146   7.633   5.546 -0.6160  1.7831  0.7827
 7381SOL    HW233868   5.287   7.629   5.601 -0.1280 -1.8682 -0.4438
 7382SOL     OW33869  11.196   0.608   1.668 -0.2436 -0.0632 -0.4800
 7382SOL    HW133870  11.178   0.702   1.656 -0.3464 -0.1151 -0.7340
 7382SOL    HW233871  11.162   0.567   1.589 -0.3420 -0.3349 -0.2978
 7383SOL     OW33872  10.615   3.510   2.319  0.2551 -0.1468  0.0351
 7383SOL    HW133873  10.654   3.578   2.374 -1.1661 -0.2656  1.2653
 7383SOL    HW233874  10.580   3.446   2.381 -1.1303 -0.4554 -1.0009
 7384SOL     OW33875   2.840   0.826   2.810 -0.0082 -0.1159 -0.0995
 7384SOL    HW133876   2.761   0.865   2.847  0.4077  2.3215 -1.5585
 7384SOL    HW233877   2.911   0.859   2.864  0.2057 -0.2763 -0.2782
 7385SOL     OW33878   7.755   5.486   8.756  0.6765 -0.4856 -0.4826
 7385SOL    HW133879   7.688   5.468   8.822  0.0770 -2.6423 -1.5739
 7385SOL    HW233880   7.838   5.468   8.800  0.4568  0.6083  0.4074
 7386SOL     OW33881   4.654   9.732   1.370 -0.4822 -0.5823 -0.5373
 7386SOL    HW133882   4.683   9.772   1.452 -1.2630  1.2230 -1.0892
 7386SOL    HW233883   4.719   9.664   1.352  1.0153  0.5439  0.3881
 7387SOL     OW33884  10.332   9.218   9.997 -0.6049  0.3574 -0.4144
 7387SOL    HW133885  10.394   9.257  10.059  0.2895 -0.9039 -0.4850
 7387SOL    HW233886  10.361   9.249   9.912  0.3111 -0.6743 -0.5014
 7388SOL     OW33887   2.188   2.471  11.766  0.1491  1.0903 -0.1356
 7388SOL    HW133888   2.215   2.471  11.857  0.9419  1.0738 -0.3573
 7388SOL    HW233889   2.270   2.464  11.717 -0.1297  2.5063 -0.8817
 7389SOL     OW33890   9.788   7.641   9.821 -0.3471  0.1509 -0.3143
 7389SOL    HW133891   9.857   7.643   9.755  0.1826  0.1495  0.2215
 7389SOL    HW233892   9.772   7.548   9.836  2.1359 -0.0022  2.1497
 7390SOL     OW33893   7.990   3.128   3.427 -0.5770  0.2883  0.5573
 7390SOL    HW133894   7.937   3.108   3.349 -1.9095  0.8150  1.2949
 7390SOL    HW233895   7.947   3.203   3.467  0.2623  0.2153  1.6432
 7391SOL     OW33896   3.601  10.277   9.204  0.2908  0.6752 -0.2539
 7391SOL    HW133897   3.642  10.316   9.127  0.2999  0.1669 -0.5109
 7391SOL    HW233898   3.556  10.200   9.170  0.2887  0.4544  0.2495
 7392SOL     OW33899   5.954   7.161   5.897 -0.2506 -0.4860 -0.6199
 7392SOL    HW133900   6.020   7.120   5.841  0.1178 -1.4450  0.4599
 7392SOL    HW233901   5.880   7.178   5.839 -0.1638 -2.1115 -1.2788
 7393SOL     OW33902   2.758   2.942   5.923  0.0105 -0.2632  0.3932
 7393SOL    HW133903   2.848   2.975   5.924 -0.4604  1.0890 -0.3183
 7393SOL    HW233904   2.707   3.010   5.967 -0.8762 -0.3642 -0.4596
 7394SOL     OW33905   4.516   2.258   5.508 -0.3296 -0.7680 -0.1185
 7394SOL    HW133906   4.534   2.204   5.431 -0.4764  0.7063 -1.2424
 7394SOL    HW233907   4.602   2.281   5.543 -0.2743 -2.0020  0.5859
 7395SOL     OW33908   4.099   2.740   4.159  0.2632  0.1078  0.3251
 7395SOL    HW133909   4.152   2.783   4.090  0.8455 -3.7434 -1.9187
 7395SOL    HW233910   4.009   2.754   4.131  0.4446 -0.2003 -0.4551
 7396SOL     OW33911   2.791   6.791   0.663  0.7502  0.7077 -0.2243
 7396SOL    HW133912   2.758   6.879   0.681  2.6700  1.5982 -0.8018
 7396SOL    HW233913   2.855   6.803   0.592 -1.7898 -1.7164 -3.2155
 7397SOL     OW33914   1.682   2.276   4.363  0.3425  0.7194  0.4728
 7397SOL    HW133915   1.593   2.259   4.395  1.3317 -0.4117  2.8203
 7397SOL    HW233916   1.738   2.222   4.418  2.3818 -0.1842 -2.2867
 7398SOL     OW33917   6.565   6.330  10.866 -0.1156 -0.0809 -0.1069
 7398SOL    HW133918   6.495   6.380  10.909 -0.5698 -0.7016 -0.1036
 7398SOL    HW233919   6.594   6.268  10.933 -0.6414 -0.8756 -0.5983
 7399SOL     OW33920   9.411   1.012   2.647  0.3481 -0.6238 -0.7918
 7399SOL    HW133921   9.500   1.032   2.675  0.0420  0.1794 -0.3522
 7399SOL    HW233922   9.419   0.932   2.596  1.0921 -1.5129  0.6612
 7400SOL     OW33923   8.859   2.477   7.407 -0.3679 -0.0699 -0.1165
 7400SOL    HW133924   8.951   2.495   7.427 -0.8384  0.4052  1.8956
 7400SOL    HW233925   8.859   2.388   7.372  1.0541  0.6378 -2.1067
 7401SOL     OW33926   2.427   0.920   7.293 -0.0249  0.2593  0.4127
 7401SOL    HW133927   2.437   1.015   7.290 -0.6168  0.3108 -0.2319
 7401SOL    HW233928   2.359   0.901   7.228 -0.6624 -0.5032  1.2879
 7402SOL     OW33929   9.369   4.417  10.410 -0.0860  0.0171 -0.0143
 7402SOL    HW133930   9.324   4.482  10.463 -0.1175  0.2712 -0.3514
 7402SOL    HW233931   9.462   4.434  10.423 -0.0955  0.3080 -0.3189
 7403SOL     OW33932   4.548   9.545   8.214  0.1080  0.2413 -0.4341
 7403SOL    HW133933   4.486   9.473   8.230  0.2771  0.3871  0.9730
 7403SOL    HW233934   4.561   9.585   8.300  1.2060  1.0018 -0.9364
 7404SOL     OW33935   1.228  11.373   3.125  0.1121 -0.5166  0.5481
 7404SOL    HW133936   1.270  11.456   3.149  1.2769 -1.4854  1.9894
 7404SOL    HW233937   1.145  11.400   3.083 -0.2361  1.3560  2.2772
 7405SOL     OW33938   2.140   0.022   1.374  0.8708 -0.2424 -0.0286
 7405SOL    HW133939   2.105  -0.010   1.291  0.3294  2.5038 -0.9692
 7405SOL    HW233940   2.223   0.064   1.350 -1.2706  4.4975 -0.1652
 7406SOL     OW33941  11.425   6.271   4.622  0.3645 -0.6607 -0.2656
 7406SOL    HW133942  11.380   6.194   4.588  0.3998 -0.0659 -1.7272
 7406SOL    HW233943  11.506   6.237   4.660 -0.0252 -1.4319 -0.1187
 7407SOL     OW33944  10.049   8.438   8.147 -0.1256 -0.2390 -0.1087
 7407SOL    HW133945  10.044   8.523   8.104  0.6860  0.2617  0.7438
 7407SOL    HW233946   9.977   8.439   8.210  0.4365  0.1937  0.5353
 7408SOL     OW33947   1.677   3.309  10.710  0.3432  0.6751 -0.4664
 7408SOL    HW133948   1.652   3.304  10.617  0.3910  0.4310 -0.4667
 7408SOL    HW233949   1.771   3.295  10.710  0.3003  0.3859 -0.3551
 7409SOL     OW33950   7.740   2.492   4.891 -0.1065  0.1087 -0.1443
 7409SOL    HW133951   7.745   2.574   4.842 -1.4390 -1.9600 -4.1760
 7409SOL    HW233952   7.820   2.444   4.866 -0.6587 -0.8928 -0.0343
 7410SOL     OW33953   4.036   4.776   8.800  0.2279  0.4760 -0.0590
 7410SOL    HW133954   4.130   4.771   8.788  0.0891 -1.1598 -0.8196
 7410SOL    HW233955   4.017   4.869   8.807  1.8862  0.8294  0.1097
 7411SOL     OW33956   1.047   2.845   0.638  0.1884  0.1052 -0.2554
 7411SOL    HW133957   1.131   2.829   0.681 -0.4720  0.1614  1.1216
 7411SOL    HW233958   0.983   2.835   0.708 -0.8699  1.0931 -1.0541
 7412SOL     OW33959   1.442   7.968   2.538  0.1738  0.0429 -0.7411
 7412SOL    HW133960   1.503   8.022   2.588 -0.4267 -0.5699  0.7370
 7412SOL    HW233961   1.359   8.016   2.542 -0.3660 -0.9357  0.5874
 7413SOL     OW33962   3.176   6.491   0.512  0.2661  0.2162  0.0185
 7413SOL    HW133963   3.210   6.536   0.589  0.6391  0.4477 -0.2770
 7413SOL    HW233964   3.091   6.457   0.540  1.6929 -2.4050  1.5148
 7414SOL     OW33965   9.595  10.090   4.924  0.7907  0.6855  0.3755
 7414SOL    HW133966   9.667  10.143   4.890  1.6772 -0.2429  0.7428
 7414SOL    HW233967   9.624   9.999   4.910  0.0460  0.3007  1.2499
 7415SOL     OW33968   0.711  11.122   4.649  0.3176 -0.2792 -0.0334
 7415SOL    HW133969   0.757  11.062   4.707  1.5134  0.0159 -0.6379
 7415SOL    HW233970   0.765  11.124   4.569  0.1415  1.3216 -0.1431
 7416SOL     OW33971   5.720  10.057   2.878  0.1990  0.4837  0.0912
 7416SOL    HW133972   5.670  10.092   2.951  0.6773  1.5389 -0.0676
 7416SOL    HW233973   5.669   9.982   2.847 -1.9370  2.2261 -0.8497
 7417SOL     OW33974   1.903   9.701   8.444  0.3360  0.0844  0.0382
 7417SOL    HW133975   1.979   9.681   8.389  0.9141 -0.2485  0.9476
 7417SOL    HW233976   1.850   9.621   8.442  0.0211  0.2992 -0.5541
 7418SOL     OW33977   6.594   2.071   3.088 -0.9660 -0.5205  0.3344
 7418SOL    HW133978   6.568   2.160   3.107  0.6318  0.2817 -0.9706
 7418SOL    HW233979   6.612   2.032   3.173  0.5424  1.1597  0.8546
 7419SOL     OW33980   1.219   7.332   6.281 -0.1879 -0.1618 -0.2440
 7419SOL    HW133981   1.272   7.255   6.303  1.0641  0.7821  0.1904
 7419SOL    HW233982   1.229   7.390   6.357 -0.3582  0.8077 -0.9377
 7420SOL     OW33983   9.263   3.947   1.467  0.0442  0.7193  0.3814
 7420SOL    HW133984   9.243   4.010   1.536 -2.6999  0.3714  0.0265
 7420SOL    HW233985   9.301   3.872   1.513 -2.6792  0.0689  1.7864
 7421SOL     OW33986   6.086   7.696   8.484 -0.5361 -0.0629  0.1366
 7421SOL    HW133987   6.072   7.727   8.394 -1.2011  0.8095  0.5319
 7421SOL    HW233988   6.052   7.766   8.539 -0.0546 -0.5557  1.0810
 7422SOL     OW33989  10.331   2.953   7.189 -0.0851  0.1937 -0.3411
 7422SOL    HW133990  10.301   2.873   7.145 -1.1147  0.5749 -0.3733
 7422SOL    HW233991  10.255   3.011   7.187 -0.8202 -0.3716  3.4987
 7423SOL     OW33992   7.052   2.930   2.052  0.0072 -0.4162  0.2041
 7423SOL    HW133993   7.090   2.979   2.124 -0.3862 -0.0526  0.1672
 7423SOL    HW233994   6.958   2.927   2.071 -0.5332  1.9754 -1.6015
 7424SOL     OW33995   1.666   0.045   7.061  0.5495 -0.3208 -0.3022
 7424SOL    HW133996   1.716   0.015   6.985  1.7454  3.8303 -1.4564
 7424SOL    HW233997   1.727   0.104   7.107 -1.5627  0.7262  1.3222
 7425SOL     OW33998   6.206   0.681   1.464 -0.1781 -0.1066  0.1072
 7425SOL    HW133999   6.208   0.586   1.469 -1.7658 -0.1512  4.0286
 7425SOL    HW234000   6.259   0.710   1.538  0.6268  2.1198 -1.2414
 7426SOL     OW34001   6.083   0.825   5.394  0.3467  0.6508  0.5503
 7426SOL    HW134002   6.037   0.756   5.346 -1.5981  0.5312  2.3931
 7426SOL    HW234003   6.134   0.778   5.460  0.0685  0.8892  0.9469
 7427SOL     OW34004   6.005  11.733   0.183  0.0055  0.1549  0.1011
 7427SOL    HW134005   6.045  11.803   0.131  2.0435 -2.2517 -1.8680
 7427SOL    HW234006   5.950  11.685   0.121 -1.0356 -0.2587  1.3002
 7428SOL     OW34007   1.877   9.073   7.439 -0.1880 -0.4079  0.9545
 7428SOL    HW134008   1.832   9.106   7.362  0.2539  1.2823  1.3911
 7428SOL    HW234009   1.819   9.005   7.473 -1.3520  0.2194  0.2813
 7429SOL     OW34010   1.612   7.492   1.612  0.4622 -0.5575 -0.5255
 7429SOL    HW134011   1.614   7.565   1.674 -0.4130  0.3772 -1.5432
 7429SOL    HW234012   1.689   7.506   1.557  0.3694 -0.4771 -0.6351
 7430SOL     OW34013   6.526   5.273  11.208  0.2681  0.0300 -0.4886
 7430SOL    HW134014   6.610   5.270  11.254  0.1873 -0.8845 -0.3797
 7430SOL    HW234015   6.485   5.354  11.238  0.3423 -0.4056  0.8460
 7431SOL     OW34016   1.655  11.449  10.079  0.0792  0.1091 -0.5795
 7431SOL    HW134017   1.658  11.401  10.162  0.4053  0.3925 -0.4255
 7431SOL    HW234018   1.667  11.382  10.012 -0.1569 -0.1172 -0.3978
 7432SOL     OW34019   6.438   0.404   7.341  0.1597  0.7046  0.0921
 7432SOL    HW134020   6.512   0.363   7.386 -0.2309  1.3136  1.3358
 7432SOL    HW234021   6.426   0.487   7.387 -0.5753  1.1251 -0.8423
 7433SOL     OW34022   7.802   8.397  11.461  0.1789 -0.0853  0.0704
 7433SOL    HW134023   7.768   8.481  11.493  0.1879  0.1047 -0.4034
 7433SOL    HW234024   7.730   8.360  11.409  0.2754 -0.2382  0.0439
 7434SOL     OW34025   5.378   8.329   3.580  0.1512  0.6211 -0.0856
 7434SOL    HW134026   5.469   8.355   3.592  1.0645 -2.0941 -0.3634
 7434SOL    HW234027   5.369   8.249   3.632 -2.2394  1.0804  0.3116
 7435SOL     OW34028  11.508   2.425   2.161  0.4541 -0.2395 -0.1924
 7435SOL    HW134029  11.556   2.382   2.232 -1.2964 -2.1593 -0.0638
 7435SOL    HW234030  11.516   2.364   2.087 -1.4736 -0.4965 -0.2412
 7436SOL     OW34031   5.846   1.023   1.832 -0.4786 -0.1166  0.1324
 7436SOL    HW134032   5.782   0.966   1.874 -0.9110 -0.3468 -0.8147
 7436SOL    HW234033   5.906   0.962   1.787  0.2407  0.1062  0.7660
 7437SOL     OW34034   3.925   9.964   3.415 -0.6431 -0.2658  0.2215
 7437SOL    HW134035   3.894   9.877   3.438  1.8063 -1.5530 -1.0491
 7437SOL    HW234036   3.900   9.975   3.323 -1.3122  0.5966  0.4870
 7438SOL     OW34037  11.575   5.562   6.910  0.1656  0.0929  0.2745
 7438SOL    HW134038  11.485   5.553   6.941 -0.1973  0.9293 -0.5055
 7438SOL    HW234039  11.576   5.645   6.863  0.8260 -0.8844 -1.5134
 7439SOL     OW34040  10.093   0.793   5.585 -0.2349  0.0619 -0.5959
 7439SOL    HW134041  10.020   0.761   5.532 -0.7930  0.0320  0.1766
 7439SOL    HW234042  10.109   0.725   5.649  0.2977  0.1926 -0.5809
 7440SOL     OW34043   1.914   6.229   7.961 -0.1186  0.4013  0.0660
 7440SOL    HW134044   1.852   6.165   7.997  0.4402 -0.6465 -0.7918
 7440SOL    HW234045   1.950   6.273   8.038 -1.8211  0.9595  0.5979
 7441SOL     OW34046   0.891   4.162  11.456  0.3466 -0.0728  0.0136
 7441SOL    HW134047   0.929   4.249  11.467  0.4992  0.0117 -1.0391
 7441SOL    HW234048   0.802   4.178  11.425  1.2946 -0.2186 -3.1863
 7442SOL     OW34049   0.922   2.679  10.420 -0.2287  0.9252 -0.3045
 7442SOL    HW134050   0.863   2.667  10.346 -1.3949 -2.3402  0.9564
 7442SOL    HW234051   0.994   2.619  10.403 -0.1653  0.6493  0.8281
 7443SOL     OW34052   6.783  10.348   3.739 -0.2898 -0.2220  0.0800
 7443SOL    HW134053   6.700  10.377   3.777  0.4547 -1.1320  2.6515
 7443SOL    HW234054   6.838  10.426   3.741 -0.2574 -0.2544  0.9773
 7444SOL     OW34055  11.584   5.404   1.179  0.2468  0.2261  0.1920
 7444SOL    HW134056  11.503   5.385   1.226  0.6056 -0.5700  0.5148
 7444SOL    HW234057  11.650   5.349   1.222  0.8795  0.5929 -0.2955
 7445SOL     OW34058   2.984   9.308   3.585 -0.4988 -0.2190  0.7772
 7445SOL    HW134059   2.893   9.285   3.572 -0.1883 -0.8399 -0.4149
 7445SOL    HW234060   2.993   9.393   3.541 -0.3306 -0.5319  0.1939
 7446SOL     OW34061   7.022  10.802   8.636 -0.2972  0.5481  0.4348
 7446SOL    HW134062   7.060  10.717   8.612 -0.1099  0.7795 -0.1135
 7446SOL    HW234063   7.091  10.847   8.684 -0.8071 -0.0697  1.7898
 7447SOL     OW34064   7.908   6.162   5.330 -0.0077  0.0296 -0.1171
 7447SOL    HW134065   7.993   6.126   5.303  0.3463  0.3534  0.5439
 7447SOL    HW234066   7.879   6.104   5.400 -0.2175  0.0675 -0.1712
 7448SOL     OW34067  10.911   9.605   3.449  0.2092  0.1142 -0.1723
 7448SOL    HW134068  10.968   9.636   3.520 -1.0433  0.5316  0.6786
 7448SOL    HW234069  10.887   9.516   3.475 -0.4086  0.3389  0.0299
 7449SOL     OW34070   8.370   4.323   4.143 -0.1461  0.4903 -0.2281
 7449SOL    HW134071   8.403   4.270   4.216  0.8123  1.4221  0.0312
 7449SOL    HW234072   8.286   4.356   4.174  0.2333  0.8427  0.4476
 7450SOL     OW34073   5.327   2.901   8.602  0.1542  0.0741  0.2442
 7450SOL    HW134074   5.394   2.941   8.547  0.4333 -0.7657 -0.0538
 7450SOL    HW234075   5.334   2.807   8.584 -1.3141 -0.0096 -0.0310
 7451SOL     OW34076   5.864   8.354   4.057 -0.3528 -0.1253  0.6518
 7451SOL    HW134077   5.895   8.373   4.146 -0.9786 -2.2351  1.3880
 7451SOL    HW234078   5.942   8.323   4.011 -0.2661 -0.2177  0.8559
 7452SOL     OW34079   6.512   9.802   1.337  0.1057 -0.1551  0.0451
 7452SOL    HW134080   6.439   9.839   1.388 -0.9993 -1.3586 -0.5898
 7452SOL    HW234081   6.567   9.758   1.401  0.1317  0.5247  0.4976
 7453SOL     OW34082   0.941   0.623   7.482  0.1070  0.0591  0.2689
 7453SOL    HW134083   0.870   0.671   7.438  0.5132  0.1521 -0.2887
 7453SOL    HW234084   0.961   0.677   7.559  0.3414  0.6227 -0.1780
 7454SOL     OW34085   7.771   0.485  11.161 -0.2315 -0.7533 -0.2522
 7454SOL    HW134086   7.827   0.422  11.117 -0.0301 -0.0596 -1.0031
 7454SOL    HW234087   7.824   0.518  11.234 -1.1850 -3.2079  1.6866
 7455SOL     OW34088   3.701   1.153   9.675 -0.2241  0.3934 -0.6361
 7455SOL    HW134089   3.761   1.148   9.750 -1.3920  1.0700  0.3691
 7455SOL    HW234090   3.615   1.166   9.713 -0.8325  0.9570 -2.1135
 7456SOL     OW34091   9.321   1.148   9.957 -0.5855  0.1975  0.2519
 7456SOL    HW134092   9.262   1.128  10.030  0.2458 -0.9770  0.6256
 7456SOL    HW234093   9.275   1.114   9.880 -0.3062 -0.9224  0.5699
 7457SOL     OW34094   9.472   3.958   7.500 -0.3890 -0.2537  0.5893
 7457SOL    HW134095   9.485   3.988   7.590  0.7827  0.6786  0.1355
 7457SOL    HW234096   9.491   4.035   7.446  1.3100 -1.3955 -0.5514
 7458SOL     OW34097   7.886   2.071   1.943 -0.0004 -0.0312  0.1263
 7458SOL    HW134098   7.932   1.987   1.949  0.3359  0.0885 -0.7462
 7458SOL    HW234099   7.811   2.052   1.887  0.2679  0.3395 -0.3557
 7459SOL     OW34100   2.715   6.927   2.112 -0.3008  0.0691 -0.4155
 7459SOL    HW134101   2.705   7.016   2.144 -1.6987 -0.7440  1.5720
 7459SOL    HW234102   2.667   6.926   2.029 -0.5731  1.0598 -0.2808
 7460SOL     OW34103   5.912   1.198   3.108  0.4606 -0.3231  0.0788
 7460SOL    HW134104   5.948   1.115   3.139 -0.7374 -0.5504  0.9468
 7460SOL    HW234105   5.832   1.173   3.062  0.1799  0.3362  0.2035
 7461SOL     OW34106  11.224   6.659   6.581 -0.6468  0.6459 -0.3566
 7461SOL    HW134107  11.288   6.621   6.521 -0.2564 -0.1506  0.5346
 7461SOL    HW234108  11.229   6.753   6.564  0.5324  0.5752 -0.5426
 7462SOL     OW34109   2.003   4.959   4.622 -0.0800 -0.3454  0.1894
 7462SOL    HW134110   1.926   4.912   4.589  0.5014 -0.5537 -0.9241
 7462SOL    HW234111   1.971   5.047   4.642 -0.7776 -0.6686  0.5258
 7463SOL     OW34112  10.654   4.653   8.852 -0.3235 -0.1389 -1.0599
 7463SOL    HW134113  10.675   4.594   8.924 -1.4375 -1.3359 -1.6881
 7463SOL    HW234114  10.609   4.727   8.894  0.5435  0.0133 -0.3513
 7464SOL     OW34115  10.183   8.031   1.108  0.3876 -0.4850 -0.5940
 7464SOL    HW134116  10.139   7.966   1.163 -1.1433  0.7114 -0.3439
 7464SOL    HW234117  10.209   8.100   1.169  2.6710 -1.1475 -0.7396
 7465SOL     OW34118  11.263   6.424   5.115  0.1023 -0.1908 -0.0360
 7465SOL    HW134119  11.305   6.435   5.030 -0.3292  0.1417 -0.2124
 7465SOL    HW234120  11.316   6.359   5.160 -1.8672 -3.4728 -2.0315
 7466SOL     OW34121   5.881  10.232  10.262  0.5490 -0.5968 -0.1357
 7466SOL    HW134122   5.941  10.185  10.319 -1.0342 -1.5455  0.8328
 7466SOL    HW234123   5.933  10.304  10.226  1.7046 -0.1414  2.2393
 7467SOL     OW34124   8.361   1.343   9.864 -0.2870 -0.0757 -0.9324
 7467SOL    HW134125   8.286   1.345   9.804 -0.0412 -0.7569 -1.2743
 7467SOL    HW234126   8.425   1.400   9.822 -0.5454  0.3764 -0.7237
 7468SOL     OW34127   5.695  11.231   3.321 -0.2006 -0.6735  0.6954
 7468SOL    HW134128   5.653  11.178   3.253  0.5638 -0.6382  0.1831
 7468SOL    HW234129   5.782  11.193   3.330  1.8578  2.6951 -2.4210
 7469SOL     OW34130   5.872   4.859   4.692  0.3299  0.5632 -0.3684
 7469SOL    HW134131   5.944   4.915   4.662  0.6606 -0.6288 -1.9349
 7469SOL    HW234132   5.802   4.875   4.629 -0.0323  0.1783 -0.0691
 7470SOL     OW34133   3.206   4.226   2.063  0.3592 -0.2268  0.4479
 7470SOL    HW134134   3.177   4.314   2.041  3.2993  1.2346  1.8583
 7470SOL    HW234135   3.136   4.190   2.117 -1.5128  0.6336 -1.2601
 7471SOL     OW34136   7.010   2.206   2.490 -0.1385 -0.8095 -0.3661
 7471SOL    HW134137   6.920   2.185   2.515 -0.6960 -0.5608 -2.0022
 7471SOL    HW234138   7.033   2.140   2.425  1.6294 -2.0925  1.4557
 7472SOL     OW34139   2.184   4.451   5.099  0.0715  0.2313 -0.0127
 7472SOL    HW134140   2.274   4.438   5.070 -0.0910 -0.0476 -0.3949
 7472SOL    HW234141   2.135   4.380   5.059 -0.4638  0.8524 -0.4875
 7473SOL     OW34142   0.767   0.888   6.567  0.0907  0.4977 -0.1712
 7473SOL    HW134143   0.758   0.928   6.480  3.7458  0.9282 -0.5168
 7473SOL    HW234144   0.743   0.796   6.554  2.0851  0.1646 -2.1332
 7474SOL     OW34145   3.044   2.418   5.877  0.1990 -0.5293  0.8851
 7474SOL    HW134146   3.134   2.419   5.846  0.1766  0.6073  0.8160
 7474SOL    HW234147   2.998   2.480   5.820 -0.3341 -0.0980  1.7584
 7475SOL     OW34148   2.003   7.636   5.787  0.2010  0.0514  0.0824
 7475SOL    HW134149   2.024   7.572   5.854 -1.1569 -0.9051 -0.3676
 7475SOL    HW234150   2.026   7.721   5.826  2.9290 -0.7161  0.3209
 7476SOL     OW34151   8.000  11.791  11.535 -0.1578  0.0334  0.3839
 7476SOL    HW134152   8.055  11.714  11.542 -0.3633 -0.3868 -1.8505
 7476SOL    HW234153   7.911  11.758  11.540 -0.2514  0.0508 -0.7851
 7477SOL     OW34154   7.963   3.673   7.124 -0.1653 -0.5390  0.2999
 7477SOL    HW134155   7.985   3.755   7.080 -2.8241 -0.7318 -1.6526
 7477SOL    HW234156   7.989   3.605   7.062  1.3546 -1.2047  1.6009
 7478SOL     OW34157   8.598   2.312   1.599 -0.1722  0.7390  0.3917
 7478SOL    HW134158   8.581   2.376   1.529 -0.1517 -1.3138 -1.5982
 7478SOL    HW234159   8.694   2.304   1.600 -0.2062  0.3133  0.2156
 7479SOL     OW34160  10.773   9.837   9.250 -0.3968 -0.0508  0.3932
 7479SOL    HW134161  10.712   9.852   9.322 -0.1327 -0.7691  0.7814
 7479SOL    HW234162  10.821   9.758   9.276  1.8113  1.3587  0.8814
 7480SOL     OW34163   8.485   5.965   5.289  1.2139 -0.4350 -0.2244
 7480SOL    HW134164   8.469   5.881   5.245  1.9255 -1.1096  0.7498
 7480SOL    HW234165   8.410   5.976   5.347  1.6150 -0.9182  0.3968
 7481SOL     OW34166   0.434   1.311   6.140  0.0702  0.0391 -0.2118
 7481SOL    HW134167   0.514   1.260   6.155  1.5717  2.0828 -0.6708
 7481SOL    HW234168   0.434   1.375   6.211 -0.7056  0.5934 -0.7006
 7482SOL     OW34169   5.909   3.730   0.931  0.2187 -0.3479  0.2153
 7482SOL    HW134170   5.865   3.699   0.852  0.9103 -0.6666 -0.0507
 7482SOL    HW234171   5.960   3.806   0.902  0.3881 -0.3992  0.3793
 7483SOL     OW34172   1.557   1.886  11.483  0.4679 -0.6426 -0.4763
 7483SOL    HW134173   1.510   1.805  11.503 -0.8187  0.2246  0.1376
 7483SOL    HW234174   1.631   1.886  11.543 -0.2635 -0.7404  0.4491
 7484SOL     OW34175   6.588   2.913   8.707  0.3542 -0.0322 -0.7469
 7484SOL    HW134176   6.648   2.978   8.743  1.0204  0.1936 -2.1992
 7484SOL    HW234177   6.514   2.963   8.675  0.7648  0.0036 -1.6621
 7485SOL     OW34178   5.090   0.849   8.490  0.6220 -0.1635 -0.1701
 7485SOL    HW134179   5.103   0.769   8.541  1.1648  1.2174  1.9317
 7485SOL    HW234180   5.088   0.919   8.554 -2.1121  1.3440 -1.7159
 7486SOL     OW34181  11.230   1.593   1.053 -0.3956 -0.4146 -1.0401
 7486SOL    HW134182  11.270   1.647   0.985 -0.0418  0.7758  0.0768
 7486SOL    HW234183  11.171   1.653   1.099  0.0414 -0.9517  0.2602
 7487SOL     OW34184  11.746   4.442   7.207  0.2630 -0.0791 -0.3566
 7487SOL    HW134185  11.829   4.400   7.229  0.8424  1.4391  0.5152
 7487SOL    HW234186  11.714   4.478   7.291 -1.5443 -1.0497 -0.5685
 7488SOL     OW34187   6.126   6.668   8.793 -0.1663  0.6362  0.2383
 7488SOL    HW134188   6.128   6.598   8.858  1.3668 -0.3965 -0.8524
 7488SOL    HW234189   6.210   6.712   8.802 -0.4088  1.2162 -0.2673
 7489SOL     OW34190   7.479   8.895   8.587  0.1194 -0.3404 -0.1466
 7489SOL    HW134191   7.462   8.873   8.678 -0.9889  0.3195 -0.1819
 7489SOL    HW234192   7.533   8.822   8.555  1.1088 -0.2434  1.1946
 7490SOL     OW34193   1.165   3.019   6.670 -0.0314  0.3211  0.2264
 7490SOL    HW134194   1.174   3.086   6.602 -0.4434  0.8767  0.7056
 7490SOL    HW234195   1.137   2.940   6.623 -2.3901  1.2295 -0.0395
 7491SOL     OW34196  10.157   6.356   6.993  0.1627  0.1049 -0.0825
 7491SOL    HW134197  10.119   6.313   7.070  0.3386  1.3241  0.7232
 7491SOL    HW234198  10.251   6.341   7.002  0.1429 -0.1679 -0.3252
 7492SOL     OW34199   0.583   2.582   1.834  0.6399  0.3746  0.2179
 7492SOL    HW134200   0.594   2.498   1.880  1.4125 -0.1039 -0.7995
 7492SOL    HW234201   0.578   2.558   1.742 -1.5460  1.2649  0.0433
 7493SOL     OW34202   3.167   3.235   1.191 -0.0661  0.3644 -0.1386
 7493SOL    HW134203   3.125   3.215   1.275 -0.7974  0.8772 -0.3798
 7493SOL    HW234204   3.130   3.171   1.130  1.4866 -0.9220  0.1976
 7494SOL     OW34205   5.617   0.693   2.659 -0.9705 -0.3986 -0.8097
 7494SOL    HW134206   5.626   0.617   2.716  0.7202 -0.7375 -1.4622
 7494SOL    HW234207   5.685   0.681   2.592 -0.0874  2.0536 -0.4610
 7495SOL     OW34208   3.146   4.533   6.456 -0.7205  0.5823  0.3975
 7495SOL    HW134209   3.190   4.572   6.532  3.9484 -1.0400 -1.0964
 7495SOL    HW234210   3.130   4.607   6.398 -2.4059  1.5617  2.0038
 7496SOL     OW34211   6.979   1.450   5.928 -0.0988 -0.5921 -0.0565
 7496SOL    HW134212   7.052   1.495   5.970 -0.3400  1.2788 -1.4953
 7496SOL    HW234213   6.925   1.520   5.892 -1.4613 -2.0069 -0.9187
 7497SOL     OW34214  11.009   7.146   6.481 -0.0192 -0.0498 -0.1047
 7497SOL    HW134215  10.983   7.054   6.489 -1.5951  0.2770 -1.0455
 7497SOL    HW234216  10.992   7.183   6.568 -0.9396 -0.2884 -0.1734
 7498SOL     OW34217   7.099   5.953   0.949 -0.3270 -0.2023 -0.2013
 7498SOL    HW134218   7.156   6.029   0.949  2.5776 -2.1716  1.8809
 7498SOL    HW234219   7.144   5.888   1.003 -2.8978 -3.2304 -1.3180
 7499SOL     OW34220   4.694   1.307   6.789  0.6029 -0.3733 -0.3001
 7499SOL    HW134221   4.700   1.370   6.861 -0.6062 -0.8331  0.2382
 7499SOL    HW234222   4.734   1.352   6.715  0.9037  0.5355  0.3881
 7500SOL     OW34223   3.321  10.162   5.428  0.0046  0.0060  0.3222
 7500SOL    HW134224   3.312  10.169   5.333 -1.5755  0.5481  0.4804
 7500SOL    HW234225   3.389  10.097   5.441  0.4717  0.1606 -1.1859
 7501SOL     OW34226   3.285   2.532   7.201  0.1742  0.1315  0.0184
 7501SOL    HW134227   3.243   2.586   7.134  1.5747  1.5364  0.2414
 7501SOL    HW234228   3.213   2.507   7.259 -0.5087  1.7649 -0.0866
 7502SOL     OW34229   1.828   2.202  10.119 -0.1734  0.8577 -0.8487
 7502SOL    HW134230   1.859   2.137  10.056 -2.7758 -0.4611 -0.9110
 7502SOL    HW234231   1.740   2.224  10.089 -1.2300  0.7314  1.9079
 7503SOL     OW34232   2.992   5.606   2.413  0.3191  0.0391 -0.3884
 7503SOL    HW134233   3.081   5.605   2.449  0.3587  0.0650 -0.4848
 7503SOL    HW234234   3.001   5.648   2.328  0.1881  0.1837 -0.3311
 7504SOL     OW34235   4.334   5.562  11.884  0.0070 -0.1496  0.0930
 7504SOL    HW134236   4.377   5.514  11.955  2.1651  0.2794 -0.8447
 7504SOL    HW234237   4.386   5.541  11.806 -1.5286  0.4167 -1.1256
 7505SOL     OW34238   8.466   5.384   4.323 -0.1766  0.0527 -0.8353
 7505SOL    HW134239   8.372   5.372   4.306 -0.0292 -0.0026 -1.6210
 7505SOL    HW234240   8.482   5.333   4.402 -0.7030 -0.3891 -1.0058
 7506SOL     OW34241   0.516   7.215   5.161  0.2713  0.0316  0.2759
 7506SOL    HW134242   0.579   7.227   5.232  0.2384  0.1941  0.2784
 7506SOL    HW234243   0.529   7.124   5.132  1.1878  0.3619 -0.3867
 7507SOL     OW34244   6.097   2.641   7.825  0.8652 -0.2628 -0.1770
 7507SOL    HW134245   6.131   2.634   7.914 -3.3871  0.7345  1.7772
 7507SOL    HW234246   6.109   2.733   7.803 -0.9383  0.2503  0.7935
 7508SOL     OW34247  10.634   2.245   2.973 -0.0340  0.1697 -0.3814
 7508SOL    HW134248  10.656   2.337   2.954 -1.2658  0.7153  0.6497
 7508SOL    HW234249  10.664   2.231   3.062 -0.0248 -0.3728 -0.4678
 7509SOL     OW34250   1.076   1.573   7.695 -0.3080  0.5720  0.3597
 7509SOL    HW134251   0.982   1.563   7.708 -0.1041 -2.3609  0.1942
 7509SOL    HW234252   1.113   1.564   7.783 -0.1669  1.7811  0.4320
 7510SOL     OW34253   7.772   8.283   8.483 -0.5107 -0.0215 -0.6393
 7510SOL    HW134254   7.785   8.282   8.388 -0.7378  1.0339 -0.6952
 7510SOL    HW234255   7.842   8.339   8.516  0.9395 -2.1489  0.0698
 7511SOL     OW34256   4.950   9.396  11.647  0.0829  0.2143  0.1289
 7511SOL    HW134257   4.905   9.452  11.710 -0.6139  0.2330 -0.3738
 7511SOL    HW234258   4.914   9.309  11.663 -1.7607  0.5821 -1.7033
 7512SOL     OW34259   8.035   4.525   5.889  0.1109 -0.0543  0.0511
 7512SOL    HW134260   8.032   4.550   5.982 -2.2395 -0.5782  0.1566
 7512SOL    HW234261   7.953   4.479   5.873 -0.2464  1.3320 -2.6807
 7513SOL     OW34262   9.570   8.803   2.793 -0.3166  0.2764  0.2387
 7513SOL    HW134263   9.518   8.766   2.721 -0.5026 -0.2558  0.6423
 7513SOL    HW234264   9.613   8.728   2.833  0.3509  0.6534  0.2457
 7514SOL     OW34265   7.112   2.342   4.308  0.1309  0.6628 -0.0980
 7514SOL    HW134266   7.116   2.312   4.217 -1.2559  1.3992 -0.4264
 7514SOL    HW234267   7.020   2.332   4.332  0.6328 -0.3607  1.5347
 7515SOL     OW34268  10.491   3.016   0.794 -0.3302 -0.3290  0.3880
 7515SOL    HW134269  10.502   2.937   0.847 -0.3658  0.4311  1.5862
 7515SOL    HW234270  10.567   3.070   0.815  0.7332 -0.8235 -1.9119
 7516SOL     OW34271  11.759   7.015   6.131  0.1638  0.2443 -0.4198
 7516SOL    HW134272  11.737   7.042   6.220  0.8910  1.8992 -0.6907
 7516SOL    HW234273  11.723   6.927   6.122  0.9613 -0.3653  1.8255
 7517SOL     OW34274   2.748   6.330   2.474 -0.0126  0.0597 -0.3295
 7517SOL    HW134275   2.710   6.418   2.467  0.7204  0.3893 -0.2435
 7517SOL    HW234276   2.842   6.345   2.470  0.1517 -0.6194  0.8951
 7518SOL     OW34277   7.989  11.714  11.174  0.7432  0.0677  0.5809
 7518SOL    HW134278   7.983  11.621  11.152  1.4069  0.3421 -0.8773
 7518SOL    HW234279   7.960  11.719  11.265  1.6669 -1.7115  1.0254
 7519SOL     OW34280   8.701  11.223  10.592 -0.2077  0.6728 -0.1428
 7519SOL    HW134281   8.608  11.207  10.577 -0.3378 -0.5667  1.6163
 7519SOL    HW234282   8.746  11.151  10.547 -0.1838  0.6877 -0.1441
 7520SOL     OW34283  10.230   8.673   6.804  0.1226  0.5202 -0.4579
 7520SOL    HW134284  10.260   8.760   6.828 -1.4172  1.0920 -0.4899
 7520SOL    HW234285  10.235   8.670   6.709  1.1601  0.1753 -0.4078
 7521SOL     OW34286   9.767  11.739   4.049  0.4666 -0.3458  0.1748
 7521SOL    HW134287   9.825  11.800   4.094 -0.2579  0.2427  0.3451
 7521SOL    HW234288   9.813  11.656   4.049  1.2745  0.0965  0.3554
 7522SOL     OW34289   3.536   0.581  10.176  0.5817 -0.0794 -0.0281
 7522SOL    HW134290   3.475   0.513  10.204  0.4361 -0.2715 -0.8011
 7522SOL    HW234291   3.535   0.645  10.248 -2.0871  0.9434 -0.8700
 7523SOL     OW34292   5.724   3.161   3.544 -0.6427  0.5477  0.1654
 7523SOL    HW134293   5.664   3.232   3.523  0.0450  1.5135  1.3806
 7523SOL    HW234294   5.698   3.090   3.485 -2.4482  1.1988  0.1171
 7524SOL     OW34295  11.714   4.596   3.755 -0.0985  0.1148 -0.3197
 7524SOL    HW134296  11.654   4.521   3.746 -1.3257  0.8434  1.3896
 7524SOL    HW234297  11.665   4.670   3.720 -0.5110  0.8333  1.6449
 7525SOL     OW34298   8.456   8.875  11.082 -0.1609  0.0776  0.1904
 7525SOL    HW134299   8.517   8.869  11.008 -0.4572  0.5429 -0.1007
 7525SOL    HW234300   8.383   8.927  11.048 -1.6095 -2.0284 -0.0490
 7526SOL     OW34301  11.141   5.470   6.317 -0.7340 -0.3046 -0.2028
 7526SOL    HW134302  11.087   5.439   6.389 -0.8364  0.4914  0.0776
 7526SOL    HW234303  11.156   5.563   6.336 -0.2977 -0.2149 -0.9164
 7527SOL     OW34304   9.532   6.509   7.243 -0.2151  0.0835 -0.1396
 7527SOL    HW134305   9.602   6.445   7.237  0.2618  0.6887 -1.4479
 7527SOL    HW234306   9.520   6.523   7.337 -0.3600 -1.9100  0.1730
 7528SOL     OW34307   7.358   6.969   6.982  0.3016 -0.3338  0.2751
 7528SOL    HW134308   7.271   6.952   6.947  0.2904 -1.9993  1.0453
 7528SOL    HW234309   7.351   7.056   7.022 -1.7974 -1.4365  2.6106
 7529SOL     OW34310   1.270   0.336   1.907  0.1902  0.1307 -0.3906
 7529SOL    HW134311   1.209   0.262   1.902  1.5185 -1.2175  1.6621
 7529SOL    HW234312   1.357   0.297   1.904  0.9779  1.2364  2.8927
 7530SOL     OW34313  11.347   2.523  11.599  0.0990 -0.1684  0.1746
 7530SOL    HW134314  11.297   2.591  11.555  0.1233  0.0194  0.4332
 7530SOL    HW234315  11.291   2.445  11.594  0.1781 -0.1933 -0.3348
 7531SOL     OW34316   8.924   6.667  11.334 -0.5680  0.5302 -0.5037
 7531SOL    HW134317   8.988   6.676  11.405 -1.8320  1.1451  0.5964
 7531SOL    HW234318   8.884   6.581  11.348 -1.8246  1.2266  0.4460
 7532SOL     OW34319   4.406   0.286   8.111 -0.0017 -0.1383  0.2261
 7532SOL    HW134320   4.383   0.339   8.187 -1.1224  0.8678 -0.7702
 7532SOL    HW234321   4.424   0.350   8.042  2.4011 -0.9912 -0.0247
 7533SOL     OW34322   6.851   5.545   6.671  0.3586  0.3383  0.5190
 7533SOL    HW134323   6.925   5.497   6.707  0.8744  0.8883  0.2204
 7533SOL    HW234324   6.862   5.539   6.576 -0.5983 -0.5071  0.4398
 7534SOL     OW34325   5.480   3.311   9.598  0.4309  0.6221 -0.1274
 7534SOL    HW134326   5.395   3.354   9.602  0.6386  0.9856  0.5079
 7534SOL    HW234327   5.471   3.233   9.653  0.5048  0.6500 -0.0755
 7535SOL     OW34328   9.278   2.395   1.712 -0.1290 -0.2447  0.1939
 7535SOL    HW134329   9.203   2.425   1.660 -0.2647  2.0132  1.5527
 7535SOL    HW234330   9.344   2.370   1.647 -0.8129  1.0926 -1.0692
 7536SOL     OW34331   1.945  11.507   3.177 -0.4066 -0.6078  0.0578
 7536SOL    HW134332   1.943  11.571   3.248 -0.9106 -0.6840  0.1215
 7536SOL    HW234333   2.035  11.476   3.174 -0.4898 -0.9701  1.0037
 7537SOL     OW34334   4.831  11.246   3.078  0.2376 -0.2473 -0.1337
 7537SOL    HW134335   4.903  11.302   3.108  0.7967 -0.7888 -0.4459
 7537SOL    HW234336   4.777  11.304   3.024  1.4718 -0.2873 -1.4718
 7538SOL     OW34337   9.892   5.894   8.551 -0.0142 -0.3716 -0.7183
 7538SOL    HW134338   9.900   5.848   8.468 -1.5702 -0.2670 -0.9603
 7538SOL    HW234339   9.798   5.893   8.570  0.3940 -1.2656  1.5484
 7539SOL     OW34340   2.401   3.473   4.303  0.4207 -0.4621 -0.4413
 7539SOL    HW134341   2.313   3.470   4.266  0.0596  2.2479 -0.0021
 7539SOL    HW234342   2.386   3.473   4.398  0.7335  1.4854 -0.3532
 7540SOL     OW34343   0.231   5.556   9.059 -0.3335 -0.1435 -0.3689
 7540SOL    HW134344   0.300   5.493   9.037 -1.2866 -2.4006  2.4567
 7540SOL    HW234345   0.255   5.635   9.012  3.2331 -1.3437 -0.8706
 7541SOL     OW34346   8.609   8.862  10.208 -0.1734 -0.4829  0.5650
 7541SOL    HW134347   8.691   8.862  10.160 -0.5631  1.2583 -0.1846
 7541SOL    HW234348   8.553   8.802  10.160  0.3232 -0.8624  0.4553
 7542SOL     OW34349   4.794   7.572   6.046 -0.3046  0.5065  0.0706
 7542SOL    HW134350   4.879   7.528   6.053  0.1964  1.3647 -0.4955
 7542SOL    HW234351   4.755   7.562   6.133 -1.3667 -3.2798 -0.6517
 7543SOL     OW34352   6.081  10.747   1.650 -0.0508  0.0343  0.3095
 7543SOL    HW134353   6.094  10.814   1.583  0.1493 -0.2892  0.0171
 7543SOL    HW234354   6.065  10.796   1.731 -1.5080  0.4363 -0.1918
 7544SOL     OW34355   5.037  11.728   0.364 -0.0304  0.3454  0.3858
 7544SOL    HW134356   5.026  11.718   0.459 -1.5088 -0.4198  0.1614
 7544SOL    HW234357   5.129  11.706   0.348  0.0010 -0.4487  1.5310
 7545SOL     OW34358  10.836   7.044   8.462  0.2867  0.4775 -0.1711
 7545SOL    HW134359  10.800   7.124   8.424  0.8444 -0.4615 -2.9116
 7545SOL    HW234360  10.930   7.062   8.472  0.3285  0.3497 -0.3229
 7546SOL     OW34361   2.815   7.795   1.926 -0.1037 -0.5863  0.4962
 7546SOL    HW134362   2.745   7.841   1.880  1.3014 -1.0398 -2.2693
 7546SOL    HW234363   2.867   7.865   1.965 -0.3584 -0.0723 -0.0593
 7547SOL     OW34364   8.028   9.568   4.528 -0.3091  0.2838 -0.1056
 7547SOL    HW134365   8.072   9.507   4.587  1.1864 -0.1524 -1.6102
 7547SOL    HW234366   7.949   9.522   4.500  0.9369 -1.1590 -1.4327
 7548SOL     OW34367   0.731   3.971   6.976  0.0331 -0.1737 -0.0370
 7548SOL    HW134368   0.704   3.880   6.967  1.4705 -1.1060  3.2708
 7548SOL    HW234369   0.811   3.979   6.924  0.2056 -0.9765  0.1031
 7549SOL     OW34370   7.170   1.417  10.991 -0.5597  0.0781  0.3338
 7549SOL    HW134371   7.255   1.398  11.033 -0.4886 -0.0607  0.1249
 7549SOL    HW234372   7.115   1.447  11.063 -0.4969 -0.3513  0.5637
 7550SOL     OW34373   1.665   0.851   0.380 -0.2657  0.5328 -0.4237
 7550SOL    HW134374   1.643   0.883   0.467 -2.3603 -1.9978  0.1080
 7550SOL    HW234375   1.615   0.907   0.320 -0.0905  1.2501  0.0930
 7551SOL     OW34376   0.077   0.338   5.785 -0.6500  0.2627 -0.2017
 7551SOL    HW134377   0.121   0.358   5.702 -0.7802 -1.1528 -0.6296
 7551SOL    HW234378  -0.009   0.378   5.776 -0.8981 -0.4155 -1.0315
 7552SOL     OW34379   4.095   7.281   3.375 -0.6799 -0.2300  0.0348
 7552SOL    HW134380   4.134   7.214   3.319 -0.7393 -1.0585  0.9580
 7552SOL    HW234381   4.145   7.360   3.357  1.3011 -1.1962  1.0000
 7553SOL     OW34382   4.944   3.442   6.095 -0.0111  0.0866 -0.0549
 7553SOL    HW134383   4.965   3.514   6.035  0.7276  1.1288  1.3966
 7553SOL    HW234384   4.947   3.364   6.040 -0.0198  1.0607 -1.5058
 7554SOL     OW34385   6.188   1.559   1.930 -0.6295 -0.2405 -0.8256
 7554SOL    HW134386   6.099   1.555   1.965 -0.8667  2.9011 -0.7654
 7554SOL    HW234387   6.208   1.653   1.927  2.2365 -0.7917 -1.9979
 7555SOL     OW34388   4.400   1.001   3.872 -0.4974  0.7253 -0.0106
 7555SOL    HW134389   4.358   1.057   3.807 -2.6721  0.3121  0.9422
 7555SOL    HW234390   4.347   1.011   3.951 -0.7881 -2.3406  0.3231
 7556SOL     OW34391   0.749   6.665   3.671  0.2197  0.4470  0.3394
 7556SOL    HW134392   0.715   6.575   3.668 -1.5518  1.1033 -0.4599
 7556SOL    HW234393   0.833   6.657   3.717  1.2591 -1.9709 -1.7355
 7557SOL     OW34394   4.178   5.596   3.026  0.6154  0.0001 -0.0793
 7557SOL    HW134395   4.264   5.554   3.035  0.5187 -0.0798  0.5539
 7557SOL    HW234396   4.175   5.627   2.935  1.5205  0.4441  0.0287
 7558SOL     OW34397   5.439   4.427   9.400 -0.2599  0.1272 -0.7634
 7558SOL    HW134398   5.522   4.473   9.413 -0.6546  0.5114  0.5240
 7558SOL    HW234399   5.422   4.385   9.484 -1.1315 -0.3714 -1.1737
 7559SOL     OW34400   5.017   7.016  11.713 -0.0374 -0.3989  0.4650
 7559SOL    HW134401   5.107   7.033  11.684  0.4235 -1.3315  1.2796
 7559SOL    HW234402   4.966   7.089  11.677  0.8572 -0.4062 -0.8810
 7560SOL     OW34403   1.592   3.329  11.578  0.4233 -0.3520 -0.0259
 7560SOL    HW134404   1.595   3.323  11.674 -1.4700  1.4487  0.2076
 7560SOL    HW234405   1.666   3.384  11.555  0.8336 -0.7197  0.3996
 7561SOL     OW34406   6.300   6.397   9.771  0.4580 -0.2807 -0.6149
 7561SOL    HW134407   6.245   6.462   9.727  0.2988 -0.9548 -1.4325
 7561SOL    HW234408   6.357   6.449   9.828  0.5837  0.6070 -1.5180
 7562SOL     OW34409   3.293  10.874   2.181  0.4252  0.2682  0.0223
 7562SOL    HW134410   3.378  10.838   2.157  1.0431 -0.2065  2.5975
 7562SOL    HW234411   3.298  10.966   2.156  2.1253  0.4930  1.0134
 7563SOL     OW34412  10.849   6.317   5.069  0.0816 -0.4895  0.3358
 7563SOL    HW134413  10.761   6.316   5.107 -0.2091 -4.6897 -0.0108
 7563SOL    HW234414  10.901   6.368   5.131 -2.4373  1.7875  0.7620
 7564SOL     OW34415   2.828   6.170   0.659 -0.2231  0.4611  0.1572
 7564SOL    HW134416   2.858   6.223   0.586  0.3951  0.5564  0.4704
 7564SOL    HW234417   2.843   6.079   0.631 -0.1355  0.4925  0.1010
 7565SOL     OW34418   5.001  10.477   0.826 -0.4640  0.5275 -0.8432
 7565SOL    HW134419   5.048  10.414   0.881 -1.1205  1.3846  0.7718
 7565SOL    HW234420   5.050  10.479   0.744 -0.1667 -1.7399 -0.7878
 7566SOL     OW34421   2.059   4.736   6.275  0.3732  0.1905  0.0165
 7566SOL    HW134422   2.057   4.752   6.180  1.5648 -0.6336 -0.1696
 7566SOL    HW234423   2.152   4.736   6.297  0.0866  1.6997  1.4496
 7567SOL     OW34424   0.982   1.789   7.390  0.3657 -0.4425 -0.2573
 7567SOL    HW134425   0.976   1.743   7.307  0.8878 -0.1671 -0.4472
 7567SOL    HW234426   1.042   1.736   7.443 -0.2983 -0.8523  0.1071
 7568SOL     OW34427   3.957   8.954   9.781 -0.0186  0.0303  0.5093
 7568SOL    HW134428   3.918   8.873   9.814 -0.1130 -0.1324  0.0192
 7568SOL    HW234429   3.917   9.024   9.833 -0.6530 -0.1662  0.2950
 7569SOL     OW34430   0.066   5.550   4.801 -0.0110  0.1874  0.0886
 7569SOL    HW134431   0.095   5.569   4.712 -0.0252 -1.6402 -0.3457
 7569SOL    HW234432   0.147   5.533   4.850 -0.0968 -0.8440 -0.1060
 7570SOL     OW34433   7.990   7.560   8.876 -0.2480  0.3088  0.2261
 7570SOL    HW134434   7.973   7.469   8.901 -2.3928  0.7811  0.6852
 7570SOL    HW234435   7.907   7.590   8.839  0.6694  1.8605 -0.6575
 7571SOL     OW34436  11.672   1.924  11.895  0.4423  0.2560  0.0051
 7571SOL    HW134437  11.731   1.961  11.828  0.4345  0.8481  0.3171
 7571SOL    HW234438  11.629   2.001  11.933  1.4689  0.0468  1.6596
 7572SOL     OW34439  11.169   2.464   0.459 -0.3119  0.1049 -0.1328
 7572SOL    HW134440  11.073   2.463   0.454 -0.2413 -0.2815 -2.2716
 7572SOL    HW234441  11.197   2.394   0.399  1.3147 -0.0545  0.7543
 7573SOL     OW34442   0.969   0.788   4.605  0.3196  0.6028 -0.1992
 7573SOL    HW134443   1.033   0.768   4.536 -0.5314 -0.6101 -0.6786
 7573SOL    HW234444   0.973   0.712   4.663  0.7476  1.4439  0.8881
 7574SOL     OW34445  10.136  10.095   9.519  0.0133 -0.0846 -0.3114
 7574SOL    HW134446  10.194  10.050   9.457 -0.8802 -1.1067 -0.4200
 7574SOL    HW234447  10.169  10.070   9.605 -0.4869 -0.9696 -0.3712
 7575SOL     OW34448   6.374   9.786   5.023 -0.1153 -0.5151 -0.1876
 7575SOL    HW134449   6.462   9.752   5.010  0.0671 -0.1231  0.0332
 7575SOL    HW234450   6.330   9.770   4.939 -0.4516 -2.5342  0.3280
 7576SOL     OW34451   7.846   8.604   9.579 -0.1851 -0.4413 -0.1699
 7576SOL    HW134452   7.777   8.668   9.598  0.0251  0.1094 -1.1712
 7576SOL    HW234453   7.915   8.625   9.642 -0.2154  0.1745 -0.3294
 7577SOL     OW34454   5.108  11.630   6.881  0.3438 -0.1962 -0.3604
 7577SOL    HW134455   5.060  11.691   6.938 -0.1584 -1.6692  0.8618
 7577SOL    HW234456   5.047  11.612   6.809  0.3586  0.4475 -0.5437
 7578SOL     OW34457   2.725   7.444   5.434  0.7776  0.2019  0.1409
 7578SOL    HW134458   2.774   7.378   5.385  1.0663  0.5077  0.0141
 7578SOL    HW234459   2.783   7.519   5.437  0.1080  0.7564 -0.4619
 7579SOL     OW34460   4.231   8.122  11.379 -0.2126  0.0476 -0.3610
 7579SOL    HW134461   4.159   8.080  11.332  0.8683 -0.7177 -1.3733
 7579SOL    HW234462   4.286   8.050  11.409  0.7400  0.6574 -0.5943
 7580SOL     OW34463   7.263   8.540   9.577  0.1129  0.5710 -0.0346
 7580SOL    HW134464   7.237   8.460   9.531  2.7158  0.4672 -1.5004
 7580SOL    HW234465   7.261   8.516   9.670  2.3848 -1.7899 -0.4878
 7581SOL     OW34466   5.002   5.712   7.371 -0.0450 -0.0961  0.2028
 7581SOL    HW134467   4.972   5.622   7.362 -0.1186 -0.1246  0.6775
 7581SOL    HW234468   5.091   5.704   7.407  0.2155  0.0063 -0.4086
 7582SOL     OW34469   9.464   8.475   2.196  0.3395 -1.1541  0.1654
 7582SOL    HW134470   9.456   8.526   2.116  0.7419 -2.1461 -0.5261
 7582SOL    HW234471   9.396   8.509   2.254  0.3591 -0.1020 -0.4114
 7583SOL     OW34472   4.570  10.533   2.607 -0.3174  0.0645  0.2973
 7583SOL    HW134473   4.665  10.539   2.617 -0.3329  0.0869  0.4421
 7583SOL    HW234474   4.550  10.592   2.535 -0.2624  0.3485  0.5114
 7584SOL     OW34475   8.395  11.908  10.076 -0.1610 -0.1772  0.1257
 7584SOL    HW134476   8.316  11.960  10.094 -0.6298 -0.9064  0.2421
 7584SOL    HW234477   8.371  11.819  10.103 -0.0177 -0.8242 -1.7649
 7585SOL     OW34478   3.848   4.799   3.426  0.2357  0.2920 -0.0207
 7585SOL    HW134479   3.846   4.734   3.496 -0.5263 -1.1075 -1.2575
 7585SOL    HW234480   3.892   4.875   3.464  1.1548 -0.9333  1.4969
 7586SOL     OW34481   4.661   1.872   7.944  0.1071  0.6308 -0.5213
 7586SOL    HW134482   4.724   1.906   8.008  0.5054 -1.5296  0.3331
 7586SOL    HW234483   4.604   1.814   7.995 -0.9321  0.5178 -1.7620
 7587SOL     OW34484   9.735   6.085   7.670 -0.3738  0.4623 -0.1794
 7587SOL    HW134485   9.698   6.028   7.738 -0.3603  1.3517  0.5990
 7587SOL    HW234486   9.802   6.136   7.716 -0.4296  1.1440 -0.8348
 7588SOL     OW34487   3.438   3.351  11.714  0.1352 -0.4853 -0.0018
 7588SOL    HW134488   3.432   3.291  11.789  0.0932 -0.0724  0.3286
 7588SOL    HW234489   3.353   3.345  11.671  0.4844 -1.4761 -0.6092
 7589SOL     OW34490  11.285   9.909   6.962 -0.0721 -0.4862 -0.6224
 7589SOL    HW134491  11.358   9.963   6.990  2.3635 -3.1155 -1.4569
 7589SOL    HW234492  11.259   9.860   7.040  0.8010 -1.3726 -0.8651
 7590SOL     OW34493   2.907   7.807   0.673 -0.3798  0.5614  0.2173
 7590SOL    HW134494   2.884   7.863   0.747 -0.1227 -2.5766  2.8318
 7590SOL    HW234495   2.823   7.779   0.637 -0.5312  0.0554  0.9617
 7591SOL     OW34496   6.360   4.078   9.636 -0.1357  0.1459 -0.5309
 7591SOL    HW134497   6.374   3.999   9.687  0.1000  0.7628  0.3799
 7591SOL    HW234498   6.357   4.048   9.545 -0.3405 -0.9358 -0.1786
 7592SOL     OW34499  10.011   5.556   3.759  0.4947 -0.1693 -0.3962
 7592SOL    HW134500   9.974   5.578   3.673 -0.5274  1.7365  0.4604
 7592SOL    HW234501  10.104   5.541   3.742  0.3943  0.6220 -1.7948
 7593SOL     OW34502   5.716  11.296   5.952 -0.0143 -0.1801  0.2111
 7593SOL    HW134503   5.794  11.350   5.945 -1.7019  2.3849 -0.2942
 7593SOL    HW234504   5.661  11.323   5.879 -1.8480 -1.0603  1.1747
 7594SOL     OW34505   2.735   9.573   9.699  0.6366 -0.1545  0.4698
 7594SOL    HW134506   2.749   9.667   9.714  0.8935 -0.2430  0.7932
 7594SOL    HW234507   2.713   9.567   9.606 -1.8444  0.5162  0.9380
 7595SOL     OW34508   4.938   7.322   8.933  0.2742  0.0574 -0.2566
 7595SOL    HW134509   5.023   7.279   8.923 -1.4590 -3.5222 -1.2931
 7595SOL    HW234510   4.943   7.397   8.874  1.8234 -1.6867 -2.5327
 7596SOL     OW34511   1.736   8.160   6.123  0.3490 -0.1878  0.2243
 7596SOL    HW134512   1.768   8.241   6.164 -0.3344 -0.6585  1.7764
 7596SOL    HW234513   1.815   8.113   6.097  0.8049  0.2466  0.7867
 7597SOL     OW34514   6.031   0.768   1.844 -0.1766 -0.4117  0.6386
 7597SOL    HW134515   6.028   0.764   1.748 -2.6161  1.5298  0.5342
 7597SOL    HW234516   6.124   0.775   1.865  0.3107  2.1001 -1.8166
 7598SOL     OW34517  11.501  10.922   7.092 -0.5050  0.0201 -0.2399
 7598SOL    HW134518  11.420  10.905   7.139  0.1350 -0.2452  0.7937
 7598SOL    HW234519  11.569  10.880   7.145  0.3300  0.3812 -0.9978
 7599SOL     OW34520   2.336   8.295   8.869  0.1913 -0.0252 -0.4063
 7599SOL    HW134521   2.303   8.206   8.878  0.0339  0.0085 -0.6250
 7599SOL    HW234522   2.420   8.295   8.915 -0.4086  0.0521  0.7083
 7600SOL     OW34523  10.246   4.485   8.733 -0.2679 -0.5016  0.5530
 7600SOL    HW134524  10.247   4.405   8.785 -0.5003 -0.8939 -0.0309
 7600SOL    HW234525  10.186   4.544   8.780 -0.2038 -0.7214  0.9077
 7601SOL     OW34526   4.268   6.959   3.483  0.3208  0.2347  0.5187
 7601SOL    HW134527   4.176   6.965   3.460  0.3014 -1.6673  0.0161
 7601SOL    HW234528   4.294   7.050   3.500 -0.5428  1.4031 -3.4905
 7602SOL     OW34529   6.545  10.458   2.586 -0.1785  0.2168 -0.2211
 7602SOL    HW134530   6.578  10.386   2.533  0.6817  0.4683 -0.0615
 7602SOL    HW234531   6.603  10.531   2.565 -1.0311  0.8605 -0.3754
 7603SOL     OW34532   7.318  11.158   0.521  0.5969 -0.0080  0.1365
 7603SOL    HW134533   7.329  11.064   0.502 -0.4554  0.0005 -0.5819
 7603SOL    HW234534   7.390  11.178   0.581  2.3542 -0.7130 -1.6040
 7604SOL     OW34535   7.020   1.485   0.308  0.0908  0.3400  0.1261
 7604SOL    HW134536   6.930   1.513   0.324  0.6470  2.1794  0.2731
 7604SOL    HW234537   7.051   1.453   0.393 -0.7327 -1.3366 -0.1714
 7605SOL     OW34538   9.706   6.346   7.384  0.6547  0.5671 -0.0492
 7605SOL    HW134539   9.798   6.357   7.359  0.8830  0.1464  0.5732
 7605SOL    HW234540   9.691   6.416   7.448 -0.1597  2.1654 -1.8587
 7606SOL     OW34541   3.794   0.914   7.830  0.1676  0.2534  0.1408
 7606SOL    HW134542   3.739   0.862   7.771  2.0901 -1.1853 -0.4927
 7606SOL    HW234543   3.797   1.001   7.790 -1.7837  0.4592  0.3348
 7607SOL     OW34544   7.914   1.370   0.390 -0.2286 -0.0327 -0.1348
 7607SOL    HW134545   7.900   1.396   0.299  0.4507  0.5621 -0.0829
 7607SOL    HW234546   7.921   1.452   0.437  0.5614 -0.3224  0.2691
 7608SOL     OW34547   2.853   7.769   1.571 -0.3422  0.0261 -0.0474
 7608SOL    HW134548   2.883   7.846   1.523  1.2432  0.6666  1.8135
 7608SOL    HW234549   2.927   7.708   1.568 -0.2973 -0.0214  1.2598
 7609SOL     OW34550  11.846   7.712   9.984 -0.1153 -0.1680 -0.7008
 7609SOL    HW134551  11.764   7.755   9.961  0.2777 -0.5572 -3.1004
 7609SOL    HW234552  11.911   7.781   9.981 -0.2051 -0.0119  0.4362
 7610SOL     OW34553   1.348   1.596   8.431 -0.1279  0.3307  0.7762
 7610SOL    HW134554   1.371   1.511   8.392  1.3280  0.9864  0.1609
 7610SOL    HW234555   1.262   1.616   8.394  0.5639  0.2327 -0.9819
 7611SOL     OW34556   9.815   2.164   2.176 -0.2999 -0.2669  0.0025
 7611SOL    HW134557   9.841   2.238   2.122 -0.6753 -0.5472 -0.5710
 7611SOL    HW234558   9.826   2.194   2.266  0.6442  0.0967 -0.2235
 7612SOL     OW34559   5.853   7.619   5.975 -0.2709 -0.7007  0.6365
 7612SOL    HW134560   5.891   7.539   6.012  0.8588 -0.7443 -0.5715
 7612SOL    HW234561   5.856   7.683   6.047  3.9267 -0.0976  0.1563
 7613SOL     OW34562   8.855   1.855   4.582 -0.2496 -0.8330 -0.0784
 7613SOL    HW134563   8.824   1.829   4.668 -1.5442  0.4330 -0.1173
 7613SOL    HW234564   8.931   1.910   4.600 -0.6212 -0.4286  0.2762
 7614SOL     OW34565   4.056   7.493   2.231  0.5909  0.5147  0.3976
 7614SOL    HW134566   4.001   7.416   2.242  1.0407  0.1609  0.1862
 7614SOL    HW234567   4.050   7.539   2.315 -2.6803  2.2735 -0.5956
 7615SOL     OW34568  10.735  11.008  11.404 -0.3065 -0.6744 -0.1357
 7615SOL    HW134569  10.678  11.085  11.393 -0.1743 -0.8068 -2.0338
 7615SOL    HW234570  10.734  10.965  11.318  0.1399 -2.4475  0.7070
 7616SOL     OW34571   4.179   3.421   6.575  0.1047 -0.4595 -0.5540
 7616SOL    HW134572   4.216   3.480   6.510  0.0162  0.2674  0.0428
 7616SOL    HW234573   4.084   3.428   6.563  0.1013 -1.7559 -1.5835
 7617SOL     OW34574   1.059   2.139   4.614 -0.2122  0.1558  0.5150
 7617SOL    HW134575   1.052   2.222   4.566 -1.9512 -0.7449 -0.9272
 7617SOL    HW234576   1.116   2.085   4.559 -0.4649 -0.1708  0.5764
 7618SOL     OW34577   3.405   6.140   7.106 -0.2686  0.6478  0.1253
 7618SOL    HW134578   3.364   6.204   7.047 -3.0438 -2.2024 -1.3549
 7618SOL    HW234579   3.373   6.164   7.193 -3.2622  0.0484 -0.6797
 7619SOL     OW34580  11.223   5.402   7.194 -0.1785  0.2252 -0.1804
 7619SOL    HW134581  11.318   5.398   7.183 -0.3692 -0.2753 -2.0794
 7619SOL    HW234582  11.203   5.495   7.200  0.5480  0.2877  1.8255
 7620SOL     OW34583   7.125   9.892   1.193 -0.3116 -0.1067 -0.5743
 7620SOL    HW134584   7.160   9.862   1.109  0.0674 -0.1845 -0.3917
 7620SOL    HW234585   7.046   9.941   1.171  1.6125  2.9383 -1.2930
 7621SOL     OW34586  11.511   5.785   2.687 -0.1054  0.2794  0.0898
 7621SOL    HW134587  11.499   5.786   2.782 -1.8866 -3.2464  0.0372
 7621SOL    HW234588  11.604   5.768   2.675  0.1116  0.6069  1.1659
 7622SOL     OW34589  10.448   1.012  11.684 -0.1774  0.5453 -0.4386
 7622SOL    HW134590  10.371   1.018  11.741  1.5373  0.4444  2.0061
 7622SOL    HW234591  10.411   1.014  11.596 -2.8806  2.1542  0.5848
 7623SOL     OW34592   7.150   5.671   7.059 -0.7660  0.5350  0.5428
 7623SOL    HW134593   7.162   5.762   7.030 -1.1664  0.4234  0.0122
 7623SOL    HW234594   7.238   5.639   7.077 -0.3949  0.3012 -1.5018
 7624SOL     OW34595   2.221   8.126  10.460 -0.5530 -0.2619 -0.7539
 7624SOL    HW134596   2.172   8.207  10.473 -2.3364 -1.5145  0.8540
 7624SOL    HW234597   2.297   8.135  10.517 -1.6409 -0.3769  0.7723
 7625SOL     OW34598   2.764   7.968   6.179 -0.4853  0.0371 -0.2917
 7625SOL    HW134599   2.735   8.054   6.209 -2.7228 -1.0313  0.8866
 7625SOL    HW234600   2.687   7.929   6.137 -0.0508 -1.9988  0.6460
 7626SOL     OW34601  10.259   8.220   7.859  0.5153 -0.0200  0.2123
 7626SOL    HW134602  10.274   8.249   7.769  0.5910 -0.4081  0.0975
 7626SOL    HW234603  10.164   8.221   7.868  0.4237 -1.4066 -0.3630
 7627SOL     OW34604   0.009   4.439  10.333 -0.2037  0.4679  0.3110
 7627SOL    HW134605  -0.031   4.513  10.379  0.2766  0.4199  0.8102
 7627SOL    HW234606  -0.065   4.382  10.312 -0.3732  0.2236  1.5084
 7628SOL     OW34607   3.892  11.746   0.884  0.4750 -0.5276  0.3930
 7628SOL    HW134608   3.810  11.794   0.898  1.0533  0.0680  1.9583
 7628SOL    HW234609   3.866  11.654   0.885 -0.2483 -0.3284  0.3671
 7629SOL     OW34610   5.483   0.883   3.742 -0.3178  0.4385 -0.4206
 7629SOL    HW134611   5.418   0.868   3.673  1.2138  1.7230 -2.2340
 7629SOL    HW234612   5.556   0.926   3.698  1.1710  0.3981  1.8343
 7630SOL     OW34613   6.931   0.229   6.748  1.0545 -0.3186 -0.4911
 7630SOL    HW134614   6.943   0.303   6.808  2.0733  0.8044 -1.9999
 7630SOL    HW234615   6.890   0.161   6.802  0.6765  1.1041  1.1150
 7631SOL     OW34616  11.665  11.939   4.614 -0.6542 -0.1087  0.3462
 7631SOL    HW134617  11.667  11.932   4.519 -1.8829  1.9257  0.0867
 7631SOL    HW234618  11.757  11.943   4.640 -0.3103  0.0656 -0.8377
 7632SOL     OW34619   2.310   0.212   9.395  0.2165 -0.0426 -0.1661
 7632SOL    HW134620   2.338   0.231   9.484  0.1984 -2.9861  0.5504
 7632SOL    HW234621   2.215   0.226   9.397  0.3889  1.2873 -0.1703
 7633SOL     OW34622  10.797   2.165   8.099 -0.4111 -0.3419  0.1900
 7633SOL    HW134623  10.791   2.220   8.020  0.5537 -0.4552  0.0279
 7633SOL    HW234624  10.706   2.156   8.129 -0.7439  0.0470 -0.6717
 7634SOL     OW34625   2.439   3.409   5.594  0.1946  0.3199  0.3452
 7634SOL    HW134626   2.442   3.320   5.630 -0.4060 -0.8284 -2.1720
 7634SOL    HW234627   2.530   3.439   5.599  0.7665 -1.1606 -0.3198
 7635SOL     OW34628   7.868   6.560   7.022 -0.1796 -0.3510 -0.2515
 7635SOL    HW134629   7.810   6.596   6.955 -0.0346  0.3272 -0.0249
 7635SOL    HW234630   7.933   6.510   6.974 -0.0308  0.1971 -0.6237
 7636SOL     OW34631  11.182   5.811   7.860 -0.5248  0.1502 -0.5420
 7636SOL    HW134632  11.185   5.715   7.858  1.3455  0.1556 -0.4053
 7636SOL    HW234633  11.155   5.835   7.771  2.0368 -0.5330 -1.6194
 7637SOL     OW34634   4.901   6.872   5.853 -0.4036  0.2104 -0.4504
 7637SOL    HW134635   4.891   6.960   5.818  0.9554  0.8236  0.5641
 7637SOL    HW234636   4.876   6.814   5.782 -3.5432  1.3701 -0.4388
 7638SOL     OW34637   1.770  10.443   4.397  0.0018  0.2471  0.4930
 7638SOL    HW134638   1.697  10.468   4.453  1.0186  0.7706  1.6269
 7638SOL    HW234639   1.802  10.361   4.435 -0.2600 -0.2175 -0.2673
 7639SOL     OW34640   4.190  10.533  11.357 -0.3954  0.1834 -0.5097
 7639SOL    HW134641   4.214  10.496  11.272 -0.6534  0.4516 -0.6990
 7639SOL    HW234642   4.096  10.548  11.351 -0.1931  1.5461 -0.7037
 7640SOL     OW34643   3.507   5.592   5.918 -0.3084  0.0367 -0.5047
 7640SOL    HW134644   3.508   5.551   5.832 -0.3939 -1.0349 -0.0251
 7640SOL    HW234645   3.599   5.593   5.945 -0.5585 -4.3546  1.4372
 7641SOL     OW34646   1.217   2.973   2.523 -0.0932  0.3073 -0.1378
 7641SOL    HW134647   1.153   2.902   2.528  0.4872 -0.1456  1.3438
 7641SOL    HW234648   1.166   3.052   2.544 -0.9784  0.5477 -2.8795
 7642SOL     OW34649   8.279  10.015   8.634  0.2884 -0.0157 -0.1984
 7642SOL    HW134650   8.232  10.077   8.579  0.4078  0.8071  0.5965
 7642SOL    HW234651   8.329  10.070   8.695  0.3529 -0.8855  0.5601
 7643SOL     OW34652   0.668   9.558   3.247 -0.3224 -0.2814  0.5139
 7643SOL    HW134653   0.755   9.597   3.247 -0.6264  0.6688  3.5796
 7643SOL    HW234654   0.652   9.535   3.156  2.3840  1.1517 -0.4326
 7644SOL     OW34655   9.211   4.601   0.884 -0.3893 -0.2663 -0.7257
 7644SOL    HW134656   9.173   4.527   0.930 -1.8349  0.7430 -0.1965
 7644SOL    HW234657   9.299   4.610   0.921 -0.4689 -1.2535 -0.2705
 7645SOL     OW34658   3.014   6.599   0.036 -0.4032  0.0977  0.8855
 7645SOL    HW134659   3.005   6.648  -0.046  1.4573  0.0101  0.5691
 7645SOL    HW234660   2.939   6.541   0.038 -0.8637  0.6112 -0.4066
 7646SOL     OW34661   6.426   2.467   1.039  0.5563 -0.5650 -0.3775
 7646SOL    HW134662   6.453   2.403   0.974  1.3382  0.2288 -0.8523
 7646SOL    HW234663   6.477   2.445   1.117  2.1383  0.4829 -1.0520
 7647SOL     OW34664   3.089   5.767   8.002  0.4533 -0.1411 -0.4990
 7647SOL    HW134665   3.060   5.685   7.962  1.3292 -0.0107 -1.4490
 7647SOL    HW234666   3.065   5.758   8.094 -1.9565 -0.3105 -1.0538
 7648SOL     OW34667   5.325  11.434  10.634  0.2072  0.2462 -0.4769
 7648SOL    HW134668   5.232  11.421  10.652  0.5140 -0.9898  0.3337
 7648SOL    HW234669   5.340  11.387  10.552  0.1764  0.2251 -0.4708
 7649SOL     OW34670  11.327   4.599   3.825 -0.3681 -0.6143 -0.0546
 7649SOL    HW134671  11.275   4.644   3.891 -1.3709 -1.1212 -0.4906
 7649SOL    HW234672  11.376   4.533   3.874 -1.7267 -1.5386  0.1004
 7650SOL     OW34673   2.817   7.532   2.007  0.0038 -0.2140  0.1912
 7650SOL    HW134674   2.821   7.624   1.981 -1.8815 -0.1786 -0.1652
 7650SOL    HW234675   2.840   7.531   2.100  1.0445  0.4650 -0.0524
 7651SOL     OW34676   8.231   5.471  10.364 -0.1173 -0.3313  0.0707
 7651SOL    HW134677   8.249   5.388  10.321 -1.0271 -1.5126  1.8708
 7651SOL    HW234678   8.204   5.529  10.293 -0.3396 -1.8335 -1.1169
 7652SOL     OW34679   0.725   1.483  10.641  0.5154 -0.1778 -0.0127
 7652SOL    HW134680   0.812   1.513  10.666  0.8310  0.2585 -1.5735
 7652SOL    HW234681   0.671   1.562  10.642  0.0074 -0.5101  1.3582
 7653SOL     OW34682   2.839   1.356   7.851 -0.0563  0.0248 -0.5492
 7653SOL    HW134683   2.918   1.303   7.859  0.2949  0.8916  3.6425
 7653SOL    HW234684   2.868   1.437   7.810  0.9482 -0.1504 -0.2067
 7654SOL     OW34685   6.444   4.307   7.195  0.0710 -0.3429 -0.0825
 7654SOL    HW134686   6.429   4.259   7.114  2.0671 -0.1316 -0.6183
 7654SOL    HW234687   6.382   4.269   7.257 -1.2705 -0.7308 -1.5879
 7655SOL     OW34688   4.864  10.010   3.084 -0.2148  0.5113  0.0321
 7655SOL    HW134689   4.941  10.067   3.088 -0.0305  0.4058 -1.2729
 7655SOL    HW234690   4.858   9.986   2.991 -0.4159 -1.4193  0.5075
 7656SOL     OW34691  11.498   5.286   6.903 -0.3189 -0.1814  0.2887
 7656SOL    HW134692  11.522   5.263   6.993  0.6390 -0.3911 -0.0036
 7656SOL    HW234693  11.523   5.378   6.894 -0.0220 -0.2763  0.1168
 7657SOL     OW34694   7.876   5.274   7.101  0.3409  0.3631 -0.1815
 7657SOL    HW134695   7.828   5.195   7.126 -0.6737  1.2517  0.8357
 7657SOL    HW234696   7.807   5.338   7.081  1.1210  1.2311 -0.1576
 7658SOL     OW34697   6.370   7.479   1.597 -0.4215  0.3291 -0.3184
 7658SOL    HW134698   6.361   7.444   1.508 -1.3597  0.8748 -0.4552
 7658SOL    HW234699   6.432   7.551   1.587  0.0675 -0.0918 -0.3799
 7659SOL     OW34700   8.389   4.626   5.235 -0.1125 -0.7504 -0.6350
 7659SOL    HW134701   8.294   4.618   5.227 -0.2317  0.0191 -0.1326
 7659SOL    HW234702   8.421   4.536   5.235 -0.7578 -1.0052 -1.6922
 7660SOL     OW34703   6.385  11.672  10.396  0.3558 -0.0188  0.1737
 7660SOL    HW134704   6.368  11.602  10.333  1.4181  0.9659 -1.2840
 7660SOL    HW234705   6.301  11.717  10.405 -0.2630 -1.2616  0.9059
 7661SOL     OW34706   4.436   3.398   4.930 -0.5824  0.1373 -0.7999
 7661SOL    HW134707   4.441   3.358   5.017 -1.1010 -1.8487 -1.6284
 7661SOL    HW234708   4.344   3.391   4.905 -0.3482  0.1661 -1.7341
 7662SOL     OW34709   1.296   7.284   9.213  0.3862 -0.4115 -0.4921
 7662SOL    HW134710   1.366   7.348   9.231 -0.3154  0.3398 -0.3845
 7662SOL    HW234711   1.295   7.276   9.118 -0.1447  0.4636 -0.5698
 7663SOL     OW34712   7.524  11.456   8.330  0.2956  0.4466 -0.0873
 7663SOL    HW134713   7.565  11.543   8.328 -1.3188  1.2379 -0.0325
 7663SOL    HW234714   7.431  11.473   8.340 -0.1660 -1.2840 -1.0213
 7664SOL     OW34715  11.336   9.090   9.878  0.3789 -0.5776  0.5092
 7664SOL    HW134716  11.429   9.074   9.893  0.7138  1.3848  0.7797
 7664SOL    HW234717  11.303   9.009   9.839  2.2343 -1.2343  0.2341
 7665SOL     OW34718   6.072  10.635   0.415  0.8524  0.0675  0.0539
 7665SOL    HW134719   6.057  10.544   0.389  1.4756 -0.0083 -0.0597
 7665SOL    HW234720   6.003  10.684   0.370  1.3034 -0.1875 -0.9519
 7666SOL     OW34721   3.161   6.434   2.756 -0.4935  0.1989 -0.1108
 7666SOL    HW134722   3.179   6.374   2.684  0.1006 -0.9620  0.9695
 7666SOL    HW234723   3.073   6.410   2.785 -0.1244 -0.4157  0.5409
 7667SOL     OW34724   5.059   6.123   8.757 -0.4270  0.1130 -0.7476
 7667SOL    HW134725   5.078   6.178   8.681 -3.6834 -0.0435 -1.7977
 7667SOL    HW234726   4.985   6.166   8.800 -0.8489 -1.6134  0.3636
 7668SOL     OW34727   6.909   7.437   2.573 -0.3120 -0.0403 -0.2800
 7668SOL    HW134728   7.003   7.437   2.559 -0.3653  3.0186 -1.4333
 7668SOL    HW234729   6.897   7.471   2.662 -0.2492  3.7956 -1.5670
 7669SOL     OW34730   2.099   5.369   0.523  0.4644 -0.5193 -0.1209
 7669SOL    HW134731   2.188   5.387   0.491  0.4473 -1.3575 -0.6765
 7669SOL    HW234732   2.111   5.336   0.612  0.7363 -0.8934 -0.2938
 7670SOL     OW34733   1.006   1.438   9.790  0.4607 -0.5637  0.0025
 7670SOL    HW134734   0.951   1.497   9.843  0.8604 -1.6952  1.7711
 7670SOL    HW234735   0.986   1.462   9.700 -1.6609  0.2102  0.6082
 7671SOL     OW34736   7.310   3.805   7.802 -0.3143  0.3678  0.9290
 7671SOL    HW134737   7.341   3.895   7.790 -2.0831  0.9457  0.5165
 7671SOL    HW234738   7.277   3.779   7.716 -0.4212 -0.4535  1.2098
 7672SOL     OW34739   1.470   8.496   6.486 -0.2957 -0.2355  0.0021
 7672SOL    HW134740   1.558   8.504   6.449 -0.2473  1.2539  0.3943
 7672SOL    HW234741   1.485   8.472   6.578 -0.2906 -0.0673  0.0464
 7673SOL     OW34742   1.166  11.922   4.746  0.2220  0.0994 -0.4015
 7673SOL    HW134743   1.096  11.857   4.734  0.4877  0.2030 -3.1119
 7673SOL    HW234744   1.126  11.990   4.800 -2.0545  0.4764 -2.4055
 7674SOL     OW34745   1.411  10.750   6.218 -0.3962 -0.5341 -0.2321
 7674SOL    HW134746   1.435  10.812   6.287  1.4413 -1.3490 -0.0874
 7674SOL    HW234747   1.327  10.782   6.185 -1.4629 -0.2106  2.4907
 7675SOL     OW34748   6.722   9.531   8.624  0.2091  0.0656 -0.0193
 7675SOL    HW134749   6.632   9.527   8.591  0.1521  0.8591  0.0129
 7675SOL    HW234750   6.734   9.623   8.650  0.8474 -0.1545  0.4926
 7676SOL     OW34751   3.922  11.681   8.774  0.3392  0.0873 -0.2650
 7676SOL    HW134752   3.870  11.699   8.696  2.1641  1.2154 -1.2744
 7676SOL    HW234753   3.994  11.625   8.744 -0.4144 -1.8013  1.1822
 7677SOL     OW34754   4.300   9.002   6.163  0.0575 -0.3896  0.0270
 7677SOL    HW134755   4.335   9.038   6.245  0.1034 -0.6521  0.1241
 7677SOL    HW234756   4.232   9.064   6.136 -0.4222 -0.6517  0.6148
 7678SOL     OW34757  10.354   7.760  11.473 -0.2792 -1.0311 -0.3443
 7678SOL    HW134758  10.416   7.798  11.410 -0.1980 -0.0046  0.3429
 7678SOL    HW234759  10.360   7.666  11.457  0.9283 -0.9033 -0.7892
 7679SOL     OW34760   4.783   1.918   7.084  0.6193  0.4743 -0.7277
 7679SOL    HW134761   4.774   1.830   7.122 -1.1123  1.2242  0.7314
 7679SOL    HW234762   4.693   1.947   7.068  1.1323  2.1150 -0.8382
 7680SOL     OW34763   0.074   3.418   7.541  0.3483  0.5498  0.4564
 7680SOL    HW134764   0.148   3.419   7.602  0.6183 -1.2315  0.1956
 7680SOL    HW234765   0.006   3.469   7.586  0.2829 -1.3042  2.6293
 7681SOL     OW34766   7.407   3.873   6.582  0.2228 -0.6019 -0.2168
 7681SOL    HW134767   7.314   3.881   6.605  0.1360  0.0672 -0.7783
 7681SOL    HW234768   7.417   3.782   6.554 -0.1390 -0.8290  0.3821
 7682SOL     OW34769   4.396   8.612  10.783 -0.0863 -0.2876  0.5304
 7682SOL    HW134770   4.371   8.538  10.839  0.9098 -1.1497 -0.1273
 7682SOL    HW234771   4.377   8.689  10.836  0.6232 -1.0704  2.0053
 7683SOL     OW34772   3.823   1.875   0.775 -0.2036 -0.4781 -0.1131
 7683SOL    HW134773   3.816   1.849   0.683  1.3302  0.2384 -0.4650
 7683SOL    HW234774   3.892   1.942   0.776 -0.6334 -0.0168  1.4710
 7684SOL     OW34775  10.196   9.580   0.605  0.0773  0.2810 -0.4268
 7684SOL    HW134776  10.168   9.570   0.696  1.0477  0.2002 -0.1341
 7684SOL    HW234777  10.141   9.651   0.571 -0.6599 -0.0390  0.0540
 7685SOL     OW34778   1.231  10.494  10.152  0.1860 -0.2401 -0.6110
 7685SOL    HW134779   1.136  10.496  10.168 -0.2413  0.8731 -2.9086
 7685SOL    HW234780   1.258  10.585  10.151  1.9644 -0.5637  3.0032
 7686SOL     OW34781   8.071   0.376   3.820 -0.1888 -0.0609  0.4526
 7686SOL    HW134782   7.976   0.363   3.824  0.0638 -4.5697 -1.7505
 7686SOL    HW234783   8.104   0.342   3.903 -0.3869 -1.0571  0.1343
 7687SOL     OW34784   8.594   3.938   9.904  0.5574  0.3085 -0.9956
 7687SOL    HW134785   8.575   3.968   9.993  1.0842  0.6197 -0.9819
 7687SOL    HW234786   8.689   3.921   9.904  0.5619  0.3211 -1.4987
 7688SOL     OW34787   3.791   0.777   7.340 -0.2929  0.4905  0.0848
 7688SOL    HW134788   3.735   0.700   7.334  1.1570 -0.6248  0.3076
 7688SOL    HW234789   3.871   0.746   7.384  1.2009  1.5853 -1.6828
 7689SOL     OW34790   3.900   6.113   5.374 -1.0111  0.5513 -0.0119
 7689SOL    HW134791   3.929   6.180   5.435 -1.5116 -0.0944  0.9713
 7689SOL    HW234792   3.928   6.030   5.414 -0.1165  0.1788 -1.3613
 7690SOL     OW34793   7.444   7.475   5.790  0.0120  0.3969  0.2346
 7690SOL    HW134794   7.470   7.518   5.871  0.2838 -0.0060  0.3608
 7690SOL    HW234795   7.520   7.482   5.733 -0.4216  1.3310 -0.2625
 7691SOL     OW34796   8.225   3.151   2.562 -0.1304 -0.3582 -0.2849
 7691SOL    HW134797   8.251   3.119   2.475  1.6359 -0.1046  0.1113
 7691SOL    HW234798   8.163   3.085   2.593  0.5385 -1.3949 -1.0479
 7692SOL     OW34799   4.823   8.032   7.478 -0.2530  0.0275  0.4302
 7692SOL    HW134800   4.782   8.068   7.557  0.2981 -1.0060  1.2076
 7692SOL    HW234801   4.841   7.941   7.500  2.8936  0.5219  0.3114
 7693SOL     OW34802   6.663   0.589   3.638 -0.0592  0.1998 -0.1132
 7693SOL    HW134803   6.696   0.506   3.671  1.1868  0.4022 -0.7843
 7693SOL    HW234804   6.624   0.568   3.553 -0.2926  0.2051 -0.0083
 7694SOL     OW34805   8.935   4.003   3.567 -0.5619  0.6994 -0.1300
 7694SOL    HW134806   8.995   4.023   3.638 -0.3520  0.1573 -0.1483
 7694SOL    HW234807   8.907   4.088   3.534 -1.4018  0.9829  1.2140
 7695SOL     OW34808   8.578   7.936   7.209  0.4661  0.0223 -0.0260
 7695SOL    HW134809   8.490   7.898   7.207  0.6601 -0.4085 -0.2645
 7695SOL    HW234810   8.615   7.905   7.292  0.1237  0.8231  0.4450
 7696SOL     OW34811   3.114   0.323   7.617 -0.2673  0.1542  0.2734
 7696SOL    HW134812   3.034   0.310   7.667 -1.0143 -2.2467 -1.4061
 7696SOL    HW234813   3.105   0.411   7.579 -1.2282  0.6281  1.5294
 7697SOL     OW34814   0.123   4.445   3.606 -0.1727  0.3101 -0.4894
 7697SOL    HW134815   0.057   4.439   3.536 -0.3265  2.0879 -0.5445
 7697SOL    HW234816   0.140   4.539   3.615  0.2500  0.0903  1.4954
 7698SOL     OW34817   8.949   7.632   6.485 -1.1772 -0.2563  0.4872
 7698SOL    HW134818   9.016   7.590   6.433 -1.9063  0.1813 -0.8616
 7698SOL    HW234819   8.866   7.604   6.446 -1.7229  0.8365  0.7936
 7699SOL     OW34820   2.927   2.606   5.685 -0.4365  0.1298 -0.2964
 7699SOL    HW134821   2.863   2.553   5.638 -0.4281 -0.7077  0.6006
 7699SOL    HW234822   2.965   2.663   5.618 -0.7296 -0.7238 -1.2105
 7700SOL     OW34823   2.158   3.513   1.681  0.1693  0.0144  0.3294
 7700SOL    HW134824   2.073   3.552   1.702 -0.0611  0.2244 -0.8895
 7700SOL    HW234825   2.156   3.427   1.724 -0.5051  0.1693  0.6244
 7701SOL     OW34826   7.967  10.900   1.524  0.3050  0.0998  0.4183
 7701SOL    HW134827   7.986  10.972   1.463 -0.2333  0.7025  0.9505
 7701SOL    HW234828   7.883  10.865   1.494  0.7137 -0.5151 -0.0263
 7702SOL     OW34829   5.687   8.244   3.402 -0.6696  0.1520 -0.2792
 7702SOL    HW134830   5.634   8.221   3.326  0.1404 -1.1696 -0.4755
 7702SOL    HW234831   5.624   8.279   3.465 -1.1998  2.4212 -1.9561
 7703SOL     OW34832   3.437   9.215   6.333  0.4523 -0.6857  0.6024
 7703SOL    HW134833   3.364   9.185   6.280  0.3858  0.3635  0.0987
 7703SOL    HW234834   3.495   9.260   6.272  0.0716  1.1022  1.5040
 7704SOL     OW34835   8.473   2.717   3.282 -0.1868 -0.3730 -0.5563
 7704SOL    HW134836   8.569   2.721   3.281 -0.2229  0.7172 -1.2639
 7704SOL    HW234837   8.451   2.647   3.221  0.1313  0.9586 -2.2821
 7705SOL     OW34838   0.072   6.100   6.206 -0.0428  0.5646  0.2415
 7705SOL    HW134839   0.066   6.071   6.297 -0.6217  1.2036  0.4207
 7705SOL    HW234840   0.044   6.192   6.209 -3.5307 -0.3056 -1.0420
 7706SOL     OW34841   9.483   6.101   0.741  0.8527  0.5946 -0.2030
 7706SOL    HW134842   9.537   6.166   0.787  0.6380  2.1297 -2.0096
 7706SOL    HW234843   9.401   6.147   0.723  0.6274 -0.2324 -1.3759
 7707SOL     OW34844   0.928   2.609  11.413 -0.1769  0.4956 -0.5497
 7707SOL    HW134845   0.963   2.664  11.343  1.4442  0.2978  0.0614
 7707SOL    HW234846   0.990   2.621  11.486 -0.5407 -1.0882  0.0544
 7708SOL     OW34847   6.803   8.524   4.612 -0.1191 -0.6602  0.4130
 7708SOL    HW134848   6.747   8.601   4.608 -1.6351 -1.7297  0.3714
 7708SOL    HW234849   6.803   8.499   4.705  0.8143 -0.3151  0.5198
 7709SOL     OW34850   7.986   7.020   0.097  0.5040  0.3172 -0.6264
 7709SOL    HW134851   8.070   6.978   0.116  0.7055  1.0370  0.1152
 7709SOL    HW234852   7.982   7.022   0.001  0.4005 -1.5183 -0.7087
 7710SOL     OW34853   1.105   4.854   4.544 -0.2579 -0.2832 -0.4209
 7710SOL    HW134854   1.176   4.913   4.517 -0.3262  0.0787  0.1650
 7710SOL    HW234855   1.084   4.882   4.634 -1.4838 -0.0507 -0.7600
 7711SOL     OW34856  11.460   1.783   4.998  0.7260  0.0986  0.0034
 7711SOL    HW134857  11.480   1.710   4.939  0.7478  0.3032 -0.2436
 7711SOL    HW234858  11.401   1.839   4.948 -1.7846 -1.2691  1.2546
 7712SOL     OW34859   7.333   0.615   6.561  0.3204  0.0677 -0.4755
 7712SOL    HW134860   7.260   0.667   6.528  1.0924  0.4674 -1.5845
 7712SOL    HW234861   7.336   0.538   6.503 -0.9377 -1.3813  1.2562
 7713SOL     OW34862   2.401   6.067   1.517 -0.8741 -0.3150 -0.9106
 7713SOL    HW134863   2.436   6.156   1.523 -1.6170 -0.1106  0.7525
 7713SOL    HW234864   2.474   6.016   1.480 -0.3107  0.8804 -1.5531
 7714SOL     OW34865   7.060   9.932   6.565 -0.1314  0.3322  0.2804
 7714SOL    HW134866   7.007   9.936   6.644  0.2902 -1.0470  0.6668
 7714SOL    HW234867   7.038   9.848   6.525  0.1814  0.6963 -0.6962
 7715SOL     OW34868   5.981   2.959  10.192  0.5767  0.4117  0.1936
 7715SOL    HW134869   5.895   2.999  10.206  1.2758  1.2374  2.5947
 7715SOL    HW234870   6.043   3.021  10.230  2.1107 -0.9378  0.0135
 7716SOL     OW34871   6.470   4.908   3.738  0.4015 -0.3227  0.1784
 7716SOL    HW134872   6.410   4.852   3.689 -1.2642  0.6369  1.0290
 7716SOL    HW234873   6.453   4.886   3.830  3.0683 -1.6973  0.4320
 7717SOL     OW34874   5.147   0.596   1.111 -0.3656 -0.4952  0.2016
 7717SOL    HW134875   5.217   0.587   1.046 -0.8058 -0.6062 -0.2651
 7717SOL    HW234876   5.189   0.579   1.195  0.1276 -0.7384 -0.0939
 7718SOL     OW34877   3.271   3.395   1.611  0.0648 -0.4098 -0.5721
 7718SOL    HW134878   3.365   3.377   1.600  0.2771 -0.6694  1.3500
 7718SOL    HW234879   3.261   3.411   1.705 -1.6488  0.6858 -0.8976
 7719SOL     OW34880  10.852  10.815   5.314 -0.3100 -0.4905 -0.3034
 7719SOL    HW134881  10.925  10.752   5.311  0.2376  0.0352  1.0576
 7719SOL    HW234882  10.878  10.877   5.382 -2.1120 -0.3875  0.3319
 7720SOL     OW34883   1.226   3.963   2.074  0.1749  0.1167  0.3949
 7720SOL    HW134884   1.142   4.000   2.103  0.7869  1.2185  0.8114
 7720SOL    HW234885   1.271   4.036   2.031  0.0221 -1.0275 -1.8559
 7721SOL     OW34886   6.802   8.017   7.898  0.2375  0.0550  0.3777
 7721SOL    HW134887   6.865   7.969   7.845  1.2017  0.5092  1.0835
 7721SOL    HW234888   6.778   7.955   7.968  1.4053  0.5280  1.2303
 7722SOL     OW34889   3.356  11.812   5.660  0.1386  0.1319 -0.3667
 7722SOL    HW134890   3.404  11.817   5.577  1.4642 -0.9186  0.2949
 7722SOL    HW234891   3.409  11.863   5.721  0.1574 -0.6146  0.2539
 7723SOL     OW34892  10.420   6.076   1.935 -0.2614 -0.1519  0.1012
 7723SOL    HW134893  10.364   6.011   1.893  0.2287 -2.0069  2.1636
 7723SOL    HW234894  10.364   6.117   2.001 -0.0294  0.1232  0.1288
 7724SOL     OW34895   6.485   3.019   5.484 -0.0092 -0.3196  0.4803
 7724SOL    HW134896   6.461   3.059   5.568 -2.5972  0.4011 -0.5104
 7724SOL    HW234897   6.502   3.093   5.426  0.4356 -0.7901 -0.0015
 7725SOL     OW34898   9.969   3.417   5.855 -0.0802  0.6690  0.2140
 7725SOL    HW134899  10.046   3.419   5.798  0.3502  0.7890  0.7872
 7725SOL    HW234900   9.956   3.508   5.882  0.5520  0.4436  1.3801
 7726SOL     OW34901   7.996   8.114   2.944  0.1556  0.1683 -0.3295
 7726SOL    HW134902   8.044   8.186   2.902  1.4555 -0.0655  0.6686
 7726SOL    HW234903   7.995   8.044   2.879  1.8227 -0.0689 -0.1334
 7727SOL     OW34904   4.324   3.673   6.563  0.3563 -0.3897 -0.4509
 7727SOL    HW134905   4.416   3.658   6.540  0.4406 -2.0954  0.8563
 7727SOL    HW234906   4.313   3.768   6.556  2.6728  0.0433  0.9321
 7728SOL     OW34907   1.686   5.846   9.162  0.7249  0.6849 -0.1441
 7728SOL    HW134908   1.660   5.822   9.251  0.9310 -0.3664 -0.3459
 7728SOL    HW234909   1.710   5.938   9.167 -1.5711  1.3079  0.3576
 7729SOL     OW34910   3.915   7.732   2.119  0.8771  0.1900 -0.1376
 7729SOL    HW134911   3.969   7.658   2.146  0.5843 -0.1464 -0.4726
 7729SOL    HW234912   3.835   7.722   2.171  1.5512  1.3046  1.1864
 7730SOL     OW34913   4.390   7.203   8.356  0.3242 -0.3990 -0.5212
 7730SOL    HW134914   4.483   7.228   8.359  0.9010 -2.4593 -0.1995
 7730SOL    HW234915   4.388   7.128   8.297 -1.4503  0.7033 -1.9766
 7731SOL     OW34916   2.719   6.805   3.734  0.0346  0.1003  0.5201
 7731SOL    HW134917   2.661   6.730   3.724 -1.3213  1.1469  0.2618
 7731SOL    HW234918   2.769   6.787   3.813  0.8775 -1.7909 -0.3889
 7732SOL     OW34919   7.713   2.691   0.801 -0.2765  0.0330  0.5932
 7732SOL    HW134920   7.704   2.712   0.894  0.9667 -0.3474  0.8145
 7732SOL    HW234921   7.752   2.604   0.800 -2.4765 -1.0265 -0.3079
 7733SOL     OW34922   7.898   1.056   5.452  0.6400 -0.0621 -0.5819
 7733SOL    HW134923   7.939   1.086   5.370 -2.2439 -1.8442 -2.8925
 7733SOL    HW234924   7.811   1.096   5.452  0.5787 -0.0594  1.7206
 7734SOL     OW34925   6.259   9.886   2.194 -0.3238 -0.3908 -0.1541
 7734SOL    HW134926   6.327   9.948   2.168  0.0008  0.0855  1.6969
 7734SOL    HW234927   6.186   9.905   2.135  0.8003 -0.3004 -1.5861
 7735SOL     OW34928   1.704   0.934  11.123 -0.4905 -0.1853  0.2606
 7735SOL    HW134929   1.763   0.955  11.050 -1.9369 -1.7405 -1.4775
 7735SOL    HW234930   1.725   0.998  11.190  2.6930 -0.2539 -0.5114
 7736SOL     OW34931   5.862   2.009   7.686  0.2743 -0.4224 -0.3088
 7736SOL    HW134932   5.934   1.961   7.727  0.8084  1.3621  0.9419
 7736SOL    HW234933   5.852   1.968   7.600  2.6868 -0.8237 -0.4622
 7737SOL     OW34934   2.600   6.211   6.771 -0.2534 -0.0031  0.1936
 7737SOL    HW134935   2.510   6.189   6.745  0.4015 -0.6950 -1.6739
 7737SOL    HW234936   2.616   6.160   6.850 -0.3792 -2.6631 -1.3869
 7738SOL     OW34937   5.253   0.525   0.887  0.4486  0.1020  0.5550
 7738SOL    HW134938   5.223   0.458   0.826  1.0036 -0.7374  1.1815
 7738SOL    HW234939   5.347   0.509   0.896  0.2238 -0.3773  2.3305
 7739SOL     OW34940   6.038   8.298  10.133  0.3698  0.4887  0.1747
 7739SOL    HW134941   6.048   8.277  10.041  0.5948  3.3331 -0.5350
 7739SOL    HW234942   6.119   8.267  10.174  1.0638  0.7930 -0.9252
 7740SOL     OW34943   3.565   7.929   0.952  0.1403  0.8315  0.5406
 7740SOL    HW134944   3.649   7.883   0.959 -0.4297 -0.1201  1.4792
 7740SOL    HW234945   3.585   8.008   0.902  1.3738  0.1028 -0.1637
 7741SOL     OW34946   5.671   7.527   9.057  0.2381  0.0036 -0.0553
 7741SOL    HW134947   5.584   7.560   9.081 -0.5524 -0.3193 -2.1844
 7741SOL    HW234948   5.732   7.592   9.091 -1.2003  3.7181 -3.6893
 7742SOL     OW34949   1.326  10.337   8.706 -0.3867 -0.2290 -0.3940
 7742SOL    HW134950   1.350  10.361   8.616  1.1974  2.6432  0.6564
 7742SOL    HW234951   1.406  10.299   8.742 -1.7160 -3.8211 -0.7842
 7743SOL     OW34952   7.416   8.276   6.582  0.0632  0.0895 -1.8400
 7743SOL    HW134953   7.356   8.209   6.616 -0.4625  1.2630 -0.3110
 7743SOL    HW234954   7.358   8.341   6.543  0.2197  1.5285  0.1848
 7744SOL     OW34955   1.775   7.079   0.588 -0.1585  0.9792 -0.0188
 7744SOL    HW134956   1.730   7.077   0.672 -1.7396  1.0680 -0.8248
 7744SOL    HW234957   1.771   6.989   0.556 -0.9208  1.2336 -0.6693
 7745SOL     OW34958   5.335  10.662   8.942 -0.1962 -0.4173 -0.0896
 7745SOL    HW134959   5.405  10.682   9.003 -1.9434  1.6106  1.4345
 7745SOL    HW234960   5.306  10.748   8.910 -1.3844 -1.2380 -1.3365
 7746SOL     OW34961  11.906   2.510  10.298  0.2870 -0.0791 -0.3809
 7746SOL    HW134962  11.950   2.446  10.353 -0.5630 -0.7932 -0.5001
 7746SOL    HW234963  11.821   2.470  10.278  0.6664  0.0130 -2.4511
 7747SOL     OW34964   1.787   1.512   5.262 -0.0903 -0.1542 -0.4479
 7747SOL    HW134965   1.846   1.470   5.200  1.4843  0.6271  0.4633
 7747SOL    HW234966   1.831   1.503   5.347 -0.6361  1.5898  0.0566
 7748SOL     OW34967   4.250   9.790   5.610  0.1342 -0.1455 -0.1322
 7748SOL    HW134968   4.192   9.848   5.561 -0.9679  0.7698  2.1027
 7748SOL    HW234969   4.315   9.849   5.650 -0.4731 -0.5131  1.4584
 7749SOL     OW34970   8.806   1.158   1.541  0.0172 -0.3328 -1.0190
 7749SOL    HW134971   8.780   1.210   1.617  2.5940  0.2601 -0.4706
 7749SOL    HW234972   8.790   1.067   1.567  0.0841 -0.0838 -0.0831
 7750SOL     OW34973   8.882  11.317   4.060  0.1494 -0.7291 -0.6650
 7750SOL    HW134974   8.934  11.397   4.048  1.2753 -1.3012  0.1759
 7750SOL    HW234975   8.923  11.253   4.002 -0.0600 -0.9956 -0.5232
 7751SOL     OW34976  10.721   8.715   5.819  0.2563 -0.2019  0.5276
 7751SOL    HW134977  10.783   8.787   5.833 -0.4215  0.3725  0.6481
 7751SOL    HW234978  10.683   8.732   5.733  2.1715 -2.0297 -0.7633
 7752SOL     OW34979   9.912   1.081   9.303 -0.1606 -0.3368 -0.0563
 7752SOL    HW134980   9.951   1.087   9.390 -0.2119 -2.0246  0.1207
 7752SOL    HW234981   9.928   1.166   9.263  2.3238 -0.4177  0.6010
 7753SOL     OW34982   3.592   9.431   5.451  0.3172 -0.4661  0.0606
 7753SOL    HW134983   3.586   9.375   5.374 -0.6159 -1.3552  0.7542
 7753SOL    HW234984   3.625   9.514   5.418  1.1676 -1.2285 -1.0867
 7754SOL     OW34985   4.443   9.445   9.977  0.2287  0.3023  0.2551
 7754SOL    HW134986   4.470   9.357  10.002 -0.4060 -0.0289 -0.2128
 7754SOL    HW234987   4.355   9.454  10.013 -0.1638  0.3160 -0.6757
 7755SOL     OW34988   4.403  10.620   8.997 -0.6682 -0.4573  0.0711
 7755SOL    HW134989   4.420  10.713   9.010 -1.1693 -0.3809  0.2050
 7755SOL    HW234990   4.403  10.582   9.085 -0.9481 -0.4976  0.0537
 7756SOL     OW34991   6.860   3.978   2.638 -0.4760  0.0549 -0.1557
 7756SOL    HW134992   6.911   4.010   2.713 -0.6994 -0.0325  0.0363
 7756SOL    HW234993   6.772   3.963   2.674 -0.3373 -0.9301 -0.1951
 7757SOL     OW34994   5.162   7.989   2.255  0.2933  0.0522 -0.0101
 7757SOL    HW134995   5.242   7.992   2.204 -0.5032 -0.8241 -1.3751
 7757SOL    HW234996   5.161   8.071   2.304  1.6031  0.4330 -0.6016
 7758SOL     OW34997   8.673   6.101   6.557  0.5344  0.1906 -0.1565
 7758SOL    HW134998   8.668   6.188   6.520  3.4211 -0.4234 -2.2681
 7758SOL    HW234999   8.715   6.112   6.642  1.4051  0.7969 -0.6664
 7759SOL     OW35000   6.737   5.199  11.358  0.2226  0.1141 -0.1469
 7759SOL    HW135001   6.739   5.115  11.402  0.9418  0.7442  1.0805
 7759SOL    HW235002   6.810   5.197  11.297  0.4859 -0.0093  0.1706
 7760SOL     OW35003   8.742   1.284   5.459  0.4370 -0.2666 -0.1847
 7760SOL    HW135004   8.765   1.376   5.469 -1.4992  0.1740  0.5600
 7760SOL    HW235005   8.688   1.280   5.380  0.4840 -0.7590 -0.1991
 7761SOL     OW35006   7.969   5.240  11.208  0.3929  0.4279 -0.1395
 7761SOL    HW135007   7.916   5.231  11.129 -0.5243  1.7828  0.2739
 7761SOL    HW235008   7.907   5.230  11.280  1.0794 -0.0478  0.3968
 7762SOL     OW35009   7.080   6.737   2.682  0.1426  0.2444  0.6014
 7762SOL    HW135010   7.002   6.746   2.627  1.4350  1.0534 -1.1930
 7762SOL    HW235011   7.095   6.642   2.686  0.1788  0.1715 -0.7149
 7763SOL     OW35012   2.824   6.042   0.920 -0.2619  0.0634  0.6467
 7763SOL    HW135013   2.857   6.076   1.004 -1.8265  0.0615  1.2958
 7763SOL    HW235014   2.784   6.118   0.878  0.3121  0.0111 -0.0110
 7764SOL     OW35015   6.808   3.436   0.747  0.3154  0.5848  0.4475
 7764SOL    HW135016   6.851   3.467   0.667  0.9807 -2.0252 -0.3139
 7764SOL    HW235017   6.741   3.502   0.765  0.8160  1.7806 -1.7005
 7765SOL     OW35018  10.000   1.213   7.404 -0.2217  0.2090 -0.6204
 7765SOL    HW135019   9.927   1.204   7.343  0.5013  0.1218 -1.5027
 7765SOL    HW235020   9.982   1.151   7.474 -0.2434 -0.9139 -1.5983
 7766SOL     OW35021   1.160  11.903   1.560 -0.1879 -0.0302  0.5335
 7766SOL    HW135022   1.119  11.876   1.641  0.1244 -2.4173 -0.0299
 7766SOL    HW235023   1.236  11.846   1.551 -0.2047  0.1714 -1.4196
 7767SOL     OW35024   5.820   4.123   5.580 -0.3368  0.5181  0.4389
 7767SOL    HW135025   5.784   4.042   5.615  0.8131 -0.0569  0.3544
 7767SOL    HW235026   5.915   4.115   5.595  0.3238  0.0266 -3.1339
 7768SOL     OW35027   2.950  10.153   5.995  0.0302 -0.3995  0.1861
 7768SOL    HW135028   2.933  10.077   5.939  1.1465 -0.1745 -0.4985
 7768SOL    HW235029   3.026  10.127   6.047  0.5911  0.3199 -0.2435
 7769SOL     OW35030   9.355  11.042  11.906  0.1578  0.1281 -0.3470
 7769SOL    HW135031   9.309  10.958  11.913 -1.3924  1.0403  0.9429
 7769SOL    HW235032   9.328  11.078  11.822 -1.0207  0.3703  0.1248
 7770SOL     OW35033   7.769   4.953   3.139 -0.2145  0.5434  0.3124
 7770SOL    HW135034   7.677   4.957   3.110 -0.7444 -2.3605  1.1901
 7770SOL    HW235035   7.764   4.960   3.234  0.3681 -0.2828  0.4138
 7771SOL     OW35036   0.902   6.460   8.106 -0.1190 -0.3674  0.7263
 7771SOL    HW135037   0.963   6.528   8.136 -0.6459  0.0725  0.8120
 7771SOL    HW235038   0.958   6.386   8.085  0.3909 -0.2083  1.4752
 7772SOL     OW35039  10.692   5.870   2.502 -0.0432  1.0590  0.1750
 7772SOL    HW135040  10.723   5.893   2.414 -0.6675  0.0261 -0.3312
 7772SOL    HW235041  10.772   5.858   2.553  0.3520  0.7348 -0.5037
 7773SOL     OW35042   3.537  11.566   5.022  0.1294 -0.0164 -0.1209
 7773SOL    HW135043   3.602  11.530   5.082  0.6520 -0.3004 -0.8403
 7773SOL    HW235044   3.568  11.540   4.935  0.0068  1.3464 -0.5984
 7774SOL     OW35045   8.185   7.992   1.443 -0.0517  0.1858 -0.0570
 7774SOL    HW135046   8.168   8.032   1.528  1.9189  0.1970  0.3690
 7774SOL    HW235047   8.204   7.900   1.462 -1.9949 -0.4201 -0.7734
 7775SOL     OW35048   4.948   9.802  10.053  0.5781  0.4573  0.4029
 7775SOL    HW135049   4.891   9.792   9.976  0.4153 -0.3646  0.6182
 7775SOL    HW235050   5.019   9.858  10.023  0.4057  0.3172 -0.2891
 7776SOL     OW35051   4.665   4.726   1.718  0.4717 -0.1370  0.4759
 7776SOL    HW135052   4.654   4.659   1.649 -2.5644  0.5519  0.1672
 7776SOL    HW235053   4.747   4.701   1.761 -0.1802 -3.7394  0.0066
 7777SOL     OW35054   3.916   2.580   4.906 -0.1088  0.4151  0.3423
 7777SOL    HW135055   3.949   2.517   4.843 -0.7825 -0.2157  0.6096
 7777SOL    HW235056   3.888   2.655   4.852 -1.5751 -0.5032 -0.2246
 7778SOL     OW35057  11.730   8.824   4.895 -0.1350 -0.2505  0.3056
 7778SOL    HW135058  11.747   8.734   4.922 -2.3527 -0.7695  0.1854
 7778SOL    HW235059  11.698   8.817   4.806  0.1838  0.7280  0.1001
 7779SOL     OW35060  10.184   0.699  11.288 -0.5866 -0.1144  0.3130
 7779SOL    HW135061  10.200   0.792  11.268 -1.9204  0.2218  0.6736
 7779SOL    HW235062  10.202   0.691  11.382  2.0661 -0.8514 -0.1808
 7780SOL     OW35063   6.654  11.569   5.663  0.4326 -0.1640  0.4217
 7780SOL    HW135064   6.746  11.588   5.642  0.3795 -0.0786  0.2620
 7780SOL    HW235065   6.614  11.655   5.671  0.0957 -0.1950 -0.7159
 7781SOL     OW35066   5.944   1.044   5.368  0.6894 -0.2089 -0.0314
 7781SOL    HW135067   5.998   1.080   5.438 -1.4634  0.4066  1.3933
 7781SOL    HW235068   5.960   0.950   5.371 -0.4630 -0.4032  2.3543
 7782SOL     OW35069   3.166   6.872   1.667 -0.8959  0.2409  0.9330
 7782SOL    HW135070   3.176   6.965   1.648  0.5196  0.1573  1.1402
 7782SOL    HW235071   3.250   6.847   1.707 -0.2181 -1.6939 -1.4702
 7783SOL     OW35072   7.507   5.583   3.631  0.7342 -0.2737 -0.1627
 7783SOL    HW135073   7.497   5.595   3.537  0.1472  0.3476 -0.0311
 7783SOL    HW235074   7.529   5.670   3.665 -0.1584 -0.2501  0.3995
 7784SOL     OW35075   8.707  10.822   0.919  0.5274 -0.2033  0.3115
 7784SOL    HW135076   8.704  10.740   0.870  0.5343  1.1599 -2.0970
 7784SOL    HW235077   8.627  10.822   0.970 -0.3694 -0.9140 -1.0398
 7785SOL     OW35078   3.945   2.459   4.084 -0.0726  0.4140 -0.3541
 7785SOL    HW135079   4.006   2.456   4.010 -0.5579  1.5632 -0.8291
 7785SOL    HW235080   3.860   2.438   4.046 -0.4470  1.6926 -0.2994
 7786SOL     OW35081  10.442   0.274   5.890 -0.1410 -0.0369 -0.1726
 7786SOL    HW135082  10.398   0.214   5.951  0.5998 -0.4402 -0.0227
 7786SOL    HW235083  10.518   0.225   5.859  0.1640  0.6221 -0.4817
 7787SOL     OW35084  10.491   7.341   5.886  0.2451 -0.4316 -0.2550
 7787SOL    HW135085  10.539   7.420   5.858  0.7051 -0.7694 -0.4289
 7787SOL    HW235086  10.400   7.369   5.889  0.5810  0.5799  1.3513
 7788SOL     OW35087   3.351   1.603  10.593 -0.1745 -0.0173  0.0883
 7788SOL    HW135088   3.320   1.542  10.527 -1.0350  0.1485  0.3324
 7788SOL    HW235089   3.419   1.654  10.548 -1.0046  0.3481 -0.7819
 7789SOL     OW35090   9.394   4.904   6.958  0.4529 -0.1272  0.2726
 7789SOL    HW135091   9.326   4.966   6.984  1.0804 -0.2240  2.3106
 7789SOL    HW235092   9.474   4.956   6.952  0.2434  0.0228 -2.2986
 7790SOL     OW35093  11.160   1.687   7.281 -0.2028  0.0004 -0.4016
 7790SOL    HW135094  11.138   1.617   7.343 -1.9662  0.9279  0.0935
 7790SOL    HW235095  11.181   1.642   7.200 -0.1551 -1.1512  0.2348
 7791SOL     OW35096  10.700   4.633  10.996  0.0364  0.7972 -0.2872
 7791SOL    HW135097  10.767   4.694  10.964  0.9581 -0.1044 -0.0959
 7791SOL    HW235098  10.617   4.675  10.971  0.6724  1.5240 -1.2723
 7792SOL     OW35099   4.787   8.972   7.221 -0.4145  0.5353  0.0046
 7792SOL    HW135100   4.844   9.047   7.207  1.0070 -0.1803  1.5248
 7792SOL    HW235101   4.754   8.983   7.310  2.0875 -1.9603  1.3980
 7793SOL     OW35102   0.702   0.584   3.228  0.3541  0.0481  0.8747
 7793SOL    HW135103   0.643   0.565   3.156  0.9836 -1.1485  0.6423
 7793SOL    HW235104   0.747   0.665   3.202 -0.7828  0.6807  0.8245
 7794SOL     OW35105   2.706  10.553   7.191 -0.3509  0.4207 -0.1478
 7794SOL    HW135106   2.755  10.578   7.112 -0.1044  0.0441 -0.1152
 7794SOL    HW235107   2.671  10.466   7.171 -1.0878  0.7233 -0.2046
 7795SOL     OW35108  10.095   4.166   3.460 -0.4017  0.1678  0.0594
 7795SOL    HW135109  10.162   4.098   3.466 -0.5061  0.1168  0.8665
 7795SOL    HW235110  10.138   4.238   3.414  0.2018  0.1183  0.5283
 7796SOL     OW35111   1.680   0.640  10.533 -1.3773 -0.5656 -0.2992
 7796SOL    HW135112   1.716   0.696  10.464  1.2434 -0.9533  0.6483
 7796SOL    HW235113   1.601   0.602  10.495 -2.4382  2.5439 -1.5167
 7797SOL     OW35114   0.611   5.182   6.031  0.3489  0.2874 -0.3316
 7797SOL    HW135115   0.586   5.245   6.098  0.3539 -0.4051  0.3375
 7797SOL    HW235116   0.562   5.103   6.054  0.4588  0.0002 -1.0667
 7798SOL     OW35117   4.365  10.501   9.776 -0.2908  0.2737  0.2473
 7798SOL    HW135118   4.316  10.455   9.707 -0.8207  1.5643 -0.2617
 7798SOL    HW235119   4.398  10.580   9.733  1.3032 -0.0102  0.8914
 7799SOL     OW35120   8.447   6.787   5.173  0.0753 -0.7085  0.3505
 7799SOL    HW135121   8.420   6.696   5.162  0.2399 -0.9299  1.5993
 7799SOL    HW235122   8.524   6.797   5.117 -1.1923 -0.7097 -1.4770
 7800SOL     OW35123   7.095   8.032  11.639  0.4686 -0.2045  0.6185
 7800SOL    HW135124   7.015   8.025  11.691  0.4993 -1.1552  0.5522
 7800SOL    HW235125   7.120   8.124  11.645 -0.1641 -0.0758  1.3338
 7801SOL     OW35126   2.022   9.653   5.571  0.7848  0.3847 -0.3269
 7801SOL    HW135127   2.050   9.570   5.533  1.7678  0.8902 -0.7291
 7801SOL    HW235128   1.972   9.628   5.648  1.0851 -0.5866 -0.4377
 7802SOL     OW35129   6.550  11.035   9.200  0.4786  0.0688  0.6302
 7802SOL    HW135130   6.490  11.083   9.257 -1.5527 -1.5860 -0.0139
 7802SOL    HW235131   6.494  10.974   9.152  2.7820 -2.1988  0.6186
 7803SOL     OW35132   6.531   4.571   0.512 -0.4662  0.0920 -0.0735
 7803SOL    HW135133   6.480   4.643   0.474 -1.1399  0.1009  0.8223
 7803SOL    HW235134   6.518   4.580   0.606  0.6312 -0.3413  0.1266
 7804SOL     OW35135   6.432  11.281   6.518 -0.0775 -0.1775 -0.4739
 7804SOL    HW135136   6.456  11.202   6.566  0.6618 -0.9668 -2.0609
 7804SOL    HW235137   6.500  11.344   6.539 -0.4280 -0.0933  0.4515
 7805SOL     OW35138   7.044   0.829   9.863  0.1100  0.3553  0.1546
 7805SOL    HW135139   7.000   0.749   9.895  0.1243 -0.5684 -1.9468
 7805SOL    HW235140   6.975   0.877   9.817  0.6604  0.2376 -0.8293
 7806SOL     OW35141   5.029   2.891   6.825  0.0158  0.2026 -0.0012
 7806SOL    HW135142   5.040   2.963   6.887  1.4829 -1.5105  1.9034
 7806SOL    HW235143   5.117   2.852   6.819 -0.9033 -1.9672 -0.1939
 7807SOL     OW35144   2.236   9.423   2.569  0.0337 -0.1706  0.0419
 7807SOL    HW135145   2.208   9.450   2.656 -0.2316  0.0893 -0.1207
 7807SOL    HW235146   2.158   9.433   2.514  0.3216  0.1203 -0.3246
 7808SOL     OW35147   0.363   3.565   7.932 -0.0771 -0.0828  0.4836
 7808SOL    HW135148   0.400   3.574   8.020  0.8091 -0.5308  0.1713
 7808SOL    HW235149   0.424   3.612   7.876 -0.8485  0.5356  0.1449
 7809SOL     OW35150   4.289   9.777   6.653 -0.0880  0.6990  0.2188
 7809SOL    HW135151   4.277   9.860   6.700 -0.3191 -0.1017  1.6337
 7809SOL    HW235152   4.290   9.711   6.722  1.6212 -0.3433 -0.7373
 7810SOL     OW35153   5.480   3.453   0.800  0.1821  0.0713 -0.1220
 7810SOL    HW135154   5.521   3.367   0.797 -0.7292 -0.5539  2.5523
 7810SOL    HW235155   5.413   3.450   0.732 -0.6639 -1.8351  0.7215
 7811SOL     OW35156   0.062   3.687   2.107  0.0542 -0.7842 -0.3168
 7811SOL    HW135157   0.048   3.774   2.070  0.6496 -0.4366  0.2650
 7811SOL    HW235158  -0.027   3.656   2.127 -0.0841  0.4598  1.2059
 7812SOL     OW35159   0.874   1.346   1.161 -0.0542  0.1541 -0.2276
 7812SOL    HW135160   0.850   1.253   1.163  1.0381 -0.1390 -0.2125
 7812SOL    HW235161   0.861   1.373   1.070 -2.4632  0.5868  0.1706
 7813SOL     OW35162   1.071   4.441   8.621 -0.1052 -0.1880  0.3453
 7813SOL    HW135163   1.010   4.501   8.663 -1.6218 -2.9007  2.3258
 7813SOL    HW235164   1.137   4.423   8.689  1.2795  0.4749 -0.7842
 7814SOL     OW35165   6.836   4.779  11.674  0.4553  0.2293 -0.6544
 7814SOL    HW135166   6.877   4.846  11.620  1.0397  0.5459  0.1658
 7814SOL    HW235167   6.811   4.710  11.612 -0.8970  1.5323 -1.6230
 7815SOL     OW35168   3.372   3.412   7.191 -0.5990 -0.1640 -0.3414
 7815SOL    HW135169   3.389   3.406   7.097 -0.3907 -2.2674 -0.2161
 7815SOL    HW235170   3.383   3.322   7.223 -3.8247 -0.1560  1.1709
 7816SOL     OW35171   0.573   2.298   3.348  0.2885  0.5091  0.1842
 7816SOL    HW135172   0.622   2.378   3.330  2.0879 -0.9528 -2.0593
 7816SOL    HW235173   0.635   2.240   3.392 -0.7024  0.0027  0.9709
 7817SOL     OW35174   6.675   4.962   6.592  0.0946 -0.0660 -0.4567
 7817SOL    HW135175   6.605   5.007   6.640  0.0183 -0.8667  0.2036
 7817SOL    HW235176   6.630   4.896   6.540  0.1139  1.1872 -2.1623
 7818SOL     OW35177   2.152  10.159   7.536  0.3686  0.2087  0.0418
 7818SOL    HW135178   2.209  10.236   7.544 -0.1800  0.5824  0.4328
 7818SOL    HW235179   2.083  10.173   7.601  1.5700 -1.7724  1.8521
 7819SOL     OW35180   5.638  11.554   7.852  0.0050 -0.1868 -0.1843
 7819SOL    HW135181   5.594  11.536   7.935 -1.0800 -1.9923 -1.0882
 7819SOL    HW235182   5.577  11.523   7.785  0.9148  1.0725 -1.6718
 7820SOL     OW35183   1.760  10.117   8.313 -0.4032  0.3059 -0.3913
 7820SOL    HW135184   1.765  10.083   8.402 -0.7210  0.8007 -0.1809
 7820SOL    HW235185   1.668  10.141   8.301 -0.5409 -0.5235 -1.1488
 7821SOL     OW35186   5.945   4.747   2.622 -0.7877 -0.3099  0.2336
 7821SOL    HW135187   5.865   4.782   2.584  0.2412 -0.0792 -1.8548
 7821SOL    HW235188   5.977   4.684   2.558  2.0977  1.5570 -0.3746
 7822SOL     OW35189   0.472   4.923   4.181  0.0149  0.1418 -0.1924
 7822SOL    HW135190   0.452   4.944   4.089 -0.5406 -1.0516 -0.3681
 7822SOL    HW235191   0.388   4.930   4.226 -0.2159 -1.5702 -0.2636
 7823SOL     OW35192   6.393   8.493   0.433  0.4277 -0.1380 -0.3045
 7823SOL    HW135193   6.416   8.541   0.513  1.2466 -2.0434  0.6485
 7823SOL    HW235194   6.463   8.430   0.421 -0.9557 -1.6099 -1.0897
 7824SOL     OW35195   0.513   6.500   9.711 -0.1652 -0.1005 -0.3383
 7824SOL    HW135196   0.458   6.498   9.789  0.2870  1.4121  0.0493
 7824SOL    HW235197   0.541   6.591   9.703  3.5913 -0.9780  0.4503
 7825SOL     OW35198   2.094   4.544   4.381  0.1907  0.2012  0.5444
 7825SOL    HW135199   2.031   4.594   4.432 -0.9130  1.1042 -1.5755
 7825SOL    HW235200   2.056   4.456   4.376  0.1862  0.1727  1.0747
 7826SOL     OW35201   0.005   3.018   8.633  0.7956  0.1438 -0.0545
 7826SOL    HW135202  -0.006   2.948   8.698  1.4062  1.8032  1.9349
 7826SOL    HW235203   0.092   3.052   8.650  0.7266  1.0309 -1.3812
 7827SOL     OW35204   4.831  10.493  11.140  0.0618  0.0849  0.1420
 7827SOL    HW135205   4.831  10.433  11.216  1.2645 -0.8013 -0.5282
 7827SOL    HW235206   4.758  10.462  11.086  0.2368 -0.3237  0.1378
 7828SOL     OW35207   2.021   7.166   5.048  0.1151 -0.4435  0.0239
 7828SOL    HW135208   2.023   7.108   5.124 -0.9213  0.6580  0.9376
 7828SOL    HW235209   1.928   7.183   5.033  0.3745  0.5924 -0.5148
 7829SOL     OW35210   6.958   6.403   0.645 -0.7502 -0.7005 -0.7686
 7829SOL    HW135211   6.917   6.448   0.718  1.7822  0.0898  0.2532
 7829SOL    HW235212   6.943   6.460   0.569 -2.4582 -1.0114 -0.7158
 7830SOL     OW35213   3.762   7.079   3.171  0.3456 -0.4738 -0.2330
 7830SOL    HW135214   3.732   7.089   3.262 -2.1919 -0.5352 -0.9949
 7830SOL    HW235215   3.719   7.000   3.139  3.0908 -1.8361 -0.8512
 7831SOL     OW35216   7.800   5.845   1.961  0.3302  0.6849 -0.1307
 7831SOL    HW135217   7.742   5.838   1.885 -0.6226 -0.9050  0.7017
 7831SOL    HW235218   7.775   5.772   2.017 -1.1276  3.4834  3.1885
 7832SOL     OW35219   4.466   3.785   8.368  0.3072  0.1618 -1.0395
 7832SOL    HW135220   4.480   3.742   8.283  0.1495 -0.8591 -0.5666
 7832SOL    HW235221   4.537   3.752   8.423 -0.3989 -0.2837 -0.3783
 7833SOL     OW35222   8.794  10.624   3.613  0.0424 -0.2070  0.1119
 7833SOL    HW135223   8.779  10.601   3.705  0.0646 -1.1106 -0.0956
 7833SOL    HW235224   8.707  10.631   3.575  0.0306 -1.5328 -0.1759
 7834SOL     OW35225   4.680  10.119   9.785 -0.3600  0.3563  0.1960
 7834SOL    HW135226   4.674  10.214   9.776 -1.4653  0.3878  1.0681
 7834SOL    HW235227   4.606  10.096   9.841  1.4432 -0.6967  2.3006
 7835SOL     OW35228   8.463   3.862   2.170 -0.1037  0.4941  0.0655
 7835SOL    HW135229   8.526   3.805   2.216  1.2923  2.7961  1.1746
 7835SOL    HW235230   8.387   3.866   2.228  0.3209  0.7667  0.6108
 7836SOL     OW35231   3.152   9.485   1.218 -0.1752 -0.4451  0.0013
 7836SOL    HW135232   3.118   9.529   1.296 -0.0100 -0.7338  0.2395
 7836SOL    HW235233   3.100   9.405   1.211 -0.2928 -0.3462 -0.2750
 7837SOL     OW35234   4.602   1.372   2.461 -0.6694 -0.1422 -0.1078
 7837SOL    HW135235   4.663   1.348   2.391 -0.0399 -3.4803  1.3532
 7837SOL    HW235236   4.542   1.297   2.467 -4.0573  2.3007 -0.3974
 7838SOL     OW35237   8.669   7.267   5.851  0.4066 -0.2335  0.6375
 7838SOL    HW135238   8.746   7.242   5.801 -0.6312 -1.2660 -0.4973
 7838SOL    HW235239   8.604   7.200   5.832 -1.2693  1.3595  0.3946
 7839SOL     OW35240   4.357  11.652   5.794 -0.1930  0.1694  0.4080
 7839SOL    HW135241   4.421  11.581   5.788  1.3176  1.5579 -1.5641
 7839SOL    HW235242   4.364  11.683   5.885  2.3368  0.5231  0.1862
 7840SOL     OW35243   2.822   7.565   9.587  0.3017 -0.1862 -0.5829
 7840SOL    HW135244   2.915   7.561   9.612  0.3542 -1.6008 -0.9139
 7840SOL    HW235245   2.817   7.510   9.509 -0.7900  0.0352 -0.6730
 7841SOL     OW35246   3.831   1.214   9.361 -0.0112  0.2067  0.4146
 7841SOL    HW135247   3.890   1.251   9.427  0.0633 -0.3766  0.6861
 7841SOL    HW235248   3.869   1.128   9.341 -0.8632 -0.2644  0.7413
 7842SOL     OW35249   3.155   1.076  11.050 -0.1590  0.0456 -1.0013
 7842SOL    HW135250   3.087   1.112  10.993  0.8428  0.0655 -2.2125
 7842SOL    HW235251   3.163   0.985  11.023 -0.8461 -0.4295  0.2838
 7843SOL     OW35252  10.703   5.054   4.833  0.4778 -0.3904  0.2256
 7843SOL    HW135253  10.640   5.003   4.884  0.0733 -1.1823 -1.0416
 7843SOL    HW235254  10.697   5.142   4.870 -0.0520 -0.8614  1.3152
 7844SOL     OW35255   8.504  11.840   3.063  0.4089 -0.0043  0.1319
 7844SOL    HW135256   8.432  11.782   3.089 -0.6635  1.4438  0.5022
 7844SOL    HW235257   8.564  11.838   3.138  0.0707 -0.1625  0.4032
 7845SOL     OW35258   9.608   1.391   7.976 -0.2196 -0.3965  0.0269
 7845SOL    HW135259   9.700   1.414   7.969 -0.9207  2.2202 -3.5792
 7845SOL    HW235260   9.577   1.443   8.051  0.9716 -0.2507  0.4410
 7846SOL     OW35261  11.861   5.412   4.429  0.5595 -0.0227 -0.1512
 7846SOL    HW135262  11.874   5.507   4.434  1.2418 -0.1609  3.4769
 7846SOL    HW235263  11.768   5.400   4.450  0.2565 -0.1371 -1.5219
 7847SOL     OW35264   4.074   0.958   9.450 -0.1603 -0.2134  0.1847
 7847SOL    HW135265   4.166   0.933   9.441 -0.0046  0.5864 -0.5865
 7847SOL    HW235266   4.059   0.960   9.545  1.1256  1.4113  0.3890
 7848SOL     OW35267   6.969  10.218  11.807 -0.3768  0.6064  0.3675
 7848SOL    HW135268   6.918  10.136  11.804  1.8822 -0.9015  0.9629
 7848SOL    HW235269   6.941  10.260  11.889 -3.4312  1.8292 -1.1373
 7849SOL     OW35270   7.588   7.290   6.362  0.3980  0.1722 -0.1996
 7849SOL    HW135271   7.539   7.213   6.334 -0.8528 -0.3577  3.0556
 7849SOL    HW235272   7.535   7.364   6.332  0.0294 -0.2884 -0.7123
 7850SOL     OW35273   0.263   5.097   1.641 -0.0058 -0.1154 -0.0575
 7850SOL    HW135274   0.276   5.045   1.720  1.4051  1.0409  0.5162
 7850SOL    HW235275   0.175   5.134   1.651  0.6094  1.0369  1.6422
 7851SOL     OW35276   7.371  10.076   9.516 -0.3429 -0.2203  0.1098
 7851SOL    HW135277   7.380  10.068   9.611 -0.9475  0.4018  0.2221
 7851SOL    HW235278   7.282  10.047   9.498  0.1353 -1.4367 -0.4107
 7852SOL     OW35279  10.707   2.383   4.724 -0.2177  0.0880 -0.0145
 7852SOL    HW135280  10.769   2.436   4.674 -0.1329  0.4291  0.4495
 7852SOL    HW235281  10.669   2.323   4.659  0.4039  0.0520 -0.3529
 7853SOL     OW35282   3.529   7.823   0.047 -0.3772  0.4366 -0.0011
 7853SOL    HW135283   3.526   7.901   0.102 -1.6515  0.6214 -0.3072
 7853SOL    HW235284   3.512   7.855  -0.042 -1.5666 -0.2439 -0.0482
 7854SOL     OW35285   6.087   7.882  10.200 -0.4317  0.0565 -0.1503
 7854SOL    HW135286   6.090   7.789  10.222  1.8468  0.1456  0.1207
 7854SOL    HW235287   6.121   7.926  10.277 -1.5069  1.1509 -0.2706
 7855SOL     OW35288   7.778   0.909   5.777 -0.2981 -0.4138  0.0103
 7855SOL    HW135289   7.863   0.924   5.818 -0.4969 -1.3202  0.7763
 7855SOL    HW235290   7.797   0.899   5.683  0.2381  0.9752 -0.0573
 7856SOL     OW35291   6.423  10.145  11.589  1.0330 -0.9745 -0.0757
 7856SOL    HW135292   6.395  10.208  11.655  0.6679 -0.7994 -0.3898
 7856SOL    HW235293   6.514  10.125  11.611  0.8116 -1.1765  0.6807
 7857SOL     OW35294   2.482   3.768   0.128 -0.2863 -0.7842  0.2973
 7857SOL    HW135295   2.475   3.759   0.223 -0.1151  1.1262  0.5297
 7857SOL    HW235296   2.424   3.701   0.093 -1.8834 -0.2612  1.7910
 7858SOL     OW35297   0.909   4.773   5.340  0.3173  0.3257 -0.1837
 7858SOL    HW135298   0.904   4.866   5.360 -0.2081  0.4291 -0.7709
 7858SOL    HW235299   0.823   4.751   5.304 -0.0981 -0.7219  1.3322
 7859SOL     OW35300  10.297   9.149   5.748  0.1501 -0.6907 -0.2637
 7859SOL    HW135301  10.383   9.108   5.758  1.2791  1.2585 -1.2930
 7859SOL    HW235302  10.256   9.140   5.834  0.4577 -3.5064 -0.3149
 7860SOL     OW35303   6.907   5.386  10.766 -0.4950  0.1970 -0.0321
 7860SOL    HW135304   6.910   5.324  10.693  1.8036 -0.7943  0.8061
 7860SOL    HW235305   6.892   5.333  10.844  0.8507  0.7274  0.6258
 7861SOL     OW35306   4.698  10.197   8.155 -0.6707  0.1544  0.8833
 7861SOL    HW135307   4.781  10.202   8.108 -2.0055  1.0902 -1.6320
 7861SOL    HW235308   4.678  10.288   8.177 -1.5491  0.1059  0.3626
 7862SOL     OW35309   3.490   7.743   9.225  0.2769 -0.0804 -0.0772
 7862SOL    HW135310   3.574   7.742   9.271  0.6363  0.3727 -0.7121
 7862SOL    HW235311   3.442   7.669   9.263  0.8001 -0.1018  0.5785
 7863SOL     OW35312   4.184   2.754  10.996  0.0799  0.2756 -0.1157
 7863SOL    HW135313   4.115   2.705  10.949  0.0033 -0.3153  0.5865
 7863SOL    HW235314   4.264   2.704  10.979  0.1958  0.5075 -0.2606
 7864SOL     OW35315   3.618  10.893   8.735  0.4115  0.2455  0.6296
 7864SOL    HW135316   3.585  10.963   8.679  0.5731  0.1716  0.4388
 7864SOL    HW235317   3.633  10.935   8.819 -2.1952 -0.1654  1.3981
 7865SOL     OW35318  10.441   4.779  10.501  0.0057 -0.6913 -0.2020
 7865SOL    HW135319  10.441   4.826  10.418 -1.8480  0.4446  0.3785
 7865SOL    HW235320  10.488   4.837  10.561  0.2953 -0.9614 -0.1630
 7866SOL     OW35321   6.766   6.608   4.933 -0.3457  0.0261  0.3030
 7866SOL    HW135322   6.699   6.564   4.984  0.0948 -1.2574 -0.1746
 7866SOL    HW235323   6.800   6.540   4.875  0.3086  1.0309 -0.5310
 7867SOL     OW35324   4.231   1.521   5.546  0.2409  0.2845  0.0690
 7867SOL    HW135325   4.277   1.601   5.572 -1.4708  1.0581  0.8949
 7867SOL    HW235326   4.282   1.450   5.585  0.9638  1.0720  0.6030
 7868SOL     OW35327   0.455   4.281  11.460 -0.1881 -0.0015 -0.5506
 7868SOL    HW135328   0.404   4.361  11.472  0.2762  0.4495 -1.4117
 7868SOL    HW235329   0.494   4.264  11.546 -0.5360  0.5280 -0.2820
 7869SOL     OW35330   2.815  10.260   3.389  0.6921  0.2476 -0.5909
 7869SOL    HW135331   2.789  10.290   3.476 -1.0212 -0.6279 -0.7670
 7869SOL    HW235332   2.895  10.209   3.405 -0.0599 -0.6230  0.6132
 7870SOL     OW35333   4.548   3.081   3.501 -0.5640 -0.4437 -0.0400
 7870SOL    HW135334   4.615   3.016   3.523  0.5981  0.1088 -1.7050
 7870SOL    HW235335   4.541   3.076   3.406 -2.5180 -0.0753  0.0565
 7871SOL     OW35336   2.997   7.466   9.790 -0.1002  0.0488 -0.2733
 7871SOL    HW135337   2.950   7.403   9.845  0.6539 -0.3510 -0.0778
 7871SOL    HW235338   2.976   7.552   9.829  1.6973 -0.3030  1.7008
 7872SOL     OW35339   9.402   0.597  11.715  0.0079 -0.1117  0.3387
 7872SOL    HW135340   9.439   0.684  11.699  1.3616 -0.8599 -0.8111
 7872SOL    HW235341   9.312   0.615  11.745  0.5150  1.6891  0.9382
 7873SOL     OW35342   3.875   7.611   7.953  0.7299  0.3261  0.3858
 7873SOL    HW135343   3.866   7.516   7.959 -0.2698  0.2392 -1.6386
 7873SOL    HW235344   3.800   7.645   8.002  2.0286  0.1716  2.5985
 7874SOL     OW35345   6.598   6.928   8.074 -0.0403  0.1461  0.2582
 7874SOL    HW135346   6.668   6.863   8.069  0.9682  1.2731 -0.7869
 7874SOL    HW235347   6.639   7.005   8.112 -0.7325  0.8026 -0.2947
 7875SOL     OW35348   6.639   0.799   8.682  0.2493 -0.0591  0.1682
 7875SOL    HW135349   6.556   0.753   8.695 -0.0413  0.9328  2.3237
 7875SOL    HW235350   6.706   0.733   8.696 -0.1714 -0.0885  2.4178
 7876SOL     OW35351   8.137   8.976   8.819 -0.5469 -0.0115  0.1029
 7876SOL    HW135352   8.164   8.907   8.880 -0.7602 -0.0490  0.1562
 7876SOL    HW235353   8.201   8.971   8.748 -0.1423  0.2059  0.4493
 7877SOL     OW35354   9.981   3.408  10.200  0.2995 -0.2770 -0.1410
 7877SOL    HW135355  10.015   3.321  10.216  1.7513 -0.0960 -1.9457
 7877SOL    HW235356  10.033   3.465  10.256  0.1818 -0.4184  0.1173
 7878SOL     OW35357   5.881   4.747   9.755 -0.0160  0.2976 -0.2379
 7878SOL    HW135358   5.895   4.841   9.769  0.3663  0.4486 -1.4502
 7878SOL    HW235359   5.811   4.744   9.690 -0.4514 -0.2807  0.2538
 7879SOL     OW35360   7.323   7.422   1.781  0.6331  0.1872 -0.7449
 7879SOL    HW135361   7.259   7.393   1.716  0.1394  0.2981 -0.3119
 7879SOL    HW235362   7.272   7.474   1.843  1.1266  0.1906 -0.3395
 7880SOL     OW35363   4.554   6.373  11.908  0.2664  0.6685  0.2079
 7880SOL    HW135364   4.595   6.456  11.932  1.6354 -0.0060  0.2644
 7880SOL    HW235365   4.606   6.306  11.953  0.1593 -0.3214 -1.0904
 7881SOL     OW35366   5.220   8.838   2.715 -0.9046 -0.2011 -0.0839
 7881SOL    HW135367   5.200   8.801   2.801 -1.9389 -0.4330 -0.4007
 7881SOL    HW235368   5.311   8.866   2.721 -0.7068 -0.9785  0.8159
 7882SOL     OW35369   9.195   3.146   6.473 -0.2380  0.5857  0.1134
 7882SOL    HW135370   9.289   3.141   6.453 -0.5214  0.3298 -1.2636
 7882SOL    HW235371   9.191   3.175   6.564  1.2039 -1.2550  0.8184
 7883SOL     OW35372   1.597   4.434  11.452  0.4948 -0.4131 -0.4180
 7883SOL    HW135373   1.688   4.408  11.456  0.6775  0.0086 -1.5441
 7883SOL    HW235374   1.548   4.352  11.460  0.9772 -0.6975 -0.3420
 7884SOL     OW35375   5.265   3.758   3.579 -0.0085  0.9399  0.1906
 7884SOL    HW135376   5.300   3.838   3.540  1.3688  0.6381  0.7154
 7884SOL    HW235377   5.269   3.773   3.674 -0.3427  0.5014  0.2774
 7885SOL     OW35378   9.901   4.231   4.869  0.2531 -0.0488 -0.4498
 7885SOL    HW135379   9.981   4.179   4.867 -0.5649 -1.5518  1.7963
 7885SOL    HW235380   9.931   4.321   4.864  2.1232 -0.5498  0.6971
 7886SOL     OW35381   2.537   7.979   8.514 -0.0668  0.4507 -0.3240
 7886SOL    HW135382   2.443   7.978   8.497 -0.1914  0.5031  0.3479
 7886SOL    HW235383   2.572   7.907   8.461 -0.7768 -0.9991  1.1129
 7887SOL     OW35384  11.691   3.110   3.128 -0.3946  0.1117  0.1458
 7887SOL    HW135385  11.697   3.094   3.222 -1.6050  0.3513  0.2706
 7887SOL    HW235386  11.614   3.062   3.099  1.0809 -1.6702 -1.1363
 7888SOL     OW35387   0.409   2.083  11.718  0.3798  0.4715  0.6573
 7888SOL    HW135388   0.314   2.096  11.717  0.3411  0.1721  0.4294
 7888SOL    HW235389   0.426   2.039  11.800  0.4474  1.4617  1.1870
 7889SOL     OW35390  10.281  10.135   8.324  0.1848 -0.6855 -0.3345
 7889SOL    HW135391  10.203  10.187   8.343  0.9504  0.6186 -0.6962
 7889SOL    HW235392  10.283  10.129   8.229  1.2311  0.3936 -0.3893
 7890SOL     OW35393   6.108  10.857  11.357 -0.4158  0.1774  0.1546
 7890SOL    HW135394   6.065  10.785  11.403 -2.2060  0.3749 -1.1286
 7890SOL    HW235395   6.173  10.815  11.301 -0.2268 -0.2779  0.7016
 7891SOL     OW35396   8.106   9.716   5.573  0.2243 -0.4404  0.3112
 7891SOL    HW135397   8.182   9.685   5.524  0.2353 -2.3387  1.4398
 7891SOL    HW235398   8.050   9.639   5.583  0.3253 -0.2466  3.4237
 7892SOL     OW35399  11.799   9.493   2.118  0.1888 -0.0235  0.5278
 7892SOL    HW135400  11.724   9.550   2.103 -0.0939  0.2642  2.7964
 7892SOL    HW235401  11.801   9.435   2.041 -1.3073  1.0700 -0.3690
 7893SOL     OW35402   5.677  10.391  10.366 -0.0722 -0.3120  0.1506
 7893SOL    HW135403   5.728  10.318  10.331  1.5398  0.8726 -0.0581
 7893SOL    HW235404   5.631  10.427  10.290  1.2792  0.5596 -0.2818
 7894SOL     OW35405   0.372   5.108   6.604 -0.0314  0.4145 -0.2504
 7894SOL    HW135406   0.374   5.159   6.523  0.0945  0.3346 -0.2985
 7894SOL    HW235407   0.401   5.169   6.672  2.3326 -0.1723 -0.6260
 7895SOL     OW35408   5.135   7.836   5.087  0.2476  0.1804 -0.2872
 7895SOL    HW135409   5.180   7.884   5.157  0.2895 -0.9662  0.5155
 7895SOL    HW235410   5.194   7.841   5.012  3.0707 -3.2478  1.3654
 7896SOL     OW35411   3.643   1.852   1.659 -0.5150  0.1784  0.0739
 7896SOL    HW135412   3.632   1.784   1.725  1.1219 -0.2007  0.0041
 7896SOL    HW235413   3.555   1.886   1.644 -1.3242 -1.6711  0.3759
 7897SOL     OW35414   8.042   5.030   7.848  0.7278 -0.3990  0.3851
 7897SOL    HW135415   7.964   4.979   7.829 -0.0765  0.9495 -0.0931
 7897SOL    HW235416   8.009   5.117   7.873  2.0164 -0.3285  1.9817
 7898SOL     OW35417   1.725   2.473   3.239 -0.0161 -0.1379 -0.1637
 7898SOL    HW135418   1.769   2.531   3.177  1.2188 -1.2341 -0.3680
 7898SOL    HW235419   1.642   2.516   3.258  0.7839  1.6086 -0.4211
 7899SOL     OW35420   5.580   1.278  11.040 -0.1704 -0.4213  0.2120
 7899SOL    HW135421   5.633   1.351  11.009 -0.2954 -0.1975  0.5150
 7899SOL    HW235422   5.536   1.245  10.962 -1.1350  0.6658  0.2633
 7900SOL     OW35423   1.991   8.445   4.342  0.5781  0.4773  0.3139
 7900SOL    HW135424   1.923   8.387   4.376 -0.5846  1.7237  0.2440
 7900SOL    HW235425   2.027   8.399   4.267 -0.6842  0.0634 -0.0712
 7901SOL     OW35426   1.215   5.087   0.228 -0.5043 -0.3119 -0.1401
 7901SOL    HW135427   1.231   5.092   0.322  2.5131 -0.5790 -0.5483
 7901SOL    HW235428   1.183   4.997   0.215  2.5486 -1.6107  0.3293
 7902SOL     OW35429   2.608   3.428   4.018 -0.2737 -0.4856  0.3570
 7902SOL    HW135430   2.696   3.451   4.046 -0.4015  0.4282  0.0327
 7902SOL    HW235431   2.558   3.421   4.099 -0.4028  1.1337  0.4433
 7903SOL     OW35432   1.293   6.080   5.219 -0.0439  0.0350 -1.3792
 7903SOL    HW135433   1.226   6.035   5.272 -0.1168  0.2756 -1.2634
 7903SOL    HW235434   1.362   6.014   5.207  0.7046  0.4468  0.3632
 7904SOL     OW35435   2.829   0.937   9.460  0.4694  0.3989 -0.0448
 7904SOL    HW135436   2.831   1.020   9.509  1.5062  0.2216  0.2390
 7904SOL    HW235437   2.826   0.963   9.368  1.4217  0.7760  0.0183
 7905SOL     OW35438   4.295   2.102   0.729 -0.3236  0.7083 -0.0116
 7905SOL    HW135439   4.354   2.149   0.670  3.3723 -1.4019  1.6025
 7905SOL    HW235440   4.278   2.164   0.800  1.1633  0.9971  0.1374
 7906SOL     OW35441   4.188  11.089   0.850 -0.0471  0.8895  0.1269
 7906SOL    HW135442   4.108  11.140   0.839 -0.8734 -0.0407  1.6228
 7906SOL    HW235443   4.236  11.134   0.919  0.2972  0.9233 -0.1318
 7907SOL     OW35444   5.331   6.825   4.922 -0.6366 -0.3914  0.2487
 7907SOL    HW135445   5.252   6.807   4.871 -1.9986 -0.0325  2.1593
 7907SOL    HW235446   5.299   6.858   5.006  1.5167 -1.1315  1.4316
 7908SOL     OW35447   1.957   2.008   2.804 -0.1934  0.0594 -0.1456
 7908SOL    HW135448   1.972   1.930   2.858  3.0415 -0.1107 -1.0813
 7908SOL    HW235449   2.006   2.077   2.848 -3.5112  1.9112  1.0173
 7909SOL     OW35450  10.660   9.681  10.544 -0.0783 -0.1635 -0.0153
 7909SOL    HW135451  10.614   9.765  10.550  0.3824 -0.0007  1.8189
 7909SOL    HW235452  10.656   9.645  10.633  1.6834 -1.0191 -0.2415
 7910SOL     OW35453   7.163   5.586   7.771  0.3786 -0.7610  0.0263
 7910SOL    HW135454   7.082   5.550   7.806  0.2706 -2.9946 -2.2286
 7910SOL    HW235455   7.149   5.590   7.676  2.3722  0.1853 -0.2940
 7911SOL     OW35456  11.064   6.753   5.380 -0.4622 -0.0045 -0.4205
 7911SOL    HW135457  11.030   6.742   5.291 -0.4602 -0.1148 -0.4089
 7911SOL    HW235458  11.146   6.705   5.381 -0.4749 -0.0262 -0.3519
 7912SOL     OW35459   5.964   5.254   1.613  0.2389 -0.1729 -0.0321
 7912SOL    HW135460   5.951   5.313   1.687 -1.0025  0.8393 -1.0184
 7912SOL    HW235461   6.004   5.176   1.652  0.2786  0.6086  1.5780
 7913SOL     OW35462   9.844   8.394   8.334  0.1037 -0.2825  0.0617
 7913SOL    HW135463   9.810   8.304   8.340 -0.9614  0.1472  0.6570
 7913SOL    HW235464   9.779   8.447   8.378  0.1978  0.9285 -1.1865
 7914SOL     OW35465   7.242  11.353   3.201 -0.0525 -0.0683 -0.3075
 7914SOL    HW135466   7.320  11.333   3.253 -0.2809 -0.0561  0.0399
 7914SOL    HW235467   7.272  11.417   3.137  0.0043  0.6657  0.4336
 7915SOL     OW35468   2.982   5.610   6.713  0.8067  0.6246 -0.2213
 7915SOL    HW135469   3.006   5.696   6.747  0.9661 -0.0533  1.4627
 7915SOL    HW235470   2.971   5.555   6.790 -1.0440 -0.4387 -1.1560
 7916SOL     OW35471   3.785   6.407   1.843  0.2323  0.5194  0.0076
 7916SOL    HW135472   3.835   6.331   1.874 -0.0560  0.0522 -0.6349
 7916SOL    HW235473   3.813   6.479   1.899  2.9131  0.6905 -1.4082
 7917SOL     OW35474   1.009   9.919   5.273 -0.6978  0.2243 -0.7040
 7917SOL    HW135475   1.067   9.954   5.340 -1.2534 -0.2129  0.0216
 7917SOL    HW235476   1.048   9.947   5.190  0.2312  0.4098 -0.2166
 7918SOL     OW35477   0.124   0.515   7.687 -0.4066 -0.1977 -0.7437
 7918SOL    HW135478   0.064   0.441   7.696 -0.8087  0.1844 -0.2514
 7918SOL    HW235479   0.198   0.480   7.637  0.5410 -1.6228  1.4986
 7919SOL     OW35480   7.921   8.576   0.337  0.3849 -0.2100  0.1180
 7919SOL    HW135481   7.847   8.534   0.293  0.4109  0.4908 -0.6252
 7919SOL    HW235482   7.982   8.505   0.356 -0.7958 -0.9189  1.4361
 7920SOL     OW35483   0.138   9.585   9.721  0.4320  0.0364  0.0609
 7920SOL    HW135484   0.095   9.547   9.644 -1.0446 -0.3946  1.0443
 7920SOL    HW235485   0.219   9.535   9.731  0.7051  0.1759 -1.2642
 7921SOL     OW35486   3.944   2.434   3.627  0.0616 -0.4317 -0.0419
 7921SOL    HW135487   3.880   2.504   3.611  0.1839 -0.3174 -0.0277
 7921SOL    HW235488   4.004   2.438   3.553  1.3920  0.9376  1.0660
 7922SOL     OW35489   6.388   5.004   8.906 -0.0051 -0.3252  0.0485
 7922SOL    HW135490   6.390   5.036   8.816 -0.0890 -1.4221 -0.3566
 7922SOL    HW235491   6.321   4.936   8.905  1.2128 -1.5602  0.5183
 7923SOL     OW35492   9.705  11.626   7.334  0.0114  0.4738  0.1960
 7923SOL    HW135493   9.700  11.703   7.277 -1.3679  0.6732  0.5516
 7923SOL    HW235494   9.781  11.643   7.390 -0.5152  1.8007  0.5492
 7924SOL     OW35495   5.773   6.544  10.570 -0.6580  0.3935 -0.5065
 7924SOL    HW135496   5.843   6.480  10.559  0.4801  1.6113 -0.6190
 7924SOL    HW235497   5.702   6.513  10.514 -0.5848 -1.3521  0.2933
 7925SOL     OW35498   7.984   3.956   4.976  0.0685 -0.0645  0.3348
 7925SOL    HW135499   7.900   3.913   4.960 -0.3075  0.8340 -0.2383
 7925SOL    HW235500   8.033   3.943   4.895  0.7217 -1.0743  0.8726
 7926SOL     OW35501  11.555   7.007   5.892 -0.3494 -0.0027 -0.1313
 7926SOL    HW135502  11.485   7.070   5.907 -0.8281 -0.7368  0.8673
 7926SOL    HW235503  11.578   6.976   5.980  2.6389  1.6832 -0.1909
 7927SOL     OW35504   8.341   0.714   6.803  0.7693 -0.4664  0.3140
 7927SOL    HW135505   8.400   0.784   6.774 -0.6143  1.0958  1.1053
 7927SOL    HW235506   8.357   0.706   6.897  0.2363 -0.5353  0.4017
 7928SOL     OW35507   2.633   0.908   8.311 -0.2592 -0.2555 -0.2744
 7928SOL    HW135508   2.562   0.874   8.257 -0.6457  1.0038 -0.5870
 7928SOL    HW235509   2.589   0.956   8.382  0.2670  0.5794 -0.4980
 7929SOL     OW35510   2.709   6.123  10.444 -0.0339  0.0301  0.3694
 7929SOL    HW135511   2.644   6.136  10.513  1.3793 -1.8243  2.1867
 7929SOL    HW235512   2.675   6.049  10.393 -0.0972  0.0903  0.3226
 7930SOL     OW35513   7.796   4.104   5.735 -0.3055 -0.5670  0.7874
 7930SOL    HW135514   7.709   4.075   5.708  0.1825 -1.1338 -0.2205
 7930SOL    HW235515   7.856   4.054   5.681  0.6042  2.1137 -0.8935
 7931SOL     OW35516   7.288   5.591   9.804 -0.2741 -0.2037  0.4518
 7931SOL    HW135517   7.281   5.596   9.709 -0.3979 -0.3633  0.4514
 7931SOL    HW235518   7.214   5.641   9.836  0.0256  0.2339  0.4685
 7932SOL     OW35519   4.520   4.804   3.990 -0.3420 -0.3752  0.4778
 7932SOL    HW135520   4.516   4.735   3.924 -1.9290  0.3739 -0.2902
 7932SOL    HW235521   4.524   4.758   4.074 -1.8316 -1.4311  0.0142
 7933SOL     OW35522   3.087   2.399   2.208 -0.5411  0.2644 -0.0608
 7933SOL    HW135523   3.115   2.316   2.247 -1.9750 -0.8494 -1.3072
 7933SOL    HW235524   3.054   2.376   2.121 -2.0660  1.9426 -0.0022
 7934SOL     OW35525  11.628  10.722  10.958 -0.0114 -0.2827 -0.1696
 7934SOL    HW135526  11.646  10.812  10.986 -0.0590 -0.7298  1.4155
 7934SOL    HW235527  11.540  10.726  10.920  0.9877  0.8046 -2.6033
 7935SOL     OW35528   3.949   5.768   1.497  1.0896 -0.4450 -0.5935
 7935SOL    HW135529   3.862   5.809   1.497  1.5296  0.5323 -1.3890
 7935SOL    HW235530   3.993   5.805   1.420  1.8121 -1.7971 -0.8735
 7936SOL     OW35531   2.362   0.858   2.385 -0.6099  0.4748  0.3403
 7936SOL    HW135532   2.457   0.876   2.385 -0.8642  2.1814 -1.4497
 7936SOL    HW235533   2.329   0.906   2.309 -2.8382 -0.6532  0.5256
 7937SOL     OW35534   2.106   1.628   7.950  0.4566 -0.2479 -0.6231
 7937SOL    HW135535   2.189   1.665   7.980 -0.5909  1.5707  0.1518
 7937SOL    HW235536   2.101   1.542   7.992  1.6613 -0.1296 -0.2162
 7938SOL     OW35537   7.138   4.241   9.478 -0.2280 -0.1608 -0.2677
 7938SOL    HW135538   7.089   4.175   9.526  1.5196 -2.5980 -1.6611
 7938SOL    HW235539   7.209   4.194   9.437  1.4076  2.6931 -1.0011
 7939SOL     OW35540   9.424   8.653   7.181  0.2579 -0.4245  0.2419
 7939SOL    HW135541   9.514   8.630   7.156  0.3373  1.3236 -1.2991
 7939SOL    HW235542   9.381   8.569   7.193  1.2374 -1.4305 -2.3708
 7940SOL     OW35543  11.310   5.328   2.634 -0.2160  0.3324 -0.2268
 7940SOL    HW135544  11.348   5.351   2.550  0.1244  1.4815  0.2254
 7940SOL    HW235545  11.216   5.346   2.623  0.1264  2.8090  0.3470
 7941SOL     OW35546   5.020   3.084   1.280 -0.2615  0.1462  0.0538
 7941SOL    HW135547   4.988   3.174   1.277  0.7803  0.5925  1.5590
 7941SOL    HW235548   5.089   3.081   1.214 -1.0048  0.1319 -0.7473
 7942SOL     OW35549   4.145  10.625  10.602 -0.0718 -0.5199 -0.5650
 7942SOL    HW135550   4.219  10.632  10.543  1.6793  1.8026  1.6944
 7942SOL    HW235551   4.182  10.589  10.683 -1.5630  0.0191  0.4071
 7943SOL     OW35552  10.206   7.846   5.121 -0.0623  0.0422 -0.2939
 7943SOL    HW135553  10.165   7.775   5.072 -1.0076  0.8107 -0.6335
 7943SOL    HW235554  10.277   7.803   5.169  0.0722 -0.9421 -1.3260
 7944SOL     OW35555   5.680   5.061   4.891  0.3652 -0.0331  0.1837
 7944SOL    HW135556   5.623   5.110   4.950  0.1595 -0.2918  0.1994
 7944SOL    HW235557   5.663   4.969   4.912  1.0497 -0.1085  0.4432
 7945SOL     OW35558   3.571   2.426   6.844 -0.6307  0.1751  0.2273
 7945SOL    HW135559   3.478   2.442   6.830 -0.3171  0.7418 -1.4010
 7945SOL    HW235560   3.580   2.331   6.837 -1.1522  0.0611  0.9579
 7946SOL     OW35561   7.699   1.901   3.582  0.1313  0.5001 -0.4010
 7946SOL    HW135562   7.663   1.876   3.497  0.6750  1.5809 -0.9739
 7946SOL    HW235563   7.684   1.996   3.586 -2.6157  0.1111  2.0148
 7947SOL     OW35564   2.643   7.312   2.585  0.4359  0.6556 -0.5912
 7947SOL    HW135565   2.712   7.298   2.520  0.7791 -0.3868 -0.0301
 7947SOL    HW235566   2.614   7.402   2.570  0.3132  0.3618 -2.3582
 7948SOL     OW35567  11.806  10.623  10.684 -0.0611  0.0351 -0.0540
 7948SOL    HW135568  11.743  10.695  10.687 -0.8357 -0.6220 -0.3641
 7948SOL    HW235569  11.775  10.566  10.614  0.2499 -0.8675  0.5229
 7949SOL     OW35570   3.788   8.210   2.218 -0.1045  0.2586  0.6387
 7949SOL    HW135571   3.792   8.273   2.291 -1.7924  1.7171 -0.4482
 7949SOL    HW235572   3.749   8.259   2.146 -1.9885 -2.1367 -0.1321
 7950SOL     OW35573   3.993   2.987   0.782 -0.1522  0.3270  0.1579
 7950SOL    HW135574   4.056   3.038   0.732  1.4030  1.8766  3.3687
 7950SOL    HW235575   4.035   2.975   0.868 -2.0850 -3.1311  0.8232
 7951SOL     OW35576   3.267   2.649   5.273  0.6897 -0.3008 -0.0387
 7951SOL    HW135577   3.292   2.563   5.306 -0.4962 -0.4199  0.5993
 7951SOL    HW235578   3.199   2.632   5.209  1.1633  0.1073 -0.6601
 7952SOL     OW35579   8.470   8.214   0.209 -0.2463 -0.1815 -0.0422
 7952SOL    HW135580   8.491   8.289   0.265  1.0790  0.2362 -1.0430
 7952SOL    HW235581   8.526   8.225   0.132 -0.2441 -2.0328 -0.3543
 7953SOL     OW35582   4.273  11.120   0.036 -0.1802 -0.3757  0.2151
 7953SOL    HW135583   4.214  11.125  -0.039 -0.3814  0.0726  0.4003
 7953SOL    HW235584   4.217  11.132   0.112 -0.2604 -2.5899  0.5657
 7954SOL     OW35585   0.848   1.912   2.354 -0.3246  0.6139 -0.2502
 7954SOL    HW135586   0.881   1.842   2.411 -0.5312  0.8029  0.1019
 7954SOL    HW235587   0.863   1.992   2.404 -0.9839  0.7350 -0.2432
 7955SOL     OW35588   8.522   2.858   6.077  0.0519  0.1878  0.7745
 7955SOL    HW135589   8.488   2.769   6.073  0.7412 -0.0526 -1.2239
 7955SOL    HW235590   8.473   2.906   6.010  1.0927  0.7385  0.3656
 7956SOL     OW35591   4.440   8.828   2.204  0.8765 -0.1318  0.0002
 7956SOL    HW135592   4.430   8.785   2.119  0.9340  0.8316 -0.5079
 7956SOL    HW235593   4.361   8.881   2.214  0.9300 -0.1402  0.4861
 7957SOL     OW35594  10.869   0.416   7.673  0.1054 -0.1203 -0.4199
 7957SOL    HW135595  10.851   0.364   7.596  0.8409  0.4453 -0.9844
 7957SOL    HW235596  10.916   0.493   7.640 -3.1358  2.2583 -0.0331
 7958SOL     OW35597   2.551   3.240   4.247 -0.1948  0.0573 -0.0229
 7958SOL    HW135598   2.489   3.287   4.303 -0.1791 -1.1894  1.0984
 7958SOL    HW235599   2.627   3.225   4.303  0.7833  0.7865 -1.1094
 7959SOL     OW35600   9.275   5.580   3.243  0.0773  0.0162 -0.8498
 7959SOL    HW135601   9.263   5.513   3.310 -3.4070  1.9653  0.7391
 7959SOL    HW235602   9.349   5.632   3.275  1.3173 -1.6205 -0.9157
 7960SOL     OW35603   1.764   8.856   7.879  0.3938 -0.4495  0.4275
 7960SOL    HW135604   1.804   8.943   7.888 -1.2896  0.4614 -0.3356
 7960SOL    HW235605   1.834   8.795   7.901  1.9083  1.0706  0.0707
 7961SOL     OW35606   5.277   7.802   6.190 -0.5234 -0.7313 -0.4293
 7961SOL    HW135607   5.269   7.734   6.258  0.1222  0.0798  0.4922
 7961SOL    HW235608   5.250   7.882   6.235  1.3335  0.0740 -0.6804
 7962SOL     OW35609   7.210   2.387  10.520  0.4726 -0.1389  0.2983
 7962SOL    HW135610   7.219   2.455  10.453  1.4933 -0.0370  0.5240
 7962SOL    HW235611   7.283   2.403  10.580  0.5765 -1.2729  0.4934
 7963SOL     OW35612   6.663   1.567  11.291  0.1603 -0.0858  0.3771
 7963SOL    HW135613   6.690   1.518  11.213 -0.5607  0.1642 -0.0412
 7963SOL    HW235614   6.723   1.642  11.295  0.5622 -0.4062  0.3929
 7964SOL     OW35615   8.015   9.385  11.754  0.0659  0.3275  0.2503
 7964SOL    HW135616   7.996   9.478  11.767  0.6100  0.2187  2.0669
 7964SOL    HW235617   8.108   9.377  11.774 -0.2669 -0.8218  1.4964
 7965SOL     OW35618   5.179   8.914  10.065 -0.4860 -0.1758  0.1709
 7965SOL    HW135619   5.137   8.998  10.081 -0.5016  0.4005 -2.4831
 7965SOL    HW235620   5.265   8.936  10.030 -0.9704 -1.1584 -1.8071
 7966SOL     OW35621   9.627   3.895   5.240  0.6602 -0.2881  0.0980
 7966SOL    HW135622   9.665   3.808   5.231  1.3100  0.1532 -1.8589
 7966SOL    HW235623   9.644   3.938   5.156 -1.7023  0.9216  0.1520
 7967SOL     OW35624  10.809   1.896   9.966 -0.2005 -0.1658  0.1156
 7967SOL    HW135625  10.895   1.857   9.979  0.1486  0.2370 -0.9051
 7967SOL    HW235626  10.747   1.828   9.993  0.3594 -1.7864 -2.3328
 7968SOL     OW35627   9.310   7.108   8.391  0.0581  0.3305 -0.4961
 7968SOL    HW135628   9.370   7.111   8.465  0.8679 -0.4918 -1.0941
 7968SOL    HW235629   9.228   7.073   8.428  0.0322  1.1614  0.2550
 7969SOL     OW35630   7.645   7.493  10.913  0.3799 -0.3735 -0.1321
 7969SOL    HW135631   7.614   7.537  10.992 -0.1219  0.6747 -0.8868
 7969SOL    HW235632   7.713   7.551  10.879  0.1755 -0.5170 -0.7903
 7970SOL     OW35633   1.057   6.178   3.663  0.1437  0.2884  0.2406
 7970SOL    HW135634   1.132   6.119   3.655  0.8828  0.9980  1.6511
 7970SOL    HW235635   1.040   6.208   3.573  0.5486 -1.0692 -0.3120
 7971SOL     OW35636   1.077   4.960   9.987 -0.2641  0.2643 -0.3018
 7971SOL    HW135637   1.065   4.922  10.074  1.4477  1.3171  0.4470
 7971SOL    HW235638   1.166   4.995   9.988  0.3275 -0.8911 -2.9687
 7972SOL     OW35639   3.278   9.825   7.596 -0.0503  0.1966 -0.2190
 7972SOL    HW135640   3.223   9.904   7.598 -0.0235  0.2032  0.9067
 7972SOL    HW235641   3.367   9.859   7.586  0.0566  0.3748  1.2433
 7973SOL     OW35642  11.594   6.175   9.116 -0.3056  0.1950  0.3181
 7973SOL    HW135643  11.597   6.233   9.193 -0.4341  0.0608  0.4262
 7973SOL    HW235644  11.681   6.136   9.111 -0.6146 -0.6212  1.0347
 7974SOL     OW35645   6.667   1.158   9.889  0.1029  1.1016  0.5659
 7974SOL    HW135646   6.598   1.211   9.850  0.3711  1.9911  1.2683
 7974SOL    HW235647   6.647   1.068   9.862 -2.2976  1.0920  2.0856
 7975SOL     OW35648   2.045   0.212   4.377 -0.4730  0.1094  0.4490
 7975SOL    HW135649   2.023   0.254   4.460 -0.9616  0.0261  0.3663
 7975SOL    HW235650   1.973   0.234   4.319 -0.2429 -0.0174  0.1096
 7976SOL     OW35651   0.030   1.994  10.702  0.2024  0.1219  0.2371
 7976SOL    HW135652  -0.035   2.008  10.633  1.9448 -0.2516 -1.5816
 7976SOL    HW235653   0.114   2.010  10.659  1.3597  0.1055  2.3639
 7977SOL     OW35654   1.593   8.239  10.136 -0.3661  0.3030  0.0533
 7977SOL    HW135655   1.555   8.206  10.055  1.0557 -1.0588 -0.1287
 7977SOL    HW235656   1.527   8.222  10.203 -0.9701  0.0897 -0.5893
 7978SOL     OW35657   0.845   0.243   5.588  0.0934 -0.4370  0.1632
 7978SOL    HW135658   0.905   0.168   5.582 -1.0464 -1.3448 -0.5058
 7978SOL    HW235659   0.815   0.256   5.498 -0.1523  0.4636  0.3700
 7979SOL     OW35660   8.157   0.521   6.820 -0.5442  0.9021 -0.6708
 7979SOL    HW135661   8.178   0.460   6.750 -0.0242 -1.2845  1.2655
 7979SOL    HW235662   8.226   0.588   6.816  1.6788 -1.2158 -0.0324
 7980SOL     OW35663   0.549  10.607   5.066  0.1215  0.2054 -0.5402
 7980SOL    HW135664   0.514  10.620   5.154 -1.5711  1.6071 -1.3455
 7980SOL    HW235665   0.615  10.676   5.056 -0.8670  1.1243 -0.9125
 7981SOL     OW35666   2.437   2.753   6.820 -0.0024  0.2300 -0.2812
 7981SOL    HW135667   2.431   2.658   6.824  1.1842  0.1159 -0.8554
 7981SOL    HW235668   2.412   2.775   6.730 -0.4496  0.4902 -0.1001
 7982SOL     OW35669   3.900   6.926   2.505 -0.0618 -0.3621  0.1126
 7982SOL    HW135670   3.855   6.952   2.585 -0.5883  0.0855 -0.3161
 7982SOL    HW235671   3.830   6.914   2.441  0.3775 -0.3052 -0.3862
 7983SOL     OW35672   0.970   7.575   4.501 -0.4739  0.6522 -0.0185
 7983SOL    HW135673   1.012   7.529   4.428 -1.3180  2.5259 -1.7728
 7983SOL    HW235674   0.935   7.504   4.556  1.5980 -0.8458 -0.4970
 7984SOL     OW35675   5.909   3.589   6.748  0.1506 -0.0338  0.4630
 7984SOL    HW135676   5.883   3.506   6.787 -1.7669 -0.1768 -0.9885
 7984SOL    HW235677   5.899   3.653   6.818 -0.6339 -0.6671  0.9391
 7985SOL     OW35678   8.636  10.433   6.830  0.1264 -0.7106 -0.5591
 7985SOL    HW135679   8.552  10.435   6.877  0.5574  1.0834  0.1870
 7985SOL    HW235680   8.686  10.364   6.874 -0.0106 -0.0282  0.7099
 7986SOL     OW35681   5.959   6.890   1.872 -0.3083 -0.3981  0.4069
 7986SOL    HW135682   5.945   6.863   1.781 -1.4597  1.5868 -0.0607
 7986SOL    HW235683   5.884   6.853   1.919 -0.8405  0.2918  0.1289
 7987SOL     OW35684   7.144   2.426   2.402 -0.1706 -0.2555 -0.0402
 7987SOL    HW135685   7.089   2.355   2.432 -1.7571  0.6481 -0.6696
 7987SOL    HW235686   7.220   2.383   2.363 -0.4168 -1.5329  0.8355
 7988SOL     OW35687   8.604   0.789   8.273  0.6436  0.0236 -0.2868
 7988SOL    HW135688   8.663   0.788   8.348 -0.2193  1.9070  0.4694
 7988SOL    HW235689   8.516   0.788   8.310  0.1789 -0.6425 -1.3381
 7989SOL     OW35690   8.877   9.748   5.457  0.0194  0.1948 -0.1276
 7989SOL    HW135691   8.964   9.710   5.448  0.1736  0.6792 -0.7568
 7989SOL    HW235692   8.881   9.799   5.538  0.6740  1.1023 -0.7073
 7990SOL     OW35693   0.096   4.566  10.649 -0.1402 -0.4848  0.2277
 7990SOL    HW135694   0.000   4.562  10.647 -0.2292  1.2231 -0.2907
 7990SOL    HW235695   0.117   4.658  10.634  1.6024 -0.8562  0.1544
 7991SOL     OW35696   1.355   2.163   1.413 -0.2069 -0.0331 -0.2186
 7991SOL    HW135697   1.435   2.142   1.366  1.0838 -2.9229  2.8651
 7991SOL    HW235698   1.380   2.230   1.477 -0.3847 -0.4508  0.3017
 7992SOL     OW35699  11.615   7.003   8.749 -0.0210  0.1400 -0.2588
 7992SOL    HW135700  11.525   7.022   8.773  0.3638  2.2551 -0.3384
 7992SOL    HW235701  11.656   6.976   8.832 -0.3526  0.7332  0.1057
 7993SOL     OW35702   3.750   1.622   2.984  0.5599  0.0184 -0.0469
 7993SOL    HW135703   3.691   1.548   2.998  0.4007  0.3820  1.4364
 7993SOL    HW235704   3.740   1.675   3.063  1.0771  1.3441 -0.8447
 7994SOL     OW35705   2.999   2.118   7.392  0.3355 -0.1537  0.0850
 7994SOL    HW135706   3.031   2.208   7.382 -0.5214  0.1044 -0.4955
 7994SOL    HW235707   3.020   2.095   7.483  1.2115  0.3673  0.0252
 7995SOL     OW35708   6.141   1.841   2.408  0.3181  0.2805  0.3784
 7995SOL    HW135709   6.107   1.759   2.444  2.8174 -1.1078 -0.1360
 7995SOL    HW235710   6.176   1.817   2.323 -0.5904  2.3502 -0.6507
 7996SOL     OW35711   2.672   3.691   3.421  0.3332  0.2772  0.1380
 7996SOL    HW135712   2.687   3.703   3.327  0.4403  0.7463  0.2144
 7996SOL    HW235713   2.752   3.723   3.462 -0.9152  3.0977  0.5753
 7997SOL     OW35714  11.228   2.496   6.442 -0.6109  0.0283  0.4514
 7997SOL    HW135715  11.271   2.580   6.423  3.0320 -1.4133  1.5686
 7997SOL    HW235716  11.209   2.500   6.536  2.2107 -1.3011  1.1987
 7998SOL     OW35717   5.904  10.490   8.194  0.0583 -0.0508  0.3141
 7998SOL    HW135718   5.912  10.454   8.106 -0.4711  0.2822  0.1219
 7998SOL    HW235719   5.903  10.585   8.181  1.4484  0.0590  0.8096
 7999SOL     OW35720   4.159   1.600   6.776  0.5225 -0.1608  0.7183
 7999SOL    HW135721   4.128   1.653   6.849 -1.6106 -0.4595  0.0976
 7999SOL    HW235722   4.208   1.662   6.721 -0.2318  0.7137  1.0025
 8000SOL     OW35723   5.312   5.442   3.509 -0.4718  0.6206  0.2070
 8000SOL    HW135724   5.313   5.348   3.527 -0.7317  0.4747 -0.5053
 8000SOL    HW235725   5.223   5.459   3.479 -0.7754  1.3164  1.4216
 8001SOL     OW35726   7.043   7.130   7.334  0.0167 -0.1662 -0.4916
 8001SOL    HW135727   7.011   7.203   7.388 -1.1575 -1.6877  0.9658
 8001SOL    HW235728   7.034   7.162   7.244 -2.8852  0.6332 -0.0254
 8002SOL     OW35729  10.434   2.181   6.773 -0.5738 -0.1801 -0.5276
 8002SOL    HW135730  10.362   2.212   6.828  1.9410  1.4827  2.1164
 8002SOL    HW235731  10.451   2.253   6.712 -0.9407 -0.4438 -0.9441
 8003SOL     OW35732  11.879   1.404   5.895 -0.3930  0.2374 -0.1749
 8003SOL    HW135733  11.899   1.437   5.982 -0.6048  3.2396 -1.1662
 8003SOL    HW235734  11.964   1.398   5.851 -0.5863  4.3974 -1.5137
 8004SOL     OW35735   2.912   7.956   6.486  0.0526 -0.0103 -0.1460
 8004SOL    HW135736   2.860   8.036   6.490  1.2710  0.7617  1.9070
 8004SOL    HW235737   2.852   7.887   6.513 -1.0016  0.1684 -1.9053
 8005SOL     OW35738   7.842   3.149   4.194  0.4406  0.3419 -0.2187
 8005SOL    HW135739   7.788   3.088   4.245  1.0459  0.6241  0.7910
 8005SOL    HW235740   7.917   3.096   4.166  1.1910  0.7083  1.0372
 8006SOL     OW35741   3.759   2.598   8.727  0.0783 -0.4160 -0.2939
 8006SOL    HW135742   3.713   2.572   8.647 -0.2511 -0.6981 -0.0188
 8006SOL    HW235743   3.848   2.618   8.699 -0.3380  0.6335 -0.9232
 8007SOL     OW35744   4.248   4.177   1.011  0.2044  0.5256  0.0077
 8007SOL    HW135745   4.234   4.200   0.920  3.1207  0.4929 -0.5393
 8007SOL    HW235746   4.216   4.253   1.060 -0.0114  1.1891 -1.1348
 8008SOL     OW35747   3.854   6.785  10.167 -0.0456 -0.4900  0.6981
 8008SOL    HW135748   3.933   6.794  10.221  0.7422 -2.0387 -0.1176
 8008SOL    HW235749   3.880   6.815  10.080 -1.2134  1.6663  1.0247
 8009SOL     OW35750   7.134   4.000   1.449 -0.3201 -0.2072 -0.0020
 8009SOL    HW135751   7.216   3.951   1.454 -1.1139 -1.5300  0.6507
 8009SOL    HW235752   7.120   4.015   1.356  1.1079  0.8370 -0.0768
 8010SOL     OW35753   4.405   4.327  11.620  0.3892  0.1473  0.0277
 8010SOL    HW135754   4.465   4.283  11.681  0.8379 -0.2510 -0.6899
 8010SOL    HW235755   4.375   4.258  11.562  0.2251  0.5838 -0.4112
 8011SOL     OW35756   0.813   4.273   1.434 -0.2878  0.1463 -0.2123
 8011SOL    HW135757   0.876   4.335   1.471  1.7441 -2.0775  0.2733
 8011SOL    HW235758   0.863   4.223   1.370 -1.2312 -2.3595  0.8720
 8012SOL     OW35759   5.205  11.666   2.885 -0.0896  0.8442  0.2744
 8012SOL    HW135760   5.151  11.706   2.953  2.7957  1.4013  2.3713
 8012SOL    HW235761   5.290  11.708   2.893  0.8164 -0.1466 -2.7602
 8013SOL     OW35762   4.324   2.918   4.430  0.1693 -0.3307  0.1228
 8013SOL    HW135763   4.306   2.972   4.353 -1.4849 -0.4065  0.4265
 8013SOL    HW235764   4.365   2.979   4.493 -2.0551  0.7443  0.6263
 8014SOL     OW35765   0.148  10.718   9.809 -0.1335  0.3644  0.4590
 8014SOL    HW135766   0.111  10.630   9.818 -0.0457  0.3380  0.5682
 8014SOL    HW235767   0.073  10.777   9.822 -0.4827  0.2869 -1.0464
 8015SOL     OW35768   7.305   8.572   7.807  0.7584  0.6682  0.0350
 8015SOL    HW135769   7.286   8.586   7.714 -0.6107  3.0084  0.5883
 8015SOL    HW235770   7.384   8.623   7.824  1.0210  0.2237  0.1678
 8016SOL     OW35771   2.539   1.385   2.849 -0.6046 -0.6979 -0.3508
 8016SOL    HW135772   2.556   1.306   2.799  3.1836  0.2057 -0.7620
 8016SOL    HW235773   2.521   1.452   2.783 -2.1005 -0.8067 -0.0867
 8017SOL     OW35774   2.663   1.717   6.475 -0.4783  0.7304  0.0559
 8017SOL    HW135775   2.665   1.812   6.491  1.2358  0.7815 -0.2673
 8017SOL    HW235776   2.720   1.680   6.542 -0.0328  0.0695 -0.6749
 8018SOL     OW35777   3.009   5.310   4.797  0.0448  0.0111 -0.2649
 8018SOL    HW135778   3.061   5.264   4.863 -0.6716 -0.5730 -0.0858
 8018SOL    HW235779   2.942   5.356   4.848  0.0372  0.2844 -0.5236
 8019SOL     OW35780  10.973   4.534  11.031  0.5635 -0.0244 -0.2521
 8019SOL    HW135781  10.879   4.538  11.012  0.9033 -2.7366 -3.3251
 8019SOL    HW235782  10.993   4.441  11.036  3.1958  0.4728  0.0440
 8020SOL     OW35783   3.383   6.197   3.458 -0.4260 -0.4214 -0.1212
 8020SOL    HW135784   3.345   6.152   3.534 -0.7112  0.9324  0.5540
 8020SOL    HW235785   3.445   6.133   3.422 -0.2162 -1.0631  1.2965
 8021SOL     OW35786   8.035  11.815   4.211 -0.0286  0.1515 -0.4852
 8021SOL    HW135787   7.983  11.742   4.245  1.3777 -1.3035 -1.3680
 8021SOL    HW235788   8.010  11.889   4.267 -0.1529 -1.4000  1.6651
 8022SOL     OW35789   1.047   0.092  11.311  0.3505  0.2329  0.4763
 8022SOL    HW135790   1.099   0.079  11.390  1.0792  1.7748  0.3077
 8022SOL    HW235791   1.006   0.178  11.323 -1.4997 -0.5700  0.2157
 8023SOL     OW35792   1.664  10.828   9.503 -0.0135 -0.0671  0.0126
 8023SOL    HW135793   1.651  10.907   9.555 -2.6775  0.4988 -1.3710
 8023SOL    HW235794   1.650  10.756   9.564 -0.9086  0.5640  0.5642
 8024SOL     OW35795  11.864   3.795   5.072 -0.0568 -0.0072 -0.4557
 8024SOL    HW135796  11.864   3.878   5.024 -0.1198  0.2115 -0.0728
 8024SOL    HW235797  11.873   3.819   5.164 -1.7300 -0.3240 -0.1786
 8025SOL     OW35798   0.287   1.609   9.880  0.3314  0.1262  0.5304
 8025SOL    HW135799   0.282   1.533   9.823  0.2204  0.0967  0.5799
 8025SOL    HW235800   0.342   1.581   9.953  1.2932  0.4704 -0.0373
 8026SOL     OW35801   5.780   8.987   6.245 -0.0838  0.2156 -0.1480
 8026SOL    HW135802   5.801   8.952   6.331 -0.4484  1.2449  0.3821
 8026SOL    HW235803   5.865   9.007   6.205  0.0693  0.9313  0.5026
 8027SOL     OW35804   6.554   9.136   8.254 -0.5289 -0.7023  0.0127
 8027SOL    HW135805   6.516   9.173   8.174 -1.0045 -1.4716 -0.1272
 8027SOL    HW235806   6.520   9.191   8.324 -0.1706 -0.0700 -0.3052
 8028SOL     OW35807  10.503   8.958   8.933 -0.3013  0.1345 -0.0509
 8028SOL    HW135808  10.560   9.034   8.944 -1.3637  0.8979  0.3419
 8028SOL    HW235809  10.556   8.884   8.961  1.0745  0.5989 -1.3526
 8029SOL     OW35810   6.552   5.097   2.179 -0.2604 -0.5703  0.7351
 8029SOL    HW135811   6.497   5.115   2.255 -0.2969 -2.6704  1.2708
 8029SOL    HW235812   6.498   5.041   2.123  0.7032 -1.2593  0.4659
 8030SOL     OW35813   3.112   6.175  11.070 -0.0534 -0.1805 -0.0369
 8030SOL    HW135814   3.136   6.091  11.111  2.6591  1.4204  1.9779
 8030SOL    HW235815   3.122   6.159  10.977 -0.6653 -2.3880  0.2106
 8031SOL     OW35816   1.966   6.686   7.551 -0.5684  0.2973  1.0916
 8031SOL    HW135817   1.962   6.748   7.624  4.3713  0.5899  1.4552
 8031SOL    HW235818   2.032   6.622   7.576  0.6524 -0.1816 -2.6525
 8032SOL     OW35819   1.247  11.769   7.823 -0.4791  0.7514  0.3179
 8032SOL    HW135820   1.193  11.810   7.891 -2.7699 -0.4317 -0.6587
 8032SOL    HW235821   1.187  11.759   7.749  1.6654  1.0778 -1.5522
 8033SOL     OW35822  10.859   4.755   0.800  0.0244  0.2448  0.1543
 8033SOL    HW135823  10.796   4.694   0.761 -0.6567  0.9379  0.1365
 8033SOL    HW235824  10.812   4.793   0.874  0.2868  1.0535 -0.0812
 8034SOL     OW35825  11.382   0.899   8.224  0.5032 -0.2374 -0.1727
 8034SOL    HW135826  11.369   0.836   8.296 -1.5094  0.0999 -0.1722
 8034SOL    HW235827  11.388   0.984   8.268 -1.9674  0.1230 -0.3703
 8035SOL     OW35828  10.594   6.307   0.931 -0.0079  0.5550 -0.3506
 8035SOL    HW135829  10.599   6.223   0.976 -0.5944  0.6897 -0.0251
 8035SOL    HW235830  10.677   6.350   0.952  0.2316  0.1255 -0.3993
 8036SOL     OW35831   6.013  11.703   0.673  0.2801  0.2936 -0.0013
 8036SOL    HW135832   6.060  11.744   0.746 -0.9417 -2.0401  2.2444
 8036SOL    HW235833   6.003  11.612   0.699 -3.9819  0.2402 -1.0987
 8037SOL     OW35834  11.254   0.940   6.479 -0.7279  0.3059 -0.2632
 8037SOL    HW135835  11.189   0.945   6.550 -0.6916  0.6079 -0.2493
 8037SOL    HW235836  11.311   1.015   6.494  1.5644 -1.6448  1.6021
 8038SOL     OW35837   9.032   0.923   3.655 -0.3441 -0.2453  0.0721
 8038SOL    HW135838   8.962   0.861   3.635 -0.6793  0.8596 -2.5065
 8038SOL    HW235839   9.109   0.888   3.611 -0.4371  0.9117 -1.0561
 8039SOL     OW35840  10.910  11.055   1.883  0.1233 -0.0399 -0.3951
 8039SOL    HW135841  10.831  11.000   1.877  1.5097 -2.1450 -0.3023
 8039SOL    HW235842  10.927  11.062   1.977  0.6120 -0.4561 -0.4500
 8040SOL     OW35843  10.042   2.794   0.390 -0.0303 -0.8145  0.1242
 8040SOL    HW135844   9.973   2.802   0.456 -0.7479  0.6944 -0.7449
 8040SOL    HW235845  10.015   2.719   0.336  0.0765 -1.4760  0.9739
 8041SOL     OW35846   3.869   4.089   9.586  0.3633 -0.1394 -0.2564
 8041SOL    HW135847   3.871   4.166   9.643  0.0137 -0.1639 -0.2063
 8041SOL    HW235848   3.960   4.074   9.563  0.4813  0.0354  0.0789
 8042SOL     OW35849   2.952   4.718  11.310  0.4225 -0.0210 -0.1859
 8042SOL    HW135850   2.992   4.634  11.330  0.7268  0.1326 -0.1365
 8042SOL    HW235851   3.023   4.770  11.273  0.0318 -0.0793 -1.0556
 8043SOL     OW35852   0.823   6.815   8.144 -0.4132 -0.2497 -0.3461
 8043SOL    HW135853   0.760   6.746   8.163 -1.1282  0.3610 -0.4536
 8043SOL    HW235854   0.908   6.771   8.146 -0.9906 -1.6275 -2.7249
 8044SOL     OW35855   1.282   7.199   7.641 -0.0373  0.0552  0.2071
 8044SOL    HW135856   1.287   7.176   7.734 -0.6748 -1.0930 -0.0185
 8044SOL    HW235857   1.367   7.174   7.605 -0.2401 -0.6994  0.2404
 8045SOL     OW35858   2.590   2.297   3.008 -0.1289  0.3918  0.2901
 8045SOL    HW135859   2.575   2.305   3.102  2.0822 -1.6662  0.9069
 8045SOL    HW235860   2.615   2.206   2.995  1.0735  0.9786 -2.0819
 8046SOL     OW35861   0.091   0.880   9.011  0.0060 -0.2042  0.0495
 8046SOL    HW135862   0.100   0.943   9.082 -0.5176  0.4822 -0.4798
 8046SOL    HW235863   0.134   0.921   8.936 -0.1343 -0.5787 -0.2405
 8047SOL     OW35864   3.458  10.406  11.797 -0.0611 -0.5531 -0.1160
 8047SOL    HW135865   3.510  10.486  11.805  0.4128 -0.9950  1.7062
 8047SOL    HW235866   3.367  10.436  11.803  0.1269 -0.2029  1.6462
 8048SOL     OW35867   0.942   4.911   0.661 -0.4718  0.4509 -0.4959
 8048SOL    HW135868   0.978   4.825   0.684  0.6257  0.6374 -1.4397
 8048SOL    HW235869   0.936   4.911   0.566 -0.2619  1.4927 -0.5268
 8049SOL     OW35870   9.651   9.848   5.532  0.2818  0.4514 -1.2254
 8049SOL    HW135871   9.730   9.882   5.573  0.6464  0.4400 -1.9039
 8049SOL    HW235872   9.583   9.859   5.598  0.8194  0.5890 -0.6856
 8050SOL     OW35873   5.269   3.804  10.806 -0.0291 -0.1199 -0.4764
 8050SOL    HW135874   5.291   3.713  10.826  0.9661  0.3860  0.8398
 8050SOL    HW235875   5.344   3.855  10.837 -1.1784  1.2854  0.1176
 8051SOL     OW35876  11.649   7.829   5.674 -0.0676 -0.3531  0.2785
 8051SOL    HW135877  11.602   7.834   5.590 -1.0625 -1.0821  0.7659
 8051SOL    HW235878  11.740   7.813   5.650 -0.5054 -1.6035 -0.6578
 8052SOL     OW35879   7.158   8.833   5.004  0.1084  0.2759 -0.4537
 8052SOL    HW135880   7.203   8.804   4.925  1.1708  0.7166 -0.0205
 8052SOL    HW235881   7.138   8.926   4.988  0.0524  0.2853 -0.3298
 8053SOL     OW35882   2.862  11.244   7.329 -0.1396 -0.1941  0.2086
 8053SOL    HW135883   2.885  11.234   7.422 -0.6991 -0.0533  0.3666
 8053SOL    HW235884   2.943  11.274   7.288  0.8143 -2.5341  0.2160
 8054SOL     OW35885   4.571   2.625   6.883 -0.4323  0.3683  0.2309
 8054SOL    HW135886   4.619   2.574   6.818 -3.0005 -1.3291 -0.5166
 8054SOL    HW235887   4.518   2.686   6.831 -3.1633 -1.5798  0.4880
 8055SOL     OW35888   4.697   1.154  11.406  1.0909 -0.7862  0.3038
 8055SOL    HW135889   4.705   1.162  11.311 -1.6297  0.7871  0.0877
 8055SOL    HW235890   4.715   1.242  11.440  1.5174 -1.2030  1.1949
 8056SOL     OW35891   3.916  10.292   3.401  0.5223  0.1133  0.5836
 8056SOL    HW135892   3.928  10.197   3.391  3.1271  0.0570  3.0278
 8056SOL    HW235893   3.995  10.330   3.365  0.1047  1.2772  0.8568
 8057SOL     OW35894   5.288   8.565  10.568  0.2038  0.5960 -0.0745
 8057SOL    HW135895   5.197   8.591  10.549 -0.5772 -1.1287  1.0555
 8057SOL    HW235896   5.300   8.584  10.660  0.2870 -0.9926  0.2808
 8058SOL     OW35897   1.155   1.586  10.922 -0.0838 -1.1009  0.7362
 8058SOL    HW135898   1.060   1.573  10.932 -0.4460  0.4169 -0.2802
 8058SOL    HW235899   1.175   1.658  10.981 -0.6151  2.0101 -2.4796
 8059SOL     OW35900   5.725   1.767   2.024 -0.5173 -0.3171  0.3090
 8059SOL    HW135901   5.652   1.752   1.963 -1.1889 -0.1500  1.0467
 8059SOL    HW235902   5.682   1.797   2.104  0.4306  0.5775  0.4942
 8060SOL     OW35903   9.550  11.362   6.372 -0.2143 -0.2106 -0.3008
 8060SOL    HW135904   9.528  11.285   6.319 -0.2398 -0.9666  0.7734
 8060SOL    HW235905   9.641  11.349   6.397  0.0775  0.5961 -0.8798
 8061SOL     OW35906   1.730   4.396   0.692  0.4415 -0.0155 -0.4145
 8061SOL    HW135907   1.683   4.428   0.769  0.0052  1.5162 -1.2747
 8061SOL    HW235908   1.815   4.366   0.726  0.8423  1.9990  0.4938
 8062SOL     OW35909   3.294  10.247   8.268  0.0946 -0.1222  0.1361
 8062SOL    HW135910   3.309  10.311   8.338 -0.9758  1.2716 -0.8476
 8062SOL    HW235911   3.207  10.211   8.287  0.6891 -1.3195  0.6800
 8063SOL     OW35912   5.154   3.704  11.608  0.0141 -0.7275  0.3044
 8063SOL    HW135913   5.080   3.698  11.669 -0.4600 -0.1802 -0.1992
 8063SOL    HW235914   5.113   3.702  11.522  0.6661 -1.3173 -0.0038
 8064SOL     OW35915   2.053   3.028   1.839  0.2547  0.2765 -0.3506
 8064SOL    HW135916   2.072   2.936   1.853 -0.3984 -0.1647 -2.1272
 8064SOL    HW235917   1.963   3.030   1.807  0.0297  1.6089  0.2534
 8065SOL     OW35918   1.293   9.874   5.721 -0.0248  0.1403  0.4969
 8065SOL    HW135919   1.291   9.970   5.716 -1.0940  0.0662 -2.6085
 8065SOL    HW235920   1.378   9.850   5.685 -0.3123 -0.0912 -0.0377
 8066SOL     OW35921   4.348   3.233   6.697  0.0273 -0.1475  0.3417
 8066SOL    HW135922   4.291   3.288   6.644 -0.6733  0.1847  1.4003
 8066SOL    HW235923   4.347   3.274   6.783  0.9097 -0.8289  0.6969
 8067SOL     OW35924   7.955   6.288   1.411  0.2665 -0.6405 -0.1317
 8067SOL    HW135925   7.991   6.377   1.414  1.6938 -1.0408 -2.8325
 8067SOL    HW235926   8.026   6.234   1.378 -1.6401 -2.1694 -1.9733
 8068SOL     OW35927   8.663   4.120   3.675 -0.1768 -0.2655 -0.9689
 8068SOL    HW135928   8.678   4.102   3.582  2.1913 -1.7704 -0.3839
 8068SOL    HW235929   8.599   4.054   3.702 -0.3849 -0.2356 -1.3788
 8069SOL     OW35930  11.156   2.676   8.187 -0.5172 -0.0305 -0.0728
 8069SOL    HW135931  11.251   2.683   8.177 -0.5080 -0.3854 -0.2721
 8069SOL    HW235932  11.127   2.634   8.106 -0.8350  0.0103  0.0195
 8070SOL     OW35933   7.611   7.680   6.793  0.1122 -0.7416 -0.0636
 8070SOL    HW135934   7.570   7.759   6.760  0.2650  0.1370  1.7392
 8070SOL    HW235935   7.704   7.700   6.795 -0.0313  0.1257  2.8971
 8071SOL     OW35936   9.784   4.364   1.245  0.0561  0.2646 -0.6378
 8071SOL    HW135937   9.759   4.297   1.309  0.5326  2.1700  1.6946
 8071SOL    HW235938   9.874   4.386   1.267  0.2201  1.0130 -1.9471
 8072SOL     OW35939   9.214   9.427   6.403 -0.4133  0.1364 -0.4881
 8072SOL    HW135940   9.176   9.474   6.328 -2.7101  0.1080  0.5847
 8072SOL    HW235941   9.246   9.496   6.461 -1.7312  0.3280  0.0398
 8073SOL     OW35942   6.348   6.121   5.590 -0.2264 -0.0816  0.1673
 8073SOL    HW135943   6.301   6.110   5.508  0.2096  0.2632 -0.1344
 8073SOL    HW235944   6.344   6.215   5.608  0.3909 -0.0367  0.1038
 8074SOL     OW35945   0.178   3.523  11.944 -0.3262 -0.4886  0.2966
 8074SOL    HW135946   0.242   3.568  11.889 -0.3476 -1.5814 -0.6710
 8074SOL    HW235947   0.209   3.537  12.033  0.3429  0.3916 -0.0590
 8075SOL     OW35948   5.741   8.131   1.152 -0.0202 -0.0379 -0.0271
 8075SOL    HW135949   5.649   8.121   1.175  0.1140 -0.4708  0.3590
 8075SOL    HW235950   5.757   8.225   1.156 -0.0080 -0.0685  1.7315
 8076SOL     OW35951  11.645   4.125   1.023 -0.4975 -0.2213 -0.5746
 8076SOL    HW135952  11.581   4.164   0.962 -1.3434  2.1826  1.6373
 8076SOL    HW235953  11.725   4.174   1.007  0.7029 -2.6507 -2.7366
 8077SOL     OW35954   5.030   3.877  11.928 -0.1340 -0.1371 -0.2570
 8077SOL    HW135955   5.073   3.918  11.852 -1.1263 -0.3452 -0.9472
 8077SOL    HW235956   4.957   3.935  11.949  0.6826  0.4133  1.1551
 8078SOL     OW35957   2.565   0.428   8.971  0.1563 -0.3916  0.2335
 8078SOL    HW135958   2.508   0.505   8.967  0.2424 -0.3371  0.0393
 8078SOL    HW235959   2.541   0.385   9.052  0.7677  0.3615  0.8323
 8079SOL     OW35960   5.693   6.391   2.884 -0.0450 -0.4268  0.4462
 8079SOL    HW135961   5.766   6.330   2.897 -0.9891 -1.6798  0.0428
 8079SOL    HW235962   5.706   6.424   2.795 -0.3382 -1.1957  0.1029
 8080SOL     OW35963   5.392   3.804   2.995  0.1035  0.4278  0.3531
 8080SOL    HW135964   5.364   3.892   3.019 -0.1941  0.3254  0.3807
 8080SOL    HW235965   5.439   3.772   3.072  1.1609  0.9683 -0.0505
 8081SOL     OW35966  11.790   9.333   9.321 -0.2402 -0.3428  0.3173
 8081SOL    HW135967  11.720   9.299   9.376  0.3076  0.4778  1.5629
 8081SOL    HW235968  11.755   9.415   9.286 -0.2396 -0.3998  0.1827
 8082SOL     OW35969   1.189  10.503   9.761 -0.2731  0.1216 -0.2842
 8082SOL    HW135970   1.094  10.496   9.747 -0.0465  0.2960 -2.1147
 8082SOL    HW235971   1.201  10.591   9.797 -0.6713  0.7269 -1.5785
 8083SOL     OW35972   4.104   7.830  11.059 -0.2403  0.1082  0.3656
 8083SOL    HW135973   4.009   7.824  11.050 -0.6397  1.5781  2.8119
 8083SOL    HW235974   4.122   7.924  11.055  1.2094 -0.1826 -0.6233
 8084SOL     OW35975   5.380   4.519   7.478 -0.2737 -0.4349 -0.7157
 8084SOL    HW135976   5.462   4.514   7.430 -0.2494  0.9542 -0.8843
 8084SOL    HW235977   5.338   4.599   7.445 -0.4974  0.2859  1.1445
 8085SOL     OW35978   8.352  10.431  10.334 -0.0509  0.0709 -0.1194
 8085SOL    HW135979   8.272  10.406  10.287 -0.6803  0.5488  0.6752
 8085SOL    HW235980   8.371  10.357  10.390 -0.5175  0.3536  0.4257
 8086SOL     OW35981   1.729   4.809   0.342 -0.1766 -0.1281  0.0788
 8086SOL    HW135982   1.774   4.893   0.351  0.7386 -0.5893 -0.0647
 8086SOL    HW235983   1.767   4.769   0.263 -2.5924  0.5144 -1.4948
 8087SOL     OW35984   4.784   6.533   3.472  0.4243  0.4083 -0.6551
 8087SOL    HW135985   4.785   6.439   3.457  0.4128  0.2133  0.4916
 8087SOL    HW235986   4.829   6.570   3.397  1.2749 -0.5866 -0.6506
 8088SOL     OW35987   8.354   4.638   5.771  0.3654 -0.0979 -0.2886
 8088SOL    HW135988   8.315   4.696   5.836  1.5438 -0.7588  1.0579
 8088SOL    HW235989   8.391   4.696   5.705  0.8506  0.6693  0.6403
 8089SOL     OW35990   4.403   4.266   1.239  0.0774 -0.3055  0.0959
 8089SOL    HW135991   4.357   4.231   1.162 -0.7644 -0.0543  0.4704
 8089SOL    HW235992   4.337   4.268   1.308  0.2047  1.5515  0.2360
 8090SOL     OW35993   2.005  10.936   6.662 -0.1328  0.3624  0.1684
 8090SOL    HW135994   2.066  10.871   6.626 -1.6495 -2.2617  1.9741
 8090SOL    HW235995   2.051  10.975   6.736  0.6718  1.1998 -0.7379
 8091SOL     OW35996   6.591   8.012   0.312  0.0112 -0.5437 -0.0068
 8091SOL    HW135997   6.608   7.922   0.340 -0.6522 -1.0270 -1.0984
 8091SOL    HW235998   6.515   8.039   0.363  0.2929 -0.5486  0.4207
 8092SOL     OW35999   6.739   8.515   4.894 -0.1458 -0.3406 -0.0631
 8092SOL    HW136000   6.751   8.564   4.975 -1.5736  0.7501 -0.4526
 8092SOL    HW236001   6.761   8.425   4.916  0.5910  0.1229  1.2186
 8093SOL     OW36002   6.458   7.596   2.639 -0.7874  0.0489 -0.0042
 8093SOL    HW136003   6.439   7.636   2.554 -0.3687  1.8342  0.6948
 8093SOL    HW236004   6.420   7.508   2.633 -0.9692  0.2145 -1.9390
 8094SOL     OW36005   0.899   6.562   3.859  0.5684 -0.3231 -0.2953
 8094SOL    HW136006   0.970   6.589   3.917  0.9409 -1.3397 -0.2655
 8094SOL    HW236007   0.920   6.472   3.835 -0.5233 -0.5144 -0.5834
 8095SOL     OW36008   3.627   0.237   2.736 -0.0096  0.4651  0.0133
 8095SOL    HW136009   3.588   0.264   2.819 -0.8600 -1.3507  0.2549
 8095SOL    HW236010   3.697   0.300   2.720  0.5457  0.5099  2.4003
 8096SOL     OW36011   1.793  11.699   3.894 -0.0565 -0.1971  0.7422
 8096SOL    HW136012   1.872  11.684   3.945 -0.6353 -1.8235  1.2360
 8096SOL    HW236013   1.787  11.622   3.836 -1.2711 -0.1199  0.7343
 8097SOL     OW36014   2.399   4.519  10.394  0.1479 -0.1344  0.3197
 8097SOL    HW136015   2.485   4.562  10.398 -0.3470  0.8215  1.6461
 8097SOL    HW236016   2.417   4.427  10.408  1.3192 -0.6106 -3.2474
 8098SOL     OW36017   3.323   3.706   8.972 -0.2364  0.0154 -0.2915
 8098SOL    HW136018   3.268   3.777   8.938  1.4238  0.2146 -2.8173
 8098SOL    HW236019   3.263   3.632   8.982 -1.3179  0.7414 -1.1561
 8099SOL     OW36020   3.234   8.784   8.779  0.0891  0.1040 -0.1307
 8099SOL    HW136021   3.252   8.731   8.702 -0.2914 -0.6673  0.3010
 8099SOL    HW236022   3.145   8.760   8.805  0.6677 -0.6052  1.3040
 8100SOL     OW36023   0.280  10.741   6.231  0.1317 -0.1009  0.2005
 8100SOL    HW136024   0.202  10.786   6.262  0.7775  2.3648 -1.4226
 8100SOL    HW236025   0.306  10.685   6.304 -1.8649  0.6950  1.6173
 8101SOL     OW36026   9.273  10.216   4.398 -0.5524  0.1871 -0.5254
 8101SOL    HW136027   9.286  10.162   4.320  2.0020  0.1072 -0.1528
 8101SOL    HW236028   9.185  10.194   4.429 -0.5502 -1.8771 -1.8057
 8102SOL     OW36029  10.704  10.460   7.610 -0.6679 -0.0847 -0.2213
 8102SOL    HW136030  10.734  10.412   7.687 -1.3584  0.3379  0.3294
 8102SOL    HW236031  10.639  10.521   7.644 -2.0033 -0.8265 -1.3240
 8103SOL     OW36032  11.655  10.709   4.671 -0.3275 -0.5998 -0.0396
 8103SOL    HW136033  11.580  10.769   4.659 -1.1630 -1.7733 -0.9756
 8103SOL    HW236034  11.618  10.633   4.716  0.6615 -0.5441  0.8997
 8104SOL     OW36035   9.566   0.186   2.697  0.6237 -0.3354  0.1920
 8104SOL    HW136036   9.569   0.116   2.631 -1.6305 -0.4069  0.0770
 8104SOL    HW236037   9.514   0.255   2.655  0.7272  0.3858  1.2259
 8105SOL     OW36038   8.791   5.772   7.573 -1.0404  0.4780  0.2473
 8105SOL    HW136039   8.799   5.861   7.608  0.6041  0.3576  0.2509
 8105SOL    HW236040   8.746   5.723   7.642 -2.7454  1.4617 -0.1004
 8106SOL     OW36041   7.549   6.795   1.239  0.1909  0.5139 -0.1682
 8106SOL    HW136042   7.589   6.868   1.287  1.8843 -1.0698  1.0271
 8106SOL    HW236043   7.485   6.836   1.181  0.4995  2.8512  1.0050
 8107SOL     OW36044   8.194   0.885  10.925  0.2261 -0.4255  0.7593
 8107SOL    HW136045   8.212   0.967  10.878  0.5206 -1.0472 -0.2478
 8107SOL    HW236046   8.134   0.837  10.868 -0.2623 -0.7407  1.5301
 8108SOL     OW36047   6.762   9.777   5.990 -0.0221 -0.2264  0.2060
 8108SOL    HW136048   6.718   9.696   5.963 -0.5640  0.7305 -1.9772
 8108SOL    HW236049   6.692   9.841   5.999  0.5349  0.3566  0.4711
 8109SOL     OW36050  10.408   4.458   2.895 -0.1961  0.6275 -0.7306
 8109SOL    HW136051  10.457   4.466   2.813  1.3615  1.8370  0.2628
 8109SOL    HW236052  10.316   4.459   2.868  0.2565 -1.4931 -2.6408
 8110SOL     OW36053   1.959   9.353  10.669  0.5621  0.1110 -0.3457
 8110SOL    HW136054   1.907   9.431  10.650 -0.7554 -0.8753 -0.9826
 8110SOL    HW236055   2.005   9.373  10.750 -0.3017  1.2872 -0.1340
 8111SOL     OW36056   3.378  11.819   6.420  0.2295  0.0995  0.1467
 8111SOL    HW136057   3.390  11.822   6.325 -0.7073 -0.1925  0.0121
 8111SOL    HW236058   3.398  11.728   6.444  0.2392  0.1144  0.1974
 8112SOL     OW36059   6.281   6.938   6.976 -0.2220  0.2117 -0.1974
 8112SOL    HW136060   6.279   6.886   6.896 -1.4984 -0.6894  0.3787
 8112SOL    HW236061   6.331   6.885   7.038 -0.5226  0.2211  0.0524
 8113SOL     OW36062   8.193   8.728   6.315  0.1934 -0.1405 -0.1335
 8113SOL    HW136063   8.276   8.714   6.360 -0.0129 -1.1972 -0.0540
 8113SOL    HW236064   8.136   8.659   6.347 -0.8534  0.8037  0.1127
 8114SOL     OW36065   5.402   8.867  11.907 -0.2257 -0.2542 -0.3769
 8114SOL    HW136066   5.387   8.919  11.827 -0.0334 -0.3487 -0.4752
 8114SOL    HW236067   5.476   8.810  11.884 -2.0287 -2.4092 -1.1520
 8115SOL     OW36068   5.068  10.328  10.934 -0.4458 -0.5654 -0.4904
 8115SOL    HW136069   5.029  10.359  11.016  1.3484 -1.7897  0.8846
 8115SOL    HW236070   5.016  10.251  10.911  1.2728 -2.4977  1.6115
 8116SOL     OW36071   7.259   2.389   4.910 -0.2251  0.4076  0.4589
 8116SOL    HW136072   7.183   2.360   4.860  1.9977 -1.1768 -2.3230
 8116SOL    HW236073   7.302   2.454   4.855  0.0965  1.8438  2.2981
 8117SOL     OW36074   0.264   3.023   1.813  0.4253 -0.0088 -0.2892
 8117SOL    HW136075   0.207   3.100   1.816  0.7388  0.2011  1.5923
 8117SOL    HW236076   0.352   3.057   1.823  0.5974 -0.5606  0.1630
 8118SOL     OW36077   8.874   9.940   9.314 -0.2508  0.4052 -0.4576
 8118SOL    HW136078   8.887   9.845   9.316  0.0917  0.4222  1.9814
 8118SOL    HW236079   8.856   9.963   9.405 -2.1306  2.4730 -1.2528
 8119SOL     OW36080   7.204   1.741   6.494 -0.3868  0.2372 -0.1184
 8119SOL    HW136081   7.120   1.715   6.532 -0.6487 -1.9490 -1.9829
 8119SOL    HW236082   7.263   1.750   6.569 -1.8546  0.1924  1.0926
 8120SOL     OW36083   9.350   4.400   8.793  0.8443 -0.7365  0.8317
 8120SOL    HW136084   9.278   4.376   8.733  0.8845 -1.1240  0.9350
 8120SOL    HW236085   9.330   4.490   8.819  0.1382 -0.9964  1.2256
 8121SOL     OW36086   8.025   4.261   2.537 -0.1432 -0.1033  0.6373
 8121SOL    HW136087   7.930   4.256   2.546 -0.0909 -1.4998  0.6801
 8121SOL    HW236088   8.057   4.180   2.577  0.8845 -0.8734 -1.5656
 8122SOL     OW36089   5.396   7.459  10.026  0.7260  0.2919 -0.4695
 8122SOL    HW136090   5.397   7.403  10.104 -1.2119  1.5664  0.5333
 8122SOL    HW236091   5.389   7.398   9.953 -0.6083 -0.8193  0.5470
 8123SOL     OW36092  10.955   6.397   6.268 -0.2334  0.3956  0.2773
 8123SOL    HW136093  10.891   6.329   6.246 -1.8893  1.3958  1.7219
 8123SOL    HW236094  11.014   6.400   6.193 -0.9420 -1.6458 -0.4350
 8124SOL     OW36095  11.145   5.128   6.716 -0.2030  0.2040 -0.2475
 8124SOL    HW136096  11.195   5.130   6.634 -1.4743  0.9508 -1.0473
 8124SOL    HW236097  11.137   5.035   6.737 -0.2933 -0.0238 -1.2533
 8125SOL     OW36098   5.649   2.115   0.554  0.6273 -0.6640  0.6959
 8125SOL    HW136099   5.562   2.116   0.595  1.0987 -2.3509  1.8566
 8125SOL    HW236100   5.638   2.164   0.473 -1.3762 -0.7553  0.8658
 8126SOL     OW36101   6.887   3.090   7.404  0.0252 -0.4648  0.9288
 8126SOL    HW136102   6.953   3.026   7.376  0.7785 -0.3179  2.2578
 8126SOL    HW236103   6.821   3.039   7.450 -1.6022 -0.8115 -1.5628
 8127SOL     OW36104   9.918  11.810   4.289  0.7020  0.1603  0.0524
 8127SOL    HW136105   9.978  11.858   4.233  1.8305 -1.5829 -0.3144
 8127SOL    HW236106   9.970  11.787   4.366 -0.1350  0.4642  0.7265
 8128SOL     OW36107   3.430   1.527   9.337 -0.6976  0.0696  0.2759
 8128SOL    HW136108   3.492   1.585   9.383 -0.6049  1.3175 -1.2991
 8128SOL    HW236109   3.483   1.452   9.310 -0.3934  0.0704  0.8683
 8129SOL     OW36110   9.421   4.353   5.477  0.6005 -0.4510  0.3769
 8129SOL    HW136111   9.488   4.298   5.517 -0.4445 -1.5799  0.6532
 8129SOL    HW236112   9.386   4.299   5.405  0.0641  0.1562  0.1751
 8130SOL     OW36113   5.917  11.049  10.096 -0.1750 -0.1793 -0.3899
 8130SOL    HW136114   5.952  10.971  10.053 -0.7841  0.1924 -1.6288
 8130SOL    HW236115   5.961  11.122  10.051 -1.1596  0.2355 -0.7028
 8131SOL     OW36116   4.783   2.181   9.801  0.0944  0.3835 -0.0165
 8131SOL    HW136117   4.780   2.274   9.775 -0.3100  0.2029 -0.6359
 8131SOL    HW236118   4.735   2.136   9.732 -2.1591  0.0080  1.7036
 8132SOL     OW36119   3.670   8.093   9.938 -0.1252 -0.1671  0.3627
 8132SOL    HW136120   3.627   8.010   9.915 -2.6798  0.5735  2.0426
 8132SOL    HW236121   3.705   8.078  10.025 -2.5605  1.0713  1.6559
 8133SOL     OW36122   0.827  11.948  10.830 -0.2634  0.4329 -0.7195
 8133SOL    HW136123   0.807  12.006  10.904 -0.7508  0.0631 -0.5566
 8133SOL    HW236124   0.920  11.929  10.838 -0.1737  0.9183 -0.5757
 8134SOL     OW36125   4.909   6.478   7.941 -0.0681 -0.0268  0.4421
 8134SOL    HW136126   4.973   6.497   7.873  1.7415 -1.3488  1.6541
 8134SOL    HW236127   4.834   6.440   7.895  0.4792  0.5187 -0.9302
 8135SOL     OW36128  11.269   0.044   0.537 -0.1743  0.1528  0.3800
 8135SOL    HW136129  11.246   0.137   0.531 -0.0763  0.1197 -0.8286
 8135SOL    HW236130  11.340   0.041   0.601  1.4503  1.2661 -1.2624
 8136SOL     OW36131  11.413   7.393   0.031  0.0622 -0.5051  0.0542
 8136SOL    HW136132  11.426   7.310  -0.015 -1.9462 -1.0942  0.4176
 8136SOL    HW236133  11.373   7.368   0.114  1.9834  0.6739  1.4160
 8137SOL     OW36134   2.810   4.167   7.961 -0.0788  0.1146 -0.4519
 8137SOL    HW136135   2.823   4.167   8.056  1.0053  0.1761 -0.5910
 8137SOL    HW236136   2.759   4.088   7.944  3.2764 -2.3013 -0.2474
 8138SOL     OW36137  11.836   9.749   2.599 -0.0351 -0.3293 -0.3397
 8138SOL    HW136138  11.897   9.674   2.595  1.9321  1.1536  0.0374
 8138SOL    HW236139  11.886   9.817   2.644 -1.7913  1.2126 -0.6226
 8139SOL     OW36140   0.012   8.785   8.140  0.4393 -0.3963 -0.0888
 8139SOL    HW136141   0.005   8.878   8.163  0.7096 -0.1761 -0.8859
 8139SOL    HW236142  -0.077   8.761   8.113  0.2855 -0.4679  0.4678
 8140SOL     OW36143  10.925   0.943   5.458  0.4541 -0.1788  0.3212
 8140SOL    HW136144  10.860   0.915   5.522  1.0145  0.2169  1.0774
 8140SOL    HW236145  10.892   0.910   5.374 -0.6193 -0.1451  0.7136
 8141SOL     OW36146  11.786   9.430   6.033 -0.0955  0.4140  0.2647
 8141SOL    HW136147  11.854   9.461   6.093  0.1756 -0.7931  0.6011
 8141SOL    HW236148  11.713   9.491   6.047  0.9815  1.9024 -0.3166
 8142SOL     OW36149   6.809   3.357   8.741  0.3221 -0.0316  0.1019
 8142SOL    HW136150   6.895   3.315   8.746  0.2839  0.0148  2.0783
 8142SOL    HW236151   6.802   3.389   8.651  2.2644 -0.2649 -0.1610
 8143SOL     OW36152  11.038   3.171   7.864  0.1499 -0.1415  0.0299
 8143SOL    HW136153  11.120   3.164   7.815  0.5749  0.0081  0.7192
 8143SOL    HW236154  10.976   3.119   7.813  0.2600  1.0255 -1.3553
 8144SOL     OW36155   7.212   8.852   6.011  0.2175 -0.5338 -0.5255
 8144SOL    HW136156   7.247   8.814   5.930 -1.1444 -0.6427 -1.0873
 8144SOL    HW236157   7.176   8.937   5.985  1.1109  0.1068  0.2686
 8145SOL     OW36158   9.390   2.799   1.569 -0.3384  0.1261 -0.2641
 8145SOL    HW136159   9.422   2.719   1.528  0.3124 -0.0588  0.5637
 8145SOL    HW236160   9.428   2.870   1.518  1.1852 -0.0936  0.5047
 8146SOL     OW36161   2.603   7.759   0.062 -0.3171  0.4866 -0.2713
 8146SOL    HW136162   2.679   7.720   0.107 -0.3941  2.9950  2.3668
 8146SOL    HW236163   2.528   7.712   0.098 -0.2245  0.8313  0.3908
 8147SOL     OW36164   7.324   9.497   2.712 -0.6335  0.9695  0.1656
 8147SOL    HW136165   7.353   9.538   2.793 -0.4891  2.2875 -0.5310
 8147SOL    HW236166   7.395   9.513   2.650 -1.0356  0.5696 -0.4101
 8148SOL     OW36167  11.318   8.894   7.366 -0.0386 -0.9332 -0.6305
 8148SOL    HW136168  11.281   8.933   7.287 -1.1488 -0.6230  0.0232
 8148SOL    HW236169  11.338   8.804   7.340  0.5077 -0.5680 -1.5273
 8149SOL     OW36170   5.833   6.292   6.023 -0.3194  0.2331 -0.1070
 8149SOL    HW136171   5.794   6.317   6.107 -1.0725  1.2964 -0.7452
 8149SOL    HW236172   5.778   6.335   5.957  0.6853  0.0161 -1.1236
 8150SOL     OW36173   9.116   7.047   9.494 -0.2500 -0.2848 -0.6556
 8150SOL    HW136174   9.063   6.967   9.501 -1.0672  0.3401  1.0159
 8150SOL    HW236175   9.057   7.117   9.522  1.4014  0.4462  1.2194
 8151SOL     OW36176   4.358  10.034  10.748 -0.1852 -0.2286  0.2406
 8151SOL    HW136177   4.402  10.103  10.798 -0.1698  0.1309 -0.2645
 8151SOL    HW236178   4.392   9.952  10.785  3.0334 -0.0299 -1.8681
 8152SOL     OW36179   3.224   0.823   9.657 -0.3969  0.2208  0.0340
 8152SOL    HW136180   3.180   0.802   9.740  0.0231  0.9493  0.4581
 8152SOL    HW236181   3.316   0.807   9.674 -0.3197  0.2688 -0.3342
 8153SOL     OW36182   8.271   5.848   0.773 -0.3143 -0.5290 -0.0535
 8153SOL    HW136183   8.356   5.873   0.809 -0.0848 -0.9186 -0.3156
 8153SOL    HW236184   8.215   5.924   0.790  0.3441  0.1397 -0.7694
 8154SOL     OW36185   5.320   2.720   4.682  0.2203 -0.6432 -0.2061
 8154SOL    HW136186   5.323   2.632   4.720  0.8404 -0.1688  0.8842
 8154SOL    HW236187   5.236   2.724   4.637 -0.0460 -1.6074  0.1779
 8155SOL     OW36188   0.080   6.092   6.493 -0.5837 -0.2057 -0.0757
 8155SOL    HW136189   0.003   6.103   6.548 -1.1541  0.7407 -1.0154
 8155SOL    HW236190   0.153   6.122   6.547 -1.2451  1.5851 -0.1124
 8156SOL     OW36191   6.326   6.914   6.340 -0.1797 -0.2531  0.1205
 8156SOL    HW136192   6.275   6.844   6.298 -0.2218 -1.0549  1.4473
 8156SOL    HW236193   6.259   6.975   6.372 -0.1441  0.4007 -1.0222
 8157SOL     OW36194   3.752   1.096   2.613  0.0700 -0.3277 -0.0099
 8157SOL    HW136195   3.752   1.187   2.584 -1.6716  0.8159  3.1134
 8157SOL    HW236196   3.665   1.064   2.591 -0.5338 -0.0915  1.8667
 8158SOL     OW36197   5.782   6.981   6.513  0.4159  0.0026  0.9622
 8158SOL    HW136198   5.865   7.020   6.539  0.4925 -0.2458  1.0966
 8158SOL    HW236199   5.783   6.894   6.552  0.4808 -0.3357  0.2163
 8159SOL     OW36200   5.630   6.253  11.863 -0.1211  0.2929  0.6714
 8159SOL    HW136201   5.641   6.346  11.886 -1.6403  0.5213  0.5880
 8159SOL    HW236202   5.548   6.250  11.814  0.3074 -0.9985 -0.0110
 8160SOL     OW36203   7.351  10.900   0.451  0.4977  0.3337 -0.4387
 8160SOL    HW136204   7.404  10.835   0.496 -0.9693  0.3729  1.4759
 8160SOL    HW236205   7.308  10.851   0.380  0.4865 -0.4677  0.1074
 8161SOL     OW36206   8.827   4.252   7.263  0.1583 -0.5083 -0.0435
 8161SOL    HW136207   8.899   4.205   7.305  1.3627  1.2289 -0.0425
 8161SOL    HW236208   8.862   4.280   7.178 -1.4184 -1.8384 -1.2051
 8162SOL     OW36209   3.263   7.370   8.007 -0.8928  0.4134 -0.3790
 8162SOL    HW136210   3.332   7.306   8.022 -0.9294  0.2700 -0.8180
 8162SOL    HW236211   3.297   7.426   7.937 -1.0072  0.6596 -0.2410
 8163SOL     OW36212   0.966   0.088   4.462 -0.4238  0.6830  0.6851
 8163SOL    HW136213   1.058   0.063   4.462 -0.4448  0.4980 -1.0785
 8163SOL    HW236214   0.963   0.167   4.516  1.0381  1.5506 -0.4178
 8164SOL     OW36215   4.280   9.555   0.379 -0.2541 -0.9996 -0.4043
 8164SOL    HW136216   4.372   9.533   0.393 -0.4816 -1.6150  0.1608
 8164SOL    HW236217   4.282   9.637   0.331  0.5893 -0.3917  0.6296
 8165SOL     OW36218  11.207   5.501  10.731 -0.2897  0.3047 -0.0417
 8165SOL    HW136219  11.264   5.454  10.671 -1.2138 -2.2559  0.9775
 8165SOL    HW236220  11.267   5.547  10.790  0.7265 -1.2920  0.2207
 8166SOL     OW36221  10.543   9.961   5.973  0.2027 -0.4308 -0.2208
 8166SOL    HW136222  10.634   9.984   5.957  0.1754  0.9229  1.3096
 8166SOL    HW236223  10.516  10.016   6.047 -1.9716 -0.5245 -0.8535
 8167SOL     OW36224   9.330   1.539   2.881 -0.2813 -0.8853  0.2003
 8167SOL    HW136225   9.357   1.447   2.875  0.6993 -0.6785  1.0562
 8167SOL    HW236226   9.402   1.587   2.840 -0.2534 -0.4357  0.7749
 8168SOL     OW36227  10.275   7.365   8.824 -0.0395 -0.1388  0.2786
 8168SOL    HW136228  10.333   7.437   8.799  1.2446 -0.8544  1.0400
 8168SOL    HW236229  10.284   7.301   8.753  1.1232 -0.7895  0.9752
 8169SOL     OW36230   2.780   6.448   0.067 -0.2031 -0.8386  0.0259
 8169SOL    HW136231   2.694   6.457   0.026  0.3194 -0.7049 -1.0966
 8169SOL    HW236232   2.779   6.360   0.106 -0.2984 -1.5037 -1.3961
 8170SOL     OW36233  11.219   3.764   6.955 -0.3063 -0.7702 -0.8481
 8170SOL    HW136234  11.303   3.810   6.953  0.4799 -2.0199  0.8292
 8170SOL    HW236235  11.199   3.755   7.048 -2.8998  0.4618 -1.1977
 8171SOL     OW36236   3.192   6.357   3.822 -0.1426  0.1070 -0.0617
 8171SOL    HW136237   3.143   6.334   3.901  1.3981  0.2378  0.9776
 8171SOL    HW236238   3.212   6.273   3.781 -2.1355  0.0915 -1.1198
 8172SOL     OW36239   4.634   9.588   3.373 -0.2614 -0.0963  0.6515
 8172SOL    HW136240   4.616   9.649   3.301 -0.9154 -2.8633 -1.6817
 8172SOL    HW236241   4.695   9.636   3.429 -1.9714  3.3213 -0.0946
 8173SOL     OW36242   9.211   6.437   4.330  0.4962  0.3459 -0.2217
 8173SOL    HW136243   9.269   6.364   4.309  0.6021 -0.0693  1.4295
 8173SOL    HW236244   9.147   6.401   4.391 -0.2736  1.3029 -0.4394
 8174SOL     OW36245   8.694   8.870   7.981  0.0312 -0.3589  0.5547
 8174SOL    HW136246   8.696   8.842   7.890  1.9089  0.8600  0.1752
 8174SOL    HW236247   8.648   8.954   7.979 -2.0347 -1.3986  1.1284
 8175SOL     OW36248   1.373   9.695   1.418  0.3649 -0.8287 -0.3100
 8175SOL    HW136249   1.325   9.621   1.381  0.4634 -0.0061 -2.2007
 8175SOL    HW236250   1.312   9.769   1.412  1.4787  0.0341 -1.9238
 8176SOL     OW36251   7.735   2.171   1.403 -0.1918 -0.4270  0.3919
 8176SOL    HW136252   7.824   2.197   1.429  0.2054 -1.1454 -0.1809
 8176SOL    HW236253   7.697   2.249   1.365  0.0959 -0.0301  0.9137
 8177SOL     OW36254   6.709   3.079   6.124 -0.2340  0.4301 -0.4078
 8177SOL    HW136255   6.750   3.027   6.055 -1.2798 -0.5630 -0.3199
 8177SOL    HW236256   6.667   3.152   6.078 -0.2547  0.2142 -0.7305
 8178SOL     OW36257   5.449   9.744  11.021 -0.1035  0.1083 -0.2963
 8178SOL    HW136258   5.424   9.657  11.054  3.3401 -0.5839  0.9138
 8178SOL    HW236259   5.521   9.726  10.960  0.0534  2.0509 -0.7260
 8179SOL     OW36260   4.980  10.832   9.914 -0.0760  0.1938  0.1201
 8179SOL    HW136261   4.996  10.802  10.003  1.2109  0.7267  0.0825
 8179SOL    HW236262   4.959  10.925   9.923  2.3952  0.8631 -0.2819
 8180SOL     OW36263   4.702   7.404   7.350 -0.2373  0.3138  0.2117
 8180SOL    HW136264   4.787   7.436   7.322  0.1075  0.3514  1.2634
 8180SOL    HW236265   4.672   7.350   7.277  0.7156  0.2420 -0.1421
 8181SOL     OW36266   2.632  10.615   5.643 -0.2818 -0.2139 -0.0332
 8181SOL    HW136267   2.632  10.530   5.600 -0.3910 -1.5742  2.4920
 8181SOL    HW236268   2.581  10.671   5.585  0.9252 -1.4511 -2.4352
 8182SOL     OW36269   3.742   0.851   5.930  0.3663 -0.1836  0.5372
 8182SOL    HW136270   3.682   0.776   5.928 -0.1510  0.2316 -0.0409
 8182SOL    HW236271   3.719   0.896   6.011  0.0239 -0.1340  0.4162
 8183SOL     OW36272   0.234   5.869   6.690  0.5265  0.3684 -0.5040
 8183SOL    HW136273   0.188   5.791   6.658  0.4342 -0.1785  0.9077
 8183SOL    HW236274   0.168   5.939   6.687 -0.5203 -0.4483  1.6696
 8184SOL     OW36275   1.186   1.804   3.903  0.1074  0.6004  0.2185
 8184SOL    HW136276   1.197   1.709   3.907 -1.6091  0.2529 -1.6606
 8184SOL    HW236277   1.267   1.836   3.863  0.0798 -0.2697 -0.5777
 8185SOL     OW36278   2.553   0.005   3.435  0.2051 -0.5864 -0.4090
 8185SOL    HW136279   2.621   0.069   3.456 -0.0897 -0.2265 -0.5580
 8185SOL    HW236280   2.598  -0.080   3.442  0.7681 -0.3341 -0.8615
 8186SOL     OW36281   4.444   9.863   0.086  0.6742  0.3173 -0.1394
 8186SOL    HW136282   4.461   9.843   0.179  1.5960  0.3791 -0.2817
 8186SOL    HW236283   4.463   9.781   0.041 -1.2432 -0.1636 -0.1386
 8187SOL     OW36284   8.463   1.654  10.874  0.3674 -0.2523 -0.3225
 8187SOL    HW136285   8.431   1.570  10.906 -0.4807 -0.1842 -0.9681
 8187SOL    HW236286   8.385   1.707  10.862  0.7504  0.0954 -1.4376
 8188SOL     OW36287   2.116   2.189   1.787 -0.1140  0.1815 -0.3498
 8188SOL    HW136288   2.153   2.220   1.704 -0.6523  0.5016 -0.4813
 8188SOL    HW236289   2.064   2.263   1.818  0.3962  0.2006  0.4746
 8189SOL     OW36290   0.865   5.108   9.902  0.3075 -0.1740 -0.0047
 8189SOL    HW136291   0.932   5.053   9.943 -0.3217 -2.2503 -1.5560
 8189SOL    HW236292   0.855   5.182   9.961  1.3200 -1.6576  2.1639
 8190SOL     OW36293   8.742   2.009   3.381  0.3787  0.4809  0.0521
 8190SOL    HW136294   8.778   1.944   3.321  1.5486  0.0877  1.1420
 8190SOL    HW236295   8.690   1.957   3.443  0.2679  0.7365  0.1722
 8191SOL     OW36296   8.654  11.254   4.985 -0.4001 -0.0018  0.0399
 8191SOL    HW136297   8.562  11.229   4.987 -0.0208 -1.4448  0.0282
 8191SOL    HW236298   8.670  11.294   5.071 -0.9608  0.0437  0.1288
 8192SOL     OW36299   9.149  11.940   4.125  0.3738  0.5549  0.3368
 8192SOL    HW136300   9.193  11.930   4.210 -0.3877  1.8286  0.9117
 8192SOL    HW236301   9.057  11.953   4.147 -0.0421 -0.4118 -0.7679
 8193SOL     OW36302   5.457   4.284   4.737 -0.4612  0.2590 -0.0961
 8193SOL    HW136303   5.487   4.194   4.743 -2.8664 -0.5254  2.7281
 8193SOL    HW236304   5.525   4.336   4.780 -1.5117 -1.0890  3.5715
 8194SOL     OW36305   9.920   1.642   4.588  0.3309  0.2015  0.3737
 8194SOL    HW136306   9.976   1.601   4.522  0.1966 -0.2975  0.5648
 8194SOL    HW236307   9.964   1.724   4.608  0.8258 -0.0328  0.2797
 8195SOL     OW36308   6.520   9.975   0.021 -0.5033 -0.5169  0.5764
 8195SOL    HW136309   6.537  10.015   0.106 -0.0180 -0.8105  0.6240
 8195SOL    HW236310   6.533   9.881   0.036 -0.8178 -0.6089  0.2760
 8196SOL     OW36311   9.301   4.488   5.847  0.0254 -0.3084  0.2985
 8196SOL    HW136312   9.312   4.393   5.860  1.4694 -0.2329 -0.2857
 8196SOL    HW236313   9.222   4.509   5.897 -0.0046 -1.7216  0.9030
 8197SOL     OW36314   6.563   1.451   9.314  0.3930 -0.9560  0.3341
 8197SOL    HW136315   6.485   1.406   9.283  0.1836 -1.6056  1.7487
 8197SOL    HW236316   6.636   1.408   9.269  0.1552 -2.4119  1.2819
 8198SOL     OW36317   6.703   6.066   1.609 -0.5758 -0.0086  0.3890
 8198SOL    HW136318   6.672   6.120   1.536  0.9275  0.2125 -0.1199
 8198SOL    HW236319   6.729   6.129   1.676 -0.7850 -0.1679  0.6191
 8199SOL     OW36320   6.701  10.082   4.271 -0.3073  0.6740 -0.2888
 8199SOL    HW136321   6.711  10.177   4.265  1.0705  0.5331 -0.5495
 8199SOL    HW236322   6.697  10.052   4.180  1.3085  0.3121 -0.2654
 8200SOL     OW36323   4.405   6.150   4.870 -0.2166 -0.3365 -0.6345
 8200SOL    HW136324   4.367   6.157   4.783  2.4813  1.3838 -1.7881
 8200SOL    HW236325   4.423   6.057   4.881 -0.6755 -0.5910 -1.8487
 8201SOL     OW36326  10.440   2.102  10.196 -0.0956 -0.4736 -0.0685
 8201SOL    HW136327  10.436   2.160  10.272 -0.3188  1.5114 -1.5058
 8201SOL    HW236328  10.532   2.099  10.172  0.0836 -1.7058  0.6692
 8202SOL     OW36329   5.047   7.021   0.771  0.0543  0.1059 -0.5323
 8202SOL    HW136330   4.962   7.055   0.742 -0.3555 -0.9864 -0.6553
 8202SOL    HW236331   5.033   6.996   0.862  0.4141  0.4678 -0.3765
 8203SOL     OW36332   6.855   5.553   3.274  0.8755  0.1975 -0.1433
 8203SOL    HW136333   6.812   5.523   3.194  3.3735  0.7192 -1.8003
 8203SOL    HW236334   6.909   5.479   3.302  0.0162  0.0135  1.1162
 8204SOL     OW36335   3.198   1.879   3.690  0.0256  0.0668 -0.0143
 8204SOL    HW136336   3.122   1.860   3.746  0.2468  1.4001  0.7776
 8204SOL    HW236337   3.256   1.804   3.703 -1.3762 -1.2939 -1.1086
 8205SOL     OW36338  10.451  10.814   4.050 -0.6843  0.2337 -0.2034
 8205SOL    HW136339  10.427  10.723   4.032 -3.2000  0.9667 -1.0709
 8205SOL    HW236340  10.391  10.865   3.995  0.9394  2.4243 -0.0540
 8206SOL     OW36341   4.834  10.058   8.369 -0.2731  0.3062  0.1670
 8206SOL    HW136342   4.788  10.081   8.288  1.3648 -0.0316 -0.8989
 8206SOL    HW236343   4.872  10.141   8.399  0.8376  0.0889 -0.5651
 8207SOL     OW36344  11.933   8.851   6.548  0.4159  0.9311  0.1331
 8207SOL    HW136345  12.027   8.844   6.565  0.6154  1.0564 -0.8716
 8207SOL    HW236346  11.926   8.910   6.474 -0.3112 -0.6295 -1.0949
 8208SOL     OW36347  10.036   5.775   9.754  0.1961 -0.0603  0.1727
 8208SOL    HW136348  10.045   5.781   9.659  0.7963  0.3962  0.2534
 8208SOL    HW236349  10.110   5.721   9.782  1.4549  1.7964  0.6078
 8209SOL     OW36350   0.314  11.065   8.366  0.0959  0.8576  0.0994
 8209SOL    HW136351   0.353  11.039   8.283 -0.3660 -1.7355  0.5872
 8209SOL    HW236352   0.242  11.123   8.342  0.5214  0.8596 -1.2505
 8210SOL     OW36353   2.749   6.263   9.412  0.6118 -0.4746 -0.2164
 8210SOL    HW136354   2.707   6.337   9.367  1.4763  0.4111  0.3912
 8210SOL    HW236355   2.714   6.185   9.368 -0.3293  0.2886 -0.8620
 8211SOL     OW36356   9.484   1.487   8.954  0.2196 -0.2708  0.4569
 8211SOL    HW136357   9.574   1.517   8.961  0.5126 -0.7308 -0.9872
 8211SOL    HW236358   9.482   1.404   9.001 -0.2350  1.1615  3.1547
 8212SOL     OW36359  10.548   0.401   6.533 -0.5327 -0.4277 -0.0809
 8212SOL    HW136360  10.457   0.371   6.531 -0.1471 -1.6384 -0.4622
 8212SOL    HW236361  10.600   0.322   6.515  0.5701  0.3398 -0.4033
 8213SOL     OW36362   7.954   2.111   0.146 -0.1589  0.4468 -0.2344
 8213SOL    HW136363   7.920   2.062   0.072  1.2656 -0.5093 -0.2939
 8213SOL    HW236364   7.943   2.053   0.221  0.3767  0.5326 -0.0835
 8214SOL     OW36365   6.532   8.108  10.106  0.4780  0.2713 -0.0635
 8214SOL    HW136366   6.442   8.108  10.137 -0.5523 -2.1072 -2.6028
 8214SOL    HW236367   6.533   8.174  10.036  0.0238 -1.1220 -1.4591
 8215SOL     OW36368   0.708   8.217  10.106  0.1481 -0.1608 -0.0458
 8215SOL    HW136369   0.656   8.235  10.185 -0.2461 -1.4391  0.0110
 8215SOL    HW236370   0.788   8.176  10.140  0.3802  0.1298 -0.2488
 8216SOL     OW36371   8.815   6.631   1.098  0.0938  0.1886 -0.4848
 8216SOL    HW136372   8.720   6.644   1.097 -0.0510 -0.7935 -1.2190
 8216SOL    HW236373   8.842   6.645   1.007  0.3343 -1.5323 -0.7127
 8217SOL     OW36374   2.921   0.447   2.252 -0.0593  0.2078  0.3589
 8217SOL    HW136375   2.960   0.447   2.165  1.4348 -0.8905  0.9847
 8217SOL    HW236376   2.871   0.366   2.256  0.8149 -0.3201  0.8938
 8218SOL     OW36377  10.674  11.091   8.199 -0.0070 -0.3646 -0.1010
 8218SOL    HW136378  10.608  11.071   8.132  0.3740 -0.9289 -0.3151
 8218SOL    HW236379  10.757  11.070   8.157  0.1482 -2.4979  1.1592
 8219SOL     OW36380   8.696   5.148   8.626  0.6247 -0.4504  0.3518
 8219SOL    HW136381   8.770   5.206   8.606  2.0691 -1.5096  2.2958
 8219SOL    HW236382   8.717   5.066   8.583  1.1916 -1.1112  1.8232
 8220SOL     OW36383   1.702   1.282  10.283  0.2513  0.2848  0.2422
 8220SOL    HW136384   1.708   1.368  10.241 -1.7789 -0.4369 -1.7065
 8220SOL    HW236385   1.679   1.301  10.374  1.8884  1.8148  0.3937
 8221SOL     OW36386   4.230   5.308   0.422 -0.2066  0.2637  0.1869
 8221SOL    HW136387   4.270   5.292   0.508  0.6973 -2.0926 -0.5851
 8221SOL    HW236388   4.160   5.244   0.416  0.6813 -0.5896 -1.3910
 8222SOL     OW36389   6.664   8.777   2.857 -0.6942  0.0988 -0.0101
 8222SOL    HW136390   6.635   8.756   2.768 -0.5212 -0.0192 -0.0389
 8222SOL    HW236391   6.664   8.873   2.861  0.7288  0.1511 -0.6145
 8223SOL     OW36392   4.378   8.494   9.897  0.2078  0.1702  0.0172
 8223SOL    HW136393   4.284   8.506   9.878 -0.1774 -2.1744  0.1126
 8223SOL    HW236394   4.379   8.437   9.974  1.6981 -1.1040 -0.9078
 8224SOL     OW36395   1.270   9.017   7.825 -0.1520  0.0254  0.0933
 8224SOL    HW136396   1.303   9.073   7.895 -3.8752  1.6679  0.7288
 8224SOL    HW236397   1.204   9.070   7.781  0.5711 -1.7064 -3.4349
 8225SOL     OW36398   3.972   8.194   4.512  0.4554  0.2742 -0.2543
 8225SOL    HW136399   4.002   8.144   4.588 -0.4417  2.1219  1.3924
 8225SOL    HW236400   3.933   8.128   4.454 -1.7683 -0.8719  2.3468
 8226SOL     OW36401   9.134   0.286   3.321  0.0991  0.3736  0.2340
 8226SOL    HW136402   9.209   0.263   3.375  1.3377  0.5143 -1.3667
 8226SOL    HW236403   9.122   0.212   3.262 -0.7534  0.5413  0.1740
 8227SOL     OW36404   5.282   2.466   6.931  0.3323 -0.0775 -0.2300
 8227SOL    HW136405   5.368   2.443   6.896 -0.2516 -2.1864 -0.3976
 8227SOL    HW236406   5.294   2.466   7.026  0.9734  1.7212 -0.2728
 8228SOL     OW36407   4.644   3.689   3.085 -0.4497  0.0498  0.5875
 8228SOL    HW136408   4.604   3.661   3.167 -1.6116  1.8742  0.7019
 8228SOL    HW236409   4.700   3.763   3.111  0.5107 -0.4450 -0.0376
 8229SOL     OW36410   2.011   6.638   8.668 -0.2674  0.1279 -0.9428
 8229SOL    HW136411   1.922   6.655   8.699  0.1951  0.9383  0.0170
 8229SOL    HW236412   2.066   6.695   8.723  0.7771  0.1398 -1.9685
 8230SOL     OW36413  10.717   2.754   1.294  0.6459  0.2498 -0.0838
 8230SOL    HW136414  10.785   2.776   1.358 -0.0160 -0.6958  0.9844
 8230SOL    HW236415  10.661   2.832   1.291  2.4574  1.5881 -1.9909
 8231SOL     OW36416  10.818   4.000   2.076 -0.5033  0.2533  0.0401
 8231SOL    HW136417  10.758   3.925   2.069 -0.1484  0.0143 -0.5224
 8231SOL    HW236418  10.900   3.968   2.038 -0.9854  1.6340 -2.3804
 8232SOL     OW36419   2.966   8.372  11.512  0.0639  0.7455 -0.3732
 8232SOL    HW136420   2.929   8.410  11.592 -0.0416 -2.9372  1.5148
 8232SOL    HW236421   3.058   8.357  11.533  0.0741 -0.1382 -1.0079
 8233SOL     OW36422   6.111   5.411   7.865  0.0763 -0.1018 -0.2860
 8233SOL    HW136423   6.193   5.431   7.820 -0.6764  0.8955 -1.2658
 8233SOL    HW236424   6.069   5.496   7.876 -1.5864 -0.7463 -1.2991
 8234SOL     OW36425   2.753   7.840   3.410 -0.4594 -0.5888 -0.3187
 8234SOL    HW136426   2.845   7.864   3.405 -0.9402  1.2217 -1.2406
 8234SOL    HW236427   2.748   7.778   3.483  1.1599  0.7984  1.0530
 8235SOL     OW36428   6.596   6.405   6.637  0.1289  0.3550  0.6767
 8235SOL    HW136429   6.667   6.418   6.700  0.5119  0.7742  0.1697
 8235SOL    HW236430   6.595   6.310   6.620  0.3516  0.3081  0.9329
 8236SOL     OW36431   0.213   1.559   8.476 -0.5962 -0.0218  0.1342
 8236SOL    HW136432   0.176   1.472   8.489  0.9313 -0.6966  0.2280
 8236SOL    HW236433   0.240   1.587   8.563  0.2186 -0.0942 -0.0793
 8237SOL     OW36434   0.398   0.990   0.182  0.8074  0.0344  0.4659
 8237SOL    HW136435   0.480   1.016   0.224  1.4074 -2.0718  0.7098
 8237SOL    HW236436   0.371   0.910   0.227 -1.4471  0.6920  0.4261
 8238SOL     OW36437   0.189   5.337   4.075 -0.5665 -0.3854 -0.3210
 8238SOL    HW136438   0.228   5.312   3.991  1.9658 -0.3450  0.7775
 8238SOL    HW236439   0.143   5.258   4.104  1.0178 -1.3671 -0.4007
 8239SOL     OW36440   2.967  11.630   8.957 -0.1488  0.6175  0.1750
 8239SOL    HW136441   2.963  11.595   9.046  0.3259  0.8477  0.2888
 8239SOL    HW236442   2.881  11.671   8.944  0.1872  1.5926  0.9533
 8240SOL     OW36443   8.300   0.272   5.618 -0.0586 -0.0481  0.1753
 8240SOL    HW136444   8.311   0.266   5.523  1.4677  1.9029  0.1682
 8240SOL    HW236445   8.207   0.257   5.633  0.1047 -3.5852 -1.2754
 8241SOL     OW36446   5.043   7.696   1.374 -0.4053  0.1214 -0.1572
 8241SOL    HW136447   5.102   7.623   1.358 -0.2133  0.1603  0.3520
 8241SOL    HW236448   5.100   7.772   1.385 -0.5039  0.0864  0.7538
 8242SOL     OW36449   4.760   8.776   8.694  0.0104  0.6161  0.5813
 8242SOL    HW136450   4.849   8.744   8.678 -0.2009  0.2563  0.1039
 8242SOL    HW236451   4.745   8.762   8.787  0.2956  0.2723  0.5770
 8243SOL     OW36452   7.445   7.999   3.822 -0.8917  0.0868 -0.0835
 8243SOL    HW136453   7.488   7.984   3.738 -2.0272 -1.0757 -0.4991
 8243SOL    HW236454   7.472   8.087   3.847 -0.1121  0.2650 -1.4050
 8244SOL     OW36455   6.247   8.660   2.401  0.1950 -0.2442 -0.0551
 8244SOL    HW136456   6.222   8.750   2.382  0.6209 -0.1226 -0.0485
 8244SOL    HW236457   6.297   8.632   2.324  0.4475 -0.3264  0.1382
 8245SOL     OW36458  10.617   6.899  10.165  0.6150  0.2472 -0.0821
 8245SOL    HW136459  10.607   6.949  10.084  0.0351 -0.3067 -0.3652
 8245SOL    HW236460  10.604   6.963  10.235  0.8489  0.6750 -0.4334
 8246SOL     OW36461   8.388   6.830   1.897 -0.3794  0.1614  0.3972
 8246SOL    HW136462   8.406   6.751   1.846  0.6546  0.4351  0.3106
 8246SOL    HW236463   8.367   6.798   1.985 -1.9669 -0.3018 -0.1130
 8247SOL     OW36464   0.193   6.801   9.156 -0.3505 -0.2969  0.3823
 8247SOL    HW136465   0.112   6.773   9.197 -0.6593 -0.5679 -0.4019
 8247SOL    HW236466   0.245   6.721   9.147  0.6752  0.1030  2.3132
 8248SOL     OW36467   0.445   1.283   3.452  0.2573  0.0000 -0.2240
 8248SOL    HW136468   0.467   1.333   3.531  0.2515 -0.3136 -0.0168
 8248SOL    HW236469   0.494   1.201   3.463  1.6035  0.6142 -1.3568
 8249SOL     OW36470   6.033  11.287   1.852 -1.2928  0.1997 -0.6783
 8249SOL    HW136471   5.948  11.278   1.896  0.1333 -1.6926  2.0313
 8249SOL    HW236472   6.027  11.229   1.776 -2.3024 -0.1825 -0.3302
 8250SOL     OW36473   3.883   0.770   9.377  0.7222  0.0575  0.3830
 8250SOL    HW136474   3.965   0.813   9.402 -0.7694  4.2299 -1.0308
 8250SOL    HW236475   3.814   0.823   9.418 -1.3986 -2.6522  0.6712
 8251SOL     OW36476   1.455   1.776   7.240  0.2308  0.2041 -0.3580
 8251SOL    HW136477   1.442   1.838   7.168 -0.4127  1.4791  0.8135
 8251SOL    HW236478   1.528   1.811   7.290 -1.2879  1.1044  1.3608
 8252SOL     OW36479  10.623   1.601   9.718  0.0483 -0.2923  0.4332
 8252SOL    HW136480  10.669   1.611   9.634 -0.1693  2.9196  0.5723
 8252SOL    HW236481  10.691   1.573   9.779  0.4212 -1.6996 -0.5878
 8253SOL     OW36482  11.853   5.942   4.129  0.3993  0.4108  0.2812
 8253SOL    HW136483  11.792   6.016   4.131 -0.4231 -0.2645  0.6957
 8253SOL    HW236484  11.923   5.967   4.189  0.0189  0.7620  0.5837
 8254SOL     OW36485   6.641  10.444   1.483 -0.4280 -0.2514  0.0682
 8254SOL    HW136486   6.662  10.453   1.576  1.1392  0.9269 -0.3551
 8254SOL    HW236487   6.628  10.533   1.452  0.6656 -0.4971 -1.1804
 8255SOL     OW36488   1.289   2.446   9.446 -0.4471 -0.4541 -0.0520
 8255SOL    HW136489   1.247   2.361   9.432 -0.3260 -0.6141  0.5233
 8255SOL    HW236490   1.264   2.471   9.535 -0.8065  0.3035 -0.3525
 8256SOL     OW36491   6.637   4.780   0.936  0.1263 -0.2435  0.5317
 8256SOL    HW136492   6.637   4.836   0.859  2.8658  0.2303  0.7530
 8256SOL    HW236493   6.670   4.837   1.006  0.4009 -1.4155  1.3777
 8257SOL     OW36494   4.400  10.782   8.079  0.0417  0.4350 -0.6155
 8257SOL    HW136495   4.488  10.814   8.058  1.0868 -1.5111  0.5695
 8257SOL    HW236496   4.365  10.753   7.995  1.3791 -0.7104 -0.8080
 8258SOL     OW36497   9.463   7.245   5.812 -0.6166 -0.6360  0.1912
 8258SOL    HW136498   9.504   7.226   5.727 -0.9052 -0.1354 -0.0697
 8258SOL    HW236499   9.452   7.160   5.853  1.3684 -0.7420  0.5907
 8259SOL     OW36500   6.931   0.522  10.948  0.3016 -0.2771 -0.0660
 8259SOL    HW136501   6.959   0.445  10.998  1.6367 -0.3303 -0.8729
 8259SOL    HW236502   6.930   0.493  10.857  0.2418  0.5046 -0.3185
 8260SOL     OW36503   5.850   1.782   9.653 -0.1361 -0.0881  0.1978
 8260SOL    HW136504   5.764   1.753   9.623 -0.3028 -1.2570  1.6940
 8260SOL    HW236505   5.836   1.873   9.679 -0.8529 -0.1808  0.1609
 8261SOL     OW36506   6.563  10.157   1.423 -0.4326  0.1555 -0.0350
 8261SOL    HW136507   6.636  10.127   1.477 -0.9468 -0.9036  0.1014
 8261SOL    HW236508   6.579  10.250   1.411  1.2865 -0.1700 -0.5536
 8262SOL     OW36509   8.883   1.618   7.419  0.2342  0.0787 -0.3981
 8262SOL    HW136510   8.874   1.681   7.348  0.3133  0.6491  0.0975
 8262SOL    HW236511   8.827   1.545   7.393 -0.3139  0.6009 -0.6961
 8263SOL     OW36512   0.812   6.767   6.503  0.1676  0.4174  0.7009
 8263SOL    HW136513   0.745   6.823   6.540  0.4514  0.4106  1.2367
 8263SOL    HW236514   0.867   6.826   6.451 -1.2864  0.1464 -1.2795
 8264SOL     OW36515   1.557   6.728   4.132 -0.6059 -0.5732  0.2204
 8264SOL    HW136516   1.619   6.791   4.170 -2.1006  0.7153  0.6206
 8264SOL    HW236517   1.530   6.768   4.050 -0.8224 -1.1931 -0.0103
 8265SOL     OW36518   6.272   0.049  10.987 -0.1597 -0.6348 -0.4135
 8265SOL    HW136519   6.289  -0.005  11.064  0.2696  0.7927  0.5356
 8265SOL    HW236520   6.228   0.126  11.021 -0.3510 -0.1639 -1.6728
 8266SOL     OW36521   5.602   8.854   7.915  0.5747  0.0068 -0.0312
 8266SOL    HW136522   5.671   8.829   7.854  1.2647 -0.2037  0.8059
 8266SOL    HW236523   5.595   8.949   7.906 -0.0038 -0.1308 -1.1205
 8267SOL     OW36524   4.779   3.124   8.169  0.2203 -0.1169  0.1524
 8267SOL    HW136525   4.767   3.125   8.074 -0.0102  0.2142  0.1857
 8267SOL    HW236526   4.696   3.092   8.204  1.1165 -2.6900  0.1245
 8268SOL     OW36527   7.163  11.721   5.495 -0.5278  0.2080  0.5187
 8268SOL    HW136528   7.177  11.774   5.417 -1.0527 -1.6080 -0.8953
 8268SOL    HW236529   7.201  11.772   5.566 -0.6907  2.2652 -0.7878
 8269SOL     OW36530   8.808   1.794   5.749 -0.0864 -0.3278 -0.2692
 8269SOL    HW136531   8.844   1.731   5.812 -1.4063 -0.2163  0.6255
 8269SOL    HW236532   8.715   1.799   5.771 -0.2092  1.1140 -1.0455
 8270SOL     OW36533   7.599  11.766   8.712  0.1364 -0.0656 -0.1957
 8270SOL    HW136534   7.551  11.772   8.629  0.1506 -0.8696 -0.2684
 8270SOL    HW236535   7.687  11.738   8.687 -0.5882 -3.0447  0.2709
 8271SOL     OW36536   0.204   1.913  11.457 -0.0576  0.1647  0.8470
 8271SOL    HW136537   0.290   1.948  11.434 -0.3920  0.7312  0.4343
 8271SOL    HW236538   0.194   1.931  11.551 -0.6579  2.1792  0.4499
 8272SOL     OW36539   2.340   4.453   8.712 -0.1647 -0.2895  0.4183
 8272SOL    HW136540   2.246   4.462   8.699 -0.0965 -0.5802 -0.3554
 8272SOL    HW236541   2.351   4.368   8.754 -0.3147  0.2143  1.5191
 8273SOL     OW36542   2.982   2.293   3.600 -0.7948 -0.1457  0.4340
 8273SOL    HW136543   2.942   2.354   3.538  0.0680 -0.6465 -0.6505
 8273SOL    HW236544   3.050   2.344   3.644 -2.6765  0.7698  2.4400
 8274SOL     OW36545   8.339  10.487   7.328  0.1085 -0.4137 -0.2499
 8274SOL    HW136546   8.326  10.576   7.362 -0.0702 -0.1785 -0.9081
 8274SOL    HW236547   8.430  10.488   7.296 -0.2789 -0.0449 -1.4244
 8275SOL     OW36548   2.139   3.071   7.530 -0.0976 -0.2567 -0.2836
 8275SOL    HW136549   2.068   3.007   7.525  0.4737 -0.8833 -0.5415
 8275SOL    HW236550   2.159   3.091   7.439 -0.9351  1.0623 -0.2076
 8276SOL     OW36551   2.771   9.199   7.119 -0.4176 -0.2884 -0.1479
 8276SOL    HW136552   2.865   9.194   7.100  0.4688  2.3134  2.6206
 8276SOL    HW236553   2.766   9.193   7.215 -2.9653  0.6724 -0.1416
 8277SOL     OW36554   5.874   2.519   4.839 -0.1515 -0.2315  0.5029
 8277SOL    HW136555   5.814   2.584   4.876 -0.0890 -0.0598  0.3047
 8277SOL    HW236556   5.820   2.441   4.825 -0.6005  0.2712 -0.7083
 8278SOL     OW36557   0.717   2.109   2.685 -0.2413  0.1164 -0.6355
 8278SOL    HW136558   0.783   2.179   2.683  1.4072 -1.3184  0.8144
 8278SOL    HW236559   0.767   2.028   2.677 -1.7045 -1.0907  1.3970
 8279SOL     OW36560   9.489  11.404   0.042 -1.0076  0.5012  0.5614
 8279SOL    HW136561   9.501  11.363  -0.044 -0.2261  0.4212  0.6966
 8279SOL    HW236562   9.397  11.391   0.063 -1.0683 -0.0054  0.0003
 8280SOL     OW36563   6.278   5.310   6.353 -0.0550  0.1649  0.6439
 8280SOL    HW136564   6.247   5.311   6.263 -0.7260 -0.4043  0.8608
 8280SOL    HW236565   6.314   5.222   6.365  1.6406  0.7929  0.4104
 8281SOL     OW36566   8.198   4.888   5.856  0.6090  0.1461  0.0617
 8281SOL    HW136567   8.250   4.967   5.863  1.5153 -0.4867  0.6128
 8281SOL    HW236568   8.169   4.870   5.946  1.8413 -1.0745  0.2505
 8282SOL     OW36569   2.969   8.232   5.409 -0.6135  0.2487  0.2919
 8282SOL    HW136570   2.887   8.199   5.373 -0.7595  0.5510  0.3387
 8282SOL    HW236571   3.037   8.177   5.370 -0.3502  2.9493 -3.6259
 8283SOL     OW36572  11.527   0.520   0.459  0.1936 -0.9430 -0.2201
 8283SOL    HW136573  11.501   0.525   0.367  0.2762 -1.0391 -0.2483
 8283SOL    HW236574  11.571   0.435   0.467 -1.4379 -1.7861  0.3130
 8284SOL     OW36575  11.558   4.938   3.328 -0.5213 -0.1383  0.0017
 8284SOL    HW136576  11.464   4.946   3.315 -0.8924 -1.1423  1.7526
 8284SOL    HW236577  11.592   5.026   3.312 -1.4360 -0.1924 -2.6739
 8285SOL     OW36578   8.044   9.672  10.109 -0.9286 -0.0387 -0.1794
 8285SOL    HW136579   7.974   9.668  10.044 -1.9867 -0.3435  0.9535
 8285SOL    HW236580   8.028   9.753  10.157 -0.6730 -0.2429  0.2570
 8286SOL     OW36581   2.946   7.103   2.083 -0.6168  0.5992  0.3969
 8286SOL    HW136582   3.029   7.056   2.094 -0.5278  0.8144  0.6683
 8286SOL    HW236583   2.879   7.036   2.096 -0.5798  1.0428  3.8895
 8287SOL     OW36584   1.573   1.394   9.950  0.0031  0.1171  0.1644
 8287SOL    HW136585   1.521   1.360  10.023  2.3356  0.5562  2.1547
 8287SOL    HW236586   1.622   1.467   9.987  0.2581  1.2783 -2.2587
 8288SOL     OW36587  10.749   3.853   6.259  0.0434 -0.1096  0.2558
 8288SOL    HW136588  10.753   3.948   6.267 -0.6592  0.0030 -0.6229
 8288SOL    HW236589  10.816   3.831   6.194  0.0144 -0.1913  0.2540
 8289SOL     OW36590   8.000   7.010   8.435 -0.3407 -0.6271 -0.2335
 8289SOL    HW136591   8.055   7.080   8.400 -0.1614 -0.2800  0.7315
 8289SOL    HW236592   7.925   7.007   8.375 -0.6865  0.8565  0.1022
 8290SOL     OW36593   8.486   7.167   4.462 -0.5706 -0.1997 -0.3041
 8290SOL    HW136594   8.398   7.194   4.439 -0.2972 -1.0218 -2.5190
 8290SOL    HW236595   8.502   7.088   4.411  1.5335  0.0511 -0.1567
 8291SOL     OW36596  11.046   5.140   6.344  0.7457  0.3768 -0.0858
 8291SOL    HW136597  11.056   5.073   6.276  1.1737  0.6623 -0.3104
 8291SOL    HW236598  11.134   5.150   6.380  0.1697 -1.2421  1.9346
 8292SOL     OW36599  11.358   7.060  11.100 -0.4917  0.0635  0.3132
 8292SOL    HW136600  11.321   7.115  11.031 -1.4355 -0.7274  0.1635
 8292SOL    HW236601  11.307   7.082  11.178 -0.8628 -0.5691  0.2568
 8293SOL     OW36602  11.251   8.511   9.864  0.7918 -0.0278  0.1377
 8293SOL    HW136603  11.308   8.459   9.921  0.2968  0.5238  1.1574
 8293SOL    HW236604  11.168   8.515   9.911  0.3987  0.5235 -0.5894
 8294SOL     OW36605   4.756   7.951  11.142 -0.1974  0.0914 -0.1882
 8294SOL    HW136606   4.729   7.948  11.050  0.9020 -1.5221 -0.4932
 8294SOL    HW236607   4.851   7.944  11.139 -0.2224 -1.2941  1.0874
 8295SOL     OW36608   5.640   0.458   3.291 -0.0706  0.4780  0.0783
 8295SOL    HW136609   5.628   0.370   3.326  1.8631  0.6423  1.3109
 8295SOL    HW236610   5.576   0.512   3.338 -1.0902 -0.1783 -0.5041
 8296SOL     OW36611   4.632   4.287   5.812  0.1762 -0.5849  0.0491
 8296SOL    HW136612   4.638   4.214   5.874 -2.9145  1.7804  3.6119
 8296SOL    HW236613   4.562   4.261   5.751 -1.0998 -0.6206  1.4630
 8297SOL     OW36614   6.747   7.909   7.245  0.4695  0.1891 -0.7824
 8297SOL    HW136615   6.655   7.936   7.248  0.9201  2.4284 -3.3440
 8297SOL    HW236616   6.789   7.966   7.310  0.2195 -0.1598 -0.3046
 8298SOL     OW36617  10.701   4.601   8.158  0.0268 -0.1177  0.3491
 8298SOL    HW136618  10.738   4.688   8.174 -1.4951  0.3765  1.4228
 8298SOL    HW236619  10.613   4.618   8.125 -0.2134 -1.2703  0.3468
 8299SOL     OW36620   5.181   0.005  11.446  0.3935 -0.0590 -0.2744
 8299SOL    HW136621   5.141   0.083  11.486 -0.3456  0.0278 -1.1426
 8299SOL    HW236622   5.173  -0.063  11.513 -1.4701 -0.1102 -0.4744
 8300SOL     OW36623   6.018   8.991   9.951 -0.3673  0.2485 -0.3209
 8300SOL    HW136624   5.997   8.902   9.923 -1.7041  0.8017 -1.1457
 8300SOL    HW236625   6.080   8.979  10.024 -0.6003 -1.3427 -0.3523
 8301SOL     OW36626   3.443   2.745   3.718  0.2309 -0.1964 -0.9187
 8301SOL    HW136627   3.387   2.817   3.689 -0.5517 -0.3059  0.2572
 8301SOL    HW236628   3.400   2.711   3.796 -1.1293 -3.9448 -3.0282
 8302SOL     OW36629   2.180   6.963   3.980  0.2054 -0.1053  0.3164
 8302SOL    HW136630   2.249   6.897   3.986  0.2050 -0.3005 -1.3236
 8302SOL    HW236631   2.113   6.934   4.041 -0.8039 -2.9261 -1.8806
 8303SOL     OW36632   0.966   2.374   4.502  0.0506  0.3103 -0.0140
 8303SOL    HW136633   1.005   2.460   4.518 -0.1240  0.2035  1.1313
 8303SOL    HW236634   0.894   2.391   4.441 -0.6611  1.1732  1.0196
 8304SOL     OW36635   6.598   1.583   5.906  0.0289 -0.4673 -0.4001
 8304SOL    HW136636   6.512   1.605   5.873  0.0967 -0.7334 -0.7617
 8304SOL    HW236637   6.582   1.517   5.973 -0.1136  0.1249  0.1556
 8305SOL     OW36638   1.951   8.006   0.915 -0.2235 -0.4352 -0.1219
 8305SOL    HW136639   1.927   8.030   0.826 -0.8696 -0.0582  0.1385
 8305SOL    HW236640   1.939   7.911   0.918 -1.7421 -0.2659 -0.0134
 8306SOL     OW36641   0.846   6.529   4.625  0.8447 -0.4714 -0.1355
 8306SOL    HW136642   0.881   6.460   4.568  0.6774  0.6294 -1.6466
 8306SOL    HW236643   0.768   6.560   4.579  1.7383  1.7250 -0.2769
 8307SOL     OW36644   4.184   9.100  10.651  0.4648 -0.3570  0.1550
 8307SOL    HW136645   4.272   9.102  10.615  0.2623 -0.4796 -0.3483
 8307SOL    HW236646   4.144   9.021  10.614  0.9244 -1.6285  2.2089
 8308SOL     OW36647   6.315  10.396   2.707 -0.0502 -0.3279 -0.3793
 8308SOL    HW136648   6.279  10.483   2.723 -0.4735 -0.4936 -0.4265
 8308SOL    HW236649   6.400  10.413   2.666  0.1197  0.0674  0.1261
 8309SOL     OW36650   4.265  10.222   0.342  0.4025 -0.1027 -0.1015
 8309SOL    HW136651   4.228  10.261   0.422  0.9885 -0.2920  0.2723
 8309SOL    HW236652   4.358  10.243   0.346  0.4433 -0.1655 -0.7098
 8310SOL     OW36653   8.111   4.957   9.216 -0.4158 -0.0768 -0.0650
 8310SOL    HW136654   8.076   4.962   9.127 -0.3768 -1.5551 -0.1805
 8310SOL    HW236655   8.158   5.040   9.228 -0.7433  0.3007 -1.2737
 8311SOL     OW36656   5.300   2.208   5.906  0.1227  0.3641 -0.2800
 8311SOL    HW136657   5.247   2.161   5.970  0.2845  0.4579 -0.0745
 8311SOL    HW236658   5.367   2.253   5.959  2.1683 -1.9849 -0.6887
 8312SOL     OW36659   3.651   6.370   8.814  0.2194  0.0531  0.5043
 8312SOL    HW136660   3.584   6.309   8.845  0.5601 -1.2915 -1.2473
 8312SOL    HW236661   3.616   6.405   8.732  0.8479  0.8380  0.5558
 8313SOL     OW36662   5.668   5.654   1.238  0.0415 -0.5327  0.6299
 8313SOL    HW136663   5.704   5.724   1.184 -0.2841 -1.4703 -0.8360
 8313SOL    HW236664   5.583   5.687   1.266 -0.0466 -0.2917  0.0811
 8314SOL     OW36665   8.897   0.731   0.498  0.8391 -0.6367 -0.4179
 8314SOL    HW136666   8.868   0.711   0.409  0.3107 -1.8615 -0.0004
 8314SOL    HW236667   8.960   0.802   0.488 -0.9871  0.9123 -1.5252
 8315SOL     OW36668   4.448   2.369   3.150  0.5875 -0.7647 -0.0773
 8315SOL    HW136669   4.359   2.399   3.135  0.9405 -0.2615 -1.3293
 8315SOL    HW236670   4.497   2.399   3.073  1.9519 -0.5801  0.8103
 8316SOL     OW36671   6.572   4.081   8.819 -0.4871 -0.0704 -0.3490
 8316SOL    HW136672   6.522   4.108   8.896 -2.3899 -1.7150 -0.9391
 8316SOL    HW236673   6.608   3.995   8.842 -1.7610 -0.9602 -1.5368
 8317SOL     OW36674  11.049  10.420  11.063 -0.3804 -0.2754  0.0018
 8317SOL    HW136675  11.035  10.329  11.088  0.0401 -1.1537 -2.6116
 8317SOL    HW236676  10.962  10.459  11.060 -0.4057  0.5302  4.4102
 8318SOL     OW36677   7.079   0.750   5.607  0.7919  0.0445  0.2866
 8318SOL    HW136678   7.024   0.807   5.553 -0.1208  0.4483  1.6090
 8318SOL    HW236679   7.059   0.662   5.577 -0.4697  0.1959  0.6343
 8319SOL     OW36680   0.566  11.843   5.824 -0.4951 -0.5208  0.2632
 8319SOL    HW136681   0.542  11.904   5.894 -1.3518  0.3391 -0.7563
 8319SOL    HW236682   0.616  11.896   5.762  1.0533 -1.4841  0.6228
 8320SOL     OW36683  10.639   0.350   0.289  0.3000 -0.3171 -0.5555
 8320SOL    HW136684  10.645   0.293   0.366  1.0348  2.0039  1.1993
 8320SOL    HW236685  10.558   0.323   0.246 -0.2650 -1.5065  1.1528
 8321SOL     OW36686   7.365   3.853   9.536  0.2895  0.5887 -0.2040
 8321SOL    HW136687   7.298   3.889   9.478 -1.3548  0.5143  1.5286
 8321SOL    HW236688   7.433   3.920   9.539  0.5606  0.4699 -2.3702
 8322SOL     OW36689  10.768  10.090   9.143 -0.5954 -0.1350 -0.2944
 8322SOL    HW136690  10.777  10.005   9.187  0.9419 -1.2065 -2.4565
 8322SOL    HW236691  10.682  10.122   9.169 -2.1573 -3.3389 -0.9188
 8323SOL     OW36692   5.297   7.040   9.802 -0.0817  0.5277 -0.1037
 8323SOL    HW136693   5.369   7.041   9.740 -0.5463  0.1994 -0.6605
 8323SOL    HW236694   5.252   6.957   9.785 -0.4300  0.6044  0.4204
 8324SOL     OW36695   0.913   0.121  11.802 -0.1707  0.5120  0.3919
 8324SOL    HW136696   0.952   0.115  11.889 -0.2733  1.1608  0.4825
 8324SOL    HW236697   0.937   0.208  11.770  0.6015 -0.0234 -0.5851
 8325SOL     OW36698   8.178   6.099   0.559  0.5185  0.1162  0.2089
 8325SOL    HW136699   8.141   6.011   0.548  0.3103  0.4973 -2.9507
 8325SOL    HW236700   8.105   6.158   0.542  0.8217  0.9591  1.6481
 8326SOL     OW36701   6.988  10.653   8.139 -0.1340 -0.1199  0.1796
 8326SOL    HW136702   6.951  10.675   8.053 -0.8583 -0.8501  0.2902
 8326SOL    HW236703   7.060  10.716   8.151 -1.6294  1.6798  0.1759
 8327SOL     OW36704  11.740   7.559   8.364 -0.3814 -0.3742 -0.3370
 8327SOL    HW136705  11.778   7.646   8.355  1.6959 -1.0167  1.4668
 8327SOL    HW236706  11.674   7.569   8.433  0.5356 -0.3999  0.5607
 8328SOL     OW36707  11.928   7.019   8.480  0.1726 -0.0528  0.1454
 8328SOL    HW136708  11.914   7.077   8.555 -1.0462  1.3786 -1.1114
 8328SOL    HW236709  11.985   7.069   8.421 -1.8254  0.4799 -1.4776
 8329SOL     OW36710   6.483   0.506   1.589 -0.1734  0.8099  0.2524
 8329SOL    HW136711   6.521   0.508   1.677  0.4916  0.0583 -0.0025
 8329SOL    HW236712   6.439   0.421   1.585  1.0241  0.2000 -0.6182
 8330SOL     OW36713   6.283   8.092   9.659 -0.2546  0.1972  0.0229
 8330SOL    HW136714   6.363   8.068   9.705 -0.8638 -3.8787 -0.6419
 8330SOL    HW236715   6.222   8.117   9.729 -0.6276 -4.1862  1.6339
 8331SOL     OW36716   0.408   8.740  11.024  0.1825  0.5744 -0.1136
 8331SOL    HW136717   0.397   8.812  11.087 -1.3357 -0.3949  0.8107
 8331SOL    HW236718   0.439   8.782  10.944  0.4057  2.0963  0.7301
 8332SOL     OW36719   2.866   9.203   6.204  0.0137 -0.2386  0.2035
 8332SOL    HW136720   2.911   9.138   6.150  0.2979 -0.1926  0.3876
 8332SOL    HW236721   2.815   9.255   6.141 -0.2305 -0.6498  0.0586
 8333SOL     OW36722   7.869   8.412   1.791 -0.4419 -0.3079  0.2432
 8333SOL    HW136723   7.786   8.441   1.827 -0.2322  0.2089  0.3229
 8333SOL    HW236724   7.891   8.333   1.842 -1.3866 -1.0684 -0.4971
 8334SOL     OW36725   8.794   6.745   5.295 -0.3719 -0.4871  0.2470
 8334SOL    HW136726   8.793   6.834   5.329 -0.4126 -1.1058  1.9699
 8334SOL    HW236727   8.873   6.706   5.333 -0.2796 -1.1494 -0.6045
 8335SOL     OW36728  10.294   1.545   0.328 -0.4954 -0.0262 -0.2948
 8335SOL    HW136729  10.215   1.553   0.275  0.0532  1.8500 -0.8774
 8335SOL    HW236730  10.366   1.559   0.267  0.3127 -1.3092  0.3049
 8336SOL     OW36731   3.411   2.008   7.784  0.2532  0.1048 -0.5298
 8336SOL    HW136732   3.420   1.916   7.808 -0.3630  0.4665  1.1920
 8336SOL    HW236733   3.325   2.013   7.740 -0.5387  0.1432  0.9733
 8337SOL     OW36734  10.465   1.798   0.336 -1.0926 -0.0739  0.0472
 8337SOL    HW136735  10.523   1.776   0.264  0.3780 -1.3643  1.5515
 8337SOL    HW236736  10.393   1.847   0.295  0.0475 -0.1244 -2.1458
 8338SOL     OW36737   3.691   4.670  10.451  0.6115 -0.0108  0.5678
 8338SOL    HW136738   3.625   4.713  10.396  2.0993  0.2960 -1.0646
 8338SOL    HW236739   3.773   4.713  10.427  1.5664 -1.0958  1.7902
 8339SOL     OW36740   7.990  10.882   7.772 -0.1809 -0.7462  0.3149
 8339SOL    HW136741   7.919  10.839   7.820  0.7192 -1.4168  1.1059
 8339SOL    HW236742   8.070  10.848   7.814  0.5883  0.3923 -0.1973
 8340SOL     OW36743   2.355  10.030   9.147  0.5252  0.2183  0.2861
 8340SOL    HW136744   2.337  10.109   9.095 -0.5267  0.3143  0.7918
 8340SOL    HW236745   2.351  10.059   9.238 -3.2242 -1.0042  0.6753
 8341SOL     OW36746   1.683   8.432   3.913  0.2277  0.3679  0.0981
 8341SOL    HW136747   1.627   8.366   3.954  0.4682  0.4561  0.5811
 8341SOL    HW236748   1.772   8.402   3.931  0.3496  1.0985  0.8032
 8342SOL     OW36749   5.605   1.987   1.086  0.3900 -0.1052  0.3905
 8342SOL    HW136750   5.659   1.983   1.007 -0.9451 -3.0866 -0.5009
 8342SOL    HW236751   5.518   2.009   1.054  0.3401  1.3387  1.4226
 8343SOL     OW36752   6.399   2.051   9.307 -0.1277 -0.1203  0.3742
 8343SOL    HW136753   6.330   2.077   9.368 -2.1723 -1.3084 -1.2910
 8343SOL    HW236754   6.371   2.085   9.222  1.1613 -0.9727 -0.4337
 8344SOL     OW36755  11.007  10.177  11.191  0.3440 -0.5130 -0.1823
 8344SOL    HW136756  11.011  10.092  11.146  0.7933 -0.3953 -0.3727
 8344SOL    HW236757  10.915  10.186  11.216  0.2549 -0.9719 -0.3255
 8345SOL     OW36758   9.314   8.601   8.049 -0.0782 -0.1199 -0.2885
 8345SOL    HW136759   9.252   8.529   8.037 -0.1825  0.0075 -0.5154
 8345SOL    HW236760   9.310   8.620   8.143  1.4265 -1.7329  0.1673
 8346SOL     OW36761  11.646   6.992   3.180 -0.4727  0.0972 -0.2083
 8346SOL    HW136762  11.697   7.037   3.248  0.1801 -0.2152 -0.4851
 8346SOL    HW236763  11.554   7.005   3.206 -0.2482  0.5146  0.3901
 8347SOL     OW36764   0.908   2.757   8.464  0.6170 -0.1411  0.1188
 8347SOL    HW136765   0.821   2.791   8.484 -0.7403 -4.1163  2.1422
 8347SOL    HW236766   0.948   2.740   8.549  1.7454 -1.9587 -0.6984
 8348SOL     OW36767   5.151   7.510   2.077 -0.3383 -0.2020 -0.3725
 8348SOL    HW136768   5.152   7.567   2.000 -0.5104 -0.2164 -0.3873
 8348SOL    HW236769   5.211   7.440   2.056  0.0464  0.0910 -0.2638
 8349SOL     OW36770   0.598   3.650   5.116 -0.5003 -0.0464  0.2535
 8349SOL    HW136771   0.663   3.590   5.080 -0.1893  1.3556 -1.7248
 8349SOL    HW236772   0.636   3.737   5.103 -2.3445  0.7545 -0.0907
 8350SOL     OW36773  11.268  10.122   5.280 -1.0936  0.4354  0.3078
 8350SOL    HW136774  11.189  10.174   5.266 -0.6012  0.6179 -2.3448
 8350SOL    HW236775  11.269  10.061   5.207  0.6132 -0.3598  0.9540
 8351SOL     OW36776   8.021  10.570   5.671  0.0837  0.0742  0.0123
 8351SOL    HW136777   8.051  10.484   5.643  0.2525 -0.8173  2.6856
 8351SOL    HW236778   8.045  10.575   5.764 -2.7829  1.6848  0.7949
 8352SOL     OW36779   1.499   1.215   6.007  0.6422 -0.2028  0.0221
 8352SOL    HW136780   1.549   1.291   6.040  0.9013 -0.2346 -0.2957
 8352SOL    HW236781   1.408   1.238   6.024  0.7864 -0.4571  1.2817
 8353SOL     OW36782   9.305   6.024   8.216  0.5574  0.1424  0.1702
 8353SOL    HW136783   9.278   5.933   8.228  1.4622 -0.0906  0.5361
 8353SOL    HW236784   9.372   6.038   8.283  0.2090  1.1746  0.3103
 8354SOL     OW36785   6.373   4.012  11.414  0.6807  0.0727 -0.7688
 8354SOL    HW136786   6.304   3.946  11.418 -0.1237  0.7990 -2.2143
 8354SOL    HW236787   6.329   4.092  11.387  1.9014  0.8480 -0.5437
 8355SOL     OW36788   2.973   4.306   1.394 -1.0385  0.6084 -1.0366
 8355SOL    HW136789   3.019   4.342   1.318  1.4356  0.2486  0.2068
 8355SOL    HW236790   2.924   4.232   1.359  1.1551 -0.4177 -2.1015
 8356SOL     OW36791   3.687   9.717   7.593 -0.3628  0.1571  0.1944
 8356SOL    HW136792   3.766   9.739   7.642 -0.5616  0.3601  0.4339
 8356SOL    HW236793   3.627   9.789   7.612 -0.1851  0.6263 -0.9587
 8357SOL     OW36794   5.297  10.304   3.367 -0.4767 -0.2215 -0.4229
 8357SOL    HW136795   5.230  10.360   3.406 -0.0512  1.4952 -2.0297
 8357SOL    HW236796   5.375  10.320   3.419 -0.8240 -0.8396  0.3165
 8358SOL     OW36797  10.272   1.212   1.098  1.3754  0.5656 -0.3178
 8358SOL    HW136798  10.349   1.155   1.108  1.4019  0.6698  0.0986
 8358SOL    HW236799  10.301   1.280   1.037  2.5289  2.1391  1.8348
 8359SOL     OW36800   2.801   8.372   3.734 -0.0483 -0.2837  0.5367
 8359SOL    HW136801   2.824   8.463   3.713 -1.0819 -0.2731 -0.6911
 8359SOL    HW236802   2.734   8.349   3.669  1.0215 -2.3069  0.0694
 8360SOL     OW36803   8.425   0.740   2.131 -0.2470  0.1456 -0.2090
 8360SOL    HW136804   8.388   0.657   2.163  0.3997 -0.6367 -1.4161
 8360SOL    HW236805   8.366   0.767   2.061  1.0399 -0.7801 -1.7122
 8361SOL     OW36806   8.541  10.321   6.189 -0.4800  0.0912 -0.3632
 8361SOL    HW136807   8.461  10.360   6.223  0.6221  1.5847  0.6277
 8361SOL    HW236808   8.594  10.395   6.158  0.4793 -0.8642 -1.1065
 8362SOL     OW36809  11.508   1.409   5.767  0.1687  0.2934  0.2700
 8362SOL    HW136810  11.567   1.340   5.798 -0.6803 -0.8369 -0.5266
 8362SOL    HW236811  11.425   1.365   5.754 -1.1195  2.0076  2.0928
 8363SOL     OW36812   3.094   9.404   6.546 -0.3196  0.0772  0.5522
 8363SOL    HW136813   3.077   9.495   6.571  1.2863  0.6912 -0.3994
 8363SOL    HW236814   3.075   9.401   6.452  0.7059 -0.2486  0.3366
 8364SOL     OW36815   8.179   2.097   1.420  0.4864  0.6196 -0.2209
 8364SOL    HW136816   8.117   2.030   1.391 -0.3470  0.2266  2.2545
 8364SOL    HW236817   8.124   2.173   1.441  0.8304  0.4468  1.4915
 8365SOL     OW36818   9.975   8.230  10.776 -0.6865  0.1019  0.3614
 8365SOL    HW136819   9.995   8.322  10.791  0.6115 -0.0894 -0.1269
 8365SOL    HW236820   9.884   8.220  10.807  0.0732  0.8840  3.1437
 8366SOL     OW36821   2.800   6.570   9.406  0.0247 -0.2167 -0.0827
 8366SOL    HW136822   2.809   6.665   9.399  0.6779 -0.3430 -1.1117
 8366SOL    HW236823   2.722   6.550   9.355  0.7618 -0.3832 -1.1725
 8367SOL     OW36824  11.756  10.454  10.447  0.4764 -0.1441  0.2499
 8367SOL    HW136825  11.755  10.542  10.410 -1.0357 -0.9831 -1.9512
 8367SOL    HW236826  11.841  10.418  10.421 -0.3737 -0.5551 -2.2801
 8368SOL     OW36827   7.029  11.334   1.518  0.0647 -0.5925 -0.7024
 8368SOL    HW136828   6.969  11.360   1.449  0.9222  2.1142 -0.5198
 8368SOL    HW236829   7.098  11.400   1.518 -0.2909  0.0622  3.2290
 8369SOL     OW36830   3.957   4.374   9.277  0.1281 -0.6095 -0.5642
 8369SOL    HW136831   3.890   4.321   9.319 -1.0345  0.8321 -0.5330
 8369SOL    HW236832   3.918   4.461   9.269  1.2404 -0.2321 -2.3943
 8370SOL     OW36833   1.517   8.656   2.209 -0.2835  0.4180  0.8177
 8370SOL    HW136834   1.551   8.575   2.246  1.5418  0.4206 -0.6643
 8370SOL    HW236835   1.529   8.721   2.278 -1.3524 -0.4484  1.8609
 8371SOL     OW36836  10.813   1.348   8.383 -0.1151 -0.5368  0.2463
 8371SOL    HW136837  10.854   1.266   8.355  0.6743 -0.2946  0.6709
 8371SOL    HW236838  10.846   1.363   8.471 -1.0829 -0.3010  0.5851
 8372SOL     OW36839   7.690   1.655   0.192 -0.4387 -0.2127 -0.1666
 8372SOL    HW136840   7.627   1.629   0.259 -1.1710  0.2153 -0.6816
 8372SOL    HW236841   7.723   1.573   0.157 -1.9181 -0.4740 -1.0169
 8373SOL     OW36842   0.479   7.646   5.629  0.2948 -0.0390 -0.0865
 8373SOL    HW136843   0.563   7.653   5.583  1.0855  0.4290  1.3912
 8373SOL    HW236844   0.450   7.736   5.640 -0.6500 -0.2065 -0.9582
 8374SOL     OW36845   8.355  10.477   8.213 -0.1690  0.0815  0.7877
 8374SOL    HW136846   8.398  10.460   8.296  1.5473 -0.6017 -0.1796
 8374SOL    HW236847   8.397  10.417   8.151 -1.9089  0.0439 -0.4287
 8375SOL     OW36848   2.300   7.999  10.138 -0.0063 -0.1739 -0.4019
 8375SOL    HW136849   2.289   7.909  10.108  0.6399 -0.2953 -0.2902
 8375SOL    HW236850   2.393   8.019  10.122 -0.1051  0.4122 -0.2728
 8376SOL     OW36851   9.784   4.297   0.973  0.4307  0.2517  0.5593
 8376SOL    HW136852   9.855   4.313   0.912 -0.3489 -0.9999 -0.7299
 8376SOL    HW236853   9.814   4.335   1.056  0.8001  3.5426 -0.9523
 8377SOL     OW36854  11.536   0.443  10.971  0.0460  0.0345 -0.2684
 8377SOL    HW136855  11.464   0.401  11.019  0.5642 -1.4869 -0.7439
 8377SOL    HW236856  11.493   0.505  10.912 -0.7762  0.0884  0.3717
 8378SOL     OW36857   6.456   3.900   3.605  0.1390 -0.2832  0.1685
 8378SOL    HW136858   6.439   3.922   3.514  1.0238 -2.2895 -0.5294
 8378SOL    HW236859   6.384   3.841   3.630 -0.1079  0.2605  0.7991
 8379SOL     OW36860   8.318  11.750   2.623  0.6070 -0.1128  0.4014
 8379SOL    HW136861   8.355  11.804   2.693  1.0623 -1.1019  0.9568
 8379SOL    HW236862   8.358  11.783   2.543 -0.1387  1.2284  0.5617
 8380SOL     OW36863   1.898   3.108   1.193  0.3791 -0.3525 -0.3451
 8380SOL    HW136864   1.896   3.200   1.168  0.0430 -0.6009 -1.2808
 8380SOL    HW236865   1.807   3.086   1.213  0.7538  0.0921  2.1824
 8381SOL     OW36866   8.487   9.581   5.229 -0.4221  0.0399  0.0665
 8381SOL    HW136867   8.395   9.586   5.201 -1.2513 -0.7260  2.4057
 8381SOL    HW236868   8.535   9.557   5.149 -1.9678  2.1256 -1.6025
 8382SOL     OW36869   3.120   1.154   1.476 -0.1240  0.7070  0.6732
 8382SOL    HW136870   3.186   1.091   1.446  1.0815  2.2251 -0.0199
 8382SOL    HW236871   3.117   1.143   1.571 -0.3221 -0.7343  0.5104
 8383SOL     OW36872   5.489   1.303  10.376  0.1467  0.6114  0.1469
 8383SOL    HW136873   5.459   1.342  10.458  1.9547  0.2436  1.0186
 8383SOL    HW236874   5.571   1.348  10.357 -0.6655  1.3316 -1.9796
 8384SOL     OW36875   1.325  10.666   5.633 -0.1045 -0.1085  0.1777
 8384SOL    HW136876   1.417  10.690   5.637 -0.0620 -0.1855 -0.3061
 8384SOL    HW236877   1.325  10.576   5.599 -0.2641 -0.7901  1.8580
 8385SOL     OW36878   9.777   1.177   7.249  0.1126 -0.1587 -0.2427
 8385SOL    HW136879   9.711   1.230   7.205  0.9154  0.0797 -1.2047
 8385SOL    HW236880   9.750   1.087   7.233 -0.5720 -0.0598  0.3161
 8386SOL     OW36881   3.371   7.069   9.872  0.0773  0.7020  0.3547
 8386SOL    HW136882   3.395   7.023   9.953 -0.1191  0.0694  0.0546
 8386SOL    HW236883   3.381   7.003   9.803  0.5385  1.3200 -0.1848
 8387SOL     OW36884   6.764   9.130   6.858  0.0766 -0.3401 -0.2967
 8387SOL    HW136885   6.720   9.215   6.851 -1.3732 -1.1571 -1.9515
 8387SOL    HW236886   6.709   9.070   6.808  0.5316 -2.4994  1.6092
 8388SOL     OW36887   7.598  10.184   0.983  0.0575 -0.3034 -0.2720
 8388SOL    HW136888   7.622  10.158   1.072  1.4008 -0.8186 -0.7612
 8388SOL    HW236889   7.614  10.279   0.981 -0.6321 -0.1685  0.2188
 8389SOL     OW36890   2.525  11.810   0.142  0.3865  0.2309  0.2210
 8389SOL    HW136891   2.459  11.770   0.084  2.5934  2.1419 -4.0836
 8389SOL    HW236892   2.503  11.903   0.143  1.7356  0.5620  0.5175
 8390SOL     OW36893   0.057   4.218   9.239 -0.6051 -0.0891 -0.1503
 8390SOL    HW136894   0.052   4.210   9.144 -1.4308 -0.7208 -0.0603
 8390SOL    HW236895   0.139   4.175   9.263  1.1126  2.5640 -0.8189
 8391SOL     OW36896   1.979   7.489   7.884 -0.2643  0.0410  0.4756
 8391SOL    HW136897   2.014   7.549   7.819  0.1086  0.5396  1.1278
 8391SOL    HW236898   1.974   7.540   7.965 -0.0807 -0.7544  1.0082
 8392SOL     OW36899   1.691   7.755   1.379  0.1447 -0.7013  0.2279
 8392SOL    HW136900   1.744   7.834   1.387  0.9836 -1.1521 -0.6387
 8392SOL    HW236901   1.747   7.686   1.415  0.8036 -1.4387 -2.0677
 8393SOL     OW36902   7.136   2.498   3.833 -0.1064  0.0035  0.2577
 8393SOL    HW136903   7.126   2.593   3.832 -1.3948 -0.1106  0.5256
 8393SOL    HW236904   7.072   2.466   3.770 -0.1388 -0.7235  0.6424
 8394SOL     OW36905   3.863  11.700   6.287  0.3392  0.3160 -0.4767
 8394SOL    HW136906   3.823  11.775   6.244  0.6441  0.4900 -0.4547
 8394SOL    HW236907   3.827  11.624   6.242 -1.1669  0.4119  0.4916
 8395SOL     OW36908   2.975  10.643   3.202  0.1909 -0.3799  0.1370
 8395SOL    HW136909   2.919  10.573   3.236 -0.1006 -0.1322  0.1721
 8395SOL    HW236910   3.019  10.604   3.127  0.9176 -0.9702  0.8406
 8396SOL     OW36911   2.569   1.732   5.769 -0.0387 -0.0957  0.3208
 8396SOL    HW136912   2.586   1.812   5.818  0.3351 -0.0074  0.0560
 8396SOL    HW236913   2.486   1.748   5.724  0.2701  0.3385 -0.1128
 8397SOL     OW36914   7.479   1.329   7.784  0.6486 -0.1681  0.9920
 8397SOL    HW136915   7.497   1.328   7.878  0.8009 -1.3509  0.9659
 8397SOL    HW236916   7.502   1.241   7.754  0.0516  0.0077 -0.0480
 8398SOL     OW36917   5.844  10.652   9.040  0.0535  0.1035 -0.3187
 8398SOL    HW136918   5.833  10.734   9.089 -0.0662  0.0063 -0.1843
 8398SOL    HW236919   5.936  10.654   9.011  0.3989 -0.2880  0.7232
 8399SOL     OW36920  10.318  10.175   4.005  0.0203 -0.3681 -0.1528
 8399SOL    HW136921  10.335  10.235   3.933 -0.5370  0.6545  0.5404
 8399SOL    HW236922  10.366  10.095   3.982 -0.5374 -0.2422 -1.8677
 8400SOL     OW36923   2.053  11.092  10.410 -0.2254  0.1360 -0.3174
 8400SOL    HW136924   2.132  11.125  10.368  0.4270  0.7025  1.2814
 8400SOL    HW236925   2.078  11.005  10.442 -0.4013  0.1112 -0.2446
 8401SOL     OW36926   5.816   1.518   1.771  0.6982  0.1253 -0.1623
 8401SOL    HW136927   5.866   1.529   1.690 -0.4318 -0.1115 -0.9174
 8401SOL    HW236928   5.759   1.443   1.755 -0.0200  0.4835  0.5972
 8402SOL     OW36929  11.784   2.381   6.302  0.0991 -0.2762  0.1154
 8402SOL    HW136930  11.832   2.334   6.370  1.3889  1.0715  0.1753
 8402SOL    HW236931  11.694   2.384   6.335  0.0077 -2.3850  0.2493
 8403SOL     OW36932  10.639   0.769   2.592 -0.3224 -0.3237 -0.0536
 8403SOL    HW136933  10.693   0.718   2.531 -1.5948 -1.9882  0.1624
 8403SOL    HW236934  10.701   0.803   2.656  0.9080  0.5880 -1.6252
 8404SOL     OW36935   1.728   5.237   9.308 -0.1790  0.1955  0.4171
 8404SOL    HW136936   1.703   5.329   9.305  0.6746  0.4215 -0.0425
 8404SOL    HW236937   1.763   5.218   9.221  0.3957 -0.3403  0.7514
 8405SOL     OW36938   2.383   4.231   2.694  0.0847 -0.3583  0.5552
 8405SOL    HW136939   2.429   4.222   2.777 -0.1624 -0.0967  0.7215
 8405SOL    HW236940   2.332   4.150   2.686  0.1028 -0.3797  0.6596
 8406SOL     OW36941   4.311   7.866   7.303 -0.3873 -0.2306  0.3402
 8406SOL    HW136942   4.387   7.810   7.286 -0.4250 -0.8989  2.1182
 8406SOL    HW236943   4.254   7.852   7.228 -0.4005 -2.6483  0.7026
 8407SOL     OW36944  11.790   6.571  11.403 -0.5057  0.6830  0.5627
 8407SOL    HW136945  11.853   6.508  11.439  0.3762  0.9680 -0.4316
 8407SOL    HW236946  11.709   6.554  11.451 -0.2555 -1.1113  0.4093
 8408SOL     OW36947   4.598   6.826   5.205  0.0301  0.2240 -0.5677
 8408SOL    HW136948   4.519   6.838   5.258 -0.6445  0.9177 -1.6964
 8408SOL    HW236949   4.577   6.753   5.148  0.9468 -0.8533  0.4270
 8409SOL     OW36950   6.026   2.188   5.548 -0.2138 -0.2227 -0.1495
 8409SOL    HW136951   5.986   2.225   5.469  1.7153 -0.8692 -1.4987
 8409SOL    HW236952   5.954   2.185   5.612 -2.4755 -1.8723 -2.5670
 8410SOL     OW36953   0.123  10.608   4.525  0.0921 -0.0922  0.1186
 8410SOL    HW136954   0.069  10.580   4.451 -0.1705  0.3538  0.1413
 8410SOL    HW236955   0.210  10.572   4.505 -0.4035 -1.6200  0.5478
 8411SOL     OW36956   6.677  11.386   4.328  0.2765  0.7775  0.5332
 8411SOL    HW136957   6.644  11.317   4.385  0.5931 -0.0280 -0.2248
 8411SOL    HW236958   6.772  11.385   4.341  0.7717 -1.5231 -2.1462
 8412SOL     OW36959   5.129   2.681   0.234 -0.4411  0.0174  0.1163
 8412SOL    HW136960   5.038   2.674   0.205 -0.6018 -0.7070  0.7757
 8412SOL    HW236961   5.180   2.639   0.165 -0.4086  1.9637 -1.1309
 8413SOL     OW36962   1.952  10.871  10.104  0.2760  0.4116  0.4412
 8413SOL    HW136963   1.916  10.865  10.015  1.2904 -0.4743  0.0596
 8413SOL    HW236964   1.875  10.870  10.161 -0.3969  1.0305 -0.4203
 8414SOL     OW36965  10.562   2.372   8.425  0.1622  0.0980 -0.4935
 8414SOL    HW136966  10.495   2.315   8.387  0.5844 -2.1227  1.8247
 8414SOL    HW236967  10.644   2.324   8.413  0.7301  0.8250  0.3703
 8415SOL     OW36968   6.262   4.263  10.692  0.1296  0.1691 -0.1416
 8415SOL    HW136969   6.320   4.259  10.769  1.9921  2.5142 -1.2893
 8415SOL    HW236970   6.175   4.243  10.726  1.2575 -1.3452  2.0862
 8416SOL     OW36971   2.843   4.077  11.212  0.2867  0.1494  0.3602
 8416SOL    HW136972   2.858   4.082  11.306 -1.7960  0.3276  0.7238
 8416SOL    HW236973   2.777   4.144  11.194  0.1186 -0.3670 -1.0947
 8417SOL     OW36974  10.119   5.964   5.852 -0.1766  0.1241 -0.1639
 8417SOL    HW136975  10.056   5.998   5.915  1.4614  2.2638  0.4525
 8417SOL    HW236976  10.093   6.002   5.769  0.2866  1.0798  0.1071
 8418SOL     OW36977  11.069   4.404   7.551 -0.2128  0.0121  0.0904
 8418SOL    HW136978  10.979   4.387   7.525 -0.0506  0.6470 -0.9557
 8418SOL    HW236979  11.062   4.447   7.636 -0.9052  0.0883  0.0000
 8419SOL     OW36980   0.878   3.922   8.565 -0.1971  0.3674  0.4885
 8419SOL    HW136981   0.850   3.888   8.650  0.6172  1.0568  1.0539
 8419SOL    HW236982   0.798   3.955   8.525 -0.6365 -0.2149  0.8635
 8420SOL     OW36983   7.395   7.123   7.861 -0.0494 -0.6934  0.4741
 8420SOL    HW136984   7.324   7.084   7.809 -0.0306 -1.7737  1.2387
 8420SOL    HW236985   7.351   7.187   7.916 -0.5702 -1.8485  1.4504
 8421SOL     OW36986   4.328   9.856  11.118 -0.3935 -0.1500 -0.1438
 8421SOL    HW136987   4.379   9.806  11.054 -0.9135  1.0635 -1.5787
 8421SOL    HW236988   4.245   9.875  11.073 -1.7104 -1.1262  1.7242
 8422SOL     OW36989   8.819   1.080   8.626 -0.3309  0.2959 -0.4367
 8422SOL    HW136990   8.867   1.085   8.709 -0.1015 -2.3932 -0.3270
 8422SOL    HW236991   8.822   1.169   8.591 -1.4342  1.8448  2.9625
 8423SOL     OW36992   4.350  10.642  10.834  0.3936  0.3329 -0.2262
 8423SOL    HW136993   4.366  10.736  10.846  0.9872  0.0284  1.6200
 8423SOL    HW236994   4.268  10.625  10.880  0.5737 -0.1651 -0.0859
 8424SOL     OW36995   5.087   5.488   4.080 -0.2113  0.9364 -0.2340
 8424SOL    HW136996   5.058   5.397   4.067  1.3276  0.4007 -0.2006
 8424SOL    HW236997   5.079   5.528   3.993 -0.0540  0.4947 -0.4595
 8425SOL     OW36998   6.897   5.795   6.805 -0.4515 -0.0077 -0.1599
 8425SOL    HW136999   6.858   5.723   6.854 -0.9277  0.5321  0.2680
 8425SOL    HW237000   6.972   5.821   6.857 -0.9503  0.5578  0.2903
 8426SOL     OW37001   2.217   9.006   3.906  0.6399 -0.2841 -0.3828
 8426SOL    HW137002   2.180   8.928   3.949 -1.3830  0.7809 -0.0583
 8426SOL    HW237003   2.267   8.971   3.832 -0.2033 -1.8809 -0.2518
 8427SOL     OW37004   9.560   4.202   4.025  0.3009  0.1532 -0.2586
 8427SOL    HW137005   9.552   4.210   3.930  2.2148  0.2796 -0.4643
 8427SOL    HW237006   9.554   4.292   4.057  0.7522  0.2409 -0.3989
 8428SOL     OW37007   9.154   1.703   7.067  0.4160  0.0235  0.1645
 8428SOL    HW137008   9.131   1.753   7.145 -1.0004 -0.1605 -0.1020
 8428SOL    HW237009   9.088   1.727   7.002  1.5974  0.2269 -1.0187
 8429SOL     OW37010   4.517   0.438   2.554 -0.6806  0.0558  0.0710
 8429SOL    HW137011   4.552   0.527   2.559 -3.3246  1.3168 -1.6756
 8429SOL    HW237012   4.528   0.402   2.642 -1.0964  2.7315  1.2860
 8430SOL     OW37013   1.480   3.796   2.961 -0.2478  1.2612  0.6573
 8430SOL    HW137014   1.563   3.753   2.941 -0.2494  1.2842  0.6006
 8430SOL    HW237015   1.415   3.743   2.914 -0.1014  2.1866 -0.6485
 8431SOL     OW37016   2.634   4.944   9.538  0.2007 -0.1280  0.0057
 8431SOL    HW137017   2.602   4.895   9.462  2.0072 -1.2606 -0.0877
 8431SOL    HW237018   2.691   5.011   9.501  1.6304 -1.1147  0.3523
 8432SOL     OW37019   3.212   4.740   9.871  0.7206 -0.1315 -0.0906
 8432SOL    HW137020   3.255   4.823   9.850  0.3801 -0.1861 -1.0373
 8432SOL    HW237021   3.275   4.673   9.846 -0.1606 -0.2385 -2.2150
 8433SOL     OW37022   9.746   5.946  10.560  0.2619 -0.1438  0.1832
 8433SOL    HW137023   9.812   5.986  10.617 -0.8027 -0.5559  1.7570
 8433SOL    HW237024   9.745   6.002  10.482  1.7422  0.4477  0.5612
 8434SOL     OW37025   4.883   2.356  11.106  0.3915 -0.0597 -0.4066
 8434SOL    HW137026   4.915   2.430  11.055 -0.6276  0.3356 -0.4889
 8434SOL    HW237027   4.897   2.381  11.197 -0.6574  0.5744 -0.4109
 8435SOL     OW37028   4.085   2.840   1.651 -0.6885  0.1011  0.1842
 8435SOL    HW137029   4.046   2.768   1.700 -1.2616 -0.6418 -1.2845
 8435SOL    HW237030   4.026   2.853   1.576  1.8219 -1.0938 -2.1756
 8436SOL     OW37031   5.729   5.847   9.714 -0.0533  0.6478  0.3924
 8436SOL    HW137032   5.806   5.805   9.676 -1.7957 -1.5045 -1.0118
 8436SOL    HW237033   5.683   5.886   9.639 -0.3320  1.9755  1.2143
 8437SOL     OW37034   6.239   0.874   8.918  0.2507 -0.0776 -0.2605
 8437SOL    HW137035   6.206   0.808   8.979  2.1187 -0.2751  0.6134
 8437SOL    HW237036   6.296   0.825   8.858 -0.0808  0.4071 -0.9796
 8438SOL     OW37037   8.540   2.065   6.834  0.0505  0.4873  0.5160
 8438SOL    HW137038   8.619   2.066   6.888 -0.1461  0.6725  0.8056
 8438SOL    HW237039   8.565   2.111   6.754  0.5089 -0.2864  0.2089
 8439SOL     OW37040   9.149   1.371   9.275  0.0835 -0.8299  0.1491
 8439SOL    HW137041   9.161   1.277   9.285 -2.3928 -1.0182  2.9376
 8439SOL    HW237042   9.175   1.408   9.360 -2.1524  0.5117  0.3427
 8440SOL     OW37043  11.371   0.414   5.029  0.6311 -0.2304  0.5271
 8440SOL    HW137044  11.277   0.404   5.018 -0.0802  0.5443  4.3571
 8440SOL    HW237045  11.410   0.352   4.968 -2.4224 -2.1730  0.3616
 8441SOL     OW37046   4.027  11.057   2.092  0.0897 -0.8777 -0.6391
 8441SOL    HW137047   4.017  11.050   1.997 -2.8018  0.2620 -0.5267
 8441SOL    HW237048   4.018  10.967   2.124  0.0079 -1.1338 -1.3717
 8442SOL     OW37049   7.621   0.143   3.732 -0.0673 -0.1862  0.4951
 8442SOL    HW137050   7.583   0.131   3.819 -0.8008 -1.6284  0.0145
 8442SOL    HW237051   7.548   0.177   3.679 -0.3900 -1.7638 -0.1347
 8443SOL     OW37052  10.450   3.906   1.583 -0.1792  0.1713 -0.1173
 8443SOL    HW137053  10.379   3.917   1.647  0.1325 -0.1422  0.2903
 8443SOL    HW237054  10.509   3.979   1.601 -0.8791  1.0053 -1.1109
 8444SOL     OW37055  10.622   6.170   8.600  0.2627 -0.6583 -0.5641
 8444SOL    HW137056  10.535   6.190   8.634  0.7853  0.7393  0.0676
 8444SOL    HW237057  10.610   6.161   8.506 -0.8176 -2.1568 -0.3207
 8445SOL     OW37058   8.845  11.896   0.458  0.1648 -0.0780 -0.1467
 8445SOL    HW137059   8.907  11.962   0.488 -0.9458  0.9705 -0.0756
 8445SOL    HW237060   8.821  11.847   0.536  0.6095 -0.2431 -0.1114
 8446SOL     OW37061   7.471   1.547   3.851  0.2959  0.1138 -0.1570
 8446SOL    HW137062   7.551   1.498   3.836  0.2573  0.3892 -1.4498
 8446SOL    HW237063   7.418   1.530   3.773 -0.9549 -0.1442  0.7181
 8447SOL     OW37064   9.101   0.675   5.409  0.0128  0.0933  0.0183
 8447SOL    HW137065   9.036   0.741   5.383 -1.1637 -1.3145 -0.7305
 8447SOL    HW237066   9.059   0.591   5.390  1.5412 -0.8852  0.8021
 8448SOL     OW37067   0.095   4.577   9.514 -0.3324 -0.0969  0.3403
 8448SOL    HW137068   0.040   4.646   9.550 -0.8752 -1.9632  3.4038
 8448SOL    HW237069   0.183   4.597   9.545  0.3734  1.3597 -2.2606
 8449SOL     OW37070   1.363   7.210   5.031  0.2343  0.3351  0.4687
 8449SOL    HW137071   1.322   7.219   4.945  2.3260 -0.0847 -0.6444
 8449SOL    HW237072   1.384   7.300   5.057  0.6156  0.3813  0.0043
 8450SOL     OW37073   4.743  11.346   7.747 -0.4545  0.0945 -0.1340
 8450SOL    HW137074   4.704  11.269   7.705 -1.4332  0.8728 -0.7007
 8450SOL    HW237075   4.765  11.404   7.674  0.3161  0.3378  0.2833
 8451SOL     OW37076   5.208   5.284   5.692  0.4235 -0.5627 -0.7704
 8451SOL    HW137077   5.261   5.336   5.631  1.2588  0.5933  0.8518
 8451SOL    HW237078   5.177   5.348   5.756 -1.1902 -1.5885 -0.4831
 8452SOL     OW37079   3.886   0.410  11.153 -0.4435  0.0033 -0.5542
 8452SOL    HW137080   3.913   0.331  11.199 -1.8452 -0.3579 -0.2908
 8452SOL    HW237081   3.897   0.389  11.060  0.5404  0.0305 -0.4563
 8453SOL     OW37082   0.768   1.961   6.784 -0.3588 -0.0615 -0.4843
 8453SOL    HW137083   0.774   2.027   6.714 -2.4624  1.2917  0.5084
 8453SOL    HW237084   0.790   2.009   6.864  0.3538 -1.1774  0.0130
 8454SOL     OW37085  10.447   1.664   1.234 -0.1205  0.5742  0.1405
 8454SOL    HW137086  10.385   1.602   1.272  0.8742  0.0027  0.8672
 8454SOL    HW237087  10.483   1.619   1.158 -1.3224  1.3055 -0.9015
 8455SOL     OW37088   5.986   7.769   8.242 -0.2442  0.1905 -0.0195
 8455SOL    HW137089   6.054   7.808   8.187  0.2140 -0.1868  0.2727
 8455SOL    HW237090   5.979   7.679   8.211 -2.2241  0.8025 -1.5865
 8456SOL     OW37091   0.311   4.779   7.720  0.2889  0.5779 -0.9650
 8456SOL    HW137092   0.266   4.739   7.646  0.3592 -1.6783  0.1166
 8456SOL    HW237093   0.289   4.723   7.795 -0.4253  3.1704  0.9452
 8457SOL     OW37094   7.715   2.644   1.330 -0.0022 -0.2639  0.0031
 8457SOL    HW137095   7.696   2.668   1.420 -0.0128 -0.3951  0.0370
 8457SOL    HW237096   7.797   2.688   1.310 -0.4585  0.4970 -0.2225
 8458SOL     OW37097   4.584   2.743   3.343 -0.4452 -0.2783  0.3496
 8458SOL    HW137098   4.569   2.737   3.437  1.6567 -1.4557  0.6679
 8458SOL    HW237099   4.500   2.772   3.307 -0.9705  1.3541  2.6819
 8459SOL     OW37100   4.799   5.571   9.143  0.2378 -0.0687  0.2970
 8459SOL    HW137101   4.705   5.567   9.128 -0.2758  2.5698  2.2235
 8459SOL    HW237102   4.825   5.479   9.157 -2.2297 -0.7646  0.7859
 8460SOL     OW37103   3.431  11.642   6.944 -0.3600  0.0427 -0.0157
 8460SOL    HW137104   3.499  11.601   6.997 -0.3608 -1.8779 -1.3631
 8460SOL    HW237105   3.479  11.684   6.872 -0.4345  1.5815  0.7898
 8461SOL     OW37106   4.330   5.638   3.503 -0.1425 -0.4336  0.0851
 8461SOL    HW137107   4.267   5.687   3.451 -1.9075 -2.9965 -0.3925
 8461SOL    HW237108   4.367   5.574   3.441  2.5347  0.5818  0.5124
 8462SOL     OW37109   6.949   1.091   9.872  0.3427  0.0491 -0.0160
 8462SOL    HW137110   6.962   1.081   9.966 -1.1197 -1.7403  0.0357
 8462SOL    HW237111   6.870   1.143   9.864 -0.2377 -0.8501 -0.2289
 8463SOL     OW37112   8.797   6.814   6.606 -0.0534 -0.1348 -0.6354
 8463SOL    HW137113   8.782   6.739   6.663  0.2552  0.6511  0.4989
 8463SOL    HW237114   8.713   6.860   6.605 -0.3020 -0.5801 -1.4929
 8464SOL     OW37115   2.115   1.157   8.723 -0.3849 -1.0080 -0.0036
 8464SOL    HW137116   2.105   1.107   8.804 -0.9173 -1.9830 -0.6460
 8464SOL    HW237117   2.210   1.167   8.712 -0.3294 -0.2035  1.1193
 8465SOL     OW37118   5.749   0.025   5.505  0.2867  0.2252  0.0549
 8465SOL    HW137119   5.676   0.085   5.488  0.5630  0.2962 -0.9332
 8465SOL    HW237120   5.741   0.004   5.598 -0.8396  0.4379  0.0250
 8466SOL     OW37121  10.755  11.341   4.702  0.2834 -0.7104 -0.2383
 8466SOL    HW137122  10.770  11.421   4.753 -1.3324  0.4717 -1.5282
 8466SOL    HW237123  10.835  11.330   4.651 -0.2015  1.2384 -1.5003
 8467SOL     OW37124   2.597   2.087  10.777  0.3101 -0.2334 -0.3713
 8467SOL    HW137125   2.663   2.138  10.823  1.3492 -1.6017 -0.2964
 8467SOL    HW237126   2.548   2.043  10.846  0.8458 -1.0378 -0.4836
 8468SOL     OW37127  11.793   2.616   2.736  0.0197  0.0688  0.1001
 8468SOL    HW137128  11.822   2.604   2.826 -1.0643  1.5683  0.6806
 8468SOL    HW237129  11.698   2.608   2.739 -0.1053  0.9899 -0.7524
 8469SOL     OW37130   5.394  10.554   1.918  0.3579  0.0671 -0.2692
 8469SOL    HW137131   5.429  10.514   1.999  1.2660  0.4843 -0.4405
 8469SOL    HW237132   5.472  10.581   1.870 -0.1906 -0.0022 -1.2041
 8470SOL     OW37133   8.481   5.785   3.736  0.2062 -0.0603  0.2482
 8470SOL    HW137134   8.539   5.752   3.666  1.4618  1.1846  0.6545
 8470SOL    HW237135   8.462   5.875   3.710 -1.7252 -0.4974  0.0475
 8471SOL     OW37136   0.446   1.629   7.201  0.3047  0.3578  0.6177
 8471SOL    HW137137   0.434   1.582   7.284  0.2622 -0.6862  0.0377
 8471SOL    HW237138   0.376   1.596   7.145  0.0750  1.3671  0.2868
 8472SOL     OW37139   5.648  11.557   3.546  0.3470  0.3019 -0.1970
 8472SOL    HW137140   5.636  11.498   3.620 -1.0185 -0.0587 -0.6593
 8472SOL    HW237141   5.573  11.617   3.551  1.1218  1.3222 -0.3631
 8473SOL     OW37142   4.896   4.371   1.228  0.0088  0.5294 -0.2843
 8473SOL    HW137143   4.866   4.461   1.224 -0.4687  0.3684 -0.4026
 8473SOL    HW237144   4.985   4.377   1.263  0.2169  1.0942 -0.8915
 8474SOL     OW37145   9.234   2.171   0.232  0.3023 -0.6458 -0.3655
 8474SOL    HW137146   9.224   2.262   0.205  2.3826 -0.9152 -2.3895
 8474SOL    HW237147   9.147   2.146   0.264 -0.4714  1.8489 -0.2838
 8475SOL     OW37148   8.518   5.957   7.304  0.2179  0.4318  0.5145
 8475SOL    HW137149   8.591   6.008   7.340  0.4006  1.6667 -1.4552
 8475SOL    HW237150   8.533   5.868   7.335  1.2393  1.1096  2.0747
 8476SOL     OW37151   5.773  10.641  10.806 -0.1282  0.6258 -0.1116
 8476SOL    HW137152   5.792  10.632  10.713  2.6783  1.2288  0.3248
 8476SOL    HW237153   5.773  10.551  10.840 -3.2281  0.2025 -0.9430
 8477SOL     OW37154   7.540   9.580   4.345  0.1541 -0.5788  0.5501
 8477SOL    HW137155   7.576   9.613   4.428  0.4058  0.2720  0.1160
 8477SOL    HW237156   7.568   9.489   4.342  0.0853 -0.6349  1.4342
 8478SOL     OW37157   2.980   5.537   9.141 -0.1279 -0.2103  0.2609
 8478SOL    HW137158   2.970   5.475   9.069  0.5700  0.2180 -0.2260
 8478SOL    HW237159   3.030   5.610   9.102 -0.2462  0.2860  1.0246
 8479SOL     OW37160   9.694   2.319   4.110  0.1681 -0.0767  0.5701
 8479SOL    HW137161   9.675   2.400   4.157  0.0602  0.1864  0.0824
 8479SOL    HW237162   9.615   2.304   4.057  0.3798 -0.2508  0.3051
 8480SOL     OW37163   4.452   7.198   7.559  0.1854  0.1018  0.3807
 8480SOL    HW137164   4.469   7.125   7.500  0.7381  0.2394  0.3644
 8480SOL    HW237165   4.427   7.271   7.501 -1.5281 -0.3685  0.4595
 8481SOL     OW37166   6.295   5.602   9.513 -0.0548 -0.3102 -0.1179
 8481SOL    HW137167   6.263   5.608   9.603  0.2144 -1.3852  0.0628
 8481SOL    HW237168   6.364   5.535   9.516 -1.0238 -1.4255 -1.3870
 8482SOL     OW37169   9.368   8.919  11.327 -0.3853  0.0516 -0.4130
 8482SOL    HW137170   9.334   8.863  11.257  0.7794  1.4689 -2.2192
 8482SOL    HW237171   9.319   9.000  11.319 -0.3666  0.1759  0.5749
 8483SOL     OW37172   8.037   5.969   8.805 -0.1331  0.0564  0.0179
 8483SOL    HW137173   8.019   6.029   8.876 -2.3212  0.5440 -0.8807
 8483SOL    HW237174   7.971   5.900   8.813  0.4992 -0.6688 -0.6896
 8484SOL     OW37175   4.962   7.270  10.555  0.3519 -0.5793  0.2426
 8484SOL    HW137176   4.937   7.350  10.602  2.9099  1.7020 -1.9464
 8484SOL    HW237177   4.884   7.215  10.558 -1.9439  2.4665  0.8700
 8485SOL     OW37178   1.244  11.800   0.696 -0.7201 -0.0519  0.3795
 8485SOL    HW137179   1.264  11.893   0.707 -0.3407 -0.0320 -0.3737
 8485SOL    HW237180   1.208  11.794   0.607  0.3935 -0.7933 -0.0475
 8486SOL     OW37181   3.527  10.477   0.143  0.0113 -0.2546 -0.1764
 8486SOL    HW137182   3.601  10.488   0.203 -1.0005  1.1211  0.8806
 8486SOL    HW237183   3.517  10.382   0.135  0.5266 -0.4715  1.4203
 8487SOL     OW37184   3.347   7.399   2.743  0.2751  0.0891  0.1006
 8487SOL    HW137185   3.370   7.306   2.744 -0.6618 -0.1928 -1.2765
 8487SOL    HW237186   3.317   7.415   2.653  2.2195  2.2024 -0.2662
 8488SOL     OW37187   5.685   0.505   1.558  0.2099 -0.4073 -0.0721
 8488SOL    HW137188   5.725   0.504   1.471 -0.7908 -0.8781 -0.5498
 8488SOL    HW237189   5.698   0.416   1.591  0.5126 -0.2535  0.2289
 8489SOL     OW37190   4.878   8.080   4.170 -0.3135  0.1927 -0.1033
 8489SOL    HW137191   4.785   8.076   4.150 -0.4455  2.6763 -0.2792
 8489SOL    HW237192   4.897   8.173   4.182  1.5532 -0.4125  2.8563
 8490SOL     OW37193   1.946   4.281   9.345 -0.3544 -0.5021 -0.1497
 8490SOL    HW137194   1.968   4.334   9.422 -1.4602 -1.5765  0.9423
 8490SOL    HW237195   2.014   4.215   9.341 -1.6268 -2.0090  1.4738
 8491SOL     OW37196  10.051   2.479   2.518 -0.3258  0.0246  0.2105
 8491SOL    HW137197  10.021   2.568   2.534  1.6734  1.0447 -1.2289
 8491SOL    HW237198  10.109   2.487   2.441 -0.1488 -2.5205 -0.0016
 8492SOL     OW37199   0.265   1.363   9.125 -0.5925  0.4384 -0.1151
 8492SOL    HW137200   0.304   1.350   9.211  1.8850  0.9910 -1.0929
 8492SOL    HW237201   0.262   1.458   9.114  1.6416  0.4083 -1.6432
 8493SOL     OW37202   1.839   0.355   9.920  0.0648  0.2822 -0.3314
 8493SOL    HW137203   1.837   0.433   9.864 -0.2571  0.1177 -0.5525
 8493SOL    HW237204   1.909   0.372   9.983  0.2186  0.6051 -0.5896
 8494SOL     OW37205   0.936   2.171   0.704 -0.6008 -0.2124  0.0289
 8494SOL    HW137206   0.901   2.229   0.771 -0.4481 -0.0520 -0.0316
 8494SOL    HW237207   1.011   2.128   0.746 -1.4012 -1.2456  0.4767
 8495SOL     OW37208   1.157   4.074   7.683  0.2561 -0.0536 -0.0200
 8495SOL    HW137209   1.066   4.100   7.666  0.3564  0.1581 -0.2474
 8495SOL    HW237210   1.151   4.009   7.753 -0.1093 -0.3838 -0.3537
 8496SOL     OW37211   7.552   5.111   5.436 -0.3604 -0.1119  0.3953
 8496SOL    HW137212   7.487   5.041   5.435 -0.9969  0.4735  0.2515
 8496SOL    HW237213   7.601   5.098   5.355 -1.4083  0.4583 -0.3547
 8497SOL     OW37214   4.656   2.046   3.425 -0.4914  0.0526  0.1752
 8497SOL    HW137215   4.628   2.014   3.510 -1.5372 -1.5130 -0.7106
 8497SOL    HW237216   4.577   2.084   3.386 -0.8464 -2.0666 -1.3152
 8498SOL     OW37217   3.008   2.205   6.083 -0.0645  0.0349  0.3590
 8498SOL    HW137218   2.995   2.253   6.002  0.1189 -0.9495 -0.2646
 8498SOL    HW237219   3.076   2.253   6.130  0.1104  0.3778 -0.2469
 8499SOL     OW37220   9.966  10.603   6.302  0.1451 -0.5802  0.4700
 8499SOL    HW137221   9.979  10.635   6.391 -0.3330  1.4214 -0.1452
 8499SOL    HW237222  10.025  10.657   6.249 -1.6949  0.2725 -0.7825
 8500SOL     OW37223   8.082   0.211   3.575  0.5844  0.1635 -0.5354
 8500SOL    HW137224   8.071   0.282   3.513 -0.4915  0.6883  0.2250
 8500SOL    HW237225   7.994   0.179   3.592  0.8696 -0.0913  0.5729
 8501SOL     OW37226   7.227   0.680   3.862 -0.2635  0.0572 -0.5095
 8501SOL    HW137227   7.313   0.721   3.853  0.7913 -2.1631 -1.0979
 8501SOL    HW237228   7.169   0.737   3.812  0.4278  2.5836  1.3140
 8502SOL     OW37229   7.135   8.184   4.503  0.5714 -0.3837  0.0863
 8502SOL    HW137230   7.079   8.118   4.462  0.0167 -0.4969  0.9966
 8502SOL    HW237231   7.157   8.245   4.432  0.9849 -1.4692 -0.7321
 8503SOL     OW37232   9.247   5.964   6.775 -0.4193  0.4690  0.5628
 8503SOL    HW137233   9.330   5.919   6.761  1.2213  3.5119 -0.3504
 8503SOL    HW237234   9.184   5.915   6.721  0.7308 -1.8449  1.1960
 8504SOL     OW37235   7.729   3.017   5.367 -0.6098  0.1613  0.2484
 8504SOL    HW137236   7.664   3.012   5.297 -0.6359  2.4165  0.0516
 8504SOL    HW237237   7.790   2.946   5.348 -1.8492 -0.6877 -0.7477
 8505SOL     OW37238  11.210   4.019   9.431  0.5092  0.0174 -0.1662
 8505SOL    HW137239  11.151   4.002   9.358  0.8589 -0.1515 -0.4117
 8505SOL    HW237240  11.190   3.951   9.495  0.7140 -0.2772 -0.4160
 8506SOL     OW37241   1.932   9.562   9.172  0.1854  0.5219  0.2515
 8506SOL    HW137242   1.925   9.508   9.251  1.7729 -0.5628 -0.2975
 8506SOL    HW237243   2.025   9.578   9.162 -0.0998  1.7416 -0.7176
 8507SOL     OW37244   8.122   0.683  10.771 -0.1985  0.1687 -0.2776
 8507SOL    HW137245   8.197   0.707  10.715  0.6478  0.7767  1.0696
 8507SOL    HW237246   8.158   0.617  10.831 -0.9319 -0.0169 -0.0406
 8508SOL     OW37247   1.364   6.917   1.959  0.3541 -0.2742  0.3993
 8508SOL    HW137248   1.320   6.925   1.874  0.1598 -0.7397  0.4518
 8508SOL    HW237249   1.393   7.006   1.979 -0.6058  0.0547  0.3808
 8509SOL     OW37250   0.647  10.418   9.685 -0.0740  0.1918 -0.3006
 8509SOL    HW137251   0.651  10.407   9.590 -0.5404  0.9262 -0.4105
 8509SOL    HW237252   0.556  10.441   9.703 -0.6217 -2.2940  0.5809
 8510SOL     OW37253   7.518   0.879   3.229 -0.3526 -0.2669 -0.8101
 8510SOL    HW137254   7.439   0.842   3.189 -0.4943 -0.0570 -0.7228
 8510SOL    HW237255   7.552   0.940   3.164 -0.6190  0.1227 -0.5881
 8511SOL     OW37256  10.548   5.317   6.676 -0.2619  0.5294 -0.2527
 8511SOL    HW137257  10.475   5.254   6.676  0.3169 -0.3225  2.8793
 8511SOL    HW237258  10.543   5.359   6.591 -1.6569 -2.6757 -1.9371
 8512SOL     OW37259   7.880   4.193   8.623  0.0670 -0.1350 -0.3059
 8512SOL    HW137260   7.878   4.135   8.699 -0.7884 -1.8370 -1.5628
 8512SOL    HW237261   7.855   4.137   8.549 -0.1109  1.6871 -1.7013
 8513SOL     OW37262   9.325   2.599   1.915 -0.7660  0.1328  0.1170
 8513SOL    HW137263   9.396   2.661   1.894  1.7029 -1.7260  2.2083
 8513SOL    HW237264   9.313   2.548   1.835  1.1833 -0.2499  0.0055
 8514SOL     OW37265   6.256   9.685   8.116 -0.7297  0.2036  0.0671
 8514SOL    HW137266   6.255   9.735   8.035 -0.4006  0.6053  0.3076
 8514SOL    HW237267   6.349   9.669   8.134 -0.8475 -1.8977 -0.8557
 8515SOL     OW37268  10.012  10.698  10.564 -0.4354 -0.3132 -0.0633
 8515SOL    HW137269   9.922  10.731  10.564 -0.3465 -0.0703  0.2114
 8515SOL    HW237270  10.002  10.603  10.550 -0.7043 -0.2167 -0.5399
 8516SOL     OW37271   0.042   2.799   0.612 -0.2588  0.2843 -0.2410
 8516SOL    HW137272  -0.025   2.839   0.557 -1.5735  0.1375  1.1743
 8516SOL    HW237273   0.021   2.706   0.613  0.7497  0.0355 -0.7937
 8517SOL     OW37274   6.692   2.557   8.440 -0.2092  0.1798 -0.1147
 8517SOL    HW137275   6.604   2.581   8.409  0.5167  0.3889 -2.1767
 8517SOL    HW237276   6.683   2.466   8.467 -1.3552  0.5899  0.9728
 8518SOL     OW37277   2.414   0.972   5.137 -0.7273 -0.0384 -0.6466
 8518SOL    HW137278   2.497   0.951   5.094  0.7358  1.7447  1.1402
 8518SOL    HW237279   2.417   0.925   5.220 -1.1171  0.7213 -0.1889
 8519SOL     OW37280   9.649  11.472   6.623 -0.7216  0.1110 -0.0396
 8519SOL    HW137281   9.568  11.440   6.583 -0.8464 -1.1803  1.1569
 8519SOL    HW237282   9.658  11.562   6.591 -2.5978  0.2680 -0.2356
 8520SOL     OW37283   1.979   6.837   4.135 -0.5608 -0.1125  0.3067
 8520SOL    HW137284   1.886   6.857   4.135 -1.1742 -2.5650 -1.5652
 8520SOL    HW237285   1.992   6.780   4.060  2.2174 -1.0028  1.3186
 8521SOL     OW37286  10.917   0.692   0.203 -0.5249 -0.4869 -0.1176
 8521SOL    HW137287  10.994   0.640   0.225 -1.7071 -2.1122  0.3551
 8521SOL    HW237288  10.930   0.775   0.248  1.0943 -0.6048 -0.3233
 8522SOL     OW37289   6.148   8.287  11.071  0.2554  0.6816 -0.2902
 8522SOL    HW137290   6.057   8.317  11.079 -0.5606 -1.0719 -1.9960
 8522SOL    HW237291   6.164   8.285  10.977  1.4236 -0.7974 -0.0957
 8523SOL     OW37292   5.054   6.879   7.665 -0.2393 -0.2859  0.1162
 8523SOL    HW137293   4.990   6.830   7.718  1.0409 -0.8713  1.1756
 8523SOL    HW237294   5.093   6.813   7.608 -0.9392  0.1738 -0.9259
 8524SOL     OW37295   5.234   9.353   4.559  0.6425 -0.0452 -0.0316
 8524SOL    HW137296   5.290   9.275   4.559  0.7558  0.0152  0.9591
 8524SOL    HW237297   5.257   9.399   4.478  0.4292 -1.1290 -0.7291
 8525SOL     OW37298  11.326  11.146   5.041  0.2188 -0.0329  0.2431
 8525SOL    HW137299  11.262  11.084   5.077 -0.2792  1.8426  2.8624
 8525SOL    HW237300  11.390  11.091   4.996 -1.0916 -2.3066  0.9957
 8526SOL     OW37301  11.487   1.920   2.254 -0.1782  0.1018 -0.5569
 8526SOL    HW137302  11.421   1.988   2.265 -1.0129 -0.7951  0.1414
 8526SOL    HW237303  11.454   1.866   2.183  0.9595  0.9346 -1.7712
 8527SOL     OW37304   4.909   3.712   9.946 -0.4084 -0.2412  0.0560
 8527SOL    HW137305   4.988   3.766   9.939 -1.3253  1.1515  0.2889
 8527SOL    HW237306   4.927   3.654  10.021  0.4975 -0.1500 -0.0748
 8528SOL     OW37307   4.501   4.872  10.577 -0.2028  0.0215  0.1267
 8528SOL    HW137308   4.427   4.821  10.545 -1.1053  1.0587  0.4932
 8528SOL    HW237309   4.554   4.889  10.500  0.5775 -2.1656  0.1283
 8529SOL     OW37310   3.443   4.681   7.945 -0.4973 -0.0770 -0.2822
 8529SOL    HW137311   3.431   4.648   7.856 -0.1041  0.5555 -0.5806
 8529SOL    HW237312   3.517   4.630   7.980  1.0969  1.4311 -1.2636
 8530SOL     OW37313   2.065  11.465   8.749  0.1770 -0.1114 -0.2942
 8530SOL    HW137314   1.996  11.429   8.694  1.5362  0.2477 -2.3714
 8530SOL    HW237315   2.106  11.389   8.789  0.4505 -0.5997 -1.4373
 8531SOL     OW37316   1.564   7.825  11.121  0.4415 -0.7685  0.2870
 8531SOL    HW137317   1.627   7.823  11.049  0.0843 -0.0045 -0.0623
 8531SOL    HW237318   1.604   7.882  11.186 -0.9898  1.9934 -1.0565
 8532SOL     OW37319  10.492   6.052   1.022 -0.1897 -0.5271 -0.3649
 8532SOL    HW137320  10.502   5.964   1.060 -1.4570 -0.3366  0.4852
 8532SOL    HW237321  10.398   6.069   1.027  0.0036  0.7685 -0.7950
 8533SOL     OW37322   1.770   1.094   5.981  0.1277 -0.4151 -0.1411
 8533SOL    HW137323   1.724   1.013   5.956 -1.1632  0.3476 -0.3270
 8533SOL    HW237324   1.703   1.162   5.976  1.1618  0.6567  0.1441
 8534SOL     OW37325   9.858   1.524  10.572  1.0462 -0.5045 -0.6822
 8534SOL    HW137326   9.769   1.487  10.577 -0.0406  1.8941 -1.0997
 8534SOL    HW237327   9.884   1.509  10.481  0.0831  0.8102 -1.2092
 8535SOL     OW37328   7.220   3.833  10.656  0.8946 -0.5355  0.6988
 8535SOL    HW137329   7.209   3.862  10.747  0.8305 -0.6690  0.7352
 8535SOL    HW237330   7.314   3.812  10.649  1.0318  0.1315  0.5318
 8536SOL     OW37331  10.364   5.143   2.785  0.0469  0.4946  0.7078
 8536SOL    HW137332  10.371   5.189   2.869 -1.6002  2.6610 -0.2546
 8536SOL    HW237333  10.273   5.114   2.782  0.0567  0.5523 -0.3799
 8537SOL     OW37334   9.418   5.811   3.344  0.5099 -0.0248  0.1752
 8537SOL    HW137335   9.505   5.790   3.377  0.5498 -0.8957 -0.4534
 8537SOL    HW237336   9.433   5.877   3.277  0.7057 -0.2757 -0.0309
 8538SOL     OW37337   1.222   1.184   5.734  0.1335  0.1695  0.3593
 8538SOL    HW137338   1.128   1.182   5.717  0.1390 -0.2250  0.3503
 8538SOL    HW237339   1.229   1.198   5.828  0.0998  2.1998  0.1067
 8539SOL     OW37340   1.266  10.829   1.996 -0.1005  0.2865 -0.6918
 8539SOL    HW137341   1.352  10.820   1.956 -0.1410  0.1247 -0.7434
 8539SOL    HW237342   1.205  10.831   1.922  0.0231  2.6991 -0.8055
 8540SOL     OW37343   0.796   4.068   9.987  0.3049 -0.5104 -0.2133
 8540SOL    HW137344   0.817   4.073   9.894  2.2607  0.3288  0.2119
 8540SOL    HW237345   0.703   4.090   9.993  0.2274 -0.2922 -1.9433
 8541SOL     OW37346   0.702   7.777   6.831 -0.5648  0.1760  0.0693
 8541SOL    HW137347   0.680   7.819   6.914 -0.1398 -0.7667  0.6850
 8541SOL    HW237348   0.730   7.688   6.856 -2.0605 -0.7103 -1.2175
 8542SOL     OW37349   1.791   4.771  11.935  0.3972  0.3425 -0.0988
 8542SOL    HW137350   1.861   4.734  11.880  1.0154  0.0271  0.8737
 8542SOL    HW237351   1.833   4.846  11.977  0.3477 -0.2099  0.9625
 8543SOL     OW37352   7.958   8.390   0.669  0.1460 -0.0931 -0.3855
 8543SOL    HW137353   7.992   8.318   0.616 -0.0576  0.0565 -0.7238
 8543SOL    HW237354   8.001   8.468   0.633  2.2590 -0.2574  1.5237
 8544SOL     OW37355   8.146   9.832   6.897 -0.2820  0.2133 -0.1219
 8544SOL    HW137356   8.197   9.830   6.816 -0.1653 -0.9398 -0.0414
 8544SOL    HW237357   8.105   9.745   6.902  0.7162 -0.2075  1.6802
 8545SOL     OW37358   1.073   1.674   9.067 -0.1482 -0.2253 -0.6008
 8545SOL    HW137359   1.022   1.709   8.994 -0.0501 -0.5837 -0.8427
 8545SOL    HW237360   1.093   1.584   9.042 -0.3404 -0.4354 -0.0090
 8546SOL     OW37361   7.006   8.484   9.331 -0.0303 -0.4517  0.5318
 8546SOL    HW137362   7.033   8.426   9.259  1.3260 -1.0883  1.4983
 8546SOL    HW237363   7.001   8.571   9.291 -1.0408 -1.0474 -0.7109
 8547SOL     OW37364   8.229   9.443   2.398  0.4459  0.1271  0.1169
 8547SOL    HW137365   8.250   9.405   2.313  0.2107  0.3477 -0.0402
 8547SOL    HW237366   8.210   9.535   2.380 -2.2978 -0.3726 -0.0163
 8548SOL     OW37367  10.778   1.731   2.467  0.6527 -0.1671 -0.0017
 8548SOL    HW137368  10.711   1.682   2.420 -0.2099  0.0628  0.9487
 8548SOL    HW237369  10.758   1.717   2.559  1.3293  0.7067  0.2957
 8549SOL     OW37370  10.609   5.167   6.995  0.3099  0.3851  0.3740
 8549SOL    HW137371  10.695   5.202   6.971 -0.3642  0.7682 -1.7305
 8549SOL    HW237372  10.560   5.165   6.912 -2.3153  1.8408  1.7590
 8550SOL     OW37373   7.571   5.856  10.863 -0.4241  0.2245 -0.1146
 8550SOL    HW137374   7.476   5.858  10.853 -0.6207  0.2308  1.5153
 8550SOL    HW237375   7.586   5.870  10.956  1.1378 -0.8724 -0.1575
 8551SOL     OW37376   7.326   7.855   8.910  0.3790  0.2863 -0.6864
 8551SOL    HW137377   7.317   7.870   9.004 -1.1602 -0.7383 -0.6430
 8551SOL    HW237378   7.352   7.941   8.875  1.5326  0.5450  0.7056
 8552SOL     OW37379   5.675   8.653   5.571 -0.4912 -0.3871  0.2752
 8552SOL    HW137380   5.744   8.588   5.584  0.2959 -0.0437 -1.7836
 8552SOL    HW237381   5.603   8.605   5.529  0.7632  0.2692 -2.9103
 8553SOL     OW37382  10.200   1.472   7.816  0.2721 -0.8509 -0.2040
 8553SOL    HW137383  10.275   1.530   7.820  0.0001 -0.5430  0.5383
 8553SOL    HW237384  10.234   1.387   7.844  0.3928 -0.7707 -0.1084
 8554SOL     OW37385   2.679   0.107   8.108  0.2491  0.5398  0.2832
 8554SOL    HW137386   2.669   0.174   8.040  0.4598  1.0742  0.7732
 8554SOL    HW237387   2.687   0.025   8.059 -0.5570  0.7984 -0.3061
 8555SOL     OW37388   2.245  11.158   7.663  0.3489 -0.1404 -0.0439
 8555SOL    HW137389   2.319  11.130   7.609 -1.0712 -1.9890 -1.1638
 8555SOL    HW237390   2.229  11.084   7.722 -0.0050  0.6470  0.8631
 8556SOL     OW37391   8.067   4.735   6.646 -0.5873 -0.0942 -0.0635
 8556SOL    HW137392   8.060   4.822   6.685 -0.8453  0.2441 -0.8539
 8556SOL    HW237393   7.989   4.688   6.678 -0.3605 -0.1024  0.4973
 8557SOL     OW37394   4.819   7.671   5.703  0.0739 -0.2371 -0.1896
 8557SOL    HW137395   4.761   7.595   5.707  1.0132 -1.0626 -1.4799
 8557SOL    HW237396   4.834   7.685   5.610  1.3695  0.3903  0.0920
 8558SOL     OW37397   1.886   2.508   8.465 -0.6312  0.0291  0.0136
 8558SOL    HW137398   1.829   2.476   8.395  0.2213  0.3830 -0.8704
 8558SOL    HW237399   1.912   2.429   8.513  1.9507 -0.8232 -2.5175
 8559SOL     OW37400   5.471   4.307   5.039  0.4739  0.3775  0.0680
 8559SOL    HW137401   5.493   4.297   4.946  1.5595  1.7834  0.1412
 8559SOL    HW237402   5.554   4.330   5.081  0.4313 -2.1693  1.7455
 8560SOL     OW37403   1.900   4.445   7.582 -0.4984 -0.6522  0.5983
 8560SOL    HW137404   1.868   4.467   7.494  0.1573  1.4047  0.8091
 8560SOL    HW237405   1.839   4.490   7.641 -1.8112 -3.2093  1.3178
 8561SOL     OW37406   3.715  11.651  10.412 -0.0658 -0.0140 -0.3635
 8561SOL    HW137407   3.626  11.639  10.446 -0.6643  1.1925 -1.3989
 8561SOL    HW237408   3.759  11.567  10.428 -1.4870 -0.7403 -0.1254
 8562SOL     OW37409   8.956   4.719   0.180  0.0769 -0.2057  0.2960
 8562SOL    HW137410   9.033   4.765   0.146 -1.3608  1.2092 -1.2819
 8562SOL    HW237411   8.942   4.756   0.267  0.0760  0.9727 -0.1854
 8563SOL     OW37412   5.074  10.860   0.202 -0.0586 -0.3703 -0.0340
 8563SOL    HW137413   5.029  10.942   0.224 -1.8941 -0.8163 -1.7931
 8563SOL    HW237414   5.053  10.846   0.109  1.7242 -1.9204 -0.2615
 8564SOL     OW37415   4.304   4.143   7.647  0.2513  0.2892  0.0104
 8564SOL    HW137416   4.293   4.069   7.586 -0.2397  0.6946 -0.4065
 8564SOL    HW237417   4.215   4.173   7.664  0.4969  1.6335 -0.8854
 8565SOL     OW37418   3.239  10.515   5.494 -0.0468  0.3328 -0.0504
 8565SOL    HW137419   3.263  10.607   5.482 -1.6415  0.8994  0.9160
 8565SOL    HW237420   3.144  10.514   5.491 -0.0524 -1.3241 -0.1682
 8566SOL     OW37421   7.713   1.115   9.554  0.7030  0.4783 -0.0139
 8566SOL    HW137422   7.777   1.044   9.547  0.6546  0.3888  0.3984
 8566SOL    HW237423   7.671   1.100   9.639  1.0910  1.3332  0.3420
 8567SOL     OW37424  11.286   6.879  11.453  0.2792  0.4981  0.2783
 8567SOL    HW137425  11.209   6.868  11.509 -0.7390  0.9981 -0.9423
 8567SOL    HW237426  11.263   6.954  11.397  1.9048  1.0153  0.2616
 8568SOL     OW37427   2.879   7.227   5.844 -0.0579 -0.4052  0.2441
 8568SOL    HW137428   2.928   7.308   5.826  1.6358 -1.2713  0.7137
 8568SOL    HW237429   2.867   7.226   5.939  2.5336 -2.0318  0.6563
 8569SOL     OW37430   6.797   4.500  11.584 -0.3399  0.1730 -0.4190
 8569SOL    HW137431   6.722   4.488  11.526 -1.6410  0.5856  1.1113
 8569SOL    HW237432   6.820   4.412  11.613 -0.0189  0.0168 -1.1381
 8570SOL     OW37433   9.170   5.213   0.309  0.1112  0.5299 -0.0095
 8570SOL    HW137434   9.233   5.282   0.286 -0.9778  1.1939 -1.1295
 8570SOL    HW237435   9.141   5.178   0.225  0.7886 -1.4765  0.5372
 8571SOL     OW37436   2.025   8.721   9.771 -0.1398  0.3739 -0.0820
 8571SOL    HW137437   2.006   8.710   9.678 -0.4178 -0.4935  0.0700
 8571SOL    HW237438   2.120   8.721   9.777 -0.1241  0.2703 -0.3464
 8572SOL     OW37439   0.747   6.798  10.152  0.1185  0.4373 -0.0878
 8572SOL    HW137440   0.725   6.827  10.241  1.6326 -0.7258  0.7228
 8572SOL    HW237441   0.780   6.709  10.163  0.1979  0.2104 -1.8490
 8573SOL     OW37442   7.582   2.248   3.836 -0.2846 -0.3047 -0.6861
 8573SOL    HW137443   7.580   2.329   3.887 -0.7304 -0.9175  0.2975
 8573SOL    HW237444   7.540   2.270   3.753  1.8717  1.1524 -1.5084
 8574SOL     OW37445   5.733   0.054   4.795 -0.5720  0.3184  0.5277
 8574SOL    HW137446   5.708   0.142   4.822  0.8012  1.3265 -1.2886
 8574SOL    HW237447   5.660   0.023   4.742  0.5639  2.1435 -2.4016
 8575SOL     OW37448   1.006   1.090   5.057 -0.0575  0.3642 -0.4452
 8575SOL    HW137449   0.989   1.079   4.964  0.9702  2.2356 -0.9218
 8575SOL    HW237450   1.073   1.025   5.077  2.2913  2.1471 -1.9237
 8576SOL     OW37451   6.539   6.419   2.313  0.1933  0.1795 -0.2710
 8576SOL    HW137452   6.575   6.478   2.247 -0.5605 -0.5855 -1.4162
 8576SOL    HW237453   6.613   6.400   2.371  1.2781 -0.2047 -1.7054
 8577SOL     OW37454   4.648  11.553   1.334  0.0248 -0.2246 -0.3017
 8577SOL    HW137455   4.583  11.612   1.295  0.4451 -0.7155 -1.8297
 8577SOL    HW237456   4.606  11.467   1.330  0.1073 -0.2981  0.2985
 8578SOL     OW37457  10.521   0.817   4.208  0.4609 -0.0688  0.0631
 8578SOL    HW137458  10.468   0.896   4.214  1.5881  0.6303  1.9097
 8578SOL    HW237459  10.581   0.823   4.283 -0.5852 -3.5119  1.4118
 8579SOL     OW37460   0.226   1.542   4.279 -0.7728 -0.1745  0.0464
 8579SOL    HW137461   0.316   1.547   4.245 -1.2767  0.6122 -1.2320
 8579SOL    HW237462   0.187   1.626   4.256 -2.0013 -0.7045  0.1267
 8580SOL     OW37463   7.156   5.157   5.612  0.3587 -0.2043 -0.0646
 8580SOL    HW137464   7.230   5.166   5.672  0.2017  2.3959 -0.1804
 8580SOL    HW237465   7.081   5.140   5.669  0.6129 -0.2790  0.2494
 8581SOL     OW37466   8.236   2.409   8.042 -0.0133  0.2278  0.3722
 8581SOL    HW137467   8.167   2.355   8.082  0.5888 -1.1363 -0.3682
 8581SOL    HW237468   8.315   2.388   8.092  0.3279  0.0330 -0.2353
 8582SOL     OW37469   5.311  10.056   6.892  0.3355 -0.1620  0.4271
 8582SOL    HW137470   5.305  10.106   6.811  0.3189 -0.8033  0.0298
 8582SOL    HW237471   5.287  10.119   6.961 -1.6987 -0.1391 -0.2343
 8583SOL     OW37472  10.146   4.466   0.107  0.1268 -0.4331  0.5041
 8583SOL    HW137473  10.180   4.519   0.035  0.9119 -0.6877  0.6812
 8583SOL    HW237474  10.055   4.448   0.082  0.1028  0.2794  0.0371
 8584SOL     OW37475   9.803   7.779   5.902  0.1590  0.1196  0.1759
 8584SOL    HW137476   9.779   7.711   5.965 -0.9239  0.6521  0.3526
 8584SOL    HW237477   9.769   7.860   5.940 -0.9917  0.3846 -1.3273
 8585SOL     OW37478   8.459   1.423   1.585 -0.6171  0.3015 -0.1262
 8585SOL    HW137479   8.481   1.517   1.583 -0.0973  0.1990  0.4434
 8585SOL    HW237480   8.369   1.419   1.554 -0.9139  1.0775  0.5835
 8586SOL     OW37481   5.745  11.866   9.171 -0.5343  0.8711 -0.0635
 8586SOL    HW137482   5.712  11.950   9.139 -1.2071  0.6601  0.0507
 8586SOL    HW237483   5.833  11.885   9.202 -1.6453  2.2002  2.6491
 8587SOL     OW37484  11.883   1.975  11.415  0.2421 -0.0566 -0.3968
 8587SOL    HW137485  11.972   1.943  11.430  0.4581  0.6795 -0.0436
 8587SOL    HW237486  11.895   2.065  11.385 -0.4232  0.5968  1.1891
 8588SOL     OW37487   5.667   9.279  11.578 -0.0550 -0.3001  0.2626
 8588SOL    HW137488   5.749   9.280  11.628  0.3468  1.0080 -0.3676
 8588SOL    HW237489   5.598   9.276  11.644  0.4893 -0.4407  0.8307
 8589SOL     OW37490   4.139   0.874   1.413  0.0329 -0.3452 -0.0283
 8589SOL    HW137491   4.128   0.817   1.489 -0.8620 -0.0916  0.0360
 8589SOL    HW237492   4.211   0.834   1.364 -0.3247 -1.3116  0.2156
 8590SOL     OW37493   3.319   0.722  11.895  0.2204  0.4685  0.0421
 8590SOL    HW137494   3.297   0.814  11.887  2.4307  0.8646 -3.3236
 8590SOL    HW237495   3.413   0.721  11.916  0.7864 -0.9102 -2.2177
 8591SOL     OW37496   0.356   6.866   6.807  0.5529 -0.4936  0.0995
 8591SOL    HW137497   0.410   6.843   6.883  1.6779 -0.1436 -0.5727
 8591SOL    HW237498   0.281   6.912   6.845  2.7599  2.8744  0.8651
 8592SOL     OW37499   4.258   4.788   7.693  0.1878  0.4349  0.1317
 8592SOL    HW137500   4.304   4.707   7.672 -0.3997  0.3649 -0.9920
 8592SOL    HW237501   4.326   4.849   7.719  0.7205 -0.1717  0.1788
 8593SOL     OW37502   7.112   8.077   1.413 -0.5241 -0.1044  0.3256
 8593SOL    HW137503   7.098   8.090   1.319  1.0492 -0.4976  0.0145
 8593SOL    HW237504   7.194   8.027   1.419 -0.7969 -0.4186  1.8961
 8594SOL     OW37505  10.423  11.141   5.206  0.4591  0.7283  0.5210
 8594SOL    HW137506  10.456  11.099   5.126 -1.3332 -0.5778  0.4199
 8594SOL    HW237507  10.502  11.159   5.257  1.6064  1.1603 -1.3152
 8595SOL     OW37508   3.417  11.173  11.617  0.5272 -0.2259  0.0080
 8595SOL    HW137509   3.488  11.160  11.680  0.7895  1.1910  0.0514
 8595SOL    HW237510   3.384  11.085  11.598  2.1032 -0.8793  0.2026
 8596SOL     OW37511   1.979   8.712   0.959  0.0523  0.1432 -0.6242
 8596SOL    HW137512   1.991   8.722   0.864 -2.4268  0.3671 -0.9631
 8596SOL    HW237513   2.044   8.646   0.984 -1.0741 -2.0432 -2.9868
 8597SOL     OW37514   7.947   9.488   5.199  0.5609  0.1443 -0.2110
 8597SOL    HW137515   7.931   9.394   5.192  0.7367 -0.0235  1.1787
 8597SOL    HW237516   7.954   9.503   5.294 -0.0402  1.6567 -0.3854
 8598SOL     OW37517  10.116   1.522   2.552 -0.1772 -0.1321 -0.1860
 8598SOL    HW137518  10.030   1.479   2.554 -0.4229  0.3602  1.1260
 8598SOL    HW237519  10.142   1.527   2.644  1.8537 -1.4033 -0.6188
 8599SOL     OW37520   7.549   8.615   0.627 -0.5092  0.3743 -0.0639
 8599SOL    HW137521   7.472   8.636   0.680 -1.6925 -0.4724 -1.3642
 8599SOL    HW237522   7.520   8.544   0.569  1.5795 -0.7578  0.1572
 8600SOL     OW37523   1.901   3.065   2.991 -0.6105  0.4436 -0.5050
 8600SOL    HW137524   1.848   3.089   3.066  0.0090  1.6068 -0.4149
 8600SOL    HW237525   1.846   3.006   2.940 -2.7168  3.0234 -1.3768
 8601SOL     OW37526   8.063   6.639   6.701  0.0705 -0.0661 -0.0508
 8601SOL    HW137527   8.079   6.733   6.694 -1.3881  0.1112 -1.8081
 8601SOL    HW237528   7.980   6.632   6.749 -0.0589 -0.4219 -0.3162
 8602SOL     OW37529  11.529   1.106   8.638 -0.4804  0.5407 -0.5776
 8602SOL    HW137530  11.564   1.187   8.675 -0.1272  0.0334  0.2314
 8602SOL    HW237531  11.454   1.085   8.693  0.7246 -0.8299  0.6188
 8603SOL     OW37532  10.916  10.744   7.571  0.9802 -0.1561  0.0624
 8603SOL    HW137533  10.834  10.792   7.582 -1.0886 -2.7914 -2.4487
 8603SOL    HW237534  10.906  10.666   7.625  1.0105 -1.3687 -1.6113
 8604SOL     OW37535  10.348   0.877   5.590 -0.4994  0.2163 -0.5570
 8604SOL    HW137536  10.403   0.803   5.563  1.7964  1.6892 -0.1994
 8604SOL    HW237537  10.259   0.845   5.580  0.3796 -2.8601  0.2438
 8605SOL     OW37538   9.348   0.950   9.083 -0.5150 -0.1107  0.1053
 8605SOL    HW137539   9.266   0.909   9.110  1.0634 -1.8484  2.7025
 8605SOL    HW237540   9.368   0.911   8.998 -1.0465 -1.7524  0.7036
 8606SOL     OW37541   5.263   4.199   8.313 -0.5864  0.6855 -0.2434
 8606SOL    HW137542   5.214   4.260   8.258 -0.2366  0.3277 -0.9631
 8606SOL    HW237543   5.345   4.244   8.331 -1.0777  1.2064  0.8081
 8607SOL     OW37544  10.001  11.291   1.762 -0.3729 -0.7064  0.0727
 8607SOL    HW137545  10.046  11.365   1.802 -1.1224  0.7455 -1.6372
 8607SOL    HW237546  10.011  11.220   1.826 -0.3820  1.0793  2.1901
 8608SOL     OW37547  11.074   3.915   6.290  0.2030  0.3093 -0.4155
 8608SOL    HW137548  11.101   3.838   6.240 -1.9149 -0.5353 -0.3641
 8608SOL    HW237549  11.094   3.893   6.381 -0.2309 -0.1096 -0.4197
 8609SOL     OW37550   5.735   3.820  10.116 -0.0871  0.2903  0.3624
 8609SOL    HW137551   5.691   3.902  10.092  1.0971  0.2491 -2.2138
 8609SOL    HW237552   5.697   3.797  10.201 -2.9454  1.6976 -0.4245
 8610SOL     OW37553   9.534   5.422  11.841 -0.0425 -0.5638  0.6575
 8610SOL    HW137554   9.493   5.370  11.772  2.3483 -0.0518 -1.2701
 8610SOL    HW237555   9.477   5.499  11.850  0.0321 -0.2179 -1.4055
 8611SOL     OW37556  11.081   7.326   5.539 -0.6911  0.1848 -0.8117
 8611SOL    HW137557  11.003   7.348   5.589  1.5511  1.4067  2.5161
 8611SOL    HW237558  11.070   7.234   5.515 -2.6596  0.0166  0.5438
 8612SOL     OW37559  10.489   3.859   8.867  0.3477  0.3722  0.2822
 8612SOL    HW137560  10.441   3.875   8.785  0.8913  0.3231 -0.0526
 8612SOL    HW237561  10.522   3.770   8.858 -0.0395  0.1743  0.7926
 8613SOL     OW37562   5.753  11.676   5.729  0.6087 -0.4060  0.2627
 8613SOL    HW137563   5.663  11.677   5.696  0.8266  0.8973 -0.3143
 8613SOL    HW237564   5.782  11.586   5.716 -0.3180 -0.6292 -0.3394
 8614SOL     OW37565   7.872   3.357  10.345 -0.1536 -0.2187  0.2267
 8614SOL    HW137566   7.924   3.277  10.340  1.6336  0.9092 -0.6597
 8614SOL    HW237567   7.919   3.412  10.407 -1.2987  0.1851  0.7604
 8615SOL     OW37568   7.743  10.330   6.050  0.4011 -0.7020  0.6338
 8615SOL    HW137569   7.783  10.307   6.134  1.4741  1.1640  0.6761
 8615SOL    HW237570   7.789  10.409   6.022 -1.0685 -0.3376 -0.9263
 8616SOL     OW37571   4.077   1.775   7.680 -0.1566 -0.0214  0.1417
 8616SOL    HW137572   4.141   1.787   7.750  0.5429 -2.5247  0.0178
 8616SOL    HW237573   4.128   1.782   7.600 -0.8353  2.1076 -0.1883
 8617SOL     OW37574   5.744   6.407   4.541 -0.1556  0.9564  0.0913
 8617SOL    HW137575   5.791   6.489   4.527  0.4892  0.6026  0.1884
 8617SOL    HW237576   5.739   6.398   4.636 -0.3994  0.9789  0.0812
 8618SOL     OW37577   1.653   1.188   4.490 -0.1095  0.0038  0.6109
 8618SOL    HW137578   1.584   1.200   4.424 -1.3766  0.8105  2.0268
 8618SOL    HW237579   1.723   1.248   4.461 -0.2437 -0.3422 -0.4925
 8619SOL     OW37580   8.532   7.831   2.409  0.3229 -0.6576 -0.2697
 8619SOL    HW137581   8.515   7.742   2.441  1.2989 -0.8909 -0.3930
 8619SOL    HW237582   8.614   7.856   2.451  0.0909  0.1676 -0.2955
 8620SOL     OW37583   6.547  10.027   5.242 -0.4380 -0.2078 -0.0069
 8620SOL    HW137584   6.499  10.075   5.175  1.8665 -1.7057 -2.9745
 8620SOL    HW237585   6.636  10.062   5.237 -0.4418  0.6471  3.4209
 8621SOL     OW37586   8.935   1.181   2.514 -0.1495  0.1818  0.9324
 8621SOL    HW137587   8.983   1.263   2.502 -0.0849  0.1752  1.1475
 8621SOL    HW237588   8.927   1.171   2.608  0.5714 -0.4721  0.9378
 8622SOL     OW37589   4.107   1.190   8.366 -0.2552 -0.2600 -0.2338
 8622SOL    HW137590   4.097   1.163   8.457 -1.1849 -0.8263 -0.4859
 8622SOL    HW237591   4.018   1.213   8.338 -0.2723 -1.6832 -1.4799
 8623SOL     OW37592   7.125  11.840   1.325 -0.5279  0.2696 -0.0455
 8623SOL    HW137593   7.058  11.908   1.330  0.0788  0.7858  1.3658
 8623SOL    HW237594   7.134  11.823   1.231 -1.2963  1.5227 -0.3707
 8624SOL     OW37595   8.652   5.621   5.590  0.2975  0.3792 -0.1648
 8624SOL    HW137596   8.661   5.631   5.685 -1.1092 -1.5743  0.2348
 8624SOL    HW237597   8.735   5.583   5.562 -0.1598 -1.4224  0.7400
 8625SOL     OW37598   9.868   2.902   1.070  0.1340  0.2457 -0.1578
 8625SOL    HW137599   9.851   2.948   0.988 -0.0814  0.2320 -0.1218
 8625SOL    HW237600   9.888   2.812   1.043  2.9936  0.8563 -0.4370
 8626SOL     OW37601   8.637   7.484   5.323 -0.1167 -0.4430 -0.1676
 8626SOL    HW137602   8.630   7.511   5.231  0.0034  1.0428  0.2437
 8626SOL    HW237603   8.712   7.533   5.356 -0.3934 -0.6835  0.8341
 8627SOL     OW37604  11.526   9.799   7.287  0.1619 -0.1134 -0.9350
 8627SOL    HW137605  11.448   9.806   7.342  1.3061 -2.0860  1.0728
 8627SOL    HW237606  11.510   9.723   7.231 -0.3828  1.0381 -2.4437
 8628SOL     OW37607   8.214   9.344   0.853 -0.0594  0.6544  0.3322
 8628SOL    HW137608   8.126   9.307   0.867  0.1957 -1.2616 -2.2483
 8628SOL    HW237609   8.273   9.272   0.876  0.8014  1.5585  0.9971
 8629SOL     OW37610   5.322   6.596   0.222 -0.4494 -0.5089  0.4238
 8629SOL    HW137611   5.292   6.617   0.310 -0.6915 -0.6815  0.3842
 8629SOL    HW237612   5.417   6.596   0.228 -0.4576 -0.0951  0.5845
 8630SOL     OW37613   9.885   4.364   2.855 -0.4190 -0.1958 -0.1264
 8630SOL    HW137614   9.896   4.302   2.783 -0.2541  0.5096 -0.7097
 8630SOL    HW237615   9.833   4.315   2.920 -0.0134 -1.0568 -0.4337
 8631SOL     OW37616   6.587  10.831   5.634  0.6836 -0.0662 -0.2411
 8631SOL    HW137617   6.636  10.790   5.563  0.4228 -1.7812  0.5239
 8631SOL    HW237618   6.617  10.786   5.713 -0.6495  0.2412  0.4709
 8632SOL     OW37619   7.770   4.474   4.350  0.0519 -0.0107 -0.2377
 8632SOL    HW137620   7.756   4.512   4.264 -0.7193  0.0214 -0.1032
 8632SOL    HW237621   7.803   4.386   4.333  0.5323  0.2233 -0.5542
 8633SOL     OW37622   1.278   3.683  10.081 -0.1698 -0.5227  0.1885
 8633SOL    HW137623   1.269   3.588  10.072 -1.3812 -0.4668  0.6273
 8633SOL    HW237624   1.188   3.715  10.087  0.2169  0.6803 -0.1347
 8634SOL     OW37625  10.869   5.041   6.045 -0.9110  0.0081 -0.5798
 8634SOL    HW137626  10.851   5.130   6.015 -0.9600 -0.7333 -2.9941
 8634SOL    HW237627  10.961   5.043   6.074 -0.9402  0.8550 -0.5341
 8635SOL     OW37628  10.932   1.777   3.402  0.5721 -0.0829  0.4571
 8635SOL    HW137629  10.971   1.864   3.409 -1.3569  1.0029 -1.1883
 8635SOL    HW237630  10.887   1.764   3.485 -1.5391  1.8365 -0.2743
 8636SOL     OW37631   8.940   6.116   1.475  0.0659 -0.6430  0.2027
 8636SOL    HW137632   8.989   6.124   1.393  1.3472 -0.4856  0.9438
 8636SOL    HW237633   8.972   6.035   1.514 -0.7437 -0.8610  0.4131
 8637SOL     OW37634   6.037   7.435   3.951 -0.5319  0.2830  0.0137
 8637SOL    HW137635   6.017   7.341   3.953 -0.8428  0.3237 -0.7715
 8637SOL    HW237636   5.952   7.478   3.961 -0.3318  0.4880  0.8766
 8638SOL     OW37637   1.877  10.617   6.071 -0.5743 -0.2175 -0.0049
 8638SOL    HW137638   1.897  10.584   6.158 -1.0495 -1.1935 -0.2548
 8638SOL    HW237639   1.823  10.695   6.087 -1.1267 -0.7089  0.5700
 8639SOL     OW37640   4.357   2.443  11.429 -0.1023  0.2222 -0.0770
 8639SOL    HW137641   4.363   2.371  11.492  1.0894  0.7288  0.4217
 8639SOL    HW237642   4.359   2.522  11.483  1.1759  0.6737 -0.7343
 8640SOL     OW37643  10.756   8.660   8.012  0.1812 -0.2141  0.1682
 8640SOL    HW137644  10.719   8.636   7.927 -2.7291 -1.6638  1.7020
 8640SOL    HW237645  10.696   8.727   8.046  2.0069  1.2788  0.6402
 8641SOL     OW37646  11.431   1.085   0.186 -0.1310  0.4740 -0.6449
 8641SOL    HW137647  11.370   1.033   0.134  0.5352 -0.7103 -0.2801
 8641SOL    HW237648  11.470   1.146   0.123 -0.8053  0.4287 -1.1143
 8642SOL     OW37649   7.926   0.342   6.913  0.3637 -0.4932 -0.1405
 8642SOL    HW137650   8.018   0.369   6.908  0.0478  0.4515 -1.0747
 8642SOL    HW237651   7.900   0.363   7.003  0.8719 -0.1497 -0.0657
 8643SOL     OW37652  11.348   2.543   5.557 -0.0640 -0.2872  0.0326
 8643SOL    HW137653  11.265   2.517   5.597 -0.5617  1.7945  0.4789
 8643SOL    HW237654  11.325   2.562   5.466  0.1456 -0.6654 -0.1027
 8644SOL     OW37655   1.115   8.672   7.065 -0.2480 -0.0474  0.3984
 8644SOL    HW137656   1.205   8.657   7.093 -1.0263 -1.2735  2.4291
 8644SOL    HW237657   1.094   8.759   7.097  0.4868  0.6412 -0.9230
 8645SOL     OW37658   9.734   0.909  10.126 -0.5644 -0.8726 -0.0728
 8645SOL    HW137659   9.774   0.977  10.071  2.0834 -1.6345  0.7345
 8645SOL    HW237660   9.766   0.929  10.214 -0.0699 -2.8994  0.2391
 8646SOL     OW37661   4.252   0.689   3.060 -0.2120  0.2156  0.0188
 8646SOL    HW137662   4.257   0.759   2.994 -1.1653 -0.4553 -0.8104
 8646SOL    HW237663   4.170   0.643   3.039  0.8312 -1.7071 -0.0428
 8647SOL     OW37664   2.779   5.318   3.494 -0.8105  0.7202  0.1780
 8647SOL    HW137665   2.847   5.368   3.538 -0.8285  0.5214  0.4327
 8647SOL    HW237666   2.725   5.283   3.565 -0.8721  0.4436 -0.0043
 8648SOL     OW37667  11.664   2.292   2.362  0.2105 -0.0605 -0.0409
 8648SOL    HW137668  11.627   2.246   2.437  0.7401  0.4953  0.5784
 8648SOL    HW237669  11.677   2.381   2.393  0.4655  0.1684 -0.7867
 8649SOL     OW37670   8.268   2.869   2.905 -0.0893  0.1917  0.0235
 8649SOL    HW137671   8.208   2.922   2.956 -0.5461 -1.0937  0.8677
 8649SOL    HW237672   8.224   2.784   2.897  1.3216 -0.5646  0.0821
 8650SOL     OW37673   0.177   4.089   9.547  0.1564  0.1068 -0.1733
 8650SOL    HW137674   0.175   4.048   9.461 -0.2946 -0.3554  0.0545
 8650SOL    HW237675   0.086   4.115   9.564  0.2672  0.3345  0.0983
 8651SOL     OW37676   3.153   4.478   7.055 -0.1063  0.1542  0.4050
 8651SOL    HW137677   3.102   4.556   7.078  1.1867  0.2954  3.0769
 8651SOL    HW237678   3.243   4.499   7.082  0.5315 -1.7443 -0.1118
 8652SOL     OW37679   7.882   0.914   7.156  0.1628  0.0406 -0.5944
 8652SOL    HW137680   7.977   0.918   7.146  0.4840 -1.3832  1.3834
 8652SOL    HW237681   7.857   1.005   7.177  1.2370  0.2430 -0.1037
 8653SOL     OW37682   4.723   7.046   1.855  0.5333  0.2014 -0.1975
 8653SOL    HW137683   4.689   7.065   1.767 -0.9477 -1.2716  0.0085
 8653SOL    HW237684   4.701   7.123   1.906  2.7039  1.7085 -1.4139
 8654SOL     OW37685   1.558  10.965  11.044  0.1016  0.4962  0.4470
 8654SOL    HW137686   1.467  10.990  11.057  0.0567  0.3756  0.3636
 8654SOL    HW237687   1.607  11.047  11.049  0.2080  0.3636  2.4434
 8655SOL     OW37688  11.268   1.371   2.915 -0.0858 -0.0735  0.3831
 8655SOL    HW137689  11.331   1.338   2.979 -1.1063  0.2896  1.6107
 8655SOL    HW237690  11.264   1.303   2.849  0.9384 -0.4974  0.7337
 8656SOL     OW37691   7.537  11.912   6.857 -0.2056  0.4854 -0.7227
 8656SOL    HW137692   7.626  11.875   6.860  0.2418  1.5735 -0.3223
 8656SOL    HW237693   7.550  12.002   6.829 -0.9109  1.4862  1.9468
 8657SOL     OW37694   6.481   9.266   3.266  0.2975  0.3001 -0.6440
 8657SOL    HW137695   6.508   9.348   3.307 -0.9311  0.7497 -0.6890
 8657SOL    HW237696   6.399   9.244   3.309 -0.6888  0.4291 -2.3826
 8658SOL     OW37697   1.307   3.447   0.862  0.2138  0.3889 -0.0727
 8658SOL    HW137698   1.223   3.456   0.817  0.3600 -0.6005 -0.5628
 8658SOL    HW237699   1.344   3.365   0.829  0.8523  0.2226  0.9997
 8659SOL     OW37700  11.453   4.601  11.201  0.6950  0.8186  0.5009
 8659SOL    HW137701  11.413   4.557  11.126 -1.4798  1.3650  1.2829
 8659SOL    HW237702  11.500   4.675  11.163 -1.8730  2.1683 -0.2618
 8660SOL     OW37703   3.423   0.568   3.044 -0.1687  0.0733 -0.0804
 8660SOL    HW137704   3.401   0.497   2.984  0.6171 -0.4708  0.2606
 8660SOL    HW237705   3.339   0.591   3.085 -1.0368  1.5889 -2.5348
 8661SOL     OW37706   5.415   3.107   7.311  0.7079  0.0667 -0.2388
 8661SOL    HW137707   5.423   3.052   7.389  3.2814  0.5647 -0.0724
 8661SOL    HW237708   5.384   3.191   7.343  1.1226  0.0686  0.1656
 8662SOL     OW37709   4.833   9.286   2.413  0.3409 -0.1065  0.0647
 8662SOL    HW137710   4.831   9.229   2.490  0.6903  1.2971  1.1599
 8662SOL    HW237711   4.926   9.308   2.402  0.1337  0.8751  0.1700
 8663SOL     OW37712   9.034   0.259   9.646  0.4103 -0.2202  0.4536
 8663SOL    HW137713   8.984   0.247   9.727 -0.2945  1.8032  0.3905
 8663SOL    HW237714   9.104   0.320   9.669  2.0126 -1.8713  0.1761
 8664SOL     OW37715   1.996  10.538   1.960  0.5204 -0.0892  0.1413
 8664SOL    HW137716   1.919  10.596   1.965  0.5396 -0.1583  1.7271
 8664SOL    HW237717   2.070  10.597   1.972  0.5405 -0.3889  1.7400
 8665SOL     OW37718   3.466   1.736   7.825 -0.0693  0.5327  0.3556
 8665SOL    HW137719   3.521   1.679   7.879 -3.7822 -2.1662  1.6942
 8665SOL    HW237720   3.501   1.727   7.737  1.3988 -1.3631  1.0692
 8666SOL     OW37721   6.893   9.506   7.457  0.2293 -0.1123 -0.1336
 8666SOL    HW137722   6.886   9.419   7.496  2.6843 -0.6819 -0.8287
 8666SOL    HW237723   6.802   9.537   7.452 -0.7643 -2.8089 -0.2994
 8667SOL     OW37724   9.848   6.616   5.094 -0.2859 -0.0679 -0.2671
 8667SOL    HW137725   9.873   6.549   5.158  1.8397  0.8421 -0.0620
 8667SOL    HW237726   9.907   6.601   5.020 -2.7463 -1.1392 -2.1468
 8668SOL     OW37727   0.162   2.718   5.873 -0.1110 -0.4954 -0.3508
 8668SOL    HW137728   0.251   2.741   5.900  0.6605 -3.5906  0.1446
 8668SOL    HW237729   0.173   2.642   5.816 -2.3815 -0.0037 -1.5559
 8669SOL     OW37730   4.847   2.479   7.409 -0.1602  0.1513  0.1331
 8669SOL    HW137731   4.845   2.571   7.434 -0.0251  0.3667 -0.6221
 8669SOL    HW237732   4.760   2.462   7.373  0.2278  0.3488 -0.9498
 8670SOL     OW37733   9.054   7.956   7.187 -0.1008 -0.4464 -0.1991
 8670SOL    HW137734   9.030   7.948   7.095 -1.9818  0.2615  0.1938
 8670SOL    HW237735   9.047   8.050   7.206 -2.1355 -0.8317  1.2354
 8671SOL     OW37736   2.077   5.490   0.223 -0.3237  0.5133 -0.4268
 8671SOL    HW137737   2.151   5.516   0.279 -1.2596  0.4337  0.8802
 8671SOL    HW237738   2.082   5.395   0.220  1.2793  0.5789 -2.7050
 8672SOL     OW37739   8.920   0.737   8.482  0.1939  0.1081 -0.0517
 8672SOL    HW137740   8.925   0.828   8.451  1.2025  0.1230  0.1048
 8672SOL    HW237741   8.971   0.737   8.563 -0.9772 -0.3024  0.6979
 8673SOL     OW37742  11.204   1.941   5.649  0.2074 -0.0512  0.5316
 8673SOL    HW137743  11.172   2.031   5.642 -0.5194 -0.4016 -1.2867
 8673SOL    HW237744  11.135   1.896   5.698  0.1929  0.2126  0.7576
 8674SOL     OW37745   1.645   1.065   8.770 -0.2595 -0.2771 -0.3185
 8674SOL    HW137746   1.668   1.023   8.687  0.9378  0.8676 -0.5963
 8674SOL    HW237747   1.665   1.157   8.757 -2.4092  0.3387  0.4460
 8675SOL     OW37748   4.942   6.506  11.463 -0.4193 -0.1021 -0.0766
 8675SOL    HW137749   4.939   6.502  11.558  0.7420 -0.4402 -0.0279
 8675SOL    HW237750   4.989   6.588  11.444  2.6816 -1.7467 -0.1971
 8676SOL     OW37751  11.554   4.767   2.535 -0.2162 -0.2748 -0.4589
 8676SOL    HW137752  11.640   4.734   2.562 -0.2040 -1.2561 -1.6150
 8676SOL    HW237753  11.545   4.850   2.582  0.9486 -0.6050  0.4133
 8677SOL     OW37754   2.750   4.466   0.166 -0.5461 -0.0577 -0.0051
 8677SOL    HW137755   2.811   4.536   0.187  0.3101 -0.4321 -1.1277
 8677SOL    HW237756   2.706   4.446   0.249 -0.8819  1.8420  0.3149
 8678SOL     OW37757   1.524   2.715  10.494  0.5560  0.5979  0.3451
 8678SOL    HW137758   1.448   2.668  10.526  0.5524  0.4493  0.1245
 8678SOL    HW237759   1.501   2.807  10.501  0.4652  0.5609  0.5408
 8679SOL     OW37760   7.968  11.397   9.974 -0.2083 -0.7281 -0.1758
 8679SOL    HW137761   7.928  11.479   9.945  0.0569 -0.1144  1.0958
 8679SOL    HW237762   8.011  11.361   9.897  0.8530  1.0426 -0.4422
 8680SOL     OW37763   2.816   0.750   9.700  0.8860  0.1661 -0.5480
 8680SOL    HW137764   2.844   0.781   9.614 -0.7466  0.6795 -0.9287
 8680SOL    HW237765   2.785   0.828   9.745  1.5535 -0.1334  0.4450
 8681SOL     OW37766   7.567   9.388   7.243  0.1296 -0.3928 -0.1178
 8681SOL    HW137767   7.615   9.398   7.325  1.6944 -0.4839 -0.9774
 8681SOL    HW237768   7.531   9.475   7.225 -0.5316 -0.4606  0.8339
 8682SOL     OW37769   3.977   9.060   2.381 -0.3819  0.2698  0.2628
 8682SOL    HW137770   3.984   9.141   2.432 -0.9971  0.2658  0.3655
 8682SOL    HW237771   3.911   9.080   2.315  0.4761  0.3067 -0.6013
 8683SOL     OW37772   8.851   4.924   2.694  0.0134  0.5884 -0.4259
 8683SOL    HW137773   8.770   4.878   2.675  0.5156  0.9858 -4.3694
 8683SOL    HW237774   8.825   5.016   2.703 -0.1313  0.5746 -0.6740
 8684SOL     OW37775   6.069   0.720   8.679 -0.1794  0.2162  0.0579
 8684SOL    HW137776   5.995   0.693   8.624 -0.1910  0.8996 -0.2770
 8684SOL    HW237777   6.048   0.685   8.765 -0.6108 -0.0895 -0.1631
 8685SOL     OW37778  11.470   1.011   7.589 -0.3796 -0.0300 -0.6905
 8685SOL    HW137779  11.461   0.950   7.516 -0.9374 -0.7572 -0.0322
 8685SOL    HW237780  11.510   0.959   7.659 -1.3412  0.1953  0.0518
 8686SOL     OW37781   8.192   0.348   2.450 -0.4790  0.9770 -0.0323
 8686SOL    HW137782   8.115   0.402   2.469 -0.0255  2.0573 -1.0575
 8686SOL    HW237783   8.227   0.324   2.535 -2.3874 -0.2092  0.4655
 8687SOL     OW37784  11.026   7.083   9.929 -0.2927  0.2399  0.1233
 8687SOL    HW137785  10.979   7.009   9.890 -0.1012 -0.6555  1.5541
 8687SOL    HW237786  11.056   7.134   9.853 -0.7371 -0.9412 -0.8826
 8688SOL     OW37787   2.327   1.763   8.069 -0.7313 -0.0938  0.5766
 8688SOL    HW137788   2.347   1.833   8.006 -1.3062 -0.5707 -0.1520
 8688SOL    HW237789   2.412   1.722   8.086 -0.5918 -0.0962 -0.0693
 8689SOL     OW37790   5.151   2.265   8.290  0.0789 -0.4102  0.4297
 8689SOL    HW137791   5.082   2.318   8.328  0.3459 -0.9728  1.7763
 8689SOL    HW237792   5.149   2.184   8.341  2.0924 -0.2127  0.9112
 8690SOL     OW37793   5.786   3.286  10.195  0.8195 -0.4316 -0.0082
 8690SOL    HW137794   5.730   3.242  10.131  0.8890 -0.4750 -0.0389
 8690SOL    HW237795   5.873   3.285  10.156  1.1934 -1.9013  0.7824
 8691SOL     OW37796   4.172  11.304  11.253  0.0387 -0.6111  0.3333
 8691SOL    HW137797   4.158  11.399  11.253  0.5741 -0.5084 -0.9835
 8691SOL    HW237798   4.085  11.266  11.255 -0.3600 -0.0365 -2.2309
 8692SOL     OW37799   1.915   0.266   2.209 -0.2185 -0.4642 -0.4852
 8692SOL    HW137800   1.942   0.307   2.126 -1.1252  1.3180  0.0406
 8692SOL    HW237801   1.989   0.280   2.267 -0.8701  1.4656 -0.0170
 8693SOL     OW37802   4.833   8.650  10.112 -0.4284  0.0994  0.1427
 8693SOL    HW137803   4.820   8.560  10.084  0.1131 -0.3117  1.1431
 8693SOL    HW237804   4.918   8.675  10.075 -0.9952  0.5212 -0.8943
 8694SOL     OW37805   4.383   3.273   5.153 -0.2591 -0.7857  0.2329
 8694SOL    HW137806   4.424   3.258   5.238 -0.7413  0.0607  0.6208
 8694SOL    HW237807   4.343   3.189   5.131  1.4255 -1.5639 -0.0374
 8695SOL     OW37808   4.578  11.502   2.570  0.0349 -0.0576 -0.0425
 8695SOL    HW137809   4.670  11.480   2.586 -0.1399 -0.2297  0.7226
 8695SOL    HW237810   4.529  11.450   2.632 -0.3476  3.2304  2.7135
 8696SOL     OW37811   4.259   9.450   7.112 -0.0217  0.1840 -0.5373
 8696SOL    HW137812   4.212   9.381   7.159  1.5982 -0.8540 -0.3679
 8696SOL    HW237813   4.251   9.527   7.169  2.5593 -1.2256  2.0326
 8697SOL     OW37814   2.838   6.522   1.681  0.3469  0.1466 -0.8733
 8697SOL    HW137815   2.807   6.479   1.602 -1.1032 -1.1243  0.3350
 8697SOL    HW237816   2.822   6.615   1.665  0.7153 -0.0189 -2.3296
 8698SOL     OW37817  10.489   2.456   2.401 -0.0950  0.1425 -0.1881
 8698SOL    HW137818  10.496   2.365   2.430  0.1153 -0.2500 -1.3868
 8698SOL    HW237819  10.571   2.497   2.429  0.3061 -0.3473 -0.6348
 8699SOL     OW37820   6.679   1.123  11.709 -0.2428  0.3011 -0.1419
 8699SOL    HW137821   6.766   1.154  11.732  0.3184 -0.5415 -1.0494
 8699SOL    HW237822   6.654   1.177  11.633 -0.1674  0.0133 -0.3757
 8700SOL     OW37823   8.375   2.272   9.026  0.2980  0.6790 -0.6313
 8700SOL    HW137824   8.301   2.323   9.058 -0.4135 -0.6114 -0.1467
 8700SOL    HW237825   8.335   2.207   8.967  0.7029 -1.4949  1.3502
 8701SOL     OW37826   2.689   2.150   4.283  0.3088  0.4816  0.3648
 8701SOL    HW137827   2.671   2.163   4.376  2.0590 -0.7596  0.9246
 8701SOL    HW237828   2.761   2.211   4.264  1.6874 -1.0395  0.5020
 8702SOL     OW37829   1.934   3.018   0.256 -0.4566  0.8779 -0.2129
 8702SOL    HW137830   1.920   3.031   0.350 -0.1593  0.9478 -0.1751
 8702SOL    HW237831   1.848   2.999   0.221 -0.4655  0.1178  0.1984
 8703SOL     OW37832   1.309   4.486  11.460  0.1524  0.2097  0.0799
 8703SOL    HW137833   1.386   4.512  11.409 -0.2391  0.7264 -0.2664
 8703SOL    HW237834   1.276   4.569  11.496 -0.3831  0.0228  0.0211
 8704SOL     OW37835  11.338   5.122  10.621  0.5425  0.3539  0.3111
 8704SOL    HW137836  11.405   5.133  10.688  0.5891  0.8275  0.1930
 8704SOL    HW237837  11.260   5.092  10.668  1.3280 -1.9749  0.2243
 8705SOL     OW37838   6.645   4.697   4.758  0.1615  0.8553 -0.1030
 8705SOL    HW137839   6.728   4.716   4.800 -0.2748 -0.4320  1.4369
 8705SOL    HW237840   6.583   4.685   4.830 -0.2203 -3.2424 -0.8239
 8706SOL     OW37841   0.591   0.090   9.062 -0.7959 -0.7171 -0.2312
 8706SOL    HW137842   0.549   0.163   9.016 -1.5070  0.3157  1.9535
 8706SOL    HW237843   0.563   0.098   9.153  1.0946 -2.2822  0.5787
 8707SOL     OW37844   8.097   0.561   0.539 -0.4058  0.4054 -0.2513
 8707SOL    HW137845   8.039   0.593   0.609 -1.2436  1.9078 -1.5590
 8707SOL    HW237846   8.134   0.641   0.501 -0.3223 -0.3576 -1.8290
 8708SOL     OW37847   0.177   4.358   2.078 -0.4665 -0.1092 -0.2472
 8708SOL    HW137848   0.140   4.352   2.166  0.3600  1.8337  0.2905
 8708SOL    HW237849   0.251   4.298   2.078 -1.0348 -0.8267  0.0576
 8709SOL     OW37850   2.476   4.916  10.051  0.4259  0.0147  0.2022
 8709SOL    HW137851   2.382   4.925  10.067  0.4479  0.3920  0.1441
 8709SOL    HW237852   2.493   4.822  10.058  0.1572  0.0058  0.8252
 8710SOL     OW37853   4.827  11.604  11.683  0.3839 -0.4784  0.0863
 8710SOL    HW137854   4.737  11.579  11.705  0.0247  1.2894  0.7285
 8710SOL    HW237855   4.881  11.552  11.743 -0.3948  0.8419  2.0353
 8711SOL     OW37856   5.667   2.815   9.061 -0.2148 -0.5041  0.1261
 8711SOL    HW137857   5.725   2.746   9.091  1.9395  1.2823  0.3367
 8711SOL    HW237858   5.706   2.846   8.979 -1.2331  0.3341 -0.0819
 8712SOL     OW37859   1.900   3.667  10.060  0.0498 -0.2767 -0.1800
 8712SOL    HW137860   1.950   3.705  10.132 -1.4327  0.5286  0.4503
 8712SOL    HW237861   1.929   3.716   9.983  0.0801  0.3450  0.2179
 8713SOL     OW37862   1.449   4.715   3.796 -0.5206  0.0217 -0.1415
 8713SOL    HW137863   1.358   4.745   3.793  0.0151  1.9676  1.1904
 8713SOL    HW237864   1.496   4.787   3.838  1.1518 -2.0794  1.8009
 8714SOL     OW37865   9.219   6.546   5.439 -0.0399 -0.6751  0.3305
 8714SOL    HW137866   9.306   6.538   5.478 -0.4588 -0.7254  1.2909
 8714SOL    HW237867   9.215   6.635   5.405 -0.4070  0.1282  2.3296
 8715SOL     OW37868   9.447   0.671   6.501  0.6286  0.2251  0.1129
 8715SOL    HW137869   9.494   0.591   6.479  0.0330 -0.9746  2.8312
 8715SOL    HW237870   9.370   0.670   6.444  1.1841 -0.5570 -0.6470
 8716SOL     OW37871   9.806   4.544   8.579 -0.2214 -0.2793  0.0308
 8716SOL    HW137872   9.790   4.468   8.522 -0.4146  0.2032 -0.5674
 8716SOL    HW237873   9.901   4.557   8.575 -0.3843  0.6951 -1.4356
 8717SOL     OW37874   9.730   0.634  10.845  0.5545 -0.0120 -0.4328
 8717SOL    HW137875   9.645   0.678  10.857  0.5998 -0.0593  0.0915
 8717SOL    HW237876   9.785   0.669  10.915  0.6833 -0.6813 -0.1910
 8718SOL     OW37877   8.971   6.173   5.408 -0.0948 -0.0940 -0.1624
 8718SOL    HW137878   9.044   6.155   5.349 -0.7427  0.8678 -1.2929
 8718SOL    HW237879   8.896   6.185   5.350 -0.6239  1.5116  0.8112
 8719SOL     OW37880   0.683   9.429   5.412 -0.3980 -0.4154 -0.2500
 8719SOL    HW137881   0.644   9.450   5.497 -0.2449 -0.4743 -0.1652
 8719SOL    HW237882   0.700   9.335   5.415 -0.3076 -0.4013 -0.3119
 8720SOL     OW37883   4.076   6.254   4.800  0.0323  0.1343 -0.9816
 8720SOL    HW137884   4.149   6.237   4.741  0.0564  0.6540 -1.1091
 8720SOL    HW237885   4.116   6.264   4.886 -0.0022 -0.6145 -0.8719
 8721SOL     OW37886   7.471   2.061   7.322  0.1535  0.5265  0.2974
 8721SOL    HW137887   7.514   2.146   7.332 -0.4542  0.8338  0.3476
 8721SOL    HW237888   7.398   2.079   7.263  0.5818 -0.1633 -0.4557
 8722SOL     OW37889   0.978   3.035   7.828 -0.1984  0.0334 -0.2987
 8722SOL    HW137890   1.002   2.951   7.866 -1.0499 -0.3890 -0.6544
 8722SOL    HW237891   1.016   3.100   7.887 -0.0509 -0.6036  0.3207
 8723SOL     OW37892   6.077   9.149  11.578 -0.1908  0.1439 -0.0902
 8723SOL    HW137893   6.097   9.108  11.494  1.3572 -0.3774  0.5032
 8723SOL    HW237894   6.149   9.210  11.593  0.2868 -0.7425  1.4652
 8724SOL     OW37895   5.409   3.461  10.646  0.2089  0.0141  0.1678
 8724SOL    HW137896   5.325   3.452  10.602 -0.4816  3.1978  0.6042
 8724SOL    HW237897   5.458   3.523  10.592  1.7950 -0.7714  0.6379
 8725SOL     OW37898   8.744   4.914  11.088 -0.6656 -0.0452 -0.0847
 8725SOL    HW137899   8.752   5.009  11.092 -0.6945 -0.0582  0.4121
 8725SOL    HW237900   8.692   4.891  11.166 -1.6156 -0.3680 -0.7904
 8726SOL     OW37901   2.466   1.862   7.037  0.5354 -0.1119 -0.0185
 8726SOL    HW137902   2.395   1.849   6.975 -0.4594 -0.2752  1.1256
 8726SOL    HW237903   2.463   1.785   7.094  0.5890  0.6480  1.0427
 8727SOL     OW37904   7.722   1.947   1.162  0.0641 -0.1161 -0.7620
 8727SOL    HW137905   7.696   2.009   1.230 -0.0728 -0.0580 -0.8685
 8727SOL    HW237906   7.695   1.988   1.080  4.3451  2.1267 -1.3471
 8728SOL     OW37907  11.559   1.998   3.407 -0.2717  0.1609 -0.2873
 8728SOL    HW137908  11.638   2.047   3.384 -0.3126  1.2221  1.6268
 8728SOL    HW237909  11.576   1.965   3.495 -0.9019 -1.9736 -0.8922
 8729SOL     OW37910  11.554   4.757   5.430  0.5280  0.6912 -0.4015
 8729SOL    HW137911  11.492   4.689   5.452  0.3997  0.4825 -1.3732
 8729SOL    HW237912  11.544   4.770   5.336  0.9488  1.6515 -0.3314
 8730SOL     OW37913   3.359   6.276   3.179  0.5386 -0.2593  0.2381
 8730SOL    HW137914   3.346   6.371   3.188  1.8590  0.2018 -1.9284
 8730SOL    HW237915   3.346   6.242   3.267 -1.8492  1.6644  0.7359
 8731SOL     OW37916   0.453   1.987   0.066  0.4921  0.0895  0.5306
 8731SOL    HW137917   0.525   1.925   0.073  1.6997  1.4122  0.3331
 8731SOL    HW237918   0.374   1.933   0.067  1.5356 -1.6946 -2.1839
 8732SOL     OW37919   3.147  11.553  10.092 -0.2131 -0.6029 -0.3982
 8732SOL    HW137920   3.114  11.641  10.073 -0.1432 -0.3851  0.4350
 8732SOL    HW237921   3.218  11.567  10.155 -1.0070 -1.3182  0.7031
 8733SOL     OW37922   3.900   9.589   8.417 -0.5633  0.0297 -0.2088
 8733SOL    HW137923   3.807   9.586   8.438 -0.8604 -0.8477 -1.5399
 8733SOL    HW237924   3.939   9.639   8.489 -2.0949  0.6731  0.2180
 8734SOL     OW37925   4.356   5.456   5.739 -0.7349 -0.2553 -0.1272
 8734SOL    HW137926   4.326   5.519   5.674 -3.7629 -0.4958  0.8815
 8734SOL    HW237927   4.306   5.377   5.720  1.4470 -1.7471 -0.0642
 8735SOL     OW37928   7.586  10.249   8.118  0.1357 -0.0514 -0.4406
 8735SOL    HW137929   7.590  10.344   8.113 -0.9637  0.0043 -0.5956
 8735SOL    HW237930   7.508  10.231   8.170 -0.4127 -0.8767 -1.5034
 8736SOL     OW37931   9.016   3.587   9.312 -0.3677  0.0887  0.0791
 8736SOL    HW137932   8.993   3.498   9.338 -0.8369 -0.0998 -0.9075
 8736SOL    HW237933   8.985   3.643   9.383 -1.5415 -0.4020 -0.0281
 8737SOL     OW37934   4.639  10.953   8.093 -0.2409 -0.1296 -0.0920
 8737SOL    HW137935   4.671  10.892   8.160  0.3757  0.5915  0.2742
 8737SOL    HW237936   4.568  11.001   8.136 -2.6433 -2.4049 -1.1885
 8738SOL     OW37937   1.221   7.863   6.633 -0.3017 -0.3231 -0.2831
 8738SOL    HW137938   1.313   7.837   6.631 -0.2895 -0.2730 -0.3829
 8738SOL    HW237939   1.215   7.923   6.707 -0.2163 -0.1891 -0.3827
 8739SOL     OW37940  10.356  10.423   4.371  0.4592  0.2567  0.5726
 8739SOL    HW137941  10.289  10.391   4.311  0.1879 -1.8898  1.9002
 8739SOL    HW237942  10.330  10.513   4.390 -1.0154  0.0650 -0.3552
 8740SOL     OW37943  11.716   8.627   7.172 -0.0536 -0.2846  0.3171
 8740SOL    HW137944  11.764   8.672   7.102  1.0353 -1.2173  0.4361
 8740SOL    HW237945  11.747   8.537   7.167  0.7243 -0.1851  2.5961
 8741SOL     OW37946   0.961   1.829   2.128  0.6048  0.2122  0.0998
 8741SOL    HW137947   0.925   1.856   2.213 -0.7718 -0.3699 -0.2702
 8741SOL    HW237948   0.914   1.882   2.064  0.7263 -0.2413 -0.3716
 8742SOL     OW37949   4.083   8.026   5.087  0.2508  0.0209 -0.1890
 8742SOL    HW137950   4.149   8.023   5.018  1.7262  1.7830  1.0858
 8742SOL    HW237951   4.062   8.119   5.098 -1.2296 -0.3592  0.5866
 8743SOL     OW37952   3.602  11.126   5.440 -0.1554  0.2498  0.3171
 8743SOL    HW137953   3.622  11.039   5.404  1.8562  0.6643  0.3194
 8743SOL    HW237954   3.509  11.122   5.462  0.0016 -2.0791  0.8145
 8744SOL     OW37955   6.129   2.468   8.813 -0.2125  0.4563 -0.8559
 8744SOL    HW137956   6.110   2.466   8.906  0.2172  0.0887 -0.7713
 8744SOL    HW237957   6.074   2.400   8.775 -0.1154  0.3553 -0.8162
 8745SOL     OW37958   8.417   0.255   8.774  0.3550 -0.0168  0.3593
 8745SOL    HW137959   8.332   0.291   8.799  0.3453  0.0179  0.2777
 8745SOL    HW237960   8.412   0.248   8.678 -0.1173 -1.3917  0.4628
 8746SOL     OW37961  11.254   2.886  10.032 -0.2585  0.0410  0.0599
 8746SOL    HW137962  11.235   2.806  10.081 -2.9700 -0.1960 -1.1633
 8746SOL    HW237963  11.322   2.860   9.969 -1.3161 -1.4531 -0.5278
 8747SOL     OW37964   7.397   3.209  11.788 -0.1504  0.0126 -0.2502
 8747SOL    HW137965   7.375   3.238  11.700  0.0844  0.0669 -0.2914
 8747SOL    HW237966   7.312   3.195  11.831 -0.2711  0.6543 -0.2663
 8748SOL     OW37967   3.125   0.085  10.263 -0.2624 -0.6493 -0.5483
 8748SOL    HW137968   3.173   0.044  10.335  1.0954  1.1068 -0.4155
 8748SOL    HW237969   3.190   0.135  10.214 -2.0630  3.1056  0.5081
 8749SOL     OW37970   4.212  11.302   7.999  0.2082  0.0247  0.2444
 8749SOL    HW137971   4.294  11.308   7.950 -0.0926 -0.1798 -0.2968
 8749SOL    HW237972   4.193  11.392   8.025  0.0792  0.2318 -0.5226
 8750SOL     OW37973   9.907   0.027   0.800 -0.1833 -0.1282  0.1952
 8750SOL    HW137974   9.970   0.042   0.729 -0.7167  1.7641  0.0514
 8750SOL    HW237975   9.962   0.020   0.878  0.3535 -1.3012 -0.2622
 8751SOL     OW37976   9.786   1.173   8.221  0.0681  0.1679 -0.4301
 8751SOL    HW137977   9.817   1.145   8.307  0.4279 -0.3684 -0.7271
 8751SOL    HW237978   9.695   1.201   8.236 -0.4928 -1.6636 -0.2037
 8752SOL     OW37979  10.148   3.852   3.205 -0.0279  0.1020  0.2507
 8752SOL    HW137980  10.086   3.854   3.278  1.4365  0.1480  1.5364
 8752SOL    HW237981  10.203   3.929   3.218  1.7144 -1.1278  0.4354
 8753SOL     OW37982  10.308   6.271   9.901 -0.5724  0.1129  0.6704
 8753SOL    HW137983  10.261   6.190   9.881 -1.4305  0.9359 -0.8298
 8753SOL    HW237984  10.309   6.275   9.996  0.6480 -2.2889  0.8462
 8754SOL     OW37985   6.288   7.901   4.862  0.0988  0.5970 -0.0896
 8754SOL    HW137986   6.256   7.847   4.933 -0.9902  0.1610 -0.8762
 8754SOL    HW237987   6.254   7.859   4.783  0.4344  1.6269 -0.8027
 8755SOL     OW37988   0.983   0.957   7.235 -0.4372  0.1650  0.0211
 8755SOL    HW137989   1.002   0.997   7.150  0.8767 -0.6970 -0.1230
 8755SOL    HW237990   1.034   0.876   7.236 -2.0399 -0.9025  0.8106
 8756SOL     OW37991  11.215   7.181   4.876  0.0167 -0.2777 -0.0705
 8756SOL    HW137992  11.237   7.204   4.966  0.7822  0.9103 -0.5293
 8756SOL    HW237993  11.267   7.242   4.823  0.0657 -1.3693 -1.3276
 8757SOL     OW37994   5.960   4.493   3.431 -0.0150 -0.6729 -0.0148
 8757SOL    HW137995   5.882   4.458   3.388 -0.1234 -1.7380  1.0146
 8757SOL    HW237996   5.936   4.583   3.454 -0.3294 -0.4371 -1.1722
 8758SOL     OW37997   8.827   1.623   1.068 -0.1933 -0.2956 -0.3897
 8758SOL    HW137998   8.865   1.702   1.031  0.7409 -0.2628  0.5781
 8758SOL    HW237999   8.773   1.587   0.998 -1.3848  1.6717 -0.5644
 8759SOL     OW38000   0.064   6.324  10.931  0.3301  0.6677  0.1103
 8759SOL    HW138001   0.035   6.361  10.848  2.2848  1.1537 -0.4125
 8759SOL    HW238002  -0.006   6.345  10.993 -0.5223  1.5139 -1.1025
 8760SOL     OW38003  10.144  11.254   6.067  0.5538 -0.3122 -0.3728
 8760SOL    HW138004  10.090  11.177   6.089 -0.9174  1.1337  1.4514
 8760SOL    HW238005  10.118  11.277   5.978 -0.6735 -0.6312 -0.1208
 8761SOL     OW38006   1.274   9.660  11.548 -0.5128  0.0286  0.2586
 8761SOL    HW138007   1.331   9.656  11.625  0.5966 -1.1592 -0.5885
 8761SOL    HW238008   1.204   9.597  11.567 -0.6121  0.2244  0.5608
 8762SOL     OW38009   7.902   7.850   5.122  1.0795  0.0365  0.1521
 8762SOL    HW138010   7.898   7.781   5.189 -2.6069 -0.3656 -0.2412
 8762SOL    HW238011   7.950   7.921   5.163  0.2019 -0.7296  2.7126
 8763SOL     OW38012   2.920   4.458   3.767 -0.0432 -0.4023  0.0077
 8763SOL    HW138013   2.946   4.525   3.829  0.7974 -0.1773 -0.5792
 8763SOL    HW238014   2.922   4.376   3.818 -0.6490 -0.0546  0.6076
 8764SOL     OW38015   0.704   2.070   3.933 -0.2044 -0.0503 -0.4233
 8764SOL    HW138016   0.787   2.063   3.885  0.4545 -0.0490  0.6616
 8764SOL    HW238017   0.669   2.155   3.907 -0.6614 -0.7200 -2.0872
 8765SOL     OW38018  10.168   7.631   5.429  0.5851  0.4992 -0.0917
 8765SOL    HW138019  10.144   7.543   5.400 -1.2257  0.8310  0.3005
 8765SOL    HW238020  10.264   7.632   5.424  0.7489 -1.8956  1.0249
 8766SOL     OW38021   3.070   1.815   4.989  0.3365  0.6789  0.0507
 8766SOL    HW138022   3.046   1.892   4.938 -0.1482 -0.3542 -1.3504
 8766SOL    HW238023   3.096   1.850   5.074 -1.0651  2.2873 -0.1253
 8767SOL     OW38024   9.618  11.221  10.663  0.4011 -0.3657 -0.8290
 8767SOL    HW138025   9.532  11.224  10.706  0.5379 -0.4746 -0.5433
 8767SOL    HW238026   9.642  11.313  10.652  0.3556 -0.3345 -0.6856
 8768SOL     OW38027   6.224   7.564   6.236  0.3410 -0.0500 -0.1127
 8768SOL    HW138028   6.258   7.634   6.181 -1.4862  0.9925 -0.0068
 8768SOL    HW238029   6.183   7.609   6.310  0.4532 -1.3064  0.7508
 8769SOL     OW38030   4.334   4.847   8.951  0.3921  0.5202  0.5354
 8769SOL    HW138031   4.396   4.858   9.023  0.9314  0.0679  0.1516
 8769SOL    HW238032   4.357   4.762   8.913 -0.5246  0.3064  0.4419
 8770SOL     OW38033  10.201   9.771  10.268  0.1482 -0.3450  0.0198
 8770SOL    HW138034  10.148   9.756  10.346  0.7300 -0.9216  0.3084
 8770SOL    HW238035  10.142   9.818  10.208 -0.8449 -1.3524  0.1644
 8771SOL     OW38036   9.146   7.327  10.139  0.2613 -0.5481 -0.3902
 8771SOL    HW138037   9.215   7.322  10.205 -1.3615 -0.7335  1.3632
 8771SOL    HW238038   9.130   7.421  10.128 -0.4688 -0.5353  0.6211
 8772SOL     OW38039   0.473  11.951   6.219 -0.3159  0.4689  0.1869
 8772SOL    HW138040   0.560  11.977   6.248  0.1436 -0.6703 -0.1400
 8772SOL    HW238041   0.424  12.034   6.214  0.9244  1.1975 -0.2720
 8773SOL     OW38042  10.799   4.528  10.443  0.4511  0.1385 -0.2515
 8773SOL    HW138043  10.764   4.483  10.365  1.1547 -1.7631  0.4702
 8773SOL    HW238044  10.746   4.494  10.515  0.3779  1.2389  0.2324
 8774SOL     OW38045   3.797   7.228   6.161 -0.2378 -0.0970  0.0652
 8774SOL    HW138046   3.871   7.200   6.108 -0.2578 -0.8888  0.4522
 8774SOL    HW238047   3.744   7.150   6.173 -0.7762  0.3052  0.3798
 8775SOL     OW38048   9.184  11.535   3.027  0.1340  0.1922 -0.4782
 8775SOL    HW138049   9.170  11.568   3.115  0.2545  2.3493 -1.2177
 8775SOL    HW238050   9.279  11.535   3.016  0.0891  1.5812 -1.1459
 8776SOL     OW38051   5.891   0.366   8.728  0.4578 -0.5642 -0.6396
 8776SOL    HW138052   5.861   0.429   8.794  0.6346  0.1585 -1.2420
 8776SOL    HW238053   5.855   0.282   8.758 -0.6895 -0.0074 -0.4005
 8777SOL     OW38054   5.733   7.689   3.288 -0.0688 -0.7036 -0.4912
 8777SOL    HW138055   5.696   7.717   3.204  0.4902 -0.6578 -0.7253
 8777SOL    HW238056   5.761   7.599   3.272 -0.9265 -1.0594 -0.0398
 8778SOL     OW38057   8.683   1.033   1.791 -0.2790 -0.1896 -0.3024
 8778SOL    HW138058   8.660   1.121   1.763  0.8348  0.2903  0.2018
 8778SOL    HW238059   8.714   1.044   1.881  2.4731 -0.6152 -1.0824
 8779SOL     OW38060   6.186   1.747   6.115 -0.3596 -0.4830 -0.1066
 8779SOL    HW138061   6.209   1.817   6.054 -2.2473  1.0239  0.7910
 8779SOL    HW238062   6.269   1.709   6.141  0.6783  0.9171 -1.2233
 8780SOL     OW38063   3.619  10.695   5.952 -0.0488 -0.3469  0.3474
 8780SOL    HW138064   3.573  10.663   6.029 -0.5770  1.4157  0.8145
 8780SOL    HW238065   3.696  10.740   5.986 -0.5626  0.9174 -0.0560
 8781SOL     OW38066   1.932   7.840   1.727 -0.2736  0.6315  0.1168
 8781SOL    HW138067   2.000   7.791   1.681 -0.5887 -0.1292  0.4381
 8781SOL    HW238068   1.935   7.807   1.817 -1.2288  0.4088  0.0770
 8782SOL     OW38069  10.996   3.526   2.227  0.1642 -0.2069 -0.0681
 8782SOL    HW138070  11.062   3.496   2.164  0.3985  0.3790 -0.1049
 8782SOL    HW238071  10.924   3.557   2.172  0.0365 -0.4378 -0.0326
 8783SOL     OW38072  10.357   4.004  10.580  0.3528  0.0664  0.6361
 8783SOL    HW138073  10.411   3.992  10.658  2.0484 -2.6696 -0.7950
 8783SOL    HW238074  10.407   4.064  10.525  0.9751 -0.8534  0.1760
 8784SOL     OW38075   7.467   7.635   1.979 -0.2256  0.1816  0.5629
 8784SOL    HW138076   7.446   7.555   2.027  0.5676 -0.8689 -0.7606
 8784SOL    HW238077   7.383   7.678   1.965 -0.6642 -0.4350  1.2720
 8785SOL     OW38078   5.458   8.134   1.179 -0.1515 -0.0437  0.3043
 8785SOL    HW138079   5.402   8.174   1.245  1.0607 -0.0617  1.3692
 8785SOL    HW238080   5.437   8.041   1.184 -0.8247  0.0761 -0.1001
 8786SOL     OW38081   4.746   6.056   9.223  0.0788 -0.3793 -0.0227
 8786SOL    HW138082   4.696   6.131   9.254  3.4202  2.1758 -0.3054
 8786SOL    HW238083   4.810   6.038   9.292  1.0202 -1.2453 -1.0621
 8787SOL     OW38084   4.639   9.312   6.143 -0.5356  0.2475  0.9672
 8787SOL    HW138085   4.550   9.332   6.172 -1.5001  0.2341 -1.6873
 8787SOL    HW238086   4.693   9.382   6.180 -1.7803  0.7330  1.9304
 8788SOL     OW38087   1.528   2.225  10.071  0.1009 -0.2268 -0.2933
 8788SOL    HW138088   1.520   2.173  10.152  0.7865  0.2130  0.0635
 8788SOL    HW238089   1.442   2.263  10.059 -0.3543 -1.2571 -0.4314
 8789SOL     OW38090   6.073  11.208   9.954 -0.0595  0.4739  0.1520
 8789SOL    HW138091   6.155  11.158   9.954 -0.2610  0.1102 -0.9341
 8789SOL    HW238092   6.062  11.235   9.863 -1.5995 -0.2609  0.0810
 8790SOL     OW38093   2.988   8.393   7.037  0.2205  0.3151  0.1103
 8790SOL    HW138094   2.975   8.361   6.948 -0.8306 -0.6474  0.5849
 8790SOL    HW238095   3.075   8.434   7.036  0.4953 -0.2676 -1.1772
 8791SOL     OW38096   1.812   5.429   1.893 -0.2703 -0.1395 -0.5508
 8791SOL    HW138097   1.803   5.334   1.890 -3.1218  0.0318 -0.0491
 8791SOL    HW238098   1.853   5.447   1.978  0.3375 -0.8998 -0.6717
 8792SOL     OW38099   2.543   2.499   2.732 -0.0908 -0.1048  0.1993
 8792SOL    HW138100   2.543   2.586   2.772  0.2217 -0.0987  0.1915
 8792SOL    HW238101   2.620   2.456   2.769 -1.0745 -0.9256  1.3843
 8793SOL     OW38102   3.482   3.951   0.087 -0.6899  0.1262  0.4856
 8793SOL    HW138103   3.496   3.869   0.040 -1.1904 -0.3386  1.1343
 8793SOL    HW238104   3.517   4.018   0.028 -3.1535 -0.1959 -1.5371
 8794SOL     OW38105  10.076   0.916   0.203 -0.2686  0.3912 -0.4983
 8794SOL    HW138106  10.068   0.924   0.298 -0.5286 -0.0328 -0.4859
 8794SOL    HW238107  10.042   0.999   0.170 -0.8163  0.2700 -0.2531
 8795SOL     OW38108   4.530   5.780   6.011 -0.1479  0.8918  0.0911
 8795SOL    HW138109   4.575   5.754   5.930 -1.0713 -0.9249  0.1231
 8795SOL    HW238110   4.543   5.707   6.071 -2.8191  0.4109  0.2062
 8796SOL     OW38111   5.028   4.878   6.983 -0.4312  0.0189 -0.0302
 8796SOL    HW138112   5.066   4.805   7.031  1.2034  0.1267 -1.0586
 8796SOL    HW238113   4.934   4.870   6.996 -0.2210 -1.7228  0.6318
 8797SOL     OW38114   5.438  10.337   9.884 -0.2762  0.2314  0.0923
 8797SOL    HW138115   5.347  10.362   9.865 -1.0519 -2.3832 -0.0462
 8797SOL    HW238116   5.433  10.298   9.971  0.9866  1.1637  0.6031
 8798SOL     OW38117   6.282   1.531  10.331  0.1736  0.8683  0.8815
 8798SOL    HW138118   6.353   1.532  10.267  0.2478 -0.9620  0.9010
 8798SOL    HW238119   6.326   1.541  10.415  0.6871 -2.0530  1.0597
 8799SOL     OW38120   2.286   2.785   1.296  0.2729 -0.9885  0.3064
 8799SOL    HW138121   2.198   2.759   1.271  0.5988 -0.8954 -1.0352
 8799SOL    HW238122   2.310   2.853   1.233  1.7355 -1.8538 -0.1342
 8800SOL     OW38123  10.837  10.053   6.826  0.1872 -0.5699  0.0243
 8800SOL    HW138124  10.772  10.060   6.897 -0.1656  0.8579 -0.4208
 8800SOL    HW238125  10.909  10.110   6.853 -1.1756  2.3560 -2.0040
 8801SOL     OW38126   7.364   3.867   6.948 -0.1308 -0.0982  0.0625
 8801SOL    HW138127   7.285   3.917   6.965 -0.3968 -0.7723  0.8792
 8801SOL    HW238128   7.431   3.907   7.003 -0.1660 -0.1857  0.1696
 8802SOL     OW38129   3.118   6.754   8.537  0.2450  0.3280  0.5645
 8802SOL    HW138130   3.111   6.659   8.522  2.4543 -0.2133  2.3576
 8802SOL    HW238131   3.100   6.764   8.631  0.3688  1.6385  0.4533
 8803SOL     OW38132   1.476   7.010   2.591  0.0783  0.1582 -0.1925
 8803SOL    HW138133   1.497   7.062   2.514 -0.6557  0.8315  0.0485
 8803SOL    HW238134   1.541   7.036   2.656  0.6395 -0.3407 -0.5434
 8804SOL     OW38135   5.886   1.870   8.064  0.8775  0.4468  0.0005
 8804SOL    HW138136   5.942   1.839   7.993  1.5717  0.4781  0.5298
 8804SOL    HW238137   5.850   1.952   8.031 -2.3597 -1.5972 -2.1471
 8805SOL     OW38138   2.182   4.764   5.504 -0.2999  0.8802  0.3667
 8805SOL    HW138139   2.187   4.839   5.564  0.5567  2.5296 -1.6390
 8805SOL    HW238140   2.169   4.803   5.418  1.4091 -1.1807 -0.9403
 8806SOL     OW38141   0.353   1.136   5.640 -0.2279  0.1407  0.0677
 8806SOL    HW138142   0.334   1.149   5.547  0.5433  0.5016 -0.0499
 8806SOL    HW238143   0.283   1.078   5.671  0.4781 -1.4123 -1.1328
 8807SOL     OW38144   6.819   0.618   7.913 -0.4626 -0.0186 -0.0245
 8807SOL    HW138145   6.906   0.634   7.950 -0.3391 -1.0653  0.1855
 8807SOL    HW238146   6.759   0.642   7.982 -0.3207  0.2954 -0.0103
 8808SOL     OW38147   1.532   4.579   3.535 -0.1236  0.0353 -0.1518
 8808SOL    HW138148   1.582   4.640   3.589  1.9772 -1.6376 -0.0827
 8808SOL    HW238149   1.490   4.520   3.598 -0.4892  0.1698 -0.2681
 8809SOL     OW38150   8.970   5.811   5.411 -0.1547  0.1070  0.0166
 8809SOL    HW138151   8.932   5.852   5.333 -0.1699  2.7499  1.3268
 8809SOL    HW238152   9.063   5.833   5.407  0.2065 -1.2841 -0.1090
 8810SOL     OW38153   0.254   5.221   1.302  0.6563  0.2549  0.6366
 8810SOL    HW138154   0.190   5.282   1.338  1.6971  1.6355  0.2099
 8810SOL    HW238155   0.246   5.231   1.208 -2.3359 -3.6227  0.2165
 8811SOL     OW38156  10.972   1.827   0.963 -0.5480  0.1631 -0.2748
 8811SOL    HW138157  10.977   1.920   0.987  0.7647  0.1070 -0.2962
 8811SOL    HW238158  10.888   1.798   0.998 -0.0901  0.8634  1.4869
 8812SOL     OW38159   5.971  11.191   6.784  0.3689  0.0443 -0.6511
 8812SOL    HW138160   6.004  11.214   6.871  0.8602  0.1947 -0.8706
 8812SOL    HW238161   6.028  11.120   6.754  0.3454  0.1431 -0.9389
 8813SOL     OW38162   9.363   8.952   1.246 -0.0246  0.1603 -0.2527
 8813SOL    HW138163   9.277   8.962   1.287 -0.4079  1.9939 -1.3728
 8813SOL    HW238164   9.425   8.978   1.313 -0.5280  1.2663 -0.1867
 8814SOL     OW38165   6.379   3.923   5.420 -0.3470 -0.2484 -0.3986
 8814SOL    HW138166   6.457   3.973   5.395  0.2435 -0.1425  1.5347
 8814SOL    HW238167   6.392   3.900   5.512 -0.9048 -3.3980 -0.9549
 8815SOL     OW38168   2.983   6.322   6.275 -0.2160  0.2461 -0.7685
 8815SOL    HW138169   2.899   6.276   6.274 -0.7556  1.1307  0.6031
 8815SOL    HW238170   3.019   6.304   6.362  1.1936 -0.3828 -1.4387
 8816SOL     OW38171   3.950  11.766   2.982 -0.1030  0.1491  0.0910
 8816SOL    HW138172   3.908  11.685   3.011 -0.6288  0.1209 -0.7304
 8816SOL    HW238173   3.995  11.742   2.901  1.8472  0.0810  1.1161
 8817SOL     OW38174  10.459  10.598   5.146  0.0934 -0.3343  0.3251
 8817SOL    HW138175  10.465  10.596   5.050 -0.5850 -0.7088  0.2872
 8817SOL    HW238176  10.366  10.608   5.165  0.2530  0.0194  0.9469
 8818SOL     OW38177   6.886  10.102   3.824  0.1189  0.0317  0.1876
 8818SOL    HW138178   6.822  10.160   3.782  1.0493 -1.0504 -3.0942
 8818SOL    HW238179   6.959  10.160   3.847 -1.0065  0.8908  1.7846
 8819SOL     OW38180   0.626   5.946  11.035 -0.1386 -0.4606  0.2468
 8819SOL    HW138181   0.665   5.963  11.121 -1.7269  1.0975  0.7220
 8819SOL    HW238182   0.568   5.871  11.049 -3.0503  1.8144  1.5472
 8820SOL     OW38183   4.805   5.481   3.852 -0.4102 -0.0811 -0.1541
 8820SOL    HW138184   4.812   5.569   3.813  0.6938  0.6894  1.6615
 8820SOL    HW238185   4.872   5.430   3.807  0.6502  0.7122  0.4622
 8821SOL     OW38186   1.887   3.883   6.272 -0.0572  0.2237  0.7632
 8821SOL    HW138187   1.815   3.885   6.208 -0.0482  1.1870  0.7699
 8821SOL    HW238188   1.848   3.914   6.353  0.2628  0.3002  0.8885
 8822SOL     OW38189   7.546   1.229   2.295  0.0756 -0.2352  0.2086
 8822SOL    HW138190   7.543   1.259   2.386 -1.9519 -0.5405  0.3022
 8822SOL    HW238191   7.462   1.185   2.282  0.6754 -0.9489 -1.5736
 8823SOL     OW38192   0.617   3.791   1.525  0.1443  0.5321 -0.3267
 8823SOL    HW138193   0.570   3.874   1.515  0.2800  0.7796  0.9819
 8823SOL    HW238194   0.617   3.774   1.619  1.1738 -0.3417 -0.4614
 8824SOL     OW38195   5.475   4.120   4.354  0.1296  0.0421 -0.4187
 8824SOL    HW138196   5.398   4.139   4.406  0.2178 -0.1842 -0.2041
 8824SOL    HW238197   5.443   4.067   4.281 -0.0892  0.8427 -0.9223
 8825SOL     OW38198   9.838   6.975   2.911  0.2075 -0.5071 -0.3057
 8825SOL    HW138199   9.933   6.968   2.922  0.3540  1.2103 -0.0604
 8825SOL    HW238200   9.823   6.949   2.821  0.6760 -2.4110  0.1324
 8826SOL     OW38201  11.912  11.743   9.641 -0.1003  0.3696  0.8990
 8826SOL    HW138202  11.851  11.670   9.638 -1.1895  1.2218  1.5557
 8826SOL    HW238203  11.966  11.726   9.718  0.8853 -0.6547  0.0222
 8827SOL     OW38204   6.251  11.490   8.424  0.2556  0.1196  0.5202
 8827SOL    HW138205   6.242  11.584   8.437  3.6061  0.5319  0.6376
 8827SOL    HW238206   6.272  11.480   8.332  1.9577 -0.2744  0.9272
 8828SOL     OW38207   5.077   7.623   6.742  0.4815  1.0789 -0.5927
 8828SOL    HW138208   4.982   7.634   6.746  0.5535  1.6980 -0.4437
 8828SOL    HW238209   5.107   7.634   6.833  0.4425 -1.8862 -0.1252
 8829SOL     OW38210   1.325   7.733  10.808 -0.1776  0.1521  0.1829
 8829SOL    HW138211   1.231   7.746  10.793 -0.2033 -1.0181 -0.8445
 8829SOL    HW238212   1.362   7.821  10.803 -1.1202  0.5496 -0.1853
 8830SOL     OW38213   5.580  11.236  10.608  0.5045 -0.0740 -0.0289
 8830SOL    HW138214   5.549  11.323  10.636 -2.4045 -1.2313  0.6709
 8830SOL    HW238215   5.602  11.248  10.516  1.7145  1.7484  0.4293
 8831SOL     OW38216   4.180   0.885   8.959  0.1417  0.1576  0.6328
 8831SOL    HW138217   4.158   0.815   9.021 -2.2924 -0.1863 -0.5119
 8831SOL    HW238218   4.108   0.947   8.965  0.2116  0.4995 -1.2622
 8832SOL     OW38219  11.485   0.509   5.829 -0.1915  0.3591  0.1774
 8832SOL    HW138220  11.539   0.494   5.751 -1.5689  0.0184 -0.7464
 8832SOL    HW238221  11.411   0.561   5.798 -0.1006  1.3431  1.5389
 8833SOL     OW38222   3.729   0.417   5.470  0.2378  0.5083  0.1535
 8833SOL    HW138223   3.792   0.388   5.536 -0.0282  0.7738  0.5276
 8833SOL    HW238224   3.688   0.495   5.508 -0.5621  0.1413  0.0717
 8834SOL     OW38225   3.883  11.100   4.846  0.5049  0.3098  0.2284
 8834SOL    HW138226   3.914  11.191   4.845  0.0239  0.4990  0.9031
 8834SOL    HW238227   3.834  11.093   4.929  2.2759 -1.1472  1.2397
 8835SOL     OW38228   8.143   6.887   0.529 -0.2750 -0.4192 -0.6536
 8835SOL    HW138229   8.088   6.952   0.573  0.0662 -1.2692  1.0743
 8835SOL    HW238230   8.230   6.898   0.567 -0.2903 -2.1112 -0.0684
 8836SOL     OW38231   0.102   8.714   5.099 -0.0748  0.2418 -0.4279
 8836SOL    HW138232   0.186   8.667   5.097  0.6672  1.5440 -0.6609
 8836SOL    HW238233   0.039   8.652   5.061  0.9514 -0.4289 -1.0845
 8837SOL     OW38234   2.314   8.242   6.054 -0.1518  0.1763  0.0310
 8837SOL    HW138235   2.398   8.250   6.099  0.6832 -1.0628 -1.2507
 8837SOL    HW238236   2.268   8.324   6.075  0.7872  0.2717  1.8865
 8838SOL     OW38237   9.835   2.096   5.825 -0.0253  0.5257 -0.1957
 8838SOL    HW138238   9.910   2.052   5.865 -0.5920 -0.0771  0.2173
 8838SOL    HW238239   9.788   2.027   5.779 -0.9983  0.6523  0.5702
 8839SOL     OW38240   5.026   2.784   4.580  0.7015 -0.2553  0.1446
 8839SOL    HW138241   5.009   2.827   4.496 -1.8919  0.5355  0.9759
 8839SOL    HW238242   5.041   2.857   4.641  1.4148 -0.7727  0.6005
 8840SOL     OW38243   0.886   9.245   1.753 -0.0627 -0.1627  0.2523
 8840SOL    HW138244   0.841   9.161   1.751 -0.0948 -0.2470  2.3377
 8840SOL    HW238245   0.977   9.225   1.731 -0.1453 -0.7091  0.4065
 8841SOL     OW38246   3.141   5.328   9.311  0.1415 -0.4644 -0.4063
 8841SOL    HW138247   3.220   5.364   9.350 -0.7142  0.3907  0.6097
 8841SOL    HW238248   3.095   5.403   9.274  0.2993 -1.0929 -1.9499
 8842SOL     OW38249  11.659   5.041   9.068  0.2150  0.1453 -0.0453
 8842SOL    HW138250  11.709   5.101   9.013  0.9946  0.6856  1.1984
 8842SOL    HW238251  11.617   5.097   9.133 -0.2281 -0.5137  0.2492
 8843SOL     OW38252   8.695   8.147   4.683 -0.0799  1.2935  0.1156
 8843SOL    HW138253   8.759   8.182   4.745 -0.8222  0.3012  1.5053
 8843SOL    HW238254   8.654   8.074   4.730 -0.4530  0.2974 -1.6749
 8844SOL     OW38255  11.392   2.500   9.359 -0.0443  0.0159 -0.0638
 8844SOL    HW138256  11.411   2.556   9.433 -1.4560  2.0675 -1.1618
 8844SOL    HW238257  11.398   2.557   9.283  1.7470 -2.0804 -1.6535
 8845SOL     OW38258   8.218  10.635   4.129  0.1131 -0.1166 -0.5970
 8845SOL    HW138259   8.287  10.662   4.190  1.4542 -0.8501 -1.7367
 8845SOL    HW238260   8.210  10.541   4.141 -1.3458  0.0812  0.1487
 8846SOL     OW38261   7.492  10.683  10.883  0.1736  0.0559 -0.0392
 8846SOL    HW138262   7.473  10.726  10.800  0.7308 -0.3276 -0.3739
 8846SOL    HW238263   7.554  10.742  10.927 -0.1793  0.2948  0.1381
 8847SOL     OW38264   9.848   0.100   3.392 -0.2337  0.1932 -0.2983
 8847SOL    HW138265   9.878   0.009   3.383  0.6410  0.2328  1.5245
 8847SOL    HW238266   9.895   0.148   3.324  1.9520 -0.2122  0.8181
 8848SOL     OW38267   7.896   2.418   6.048 -0.3932  0.0785  0.0115
 8848SOL    HW138268   7.837   2.344   6.036  1.7650 -1.7917  0.2709
 8848SOL    HW238269   7.923   2.413   6.139  0.0069  1.0483 -0.0384
 8849SOL     OW38270   9.020   6.083   8.647  0.3552 -0.7678 -0.3144
 8849SOL    HW138271   9.084   6.148   8.678 -0.9468 -0.4316  1.9015
 8849SOL    HW238272   8.953   6.134   8.603  0.0332 -0.7469  0.1914
 8850SOL     OW38273   5.686   5.774   4.494 -0.0188 -0.6941  0.1978
 8850SOL    HW138274   5.734   5.762   4.576 -1.3646  1.0471  1.3100
 8850SOL    HW238275   5.595   5.784   4.521 -0.4941 -0.0678 -1.5280
 8851SOL     OW38276   5.414   4.851  11.611 -0.2779 -0.2561  0.1607
 8851SOL    HW138277   5.324   4.881  11.614 -0.2062 -0.0910  0.8479
 8851SOL    HW238278   5.455   4.890  11.688  0.2385 -0.7747  0.1571
 8852SOL     OW38279   0.960   7.907   2.594 -0.4204  0.0464 -0.2178
 8852SOL    HW138280   0.884   7.955   2.626 -0.6361  0.7217 -1.6481
 8852SOL    HW238281   0.980   7.948   2.509  0.5322 -1.1836 -0.6158
 8853SOL     OW38282   4.431   1.285   5.327 -0.0143  0.2508 -0.2104
 8853SOL    HW138283   4.342   1.294   5.295  0.4368  0.5969 -1.4344
 8853SOL    HW238284   4.423   1.231   5.406 -1.1407 -0.9903 -1.1239
 8854SOL     OW38285   8.855  10.622  10.239  0.4658  0.4239 -0.1934
 8854SOL    HW138286   8.812  10.707  10.227 -0.1773  0.1752  0.2678
 8854SOL    HW238287   8.945  10.643  10.261  0.1704  1.0085  0.5043
 8855SOL     OW38288   9.698   5.458  10.720 -0.7082  0.1737 -0.3644
 8855SOL    HW138289   9.658   5.511  10.651  0.3444 -0.6131 -1.6146
 8855SOL    HW238290   9.680   5.368  10.695 -0.5149 -0.1238  0.5333
 8856SOL     OW38291  11.190   0.573   1.036 -0.3997 -0.1381 -0.0276
 8856SOL    HW138292  11.252   0.523   1.090 -0.6632 -1.3104 -0.7712
 8856SOL    HW238293  11.125   0.606   1.098 -0.9708 -1.8704  0.3488
 8857SOL     OW38294  11.127   7.940   0.436 -0.3901  0.2630 -0.5512
 8857SOL    HW138295  11.088   7.852   0.442  2.0262 -0.8288  0.7964
 8857SOL    HW238296  11.117   7.977   0.523  1.6741 -0.1665 -0.0737
 8858SOL     OW38297   6.248   6.664   1.591  0.1947 -0.4254  0.3786
 8858SOL    HW138298   6.184   6.690   1.525  2.1404  0.4481 -1.2679
 8858SOL    HW238299   6.235   6.726   1.663  0.1981  0.7668 -0.6098
 8859SOL     OW38300   5.476   9.914   0.427 -0.3412 -0.3305 -0.9493
 8859SOL    HW138301   5.483   9.910   0.332 -0.7894 -3.3801 -0.9832
 8859SOL    HW238302   5.390   9.952   0.443  0.0258  0.8551 -1.7193
 8860SOL     OW38303   3.238   4.663   5.092 -0.3724 -0.1589 -0.3316
 8860SOL    HW138304   3.184   4.587   5.070  0.4601 -0.3685 -1.8299
 8860SOL    HW238305   3.267   4.648   5.181  0.8361 -2.3050 -1.0258
 8861SOL     OW38306   9.471   8.671   3.845 -0.1436 -0.1122 -0.5976
 8861SOL    HW138307   9.502   8.581   3.843 -1.2146 -0.4874 -2.0915
 8861SOL    HW238308   9.424   8.683   3.762 -0.2450  1.7439 -0.3300
 8862SOL     OW38309  11.434   5.982   9.244  0.0163  0.0663  0.6313
 8862SOL    HW138310  11.351   6.028   9.254 -1.3534 -1.6811 -1.6461
 8862SOL    HW238311  11.490   6.044   9.196 -0.5946  0.6228  0.6226
 8863SOL     OW38312  10.119  10.673   0.945 -0.3147  0.2596 -0.2556
 8863SOL    HW138313  10.067  10.649   0.868 -1.0910 -0.6561  0.5346
 8863SOL    HW238314  10.086  10.760   0.969 -0.8498  0.0775 -0.3058
 8864SOL     OW38315   9.083   9.835   6.599 -0.5776 -0.0701 -0.1674
 8864SOL    HW138316   8.996   9.796   6.590 -0.4391 -0.7048  1.0972
 8864SOL    HW238317   9.122   9.792   6.675  0.1387  1.5158  0.4147
 8865SOL     OW38318   4.758   5.138   1.103 -0.1634 -0.5369  0.0050
 8865SOL    HW138319   4.727   5.098   1.185 -1.4812  0.8428  0.2100
 8865SOL    HW238320   4.691   5.202   1.080 -0.6456 -1.9581 -3.0328
 8866SOL     OW38321   4.683  10.897   6.876  0.5417 -0.2843  0.2646
 8866SOL    HW138322   4.669  10.804   6.894  2.8564 -0.5504  1.1188
 8866SOL    HW238323   4.743  10.899   6.802 -0.4993  0.5868 -0.5820
 8867SOL     OW38324   6.972  11.462   7.556 -0.2669  0.1305  0.2160
 8867SOL    HW138325   6.926  11.379   7.568 -1.1413  0.3106 -1.4850
 8867SOL    HW238326   7.029  11.447   7.481 -0.2191  0.9632  0.0752
 8868SOL     OW38327  11.140  11.118   2.061 -0.0406  0.2194 -0.2037
 8868SOL    HW138328  11.205  11.168   2.111 -0.2301  0.5823 -0.3124
 8868SOL    HW238329  11.119  11.174   1.986 -2.3081  1.2727  1.1051
 8869SOL     OW38330   6.116  10.994   6.675 -0.0992  0.3474 -0.2027
 8869SOL    HW138331   6.211  11.003   6.668 -0.0211 -0.1237  0.2730
 8869SOL    HW238332   6.099  10.900   6.666 -0.1870 -0.0900  3.3578
 8870SOL     OW38333   0.553   5.831   1.413  0.3487  0.5314  0.4035
 8870SOL    HW138334   0.608   5.837   1.334 -0.2288  0.4091 -0.0162
 8870SOL    HW238335   0.586   5.754   1.460 -0.7473 -0.7771 -0.8648
 8871SOL     OW38336  10.053   3.705   9.941 -0.2421 -0.2272  0.6161
 8871SOL    HW138337   9.998   3.631   9.916 -0.9449  0.0315  1.3537
 8871SOL    HW238338  10.070   3.692  10.034  1.3507 -0.5462  0.3125
 8872SOL     OW38339   3.711   3.038  10.869 -0.2767 -0.3077  0.4495
 8872SOL    HW138340   3.682   3.031  10.960  0.4655  0.6252  0.7900
 8872SOL    HW238341   3.781   3.104  10.872  0.6309 -1.1788 -0.5924
 8873SOL     OW38342   9.019   4.696   4.249 -0.0511  0.0039 -0.5349
 8873SOL    HW138343   9.031   4.750   4.171 -1.3323 -0.9947 -1.4701
 8873SOL    HW238344   8.925   4.693   4.263  0.1921  0.9159  1.6478
 8874SOL     OW38345   9.739   1.631   5.188 -0.4431  0.3146 -0.1753
 8874SOL    HW138346   9.755   1.541   5.161 -1.2941 -0.3442  1.3656
 8874SOL    HW238347   9.815   1.654   5.242 -0.9503 -0.0493  0.7113
 8875SOL     OW38348   0.100   4.798   3.811  0.1045  0.4429  0.6631
 8875SOL    HW138349   0.028   4.774   3.752  0.9715  1.1473 -0.7477
 8875SOL    HW238350   0.179   4.785   3.759  0.9176  0.8879  1.7538
 8876SOL     OW38351   4.165   5.043   7.835 -0.2627 -0.0339 -0.4622
 8876SOL    HW138352   4.151   5.105   7.905  0.5359  0.9047 -1.1032
 8876SOL    HW238353   4.207   4.968   7.877  2.5381  1.5181 -0.2533
 8877SOL     OW38354  10.713  10.823  11.093 -0.4853  0.2619  0.5924
 8877SOL    HW138355  10.620  10.840  11.079 -0.1655  1.6905 -0.0581
 8877SOL    HW238356  10.756  10.858  11.015  0.7444  1.4693  1.7475
 8878SOL     OW38357   6.431   5.864   6.260 -0.0861  0.6653  0.1689
 8878SOL    HW138358   6.507   5.918   6.282  1.0853 -1.7374  2.5267
 8878SOL    HW238359   6.468   5.778   6.238 -2.0716 -0.8308  2.2294
 8879SOL     OW38360   2.611   2.779   3.289  0.2204  0.3215 -0.6218
 8879SOL    HW138361   2.651   2.752   3.372 -0.2395 -1.0797 -0.8398
 8879SOL    HW238362   2.675   2.755   3.222 -0.1776 -0.2037 -0.8173
 8880SOL     OW38363   7.589   6.150   2.079 -0.2277  0.3020  0.8015
 8880SOL    HW138364   7.613   6.168   2.170 -0.1134 -2.3977  1.3876
 8880SOL    HW238365   7.494   6.139   2.082 -0.1673 -0.2405  0.6772
 8881SOL     OW38366   0.639   5.489   7.988 -0.5190 -0.3693 -0.3466
 8881SOL    HW138367   0.670   5.435   7.914 -0.2347  0.5639 -0.9277
 8881SOL    HW238368   0.629   5.427   8.060 -0.2590 -1.2129 -1.0140
 8882SOL     OW38369   9.371   2.534   8.277 -0.1479 -0.0219 -0.3634
 8882SOL    HW138370   9.408   2.484   8.204 -0.1350  0.6347 -0.8099
 8882SOL    HW238371   9.392   2.482   8.355  0.6522 -0.2620 -0.7305
 8883SOL     OW38372   3.201   9.640  11.160 -0.0044  0.1563  0.1175
 8883SOL    HW138373   3.244   9.627  11.076 -1.0882 -1.2396 -0.2589
 8883SOL    HW238374   3.145   9.716  11.146 -2.1040 -1.5282 -1.2963
 8884SOL     OW38375   4.560   2.407  10.374 -0.2966  0.0822  1.0337
 8884SOL    HW138376   4.540   2.320  10.408  1.8706 -0.3214  1.4171
 8884SOL    HW238377   4.560   2.396  10.279  0.2446 -0.4093  1.0877
 8885SOL     OW38378   4.560   9.223   5.429 -0.1061  0.5894  0.1129
 8885SOL    HW138379   4.474   9.221   5.471 -0.4988  2.3893 -0.5147
 8885SOL    HW238380   4.597   9.136   5.445 -1.5469  0.1781  1.4054
 8886SOL     OW38381   7.286   5.127   0.834 -0.6209 -0.2251 -0.0864
 8886SOL    HW138382   7.254   5.051   0.883 -0.1045 -1.5638 -1.7332
 8886SOL    HW238383   7.234   5.128   0.753 -0.7421  1.3082 -0.0332
 8887SOL     OW38384   6.268   8.422   4.501 -0.4266 -0.4172 -0.1252
 8887SOL    HW138385   6.283   8.371   4.421 -1.8510 -2.1827  0.6761
 8887SOL    HW238386   6.316   8.375   4.569 -1.0008 -0.1621  0.4654
 8888SOL     OW38387   1.707  11.757   9.442 -0.1292 -0.0985 -0.1476
 8888SOL    HW138388   1.704  11.661   9.435  0.1380 -0.0065 -2.1356
 8888SOL    HW238389   1.660  11.788   9.364  1.9820  1.3571 -0.9387
 8889SOL     OW38390   2.637   4.011   9.522  0.1151  0.0566 -0.3585
 8889SOL    HW138391   2.705   4.073   9.547  1.4096 -1.5191  0.1971
 8889SOL    HW238392   2.603   3.978   9.605 -0.5182 -0.0260 -0.6448
 8890SOL     OW38393   7.277  10.479   6.634  0.4768  0.4644 -0.5777
 8890SOL    HW138394   7.288  10.389   6.603  0.6158  0.3172 -0.1169
 8890SOL    HW238395   7.196  10.509   6.593 -1.5398 -1.0931  1.9738
 8891SOL     OW38396   9.936   0.639   2.001  0.0622  0.0694 -0.2124
 8891SOL    HW138397   9.928   0.574   2.071  1.6455  0.2844  0.2017
 8891SOL    HW238398   9.990   0.708   2.038 -0.4367  0.9780 -1.1193
 8892SOL     OW38399   9.683   9.489  11.857  0.0195  0.1572  0.0266
 8892SOL    HW138400   9.630   9.427  11.908  0.0031  0.2275  0.0957
 8892SOL    HW238401   9.739   9.531  11.923  0.1205  0.1243 -0.0386
 8893SOL     OW38402   4.226   6.449   7.391 -0.0302  0.0100  0.2007
 8893SOL    HW138403   4.132   6.464   7.397  0.1294  3.0395 -2.1881
 8893SOL    HW238404   4.265   6.532   7.419  1.8526 -0.6132 -0.4386
 8894SOL     OW38405   5.252   5.076   6.553 -0.0437 -0.0084  0.2475
 8894SOL    HW138406   5.331   5.026   6.530  1.1318  1.8598  0.0271
 8894SOL    HW238407   5.265   5.162   6.514 -1.4994  0.8475  1.5007
 8895SOL     OW38408   2.521   8.318   1.060  0.1985  0.5822  1.0129
 8895SOL    HW138409   2.615   8.331   1.076  0.2809  0.1913  0.8687
 8895SOL    HW238410   2.482   8.404   1.075  0.7551  1.0800 -0.1996
 8896SOL     OW38411   7.439  11.494   4.098 -0.0862 -0.3382 -0.3543
 8896SOL    HW138412   7.363  11.464   4.147 -0.3848  0.0456 -0.5775
 8896SOL    HW238413   7.492  11.415   4.085  0.0205 -0.4352  0.6183
 8897SOL     OW38414   3.463   7.891   9.968  0.1084 -0.0015 -0.0682
 8897SOL    HW138415   3.415   7.972   9.951  0.9850  0.8479  1.2523
 8897SOL    HW238416   3.402   7.838  10.020 -0.1754  0.1707 -0.2200
 8898SOL     OW38417   8.693  10.839  10.267 -0.7446  0.3628  0.5011
 8898SOL    HW138418   8.656  10.914  10.220 -0.3459 -0.8083 -1.8071
 8898SOL    HW238419   8.618  10.782  10.283 -0.6583  0.0614 -0.1298
 8899SOL     OW38420   2.658   6.428   3.567  0.1017  0.7455  0.3113
 8899SOL    HW138421   2.696   6.444   3.481 -1.2798 -0.0364 -0.4765
 8899SOL    HW238422   2.593   6.498   3.578  1.5505  1.9799  1.5787
 8900SOL     OW38423   6.207   0.670   6.273 -0.4583  0.1178 -0.0681
 8900SOL    HW138424   6.114   0.674   6.295 -0.3563  1.3626  0.2346
 8900SOL    HW238425   6.252   0.693   6.354  0.0450  1.0746 -0.5940
 8901SOL     OW38426   9.650   5.608   7.758  0.1877 -0.3123 -0.0780
 8901SOL    HW138427   9.730   5.644   7.719 -0.7118  1.1137 -0.6852
 8901SOL    HW238428   9.677   5.576   7.844  1.8892 -2.0258 -1.1633
 8902SOL     OW38429   4.129   6.533   2.953  0.0720 -0.5204 -0.6157
 8902SOL    HW138430   4.224   6.539   2.963  0.1106 -0.0779 -1.1767
 8902SOL    HW238431   4.109   6.442   2.973  0.6079 -0.6081 -0.4421
 8903SOL     OW38432   1.477   8.593   8.507 -0.6855  0.0318 -0.1889
 8903SOL    HW138433   1.384   8.606   8.491 -0.7462  0.2798  0.3645
 8903SOL    HW238434   1.520   8.650   8.443 -0.9161  0.3600 -0.0516
 8904SOL     OW38435   8.937   1.054   8.102 -0.0305  0.2548 -0.0003
 8904SOL    HW138436   8.956   1.032   8.011  2.6122 -0.3143  0.6157
 8904SOL    HW238437   8.860   1.001   8.124 -1.5105  1.3375 -2.1955
 8905SOL     OW38438   6.190  10.780   6.903  0.3657  0.4176  0.0455
 8905SOL    HW138439   6.210  10.691   6.932 -1.1317  0.3216  0.8872
 8905SOL    HW238440   6.157  10.769   6.814 -1.0336 -0.0658  0.5886
 8906SOL     OW38441   1.518  11.087   3.744  0.1147 -0.3849  0.3872
 8906SOL    HW138442   1.553  11.176   3.757 -0.5917  0.0321 -0.4290
 8906SOL    HW238443   1.482  11.063   3.829 -0.8161  0.6439  0.3192
 8907SOL     OW38444   5.259   6.830  11.404 -0.5780  0.3266  0.1924
 8907SOL    HW138445   5.183   6.886  11.387  0.5440  1.6291 -0.8135
 8907SOL    HW238446   5.332   6.891  11.416  0.5598 -0.8968 -0.1884
 8908SOL     OW38447   1.622   1.250   1.705 -0.4167 -0.0021 -0.1717
 8908SOL    HW138448   1.609   1.319   1.770  2.8358  1.0776 -0.4798
 8908SOL    HW238449   1.574   1.279   1.628  0.1166  1.4884  0.0344
 8909SOL     OW38450   0.212   4.257   2.936  0.3560 -0.0416 -0.3817
 8909SOL    HW138451   0.171   4.172   2.919  0.9396 -0.4030 -0.0121
 8909SOL    HW238452   0.285   4.237   2.994 -0.7923  0.9698  1.5356
 8910SOL     OW38453   0.244   4.092   4.795 -0.7261  0.3704  0.3125
 8910SOL    HW138454   0.245   4.010   4.844 -1.5848 -0.2427 -0.6527
 8910SOL    HW238455   0.305   4.149   4.842  1.3833 -1.4403 -0.0705
 8911SOL     OW38456   2.478   2.307   4.802 -0.5926  0.3258  1.0834
 8911SOL    HW138457   2.395   2.353   4.794 -0.9979 -0.1432  2.3272
 8911SOL    HW238458   2.540   2.374   4.829 -0.2241  0.9631 -1.1660
 8912SOL     OW38459   9.371   3.336  10.484 -0.3485  0.0204 -0.0739
 8912SOL    HW138460   9.306   3.341  10.554 -1.3277  0.7566 -0.9931
 8912SOL    HW238461   9.358   3.250  10.445 -0.4926 -0.0001  0.0178
 8913SOL     OW38462   3.016   6.594  10.967 -0.4232 -0.1229  0.0756
 8913SOL    HW138463   3.023   6.689  10.957 -2.4503 -0.0435 -1.2739
 8913SOL    HW238464   2.934   6.572  10.922  0.5853 -2.6752 -0.6553
 8914SOL     OW38465   7.655   8.560   7.134 -0.2668  0.5452 -0.0028
 8914SOL    HW138466   7.663   8.568   7.039  1.3668  0.1351  0.0662
 8914SOL    HW238467   7.625   8.470   7.148  1.2075  0.0067 -0.1044
 8915SOL     OW38468   4.170   1.434   8.275 -0.0589 -0.3478  0.1615
 8915SOL    HW138469   4.231   1.456   8.346 -1.0842  0.9158  0.6927
 8915SOL    HW238470   4.143   1.344   8.294  0.3393 -0.3283  0.8726
 8916SOL     OW38471   4.624   2.373   8.472 -0.4776  0.0428  0.1848
 8916SOL    HW138472   4.632   2.446   8.534 -1.6134 -0.9300  1.5494
 8916SOL    HW238473   4.534   2.342   8.482  0.0828 -1.7893 -0.0527
 8917SOL     OW38474   5.429   8.656  10.813 -0.5942  0.1312 -0.8361
 8917SOL    HW138475   5.471   8.706  10.742  0.4246  0.6606  0.1205
 8917SOL    HW238476   5.363   8.716  10.848  1.4206  1.3700  1.0969
 8918SOL     OW38477   2.022   3.543   7.286 -0.8870  0.6462 -0.2842
 8918SOL    HW138478   1.994   3.626   7.323 -1.7214  0.7368 -1.0793
 8918SOL    HW238479   2.028   3.484   7.361 -2.9295  0.7146 -0.0184
 8919SOL     OW38480   6.835   4.075   1.595  0.1120 -0.3335  0.0169
 8919SOL    HW138481   6.904   4.025   1.639 -0.1345 -0.0971  0.6819
 8919SOL    HW238482   6.824   4.031   1.510  1.2467 -0.2285 -0.2026
 8920SOL     OW38483   1.560  11.166   7.215  0.4100 -0.4021  0.3662
 8920SOL    HW138484   1.632  11.164   7.278  1.1456 -1.5076 -0.4637
 8920SOL    HW238485   1.491  11.216   7.259  1.1313 -0.5852  1.7754
 8921SOL     OW38486   1.135   6.318   2.702 -0.5065  0.0618  0.0814
 8921SOL    HW138487   1.187   6.264   2.760 -0.4855 -0.3718 -0.3368
 8921SOL    HW238488   1.109   6.260   2.631  0.6845  0.9211 -1.1046
 8922SOL     OW38489   6.380   7.739   2.362 -0.1100  0.0316 -0.7452
 8922SOL    HW138490   6.305   7.773   2.313  0.5651  2.4138 -0.2419
 8922SOL    HW238491   6.410   7.813   2.416  0.1814 -1.9799  2.0911
 8923SOL     OW38492   5.340   4.648   1.876  0.7279  0.5609 -0.4435
 8923SOL    HW138493   5.337   4.744   1.871 -2.2863  0.5413 -0.8626
 8923SOL    HW238494   5.377   4.622   1.792 -1.6322  1.3911 -1.8593
 8924SOL     OW38495   8.356  11.567  10.835  0.5901 -0.5940 -0.0969
 8924SOL    HW138496   8.353  11.539  10.926 -0.3144  0.6770  0.2797
 8924SOL    HW238497   8.281  11.525  10.794 -0.2238  0.4878  0.2508
 8925SOL     OW38498   9.784   2.404   9.543 -0.1106  0.5619 -0.2393
 8925SOL    HW138499   9.745   2.408   9.456  2.9723  0.7074 -1.7313
 8925SOL    HW238500   9.806   2.495   9.564 -0.4521  0.4740  0.5518
 8926SOL     OW38501   9.024   5.014   7.296  0.4557  0.0272  0.0003
 8926SOL    HW138502   9.094   5.025   7.361 -0.7428  0.6686  1.2483
 8926SOL    HW238503   9.068   4.981   7.218  2.0900  0.0852  0.8558
 8927SOL     OW38504   6.759  10.653   3.074 -0.5056 -0.4016  0.8154
 8927SOL    HW138505   6.681  10.605   3.046 -0.7814  0.9808 -0.9844
 8927SOL    HW238506   6.831  10.609   3.029 -0.6771  0.4222 -0.2864
 8928SOL     OW38507   5.866   6.899   9.316 -0.6163  0.2921  0.7537
 8928SOL    HW138508   5.922   6.874   9.243  1.3518  1.5301  1.7419
 8928SOL    HW238509   5.844   6.991   9.300  2.0908  1.4664  2.9190
 8929SOL     OW38510   7.491   3.678  11.368  0.1920  0.1206 -0.0139
 8929SOL    HW138511   7.538   3.758  11.392 -0.3902  0.2665  0.6697
 8929SOL    HW238512   7.404   3.709  11.344 -0.0351 -0.3126  0.2540
 8930SOL     OW38513   6.394   0.552  10.980 -0.1181 -0.4650  0.5135
 8930SOL    HW138514   6.386   0.637  11.024  0.0162  0.8826 -1.9026
 8930SOL    HW238515   6.480   0.519  11.008 -0.8257 -0.6382  2.7176
 8931SOL     OW38516   7.220   6.393   8.308  0.2913 -0.1037 -0.0931
 8931SOL    HW138517   7.252   6.480   8.283  1.5888 -0.0088  1.7551
 8931SOL    HW238518   7.154   6.411   8.375  1.0593 -0.5514  0.7976
 8932SOL     OW38519   2.299   3.285   2.422  0.2643  0.1921  0.0438
 8932SOL    HW138520   2.358   3.236   2.479 -1.6210  0.3974  2.2924
 8932SOL    HW238521   2.274   3.222   2.354 -0.3385 -1.2997  1.5832
 8933SOL     OW38522   0.490   3.548   7.321  0.3579  0.3421 -0.2453
 8933SOL    HW138523   0.572   3.580   7.358  0.6682 -0.1089 -0.5255
 8933SOL    HW238524   0.475   3.464   7.365  0.3656  0.1365 -0.6308
 8934SOL     OW38525   6.008   0.568  10.059 -0.1953  0.2783 -0.1607
 8934SOL    HW138526   5.955   0.489  10.053  1.3695 -0.7427 -1.3842
 8934SOL    HW238527   6.068   0.551  10.131  0.3386  0.2088 -0.6157
 8935SOL     OW38528   4.891   6.254   5.664 -0.6342  0.1358  0.2732
 8935SOL    HW138529   4.942   6.173   5.660 -2.1040 -0.8216  0.2108
 8935SOL    HW238530   4.952   6.322   5.635  0.4980 -1.0038 -0.1168
 8936SOL     OW38531   5.128   6.720  10.459 -0.1711  0.1573 -0.0951
 8936SOL    HW138532   5.205   6.699  10.407 -0.7482 -0.2275 -0.8051
 8936SOL    HW238533   5.060   6.741  10.395 -0.2547  2.0204  0.5263
 8937SOL     OW38534  11.183   5.491   9.073 -0.0109 -0.2703 -0.3417
 8937SOL    HW138535  11.098   5.516   9.038 -0.7289  0.1310  1.5888
 8937SOL    HW238536  11.191   5.539   9.155  0.9801 -2.1451  0.7379
 8938SOL     OW38537   3.345   8.006   0.598 -0.0415  0.4164  0.0373
 8938SOL    HW138538   3.283   8.078   0.602 -0.2298  0.2846 -0.4412
 8938SOL    HW238539   3.430   8.046   0.615 -0.1469  0.7502 -0.2078
 8939SOL     OW38540   1.844   8.045   7.288  0.3617 -0.2286  0.1961
 8939SOL    HW138541   1.806   8.066   7.203 -0.7185  1.9473  1.1279
 8939SOL    HW238542   1.829   7.951   7.299 -3.1849  0.1315 -0.3325
 8940SOL     OW38543   0.331   3.369   4.586 -0.5592  0.3299  0.9285
 8940SOL    HW138544   0.304   3.423   4.512 -0.1838  0.5583  0.9539
 8940SOL    HW238545   0.309   3.280   4.560  3.2318 -0.1766 -1.2925
 8941SOL     OW38546   2.018  10.751  11.741 -0.1487 -0.1561  0.1174
 8941SOL    HW138547   2.059  10.836  11.723  1.0463 -0.9004 -0.7970
 8941SOL    HW238548   2.083  10.704  11.793 -0.2931 -0.9327 -0.3850
 8942SOL     OW38549   5.366   2.119  10.634 -0.4667 -0.1716  0.3390
 8942SOL    HW138550   5.360   2.026  10.654 -0.2245 -0.1434  0.5413
 8942SOL    HW238551   5.449   2.147  10.671 -0.0584 -0.0882 -0.6185
 8943SOL     OW38552  10.110   5.740   8.883  0.0373  0.1468 -0.6036
 8943SOL    HW138553  10.172   5.812   8.874  2.4316 -1.3366  2.2549
 8943SOL    HW238554  10.165   5.661   8.891 -2.3288 -1.6119 -0.5174
 8944SOL     OW38555   8.952  11.833   6.108  0.6739  0.1939 -0.2356
 8944SOL    HW138556   9.022  11.770   6.122 -0.3762 -0.5196  2.6075
 8944SOL    HW238557   8.875  11.792   6.147 -0.4707  2.4460  0.0535
 8945SOL     OW38558  10.630   0.732   9.427  0.4963  0.3588  0.2179
 8945SOL    HW138559  10.590   0.779   9.499 -1.1910 -1.9170  0.8837
 8945SOL    HW238560  10.595   0.773   9.348 -0.3844  0.6741  0.7626
 8946SOL     OW38561   5.268  10.467   7.810  0.1691  0.3885 -0.2388
 8946SOL    HW138562   5.335  10.403   7.788  0.1603  0.2026  0.2760
 8946SOL    HW238563   5.249  10.511   7.727 -0.6074 -1.0050 -0.8365
 8947SOL     OW38564  10.603   3.594   4.066 -0.5921  0.0852  0.6125
 8947SOL    HW138565  10.584   3.638   3.983 -0.0488 -1.0043 -0.1025
 8947SOL    HW238566  10.615   3.666   4.128 -2.2079  0.8937  0.0348
 8948SOL     OW38567   5.795   5.582   9.205 -0.3362  0.4948  0.2365
 8948SOL    HW138568   5.721   5.543   9.253  1.4516 -0.3607  2.4775
 8948SOL    HW238569   5.827   5.651   9.263  1.3602  0.0247 -0.0761
 8949SOL     OW38570  10.735   1.178   2.232  0.7307 -0.5737  0.2547
 8949SOL    HW138571  10.653   1.140   2.264 -0.4028  1.7204  0.3051
 8949SOL    HW238572  10.753   1.131   2.150 -1.2227 -0.4409 -0.2950
 8950SOL     OW38573   1.265   0.559   2.854  0.3311 -0.2942  0.5019
 8950SOL    HW138574   1.323   0.613   2.908 -0.6621  1.0450  0.2818
 8950SOL    HW238575   1.188   0.543   2.910 -0.4628  0.6359 -0.2913
 8951SOL     OW38576  10.556   2.985   8.780  0.2079 -0.2197  0.4795
 8951SOL    HW138577  10.564   2.902   8.827 -2.3276 -1.1379 -0.4800
 8951SOL    HW238578  10.512   2.961   8.698 -2.2443  2.2454  0.9132
 8952SOL     OW38579  11.868   1.099   6.630  0.1055 -0.1901 -0.3431
 8952SOL    HW138580  11.886   1.048   6.709  1.0215  1.1609  0.3444
 8952SOL    HW238581  11.952   1.105   6.586 -0.2473 -0.2692 -1.0361
 8953SOL     OW38582   0.921   3.203   9.637 -0.7732  0.1738  0.0083
 8953SOL    HW138583   0.915   3.288   9.593 -0.5968  0.2326  0.0968
 8953SOL    HW238584   0.830   3.174   9.646 -0.8289  0.3133 -0.0987
 8954SOL     OW38585   4.660   9.286   2.744  0.0284 -0.3487  0.0798
 8954SOL    HW138586   4.660   9.348   2.817 -1.3844  2.2845 -1.9503
 8954SOL    HW238587   4.738   9.308   2.693 -0.9893  0.6007 -1.1789
 8955SOL     OW38588   0.574  11.308  11.394 -0.5204 -0.9177  0.1982
 8955SOL    HW138589   0.591  11.399  11.370 -1.2187 -0.8905 -0.2322
 8955SOL    HW238590   0.500  11.312  11.453 -0.1449 -1.1630  0.6926
 8956SOL     OW38591   6.767   5.537   8.311 -0.0383 -0.7538 -0.3811
 8956SOL    HW138592   6.689   5.494   8.347  0.2693  0.1770  1.5240
 8956SOL    HW238593   6.829   5.466   8.295 -0.3320 -1.2602  0.6384
 8957SOL     OW38594   4.171   6.991   2.485 -0.0090 -0.0941  0.1092
 8957SOL    HW138595   4.080   6.968   2.504 -0.4701  1.4328 -0.1000
 8957SOL    HW238596   4.170   7.019   2.393  1.0241 -1.6731 -0.4216
 8958SOL     OW38597   1.266   1.891   5.757  0.1876 -0.2856  0.0856
 8958SOL    HW138598   1.221   1.973   5.736 -0.9538 -0.5629  1.2821
 8958SOL    HW238599   1.240   1.832   5.686  1.6876  0.5698 -1.2440
 8959SOL     OW38600   5.577   8.960   1.784 -0.4000  0.4073 -0.1601
 8959SOL    HW138601   5.543   9.024   1.847  0.6668  1.9719 -1.0954
 8959SOL    HW238602   5.644   8.911   1.833 -0.8275  0.3767  0.4085
 8960SOL     OW38603   4.096   0.575   9.022  0.2907 -0.4273  0.2274
 8960SOL    HW138604   4.046   0.507   9.067 -2.5859  2.3324  1.6178
 8960SOL    HW238605   4.034   0.613   8.959  1.1817  1.9221  0.6464
 8961SOL     OW38606   2.978   4.203   0.094 -0.3246  0.8051  0.4321
 8961SOL    HW138607   2.910   4.270   0.100  0.8580  1.9649  1.4742
 8961SOL    HW238608   2.993   4.176   0.185 -0.9031 -1.0564  0.0296
 8962SOL     OW38609   0.228   9.605   8.351 -0.2262 -0.0976 -0.1704
 8962SOL    HW138610   0.305   9.576   8.301 -1.1078  0.2377 -1.7952
 8962SOL    HW238611   0.247   9.696   8.374  0.3617 -0.3784  0.4695
 8963SOL     OW38612   1.273   8.727   6.111  0.3612 -0.8352  0.0439
 8963SOL    HW138613   1.227   8.724   6.027  0.5258  1.2452 -0.1838
 8963SOL    HW238614   1.217   8.783   6.166  1.2364 -0.5453  0.6600
 8964SOL     OW38615   5.616  11.636  11.291 -0.1064  0.4020 -0.2165
 8964SOL    HW138616   5.544  11.698  11.300  0.6084  0.9630  2.0219
 8964SOL    HW238617   5.693  11.690  11.272  0.2057  0.0377  0.0059
 8965SOL     OW38618   6.099   8.218   5.288  0.1086 -0.0655 -0.1189
 8965SOL    HW138619   6.184   8.178   5.304  0.6167  0.9744 -0.1346
 8965SOL    HW238620   6.070   8.181   5.205 -0.4287 -1.9956  0.8572
 8966SOL     OW38621   6.272   1.011   0.074  0.3349 -0.3919 -0.5849
 8966SOL    HW138622   6.290   0.920   0.098  2.6035  0.1226 -0.0604
 8966SOL    HW238623   6.245   1.007  -0.017 -0.2036 -1.6407 -0.3934
 8967SOL     OW38624   4.759  10.746   4.235 -0.0019  0.0144 -0.0193
 8967SOL    HW138625   4.818  10.674   4.258 -2.2862 -1.5161  1.4508
 8967SOL    HW238626   4.808  10.825   4.258  1.4965 -1.1793  1.0949
 8968SOL     OW38627   8.803   0.133   1.034  0.0270  0.2544 -0.5508
 8968SOL    HW138628   8.710   0.126   1.052 -0.0109  2.9954  0.7260
 8968SOL    HW238629   8.843   0.062   1.085 -1.1216  0.8964  1.3091
 8969SOL     OW38630   0.064   5.599  10.779 -0.1451  0.2957  0.1839
 8969SOL    HW138631   0.058   5.670  10.843 -2.4640  0.9547 -0.6569
 8969SOL    HW238632   0.119   5.634  10.709  0.4054  0.4730  0.6946
 8970SOL     OW38633   1.809  11.919   4.879  0.2873  0.0872 -0.0099
 8970SOL    HW138634   1.807  11.850   4.946 -1.5961 -0.8529 -0.9601
 8970SOL    HW238635   1.759  11.991   4.918  1.0023  0.3686  0.4050
 8971SOL     OW38636   5.304  10.101   7.153  0.1350  0.9997 -0.5080
 8971SOL    HW138637   5.319  10.190   7.121  2.0010  0.9120  0.0221
 8971SOL    HW238638   5.384  10.078   7.200 -0.9068 -0.4079  0.6864
 8972SOL     OW38639   0.304   0.105  10.020  0.2308  0.8096  0.0609
 8972SOL    HW138640   0.225   0.081   9.972  0.7331 -0.7586 -0.0376
 8972SOL    HW238641   0.276   0.109  10.112 -0.0574  0.6890 -0.0228
 8973SOL     OW38642   2.469   3.592   1.225 -0.1536 -0.4491 -0.2807
 8973SOL    HW138643   2.470   3.688   1.223 -1.9338 -0.4028 -1.9581
 8973SOL    HW238644   2.394   3.568   1.170 -0.1400 -2.8027  0.6407
 8974SOL     OW38645   2.333   4.395   1.807 -0.2933  0.3797  0.1633
 8974SOL    HW138646   2.254   4.367   1.761 -1.2859  1.9025  0.8736
 8974SOL    HW238647   2.337   4.338   1.885  0.5867 -1.1991 -0.9647
 8975SOL     OW38648   2.150   2.904   8.210 -0.2060 -0.2243  0.2745
 8975SOL    HW138649   2.140   2.893   8.115  1.6650 -1.3929  0.1658
 8975SOL    HW238650   2.159   2.815   8.244 -2.0104  0.0940  1.7390
 8976SOL     OW38651   4.984   2.066   7.657 -0.0871  0.2126  0.0472
 8976SOL    HW138652   4.941   1.980   7.651  1.6222 -0.6706 -0.3008
 8976SOL    HW238653   5.023   2.080   7.571  0.3638  0.9459  0.3589
 8977SOL     OW38654   3.229   9.945   6.880 -0.8366 -0.0777 -0.2116
 8977SOL    HW138655   3.281   9.982   6.808 -0.6610 -0.8837 -0.5100
 8977SOL    HW238656   3.146   9.920   6.839 -0.9989  0.0840  0.0137
 8978SOL     OW38657   2.371   5.089   2.431  0.1712 -0.0179 -0.6799
 8978SOL    HW138658   2.311   5.132   2.492 -0.1056  0.3685 -1.2120
 8978SOL    HW238659   2.427   5.159   2.397  1.8057 -0.5663  0.7623
 8979SOL     OW38660  10.058   1.659   9.703 -0.1251  0.3874 -0.3855
 8979SOL    HW138661   9.963   1.659   9.717 -0.0370 -0.4889  0.2775
 8979SOL    HW238662  10.077   1.749   9.675 -1.1592  0.5499 -0.6384
 8980SOL     OW38663   0.046   8.244   6.314 -0.3785  0.2138 -0.4726
 8980SOL    HW138664   0.010   8.195   6.388 -0.1389  1.6227  0.6187
 8980SOL    HW238665  -0.030   8.276   6.266 -0.5380 -1.3656 -1.3260
 8981SOL     OW38666   2.837  11.956   0.910  0.7079  0.1466 -0.5205
 8981SOL    HW138667   2.875  12.043   0.899  1.6041 -0.3108 -1.1686
 8981SOL    HW238668   2.750  11.963   0.870  0.9926  0.5928 -1.0846
 8982SOL     OW38669  11.865   0.562   5.718 -0.6065  0.4253 -0.2466
 8982SOL    HW138670  11.919   0.623   5.669 -1.1557  0.9809 -0.1667
 8982SOL    HW238671  11.829   0.614   5.790 -1.2421  0.0657 -0.2956
 8983SOL     OW38672   7.070   1.157   9.631  0.5245  0.5051  0.4024
 8983SOL    HW138673   7.068   1.253   9.632 -0.0061  0.4983  0.4290
 8983SOL    HW238674   7.024   1.131   9.711 -2.6943  0.2375 -1.3431
 8984SOL     OW38675  11.198   1.900   6.507 -0.1525 -0.0760 -0.4133
 8984SOL    HW138676  11.254   1.972   6.478  1.5901 -0.1432  2.3595
 8984SOL    HW238677  11.121   1.943   6.544 -0.0019  0.2682 -0.4920
 8985SOL     OW38678   6.525   6.196   6.102  0.0671 -0.5074 -0.6404
 8985SOL    HW138679   6.616   6.205   6.076 -0.0795  0.6814 -0.8111
 8985SOL    HW238680   6.475   6.214   6.023 -0.3389  1.3360 -0.0277
 8986SOL     OW38681   5.591   1.444   7.761 -0.0489  0.3895 -0.0447
 8986SOL    HW138682   5.676   1.451   7.805 -0.8273  1.4671  1.3543
 8986SOL    HW238683   5.555   1.532   7.764 -0.4905  0.3331 -2.2184
 8987SOL     OW38684   3.779   2.870   1.119  0.4111 -0.1283 -0.2684
 8987SOL    HW138685   3.722   2.862   1.042  1.0282  0.5945 -0.8135
 8987SOL    HW238686   3.832   2.948   1.102 -0.2223  0.7362  1.4149
 8988SOL     OW38687   7.814   6.871  10.953  0.4430 -0.7714 -0.2399
 8988SOL    HW138688   7.739   6.928  10.942  2.2437  1.5228 -1.5363
 8988SOL    HW238689   7.869   6.914  11.019  1.1414 -1.8101 -0.1053
 8989SOL     OW38690   4.376   3.837   4.704 -0.1992  0.2521 -0.0590
 8989SOL    HW138691   4.412   3.851   4.792 -0.3054 -0.4885  0.1071
 8989SOL    HW238692   4.441   3.782   4.660  0.7659  2.0871 -1.0875
 8990SOL     OW38693   2.732   2.895   8.017 -0.3968  0.0360 -0.2744
 8990SOL    HW138694   2.711   2.930   8.104 -0.6882 -0.9804  0.0779
 8990SOL    HW238695   2.653   2.910   7.965 -0.4943 -0.0241 -0.1442
 8991SOL     OW38696   2.579  10.533  11.083 -0.0476  0.4582  0.0982
 8991SOL    HW138697   2.483  10.535  11.072 -0.1169 -1.3949  0.0142
 8991SOL    HW238698   2.593  10.475  11.157  1.0328  0.3179 -0.2008
 8992SOL     OW38699  10.444  10.186   5.431  0.2156 -0.1211  0.1680
 8992SOL    HW138700  10.378  10.127   5.392 -1.6756  1.9261  0.0747
 8992SOL    HW238701  10.491  10.221   5.356 -1.1390  1.2187 -0.1076
 8993SOL     OW38702   0.788   4.172   8.091 -0.3242  0.3173  0.6753
 8993SOL    HW138703   0.847   4.099   8.105 -0.0936  0.2752 -0.5020
 8993SOL    HW238704   0.765   4.201   8.180  4.3503  2.7148  1.3938
 8994SOL     OW38705   3.323   3.476   2.710  0.1970 -0.0086  0.0618
 8994SOL    HW138706   3.402   3.526   2.688  0.8053 -1.1852 -0.4959
 8994SOL    HW238707   3.355   3.393   2.744 -0.8052 -0.3226  0.2857
 8995SOL     OW38708   8.041   8.693   7.633 -0.4670  0.0194  0.5049
 8995SOL    HW138709   8.027   8.598   7.642 -2.3331  0.3491  1.7069
 8995SOL    HW238710   8.046   8.708   7.539 -0.5788 -1.2321  0.2813
 8996SOL     OW38711   4.683   5.695   0.271 -0.1249  0.1908  0.1132
 8996SOL    HW138712   4.621   5.760   0.239 -0.2774  1.3677  2.5732
 8996SOL    HW238713   4.769   5.736   0.260 -0.1738  0.5725  1.0834
 8997SOL     OW38714  10.314   2.583   8.705 -0.5978 -0.3264  0.1470
 8997SOL    HW138715  10.293   2.665   8.660 -0.7323  0.1615  1.0513
 8997SOL    HW238716  10.406   2.567   8.686 -0.3160  0.5480  0.7070
 8998SOL     OW38717  10.683   8.637   2.651 -0.1695 -0.0335  0.7904
 8998SOL    HW138718  10.738   8.621   2.728  1.2761  1.1185  0.0497
 8998SOL    HW238719  10.596   8.653   2.687  0.4806  0.5713  2.2111
 8999SOL     OW38720   3.475   8.857   1.908  0.4801  0.1477  0.2172
 8999SOL    HW138721   3.495   8.796   1.979  0.0165  0.9752  1.0770
 8999SOL    HW238722   3.404   8.816   1.859 -1.2039  0.8258  1.9528
 9000SOL     OW38723   2.369   0.905   0.713 -0.0645  0.2884  0.2900
 9000SOL    HW138724   2.443   0.947   0.757  0.4419 -0.6184  0.3341
 9000SOL    HW238725   2.329   0.975   0.661  1.2977  0.6241 -0.3513
 9001SOL     OW38726   2.549   9.486   9.187  0.1044 -0.7556  0.6672
 9001SOL    HW138727   2.534   9.534   9.105 -2.5837  0.6126  1.8651
 9001SOL    HW238728   2.538   9.394   9.162 -0.3830 -0.3913 -0.5611
 9002SOL     OW38729   9.006   3.710   6.780  0.0823  0.0317  0.0586
 9002SOL    HW138730   8.928   3.695   6.726 -0.9909  0.3628  1.4446
 9002SOL    HW238731   9.007   3.805   6.795  1.4311  0.1907 -0.8851
 9003SOL     OW38732  11.035   7.635  10.684  0.2001 -0.1557  0.0516
 9003SOL    HW138733  11.127   7.661  10.685  0.7544 -1.7705 -2.0035
 9003SOL    HW238734  11.017   7.614  10.593 -2.5933  1.2808  0.1608
 9004SOL     OW38735   5.102   0.445   9.393 -0.3319 -0.1460 -0.1129
 9004SOL    HW138736   5.015   0.465   9.427  0.5916 -0.7157  2.8502
 9004SOL    HW238737   5.102   0.350   9.382 -0.4965 -0.0100 -1.5445
 9005SOL     OW38738   6.915   3.410   8.247  0.3826 -0.4345 -0.0932
 9005SOL    HW138739   6.836   3.385   8.199 -0.5836  1.3037  0.4688
 9005SOL    HW238740   6.983   3.414   8.180 -0.9617  2.0949 -1.4816
 9006SOL     OW38741   8.412  11.265   7.104 -0.3219 -0.1472 -0.4000
 9006SOL    HW138742   8.445  11.243   7.191  1.3443 -0.9070 -1.1793
 9006SOL    HW238743   8.450  11.351   7.085 -0.1905 -0.2483 -0.6028
 9007SOL     OW38744  10.463   4.063  11.587  0.0135 -0.3286  0.0987
 9007SOL    HW138745  10.443   3.970  11.596  1.0854 -0.6531 -0.6755
 9007SOL    HW238746  10.554   4.071  11.615 -0.0575  0.4821  0.1116
 9008SOL     OW38747   6.558  11.955   2.389  0.1538 -0.2502 -1.0508
 9008SOL    HW138748   6.649  11.980   2.370 -0.3063  2.1523 -0.4441
 9008SOL    HW238749   6.553  11.955   2.485 -0.8967  1.5056 -1.0637
 9009SOL     OW38750   3.466   3.637   4.246 -0.6389  0.2865  0.1166
 9009SOL    HW138751   3.529   3.658   4.315 -0.6280  1.7868 -0.3165
 9009SOL    HW238752   3.398   3.587   4.289 -0.1969  0.4594  1.0313
 9010SOL     OW38753   2.254   1.748  11.321 -0.2981  0.6231 -0.4931
 9010SOL    HW138754   2.166   1.783  11.334 -0.2543  0.2661  0.9080
 9010SOL    HW238755   2.242   1.672  11.264 -1.0767 -0.1470  0.6506
 9011SOL     OW38756   7.411   2.547   5.940  0.8586  0.2655  0.3145
 9011SOL    HW138757   7.352   2.537   6.015  0.5891 -0.3452  0.0193
 9011SOL    HW238758   7.499   2.537   5.977  0.6730 -2.5564  0.1843
 9012SOL     OW38759   6.702   1.872   7.931  0.0307  0.1268  0.6273
 9012SOL    HW138760   6.620   1.849   7.975 -0.3933 -1.5080 -0.8867
 9012SOL    HW238761   6.737   1.788   7.900 -0.3560  1.1439 -3.1691
 9013SOL     OW38762   6.231   9.270   7.376 -0.0562  0.1259  0.1400
 9013SOL    HW138763   6.263   9.354   7.407 -0.8079 -0.4010  2.5225
 9013SOL    HW238764   6.213   9.284   7.283  0.4221  2.3915  0.3411
 9014SOL     OW38765   8.451   1.106   5.410 -0.3288  0.2249 -0.2316
 9014SOL    HW138766   8.445   1.035   5.473  0.8597  0.9379  0.7283
 9014SOL    HW238767   8.431   1.185   5.460 -0.8990  0.6694 -1.1160
 9015SOL     OW38768   5.992   9.587   4.557 -0.9496 -0.6415  0.6270
 9015SOL    HW138769   5.952   9.632   4.483  1.0651  0.4866  0.1325
 9015SOL    HW238770   6.065   9.538   4.518 -0.9314 -1.4719  1.6490
 9016SOL     OW38771   8.690   1.002   0.070  0.1618  0.3332 -0.1388
 9016SOL    HW138772   8.735   1.067   0.125 -1.7064 -0.5651  2.7071
 9016SOL    HW238773   8.611   0.981   0.119 -0.6740 -2.0687 -2.3192
 9017SOL     OW38774  11.795   9.939   9.623 -0.3042 -0.2350 -0.1561
 9017SOL    HW138775  11.733   9.953   9.696  0.4627 -1.9864  0.9096
 9017SOL    HW238776  11.739   9.914   9.550 -0.9713 -0.4139  0.3953
 9018SOL     OW38777   3.125  11.310   2.269  0.1350  0.2231  0.0120
 9018SOL    HW138778   3.036  11.343   2.262  0.3794  0.8275 -0.3852
 9018SOL    HW238779   3.121  11.241   2.336 -0.9492 -0.8976 -1.1466
 9019SOL     OW38780  11.010   6.950  11.336  0.1699 -0.1139 -0.3060
 9019SOL    HW138781  11.012   6.951  11.432 -1.7293  0.0389 -0.2374
 9019SOL    HW238782  10.987   7.040  11.312  0.5689 -0.1720 -0.9173
 9020SOL     OW38783   4.500   0.099   7.051  0.3451  0.0355  0.5262
 9020SOL    HW138784   4.549   0.027   7.011 -1.2418 -0.2989 -0.9075
 9020SOL    HW238785   4.430   0.056   7.099 -0.7309  0.5865 -0.4996
 9021SOL     OW38786   9.489   3.292   7.464 -0.0031  0.2008  0.2136
 9021SOL    HW138787   9.499   3.224   7.531 -1.1501 -1.2281 -1.0065
 9021SOL    HW238788   9.519   3.372   7.507  0.7763 -0.9428  1.9132
 9022SOL     OW38789   9.672   5.703   9.688  0.0460 -0.1225 -0.4109
 9022SOL    HW138790   9.735   5.679   9.621 -0.1781 -0.4148 -0.5192
 9022SOL    HW238791   9.599   5.743   9.641  0.0729  0.0527 -0.3043
 9023SOL     OW38792   6.770   4.992  11.864  0.6942  0.2217  0.2532
 9023SOL    HW138793   6.760   4.915  11.809  0.2090  1.1235 -0.9692
 9023SOL    HW238794   6.782   4.957  11.952  0.8507 -1.2457 -0.3217
 9024SOL     OW38795   0.871   1.792   0.592 -0.0384  0.1696 -0.0239
 9024SOL    HW138796   0.920   1.793   0.674  0.1230 -2.1667 -0.0252
 9024SOL    HW238797   0.801   1.856   0.605 -0.6477 -0.8711  2.3629
 9025SOL     OW38798   7.662   7.748   1.812  0.1610  0.2606  0.1178
 9025SOL    HW138799   7.646   7.676   1.750 -1.5242  0.7999 -0.1316
 9025SOL    HW238800   7.588   7.744   1.872 -0.0902  1.8989 -0.0334
 9026SOL     OW38801   4.704  11.341   3.776 -0.2415 -0.0721 -0.7370
 9026SOL    HW138802   4.795  11.359   3.753  0.1091 -1.2234 -0.3347
 9026SOL    HW238803   4.679  11.415   3.831  0.5843  0.0729 -0.5325
 9027SOL     OW38804   7.070   9.910   9.242  0.2514  0.3893 -0.3140
 9027SOL    HW138805   6.988   9.909   9.192  0.1534  0.1296 -0.1518
 9027SOL    HW238806   7.062   9.986   9.299 -1.0147 -1.0533  1.5520
 9028SOL     OW38807   3.740   2.841   7.042 -0.9015  0.4644  0.3889
 9028SOL    HW138808   3.834   2.846   7.023 -0.7171  0.9669  1.3458
 9028SOL    HW238809   3.712   2.932   7.047 -2.0761  0.3794 -2.6372
 9029SOL     OW38810   9.860  10.726   2.565 -0.4522  0.5766 -0.2005
 9029SOL    HW138811   9.831  10.813   2.595 -1.2998  1.2509 -2.7665
 9029SOL    HW238812   9.925  10.699   2.630 -1.9985  1.9771  2.0825
 9030SOL     OW38813   9.559   6.796   0.643  0.2445  0.5425 -0.2520
 9030SOL    HW138814   9.468   6.825   0.639 -0.3788 -1.3668 -1.7672
 9030SOL    HW238815   9.610   6.877   0.643 -1.4264  1.6945  1.7772
 9031SOL     OW38816   4.143   1.374   3.956  0.0882 -0.8036 -0.5325
 9031SOL    HW138817   4.110   1.456   3.993  1.5741 -0.9982  1.4305
 9031SOL    HW238818   4.073   1.342   3.900 -0.1332  2.2949 -2.2324
 9032SOL     OW38819   5.168   9.813   3.723  0.1993  0.2220 -0.3735
 9032SOL    HW138820   5.181   9.760   3.644 -0.1360  0.4876 -0.6098
 9032SOL    HW238821   5.189   9.902   3.697  1.5521  0.0972  0.2429
 9033SOL     OW38822   1.299   0.156   6.989 -0.2101 -0.0050  0.0538
 9033SOL    HW138823   1.226   0.177   6.931 -0.5695 -0.1467  0.4518
 9033SOL    HW238824   1.374   0.199   6.948 -0.5450  0.2873 -0.2668
 9034SOL     OW38825   7.794   7.033   7.678  0.5586 -0.2827  0.1209
 9034SOL    HW138826   7.728   6.965   7.690  0.9072 -0.5575  0.5096
 9034SOL    HW238827   7.753   7.113   7.709  0.9033 -0.7046  1.7259
 9035SOL     OW38828   4.818  11.163   5.093 -0.5154 -0.3458  0.1007
 9035SOL    HW138829   4.803  11.069   5.083 -0.2131 -0.4598  0.6375
 9035SOL    HW238830   4.759  11.204   5.030 -0.0302 -0.9241 -0.7471
 9036SOL     OW38831   2.962   1.926  11.816 -0.0641 -0.3901  0.3047
 9036SOL    HW138832   2.987   2.007  11.860  0.7573  0.2217 -1.1786
 9036SOL    HW238833   2.966   1.859  11.884 -0.6739  0.7853  1.5474
 9037SOL     OW38834  10.555   0.366   8.710  0.4761 -0.0091  0.0270
 9037SOL    HW138835  10.499   0.305   8.760 -0.6838  0.1191 -1.0518
 9037SOL    HW238836  10.541   0.451   8.752  0.6462 -0.1617  0.3926
 9038SOL     OW38837   8.815   2.580   3.819 -0.2563  0.0969 -0.2001
 9038SOL    HW138838   8.879   2.612   3.882 -1.0890  0.5298  0.4450
 9038SOL    HW238839   8.841   2.489   3.802  1.9640  0.9514 -1.8313
 9039SOL     OW38840   9.684   5.780   8.137 -0.0683 -0.3683  0.5558
 9039SOL    HW138841   9.613   5.739   8.186 -0.8328 -0.3876 -0.5381
 9039SOL    HW238842   9.652   5.867   8.115 -0.8143 -1.2362 -2.0819
 9040SOL     OW38843   3.667   2.013   1.942  0.0897 -0.6077 -0.0800
 9040SOL    HW138844   3.644   1.921   1.957  1.0737 -1.0409 -1.0831
 9040SOL    HW238845   3.760   2.011   1.919 -0.1245  0.5238 -1.1237
 9041SOL     OW38846   5.326   1.321   7.398 -0.4566 -0.2674  0.4621
 9041SOL    HW138847   5.337   1.327   7.303  0.8398  1.3129  0.6752
 9041SOL    HW238848   5.334   1.411   7.429  0.3641 -0.8849  2.1786
 9042SOL     OW38849   7.261  11.510   1.499  0.7114 -0.1314  0.4721
 9042SOL    HW138850   7.338  11.527   1.554  1.1227 -0.2349 -0.0672
 9042SOL    HW238851   7.214  11.594   1.498  2.3237  0.8241 -1.5306
 9043SOL     OW38852   5.152   5.236   1.753  0.3936  0.0973  0.5242
 9043SOL    HW138853   5.070   5.197   1.784  0.1324 -1.0356 -1.4478
 9043SOL    HW238854   5.214   5.163   1.752  0.9744  0.5811  0.4151
 9044SOL     OW38855   8.285   9.168   5.355 -0.4722 -0.3983  0.0499
 9044SOL    HW138856   8.225   9.094   5.359  0.8377 -1.5293 -0.3490
 9044SOL    HW238857   8.309   9.185   5.446 -0.3066 -0.8687  0.0937
 9045SOL     OW38858   7.237   8.289   8.297 -0.1440 -0.0728 -0.1895
 9045SOL    HW138859   7.256   8.355   8.364 -1.0848  0.1389 -0.1166
 9045SOL    HW238860   7.291   8.315   8.222  0.0314  0.3747  0.0871
 9046SOL     OW38861   2.983   0.853   5.791 -0.3897  0.4889  0.3821
 9046SOL    HW138862   3.041   0.913   5.837  0.0991  0.0334  0.3718
 9046SOL    HW238863   2.900   0.900   5.784 -0.3264  0.7592  1.3030
 9047SOL     OW38864   0.603   1.475   6.810  0.4130 -0.0823 -0.0490
 9047SOL    HW138865   0.510   1.482   6.830  0.3885 -1.4369  0.4537
 9047SOL    HW238866   0.607   1.419   6.732  0.7929  0.0803 -0.1473
 9048SOL     OW38867   8.176   8.588   2.619 -0.2390  0.4750  0.6776
 9048SOL    HW138868   8.240   8.657   2.636 -0.9832  1.9527 -2.0515
 9048SOL    HW238869   8.229   8.509   2.607  0.7616  0.9152  1.9168
 9049SOL     OW38870   3.595   6.324   9.175 -0.4104  0.4681 -0.1066
 9049SOL    HW138871   3.530   6.311   9.244 -0.9871  0.9320 -0.5469
 9049SOL    HW238872   3.674   6.349   9.222 -0.1649 -1.3530  0.5266
 9050SOL     OW38873   2.173  10.343   1.245  0.1876 -0.1231 -0.1041
 9050SOL    HW138874   2.115  10.416   1.221  2.0959  1.9399  1.1379
 9050SOL    HW238875   2.151  10.325   1.336 -0.9398 -1.8518 -0.6722
 9051SOL     OW38876   5.107   1.358   9.809 -0.1108 -0.0178  0.5410
 9051SOL    HW138877   5.189   1.319   9.840 -0.3950 -1.5644 -0.5845
 9051SOL    HW238878   5.129   1.394   9.723 -0.4065  0.3797  0.6286
 9052SOL     OW38879   6.788   9.435  11.224 -0.6123 -0.2836 -0.1700
 9052SOL    HW138880   6.835   9.486  11.158  0.3729 -2.4612 -1.2567
 9052SOL    HW238881   6.701   9.474  11.228  0.5383  2.4793  0.2893
 9053SOL     OW38882  10.768   9.783   8.290  0.3587 -0.1107 -0.6156
 9053SOL    HW138883  10.859   9.756   8.287 -0.0188 -1.5495 -0.0344
 9053SOL    HW238884  10.754   9.812   8.380  0.3857  0.6846 -0.8597
 9054SOL     OW38885   5.068   3.294   2.725 -0.3705  0.0079 -0.6612
 9054SOL    HW138886   5.036   3.241   2.652  1.1317 -0.2539 -1.1743
 9054SOL    HW238887   4.991   3.341   2.757 -1.9777 -2.9940  0.2847
 9055SOL     OW38888   5.109   7.567   7.065  0.4291 -0.6972 -0.3154
 9055SOL    HW138889   5.183   7.562   7.126 -1.1649 -0.1455  1.7839
 9055SOL    HW238890   5.101   7.661   7.046  0.4288 -0.7878 -0.7818
 9056SOL     OW38891   3.491   1.254   4.974 -0.1518 -0.4754 -0.0785
 9056SOL    HW138892   3.500   1.346   4.951 -1.9576 -0.7788 -2.3201
 9056SOL    HW238893   3.551   1.242   5.048  1.9499  1.8849 -1.2643
 9057SOL     OW38894   5.744   9.443   3.815 -0.2149 -0.2124  0.2070
 9057SOL    HW138895   5.809   9.478   3.877 -1.2980 -0.6356  1.6456
 9057SOL    HW238896   5.796   9.414   3.740  1.0662  1.0954  0.5244
 9058SOL     OW38897   2.993   4.337  10.011 -0.2195  0.1772  0.4061
 9058SOL    HW138898   3.051   4.329  10.086  2.0086  0.8698 -1.1414
 9058SOL    HW238899   3.005   4.427   9.980 -0.7708 -0.1959 -0.9892
 9059SOL     OW38900  11.876   0.606   6.673 -0.2957  0.0031 -0.0043
 9059SOL    HW138901  11.780   0.607   6.683 -0.1833  0.9434  1.2691
 9059SOL    HW238902  11.892   0.544   6.602 -1.9484  1.2026 -1.5191
 9060SOL     OW38903  10.682   3.810   0.242  0.5788  0.0187  0.0708
 9060SOL    HW138904  10.747   3.815   0.312  0.8567  0.6280 -0.2226
 9060SOL    HW238905  10.697   3.889   0.190 -0.2137  0.0186 -0.1628
 9061SOL     OW38906  10.214   4.814   9.069  0.2740  0.0256  0.7796
 9061SOL    HW138907  10.226   4.739   9.127 -1.0309 -0.1257  0.8711
 9061SOL    HW238908  10.300   4.826   9.028  0.1800 -2.3683 -0.2733
 9062SOL     OW38909   0.885   1.780   1.504 -0.2823  0.0008  0.3233
 9062SOL    HW138910   0.956   1.837   1.474 -0.0934 -0.1488  0.4846
 9062SOL    HW238911   0.842   1.752   1.423 -0.8554  0.9800  0.2797
 9063SOL     OW38912   7.542   9.570   6.288 -0.3182  0.0329  0.1478
 9063SOL    HW138913   7.543   9.567   6.384 -0.7226  1.9244  0.2400
 9063SOL    HW238914   7.615   9.627   6.264  0.5931 -1.4235 -0.7796
 9064SOL     OW38915   3.517   4.778   3.293  0.1285 -0.6221  1.0156
 9064SOL    HW138916   3.499   4.843   3.226  0.2475 -1.7518 -0.1515
 9064SOL    HW238917   3.431   4.753   3.327  0.0382 -0.3182  1.0062
 9065SOL     OW38918   0.361   7.894   4.557 -0.5270 -0.3359  0.1290
 9065SOL    HW138919   0.273   7.905   4.593 -0.7088 -1.2578  0.0041
 9065SOL    HW238920   0.369   7.799   4.543 -0.5559 -0.0295 -2.4703
 9066SOL     OW38921   4.893   3.095  11.636  0.0452  0.9651 -0.2523
 9066SOL    HW138922   4.852   3.077  11.720 -0.2695  1.0808 -0.3784
 9066SOL    HW238923   4.855   3.179  11.608 -1.1458  0.1200 -1.3005
 9067SOL     OW38924   9.815   4.864   5.430 -0.4301  0.1722 -0.1684
 9067SOL    HW138925   9.791   4.841   5.340 -3.3906  0.8659  0.3353
 9067SOL    HW238926   9.839   4.957   5.426 -0.3806  0.1542 -0.2744
 9068SOL     OW38927   9.803   2.407   3.517 -0.4829 -0.1298 -0.2711
 9068SOL    HW138928   9.713   2.376   3.525 -0.7151  0.4918 -0.4355
 9068SOL    HW238929   9.839   2.358   3.443 -1.6253  1.7301 -2.1712
 9069SOL     OW38930  11.310  10.685   6.962  0.2777  0.1252 -0.1216
 9069SOL    HW138931  11.346  10.744   6.896 -1.0443  1.0470 -0.0647
 9069SOL    HW238932  11.307  10.738   7.042  0.1433 -0.3901  0.2222
 9070SOL     OW38933   7.884  11.409   3.058  0.1697 -0.2458 -0.4344
 9070SOL    HW138934   7.800  11.382   3.022  0.2642 -0.1859 -0.7037
 9070SOL    HW238935   7.866  11.494   3.100 -0.5125 -1.4557  1.9111
 9071SOL     OW38936   0.609   3.681   8.527 -0.7072 -0.2050 -0.1106
 9071SOL    HW138937   0.630   3.758   8.474  1.1705 -0.7875 -0.2831
 9071SOL    HW238938   0.655   3.609   8.485 -3.3729 -1.7360 -0.6370
 9072SOL     OW38939   7.234   4.298   5.347  1.1987  0.1814  0.4405
 9072SOL    HW138940   7.269   4.331   5.265  2.7134  0.1929  1.0681
 9072SOL    HW238941   7.173   4.229   5.321 -1.3048  2.7036 -0.8546
 9073SOL     OW38942   5.710   0.162   8.804 -0.4554  0.0230  0.2272
 9073SOL    HW138943   5.636   0.140   8.748  0.1627  0.9004 -0.9847
 9073SOL    HW238944   5.779   0.102   8.777 -0.7242 -0.8168  1.3768
 9074SOL     OW38945   7.586   2.908   7.186  0.1602 -0.0001 -0.4383
 9074SOL    HW138946   7.649   2.835   7.192 -0.0285 -0.0926  0.5028
 9074SOL    HW238947   7.628   2.979   7.235 -0.5972 -0.1640  0.4734
 9075SOL     OW38948   2.929   4.988   3.850  0.4313 -0.1424  1.0594
 9075SOL    HW138949   2.977   4.954   3.926 -0.1037  1.0293  1.9662
 9075SOL    HW238950   2.841   4.951   3.859  0.3671 -0.0014  1.0090
 9076SOL     OW38951   9.215   6.813   2.417  0.2210 -0.3396 -0.0630
 9076SOL    HW138952   9.143   6.763   2.380  1.0262 -1.4021 -0.2459
 9076SOL    HW238953   9.190   6.828   2.508 -0.6704  0.1761 -0.3850
 9077SOL     OW38954   1.570   5.663   3.348 -0.2703 -0.7177 -0.0102
 9077SOL    HW138955   1.514   5.741   3.353 -0.5044 -0.7174 -1.8405
 9077SOL    HW238956   1.518   5.593   3.388 -0.3529 -0.1116  0.9893
 9078SOL     OW38957   9.817   5.443   6.076 -0.8010  0.2973  0.3718
 9078SOL    HW138958   9.868   5.441   5.995 -1.6959 -1.3819 -0.2015
 9078SOL    HW238959   9.863   5.384   6.136 -2.3384 -1.7990 -0.3901
 9079SOL     OW38960  11.202   8.129  10.532 -0.2613 -0.1100 -0.0410
 9079SOL    HW138961  11.109   8.133  10.556 -0.6965  1.3515 -1.7587
 9079SOL    HW238962  11.245   8.184  10.597 -0.4617 -1.2962  1.1516
 9080SOL     OW38963   2.407   7.492  10.115 -0.2310 -0.2062 -0.9357
 9080SOL    HW138964   2.319   7.472  10.149 -0.2540 -0.0295 -0.8898
 9080SOL    HW238965   2.459   7.510  10.193  1.0322 -4.6153 -0.4957
 9081SOL     OW38966   8.315   6.498   5.483  0.3211  0.1497 -0.2762
 9081SOL    HW138967   8.347   6.460   5.564  1.7256  0.2588 -0.7517
 9081SOL    HW238968   8.263   6.573   5.510  1.1827  0.4744  0.5142
 9082SOL     OW38969   3.496  11.363  10.085 -0.2744  0.8187 -0.0764
 9082SOL    HW138970   3.557  11.406  10.026 -0.3371  0.5344 -0.3505
 9082SOL    HW238971   3.445  11.435  10.123 -1.1130  0.9157 -1.3412
 9083SOL     OW38972   2.554   4.460   3.268 -0.2092  0.3721  0.3331
 9083SOL    HW138973   2.640   4.502   3.269 -0.2863  0.5348  0.1158
 9083SOL    HW238974   2.494   4.529   3.241  0.0087 -0.4726 -2.6223
 9084SOL     OW38975   6.651   3.447   5.582 -0.8034  0.5363  0.4390
 9084SOL    HW138976   6.677   3.508   5.651 -0.5804 -1.7512  2.4764
 9084SOL    HW238977   6.733   3.415   5.546 -0.9210  0.8040 -0.0829
 9085SOL     OW38978   7.765   4.015   7.677  0.6060  0.1266 -0.1941
 9085SOL    HW138979   7.710   4.077   7.725  1.5715  0.8203  0.0369
 9085SOL    HW238980   7.765   4.049   7.587  0.9124  0.3179 -0.1246
 9086SOL     OW38981   6.796   2.272   1.336 -0.0236  0.2257  0.6373
 9086SOL    HW138982   6.860   2.324   1.385  1.0900 -0.3074 -0.2177
 9086SOL    HW238983   6.771   2.202   1.396  2.4426 -1.2904 -0.0057
 9087SOL     OW38984   4.018   6.656   5.176  0.1259 -0.2263 -0.3772
 9087SOL    HW138985   4.053   6.745   5.176 -1.0432  0.3144  1.8432
 9087SOL    HW238986   4.021   6.629   5.268  1.1988 -2.8360 -1.0869
 9088SOL     OW38987   0.525   5.668   8.394  0.1930  0.0442  0.0893
 9088SOL    HW138988   0.437   5.705   8.399 -0.1719 -0.8599  0.5650
 9088SOL    HW238989   0.511   5.573   8.392  1.1961 -0.1547  1.3957
 9089SOL     OW38990   1.674   5.417   8.651 -0.1339 -0.2337 -0.0696
 9089SOL    HW138991   1.634   5.501   8.670  1.5988  0.9090 -1.1677
 9089SOL    HW238992   1.637   5.392   8.566  1.8926  1.2140 -1.4827
 9090SOL     OW38993   7.041   2.849   3.150  0.1886 -0.2787 -0.8721
 9090SOL    HW138994   7.006   2.878   3.234 -0.9914 -0.2575 -1.3419
 9090SOL    HW238995   7.133   2.873   3.151  0.2502 -0.5289  0.5200
 9091SOL     OW38996   8.725   8.494   7.541 -0.2615  0.4283 -0.2830
 9091SOL    HW138997   8.634   8.524   7.540 -0.1415  0.7921 -0.8460
 9091SOL    HW238998   8.755   8.511   7.630 -1.4747 -1.9914  0.6828
 9092SOL     OW38999  11.779   9.599   9.631  0.6675  0.1238  0.2025
 9092SOL    HW139000  11.852   9.659   9.619  0.7301 -0.1625 -0.9439
 9092SOL    HW239001  11.715   9.625   9.565  1.0777 -1.6126 -0.9662
 9093SOL     OW39002  10.005  11.404   7.428  0.2871 -0.0127 -0.7379
 9093SOL    HW139003  10.026  11.378   7.518  0.1570 -1.1016 -0.9990
 9093SOL    HW239004   9.992  11.499   7.432 -1.2521 -0.2262  0.7100
 9094SOL     OW39005  10.770   5.929   2.008 -0.1377  0.3557 -0.3076
 9094SOL    HW139006  10.767   5.833   2.004  1.6148  0.2199  0.3631
 9094SOL    HW239007  10.747   5.949   2.099  0.1803  0.5093 -0.2585
 9095SOL     OW39008   3.347   5.417   6.949  0.1571  0.6695 -0.1639
 9095SOL    HW139009   3.313   5.371   7.026  0.8076  0.1609 -0.1756
 9095SOL    HW239010   3.442   5.411   6.957  0.2332  0.7118 -0.9475
 9096SOL     OW39011   3.181   4.793   0.590  0.2526 -0.4181  0.5655
 9096SOL    HW139012   3.257   4.850   0.593  0.7146 -0.9683 -0.3147
 9096SOL    HW239013   3.129   4.826   0.517  0.3283 -0.8709  0.3016
 9097SOL     OW39014   1.611   2.751   9.775 -0.3520 -0.4274 -0.6082
 9097SOL    HW139015   1.635   2.665   9.741  0.3825 -0.8865  0.9588
 9097SOL    HW239016   1.591   2.736   9.868 -1.2657  0.9183 -0.5510
 9098SOL     OW39017   6.406   0.233  10.520 -0.1539 -0.2652  0.0518
 9098SOL    HW139018   6.313   0.231  10.497  0.0190 -0.6152 -0.6450
 9098SOL    HW239019   6.412   0.182  10.601 -0.6709  0.3852  0.5152
 9099SOL     OW39020  11.318   3.224   9.383  0.2360  0.3361  0.8095
 9099SOL    HW139021  11.266   3.251   9.459 -1.1109 -0.8899  0.3611
 9099SOL    HW239022  11.306   3.295   9.320 -1.4532 -0.2027  0.4744
 9100SOL     OW39023   8.395   5.475   0.705  0.2933  0.3912 -0.3694
 9100SOL    HW139024   8.418   5.383   0.698  1.1331  0.6795 -1.7425
 9100SOL    HW239025   8.401   5.495   0.799 -0.8706 -1.1618  0.0761
 9101SOL     OW39026   3.804   6.779   5.538 -0.2610 -0.1942  0.1472
 9101SOL    HW139027   3.797   6.695   5.584 -1.8215 -0.2107 -0.0702
 9101SOL    HW239028   3.715   6.798   5.508  0.7141 -0.4124 -3.3213
 9102SOL     OW39029  11.387   8.815   0.624 -0.6587  0.5173  0.1473
 9102SOL    HW139030  11.400   8.730   0.666  0.0574  1.0073  0.9588
 9102SOL    HW239031  11.396   8.878   0.695 -0.9632  1.2835 -0.4860
 9103SOL     OW39032   6.155   6.076   1.056  0.1417 -0.0745  0.3517
 9103SOL    HW139033   6.186   5.989   1.031 -4.1115 -1.5757 -0.4432
 9103SOL    HW239034   6.127   6.116   0.974 -1.4755  0.4533  1.1379
 9104SOL     OW39035   3.564   1.323   2.772 -0.2010 -0.1593 -0.2543
 9104SOL    HW139036   3.530   1.410   2.750  1.1146  0.4983  0.1801
 9104SOL    HW239037   3.632   1.307   2.707  1.1071  0.1468  0.9776
 9105SOL     OW39038   2.907   1.661   4.524 -0.6174 -0.1011 -0.1184
 9105SOL    HW139039   2.875   1.585   4.476 -1.7190  0.3575 -0.1390
 9105SOL    HW239040   3.002   1.660   4.510 -0.6505 -1.3028 -0.3433
 9106SOL     OW39041   8.666   6.208   1.351 -0.1231 -0.4956  0.0358
 9106SOL    HW139042   8.736   6.272   1.358 -0.3466 -0.3686  1.2384
 9106SOL    HW239043   8.710   6.129   1.318  0.4125 -0.1518 -0.0932
 9107SOL     OW39044   2.198   9.608   9.147  0.1849  0.3035 -0.3094
 9107SOL    HW139045   2.206   9.625   9.241 -1.9694 -0.8741  0.1370
 9107SOL    HW239046   2.255   9.532   9.132  0.6157  0.5573  0.0017
 9108SOL     OW39047   3.451   1.660   1.200 -0.6841 -0.2703 -0.0059
 9108SOL    HW139048   3.452   1.649   1.105  2.3958  0.6126 -0.1783
 9108SOL    HW239049   3.370   1.618   1.228 -1.9410 -0.1169 -3.0424
 9109SOL     OW39050   2.396   8.350   6.943  0.2770 -0.2760 -0.3245
 9109SOL    HW139051   2.383   8.415   6.874 -0.0531  0.5920  0.5100
 9109SOL    HW239052   2.345   8.384   7.017  0.0763 -1.5116  0.1357
 9110SOL     OW39053   2.428  11.125  11.075 -0.1582 -0.1997  0.0589
 9110SOL    HW139054   2.367  11.115  11.002 -0.9653  1.6625  0.4032
 9110SOL    HW239055   2.446  11.036  11.105 -2.8467 -0.8286  0.0306
 9111SOL     OW39056   5.204  11.581   7.847  0.7645 -0.2391  0.0677
 9111SOL    HW139057   5.246  11.654   7.894  1.9975 -1.9744  1.8403
 9111SOL    HW239058   5.155  11.535   7.915  1.0106 -1.7422 -0.7362
 9112SOL     OW39059   3.992   9.001   5.199 -0.3711  0.6838  0.4847
 9112SOL    HW139060   3.939   9.066   5.153 -2.5327 -0.4024  1.3245
 9112SOL    HW239061   4.048   8.963   5.131 -1.0149  1.5138 -0.5371
 9113SOL     OW39062   6.297   4.840   4.804  0.1765  0.2734  0.5610
 9113SOL    HW139063   6.252   4.887   4.874  2.4581  0.7222  1.8288
 9113SOL    HW239064   6.340   4.909   4.753 -0.9122 -0.1022 -0.9168
 9114SOL     OW39065   5.629   9.264   6.336 -0.4022  0.3374  0.1616
 9114SOL    HW139066   5.668   9.327   6.396 -1.6437  1.7674 -0.4586
 9114SOL    HW239067   5.676   9.182   6.352  0.8976  1.2832  1.3672
 9115SOL     OW39068   1.333  10.614  10.876  0.4790  0.3254  0.8418
 9115SOL    HW139069   1.267  10.658  10.822  1.7471  1.9213  0.5049
 9115SOL    HW239070   1.375  10.551  10.817 -1.5814 -1.7368  1.4150
 9116SOL     OW39071   7.131   3.703   9.571 -0.1754 -0.8782  0.0371
 9116SOL    HW139072   7.193   3.774   9.584 -0.2378 -1.1513  2.1797
 9116SOL    HW239073   7.051   3.733   9.615 -0.7092 -1.6078 -0.4127
 9117SOL     OW39074   9.564   8.310  10.373 -0.5737  0.1671 -0.5034
 9117SOL    HW139075   9.633   8.346  10.317  0.1994  0.7496  0.7875
 9117SOL    HW239076   9.570   8.215  10.361 -0.2819  0.2719 -1.2316
 9118SOL     OW39077   6.894  10.422   0.115  0.0023  0.9885 -0.3837
 9118SOL    HW139078   6.917  10.491   0.053  0.6084 -0.3072 -1.6988
 9118SOL    HW239079   6.819  10.378   0.075  1.1894 -0.6682 -0.9220
 9119SOL     OW39080  10.145   0.609   1.753  0.2388 -0.8539  0.6911
 9119SOL    HW139081  10.153   0.515   1.740 -0.4348 -0.7296 -0.9084
 9119SOL    HW239082  10.108   0.619   1.841 -0.2471 -2.1051  0.6416
 9120SOL     OW39083  11.565   5.702   5.892 -0.2434  0.0758 -0.5532
 9120SOL    HW139084  11.631   5.662   5.949 -0.7681 -1.2596 -0.8450
 9120SOL    HW239085  11.542   5.784   5.935  1.7107  0.6636 -0.5294
 9121SOL     OW39086   9.775   9.944   8.297 -0.3855 -0.0143  0.1960
 9121SOL    HW139087   9.716   9.884   8.342  0.8999 -1.6870 -0.2370
 9121SOL    HW239088   9.841   9.967   8.362 -0.3289  0.1349  0.0877
 9122SOL     OW39089   6.218  11.756   9.434  0.1794  0.0855 -0.3560
 9122SOL    HW139090   6.145  11.808   9.467  1.6270  2.0546 -0.0725
 9122SOL    HW239091   6.184  11.712   9.357 -0.9535  2.0858 -1.0698
 9123SOL     OW39092   2.403  10.344   2.907 -0.3920  0.5170 -0.2213
 9123SOL    HW139093   2.495  10.346   2.931 -0.7188  0.0985  1.1726
 9123SOL    HW239094   2.384  10.433   2.876  0.6387  0.3931 -1.2680
 9124SOL     OW39095   7.771   8.540   7.381 -0.0691  0.0332 -0.3343
 9124SOL    HW139096   7.783   8.446   7.394  0.4303  0.2104  0.5794
 9124SOL    HW239097   7.735   8.548   7.292 -0.4112 -1.0334 -0.3022
 9125SOL     OW39098   0.329   4.132   9.776  0.2141 -0.5793 -0.3522
 9125SOL    HW139099   0.273   4.118   9.699  2.3323  0.7485 -2.2602
 9125SOL    HW239100   0.302   4.218   9.809  2.5051  1.1860 -2.7024
 9126SOL     OW39101   0.579   8.198   8.841 -0.1834 -0.0099  0.3122
 9126SOL    HW139102   0.596   8.146   8.919  2.0363  0.4516  0.1910
 9126SOL    HW239103   0.640   8.272   8.848 -0.3957  0.3731 -1.5316
 9127SOL     OW39104   3.547   4.087  10.697 -0.0217  0.1668 -0.5242
 9127SOL    HW139105   3.460   4.100  10.658  0.8534 -1.3973 -3.2240
 9127SOL    HW239106   3.599   4.160  10.663 -0.1214  0.8463  0.7276
 9128SOL     OW39107   7.057   6.907   7.068 -0.1381  0.3143 -0.2383
 9128SOL    HW139108   7.044   6.983   7.125 -0.6002 -0.0775  0.1959
 9128SOL    HW239109   6.979   6.854   7.082 -0.9895  0.9039 -2.3517
 9129SOL     OW39110   9.797   3.358   0.191 -0.0871 -0.0956  0.7581
 9129SOL    HW139111   9.842   3.348   0.275  0.3000 -1.2872  0.4271
 9129SOL    HW239112   9.798   3.452   0.175  0.3947  0.0957  1.7830
 9130SOL     OW39113   7.136   5.322   8.072 -0.2621 -0.2907  0.1366
 9130SOL    HW139114   7.104   5.338   8.161 -0.8368 -0.5578 -0.0203
 9130SOL    HW239115   7.166   5.231   8.073  2.0878  0.4211  0.7520
 9131SOL     OW39116   7.114   4.028  10.156 -0.0017  0.1384 -0.1712
 9131SOL    HW139117   7.205   4.001  10.146  0.0666 -0.2145  1.2221
 9131SOL    HW239118   7.117   4.105  10.212 -0.4437  1.2244 -1.6001
 9132SOL     OW39119   0.324   3.067   6.436 -0.4112  0.2392  0.2320
 9132SOL    HW139120   0.369   3.000   6.487  0.7241  0.3889 -0.5483
 9132SOL    HW239121   0.296   3.131   6.501 -1.7362 -1.0781  1.0261
 9133SOL     OW39122  10.137   4.310   6.479  0.0391  0.3507 -0.5478
 9133SOL    HW139123  10.200   4.380   6.495  1.2937 -0.6089 -1.1020
 9133SOL    HW239124  10.190   4.231   6.474 -1.2215 -0.4927 -1.0821
 9134SOL     OW39125   3.847   6.855   9.660 -0.1209 -0.3719  0.3240
 9134SOL    HW139126   3.773   6.854   9.721  0.2836  2.3320  0.9817
 9134SOL    HW239127   3.821   6.916   9.592  0.7389 -0.9188 -0.5145
 9135SOL     OW39128   1.551   7.235   7.542  0.6004  0.2214  0.2218
 9135SOL    HW139129   1.634   7.283   7.549  1.9605 -1.7295 -1.2251
 9135SOL    HW239130   1.522   7.252   7.452 -0.8075  1.1834  0.8344
 9136SOL     OW39131   3.737   7.906   2.287 -0.4157  0.4222  0.1953
 9136SOL    HW139132   3.660   7.861   2.254  0.8896  0.2101 -3.0143
 9136SOL    HW239133   3.735   7.992   2.244  1.1220  0.3895 -0.0126
 9137SOL     OW39134  11.567  10.469   8.194  0.7206 -0.1699 -0.0979
 9137SOL    HW139135  11.651  10.514   8.185  0.4619  0.6652  1.3399
 9137SOL    HW239136  11.515  10.500   8.119  0.7134  1.6356  0.6074
 9138SOL     OW39137   3.133   5.131   2.703  0.8840  0.3489  0.8042
 9138SOL    HW139138   3.129   5.053   2.648  1.1371  0.9533 -0.1035
 9138SOL    HW239139   3.044   5.167   2.701  1.1886  1.0992 -0.3355
 9139SOL     OW39140   0.115   4.848   0.582 -0.1722 -0.5818 -1.2732
 9139SOL    HW139141   0.206   4.819   0.578 -0.1194 -0.2366 -3.3008
 9139SOL    HW239142   0.119   4.932   0.628  0.5619 -0.4708 -1.5321
 9140SOL     OW39143   2.753   3.852   0.468 -0.2673 -0.0994  0.1494
 9140SOL    HW139144   2.845   3.829   0.482 -0.5656 -0.6781  1.3151
 9140SOL    HW239145   2.756   3.931   0.414  0.9039 -0.3096 -0.1216
 9141SOL     OW39146   7.856  11.011   2.103  0.2367  0.5409  0.2004
 9141SOL    HW139147   7.821  11.098   2.123 -1.5344 -0.3679  1.1957
 9141SOL    HW239148   7.813  10.952   2.164 -0.9131 -1.5172 -2.3917
 9142SOL     OW39149   3.713   1.736   3.924  0.1982  0.0090 -0.5972
 9142SOL    HW139150   3.763   1.663   3.888  1.9195  1.3170 -0.9464
 9142SOL    HW239151   3.732   1.734   4.018 -1.0873 -0.9621 -0.3318
 9143SOL     OW39152   5.288   3.294   9.951 -0.1703  0.2431 -0.1604
 9143SOL    HW139153   5.331   3.376   9.925 -0.0744  0.5572  0.9259
 9143SOL    HW239154   5.360   3.233   9.965  0.0152  0.8709  2.0097
 9144SOL     OW39155   4.583   1.078   9.183  0.0781  0.3227  0.6878
 9144SOL    HW139156   4.511   1.022   9.213 -0.3630  1.0686  1.0337
 9144SOL    HW239157   4.640   1.088   9.259 -0.3196  1.0862  0.8871
 9145SOL     OW39158  10.914   4.071   8.956  0.2134 -0.1646  0.0588
 9145SOL    HW139159  10.919   4.105   8.867  1.5487 -1.0073 -0.2130
 9145SOL    HW239160  10.821   4.080   8.979  0.2132  2.1124 -0.5572
 9146SOL     OW39161   8.699   9.014   4.079 -0.0116 -0.0910 -0.2226
 9146SOL    HW139162   8.748   9.092   4.106 -0.1321  0.5027 -1.6125
 9146SOL    HW239163   8.731   8.945   4.136  0.3469  0.8987  0.8251
 9147SOL     OW39164  10.551  11.713  11.261 -0.2834 -0.0148 -0.5736
 9147SOL    HW139165  10.615  11.738  11.328  0.7393  1.5006 -2.0429
 9147SOL    HW239166  10.579  11.626  11.233 -1.1561 -1.0071  1.4022
 9148SOL     OW39167   8.041   2.508   2.539  0.3884  0.1163  0.2392
 9148SOL    HW139168   8.010   2.580   2.484  1.5166 -0.0966 -0.7055
 9148SOL    HW239169   8.136   2.521   2.546  0.2610  0.3196  2.4320
 9149SOL     OW39170   9.509   9.191  11.348  0.7905  0.1291  0.3297
 9149SOL    HW139171   9.561   9.271  11.340 -0.7495  1.0783 -0.5228
 9149SOL    HW239172   9.559   9.125  11.300  1.2205  1.0140 -0.4704
 9150SOL     OW39173   3.857   0.828   5.250  0.1816 -0.2202 -0.1641
 9150SOL    HW139174   3.839   0.839   5.156 -0.8900 -0.0326  0.0551
 9150SOL    HW239175   3.867   0.733   5.261  1.0144 -0.1960 -0.5745
 9151SOL     OW39176   1.491   8.191  10.402 -0.5370 -0.4211  0.1534
 9151SOL    HW139177   1.547   8.266  10.423 -2.0864  0.6528  0.5698
 9151SOL    HW239178   1.503   8.131  10.475 -0.1034 -0.1183  0.3391
 9152SOL     OW39179   9.009   2.041  10.861  0.7205 -0.1172 -0.0506
 9152SOL    HW139180   9.093   2.052  10.906  1.1209 -2.6134 -0.0389
 9152SOL    HW239181   8.944   2.042  10.931  1.0724 -1.2657  0.3084
 9153SOL     OW39182   0.848   7.199   8.693 -0.1984 -0.0363 -0.5856
 9153SOL    HW139183   0.818   7.290   8.693  0.0340  0.0698  0.8822
 9153SOL    HW239184   0.884   7.186   8.781 -0.3424 -1.5878 -0.7296
 9154SOL     OW39185   1.482   2.328  10.435 -0.2971  0.1347 -0.0718
 9154SOL    HW139186   1.389   2.347  10.422 -0.1287 -0.3256 -2.3394
 9154SOL    HW239187   1.493   2.238  10.404  1.0449  0.4796 -0.6643
 9155SOL     OW39188   1.463   9.037   1.965  0.1365 -0.1485  0.1197
 9155SOL    HW139189   1.522   8.965   1.988 -0.1474 -0.2411  0.5616
 9155SOL    HW239190   1.503   9.115   2.005  1.0449  0.1508 -1.2886
 9156SOL     OW39191   6.779   2.885   1.195  0.2268  0.0057  0.0560
 9156SOL    HW139192   6.717   2.958   1.192  0.1788 -0.0614 -0.6578
 9156SOL    HW239193   6.853   2.913   1.142  0.6834 -0.0373  0.6637
 9157SOL     OW39194   4.387   2.669   7.392  0.2879 -0.0040  0.2367
 9157SOL    HW139195   4.369   2.735   7.325 -3.1493  0.2873  1.2625
 9157SOL    HW239196   4.367   2.712   7.475 -1.7149 -2.1205  0.9681
 9158SOL     OW39197   4.695   6.391   0.350 -0.0491 -0.8353  0.1024
 9158SOL    HW139198   4.639   6.444   0.406 -0.7130 -1.8246  0.3903
 9158SOL    HW239199   4.637   6.358   0.281  1.1004  1.9716 -2.4398
 9159SOL     OW39200  10.654  10.496   9.545  0.2714 -0.0132 -0.0871
 9159SOL    HW139201  10.716  10.530   9.609 -0.8665 -1.6254  2.0088
 9159SOL    HW239202  10.602  10.572   9.519  1.1531  0.7958  0.4542
 9160SOL     OW39203   3.562   6.756   1.323 -0.1210 -0.1262 -0.6039
 9160SOL    HW139204   3.626   6.793   1.384 -0.1677  0.8908 -1.1560
 9160SOL    HW239205   3.530   6.677   1.367  1.7705 -0.8647 -0.4799
 9161SOL     OW39206   2.086   6.974   0.591 -0.2281  0.1255 -0.0681
 9161SOL    HW139207   2.113   7.032   0.521  0.4325 -2.1045 -1.7939
 9161SOL    HW239208   1.993   6.993   0.604  0.0764  1.8279 -0.2411
 9162SOL     OW39209   9.235   4.509   3.182  0.0126  0.4083  0.0944
 9162SOL    HW139210   9.314   4.463   3.208  0.8190  2.2171  0.9547
 9162SOL    HW239211   9.210   4.562   3.258 -1.6511  0.3899 -0.3817
 9163SOL     OW39212   4.079   5.999   3.211  0.4182  0.2764  0.3186
 9163SOL    HW139213   4.105   5.986   3.120  1.1496  0.7981  0.4427
 9163SOL    HW239214   4.025   6.078   3.209 -1.7284 -1.1210 -0.0262
 9164SOL     OW39215   8.530  10.635   3.528  0.3083 -0.0011 -0.5390
 9164SOL    HW139216   8.525  10.606   3.437 -2.1532 -0.7978 -0.2104
 9164SOL    HW239217   8.468  10.709   3.533 -0.0732 -0.3770  0.6145
 9165SOL     OW39218   9.158   4.632   9.570 -0.7404 -0.2002  0.4413
 9165SOL    HW139219   9.200   4.563   9.621 -1.9436 -0.1600  1.5325
 9165SOL    HW239220   9.075   4.594   9.542 -0.3351 -0.0336 -1.0872
 9166SOL     OW39221  11.529  11.942   1.012 -0.2575 -0.3161 -0.3005
 9166SOL    HW139222  11.453  12.000   1.018  0.4011  0.5578 -0.1241
 9166SOL    HW239223  11.502  11.862   1.055 -0.6061  0.5139  1.0873
 9167SOL     OW39224   4.874   5.828   1.967  0.1182  0.3554 -0.3241
 9167SOL    HW139225   4.794   5.778   1.984  0.8332 -1.1563 -1.1627
 9167SOL    HW239226   4.920   5.828   2.051  0.0419 -0.3102 -0.2734
 9168SOL     OW39227   7.085   5.146   6.455  0.1624 -0.3353 -0.0336
 9168SOL    HW139228   7.178   5.129   6.440  0.1936  0.6580 -1.1390
 9168SOL    HW239229   7.061   5.207   6.385 -0.9309  0.7233  1.2216
 9169SOL     OW39230   2.670   6.315  10.817  0.1991 -0.0339  0.3639
 9169SOL    HW139231   2.638   6.345  10.902 -1.1453  1.0101 -0.4637
 9169SOL    HW239232   2.730   6.384  10.788 -1.0603  0.7511 -0.4848
 9170SOL     OW39233   4.181   8.234   6.545  0.1293 -0.1882  0.0371
 9170SOL    HW139234   4.261   8.256   6.593 -0.2367  1.0558  0.0999
 9170SOL    HW239235   4.128   8.314   6.548 -0.6143 -0.6219 -1.0007
 9171SOL     OW39236   6.197   7.773   7.107 -0.4208 -0.0049  0.1361
 9171SOL    HW139237   6.278   7.728   7.081 -0.3742 -0.4827  1.0630
 9171SOL    HW239238   6.137   7.702   7.131 -0.8326  0.3807  0.2519
 9172SOL     OW39239   5.929  10.590   6.775 -0.1335 -0.0384 -0.1993
 9172SOL    HW139240   5.886  10.510   6.745  0.5485 -0.1367 -0.9379
 9172SOL    HW239241   5.936  10.579   6.870 -0.3888 -0.6872 -0.2523
 9173SOL     OW39242   8.729  11.590   0.815  0.1006 -0.1699  0.3042
 9173SOL    HW139243   8.710  11.610   0.907  3.5011 -1.7068  1.4861
 9173SOL    HW239244   8.686  11.506   0.800  1.8727 -1.3500  1.4822
 9174SOL     OW39245   5.780   8.401   0.548  0.0267 -0.5325 -0.4554
 9174SOL    HW139246   5.841   8.331   0.523 -1.3989 -2.0962  0.2835
 9174SOL    HW239247   5.708   8.393   0.486  0.3294  1.0203 -1.0423
 9175SOL     OW39248   5.649   8.291   7.766  0.5094 -0.1657 -0.6928
 9175SOL    HW139249   5.585   8.361   7.776  1.2617  0.3582  0.7086
 9175SOL    HW239250   5.620   8.243   7.689 -1.9612 -0.3479  0.2479
 9176SOL     OW39251   6.897   3.113   1.039 -0.5290 -0.1675  0.2590
 9176SOL    HW139252   6.913   3.165   0.960  0.1923  2.0798  1.7963
 9176SOL    HW239253   6.813   3.145   1.071  0.4944  1.0327  1.8853
 9177SOL     OW39254  10.587   2.888   3.759 -0.3250  0.0784 -0.1044
 9177SOL    HW139255  10.565   2.944   3.685 -1.0326 -0.5088 -0.3519
 9177SOL    HW239256  10.557   2.801   3.733  0.2171 -0.3006  0.5179
 9178SOL     OW39257   0.402  11.180   7.712  0.1763 -0.2238  0.7874
 9178SOL    HW139258   0.404  11.084   7.716  0.7805 -0.1926  1.4078
 9178SOL    HW239259   0.324  11.200   7.659  0.3974 -1.0637  0.1159
 9179SOL     OW39260   1.643   3.449  10.963  0.0346  0.3523 -0.0747
 9179SOL    HW139261   1.629   3.462  10.869  1.6164  0.7551 -0.2886
 9179SOL    HW239262   1.693   3.367  10.969  0.2943  0.5362  0.3721
 9180SOL     OW39263  11.857   2.218   8.291  0.6472 -0.0174 -0.3350
 9180SOL    HW139264  11.838   2.194   8.200  0.4149  0.9719 -0.5682
 9180SOL    HW239265  11.813   2.151   8.343 -1.1420  0.6184 -0.9224
 9181SOL     OW39266   4.032  11.035  11.837 -0.4674 -0.0688  0.7381
 9181SOL    HW139267   4.040  10.942  11.856 -0.8931 -0.1791  0.3966
 9181SOL    HW239268   3.945  11.059  11.868 -0.4839  0.1415  0.5403
 9182SOL     OW39269   9.998   3.318   6.526  0.5087 -0.0653 -0.1152
 9182SOL    HW139270  10.078   3.266   6.519  0.1405 -0.6458 -0.0599
 9182SOL    HW239271   9.928   3.259   6.498  0.1511  0.5802 -0.5991
 9183SOL     OW39272   8.746   0.695   5.193  0.0835 -0.1658 -0.5416
 9183SOL    HW139273   8.663   0.728   5.228 -0.9218 -1.1272 -1.8763
 9183SOL    HW239274   8.813   0.735   5.247 -1.2769  0.2845  0.8770
 9184SOL     OW39275  11.765   9.128   4.632  0.1628  0.3594  0.0708
 9184SOL    HW139276  11.826   9.115   4.704 -1.3741 -0.0493  1.3310
 9184SOL    HW239277  11.731   9.040   4.613  0.9776  0.3421 -1.6138
 9185SOL     OW39278   5.035   4.381  10.228  0.0776 -0.1788 -0.2431
 9185SOL    HW139279   5.046   4.413  10.317  0.5770 -1.9362  0.3595
 9185SOL    HW239280   4.993   4.453  10.182 -2.5163 -0.1007  2.0145
 9186SOL     OW39281  10.518   7.542   8.275 -0.3005 -0.0912  0.4114
 9186SOL    HW139282  10.448   7.519   8.336 -1.0722  0.2120 -0.3384
 9186SOL    HW239283  10.544   7.630   8.300 -0.2133 -0.1903  0.6678
 9187SOL     OW39284   8.741   7.125  11.359  0.1217  0.1370 -0.0125
 9187SOL    HW139285   8.790   7.079  11.290 -0.8552 -0.1131 -0.5630
 9187SOL    HW239286   8.767   7.082  11.440  0.3761 -0.3704 -0.3591
 9188SOL     OW39287  10.057   0.859   8.844  0.1475 -0.1976 -0.3636
 9188SOL    HW139288  10.035   0.932   8.786 -1.4272  0.7112  1.2909
 9188SOL    HW239289  10.126   0.893   8.901  0.3532 -0.4526 -0.4567
 9189SOL     OW39290   9.427   0.288   4.856  0.1775  0.5285 -0.5099
 9189SOL    HW139291   9.506   0.341   4.851  0.3886  0.4426  1.3965
 9189SOL    HW239292   9.358   0.351   4.879  0.3199  0.1157  1.1499
 9190SOL     OW39293   9.208   1.796   0.428  0.1037  0.4514 -0.2000
 9190SOL    HW139294   9.264   1.743   0.484  0.2409  0.2007 -0.5707
 9190SOL    HW239295   9.127   1.746   0.420  0.0832  0.4890 -0.2240
 9191SOL     OW39296   7.523  11.775   8.434 -0.0019 -0.4301  0.3407
 9191SOL    HW139297   7.453  11.840   8.442 -0.6555 -0.5288 -3.1602
 9191SOL    HW239298   7.565  11.796   8.351  1.3449 -3.0358  0.2805
 9192SOL     OW39299   8.271  11.749   4.901 -0.5435  0.1774  0.2624
 9192SOL    HW139300   8.266  11.822   4.963 -3.3276  0.3568 -0.0464
 9192SOL    HW239301   8.257  11.671   4.954 -0.7748  0.1576  0.1761
 9193SOL     OW39302   6.655   3.853   6.347  0.0416  0.6216 -0.5935
 9193SOL    HW139303   6.575   3.872   6.299  0.1519 -0.5303 -1.2799
 9193SOL    HW239304   6.638   3.884   6.436 -1.1085  0.5465 -0.7757
 9194SOL     OW39305   3.090  10.554   8.553  0.0003 -0.1771 -0.0399
 9194SOL    HW139306   3.138  10.559   8.636  1.3378 -0.1855 -0.7964
 9194SOL    HW239307   3.060  10.644   8.537  1.2258  0.1855 -0.3915
 9195SOL     OW39308  11.648   1.707   4.777 -0.0640  0.4085 -0.0794
 9195SOL    HW139309  11.609   1.633   4.825  0.0154 -0.0124 -0.6557
 9195SOL    HW239310  11.659   1.775   4.844 -0.6883  0.1159  0.3372
 9196SOL     OW39311  11.480   3.588  11.536 -0.0635  0.2277  0.1189
 9196SOL    HW139312  11.466   3.682  11.545  0.1218  0.4458 -1.5308
 9196SOL    HW239313  11.475   3.572  11.442 -0.3715 -1.4680  0.3832
 9197SOL     OW39314  10.707   1.755   2.066  0.8036 -0.2970  0.4422
 9197SOL    HW139315  10.654   1.834   2.060  1.4904  0.3114  1.9073
 9197SOL    HW239316  10.649   1.690   2.106  0.5587 -0.2266  0.1995
 9198SOL     OW39317  10.786  10.441   5.525 -0.3321  0.5257  0.3673
 9198SOL    HW139318  10.724  10.377   5.560 -3.2126  1.4020 -2.6453
 9198SOL    HW239319  10.786  10.512   5.589 -1.6353  0.0209  0.9494
 9199SOL     OW39320   7.807   4.489   8.689 -0.3362  0.2302 -0.2139
 9199SOL    HW139321   7.836   4.399   8.704  1.7114  0.9197  0.3382
 9199SOL    HW239322   7.749   4.508   8.763  0.7163 -0.0679  0.7330
 9200SOL     OW39323   2.637   3.727   6.019 -0.3584  0.3669 -0.0725
 9200SOL    HW139324   2.545   3.728   5.994 -0.1975 -2.2566 -1.0871
 9200SOL    HW239325   2.651   3.810   6.065 -3.1847  0.8353  0.0828
 9201SOL     OW39326   5.263   7.955   5.359 -0.1686  0.3773 -0.0752
 9201SOL    HW139327   5.210   8.034   5.351 -0.8662 -0.0008  0.7306
 9201SOL    HW239328   5.231   7.912   5.438 -0.4277 -1.1884 -0.9875
 9202SOL     OW39329   0.274   6.584   7.896 -0.2810 -0.6542 -0.1607
 9202SOL    HW139330   0.361   6.561   7.929 -0.6796  0.0683  1.4960
 9202SOL    HW239331   0.290   6.627   7.812  0.7868 -2.4723 -0.9357
 9203SOL     OW39332   3.964   4.322   9.710 -0.3461 -0.1514 -0.3284
 9203SOL    HW139333   3.912   4.399   9.735  0.7821  0.1050  1.4527
 9203SOL    HW239334   3.990   4.283   9.794  0.5562 -1.4809 -1.1909
 9204SOL     OW39335   4.705  10.384  10.169  0.6297 -0.3041 -0.2356
 9204SOL    HW139336   4.723  10.294  10.142  0.3597 -0.3540 -0.2522
 9204SOL    HW239337   4.624  10.378  10.220  0.9493 -0.1614  0.2966
 9205SOL     OW39338   0.345   0.280   2.338 -0.8326  0.2482 -0.2174
 9205SOL    HW139339   0.321   0.370   2.361  0.5849  0.4655  0.4773
 9205SOL    HW239340   0.367   0.239   2.421  0.8486 -0.0244 -0.7560
 9206SOL     OW39341  10.833  11.591   9.189  0.2303  0.0252 -0.0928
 9206SOL    HW139342  10.859  11.654   9.256 -0.9631 -0.1184  0.5262
 9206SOL    HW239343  10.768  11.637   9.136 -0.8687 -0.7479  0.5376
 9207SOL     OW39344   0.977   0.220   6.892  0.3333 -0.1110 -0.2859
 9207SOL    HW139345   0.961   0.141   6.943  0.6012  0.1157  0.1547
 9207SOL    HW239346   0.938   0.290   6.944  0.8026  0.1508 -0.2845
 9208SOL     OW39347  11.710   6.377   4.471  0.6389 -0.0169  0.1124
 9208SOL    HW139348  11.799   6.345   4.457  0.4564 -1.4494  1.8172
 9208SOL    HW239349  11.657   6.298   4.481 -0.2470  0.7554  2.2287
 9209SOL     OW39350   1.116   7.419   4.292 -0.3560  0.0238 -0.5712
 9209SOL    HW139351   1.074   7.336   4.316  0.5763 -0.4686 -0.6107
 9209SOL    HW239352   1.165   7.399   4.212  1.0438  0.2213  0.2023
 9210SOL     OW39353   4.017   0.194   4.973  0.1209 -0.2112  0.4977
 9210SOL    HW139354   4.005   0.166   4.882  1.8423 -1.9448  0.7501
 9210SOL    HW239355   3.949   0.148   5.022  0.2124 -0.5446  0.3112
 9211SOL     OW39356   4.352   5.797   9.640  0.4551  0.2128 -0.0614
 9211SOL    HW139357   4.296   5.733   9.683  0.1806  0.6682  0.2678
 9211SOL    HW239358   4.321   5.882   9.671 -0.1107  0.5960 -1.5825
 9212SOL     OW39359   7.478   5.680  11.555 -0.1053  0.3985 -0.0029
 9212SOL    HW139360   7.455   5.637  11.638 -1.1583  1.3201  0.2126
 9212SOL    HW239361   7.402   5.734  11.535  0.6456  1.1301 -0.9502
 9213SOL     OW39362   0.126   2.807   6.411 -0.0023 -0.6112 -0.1486
 9213SOL    HW139363   0.133   2.873   6.343  0.6588  0.2634  0.7448
 9213SOL    HW239364   0.059   2.746   6.379 -0.2858  0.2316 -1.1904
 9214SOL     OW39365   4.201   9.254   2.476  0.1199  1.0177  0.4922
 9214SOL    HW139366   4.181   9.345   2.496 -1.4121  0.7833  0.1558
 9214SOL    HW239367   4.167   9.205   2.551  1.7333  0.7512  1.1037
 9215SOL     OW39368   4.763   4.396  10.848 -0.0614 -0.7542 -0.8055
 9215SOL    HW139369   4.802   4.309  10.856  2.1148  0.1024 -1.2051
 9215SOL    HW239370   4.748   4.407  10.754 -0.0409 -0.5906 -0.7898
 9216SOL     OW39371   8.618   7.802   5.074  0.2174  0.2448  0.2829
 9216SOL    HW139372   8.532   7.843   5.086 -0.5023 -0.9230 -0.6623
 9216SOL    HW239373   8.598   7.709   5.058  1.6118  0.0889 -0.6878
 9217SOL     OW39374   3.324   4.104  11.215 -0.5636 -0.3791  0.6414
 9217SOL    HW139375   3.401   4.155  11.189 -0.5072  0.1721  1.7996
 9217SOL    HW239376   3.360   4.031  11.265 -0.7513 -0.5813  0.4840
 9218SOL     OW39377   1.727   7.810   7.842  0.2100  0.2386 -0.3594
 9218SOL    HW139378   1.778   7.789   7.764  2.0491 -2.0823  1.3254
 9218SOL    HW239379   1.662   7.740   7.848  0.8523 -0.2919  0.7694
 9219SOL     OW39380   3.034  10.129   8.290  0.0035  0.1731  0.4933
 9219SOL    HW139381   3.071  10.090   8.211  0.2668 -2.1389  1.6516
 9219SOL    HW239382   2.981  10.202   8.259  1.7403  0.6392 -1.6225
 9220SOL     OW39383  10.938   0.309   5.183 -0.3880  0.3055  0.4190
 9220SOL    HW139384  10.884   0.235   5.154  0.2376 -0.3671  0.9095
 9220SOL    HW239385  11.006   0.317   5.115 -1.3220  1.4316 -0.4254
 9221SOL     OW39386   7.365   3.169   5.854  0.3467 -0.1762  0.1575
 9221SOL    HW139387   7.443   3.207   5.814  0.6883 -0.8177  0.2088
 9221SOL    HW239388   7.365   3.203   5.943 -0.3997  1.2350 -0.3398
 9222SOL     OW39389   7.117  10.156   8.603  0.4064 -0.3022  0.1580
 9222SOL    HW139390   7.125  10.124   8.513  1.2932 -0.5787  0.3252
 9222SOL    HW239391   7.107  10.251   8.595 -0.2241 -0.3981 -0.2571
 9223SOL     OW39392  11.318   5.373   1.275  0.5710  0.2578  0.4498
 9223SOL    HW139393  11.284   5.305   1.333 -0.6283  0.4462 -0.0069
 9223SOL    HW239394  11.275   5.357   1.191  1.2293  0.8262 -0.0132
 9224SOL     OW39395   6.946   7.315  11.507  0.1494 -0.3634 -0.6371
 9224SOL    HW139396   6.928   7.221  11.516 -1.4461  0.0735  1.7918
 9224SOL    HW239397   7.026   7.329  11.556 -0.9202 -0.1554  1.1438
 9225SOL     OW39398   9.988   0.045   0.375 -0.1538 -0.4620  0.4207
 9225SOL    HW139399   9.947   0.120   0.332 -2.2648 -2.0380 -0.5451
 9225SOL    HW239400  10.050   0.082   0.436 -1.9392  2.1107  0.8210
 9226SOL     OW39401   9.750  11.836   5.863 -0.0072  0.0910 -0.1149
 9226SOL    HW139402   9.732  11.781   5.939  0.4762 -1.0444 -0.8107
 9226SOL    HW239403   9.668  11.884   5.848 -0.7427 -1.1208 -0.0502
 9227SOL     OW39404   4.207   0.521   8.509  0.1667 -0.0890 -0.6467
 9227SOL    HW139405   4.137   0.543   8.447 -1.8889 -1.7348  0.9835
 9227SOL    HW239406   4.217   0.426   8.502 -0.0555 -0.3091  1.4470
 9228SOL     OW39407   6.731   5.384   1.146 -0.4374 -0.1678  0.6239
 9228SOL    HW139408   6.707   5.410   1.057 -1.5606 -1.0553  0.6509
 9228SOL    HW239409   6.826   5.396   1.149 -0.5808  1.5465 -0.1191
 9229SOL     OW39410   6.587   1.211   4.977 -0.0635  0.0673 -0.0852
 9229SOL    HW139411   6.500   1.214   4.936  1.0592  0.2226 -2.6487
 9229SOL    HW239412   6.636   1.279   4.931  1.5090 -0.2053  1.1356
 9230SOL     OW39413   1.307   3.391   6.569  0.0764  0.4634 -0.1879
 9230SOL    HW139414   1.297   3.485   6.582 -0.0591  0.3203  0.7659
 9230SOL    HW239415   1.398   3.380   6.540 -0.0241  0.9180 -0.6881
 9231SOL     OW39416   3.646   2.178   4.061  0.1752 -0.2617 -0.3280
 9231SOL    HW139417   3.614   2.268   4.074  0.9090 -0.0786  0.3357
 9231SOL    HW239418   3.622   2.132   4.142  0.9501 -0.2985 -0.1058
 9232SOL     OW39419   0.063   5.372   7.576 -0.3257 -0.4360 -0.2251
 9232SOL    HW139420   0.107   5.365   7.491 -1.8536 -2.8556 -0.8895
 9232SOL    HW239421  -0.026   5.340   7.561 -1.6654  2.0546  1.6153
 9233SOL     OW39422   4.323   7.879   8.997  0.0825 -1.3095 -0.0750
 9233SOL    HW139423   4.308   7.834   8.914 -0.2292 -2.1884  0.4358
 9233SOL    HW239424   4.394   7.828   9.038 -0.1398 -1.2138  0.4299
 9234SOL     OW39425   3.896  10.238  10.711  0.3648 -0.0817 -0.2918
 9234SOL    HW139426   3.834  10.193  10.768 -0.1108  0.8156 -0.0750
 9234SOL    HW239427   3.842  10.298  10.659  0.8511 -0.5328 -1.3466
 9235SOL     OW39428   7.231   8.537   0.486 -0.2742 -0.3993  0.0634
 9235SOL    HW139429   7.240   8.591   0.564  0.7018 -0.1930 -0.1684
 9235SOL    HW239430   7.275   8.455   0.507  2.4765  0.6384 -1.1222
 9236SOL     OW39431   5.025   9.916   8.639  0.3745  0.5285 -0.2456
 9236SOL    HW139432   5.095   9.943   8.700 -0.5318  0.6642  0.7704
 9236SOL    HW239433   5.038   9.972   8.562  0.0647  2.1546  0.8230
 9237SOL     OW39434   8.080   3.022   3.036 -0.2803  0.4306 -0.0434
 9237SOL    HW139435   8.008   3.085   3.039  0.1081  0.8462  0.7006
 9237SOL    HW239436   8.140   3.051   3.104 -0.1707 -0.8292  0.4263
 9238SOL     OW39437   4.791   9.776   6.601  0.1674  0.3763  0.1491
 9238SOL    HW139438   4.735   9.825   6.661 -1.3549 -1.4962  0.3606
 9238SOL    HW239439   4.732   9.713   6.559  1.8585 -0.7188 -0.6983
 9239SOL     OW39440   1.041   3.544  10.159  0.4614 -0.0083 -0.0390
 9239SOL    HW139441   0.972   3.530  10.094  0.5826  0.1028 -0.1926
 9239SOL    HW239442   1.015   3.490  10.234 -1.4354  2.4186  1.1668
 9240SOL     OW39443   7.579   5.838   2.884 -0.2458  0.0573  0.2787
 9240SOL    HW139444   7.597   5.760   2.831 -2.0206  0.8322 -1.6337
 9240SOL    HW239445   7.496   5.817   2.928  0.8549 -0.2969  2.3020
 9241SOL     OW39446   2.260   3.576   0.212 -0.3800 -0.0432 -0.6960
 9241SOL    HW139447   2.315   3.506   0.176 -1.1271 -0.1425 -1.6982
 9241SOL    HW239448   2.231   3.543   0.297  0.7664 -0.1577 -0.3356
 9242SOL     OW39449   5.797   0.222   0.514 -0.5224  0.3335 -0.2725
 9242SOL    HW139450   5.752   0.240   0.432  0.1462 -0.3243 -0.7984
 9242SOL    HW239451   5.877   0.176   0.488 -1.1871 -1.5983  0.8431
 9243SOL     OW39452   1.306   5.691  10.709  0.0324  0.1239 -0.4570
 9243SOL    HW139453   1.261   5.694  10.793  2.7434 -0.4726  1.1447
 9243SOL    HW239454   1.318   5.783  10.685 -0.2748  0.3059  0.0715
 9244SOL     OW39455   4.865   4.208   9.634  0.8585  0.2020 -0.3369
 9244SOL    HW139456   4.923   4.162   9.694  0.1069  0.2699  0.4644
 9244SOL    HW239457   4.779   4.168   9.649  0.1474  1.9524  0.5052
 9245SOL     OW39458   7.985   5.480   0.526  0.2144  0.0354  0.2871
 9245SOL    HW139459   7.910   5.485   0.467 -0.1704  0.7673  0.8110
 9245SOL    HW239460   8.031   5.562   0.513  2.0295 -1.1628 -1.3990
 9246SOL     OW39461   4.087   3.348   2.072 -0.7865  0.5524  0.1384
 9246SOL    HW139462   4.033   3.292   2.016  0.0433  2.8698 -3.2684
 9246SOL    HW239463   4.177   3.325   2.049 -0.3502  0.3930  1.8709
 9247SOL     OW39464   9.752   1.277   8.763 -0.3230 -0.0237  0.1629
 9247SOL    HW139465   9.792   1.300   8.847 -1.1343  0.0459  0.5341
 9247SOL    HW239466   9.658   1.270   8.782 -0.6250  0.8516 -0.9164
 9248SOL     OW39467   4.157  11.730   7.883 -0.2311  0.4391  0.1201
 9248SOL    HW139468   4.146  11.806   7.940  1.4251  0.8706 -0.0832
 9248SOL    HW239469   4.190  11.661   7.940 -2.4323 -0.4088  0.4560
 9249SOL     OW39470   2.034   1.762   4.388  0.0149 -0.0876 -0.1420
 9249SOL    HW139471   1.952   1.713   4.403 -0.2832  0.7718  1.2204
 9249SOL    HW239472   2.049   1.808   4.470  1.3733  0.5271 -0.7151
 9250SOL     OW39473   3.753   5.889   2.084 -0.3749  0.0169  0.4387
 9250SOL    HW139474   3.703   5.909   2.163  1.7483  2.6847  1.2314
 9250SOL    HW239475   3.730   5.958   2.023  0.0765 -0.4602 -0.2789
 9251SOL     OW39476   3.715   5.778   6.472  0.4125  0.4058 -0.0164
 9251SOL    HW139477   3.733   5.849   6.533 -0.0314  0.0752  0.5172
 9251SOL    HW239478   3.672   5.820   6.398  1.5412  0.9071 -0.4059
 9252SOL     OW39479  10.185   1.935   5.848 -0.4981 -0.1954 -0.4968
 9252SOL    HW139480  10.218   1.845   5.848 -2.3804 -1.0234  2.4266
 9252SOL    HW239481  10.216   1.971   5.931  0.5487  2.0609 -1.7896
 9253SOL     OW39482   9.337   9.306   5.481  0.0377 -0.4441  0.3246
 9253SOL    HW139483   9.414   9.295   5.425  0.9553  0.0170  1.4425
 9253SOL    HW239484   9.368   9.359   5.554 -1.5056  0.2371  0.5212
 9254SOL     OW39485   9.445   5.168   4.725 -0.6328  0.3848 -0.5204
 9254SOL    HW139486   9.474   5.084   4.689  0.5666 -0.1313  1.5212
 9254SOL    HW239487   9.352   5.173   4.700 -0.9025 -1.8473 -0.1987
 9255SOL     OW39488  11.221  10.720   1.159 -0.0407  0.0474  0.1828
 9255SOL    HW139489  11.299  10.674   1.127  0.3449  0.4616  0.4962
 9255SOL    HW239490  11.256  10.800   1.200 -0.4594 -0.6700  2.0507
 9256SOL     OW39491   2.442  10.211   7.835 -0.6709 -0.2401 -0.8250
 9256SOL    HW139492   2.435  10.266   7.757 -1.1686 -0.5550 -1.0028
 9256SOL    HW239493   2.414  10.124   7.806 -0.7317 -0.3889 -0.3271
 9257SOL     OW39494   2.429   7.271   9.441  0.5737 -0.6143 -0.2780
 9257SOL    HW139495   2.420   7.347   9.384  1.8079 -1.4314 -1.6201
 9257SOL    HW239496   2.504   7.291   9.497 -0.1935 -0.1199  0.6029
 9258SOL     OW39497  10.233   5.268   0.319 -0.0909 -0.2598 -0.2719
 9258SOL    HW139498  10.184   5.350   0.317  2.3306  1.2833 -0.8452
 9258SOL    HW239499  10.316   5.290   0.362  0.9589 -2.2045 -1.1340
 9259SOL     OW39500   5.572   7.794  11.177 -0.1577 -0.3793 -0.0442
 9259SOL    HW139501   5.526   7.877  11.168 -0.1138 -0.1716  1.4657
 9259SOL    HW239502   5.647   7.814  11.232  0.6919 -1.1249 -0.8890
 9260SOL     OW39503   2.932  11.829   4.131 -0.4720 -0.1109 -0.5581
 9260SOL    HW139504   2.904  11.820   4.222 -1.8794 -0.5881 -1.0040
 9260SOL    HW239505   2.858  11.794   4.080  0.2727  0.1791 -1.8796
 9261SOL     OW39506   5.291  10.340   7.026 -0.1396 -0.0373 -0.1781
 9261SOL    HW139507   5.343  10.420   7.017  0.8283 -0.7079 -0.8082
 9261SOL    HW239508   5.200  10.370   7.023  0.1866  1.1883  1.1984
 9262SOL     OW39509   4.069   8.109   7.621  0.1837 -0.1090 -0.5053
 9262SOL    HW139510   4.017   8.031   7.639  0.0792  0.3236  1.1682
 9262SOL    HW239511   4.010   8.182   7.638  1.1076  0.3759  0.7974
 9263SOL     OW39512  10.951  10.980   9.027  0.3133  0.4125  0.2288
 9263SOL    HW139513  10.896  10.992   8.950 -0.6311  0.9780  0.9710
 9263SOL    HW239514  11.036  11.016   9.001  0.9505 -2.1477 -1.5550
 9264SOL     OW39515   8.702   1.397   3.041  0.0938  0.2937 -0.1536
 9264SOL    HW139516   8.760   1.440   2.977 -0.7764  2.1687  0.2567
 9264SOL    HW239517   8.674   1.316   2.997  2.5889 -0.4393 -0.5483
 9265SOL     OW39518   2.337   9.336   5.096  0.4082  0.3740  0.2582
 9265SOL    HW139519   2.372   9.383   5.172 -2.1901  1.5198  0.8555
 9265SOL    HW239520   2.249   9.310   5.123 -0.2088 -0.0699 -2.0242
 9266SOL     OW39521   7.357   8.061   7.465 -0.0674  0.5722 -0.0790
 9266SOL    HW139522   7.303   8.065   7.386 -0.9856  0.4915  0.5211
 9266SOL    HW239523   7.295   8.035   7.534  0.7759  0.3608  0.6076
 9267SOL     OW39524   7.465   5.538   8.895  0.2328  0.1698 -0.2495
 9267SOL    HW139525   7.379   5.539   8.853 -0.5519  0.0928  1.2528
 9267SOL    HW239526   7.445   5.537   8.989  1.8222 -2.7982  0.1677
 9268SOL     OW39527   4.473   5.946   6.644  0.0657 -0.0713 -0.3991
 9268SOL    HW139528   4.407   5.889   6.684  0.0452  0.1104 -0.1707
 9268SOL    HW239529   4.437   5.967   6.557  0.2479 -0.6990 -0.6277
 9269SOL     OW39530   4.580  11.271   3.477  0.0679  0.0914 -0.2158
 9269SOL    HW139531   4.576  11.197   3.417  0.3077 -0.3900  0.3569
 9269SOL    HW239532   4.652  11.325   3.444  1.1314 -0.8870  0.4337
 9270SOL     OW39533   7.766   5.069   1.069 -0.6080  0.2307 -0.2725
 9270SOL    HW139534   7.732   5.010   1.001  0.8822 -0.8608 -0.1272
 9270SOL    HW239535   7.750   5.022   1.151 -1.8087  1.2545  0.1095
 9271SOL     OW39536   7.957   7.278   2.549 -0.1533 -0.4838 -0.0602
 9271SOL    HW139537   7.970   7.199   2.497 -1.6819  0.6684 -2.4095
 9271SOL    HW239538   7.974   7.350   2.488  2.1991  1.1120  2.2621
 9272SOL     OW39539  10.768   9.940   7.328  0.1204 -0.4037  0.2929
 9272SOL    HW139540  10.744   9.907   7.415 -0.5247 -0.1315  0.2229
 9272SOL    HW239541  10.685   9.949   7.282  0.2093  1.7828  0.4569
 9273SOL     OW39542   8.032   2.254   8.530  0.0521  0.1282 -0.3839
 9273SOL    HW139543   7.964   2.316   8.503 -0.9314  0.5490  2.6700
 9273SOL    HW239544   8.012   2.174   8.481 -1.1460  0.9913 -1.3722
 9274SOL     OW39545   6.194   2.071   4.963 -0.6439  0.2362 -0.2860
 9274SOL    HW139546   6.123   2.067   4.899 -0.3305 -1.1676 -0.5785
 9274SOL    HW239547   6.152   2.101   5.043 -1.1078  1.6909 -1.0451
 9275SOL     OW39548   9.561   9.140   9.316 -0.6917 -0.2536  0.0764
 9275SOL    HW139549   9.561   9.074   9.247  1.8741  0.9092 -1.1575
 9275SOL    HW239550   9.523   9.217   9.275 -1.8610 -0.3449  0.9222
 9276SOL     OW39551  11.523   5.126  10.266 -0.1522 -0.6391 -0.1237
 9276SOL    HW139552  11.459   5.059  10.290  0.5040 -1.1092  0.3381
 9276SOL    HW239553  11.606   5.094  10.302 -0.0348  1.0090  1.1806
 9277SOL     OW39554   5.546   0.992   3.981 -0.5204 -0.5619 -0.2365
 9277SOL    HW139555   5.535   0.980   3.887  0.6632  1.6793 -0.7472
 9277SOL    HW239556   5.482   1.059   4.004  1.3487  1.3152 -0.1775
 9278SOL     OW39557   7.395   0.301   2.625  0.4910  0.2615 -0.6401
 9278SOL    HW139558   7.347   0.232   2.580  0.9325 -0.7791  0.4488
 9278SOL    HW239559   7.394   0.375   2.563 -4.7164  1.2747  0.1826
 9279SOL     OW39560   5.397   7.517   2.630  0.6243 -0.2968  0.0508
 9279SOL    HW139561   5.452   7.508   2.552  0.1211 -1.4871 -0.1933
 9279SOL    HW239562   5.459   7.535   2.701  1.2374 -0.6181 -0.3940
 9280SOL     OW39563   6.720   3.518  11.295  0.1206  0.0096  0.1353
 9280SOL    HW139564   6.692   3.587  11.234 -1.7263 -1.4079 -0.7127
 9280SOL    HW239565   6.646   3.506  11.354  1.1213 -0.0445  1.4354
 9281SOL     OW39566  11.101   3.676   8.580  0.2686 -0.4360  0.2727
 9281SOL    HW139567  11.085   3.588   8.547 -0.2091  0.3775 -1.8259
 9281SOL    HW239568  11.019   3.701   8.622  0.2882 -0.8422  0.5636
 9282SOL     OW39569   0.265   3.201   3.262 -0.0677  0.2596 -0.2616
 9282SOL    HW139570   0.287   3.111   3.236  0.3831  0.2179  0.2433
 9282SOL    HW239571   0.169   3.201   3.267 -0.0326 -0.8188  1.8133
 9283SOL     OW39572   0.974   0.087   1.395 -0.6321 -0.2051  0.0021
 9283SOL    HW139573   0.905   0.022   1.394 -0.0897 -0.8136  0.6719
 9283SOL    HW239574   1.027   0.065   1.472 -0.2980  0.8790  0.1070
 9284SOL     OW39575   9.714   1.373   5.894 -0.0836 -0.4502 -0.3879
 9284SOL    HW139576   9.648   1.310   5.864 -0.7424  0.1530 -0.2334
 9284SOL    HW239577   9.798   1.329   5.880 -0.5728 -1.9087  0.9471
 9285SOL     OW39578   0.317   2.791   0.996  0.4762  0.4702  0.4796
 9285SOL    HW139579   0.326   2.822   1.086  1.0627  2.0128 -0.0654
 9285SOL    HW239580   0.406   2.797   0.960 -0.1798  2.5657 -0.9841
 9286SOL     OW39581   1.095  10.628   6.529 -0.3217 -0.1255  0.4008
 9286SOL    HW139582   1.146  10.709   6.522  1.5247 -1.1513  1.3353
 9286SOL    HW239583   1.113  10.581   6.448 -3.0524  1.2265 -1.1123
 9287SOL     OW39584   4.599  11.896  10.063 -0.1229 -0.1029  0.2381
 9287SOL    HW139585   4.595  11.991  10.060 -0.2917 -0.1099  0.1977
 9287SOL    HW239586   4.658  11.876  10.135 -0.1491  0.0312  0.2954
 9288SOL     OW39587   3.397   3.716  11.019  0.1124  0.0646 -0.2017
 9288SOL    HW139588   3.475   3.730  11.071  2.1013 -0.2500 -2.8612
 9288SOL    HW239589   3.395   3.622  11.003 -0.5030  0.1326 -0.5880
 9289SOL     OW39590   4.794   7.072   8.460 -0.0744 -0.0436  0.3497
 9289SOL    HW139591   4.787   7.166   8.444  5.1150  0.7473  0.8352
 9289SOL    HW239592   4.804   7.066   8.556  0.3287 -0.9663  0.2567
 9290SOL     OW39593   1.078   0.021  10.121  0.0355  0.0241  0.0594
 9290SOL    HW139594   1.048  -0.069  10.106 -1.1980  0.0162  2.0669
 9290SOL    HW239595   1.048   0.070  10.045 -0.7085 -0.9887 -0.3209
 9291SOL     OW39596  11.599  11.901  10.707 -0.8983 -0.4793  0.1854
 9291SOL    HW139597  11.517  11.852  10.696 -1.0096 -0.3938  0.6294
 9291SOL    HW239598  11.621  11.891  10.799  0.6008 -2.0738 -0.3061
 9292SOL     OW39599   3.692   7.829   3.563  0.5620 -0.7673 -0.4484
 9292SOL    HW139600   3.760   7.762   3.573  1.9234  0.6371 -0.0302
 9292SOL    HW239601   3.610   7.779   3.559  1.1716 -2.3782  3.0316
 9293SOL     OW39602   0.022   5.563   9.789 -0.3951  0.0828 -0.0861
 9293SOL    HW139603   0.048   5.635   9.846 -1.3352 -0.0638  0.5489
 9293SOL    HW239604   0.078   5.572   9.712 -0.5620  1.5322 -0.0588
 9294SOL     OW39605  11.834  10.627  10.034  0.0439 -0.4488  0.1540
 9294SOL    HW139606  11.888  10.555  10.067  0.3051 -0.7580 -0.8902
 9294SOL    HW239607  11.782  10.586   9.964  1.7402  0.7963 -1.9541
 9295SOL     OW39608   7.510   8.360   9.326  0.2819 -0.2030  0.4527
 9295SOL    HW139609   7.446   8.332   9.391 -0.6486 -1.5982 -0.9758
 9295SOL    HW239610   7.592   8.321   9.355  0.4635  1.2512  2.0731
 9296SOL     OW39611   7.990  11.048   9.412 -0.3172 -0.0817  0.2707
 9296SOL    HW139612   7.970  10.955   9.402 -1.3663 -0.2470  3.1290
 9296SOL    HW239613   7.905  11.092   9.405 -0.0876  0.4580  0.8035
 9297SOL     OW39614   8.330   2.127   6.528 -0.4324  0.5772 -0.2644
 9297SOL    HW139615   8.347   2.118   6.434 -1.5535  1.4113 -0.5629
 9297SOL    HW239616   8.299   2.040   6.554 -0.9970  0.5879 -0.8641
 9298SOL     OW39617   7.117   3.227   7.054 -0.1618 -0.0866  0.2479
 9298SOL    HW139618   7.167   3.308   7.064 -1.5205  0.7100  0.9198
 9298SOL    HW239619   7.182   3.161   7.030  1.1697  0.9455  0.8914
 9299SOL     OW39620   0.364   4.446   0.776 -0.3931 -0.8636 -0.1518
 9299SOL    HW139621   0.315   4.376   0.732 -0.5799  0.9888 -3.1972
 9299SOL    HW239622   0.408   4.403   0.849 -0.3698 -4.1858 -1.9558
 9300SOL     OW39623  11.363   2.300   9.090 -0.0792  0.8097 -0.0476
 9300SOL    HW139624  11.383   2.389   9.118 -1.1430  0.5649  1.6404
 9300SOL    HW239625  11.277   2.282   9.127 -0.1097 -0.7519 -0.7942
 9301SOL     OW39626   5.387   9.915   5.341  0.4188  0.1276  0.0995
 9301SOL    HW139627   5.379   9.821   5.358  1.9210  0.1286  1.0515
 9301SOL    HW239628   5.395   9.921   5.246 -1.3480 -0.5330 -0.1294
 9302SOL     OW39629   6.727   3.530  10.711 -0.9078 -0.2164 -0.3524
 9302SOL    HW139630   6.817   3.541  10.680 -0.6225 -2.0985 -0.3030
 9302SOL    HW239631   6.731   3.547  10.805 -0.6010 -0.2447 -0.3586
 9303SOL     OW39632   6.828   8.752   8.997  0.3126 -0.4497 -0.3875
 9303SOL    HW139633   6.873   8.770   8.915  1.6695 -1.0194  0.1850
 9303SOL    HW239634   6.872   8.673   9.031 -0.4118 -0.3912  0.7256
 9304SOL     OW39635   5.057  11.124   7.719 -0.3696  0.4107  0.0236
 9304SOL    HW139636   5.127  11.097   7.778 -0.1571  0.0334 -0.3994
 9304SOL    HW239637   5.088  11.208   7.683  0.9660 -0.8159 -1.9142
 9305SOL     OW39638   5.359   8.147   9.107 -0.2906  0.1160 -0.3469
 9305SOL    HW139639   5.310   8.182   9.182 -0.3861 -0.6591 -0.0381
 9305SOL    HW239640   5.450   8.174   9.123 -0.1279 -0.8894  0.5956
 9306SOL     OW39641   6.114  10.513   4.198  0.0862  0.0417  0.5083
 9306SOL    HW139642   6.038  10.547   4.152  0.3140  0.2237  0.2622
 9306SOL    HW239643   6.082  10.492   4.285 -0.5252 -0.9682  0.0676
 9307SOL     OW39644   0.022   6.015   4.393 -0.6193 -0.4994 -0.7798
 9307SOL    HW139645   0.040   5.933   4.439  0.6230 -1.2131 -2.4553
 9307SOL    HW239646   0.108   6.050   4.372 -1.1111  1.5836  0.3957
 9308SOL     OW39647   1.951  11.957   8.852 -0.4490 -0.5652  0.4577
 9308SOL    HW139648   2.042  11.959   8.879 -0.8000  0.5526  1.6172
 9308SOL    HW239649   1.905  11.913   8.924 -1.5527  3.3884  2.4373
 9309SOL     OW39650  10.933   2.635   6.460  0.4254 -0.1982 -0.6313
 9309SOL    HW139651  11.019   2.661   6.493  0.1333  0.0983 -0.0929
 9309SOL    HW239652  10.952   2.588   6.379  1.1203 -0.4221 -0.3514
 9310SOL     OW39653   6.164   3.726   0.319  0.4033  0.6512  0.5329
 9310SOL    HW139654   6.100   3.709   0.250  0.9914 -1.0353  0.3499
 9310SOL    HW239655   6.121   3.697   0.400  0.8964 -0.4935  0.4084
 9311SOL     OW39656   2.168   1.114   9.730  0.2993 -0.0133  0.1357
 9311SOL    HW139657   2.211   1.188   9.772  1.6234  0.5259 -2.0180
 9311SOL    HW239658   2.239   1.061   9.695 -0.7061 -0.8422 -0.7210
 9312SOL     OW39659  11.667   1.100   9.754  0.1532  0.4796 -0.8216
 9312SOL    HW139660  11.652   1.016   9.798 -1.1979  0.3720 -1.4366
 9312SOL    HW239661  11.720   1.150   9.816 -0.6652 -0.1232  0.4100
 9313SOL     OW39662   4.816   8.365   7.652  0.1401 -0.4968  0.7290
 9313SOL    HW139663   4.773   8.451   7.648  0.8153 -0.1168  1.2792
 9313SOL    HW239664   4.770   8.318   7.722 -1.1727 -1.1381 -0.5335
 9314SOL     OW39665   0.173   1.544  11.590  0.0490 -0.3764  0.4282
 9314SOL    HW139666   0.102   1.479  11.586 -0.5693  0.1199  2.1870
 9314SOL    HW239667   0.154   1.595  11.669  0.6884  1.7698 -0.7204
 9315SOL     OW39668   2.173   9.845   6.424 -0.0885 -0.2259  0.1936
 9315SOL    HW139669   2.119   9.876   6.497  1.2651 -2.4485  2.3002
 9315SOL    HW239670   2.244   9.910   6.418 -0.9850  0.7537 -0.1822
 9316SOL     OW39671   8.162   3.602   7.357  0.1478  0.0079 -0.0503
 9316SOL    HW139672   8.239   3.611   7.412 -0.6430 -0.2955  1.1608
 9316SOL    HW239673   8.170   3.514   7.319 -0.3491 -0.6684  1.3260
 9317SOL     OW39674   2.647   7.610   1.622 -0.0274 -0.0305  0.3936
 9317SOL    HW139675   2.699   7.536   1.655  0.0288  0.2783  1.0221
 9317SOL    HW239676   2.712   7.673   1.591 -0.0950 -0.8456 -1.5629
 9318SOL     OW39677   0.203  11.767   8.788  0.3345 -0.2479  0.0574
 9318SOL    HW139678   0.191  11.705   8.859  0.7187 -0.0622  0.2888
 9318SOL    HW239679   0.198  11.715   8.708 -2.6786 -0.1329  0.0503
 9319SOL     OW39680  11.056  10.157   9.451 -0.1114 -0.4193  0.1930
 9319SOL    HW139681  11.074  10.111   9.369 -0.0281  0.2716 -0.1808
 9319SOL    HW239682  10.996  10.099   9.498 -1.0391 -0.3235 -0.8406
 9320SOL     OW39683   9.891   5.671   5.140 -0.3397 -0.1537 -0.0747
 9320SOL    HW139684   9.815   5.715   5.177 -0.3905 -0.1844 -0.1420
 9320SOL    HW239685   9.897   5.589   5.189  0.2008  0.2579  0.5600
 9321SOL     OW39686   4.868  11.723   5.356  0.5275  0.0542 -0.5450
 9321SOL    HW139687   4.791  11.781   5.354  1.0828  0.7996 -1.1755
 9321SOL    HW239688   4.936  11.773   5.310  2.2592  0.6558  2.4014
 9322SOL     OW39689   6.480  10.153   9.641 -0.7744  0.2850  0.2874
 9322SOL    HW139690   6.447  10.063   9.648 -1.6149  0.4496 -1.1609
 9322SOL    HW239691   6.434  10.190   9.565  1.4387  1.1304 -0.7287
 9323SOL     OW39692   9.457   7.233   6.236 -0.0244 -0.3305  0.6913
 9323SOL    HW139693   9.470   7.139   6.223  0.8491  0.0713 -1.9719
 9323SOL    HW239694   9.491   7.250   6.324  1.4451 -2.2150  0.5475
 9324SOL     OW39695  10.627   3.360   0.847 -0.0135 -0.2357  0.0007
 9324SOL    HW139696  10.583   3.380   0.765  0.8036  0.2538 -0.3371
 9324SOL    HW239697  10.672   3.277   0.830  1.1658  0.4649 -0.4938
 9325SOL     OW39698   8.753  10.152   8.815 -0.4616  0.2974  0.1781
 9325SOL    HW139699   8.724  10.125   8.728 -1.1306  0.2567  0.4138
 9325SOL    HW239700   8.847  10.134   8.815 -0.2315  1.3616 -0.9368
 9326SOL     OW39701   1.682   2.165   7.989 -0.3594  0.1327  0.7214
 9326SOL    HW139702   1.657   2.101   8.055 -0.5718  0.3198  0.8212
 9326SOL    HW239703   1.777   2.175   8.001 -0.3785  0.0819  0.9205
 9327SOL     OW39704   6.874  10.806   4.050  0.1608  0.1236  0.6127
 9327SOL    HW139705   6.802  10.768   4.100  1.2766 -1.9499  0.7742
 9327SOL    HW239706   6.833  10.869   3.991 -1.5226  0.4344  2.0542
 9328SOL     OW39707   5.254   9.470   5.638 -0.1544 -0.3704  0.4678
 9328SOL    HW139708   5.287   9.391   5.680 -0.3325 -0.8469 -0.2617
 9328SOL    HW239709   5.255   9.537   5.707  3.5975  0.0486  0.2103
 9329SOL     OW39710   5.284   8.493   8.825 -0.1317  0.1967  0.1354
 9329SOL    HW139711   5.244   8.407   8.814 -1.8322  1.0421 -0.6053
 9329SOL    HW239712   5.220   8.543   8.875 -0.8234  2.0772 -2.4149
 9330SOL     OW39713   1.352   3.430   8.691 -0.2870 -0.3291 -0.1055
 9330SOL    HW139714   1.298   3.496   8.648 -1.3015 -1.2025 -0.2157
 9330SOL    HW239715   1.343   3.448   8.784 -1.4275 -0.9481 -0.0843
 9331SOL     OW39716   0.575   2.321   0.984 -0.5184 -0.3327  0.0361
 9331SOL    HW139717   0.561   2.385   1.054 -0.7376 -1.8433  1.4288
 9331SOL    HW239718   0.531   2.358   0.908  1.9322  2.6298 -0.1351
 9332SOL     OW39719   7.422   9.594  10.328  0.1344  0.8032  0.1412
 9332SOL    HW139720   7.344   9.602  10.273  1.2773  0.6822 -1.5859
 9332SOL    HW239721   7.411   9.511  10.374  0.6165 -0.8113 -2.4619
 9333SOL     OW39722   7.696  11.802   2.783 -0.4193  0.0810  0.5963
 9333SOL    HW139723   7.785  11.838   2.779 -0.8620  1.4602  2.0390
 9333SOL    HW239724   7.663  11.814   2.694  0.7439 -0.2299  0.0945
 9334SOL     OW39725   7.249  11.661   5.110  0.4996  0.2915 -0.3940
 9334SOL    HW139726   7.310  11.638   5.180  0.5553 -0.1692 -0.5914
 9334SOL    HW239727   7.239  11.756   5.117  0.7288  0.2838  0.0540
 9335SOL     OW39728   5.111   3.390   3.869 -0.0786 -0.0416  0.1001
 9335SOL    HW139729   5.078   3.474   3.901 -0.3413 -0.0425 -0.1671
 9335SOL    HW239730   5.069   3.379   3.784  0.8144  0.0776 -0.3647
 9336SOL     OW39731   6.704   7.714   8.333  0.2886 -0.1419 -1.2085
 9336SOL    HW139732   6.659   7.652   8.390  0.3150  0.5385 -0.4361
 9336SOL    HW239733   6.684   7.800   8.370  1.9920  0.1948 -0.9997
 9337SOL     OW39734   9.101   1.067   9.798 -0.0292  0.6216 -1.1556
 9337SOL    HW139735   9.043   1.054   9.723 -0.7622  0.8656 -0.6397
 9337SOL    HW239736   9.096   0.985   9.847  0.1248  0.6155 -1.1496
 9338SOL     OW39737   1.665   4.329   5.313  0.1691 -0.1045 -0.0034
 9338SOL    HW139738   1.679   4.249   5.262  2.3428  0.5604 -0.5818
 9338SOL    HW239739   1.724   4.321   5.388 -0.8409  0.2390  0.8639
 9339SOL     OW39740   9.866   5.713   8.354  0.4648  0.1467 -0.2462
 9339SOL    HW139741   9.925   5.743   8.285 -0.7355  1.5624 -0.7102
 9339SOL    HW239742   9.778   5.724   8.317 -0.1565 -0.4383  0.9944
 9340SOL     OW39743   2.383   3.910   8.165  0.2866 -0.3165  0.3015
 9340SOL    HW139744   2.304   3.882   8.210  0.4121  0.1624  0.8349
 9340SOL    HW239745   2.359   3.913   8.073 -0.1831 -0.6211  0.4118
 9341SOL     OW39746   7.443   4.560   3.899 -0.1553 -0.9784  0.7795
 9341SOL    HW139747   7.396   4.634   3.861  3.9579  0.1281 -3.0639
 9341SOL    HW239748   7.451   4.497   3.828  2.0910 -2.0657  1.8710
 9342SOL     OW39749   1.624   5.332   4.744 -0.4083 -0.9849  0.0978
 9342SOL    HW139750   1.616   5.387   4.822 -0.3905 -2.3302  1.0964
 9342SOL    HW239751   1.535   5.324   4.711 -0.2536  0.5925 -0.7687
 9343SOL     OW39752   7.573  11.260   4.319 -0.0990 -0.3102  0.1376
 9343SOL    HW139753   7.565  11.170   4.351 -0.5109 -0.6663 -0.9331
 9343SOL    HW239754   7.628  11.304   4.384  0.2209 -1.3684  0.5981
 9344SOL     OW39755   4.807   2.150   8.325 -0.2723  0.3635  0.4225
 9344SOL    HW139756   4.781   2.243   8.325 -0.3252  0.3611  1.3722
 9344SOL    HW239757   4.777   2.117   8.410  0.7989 -0.2307  0.5853
 9345SOL     OW39758  10.070   3.083   4.747  0.4823  0.2431  0.1167
 9345SOL    HW139759  10.075   2.989   4.764 -0.2840  0.0366 -0.7294
 9345SOL    HW239760  10.071   3.123   4.834  0.5743 -0.5566  0.4904
 9346SOL     OW39761   2.592   4.951   4.097 -0.0206 -0.6777 -0.2316
 9346SOL    HW139762   2.554   4.985   4.178  0.8445  1.6569 -0.7353
 9346SOL    HW239763   2.537   4.875   4.075 -1.6801  0.0012  1.3196
 9347SOL     OW39764   3.642   7.108   5.150  0.1899 -0.1324  0.4228
 9347SOL    HW139765   3.612   7.019   5.165 -0.4164 -0.0920 -0.4360
 9347SOL    HW239766   3.722   7.098   5.098  0.1709 -0.1794  0.4027
 9348SOL     OW39767   4.969   2.565   9.246  0.0981 -0.1906 -0.8628
 9348SOL    HW139768   5.039   2.505   9.220  1.0347  0.8655 -0.8481
 9348SOL    HW239769   4.928   2.523   9.321  0.0573 -1.2984 -1.4812
 9349SOL     OW39770   9.284   9.355   8.041 -0.1089 -0.2072 -0.1825
 9349SOL    HW139771   9.367   9.308   8.033  0.9403  1.2957  1.3019
 9349SOL    HW239772   9.218   9.286   8.052  1.1168 -1.3846  0.0711
 9350SOL     OW39773   5.757   6.741   2.717 -0.3307  0.3227 -0.0202
 9350SOL    HW139774   5.835   6.740   2.661  0.3965  0.4078  0.9692
 9350SOL    HW239775   5.710   6.820   2.692  1.4584  1.9267  1.4451
 9351SOL     OW39776   3.614   1.543   7.269  0.4398  0.4916 -0.2600
 9351SOL    HW139777   3.608   1.450   7.292  0.9031  0.9096  1.7520
 9351SOL    HW239778   3.525   1.576   7.280  0.9422  1.0944  3.2168
 9352SOL     OW39779   3.405  11.686   8.079  0.0393  0.3740 -0.3690
 9352SOL    HW139780   3.495  11.709   8.100  0.1474 -1.1350  1.0076
 9352SOL    HW239781   3.352  11.742   8.136  0.1821 -0.0773  0.2167
 9353SOL     OW39782   4.555   9.258   8.769 -0.0581 -0.4291  0.2879
 9353SOL    HW139783   4.537   9.268   8.676  0.3785 -0.3376  0.2101
 9353SOL    HW239784   4.643   9.294   8.780 -0.9423  1.6405  1.1166
 9354SOL     OW39785   3.097   7.883  11.475 -0.5294 -0.5330 -0.6411
 9354SOL    HW139786   3.163   7.851  11.537 -2.2010 -0.0264  1.5011
 9354SOL    HW239787   3.146   7.940  11.416  0.7979  0.8870  1.6822
 9355SOL     OW39788   2.282  11.077   7.222  0.3376  0.0052  0.2787
 9355SOL    HW139789   2.354  11.109   7.276 -0.9491  0.8053  1.5844
 9355SOL    HW239790   2.206  11.125   7.252 -0.6885 -0.5092 -1.3657
 9356SOL     OW39791   6.445   6.217   0.190 -0.2564 -0.7822  0.3870
 9356SOL    HW139792   6.511   6.270   0.146  0.1545 -1.6010  0.0085
 9356SOL    HW239793   6.425   6.147   0.129 -3.3001  0.7707 -0.5665
 9357SOL     OW39794  11.134   5.949   4.775 -0.5208 -0.1543 -0.0598
 9357SOL    HW139795  11.169   6.030   4.813  1.0392 -1.1065  0.6331
 9357SOL    HW239796  11.124   5.890   4.850  0.9819 -1.4933 -0.8475
 9358SOL     OW39797   7.046   9.256   6.057 -0.1057  0.1389 -0.1740
 9358SOL    HW139798   7.085   9.172   6.028 -0.3155  0.0837 -0.2972
 9358SOL    HW239799   6.956   9.234   6.078 -0.3393  0.4639 -0.8259
 9359SOL     OW39800   1.721   7.706   9.943  0.7303  0.2020 -0.4171
 9359SOL    HW139801   1.804   7.747   9.917  0.3320  1.0183 -0.4214
 9359SOL    HW239802   1.741   7.612   9.946  1.7618  0.4137 -0.0349
 9360SOL     OW39803   7.032   8.883   7.839 -0.1168  0.4536  0.2517
 9360SOL    HW139804   6.985   8.828   7.776 -2.1551 -0.1128  2.1378
 9360SOL    HW239805   6.963   8.935   7.881  1.2132  1.1298  1.6823
 9361SOL     OW39806  10.481   9.309   7.760  0.0748  0.3793  0.1546
 9361SOL    HW139807  10.534   9.369   7.708  0.8858 -0.0781  0.4388
 9361SOL    HW239808  10.391   9.339   7.747  0.3130  0.6052 -1.0728
 9362SOL     OW39809   3.001   5.311  10.752 -0.0838  0.4475  0.0360
 9362SOL    HW139810   2.953   5.275  10.826 -0.9589  2.4498  0.5283
 9362SOL    HW239811   2.939   5.307  10.679  0.0784  0.2474 -0.0894
 9363SOL     OW39812   4.143   7.271   8.772 -0.7678 -0.2638 -0.1922
 9363SOL    HW139813   4.236   7.254   8.788 -0.7626  0.0343  0.1151
 9363SOL    HW239814   4.141   7.316   8.688 -0.5959  0.1125  0.0033
 9364SOL     OW39815   1.319  10.512   8.179  0.0661 -0.2186 -0.2239
 9364SOL    HW139816   1.327  10.600   8.142  1.6832  0.5447  1.7318
 9364SOL    HW239817   1.225  10.498   8.188 -0.2985  0.4344 -2.4543
 9365SOL     OW39818   6.061   2.850  10.414  0.2699  0.1095  0.0510
 9365SOL    HW139819   6.044   2.881  10.325 -0.4067 -0.9461 -0.2119
 9365SOL    HW239820   6.025   2.919  10.470  2.1268  1.5553 -0.4313
 9366SOL     OW39821   2.000   5.940   3.412 -0.7721 -0.1592 -0.3053
 9366SOL    HW139822   1.971   5.860   3.368  1.8963 -1.5072  0.1844
 9366SOL    HW239823   2.091   5.951   3.384 -1.0914  2.8261 -0.4437
 9367SOL     OW39824   8.923   4.962   9.006  0.5383 -0.0826  0.3178
 9367SOL    HW139825   8.871   4.963   9.087  0.4015 -2.7477  0.3575
 9367SOL    HW239826   8.986   5.033   9.017 -0.9129  1.0553  1.7635
 9368SOL     OW39827   9.948   9.162   4.589 -0.2754 -0.0996 -0.1964
 9368SOL    HW139828   9.982   9.073   4.596  1.1457  0.4641  0.4626
 9368SOL    HW239829   9.854   9.154   4.607 -0.5250 -1.6918 -1.8988
 9369SOL     OW39830   6.928   8.019   2.860 -0.1504  0.2144  0.0145
 9369SOL    HW139831   6.885   8.103   2.879 -0.1986  0.1489  0.2048
 9369SOL    HW239832   6.881   7.984   2.785  0.1400  0.5512 -0.3258
 9370SOL     OW39833   4.594   2.067   9.620 -0.8641 -0.4591  0.1657
 9370SOL    HW139834   4.499   2.076   9.612 -1.1285 -0.8951  2.3069
 9370SOL    HW239835   4.610   1.973   9.618 -0.6766 -0.4701  1.4842
 9371SOL     OW39836   7.872  10.148   2.431  0.3277  0.3382  0.0480
 9371SOL    HW139837   7.818  10.176   2.357 -0.1653 -0.3949  0.1185
 9371SOL    HW239838   7.842  10.202   2.504  1.6530  1.9292 -0.5348
 9372SOL     OW39839   8.060   8.044   6.954  0.2939  0.0552 -0.0204
 9372SOL    HW139840   8.113   7.987   6.898  1.6707  1.3595 -0.1026
 9372SOL    HW239841   8.111   8.053   7.034 -0.7853 -0.2888  0.7304
 9373SOL     OW39842   9.271   1.362   5.156  0.3131  0.4114 -0.2984
 9373SOL    HW139843   9.291   1.402   5.241 -0.3537 -1.7446  0.9555
 9373SOL    HW239844   9.313   1.419   5.092  1.2707  1.8343  1.5034
 9374SOL     OW39845   1.041   2.284   3.684  0.0705 -0.4484 -0.0515
 9374SOL    HW139846   1.064   2.287   3.777  0.6152  0.7558 -0.2079
 9374SOL    HW239847   1.015   2.193   3.669  0.7298 -0.8504  1.0986
 9375SOL     OW39848  10.858   7.598   8.529 -0.4161 -0.1485  0.1597
 9375SOL    HW139849  10.773   7.558   8.509 -2.4185  3.1130  1.1708
 9375SOL    HW239850  10.836   7.669   8.591  3.0812  0.8530  0.4516
 9376SOL     OW39851   4.221   3.169   6.984  0.0649  0.0967  0.2031
 9376SOL    HW139852   4.251   3.255   7.013  1.3236 -0.8984  2.0343
 9376SOL    HW239853   4.170   3.135   7.057 -0.4137 -0.7139 -0.4926
 9377SOL     OW39854  10.956   2.617   7.889  0.5771 -0.2342 -0.1171
 9377SOL    HW139855  11.010   2.553   7.936 -0.8128 -0.4937  1.1720
 9377SOL    HW239856  10.942   2.577   7.803 -0.1787 -1.6312  0.6321
 9378SOL     OW39857   5.136   4.013   0.485  0.3505 -0.2413  0.9458
 9378SOL    HW139858   5.200   3.996   0.416  0.1270 -0.4340  0.7817
 9378SOL    HW239859   5.065   4.059   0.440 -0.5828 -1.8677  0.6618
 9379SOL     OW39860   0.108   7.640   3.872 -0.4670 -0.4756 -0.5394
 9379SOL    HW139861   0.052   7.622   3.796  0.4587 -1.8592 -0.9196
 9379SOL    HW239862   0.107   7.736   3.880 -2.0387 -0.4110 -1.1661
 9380SOL     OW39863  11.704   5.339   0.330 -0.7758 -0.1810 -0.3489
 9380SOL    HW139864  11.730   5.394   0.256 -0.1118 -0.9481 -0.7033
 9380SOL    HW239865  11.715   5.396   0.406 -1.4410  0.6118 -0.8235
 9381SOL     OW39866   3.549   3.130   5.590  0.0574  0.1857  0.0740
 9381SOL    HW139867   3.582   3.108   5.677  1.3607  1.0032 -0.1932
 9381SOL    HW239868   3.627   3.139   5.536 -0.7766 -2.2037 -1.6998
 9382SOL     OW39869   8.051   5.777   5.572 -0.1603  0.2237 -0.3866
 9382SOL    HW139870   8.038   5.689   5.536  0.6891  1.1468 -3.2152
 9382SOL    HW239871   7.994   5.833   5.519 -0.3656  1.4860  1.0850
 9383SOL     OW39872   8.453   7.610   1.902 -0.3998  0.0969 -0.2385
 9383SOL    HW139873   8.524   7.623   1.965 -1.2259  1.5013  0.4529
 9383SOL    HW239874   8.375   7.602   1.956 -1.0340  0.6782 -1.0480
 9384SOL     OW39875   4.603   1.875   5.658 -0.0182 -0.4849 -0.8848
 9384SOL    HW139876   4.649   1.921   5.587 -0.2990 -0.2066 -0.8892
 9384SOL    HW239877   4.637   1.786   5.655  1.1091 -0.0819 -0.3695
 9385SOL     OW39878   5.634   3.996   1.655 -0.3000 -0.3104 -0.0659
 9385SOL    HW139879   5.633   4.090   1.634 -2.3978 -0.6378 -1.7827
 9385SOL    HW239880   5.653   3.993   1.749  2.5932  1.6324 -0.4435
 9386SOL     OW39881   9.459   6.310  11.345  0.5933  0.1594 -0.3589
 9386SOL    HW139882   9.472   6.284  11.436  0.6431 -1.1920 -0.7247
 9386SOL    HW239883   9.505   6.394  11.337  0.8498  0.1457  0.7724
 9387SOL     OW39884   6.941   6.290   2.100  0.3732 -0.0151 -0.1453
 9387SOL    HW139885   6.884   6.226   2.143 -0.4611  1.1520  0.5511
 9387SOL    HW239886   7.024   6.285   2.147  0.3983 -0.7728 -0.2698
 9388SOL     OW39887  11.200  10.946   4.751 -0.3439  0.3217 -0.5086
 9388SOL    HW139888  11.248  10.887   4.809  0.3483  0.8865 -0.4901
 9388SOL    HW239889  11.150  10.888   4.694 -0.5298 -0.2558  0.2184
 9389SOL     OW39890  11.398   0.617  10.782 -0.3235 -0.1944 -0.3727
 9389SOL    HW139891  11.312   0.606  10.742  0.0556  0.6030 -1.4593
 9389SOL    HW239892  11.389   0.694  10.838 -0.7974 -1.1879  0.9576
 9390SOL     OW39893   4.864   5.691   4.552 -0.1808  0.1214  0.0636
 9390SOL    HW139894   4.936   5.752   4.567 -0.5839  1.1127 -1.7150
 9390SOL    HW239895   4.789   5.733   4.594  0.1738 -0.7520  1.6308
 9391SOL     OW39896   6.254   3.894   3.937  0.1394  0.0458 -0.7000
 9391SOL    HW139897   6.252   3.963   4.003 -2.6613 -1.6824  1.2430
 9391SOL    HW239898   6.205   3.930   3.863 -2.2280 -0.1125  0.7045
 9392SOL     OW39899   5.321   7.695   8.563 -0.3800  0.1705 -0.1236
 9392SOL    HW139900   5.393   7.756   8.546 -0.6269 -0.1733 -2.8053
 9392SOL    HW239901   5.359   7.609   8.546 -0.3715 -0.4278  2.4582
 9393SOL     OW39902   3.247   1.091   8.706 -0.0216 -0.1118  0.2165
 9393SOL    HW139903   3.306   1.020   8.731 -0.5404 -0.8921 -0.7218
 9393SOL    HW239904   3.276   1.117   8.619  0.5132  1.2275  0.7642
 9394SOL     OW39905   1.100   0.859   6.397  0.2117 -0.0346 -0.4958
 9394SOL    HW139906   1.016   0.812   6.391  0.0180  0.2699 -0.1889
 9394SOL    HW239907   1.162   0.794   6.430  0.6676 -0.9793 -2.9402
 9395SOL     OW39908   2.708   6.833   9.947  0.0817 -0.1272 -0.7925
 9395SOL    HW139909   2.709   6.849   9.853 -0.4218  0.7675 -0.6553
 9395SOL    HW239910   2.765   6.756   9.959  0.9155  0.3242 -1.7124
 9396SOL     OW39911   0.044   6.748   8.743 -0.2291 -0.0785 -0.2750
 9396SOL    HW139912  -0.032   6.782   8.696  0.4254  0.8165 -0.7083
 9396SOL    HW239913   0.066   6.816   8.806  0.7852  0.0941 -0.7996
 9397SOL     OW39914   2.446   3.259   5.097 -0.0938  0.3614  0.1682
 9397SOL    HW139915   2.536   3.239   5.073 -0.7201 -1.3783 -0.9340
 9397SOL    HW239916   2.452   3.296   5.185  1.6290 -0.3617  0.4006
 9398SOL     OW39917  11.851   3.273   3.753  0.2339  0.1963  0.0960
 9398SOL    HW139918  11.939   3.245   3.778 -0.2034 -0.3045  1.1533
 9398SOL    HW239919  11.801   3.269   3.834 -0.5302  1.4399 -0.2882
 9399SOL     OW39920   8.713   8.326   2.620  0.8567 -0.1207 -0.0086
 9399SOL    HW139921   8.701   8.356   2.710 -0.0792  1.5192 -0.6321
 9399SOL    HW239922   8.651   8.254   2.610  0.9809 -0.3247  0.6651
 9400SOL     OW39923   1.104  11.643   2.482 -0.2616  0.5144 -0.1752
 9400SOL    HW139924   1.028  11.692   2.514 -1.2568 -0.5584 -0.8200
 9400SOL    HW239925   1.117  11.573   2.545 -0.2913  0.2361 -0.4749
 9401SOL     OW39926   1.173   5.808  11.666  0.3946 -0.4093 -0.1503
 9401SOL    HW139927   1.245   5.861  11.631  0.7710 -0.8054  0.0176
 9401SOL    HW239928   1.187   5.720  11.630 -0.3641 -0.3493 -0.6268
 9402SOL     OW39929   7.411   5.577   7.843 -0.0745 -0.5670  0.3146
 9402SOL    HW139930   7.409   5.577   7.939  1.2022 -2.1276  0.3744
 9402SOL    HW239931   7.321   5.595   7.818 -0.4437 -0.1579  1.7993
 9403SOL     OW39932   8.247   5.926   6.324 -0.1986  0.0447 -0.1357
 9403SOL    HW139933   8.310   5.940   6.253 -0.7519 -1.8153 -1.0804
 9403SOL    HW239934   8.249   5.831   6.339 -2.7511 -0.0929 -0.2265
 9404SOL     OW39935   5.730   0.657  11.828  0.2752  0.0241  0.1769
 9404SOL    HW139936   5.810   0.691  11.788 -0.3006  1.1895 -0.0231
 9404SOL    HW239937   5.725   0.567  11.797  0.8494  0.3182 -0.8391
 9405SOL     OW39938   2.050   9.854   8.034  0.1345  0.2758 -0.3446
 9405SOL    HW139939   2.033   9.879   8.125  1.5247  0.5148 -0.1266
 9405SOL    HW239940   2.142   9.825   8.034 -0.1051 -0.5483 -1.5007
 9406SOL     OW39941   2.898   6.527  10.571 -0.7865  0.0523  0.6236
 9406SOL    HW139942   2.969   6.543  10.509 -1.0579  0.4791  0.4246
 9406SOL    HW239943   2.819   6.522  10.518 -0.9025 -0.5271  0.8327
 9407SOL     OW39944   7.938   2.484   1.658  0.0517  0.3612  0.1370
 9407SOL    HW139945   7.857   2.505   1.612 -0.9347 -1.0621  1.1324
 9407SOL    HW239946   7.910   2.458   1.746  1.5241 -0.6814  0.3401
 9408SOL     OW39947   4.728   6.713   3.680  0.1291 -0.3387 -0.3562
 9408SOL    HW139948   4.646   6.681   3.718 -0.0306 -0.1332 -0.5189
 9408SOL    HW239949   4.742   6.658   3.603  0.2500 -0.5049 -0.2153
 9409SOL     OW39950  11.050   1.074   9.923 -0.5128 -0.4218  0.3625
 9409SOL    HW139951  11.020   0.996   9.876 -0.1877 -0.6958  0.6001
 9409SOL    HW239952  11.144   1.077   9.906 -0.5909  0.1616  0.0117
 9410SOL     OW39953   5.858   3.373   6.222 -0.0967  0.2572 -0.0861
 9410SOL    HW139954   5.935   3.380   6.278 -2.2340 -1.1628  3.3995
 9410SOL    HW239955   5.794   3.432   6.262 -1.9403 -1.2810 -0.6024
 9411SOL     OW39956   2.557   4.328   9.533  0.2983 -0.5497  0.2741
 9411SOL    HW139957   2.616   4.268   9.487  1.3335  0.5394  0.1061
 9411SOL    HW239958   2.472   4.315   9.492  0.4463 -2.0447  0.3974
 9412SOL     OW39959   5.653   3.704   1.382 -0.0480  0.7895 -0.0444
 9412SOL    HW139960   5.663   3.706   1.287 -1.9525  0.7036 -0.3030
 9412SOL    HW239961   5.723   3.761   1.415  0.5348  0.9600 -1.5014
 9413SOL     OW39962   7.560  10.971   2.411 -0.5308  0.2774 -0.1970
 9413SOL    HW139963   7.473  10.950   2.446 -0.4361  0.5801  0.2350
 9413SOL    HW239964   7.542  11.026   2.335 -0.7334 -0.1725 -0.4816
 9414SOL     OW39965   7.646   5.908   3.178 -0.0220 -0.7491  0.3559
 9414SOL    HW139966   7.632   5.998   3.149 -0.0560 -0.6112  0.8068
 9414SOL    HW239967   7.649   5.857   3.096 -1.3520 -0.5291  0.1504
 9415SOL     OW39968   7.724   6.144   1.843  0.2963  0.0052  0.0720
 9415SOL    HW139969   7.680   6.139   1.928  0.6385  0.0432  0.2521
 9415SOL    HW239970   7.781   6.220   1.850  2.4708 -1.5873  0.8379
 9416SOL     OW39971   3.693  10.671   1.654 -0.0565  0.3295 -0.5062
 9416SOL    HW139972   3.707  10.733   1.726  1.2087  0.0141 -0.4624
 9416SOL    HW239973   3.604  10.638   1.668 -0.2662  1.1491  0.2233
 9417SOL     OW39974  10.255   3.945  11.274 -0.4821  0.2517  0.4648
 9417SOL    HW139975  10.269   3.947  11.180 -2.8422 -0.2158  0.0466
 9417SOL    HW239976  10.315   4.012  11.309  0.4450  0.4071 -1.3338
 9418SOL     OW39977   8.087   2.828   0.206  0.2916  0.6016 -0.5069
 9418SOL    HW139978   8.164   2.865   0.162 -0.4781  2.3738 -0.4662
 9418SOL    HW239979   8.028   2.902   0.216 -1.1079 -0.5580  0.1742
 9419SOL     OW39980   9.734   7.993   6.070 -0.2106  0.6000 -0.1557
 9419SOL    HW139981   9.672   7.972   6.140 -0.1522  0.8052 -0.0419
 9419SOL    HW239982   9.727   8.088   6.059 -0.9257  0.4578 -1.0922
 9420SOL     OW39983   7.911   4.418   5.239 -0.2977  0.3749 -0.4710
 9420SOL    HW139984   7.856   4.408   5.316 -0.1937 -0.2747 -0.4719
 9420SOL    HW239985   7.944   4.329   5.222  0.2651  0.6477 -0.8234
 9421SOL     OW39986  10.261   1.159   6.034  0.6488 -0.0942 -0.0489
 9421SOL    HW139987  10.255   1.123   6.122  0.8295  0.3724  0.1544
 9421SOL    HW239988  10.195   1.111   5.984  0.0532  0.1349  0.5033
 9422SOL     OW39989   9.919   3.116   9.992  0.4802  0.1922  0.2731
 9422SOL    HW139990   9.863   3.192   9.978  1.1603  0.8218  0.9394
 9422SOL    HW239991   9.963   3.102   9.909  0.6448  0.7630  0.2653
 9423SOL     OW39992   5.554   7.676  10.169  0.3545 -0.2398 -0.5624
 9423SOL    HW139993   5.520   7.628  10.094 -1.2686  1.1256 -0.7618
 9423SOL    HW239994   5.577   7.608  10.232 -0.3984 -1.3298 -1.4108
 9424SOL     OW39995   4.218   4.307   2.157 -0.2729  0.1033 -0.0803
 9424SOL    HW139996   4.168   4.259   2.091 -0.4650  0.4803 -0.2118
 9424SOL    HW239997   4.285   4.353   2.108 -0.0101 -0.1306  0.0595
 9425SOL     OW39998   3.431   1.390   7.845  0.0890 -0.0656 -0.4483
 9425SOL    HW139999   3.515   1.346   7.856  0.6051  0.8880 -0.4303
 9425SOL    HW240000   3.390   1.385   7.932  0.0247 -0.7159 -0.5106
 9426SOL     OW40001   5.740   0.795   7.247 -0.0054  0.0436  0.1233
 9426SOL    HW140002   5.661   0.757   7.287 -1.1914  2.0681 -0.1432
 9426SOL    HW240003   5.772   0.857   7.312  1.1208 -0.4029  0.0196
 9427SOL     OW40004   5.834   1.312   1.241  0.6290 -0.4767 -0.3156
 9427SOL    HW140005   5.857   1.234   1.189 -2.0636 -1.8862  0.4149
 9427SOL    HW240006   5.883   1.301   1.323 -1.1814 -2.5659  0.5902
 9428SOL     OW40007   1.403   7.530   6.087  0.6892 -0.0016  0.6483
 9428SOL    HW140008   1.465   7.509   6.157 -0.5033 -2.4196  1.1034
 9428SOL    HW240009   1.323   7.481   6.111 -1.0079  2.0531 -0.4957
 9429SOL     OW40010   7.353   0.827   4.359  0.2786 -0.8411  0.3239
 9429SOL    HW140011   7.390   0.786   4.281 -0.5701 -0.7964 -0.1202
 9429SOL    HW240012   7.262   0.847   4.334  0.7827  1.8212  0.3110
 9430SOL     OW40013   4.091   5.749   3.886  0.1661  0.4825  0.5310
 9430SOL    HW140014   4.062   5.834   3.853  2.0994  1.0301  0.0793
 9430SOL    HW240015   4.036   5.685   3.841  1.1743  1.3120 -2.0870
 9431SOL     OW40016   9.683   5.544   9.912 -0.9327 -0.4219  0.3287
 9431SOL    HW140017   9.608   5.486   9.922 -0.1146 -1.3216  1.4769
 9431SOL    HW240018   9.673   5.581   9.825 -1.9494 -1.6097 -0.0853
 9432SOL     OW40019   7.030  10.603  11.915 -0.4614  0.2050 -0.2125
 9432SOL    HW140020   7.106  10.550  11.940  0.3975  0.9303 -1.1874
 9432SOL    HW240021   7.048  10.690  11.951 -1.9527 -0.1371  1.5472
 9433SOL     OW40022   5.796   8.807   6.687 -0.5192  0.0713  0.0622
 9433SOL    HW140023   5.767   8.725   6.728 -2.5768  0.6547 -0.1246
 9433SOL    HW240024   5.881   8.824   6.726 -0.7183 -1.3805  1.2301
 9434SOL     OW40025   1.934   7.166   7.526  0.3142 -0.2446  0.1395
 9434SOL    HW140026   1.943   7.079   7.485 -1.8683 -0.8149  0.7474
 9434SOL    HW240027   2.020   7.184   7.564  1.0432 -1.7729 -0.7104
 9435SOL     OW40028   1.271   2.010   8.728  0.0485 -0.1341  0.2906
 9435SOL    HW140029   1.218   1.931   8.728 -0.9504  0.5116 -0.3039
 9435SOL    HW240030   1.241   2.060   8.804  0.2216 -0.0444  0.3003
 9436SOL     OW40031   9.873   9.278   5.558  0.1416 -0.0469  0.4283
 9436SOL    HW140032   9.820   9.351   5.589  1.6067  1.4110 -0.3639
 9436SOL    HW240033   9.850   9.269   5.466 -0.1172 -0.6847  0.5494
 9437SOL     OW40034   0.276  10.670  10.541  0.1420 -0.0993 -0.0616
 9437SOL    HW140035   0.210  10.719  10.591 -0.0272 -1.1167  0.7524
 9437SOL    HW240036   0.349  10.730  10.532 -0.3234  0.5392  0.3313
 9438SOL     OW40037  11.356   5.259   8.771  0.4284 -0.1463 -0.0723
 9438SOL    HW140038  11.374   5.352   8.784 -1.1115  0.2464 -0.6308
 9438SOL    HW240039  11.322   5.229   8.855  2.1536 -0.5483  0.5257
 9439SOL     OW40040   6.119   1.526   7.544 -0.6602 -0.2003  0.4227
 9439SOL    HW140041   6.029   1.520   7.512  0.2099 -2.3047 -2.0372
 9439SOL    HW240042   6.161   1.446   7.511  2.3602  1.1556  0.6517
 9440SOL     OW40043   9.955   1.050   4.106 -0.5852  0.2366 -0.0225
 9440SOL    HW140044   9.866   1.015   4.115 -1.4368  2.5411  1.4865
 9440SOL    HW240045   9.980   1.030   4.016 -2.5676 -0.6277 -0.4351
 9441SOL     OW40046   8.834   8.584   2.985  0.5638 -0.1931  0.1938
 9441SOL    HW140047   8.821   8.603   2.892 -1.0794 -0.9702  0.2271
 9441SOL    HW240048   8.901   8.515   2.986  0.1619 -0.6011 -0.4596
 9442SOL     OW40049   5.114   7.009   6.835  0.3570  0.0759  0.0593
 9442SOL    HW140050   5.043   7.025   6.772  0.9384  3.0940  0.0091
 9442SOL    HW240051   5.193   7.000   6.780  0.7938  2.2637  0.2335
 9443SOL     OW40052   3.469   1.150  10.886 -0.5016 -0.0202  0.7648
 9443SOL    HW140053   3.387   1.101  10.878 -0.0584 -0.5987 -0.5132
 9443SOL    HW240054   3.450   1.235  10.846  0.1404 -0.9805 -1.7766
 9444SOL     OW40055   1.744  11.589   6.740 -0.0098  0.2468  0.5183
 9444SOL    HW140056   1.657  11.626   6.727  0.0036 -0.4158 -2.1687
 9444SOL    HW240057   1.801  11.643   6.685  0.7445 -1.0264  0.0010
 9445SOL     OW40058   6.611   0.425   0.558 -0.7549 -0.0889  0.0664
 9445SOL    HW140059   6.644   0.482   0.627 -0.2963 -0.5287  0.2194
 9445SOL    HW240060   6.639   0.337   0.584 -2.9551 -0.6592  0.7449
 9446SOL     OW40061   7.368   1.178   3.190 -0.7776  0.6144  0.1971
 9446SOL    HW140062   7.397   1.120   3.120 -0.4055  1.8064 -0.6778
 9446SOL    HW240063   7.396   1.136   3.271 -1.1627 -0.7647 -0.3692
 9447SOL     OW40064  11.651   3.956   3.067  0.0924 -0.2082  0.3272
 9447SOL    HW140065  11.599   3.959   2.986 -0.7384 -0.0595  0.8458
 9447SOL    HW240066  11.612   3.885   3.118  0.8479 -0.5446  0.4442
 9448SOL     OW40067  11.051   5.140   3.074 -0.7311 -0.2752 -0.3524
 9448SOL    HW140068  11.099   5.201   3.019 -0.9824  0.5174  0.2925
 9448SOL    HW240069  11.025   5.191   3.150 -1.1492 -1.1267  0.0939
 9449SOL     OW40070   1.094   1.116   5.461  0.0888  0.2400 -0.1794
 9449SOL    HW140071   1.108   1.197   5.509 -0.2823  0.1929  0.0085
 9449SOL    HW240072   1.182   1.081   5.447  0.2451  0.6227 -0.1788
 9450SOL     OW40073  11.816   6.507   7.247 -0.7445 -0.2699  0.3388
 9450SOL    HW140074  11.807   6.577   7.182  0.0093  0.1467  0.6738
 9450SOL    HW240075  11.737   6.515   7.301  0.0484  1.3193  1.3212
 9451SOL     OW40076   2.675   7.306   1.896  0.4679 -0.5104  0.2313
 9451SOL    HW140077   2.719   7.255   1.827  0.4575 -0.8802  0.4929
 9451SOL    HW240078   2.745   7.352   1.941  0.3563  0.7978 -0.8647
 9452SOL     OW40079   7.137   2.784   0.408 -0.0958  0.1064  0.4718
 9452SOL    HW140080   7.055   2.787   0.457  0.0703 -1.4117  0.8988
 9452SOL    HW240081   7.144   2.693   0.379  0.5019  0.6414 -1.2038
 9453SOL     OW40082   4.382   3.014   8.499 -0.7494  0.3173 -0.5643
 9453SOL    HW140083   4.377   2.932   8.451  0.7455  0.9226 -1.8699
 9453SOL    HW240084   4.319   3.072   8.455 -1.5020  0.0124  0.0930
 9454SOL     OW40085  11.641   9.122   6.327  0.7029 -0.1911  0.5458
 9454SOL    HW140086  11.685   9.185   6.270  1.7290 -1.0779  0.3109
 9454SOL    HW240087  11.638   9.164   6.413  1.1544  0.2686  0.3384
 9455SOL     OW40088  10.143   9.687   0.208 -0.5948 -0.2167 -0.4415
 9455SOL    HW140089  10.223   9.663   0.161  0.0603  0.9823  0.0182
 9455SOL    HW240090  10.104   9.757   0.156  0.1097  1.0856  0.7315
 9456SOL     OW40091   7.352   7.012   2.014 -0.1323  0.3683  0.3342
 9456SOL    HW140092   7.363   6.985   2.105 -3.1094  0.4923  0.8457
 9456SOL    HW240093   7.309   6.937   1.973  0.8155  0.4732 -0.9061
 9457SOL     OW40094   5.039   0.498  11.324 -0.1116  0.4626  0.4731
 9457SOL    HW140095   5.080   0.566  11.377 -0.0776  1.3142 -0.6242
 9457SOL    HW240096   5.101   0.482  11.253 -0.4635 -0.1695  0.3017
 9458SOL     OW40097   6.266   8.927   7.177 -0.0036  1.1073  0.4726
 9458SOL    HW140098   6.329   8.869   7.218 -2.0233 -1.7618 -0.1480
 9458SOL    HW240099   6.194   8.933   7.240 -0.6942  1.2301 -0.3082
 9459SOL     OW40100   8.951   1.569   0.408 -0.2041  0.1503  0.6463
 9459SOL    HW140101   8.876   1.510   0.416 -1.2454  1.5147  1.3629
 9459SOL    HW240102   8.962   1.582   0.313  0.8382 -2.0919  0.3844
 9460SOL     OW40103   6.943   4.843   9.577  0.1738 -0.1949  0.3634
 9460SOL    HW140104   6.924   4.755   9.610  0.2442  0.1833  1.4676
 9460SOL    HW240105   6.869   4.896   9.605  0.7629  0.3701  0.9226
 9461SOL     OW40106   9.474   1.419   4.969  0.2121  0.1808  0.4188
 9461SOL    HW140107   9.469   1.512   4.946  0.4430 -0.1714 -1.1821
 9461SOL    HW240108   9.553   1.387   4.925  1.0999 -0.4248  2.3631
 9462SOL     OW40109   5.528   3.030   2.842  0.3099  0.3733 -0.3795
 9462SOL    HW140110   5.472   3.092   2.795 -0.3935  0.3633  0.4266
 9462SOL    HW240111   5.467   2.978   2.895  1.0534  0.2122  0.3342
 9463SOL     OW40112   8.440   5.560   0.958 -0.3584  0.2148 -0.2205
 9463SOL    HW140113   8.379   5.552   1.031 -0.5523  1.4967 -0.2323
 9463SOL    HW240114   8.514   5.610   0.993  1.1491 -2.0089  0.0523
 9464SOL     OW40115   7.678   9.028   9.425  0.2913 -0.2735 -0.0758
 9464SOL    HW140116   7.752   9.077   9.390  1.4147 -0.9279  1.2730
 9464SOL    HW240117   7.625   9.007   9.349 -0.5828  3.4705 -0.6971
 9465SOL     OW40118   7.564   9.517   6.926  0.3244  0.3606 -0.4644
 9465SOL    HW140119   7.524   9.563   7.000  0.0401 -0.5762 -0.0147
 9465SOL    HW240120   7.517   9.434   6.922 -0.4955  0.8733 -2.4807
 9466SOL     OW40121   0.006  10.701   7.720  0.2915  0.2224 -0.6898
 9466SOL    HW140122  -0.079  10.723   7.681 -0.6050 -0.3189  0.8606
 9466SOL    HW240123  -0.010  10.702   7.814  1.7205 -1.0648 -0.3877
 9467SOL     OW40124   0.051   3.376   5.083 -0.1341 -0.5192 -0.4043
 9467SOL    HW140125   0.001   3.402   5.161 -1.6067 -4.1106  0.0300
 9467SOL    HW240126   0.138   3.356   5.116 -0.4349 -0.9742  0.1187
 9468SOL     OW40127   9.863  10.520   9.684  0.1917  0.8116  0.2074
 9468SOL    HW140128   9.922  10.594   9.694  0.2280  1.0406 -1.3924
 9468SOL    HW240129   9.916  10.451   9.644 -0.1551  0.3756  0.4858
 9469SOL     OW40130   4.898  11.501  10.388  0.0205 -0.2254  0.3928
 9469SOL    HW140131   4.977  11.512  10.335  1.3127 -0.1444  2.2514
 9469SOL    HW240132   4.850  11.430  10.345 -0.3577  1.5449 -2.3779
 9470SOL     OW40133   6.411   8.050   2.261 -0.2140  0.0579 -0.5250
 9470SOL    HW140134   6.339   8.111   2.277 -0.4103 -0.4098  0.4380
 9470SOL    HW240135   6.401   8.025   2.169 -2.4021 -1.4113  0.0282
 9471SOL     OW40136   2.653   1.746   0.387  0.0979 -0.2343 -0.3957
 9471SOL    HW140137   2.742   1.711   0.394  0.1961  0.3375  1.8747
 9471SOL    HW240138   2.597   1.669   0.378  0.7141 -0.6675 -0.5854
 9472SOL     OW40139   5.787   7.817   0.329 -0.3311  0.2347  0.1186
 9472SOL    HW140140   5.779   7.809   0.234 -2.6125 -0.5333  0.3135
 9472SOL    HW240141   5.751   7.904   0.349 -0.3836  0.1668  0.3250
 9473SOL     OW40142   5.068   1.442   5.556  0.2089 -0.2326  0.4524
 9473SOL    HW140143   5.157   1.465   5.528  0.8021 -1.9443  0.8278
 9473SOL    HW240144   5.080   1.373   5.621 -1.3711  0.2812  1.3425
 9474SOL     OW40145  10.196   1.039   7.254 -0.5099 -0.7920  0.4533
 9474SOL    HW140146  10.222   1.127   7.225  0.5676 -1.0511  0.6158
 9474SOL    HW240147  10.122   1.055   7.312 -0.3666  0.0089  0.4279
 9475SOL     OW40148   2.511  11.082   1.332 -0.1635  0.1162 -0.4343
 9475SOL    HW140149   2.458  11.149   1.375  0.8232 -0.2416  1.4574
 9475SOL    HW240150   2.452  11.009   1.319 -0.4789  0.2027  0.4398
 9476SOL     OW40151   7.267  10.341   2.417 -0.3084 -0.6420  0.2549
 9476SOL    HW140152   7.278  10.299   2.502 -0.5363  0.8525  1.0530
 9476SOL    HW240153   7.194  10.401   2.429  0.0091 -0.0097 -0.8297
 9477SOL     OW40154   0.833   6.447   6.884  0.5949  0.4097  0.3117
 9477SOL    HW140155   0.746   6.472   6.917 -0.1602  0.2570 -1.4792
 9477SOL    HW240156   0.837   6.352   6.898  1.2199  0.6442  1.9931
 9478SOL     OW40157   3.843   4.852   8.110 -0.2853  0.2390  0.3491
 9478SOL    HW140158   3.898   4.925   8.138 -0.3086 -0.4533  2.3618
 9478SOL    HW240159   3.755   4.889   8.104 -0.0615  0.7059 -0.1453
 9479SOL     OW40160   7.004  10.281   5.966  0.3135 -0.6272 -0.0539
 9479SOL    HW140161   6.937  10.227   5.923  0.4452 -1.0681  0.2885
 9479SOL    HW240162   7.052  10.219   6.022  1.6519 -0.5283 -1.0360
 9480SOL     OW40163   4.307   1.068   5.644 -0.5012 -0.2010  0.2728
 9480SOL    HW140164   4.382   1.103   5.596 -0.0712 -0.9123  0.4063
 9480SOL    HW240165   4.346   1.020   5.717 -1.1100 -0.0724  0.6855
 9481SOL     OW40166   8.490   3.165   0.405 -0.5752  0.1913 -0.1013
 9481SOL    HW140167   8.580   3.139   0.382  0.1180  2.2031  0.1374
 9481SOL    HW240168   8.451   3.086   0.441  0.5731 -1.1762 -1.6702
 9482SOL     OW40169   3.529   6.376   8.564 -0.1037  0.4033 -1.0178
 9482SOL    HW140170   3.461   6.428   8.521  0.6345  1.8315 -0.5136
 9482SOL    HW240171   3.584   6.345   8.492 -1.9191 -1.8313 -1.5660
 9483SOL     OW40172   4.601   5.746   8.828  0.3339 -0.0413 -0.0225
 9483SOL    HW140173   4.659   5.670   8.815 -1.8687 -1.5953 -1.5185
 9483SOL    HW240174   4.659   5.815   8.861  2.3375 -2.5476  2.1629
 9484SOL     OW40175  10.816  10.591   9.761  0.1747 -0.2140 -0.3502
 9484SOL    HW140176  10.899  10.546   9.746  0.6732  0.7078 -0.4748
 9484SOL    HW240177  10.841  10.682   9.780 -0.8141  0.1201 -0.5658
 9485SOL     OW40178   6.183   6.466   5.920  0.4275 -0.5664 -0.5874
 9485SOL    HW140179   6.130   6.388   5.934 -0.8427  0.0490 -1.7340
 9485SOL    HW240180   6.119   6.535   5.901  1.6345  0.2341 -1.8659
 9486SOL     OW40181   1.965   4.154  10.308  0.3327  0.8106 -0.0941
 9486SOL    HW140182   1.872   4.137  10.321  0.2466  1.9512  0.9315
 9486SOL    HW240183   2.004   4.146  10.395  1.6227 -1.8111 -0.8039
 9487SOL     OW40184   8.133  11.405   4.265 -0.3251  0.0815 -0.2832
 9487SOL    HW140185   8.060  11.375   4.320 -0.1454  0.5377  0.2192
 9487SOL    HW240186   8.154  11.492   4.299  0.9130 -0.3159  0.0406
 9488SOL     OW40187   7.653   9.035  11.646  0.4151  0.4691 -1.0649
 9488SOL    HW140188   7.718   9.102  11.626 -0.2103  0.7985 -2.0807
 9488SOL    HW240189   7.590   9.079  11.703  1.4054 -0.0441  0.4895
 9489SOL     OW40190  11.440   5.910   8.857 -0.0292 -0.6820 -0.2179
 9489SOL    HW140191  11.381   5.984   8.842  0.0149 -0.4186  0.8631
 9489SOL    HW240192  11.383   5.833   8.856 -0.1823 -0.5682 -0.5741
 9490SOL     OW40193  11.154   7.434  11.317  0.4078 -0.2494  0.1440
 9490SOL    HW140194  11.112   7.473  11.240 -0.4236  2.5416  1.8478
 9490SOL    HW240195  11.242   7.473  11.318 -0.0675  0.8486  1.3123
 9491SOL     OW40196   5.623   6.320   1.160 -0.3975 -0.3285  0.1606
 9491SOL    HW140197   5.617   6.390   1.095 -3.7458 -0.0340  0.6541
 9491SOL    HW240198   5.599   6.361   1.242 -1.0231 -1.7432  0.7152
 9492SOL     OW40199   9.747   5.598  11.011  0.7086 -0.1953  0.5134
 9492SOL    HW140200   9.751   5.689  11.040  0.3682 -1.0011  3.3538
 9492SOL    HW240201   9.826   5.558  11.046  0.9519 -0.9960 -0.8749
 9493SOL     OW40202   2.336   7.296   4.356  0.0845  0.1952  1.0111
 9493SOL    HW140203   2.394   7.369   4.334  0.1868 -0.1739  0.0014
 9493SOL    HW240204   2.389   7.242   4.415  1.2313 -0.6935 -0.7283
 9494SOL     OW40205   1.194   5.229  11.794  0.0262  0.1947 -0.1460
 9494SOL    HW140206   1.108   5.260  11.823  0.1998  1.0151 -0.4882
 9494SOL    HW240207   1.254   5.259  11.862 -0.0206 -0.8093  0.3441
 9495SOL     OW40208   4.418   2.848   2.585  0.0363  0.2282 -0.0939
 9495SOL    HW140209   4.413   2.824   2.677  0.1921 -0.5200 -0.2728
 9495SOL    HW240210   4.507   2.824   2.559 -0.4220 -0.8130 -0.7681
 9496SOL     OW40211  10.825  11.499  10.249  0.3809  0.2052 -0.2087
 9496SOL    HW140212  10.802  11.525  10.338 -1.0938 -0.7711 -0.2520
 9496SOL    HW240213  10.871  11.574  10.212  0.3857  0.8900  1.1434
 9497SOL     OW40214   5.597   1.006  10.072 -0.1484 -0.7064 -0.4685
 9497SOL    HW140215   5.626   0.942  10.137  0.5023 -1.3387 -1.3641
 9497SOL    HW240216   5.553   0.954  10.005  0.0419 -0.1792 -1.0113
 9498SOL     OW40217  10.010   7.434   0.832 -0.1333  0.1427 -0.0659
 9498SOL    HW140218   9.973   7.474   0.910 -1.1021 -0.4899 -0.1891
 9498SOL    HW240219  10.000   7.501   0.764 -0.5743  0.1703  0.0237
 9499SOL     OW40220   1.033   8.104   9.444 -0.3797  0.2142 -0.0920
 9499SOL    HW140221   1.069   8.052   9.372 -1.2449  0.9327 -1.0623
 9499SOL    HW240222   1.035   8.045   9.519  0.2903 -0.6365 -0.7573
 9500SOL     OW40223  10.272  10.088   5.633 -0.4868  0.2302 -0.1823
 9500SOL    HW140224  10.198  10.146   5.616 -0.7165 -0.5461 -2.0348
 9500SOL    HW240225  10.346  10.131   5.590 -0.5736 -0.6023 -1.2124
 9501SOL     OW40226   1.590   8.893   7.666  0.0716  0.0255  0.7591
 9501SOL    HW140227   1.540   8.969   7.695  1.7910  1.7460 -0.5374
 9501SOL    HW240228   1.664   8.888   7.727  1.7711  1.5041 -1.0660
 9502SOL     OW40229   8.279  10.644   9.878  0.1094 -0.0862 -0.1097
 9502SOL    HW140230   8.318  10.557   9.872  0.6291  0.2317 -2.1406
 9502SOL    HW240231   8.304  10.676   9.965  2.1309 -0.9689 -0.3059
 9503SOL     OW40232   9.610  10.276   4.541 -0.5595  0.1372  0.3989
 9503SOL    HW140233   9.631  10.368   4.522 -0.9329  0.1304 -0.0524
 9503SOL    HW240234   9.651  10.260   4.626  0.2766  0.4561  0.0602
 9504SOL     OW40235   8.476   0.842   5.276 -0.0192  0.2788  0.6195
 9504SOL    HW140236   8.391   0.819   5.239  1.0833 -0.1856 -1.8493
 9504SOL    HW240237   8.456   0.897   5.351 -2.5386 -1.5932  1.4727
 9505SOL     OW40238  10.966   6.045   0.411 -0.1005 -0.0037 -0.6719
 9505SOL    HW140239  10.931   6.127   0.445 -1.4081 -0.2846 -1.2630
 9505SOL    HW240240  10.961   6.055   0.316 -0.3352 -0.7792 -0.7475
 9506SOL     OW40241   5.576   0.059   0.551 -0.5029 -0.0743 -0.0437
 9506SOL    HW140242   5.661   0.100   0.568  0.4124 -1.1227 -1.7443
 9506SOL    HW240243   5.593  -0.035   0.560 -1.0222 -0.3990 -2.0505
 9507SOL     OW40244   2.217  10.720   9.117  0.2725 -0.5435  0.2548
 9507SOL    HW140245   2.274  10.654   9.157 -1.2788 -2.5355 -0.6380
 9507SOL    HW240246   2.148  10.669   9.075 -0.5030  1.6449 -1.2985
 9508SOL     OW40247  11.061   4.291   4.173  0.8997  0.1046 -0.7443
 9508SOL    HW140248  10.994   4.239   4.128 -0.4853  1.8054 -0.7443
 9508SOL    HW240249  11.013   4.363   4.214  2.6028  0.7454  0.2561
 9509SOL     OW40250   0.122   2.559   4.424  0.1430 -0.1619  0.2747
 9509SOL    HW140251   0.138   2.646   4.461  0.6560 -0.4657  0.7936
 9509SOL    HW240252   0.031   2.540   4.447 -0.1263  0.4364 -0.2720
 9510SOL     OW40253   2.972   0.069   9.770  0.3751  0.0270 -0.1733
 9510SOL    HW140254   2.967   0.151   9.819 -1.2004 -0.6247  0.8360
 9510SOL    HW240255   2.992   0.002   9.835 -0.1043 -0.6281 -0.6812
 9511SOL     OW40256   4.610   0.893   8.947 -0.0483  0.5518  0.2917
 9511SOL    HW140257   4.517   0.894   8.926 -0.1932  1.5075  0.8953
 9511SOL    HW240258   4.620   0.959   9.016  1.1614  0.8351 -0.1224
 9512SOL     OW40259   0.298   5.545   3.789  0.2965  0.0483 -0.1834
 9512SOL    HW140260   0.232   5.481   3.813 -0.7526  1.4130  0.6496
 9512SOL    HW240261   0.314   5.529   3.695 -0.2454 -1.1348 -0.0821
 9513SOL     OW40262   1.043   2.178   5.086 -0.4809  0.3143 -0.5908
 9513SOL    HW140263   1.094   2.098   5.102 -1.3748 -0.4198 -1.2637
 9513SOL    HW240264   1.106   2.249   5.097  0.6090 -0.5388 -1.0669
 9514SOL     OW40265   4.144   1.842   1.639  0.2348  0.0758  0.2962
 9514SOL    HW140266   4.209   1.910   1.622  0.1532  0.4262  1.3514
 9514SOL    HW240267   4.186   1.761   1.608  0.7015  0.4630 -0.1051
 9515SOL     OW40268   8.405  10.458  10.722 -0.0905 -0.4065  0.1769
 9515SOL    HW140269   8.446  10.495  10.643 -0.6748 -2.2051 -1.0438
 9515SOL    HW240270   8.425  10.521  10.791  0.0718  1.4764 -1.4818
 9516SOL     OW40271   8.067   5.825  10.019  0.2574  0.4656  0.4309
 9516SOL    HW140272   8.059   5.878   9.940  0.8619 -1.5554 -1.0706
 9516SOL    HW240273   8.026   5.742   9.996  1.4904 -0.5780  1.8220
 9517SOL     OW40274   3.488   8.211  11.763 -0.2685  0.0393  0.4569
 9517SOL    HW140275   3.506   8.254  11.847  1.3109  0.5366 -0.1036
 9517SOL    HW240276   3.556   8.244  11.704  0.5953 -2.6842 -0.1992
 9518SOL     OW40277   7.216   3.653   5.853 -0.5481 -0.0025 -0.4705
 9518SOL    HW140278   7.237   3.727   5.796  2.5918  0.1245  0.6902
 9518SOL    HW240279   7.255   3.577   5.810  0.6909 -0.1113  0.7803
 9519SOL     OW40280   0.615   2.864   8.815 -0.4284 -0.2542  0.1918
 9519SOL    HW140281   0.639   2.772   8.828  1.4222 -0.1167 -1.7594
 9519SOL    HW240282   0.532   2.861   8.768 -1.6388 -0.8319  2.2292
 9520SOL     OW40283   6.648   5.140   1.665 -0.1036 -0.6173  0.3697
 9520SOL    HW140284   6.615   5.206   1.726 -1.0491 -0.0916 -0.6573
 9520SOL    HW240285   6.670   5.190   1.586 -0.7046 -1.4948 -0.3776
 9521SOL     OW40286   3.360  10.979   4.029 -0.1485  0.3968  0.3656
 9521SOL    HW140287   3.434  10.928   3.995  0.9547  1.3828  1.2052
 9521SOL    HW240288   3.307  10.915   4.077  0.8988 -0.0805  0.9211
 9522SOL     OW40289  10.341   1.289  11.602  0.1956 -0.0570  0.0847
 9522SOL    HW140290  10.352   1.283  11.507  1.1442  0.7978  0.1262
 9522SOL    HW240291  10.257   1.246  11.619  0.0528 -0.2910 -1.1288
 9523SOL     OW40292   8.239   1.308  10.528 -0.1247 -0.2924  0.2430
 9523SOL    HW140293   8.282   1.375  10.580  0.1894 -0.2183 -0.1066
 9523SOL    HW240294   8.186   1.357  10.464  0.1347 -0.3751 -0.0377
 9524SOL     OW40295   8.295   0.340   2.700  0.1431 -0.0025 -0.0345
 9524SOL    HW140296   8.385   0.349   2.730 -0.0780 -1.8805  1.4284
 9524SOL    HW240297   8.242   0.350   2.779 -0.8759  0.2636 -0.7289
 9525SOL     OW40298   4.473   9.324   9.339  0.2348 -1.0451  0.4969
 9525SOL    HW140299   4.416   9.259   9.298 -0.5716  0.0268 -0.1380
 9525SOL    HW240300   4.416   9.399   9.355  1.0731 -0.5927  1.4893
 9526SOL     OW40301   1.800  10.755  11.584 -0.1333  0.7917 -0.3211
 9526SOL    HW140302   1.878  10.736  11.636  0.3591  0.7661 -1.0592
 9526SOL    HW240303   1.803  10.850  11.572  0.5735  0.6301 -1.5572
 9527SOL     OW40304   3.564   3.383   4.967 -0.0310 -0.2745 -0.2703
 9527SOL    HW140305   3.563   3.324   5.042 -0.6727  0.3598  0.2320
 9527SOL    HW240306   3.617   3.337   4.901 -1.6385 -2.0381 -0.4125
 9528SOL     OW40307   4.174   7.181   5.172 -0.3990 -0.5047  0.0019
 9528SOL    HW140308   4.119   7.257   5.189  0.0539 -0.3812  1.0329
 9528SOL    HW240309   4.257   7.218   5.140 -0.3945 -0.5978 -0.0950
 9529SOL     OW40310   2.167   7.234  11.742  0.3296  0.3498  0.3067
 9529SOL    HW140311   2.218   7.184  11.679  0.7464  0.4178  0.5889
 9529SOL    HW240312   2.082   7.190  11.744 -0.2634  1.2880 -1.4970
 9530SOL     OW40313   7.590   3.272   4.171 -0.0850 -0.0042 -0.1240
 9530SOL    HW140314   7.683   3.252   4.175 -0.1991 -0.3536  1.5658
 9530SOL    HW240315   7.555   3.238   4.253 -1.7252  0.0291 -0.7702
 9531SOL     OW40316   5.084   5.674  10.472  0.2012  0.4658  0.0036
 9531SOL    HW140317   5.152   5.619  10.434  0.6850  2.1295 -1.7025
 9531SOL    HW240318   5.006   5.619  10.474  1.2119 -1.0141  0.6235
 9532SOL     OW40319  11.625   7.576  10.132  0.2425  0.9869  0.2535
 9532SOL    HW140320  11.617   7.503  10.070  1.9722  1.0885 -0.1407
 9532SOL    HW240321  11.603   7.653  10.080  1.5971  1.0618 -0.2609
 9533SOL     OW40322  10.719   2.112   8.446 -0.0739  0.0739  0.0460
 9533SOL    HW140323  10.642   2.056   8.452  1.0107 -1.3751  1.5374
 9533SOL    HW240324  10.785   2.057   8.403  0.7378  0.5123  0.6915
 9534SOL     OW40325   7.817   7.991  10.922  0.8364 -0.4355 -0.2735
 9534SOL    HW140326   7.896   8.005  10.871  0.4320 -0.2851 -0.8676
 9534SOL    HW240327   7.779   8.078  10.932  2.0960 -0.0976  2.2750
 9535SOL     OW40328   1.174  11.366  11.351 -0.0745 -0.1817 -0.1605
 9535SOL    HW140329   1.082  11.339  11.355  0.1056 -0.7784  0.0765
 9535SOL    HW240330   1.223  11.284  11.356  0.4460 -0.2351 -3.6601
 9536SOL     OW40331   8.243   2.457   3.423  0.0352 -0.1408  0.2648
 9536SOL    HW140332   8.163   2.407   3.408 -0.3607  0.6106 -0.2059
 9536SOL    HW240333   8.244   2.472   3.518 -0.7261  0.3796  0.2044
 9537SOL     OW40334   9.367   5.801   7.126 -0.7441  0.0512  0.1725
 9537SOL    HW140335   9.291   5.771   7.077 -0.5755  0.6784 -0.4867
 9537SOL    HW240336   9.378   5.892   7.099  0.7334 -0.2663 -0.3682
 9538SOL     OW40337   7.010   6.329   1.547 -0.5723  0.0397  0.3088
 9538SOL    HW140338   6.960   6.411   1.549  1.6495  1.4986  0.7252
 9538SOL    HW240339   7.031   6.311   1.638 -0.9177 -0.9143  0.2008
 9539SOL     OW40340   5.761  10.364   7.905 -0.1150  0.7030  0.2846
 9539SOL    HW140341   5.674  10.360   7.867  0.2206  0.2490 -0.4441
 9539SOL    HW240342   5.755  10.311   7.984  0.3934 -2.3804 -1.5832
 9540SOL     OW40343   4.662  11.247  11.619  0.8184  0.2727 -0.7482
 9540SOL    HW140344   4.599  11.246  11.547  0.1151 -0.9181 -0.1545
 9540SOL    HW240345   4.634  11.320  11.674  0.6921  0.5009 -1.1069
 9541SOL     OW40346   9.676   3.727   3.222 -0.1066  0.6160  0.2051
 9541SOL    HW140347   9.646   3.639   3.243 -0.5164  0.5002 -0.8000
 9541SOL    HW240348   9.606   3.784   3.252 -0.2509  0.5270  0.0405
 9542SOL     OW40349   3.003   6.542   3.644 -0.4477 -0.3033 -0.4476
 9542SOL    HW140350   3.063   6.516   3.574  0.6642  1.4353 -0.2083
 9542SOL    HW240351   2.918   6.551   3.601  0.0977  0.1822 -1.4639
 9543SOL     OW40352   0.551   9.429   8.373  0.3345  0.4186 -0.1762
 9543SOL    HW140353   0.517   9.425   8.462  1.0091  0.7952  0.0958
 9543SOL    HW240354   0.576   9.339   8.353 -0.8460  0.1238 -0.3964
 9544SOL     OW40355   0.859   4.131   9.734 -0.2046  0.3586  0.5267
 9544SOL    HW140356   0.884   4.110   9.644  0.5879 -0.0216  0.8254
 9544SOL    HW240357   0.781   4.185   9.725 -1.3143 -1.2877 -0.3338
 9545SOL     OW40358   2.861   9.816   2.122  0.9174  0.1489  0.1580
 9545SOL    HW140359   2.842   9.824   2.029  1.4409 -0.9254 -0.0546
 9545SOL    HW240360   2.814   9.737   2.150 -4.6626  3.5875  2.3175
 9546SOL     OW40361   5.490   7.842   3.079  0.1509  0.2702 -0.0595
 9546SOL    HW140362   5.437   7.798   3.013  0.5628  0.4112 -0.4921
 9546SOL    HW240363   5.435   7.845   3.157 -0.7480  1.0511 -0.7028
 9547SOL     OW40364   1.693   8.948   5.216  0.1526 -0.1269  0.1197
 9547SOL    HW140365   1.669   8.912   5.301  0.2618  1.4755  0.8581
 9547SOL    HW240366   1.653   8.888   5.153  0.9325 -1.9190  1.2608
 9548SOL     OW40367   8.799   3.346   0.433  0.3776  0.1865 -0.0897
 9548SOL    HW140368   8.752   3.266   0.411 -1.1901  1.2922 -0.9258
 9548SOL    HW240369   8.847   3.369   0.353 -1.7137  1.7397 -1.0055
 9549SOL     OW40370  11.404   6.882   9.723 -0.6360  0.5596 -0.3627
 9549SOL    HW140371  11.432   6.820   9.655  2.8596  1.6825 -0.1223
 9549SOL    HW240372  11.443   6.848   9.804 -2.0576  0.9811  0.5525
 9550SOL     OW40373   6.327   4.378   3.015 -0.1406  0.0009 -0.4007
 9550SOL    HW140374   6.347   4.458   3.064 -2.3423  0.0160  0.5771
 9550SOL    HW240375   6.311   4.408   2.926 -1.1372  0.7028 -0.0010
 9551SOL     OW40376   9.684   0.098   3.969 -0.2512 -0.4750  0.5406
 9551SOL    HW140377   9.777   0.114   3.953 -0.8145  1.0684 -1.6250
 9551SOL    HW240378   9.652   0.179   4.008 -1.2431  0.2167 -1.5710
 9552SOL     OW40379   0.235   2.180   0.015 -0.6619  0.0597  0.3409
 9552SOL    HW140380   0.235   2.265  -0.029  0.3087 -0.2140 -0.2131
 9552SOL    HW240381   0.324   2.170   0.049 -0.8278 -0.6412  0.6025
 9553SOL     OW40382   4.933   0.213   6.262 -0.0197  0.0981 -0.1421
 9553SOL    HW140383   4.996   0.218   6.190  1.2343  1.1257  0.9670
 9553SOL    HW240384   4.931   0.121   6.286 -0.4587 -0.2579 -1.4823
 9554SOL     OW40385  11.742   4.161   8.756  0.2253  0.2063  0.0457
 9554SOL    HW140386  11.753   4.231   8.819  0.4752 -0.0725  0.3147
 9554SOL    HW240387  11.716   4.205   8.675  0.1961  0.5890  0.2630
 9555SOL     OW40388   9.450   1.929   9.971 -0.3149 -0.1928  0.4010
 9555SOL    HW140389   9.400   1.854   9.938  1.0207 -0.5513 -0.9133
 9555SOL    HW240390   9.522   1.890  10.020  1.4640  0.1008 -1.8429
 9556SOL     OW40391  11.305   1.377   8.367  0.2501 -0.4272  0.0228
 9556SOL    HW140392  11.378   1.418   8.320 -0.0331  0.3907  0.2787
 9556SOL    HW240393  11.270   1.447   8.422 -2.0568 -0.2123 -1.6126
 9557SOL     OW40394   4.658   3.688  11.233 -0.2366 -0.2412 -0.7937
 9557SOL    HW140395   4.584   3.654  11.182 -1.5105  1.6198 -0.2986
 9557SOL    HW240396   4.656   3.782  11.218  2.1919 -0.1544 -0.8900
 9558SOL     OW40397   2.372   0.307   6.216 -0.2233 -0.2128  0.3547
 9558SOL    HW140398   2.386   0.264   6.132 -0.5200 -1.2002  0.7859
 9558SOL    HW240399   2.427   0.385   6.213 -0.1520 -0.2890 -0.7081
 9559SOL     OW40400  10.286   6.429   1.600 -0.7483  0.6069 -0.1611
 9559SOL    HW140401  10.359   6.418   1.661 -0.8566 -0.5422 -0.2056
 9559SOL    HW240402  10.324   6.414   1.514 -0.8643  0.8936 -0.2645
 9560SOL     OW40403   9.070   7.144   4.029  0.0561  0.0880  0.1446
 9560SOL    HW140404   9.051   7.110   3.942  1.7452 -1.1504  0.1933
 9560SOL    HW240405   9.061   7.068   4.087  1.1014  0.3565  0.6901
 9561SOL     OW40406   7.444   4.181   4.647  0.2566 -0.2705  0.2974
 9561SOL    HW140407   7.460   4.161   4.555 -1.0330  2.1123 -0.5339
 9561SOL    HW240408   7.368   4.128   4.670 -0.1321 -0.0230 -0.3784
 9562SOL     OW40409   0.800  10.454   2.125  0.2426 -0.5021  0.0875
 9562SOL    HW140410   0.881  10.434   2.079  1.9635 -0.2071  2.7767
 9562SOL    HW240411   0.750  10.372   2.123  0.8088 -0.8333 -1.1713
 9563SOL     OW40412   0.492  11.236   5.093 -0.0113  0.0081  0.0764
 9563SOL    HW140413   0.479  11.143   5.073 -2.6156 -0.2261  2.2271
 9563SOL    HW240414   0.471  11.243   5.186  2.7192  2.3813  0.6492
 9564SOL     OW40415   6.949   0.485   2.421 -0.0442 -0.2729 -0.1572
 9564SOL    HW140416   7.003   0.480   2.342 -1.6894  0.2990 -1.3801
 9564SOL    HW240417   6.922   0.577   2.427 -0.2392 -0.3777  0.8769
 9565SOL     OW40418   5.036   4.076   9.829  0.4541 -0.5126  0.1833
 9565SOL    HW140419   5.008   4.109   9.914  1.5819  0.1505  0.3131
 9565SOL    HW240420   5.065   3.986   9.846 -0.1617 -0.6934  0.3141
 9566SOL     OW40421   5.183   2.879   2.455 -0.5492 -0.0042 -0.5678
 9566SOL    HW140422   5.275   2.869   2.431  0.0989  1.7883  0.9605
 9566SOL    HW240423   5.170   2.816   2.526  0.3697  1.7086  1.2153
 9567SOL     OW40424   4.339  10.164  11.876 -0.6570  0.1920  0.0058
 9567SOL    HW140425   4.354  10.164  11.971 -1.2740 -0.9246  0.1237
 9567SOL    HW240426   4.280  10.090  11.861  1.1072 -1.0080 -1.5027
 9568SOL     OW40427   6.081   8.382   6.178 -0.4937 -1.0588  0.3589
 9568SOL    HW140428   6.126   8.466   6.167 -1.2680 -0.8383 -1.5541
 9568SOL    HW240429   5.988   8.403   6.168 -0.6448 -2.2225 -1.1307
 9569SOL     OW40430   3.913  11.750  11.820 -0.8773 -0.1133 -0.3026
 9569SOL    HW140431   3.982  11.770  11.883  0.8283 -0.0214 -2.0872
 9569SOL    HW240432   3.881  11.664  11.845 -0.4052  0.0162  0.7881
 9570SOL     OW40433   1.862   8.576   2.110  0.3074 -0.6850 -0.3414
 9570SOL    HW140434   1.779   8.621   2.096  0.4549 -0.6992 -1.3219
 9570SOL    HW240435   1.840   8.483   2.102  0.2258 -0.7414  0.4750
 9571SOL     OW40436   6.474  10.045   0.524 -0.1976  0.0776  0.3011
 9571SOL    HW140437   6.458  10.108   0.454 -4.1145 -0.9470  0.0705
 9571SOL    HW240438   6.474  10.098   0.604  1.3686  0.8808 -0.1912
 9572SOL     OW40439  11.373   7.648   1.236  0.3982 -0.2710  0.1183
 9572SOL    HW140440  11.304   7.708   1.209  0.6060 -0.1812 -0.2219
 9572SOL    HW240441  11.345   7.562   1.204  0.8890 -0.0858 -0.8695
 9573SOL     OW40442   9.537   7.442  11.559  0.6129 -0.5124  0.0285
 9573SOL    HW140443   9.479   7.453  11.483  0.0112  0.3019  0.5844
 9573SOL    HW240444   9.512   7.358  11.596 -0.0948 -0.2576  0.1485
 9574SOL     OW40445   4.520   9.073   2.781  0.0833  0.3077 -0.0866
 9574SOL    HW140446   4.568   9.153   2.760 -1.5137  1.8159  1.6417
 9574SOL    HW240447   4.543   9.012   2.711  0.9023  2.4567 -1.7890
 9575SOL     OW40448  10.855   4.637   4.084  0.1162 -0.3521  0.1670
 9575SOL    HW140449  10.883   4.605   4.170  0.7075  2.4514  1.0975
 9575SOL    HW240450  10.787   4.701   4.102  0.5885  0.6637 -1.4174
 9576SOL     OW40451   5.691  10.045   0.555  0.0736  0.0930 -0.0571
 9576SOL    HW140452   5.613  10.019   0.505 -0.9935  1.4405  0.8227
 9576SOL    HW240453   5.683   9.999   0.638 -0.4909  1.2196  0.5309
 9577SOL     OW40454   3.124  11.505  10.855  0.4105 -0.0061  0.0421
 9577SOL    HW140455   3.212  11.472  10.872  0.6040  0.8837  0.8572
 9577SOL    HW240456   3.078  11.431  10.816  1.8220 -0.1627 -1.4462
 9578SOL     OW40457   1.354   2.041   8.459 -0.2916 -0.1994  0.5973
 9578SOL    HW140458   1.321   2.081   8.539 -0.5516 -1.4551  1.1313
 9578SOL    HW240459   1.275   2.025   8.406 -0.1197  0.6483  0.0610
 9579SOL     OW40460   4.098   5.062   5.427 -0.5640 -0.3743  0.1134
 9579SOL    HW140461   4.141   4.982   5.460  0.0926  0.0051  0.1857
 9579SOL    HW240462   4.168   5.111   5.384 -0.4996  1.1016  1.7947
 9580SOL     OW40463   5.416   1.850   5.163 -0.1619 -0.2605  0.5851
 9580SOL    HW140464   5.510   1.854   5.141 -0.2717 -0.7687 -0.0029
 9580SOL    HW240465   5.413   1.866   5.258  0.1373  4.4715  0.0273
 9581SOL     OW40466  10.850   1.385   2.896 -0.9231 -0.1990  0.1991
 9581SOL    HW140467  10.915   1.363   2.963 -0.5589  0.1306 -0.0447
 9581SOL    HW240468  10.895   1.371   2.813 -0.8195  0.9818  0.0284
 9582SOL     OW40469   4.671  10.463   1.734 -0.0438  0.4290 -0.1409
 9582SOL    HW140470   4.663  10.415   1.652 -1.5472  1.0326 -0.3723
 9582SOL    HW240471   4.675  10.396   1.802 -1.5538 -0.0447 -0.4987
 9583SOL     OW40472   5.955   5.736   9.389 -0.0465  0.0881 -0.7712
 9583SOL    HW140473   6.009   5.801   9.344 -0.3598 -0.4163 -1.9215
 9583SOL    HW240474   5.982   5.741   9.480 -0.1129  1.8784 -0.8200
 9584SOL     OW40475   1.426  11.346  10.387  0.1565  0.0183 -0.1557
 9584SOL    HW140476   1.502  11.377  10.338 -1.1647  0.3058 -2.1530
 9584SOL    HW240477   1.462  11.286  10.452  2.1702  0.9185 -0.3703
 9585SOL     OW40478   1.782   5.363   7.001 -0.0496 -0.6443  0.3419
 9585SOL    HW140479   1.854   5.373   6.940  0.4531 -0.4999  0.9431
 9585SOL    HW240480   1.708   5.407   6.959  0.4879  0.1298  0.1712
 9586SOL     OW40481   0.949   1.688  10.702  0.3585  0.1217  0.2084
 9586SOL    HW140482   0.906   1.711  10.785  1.1798 -1.5885  1.1764
 9586SOL    HW240483   1.039   1.717  10.713  0.8111 -1.3086  0.5068
 9587SOL     OW40484  10.962   3.501   2.511  0.1993  0.0047 -0.2505
 9587SOL    HW140485  11.005   3.572   2.558  0.0559  0.2984 -0.5630
 9587SOL    HW240486  10.994   3.508   2.421 -2.2374  1.6995 -1.0925
 9588SOL     OW40487   7.279   7.774   9.237 -0.1160  0.0747 -0.0599
 9588SOL    HW140488   7.360   7.822   9.250 -0.2617  0.4328 -0.4627
 9588SOL    HW240489   7.299   7.685   9.266  0.2381  0.3035  0.4148
 9589SOL     OW40490  10.644  10.799   6.030 -0.0762 -0.1384  0.0907
 9589SOL    HW140491  10.624  10.892   6.017  0.2620  0.0087  0.5999
 9589SOL    HW240492  10.737  10.798   6.051  0.5925 -0.8307 -2.4625
 9590SOL     OW40493   9.809   6.827   0.294 -0.4086  0.2152 -0.3052
 9590SOL    HW140494   9.773   6.916   0.295  0.5379  0.6387 -1.3281
 9590SOL    HW240495   9.893   6.835   0.339 -1.1401 -0.5815  1.2944
 9591SOL     OW40496   3.223   3.469   1.880 -0.5569  0.0424 -0.2882
 9591SOL    HW140497   3.263   3.414   1.947 -1.2275  2.0081  1.8959
 9591SOL    HW240498   3.281   3.545   1.874 -2.0149  1.2586  0.3090
 9592SOL     OW40499   0.012  11.187   8.204  0.3304  0.0895 -0.1955
 9592SOL    HW140500   0.017  11.092   8.193  1.0739 -0.5315  3.9823
 9592SOL    HW240501  -0.073  11.211   8.167  0.8690 -1.7832 -2.9839
 9593SOL     OW40502   9.966   5.133   5.375 -0.6264 -0.1105 -0.1247
 9593SOL    HW140503   9.877   5.141   5.409 -1.5457  0.2405 -2.3910
 9593SOL    HW240504   9.962   5.175   5.289  1.9071  0.4664 -0.0370
 9594SOL     OW40505  10.390   2.310   6.532 -0.4325 -0.0932  0.3378
 9594SOL    HW140506  10.369   2.397   6.496  1.6001  0.6086  0.7530
 9594SOL    HW240507  10.323   2.252   6.494 -0.2080  1.1486 -2.1365
 9595SOL     OW40508   9.837   2.723   8.466 -0.5460 -0.6125 -0.3915
 9595SOL    HW140509   9.904   2.741   8.400  0.3595 -0.7608  0.4560
 9595SOL    HW240510   9.755   2.721   8.418 -0.2529  1.9424 -1.1244
 9596SOL     OW40511   6.053  10.142  11.406 -0.4882  0.6030  0.2088
 9596SOL    HW140512   6.004  10.221  11.384  1.7603  1.6900 -1.3556
 9596SOL    HW240513   6.137  10.175  11.439 -0.0873 -1.1565  1.0440
 9597SOL     OW40514  11.634   5.737   8.637  1.1300  0.1338  0.4725
 9597SOL    HW140515  11.675   5.778   8.713  2.2911 -1.7081  0.8956
 9597SOL    HW240516  11.545   5.718   8.665  1.0172  1.0199  0.7521
 9598SOL     OW40517   9.944   4.130   8.462  0.1562 -0.1399  0.0283
 9598SOL    HW140518   9.945   4.035   8.449  1.9600 -0.0407 -1.0562
 9598SOL    HW240519  10.026   4.160   8.421  0.3584  1.7170  1.6508
 9599SOL     OW40520   4.770   5.855   9.885 -0.6601  0.3383  0.0689
 9599SOL    HW140521   4.782   5.763   9.906 -0.4267  0.5819  1.0283
 9599SOL    HW240522   4.853   5.881   9.844 -1.0645 -0.0966 -1.0869
 9600SOL     OW40523   4.568   2.777   9.359  0.3174  0.5649 -0.2037
 9600SOL    HW140524   4.481   2.815   9.349  0.9807  1.7346 -1.9638
 9600SOL    HW240525   4.612   2.834   9.423 -0.3919 -0.4704  1.2801
 9601SOL     OW40526   0.257   5.231   0.284  0.5009  0.2958 -0.1643
 9601SOL    HW140527   0.193   5.300   0.298 -0.2930 -0.3602 -0.4383
 9601SOL    HW240528   0.204   5.152   0.269  1.3257 -0.9500  2.6869
 9602SOL     OW40529  10.950   6.210   4.259  0.0413 -0.0177 -0.2665
 9602SOL    HW140530  10.876   6.257   4.298 -1.5677 -1.2522 -1.6631
 9602SOL    HW240531  11.019   6.215   4.324 -1.3269  1.0517  1.1707
 9603SOL     OW40532   6.526  10.842   7.323  0.4061 -0.2144  0.0349
 9603SOL    HW140533   6.453  10.873   7.269  1.3223  0.8864 -0.6112
 9603SOL    HW240534   6.524  10.747   7.312 -0.7932 -0.1760 -0.1529
 9604SOL     OW40535   0.606   0.682  10.253  0.2542  0.0886 -0.1630
 9604SOL    HW140536   0.510   0.680  10.260  0.3303 -0.1291  1.0253
 9604SOL    HW240537   0.632   0.751  10.314  0.8347  0.3683 -0.7316
 9605SOL     OW40538   3.513   0.972   5.800 -0.4033 -1.0051  0.6977
 9605SOL    HW140539   3.607   0.986   5.791 -0.5353  0.4016  1.1716
 9605SOL    HW240540   3.474   1.025   5.729 -0.8470 -1.3092  0.7104
 9606SOL     OW40541   4.078   6.701  10.781  0.1535  0.0762 -0.1490
 9606SOL    HW140542   4.065   6.796  10.772  0.1014  0.1688  0.7501
 9606SOL    HW240543   4.097   6.671  10.693 -1.7654  0.6296 -0.8090
 9607SOL     OW40544   7.793   8.347   9.476 -0.7227  0.8431  0.6601
 9607SOL    HW140545   7.797   8.313   9.565 -3.2940 -0.5596  0.3617
 9607SOL    HW240546   7.811   8.440   9.484  0.6486  0.4703  2.3975
 9608SOL     OW40547   4.464   1.190   2.235  0.2776 -0.0605  0.4415
 9608SOL    HW140548   4.410   1.115   2.259 -0.9067  0.5920 -0.1221
 9608SOL    HW240549   4.500   1.168   2.149  2.3465 -1.2239  1.5062
 9609SOL     OW40550   4.597   2.126  10.824  0.4874  0.5074 -0.0210
 9609SOL    HW140551   4.598   2.050  10.882 -0.2051 -0.6844 -1.4924
 9609SOL    HW240552   4.612   2.201  10.882 -1.4261 -0.4729  1.9000
 9610SOL     OW40553   3.730   0.259   0.813  0.1717  0.3862 -0.1247
 9610SOL    HW140554   3.821   0.255   0.783  0.1069 -0.6216 -0.2207
 9610SOL    HW240555   3.681   0.211   0.746 -0.5288  1.4794 -0.4162
 9611SOL     OW40556   2.632   1.180  10.088  0.1221  0.2887  0.5966
 9611SOL    HW140557   2.624   1.251  10.151 -3.0007  0.3117  0.3175
 9611SOL    HW240558   2.569   1.114  10.117  1.9154 -1.8021  0.0407
 9612SOL     OW40559  11.780   5.246   6.748  0.1757  0.4456  0.4768
 9612SOL    HW140560  11.709   5.233   6.685  0.9832  0.2656 -0.4321
 9612SOL    HW240561  11.813   5.158   6.765  1.6142  0.6751 -0.8624
 9613SOL     OW40562   2.406   9.998   6.395 -0.2654 -0.0876 -0.0846
 9613SOL    HW140563   2.414  10.001   6.300 -1.1494  0.3076 -0.1601
 9613SOL    HW240564   2.443   9.913   6.420 -1.1237 -0.7331 -0.9186
 9614SOL     OW40565   5.972   0.732   9.326 -0.4425  0.0187 -0.3300
 9614SOL    HW140566   5.997   0.742   9.418  0.5060 -1.8544 -0.3227
 9614SOL    HW240567   5.967   0.821   9.292 -1.6233  0.7988  1.7188
 9615SOL     OW40568   3.678   6.486   8.259 -0.1031  0.4579  0.4164
 9615SOL    HW140569   3.623   6.411   8.238  1.5576 -0.6328 -0.2356
 9615SOL    HW240570   3.743   6.489   8.188  0.9118  1.4676  1.3403
 9616SOL     OW40571   1.294   9.623   9.384  0.4122 -0.9678 -0.3033
 9616SOL    HW140572   1.356   9.696   9.385  0.5029 -1.0418  0.6878
 9616SOL    HW240573   1.279   9.604   9.477 -3.0213  0.6825 -0.3666
 9617SOL     OW40574   1.176  11.168   2.716 -0.3283 -0.0435  0.0778
 9617SOL    HW140575   1.268  11.169   2.688  0.0950 -0.1883  1.4033
 9617SOL    HW240576   1.168  11.088   2.768 -0.5945  1.0928  1.8795
 9618SOL     OW40577   1.487   3.785   3.845  0.2560  0.0283  0.0812
 9618SOL    HW140578   1.403   3.802   3.802  0.3105  0.7791  0.2654
 9618SOL    HW240579   1.468   3.716   3.908  0.4184 -2.0212 -1.9653
 9619SOL     OW40580   1.300   7.270   3.689  0.0168  0.3060 -0.6596
 9619SOL    HW140581   1.314   7.191   3.741  0.0548  0.3964 -0.5349
 9619SOL    HW240582   1.215   7.304   3.718 -0.1206  0.1726 -0.8913
 9620SOL     OW40583   3.998   5.347   6.413  0.2724 -0.2820 -0.8785
 9620SOL    HW140584   4.077   5.394   6.441 -1.2597  1.8713  0.1813
 9620SOL    HW240585   3.980   5.381   6.326  0.1704 -0.2820 -0.8569
 9621SOL     OW40586   5.299   2.890   6.237  0.0389  0.0076  0.8694
 9621SOL    HW140587   5.214   2.886   6.281 -0.6419  0.0326 -0.4038
 9621SOL    HW240588   5.296   2.971   6.186 -0.6250 -1.6378 -1.9580
 9622SOL     OW40589   3.093  11.586   1.039 -0.5018  0.0073 -0.0829
 9622SOL    HW140590   3.030  11.547   1.099  1.1881 -0.6973  1.3252
 9622SOL    HW240591   3.132  11.512   0.993 -0.8092  0.4394 -1.0633
 9623SOL     OW40592   3.145   7.625   2.258 -0.2320  0.3989  0.3131
 9623SOL    HW140593   3.054   7.601   2.240 -0.0089  0.2598 -0.7300
 9623SOL    HW240594   3.140   7.701   2.315 -0.9797 -0.6681  1.7284
 9624SOL     OW40595   2.597   9.755   5.784 -0.6738 -0.2554  0.0478
 9624SOL    HW140596   2.680   9.709   5.778  0.6205  1.7315  1.5721
 9624SOL    HW240597   2.620   9.843   5.813 -3.3391  0.2445  0.9395
 9625SOL     OW40598   2.417  10.682   8.649  0.2984  0.5676  0.0381
 9625SOL    HW140599   2.343  10.732   8.684  1.3269  0.0196  3.3565
 9625SOL    HW240600   2.404  10.683   8.555 -3.0583  1.8408  0.3728
 9626SOL     OW40601   8.367   1.329   7.880  0.3007 -0.1072  0.0142
 9626SOL    HW140602   8.368   1.263   7.811 -0.3823 -1.3566  1.1553
 9626SOL    HW240603   8.283   1.318   7.923 -0.1649  2.0293 -0.2033
 9627SOL     OW40604  10.445   7.566   5.421 -0.1276  0.3261 -0.2855
 9627SOL    HW140605  10.511   7.612   5.474 -0.4967  0.2327  0.2563
 9627SOL    HW240606  10.475   7.475   5.421 -0.1848  0.3065 -0.1452
 9628SOL     OW40607   8.216  10.772   9.135 -0.1058  0.0417 -0.6939
 9628SOL    HW140608   8.296  10.820   9.158 -0.9429  1.9743 -1.5938
 9628SOL    HW240609   8.235  10.681   9.159  1.1888  0.9233  2.0050
 9629SOL     OW40610   9.903   0.363   7.988 -0.1793  0.0796  0.4425
 9629SOL    HW140611   9.974   0.426   7.982 -0.4094  0.3132  0.1301
 9629SOL    HW240612   9.845   0.399   8.055 -0.4524  0.3473  0.0676
 9630SOL     OW40613   2.614   3.544   5.028 -1.2361 -0.1974  0.2815
 9630SOL    HW140614   2.523   3.543   5.060 -1.6778  0.7913 -0.8545
 9630SOL    HW240615   2.607   3.517   4.936 -0.6207  1.4871 -0.3032
 9631SOL     OW40616   3.488   6.381  11.878 -0.3813  0.1208 -0.3480
 9631SOL    HW140617   3.452   6.469  11.881  0.9155  0.7257 -1.2904
 9631SOL    HW240618   3.446   6.335  11.950 -1.4621  1.3553 -0.1517
 9632SOL     OW40619  10.270   5.931   9.596  0.0172 -0.2716 -0.0246
 9632SOL    HW140620  10.323   5.984   9.537 -2.2914  0.1375 -1.8903
 9632SOL    HW240621  10.258   5.985   9.674 -0.8497  1.2852 -1.1816
 9633SOL     OW40622   6.550   7.182   0.497  0.2444  0.1460 -0.4481
 9633SOL    HW140623   6.501   7.111   0.457  0.2360  0.3372 -0.7804
 9633SOL    HW240624   6.596   7.223   0.424  3.8832 -2.2971  0.1925
 9634SOL     OW40625   7.542   2.158   5.446  0.0712 -0.2875  0.2871
 9634SOL    HW140626   7.587   2.106   5.513  0.3397 -1.7314 -0.9771
 9634SOL    HW240627   7.471   2.103   5.416 -0.3886  0.5729 -0.2405
 9635SOL     OW40628   1.246  11.212   0.002  0.5356  0.4476 -0.0919
 9635SOL    HW140629   1.270  11.258   0.082  1.1393  1.0749 -0.6143
 9635SOL    HW240630   1.157  11.181   0.017  0.8414  0.0756  1.0245
 9636SOL     OW40631   8.009   8.799   7.890 -0.2222 -0.0958 -0.3503
 9636SOL    HW140632   8.100   8.816   7.915 -0.1974  1.0252 -1.1389
 9636SOL    HW240633   8.014   8.772   7.798 -0.8194  1.9000 -1.0206
 9637SOL     OW40634   8.428   8.103   6.919 -0.4182  0.4955 -0.2063
 9637SOL    HW140635   8.365   8.045   6.875  0.6782 -1.8671  1.1514
 9637SOL    HW240636   8.400   8.102   7.011  0.4079  1.0904  0.0579
 9638SOL     OW40637   1.258   7.506   6.468 -0.3003  0.0775 -0.3833
 9638SOL    HW140638   1.231   7.472   6.553  0.7070  0.3500  0.0618
 9638SOL    HW240639   1.294   7.592   6.488 -1.3401  0.7341 -1.2809
 9639SOL     OW40640   1.318   3.841   7.601  0.0046  0.2192  0.0854
 9639SOL    HW140641   1.296   3.921   7.649  2.2141  0.2617  1.1710
 9639SOL    HW240642   1.317   3.772   7.667  2.3529  0.1489  0.1287
 9640SOL     OW40643   1.202   5.547  11.345  0.0814  0.2343  0.2455
 9640SOL    HW140644   1.245   5.466  11.373  1.1434  0.9504  0.7393
 9640SOL    HW240645   1.134   5.562  11.412 -0.3634 -0.4225 -0.0461
 9641SOL     OW40646   2.170   2.047   6.006  0.1149  0.2959  0.0486
 9641SOL    HW140647   2.098   2.009   5.955 -1.6262  0.0588  2.5324
 9641SOL    HW240648   2.227   1.972   6.026  0.1386  0.1766 -0.4420
 9642SOL     OW40649  10.990   2.996   4.678 -0.3575  0.2972 -0.6335
 9642SOL    HW140650  10.934   2.965   4.749  1.3168 -0.1392  0.5625
 9642SOL    HW240651  10.961   3.086   4.662 -0.8680  0.3569  0.5103
 9643SOL     OW40652  11.071   4.365   1.367 -0.3061  0.2548 -0.2198
 9643SOL    HW140653  11.070   4.458   1.388  0.4363  0.1207  0.4477
 9643SOL    HW240654  10.990   4.331   1.405 -1.2791  0.8571 -1.6543
 9644SOL     OW40655   3.237   0.862   0.893  0.1408  0.1351 -0.0843
 9644SOL    HW140656   3.261   0.905   0.975 -0.7021  2.1502 -0.8285
 9644SOL    HW240657   3.309   0.801   0.877  0.7633  0.3284  1.6885
 9645SOL     OW40658  10.515   0.052   9.331 -0.4096  0.3373  0.2626
 9645SOL    HW140659  10.575   0.126   9.326 -1.2844  1.0735  0.5194
 9645SOL    HW240660  10.562  -0.012   9.386  0.7233  0.3103 -0.6908
 9646SOL     OW40661   8.705   3.899   0.514 -0.1278 -0.2640 -0.3589
 9646SOL    HW140662   8.768   3.831   0.490 -0.7146 -1.0630  0.2790
 9646SOL    HW240663   8.731   3.976   0.464  0.6422 -0.9228 -0.9870
 9647SOL     OW40664   0.458   3.253   5.070  0.4275 -0.5882 -0.1771
 9647SOL    HW140665   0.421   3.280   4.986 -0.6907  1.7860  1.0111
 9647SOL    HW240666   0.391   3.197   5.109  0.2179 -0.3180 -0.1486
 9648SOL     OW40667   3.487   9.682  10.926  0.1624 -0.1961  0.5183
 9648SOL    HW140668   3.444   9.650  10.847  1.0803 -0.0586 -0.0418
 9648SOL    HW240669   3.580   9.687  10.904  0.1119  2.8310  0.5548
 9649SOL     OW40670   5.551  11.494  10.957  0.2646  0.3126  0.0438
 9649SOL    HW140671   5.551  11.471  10.864  0.4600 -3.5748  0.8289
 9649SOL    HW240672   5.638  11.530  10.973  0.4984  0.2950 -1.1083
 9650SOL     OW40673   1.049   1.043  10.338  0.3110  0.0675 -0.6581
 9650SOL    HW140674   1.002   1.123  10.365  0.0204 -0.5018  0.5860
 9650SOL    HW240675   1.014   0.975  10.395  1.4419 -0.7115 -0.8690
 9651SOL     OW40676  11.407   4.639  11.869 -0.1971  0.3237  0.2190
 9651SOL    HW140677  11.421   4.575  11.800 -0.9872  1.9302 -1.5512
 9651SOL    HW240678  11.360   4.711  11.825 -0.4691  1.5529  2.3733
 9652SOL     OW40679   2.681   0.388   0.159 -0.3095 -0.4310  0.7030
 9652SOL    HW140680   2.716   0.307   0.123 -0.4533  0.0506 -0.5900
 9652SOL    HW240681   2.594   0.365   0.191 -1.5845 -0.2585 -2.2884
 9653SOL     OW40682   7.893   8.604  11.214  0.5347 -0.5955  0.4726
 9653SOL    HW140683   7.833   8.635  11.281 -1.5546 -2.7171 -0.2346
 9653SOL    HW240684   7.979   8.606  11.255 -0.4977 -0.6702  2.7930
 9654SOL     OW40685   8.320   7.222  11.940  1.0276  0.9338 -0.7406
 9654SOL    HW140686   8.402   7.272  11.928  1.6744  0.0103 -0.2821
 9654SOL    HW240687   8.272   7.271  12.007  1.2875  1.3706 -0.8639
 9655SOL     OW40688   0.991   6.001  11.668 -0.2652 -0.1468 -0.0221
 9655SOL    HW140689   0.921   5.965  11.614 -0.1823 -1.4110  0.6872
 9655SOL    HW240690   1.052   5.928  11.680  0.5456  0.5836  0.4124
 9656SOL     OW40691   2.073  11.881   1.096  0.1585  0.2802  0.2907
 9656SOL    HW140692   2.049  11.958   1.043  0.6766 -0.1137 -0.5404
 9656SOL    HW240693   2.127  11.828   1.038  0.4973 -0.3195  1.1302
 9657SOL     OW40694   9.307  11.502   3.461  0.3002  0.2547  0.1637
 9657SOL    HW140695   9.367  11.576   3.468  1.6977 -0.6253 -1.7423
 9657SOL    HW240696   9.307  11.463   3.548  1.7335  0.8669  0.4620
 9658SOL     OW40697   9.715   1.320   3.659 -0.3609 -0.2211 -0.0635
 9658SOL    HW140698   9.795   1.346   3.614 -0.6237  0.3018 -0.2433
 9658SOL    HW240699   9.691   1.397   3.712  0.6478 -1.2544  2.0282
 9659SOL     OW40700   4.945   7.897   6.256 -0.1270 -0.1020 -0.3339
 9659SOL    HW140701   4.958   7.811   6.295  2.3972  0.4622  0.2966
 9659SOL    HW240702   5.010   7.953   6.300 -1.5655  2.0962 -0.8228
 9660SOL     OW40703  11.921  11.094   7.361 -0.0834  0.0872 -0.1716
 9660SOL    HW140704  11.953  11.008   7.388  0.4040 -0.1462 -1.3983
 9660SOL    HW240705  11.938  11.097   7.267  0.2546  1.6797 -0.0863
 9661SOL     OW40706   8.062   7.129   9.098 -0.2349  0.2601  0.4781
 9661SOL    HW140707   8.107   7.116   9.181  0.0817 -1.0479  0.1183
 9661SOL    HW240708   7.973   7.096   9.113  0.3752 -1.8396 -0.2382
 9662SOL     OW40709   0.340   5.689   2.968 -0.0447  0.0957  0.0038
 9662SOL    HW140710   0.307   5.717   2.883  0.4650  1.7826  0.3136
 9662SOL    HW240711   0.318   5.762   3.027  2.3582  0.3922  0.6480
 9663SOL     OW40712  11.275   0.019   1.586 -0.7362  0.0541 -0.0010
 9663SOL    HW140713  11.270  -0.031   1.504  2.2976 -0.1457 -0.1841
 9663SOL    HW240714  11.209   0.087   1.577 -0.5117  0.0178 -2.6473
 9664SOL     OW40715  11.811   0.734   5.899 -0.4975 -0.6321  0.8017
 9664SOL    HW140716  11.750   0.805   5.918  0.8509  0.8068  0.0326
 9664SOL    HW240717  11.898   0.771   5.917  0.2952 -1.8539 -0.2644
 9665SOL     OW40718  10.615   0.048   5.752 -0.3969  0.3013 -0.0163
 9665SOL    HW140719  10.702   0.007   5.755  0.6600  2.4540  0.9354
 9665SOL    HW240720  10.603   0.070   5.659 -0.4858 -1.0352 -0.3526
 9666SOL     OW40721   2.145   4.908   0.431 -0.0560  0.5204  0.0242
 9666SOL    HW140722   2.116   4.914   0.522 -1.5601 -0.8185 -0.3209
 9666SOL    HW240723   2.183   4.994   0.412 -2.3778  1.8620  1.0516
 9667SOL     OW40724   7.143   7.838   0.324  0.3966 -0.6836 -0.2255
 9667SOL    HW140725   7.159   7.744   0.320  2.8671 -0.2921 -1.5755
 9667SOL    HW240726   7.048   7.846   0.324  0.1036 -3.1865  0.9324
 9668SOL     OW40727   2.318   2.790   8.911  0.2289 -0.0449 -0.3583
 9668SOL    HW140728   2.243   2.849   8.898  0.8791  0.4274 -2.2569
 9668SOL    HW240729   2.297   2.714   8.856  0.3713 -0.6654  0.4398
 9669SOL     OW40730   1.494   1.777  10.032  0.3117 -0.3603 -0.3436
 9669SOL    HW140731   1.506   1.814  10.119  1.7878 -2.0522  0.2340
 9669SOL    HW240732   1.488   1.853   9.974  3.4298  0.8754  0.7343
 9670SOL     OW40733   4.890   1.744   7.572  0.5632  0.1307  0.2955
 9670SOL    HW140734   4.889   1.794   7.490  0.9519 -0.5001 -0.1116
 9670SOL    HW240735   4.798   1.732   7.594  0.3882 -1.0551 -0.9222
 9671SOL     OW40736   0.464   1.693  10.317  0.1500  0.7313 -0.0104
 9671SOL    HW140737   0.402   1.762  10.295  0.5527  0.8323 -0.8486
 9671SOL    HW240738   0.484   1.650  10.234 -0.7880 -1.0103  0.6076
 9672SOL     OW40739   9.417   2.401   2.098 -0.0105  0.1529  0.2019
 9672SOL    HW140740   9.369   2.447   2.030 -1.1703  0.4630  1.2070
 9672SOL    HW240741   9.387   2.310   2.091  2.3199 -0.5817 -1.8207
 9673SOL     OW40742   1.246   2.375  11.019  0.5854  0.4390 -0.0650
 9673SOL    HW140743   1.254   2.431  10.942 -1.0986 -0.5435 -1.0140
 9673SOL    HW240744   1.202   2.296  10.987 -1.3923  0.5354  2.1180
 9674SOL     OW40745   0.756   4.410   6.295  0.5114 -0.6323 -0.1211
 9674SOL    HW140746   0.846   4.440   6.280  0.5145 -0.9975 -0.8686
 9674SOL    HW240747   0.756   4.381   6.386  1.1378 -0.5856 -0.0979
 9675SOL     OW40748   9.868   5.838   9.985  0.2226 -0.3365  0.0835
 9675SOL    HW140749   9.779   5.849  10.019  0.7507  2.3238  0.7926
 9675SOL    HW240750   9.856   5.785   9.906 -1.7000 -1.8565  1.2961
 9676SOL     OW40751   4.549   1.061   2.994 -0.0851 -0.2280 -0.4208
 9676SOL    HW140752   4.620   1.033   3.052  0.8048 -1.9499 -2.2083
 9676SOL    HW240753   4.469   1.031   3.039  0.6209 -2.1357 -0.3350
 9677SOL     OW40754  11.428   2.383   9.713  0.2261  0.0302 -0.5225
 9677SOL    HW140755  11.362   2.314   9.717 -0.0368  0.1884 -1.9024
 9677SOL    HW240756  11.508   2.338   9.686 -0.3177  0.4522 -3.1072
 9678SOL     OW40757   9.483   1.078   7.948 -0.1169  0.0381 -0.0885
 9678SOL    HW140758   9.507   0.988   7.969 -0.7030 -0.5292 -1.7267
 9678SOL    HW240759   9.455   1.116   8.031 -1.5439 -1.8264  0.3397
 9679SOL     OW40760   8.650  11.546  10.753  0.2159 -0.1019  0.0687
 9679SOL    HW140761   8.653  11.639  10.775  1.4807  0.1438 -1.0496
 9679SOL    HW240762   8.558  11.522  10.767 -0.2907  1.4840 -0.3289
 9680SOL     OW40763   8.308   1.650   2.965 -0.1872  0.2384  0.0076
 9680SOL    HW140764   8.231   1.615   3.009  0.0825  1.9032  1.9587
 9680SOL    HW240765   8.319   1.594   2.888 -1.8086 -1.6364  1.0410
 9681SOL     OW40766   7.454   3.046   2.547 -0.2288 -0.5606 -0.3519
 9681SOL    HW140767   7.366   3.077   2.571 -0.2809 -1.3043  0.4905
 9681SOL    HW240768   7.453   2.953   2.571  0.9193 -0.4856  0.0084
 9682SOL     OW40769   0.848  10.264   6.686  0.1252  0.2641 -0.6875
 9682SOL    HW140770   0.941  10.247   6.670  0.4478  2.4656 -1.5361
 9682SOL    HW240771   0.803  10.218   6.615  0.7091  0.5766 -1.2706
 9683SOL     OW40772   2.634   6.118   5.164  0.3089  0.2447  0.8028
 9683SOL    HW140773   2.727   6.142   5.171  0.5320 -0.7504  1.3825
 9683SOL    HW240774   2.631   6.026   5.190 -0.4807 -0.4817 -1.6004
 9684SOL     OW40775   2.405   3.328   3.859  0.2341 -0.1372 -0.1164
 9684SOL    HW140776   2.433   3.261   3.797  0.4955 -1.2618  1.1686
 9684SOL    HW240777   2.484   3.349   3.909  0.4331  2.0043 -1.2477
 9685SOL     OW40778   6.655   0.400   9.065 -0.0118  0.1922  0.0444
 9685SOL    HW140779   6.698   0.331   9.115 -0.6812 -0.9173 -0.8610
 9685SOL    HW240780   6.694   0.396   8.978 -1.9526 -0.9425 -0.8526
 9686SOL     OW40781   7.925   8.710   5.156  0.3801  0.1494  0.3112
 9686SOL    HW140782   7.961   8.628   5.123  0.6920 -0.2741  1.6397
 9686SOL    HW240783   7.891   8.688   5.243  1.1993  1.5821  1.0451
 9687SOL     OW40784   1.118   3.756   5.648  0.5679  0.3968 -0.0644
 9687SOL    HW140785   1.151   3.842   5.621 -1.3508  1.0855 -0.3519
 9687SOL    HW240786   1.181   3.725   5.713  1.6237  1.7379 -0.4158
 9688SOL     OW40787   8.745   3.729   3.984 -0.0737 -0.5762 -0.3189
 9688SOL    HW140788   8.784   3.778   3.912 -1.6742  0.2421 -0.6731
 9688SOL    HW240789   8.801   3.652   3.994  2.4277  1.1827  0.1518
 9689SOL     OW40790   9.786   5.445   4.080  0.1460 -0.4748 -0.1556
 9689SOL    HW140791   9.755   5.486   4.000 -0.6985  0.0377  0.4216
 9689SOL    HW240792   9.828   5.515   4.129 -0.5724 -0.4539  0.4606
 9690SOL     OW40793  11.107  11.562   5.881 -0.0734  0.0053  0.2109
 9690SOL    HW140794  11.186  11.531   5.926 -1.0063 -1.4303  0.9315
 9690SOL    HW240795  11.092  11.497   5.812 -2.0960 -1.2999  1.7780
 9691SOL     OW40796   4.613   2.845   3.876  0.5118 -0.1205 -0.0359
 9691SOL    HW140797   4.695   2.878   3.841  0.8067 -0.2945  0.4882
 9691SOL    HW240798   4.587   2.909   3.942  1.1370 -0.9679  1.0523
 9692SOL     OW40799   0.028   4.397   8.735  0.4279 -0.4038  0.3125
 9692SOL    HW140800  -0.053   4.361   8.697 -0.3594 -0.4217  1.9051
 9692SOL    HW240801   0.000   4.479   8.777  1.1896 -0.4894  1.0143
 9693SOL     OW40802   9.298   8.050   6.573 -0.2151  0.5189  0.1279
 9693SOL    HW140803   9.233   7.980   6.571  0.9354 -0.7298  2.8402
 9693SOL    HW240804   9.353   8.034   6.496 -0.9004 -0.5972 -0.1528
 9694SOL     OW40805   5.410   2.090   8.825 -0.3627 -0.0242  0.2933
 9694SOL    HW140806   5.419   2.161   8.761 -0.6974 -0.3364 -0.1009
 9694SOL    HW240807   5.316   2.082   8.839 -0.2626  0.7261  1.6065
 9695SOL     OW40808   0.210   8.846   0.391 -0.0561  0.5459  0.2074
 9695SOL    HW140809   0.207   8.837   0.486  0.3544  0.4093  0.2115
 9695SOL    HW240810   0.304   8.852   0.371 -0.0593 -0.8753 -0.3219
 9696SOL     OW40811   3.057   0.643   4.368  0.3501 -0.0125  0.0696
 9696SOL    HW140812   2.972   0.645   4.324 -0.1939 -0.7782  1.0151
 9696SOL    HW240813   3.118   0.679   4.305 -0.7648  1.0765 -0.4429
 9697SOL     OW40814   7.983  11.768   3.442 -0.3336  0.2958  0.2727
 9697SOL    HW140815   7.974  11.679   3.408  1.5080 -0.6114  1.9531
 9697SOL    HW240816   7.943  11.765   3.529  0.7637  0.7677  0.8144
 9698SOL     OW40817   0.362  11.757   6.504 -0.8672  1.0553  0.7772
 9698SOL    HW140818   0.439  11.703   6.490 -2.2977 -1.7305  2.7617
 9698SOL    HW240819   0.383  11.808   6.582 -0.1209  2.3032 -0.1929
 9699SOL     OW40820   0.957   5.726  11.193  0.2293  0.2153 -0.0933
 9699SOL    HW140821   0.982   5.817  11.181  4.5670 -0.3859  2.3758
 9699SOL    HW240822   0.916   5.723  11.279 -0.0557 -0.1441 -0.2381
 9700SOL     OW40823   6.787   6.574   0.883  0.5762 -0.0076 -0.5535
 9700SOL    HW140824   6.828   6.660   0.887  1.5184 -0.4663  0.0561
 9700SOL    HW240825   6.856   6.513   0.907 -0.0270 -0.9594 -1.1426
 9701SOL     OW40826   2.123   5.234   3.405  0.0360 -0.0428 -0.2473
 9701SOL    HW140827   2.195   5.176   3.430  1.8939  1.3273 -2.0478
 9701SOL    HW240828   2.044   5.187   3.431  1.5141 -2.2531  0.5477
 9702SOL     OW40829   0.611   3.980   4.981  0.6180  0.4435 -0.2186
 9702SOL    HW140830   0.623   3.976   4.886  2.0765 -2.1738 -0.0325
 9702SOL    HW240831   0.691   3.942   5.016  0.1371  1.4278  2.0870
 9703SOL     OW40832  11.340  10.572   6.612 -0.5073 -0.0074 -0.0059
 9703SOL    HW140833  11.294  10.511   6.553 -0.8634 -0.5084  0.7773
 9703SOL    HW240834  11.427  10.533   6.623 -0.0559  0.6564 -1.0527
 9704SOL     OW40835   7.575   1.082   3.022 -0.1143 -0.0867 -0.3943
 9704SOL    HW140836   7.635   1.153   3.044 -0.0316 -0.2868  0.0480
 9704SOL    HW240837   7.587   1.067   2.929 -0.5800  0.8875 -0.6160
 9705SOL     OW40838   8.344  11.699  10.243  0.0699  0.0599 -0.0804
 9705SOL    HW140839   8.386  11.749  10.313  0.0711 -1.0115  0.7155
 9705SOL    HW240840   8.267  11.660  10.284  0.1997 -0.7723 -0.6131
 9706SOL     OW40841   5.613   7.125   2.970  0.3889 -0.3148 -0.0409
 9706SOL    HW140842   5.608   7.033   2.993  0.0932 -1.1857 -3.1256
 9706SOL    HW240843   5.700   7.135   2.930  0.1053  0.5491 -0.4647
 9707SOL     OW40844   1.129   4.442   8.355  0.4688  0.3412 -0.0078
 9707SOL    HW140845   1.067   4.500   8.311  1.0755  0.2788 -0.9629
 9707SOL    HW240846   1.103   4.446   8.447 -1.4512 -0.2994 -0.4648
 9708SOL     OW40847   2.192   8.434   2.877 -0.3368 -0.0627 -0.3480
 9708SOL    HW140848   2.252   8.497   2.837  0.9003 -1.7995 -1.3365
 9708SOL    HW240849   2.114   8.436   2.822  0.6082 -1.0443 -1.7707
 9709SOL     OW40850   9.750   8.429  10.214 -0.3995  0.5299 -0.9991
 9709SOL    HW140851   9.736   8.358  10.152  1.7809 -0.0860 -0.8635
 9709SOL    HW240852   9.806   8.491  10.167  2.4245 -0.5801  0.6653
 9710SOL     OW40853   5.409   3.617   2.046 -0.7160  0.0114  0.4903
 9710SOL    HW140854   5.374   3.576   1.967 -0.0971 -0.7311  0.5894
 9710SOL    HW240855   5.352   3.586   2.117  0.1127 -1.1980  0.6522
 9711SOL     OW40856   5.731   9.953   8.066  0.0466 -0.1498  0.8041
 9711SOL    HW140857   5.735  10.048   8.079 -1.4009  0.0930 -0.3051
 9711SOL    HW240858   5.645   9.928   8.099 -0.1677 -0.8496 -0.2466
 9712SOL     OW40859   1.119   8.828   7.482  0.5773  0.2022  0.0234
 9712SOL    HW140860   1.142   8.749   7.434  0.4790 -0.2658  0.7266
 9712SOL    HW240861   1.201   8.858   7.521  0.7271  0.7843 -0.7034
 9713SOL     OW40862  10.092   3.573   7.099 -0.2709 -0.0641 -0.1365
 9713SOL    HW140863  10.052   3.569   7.186  1.1645  0.4468  0.5848
 9713SOL    HW240864  10.069   3.490   7.057  1.0987 -1.4438  1.6978
 9714SOL     OW40865   6.156   4.258   0.780  0.0392 -0.1906  0.0095
 9714SOL    HW140866   6.223   4.240   0.714 -0.9514 -1.2560 -0.7439
 9714SOL    HW240867   6.129   4.348   0.763  0.8652  0.0616 -0.0341
 9715SOL     OW40868   0.248   4.544   5.765  0.3505 -0.0634 -0.2490
 9715SOL    HW140869   0.327   4.527   5.714  0.4510 -4.7689  1.0386
 9715SOL    HW240870   0.273   4.525   5.856 -1.9042 -0.4237  0.3671
 9716SOL     OW40871   9.155   5.543   8.778 -0.2410 -0.2358  0.1699
 9716SOL    HW140872   9.214   5.532   8.853  0.1615 -0.8034 -0.2251
 9716SOL    HW240873   9.100   5.465   8.780 -0.3289 -0.1787 -0.0413
 9717SOL     OW40874  11.583   5.385  11.751  0.5526  0.0774  0.3320
 9717SOL    HW140875  11.605   5.457  11.810  2.1674 -0.0598 -0.0511
 9717SOL    HW240876  11.499   5.410  11.714 -0.2928  0.3858  2.3312
 9718SOL     OW40877   5.326   3.052   4.585  0.1906  0.2224 -0.2463
 9718SOL    HW140878   5.275   3.079   4.509  0.0425  0.7195  0.0322
 9718SOL    HW240879   5.319   2.956   4.585 -0.7902  0.2839 -0.1746
 9719SOL     OW40880  10.197   3.507   1.260  0.2527 -0.1033 -0.2269
 9719SOL    HW140881  10.287   3.529   1.235  0.5278 -0.0081  0.8040
 9719SOL    HW240882  10.206   3.462   1.344 -0.5675 -1.3098 -0.7584
 9720SOL     OW40883   3.468   6.874   9.232  0.2677 -0.6724 -0.1991
 9720SOL    HW140884   3.419   6.930   9.292  1.6287 -0.1088  0.4259
 9720SOL    HW240885   3.513   6.811   9.288  2.8218  0.8365 -0.3949
 9721SOL     OW40886   0.783   4.305   4.411 -0.0500 -0.1322  0.0249
 9721SOL    HW140887   0.744   4.390   4.391 -0.4975 -0.5403 -0.8955
 9721SOL    HW240888   0.725   4.242   4.370  0.2379 -0.8978  0.7642
 9722SOL     OW40889  10.989   2.097   4.628 -0.3582 -0.0418  0.7360
 9722SOL    HW140890  10.939   2.093   4.547  0.3732 -0.9474  0.3016
 9722SOL    HW240891  10.923   2.097   4.697 -0.9959 -1.9809  0.2098
 9723SOL     OW40892   7.667   1.353   2.966 -0.0506  0.3785  0.2710
 9723SOL    HW140893   7.682   1.312   2.881 -0.4992  0.0219  0.3595
 9723SOL    HW240894   7.754   1.371   3.000  0.1438 -0.1460  0.0551
 9724SOL     OW40895  11.487   6.004   7.079 -0.1773 -0.4084 -0.1191
 9724SOL    HW140896  11.451   6.050   7.003 -0.9828  0.8684  0.9790
 9724SOL    HW240897  11.409   5.979   7.129  0.3715  0.4827  1.2252
 9725SOL     OW40898   3.606   8.849  11.656  0.6253  0.0179  0.2202
 9725SOL    HW140899   3.649   8.852  11.571 -1.5042  1.5099 -0.8745
 9725SOL    HW240900   3.574   8.759  11.663 -1.2424  0.4695 -1.6954
 9726SOL     OW40901   4.422   8.464   2.025  0.0985  0.0319 -0.6814
 9726SOL    HW140902   4.510   8.465   2.064 -0.4032 -0.0420  0.4803
 9726SOL    HW240903   4.385   8.550   2.046 -0.1396  0.0460 -1.1312
 9727SOL     OW40904  10.177   2.841  10.956  0.6444  0.2564  0.3470
 9727SOL    HW140905  10.103   2.807  10.904 -0.7380  1.2409  1.5721
 9727SOL    HW240906  10.191   2.774  11.023 -1.6584  1.6141  2.3695
 9728SOL     OW40907   7.509  11.829   5.429 -0.3435 -0.0332  0.7282
 9728SOL    HW140908   7.428  11.878   5.439 -0.6523 -0.5410  0.7535
 9728SOL    HW240909   7.487  11.757   5.371  0.6663  1.1117 -1.1814
 9729SOL     OW40910   9.688   4.453   5.491 -0.7197 -0.0078 -0.4338
 9729SOL    HW140911   9.595   4.432   5.491 -0.6355 -0.4071 -1.2814
 9729SOL    HW240912   9.726   4.396   5.424  0.2344 -0.2930  0.3233
 9730SOL     OW40913   5.995   1.351  11.303 -0.1956  0.2425  0.4051
 9730SOL    HW140914   5.954   1.433  11.275  0.3072  0.5999  0.7071
 9730SOL    HW240915   5.925   1.304  11.349 -0.0486  1.2668  1.7652
 9731SOL     OW40916   1.015   4.498   7.168 -0.2573  0.3714 -0.4162
 9731SOL    HW140917   0.947   4.564   7.153  1.7064  2.4951 -0.5199
 9731SOL    HW240918   0.999   4.432   7.101 -2.0998  0.8941 -0.5378
 9732SOL     OW40919   3.861   9.973   4.025 -0.1238  0.4159 -0.3646
 9732SOL    HW140920   3.821   9.921   3.954  0.4461 -0.8858  0.2246
 9732SOL    HW240921   3.892   9.907   4.087  1.3399  1.4571  0.0432
 9733SOL     OW40922   1.051  10.755   9.840 -0.2555 -0.3685 -0.8030
 9733SOL    HW140923   0.966  10.778   9.878  1.3972  1.7694  1.9632
 9733SOL    HW240924   1.089  10.839   9.815  1.3658 -1.2131 -1.2963
 9734SOL     OW40925   1.171   0.675   8.460 -0.0474  0.2721  0.2957
 9734SOL    HW140926   1.105   0.637   8.518  0.9262  1.0456  1.9766
 9734SOL    HW240927   1.221   0.600   8.428 -1.1701 -0.2423 -0.3003
 9735SOL     OW40928   1.374   1.642   6.245  0.4711 -0.3092 -0.1513
 9735SOL    HW140929   1.451   1.698   6.229  1.1450 -0.2725  2.6568
 9735SOL    HW240930   1.407   1.553   6.235  1.0722 -0.3087  1.5470
 9736SOL     OW40931   2.575   9.989  10.999  0.2925 -0.7997  0.3080
 9736SOL    HW140932   2.655   9.936  10.998 -0.4057 -1.9275 -1.1418
 9736SOL    HW240933   2.604  10.077  10.975  1.3078 -0.7697  1.5154
 9737SOL     OW40934   1.861   1.317   4.703 -0.0810  0.7426 -0.4786
 9737SOL    HW140935   1.865   1.269   4.620 -0.8266  1.5038 -0.9650
 9737SOL    HW240936   1.868   1.249   4.770  0.6293  0.1248 -1.1530
 9738SOL     OW40937   8.750  10.308   0.755  0.8680 -0.7741  0.2498
 9738SOL    HW140938   8.707  10.230   0.721  2.9143 -2.1060  0.5105
 9738SOL    HW240939   8.765  10.363   0.678  0.0185 -0.9410 -0.0424
 9739SOL     OW40940   2.161   1.643   7.403 -0.3026  0.0499 -0.2442
 9739SOL    HW140941   2.150   1.577   7.334 -2.6688  1.4628 -1.3359
 9739SOL    HW240942   2.124   1.602   7.481 -0.5289 -0.3947 -0.5783
 9740SOL     OW40943   6.803   7.451   9.019 -0.5853  0.0054  0.8079
 9740SOL    HW140944   6.725   7.462   9.073 -0.4102 -1.7231  1.4506
 9740SOL    HW240945   6.846   7.373   9.053  1.7856  1.2482  0.8924
 9741SOL     OW40946   3.938  10.543  11.579  0.0063 -0.2900  0.1556
 9741SOL    HW140947   4.018  10.593  11.596 -0.7219  0.8320  0.3383
 9741SOL    HW240948   3.896  10.534  11.664  0.2638 -1.4698  0.1717
 9742SOL     OW40949   3.740   5.510   6.032  0.5984 -0.9582 -0.1903
 9742SOL    HW140950   3.677   5.520   6.103 -0.0239  0.5917 -0.9058
 9742SOL    HW240951   3.825   5.505   6.075  0.1974 -0.4324  0.6856
 9743SOL     OW40952   3.814  11.050   5.817 -0.2757 -0.6261  0.1175
 9743SOL    HW140953   3.859  11.128   5.785 -0.2913 -0.3946  0.6476
 9743SOL    HW240954   3.795  11.000   5.738  0.4622 -0.4872 -0.1649
 9744SOL     OW40955   6.713  10.804   8.995  0.3482 -0.1818 -0.0708
 9744SOL    HW140956   6.742  10.736   8.933  0.2025 -0.1677 -0.1554
 9744SOL    HW240957   6.773  10.877   8.980 -0.6048  0.3922 -1.2659
 9745SOL     OW40958   8.575  10.226   8.221 -0.0118 -0.2456 -0.3461
 9745SOL    HW140959   8.639  10.159   8.244  1.6506  0.0489 -3.4530
 9745SOL    HW240960   8.505  10.178   8.177  0.9459 -0.1180 -2.1287
 9746SOL     OW40961   5.155   6.859   8.280 -0.4556 -0.2687  0.5276
 9746SOL    HW140962   5.172   6.931   8.342  1.3663 -0.2432  0.0697
 9746SOL    HW240963   5.216   6.876   8.208 -2.9389  0.0773 -1.6593
 9747SOL     OW40964   7.775   7.356  11.655  0.7050 -0.5933  0.4297
 9747SOL    HW140965   7.741   7.382  11.741 -2.1057 -1.5014 -0.2968
 9747SOL    HW240966   7.803   7.438  11.614 -0.8870  0.2768  1.0124
 9748SOL     OW40967   5.088   0.476   1.882 -0.4237 -0.1916  0.1040
 9748SOL    HW140968   5.033   0.471   1.804 -0.5942 -0.2156  0.2250
 9748SOL    HW240969   5.133   0.391   1.885  1.5602  0.7284 -1.3994
 9749SOL     OW40970   1.709   1.016   3.042 -0.8410 -0.4132 -0.0060
 9749SOL    HW140971   1.688   1.073   2.968  0.1001  1.7419  1.2909
 9749SOL    HW240972   1.805   1.017   3.047 -0.8961  0.6861  2.0507
 9750SOL     OW40973   5.673   3.992   5.091  0.1534 -0.2033  0.6579
 9750SOL    HW140974   5.677   3.897   5.097 -0.5895 -0.3083 -0.2968
 9750SOL    HW240975   5.759   4.022   5.119  0.1379 -1.1020  1.7485
 9751SOL     OW40976   8.445   6.293   3.355  0.5634 -0.4852 -0.1612
 9751SOL    HW140977   8.391   6.330   3.424 -0.1335 -1.2777 -0.2667
 9751SOL    HW240978   8.433   6.198   3.363  1.8535 -0.6857 -0.2504
 9752SOL     OW40979   9.420  11.256   7.814 -0.1772 -0.2505 -0.6944
 9752SOL    HW140980   9.338  11.250   7.765 -0.2624  0.2405 -0.6189
 9752SOL    HW240981   9.399  11.218   7.899 -0.1011 -0.8631 -0.9440
 9753SOL     OW40982   8.120   5.380   5.781 -0.0046  0.2488 -0.2755
 9753SOL    HW140983   8.040   5.420   5.813 -0.3650 -0.3933 -0.3655
 9753SOL    HW240984   8.111   5.380   5.685 -1.0962 -2.1833 -0.2480
 9754SOL     OW40985   4.595   3.906   6.232  0.1288 -0.2198  0.2444
 9754SOL    HW140986   4.673   3.924   6.181 -0.6239 -0.4220 -1.0123
 9754SOL    HW240987   4.555   3.830   6.190 -1.3981  0.6299  0.0801
 9755SOL     OW40988   5.186   0.964   7.211  0.4327  0.0210  0.3778
 9755SOL    HW140989   5.163   0.882   7.166 -0.3705  1.2886 -1.6554
 9755SOL    HW240990   5.126   0.967   7.286 -0.7418 -0.4452 -0.4998
 9756SOL     OW40991   5.820   5.706   1.825  0.0237  0.0257 -0.1332
 9756SOL    HW140992   5.809   5.685   1.918  0.7945  0.5373  0.0827
 9756SOL    HW240993   5.732   5.700   1.788 -0.5815  1.5387  0.9994
 9757SOL     OW40994   4.883   4.084   4.876  0.1729 -0.2769 -0.1753
 9757SOL    HW140995   4.817   4.144   4.911  2.6285  1.6853  1.3790
 9757SOL    HW240996   4.869   4.087   4.781  0.2071  2.8836 -0.1941
 9758SOL     OW40997  11.424   0.490   8.104  0.1086  0.5800  0.4093
 9758SOL    HW140998  11.439   0.414   8.160 -0.1048  1.4633  1.6924
 9758SOL    HW240999  11.495   0.486   8.040  0.4048 -0.4018  0.7692
 9759SOL     OW41000   1.680  11.074  11.759  0.1598 -0.6138 -0.1323
 9759SOL    HW141001   1.662  10.985  11.789 -0.1891 -0.3800  0.3907
 9759SOL    HW241002   1.727  11.064  11.677  0.7130 -1.2850  0.2614
 9760SOL     OW41003   3.039   3.067   5.962 -0.4501 -0.4485  0.5600
 9760SOL    HW141004   3.101   3.076   6.034  0.3991 -0.6745 -0.1272
 9760SOL    HW241005   3.061   2.983   5.921 -0.8752 -0.2893 -0.0135
 9761SOL     OW41006   4.459   7.771   3.198  0.0726  0.7585  0.2776
 9761SOL    HW141007   4.496   7.855   3.223  2.6049 -0.1423 -0.2043
 9761SOL    HW241008   4.528   7.707   3.214 -1.2596 -1.0553 -0.7190
 9762SOL     OW41009   6.792   2.164   8.711 -0.0697 -0.4534  0.1116
 9762SOL    HW141010   6.855   2.097   8.737  0.6240  0.0588 -0.2198
 9762SOL    HW241011   6.837   2.215   8.643 -0.5344  0.4067  0.4296
 9763SOL     OW41012   4.045   6.353   7.125  0.8668 -0.0530  0.0161
 9763SOL    HW141013   4.134   6.371   7.155  0.5876  1.0545  0.2057
 9763SOL    HW241014   3.989   6.385   7.195  0.3109 -0.9185 -0.0140
 9764SOL     OW41015   6.614  11.037   3.283 -0.1956  0.5801 -0.5028
 9764SOL    HW141016   6.684  11.039   3.347 -0.9420  1.7026  0.3144
 9764SOL    HW241017   6.596  10.944   3.270  1.2371  0.2830 -0.5244
 9765SOL     OW41018   9.400   5.334  10.589 -0.3035  0.1984  0.0875
 9765SOL    HW141019   9.483   5.289  10.571  0.2233 -0.4630  3.5239
 9765SOL    HW241020   9.341   5.302  10.522  1.1256 -2.6371  0.0179
 9766SOL     OW41021  11.776   7.538   3.826 -0.2833 -0.0595 -0.0868
 9766SOL    HW141022  11.809   7.527   3.737  0.0741 -0.5076  0.0963
 9766SOL    HW241023  11.831   7.480   3.879  0.9208  1.7588  0.7414
 9767SOL     OW41024   5.478   8.080   6.112 -0.4874 -0.4079 -0.0220
 9767SOL    HW141025   5.528   8.013   6.159  0.2100 -0.0255 -0.2187
 9767SOL    HW241026   5.392   8.079   6.154 -0.0926 -0.5667  0.7930
 9768SOL     OW41027   9.733   3.003  10.256 -0.3117 -0.2614 -0.3529
 9768SOL    HW141028   9.760   2.941  10.188 -0.2448 -0.4147 -0.1861
 9768SOL    HW241029   9.661   3.052  10.217  1.3165  1.3705 -1.4654
 9769SOL     OW41030   7.638   3.342   8.206  0.6903 -0.0828  0.4704
 9769SOL    HW141031   7.550   3.310   8.186 -0.2540  2.7350 -0.2233
 9769SOL    HW241032   7.637   3.354   8.301 -0.0670  0.8891  0.3588
 9770SOL     OW41033  11.783   0.077   6.277  0.0313  0.1169  0.5562
 9770SOL    HW141034  11.786   0.139   6.350 -1.9186 -1.6024  2.2195
 9770SOL    HW241035  11.864   0.026   6.285  1.3321  1.8900 -0.4354
 9771SOL     OW41036   9.960   3.899   8.990  0.3146 -0.4384 -0.0974
 9771SOL    HW141037   9.998   3.865   9.072  0.7756 -3.0439 -1.2759
 9771SOL    HW241038  10.016   3.862   8.922 -0.4166  1.1909 -1.6335
 9772SOL     OW41039   7.089   7.574   0.279 -0.3331  0.3298 -0.1216
 9772SOL    HW141040   7.003   7.546   0.312 -1.2806  1.6038 -1.3813
 9772SOL    HW241041   7.092   7.540   0.189  0.8137 -0.3060  0.1387
 9773SOL     OW41042   4.597   2.654   7.692 -0.3611  0.2155  0.0527
 9773SOL    HW141043   4.556   2.588   7.748 -1.1431 -1.5868 -2.4816
 9773SOL    HW241044   4.558   2.737   7.721 -0.2800 -0.5189  2.5056
 9774SOL     OW41045  10.886   2.677  10.092 -0.1419  0.2487 -0.2035
 9774SOL    HW141046  10.870   2.665  10.186  0.0595  1.5010  0.0106
 9774SOL    HW241047  10.850   2.764  10.073  2.0128  1.0885 -0.7258
 9775SOL     OW41048   7.947   3.350   7.256 -0.3629  0.0860 -0.4886
 9775SOL    HW141049   7.927   3.260   7.284 -0.5069  0.4179  0.4827
 9775SOL    HW241050   8.041   3.360   7.273  0.0315 -0.4079 -2.1228
 9776SOL     OW41051   6.948   9.204   1.789  0.3702 -0.2809  0.3539
 9776SOL    HW141052   6.945   9.290   1.832 -2.2526  0.3126 -0.8466
 9776SOL    HW241053   6.940   9.141   1.860  0.7656  0.5029  1.1139
 9777SOL     OW41054   1.591   8.772  11.830  0.0131  0.3257 -0.1885
 9777SOL    HW141055   1.586   8.750  11.923  1.1736 -0.3853 -0.2751
 9777SOL    HW241056   1.519   8.834  11.816 -1.0008 -0.5575  0.8896
 9778SOL     OW41057   2.722   0.546   9.548  0.6031 -0.0675 -0.0070
 9778SOL    HW141058   2.724   0.464   9.597 -3.9622 -0.8919 -0.7255
 9778SOL    HW241059   2.735   0.614   9.615 -0.1136 -1.3008  1.4511
 9779SOL     OW41060   0.542   4.797   7.535 -0.1198  0.6019  0.4942
 9779SOL    HW141061   0.486   4.839   7.600 -1.2421 -0.5180  0.2772
 9779SOL    HW241062   0.521   4.841   7.452 -1.0589 -0.1273  0.3266
 9780SOL     OW41063   8.363   3.379  10.510 -0.6633 -0.1120 -0.6864
 9780SOL    HW141064   8.310   3.312  10.553  0.5112  1.0081  2.8840
 9780SOL    HW241065   8.432   3.329  10.466 -0.5650 -1.3503  0.7697
 9781SOL     OW41066   7.791   7.046   8.834 -0.0794  0.2736 -0.1737
 9781SOL    HW141067   7.835   7.131   8.828  0.4573  0.0290  0.1794
 9781SOL    HW241068   7.748   7.035   8.750 -0.8831  1.2869  0.0845
 9782SOL     OW41069   9.242   6.449   1.526  0.2110  0.3461 -0.2938
 9782SOL    HW141070   9.278   6.388   1.461  0.4079 -0.8704  0.8963
 9782SOL    HW241071   9.285   6.424   1.608 -0.6895  1.2492  0.4772
 9783SOL     OW41072  11.131   0.258   4.991  0.4763  0.2700  0.2046
 9783SOL    HW141073  11.091   0.276   4.905 -0.6539  0.4387  0.7401
 9783SOL    HW241074  11.207   0.203   4.971  0.3299  0.4489 -0.9208
 9784SOL     OW41075   3.996   0.266   8.746 -0.8959 -0.2415 -0.2734
 9784SOL    HW141076   3.900   0.264   8.750 -0.9453  0.4768 -0.9448
 9784SOL    HW241077   4.018   0.202   8.679 -0.9066 -0.3139 -0.2086
 9785SOL     OW41078   7.422   8.984   0.262 -0.4958  0.0660  0.3651
 9785SOL    HW141079   7.478   8.939   0.198 -0.7047  0.8974 -0.4305
 9785SOL    HW241080   7.481   9.007   0.333  0.0641  0.4033 -0.1937
 9786SOL     OW41081   0.840  11.751   3.733 -0.3745  0.0605 -0.3234
 9786SOL    HW141082   0.805  11.703   3.658 -0.6221  0.5427 -0.5215
 9786SOL    HW241083   0.934  11.760   3.714 -0.8262  2.4420 -1.8846
 9787SOL     OW41084   6.015   9.539   1.802 -0.7547 -0.3146 -0.1002
 9787SOL    HW141085   6.011   9.549   1.707 -1.5467  0.7722  0.0232
 9787SOL    HW241086   5.923   9.533   1.829 -0.5461 -0.3264  0.6219
 9788SOL     OW41087   0.388   0.815   7.868 -0.1144  0.2954  0.0228
 9788SOL    HW141088   0.363   0.774   7.785  0.6924 -0.7737  0.2938
 9788SOL    HW241089   0.340   0.898   7.869  1.7351  1.5195 -2.6707
 9789SOL     OW41090  10.423   0.505   0.864 -0.2609 -0.4399  0.2218
 9789SOL    HW141091  10.456   0.517   0.953  1.6208 -1.1942 -0.3475
 9789SOL    HW241092  10.379   0.588   0.844 -0.4985 -0.1647  1.7443
 9790SOL     OW41093   3.191   8.812   4.108 -0.3809 -0.9160 -0.3549
 9790SOL    HW141094   3.243   8.826   4.186  0.1473 -1.1642 -0.6592
 9790SOL    HW241095   3.150   8.897   4.091 -0.5813 -0.8881  0.2438
 9791SOL     OW41096   2.035   3.261  10.244  0.1588  0.6000  0.1332
 9791SOL    HW141097   2.011   3.343  10.285 -1.8055  0.1904 -0.1102
 9791SOL    HW241098   2.046   3.200  10.316  0.4493  0.7823  0.2458
 9792SOL     OW41099  11.760   3.950   4.670 -0.1412  0.2608 -0.0139
 9792SOL    HW141100  11.817   3.955   4.747  0.2309 -0.3751 -0.2422
 9792SOL    HW241101  11.808   3.895   4.608 -0.6074  0.4537 -0.5564
 9793SOL     OW41102   2.577   3.216   0.908 -0.5519 -0.4954 -0.4426
 9793SOL    HW141103   2.604   3.129   0.936 -1.5726 -0.7061 -0.0676
 9793SOL    HW241104   2.579   3.212   0.812 -3.2081 -1.8551 -0.5426
 9794SOL     OW41105   2.678   2.327   7.478  0.3298 -0.3268 -0.0578
 9794SOL    HW141106   2.595   2.289   7.449  0.5938 -0.5532 -0.5504
 9794SOL    HW241107   2.726   2.253   7.517 -0.2890  0.1182  1.5998
 9795SOL     OW41108   0.046   6.878   3.906  0.0834 -0.3071 -0.3898
 9795SOL    HW141109   0.004   6.798   3.876  2.2087 -1.5129 -0.3335
 9795SOL    HW241110   0.077   6.858   3.994  0.3265  0.7271 -0.2177
 9796SOL     OW41111   5.697   8.062   0.376 -0.1439  0.0412 -0.4332
 9796SOL    HW141112   5.619   8.107   0.343 -0.0244  0.6665  0.1174
 9796SOL    HW241113   5.695   8.078   0.471  0.8288  0.3432 -0.4569
 9797SOL     OW41114   0.265   1.708   1.977  0.0872  0.5533  0.4855
 9797SOL    HW141115   0.264   1.612   1.972  0.7037  0.6106 -2.4291
 9797SOL    HW241116   0.175   1.732   1.998 -0.0438 -0.6272  1.4269
 9798SOL     OW41117   3.128  10.244   2.215  0.4630 -0.4684  0.3546
 9798SOL    HW141118   3.082  10.175   2.167  1.1765 -2.3604  2.2424
 9798SOL    HW241119   3.079  10.252   2.297 -0.0753  1.9128 -0.1218
 9799SOL     OW41120   6.460   7.158   8.716 -0.2464 -0.1028 -0.4292
 9799SOL    HW141121   6.383   7.102   8.705 -0.0940 -0.1039 -1.6331
 9799SOL    HW241122   6.425   7.247   8.714 -0.1024 -0.0467 -2.4500
 9800SOL     OW41123   6.200   0.832   4.464 -0.4141  0.2057  0.0934
 9800SOL    HW141124   6.190   0.737   4.455 -2.4792  0.3017  0.7812
 9800SOL    HW241125   6.243   0.844   4.548 -0.7481 -0.1269  0.3175
 9801SOL     OW41126   7.348   4.759   8.379 -0.0435  0.0188  0.0379
 9801SOL    HW141127   7.280   4.704   8.340  2.5303 -0.5946 -4.1404
 9801SOL    HW241128   7.381   4.708   8.453 -2.7189 -0.4641  1.0356
 9802SOL     OW41129   2.536   5.328   4.276  0.2703  0.3050 -0.2389
 9802SOL    HW141130   2.488   5.391   4.224  2.4728  2.5932  0.2893
 9802SOL    HW241131   2.598   5.288   4.215 -0.1088 -0.2857 -0.2514
 9803SOL     OW41132   9.973   8.021   4.535 -0.2595 -0.7312 -0.3934
 9803SOL    HW141133   9.944   7.931   4.518 -0.1756 -0.6023 -1.2354
 9803SOL    HW241134   9.902   8.075   4.501  0.8116 -0.4185 -2.2423
 9804SOL     OW41135   1.624  10.503   5.465 -0.0201  0.4047  0.2936
 9804SOL    HW141136   1.688  10.443   5.505  1.0428  0.4763 -1.1780
 9804SOL    HW241137   1.540  10.459   5.476  0.5990 -0.8567  0.2032
 9805SOL     OW41138   5.729  11.145   1.798  0.5642  0.8545  0.1930
 9805SOL    HW141139   5.655  11.085   1.782  1.0548  0.1843  0.3850
 9805SOL    HW241140   5.691  11.232   1.790 -0.2195  0.5189  0.1230
 9806SOL     OW41141   4.435   8.688   6.625  1.1123  0.3070  0.4606
 9806SOL    HW141142   4.355   8.639   6.644  1.1665  0.1370  0.2557
 9806SOL    HW241143   4.406   8.760   6.569  1.1442  0.0769  0.1434
 9807SOL     OW41144  11.019   1.831   4.968 -0.0576 -0.4589 -0.2536
 9807SOL    HW141145  11.073   1.905   4.997 -2.1128  0.4439  1.5423
 9807SOL    HW241146  11.035   1.826   4.874  4.3859 -1.3736  0.3239
 9808SOL     OW41147   1.979   3.934   3.961 -0.4802 -0.6000 -0.3171
 9808SOL    HW141148   2.032   3.859   3.987 -1.0519 -0.6687  0.7047
 9808SOL    HW241149   2.032   4.010   3.984 -0.4884 -0.6722 -0.0641
 9809SOL     OW41150   1.695   8.252  11.300  0.5556  0.4938 -0.2009
 9809SOL    HW141151   1.694   8.291  11.387 -0.6162  0.8259 -0.3510
 9809SOL    HW241152   1.721   8.324  11.242  3.6758 -0.2629  0.0716
 9810SOL     OW41153   9.131   0.416   9.175  0.4578  0.2466 -0.1878
 9810SOL    HW141154   9.038   0.420   9.198  0.0933  1.6312 -1.6605
 9810SOL    HW241155   9.177   0.446   9.254 -0.5166  1.7475 -0.1495
 9811SOL     OW41156   4.497   3.561  11.601 -0.1241  0.5272  0.1454
 9811SOL    HW141157   4.418   3.549  11.547  1.5151  0.1865 -2.3149
 9811SOL    HW241158   4.524   3.651  11.585  1.7122 -0.2643 -1.6226
 9812SOL     OW41159   5.806   9.532   9.898 -0.4210 -0.2129 -0.0712
 9812SOL    HW141160   5.760   9.496   9.822  0.8233 -1.1939 -0.3851
 9812SOL    HW241161   5.736   9.558   9.958 -1.4517  0.9871 -1.6879
 9813SOL     OW41162   7.584   0.456   4.084  0.5503  0.3059 -0.0317
 9813SOL    HW141163   7.519   0.407   4.135 -0.9966  2.1155 -0.1140
 9813SOL    HW241164   7.649   0.484   4.149  0.5066 -0.3795  0.3130
 9814SOL     OW41165   6.860   7.931   7.516 -0.4733  0.3288 -0.3783
 9814SOL    HW141166   6.925   7.896   7.576 -0.6846 -0.3617 -0.5477
 9814SOL    HW241167   6.799   7.859   7.500 -0.5891  0.5845 -1.1833
 9815SOL     OW41168   1.725  10.856  10.247 -0.6132  0.3026  0.5322
 9815SOL    HW141169   1.753  10.893  10.331  0.3148  1.8485 -0.4015
 9815SOL    HW241170   1.649  10.909  10.222 -1.0603 -0.3346  0.5154
 9816SOL     OW41171   4.555  10.051   5.181  0.2646 -0.5908 -0.0361
 9816SOL    HW141172   4.567  10.118   5.247 -1.2492 -0.3775  0.0524
 9816SOL    HW241173   4.508   9.981   5.226 -1.0115 -0.3339 -0.9402
 9817SOL     OW41174   6.604   5.935   5.626  0.0102  0.2813 -0.1893
 9817SOL    HW141175   6.625   5.957   5.717 -0.0357 -1.1849  0.1976
 9817SOL    HW241176   6.534   5.996   5.603  0.5418  1.1826  0.5009
 9818SOL     OW41177   4.500   2.790   3.622 -0.1287 -0.4547 -0.1446
 9818SOL    HW141178   4.409   2.765   3.608  0.4893 -4.2620  1.5433
 9818SOL    HW241179   4.509   2.795   3.717  1.1715  1.2095 -0.3137
 9819SOL     OW41180  10.339   9.121   7.621 -0.6937 -0.2528 -0.3696
 9819SOL    HW141181  10.396   9.127   7.697 -0.9670 -2.2512  0.0439
 9819SOL    HW241182  10.398   9.135   7.546 -0.2148  0.5734  0.1510
 9820SOL     OW41183  10.126   6.629   8.043 -0.0559  0.1248  0.2968
 9820SOL    HW141184  10.197   6.631   8.107 -0.2337  1.5110  0.4681
 9820SOL    HW241185  10.048   6.605   8.094 -0.0369  0.3435  0.4270
 9821SOL     OW41186  11.494   9.555   6.758  0.1699 -0.9661  0.0547
 9821SOL    HW141187  11.564   9.618   6.772 -1.1347  1.2547 -2.5721
 9821SOL    HW241188  11.529   9.472   6.792  3.1771  0.4537  0.7470
 9822SOL     OW41189   4.831   2.471   5.462 -0.4103  0.2373 -0.8395
 9822SOL    HW141190   4.832   2.560   5.498  1.0043 -0.6480  1.4916
 9822SOL    HW241191   4.805   2.416   5.536  2.1628 -1.6342 -1.2050
 9823SOL     OW41192   2.847   0.266   9.195  0.0584 -0.6112  0.6265
 9823SOL    HW141193   2.837   0.355   9.230  2.3289 -0.4747  1.1222
 9823SOL    HW241194   2.941   0.258   9.179 -0.3655 -2.2226 -1.3764
 9824SOL     OW41195   6.822   5.378   4.193 -0.0209  0.0318  0.1137
 9824SOL    HW141196   6.897   5.419   4.236  2.6861 -2.9042 -1.4054
 9824SOL    HW241197   6.765   5.352   4.265  0.8282  1.5271  1.3995
 9825SOL     OW41198   1.521   1.935   1.675 -0.5587 -0.1364  0.2902
 9825SOL    HW141199   1.474   2.012   1.707  0.3939  0.4054  0.4145
 9825SOL    HW241200   1.609   1.967   1.656 -0.8355 -0.6185 -2.1207
 9826SOL     OW41201   3.273   6.435   7.707 -0.2406  0.5798 -0.2011
 9826SOL    HW141202   3.340   6.436   7.640  1.4557  1.4869  1.4279
 9826SOL    HW241203   3.193   6.463   7.662 -0.3248 -3.2849 -2.8432
 9827SOL     OW41204  10.084   3.132   4.483  0.1709  0.3046  0.2307
 9827SOL    HW141205  10.137   3.052   4.480 -0.9347 -0.4367 -0.3318
 9827SOL    HW241206  10.062   3.142   4.575  0.4421  0.0333  0.3279
 9828SOL     OW41207   7.560   4.110   4.391 -0.1942 -0.4684 -0.4724
 9828SOL    HW141208   7.490   4.120   4.326 -0.3850  0.0327 -0.1927
 9828SOL    HW241209   7.639   4.142   4.347  0.3173 -2.9299 -1.5392
 9829SOL     OW41210   5.701   0.062   2.919  0.1105 -0.3417  0.2751
 9829SOL    HW141211   5.691   0.127   2.988  1.3395  1.0484 -0.7705
 9829SOL    HW241212   5.621   0.011   2.921 -0.3409  0.3854  1.9825
 9830SOL     OW41213   6.849   9.023   9.386  0.2502  0.5547 -0.3494
 9830SOL    HW141214   6.916   9.091   9.389 -0.3784  1.2371 -1.0598
 9830SOL    HW241215   6.775   9.060   9.435 -1.1844  1.7103 -3.0879
 9831SOL     OW41216   7.356   6.595   9.315  0.0396  0.4941 -0.0444
 9831SOL    HW141217   7.313   6.534   9.376 -0.0471  0.6622  0.0615
 9831SOL    HW241218   7.364   6.544   9.234  0.0354  0.3150  0.0657
 9832SOL     OW41219   0.390   8.916   3.613 -0.1639 -0.2351 -0.1253
 9832SOL    HW141220   0.394   8.833   3.661  0.1004  0.8030  1.7284
 9832SOL    HW241221   0.298   8.926   3.590 -0.6643  0.1261  1.8663
 9833SOL     OW41222   6.838   4.226   7.337 -0.2363  0.4292  0.1065
 9833SOL    HW141223   6.903   4.175   7.386 -1.2290  0.4782  1.5200
 9833SOL    HW241224   6.820   4.302   7.393 -2.0921  0.0127  0.1123
 9834SOL     OW41225  11.369  11.164   0.037  0.1540 -0.2745 -0.3573
 9834SOL    HW141226  11.448  11.218   0.041 -0.2268  0.3853 -1.1780
 9834SOL    HW241227  11.298  11.224   0.061  0.0647 -1.3700  2.4714
 9835SOL     OW41228   8.972   2.182   3.013  0.0671 -0.1412  0.3631
 9835SOL    HW141229   8.931   2.255   2.967  0.0804 -0.6487 -0.4739
 9835SOL    HW241230   8.924   2.104   2.984  0.8180 -0.5998  0.3098
 9836SOL     OW41231   6.866  10.769   6.602 -0.5038  0.4207  0.4310
 9836SOL    HW141232   6.833  10.740   6.687  1.5272  0.2143  1.1886
 9836SOL    HW241233   6.919  10.696   6.571  0.0856  1.1409 -0.2718
 9837SOL     OW41234   3.173   6.976   4.228 -0.3747  0.3996  0.1232
 9837SOL    HW141235   3.161   6.972   4.323 -2.5651  0.0789 -0.1052
 9837SOL    HW241236   3.225   7.055   4.213  2.8280 -1.2033  1.7306
 9838SOL     OW41237   9.603  10.063  10.479  0.3811 -0.8836  0.3042
 9838SOL    HW141238   9.557   9.980  10.471 -0.0672 -0.8163  1.9632
 9838SOL    HW241239   9.537  10.130  10.460  0.3972 -0.8544  0.3500
 9839SOL     OW41240   3.848  11.483  10.129 -0.0126  0.3990  0.7832
 9839SOL    HW141241   3.858  11.572  10.165 -0.0133  0.7144  0.0106
 9839SOL    HW241242   3.816  11.432  10.203  1.3783  0.7173  1.6434
 9840SOL     OW41243   0.109   2.952   0.858 -0.0931 -0.1737 -0.0774
 9840SOL    HW141244   0.176   2.884   0.859  0.9008  0.7665 -0.7757
 9840SOL    HW241245   0.066   2.942   0.774 -2.5622 -2.3440  1.2978
 9841SOL     OW41246   1.620   6.851  11.262 -0.1639 -0.0920 -0.0827
 9841SOL    HW141247   1.584   6.777  11.212  1.0771 -0.4015 -0.5590
 9841SOL    HW241248   1.560   6.923  11.244  0.5233 -0.0229 -2.5518
 9842SOL     OW41249  10.892   3.188  10.133  0.1858 -0.3008 -0.1643
 9842SOL    HW141250  10.909   3.256  10.068 -0.0038 -0.5436 -0.4725
 9842SOL    HW241251  10.800   3.201  10.156  0.1026 -0.5528 -0.3454
 9843SOL     OW41252   6.251   3.421   3.796 -0.0079  0.0859 -0.0628
 9843SOL    HW141253   6.277   3.374   3.875  0.0516 -0.3691 -0.3496
 9843SOL    HW241254   6.247   3.354   3.728 -1.6963  0.1768 -0.0871
 9844SOL     OW41255   9.955   1.084  10.006  0.1177  0.0210  0.6410
 9844SOL    HW141256   9.928   1.171   9.977 -0.7423  0.0715  1.5344
 9844SOL    HW241257   9.974   1.094  10.099 -0.7479 -0.8858  0.9419
 9845SOL     OW41258   0.813   1.675   3.890 -0.3418  0.1771 -0.2786
 9845SOL    HW141259   0.764   1.666   3.809 -0.2507  2.1835 -0.6040
 9845SOL    HW241260   0.901   1.700   3.863 -0.2276  0.5575  0.4136
 9846SOL     OW41261  10.190   6.001   8.983 -0.8617  0.0330  0.0047
 9846SOL    HW141262  10.118   6.065   8.985  0.0791  1.1423 -0.3972
 9846SOL    HW241263  10.200   5.973   9.074 -2.0181 -0.3973  0.0142
 9847SOL     OW41264   7.027   6.186   3.748 -0.0410 -0.0432  0.2022
 9847SOL    HW141265   6.965   6.231   3.692 -0.3480 -0.7829 -0.0715
 9847SOL    HW241266   7.053   6.251   3.814 -0.1660  0.6334 -0.4100
 9848SOL     OW41267   8.883   9.849   1.350 -0.0418  0.2106  0.1642
 9848SOL    HW141268   8.946   9.905   1.395 -0.7628 -0.0322  1.5410
 9848SOL    HW241269   8.848   9.903   1.280  1.2553  0.5384 -0.2663
 9849SOL     OW41270   6.015   2.652   5.437  0.2776  0.3509  0.4630
 9849SOL    HW141271   6.028   2.557   5.441 -0.7431  0.1675 -0.2932
 9849SOL    HW241272   6.099   2.688   5.467  1.5851 -0.7874 -1.5572
 9850SOL     OW41273   6.006   5.483   4.678  0.0465  0.4893  0.0343
 9850SOL    HW141274   6.036   5.446   4.761 -0.6836  1.1541  0.6093
 9850SOL    HW241275   5.956   5.413   4.637  1.5174 -0.2967 -0.4823
 9851SOL     OW41276   5.954   8.190   3.723 -0.1600 -0.0931  0.0522
 9851SOL    HW141277   6.046   8.171   3.746 -0.4775 -1.4977  0.2857
 9851SOL    HW241278   5.937   8.136   3.646 -0.4408  1.1188 -0.7461
 9852SOL     OW41279  10.180   1.292   9.801 -0.1020 -0.2069  0.6406
 9852SOL    HW141280  10.165   1.308   9.894 -0.5787 -1.0860  0.7182
 9852SOL    HW241281  10.142   1.368   9.757  0.2065  0.2573  1.1654
 9853SOL     OW41282   6.111  11.232   0.482  0.0674  0.7754 -0.0690
 9853SOL    HW141283   6.070  11.189   0.558  0.2629  1.8699  0.6677
 9853SOL    HW241284   6.076  11.183   0.407  0.1736 -0.5934  0.7223
 9854SOL     OW41285   5.741  10.803   3.938 -0.2548  0.3190  0.0307
 9854SOL    HW141286   5.715  10.888   3.972 -0.2000 -0.4148  2.0548
 9854SOL    HW241287   5.823  10.819   3.892 -0.5813  1.4566 -0.1635
 9855SOL     OW41288  10.318   4.220   9.928 -0.3739  0.2135  0.0058
 9855SOL    HW141289  10.387   4.275   9.890 -0.4927  0.9594  0.8314
 9855SOL    HW241290  10.332   4.134   9.889  0.0964  0.7178 -0.9790
 9856SOL     OW41291  10.267   6.075   9.288 -0.2255  0.5741  0.3270
 9856SOL    HW141292  10.178   6.109   9.279 -0.2409  0.4782  0.0990
 9856SOL    HW241293  10.322   6.139   9.243 -0.2009  0.5402  0.3087
 9857SOL     OW41294   5.157   8.263   2.002  0.1140 -0.4597  0.1102
 9857SOL    HW141295   5.066   8.271   2.032  0.0778  1.1520 -0.3242
 9857SOL    HW241296   5.208   8.311   2.067  0.4051  0.3217 -0.6695
 9858SOL     OW41297  11.884  10.161   6.819  0.2160 -0.5715 -0.1312
 9858SOL    HW141298  11.796  10.192   6.839  0.6272  0.2946  0.3484
 9858SOL    HW241299  11.939  10.195   6.890  1.2031  0.1898 -1.2200
 9859SOL     OW41300   3.941   0.006   7.639  0.1944 -0.2350  0.2037
 9859SOL    HW141301   4.029   0.031   7.614 -0.1324  0.2780 -0.4609
 9859SOL    HW241302   3.905  -0.037   7.561 -1.4256  2.8926 -0.9381
 9860SOL     OW41303   4.315   1.046   2.498  0.1551 -0.4442  0.2203
 9860SOL    HW141304   4.245   1.004   2.547  0.9051 -0.0649  1.6599
 9860SOL    HW241305   4.391   1.041   2.556  1.4208 -1.1218 -1.4241
 9861SOL     OW41306   6.746   2.479   5.864  0.3496 -0.3419  0.4329
 9861SOL    HW141307   6.837   2.504   5.846  0.0845  1.2022  1.0934
 9861SOL    HW241308   6.754   2.401   5.919  1.2716 -0.4435  0.1804
 9862SOL     OW41309   7.936   3.883   1.305  0.2064  0.0630  0.6466
 9862SOL    HW141310   8.015   3.841   1.338 -0.6015 -1.3093  0.9584
 9862SOL    HW241311   7.866   3.852   1.363 -0.5850  1.0910  0.2751
 9863SOL     OW41312  10.409   0.877   7.220  0.3921  0.2262 -0.0713
 9863SOL    HW141313  10.330   0.930   7.234 -1.1499 -1.7323 -0.9193
 9863SOL    HW241314  10.395   0.834   7.136  2.4396 -0.1167 -0.3006
 9864SOL     OW41315   2.709   8.421   5.913  0.3195 -0.4238 -0.0420
 9864SOL    HW141316   2.796   8.410   5.953  0.2417  0.3565  0.3521
 9864SOL    HW241317   2.711   8.364   5.836  1.3554 -0.0466 -0.3095
 9865SOL     OW41318   1.568   4.465   7.517 -0.3944  0.4613 -0.4272
 9865SOL    HW141319   1.626   4.539   7.534  1.3369 -0.6234 -1.2499
 9865SOL    HW241320   1.503   4.468   7.587  2.0737  0.3437  2.0113
 9866SOL     OW41321   2.272   6.770   4.772 -0.2836  0.2007  0.4527
 9866SOL    HW141322   2.264   6.676   4.757 -0.2447 -0.1705  2.5028
 9866SOL    HW241323   2.271   6.808   4.684 -1.4427 -1.6035 -0.3780
 9867SOL     OW41324   7.214   1.304   8.479 -0.4730  0.0741 -0.4917
 9867SOL    HW141325   7.132   1.353   8.469  0.2984  1.3274 -0.8296
 9867SOL    HW241326   7.185   1.215   8.500 -1.9490  1.2397  3.2968
 9868SOL     OW41327  11.428   4.978   9.959  0.2955  0.5921  0.3260
 9868SOL    HW141328  11.416   5.072   9.942 -1.6660  0.3386  0.1076
 9868SOL    HW241329  11.370   4.935   9.896  2.3951 -0.8749 -0.7317
 9869SOL     OW41330   1.296   9.365   1.511  0.1375  0.0188 -0.4049
 9869SOL    HW141331   1.223   9.423   1.492  0.3871  0.2065 -0.8065
 9869SOL    HW241332   1.333   9.345   1.426 -0.0190 -0.8294 -0.2810
 9870SOL     OW41333   5.362   0.099   3.295  0.0192  0.2113 -0.8773
 9870SOL    HW141334   5.303   0.034   3.334  0.5310  0.6543  0.6858
 9870SOL    HW241335   5.413   0.048   3.232 -0.0868 -0.7605 -0.2086
 9871SOL     OW41336   5.312   0.528   8.166 -0.3924  0.1904  0.0334
 9871SOL    HW141337   5.319   0.613   8.208  0.7349  1.1768 -2.0240
 9871SOL    HW241338   5.276   0.547   8.079 -0.3111 -1.4471 -0.3923
 9872SOL     OW41339   1.824   3.804  11.824  0.6394 -0.4069  0.1316
 9872SOL    HW141340   1.788   3.846  11.746  0.6104 -0.6375  0.0202
 9872SOL    HW241341   1.901   3.856  11.847  0.2144  0.1128  0.3912
 9873SOL     OW41342   4.227   8.673  11.549 -0.0384  0.0670  0.4157
 9873SOL    HW141343   4.224   8.663  11.644 -2.1491 -1.8841  0.2461
 9873SOL    HW241344   4.264   8.590  11.517 -1.3488 -0.2090 -0.4916
 9874SOL     OW41345   5.313   1.624  10.205  0.4309 -0.0540 -0.0709
 9874SOL    HW141346   5.366   1.641  10.127  0.7411  1.9972  0.5474
 9874SOL    HW241347   5.235   1.677  10.193  0.1584 -0.2766  0.6861
 9875SOL     OW41348   0.668   4.432   5.319 -0.2360  0.2521  0.6359
 9875SOL    HW141349   0.575   4.417   5.336 -0.0537  0.8009  2.2864
 9875SOL    HW241350   0.678   4.527   5.323  0.0195  0.4220 -1.8894
 9876SOL     OW41351  10.044   7.182   9.017  0.3751  0.5257  0.2562
 9876SOL    HW141352  10.018   7.120   9.086 -1.6139 -1.2019 -1.9081
 9876SOL    HW241353  10.130   7.151   8.989  0.7022  0.5694  1.1566
 9877SOL     OW41354   3.630  10.421   8.261 -0.1664 -0.9048 -0.0096
 9877SOL    HW141355   3.718  10.445   8.292 -1.0772  1.9593  0.6544
 9877SOL    HW241356   3.570  10.468   8.319 -2.0867 -0.2786 -2.3466
 9878SOL     OW41357   0.077   4.238   4.365  0.6389 -0.1091  0.3570
 9878SOL    HW141358   0.127   4.157   4.377  0.3089 -0.2705  0.6778
 9878SOL    HW241359   0.036   4.253   4.451  1.3445  0.8343  0.5505
 9879SOL     OW41360   1.714   2.132   1.963 -0.5345  0.9390  0.2036
 9879SOL    HW141361   1.804   2.151   1.987  0.0820  0.4405 -1.5461
 9879SOL    HW241362   1.667   2.126   2.046  1.2169  0.3279  1.1902
 9880SOL     OW41363   5.306   4.265   3.679 -0.3115  0.0899 -0.2392
 9880SOL    HW141364   5.335   4.249   3.769  2.1741  1.8140 -0.6157
 9880SOL    HW241365   5.253   4.344   3.685  0.0216  0.3190 -0.3123
 9881SOL     OW41366   2.089   9.657   2.963 -0.0973  0.4125  0.2275
 9881SOL    HW141367   2.133   9.741   2.974 -0.1912  0.6244 -0.9365
 9881SOL    HW241368   2.056   9.636   3.050  0.7240  1.1280  0.7312
 9882SOL     OW41369   4.561   5.438   0.143 -0.0675  0.0160  0.2136
 9882SOL    HW141370   4.590   5.509   0.200  0.0881 -1.7385  2.4532
 9882SOL    HW241371   4.468   5.427   0.164 -0.7181  0.9743 -1.8080
 9883SOL     OW41372   9.031   7.873  11.446  0.5314  0.6898 -0.5153
 9883SOL    HW141373   8.955   7.919  11.482 -0.2725  1.0204 -2.5269
 9883SOL    HW241374   9.073   7.833  11.522 -1.9480  0.0400  0.6106
 9884SOL     OW41375   1.091   5.927   1.066  0.2170  0.3133 -0.3066
 9884SOL    HW141376   1.113   6.013   1.103  1.9805 -0.3322  0.2452
 9884SOL    HW241377   1.111   5.865   1.135 -2.4039 -0.5163 -0.1814
 9885SOL     OW41378   3.619   6.979   4.101  0.0424  0.4585  0.6480
 9885SOL    HW141379   3.653   6.936   4.180  0.0025  0.5311  0.7047
 9885SOL    HW241380   3.627   7.072   4.120  0.4931  0.4761  0.3683
 9886SOL     OW41381   3.895   4.167   0.897  0.3798  0.3280  0.0777
 9886SOL    HW141382   3.850   4.083   0.910 -0.1156  0.5912  0.0864
 9886SOL    HW241383   3.859   4.224   0.965  0.3988  0.6762 -0.2032
 9887SOL     OW41384   3.091   8.640  10.688  0.4182  0.8149  0.2539
 9887SOL    HW141385   3.000   8.663  10.708 -0.8120 -0.6890 -2.8221
 9887SOL    HW241386   3.118   8.704  10.622  0.6486 -0.1684 -0.6486
 9888SOL     OW41387  10.932   7.935   9.785 -0.0963  0.7957 -0.0383
 9888SOL    HW141388  10.949   7.847   9.818  0.2568  1.0930  0.6003
 9888SOL    HW241389  10.874   7.922   9.710  0.9031 -0.0714 -0.7056
 9889SOL     OW41390   6.374   4.160   6.899  0.2896 -0.3281 -0.2638
 9889SOL    HW141391   6.340   4.225   6.838 -1.3366  0.5253  1.4176
 9889SOL    HW241392   6.322   4.081   6.882 -0.8434  0.1988  0.5832
 9890SOL     OW41393   0.328   1.017   8.541 -0.4058  0.1327 -0.2079
 9890SOL    HW141394   0.334   1.109   8.512 -1.8966  0.9612  1.8278
 9890SOL    HW241395   0.418   0.992   8.559  0.1509  0.8127 -1.8261
 9891SOL     OW41396   2.404   1.249   8.466  0.3256  0.0498  0.0522
 9891SOL    HW141397   2.477   1.307   8.444  0.3886 -0.8473 -2.4961
 9891SOL    HW241398   2.431   1.204   8.546  2.3731  0.0737 -0.5875
 9892SOL     OW41399   1.996   3.497   4.022  0.1641 -0.4735  0.0878
 9892SOL    HW141400   1.903   3.490   4.044  0.4871 -0.6590  1.4757
 9892SOL    HW241401   2.019   3.411   3.987 -0.5587  0.0849 -1.8779
 9893SOL     OW41402   7.103  10.107  11.102 -0.0594  0.2153 -0.3054
 9893SOL    HW141403   7.039  10.095  11.173 -0.4224 -1.3148 -0.8523
 9893SOL    HW241404   7.100  10.200  11.082 -0.6617  0.5058  1.0334
 9894SOL     OW41405   1.820   5.063   6.025 -0.1962  0.6048 -0.0745
 9894SOL    HW141406   1.797   5.110   5.945  0.6947  0.5832 -0.3577
 9894SOL    HW241407   1.782   4.976   6.013 -2.2773  1.3700  0.6700
 9895SOL     OW41408  11.658   7.044   8.354  0.2027 -0.3615  0.2199
 9895SOL    HW141409  11.719   7.023   8.425  0.2173 -1.8140 -0.1895
 9895SOL    HW241410  11.575   7.006   8.381 -0.6844  1.8508  0.9043
 9896SOL     OW41411   2.697   1.572   1.167 -0.2306 -0.6872  0.4594
 9896SOL    HW141412   2.749   1.522   1.230 -0.5279 -2.0555 -0.3436
 9896SOL    HW241413   2.666   1.648   1.217 -0.1611 -1.5353  1.8602
 9897SOL     OW41414   8.741   9.666   0.123 -0.1179 -0.3498 -0.2335
 9897SOL    HW141415   8.794   9.601   0.077  0.2093  0.8732 -1.6661
 9897SOL    HW241416   8.724   9.627   0.209  0.8665 -1.8961 -0.7021
 9898SOL     OW41417   5.733   3.993   3.289  0.0166 -0.1752 -0.3819
 9898SOL    HW141418   5.722   4.032   3.375 -0.2231  0.7941 -0.8353
 9898SOL    HW241419   5.698   3.905   3.298 -1.7866  0.5445  0.0209
 9899SOL     OW41420   5.574   8.414   1.417 -0.8842  0.3632  0.2873
 9899SOL    HW141421   5.636   8.360   1.367  0.5431  2.0959  0.0695
 9899SOL    HW241422   5.524   8.351   1.468 -1.0835 -1.3445 -1.8438
 9900SOL     OW41423   0.752   0.096   7.121  0.3509  0.5164  0.0704
 9900SOL    HW141424   0.722   0.044   7.196 -0.8011 -0.6839 -1.1692
 9900SOL    HW241425   0.685   0.163   7.110  0.1525  0.2622 -0.2981
 9901SOL     OW41426  11.852   3.866   6.616 -0.1199  0.0403  0.1677
 9901SOL    HW141427  11.807   3.950   6.631 -0.3466  0.2720 -1.6607
 9901SOL    HW241428  11.834   3.845   6.525  0.5903 -1.6335  0.3863
 9902SOL     OW41429   3.843   5.652  11.525  0.6104 -0.2356 -0.0892
 9902SOL    HW141430   3.909   5.616  11.466  0.3113 -2.0425  0.6121
 9902SOL    HW241431   3.871   5.626  11.612  0.2112  1.0356  0.4482
 9903SOL     OW41432   9.681   4.750   5.891  0.0494  0.5570 -0.3561
 9903SOL    HW141433   9.604   4.713   5.934  0.5048  0.0211  0.0186
 9903SOL    HW241434   9.684   4.706   5.806  0.6602 -0.3857  0.1388
 9904SOL     OW41435   0.972   4.767   7.467  0.0375 -0.1459 -0.6196
 9904SOL    HW141436   0.933   4.796   7.384 -0.7439 -1.3078 -0.6963
 9904SOL    HW241437   1.064   4.789   7.460 -0.1816  0.5521 -1.4435
 9905SOL     OW41438   6.617   6.630   0.620  0.4435 -0.5044 -0.1694
 9905SOL    HW141439   6.634   6.719   0.650  1.8265 -0.7323 -0.2148
 9905SOL    HW241440   6.664   6.623   0.538 -1.4573 -0.6141 -1.3022
 9906SOL     OW41441   7.762  10.800   9.503  0.4229 -0.0771 -0.2270
 9906SOL    HW141442   7.696  10.866   9.482  1.3589  2.1047  3.0241
 9906SOL    HW241443   7.823  10.804   9.429 -1.4532 -0.0336 -1.8681
 9907SOL     OW41444  11.001  11.202  11.501  0.2779  0.4639 -0.1509
 9907SOL    HW141445  11.042  11.147  11.434  0.7466  0.0527  0.4483
 9907SOL    HW241446  11.048  11.285  11.496  2.2831 -0.4516  1.4773
 9908SOL     OW41447  11.046   3.172   5.817  0.2673  0.5867 -0.2307
 9908SOL    HW141448  11.041   3.246   5.757  0.1913 -0.2163 -1.2263
 9908SOL    HW241449  11.086   3.208   5.896 -0.1318  1.7808 -0.5487
 9909SOL     OW41450   7.600   6.728   9.090 -0.0460  0.1912 -0.2579
 9909SOL    HW141451   7.685   6.770   9.076  1.5005 -2.9717 -1.1001
 9909SOL    HW241452   7.566   6.769   9.170  2.4070  1.2949  0.3025
 9910SOL     OW41453   8.783   7.784   9.539 -0.3101 -0.6919  0.7228
 9910SOL    HW141454   8.800   7.695   9.507 -1.0596 -0.3010 -0.8834
 9910SOL    HW241455   8.858   7.835   9.511 -1.3886 -0.1458 -1.4196
 9911SOL     OW41456   4.553   2.703   6.249  0.2680  0.1018  0.0344
 9911SOL    HW141457   4.608   2.660   6.183  1.7374  0.1263  1.2067
 9911SOL    HW241458   4.486   2.748   6.198  1.5269  0.3468 -1.4773
 9912SOL     OW41459   8.634   4.271   6.842 -0.3716 -0.3126  0.8249
 9912SOL    HW141460   8.684   4.206   6.795 -1.5868 -0.7274  0.0607
 9912SOL    HW241461   8.617   4.232   6.928 -1.2343 -1.0815  0.3120
 9913SOL     OW41462   8.767   9.273   8.681 -0.2740  0.2620 -0.1482
 9913SOL    HW141463   8.747   9.319   8.763  1.4724 -2.1012  1.7418
 9913SOL    HW241464   8.859   9.293   8.664 -0.5759  0.5968 -1.4841
 9914SOL     OW41465   9.772   3.848   9.702  0.4098 -0.5284  0.3472
 9914SOL    HW141466   9.815   3.844   9.787 -0.3698  0.2303  0.8013
 9914SOL    HW241467   9.686   3.807   9.716  0.8708 -1.8448 -0.4939
 9915SOL     OW41468   5.181   4.887   7.680  0.2741 -0.3007 -0.6407
 9915SOL    HW141469   5.206   4.967   7.634  1.0106 -0.2740 -0.2083
 9915SOL    HW241470   5.263   4.851   7.712 -0.2978  1.3097  3.3436
 9916SOL     OW41471   3.689  11.714   5.835 -0.1653 -0.1319  0.4489
 9916SOL    HW141472   3.615  11.653   5.836  0.7260 -1.2706 -0.4798
 9916SOL    HW241473   3.764  11.660   5.811  0.8446  1.1488  0.6270
 9917SOL     OW41474  10.936   3.647   4.300  0.5059  0.0904  0.2402
 9917SOL    HW141475  10.912   3.557   4.277  0.2837  0.2458 -0.1485
 9917SOL    HW241476  10.921   3.697   4.219  0.7218  0.4581  0.4259
 9918SOL     OW41477   3.740  10.450   9.056  0.3970  0.0351  0.3910
 9918SOL    HW141478   3.734  10.465   8.962 -0.7777  0.1392  0.4704
 9918SOL    HW241479   3.829  10.477   9.079 -0.5207  3.8737 -0.0272
 9919SOL     OW41480   4.084   3.862   8.212 -0.3556 -0.3154  0.1276
 9919SOL    HW141481   4.000   3.830   8.246 -1.1540 -1.1864 -2.4280
 9919SOL    HW241482   4.062   3.945   8.170  0.4522  0.3490  0.9622
 9920SOL     OW41483   6.414   8.495  11.947  0.5088 -0.5378  0.4799
 9920SOL    HW141484   6.395   8.557  12.017  1.6823  2.7730 -1.8698
 9920SOL    HW241485   6.508   8.503  11.932  0.4396 -1.8132 -0.8641
 9921SOL     OW41486   6.768  10.399   6.600 -0.0346  0.1504 -0.1322
 9921SOL    HW141487   6.817  10.318   6.586 -0.8934 -0.5702  0.9168
 9921SOL    HW241488   6.679  10.378   6.573  0.2406  1.5673 -2.3983
 9922SOL     OW41489   7.281   7.605   0.596 -0.3597  0.0995  0.2245
 9922SOL    HW141490   7.279   7.550   0.675 -1.8859 -1.1110 -0.6102
 9922SOL    HW241491   7.283   7.543   0.523  0.3000  1.1971 -0.7249
 9923SOL     OW41492   2.638   0.910   4.963 -0.0264  0.0930  0.2528
 9923SOL    HW141493   2.726   0.942   4.984 -0.0036 -0.0609  0.3963
 9923SOL    HW241494   2.641   0.817   4.986 -0.6459  0.3792  1.5436
 9924SOL     OW41495   8.996   0.632   1.327 -0.2161 -0.0865 -0.5125
 9924SOL    HW141496   9.083   0.670   1.338 -0.9938  0.9945  3.5448
 9924SOL    HW241497   8.946   0.700   1.282  0.0539  1.0793  0.8709
 9925SOL     OW41498  10.662   0.465   3.413 -0.5597  0.0458  0.4250
 9925SOL    HW141499  10.654   0.558   3.432  1.4212  0.5147 -0.7922
 9925SOL    HW241500  10.595   0.448   3.347 -1.1826  0.5019  0.9338
 9926SOL     OW41501   2.742  10.376   3.643 -0.3652 -0.3773 -0.0216
 9926SOL    HW141502   2.736  10.452   3.701  0.8163  1.7881 -2.5097
 9926SOL    HW241503   2.817  10.327   3.677  0.2355  0.7808  0.4163
 9927SOL     OW41504   6.980  11.701   7.696 -0.4714 -0.2698  0.1746
 9927SOL    HW141505   7.066  11.701   7.738 -1.0032 -0.9967  1.3078
 9927SOL    HW241506   6.976  11.618   7.648 -0.0879  0.3061 -0.8972
 9928SOL     OW41507   9.050   8.893   5.829  0.5649 -0.5531 -0.5510
 9928SOL    HW141508   8.955   8.886   5.837  0.5566  0.4457  0.2700
 9928SOL    HW241509   9.081   8.802   5.834 -0.2255 -0.7653  0.7766
 9929SOL     OW41510  11.565   8.868   7.208  0.0299 -0.0006  0.6502
 9929SOL    HW141511  11.576   8.857   7.303  1.6104  0.8972  0.6075
 9929SOL    HW241512  11.637   8.819   7.170  0.1978  0.7422 -0.0209
 9930SOL     OW41513   7.849   9.201   2.437  0.3589  0.6159  0.2038
 9930SOL    HW141514   7.862   9.248   2.519  0.3795  0.9224  0.0245
 9930SOL    HW241515   7.936   9.168   2.415  0.0208 -1.2361  1.3621
 9931SOL     OW41516  11.816   1.904   4.954  0.1733 -0.2040 -0.1016
 9931SOL    HW141517  11.872   1.958   5.009  0.2851  1.2916 -1.6314
 9931SOL    HW241518  11.862   1.820   4.947  0.6636 -0.0644  1.1661
 9932SOL     OW41519   6.430   4.936   1.688 -0.0135  0.3058  1.2004
 9932SOL    HW141520   6.477   4.913   1.768  0.5671 -0.2278  0.7194
 9932SOL    HW241521   6.485   5.002   1.645  0.6266 -0.7388  0.3500
 9933SOL     OW41522   4.233  10.906   8.245 -0.3234  0.7526 -0.3537
 9933SOL    HW141523   4.188  10.956   8.177 -0.0211  1.6524  0.0807
 9933SOL    HW241524   4.295  10.851   8.198 -0.8112  0.6246 -0.8581
 9934SOL     OW41525   3.833   2.490   5.721 -0.8258 -0.3425  0.1360
 9934SOL    HW141526   3.822   2.470   5.628 -0.2642 -1.8708  0.3649
 9934SOL    HW241527   3.860   2.407   5.760 -0.3994  0.4311  1.5561
 9935SOL     OW41528   2.686  10.005   5.807  0.9793 -0.3374 -0.8495
 9935SOL    HW141529   2.773   9.965   5.809  1.5925  0.8897 -1.2284
 9935SOL    HW241530   2.704  10.099   5.810 -0.3596 -0.0748 -0.6021
 9936SOL     OW41531   1.258   1.592   2.813  0.1537  0.0111  0.1180
 9936SOL    HW141532   1.338   1.549   2.845  0.8982 -1.3429 -3.1317
 9936SOL    HW241533   1.187   1.534   2.840  0.7898 -1.3296 -0.9891
 9937SOL     OW41534   1.098   9.413   7.857  0.3551  0.5582 -0.1880
 9937SOL    HW141535   1.040   9.427   7.932  3.2442  0.0428  2.3473
 9937SOL    HW241536   1.165   9.481   7.865  2.3996 -1.2968 -0.4859
 9938SOL     OW41537   5.474   6.753   6.856  0.2755  0.1254  0.3040
 9938SOL    HW141538   5.432   6.799   6.784 -1.2635  1.7835  2.1504
 9938SOL    HW241539   5.545   6.811   6.884  1.9843 -1.2886 -0.8685
 9939SOL     OW41540   5.100   9.551   5.223  0.2922 -0.6833  0.1428
 9939SOL    HW141541   5.123   9.486   5.289 -1.4693 -0.6079  0.8780
 9939SOL    HW241542   5.150   9.525   5.145  0.5993 -2.1591  0.8006
 9940SOL     OW41543   6.721   4.404   6.742  0.3691 -0.5105  0.4178
 9940SOL    HW141544   6.674   4.342   6.686  0.2604 -0.8728  0.9100
 9940SOL    HW241545   6.716   4.487   6.694  0.2719 -0.8127 -0.1090
 9941SOL     OW41546   8.528   0.870   4.327 -0.7364  0.2795  0.0358
 9941SOL    HW141547   8.445   0.856   4.372 -0.6975  1.2802  0.4433
 9941SOL    HW241548   8.540   0.792   4.273 -1.8852  0.0786  0.0555
 9942SOL     OW41549   3.015   5.130   6.929 -0.3745  0.5113 -0.3277
 9942SOL    HW141550   3.058   5.204   6.886 -1.9284  1.1183 -0.9304
 9942SOL    HW241551   2.953   5.097   6.863 -0.0892 -0.9926  0.1244
 9943SOL     OW41552   7.779   5.581   9.185 -0.1464  0.2191 -0.7364
 9943SOL    HW141553   7.737   5.558   9.268  0.2629  1.4816 -0.1345
 9943SOL    HW241554   7.733   5.530   9.119  0.5220 -2.0156  0.4194
 9944SOL     OW41555   9.894   5.185   4.335  0.2385  0.2956  0.0829
 9944SOL    HW141556   9.943   5.230   4.266  0.3229 -1.4683 -1.0734
 9944SOL    HW241557   9.961   5.154   4.396  0.5307 -1.2012 -0.9439
 9945SOL     OW41558   1.845   4.294   7.045  0.0170  0.2164  0.0128
 9945SOL    HW141559   1.872   4.386   7.038 -0.5000  0.3366 -0.4738
 9945SOL    HW241560   1.750   4.298   7.050 -0.0752 -0.3491 -1.1145
 9946SOL     OW41561   2.055   9.653   3.618 -0.0161  0.4640  0.7848
 9946SOL    HW141562   2.074   9.637   3.526 -1.3599 -0.0512  0.5761
 9946SOL    HW241563   2.045   9.748   3.625 -2.9511  0.3390 -0.2783
 9947SOL     OW41564   1.912   5.851   2.523  0.3168 -0.0218 -0.3513
 9947SOL    HW141565   1.995   5.804   2.513  1.2836  1.6608 -0.6194
 9947SOL    HW241566   1.904   5.866   2.618 -0.4704 -1.5122 -0.1665
 9948SOL     OW41567   8.207   1.083   4.197  0.0056 -0.0506 -0.0617
 9948SOL    HW141568   8.128   1.076   4.250  0.7859  0.5863  1.2477
 9948SOL    HW241569   8.265   1.140   4.248  0.6886  0.8389 -1.7422
 9949SOL     OW41570   5.006   0.853  10.161  0.3584 -0.2252  0.3246
 9949SOL    HW141571   5.094   0.818  10.150 -0.4988 -2.6314  0.5683
 9949SOL    HW241572   4.952   0.777  10.182 -1.9009  1.0916 -0.3427
 9950SOL     OW41573   4.462   3.699   7.124 -0.4922 -0.4642 -0.1933
 9950SOL    HW141574   4.521   3.671   7.055 -1.0303  1.3381 -1.4879
 9950SOL    HW241575   4.374   3.690   7.085 -0.7535  1.4803 -0.1900
 9951SOL     OW41576   7.807   8.978   6.661  0.1288 -0.4348  0.2815
 9951SOL    HW141577   7.749   8.903   6.654 -2.4592  1.3913  0.5873
 9951SOL    HW241578   7.851   8.983   6.576 -1.6120 -0.8223 -0.6824
 9952SOL     OW41579   5.853   8.542   9.421  0.0234  0.8718  0.9325
 9952SOL    HW141580   5.835   8.576   9.333 -0.3143 -1.6978 -0.0590
 9952SOL    HW241581   5.932   8.489   9.412 -0.9338 -0.7851  1.7657
 9953SOL     OW41582   1.805  11.949   7.333 -0.7809 -0.0569 -0.1238
 9953SOL    HW141583   1.745  11.942   7.407 -0.3870  0.3817  0.2445
 9953SOL    HW241584   1.892  11.935   7.372 -0.5512  0.4093 -0.4604
 9954SOL     OW41585  11.407   6.415   4.882  0.1892 -0.0254 -0.3315
 9954SOL    HW141586  11.400   6.436   4.789  1.0924  0.2296 -0.3531
 9954SOL    HW241587  11.496   6.382   4.892  0.1214  0.0226  0.4612
 9955SOL     OW41588   5.759   7.385   8.091 -0.1977  0.4620 -0.3156
 9955SOL    HW141589   5.836   7.418   8.137  0.6577  0.1402 -1.4645
 9955SOL    HW241590   5.742   7.299   8.129 -1.6989  1.6437  1.8541
 9956SOL     OW41591   9.754   2.028   9.757  0.6945  1.0980  0.2034
 9956SOL    HW141592   9.822   2.064   9.700  0.9736  0.3242  0.0317
 9956SOL    HW241593   9.790   2.035   9.846  1.4240 -0.1869  0.0306
 9957SOL     OW41594   6.158   4.558  10.430 -0.4197 -0.0819 -0.3896
 9957SOL    HW141595   6.191   4.487  10.375  0.2705  1.4704 -2.0704
 9957SOL    HW241596   6.202   4.636  10.398 -1.9063  1.2900  0.7246
 9958SOL     OW41597   3.686   2.222  11.354  0.0670  0.2780  0.3340
 9958SOL    HW141598   3.653   2.163  11.286 -0.4041 -0.2129  0.9817
 9958SOL    HW241599   3.617   2.287  11.366  0.8188  1.3204 -0.7785
 9959SOL     OW41600  11.686   1.263   0.645 -0.0982 -0.1708 -0.2902
 9959SOL    HW141601  11.646   1.278   0.559 -1.3301 -1.7881 -0.0559
 9959SOL    HW241602  11.618   1.218   0.696  0.3994  1.2279  1.7345
 9960SOL     OW41603   1.563   1.228  11.582 -0.1990  0.2619  0.0015
 9960SOL    HW141604   1.481   1.236  11.631 -0.8630 -1.8027 -0.6846
 9960SOL    HW241605   1.554   1.289  11.509 -0.2243  1.5531  1.0403
 9961SOL     OW41606   9.481   3.893  10.881  0.0827 -0.3959  0.0145
 9961SOL    HW141607   9.559   3.928  10.839 -0.0036  0.4177  0.5184
 9961SOL    HW241608   9.414   3.894  10.813  0.8404 -2.4657 -0.8643
 9962SOL     OW41609   4.367   9.270   5.994 -0.3537  0.4092 -0.1148
 9962SOL    HW141610   4.362   9.284   6.089  0.7316  0.7269 -0.0853
 9962SOL    HW241611   4.453   9.229   5.981 -0.9681 -0.6939 -0.8493
 9963SOL     OW41612   9.235  10.457   5.234  0.1596 -0.4832  0.1271
 9963SOL    HW141613   9.206  10.378   5.279 -1.4249  1.0615  2.0081
 9963SOL    HW241614   9.179  10.461   5.156 -1.6963  0.1462  1.4343
 9964SOL     OW41615   4.079   2.374   3.855 -0.2544  0.2528  0.9043
 9964SOL    HW141616   4.122   2.289   3.847 -0.2189  0.1468  2.1121
 9964SOL    HW241617   4.017   2.377   3.782 -0.5916 -1.0141  1.1279
 9965SOL     OW41618   7.286   9.960   6.445 -0.6056  0.0248 -0.1325
 9965SOL    HW141619   7.295   9.888   6.382  0.7206  1.1423 -1.2598
 9965SOL    HW241620   7.200   9.945   6.485 -0.3707 -2.1923 -0.3032
 9966SOL     OW41621   5.884   6.942   8.171  0.3561 -0.2376  0.5291
 9966SOL    HW141622   5.881   6.847   8.176  0.2948 -0.3542 -1.2533
 9966SOL    HW241623   5.975   6.963   8.150  0.0649 -0.0100 -0.5660
 9967SOL     OW41624   5.332   4.291   2.432  0.4824  0.9083  0.0944
 9967SOL    HW141625   5.352   4.201   2.407 -0.7120  0.3897  0.8942
 9967SOL    HW241626   5.405   4.318   2.487  0.0592 -0.1979  1.2529
 9968SOL     OW41627   0.231   2.887   2.067  0.7035  0.5897  0.5991
 9968SOL    HW141628   0.232   2.939   1.986  0.2427 -0.1401  0.1200
 9968SOL    HW241629   0.147   2.908   2.108 -0.1340 -0.8850 -0.3294
 9969SOL     OW41630   5.835   5.143  10.793 -0.2344 -0.0847 -0.0835
 9969SOL    HW141631   5.890   5.219  10.774 -0.7927  0.4523  0.3988
 9969SOL    HW241632   5.891   5.087  10.848 -0.2391  0.5720  0.6092
 9970SOL     OW41633   7.763   3.714   9.410 -0.0744  0.2563  0.0304
 9970SOL    HW141634   7.780   3.790   9.465 -0.8740  0.7079 -0.3179
 9970SOL    HW241635   7.824   3.647   9.441  0.4385  0.9440  0.5363
 9971SOL     OW41636   6.955   5.043   6.654  0.6588  0.2652 -0.4323
 9971SOL    HW141637   6.974   5.092   6.574  0.3616  1.3192  0.1217
 9971SOL    HW241638   6.860   5.049   6.664  0.5990 -0.5473 -0.4152
 9972SOL     OW41639  10.341  10.113   8.040  0.1174  0.0583 -0.2163
 9972SOL    HW141640  10.362  10.194   7.994 -2.1070  1.3821  0.9466
 9972SOL    HW241641  10.369  10.044   7.980  3.5257  1.5459 -0.6147
 9973SOL     OW41642   0.737  10.431  10.890  0.0557  0.0758 -0.1744
 9973SOL    HW141643   0.796  10.506  10.896  0.6527 -0.4648  1.4820
 9973SOL    HW241644   0.788  10.358  10.926 -1.7614 -0.3092  1.8885
 9974SOL     OW41645   5.122   6.685   4.827 -0.3403  0.2318  0.0845
 9974SOL    HW141646   5.119   6.604   4.878 -1.0157  1.5155  2.2144
 9974SOL    HW241647   5.067   6.666   4.750  0.0588 -1.5220  0.1848
 9975SOL     OW41648   0.457   2.606   0.401 -0.6180  0.2854  0.1630
 9975SOL    HW141649   0.549   2.605   0.375  0.0628 -1.5895  2.3119
 9975SOL    HW241650   0.413   2.654   0.331  1.6749 -0.4108 -1.9142
 9976SOL     OW41651  10.803  11.311   6.372 -0.1882 -0.2929  0.2146
 9976SOL    HW141652  10.874  11.248   6.359 -0.9934 -1.2137  0.1394
 9976SOL    HW241653  10.847  11.396   6.377  0.9086 -0.8338  0.1254
 9977SOL     OW41654  11.328   2.170   4.260  0.1356  0.3198  0.6051
 9977SOL    HW141655  11.299   2.141   4.347 -2.6462  1.8029  0.2820
 9977SOL    HW241656  11.386   2.244   4.277  0.0987  0.2105  1.2136
 9978SOL     OW41657   9.681   9.457  10.023 -0.3286 -0.1368  0.0738
 9978SOL    HW141658   9.648   9.447   9.933 -0.8969 -1.5808  0.4037
 9978SOL    HW241659   9.770   9.491  10.012 -0.6204  0.3328 -1.0017
 9979SOL     OW41660   0.406   7.136  10.695  0.5143  0.2999 -0.2351
 9979SOL    HW141661   0.329   7.179  10.731  0.0497 -1.7156  1.4164
 9979SOL    HW241662   0.473   7.146  10.763  0.7045 -0.6418 -0.2701
 9980SOL     OW41663  10.766   2.270   4.156 -0.0622  0.5264  0.0941
 9980SOL    HW141664  10.737   2.208   4.090 -0.9597  1.1221 -0.0993
 9980SOL    HW241665  10.857   2.247   4.173 -0.5214 -1.1479  0.4037
 9981SOL     OW41666   4.060   7.437   8.118  0.4877  0.2892 -0.3512
 9981SOL    HW141667   4.143   7.451   8.163  0.9194  0.0112 -1.0390
 9981SOL    HW241668   4.015   7.522   8.125 -0.0020 -0.0931  1.6348
 9982SOL     OW41669   5.528   5.274   8.633  0.6192 -0.2996  0.3045
 9982SOL    HW141670   5.522   5.179   8.623 -1.2853 -0.0816 -1.1291
 9982SOL    HW241671   5.531   5.307   8.544 -2.1895  1.1120  0.6529
 9983SOL     OW41672   5.847   6.517   0.234  0.5092 -0.2698 -0.0167
 9983SOL    HW141673   5.800   6.488   0.156  0.2044 -2.0951  0.7914
 9983SOL    HW241674   5.863   6.610   0.219 -1.3522 -0.1000 -1.3267
 9984SOL     OW41675   8.703   7.544  11.288 -0.9511 -0.2748 -0.4914
 9984SOL    HW141676   8.608   7.558  11.286 -0.8656  0.2680 -0.8819
 9984SOL    HW241677   8.732   7.567  11.200 -0.3023  0.6937 -0.0384
 9985SOL     OW41678   3.089   4.459   5.014  0.3369 -0.2044  0.3356
 9985SOL    HW141679   3.056   4.400   4.948 -0.9962  0.3238  0.5049
 9985SOL    HW241680   3.059   4.422   5.097  1.0953 -0.2971  0.5742
 9986SOL     OW41681   5.645   5.315   9.593 -0.0781 -0.1725  0.2903
 9986SOL    HW141682   5.604   5.309   9.680 -1.2754  2.9360  0.0677
 9986SOL    HW241683   5.572   5.315   9.532  0.5650  0.3364 -0.4975
 9987SOL     OW41684   5.460  10.072  10.808 -0.3046  0.0984  0.1649
 9987SOL    HW141685   5.493  10.090  10.720  0.4439  1.1337  0.6410
 9987SOL    HW241686   5.376  10.029  10.794 -1.0493  1.8638 -1.0519
 9988SOL     OW41687   6.340   3.627   8.833 -0.1896  0.4246  0.5354
 9988SOL    HW141688   6.280   3.600   8.764 -0.9736 -1.0603  1.7333
 9988SOL    HW241689   6.292   3.612   8.914  0.7897  1.8802  1.4321
 9989SOL     OW41690   0.606   0.115  10.780  0.2422 -0.0241  0.1895
 9989SOL    HW141691   0.689   0.074  10.803 -0.1570  0.1002  2.0126
 9989SOL    HW241692   0.597   0.187  10.844 -1.3581 -0.1757  0.1646
 9990SOL     OW41693   6.664   2.729   7.132 -0.0799  0.1061  0.5436
 9990SOL    HW141694   6.646   2.822   7.126  0.3726  0.1616  0.0259
 9990SOL    HW241695   6.584   2.691   7.170  0.2195  0.8740  2.0174
 9991SOL     OW41696   1.145   4.903   1.002 -0.4367  0.1727  0.4018
 9991SOL    HW141697   1.178   4.897   0.912 -0.0418 -0.3333  0.5750
 9991SOL    HW241698   1.220   4.934   1.053 -0.3801 -0.4481  0.7068
 9992SOL     OW41699  11.393   1.104   9.098  0.0996  0.4236 -0.3426
 9992SOL    HW141700  11.416   1.087   9.189  0.7175  1.8363 -0.2034
 9992SOL    HW241701  11.415   1.196   9.085  1.5337 -0.1392 -2.3941
 9993SOL     OW41702  11.414   7.662   8.142 -0.2574 -0.5958  0.0725
 9993SOL    HW141703  11.370   7.747   8.142  0.3392 -0.2852 -0.0233
 9993SOL    HW241704  11.463   7.660   8.060  0.7333 -0.4994  0.6446
 9994SOL     OW41705   9.460   6.942   6.188  0.2476 -0.2806  0.5710
 9994SOL    HW141706   9.517   6.871   6.157  0.2078  0.0076 -0.1876
 9994SOL    HW241707   9.387   6.897   6.231 -0.0907 -0.7286 -0.4431
 9995SOL     OW41708   0.674   0.067   3.794  0.2340  0.0985  0.5805
 9995SOL    HW141709   0.747   0.015   3.758 -0.2497 -0.6245  0.6333
 9995SOL    HW241710   0.709   0.156   3.797  0.1809  0.3043 -2.0864
 9996SOL     OW41711   1.110  11.694   7.386  0.2813  0.4132  0.0872
 9996SOL    HW141712   1.082  11.604   7.373 -0.0737  0.5738 -0.2864
 9996SOL    HW241713   1.069  11.743   7.315  1.6883  0.6310 -0.6152
 9997SOL     OW41714   7.119   2.263   7.623 -0.1078  0.0334  0.1285
 9997SOL    HW141715   7.096   2.345   7.579 -0.6209 -0.4226 -0.4791
 9997SOL    HW241716   7.035   2.229   7.655 -0.0806 -0.8736 -0.7322
 9998SOL     OW41717   0.451  11.110   7.054  0.1465  0.0954  0.2118
 9998SOL    HW141718   0.537  11.147   7.037  0.1854  0.3418  0.8906
 9998SOL    HW241719   0.423  11.151   7.136 -0.0388 -0.9716  0.7035
 9999SOL     OW41720   7.103   2.580   1.664 -0.2363  0.3899  0.5397
 9999SOL    HW141721   7.186   2.608   1.624 -0.7118  0.0901 -0.7232
 9999SOL    HW241722   7.067   2.660   1.703 -0.3649  1.0356 -0.8120
10000SOL     OW41723   7.516   8.013   0.662  0.6674 -1.0095  0.2398
10000SOL    HW141724   7.435   7.965   0.644  0.1671  0.1536 -0.7184
10000SOL    HW241725   7.535   8.060   0.581  1.9816 -0.7869  0.6533
10001SOL     OW41726   6.184   8.296   0.394  0.1677 -0.4207 -0.3741
10001SOL    HW141727   6.092   8.272   0.398  0.1127 -0.1594  0.0422
10001SOL    HW241728   6.186   8.388   0.419  0.6191 -0.6285  0.4016
10002SOL     OW41729   4.024   6.967  10.792 -0.2913  0.0125 -0.4833
10002SOL    HW141730   4.008   6.998  10.881 -0.2619 -0.3767 -0.3400
10002SOL    HW241731   3.971   7.025  10.737  0.5813  0.9983 -0.3186
10003SOL     OW41732   3.484   8.567   1.891 -0.7184  0.0317 -0.7143
10003SOL    HW141733   3.543   8.620   1.838 -0.9764 -0.0359 -1.0706
10003SOL    HW241734   3.397   8.582   1.854 -0.6768 -1.4178 -1.4794
10004SOL     OW41735   4.440  10.949  11.692  0.0570  0.0572  0.1634
10004SOL    HW141736   4.387  10.898  11.753 -1.1036  0.3806 -0.5422
10004SOL    HW241737   4.465  11.027  11.742 -0.7669  0.2525  0.2954
10005SOL     OW41738   3.354   1.194   5.950  0.3915 -0.5304 -0.1441
10005SOL    HW141739   3.427   1.134   5.964  1.6113  1.2335  1.5529
10005SOL    HW241740   3.275   1.141   5.963  1.4191 -1.8196  1.0647
10006SOL     OW41741   5.248   2.492   2.994  0.2520 -0.2497 -0.4655
10006SOL    HW141742   5.220   2.422   3.053  3.0953 -0.8162  0.3876
10006SOL    HW241743   5.226   2.460   2.907 -2.0580 -0.3768  0.1063
10007SOL     OW41744   6.517   8.143   9.122  0.2218 -0.2025  0.1584
10007SOL    HW141745   6.605   8.134   9.086  0.3573  0.9227  0.1826
10007SOL    HW241746   6.459   8.111   9.053  0.6358 -0.9223  0.1320
10008SOL     OW41747   4.299   8.120   9.938 -0.0931  0.1016 -0.5806
10008SOL    HW141748   4.208   8.120   9.967 -0.1862  2.3792 -0.6845
10008SOL    HW241749   4.346   8.165  10.007  0.8679 -0.4682 -0.8425
10009SOL     OW41750   7.075   7.643   7.058  0.2995  0.3238  0.0286
10009SOL    HW141751   7.142   7.681   7.115  0.5900 -0.9381  0.5424
10009SOL    HW241752   7.124   7.611   6.982  0.1452  0.2813 -0.0531
10010SOL     OW41753   3.106   1.659   7.224 -0.4833 -0.2728 -0.3961
10010SOL    HW141754   3.097   1.703   7.309 -0.6824 -1.3105  0.1316
10010SOL    HW241755   3.111   1.731   7.161  0.0909  0.5297  0.5245
10011SOL     OW41756   5.483  10.138   3.023 -0.2776  0.5441  0.1341
10011SOL    HW141757   5.392  10.111   3.010 -0.6364  0.7190  2.0143
10011SOL    HW241758   5.495  10.139   3.118  1.1757  2.2472 -0.0047
10012SOL     OW41759   1.985   0.316   3.977 -0.4787  0.0314  0.0016
10012SOL    HW141760   2.057   0.366   3.939 -0.6081 -0.0470 -0.3467
10012SOL    HW241761   1.910   0.336   3.922 -0.6401 -0.1790  0.1436
10013SOL     OW41762   5.967   7.317   7.929  0.1437 -0.5183  0.5637
10013SOL    HW141763   6.012   7.350   8.007 -0.1864  0.3914  0.3862
10013SOL    HW241764   5.875   7.340   7.944  0.0062 -0.7794  0.1249
10014SOL     OW41765   0.377   3.584   3.495  0.3278 -0.2696 -0.4592
10014SOL    HW141766   0.329   3.664   3.475  0.1257 -0.2279  0.1740
10014SOL    HW241767   0.452   3.613   3.546  0.5837 -0.4222 -0.7477
10015SOL     OW41768  11.119   0.672   0.441 -0.3079  0.1242 -0.8675
10015SOL    HW141769  11.184   0.640   0.503 -1.6215  2.3973  1.9329
10015SOL    HW241770  11.161   0.747   0.398  0.1087 -0.6050 -1.7801
10016SOL     OW41771   1.800   3.773   8.474  0.0175  0.7846 -0.2130
10016SOL    HW141772   1.787   3.830   8.399 -1.3009 -1.2734 -1.6403
10016SOL    HW241773   1.809   3.686   8.437  1.5402 -0.0487  1.9088
10017SOL     OW41774   0.334   5.804   7.813  0.0878  0.0804  0.0862
10017SOL    HW141775   0.367   5.866   7.748  0.0689 -0.6567 -0.6503
10017SOL    HW241776   0.282   5.741   7.762  0.5473 -0.8479  0.7181
10018SOL     OW41777  10.486   5.874  11.400  0.3240 -0.4540  1.1761
10018SOL    HW141778  10.499   5.969  11.388 -2.3291 -0.0952  0.5244
10018SOL    HW241779  10.411   5.868  11.460 -0.1439 -2.1156  0.4643
10019SOL     OW41780  10.311   2.826   3.493  0.2289  0.3219  0.0141
10019SOL    HW141781  10.241   2.786   3.442  0.2477  0.7941 -0.3983
10019SOL    HW241782  10.286   2.812   3.584  1.0956 -2.1246 -0.0482
10020SOL     OW41783   3.514  11.643  10.796 -0.0146  0.0464 -0.2963
10020SOL    HW141784   3.516  11.725  10.747 -0.3731  1.1951  1.5334
10020SOL    HW241785   3.572  11.584  10.746  1.1032  1.7221 -1.0749
10021SOL     OW41786   8.742   5.243   0.067  0.6678  0.3458 -0.3669
10021SOL    HW141787   8.757   5.224  -0.025  2.7325 -0.7106  0.1223
10021SOL    HW241788   8.648   5.261   0.073  0.3382 -0.3714 -2.5178
10022SOL     OW41789   7.691  10.911  10.937  0.2638 -0.3025  0.1521
10022SOL    HW141790   7.690  10.875  10.848 -1.0281 -1.0169  0.4296
10022SOL    HW241791   7.780  10.894  10.968  0.9457  0.5628 -1.2234
10023SOL     OW41792   0.324   6.355  10.965  0.6528  0.2168  0.0779
10023SOL    HW141793   0.229   6.347  10.976  0.8237 -1.5967  0.4740
10023SOL    HW241794   0.347   6.287  10.903  1.6984  0.7401 -0.1284
10024SOL     OW41795   2.132   8.798   8.648 -0.2989  0.4012  0.6468
10024SOL    HW141796   2.209   8.835   8.605 -0.6414  1.0780  0.5935
10024SOL    HW241797   2.155   8.797   8.741  0.2144 -0.5013  0.5185
10025SOL     OW41798   1.769   5.470  11.287 -0.6160 -0.0312  0.1538
10025SOL    HW141799   1.806   5.388  11.320 -0.2699 -1.0715 -2.6163
10025SOL    HW241800   1.689   5.444  11.241  0.1955  0.9559 -1.9246
10026SOL     OW41801   4.350   8.927   8.137  0.1149 -0.1674  0.1428
10026SOL    HW141802   4.373   8.923   8.230  0.4217  1.0745  0.1392
10026SOL    HW241803   4.282   8.995   8.132 -0.7256 -1.0237 -0.3953
10027SOL     OW41804   1.387   4.231   7.821  1.0127 -0.1650 -0.1234
10027SOL    HW141805   1.306   4.190   7.791  2.0369 -1.4228 -1.2940
10027SOL    HW241806   1.369   4.325   7.817  0.2207 -0.3422 -2.3132
10028SOL     OW41807   2.039   6.900  10.919  0.6269 -0.4056 -0.0263
10028SOL    HW141808   1.987   6.853  10.854 -1.5122  0.3460  1.0384
10028SOL    HW241809   1.989   6.891  11.001  1.7462  1.0935  0.8780
10029SOL     OW41810   8.432   4.475   7.041 -0.0883  0.5997  0.1172
10029SOL    HW141811   8.381   4.426   6.977  2.4036 -1.2754 -0.6114
10029SOL    HW241812   8.509   4.506   6.993  0.5425  1.4562  1.5951
10030SOL     OW41813   6.050  11.143   6.117 -0.2257  0.3680 -0.1810
10030SOL    HW141814   6.048  11.172   6.026  0.4395  0.8375 -0.0557
10030SOL    HW241815   6.120  11.077   6.120  0.2255  0.8488  0.1204
10031SOL     OW41816   8.389   2.793   3.781  0.0843 -0.2371 -0.5317
10031SOL    HW141817   8.350   2.881   3.773 -1.2042 -0.9016 -2.0579
10031SOL    HW241818   8.482   2.807   3.767 -0.0689  0.9275 -0.5141
10032SOL     OW41819   6.781   3.291   5.889 -0.1776  1.0700  0.0621
10032SOL    HW141820   6.694   3.283   5.849 -0.2268  0.0763  0.3504
10032SOL    HW241821   6.835   3.230   5.839 -0.0962  0.2755  1.1005
10033SOL     OW41822   1.874   8.788   9.223  0.2700  0.4856  0.0004
10033SOL    HW141823   1.828   8.872   9.232  0.7099  0.7002  0.2898
10033SOL    HW241824   1.967   8.812   9.225  0.4002  0.0886 -0.8376
10034SOL     OW41825   9.246  11.187  11.694  0.0814 -0.5805  0.3010
10034SOL    HW141826   9.156  11.216  11.682 -0.0135  0.3394  2.7379
10034SOL    HW241827   9.273  11.155  11.608 -1.9538  0.8269 -0.9192
10035SOL     OW41828   7.105   4.744  10.172 -0.1282 -0.4631  0.3486
10035SOL    HW141829   7.011   4.750  10.157 -0.0572  0.2283  0.1425
10035SOL    HW241830   7.136   4.682  10.106 -0.4065 -0.4895  0.2430
10036SOL     OW41831   6.217   4.741   4.412  0.0563  0.4121 -0.4314
10036SOL    HW141832   6.235   4.704   4.499 -1.8611 -0.1886 -0.2378
10036SOL    HW241833   6.302   4.744   4.369  0.6774 -1.7378  0.5152
10037SOL     OW41834  11.175   8.857   3.499 -0.4509 -0.0150 -0.0278
10037SOL    HW141835  11.207   8.850   3.409  1.7417 -1.9221  0.8113
10037SOL    HW241836  11.216   8.937   3.532 -0.1217 -0.0513 -0.3345
10038SOL     OW41837   8.857   6.406   2.367 -0.4815 -0.7083 -0.6527
10038SOL    HW141838   8.860   6.368   2.279 -1.8355  0.2142 -1.1269
10038SOL    HW241839   8.764   6.407   2.390 -0.4859  1.8424 -0.4739
10039SOL     OW41840   4.261   6.626   0.990 -0.7521 -0.1970 -0.0322
10039SOL    HW141841   4.244   6.698   0.929 -0.3472 -1.3185 -1.5309
10039SOL    HW241842   4.254   6.666   1.077 -1.5050  1.4238 -0.7897
10040SOL     OW41843   3.934   2.616   8.975  0.1314 -0.1159 -0.1152
10040SOL    HW141844   3.976   2.586   8.894 -1.0059 -0.5121 -0.5908
10040SOL    HW241845   3.980   2.696   8.998  0.7158 -0.1913 -0.9691
10041SOL     OW41846   9.710   5.254  10.024 -0.1253 -0.0998 -0.0355
10041SOL    HW141847   9.767   5.245  10.100 -0.9652 -0.2620  0.5822
10041SOL    HW241848   9.650   5.180  10.029 -1.1176  0.6747 -0.0496
10042SOL     OW41849   5.417   9.173   7.372 -0.0973  0.0438 -0.1409
10042SOL    HW141850   5.325   9.148   7.381 -0.0466 -0.3106 -0.5499
10042SOL    HW241851   5.448   9.121   7.298 -0.2625  2.0335 -1.7144
10043SOL     OW41852   1.869   5.412   8.459  0.4822  0.0134 -0.0554
10043SOL    HW141853   1.924   5.340   8.490 -0.6213 -1.3830 -1.1719
10043SOL    HW241854   1.807   5.426   8.531  0.7906 -0.0649  0.2284
10044SOL     OW41855   9.272  11.506   7.278 -0.4816  0.1981  0.2964
10044SOL    HW141856   9.360  11.497   7.242 -0.7886 -0.4537 -0.3166
10044SOL    HW241857   9.220  11.439   7.233 -0.7248 -1.2338  2.5061
10045SOL     OW41858   6.600   9.133   8.895  0.2107  0.7737  0.2193
10045SOL    HW141859   6.624   9.071   8.826  0.4895 -0.6992  1.6008
10045SOL    HW241860   6.680   9.147   8.944 -0.1257  1.3564  0.6171
10046SOL     OW41861   4.274   1.857   2.028  0.3449 -0.1340 -0.5328
10046SOL    HW141862   4.217   1.933   2.020  0.3187 -0.2726 -2.0671
10046SOL    HW241863   4.276   1.836   2.121 -0.4872  1.0991 -0.2312
10047SOL     OW41864   1.272   5.490   9.819 -0.1491 -0.4277  0.3099
10047SOL    HW141865   1.349   5.546   9.811  0.8946 -2.0524 -2.4101
10047SOL    HW241866   1.299   5.422   9.880  1.5811 -2.2531 -2.2640
10048SOL     OW41867   7.546   6.119  10.400 -0.4029  0.3986 -0.4781
10048SOL    HW141868   7.456   6.146  10.418 -1.1287 -2.1505  0.0101
10048SOL    HW241869   7.592   6.136  10.482 -0.7881  0.3247 -0.2424
10049SOL     OW41870   2.925  10.362   1.873 -0.3666  0.4978 -0.4359
10049SOL    HW141871   2.849  10.312   1.845 -0.4618  1.0588 -1.1927
10049SOL    HW241872   2.998  10.327   1.821 -0.0678 -0.1222  0.3721
10050SOL     OW41873   7.602   7.457   3.787 -0.6343 -0.2083  0.0775
10050SOL    HW141874   7.550   7.524   3.832 -3.2011 -1.6475 -0.5372
10050SOL    HW241875   7.546   7.429   3.714  1.1625 -1.6903 -0.8166
10051SOL     OW41876   5.478   9.212   3.335  0.0273  0.4368  0.0939
10051SOL    HW141877   5.540   9.143   3.358 -0.3672  0.6233  1.8758
10051SOL    HW241878   5.423   9.174   3.267 -0.1354 -0.9892  0.9902
10052SOL     OW41879   2.920   9.707   6.854  0.0827  0.1964  0.0433
10052SOL    HW141880   2.971   9.694   6.774  0.2965 -0.0203  0.2134
10052SOL    HW241881   2.854   9.772   6.831  0.5694  0.6351 -0.1223
10053SOL     OW41882   2.360   7.749   4.895  0.2869 -0.1163 -0.3060
10053SOL    HW141883   2.279   7.792   4.921  0.6778  0.8591 -0.6419
10053SOL    HW241884   2.402   7.725   4.977  0.1355  0.3056 -0.0996
10054SOL     OW41885   4.544   3.742   0.227 -0.0691  0.3831 -0.5019
10054SOL    HW141886   4.589   3.695   0.298  0.1290  2.2129  0.6650
10054SOL    HW241887   4.512   3.673   0.169  1.3523 -1.1121  0.3969
10055SOL     OW41888  10.891   9.549   5.218  0.2650  0.3825 -0.1624
10055SOL    HW141889  10.964   9.597   5.258 -1.4599  2.7320  0.3027
10055SOL    HW241890  10.814   9.577   5.266 -1.0394 -1.8320 -0.8329
10056SOL     OW41891   1.312   9.713   1.757  0.4055  0.6388  1.1536
10056SOL    HW141892   1.292   9.807   1.762 -0.7710  0.4707  0.0354
10056SOL    HW241893   1.240   9.676   1.708  0.1604 -1.0921  2.7142
10057SOL     OW41894  10.938   1.497   3.265 -0.2596  0.1312  0.3242
10057SOL    HW141895  10.922   1.572   3.322  0.6412 -0.7954  1.8486
10057SOL    HW241896  11.022   1.516   3.224 -0.4856  0.3717 -0.0477
10058SOL     OW41897  10.417   7.959   8.888 -0.4850  0.1797 -0.5293
10058SOL    HW141898  10.341   7.944   8.833 -0.7193  0.9016 -0.4129
10058SOL    HW241899  10.449   8.045   8.862 -2.1562  1.7868  2.1877
10059SOL     OW41900   5.663   2.045  10.128  0.3674  0.5543 -0.1493
10059SOL    HW141901   5.641   1.953  10.110 -0.4780  1.1533 -2.6258
10059SOL    HW241902   5.578   2.089  10.129  0.8310  1.4570 -0.0172
10060SOL     OW41903  10.854   0.588   0.554  0.5325  0.0096  0.6977
10060SOL    HW141904  10.941   0.619   0.527  0.7464 -1.2804 -0.1887
10060SOL    HW241905  10.797   0.609   0.480  0.2621  0.1399  0.9435
10061SOL     OW41906   3.177   2.251   9.561  0.4705  0.2841 -0.1681
10061SOL    HW141907   3.130   2.175   9.595 -2.4263  1.9690 -0.0115
10061SOL    HW241908   3.173   2.241   9.466 -0.1172  0.2993 -0.1548
10062SOL     OW41909   0.084  11.562   5.349  0.5426  0.2165 -0.2579
10062SOL    HW141910   0.035  11.633   5.391 -1.2585  0.6740 -2.8434
10062SOL    HW241911   0.101  11.500   5.420 -0.2933  1.9156  1.5491
10063SOL     OW41912  10.137  11.230  10.229 -0.2424  0.1533 -0.2434
10063SOL    HW141913  10.126  11.216  10.135 -1.0577  2.6850 -0.5948
10063SOL    HW241914  10.048  11.237  10.263  0.0154 -1.5586  0.9147
10064SOL     OW41915   7.782   7.144   9.389  0.5438 -0.3558 -0.3080
10064SOL    HW141916   7.763   7.053   9.366  1.6600 -0.8683  0.6626
10064SOL    HW241917   7.840   7.138   9.466  1.1407  1.1587 -0.5912
10065SOL     OW41918   3.117   4.055   9.122 -0.0316  0.2465  0.0013
10065SOL    HW141919   3.033   4.031   9.081  0.2634  0.4339 -0.7302
10065SOL    HW241920   3.106   4.148   9.145 -0.5762 -0.1254  1.3278
10066SOL     OW41921   1.441   4.343   1.702  0.2581  0.1963 -0.3501
10066SOL    HW141922   1.484   4.275   1.651 -0.1258 -0.1483 -0.2211
10066SOL    HW241923   1.500   4.360   1.775  0.0821 -0.4274 -0.0569
10067SOL     OW41924   8.982   1.757   9.836 -0.0257 -1.1696 -0.2348
10067SOL    HW141925   8.902   1.787   9.794  1.1567  1.1641 -0.9962
10067SOL    HW241926   8.964   1.766   9.930 -0.9402 -1.6012 -0.3512
10068SOL     OW41927  10.681   2.632   5.940  0.0191  0.0938 -0.1537
10068SOL    HW141928  10.623   2.666   6.008  1.3659  1.4745  0.3629
10068SOL    HW241929  10.704   2.544   5.970  0.3928  0.5911  1.0788
10069SOL     OW41930  10.452   4.517   4.301  0.5226 -0.5094 -0.3668
10069SOL    HW141931  10.463   4.573   4.378 -0.1265  0.3313 -0.8736
10069SOL    HW241932  10.505   4.439   4.321  2.0883  0.6074  0.0227
10070SOL     OW41933   6.071   2.400   3.272 -0.3598  0.0069 -0.1463
10070SOL    HW141934   6.102   2.396   3.362 -0.1348 -0.3655 -0.2346
10070SOL    HW241935   6.021   2.319   3.261 -0.7554  0.2630 -0.2229
10071SOL     OW41936   8.412   5.357   2.568  0.1779  0.0847  0.2886
10071SOL    HW141937   8.486   5.359   2.508 -0.1644  1.4646 -0.1379
10071SOL    HW241938   8.346   5.413   2.527  0.7069  2.8996  2.8344
10072SOL     OW41939   6.886  11.528  11.917 -0.3990  0.2296  0.1448
10072SOL    HW141940   6.850  11.564  11.836 -1.3150  0.4340  0.6358
10072SOL    HW241941   6.856  11.587  11.986  0.8004  0.3546  0.5917
10073SOL     OW41942   2.047   7.606   4.125 -0.6009  0.3041  0.2451
10073SOL    HW141943   1.970   7.583   4.074  0.9991 -2.2787 -1.2594
10073SOL    HW241944   2.089   7.522   4.145  2.7647  1.6043 -0.6075
10074SOL     OW41945   9.715  10.048   9.680 -0.3549 -0.1754  0.3539
10074SOL    HW141946   9.702   9.975   9.741 -1.6079 -0.3718 -0.1230
10074SOL    HW241947   9.628  10.086   9.669  0.3101  1.6131  0.8367
10075SOL     OW41948   4.958  10.374   4.104 -0.2982 -0.2491  0.1801
10075SOL    HW141949   4.965  10.459   4.147 -2.1325  0.9592 -1.6858
10075SOL    HW241950   4.880  10.334   4.142  0.7312 -1.2751  1.2703
10076SOL     OW41951   7.258   0.534   5.947 -0.2650  0.7188  0.5064
10076SOL    HW141952   7.285   0.596   5.879  0.8219 -0.6660 -0.3753
10076SOL    HW241953   7.312   0.457   5.932 -2.5506 -1.0242  0.6563
10077SOL     OW41954   2.400   2.706  10.481  1.0262 -0.2457 -0.3339
10077SOL    HW141955   2.345   2.653  10.538  1.2052  1.5689  1.6256
10077SOL    HW241956   2.481   2.655  10.471  0.7640 -0.8589  0.5411
10078SOL     OW41957   9.083  11.053   3.738  0.2324  0.5303 -0.3369
10078SOL    HW141958   9.109  11.137   3.777 -0.1184  0.6245 -0.3092
10078SOL    HW241959   9.147  10.990   3.772  2.0387  1.1923 -2.2472
10079SOL     OW41960   4.005   8.306   6.154 -0.0664 -0.1446  0.3160
10079SOL    HW141961   3.993   8.232   6.214 -0.9346 -0.4942 -0.2712
10079SOL    HW241962   4.025   8.264   6.070 -0.5160  0.2936 -0.0077
10080SOL     OW41963   2.822  10.653   2.269  0.2429 -0.2498 -0.2505
10080SOL    HW141964   2.856  10.740   2.249  0.5123 -0.2042  0.3589
10080SOL    HW241965   2.882  10.593   2.224  0.3576 -0.1276 -0.2619
10081SOL     OW41966   3.436   7.627   1.679  0.1987 -0.3739  0.2180
10081SOL    HW141967   3.445   7.596   1.589 -0.2588  0.7475 -0.2370
10081SOL    HW241968   3.423   7.548   1.731  0.3048 -1.0240 -0.7178
10082SOL     OW41969   9.312   2.419  11.334 -0.4411  0.4004  0.4456
10082SOL    HW141970   9.292   2.336  11.378 -1.6890 -0.5065 -1.6975
10082SOL    HW241971   9.229   2.466  11.332 -0.0676  1.0746  0.3317
10083SOL     OW41972   8.571  11.755   0.643 -0.6406  0.0470 -0.4618
10083SOL    HW141973   8.575  11.842   0.682 -0.5284  0.3192 -1.0592
10083SOL    HW241974   8.640  11.705   0.686 -1.0088  0.1083  0.2157
10084SOL     OW41975   5.102   6.181   6.321  0.0077  0.2048 -0.2676
10084SOL    HW141976   5.195   6.176   6.343 -0.0155  1.2318  0.1139
10084SOL    HW241977   5.058   6.142   6.397  0.1344 -0.5761 -0.5885
10085SOL     OW41978   4.065   9.482   5.610 -0.3289  0.5938 -0.6862
10085SOL    HW141979   4.015   9.545   5.663  1.8648  0.8564  1.2418
10085SOL    HW241980   4.156   9.512   5.617  0.9648 -3.1594  0.9822
10086SOL     OW41981   7.784   0.062   1.803 -0.3109  0.1717 -0.3610
10086SOL    HW141982   7.696   0.027   1.817  0.6831 -1.9467  1.0190
10086SOL    HW241983   7.806   0.107   1.885  1.0889 -2.2085  0.6759
10087SOL     OW41984   4.465   8.414   0.178  0.0411 -0.0266  0.0747
10087SOL    HW141985   4.444   8.360   0.102  0.5696 -0.3875  0.1779
10087SOL    HW241986   4.392   8.400   0.238  0.8481 -1.8004  0.7152
10088SOL     OW41987   6.419  10.011   8.682  0.2852 -0.1101 -0.1899
10088SOL    HW141988   6.448   9.978   8.767 -0.1389 -2.1007 -0.7632
10088SOL    HW241989   6.335   9.968   8.667  0.1961  0.4568 -1.4841
10089SOL     OW41990   6.537   3.556   7.300  0.0208 -0.5267 -0.3970
10089SOL    HW141991   6.601   3.584   7.365  0.3443  0.5143 -1.1489
10089SOL    HW241992   6.584   3.492   7.246 -0.2637 -1.4288  0.4034
10090SOL     OW41993   4.742   4.740   7.398 -0.9459 -0.0963  0.0094
10090SOL    HW141994   4.764   4.829   7.369  1.0250 -0.9498 -1.3190
10090SOL    HW241995   4.696   4.701   7.324  3.3988 -2.0161 -2.0270
10091SOL     OW41996   4.587   2.735   9.931 -0.2034 -0.0687 -0.2289
10091SOL    HW141997   4.563   2.817   9.975 -0.9355 -1.6885  2.6918
10091SOL    HW241998   4.510   2.712   9.879  0.7099  1.9413 -2.6949
10092SOL     OW41999   1.845   7.518   1.440 -0.0776 -0.1353  0.3007
10092SOL    HW142000   1.799   7.458   1.381  0.9339 -0.1278 -0.5225
10092SOL    HW242001   1.930   7.532   1.399 -0.2594  1.8516  0.4647
10093SOL     OW42002   0.842   7.482   9.549 -0.1938  0.1794  0.3768
10093SOL    HW142003   0.888   7.453   9.628  1.5485  1.8520  0.0212
10093SOL    HW242004   0.847   7.407   9.490 -0.3744 -0.6255  1.3508
10094SOL     OW42005   2.508   0.031   9.643  0.3847  0.1171 -0.6001
10094SOL    HW142006   2.555  -0.046   9.674 -0.9362 -0.6282 -0.3758
10094SOL    HW242007   2.490   0.012   9.551 -1.8428 -0.8729 -0.0186
10095SOL     OW42008   5.857   1.624   7.394  0.6201 -0.1153 -0.6694
10095SOL    HW142009   5.852   1.719   7.398  1.5175 -0.0969  0.2813
10095SOL    HW242010   5.873   1.605   7.301 -0.6289  0.5844 -1.0561
10096SOL     OW42011  10.876   3.594  11.393  0.0357 -0.1959  0.6291
10096SOL    HW142012  10.894   3.657  11.322  0.5811 -0.1748  0.7796
10096SOL    HW242013  10.937   3.523  11.376  1.5895  0.6869  2.1914
10097SOL     OW42014   7.607   2.520   3.425  1.1244  0.2106  0.2131
10097SOL    HW142015   7.588   2.613   3.432  2.0394  0.3917  0.5054
10097SOL    HW242016   7.555   2.480   3.495 -1.0135  0.1851 -1.2950
10098SOL     OW42017   9.048   9.398   7.126  0.0671 -0.0447  0.0972
10098SOL    HW142018   9.028   9.489   7.103  0.2768 -0.5800 -2.5782
10098SOL    HW242019   8.982   9.347   7.079  0.9528 -1.3259  0.2045
10099SOL     OW42020   3.194   2.898   1.809  0.2974 -0.0279 -0.3823
10099SOL    HW142021   3.120   2.947   1.773  0.3173 -0.9802 -1.7799
10099SOL    HW242022   3.187   2.812   1.770  2.5472  0.0491 -1.0972
10100SOL     OW42023   3.666  11.750  11.245  0.1124 -0.2969 -0.3249
10100SOL    HW142024   3.656  11.670  11.297  1.0087  1.2689  2.5001
10100SOL    HW242025   3.577  11.785  11.238  0.2343  1.2796  3.5488
10101SOL     OW42026   9.680   4.308   8.484  0.4628  0.1565 -0.0762
10101SOL    HW142027   9.648   4.220   8.507  0.0919  0.1238 -0.6940
10101SOL    HW242028   9.603   4.364   8.493 -0.2479 -0.1485 -2.9428
10102SOL     OW42029   1.951   9.722   0.432 -0.7381  0.7031  0.5449
10102SOL    HW142030   1.997   9.644   0.399  1.4699  2.5284 -0.9601
10102SOL    HW242031   1.921   9.697   0.519  1.8012 -1.1236  0.9992
10103SOL     OW42032   2.523   5.433   5.792  0.0756 -0.6831 -0.2121
10103SOL    HW142033   2.452   5.496   5.783 -1.2332 -1.9047  1.0940
10103SOL    HW242034   2.574   5.442   5.711 -1.9938 -0.3246 -1.5287
10104SOL     OW42035   9.214   7.293   7.445 -0.1854  0.0701 -0.1459
10104SOL    HW142036   9.194   7.339   7.363 -0.8790  0.1434  0.0541
10104SOL    HW242037   9.293   7.242   7.426 -0.5706 -0.2318 -0.9875
10105SOL     OW42038   0.262  10.409  10.693  0.1421  0.4746  0.3519
10105SOL    HW142039   0.182  10.356  10.699  0.3798  0.1466  0.6104
10105SOL    HW242040   0.229  10.499  10.694 -0.2364  0.3413  0.3260
10106SOL     OW42041  11.417   1.273   1.743 -0.4538  0.3224  0.2030
10106SOL    HW142042  11.415   1.264   1.838  1.4696 -2.4313  0.1190
10106SOL    HW242043  11.490   1.332   1.726  0.1022 -0.2832  0.4425
10107SOL     OW42044   8.791   7.473   2.782 -0.3009 -0.1816  0.2356
10107SOL    HW142045   8.824   7.389   2.750  0.8374 -0.4171  1.9616
10107SOL    HW242046   8.696   7.461   2.787 -0.2664 -0.9374 -0.6713
10108SOL     OW42047  11.113   8.656  10.663 -0.3482  0.0754 -0.7572
10108SOL    HW142048  11.026   8.647  10.623  0.6653 -1.5632 -2.7662
10108SOL    HW242049  11.166   8.697  10.594 -0.0918  3.9046  1.4410
10109SOL     OW42050   7.121  10.887   2.022 -0.0000 -0.3368 -0.1366
10109SOL    HW142051   7.064  10.886   2.099 -0.2707  0.8179 -0.3084
10109SOL    HW242052   7.191  10.949   2.044 -0.1632  0.1234 -0.8670
10110SOL     OW42053   9.795   8.983   6.091 -0.3659  0.1113  0.3471
10110SOL    HW142054   9.809   9.001   6.184  0.1179 -1.1849  0.5439
10110SOL    HW242055   9.700   8.991   6.078 -0.6981 -1.7007  1.4175
10111SOL     OW42056   6.244   2.832   5.472 -0.1680 -0.3274  0.0343
10111SOL    HW142057   6.214   2.855   5.560  1.0189 -1.4108  0.7636
10111SOL    HW242058   6.292   2.910   5.442  0.1807 -0.2711  0.7167
10112SOL     OW42059   6.618   2.544   7.798 -0.0708 -0.1031  0.1438
10112SOL    HW142060   6.571   2.625   7.817  1.1816  0.3328  1.5580
10112SOL    HW242061   6.562   2.498   7.734 -0.0348  2.5771 -1.9742
10113SOL     OW42062   6.400   7.040   6.056 -0.6150  0.2126 -0.4417
10113SOL    HW142063   6.334   7.027   5.987 -0.7909  1.7959 -0.6302
10113SOL    HW242064   6.353   7.021   6.137 -1.3338  1.2539 -0.5793
10114SOL     OW42065   8.411   5.636   7.378 -0.2321  0.3592 -0.2176
10114SOL    HW142066   8.475   5.632   7.307 -1.1178 -1.5430 -0.9901
10114SOL    HW242067   8.433   5.561   7.434 -1.2710  0.1609 -0.0492
10115SOL     OW42068   8.697   0.744   5.977  0.1525 -0.2841 -0.2798
10115SOL    HW142069   8.691   0.649   5.988  0.4080 -0.7958 -3.4742
10115SOL    HW242070   8.720   0.756   5.884  0.9795  2.8907  0.2089
10116SOL     OW42071   9.913   9.469   8.473 -0.4629  0.5926 -0.1258
10116SOL    HW142072   9.879   9.551   8.508  0.4188  0.4346  1.1864
10116SOL    HW242073  10.008   9.478   8.480 -0.3434 -0.3237 -0.4591
10117SOL     OW42074  11.731   5.754   2.111 -0.1534 -0.2530 -0.3232
10117SOL    HW142075  11.764   5.841   2.133  2.1964 -1.4222  1.0887
10117SOL    HW242076  11.683   5.767   2.029 -1.1699  2.5915  0.6099
10118SOL     OW42077   9.350  10.918  10.735  0.1495 -0.4318 -0.2661
10118SOL    HW142078   9.361  10.917  10.640  0.2296  2.3937 -0.3616
10118SOL    HW242079   9.272  10.863  10.750  1.4565 -2.8634 -1.6508
10119SOL     OW42080   3.099   6.239   6.521 -0.0635  0.1738 -0.1674
10119SOL    HW142081   3.071   6.170   6.582 -0.0780  1.0748  0.8845
10119SOL    HW242082   3.194   6.225   6.512 -0.1002 -0.1155 -0.1387
10120SOL     OW42083   1.985   7.119  10.745  0.5994 -0.1050 -0.1171
10120SOL    HW142084   2.046   7.097  10.673  0.8808  0.1789  0.0298
10120SOL    HW242085   1.999   7.050  10.810  2.7707  1.3922  1.1362
10121SOL     OW42086   9.270   6.996  10.060  0.3917 -0.2293 -0.1687
10121SOL    HW142087   9.258   6.924  10.123 -1.4933 -0.8352 -1.1299
10121SOL    HW242088   9.303   6.953   9.981 -2.0843 -0.3650 -1.2276
10122SOL     OW42089   8.828   8.958   9.538 -0.5228  0.1705 -0.1846
10122SOL    HW142090   8.920   8.979   9.521 -0.3379 -0.4669 -0.0106
10122SOL    HW242091   8.798   8.912   9.459 -0.4005 -0.5009  0.1499
10123SOL     OW42092   4.883   1.295   5.883 -0.1605  0.3423 -0.0980
10123SOL    HW142093   4.915   1.363   5.942  0.9376 -0.0527 -0.2339
10123SOL    HW242094   4.793   1.322   5.863 -0.5748  0.4633  1.7584
10124SOL     OW42095   2.187  10.336   0.902 -0.2304  0.4039 -0.2266
10124SOL    HW142096   2.139  10.395   0.843  0.2852  1.3198  0.2509
10124SOL    HW242097   2.264  10.310   0.852  0.9573  2.3227  0.5137
10125SOL     OW42098   7.137  11.035   9.962  0.1410  0.2014  0.3689
10125SOL    HW142099   7.222  11.076   9.947 -0.0636  0.0751 -1.2840
10125SOL    HW242100   7.119  11.051  10.055  2.0749 -0.0103  0.8147
10126SOL     OW42101  10.817   3.785   4.997  0.8328  0.3361  0.0114
10126SOL    HW142102  10.726   3.770   4.970  0.0306  1.8661  1.5914
10126SOL    HW242103  10.867   3.782   4.916 -0.6853 -0.1109 -0.9630
10127SOL     OW42104   1.154  11.869   2.768  0.5477  0.3299 -0.1369
10127SOL    HW142105   1.142  11.934   2.838  1.7461 -0.2450  0.6230
10127SOL    HW242106   1.224  11.812   2.799  1.5877  0.4553 -2.0980
10128SOL     OW42107  11.647  10.958   6.858  0.1220 -0.5012  0.3162
10128SOL    HW142108  11.588  10.957   6.933  0.7701  0.8652  0.8731
10128SOL    HW242109  11.590  10.952   6.782 -0.6295 -0.5621  0.8774
10129SOL     OW42110  11.623  11.358  10.321 -0.4815 -0.7637  0.2073
10129SOL    HW142111  11.528  11.352  10.317 -0.4563 -1.0061 -3.0521
10129SOL    HW242112  11.652  11.326  10.236  2.5613 -0.9700  1.2099
10130SOL     OW42113  10.993   0.736   4.351  0.7146  0.3503 -0.8917
10130SOL    HW142114  11.061   0.696   4.406 -0.1481 -3.2132 -2.1430
10130SOL    HW242115  11.024   0.825   4.337  3.1938  0.0458  1.6792
10131SOL     OW42116   6.272   7.874   6.760  0.5560  0.0984 -0.6976
10131SOL    HW142117   6.335   7.904   6.825 -1.0681  0.2748  0.8449
10131SOL    HW242118   6.216   7.950   6.743  0.3800 -0.2168 -1.6262
10132SOL     OW42119   4.258   2.677   7.867  0.2763  0.0445 -0.5232
10132SOL    HW142120   4.319   2.632   7.926 -1.2172 -0.1782  0.9293
10132SOL    HW242121   4.178   2.686   7.918 -0.7443  0.8253 -2.1806
10133SOL     OW42122   4.080   2.483   7.371 -0.6418 -0.5254 -0.6044
10133SOL    HW142123   4.127   2.468   7.453 -0.9478 -0.0284 -0.3365
10133SOL    HW242124   4.059   2.395   7.339  2.0334 -0.8827 -1.6717
10134SOL     OW42125   8.391   4.635   3.175 -0.4826  0.3268  0.0065
10134SOL    HW142126   8.305   4.595   3.159  0.0663 -1.3091  0.9334
10134SOL    HW242127   8.430   4.644   3.088 -1.0548 -0.1845 -0.3110
10135SOL     OW42128  10.336   4.662   5.113  0.0077 -0.3228  0.1314
10135SOL    HW142129  10.354   4.668   5.207 -0.8998  0.5467  0.2616
10135SOL    HW242130  10.246   4.631   5.107  0.0222 -0.2735 -0.4555
10136SOL     OW42131   6.469   4.227   3.556  0.0546  0.1098 -0.2297
10136SOL    HW142132   6.395   4.168   3.543  0.4763 -0.6870  0.7696
10136SOL    HW242133   6.463   4.254   3.647  0.5962  0.5999 -0.3305
10137SOL     OW42134   3.529  10.520  11.028 -0.0902 -0.1019 -0.4800
10137SOL    HW142135   3.596  10.555  10.969 -2.3542  1.2528 -2.4447
10137SOL    HW242136   3.507  10.435  10.990  1.7902 -1.5068  1.3319
10138SOL     OW42137  10.298   9.568   6.377  0.0942  0.5189  0.1584
10138SOL    HW142138  10.256   9.514   6.444  0.5590 -2.0762 -1.5125
10138SOL    HW242139  10.390   9.571   6.403 -0.1480  1.7238  0.9674
10139SOL     OW42140   2.224   5.925   9.499 -0.2110 -0.1808  0.8876
10139SOL    HW142141   2.138   5.887   9.484 -0.4564  0.4438  0.6398
10139SOL    HW242142   2.213   5.982   9.575 -0.2329  0.5242  0.3699
10140SOL     OW42143   5.699   5.780   4.231 -0.4505  0.0058  0.2309
10140SOL    HW142144   5.682   5.873   4.218  2.2053  0.9896  2.7826
10140SOL    HW242145   5.676   5.763   4.322  2.3852 -0.8715  0.8911
10141SOL     OW42146  10.501   6.733  10.371 -0.4052 -0.1727 -0.0245
10141SOL    HW142147  10.570   6.779  10.323  0.2262 -0.6991  0.3613
10141SOL    HW242148  10.482   6.656  10.318 -0.4868 -0.1800  0.0147
10142SOL     OW42149   9.426   9.239   1.156  0.0694  0.5185 -0.1649
10142SOL    HW142150   9.342   9.282   1.170 -0.8187 -1.2334  0.1529
10142SOL    HW242151   9.409   9.175   1.087  1.3573  0.6844 -0.6587
10143SOL     OW42152   9.297   7.200   4.272 -0.2276  0.0776  0.1690
10143SOL    HW142153   9.259   7.180   4.358 -0.3117 -1.5524 -0.2216
10143SOL    HW242154   9.241   7.155   4.210 -0.2822  1.4064 -0.7859
10144SOL     OW42155   6.062  10.277   5.453  0.4553  0.3144 -0.7944
10144SOL    HW142156   6.109  10.195   5.442  0.5426  0.3785 -0.9051
10144SOL    HW242157   6.010  10.286   5.373  0.2863  0.2644 -0.6907
10145SOL     OW42158   2.913   2.333   6.714  0.0644 -0.1738 -0.1285
10145SOL    HW142159   2.968   2.400   6.753  1.8208  0.0062 -2.6744
10145SOL    HW242160   2.830   2.377   6.694  0.1296  0.4079  0.8166
10146SOL     OW42161   8.896   5.709   1.997  0.0788  0.3708 -0.6964
10146SOL    HW142162   8.864   5.671   2.079  0.8299 -1.7555 -1.2976
10146SOL    HW242163   8.984   5.739   2.018 -0.1245  0.8252 -0.4761
10147SOL     OW42164   2.971  11.757  10.870  0.8358 -0.4944  0.1943
10147SOL    HW142165   2.880  11.727  10.868  0.9848 -0.9082 -1.1779
10147SOL    HW242166   3.021  11.676  10.883  0.9808 -0.1364  2.1700
10148SOL     OW42167   8.422   5.735  11.506 -0.6751  0.1546  0.0618
10148SOL    HW142168   8.475   5.783  11.570 -0.6984 -1.1711  1.1354
10148SOL    HW242169   8.426   5.788  11.426  2.1970  0.1664  0.1130
10149SOL     OW42170   2.983   5.108   5.784 -0.0918 -0.2566  0.4151
10149SOL    HW142171   2.950   5.175   5.844  0.1316 -0.8440  1.2137
10149SOL    HW242172   3.013   5.157   5.707  1.6062  0.7756  1.6515
10150SOL     OW42173   3.514   5.248   3.083 -0.0613 -0.0739 -0.6975
10150SOL    HW142174   3.494   5.157   3.106 -1.9901  0.2303 -1.0118
10150SOL    HW242175   3.597   5.266   3.127 -0.5082 -1.4521  0.8160
10151SOL     OW42176   3.399   3.282   5.395  0.2097 -0.1011 -0.0557
10151SOL    HW142177   3.396   3.203   5.449 -0.4561 -0.3564 -0.4510
10151SOL    HW242178   3.401   3.354   5.457 -3.0321 -0.2638  0.3806
10152SOL     OW42179   2.843   6.626   5.447  0.8847  0.0832 -0.3165
10152SOL    HW142180   2.781   6.607   5.377 -0.4425  0.2289  0.7712
10152SOL    HW242181   2.851   6.544   5.495 -0.3318  0.6616  0.9349
10153SOL     OW42182   9.517   8.840   1.927 -0.0862  0.0125 -0.5601
10153SOL    HW142183   9.583   8.876   1.986  0.3248  0.5064 -1.3063
10153SOL    HW242184   9.495   8.755   1.965  0.9421 -0.1419 -0.2760
10154SOL     OW42185   7.017  11.941   7.567  0.0402 -0.2276  0.1092
10154SOL    HW142186   7.020  11.853   7.604  1.3063 -1.5845 -2.9421
10154SOL    HW242187   6.937  11.979   7.604  0.2517 -2.0257  2.7109
10155SOL     OW42188   6.157   6.588   7.999  0.0574 -0.5290  0.1205
10155SOL    HW142189   6.086   6.647   7.973  0.2106 -0.1728  0.4839
10155SOL    HW242190   6.215   6.585   7.922  0.4004  0.3475  0.3251
10156SOL     OW42191   4.074   9.673   3.322 -0.5358  0.0813  0.3405
10156SOL    HW142192   3.981   9.680   3.344 -0.2321  1.2527  1.3506
10156SOL    HW242193   4.119   9.702   3.401  0.6890 -0.0342 -0.3049
10157SOL     OW42194   0.739   1.811   5.006 -0.9761 -0.5564 -0.0505
10157SOL    HW142195   0.769   1.727   5.042 -2.5311 -0.8749  0.5607
10157SOL    HW242196   0.680   1.846   5.073  0.0736  1.3208 -0.0421
10158SOL     OW42197   7.402   0.822   1.493  0.7401 -0.1940  0.2964
10158SOL    HW142198   7.369   0.912   1.501  1.6369  0.2527 -0.7492
10158SOL    HW242199   7.415   0.810   1.399  0.5770 -1.4507  0.4163
10159SOL     OW42200   4.491   4.028  10.334 -0.0044  0.3972  0.5294
10159SOL    HW142201   4.460   3.938  10.344  0.0309  0.3593  0.2911
10159SOL    HW242202   4.580   4.027  10.370 -0.0711  0.3800  0.6959
10160SOL     OW42203   2.366   3.312   7.134  0.0051  0.2014  0.4694
10160SOL    HW142204   2.366   3.217   7.129  1.2643  0.1953  0.0389
10160SOL    HW242205   2.446   3.333   7.183 -0.3776  1.0242  0.7490
10161SOL     OW42206   1.124   8.683   3.159 -0.0874 -0.3199 -0.0767
10161SOL    HW142207   1.197   8.706   3.217 -0.7677  0.6377  0.4413
10161SOL    HW242208   1.082   8.608   3.202  0.0151 -0.2533  0.1420
10162SOL     OW42209   8.533  10.499   4.647 -0.1605  0.0905  0.0561
10162SOL    HW142210   8.593  10.574   4.651 -1.4522  1.2627 -1.4088
10162SOL    HW242211   8.495  10.495   4.734  0.2656  0.8681  0.2962
10163SOL     OW42212   0.432   5.464  11.823 -0.4688 -0.3392  0.3835
10163SOL    HW142213   0.379   5.477  11.744  0.8338 -0.2740 -0.5104
10163SOL    HW242214   0.400   5.381  11.860 -1.8478  0.1829  0.4363
10164SOL     OW42215   5.669   0.914   8.613  0.0627  0.2453 -0.3186
10164SOL    HW142216   5.689   0.895   8.521 -0.6321  1.9243 -0.8471
10164SOL    HW242217   5.754   0.937   8.651  0.1275  1.2052 -0.9872
10165SOL     OW42218   7.940   7.693   1.687  0.5138 -0.4585  0.0047
10165SOL    HW142219   8.022   7.736   1.711  1.2589 -2.9659  2.5275
10165SOL    HW242220   7.873   7.739   1.738  1.0480 -1.1408  1.3648
10166SOL     OW42221   0.167   5.608   0.020  0.3837  0.2817  0.0030
10166SOL    HW142222   0.135   5.671  -0.046  0.8941  1.0335  0.4570
10166SOL    HW242223   0.207   5.538  -0.032  0.1919  0.5439 -0.5083
10167SOL     OW42224   3.258   8.219   0.133 -0.3696 -0.3561 -0.0506
10167SOL    HW142225   3.213   8.174   0.061  0.1965  0.9026 -1.2364
10167SOL    HW242226   3.316   8.282   0.089 -0.8328  1.2470  1.5339
10168SOL     OW42227   5.403   7.362   9.061  0.1251  0.2720 -0.0332
10168SOL    HW142228   5.406   7.440   9.116 -0.2888  0.6862 -0.5927
10168SOL    HW242229   5.381   7.291   9.121 -1.0266  0.8280  0.2277
10169SOL     OW42230   2.596   0.083  11.029  0.7449 -0.5079  0.3162
10169SOL    HW142231   2.554   0.047  11.107  0.1538  0.6279  0.5480
10169SOL    HW242232   2.646   0.010  10.992 -1.1014 -1.8255  0.2627
10170SOL     OW42233   9.989   6.529  11.289  0.0672 -0.3477  0.1966
10170SOL    HW142234   9.896   6.551  11.299 -0.0278 -1.2522  1.5964
10170SOL    HW242235  10.023   6.526  11.378  1.0351 -1.7246 -0.1847
10171SOL     OW42236   7.663   6.268  10.176 -0.1744  0.1706  0.7346
10171SOL    HW142237   7.634   6.235  10.261 -1.1118  1.0845  0.7918
10171SOL    HW242238   7.587   6.254  10.118  0.3019 -0.0407  0.1559
10172SOL     OW42239   1.725   1.388   8.506 -0.3365 -0.2858 -0.5344
10172SOL    HW142240   1.717   1.375   8.601  0.8973  0.8338 -0.2381
10172SOL    HW242241   1.734   1.483   8.496 -1.6908 -0.2621 -1.9049
10173SOL     OW42242   7.124   5.522   1.434 -0.3819 -0.2207 -0.6214
10173SOL    HW142243   7.061   5.456   1.461  0.9638 -1.2394  0.1608
10173SOL    HW242244   7.196   5.515   1.497 -1.0192  3.3923  0.7538
10174SOL     OW42245   7.054   4.131   7.883 -0.3215 -0.0170  0.2051
10174SOL    HW142246   6.996   4.121   7.807  0.5454 -0.5983 -0.4012
10174SOL    HW242247   7.073   4.041   7.911 -0.4407  0.1918  0.9591
10175SOL     OW42248   2.908  11.267   9.722 -0.4987 -0.5054 -0.3771
10175SOL    HW142249   2.941  11.180   9.696  2.3414  0.5179 -0.5302
10175SOL    HW242250   2.883  11.308   9.639  1.0162 -0.1290 -0.6740
10176SOL     OW42251  11.082   3.894   1.902 -0.2915 -0.3451  0.0190
10176SOL    HW142252  11.046   3.938   1.826  1.1854  0.7296 -0.0988
10176SOL    HW242253  11.108   3.808   1.870  1.3706  0.4875 -1.0434
10177SOL     OW42254   6.872   0.613   5.764 -1.0292 -0.3489 -0.2431
10177SOL    HW142255   6.785   0.574   5.763 -1.1305 -0.1243 -0.2199
10177SOL    HW242256   6.906   0.597   5.676 -1.5758  0.6379 -0.6494
10178SOL     OW42257   3.312  11.044   0.809 -0.5775 -0.0401 -0.2478
10178SOL    HW142258   3.219  11.054   0.789 -0.2976  0.3823 -1.3870
10178SOL    HW242259   3.357  11.068   0.728  0.5365  0.0245  0.3709
10179SOL     OW42260   3.644   2.494   5.976 -0.2779 -0.2745  0.1650
10179SOL    HW142261   3.636   2.512   5.882  1.0690  0.3104  0.1455
10179SOL    HW242262   3.620   2.402   5.984  0.1243 -0.4855 -0.8371
10180SOL     OW42263   6.306   1.326   2.902  0.6316 -0.2027 -0.3235
10180SOL    HW142264   6.387   1.339   2.854  0.1126 -0.3682 -1.2640
10180SOL    HW242265   6.334   1.299   2.990  1.5970  0.6695 -0.3432
10181SOL     OW42266  11.820   5.115   2.503  0.0855  0.0457  0.3213
10181SOL    HW142267  11.777   5.057   2.441  1.6611 -0.7465 -0.0839
10181SOL    HW242268  11.781   5.201   2.486 -1.5483 -0.6723  0.2406
10182SOL     OW42269   8.226   0.679   1.415 -0.5864 -0.5704  0.2419
10182SOL    HW142270   8.249   0.739   1.343  0.0300  0.7273  1.4636
10182SOL    HW242271   8.149   0.632   1.383  0.4023 -0.9419 -1.7487
10183SOL     OW42272   1.204   7.668   1.309  0.6563  0.5116  0.3144
10183SOL    HW142273   1.209   7.618   1.390 -0.4445  2.8400  1.9299
10183SOL    HW242274   1.135   7.625   1.258  1.3429 -0.9652  0.5961
10184SOL     OW42275   4.721   1.305   7.153 -0.4897  0.1515 -0.0199
10184SOL    HW142276   4.721   1.287   7.247 -1.7439 -1.0950 -0.2302
10184SOL    HW242277   4.629   1.319   7.131 -0.1809  0.7483 -1.0286
10185SOL     OW42278   0.913   7.309   8.027  0.0294  0.0925 -0.2265
10185SOL    HW142279   0.929   7.360   7.948 -1.2004  1.0004  0.0707
10185SOL    HW242280   0.952   7.223   8.010 -0.3608  0.2232 -1.8790
10186SOL     OW42281   3.380  10.775   5.498 -0.3881 -0.0098 -0.0039
10186SOL    HW142282   3.439  10.834   5.451  0.8756 -1.4343 -0.2710
10186SOL    HW242283   3.432  10.744   5.573 -1.5967  0.4582  1.0797
10187SOL     OW42284   5.223   6.594   8.392  0.2405 -0.2794 -0.2720
10187SOL    HW142285   5.225   6.632   8.479 -0.6364 -0.4718 -0.1591
10187SOL    HW242286   5.173   6.657   8.339  0.4320 -0.3503 -0.5398
10188SOL     OW42287   1.240   1.373   0.759  1.2373 -0.1173  0.0457
10188SOL    HW142288   1.212   1.330   0.840 -0.5178  0.4465 -0.2222
10188SOL    HW242289   1.238   1.467   0.780 -0.5097  0.1134 -0.9912
10189SOL     OW42290   2.515   8.555   3.476 -0.0382  0.3899  0.5575
10189SOL    HW142291   2.552   8.468   3.485  0.1566  0.3601 -0.3756
10189SOL    HW242292   2.420   8.541   3.468  0.0378  0.2112 -0.1120
10190SOL     OW42293   4.529  10.807  11.019 -0.6217 -0.3707 -0.3420
10190SOL    HW142294   4.532  10.903  11.014  1.0052 -0.3461  0.5818
10190SOL    HW242295   4.596  10.778  10.958  2.0034 -0.7328  2.5081
10191SOL     OW42296   6.116   7.047   0.136  0.1205  0.0430  0.0417
10191SOL    HW142297   6.173   7.084   0.204  1.5141  0.4658 -1.3134
10191SOL    HW242298   6.030   7.043   0.178  0.8250  0.7453  1.6755
10192SOL     OW42299   7.061   0.334  10.448 -0.7598  0.7070  0.1929
10192SOL    HW142300   7.118   0.294  10.513  0.6504  0.3412 -1.1940
10192SOL    HW242301   6.990   0.271  10.435  0.2270 -0.3418 -0.3184
10193SOL     OW42302   8.171   5.674   6.308 -0.0082  0.0562 -0.1293
10193SOL    HW142303   8.079   5.694   6.292 -0.3594  0.2899  1.9645
10193SOL    HW242304   8.170   5.606   6.375  1.3446  1.5045  1.4246
10194SOL     OW42305   4.783   8.833  10.619 -0.0673 -0.1479  0.2949
10194SOL    HW142306   4.748   8.758  10.668 -0.8954 -0.7005 -1.0955
10194SOL    HW242307   4.867   8.803  10.584  0.9177  0.5118  1.9612
10195SOL     OW42308   2.663  10.165   7.441 -0.5479  0.2525  0.8054
10195SOL    HW142309   2.668  10.149   7.347  1.0207  1.6718  0.5961
10195SOL    HW242310   2.618  10.088   7.477 -1.3927 -0.2030 -1.1094
10196SOL     OW42311  10.601  11.855   9.774  0.0124 -0.0566  0.1073
10196SOL    HW142312  10.522  11.822   9.731 -0.1885  0.7976 -0.2184
10196SOL    HW242313  10.570  11.923   9.833  0.2797 -1.2921  1.7338
10197SOL     OW42314  10.473   1.976   2.638  0.2925  0.7766 -0.3526
10197SOL    HW142315  10.418   2.018   2.704 -1.8741 -0.6121 -1.1779
10197SOL    HW242316  10.458   2.028   2.559 -0.4568 -0.0393 -0.7622
10198SOL     OW42317   9.625   0.216   2.389  0.2054 -0.3963 -0.1022
10198SOL    HW142318   9.530   0.215   2.390  0.1106 -0.0268 -2.6233
10198SOL    HW242319   9.648   0.305   2.416 -0.1558 -0.4838  0.5066
10199SOL     OW42320   4.378   1.690   1.585 -0.0278 -0.4914  0.1415
10199SOL    HW142321   4.439   1.741   1.532  1.0014 -1.7692  0.0672
10199SOL    HW242322   4.376   1.604   1.545 -1.7089 -0.5557  0.2973
10200SOL     OW42323   8.456   8.264   4.158  0.2022  0.8217 -0.1945
10200SOL    HW142324   8.470   8.312   4.077  2.3171 -0.8284 -0.8944
10200SOL    HW242325   8.493   8.319   4.227 -0.0081  1.4374 -0.5716
10201SOL     OW42326   1.980   0.440   9.573  0.2229 -0.2461  0.3396
10201SOL    HW142327   2.049   0.491   9.530  0.6284  0.7831  2.0820
10201SOL    HW242328   1.951   0.496   9.645 -2.8026 -0.4329 -0.5985
10202SOL     OW42329   1.986   4.426   1.161 -0.4882  0.6166 -0.3183
10202SOL    HW142330   1.996   4.333   1.182 -1.3602 -0.1361 -2.8275
10202SOL    HW242331   1.892   4.437   1.143 -0.3483  1.8976 -0.4026
10203SOL     OW42332   0.927   3.248   4.906 -0.5810 -0.0783 -0.1534
10203SOL    HW142333   0.846   3.225   4.860 -0.9977  0.5319  0.2577
10203SOL    HW242334   0.995   3.245   4.838 -1.2937  1.5033 -1.0023
10204SOL     OW42335   2.331   0.055   0.960  0.3141 -0.2292  0.1858
10204SOL    HW142336   2.354   0.079   0.871  0.8410 -0.8006  0.1560
10204SOL    HW242337   2.326  -0.041   0.958 -3.0399 -0.1738 -0.0435
10205SOL     OW42338  11.264   7.393   0.274 -0.4415  0.0679 -0.0899
10205SOL    HW142339  11.250   7.368   0.365  0.6703  0.2275  0.1414
10205SOL    HW242340  11.205   7.467   0.259 -0.4822  0.1678  0.5570
10206SOL     OW42341  11.559   3.445   2.700  0.6485  0.4663  0.3285
10206SOL    HW142342  11.563   3.499   2.621 -0.0831  0.2749  0.1520
10206SOL    HW242343  11.518   3.363   2.671 -0.2239  0.6361  1.0338
10207SOL     OW42344   1.590   1.805   1.321  0.0978  1.0424 -0.3939
10207SOL    HW142345   1.686   1.806   1.317  0.1569  0.9880  0.6895
10207SOL    HW242346   1.567   1.715   1.297  0.3824  0.7697  0.3277
10208SOL     OW42347   6.111  10.261   5.796 -0.4491  0.1350  0.7723
10208SOL    HW142348   6.076  10.182   5.754  1.0359 -0.0635 -0.1894
10208SOL    HW242349   6.034  10.312   5.821 -1.4153 -0.6780 -0.4566
10209SOL     OW42350  10.603   9.487   7.175  0.4131 -0.2600  0.0730
10209SOL    HW142351  10.613   9.490   7.270  0.2538 -0.1760  0.0876
10209SOL    HW242352  10.512   9.513   7.160  1.4136  3.7189 -0.3377
10210SOL     OW42353   7.748   0.916   9.964 -0.5255  0.4549  0.8784
10210SOL    HW142354   7.731   0.933  10.057  1.1232  0.8830  1.1176
10210SOL    HW242355   7.760   0.821   9.959 -1.3746  0.3294  0.9466
10211SOL     OW42356   6.913   7.647   1.634 -0.2213  0.0147 -0.1267
10211SOL    HW142357   6.975   7.621   1.703 -0.3508  3.8992  1.6879
10211SOL    HW242358   6.964   7.701   1.574 -1.1922  0.7500 -0.3148
10212SOL     OW42359   2.505   8.035   4.253  0.2539  0.3319 -0.1806
10212SOL    HW142360   2.502   8.130   4.241  0.9592  0.3382 -0.3399
10212SOL    HW242361   2.433   8.016   4.314  0.6556  1.0779  0.5396
10213SOL     OW42362   6.064   3.939  11.917 -0.2624 -0.5198  0.2940
10213SOL    HW142363   5.994   4.004  11.918  1.6753  1.6698  0.7594
10213SOL    HW242364   6.040   3.877  11.986  0.0611  2.3267  3.2105
10214SOL     OW42365   7.518   6.349   6.186  0.3662 -0.0189  0.1630
10214SOL    HW142366   7.451   6.281   6.188  0.2530  0.0206 -1.1000
10214SOL    HW242367   7.514   6.382   6.096  0.6097  1.4645  0.6867
10215SOL     OW42368   0.150   1.992   8.224  0.0739  0.4855  0.5638
10215SOL    HW142369   0.157   1.897   8.221 -0.5395  0.4075  1.3798
10215SOL    HW242370   0.065   2.011   8.183 -0.6405  0.5401  2.0008
10216SOL     OW42371   4.363   8.160   6.975 -0.0204 -0.0351 -0.4998
10216SOL    HW142372   4.295   8.176   7.041  1.1989 -2.4741  1.5184
10216SOL    HW242373   4.342   8.073   6.940  2.7860 -1.5695  1.2882
10217SOL     OW42374   5.712   6.024  10.600  0.2958 -0.0090  0.0572
10217SOL    HW142375   5.695   6.027  10.694 -0.3040  3.3579 -0.0382
10217SOL    HW242376   5.807   6.015  10.592  0.4917  1.0139  1.0334
10218SOL     OW42377   9.286   4.485   2.573  0.4717  0.0005 -0.2865
10218SOL    HW142378   9.267   4.449   2.660  2.0223  0.3779  0.2342
10218SOL    HW242379   9.305   4.577   2.588  1.4460 -0.0807 -0.9147
10219SOL     OW42380   8.063   6.501  11.713  0.0972  0.0673 -0.8713
10219SOL    HW142381   8.143   6.542  11.680  0.6322  0.4162  0.7274
10219SOL    HW242382   8.084   6.480  11.804 -1.4085 -0.4726 -0.6298
10220SOL     OW42383   4.306   4.042   9.525  0.1302  0.3734  0.1582
10220SOL    HW142384   4.249   4.118   9.523 -1.5375 -0.8166  0.3966
10220SOL    HW242385   4.327   4.025   9.433 -0.3902  0.4660  0.0234
10221SOL     OW42386   6.600   6.106   7.592 -0.4208  0.2652 -0.0652
10221SOL    HW142387   6.662   6.068   7.655  0.0085 -0.7164 -1.0436
10221SOL    HW242388   6.632   6.076   7.507 -1.6650  0.5969 -0.6647
10222SOL     OW42389   0.129   8.331   5.666 -0.1122  0.6818 -0.5503
10222SOL    HW142390   0.186   8.346   5.741 -1.0353  0.6068  0.1894
10222SOL    HW242391   0.069   8.405   5.666 -2.0070 -0.7669  0.5874
10223SOL     OW42392   2.563   5.591   2.493  0.2927 -0.5981  0.0477
10223SOL    HW142393   2.529   5.680   2.485 -0.6920 -0.9544  0.2243
10223SOL    HW242394   2.503   5.537   2.442  0.9750 -1.1454 -0.1883
10224SOL     OW42395   1.074   6.228   7.005 -0.0334 -0.1562 -0.6792
10224SOL    HW142396   0.982   6.205   7.014 -0.2814  0.7402 -0.8032
10224SOL    HW242397   1.105   6.177   6.930  0.0137 -1.7059  0.3595
10225SOL     OW42398  10.869   2.105  10.850  0.0173 -0.0036  0.2227
10225SOL    HW142399  10.810   2.085  10.778 -2.1017 -1.8307  2.2656
10225SOL    HW242400  10.854   2.198  10.869 -0.9664 -0.0255 -0.3755
10226SOL     OW42401   5.461   3.533  11.933 -0.1285  0.1872 -0.1058
10226SOL    HW142402   5.429   3.447  11.906  0.7577  0.3910 -1.9806
10226SOL    HW242403   5.383   3.587  11.942 -0.5583 -0.0972 -1.7435
10227SOL     OW42404   9.960   6.224   9.953  0.3244 -0.5596 -0.6090
10227SOL    HW142405   9.996   6.256  10.035 -0.7328  2.3046 -1.1535
10227SOL    HW242406   9.869   6.203   9.973  0.3428 -0.8752 -0.8345
10228SOL     OW42407  11.588   3.181  11.579  0.0300  0.2845 -0.4429
10228SOL    HW142408  11.600   3.120  11.652 -0.0785 -0.0156 -0.6748
10228SOL    HW242409  11.672   3.182  11.534 -0.4933 -1.1336 -1.5414
10229SOL     OW42410   3.870  10.883   6.730 -0.0980 -0.2907  0.1264
10229SOL    HW142411   3.887  10.797   6.691 -3.7267 -0.6891 -0.9977
10229SOL    HW242412   3.845  10.864   6.820  2.5912  0.0394  1.0057
10230SOL     OW42413   0.380  11.284   7.965  0.8075  0.3251 -0.5517
10230SOL    HW142414   0.342  11.370   7.950  0.9669  0.4155 -0.4437
10230SOL    HW242415   0.400  11.251   7.878 -0.9264 -0.3739 -0.7321
10231SOL     OW42416   4.023   6.434   6.623 -0.4174 -0.4449  0.4434
10231SOL    HW142417   4.023   6.463   6.714  0.1872 -1.9765  0.9662
10231SOL    HW242418   4.115   6.441   6.595 -0.4548 -0.7841  0.2277
10232SOL     OW42419   8.496  11.304   8.988  0.6352 -1.1329 -0.4465
10232SOL    HW142420   8.513  11.229   8.931 -0.9102 -1.1028 -1.0096
10232SOL    HW242421   8.464  11.372   8.929 -0.6974 -0.9928  0.3816
10233SOL     OW42422   5.634   3.580  10.476 -0.1341 -0.3366 -0.6285
10233SOL    HW142423   5.651   3.667  10.441 -0.6418 -0.3404 -0.8818
10233SOL    HW242424   5.667   3.584  10.566 -1.0760  0.4237 -0.3044
10234SOL     OW42425   1.244   3.776   4.434  0.0731 -0.1161  0.2360
10234SOL    HW142426   1.219   3.857   4.388  1.0964  0.5521  0.8075
10234SOL    HW242427   1.310   3.736   4.377 -1.9337 -1.7113 -1.1128
10235SOL     OW42428   5.255   1.940   4.750 -0.1688  0.1272  0.0622
10235SOL    HW142429   5.309   1.863   4.733 -0.2056  0.1275 -0.0577
10235SOL    HW242430   5.299   1.984   4.823 -0.6859 -0.5183  0.7714
10236SOL     OW42431   5.824   6.558   0.565  0.0790  0.3799  0.2855
10236SOL    HW142432   5.837   6.539   0.472  0.9215 -1.4447  0.7125
10236SOL    HW242433   5.896   6.617   0.588 -0.7813  1.7576 -0.4257
10237SOL     OW42434   3.323  10.457   8.450 -0.8827  0.2235  0.7489
10237SOL    HW142435   3.243  10.474   8.499 -0.7967 -0.3044  1.0837
10237SOL    HW242436   3.376  10.536   8.463 -1.8260  1.1159 -0.5016
10238SOL     OW42437   6.193   4.420   8.558  0.0011  0.5098 -0.1405
10238SOL    HW142438   6.120   4.361   8.573 -0.4473  1.3795  1.2922
10238SOL    HW242439   6.260   4.366   8.515 -0.7229 -0.7855  0.3198
10239SOL     OW42440   7.967   8.957   9.904  0.2605  0.2462 -0.1874
10239SOL    HW142441   7.886   8.998   9.937  0.8215  2.7171 -1.6200
10239SOL    HW242442   8.027   8.961   9.978 -0.0629  1.0441  0.0476
10240SOL     OW42443   8.280   4.952   2.168 -0.6963 -0.0687  0.0100
10240SOL    HW142444   8.195   4.915   2.141 -0.0701 -0.7209 -1.1349
10240SOL    HW242445   8.320   4.883   2.220 -0.1769 -0.4121 -0.8344
10241SOL     OW42446   4.308   8.399  10.931 -0.1836 -0.4177 -0.3533
10241SOL    HW142447   4.229   8.393  10.985 -1.0893  0.3379 -1.5408
10241SOL    HW242448   4.380   8.393  10.994 -1.1964  0.5542  0.9690
10242SOL     OW42449   6.758  10.625   5.486  0.5318 -0.2952 -0.0406
10242SOL    HW142450   6.697  10.552   5.473  1.5094 -1.2371  0.4375
10242SOL    HW242451   6.833  10.603   5.431  0.4005  0.9214 -0.7397
10243SOL     OW42452   4.051   5.308   9.640  0.2925 -0.0326 -0.4710
10243SOL    HW142453   4.072   5.395   9.608 -0.4644  0.2048 -0.3245
10243SOL    HW242454   4.133   5.259   9.632  0.0437 -0.1582 -3.2845
10244SOL     OW42455  11.637   3.785   9.642  0.2738  0.0839 -0.3354
10244SOL    HW142456  11.614   3.877   9.632  0.0370  0.1296  0.5515
10244SOL    HW242457  11.558   3.738   9.616 -0.6405  0.2226  1.9327
10245SOL     OW42458   5.804  10.671   8.437  0.1858 -0.2542  0.2187
10245SOL    HW142459   5.709  10.677   8.440  0.1583 -0.6666  0.2674
10245SOL    HW242460   5.832  10.750   8.391 -0.1331  0.2563  0.8816
10246SOL     OW42461   5.723   9.646   3.532 -0.0216  0.2556 -0.7144
10246SOL    HW142462   5.654   9.596   3.488  0.0568  0.7981 -1.4767
10246SOL    HW242463   5.780   9.579   3.571 -0.3354 -0.2244 -1.0640
10247SOL     OW42464  11.845   6.463   9.890  0.1099 -0.0877  0.4305
10247SOL    HW142465  11.840   6.470   9.794 -0.1056  0.2883  0.4692
10247SOL    HW242466  11.809   6.545   9.922 -1.8140 -1.0479  0.8797
10248SOL     OW42467   0.962  11.048   8.274  0.0127 -0.0236  0.0169
10248SOL    HW142468   0.920  11.083   8.354  0.0806  2.2270 -0.8537
10248SOL    HW242469   0.984  11.126   8.223 -0.4065 -1.4086 -2.4142
10249SOL     OW42470   3.244  11.159   3.844 -0.0815 -0.5441 -0.4515
10249SOL    HW142471   3.328  11.191   3.812 -0.4896  2.7188  1.2911
10249SOL    HW242472   3.266  11.107   3.921  0.3734  0.0007 -0.2067
10250SOL     OW42473   2.923  11.742   1.842  0.3562 -1.0155  0.2740
10250SOL    HW142474   2.882  11.810   1.896  1.3992  0.1939 -0.3848
10250SOL    HW242475   2.864  11.667   1.848 -1.1705  0.1579  0.5442
10251SOL     OW42476  10.474  10.643   6.930 -0.3138 -0.0813 -0.1142
10251SOL    HW142477  10.542  10.633   6.997  0.0417  0.2547 -0.4265
10251SOL    HW242478  10.394  10.615   6.974 -0.2089  0.8169  0.6843
10252SOL     OW42479   6.603  10.808   6.015  0.3127 -0.4511 -0.0740
10252SOL    HW142480   6.658  10.833   6.089  1.3613  1.1116 -1.3219
10252SOL    HW242481   6.617  10.714   6.006  2.8700 -0.1191 -0.3517
10253SOL     OW42482   5.205   7.080   7.801 -0.6952  0.0648  0.1082
10253SOL    HW142483   5.251   7.073   7.717 -0.3650 -2.2111  0.4320
10253SOL    HW242484   5.128   7.025   7.791 -2.3964  2.2774  0.2663
10254SOL     OW42485   5.261   7.950   5.777 -0.1991 -0.1710 -0.2050
10254SOL    HW142486   5.190   7.914   5.723  0.3262 -0.2068 -0.8822
10254SOL    HW242487   5.276   7.884   5.844 -0.7936 -0.1686 -0.0578
10255SOL     OW42488   4.968  11.879   6.045  0.3930 -0.1238 -0.3267
10255SOL    HW142489   5.058  11.910   6.047  0.0932  0.8428  2.0608
10255SOL    HW242490   4.921  11.946   5.994  0.4584  1.3967  1.4759
10256SOL     OW42491   4.097   9.393   8.337 -0.2288  0.3176  0.0724
10256SOL    HW142492   4.112   9.340   8.416 -1.1996 -1.2811 -0.7485
10256SOL    HW242493   4.026   9.453   8.362 -0.4652 -0.1119  0.4514
10257SOL     OW42494   7.353   5.765  10.505  0.0744  0.5437 -0.2865
10257SOL    HW142495   7.267   5.769  10.463  0.2873 -0.7651 -0.9117
10257SOL    HW242496   7.337   5.797  10.594 -1.0601  0.3204 -0.3867
10258SOL     OW42497   9.876   3.300   8.027 -0.1425  0.4481  0.2817
10258SOL    HW142498   9.939   3.236   8.060  1.3073  1.7389  0.1429
10258SOL    HW242499   9.865   3.362   8.099 -0.9758  0.4335  0.1706
10259SOL     OW42500   2.212   8.126   3.257 -0.3454 -0.1105 -0.0249
10259SOL    HW142501   2.280   8.083   3.206 -0.1436  0.2807 -0.0819
10259SOL    HW242502   2.194   8.208   3.211 -0.2045  0.2160  0.4939
10260SOL     OW42503   9.351   2.658   1.347 -0.3231  0.2184  0.7691
10260SOL    HW142504   9.305   2.739   1.325  0.3806  0.3243 -0.4440
10260SOL    HW242505   9.437   2.668   1.305  0.6678 -0.1357  2.6280
10261SOL     OW42506   4.739   5.404   1.022 -0.2102 -0.2347 -0.1751
10261SOL    HW142507   4.755   5.454   1.102 -0.3078  0.7026 -0.7242
10261SOL    HW242508   4.646   5.380   1.028 -0.0632 -0.6989  0.2797
10262SOL     OW42509   2.647   7.562   6.240  0.6403  0.5572 -0.0343
10262SOL    HW142510   2.698   7.536   6.163  0.4468  0.4275 -0.1187
10262SOL    HW242511   2.556   7.559   6.211  0.3475 -1.9623  0.8968
10263SOL     OW42512   8.307   4.704  11.426 -0.1134 -0.3630 -0.0167
10263SOL    HW142513   8.249   4.769  11.387 -2.1478 -2.7462 -1.2961
10263SOL    HW242514   8.389   4.713  11.379 -0.0891  1.6892  0.3318
10264SOL     OW42515  11.835   5.006  11.357  0.4237  0.0049  0.1860
10264SOL    HW142516  11.886   5.017  11.437  0.1472  2.3246  0.1342
10264SOL    HW242517  11.746   4.987  11.387  0.7625 -1.4376  0.3380
10265SOL     OW42518   8.971   3.316   3.189  0.1560 -0.2554 -0.1806
10265SOL    HW142519   9.023   3.270   3.123  0.0212 -0.0227 -0.4510
10265SOL    HW242520   9.010   3.290   3.272  0.5759 -0.2458 -0.3702
10266SOL     OW42521  10.370   9.833   6.464 -0.0865 -0.1114 -0.0504
10266SOL    HW142522  10.324   9.752   6.444 -0.3227 -0.3079  1.1695
10266SOL    HW242523  10.461   9.817   6.439 -0.2629 -0.5016 -0.4474
10267SOL     OW42524   5.153   1.718  11.271 -0.1859  0.8820 -0.2300
10267SOL    HW142525   5.199   1.740  11.190  0.5521  0.3214  0.0219
10267SOL    HW242526   5.074   1.772  11.269  0.6797  2.2026 -0.4837
10268SOL     OW42527   6.335   0.060  11.725 -0.0537 -0.9479 -0.0877
10268SOL    HW142528   6.394  -0.007  11.690 -1.3693 -1.1780 -2.0957
10268SOL    HW242529   6.303   0.106  11.647  0.1157  1.4529  1.1865
10269SOL     OW42530   9.430  11.202   3.910  0.1733  0.5168  0.2533
10269SOL    HW142531   9.412  11.277   3.967 -2.3167 -1.7381  2.7356
10269SOL    HW242532   9.498  11.153   3.956 -0.8005 -0.5627  0.5827
10270SOL     OW42533   2.821   1.506   0.149  0.0729  0.1725 -0.1896
10270SOL    HW142534   2.849   1.450   0.076  0.9889 -0.9078  0.9424
10270SOL    HW242535   2.828   1.450   0.226  1.0743  1.8393  1.0013
10271SOL     OW42536   6.844   1.543   9.090 -0.1309  0.0880 -0.3552
10271SOL    HW142537   6.931   1.570   9.120 -0.4296  0.9250 -0.2161
10271SOL    HW242538   6.823   1.466   9.143  0.1632  0.4021  0.2285
10272SOL     OW42539   2.578   1.135   6.271  0.0845  0.0789 -0.2700
10272SOL    HW142540   2.484   1.124   6.259 -0.0469  1.6289 -1.0273
10272SOL    HW242541   2.591   1.139   6.365 -0.8919  1.5977 -0.1557
10273SOL     OW42542  11.902   2.443   2.222  0.1371 -0.3332  0.4762
10273SOL    HW142543  11.828   2.417   2.277 -1.3369 -3.4252 -2.6137
10273SOL    HW242544  11.963   2.369   2.227  1.1518  0.4409 -0.1117
10274SOL     OW42545   2.883   5.922   4.482  0.0554 -0.3636 -0.0360
10274SOL    HW142546   2.854   5.898   4.395 -0.3482 -1.4199  0.3761
10274SOL    HW242547   2.805   5.916   4.537  0.1522  0.9425  0.2904
10275SOL     OW42548   6.269   9.376  10.382 -0.0533 -0.0118 -0.7517
10275SOL    HW142549   6.309   9.431  10.450 -0.8592  0.1333 -0.3751
10275SOL    HW242550   6.212   9.436  10.334  1.6637  0.2598 -2.6041
10276SOL     OW42551  11.685   9.870   6.200 -0.0699  0.0367 -0.4714
10276SOL    HW142552  11.768   9.838   6.236 -0.0732  2.2312  1.8257
10276SOL    HW242553  11.631   9.887   6.278 -2.1087  0.1133 -1.8359
10277SOL     OW42554   4.751  10.359   0.854  0.1336  0.1793 -0.1429
10277SOL    HW142555   4.700  10.438   0.833  1.0334  0.3996 -1.6214
10277SOL    HW242556   4.842  10.388   0.852  0.4238 -0.6768  0.3593
10278SOL     OW42557   4.638   8.629   2.884 -0.2954 -0.0017 -0.2172
10278SOL    HW142558   4.582   8.584   2.822 -1.2282  1.8162 -0.7642
10278SOL    HW242559   4.641   8.571   2.960  0.4352 -2.0112 -1.7123
10279SOL     OW42560   1.197   3.024   4.386  0.0962 -0.1922  0.0523
10279SOL    HW142561   1.279   3.061   4.351  0.1926 -0.1730  0.2956
10279SOL    HW242562   1.224   2.975   4.463  0.0585 -1.3486 -0.6569
10280SOL     OW42563   7.495  11.190   0.712  0.0341 -0.0538 -0.2640
10280SOL    HW142564   7.442  11.219   0.787 -2.3079  0.5640 -2.0226
10280SOL    HW242565   7.535  11.108   0.741 -1.0885 -0.0199  1.5505
10281SOL     OW42566   2.835   4.461   4.296 -0.1064  0.0303  0.2201
10281SOL    HW142567   2.827   4.518   4.220  2.1394 -0.6688 -0.6302
10281SOL    HW242568   2.817   4.373   4.263 -2.0334  0.0042  1.1950
10282SOL     OW42569   8.222   8.961   6.179  0.3641  0.0745  0.2335
10282SOL    HW142570   8.251   9.047   6.209 -0.0095  0.3445 -0.1648
10282SOL    HW242571   8.219   8.907   6.259  2.0800 -0.0157  0.2695
10283SOL     OW42572   7.427   9.083  11.801  0.2150 -0.2297 -0.0292
10283SOL    HW142573   7.410   9.001  11.848 -0.2559 -0.7695 -1.0882
10283SOL    HW242574   7.357   9.141  11.827 -1.4899 -1.3379 -1.8401
10284SOL     OW42575   0.050   0.718   3.597 -0.2150  0.3403  0.1616
10284SOL    HW142576   0.028   0.796   3.649 -0.1107  0.4651  0.0200
10284SOL    HW242577   0.060   0.751   3.508  0.4545  0.2792  0.2031
10285SOL     OW42578   3.027   3.618   6.151 -0.4473 -0.0814 -0.0876
10285SOL    HW142579   3.008   3.549   6.088  2.7563  0.4254 -1.8189
10285SOL    HW242580   3.046   3.572   6.233 -2.3256 -0.8890 -0.0490
10286SOL     OW42581   1.905   6.562   2.294 -0.0412  0.7281  0.0418
10286SOL    HW142582   1.998   6.581   2.285 -0.0486  0.8908  0.2822
10286SOL    HW242583   1.899   6.467   2.292  0.0028  0.7297 -1.1432
10287SOL     OW42584   7.154   7.980   4.718 -0.1537 -0.0029 -0.1126
10287SOL    HW142585   7.068   7.969   4.679  0.5199 -1.7545 -1.2493
10287SOL    HW242586   7.204   8.030   4.653 -0.0569  0.2304  0.1390
10288SOL     OW42587   7.302   1.993   9.919 -0.2196 -0.6206  0.6208
10288SOL    HW142588   7.357   2.033   9.986 -0.1716 -0.8960  0.7441
10288SOL    HW242589   7.217   2.037   9.929  0.3565  0.8468 -0.5020
10289SOL     OW42590   4.268   8.765  11.270  0.0424 -0.3581 -0.0199
10289SOL    HW142591   4.258   8.736  11.361 -0.4578 -0.0251  0.0340
10289SOL    HW242592   4.358   8.741  11.247  0.0298 -0.8392  0.4206
10290SOL     OW42593   3.295   5.300   9.776  0.1463 -0.1856  0.1939
10290SOL    HW142594   3.369   5.361   9.771 -0.1881  0.1458 -1.9796
10290SOL    HW242595   3.249   5.324   9.856  0.1284  2.3642 -0.4681
10291SOL     OW42596   8.873   8.807   5.593  0.3620  0.1169 -0.5661
10291SOL    HW142597   8.858   8.900   5.576  0.9349  0.7123  1.8254
10291SOL    HW242598   8.786   8.772   5.613  0.3156  0.4454 -0.1853
10292SOL     OW42599   3.613  11.222  10.293 -0.3875  0.4181  0.8760
10292SOL    HW142600   3.617  11.255  10.383 -1.7041  2.9886  0.0833
10292SOL    HW242601   3.588  11.298  10.240  2.4227 -0.4224 -2.0272
10293SOL     OW42602   6.300   7.380   8.741  0.6721 -0.2738 -0.0012
10293SOL    HW142603   6.238   7.401   8.811  1.5460  0.8812  0.4640
10293SOL    HW242604   6.248   7.330   8.677 -0.7137  0.5906  0.3973
10294SOL     OW42605  11.142   0.087  11.889  0.5677  0.2738  0.2476
10294SOL    HW142606  11.119   0.018  11.951  0.2128  1.6378  1.6880
10294SOL    HW242607  11.058   0.124  11.862  0.7790  0.5145 -0.0802
10295SOL     OW42608  11.010   7.898   5.686 -0.5346 -0.1939 -0.9334
10295SOL    HW142609  11.030   7.933   5.773 -1.6228  1.7472 -1.4121
10295SOL    HW242610  10.969   7.813   5.704 -0.6557  0.1232  0.4350
10296SOL     OW42611   7.822   6.891  11.508  0.3499  0.8291  0.8770
10296SOL    HW142612   7.840   6.822  11.444  0.5303  0.4360  1.3458
10296SOL    HW242613   7.811   6.970  11.455 -0.3176  0.3642  0.2937
10297SOL     OW42614   4.331  10.119   7.137  0.0613  0.2455 -0.5015
10297SOL    HW142615   4.288  10.177   7.199 -1.4312 -1.6396  0.3132
10297SOL    HW242616   4.419  10.107   7.171 -0.8813 -1.1722  1.6492
10298SOL     OW42617   8.844   5.349   9.890  0.1695 -0.7600  0.4143
10298SOL    HW142618   8.781   5.308   9.831 -1.3653  1.5392  0.3059
10298SOL    HW242619   8.805   5.342   9.977 -0.9577  1.6956  0.2038
10299SOL     OW42620   6.001  11.487   8.820  0.2359  0.2141 -0.1925
10299SOL    HW142621   5.953  11.405   8.828  1.6114 -0.5894  0.1287
10299SOL    HW242622   5.948  11.551   8.868 -0.1140 -0.8238  0.8479
10300SOL     OW42623   1.862   9.121   4.254  0.2031  0.3705 -0.5625
10300SOL    HW142624   1.796   9.190   4.264 -0.2452 -0.1062 -0.1853
10300SOL    HW242625   1.881   9.093   4.344  2.6156  2.0639 -0.4462
10301SOL     OW42626  10.310   7.943   0.334  0.7633  0.0168 -0.5672
10301SOL    HW142627  10.214   7.953   0.329  0.7865  2.5135  1.9218
10301SOL    HW242628  10.339   7.953   0.243 -1.3137 -1.7054 -1.5388
10302SOL     OW42629   4.319   8.664   1.534 -0.1061  0.3936  0.1927
10302SOL    HW142630   4.275   8.580   1.521  1.3354 -0.0976 -2.0950
10302SOL    HW242631   4.251   8.730   1.520 -0.6241 -0.3803 -1.0474
10303SOL     OW42632  10.224   5.630  11.625  0.4640  0.9097  0.0879
10303SOL    HW142633  10.219   5.635  11.721 -1.0821  3.1225 -0.0313
10303SOL    HW242634  10.192   5.715  11.595 -2.5281 -0.9308 -2.5125
10304SOL     OW42635   5.641   2.182   6.318 -0.3099 -0.5354  0.2606
10304SOL    HW142636   5.718   2.239   6.324  1.6214 -3.0574  1.5586
10304SOL    HW242637   5.604   2.200   6.232  1.6759  0.8664 -0.3620
10305SOL     OW42638   2.909   1.207  10.153 -0.2446 -0.0522 -0.1256
10305SOL    HW142639   2.825   1.200  10.106  0.3056 -1.0869 -1.0029
10305SOL    HW242640   2.884   1.208  10.245 -1.1831 -2.1309 -0.2854
10306SOL     OW42641   6.879   2.872   6.894  0.2524  0.1839 -0.0808
10306SOL    HW142642   6.840   2.801   6.842  0.0576 -0.1038  0.4462
10306SOL    HW242643   6.815   2.887   6.964 -0.1189  1.4634 -0.6584
10307SOL     OW42644   1.671   3.519   6.247 -0.5736 -0.3441  0.7481
10307SOL    HW142645   1.751   3.517   6.300 -1.8346  0.1794  2.7773
10307SOL    HW242646   1.670   3.434   6.201  1.9283  0.2866 -0.6383
10308SOL     OW42647   7.783   7.923   9.591 -0.5658  0.0863  0.1906
10308SOL    HW142648   7.830   7.977   9.654 -0.0343  2.0888 -1.7952
10308SOL    HW242649   7.832   7.840   9.588  2.3308  1.6928 -1.0045
10309SOL     OW42650   3.819  10.455   6.032  0.3673  0.2334  0.1149
10309SOL    HW142651   3.902  10.446   6.079  0.5816  1.7640  0.0824
10309SOL    HW242652   3.845  10.472   5.941 -0.0221 -0.8996 -0.2215
10310SOL     OW42653   1.100  10.206   8.692  0.0440  0.2602 -0.1003
10310SOL    HW142654   1.112  10.122   8.737  0.5331  0.6880  0.5738
10310SOL    HW242655   1.177  10.257   8.716 -1.9353  2.2780  2.4696
10311SOL     OW42656   5.033  10.457  10.631  0.4809  0.8821  0.0814
10311SOL    HW142657   5.029  10.365  10.657 -0.5318  0.6175 -0.9029
10311SOL    HW242658   5.000  10.505  10.707  0.9386  0.4324  0.5736
10312SOL     OW42659   8.365   6.026   4.700 -0.4892 -0.0577  0.0954
10312SOL    HW142660   8.402   6.114   4.699 -0.0157 -0.2467 -1.0097
10312SOL    HW242661   8.440   5.969   4.716 -0.4223 -0.3776 -1.2023
10313SOL     OW42662  11.169   0.761   4.016  0.4382 -0.5116 -0.3055
10313SOL    HW142663  11.140   0.698   3.951  0.2376  1.0852 -1.8669
10313SOL    HW242664  11.090   0.810   4.039  0.3650 -1.4872  1.7302
10314SOL     OW42665   6.375   5.793   7.234 -0.0009  0.0292  0.1405
10314SOL    HW142666   6.288   5.772   7.201 -1.1268  0.3406  2.6343
10314SOL    HW242667   6.435   5.744   7.178 -1.9771 -3.0835  0.5019
10315SOL     OW42668   8.565   5.885  10.579  0.3297  0.0762 -0.5411
10315SOL    HW142669   8.521   5.895  10.494 -1.2242  0.1801  0.2401
10315SOL    HW242670   8.550   5.969  10.623 -0.0518 -0.4415  0.3453
10316SOL     OW42671   2.793   2.971   0.711 -0.7828 -0.4074  0.0401
10316SOL    HW142672   2.706   2.944   0.741 -0.5187 -2.1393 -0.6168
10316SOL    HW242673   2.777   3.018   0.629 -1.3561  2.7476  1.7990
10317SOL     OW42674   5.065   8.984   0.185 -0.1734 -0.1031 -0.0035
10317SOL    HW142675   5.089   9.006   0.275  0.7345 -0.3122 -0.1835
10317SOL    HW242676   4.976   8.950   0.192 -0.6766  1.2576  0.6148
10318SOL     OW42677   5.654   4.661  11.891  0.3586 -0.1494  0.2552
10318SOL    HW142678   5.663   4.625  11.803  1.5006 -0.9439  0.6665
10318SOL    HW242679   5.695   4.747  11.886 -1.5932  0.7941 -0.5162
10319SOL     OW42680   3.368  10.666   4.544  0.3060  0.1099  0.3006
10319SOL    HW142681   3.278  10.679   4.514  1.7145  0.4681 -4.6688
10319SOL    HW242682   3.396  10.752   4.575 -0.0557  0.9460 -1.5807
10320SOL     OW42683   3.997   9.068   2.734  0.4555 -0.2963 -0.0959
10320SOL    HW142684   3.999   9.155   2.695 -0.5438 -0.4565 -0.5438
10320SOL    HW242685   4.061   9.072   2.805  2.4645 -0.0604 -1.8302
10321SOL     OW42686   2.412   3.528   2.430  0.2561 -0.4813 -0.4213
10321SOL    HW142687   2.369   3.444   2.410 -0.0511 -0.0709 -1.5867
10321SOL    HW242688   2.485   3.532   2.369  0.3881  0.0122 -0.2304
10322SOL     OW42689  10.521   7.865  10.556  0.0213 -0.5943  0.0589
10322SOL    HW142690  10.497   7.905  10.473 -1.6438 -1.7801 -0.0816
10322SOL    HW242691  10.593   7.919  10.589  0.9911 -0.3507 -2.3236
10323SOL     OW42692   2.518   2.497   9.746 -0.1653  0.2701 -0.2106
10323SOL    HW142693   2.508   2.458   9.659  0.7275  0.5137 -0.4318
10323SOL    HW242694   2.609   2.525   9.749 -0.3517  0.8099  0.5838
10324SOL     OW42695   6.724   8.333   6.161  0.0143  0.2912 -0.1845
10324SOL    HW142696   6.789   8.324   6.231 -0.0212 -1.3593 -0.3099
10324SOL    HW242697   6.774   8.366   6.086  0.4911  0.0889  0.0411
10325SOL     OW42698   6.150   9.500   0.524  0.1516  0.0999  0.4630
10325SOL    HW142699   6.181   9.518   0.435 -2.1970  1.0449 -0.2412
10325SOL    HW242700   6.154   9.585   0.568 -1.8209  0.3765  0.1830
10326SOL     OW42701   4.769   2.729   7.903  0.1144 -0.5230  0.4514
10326SOL    HW142702   4.683   2.767   7.887 -0.0143 -0.7041  0.6946
10326SOL    HW242703   4.756   2.635   7.892  0.6730 -0.4306 -1.1982
10327SOL     OW42704   0.269  11.021  10.308  0.0032 -1.1502 -0.3806
10327SOL    HW142705   0.333  11.072  10.260  0.2081 -2.1264 -1.1731
10327SOL    HW242706   0.270  11.058  10.397 -0.7880  1.0486 -1.2195
10328SOL     OW42707   9.583   9.286   6.516  0.4134  0.0241  0.0118
10328SOL    HW142708   9.492   9.263   6.535  0.0473  0.8333 -0.7123
10328SOL    HW242709   9.632   9.206   6.534 -0.1583  0.1396  2.3915
10329SOL     OW42710  11.933  11.804   4.783 -0.3464  0.1732 -0.4182
10329SOL    HW142711  11.977  11.811   4.698  0.9606 -0.6796  0.1489
10329SOL    HW242712  11.892  11.718   4.783 -1.1550  0.5495 -0.5365
10330SOL     OW42713   8.398   8.113   5.718  0.2782  0.3366  0.2393
10330SOL    HW142714   8.445   8.172   5.660  0.1531  0.9825  0.7765
10330SOL    HW242715   8.398   8.158   5.803 -2.6657  1.1446 -0.0904
10331SOL     OW42716   3.613   3.619   6.273  0.0521 -0.1876  0.0898
10331SOL    HW142717   3.698   3.609   6.316  0.2514  1.0471  0.0199
10331SOL    HW242718   3.580   3.703   6.303 -0.1176  0.4096 -1.6248
10332SOL     OW42719   3.566   5.042   7.806 -0.1616 -0.3878 -0.1687
10332SOL    HW142720   3.660   5.049   7.793 -0.4676  0.5536 -2.3035
10332SOL    HW242721   3.530   5.121   7.766 -1.7844  0.0258  1.9256
10333SOL     OW42722  11.178   3.068   7.589  0.2505 -0.1164 -0.4110
10333SOL    HW142723  11.203   3.007   7.519 -3.3044 -1.1526 -0.9830
10333SOL    HW242724  11.167   3.012   7.666  0.9234  0.4953  0.1361
10334SOL     OW42725   2.673   1.782   3.954  0.3202  0.3813  0.8219
10334SOL    HW142726   2.765   1.772   3.928  0.1880  0.3558  0.3515
10334SOL    HW242727   2.677   1.821   4.041  0.7685  1.7667  0.2061
10335SOL     OW42728   6.190   0.777   5.637 -0.3135 -0.2450  0.1711
10335SOL    HW142729   6.189   0.869   5.663  0.5388 -0.3994  0.7721
10335SOL    HW242730   6.124   0.735   5.692  0.6908 -0.3564  1.3331
10336SOL     OW42731   8.160   9.477   6.594 -0.2804 -0.5674  0.4556
10336SOL    HW142732   8.103   9.550   6.615  1.0524  0.1528  1.7691
10336SOL    HW242733   8.101   9.405   6.571 -1.7184 -0.0229  2.2835
10337SOL     OW42734  10.270   3.481   4.839  0.2941 -0.5737  0.3470
10337SOL    HW142735  10.271   3.417   4.768  2.7336 -0.3692  0.1218
10337SOL    HW242736  10.191   3.533   4.823 -0.3783 -1.9041 -0.9162
10338SOL     OW42737   8.798   7.604   2.548  0.0311  0.2434  0.0364
10338SOL    HW142738   8.814   7.546   2.623 -0.7781 -1.3781 -0.9811
10338SOL    HW242739   8.759   7.682   2.586  2.7281  0.9121  1.6570
10339SOL     OW42740   7.782   8.258   9.724 -0.1656 -0.7955 -0.0695
10339SOL    HW142741   7.789   8.308   9.805  0.4874 -1.7991  0.5228
10339SOL    HW242742   7.688   8.243   9.714 -0.5277  1.6754 -1.0175
10340SOL     OW42743   3.098   5.441  11.886 -0.1677 -0.1512  0.3645
10340SOL    HW142744   3.079   5.457  11.794 -0.9407 -1.4482  0.2725
10340SOL    HW242745   3.038   5.370  11.911  0.8282 -0.6143  1.5499
10341SOL     OW42746   0.181   3.962   9.310 -0.2048 -0.0192 -0.4386
10341SOL    HW142747   0.133   3.894   9.262 -0.8339 -0.3666  0.6554
10341SOL    HW242748   0.273   3.937   9.301 -0.4423 -1.1929  0.1911
10342SOL     OW42749   2.915   5.825   2.789 -0.5787 -0.6717  0.0393
10342SOL    HW142750   2.891   5.794   2.701 -0.7361  0.2556 -0.2484
10342SOL    HW242751   2.848   5.787   2.846 -0.2973 -1.5358 -0.1876
10343SOL     OW42752   7.022  10.623  10.928  0.4061 -0.4298  0.2016
10343SOL    HW142753   7.083  10.697  10.930 -0.4827  0.3131  2.0470
10343SOL    HW242754   6.995  10.618  10.836 -0.1712  2.1557  0.1274
10344SOL     OW42755   7.821   3.277   0.686  0.5187  0.7170  0.4741
10344SOL    HW142756   7.839   3.357   0.638  1.2363 -0.1230 -0.6940
10344SOL    HW242757   7.797   3.307   0.774 -1.4556  2.3302 -0.5310
10345SOL     OW42758   2.891   6.172   1.190  0.5230 -0.0372 -0.6630
10345SOL    HW142759   2.857   6.227   1.120  1.3661 -0.2371 -1.2557
10345SOL    HW242760   2.966   6.221   1.224  0.3346 -0.1080 -0.1473
10346SOL     OW42761   2.764   0.292  10.952  0.7137 -0.4934  0.5431
10346SOL    HW142762   2.849   0.248  10.960  0.2967 -1.3062  0.5619
10346SOL    HW242763   2.700   0.225  10.973 -0.1889 -1.0528 -3.3462
10347SOL     OW42764   2.135  11.527  11.132  0.0047  0.4571  0.2464
10347SOL    HW142765   2.062  11.496  11.079  0.0958  0.4263  0.1370
10347SOL    HW242766   2.115  11.498  11.221 -0.1255  0.4679  0.2207
10348SOL     OW42767   4.897  11.427   5.945  0.2928 -0.1896  0.2432
10348SOL    HW142768   4.841  11.504   5.936  0.2053  0.0402  2.2595
10348SOL    HW242769   4.977  11.449   5.897 -0.4005  0.4259 -0.6765
10349SOL     OW42770  10.299   4.954   3.815 -1.0836 -0.0427  0.2251
10349SOL    HW142771  10.270   5.039   3.781  1.7149  0.4323 -1.3077
10349SOL    HW242772  10.237   4.933   3.884 -0.9531  4.0610  1.8656
10350SOL     OW42773   2.287   1.774   3.561 -0.0084 -0.0929  0.1058
10350SOL    HW142774   2.319   1.705   3.618  1.8883  1.6301  1.2451
10350SOL    HW242775   2.234   1.829   3.618 -1.2647 -0.3900 -0.7277
10351SOL     OW42776   3.850   2.206   1.004 -0.3986 -0.2569 -0.0542
10351SOL    HW142777   3.889   2.263   0.938 -0.4354  0.7121  0.7244
10351SOL    HW242778   3.756   2.223   0.998 -0.4850 -0.8280 -0.3446
10352SOL     OW42779   1.276  10.027  10.565  0.3531 -0.3285 -0.1793
10352SOL    HW142780   1.329   9.970  10.621 -0.1896 -1.0491 -0.3857
10352SOL    HW242781   1.209  10.062  10.624  1.6424  1.4101  0.3272
10353SOL     OW42782  11.091   2.691   1.356  0.7457 -0.1411 -0.2732
10353SOL    HW142783  11.047   2.606   1.350  2.3316 -1.0665  0.5262
10353SOL    HW242784  11.021   2.752   1.379 -1.3907 -0.2917 -5.0982
10354SOL     OW42785   4.117   2.546   8.820 -0.0445  0.1832  0.1863
10354SOL    HW142786   4.170   2.604   8.876  1.6702 -2.2404  1.2449
10354SOL    HW242787   4.153   2.559   8.732  0.7170  0.3405  0.5052
10355SOL     OW42788   5.112   7.987  11.820 -0.1328  0.2542 -0.0957
10355SOL    HW142789   5.183   7.946  11.869  0.6937  0.2418 -1.2643
10355SOL    HW242790   5.035   7.935  11.842  0.9078 -2.1191 -1.6579
10356SOL     OW42791  10.174   7.995   5.347  0.0309  0.3296  0.3418
10356SOL    HW142792  10.152   7.923   5.288 -0.3915  0.8483 -0.1433
10356SOL    HW242793  10.142   7.967   5.433 -1.7669  0.6958 -0.1793
10357SOL     OW42794   7.532   3.275   4.688  0.2863  0.0463  0.0051
10357SOL    HW142795   7.481   3.227   4.623 -0.4774 -1.7337  1.8035
10357SOL    HW242796   7.623   3.258   4.666  0.0648  0.2830 -1.1438
10358SOL     OW42797   5.365   5.202   3.773  0.2995 -0.5183 -0.2265
10358SOL    HW142798   5.341   5.229   3.861 -0.5914  1.9723 -1.1593
10358SOL    HW242799   5.441   5.256   3.751 -1.0422  0.8333 -1.8618
10359SOL     OW42800   5.870   4.182   7.299 -0.3235  0.5313 -0.3359
10359SOL    HW142801   5.899   4.152   7.213 -2.0278 -2.4279 -0.0145
10359SOL    HW242802   5.893   4.110   7.358  0.9914  2.5752  1.8065
10360SOL     OW42803   1.328  10.141   9.254  0.0894  0.3467  0.8078
10360SOL    HW142804   1.395  10.170   9.316  0.4403 -0.2573  0.7252
10360SOL    HW242805   1.372  10.074   9.202 -0.0485  1.1733 -0.4105
10361SOL     OW42806   2.211   7.372   1.497  0.3052 -0.7773 -0.0623
10361SOL    HW142807   2.289   7.410   1.458  1.1337 -0.8648  1.4225
10361SOL    HW242808   2.139   7.423   1.462  1.2681  1.2538  0.7488
10362SOL     OW42809   9.201   0.167   0.873  0.0009 -0.4821  0.5465
10362SOL    HW142810   9.191   0.189   0.965  0.0993  0.4442  0.3544
10362SOL    HW242811   9.150   0.234   0.827  0.1851 -0.7623 -0.0763
10363SOL     OW42812   7.043   9.904  11.424  0.2483  0.0219  0.9411
10363SOL    HW142813   7.111   9.857  11.376 -0.7753 -0.4224 -0.1285
10363SOL    HW242814   7.063   9.887  11.516  0.7029 -1.3641  0.6125
10364SOL     OW42815   9.710   0.940   4.065  0.1597 -0.5754 -0.4548
10364SOL    HW142816   9.709   0.856   4.019  0.0114 -1.2260  0.7041
10364SOL    HW242817   9.618   0.962   4.077  0.1956 -0.0374 -1.0970
10365SOL     OW42818   2.601  10.420  11.681  0.4032  0.2327 -0.5240
10365SOL    HW142819   2.660  10.362  11.634 -0.7223  0.2985 -2.0922
10365SOL    HW242820   2.586  10.493  11.621 -2.3850 -0.4922 -0.8305
10366SOL     OW42821   9.740   7.845   9.079  0.1914  0.5050 -0.3059
10366SOL    HW142822   9.649   7.816   9.073  0.5973 -0.6310 -1.8076
10366SOL    HW242823   9.772   7.810   9.162 -0.6775  0.7372  0.1288
10367SOL     OW42824   5.669   5.004   7.659 -0.2277  0.3567  0.3449
10367SOL    HW142825   5.609   4.975   7.590  0.2460 -2.2998  0.9311
10367SOL    HW242826   5.618   4.997   7.739 -0.6478  3.0453  0.4098
10368SOL     OW42827   9.060  10.094   7.162 -0.1897 -0.6880 -0.0724
10368SOL    HW142828   9.005  10.053   7.095 -0.2281 -1.2971  0.3196
10368SOL    HW242829   9.123  10.147   7.113 -0.7835 -0.4113 -0.5502
10369SOL     OW42830   0.974   5.339   1.422 -0.0406  0.3038 -0.1108
10369SOL    HW142831   0.881   5.353   1.406  0.3857  1.7837 -1.5426
10369SOL    HW242832   0.988   5.246   1.403 -0.9552  0.3890 -1.3433
10370SOL     OW42833   3.227   8.143   3.598  0.1748 -0.0654  0.3663
10370SOL    HW142834   3.305   8.105   3.638 -0.7892 -0.5189  1.8660
10370SOL    HW242835   3.179   8.068   3.564 -0.1708  0.1108  0.4679
10371SOL     OW42836  10.594   4.944   3.329  0.1481  0.3365 -0.5741
10371SOL    HW142837  10.600   5.030   3.370  1.4652 -0.3409  0.7763
10371SOL    HW242838  10.684   4.911   3.330 -0.3044 -0.9844 -1.2162
10372SOL     OW42839   5.575  11.335   4.075  0.1498 -0.2167 -0.6804
10372SOL    HW142840   5.666  11.364   4.082  0.1948 -0.2282 -1.1599
10372SOL    HW242841   5.544  11.332   4.165  0.6880 -0.4164 -0.4933
10373SOL     OW42842   3.490  11.717   2.617 -0.5433 -0.0171 -0.0905
10373SOL    HW142843   3.477  11.623   2.625  1.4416 -0.2381  1.0014
10373SOL    HW242844   3.585  11.729   2.624 -0.7068  2.0239 -0.7516
10374SOL     OW42845   4.158   1.819   7.414  0.7838 -0.1164 -0.4918
10374SOL    HW142846   4.121   1.808   7.326 -0.0041  2.0768 -0.4955
10374SOL    HW242847   4.168   1.914   7.424  1.4257 -0.3540  1.5658
10375SOL     OW42848   4.852  11.414   2.619  0.1408  0.1943  0.4073
10375SOL    HW142849   4.865  11.373   2.533 -0.1487 -0.4473  0.6691
10375SOL    HW242850   4.935  11.457   2.638  0.7612 -1.0250  0.5370
10376SOL     OW42851   1.743   4.181  11.369  0.4561  0.1213 -0.3008
10376SOL    HW142852   1.806   4.112  11.349  1.0660  0.4857  0.3307
10376SOL    HW242853   1.680   4.177  11.297  1.3561 -0.0582 -1.0991
10377SOL     OW42854   9.729   8.310   9.230 -0.9233 -0.3936  0.4631
10377SOL    HW142855   9.770   8.382   9.280  0.7481  0.9527 -2.5583
10377SOL    HW242856   9.803   8.260   9.195 -1.7981  0.3624 -2.7893
10378SOL     OW42857   7.960   3.172  10.077 -0.4678  0.2802 -0.0775
10378SOL    HW142858   7.956   3.251  10.023 -0.2359  1.1980  1.1919
10378SOL    HW242859   7.890   3.116  10.043 -0.7606  1.1142 -0.8865
10379SOL     OW42860   1.220   2.672  10.559 -0.1479 -0.0024 -0.4120
10379SOL    HW142861   1.222   2.655  10.465 -1.2708 -0.2250 -0.4145
10379SOL    HW242862   1.196   2.765  10.566  2.2085  0.6593 -0.3515
10380SOL     OW42863   0.148   2.998   7.577 -0.0340 -0.0989 -0.7668
10380SOL    HW142864   0.106   3.054   7.643 -1.1299 -0.9752 -0.6967
10380SOL    HW242865   0.103   2.914   7.585  0.1723 -0.3795 -2.2874
10381SOL     OW42866   7.512   1.321   5.139 -0.3378  0.0851 -0.5817
10381SOL    HW142867   7.436   1.377   5.152  0.4280  1.5170 -1.8733
10381SOL    HW242868   7.511   1.300   5.045  0.3609 -0.6208 -0.4415
10382SOL     OW42869   3.671   5.491   4.544  0.0031  0.1699 -0.2630
10382SOL    HW142870   3.638   5.561   4.488 -0.8968  1.2876  1.5665
10382SOL    HW242871   3.638   5.512   4.632 -1.0902 -3.0370  0.2312
10383SOL     OW42872   7.624   8.464   0.857  0.2230 -0.2177  0.5383
10383SOL    HW142873   7.637   8.496   0.768  0.9994 -0.0076  0.7207
10383SOL    HW242874   7.661   8.532   0.914 -1.1144  0.0903  1.0714
10384SOL     OW42875   5.068   5.365   0.470  0.0305 -0.7161  0.0006
10384SOL    HW142876   5.159   5.391   0.458 -0.2659  0.5066  0.3311
10384SOL    HW242877   5.021   5.409   0.400 -0.7227  1.0485  1.5454
10385SOL     OW42878   5.127   4.148   9.458 -0.0799 -0.2413  0.0309
10385SOL    HW142879   5.148   4.217   9.520  0.4996 -0.3946  0.0167
10385SOL    HW242880   5.032   4.152   9.447 -0.0527  0.5074  0.0708
10386SOL     OW42881   1.433  11.905   7.681  0.3030  0.2720  0.0365
10386SOL    HW142882   1.378  11.854   7.740  1.4592 -1.5766 -0.3965
10386SOL    HW242883   1.381  11.915   7.602 -0.3021  0.6326  0.4672
10387SOL     OW42884   5.778  11.454   3.056 -0.6235  0.1968  0.0365
10387SOL    HW142885   5.849  11.455   3.121 -0.8127  1.1695  0.2447
10387SOL    HW242886   5.747  11.364   3.056 -0.1791  0.0326  0.8184
10388SOL     OW42887   5.962   4.075  11.113 -0.5633 -0.0363  0.0120
10388SOL    HW142888   5.907   4.129  11.170 -0.3442  0.2570 -0.0511
10388SOL    HW242889   5.996   4.007  11.171  0.2355  0.6733  0.4167
10389SOL     OW42890   3.647   2.476   4.866 -0.4946 -0.5146  0.6991
10389SOL    HW142891   3.715   2.536   4.896 -0.9531 -0.1837  1.1059
10389SOL    HW242892   3.694   2.403   4.826  0.0592  0.3132 -0.1754
10390SOL     OW42893   9.578   1.546   2.119 -0.5417 -0.0098 -0.0701
10390SOL    HW142894   9.580   1.598   2.039 -1.1923 -1.6882 -1.2116
10390SOL    HW242895   9.487   1.549   2.148 -0.4343  0.0526  0.2761
10391SOL     OW42896   4.143  10.025   2.659  0.4583  0.2189  0.1341
10391SOL    HW142897   4.121  10.071   2.578 -0.0081  0.0548  0.1640
10391SOL    HW242898   4.126   9.933   2.639 -3.5244  0.4461  1.5829
10392SOL     OW42899   8.195   9.739   4.655 -0.2581  0.2125 -0.4801
10392SOL    HW142900   8.131   9.715   4.589  0.7413 -0.2166 -1.3271
10392SOL    HW242901   8.280   9.716   4.616  0.4377  1.0480  0.4715
10393SOL     OW42902  10.293   3.485  10.617  0.3480  0.0018  0.2437
10393SOL    HW142903  10.284   3.471  10.711 -0.1345 -1.7522 -0.0187
10393SOL    HW242904  10.359   3.554  10.609  0.6684 -0.0751  1.8583
10394SOL     OW42905   5.451   0.890   6.619  0.2368 -0.1253  0.1100
10394SOL    HW142906   5.398   0.826   6.666 -2.2882  1.5346 -0.2969
10394SOL    HW242907   5.416   0.975   6.646  0.9386  0.9839 -2.1799
10395SOL     OW42908   4.373   8.660   5.834 -0.3456 -0.7921 -0.7088
10395SOL    HW142909   4.390   8.674   5.928 -0.9944  0.1731 -0.7148
10395SOL    HW242910   4.334   8.743   5.805  0.5653 -0.8019 -2.0123
10396SOL     OW42911   0.738   5.597   0.279 -0.0326 -0.3178  0.0655
10396SOL    HW142912   0.776   5.647   0.206 -0.5130  0.1985  0.1614
10396SOL    HW242913   0.658   5.645   0.302  0.2253 -0.3540  1.0754
10397SOL     OW42914   8.039   0.714   2.387 -0.0623  0.2796 -0.6946
10397SOL    HW142915   8.006   0.659   2.458 -0.9186  0.9435 -0.5585
10397SOL    HW242916   7.992   0.797   2.397  0.1974  0.5668 -1.7129
10398SOL     OW42917   7.077   5.950  10.666 -0.2528  0.2864 -0.5214
10398SOL    HW142918   7.060   5.856  10.658 -0.5995  0.2910  0.1109
10398SOL    HW242919   7.164   5.955  10.706  0.0676  0.2466 -1.1934
10399SOL     OW42920  10.915   7.580  11.457 -0.1128 -0.0322 -0.5112
10399SOL    HW142921  10.904   7.558  11.365  0.6396  1.2647 -0.9339
10399SOL    HW242922  11.006   7.556  11.476 -0.4696 -0.9537  0.1025
10400SOL     OW42923   6.156   4.465   1.218  0.3022 -0.0264 -0.1597
10400SOL    HW142924   6.192   4.401   1.157  1.9555  1.5597 -0.9304
10400SOL    HW242925   6.136   4.541   1.164 -1.5294  0.1929  0.7525
10401SOL     OW42926  10.979   6.130   7.619 -0.2104 -0.1433 -0.4033
10401SOL    HW142927  10.934   6.070   7.678  1.6671  0.1206  1.4379
10401SOL    HW242928  11.024   6.192   7.677  2.3718 -0.3131 -2.0211
10402SOL     OW42929   4.520   2.546   4.620  0.0877  0.1085  0.6194
10402SOL    HW142930   4.554   2.580   4.537  0.2545  0.0581  0.6667
10402SOL    HW242931   4.425   2.545   4.608  0.1233 -0.1343  0.3384
10403SOL     OW42932   6.723  10.962  11.346 -0.4076 -0.2669  0.2888
10403SOL    HW142933   6.649  10.918  11.386  0.7703 -1.7349  0.9467
10403SOL    HW242934   6.734  11.042  11.398 -1.5066 -0.0331  0.1765
10404SOL     OW42935   5.884   2.093   3.836 -0.1435 -0.2412  0.1365
10404SOL    HW142936   5.843   2.135   3.760  0.8044 -0.1413 -0.3303
10404SOL    HW242937   5.962   2.050   3.801  1.5643  1.6355  1.3492
10405SOL     OW42938   7.657   3.356   5.240  0.9700 -0.1146  0.3977
10405SOL    HW142939   7.696   3.353   5.153  2.0054  0.2762  0.8419
10405SOL    HW242940   7.691   3.278   5.284 -0.6509 -1.0884  0.0215
10406SOL     OW42941   2.505  11.259   4.436 -0.0770  0.3806 -0.5688
10406SOL    HW142942   2.516  11.259   4.341  0.3379 -1.6569 -0.5664
10406SOL    HW242943   2.541  11.175   4.464 -0.6830  0.7158  1.3384
10407SOL     OW42944   9.803   2.685   9.531  0.1033  0.0098 -0.2485
10407SOL    HW142945   9.731   2.740   9.501 -0.1329 -0.1241  0.0746
10407SOL    HW242946   9.796   2.685   9.626 -0.9844 -2.0382 -0.2738
10408SOL     OW42947   8.981   7.605   4.072  0.4604  0.0754 -0.3367
10408SOL    HW142948   8.957   7.516   4.098  0.2661  0.2197 -0.0206
10408SOL    HW242949   8.936   7.661   4.135  1.5343  0.3550  0.2107
10409SOL     OW42950   5.283   6.426  10.473 -0.1510  0.6854  0.7824
10409SOL    HW142951   5.206   6.393  10.426 -0.7667  1.7183  1.0098
10409SOL    HW242952   5.256   6.429  10.565  0.8580 -0.8040  1.1517
10410SOL     OW42953   5.839   2.505   2.153 -0.5746  0.0533 -0.3586
10410SOL    HW142954   5.927   2.516   2.188 -1.0228  1.3053  0.4250
10410SOL    HW242955   5.782   2.508   2.229 -1.2994 -1.0574 -0.8246
10411SOL     OW42956   9.687   9.630  10.811  0.0850 -0.1303  0.1076
10411SOL    HW142957   9.596   9.659  10.806 -0.0204 -0.4448  0.2112
10411SOL    HW242958   9.696   9.566  10.741  1.0054  1.9740 -1.8321
10412SOL     OW42959  10.954   3.979  10.831 -0.0714 -0.3787 -0.4613
10412SOL    HW142960  11.045   4.007  10.835 -0.5952  1.8714 -1.8143
10412SOL    HW242961  10.912   4.023  10.905 -0.2912 -0.2199 -0.6749
10413SOL     OW42962   8.697   6.810   5.029  0.3055 -0.6184  0.1008
10413SOL    HW142963   8.737   6.756   5.098 -0.2030 -0.5450  0.4564
10413SOL    HW242964   8.771   6.859   4.992  0.6136 -0.7982  0.4658
10414SOL     OW42965   2.453   6.343   5.908 -0.2159 -0.4173 -0.4547
10414SOL    HW142966   2.381   6.362   5.848  1.2952  0.6962 -2.0185
10414SOL    HW242967   2.512   6.288   5.858  0.2706 -0.9176  0.6334
10415SOL     OW42968   7.114  11.473  11.558  0.4915 -0.1186 -0.6759
10415SOL    HW142969   7.154  11.452  11.642 -0.2198  1.2085  0.0285
10415SOL    HW242970   7.129  11.567  11.547 -0.2969 -0.0787 -1.5462
10416SOL     OW42971   7.283   8.076  11.374  0.8411  0.5457 -0.4566
10416SOL    HW142972   7.213   8.140  11.387  0.2416 -0.2465  0.3488
10416SOL    HW242973   7.338   8.086  11.452  0.3363 -0.4015  0.0401
10417SOL     OW42974   7.908   5.268   9.886  0.0958  0.5952  0.1555
10417SOL    HW142975   7.841   5.213   9.925  0.6503  0.9953  1.7596
10417SOL    HW242976   7.860   5.334   9.836 -0.6155 -0.3339 -0.4014
10418SOL     OW42977   9.132   4.915   0.104 -0.4256 -0.1781  0.6064
10418SOL    HW142978   9.215   4.963   0.096 -0.4521 -0.1669  0.4010
10418SOL    HW242979   9.065   4.982   0.092 -0.4614 -0.3097  0.0547
10419SOL     OW42980   7.793   2.789   4.517 -0.1154 -0.3516  0.2592
10419SOL    HW142981   7.842   2.805   4.598 -1.6297 -1.9246  1.5754
10419SOL    HW242982   7.781   2.694   4.515  0.0655 -0.3855 -1.9657
10420SOL     OW42983   3.336   2.678   0.356  0.0207  0.6615 -0.4920
10420SOL    HW142984   3.261   2.624   0.331 -0.8631  1.0588  1.2045
10420SOL    HW242985   3.312   2.767   0.328  0.0336  0.7250 -0.2995
10421SOL     OW42986   8.451   3.281   3.285  0.0578 -0.5182  0.2457
10421SOL    HW142987   8.541   3.309   3.267  0.4267 -0.8014  1.5541
10421SOL    HW242988   8.446   3.192   3.249  0.8119 -1.1134  1.5213
10422SOL     OW42989   5.492   5.598   7.202 -0.3529  0.5567  0.1914
10422SOL    HW142990   5.518   5.653   7.275  0.2971 -0.9277  1.1170
10422SOL    HW242991   5.536   5.514   7.217 -1.4580 -0.3037 -1.0564
10423SOL     OW42992   4.216   0.036  11.409  0.2540 -0.0287  0.4660
10423SOL    HW142993   4.310   0.038  11.391  0.3311 -0.3830  0.8238
10423SOL    HW242994   4.206   0.087  11.489  0.0880  0.3581  0.1996
10424SOL     OW42995   0.806   8.733   8.301  0.1426 -0.0742 -0.1278
10424SOL    HW142996   0.901   8.749   8.297  0.3380 -1.1818 -0.5518
10424SOL    HW242997   0.799   8.645   8.338 -0.5860 -1.0551 -2.4119
10425SOL     OW42998  10.332   5.168   2.092 -0.1790 -0.5676 -0.2455
10425SOL    HW142999  10.294   5.133   2.011  2.3359  0.3485 -1.9473
10425SOL    HW243000  10.396   5.103   2.119  1.8325  0.8512 -1.3248
10426SOL     OW43001  11.866   0.300   6.011 -0.2285  0.2770  0.8819
10426SOL    HW143002  11.933   0.294   5.943 -0.4841  1.9200  0.4627
10426SOL    HW243003  11.890   0.378   6.061 -0.9434 -0.0239  1.7135
10427SOL     OW43004   0.123   0.283   3.631 -0.8284 -0.2747  0.5667
10427SOL    HW143005   0.058   0.240   3.575 -0.8418  0.2539  0.1715
10427SOL    HW243006   0.157   0.212   3.686 -2.1169 -0.4727  1.1535
10428SOL     OW43007   8.396   1.192   8.521  0.0775  0.2497 -0.1125
10428SOL    HW143008   8.461   1.185   8.592  0.4988  1.4921 -0.3489
10428SOL    HW243009   8.448   1.211   8.443 -0.5609  1.3633 -0.2865
10429SOL     OW43010   7.522   4.653   5.026  0.2099  0.7723  0.0133
10429SOL    HW143011   7.515   4.679   4.934 -1.4015  0.7597  0.1030
10429SOL    HW243012   7.599   4.595   5.029 -0.4143 -0.2013 -1.5623
10430SOL     OW43013   6.965   5.441   1.763 -0.1805  0.0829  0.2082
10430SOL    HW143014   7.016   5.519   1.742 -1.0684  0.3489 -1.0891
10430SOL    HW243015   6.935   5.456   1.853  1.4386  0.2207  0.7475
10431SOL     OW43016   7.288   6.346   9.828  0.4036  0.0134  0.1152
10431SOL    HW143017   7.266   6.297   9.748  2.0000  0.0105 -0.3477
10431SOL    HW243018   7.335   6.423   9.797  0.6926  0.2163  1.0366
10432SOL     OW43019   2.285   2.290   4.289  0.4806 -0.2201 -0.2933
10432SOL    HW143020   2.190   2.295   4.280  0.3544  0.0446  0.9605
10432SOL    HW243021   2.318   2.364   4.238 -0.0571  0.2983  0.0951
10433SOL     OW43022   1.551   3.581   0.733 -0.0957 -0.3622  0.1220
10433SOL    HW143023   1.570   3.675   0.733  0.3808 -0.4260 -1.2947
10433SOL    HW243024   1.459   3.575   0.761  0.0767  0.4533  0.9268
10434SOL     OW43025  10.899   4.227   2.158 -0.9024 -0.4628  0.2155
10434SOL    HW143026  10.856   4.144   2.138 -0.0487 -0.5340 -1.4231
10434SOL    HW243027  10.842   4.294   2.119 -1.8311 -0.1800  1.9191
10435SOL     OW43028  11.409   4.248   8.845 -0.3025  0.7108  0.2586
10435SOL    HW143029  11.332   4.299   8.817 -0.8811  0.1106  0.7215
10435SOL    HW243030  11.484   4.299   8.814 -0.8874  0.9157 -0.8982
10436SOL     OW43031   1.129   2.818   5.413  0.0474  0.1839  0.4953
10436SOL    HW143032   1.213   2.859   5.392  0.2300  0.0915  1.0335
10436SOL    HW243033   1.091   2.797   5.328  0.1819  1.0055  0.2259
10437SOL     OW43034   4.800   2.750   0.931 -0.1076 -0.0988 -0.2689
10437SOL    HW143035   4.752   2.830   0.910  1.8480  0.4017 -3.6745
10437SOL    HW243036   4.892   2.777   0.928  0.5781 -2.3275 -1.0657
10438SOL     OW43037   7.104   1.893   7.171 -0.1701  0.4111  0.0359
10438SOL    HW143038   7.120   1.982   7.138  2.0564 -0.1065 -0.4398
10438SOL    HW243039   7.088   1.905   7.264 -0.1349  1.3373 -0.0646
10439SOL     OW43040   6.994   9.767   9.854 -0.4163 -0.1335  0.3778
10439SOL    HW143041   7.079   9.725   9.847  0.6463  2.0515 -1.0428
10439SOL    HW243042   6.964   9.777   9.763 -1.4212  0.5643  0.7608
10440SOL     OW43043   4.961  10.512   8.613  0.3595 -0.2021  0.0274
10440SOL    HW143044   5.001  10.517   8.700 -1.3812 -2.4250  1.0685
10440SOL    HW243045   5.035  10.506   8.553  1.6669  3.1446  1.0998
10441SOL     OW43046  10.061   0.204   8.240  0.0521 -0.1672 -0.0884
10441SOL    HW143047  10.153   0.216   8.218  0.3938 -0.6239  1.0282
10441SOL    HW243048  10.013   0.249   8.169  1.0957 -0.7234 -1.1807
10442SOL     OW43049   4.676   8.781  11.023  0.2148  0.1874  0.3016
10442SOL    HW143050   4.630   8.865  11.012 -0.7057 -0.3212  0.1876
10442SOL    HW243051   4.761   8.805  11.060 -0.7133  1.0403  1.9867
10443SOL     OW43052   1.059  11.214   3.459  0.0418 -0.2930  0.2383
10443SOL    HW143053   1.132  11.242   3.515 -0.5897  2.1014 -0.0238
10443SOL    HW243054   1.006  11.158   3.515 -0.0675  1.2768  1.7788
10444SOL     OW43055   8.988   1.683  10.124 -0.0864  0.6950  0.0298
10444SOL    HW143056   8.927   1.610  10.114 -0.1394  0.9297 -1.8164
10444SOL    HW243057   8.987   1.703  10.217 -2.5081  0.4038  0.1393
10445SOL     OW43058   9.327   5.500   0.296  0.2730 -0.6145  0.0880
10445SOL    HW143059   9.395   5.505   0.229 -1.3613  1.7603 -1.5662
10445SOL    HW243060   9.375   5.508   0.379  2.0269  1.9499 -1.0343
10446SOL     OW43061   8.847   2.111   8.796  0.6653 -0.3698  0.5537
10446SOL    HW143062   8.906   2.131   8.868 -1.0586  0.3873  1.8276
10446SOL    HW243063   8.844   2.191   8.743  0.1298 -0.0972  0.9863
10447SOL     OW43064  10.653   1.566  10.468  0.0273  0.1573 -0.4366
10447SOL    HW143065  10.723   1.609  10.516  0.7569  0.5825 -1.8258
10447SOL    HW243066  10.580   1.563  10.530  0.3924  2.1535  0.1829
10448SOL     OW43067   9.137   5.696   6.983 -0.1239 -0.6819 -0.6207
10448SOL    HW143068   9.171   5.624   7.036  0.5933  0.3263  0.3507
10448SOL    HW243069   9.043   5.698   7.002  0.0636 -0.5685  0.3541
10449SOL     OW43070   4.324   7.689   1.262 -0.0848 -0.2591 -0.1535
10449SOL    HW143071   4.320   7.606   1.310 -0.7199  0.1690  0.5501
10449SOL    HW243072   4.267   7.748   1.311  1.0881  0.8781 -0.1019
10450SOL     OW43073   1.056   1.793   9.771  0.0721 -0.2748  0.0100
10450SOL    HW143074   1.140   1.748   9.770  0.6515  0.7480  0.7491
10450SOL    HW243075   0.994   1.729   9.807  0.6891 -0.7950  0.1522
10451SOL     OW43076   0.835   1.081   2.417 -0.0269  0.6366 -0.0069
10451SOL    HW143077   0.887   1.064   2.496 -1.1882 -2.8178  0.1925
10451SOL    HW243078   0.889   1.045   2.346 -0.6486  0.1549 -0.2387
10452SOL     OW43079   9.789   3.852   0.501  0.0323  0.2980 -0.1433
10452SOL    HW143080   9.879   3.849   0.534 -0.4773  0.3624  1.2899
10452SOL    HW243081   9.775   3.944   0.479  0.1199  0.3886  0.1771
10453SOL     OW43082   3.819  10.379   9.336 -0.0720 -0.2160 -0.6301
10453SOL    HW143083   3.884  10.427   9.285 -0.1689  2.1387  1.2648
10453SOL    HW243084   3.750  10.358   9.273  1.3762 -0.5749 -2.1633
10454SOL     OW43085   5.346   0.798  11.778  0.1466 -0.4367  0.1172
10454SOL    HW143086   5.436   0.815  11.752  0.3335 -0.2942  0.8417
10454SOL    HW243087   5.338   0.703  11.776  0.3510 -0.4546  0.1802
10455SOL     OW43088   3.951   4.304   5.624 -0.5003  0.1432 -0.1648
10455SOL    HW143089   3.864   4.323   5.588  0.4635 -1.0527 -3.5663
10455SOL    HW243090   3.966   4.212   5.603  1.7207  0.4164 -0.0007
10456SOL     OW43091   2.740   1.976   0.239  0.1653  0.1203 -0.4779
10456SOL    HW143092   2.707   1.899   0.284 -0.0585  0.8825  0.7167
10456SOL    HW243093   2.766   1.945   0.153 -1.3514 -0.9822 -0.5691
10457SOL     OW43094   6.290   2.589   3.212  0.2975  0.0010 -0.0428
10457SOL    HW143095   6.346   2.590   3.290 -1.3890 -2.2373  1.3519
10457SOL    HW243096   6.270   2.496   3.199 -0.8056  0.4804 -2.1708
10458SOL     OW43097   1.718   1.976   4.967  0.3274  0.2034  0.2152
10458SOL    HW143098   1.713   1.905   5.031 -0.5340  0.3782  0.3542
10458SOL    HW243099   1.811   1.980   4.943  0.5834 -0.1863  1.0872
10459SOL     OW43100  11.609   5.285   4.823  0.4327 -0.5810 -0.4348
10459SOL    HW143101  11.588   5.227   4.749 -3.5724  0.2391 -0.2002
10459SOL    HW243102  11.612   5.372   4.785 -2.3095 -0.0719  0.2798
10460SOL     OW43103   3.259   7.519  11.009 -0.6210 -0.0565  0.0646
10460SOL    HW143104   3.281   7.529  11.101 -2.6527 -0.5699  0.6624
10460SOL    HW243105   3.318   7.452  10.977  0.7196  0.7686  0.7385
10461SOL     OW43106   7.129   0.420   9.782 -0.2206  0.4547 -0.0228
10461SOL    HW143107   7.148   0.454   9.695  2.0734  0.6759  0.5038
10461SOL    HW243108   7.208   0.439   9.833 -0.3003 -2.2898  1.3133
10462SOL     OW43109   8.983   4.418   8.387  0.6303 -0.1190  0.0022
10462SOL    HW143110   8.951   4.453   8.303  1.6341  1.8443  0.3872
10462SOL    HW243111   9.070   4.383   8.366  1.1385  0.9242  0.3156
10463SOL     OW43112   5.088   8.205   3.793 -0.2583  0.0462  0.0466
10463SOL    HW143113   5.113   8.296   3.779  0.2171  0.1281  1.3080
10463SOL    HW243114   4.997   8.209   3.823 -0.2800  0.0978 -0.0277
10464SOL     OW43115   5.247   4.202   0.856  0.7249 -0.3900 -0.3905
10464SOL    HW143116   5.204   4.277   0.813  0.3377 -0.6730 -0.5014
10464SOL    HW243117   5.340   4.219   0.845  0.6497  0.2941 -0.0461
10465SOL     OW43118   0.343   0.722  10.623  0.4637  0.3834  0.2329
10465SOL    HW143119   0.422   0.743  10.573  0.5055  0.5006  0.3488
10465SOL    HW243120   0.312   0.640  10.584  1.8721 -0.8831  1.5756
10466SOL     OW43121   5.756   8.276   1.713  0.1813 -0.0215  0.1946
10466SOL    HW143122   5.674   8.321   1.731 -0.6202 -1.9447  1.7811
10466SOL    HW243123   5.824   8.338   1.739 -0.8471  0.6649  1.3468
10467SOL     OW43124   0.087   4.061   6.314  0.8190 -0.5240  0.2718
10467SOL    HW143125   0.059   3.971   6.328  0.3815 -0.2901  0.9080
10467SOL    HW243126   0.150   4.055   6.242  0.8156 -1.3393  0.3277
10468SOL     OW43127   8.932  11.871   4.701 -0.1473 -0.0150 -0.0265
10468SOL    HW143128   9.008  11.857   4.757  0.3283  0.3233 -0.5751
10468SOL    HW243129   8.899  11.783   4.682  0.2410 -0.1736  0.0338
10469SOL     OW43130   8.999   0.002   6.684 -0.1224 -0.6251  0.0464
10469SOL    HW143131   9.070  -0.060   6.698 -0.2642 -0.5864  1.0339
10469SOL    HW243132   8.981   0.038   6.771 -0.5460  0.2453 -0.3856
10470SOL     OW43133   0.866   8.569   6.891  0.2849 -0.3407 -0.1672
10470SOL    HW143134   0.939   8.593   6.948  1.4530  1.3749 -2.2634
10470SOL    HW243135   0.809   8.646   6.890 -1.3925 -1.4786  1.0510
10471SOL     OW43136   5.422   6.347   5.395 -0.0230  0.3646 -0.3544
10471SOL    HW143137   5.421   6.271   5.453 -2.5495  0.4085 -0.2093
10471SOL    HW243138   5.432   6.309   5.307 -0.7921 -0.1195 -0.2461
10472SOL     OW43139  10.389   9.041   8.058 -0.3408 -0.5061 -0.0717
10472SOL    HW143140  10.468   8.995   8.032  0.0316  0.3247 -0.4421
10472SOL    HW243141  10.335   8.974   8.100 -0.4975 -1.6370 -1.9850
10473SOL     OW43142   5.602   4.477   8.796  0.0442 -0.0480  0.1847
10473SOL    HW143143   5.571   4.445   8.711 -1.3118 -0.8514  0.9408
10473SOL    HW243144   5.695   4.494   8.782 -0.2324  0.2462 -1.5652
10474SOL     OW43145   8.117   0.168   0.213  0.3818 -0.5231 -0.0973
10474SOL    HW143146   8.047   0.104   0.201 -0.0837 -0.0027 -0.1562
10474SOL    HW243147   8.077   0.238   0.264  0.9156 -0.3162  0.0391
10475SOL     OW43148   6.839   4.712   8.382  0.1009 -0.4807 -0.1081
10475SOL    HW143149   6.775   4.643   8.365  1.3748 -1.8111  0.2706
10475SOL    HW243150   6.799   4.766   8.449 -0.9635 -0.7971 -0.4731
10476SOL     OW43151   9.954   9.191   9.509  0.1385 -0.1855 -0.1388
10476SOL    HW143152   9.931   9.109   9.553  1.1126 -0.1014  0.5647
10476SOL    HW243153  10.002   9.164   9.431  1.1831 -0.2915  0.5209
10477SOL     OW43154   4.660   8.588   3.836 -0.1880  0.0026 -0.2380
10477SOL    HW143155   4.580   8.580   3.785  0.1651 -2.0321 -0.5481
10477SOL    HW243156   4.731   8.589   3.771  0.1385 -0.2916  0.1069
10478SOL     OW43157   0.317   3.732   1.759  0.1058  0.1340  0.4967
10478SOL    HW143158   0.365   3.810   1.786  1.0434 -0.5133  0.7876
10478SOL    HW243159   0.317   3.676   1.837 -0.8981  0.0012  0.4130
10479SOL     OW43160  11.523   9.237   4.881  0.3061 -0.2080 -0.4503
10479SOL    HW143161  11.572   9.172   4.830  0.7038  0.1732 -0.5626
10479SOL    HW243162  11.557   9.322   4.850  1.9940  0.0243  1.8340
10480SOL     OW43163   6.315   8.179   3.106 -0.3005 -0.0301  0.2128
10480SOL    HW143164   6.305   8.226   3.189 -1.3526  1.0639 -0.4956
10480SOL    HW243165   6.256   8.225   3.046  1.4537  0.0815 -1.5036
10481SOL     OW43166   8.604   3.933   5.256  0.3307 -0.6344 -0.3911
10481SOL    HW143167   8.543   3.961   5.325 -2.1177  0.0845 -2.6908
10481SOL    HW243168   8.659   4.010   5.241 -0.5263 -0.0623 -0.6636
10482SOL     OW43169   3.834   8.746   9.891 -0.2548 -0.1893 -0.0271
10482SOL    HW143170   3.750   8.709   9.864 -0.4382 -0.4749  0.9080
10482SOL    HW243171   3.868   8.685   9.956  0.1726  0.4769  0.3940
10483SOL     OW43172  10.877   0.228   4.809 -0.1894  0.1405 -0.3824
10483SOL    HW143173  10.950   0.246   4.750  1.0003 -0.7448  0.7675
10483SOL    HW243174  10.800   0.229   4.752  0.6762  1.2854 -1.5904
10484SOL     OW43175   8.199   2.043   8.113 -0.2051 -0.5562 -0.3467
10484SOL    HW143176   8.168   2.091   8.036 -0.1219  0.5176  0.2684
10484SOL    HW243177   8.137   1.972   8.124 -0.6980 -0.2222 -0.9221
10485SOL     OW43178   4.671   3.360   1.062  0.1000 -0.1890 -0.0722
10485SOL    HW143179   4.655   3.266   1.060 -0.1720 -0.1514  0.2866
10485SOL    HW243180   4.705   3.377   1.150 -1.5573  0.3166  0.4922
10486SOL     OW43181   7.603   9.318   4.326 -0.0929 -0.0293 -0.8903
10486SOL    HW143182   7.550   9.245   4.358 -0.1175 -0.0182 -0.9055
10486SOL    HW243183   7.665   9.279   4.265  0.0343 -0.0696 -0.7359
10487SOL     OW43184   7.993   7.547   4.847 -0.3565  0.4859 -0.8735
10487SOL    HW143185   8.002   7.530   4.940  1.2517  0.1415 -1.0612
10487SOL    HW243186   8.076   7.590   4.822  0.4339 -1.8594 -2.6286
10488SOL     OW43187  10.620   1.481   5.529 -0.3436  0.3417  0.7375
10488SOL    HW143188  10.549   1.446   5.476  0.3648 -0.1961  0.1333
10488SOL    HW243189  10.699   1.466   5.478  0.2148  0.9239  1.4029
10489SOL     OW43190   7.880   7.459   7.168  0.0039  0.0822 -0.3051
10489SOL    HW143191   7.793   7.490   7.143 -0.0379  0.1752 -0.0500
10489SOL    HW243192   7.880   7.366   7.146 -0.3645 -0.0493  0.2320
10490SOL     OW43193   9.614  11.169  11.883 -0.1202 -0.3516  0.1976
10490SOL    HW143194   9.534  11.122  11.906  1.1294 -2.7754 -0.1292
10490SOL    HW243195   9.662  11.175  11.966  1.0035 -2.3245 -0.2546
10491SOL     OW43196  10.833   6.279   7.423 -0.2178  0.2578  0.6021
10491SOL    HW143197  10.769   6.319   7.482 -0.3975 -0.0686  0.6308
10491SOL    HW243198  10.853   6.195   7.463 -0.0141  0.2203  0.4215
10492SOL     OW43199   3.156   1.108   9.706 -0.2214 -0.1303 -0.1095
10492SOL    HW143200   3.102   1.142   9.635  2.0456  1.1506 -1.3091
10492SOL    HW243201   3.191   1.026   9.672  0.4233  0.2060 -0.2665
10493SOL     OW43202   8.113   3.080   1.654  0.0962  0.1960  0.0528
10493SOL    HW143203   8.061   3.007   1.688 -0.2311  1.0592  1.4987
10493SOL    HW243204   8.149   3.122   1.732  0.7557  1.2470 -0.7817
10494SOL     OW43205   0.758   0.684   5.069 -0.1887  0.2031  0.4761
10494SOL    HW143206   0.793   0.601   5.037  1.6908  1.6326 -1.4189
10494SOL    HW243207   0.829   0.721   5.122 -0.4434  1.2559  0.0952
10495SOL     OW43208   9.829  11.322   4.553  0.4377  0.5142 -0.0444
10495SOL    HW143209   9.848  11.386   4.621  2.3459 -0.0061 -0.0225
10495SOL    HW243210   9.913  11.308   4.509 -0.4465 -0.2063 -1.5883
10496SOL     OW43211   7.326   0.791   3.071 -0.5266  0.4108 -0.0318
10496SOL    HW143212   7.365   0.764   2.988  0.3455  0.6616  0.2920
10496SOL    HW243213   7.237   0.756   3.068 -0.1434 -0.5353 -0.5942
10497SOL     OW43214   5.351  11.899   5.753 -0.0887 -0.2405 -0.1189
10497SOL    HW143215   5.407  11.948   5.812 -0.9655  0.3885  0.2034
10497SOL    HW243216   5.404  11.823   5.728  1.6078  1.2290 -1.2736
10498SOL     OW43217   4.264   8.685   4.382 -0.0990  0.6512  0.0521
10498SOL    HW143218   4.170   8.671   4.377 -0.1894  0.9603  0.8058
10498SOL    HW243219   4.290   8.647   4.466  0.7533 -1.0785 -0.9160
10499SOL     OW43220   7.452   8.240   1.941  0.0212  0.2299  0.4478
10499SOL    HW143221   7.518   8.306   1.918 -1.7105  2.3619  1.2724
10499SOL    HW243222   7.452   8.179   1.866  1.8604  0.9812 -0.2293
10500SOL     OW43223   0.901   0.310   1.263  0.2054 -0.0440 -0.0933
10500SOL    HW143224   0.924   0.377   1.328  0.7631 -1.2207  0.9493
10500SOL    HW243225   0.931   0.228   1.301 -0.8616 -0.9621 -1.1605
10501SOL     OW43226  11.799   0.762   9.092  0.4049  0.2487 -0.3973
10501SOL    HW143227  11.741   0.792   9.023  1.0376  0.9841 -0.6354
10501SOL    HW243228  11.866   0.831   9.098  0.5704  0.0111  0.6802
10502SOL     OW43229   7.481   9.977   0.861 -0.2032  0.2499  0.4540
10502SOL    HW143230   7.416  10.011   0.800  0.1219  0.6091  0.3001
10502SOL    HW243231   7.510  10.054   0.911 -0.1158  0.0434  0.7280
10503SOL     OW43232   8.964   6.679   5.639  0.8351  0.2762 -0.2478
10503SOL    HW143233   8.884   6.651   5.683  1.6949 -2.4543 -0.2472
10503SOL    HW243234   8.949   6.662   5.546  0.9519  1.0097 -0.4093
10504SOL     OW43235   5.307   7.889   9.594 -0.1927  0.2856  0.4773
10504SOL    HW143236   5.213   7.909   9.587 -0.6078 -1.9281 -1.1094
10504SOL    HW243237   5.319   7.869   9.687 -0.9940  1.7380  0.9401
10505SOL     OW43238   5.160   9.021  11.849  0.5155 -0.6374  0.5791
10505SOL    HW143239   5.163   8.937  11.804  0.5165  0.3481 -1.3530
10505SOL    HW243240   5.128   9.083  11.783 -0.8382  0.6534  2.3344
10506SOL     OW43241   2.826   1.368   0.382 -0.0219  0.3518 -0.7777
10506SOL    HW143242   2.734   1.368   0.354 -0.2850 -0.3321  0.0242
10506SOL    HW243243   2.835   1.286   0.431  0.9534  0.5352 -0.6409
10507SOL     OW43244   5.961   1.117   3.835 -0.5573  0.3264  0.2879
10507SOL    HW143245   6.046   1.155   3.812  1.2636 -3.2218  0.3849
10507SOL    HW243246   5.921   1.182   3.892  2.3896  1.8991  0.8042
10508SOL     OW43247   5.774  10.717   9.706 -0.0228 -0.7323 -0.1253
10508SOL    HW143248   5.810  10.804   9.721  2.0225 -1.6469  0.6408
10508SOL    HW243249   5.687  10.720   9.746  0.5139  0.5950  1.0375
10509SOL     OW43250   4.898  10.959   3.705  0.2540 -0.4960  0.2711
10509SOL    HW143251   4.819  10.945   3.653 -0.1562 -0.5007  0.8923
10509SOL    HW243252   4.867  10.995   3.788  0.8934 -0.6112  0.5707
10510SOL     OW43253   1.647   4.478   8.130  0.5583  0.3454 -0.0398
10510SOL    HW143254   1.559   4.463   8.165 -1.1997  3.6737 -2.4108
10510SOL    HW243255   1.695   4.518   8.203  0.3052 -1.8466  1.4028
10511SOL     OW43256   5.993   8.576  10.088  0.3887  0.2127 -0.4282
10511SOL    HW143257   6.017   8.486  10.110  2.8530  1.4217  2.7123
10511SOL    HW243258   6.050   8.599  10.014  0.1007 -0.6319 -0.9206
10512SOL     OW43259   8.110   0.930   0.546  0.2078 -0.0762  0.0884
10512SOL    HW143260   8.036   0.982   0.514  1.6669  0.4117 -2.8651
10512SOL    HW243261   8.133   0.873   0.472  1.4066 -1.8094  1.7115
10513SOL     OW43262   7.239   2.554   2.974  0.3929 -0.0366 -0.3038
10513SOL    HW143263   7.245   2.623   2.908 -0.1656  0.2438 -0.0659
10513SOL    HW243264   7.150   2.561   3.009  0.4044 -0.7282 -0.1128
10514SOL     OW43265   2.918   4.088  11.453  0.5303 -0.4086  0.3637
10514SOL    HW143266   2.896   4.144  11.528 -0.0093 -1.9309  1.4003
10514SOL    HW243267   3.013   4.087  11.450  0.7627 -3.1390  3.3809
10515SOL     OW43268   0.436   5.003   5.176 -0.0450  0.1001 -0.2256
10515SOL    HW143269   0.377   5.077   5.161 -1.2619 -0.5792  0.8889
10515SOL    HW243270   0.474   4.984   5.091 -1.9015  0.2301 -1.1393
10516SOL     OW43271   7.481   1.567   8.008  0.2319  0.3496  0.6628
10516SOL    HW143272   7.518   1.481   8.028 -0.7039  0.4569  3.1149
10516SOL    HW243273   7.409   1.549   7.948  0.1893 -0.5345  0.9676
10517SOL     OW43274   0.458   7.531   6.165  0.3107 -0.0770 -0.0818
10517SOL    HW143275   0.439   7.555   6.074  0.8577  0.2457 -0.1157
10517SOL    HW243276   0.496   7.609   6.203  3.1402 -1.1318 -0.4908
10518SOL     OW43277   2.420   3.063   9.139 -0.7285  0.2457 -0.1749
10518SOL    HW143278   2.468   3.005   9.079 -1.3235 -0.5215  0.0652
10518SOL    HW243279   2.416   3.147   9.093 -2.5041 -0.7068 -1.9796
10519SOL     OW43280  10.150   5.842  10.019 -0.7319 -0.4518 -0.2532
10519SOL    HW143281  10.158   5.800  10.104 -0.8615 -0.9118 -0.4638
10519SOL    HW243282  10.060   5.825   9.991 -0.3276 -1.4229 -1.0470
10520SOL     OW43283   5.205   6.610  10.202  0.5670 -0.4330 -0.3919
10520SOL    HW143284   5.276   6.546  10.206  0.4528 -0.5065  1.7060
10520SOL    HW243285   5.177   6.610  10.111  3.9144  0.3575 -1.5506
10521SOL     OW43286   9.869   5.417   9.673 -0.4781 -0.0209 -0.5250
10521SOL    HW143287   9.866   5.513   9.668  0.2380  0.0374  0.1055
10521SOL    HW243288   9.902   5.390   9.588  0.4269  0.3595 -0.3077
10522SOL     OW43289   2.477   9.281   2.595 -0.1424 -0.9638  0.0563
10522SOL    HW143290   2.407   9.343   2.576 -1.3169 -1.7735  1.5011
10522SOL    HW243291   2.445   9.231   2.670  1.9615 -1.4067  0.7473
10523SOL     OW43292   2.272   8.573   9.122 -0.1692  0.1586  0.2116
10523SOL    HW143293   2.356   8.578   9.075  0.8756 -2.9975  1.4720
10523SOL    HW243294   2.216   8.520   9.065 -0.5796  0.3898  0.3943
10524SOL     OW43295   3.556   5.762  11.117  0.5240  0.0919  0.0138
10524SOL    HW143296   3.520   5.851  11.114 -0.4878 -0.2894  0.3369
10524SOL    HW243297   3.487   5.707  11.079  0.6849 -0.6950  0.8192
10525SOL     OW43298   9.250   1.507   5.706 -0.5156  0.8359  0.3383
10525SOL    HW143299   9.338   1.519   5.671 -0.6547  1.1740  0.0989
10525SOL    HW243300   9.263   1.459   5.788 -0.1207  0.7750  0.2426
10526SOL     OW43301  10.536   1.404   4.101  0.7926 -0.1940  0.0479
10526SOL    HW143302  10.462   1.358   4.141 -0.0042  0.7131 -0.3135
10526SOL    HW243303  10.550   1.360   4.017 -0.2707  0.4740 -0.5063
10527SOL     OW43304   4.727   3.147  10.633 -0.4666  0.3948 -0.3021
10527SOL    HW143305   4.691   3.106  10.555  0.3284  0.6331 -0.8041
10527SOL    HW243306   4.725   3.078  10.700 -0.7644  0.0693 -0.6426
10528SOL     OW43307   6.212   8.349   8.646  0.4008  0.1805 -0.1224
10528SOL    HW143308   6.276   8.391   8.588 -1.0602  0.7252 -1.3887
10528SOL    HW243309   6.149   8.418   8.666  0.1833 -0.3532  1.0960
10529SOL     OW43310   7.377   4.100   7.685 -0.2916  0.4163 -0.5492
10529SOL    HW143311   7.312   4.167   7.662 -1.0756  0.1943  0.9312
10529SOL    HW243312   7.436   4.145   7.745  2.1653  1.2075 -3.2912
10530SOL     OW43313   8.737   0.982   3.780 -0.1402  0.0059 -0.5048
10530SOL    HW143314   8.803   0.954   3.844 -0.5120  0.9332  0.3244
10530SOL    HW243315   8.767   0.946   3.697  1.2451  0.1400 -0.0959
10531SOL     OW43316   4.849  11.359   7.192  0.3394 -0.3198 -0.2009
10531SOL    HW143317   4.939  11.328   7.191  0.9193  1.2316  0.5831
10531SOL    HW243318   4.839  11.407   7.109  0.2195 -0.5177 -0.3023
10532SOL     OW43319   0.088   3.402   8.734 -0.3352 -0.3197  0.6468
10532SOL    HW143320   0.097   3.308   8.747 -2.5614 -0.8685 -1.2277
10532SOL    HW243321  -0.003   3.422   8.756 -0.4344  1.0274 -0.7744
10533SOL     OW43322   9.157   6.225   4.599  0.2896 -0.8133 -0.2587
10533SOL    HW143323   9.122   6.200   4.685  0.2894  0.3445  0.0910
10533SOL    HW243324   9.081   6.223   4.541  0.3619 -1.9958 -0.3439
10534SOL     OW43325   9.318  11.611   2.690  0.1255 -0.3348 -0.2746
10534SOL    HW143326   9.368  11.546   2.640  0.3990 -0.4505  0.1358
10534SOL    HW243327   9.369  11.622   2.771  0.5323  1.0013 -0.6810
10535SOL     OW43328   7.803   1.387   4.822  0.4056 -0.1396 -0.1998
10535SOL    HW143329   7.747   1.330   4.874  0.2607  0.7305  0.6193
10535SOL    HW243330   7.743   1.436   4.766  0.3032  0.9754  0.8577
10536SOL     OW43331   6.691   7.360   8.773 -0.0037  0.6197  0.9317
10536SOL    HW143332   6.742   7.392   8.699  0.2311 -1.6332  0.0424
10536SOL    HW243333   6.728   7.405   8.849  1.7400  0.8028  0.0187
10537SOL     OW43334   6.247   4.030   1.807 -0.0165 -0.0712  1.0033
10537SOL    HW143335   6.336   3.999   1.791 -0.0877  0.1521  0.1123
10537SOL    HW243336   6.191   3.960   1.774 -0.1719  0.7440 -0.5571
10538SOL     OW43337   8.819   7.899   5.232 -0.3713  0.0169 -0.4765
10538SOL    HW143338   8.750   7.859   5.180 -0.9896 -0.5109  0.7144
10538SOL    HW243339   8.867   7.825   5.270 -0.0791  0.3868 -0.1153
10539SOL     OW43340   5.083   3.403   4.206 -0.0296 -0.6702  0.2858
10539SOL    HW143341   5.123   3.489   4.198 -0.0736 -0.4610  1.9809
10539SOL    HW243342   5.142   3.354   4.264 -0.3493 -1.5658 -0.1185
10540SOL     OW43343  11.776   0.586   8.188  0.0641 -0.0385  0.7889
10540SOL    HW143344  11.771   0.526   8.263  0.9476 -0.6660  0.3506
10540SOL    HW243345  11.741   0.536   8.115  2.3240 -0.6518  0.0533
10541SOL     OW43346   5.121   4.424   0.715 -0.1825 -0.2475  0.2017
10541SOL    HW143347   5.167   4.504   0.689 -0.4276  0.2660  1.2577
10541SOL    HW243348   5.069   4.450   0.792 -0.5963 -1.3202  0.3100
10542SOL     OW43349   5.350   6.014   8.439 -0.1559  0.3033  0.3298
10542SOL    HW143350   5.407   6.051   8.505  0.6566 -0.9318  0.3485
10542SOL    HW243351   5.263   6.046   8.462  0.1187 -0.0214  1.9335
10543SOL     OW43352   3.969   9.235  10.843  0.4995 -0.5011 -0.3273
10543SOL    HW143353   4.023   9.157  10.858  2.0280  0.4868 -0.4823
10543SOL    HW243354   3.977   9.285  10.924 -1.1153 -0.8342  0.0742
10544SOL     OW43355   3.331   3.829   7.348 -0.3421 -0.1702  0.3095
10544SOL    HW143356   3.283   3.909   7.325 -0.2427  0.5066  2.2790
10544SOL    HW243357   3.419   3.861   7.371 -0.2269 -0.8746  0.8686
10545SOL     OW43358  11.640   8.956   9.191  0.3131  0.3665  0.6774
10545SOL    HW143359  11.602   9.041   9.167 -0.2910  0.1512  0.8339
10545SOL    HW243360  11.719   8.978   9.240  0.3742  0.8357  0.3779
10546SOL     OW43361   9.164  11.631  10.256  0.3720 -0.4801 -0.1606
10546SOL    HW143362   9.132  11.623  10.346 -0.8026 -0.3785 -0.5465
10546SOL    HW243363   9.129  11.715  10.226  1.5378 -0.0687 -0.4219
10547SOL     OW43364   3.209   3.441   0.361  0.0648 -0.2474  0.0441
10547SOL    HW143365   3.136   3.480   0.409 -0.4684 -1.4735  0.2793
10547SOL    HW243366   3.198   3.346   0.375  1.7874 -0.4447  0.2061
10548SOL     OW43367   8.477  10.394   8.445 -0.6696 -0.2408  0.1820
10548SOL    HW143368   8.501  10.327   8.381  0.0402 -0.4316  0.6310
10548SOL    HW243369   8.551  10.396   8.506 -0.4210  1.3383 -0.1171
10549SOL     OW43370   3.151   3.211  11.140 -0.4176 -0.5937  0.3324
10549SOL    HW143371   3.114   3.156  11.072  0.1739 -2.4156  1.3941
10549SOL    HW243372   3.131   3.300  11.114 -1.2043 -1.2996 -1.6010
10550SOL     OW43373   4.121   7.736   6.129  0.2351 -0.1974  0.5888
10550SOL    HW143374   4.207   7.717   6.090  0.4094  1.1000  0.3061
10550SOL    HW243375   4.060   7.726   6.056  0.5813  2.4200 -0.1814
10551SOL     OW43376   4.152   4.254   5.239 -0.4172  0.4785 -0.4428
10551SOL    HW143377   4.136   4.213   5.324 -0.9510 -0.3794 -0.9462
10551SOL    HW243378   4.123   4.345   5.250 -1.7648  0.0289 -0.1018
10552SOL     OW43379   7.322   2.943   8.229 -0.2305 -0.6835 -0.5953
10552SOL    HW143380   7.385   2.935   8.157  1.0889  1.1994  0.2485
10552SOL    HW243381   7.288   2.855   8.241  2.5435 -1.9008 -0.8854
10553SOL     OW43382   9.476   6.626   1.479 -0.2070  0.2740  0.0911
10553SOL    HW143383   9.417   6.582   1.417 -0.4322 -0.2111  0.6349
10553SOL    HW243384   9.422   6.695   1.517 -0.0744  0.5588 -0.2323
10554SOL     OW43385   4.985  11.039   0.555 -0.6528 -0.1642 -0.0721
10554SOL    HW143386   4.948  10.991   0.628  2.2634  0.3342  1.8817
10554SOL    HW243387   4.960  10.988   0.478 -0.6026 -2.8718  1.5848
10555SOL     OW43388   5.539   6.433  10.387  0.1121  0.5917 -0.1785
10555SOL    HW143389   5.551   6.380  10.308 -0.8297 -0.1801  0.1787
10555SOL    HW243390   5.448   6.420  10.412  0.5241  0.3966  1.3418
10556SOL     OW43391   9.060   6.117   3.623 -0.9570  0.1410 -0.5713
10556SOL    HW143392   8.987   6.055   3.637  0.5451 -1.7533 -0.7297
10556SOL    HW243393   9.028   6.178   3.557 -2.7964  0.0690  0.1870
10557SOL     OW43394   8.266   2.600   2.849  0.1000  0.2390  0.0887
10557SOL    HW143395   8.195   2.540   2.872 -1.4230  1.4398 -1.1385
10557SOL    HW243396   8.337   2.580   2.909 -0.0398 -3.2530 -0.7360
10558SOL     OW43397   3.270   1.983   3.286  0.0711 -0.0971 -0.1459
10558SOL    HW143398   3.301   2.071   3.266  0.2919  0.2524  1.5872
10558SOL    HW243399   3.193   1.997   3.341 -0.1232 -0.9997 -0.1748
10559SOL     OW43400   1.952   2.879   7.526 -0.2978 -0.3850 -0.0645
10559SOL    HW143401   1.913   2.911   7.445 -3.8679  1.0183  1.9940
10559SOL    HW243402   1.923   2.788   7.532 -0.8972 -0.1891  0.0894
10560SOL     OW43403   9.753  10.433   6.717  0.5375  0.1405  0.0369
10560SOL    HW143404   9.834  10.430   6.665 -0.2876 -0.3587 -1.2783
10560SOL    HW243405   9.684  10.451   6.653 -0.6317 -1.3018  0.8364
10561SOL     OW43406   1.544   3.721   2.189 -0.2740  0.1004  0.2171
10561SOL    HW143407   1.470   3.749   2.243 -0.8717  1.2725 -1.1195
10561SOL    HW243408   1.510   3.649   2.137  0.3875 -1.2245  1.5561
10562SOL     OW43409   2.525   6.046   9.496 -0.1648 -0.0648  0.0298
10562SOL    HW143410   2.494   5.955   9.500  0.8361 -0.3833  0.8799
10562SOL    HW243411   2.555   6.057   9.406 -1.4194 -0.1777 -0.4243
10563SOL     OW43412   4.392   7.207   3.542  0.5202 -0.3231 -0.4856
10563SOL    HW143413   4.448   7.244   3.473  0.4971  0.0463 -0.3046
10563SOL    HW243414   4.419   7.251   3.622  1.2227 -1.4507 -0.0759
10564SOL     OW43415  10.312  10.660  11.736  0.2614 -0.3504  0.8214
10564SOL    HW143416  10.233  10.612  11.710  0.5273  0.1465 -1.0148
10564SOL    HW243417  10.279  10.741  11.775 -0.1270 -0.3578  0.5097
10565SOL     OW43418   5.481   5.407  10.514  0.2634 -0.5104  0.1222
10565SOL    HW143419   5.564   5.378  10.476  0.5399  2.2222 -1.6818
10565SOL    HW243420   5.504   5.431  10.604  1.2578 -0.5277 -0.1103
10566SOL     OW43421   9.686   4.490  11.256  0.0217 -0.1924  0.4024
10566SOL    HW143422   9.728   4.529  11.332  0.5189  0.0084  0.0297
10566SOL    HW243423   9.730   4.530  11.181 -1.6007  0.8745 -0.0269
10567SOL     OW43424   3.554   5.399  10.288  0.0342  0.2836  0.1088
10567SOL    HW143425   3.546   5.355  10.203 -0.2013  1.6552 -0.6073
10567SOL    HW243426   3.532   5.331  10.352 -0.9070 -0.4877 -0.9811
10568SOL     OW43427   8.432   2.679   1.660 -0.3201  0.8231  0.2384
10568SOL    HW143428   8.469   2.655   1.745  0.4261 -1.0021 -0.5475
10568SOL    HW243429   8.409   2.772   1.669  0.2283  0.8103  2.2391
10569SOL     OW43430   8.621   8.898   7.495  0.5740 -0.1807 -0.2392
10569SOL    HW143431   8.660   8.977   7.458 -2.7951  0.2531 -3.3962
10569SOL    HW243432   8.588   8.925   7.581 -1.2800  2.2235 -1.5898
10570SOL     OW43433   4.590   4.229   9.697  0.0666 -0.4237 -0.4154
10570SOL    HW143434   4.501   4.215   9.729 -0.0410  0.1092 -0.4753
10570SOL    HW243435   4.584   4.308   9.643  0.6316 -0.2282 -0.1952
10571SOL     OW43436   8.637   0.338  11.715 -0.6744  0.2057  1.0701
10571SOL    HW143437   8.618   0.410  11.655 -3.8417 -1.0826  0.3827
10571SOL    HW243438   8.631   0.378  11.802  1.0485  1.4299  0.7004
10572SOL     OW43439   0.495   8.473   4.834  0.5071  0.0636  0.3707
10572SOL    HW143440   0.445   8.504   4.910  0.0562 -0.6079  0.3547
10572SOL    HW243441   0.555   8.545   4.814  1.1176 -0.0170  1.7939
10573SOL     OW43442   6.717   4.322   0.988  0.1916  0.3527  0.8419
10573SOL    HW143443   6.692   4.229   0.990  1.3621  0.0161  2.8098
10573SOL    HW243444   6.811   4.321   0.971 -0.3831  1.4819 -3.8656
10574SOL     OW43445   3.058  10.578   2.453 -0.2314  0.0866 -0.5085
10574SOL    HW143446   2.993  10.513   2.427  0.6397 -0.3469 -1.7177
10574SOL    HW243447   3.012  10.636   2.514 -2.2850  0.8808 -2.6736
10575SOL     OW43448   6.439   7.959  11.413 -0.0631  0.0344  0.4936
10575SOL    HW143449   6.404   7.960  11.324  0.1423  0.5077  0.4169
10575SOL    HW243450   6.533   7.965  11.403 -0.0798  1.0561  0.7544
10576SOL     OW43451   8.715   8.660   9.849 -0.5882 -0.0351  0.1592
10576SOL    HW143452   8.779   8.703   9.905 -1.3531  1.2190  0.1020
10576SOL    HW243453   8.641   8.720   9.846 -1.4401 -1.0704 -0.4488
10577SOL     OW43454   2.870   9.536   0.046 -0.0723 -0.1294 -0.0435
10577SOL    HW143455   2.843   9.523  -0.045 -1.7810  0.9448  0.2614
10577SOL    HW243456   2.882   9.630   0.054  0.5042 -0.2631  0.7264
10578SOL     OW43457   9.043   6.727   4.373  0.2505 -0.9539 -0.1376
10578SOL    HW143458   8.953   6.707   4.398  0.3045 -0.1557  0.7600
10578SOL    HW243459   9.062   6.667   4.301 -0.6786 -1.7809  0.2840
10579SOL     OW43460   5.679   7.386   4.402  0.0194  0.5849  0.5346
10579SOL    HW143461   5.744   7.379   4.333  0.4628 -0.2722  1.0238
10579SOL    HW243462   5.725   7.428   4.475  0.1103 -0.2169  0.9578
10580SOL     OW43463   6.972   3.878   5.468 -0.0649  0.1043 -0.2359
10580SOL    HW143464   7.004   3.791   5.444 -1.4582 -0.5681  0.2397
10580SOL    HW243465   6.881   3.879   5.438 -0.3291  1.0732  0.5631
10581SOL     OW43466   3.585   4.394  10.457  0.0319  0.3106  0.7665
10581SOL    HW143467   3.617   4.473  10.414 -0.5358  1.0364  1.6511
10581SOL    HW243468   3.664   4.341  10.473  0.5743  1.2745  1.3330
10582SOL     OW43469   9.563   6.793  11.143  0.1562  0.0842 -0.2535
10582SOL    HW143470   9.566   6.881  11.106 -1.2240  0.1799 -0.1785
10582SOL    HW243471   9.652   6.779  11.177  1.1178  0.4552 -2.4540
10583SOL     OW43472   3.827   5.247  10.546 -0.0781  0.4331  0.4312
10583SOL    HW143473   3.801   5.182  10.612  0.0388  0.4986  0.5432
10583SOL    HW243474   3.878   5.198  10.482 -1.6370  0.0133 -0.5491
10584SOL     OW43475   6.194  11.852   6.570 -0.3234  0.3533  0.3060
10584SOL    HW143476   6.143  11.927   6.600  0.0157  0.2267  1.2116
10584SOL    HW243477   6.129  11.783   6.556 -0.3971  0.1592  1.5552
10585SOL     OW43478   9.752   8.663   0.853 -0.5430 -0.1446  0.0734
10585SOL    HW143479   9.809   8.638   0.780 -2.1259  0.3789 -1.4376
10585SOL    HW243480   9.740   8.758   0.843  0.2685  0.1744  1.8484
10586SOL     OW43481   5.859   6.065   5.812  0.2719 -0.4799  0.0634
10586SOL    HW143482   5.932   6.049   5.872  0.8124 -1.5014 -0.8202
10586SOL    HW243483   5.781   6.051   5.865  0.6516 -4.8451 -0.1061
10587SOL     OW43484  10.393   2.238   4.625 -0.1218 -0.2876 -0.5186
10587SOL    HW143485  10.477   2.219   4.582 -0.1726  0.6888 -1.0729
10587SOL    HW243486  10.357   2.312   4.576  0.1244  1.3177  1.5930
10588SOL     OW43487   5.943   5.558   5.676 -0.4664  0.0430  0.0640
10588SOL    HW143488   5.890   5.485   5.708 -0.0673  0.1367  0.9432
10588SOL    HW243489   5.896   5.636   5.704  0.4572  0.1370  1.4581
10589SOL     OW43490   0.845   1.611  10.285  0.5619  0.4070  0.6288
10589SOL    HW143491   0.934   1.604  10.250 -0.1794 -0.3841 -1.2249
10589SOL    HW243492   0.802   1.675  10.229  0.0665  1.1098  1.7926
10590SOL     OW43493  11.718   3.833  10.646  0.2908  0.0799  0.4292
10590SOL    HW143494  11.623   3.817  10.642  0.3953 -0.3695 -0.6398
10590SOL    HW243495  11.728   3.902  10.712 -0.6891 -0.5286  1.2365
10591SOL     OW43496   1.500   5.651   5.445 -0.2526  0.5283  0.3828
10591SOL    HW143497   1.546   5.706   5.381 -0.1139 -0.0933 -0.0547
10591SOL    HW243498   1.560   5.648   5.520 -0.1381  0.7534  0.3012
10592SOL     OW43499   8.247   5.213  11.222  0.2354  0.0027  0.1295
10592SOL    HW143500   8.154   5.213  11.243  0.2497 -0.3924  0.1910
10592SOL    HW243501   8.277   5.124  11.242  0.4532 -0.1088 -0.6641
10593SOL     OW43502   9.957   3.034   9.535 -0.5511 -0.6399  0.5630
10593SOL    HW143503   9.952   3.074   9.448  1.4143 -2.3154 -0.3992
10593SOL    HW243504   9.923   2.946   9.523  0.1812 -1.0479  1.3714
10594SOL     OW43505   9.593  11.777   5.141 -0.1026  0.1217  0.2982
10594SOL    HW143506   9.586  11.847   5.075  1.2616 -0.8309 -0.9057
10594SOL    HW243507   9.578  11.822   5.224  0.0794  1.7380 -0.4897
10595SOL     OW43508   4.564   8.583   8.337 -0.2529  0.3448 -0.4664
10595SOL    HW143509   4.544   8.567   8.245  0.1880  0.2993 -0.5533
10595SOL    HW243510   4.616   8.663   8.337  1.4990 -0.7504 -0.4498
10596SOL     OW43511   9.087   5.793   8.005 -0.5677 -0.3722  0.0647
10596SOL    HW143512   9.147   5.769   8.076  0.5032  1.6983 -0.0603
10596SOL    HW243513   9.106   5.730   7.936  0.1659 -0.8861  0.7164
10597SOL     OW43514   4.337   3.734   5.891  0.1927 -0.2335  0.4173
10597SOL    HW143515   4.339   3.660   5.830 -2.3902 -0.5987  0.6877
10597SOL    HW243516   4.349   3.811   5.835  1.0906 -0.7149 -0.0897
10598SOL     OW43517  10.495   6.769  11.318 -0.1855 -0.3598 -0.3177
10598SOL    HW143518  10.590   6.765  11.329 -0.0471  0.9778 -0.8866
10598SOL    HW243519  10.471   6.856  11.349 -0.9808 -0.0275 -1.7728
10599SOL     OW43520   6.296   0.264   5.256  0.6424 -0.5497 -0.1182
10599SOL    HW143521   6.245   0.187   5.231  0.4168 -0.1347 -0.9948
10599SOL    HW243522   6.230   0.327   5.286  0.6404 -0.0815 -1.0681
10600SOL     OW43523   0.321   9.170   7.192 -0.0482  0.4685 -0.2024
10600SOL    HW143524   0.268   9.236   7.148 -0.9572 -1.7555 -2.7048
10600SOL    HW243525   0.261   9.128   7.253  0.0837  0.8852  0.2161
10601SOL     OW43526   9.961   4.329   6.816  0.0193  0.7029  0.5272
10601SOL    HW143527  10.031   4.312   6.752  0.0454 -1.0858  0.9971
10601SOL    HW243528   9.931   4.418   6.795  0.4332  0.3931 -1.5839
10602SOL     OW43529   4.428   3.334  11.317  0.3316 -0.1997  0.1051
10602SOL    HW143530   4.390   3.259  11.363 -1.3788 -1.0035 -2.3613
10602SOL    HW243531   4.521   3.313  11.308  0.1199 -1.4259  0.5561
10603SOL     OW43532   1.257   0.300   4.777  0.3633  0.3729  0.6633
10603SOL    HW143533   1.261   0.395   4.769 -0.0525  0.5484  2.1348
10603SOL    HW243534   1.188   0.285   4.842  0.5732 -0.9239  0.6130
10604SOL     OW43535   3.935   5.378   9.105 -0.3838  0.1594  0.1458
10604SOL    HW143536   4.019   5.424   9.103 -0.2542  0.0095  1.4334
10604SOL    HW243537   3.915   5.360   9.013  1.0840  0.0183 -0.1636
10605SOL     OW43538   6.640   3.721   0.031  0.4505 -0.0434 -0.5969
10605SOL    HW143539   6.622   3.631   0.004  2.0127 -0.4532 -0.3856
10605SOL    HW243540   6.608   3.775  -0.041 -1.4180 -0.6608 -0.3019
10606SOL     OW43541   9.310   4.264   6.195 -0.4871 -0.4183 -0.5782
10606SOL    HW143542   9.386   4.237   6.143 -1.2774  0.4992 -2.2853
10606SOL    HW243543   9.235   4.250   6.137 -1.2968  1.6983 -0.1265
10607SOL     OW43544   1.103   9.225   8.634  0.1778 -0.0057  0.1230
10607SOL    HW143545   1.111   9.296   8.696 -1.0970  0.6031 -0.3713
10607SOL    HW243546   1.045   9.258   8.566  1.7259 -0.5513 -1.5551
10608SOL     OW43547  10.275   4.496  10.169  0.3322  0.1060 -0.3343
10608SOL    HW143548  10.204   4.466  10.225 -0.2336  1.4930 -0.2586
10608SOL    HW243549  10.232   4.527  10.089  0.8933  0.4933 -0.4962
10609SOL     OW43550   1.542   7.932   1.255 -0.1716  0.1130 -0.2953
10609SOL    HW143551   1.590   7.867   1.306  0.0151  1.5807  1.5011
10609SOL    HW243552   1.456   7.937   1.298 -0.7721 -0.0998 -1.4290
10610SOL     OW43553   2.369   4.830   6.975  0.2690  0.1165 -0.7214
10610SOL    HW143554   2.458   4.857   6.994 -0.3784  1.6820  0.3443
10610SOL    HW243555   2.365   4.738   6.998  2.0893 -0.5280 -2.6523
10611SOL     OW43556   0.126   5.275   5.715 -0.6851  0.3869 -0.6470
10611SOL    HW143557   0.219   5.283   5.738 -0.7915 -0.5414  0.1675
10611SOL    HW243558   0.114   5.182   5.697 -1.2119  0.6770 -1.8918
10612SOL     OW43559  11.748  10.706  10.325 -0.4448 -0.3763  0.6565
10612SOL    HW143560  11.726  10.682  10.236  0.1168 -0.2557  0.4781
10612SOL    HW243561  11.825  10.762  10.317 -0.0797 -0.7702  1.2411
10613SOL     OW43562   2.741  10.636   8.372 -0.5341  0.0646  0.0644
10613SOL    HW143563   2.756  10.730   8.372  0.7076 -0.1097 -0.6731
10613SOL    HW243564   2.767  10.607   8.284  1.8809 -1.3277  1.1192
10614SOL     OW43565   5.374   1.240   4.097  0.3470  0.0264 -0.4098
10614SOL    HW143566   5.290   1.237   4.051 -0.1007  0.1610  0.3822
10614SOL    HW243567   5.416   1.321   4.066 -0.6727  0.9910  0.6260
10615SOL     OW43568   5.087   7.370   5.676 -0.4377  0.0794  0.2345
10615SOL    HW143569   5.116   7.459   5.656  1.8106 -0.5339  0.5054
10615SOL    HW243570   5.004   7.361   5.630  0.8546  1.2563 -2.5728
10616SOL     OW43571   3.433  10.179   2.193 -0.3602 -0.3187 -0.0763
10616SOL    HW143572   3.429  10.091   2.230  1.4674 -0.9314 -1.1806
10616SOL    HW243573   3.361  10.226   2.234  0.1516 -1.5749  2.4838
10617SOL     OW43574   6.273   2.982   0.458  0.6331 -0.4345  0.1270
10617SOL    HW143575   6.361   2.945   0.458  0.1280 -1.6848  0.4652
10617SOL    HW243576   6.262   3.020   0.545  1.9695  2.6663 -0.9120
10618SOL     OW43577  11.852   1.004   8.188 -0.3112  0.2356  0.2383
10618SOL    HW143578  11.790   0.946   8.231  0.5959 -1.6781 -0.8894
10618SOL    HW243579  11.901   1.044   8.260 -1.8782  0.6934  1.0805
10619SOL     OW43580  11.823   3.217  11.459  0.3684  0.5184  0.7010
10619SOL    HW143581  11.906   3.185  11.496  0.4881 -0.6851 -0.5565
10619SOL    HW243582  11.849   3.281  11.393  0.3109  0.1002  0.2674
10620SOL     OW43583   0.418   5.582   0.455 -0.0696 -0.3355 -1.0293
10620SOL    HW143584   0.352   5.647   0.429 -1.0604 -1.4304 -1.3331
10620SOL    HW243585   0.384   5.543   0.535  1.3169  0.6187  0.0740
10621SOL     OW43586   7.031   3.326   4.617 -0.3875 -0.3192 -0.5267
10621SOL    HW143587   6.956   3.274   4.645 -1.6381  2.1170  1.0457
10621SOL    HW243588   7.102   3.300   4.675 -1.1276  0.0216  0.5519
10622SOL     OW43589   1.115   9.795  10.677  0.0108  0.5458  0.0188
10622SOL    HW143590   1.206   9.766  10.668  0.0331  0.8817 -1.0216
10622SOL    HW243591   1.104   9.814  10.770  0.8055 -0.1386  0.2630
10623SOL     OW43592   9.131   6.201   2.213 -0.7832 -0.0336 -0.3045
10623SOL    HW143593   9.109   6.190   2.120  0.4429 -0.3143 -0.5702
10623SOL    HW243594   9.166   6.290   2.219 -2.7265  0.7571  0.2903
10624SOL     OW43595   0.466  11.678   4.005 -0.4191 -0.1903  0.5891
10624SOL    HW143596   0.434  11.638   3.924  0.2033  0.6655 -0.0967
10624SOL    HW243597   0.559  11.697   3.987 -0.2139 -0.1952  1.5853
10625SOL     OW43598   9.872  11.552   0.420  0.1654  0.2099 -0.1687
10625SOL    HW143599   9.916  11.477   0.379 -0.7460  0.1293 -1.0121
10625SOL    HW243600   9.780  11.542   0.397 -0.2414  0.6539  1.1697
10626SOL     OW43601   7.722  10.655   0.614  0.0057  0.1580 -0.1108
10626SOL    HW143602   7.730  10.664   0.709  1.3191 -0.8171 -0.0940
10626SOL    HW243603   7.813  10.649   0.583 -0.3632  1.2446 -1.5320
10627SOL     OW43604  10.128   3.672  10.206  0.3747 -0.1065 -0.2217
10627SOL    HW143605  10.091   3.641  10.289 -3.0781  1.6464 -0.9383
10627SOL    HW243606  10.217   3.700  10.229 -0.4025  0.2042  2.8595
10628SOL     OW43607   1.689   0.908   8.539  0.0763  0.6815  0.4013
10628SOL    HW143608   1.609   0.876   8.498 -0.6778  1.0938  1.5308
10628SOL    HW243609   1.731   0.830   8.576 -0.1952  0.5797  0.4905
10629SOL     OW43610   5.186   3.582   6.177 -0.1107 -0.5259 -0.2433
10629SOL    HW143611   5.122   3.584   6.106  0.0567  1.1657 -0.3913
10629SOL    HW243612   5.137   3.613   6.254  0.6098  1.2455 -0.4644
10630SOL     OW43613   7.924  11.862   7.574 -0.2305  0.2299 -0.1365
10630SOL    HW143614   7.855  11.848   7.509 -1.1687  0.7061  0.7160
10630SOL    HW243615   7.919  11.956   7.594  0.8550  0.3263 -0.2498
10631SOL     OW43616   1.403   5.681   6.050  0.2546 -0.1732  0.0994
10631SOL    HW143617   1.467   5.629   6.099 -0.0406 -2.1010 -1.4303
10631SOL    HW243618   1.453   5.721   5.980  0.2352  0.5294  0.4801
10632SOL     OW43619   7.785   5.249  10.417  0.7894 -0.3121 -0.6123
10632SOL    HW143620   7.852   5.298  10.465 -0.4757 -0.8484  1.9117
10632SOL    HW243621   7.734   5.316  10.372  1.4721  0.3290 -0.4576
10633SOL     OW43622   1.253   5.007   0.766 -0.6474 -0.2226 -0.0718
10633SOL    HW143623   1.203   5.030   0.688 -1.8814  0.5730  0.9148
10633SOL    HW243624   1.275   5.091   0.806 -1.6947 -0.6215  1.4370
10634SOL     OW43625   9.004   0.605   3.693  0.0684  0.1238 -0.0835
10634SOL    HW143626   9.034   0.568   3.610 -0.9049  1.8659 -1.2755
10634SOL    HW243627   8.922   0.649   3.671 -2.2994 -2.5359  2.5651
10635SOL     OW43628   0.189   8.440   6.532  0.9702  0.6776  0.6546
10635SOL    HW143629   0.267   8.492   6.512  2.2040 -0.9261  1.0423
10635SOL    HW243630   0.168   8.396   6.449  0.0618  1.5820  0.3844
10636SOL     OW43631   4.904   0.098  10.165 -0.0164  0.2226 -0.6008
10636SOL    HW143632   4.861   0.079  10.249  0.9767  1.4118  0.2156
10636SOL    HW243633   4.839   0.073  10.099 -0.4821 -1.6207  0.4683
10637SOL     OW43634   8.838  11.796   9.124 -0.1529 -0.0282 -0.6203
10637SOL    HW143635   8.858  11.713   9.081 -1.3242  0.0454 -1.3415
10637SOL    HW243636   8.824  11.774   9.216  0.4027 -0.4849 -0.6382
10638SOL     OW43637   8.448   4.523  11.908  0.2603  0.2570 -0.6799
10638SOL    HW143638   8.438   4.528  12.003  3.0960  1.4384 -0.3230
10638SOL    HW243639   8.539   4.496  11.896 -0.2855 -0.7260 -3.0971
10639SOL     OW43640   9.149   8.517   9.282 -0.6786  0.7677 -0.0040
10639SOL    HW143641   9.243   8.516   9.268 -0.3259 -2.6249  1.6404
10639SOL    HW243642   9.112   8.475   9.205 -0.3602 -1.8126  1.1650
10640SOL     OW43643   7.831   5.978   0.868  0.4862 -0.0196 -0.7281
10640SOL    HW143644   7.746   6.016   0.851  0.4637  0.1067 -0.3386
10640SOL    HW243645   7.868   6.031   0.939  0.0927 -1.2450  0.4243
10641SOL     OW43646   3.736   7.487   2.651  0.4711  0.4237 -0.1558
10641SOL    HW143647   3.676   7.548   2.694  0.8573  1.1255 -0.6091
10641SOL    HW243648   3.823   7.514   2.680  0.7197  0.7448 -1.1728
10642SOL     OW43649   6.877   3.641   0.181 -0.1085 -0.6101  0.6600
10642SOL    HW143650   6.797   3.689   0.162 -0.6088 -1.0036  1.6691
10642SOL    HW243651   6.865   3.609   0.271  0.3157 -2.3744  0.1340
10643SOL     OW43652   7.581   2.479   3.994  0.1668 -0.6723  0.1617
10643SOL    HW143653   7.514   2.536   3.957  0.2648 -0.3549  0.4687
10643SOL    HW243654   7.587   2.504   4.086  0.9268 -0.4740  0.0680
10644SOL     OW43655   6.910   3.457   4.899  0.2384 -0.1174 -0.2590
10644SOL    HW143656   6.833   3.457   4.841  0.5004 -0.0106 -0.6065
10644SOL    HW243657   6.905   3.373   4.945 -0.7040  0.3494  0.5391
10645SOL     OW43658   6.054   2.798  10.989 -0.1294 -0.7034 -0.4622
10645SOL    HW143659   6.097   2.829  10.909 -0.6722 -1.7924 -1.2112
10645SOL    HW243660   6.119   2.812  11.058  1.1518 -1.5934 -1.4324
10646SOL     OW43661   6.479   9.597   4.616  0.7334  0.4835 -0.2726
10646SOL    HW143662   6.567   9.602   4.579 -0.6126  0.4617 -3.9812
10646SOL    HW243663   6.465   9.504   4.632  1.3018  0.4640  0.1389
10647SOL     OW43664   2.950   6.752   6.014 -0.6900 -0.4699 -0.4085
10647SOL    HW143665   2.942   6.725   5.923 -1.0341 -1.4038 -0.1205
10647SOL    HW243666   2.879   6.705   6.059 -1.9191  1.6219 -0.0018
10648SOL     OW43667   0.684  10.949   2.547 -0.4465 -0.0691  0.1955
10648SOL    HW143668   0.723  10.980   2.629  2.2617  1.3086 -1.4631
10648SOL    HW243669   0.684  10.854   2.554  0.1187  0.0178  1.6316
10649SOL     OW43670   8.138  10.306  11.745  0.6923 -0.4730 -0.1093
10649SOL    HW143671   8.075  10.370  11.779 -0.1353 -1.2132 -0.2052
10649SOL    HW243672   8.088  10.253  11.684  1.6319 -0.5509 -0.8387
10650SOL     OW43673  11.225   5.517  11.871 -0.0181 -0.1138 -0.0455
10650SOL    HW143674  11.231   5.421  11.876  1.9586  0.0371  1.2982
10650SOL    HW243675  11.177   5.542  11.950 -0.6085  0.0304 -0.4387
10651SOL     OW43676  10.272   4.008   1.777 -0.1767 -0.2032 -0.3643
10651SOL    HW143677  10.343   4.045   1.830 -0.2080 -2.9109  1.8242
10651SOL    HW243678  10.195   4.058   1.803  0.3440  0.5256 -0.1776
10652SOL     OW43679   0.450   6.177  10.233  0.1424 -0.6322  0.2220
10652SOL    HW143680   0.404   6.198  10.151 -1.2794 -1.2669  0.8238
10652SOL    HW243681   0.542   6.192  10.213 -0.2686  0.2687 -1.1739
10653SOL     OW43682   8.011   6.531   3.069 -0.1458  0.2039  0.1162
10653SOL    HW143683   8.051   6.446   3.086  0.7303  0.3773 -0.9906
10653SOL    HW243684   7.947   6.514   3.001 -0.2041  0.3735  0.1280
10654SOL     OW43685   7.494   5.845   2.577 -0.2693  0.3024  0.3616
10654SOL    HW143686   7.523   5.884   2.494  0.3259 -0.9434 -0.0440
10654SOL    HW243687   7.571   5.849   2.634  1.3426 -4.0058 -1.0716
10655SOL     OW43688   2.931   7.469  10.717 -0.2291 -0.3962  0.4009
10655SOL    HW143689   2.873   7.393  10.727  2.7867 -3.3079 -1.9089
10655SOL    HW243690   2.921   7.496  10.626  1.3804 -0.5148  0.1476
10656SOL     OW43691   2.185  11.366   9.025  0.4277  0.4351 -0.0517
10656SOL    HW143692   2.231  11.390   9.105 -1.1028 -0.0743  1.0174
10656SOL    HW243693   2.093  11.362   9.050 -0.0682 -0.0039 -1.7831
10657SOL     OW43694   8.721   9.658   9.894  0.2842  0.2397 -0.4463
10657SOL    HW143695   8.740   9.565   9.910  1.2931  0.2075 -1.6811
10657SOL    HW243696   8.626   9.661   9.882  0.0778 -0.4128  0.8912
10658SOL     OW43697   7.072   7.903  10.127 -0.2436 -0.0504  0.0574
10658SOL    HW143698   6.986   7.879  10.161  0.4119 -1.4442  0.7958
10658SOL    HW243699   7.106   7.824  10.086 -0.3102  1.1438 -2.4944
10659SOL     OW43700   7.627   1.906   8.697  0.3853 -0.3505  0.1265
10659SOL    HW143701   7.576   1.924   8.776  0.9599  0.7847  0.2723
10659SOL    HW243702   7.711   1.950   8.713  0.9241 -1.0606 -0.6525
10660SOL     OW43703   1.146   1.752  10.149 -0.5826 -1.1735  0.3130
10660SOL    HW143704   1.124   1.669  10.190 -0.2293 -1.0365  0.7909
10660SOL    HW243705   1.192   1.728  10.068  1.5579 -1.4690  1.5395
10661SOL     OW43706   8.860   3.828   1.212  0.5520 -0.0680 -0.3633
10661SOL    HW143707   8.845   3.874   1.130 -0.1235  0.3359 -0.0207
10661SOL    HW243708   8.943   3.863   1.244 -0.5654  1.9179  0.5325
10662SOL     OW43709   3.252   6.174   6.169 -0.1861 -0.7387 -0.2663
10662SOL    HW143710   3.235   6.163   6.075  2.6096 -2.7620 -0.6295
10662SOL    HW243711   3.198   6.107   6.210  0.6478 -1.6713 -0.6744
10663SOL     OW43712   8.294   7.601   5.929 -0.4644 -0.1310  0.0935
10663SOL    HW143713   8.265   7.581   6.018 -0.6221 -0.8614 -0.1223
10663SOL    HW243714   8.308   7.696   5.930  0.3776 -0.2424  1.1436
10664SOL     OW43715   9.604  11.861  10.282  0.2742  0.1324 -0.1509
10664SOL    HW143716   9.696  11.841  10.298  0.7627  1.1380 -1.4888
10664SOL    HW243717   9.575  11.795  10.219  0.0916 -0.1491  0.2267
10665SOL     OW43718   6.623   5.177   3.890  0.5062  0.5041  0.2386
10665SOL    HW143719   6.706   5.224   3.893  1.8895 -1.6818 -0.6726
10665SOL    HW243720   6.585   5.200   3.805  0.6651  0.7702  0.2396
10666SOL     OW43721   8.831   3.660   0.807 -0.4139  0.1428 -0.8442
10666SOL    HW143722   8.821   3.594   0.738  0.2564 -1.6790  0.6897
10666SOL    HW243723   8.811   3.613   0.888 -1.6215  2.3207  0.2144
10667SOL     OW43724   1.473   4.059   1.066  0.1441  0.1092 -0.2056
10667SOL    HW143725   1.452   3.986   1.124 -0.6195  0.8489  0.4852
10667SOL    HW243726   1.544   4.027   1.011 -0.7483 -1.4529 -0.5103
10668SOL     OW43727  11.283   7.680   8.541  0.0592 -0.3513  0.4322
10668SOL    HW143728  11.293   7.771   8.570  0.6256 -0.1722 -0.2921
10668SOL    HW243729  11.205   7.681   8.486 -0.8601 -0.6371  1.6911
10669SOL     OW43730  10.218   2.561   7.740 -0.4226  0.2740 -0.3556
10669SOL    HW143731  10.143   2.602   7.698 -0.2242 -0.3821 -1.3704
10669SOL    HW243732  10.285   2.630   7.743 -1.1073  0.9229  0.7487
10670SOL     OW43733   1.817   4.363   9.779  0.0704 -0.2814 -0.2606
10670SOL    HW143734   1.763   4.324   9.710  0.2117 -0.5262 -0.2359
10670SOL    HW243735   1.902   4.320   9.770 -0.5489 -2.0493  1.5145
10671SOL     OW43736   9.324   5.695   9.213 -0.0188 -0.3105 -0.1760
10671SOL    HW143737   9.268   5.694   9.290  0.2695 -3.0334  0.1005
10671SOL    HW243738   9.399   5.749   9.238 -0.2455 -0.6105  1.2139
10672SOL     OW43739   6.808   4.964   7.575  0.0716 -0.6793  0.0709
10672SOL    HW143740   6.731   4.930   7.529  0.4972 -0.5460 -0.7540
10672SOL    HW243741   6.866   4.994   7.505  0.8936 -0.8246  0.6836
10673SOL     OW43742   2.524   8.538   2.893 -0.3649 -0.6076 -0.5886
10673SOL    HW143743   2.553   8.523   2.983 -0.8857 -0.9608 -0.4718
10673SOL    HW243744   2.516   8.633   2.886  0.6308 -0.5178 -0.5736
10674SOL     OW43745   5.636   1.464   7.280 -0.1154  0.6723  0.0283
10674SOL    HW143746   5.696   1.521   7.231  0.6615  0.3751  0.6232
10674SOL    HW243747   5.563   1.522   7.304  0.5656  1.3699  0.4525
10675SOL     OW43748   9.016   4.457  11.810  0.2605  0.5527 -0.5707
10675SOL    HW143749   8.951   4.440  11.878  0.5907  1.9966  0.1472
10675SOL    HW243750   9.092   4.492  11.857  1.4372 -0.7389 -1.4301
10676SOL     OW43751   8.643   4.043   1.707 -0.0253  0.2342 -0.0045
10676SOL    HW143752   8.610   3.982   1.772  0.4234  1.3607  1.3315
10676SOL    HW243753   8.682   3.988   1.639 -0.4333 -0.9673  0.7166
10677SOL     OW43754   4.380   1.472   6.861 -0.0678  0.2892  0.0493
10677SOL    HW143755   4.295   1.503   6.828  0.0067  0.0882 -0.3338
10677SOL    HW243756   4.443   1.535   6.828  0.2748 -1.0105 -1.9660
10678SOL     OW43757   4.149   3.858   0.389  0.9514  0.3524 -0.0213
10678SOL    HW143758   4.181   3.848   0.300  0.4452  1.4678 -0.3495
10678SOL    HW243759   4.094   3.936   0.386  1.8084  1.0519  1.5191
10679SOL     OW43760  10.081   9.482   9.880  0.9249 -0.0930 -0.3535
10679SOL    HW143761  10.131   9.492   9.799  1.3254 -3.0372 -0.5558
10679SOL    HW243762  10.030   9.402   9.867 -1.4157  1.0380  1.1294
10680SOL     OW43763   3.390   3.370   1.006  0.1055  1.1593  0.3477
10680SOL    HW143764   3.385   3.276   0.994 -0.0884  1.3754 -1.4869
10680SOL    HW243765   3.484   3.389   1.012  0.1911  0.9616 -0.3442
10681SOL     OW43766   4.172   7.423   5.676  0.2383  0.0724 -0.8379
10681SOL    HW143767   4.105   7.382   5.621 -0.1453 -0.2941 -0.1081
10681SOL    HW243768   4.173   7.514   5.646  0.7408 -0.3265 -2.1218
10682SOL     OW43769  10.526  11.222   9.792 -0.2741 -0.4226 -0.2587
10682SOL    HW143770  10.473  11.194   9.717  0.6923  1.2458 -1.6546
10682SOL    HW243771  10.557  11.309   9.767 -1.2755  0.9507  2.8286
10683SOL     OW43772   2.180   9.286  11.187 -0.2057  0.4260 -0.3927
10683SOL    HW143773   2.269   9.269  11.218 -0.4443 -0.5016 -0.1704
10683SOL    HW243774   2.161   9.375  11.217  0.0732  0.0571  0.9761
10684SOL     OW43775   1.032   7.660   4.151  0.3447 -0.0101  0.0109
10684SOL    HW143776   1.062   7.584   4.201 -0.7771  1.5346  3.4080
10684SOL    HW243777   1.023   7.729   4.217 -1.5626  2.2257 -2.3649
10685SOL     OW43778   2.981   0.306   3.604 -0.2922 -0.1837 -0.4175
10685SOL    HW143779   3.067   0.263   3.609 -1.0695 -1.8463 -0.6706
10685SOL    HW243780   2.960   0.306   3.511 -0.4527  0.4635 -0.3810
10686SOL     OW43781   6.333   3.493   6.326  0.1766  0.2238 -0.2520
10686SOL    HW143782   6.359   3.564   6.385 -0.4939 -0.3247  0.7300
10686SOL    HW243783   6.321   3.536   6.242  1.9692  0.8882 -0.2256
10687SOL     OW43784   9.355   3.346   5.357  0.1533  0.5241  0.4429
10687SOL    HW143785   9.411   3.269   5.366 -0.9400 -0.2164  1.2892
10687SOL    HW243786   9.415   3.419   5.340  1.1863 -0.5539 -0.6663
10688SOL     OW43787   5.031   3.667   6.393  0.2940  0.4482  0.6056
10688SOL    HW143788   5.071   3.716   6.465  1.3476  1.6618 -0.7502
10688SOL    HW243789   4.954   3.625   6.433  1.0883  0.6957  2.5293
10689SOL     OW43790   7.243   0.631   5.059 -0.1697 -0.4607  0.3849
10689SOL    HW143791   7.217   0.629   5.151 -1.7064 -0.2106 -0.0155
10689SOL    HW243792   7.226   0.543   5.027 -0.6365 -0.2680  0.0922
10690SOL     OW43793   4.008   1.485  11.311  0.5791 -0.4994  0.5838
10690SOL    HW143794   3.915   1.509  11.309  0.1966 -1.8780 -2.3442
10690SOL    HW243795   4.010   1.403  11.360  0.2623 -0.5118  0.5780
10691SOL     OW43796   6.963   6.812   4.997 -0.2758  0.0678  0.6416
10691SOL    HW143797   6.903   6.749   4.957 -2.4901  1.4893  1.5632
10691SOL    HW243798   7.050   6.771   4.989 -1.2689 -1.8601 -1.1519
10692SOL     OW43799   4.255   1.134   4.051 -0.0359  0.1756 -0.1480
10692SOL    HW143800   4.207   1.209   4.015  1.9698  1.8111  0.3782
10692SOL    HW243801   4.312   1.172   4.118  1.1472 -1.8279  0.0634
10693SOL     OW43802   7.541   3.658   6.306  0.0084  0.0210  0.1519
10693SOL    HW143803   7.467   3.716   6.327  0.3883 -0.0624  1.8998
10693SOL    HW243804   7.587   3.703   6.236 -0.5896  1.0663  0.4036
10694SOL     OW43805   4.419   3.011  11.153 -0.4468  0.0182  0.1767
10694SOL    HW143806   4.495   2.956  11.174 -0.3121 -0.0401 -0.4350
10694SOL    HW243807   4.457   3.090  11.115 -0.7100 -0.2749 -0.7136
10695SOL     OW43808   3.592   3.011   3.991  0.0962  0.3508 -0.3630
10695SOL    HW143809   3.599   2.937   4.051 -0.0614  0.3551 -0.3389
10695SOL    HW243810   3.506   3.049   4.010 -0.9332 -0.9591 -2.1162
10696SOL     OW43811   0.063   6.468   0.664  0.1651  0.4473 -0.5500
10696SOL    HW143812   0.067   6.511   0.750  2.5840  2.5156 -1.5429
10696SOL    HW243813   0.153   6.441   0.646 -0.4460 -0.7463 -2.0811
10697SOL     OW43814   6.129   2.013   5.403  0.1473 -0.0125  0.2654
10697SOL    HW143815   6.131   1.928   5.449  0.2046  0.3879  1.0177
10697SOL    HW243816   6.100   2.075   5.470 -0.8397  0.4067 -0.5364
10698SOL     OW43817   3.194   5.119  10.691 -0.5926 -0.0003  0.2354
10698SOL    HW143818   3.130   5.177  10.652 -1.7832 -1.6009 -0.3128
10698SOL    HW243819   3.175   5.120  10.785  1.3366  2.7222  0.7196
10699SOL     OW43820  11.162   9.601   8.028 -0.5158  0.3314 -0.4147
10699SOL    HW143821  11.236   9.645   8.068 -0.6136 -1.2055  1.6014
10699SOL    HW243822  11.199   9.550   7.956  0.7813 -1.9298  1.7317
10700SOL     OW43823   3.956   6.033   8.499 -0.5247 -0.0636  0.6618
10700SOL    HW143824   3.958   6.079   8.415 -0.5771  0.4162  0.9265
10700SOL    HW243825   4.013   6.084   8.556  0.5855 -1.1211  0.5456
10701SOL     OW43826   6.275   3.186   4.684  0.3821 -0.8053  0.0790
10701SOL    HW143827   6.284   3.205   4.778  1.0613 -1.1967  0.1025
10701SOL    HW243828   6.204   3.244   4.655  2.0802  1.5213  0.2223
10702SOL     OW43829  11.385   5.403   8.267 -0.1391 -0.2887  0.2049
10702SOL    HW143830  11.356   5.379   8.354 -2.9486 -1.6892 -1.0006
10702SOL    HW243831  11.480   5.393   8.269 -0.1758 -0.6415  2.9432
10703SOL     OW43832   1.246  11.846   9.405  0.6550  0.3785 -0.3654
10703SOL    HW143833   1.308  11.774   9.391 -1.1203 -0.7716 -3.1198
10703SOL    HW243834   1.301  11.920   9.431  2.6352 -1.7273  2.0843
10704SOL     OW43835   8.657  11.561   3.784 -0.3764 -0.0273  0.1075
10704SOL    HW143836   8.613  11.638   3.822 -1.4279 -0.4944 -0.1187
10704SOL    HW243837   8.646  11.493   3.851  3.0340  0.7028  1.6066
10705SOL     OW43838  11.927   4.952   6.790 -0.3023  0.1167  0.7507
10705SOL    HW143839  11.960   4.984   6.707  0.2177  1.0842  1.3120
10705SOL    HW243840  11.961   4.862   6.797 -0.4516 -0.0159 -0.1160
10706SOL     OW43841   1.975   4.929   8.974 -0.2945 -0.0569  0.4932
10706SOL    HW143842   2.064   4.929   8.938 -0.2046 -0.8944  0.7001
10706SOL    HW243843   1.929   4.996   8.923  0.4873  0.4847  0.4737
10707SOL     OW43844   7.891   3.103   7.336 -0.7829  0.5414  0.9836
10707SOL    HW143845   7.947   3.027   7.352  0.5374  1.1486 -0.5559
10707SOL    HW243846   7.812   3.085   7.387 -0.3248 -1.6583  1.0171
10708SOL     OW43847   4.239   3.667   2.217 -0.0333 -0.5747 -0.5897
10708SOL    HW143848   4.306   3.736   2.219 -1.4914  1.0128 -1.9647
10708SOL    HW243849   4.287   3.587   2.198  1.8489 -0.1627  1.9668
10709SOL     OW43850   1.688   1.770  10.704  0.0258  0.2708  0.3906
10709SOL    HW143851   1.651   1.845  10.751 -0.1559 -0.3286  1.2437
10709SOL    HW243852   1.722   1.807  10.622 -1.7578  0.9674 -0.0716
10710SOL     OW43853   3.465   3.656   5.366 -0.7041  0.2864 -0.1784
10710SOL    HW143854   3.401   3.710   5.412 -0.2426  2.0166 -1.4218
10710SOL    HW243855   3.434   3.656   5.275 -0.0352 -0.5661 -0.4171
10711SOL     OW43856   0.343   0.304  11.770 -0.0822 -0.5801 -0.3508
10711SOL    HW143857   0.310   0.393  11.781 -0.0454 -0.3384 -1.9780
10711SOL    HW243858   0.433   0.307  11.803 -0.3101 -0.2035  0.2458
10712SOL     OW43859   3.982   5.955   0.053  0.4566  0.4377 -0.1735
10712SOL    HW143860   3.967   5.944  -0.041 -0.7905  0.8219 -0.0335
10712SOL    HW243861   4.005   5.867   0.084  2.9048  0.6469 -1.1460
10713SOL     OW43862   2.118   5.845   9.073 -0.1121  0.0755  0.5712
10713SOL    HW143863   2.170   5.911   9.119 -0.7292  1.2660 -0.3663
10713SOL    HW243864   2.049   5.821   9.134  0.3333  0.0178  1.0563
10714SOL     OW43865   0.190   0.115  10.983  0.2361 -0.5908  0.2073
10714SOL    HW143866   0.097   0.101  11.001  0.6684 -0.7898  2.6552
10714SOL    HW243867   0.201   0.210  10.984  0.1437 -0.5822  0.3883
10715SOL     OW43868   8.317   4.981   7.807 -0.0619  0.2350  0.0075
10715SOL    HW143869   8.227   4.992   7.839 -0.5014  1.4740 -1.5577
10715SOL    HW243870   8.359   5.065   7.825  0.4481  0.0516 -0.3145
10716SOL     OW43871   7.633   9.738   4.561  0.5830  0.0237 -0.1609
10716SOL    HW143872   7.574   9.778   4.624  1.4175  0.4732  0.3429
10716SOL    HW243873   7.720   9.770   4.585  1.0614 -0.7834 -0.7666
10717SOL     OW43874  10.373   5.225   4.569 -0.0059  0.2314  0.2657
10717SOL    HW143875  10.293   5.274   4.553 -1.9141 -2.6515  0.2373
10717SOL    HW243876  10.394   5.184   4.485  0.2858 -0.6731  0.7628
10718SOL     OW43877  11.868   4.682  10.157 -0.1527  0.2017 -0.1838
10718SOL    HW143878  11.915   4.685  10.240  1.6416 -2.8737 -0.9219
10718SOL    HW243879  11.776   4.695  10.180  0.2867 -0.6088  2.2737
10719SOL     OW43880   9.181   2.478   1.436 -0.2209  0.0639 -0.4499
10719SOL    HW143881   9.165   2.416   1.364 -0.3583  0.1130 -0.4618
10719SOL    HW243882   9.235   2.546   1.396 -1.0814  0.5757 -0.7538
10720SOL     OW43883   0.126   6.763   2.386  0.5673 -0.3306  0.6511
10720SOL    HW143884   0.063   6.795   2.450  1.4109 -0.1586  1.4135
10720SOL    HW243885   0.074   6.749   2.306 -0.4994 -0.5402  1.3547
10721SOL     OW43886   6.504   0.908   7.703 -0.8812  0.4468 -0.0544
10721SOL    HW143887   6.573   0.944   7.647 -1.2981  2.8010  0.8637
10721SOL    HW243888   6.544   0.829   7.741  0.8914  1.1270 -0.4103
10722SOL     OW43889   3.133   9.109  11.018 -0.2702  0.5655 -0.0883
10722SOL    HW143890   3.219   9.125  11.056  0.0635  0.3441 -0.7351
10722SOL    HW243891   3.112   9.019  11.042  1.2519 -0.6608 -2.8025
10723SOL     OW43892   3.231   8.339   6.516 -0.1179 -0.0962  0.1948
10723SOL    HW143893   3.268   8.251   6.503  0.2814  0.3576 -2.3849
10723SOL    HW243894   3.175   8.331   6.593  1.6608 -2.0192  1.4079
10724SOL     OW43895   2.814  11.586   7.110 -0.5301 -0.4815 -0.4288
10724SOL    HW143896   2.807  11.637   7.029 -3.5418 -0.0977 -0.0622
10724SOL    HW243897   2.820  11.651   7.180 -1.0331 -0.7010 -0.1725
10725SOL     OW43898   5.253   3.694   3.294  0.4377  0.0713 -0.5808
10725SOL    HW143899   5.256   3.748   3.373  1.3030  0.1972 -0.6903
10725SOL    HW243900   5.339   3.705   3.254 -0.5613  1.4931 -2.5211
10726SOL     OW43901   1.296  11.629   9.008 -1.3635  0.8428 -0.2438
10726SOL    HW143902   1.365  11.574   8.971 -1.4414  0.7261 -0.2154
10726SOL    HW243903   1.224  11.569   9.024 -1.3808  0.9200 -0.0353
10727SOL     OW43904   8.295   4.525   1.698 -0.1366 -0.1965  0.0285
10727SOL    HW143905   8.223   4.586   1.683 -0.2979 -0.2757  0.4697
10727SOL    HW243906   8.374   4.576   1.681 -0.3006 -0.3753 -1.4572
10728SOL     OW43907   7.042   4.808   7.611 -1.2174  0.4893 -0.6086
10728SOL    HW143908   7.027   4.714   7.607  0.5670  0.1131  0.2736
10728SOL    HW243909   6.955   4.846   7.624 -1.8959 -1.0909 -0.3256
10729SOL     OW43910   4.156   8.990   6.547  0.5060  0.2460 -0.2922
10729SOL    HW143911   4.162   9.037   6.631 -0.7351  1.0139 -0.6053
10729SOL    HW243912   4.072   8.944   6.551  1.9632 -2.5380  0.2582
10730SOL     OW43913   6.025  10.728  10.866  0.3526  0.0471  0.0195
10730SOL    HW143914   6.084  10.653  10.853 -0.4551 -0.2077 -3.0428
10730SOL    HW243915   5.937  10.692  10.852 -0.0493  1.5009 -1.5479
10731SOL     OW43916   8.275   2.748   1.979  0.1004 -0.4632 -0.3506
10731SOL    HW143917   8.284   2.742   2.074  0.3271  1.8291 -0.1659
10731SOL    HW243918   8.365   2.742   1.946  0.1676  0.2010 -0.2954
10732SOL     OW43919   0.985   0.921   2.235  0.0192 -0.5256  0.0875
10732SOL    HW143920   0.990   0.873   2.153  1.2409 -0.6727  0.2330
10732SOL    HW243921   1.027   0.864   2.299 -0.2609 -0.0959  0.6673
10733SOL     OW43922   5.651  10.979   7.049 -0.6631 -0.1472  0.1156
10733SOL    HW143923   5.698  10.943   6.974 -1.6523  2.0722 -1.6997
10733SOL    HW243924   5.699  10.947   7.125  1.8333 -0.5841 -1.5219
10734SOL     OW43925   7.203  11.469   5.420 -0.1115 -0.1676 -0.0483
10734SOL    HW143926   7.187  11.559   5.448  0.0890 -0.3394  0.6312
10734SOL    HW243927   7.121  11.441   5.379 -0.6481 -0.1495  1.0017
10735SOL     OW43928   2.326   9.590  10.834 -0.4530  0.0722 -0.4658
10735SOL    HW143929   2.349   9.637  10.914 -0.1296  0.1115 -0.5807
10735SOL    HW243930   2.297   9.504  10.864  0.5362 -0.2377 -0.3560
10736SOL     OW43931   5.222  11.614   0.932  0.0847 -0.1016 -0.1753
10736SOL    HW143932   5.308  11.640   0.897  0.2792 -0.6633 -0.1274
10736SOL    HW243933   5.214  11.661   1.014  0.8097 -0.8356  0.3306
10737SOL     OW43934   9.918   1.572   8.134  0.1329  0.4871 -0.7280
10737SOL    HW143935   9.966   1.532   8.061 -1.6275 -1.6896 -0.8169
10737SOL    HW243936   9.891   1.658   8.101  3.1596  1.4731 -0.9315
10738SOL     OW43937   5.735   0.455   1.987 -0.1970  0.6108  0.3085
10738SOL    HW143938   5.692   0.371   1.968 -1.6366  1.2890  0.4329
10738SOL    HW243939   5.782   0.440   2.069 -0.1888 -0.1506  0.1746
10739SOL     OW43940   1.308   2.463   1.065  0.3145 -0.1564 -0.0330
10739SOL    HW143941   1.247   2.474   1.138 -0.1216 -1.3901 -0.1928
10739SOL    HW243942   1.342   2.552   1.049 -0.5635  0.3517  0.8000
10740SOL     OW43943   5.647   4.309   5.383  0.2855  0.0474  0.4220
10740SOL    HW143944   5.698   4.353   5.315  0.2084  0.4372  0.6116
10740SOL    HW243945   5.705   4.240   5.416  1.7706  2.1404  2.4686
10741SOL     OW43946   8.921  11.492   8.461 -0.7177 -0.1233  0.5681
10741SOL    HW143947   8.956  11.403   8.454  2.4050  0.9563  0.8407
10741SOL    HW243948   8.912  11.522   8.370 -1.2290 -0.5265  0.4864
10742SOL     OW43949   8.357   3.651   7.033 -0.0705 -0.1531  0.5540
10742SOL    HW143950   8.285   3.695   6.988  0.2388  0.1268  0.3283
10742SOL    HW243951   8.340   3.665   7.126 -1.0430 -1.2438  0.5708
10743SOL     OW43952   4.205   8.051   4.186  0.0911 -0.0868 -0.2951
10743SOL    HW143953   4.179   7.974   4.237  0.3979  0.0542  0.0735
10743SOL    HW243954   4.244   8.014   4.106 -0.4092 -0.3053 -0.4387
10744SOL     OW43955   5.207   6.151   5.826  0.5383 -0.0228 -0.2525
10744SOL    HW143956   5.184   6.242   5.812 -1.0481 -0.5333 -1.2599
10744SOL    HW243957   5.153   6.123   5.899 -2.0685 -1.1522 -2.4440
10745SOL     OW43958   1.245   0.205   7.318 -0.2082  0.0317 -0.5245
10745SOL    HW143959   1.267   0.244   7.234  0.7064 -0.1911 -0.4042
10745SOL    HW243960   1.329   0.201   7.365 -0.8137  0.8399  0.6834
10746SOL     OW43961   8.398   3.683   4.580  0.5604 -0.0652 -0.2504
10746SOL    HW143962   8.473   3.738   4.601  0.1311  2.5419 -4.3416
10746SOL    HW243963   8.437   3.602   4.545  1.2112 -1.4758  3.3312
10747SOL     OW43964   9.621   7.828   7.258  0.2541 -0.2914 -0.0169
10747SOL    HW143965   9.579   7.878   7.328 -0.6633 -2.3313  0.9847
10747SOL    HW243966   9.553   7.767   7.228  1.5313 -1.4766 -0.6304
10748SOL     OW43967   5.423  10.213   0.336 -0.2280  0.6541 -0.2615
10748SOL    HW143968   5.506  10.252   0.366 -1.4825  1.8665  1.8813
10748SOL    HW243969   5.450  10.146   0.273  2.3747  1.0623  0.2811
10749SOL     OW43970  10.427  11.298   4.904 -0.4480  0.1221 -0.4976
10749SOL    HW143971  10.496  11.265   4.846  0.3033 -0.6149  0.7607
10749SOL    HW243972  10.462  11.379   4.941  0.2558 -0.8048  0.9734
10750SOL     OW43973   5.095   2.051   6.781 -0.1690  0.7502  0.2482
10750SOL    HW143974   5.065   2.033   6.692  0.9986  0.4291 -0.0923
10750SOL    HW243975   5.084   2.145   6.792  0.9316  1.0111 -0.7275
10751SOL     OW43976   2.625  11.608   6.756 -0.1574  0.1788 -0.2616
10751SOL    HW143977   2.720  11.597   6.761 -0.2318 -1.0580 -1.1427
10751SOL    HW243978   2.607  11.619   6.663 -1.0541 -1.6104 -0.3360
10752SOL     OW43979   3.488   7.927   5.554  0.3621  0.2118 -0.0816
10752SOL    HW143980   3.426   7.854   5.559  1.0791 -0.3769  0.3719
10752SOL    HW243981   3.494   7.960   5.643 -0.0716  0.9349 -0.3097
10753SOL     OW43982   0.354   5.402   8.326  0.0171 -0.2006 -0.7965
10753SOL    HW143983   0.271   5.398   8.374  0.0930  0.7696 -0.5650
10753SOL    HW243984   0.336   5.458   8.251  0.6612  0.7008 -0.2985
10754SOL     OW43985  11.066   0.277   1.158 -0.5221  0.4305  0.0795
10754SOL    HW143986  11.034   0.198   1.114  1.3423  1.0178 -2.6061
10754SOL    HW243987  11.160   0.278   1.140 -0.0117  1.8509  2.4345
10755SOL     OW43988   8.358   7.974  11.022 -0.7142 -0.5334  0.1574
10755SOL    HW143989   8.371   7.927  11.104  0.8120  0.0380  0.2716
10755SOL    HW243990   8.289   8.037  11.041 -0.7737 -0.7911  0.8341
10756SOL     OW43991   4.999   0.296   5.638 -0.2510  0.2769  0.1241
10756SOL    HW143992   5.046   0.330   5.562 -0.2898 -0.2897 -0.1597
10756SOL    HW243993   4.999   0.368   5.700  2.2467 -0.1277  0.7020
10757SOL     OW43994   8.362   0.995  11.336  0.7099  0.2256 -0.0861
10757SOL    HW143995   8.304   0.928  11.372  2.2068 -2.1108 -1.7332
10757SOL    HW243996   8.434   1.000  11.398  0.3134  0.7810  0.3388
10758SOL     OW43997   2.230   6.323   2.069  1.1384  0.8666  0.2865
10758SOL    HW143998   2.246   6.345   2.161 -1.2036 -0.1516  1.0212
10758SOL    HW243999   2.135   6.326   2.060  1.0449 -2.3208 -1.2052
10759SOL     OW44000   1.155   2.141   5.741  0.1259  0.2506 -0.0423
10759SOL    HW144001   1.067   2.123   5.774  0.4152 -0.7038  0.2323
10759SOL    HW244002   1.142   2.178   5.654 -0.4981 -2.8017 -1.3795
10760SOL     OW44003   8.165   4.267   1.198  0.2498 -0.4555 -0.0451
10760SOL    HW144004   8.085   4.278   1.249 -0.2245 -0.2687 -0.8050
10760SOL    HW244005   8.167   4.174   1.175 -0.4428 -0.2325 -1.0995
10761SOL     OW44006   8.240   6.358   1.008 -0.9281  0.3634  0.3267
10761SOL    HW144007   8.241   6.375   0.914  1.4062 -0.2929  0.1855
10761SOL    HW244008   8.262   6.442   1.048  0.6305  0.0807  0.1235
10762SOL     OW44009   9.487   1.989   7.593  0.2525 -0.0539 -0.1340
10762SOL    HW144010   9.473   2.074   7.634 -0.8902  0.2524 -1.1167
10762SOL    HW244011   9.401   1.964   7.559  0.6986 -1.3311 -0.3694
10763SOL     OW44012  10.079   4.246   8.709  0.1433 -0.1350 -0.4753
10763SOL    HW144013  10.037   4.223   8.791 -0.3219  1.2337 -0.3057
10763SOL    HW244014  10.030   4.198   8.642  0.9301 -1.7554  0.0815
10764SOL     OW44015   5.924   9.158   7.047 -0.2178  0.2683  0.1682
10764SOL    HW144016   5.993   9.165   6.980 -0.8864 -0.9217 -0.6877
10764SOL    HW244017   5.864   9.092   7.012 -1.2793  0.5756  1.3559
10765SOL     OW44018   7.183  10.585   6.221  0.0435  0.6237  0.2311
10765SOL    HW144019   7.133  10.636   6.157 -0.1259 -0.2986 -0.3873
10765SOL    HW244020   7.238  10.650   6.265 -0.5826  1.4277 -0.1360
10766SOL     OW44021   5.945   4.032   4.590  0.1078  0.4386  0.5937
10766SOL    HW144022   5.863   4.009   4.545  1.3694 -0.0600 -1.5976
10766SOL    HW244023   6.006   3.963   4.565  2.0216  2.3623 -0.3237
10767SOL     OW44024   8.975   2.933   4.551  0.0620  0.0105 -0.4001
10767SOL    HW144025   9.041   2.933   4.619 -0.0399 -0.9181 -0.2781
10767SOL    HW244026   8.932   3.018   4.558  2.1099  1.1768 -1.3642
10768SOL     OW44027   5.418   3.056  10.032 -0.3482 -0.0212 -0.1545
10768SOL    HW144028   5.324   3.045  10.021 -0.2442  0.0788 -1.3034
10768SOL    HW244029   5.452   2.967  10.037 -0.4547 -0.0737 -0.3259
10769SOL     OW44030   1.718   5.346   4.415 -0.3053  0.3009  0.3213
10769SOL    HW144031   1.694   5.321   4.326  1.2267 -0.7694  0.1600
10769SOL    HW244032   1.734   5.263   4.460  0.0791  0.8639  1.2510
10770SOL     OW44033   6.055  10.125  10.438 -0.1226  0.0839  0.1452
10770SOL    HW144034   6.137  10.175  10.434 -0.0389  0.0201  0.8137
10770SOL    HW244035   6.014  10.155  10.519  0.1660 -1.2810  0.8350
10771SOL     OW44036   4.886   7.071  10.269  0.5320  0.0250 -0.0941
10771SOL    HW144037   4.933   7.051  10.351 -0.5478 -1.3071  0.2370
10771SOL    HW244038   4.896   7.165  10.258  0.9037  0.1926  1.4570
10772SOL     OW44039   5.523   6.741   5.729  0.0567 -0.4807 -0.2777
10772SOL    HW144040   5.613   6.733   5.698  0.1578 -0.9438  0.1216
10772SOL    HW244041   5.487   6.815   5.680  0.0716 -1.4613 -1.8273
10773SOL     OW44042   6.970   0.438   3.125 -0.4267  0.5610 -0.8825
10773SOL    HW144043   7.027   0.415   3.198 -1.0370 -0.0438 -0.5801
10773SOL    HW244044   6.925   0.518   3.154 -0.7504  0.2596 -0.5461
10774SOL     OW44045   9.171   7.840  11.676 -0.2718 -0.8686  0.3545
10774SOL    HW144046   9.123   7.768  11.718 -0.0530  0.0966  2.3876
10774SOL    HW244047   9.263   7.818  11.689 -0.1937  0.1375  1.7665
10775SOL     OW44048   2.209   2.098   7.247 -0.3924 -0.7675 -0.0453
10775SOL    HW144049   2.166   2.087   7.332 -0.7988 -0.3066 -0.1831
10775SOL    HW244050   2.236   2.010   7.222 -0.5735 -0.9547  0.4052
10776SOL     OW44051   4.390   8.730   0.029  0.3239  0.3878 -0.0957
10776SOL    HW144052   4.320   8.666   0.041 -1.1677  1.8521 -0.5766
10776SOL    HW244053   4.454   8.685  -0.026 -0.7351 -0.6490 -0.5347
10777SOL     OW44054   6.325   5.199   3.987 -0.1721 -0.3074 -0.4851
10777SOL    HW144055   6.419   5.192   3.975 -0.1210  2.0743 -2.2937
10777SOL    HW244056   6.295   5.109   3.999  2.2004 -1.2044 -0.8145
10778SOL     OW44057   3.896   3.973  10.641  0.3084  0.0134  0.4573
10778SOL    HW144058   3.981   3.969  10.685  0.0824 -0.1448  0.8823
10778SOL    HW244059   3.841   3.912  10.690  0.6085 -1.7730 -1.2754
10779SOL     OW44060   5.376   9.044   9.930  0.5181  0.1450 -0.3147
10779SOL    HW144061   5.456   9.041   9.878 -0.3816 -0.9717 -1.6769
10779SOL    HW244062   5.310   9.081   9.871 -0.1305  0.4915  0.6004
10780SOL     OW44063   5.666   1.104   8.081 -0.5221 -0.1431 -0.1786
10780SOL    HW144064   5.635   1.035   8.023  0.3695 -1.0249  0.3652
10780SOL    HW244065   5.750   1.131   8.043  0.0029 -0.6345  0.6185
10781SOL     OW44066  11.266  10.311   6.936 -0.3063 -0.1977 -0.3984
10781SOL    HW144067  11.350  10.354   6.917  0.2414 -1.1273 -0.1835
10781SOL    HW244068  11.260  10.314   7.032 -0.8615  0.4649 -0.4457
10782SOL     OW44069   1.594   8.746   5.077  0.3956 -0.0291  0.5561
10782SOL    HW144070   1.617   8.654   5.085 -0.0781 -0.1074  1.0552
10782SOL    HW244071   1.556   8.754   4.990 -1.0805 -0.6457  1.1171
10783SOL     OW44072  10.398  11.681   9.680  0.1428 -0.2242  0.0638
10783SOL    HW144073  10.338  11.686   9.606 -0.5439  2.3200  0.6834
10783SOL    HW244074  10.341  11.665   9.756  0.7264 -1.7229  0.2318
10784SOL     OW44075  11.919   2.456   1.121 -0.1195 -1.1194 -0.0074
10784SOL    HW144076  11.998   2.504   1.096  0.7852 -2.4548  0.1761
10784SOL    HW244077  11.858   2.472   1.049 -0.1392  0.9000  0.4173
10785SOL     OW44078   3.361   4.720   5.825  0.5032 -0.0204 -0.3189
10785SOL    HW144079   3.408   4.711   5.908 -0.7441  0.1124  0.4196
10785SOL    HW244080   3.304   4.796   5.838 -1.0792 -1.1187 -0.6233
10786SOL     OW44081   4.142   0.159   6.250  0.5985 -0.0913 -0.2951
10786SOL    HW144082   4.099   0.153   6.164  0.2641  0.0349 -0.1348
10786SOL    HW244083   4.235   0.168   6.229  0.4420  0.7085 -0.6559
10787SOL     OW44084   3.139  10.396  11.029 -0.2552  0.2229 -0.3356
10787SOL    HW144085   3.154  10.335  10.957  1.7628 -0.5032  0.6449
10787SOL    HW244086   3.080  10.348  11.088 -0.3372  0.0401 -0.5620
10788SOL     OW44087   3.597   7.159  10.728  0.1679 -0.7637  0.1761
10788SOL    HW144088   3.586   7.072  10.765  2.4384 -1.3571 -0.3630
10788SOL    HW244089   3.612   7.144  10.635 -0.1648  0.2737 -0.0583
10789SOL     OW44090   1.067  11.897   7.966 -0.2518  0.4961  0.1320
10789SOL    HW144091   1.096  11.952   8.039  2.2792  1.5477 -1.4898
10789SOL    HW244092   1.041  11.959   7.898  0.8782 -0.2930 -1.0879
10790SOL     OW44093   3.256  11.602   7.872 -1.0152  0.1284 -0.3398
10790SOL    HW144094   3.300  11.644   7.946 -1.4325 -1.0606  0.6075
10790SOL    HW244095   3.327  11.558   7.825 -0.5846  1.7396 -1.2975
10791SOL     OW44096  10.501   5.883   8.349  0.4690  0.1197 -0.2728
10791SOL    HW144097  10.450   5.802   8.341 -0.6380  0.8873 -1.2065
10791SOL    HW244098  10.534   5.881   8.439 -0.5555 -0.7842  0.1096
10792SOL     OW44099  10.571   3.103   0.339 -0.2311  0.0570 -0.0303
10792SOL    HW144100  10.630   3.106   0.263 -0.8796  1.1681 -0.5119
10792SOL    HW244101  10.487   3.134   0.306 -1.0726 -1.3438  0.6899
10793SOL     OW44102   4.100   2.468   9.926 -0.2276  0.1620 -0.2669
10793SOL    HW144103   4.148   2.418   9.859 -1.1545  0.1939 -0.9852
10793SOL    HW244104   4.020   2.417   9.940  0.6155 -0.6385  1.9494
10794SOL     OW44105   5.330   2.108   7.177 -0.0594 -0.2565 -0.2514
10794SOL    HW144106   5.324   2.118   7.082  0.6081  0.6449 -0.2228
10794SOL    HW244107   5.311   2.016   7.194  0.7892 -0.6529 -1.3610
10795SOL     OW44108   6.567  10.665   6.343  0.0281  0.4339  0.0172
10795SOL    HW144109   6.599  10.593   6.289  2.8985 -0.2286  2.2973
10795SOL    HW244110   6.500  10.625   6.399 -0.3058  0.2141 -0.5351
10796SOL     OW44111   7.727   4.383  11.017  0.2638  0.1890 -1.0344
10796SOL    HW144112   7.818   4.391  11.046  0.4402 -0.3966 -1.4092
10796SOL    HW244113   7.678   4.366  11.097  0.5864 -0.2544 -0.9296
10797SOL     OW44114   5.375   2.194   7.432 -0.0226 -0.8538  0.6217
10797SOL    HW144115   5.468   2.189   7.451  0.0101 -0.0564  0.7130
10797SOL    HW244116   5.367   2.163   7.342  0.8775  2.5803 -0.8139
10798SOL     OW44117   3.468   0.602   0.289 -0.3410  0.2489  0.3334
10798SOL    HW144118   3.419   0.562   0.218  0.8925  1.5759 -1.3406
10798SOL    HW244119   3.485   0.530   0.350 -3.8704 -0.3724  0.8203
10799SOL     OW44120   3.867   4.908  11.515  0.5617  0.0954 -0.2034
10799SOL    HW144121   3.932   4.878  11.579  2.6219  2.9994 -0.7433
10799SOL    HW244122   3.908   4.889  11.430 -0.0887  0.4066 -0.5894
10800SOL     OW44123   5.668   3.032   7.975  0.3350  0.0729 -0.5479
10800SOL    HW144124   5.630   3.103   7.923 -1.1789 -0.7750 -0.6409
10800SOL    HW244125   5.631   2.952   7.937  0.3847 -0.6511  0.8716
10801SOL     OW44126  10.814   4.392   3.661  0.2709 -0.3358  0.8135
10801SOL    HW144127  10.848   4.426   3.579  1.5273 -0.0213  1.4412
10801SOL    HW244128  10.727   4.430   3.669  0.2698 -0.1130 -0.2083
10802SOL     OW44129   2.516   8.674   7.270 -0.1134 -0.1973 -0.1931
10802SOL    HW144130   2.570   8.679   7.192 -0.4800 -0.4955 -0.4666
10802SOL    HW244131   2.519   8.583   7.297  1.7485  0.2731  1.3914
10803SOL     OW44132   8.957   2.904   9.761 -0.1410 -0.2308  0.4816
10803SOL    HW144133   8.863   2.916   9.772  0.1426  2.0197  0.8342
10803SOL    HW244134   8.974   2.933   9.671  0.2382 -0.6606  0.4080
10804SOL     OW44135  10.995   8.087  11.210  0.3936  0.0580 -0.0428
10804SOL    HW144136  10.914   8.134  11.191  0.1503  0.0752  1.0264
10804SOL    HW244137  11.059   8.155  11.230  1.0549  0.1325 -2.1381
10805SOL     OW44138   5.032  10.290   2.448  0.0318 -0.8164  0.1391
10805SOL    HW144139   4.999  10.200   2.442 -0.1751 -0.6678 -1.3315
10805SOL    HW244140   4.954  10.344   2.436  0.4157 -0.4490 -0.6997
10806SOL     OW44141   5.576   4.887   7.161 -1.0525  0.2580  0.1393
10806SOL    HW144142   5.572   4.977   7.129 -2.4311 -0.3855 -1.6774
10806SOL    HW244143   5.628   4.892   7.241  0.2531  2.4111 -0.7633
10807SOL     OW44144   7.294  11.043   8.497 -0.0349  0.0028 -0.0752
10807SOL    HW144145   7.246  11.023   8.578 -0.8586 -0.2509 -0.6104
10807SOL    HW244146   7.231  11.025   8.427  0.7721 -0.1042 -0.7954
10808SOL     OW44147   6.195   5.757   3.603 -0.4598 -0.4958  0.6843
10808SOL    HW144148   6.254   5.692   3.566 -0.9649 -0.1840 -0.6956
10808SOL    HW244149   6.108   5.718   3.598 -0.6034 -0.2451  1.1042
10809SOL     OW44150  10.186   1.246   8.719  0.4107  0.1445 -0.1809
10809SOL    HW144151  10.178   1.275   8.810 -1.4310  0.5440 -0.4243
10809SOL    HW244152  10.116   1.181   8.708 -0.6288  1.4339 -1.7576
10810SOL     OW44153   7.246   0.935   6.991 -0.2836 -0.3384  0.1974
10810SOL    HW144154   7.273   0.864   7.050  0.1048  0.1733  0.6512
10810SOL    HW244155   7.155   0.951   7.014 -0.2410 -0.3866  0.4115
10811SOL     OW44156   8.795   1.397   5.185  0.1820 -0.8136  0.2327
10811SOL    HW144157   8.706   1.388   5.152  1.2297 -2.6731 -2.3697
10811SOL    HW244158   8.830   1.474   5.140  0.6199 -1.5180 -0.6665
10812SOL     OW44159   9.905   0.267   2.835 -0.7192 -0.4354 -0.2499
10812SOL    HW144160   9.924   0.192   2.890 -0.3598 -0.4303 -0.3627
10812SOL    HW244161   9.990   0.295   2.801 -0.6270  1.0583  1.1099
10813SOL     OW44162   6.231   7.737   9.941 -0.2482  0.4683 -0.5681
10813SOL    HW144163   6.243   7.699   9.854  0.9135 -2.0703  0.5991
10813SOL    HW244164   6.138   7.724   9.960 -0.3422  0.3280 -1.1070
10814SOL     OW44165   6.676   6.560  11.364 -0.4339  0.0609 -0.4272
10814SOL    HW144166   6.720   6.580  11.282 -1.2064 -2.9062 -1.6959
10814SOL    HW244167   6.597   6.512  11.339 -0.4542 -1.3908  2.0282
10815SOL     OW44168   1.868   2.334   3.594  0.1428  0.0759 -0.0440
10815SOL    HW144169   1.881   2.293   3.509  0.9762 -0.2164  0.2102
10815SOL    HW244170   1.859   2.261   3.655  2.4975  0.1965  0.5441
10816SOL     OW44171   5.462  10.294   8.233 -0.6998 -0.6175 -0.1442
10816SOL    HW144172   5.394  10.335   8.180 -0.9800  0.0928  0.7463
10816SOL    HW244173   5.416  10.225   8.281 -1.6694  1.9993  3.0823
10817SOL     OW44174   0.529   3.867   5.377 -0.0611  0.0389  0.1521
10817SOL    HW144175   0.472   3.936   5.342 -1.2707  0.5574  2.8376
10817SOL    HW244176   0.468   3.797   5.403  0.7034 -0.2599  1.2314
10818SOL     OW44177   0.913  11.267   5.411  0.4608 -0.4073 -0.1184
10818SOL    HW144178   0.994  11.219   5.396  2.1323  2.5282 -1.3674
10818SOL    HW244179   0.900  11.318   5.331  0.7954  3.7845  2.1909
10819SOL     OW44180   6.876  10.063   7.489 -0.2541  0.3939 -0.6554
10819SOL    HW144181   6.905  10.007   7.417 -0.4863  0.5510 -0.8744
10819SOL    HW244182   6.948  10.061   7.551 -0.6968 -1.0339 -0.1444
10820SOL     OW44183   0.441   2.037   7.077  0.7172  0.2895  0.2512
10820SOL    HW144184   0.430   2.076   7.164 -1.1308 -0.8684  0.5925
10820SOL    HW244185   0.473   1.949   7.095  0.8635  0.2311 -0.2928
10821SOL     OW44186   7.556   1.250   1.009 -0.3569 -0.1549 -0.0382
10821SOL    HW144187   7.499   1.262   0.933 -1.6066  2.1076  1.1573
10821SOL    HW244188   7.539   1.160   1.038 -2.4158  0.0457 -0.4481
10822SOL     OW44189   3.978   4.118   7.063  0.1667  0.3931  0.1150
10822SOL    HW144190   3.962   4.155   6.976  0.1795 -2.4229 -1.2021
10822SOL    HW244191   4.051   4.168   7.098  0.5277  1.2360 -1.7424
10823SOL     OW44192   1.317   5.573  11.632  0.2349 -0.2248 -0.4986
10823SOL    HW144193   1.324   5.478  11.620 -0.8340 -0.4371  0.3742
10823SOL    HW244194   1.404   5.606  11.610  0.6717 -1.4238 -0.6678
10824SOL     OW44195  10.883   4.605   7.221  0.0793 -0.2789 -0.0959
10824SOL    HW144196  10.845   4.681   7.265 -1.3159 -0.5969 -0.7036
10824SOL    HW244197  10.896   4.540   7.290 -1.6265 -0.5972 -0.0358
10825SOL     OW44198   4.172   5.197   8.043  0.2301 -0.0105  0.2517
10825SOL    HW144199   4.163   5.279   8.092  0.4221  0.7800 -1.0037
10825SOL    HW244200   4.266   5.182   8.038  0.2067 -0.1355  0.1873
10826SOL     OW44201   0.056   3.410   9.272  0.0922  0.2100 -0.5038
10826SOL    HW144202   0.115   3.392   9.199 -0.6430  0.3533 -1.1539
10826SOL    HW244203  -0.025   3.365   9.248 -0.2344  0.4563  0.1170
10827SOL     OW44204   9.425   7.069  10.493 -0.2723 -0.0420 -0.5438
10827SOL    HW144205   9.342   7.057  10.445 -1.1100  2.3699  0.1574
10827SOL    HW244206   9.466   7.144  10.451  1.7766 -1.3801 -1.0638
10828SOL     OW44207   7.998   9.780   5.842 -0.1940  0.1207  0.1705
10828SOL    HW144208   8.016   9.689   5.818  0.7651  1.2552 -4.4301
10828SOL    HW244209   7.909   9.796   5.808 -1.8006  0.1850  3.9415
10829SOL     OW44210   5.867   1.524   1.049 -0.3420 -0.7801  0.0349
10829SOL    HW144211   5.832   1.444   1.088  2.0106 -1.1983  1.4552
10829SOL    HW244212   5.951   1.499   1.012  0.5923  1.0502  0.7525
10830SOL     OW44213   4.570  11.954   5.500 -0.2334 -0.0309 -0.5845
10830SOL    HW144214   4.610  11.943   5.414 -0.2906  0.2070 -0.6429
10830SOL    HW244215   4.583  12.047   5.521  0.2991 -0.2152 -0.0784
10831SOL     OW44216   9.081   1.344   9.016 -0.1360 -0.1378  0.0223
10831SOL    HW144217   9.155   1.347   8.956  0.2066 -0.9413  0.3758
10831SOL    HW244218   9.121   1.356   9.103  0.0594 -3.3997  0.5331
10832SOL     OW44219   4.156   4.484  11.635 -0.4891 -0.2627  1.3299
10832SOL    HW144220   4.118   4.398  11.617 -0.4944  0.1550 -0.9256
10832SOL    HW244221   4.250   4.472  11.623 -0.4579 -0.0286  1.3360
10833SOL     OW44222   6.694  11.112   8.188 -0.2234 -0.2469  0.2410
10833SOL    HW144223   6.709  11.106   8.094 -0.9404  1.1813  0.0065
10833SOL    HW244224   6.599  11.101   8.198 -0.1523 -0.3997  0.7952
10834SOL     OW44225   0.546   6.987   9.081  0.0407 -0.3367 -0.0048
10834SOL    HW144226   0.474   7.030   9.127 -0.1431 -0.0418 -0.5623
10834SOL    HW244227   0.504   6.933   9.015  0.3509  0.9181 -1.2772
10835SOL     OW44228   0.026   2.721   4.936 -0.3277  0.2943 -0.5583
10835SOL    HW144229  -0.058   2.746   4.974 -0.3870  0.4442 -0.7880
10835SOL    HW244230   0.074   2.679   5.008 -0.9022 -0.5116 -0.6271
10836SOL     OW44231  11.308   8.016   5.555 -0.1693 -0.2368  0.2544
10836SOL    HW144232  11.367   7.987   5.624  1.6677  2.3406 -0.1002
10836SOL    HW244233  11.357   8.004   5.474 -1.3164 -0.8510 -0.3712
10837SOL     OW44234   1.959   0.787   6.807 -0.3445 -0.2031 -0.1157
10837SOL    HW144235   2.046   0.818   6.830 -0.0848 -0.7083 -0.4095
10837SOL    HW244236   1.932   0.732   6.881 -0.9674  1.0139  0.5888
10838SOL     OW44237   8.822   6.074  10.572 -0.0411  0.3302 -0.3328
10838SOL    HW144238   8.789   6.115  10.491  0.9918  1.6685 -0.1295
10838SOL    HW244239   8.917   6.083  10.565  0.0801  0.1073  0.8563
10839SOL     OW44240   4.523   4.146   0.438  0.4688  0.0967  0.4776
10839SOL    HW144241   4.463   4.099   0.496  0.8731  0.1690  0.9609
10839SOL    HW244242   4.600   4.162   0.492  0.3869  1.2108  0.2806
10840SOL     OW44243  11.329   6.044   5.464  0.0706  0.5035  0.1572
10840SOL    HW144244  11.383   6.088   5.530  1.7469 -0.1873 -0.7007
10840SOL    HW244245  11.364   5.956   5.458 -1.3153 -0.0462 -0.2978
10841SOL     OW44246   8.948  11.369   6.095 -0.1359 -0.4267 -0.0955
10841SOL    HW144247   9.026  11.340   6.141 -1.0385  0.3960  2.0830
10841SOL    HW244248   8.908  11.288   6.062  0.6772 -1.0077  0.3158
10842SOL     OW44249  11.835   2.465   9.998  0.0454 -0.2586 -0.0370
10842SOL    HW144250  11.754   2.513  10.017  1.3452  1.0312  3.1095
10842SOL    HW244251  11.808   2.374   9.988 -1.7966  0.0975  1.1798
10843SOL     OW44252   1.311   5.246   4.281  0.0190  0.2401 -0.5688
10843SOL    HW144253   1.245   5.207   4.337 -0.3317  0.6711 -0.6748
10843SOL    HW244254   1.335   5.328   4.324  0.3884  0.1512 -0.5982
10844SOL     OW44255   9.246   1.438   0.772  0.4157 -0.3077  0.0326
10844SOL    HW144256   9.277   1.463   0.685  0.6116 -0.9440 -0.0830
10844SOL    HW244257   9.280   1.349   0.785  0.8574 -0.0115  0.9845
10845SOL     OW44258   5.248   0.485  11.803  0.1154 -0.1205  0.3189
10845SOL    HW144259   5.184   0.533  11.752 -0.3701  0.6021  1.5719
10845SOL    HW244260   5.283   0.419  11.742  0.2452  1.2989 -1.1939
10846SOL     OW44261   3.739   1.548   8.188  0.3463 -0.3737  0.4030
10846SOL    HW144262   3.750   1.638   8.158  2.2529 -0.9177 -0.6614
10846SOL    HW244263   3.645   1.530   8.176  0.2643  0.8754 -1.1094
10847SOL     OW44264   7.377   6.095   6.176  0.1554  0.2805 -1.1140
10847SOL    HW144265   7.366   6.006   6.208  1.8353  0.6769  0.7103
10847SOL    HW244266   7.465   6.097   6.138  1.1547  1.6848  1.0427
10848SOL     OW44267  11.882   2.882   4.708  0.3580  0.1405  0.9292
10848SOL    HW144268  11.789   2.869   4.720  0.1793  1.9416  1.8796
10848SOL    HW244269  11.921   2.867   4.794  1.2526 -2.3800  0.1816
10849SOL     OW44270  10.186   9.432   7.429 -0.0002  0.1083  0.6199
10849SOL    HW144271  10.104   9.478   7.412 -1.1873 -1.2628  2.2278
10849SOL    HW244272  10.232   9.488   7.492  0.3357  0.8854 -0.2923
10850SOL     OW44273   2.872   2.190   7.745 -0.5977  0.3262 -0.0682
10850SOL    HW144274   2.963   2.167   7.759 -0.1996  1.9098  0.1704
10850SOL    HW244275   2.834   2.115   7.699  1.1431  0.1919 -1.3804
10851SOL     OW44276   3.985   5.115   5.825  0.3263  0.3609  0.3250
10851SOL    HW144277   3.917   5.052   5.849 -0.0051 -0.3211 -2.1893
10851SOL    HW244278   3.946   5.200   5.844 -0.7100 -0.0606  0.1567
10852SOL     OW44279   3.980   9.554   6.568 -0.3497 -0.1717  0.1810
10852SOL    HW144280   4.069   9.529   6.544 -1.0193 -1.0050 -1.6799
10852SOL    HW244281   3.961   9.503   6.647  0.8272  0.0501  0.6193
10853SOL     OW44282   4.281   2.176  10.882  0.2167 -0.6594 -0.1594
10853SOL    HW144283   4.295   2.187  10.788 -1.4616 -0.3466 -0.3962
10853SOL    HW244284   4.212   2.110  10.889 -1.3167  0.9792  0.7541
10854SOL     OW44285   0.382   0.783   2.962  0.3054 -0.6497 -0.2754
10854SOL    HW144286   0.436   0.833   3.023  0.0973  0.1170 -0.7087
10854SOL    HW244287   0.392   0.828   2.878 -2.4401  0.6536  0.0016
10855SOL     OW44288  11.354   4.788  10.832 -0.8274 -0.0405 -0.3590
10855SOL    HW144289  11.346   4.860  10.894  0.2999 -0.1762 -0.0364
10855SOL    HW244290  11.328   4.711  10.881  1.6100 -0.4024  0.5245
10856SOL     OW44291   9.842   1.052   0.240 -0.0127  0.0115 -0.4473
10856SOL    HW144292   9.815   1.017   0.155  1.3385 -0.1967 -0.8160
10856SOL    HW244293   9.801   1.138   0.245 -1.1607 -0.5083 -0.7345
10857SOL     OW44294   2.856  10.881   0.593  0.1493 -0.2416  0.1990
10857SOL    HW144295   2.865  10.821   0.667 -1.3343 -2.2829 -1.1781
10857SOL    HW244296   2.911  10.843   0.524  2.1897  2.0781  0.4023
10858SOL     OW44297   9.725   3.167   9.137 -0.1930 -0.7874 -0.2608
10858SOL    HW144298   9.658   3.233   9.156  1.2808  1.1534 -1.3766
10858SOL    HW244299   9.676   3.086   9.125 -2.2909  0.4376 -0.5476
10859SOL     OW44300   8.619   6.372   1.130  0.0505  0.2046 -0.4107
10859SOL    HW144301   8.617   6.330   1.216  3.2341 -1.4307 -0.9776
10859SOL    HW244302   8.665   6.455   1.145  0.5542 -0.0546 -0.4789
10860SOL     OW44303   2.085   8.399   9.024 -0.7295 -0.1560  0.1361
10860SOL    HW144304   2.123   8.410   8.937 -1.1116 -0.0671 -0.0242
10860SOL    HW244305   2.010   8.341   9.010 -0.5174 -0.5165  0.4867
10861SOL     OW44306   8.983   5.969  11.230 -0.6109  0.1554 -0.4142
10861SOL    HW144307   8.955   5.877  11.234 -1.6044  0.3504 -2.1084
10861SOL    HW244308   9.011   5.988  11.320 -1.2958 -1.5152  0.2156
10862SOL     OW44309   6.956   9.276   7.885  0.5406  0.0029 -0.2421
10862SOL    HW144310   7.038   9.232   7.862  1.2698  0.1257  1.9348
10862SOL    HW244311   6.968   9.366   7.854  0.5429 -0.3616 -1.3608
10863SOL     OW44312  10.239   8.708  10.570  0.5213 -0.2139  0.2038
10863SOL    HW144313  10.156   8.668  10.592  0.6325 -1.1056 -0.8664
10863SOL    HW244314  10.219   8.767  10.497  1.0977 -2.0864 -1.6018
10864SOL     OW44315  10.200   0.957   7.747 -0.2051  0.3743  0.4258
10864SOL    HW144316  10.254   0.981   7.822 -1.0174  1.2281  0.7639
10864SOL    HW244317  10.261   0.951   7.674  0.3282  1.4816  0.7565
10865SOL     OW44318  10.659  11.128   9.425  0.3589  0.1272  0.5931
10865SOL    HW144319  10.710  11.189   9.372  1.4957  0.6809  2.2436
10865SOL    HW244320  10.721  11.097   9.491 -0.6312 -1.6262  0.7476
10866SOL     OW44321   0.694   5.245   2.093 -0.1809 -0.3921  0.0407
10866SOL    HW144322   0.727   5.221   2.007 -1.1202 -0.8439 -0.2104
10866SOL    HW244323   0.740   5.187   2.154  1.3224  0.6972 -0.0182
10867SOL     OW44324   1.292   2.578  10.814  0.3741  0.5582  0.0349
10867SOL    HW144325   1.249   2.657  10.848 -0.4230  0.5552 -0.9252
10867SOL    HW244326   1.293   2.590  10.719  3.3183  0.9554  0.0286
10868SOL     OW44327   4.732   6.657   6.976  0.0088  0.5178 -0.0079
10868SOL    HW144328   4.824   6.643   6.996 -0.1329  0.6917  0.7834
10868SOL    HW244329   4.732   6.691   6.887  0.7003  0.3988 -0.0584
10869SOL     OW44330   5.114   7.330   4.161 -0.8838  0.7115 -0.0674
10869SOL    HW144331   5.100   7.304   4.252 -1.9139  0.8211 -0.1814
10869SOL    HW244332   5.067   7.412   4.152 -1.5010  0.2808 -0.9185
10870SOL     OW44333   2.982   0.252   5.087  0.4582 -0.2381  0.2062
10870SOL    HW144334   3.029   0.306   5.150  1.1086 -2.6329  1.9311
10870SOL    HW244335   2.913   0.309   5.053  1.7095  1.9409  1.1035
10871SOL     OW44336   4.109  10.582   5.994 -0.3093 -0.4908 -0.2133
10871SOL    HW144337   4.195  10.622   5.982 -1.4120  1.6409 -1.5412
10871SOL    HW244338   4.112  10.502   5.940  0.3375  0.4139 -1.5633
10872SOL     OW44339   8.983   1.504   6.367  0.4247  0.4439 -0.0811
10872SOL    HW144340   9.054   1.554   6.408 -0.2289  1.1730  0.1956
10872SOL    HW244341   8.925   1.571   6.330  0.5571 -0.1889 -1.4659
10873SOL     OW44342   0.330  10.419   7.041  0.2077  0.1540 -0.4954
10873SOL    HW144343   0.408  10.417   7.096  0.0657 -2.2422 -0.2639
10873SOL    HW244344   0.261  10.454   7.098  0.6017 -0.0159  0.0923
10874SOL     OW44345   5.203   2.266  11.472  0.5802 -0.0218  0.3270
10874SOL    HW144346   5.155   2.237  11.549 -1.6606  1.1295 -0.5489
10874SOL    HW244347   5.218   2.187  11.421 -0.7801 -0.3563  0.4296
10875SOL     OW44348   5.767   5.443   6.679  0.0389 -0.8628 -0.3418
10875SOL    HW144349   5.709   5.412   6.750 -0.3405  1.0947  0.2692
10875SOL    HW244350   5.854   5.415   6.706 -0.0573  0.1288  1.1128
10876SOL     OW44351   5.436   0.134   7.629 -0.1336 -0.1398 -0.3573
10876SOL    HW144352   5.518   0.182   7.644 -0.3506 -0.2077  1.2741
10876SOL    HW244353   5.414   0.151   7.538  0.3594  2.0044 -0.1339
10877SOL     OW44354   6.253   9.473   8.672  0.1653  0.7630 -0.7714
10877SOL    HW144355   6.282   9.403   8.730 -1.6342 -0.2481 -0.9857
10877SOL    HW244356   6.200   9.428   8.606 -1.3475  2.3553 -0.7184
10878SOL     OW44357   7.851   8.075   1.192  0.2946  0.2171 -0.0321
10878SOL    HW144358   7.929   8.066   1.137 -0.5553  1.4924 -1.5400
10878SOL    HW244359   7.881   8.127   1.267  1.2740 -0.8356  0.3426
10879SOL     OW44360   7.923   6.392   8.562  0.7268  0.4035 -0.6247
10879SOL    HW144361   7.912   6.390   8.467  0.3875  0.6767 -0.5905
10879SOL    HW244362   7.985   6.464   8.576 -0.3434  1.3242 -0.5330
10880SOL     OW44363   6.087   4.896   3.802  0.3602  0.1282 -0.1551
10880SOL    HW144364   6.135   4.913   3.883  0.1767  2.7514 -0.5035
10880SOL    HW244365   6.006   4.946   3.812 -0.8034 -1.5006 -0.9755
10881SOL     OW44366  10.649   2.787   0.223 -0.1870  0.7380  0.2262
10881SOL    HW144367  10.625   2.713   0.280  0.6190  0.2024 -0.1133
10881SOL    HW244368  10.566   2.832   0.207 -0.6932 -0.0736  0.4641
10882SOL     OW44369   3.928   9.919   6.995  0.3485 -0.1777 -0.3109
10882SOL    HW144370   4.002   9.973   6.967  0.2517  1.1713  1.7826
10882SOL    HW244371   3.851   9.969   6.971  0.1931 -0.3864 -0.2535
10883SOL     OW44372   3.666  11.119   2.006  0.2889 -0.0802  0.4452
10883SOL    HW144373   3.584  11.115   2.055  0.0914 -0.0445  0.1167
10883SOL    HW244374   3.649  11.180   1.935 -0.0287 -1.5322 -0.7800
10884SOL     OW44375   8.620   4.905   2.405 -0.4042 -0.0361  0.2655
10884SOL    HW144376   8.528   4.881   2.400  0.0057 -1.5796 -0.6254
10884SOL    HW244377   8.660   4.840   2.462  0.5038 -0.7374 -1.1037
10885SOL     OW44378  10.063   6.102   0.154 -0.0978  0.2916  0.0068
10885SOL    HW144379   9.992   6.164   0.169 -0.1189  1.0598 -2.6305
10885SOL    HW244380  10.019   6.020   0.134 -0.2568  0.5418 -0.7228
10886SOL     OW44381   6.198   0.433   6.097 -0.0637  0.2293 -0.4573
10886SOL    HW144382   6.107   0.404   6.105 -0.9669  2.9000  0.0118
10886SOL    HW244383   6.213   0.487   6.175  2.2573 -0.8757 -0.0533
10887SOL     OW44384  11.152   3.791   0.239  0.1069 -0.1725 -0.4844
10887SOL    HW144385  11.138   3.843   0.160  1.7463 -0.8648 -1.2956
10887SOL    HW244386  11.243   3.761   0.232  0.1762 -0.5814  1.4805
10888SOL     OW44387  10.734   9.894  11.300  1.3809 -0.3271  0.1142
10888SOL    HW144388  10.799   9.827  11.278  2.3347  0.6266 -0.0644
10888SOL    HW244389  10.678   9.853  11.366  3.0009 -0.7140  1.2888
10889SOL     OW44390   4.396   8.113   3.136  0.1316  0.1414 -0.4392
10889SOL    HW144391   4.303   8.121   3.114  0.0032  0.1854  0.0866
10889SOL    HW244392   4.440   8.095   3.053 -0.2770  0.6923 -0.7794
10890SOL     OW44393   2.229   1.068   7.587 -0.2692 -0.0288 -0.1580
10890SOL    HW144394   2.263   1.157   7.580  0.5564 -0.4091 -1.2779
10890SOL    HW244395   2.200   1.061   7.678  1.6367  0.6984  0.5740
10891SOL     OW44396   3.065   4.032  10.418 -0.0587 -0.4234 -0.1980
10891SOL    HW144397   3.012   4.043  10.496  0.3165  0.7191 -0.0850
10891SOL    HW244398   3.135   3.973  10.445  1.9733  2.4534  1.3833
10892SOL     OW44399   8.285  11.017  10.844 -0.1117 -0.0682  0.0470
10892SOL    HW144400   8.275  11.060  10.929  1.8482 -1.5103  1.0805
10892SOL    HW244401   8.293  11.089  10.782  0.0818  1.0345  1.3010
10893SOL     OW44402   6.480  11.054   1.551  0.2191  0.5912  1.0957
10893SOL    HW144403   6.447  11.095   1.471  0.3025 -1.2842  0.0358
10893SOL    HW244404   6.417  10.985   1.570  2.9203 -2.6570 -0.6071
10894SOL     OW44405   7.110   7.176   0.457  0.4170  0.1005  0.2475
10894SOL    HW144406   7.078   7.147   0.542  0.5057 -1.0986 -0.1217
10894SOL    HW244407   7.152   7.099   0.419 -1.7640 -0.1134 -1.9256
10895SOL     OW44408   0.932   9.406   5.694  0.3409  0.8165 -0.0085
10895SOL    HW144409   0.917   9.313   5.675 -1.5553  0.9231  0.7750
10895SOL    HW244410   1.027   9.414   5.696  0.5582 -1.1826  0.2308
10896SOL     OW44411   4.329   6.527   2.396 -0.5235 -0.2824 -0.1617
10896SOL    HW144412   4.416   6.530   2.435 -1.5316  0.4824  2.1577
10896SOL    HW244413   4.337   6.576   2.314  1.0915  0.2089  0.2732
10897SOL     OW44414   9.798   9.313   9.295  0.1201  0.0937 -0.2696
10897SOL    HW144415   9.790   9.229   9.251 -0.6367  0.8366 -1.6391
10897SOL    HW244416   9.851   9.295   9.373 -1.1602 -1.9040  0.2193
10898SOL     OW44417   6.017   8.127   1.186  0.3748  0.0758 -0.3302
10898SOL    HW144418   6.028   8.182   1.263 -0.4537 -0.0671 -0.0960
10898SOL    HW244419   5.924   8.102   1.188  0.3154  0.1513 -1.4218
10899SOL     OW44420  10.963   8.238   6.258  0.3109  0.0564  0.3323
10899SOL    HW144421  10.945   8.320   6.213  2.6656 -0.0044 -0.8645
10899SOL    HW244422  10.886   8.184   6.241 -0.6868  1.5206 -0.0024
10900SOL     OW44423   9.351   5.007   1.414 -0.1784 -0.2312  0.3056
10900SOL    HW144424   9.405   5.010   1.335 -1.9391  0.9068 -0.9387
10900SOL    HW244425   9.397   5.062   1.477  1.0999 -0.9177 -0.0052
10901SOL     OW44426   3.447   1.652   0.919  0.3301  0.5060  0.4760
10901SOL    HW144427   3.413   1.735   0.887  0.5097  0.1080 -0.7790
10901SOL    HW244428   3.540   1.668   0.935  0.6972  0.1633 -1.1911
10902SOL     OW44429   7.995  11.422   4.009  0.0537  0.3702  0.5257
10902SOL    HW144430   8.001  11.426   4.105 -2.3661  0.9554  0.7219
10902SOL    HW244431   8.046  11.497   3.979 -0.5789  1.2053  1.4712
10903SOL     OW44432   6.615   7.192   4.861  0.2562  0.0743  0.6251
10903SOL    HW144433   6.708   7.173   4.846  0.3364 -0.0556  1.2763
10903SOL    HW244434   6.570   7.148   4.789  0.6588 -0.2996  0.5979
10904SOL     OW44435  10.622   7.671  11.937 -0.1632 -0.1544 -0.1078
10904SOL    HW144436  10.697   7.728  11.918  0.0005 -0.9011 -2.0107
10904SOL    HW244437  10.575   7.666  11.854 -1.3053 -1.1756  0.5697
10905SOL     OW44438   3.227   6.632   2.989  0.0417 -0.0847  0.1773
10905SOL    HW144439   3.197   6.554   2.941 -1.4705  0.5782 -0.0076
10905SOL    HW244440   3.292   6.598   3.051 -0.5453 -1.4886  0.0651
10906SOL     OW44441   0.819   5.940   8.064  0.0137  0.0844 -0.0525
10906SOL    HW144442   0.781   5.860   8.102 -0.2649  1.5247  2.9793
10906SOL    HW244443   0.904   5.911   8.030 -0.3075 -1.6099  0.4617
10907SOL     OW44444   1.682   3.686   4.194  0.7661  0.3078 -0.2397
10907SOL    HW144445   1.758   3.706   4.247 -0.1372  2.3918  0.3816
10907SOL    HW244446   1.668   3.765   4.142  0.2395 -0.8141 -1.8739
10908SOL     OW44447   4.295   2.802  10.655 -0.2885  0.3996 -0.6514
10908SOL    HW144448   4.372   2.765  10.611 -0.6623  0.0933 -1.0541
10908SOL    HW244449   4.224   2.794  10.591 -1.1143 -1.1204  0.4082
10909SOL     OW44450  10.289   6.412   0.047  0.0657 -0.3434  0.2894
10909SOL    HW144451  10.272   6.328   0.004  1.7093 -0.9241  0.7134
10909SOL    HW244452  10.360   6.452  -0.004 -0.3078  0.5373  0.4362
10910SOL     OW44453  11.601   9.727   0.890  0.2162  0.8694 -0.3562
10910SOL    HW144454  11.529   9.766   0.840  0.8899 -0.0933 -2.1975
10910SOL    HW244455  11.606   9.637   0.858  0.7595  0.2222  1.4404
10911SOL     OW44456   0.835   4.482   3.581  0.1698 -0.2963 -0.0860
10911SOL    HW144457   0.913   4.497   3.634  0.3238 -2.2220  0.2814
10911SOL    HW244458   0.856   4.520   3.496  1.1678 -0.0300  0.2724
10912SOL     OW44459  11.898  11.316   6.282 -0.1881 -0.7147 -0.1314
10912SOL    HW144460  11.866  11.404   6.303 -0.1676 -0.8941  0.6885
10912SOL    HW244461  11.989  11.317   6.312 -0.1101 -0.9330 -0.3646
10913SOL     OW44462   7.785   9.295   6.086 -0.0738  0.3141  0.1147
10913SOL    HW144463   7.768   9.383   6.053  0.0713  0.2154 -0.2272
10913SOL    HW244464   7.700   9.265   6.118 -0.0930  0.6358  0.3790
10914SOL     OW44465  11.339   0.459   9.259  0.0802  0.0974 -0.6052
10914SOL    HW144466  11.397   0.481   9.187  0.8155  2.8587  0.6956
10914SOL    HW244467  11.274   0.529   9.260  2.1117  2.3298  3.3808
10915SOL     OW44468   1.504   3.768   3.311 -0.8372  0.2417 -0.2574
10915SOL    HW144469   1.545   3.848   3.279 -0.0224 -0.2001 -0.3379
10915SOL    HW244470   1.568   3.699   3.293 -0.1384  0.0056  2.6097
10916SOL     OW44471   5.935  11.007   3.454  0.3561  0.6793 -0.6661
10916SOL    HW144472   5.851  10.963   3.439  0.7124 -0.0212 -0.6730
10916SOL    HW244473   5.973  11.018   3.367  1.2165 -0.9538 -0.5467
10917SOL     OW44474   6.875  11.449   2.601 -0.0812  0.8555 -0.2019
10917SOL    HW144475   6.800  11.505   2.620 -0.6818  0.2253 -0.7117
10917SOL    HW244476   6.947  11.489   2.650 -0.0673  3.0834 -1.8952
10918SOL     OW44477   0.565   1.971   5.180  0.7254  0.0915  0.1747
10918SOL    HW144478   0.531   2.055   5.148 -1.5632 -1.0414 -0.6298
10918SOL    HW244479   0.628   1.994   5.248 -0.3552  2.4614  0.4609
10919SOL     OW44480   8.089  10.110   2.700 -0.5993 -0.1535 -0.2386
10919SOL    HW144481   8.038  10.168   2.757  1.1397  0.8288  0.3934
10919SOL    HW244482   8.108  10.162   2.622 -2.0874 -1.1486 -1.3245
10920SOL     OW44483   6.324   1.845  10.114  0.8405  0.2020  0.2806
10920SOL    HW144484   6.243   1.836  10.165  2.1029 -1.1814  2.1498
10920SOL    HW244485   6.374   1.913  10.160  0.4475  1.7225 -1.3927
10921SOL     OW44486  11.885   5.922   4.679  0.0503 -0.5411 -0.3744
10921SOL    HW144487  11.869   6.016   4.675  1.2779 -0.3767 -2.1699
10921SOL    HW244488  11.825   5.891   4.747 -0.5673  1.4772  0.0703
10922SOL     OW44489   9.575   2.830   9.103  0.0157 -0.0800  0.1436
10922SOL    HW144490   9.545   2.810   9.015 -0.7546 -0.6063  0.5158
10922SOL    HW244491   9.513   2.895   9.136  2.5295  3.2268 -1.0895
10923SOL     OW44492  10.927   9.308   0.455  0.7122  0.5225  0.2542
10923SOL    HW144493  10.924   9.243   0.525  0.0687 -0.4369 -0.6231
10923SOL    HW244494  10.856   9.369   0.477 -0.0386 -0.2450  0.0149
10924SOL     OW44495   8.467   5.202   5.200  0.6649  0.2862  0.5674
10924SOL    HW144496   8.562   5.213   5.212  0.3516  1.6903  2.0443
10924SOL    HW244497   8.436   5.164   5.282  0.1843 -2.2753 -0.6879
10925SOL     OW44498   9.457   6.006  11.808  0.1165 -0.4850 -0.1766
10925SOL    HW144499   9.540   5.976  11.844 -0.5415 -0.9807  0.9603
10925SOL    HW244500   9.482   6.072  11.743  1.6724 -3.5250 -3.0350
10926SOL     OW44501   0.529   0.746   3.425 -0.0902 -0.0425 -0.2729
10926SOL    HW144502   0.446   0.702   3.408 -0.1003  0.2040 -0.8586
10926SOL    HW244503   0.589   0.710   3.360  0.6375 -1.2151  0.9614
10927SOL     OW44504  10.508   9.677   8.297  0.8831 -0.5800  0.6328
10927SOL    HW144505  10.594   9.719   8.294  0.0417  1.1925 -1.5480
10927SOL    HW244506  10.446   9.748   8.281 -0.6856 -2.4196 -2.4469
10928SOL     OW44507  11.730   1.319   8.938 -0.4849 -0.6198 -0.5967
10928SOL    HW144508  11.710   1.249   9.000 -0.0669  0.7903  1.2358
10928SOL    HW244509  11.825   1.329   8.942 -0.6225  0.6796 -0.0645
10929SOL     OW44510  10.780   5.670   4.971 -0.3678  0.0098 -0.1303
10929SOL    HW144511  10.830   5.681   5.052  0.9661  2.1277 -1.1528
10929SOL    HW244512  10.811   5.740   4.914 -2.7055 -0.1839 -1.7798
10930SOL     OW44513   3.512   2.587   4.553 -0.1183  0.2730 -0.2113
10930SOL    HW144514   3.491   2.525   4.483 -1.4136 -0.1105  0.4800
10930SOL    HW244515   3.603   2.612   4.537 -0.2335 -0.1928 -1.7276
10931SOL     OW44516   7.221   3.934   4.837 -0.6904  0.2399  0.2542
10931SOL    HW144517   7.310   3.904   4.822 -1.1269 -0.5041 -1.0278
10931SOL    HW244518   7.180   3.865   4.889 -0.3338  0.9245  1.4836
10932SOL     OW44519   0.075   3.461   6.217  0.2675 -0.0788  0.6660
10932SOL    HW144520   0.079   3.423   6.305  2.2775  0.7936  0.9906
10932SOL    HW244521   0.152   3.427   6.172 -0.8431 -0.6877 -0.8776
10933SOL     OW44522   0.495   0.858   9.569  0.3494  0.9424 -0.3403
10933SOL    HW144523   0.576   0.841   9.521  0.9534 -0.3006  1.0236
10933SOL    HW244524   0.437   0.786   9.546 -0.4843  1.9577 -1.4949
10934SOL     OW44525   3.581   4.767   9.394 -1.6042  0.2530 -0.7140
10934SOL    HW144526   3.502   4.714   9.382  0.2395 -3.0912  0.5190
10934SOL    HW244527   3.628   4.758   9.311  0.2932 -3.2037  0.5456
10935SOL     OW44528   9.084  11.363   7.986 -0.5445 -0.0904  0.1754
10935SOL    HW144529   9.085  11.379   7.892 -1.7129  1.3622  0.3772
10935SOL    HW244530   9.172  11.386   8.016 -0.5302  0.5799 -0.3833
10936SOL     OW44531   0.129   4.679   2.051 -0.7823  0.1571  0.6892
10936SOL    HW144532   0.225   4.677   2.053 -0.7442  0.6611 -0.3156
10936SOL    HW244533   0.104   4.602   2.001 -0.8362  0.7681 -0.2548
10937SOL     OW44534   3.759   2.930   1.960  0.0015  0.3710  0.5062
10937SOL    HW144535   3.705   3.009   1.952  0.4517  0.6137 -0.3372
10937SOL    HW244536   3.696   2.858   1.963 -0.4115  0.5640 -1.5054
10938SOL     OW44537  10.373   2.221   3.883  0.4295 -0.0133 -0.7105
10938SOL    HW144538  10.305   2.259   3.938  1.4551  0.9787 -0.1053
10938SOL    HW244539  10.352   2.251   3.794  0.3814  0.7246 -0.4520
10939SOL     OW44540   6.965  10.131   0.166 -0.0006 -0.2349  0.0389
10939SOL    HW144541   7.005  10.201   0.115 -0.8051  0.7625  0.7302
10939SOL    HW244542   6.971  10.161   0.257 -0.1047 -1.1942  0.3709
10940SOL     OW44543   7.928   0.643   0.995  0.8562  0.3193 -0.5211
10940SOL    HW144544   7.910   0.583   0.922  0.6813 -1.0530  0.6031
10940SOL    HW244545   7.850   0.699   0.999  0.2596 -0.4768 -0.5687
10941SOL     OW44546   7.470   8.101   0.080  0.4686  0.2874 -0.2723
10941SOL    HW144547   7.480   8.149  -0.002  2.3682  0.4106 -0.0133
10941SOL    HW244548   7.544   8.039   0.081 -1.1582 -1.7594  0.0079
10942SOL     OW44549   3.924   5.558   6.771  0.3119  0.3199 -0.0348
10942SOL    HW144550   3.845   5.565   6.825  1.0174 -1.5473  1.3259
10942SOL    HW244551   3.905   5.486   6.711  1.0533 -0.2955  0.4589
10943SOL     OW44552  10.040   3.635   4.845  0.1683  0.6252  0.0751
10943SOL    HW144553   9.968   3.593   4.799 -0.0317 -0.0142  0.9412
10943SOL    HW244554  10.048   3.722   4.806  0.5511 -0.1892 -1.7320
10944SOL     OW44555   8.376   0.450   5.073  0.0043 -0.1578  0.3476
10944SOL    HW144556   8.456   0.487   5.036 -1.6476  1.8281 -1.5348
10944SOL    HW244557   8.352   0.380   5.013 -0.6129  0.4959 -0.1958
10945SOL     OW44558   7.069   7.057   0.698 -0.2158  0.1116  0.9610
10945SOL    HW144559   6.977   7.030   0.704 -0.7124  1.2518 -0.7401
10945SOL    HW244560   7.082   7.115   0.773 -0.2130 -1.7344  2.4623
10946SOL     OW44561   0.466   0.530   0.068  0.3414 -0.1634  0.2345
10946SOL    HW144562   0.405   0.599   0.041  1.5813  1.6303  1.7646
10946SOL    HW244563   0.552   0.565   0.045  0.9929 -1.2964  0.8821
10947SOL     OW44564   9.021   1.084   3.448  0.1103  0.2075 -0.1008
10947SOL    HW144565   9.051   1.158   3.501 -0.1661  1.4937 -1.6387
10947SOL    HW244566   9.012   1.012   3.510  1.7005  1.0803  1.2275
10948SOL     OW44567   7.775   2.095   2.675  0.2638  0.4629 -0.3272
10948SOL    HW144568   7.782   2.003   2.652 -2.4116  0.3122 -0.8320
10948SOL    HW244569   7.832   2.105   2.751  2.4023 -1.0237 -1.6128
10949SOL     OW44570   2.033   0.472   6.822  0.0920 -0.2150 -0.1141
10949SOL    HW144571   2.024   0.522   6.741 -0.5832 -0.7152 -0.3606
10949SOL    HW244572   2.104   0.411   6.805 -1.4127 -1.7859 -1.1446
10950SOL     OW44573   7.222   8.840  11.859 -0.1910 -0.6668  0.8160
10950SOL    HW144574   7.203   8.902  11.788 -1.2622 -3.0333 -1.1608
10950SOL    HW244575   7.141   8.838  11.911 -0.1090 -0.3123  0.9569
10951SOL     OW44576   2.048  11.781   7.460  0.1347  0.1396 -0.4807
10951SOL    HW144577   2.129  11.758   7.504  0.2577  0.0539 -0.7540
10951SOL    HW244578   1.999  11.699   7.455  0.6152 -0.1021 -1.5431
10952SOL     OW44579   5.498   2.805   2.134 -0.5824  0.3259 -0.6286
10952SOL    HW144580   5.553   2.757   2.072  0.5381  2.6191 -1.5467
10952SOL    HW244581   5.411   2.804   2.094 -0.8257 -1.6965 -0.1310
10953SOL     OW44582   2.713   7.971   9.095  0.0163 -0.2495  0.0088
10953SOL    HW144583   2.677   7.913   9.027 -0.5052 -0.1556  0.1944
10953SOL    HW244584   2.639   7.987   9.154  0.3578 -0.0075  0.3801
10954SOL     OW44585   6.214   4.031   9.881 -0.4221 -0.0132 -0.4878
10954SOL    HW144586   6.168   3.995   9.957 -1.9704  0.3269 -1.2253
10954SOL    HW244587   6.268   3.958   9.849 -0.7380 -0.5474  0.1856
10955SOL     OW44588   3.792   7.193   6.485  0.1981  0.1275 -0.0812
10955SOL    HW144589   3.808   7.233   6.400 -1.8568  1.0941 -0.0929
10955SOL    HW244590   3.768   7.102   6.465  2.2371 -0.3988 -0.2830
10956SOL     OW44591   3.251   5.398   8.359 -0.6733 -0.0401  0.4793
10956SOL    HW144592   3.329   5.386   8.414 -1.6711  2.6306  2.6777
10956SOL    HW244593   3.190   5.330   8.389 -0.3755 -0.0498  1.0863
10957SOL     OW44594   9.615   5.672  11.556 -0.0432  0.1362 -0.0960
10957SOL    HW144595   9.649   5.744  11.609  1.2660 -0.7989  0.3898
10957SOL    HW244596   9.546   5.633  11.609  0.6139 -0.2050  0.5164
10958SOL     OW44597   8.697   3.581   8.235 -0.0410  0.0274 -0.1006
10958SOL    HW144598   8.757   3.656   8.247  0.2534 -0.3576  1.0197
10958SOL    HW244599   8.713   3.526   8.312 -0.4652 -1.0514 -0.7650
10959SOL     OW44600  10.586  10.235   9.518  0.0002 -0.3687  0.3759
10959SOL    HW144601  10.599  10.210   9.609  1.8183 -0.0555  0.2387
10959SOL    HW244602  10.588  10.331   9.519 -0.2098 -0.3601  0.0415
10960SOL     OW44603  11.475   1.055   4.286  0.1866 -0.2482 -0.5606
10960SOL    HW144604  11.500   1.039   4.377  0.0824  0.6070 -0.3769
10960SOL    HW244605  11.463   0.967   4.250  0.8729 -0.6154  0.0608
10961SOL     OW44606   1.688   4.747   1.207  0.0918 -0.4750  0.6758
10961SOL    HW144607   1.683   4.775   1.298 -1.0454 -1.6437  1.0188
10961SOL    HW244608   1.615   4.685   1.198 -0.4966  0.4466 -1.3266
10962SOL     OW44609   5.457   8.101   6.879 -0.2776 -0.2240  0.1542
10962SOL    HW144610   5.503   8.024   6.844 -1.1757 -1.3625  1.3906
10962SOL    HW244611   5.423   8.145   6.801  1.0400 -0.5402 -0.6381
10963SOL     OW44612   5.249  10.047   1.073 -0.0713 -0.5027 -0.0963
10963SOL    HW144613   5.292   9.962   1.069 -1.6644 -1.5016  2.1611
10963SOL    HW244614   5.162  10.032   1.038 -0.3135  0.2316  0.1710
10964SOL     OW44615  10.044   6.974   0.429  1.1370 -0.0801  0.4550
10964SOL    HW144616  10.015   7.039   0.492 -1.2015 -2.5530  2.1695
10964SOL    HW244617  10.121   6.933   0.470  2.0175  0.9041 -0.1772
10965SOL     OW44618   4.052  10.036   5.806 -0.4415 -0.4809 -0.3296
10965SOL    HW144619   4.135  10.040   5.758 -0.5793 -0.5008 -0.5666
10965SOL    HW244620   4.068   9.972   5.876 -0.7141 -1.5830 -1.2463
10966SOL     OW44621   7.435   4.269   3.370  0.2360  0.3261  0.3642
10966SOL    HW144622   7.356   4.230   3.333  0.5632 -0.8688  0.8877
10966SOL    HW244623   7.431   4.361   3.344 -2.0265  0.6217  1.4856
10967SOL     OW44624   2.470   4.391   5.047  0.1319  0.7552 -0.3388
10967SOL    HW144625   2.523   4.464   5.015  1.1442  0.4730  0.6227
10967SOL    HW244626   2.459   4.333   4.971  1.3717  0.7338 -0.5187
10968SOL     OW44627   0.134   2.204   5.521 -0.3308 -0.4490  0.1049
10968SOL    HW144628   0.223   2.238   5.528 -1.4461  2.5947  1.4499
10968SOL    HW244629   0.104   2.230   5.434 -0.7170  0.9183  0.6207
10969SOL     OW44630  11.408   0.769   4.192  0.4660  0.6067  0.2707
10969SOL    HW144631  11.328   0.758   4.140  1.3485  0.2059 -1.0531
10969SOL    HW244632  11.478   0.773   4.127  1.5821  0.4477  1.4321
10970SOL     OW44633   2.229   5.395   0.767  0.1381 -0.0367  0.1280
10970SOL    HW144634   2.160   5.434   0.821 -0.0316 -1.8227  1.2678
10970SOL    HW244635   2.287   5.468   0.745 -2.1800  1.5727 -1.0480
10971SOL     OW44636   4.710   4.296   7.051  0.3493  0.0574 -0.6398
10971SOL    HW144637   4.787   4.238   7.050  0.7841  0.5345 -3.3732
10971SOL    HW244638   4.747   4.383   7.067  0.1131  0.0633 -0.0880
10972SOL     OW44639   4.238  10.881   4.880 -0.3133  0.1259  0.0201
10972SOL    HW144640   4.238  10.785   4.873  2.3969 -0.2177  2.7522
10972SOL    HW244641   4.167  10.901   4.941 -0.2039 -0.2514  0.2740
10973SOL     OW44642   9.697   2.409  10.081 -0.3576 -0.0846 -0.3513
10973SOL    HW144643   9.713   2.370   9.995  0.8268  0.5294 -0.4338
10973SOL    HW244644   9.697   2.335  10.142 -1.4270 -0.5502 -0.8890
10974SOL     OW44645   8.119   3.608   2.386  0.1261 -0.3429  0.0828
10974SOL    HW144646   8.113   3.679   2.322  1.7657  0.6537  0.9735
10974SOL    HW244647   8.088   3.646   2.468 -0.8959 -1.2741  0.1470
10975SOL     OW44648  10.544   2.026   7.304  0.2825 -0.2775  0.2913
10975SOL    HW144649  10.534   2.121   7.307  0.7303 -0.1586 -1.1286
10975SOL    HW244650  10.535   2.004   7.211 -3.4498 -2.0555  0.8733
10976SOL     OW44651   1.604   7.816   3.310  0.0275  0.0562  0.2164
10976SOL    HW144652   1.636   7.811   3.219 -0.2746  1.0537  0.0491
10976SOL    HW244653   1.511   7.836   3.302  0.0468  0.3628  0.7560
10977SOL     OW44654   7.525   9.936  11.613 -0.2522 -0.5600 -0.6249
10977SOL    HW144655   7.504   9.860  11.667 -2.2831 -0.2186 -0.8398
10977SOL    HW244656   7.554  10.003  11.675 -0.0755 -0.9776 -0.2512
10978SOL     OW44657   8.804  10.456   7.640  0.2981  0.0851  0.3243
10978SOL    HW144658   8.882  10.499   7.676 -2.3912  3.1550  3.0750
10978SOL    HW244659   8.808  10.367   7.675  2.1649  0.3741  0.9799
10979SOL     OW44660   7.490   6.554   8.884  0.3827  0.8199 -0.4385
10979SOL    HW144661   7.551   6.605   8.938  0.7033 -1.1120  1.1311
10979SOL    HW244662   7.546   6.510   8.820  0.4032  0.5105 -0.2072
10980SOL     OW44663   4.126   7.588   0.657 -0.0880  0.6685 -0.3141
10980SOL    HW144664   4.087   7.672   0.634 -2.1040 -0.1090  0.0597
10980SOL    HW244665   4.087   7.565   0.741  2.1674  0.3823  0.7467
10981SOL     OW44666   0.388  11.813   7.670  0.1148  0.6354 -0.0317
10981SOL    HW144667   0.466  11.758   7.674 -1.0143 -1.0373 -0.0040
10981SOL    HW244668   0.316  11.752   7.658 -1.3725  1.9895  1.4274
10982SOL     OW44669  11.008   0.491   1.458 -0.0770 -0.3724 -0.0662
10982SOL    HW144670  10.935   0.430   1.467 -1.6637  1.2348 -1.2601
10982SOL    HW244671  10.969   0.577   1.473  1.1669  0.6916 -2.3805
10983SOL     OW44672   3.149   7.956   7.940 -0.5875  0.2970  0.1668
10983SOL    HW144673   3.180   7.925   7.856  0.7818  0.4757  0.5752
10983SOL    HW244674   3.064   7.914   7.952 -0.1596 -0.8379 -0.6623
10984SOL     OW44675   9.526   3.184   0.986  0.5110 -0.1851  0.8813
10984SOL    HW144676   9.531   3.276   0.961  0.8440 -0.9204 -2.1291
10984SOL    HW244677   9.439   3.157   0.958  0.8829 -1.0761  0.5536
10985SOL     OW44678   6.183   2.321  10.896  0.2364  0.4641  0.8150
10985SOL    HW144679   6.262   2.285  10.856  0.4294  2.2871 -0.5591
10985SOL    HW244680   6.212   2.403  10.937 -0.9079  1.1064  0.3915
10986SOL     OW44681  10.998   2.026   6.609  0.9250  0.2640 -0.6550
10986SOL    HW144682  10.945   2.089   6.657  1.6067  0.4316 -0.1193
10986SOL    HW244683  10.940   1.995   6.539 -0.3989 -0.6174  0.7618
10987SOL     OW44684   2.240   5.562   8.882 -0.2206 -0.6500 -0.3783
10987SOL    HW144685   2.239   5.514   8.799  0.9761  1.7136 -1.8557
10987SOL    HW244686   2.183   5.637   8.868  2.4762  1.5853 -0.3419
10988SOL     OW44687   1.774  10.872   2.159 -0.0681 -0.0816 -0.4039
10988SOL    HW144688   1.745  10.828   2.079 -0.2233 -1.3930  0.3389
10988SOL    HW244689   1.697  10.873   2.216  0.0317  0.8633 -0.2774
10989SOL     OW44690  10.637   5.296  11.499  0.2811  0.0847  0.3702
10989SOL    HW144691  10.559   5.351  11.495  0.9833  1.1144  0.4543
10989SOL    HW244692  10.633   5.255  11.586 -0.1347  0.1799  0.3979
10990SOL     OW44693   6.834   0.706   3.170 -0.0105 -0.4782  0.2295
10990SOL    HW144694   6.743   0.735   3.163 -0.1653 -0.4374  1.9464
10990SOL    HW244695   6.873   0.768   3.232  1.2829 -0.3189 -0.7016
10991SOL     OW44696   7.063  11.861   6.961  0.3948 -0.2455 -0.2581
10991SOL    HW144697   6.984  11.914   6.976  0.8711  0.3328  0.2924
10991SOL    HW244698   7.106  11.856   7.046  0.9242 -0.6052 -0.5344
10992SOL     OW44699   1.428   8.738   7.213  0.4449 -0.1508  0.2122
10992SOL    HW144700   1.417   8.735   7.308  0.9409 -0.4195  0.2612
10992SOL    HW244701   1.521   8.723   7.199  0.4236  0.1752 -0.3043
10993SOL     OW44702   2.354   1.917  10.472  0.2592  0.3760  0.0211
10993SOL    HW144703   2.344   1.831  10.513  1.5601  0.3792  0.3919
10993SOL    HW244704   2.317   1.978  10.536 -2.1277  0.0236 -0.8988
10994SOL     OW44705   4.195   9.752   7.686 -0.7430  0.1107 -0.2904
10994SOL    HW144706   4.106   9.718   7.679 -0.9554  0.7520 -0.8254
10994SOL    HW244707   4.250   9.674   7.695 -1.2767 -0.3440 -0.9010
10995SOL     OW44708  10.267   4.724   1.770  0.0825 -0.0669 -0.1166
10995SOL    HW144709  10.260   4.631   1.791 -2.2650 -0.7831 -3.2667
10995SOL    HW244710  10.351   4.731   1.724 -0.0190 -0.8053 -0.4415
10996SOL     OW44711   5.694   0.517   6.043 -0.3799  0.1459 -0.2674
10996SOL    HW144712   5.651   0.511   6.129 -2.0594  1.4657 -0.9576
10996SOL    HW244713   5.646   0.586   5.997  1.2640  0.3101 -1.8429
10997SOL     OW44714   8.195   2.658   0.876 -0.3450 -0.2317 -0.2978
10997SOL    HW144715   8.205   2.609   0.957  0.3066  1.4654  0.6956
10997SOL    HW244716   8.261   2.620   0.818  0.8754  0.1180  0.8067
10998SOL     OW44717   6.036  11.758   2.440  0.4107  0.1193  0.0083
10998SOL    HW144718   6.117  11.722   2.477  1.5486  0.7365 -1.7630
10998SOL    HW244719   5.968  11.698   2.469  1.9399 -2.3169 -1.1059
10999SOL     OW44720   3.593   1.881   5.358 -0.2430  0.3656 -0.1532
10999SOL    HW144721   3.639   1.823   5.419 -0.0596  1.8342  1.1870
10999SOL    HW244722   3.638   1.869   5.275  0.9044 -0.1376  0.5149
11000SOL     OW44723   1.881   6.093   1.931 -0.6342  0.3691  0.5376
11000SOL    HW144724   1.937   6.086   2.008 -0.8938 -1.1898  0.6131
11000SOL    HW244725   1.792   6.084   1.965 -0.7873  0.3517  0.1335
11001SOL     OW44726   8.294  11.343   4.505 -0.4502 -0.2648  0.3231
11001SOL    HW144727   8.281  11.424   4.552  2.2971  0.6582 -0.3458
11001SOL    HW244728   8.245  11.354   4.423  1.9674  1.9532 -0.9744
11002SOL     OW44729   7.328   4.330  11.775  0.0845 -0.5633  0.1799
11002SOL    HW144730   7.345   4.251  11.724 -0.5065 -0.2316 -0.5537
11002SOL    HW244731   7.234   4.327  11.793  0.2293 -0.5106  0.9824
11003SOL     OW44732   6.091   4.109   1.394  0.1622 -0.2125  0.3539
11003SOL    HW144733   6.147   4.038   1.361 -0.1455 -1.1011  1.6923
11003SOL    HW244734   6.149   4.160   1.451 -0.4740 -1.4775  2.2187
11004SOL     OW44735   7.141   0.353   1.491  0.2358  0.5514 -0.4686
11004SOL    HW144736   7.215   0.407   1.517  0.2889  0.9544 -1.4273
11004SOL    HW244737   7.129   0.372   1.398 -1.4763  0.9777 -0.1890
11005SOL     OW44738  10.230   4.203  11.660 -0.0267  0.1943  0.3065
11005SOL    HW144739  10.254   4.205  11.753  0.1617 -2.3678  0.3881
11005SOL    HW244740  10.301   4.156  11.618  1.8234  4.4217 -1.9175
11006SOL     OW44741   2.367   5.447   4.062 -0.2749  0.5187 -0.5655
11006SOL    HW144742   2.381   5.542   4.067 -1.2910  0.6509  0.5344
11006SOL    HW244743   2.273   5.438   4.045 -0.5592 -0.2710  1.1622
11007SOL     OW44744   6.623  11.370   9.347 -0.0082  0.1877  0.1910
11007SOL    HW144745   6.577  11.375   9.431 -0.0855 -0.6698  0.2085
11007SOL    HW244746   6.715  11.377   9.369 -0.1143  2.7326  0.0886
11008SOL     OW44747   0.548   2.027   2.044  0.4836  0.1333 -0.0586
11008SOL    HW144748   0.485   1.984   1.986 -1.5564  1.4292  1.0788
11008SOL    HW244749   0.536   2.120   2.028  1.8663  0.4422  0.5087
11009SOL     OW44750   3.423   5.883   3.676 -0.1016 -0.1501 -0.1659
11009SOL    HW144751   3.501   5.911   3.628 -0.2910  1.4474  0.4256
11009SOL    HW244752   3.375   5.829   3.613  1.4353 -1.1511 -0.5521
11010SOL     OW44753   1.481   7.020   8.669  0.0593  0.3064  0.0683
11010SOL    HW144754   1.438   6.952   8.722  0.5223  0.1207  0.2120
11010SOL    HW244755   1.420   7.093   8.671 -0.0944  0.1722  0.5639
11011SOL     OW44756   9.766   7.027   8.970  0.3456  0.2383 -0.3990
11011SOL    HW144757   9.775   7.122   8.980  0.3907  0.0914  1.2118
11011SOL    HW244758   9.849   7.000   8.930  0.7211  0.7829 -0.0190
11012SOL     OW44759   9.103   7.834   8.233  0.0479  0.2834 -0.7412
11012SOL    HW144760   9.184   7.854   8.279  0.5226 -0.3317 -1.2994
11012SOL    HW244761   9.118   7.865   8.144  0.9772 -2.8129 -1.7729
11013SOL     OW44762   3.591   8.334   1.973 -0.2523  0.2194 -0.7483
11013SOL    HW144763   3.539   8.407   1.939  1.1895  1.2302 -0.8413
11013SOL    HW244764   3.681   8.366   1.974  0.2889 -1.2169  0.1639
11014SOL     OW44765   9.065   1.372  10.775 -0.1406 -0.1060 -0.0665
11014SOL    HW144766   9.041   1.297  10.721 -0.7945 -1.0481  1.4568
11014SOL    HW244767   9.131   1.337  10.836  0.7011  0.9668 -0.3341
11015SOL     OW44768   0.367   4.923   8.539  0.3277 -0.4231 -0.1256
11015SOL    HW144769   0.390   4.954   8.626 -0.7703  1.2113 -0.3586
11015SOL    HW244770   0.396   4.832   8.537 -1.6605 -1.2783  2.7839
11016SOL     OW44771   5.062  11.182   7.183 -0.1515 -0.1730  0.6166
11016SOL    HW144772   5.155  11.160   7.177 -0.3769 -0.8056 -1.3174
11016SOL    HW244773   5.017  11.097   7.179 -0.8684  0.2305 -1.7852
11017SOL     OW44774   1.199   7.706  10.213 -0.1846 -0.1076 -0.4587
11017SOL    HW144775   1.127   7.739  10.266  0.8308  1.2122  0.1600
11017SOL    HW244776   1.278   7.730  10.261  0.7223 -0.4177 -1.7193
11018SOL     OW44777   5.866   0.909   2.247  0.5723  0.1785 -0.3261
11018SOL    HW144778   5.797   0.970   2.223 -1.8269 -1.9902  0.6149
11018SOL    HW244779   5.861   0.840   2.180  0.4982 -0.9462  0.7966
11019SOL     OW44780   7.158   3.095   3.775  0.4150  0.3192 -0.1286
11019SOL    HW144781   7.232   3.113   3.832  0.0686 -1.0155  0.7928
11019SOL    HW244782   7.193   3.102   3.687  1.7765 -0.7947  0.2916
11020SOL     OW44783   7.521  10.904   0.056 -0.3201  1.0192  0.1626
11020SOL    HW144784   7.542  10.947   0.139  0.4350  1.8606 -0.4480
11020SOL    HW244785   7.450  10.844   0.078  1.6611 -0.8379  2.0212
11021SOL     OW44786   6.468   3.047   0.992  0.1060  0.3999 -0.5588
11021SOL    HW144787   6.408   3.003   0.932 -1.5784  0.4853  0.9672
11021SOL    HW244788   6.478   2.987   1.065 -0.7700  1.7096  0.7060
11022SOL     OW44789   8.099   9.871  11.269 -0.2185 -0.6491 -0.5518
11022SOL    HW144790   8.133   9.804  11.210 -0.7962  1.2759 -3.2275
11022SOL    HW244791   8.174   9.928  11.287  0.2250 -1.7692  1.5669
11023SOL     OW44792   7.437   6.600   1.942 -0.0640  0.0244  0.1134
11023SOL    HW144793   7.395   6.652   1.873 -0.9123  0.1698  0.7119
11023SOL    HW244794   7.364   6.573   1.998  0.4027 -1.5180  0.0224
11024SOL     OW44795   7.611   8.276   3.627 -0.4549 -0.5080 -0.4586
11024SOL    HW144796   7.701   8.283   3.596  0.3010  0.0903  1.7358
11024SOL    HW244797   7.616   8.225   3.708 -1.8145  1.0063  0.6575
11025SOL     OW44798   1.154  10.776   6.049  0.3667  0.1398  0.0126
11025SOL    HW144799   1.108  10.802   5.969 -0.0084 -1.3790 -0.3104
11025SOL    HW244800   1.086  10.778   6.117  0.3195 -0.0609 -0.0283
11026SOL     OW44801   3.453  11.907  11.127 -0.0572  0.2713  0.2416
11026SOL    HW144802   3.367  11.864  11.135 -1.0154  2.1258  0.5642
11026SOL    HW244803   3.447  11.983  11.186  1.8704  0.3645  0.3604
11027SOL     OW44804  10.267   0.847   4.799 -0.3287 -0.6470  0.4707
11027SOL    HW144805  10.184   0.854   4.846  0.2229 -0.1211  1.4014
11027SOL    HW244806  10.243   0.857   4.707 -1.2641 -0.1353  0.7550
11028SOL     OW44807   5.374   8.037   0.450 -0.2210  0.1291 -0.2420
11028SOL    HW144808   5.429   7.963   0.425 -0.1512  0.3942 -0.8986
11028SOL    HW244809   5.292   8.023   0.403 -0.8301 -0.4015  0.9329
11029SOL     OW44810  10.555   4.922   3.889  0.4110 -0.1503  0.3384
11029SOL    HW144811  10.586   5.013   3.888  0.1943 -0.0450  1.5589
11029SOL    HW244812  10.464   4.927   3.860  0.0947  0.1702  1.3351
11030SOL     OW44813   4.362  10.340  10.050 -0.2682 -0.0961  0.3218
11030SOL    HW144814   4.378  10.400   9.977 -0.4698  1.7699  1.7224
11030SOL    HW244815   4.269  10.352  10.071 -0.2581 -0.7366  0.7665
11031SOL     OW44816   2.288   3.316   4.863 -0.0218 -0.2397  0.0430
11031SOL    HW144817   2.270   3.248   4.798 -2.2769  0.0640  0.2755
11031SOL    HW244818   2.360   3.280   4.915 -0.5766 -2.0926 -0.3704
11032SOL     OW44819  10.437   0.301   0.127 -0.0969 -0.1350 -0.4503
11032SOL    HW144820  10.377   0.264   0.193  0.7510 -2.2851 -0.7911
11032SOL    HW244821  10.380   0.347   0.066 -1.0431  0.6756  0.9803
11033SOL     OW44822  11.615  10.544   3.204  0.0557  0.4856  0.0196
11033SOL    HW144823  11.622  10.473   3.141  2.5366  1.6735 -1.2005
11033SOL    HW244824  11.642  10.622   3.156 -3.1231  2.4563  1.1112
11034SOL     OW44825   2.917   1.405   2.091  0.0495  0.2051  0.1546
11034SOL    HW144826   2.836   1.448   2.117 -0.6931 -0.7488 -0.4947
11034SOL    HW244827   2.961   1.470   2.036  0.5080  1.3250  1.7730
11035SOL     OW44828   9.064   9.584   0.290  0.2874 -0.4109  0.2972
11035SOL    HW144829   9.017   9.565   0.208  0.2750  2.3040 -0.4225
11035SOL    HW244830   9.147   9.538   0.280 -0.3370 -1.4216 -0.5186
11036SOL     OW44831   1.786   0.588   2.826  0.7079 -0.4270 -0.2880
11036SOL    HW144832   1.804   0.539   2.746  1.1077 -0.4883 -0.1629
11036SOL    HW244833   1.720   0.652   2.801 -0.9639 -2.0050 -0.1117
11037SOL     OW44834   9.471   4.639   6.001  0.2877  0.1916  0.3392
11037SOL    HW144835   9.407   4.604   5.939  1.0121 -0.1805 -0.2242
11037SOL    HW244836   9.419   4.679   6.070 -0.5458 -0.0115 -0.1583
11038SOL     OW44837   3.498   6.269   8.274 -0.2394  0.2792  0.2625
11038SOL    HW144838   3.492   6.179   8.306 -0.8367 -0.2411 -1.2515
11038SOL    HW244839   3.467   6.265   8.184  1.7519  1.6206 -0.5547
11039SOL     OW44840   8.129   2.511   3.160  0.4727  0.0951 -0.3330
11039SOL    HW144841   8.179   2.499   3.241  0.4116  0.7148 -0.1978
11039SOL    HW244842   8.038   2.500   3.186  0.5362 -1.6436 -0.6921
11040SOL     OW44843   6.719  11.634   3.134  0.5499 -0.0304  0.0330
11040SOL    HW144844   6.669  11.559   3.102  1.3687 -0.6904  0.2857
11040SOL    HW244845   6.804  11.627   3.090  1.0469  0.0811  0.9523
11041SOL     OW44846   7.581   1.432   6.782 -0.5552 -1.0602  0.5417
11041SOL    HW144847   7.640   1.362   6.809 -0.0383 -1.2046 -0.8859
11041SOL    HW244848   7.569   1.418   6.688 -1.9615 -0.3524  0.5926
11042SOL     OW44849  11.141   9.310   7.055 -0.1775 -0.3937  0.0759
11042SOL    HW144850  11.083   9.354   6.994 -0.0695  1.0117  0.9380
11042SOL    HW244851  11.117   9.217   7.050 -2.5856  0.1449  0.4909
11043SOL     OW44852   1.332   1.270  11.713  0.3530 -0.3693  0.6265
11043SOL    HW144853   1.321   1.293  11.805  1.3329 -1.0418  0.9180
11043SOL    HW244854   1.256   1.216  11.692  0.8136 -1.3564  1.4253
11044SOL     OW44855   9.388   3.036   8.262  0.1960 -0.5189  0.1146
11044SOL    HW144856   9.482   3.049   8.250 -0.0232 -0.0496 -1.2228
11044SOL    HW244857   9.364   2.972   8.195 -0.4816 -0.4413  0.2750
11045SOL     OW44858   4.428  11.183   7.606  0.3771  0.2385 -0.3697
11045SOL    HW144859   4.370  11.201   7.531  0.1083 -0.7575 -0.4208
11045SOL    HW244860   4.516  11.199   7.573  0.1899  0.9312 -0.5491
11046SOL     OW44861  10.863   1.358   9.618  0.0026 -0.3529 -0.0161
11046SOL    HW144862  10.887   1.401   9.536  0.0718  0.5276  0.4521
11046SOL    HW244863  10.869   1.427   9.684  0.6027 -1.2053  0.8450
11047SOL     OW44864   4.456  11.426   9.517  0.6606 -0.3806 -0.5735
11047SOL    HW144865   4.545  11.390   9.509  1.0093  0.4196 -0.3422
11047SOL    HW244866   4.424  11.393   9.601  0.7507 -0.6318 -0.6357
11048SOL     OW44867   6.737  10.801   4.287 -0.3535 -0.3248  0.1518
11048SOL    HW144868   6.703  10.890   4.288  0.2038 -0.1099  0.2075
11048SOL    HW244869   6.661  10.746   4.308 -1.0840 -0.0016 -1.4723
11049SOL     OW44870   5.517  11.303   5.472  0.4602  0.4796 -0.8948
11049SOL    HW144871   5.456  11.245   5.426  1.1325 -0.4634 -0.6181
11049SOL    HW244872   5.522  11.381   5.416 -0.2066  0.1513 -1.4312
11050SOL     OW44873   7.424   8.275   4.554  0.0307  0.4262  0.2683
11050SOL    HW144874   7.480   8.245   4.625 -1.0366  0.7028  1.2544
11050SOL    HW244875   7.335   8.252   4.582 -0.5137  1.6029 -0.4244
11051SOL     OW44876   4.686   5.479  10.754  0.3316 -0.5242 -0.6756
11051SOL    HW144877   4.687   5.539  10.829 -0.2265 -0.2002 -0.9238
11051SOL    HW244878   4.683   5.392  10.794 -1.5503 -0.3305 -0.2970
11052SOL     OW44879   4.376   3.185  11.717  0.4790  0.0449 -0.0026
11052SOL    HW144880   4.433   3.248  11.761 -0.8902  0.9401  0.5396
11052SOL    HW244881   4.291   3.227  11.715 -0.2819 -1.4580 -0.3763
11053SOL     OW44882  11.018   6.874   6.084 -0.7026 -0.2062 -0.5327
11053SOL    HW144883  11.111   6.851   6.081 -0.5966  0.0056  0.6776
11053SOL    HW244884  11.003   6.924   6.004  0.3602  0.2474 -0.4598
11054SOL     OW44885   7.890   0.788   7.961  0.8018  0.6141 -0.7480
11054SOL    HW144886   7.863   0.725   8.027  0.5339  0.0387 -1.3959
11054SOL    HW244887   7.983   0.803   7.977  1.0857 -0.6508 -1.1665
11055SOL     OW44888   2.308   4.931   2.962  0.1924 -0.2597  0.0782
11055SOL    HW144889   2.219   4.900   2.975  0.1131  0.4470  1.4776
11055SOL    HW244890   2.329   4.977   3.044  1.8658 -0.4865 -0.1951
11056SOL     OW44891   5.919   9.154   0.285 -1.1567 -0.1226  0.0477
11056SOL    HW144892   5.990   9.191   0.337 -0.7092 -0.3496 -0.3972
11056SOL    HW244893   5.932   9.060   0.290  0.1851 -0.1217 -2.2160
11057SOL     OW44894   4.200   2.962  11.777 -0.4927 -0.1720  0.1055
11057SOL    HW144895   4.207   3.006  11.862 -0.9411 -1.3506  0.7803
11057SOL    HW244896   4.213   3.031  11.713  0.0801  0.7095  1.1381
11058SOL     OW44897   9.381   0.804   0.836  0.1168  0.0085  0.4431
11058SOL    HW144898   9.431   0.769   0.763  0.4868 -0.5448  0.9526
11058SOL    HW244899   9.442   0.862   0.881 -0.6146  1.6963 -0.6379
11059SOL     OW44900   4.172   0.672   7.805 -0.3944 -0.2554 -0.2907
11059SOL    HW144901   4.260   0.654   7.839 -0.8466  1.1036  1.7747
11059SOL    HW244902   4.138   0.586   7.780  0.6850 -1.0998  1.0348
11060SOL     OW44903   6.847   9.017   7.983  0.3533  0.0119 -0.1288
11060SOL    HW144904   6.911   9.030   8.053  0.6098 -1.3477 -0.0820
11060SOL    HW244905   6.836   9.103   7.944  0.3512  0.7734  1.4608
11061SOL     OW44906   7.941   2.818   8.830  0.5009  0.0882 -0.2818
11061SOL    HW144907   7.918   2.906   8.799  1.0548 -0.6860 -3.1465
11061SOL    HW244908   8.017   2.793   8.777 -0.0611 -2.3869 -0.0261
11062SOL     OW44909   1.324   3.799   1.874 -0.3391 -0.5233 -0.6810
11062SOL    HW144910   1.290   3.857   1.943 -0.3168  1.0978 -1.9712
11062SOL    HW244911   1.328   3.855   1.796 -0.4617 -2.3302 -2.0295
11063SOL     OW44912   7.750   2.311   4.266 -0.0441 -0.1434 -0.2599
11063SOL    HW144913   7.809   2.335   4.337 -0.6513 -2.0980  1.0097
11063SOL    HW244914   7.699   2.390   4.249  0.1315  0.3899  1.4787
11064SOL     OW44915   9.072   2.527   5.909 -0.8426 -0.1448  0.4581
11064SOL    HW144916   9.072   2.569   5.823 -0.9262 -1.2076 -0.0650
11064SOL    HW244917   8.980   2.530   5.937 -0.9544 -0.5445  0.1391
11065SOL     OW44918  11.233   0.451   2.108 -0.2446 -0.4888 -0.0750
11065SOL    HW144919  11.315   0.422   2.147 -0.9629 -2.4200  0.1129
11065SOL    HW244920  11.242   0.432   2.015 -0.4162 -0.5416 -0.0820
11066SOL     OW44921   6.902   1.302   0.114  0.2893 -0.1082 -0.1074
11066SOL    HW144922   6.862   1.281   0.198 -0.5435  1.5873 -0.0301
11066SOL    HW244923   6.986   1.342   0.137 -0.3403  1.2155  0.0089
11067SOL     OW44924  11.452   2.709   2.177 -0.3195  0.2916 -0.2949
11067SOL    HW144925  11.468   2.618   2.154  1.5782  0.8429 -1.3629
11067SOL    HW244926  11.370   2.731   2.133 -0.8650 -0.9005  0.0750
11068SOL     OW44927  10.595   6.233  10.695  0.1040 -0.1225  0.3105
11068SOL    HW144928  10.532   6.256  10.627  0.8644  3.3540  0.5988
11068SOL    HW244929  10.681   6.247  10.654  0.5935  0.2023  1.4119
11069SOL     OW44930   5.691   8.153   5.693  0.2485  0.4755  0.4335
11069SOL    HW144931   5.757   8.098   5.736  0.5210  1.1531  0.9132
11069SOL    HW244932   5.611   8.139   5.744 -0.2512 -1.0726 -0.7198
11070SOL     OW44933  10.425   3.558   0.100 -0.5361  0.1610  0.5925
11070SOL    HW144934  10.510   3.593   0.074 -0.7794  0.9468  0.8082
11070SOL    HW244935  10.408   3.487   0.039 -0.1436  0.6030 -0.0387
11071SOL     OW44936   4.522   0.859   9.743 -0.1046  0.1123  0.1844
11071SOL    HW144937   4.600   0.807   9.764 -0.2274  0.2344  0.9688
11071SOL    HW244938   4.509   0.914   9.820 -0.0028  1.2839 -0.5954
11072SOL     OW44939   0.516   4.891   9.380  0.4108  0.4929 -0.7787
11072SOL    HW144940   0.553   4.945   9.451  0.0630 -1.2144  0.7876
11072SOL    HW244941   0.452   4.834   9.424  0.3136 -0.7536 -2.4373
11073SOL     OW44942   8.717   5.337   3.164  0.0382 -0.7742 -0.5190
11073SOL    HW144943   8.641   5.362   3.218  0.2516  0.2492 -0.6724
11073SOL    HW244944   8.741   5.250   3.196 -0.6614 -0.7422  0.1337
11074SOL     OW44945   2.398   7.041  10.463 -0.2822  0.2939 -0.4076
11074SOL    HW144946   2.439   6.989  10.531 -0.4057 -0.7701 -1.1225
11074SOL    HW244947   2.468   7.059  10.400 -0.2939  0.7962 -0.2821
11075SOL     OW44948   2.629   5.600   4.799  0.2401 -0.5381 -0.1396
11075SOL    HW144949   2.643   5.671   4.862  1.6228 -1.2460  0.4149
11075SOL    HW244950   2.601   5.643   4.719  0.8658  0.6200  0.2442
11076SOL     OW44951   7.301   8.450   9.870 -0.3356 -0.4815  0.2876
11076SOL    HW144952   7.314   8.419   9.960  2.6471 -1.9738 -0.5214
11076SOL    HW244953   7.258   8.377   9.826 -3.2360  0.8173  0.7095
11077SOL     OW44954   5.736   5.987   8.385 -0.0723 -0.7668 -0.0718
11077SOL    HW144955   5.700   6.002   8.472  0.7017 -1.4331  0.3768
11077SOL    HW244956   5.710   5.898   8.363  0.6075 -0.9727 -0.0749
11078SOL     OW44957   5.473   4.856   4.239 -0.2589 -0.5938  0.4369
11078SOL    HW144958   5.430   4.807   4.170 -0.0848 -0.5754  0.3132
11078SOL    HW244959   5.517   4.790   4.292 -1.6294 -0.7438  1.4158
11079SOL     OW44960   6.999  10.493  11.682 -0.1415 -0.6410 -0.5979
11079SOL    HW144961   7.013  10.533  11.767  0.6248 -0.0008 -1.0105
11079SOL    HW244962   7.009  10.399  11.697  0.8642 -0.4698 -0.1437
11080SOL     OW44963  10.143   6.186   4.535 -0.6360 -0.1108  0.0399
11080SOL    HW144964  10.142   6.112   4.596 -0.8409  0.4273  0.6983
11080SOL    HW244965  10.055   6.223   4.540 -0.0418  1.2640  1.0827
11081SOL     OW44966  10.320   6.944   5.133  0.1566  0.3903  0.9575
11081SOL    HW144967  10.232   6.980   5.125  0.3038  0.5228 -0.1990
11081SOL    HW244968  10.334   6.896   5.052  0.8125 -0.4072  1.5278
11082SOL     OW44969   8.451  10.218  10.494 -0.2361  0.4807  0.4508
11082SOL    HW144970   8.432  10.225  10.588  0.9126  1.2293  0.6473
11082SOL    HW244971   8.367  10.194  10.454 -0.6956 -0.0476  1.6865
11083SOL     OW44972   8.334   5.011   4.447 -0.0461 -0.0263  0.5846
11083SOL    HW144973   8.277   5.052   4.381 -0.4585  1.5675  1.8770
11083SOL    HW244974   8.373   4.936   4.401 -0.0530  1.2080 -1.5692
11084SOL     OW44975  11.640  11.561   8.689  0.0413 -0.0914 -0.5865
11084SOL    HW144976  11.643  11.651   8.722 -1.2344  0.1923 -1.1780
11084SOL    HW244977  11.563  11.559   8.633  0.7990 -1.2041 -1.6457
11085SOL     OW44978   2.562   0.046  11.409  0.2233  0.8045 -0.0846
11085SOL    HW144979   2.567   0.093  11.492  0.6817 -0.8521  0.8590
11085SOL    HW244980   2.477   0.072  11.373 -0.4416  0.7886  1.3839
11086SOL     OW44981   2.205   3.778   3.282 -0.1460 -0.1018 -0.3372
11086SOL    HW144982   2.195   3.795   3.376 -2.3048  0.6243 -0.6473
11086SOL    HW244983   2.199   3.682   3.275  0.6662 -0.2113  0.3133
11087SOL     OW44984   6.050   5.436   9.443  0.3818 -0.0120  0.1665
11087SOL    HW144985   5.985   5.498   9.410  0.3968  0.1402  0.4140
11087SOL    HW244986   6.127   5.490   9.463 -0.3313  0.2912  2.4541
11088SOL     OW44987   2.435   1.816   1.514  0.1671 -0.2568 -0.2635
11088SOL    HW144988   2.344   1.794   1.494  0.6097 -0.8951 -1.6888
11088SOL    HW244989   2.438   1.820   1.610 -1.5646  0.7364 -0.2114
11089SOL     OW44990   4.324   8.524   9.232  0.6738  0.1371 -0.7001
11089SOL    HW144991   4.316   8.485   9.319  0.2001  1.0558 -0.3154
11089SOL    HW244992   4.300   8.616   9.245  3.5973  1.0642 -1.2117
11090SOL     OW44993   0.159   6.322   8.962  0.0570 -0.1754 -0.3715
11090SOL    HW144994   0.224   6.274   8.910 -0.1865 -0.3464 -0.5182
11090SOL    HW244995   0.099   6.360   8.898  0.2838  0.3848 -0.2576
11091SOL     OW44996   0.750  11.802  10.417 -0.1171  0.3297 -0.7345
11091SOL    HW144997   0.683  11.815  10.485 -0.3337 -0.5346 -0.7703
11091SOL    HW244998   0.799  11.884  10.416  0.3612  0.1286  0.9975
11092SOL     OW44999   3.591   4.232   0.412  0.3672  0.0187  0.3485
11092SOL    HW145000   3.598   4.326   0.396 -2.1224  0.2645  0.3028
11092SOL    HW245001   3.601   4.224   0.507 -0.6711  0.5166  0.5182
11093SOL     OW45002   2.326   2.582   1.650  0.6432  0.3384 -0.2081
11093SOL    HW145003   2.260   2.637   1.692 -0.4084 -1.5744  0.7793
11093SOL    HW245004   2.409   2.626   1.667 -0.3217  3.2784 -2.1869
11094SOL     OW45005  10.673   4.046   3.784  0.2359  0.2652 -0.2725
11094SOL    HW145006  10.662   4.029   3.690  1.0320  1.0113 -0.5096
11094SOL    HW245007  10.637   4.134   3.797  0.6374  0.3847  0.0188
11095SOL     OW45008   1.307   0.416  11.513  0.1539 -0.3218  0.1999
11095SOL    HW145009   1.349   0.500  11.533  0.1587 -0.4120  0.5909
11095SOL    HW245010   1.216   0.439  11.495  0.0516 -0.2704  0.7402
11096SOL     OW45011   1.840   6.999  10.134 -0.1365 -0.2248  0.3919
11096SOL    HW145012   1.808   7.087  10.152 -1.4611 -1.0748  2.7239
11096SOL    HW245013   1.928   6.998  10.170  0.4318  0.5218 -0.9309
11097SOL     OW45014   9.789   0.562   1.776 -0.0910  0.1171  0.0729
11097SOL    HW145015   9.811   0.635   1.718 -1.1081 -0.4525 -1.0893
11097SOL    HW245016   9.837   0.580   1.856  0.2448  1.6914 -0.4343
11098SOL     OW45017   9.620   6.971   8.021  0.0317 -0.7292  0.0086
11098SOL    HW145018   9.619   6.876   8.010 -2.6114 -0.7726 -0.0125
11098SOL    HW245019   9.609   7.005   7.933  1.9575 -0.3076 -0.1171
11099SOL     OW45020   2.442   2.411  10.010  0.1899 -0.5107  0.0554
11099SOL    HW145021   2.363   2.452  10.045  1.3877  0.5998  1.5899
11099SOL    HW245022   2.455   2.455   9.925 -0.3550 -0.0738  0.1883
11100SOL     OW45023   6.947  11.301   4.908  0.3739 -0.2502  0.0330
11100SOL    HW145024   7.037  11.309   4.878  0.7314  0.1163  1.1417
11100SOL    HW245025   6.911  11.389   4.900 -0.3346 -0.6494 -1.6699
11101SOL     OW45026   1.869   0.709   5.030 -0.1352  0.6773 -0.0239
11101SOL    HW145027   1.842   0.732   4.941  2.8155  1.7916 -0.7668
11101SOL    HW245028   1.876   0.793   5.075 -1.4024  0.1396  1.2622
11102SOL     OW45029   1.739   4.964   1.019  0.0073 -0.2746  0.2769
11102SOL    HW145030   1.820   4.914   1.019 -0.1324 -0.5224  0.9929
11102SOL    HW245031   1.679   4.913   1.075 -0.1897  0.5962  0.8914
11103SOL     OW45032  10.632   5.954   4.939 -0.0164  0.1554 -0.0558
11103SOL    HW145033  10.690   5.992   5.005  0.5113  0.0052 -0.4252
11103SOL    HW245034  10.689   5.896   4.888 -0.5707 -0.2579 -0.2078
11104SOL     OW45035   9.774  10.981  11.701  0.0145 -0.1892  0.3894
11104SOL    HW145036   9.691  10.950  11.666 -0.0874  2.2593 -1.8725
11104SOL    HW245037   9.750  11.050  11.763  0.3274 -1.0108  1.4356
11105SOL     OW45038   2.177   6.758   9.918  0.1597  0.2027 -0.1906
11105SOL    HW145039   2.242   6.716   9.861  1.0533  0.5032  0.5718
11105SOL    HW245040   2.142   6.687   9.971  1.1903  0.2948  0.6413
11106SOL     OW45041   4.512  10.636   6.176  0.2570 -0.3949 -0.5289
11106SOL    HW145042   4.545  10.700   6.113  0.9868 -1.6928 -1.5031
11106SOL    HW245043   4.417  10.648   6.175  0.3351  0.2094 -1.2008
11107SOL     OW45044   7.717   8.921  10.924  0.2366 -0.4423  0.0744
11107SOL    HW145045   7.634   8.957  10.894 -0.6004 -1.2063  1.3852
11107SOL    HW245046   7.764   8.995  10.962 -0.0990 -0.1324 -0.1134
11108SOL     OW45047   0.669   3.875   9.555 -0.1125  0.0458  0.1846
11108SOL    HW145048   0.729   3.806   9.583  0.3480 -0.5162 -1.9813
11108SOL    HW245049   0.589   3.860   9.606  0.9453 -0.3427  1.7642
11109SOL     OW45050   1.808   6.424   8.889 -0.2501 -0.6412  0.0066
11109SOL    HW145051   1.886   6.445   8.941 -1.6412 -3.4717  3.7365
11109SOL    HW245052   1.830   6.342   8.845  0.1527  0.6386 -2.3140
11110SOL     OW45053   4.401  11.932  10.319 -0.0007  0.1149  0.3823
11110SOL    HW145054   4.352  11.994  10.373  1.4651  1.1715  0.5600
11110SOL    HW245055   4.344  11.916  10.244 -2.0003 -1.2368  2.0748
11111SOL     OW45056   2.347   6.264   7.628 -0.0270  0.3442  0.0176
11111SOL    HW145057   2.395   6.237   7.706 -0.7366  3.7190  1.7844
11111SOL    HW245058   2.412   6.311   7.575 -0.2224  0.5156 -0.0696
11112SOL     OW45059   0.390   1.467   2.933  0.2133 -0.5826  0.3652
11112SOL    HW145060   0.421   1.556   2.952 -0.0243 -1.1026  3.9404
11112SOL    HW245061   0.322   1.479   2.867  0.2789  1.8812  0.6353
11113SOL     OW45062   3.259   5.557  10.737  0.2763  0.0832  0.0017
11113SOL    HW145063   3.218   5.504  10.669  1.2946  0.9821 -1.3507
11113SOL    HW245064   3.353   5.550  10.720  0.4784  1.3410  0.5364
11114SOL     OW45065   2.252   6.124   8.916 -0.6131 -0.4882 -0.3564
11114SOL    HW145066   2.247   6.054   8.850  0.4330  1.8615 -3.1394
11114SOL    HW245067   2.237   6.205   8.867 -0.1608  1.4338  2.4081
11115SOL     OW45068   8.611   6.248   7.991  0.3124 -0.6018 -0.5399
11115SOL    HW145069   8.574   6.224   8.075 -2.9563  1.1516 -1.3417
11115SOL    HW245070   8.618   6.165   7.943 -0.6808 -1.2259  0.3707
11116SOL     OW45071   8.333   5.766   9.448  0.1414 -0.2159 -0.5484
11116SOL    HW145072   8.421   5.750   9.413  0.1592  0.5598 -0.8861
11116SOL    HW245073   8.323   5.861   9.443 -0.2864 -0.1970  0.5509
11117SOL     OW45074  11.473   3.416  10.527  0.6160 -0.1100 -0.5136
11117SOL    HW145075  11.442   3.368  10.605  0.3294  0.6206 -0.1658
11117SOL    HW245076  11.433   3.369  10.454  0.0172 -0.1826 -0.1567
11118SOL     OW45077   1.820   6.998   1.924 -0.2009 -0.4364 -0.0003
11118SOL    HW145078   1.809   6.919   1.871 -1.0730 -0.6806  0.5339
11118SOL    HW245079   1.846   6.966   2.010  0.4191 -0.0778 -0.0428
11119SOL     OW45080   3.901   9.790   2.063  0.0438 -0.1921 -0.1922
11119SOL    HW145081   3.928   9.882   2.069 -0.5273  0.0430 -1.0960
11119SOL    HW245082   3.820   9.786   2.114 -1.8354  0.6102 -2.8887
11120SOL     OW45083   8.643  10.423  11.335 -0.4806  0.9094 -0.1073
11120SOL    HW145084   8.577  10.404  11.268 -1.1970  1.8110  0.3033
11120SOL    HW245085   8.607  10.384  11.415  1.5156 -2.3225 -0.6306
11121SOL     OW45086  10.157   2.596  11.099  0.2527  0.3345  0.4951
11121SOL    HW145087  10.066   2.567  11.102  0.5372 -0.5005  2.0969
11121SOL    HW245088  10.187   2.572  11.011 -0.7127 -0.5135  0.3776
11122SOL     OW45089   0.678   2.906   2.804  0.5588  0.7137 -0.1664
11122SOL    HW145090   0.605   2.854   2.770  0.4894 -1.3928  2.8386
11122SOL    HW245091   0.637   2.970   2.862  0.9916 -0.4025  1.4437
11123SOL     OW45092   7.276   1.428   6.972  0.8144 -0.0562 -0.8533
11123SOL    HW145093   7.196   1.480   6.972 -0.9667 -2.4613  1.9622
11123SOL    HW245094   7.346   1.492   6.990 -0.9309  1.6660  0.1606
11124SOL     OW45095   8.853   9.311   2.742 -0.3274  0.2498 -0.5598
11124SOL    HW145096   8.787   9.379   2.754  0.2023  0.7574 -0.4576
11124SOL    HW245097   8.859   9.268   2.827  0.9119  1.5475  0.0689
11125SOL     OW45098   9.435   6.304   3.766  0.1135 -0.1825  0.0366
11125SOL    HW145099   9.473   6.216   3.776  0.9321  0.0480 -0.8056
11125SOL    HW245100   9.388   6.300   3.683  0.5430  0.2957 -0.2396
11126SOL     OW45101   3.408   7.415   3.014 -0.3763 -0.5188  0.2302
11126SOL    HW145102   3.384   7.421   2.921  0.7931 -2.9820 -0.3244
11126SOL    HW245103   3.326   7.394   3.059 -0.5835 -1.6771 -0.6209
11127SOL     OW45104  11.398   5.911  11.921  0.0382  0.0212 -0.1500
11127SOL    HW145105  11.450   5.832  11.935  0.4316  0.3026  0.0131
11127SOL    HW245106  11.311   5.888  11.952 -0.6796 -1.3474 -2.9402
11128SOL     OW45107   1.911  10.985   8.568 -0.1916  0.2039 -0.0137
11128SOL    HW145108   1.943  11.049   8.631 -1.2312  1.6119 -0.8622
11128SOL    HW245109   1.827  11.019   8.540  0.1566 -0.4815 -2.0318
11129SOL     OW45110   8.287   1.039   5.791 -0.2981  0.5251  0.2951
11129SOL    HW145111   8.337   1.118   5.769  0.4312  0.0981  0.3956
11129SOL    HW245112   8.305   0.978   5.720 -0.5304  0.2929  0.4327
11130SOL     OW45113   7.907   3.400   5.458  0.5992 -0.6542  0.3647
11130SOL    HW145114   7.978   3.341   5.482  2.1621  1.1005  0.2186
11130SOL    HW245115   7.939   3.446   5.380 -0.2738  0.8831  0.8783
11131SOL     OW45116   7.103   9.629   7.077  0.1981 -0.2489  0.2451
11131SOL    HW145117   7.030   9.692   7.075  0.4481  0.0459  0.3430
11131SOL    HW245118   7.067   9.552   7.121  0.0428  0.0207  0.5908
11132SOL     OW45119   2.765   1.435   4.082 -0.0271  0.0542  0.6726
11132SOL    HW145120   2.734   1.459   3.995  0.0870 -1.1105  0.3006
11132SOL    HW245121   2.836   1.496   4.100  0.7262 -0.4453 -0.5372
11133SOL     OW45122   5.460   3.029   5.452 -0.2901 -0.3420  0.3778
11133SOL    HW145123   5.517   2.964   5.493 -0.6728 -0.8361  0.1423
11133SOL    HW245124   5.434   2.989   5.369  0.4445  0.6202 -0.3406
11134SOL     OW45125   3.854   2.791   0.431 -0.2433 -0.0915  0.0579
11134SOL    HW145126   3.852   2.727   0.360 -1.2755 -0.5483  0.4797
11134SOL    HW245127   3.928   2.764   0.486 -0.5016 -0.7620  0.0798
11135SOL     OW45128  10.873   9.206   1.569 -0.3105 -0.5573 -0.2765
11135SOL    HW145129  10.875   9.282   1.626 -1.3634 -1.3134  0.8259
11135SOL    HW245130  10.828   9.237   1.490 -0.1194  0.1371 -0.1183
11136SOL     OW45131   5.992   7.992   4.547  0.4224  0.7660 -0.1190
11136SOL    HW145132   6.076   8.016   4.586  1.0715 -1.1821 -0.2299
11136SOL    HW245133   6.004   8.006   4.453  0.9156 -0.2608 -0.2206
11137SOL     OW45134   7.469   1.703   7.602 -0.5576 -0.5568  0.1350
11137SOL    HW145135   7.452   1.791   7.636 -0.9018 -0.1468 -1.0554
11137SOL    HW245136   7.383   1.660   7.606 -0.3642 -0.8921  0.8322
11138SOL     OW45137   6.062   2.347   1.440  0.3325 -0.3274 -0.3321
11138SOL    HW145138   6.032   2.435   1.462  2.3928  0.3599 -0.0892
11138SOL    HW245139   6.153   2.344   1.470  1.2372 -1.5667 -2.9247
11139SOL     OW45140   8.827   3.688   0.393  0.3032  0.0638 -0.5146
11139SOL    HW145141   8.897   3.644   0.442 -0.5409  0.3253  0.9995
11139SOL    HW245142   8.779   3.617   0.351 -0.3676 -0.4189  0.9948
11140SOL     OW45143   6.514   0.092   8.453  0.6334  0.2268  0.0652
11140SOL    HW145144   6.585   0.031   8.434 -1.7538 -2.3201 -1.5583
11140SOL    HW245145   6.486   0.069   8.542 -0.3854 -1.3793 -0.6057
11141SOL     OW45146   3.276   4.322   6.332 -0.3652 -0.0243  0.1193
11141SOL    HW145147   3.231   4.394   6.376 -0.1300 -0.6372  1.4190
11141SOL    HW245148   3.206   4.262   6.306 -0.3671 -1.1103  2.3769
11142SOL     OW45149   1.593   0.341   2.271  0.6900  0.3360 -0.2323
11142SOL    HW145150   1.657   0.321   2.202  0.2696  1.4987 -1.0034
11142SOL    HW245151   1.530   0.270   2.267  0.3535  0.6807 -1.4761
11143SOL     OW45152   4.499   3.441   7.867 -0.0696 -0.1517 -0.2564
11143SOL    HW145153   4.441   3.403   7.933 -0.1805 -1.4770 -1.0885
11143SOL    HW245154   4.440   3.466   7.796  0.1469  0.5231 -0.2060
11144SOL     OW45155   8.507  11.758   4.023  0.7525  0.1031  0.2980
11144SOL    HW145156   8.455  11.808   3.961  0.6237  1.2982  1.3082
11144SOL    HW245157   8.444  11.724   4.087  0.8509 -1.3126 -0.3272
11145SOL     OW45158   6.151  11.330   9.160 -0.2825  0.1790  0.0996
11145SOL    HW145159   6.241  11.328   9.129 -0.2892 -0.9239  0.0864
11145SOL    HW245160   6.157  11.306   9.252 -0.6239 -0.7753 -0.1151
11146SOL     OW45161  11.151   0.592   6.693  0.2884  0.0610  0.4502
11146SOL    HW145162  11.168   0.498   6.698  1.9412  0.3795  1.8357
11146SOL    HW245163  11.232   0.633   6.723 -0.4543  1.9395  0.0541
11147SOL     OW45164   4.137  11.799   6.249  0.2148 -0.0389  0.1425
11147SOL    HW145165   4.047  11.809   6.280  0.7428  1.3069  1.3755
11147SOL    HW245166   4.150  11.871   6.188  1.2430  1.5379  2.0785
11148SOL     OW45167   7.635   9.834   6.486  0.0964 -0.2822  0.3457
11148SOL    HW145168   7.590   9.885   6.553  1.5018 -0.4161  1.4396
11148SOL    HW245169   7.622   9.743   6.512  0.8560 -0.3277  0.6059
11149SOL     OW45170   1.036  10.118   6.051 -0.6712 -0.9786  0.4290
11149SOL    HW145171   1.119  10.077   6.075 -0.3287 -0.2493  0.5141
11149SOL    HW245172   0.992  10.134   6.134  0.4168  1.3417  0.6426
11150SOL     OW45173   9.822   2.310   2.418 -0.4057  0.0993 -0.4988
11150SOL    HW145174   9.908   2.352   2.425  0.3679 -1.3555 -0.8674
11150SOL    HW245175   9.761   2.383   2.407  0.7601  1.1725 -0.0831
11151SOL     OW45176   0.094  11.846   5.599 -0.3671  0.2249 -0.0688
11151SOL    HW145177   0.113  11.917   5.659 -1.7112 -0.1982  0.8902
11151SOL    HW245178   0.154  11.776   5.625 -0.3935  0.3224  0.2555
11152SOL     OW45179   4.346   7.877   4.437  0.1221 -0.6247  0.3670
11152SOL    HW145180   4.316   7.962   4.403 -0.1324 -1.2946 -1.2061
11152SOL    HW245181   4.266   7.830   4.459  0.1179 -1.2945 -0.9768
11153SOL     OW45182   4.210   9.201   7.223 -0.5870  0.0070 -0.1823
11153SOL    HW145183   4.184   9.140   7.154 -1.6728  0.0956  0.1170
11153SOL    HW245184   4.241   9.145   7.294 -0.9874 -0.1736 -0.1455
11154SOL     OW45185  11.559   0.114  10.467 -0.0868 -0.1087 -0.2252
11154SOL    HW145186  11.578   0.205  10.487  1.6725 -0.2436 -1.0162
11154SOL    HW245187  11.600   0.065  10.537 -1.8980 -0.3041  0.7541
11155SOL     OW45188   9.777   6.206   9.365 -0.1825 -0.0426  0.1979
11155SOL    HW145189   9.714   6.268   9.401  0.4395  2.3221 -2.4409
11155SOL    HW245190   9.736   6.172   9.286  1.1899  0.3821 -0.7443
11156SOL     OW45191   2.667  11.903  11.825  0.5397 -0.2752  0.8687
11156SOL    HW145192   2.735  11.836  11.814 -0.4170 -1.0967 -0.2893
11156SOL    HW245193   2.587  11.853  11.841 -0.6149  0.3964 -2.1513
11157SOL     OW45194   1.825   2.898   8.839  0.0308 -0.3942 -0.0616
11157SOL    HW145195   1.811   2.942   8.923  0.3715  2.6137 -1.4457
11157SOL    HW245196   1.887   2.828   8.858 -0.7367 -0.4940  2.3612
11158SOL     OW45197   4.524   9.687   1.849 -0.1800 -0.7118 -0.1782
11158SOL    HW145198   4.448   9.635   1.824 -1.6633  0.9631  0.6484
11158SOL    HW245199   4.489   9.756   1.904  1.8738  0.4715 -0.2542
11159SOL     OW45200   4.824   4.059  11.937  0.2424 -0.5664 -0.3246
11159SOL    HW145201   4.743   4.078  11.984 -0.2762 -0.7249 -1.1511
11159SOL    HW245202   4.838   4.136  11.882  0.1635 -0.9350 -0.8606
11160SOL     OW45203   7.005   7.986   2.204 -0.4967  0.3670  0.8227
11160SOL    HW145204   7.023   8.074   2.170 -1.7098  0.6977  0.9868
11160SOL    HW245205   7.078   7.966   2.261  0.8722  0.3991 -0.8298
11161SOL     OW45206   8.098   7.813   7.899 -0.4523 -0.1740 -0.2387
11161SOL    HW145207   8.082   7.903   7.872 -0.6347 -0.3582 -0.7513
11161SOL    HW245208   8.068   7.760   7.826 -0.4136 -0.6572  0.0900
11162SOL     OW45209   7.322   1.990   0.250 -0.1327  0.0155  0.5131
11162SOL    HW145210   7.292   1.972   0.161 -0.8520  0.7297  0.6008
11162SOL    HW245211   7.412   2.021   0.239 -0.2932  0.3159  0.0006
11163SOL     OW45212   1.580   1.560   3.198  0.1150  0.3225  0.4070
11163SOL    HW145213   1.674   1.576   3.205  0.2253  0.0804 -0.4274
11163SOL    HW245214   1.540   1.636   3.241  0.6708  1.1230 -0.4460
11164SOL     OW45215   6.945   0.865   2.265  0.0611  0.4996  0.5125
11164SOL    HW145216   6.868   0.814   2.292  0.3069  1.1238  2.5366
11164SOL    HW245217   7.016   0.833   2.321  0.6794  1.6716  0.4321
11165SOL     OW45218   9.799   2.917   8.012 -0.3511  0.2320  0.0961
11165SOL    HW145219   9.838   2.834   8.041 -0.5752  0.1407  0.1443
11165SOL    HW245220   9.863   2.984   8.036  1.2190 -0.1697 -2.5694
11166SOL     OW45221   9.694   6.554   9.429  0.1878 -0.1481 -0.2525
11166SOL    HW145222   9.625   6.494   9.401  1.4457 -1.9740  0.4073
11166SOL    HW245223   9.764   6.542   9.365  0.2875  1.0170 -0.3985
11167SOL     OW45224   5.005  10.963   9.025  0.1178  0.0506  0.2819
11167SOL    HW145225   5.100  10.953   9.017  0.2944  0.1300  1.8676
11167SOL    HW245226   4.970  10.935   8.940  1.5354 -0.2018 -0.2423
11168SOL     OW45227   0.914   7.197   9.439 -0.1715 -0.3730  0.2896
11168SOL    HW145228   0.943   7.138   9.369 -0.1805 -1.4007  1.1286
11168SOL    HW245229   0.860   7.141   9.496 -1.6491  0.8613  0.1687
11169SOL     OW45230   7.955   8.580   3.577 -0.2536  0.1362  0.1885
11169SOL    HW145231   8.013   8.628   3.518  0.1067 -1.4655 -0.8296
11169SOL    HW245232   7.870   8.624   3.568  0.0770  0.6225 -0.6674
11170SOL     OW45233   1.911   1.448  10.991 -0.0567  0.2216  0.5663
11170SOL    HW145234   1.853   1.380  10.955  0.8523  0.3039 -1.1683
11170SOL    HW245235   1.984   1.452  10.929 -0.2334  2.9806  0.4276
11171SOL     OW45236   2.073   8.739   5.481  0.2909 -0.0333 -0.2230
11171SOL    HW145237   2.045   8.684   5.554  0.7021 -0.6434 -0.5160
11171SOL    HW245238   2.126   8.808   5.522  1.6802 -1.1435 -0.0401
11172SOL     OW45239  10.289   8.287   8.698 -0.4988 -0.0525 -0.2918
11172SOL    HW145240  10.228   8.235   8.647  0.5992 -0.8117 -0.8828
11172SOL    HW245241  10.346   8.329   8.633 -0.1347  0.3133  0.2461
11173SOL     OW45242   0.534   9.991   0.426 -0.0044  0.2313 -0.7905
11173SOL    HW145243   0.466  10.037   0.376 -0.1724  2.4205  1.2601
11173SOL    HW245244   0.486   9.941   0.492  0.1891  2.7967  1.5155
11174SOL     OW45245   9.461  11.774   1.929  0.2105  0.3958  0.1115
11174SOL    HW145246   9.377  11.773   1.975  0.0565  0.5922 -0.1655
11174SOL    HW245247   9.467  11.689   1.886  0.4625  0.1147  0.6841
11175SOL     OW45248  10.854   1.804   0.116  0.2516  0.0007  0.1708
11175SOL    HW145249  10.849   1.751   0.195 -1.5905 -0.3153 -0.1224
11175SOL    HW245250  10.881   1.890   0.147  2.7581 -0.9042  0.7111
11176SOL     OW45251   7.024   6.652  10.129  0.2173 -0.0105 -0.4529
11176SOL    HW145252   7.020   6.709  10.052  1.7847 -0.3191 -0.7779
11176SOL    HW245253   7.058   6.569  10.097 -0.7068 -0.7116  0.2869
11177SOL     OW45254   3.260   1.857   3.062 -0.5875  0.5241  0.4706
11177SOL    HW145255   3.189   1.793   3.052  0.9489 -1.3498  0.9653
11177SOL    HW245256   3.267   1.871   3.156  0.6888 -0.5376  0.5624
11178SOL     OW45257   9.587   9.237   5.407  0.5125  0.4485 -0.2993
11178SOL    HW145258   9.643   9.298   5.360  0.6282  0.2762 -0.3859
11178SOL    HW245259   9.646   9.168   5.437  1.0877  2.1437  2.9637
11179SOL     OW45260   4.934   8.204  11.178 -0.7667  0.3558  0.6727
11179SOL    HW145261   4.922   8.291  11.139 -3.5249 -0.2347 -0.0116
11179SOL    HW245262   4.902   8.143  11.112  0.6640 -1.2030  1.3266
11180SOL     OW45263   3.110   5.318   1.140 -0.0793 -0.0277  0.4828
11180SOL    HW145264   3.140   5.399   1.099  0.3509  0.4802  1.7516
11180SOL    HW245265   3.130   5.330   1.233  0.1070 -1.6442  0.6721
11181SOL     OW45266   0.925   4.918   9.135 -0.0565 -0.6139  0.8612
11181SOL    HW145267   0.919   5.006   9.174 -0.5269 -0.6883  0.9674
11181SOL    HW245268   1.019   4.899   9.133  0.3827  1.1883 -2.0691
11182SOL     OW45269  10.836   1.272   5.723  0.0780 -0.5492  0.8688
11182SOL    HW145270  10.913   1.313   5.765 -0.0465  0.1055  0.4673
11182SOL    HW245271  10.845   1.179   5.744  0.8316 -0.4432  1.0720
11183SOL     OW45272   9.310  10.288   8.060 -0.1432 -0.2585  0.0074
11183SOL    HW145273   9.361  10.218   8.101  0.3155 -0.1791 -0.4095
11183SOL    HW245274   9.373  10.332   8.002 -0.5076  0.2949  0.0278
11184SOL     OW45275   4.672   0.454   8.355  0.3786  0.3851  0.0391
11184SOL    HW145276   4.703   0.365   8.344 -0.8964 -0.4631  2.5490
11184SOL    HW245277   4.750   0.508   8.344  1.1862 -0.9947 -1.4461
11185SOL     OW45278  10.556  11.175   6.937 -0.2104 -0.2242 -0.0512
11185SOL    HW145279  10.608  11.100   6.967 -1.0036 -0.5652  0.5288
11185SOL    HW245280  10.590  11.249   6.987 -1.5159 -0.7907  1.7836
11186SOL     OW45281   6.657  10.980   6.708  0.1190  0.6292  0.0320
11186SOL    HW145282   6.716  10.918   6.751 -0.0481  0.7757  0.4852
11186SOL    HW245283   6.693  10.991   6.620 -0.8243 -1.4541 -0.6839
11187SOL     OW45284   7.423   7.784  11.361 -0.0393  0.0758 -0.2018
11187SOL    HW145285   7.505   7.815  11.400  0.4550 -2.6687  1.2026
11187SOL    HW245286   7.367   7.765  11.436 -0.4688 -1.8313 -0.9705
11188SOL     OW45287   9.276   5.099   3.779 -0.3457 -0.3903  0.6064
11188SOL    HW145288   9.293   5.193   3.774 -0.8094 -0.2678  1.1228
11188SOL    HW245289   9.362   5.058   3.771  0.0091  0.1303  1.5881
11189SOL     OW45290   2.785   1.921   6.234  0.4469 -0.2581 -0.1784
11189SOL    HW145291   2.849   1.876   6.290  1.4239  0.6760 -0.5042
11189SOL    HW245292   2.831   1.932   6.151  0.2726  1.3778 -0.0900
11190SOL     OW45293   6.445   1.408  11.362 -0.4975  0.4145 -0.0971
11190SOL    HW145294   6.459   1.416  11.456 -0.0494  1.6882 -0.2569
11190SOL    HW245295   6.512   1.463  11.323  0.4883 -1.5100 -1.2519
11191SOL     OW45296   7.760  10.619   2.202 -0.2727  0.2582 -0.0474
11191SOL    HW145297   7.664  10.620   2.190 -0.2326  0.8125 -0.3923
11191SOL    HW245298   7.779  10.705   2.240 -0.0868 -0.4795  1.6057
11192SOL     OW45299  10.715   6.825   8.416 -0.1107  0.1677  0.3787
11192SOL    HW145300  10.667   6.842   8.335  1.2882 -0.3151 -0.5958
11192SOL    HW245301  10.766   6.905   8.432  0.5196 -0.1679  0.1041
11193SOL     OW45302   4.165   1.264   7.925 -0.2845 -0.0811  0.2764
11193SOL    HW145303   4.159   1.282   7.831 -0.0782  2.2314  0.6615
11193SOL    HW245304   4.081   1.293   7.960 -0.7051 -1.7297  0.7428
11194SOL     OW45305   0.874   0.423   7.027  0.3560 -0.2344 -0.2576
11194SOL    HW145306   0.919   0.418   7.111 -0.5347  1.6194  0.3805
11194SOL    HW245307   0.851   0.516   7.017 -2.6020 -0.9323 -0.9143
11195SOL     OW45308   3.906   4.900   9.807  0.0870  0.1280 -0.3722
11195SOL    HW145309   3.859   4.862   9.732  1.0152 -0.5519 -0.6256
11195SOL    HW245310   3.860   4.982   9.826 -0.4541  0.0631 -1.3738
11196SOL     OW45311   4.324   8.646   4.982  0.5130  0.0474  0.3678
11196SOL    HW145312   4.232   8.659   5.004  0.5368  1.3022 -0.1790
11196SOL    HW245313   4.372   8.685   5.055  0.5905  0.7589 -0.0474
11197SOL     OW45314   2.832   8.387   8.369  0.5936 -0.4808  0.3664
11197SOL    HW145315   2.864   8.306   8.411  0.7906 -0.8167 -0.4110
11197SOL    HW245316   2.737   8.376   8.364  0.5485 -0.3566  0.8820
11198SOL     OW45317   0.805  10.840   9.837 -0.2929 -0.7882  0.1791
11198SOL    HW145318   0.815  10.890   9.757  1.2679 -0.7775  0.3524
11198SOL    HW245319   0.737  10.886   9.886 -1.5641 -1.0384 -1.2807
11199SOL     OW45320   5.626  10.505   8.214  0.2822 -0.3756 -0.3134
11199SOL    HW145321   5.721  10.502   8.201  0.0658 -0.3186 -2.0949
11199SOL    HW245322   5.601  10.414   8.232  0.7530 -0.2676  1.0010
11200SOL     OW45323   8.140   4.166   4.824 -0.2726  0.1485  0.2851
11200SOL    HW145324   8.155   4.072   4.810  1.7812  0.3179  0.9849
11200SOL    HW245325   8.216   4.208   4.783  0.6111  1.2710  2.8502
11201SOL     OW45326   7.343   1.410   4.529 -0.1345 -0.3764  0.7631
11201SOL    HW145327   7.312   1.361   4.452 -0.2958  2.0177 -0.7812
11201SOL    HW245328   7.293   1.373   4.602 -1.9169 -0.9734 -0.6900
11202SOL     OW45329   9.995   2.838   8.276  0.2870 -0.5473  0.0295
11202SOL    HW145330  10.056   2.804   8.210  0.2780  0.9662 -0.8090
11202SOL    HW245331  10.012   2.932   8.277 -0.8764 -0.3365  1.0062
11203SOL     OW45332   8.894   5.252   7.787  0.7946 -0.2986  0.4669
11203SOL    HW145333   8.919   5.192   7.717  1.5977 -1.4290  1.6560
11203SOL    HW245334   8.948   5.225   7.861  0.0439  0.9119  1.4932
11204SOL     OW45335   2.985   1.160   2.794  0.4555 -0.1431  0.2806
11204SOL    HW145336   3.004   1.076   2.835  0.2498  0.2109  1.1167
11204SOL    HW245337   2.967   1.139   2.702  2.6902 -0.7452 -0.0782
11205SOL     OW45338   9.870   4.878  11.806  0.0881 -0.1734 -0.3043
11205SOL    HW145339   9.904   4.851  11.722 -0.4749  0.6659 -0.8278
11205SOL    HW245340   9.947   4.898  11.859  0.5767 -3.4869  0.4204
11206SOL     OW45341   7.398   4.110   0.481 -0.1188  0.0201 -0.1585
11206SOL    HW145342   7.424   4.079   0.395  0.3844  0.3422 -0.1268
11206SOL    HW245343   7.369   4.200   0.467 -1.1720 -0.3199 -0.1826
11207SOL     OW45344   5.987   3.695   6.180 -0.0125  0.4519 -0.1426
11207SOL    HW145345   6.012   3.621   6.236  0.3735  1.2224  0.7385
11207SOL    HW245346   5.992   3.661   6.091  0.8148 -0.4012  0.2097
11208SOL     OW45347   2.613  10.012   2.210 -0.3995  0.0131 -0.0098
11208SOL    HW145348   2.703  10.024   2.178 -0.9114  1.9489 -0.8385
11208SOL    HW245349   2.575   9.946   2.152  0.1645 -0.0582 -0.3056
11209SOL     OW45350   9.548  10.888   4.576 -0.0531  0.2668 -0.2045
11209SOL    HW145351   9.497  10.968   4.584  1.6516  1.4118 -0.2246
11209SOL    HW245352   9.638  10.914   4.596  0.6785 -1.4917 -0.9140
11210SOL     OW45353   3.865   8.641  11.043  0.0390  0.2774  0.3367
11210SOL    HW145354   3.799   8.635  11.113  0.1967 -0.2999  0.4438
11210SOL    HW245355   3.822   8.606  10.966  0.3474 -0.4904  0.5044
11211SOL     OW45356   4.908   5.290   8.850 -0.3983 -0.2095 -0.4045
11211SOL    HW145357   5.000   5.291   8.876 -0.3965 -2.2642 -0.1211
11211SOL    HW245358   4.908   5.252   8.762 -0.9598 -0.1288 -0.4464
11212SOL     OW45359   6.497   3.089   2.057 -0.4500  0.1763 -0.0403
11212SOL    HW145360   6.416   3.117   2.099 -0.8360 -0.4871 -0.3251
11212SOL    HW245361   6.567   3.124   2.113 -0.9430 -0.1293  0.7827
11213SOL     OW45362   6.626   7.165   7.404 -0.3696 -0.2921  0.2790
11213SOL    HW145363   6.637   7.231   7.472  1.5123  1.0083 -1.1812
11213SOL    HW245364   6.660   7.085   7.443  1.3882  0.5941  0.6751
11214SOL     OW45365  10.538   3.807   4.974  0.0727  0.4173  0.5946
11214SOL    HW145366  10.494   3.839   4.895  0.1833 -0.8022  0.0296
11214SOL    HW245367  10.471   3.756   5.020  0.5516 -0.4766  0.3148
11215SOL     OW45368   7.054   0.730   3.033 -0.5337  0.0617  0.4181
11215SOL    HW145369   6.969   0.731   3.076  0.0577 -1.1500  1.7082
11215SOL    HW245370   7.040   0.679   2.953 -1.5620  2.0400 -0.7601
11216SOL     OW45371   3.273   9.158  10.578 -0.4309 -0.0283 -0.5527
11216SOL    HW145372   3.211   9.213  10.529 -0.7312 -0.8572 -1.1278
11216SOL    HW245373   3.359   9.187  10.548 -0.6011 -0.2342 -1.2719
11217SOL     OW45374   3.196   7.265   6.493 -0.1479 -0.1031 -0.0099
11217SOL    HW145375   3.106   7.291   6.514 -0.4836 -0.2309 -1.2383
11217SOL    HW245376   3.199   7.171   6.513 -0.3263 -0.1306 -0.1162
11218SOL     OW45377   9.868   5.905   3.425  0.3483  0.0108  0.0901
11218SOL    HW145378   9.889   5.865   3.340  0.9482 -0.7503  0.5854
11218SOL    HW245379   9.931   5.978   3.433 -1.3223  1.7128 -1.2186
11219SOL     OW45380   1.310   1.435   3.150  0.1863  0.7873  0.7499
11219SOL    HW145381   1.333   1.369   3.215 -0.5230  0.1705  0.3831
11219SOL    HW245382   1.377   1.503   3.161  1.0485 -0.0806  0.9820
11220SOL     OW45383   9.284   1.589  10.473 -0.5022  0.5116 -0.5107
11220SOL    HW145384   9.325   1.561  10.555 -1.2815  0.3833 -0.1513
11220SOL    HW245385   9.259   1.507  10.430 -0.6639  0.5970 -0.5783
11221SOL     OW45386   3.673  10.907   1.789 -0.4649  0.3032  0.7716
11221SOL    HW145387   3.671  10.975   1.857  1.0414  0.3581  0.8035
11221SOL    HW245388   3.620  10.942   1.718  1.1142  2.0348  0.3595
11222SOL     OW45389   6.848  11.875   8.920  0.7134  0.6826  0.2897
11222SOL    HW145390   6.895  11.873   8.836  0.5970  1.7107  0.1948
11222SOL    HW245391   6.770  11.823   8.904  0.5179  1.1619 -0.3579
11223SOL     OW45392   4.993  11.431  10.638  0.2504 -0.1788 -0.0638
11223SOL    HW145393   4.949  11.355  10.678 -1.3784  0.6182 -0.2823
11223SOL    HW245394   4.953  11.439  10.552 -0.2469  1.4797  0.3050
11224SOL     OW45395  11.476   6.577   0.022  0.2619  0.2314  0.0778
11224SOL    HW145396  11.562   6.595   0.061  1.3611 -0.6474 -1.8221
11224SOL    HW245397  11.492   6.505  -0.038 -0.6077  3.3461 -4.3474
11225SOL     OW45398   9.344   3.622  10.351  0.4350 -0.0366 -0.2385
11225SOL    HW145399   9.428   3.620  10.305 -0.9415 -0.4400 -2.9168
11225SOL    HW245400   9.343   3.540  10.401  1.5262 -0.1289 -0.3368
11226SOL     OW45401   0.572   3.855   6.667  0.3032 -0.7443 -0.5221
11226SOL    HW145402   0.605   3.785   6.724  0.7317  0.1059  0.2917
11226SOL    HW245403   0.480   3.833   6.652 -0.3125 -0.0797  1.9342
11227SOL     OW45404  10.370   6.486   6.386 -0.6027  0.3425 -0.4127
11227SOL    HW145405  10.365   6.550   6.457 -1.1571 -0.9425  0.7533
11227SOL    HW245406  10.458   6.451   6.391 -0.7025  0.1136 -0.2234
11228SOL     OW45407   9.285   9.607   0.667 -0.3523 -0.5798 -0.0296
11228SOL    HW145408   9.204   9.581   0.710 -0.6940  1.4699  0.7190
11228SOL    HW245409   9.269   9.697   0.639  2.0857  0.3843  1.3302
11229SOL     OW45410   1.900   8.360  10.319 -0.1263  0.3762  0.1129
11229SOL    HW145411   1.906   8.397  10.231 -0.6206 -0.3248 -0.2245
11229SOL    HW245412   1.934   8.428  10.377  2.5976 -0.0717 -0.8279
11230SOL     OW45413  11.543   3.702   1.507  0.3306  0.0240  0.0245
11230SOL    HW145414  11.584   3.776   1.551 -0.7652  0.6159  0.0753
11230SOL    HW245415  11.462   3.737   1.470  0.8090 -0.6245 -1.7920
11231SOL     OW45416   4.880   0.047   7.315  0.2450  0.3907 -0.0016
11231SOL    HW145417   4.861   0.102   7.239  1.0173  0.4239 -0.1808
11231SOL    HW245418   4.844   0.096   7.390 -0.4897  0.3727 -0.3356
11232SOL     OW45419   6.655   5.930   6.982 -0.4007 -0.0595 -0.1892
11232SOL    HW145420   6.686   5.889   7.062  0.1780 -0.0955 -0.4250
11232SOL    HW245421   6.724   5.911   6.917 -0.5767  0.4736 -0.5388
11233SOL     OW45422   4.881   9.826  10.305 -0.8038  0.3742  0.0665
11233SOL    HW145423   4.897   9.803  10.214 -1.3748  0.0499  0.0481
11233SOL    HW245424   4.954   9.884  10.328 -0.7567  0.6050 -0.6477
11234SOL     OW45425   1.418   2.859   6.212 -0.5060  0.0515 -0.1446
11234SOL    HW145426   1.343   2.915   6.192  0.4094  2.0160  1.5027
11234SOL    HW245427   1.468   2.856   6.130 -1.2739  0.5198 -0.6438
11235SOL     OW45428   2.480   6.537   1.279  0.4517 -0.3361 -0.6019
11235SOL    HW145429   2.438   6.450   1.282  1.5786 -0.8882 -0.3693
11235SOL    HW245430   2.507   6.547   1.188 -0.5960  0.2396 -0.8678
11236SOL     OW45431   4.353   5.604   1.299  0.0855  0.2528 -0.0245
11236SOL    HW145432   4.386   5.541   1.364  0.4422  0.6508  0.1824
11236SOL    HW245433   4.285   5.652   1.344 -1.5525 -1.2621 -0.7597
11237SOL     OW45434   9.938   7.134   2.621 -0.2052  0.0173 -0.2773
11237SOL    HW145435   9.976   7.205   2.672 -0.9138  0.5501 -0.4719
11237SOL    HW245436  10.001   7.063   2.628 -0.6966 -0.2669  2.1278
11238SOL     OW45437  11.133   3.486   1.425  0.0071  0.0578  0.1836
11238SOL    HW145438  11.100   3.408   1.470  0.9678  0.5338  1.8065
11238SOL    HW245439  11.139   3.553   1.493  0.6416  1.1092 -0.8548
11239SOL     OW45440   6.673  10.294   0.031  0.0802 -0.4994 -0.0304
11239SOL    HW145441   6.657  10.319  -0.060  0.2772 -1.9783 -0.4913
11239SOL    HW245442   6.586  10.290   0.070 -0.0018  0.2105 -0.1101
11240SOL     OW45443   1.542   0.187   4.201  0.2015  0.2418 -0.3053
11240SOL    HW145444   1.582   0.271   4.222  0.1407  0.6010 -1.5836
11240SOL    HW245445   1.449   0.198   4.223  0.6663 -0.4932  2.3687
11241SOL     OW45446  10.125   4.062   0.335  0.0288  0.3652 -0.6073
11241SOL    HW145447  10.159   3.975   0.315 -0.1805 -0.0216  0.5872
11241SOL    HW245448  10.171   4.121   0.276  0.3571 -0.5301 -1.2556
11242SOL     OW45449   5.553   1.321   3.743 -0.0938 -0.6865  0.2390
11242SOL    HW145450   5.484   1.386   3.748  1.2213  0.7319  1.0382
11242SOL    HW245451   5.634   1.372   3.748  0.9894 -2.3900  1.1461
11243SOL     OW45452   4.450  10.378  11.434  0.0727 -0.4005  0.1830
11243SOL    HW145453   4.455  10.412  11.523 -2.2877 -1.8023  0.9520
11243SOL    HW245454   4.364  10.405  11.403  0.5279 -0.6408 -1.3760
11244SOL     OW45455   5.551   7.112  11.135 -0.4755  0.1654  0.2995
11244SOL    HW145456   5.576   7.119  11.043 -0.9871  0.0693  0.1512
11244SOL    HW245457   5.458   7.135  11.137 -1.6921 -3.9646  0.1091
11245SOL     OW45458   0.619   6.753   9.305  0.1552  0.8151 -0.4087
11245SOL    HW145459   0.608   6.848   9.313 -0.3027  0.8100 -0.8661
11245SOL    HW245460   0.713   6.739   9.308  0.1738  1.0656  1.8498
11246SOL     OW45461   4.529   7.814   1.715  0.1046 -0.2455 -0.0383
11246SOL    HW145462   4.485   7.882   1.663  1.1328 -0.1556 -0.8234
11246SOL    HW245463   4.486   7.733   1.690 -0.3504 -0.0324  0.0360
11247SOL     OW45464   2.023   3.338   1.035  0.5404  0.4984 -0.0514
11247SOL    HW145465   2.091   3.285   0.992  0.1399 -0.9740  1.0458
11247SOL    HW245466   1.951   3.339   0.972  0.8569  0.4183 -0.4195
11248SOL     OW45467  10.635   4.453   4.608 -0.5688  0.1090  0.2083
11248SOL    HW145468  10.575   4.527   4.611 -1.5711 -0.7020  1.2558
11248SOL    HW245469  10.605   4.400   4.534 -0.4532  0.2536  0.0565
11249SOL     OW45470   8.778   7.734   7.860 -0.3003 -0.0314 -0.0875
11249SOL    HW145471   8.868   7.705   7.870  0.4213  1.7880 -0.8366
11249SOL    HW245472   8.761   7.787   7.938 -0.8407 -0.6410  0.2145
11250SOL     OW45473   5.110   1.517   3.235  0.4593 -0.1941 -0.0608
11250SOL    HW145474   5.196   1.521   3.195  0.9369  2.5335  1.0226
11250SOL    HW245475   5.053   1.567   3.176 -0.3447 -1.6723 -0.5879
11251SOL     OW45476   2.051  10.514   5.484  0.2635  0.3170  0.1870
11251SOL    HW145477   1.957  10.493   5.479  0.2782  0.4289 -0.7161
11251SOL    HW245478   2.089  10.471   5.407  1.2513 -1.1915  1.4658
11252SOL     OW45479   7.097   6.981   5.998  0.2392 -0.1397  0.1769
11252SOL    HW145480   7.090   6.935   5.914  1.6742 -0.4439  0.1924
11252SOL    HW245481   7.035   7.053   5.991  0.2823 -0.1935 -1.1263
11253SOL     OW45482   9.780   5.815   2.797 -0.2500  0.3609  0.2266
11253SOL    HW145483   9.774   5.720   2.807  1.3044  0.1616 -0.4633
11253SOL    HW245484   9.750   5.832   2.708  1.1115  0.2860 -0.2755
11254SOL     OW45485   7.089   0.376   2.625  0.4396  0.4491  0.0206
11254SOL    HW145486   7.100   0.310   2.556 -2.7627 -0.2744  0.0702
11254SOL    HW245487   7.101   0.459   2.580  1.6892 -0.0592 -0.6508
11255SOL     OW45488   2.855   8.297   5.095  0.0720 -0.1257  0.1556
11255SOL    HW145489   2.892   8.376   5.136 -1.2923  0.6038  0.0391
11255SOL    HW245490   2.912   8.280   5.020 -0.0858  1.2584 -0.3101
11256SOL     OW45491   4.855   1.104  10.747 -0.5230 -0.5702  0.5593
11256SOL    HW145492   4.905   1.167  10.799  0.7048 -2.1901  1.4277
11256SOL    HW245493   4.875   1.127  10.657  0.2051  0.0547  0.8657
11257SOL     OW45494   4.537   2.732   5.431 -0.9346  0.1887 -0.2808
11257SOL    HW145495   4.442   2.741   5.425 -1.2413 -1.6914  0.7714
11257SOL    HW245496   4.558   2.663   5.367 -0.4170  0.0069  0.0746
11258SOL     OW45497   3.011  11.363   6.374  0.2973  0.1332 -0.4778
11258SOL    HW145498   3.073  11.321   6.315  1.6861  1.2535  0.1288
11258SOL    HW245499   2.971  11.290   6.422  1.5440 -0.6063 -0.5067
11259SOL     OW45500   9.736  10.054   2.799 -0.0747 -0.6982  0.6513
11259SOL    HW145501   9.728  10.130   2.740 -1.5593 -0.6750  0.8287
11259SOL    HW245502   9.830  10.041   2.810  0.2917  2.2679  2.0416
11260SOL     OW45503   5.593   3.933   8.633 -0.0341  0.5909  0.6737
11260SOL    HW145504   5.555   3.975   8.556  0.4043  1.6217  1.0112
11260SOL    HW245505   5.615   3.845   8.603 -0.6768  0.6913 -0.1322
11261SOL     OW45506   5.234   9.786  10.411 -0.1574 -0.1723  0.0103
11261SOL    HW145507   5.216   9.810  10.502 -1.7620  1.0866 -0.6029
11261SOL    HW245508   5.225   9.690  10.410 -1.0174 -0.1242  0.9972
11262SOL     OW45509   4.101   3.268  11.228 -0.1553  0.0623 -0.2458
11262SOL    HW145510   4.171   3.204  11.237  0.3438  0.8257  2.1991
11262SOL    HW245511   4.115   3.308  11.142  1.1761 -1.1718 -0.6372
11263SOL     OW45512   1.722   3.775   1.363  0.5631  0.1277  0.3828
11263SOL    HW145513   1.708   3.870   1.361  0.5355  0.1151 -0.0831
11263SOL    HW245514   1.635   3.739   1.383  0.7105  0.2292  1.2330
11264SOL     OW45515   9.713   0.380   4.650 -0.0954  0.2317 -0.6203
11264SOL    HW145516   9.638   0.358   4.595 -0.9716 -0.8763  0.9346
11264SOL    HW245517   9.780   0.315   4.625 -0.4439 -0.1925 -0.4543
11265SOL     OW45518   0.391   4.876   4.684  0.2940  0.5828  0.0220
11265SOL    HW145519   0.437   4.829   4.615 -1.1941  0.3784 -0.8876
11265SOL    HW245520   0.366   4.960   4.644  0.2687  0.8814  0.6404
11266SOL     OW45521   8.247   5.231  10.941 -0.2676 -0.8725  0.6502
11266SOL    HW145522   8.224   5.195  11.026 -1.1360 -1.6927  0.0872
11266SOL    HW245523   8.216   5.321  10.944  0.7502 -0.5400  1.6081
11267SOL     OW45524   6.331   6.236   8.955  0.4503  0.0125  0.0472
11267SOL    HW145525   6.410   6.222   9.006  0.0446 -1.9237  0.2250
11267SOL    HW245526   6.332   6.168   8.889 -0.9387  0.1024 -0.1060
11268SOL     OW45527  11.409   2.788   1.819  0.4947  0.2767 -0.3664
11268SOL    HW145528  11.361   2.784   1.736 -0.3158  1.3920  0.0116
11268SOL    HW245529  11.341   2.776   1.885  1.1823 -0.9313  0.1521
11269SOL     OW45530   2.147   7.994   2.954  0.1017 -0.0931  0.3520
11269SOL    HW145531   2.237   8.025   2.942 -0.0603 -0.0949 -1.0229
11269SOL    HW245532   2.133   7.997   3.049  0.4746  3.0464  0.4194
11270SOL     OW45533   3.800   6.517   9.738 -0.1985  0.5331  0.3827
11270SOL    HW145534   3.870   6.523   9.672  2.2257  0.6314  2.8180
11270SOL    HW245535   3.721   6.500   9.686  1.7791 -0.9639 -2.4283
11271SOL     OW45536   0.002   5.268   1.899 -0.3319 -0.1197  0.8771
11271SOL    HW145537  -0.066   5.242   1.836 -0.3403 -0.3836  0.9904
11271SOL    HW245538   0.048   5.340   1.856  0.2336 -0.8684  0.1759
11272SOL     OW45539   9.453   8.594  10.438 -0.0801 -0.2694  0.1095
11272SOL    HW145540   9.495   8.650  10.503  0.0416 -0.7103  0.4194
11272SOL    HW245541   9.508   8.515  10.435  1.4158  0.7404 -2.3901
11273SOL     OW45542   1.425   4.091  10.567  1.1252  0.3550  0.0283
11273SOL    HW145543   1.412   4.023  10.501 -1.0659 -0.4172  1.1520
11273SOL    HW245544   1.368   4.163  10.539 -0.0077 -0.0705  1.1247
11274SOL     OW45545   9.292   3.781   9.243  0.3828 -0.3628 -0.3267
11274SOL    HW145546   9.260   3.805   9.156  0.4243 -0.3058 -0.3256
11274SOL    HW245547   9.344   3.856   9.272  0.2196 -0.3069 -0.1751
11275SOL     OW45548   9.910   1.422   5.151 -0.0501 -0.4267  0.2131
11275SOL    HW145549   9.969   1.474   5.205 -1.1790  1.5398 -0.3584
11275SOL    HW245550   9.931   1.331   5.173  3.7609  0.0843 -0.5894
11276SOL     OW45551   1.409   7.651  11.844  0.1009  0.0557 -0.5840
11276SOL    HW145552   1.362   7.730  11.818 -2.0578 -0.5945  1.0288
11276SOL    HW245553   1.475   7.681  11.907  2.3340  1.0361 -3.1875
11277SOL     OW45554   8.425   7.956   0.313 -0.5564  0.0946  0.0170
11277SOL    HW145555   8.456   7.961   0.404 -0.7267 -0.6824  0.1221
11277SOL    HW245556   8.439   8.045   0.278  1.2295 -0.0576  0.2398
11278SOL     OW45557   2.649   1.679   5.168 -0.0877  0.5374  0.0544
11278SOL    HW145558   2.635   1.585   5.172  1.9149  0.0060 -2.6338
11278SOL    HW245559   2.730   1.694   5.218 -0.5193  0.9013  0.6636
11279SOL     OW45560   5.034   5.968   9.640  0.2915 -0.5196 -0.5476
11279SOL    HW145561   5.119   6.010   9.627  0.0866 -0.2214 -0.9616
11279SOL    HW245562   5.055   5.879   9.669  0.7357 -0.2925 -0.1680
11280SOL     OW45563   6.321   6.443   4.111  0.3976 -0.2733 -0.6349
11280SOL    HW145564   6.265   6.407   4.043  0.1439 -0.2610 -0.4352
11280SOL    HW245565   6.294   6.399   4.191 -2.0434  2.4497  0.2051
11281SOL     OW45566  11.303   2.945   2.729  0.0773 -0.4332  0.2837
11281SOL    HW145567  11.380   2.931   2.673  0.4128 -0.2655  0.7001
11281SOL    HW245568  11.229   2.946   2.668  0.4364 -0.2753 -0.1548
11282SOL     OW45569   6.217   1.486   0.204  0.2375 -0.0245 -0.3552
11282SOL    HW145570   6.162   1.442   0.269 -0.2734 -0.6178 -1.1657
11282SOL    HW245571   6.166   1.562   0.176  0.9265  0.8616  0.7139
11283SOL     OW45572   8.345   5.088   8.165 -0.2155  0.3993 -0.3359
11283SOL    HW145573   8.316   4.998   8.179 -2.8646  1.3952  1.3567
11283SOL    HW245574   8.407   5.105   8.236  0.9521 -0.3022 -1.1599
11284SOL     OW45575   6.942   5.578   4.780  0.5827 -0.2092 -0.0608
11284SOL    HW145576   6.924   5.672   4.784 -0.0386 -0.2761 -0.9719
11284SOL    HW245577   6.876   5.539   4.838 -0.8505 -0.2646 -1.6429
11285SOL     OW45578   2.143   3.820   2.182 -0.4622  0.0038 -0.2558
11285SOL    HW145579   2.091   3.761   2.236  0.9305 -0.3800  0.7448
11285SOL    HW245580   2.157   3.773   2.100 -1.4897  0.0286 -0.4518
11286SOL     OW45581   7.673   9.794   0.779 -0.2435 -0.2435 -0.1866
11286SOL    HW145582   7.609   9.849   0.824 -1.6107 -2.1212  0.2705
11286SOL    HW245583   7.682   9.834   0.692 -1.9496  0.1317 -0.2184
11287SOL     OW45584   6.431  10.563   8.050 -0.1957 -0.1021  0.0881
11287SOL    HW145585   6.458  10.655   8.044  1.0364 -0.5216 -1.4964
11287SOL    HW245586   6.498  10.521   8.103 -0.4985 -0.1899  0.4063
11288SOL     OW45587   7.888   2.476   5.388 -0.5509 -0.4863  0.6168
11288SOL    HW145588   7.970   2.428   5.377 -0.5092  0.0022 -1.5076
11288SOL    HW245589   7.824   2.428   5.336 -0.7968  1.0309 -0.5428
11289SOL     OW45590   8.470   2.601   7.778 -0.0740 -0.6370 -0.6277
11289SOL    HW145591   8.535   2.534   7.757 -1.6075 -2.8782  1.2139
11289SOL    HW245592   8.386   2.556   7.769 -1.0918 -0.1928  3.9592
11290SOL     OW45593  10.015   0.861   7.000  0.5933 -0.0279 -0.0819
11290SOL    HW145594  10.007   0.948   6.960  0.0833  0.0342  0.1420
11290SOL    HW245595  10.058   0.878   7.084  1.0597 -0.0753 -0.3059
11291SOL     OW45596   9.633   3.272   3.010  0.7618 -0.1761  0.2873
11291SOL    HW145597   9.685   3.242   2.935  0.7479  0.2055  0.1263
11291SOL    HW245598   9.603   3.359   2.985 -0.1936 -0.5002  0.2561
11292SOL     OW45599   8.376   8.676  10.450 -0.9623  0.3124  0.2943
11292SOL    HW145600   8.345   8.637  10.368 -1.1673  1.9608 -0.4552
11292SOL    HW245601   8.328   8.758  10.457  0.7922  1.3416  0.8430
11293SOL     OW45602  11.634   5.631   8.212  0.4199 -0.2869 -0.2872
11293SOL    HW145603  11.633   5.539   8.237  1.8342 -0.5525 -1.1120
11293SOL    HW245604  11.688   5.673   8.278 -0.9112  0.1342  0.5754
11294SOL     OW45605   3.929   1.616   9.858 -0.0844 -0.2367  0.6032
11294SOL    HW145606   3.957   1.572   9.938 -0.6500  0.0211  0.9486
11294SOL    HW245607   3.934   1.709   9.878  1.8932 -0.0818 -0.3995
11295SOL     OW45608   2.542   5.701   3.152  0.1297 -0.9493  0.8062
11295SOL    HW145609   2.601   5.718   3.225 -0.8819 -0.1879  1.4751
11295SOL    HW245610   2.543   5.606   3.141  1.4254 -0.9516  0.8343
11296SOL     OW45611   4.695   8.406   4.027 -0.5547  0.5144 -0.1578
11296SOL    HW145612   4.696   8.422   4.121  1.8873  0.8268 -0.1806
11296SOL    HW245613   4.668   8.489   3.988  0.1245  0.9251  0.2215
11297SOL     OW45614   9.952   0.213  10.536  0.2134 -0.0252  0.4091
11297SOL    HW145615   9.964   0.303  10.505 -0.5244  0.3489  1.1731
11297SOL    HW245616   9.928   0.223  10.629 -1.9908 -0.8885 -0.0223
11298SOL     OW45617   6.612  11.605   2.845 -0.4402  0.6715  0.5760
11298SOL    HW145618   6.544  11.577   2.784 -0.0872  0.3729  0.3149
11298SOL    HW245619   6.679  11.646   2.790  2.1189 -3.5827  0.0166
11299SOL     OW45620  10.571  11.012   5.406 -0.4812 -0.6217 -0.6350
11299SOL    HW145621  10.493  11.009   5.463  0.3766 -0.8056  0.5803
11299SOL    HW245622  10.596  10.920   5.396  1.6552 -0.4721  2.0462
11300SOL     OW45623  11.186   7.185  10.460 -0.1211  1.0056  0.2586
11300SOL    HW145624  11.139   7.182  10.543 -0.7592 -0.6939 -0.1182
11300SOL    HW245625  11.236   7.266  10.464 -0.1825  1.0061  2.2659
11301SOL     OW45626   1.358  10.996   5.636 -0.1647  0.1180 -0.2303
11301SOL    HW145627   1.284  10.968   5.690  0.7908 -2.5048 -0.1414
11301SOL    HW245628   1.435  10.975   5.689  0.7266  3.5468  0.0315
11302SOL     OW45629   1.405   8.537   7.663  0.3349 -0.2664  0.0040
11302SOL    HW145630   1.465   8.495   7.725 -0.3454 -0.3159  0.6523
11302SOL    HW245631   1.335   8.473   7.651 -0.5187  0.5083  0.7006
11303SOL     OW45632   3.587   8.464   7.057 -0.5154 -0.7329 -0.9343
11303SOL    HW145633   3.683   8.462   7.062 -0.5392 -0.1175  1.7973
11303SOL    HW245634   3.568   8.523   6.984  1.1383 -1.7650 -2.2834
11304SOL     OW45635   4.268   2.088   1.722  0.1621  0.7256 -0.5960
11304SOL    HW145636   4.207   2.155   1.692  0.1655  0.0011 -2.3537
11304SOL    HW245637   4.267   2.095   1.818 -0.6747  2.4608 -0.7048
11305SOL     OW45638   2.318   1.926   7.828 -0.2118 -0.0514 -0.0707
11305SOL    HW145639   2.351   2.011   7.798  2.6969 -1.5185 -1.3921
11305SOL    HW245640   2.301   1.877   7.748 -3.9210 -0.1352  0.6011
11306SOL     OW45641   3.559  10.424  10.279 -0.2900 -0.3100  0.1186
11306SOL    HW145642   3.524  10.366  10.211  0.4022 -0.8006  0.1671
11306SOL    HW245643   3.511  10.399  10.359 -0.3186 -0.4988  0.0423
11307SOL     OW45644   4.094   9.702   3.888 -0.5432  0.1777 -0.5751
11307SOL    HW145645   4.063   9.749   3.966 -0.7772  0.5304 -0.8719
11307SOL    HW245646   4.150   9.633   3.921  0.5812  1.2528 -0.1631
11308SOL     OW45647   4.742   1.832  10.425 -0.5719  0.3288 -0.5045
11308SOL    HW145648   4.838   1.825  10.424 -0.2021  3.3570  0.7156
11308SOL    HW245649   4.720   1.878  10.344 -0.8319  0.8114 -0.1644
11309SOL     OW45650  11.096   9.611  10.217  0.4909  0.3359  0.1390
11309SOL    HW145651  11.054   9.656  10.144 -0.2192 -0.0531  0.2961
11309SOL    HW245652  11.062   9.654  10.295 -1.0707 -1.1421  0.3387
11310SOL     OW45653   1.888  11.318   9.874 -0.1325  0.0742 -0.0914
11310SOL    HW145654   1.913  11.259   9.945  0.6237  0.2200 -0.2328
11310SOL    HW245655   1.798  11.293   9.853  0.2606 -1.2071 -0.3252
11311SOL     OW45656   6.806   3.640   0.447 -0.1355 -0.1297 -0.3900
11311SOL    HW145657   6.879   3.588   0.481  1.3734  2.0002 -0.1296
11311SOL    HW245658   6.792   3.707   0.514 -1.7681  0.0509 -0.8734
11312SOL     OW45659  11.620   0.824   1.504 -0.5819 -0.3029 -0.2168
11312SOL    HW145660  11.669   0.780   1.574  1.0428 -0.4333 -1.3889
11312SOL    HW245661  11.562   0.884   1.551 -0.9572 -1.7764  1.3129
11313SOL     OW45662   9.402   2.958  11.751 -0.6947  0.2717 -0.1036
11313SOL    HW145663   9.332   2.946  11.687 -0.8069 -0.1027  0.0899
11313SOL    HW245664   9.402   3.053  11.768  0.4819  0.6632 -1.9407
11314SOL     OW45665   9.406  10.780   0.333 -0.5413  0.2417  0.4334
11314SOL    HW145666   9.452  10.705   0.294  2.5620  2.7265 -1.1156
11314SOL    HW245667   9.473  10.827   0.383 -1.3374  3.8028 -1.4937
11315SOL     OW45668   6.893  11.926   7.281 -0.2529  0.1194 -0.0791
11315SOL    HW145669   6.883  11.835   7.252 -1.7323  0.2840 -0.1317
11315SOL    HW245670   6.896  11.921   7.376 -2.1467  0.1474  0.0065
11316SOL     OW45671   5.414  10.181   3.980 -0.2867  0.1981  0.6667
11316SOL    HW145672   5.334  10.160   4.029  0.6385  0.4799  2.3662
11316SOL    HW245673   5.475  10.111   4.004  1.6593  2.6488  3.5868
11317SOL     OW45674   4.901  11.886   8.370  0.6631 -0.9380 -0.6732
11317SOL    HW145675   4.915  11.966   8.320  0.0467 -1.3867 -1.5836
11317SOL    HW245676   4.987  11.843   8.371  1.1920  0.0613  0.4653
11318SOL     OW45677   8.444   0.251   8.111  0.1557 -0.2506 -0.7057
11318SOL    HW145678   8.463   0.258   8.018 -1.5239  0.3871 -1.0332
11318SOL    HW245679   8.510   0.190   8.145  0.5567 -0.7807 -2.3641
11319SOL     OW45680   3.630   7.672   0.309  0.0239 -0.7630 -0.1538
11319SOL    HW145681   3.609   7.579   0.320 -1.2335 -0.6206 -1.1648
11319SOL    HW245682   3.557   7.718   0.352 -0.3538 -0.2544 -1.3028
11320SOL     OW45683   6.817   8.429   5.914  0.1279 -0.3373  0.1809
11320SOL    HW145684   6.864   8.512   5.911 -0.9666  0.3987  2.1265
11320SOL    HW245685   6.745   8.439   5.852 -0.5612  0.5472  1.1088
11321SOL     OW45686   2.413  10.297   3.342 -0.6486  0.4398  0.0598
11321SOL    HW145687   2.349  10.364   3.317 -0.7305  0.3614  0.0599
11321SOL    HW245688   2.484  10.346   3.383 -1.0385  0.4586  0.7332
11322SOL     OW45689   2.128   9.154   6.850  0.1107  0.1516  0.4222
11322SOL    HW145690   2.053   9.168   6.907 -0.5998  1.4742 -0.7803
11322SOL    HW245691   2.159   9.242   6.830  0.8909 -0.3257 -0.5150
11323SOL     OW45692   1.507  11.618   7.930 -0.8812 -0.5739 -0.0311
11323SOL    HW145693   1.447  11.669   7.876 -0.3219  1.6327  1.3041
11323SOL    HW245694   1.590  11.621   7.882 -0.8392 -0.1612  0.0607
11324SOL     OW45695   4.144   0.223   2.311 -0.3065  0.3603  0.4342
11324SOL    HW145696   4.161   0.314   2.284 -0.2911 -0.3429 -2.1965
11324SOL    HW245697   4.213   0.203   2.373  1.9593  1.0681 -1.7015
11325SOL     OW45698   2.119   3.063   1.350  0.3139 -0.1570 -0.6774
11325SOL    HW145699   2.089   2.984   1.396  0.5249  0.2788  0.2304
11325SOL    HW245700   2.049   3.082   1.288 -0.2278 -0.4647 -0.1762
11326SOL     OW45701   9.481   7.262   6.533 -0.0788  0.3056 -0.1504
11326SOL    HW145702   9.394   7.299   6.542 -0.7166 -0.6370 -1.8871
11326SOL    HW245703   9.507   7.237   6.622 -1.2543  1.2629  0.4796
11327SOL     OW45704   5.629  11.820   8.709 -0.1374 -0.5180  0.2235
11327SOL    HW145705   5.715  11.804   8.671  0.1849  0.2987  0.5910
11327SOL    HW245706   5.601  11.903   8.671 -0.2642 -0.2125  0.9545
11328SOL     OW45707   8.800   9.858   0.296  0.2530 -0.0167 -0.1001
11328SOL    HW145708   8.807   9.829   0.205 -1.7248  0.7692 -0.5464
11328SOL    HW245709   8.891   9.867   0.325  0.9989 -3.1008 -1.0358
11329SOL     OW45710   6.067   4.211   6.427  0.2990 -1.0511 -0.1846
11329SOL    HW145711   6.002   4.141   6.427  1.4068 -2.1394 -1.0216
11329SOL    HW245712   6.087   4.225   6.334  1.5319 -1.0303  0.0669
11330SOL     OW45713   8.199  10.895   4.309 -0.0840 -0.2321  0.2059
11330SOL    HW145714   8.294  10.887   4.320  0.1686  1.0050 -0.8814
11330SOL    HW245715   8.183  10.875   4.217 -0.9752 -1.0540  0.5151
11331SOL     OW45716   5.990  11.596   6.605  0.0877  0.4369  0.0513
11331SOL    HW145717   5.914  11.540   6.618 -0.6722  1.4525  0.0725
11331SOL    HW245718   6.059  11.536   6.574 -0.0493 -0.8793  2.1263
11332SOL     OW45719   5.554  11.664   8.891  0.1984 -0.4754 -0.1478
11332SOL    HW145720   5.578  11.730   8.826  1.7282 -0.1812  0.6550
11332SOL    HW245721   5.579  11.580   8.851 -0.3868 -0.4572 -0.5734
11333SOL     OW45722   4.780  11.619  11.169  0.1772 -0.8570 -0.1839
11333SOL    HW145723   4.699  11.653  11.131  0.9326  1.2460 -0.0321
11333SOL    HW245724   4.817  11.563  11.101 -1.5237 -2.1143 -0.1299
11334SOL     OW45725   1.785   0.961   3.595  0.3575 -0.0497 -0.0447
11334SOL    HW145726   1.803   1.054   3.580  0.0117  0.0215 -0.0339
11334SOL    HW245727   1.752   0.929   3.511  0.6571 -0.2084 -0.1024
11335SOL     OW45728   8.879   5.601  11.876 -0.1408 -0.5619  0.1737
11335SOL    HW145729   8.786   5.583  11.863 -0.5182  1.0859  0.3018
11335SOL    HW245730   8.919   5.584  11.791 -0.7157 -0.4911 -0.1174
11336SOL     OW45731   7.230   4.627   1.206  0.6371  0.3635 -0.4992
11336SOL    HW145732   7.219   4.696   1.141  0.1501  0.5448 -0.2225
11336SOL    HW245733   7.309   4.653   1.255  1.3416 -0.0676 -1.3752
11337SOL     OW45734   8.686   7.356   3.587  0.5871  0.4337  0.7675
11337SOL    HW145735   8.729   7.421   3.643  2.0264  0.3815 -0.2210
11337SOL    HW245736   8.661   7.285   3.647  0.6415  1.0784  1.5766
11338SOL     OW45737  11.508   1.503  10.549 -0.3932 -0.6908  0.4119
11338SOL    HW145738  11.548   1.564  10.486  1.0154 -1.8922  0.1022
11338SOL    HW245739  11.511   1.418  10.505 -2.6086 -0.9803  0.7131
11339SOL     OW45740   9.394   8.188   7.832 -0.4457 -0.1013  0.3392
11339SOL    HW145741   9.313   8.219   7.872 -1.3062 -1.8258  0.0511
11339SOL    HW245742   9.366   8.144   7.752  1.1039  2.0014 -1.4594
11340SOL     OW45743   5.192   8.574   9.714  0.0772  0.2067  0.3328
11340SOL    HW145744   5.102   8.549   9.694 -0.1049 -0.0499  1.4414
11340SOL    HW245745   5.234   8.582   9.628 -0.7716 -0.5025 -0.1586
11341SOL     OW45746   1.646   7.052  11.508 -0.1851 -0.2261  0.4635
11341SOL    HW145747   1.597   7.078  11.587 -0.8973 -1.2724  0.3916
11341SOL    HW245748   1.719   7.113  11.504  0.2074 -0.5115  2.2731
11342SOL     OW45749   0.570   6.242   9.025 -0.2688 -0.8752  0.1668
11342SOL    HW145750   0.620   6.181   8.971 -0.3584 -0.7898 -0.0163
11342SOL    HW245751   0.546   6.192   9.103 -1.3266 -1.4502 -0.4930
11343SOL     OW45752   4.810  10.083   5.801  0.0332  0.1759 -0.5004
11343SOL    HW145753   4.754  10.054   5.729  0.5272 -2.6176  0.1175
11343SOL    HW245754   4.803  10.178   5.800 -2.5423  0.0703 -2.1569
11344SOL     OW45755   4.894   3.840   2.876  0.1316  0.1299 -0.2715
11344SOL    HW145756   4.867   3.804   2.792  0.5260  0.9619 -0.7805
11344SOL    HW245757   4.932   3.766   2.923 -1.3328 -0.6413 -0.2683
11345SOL     OW45758  10.464   4.450   3.493 -0.1638  0.5705 -0.3119
11345SOL    HW145759  10.464   4.536   3.535 -0.1633  0.1530  0.5743
11345SOL    HW245760  10.532   4.456   3.426  2.5393  0.1301  2.2100
11346SOL     OW45761   9.290   6.244  10.676 -0.0886  0.1633  0.1703
11346SOL    HW145762   9.241   6.194  10.611  0.1325  2.9474 -2.3897
11346SOL    HW245763   9.382   6.233  10.650 -0.1275  3.4789 -1.9748
11347SOL     OW45764  10.970  10.249   6.110  0.9082  0.1533 -0.1426
11347SOL    HW145765  11.047  10.194   6.100  2.2890  2.0332 -0.4290
11347SOL    HW245766  11.004  10.338   6.105 -0.9703  1.0872  2.0658
11348SOL     OW45767  10.392   5.491  10.021  0.6371  0.4635  0.1893
11348SOL    HW145768  10.466   5.432  10.007 -0.2059 -0.5413 -0.2299
11348SOL    HW245769  10.431   5.578  10.032  1.8636 -0.0534  0.0431
11349SOL     OW45770  10.984   8.175   7.920  0.1329  0.6545  0.3644
11349SOL    HW145771  11.028   8.169   8.005  1.8873  1.2150 -0.4543
11349SOL    HW245772  11.000   8.264   7.891  0.9841  0.0163 -1.2615
11350SOL     OW45773   2.317   8.386   3.119 -0.2357  0.4049 -0.4217
11350SOL    HW145774   2.272   8.437   3.187 -1.9692  0.0562 -1.2634
11350SOL    HW245775   2.261   8.393   3.042  0.9039 -0.5001 -1.3842
11351SOL     OW45776   9.148   7.213   3.372  0.4844 -0.3353 -0.3965
11351SOL    HW145777   9.159   7.121   3.346 -3.2058 -1.3828  1.1206
11351SOL    HW245778   9.100   7.253   3.299  0.0254 -0.2738 -0.0670
11352SOL     OW45779   2.008  10.411   9.613 -0.6783 -0.6304  0.4576
11352SOL    HW145780   2.017  10.459   9.531 -0.6278 -1.9028 -0.3118
11352SOL    HW245781   2.084  10.353   9.615 -0.9305 -0.9444  1.1740
11353SOL     OW45782   8.268   5.933  10.171  0.2472 -0.3558 -0.2682
11353SOL    HW145783   8.218   5.878  10.110 -1.1681 -0.0360  0.5605
11353SOL    HW245784   8.305   6.002  10.116 -3.3105  1.5732 -0.5191
11354SOL     OW45785   4.287  11.833   8.330  0.6611 -0.8813  0.0313
11354SOL    HW145786   4.351  11.904   8.320 -0.6211  0.4011  0.5284
11354SOL    HW245787   4.316  11.785   8.407  0.9731 -0.2479  0.3168
11355SOL     OW45788   5.919  10.557   9.887 -0.2559 -0.4618  0.6163
11355SOL    HW145789   5.864  10.603   9.824  2.0706  1.3820 -0.1972
11355SOL    HW245790   5.858  10.529   9.955 -2.6172 -1.1418 -1.6270
11356SOL     OW45791   8.324  11.197   1.030 -0.7464  0.3003 -0.2941
11356SOL    HW145792   8.401  11.253   1.020 -0.7585  0.2630 -0.6033
11356SOL    HW245793   8.318  11.181   1.125 -1.0583  1.2503 -0.1478
11357SOL     OW45794   1.883  11.453   3.796  0.0596  0.4430 -0.4006
11357SOL    HW145795   1.893  11.360   3.779  0.2575  0.0641  1.5555
11357SOL    HW245796   1.970  11.482   3.823 -0.0843  1.1263 -0.6528
11358SOL     OW45797   9.047   5.090   9.310 -0.1659  0.3270  0.0298
11358SOL    HW145798   9.128   5.053   9.344  0.5657  1.4064 -0.4719
11358SOL    HW245799   9.058   5.087   9.215 -1.4010 -0.9682 -0.0949
11359SOL     OW45800   0.299   1.104   7.320 -0.5510  0.3223 -0.2860
11359SOL    HW145801   0.376   1.118   7.266 -1.0046 -0.5881 -1.1912
11359SOL    HW245802   0.309   1.016   7.356  0.3596  1.3320  2.2029
11360SOL     OW45803  10.732   7.196   9.084  0.0941  0.3558  0.1193
11360SOL    HW145804  10.750   7.290   9.088  0.7444  0.4831 -3.1625
11360SOL    HW245805  10.686   7.183   9.001  0.1264 -2.2548  0.4035
11361SOL     OW45806   6.720   3.972   4.739  0.2024 -0.6268  0.4365
11361SOL    HW145807   6.746   3.968   4.831  0.3329 -1.5068  0.3710
11361SOL    HW245808   6.795   3.934   4.692 -0.0420 -0.5735  0.0062
11362SOL     OW45809   9.113   3.556   7.017  0.0001 -0.1189  0.5280
11362SOL    HW145810   9.058   3.557   6.939 -0.2411 -0.8661  0.6801
11362SOL    HW245811   9.101   3.642   7.057  0.4898  0.4543 -0.5034
11363SOL     OW45812   1.363   8.118   9.017  0.2780 -0.1748  0.2978
11363SOL    HW145813   1.414   8.049   9.059 -2.8900 -2.4590  0.7205
11363SOL    HW245814   1.340   8.177   9.089  1.9439  0.7133  0.1537
11364SOL     OW45815   3.982   8.860  10.101  0.1111  0.0584 -0.1893
11364SOL    HW145816   3.928   8.819  10.168 -0.6489  0.1584 -0.7261
11364SOL    HW245817   3.933   8.847  10.019  0.4835  0.8891 -0.5575
11365SOL     OW45818   5.700   4.040   2.844  0.0037  0.9110 -0.1127
11365SOL    HW145819   5.728   3.949   2.829  0.2376  0.9162  0.2702
11365SOL    HW245820   5.737   4.089   2.771  1.8635  1.0836  0.8897
11366SOL     OW45821  11.889   8.549   4.409  0.8021  0.1998  0.7452
11366SOL    HW145822  11.928   8.629   4.442  2.5283 -0.6098  0.7790
11366SOL    HW245823  11.940   8.479   4.449  1.1813 -0.8552 -1.4260
11367SOL     OW45824   5.004   6.047   9.928  0.1557  0.5543 -0.4274
11367SOL    HW145825   5.003   6.054   9.833  0.7399  0.8741 -0.4142
11367SOL    HW245826   5.063   5.974   9.947 -0.5920 -0.0361 -0.3320
11368SOL     OW45827   6.049   9.645   7.236 -0.2139  0.2979  0.3697
11368SOL    HW145828   6.041   9.740   7.239 -0.0079  0.3038  2.1872
11368SOL    HW245829   6.019   9.620   7.149  1.8592  2.1958 -0.9949
11369SOL     OW45830   7.291   3.738   4.120  0.6893  0.0926  0.2657
11369SOL    HW145831   7.358   3.684   4.162  1.3447  1.3284  0.8694
11369SOL    HW245832   7.232   3.762   4.191 -0.2643 -0.7950 -0.2215
11370SOL     OW45833   1.410   5.883   2.831  0.3590  0.1163  0.3494
11370SOL    HW145834   1.444   5.808   2.880  1.2622  0.8046  0.8077
11370SOL    HW245835   1.397   5.849   2.742 -0.6503 -0.9652  0.8766
11371SOL     OW45836   3.601   3.333  11.468  0.3112  0.3551  0.0372
11371SOL    HW145837   3.639   3.245  11.468  1.1897  0.7077 -0.6771
11371SOL    HW245838   3.583   3.352  11.560 -1.1552 -1.0792  0.0870
11372SOL     OW45839   6.468   0.672   2.192 -0.3018  0.1662 -0.1453
11372SOL    HW145840   6.379   0.660   2.225 -0.2412 -0.9263 -0.3423
11372SOL    HW245841   6.484   0.594   2.138  0.6636  0.4960 -0.3509
11373SOL     OW45842   2.975   1.141  11.464 -0.1150  0.2303 -0.1302
11373SOL    HW145843   3.002   1.066  11.411 -1.9662 -1.3374  1.0110
11373SOL    HW245844   3.007   1.122  11.552 -1.1305  0.4304  0.3103
11374SOL     OW45845  11.316   7.346   5.693  0.2317  0.0833 -0.1550
11374SOL    HW145846  11.356   7.264   5.664  0.4517  0.3576 -0.6377
11374SOL    HW245847  11.234   7.352   5.643 -0.4766 -0.5285  0.9060
11375SOL     OW45848   1.081   5.284   2.512 -0.3270 -0.1980  0.4105
11375SOL    HW145849   0.994   5.307   2.546 -0.1895  2.2504 -0.6075
11375SOL    HW245850   1.138   5.356   2.542  1.2509 -1.4869  0.6205
11376SOL     OW45851   1.574   0.093   6.120 -0.3262 -0.4142 -0.1287
11376SOL    HW145852   1.519   0.050   6.054 -1.5867  0.6390  0.1963
11376SOL    HW245853   1.512   0.125   6.185  0.7244  0.5007  0.4408
11377SOL     OW45854   2.823   9.755  11.338  0.1816  0.4762 -0.8243
11377SOL    HW145855   2.807   9.679  11.282  1.3807  0.1297 -0.7319
11377SOL    HW245856   2.889   9.725  11.400 -1.5641  0.6525  1.2340
11378SOL     OW45857   1.310   6.175   6.289 -0.1656  0.1611  0.4701
11378SOL    HW145858   1.279   6.143   6.204  1.6172  1.1950 -0.6357
11378SOL    HW245859   1.405   6.160   6.287  0.5240  3.6368  0.6017
11379SOL     OW45860   6.849   7.752   4.346 -0.2918  0.0770  0.4122
11379SOL    HW145861   6.823   7.714   4.430  0.6547  0.4929  0.8981
11379SOL    HW245862   6.791   7.710   4.283 -0.3223 -1.0037  1.1362
11380SOL     OW45863   0.864   6.751  11.663 -0.1996  0.3406 -0.1255
11380SOL    HW145864   0.813   6.671  11.673 -0.0690  0.2575 -0.1265
11380SOL    HW245865   0.801   6.822  11.679 -0.0926  0.2234  0.8819
11381SOL     OW45866   7.493   3.566  11.610  0.2205 -0.2673  0.5028
11381SOL    HW145867   7.521   3.590  11.522 -0.7219 -3.5435 -0.8690
11381SOL    HW245868   7.417   3.620  11.627  0.4170  0.4189 -0.7097
11382SOL     OW45869   3.976   4.564   4.932 -0.2128 -0.0481 -0.4960
11382SOL    HW145870   4.067   4.536   4.927 -0.3371 -1.2437  2.3897
11382SOL    HW245871   3.931   4.514   4.863  0.8028 -1.6883 -0.0005
11383SOL     OW45872   8.305   2.980   9.141 -0.4792 -0.0655 -0.7350
11383SOL    HW145873   8.308   2.907   9.203 -1.8837 -0.6425 -1.2979
11383SOL    HW245874   8.397   3.004   9.128  0.0553 -1.9499 -0.7731
11384SOL     OW45875  10.633   1.310   1.585 -0.6320  0.0102 -0.5022
11384SOL    HW145876  10.684   1.274   1.658  1.0349  3.1880  0.0801
11384SOL    HW245877  10.567   1.364   1.628 -1.6065 -0.4828 -1.3561
11385SOL     OW45878   5.933  10.034   9.225  0.0746  0.1710 -0.4271
11385SOL    HW145879   5.954  10.025   9.132 -0.6280  2.7913 -0.9152
11385SOL    HW245880   5.842  10.005   9.233  0.6189 -1.5561 -0.2233
11386SOL     OW45881   6.904   6.990  10.091 -0.4879  0.0449  0.3153
11386SOL    HW145882   6.929   6.918  10.034 -0.3073  0.5313 -0.2380
11386SOL    HW245883   6.935   7.068  10.045  1.5105  0.3501  2.0275
11387SOL     OW45884   2.559  11.198   6.297  0.3037 -0.0496 -0.5232
11387SOL    HW145885   2.568  11.238   6.210 -1.2499  0.1454 -0.6210
11387SOL    HW245886   2.561  11.272   6.357  0.5085 -0.1048 -0.4622
11388SOL     OW45887   9.166   4.140   9.110 -0.3113  0.1127  0.2659
11388SOL    HW145888   9.197   4.109   9.025  0.4074 -0.2053  0.6267
11388SOL    HW245889   9.092   4.197   9.090 -0.2051 -0.0281 -0.5635
11389SOL     OW45890   1.660   3.119   1.333 -0.3494 -0.2421  0.1883
11389SOL    HW145891   1.661   3.095   1.426 -0.2550  0.9609  0.5118
11389SOL    HW245892   1.639   3.212   1.332  4.5616  1.1429 -0.6276
11390SOL     OW45893   2.504   3.030  10.103  0.6447  0.1040 -0.6149
11390SOL    HW145894   2.457   3.001  10.182  0.9061  1.1624 -0.0481
11390SOL    HW245895   2.595   3.041  10.132  1.4957 -2.6829 -1.8846
11391SOL     OW45896  10.384   1.888   1.047 -0.4276 -0.4819 -0.2937
11391SOL    HW145897  10.354   1.844   0.968 -0.7672 -0.7663 -0.0062
11391SOL    HW245898  10.364   1.828   1.118  0.1172 -0.3424 -0.0122
11392SOL     OW45899   1.169   4.201  11.399 -0.6520  0.1466  0.1671
11392SOL    HW145900   1.130   4.288  11.393 -0.0946  0.5528  1.8475
11392SOL    HW245901   1.093   4.142  11.402 -1.0519  0.6345 -0.1055
11393SOL     OW45902   6.410   9.814   9.391  0.2473  0.0852 -0.0464
11393SOL    HW145903   6.327   9.861   9.400  0.2669  0.4876 -1.6478
11393SOL    HW245904   6.388   9.736   9.340  0.4820 -0.9242  1.3536
11394SOL     OW45905  11.475   5.017   1.063 -0.4076  0.5477  0.3168
11394SOL    HW145906  11.498   5.024   0.970 -0.7351  0.9748  0.2679
11394SOL    HW245907  11.501   5.101   1.101  0.3391  0.1347  0.7515
11395SOL     OW45908   8.041   8.453   3.347 -0.0401 -0.3077 -0.8755
11395SOL    HW145909   8.093   8.426   3.423  1.1382  1.8166 -0.8370
11395SOL    HW245910   7.953   8.468   3.382  0.4588  0.5140  0.0701
11396SOL     OW45911   4.175   5.459  10.761 -0.1036 -0.3442 -0.2220
11396SOL    HW145912   4.119   5.414  10.825  1.0431 -1.5497 -0.0191
11396SOL    HW245913   4.228   5.389  10.722  0.8318  0.6744 -0.8462
11397SOL     OW45914  10.240   0.286   3.203 -0.5796  0.2487 -0.2679
11397SOL    HW145915  10.267   0.376   3.221 -1.6900  0.3982  0.7624
11397SOL    HW245916  10.281   0.265   3.118  0.5159  1.3541 -0.0397
11398SOL     OW45917  10.682   5.842   5.632 -0.0935 -0.4005  0.4134
11398SOL    HW145918  10.751   5.790   5.673  0.3632 -1.0347 -1.0941
11398SOL    HW245919  10.714   5.933   5.638  0.1166 -0.5163  1.1435
11399SOL     OW45920   9.328   4.880   5.543 -0.0633 -0.1896 -0.1770
11399SOL    HW145921   9.291   4.792   5.536 -1.1132  0.1987  0.4040
11399SOL    HW245922   9.384   4.876   5.620 -1.4140  0.0981  0.8379
11400SOL     OW45923  11.921   2.134   0.157 -0.2156 -0.0031  0.2107
11400SOL    HW145924  12.004   2.157   0.114 -1.6523 -0.4334 -3.0971
11400SOL    HW245925  11.938   2.048   0.196  1.1746  0.4171  0.6190
11401SOL     OW45926   8.360   0.142   5.298  0.4866  0.4663 -0.3645
11401SOL    HW145927   8.342   0.236   5.288  1.3115  0.6042 -0.6018
11401SOL    HW245928   8.454   0.137   5.312  0.2409 -0.2122  1.2440
11402SOL     OW45929   1.603   0.147   1.572 -0.1396  0.0557  0.3227
11402SOL    HW145930   1.623   0.205   1.499  1.0664 -0.4366  0.2295
11402SOL    HW245931   1.688   0.130   1.613 -0.2421 -2.5824 -0.3708
11403SOL     OW45932   8.974   3.086  10.270  0.3048  0.2739 -0.2749
11403SOL    HW145933   9.049   3.041  10.231  1.0380  1.7545 -0.6571
11403SOL    HW245934   9.002   3.177  10.278 -0.9118  0.5764  1.0083
11404SOL     OW45935   3.487  10.435   0.515  0.1863  0.4829  0.1493
11404SOL    HW145936   3.400  10.434   0.475 -0.1293 -2.8974  0.6635
11404SOL    HW245937   3.542  10.390   0.452  1.1393  0.8127  0.7289
11405SOL     OW45938   0.924   2.111   5.866 -0.1548  0.0392  0.2295
11405SOL    HW145939   0.846   2.155   5.898 -2.8625 -3.7245 -0.5711
11405SOL    HW245940   0.901   2.083   5.778  2.4183 -0.6118 -0.3172
11406SOL     OW45941   0.274   2.290   1.847 -0.8993  0.1270 -0.0579
11406SOL    HW145942   0.302   2.267   1.759  0.6551  1.9800 -0.1205
11406SOL    HW245943   0.206   2.226   1.868  1.6156 -3.1092 -0.9022
11407SOL     OW45944  11.328   7.894   7.682  0.7362 -0.2644  0.5684
11407SOL    HW145945  11.328   7.909   7.588 -0.5364 -0.3368  0.5417
11407SOL    HW245946  11.331   7.982   7.720 -1.4183 -0.0720  0.4249
11408SOL     OW45947   6.830   1.997  11.530 -0.0098  0.4660 -0.5482
11408SOL    HW145948   6.789   2.028  11.611 -1.9632 -1.6225 -0.6368
11408SOL    HW245949   6.836   2.075  11.475  0.5369  1.7549  1.2229
11409SOL     OW45950   2.924   9.160   2.625 -0.0819 -0.5564 -0.1807
11409SOL    HW145951   2.835   9.125   2.629 -0.2580 -0.1334 -0.3789
11409SOL    HW245952   2.955   9.134   2.539  0.5333 -1.9922  0.4299
11410SOL     OW45953   5.060   2.001  10.412 -0.4162  0.6905  0.4057
11410SOL    HW145954   5.150   2.032  10.407 -0.2692  0.2992  0.5319
11410SOL    HW245955   5.009   2.077  10.439 -0.7019  1.9004 -3.1212
11411SOL     OW45956   3.998   5.327  10.924  0.8649 -0.2232  0.1684
11411SOL    HW145957   3.939   5.284  10.986 -0.8214  1.9497  0.1729
11411SOL    HW245958   3.958   5.312  10.838  2.3724 -1.9032 -0.3013
11412SOL     OW45959   1.718   4.259   4.628 -0.0816  0.5346  0.5194
11412SOL    HW145960   1.659   4.327   4.661 -0.2387 -0.0689  1.5225
11412SOL    HW245961   1.805   4.286   4.657 -0.0760  0.5999  0.4398
11413SOL     OW45962   4.832   8.881   0.091  0.1445  0.0301 -0.5701
11413SOL    HW145963   4.742   8.900   0.117  0.9571  1.6775  1.2919
11413SOL    HW245964   4.837   8.907  -0.000 -0.6703  2.2952 -0.0248
11414SOL     OW45965   5.013   0.272  10.529 -0.1646 -0.6204 -0.3397
11414SOL    HW145966   5.105   0.290  10.509  0.6024 -2.0381  1.6319
11414SOL    HW245967   4.968   0.353  10.507  2.0183  1.2094  1.4587
11415SOL     OW45968   3.088   7.468   7.728 -0.2787 -0.8292 -0.0166
11415SOL    HW145969   3.139   7.388   7.744  1.7024  0.3996  0.2425
11415SOL    HW245970   3.115   7.497   7.641 -1.4531 -0.7563 -0.3740
11416SOL     OW45971   2.110   2.611   9.473 -0.1343  0.0905 -0.1559
11416SOL    HW145972   2.191   2.569   9.501  0.5879  1.3748 -0.2429
11416SOL    HW245973   2.057   2.617   9.553  0.6256  0.8902  0.3045
11417SOL     OW45974   7.899   7.365   0.843 -0.5721 -0.1732  0.0808
11417SOL    HW145975   7.907   7.454   0.811 -2.4491  1.1356  2.7946
11417SOL    HW245976   7.806   7.343   0.830 -0.3040 -1.4555  0.1366
11418SOL     OW45977  10.937   7.361   8.674 -0.3976  0.5008 -0.3612
11418SOL    HW145978  10.974   7.321   8.596 -1.5616  1.8479 -1.6751
11418SOL    HW245979  10.902   7.445   8.643  0.4150  1.7741  1.8957
11419SOL     OW45980   1.060   7.778   7.942 -0.6652 -0.6930 -0.1274
11419SOL    HW145981   1.050   7.690   7.978 -0.2337 -0.7795 -0.2141
11419SOL    HW245982   1.148   7.779   7.905 -0.1126  0.2321  1.1262
11420SOL     OW45983   0.734   1.067   7.876  0.7920  0.1291 -0.3003
11420SOL    HW145984   0.796   1.127   7.916 -0.5960  0.1394  1.9984
11420SOL    HW245985   0.739   0.988   7.929  0.1673 -0.5697 -1.2411
11421SOL     OW45986  10.837   4.344   2.751  0.2813  0.3603 -0.1166
11421SOL    HW145987  10.913   4.289   2.771  0.6240  0.7573 -0.3180
11421SOL    HW245988  10.841   4.357   2.657  0.3316  0.9185 -0.0408
11422SOL     OW45989   4.525  10.884   5.997  0.3249  0.5288  0.2176
11422SOL    HW145990   4.591  10.912   6.060  2.3747 -1.5574 -0.8603
11422SOL    HW245991   4.558  10.913   5.912 -0.4350 -0.0149 -0.2859
11423SOL     OW45992   0.207   7.291   9.514 -0.2113 -0.2532 -0.4384
11423SOL    HW145993   0.158   7.241   9.449 -0.1926  0.1548 -0.7698
11423SOL    HW245994   0.224   7.376   9.472 -1.3661  0.5214  0.5728
11424SOL     OW45995   7.915   6.234   2.568  0.1454  0.4628 -0.6132
11424SOL    HW145996   7.923   6.195   2.655 -0.4284  2.6278  0.4521
11424SOL    HW245997   7.930   6.160   2.508  2.3600 -0.7425  1.2697
11425SOL     OW45998   2.791   1.652   9.098 -0.5721  0.4875  0.2830
11425SOL    HW145999   2.846   1.582   9.063 -0.8127  0.1132  0.6303
11425SOL    HW246000   2.714   1.652   9.042 -1.0645 -0.2705  0.9223
11426SOL     OW46001   5.427   7.114   1.841  0.0126  0.0850 -0.1445
11426SOL    HW146002   5.462   7.103   1.930  0.1396 -0.5148 -0.2633
11426SOL    HW246003   5.439   7.028   1.800 -0.5821  0.1928 -0.5529
11427SOL     OW46004   3.933   8.875   7.159 -0.5897  0.1225  0.1818
11427SOL    HW146005   4.017   8.833   7.182  0.6709  1.4015 -1.7861
11427SOL    HW246006   3.876   8.854   7.232  1.3049 -1.2041  1.3985
11428SOL     OW46007   5.924   3.917   3.089  0.0061 -0.0241  0.2232
11428SOL    HW146008   5.890   3.971   3.160 -1.3230  1.3023 -1.3284
11428SOL    HW246009   5.847   3.876   3.050  0.7599 -1.1765 -0.1144
11429SOL     OW46010   1.637   6.587   9.075 -0.5519 -0.0643 -0.0377
11429SOL    HW146011   1.685   6.643   9.014  1.9158 -2.1834 -0.1971
11429SOL    HW246012   1.566   6.551   9.023  0.9807 -1.1312 -1.5135
11430SOL     OW46013   8.440   4.191   0.589 -0.0916  0.3622  0.3995
11430SOL    HW146014   8.363   4.244   0.571 -0.4220 -0.4387 -0.6139
11430SOL    HW246015   8.478   4.173   0.503  0.5014 -0.3267  0.7906
11431SOL     OW46016  11.610  10.377   7.894 -0.0266  0.2051 -0.0306
11431SOL    HW146017  11.577  10.460   7.930 -1.5771 -1.2825  2.1763
11431SOL    HW246018  11.611  10.392   7.799 -2.0939  2.1539  0.1611
11432SOL     OW46019   0.038   1.407   1.123  0.0153 -0.2670 -0.0339
11432SOL    HW146020   0.094   1.353   1.068  0.4827 -0.5428  0.6907
11432SOL    HW246021  -0.049   1.370   1.112  0.6086 -2.5000  1.9441
11433SOL     OW46022   3.690   4.952   7.453  0.1413  0.3088  0.2230
11433SOL    HW146023   3.779   4.949   7.418  0.1986  0.5721  0.3458
11433SOL    HW246024   3.679   4.869   7.499 -0.9889 -1.4966 -2.9705
11434SOL     OW46025   8.490   1.164   3.804 -0.1592  0.4461 -0.3374
11434SOL    HW146026   8.538   1.106   3.864 -1.5339 -0.3408  0.0505
11434SOL    HW246027   8.517   1.136   3.717  0.9561  0.8028 -0.1204
11435SOL     OW46028   3.872   6.175   6.461 -0.3761  0.2222 -0.0528
11435SOL    HW146029   3.962   6.154   6.485 -0.6532  0.6278  1.4566
11435SOL    HW246030   3.870   6.271   6.456 -0.7107  0.2138 -0.1078
11436SOL     OW46031   8.909   5.272   1.706 -0.5883  0.0361  0.4615
11436SOL    HW146032   8.899   5.364   1.681  1.8530  0.0067 -0.9431
11436SOL    HW246033   8.824   5.233   1.688 -1.1333  1.6597 -0.7135
11437SOL     OW46034   9.047   3.295   9.128  0.3480  0.4776  0.3603
11437SOL    HW146035   9.076   3.373   9.081  0.8217 -0.1075 -0.3331
11437SOL    HW246036   8.994   3.247   9.065  0.7384 -0.1686  0.5149
11438SOL     OW46037   5.375   7.151   7.297  0.3599 -0.1676  0.0536
11438SOL    HW146038   5.399   7.236   7.334 -0.4958  0.1778 -0.1569
11438SOL    HW246039   5.280   7.157   7.282  0.5347 -0.6136 -1.3584
11439SOL     OW46040   3.809   8.055   9.191 -0.4717 -0.4882  0.1267
11439SOL    HW146041   3.870   7.999   9.240  0.5890  0.1534 -0.4148
11439SOL    HW246042   3.865   8.124   9.155 -1.5501  0.1588 -0.3308
11440SOL     OW46043   9.970   0.753   4.867  0.0045  0.3116  0.4384
11440SOL    HW146044   9.936   0.812   4.934 -0.8252 -0.0593  0.3557
11440SOL    HW246045   9.892   0.713   4.828  0.4568  0.8005 -1.0161
11441SOL     OW46046   7.261  10.313   6.219 -0.1984  0.0235  0.2937
11441SOL    HW146047   7.232  10.402   6.241  2.4572  0.8782  0.6860
11441SOL    HW246048   7.333  10.296   6.280  1.2282 -1.2584 -1.6277
11442SOL     OW46049   9.235   5.259  10.375  0.3459  0.3438 -0.6047
11442SOL    HW146050   9.228   5.329  10.310 -2.3157 -0.3041 -1.1479
11442SOL    HW246051   9.252   5.180  10.323 -0.1311  0.0777 -0.3632
11443SOL     OW46052   1.565   2.901   5.970 -0.6171 -0.3619  0.2259
11443SOL    HW146053   1.639   2.914   5.910 -0.7159 -0.4800  0.0781
11443SOL    HW246054   1.493   2.873   5.914 -0.6978 -0.5170  0.4070
11444SOL     OW46055   0.058   4.181   8.946  0.0168 -0.0676 -0.4708
11444SOL    HW146056   0.013   4.097   8.946  1.0019 -0.6817 -2.8121
11444SOL    HW246057  -0.006   4.243   8.911 -0.4500  0.0240  0.5123
11445SOL     OW46058   0.420  11.052   6.447 -0.0322 -0.0153  0.1265
11445SOL    HW146059   0.410  11.143   6.473 -1.7555  0.1313 -0.9253
11445SOL    HW246060   0.512  11.044   6.422  0.3252  1.2198  0.9729
11446SOL     OW46061   3.558   3.946   4.447 -0.0347  0.3462  0.1189
11446SOL    HW146062   3.518   3.868   4.487  0.5177 -0.2395 -0.4287
11446SOL    HW246063   3.633   3.966   4.504  0.0053  0.2792  0.0912
11447SOL     OW46064   6.284   5.643  10.992 -0.0593  0.0939 -0.4636
11447SOL    HW146065   6.243   5.559  11.009 -0.5223  0.7438  2.0562
11447SOL    HW246066   6.234   5.680  10.919  1.3622 -2.5221 -2.9362
11448SOL     OW46067   8.237   1.574  11.669  0.0428  0.1877  0.0323
11448SOL    HW146068   8.276   1.658  11.643  1.9497 -0.6704 -0.0457
11448SOL    HW246069   8.291   1.508  11.626 -0.6302 -1.1317  1.1272
11449SOL     OW46070   7.158   2.153   0.572  0.4338  0.6332  0.3127
11449SOL    HW146071   7.187   2.242   0.592 -1.0558  0.6911  2.6776
11449SOL    HW246072   7.210   2.097   0.630  0.3598  0.1042 -0.1225
11450SOL     OW46073   3.885   5.801   3.181 -0.0754  0.4890 -0.0357
11450SOL    HW146074   3.818   5.845   3.130  0.6503 -0.0355 -1.5031
11450SOL    HW246075   3.951   5.868   3.199 -0.9302  0.9917  1.3665
11451SOL     OW46076   3.719   9.648   1.906 -0.3279 -0.3065  0.0590
11451SOL    HW146077   3.794   9.690   1.948 -1.5590  1.0657  0.9680
11451SOL    HW246078   3.652   9.717   1.902 -1.5267 -1.4788 -0.7794
11452SOL     OW46079   8.858   6.900  11.208 -0.9833 -0.0572  0.2524
11452SOL    HW146080   8.771   6.872  11.181  0.1271 -2.1207 -1.4908
11452SOL    HW246081   8.894   6.827  11.257  1.0280 -0.8708 -2.1641
11453SOL     OW46082   8.027   2.343   8.203  0.0872  0.1299  0.0097
11453SOL    HW146083   7.937   2.350   8.235 -0.3134  2.7829 -1.3603
11453SOL    HW246084   8.075   2.408   8.254  0.7585  0.1524 -0.6371
11454SOL     OW46085   4.777   7.128  11.890 -0.1419 -0.0837  0.0194
11454SOL    HW146086   4.834   7.203  11.907  0.6592 -0.7602  0.3953
11454SOL    HW246087   4.791   7.069  11.964 -0.1586 -0.9595 -0.6537
11455SOL     OW46088   7.471   2.966   3.308 -0.1844  0.1300 -0.1582
11455SOL    HW146089   7.564   2.943   3.316  0.4015  2.1740 -0.6630
11455SOL    HW246090   7.463   3.003   3.221 -1.4546  0.1626 -0.0385
11456SOL     OW46091   9.833   4.110   6.968  0.4588  0.2347  0.2493
11456SOL    HW146092   9.760   4.084   6.912 -1.1392  2.9372  0.8801
11456SOL    HW246093   9.883   4.171   6.914  0.4627  0.7616  0.8439
11457SOL     OW46094   4.651   3.768   7.795  0.2658  0.0351  0.3247
11457SOL    HW146095   4.700   3.757   7.877 -2.0426 -0.4640  1.7363
11457SOL    HW246096   4.559   3.761   7.821 -0.5661 -0.0335 -2.3209
11458SOL     OW46097   4.364   5.958   5.170 -0.1586 -0.0294  0.2961
11458SOL    HW146098   4.322   5.873   5.189 -1.2554  0.6998  1.2890
11458SOL    HW246099   4.407   5.944   5.086 -1.8042 -1.0735 -0.4394
11459SOL     OW46100   2.947   0.278   9.982  0.2577  0.3081  0.0887
11459SOL    HW146101   2.854   0.287  10.005 -0.3880 -0.7643 -1.8823
11459SOL    HW246102   2.994   0.305  10.061 -1.7553 -0.5404  1.6738
11460SOL     OW46103   6.931   5.062  11.156 -0.0671  0.3988  0.3547
11460SOL    HW146104   6.899   5.136  11.104 -0.3617  0.8421  1.1369
11460SOL    HW246105   6.865   4.994  11.145  0.4788  0.0310 -0.8142
11461SOL     OW46106   8.125   3.284   4.036  0.2779  0.3083  0.1927
11461SOL    HW146107   8.085   3.204   4.070  0.3861  0.5129  0.8181
11461SOL    HW246108   8.197   3.254   3.981 -1.0626 -0.0873 -1.4147
11462SOL     OW46109  10.631   5.215  11.764 -0.7223  0.4982 -0.2321
11462SOL    HW146110  10.700   5.280  11.773  0.4831 -0.9215  1.2189
11462SOL    HW246111  10.607   5.192  11.853 -0.6600 -1.4954 -0.6862
11463SOL     OW46112   5.520   3.554   0.433  0.5991 -0.8078 -0.4924
11463SOL    HW146113   5.592   3.586   0.378  0.3779 -0.4796 -0.5920
11463SOL    HW246114   5.501   3.627   0.492 -0.0134 -0.6905 -0.8250
11464SOL     OW46115   1.744   0.267   2.917  0.5758 -0.0218 -0.7067
11464SOL    HW146116   1.836   0.292   2.929  0.6249 -1.0209  1.7608
11464SOL    HW246117   1.697   0.350   2.914  1.3627  0.5061  0.4919
11465SOL     OW46118   7.757   4.508   5.020 -0.2726 -0.0852 -0.0528
11465SOL    HW146119   7.820   4.478   4.954  0.8722  1.4279  0.3063
11465SOL    HW246120   7.790   4.473   5.102 -1.2576 -1.2924 -0.1407
11466SOL     OW46121   7.635   5.897   1.766  0.5532 -0.3385  0.5324
11466SOL    HW146122   7.556   5.901   1.821  0.6407 -1.2543  0.7310
11466SOL    HW246123   7.671   5.985   1.771 -0.9759  0.3948 -0.3417
11467SOL     OW46124   1.450   4.452  11.713  0.3524 -0.0156 -0.2132
11467SOL    HW146125   1.508   4.495  11.775 -2.1959  2.3786  0.7020
11467SOL    HW246126   1.493   4.462  11.628  1.5709  1.1068  0.5067
11468SOL     OW46127   7.689   5.791   4.735  0.3863  0.4420  0.2958
11468SOL    HW146128   7.606   5.745   4.751  0.4648  0.2409  0.1287
11468SOL    HW246129   7.699   5.848   4.811 -0.9234  1.9748 -0.6068
11469SOL     OW46130   1.519   8.397   0.116 -0.1449 -0.3488  0.1286
11469SOL    HW146131   1.485   8.338   0.049 -0.4693 -0.6194  0.5308
11469SOL    HW246132   1.539   8.340   0.190 -0.4929  0.0539  0.5315
11470SOL     OW46133   6.382   1.708   5.820  0.3876  0.5522 -0.3889
11470SOL    HW146134   6.344   1.733   5.904  2.8606 -0.2599  1.0891
11470SOL    HW246135   6.312   1.720   5.756 -1.7956  0.5237  1.8865
11471SOL     OW46136   7.590   8.915   8.147  0.5217 -0.4003 -0.2806
11471SOL    HW146137   7.644   8.955   8.216 -0.6875  0.3283  0.2771
11471SOL    HW246138   7.536   8.851   8.192 -0.3077  0.1100 -0.5277
11472SOL     OW46139   3.332   0.811   5.664  0.2649  0.3269 -0.0399
11472SOL    HW146140   3.409   0.859   5.693  0.4326  0.2372 -0.3336
11472SOL    HW246141   3.359   0.719   5.667  0.5236  0.3535 -1.1635
11473SOL     OW46142  11.072   5.352   0.741 -0.3387 -0.0807  0.0051
11473SOL    HW146143  11.091   5.260   0.722 -0.4422 -0.3365  1.0599
11473SOL    HW246144  10.977   5.354   0.755 -0.1001 -0.2726  2.1198
11474SOL     OW46145   7.714   6.693   0.602 -0.1493 -0.1399  0.1401
11474SOL    HW146146   7.735   6.727   0.515 -0.4418  1.5002  0.6626
11474SOL    HW246147   7.619   6.684   0.603 -0.0239 -1.8727 -0.2656
11475SOL     OW46148   6.695   1.147   4.179 -0.3952  0.0228  0.1838
11475SOL    HW146149   6.613   1.103   4.202 -0.8140 -1.2524 -3.1026
11475SOL    HW246150   6.668   1.229   4.139 -0.1042 -0.3534 -0.8159
11476SOL     OW46151   5.591   5.454   6.954 -0.6158 -0.4892 -1.1431
11476SOL    HW146152   5.513   5.509   6.954 -0.3315  0.1320  2.0018
11476SOL    HW246153   5.660   5.511   6.988 -0.4010 -2.6587  2.6367
11477SOL     OW46154   6.349  10.293   7.666 -0.7362  0.5204 -0.0049
11477SOL    HW146155   6.313  10.273   7.752 -0.1361 -1.0577 -0.0847
11477SOL    HW246156   6.358  10.388   7.665 -2.6876  0.7667  0.8734
11478SOL     OW46157   1.455   8.405   5.990  0.1842  0.0471  0.2778
11478SOL    HW146158   1.429   8.392   6.081  0.2298 -1.7704  0.0844
11478SOL    HW246159   1.456   8.316   5.953  1.4283  0.6124 -1.1468
11479SOL     OW46160   6.513   7.566   9.696  0.1755  0.3334  0.0662
11479SOL    HW146161   6.505   7.546   9.790  3.3566 -2.7635 -0.0998
11479SOL    HW246162   6.569   7.644   9.693  0.5124  0.1316  0.7727
11480SOL     OW46163   7.364   0.915  10.812 -0.1008  0.0114  0.1181
11480SOL    HW146164   7.352   0.959  10.897  0.6299 -0.1053  0.2864
11480SOL    HW246165   7.419   0.974  10.762  2.1691 -1.3312  0.8831
11481SOL     OW46166   3.574   2.815   9.703  0.2933  0.0681  0.7123
11481SOL    HW146167   3.658   2.839   9.663 -0.1669  0.1384 -0.2159
11481SOL    HW246168   3.562   2.880   9.772  1.0213  0.0240  0.8986
11482SOL     OW46169   2.204   1.218   6.723  0.2599  0.9292 -0.0235
11482SOL    HW146170   2.288   1.172   6.723 -0.2161  0.0201  0.3701
11482SOL    HW246171   2.205   1.270   6.643  2.1223  2.7174  1.0667
11483SOL     OW46172   0.297   3.684   7.593 -0.0181  0.4124  0.0185
11483SOL    HW146173   0.367   3.695   7.529 -0.6870  0.2685 -0.7584
11483SOL    HW246174   0.267   3.593   7.580  0.2849  0.1626  0.9991
11484SOL     OW46175   2.447   3.768   9.247 -0.1500  0.6497 -0.1634
11484SOL    HW146176   2.424   3.703   9.181 -1.5247  0.1766  0.7268
11484SOL    HW246177   2.362   3.796   9.283  0.5284  1.4135  0.8980
11485SOL     OW46178  11.516   6.958   6.724  0.4171  0.7196  0.2424
11485SOL    HW146179  11.529   7.042   6.680 -2.3573  0.2823 -1.6685
11485SOL    HW246180  11.555   6.894   6.665 -1.5445  0.3268 -0.7396
11486SOL     OW46181   6.201  11.081  11.778 -0.1838 -0.2601  0.5236
11486SOL    HW146182   6.215  11.176  11.779  0.2616 -0.3230  0.9178
11486SOL    HW246183   6.191  11.059  11.685 -2.3257  0.4449  0.5482
11487SOL     OW46184   3.998   1.313   9.589 -0.1143 -0.1169  0.3054
11487SOL    HW146185   3.958   1.276   9.668 -0.0192 -1.3243 -0.1930
11487SOL    HW246186   4.022   1.402   9.614 -1.3961  0.0062  1.1926
11488SOL     OW46187   0.371   6.041   6.880 -0.3146  0.1729 -0.2028
11488SOL    HW146188   0.455   6.067   6.842 -0.4344  0.2999 -0.3840
11488SOL    HW246189   0.333   5.981   6.815  0.2877 -1.0633  0.5462
11489SOL     OW46190   6.801   8.233   8.055  0.9282  0.2493  0.2871
11489SOL    HW146191   6.809   8.169   7.985 -2.2659 -1.1075  0.9590
11489SOL    HW246192   6.860   8.203   8.123  1.2134 -0.6456 -0.3400
11490SOL     OW46193   9.466   5.223   5.668  0.1397  0.3103 -0.4655
11490SOL    HW146194   9.374   5.205   5.653 -0.0234 -0.1743  0.9289
11490SOL    HW246195   9.497   5.147   5.718  0.5640  1.7548  1.6133
11491SOL     OW46196   4.404   0.122   6.166  0.0692  0.0033  0.1214
11491SOL    HW146197   4.484   0.174   6.176 -0.2712  0.4569  0.5585
11491SOL    HW246198   4.409   0.087   6.077  1.0827 -0.5452  0.3774
11492SOL     OW46199  11.655   2.788   9.488 -0.0643 -0.0150 -0.4464
11492SOL    HW146200  11.585   2.850   9.465 -0.0624 -0.2748 -1.1605
11492SOL    HW246201  11.736   2.836   9.469 -0.0605 -0.6338 -2.1377
11493SOL     OW46202   4.807  10.089   8.753 -0.4414  0.9879 -0.2293
11493SOL    HW146203   4.862  10.015   8.727 -2.1589  0.3442 -2.3413
11493SOL    HW246204   4.722  10.050   8.774 -0.8444  2.1951  0.4973
11494SOL     OW46205   1.101  10.119  10.377  0.1533  0.2220  0.1272
11494SOL    HW146206   1.168  10.059  10.412  0.8530  0.9650  0.0767
11494SOL    HW246207   1.141  10.155  10.298 -0.2225  0.8420  0.2200
11495SOL     OW46208   0.315   3.086   9.731  0.3002  0.7297 -1.0595
11495SOL    HW146209   0.287   3.107   9.820  2.4633  1.2802 -0.4694
11495SOL    HW246210   0.359   3.001   9.739 -2.1521 -0.7728 -2.2079
11496SOL     OW46211   6.221   0.151   5.988  0.0812  0.6718 -0.1287
11496SOL    HW146212   6.165   0.075   5.969 -1.0287  2.0403 -2.8818
11496SOL    HW246213   6.165   0.212   6.035  0.1287  0.8772 -0.3349
11497SOL     OW46214   9.362   5.870   3.718 -0.5952 -0.1665 -0.0090
11497SOL    HW146215   9.347   5.809   3.645 -0.1592  2.0077 -2.0438
11497SOL    HW246216   9.287   5.858   3.776 -0.4178 -2.7333 -0.2028
11498SOL     OW46217   0.627   8.943   6.590 -0.1577  0.0650 -0.2154
11498SOL    HW146218   0.713   8.984   6.588 -0.7097  1.3291  0.9147
11498SOL    HW246219   0.581   8.984   6.663 -1.0067 -2.0776  0.5422
11499SOL     OW46220   2.771   7.811   4.706  0.2302  0.3829  0.6017
11499SOL    HW146221   2.754   7.806   4.800  1.2134  1.2711  0.8565
11499SOL    HW246222   2.704   7.871   4.673 -0.6820 -0.6398  0.5668
11500SOL     OW46223   1.605   4.800   6.722  0.4532 -0.1753  0.1045
11500SOL    HW146224   1.620   4.891   6.747 -0.2537  0.1689 -0.6744
11500SOL    HW246225   1.692   4.766   6.703  0.6012  0.7812 -1.0354
11501SOL     OW46226   7.684   9.462   2.687 -0.3168 -0.6042 -0.2466
11501SOL    HW146227   7.740   9.432   2.615 -0.9894 -0.4794 -0.8354
11501SOL    HW246228   7.689   9.392   2.752  2.2252  0.3307  0.7027
11502SOL     OW46229   6.571   1.734   9.632  0.8014  0.0708 -0.3455
11502SOL    HW146230   6.605   1.749   9.544 -2.2100 -0.4655 -1.7086
11502SOL    HW246231   6.536   1.819   9.659 -0.3030 -0.2685 -0.6512
11503SOL     OW46232   7.884   9.114  11.014  0.0243  0.4226 -0.0295
11503SOL    HW146233   7.900   9.146  11.102  1.1814 -0.5209  0.1277
11503SOL    HW246234   7.898   9.190  10.958  0.2278  0.8000  0.5252
11504SOL     OW46235   9.230   6.799   0.029 -0.5253  0.5755  0.2229
11504SOL    HW146236   9.162   6.786   0.095  0.7516  0.4105  1.5418
11504SOL    HW246237   9.296   6.733   0.049 -0.3172  0.2017 -1.5336
11505SOL     OW46238   7.198   6.579  10.578  0.2383  0.3925 -0.1064
11505SOL    HW146239   7.112   6.614  10.558  0.0933  0.0406 -0.0999
11505SOL    HW246240   7.199   6.492  10.538 -0.0504 -0.3170  1.3652
11506SOL     OW46241   1.378   8.472   7.039  0.9863  0.6860 -0.1504
11506SOL    HW146242   1.456   8.525   7.056  0.7961  0.4783  1.5432
11506SOL    HW246243   1.346   8.448   7.125 -0.3623 -0.1264 -0.8390
11507SOL     OW46244  10.498   8.453  10.919  0.3758 -0.1551 -0.6339
11507SOL    HW146245  10.480   8.542  10.949 -0.2989 -0.8365  1.0748
11507SOL    HW246246  10.588   8.457  10.886  0.9838  0.7619  1.0311
11508SOL     OW46247   4.026   9.641   1.161  0.4239  0.1810 -0.2660
11508SOL    HW146248   4.029   9.556   1.205  0.5978 -0.9634 -2.3595
11508SOL    HW246249   3.955   9.632   1.098 -0.1712  1.9575  0.1028
11509SOL     OW46250   6.114  10.097   1.207 -0.0703 -0.3676  0.6946
11509SOL    HW146251   6.192  10.041   1.200 -0.2828 -0.4541 -1.7801
11509SOL    HW246252   6.041  10.039   1.186 -0.4364  0.4797 -0.4667
11510SOL     OW46253   0.205  11.619   7.618  0.2436 -0.2239 -0.3457
11510SOL    HW146254   0.187  11.604   7.525 -0.0106 -0.3958 -0.2680
11510SOL    HW246255   0.119  11.627   7.659  0.3470  0.9785 -0.3044
11511SOL     OW46256  11.248   5.695  10.092 -0.4489 -0.2981  0.4158
11511SOL    HW146257  11.256   5.789  10.106  1.0820 -0.4877  0.9762
11511SOL    HW246258  11.169   5.670  10.138 -0.7615  0.6806  0.4292
11512SOL     OW46259   5.837   0.139  10.447  0.0620 -0.3945 -0.2214
11512SOL    HW146260   5.775   0.207  10.475 -0.6521 -1.3421  0.6100
11512SOL    HW246261   5.806   0.060  10.492 -0.5465 -1.8311 -2.9397
11513SOL     OW46262  10.933   4.523   3.434  0.0839 -0.0712  0.2090
11513SOL    HW146263  10.995   4.511   3.506  0.8389  1.6002 -0.1080
11513SOL    HW246264  10.978   4.489   3.357 -0.7809 -1.9945  0.4965
11514SOL     OW46265   6.290   5.982   4.180 -0.1055  0.3424  0.0989
11514SOL    HW146266   6.290   5.964   4.086 -0.8865 -0.9179  0.3331
11514SOL    HW246267   6.202   5.960   4.209  0.9222 -2.0635  1.6355
11515SOL     OW46268   2.452   7.775   1.745 -0.2405  0.0708  0.1901
11515SOL    HW146269   2.531   7.730   1.715  0.2325  0.0643  1.3873
11515SOL    HW246270   2.472   7.868   1.733 -1.4036  0.0178 -2.7390
11516SOL     OW46271   2.682   8.922   0.935 -0.1595 -0.5623  0.0820
11516SOL    HW146272   2.695   8.954   0.846 -1.8587 -2.8843 -1.0779
11516SOL    HW246273   2.768   8.888   0.961  0.3139  0.0156 -0.6954
11517SOL     OW46274   4.184   7.396   1.974  0.3392  0.1959 -0.1110
11517SOL    HW146275   4.167   7.424   2.064  1.2626 -1.4682  0.6178
11517SOL    HW246276   4.215   7.476   1.930 -1.0498  1.2524  0.7460
11518SOL     OW46277   1.936   2.616   2.092  0.1179 -0.3144  0.1095
11518SOL    HW146278   1.991   2.554   2.141 -0.5776 -0.6561  0.4643
11518SOL    HW246279   1.890   2.665   2.160 -0.2871 -0.2763 -0.1905
11519SOL     OW46280   6.997   6.850   2.099  0.1295 -0.1154  0.6751
11519SOL    HW146281   7.076   6.812   2.137  1.1040  1.2778  0.1092
11519SOL    HW246282   6.959   6.779   2.046  1.8264 -0.3698 -0.2643
11520SOL     OW46283   7.454   8.170   6.878 -0.1344 -0.6311 -0.0061
11520SOL    HW146284   7.501   8.236   6.827  0.9829 -0.8293  0.7560
11520SOL    HW246285   7.369   8.162   6.833  0.5426 -0.2917 -1.4068
11521SOL     OW46286  11.096  11.368   1.826 -0.0751  0.1893 -0.6866
11521SOL    HW146287  11.112  11.441   1.886 -1.2557  0.0561 -0.1761
11521SOL    HW246288  11.183  11.329   1.811  0.3842  0.8909  0.0755
11522SOL     OW46289   9.138   3.500   1.507 -0.1983 -0.6199 -0.1854
11522SOL    HW146290   9.109   3.416   1.543  1.0150 -1.0752 -0.2313
11522SOL    HW246291   9.202   3.477   1.441  2.0338  0.3777  1.5067
11523SOL     OW46292   8.310   5.002   3.273  0.1409  0.0440  0.2895
11523SOL    HW146293   8.302   5.090   3.310 -0.0311  0.0825  0.1619
11523SOL    HW246294   8.256   4.947   3.329 -0.8259  0.2584 -0.4200
11524SOL     OW46295   9.877   4.984   3.422 -0.3639 -0.0290 -0.2164
11524SOL    HW146296   9.794   5.027   3.442  0.0868  1.2222 -0.9008
11524SOL    HW246297   9.854   4.912   3.363 -0.9714  0.2575 -0.3299
11525SOL     OW46298   3.488   9.456   5.960  0.1652  0.7421  0.1721
11525SOL    HW146299   3.569   9.432   6.005 -0.4438  1.5472  1.7752
11525SOL    HW246300   3.516   9.474   5.870  1.5852  0.0026  0.4286
11526SOL     OW46301   5.272  11.808   6.055 -0.4744 -0.3525 -0.1041
11526SOL    HW146302   5.260  11.760   5.974 -1.8595  0.5134 -0.4389
11526SOL    HW246303   5.353  11.858   6.041 -0.4126 -0.6178 -0.7348
11527SOL     OW46304   1.967   4.452   6.208  1.1607  0.4166 -0.3107
11527SOL    HW146305   1.979   4.445   6.302 -0.1548 -0.0382 -0.1617
11527SOL    HW246306   2.008   4.535   6.184  1.1756  0.7091  0.7145
11528SOL     OW46307   8.220  11.480   2.320  0.3341  0.0797  0.5584
11528SOL    HW146308   8.248  11.433   2.399 -0.0761 -0.4995  0.3674
11528SOL    HW246309   8.255  11.429   2.248  1.4363  1.0831  0.3684
11529SOL     OW46310  11.625   9.606   7.500  0.5357  0.3762  0.5014
11529SOL    HW146311  11.605   9.628   7.591  2.0267 -0.4105  1.0555
11529SOL    HW246312  11.548   9.559   7.469  0.7728 -1.0681  1.9802
11530SOL     OW46313   0.074   3.998   2.839  0.5286  0.1216 -0.5687
11530SOL    HW146314   0.050   4.013   2.747 -1.0136 -0.6321 -0.3185
11530SOL    HW246315   0.116   3.912   2.839  0.6248  0.1685 -0.5794
11531SOL     OW46316   3.513   9.297   0.861 -0.2051  0.1961  0.7479
11531SOL    HW146317   3.474   9.226   0.913  0.4943 -0.0515  0.9416
11531SOL    HW246318   3.460   9.300   0.781  0.5207 -1.3894  0.1736
11532SOL     OW46319   8.254   0.687   3.259  0.2117  0.1566 -0.3561
11532SOL    HW146320   8.237   0.778   3.236  0.0099 -0.0337 -1.0101
11532SOL    HW246321   8.169   0.644   3.250  0.0340  0.1384  1.1784
11533SOL     OW46322   7.172   8.723   1.752  0.7275  0.1253 -0.0967
11533SOL    HW146323   7.157   8.752   1.662  2.6166 -2.0342 -1.2072
11533SOL    HW246324   7.100   8.662   1.770  0.4621  0.4038 -0.1978
11534SOL     OW46325   9.454   0.587   3.371  0.2000 -0.1696  0.3363
11534SOL    HW146326   9.508   0.579   3.292 -1.2069 -0.0532 -0.6666
11534SOL    HW246327   9.482   0.670   3.410 -0.6059  0.9092 -1.2653
11535SOL     OW46328   8.339   9.106  11.683 -0.2931 -0.4831  0.1973
11535SOL    HW146329   8.321   9.141  11.596  0.7948 -0.0614  0.1281
11535SOL    HW246330   8.346   9.183  11.739  1.2581 -0.5880  0.2081
11536SOL     OW46331   3.014   1.388   6.626  0.0222 -0.2412 -0.4463
11536SOL    HW146332   2.933   1.338   6.638  0.2561 -0.4420  0.3270
11536SOL    HW246333   3.015   1.450   6.698  0.6043 -0.3087 -0.3907
11537SOL     OW46334   6.249   9.598   0.295 -0.1380  0.0268  0.1653
11537SOL    HW146335   6.264   9.556   0.210 -0.3390  1.8382 -0.8089
11537SOL    HW246336   6.316   9.666   0.301 -0.6175  0.4327  1.1011
11538SOL     OW46337   1.638   3.284   6.116  0.0742  0.3562 -0.5338
11538SOL    HW146338   1.559   3.267   6.063  0.2507  0.2321 -0.7597
11538SOL    HW246339   1.710   3.270   6.055  0.3892 -2.0586  0.2975
11539SOL     OW46340  10.839   0.084  11.895  0.0307  0.0213  0.1086
11539SOL    HW146341  10.859   0.103  11.987 -2.1407 -0.8496  0.8304
11539SOL    HW246342  10.822   0.169  11.856  2.3373  0.5443  0.0911
11540SOL     OW46343   8.881   6.776   7.760 -0.2907  0.7310 -0.0406
11540SOL    HW146344   8.864   6.790   7.667  0.4155  0.9787 -0.1446
11540SOL    HW246345   8.977   6.779   7.767 -0.2805 -0.3592  0.5254
11541SOL     OW46346   5.474  11.659   7.321 -0.6566 -0.2832 -0.2701
11541SOL    HW146347   5.483  11.595   7.250 -3.3871 -0.3558 -0.6972
11541SOL    HW246348   5.413  11.724   7.286  0.8290  1.7354  0.7260
11542SOL     OW46349   4.036   2.957   6.619 -0.1964 -0.1362  0.4514
11542SOL    HW146350   4.130   2.960   6.637 -0.3573  0.2883  1.2744
11542SOL    HW246351   3.999   3.026   6.675 -0.5794  2.3168 -2.5436
11543SOL     OW46352   9.798   8.845   2.040 -0.3211  0.2548 -0.1013
11543SOL    HW146353   9.796   8.765   1.987  1.8288 -0.6038  0.9807
11543SOL    HW246354   9.766   8.817   2.126 -0.6812  0.8320 -0.0500
11544SOL     OW46355   6.862   8.797   6.269 -0.2029 -0.1916 -0.2359
11544SOL    HW146356   6.867   8.881   6.222 -0.9007 -0.2738 -0.4693
11544SOL    HW246357   6.855   8.821   6.361  0.9512 -0.0234 -0.1715
11545SOL     OW46358   4.015   3.698  11.916 -0.1681 -0.3357 -0.1691
11545SOL    HW146359   4.035   3.612  11.955 -0.6447  0.9571  3.3280
11545SOL    HW246360   3.971   3.746  11.986  2.0596  3.5754 -1.1357
11546SOL     OW46361   5.134   7.374   1.242 -0.2928  0.1395 -0.2233
11546SOL    HW146362   5.187   7.295   1.229 -0.1615  0.5609 -2.7924
11546SOL    HW246363   5.150   7.399   1.333  1.5766 -1.4253 -0.0595
11547SOL     OW46364   6.202  10.754   5.634  0.3917 -0.0213 -0.3548
11547SOL    HW146365   6.264  10.687   5.604 -0.0138  0.0736 -1.4534
11547SOL    HW246366   6.117  10.724   5.603  0.1770  0.8991 -0.6916
11548SOL     OW46367   4.916   8.944   1.838  0.3242 -0.1656  0.1910
11548SOL    HW146368   4.892   9.036   1.828 -0.9588 -0.3703  1.1227
11548SOL    HW246369   4.842   8.896   1.802  0.8225 -0.8376  0.0495
11549SOL     OW46370   4.974   8.656   3.475  0.1703 -0.0524  0.0424
11549SOL    HW146371   5.053   8.706   3.455  1.0876 -0.6489  1.9875
11549SOL    HW246372   5.007   8.573   3.511 -1.3460 -0.8706 -0.3808
11550SOL     OW46373   9.156  11.129   7.301 -0.8964 -0.6745  0.4138
11550SOL    HW146374   9.232  11.089   7.343 -0.1079  1.2964  0.9776
11550SOL    HW246375   9.132  11.201   7.359 -1.6848  0.2422 -0.9893
11551SOL     OW46376   9.786  11.346   9.141  0.2086 -0.8189  0.7072
11551SOL    HW146377   9.865  11.301   9.170 -0.4476 -1.5466  1.3984
11551SOL    HW246378   9.777  11.323   9.048  0.3753 -1.3759  0.8289
11552SOL     OW46379   6.823   6.563   1.342  0.5296 -0.4626 -0.6621
11552SOL    HW146380   6.895   6.587   1.284  1.4982 -2.6660 -0.4646
11552SOL    HW246381   6.806   6.642   1.393  2.1759  0.3894 -1.3698
11553SOL     OW46382   6.622   9.321  10.855 -0.6491  0.1234  0.6877
11553SOL    HW146383   6.654   9.410  10.868 -0.6456 -0.0610  1.9869
11553SOL    HW246384   6.550   9.332  10.792 -0.9786  1.1198  1.2028
11554SOL     OW46385   8.061   2.140  10.071 -0.6897 -0.3993  0.0697
11554SOL    HW146386   8.082   2.099  10.155  2.7738  0.2824 -0.3136
11554SOL    HW246387   8.109   2.223  10.073 -0.0587 -0.6013 -2.7601
11555SOL     OW46388   8.210  11.527  10.025 -0.4804 -0.1605 -0.1416
11555SOL    HW146389   8.213  11.547  10.118  0.7300  0.4252 -0.2944
11555SOL    HW246390   8.133  11.470  10.015  0.1450 -1.3416  1.4127
11556SOL     OW46391   4.540   4.446   4.923  0.6701 -0.2157 -0.2756
11556SOL    HW146392   4.535   4.527   4.973  0.5465 -1.1104  1.2089
11556SOL    HW246393   4.504   4.469   4.837 -0.7775  0.9298  0.5840
11557SOL     OW46394   9.937   5.434   6.612  0.2512  0.3635 -0.4008
11557SOL    HW146395   9.869   5.481   6.659 -0.1949 -0.2094 -0.4750
11557SOL    HW246396   9.903   5.346   6.599  0.3617  0.4895 -1.7768
11558SOL     OW46397   1.616   5.758   9.972 -0.7275 -0.5175 -0.5157
11558SOL    HW146398   1.531   5.771  10.015 -2.0356 -2.8943 -2.1210
11558SOL    HW246399   1.654   5.683  10.018 -0.8250 -1.2282 -1.5513
11559SOL     OW46400  11.791   2.631   5.376  0.1066  0.0872  0.0427
11559SOL    HW146401  11.872   2.644   5.426 -0.8708  0.4231  1.6003
11559SOL    HW246402  11.741   2.567   5.427 -0.9980  0.5626 -0.4131
11560SOL     OW46403   4.031   7.644   8.852  0.0339  0.0173  0.7403
11560SOL    HW146404   3.947   7.598   8.842 -0.4384  0.8579  0.7719
11560SOL    HW246405   4.064   7.613   8.937 -0.0824 -0.5650  0.5825
11561SOL     OW46406   1.671   0.059  10.154  0.3243 -0.1115  0.4687
11561SOL    HW146407   1.658   0.127  10.087 -0.5584 -0.1356  0.5969
11561SOL    HW246408   1.585   0.017  10.161  0.3064  0.1215  1.8701
11562SOL     OW46409   1.863   5.138   3.047  0.8517 -0.3404  0.0871
11562SOL    HW146410   1.813   5.218   3.062  2.1370  0.5340 -0.0686
11562SOL    HW246411   1.954   5.166   3.052  1.3551 -1.9923  1.0198
11563SOL     OW46412   0.441   1.753   2.837 -0.4556  0.0823 -0.0748
11563SOL    HW146413   0.448   1.773   2.744 -0.3080  0.5601  0.0386
11563SOL    HW246414   0.531   1.760   2.869 -0.3962 -0.7434 -0.0261
11564SOL     OW46415   1.500   4.587   1.570 -0.4182  0.1816 -0.3913
11564SOL    HW146416   1.560   4.595   1.644  0.2953 -0.4231 -0.8853
11564SOL    HW246417   1.471   4.496   1.572  1.1899 -0.4421 -1.9962
11565SOL     OW46418   1.323   3.128   0.090  0.0643  0.6994 -0.0523
11565SOL    HW146419   1.318   3.177   0.173 -0.7879  1.7967 -0.7247
11565SOL    HW246420   1.254   3.167   0.036  0.0348 -0.5991 -0.9732
11566SOL     OW46421   0.676   4.569   0.089 -0.3523 -0.2334 -0.5444
11566SOL    HW146422   0.714   4.636   0.032 -0.8015 -0.1789 -0.7878
11566SOL    HW246423   0.751   4.529   0.133  0.1433 -1.1584 -2.1289
11567SOL     OW46424   6.193   3.275   1.388  0.1224 -0.4986  0.0496
11567SOL    HW146425   6.148   3.352   1.421  0.3808 -0.7670  1.0596
11567SOL    HW246426   6.153   3.259   1.302 -1.6140 -0.6432  0.8307
11568SOL     OW46427   1.162   8.082  11.936 -0.2351  0.3429 -0.1429
11568SOL    HW146428   1.102   8.011  11.961  1.6720 -1.4217 -0.3577
11568SOL    HW246429   1.217   8.095  12.013 -0.3483  1.3737 -0.2272
11569SOL     OW46430   9.494   1.809   0.034 -0.6834 -0.5715  0.1437
11569SOL    HW146431   9.454   1.723   0.024  0.3253 -1.1261  0.7712
11569SOL    HW246432   9.487   1.828   0.127  1.9673 -1.4452  0.5992
11570SOL     OW46433   9.017   0.442  10.976  0.0541 -0.3906  0.2041
11570SOL    HW146434   9.060   0.522  11.009  0.1092 -0.6531  0.7928
11570SOL    HW246435   9.087   0.376  10.977 -0.5623 -1.1019  2.1865
11571SOL     OW46436   2.062   2.636   5.201 -0.3457  0.0878 -0.1658
11571SOL    HW146437   2.030   2.557   5.157  1.1738 -2.0511  2.3048
11571SOL    HW246438   2.156   2.624   5.207 -0.2031  1.6112  1.2247
11572SOL     OW46439   7.308   7.962   7.803  0.2857 -0.2147  0.2104
11572SOL    HW146440   7.377   7.932   7.862 -1.5150 -2.6001  1.2858
11572SOL    HW246441   7.234   7.983   7.861 -1.9197 -3.6352 -1.0180
11573SOL     OW46442   9.612   3.656   2.544  0.0919  0.3864 -0.0603
11573SOL    HW146443   9.686   3.686   2.491  0.8023  0.5589  0.9911
11573SOL    HW246444   9.612   3.713   2.621 -3.9220  3.4825 -1.9991
11574SOL     OW46445   4.009   8.363  10.650 -0.0793 -0.1843  0.0612
11574SOL    HW146446   3.994   8.327  10.563 -1.5489 -0.9711  0.6167
11574SOL    HW246447   4.018   8.457  10.635  1.6171 -0.4734 -1.1371
11575SOL     OW46448   7.849   5.421   4.209  0.7778  0.0988 -0.9016
11575SOL    HW146449   7.866   5.333   4.243 -0.6542 -0.3517 -1.2725
11575SOL    HW246450   7.759   5.416   4.176  0.5825  1.7822 -0.6856
11576SOL     OW46451   7.385  11.088   4.760 -0.0458  0.4851 -0.1869
11576SOL    HW146452   7.352  11.024   4.823  0.9065 -0.6526 -0.7984
11576SOL    HW246453   7.319  11.089   4.691  0.9620 -1.5909 -1.2813
11577SOL     OW46454   2.181   1.220  10.973  0.0203 -0.6343 -0.8918
11577SOL    HW146455   2.193   1.308  10.938 -0.8410  0.0033  0.3626
11577SOL    HW246456   2.270   1.185  10.982  0.4900  0.7639  0.2107
11578SOL     OW46457   7.723   9.823   8.162 -0.1135  0.1496  0.4467
11578SOL    HW146458   7.635   9.860   8.155 -0.5525 -0.6255  1.5559
11578SOL    HW246459   7.768   9.880   8.224  0.9942  1.9556 -1.8364
11579SOL     OW46460   8.082  11.928   3.004  0.1842 -0.4155  0.0942
11579SOL    HW146461   8.031  11.945   3.083  0.2015 -1.4358  0.3325
11579SOL    HW246462   8.172  11.919   3.035  0.4772  0.9948 -0.2774
11580SOL     OW46463   4.846   7.280   0.250  0.1262  0.3483 -0.1308
11580SOL    HW146464   4.862   7.318   0.337  0.1313  0.7811 -0.3141
11580SOL    HW246465   4.781   7.212   0.264  0.1208  0.4250  0.2111
11581SOL     OW46466   6.237   7.614  11.821 -1.0278 -0.7186  0.5214
11581SOL    HW146467   6.232   7.519  11.806  0.8251 -0.8461  0.4499
11581SOL    HW246468   6.216   7.653  11.736 -0.7472 -1.1098  0.2669
11582SOL     OW46469   7.041  10.773   6.070 -0.0989 -0.4491  0.2509
11582SOL    HW146470   6.980  10.703   6.093 -0.6709 -0.1193 -0.2352
11582SOL    HW246471   7.023  10.793   5.979  0.3614  0.0337  0.2562
11583SOL     OW46472   0.911   4.346   5.181  0.3117  0.2556 -0.2480
11583SOL    HW146473   0.903   4.336   5.086 -0.2926  1.1498 -0.3065
11583SOL    HW246474   0.820   4.350   5.212  0.5077  0.1965  0.3415
11584SOL     OW46475   2.656   1.969   4.567 -0.0888  0.1169  0.1864
11584SOL    HW146476   2.615   1.905   4.509 -2.3312 -0.3679  2.1771
11584SOL    HW246477   2.735   1.924   4.599  0.3354 -0.1938 -1.2262
11585SOL     OW46478   3.723   7.058   5.852  0.0186  0.0278 -0.2358
11585SOL    HW146479   3.705   6.968   5.878  0.6403 -0.3565 -1.0882
11585SOL    HW246480   3.816   7.069   5.870 -0.4637  1.2284  1.9202
11586SOL     OW46481  11.813   0.017   4.035  0.5223 -0.2138  0.1802
11586SOL    HW146482  11.886   0.025   4.096  0.8480 -2.2825  0.1299
11586SOL    HW246483  11.839  -0.053   3.976 -1.1619 -0.4393 -0.3395
11587SOL     OW46484   8.616   9.102   3.485 -0.1716 -0.0513 -0.5074
11587SOL    HW146485   8.671   9.025   3.469  0.4186  0.4511 -0.9493
11587SOL    HW246486   8.531   9.066   3.510  0.4578 -0.8533  0.5960
11588SOL     OW46487  10.269   9.719  10.989 -0.4634 -0.0278 -0.2328
11588SOL    HW146488  10.327   9.733  11.064 -0.5301 -0.7967 -0.0271
11588SOL    HW246489  10.300   9.637  10.950 -2.1642 -1.1106  0.5928
11589SOL     OW46490   2.776   7.618   8.060 -0.1268  0.0816 -0.6036
11589SOL    HW146491   2.777   7.605   8.154  0.5250  1.0757 -0.4575
11589SOL    HW246492   2.856   7.577   8.028  0.1339  0.5777 -0.5961
11590SOL     OW46493   1.304   5.561   8.741  0.2779 -0.4061 -0.0540
11590SOL    HW146494   1.273   5.524   8.658 -0.4960 -1.7678  0.7979
11590SOL    HW246495   1.399   5.555   8.737  0.2800  0.1427 -1.0969
11591SOL     OW46496   6.881  11.035   1.260  0.2396  0.0929  0.3765
11591SOL    HW146497   6.853  11.024   1.351  1.8745 -0.2188  0.8816
11591SOL    HW246498   6.900  10.946   1.230 -0.8172  0.1365 -0.4649
11592SOL     OW46499   5.761  11.588   0.134  0.2589 -0.8642 -0.2627
11592SOL    HW146500   5.828  11.570   0.199 -0.2403  0.1870  0.5571
11592SOL    HW246501   5.683  11.542   0.166 -0.2034  0.2896  0.3073
11593SOL     OW46502   1.945   2.484   9.324 -0.3769  0.3379  1.3077
11593SOL    HW146503   2.001   2.435   9.265  1.5173  2.2341  1.4284
11593SOL    HW246504   2.004   2.540   9.374 -2.2227  1.2256  2.6618
11594SOL     OW46505   2.380   7.373   0.367  0.7999 -0.2385 -0.1157
11594SOL    HW146506   2.313   7.427   0.409  0.8549  0.4722 -0.9100
11594SOL    HW246507   2.424   7.328   0.439 -0.0728 -0.1848  0.4663
11595SOL     OW46508   2.463   7.459  11.456  0.3577 -0.2341 -0.2678
11595SOL    HW146509   2.524   7.530  11.434  0.5669 -0.5711 -0.7802
11595SOL    HW246510   2.390   7.471  11.395 -0.5286  0.7027  0.9173
11596SOL     OW46511   8.224   1.531  10.027  0.5932  0.0987 -0.1245
11596SOL    HW146512   8.294   1.470  10.005  1.9245  1.0809  1.1931
11596SOL    HW246513   8.220   1.592   9.954  0.8049 -0.2249 -0.4068
11597SOL     OW46514   5.471   3.675   3.776  0.3806 -1.0312 -0.2656
11597SOL    HW146515   5.530   3.616   3.822  0.1631 -1.1796 -0.1729
11597SOL    HW246516   5.444   3.625   3.698 -1.3538 -1.8664  0.8000
11598SOL     OW46517  10.923   2.623   8.342 -0.5048  0.9551  0.2588
11598SOL    HW146518  10.948   2.549   8.397 -1.4909  0.0855 -0.4377
11598SOL    HW246519  11.002   2.643   8.292 -0.0172  0.8549  0.9717
11599SOL     OW46520   9.468   5.464  11.205 -0.4246  0.2386 -0.2772
11599SOL    HW146521   9.442   5.556  11.194 -0.0384  0.1339 -2.5572
11599SOL    HW246522   9.389   5.414  11.185 -0.2288  0.0545 -0.6063
11600SOL     OW46523  10.053  11.071   7.283 -0.1554  0.4635 -0.8596
11600SOL    HW146524  10.013  10.987   7.261  0.5888  0.1405 -1.0275
11600SOL    HW246525   9.985  11.135   7.265 -0.7949 -0.1153 -0.5659
11601SOL     OW46526  11.881  11.174   8.888  0.0590 -0.0372  0.8719
11601SOL    HW146527  11.881  11.265   8.916 -2.4213 -0.3478  2.0889
11601SOL    HW246528  11.880  11.179   8.792 -1.1787  1.2650  0.9167
11602SOL     OW46529   8.894   3.532   5.074 -0.6706  0.1136  0.1131
11602SOL    HW146530   8.847   3.456   5.040 -1.7119  1.0428 -0.6335
11602SOL    HW246531   8.843   3.559   5.150 -0.6434  0.3898  0.0348
11603SOL     OW46532   2.743   1.132   9.719  0.1484  0.2461 -0.5046
11603SOL    HW146533   2.775   1.084   9.795 -2.0940  0.1462  0.4300
11603SOL    HW246534   2.737   1.222   9.748  0.1753  0.3665 -0.8665
11604SOL     OW46535   5.237   6.968   4.190  0.3617  0.0414 -0.8048
11604SOL    HW146536   5.215   6.888   4.142  0.9557  0.1742 -1.3029
11604SOL    HW246537   5.259   7.031   4.122 -1.5997  1.1102 -0.5164
11605SOL     OW46538   1.123   0.220   9.658 -0.3307  0.2550 -0.2919
11605SOL    HW146539   1.074   0.208   9.576  2.1040 -0.1766 -1.8235
11605SOL    HW246540   1.173   0.301   9.645 -1.1559  1.0961  1.5061
11606SOL     OW46541   3.455   9.565   0.811 -0.2810 -0.4254  0.1197
11606SOL    HW146542   3.493   9.494   0.863 -1.4803  0.0705  1.7336
11606SOL    HW246543   3.412   9.622   0.875  1.1868  2.1623 -1.0466
11607SOL     OW46544   8.996   5.851   1.606 -0.0520  0.0295  0.2725
11607SOL    HW146545   8.946   5.887   1.680 -0.7564  0.5257 -0.4253
11607SOL    HW246546   9.023   5.764   1.635 -2.9236 -1.0526  0.0134
11608SOL     OW46547   6.676   0.734   8.136 -0.1340 -0.2696 -0.3179
11608SOL    HW146548   6.639   0.818   8.162 -2.4943 -1.1947 -0.4144
11608SOL    HW246549   6.744   0.716   8.200  0.0854  1.4748 -0.0253
11609SOL     OW46550  10.982   5.490   1.231 -0.5752 -0.0599 -0.3666
11609SOL    HW146551  10.935   5.570   1.207  1.1964  1.0900 -0.2216
11609SOL    HW246552  11.040   5.473   1.157  0.6834  0.1285  0.5353
11610SOL     OW46553   2.362   1.169   0.213  0.2931 -0.1465 -0.1760
11610SOL    HW146554   2.307   1.239   0.178 -1.7668 -0.9160  1.2430
11610SOL    HW246555   2.311   1.134   0.287  2.0319 -1.9703  0.2577
11611SOL     OW46556  11.851   0.629  10.901 -0.3068 -0.3515  0.2259
11611SOL    HW146557  11.933   0.582  10.889 -0.1922 -0.1455  0.1916
11611SOL    HW246558  11.864   0.711  10.854 -0.0680  0.2183  1.2562
11612SOL     OW46559   5.352   8.880   4.696  0.0400 -0.1068 -0.0446
11612SOL    HW146560   5.282   8.835   4.648 -0.6109  1.7752 -0.9264
11612SOL    HW246561   5.386   8.813   4.757 -1.9994 -1.2775 -0.1158
11613SOL     OW46562   3.898   9.892   0.906 -0.4238 -0.4166  0.7801
11613SOL    HW146563   3.928   9.931   0.824 -1.0014 -0.3882  0.5779
11613SOL    HW246564   3.948   9.938   0.974  1.1937 -1.5027  0.3772
11614SOL     OW46565  11.271   7.181   9.175  0.0783  0.0839 -0.0816
11614SOL    HW146566  11.297   7.215   9.089  0.8884 -0.0910  0.0869
11614SOL    HW246567  11.240   7.093   9.158 -1.7747  0.7800 -0.4840
11615SOL     OW46568   9.418   5.708  11.812  0.2336  0.8431 -0.1979
11615SOL    HW146569   9.389   5.740  11.897  0.6686 -3.4414  1.8145
11615SOL    HW246570   9.499   5.756  11.795  0.4258  1.4231  2.0558
11616SOL     OW46571   6.386   5.621   4.793  0.7962  0.0791 -0.3097
11616SOL    HW146572   6.300   5.650   4.825 -0.9871 -1.1958 -3.3999
11616SOL    HW246573   6.408   5.684   4.725 -0.3846 -2.3423 -3.1647
11617SOL     OW46574   5.706   2.042   9.122  0.5062 -0.1822  0.8932
11617SOL    HW146575   5.653   2.114   9.088  2.0816  0.6171  0.0145
11617SOL    HW246576   5.781   2.086   9.164  1.1261 -1.2990  0.9852
11618SOL     OW46577   8.962   5.453   4.622 -0.4408  0.0496 -0.6516
11618SOL    HW146578   8.965   5.530   4.566 -1.1958  1.7612  1.5337
11618SOL    HW246579   9.054   5.432   4.640 -0.0972  3.2530  2.2411
11619SOL     OW46580   5.627   2.942   4.874  0.0958  0.2183 -0.2577
11619SOL    HW146581   5.722   2.929   4.872  0.0060 -0.6026  0.3290
11619SOL    HW246582   5.614   3.007   4.944  0.4662  3.0063 -2.5726
11620SOL     OW46583   7.339   9.353  10.579  0.5194 -0.8068  0.2434
11620SOL    HW146584   7.243   9.348  10.583  0.1934  2.9613  1.8317
11620SOL    HW246585   7.368   9.315  10.662  0.3324 -1.1922  0.1330
11621SOL     OW46586   5.912  10.434   5.876 -0.4314  0.4260  0.1529
11621SOL    HW146587   5.830  10.477   5.852 -0.7204  0.0534  0.4619
11621SOL    HW246588   5.962  10.503   5.920 -0.7095  0.5642  0.2576
11622SOL     OW46589   3.080   8.537   1.482  0.1958 -0.0663  0.1256
11622SOL    HW146590   3.033   8.565   1.561  1.1716  1.3452  0.2261
11622SOL    HW246591   3.010   8.509   1.422 -0.6195 -0.2304  1.1257
11623SOL     OW46592   1.125   2.041   6.909 -0.3761 -0.1529 -0.5325
11623SOL    HW146593   1.170   1.984   6.846 -1.1173 -1.1314 -0.1968
11623SOL    HW246594   1.148   2.129   6.881  0.1491 -0.5916 -1.5567
11624SOL     OW46595   9.448   0.568   2.927 -0.0923  0.4275 -0.3795
11624SOL    HW146596   9.505   0.644   2.939  1.1559 -0.5298  0.0564
11624SOL    HW246597   9.407   0.554   3.012  0.9570 -0.3477  0.0176
11625SOL     OW46598   6.421  10.743   1.614 -0.4351 -0.5619 -0.0579
11625SOL    HW146599   6.461  10.771   1.696  1.1432 -0.0114 -0.9751
11625SOL    HW246600   6.337  10.705   1.640  0.3960 -1.1885  1.8856
11626SOL     OW46601   8.706   5.597   2.213 -0.0643 -0.0917  0.1750
11626SOL    HW146602   8.648   5.547   2.269  0.6131 -0.1993  0.7943
11626SOL    HW246603   8.652   5.669   2.180 -0.6845 -0.4854  0.3192
11627SOL     OW46604   0.667   9.574   9.673 -0.0320 -0.0681  0.0535
11627SOL    HW146605   0.573   9.576   9.686  0.1172  0.7170  1.1427
11627SOL    HW246606   0.690   9.482   9.682 -0.5099 -0.0814  1.3382
11628SOL     OW46607   1.682   9.645   5.460  0.6364  0.1899  0.0749
11628SOL    HW146608   1.767   9.648   5.416  0.1232 -1.6534 -1.1673
11628SOL    HW246609   1.666   9.552   5.474 -1.6282  0.4067 -0.6758
11629SOL     OW46610  10.800   6.568   9.882 -0.4701  0.7172  0.7468
11629SOL    HW146611  10.712   6.601   9.900 -0.2171  1.8641 -0.0351
11629SOL    HW246612  10.799   6.545   9.789  0.0538  0.7644  0.7244
11630SOL     OW46613  11.470   0.725   0.956 -0.1222  0.1036 -0.1641
11630SOL    HW146614  11.485   0.719   0.861 -0.1920  1.4720 -0.2754
11630SOL    HW246615  11.375   0.720   0.965 -0.1861  0.9685 -0.2648
11631SOL     OW46616   5.095   1.878   7.988  0.4413 -0.3664 -0.9000
11631SOL    HW146617   5.131   1.966   8.000  1.0106 -0.4570 -1.8940
11631SOL    HW246618   5.037   1.866   8.063 -0.8391  1.4398 -1.5355
11632SOL     OW46619  10.623   0.733   3.443  0.2652  0.4275  0.1590
11632SOL    HW146620  10.566   0.778   3.506  1.8901  1.1520  1.1729
11632SOL    HW246621  10.684   0.800   3.413 -0.7211  0.2364 -2.6250
11633SOL     OW46622   3.001   5.083   1.037 -0.0939 -0.3396 -0.1316
11633SOL    HW146623   3.042   5.167   1.062 -0.9014 -0.1685  0.6813
11633SOL    HW246624   2.907   5.101   1.038 -0.2501 -1.1003 -0.5728
11634SOL     OW46625   2.594   8.003  10.157 -0.0291 -0.2893  0.2915
11634SOL    HW146626   2.606   8.059  10.234  0.2844  0.1417 -0.0598
11634SOL    HW246627   2.650   7.927  10.173  0.1421 -0.1355  0.4278
11635SOL     OW46628  11.735   4.395   0.053 -0.4866  0.1621 -0.2489
11635SOL    HW146629  11.746   4.309   0.013 -2.0974  0.2844 -1.0610
11635SOL    HW246630  11.742   4.456  -0.021  0.5116  0.7404  0.2999
11636SOL     OW46631   1.361   9.372   7.201  0.0602  0.3503 -0.7486
11636SOL    HW146632   1.288   9.414   7.155 -1.9644 -0.5566  1.4230
11636SOL    HW246633   1.361   9.282   7.168 -3.5389 -1.3140  2.9364
11637SOL     OW46634   2.283   2.310   1.610 -0.3584 -0.2312 -0.4313
11637SOL    HW146635   2.371   2.276   1.630 -0.1500 -0.6530 -1.9234
11637SOL    HW246636   2.291   2.404   1.621  0.5204 -0.1860 -1.2801
11638SOL     OW46637   3.560  11.520   6.405  0.6920 -0.4994 -0.7690
11638SOL    HW146638   3.532  11.430   6.423  0.6887 -0.8404 -2.3377
11638SOL    HW246639   3.651  11.510   6.376  0.9580  0.1096 -0.1686
11639SOL     OW46640   7.241   4.004   2.502  0.1347  0.2055 -0.2648
11639SOL    HW146641   7.168   4.023   2.443  0.1587  1.0884 -0.0293
11639SOL    HW246642   7.207   3.937   2.562 -0.6364  0.9017  0.1047
11640SOL     OW46643  10.765   5.896   4.343 -0.2683  0.4068  0.4651
11640SOL    HW146644  10.776   5.872   4.250 -1.0315  0.5915  0.3149
11640SOL    HW246645  10.787   5.989   4.347  1.7597 -0.0416  0.8693
11641SOL     OW46646   4.729   2.921   9.607 -0.0384 -0.5499  0.3689
11641SOL    HW146647   4.801   2.961   9.657  1.7717 -3.3438  0.2307
11641SOL    HW246648   4.692   2.857   9.667 -1.5547 -0.1076 -0.0580
11642SOL     OW46649  11.255  10.753   4.952 -0.5843 -0.0785 -0.3991
11642SOL    HW146650  11.250  10.767   5.047 -2.6246  0.8230 -0.5910
11642SOL    HW246651  11.335  10.702   4.940 -1.1680 -1.7286  1.9865
11643SOL     OW46652   2.212   2.032   0.281  0.3299  0.5797  0.2603
11643SOL    HW146653   2.222   1.944   0.317  1.8499 -0.1886 -1.8239
11643SOL    HW246654   2.301   2.067   0.277 -0.1839  1.9984  0.4833
11644SOL     OW46655   2.464  11.383  10.192 -0.1454 -0.1920  0.3000
11644SOL    HW146656   2.401  11.357  10.124 -1.1523  1.5715  0.5025
11644SOL    HW246657   2.531  11.432  10.144 -0.0199 -0.3012  0.3651
11645SOL     OW46658  10.892   3.321   1.315  0.2842 -0.4361 -0.2725
11645SOL    HW146659  10.830   3.389   1.290  1.2688  0.3307 -0.6837
11645SOL    HW246660  10.930   3.292   1.232  1.9212  0.5206  0.1074
11646SOL     OW46661  11.652   0.657   2.629  0.2884 -0.8084  0.1012
11646SOL    HW146662  11.680   0.584   2.573  0.1944  0.0445 -1.0812
11646SOL    HW246663  11.731   0.708   2.644 -0.2022  0.5995 -1.7461
11647SOL     OW46664   7.529   1.878   8.995  0.2580 -0.3717  0.1575
11647SOL    HW146665   7.480   1.868   9.077  0.8252 -1.0080  0.4235
11647SOL    HW246666   7.606   1.929   9.020 -0.2119  0.5558 -0.2432
11648SOL     OW46667   4.605   3.788   5.679  0.2603 -0.6084 -0.4619
11648SOL    HW146668   4.651   3.732   5.742 -1.5120 -1.6283 -0.0282
11648SOL    HW246669   4.647   3.767   5.595  2.5348  0.6581  0.2604
11649SOL     OW46670   8.034   4.371   6.459 -0.0490  0.1169 -0.2218
11649SOL    HW146671   8.108   4.365   6.520 -0.5616  0.3675  0.4417
11649SOL    HW246672   7.959   4.345   6.512 -0.5751  0.8082 -0.6273
11650SOL     OW46673   1.637  10.692   5.155  0.0489 -0.2846 -0.0407
11650SOL    HW146674   1.567  10.757   5.148 -0.2826 -0.8022 -1.9957
11650SOL    HW246675   1.684  10.698   5.072  0.3504 -2.1643 -0.0454
11651SOL     OW46676   9.281   4.030   3.565 -0.0108  0.4510  0.0412
11651SOL    HW146677   9.316   4.091   3.630 -0.3824  1.2049 -0.4545
11651SOL    HW246678   9.262   3.950   3.615  0.8183  0.6061  0.6308
11652SOL     OW46679  10.088  10.520  11.791  0.0234 -0.5320 -0.5646
11652SOL    HW146680  10.014  10.541  11.734  2.1102  0.2055 -3.2162
11652SOL    HW246681  10.094  10.594  11.851 -0.4676  0.1566 -1.3363
11653SOL     OW46682   2.895   3.531   0.986  0.1874 -0.1397  0.0903
11653SOL    HW146683   2.967   3.505   1.043  0.3369  0.7100  0.3053
11653SOL    HW246684   2.816   3.505   1.034  0.3242  0.0722  0.4336
11654SOL     OW46685  11.004   2.832   0.560 -0.1725 -0.3114 -0.2817
11654SOL    HW146686  11.087   2.816   0.515  0.1371 -1.2709  0.5764
11654SOL    HW246687  10.946   2.866   0.493  1.1330  1.0885 -0.7481
11655SOL     OW46688   3.473   2.213  11.058  0.0210  0.0721 -0.4072
11655SOL    HW146689   3.526   2.207  10.978 -0.5299 -0.6771 -0.7306
11655SOL    HW246690   3.414   2.138  11.052 -2.0623  1.6629 -0.7765
11656SOL     OW46691  11.558   2.719   1.352 -0.3032  0.0659  0.0197
11656SOL    HW146692  11.603   2.742   1.433 -0.4743 -0.0224  0.1387
11656SOL    HW246693  11.578   2.627   1.339 -0.4433  0.0282  0.0687
11657SOL     OW46694  10.115   3.822   7.365 -0.2833  0.7280  0.1623
11657SOL    HW146695  10.073   3.857   7.443  0.0907  0.4400  0.4976
11657SOL    HW246696  10.174   3.754   7.398 -0.0182  0.7006 -0.3572
11658SOL     OW46697   3.642   8.196   4.061  0.1398  0.3164  0.2501
11658SOL    HW146698   3.680   8.210   4.148 -0.1124 -0.3413  0.4721
11658SOL    HW246699   3.594   8.113   4.069  3.4029 -2.0117 -1.5399
11659SOL     OW46700   3.063  11.184   0.489 -0.6699  0.1986 -0.3976
11659SOL    HW146701   3.142  11.143   0.452 -0.6270  1.0790 -1.3184
11659SOL    HW246702   3.009  11.206   0.413 -1.2885  0.6399  0.1586
11660SOL     OW46703   8.684   9.151  11.617  0.1469 -0.0357  0.3270
11660SOL    HW146704   8.640   9.232  11.642 -0.8864 -0.8010  1.0800
11660SOL    HW246705   8.744   9.133  11.690 -0.7902 -0.7670  0.9410
11661SOL     OW46706   0.268   4.146   3.399 -0.1483  0.2062  0.2664
11661SOL    HW146707   0.238   4.115   3.484 -1.2815  0.6932  0.0590
11661SOL    HW246708   0.358   4.115   3.392  0.4278  1.2812  2.2069
11662SOL     OW46709   1.368   3.157  11.083  0.7250  0.3975 -0.1490
11662SOL    HW146710   1.401   3.196  11.002 -1.0121  1.2229 -0.5097
11662SOL    HW246711   1.295   3.213  11.108  0.2396 -0.7678  1.1417
11663SOL     OW46712   9.730   6.827   7.154  0.8501 -0.0409  0.5165
11663SOL    HW146713   9.660   6.849   7.216 -2.3982 -0.7225 -2.5691
11663SOL    HW246714   9.727   6.732   7.148 -1.0094  0.0628 -2.5821
11664SOL     OW46715   7.135   6.938   6.792  0.4155 -0.1147  0.4319
11664SOL    HW146716   7.109   6.954   6.701  2.7710 -0.6116 -0.4088
11664SOL    HW246717   7.171   6.849   6.792  0.2786 -0.2046  1.9189
11665SOL     OW46718  10.301  10.177  10.536 -0.1395  0.5019  0.3347
11665SOL    HW146719  10.395  10.196  10.541 -0.2343  1.9498 -1.7968
11665SOL    HW246720  10.262  10.227  10.607  0.6168  0.5406  0.7303
11666SOL     OW46721   0.747   8.366   4.917 -0.2225  0.2811 -0.0691
11666SOL    HW146722   0.655   8.391   4.909  0.1401  1.8953  0.4559
11666SOL    HW246723   0.785   8.385   4.832 -0.1820  0.4593 -0.0109
11667SOL     OW46724   7.931   0.856  10.575  0.4442 -0.0750  0.1422
11667SOL    HW146725   8.004   0.820  10.625  0.3977  0.4040  0.5671
11667SOL    HW246726   7.892   0.922  10.633 -0.0771 -0.0430 -0.2343
11668SOL     OW46727  11.620   7.535   0.199  0.0202  0.4730 -0.4193
11668SOL    HW146728  11.539   7.503   0.159  0.5065 -0.0658 -1.0073
11668SOL    HW246729  11.668   7.455   0.220 -1.6940  0.4623  4.6386
11669SOL     OW46730   9.962   6.719   1.337  0.7862  0.2030 -0.1346
11669SOL    HW146731   9.879   6.671   1.336  1.3708 -0.8768 -1.8430
11669SOL    HW246732  10.010   6.685   1.262  1.5032  3.0808 -1.1214
11670SOL     OW46733   7.088   5.897   9.316  0.7322 -0.1276 -0.8243
11670SOL    HW146734   7.162   5.843   9.290 -0.1825 -1.2299 -1.2200
11670SOL    HW246735   7.017   5.834   9.334 -0.3617  0.9274 -1.2951
11671SOL     OW46736   1.025   6.274  10.056 -0.3799  0.2761 -0.3030
11671SOL    HW146737   1.068   6.221  10.124 -1.6556 -0.9374 -0.3927
11671SOL    HW246738   1.047   6.230   9.974  1.4508  1.9442 -0.7692
11672SOL     OW46739   6.041   8.505   0.914 -0.0594 -0.5128 -0.0076
11672SOL    HW146740   6.035   8.544   1.001  1.5497  0.9825 -0.5042
11672SOL    HW246741   5.980   8.556   0.860  0.8643  0.3129 -0.3017
11673SOL     OW46742  10.228   4.997   5.228 -0.0039 -0.3866  0.4431
11673SOL    HW146743  10.192   4.985   5.316  0.0967 -1.2619  0.3799
11673SOL    HW246744  10.305   4.940   5.227  0.0186 -0.3468 -0.1937
11674SOL     OW46745   4.798  11.321   0.253  0.2340  0.1439 -0.1234
11674SOL    HW146746   4.822  11.414   0.249 -1.0843  0.5047 -0.4072
11674SOL    HW246747   4.747  11.306   0.174 -0.5458 -0.5103  0.4812
11675SOL     OW46748   7.800   2.379   3.580  0.1458  0.1316  0.2551
11675SOL    HW146749   7.789   2.404   3.672 -1.3276 -0.4847  0.2745
11675SOL    HW246750   7.756   2.450   3.532  0.9389  0.4668  0.0123
11676SOL     OW46751   9.608   7.855  10.780  0.3544 -0.4007  0.1005
11676SOL    HW146752   9.612   7.908  10.860  1.0818  0.2899 -0.3672
11676SOL    HW246753   9.667   7.900  10.720  1.8404 -2.3508  0.0173
11677SOL     OW46754   6.939   6.825   0.937  0.1078 -0.0341 -0.4170
11677SOL    HW146755   6.922   6.855   1.026 -1.3319 -2.3365  0.1602
11677SOL    HW246756   6.883   6.879   0.882 -0.1304  0.3777  0.2269
11678SOL     OW46757   4.667   4.561   2.229 -0.3888  0.2734 -0.8167
11678SOL    HW146758   4.750   4.608   2.217 -0.3437  0.3493 -0.2455
11678SOL    HW246759   4.687   4.494   2.295 -0.4217 -0.6398 -1.7127
11679SOL     OW46760   4.817   6.169   8.844 -0.1073  0.0215  0.1784
11679SOL    HW146761   4.777   6.092   8.884 -0.0810 -0.7550 -1.2148
11679SOL    HW246762   4.779   6.172   8.756 -0.2632  1.7350  0.2658
11680SOL     OW46763   8.505   8.296   6.757  0.4730 -0.8815  0.3983
11680SOL    HW146764   8.425   8.346   6.739  0.3261 -1.3727 -0.3508
11680SOL    HW246765   8.481   8.236   6.827  0.0534 -1.3422 -0.1396
11681SOL     OW46766  11.468   4.424   4.010  0.1483  0.2252 -0.2449
11681SOL    HW146767  11.557   4.396   4.033 -0.2013 -1.4818 -0.8112
11681SOL    HW246768  11.423   4.434   4.093  0.6770  0.4376  0.0211
11682SOL     OW46769   3.190  10.249   3.139 -0.5310 -0.0811 -0.0811
11682SOL    HW146770   3.258  10.184   3.153  0.1969  0.7714  0.4206
11682SOL    HW246771   3.208  10.285   3.052 -0.1068  0.4009  0.1997
11683SOL     OW46772   7.648  10.582   5.885  0.4257 -0.2241  0.2903
11683SOL    HW146773   7.570  10.588   5.939  0.9614 -1.2636  1.2319
11683SOL    HW246774   7.618  10.545   5.802 -0.6137  2.5310 -0.6549
11684SOL     OW46775   7.539   3.056   1.871 -0.3686  0.1652 -0.2655
11684SOL    HW146776   7.508   3.076   1.959 -0.4079  0.6308 -0.3840
11684SOL    HW246777   7.634   3.066   1.875 -0.4807  1.5990 -0.6240
11685SOL     OW46778   5.433  11.522   7.093  0.4226  0.0984  0.0352
11685SOL    HW146779   5.362  11.466   7.125  1.5366 -1.0343  0.6448
11685SOL    HW246780   5.401  11.556   7.010 -0.2975 -1.4963 -0.3786
11686SOL     OW46781   3.807  10.554  11.808  0.3967 -0.2389  0.0640
11686SOL    HW146782   3.796  10.584  11.899  3.0514  1.6419 -0.1240
11686SOL    HW246783   3.843  10.465  11.817  0.7094 -0.0450  0.8699
11687SOL     OW46784   0.681   0.301   4.969  0.1371  0.4722 -0.6211
11687SOL    HW146785   0.651   0.210   4.980 -0.6084  0.8069  0.2199
11687SOL    HW246786   0.614   0.353   5.013  0.8060  1.4056 -0.6994
11688SOL     OW46787   4.167   1.473   2.830 -0.7034  0.3737  0.7291
11688SOL    HW146788   4.189   1.562   2.803 -1.8182  0.3648 -0.3037
11688SOL    HW246789   4.227   1.454   2.901  0.7552  1.2956 -0.2017
11689SOL     OW46790  11.241   8.663   8.230  0.1446 -0.0672 -0.3278
11689SOL    HW146791  11.173   8.599   8.207 -2.4309  1.9242  1.1780
11689SOL    HW246792  11.270   8.698   8.145 -1.1588 -0.5562 -1.0054
11690SOL     OW46793   1.111   1.423   6.266  0.2252 -0.3043 -0.4381
11690SOL    HW146794   1.189   1.412   6.212 -0.9522  0.7711 -2.4732
11690SOL    HW246795   1.139   1.483   6.336  0.7281  2.0080 -2.4668
11691SOL     OW46796   3.257   7.224   5.190  0.0362 -0.5788 -0.2030
11691SOL    HW146797   3.206   7.163   5.136 -0.9620  0.7911 -0.8640
11691SOL    HW246798   3.292   7.287   5.127  0.3722 -0.0003  0.5540
11692SOL     OW46799   4.522   1.015   0.933 -0.2775 -0.6252  0.5000
11692SOL    HW146800   4.492   1.031   1.023 -1.9821  0.7107 -0.2499
11692SOL    HW246801   4.554   0.925   0.934  0.6863 -0.3206  2.6613
11693SOL     OW46802   9.784   7.030  10.602 -0.3282 -0.0570 -0.1972
11693SOL    HW146803   9.813   7.109  10.557 -1.2880  0.5794  0.2682
11693SOL    HW246804   9.783   7.054  10.695 -0.8386 -0.5397 -0.0706
11694SOL     OW46805   5.199   7.532   4.498 -0.2257 -0.6279  0.4927
11694SOL    HW146806   5.214   7.618   4.458  0.4465 -0.5709  0.8617
11694SOL    HW246807   5.265   7.475   4.460 -0.2635 -0.8322  0.7322
11695SOL     OW46808   0.102   5.868   9.854  0.1849  0.1287 -0.3919
11695SOL    HW146809   0.162   5.825   9.915  0.7881 -0.1476 -1.1604
11695SOL    HW246810   0.158   5.925   9.802 -0.0991 -0.6617 -1.5963
11696SOL     OW46811   6.018   6.889   7.068  0.4547 -0.2725  0.3081
11696SOL    HW146812   6.018   6.823   7.138  1.6230  1.0627  1.6460
11696SOL    HW246813   6.110   6.912   7.057  0.1746  0.2753 -0.9763
11697SOL     OW46814  10.117   5.423   8.392  0.0977  0.4580  0.1717
11697SOL    HW146815  10.024   5.438   8.409  0.3085  1.7652  0.2711
11697SOL    HW246816  10.161   5.471   8.462  0.8470 -0.5453  0.4020
11698SOL     OW46817   1.933   3.413   2.692  0.1676 -0.0345  0.9672
11698SOL    HW146818   1.848   3.415   2.737 -1.2442 -0.1134 -1.5113
11698SOL    HW246819   1.932   3.330   2.645  0.3264  1.1969 -1.3445
11699SOL     OW46820   1.556   5.434   3.590 -0.3450  0.1801  0.1879
11699SOL    HW146821   1.479   5.378   3.585  1.4243 -2.3235 -0.9746
11699SOL    HW246822   1.615   5.391   3.652  0.3026  1.8485  0.8027
11700SOL     OW46823  10.175  11.414   0.363 -0.0158  0.3778 -0.1698
11700SOL    HW146824  10.172  11.503   0.396  0.0038  0.7728 -1.1985
11700SOL    HW246825  10.150  11.359   0.438  3.0680  0.9698  1.4138
11701SOL     OW46826   1.239   0.858   4.806 -0.0041 -0.2065  0.3699
11701SOL    HW146827   1.268   0.875   4.896 -0.6378  0.9324  0.3688
11701SOL    HW246828   1.164   0.799   4.816  0.3009 -0.5745  0.5430
11702SOL     OW46829   5.008   5.185  10.018 -0.9039 -0.3042  0.6664
11702SOL    HW146830   5.054   5.158   9.938  0.1444  2.0864  0.3816
11702SOL    HW246831   4.916   5.185   9.994 -0.6028  0.3046 -0.5525
11703SOL     OW46832   7.064   7.527   1.874 -0.1184 -0.1486  0.8386
11703SOL    HW146833   7.013   7.451   1.902  0.4297 -0.3072  1.4227
11703SOL    HW246834   7.070   7.582   1.953 -0.1896  0.3218  0.5219
11704SOL     OW46835   8.224   9.586   0.804  0.2735 -0.0624 -0.1465
11704SOL    HW146836   8.264   9.607   0.888  0.5266 -1.1642  0.0289
11704SOL    HW246837   8.209   9.491   0.807 -1.6181  0.1736 -0.5303
11705SOL     OW46838   2.406   7.791   9.730  0.1143 -0.1498 -0.1592
11705SOL    HW146839   2.356   7.710   9.729  0.2711 -0.3226  2.0613
11705SOL    HW246840   2.498   7.763   9.734  0.2002  0.1302 -0.0904
11706SOL     OW46841   0.636   3.119  10.294 -0.0895  0.2411 -0.2365
11706SOL    HW146842   0.680   3.045  10.336  0.0625  0.6374  0.3099
11706SOL    HW246843   0.672   3.120  10.205  0.1201 -0.1631 -0.1617
11707SOL     OW46844   6.487   7.994   9.810 -0.3010  0.2550  0.2203
11707SOL    HW146845   6.559   8.034   9.762  0.9139 -0.2638  1.5326
11707SOL    HW246846   6.528   7.925   9.862 -1.8792 -0.6092  0.3870
11708SOL     OW46847   9.991   7.575   1.042  0.0151 -0.0237 -0.5804
11708SOL    HW146848  10.084   7.582   1.021  0.5427 -1.8493  0.8354
11708SOL    HW246849   9.968   7.660   1.080  0.5830  1.1094 -2.6510
11709SOL     OW46850   1.234   4.254   9.597 -0.2606  0.3842  0.0636
11709SOL    HW146851   1.198   4.290   9.516  1.6903  1.4329 -0.3946
11709SOL    HW246852   1.201   4.311   9.666 -1.0222  0.1642 -0.1119
11710SOL     OW46853   6.253   1.769   4.677  0.0737  0.1636  0.2559
11710SOL    HW146854   6.220   1.812   4.598  0.9856 -0.5668 -0.5486
11710SOL    HW246855   6.175   1.731   4.718 -0.1645 -1.7421 -1.7293
11711SOL     OW46856  10.713   3.738   6.865  0.4745 -0.1657 -0.5926
11711SOL    HW146857  10.678   3.663   6.912 -1.1438  0.3626 -0.9034
11711SOL    HW246858  10.640   3.771   6.814  1.5058  0.8461 -1.4708
11712SOL     OW46859   4.678   9.313  11.833  0.2677 -0.1628 -0.3412
11712SOL    HW146860   4.767   9.282  11.850  0.0888 -0.7330 -0.4402
11712SOL    HW246861   4.642   9.330  11.921  0.8544  1.1782 -0.3371
11713SOL     OW46862  10.740   8.004   9.612 -0.1070  0.1622  0.3117
11713SOL    HW146863  10.688   8.036   9.538 -2.6524 -0.0354  1.9036
11713SOL    HW246864  10.776   8.083   9.652  1.9757  0.2295 -1.5081
11714SOL     OW46865   5.727   4.379   5.132  0.2643  0.3473  0.1266
11714SOL    HW146866   5.754   4.466   5.103 -0.2476  0.0386 -1.3225
11714SOL    HW246867   5.779   4.318   5.080  0.6475 -0.2393  1.1584
11715SOL     OW46868  10.492   6.163   7.414 -0.1617  0.6437 -0.1709
11715SOL    HW146869  10.487   6.097   7.483  1.6513  0.7845  0.1329
11715SOL    HW246870  10.519   6.243   7.459  1.2588  0.6906 -1.0403
11716SOL     OW46871   1.058   5.959   9.255 -0.5582  0.0569 -0.2971
11716SOL    HW146872   1.047   5.866   9.272 -1.8498  0.3177  0.4354
11716SOL    HW246873   0.993   6.002   9.311  0.3689  1.4339 -0.2240
11717SOL     OW46874   1.063   9.092   9.678  0.2026  0.0495 -0.6095
11717SOL    HW146875   1.129   9.050   9.733 -1.1266  0.3535  1.3376
11717SOL    HW246876   1.105   9.172   9.647  1.9583 -1.4885 -2.4610
11718SOL     OW46877   8.744   6.595   0.824 -0.2279  0.5336 -0.4749
11718SOL    HW146878   8.671   6.543   0.857 -0.2716  0.4063 -0.7727
11718SOL    HW246879   8.767   6.555   0.741  0.0227  0.7232 -0.4980
11719SOL     OW46880   5.117   0.751   0.284  0.5974  0.2756 -0.2395
11719SOL    HW146881   5.208   0.760   0.310  1.3511  1.8928 -3.0423
11719SOL    HW246882   5.120   0.702   0.202 -1.1356 -0.1950 -0.0672
11720SOL     OW46883   4.158   3.999   5.149 -0.1987 -0.4006 -0.2880
11720SOL    HW146884   4.251   4.001   5.173 -0.5586  0.6855  1.1312
11720SOL    HW246885   4.135   4.091   5.135 -1.2373 -0.5836  0.1342
11721SOL     OW46886  10.055   9.203   9.215  0.2989  0.9628 -0.1220
11721SOL    HW146887  10.132   9.260   9.207  0.0566  1.1303 -1.3755
11721SOL    HW246888  10.082   9.120   9.174 -0.2403  1.0834 -0.7292
11722SOL     OW46889   8.670  11.321   6.199  0.1895  0.0940 -0.2159
11722SOL    HW146890   8.678  11.353   6.109 -0.4281 -1.6973 -0.9374
11722SOL    HW246891   8.583  11.351   6.227 -0.5542 -1.2136 -1.0311
11723SOL     OW46892   7.244   1.968  11.293 -0.0540 -0.1788 -0.3074
11723SOL    HW146893   7.184   1.899  11.319  0.7732 -0.4242  1.0881
11723SOL    HW246894   7.300   1.982  11.370  1.3954  0.3214 -1.3861
11724SOL     OW46895   2.533   3.708   5.617  0.1248  0.3390  0.2532
11724SOL    HW146896   2.526   3.720   5.523 -2.3714  0.2276  0.3459
11724SOL    HW246897   2.608   3.649   5.629  1.4231  1.5583 -1.4969
11725SOL     OW46898   1.253   2.962   0.829  0.0029  0.3024  0.2502
11725SOL    HW146899   1.189   2.949   0.899  1.7080 -2.9424  1.4056
11725SOL    HW246900   1.287   3.051   0.844  0.1291 -0.1581  3.4400
11726SOL     OW46901  11.593   5.130   0.825  0.2997 -0.1762 -0.3408
11726SOL    HW146902  11.581   5.204   0.767  1.3603  1.1478  1.0424
11726SOL    HW246903  11.641   5.066   0.773  0.9591  0.8475 -1.0190
11727SOL     OW46904   5.089   6.382   5.491  0.2410 -0.2553 -0.9181
11727SOL    HW146905   5.180   6.411   5.498 -0.5703  2.5820 -0.6550
11727SOL    HW246906   5.075   6.367   5.398  0.6447  0.6443 -1.1324
11728SOL     OW46907  11.540   5.109   0.271 -0.3237 -0.2129 -0.2977
11728SOL    HW146908  11.526   5.045   0.201  0.4383 -1.8100  0.9383
11728SOL    HW246909  11.623   5.151   0.250 -0.7499  0.2776 -1.0331
11729SOL     OW46910   6.091   1.277   7.133  0.1427  0.3677 -0.3271
11729SOL    HW146911   5.997   1.287   7.149  0.0714 -0.1895 -0.3581
11729SOL    HW246912   6.114   1.196   7.179  0.6488  0.6046 -0.1561
11730SOL     OW46913   1.611   4.799   6.263 -0.8947  0.0974 -0.1343
11730SOL    HW146914   1.615   4.765   6.174  1.8422  0.5676 -0.2813
11730SOL    HW246915   1.695   4.844   6.276 -1.8469  1.4413  2.1420
11731SOL     OW46916   1.043   0.574   3.673  0.5070 -0.0849 -0.0302
11731SOL    HW146917   1.100   0.565   3.596  0.3342  2.1762 -0.4852
11731SOL    HW246918   0.956   0.548   3.642  0.6143 -0.0657 -0.3523
11732SOL     OW46919  10.085   0.597   1.051  0.4480 -0.1583  0.3171
11732SOL    HW146920  10.163   0.562   1.094  1.4976  0.7466 -0.7686
11732SOL    HW246921  10.067   0.679   1.097  0.7569  0.1259 -0.0512
11733SOL     OW46922   3.616   0.777   2.557 -0.1018 -0.4644  0.1949
11733SOL    HW146923   3.582   0.851   2.506  1.8692  0.0127 -0.5159
11733SOL    HW246924   3.671   0.729   2.495 -0.3169 -1.8024  1.0066
11734SOL     OW46925  10.590  11.596   7.732 -0.2360  0.0774  0.0470
11734SOL    HW146926  10.525  11.621   7.797  0.1400  0.6120  0.2277
11734SOL    HW246927  10.567  11.648   7.654 -0.2771 -0.0511 -0.0279
11735SOL     OW46928   8.244   3.534   8.899  0.2034  0.2491 -0.2479
11735SOL    HW146929   8.238   3.590   8.822  1.3621  1.9944  0.8619
11735SOL    HW246930   8.337   3.520   8.912  0.0781  0.6538  1.2699
11736SOL     OW46931   7.011   3.067   0.627  0.1700  0.0623 -0.3756
11736SOL    HW146932   6.969   2.981   0.628 -0.3883  0.3321 -0.2766
11736SOL    HW246933   7.061   3.069   0.546  0.0348 -0.2899 -0.4662
11737SOL     OW46934   7.445   2.963   8.753  0.1266  0.5966  0.0746
11737SOL    HW146935   7.532   3.002   8.767  0.8190 -0.8821  0.0899
11737SOL    HW246936   7.403   2.968   8.838  0.9094 -0.3255  0.5305
11738SOL     OW46937   0.819   0.318   5.849  0.2678  0.0486 -0.3334
11738SOL    HW146938   0.907   0.305   5.885  1.0914  0.6778 -2.0090
11738SOL    HW246939   0.828   0.298   5.756 -1.2874  0.5009 -0.6099
11739SOL     OW46940   8.090   4.925  11.842 -0.1865 -0.1497 -0.1644
11739SOL    HW146941   8.029   4.892  11.776  1.6384 -0.7759 -1.6329
11739SOL    HW246942   8.138   4.847  11.872  1.1537  0.5407 -0.4170
11740SOL     OW46943   2.801  10.143   6.495  0.1387 -0.0869  0.1029
11740SOL    HW146944   2.819  10.206   6.425 -0.7440  0.5655  0.4436
11740SOL    HW246945   2.770  10.065   6.449  1.0430 -0.2123 -0.3102
11741SOL     OW46946   7.118   8.156   0.788 -0.0930 -0.0631  0.4393
11741SOL    HW146947   7.145   8.165   0.696 -0.9290  0.1526  0.2045
11741SOL    HW246948   7.195   8.182   0.838  0.5236 -0.6059 -0.1925
11742SOL     OW46949   7.421   5.042   3.827  0.3741 -0.3843 -0.4422
11742SOL    HW146950   7.460   5.032   3.913  2.6249 -1.1317 -1.4809
11742SOL    HW246951   7.435   5.135   3.805  1.4568 -0.5984 -0.7209
11743SOL     OW46952   8.969   5.765   9.145  0.1289 -0.2888  0.1577
11743SOL    HW146953   9.038   5.816   9.188  0.8899 -1.8690  0.8757
11743SOL    HW246954   8.975   5.790   9.053  0.9166  0.4141  0.3849
11744SOL     OW46955   0.078   6.687   6.930 -0.3863 -0.4083  0.2839
11744SOL    HW146956   0.002   6.663   6.876  0.3316 -0.0981 -0.8962
11744SOL    HW246957   0.138   6.613   6.921 -0.1029 -0.1916  0.3632
11745SOL     OW46958   9.162   0.352   6.764  0.3781 -0.5592  0.1133
11745SOL    HW146959   9.080   0.320   6.727  0.0131 -0.7205  1.0496
11745SOL    HW246960   9.190   0.283   6.824  1.0459 -0.3740  0.0221
11746SOL     OW46961   6.956  10.450   1.869 -0.4030 -0.8364 -0.6959
11746SOL    HW146962   6.861  10.443   1.875 -0.5693  0.5891 -1.2895
11746SOL    HW246963   6.989  10.388   1.935 -1.7364 -1.0290 -0.1826
11747SOL     OW46964   3.068   3.649   3.235 -0.2400 -1.0591 -0.7182
11747SOL    HW146965   3.101   3.674   3.149  1.5052  0.3638  0.3070
11747SOL    HW246966   3.018   3.726   3.265  1.0672 -0.6252  0.4428
11748SOL     OW46967   9.856  10.634  10.206 -0.2067  0.1265  0.0154
11748SOL    HW146968   9.880  10.547  10.172 -0.5675 -0.4213  1.1090
11748SOL    HW246969   9.763  10.643  10.185  0.1629  0.8927 -1.3959
11749SOL     OW46970   5.405   5.836   4.119  0.2157  0.9657 -0.1634
11749SOL    HW146971   5.400   5.845   4.023 -0.4755  3.1159  0.0292
11749SOL    HW246972   5.459   5.910   4.147 -0.4934  0.9801  1.1931
11750SOL     OW46973   3.167   0.229   0.421  0.2374  0.4409 -0.3837
11750SOL    HW146974   3.216   0.158   0.379  0.3322 -0.5702  1.3088
11750SOL    HW246975   3.104   0.258   0.355  1.8363  0.4948 -1.9652
11751SOL     OW46976   3.304   4.342  10.914  0.0795 -0.0909 -0.2449
11751SOL    HW146977   3.230   4.284  10.930 -1.7807  2.0129 -0.7231
11751SOL    HW246978   3.324   4.330  10.821 -0.5153  0.2166 -0.4223
11752SOL     OW46979   1.641   1.684   9.399  0.3592 -0.1544 -0.0631
11752SOL    HW146980   1.664   1.633   9.321 -2.8222 -0.8320 -0.7121
11752SOL    HW246981   1.617   1.771   9.364  0.1217 -0.0724  0.2978
11753SOL     OW46982   6.563   1.417   0.983  0.0491  0.2732  0.5124
11753SOL    HW146983   6.638   1.404   0.924 -0.9248 -0.1811 -0.6658
11753SOL    HW246984   6.486   1.401   0.928 -0.9027 -0.4343  1.9787
11754SOL     OW46985  10.247  10.114   0.085  0.4399  0.5369  0.3486
11754SOL    HW146986  10.162  10.155   0.069 -1.0947 -2.8415 -1.2682
11754SOL    HW246987  10.285  10.102  -0.002  1.9763  0.7896  0.9586
11755SOL     OW46988  10.562   8.624   6.024 -0.0437 -0.2741  0.1488
11755SOL    HW146989  10.608   8.587   6.099 -0.4786 -1.2142 -0.0342
11755SOL    HW246990  10.631   8.657   5.966  0.3268 -0.3688  0.5368
11756SOL     OW46991   1.381   7.027   3.830  0.1822  0.0214 -0.3617
11756SOL    HW146992   1.439   6.951   3.821 -0.4527 -0.6134  0.7092
11756SOL    HW246993   1.293   6.989   3.827 -0.1368  0.5384  1.4994
11757SOL     OW46994   5.177   6.682   7.553 -0.5237  0.2268 -0.0476
11757SOL    HW146995   5.178   6.664   7.459 -0.1834 -0.3774  0.0606
11757SOL    HW246996   5.269   6.673   7.579 -0.5768  0.6730  0.2924
11758SOL     OW46997   5.065  11.201   8.735  0.2067 -0.2383 -0.1806
11758SOL    HW146998   5.006  11.190   8.810  1.0270  0.7193  0.6297
11758SOL    HW246999   5.031  11.277   8.688  1.4063  1.0371  0.9309
11759SOL     OW47000   8.911   2.536  10.341  0.6172 -0.4032  0.2670
11759SOL    HW147001   8.863   2.482  10.278  2.4897 -1.6687 -0.1370
11759SOL    HW247002   8.871   2.623  10.333  0.1864 -0.7537 -2.0055
11760SOL     OW47003   2.765   2.036   8.164  0.1011  0.1045  0.2705
11760SOL    HW147004   2.826   2.110   8.166 -0.1589  0.3914 -1.2623
11760SOL    HW247005   2.817   1.963   8.130 -0.0942  0.0514  0.0781
11761SOL     OW47006   0.753   5.185   5.799 -0.3840 -0.1094 -0.0921
11761SOL    HW147007   0.710   5.193   5.884  0.2208 -1.0655  0.3169
11761SOL    HW247008   0.774   5.275   5.775 -0.3615  0.1543  0.8736
11762SOL     OW47009   4.811   6.846   9.742 -0.4459 -0.7406 -0.1591
11762SOL    HW147010   4.828   6.881   9.830 -0.0925 -1.1041 -0.0778
11762SOL    HW247011   4.877   6.888   9.686  1.2946 -2.7102  0.2869
11763SOL     OW47012   6.861   6.426   0.284  0.1981 -0.3391 -0.1757
11763SOL    HW147013   6.788   6.470   0.326 -0.8418 -1.4319 -0.7586
11763SOL    HW247014   6.939   6.461   0.327 -0.6771  0.6041  0.6931
11764SOL     OW47015  11.158   0.927   0.940  0.4492 -0.3473 -0.3205
11764SOL    HW147016  11.072   0.962   0.963  0.7296 -0.0164  0.2231
11764SOL    HW247017  11.144   0.884   0.856 -0.0784  0.3967 -0.6265
11765SOL     OW47018   6.925   8.052   3.692 -0.3248  0.0619 -0.4298
11765SOL    HW147019   6.889   8.140   3.705  1.1185  0.4170  1.6833
11765SOL    HW247020   7.015   8.067   3.664  0.1006 -0.7324  0.4786
11766SOL     OW47021   7.512   1.758   8.223 -0.8455  0.0299 -0.4917
11766SOL    HW147022   7.604   1.784   8.220 -1.3582  2.1597  0.8326
11766SOL    HW247023   7.498   1.713   8.139  1.7311 -1.7422 -0.1081
11767SOL     OW47024   4.389   3.317   2.468  0.3338  0.2712  0.5401
11767SOL    HW147025   4.475   3.350   2.494  0.9326 -0.3831 -0.5235
11767SOL    HW247026   4.371   3.359   2.385 -0.1394  0.0136  0.5098
11768SOL     OW47027   2.711  11.898   1.177  0.1921  0.7042  0.0549
11768SOL    HW147028   2.741  11.897   1.086  0.5111 -0.1222  0.1677
11768SOL    HW247029   2.770  11.838   1.223 -1.6251 -0.9855  0.2815
11769SOL     OW47030   0.108   0.034   3.770  0.4183 -0.1614 -0.2299
11769SOL    HW147031   0.053  -0.037   3.804 -0.4946  0.3734 -0.5341
11769SOL    HW247032   0.197   0.008   3.791  0.2074 -1.9420 -1.3305
11770SOL     OW47033   6.189   0.939  10.085 -0.2932  0.1701 -0.0696
11770SOL    HW147034   6.098   0.967  10.081 -0.2826  0.6431  1.9276
11770SOL    HW247035   6.212   0.943  10.178  0.7547 -3.2264 -0.0343
11771SOL     OW47036   3.656   5.261  10.921 -0.2075  0.1326  0.2030
11771SOL    HW147037   3.563   5.286  10.922  0.0241  1.0167  0.1370
11771SOL    HW247038   3.702   5.339  10.952  0.5902  0.0172 -0.6738
11772SOL     OW47039   7.703  10.157   7.866 -0.5271  0.3723 -0.2027
11772SOL    HW147040   7.679  10.185   7.777 -0.4784 -0.0232 -0.3398
11772SOL    HW247041   7.627  10.181   7.919 -0.4489  0.8587 -0.2998
11773SOL     OW47042   0.907   7.122   4.462  0.4271 -0.8620 -0.5018
11773SOL    HW147043   0.836   7.172   4.421  0.3851  0.5109  1.1449
11773SOL    HW247044   0.974   7.117   4.393 -0.1153  0.3168 -1.1508
11774SOL     OW47045   6.304   4.295   6.676  0.0233 -0.1179 -0.4388
11774SOL    HW147046   6.301   4.373   6.621  2.2290  0.8891  0.7210
11774SOL    HW247047   6.345   4.228   6.620  0.3275  0.2760 -0.6915
11775SOL     OW47048  10.126   5.078  11.042  0.2098  0.3303 -0.5812
11775SOL    HW147049  10.101   5.139  10.973  0.1052  1.6998  0.6277
11775SOL    HW247050  10.074   5.104  11.117 -0.2986 -1.6597 -0.1799
11776SOL     OW47051   2.226   4.696   7.641  1.0731  0.0460  0.1114
11776SOL    HW147052   2.189   4.613   7.612 -0.0567  0.4609  0.3303
11776SOL    HW247053   2.261   4.678   7.729  1.3026 -0.3208 -0.0543
11777SOL     OW47054   7.069  11.585   2.729 -0.0044 -0.2049  0.4342
11777SOL    HW147055   7.156  11.558   2.759  0.4383 -0.3804 -0.9208
11777SOL    HW247056   7.042  11.652   2.791  1.9346  1.2535 -0.2017
11778SOL     OW47057   0.419  10.757   0.555 -0.7979  0.0781 -0.2530
11778SOL    HW147058   0.352  10.743   0.487 -0.8254  1.5597 -0.5479
11778SOL    HW247059   0.370  10.758   0.637 -1.2204  1.6173 -0.5057
11779SOL     OW47060   0.138   5.552   9.545 -0.3570 -0.9253 -0.8368
11779SOL    HW147061   0.089   5.515   9.471  0.3129  1.7617 -2.7740
11779SOL    HW247062   0.229   5.550   9.517  0.2807 -2.2780  1.1144
11780SOL     OW47063   6.889   2.988   8.582  0.4605 -0.3416  0.8704
11780SOL    HW147064   6.893   2.893   8.597  1.1333 -0.4534  0.1266
11780SOL    HW247065   6.927   3.027   8.661  0.3682 -0.7069  1.0969
11781SOL     OW47066   3.136   5.366   6.260  0.3803  0.0084  0.4849
11781SOL    HW147067   3.182   5.433   6.312 -1.2105  0.1888  1.7386
11781SOL    HW247068   3.125   5.293   6.321  0.3580 -0.6290 -0.2739
11782SOL     OW47069   6.503   9.267   3.790  0.0941  0.7755  0.0249
11782SOL    HW147070   6.424   9.213   3.780 -0.7946  1.8592  0.9400
11782SOL    HW247071   6.533   9.248   3.879  0.9990  0.2286 -0.3828
11783SOL     OW47072   8.233  11.659   6.642  0.6532 -0.5189 -0.2514
11783SOL    HW147073   8.307  11.600   6.624 -0.0412 -1.0762 -1.4116
11783SOL    HW247074   8.156  11.604   6.635  0.1441 -0.2437  2.3147
11784SOL     OW47075   7.710   5.508   2.364  0.3315  0.2440  0.7833
11784SOL    HW147076   7.700   5.553   2.448 -2.5014 -0.2872  0.8273
11784SOL    HW247077   7.685   5.417   2.382  2.1621 -0.5001 -0.1419
11785SOL     OW47078   4.559   2.940   6.396  0.3409  0.3267 -0.1581
11785SOL    HW147079   4.568   2.858   6.347 -0.9597  0.5865 -0.8786
11785SOL    HW247080   4.494   2.990   6.347 -1.4883  0.3540  2.1308
11786SOL     OW47081   0.181   3.199   2.306 -0.2200  0.1890  0.0727
11786SOL    HW147082   0.241   3.125   2.310 -0.0277  0.3895  1.9379
11786SOL    HW247083   0.097   3.161   2.282 -0.3072 -0.7901  1.7686
11787SOL     OW47084   7.912   0.396   2.516  0.3188 -0.5352  0.6494
11787SOL    HW147085   7.942   0.400   2.606  1.8187 -1.1743  0.2068
11787SOL    HW247086   7.845   0.464   2.509  0.4317 -0.2588  2.1396
11788SOL     OW47087   1.707   0.625  10.841 -0.1048  0.1079 -0.6220
11788SOL    HW147088   1.619   0.654  10.815  0.1250  0.6264 -0.8469
11788SOL    HW247089   1.762   0.649  10.767  0.1575 -0.6115 -0.6632
11789SOL     OW47090   9.215   1.496   2.057 -0.6403 -0.4261  0.6995
11789SOL    HW147091   9.277   1.449   2.114  2.9457  2.3060 -0.5407
11789SOL    HW247092   9.181   1.566   2.113 -0.9884 -0.6830  0.8111
11790SOL     OW47093   8.625   8.567   0.746  0.0548 -0.0669  0.0784
11790SOL    HW147094   8.695   8.555   0.682  0.4169 -0.9306  0.6107
11790SOL    HW247095   8.658   8.635   0.805  0.4720 -0.4880  0.3418
11791SOL     OW47096   4.040  11.871   8.918  0.0480  0.2166  0.0617
11791SOL    HW147097   4.034  11.840   9.008 -0.5510 -0.5018 -0.2194
11791SOL    HW247098   3.994  11.805   8.866  1.5972 -0.1204 -0.9532
11792SOL     OW47099   9.879  11.872   7.716 -0.3786  0.3625  0.0332
11792SOL    HW147100   9.961  11.823   7.712 -0.2079  0.7349 -1.8029
11792SOL    HW247101   9.871  11.897   7.808 -0.0443 -2.3298  0.8954
11793SOL     OW47102   7.890   2.701  11.641  0.6937 -0.1020 -0.6897
11793SOL    HW147103   7.847   2.622  11.608  0.3853 -0.5091  0.6346
11793SOL    HW247104   7.839   2.773  11.605 -1.3406 -0.5703  1.0537
11794SOL     OW47105   0.391   5.505   9.460  0.2205  0.4676 -0.9773
11794SOL    HW147106   0.395   5.430   9.400  1.2231  0.3194 -0.7437
11794SOL    HW247107   0.426   5.578   9.410  0.0450  0.5895 -0.9230
11795SOL     OW47108   7.033  11.570  10.839 -0.0957 -0.3299 -0.4638
11795SOL    HW147109   7.049  11.558  10.746  0.7448 -0.6518 -0.2895
11795SOL    HW247110   6.965  11.638  10.843 -1.6411 -1.7455 -1.3427
11796SOL     OW47111   6.378   9.384   7.830  0.0824 -0.0704  0.1073
11796SOL    HW147112   6.312   9.418   7.770 -0.2907  3.0640  2.0971
11796SOL    HW247113   6.454   9.440   7.816  1.0313 -1.2132  0.5155
11797SOL     OW47114   7.033   9.183   0.002  0.2288  0.5168 -0.1390
11797SOL    HW147115   7.090   9.134   0.061  1.0668  1.5710 -0.0201
11797SOL    HW247116   6.991   9.117  -0.053 -0.7073 -0.5010  1.7372
11798SOL     OW47117  11.336   6.403   4.388 -0.0168 -0.0480  0.2800
11798SOL    HW147118  11.354   6.379   4.478  0.3176 -1.0563 -0.0421
11798SOL    HW247119  11.261   6.349   4.363 -2.0217  2.3080  0.8272
11799SOL     OW47120   3.641  10.057   3.043 -0.3299 -0.2280 -0.7111
11799SOL    HW147121   3.715  10.099   3.086  0.7375  0.2853 -2.9159
11799SOL    HW247122   3.668   9.966   3.032 -0.3835 -0.2381 -0.7619
11800SOL     OW47123   7.718   9.208  10.567 -0.6027  0.3971  0.3112
11800SOL    HW147124   7.751   9.291  10.532  1.5328 -0.6669 -0.4321
11800SOL    HW247125   7.697   9.227  10.658  1.4462  1.4284  0.6418
11801SOL     OW47126   6.369   1.767   6.610  0.0355  0.1675 -0.0457
11801SOL    HW147127   6.429   1.757   6.537  1.3898 -1.1424  1.1860
11801SOL    HW247128   6.425   1.781   6.686 -1.2698  0.1709  0.9569
11802SOL     OW47129   0.506   3.334  10.407  0.0848 -0.1305 -0.2889
11802SOL    HW147130   0.478   3.380  10.328 -0.7814 -2.5082 -1.4859
11802SOL    HW247131   0.561   3.262  10.375  1.5963  0.1442  1.4931
11803SOL     OW47132   7.003   7.570   3.563  0.4972  0.2191 -0.5598
11803SOL    HW147133   6.959   7.535   3.486  0.6772  0.1233 -0.6190
11803SOL    HW247134   6.963   7.655   3.577 -0.5098 -0.3374  0.0542
11804SOL     OW47135   7.040   2.252   9.307 -0.1986 -0.2966  0.1476
11804SOL    HW147136   7.128   2.256   9.271 -0.2642 -1.8444 -0.2490
11804SOL    HW247137   6.988   2.210   9.239 -1.7826  2.4543 -0.5244
11805SOL     OW47138   5.505   8.431   2.313 -0.3988  0.1254 -0.0779
11805SOL    HW147139   5.558   8.444   2.234 -1.5403 -0.2300 -0.9347
11805SOL    HW247140   5.556   8.471   2.383  0.7410  0.2729 -0.9565
11806SOL     OW47141   0.907   8.217   5.279 -0.4062  0.1255  0.2257
11806SOL    HW147142   0.881   8.134   5.319  0.8433 -0.3381  0.1033
11806SOL    HW247143   0.840   8.280   5.308 -0.8385 -0.7152  1.0817
11807SOL     OW47144  11.703   6.008   1.035  0.6436  0.1553 -0.0001
11807SOL    HW147145  11.608   6.000   1.032  0.5990  0.8907 -0.6568
11807SOL    HW247146  11.732   5.993   0.945  1.1128  0.4041  0.1055
11808SOL     OW47147  10.198   7.172   1.685  0.2652  0.4287  0.3883
11808SOL    HW147148  10.133   7.104   1.704  3.1761 -2.7959 -0.1130
11808SOL    HW247149  10.165   7.215   1.606 -1.5433 -0.5920  0.5186
11809SOL     OW47150  11.061   8.766   9.393 -0.0097 -0.1279  0.2670
11809SOL    HW147151  11.004   8.736   9.465  0.5243  0.8775  1.1320
11809SOL    HW247152  11.100   8.685   9.359 -0.0003 -0.6022  1.3546
11810SOL     OW47153   3.343   8.766   7.826 -0.5722 -0.7413 -0.9342
11810SOL    HW147154   3.287   8.747   7.751 -1.5863  0.9796 -0.6770
11810SOL    HW247155   3.427   8.792   7.787 -1.5889  1.8026 -1.6448
11811SOL     OW47156  10.168   1.678   1.791 -0.1203 -0.5437 -0.6003
11811SOL    HW147157  10.142   1.679   1.884 -0.6965  0.8622 -0.7524
11811SOL    HW247158  10.253   1.722   1.790  0.3064 -1.3497 -0.6443
11812SOL     OW47159   4.527   2.401   2.599  0.2809 -0.5168  0.4138
11812SOL    HW147160   4.490   2.389   2.511 -0.8897  1.9904  0.4951
11812SOL    HW247161   4.451   2.419   2.655  1.2447  0.7497  1.3662
11813SOL     OW47162  10.063   1.779   5.593 -0.2103 -0.0335 -0.5155
11813SOL    HW147163  10.054   1.707   5.655 -1.2133  0.3768 -0.1725
11813SOL    HW247164  10.157   1.788   5.580 -0.0224 -0.5879  0.3983
11814SOL     OW47165   8.397   0.529   8.451  0.6388 -0.3224  0.3972
11814SOL    HW147166   8.373   0.594   8.385  0.5570 -1.1872 -0.4441
11814SOL    HW247167   8.459   0.575   8.509 -3.1533  2.1716  2.9321
11815SOL     OW47168   6.374   1.313   7.737 -0.0560 -0.4109  0.0750
11815SOL    HW147169   6.316   1.297   7.663  0.7171  0.8330 -0.8444
11815SOL    HW247170   6.381   1.228   7.781 -0.4000 -1.2228 -1.3766
11816SOL     OW47171   2.024  10.099   5.305 -0.5015 -0.2100 -0.1767
11816SOL    HW147172   2.099  10.053   5.343 -0.6231  0.9857  1.6193
11816SOL    HW247173   1.947  10.056   5.343 -0.7782 -1.2275 -1.7731
11817SOL     OW47174   0.095   6.138   7.333 -0.8918 -0.1868 -0.5574
11817SOL    HW147175   0.030   6.171   7.395 -0.7694 -0.1135 -0.4668
11817SOL    HW247176   0.132   6.217   7.293  2.6764  0.2135  2.8906
11818SOL     OW47177  11.382   7.709   4.848  0.0140  0.4944 -0.1484
11818SOL    HW147178  11.396   7.795   4.810  0.7887  0.5048  0.1463
11818SOL    HW247179  11.299   7.717   4.895  0.9947  1.6882  1.5124
11819SOL     OW47180   6.522   3.801   1.956  0.2859 -0.0983  0.0542
11819SOL    HW147181   6.562   3.731   2.007  1.3154  1.0206  0.8254
11819SOL    HW247182   6.444   3.826   2.005 -0.2637 -0.8833 -0.3870
11820SOL     OW47183   5.814   5.429  11.364 -0.2126  0.0023  0.1617
11820SOL    HW147184   5.867   5.473  11.297  0.7235  0.8350  1.4109
11820SOL    HW247185   5.798   5.496  11.430 -2.2221 -0.4426  0.1978
11821SOL     OW47186   1.878  10.426   5.108  0.0403  0.0560 -1.0089
11821SOL    HW147187   1.792  10.398   5.139  0.1427 -0.2639 -1.0149
11821SOL    HW247188   1.878  10.405   5.015  0.6185 -1.1775 -0.7490
11822SOL     OW47189   3.750   7.340   4.576  0.8817 -0.1693 -0.1806
11822SOL    HW147190   3.738   7.340   4.671  1.2282 -0.9381 -0.1255
11822SOL    HW247191   3.703   7.418   4.545 -0.2666 -0.5706  0.4884
11823SOL     OW47192   9.197   5.819   8.662  0.2553 -0.4016 -0.7691
11823SOL    HW147193   9.118   5.871   8.650  0.1053 -0.3060  0.5558
11823SOL    HW247194   9.166   5.733   8.688  0.5925  0.1440  1.6248
11824SOL     OW47195   2.120   2.638   0.558 -0.3016 -0.1272 -0.1622
11824SOL    HW147196   2.210   2.612   0.539 -0.3779 -0.8066  0.3538
11824SOL    HW247197   2.069   2.557   0.549 -1.1607  0.5866 -2.2351
11825SOL     OW47198   8.200   9.783   7.882  0.0293 -0.5344  0.5281
11825SOL    HW147199   8.229   9.874   7.879 -1.1103 -0.1861 -0.7546
11825SOL    HW247200   8.279   9.733   7.862  0.2203  0.3007 -0.9695
11826SOL     OW47201   3.116   2.615   7.951 -0.1076  0.1013 -0.0029
11826SOL    HW147202   3.179   2.551   7.982 -0.2670 -0.4663 -0.8180
11826SOL    HW247203   3.170   2.684   7.911  0.0082 -0.2825 -0.5135
11827SOL     OW47204   6.139   0.511   9.471 -0.0594  0.1206  0.5131
11827SOL    HW147205   6.171   0.430   9.512 -0.5149 -0.1261  0.3821
11827SOL    HW247206   6.054   0.487   9.434 -0.3875  0.7710  0.8395
11828SOL     OW47207   8.044  11.040   5.725 -0.3213 -0.1347 -0.1200
11828SOL    HW147208   7.964  11.040   5.673 -0.3832 -0.7536 -0.0387
11828SOL    HW247209   8.084  11.125   5.709 -0.3413 -0.3189 -1.1889
11829SOL     OW47210   3.164   3.392   7.513  0.1787  0.7823  0.1226
11829SOL    HW147211   3.144   3.315   7.461 -1.7670  0.4018  1.3226
11829SOL    HW247212   3.178   3.462   7.449  1.2432 -0.3780 -0.9514
11830SOL     OW47213   4.775   0.452  11.434  0.4821 -0.4899  0.5109
11830SOL    HW147214   4.723   0.531  11.418 -0.1509 -1.1129 -0.6270
11830SOL    HW247215   4.863   0.474  11.402  0.3891 -0.1408  0.4932
11831SOL     OW47216   1.830   2.136  11.226 -0.1129 -0.3522  0.1524
11831SOL    HW147217   1.797   2.204  11.285  0.3912 -1.1609  1.4385
11831SOL    HW247218   1.923   2.130  11.248  0.2807 -0.0997 -1.3592
11832SOL     OW47219   5.968  10.969   4.135 -0.3927  0.0643 -0.1508
11832SOL    HW147220   5.880  11.003   4.116  0.1515  1.3868 -0.4297
11832SOL    HW247221   5.952  10.891   4.187 -1.7530 -0.0606 -0.6913
11833SOL     OW47222   4.095   7.365  10.090 -0.0005 -0.1348  0.0835
11833SOL    HW147223   4.149   7.286  10.085 -0.1235 -0.1928 -0.3781
11833SOL    HW247224   4.152   7.430  10.132  0.1306 -0.4410  0.3896
11834SOL     OW47225   5.077   9.544   1.163 -0.0187  0.3689  0.3534
11834SOL    HW147226   5.024   9.606   1.214 -1.0907 -1.4355  1.5464
11834SOL    HW247227   5.126   9.495   1.230 -0.6357 -1.3309 -0.3992
11835SOL     OW47228   2.299   8.889   5.554 -0.5295  0.5859 -0.0282
11835SOL    HW147229   2.300   8.933   5.639  0.3484  1.1225 -0.3016
11835SOL    HW247230   2.371   8.826   5.558  1.6250  2.7530 -1.4186
11836SOL     OW47231   6.266   3.314   9.533 -0.3160 -0.0671 -0.3739
11836SOL    HW147232   6.298   3.345   9.448  0.2309 -0.6080 -0.3727
11836SOL    HW247233   6.346   3.285   9.579 -0.8355 -1.7808 -0.4950
11837SOL     OW47234   7.414   0.042   0.819  0.1133  0.0162  0.5211
11837SOL    HW147235   7.417  -0.043   0.775  1.8099 -0.5678  1.6448
11837SOL    HW247236   7.451   0.025   0.906  2.0517  2.1737  0.2305
11838SOL     OW47237   6.042   1.330   8.882 -0.3750 -0.0558  0.6531
11838SOL    HW147238   6.091   1.356   8.960 -0.5042 -0.6123  0.9281
11838SOL    HW247239   6.085   1.250   8.852 -1.5196 -0.9565  1.3068
11839SOL     OW47240   6.510   6.482   3.774  0.1125 -0.1125  0.3598
11839SOL    HW147241   6.568   6.461   3.847  1.0048  0.3319 -0.2017
11839SOL    HW247242   6.475   6.397   3.746 -0.8576 -0.2198  1.7687
11840SOL     OW47243   0.482   2.333   3.040 -0.2028 -0.0726  0.3819
11840SOL    HW147244   0.466   2.323   3.134  1.2100 -1.8318  0.5120
11840SOL    HW247245   0.540   2.259   3.019 -0.1191  0.5596 -1.7804
11841SOL     OW47246   9.072   2.226  10.014  0.5087 -0.3989  0.2773
11841SOL    HW147247   9.034   2.263  10.094 -1.9448  0.3789 -1.1686
11841SOL    HW247248   9.077   2.132  10.031 -2.1690 -0.5650  0.5745
11842SOL     OW47249   7.889   0.776   0.681 -0.1342  0.0420  0.0363
11842SOL    HW147250   7.865   0.761   0.589  0.9478 -3.8372  0.2105
11842SOL    HW247251   7.806   0.778   0.728 -0.6411 -2.7801 -0.5670
11843SOL     OW47252   0.350   3.351   4.852 -0.4099  0.2240  0.1630
11843SOL    HW147253   0.349   3.336   4.757  2.5721 -0.0214  0.0736
11843SOL    HW247254   0.370   3.445   4.860  2.4297 -0.3332  0.4351
11844SOL     OW47255   9.197  10.244   1.155  0.0311 -0.2162 -0.5480
11844SOL    HW147256   9.231  10.332   1.138 -2.5188  0.3982 -3.3425
11844SOL    HW247257   9.219  10.227   1.247  2.7079  2.2983 -0.5769
11845SOL     OW47258   5.129   0.945   1.737  0.1538 -0.0686  0.3687
11845SOL    HW147259   5.153   0.968   1.826  0.7146 -0.0496  0.2168
11845SOL    HW247260   5.038   0.914   1.743  0.2206 -0.1501  0.9501
11846SOL     OW47261   3.790   1.692   7.401 -0.3476  0.1375 -0.1223
11846SOL    HW147262   3.733   1.634   7.351  0.1151 -0.4197 -0.0208
11846SOL    HW247263   3.874   1.645   7.405  0.1117  0.9290 -0.2513
11847SOL     OW47264   3.572   4.027   3.784 -0.1783 -0.1403  0.8626
11847SOL    HW147265   3.547   3.940   3.815 -0.6494 -0.1266  0.5256
11847SOL    HW247266   3.579   4.079   3.864  0.0351 -0.4684  1.0591
11848SOL     OW47267  11.367   2.164   8.869  0.2783  0.1449  0.3238
11848SOL    HW147268  11.368   2.214   8.950 -0.6678  0.1647  0.3358
11848SOL    HW247269  11.367   2.072   8.897  0.3243  0.1467  0.3307
11849SOL     OW47270   0.801   0.827   8.119  0.4504 -0.1825  0.0126
11849SOL    HW147271   0.840   0.793   8.038  0.3340 -1.5094  0.4831
11849SOL    HW247272   0.857   0.792   8.188 -0.7087 -0.9025  0.6122
11850SOL     OW47273  10.742   1.684   7.139  0.3787 -0.6871  0.3109
11850SOL    HW147274  10.679   1.748   7.105  1.3214 -0.2494 -0.6675
11850SOL    HW247275  10.724   1.680   7.233 -0.7163 -0.1438  0.1466
11851SOL     OW47276   8.843   1.126   6.851 -0.0828  0.1664 -0.5886
11851SOL    HW147277   8.846   1.031   6.853  2.5192  0.1738 -0.2479
11851SOL    HW247278   8.849   1.149   6.758 -0.2489 -0.0051 -0.6405
11852SOL     OW47279   3.770  10.194   0.000 -0.1399  0.4234  0.6555
11852SOL    HW147280   3.836  10.240  -0.052 -0.3339 -0.1140 -0.0879
11852SOL    HW247281   3.687  10.213  -0.044 -0.0892 -1.6711 -0.4756
11853SOL     OW47282   6.525   4.748   2.827 -0.4670  0.1413 -0.1569
11853SOL    HW147283   6.501   4.840   2.841 -0.6242  0.6605 -3.1152
11853SOL    HW247284   6.443   4.700   2.841 -0.6664  0.6018  0.2757
11854SOL     OW47285   0.082  11.517   9.439 -0.2430  0.2836  0.1237
11854SOL    HW147286   0.013  11.458   9.409 -0.8575  0.5289  0.9986
11854SOL    HW247287   0.058  11.602   9.403 -1.4811  0.7703  1.9499
11855SOL     OW47288  11.246   8.461   5.300 -0.6568  0.4064 -0.4920
11855SOL    HW147289  11.253   8.511   5.382  0.2832 -1.0049  0.3324
11855SOL    HW247290  11.315   8.394   5.306 -1.6833 -0.8285 -1.6489
11856SOL     OW47291   6.423   2.407   6.061 -0.8634  0.3005 -0.5535
11856SOL    HW147292   6.476   2.342   6.107 -1.5307  0.4015  0.4047
11856SOL    HW247293   6.339   2.405   6.106 -1.5796  0.3661 -1.8445
11857SOL     OW47294   3.753   4.406  11.320  0.2887 -0.0059  0.2830
11857SOL    HW147295   3.689   4.467  11.357 -0.5761 -0.7859  0.1221
11857SOL    HW247296   3.768   4.341  11.389  2.1443  1.0139  0.9215
11858SOL     OW47297   7.562  10.378   5.297 -0.2114  0.4676  0.0162
11858SOL    HW147298   7.491  10.390   5.233 -1.5522  1.6687  1.6172
11858SOL    HW247299   7.641  10.367   5.245 -1.4197  0.2633 -1.8374
11859SOL     OW47300   1.858   9.619  10.708  0.3852 -0.1357 -0.4419
11859SOL    HW147301   1.769   9.590  10.728  0.0924  1.1032  0.1204
11859SOL    HW247302   1.852   9.653  10.619  0.2039  0.2912 -0.2688
11860SOL     OW47303  10.547   4.233   7.581  0.1150 -0.2200  0.1282
11860SOL    HW147304  10.473   4.174   7.597 -0.2360 -0.2472 -1.4412
11860SOL    HW247305  10.553   4.286   7.661 -1.1963 -0.6440  0.5397
11861SOL     OW47306   8.632   8.296   1.601 -0.4840  0.1368 -0.0691
11861SOL    HW147307   8.652   8.203   1.590 -0.2775  0.3268 -1.5635
11861SOL    HW247308   8.557   8.298   1.661  0.8042 -0.8547  1.6616
11862SOL     OW47309   2.530  10.363   4.459  0.1482 -0.0014  0.4563
11862SOL    HW147310   2.533  10.283   4.406 -1.1698 -1.2172  2.1093
11862SOL    HW247311   2.602  10.354   4.521 -0.2638 -0.1302  0.9222
11863SOL     OW47312  11.790   7.826   6.310  0.2022 -0.8531  0.1404
11863SOL    HW147313  11.867   7.875   6.282 -0.5240  0.2672  0.0336
11863SOL    HW247314  11.824   7.759   6.370  1.0212  1.1846  2.0669
11864SOL     OW47315   0.243   3.117   4.504  0.1558 -0.0047 -0.5287
11864SOL    HW147316   0.164   3.153   4.464 -0.6710 -1.5098 -0.3214
11864SOL    HW247317   0.218   3.099   4.595  0.8740 -0.0904 -0.3371
11865SOL     OW47318  10.649   1.992   0.382  0.0607 -0.8275 -0.5156
11865SOL    HW147319  10.631   2.027   0.470  0.4665 -1.1065 -0.3174
11865SOL    HW247320  10.595   1.914   0.376 -0.1611 -0.6664 -0.6107
11866SOL     OW47321   0.691   0.439   7.818 -0.2031 -0.7078  0.1839
11866SOL    HW147322   0.693   0.532   7.797  1.3344 -1.0102 -1.2167
11866SOL    HW247323   0.703   0.436   7.913 -0.5175  0.5126  0.2813
11867SOL     OW47324  11.657   1.234   5.906 -0.6034 -0.0460  0.4239
11867SOL    HW147325  11.716   1.302   5.938  0.6793  0.5882 -2.8464
11867SOL    HW247326  11.712   1.156   5.899 -0.5208  0.1048 -1.0464
11868SOL     OW47327   5.941   5.670   3.430  0.4992 -0.3890 -0.2708
11868SOL    HW147328   5.965   5.579   3.409  4.1232  0.2619  0.2739
11868SOL    HW247329   5.929   5.670   3.525 -0.9978 -0.5223 -0.4375
11869SOL     OW47330   4.216   1.148   1.375 -0.6539 -0.3709  0.5192
11869SOL    HW147331   4.288   1.164   1.436 -0.2726 -0.1423  0.0215
11869SOL    HW247332   4.195   1.055   1.386  1.7760 -1.2983 -1.4464
11870SOL     OW47333   9.950  11.378  10.696  0.4903 -0.2766 -0.4004
11870SOL    HW147334   9.931  11.359  10.788 -1.2732 -1.8476 -1.0168
11870SOL    HW247335   9.919  11.468  10.684  3.0991  0.9446  1.0717
11871SOL     OW47336   9.126   4.638   1.976  0.0756  0.0546  0.1065
11871SOL    HW147337   9.062   4.677   2.036  0.3187  0.7648 -0.0834
11871SOL    HW247338   9.073   4.588   1.915 -0.2453  0.0515  0.3828
11872SOL     OW47339   2.684   2.035   7.573  0.0383  0.0633  0.3045
11872SOL    HW147340   2.645   1.948   7.579  0.9674 -0.6531 -2.5610
11872SOL    HW247341   2.691   2.052   7.479 -0.6563  3.5097  0.7264
11873SOL     OW47342   2.296   3.879   7.908 -0.1082  0.3376 -0.1989
11873SOL    HW147343   2.239   3.945   7.869 -0.6491  1.3465  2.1418
11873SOL    HW247344   2.242   3.801   7.915 -1.4478  1.3921  2.3525
11874SOL     OW47345   1.501  10.929   6.455  0.6995  0.2021 -0.0064
11874SOL    HW147346   1.512  11.019   6.426 -0.1358  0.6453  0.9889
11874SOL    HW247347   1.569  10.916   6.521  0.9720  0.0155 -0.3186
11875SOL     OW47348   2.593  11.737   2.503  0.4832  0.4431 -0.0261
11875SOL    HW147349   2.684  11.735   2.534 -0.2120 -3.2171  2.3520
11875SOL    HW247350   2.589  11.669   2.436 -0.3104  1.4252 -1.0204
11876SOL     OW47351   3.894   9.220   5.515  0.1828 -0.4650  0.3482
11876SOL    HW147352   3.902   9.313   5.537  0.4924 -0.5027  0.3973
11876SOL    HW247353   3.868   9.178   5.597 -0.2581 -0.3819  0.2550
11877SOL     OW47354   1.726  11.606   7.727  0.4455  0.0986 -0.6664
11877SOL    HW147355   1.750  11.519   7.758  0.6731  0.0968 -0.8459
11877SOL    HW247356   1.678  11.590   7.646  0.4582  0.1379 -0.6818
11878SOL     OW47357  11.739   4.934   6.021 -0.3622  0.6085 -0.5116
11878SOL    HW147358  11.682   4.910   5.948  0.1409 -0.7159 -0.4953
11878SOL    HW247359  11.816   4.974   5.980  0.7209 -1.6828 -0.9168
11879SOL     OW47360   1.458  11.209   6.671 -0.0358  0.1810  0.0867
11879SOL    HW147361   1.457  11.209   6.575  0.5059  1.4439  0.0621
11879SOL    HW247362   1.394  11.276   6.695  0.5811  0.6126  0.5707
11880SOL     OW47363   5.046   3.972   7.453  0.2535  0.1731  0.3435
11880SOL    HW147364   5.140   3.970   7.472  0.7877  0.2488 -2.0116
11880SOL    HW247365   5.018   4.060   7.478  1.0480  0.4981  0.1077
11881SOL     OW47366   4.708  11.735  11.434  0.0208 -0.0935  0.3048
11881SOL    HW147367   4.752  11.655  11.462 -0.7608 -0.7480 -0.2808
11881SOL    HW247368   4.726  11.741  11.340  0.9551  1.0037  0.5345
11882SOL     OW47369   2.409   6.128   2.825 -0.6269 -0.3080 -0.5063
11882SOL    HW147370   2.411   6.218   2.794  1.5683 -0.2381 -0.3700
11882SOL    HW247371   2.343   6.085   2.770 -2.3953  1.5469  0.0561
11883SOL     OW47372  10.515   4.220   2.134 -0.1390 -0.5273 -0.0779
11883SOL    HW147373  10.550   4.242   2.221 -0.6836 -1.3254  0.3606
11883SOL    HW247374  10.420   4.215   2.147 -0.1904 -1.0922 -0.6151
11884SOL     OW47375  11.056   1.245   8.858  0.4705 -0.4008 -0.0784
11884SOL    HW147376  11.016   1.165   8.891 -0.3310 -0.0793 -0.2486
11884SOL    HW247377  11.036   1.311   8.924 -0.1415 -0.0147 -0.6413
11885SOL     OW47378  10.589  11.586  11.712 -0.4414 -0.2206 -0.2220
11885SOL    HW147379  10.561  11.664  11.665 -0.7063 -0.4267 -0.4100
11885SOL    HW247380  10.554  11.513  11.661 -0.7629 -0.4470  0.3127
11886SOL     OW47381   1.241   6.901   7.113 -0.1567  0.0763 -0.4992
11886SOL    HW147382   1.323   6.897   7.162 -0.1372  2.1187 -0.2415
11886SOL    HW247383   1.179   6.848   7.164 -0.2899  2.5393  2.1877
11887SOL     OW47384   2.713   2.057   9.982  0.1167 -0.3760 -0.1380
11887SOL    HW147385   2.700   2.002  10.059  3.0435 -0.0036  0.7357
11887SOL    HW247386   2.716   2.146  10.016  1.4053 -0.2010 -0.6331
11888SOL     OW47387   2.356  10.529   5.959  0.5872  0.5460  0.2332
11888SOL    HW147388   2.433  10.479   5.986 -0.7416 -0.6444  2.0504
11888SOL    HW247389   2.334  10.496   5.872 -0.3209 -2.2538  1.4052
11889SOL     OW47390   3.601   7.239  11.482  0.5393 -0.1171  0.5590
11889SOL    HW147391   3.639   7.298  11.417 -0.6215  0.3901  0.3136
11889SOL    HW247392   3.610   7.285  11.565  0.3952  0.0389  0.4894
11890SOL     OW47393   8.549   4.028  10.155 -0.1548 -0.0442  0.9712
11890SOL    HW147394   8.608   3.980  10.213  2.1147  0.6597 -0.6324
11890SOL    HW247395   8.527   4.108  10.204  1.0838  0.1703  1.2031
11891SOL     OW47396   5.710   9.810  11.274  0.4598 -0.2874 -0.5328
11891SOL    HW147397   5.617   9.815  11.298  0.6201  1.8363 -0.1723
11891SOL    HW247398   5.755   9.860  11.342  1.8098 -0.6851 -1.0968
11892SOL     OW47399  10.653   2.379   7.533  0.7272  0.3231  0.2927
11892SOL    HW147400  10.739   2.347   7.562  0.4804 -0.0572  0.6177
11892SOL    HW247401  10.648   2.468   7.565  1.3927  0.6817 -0.5503
11893SOL     OW47402   6.386   0.974   6.316  0.0974 -0.1798  0.0495
11893SOL    HW147403   6.379   0.904   6.251  1.5516  0.6027 -1.0379
11893SOL    HW247404   6.474   1.010   6.302  1.1371 -0.9757  3.5416
11894SOL     OW47405   7.218   0.384   3.257  0.6282 -0.1965  0.0468
11894SOL    HW147406   7.229   0.465   3.207  2.9643 -0.5106 -0.0297
11894SOL    HW247407   7.307   0.352   3.272 -0.1850 -2.1400  1.1094
11895SOL     OW47408   3.337   8.545  11.690  0.1515  0.4307  0.2023
11895SOL    HW147409   3.276   8.606  11.732 -0.3614  0.3314 -0.3796
11895SOL    HW247410   3.289   8.462  11.686  0.1745  0.4443 -0.5869
11896SOL     OW47411  11.273   0.050   7.655  0.4710 -0.2132 -0.0792
11896SOL    HW147412  11.330  -0.020   7.623 -0.0309  0.3916 -2.4577
11896SOL    HW247413  11.246   0.020   7.742  0.9496 -2.5677 -0.6622
11897SOL     OW47414   8.150   9.606   8.141 -0.3961  0.2192  0.1581
11897SOL    HW147415   8.056   9.591   8.134 -0.3188  0.3476 -1.3279
11897SOL    HW247416   8.167   9.685   8.091  0.3455  0.9352  1.4683
11898SOL     OW47417   1.202   2.441  11.284  0.5413 -0.5309 -0.1323
11898SOL    HW147418   1.226   2.411  11.196  1.1280 -1.6135  0.3900
11898SOL    HW247419   1.144   2.373  11.317  0.4747 -0.2173  0.3976
11899SOL     OW47420   4.599   7.579   4.670  0.0786 -0.1375  0.7118
11899SOL    HW147421   4.568   7.491   4.648 -1.6053  0.0985  1.9141
11899SOL    HW247422   4.692   7.567   4.690  0.4271 -1.2139 -1.2877
11900SOL     OW47423   5.141   8.255   8.776  0.4065  0.6586  0.5224
11900SOL    HW147424   5.161   8.163   8.792 -1.4895 -0.0966 -1.0362
11900SOL    HW247425   5.102   8.256   8.688 -1.4703  2.6524  1.2851
11901SOL     OW47426   9.349   8.098   6.023  0.1001 -0.3725  0.5509
11901SOL    HW147427   9.320   8.033   5.959  0.1118  0.9268 -0.8519
11901SOL    HW247428   9.423   8.141   5.981  0.5106  0.1041  1.7222
11902SOL     OW47429   2.837   3.237   5.255 -0.0430 -0.6745 -0.0174
11902SOL    HW147430   2.799   3.205   5.336  1.3642 -3.0126 -0.1821
11902SOL    HW247431   2.778   3.205   5.186  0.1415 -0.9599 -0.0464
11903SOL     OW47432   3.957   4.820   1.723  0.1381 -0.2275  0.1046
11903SOL    HW147433   3.955   4.910   1.692  1.2699  0.7186  2.5495
11903SOL    HW247434   4.041   4.786   1.690 -0.1410 -0.3049 -0.5437
11904SOL     OW47435   3.080  11.952   0.193  0.2192  0.2113  0.0667
11904SOL    HW147436   3.146  11.916   0.252  0.3890  0.2880 -0.0778
11904SOL    HW247437   3.001  11.900   0.211  0.4079 -0.0969  0.0022
11905SOL     OW47438   0.322  10.435   8.369 -0.4167 -0.1219  0.2985
11905SOL    HW147439   0.409  10.441   8.409  0.4300  1.7516 -1.6124
11905SOL    HW247440   0.327  10.358   8.313 -0.7501 -1.2390  1.7264
11906SOL     OW47441   9.555  10.191   6.643 -0.7763 -0.0693  0.0515
11906SOL    HW147442   9.598  10.130   6.582  1.0250  1.1037  0.0622
11906SOL    HW247443   9.556  10.275   6.598  1.0548  0.9458  1.8043
11907SOL     OW47444   8.904   4.516   8.114  0.5863  0.1972  0.8425
11907SOL    HW147445   8.947   4.592   8.074  1.2654 -0.1548  0.8975
11907SOL    HW247446   8.814   4.546   8.129  0.8116  0.9552  0.7626
11908SOL     OW47447   3.558   3.792   4.037  0.5210  0.3162 -0.0182
11908SOL    HW147448   3.594   3.866   4.086 -1.1624  0.9018  0.3977
11908SOL    HW247449   3.526   3.732   4.104  0.2286  0.0645 -0.3779
11909SOL     OW47450   5.325   1.261   1.794  0.3249 -0.5826  0.3388
11909SOL    HW147451   5.246   1.264   1.848  0.7098 -0.4087  0.9126
11909SOL    HW247452   5.293   1.249   1.705 -0.5297  2.1338  0.1857
11910SOL     OW47453   1.609   6.098   5.344  0.1509 -0.4269 -0.0580
11910SOL    HW147454   1.590   6.192   5.351  0.6752 -0.3611  0.5988
11910SOL    HW247455   1.619   6.083   5.250 -0.0086  0.1638 -0.1766
11911SOL     OW47456  10.816   3.184   5.423 -0.2909 -0.0569  0.5195
11911SOL    HW147457  10.911   3.184   5.433 -0.3622  0.4667  1.3374
11911SOL    HW247458  10.793   3.092   5.412  0.5129 -0.0227 -2.0805
11912SOL     OW47459  11.364  10.796  10.421 -0.3869  0.2510 -0.2087
11912SOL    HW147460  11.339  10.884  10.451 -0.4235 -0.1782  1.0756
11912SOL    HW247461  11.283  10.745  10.428  0.1780 -0.4860  1.4230
11913SOL     OW47462   7.681   0.964   0.467  0.0026  0.4296  0.5542
11913SOL    HW147463   7.631   0.972   0.385  0.5549  0.5728  0.2217
11913SOL    HW247464   7.766   0.929   0.439  0.3872  0.9936  0.9884
11914SOL     OW47465   0.928  10.389   6.327 -0.7160 -0.7300 -0.5782
11914SOL    HW147466   0.936  10.439   6.246 -0.5109  0.3042  0.0560
11914SOL    HW247467   0.861  10.435   6.377 -0.0570 -0.6895  0.2930
11915SOL     OW47468   6.669   1.066  11.144  0.1375 -0.4245  0.0993
11915SOL    HW147469   6.582   1.028  11.158  0.6316 -2.2002 -1.2142
11915SOL    HW247470   6.677   1.133  11.211 -2.1948 -0.2809  0.3234
11916SOL     OW47471   0.810   5.933   9.723  0.0646  0.3334 -0.0298
11916SOL    HW147472   0.744   5.893   9.667 -1.8204  1.3125  1.4000
11916SOL    HW247473   0.841   6.009   9.674  1.6016 -1.1602 -1.5239
11917SOL     OW47474   7.057   8.363   6.576  0.0456  0.3564  0.7858
11917SOL    HW147475   7.081   8.307   6.650 -0.8136  0.4637  1.1560
11917SOL    HW247476   7.140   8.403   6.548  0.6776 -1.0190  0.5636
11918SOL     OW47477   2.732   1.722  11.179  0.3994  0.2081 -0.1261
11918SOL    HW147478   2.780   1.689  11.103 -0.2532 -0.7071 -0.1591
11918SOL    HW247479   2.717   1.645  11.234 -1.4234  0.3649 -0.3316
11919SOL     OW47480   2.703   5.812   7.946 -0.0576  0.2796  0.3129
11919SOL    HW147481   2.724   5.738   7.889  1.2833  0.6786  0.2514
11919SOL    HW247482   2.704   5.888   7.889  1.9824  0.7799  0.8980
11920SOL     OW47483   4.601   3.801   5.344 -0.3914  0.3112 -0.7433
11920SOL    HW147484   4.689   3.834   5.325  0.6564 -0.9140  1.5595
11920SOL    HW247485   4.545   3.878   5.343  1.2983  1.6443  0.7383
11921SOL     OW47486   1.677   6.925   3.663 -0.1771 -0.1366  0.8215
11921SOL    HW147487   1.664   6.987   3.590  0.2286 -1.3074 -0.2898
11921SOL    HW247488   1.757   6.955   3.705 -2.6690  3.2731  3.7150
11922SOL     OW47489   7.107   2.335   1.954  0.3178 -0.4259 -0.1366
11922SOL    HW147490   7.107   2.414   2.008  0.8498  0.0251 -0.7797
11922SOL    HW247491   7.045   2.276   1.997 -0.5331  0.5644  0.0279
11923SOL     OW47492   1.194   5.232   1.735  0.0726 -0.1389 -0.0556
11923SOL    HW147493   1.190   5.207   1.828  0.9999  0.6779  0.2207
11923SOL    HW247494   1.264   5.178   1.699 -0.3893 -0.5662 -0.3344
11924SOL     OW47495  11.848   3.214   4.907 -0.2221  0.0413 -0.3124
11924SOL    HW147496  11.892   3.277   4.964 -0.7374 -1.5902  2.0658
11924SOL    HW247497  11.901   3.211   4.828  1.5498  1.1922  0.7657
11925SOL     OW47498  10.100  11.537   4.322  0.5313 -0.0566 -0.4811
11925SOL    HW147499  10.023  11.542   4.265  1.4798 -0.0944 -1.8157
11925SOL    HW247500  10.083  11.462   4.378 -0.7059  0.3414 -0.2871
11926SOL     OW47501   7.615   9.305   5.120  0.0545  0.2968 -0.4242
11926SOL    HW147502   7.578   9.378   5.171 -2.3970 -0.7560 -0.5163
11926SOL    HW247503   7.582   9.320   5.031  0.9729 -0.0171 -0.8237
11927SOL     OW47504   7.196   9.449   3.312  0.6007 -0.2724 -0.3738
11927SOL    HW147505   7.201   9.537   3.349 -1.2321  0.3388 -1.4826
11927SOL    HW247506   7.129   9.404   3.363 -1.5534  0.4038 -2.4279
11928SOL     OW47507   5.303   8.150   7.342 -0.1656 -0.6257  0.3591
11928SOL    HW147508   5.238   8.114   7.282  0.1448 -1.1743  0.3416
11928SOL    HW247509   5.263   8.230   7.376 -0.7301 -0.8095  0.1375
11929SOL     OW47510   6.337   0.276   3.036  0.1633 -0.3816  0.1848
11929SOL    HW147511   6.282   0.199   3.017 -0.9065  0.5589 -0.6917
11929SOL    HW247512   6.317   0.337   2.965  0.0044  1.2245  1.5558
11930SOL     OW47513   5.808   5.194   7.465 -0.3168  0.3194  0.0636
11930SOL    HW147514   5.868   5.209   7.537 -1.2754  0.6089  0.8284
11930SOL    HW247515   5.736   5.143   7.503 -1.4613  1.5419 -0.3541
11931SOL     OW47516   6.176   2.421   4.191 -0.7883  0.7309  0.6705
11931SOL    HW147517   6.177   2.517   4.200 -2.0829  1.1325 -2.3311
11931SOL    HW247518   6.143   2.389   4.275  0.0728  2.8437  1.8985
11932SOL     OW47519   9.437   1.229   1.839 -0.3873  0.5407  0.1868
11932SOL    HW147520   9.458   1.146   1.795  0.1548  0.5816  0.3598
11932SOL    HW247521   9.518   1.279   1.834 -0.5364  0.8239  0.6173
11933SOL     OW47522   4.491   0.582   1.457 -0.3191 -0.1212  0.1648
11933SOL    HW147523   4.482   0.502   1.509 -0.4347 -0.8612 -0.9573
11933SOL    HW247524   4.583   0.581   1.429 -0.2484  0.2891  0.3799
11934SOL     OW47525   9.623   5.659   4.379  0.1014  0.2931  0.0371
11934SOL    HW147526   9.545   5.655   4.325  1.4011 -0.4264 -1.9214
11934SOL    HW247527   9.660   5.746   4.363  0.1852  0.2907  0.2110
11935SOL     OW47528   4.263  11.098   2.617  0.0421 -0.2774 -0.3269
11935SOL    HW147529   4.186  11.082   2.563  0.1157 -0.3078 -0.4243
11935SOL    HW247530   4.298  11.181   2.584  0.0344 -0.2483 -0.2627
11936SOL     OW47531   7.686   8.010   6.736  0.2511  0.4547 -0.2206
11936SOL    HW147532   7.765   7.961   6.713 -0.6473 -1.0263 -0.2760
11936SOL    HW247533   7.691   8.021   6.831  0.9604  1.2071 -0.3274
11937SOL     OW47534  10.921   6.893   6.522 -0.1498 -0.3490 -0.4293
11937SOL    HW147535  10.870   6.873   6.600 -0.9314  0.5652 -0.6857
11937SOL    HW247536  10.934   6.808   6.479  0.2049 -0.8489  0.6218
11938SOL     OW47537   8.984   6.005   3.009  0.4306 -0.8457 -0.0158
11938SOL    HW147538   9.037   5.939   3.055  1.0652  0.8841  1.8618
11938SOL    HW247539   9.042   6.037   2.939  0.8482 -0.8803  0.3086
11939SOL     OW47540   1.088   5.122   7.733 -0.1550 -0.2309  0.1621
11939SOL    HW147541   1.021   5.071   7.686  0.7349 -0.7645 -0.5721
11939SOL    HW247542   1.170   5.096   7.692  0.2329  3.2071 -1.6291
11940SOL     OW47543  10.359  10.886   5.532  0.3016  0.5279  0.2013
11940SOL    HW147544  10.310  10.958   5.571 -0.2824  0.9167 -1.1819
11940SOL    HW247545  10.292  10.823   5.505  0.6977  0.1907 -0.0058
11941SOL     OW47546   1.610  11.542   6.060 -0.0953 -0.1282  0.3790
11941SOL    HW147547   1.687  11.565   6.008  0.9386  1.2348  2.3421
11941SOL    HW247548   1.576  11.462   6.020  2.5742 -1.0022 -0.3783
11942SOL     OW47549   0.804   3.641  11.840  0.2144 -0.1747  0.2410
11942SOL    HW147550   0.877   3.623  11.780  0.6146 -0.1470  0.7190
11942SOL    HW247551   0.730   3.594  11.801  0.4522 -0.1085 -0.3111
11943SOL     OW47552  10.152   6.705   9.454  0.1853 -0.0717 -0.0209
11943SOL    HW147553  10.149   6.694   9.549  1.3221 -2.5546 -0.1694
11943SOL    HW247554  10.206   6.782   9.440 -0.3996  0.6141  1.3502
11944SOL     OW47555  10.971   3.161   9.414 -0.2961  0.0023 -0.1636
11944SOL    HW147556  11.058   3.122   9.423 -0.1481 -0.0421 -1.5970
11944SOL    HW247557  10.911   3.086   9.413 -0.0770 -0.2010 -2.1127
11945SOL     OW47558   8.317  10.024   4.025  0.0095 -0.4042 -0.0452
11945SOL    HW147559   8.391  10.076   3.993 -0.4058 -0.4234 -1.0555
11945SOL    HW247560   8.240  10.072   3.998 -0.3710 -1.0621 -0.1492
11946SOL     OW47561  10.940   0.336   3.360 -0.1055  0.1347 -0.0002
11946SOL    HW147562  10.950   0.384   3.278  0.0956 -0.7628 -0.5051
11946SOL    HW247563  10.846   0.332   3.374 -0.1927 -0.6630 -0.7608
11947SOL     OW47564   2.750   5.975   6.261 -0.3357 -0.3527 -0.4562
11947SOL    HW147565   2.833   5.937   6.289  0.6185  0.8351 -1.5631
11947SOL    HW247566   2.746   5.958   6.167 -1.6959 -0.9930 -0.3110
11948SOL     OW47567  11.899   2.657   6.290  0.0781 -0.1504  0.5044
11948SOL    HW147568  11.865   2.589   6.348  0.7293  0.1511  1.2543
11948SOL    HW247569  11.832   2.667   6.222 -0.5240 -0.7670  1.0028
11949SOL     OW47570   0.721   5.840  11.850 -0.0718 -0.6391  0.0279
11949SOL    HW147571   0.717   5.935  11.849 -0.1548 -0.6426  0.0730
11949SOL    HW247572   0.736   5.816  11.758 -1.5485 -0.6522 -0.2212
11950SOL     OW47573   9.044  10.713   8.940 -0.2310 -0.6243 -0.0297
11950SOL    HW147574   9.120  10.655   8.939 -0.1603 -0.5367  0.2285
11950SOL    HW247575   9.034  10.738   9.032  0.2294  0.4161 -0.2593
11951SOL     OW47576   1.873  11.262   6.011  0.2791 -0.3346  0.3539
11951SOL    HW147577   1.795  11.242   6.063 -0.5443  0.8756 -0.3841
11951SOL    HW247578   1.923  11.180   6.011 -0.0928 -0.6224  2.3308
11952SOL     OW47579   6.672   0.045   9.881 -0.4771  0.3282 -0.6894
11952SOL    HW147580   6.741   0.013   9.823  0.1294 -0.1253  0.2604
11952SOL    HW247581   6.718   0.098   9.946 -0.9977 -0.0835  0.0312
11953SOL     OW47582   1.183   2.635  10.286  0.1861  0.6854  0.0441
11953SOL    HW147583   1.148   2.718  10.252  1.0407  1.3501  0.7182
11953SOL    HW247584   1.260   2.618  10.232  1.2699  1.4944  1.2639
11954SOL     OW47585   9.038  10.716  11.948  0.4876  0.1887 -0.2781
11954SOL    HW147586   9.069  10.751  12.032  0.7115  0.4204 -0.4573
11954SOL    HW247587   9.064  10.624  11.949 -0.8655 -0.2202  0.5774
11955SOL     OW47588   3.301  11.734   0.871  0.3689 -0.1184  0.0232
11955SOL    HW147589   3.342  11.656   0.832 -0.3255 -0.8645  0.7363
11955SOL    HW247590   3.217  11.702   0.905 -0.1533  1.0654 -0.1261
11956SOL     OW47591   4.756   0.832  11.301  0.7068 -0.5671  0.1163
11956SOL    HW147592   4.762   0.923  11.271 -0.6447 -0.2724  0.6774
11956SOL    HW247593   4.822   0.826  11.371  0.7973 -0.0267  0.0808
11957SOL     OW47594   3.032   2.796   0.721 -0.5237 -0.3451  0.0096
11957SOL    HW147595   2.985   2.880   0.719  0.7116  0.3720  0.3066
11957SOL    HW247596   3.017   2.758   0.634 -0.5155  0.5168 -0.3814
11958SOL     OW47597   8.389   3.513   2.394 -0.2233  0.0966  0.5428
11958SOL    HW147598   8.295   3.520   2.412 -0.2750  0.9460  0.0085
11958SOL    HW247599   8.396   3.438   2.335 -0.4367 -0.6091  1.3932
11959SOL     OW47600   3.682   2.575   7.106  0.4296 -0.3220 -0.0875
11959SOL    HW147601   3.651   2.528   7.029  0.6050 -1.2073  0.3595
11959SOL    HW247602   3.695   2.665   7.077  1.0038 -0.7612 -1.2276
11960SOL     OW47603   2.941   6.324   4.739  0.1437 -0.2332 -0.5240
11960SOL    HW147604   2.948   6.290   4.650 -1.0970  0.5052 -0.9355
11960SOL    HW247605   2.850   6.355   4.745  0.6203  1.0416  0.5174
11961SOL     OW47606   8.345   6.829   2.158 -0.2999  0.0311  0.1074
11961SOL    HW147607   8.278   6.768   2.130 -1.0437  1.5630 -1.6524
11961SOL    HW247608   8.308   6.872   2.235 -1.4250  0.8996 -0.8774
11962SOL     OW47609   6.660   8.523   0.867 -0.0888  0.0029 -0.0853
11962SOL    HW147610   6.650   8.562   0.781  0.7261  0.9220  0.2065
11962SOL    HW247611   6.577   8.540   0.912 -0.5019 -0.4528 -0.6686
11963SOL     OW47612   9.325   0.218   8.870 -0.1288  0.3768 -0.1166
11963SOL    HW147613   9.376   0.208   8.790 -0.1146  0.0310 -0.0667
11963SOL    HW247614   9.310   0.128   8.901 -2.4102  0.3181 -1.1583
11964SOL     OW47615   5.079   8.280   6.867  0.4107  0.5356 -0.1215
11964SOL    HW147616   5.159   8.228   6.857  0.0500 -0.1402  0.3500
11964SOL    HW247617   5.062   8.278   6.961 -0.9534 -0.5782 -0.3623
11965SOL     OW47618   4.010   0.667   6.367 -0.1179  0.3376  0.0101
11965SOL    HW147619   4.043   0.728   6.434  0.5763  0.2647 -0.2540
11965SOL    HW247620   4.088   0.621   6.337 -0.5159 -0.0601 -0.4198
11966SOL     OW47621   3.140   2.570   0.914  0.3650 -0.2805 -0.6807
11966SOL    HW147622   3.086   2.522   0.851 -1.1076 -0.5443  0.7063
11966SOL    HW247623   3.146   2.659   0.878 -1.6751 -0.0332 -0.5200
11967SOL     OW47624   8.908  11.005   4.688  0.0703  0.3231 -0.2055
11967SOL    HW147625   8.898  10.991   4.594  0.0701 -0.0022 -0.1592
11967SOL    HW247626   8.841  11.070   4.710 -0.9862 -0.7340 -0.1594
11968SOL     OW47627   4.862   0.896   8.326 -0.4187 -0.2301 -0.7140
11968SOL    HW147628   4.898   0.833   8.264  0.9306  0.3604 -0.5542
11968SOL    HW247629   4.933   0.913   8.387 -1.8840 -1.2201  1.3701
11969SOL     OW47630   4.333   9.101   6.388 -0.6814  0.5682  0.0820
11969SOL    HW147631   4.261   9.070   6.444  0.0934  0.1090  0.8578
11969SOL    HW247632   4.408   9.047   6.414 -0.5125 -0.3582 -2.1137
11970SOL     OW47633   3.447   2.549   6.495 -0.3609 -0.3102  0.6417
11970SOL    HW147634   3.406   2.471   6.458 -0.2454 -1.2503  2.3583
11970SOL    HW247635   3.435   2.539   6.590  0.5754  1.2498  0.9569
11971SOL     OW47636   8.001   4.609   6.355  0.0125  0.1983  0.2085
11971SOL    HW147637   7.912   4.612   6.320 -0.0224 -0.1491  0.2668
11971SOL    HW247638   8.009   4.522   6.394  0.2134  0.4110  0.6447
11972SOL     OW47639   3.251   9.861   6.608 -0.3285 -0.1487 -0.4941
11972SOL    HW147640   3.330   9.910   6.632 -2.3359  2.4095  1.4462
11972SOL    HW247641   3.264   9.840   6.515  2.7762 -0.2405 -0.1556
11973SOL     OW47642   3.737   9.241   1.410  0.5908 -0.5261  0.1659
11973SOL    HW147643   3.729   9.148   1.431  0.6851 -0.1076  2.2696
11973SOL    HW247644   3.708   9.286   1.489 -1.8139  1.3183 -1.5993
11974SOL     OW47645   7.517   9.797   1.650  0.0507  0.3563  0.2201
11974SOL    HW147646   7.515   9.827   1.741 -1.0222 -0.6037  0.5311
11974SOL    HW247647   7.566   9.865   1.604  3.6605 -0.7515  2.0568
11975SOL     OW47648   9.618   1.117   3.843  0.2242  0.3074  0.8496
11975SOL    HW147649   9.678   1.191   3.838  0.1265  0.5209  2.3408
11975SOL    HW247650   9.560   1.139   3.916 -0.0382 -1.0729  1.0761
11976SOL     OW47651   3.010   5.211  10.396 -0.2518  0.1622  0.0520
11976SOL    HW147652   2.997   5.215  10.301  1.4486 -2.3359 -0.3919
11976SOL    HW247653   3.095   5.253  10.410 -1.0891  1.7050  0.6908
11977SOL     OW47654   8.645   2.589   2.503  0.0162 -0.1941 -0.0174
11977SOL    HW147655   8.684   2.511   2.464  1.9527 -0.3488  2.0492
11977SOL    HW247656   8.658   2.578   2.597  1.2032  3.0336  0.3138
11978SOL     OW47657   2.324   6.267   9.378 -0.6226  0.4827  0.2875
11978SOL    HW147658   2.385   6.224   9.439  0.5578 -0.8618 -1.7125
11978SOL    HW247659   2.351   6.359   9.379  0.3215  0.2191  0.7292
11979SOL     OW47660  10.994  11.735   7.566  0.0325 -0.2822  0.6130
11979SOL    HW147661  10.921  11.709   7.510  0.2177 -2.5103  1.2928
11979SOL    HW247662  11.069  11.741   7.507 -0.5201  1.2277  0.0383
11980SOL     OW47663   1.142   0.889   7.892 -0.2389  0.3302 -0.2944
11980SOL    HW147664   1.054   0.850   7.890 -0.7352  1.4597 -0.8733
11980SOL    HW247665   1.193   0.835   7.832 -0.2325 -0.9887  0.8397
11981SOL     OW47666   1.823   6.546   9.598  0.2842 -0.3668  0.3375
11981SOL    HW147667   1.735   6.538   9.562  1.2590 -0.9797 -2.0703
11981SOL    HW247668   1.809   6.567   9.691 -2.3708  0.4743 -0.1696
11982SOL     OW47669   9.984   8.388   8.568  0.4893 -0.4884  0.5618
11982SOL    HW147670   9.944   8.410   8.484  0.0305  1.1667  1.1714
11982SOL    HW247671  10.053   8.325   8.547  0.7032  0.2743 -1.1069
11983SOL     OW47672   5.101   2.837   3.311 -0.5382 -0.5800  0.3598
11983SOL    HW147673   5.087   2.798   3.398 -2.0013 -0.6594  0.1219
11983SOL    HW247674   5.012   2.856   3.280  0.0779  1.9133 -0.0204
11984SOL     OW47675   6.674   4.881   0.166  0.5294 -0.1264 -0.2180
11984SOL    HW147676   6.762   4.849   0.183  0.9210 -0.3837 -2.3864
11984SOL    HW247677   6.665   4.959   0.221  1.6665 -0.7481  0.8794
11985SOL     OW47678   1.896   4.459  10.391  0.3228 -0.2507 -0.1443
11985SOL    HW147679   1.983   4.468  10.428  0.7747  1.0181 -1.4159
11985SOL    HW247680   1.874   4.366  10.401  1.2203 -0.3239  1.4232
11986SOL     OW47681   9.897   4.414   6.517  0.6987 -0.1124  0.5077
11986SOL    HW147682   9.898   4.460   6.433  0.1016 -0.7283  0.1560
11986SOL    HW247683   9.983   4.374   6.524  0.4975 -0.6695 -0.1590
11987SOL     OW47684  10.367   0.706  11.623  0.2679  0.0918 -0.7687
11987SOL    HW147685  10.290   0.650  11.628  0.5016 -0.2277 -0.7386
11987SOL    HW247686  10.338   0.782  11.572 -0.4560  0.6047  0.3620
11988SOL     OW47687   8.372   0.533   8.059 -0.0962  0.1404 -0.0346
11988SOL    HW147688   8.375   0.438   8.065 -0.6592  0.1196 -0.0357
11988SOL    HW247689   8.463   0.559   8.042  0.1492 -0.3568  0.4701
11989SOL     OW47690   1.260   6.669   3.633  0.4922  0.0976  0.3330
11989SOL    HW147691   1.234   6.744   3.687 -0.5957  0.7762 -1.0723
11989SOL    HW247692   1.230   6.593   3.682 -0.1339  0.6796  0.8732
11990SOL     OW47693   9.722  10.281   7.908 -0.2016  0.1157  0.5712
11990SOL    HW147694   9.678  10.220   7.848  1.0617 -0.5809  0.3137
11990SOL    HW247695   9.725  10.234   7.991  2.4801 -1.0975 -0.0781
11991SOL     OW47696   5.085   5.700   0.062 -0.0592  0.3870  0.1613
11991SOL    HW147697   5.055   5.788   0.086  0.5528  0.6850 -0.1296
11991SOL    HW247698   5.180   5.708   0.058 -0.0086 -0.2543 -0.0268
11992SOL     OW47699   9.962   5.183  11.304 -0.5309 -0.1862 -0.6083
11992SOL    HW147700   9.900   5.208  11.373  0.8686 -1.9076  1.3876
11992SOL    HW247701  10.033   5.246  11.312  0.4020 -1.3254  0.7323
11993SOL     OW47702   6.745  10.501   6.854 -0.3033 -0.4248 -0.0453
11993SOL    HW147703   6.766  10.444   6.781  0.3943 -1.2370  0.7645
11993SOL    HW247704   6.822  10.558   6.865 -1.1226  0.9462 -1.0593
11994SOL     OW47705   2.599   7.499   7.642 -0.1790  0.3463  0.1677
11994SOL    HW147706   2.566   7.565   7.582 -0.2528  0.3083  0.1659
11994SOL    HW247707   2.676   7.462   7.598 -0.2885  0.2515  0.0531
11995SOL     OW47708   1.357   1.845   0.383  0.2743 -0.4727  0.1656
11995SOL    HW147709   1.360   1.751   0.398  1.6892 -0.7518 -1.4833
11995SOL    HW247710   1.448   1.874   0.391 -0.0728  0.6696  0.2122
11996SOL     OW47711   2.316   7.620  11.036  0.1917 -0.7445 -0.3313
11996SOL    HW147712   2.319   7.528  11.062 -0.1975 -0.6471  0.0637
11996SOL    HW247713   2.368   7.666  11.101  0.1711 -0.6516 -0.3793
11997SOL     OW47714   6.075   5.007   2.325 -0.1838 -0.0436 -0.1870
11997SOL    HW147715   6.064   5.003   2.420 -1.6031 -0.3698 -0.3344
11997SOL    HW247716   6.062   4.917   2.295  0.6791 -0.0218 -0.6667
11998SOL     OW47717   1.642   0.979  11.607  0.2266 -0.6168  0.0444
11998SOL    HW147718   1.586   1.053  11.584  0.9648 -0.0468  0.0602
11998SOL    HW247719   1.614   0.954  11.696  1.2063  0.8387  0.8001
11999SOL     OW47720   6.845  10.515   7.501  0.4395 -0.1973 -0.4539
11999SOL    HW147721   6.934  10.506   7.533 -0.1964  0.7085  1.7838
11999SOL    HW247722   6.825  10.609   7.508  0.2435  0.1584 -3.8197
12000SOL     OW47723   1.054   7.541  11.712  0.4363  0.1040 -0.3196
12000SOL    HW147724   1.040   7.503  11.625  0.7320  1.0396 -0.7973
12000SOL    HW247725   1.138   7.505  11.740  1.1033  0.9752 -1.1120
12001SOL     OW47726   6.873   4.147   9.067 -0.0354 -0.1387  0.5944
12001SOL    HW147727   6.928   4.212   9.112 -0.9912  0.5044  0.8698
12001SOL    HW247728   6.884   4.166   8.974  2.6441 -2.0310  0.4132
12002SOL     OW47729   5.613   3.799  10.977 -0.8395  0.2055  0.1058
12002SOL    HW147730   5.574   3.871  10.927 -0.6764 -0.2338 -0.6678
12002SOL    HW247731   5.611   3.829  11.068  1.1008  2.0361 -0.4010
12003SOL     OW47732   9.095   5.138   8.004 -0.1650  0.6792  0.1016
12003SOL    HW147733   9.172   5.080   8.006 -0.3412  0.3713 -1.1245
12003SOL    HW247734   9.028   5.089   8.052 -0.7830 -0.8983 -2.2067
12004SOL     OW47735   5.756   5.344  10.496 -0.0291 -0.2711  0.4403
12004SOL    HW147736   5.780   5.253  10.477 -0.3910 -0.5572  1.3034
12004SOL    HW247737   5.815   5.369  10.567 -0.4679 -0.0966  0.7457
12005SOL     OW47738   1.423   4.852   9.474  0.1905 -0.2321  0.0655
12005SOL    HW147739   1.496   4.913   9.488 -0.2751  0.0442  1.3411
12005SOL    HW247740   1.440   4.816   9.387  1.6409  0.1111  0.1741
12006SOL     OW47741   8.014   6.433  11.353  0.2896 -0.2784  0.2063
12006SOL    HW147742   8.099   6.439  11.398  0.4336  1.3714 -0.2170
12006SOL    HW247743   8.037   6.429  11.260 -0.0881  0.2966  0.0841
12007SOL     OW47744  10.497   9.036   7.030 -0.6685 -0.2509 -0.2961
12007SOL    HW147745  10.442   9.109   7.002  0.4795  0.7245 -0.1102
12007SOL    HW247746  10.512   8.985   6.951  0.0697  0.7908 -0.8454
12008SOL     OW47747   4.011   1.036   4.207 -0.4411  0.1037 -0.4376
12008SOL    HW147748   4.005   1.126   4.239  1.3825 -0.6675  2.3802
12008SOL    HW247749   4.102   1.026   4.180 -0.7207 -0.8175 -1.0957
12009SOL     OW47750   8.804   1.839   9.260  0.3214 -0.3413  0.1070
12009SOL    HW147751   8.796   1.761   9.315  1.3085 -1.2082 -0.9406
12009SOL    HW247752   8.804   1.912   9.322 -1.4151 -1.0975  1.0534
12010SOL     OW47753   0.869   5.105   3.954 -0.2591 -0.5510 -0.4654
12010SOL    HW147754   0.852   5.019   3.916  1.5309 -0.7765 -0.8766
12010SOL    HW247755   0.844   5.168   3.886  2.2402 -0.9283 -1.8469
12011SOL     OW47756   3.995   2.219   1.812  0.4822 -0.1345  0.4839
12011SOL    HW147757   4.033   2.288   1.758  0.3441 -0.1050  0.4239
12011SOL    HW247758   3.971   2.150   1.750  1.4393 -0.6242  0.6319
12012SOL     OW47759   7.847   1.100   7.926 -0.5617 -0.1296 -0.4031
12012SOL    HW147760   7.905   1.030   7.956 -1.2848 -0.2878  0.7343
12012SOL    HW247761   7.776   1.054   7.881 -0.0188  0.0320 -1.4361
12013SOL     OW47762   4.382   3.708  11.939 -0.0965 -0.0782  0.3788
12013SOL    HW147763   4.367   3.755  11.857 -0.9733 -0.3495  0.3839
12013SOL    HW247764   4.363   3.617  11.918  0.1562 -0.2207  0.7612
12014SOL     OW47765   6.903   6.365   4.315  0.1753  0.2979 -0.0079
12014SOL    HW147766   6.833   6.334   4.257  0.1474  1.5383 -0.6696
12014SOL    HW247767   6.884   6.323   4.399 -2.4759  1.9718  0.3641
12015SOL     OW47768   5.432  11.688   6.456  0.2655 -0.7677 -0.1394
12015SOL    HW147769   5.359  11.740   6.423 -0.5626 -2.0735 -0.4398
12015SOL    HW247770   5.507  11.747   6.451 -0.6825  0.4948 -0.1668
12016SOL     OW47771   6.541   3.586   3.692 -0.0759  0.3008  0.7135
12016SOL    HW147772   6.478   3.609   3.760 -0.5216  0.2782  0.3089
12016SOL    HW247773   6.616   3.644   3.709 -0.2276  0.3726  1.1557
12017SOL     OW47774   6.812   7.862   8.551 -0.2123  0.4714  0.1658
12017SOL    HW147775   6.892   7.851   8.602  0.5801 -1.5466 -1.3721
12017SOL    HW247776   6.822   7.948   8.509 -0.3052  1.5893  2.2905
12018SOL     OW47777   9.199   5.807   2.358  0.1028 -0.5199 -0.1750
12018SOL    HW147778   9.238   5.892   2.374  1.6972 -1.3092  0.3023
12018SOL    HW247779   9.182   5.805   2.263 -0.9257  0.6893 -0.0409
12019SOL     OW47780   9.914   3.954  11.176  0.1705 -0.3045  0.7162
12019SOL    HW147781   9.953   3.879  11.130 -1.8180 -0.3010 -1.1191
12019SOL    HW247782   9.869   4.004  11.107  0.4333  1.9544  2.0786
12020SOL     OW47783   5.729   8.313   6.614  0.4491 -0.4312 -0.2817
12020SOL    HW147784   5.706   8.232   6.569  0.9900 -0.3290 -0.7508
12020SOL    HW247785   5.822   8.326   6.595  0.6204 -0.2355  0.6419
12021SOL     OW47786   2.651   1.732   8.052 -0.1760 -0.6266  0.2557
12021SOL    HW147787   2.663   1.653   8.104 -0.8855  0.4634  2.1741
12021SOL    HW247788   2.738   1.770   8.046 -0.2980 -0.0230  1.9404
12022SOL     OW47789   4.406   1.555   6.515  0.2741 -0.1474 -0.4671
12022SOL    HW147790   4.450   1.474   6.491  2.2533  1.0175 -1.0170
12022SOL    HW247791   4.456   1.589   6.589 -0.7668  0.3963  0.0199
12023SOL     OW47792   6.628   9.567   5.116  0.0287  0.0129  0.0991
12023SOL    HW147793   6.626   9.552   5.211 -1.2506  0.2091  0.1292
12023SOL    HW247794   6.666   9.487   5.080  2.6396  0.8203  0.8888
12024SOL     OW47795   4.304   3.302   3.346  0.1595 -0.4526 -0.3209
12024SOL    HW147796   4.255   3.379   3.376 -0.1542  0.8384 -3.6679
12024SOL    HW247797   4.396   3.328   3.352  0.1662 -0.6054  0.3671
12025SOL     OW47798   9.378   4.434   4.787 -0.0565 -0.3880  0.3806
12025SOL    HW147799   9.387   4.518   4.831 -0.9211 -0.1674  0.1452
12025SOL    HW247800   9.441   4.377   4.831  0.6295  0.4047  0.4603
12026SOL     OW47801   3.719   6.092   9.072 -0.3109 -0.3791  0.2397
12026SOL    HW147802   3.699   6.042   8.993  1.2087  1.2857 -1.2775
12026SOL    HW247803   3.681   6.178   9.056  0.5738  0.1724  1.0374
12027SOL     OW47804  10.301   1.239   6.837  0.1389  0.4572  0.3749
12027SOL    HW147805  10.328   1.287   6.915  0.1812  1.1156 -0.0377
12027SOL    HW247806  10.212   1.208   6.857  1.0247 -1.4515  1.6177
12028SOL     OW47807   7.624   8.635   1.100  0.0517  0.5195  0.1703
12028SOL    HW147808   7.560   8.679   1.155 -1.6030 -1.3993 -0.0812
12028SOL    HW247809   7.679   8.587   1.162 -0.2967  0.2664  0.2902
12029SOL     OW47810   3.290   5.398   7.346 -0.6440 -0.4849  0.1219
12029SOL    HW147811   3.279   5.470   7.409 -1.9966 -0.5925  0.0283
12029SOL    HW247812   3.215   5.405   7.288 -0.5844 -1.7463 -0.1333
12030SOL     OW47813  11.815   2.858   1.225  0.9026  0.2286  0.5760
12030SOL    HW147814  11.775   2.926   1.171  0.4533 -1.7455 -1.7362
12030SOL    HW247815  11.749   2.836   1.290 -0.4325 -0.5147 -0.9786
12031SOL     OW47816  11.569   7.594  10.865 -0.7588  0.5216  0.5270
12031SOL    HW147817  11.478   7.575  10.842 -0.0565 -2.0220 -0.4836
12031SOL    HW247818  11.610   7.619  10.783  0.2208 -2.0089  0.1405
12032SOL     OW47819   7.664   6.479   8.178 -0.1885  0.4318  0.3447
12032SOL    HW147820   7.664   6.487   8.273 -0.5934  3.1610  0.1966
12032SOL    HW247821   7.756   6.487   8.153 -0.2524  1.5771  0.4329
12033SOL     OW47822   8.827   2.537   1.874  0.3254  0.3886 -0.3371
12033SOL    HW147823   8.839   2.453   1.918  0.7079  0.3858 -0.4460
12033SOL    HW247824   8.915   2.572   1.864  0.2114  0.5565 -0.7751
12034SOL     OW47825  11.660   8.027   1.255 -0.1523 -0.1387 -0.5846
12034SOL    HW147826  11.736   8.021   1.313 -1.1065  1.0487  0.8773
12034SOL    HW247827  11.660   8.118   1.225  0.4615 -0.7911 -2.7207
12035SOL     OW47828   7.258   8.286   9.465 -0.3743 -0.2322 -0.3622
12035SOL    HW147829   7.169   8.255   9.479 -0.4019  0.4833  1.2475
12035SOL    HW247830   7.314   8.223   9.511 -0.3475  1.3183  1.8468
12036SOL     OW47831   0.561  10.970   9.924  0.0983 -0.1001  0.3687
12036SOL    HW147832   0.507  10.891   9.930 -0.0009  0.0623  2.0125
12036SOL    HW247833   0.499  11.042   9.932 -0.0182  0.2650 -2.6141
12037SOL     OW47834   4.680  10.092   4.354  0.4159  0.0018  0.2036
12037SOL    HW147835   4.708  10.142   4.278  1.3455  0.4836  0.8372
12037SOL    HW247836   4.661  10.158   4.421  0.4160 -0.4345  0.6447
12038SOL     OW47837  10.774   4.422   0.246 -0.3445 -0.5593 -0.4469
12038SOL    HW147838  10.782   4.340   0.296  2.1260 -0.0442  0.1522
12038SOL    HW247839  10.777   4.394   0.155  0.9848 -1.1628 -0.2509
12039SOL     OW47840   4.131   2.096  11.905  0.4713 -0.2058  0.3520
12039SOL    HW147841   4.043   2.065  11.886  0.9826 -1.1256 -0.6179
12039SOL    HW247842   4.131   2.187  11.873 -0.1963 -0.1021  0.6238
12040SOL     OW47843   2.111   6.723   5.754  0.2628 -0.6605 -0.2098
12040SOL    HW147844   2.072   6.637   5.770  0.9716 -0.8312  0.6897
12040SOL    HW247845   2.154   6.714   5.669  0.3465 -1.1997 -0.1123
12041SOL     OW47846  10.201   8.948   9.149 -0.4004 -0.4937  0.3456
12041SOL    HW147847  10.244   8.924   9.231 -0.1324  1.6990  0.9282
12041SOL    HW247848  10.236   8.886   9.085 -0.5847 -2.2376  1.8440
12042SOL     OW47849   4.618   6.011   1.094  0.1711  0.6661  0.3698
12042SOL    HW147850   4.668   5.946   1.044  1.4796  2.0950 -0.2807
12042SOL    HW247851   4.580   5.962   1.166 -0.5786 -1.1943 -1.1973
12043SOL     OW47852   4.425   4.431   2.507 -0.4521  0.1752 -0.9472
12043SOL    HW147853   4.419   4.518   2.468  0.1854  0.4607 -0.4237
12043SOL    HW247854   4.338   4.415   2.543 -0.3059  1.0168 -0.1793
12044SOL     OW47855   5.418   9.536  10.425 -0.5510 -0.4558  0.2315
12044SOL    HW147856   5.435   9.451  10.466  1.6752  0.5725  1.6674
12044SOL    HW247857   5.447   9.600  10.490 -1.3425  1.4006 -1.1555
12045SOL     OW47858   6.878   3.220   5.052  0.1930 -0.4550 -0.3529
12045SOL    HW147859   6.791   3.245   5.082  0.5089  0.7700 -0.4085
12045SOL    HW247860   6.918   3.177   5.127  1.7294  4.3537  1.9958
12046SOL     OW47861   3.799   2.374   7.301  0.8835  0.2828  0.5158
12046SOL    HW147862   3.780   2.435   7.230 -0.2076 -0.0393  0.5235
12046SOL    HW247863   3.802   2.430   7.379 -2.0300  0.1595  0.8291
12047SOL     OW47864   6.036   3.201   8.078 -0.3540 -0.1701  0.2823
12047SOL    HW147865   6.040   3.136   8.148 -0.4882 -0.5960 -0.1007
12047SOL    HW247866   6.028   3.285   8.123 -1.3662 -0.5107  0.7783
12048SOL     OW47867   3.757  11.317   8.659  0.5174 -0.5602  0.2178
12048SOL    HW147868   3.808  11.380   8.609 -1.2815  0.6927 -0.1570
12048SOL    HW247869   3.766  11.344   8.750 -0.5028  0.4770  0.0285
12049SOL     OW47870   1.524   3.229   8.568 -0.3627 -0.6471  0.4750
12049SOL    HW147871   1.514   3.267   8.481  2.1589  0.8372  0.7524
12049SOL    HW247872   1.482   3.292   8.627  0.5054 -0.1613  0.5847
12050SOL     OW47873   0.690   0.057   5.199  0.1650 -0.1974  0.2064
12050SOL    HW147874   0.717   0.003   5.274  0.6774 -0.5884 -0.2546
12050SOL    HW247875   0.597   0.038   5.188 -0.0127  0.1669  0.9882
12051SOL     OW47876   2.151   0.144   7.167 -0.1019 -0.7082  0.6803
12051SOL    HW147877   2.160   0.050   7.183 -0.0734 -0.7802  0.2627
12051SOL    HW247878   2.234   0.170   7.127 -0.1971 -0.5517  0.5845
12052SOL     OW47879  11.006   2.146   4.231 -0.3324  0.3615  0.9261
12052SOL    HW147880  11.086   2.115   4.188 -1.8061 -0.0328 -1.8054
12052SOL    HW247881  10.975   2.070   4.280 -0.1009 -0.1756  0.2630
12053SOL     OW47882   6.978   6.269   2.487 -0.3126  0.0100 -0.7782
12053SOL    HW147883   6.888   6.303   2.487 -0.4068 -0.2328 -1.2031
12053SOL    HW247884   6.968   6.177   2.512 -0.0721  0.2411  0.2335
12054SOL     OW47885   9.947  10.835   5.186 -0.0078  0.1132  0.3943
12054SOL    HW147886   9.953  10.757   5.240 -0.8761  0.4446  1.0072
12054SOL    HW247887   9.853  10.845   5.169 -0.0749  1.7357  1.4459
12055SOL     OW47888  10.299   7.384  10.863 -0.9163  0.0929 -0.3039
12055SOL    HW147889  10.234   7.443  10.902 -0.5574  0.9198 -0.9095
12055SOL    HW247890  10.381   7.435  10.863 -0.1354 -1.0993  0.8937
12056SOL     OW47891   0.700   6.919   1.691 -0.2963 -0.4854  0.5923
12056SOL    HW147892   0.698   6.824   1.704 -0.4949 -0.6100 -0.2735
12056SOL    HW247893   0.611   6.948   1.711 -0.8859 -0.8144 -1.3324
12057SOL     OW47894   3.188   4.501   6.793  0.1423  0.3574  0.3148
12057SOL    HW147895   3.197   4.597   6.791  2.4008  0.1961 -0.3904
12057SOL    HW247896   3.201   4.478   6.885  4.4369  0.4926 -0.0682
12058SOL     OW47897   9.423   9.584   1.662 -0.3725 -0.3419 -0.0476
12058SOL    HW147898   9.477   9.563   1.738 -1.3053  0.3340  0.8234
12058SOL    HW247899   9.476   9.645   1.611 -0.1462 -0.0072  0.5811
12059SOL     OW47900   3.660  10.514   2.850  0.1750 -0.3738 -0.5266
12059SOL    HW147901   3.755  10.506   2.847  0.3404  1.3624 -0.8280
12059SOL    HW247902   3.636  10.492   2.940  0.6021 -2.7515 -0.9095
12060SOL     OW47903   3.548   9.975  10.737 -0.0261 -0.0253  0.0937
12060SOL    HW147904   3.454   9.958  10.732  0.2726 -1.3519 -1.9461
12060SOL    HW247905   3.589   9.899  10.695  1.9812  0.4189  1.1316
12061SOL     OW47906   7.153   2.406   5.147  0.3111 -0.5923 -0.6279
12061SOL    HW147907   7.207   2.403   5.068  1.3141 -0.8897  0.0488
12061SOL    HW247908   7.212   2.437   5.216  0.1636 -2.7436  0.5579
12062SOL     OW47909  10.863   2.971  10.292  0.4711  0.1195  0.4252
12062SOL    HW147910  10.774   2.974  10.257 -0.0610  2.9412  1.7256
12062SOL    HW247911  10.909   3.041  10.246  1.1117  0.7210  1.9126
12063SOL     OW47912   8.008   1.826   3.713  0.2200 -0.5946  0.3377
12063SOL    HW147913   7.999   1.902   3.655 -0.5117 -0.2675  0.8628
12063SOL    HW247914   8.103   1.810   3.717  0.2364 -1.4157 -1.9281
12064SOL     OW47915   4.902   0.413   6.425 -0.0457  0.1869 -0.1209
12064SOL    HW147916   4.914   0.487   6.365  0.7642  0.3481  0.2264
12064SOL    HW247917   4.930   0.336   6.375  0.5619  0.3119  0.0257
12065SOL     OW47918   7.190   9.975   3.046  0.3265  0.8342  0.0846
12065SOL    HW147919   7.134  10.045   3.080  1.3321  1.6372  0.1190
12065SOL    HW247920   7.246  10.017   2.982  1.3295  0.1854  0.5012
12066SOL     OW47921  10.066   4.352   0.881 -0.3258  0.3647 -0.0402
12066SOL    HW147922  10.045   4.353   0.788 -3.7615 -0.8983  0.5588
12066SOL    HW247923  10.029   4.435   0.914 -0.5046  0.1065  0.4151
12067SOL     OW47924   2.063   3.751   7.683 -0.4718  0.3836  0.6836
12067SOL    HW147925   2.152   3.721   7.704 -0.5989 -0.4791  0.0313
12067SOL    HW247926   2.015   3.671   7.664 -1.2222  0.9028  0.3609
12068SOL     OW47927  10.255   8.247   6.524  0.3381  0.0651 -0.3643
12068SOL    HW147928  10.315   8.291   6.584  1.9850 -2.0432 -0.3360
12068SOL    HW247929  10.215   8.177   6.576 -0.8285  0.3314 -0.8624
12069SOL     OW47930   5.691   2.091  10.633 -0.1408  0.1008 -0.2615
12069SOL    HW147931   5.759   2.120  10.694  0.1025  0.4931 -0.7109
12069SOL    HW247932   5.739   2.073  10.551 -0.4378 -0.5806 -0.2910
12070SOL     OW47933  10.823  10.317   9.282  0.3214  0.6627 -0.2776
12070SOL    HW147934  10.779  10.302   9.365  2.6440 -1.2700  0.7490
12070SOL    HW247935  10.821  10.232   9.238  3.2593  0.3211  0.0503
12071SOL     OW47936   1.225   9.312   9.533  0.0465  0.3117 -0.2897
12071SOL    HW147937   1.287   9.281   9.467 -0.8567 -0.4201 -0.8181
12071SOL    HW247938   1.143   9.325   9.485 -0.7423 -0.6442  0.7585
12072SOL     OW47939   3.763   0.037   1.232 -0.1700  0.8492  0.0727
12072SOL    HW147940   3.696   0.068   1.170 -1.2192 -1.1106  0.1437
12072SOL    HW247941   3.835   0.009   1.176 -0.9895 -0.6223 -0.2945
12073SOL     OW47942   9.907   1.622  10.201  0.0632 -0.8237  0.0572
12073SOL    HW147943   9.907   1.712  10.169  0.5600 -0.2552  1.5331
12073SOL    HW247944   9.849   1.574  10.141  0.3472  0.3108 -1.1618
12074SOL     OW47945  10.714  10.579   2.499 -0.3051 -0.0372  0.1879
12074SOL    HW147946  10.771  10.652   2.473  0.8469 -1.1011 -0.4211
12074SOL    HW247947  10.716  10.520   2.423  1.1071 -2.0531  1.6955
12075SOL     OW47948   8.920   7.995   7.782  0.6394  0.1778 -0.1908
12075SOL    HW147949   8.910   7.907   7.818  0.1562 -0.2037 -1.2018
12075SOL    HW247950   8.830   8.029   7.776  0.8203  0.7306  0.1631
12076SOL     OW47951   3.541   0.073   6.585  0.1771  0.2926 -0.4909
12076SOL    HW147952   3.545  -0.011   6.539 -0.6772 -0.8604  1.4059
12076SOL    HW247953   3.519   0.137   6.517 -0.9523 -1.3025 -1.7024
12077SOL     OW47954   7.488   5.936   1.025 -0.6440  0.0045  0.1606
12077SOL    HW147955   7.439   5.856   1.006  0.6792 -0.9657  0.6912
12077SOL    HW247956   7.527   5.921   1.111  0.0236  1.0317  0.0639
12078SOL     OW47957   1.865   1.310   8.289 -0.1987  0.4562  0.4125
12078SOL    HW147958   1.918   1.253   8.345 -0.9149 -1.7793 -1.0567
12078SOL    HW247959   1.806   1.354   8.350  0.9794  0.3545  1.6973
12079SOL     OW47960   5.766   5.559  11.790 -1.0675  0.0511  0.5126
12079SOL    HW147961   5.710   5.632  11.815  1.9085  1.9091  2.4212
12079SOL    HW247962   5.784   5.513  11.872  1.5741  0.6331  0.3300
12080SOL     OW47963   9.219   4.036  10.309 -0.0962  0.4578 -0.5184
12080SOL    HW147964   9.226   4.083  10.392 -2.9260  0.4916 -0.2073
12080SOL    HW247965   9.181   4.099  10.248 -0.3969 -0.3117 -1.1495
12081SOL     OW47966   8.549   2.849   7.323  0.0725 -0.2820 -0.4567
12081SOL    HW147967   8.577   2.914   7.259 -0.1801 -1.3382 -1.6883
12081SOL    HW247968   8.465   2.818   7.290 -0.1072 -0.7735  0.4467
12082SOL     OW47969  10.473   7.985   5.425  0.2223  0.8096  0.2070
12082SOL    HW147970  10.396   7.928   5.424  0.1661  0.8717  0.6815
12082SOL    HW247971  10.440   8.071   5.399  0.5120  0.3919 -1.6406
12083SOL     OW47972   4.649   5.395  11.360  0.1313 -0.2733  0.4524
12083SOL    HW147973   4.728   5.419  11.312 -0.4368 -0.8425 -0.7921
12083SOL    HW247974   4.678   5.385  11.451  1.2843  0.4708  0.1842
12084SOL     OW47975   1.435   6.372  11.023  0.0671  0.0920  0.0968
12084SOL    HW147976   1.499   6.324  10.970  0.5519 -0.8874  1.5025
12084SOL    HW247977   1.351   6.355  10.980  0.5161 -0.1195 -0.7322
12085SOL     OW47978  10.738   5.640   2.725  0.7682  0.2210 -0.0989
12085SOL    HW147979  10.774   5.575   2.785  0.9740  0.5209  0.1063
12085SOL    HW247980  10.799   5.641   2.651  0.5519 -0.0985 -0.2832
12086SOL     OW47981   5.175   8.989   3.898  0.1174  0.3557  0.3470
12086SOL    HW147982   5.234   9.048   3.850  0.0599  0.1658  0.0380
12086SOL    HW247983   5.100   9.044   3.921  0.2247  0.4932  0.3778
12087SOL     OW47984   4.953   6.283   1.152 -0.2123 -0.2551  0.6523
12087SOL    HW147985   4.904   6.357   1.189  0.5309  0.0923  0.9715
12087SOL    HW247986   5.042   6.296   1.184 -0.1618 -1.5330  1.0732
12088SOL     OW47987   9.567   9.595   2.807  0.0145 -0.2060 -0.5750
12088SOL    HW147988   9.501   9.614   2.741 -0.6617 -1.3274 -0.2478
12088SOL    HW247989   9.554   9.661   2.875 -1.6509 -1.1740  0.0992
12089SOL     OW47990   6.204   2.496   6.233 -0.7870  0.1783 -0.3755
12089SOL    HW147991   6.129   2.525   6.286  0.3550  2.1610  0.2807
12089SOL    HW247992   6.212   2.564   6.165 -0.0385 -0.4172 -0.8942
12090SOL     OW47993  11.192   7.968   9.676 -0.0081 -0.2532 -0.0549
12090SOL    HW147994  11.126   8.000   9.737 -0.2007  0.4662 -0.6255
12090SOL    HW247995  11.241   8.046   9.651  0.9664 -0.7465  0.2305
12091SOL     OW47996   7.314   5.511   3.172  0.0937 -0.1911 -0.1359
12091SOL    HW147997   7.345   5.426   3.141 -0.1011 -0.0069 -0.8649
12091SOL    HW247998   7.374   5.536   3.242  1.2143 -0.1247 -1.1009
12092SOL     OW47999   0.992   5.914  10.933 -0.5568  0.5088  0.1671
12092SOL    HW148000   1.000   5.957  11.018 -1.7544 -2.1348  1.7302
12092SOL    HW248001   0.935   5.972  10.882 -1.7041  1.0656  1.9896
12093SOL     OW48002   4.881  10.591   0.008  0.3927  0.4490  0.0337
12093SOL    HW148003   4.846  10.503   0.025  1.4150  0.0457  0.1277
12093SOL    HW248004   4.842  10.617  -0.075  0.7700 -0.4837 -0.4596
12094SOL     OW48005   7.605   7.986   4.475 -0.2581  0.7067  0.1163
12094SOL    HW148006   7.664   8.060   4.467 -0.3322  0.6198 -1.4347
12094SOL    HW248007   7.623   7.931   4.398 -0.6067 -0.5934  0.9192
12095SOL     OW48008   7.746   6.059   3.665  0.4706  0.1242 -0.3314
12095SOL    HW148009   7.768   6.047   3.572 -1.5313  0.1391 -0.8603
12095SOL    HW248010   7.712   5.974   3.693 -1.4969  0.8147 -0.4294
12096SOL     OW48011   3.079   8.859   1.548 -0.0963  0.4895  0.2594
12096SOL    HW148012   2.984   8.871   1.538 -0.2144 -0.4989  0.1229
12096SOL    HW248013   3.117   8.939   1.511 -0.9166  1.7414  1.9976
12097SOL     OW48014   1.175   2.284   6.833 -0.3296 -0.9040 -0.2884
12097SOL    HW148015   1.196   2.319   6.747  2.9653 -0.1367  0.6928
12097SOL    HW248016   1.159   2.361   6.888 -1.2886 -1.3332  0.0598
12098SOL     OW48017   0.884  10.149   1.672  0.1874  0.2201  0.0666
12098SOL    HW148018   0.969  10.174   1.637  0.7970 -1.0547  0.5942
12098SOL    HW248019   0.863  10.066   1.630  0.1331 -0.4703  1.4001
12099SOL     OW48020   1.580   1.619   8.583 -0.1392  0.1568 -1.0268
12099SOL    HW148021   1.575   1.714   8.573 -1.5616  0.4060  1.3772
12099SOL    HW248022   1.497   1.586   8.550 -1.4121  0.2351  1.8068
12100SOL     OW48023  10.834   7.437  11.206  0.3014 -0.9207  0.0424
12100SOL    HW148024  10.905   7.478  11.156 -1.4704  1.7932 -0.4263
12100SOL    HW248025  10.767   7.416  11.141 -0.1685 -1.6234  0.7324
12101SOL     OW48026   8.082   2.350   5.611 -0.0048  0.0676  0.1644
12101SOL    HW148027   8.029   2.289   5.663 -2.2862  0.2551 -1.7685
12101SOL    HW248028   8.092   2.307   5.526 -1.2647  2.0880 -1.0950
12102SOL     OW48029  11.498   4.330  11.322  0.6064 -0.0832  0.0071
12102SOL    HW148030  11.572   4.360  11.268  0.2508  0.8693  0.0355
12102SOL    HW248031  11.425   4.385  11.294  0.4136  0.4242  1.4587
12103SOL     OW48032   7.931   2.903   9.412  0.6937 -0.2881  0.2090
12103SOL    HW148033   7.930   2.920   9.507  1.1975  0.6408  0.0570
12103SOL    HW248034   7.857   2.955   9.379 -0.9238 -2.3789  0.3516
12104SOL     OW48035   5.188   2.698   5.206 -0.3756 -0.6423  0.2699
12104SOL    HW148036   5.167   2.644   5.129  2.0142 -0.6794 -0.4558
12104SOL    HW248037   5.197   2.635   5.277 -1.8117 -0.6985  0.4199
12105SOL     OW48038  11.128   4.528   3.637 -0.2586  0.5121  0.2818
12105SOL    HW148039  11.211   4.511   3.682 -0.1052 -0.8792 -0.4462
12105SOL    HW248040  11.075   4.576   3.700  0.9595  1.0594  0.9041
12106SOL     OW48041  10.952   9.956  10.168 -0.8226 -0.1462  0.3045
12106SOL    HW148042  10.886   9.923  10.229  0.8163 -1.8014  1.2885
12106SOL    HW248043  10.976   9.880  10.114 -1.9258  1.1637 -2.2333
12107SOL     OW48044   5.757   2.392   2.454 -0.1775  0.4874 -0.2446
12107SOL    HW148045   5.716   2.315   2.416 -0.2488  0.6011 -0.4038
12107SOL    HW248046   5.824   2.358   2.513 -1.3594  0.2721  1.0255
12108SOL     OW48047   8.359   8.176   4.963  0.3142 -0.1083  0.2227
12108SOL    HW148048   8.338   8.221   4.881 -0.8678  1.0059  1.0943
12108SOL    HW248049   8.431   8.227   5.000 -0.7197  0.8573  0.9860
12109SOL     OW48050   7.411   6.545   5.705  0.1784 -0.2390 -0.2138
12109SOL    HW148051   7.378   6.629   5.675  0.8372  0.0228 -0.2315
12109SOL    HW248052   7.505   6.547   5.684 -0.3306 -2.3369 -3.4830
12110SOL     OW48053   7.846  10.250   4.689 -0.0387 -0.0632 -0.0209
12110SOL    HW148054   7.779  10.199   4.734 -0.6833  0.8752  0.1097
12110SOL    HW248055   7.842  10.336   4.730  0.9332  0.1470 -0.3378
12111SOL     OW48056   9.699   6.366   1.148  0.3340  0.4114 -0.0807
12111SOL    HW148057   9.670   6.428   1.215  0.3038  0.8078 -0.4453
12111SOL    HW248058   9.794   6.378   1.143  0.4089 -0.0235  0.2817
12112SOL     OW48059   8.526   8.831   9.827  0.4334  0.4180  0.0854
12112SOL    HW148060   8.463   8.806   9.896  1.8706 -1.4606  0.8179
12112SOL    HW248061   8.471   8.864   9.756 -1.3488 -0.5194  0.9378
12113SOL     OW48062  11.705   6.804   4.567  0.8160 -0.0106 -0.6060
12113SOL    HW148063  11.664   6.764   4.491  0.8801  0.1224 -0.7102
12113SOL    HW248064  11.789   6.759   4.576  0.1734 -1.0824  0.2844
12114SOL     OW48065  10.532   5.249   1.073  0.6883  0.4590  0.4793
12114SOL    HW148066  10.611   5.250   1.126 -1.5430  1.7239  4.1744
12114SOL    HW248067  10.520   5.340   1.045  0.0384  0.4880  0.8204
12115SOL     OW48068   6.323   0.376   7.086 -0.1087  0.1219  0.1826
12115SOL    HW148069   6.357   0.383   7.176 -0.7960 -0.6633  0.5119
12115SOL    HW248070   6.309   0.467   7.059  2.4691  0.5184 -0.0780
12116SOL     OW48071   4.048   1.996   6.007  0.2471  0.4974 -0.3676
12116SOL    HW148072   3.964   1.996   6.054 -0.2285  0.6937 -1.1967
12116SOL    HW248073   4.102   1.933   6.055  0.5062  2.1545  1.6851
12117SOL     OW48074   0.977   1.078   6.991 -0.3160  0.4726 -0.1428
12117SOL    HW148075   0.978   1.162   6.945 -1.9025  0.2790 -0.6055
12117SOL    HW248076   1.015   1.016   6.929 -1.1965  0.4651 -0.7036
12118SOL     OW48077   1.257   1.631   0.881  0.0951 -0.8130  0.1029
12118SOL    HW148078   1.317   1.701   0.857  0.4869 -1.2468 -0.1952
12118SOL    HW248079   1.269   1.619   0.975 -0.0081 -0.4484  0.1628
12119SOL     OW48080  11.056   1.965  11.742 -0.5256  0.4018 -0.2605
12119SOL    HW148081  11.029   2.015  11.819  0.1104  0.6106 -0.1665
12119SOL    HW248082  11.020   1.877  11.756 -1.5141  0.7822 -0.3495
12120SOL     OW48083   6.213   4.350   7.660 -0.1069 -0.1867 -0.3118
12120SOL    HW148084   6.185   4.287   7.726  0.9953 -0.7905 -0.4013
12120SOL    HW248085   6.240   4.297   7.585  1.6676  0.3009 -0.0694
12121SOL     OW48086   9.286   9.658   5.747 -0.2510  0.2929  0.0640
12121SOL    HW148087   9.199   9.639   5.712 -0.6594 -0.6794  1.4886
12121SOL    HW248088   9.336   9.577   5.731  0.8231  1.2744 -1.8762
12122SOL     OW48089   2.425   3.822   8.593  0.3342 -0.1181 -0.0123
12122SOL    HW148090   2.404   3.854   8.681 -0.7630 -1.3840  0.2201
12122SOL    HW248091   2.340   3.808   8.551  0.8065 -0.9627 -0.7395
12123SOL     OW48092   9.758   8.306   6.064  0.8878  0.0786 -0.1770
12123SOL    HW148093   9.822   8.307   5.993  0.5188 -0.6299 -0.5385
12123SOL    HW248094   9.811   8.308   6.144  1.4168 -1.1983 -0.4558
12124SOL     OW48095   4.672   1.574   3.169  0.2876  0.1429  0.1875
12124SOL    HW148096   4.628   1.501   3.124  0.7262 -0.4358  0.6867
12124SOL    HW248097   4.600   1.630   3.198 -0.0413  0.0889 -0.4949
12125SOL     OW48098   4.670   2.685   2.888  0.2214 -0.0154 -0.6672
12125SOL    HW148099   4.749   2.675   2.835  1.0057 -0.7217  0.5786
12125SOL    HW248100   4.657   2.599   2.927  1.4422  1.1076  2.6183
12126SOL     OW48101   9.898   5.715   1.373  0.1191  0.1742 -0.0022
12126SOL    HW148102   9.928   5.765   1.296 -1.6709  1.0576 -0.1842
12126SOL    HW248103   9.825   5.663   1.340 -0.8594  0.7735  1.1384
12127SOL     OW48104   9.128   0.436   0.850  0.3256 -0.4648  0.1831
12127SOL    HW148105   9.207   0.452   0.901  0.5483 -0.2103 -0.2331
12127SOL    HW248106   9.139   0.489   0.771 -0.5554  0.0898  0.4118
12128SOL     OW48107  10.780  11.872   4.529  0.4910  0.3629  0.1882
12128SOL    HW148108  10.688  11.896   4.513  0.5618  0.8967  0.5568
12128SOL    HW248109  10.818  11.865   4.442  0.0747  0.0290  0.0267
12129SOL     OW48110   9.334  11.957   3.232  0.1948  0.0775  0.1956
12129SOL    HW148111   9.316  11.996   3.318 -0.8715  1.2800 -0.5378
12129SOL    HW248112   9.401  11.891   3.249 -0.5343 -0.2368  2.0708
12130SOL     OW48113   6.893   2.868   9.585  0.1059 -0.4044 -0.4754
12130SOL    HW148114   6.963   2.829   9.532  0.3888 -1.1167  0.3977
12130SOL    HW248115   6.923   2.956   9.604  0.2607 -0.3362 -1.0138
12131SOL     OW48116   5.864   7.048  10.328 -0.1979 -0.3071 -0.8279
12131SOL    HW148117   5.778   7.008  10.320 -0.5932  0.2697  0.2806
12131SOL    HW248118   5.888   7.072  10.239 -0.8134 -1.2238 -1.2477
12132SOL     OW48119   6.746   0.916   7.026  0.3542  0.3640 -0.2222
12132SOL    HW148120   6.667   0.864   7.011  1.0954 -0.4807 -1.3523
12132SOL    HW248121   6.759   0.913   7.121  0.0493 -1.0283 -0.2103
12133SOL     OW48122   8.457   4.232   7.535  0.3440 -0.0465 -0.3645
12133SOL    HW148123   8.410   4.267   7.459  1.3043 -0.2527 -1.0770
12133SOL    HW248124   8.390   4.190   7.588 -0.1634 -1.0824 -1.7737
12134SOL     OW48125   9.351   6.531   0.119 -0.5858  0.0910 -0.6463
12134SOL    HW148126   9.406   6.512   0.043  2.4262  1.5559  1.0044
12134SOL    HW248127   9.354   6.451   0.172 -0.3367  0.0569 -0.7139
12135SOL     OW48128   3.048   7.588   4.234  0.1658  0.2049 -0.0800
12135SOL    HW148129   3.036   7.533   4.311  2.9066  1.0074  1.0684
12135SOL    HW248130   3.030   7.530   4.160 -1.4366 -0.9047  1.1218
12136SOL     OW48131   7.238  10.581   5.530 -0.4084  0.0724 -0.0593
12136SOL    HW148132   7.236  10.610   5.621 -1.6292  0.6581 -0.2497
12136SOL    HW248133   7.330  10.589   5.504 -0.2421  1.0180  0.7667
12137SOL     OW48134  10.655   3.828  10.158 -0.1461 -0.1225 -0.2082
12137SOL    HW148135  10.576   3.827  10.212  0.0289 -0.3150  0.0411
12137SOL    HW248136  10.711   3.895  10.197  0.8407 -1.6232  1.0874
12138SOL     OW48137   9.626   0.558   7.033  0.1971  0.1613  0.7982
12138SOL    HW148138   9.553   0.602   7.078 -1.1700 -0.7991 -0.3788
12138SOL    HW248139   9.673   0.629   6.990 -0.0217  0.8121  1.6132
12139SOL     OW48140   0.879   2.772   1.577 -0.4960 -0.4313 -0.3675
12139SOL    HW148141   0.974   2.767   1.565 -0.5004 -0.4640 -0.3896
12139SOL    HW248142   0.866   2.773   1.672 -0.4524 -0.0173 -0.3637
12140SOL     OW48143   2.546   9.466   9.455  0.1623  0.2350  0.0347
12140SOL    HW148144   2.516   9.486   9.366  0.5416 -1.8943 -0.6442
12140SOL    HW248145   2.594   9.384   9.445 -0.3068 -0.3793  2.3137
12141SOL     OW48146   7.273   7.409   0.414 -0.3628 -0.2210  0.3527
12141SOL    HW148147   7.222   7.328   0.419 -0.9434 -0.1135 -2.3391
12141SOL    HW248148   7.217   7.469   0.365  1.5646  0.5047 -1.0782
12142SOL     OW48149   0.638   1.135   0.237  0.0335 -0.8449 -0.0241
12142SOL    HW148150   0.729   1.114   0.215  1.3269  3.4586  0.2183
12142SOL    HW248151   0.640   1.154   0.331 -1.4964 -1.9751  0.2790
12143SOL     OW48152   9.308   6.960  10.956 -0.3753 -0.0491 -0.3062
12143SOL    HW148153   9.262   6.903  10.894 -0.8133  2.0091 -1.9977
12143SOL    HW248154   9.302   6.914  11.039  0.6196 -3.1985 -1.7921
12144SOL     OW48155   4.308   8.721  10.509 -0.0964  0.1033  0.1976
12144SOL    HW148156   4.333   8.697  10.598  0.2022  1.4883  0.5161
12144SOL    HW248157   4.332   8.646  10.455 -0.6019 -0.8959  1.3312
12145SOL     OW48158   1.599   3.500   7.464 -0.2397 -0.5938  0.0638
12145SOL    HW148159   1.692   3.499   7.487 -0.3221  0.7862  0.5413
12145SOL    HW248160   1.555   3.457   7.537 -0.1536  0.5454  0.8044
12146SOL     OW48161   5.761   5.661   7.001  0.6344 -0.3741 -0.2045
12146SOL    HW148162   5.814   5.674   7.079  2.2207 -0.7531 -1.1695
12146SOL    HW248163   5.722   5.747   6.984  0.4689 -0.2334  0.8469
12147SOL     OW48164   4.824   9.169   9.791 -0.3088  0.0647 -0.1457
12147SOL    HW148165   4.837   9.263   9.786 -0.1187  0.0602  0.2254
12147SOL    HW248166   4.878   9.141   9.865 -2.3346  0.0093  1.4098
12148SOL     OW48167  10.744   9.288   5.926  0.5051 -0.0840 -0.3872
12148SOL    HW148168  10.661   9.279   5.973  0.1622  1.0825 -0.7553
12148SOL    HW248169  10.775   9.198   5.916 -0.2942 -0.4776  0.4897
12149SOL     OW48170   0.275   5.194   2.023  0.3440 -0.0527  0.1609
12149SOL    HW148171   0.267   5.256   2.096 -0.1468  2.0897 -1.6131
12149SOL    HW248172   0.186   5.186   1.988  0.3164 -2.1302  0.5668
12150SOL     OW48173   8.126   6.574   1.673  0.7637 -0.1907  0.0639
12150SOL    HW148174   8.195   6.587   1.739  0.5978  2.5261 -0.2021
12150SOL    HW248175   8.174   6.547   1.595  1.2069 -1.0825  0.6218
12151SOL     OW48176   6.517   0.365   7.721  0.3926 -0.5444  0.3078
12151SOL    HW148177   6.608   0.349   7.745  0.0902 -3.4276 -0.1626
12151SOL    HW248178   6.467   0.345   7.800  0.0050 -1.4694 -0.1654
12152SOL     OW48179   3.310   5.122   1.116  0.0298  0.4505 -0.4097
12152SOL    HW148180   3.279   5.070   1.190  1.8864  1.1124  0.8953
12152SOL    HW248181   3.253   5.199   1.116  0.0650  0.4787  0.3636
12153SOL     OW48182   4.305  10.362   1.527 -0.1352 -0.3392  0.2462
12153SOL    HW148183   4.394  10.371   1.494 -0.3179 -1.1432 -0.4825
12153SOL    HW248184   4.307  10.406   1.612  0.7159  0.4693 -0.1709
12154SOL     OW48185   1.620  10.512   7.148 -0.0560  0.0243  0.4694
12154SOL    HW148186   1.608  10.563   7.068 -0.9438 -1.5251 -0.4491
12154SOL    HW248187   1.534  10.514   7.190  0.2028  0.2000  0.9978
12155SOL     OW48188   6.964  11.539   2.129 -0.3223 -0.6758  0.1973
12155SOL    HW148189   6.974  11.625   2.089 -2.1487 -0.8251 -0.6810
12155SOL    HW248190   7.009  11.546   2.213  0.5918  0.7417 -0.3715
12156SOL     OW48191   4.344   1.371   4.593  0.0135 -0.1872 -0.0569
12156SOL    HW148192   4.342   1.276   4.583  0.1729 -0.0930 -1.1139
12156SOL    HW248193   4.437   1.393   4.604  0.1014 -0.0616 -0.9639
12157SOL     OW48194   1.162   0.191   8.961  0.1798  0.0007  0.0328
12157SOL    HW148195   1.167   0.142   9.043  0.3778  0.2127  0.1478
12157SOL    HW248196   1.157   0.123   8.893 -0.9591 -0.1732  0.2754
12158SOL     OW48197   4.324   1.748   4.870 -0.2140 -0.2036  0.1900
12158SOL    HW148198   4.264   1.710   4.935 -1.1814  1.5184  0.3782
12158SOL    HW248199   4.348   1.832   4.907  0.0115  0.3863 -1.2356
12159SOL     OW48200   4.977  11.708   2.024  0.3943  0.3483 -0.2636
12159SOL    HW148201   4.985  11.723   2.118 -2.3408 -1.3523  0.3432
12159SOL    HW248202   5.029  11.630   2.007  1.6676  1.1941 -0.4072
12160SOL     OW48203   0.136   0.437   3.319 -0.4680  0.4470 -0.2313
12160SOL    HW148204   0.149   0.344   3.342  0.1594 -0.1619 -2.7359
12160SOL    HW248205   0.044   0.454   3.338 -1.0190 -1.1964 -1.1787
12161SOL     OW48206   4.788   1.138   6.160 -0.7782  0.0014  0.0279
12161SOL    HW148207   4.865   1.081   6.163 -1.0776 -0.3919  0.4325
12161SOL    HW248208   4.799   1.188   6.079  0.3006  0.5202  0.4737
12162SOL     OW48209  11.419  11.488   9.396  0.8235  0.1738  0.0566
12162SOL    HW148210  11.418  11.401   9.435 -0.8689 -0.1045 -0.5496
12162SOL    HW248211  11.333  11.524   9.415  0.2044  0.3282 -2.6982
12163SOL     OW48212   3.141   0.438   4.147  0.1417 -0.6329  0.1266
12163SOL    HW148213   3.129   0.402   4.060 -1.2187 -0.4378  0.2223
12163SOL    HW248214   3.135   0.533   4.136 -1.3778 -0.6443  0.5948
12164SOL     OW48215  11.777   5.886   3.548 -0.1561  0.2477 -0.3490
12164SOL    HW148216  11.685   5.876   3.571 -0.1650 -0.3694 -0.6165
12164SOL    HW248217  11.781   5.967   3.497 -0.3518  0.9059  0.6540
12165SOL     OW48218   0.761   7.146   4.169 -0.3149  0.0291 -0.0692
12165SOL    HW148219   0.689   7.085   4.154  1.6603 -3.0219  1.6063
12165SOL    HW248220   0.740   7.187   4.253 -0.9826  0.6229 -0.5175
12166SOL     OW48221  11.005   9.276   8.574 -0.7034  0.5120 -0.2049
12166SOL    HW148222  10.967   9.312   8.654 -0.6968 -0.9359  0.4777
12166SOL    HW248223  11.092   9.246   8.600 -0.1594  1.2569 -1.0953
12167SOL     OW48224   9.198   7.763   3.039 -0.1524 -0.3926  0.4603
12167SOL    HW148225   9.265   7.705   3.003 -0.1404  1.5364 -3.0725
12167SOL    HW248226   9.128   7.705   3.067  0.7714 -2.2266 -0.8572
12168SOL     OW48227   3.400   9.487   9.393 -0.0925 -0.4168 -0.2895
12168SOL    HW148228   3.391   9.444   9.308 -1.1722 -1.4086  0.3004
12168SOL    HW248229   3.452   9.565   9.375  0.1089 -0.8691 -1.7693
12169SOL     OW48230   6.776   3.488   1.956  0.2971  0.1289 -0.5644
12169SOL    HW148231   6.742   3.500   1.868  0.8000 -1.3110 -0.9809
12169SOL    HW248232   6.849   3.427   1.945 -1.2965 -2.2351  1.1668
12170SOL     OW48233  10.129   1.014   6.566  0.0786  0.6038  0.5289
12170SOL    HW148234  10.086   0.939   6.606  2.1116 -0.7712  0.2602
12170SOL    HW248235  10.174   1.057   6.638  0.2171  0.6478  0.4158
12171SOL     OW48236   9.933   7.920   9.770 -0.3634 -0.1032  1.3333
12171SOL    HW148237   9.984   7.904   9.690 -2.3917  2.7808 -0.7507
12171SOL    HW248238   9.990   7.972   9.826  0.1956  0.0723  0.6107
12172SOL     OW48239  10.303   5.695   5.022 -0.1029  0.3885  0.2491
12172SOL    HW148240  10.379   5.647   4.990 -0.7677 -0.4223 -0.1747
12172SOL    HW248241  10.318   5.786   4.996  1.3668  0.5126  1.4054
12173SOL     OW48242   4.285   8.335   1.576  0.2417  0.3539  0.1921
12173SOL    HW148243   4.378   8.349   1.557  0.0522  0.2825 -0.8246
12173SOL    HW248244   4.285   8.282   1.656  1.2884 -4.2867 -2.5252
12174SOL     OW48245   2.865   5.604   4.426 -0.1247  0.2870  0.5448
12174SOL    HW148246   2.949   5.614   4.470 -0.6502 -0.4916  1.7753
12174SOL    HW248247   2.856   5.509   4.413 -0.0733  0.4754 -1.1119
12175SOL     OW48248   7.356  11.031   2.139  0.3843 -0.3970  0.4469
12175SOL    HW148249   7.333  11.071   2.055  0.0294 -2.0591 -0.2968
12175SOL    HW248250   7.428  11.084   2.172 -0.7314  1.4528  0.0332
12176SOL     OW48251   9.048   4.710   4.823  0.1679 -0.4258  0.5163
12176SOL    HW148252   9.003   4.776   4.771  0.0812 -1.8947 -1.3848
12176SOL    HW248253   9.138   4.742   4.832  0.1261 -0.0485 -0.3719
12177SOL     OW48254   8.283  11.573   7.910  0.4284 -0.3350 -0.1205
12177SOL    HW148255   8.342  11.604   7.979  1.5887  1.1886 -1.7117
12177SOL    HW248256   8.294  11.478   7.910  1.9319 -0.1875  0.4719
12178SOL     OW48257   4.029   1.076   7.219 -0.4309 -0.1051 -0.0307
12178SOL    HW148258   3.979   1.010   7.171 -1.4121 -1.6661  2.8650
12178SOL    HW248259   3.962   1.125   7.267  0.4901  1.3033 -0.1518
12179SOL     OW48260  11.555   5.071  11.126  0.2040  0.1168 -0.0521
12179SOL    HW148261  11.603   5.153  11.138 -1.1373  0.7269  1.4124
12179SOL    HW248262  11.572   5.021  11.205  0.3964 -0.7322 -0.6126
12180SOL     OW48263   7.643   3.116   3.719  0.5313 -0.0758 -0.9663
12180SOL    HW148264   7.652   3.146   3.629  0.2406 -1.5211 -1.5125
12180SOL    HW248265   7.613   3.025   3.711  1.1838 -0.4610  0.5761
12181SOL     OW48266   8.519   7.975   0.560  0.3273  0.1154 -0.0362
12181SOL    HW148267   8.592   7.913   0.560  0.7995  0.6177 -1.6474
12181SOL    HW248268   8.469   7.953   0.638  0.8563 -1.8349 -0.1929
12182SOL     OW48269   4.841   8.404  11.947  0.0806  0.3859 -0.3883
12182SOL    HW148270   4.846   8.450  12.031 -1.0514 -0.5928  0.2421
12182SOL    HW248271   4.913   8.341  11.950  0.0345  0.3411 -0.1396
12183SOL     OW48272   4.624  10.099   0.914  0.1160  0.4357  0.2311
12183SOL    HW148273   4.530  10.083   0.925 -0.1984  0.7688 -1.6140
12183SOL    HW248274   4.629  10.191   0.886  1.1934  1.0836  2.4094
12184SOL     OW48275   4.169   2.331  10.292  0.3085  0.1538 -0.6957
12184SOL    HW148276   4.216   2.346  10.210  0.5300  0.8592 -0.4464
12184SOL    HW248277   4.189   2.240  10.315  0.1502 -0.0821 -1.4780
12185SOL     OW48278   2.158   2.708  11.421  0.3217  0.0538 -0.5066
12185SOL    HW148279   2.208   2.641  11.374  0.0720 -0.4754 -0.0218
12185SOL    HW248280   2.222   2.746  11.483  0.6610  0.7769 -1.2724
12186SOL     OW48281  10.885  10.987   4.519  0.2621  0.3485 -0.1122
12186SOL    HW148282  10.945  10.913   4.522  2.4224  1.9417 -1.7097
12186SOL    HW248283  10.898  11.032   4.603  4.0034  2.5574 -1.6520
12187SOL     OW48284   1.084   5.429   7.605 -0.4293 -0.4634 -0.6414
12187SOL    HW148285   0.991   5.438   7.588 -1.0848 -1.1429  2.0695
12187SOL    HW248286   1.103   5.336   7.588  0.2477  0.0353 -2.9686
12188SOL     OW48287  10.338   0.692   7.413  0.2171  0.2989  0.2127
12188SOL    HW148288  10.349   0.787   7.408 -1.4618  0.6038  1.5590
12188SOL    HW248289  10.292   0.668   7.333 -0.1007  0.7343  0.2666
12189SOL     OW48290   1.746   8.463   7.156 -0.3612 -0.3412 -0.2823
12189SOL    HW148291   1.714   8.445   7.244 -1.8353 -2.1886 -1.1353
12189SOL    HW248292   1.721   8.553   7.139  0.0868  0.0972  1.2183
12190SOL     OW48293   2.754   4.351   0.930  0.2223 -0.2801 -0.8381
12190SOL    HW148294   2.818   4.294   0.972  0.0097 -2.2221 -2.9024
12190SOL    HW248295   2.802   4.430   0.908  1.0323 -0.3810  0.4546
12191SOL     OW48296   3.928   6.091  10.465  0.1595 -0.5512 -0.1474
12191SOL    HW148297   3.906   6.018  10.407 -0.0430 -0.9791  0.4633
12191SOL    HW248298   3.886   6.069  10.548 -0.9308  0.8404 -0.2910
12192SOL     OW48299   6.630   6.250   4.364  0.0556 -0.0125  0.5384
12192SOL    HW148300   6.577   6.188   4.313  0.9473 -1.4544  1.2984
12192SOL    HW248301   6.605   6.336   4.330  0.2712 -0.8632 -2.0123
12193SOL     OW48302   8.882   0.432  10.738  0.4270  0.3384 -0.0980
12193SOL    HW148303   8.908   0.423  10.829  0.4394 -1.9933 -0.2948
12193SOL    HW248304   8.959   0.467  10.694  0.2283  2.0987  0.8244
12194SOL     OW48305   9.307   6.019  11.397 -0.7072 -0.3969  0.4862
12194SOL    HW148306   9.272   6.076  11.328  0.0959  0.0188  0.4041
12194SOL    HW248307   9.249   5.943  11.398 -1.1138 -0.1022 -0.1929
12195SOL     OW48308   7.912   6.609   1.819 -0.5117  0.3534 -0.0854
12195SOL    HW148309   7.994   6.598   1.770  0.1279  1.9709  0.5304
12195SOL    HW248310   7.849   6.639   1.753  0.1876  1.9342 -0.0824
12196SOL     OW48311   3.255   4.340   2.358  0.0326 -0.0797 -0.2561
12196SOL    HW148312   3.164   4.338   2.331 -0.0334  0.6818 -0.1215
12196SOL    HW248313   3.253   4.325   2.452  0.0747 -0.4423 -0.3140
12197SOL     OW48314  11.609   5.101   1.437  0.3951  0.1055  0.6252
12197SOL    HW148315  11.698   5.068   1.447  0.1603 -0.1370  2.2802
12197SOL    HW248316  11.607   5.180   1.492 -0.0441  0.8807 -0.4764
12198SOL     OW48317   8.117   6.449   8.755 -0.2898 -0.4809  0.2242
12198SOL    HW148318   8.067   6.367   8.761 -1.0320  0.0200  1.3142
12198SOL    HW248319   8.198   6.431   8.802  0.8850 -1.4840 -2.0460
12199SOL     OW48320   5.900   0.633   9.788 -0.8787 -0.0850 -0.7911
12199SOL    HW148321   5.950   0.711   9.764 -2.1630  1.2231  0.5806
12199SOL    HW248322   5.937   0.606   9.873 -1.2747 -0.2036 -0.6527
12200SOL     OW48323   3.208   4.417   1.593  0.0630 -0.3738 -0.1817
12200SOL    HW148324   3.284   4.379   1.547 -0.0603 -1.1034  0.2060
12200SOL    HW248325   3.238   4.503   1.621  0.3498 -0.1658 -1.0939
12201SOL     OW48326   9.351   7.508  11.374 -0.0534  0.0831 -0.4750
12201SOL    HW148327   9.257   7.508  11.392  0.1482 -1.2933  0.7707
12201SOL    HW248328   9.359   7.469  11.287 -0.5803 -0.8893 -0.1005
12202SOL     OW48329   3.923   8.090   3.317  0.3482 -0.2280 -0.2097
12202SOL    HW148330   3.929   8.012   3.263  0.1551  1.9962 -3.7896
12202SOL    HW248331   3.833   8.121   3.305  0.2970  0.3777  1.4480
12203SOL     OW48332   0.892   0.016   9.182 -0.5279 -0.3645  0.0168
12203SOL    HW148333   0.842  -0.038   9.120 -0.5591  0.7247 -0.9449
12203SOL    HW248334   0.852  -0.003   9.267 -0.2592 -2.1587 -0.2154
12204SOL     OW48335   6.412   2.846   3.484  0.6532 -0.0897 -0.2127
12204SOL    HW148336   6.458   2.764   3.463  0.8870  0.4490 -2.0053
12204SOL    HW248337   6.475   2.896   3.536  1.1132 -0.4332 -0.4235
12205SOL     OW48338   3.802   2.255   0.584 -0.6572 -0.2990 -0.2957
12205SOL    HW148339   3.828   2.272   0.675 -0.4303  0.1419 -0.4392
12205SOL    HW248340   3.874   2.202   0.548  0.7765  2.0196 -1.0801
12206SOL     OW48341   1.171   2.520   6.966  0.2527  0.5887 -0.2354
12206SOL    HW148342   1.183   2.581   7.039  0.1251  0.0829  0.2103
12206SOL    HW248343   1.220   2.560   6.894  1.1509  0.6356  0.3770
12207SOL     OW48344   0.343   3.854   8.787  0.1900  0.8022  0.2068
12207SOL    HW148345   0.368   3.866   8.879  2.1639  0.2840 -0.2225
12207SOL    HW248346   0.415   3.892   8.737  0.0874 -0.6586 -1.1354
12208SOL     OW48347   1.124   7.555   5.902  0.3269  0.3196  0.2164
12208SOL    HW148348   1.131   7.461   5.916 -0.0164  0.4477  1.2923
12208SOL    HW248349   1.127   7.593   5.989  1.1923  1.3706 -0.2554
12209SOL     OW48350  11.261   2.870   1.237 -0.2336 -1.4192 -0.3265
12209SOL    HW148351  11.332   2.832   1.185  0.2863 -1.1602  0.1799
12209SOL    HW248352  11.209   2.794   1.266 -0.5486 -1.5602 -1.2312
12210SOL     OW48353   1.111   8.326   6.168 -0.6795  0.7125 -0.0719
12210SOL    HW148354   1.119   8.271   6.090  1.0316 -0.2536  0.7274
12210SOL    HW248355   1.200   8.354   6.187 -1.2027  1.7903  0.9608
12211SOL     OW48356   7.183   5.119  11.053 -0.0795 -0.7750  0.1847
12211SOL    HW148357   7.101   5.097  11.099 -0.1325 -1.4876 -0.2383
12211SOL    HW248358   7.160   5.114  10.960 -0.4035  2.2397 -0.0013
12212SOL     OW48359   3.939  10.167  11.643 -0.6667  0.2816  0.0572
12212SOL    HW148360   4.011  10.105  11.642  0.1585  1.2240 -0.3853
12212SOL    HW248361   3.964  10.232  11.709 -1.5913  0.0730  0.6349
12213SOL     OW48362   6.075  10.347   0.430 -0.7089  0.0959  0.3335
12213SOL    HW148363   6.005  10.285   0.412  0.3523 -1.3244  0.9567
12213SOL    HW248364   6.120  10.358   0.347 -1.5491  0.9009 -0.0347
12214SOL     OW48365   6.838   2.536   7.065  0.6736  0.3716 -0.0966
12214SOL    HW148366   6.790   2.611   7.100  0.4631  0.4015 -0.4492
12214SOL    HW248367   6.809   2.528   6.974  1.3803  0.4288 -0.3350
12215SOL     OW48368   9.055   5.074   5.894  0.2408 -0.0947  0.4292
12215SOL    HW148369   9.099   5.149   5.854  0.5507 -0.6712 -0.3328
12215SOL    HW248370   9.034   5.103   5.983 -0.5704  1.2706 -0.1670
12216SOL     OW48371   1.944   6.369   7.431  0.2236  0.5677 -0.2653
12216SOL    HW148372   1.907   6.371   7.519  0.5514  0.6462 -0.1258
12216SOL    HW248373   1.972   6.459   7.415 -0.3251  0.6745 -0.6668
12217SOL     OW48374   9.825   4.749   2.029 -0.0248 -0.4641  0.0501
12217SOL    HW148375   9.811   4.720   1.939  1.9119 -0.9975 -0.1240
12217SOL    HW248376   9.746   4.798   2.051 -0.4079 -0.0280 -2.0644
12218SOL     OW48377   0.322   7.393   8.238 -0.2757 -0.0197 -0.4990
12218SOL    HW148378   0.331   7.488   8.233 -1.2270  0.0193 -2.4434
12218SOL    HW248379   0.410   7.361   8.257 -0.1740  1.2866  1.5299
12219SOL     OW48380   6.913  10.076   1.294  0.2564 -0.0578  0.2877
12219SOL    HW148381   6.854  10.135   1.247 -0.4911 -0.3441  0.8526
12219SOL    HW248382   6.926  10.116   1.379  2.5004  1.0286 -0.4882
12220SOL     OW48383   0.392   7.866   1.472 -0.3667  0.1551 -0.6412
12220SOL    HW148384   0.317   7.918   1.500  0.0274  2.0350 -2.7329
12220SOL    HW248385   0.436   7.921   1.406  0.9540 -2.2410 -1.9044
12221SOL     OW48386   2.772   4.916  10.443 -0.0564 -0.1471  0.2998
12221SOL    HW148387   2.792   4.932  10.351  0.2109 -0.0830  0.3685
12221SOL    HW248388   2.856   4.927  10.488 -0.0436 -0.8652  0.4625
12222SOL     OW48389   6.998   5.131   4.952  0.0794  0.6766 -0.6157
12222SOL    HW148390   6.995   5.050   4.901  0.0832 -0.6745  1.4342
12222SOL    HW248391   7.080   5.172   4.926 -0.6479  0.8607 -2.8358
12223SOL     OW48392   0.281   8.904   7.556 -0.1168 -0.0324  0.9050
12223SOL    HW148393   0.327   8.844   7.497  0.1311  0.8529  0.1813
12223SOL    HW248394   0.350   8.957   7.596 -0.4059  0.4511  0.7716
12224SOL     OW48395   0.002   5.300   9.686 -0.2204 -0.3357 -0.4171
12224SOL    HW148396   0.018   5.386   9.725 -2.0610 -0.1383  0.0002
12224SOL    HW248397   0.054   5.299   9.606 -0.2039  1.1889 -0.4487
12225SOL     OW48398   1.633   6.421  10.516 -0.2925 -0.1871  0.1602
12225SOL    HW148399   1.559   6.482  10.512  0.0002  0.1161 -2.6281
12225SOL    HW248400   1.595   6.339  10.546 -1.7258  0.0902 -0.7818
12226SOL     OW48401  10.649   6.685   8.824  0.4481  0.6811  0.0427
12226SOL    HW148402  10.701   6.758   8.791  0.0263  1.0136  0.1092
12226SOL    HW248403  10.613   6.644   8.745  1.1587  0.1818 -0.0312
12227SOL     OW48404   8.129   6.928   4.342 -0.5737  0.5644 -0.4981
12227SOL    HW148405   8.192   6.913   4.271  0.1705  0.7379  0.1207
12227SOL    HW248406   8.105   6.840   4.371  0.2162  0.4965 -0.0149
12228SOL     OW48407   9.273   8.110   8.168 -0.1675 -0.1917  0.1433
12228SOL    HW148408   9.241   8.091   8.080 -0.7994 -0.2737  0.3841
12228SOL    HW248409   9.357   8.064   8.173 -0.3841 -0.6443 -0.2302
12229SOL     OW48410  11.243   2.740   0.470  0.2808 -0.1499  0.0266
12229SOL    HW148411  11.300   2.760   0.396  0.9023 -1.8977 -0.0239
12229SOL    HW248412  11.228   2.645   0.464 -0.7616 -0.1130  1.3647
12230SOL     OW48413   2.928   8.173   9.914  0.3689  0.0054 -0.1126
12230SOL    HW148414   2.871   8.117   9.861  1.7051 -1.4002 -0.1284
12230SOL    HW248415   2.870   8.214   9.978 -0.7831 -0.6716 -0.7008
12231SOL     OW48416   6.728   4.296   6.221 -0.0583  0.3479  0.3719
12231SOL    HW148417   6.677   4.223   6.186  0.3521 -0.1891  0.8678
12231SOL    HW248418   6.817   4.282   6.187 -0.4917  2.0637 -1.6661
12232SOL     OW48419   7.116  11.399  11.277  0.7540 -0.0598  0.3948
12232SOL    HW148420   7.096  11.396  11.371 -0.0182  1.8095  0.3411
12232SOL    HW248421   7.179  11.470  11.268 -0.4763  0.9498 -0.6663
12233SOL     OW48422   1.047   3.228   8.008  0.4458  0.1453  0.4558
12233SOL    HW148423   1.090   3.312   7.992 -1.3484  1.1479  0.6514
12233SOL    HW248424   0.959   3.251   8.038 -0.4260 -1.8136 -0.4126
12234SOL     OW48425  11.606   1.592   6.025  0.0345 -0.2001 -0.5325
12234SOL    HW148426  11.528   1.541   6.002  0.4629 -0.8974 -0.4856
12234SOL    HW248427  11.628   1.562   6.113  0.5340 -0.2307 -0.6672
12235SOL     OW48428   8.701   7.918   7.482  0.4417  0.2426 -0.5470
12235SOL    HW148429   8.622   7.871   7.507 -0.5679  1.1978 -1.8186
12235SOL    HW248430   8.700   7.997   7.536  0.5002  0.2961 -0.6240
12236SOL     OW48431   4.074   9.296   3.930 -0.2613  0.4246  0.0785
12236SOL    HW148432   4.130   9.371   3.948 -0.1511  0.2158  0.6234
12236SOL    HW248433   4.119   9.222   3.972 -0.0119 -0.0777 -1.0263
12237SOL     OW48434   8.014   8.963   1.599  0.7010 -0.2269 -0.3372
12237SOL    HW148435   7.961   8.892   1.635 -0.9291  0.5791 -1.0570
12237SOL    HW248436   8.030   8.938   1.509  0.5216  0.0856 -0.4580
12238SOL     OW48437   7.235  11.863   1.062  0.7652 -0.2449  0.0095
12238SOL    HW148438   7.324  11.885   1.090  1.6715 -1.0367 -2.0563
12238SOL    HW248439   7.247  11.809   0.984 -1.5089 -1.6143  0.5141
12239SOL     OW48440   0.799   2.900   2.148  0.2393  0.7584 -0.1881
12239SOL    HW148441   0.786   2.819   2.197 -0.1072  0.1215 -1.2931
12239SOL    HW248442   0.788   2.970   2.213 -1.7180  0.0110  0.3661
12240SOL     OW48443   6.161   1.243   0.963  0.2113  0.1690  0.5687
12240SOL    HW148444   6.189   1.331   0.989 -1.5443  0.6586  0.9863
12240SOL    HW248445   6.113   1.256   0.882  2.3825 -0.8500 -0.9676
12241SOL     OW48446  11.012   3.727   5.222  0.5599 -0.0520 -0.8238
12241SOL    HW148447  11.041   3.668   5.152 -0.6372 -0.8613 -0.6667
12241SOL    HW248448  10.951   3.787   5.179 -1.6986 -1.7454 -0.2043
12242SOL     OW48449   3.228   0.208   4.834  0.1469  0.3035 -0.1061
12242SOL    HW148450   3.251   0.288   4.882 -1.7125  1.0286 -0.3433
12242SOL    HW248451   3.163   0.237   4.771  2.1927 -0.7022 -2.8492
12243SOL     OW48452   5.976   0.276   5.819 -0.2942 -0.1497 -0.1808
12243SOL    HW148453   5.900   0.223   5.798 -0.4914  0.3025 -0.6238
12243SOL    HW248454   5.955   0.316   5.903 -0.7173  0.2921 -0.4968
12244SOL     OW48455   1.912   9.854   9.524  0.3826 -0.0938  0.3278
12244SOL    HW148456   1.873   9.786   9.579 -1.0545 -1.1713 -1.8479
12244SOL    HW248457   1.982   9.891   9.577  0.6551 -2.6892  1.9476
12245SOL     OW48458   4.144   3.069   2.803 -0.7842 -0.9060  0.7087
12245SOL    HW148459   4.237   3.088   2.790 -1.2650  0.8214 -0.5502
12245SOL    HW248460   4.109   3.055   2.715 -2.3602  1.9705  0.7537
12246SOL     OW48461   2.233   0.742   3.584 -0.2675  0.1315  0.0002
12246SOL    HW148462   2.203   0.829   3.558 -1.1848 -0.5591 -1.3900
12246SOL    HW248463   2.201   0.731   3.674 -0.0780  1.2379  0.2135
12247SOL     OW48464   0.218   5.416   6.670 -0.7051  0.2434  0.3571
12247SOL    HW148465   0.217   5.370   6.754 -0.5929 -2.5916 -1.0624
12247SOL    HW248466   0.130   5.453   6.663 -2.2523 -3.0787  0.0290
12248SOL     OW48467   8.356  11.599   5.803 -0.2163  0.7034 -0.0968
12248SOL    HW148468   8.322  11.687   5.820  1.1262  1.1552  0.3819
12248SOL    HW248469   8.403  11.607   5.719 -0.7766  0.2261 -0.4690
12249SOL     OW48470   2.105   1.028   7.847  0.0859 -0.1911  0.0558
12249SOL    HW148471   2.113   0.945   7.895 -3.3381  0.4498  2.0431
12249SOL    HW248472   2.131   1.095   7.910 -0.7453  0.4399 -0.2556
12250SOL     OW48473   5.734   2.367  10.153  0.2970 -0.6591  0.1888
12250SOL    HW148474   5.799   2.318  10.203 -0.9404 -1.7772  0.7555
12250SOL    HW248475   5.650   2.327  10.175 -0.7711  1.5538  0.4627
12251SOL     OW48476   4.631   7.433   0.201 -0.0836 -0.0807 -0.5291
12251SOL    HW148477   4.600   7.342   0.196 -0.0450 -0.1350  0.1147
12251SOL    HW248478   4.726   7.426   0.194 -0.1504  0.0349 -1.8729
12252SOL     OW48479   6.014   5.779   9.655 -0.2456  0.6385 -0.2465
12252SOL    HW148480   6.052   5.698   9.688  0.7806  0.0646 -2.6730
12252SOL    HW248481   6.035   5.844   9.723 -1.5481 -1.1067  2.0012
12253SOL     OW48482   2.468   8.594   7.636  0.6315 -0.0230  0.7773
12253SOL    HW148483   2.392   8.613   7.582  0.2814  0.6923  1.5012
12253SOL    HW248484   2.433   8.542   7.709  0.5615  1.4779  1.8537
12254SOL     OW48485   5.146  11.054  11.473  0.4077  0.0472  0.0677
12254SOL    HW148486   5.126  10.993  11.403 -2.1686  1.1801 -0.2920
12254SOL    HW248487   5.198  11.123  11.431 -0.8346  0.5478 -0.6878
12255SOL     OW48488   0.326   2.024   6.843  0.1208  0.1232 -0.2380
12255SOL    HW148489   0.363   2.024   6.931 -0.5632  0.4693  0.0537
12255SOL    HW248490   0.292   1.935   6.831 -0.6726  0.3495  0.2366
12256SOL     OW48491   7.804   8.587   4.110  0.0816 -0.0816  0.3446
12256SOL    HW148492   7.842   8.516   4.163  2.1781  0.6162 -0.1562
12256SOL    HW248493   7.825   8.564   4.020 -1.9859 -0.3792 -0.1170
12257SOL     OW48494  10.709   8.734  11.173 -0.3982  0.4955  0.4468
12257SOL    HW148495  10.740   8.712  11.260  0.1356  1.6802  0.5705
12257SOL    HW248496  10.789   8.753  11.123 -0.4475 -2.4745 -1.0313
12258SOL     OW48497   5.831   2.633   9.154  0.0529 -0.1681 -0.3134
12258SOL    HW148498   5.792   2.584   9.226 -0.3481  0.0758 -0.3570
12258SOL    HW248499   5.897   2.689   9.195 -0.3348  0.1395 -0.1032
12259SOL     OW48500   6.139   3.735   9.820  0.1940  0.0639 -0.0634
12259SOL    HW148501   6.159   3.674   9.890 -1.3793 -2.6821 -1.8277
12259SOL    HW248502   6.066   3.788   9.854 -0.0450 -0.7035  0.6462
12260SOL     OW48503   3.545   5.267  10.036  0.5924  0.0934  0.0401
12260SOL    HW148504   3.596   5.297   9.961 -0.3949  0.8401 -0.3553
12260SOL    HW248505   3.464   5.319  10.033  0.0307 -0.6894  0.9466
12261SOL     OW48506   9.671   7.417   6.404  0.0787 -0.2923 -0.4073
12261SOL    HW148507   9.742   7.362   6.370  0.3129 -0.9901  1.1328
12261SOL    HW248508   9.618   7.357   6.458  0.2069  0.9140  1.1222
12262SOL     OW48509   7.329   1.962   6.912  0.3239 -0.1182 -0.3310
12262SOL    HW148510   7.424   1.961   6.901  0.5295 -1.1471  1.1962
12262SOL    HW248511   7.315   2.011   6.993 -0.4773  0.2185 -0.6656
12263SOL     OW48512   4.047  10.870   8.733 -0.0840 -0.5524 -0.2385
12263SOL    HW148513   3.973  10.812   8.713  0.6704 -0.8463 -2.5797
12263SOL    HW248514   4.012  10.958   8.725 -0.5158 -0.6890  0.1491
12264SOL     OW48515   5.224  11.949   5.526 -0.1470 -0.1247  0.3373
12264SOL    HW148516   5.291  11.927   5.591 -1.1781 -0.4119  1.3336
12264SOL    HW248517   5.159  11.880   5.534  0.0812 -0.6278 -1.6110
12265SOL     OW48518   5.315   4.656   0.412 -0.1573  0.0805  0.0870
12265SOL    HW148519   5.372   4.609   0.471  1.1744 -0.3328 -1.4610
12265SOL    HW248520   5.336   4.749   0.426 -0.1030  0.0077  0.4918
12266SOL     OW48521   3.563   7.874   5.262 -0.3507  0.1824  0.0290
12266SOL    HW148522   3.533   7.924   5.338 -0.6840 -1.4656  1.0203
12266SOL    HW248523   3.634   7.926   5.226  0.0399  0.8437  1.6719
12267SOL     OW48524  10.994   4.621  10.188  0.1116 -0.3636  0.4454
12267SOL    HW148525  11.054   4.668  10.247  0.1447 -0.3588  0.4080
12267SOL    HW248526  11.043   4.613  10.106 -0.5996  1.2248 -0.1777
12268SOL     OW48527   1.449   4.186  10.028 -0.0057 -0.0418 -0.1675
12268SOL    HW148528   1.528   4.220  10.069 -0.1620  0.7490 -0.4985
12268SOL    HW248529   1.431   4.104  10.074  0.1211  0.5581  0.9770
12269SOL     OW48530   3.721   3.340  10.575 -0.0883  0.2237  0.0239
12269SOL    HW148531   3.775   3.353  10.654  0.2000  0.6010 -0.2355
12269SOL    HW248532   3.748   3.254  10.542 -0.7016 -0.2505  0.7162
12270SOL     OW48533   2.416  11.326   5.068 -0.9423 -0.2707 -0.3141
12270SOL    HW148534   2.338  11.382   5.064 -0.1949  0.8047 -0.2256
12270SOL    HW248535   2.381  11.237   5.078 -2.3000 -0.3129 -3.9089
12271SOL     OW48536   2.871   2.076   5.526  0.5482  0.1357  0.5097
12271SOL    HW148537   2.841   1.997   5.570 -0.5560  1.0139  1.3970
12271SOL    HW248538   2.964   2.061   5.510  0.4968 -1.0746  1.2359
12272SOL     OW48539   0.624   5.546   4.730  0.1263 -0.0350  0.6301
12272SOL    HW148540   0.555   5.481   4.738 -0.0975  0.0856 -0.1774
12272SOL    HW248541   0.702   5.503   4.764  0.1121 -0.9577 -0.4425
12273SOL     OW48542   7.079   5.542  10.378 -0.3599  1.1008  0.1422
12273SOL    HW148543   7.101   5.628  10.344  0.4706 -0.1468 -2.7892
12273SOL    HW248544   7.001   5.516  10.331 -1.2818  0.6424  1.8278
12274SOL     OW48545   7.535   4.833   7.919  0.3203 -0.1094 -0.1854
12274SOL    HW148546   7.625   4.864   7.930  0.8789 -1.4894 -0.6345
12274SOL    HW248547   7.491   4.856   8.000  1.1745  0.2856  0.1712
12275SOL     OW48548   0.929   1.678   8.800 -0.5250  0.2807 -0.2285
12275SOL    HW148549   0.841   1.692   8.765 -0.6064  0.4891  0.0551
12275SOL    HW248550   0.985   1.735   8.747 -0.4721 -0.2772 -0.7865
12276SOL     OW48551   4.390   8.328  10.126  1.2950 -0.3927  0.6819
12276SOL    HW148552   4.296   8.320  10.105  1.1625 -0.8425  1.4113
12276SOL    HW248553   4.395   8.405  10.182  1.4843  0.0982  0.0127
12277SOL     OW48554   7.932   4.702   3.094 -0.3487  0.0057  0.3043
12277SOL    HW148555   7.875   4.779   3.094 -0.9012 -0.3266  2.2744
12277SOL    HW248556   7.900   4.649   3.168  1.3201 -1.1103  0.2799
12278SOL     OW48557  11.721   7.033   9.378  0.2903  0.2390 -0.4407
12278SOL    HW148558  11.675   6.956   9.344 -0.3134  0.9760 -1.3766
12278SOL    HW248559  11.671   7.107   9.343  1.2234  1.0548 -0.0836
12279SOL     OW48560   0.979   6.720   9.935 -0.2077  0.4465 -0.4005
12279SOL    HW148561   0.959   6.710   9.842 -0.2756 -0.3738 -0.2995
12279SOL    HW248562   0.910   6.671   9.980  0.0677  0.4863  0.0703
12280SOL     OW48563  11.709   5.379   9.606 -0.0720  0.6065  0.3608
12280SOL    HW148564  11.691   5.441   9.677  0.6009 -0.0129  1.1010
12280SOL    HW248565  11.786   5.330   9.636 -0.7212 -0.7463 -0.0854
12281SOL     OW48566   9.994   6.318   2.058 -0.1561  0.1311  0.9045
12281SOL    HW148567  10.043   6.237   2.048  3.0383  1.8242  1.4754
12281SOL    HW248568   9.948   6.329   1.974  0.3171 -1.6242  0.3724
12282SOL     OW48569   3.153   2.132   2.276 -0.2045  0.0726 -0.1157
12282SOL    HW148570   3.239   2.094   2.291 -0.1171  0.7951  1.3944
12282SOL    HW248571   3.121   2.155   2.363 -1.3833  0.9986 -0.7577
12283SOL     OW48572   1.303   8.107   0.209 -0.2543  0.5320 -0.3000
12283SOL    HW148573   1.262   8.141   0.288 -1.7832 -1.0328 -0.3682
12283SOL    HW248574   1.366   8.042   0.241 -0.0987  0.6735 -0.3201
12284SOL     OW48575   2.998  11.317  10.194  0.0888 -0.6231  0.5126
12284SOL    HW148576   2.984  11.266  10.114 -0.5205  0.1282  0.1348
12284SOL    HW248577   3.048  11.393  10.166  2.2998 -1.6915  1.3271
12285SOL     OW48578   4.761  10.048   7.064  0.3198  0.0122  0.0488
12285SOL    HW148579   4.751   9.954   7.081 -0.3954 -0.0946 -0.8786
12285SOL    HW248580   4.856  10.061   7.059  0.4474 -0.5363  0.8067
12286SOL     OW48581   7.758   2.950   1.132  0.5772  0.1307 -0.2931
12286SOL    HW148582   7.822   2.900   1.182 -0.2789 -0.6158  0.0949
12286SOL    HW248583   7.699   2.884   1.096 -0.4994  0.8444  0.1035
12287SOL     OW48584   7.421   6.207   4.249  0.4006  0.4397  0.1425
12287SOL    HW148585   7.333   6.179   4.273  0.5084 -0.0402 -0.0071
12287SOL    HW248586   7.468   6.126   4.231  1.0016  0.6619  0.6497
12288SOL     OW48587   7.013  11.653   1.510  0.6635  0.0213  0.1391
12288SOL    HW148588   6.942  11.689   1.564  0.1649 -0.1496 -0.3980
12288SOL    HW248589   7.023  11.715   1.438  0.8876 -0.0891  0.0723
12289SOL     OW48590   0.008   6.556   2.672 -0.7130  0.0554 -0.0760
12289SOL    HW148591   0.030   6.575   2.763 -1.3967  1.2458 -0.1388
12289SOL    HW248592  -0.080   6.593   2.660 -0.7900 -0.4232 -1.1124
12290SOL     OW48593   6.927  10.904   0.534 -0.1651  0.0123 -0.2350
12290SOL    HW148594   6.865  10.926   0.604  1.6036 -0.7176  1.6692
12290SOL    HW248595   7.010  10.887   0.579  0.8216 -1.5293 -2.4112
12291SOL     OW48596   2.683   3.704   8.829  0.1761  0.0334  0.5847
12291SOL    HW148597   2.661   3.792   8.857  2.9196  0.8373  0.5386
12291SOL    HW248598   2.728   3.665   8.904  0.0328 -0.8882  0.2067
12292SOL     OW48599  11.467   4.424   2.953  0.0917  0.3001  0.0746
12292SOL    HW148600  11.544   4.473   2.983  1.2375 -0.1405 -1.9245
12292SOL    HW248601  11.479   4.336   2.989  0.3905  0.3078 -0.0014
12293SOL     OW48602   9.855   0.560   8.447 -0.1545 -0.2868  0.3561
12293SOL    HW148603   9.903   0.623   8.499  0.4999 -0.3904 -0.1092
12293SOL    HW248604   9.784   0.530   8.504  0.2210  0.0087  0.9826
12294SOL     OW48605   1.024   9.760   6.917 -0.6576 -0.1630  0.0469
12294SOL    HW148606   1.077   9.780   6.994 -0.0983  0.8819 -0.5910
12294SOL    HW248607   1.049   9.671   6.893 -1.2875 -0.7415  1.4158
12295SOL     OW48608   9.203  10.661  10.178 -0.3343 -0.5169  0.0842
12295SOL    HW148609   9.165  10.584  10.220  1.6498 -0.9229  1.2837
12295SOL    HW248610   9.245  10.628  10.099  1.1658 -0.8647  0.9819
12296SOL     OW48611   8.051  10.306   1.957  0.9314  0.1920 -0.0836
12296SOL    HW148612   8.009  10.389   1.978  0.1029 -0.0543 -0.7411
12296SOL    HW248613   7.984  10.240   1.972  1.5397 -0.3612  0.2902
12297SOL     OW48614   5.626   1.134  11.750 -0.4039  0.3693 -0.3532
12297SOL    HW148615   5.591   1.148  11.838 -1.3806 -0.4071 -0.5921
12297SOL    HW248616   5.714   1.170  11.753 -0.6006  0.8065  0.7971
12298SOL     OW48617   3.337   4.231   7.928 -0.2300  0.3198  0.0654
12298SOL    HW148618   3.293   4.156   7.967 -1.5482  0.2488 -1.4674
12298SOL    HW248619   3.335   4.214   7.834  0.3315  1.8105 -0.2473
12299SOL     OW48620   9.961   7.860   8.551 -0.8122 -0.3774  1.2431
12299SOL    HW148621   9.951   7.774   8.509 -1.9719  0.2553  0.1651
12299SOL    HW248622   9.893   7.862   8.618  0.2997 -0.9311  2.4347
12300SOL     OW48623   6.081   6.203   0.836  0.1641 -0.1067 -0.5118
12300SOL    HW148624   6.052   6.231   0.749  0.4181  1.7341 -0.0496
12300SOL    HW248625   6.157   6.257   0.854 -0.4057  0.1745  1.2127
12301SOL     OW48626   8.303   0.583   9.378 -0.4721  0.0076  0.3953
12301SOL    HW148627   8.308   0.582   9.282 -1.3064  2.7243  0.2421
12301SOL    HW248628   8.394   0.596   9.406 -0.6162  3.1378 -0.2734
12302SOL     OW48629   0.555  10.611   1.177  0.1435  0.0365 -0.3815
12302SOL    HW148630   0.485  10.655   1.225  0.9871 -0.9466  1.8852
12302SOL    HW248631   0.577  10.535   1.231  2.2046 -0.2911 -1.5893
12303SOL     OW48632   3.765   3.914   8.438 -0.1291 -0.1822 -0.4160
12303SOL    HW148633   3.771   4.000   8.479  1.3836 -0.6364  0.4078
12303SOL    HW248634   3.836   3.864   8.478 -0.9684 -1.8160 -0.8825
12304SOL     OW48635   5.636   0.262   1.662  0.3220  0.4204  0.1101
12304SOL    HW148636   5.549   0.296   1.640  0.4273  0.2238 -0.6266
12304SOL    HW248637   5.619   0.197   1.731  0.0167  1.2273  0.8065
12305SOL     OW48638   2.723   9.503  11.257 -0.0407 -0.0348 -0.0990
12305SOL    HW148639   2.671   9.491  11.337 -0.1720 -2.1969 -0.4595
12305SOL    HW248640   2.808   9.463  11.278  0.3708  0.5400 -0.6267
12306SOL     OW48641   8.214   2.744   1.316  0.1453  0.1120  0.1584
12306SOL    HW148642   8.233   2.834   1.340 -0.8346  0.0588  1.2190
12306SOL    HW248643   8.281   2.692   1.360  0.6602  0.3022 -0.3872
12307SOL     OW48644  11.100  11.177  10.372 -0.1828  0.3890  0.4459
12307SOL    HW148645  11.050  11.194  10.451 -1.3250 -1.1549  0.1133
12307SOL    HW248646  11.034  11.168  10.303  0.7923  1.7926 -0.7195
12308SOL     OW48647   4.873   3.386  10.308  0.4828 -0.4483 -0.8079
12308SOL    HW148648   4.778   3.378  10.301  0.4306  0.8409 -2.2268
12308SOL    HW248649   4.905   3.296  10.316 -0.8670 -0.8736  0.1411
12309SOL     OW48650   7.699  10.710   3.816  0.3814 -0.0147  0.1143
12309SOL    HW148651   7.708  10.801   3.845  0.7196 -0.0825  0.2237
12309SOL    HW248652   7.785  10.671   3.831  0.2236 -0.3685  0.1192
12310SOL     OW48653   8.238   2.448   1.586  0.4356 -0.3002  0.5320
12310SOL    HW148654   8.154   2.492   1.580 -0.3126 -1.8312 -1.3232
12310SOL    HW248655   8.294   2.492   1.522  0.5802 -0.2605  0.6821
12311SOL     OW48656   0.683  10.831   0.489 -0.3928  0.3298 -0.3738
12311SOL    HW148657   0.597  10.794   0.511  0.2486 -1.8588 -1.2207
12311SOL    HW248658   0.744  10.759   0.504  1.1945  1.5707 -0.6281
12312SOL     OW48659   0.642   4.791   2.482 -0.0514  0.8084 -0.0658
12312SOL    HW148660   0.656   4.713   2.429 -0.7978 -0.1304  1.0769
12312SOL    HW248661   0.576   4.841   2.434 -1.8616 -0.7574  0.6639
12313SOL     OW48662   5.844   5.954   2.232 -0.9371  0.1070  0.3591
12313SOL    HW148663   5.923   5.901   2.221 -1.3811 -0.8533  1.5258
12313SOL    HW248664   5.865   6.037   2.189  0.3075 -0.4938 -0.2701
12314SOL     OW48665   2.084  10.886   4.668 -0.2602 -0.0314  0.3875
12314SOL    HW148666   2.179  10.896   4.666 -0.4541  2.2762  0.6426
12314SOL    HW248667   2.056  10.902   4.578 -0.4114 -1.0951  0.2270
12315SOL     OW48668   6.782   1.562  10.103  0.4793 -0.7170  0.2892
12315SOL    HW148669   6.808   1.475  10.074 -0.4165 -0.5290 -1.2175
12315SOL    HW248670   6.687   1.555  10.118  0.1929  0.2316 -0.8957
12316SOL     OW48671  11.717   3.526  10.574  0.1079  0.2571  0.5364
12316SOL    HW148672  11.644   3.471  10.547  0.3586  0.2769 -0.2113
12316SOL    HW248673  11.690   3.563  10.658 -0.5215 -0.1328  0.5115
12317SOL     OW48674   6.048  11.189   8.711 -0.1681 -0.1992 -0.2623
12317SOL    HW148675   6.118  11.219   8.652  0.6962  1.0626  1.3361
12317SOL    HW248676   6.035  11.097   8.687 -1.2862  0.7095 -3.7778
12318SOL     OW48677   0.224   4.914   4.342 -0.3112 -0.0365 -0.2765
12318SOL    HW148678   0.132   4.917   4.368 -0.7155  1.2403 -1.7445
12318SOL    HW248679   0.249   4.822   4.354 -1.4741 -0.2213  1.0515
12319SOL     OW48680   3.250   0.331   7.035  0.7828 -0.3033  0.8356
12319SOL    HW148681   3.209   0.368   7.113  2.7355  2.7999  0.5929
12319SOL    HW248682   3.177   0.313   6.976 -0.7441 -2.8131  3.2774
12320SOL     OW48683   6.898  10.692   0.860  0.9948 -0.7963 -0.4008
12320SOL    HW148684   6.975  10.742   0.888  0.3189 -0.1017  0.2410
12320SOL    HW248685   6.930  10.638   0.788  2.1945 -0.8550  0.1569
12321SOL     OW48686   2.314   1.943  10.880 -0.3327  0.1301 -0.2804
12321SOL    HW148687   2.321   1.990  10.963 -1.5677  0.7271 -0.4944
12321SOL    HW248688   2.302   2.013  10.815 -1.7085 -0.4424 -0.6652
12322SOL     OW48689   4.486   7.071   3.141  0.0610 -0.1313 -0.0350
12322SOL    HW148690   4.425   7.065   3.214 -0.6324  0.8319 -0.5155
12322SOL    HW248691   4.510   6.980   3.123 -0.5596 -0.4620  0.7122
12323SOL     OW48692   4.864   5.019   4.005  0.4822  0.1904 -0.4787
12323SOL    HW148693   4.936   4.957   3.988 -0.4137 -0.3097 -2.9565
12323SOL    HW248694   4.821   4.984   4.083  2.6282  0.2704  0.8223
12324SOL     OW48695  11.764   2.608   1.770 -0.6968 -0.0842 -0.3095
12324SOL    HW148696  11.730   2.626   1.857  0.6800  2.2546 -0.1707
12324SOL    HW248697  11.851   2.571   1.785 -0.6390 -0.1028 -0.6827
12325SOL     OW48698   8.510   0.952   1.602  0.0237  0.2603  0.4649
12325SOL    HW148699   8.574   0.979   1.669  0.0578 -0.2064  0.6252
12325SOL    HW248700   8.428   0.943   1.650 -0.0880  0.5134  0.3249
12326SOL     OW48701   1.259   4.515   6.945  0.1422  0.3526 -0.2631
12326SOL    HW148702   1.246   4.508   7.040 -1.9865 -1.2660 -0.6099
12326SOL    HW248703   1.313   4.594   6.934 -3.0997  3.1874  2.0204
12327SOL     OW48704   4.555   7.325   3.747  0.1213  0.2900 -0.0902
12327SOL    HW148705   4.525   7.282   3.827  2.2492  0.2527  0.7555
12327SOL    HW248706   4.628   7.272   3.717 -0.4454  0.4853 -1.9258
12328SOL     OW48707   9.462   2.777   0.485  0.2663  0.4392  0.3548
12328SOL    HW148708   9.409   2.855   0.469  1.0275  0.7565 -0.7667
12328SOL    HW248709   9.401   2.714   0.525 -1.0165  0.7323 -1.0232
12329SOL     OW48710   3.811   3.173   8.303  0.3515 -0.1855  0.3089
12329SOL    HW148711   3.834   3.263   8.282  0.6932 -0.4216 -0.3754
12329SOL    HW248712   3.716   3.170   8.298  0.2785  0.3228  1.1554
12330SOL     OW48713   2.572  10.860   3.973  0.5154  0.0223  0.4193
12330SOL    HW148714   2.551  10.792   3.909  0.3227 -0.8652  1.3964
12330SOL    HW248715   2.637  10.916   3.929  0.4331 -0.6007 -0.5127
12331SOL     OW48716   6.649   7.425   4.006 -0.4222 -0.1182 -0.0944
12331SOL    HW148717   6.617   7.335   3.997 -0.5160 -0.4983  2.8898
12331SOL    HW248718   6.744   7.418   3.993 -0.4012 -0.7287  0.3291
12332SOL     OW48719   2.433   5.517   1.854 -0.0945 -0.5775  0.4085
12332SOL    HW148720   2.502   5.574   1.820 -0.4224 -0.3650  0.0881
12332SOL    HW248721   2.359   5.532   1.795 -0.8369  0.1578  1.4739
12333SOL     OW48722   4.241   4.762   9.932 -0.2593  0.1503 -1.1670
12333SOL    HW148723   4.238   4.670   9.909  2.4213  0.4436 -3.1879
12333SOL    HW248724   4.334   4.781   9.944 -0.7733  2.4767 -0.2395
12334SOL     OW48725   9.827  11.173   8.604  0.1954  0.0548 -0.3978
12334SOL    HW148726   9.872  11.257   8.600  2.1593 -0.9522 -0.3826
12334SOL    HW248727   9.811  11.150   8.512 -2.2051  1.3388 -0.3727
12335SOL     OW48728   3.554   7.157  10.192 -0.0630  0.1777  0.1922
12335SOL    HW148729   3.564   7.086  10.129 -0.1319  0.3375  0.0014
12335SOL    HW248730   3.495   7.219  10.150 -0.1834  0.2407  0.4517
12336SOL     OW48731   9.589   8.038   6.304 -0.0883 -0.2431 -0.0725
12336SOL    HW148732   9.579   8.056   6.397  0.4127 -0.3031 -0.0042
12336SOL    HW248733   9.500   8.031   6.271 -0.3016 -2.1165  0.7764
12337SOL     OW48734   0.063   0.090   7.312 -0.4193 -0.9501 -0.8895
12337SOL    HW148735  -0.016   0.041   7.336 -0.3628 -1.1732 -1.1520
12337SOL    HW248736   0.095   0.046   7.233 -1.2157  0.4425 -2.0478
12338SOL     OW48737   5.415  11.523   9.054 -0.1672 -0.3461  0.5469
12338SOL    HW148738   5.363  11.474   8.990 -0.7176  0.0199  0.7088
12338SOL    HW248739   5.449  11.597   9.004  1.4888 -1.3924  0.0437
12339SOL     OW48740   2.259   9.098  10.003  0.5108  0.1403 -0.1517
12339SOL    HW148741   2.311   9.048  10.066  0.3963 -0.0502 -0.2087
12339SOL    HW248742   2.320   9.116   9.931  0.9938  1.3728  0.5260
12340SOL     OW48743   2.050   6.076   6.367 -0.6266 -0.6103  0.2095
12340SOL    HW148744   2.006   6.020   6.431  0.2813  0.9191  2.2944
12340SOL    HW248745   2.031   6.165   6.396  2.2503  0.1287  0.1328
12341SOL     OW48746   1.334   9.305   6.148 -0.2441  0.2026 -0.0775
12341SOL    HW148747   1.404   9.312   6.213 -0.5317 -2.4753  0.6649
12341SOL    HW248748   1.378   9.320   6.064  1.2960 -1.3662  0.3714
12342SOL     OW48749   3.053  10.048  11.697  0.1544 -0.3887  0.2995
12342SOL    HW148750   2.964  10.053  11.732  0.2161 -0.5257  0.4780
12342SOL    HW248751   3.091   9.972  11.740  0.6103  0.1203  0.8069
12343SOL     OW48752  11.626  10.150   8.036 -0.6093  0.1620  0.1921
12343SOL    HW148753  11.619  10.232   7.987  2.6157  0.9278  0.7794
12343SOL    HW248754  11.606  10.174   8.126  1.7286  0.7514  0.6279
12344SOL     OW48755   7.262   9.391   6.017  0.0972 -0.2291  0.2722
12344SOL    HW148756   7.239   9.452   5.947  1.6686 -0.8505 -0.8460
12344SOL    HW248757   7.179   9.351   6.043 -0.9065  1.9472  0.6765
12345SOL     OW48758   6.899   9.933   4.399  0.2014 -0.3798 -0.0171
12345SOL    HW148759   6.823   9.921   4.342  0.2074  1.1520 -0.3946
12345SOL    HW248760   6.876  10.007   4.454  1.5769  0.4048 -0.4502
12346SOL     OW48761  10.904  10.831   8.313 -0.2375  0.5229  0.5422
12346SOL    HW148762  10.950  10.880   8.381  1.7160 -1.7939  1.0693
12346SOL    HW248763  10.826  10.797   8.357 -0.2931  1.0934  0.8908
12347SOL     OW48764   9.177   3.234   8.362 -0.2457  0.6825  0.1986
12347SOL    HW148765   9.239   3.163   8.346  0.9850  1.8328 -0.2435
12347SOL    HW248766   9.091   3.194   8.345  0.1928 -1.3634  2.2798
12348SOL     OW48767   5.888   0.689   7.733  0.7777  0.2247  0.1163
12348SOL    HW148768   5.915   0.774   7.767 -0.4558  1.0393 -0.8603
12348SOL    HW248769   5.815   0.663   7.790  0.1375  0.5667 -0.5332
12349SOL     OW48770   4.772   0.801  11.766 -0.3035 -0.8714  0.7191
12349SOL    HW148771   4.680   0.777  11.779 -0.2892 -1.6941 -0.6129
12349SOL    HW248772   4.769   0.870  11.699  0.0040 -0.3445  1.2378
12350SOL     OW48773   8.078   2.322   9.772 -0.3208 -0.4537 -0.5788
12350SOL    HW148774   8.092   2.368   9.690  0.3513 -2.3869 -1.6163
12350SOL    HW248775   8.144   2.253   9.773  0.8513  0.5413  2.4278
12351SOL     OW48776  10.559   4.378  10.560 -0.2252  0.2666 -0.1347
12351SOL    HW148777  10.553   4.340  10.647 -4.6922  0.7187 -0.0088
12351SOL    HW248778  10.529   4.309  10.501 -1.3270  1.2123 -0.7444
12352SOL     OW48779   5.125   3.366   4.932  0.2124  0.3606 -0.4563
12352SOL    HW148780   5.110   3.439   4.872  0.0523  0.2324 -0.5778
12352SOL    HW248781   5.135   3.406   5.018  0.1305  0.5263 -0.5235
12353SOL     OW48782  10.666   5.958   7.669 -0.2149 -0.0550 -0.4055
12353SOL    HW148783  10.694   5.939   7.580  1.3763  0.8139 -0.1256
12353SOL    HW248784  10.578   5.996   7.660 -0.2918 -0.4879 -1.5363
12354SOL     OW48785   5.674   8.796   4.354  0.2769 -0.4406 -0.0157
12354SOL    HW148786   5.725   8.870   4.388  3.0580 -1.7698 -1.0436
12354SOL    HW248787   5.640   8.752   4.432  2.8380 -0.9225  0.9013
12355SOL     OW48788   5.952  11.442   0.712 -0.8448  0.3074 -0.1717
12355SOL    HW148789   6.011  11.368   0.726 -0.5563  1.0609  3.8308
12355SOL    HW248790   5.885  11.433   0.779 -2.0270  2.5368 -0.9481
12356SOL     OW48791   2.760   2.382   6.194  0.0978 -0.0699 -0.1844
12356SOL    HW148792   2.837   2.431   6.222  0.0984  0.3214 -0.8407
12356SOL    HW248793   2.776   2.293   6.223  1.9803 -0.5709 -2.4545
12357SOL     OW48794   3.540   3.119   8.336  0.2249 -0.2933  0.0677
12357SOL    HW148795   3.450   3.107   8.367 -1.2740  1.6752 -2.9569
12357SOL    HW248796   3.555   3.043   8.279 -0.6722  0.6709 -1.5484
12358SOL     OW48797  11.295   2.200   1.052 -0.3398 -0.1277  0.2299
12358SOL    HW148798  11.327   2.169   0.968  0.7003 -0.9364  0.9014
12358SOL    HW248799  11.204   2.173   1.055 -0.5048  0.2794 -0.8013
12359SOL     OW48800   2.930   2.484   4.041 -0.3328  0.1268  0.2027
12359SOL    HW148801   2.946   2.417   4.108 -1.4947 -0.2628  0.1100
12359SOL    HW248802   2.915   2.564   4.091  0.5010  0.2039  0.3368
12360SOL     OW48803   5.559   6.414  11.605  0.0171  0.6554  0.2207
12360SOL    HW148804   5.516   6.487  11.651 -0.3131 -0.2624  1.4251
12360SOL    HW248805   5.627   6.455  11.553 -1.2273  2.0001 -0.4305
12361SOL     OW48806  10.951   7.986   7.561 -0.7424  0.3243 -0.0214
12361SOL    HW148807  10.995   7.908   7.596  0.7154  1.0987 -0.0268
12361SOL    HW248808  10.891   8.013   7.629  1.8612  1.6704  1.9296
12362SOL     OW48809   1.289   3.536   4.889  0.2391  0.2029  0.1449
12362SOL    HW148810   1.218   3.598   4.906 -0.3197 -0.5338  0.5242
12362SOL    HW248811   1.291   3.527   4.794  0.3411  0.8196  0.0851
12363SOL     OW48812   3.126   1.226   7.315  0.3793 -0.3699 -0.1099
12363SOL    HW148813   3.057   1.160   7.322  3.1153 -3.6543 -0.7305
12363SOL    HW248814   3.097   1.299   7.369 -1.9594 -3.0310  2.5925
12364SOL     OW48815   3.525   2.404  10.449 -0.5714  0.0083 -0.4559
12364SOL    HW148816   3.578   2.369  10.377  1.4833  1.0110  0.4980
12364SOL    HW248817   3.480   2.480  10.411 -0.1706  0.0313 -0.8925
12365SOL     OW48818  10.681   3.017   8.038 -0.1880  0.1771 -0.0720
12365SOL    HW148819  10.723   2.967   8.108 -1.2205  1.3529  1.4523
12365SOL    HW248820  10.652   3.097   8.080 -1.4273  0.6460 -1.7237
12366SOL     OW48821   4.569  11.075   0.435  0.3224 -0.3113  0.3852
12366SOL    HW148822   4.524  11.071   0.520  2.3722  1.1334  1.6157
12366SOL    HW248823   4.541  11.158   0.396 -0.9275 -1.1522 -0.6112
12367SOL     OW48824   1.841   0.358   0.613  0.2211  0.2412 -0.3004
12367SOL    HW148825   1.802   0.373   0.699 -0.2715  1.7668 -0.7546
12367SOL    HW248826   1.935   0.361   0.629  0.1888 -1.5074  0.4830
12368SOL     OW48827   5.227   7.230   0.583  0.2928 -0.0969  0.2168
12368SOL    HW148828   5.221   7.326   0.584 -0.4000 -0.1400  0.8033
12368SOL    HW248829   5.246   7.207   0.674 -0.3631 -0.5654  0.2404
12369SOL     OW48830   7.498  11.436   2.339  0.4641  0.0838  0.4675
12369SOL    HW148831   7.404  11.452   2.330  0.1389 -2.2821 -1.2512
12369SOL    HW248832   7.539  11.497   2.278 -0.0519  0.2032  0.2379
12370SOL     OW48833  11.438   0.215   9.059 -0.0197 -0.0431 -0.2930
12370SOL    HW148834  11.346   0.223   9.085 -0.0738  0.1733 -0.5486
12370SOL    HW248835  11.487   0.237   9.139 -0.1885  0.1650 -0.2437
12371SOL     OW48836   7.484   9.681   0.586 -0.0978 -0.2868  0.6735
12371SOL    HW148837   7.542   9.687   0.662 -0.6581  0.1428  1.0701
12371SOL    HW248838   7.402   9.648   0.621 -0.6440  0.7617  0.4182
12372SOL     OW48839  10.474   3.120   4.817 -0.1911 -0.7070 -0.3189
12372SOL    HW148840  10.449   3.145   4.728 -1.0072  1.2793  0.4051
12372SOL    HW248841  10.524   3.195   4.850 -2.1819 -0.1637  1.7778
12373SOL     OW48842   6.157  10.855   9.752  0.1115  0.0730 -0.1941
12373SOL    HW148843   6.098  10.916   9.708 -0.0439  0.6258  0.7441
12373SOL    HW248844   6.146  10.772   9.705 -1.3416  0.1916 -0.1137
12374SOL     OW48845   1.245   3.128   7.074  0.1744  0.4116  0.8824
12374SOL    HW148846   1.251   3.220   7.048  0.0699  0.4206  0.8884
12374SOL    HW248847   1.314   3.117   7.140  0.2402  0.4653  0.8225
12375SOL     OW48848   5.646   9.416  11.364 -0.3117  0.4545  0.1531
12375SOL    HW148849   5.717   9.480  11.368  1.1931 -1.1849  1.2900
12375SOL    HW248850   5.649   9.372  11.449 -2.8077  0.3796  0.2932
12376SOL     OW48851   3.064   2.804   2.993  0.1414 -0.0511 -0.5859
12376SOL    HW148852   3.092   2.814   2.902  1.4816 -2.4424 -0.5108
12376SOL    HW248853   3.141   2.828   3.045 -0.6952  1.5643 -0.0014
12377SOL     OW48854   7.231   5.511   4.230  0.1782  0.3649  0.2141
12377SOL    HW148855   7.276   5.435   4.194 -2.6516 -1.4166  0.1243
12377SOL    HW248856   7.196   5.557   4.153  0.7928  1.0772  0.3425
12378SOL     OW48857   7.125   0.911   1.311  0.3755 -0.2516  0.2203
12378SOL    HW148858   7.079   0.903   1.395  0.9515 -0.9332  0.4757
12378SOL    HW248859   7.197   0.971   1.330 -1.3119  2.1749 -0.5839
12379SOL     OW48860   3.902   1.611   2.736 -0.1481  0.2968 -0.1658
12379SOL    HW148861   3.845   1.618   2.813 -0.8496 -0.9823 -0.5496
12379SOL    HW248862   3.906   1.700   2.702 -0.6417  0.6959  0.7677
12380SOL     OW48863   5.387   6.074   8.014 -0.3323  0.8274  0.5394
12380SOL    HW148864   5.411   6.090   7.923  0.1511  0.2375  0.5510
12380SOL    HW248865   5.400   6.157   8.059 -0.1934  1.0164  0.1438
12381SOL     OW48866   7.197   8.943  11.596 -0.1568  0.3906  0.0398
12381SOL    HW148867   7.116   8.990  11.577  0.6643  1.3323 -1.3207
12381SOL    HW248868   7.265   8.995  11.553  1.1422 -0.5114  0.9387
12382SOL     OW48869   8.978   0.821   4.419 -0.4887 -0.3745  0.1858
12382SOL    HW148870   8.951   0.907   4.387 -1.4526 -0.7407 -0.0286
12382SOL    HW248871   9.072   0.830   4.437 -0.3205  0.3740 -0.9509
12383SOL     OW48872   4.090   6.796  10.324 -0.2843 -0.2135  0.0126
12383SOL    HW148873   4.116   6.861  10.389 -1.6963 -0.8853  1.2898
12383SOL    HW248874   4.116   6.712  10.362 -1.0737 -0.6082 -0.2924
12384SOL     OW48875   4.096   7.338   8.497 -0.1273 -0.3789 -0.2487
12384SOL    HW148876   4.123   7.257   8.454 -0.8226 -1.0199  0.5027
12384SOL    HW248877   4.006   7.352   8.469 -0.3927 -0.4905  0.5354
12385SOL     OW48878   9.225   7.418   7.202  0.1064  0.3010  0.0846
12385SOL    HW148879   9.188   7.506   7.190  0.5232  0.5156  0.3272
12385SOL    HW248880   9.253   7.392   7.115 -2.3094 -0.6597 -0.4702
12386SOL     OW48881   6.200  10.914   6.215  0.2187 -0.4772 -0.2838
12386SOL    HW148882   6.119  10.923   6.265  0.8813  1.8218  0.4933
12386SOL    HW248883   6.204  10.821   6.191 -2.3756 -0.7282  0.0592
12387SOL     OW48884   3.999   2.075   9.970  0.3159 -0.2191 -0.0020
12387SOL    HW148885   3.934   2.005   9.979  0.4212 -0.5376 -1.4629
12387SOL    HW248886   4.068   2.052  10.033 -1.0959  0.3046  1.8368
12388SOL     OW48887   1.538   0.111   1.238 -0.1474 -0.3160 -0.3390
12388SOL    HW148888   1.481   0.041   1.270 -1.0501 -0.1409 -1.4856
12388SOL    HW248889   1.500   0.191   1.274  0.5187 -0.3454  0.4590
12389SOL     OW48890   2.706   8.299   1.328 -0.4014 -0.3578 -0.0051
12389SOL    HW148891   2.612   8.311   1.337 -0.7842 -2.6830 -0.3866
12389SOL    HW248892   2.717   8.240   1.253  1.2307 -1.5408  1.0859
12390SOL     OW48893   4.782   2.896   1.647  0.1526  0.0763  0.4590
12390SOL    HW148894   4.850   2.926   1.587 -0.6520  0.2008 -0.4077
12390SOL    HW248895   4.716   2.966   1.646 -1.9229 -1.7142 -1.8525
12391SOL     OW48896   2.793   1.693   0.930  0.1847 -0.0995  0.0137
12391SOL    HW148897   2.775   1.652   1.014  2.5616  1.6316  1.4943
12391SOL    HW248898   2.814   1.784   0.951  2.1249  0.0977 -2.2554
12392SOL     OW48899  11.638   6.177   4.756  0.1921 -0.6768 -0.0725
12392SOL    HW148900  11.649   6.116   4.829  0.5744  0.1532  0.5855
12392SOL    HW248901  11.727   6.195   4.726  0.3368  1.4982  1.4125
12393SOL     OW48902   6.510  11.813   5.704  0.0888 -0.1505  0.4026
12393SOL    HW148903   6.517  11.908   5.713 -3.0104  0.1883  0.4648
12393SOL    HW248904   6.434  11.801   5.647 -0.6285 -2.6040  1.7480
12394SOL     OW48905   2.591   6.785  11.847 -0.2273  0.8588 -0.3590
12394SOL    HW148906   2.527   6.856  11.837 -0.5906  0.4533 -0.9287
12394SOL    HW248907   2.576   6.751  11.935 -0.5454  1.0104 -0.3552
12395SOL     OW48908   9.419   3.502  10.854 -0.0295  0.1615  0.6518
12395SOL    HW148909   9.344   3.558  10.877 -0.1923  0.1537  0.1450
12395SOL    HW248910   9.380   3.420  10.825  0.1624  0.3040 -0.0150
12396SOL     OW48911   2.265   0.188  11.775  0.7392 -0.7128  0.7712
12396SOL    HW148912   2.183   0.219  11.738  1.0001 -1.3734 -0.4091
12396SOL    HW248913   2.301   0.264  11.820 -0.4391 -0.3810  1.1819
12397SOL     OW48914  11.593   5.533   4.254 -0.2987  0.5655 -0.3456
12397SOL    HW148915  11.639   5.585   4.188 -0.8698  0.5088 -0.7977
12397SOL    HW248916  11.515   5.585   4.276  0.2503  0.9249  0.8284
12398SOL     OW48917  11.061   3.701   9.523 -0.3014  0.3472 -0.3083
12398SOL    HW148918  11.039   3.623   9.573  0.1781 -0.3251 -1.1228
12398SOL    HW248919  11.042   3.774   9.582  0.5078 -0.4332  0.9562
12399SOL     OW48920   6.166   2.252   6.511 -0.4687  0.3583  0.1095
12399SOL    HW148921   6.251   2.249   6.556 -0.6647  0.8105  0.5198
12399SOL    HW248922   6.127   2.335   6.540  0.1053  1.5099 -2.1862
12400SOL     OW48923   5.073   1.993   6.504 -0.3751  0.7510  0.0181
12400SOL    HW148924   5.164   1.990   6.534  0.0275 -0.7578 -1.2202
12400SOL    HW248925   5.076   1.959   6.415 -2.4075 -1.2591  0.6150
12401SOL     OW48926   0.884   3.940   0.264 -0.0726 -0.2664  0.8643
12401SOL    HW148927   0.976   3.932   0.238 -0.7456 -0.5489 -1.6466
12401SOL    HW248928   0.860   4.029   0.238 -0.7600 -0.5190  0.6176
12402SOL     OW48929   4.596   0.716   0.069 -0.3038 -0.0980  0.2022
12402SOL    HW148930   4.639   0.790   0.112 -0.4749 -0.4670  1.0307
12402SOL    HW248931   4.549   0.755  -0.004  0.4262  0.4739  0.0211
12403SOL     OW48932   5.006   5.937   0.632  0.2874  0.2829  0.0528
12403SOL    HW148933   4.963   5.892   0.705  2.7760  1.6612  2.5487
12403SOL    HW248934   5.064   5.871   0.593 -1.0322 -0.4475 -0.7670
12404SOL     OW48935  11.473   2.518   4.494  0.3390 -0.3637  0.1488
12404SOL    HW148936  11.452   2.447   4.433  1.6874  0.6486 -1.6014
12404SOL    HW248937  11.526   2.477   4.562 -3.2297 -2.0374  2.1735
12405SOL     OW48938   1.734   0.848   8.941  0.0706  0.2935 -0.1127
12405SOL    HW148939   1.711   0.922   8.885  1.6095  0.7697 -0.1651
12405SOL    HW248940   1.722   0.771   8.886  0.2263  0.6537 -0.6629
12406SOL     OW48941   3.796   1.879   9.998  0.7534 -0.2081 -0.3050
12406SOL    HW148942   3.781   1.876  10.092  1.4077 -0.4462 -0.2067
12406SOL    HW248943   3.724   1.933   9.964  0.8812  0.4085  0.3957
12407SOL     OW48944   7.004   7.857   7.742 -0.0356  0.1873  0.0258
12407SOL    HW148945   6.969   7.779   7.786 -0.9751 -0.5153 -1.8760
12407SOL    HW248946   7.069   7.892   7.804 -0.6033 -1.2858  1.5257
12408SOL     OW48947   6.180   9.587   6.114  0.6338 -0.3680 -0.0715
12408SOL    HW148948   6.137   9.568   6.030  0.1107 -1.8712  0.5176
12408SOL    HW248949   6.218   9.674   6.101  1.0822 -0.8034 -2.0750
12409SOL     OW48950   0.298   2.553   6.399  0.1913  0.2243 -0.2178
12409SOL    HW148951   0.240   2.544   6.323  0.2874 -0.4395 -0.2196
12409SOL    HW248952   0.295   2.646   6.421  0.3851  0.4691 -1.2050
12410SOL     OW48953   5.551   2.612   4.519  0.0190 -0.1630  0.2750
12410SOL    HW148954   5.605   2.681   4.482 -2.7960  1.3828 -1.3351
12410SOL    HW248955   5.490   2.658   4.576 -0.8833 -1.5285  0.4667
12411SOL     OW48956   2.430   1.009   8.010 -0.1828 -0.0684  0.1577
12411SOL    HW148957   2.412   0.918   8.033  1.0786  0.1314  2.1450
12411SOL    HW248958   2.371   1.060   8.066 -0.0125  0.3746 -0.0631
12412SOL     OW48959   4.528   4.551  11.724  0.2299 -0.1568 -0.3293
12412SOL    HW148960   4.597   4.537  11.659  0.8340  0.2652  0.2092
12412SOL    HW248961   4.455   4.496  11.694  1.5316 -2.3445  0.2591
12413SOL     OW48962  10.587  10.591   8.217  0.0432  0.2949 -0.3476
12413SOL    HW148963  10.604  10.510   8.169  1.6771  0.0453  0.5571
12413SOL    HW248964  10.513  10.631   8.172  1.2409 -0.0913 -2.8479
12414SOL     OW48965   4.171  11.304   6.576  0.0971 -0.0813 -0.5128
12414SOL    HW148966   4.088  11.265   6.603  0.5083 -0.1619  0.6900
12414SOL    HW248967   4.184  11.273   6.486 -2.3508  1.8949 -1.6917
12415SOL     OW48968   5.390   3.706   5.131 -0.3026  0.5590  0.1224
12415SOL    HW148969   5.340   3.754   5.196 -1.6000  0.1558 -0.5531
12415SOL    HW248970   5.368   3.747   5.047  1.9067  1.5486 -0.0356
12416SOL     OW48971   7.717  10.834  10.643 -0.1726  0.1306 -0.5250
12416SOL    HW148972   7.709  10.915  10.593  3.2113  0.8838 -0.1253
12416SOL    HW248973   7.811  10.825  10.659 -0.7995 -1.1092  3.9790
12417SOL     OW48974   8.061   8.064   7.859  0.1857  0.3323 -0.2000
12417SOL    HW148975   8.007   8.141   7.877 -1.3660 -0.3938 -1.5592
12417SOL    HW248976   8.074   8.065   7.764 -0.6349 -1.5438 -0.3763
12418SOL     OW48977   8.327   3.366   0.191  0.0285  0.0060  0.2107
12418SOL    HW148978   8.323   3.271   0.197  0.2520 -0.0500 -0.4133
12418SOL    HW248979   8.418   3.385   0.169  0.4430  0.4856  2.1707
12419SOL     OW48980  10.561  11.006   2.645  0.5837 -0.4444 -0.2206
12419SOL    HW148981  10.482  11.057   2.662 -0.3333 -1.5279 -1.0543
12419SOL    HW248982  10.612  11.061   2.585  0.9114  0.6523  1.0218
12420SOL     OW48983   2.822   6.979  11.471  0.4059 -0.4610  0.2882
12420SOL    HW148984   2.898   6.949  11.420  2.2356  0.5858  2.2442
12420SOL    HW248985   2.850   7.062  11.509 -2.0929  0.4122  0.3675
12421SOL     OW48986  10.912   1.019   1.645 -0.5753  0.4275  0.1527
12421SOL    HW148987  10.874   0.937   1.614 -0.9683  0.3150  0.9374
12421SOL    HW248988  10.894   1.081   1.574  0.0350 -0.2293 -0.6066
12422SOL     OW48989   8.771   8.055  10.442 -0.1237 -0.6221  0.4480
12422SOL    HW148990   8.839   8.119  10.419  0.0131 -1.1219 -0.5961
12422SOL    HW248991   8.817   7.986  10.488 -0.2842  0.0465  1.6605
12423SOL     OW48992   5.549   8.883   3.001 -0.3109  0.3689 -0.1765
12423SOL    HW148993   5.479   8.892   3.066 -0.5786  2.0044 -0.6357
12423SOL    HW248994   5.628   8.869   3.053 -0.7165  0.2748  0.4363
12424SOL     OW48995  10.222   6.376   2.859  0.1217 -0.4817 -0.1653
12424SOL    HW148996  10.257   6.292   2.891  1.3535  0.1795  0.2902
12424SOL    HW248997  10.175   6.353   2.779 -1.5971 -1.9341  1.1752
12425SOL     OW48998  10.289   4.318   0.516  0.0105 -0.3270 -0.1964
12425SOL    HW148999  10.195   4.335   0.518 -0.2937 -1.8615 -0.1604
12425SOL    HW249000  10.319   4.333   0.606 -0.6127 -1.7937  0.2921
12426SOL     OW49001   2.960  10.950  11.055 -0.1377  0.6001  0.5897
12426SOL    HW149002   3.032  10.978  10.998 -0.6174  0.5122 -0.0736
12426SOL    HW249003   2.953  10.856  11.040 -0.6700  0.6768  0.3164
12427SOL     OW49004   8.563  11.329   4.589  0.0938  0.1553 -0.3217
12427SOL    HW149005   8.476  11.327   4.550  0.7953 -0.1292 -1.9330
12427SOL    HW249006   8.582  11.423   4.600  0.5014  0.3309 -2.1851
12428SOL     OW49007   1.956  11.583   2.830 -0.3391  0.2723 -0.1992
12428SOL    HW149008   1.887  11.534   2.875  0.2031  0.0291  0.3829
12428SOL    HW249009   2.008  11.621   2.901 -1.0410  2.1277 -0.6314
12429SOL     OW49010   5.554   5.443   8.863 -0.1078  0.4969  0.4173
12429SOL    HW149011   5.550   5.385   8.787 -1.4806  0.1749  0.7085
12429SOL    HW249012   5.597   5.390   8.931 -2.6599 -0.8069  1.1449
12430SOL     OW49013  11.070   3.567   0.088  0.0955  0.0002  0.3812
12430SOL    HW149014  11.096   3.631   0.154  0.2908  1.1258 -0.7323
12430SOL    HW249015  11.042   3.620   0.013  0.5190 -1.2061 -0.6779
12431SOL     OW49016   9.830   0.589   3.430 -0.4983 -0.0888 -0.0740
12431SOL    HW149017   9.907   0.571   3.483 -0.2607 -0.6668 -0.6043
12431SOL    HW249018   9.757   0.552   3.479 -0.5846  1.2584  0.8755
12432SOL     OW49019   0.465   8.110   4.719 -0.6831 -0.2810  0.0948
12432SOL    HW149020   0.419   8.049   4.661 -0.6060  0.1751 -0.4623
12432SOL    HW249021   0.541   8.061   4.750  0.3164  0.0426 -1.6846
12433SOL     OW49022   0.035   3.456   1.186  0.0184 -0.3427 -0.4121
12433SOL    HW149023  -0.020   3.496   1.254 -1.3279 -1.7760 -0.5972
12433SOL    HW249024   0.059   3.529   1.129  0.8303  0.8206  1.3378
12434SOL     OW49025  10.976   4.661   6.029 -0.0942 -0.1565  0.3604
12434SOL    HW149026  11.014   4.651   6.116 -1.4995 -0.8228  0.9307
12434SOL    HW249027  11.051   4.657   5.969  0.7170 -1.4573  1.4232
12435SOL     OW49028  10.028  10.213  11.305 -0.6914 -0.5916 -0.1223
12435SOL    HW149029   9.941  10.200  11.269 -0.2838 -3.1755 -0.3782
12435SOL    HW249030  10.079  10.251  11.234 -1.2163 -0.6144 -0.5133
12436SOL     OW49031  11.228   1.055   2.671  0.1213 -0.1287  0.0550
12436SOL    HW149032  11.190   0.968   2.686 -1.4218  0.0361 -2.3473
12436SOL    HW249033  11.157   1.116   2.692  0.5566  0.4483 -0.1233
12437SOL     OW49034  10.307   8.068   9.385  0.0175 -0.2230  0.3296
12437SOL    HW149035  10.302   8.114   9.470  2.0921 -1.5853  1.2703
12437SOL    HW249036  10.326   7.977   9.409 -0.6464 -0.9050 -1.6004
12438SOL     OW49037   5.641  10.573   4.935 -0.0337  0.0809 -0.4148
12438SOL    HW149038   5.699  10.614   5.000  0.7519  2.4123 -2.4232
12438SOL    HW249039   5.583  10.644   4.908 -1.3082 -1.2358 -1.2238
12439SOL     OW49040   8.742   5.882   2.924  0.0441  0.3512  0.5334
12439SOL    HW149041   8.808   5.943   2.959  0.2889 -0.4059  1.4097
12439SOL    HW249042   8.676   5.939   2.885  0.6950  1.1574  0.5632
12440SOL     OW49043   1.729  11.647   1.376 -0.5440  0.1664 -0.4023
12440SOL    HW149044   1.651  11.693   1.408 -1.6885 -1.2892 -0.9781
12440SOL    HW249045   1.780  11.629   1.454 -1.8647 -0.7504  0.2926
12441SOL     OW49046   0.868   5.399  11.376 -0.1446  0.5982  0.0512
12441SOL    HW149047   0.816   5.437  11.306 -1.9790 -1.8112 -0.0321
12441SOL    HW249048   0.954   5.440  11.367  0.0947 -0.3853 -4.3987
12442SOL     OW49049   2.879  11.519   7.541  0.7311 -0.2263  0.5466
12442SOL    HW149050   2.811  11.508   7.608 -1.8568 -1.7449 -2.1029
12442SOL    HW249051   2.946  11.456   7.565  0.3856 -0.0356  2.2069
12443SOL     OW49052   0.576   0.230   4.140 -0.2602  0.0308  0.2027
12443SOL    HW149053   0.508   0.216   4.074  0.6709 -1.0974 -0.5661
12443SOL    HW249054   0.529   0.228   4.223 -1.1598 -0.8907 -0.2991
12444SOL     OW49055   4.371   4.890   5.296  0.6957 -0.1561 -0.3284
12444SOL    HW149056   4.331   4.809   5.262  1.2510 -0.7976  0.5068
12444SOL    HW249057   4.458   4.862   5.325  0.2768  0.3948  1.5137
12445SOL     OW49058  11.667   2.076   9.211  0.3263 -0.1957  0.3498
12445SOL    HW149059  11.664   2.160   9.256  0.4374  0.4868 -0.8709
12445SOL    HW249060  11.697   2.014   9.278 -2.8947  0.0276  2.2516
12446SOL     OW49061   1.450  11.013   3.994 -0.0924 -0.1083 -0.1906
12446SOL    HW149062   1.416  11.043   4.079  1.4115  0.4352  0.2512
12446SOL    HW249063   1.430  10.919   3.993 -0.4529 -0.0550  0.6010
12447SOL     OW49064   7.711   7.219   6.994  0.0633  0.0347 -0.8990
12447SOL    HW149065   7.639   7.271   6.956  0.9925  0.8635 -1.5873
12447SOL    HW249066   7.694   7.221   7.088 -0.8285  0.1962 -1.0511
12448SOL     OW49067   0.507   3.429   5.983  0.6699  0.0855 -0.1063
12448SOL    HW149068   0.573   3.494   6.008 -1.5130  2.0263  1.0518
12448SOL    HW249069   0.426   3.459   6.026 -0.7717 -2.7182 -0.6052
12449SOL     OW49070   7.365   8.271   3.477  0.4784 -0.3602  0.6269
12449SOL    HW149071   7.447   8.252   3.521  1.1895  0.7562 -0.1449
12449SOL    HW249072   7.373   8.229   3.391  0.4711  0.1728  0.3578
12450SOL     OW49073   4.987   6.606   0.281  0.2565  0.2186 -0.4977
12450SOL    HW149074   5.072   6.569   0.306  0.1750  0.1419 -0.3300
12450SOL    HW249075   4.983   6.690   0.327 -0.5348 -0.5863  0.9962
12451SOL     OW49076   1.715   1.063   1.007 -0.1186  0.1887  0.1522
12451SOL    HW149077   1.799   1.099   1.037  0.6898 -1.0582 -0.5084
12451SOL    HW249078   1.725   0.968   1.020 -0.4748 -0.2167 -2.2110
12452SOL     OW49079   5.921   5.905   3.309 -0.1899  0.5225  0.0115
12452SOL    HW149080   5.825   5.909   3.309 -0.1802  0.9421  0.9073
12452SOL    HW249081   5.941   5.819   3.346 -0.2241  1.1111  1.4708
12453SOL     OW49082   4.217   3.700   4.066  0.5590  0.0801 -0.1400
12453SOL    HW149083   4.146   3.740   4.015 -1.1223  0.3322  2.2162
12453SOL    HW249084   4.196   3.606   4.067 -0.0182  0.2069  0.9049
12454SOL     OW49085   7.508   3.700   0.050  0.0369  0.4895  0.4218
12454SOL    HW149086   7.522   3.628  -0.011 -1.2987  0.6108 -0.0484
12454SOL    HW249087   7.547   3.776   0.007 -0.6861  0.5260 -0.1818
12455SOL     OW49088   4.818   3.077   0.497 -0.4541  0.2297  0.5838
12455SOL    HW149089   4.723   3.077   0.491 -0.4437 -0.7481  0.0869
12455SOL    HW249090   4.844   2.992   0.460  0.6667  0.9102 -0.2502
12456SOL     OW49091   2.609   7.330   8.237  0.5609  0.4557 -0.0989
12456SOL    HW149092   2.579   7.331   8.146  0.0092 -1.6991  0.0060
12456SOL    HW249093   2.534   7.299   8.287  1.1550  0.6811  0.9660
12457SOL     OW49094   3.902   9.393   6.284 -0.1312 -0.0343 -0.3811
12457SOL    HW149095   3.853   9.337   6.224 -0.0316  1.0101 -1.4593
12457SOL    HW249096   3.835   9.428   6.344 -0.3910 -0.2093 -0.5665
12458SOL     OW49097  10.301   1.850  10.230 -0.8641  0.2089 -0.0389
12458SOL    HW149098  10.364   1.820  10.296 -0.2692 -0.5164 -0.9033
12458SOL    HW249099  10.333   1.937  10.205  0.5693 -0.6423 -1.3538
12459SOL     OW49100   4.400   8.132   7.377  0.1543  0.3907 -0.4880
12459SOL    HW149101   4.391   8.060   7.315 -1.2396  1.2604 -1.3639
12459SOL    HW249102   4.326   8.190   7.358  1.5089  2.3410 -0.2211
12460SOL     OW49103   9.596   5.444   0.616  0.2967 -0.3354 -0.5417
12460SOL    HW149104   9.551   5.528   0.617 -0.0215 -0.5040  0.6065
12460SOL    HW249105   9.670   5.455   0.676 -0.1581 -1.0843  0.1762
12461SOL     OW49106  10.613   3.812   2.714  0.2007 -0.5734  0.0504
12461SOL    HW149107  10.645   3.902   2.710  0.0159 -0.5549 -1.3612
12461SOL    HW249108  10.525   3.819   2.751 -0.2328 -0.0432 -1.0406
12462SOL     OW49109  10.622  11.818   8.987  0.0125 -0.3264 -0.0820
12462SOL    HW149110  10.550  11.881   8.982 -0.6211 -1.1143 -1.2495
12462SOL    HW249111  10.600  11.762   9.061 -0.4212 -0.3613 -0.2349
12463SOL     OW49112   9.291   8.985   5.960  0.3803  0.2939  0.8425
12463SOL    HW149113   9.211   8.960   5.914  0.5973  1.7074 -0.4135
12463SOL    HW249114   9.276   8.962   6.051 -1.9562  1.6044  0.8461
12464SOL     OW49115  11.213   5.944   7.160  0.5914 -0.0692 -0.6061
12464SOL    HW149116  11.207   5.851   7.184  2.3343 -0.2163 -0.6021
12464SOL    HW249117  11.160   5.989   7.226  1.2110 -0.9220  0.5215
12465SOL     OW49118   0.861  10.569   5.261  0.5953  0.3069 -0.7050
12465SOL    HW149119   0.842  10.641   5.200 -0.2627  1.0704  0.4192
12465SOL    HW249120   0.806  10.497   5.230 -0.2336  0.8524 -0.5471
12466SOL     OW49121   6.018   3.226   0.798  0.5546  0.2367  0.6149
12466SOL    HW149122   5.954   3.281   0.754  1.6570  2.1275  1.2847
12466SOL    HW249123   5.967   3.151   0.830 -0.6166 -0.2693 -2.1229
12467SOL     OW49124   1.348   3.068  11.643 -0.1156  0.3444  0.2061
12467SOL    HW149125   1.276   3.131  11.646 -0.4564 -0.0386  0.1389
12467SOL    HW249126   1.421   3.114  11.683 -0.0404  1.1944 -0.8857
12468SOL     OW49127   2.423  11.464   1.058  0.3397 -0.3083 -0.2728
12468SOL    HW149128   2.451  11.537   1.114  0.4280  1.7027 -2.7723
12468SOL    HW249129   2.341  11.434   1.097  1.1988 -0.1454  1.8380
12469SOL     OW49130  10.914   7.667   1.839  0.0259  0.0626  0.9199
12469SOL    HW149131  10.863   7.744   1.864  0.1597  0.4677 -0.0050
12469SOL    HW249132  10.933   7.623   1.922  0.0748  1.1056  1.4888
12470SOL     OW49133   1.426   3.083   3.312  0.0052 -0.3061 -0.6543
12470SOL    HW149134   1.356   3.148   3.317 -0.4553 -0.7624 -0.9625
12470SOL    HW249135   1.465   3.082   3.399  0.2463  0.6281 -0.7505
12471SOL     OW49136   2.051   2.793  11.177  0.3227 -0.1093 -0.0639
12471SOL    HW149137   2.142   2.781  11.150  0.8403  1.1248  1.0174
12471SOL    HW249138   2.053   2.784  11.272 -0.5403  0.7187  0.0447
12472SOL     OW49139   9.128   3.127   3.866  0.0375  0.3253  0.0373
12472SOL    HW149140   9.101   3.174   3.945 -0.7053  1.2317 -0.7386
12472SOL    HW249141   9.055   3.137   3.806 -0.1209 -1.7870 -0.2027
12473SOL     OW49142   5.665   0.457   9.129 -0.8570 -0.5461 -0.0252
12473SOL    HW149143   5.655   0.514   9.206  1.0623 -0.2980  0.0733
12473SOL    HW249144   5.624   0.507   9.058  0.0019  0.5861  0.2405
12474SOL     OW49145   7.798  11.318   3.657 -0.1769  0.2467  0.0188
12474SOL    HW149146   7.884  11.359   3.646 -1.0756  2.3201  0.2580
12474SOL    HW249147   7.778  11.331   3.750 -0.7900 -0.1357 -0.0587
12475SOL     OW49148  11.303   2.188  11.019  0.2116  0.1334 -0.2674
12475SOL    HW149149  11.241   2.143  11.077  0.2006  0.7767  0.2304
12475SOL    HW249150  11.389   2.174  11.059  0.1305  1.1474  0.2901
12476SOL     OW49151  10.578  10.629   9.030  0.2840 -0.4092  0.2358
12476SOL    HW149152  10.557  10.638   8.937  1.0897 -0.5370  0.0271
12476SOL    HW249153  10.637  10.702   9.048 -0.3388 -0.0444  0.7945
12477SOL     OW49154   4.274   1.370   3.351  0.2774 -0.5293 -0.6503
12477SOL    HW149155   4.238   1.286   3.323 -0.8013 -0.4745  0.5005
12477SOL    HW249156   4.238   1.384   3.439  0.2317  1.2442 -0.9091
12478SOL     OW49157   2.832   7.468   6.393 -0.0484 -0.2090 -0.0887
12478SOL    HW149158   2.781   7.412   6.452  0.1894  0.0892  0.4046
12478SOL    HW249159   2.767   7.513   6.341 -0.4048  1.3219  1.5682
12479SOL     OW49160   6.852  11.155   0.365  0.2351 -0.4712 -0.3219
12479SOL    HW149161   6.762  11.135   0.339 -0.1893  0.8744  0.0347
12479SOL    HW249162   6.872  11.093   0.435 -0.7499 -0.1523  0.2450
12480SOL     OW49163   5.239   1.713   0.632  0.0994 -0.1999 -0.1646
12480SOL    HW149164   5.243   1.698   0.538 -1.1492  0.2930 -0.3196
12480SOL    HW249165   5.240   1.625   0.670  1.7017 -0.3816 -0.5524
12481SOL     OW49166   7.319  11.816   2.646 -0.5154 -0.2792  0.3297
12481SOL    HW149167   7.313  11.828   2.741 -2.2284  0.7513  0.1308
12481SOL    HW249168   7.344  11.724   2.635  1.5292  0.0219  1.7694
12482SOL     OW49169  10.777  11.924   0.637  0.2156  0.0122 -0.3996
12482SOL    HW149170  10.697  11.873   0.649  0.4059 -0.3118 -0.4789
12482SOL    HW249171  10.771  11.994   0.703 -0.0926 -0.0591 -0.3516
12483SOL     OW49172   2.340   1.598  11.667  0.4251 -0.4552  0.1737
12483SOL    HW149173   2.300   1.601  11.580  0.6168 -0.2127  0.0942
12483SOL    HW249174   2.266   1.608  11.728  0.5100  1.6164  0.0093
12484SOL     OW49175   7.542   5.377  11.078 -0.4489 -0.6742 -0.1735
12484SOL    HW149176   7.463   5.400  11.028  0.8991  1.1151 -1.6537
12484SOL    HW249177   7.531   5.421  11.162 -0.5337  0.5578 -0.8103
12485SOL     OW49178   3.697   9.208   4.452  0.2184  0.0155  0.0542
12485SOL    HW149179   3.752   9.175   4.381 -0.6431 -0.1189 -0.5655
12485SOL    HW249180   3.676   9.130   4.503 -0.7410 -0.2106 -0.6604
12486SOL     OW49181   3.257   1.748   2.431 -0.1676 -0.3797 -0.8248
12486SOL    HW149182   3.182   1.776   2.483 -1.1500 -1.5201 -1.5607
12486SOL    HW249183   3.223   1.677   2.376  0.6564  1.0318 -3.3570
12487SOL     OW49184  11.697   7.511   7.462  0.0348  0.2963 -0.9019
12487SOL    HW149185  11.656   7.432   7.426 -0.4932  0.6307 -1.0403
12487SOL    HW249186  11.623   7.568   7.485  0.2812 -0.2656  1.5903
12488SOL     OW49187   2.574   4.225  11.900  0.0356 -0.0851  0.6369
12488SOL    HW149188   2.634   4.150  11.899 -0.1479 -0.2264 -0.1032
12488SOL    HW249189   2.487   4.187  11.896 -0.0487  0.1745 -0.0689
12489SOL     OW49190   7.567   8.739   4.847 -0.4421  1.0522 -0.1711
12489SOL    HW149191   7.619   8.676   4.897  0.4752  1.0643 -1.0718
12489SOL    HW249192   7.482   8.696   4.835 -0.2079  0.4706  0.1981
12490SOL     OW49193   5.677   5.050   2.078  0.5252  0.2176  0.1622
12490SOL    HW149194   5.600   5.046   2.134  0.7957 -0.7767  0.4944
12490SOL    HW249195   5.727   4.972   2.101  0.5430 -0.3407 -1.6168
12491SOL     OW49196   3.334   4.091   6.449 -0.1286  0.8753  0.0077
12491SOL    HW149197   3.318   4.184   6.435 -2.0614  0.4131 -1.2043
12491SOL    HW249198   3.429   4.080   6.437  0.1178  2.6493  0.1035
12492SOL     OW49199   3.778   0.659   3.836 -0.0446  0.3187 -0.5438
12492SOL    HW149200   3.849   0.607   3.798 -0.4159  1.3013 -2.7651
12492SOL    HW249201   3.812   0.748   3.839  0.3323  0.1770  2.5773
12493SOL     OW49202   3.741   4.786  10.170 -0.2438  0.5238  0.2749
12493SOL    HW149203   3.822   4.749  10.133 -0.1480  1.7508 -0.8391
12493SOL    HW249204   3.751   4.881  10.158 -0.2319  1.0404  3.4971
12494SOL     OW49205   8.232  10.925   8.879  0.1393  0.2260  0.3694
12494SOL    HW149206   8.289  10.957   8.810 -1.2789 -2.2102 -2.1264
12494SOL    HW249207   8.279  10.849   8.915 -0.8363 -0.9813 -0.7929
12495SOL     OW49208   0.841   1.441   1.794 -0.7259 -0.8543  0.4614
12495SOL    HW149209   0.807   1.354   1.818 -3.4040  0.0588  0.3498
12495SOL    HW249210   0.824   1.448   1.700 -1.4698  0.1530  0.6577
12496SOL     OW49211   0.286   3.336   9.909 -0.1416  0.6853 -0.7349
12496SOL    HW149212   0.349   3.358   9.978 -0.3587 -0.6846 -0.0803
12496SOL    HW249213   0.221   3.280   9.951 -0.6137  0.3078 -1.9095
12497SOL     OW49214   6.533   6.612   3.520  0.0213  0.4096  0.0472
12497SOL    HW149215   6.454   6.665   3.517  0.0311  0.4720  0.8327
12497SOL    HW249216   6.527   6.564   3.602  0.4076 -0.1958 -0.2696
12498SOL     OW49217   7.025   5.743   2.458  0.6741  0.5552 -0.5791
12498SOL    HW149218   7.050   5.682   2.389 -1.3711 -0.0792 -0.8268
12498SOL    HW249219   6.959   5.695   2.509  0.1428  2.0119  0.1394
12499SOL     OW49220   7.554   2.177   5.987 -0.4791 -0.6738 -0.1352
12499SOL    HW149221   7.495   2.102   5.996  0.7074 -1.4854  1.4394
12499SOL    HW249222   7.531   2.234   6.060 -0.2071 -0.3483 -0.3026
12500SOL     OW49223   8.757   2.220   4.353  0.0476 -0.6286 -0.2589
12500SOL    HW149224   8.709   2.284   4.300  1.2308  0.0388 -0.5694
12500SOL    HW249225   8.689   2.168   4.395 -0.9948  1.1045  0.3370
12501SOL     OW49226   6.358  10.260   0.096  0.8293  0.4794  0.4391
12501SOL    HW149227   6.358  10.297   0.008 -1.5266  0.7154  0.4597
12501SOL    HW249228   6.290  10.310   0.143  0.5206 -1.0622  1.7211
12502SOL     OW49229  10.607   3.081   7.017  0.5322 -0.9995  0.5677
12502SOL    HW149230  10.570   3.069   7.104  2.5815  1.7328  1.9999
12502SOL    HW249231  10.593   3.174   6.998  2.6550 -0.8646 -0.6926
12503SOL     OW49232   4.485   9.571   5.397 -0.0579  0.1018 -0.1953
12503SOL    HW149233   4.578   9.579   5.417 -0.0173 -1.1682  0.2273
12503SOL    HW249234   4.449   9.518   5.469 -0.5733 -1.6245 -1.6366
12504SOL     OW49235   3.674   9.356   1.126 -0.2934  0.3869  0.2727
12504SOL    HW149236   3.677   9.300   1.203  0.9979 -0.1480 -0.1328
12504SOL    HW249237   3.611   9.314   1.068  0.0931 -0.2387  0.2951
12505SOL     OW49238   7.611   5.804   7.264 -0.3958 -0.1414 -0.2692
12505SOL    HW149239   7.701   5.792   7.234 -0.1457 -3.3929  1.3835
12505SOL    HW249240   7.620   5.847   7.349 -0.3647 -0.8163  0.0718
12506SOL     OW49241   1.605   4.690   4.412 -0.4631 -0.4224  0.1925
12506SOL    HW149242   1.612   4.597   4.391 -0.8324  0.0572 -2.4099
12506SOL    HW249243   1.527   4.697   4.468  0.0457 -1.7278  1.1102
12507SOL     OW49244   0.283   3.510   9.556 -1.3411  0.2866 -0.2377
12507SOL    HW149245   0.270   3.536   9.464 -2.2748  2.3032  0.4022
12507SOL    HW249246   0.232   3.430   9.566 -0.6239 -0.3893 -1.6336
12508SOL     OW49247   4.972   1.131   9.036  0.1989  0.3773  0.3795
12508SOL    HW149248   4.924   1.118   8.955  0.9164  3.3259 -0.6525
12508SOL    HW249249   4.906   1.125   9.105 -0.2447 -3.2648 -0.1831
12509SOL     OW49250   4.096   3.703   7.769  0.5985 -0.2661 -0.5208
12509SOL    HW149251   4.068   3.642   7.837  1.0750 -0.3808 -0.4254
12509SOL    HW249252   4.156   3.652   7.714 -2.8921 -1.5372 -3.5671
12510SOL     OW49253   6.969   9.628   8.896  0.7061  0.2247  0.0785
12510SOL    HW149254   6.905   9.640   8.965  0.4926 -0.6427  0.0448
12510SOL    HW249255   6.935   9.677   8.821  0.2366  0.0224  0.1595
12511SOL     OW49256  10.821   9.203   9.608  0.1284 -0.3310  0.1166
12511SOL    HW149257  10.846   9.240   9.523  0.9058  0.3580  0.6266
12511SOL    HW249258  10.903   9.201   9.657 -0.3051 -0.7991  0.8213
12512SOL     OW49259  11.875   8.625   7.643  0.1967  0.4117 -0.3497
12512SOL    HW149260  11.947   8.645   7.703 -0.9732 -0.8154  1.5888
12512SOL    HW249261  11.809   8.583   7.698 -2.7585  2.9290 -1.6665
12513SOL     OW49262   2.910  10.512   9.104  0.6063  0.4773 -0.7670
12513SOL    HW149263   2.980  10.549   9.050  0.8127  0.8937 -0.2232
12513SOL    HW249264   2.904  10.571   9.179  2.5739 -1.8480  1.3909
12514SOL     OW49265   2.779   6.897   9.371  0.2591  1.0826 -0.6386
12514SOL    HW149266   2.840   6.919   9.301  0.3000 -0.3399 -1.0690
12514SOL    HW249267   2.701   6.949   9.351  0.9932  2.2785 -0.5459
12515SOL     OW49268   1.667   1.509  11.589  0.0289 -0.0113 -0.5010
12515SOL    HW149269   1.673   1.525  11.495  0.3792  1.4199 -0.2588
12515SOL    HW249270   1.754   1.527  11.622 -0.7708  2.4761  0.4775
12516SOL     OW49271   5.331   5.629  10.794  0.4686 -0.0656  0.1831
12516SOL    HW149272   5.278   5.565  10.746 -0.6141 -0.7817  2.2191
12516SOL    HW249273   5.332   5.707  10.737 -2.9333  0.0448  0.0640
12517SOL     OW49274   4.241   0.015  10.093 -0.3277 -0.4002  0.2743
12517SOL    HW149275   4.192  -0.034  10.027  2.5974 -2.0698 -0.8269
12517SOL    HW249276   4.290   0.081  10.043  2.9680 -2.5318  0.3569
12518SOL     OW49277  10.467   4.706   8.078 -0.2576 -0.1008  0.3884
12518SOL    HW149278  10.437   4.767   8.146 -0.2110  1.2472 -0.7597
12518SOL    HW249279  10.494   4.762   8.005 -1.5595 -1.4948 -1.2806
12519SOL     OW49280   5.227   6.104   4.986  0.6171 -0.6114 -0.4204
12519SOL    HW149281   5.305   6.055   4.958  1.9122  0.9247  0.2839
12519SOL    HW249282   5.250   6.196   4.968 -1.1857 -0.1436 -0.4772
12520SOL     OW49283   7.156   6.352   5.123 -0.0214  0.1156  0.6153
12520SOL    HW149284   7.070   6.348   5.081 -0.0676  0.4588  0.6767
12520SOL    HW249285   7.214   6.309   5.061 -0.5458 -1.8060  1.3833
12521SOL     OW49286   7.061   0.432   8.009  0.1026  0.5334 -0.5169
12521SOL    HW149287   7.101   0.519   8.018  1.8186 -0.2412 -0.1464
12521SOL    HW249288   7.087   0.403   7.922  1.9804 -0.6972  0.3789
12522SOL     OW49289   8.589   1.841   4.132  0.0855  0.0635  0.2757
12522SOL    HW149290   8.656   1.801   4.076  0.8076  1.7461 -0.1442
12522SOL    HW249291   8.618   1.821   4.221 -0.3387 -1.4950  0.0896
12523SOL     OW49292   1.931   0.649   8.428 -0.1464 -1.3369  0.0898
12523SOL    HW149293   1.908   0.557   8.415 -0.8197 -1.1300 -0.2355
12523SOL    HW249294   1.937   0.659   8.523  2.1940 -2.2451  0.1051
12524SOL     OW49295   9.837   9.535   1.585 -0.4224  0.2352  0.4061
12524SOL    HW149296   9.924   9.553   1.621 -0.2595 -0.4257  0.3689
12524SOL    HW249297   9.853   9.470   1.517 -0.9605  0.0448  0.4571
12525SOL     OW49298   2.453  11.719   1.785 -0.5924  0.3486  0.2226
12525SOL    HW149299   2.499  11.753   1.708  0.2758  1.0418  1.0378
12525SOL    HW249300   2.361  11.742   1.769 -0.3494  0.9516 -0.3644
12526SOL     OW49301   5.805   5.687   5.004 -0.0779 -0.1330 -0.3322
12526SOL    HW149302   5.716   5.678   5.040  0.5560  0.4466  1.4510
12526SOL    HW249303   5.853   5.737   5.069  1.7035 -0.7919 -1.0762
12527SOL     OW49304   1.053   6.492  11.405  0.1447 -0.1642 -0.1272
12527SOL    HW149305   0.963   6.494  11.372  0.4906 -0.5004 -1.1330
12527SOL    HW249306   1.101   6.441  11.340  0.4806 -2.6090  1.8862
12528SOL     OW49307   1.379   3.094   9.759 -0.8573  0.1674 -0.3850
12528SOL    HW149308   1.292   3.127   9.778 -1.9269 -2.3048 -0.5452
12528SOL    HW249309   1.412   3.149   9.689 -2.7096  0.5494 -1.0004
12529SOL     OW49310  11.436   1.280   9.730  0.3040  0.0056 -0.2854
12529SOL    HW149311  11.510   1.221   9.735  0.6906  0.5203  0.2150
12529SOL    HW249312  11.441   1.332   9.810 -0.5325  0.1246 -0.2977
12530SOL     OW49313   2.381  10.831   9.576 -0.4147 -0.0316  0.1269
12530SOL    HW149314   2.414  10.906   9.625 -0.5886  0.1371 -0.0121
12530SOL    HW249315   2.448  10.764   9.586 -0.2093  0.1784  0.1617
12531SOL     OW49316   9.058   3.914   4.792  0.5596 -0.0052 -0.3411
12531SOL    HW149317   9.140   3.917   4.743  0.3397 -0.9458 -0.7803
12531SOL    HW249318   9.002   3.856   4.741  0.5984 -1.7087  1.4375
12532SOL     OW49319   5.729   0.289   7.408 -0.6059 -0.4113  0.1716
12532SOL    HW149320   5.695   0.200   7.413 -0.9912 -0.2898 -0.2041
12532SOL    HW249321   5.764   0.296   7.319  0.5148 -0.5700  0.5812
12533SOL     OW49322   6.526   7.240   9.095  0.2138  0.2587  0.4584
12533SOL    HW149323   6.572   7.236   9.179  2.6214  1.3765 -0.7347
12533SOL    HW249324   6.466   7.314   9.105  0.2509  0.1932  1.2777
12534SOL     OW49325   2.240   3.285   4.068  0.6322 -0.2465 -0.1508
12534SOL    HW149326   2.309   3.298   4.003  1.1888  1.1216  0.6725
12534SOL    HW249327   2.165   3.252   4.018  1.2226  0.2612 -1.3978
12535SOL     OW49328   5.219   9.024   0.804  0.2304  0.5140  0.8388
12535SOL    HW149329   5.314   9.036   0.812  0.3972  0.3557 -0.6383
12535SOL    HW249330   5.189   9.101   0.754 -0.3623  0.3583  0.9445
12536SOL     OW49331   3.361   1.184   3.979  0.1176 -0.1138  0.2503
12536SOL    HW149332   3.302   1.215   3.910 -0.8772  1.5552  1.7514
12536SOL    HW249333   3.446   1.176   3.937 -0.2574  1.7451 -0.9674
12537SOL     OW49334   7.243   1.829   1.991  0.3360 -0.6877  0.3335
12537SOL    HW149335   7.152   1.805   2.007  0.1952 -0.6230 -0.3801
12537SOL    HW249336   7.239   1.915   1.949  0.3793 -2.7635 -4.5777
12538SOL     OW49337   9.316   4.106   5.325 -0.3963 -0.0851 -0.4441
12538SOL    HW149338   9.300   4.051   5.248 -2.6885  0.1420 -0.2046
12538SOL    HW249339   9.249   4.174   5.321 -0.4120  0.0986  1.5937
12539SOL     OW49340   7.267   7.292   5.614 -0.1425 -0.0678  0.3410
12539SOL    HW149341   7.336   7.347   5.652 -0.0793 -0.4633  0.8125
12539SOL    HW249342   7.313   7.221   5.571 -0.2563 -0.8978  1.5277
12540SOL     OW49343   3.476   0.998  11.164  0.4498 -0.1956 -0.4914
12540SOL    HW149344   3.554   0.977  11.113  1.2852 -0.5190  0.8870
12540SOL    HW249345   3.428   0.916  11.170  0.4358 -0.1965 -0.6141
12541SOL     OW49346   7.311   1.053   9.565 -0.0083  0.0722  0.4810
12541SOL    HW149347   7.220   1.066   9.593  0.1912 -0.4391  1.4130
12541SOL    HW249348   7.349   1.141   9.565 -0.4183  0.2534  0.3640
12542SOL     OW49349   3.499   6.955   6.126  0.4593  0.0963  0.3107
12542SOL    HW149350   3.532   6.925   6.042  0.6547  0.2591  0.3294
12542SOL    HW249351   3.422   6.900   6.143 -1.0597  1.6573 -1.1236
12543SOL     OW49352  11.502   0.931   1.854  1.0930  0.2272  0.4037
12543SOL    HW149353  11.544   1.017   1.848 -0.3178  1.1401  2.4642
12543SOL    HW249354  11.471   0.913   1.765  1.8580  1.6052 -0.1687
12544SOL     OW49355  10.430   0.379   4.769 -0.1302  0.4040  0.0827
12544SOL    HW149356  10.471   0.315   4.710  0.5307  2.8456 -2.3497
12544SOL    HW249357  10.501   0.409   4.825 -0.6034 -1.4224  1.7371
12545SOL     OW49358   0.138   2.495   4.788  0.5233  0.5342  0.5195
12545SOL    HW149359   0.216   2.527   4.834 -0.0324  1.1980  1.0259
12545SOL    HW249360   0.079   2.570   4.787  0.0402  0.1593 -0.2185
12546SOL     OW49361   0.481   7.548   5.185 -0.1626  0.3732  0.3220
12546SOL    HW149362   0.393   7.570   5.215 -0.0735 -0.6410  1.4233
12546SOL    HW249363   0.511   7.482   5.248  0.4380 -1.1222 -1.4555
12547SOL     OW49364   9.088   9.445   9.603 -0.3135  0.4229  0.5699
12547SOL    HW149365   9.018   9.381   9.618  0.3366 -0.0498  1.7398
12547SOL    HW249366   9.046   9.530   9.618 -0.8619  0.2068  0.3093
12548SOL     OW49367   1.983   9.553   6.125 -0.6500  0.1043 -0.2323
12548SOL    HW149368   1.898   9.513   6.140  0.7077 -2.5516  1.2552
12548SOL    HW249369   1.978   9.590   6.037 -3.1035 -0.4954 -0.4089
12549SOL     OW49370   4.608   4.894   0.930  0.2240 -0.0448  0.0524
12549SOL    HW149371   4.613   4.978   0.884  2.1711  0.4922  1.1213
12549SOL    HW249372   4.559   4.837   0.871 -0.4321  1.5987 -1.0688
12550SOL     OW49373   1.658   2.221   5.820 -0.0949  0.8881 -0.2674
12550SOL    HW149374   1.593   2.266   5.874  2.0927  3.2708  0.5865
12550SOL    HW249375   1.738   2.272   5.831  2.4286 -2.7593  0.0234
12551SOL     OW49376   3.329   0.309   7.765  0.2183 -0.0369  0.4223
12551SOL    HW149377   3.249   0.280   7.721  0.1056  0.3565  0.3592
12551SOL    HW249378   3.316   0.404   7.776  0.8444  0.0911  0.0733
12552SOL     OW49379   4.238   6.823   4.165 -0.4467 -0.1095 -0.4206
12552SOL    HW149380   4.333   6.834   4.163  0.0440 -3.3183 -1.1913
12552SOL    HW249381   4.212   6.825   4.073 -1.1536  0.8181 -0.2074
12553SOL     OW49382   2.032   9.425   3.776  0.2866 -0.3450  0.4853
12553SOL    HW149383   2.117   9.432   3.818  0.8778 -3.3080  0.0176
12553SOL    HW249384   2.026   9.502   3.719  1.5353  1.1939  2.3358
12554SOL     OW49385   7.482   7.367   6.887  0.0496 -0.1781 -1.0063
12554SOL    HW149386   7.418   7.301   6.860 -0.9742 -0.0759  0.9789
12554SOL    HW249387   7.444   7.406   6.966  2.7960 -0.4788  0.5896
12555SOL     OW49388   6.850   3.162   7.137  0.1999  0.5429  0.1519
12555SOL    HW149389   6.937   3.197   7.120  1.5961 -3.0644 -1.0828
12555SOL    HW249390   6.861   3.103   7.211 -1.0865 -0.2290 -0.2289
12556SOL     OW49391  11.262   4.037   4.764  0.0124  0.0092 -0.0279
12556SOL    HW149392  11.330   3.988   4.811 -0.1851  1.0720  1.4364
12556SOL    HW249393  11.207   4.073   4.834 -1.0296  0.6270 -1.1392
12557SOL     OW49394   2.471   5.599   6.884  0.3352  0.2449 -0.6983
12557SOL    HW149395   2.467   5.506   6.907 -0.2969  0.5709  0.6220
12557SOL    HW249396   2.532   5.603   6.810  1.4118 -1.0596  0.0645
12558SOL     OW49397   6.557   6.957   2.525  0.1197  0.1801 -0.4927
12558SOL    HW149398   6.545   6.873   2.569  1.1586  0.8605  1.1896
12558SOL    HW249399   6.608   7.009   2.587 -3.1701  3.2040 -0.0388
12559SOL     OW49400   0.195   6.164   4.834  0.4556 -0.1925  0.7799
12559SOL    HW149401   0.280   6.135   4.801  0.4453 -0.3894  0.9232
12559SOL    HW249402   0.204   6.258   4.846  0.2761 -0.0269 -0.3418
12560SOL     OW49403  11.067   5.878   3.840 -0.2435  0.0278 -0.6858
12560SOL    HW149404  10.993   5.894   3.898 -0.9579  0.4887 -1.7083
12560SOL    HW249405  11.104   5.965   3.823  0.6223 -0.2051 -0.0845
12561SOL     OW49406   4.848   8.631   0.249  0.5862  0.1022  0.3307
12561SOL    HW149407   4.869   8.703   0.189 -0.3875 -0.6016 -0.8852
12561SOL    HW249408   4.759   8.649   0.278 -0.3295 -1.4753 -1.3291
12562SOL     OW49409   9.390   4.082  11.233  0.3760  0.6953  0.0282
12562SOL    HW149410   9.330   4.125  11.294 -0.5913  0.0346 -0.4374
12562SOL    HW249411   9.436   4.154  11.189  0.4245  1.1901  0.8760
12563SOL     OW49412   4.285   4.487   7.699 -0.1277  0.5963 -0.5136
12563SOL    HW149413   4.353   4.441   7.749  1.4677  2.2025 -1.0940
12563SOL    HW249414   4.287   4.444   7.613  1.4837  1.7486 -1.1121
12564SOL     OW49415   9.335   3.685   4.325 -0.2570 -0.2702  0.2134
12564SOL    HW149416   9.366   3.680   4.235 -0.4411  1.5699  0.0190
12564SOL    HW249417   9.264   3.621   4.329  1.0541 -1.8113 -0.3610
12565SOL     OW49418  10.788   3.848   7.786  0.0701 -0.4111  0.3555
12565SOL    HW149419  10.799   3.822   7.878  0.6048 -2.1484 -0.1684
12565SOL    HW249420  10.831   3.779   7.736 -0.3504  0.4271 -1.2276
12566SOL     OW49421   7.611  11.657   5.624 -0.0244  0.3894 -0.0292
12566SOL    HW149422   7.590  11.693   5.538 -0.7247 -0.2943 -0.1626
12566SOL    HW249423   7.531  11.669   5.675  0.3254  0.6263  0.4728
12567SOL     OW49424   5.268   7.348   7.841  0.2896 -0.0697  0.1020
12567SOL    HW149425   5.226   7.263   7.827  0.4019 -0.3559  1.3701
12567SOL    HW249426   5.357   7.336   7.809 -0.3846  0.3836 -2.1248
12568SOL     OW49427  10.635   1.431   0.239  0.3785  0.0731  0.4421
12568SOL    HW149428  10.669   1.371   0.173  1.1271  2.3052 -1.3299
12568SOL    HW249429  10.556   1.469   0.199  0.9856  1.6523  0.6601
12569SOL     OW49430   0.964   8.450   9.554  0.5016  0.1787 -0.0214
12569SOL    HW149431   0.909   8.373   9.569  0.0226  0.5772  0.3021
12569SOL    HW249432   0.940   8.480   9.466  0.4129  0.1760  0.0016
12570SOL     OW49433   4.805   5.979  11.832 -0.2895  0.5138 -0.2350
12570SOL    HW149434   4.868   5.986  11.904  0.7030 -0.0951 -1.0043
12570SOL    HW249435   4.770   6.067  11.822  2.6863  1.6787 -1.6981
12571SOL     OW49436   6.243   4.346   4.048 -0.3680  0.5305 -0.3521
12571SOL    HW149437   6.295   4.335   3.968  0.4733  1.0021  0.1079
12571SOL    HW249438   6.166   4.292   4.035  0.7106 -0.9870 -0.6595
12572SOL     OW49439  11.299   9.631   9.040  0.1383  0.2147  0.6076
12572SOL    HW149440  11.348   9.686   9.101  0.6745  0.0020  0.3680
12572SOL    HW249441  11.218   9.680   9.025  0.2150  0.5070  1.1002
12573SOL     OW49442   2.410   6.221   5.031  0.2531  0.2366 -0.2821
12573SOL    HW149443   2.475   6.176   5.085  1.5555 -0.8342 -2.5766
12573SOL    HW249444   2.326   6.193   5.066  1.0431 -1.2048  0.5700
12574SOL     OW49445   6.070   2.776   8.399  0.0859  0.5069  0.1113
12574SOL    HW149446   6.073   2.828   8.480  1.7691 -1.1752  1.2162
12574SOL    HW249447   6.001   2.713   8.413  1.7681 -1.1862  1.2369
12575SOL     OW49448   4.857   5.491   7.271  0.5149 -0.1236  0.1685
12575SOL    HW149449   4.826   5.422   7.330 -0.3873  0.3179  0.2334
12575SOL    HW249450   4.814   5.472   7.187 -0.1197  0.6081  0.3123
12576SOL     OW49451   9.624  10.032   3.057  0.0017  0.2400 -0.9802
12576SOL    HW149452   9.651  10.045   2.967 -0.2089  1.3831 -0.8910
12576SOL    HW249453   9.644  10.115   3.101  1.7060 -0.8528  0.4543
12577SOL     OW49454   9.094   0.528   2.982  0.6623  0.0290 -0.4702
12577SOL    HW149455   9.135   0.506   2.898 -0.5475 -1.2149 -0.7741
12577SOL    HW249456   9.153   0.491   3.048  0.4176 -1.1246 -0.8770
12578SOL     OW49457   1.412   3.508   3.225  0.6022 -0.8996  0.0837
12578SOL    HW149458   1.462   3.580   3.262  1.7723 -2.1320  0.9859
12578SOL    HW249459   1.326   3.546   3.206  0.9756  0.5584  1.1301
12579SOL     OW49460  10.794   9.351   7.038  0.1307  0.2864  0.3350
12579SOL    HW149461  10.795   9.255   7.036 -2.1423  0.1743 -2.1708
12579SOL    HW249462  10.719   9.374   7.092  0.0184  0.5902  0.0616
12580SOL     OW49463   8.354   2.582   2.579  0.2611  0.0179 -0.0191
12580SOL    HW149464   8.330   2.611   2.667  0.2405  0.0070 -0.0210
12580SOL    HW249465   8.442   2.617   2.565  0.3677 -0.2014  0.1048
12581SOL     OW49466   5.093   2.251   7.827 -0.3292  0.2593  0.4770
12581SOL    HW149467   5.024   2.204   7.781 -0.7507 -0.6486  1.9570
12581SOL    HW249468   5.112   2.197   7.904 -0.0116  1.9195  1.6266
12582SOL     OW49469  11.143   4.839   4.699 -0.2232 -0.5197 -0.6443
12582SOL    HW149470  11.091   4.898   4.753 -0.6550 -1.3751 -0.0915
12582SOL    HW249471  11.104   4.752   4.714  0.9237 -1.0762 -0.7489
12583SOL     OW49472   0.529   1.808   8.016  0.0087  0.1239 -0.1140
12583SOL    HW149473   0.490   1.834   7.932 -3.4254 -0.1953  1.1820
12583SOL    HW249474   0.519   1.884   8.072  0.8163 -0.1662  0.4383
12584SOL     OW49475   4.236   1.092   9.218  0.0242 -0.2651  0.1491
12584SOL    HW149476   4.283   1.009   9.213  0.8042  0.2337 -1.6034
12584SOL    HW249477   4.164   1.075   9.279  0.6732 -1.9572  0.4977
12585SOL     OW49478   6.265   3.401   7.887 -0.1095  0.3706 -0.2934
12585SOL    HW149479   6.237   3.431   7.801  0.4125 -0.8713 -0.9279
12585SOL    HW249480   6.266   3.480   7.942 -0.9403  1.0840 -1.2838
12586SOL     OW49481   6.991   9.143   8.169  0.1608 -0.3395 -0.1595
12586SOL    HW149482   6.997   9.213   8.105 -1.6637 -0.3613 -0.4271
12586SOL    HW249483   6.999   9.186   8.254  1.2260 -0.1296 -0.3540
12587SOL     OW49484   0.053   7.841   9.272 -0.0508  0.1799  0.4770
12587SOL    HW149485  -0.012   7.830   9.341 -0.4998  0.5845  0.1226
12587SOL    HW249486   0.062   7.754   9.233 -0.7304  0.2269  0.2140
12588SOL     OW49487   2.011  10.131  10.560  0.1666 -0.1250 -0.1705
12588SOL    HW149488   2.083  10.191  10.540 -0.9258  0.7284 -1.7952
12588SOL    HW249489   1.932  10.185  10.552 -0.6880 -0.9721  1.8042
12589SOL     OW49490   2.609   7.400   8.612 -0.5138 -0.1053  0.3845
12589SOL    HW149491   2.699   7.430   8.599  0.4325 -2.8266  0.0347
12589SOL    HW249492   2.556   7.458   8.557  1.2659  0.3076 -0.9839
12590SOL     OW49493   8.601   7.533   5.046  0.0188 -0.3168 -0.4297
12590SOL    HW149494   8.690   7.524   5.013  0.3705 -0.6949  0.5728
12590SOL    HW249495   8.552   7.465   5.000 -0.2941  1.2749 -2.6242
12591SOL     OW49496  10.259   1.347   7.096 -0.3537  0.0708  0.5637
12591SOL    HW149497  10.164   1.339   7.097 -0.5174  0.6721 -2.1388
12591SOL    HW249498  10.276   1.433   7.134 -1.0007  0.4871 -0.0615
12592SOL     OW49499   2.895   4.948  10.174 -0.2820  0.0119  0.0938
12592SOL    HW149500   2.988   4.926  10.173 -0.5777 -1.3560  0.7076
12592SOL    HW249501   2.877   4.979  10.085  0.9540  1.2540  0.2395
12593SOL     OW49502   2.039   6.287  10.338 -0.2673 -0.4085 -0.3971
12593SOL    HW149503   2.097   6.231  10.390  0.3881 -1.6028 -2.2974
12593SOL    HW249504   2.032   6.368  10.388  0.3886 -1.4504  1.4754
12594SOL     OW49505   9.270   1.344  10.974  1.0486 -0.3234 -0.1332
12594SOL    HW149506   9.204   1.296  11.023  1.5737 -1.3215 -0.3868
12594SOL    HW249507   9.307   1.405  11.038  0.3853 -0.2478  0.1901
12595SOL     OW49508   7.937   1.546   2.574 -0.3482  0.0706  0.5888
12595SOL    HW149509   7.996   1.471   2.579  1.2410  1.3571  3.0657
12595SOL    HW249510   7.901   1.554   2.663 -2.5625  0.7041 -0.2793
12596SOL     OW49511   6.637   9.719   4.899  0.1478  0.5120 -0.0843
12596SOL    HW149512   6.642   9.674   4.983  0.7276  2.2405  0.8614
12596SOL    HW249513   6.702   9.675   4.844 -0.1963 -0.5999  0.3798
12597SOL     OW49514   2.383   6.072   6.043 -0.2755 -0.3060  0.2736
12597SOL    HW149515   2.364   6.044   6.132  0.0005  0.7934  0.6925
12597SOL    HW249516   2.478   6.079   6.039 -0.2075 -1.4575 -0.4634
12598SOL     OW49517   7.160   9.838  11.668  0.4740  0.2466 -0.2058
12598SOL    HW149518   7.169   9.900  11.741  0.7733  2.2927 -1.8857
12598SOL    HW249519   7.193   9.755  11.703  2.1402  1.5372  1.5211
12599SOL     OW49520   3.935   8.296  10.394  0.0203 -0.0820 -0.2793
12599SOL    HW149521   3.874   8.283  10.467  1.4842 -0.6597  0.8768
12599SOL    HW249522   3.913   8.226  10.332  0.1915 -0.9416  0.6091
12600SOL     OW49523   5.825   8.120   9.838  0.1768 -0.1996  0.8085
12600SOL    HW149524   5.902   8.101   9.784 -1.0199  0.7626 -1.3879
12600SOL    HW249525   5.841   8.074   9.920  1.9496 -2.0902 -0.4906
12601SOL     OW49526   4.653   6.556   8.500  0.0441  0.0023  0.5919
12601SOL    HW149527   4.708   6.618   8.452 -0.1023  0.3325  0.8436
12601SOL    HW249528   4.654   6.477   8.447 -0.2343  0.4037 -0.0345
12602SOL     OW49529   5.904   1.577   8.993 -0.2255 -0.0537 -0.7202
12602SOL    HW149530   5.966   1.634   9.039  0.5660 -1.5207  0.0977
12602SOL    HW249531   5.958   1.508   8.955 -1.3429 -1.4274  0.0891
12603SOL     OW49532   7.876  11.929   3.228  0.0331  0.2086 -0.1591
12603SOL    HW149533   7.930  11.872   3.283  1.7148  0.2181 -1.7022
12603SOL    HW249534   7.794  11.881   3.216  0.7303 -1.0573  0.0548
12604SOL     OW49535   2.250  11.507   1.831 -0.4227  0.3802  0.0557
12604SOL    HW149536   2.253  11.504   1.735 -0.6716  1.1762  0.0160
12604SOL    HW249537   2.332  11.466   1.859 -1.3290 -1.9397 -0.4345
12605SOL     OW49538   8.887   2.389   8.997  0.1112 -0.0706 -0.0380
12605SOL    HW149539   8.826   2.373   9.069  0.1501  0.2072  0.0564
12605SOL    HW249540   8.835   2.432   8.929  0.2471  0.3419  0.1197
12606SOL     OW49541   8.221   5.171  11.817 -0.0178  0.4699  0.3578
12606SOL    HW149542   8.160   5.106  11.782  1.3919  0.3914 -2.2842
12606SOL    HW249543   8.201   5.251  11.769  0.6623  0.9622  0.8687
12607SOL     OW49544   8.426  11.636   6.352 -0.3036 -0.4594  0.7429
12607SOL    HW149545   8.409  11.542   6.354 -0.3519 -0.4702 -0.0353
12607SOL    HW249546   8.339  11.676   6.340 -0.4927 -0.2264  2.5841
12608SOL     OW49547   6.577   8.451   5.770  0.2700 -0.6757  0.1899
12608SOL    HW149548   6.576   8.375   5.830  0.7149 -0.1464  0.8845
12608SOL    HW249549   6.496   8.443   5.721  0.2915 -1.5909  0.2814
12609SOL     OW49550  10.987   2.267   0.844  0.0332 -0.2712 -0.7455
12609SOL    HW149551  10.917   2.332   0.848 -1.2866 -1.5432 -2.0340
12609SOL    HW249552  11.057   2.309   0.795  0.1369  0.9482  0.3817
12610SOL     OW49553   5.911   6.207   0.601 -0.1521  0.2831  0.2953
12610SOL    HW149554   5.909   6.121   0.559  2.0546  0.6574 -0.7379
12610SOL    HW249555   5.821   6.239   0.594 -1.1368 -2.0810  1.1184
12611SOL     OW49556   6.030   2.268  10.650 -0.1813 -0.3893  0.4132
12611SOL    HW149557   6.027   2.271  10.746 -0.7937  0.1533  0.3848
12611SOL    HW249558   6.123   2.257  10.629 -0.1577 -1.8022  1.0880
12612SOL     OW49559   4.020   2.228   7.234 -0.5023 -0.7436  0.4560
12612SOL    HW149560   4.049   2.259   7.148 -0.4094  1.5878  1.2447
12612SOL    HW249561   3.928   2.253   7.239 -0.0511  0.8451  1.6819
12613SOL     OW49562   3.503   3.567   5.862 -0.5663 -0.1818 -0.0910
12613SOL    HW149563   3.495   3.490   5.918  1.5882 -0.3762  0.0510
12613SOL    HW249564   3.596   3.572   5.842 -0.4743  2.8195  0.5274
12614SOL     OW49565  11.718  11.797   6.393  0.4043 -0.0732  0.3217
12614SOL    HW149566  11.625  11.797   6.418  1.0307 -1.3760  3.0811
12614SOL    HW249567  11.746  11.888   6.407 -0.1737  0.0427  0.7975
12615SOL     OW49568  11.870   4.991   5.744  0.3276  0.1421 -0.1314
12615SOL    HW149569  11.853   4.950   5.659  0.4930 -0.5093  0.1412
12615SOL    HW249570  11.966   4.993   5.751  0.3885 -2.8546  1.4272
12616SOL     OW49571  11.263   9.803   9.287  0.3201  0.8306  0.6724
12616SOL    HW149572  11.244   9.840   9.373  1.7372  1.1358  0.8717
12616SOL    HW249573  11.270   9.709   9.302  0.9489  0.9201  0.9759
12617SOL     OW49574  10.265   6.684   5.843  0.8699 -0.5724 -0.4052
12617SOL    HW149575  10.295   6.682   5.934  2.1615 -3.7078 -0.7777
12617SOL    HW249576  10.295   6.770   5.811  2.3818 -0.2922  1.5231
12618SOL     OW49577   5.986   3.085   8.625 -0.3686 -0.2441  0.0212
12618SOL    HW149578   5.933   3.151   8.668  0.5856  0.1259  0.6577
12618SOL    HW249579   6.013   3.126   8.542 -1.0827 -0.4488 -0.3251
12619SOL     OW49580   1.947   6.717  10.380 -0.1096  0.4450  0.5924
12619SOL    HW149581   1.880   6.778  10.412  0.8738  2.1213 -0.4226
12619SOL    HW249582   1.907   6.675  10.305 -0.5859  0.2539  0.9460
12620SOL     OW49583   7.268   7.065   1.453 -0.5687  0.2187 -0.1505
12620SOL    HW149584   7.288   7.089   1.363 -0.2545 -0.7553 -0.3482
12620SOL    HW249585   7.264   7.149   1.500 -0.4141  0.7082 -0.9974
12621SOL     OW49586   4.137   6.228   1.215 -0.4031 -0.3179 -0.5296
12621SOL    HW149587   4.146   6.199   1.306  0.7602 -0.6112 -0.7267
12621SOL    HW249588   4.225   6.256   1.190 -0.6428 -0.5612 -1.6780
12622SOL     OW49589   8.988  11.463   9.729  0.1408  0.5853 -0.2294
12622SOL    HW149590   9.080  11.475   9.707  0.2104  1.0556  0.3019
12622SOL    HW249591   8.949  11.550   9.717  0.0298  0.6852  0.7644
12623SOL     OW49592   6.485   3.153   9.631 -0.2246 -0.1654 -0.5203
12623SOL    HW149593   6.438   3.070   9.622 -0.2845 -0.0519 -1.3636
12623SOL    HW249594   6.525   3.149   9.718 -0.0910 -1.1505 -0.6180
12624SOL     OW49595  11.444   0.579   6.817  0.2967 -0.7206 -0.6353
12624SOL    HW149596  11.451   0.602   6.724  0.8170  0.4300 -0.3290
12624SOL    HW249597  11.500   0.643   6.862  1.1456 -2.1105  0.3553
12625SOL     OW49598   3.228   0.655   8.573 -0.5844  0.4449 -0.2296
12625SOL    HW149599   3.149   0.634   8.522 -0.1940  1.1405 -1.1496
12625SOL    HW249600   3.218   0.605   8.654 -0.8253 -1.3843 -1.3351
12626SOL     OW49601   9.800   8.674   6.715 -0.9348  0.2181 -1.0155
12626SOL    HW149602   9.811   8.589   6.672  0.2408  0.0677 -0.4553
12626SOL    HW249603   9.719   8.664   6.766 -0.9208 -0.4949 -1.1169
12627SOL     OW49604   6.288  11.198   1.369 -0.0067 -0.0310 -0.1072
12627SOL    HW149605   6.196  11.171   1.359  0.2515 -1.9250  1.8673
12627SOL    HW249606   6.330  11.170   1.288 -1.0755  0.5166 -0.8753
12628SOL     OW49607   2.108   3.812  10.321 -0.1906 -0.1552  0.2172
12628SOL    HW149608   2.018   3.832  10.346 -0.1260  0.6185 -0.1405
12628SOL    HW249609   2.160   3.883  10.359  0.3391 -0.8441  0.8274
12629SOL     OW49610  10.759   3.722   3.469 -0.6596 -0.2497 -0.2296
12629SOL    HW149611  10.854   3.739   3.468 -0.5035 -0.9177 -2.1951
12629SOL    HW249612  10.747   3.654   3.535  0.0142  0.8053  1.0238
12630SOL     OW49613  10.181   5.214   9.721 -0.5217 -0.1843  0.5273
12630SOL    HW149614  10.198   5.302   9.686 -1.1488  0.5644  2.0062
12630SOL    HW249615  10.130   5.171   9.653 -0.8836  0.8741  0.1012
12631SOL     OW49616   8.572   8.408   4.347 -0.0365 -0.1001  0.3227
12631SOL    HW149617   8.645   8.412   4.409  1.4478  3.1821 -1.3891
12631SOL    HW249618   8.499   8.448   4.393  0.6197  0.9114  0.5277
12632SOL     OW49619   1.694   7.724   0.648  0.1267  0.3786 -0.2093
12632SOL    HW149620   1.636   7.703   0.576  0.0799 -0.3330  0.0281
12632SOL    HW249621   1.773   7.673   0.631  1.3621  2.5154 -1.3808
12633SOL     OW49622   9.013   5.489   3.214 -0.8480  0.0013  0.3318
12633SOL    HW149623   8.947   5.558   3.218  0.0059  0.7998  2.0648
12633SOL    HW249624   9.091   5.533   3.179 -0.6731 -0.4092  0.2027
12634SOL     OW49625   4.625   9.061   2.474  0.0385 -0.0539  0.2167
12634SOL    HW149626   4.605   9.137   2.420  0.3748 -0.6841 -0.8206
12634SOL    HW249627   4.634   8.989   2.412 -1.0434 -1.1196  1.2270
12635SOL     OW49628   8.113   2.116   7.848 -0.2924 -0.0337  0.2751
12635SOL    HW149629   8.096   2.036   7.799 -0.6703  1.1039 -1.5219
12635SOL    HW249630   8.026   2.145   7.877 -0.0722 -0.7131  1.7223
12636SOL     OW49631   5.124   6.475   8.873 -0.1467 -0.1946 -0.2860
12636SOL    HW149632   5.041   6.427   8.861  0.4568 -1.9771  1.9884
12636SOL    HW249633   5.125   6.499   8.965  1.8715 -0.1992 -0.2592
12637SOL     OW49634   7.622   7.534   7.201  0.0899  0.2045  0.0893
12637SOL    HW149635   7.581   7.541   7.288  0.2244  0.3817  0.1399
12637SOL    HW249636   7.554   7.497   7.145  0.2478 -0.6755  0.4504
12638SOL     OW49637   5.078   3.449   5.238  0.3124 -0.1819  0.4455
12638SOL    HW149638   5.074   3.357   5.263  0.0528  0.4887  3.2934
12638SOL    HW249639   5.009   3.491   5.290 -0.6565  1.4386 -1.9500
12639SOL     OW49640   3.786   1.109   5.767  0.1747 -0.0117  0.4006
12639SOL    HW149641   3.818   1.076   5.851 -0.7937 -1.5964  0.1924
12639SOL    HW249642   3.849   1.077   5.703 -0.5560 -1.2199  0.2445
12640SOL     OW49643   2.602  11.381   7.343  0.0075  0.6491 -0.5110
12640SOL    HW149644   2.582  11.384   7.436 -0.2498  1.6192 -0.5779
12640SOL    HW249645   2.679  11.436   7.333 -0.0799  0.7094 -0.8917
12641SOL     OW49646  11.343   3.209  10.766 -0.4381 -0.0150 -0.1644
12641SOL    HW149647  11.386   3.221  10.850 -0.2552  0.2247 -0.2920
12641SOL    HW249648  11.255   3.179  10.789  0.0611 -1.3739  0.0742
12642SOL     OW49649   6.428  10.827   7.603 -0.6168 -0.1956 -0.3536
12642SOL    HW149650   6.412  10.861   7.515 -1.4531 -3.2541 -1.5291
12642SOL    HW249651   6.398  10.896   7.662 -1.8669  1.1858 -2.4883
12643SOL     OW49652   5.556   9.641   4.983  0.4300 -0.1488  0.5509
12643SOL    HW149653   5.633   9.585   4.996  0.2691 -0.4080  0.3971
12643SOL    HW249654   5.593   9.724   4.954  0.6223 -0.5097 -0.2945
12644SOL     OW49655  10.338   6.992   1.008  0.4178 -0.4702 -0.6954
12644SOL    HW149656  10.410   6.970   0.949  1.4743 -0.3699  0.5096
12644SOL    HW249657  10.280   6.916   1.005  0.9300 -0.8462 -1.1596
12645SOL     OW49658   5.626   6.938  10.212  0.1105  0.1419  0.6589
12645SOL    HW149659   5.626   6.847  10.182 -1.4414  0.8156 -1.6543
12645SOL    HW249660   5.535   6.967  10.200  0.7237  2.1972  0.6626
12646SOL     OW49661   7.579   2.030   9.767  0.5609  0.3638  0.4153
12646SOL    HW149662   7.615   2.113   9.796 -2.0655  1.3842  1.0180
12646SOL    HW249663   7.525   1.999   9.840 -2.2436  0.5337 -1.4067
12647SOL     OW49664  10.624   7.586  10.277  0.2602 -1.0538 -0.3763
12647SOL    HW149665  10.716   7.609  10.294  0.1614 -0.9000 -0.0514
12647SOL    HW249666  10.597   7.643  10.205  0.2089 -0.6060 -0.0062
12648SOL     OW49667  10.059  10.936   0.172  0.3238 -0.3957 -0.4238
12648SOL    HW149668  10.095  11.009   0.121 -1.7968  2.3330  1.7063
12648SOL    HW249669  10.093  10.949   0.260  0.6661 -2.6419 -0.1576
12649SOL     OW49670   9.176   9.644   5.393 -0.3136 -0.1259  0.3576
12649SOL    HW149671   9.264   9.635   5.431 -1.1850 -0.4717  2.3809
12649SOL    HW249672   9.192   9.678   5.305  1.9944 -2.6325 -0.3294
12650SOL     OW49673   9.089  10.222  10.735 -0.4818 -0.1141 -0.1502
12650SOL    HW149674   9.136  10.139  10.731  0.0320  0.2033 -2.8282
12650SOL    HW249675   9.157  10.289  10.743 -0.8319  0.1389  0.9294
12651SOL     OW49676   4.401   6.627   4.649  0.1069  0.2807  0.2659
12651SOL    HW149677   4.346   6.591   4.579 -0.5940  1.6369  0.0842
12651SOL    HW249678   4.352   6.609   4.729  0.1144  0.1777  0.2472
12652SOL     OW49679   6.230   1.236  11.276  0.2993 -0.1548 -0.2674
12652SOL    HW149680   6.153   1.291  11.292 -0.5101 -1.3060 -0.0626
12652SOL    HW249681   6.301   1.281  11.322 -0.8499 -0.5114  2.0365
12653SOL     OW49682   5.916   5.055   6.403  0.4795 -0.3513 -0.5117
12653SOL    HW149683   5.983   5.047   6.336 -0.3155  2.4727 -1.7649
12653SOL    HW249684   5.838   5.084   6.355 -0.0843  1.8946  1.6199
12654SOL     OW49685   2.202   9.594   1.078 -0.5919  0.1164  0.2832
12654SOL    HW149686   2.171   9.514   1.119 -0.1059  0.0669  0.5576
12654SOL    HW249687   2.178   9.585   0.986 -0.6735 -0.2709  0.3428
12655SOL     OW49688   5.809   6.060   4.517 -0.2298  0.0167 -0.2937
12655SOL    HW149689   5.875   6.074   4.586  0.1147  0.8219 -0.7759
12655SOL    HW249690   5.814   5.967   4.498  1.4464  0.2026 -0.9710
12656SOL     OW49691   3.530  10.164   4.251  0.3356  0.0357  0.2117
12656SOL    HW149692   3.487  10.158   4.336 -1.8782  0.6512 -0.7827
12656SOL    HW249693   3.586  10.241   4.257 -0.1430  0.3346  0.9664
12657SOL     OW49694   6.669   7.824   5.021  0.1206  0.4291 -0.2471
12657SOL    HW149695   6.759   7.842   5.046 -0.0486 -0.1265  0.8361
12657SOL    HW249696   6.629   7.910   5.009  0.6796  0.6787 -0.3111
12658SOL     OW49697   5.637   6.203   7.623  0.2753  0.0721  0.3943
12658SOL    HW149698   5.652   6.130   7.682  0.0155 -0.2172  0.1044
12658SOL    HW249699   5.696   6.272   7.654 -0.3341  0.1579  1.3837
12659SOL     OW49700   8.292   3.076   3.775  0.5273  0.2115  0.2183
12659SOL    HW149701   8.284   3.170   3.794 -0.8676  0.5027 -1.4914
12659SOL    HW249702   8.327   3.073   3.686  0.4472 -0.8889  0.2137
12660SOL     OW49703   8.602   0.687   3.850 -0.0039  0.4894  0.3391
12660SOL    HW149704   8.693   0.667   3.871 -0.1844 -0.0042  0.6678
12660SOL    HW249705   8.605   0.722   3.761  0.3203 -1.2260 -0.3739
12661SOL     OW49706   5.132   3.309   1.982 -0.3849 -0.3514  0.3739
12661SOL    HW149707   5.106   3.266   1.901 -1.9134 -1.2961  1.2950
12661SOL    HW249708   5.204   3.255   2.016 -0.3094 -0.4533  0.0497
12662SOL     OW49709  10.869   3.613   6.487  0.2531  0.7663  0.1322
12662SOL    HW149710  10.852   3.676   6.557  1.5063  1.0173  0.2416
12662SOL    HW249711  10.795   3.621   6.428 -0.9565  0.3885  1.5469
12663SOL     OW49712   0.794   7.447  11.216 -0.1017  0.5041  0.3227
12663SOL    HW149713   0.708   7.469  11.179  0.0382  0.7669  0.1439
12663SOL    HW249714   0.855   7.461  11.143  0.0824  0.2326  0.4244
12664SOL     OW49715   4.591   4.685   7.154 -0.8031  0.1456 -0.1938
12664SOL    HW149716   4.598   4.642   7.069 -1.4458  2.5805 -1.5744
12664SOL    HW249717   4.538   4.763   7.138  0.8271  1.8549  1.9437
12665SOL     OW49718   8.725   7.758   4.535 -0.1130 -0.2092  0.1712
12665SOL    HW149719   8.761   7.669   4.538 -2.2924 -1.1288  1.4883
12665SOL    HW249720   8.666   7.763   4.611 -3.4131  0.8372 -2.2042
12666SOL     OW49721   4.657   6.166   8.629 -0.2703  1.4377  0.2245
12666SOL    HW149722   4.727   6.185   8.566 -1.1776  2.3381 -0.5480
12666SOL    HW249723   4.646   6.071   8.624  0.9010  1.2719  0.3866
12667SOL     OW49724   1.967   0.439  11.434  0.1477 -0.4455 -0.5759
12667SOL    HW149725   1.921   0.451  11.517  0.9156 -0.0452 -0.1975
12667SOL    HW249726   2.060   0.432  11.458  0.2197 -2.3344 -1.2298
12668SOL     OW49727   9.643   5.661  10.173  0.5703 -0.7232  0.0987
12668SOL    HW149728   9.637   5.616  10.088  1.6676 -2.6450  0.9850
12668SOL    HW249729   9.700   5.606  10.226 -0.6469  0.0669  2.3577
12669SOL     OW49730   6.993   5.514   7.281  0.3351 -0.1087 -0.7395
12669SOL    HW149731   7.012   5.562   7.200  1.1492  0.5697 -0.1703
12669SOL    HW249732   7.048   5.436   7.276 -0.5040 -0.6906 -1.3653
12670SOL     OW49733   6.785   0.104  11.245  0.2304  0.1159 -0.7234
12670SOL    HW149734   6.760   0.102  11.338  0.4924  0.7030 -0.6382
12670SOL    HW249735   6.816   0.193  11.230  1.3870 -0.3308 -1.0702
12671SOL     OW49736   9.335  11.648   0.482 -0.4386  0.3297  0.6826
12671SOL    HW149737   9.244  11.674   0.473  0.2265  2.7479 -0.0025
12671SOL    HW249738   9.362  11.684   0.566 -0.2522 -0.9149  1.1740
12672SOL     OW49739   9.059   3.380   1.894 -0.4353 -0.2032 -0.6203
12672SOL    HW149740   9.098   3.464   1.870  0.3742 -0.8842 -1.7944
12672SOL    HW249741   9.132   3.328   1.928 -1.0969 -0.1482  0.9730
12673SOL     OW49742   8.369   3.981   6.805  0.1070 -0.4878 -0.2100
12673SOL    HW149743   8.440   3.917   6.817  0.1766 -1.2234 -3.5877
12673SOL    HW249744   8.410   4.052   6.756 -0.6105  1.0038  1.2702
12674SOL     OW49745   3.903   5.534   8.024  0.1160  0.0631  0.0780
12674SOL    HW149746   3.932   5.566   8.109 -1.0829 -0.4909  0.7161
12674SOL    HW249747   3.831   5.592   8.000 -0.4316 -0.6121  0.0770
12675SOL     OW49748   7.266   5.402   7.024  0.5791 -0.2475 -0.1191
12675SOL    HW149749   7.327   5.467   7.059 -0.1666 -0.2373  1.2552
12675SOL    HW249750   7.207   5.452   6.968  0.5794  0.0974  0.1848
12676SOL     OW49751   9.529   8.573   5.042 -0.1415 -0.2754  0.1111
12676SOL    HW149752   9.573   8.522   4.975 -2.0732 -1.0276 -0.6679
12676SOL    HW249753   9.591   8.577   5.115  1.3581 -0.8344 -1.0878
12677SOL     OW49754   1.862   2.607   1.603  0.2762  0.0403 -0.3830
12677SOL    HW149755   1.822   2.623   1.689 -0.0513  0.3474 -0.5857
12677SOL    HW249756   1.886   2.695   1.572 -0.2334  0.0016 -0.9003
12678SOL     OW49757   9.162   1.244   8.111 -0.6848  0.3844  0.6730
12678SOL    HW149758   9.129   1.158   8.137  1.3101  0.3303  3.5256
12678SOL    HW249759   9.112   1.307   8.162  0.3818  0.6024  1.4956
12679SOL     OW49760  10.933  11.844   3.015  0.0890  0.1746  0.4931
12679SOL    HW149761  10.900  11.760   3.046  1.5077 -0.3277  0.7381
12679SOL    HW249762  10.856  11.890   2.982 -0.6685 -1.3796 -0.0104
12680SOL     OW49763   1.163   0.963  11.377  0.1158 -0.3686  0.2934
12680SOL    HW149764   1.257   0.965  11.360 -0.1776 -0.0637 -1.5138
12680SOL    HW249765   1.125   1.015  11.306 -1.6309 -2.8384 -0.7366
12681SOL     OW49766   5.258   3.440  11.490  0.7398 -0.3338  0.1892
12681SOL    HW149767   5.259   3.520  11.437 -0.9788  0.1665  0.8466
12681SOL    HW249768   5.322   3.383  11.448 -0.8551 -0.1464 -2.7009
12682SOL     OW49769   3.383   6.799   0.143  0.1732 -0.9008 -0.4624
12682SOL    HW149770   3.370   6.729   0.207 -0.5438 -1.2855 -1.0218
12682SOL    HW249771   3.297   6.839   0.133  0.5226 -0.1048 -0.3502
12683SOL     OW49772   6.863   8.333   3.707  0.4910  0.0899 -0.3295
12683SOL    HW149773   6.800   8.405   3.699 -1.9922 -2.0477 -1.4435
12683SOL    HW249774   6.920   8.359   3.780 -2.0060  1.9299  1.1196
12684SOL     OW49775   1.357   3.658   2.759 -0.2232 -0.3298 -0.4613
12684SOL    HW149776   1.427   3.680   2.698 -0.5166 -1.4587 -1.2417
12684SOL    HW249777   1.296   3.606   2.708 -0.8466 -0.6985  0.6160
12685SOL     OW49778  11.070   1.815   7.656 -0.5502 -0.1538 -0.0751
12685SOL    HW149779  11.149   1.764   7.674  0.6044  1.1049 -1.4058
12685SOL    HW249780  11.016   1.803   7.734  1.2483 -0.4877  1.1756
12686SOL     OW49781   8.986   6.373  10.077 -0.0979  0.0446 -0.6728
12686SOL    HW149782   9.023   6.285  10.078  0.2147  0.1695 -1.3900
12686SOL    HW249783   8.892   6.358  10.089  0.0341 -0.3313  0.0109
12687SOL     OW49784  11.756   1.142   9.159  0.2882 -0.1776  0.1120
12687SOL    HW149785  11.848   1.139   9.186  0.6508 -1.6151 -1.1358
12687SOL    HW249786  11.707   1.129   9.240  1.2296 -0.7474  0.6073
12688SOL     OW49787   0.415   1.879   7.311 -0.0092 -0.1649 -0.1210
12688SOL    HW149788   0.503   1.914   7.324  0.3461 -0.6701 -1.0960
12688SOL    HW249789   0.422   1.786   7.332 -0.5472 -0.0388  0.7155
12689SOL     OW49790   3.809   8.970   1.038  0.2335 -0.3436  0.4722
12689SOL    HW149791   3.856   9.009   1.112 -1.3116  0.8650  0.8522
12689SOL    HW249792   3.850   9.008   0.960 -0.8536  1.6295  0.8227
12690SOL     OW49793   8.309  11.697   1.148  0.2985 -0.2291 -0.3552
12690SOL    HW149794   8.265  11.613   1.163 -1.3067  0.9475  2.2075
12690SOL    HW249795   8.372  11.705   1.220 -0.3305  1.1927  0.0788
12691SOL     OW49796   6.790   4.855  10.512 -0.1972 -0.7322  0.3047
12691SOL    HW149797   6.802   4.863  10.606 -1.5537  1.4988  0.3527
12691SOL    HW249798   6.803   4.944  10.478 -2.0596 -0.9891 -1.2868
12692SOL     OW49799   9.561   1.938  11.538 -0.7727 -0.2085  0.0515
12692SOL    HW149800   9.575   2.031  11.557  0.1357 -0.3806  0.3051
12692SOL    HW249801   9.625   1.893  11.593 -0.3919 -0.9166 -0.9403
12693SOL     OW49802   7.139   5.916   4.387  0.4368 -0.3081  0.2269
12693SOL    HW149803   7.165   6.006   4.367  0.7979 -0.4336  0.1198
12693SOL    HW249804   7.053   5.924   4.428  0.8419  0.1540  1.0041
12694SOL     OW49805   1.562   0.451   0.935 -0.2843 -0.4077 -0.3698
12694SOL    HW149806   1.550   0.507   1.011 -1.1134  0.8462 -1.3908
12694SOL    HW249807   1.652   0.419   0.943 -0.3885 -0.4129  1.1748
12695SOL     OW49808   0.174   0.120  10.259 -0.0247  0.5441  0.4074
12695SOL    HW149809   0.265   0.128  10.287  0.3115 -1.3714  0.0126
12695SOL    HW249810   0.123   0.136  10.338  0.7001  0.7063  0.8470
12696SOL     OW49811   4.282   9.142   1.981  0.2428  0.0907  0.3147
12696SOL    HW149812   4.323   9.110   2.062  0.8376  1.7734  0.7262
12696SOL    HW249813   4.350   9.132   1.914 -0.7084 -2.6466 -0.3887
12697SOL     OW49814   6.298   9.529   3.082 -0.0321 -0.1261  0.2018
12697SOL    HW149815   6.280   9.620   3.107  0.7180  0.2072 -0.4277
12697SOL    HW249816   6.391   9.528   3.061  0.4509 -1.5058  2.1254
12698SOL     OW49817  10.118   6.128  10.909 -0.0162 -0.3529 -0.2600
12698SOL    HW149818  10.213   6.133  10.909 -0.0572  0.6495 -0.5630
12698SOL    HW249819  10.097   6.054  10.967  0.9347 -0.5799 -0.1957
12699SOL     OW49820   9.805  10.873   8.818  0.1789 -0.9023  0.0527
12699SOL    HW149821   9.857  10.935   8.868 -0.0157 -0.2128 -0.5843
12699SOL    HW249822   9.862  10.797   8.808  0.9999 -0.2276 -0.4862
12700SOL     OW49823  11.788   5.450   7.897  0.1692 -0.5079  0.4531
12700SOL    HW149824  11.755   5.539   7.890 -1.5064 -1.1342 -0.4185
12700SOL    HW249825  11.862   5.446   7.836 -1.1428 -0.2552 -1.2461
12701SOL     OW49826  11.188   5.667   9.289 -0.4525 -0.5215  0.7385
12701SOL    HW149827  11.284   5.666   9.296 -0.3625 -1.1338 -0.4199
12701SOL    HW249828  11.163   5.752   9.325  0.3153 -1.2254  3.1948
12702SOL     OW49829   1.522   2.629   1.690 -1.0396  0.2739 -0.3981
12702SOL    HW149830   1.430   2.649   1.706 -1.0328 -1.4022  2.4040
12702SOL    HW249831   1.570   2.690   1.746 -0.7447 -2.0687  2.1021
12703SOL     OW49832   0.144  10.024   1.871 -0.4399 -0.1493 -0.3732
12703SOL    HW149833   0.116  10.068   1.790  0.5544 -1.6929 -1.6166
12703SOL    HW249834   0.129  10.089   1.940 -3.4943  0.4397 -1.4229
12704SOL     OW49835   8.593   1.893   6.521 -0.1587 -0.4640 -0.1260
12704SOL    HW149836   8.536   1.817   6.529 -2.2673  1.0816  0.6343
12704SOL    HW249837   8.556   1.944   6.449 -0.8570  1.3951  1.4413
12705SOL     OW49838   1.357   4.973   6.071 -0.0693 -0.3671 -0.1781
12705SOL    HW149839   1.384   4.970   5.979  0.9151  0.2370  0.0713
12705SOL    HW249840   1.395   5.054   6.104 -0.2092 -0.7003  0.8287
12706SOL     OW49841   6.197  10.985   5.172  0.2471  0.0764 -0.4197
12706SOL    HW149842   6.255  10.909   5.166  0.9795  0.4643  1.2709
12706SOL    HW249843   6.152  10.975   5.256 -0.0309  1.2406 -0.4085
12707SOL     OW49844   7.047   9.446   3.977  0.1369  0.4539 -0.2469
12707SOL    HW149845   7.082   9.405   4.056  0.9839  0.5579 -0.5605
12707SOL    HW249846   6.980   9.385   3.946  3.2255 -2.2365 -2.2747
12708SOL     OW49847   2.265   4.925   4.973  0.5837 -0.3592 -0.3118
12708SOL    HW149848   2.351   4.884   4.975  0.9922  0.5095  0.6209
12708SOL    HW249849   2.271   4.991   4.904  0.5556 -0.5339 -0.4808
12709SOL     OW49850   2.027   9.396   7.783  0.9069 -0.1141  0.1867
12709SOL    HW149851   2.041   9.334   7.711 -1.1489  1.9506 -2.2124
12709SOL    HW249852   2.079   9.473   7.758 -0.7117  1.0480  0.2450
12710SOL     OW49853   1.949   8.287   7.977  0.0976  0.4881 -0.4698
12710SOL    HW149854   1.877   8.224   7.980 -0.4225  1.0305 -1.2333
12710SOL    HW249855   1.953   8.315   7.886  1.9054 -0.2407 -0.6591
12711SOL     OW49856   0.754   7.840   9.377  0.5755 -0.4577  0.6673
12711SOL    HW149857   0.839   7.815   9.412 -0.0248 -1.6978  1.3036
12711SOL    HW249858   0.721   7.760   9.335  0.1846  0.3065 -0.5218
12712SOL     OW49859   1.376   2.840   9.667 -0.2076 -0.3071  0.2473
12712SOL    HW149860   1.367   2.928   9.703 -0.8573  0.2263 -1.1419
12712SOL    HW249861   1.456   2.806   9.706  3.5445  3.0817 -3.4600
12713SOL     OW49862   4.002   2.415   8.231 -0.2748  0.2904 -0.9862
12713SOL    HW149863   3.937   2.383   8.292 -0.6028  0.6157 -1.1614
12713SOL    HW249864   3.992   2.360   8.153 -0.2373  0.2436 -0.9584
12714SOL     OW49865   9.631   1.021   3.314  0.0658  0.1562  0.3771
12714SOL    HW149866   9.719   1.036   3.350 -0.1498 -0.1646  1.0719
12714SOL    HW249867   9.576   1.084   3.360  0.1178  1.1996 -0.9395
12715SOL     OW49868   4.864   0.232  11.869  0.4193  0.3246 -0.7761
12715SOL    HW149869   4.919   0.283  11.809  0.4963  1.0505 -0.1081
12715SOL    HW249870   4.923   0.210  11.941  0.4088 -0.8105 -1.0987
12716SOL     OW49871  10.255   9.351   7.071  0.2185 -0.5739 -0.3555
12716SOL    HW149872  10.241   9.440   7.103  0.2451 -1.1111  1.2398
12716SOL    HW249873  10.342   9.353   7.032  0.8982 -0.2682  1.1101
12717SOL     OW49874  11.481   2.421   0.042  0.1581  0.8669  0.1430
12717SOL    HW149875  11.472   2.457   0.130 -0.5433  0.0102  0.4342
12717SOL    HW249876  11.443   2.488  -0.015  0.5607  1.3984  0.4857
12718SOL     OW49877   7.652   1.044   0.035 -0.0744 -0.0611 -0.0379
12718SOL    HW149878   7.610   1.023  -0.048 -0.4073 -0.7188  0.2916
12718SOL    HW249879   7.581   1.072   0.092  0.3070  1.6855 -0.3516
12719SOL     OW49880   3.175   6.011   4.843 -0.1167 -0.0905 -0.1061
12719SOL    HW149881   3.099   6.052   4.883  0.1831 -0.0179  0.3973
12719SOL    HW249882   3.193   5.935   4.897 -0.3339 -0.5833 -0.7137
12720SOL     OW49883   6.505   6.957   0.360  0.5329  0.3450  0.5870
12720SOL    HW149884   6.527   6.865   0.378 -0.8605 -0.3309 -0.9632
12720SOL    HW249885   6.457   6.955   0.278  1.2123  2.5870  0.0680
12721SOL     OW49886   8.174   4.830   0.730  0.4829  0.1260 -0.1246
12721SOL    HW149887   8.133   4.785   0.805 -1.0427 -1.2991 -1.7267
12721SOL    HW249888   8.245   4.772   0.704  0.2237 -0.0123 -0.5293
12722SOL     OW49889   1.046  11.347   4.506  0.2443 -0.1299  0.2244
12722SOL    HW149890   1.051  11.304   4.420 -0.4280 -2.4643  1.2624
12722SOL    HW249891   0.955  11.376   4.512  0.3608  0.2733  0.0415
12723SOL     OW49892  10.778   5.306   0.814 -0.1538  0.4724  0.2833
12723SOL    HW149893  10.793   5.284   0.906 -1.8862 -0.3173  0.4149
12723SOL    HW249894  10.720   5.382   0.817  0.7169  1.1605 -0.1696
12724SOL     OW49895   4.332   2.948   0.625 -0.3490 -0.0679  0.5018
12724SOL    HW149896   4.317   2.937   0.719 -0.8785 -0.4205  0.3790
12724SOL    HW249897   4.300   3.036   0.605 -1.9986 -0.6889  0.3031
12725SOL     OW49898   5.451  10.842   0.252 -0.4626 -0.3844 -0.2109
12725SOL    HW149899   5.371  10.812   0.209 -0.8232 -0.8428  0.7542
12725SOL    HW249900   5.421  10.883   0.333  0.1206  1.4197 -0.8466
12726SOL     OW49901  11.064   3.435   5.686  0.2766 -0.0370  0.1113
12726SOL    HW149902  11.097   3.463   5.771 -0.1229 -1.7288  0.8653
12726SOL    HW249903  11.138   3.391   5.645  0.0830 -0.4053  0.1556
12727SOL     OW49904   4.517   3.167   7.327  0.7276 -0.2213  0.0423
12727SOL    HW149905   4.484   3.090   7.281 -0.4015  1.0636 -1.3839
12727SOL    HW249906   4.601   3.185   7.285  0.2009  0.3158 -0.7868
12728SOL     OW49907   9.123   6.596   8.812 -0.1546  0.6029  0.3720
12728SOL    HW149908   9.145   6.689   8.814  1.0336  0.3301  0.8644
12728SOL    HW249909   9.155   6.562   8.895 -0.5204 -0.2558  0.1687
12729SOL     OW49910  11.158   2.523   3.539 -0.1357  0.1489 -0.3669
12729SOL    HW149911  11.064   2.508   3.531 -0.0964  0.0053 -0.5974
12729SOL    HW249912  11.180   2.494   3.627  0.0748 -1.9501 -1.0462
12730SOL     OW49913  11.440   2.956   9.470  0.1953 -0.1845 -0.1662
12730SOL    HW149914  11.386   2.993   9.401  0.6955  0.6498 -0.1168
12730SOL    HW249915  11.387   2.884   9.506 -1.7989  1.8342  1.2118
12731SOL     OW49916   1.792   4.668   9.311  0.2046 -0.7226  0.1794
12731SOL    HW149917   1.771   4.659   9.404 -0.9628 -0.2373 -0.0210
12731SOL    HW249918   1.718   4.626   9.266  0.6852 -0.8197 -0.5340
12732SOL     OW49919   8.312  10.905   5.186  0.0517  0.3927 -0.0394
12732SOL    HW149920   8.282  10.975   5.244  0.9094  0.1099  0.7828
12732SOL    HW249921   8.395  10.937   5.151  0.0221  0.1448 -0.3372
12733SOL     OW49922   5.969   7.639   4.278 -0.3056 -0.0203  0.1782
12733SOL    HW149923   6.062   7.620   4.286 -0.0669  1.0412  0.1553
12733SOL    HW249924   5.928   7.555   4.261  0.6607 -0.4883  0.1096
12734SOL     OW49925   4.736   5.882   1.682 -0.2124 -0.3045  0.1787
12734SOL    HW149926   4.777   5.893   1.768 -0.9779  0.6824  0.4303
12734SOL    HW249927   4.660   5.826   1.699  0.0532 -0.7221  0.0074
12735SOL     OW49928   4.636   0.450   5.318 -0.2103  0.1367  0.6471
12735SOL    HW149929   4.568   0.518   5.313  1.1057  1.5222  0.6102
12735SOL    HW249930   4.719   0.500   5.319  0.9695 -1.5243 -2.1319
12736SOL     OW49931   7.217   4.425   4.781  0.0748  0.2287  0.0313
12736SOL    HW149932   7.196   4.334   4.759 -0.0113  0.4207 -0.7018
12736SOL    HW249933   7.311   4.432   4.764 -0.1507  0.6095 -1.1366
12737SOL     OW49934   4.711   9.138   0.934 -0.1559 -0.2242  0.0870
12737SOL    HW149935   4.641   9.107   0.877  0.2659 -0.4891 -0.2987
12737SOL    HW249936   4.781   9.073   0.924 -0.1892 -0.4469  1.1519
12738SOL     OW49937   2.012   3.811   7.960 -0.1249 -0.0908 -0.3736
12738SOL    HW149938   1.922   3.843   7.952 -0.1571 -0.3539 -1.1926
12738SOL    HW249939   2.045   3.809   7.870  1.2140  1.4015  0.0485
12739SOL     OW49940   6.729   9.398   5.906 -0.2579  0.5091  0.0361
12739SOL    HW149941   6.757   9.310   5.930 -1.8075 -0.4043 -1.2598
12739SOL    HW249942   6.696   9.389   5.816 -0.1511  2.4879 -0.2610
12740SOL     OW49943   5.585   6.333   5.854 -0.1498  0.1826 -0.5540
12740SOL    HW149944   5.534   6.414   5.855  0.6129  0.6750  0.3316
12740SOL    HW249945   5.615   6.325   5.763  1.2882  1.9034 -0.2889
12741SOL     OW49946  11.132  11.883   6.687  1.0498 -0.4754  0.7609
12741SOL    HW149947  11.123  11.845   6.774 -1.4984 -0.7672  0.4578
12741SOL    HW249948  11.123  11.809   6.627  0.2867  0.0386  0.2273
12742SOL     OW49949   7.718   1.769   7.474 -0.3547 -0.0080  0.3254
12742SOL    HW149950   7.651   1.744   7.537 -0.4933  0.5243  0.3919
12742SOL    HW249951   7.801   1.742   7.515 -0.6363 -3.6194 -1.1009
12743SOL     OW49952   9.574   6.687   6.809 -0.0951 -0.4950 -0.2711
12743SOL    HW149953   9.605   6.632   6.737  0.0841 -3.3623  1.8508
12743SOL    HW249954   9.478   6.681   6.804 -0.1826  1.1486 -1.5143
12744SOL     OW49955  10.170  10.838   4.281 -0.2322 -0.3426  0.4217
12744SOL    HW149956  10.102  10.874   4.339 -2.8680 -2.0544 -1.4014
12744SOL    HW249957  10.159  10.885   4.199 -0.3502 -1.7553 -0.4019
12745SOL     OW49958   5.028   7.113   2.287  0.0002 -0.0877 -0.0641
12745SOL    HW149959   4.955   7.056   2.263  0.4512 -0.7222  0.0478
12745SOL    HW249960   5.074   7.131   2.205 -1.2394  1.7098 -0.4222
12746SOL     OW49961  10.651   8.136   7.292  0.1198  0.5737  0.5052
12746SOL    HW149962  10.672   8.187   7.214  0.1116  0.5167  0.4660
12746SOL    HW249963  10.735   8.098   7.319  0.3463  1.5203  1.1925
12747SOL     OW49964   0.420   3.630   0.794 -0.0872  0.0002 -0.6130
12747SOL    HW149965   0.330   3.602   0.778  0.5313 -1.0628 -2.4290
12747SOL    HW249966   0.446   3.581   0.872 -1.7078  1.9109  1.2597
12748SOL     OW49967   1.786  11.055  10.425  0.0024  0.4769 -0.5070
12748SOL    HW149968   1.787  11.048  10.520  0.8225 -1.6404 -0.6155
12748SOL    HW249969   1.874  11.085  10.403  0.1806 -0.1186 -0.6326
12749SOL     OW49970  11.138   7.694   4.966  0.3724  0.4270  0.0129
12749SOL    HW149971  11.155   7.608   4.927  2.2371  0.4790  0.6223
12749SOL    HW249972  11.125   7.677   5.059 -0.4470  0.6902 -0.0463
12750SOL     OW49973   4.234   1.967   9.291  0.4160 -0.2045  0.4005
12750SOL    HW149974   4.328   1.987   9.288  0.5100 -0.4551  1.2896
12750SOL    HW249975   4.214   1.929   9.205  1.0384  0.2153  0.0622
12751SOL     OW49976   9.905   3.189   6.004  0.2844  0.2777  0.6919
12751SOL    HW149977   9.930   3.259   5.944 -0.0010 -0.5764 -0.4611
12751SOL    HW249978   9.816   3.211   6.030  0.3360  0.5505  0.6410
12752SOL     OW49979   6.013   3.292   9.182 -0.2483  0.5150  0.3757
12752SOL    HW149980   6.061   3.366   9.144 -0.1889  0.2066 -0.1682
12752SOL    HW249981   6.082   3.231   9.209 -0.2155  1.4156  2.4845
12753SOL     OW49982   1.651  11.880   5.803 -0.5517 -0.4613  0.0003
12753SOL    HW149983   1.614  11.935   5.735  2.2680  1.4581 -0.1292
12753SOL    HW249984   1.624  11.921   5.885 -0.2702 -0.1548 -0.0591
12754SOL     OW49985   9.551   5.823   5.070 -0.1269  0.0081 -0.4988
12754SOL    HW149986   9.597   5.803   5.151  0.9664 -0.3389 -1.1865
12754SOL    HW249987   9.463   5.787   5.083  0.0903 -0.2048  0.4488
12755SOL     OW49988   0.455   3.342   2.373 -0.0391  0.1357 -0.1210
12755SOL    HW149989   0.492   3.357   2.286 -0.7658  1.2804 -0.2422
12755SOL    HW249990   0.363   3.322   2.357 -1.2743  4.3552  0.5234
12756SOL     OW49991   4.592   9.327   1.687 -0.1372 -0.0741 -0.1464
12756SOL    HW149992   4.526   9.365   1.745 -0.1348  0.1626 -0.2977
12756SOL    HW249993   4.555   9.335   1.599  0.7721  1.5461 -0.4168
12757SOL     OW49994  11.503   4.655   7.065 -0.0863  0.3776  0.4057
12757SOL    HW149995  11.527   4.746   7.049  1.1224  0.0865  0.4451
12757SOL    HW249996  11.579   4.618   7.110 -1.6740  0.0610  3.0267
12758SOL     OW49997   7.620   4.566   8.166 -0.5472  0.6063 -0.2481
12758SOL    HW149998   7.643   4.496   8.228  1.1748  0.8230 -0.5813
12758SOL    HW249999   7.656   4.645   8.206 -0.1986  0.8813 -1.0909
12759SOL     OW50000   9.373   2.601   7.339  0.0061  0.5859 -0.1367
12759SOL    HW150001   9.419   2.612   7.256  1.6975 -0.4437  0.6045
12759SOL    HW250002   9.375   2.688   7.379 -0.8423  1.0912 -1.1693
12760SOL     OW50003   3.501   4.281   5.120  0.5852 -0.2844  0.1184
12760SOL    HW150004   3.491   4.205   5.062  1.0977  0.3618 -0.8468
12760SOL    HW250005   3.584   4.267   5.164  1.0017  0.0193 -0.5505
12761SOL     OW50006   6.815   2.802  11.453  0.3443 -0.1258  0.4286
12761SOL    HW150007   6.755   2.867  11.489  0.2010 -0.3298  0.5551
12761SOL    HW250008   6.874   2.853  11.396 -0.7572 -0.0973 -0.7309
12762SOL     OW50009  10.305  10.276   9.996 -0.3709 -0.5079 -0.2061
12762SOL    HW150010  10.280  10.316  10.079  1.2500  0.2216 -0.0243
12762SOL    HW250011  10.391  10.238  10.013  0.0750 -0.1695 -1.5982
12763SOL     OW50012   1.548   8.468   7.881 -0.1211  0.1941  0.0634
12763SOL    HW150013   1.518   8.387   7.921 -1.4980  0.1981 -0.8807
12763SOL    HW250014   1.507   8.537   7.932  2.0255  0.4000  1.6425
12764SOL     OW50015   8.210   7.106   7.676 -0.1023  0.3565 -0.3405
12764SOL    HW150016   8.217   7.015   7.707  3.1070  0.8335  0.6822
12764SOL    HW250017   8.158   7.150   7.743  0.6894 -0.1800  0.6525
12765SOL     OW50018   5.173   0.963   5.629  0.7641  0.0670 -0.3807
12765SOL    HW150019   5.097   1.020   5.615  1.6990  1.4116 -0.2067
12765SOL    HW250020   5.136   0.875   5.638 -0.9440  0.9057  1.5922
12766SOL     OW50021   6.352  11.202   6.249 -0.1972 -0.0060 -0.0799
12766SOL    HW150022   6.407  11.213   6.326 -3.2064  2.4831  1.9239
12766SOL    HW250023   6.323  11.110   6.253 -1.7542  0.4905  2.9634
12767SOL     OW50024   3.189   8.709   3.093 -0.4778 -0.2436 -0.2914
12767SOL    HW150025   3.112   8.655   3.076  0.0529 -0.6439 -1.5299
12767SOL    HW250026   3.241   8.658   3.155 -0.4066 -0.7714 -0.7754
12768SOL     OW50027   4.677  10.318   7.104 -0.6121 -0.1846 -0.0410
12768SOL    HW150028   4.667  10.229   7.068 -0.9727  0.0984 -0.6478
12768SOL    HW250029   4.708  10.370   7.030  0.0260  0.1159  0.4234
12769SOL     OW50030   9.394   1.664   3.458 -0.2680  0.6480  0.2348
12769SOL    HW150031   9.419   1.600   3.392 -0.9132  0.1836  0.4373
12769SOL    HW250032   9.467   1.664   3.520 -1.4811 -2.0942  1.8537
12770SOL     OW50033   9.779  11.884   2.989 -0.0789  0.8318  0.1949
12770SOL    HW150034   9.812  11.813   2.933  0.0005 -0.6072  1.9731
12770SOL    HW250035   9.857  11.915   3.035 -0.2901  1.4120  0.1628
12771SOL     OW50036   8.485   5.721   2.065  0.2273  0.0644 -0.0349
12771SOL    HW150037   8.436   5.639   2.076  0.3940 -0.3131 -1.8605
12771SOL    HW250038   8.450   5.779   2.133 -1.9996 -0.5550 -0.5735
12772SOL     OW50039   1.126  11.890   9.738  0.1799 -0.8165 -0.3338
12772SOL    HW150040   1.158  11.979   9.720  0.4693 -0.2563  2.4562
12772SOL    HW250041   1.099  11.893   9.829 -0.4875 -3.4481 -0.3739
12773SOL     OW50042   8.010   0.573   3.160  0.0010 -0.3013 -0.2211
12773SOL    HW150043   7.974   0.611   3.240 -3.4527  0.7071 -2.0510
12773SOL    HW250044   7.954   0.498   3.142  0.8668 -0.6565 -1.5576
12774SOL     OW50045  11.531   0.780  10.401 -0.3615 -0.4486  0.0131
12774SOL    HW150046  11.561   0.729  10.477 -0.0615  1.0218  0.9270
12774SOL    HW250047  11.466   0.840  10.437 -0.7075 -0.1831 -1.0368
12775SOL     OW50048   7.796   7.533   7.650 -0.0468 -0.6988 -0.1916
12775SOL    HW150049   7.751   7.613   7.621  0.1103  0.3119  2.1519
12775SOL    HW250050   7.767   7.466   7.588 -1.5907  0.7887 -1.1779
12776SOL     OW50051   1.414  10.786   3.639 -0.1052  0.8295  0.1159
12776SOL    HW150052   1.389  10.710   3.586 -1.4099  0.5395  1.0982
12776SOL    HW250053   1.478  10.833   3.585  1.5153 -1.4746 -0.1329
12777SOL     OW50054   0.524   3.302   0.470 -0.2094 -0.4250  0.8026
12777SOL    HW150055   0.605   3.354   0.468 -0.5558  0.1040 -0.1530
12777SOL    HW250056   0.470   3.340   0.401 -1.0198 -1.1962  1.0012
12778SOL     OW50057  11.627   5.403   6.432 -0.6981 -0.2178 -0.3762
12778SOL    HW150058  11.644   5.310   6.418  0.0822  0.0111 -1.0558
12778SOL    HW250059  11.573   5.429   6.358  1.1548  0.3926 -1.5857
12779SOL     OW50060   2.457   2.388  10.341  0.4872  0.4944  0.5404
12779SOL    HW150061   2.365   2.413  10.351 -1.1692 -3.1518 -2.9045
12779SOL    HW250062   2.475   2.334  10.418 -0.5172  0.6214  0.8821
12780SOL     OW50063   8.186   3.013  10.876 -0.5896 -0.3138 -0.3443
12780SOL    HW150064   8.261   2.979  10.826  0.1917 -2.2371  1.9346
12780SOL    HW250065   8.110   2.993  10.821  0.3438 -0.6097 -1.5899
12781SOL     OW50066   6.429   9.844  11.733  0.0874 -0.6679  0.3605
12781SOL    HW150067   6.518   9.835  11.698 -0.0470 -3.7507  0.5384
12781SOL    HW250068   6.439   9.902  11.809  1.5214  0.7667 -0.8533
12782SOL     OW50069   3.722   2.961   3.232  0.3529 -0.4731 -0.3633
12782SOL    HW150070   3.653   3.010   3.277 -0.0084 -2.9147  2.0100
12782SOL    HW250071   3.799   3.016   3.241 -0.1080 -0.0767  1.8838
12783SOL     OW50072   2.598   6.277   8.712  0.1164  0.5250  0.1555
12783SOL    HW150073   2.515   6.283   8.665  0.1055  1.0530  0.2360
12783SOL    HW250074   2.591   6.196   8.762 -1.5642  1.9568  2.4226
12784SOL     OW50075  11.620   1.243   2.818  0.3965  0.1905  0.6710
12784SOL    HW150076  11.583   1.278   2.899 -0.4344 -0.4045  0.5556
12784SOL    HW250077  11.552   1.185   2.783  1.5088 -1.0712  0.5430
12785SOL     OW50078   7.577   3.438   3.909 -0.2395  0.3619 -0.2039
12785SOL    HW150079   7.615   3.490   3.979 -1.3497 -2.3646  2.6527
12785SOL    HW250080   7.641   3.368   3.893 -1.1211 -0.5134 -0.0219
12786SOL     OW50081   4.726   3.880   9.425  0.5127  0.5317  0.1251
12786SOL    HW150082   4.791   3.908   9.489  1.2961  0.4465 -0.6201
12786SOL    HW250083   4.762   3.800   9.386  1.2456  1.8738 -2.1524
12787SOL     OW50084   1.810   4.504   7.317  0.0453  0.4343  0.1890
12787SOL    HW150085   1.826   4.597   7.304 -1.1026  0.6683  0.2950
12787SOL    HW250086   1.731   4.486   7.265 -0.9065 -0.0266  1.7117
12788SOL     OW50087   4.722  11.852   2.074 -0.8478 -0.3693 -0.6025
12788SOL    HW150088   4.804  11.818   2.038 -0.5080  0.7582 -0.9386
12788SOL    HW250089   4.723  11.825   2.166  0.3180  0.3505 -0.3831
12789SOL     OW50090   4.094   6.092  11.717  0.4012  0.4174 -0.8438
12789SOL    HW150091   4.021   6.115  11.660  0.1987  0.2458 -0.6541
12789SOL    HW250092   4.099   6.164  11.781 -0.5539 -0.2915  0.0600
12790SOL     OW50093  10.986   5.146  10.985  0.1882 -0.4718  0.1611
12790SOL    HW150094  11.076   5.178  10.986 -0.0477  0.2527 -0.4671
12790SOL    HW250095  10.933   5.222  11.006 -0.3737 -0.4880 -1.1031
12791SOL     OW50096   0.735   9.968   6.193  0.2112  0.6537 -0.0729
12791SOL    HW150097   0.796  10.029   6.235 -0.1799  1.0037 -0.0110
12791SOL    HW250098   0.722  10.004   6.105  0.0394  0.6135 -0.0633
12792SOL     OW50099   1.046   3.530   8.336  0.4861  0.6674 -0.1357
12792SOL    HW150100   0.981   3.488   8.279 -0.1382  0.1664  0.9130
12792SOL    HW250101   1.124   3.476   8.327  0.1917  0.2205 -0.0483
12793SOL     OW50102   8.462   1.152   2.513 -0.2792  0.0280 -0.1440
12793SOL    HW150103   8.536   1.100   2.544  0.2685  1.8259  1.8004
12793SOL    HW250104   8.500   1.210   2.447 -0.5180 -0.7596 -0.9939
12794SOL     OW50105   4.943   4.862   8.936  0.4134  0.1490 -0.0141
12794SOL    HW150106   4.857   4.898   8.960  1.2125  1.1784  1.5114
12794SOL    HW250107   4.962   4.798   9.004  0.1364 -1.3634 -1.3111
12795SOL     OW50108   4.455   8.464   0.789 -0.2408  0.2258 -0.4080
12795SOL    HW150109   4.372   8.511   0.785 -0.1620  0.3822 -0.2584
12795SOL    HW250110   4.431   8.374   0.812 -0.4725 -0.0409 -1.6181
12796SOL     OW50111   3.927   4.985   6.456 -0.2209 -0.0993 -0.0728
12796SOL    HW150112   3.988   5.050   6.421 -0.5056  1.1210  1.5937
12796SOL    HW250113   3.960   4.967   6.544 -1.0601 -1.0559  0.0634
12797SOL     OW50114   1.449  11.226   2.811  0.5061  0.2271  0.3403
12797SOL    HW150115   1.462  11.254   2.721 -0.2106  0.8660  0.4217
12797SOL    HW250116   1.470  11.303   2.864  4.2585 -1.0460  0.9960
12798SOL     OW50117   5.559   1.793   8.617 -0.3505  0.5109 -0.2626
12798SOL    HW150118   5.612   1.745   8.680  0.7191 -0.3666 -1.7501
12798SOL    HW250119   5.586   1.884   8.627  0.0281  0.3376  0.3238
12799SOL     OW50120   4.439   2.453  10.774 -1.1756  0.1455  0.4273
12799SOL    HW150121   4.384   2.444  10.696 -1.0732 -2.1647  0.5446
12799SOL    HW250122   4.418   2.377  10.828  1.5214 -0.4062  0.8731
12800SOL     OW50123   7.763   6.884   1.736  0.1486 -0.0642  0.3920
12800SOL    HW150124   7.759   6.915   1.646 -0.5614  0.7487  0.6895
12800SOL    HW250125   7.708   6.806   1.737  0.0212  0.0219  0.1594
12801SOL     OW50126   1.555   9.206   5.220  0.3998 -0.0453 -0.0580
12801SOL    HW150127   1.612   9.134   5.192  1.8847 -0.0195  2.5850
12801SOL    HW250128   1.587   9.282   5.172  0.8928 -0.5280 -0.5163
12802SOL     OW50129   0.093   3.170  10.044 -0.0085  0.2185  0.3057
12802SOL    HW150130   0.071   3.241  10.104 -0.3003 -0.3363  0.8674
12802SOL    HW250131   0.010   3.123  10.031  0.0848  0.2376 -0.4054
12803SOL     OW50132   1.246  10.934   4.506 -0.1895 -0.0706  0.0479
12803SOL    HW150133   1.326  10.897   4.541 -0.5647 -0.6055  0.3576
12803SOL    HW250134   1.233  11.015   4.555 -0.9175 -1.0027  1.4512
12804SOL     OW50135   2.177   2.361   8.251 -0.5143 -0.4291 -0.2745
12804SOL    HW150136   2.232   2.375   8.174 -0.0546  1.5972  0.3416
12804SOL    HW250137   2.229   2.305   8.308 -0.3096 -0.8814 -0.8935
12805SOL     OW50138   8.970   2.108   0.318 -0.7232  0.5706  0.5366
12805SOL    HW150139   8.965   2.080   0.227 -1.0709  1.3941  0.2896
12805SOL    HW250140   8.880   2.135   0.339 -0.4772  1.1509  0.8619
12806SOL     OW50141   7.504   6.900  11.949  0.1172 -0.2567 -0.2251
12806SOL    HW150142   7.560   6.837  11.904  2.7359  0.1067  2.2837
12806SOL    HW250143   7.467   6.850  12.022 -0.2116  0.3775  0.0476
12807SOL     OW50144   8.809   5.875   5.149 -0.1327 -0.5036  0.4413
12807SOL    HW150145   8.858   5.956   5.138 -0.1034 -0.1868  2.6070
12807SOL    HW250146   8.717   5.900   5.135  0.0089 -0.5009 -0.6309
12808SOL     OW50147   7.863   3.250   9.176 -0.2286 -0.5888 -0.1435
12808SOL    HW150148   7.866   3.346   9.182 -2.0352 -0.4554 -0.5975
12808SOL    HW250149   7.955   3.222   9.180  0.2324  1.0274  1.7264
12809SOL     OW50150  10.563   1.444   2.750  0.0233  0.0532 -0.0971
12809SOL    HW150151  10.646   1.488   2.767 -0.9745  1.2870  2.0812
12809SOL    HW250152  10.509   1.510   2.707  0.1175 -0.7384 -1.4928
12810SOL     OW50153   4.868   8.621   2.746 -0.3458  0.5938 -0.5418
12810SOL    HW150154   4.884   8.715   2.757 -1.3777  1.2465 -3.6380
12810SOL    HW250155   4.786   8.605   2.793  0.0682  1.0943  0.3918
12811SOL     OW50156   1.481   3.224  11.821  0.2639 -0.0519  0.3317
12811SOL    HW150157   1.509   3.314  11.831 -0.9328  0.1943  1.9339
12811SOL    HW250158   1.427   3.207  11.899 -0.3067 -1.8403 -0.3995
12812SOL     OW50159   5.068   0.555   5.055  0.0207  0.2348  0.1664
12812SOL    HW150160   5.149   0.504   5.047  0.1327  0.0503  2.1454
12812SOL    HW250161   5.095   0.638   5.094 -0.2599  1.6695 -2.4612
12813SOL     OW50162  10.888   5.388   8.249  0.0459  0.4449 -0.3306
12813SOL    HW150163  10.927   5.300   8.244 -1.2480 -0.2216  0.7062
12813SOL    HW250164  10.815   5.385   8.187 -0.8884  0.2802  0.7374
12814SOL     OW50165   6.670   8.968  11.444  0.4956  0.5847 -0.7525
12814SOL    HW150166   6.583   8.960  11.483  1.3108 -0.0377  1.0340
12814SOL    HW250167   6.665   8.918  11.363 -1.1428  1.5796 -1.3116
12815SOL     OW50168   0.043   6.508  10.218 -0.4206 -0.3624 -0.2682
12815SOL    HW150169  -0.044   6.535  10.247  0.0857  2.1957 -0.8435
12815SOL    HW250170   0.027   6.440  10.153 -1.8090 -2.0313  1.7330
12816SOL     OW50171  11.940   5.866   6.148 -0.2333 -0.0110  0.4068
12816SOL    HW150172  11.883   5.877   6.072 -4.2275 -0.2339  3.0363
12816SOL    HW250173  11.985   5.950   6.157 -0.9400  0.5822 -1.2265
12817SOL     OW50174   4.562   8.203   7.626  0.1095 -0.3313  0.2646
12817SOL    HW150175   4.529   8.158   7.548 -0.1326 -0.6999  0.5736
12817SOL    HW250176   4.545   8.295   7.609 -0.4133 -0.4526  0.1013
12818SOL     OW50177   0.054   9.110   9.487 -0.3757 -0.1064 -0.3138
12818SOL    HW150178   0.039   9.136   9.396  2.3355 -0.6916 -1.0352
12818SOL    HW250179   0.132   9.160   9.513  0.3290 -1.7129  0.8418
12819SOL     OW50180   6.732   8.065   9.700 -0.4498  0.2086  0.0813
12819SOL    HW150181   6.803   8.009   9.731 -0.4009 -0.3182 -0.9315
12819SOL    HW250182   6.755   8.152   9.731 -0.2603 -0.2407  1.2374
12820SOL     OW50183   0.637   9.728   4.936  0.5984  0.2520 -0.4527
12820SOL    HW150184   0.581   9.773   4.873  1.6242  2.3000  0.0197
12820SOL    HW250185   0.576   9.679   4.992 -0.4769  0.2220 -1.6099
12821SOL     OW50186   0.666   3.451   3.239  0.2810 -0.1183  0.0420
12821SOL    HW150187   0.595   3.417   3.294 -0.3614 -1.7118 -1.6521
12821SOL    HW250188   0.655   3.406   3.155  1.4458  1.9026 -1.2927
12822SOL     OW50189  10.944   1.019   1.245 -0.0811 -0.1205 -0.0476
12822SOL    HW150190  10.962   1.081   1.174 -0.6785  1.7018  1.3056
12822SOL    HW250191  11.030   1.003   1.284 -0.0179  0.4910  0.0768
12823SOL     OW50192   2.661  11.527   0.082 -0.4862 -0.2192 -0.5117
12823SOL    HW150193   2.615  11.607   0.105 -0.4767  0.3087 -2.1665
12823SOL    HW250194   2.592  11.468   0.050 -0.3807 -0.5328 -0.1691
12824SOL     OW50195  11.260   3.191   1.688 -0.0360  0.0850  0.0650
12824SOL    HW150196  11.181   3.242   1.707  0.4220  0.3263  1.4338
12824SOL    HW250197  11.230   3.122   1.628 -1.1380  0.5535  0.0406
12825SOL     OW50198  10.016   5.463   5.854 -0.1112  0.1244 -0.2240
12825SOL    HW150199  10.103   5.437   5.885 -1.6113 -0.7578  4.0026
12825SOL    HW250200  10.013   5.558   5.866 -0.2442 -0.0582  1.3858
12826SOL     OW50201   6.455   2.148   1.380  1.1671  0.0937 -0.2430
12826SOL    HW150202   6.414   2.067   1.350 -1.3316  0.6688  1.3219
12826SOL    HW250203   6.504   2.122   1.458  1.4444 -0.1336 -0.4923
12827SOL     OW50204   8.687  11.309   6.882 -0.1389 -0.7295 -0.5448
12827SOL    HW150205   8.707  11.376   6.947 -0.4267 -0.8498 -0.3294
12827SOL    HW250206   8.729  11.230   6.916  0.8541 -0.4949 -1.1794
12828SOL     OW50207   7.663   6.087   5.824 -0.0610  0.4169 -0.9797
12828SOL    HW150208   7.694   6.145   5.755  0.1799 -0.5979 -1.7313
12828SOL    HW250209   7.567   6.091   5.818 -0.0446  0.6829 -1.0635
12829SOL     OW50210   8.408  11.885   6.030 -0.2704 -0.2598  0.4948
12829SOL    HW150211   8.428  11.916   6.118  0.2402  2.3253 -0.4428
12829SOL    HW250212   8.380  11.964   5.983  1.1678 -1.2162 -2.1258
12830SOL     OW50213   2.257   3.839  10.032  0.5003 -0.7357 -0.0441
12830SOL    HW150214   2.218   3.837  10.119  2.4470 -0.1471  0.9050
12830SOL    HW250215   2.339   3.790  10.041 -0.6176 -3.3763 -2.3445
12831SOL     OW50216   9.707   3.076  11.088  0.0030  0.0085 -0.3157
12831SOL    HW150217   9.627   3.072  11.140 -0.3744 -0.2210 -0.9040
12831SOL    HW250218   9.776   3.094  11.152 -0.6014  0.8619  0.1163
12832SOL     OW50219  11.389   2.599  10.130 -0.4687 -0.8123 -0.0401
12832SOL    HW150220  11.364   2.602  10.038 -0.8398 -0.9016  0.0552
12832SOL    HW250221  11.305   2.597  10.177 -0.2910  0.0813  0.3306
12833SOL     OW50222   4.482   2.338   0.281 -0.0555  0.2807 -0.3376
12833SOL    HW150223   4.553   2.320   0.219 -0.8725 -1.6490 -0.7880
12833SOL    HW250224   4.405   2.298   0.242 -0.4225 -1.9364  2.3166
12834SOL     OW50225   2.175  11.437   5.864  0.8614 -0.2214  0.0761
12834SOL    HW150226   2.199  11.354   5.821  1.5195  0.2201 -0.4239
12834SOL    HW250227   2.094  11.463   5.821  0.6282 -0.6209  0.2635
12835SOL     OW50228   6.947   9.270   2.883 -0.1326  0.2115 -0.1554
12835SOL    HW150229   6.960   9.204   2.951  0.2565  1.2336  0.7897
12835SOL    HW250230   6.990   9.348   2.917 -0.0639  0.7926 -1.5206
12836SOL     OW50231   7.198   2.439   0.072 -0.1671 -0.1941  0.5026
12836SOL    HW150232   7.124   2.393   0.034 -0.1503 -0.5231  0.8527
12836SOL    HW250233   7.275   2.392   0.039 -0.0016  1.3790 -1.4867
12837SOL     OW50234   5.264   3.929   7.854  0.1939  0.2195  0.3483
12837SOL    HW150235   5.280   3.837   7.875 -0.0152 -0.2885 -1.5560
12837SOL    HW250236   5.177   3.947   7.890 -1.2548 -1.3386 -2.1081
12838SOL     OW50237   6.446   8.361   1.754 -0.1569 -0.1930  0.4684
12838SOL    HW150238   6.489   8.300   1.694 -0.9086 -0.1044 -0.1750
12838SOL    HW250239   6.440   8.312   1.837  0.2974 -0.5549  0.2933
12839SOL     OW50240   2.138   4.844   6.632 -0.1359  0.3060  0.4680
12839SOL    HW150241   2.109   4.789   6.704 -0.1845  0.2418  0.3994
12839SOL    HW250242   2.058   4.883   6.597 -0.2680 -0.7524 -0.4452
12840SOL     OW50243   3.569   6.229   0.292  0.0163  0.3441  0.2487
12840SOL    HW150244   3.602   6.145   0.260  0.1047  0.8021 -0.9016
12840SOL    HW250245   3.634   6.293   0.262  0.4584  0.7339  1.9482
12841SOL     OW50246   7.666   9.298   3.421  0.3303 -0.2447  0.1199
12841SOL    HW150247   7.606   9.366   3.389  1.2407  0.3763 -0.3311
12841SOL    HW250248   7.726   9.345   3.479  0.7080 -0.7473  0.1386
12842SOL     OW50249   9.704   3.300  10.809  0.1383 -0.0222  0.3287
12842SOL    HW150250   9.697   3.319  10.716 -0.3584 -0.7924  0.2018
12842SOL    HW250251   9.626   3.248  10.829  0.0762  0.3984  1.2403
12843SOL     OW50252   9.675   0.117  10.148 -1.1915  0.5221 -0.1449
12843SOL    HW150253   9.613   0.094  10.217 -2.0922  0.0828 -1.0634
12843SOL    HW250254   9.761   0.111  10.189 -1.5986 -1.3675  0.5175
12844SOL     OW50255  11.223   8.616   9.164 -0.4052 -0.2654  0.9508
12844SOL    HW150256  11.213   8.634   9.071 -2.2151  3.0608  1.6337
12844SOL    HW250257  11.307   8.654   9.188  0.0003 -1.0059  0.7136
12845SOL     OW50258   8.580   1.369   2.343  0.5734 -0.0628  0.6792
12845SOL    HW150259   8.591   1.336   2.254 -0.5644  1.0400  0.0980
12845SOL    HW250260   8.602   1.462   2.337  0.6240 -0.0047  1.5848
12846SOL     OW50261   6.654   0.460   5.819 -0.7658 -0.2234  0.3695
12846SOL    HW150262   6.592   0.478   5.748 -0.3138 -0.4849 -0.0958
12846SOL    HW250263   6.600   0.462   5.898 -1.7354 -2.2701 -0.1838
12847SOL     OW50264  10.925   5.922   9.727 -0.1441  0.2324 -0.1423
12847SOL    HW150265  10.852   5.899   9.669 -0.0861  1.6952 -0.8520
12847SOL    HW250266  11.003   5.907   9.675 -0.1293  2.6716 -0.9645
12848SOL     OW50267  11.394   0.153   3.769  0.9135  0.2467 -0.4401
12848SOL    HW150268  11.334   0.201   3.712  0.6716  0.9766  0.4136
12848SOL    HW250269  11.441   0.221   3.817  0.6019 -0.3616  0.7557
12849SOL     OW50270   0.325   4.254   5.022 -0.0346  0.0105 -0.4001
12849SOL    HW150271   0.415   4.285   5.026 -0.5412  1.7273 -1.2169
12849SOL    HW250272   0.273   4.327   5.054 -1.1642 -0.8477 -0.2081
12850SOL     OW50273   6.502   6.402   7.940  0.1112 -1.3579 -0.2393
12850SOL    HW150274   6.442   6.330   7.956 -2.3262  0.7604  0.9258
12850SOL    HW250275   6.525   6.434   8.027 -0.3968  0.4008 -0.7089
12851SOL     OW50276   3.723   8.698   8.129  0.0686  0.2817  0.5513
12851SOL    HW150277   3.691   8.771   8.075  2.0351  0.3616 -0.6102
12851SOL    HW250278   3.811   8.725   8.155  0.8838 -1.7000  0.0095
12852SOL     OW50279   1.371   0.212   5.067 -0.0013  0.3782  0.3470
12852SOL    HW150280   1.384   0.136   5.010  0.8136  1.4108 -0.8880
12852SOL    HW250281   1.439   0.273   5.042 -0.6090  1.5165  1.3577
12853SOL     OW50282   4.130   4.820   0.646  0.2818 -0.1516  0.4461
12853SOL    HW150283   4.163   4.840   0.734  1.3634 -1.4608  0.3744
12853SOL    HW250284   4.105   4.728   0.651 -0.0770 -0.1080 -0.4975
12854SOL     OW50285   5.538   8.632   4.546  0.5719 -0.2035 -0.1299
12854SOL    HW150286   5.454   8.636   4.500  0.5923  0.6443 -0.1135
12854SOL    HW250287   5.515   8.614   4.637  0.4838 -1.1161 -0.3241
12855SOL     OW50288   3.374   5.641   1.215  0.3561  0.4978  0.4039
12855SOL    HW150289   3.389   5.727   1.177 -0.1296  0.5679  0.3728
12855SOL    HW250290   3.347   5.586   1.142 -0.7584  0.6778  0.6739
12856SOL     OW50291   1.881   4.002  10.705 -0.1779  0.0562 -0.4319
12856SOL    HW150292   1.915   3.935  10.764 -0.3015  1.8717  1.8439
12856SOL    HW250293   1.939   4.078  10.719 -0.5745  0.7549 -2.2500
12857SOL     OW50294   3.690   1.649   1.361 -0.5687  0.0268 -0.2162
12857SOL    HW150295   3.700   1.712   1.432  0.0671 -0.5979  0.2529
12857SOL    HW250296   3.625   1.689   1.303 -0.0996  1.1583  0.0215
12858SOL     OW50297   3.137   9.025   4.477  0.0832 -0.4221  0.0573
12858SOL    HW150298   3.114   9.090   4.410 -1.3356  0.7315  1.5945
12858SOL    HW250299   3.091   8.946   4.449 -1.3223  0.3294  0.1593
12859SOL     OW50300   7.823   1.143   8.207  0.0752  0.3667  0.3973
12859SOL    HW150301   7.845   1.236   8.216  1.1440  0.0485  1.2793
12859SOL    HW250302   7.816   1.130   8.113 -0.4865  1.4263  0.2723
12860SOL     OW50303  10.859   4.367   4.700 -0.3487 -0.3502  0.2948
12860SOL    HW150304  10.800   4.407   4.637  2.1357  0.3107 -1.8293
12860SOL    HW250305  10.910   4.304   4.648  1.1052 -0.5625  1.8774
12861SOL     OW50306   7.592   4.309   6.742  0.4342 -0.6556 -0.1791
12861SOL    HW150307   7.541   4.240   6.784 -0.1727  0.6229  1.3083
12861SOL    HW250308   7.559   4.390   6.781  2.0058  0.3893 -0.9085
12862SOL     OW50309   6.230   3.776   2.143 -0.1448  0.2633  0.6884
12862SOL    HW150310   6.191   3.863   2.151 -1.8985 -0.5500  1.3680
12862SOL    HW250311   6.161   3.721   2.105  1.7925 -0.3041 -2.3716
12863SOL     OW50312   8.157   1.141  11.578 -0.1202 -0.2468  0.2648
12863SOL    HW150313   8.117   1.086  11.645 -3.3144 -0.1155 -1.3158
12863SOL    HW250314   8.170   1.083  11.503 -2.7966  0.7587 -1.1486
12864SOL     OW50315   3.539   8.015  11.185  0.3936 -0.0956  0.3472
12864SOL    HW150316   3.628   8.051  11.183  0.8065 -1.0723  0.6882
12864SOL    HW250317   3.541   7.943  11.122  0.1548 -0.7905  1.1146
12865SOL     OW50318   2.832   8.970   4.157 -0.0608  0.2611  0.0931
12865SOL    HW150319   2.777   8.947   4.232 -2.1170  1.4565 -0.9272
12865SOL    HW250320   2.888   9.041   4.189  0.1469 -0.2451  0.8768
12866SOL     OW50321   9.928   9.169   5.950 -0.0754  0.3744  0.1866
12866SOL    HW150322   9.896   9.086   5.986  0.6536 -0.3577 -0.8015
12866SOL    HW250323   9.924   9.157   5.855 -1.4953  2.0769 -0.0237
12867SOL     OW50324   7.951   0.382  10.515 -0.3624  0.2974 -0.4906
12867SOL    HW150325   8.044   0.406  10.512  0.4157 -2.4549 -0.4577
12867SOL    HW250326   7.931   0.354  10.426 -1.0815  0.4674 -0.3897
12868SOL     OW50327   9.110   1.149   6.954  0.1617 -0.0885 -0.3742
12868SOL    HW150328   9.037   1.201   6.921  1.2354  1.2429 -0.7599
12868SOL    HW250329   9.172   1.145   6.880  2.8421  3.3562  1.3359
12869SOL     OW50330   2.043   5.489   9.407 -0.0288 -0.0915  0.3078
12869SOL    HW150331   2.120   5.543   9.392 -0.1074 -0.0256  0.1326
12869SOL    HW250332   2.016   5.509   9.497  2.0444 -2.5123  1.5601
12870SOL     OW50333   9.081   6.144   7.128  0.1365  0.3386 -0.3740
12870SOL    HW150334   9.099   6.175   7.217  1.2191 -0.5640 -0.2564
12870SOL    HW250335   9.013   6.078   7.138  0.8853 -0.4002 -0.1006
12871SOL     OW50336   1.638   7.624  10.216  0.5155 -0.3363  0.5725
12871SOL    HW150337   1.628   7.679  10.138  0.7580 -1.1602 -0.0601
12871SOL    HW250338   1.573   7.554  10.203 -0.2154  0.1220  1.6603
12872SOL     OW50339   7.160   2.491   3.283 -0.4777 -0.0309 -0.0728
12872SOL    HW150340   7.242   2.516   3.239 -0.7234 -0.2985 -0.6978
12872SOL    HW250341   7.092   2.507   3.217 -0.7690 -1.1700 -0.0643
12873SOL     OW50342   4.192   4.558   3.662  0.1537  0.7873 -0.7164
12873SOL    HW150343   4.165   4.630   3.606 -1.6498 -0.2841 -1.2831
12873SOL    HW250344   4.154   4.578   3.747  0.0387  0.7187 -0.7525
12874SOL     OW50345  11.918  10.391   8.027  0.0842 -0.2838 -0.1440
12874SOL    HW150346  11.941  10.313   8.076 -0.8083 -0.6515 -0.2912
12874SOL    HW250347  11.832  10.372   7.989  0.4532  0.2442 -1.3074
12875SOL     OW50348  10.555   8.866   7.575 -0.1556  0.2358 -0.0109
12875SOL    HW150349  10.473   8.842   7.619 -0.1873 -0.1475 -0.2789
12875SOL    HW250350  10.540   8.843   7.483  0.3959 -0.2063  0.0069
12876SOL     OW50351  10.668   6.899  11.823  0.1616  0.4909 -0.1433
12876SOL    HW150352  10.623   6.876  11.904  0.5828 -1.7105 -0.4610
12876SOL    HW250353  10.744   6.950  11.851 -2.0727  3.8344  0.4378
12877SOL     OW50354   1.578   9.652   7.195  0.0009 -0.1566 -0.7489
12877SOL    HW150355   1.486   9.634   7.177 -0.7542  0.2952  2.2003
12877SOL    HW250356   1.616   9.565   7.213 -0.0733 -0.2374 -0.9763
12878SOL     OW50357   6.996  11.418  10.166  0.2179  0.3797  0.4314
12878SOL    HW150358   6.917  11.382  10.206  0.4937 -0.5550  0.1670
12878SOL    HW250359   6.972  11.507  10.141 -0.6029  0.2626  0.7778
12879SOL     OW50360   0.093  10.603   7.951 -0.2013 -0.1678  0.1199
12879SOL    HW150361   0.052  10.522   7.980  1.0201 -0.4531  1.0981
12879SOL    HW250362   0.116  10.649   8.031 -0.4924  0.9729 -0.4197
12880SOL     OW50363  11.949  11.128   4.062  0.1774  0.4089 -0.2406
12880SOL    HW150364  11.902  11.050   4.093 -0.2047 -0.0462 -1.8275
12880SOL    HW250365  12.002  11.156   4.136  0.8486 -1.7764  0.1827
12881SOL     OW50366   0.017   0.708   8.360  0.6799 -0.0772  0.1071
12881SOL    HW150367  -0.046   0.725   8.429  0.0224 -1.3033 -0.1631
12881SOL    HW250368  -0.036   0.697   8.281  1.1682 -1.7183 -0.0168
12882SOL     OW50369   9.223  11.947   7.479  0.2023 -0.0099 -0.1508
12882SOL    HW150370   9.177  11.920   7.400 -1.2130  0.7961  0.3569
12882SOL    HW250371   9.235  11.865   7.528 -1.1792 -0.1988 -0.0681
12883SOL     OW50372   7.186   0.612   0.171 -0.4005  0.5362 -0.4904
12883SOL    HW150373   7.100   0.612   0.212 -1.6001 -1.3080 -2.7429
12883SOL    HW250374   7.188   0.693   0.119 -0.8621  0.4724 -0.6066
12884SOL     OW50375  11.624   3.932  11.006 -0.1003 -0.6129 -0.2987
12884SOL    HW150376  11.591   4.000  10.948  0.8890 -0.1538 -0.3483
12884SOL    HW250377  11.611   3.967  11.094 -0.6812 -0.8789 -0.2753
12885SOL     OW50378   1.639   8.843   2.034  0.4067 -0.3365  0.3971
12885SOL    HW150379   1.718   8.865   2.084  0.3653 -1.8064  1.1614
12885SOL    HW250380   1.597   8.774   2.085 -2.4517  1.7084  1.0386
12886SOL     OW50381   8.981   7.043   7.290  0.0908  0.1062 -0.6367
12886SOL    HW150382   8.899   7.078   7.255 -0.6907  0.4221  1.3775
12886SOL    HW250383   9.032   7.020   7.212 -1.9359 -0.2062 -1.9599
12887SOL     OW50384   4.660   9.631   8.474  0.5928  0.0153 -0.0338
12887SOL    HW150385   4.729   9.666   8.418 -0.3390  0.1118 -1.1575
12887SOL    HW250386   4.611   9.709   8.502  0.7294 -0.0822  0.4950
12888SOL     OW50387   9.812  11.326   9.863 -0.3303 -0.9419 -0.9194
12888SOL    HW150388   9.811  11.370   9.777  0.5215  0.7913 -0.1008
12888SOL    HW250389   9.720  11.319   9.887 -0.4969  1.2287 -0.7284
12889SOL     OW50390   0.729   7.411   0.368  0.2120  0.2122  0.5067
12889SOL    HW150391   0.727   7.481   0.433 -0.9838  1.3897 -0.7683
12889SOL    HW250392   0.658   7.352   0.394  1.8552 -1.1480  2.1729
12890SOL     OW50393  10.517   4.392   9.808  0.2129 -0.3656 -0.5248
12890SOL    HW150394  10.504   4.362   9.718 -0.5406 -1.2725 -0.1292
12890SOL    HW250395  10.518   4.488   9.801  0.6755 -0.4228 -1.5536
12891SOL     OW50396   6.501   5.171   3.642  1.0985 -0.1418 -0.7351
12891SOL    HW150397   6.464   5.087   3.666 -0.8329  0.3555 -1.7665
12891SOL    HW250398   6.563   5.151   3.572  1.4382 -0.7913 -0.2617
12892SOL     OW50399   6.600   3.513   3.419  0.2715 -0.2225  0.5879
12892SOL    HW150400   6.544   3.532   3.494 -0.7536 -0.9288  0.0443
12892SOL    HW250401   6.675   3.466   3.455 -0.2100 -0.5501  1.1738
12893SOL     OW50402   5.198   3.879   2.746 -0.1323  0.3283  0.3380
12893SOL    HW150403   5.222   3.920   2.829 -1.7876  1.6496  0.2177
12893SOL    HW250404   5.137   3.941   2.706 -1.6354 -1.6183 -0.5293
12894SOL     OW50405   7.090   0.349   4.210  0.0223 -0.1142 -0.2476
12894SOL    HW150406   7.097   0.291   4.286 -0.6438  0.0208 -0.0826
12894SOL    HW250407   7.176   0.391   4.205  0.3513 -0.7514 -0.0768
12895SOL     OW50408   8.585   2.465   6.087  0.5072  0.5469  0.4382
12895SOL    HW150409   8.577   2.370   6.091 -0.9686  0.6384  0.4233
12895SOL    HW250410   8.502   2.498   6.123  0.4425  1.7906 -0.7327
12896SOL     OW50411  11.505   6.149   8.058  0.2833 -0.1285 -0.6143
12896SOL    HW150412  11.494   6.106   7.973  2.1050 -0.0679 -0.9259
12896SOL    HW250413  11.504   6.242   8.037 -2.5312  0.0453 -0.0862
12897SOL     OW50414   5.746   8.501   8.509  0.0562 -0.2109  0.0702
12897SOL    HW150415   5.764   8.456   8.591  1.1893 -0.4875 -0.3074
12897SOL    HW250416   5.816   8.566   8.501 -1.0176  1.0023  0.1461
12898SOL     OW50417   1.440   8.236   6.731 -0.1091  0.2844  0.0261
12898SOL    HW150418   1.487   8.276   6.804  0.3414 -1.0180  0.4749
12898SOL    HW250419   1.508   8.197   6.677 -0.5470 -0.1162 -0.2451
12899SOL     OW50420   2.919   5.008   9.355 -0.2881  0.2646 -0.6475
12899SOL    HW150421   3.007   5.032   9.328 -0.3997 -1.0414 -2.4085
12899SOL    HW250422   2.931   4.929   9.408 -0.3743  0.1256 -0.8315
12900SOL     OW50423   0.603   8.030   6.603  0.3617 -0.0453  0.3517
12900SOL    HW150424   0.643   7.946   6.581 -0.6113 -0.2827 -0.6245
12900SOL    HW250425   0.518   8.007   6.639 -0.3903  0.5227 -0.9813
12901SOL     OW50426   9.824   3.272   1.464  0.6540 -0.2426  0.0161
12901SOL    HW150427   9.879   3.278   1.542 -0.5121 -2.7272  1.1400
12901SOL    HW250428   9.833   3.181   1.435 -1.5511 -0.3019 -0.7068
12902SOL     OW50429   4.986   6.539   3.173 -0.5570 -0.0151 -0.3226
12902SOL    HW150430   4.987   6.453   3.214  0.9250  0.4922  0.7698
12902SOL    HW250431   5.049   6.532   3.101 -0.4679  0.1306 -0.2600
12903SOL     OW50432   7.783   5.037   4.824  0.0169  0.0182 -0.3453
12903SOL    HW150433   7.813   4.949   4.800  0.3155  0.0045  0.0805
12903SOL    HW250434   7.858   5.077   4.868 -0.2207  0.3818 -0.2689
12904SOL     OW50435   7.623   6.316   3.712 -0.3513 -0.4052 -0.0147
12904SOL    HW150436   7.686   6.335   3.782  0.2380  0.8256 -0.8522
12904SOL    HW250437   7.639   6.225   3.690  1.2913 -0.0654 -0.3344
12905SOL     OW50438   2.654  10.812   8.031  0.8771 -0.0271 -0.2754
12905SOL    HW150439   2.707  10.740   8.065  2.2384  0.5001 -1.1936
12905SOL    HW250440   2.644  10.872   8.105  1.2883 -0.2941 -0.0008
12906SOL     OW50441  10.100   4.502  10.715 -0.1549  0.0908  0.0029
12906SOL    HW150442  10.188   4.506  10.677 -1.3032  2.6748 -2.8611
12906SOL    HW250443  10.103   4.561  10.790  1.1272 -1.9077  1.6214
12907SOL     OW50444   9.884   4.246   2.626 -0.1335 -0.1528  0.1120
12907SOL    HW150445   9.929   4.210   2.549  0.5935  2.4390 -0.7911
12907SOL    HW250446   9.792   4.226   2.612  0.2285 -1.7779 -0.1962
12908SOL     OW50447   2.581   1.581   6.235  0.4017  0.4696 -0.3912
12908SOL    HW150448   2.576   1.624   6.321 -1.0245  0.4045 -0.4167
12908SOL    HW250449   2.490   1.575   6.206  0.9027  1.0944 -2.2149
12909SOL     OW50450   8.220  10.457   9.108  0.0388 -0.3489  0.2591
12909SOL    HW150451   8.315  10.448   9.118 -0.0334 -1.1398  0.2758
12909SOL    HW250452   8.200  10.410   9.027 -0.3911 -0.5410  0.4741
12910SOL     OW50453   9.908   8.597   0.662  0.2746 -0.2410  0.5171
12910SOL    HW150454   9.959   8.644   0.595  1.6091 -2.8728 -0.4508
12910SOL    HW250455   9.906   8.507   0.631 -2.7537 -0.7752  1.9421
12911SOL     OW50456   6.589   4.398  10.374 -1.0876  0.4813 -0.2033
12911SOL    HW150457   6.669   4.356  10.406 -1.2527  0.2938 -0.0308
12911SOL    HW250458   6.593   4.486  10.410 -0.6310  0.6867 -0.7495
12912SOL     OW50459   5.126   8.667   9.006 -0.1368 -0.7502  0.1470
12912SOL    HW150460   5.059   8.720   9.048 -1.3400 -1.0232 -1.3354
12912SOL    HW250461   5.201   8.726   8.995 -0.7527  0.0619  0.2854
12913SOL     OW50462   7.480   4.448   7.293 -0.8498 -0.6308 -0.4008
12913SOL    HW150463   7.453   4.479   7.379  1.7986 -0.3383  0.4286
12913SOL    HW250464   7.497   4.527   7.243 -1.7073 -0.8029 -0.9860
12914SOL     OW50465  10.873   7.846   8.271 -0.2322 -0.0427 -0.2079
12914SOL    HW150466  10.795   7.845   8.327  0.7757  0.5729  1.2847
12914SOL    HW250467  10.909   7.934   8.283  1.6180 -0.8610  0.5174
12915SOL     OW50468  11.243  10.869   7.170  0.3496  0.1745 -0.4646
12915SOL    HW150469  11.197  10.941   7.127  1.0316  1.7398  1.2965
12915SOL    HW250470  11.174  10.819   7.214 -0.1941 -0.6513 -2.1718
12916SOL     OW50471   3.651   2.937   3.729  0.2629  0.1088  0.1747
12916SOL    HW150472   3.634   2.978   3.814  0.4533  2.1642 -0.7306
12916SOL    HW250473   3.584   2.869   3.722  0.0896  0.0589  1.8401
12917SOL     OW50474   8.551  10.048  10.738 -0.5782 -0.1699  0.2175
12917SOL    HW150475   8.597   9.980  10.689  0.2683  0.1583  0.5243
12917SOL    HW250476   8.458  10.032  10.721 -0.3317 -0.5234 -0.8578
12918SOL     OW50477   8.492   1.966   9.381 -0.3300 -0.6185  0.0544
12918SOL    HW150478   8.455   2.049   9.352 -2.2646 -1.4807 -0.0574
12918SOL    HW250479   8.555   1.942   9.313 -0.3662  0.3482 -0.3234
12919SOL     OW50480   7.522   9.242  10.385  0.4524 -0.1097  0.7575
12919SOL    HW150481   7.449   9.188  10.416  0.0030  0.2984  0.4222
12919SOL    HW250482   7.598   9.211  10.435  0.2426 -1.1795  0.4316
12920SOL     OW50483   6.862   6.940   2.301 -0.1198  0.2792  0.3210
12920SOL    HW150484   6.902   6.909   2.220 -0.2879  0.9509 -0.0292
12920SOL    HW250485   6.846   7.033   2.286 -0.4873  0.3336  0.9915
12921SOL     OW50486   3.384   6.204   6.406  0.1385 -0.2088  0.1586
12921SOL    HW150487   3.347   6.194   6.318 -1.6880  0.6754  0.7605
12921SOL    HW250488   3.475   6.228   6.392  0.1040 -0.8984 -1.4631
12922SOL     OW50489   2.709  10.868   1.379 -0.0661 -0.0634  0.4039
12922SOL    HW150490   2.723  10.804   1.309 -0.9861 -0.2075  0.3452
12922SOL    HW250491   2.656  10.936   1.339 -1.5565 -0.6906  1.2432
12923SOL     OW50492   0.908   7.394   4.669  0.1791 -0.3558  0.5836
12923SOL    HW150493   0.816   7.406   4.694  0.3678  0.6617  0.8420
12923SOL    HW250494   0.924   7.300   4.680 -1.8109 -1.2758 -2.8807
12924SOL     OW50495   0.968   8.226   7.572 -0.1474 -0.2809 -0.2204
12924SOL    HW150496   0.933   8.139   7.591 -0.0650 -0.4729 -0.9189
12924SOL    HW250497   0.928   8.283   7.638  0.5967 -1.0150  0.9137
12925SOL     OW50498   1.757   0.296  11.348  0.2263 -0.7467  0.0613
12925SOL    HW150499   1.834   0.351  11.365  1.6644 -2.4223 -0.7276
12925SOL    HW250500   1.756   0.234  11.421 -1.2500  0.1284  0.8267
12926SOL     OW50501   6.518   2.263   8.971  0.3215  0.4851 -0.5124
12926SOL    HW150502   6.528   2.301   9.059 -0.1010  1.8693 -1.0260
12926SOL    HW250503   6.571   2.184   8.973 -0.6806 -0.2137  1.3892
12927SOL     OW50504   8.828   1.381   9.584 -0.7174 -0.1660 -0.1983
12927SOL    HW150505   8.843   1.287   9.569 -1.5162 -0.4500  0.7113
12927SOL    HW250506   8.916   1.419   9.580 -0.5294 -0.6926 -2.1467
12928SOL     OW50507   7.148   6.693   3.964 -0.1111  0.0296 -0.5697
12928SOL    HW150508   7.063   6.732   3.943 -0.8997 -1.3592 -0.1510
12928SOL    HW250509   7.157   6.704   4.059 -0.7754 -1.5358 -0.2949
12929SOL     OW50510   7.094   9.423   5.686  0.2868  0.7897 -0.0875
12929SOL    HW150511   7.029   9.354   5.673  0.5310  0.1684  1.6895
12929SOL    HW250512   7.167   9.398   5.629  0.3053 -0.3595  0.4054
12930SOL     OW50513   0.573   1.873   9.415 -0.4885  0.2690 -0.2969
12930SOL    HW150514   0.493   1.821   9.410 -1.7296  2.0029  0.2657
12930SOL    HW250515   0.544   1.958   9.447  1.6849  0.7914  0.4866
12931SOL     OW50516  11.121   9.656   7.175  0.1614 -0.7258 -0.3094
12931SOL    HW150517  11.135   9.575   7.224 -0.1208 -0.1147  0.8200
12931SOL    HW250518  11.036   9.644   7.133  0.8292 -1.6285 -1.4335
12932SOL     OW50519   8.130   6.009   5.315  0.2074 -0.2489 -0.4055
12932SOL    HW150520   8.156   5.966   5.234  1.8232 -0.5058  0.2040
12932SOL    HW250521   8.189   6.085   5.322  0.7123 -0.7439  0.9558
12933SOL     OW50522   4.402   6.295   8.665  0.0514  0.3073 -0.3763
12933SOL    HW150523   4.490   6.258   8.672 -0.1210  0.1459  1.3574
12933SOL    HW250524   4.416   6.383   8.631  0.7256 -0.2887 -1.7120
12934SOL     OW50525   1.799   7.853   5.855  0.3214  0.3351  0.1521
12934SOL    HW150526   1.778   7.797   5.780 -1.3851  1.2460 -0.0884
12934SOL    HW250527   1.745   7.819   5.926  0.5659  0.6218  0.4777
12935SOL     OW50528   2.018   4.519  10.898 -0.3882 -0.1923  0.5990
12935SOL    HW150529   1.974   4.445  10.941 -2.1865  0.7033  0.3854
12935SOL    HW250530   2.010   4.591  10.960  1.2176 -0.0998  0.7380
12936SOL     OW50531   7.229  10.959   8.752  0.2048 -0.5110  0.3717
12936SOL    HW150532   7.219  11.044   8.794 -0.0165 -0.4335  0.1647
12936SOL    HW250533   7.278  10.906   8.815  0.5237 -0.1642  0.4133
12937SOL     OW50534  10.183   5.550   7.116 -0.6019 -0.5025 -0.6259
12937SOL    HW150535  10.151   5.639   7.101  1.3380  0.4501  0.3999
12937SOL    HW250536  10.256   5.540   7.055  0.9488 -0.3008  1.1018
12938SOL     OW50537   2.635   9.218   3.698 -0.4975  0.4680 -0.1468
12938SOL    HW150538   2.574   9.238   3.769  0.2747 -0.4943  0.8333
12938SOL    HW250539   2.657   9.302   3.659 -1.1381  0.9868  0.5994
12939SOL     OW50540  10.359  11.041   6.753  0.6479 -0.2850 -0.8180
12939SOL    HW150541  10.366  11.093   6.673  0.3135  2.5417  0.8654
12939SOL    HW250542  10.418  11.084   6.815  0.2339 -1.8569  0.7424
12940SOL     OW50543  11.865   0.454  11.339 -0.0100 -0.0752 -1.1165
12940SOL    HW150544  11.808   0.499  11.276 -1.9274  0.1498  0.6702
12940SOL    HW250545  11.806   0.397  11.388  1.2304  0.3625  1.0025
12941SOL     OW50546   0.341   2.321   3.493  0.9298 -0.6824  0.2624
12941SOL    HW150547   0.306   2.297   3.408  1.5686 -0.2257 -0.1390
12941SOL    HW250548   0.432   2.345   3.476  1.2214 -1.1003  1.1573
12942SOL     OW50549   4.873   4.840   5.301 -0.1870 -0.0309  0.7320
12942SOL    HW150550   4.845   4.931   5.299  0.0725  0.0380 -0.0425
12942SOL    HW250551   4.936   4.835   5.373  0.1914  0.5218  0.4418
12943SOL     OW50552   3.650   7.251   4.120 -0.0429 -0.0796  0.6459
12943SOL    HW150553   3.613   7.297   4.195  0.6611 -0.7042  1.3769
12943SOL    HW250554   3.741   7.234   4.143  0.1884 -0.2883 -0.3483
12944SOL     OW50555   1.207   6.323  11.193 -0.3239  0.1317 -0.0579
12944SOL    HW150556   1.239   6.238  11.163 -0.1576 -0.6899  2.2243
12944SOL    HW250557   1.281   6.383  11.178  0.5605 -0.7157  0.7235
12945SOL     OW50558   5.308   3.191   9.212  0.6010  0.4168 -0.6583
12945SOL    HW150559   5.395   3.155   9.229 -0.1674 -0.5055  1.6921
12945SOL    HW250560   5.261   3.118   9.170  0.5582  0.4447 -0.6583
12946SOL     OW50561   0.699   8.675   6.636  0.0393  0.5788 -0.2741
12946SOL    HW150562   0.656   8.760   6.638  0.4909  0.8009  0.4725
12946SOL    HW250563   0.653   8.623   6.702  0.5618  0.6439  0.1447
12947SOL     OW50564  11.747  10.088   8.512 -0.3272  0.5315 -0.4274
12947SOL    HW150565  11.794  10.166   8.481 -0.1601 -0.2523 -2.3318
12947SOL    HW250566  11.814  10.020   8.516 -1.1220 -0.5240 -2.8919
12948SOL     OW50567   8.123   3.674  11.228  0.6249 -0.4240  0.3052
12948SOL    HW150568   8.173   3.592  11.229  0.6733 -0.3946  0.2761
12948SOL    HW250569   8.105   3.692  11.320 -0.1888 -0.9603  0.2637
12949SOL     OW50570   3.953   7.750   9.884  0.6207 -0.1862  0.5734
12949SOL    HW150571   3.944   7.696   9.963  0.8525 -0.4872  0.3950
12949SOL    HW250572   4.046   7.744   9.862  0.3595 -1.0658 -0.3991
12950SOL     OW50573   4.385  10.541  11.118 -0.5754 -0.0541  0.2457
12950SOL    HW150574   4.443  10.550  11.194  0.4329  1.1917 -0.6260
12950SOL    HW250575   4.407  10.616  11.062 -3.2834  0.6932  0.0408
12951SOL     OW50576  11.146   0.616   2.432  0.1069 -0.3995  0.2962
12951SOL    HW150577  11.179   0.561   2.361  1.0500 -0.7237  0.9682
12951SOL    HW250578  11.143   0.704   2.394 -0.8840 -0.8038 -0.6084
12952SOL     OW50579   7.349   5.241   4.204 -0.2502  0.0798  0.5664
12952SOL    HW150580   7.440   5.245   4.234 -0.4239  2.4155  0.9750
12952SOL    HW250581   7.344   5.160   4.154  1.9375 -0.3244  0.8859
12953SOL     OW50582   5.088  10.895  11.250  0.1071 -0.8534 -0.3538
12953SOL    HW150583   5.018  10.850  11.202  0.1597 -0.2659 -1.0118
12953SOL    HW250584   5.162  10.834  11.247  0.0120 -0.9525 -0.7555
12954SOL     OW50585   0.546   4.160   6.485  0.6458  1.0394 -0.1734
12954SOL    HW150586   0.640   4.142   6.490  0.6486  1.1322  0.1443
12954SOL    HW250587   0.524   4.193   6.572 -0.2012 -1.4775  0.6623
12955SOL     OW50588  10.533   3.342  11.703 -0.6641 -0.0264 -0.0384
12955SOL    HW150589  10.555   3.254  11.672  2.8939  0.7832 -0.1809
12955SOL    HW250590  10.568   3.347  11.792 -1.9025  0.8906  0.4313
12956SOL     OW50591   9.268   0.766   7.913  0.0364  0.7727  0.8958
12956SOL    HW150592   9.217   0.837   7.876 -1.2345 -0.3690  0.3511
12956SOL    HW250593   9.258   0.694   7.850 -0.4611 -0.5518  2.3991
12957SOL     OW50594   3.250   9.049   2.460 -0.1882  0.0804  0.3260
12957SOL    HW150595   3.326   9.106   2.472  0.0710 -0.7777  3.9913
12957SOL    HW250596   3.283   8.961   2.480 -1.9111 -0.4306  1.1195
12958SOL     OW50597  11.447   1.015   5.803 -0.0367 -0.5953  0.6429
12958SOL    HW150598  11.410   1.092   5.760  0.3434 -2.0126 -2.4752
12958SOL    HW250599  11.374   0.954   5.810  0.8823 -2.3968 -3.1363
12959SOL     OW50600   5.409   5.328   1.862  0.6204  0.4515 -0.2368
12959SOL    HW150601   5.343   5.286   1.807  0.3487 -0.9758  1.1523
12959SOL    HW250602   5.374   5.416   1.878  0.2516  0.5642 -1.5136
12960SOL     OW50603   1.667   6.253   5.628 -0.2300 -0.0334  0.1443
12960SOL    HW150604   1.653   6.276   5.537 -0.5649  2.8502  0.8369
12960SOL    HW250605   1.757   6.282   5.647 -0.0358 -0.9106  0.6815
12961SOL     OW50606   4.277   4.299   3.787 -0.4427 -0.1622  0.0775
12961SOL    HW150607   4.307   4.367   3.726  0.5652 -0.8142 -0.1829
12961SOL    HW250608   4.182   4.297   3.776 -0.3800  0.4564 -0.6978
12962SOL     OW50609   5.446   8.820   5.490 -0.0044 -0.3641  0.3185
12962SOL    HW150610   5.448   8.915   5.493  0.8077 -0.2984 -1.2982
12962SOL    HW250611   5.519   8.792   5.544  1.4906  0.0458 -1.3986
12963SOL     OW50612   7.954  10.776   3.147 -0.6633 -0.1740 -0.8338
12963SOL    HW150613   8.016  10.703   3.147  1.0145  1.1865  0.2786
12963SOL    HW250614   7.983  10.833   3.076 -0.0635  0.8919  0.2347
12964SOL     OW50615   1.169  11.459   2.680 -0.1802  0.0776  0.2920
12964SOL    HW150616   1.140  11.377   2.639 -1.0404  0.4739  0.0821
12964SOL    HW250617   1.251  11.436   2.724 -0.0674 -0.7414 -0.3079
12965SOL     OW50618   1.339   1.595   2.008 -0.1780  0.0021  0.4441
12965SOL    HW150619   1.345   1.638   2.094  1.0976 -0.1143  0.4315
12965SOL    HW250620   1.337   1.502   2.029 -2.0284 -0.0025  0.4250
12966SOL     OW50621   9.913   5.064   7.979 -0.4889  0.0124 -0.0290
12966SOL    HW150622   9.944   4.983   7.938  0.0817  0.5646 -0.7204
12966SOL    HW250623   9.820   5.047   7.998  0.1506 -1.6169  1.9551
12967SOL     OW50624   8.586   4.194   7.098  0.8427  0.0622 -0.3192
12967SOL    HW150625   8.513   4.144   7.134  0.9291 -0.1658 -0.4644
12967SOL    HW250626   8.650   4.199   7.169  0.4312  0.7770  0.0100
12968SOL     OW50627   5.010   4.588   0.970 -0.0380  0.3495 -0.4510
12968SOL    HW150628   4.981   4.497   0.976  0.9909 -0.3003 -3.5192
12968SOL    HW250629   4.937   4.634   0.929  0.3795  0.3268 -1.2415
12969SOL     OW50630   0.194   4.070   0.884  0.2405 -0.2975 -0.5612
12969SOL    HW150631   0.126   4.130   0.855 -1.0792 -1.5246 -0.1343
12969SOL    HW250632   0.247   4.120   0.946  2.0084  1.8091 -3.5444
12970SOL     OW50633   0.289   5.726  10.584 -0.0418 -0.0274 -0.2884
12970SOL    HW150634   0.259   5.655  10.526 -2.7082  1.2083 -0.5770
12970SOL    HW250635   0.297   5.801  10.526  1.5040  0.2459  0.2478
12971SOL     OW50636   9.989   0.837  11.789  0.4179 -0.1833 -0.3107
12971SOL    HW150637  10.065   0.795  11.829 -0.4873  0.0316  1.7479
12971SOL    HW250638   9.914   0.796  11.832 -0.5936  0.8150 -1.0793
12972SOL     OW50639   2.113   1.361   3.705  0.3224 -0.2109  0.5162
12972SOL    HW150640   2.121   1.266   3.711 -0.1213 -0.4723 -2.1640
12972SOL    HW250641   2.204   1.392   3.699  0.4151 -0.7809 -1.7462
12973SOL     OW50642  10.705   2.143  10.117 -0.6180 -0.4424  0.2794
12973SOL    HW150643  10.705   2.137  10.022 -0.1868 -2.5198  0.3640
12973SOL    HW250644  10.767   2.213  10.137  0.2072 -0.7927 -0.9374
12974SOL     OW50645   4.064   0.209   5.284  0.0761  0.2241  0.2931
12974SOL    HW150646   4.071   0.278   5.351  0.5221 -0.1893  0.6845
12974SOL    HW250647   4.148   0.211   5.239 -0.2662  0.5817 -0.3514
12975SOL     OW50648   4.976   6.615   5.629  0.4262 -1.0302 -0.4030
12975SOL    HW150649   4.892   6.610   5.583  0.8449 -2.2119 -1.0857
12975SOL    HW250650   5.041   6.605   5.560  1.2327  1.5434 -0.1416
12976SOL     OW50651   6.509   2.022   6.523  0.3244  0.3298 -0.2746
12976SOL    HW150652   6.432   2.058   6.568  0.9299  1.9444 -0.4519
12976SOL    HW250653   6.477   1.997   6.437  0.2808  2.5467 -0.9608
12977SOL     OW50654   8.222   4.828   9.749 -0.2803  0.3354 -0.1406
12977SOL    HW150655   8.200   4.912   9.791 -1.2862 -0.6865  1.4681
12977SOL    HW250656   8.306   4.803   9.788 -0.2067  0.3668 -0.2782
12978SOL     OW50657   1.984   2.006   3.586  0.1141  0.2026 -0.5070
12978SOL    HW150658   1.947   1.921   3.609 -0.3949  1.1831  2.6685
12978SOL    HW250659   1.908   2.061   3.568  0.1021  1.1245  1.9907
12979SOL     OW50660   8.644   6.033   7.827  0.6378 -0.0777 -0.0062
12979SOL    HW150661   8.721   5.987   7.860 -0.8112 -0.7853  2.6906
12979SOL    HW250662   8.577   5.965   7.820 -0.7269  1.0738  1.2297
12980SOL     OW50663  10.336   2.054   1.428 -0.2177 -0.3002  0.1857
12980SOL    HW150664  10.409   2.074   1.369 -0.0778 -1.0340  0.1026
12980SOL    HW250665  10.327   1.959   1.424  0.2882 -0.4544  1.9181
12981SOL     OW50666   2.844   9.205  11.313  0.0587 -0.3159  0.1114
12981SOL    HW150667   2.777   9.153  11.358  0.7054 -0.6893  0.6660
12981SOL    HW250668   2.812   9.211  11.223 -1.0582  0.1063  0.5204
12982SOL     OW50669   5.371   2.120  10.354  0.8131  0.1432  0.3259
12982SOL    HW150670   5.354   2.132  10.447 -1.3978  0.4647 -0.0625
12982SOL    HW250671   5.373   2.025  10.342  2.1127  0.0899  0.8330
12983SOL     OW50672   2.345   1.580   8.460 -0.0426  0.1403 -0.1204
12983SOL    HW150673   2.422   1.524   8.475  0.4779  1.7701  5.8684
12983SOL    HW250674   2.272   1.519   8.452  0.8299 -1.7269  3.7188
12984SOL     OW50675  11.147   4.534   7.824  0.0551 -0.0319 -0.2363
12984SOL    HW150676  11.171   4.457   7.875  0.3669 -0.3390 -0.8320
12984SOL    HW250677  11.076   4.574   7.873 -0.9749 -1.4003 -0.5552
12985SOL     OW50678   7.580   2.880   6.656 -0.8546  0.7353  0.0341
12985SOL    HW150679   7.669   2.913   6.643 -1.0159  1.0041 -0.4193
12985SOL    HW250680   7.568   2.881   6.751 -0.8534  2.0035  0.0421
12986SOL     OW50681   3.199   9.057  11.571  0.2060 -0.7473 -0.0301
12986SOL    HW150682   3.192   9.046  11.666 -1.6509 -0.6843 -0.1248
12986SOL    HW250683   3.170   8.973  11.535 -1.2933 -0.0484 -0.5459
12987SOL     OW50684   0.886   6.573   6.175  0.6898 -0.3552 -0.0934
12987SOL    HW150685   0.883   6.651   6.120 -0.1072 -1.0308 -1.0461
12987SOL    HW250686   0.944   6.597   6.248 -1.5149  2.0160  1.0525
12988SOL     OW50687   7.016   5.312   7.630 -0.2637 -0.3866 -0.2266
12988SOL    HW150688   6.994   5.348   7.716  1.3340 -0.4297  0.2356
12988SOL    HW250689   7.112   5.316   7.626 -0.2728 -0.9033 -1.7879
12989SOL     OW50690  11.403   3.649   0.182  0.3804 -0.1619  0.6142
12989SOL    HW150691  11.444   3.575   0.136 -0.3573 -0.2484  0.0880
12989SOL    HW250692  11.454   3.725   0.155  0.3533 -0.3035  0.1632
12990SOL     OW50693   9.783   7.923   7.500  0.6340 -0.2950 -0.3373
12990SOL    HW150694   9.710   7.889   7.552 -0.1206 -0.3302 -1.3936
12990SOL    HW250695   9.763   7.896   7.411  0.7885  1.6118 -0.9854
12991SOL     OW50696  11.254  10.477   7.167  0.0522  0.1131 -0.0958
12991SOL    HW150697  11.161  10.495   7.174 -0.4311 -1.3258 -2.0472
12991SOL    HW250698  11.285  10.536   7.098  0.5159  0.2650  0.2332
12992SOL     OW50699   8.898   4.977   3.142 -0.1032 -0.4014 -0.5088
12992SOL    HW150700   8.884   4.902   3.200  2.8003 -1.1860 -0.6626
12992SOL    HW250701   8.934   5.045   3.199 -0.2246 -0.0495 -0.8480
12993SOL     OW50702   0.608   1.101   4.291 -0.0565 -0.1314 -0.2886
12993SOL    HW150703   0.616   1.073   4.200 -0.5871 -1.3876  0.0294
12993SOL    HW250704   0.630   1.023   4.342 -0.6236  0.3023  0.6465
12994SOL     OW50705   9.765   6.805   1.673 -0.4019 -0.4620 -0.4803
12994SOL    HW150706   9.819   6.827   1.749  1.5685 -0.9020 -1.6934
12994SOL    HW250707   9.765   6.884   1.619  0.3689 -0.9662 -1.2358
12995SOL     OW50708   0.536   1.019   4.018  0.6555 -0.2749 -0.0579
12995SOL    HW150709   0.565   0.931   3.992  2.8364  0.4900 -0.4462
12995SOL    HW250710   0.550   1.073   3.940  0.7453  0.7063  0.6147
12996SOL     OW50711   4.474   9.270  10.696  0.5000 -0.6499 -0.0681
12996SOL    HW150712   4.518   9.337  10.644  1.4690  1.0652  2.6987
12996SOL    HW250713   4.521   9.190  10.676  2.0867  0.3188 -0.4238
12997SOL     OW50714   0.347  11.653   5.232 -0.0714 -0.5107 -0.3653
12997SOL    HW150715   0.389  11.665   5.317  1.3177 -1.4413 -0.8783
12997SOL    HW250716   0.253  11.644   5.252  0.0688  0.6535  0.9096
12998SOL     OW50717  11.337   2.957   3.829  0.3792 -0.1285  0.1071
12998SOL    HW150718  11.270   2.998   3.884 -0.8177 -0.8623 -0.7508
12998SOL    HW250719  11.406   2.931   3.890 -0.2674  0.3525  1.0636
12999SOL     OW50720   6.145   2.284   6.809  0.2546 -0.1818 -0.3157
12999SOL    HW150721   6.060   2.307   6.771 -1.2339 -0.4926  2.5439
12999SOL    HW250722   6.151   2.336   6.889  2.2638 -1.0029  0.1343
13000SOL     OW50723   2.974   1.387   5.603 -0.0646  0.5103  0.3393
13000SOL    HW150724   2.953   1.302   5.563  0.3053 -0.0982  1.4185
13000SOL    HW250725   2.891   1.418   5.638 -0.6575  1.5870 -1.7923
13001SOL     OW50726   0.396   1.726  11.785  0.5210  0.0821 -0.2050
13001SOL    HW150727   0.430   1.727  11.875  1.1826 -1.8821 -0.3903
13001SOL    HW250728   0.334   1.799  11.782  1.6291  1.1546  1.3834
13002SOL     OW50729   6.504   9.503   2.273 -0.4182 -0.1388  0.5610
13002SOL    HW150730   6.527   9.479   2.184  0.5295 -2.3776  1.3268
13002SOL    HW250731   6.432   9.565   2.264 -0.3705 -0.3534 -1.7382
13003SOL     OW50732   0.423   2.775   3.762 -0.3892 -0.1725  0.2917
13003SOL    HW150733   0.356   2.712   3.736  0.3931 -0.6804 -0.5641
13003SOL    HW250734   0.454   2.813   3.680  1.4794 -1.1254  0.4890
13004SOL     OW50735   6.956   7.848   8.883  0.7725  0.0574  0.2036
13004SOL    HW150736   6.989   7.806   8.804  0.7677 -0.4973  0.4920
13004SOL    HW250737   7.012   7.814   8.953  0.7306  0.4889  0.4484
13005SOL     OW50738   1.926   5.528   5.555 -0.6164  0.1932  0.3591
13005SOL    HW150739   1.992   5.489   5.498  0.6306  1.4557  0.8881
13005SOL    HW250740   1.932   5.478   5.636  0.4308  0.9422  0.7623
13006SOL     OW50741   7.508   9.597   3.808 -0.1066 -0.0318 -0.0082
13006SOL    HW150742   7.469   9.638   3.885  0.6305  3.0252 -1.1404
13006SOL    HW250743   7.598   9.579   3.834 -0.0657  0.3004  0.0842
13007SOL     OW50744   5.066   0.578   4.363  0.0526  0.3258 -0.2171
13007SOL    HW150745   5.007   0.652   4.378  0.4539  0.5702  0.1808
13007SOL    HW250746   5.151   0.619   4.345  0.2935 -0.0450  0.0899
13008SOL     OW50747   0.680  11.739   4.669 -0.5910 -0.0529  0.3245
13008SOL    HW150748   0.641  11.826   4.677 -1.8077 -0.5780  0.3274
13008SOL    HW250749   0.613  11.687   4.623  0.3369 -0.8496 -0.1620
13009SOL     OW50750  10.543  11.627   9.188 -0.2284 -0.4762  0.0636
13009SOL    HW150751  10.454  11.597   9.204 -0.9414  1.8783  0.9190
13009SOL    HW250752  10.583  11.557   9.137 -2.5235 -1.6453 -0.2588
13010SOL     OW50753   4.433   4.350   3.214  0.2107 -0.2526  0.1809
13010SOL    HW150754   4.380   4.271   3.215 -2.1968  1.2395 -0.2280
13010SOL    HW250755   4.429   4.381   3.124 -0.4183  1.2178  0.6682
13011SOL     OW50756   3.373   8.402   3.460  0.1613 -0.1414 -0.4479
13011SOL    HW150757   3.463   8.405   3.425  0.2635 -0.3308 -0.2065
13011SOL    HW250758   3.338   8.319   3.428 -0.3789  0.5117 -1.6176
13012SOL     OW50759   1.529   9.818   9.451 -0.2016 -0.1941 -0.5429
13012SOL    HW150760   1.553   9.867   9.529 -0.4791 -1.6243  0.4805
13012SOL    HW250761   1.604   9.826   9.393 -1.3468  4.0302 -1.8404
13013SOL     OW50762   0.856   2.109   1.497  0.5735  0.5821 -0.3510
13013SOL    HW150763   0.937   2.059   1.509  1.2432  1.7707  0.2073
13013SOL    HW250764   0.835   2.142   1.585 -0.1425  0.8675 -0.6180
13014SOL     OW50765   2.428   9.685   8.531 -0.4919 -0.8576 -0.3060
13014SOL    HW150766   2.414   9.780   8.523 -0.9050 -0.6922  1.7019
13014SOL    HW250767   2.470   9.675   8.617 -0.6398 -2.5163 -0.3944
13015SOL     OW50768   4.617   5.171   6.948  0.0309 -0.1034  0.2106
13015SOL    HW150769   4.649   5.198   6.862 -0.6671 -0.2801 -0.1057
13015SOL    HW250770   4.531   5.133   6.932 -0.8737  1.4363  1.1977
13016SOL     OW50771   0.779   2.017  10.320  0.3859 -0.0780 -0.1357
13016SOL    HW150772   0.740   1.932  10.338  1.5247 -1.0454 -1.9904
13016SOL    HW250773   0.708   2.067  10.278  0.2329 -0.7153 -0.6364
13017SOL     OW50774  10.287   0.770   5.245  0.0572 -0.1033 -0.0898
13017SOL    HW150775  10.267   0.864   5.239  0.9785  0.0659 -0.7464
13017SOL    HW250776  10.229   0.729   5.181 -1.1967 -0.1512  1.0218
13018SOL     OW50777   2.201   5.842   2.878 -0.1784 -0.0651  1.0654
13018SOL    HW150778   2.180   5.909   2.813  0.0752  0.4187  1.4755
13018SOL    HW250779   2.169   5.878   2.961  1.3864  0.2782  1.5527
13019SOL     OW50780  10.480   9.240   9.186 -0.4154 -0.7561  0.1251
13019SOL    HW150781  10.533   9.209   9.112  0.8531 -1.8542  1.4403
13019SOL    HW250782  10.467   9.162   9.240 -4.2771 -0.7995 -0.5754
13020SOL     OW50783   2.246   0.404   1.118  0.0482  0.0022 -0.0514
13020SOL    HW150784   2.166   0.406   1.171 -0.2134 -1.9143 -0.3162
13020SOL    HW250785   2.317   0.408   1.182 -0.2722 -1.5101  0.4380
13021SOL     OW50786   9.021   4.208   5.464 -0.1780 -0.3141  0.0699
13021SOL    HW150787   9.029   4.266   5.388  2.1910 -0.3612  0.2143
13021SOL    HW250788   8.958   4.141   5.436 -1.4340  1.1499 -0.8159
13022SOL     OW50789   9.379   6.017   8.607  0.3037  0.7568 -0.2263
13022SOL    HW150790   9.302   5.961   8.610  0.6266  0.3332  0.9855
13022SOL    HW250791   9.383   6.057   8.694  1.2826  1.0039 -0.3708
13023SOL     OW50792   7.711   9.207   8.570 -0.2782  0.1484  0.7490
13023SOL    HW150793   7.619   9.186   8.582 -0.1794 -0.5560  0.3868
13023SOL    HW250794   7.748   9.208   8.658 -0.5830  0.1583  0.8753
13024SOL     OW50795   5.908   9.652   8.938 -0.0167 -0.3925  0.2803
13024SOL    HW150796   5.847   9.726   8.944  1.8056  1.1976  0.2844
13024SOL    HW250797   5.858   9.583   8.895 -1.2832  1.4681 -1.4265
13025SOL     OW50798   1.861   1.856   3.872 -0.1700 -0.3017  0.1413
13025SOL    HW150799   1.824   1.934   3.830  2.2733  0.4562 -0.7613
13025SOL    HW250800   1.798   1.786   3.854 -1.9004  1.2266  0.0754
13026SOL     OW50801   3.314   3.619   5.135  0.4826  0.0950 -0.1885
13026SOL    HW150802   3.229   3.653   5.164  1.1770  1.6836  0.1381
13026SOL    HW250803   3.318   3.530   5.170 -0.0851  0.8093  1.8729
13027SOL     OW50804   0.255   4.645   8.881  0.0953  0.6947  0.2334
13027SOL    HW150805   0.293   4.638   8.969  0.0490  2.5271  0.4264
13027SOL    HW250806   0.161   4.630   8.895  0.1470  0.5190  0.4153
13028SOL     OW50807   5.877   0.723   6.063  0.0716 -0.2638 -0.5244
13028SOL    HW150808   5.828   0.641   6.055  0.4457 -0.5259 -0.1959
13028SOL    HW250809   5.907   0.724   6.154 -1.1637  0.9527 -0.0854
13029SOL     OW50810   5.251   3.911   9.500 -0.4432  0.3355  0.1096
13029SOL    HW150811   5.210   3.996   9.488  0.7014  0.8724 -0.0552
13029SOL    HW250812   5.237   3.865   9.417 -0.5558  0.5805 -0.0057
13030SOL     OW50813   9.697   4.656   1.769 -0.5540 -0.8268  0.2469
13030SOL    HW150814   9.608   4.644   1.802 -1.2619  1.2865 -0.6894
13030SOL    HW250815   9.722   4.570   1.736 -1.9146 -1.6653  1.2804
13031SOL     OW50816   2.958  10.390   6.363 -0.1760 -0.2131 -0.3999
13031SOL    HW150817   2.885  10.345   6.321 -1.4938  1.3770  0.1041
13031SOL    HW250818   2.940  10.483   6.350 -0.0535  0.3345  2.6889
13032SOL     OW50819   9.684   4.004  10.736 -0.4116 -0.1179  0.5283
13032SOL    HW150820   9.751   4.031  10.799 -0.3633  0.8759  0.0651
13032SOL    HW250821   9.718   4.033  10.651 -1.0157 -0.4068  0.1845
13033SOL     OW50822   0.181   3.362   9.024 -0.1650  0.3639  0.0783
13033SOL    HW150823   0.176   3.436   8.964 -0.7983 -0.3461 -0.7868
13033SOL    HW250824   0.117   3.299   8.989 -0.3910 -0.1592  1.3813
13034SOL     OW50825   9.821  10.567   4.222 -0.1498 -0.2378  0.2803
13034SOL    HW150826   9.807  10.473   4.216  0.2339 -0.1949 -1.5165
13034SOL    HW250827   9.839  10.582   4.315 -0.5955 -1.8664  0.6634
13035SOL     OW50828   2.797   3.254   6.169  0.3410 -0.2088 -0.1676
13035SOL    HW150829   2.821   3.294   6.253  0.2662 -0.3207 -0.0936
13035SOL    HW250830   2.869   3.277   6.110  0.5306 -0.3723  0.0020
13036SOL     OW50831   3.631   1.168  11.767 -0.1685  0.1821 -0.2779
13036SOL    HW150832   3.574   1.203  11.698 -1.2432 -1.6585 -0.3743
13036SOL    HW250833   3.720   1.193  11.740 -0.6025 -0.1435 -2.1231
13037SOL     OW50834  10.250   1.018   2.429 -0.3907 -0.1317 -0.1596
13037SOL    HW150835  10.225   0.981   2.345  1.1525 -1.1599 -0.2029
13037SOL    HW250836  10.261   1.112   2.412 -0.4831 -0.2697 -1.0095
13038SOL     OW50837   4.741   0.775   1.086  0.5461  0.0461 -0.3831
13038SOL    HW150838   4.680   0.751   1.016 -0.0154 -0.4674  0.2568
13038SOL    HW250839   4.686   0.818   1.152  1.0836  0.6148 -0.2990
13039SOL     OW50840   7.056   2.436   4.727 -0.2753 -0.1706  0.5404
13039SOL    HW150841   7.005   2.511   4.698 -0.5124 -1.5358 -2.9594
13039SOL    HW250842   7.000   2.392   4.792 -1.1932  1.2314  0.7401
13040SOL     OW50843   1.324   5.371   8.951 -0.4016  0.3254 -0.3868
13040SOL    HW150844   1.325   5.448   8.895 -1.7040  0.1649 -0.6708
13040SOL    HW250845   1.289   5.403   9.035  0.0069  0.2374 -0.1783
13041SOL     OW50846  10.848   6.353   0.801 -0.0123  0.6640  0.6558
13041SOL    HW150847  10.932   6.386   0.769  0.5931  0.0489  1.5495
13041SOL    HW250848  10.783   6.415   0.767  0.8585  1.4677  0.4115
13042SOL     OW50849   7.096  10.922   6.545  0.0258  0.3425 -0.0038
13042SOL    HW150850   7.060  11.009   6.561  0.2844  0.1287  1.9291
13042SOL    HW250851   7.029  10.861   6.576  0.8321 -0.0979  0.9284
13043SOL     OW50852   1.656   1.612   5.603 -0.1565  0.1640 -0.2255
13043SOL    HW150853   1.564   1.587   5.611 -0.0187 -0.3047 -0.0814
13043SOL    HW250854   1.703   1.545   5.652  0.4723 -0.9950 -2.3221
13044SOL     OW50855  10.112   3.929   5.140 -0.1438  0.1236 -0.0102
13044SOL    HW150856  10.127   3.981   5.062  1.0728  0.9651  0.7493
13044SOL    HW250857  10.187   3.946   5.196 -0.7136 -0.8730  1.1318
13045SOL     OW50858   0.438   7.165  11.255  0.0598  0.2249 -0.1326
13045SOL    HW150859   0.410   7.074  11.264 -3.7194  1.2060  0.1938
13045SOL    HW250860   0.495   7.181  11.330  0.0502 -1.6260  0.3044
13046SOL     OW50861   4.600   0.539   9.042  0.1025  0.0523  0.1031
13046SOL    HW150862   4.514   0.572   9.069  0.0636 -0.5242  0.7170
13046SOL    HW250863   4.596   0.537   8.946 -0.2696  0.8014  0.0953
13047SOL     OW50864   5.917   1.504   3.885 -0.1396 -0.2589  0.1766
13047SOL    HW150865   5.897   1.485   3.977 -1.0262 -1.6331 -0.2745
13047SOL    HW250866   5.836   1.485   3.838 -0.1275  1.7451 -0.7524
13048SOL     OW50867   7.135   3.683   0.150  0.4231 -0.1781  0.1721
13048SOL    HW150868   7.040   3.679   0.161  0.1040 -0.4343 -2.1270
13048SOL    HW250869   7.158   3.772   0.178 -0.0945 -0.8087  2.8841
13049SOL     OW50870   1.144   8.020   8.324 -0.1782  0.1109  0.1512
13049SOL    HW150871   1.115   8.095   8.271  0.6842 -0.2449 -0.8677
13049SOL    HW250872   1.080   7.951   8.305 -1.1626  0.6645  1.3464
13050SOL     OW50873   4.766  10.493   6.098  0.2161 -0.5248 -0.0573
13050SOL    HW150874   4.791  10.407   6.132  1.0700 -0.8801 -1.4982
13050SOL    HW250875   4.689  10.476   6.044 -0.1894 -0.2176  0.4167
13051SOL     OW50876   4.626   8.189   0.690 -0.0708 -0.1273 -0.6891
13051SOL    HW150877   4.597   8.276   0.663  2.3842  0.6482 -1.0886
13051SOL    HW250878   4.588   8.130   0.624 -0.7377  0.7843 -1.1442
13052SOL     OW50879   5.039   3.959   4.105  0.8038 -0.1903  0.4058
13052SOL    HW150880   5.022   3.879   4.156 -0.3080  0.6130  1.3404
13052SOL    HW250881   4.981   4.025   4.144 -0.5108  0.3371 -2.2497
13053SOL     OW50882   1.463   9.631   3.297  0.6286 -0.2706 -0.1284
13053SOL    HW150883   1.436   9.643   3.388  0.6307 -1.4065  0.0344
13053SOL    HW250884   1.413   9.696   3.248 -0.1186 -0.3197  0.5553
13054SOL     OW50885   6.629   9.127   5.573 -0.4260  0.7359 -0.0244
13054SOL    HW150886   6.592   9.212   5.594 -1.7563 -0.0340  0.8861
13054SOL    HW250887   6.553   9.070   5.556  0.1870 -1.1175  2.7762
13055SOL     OW50888  10.625   1.050  10.342  0.0023  0.6505  0.3868
13055SOL    HW150889  10.628   1.133  10.390 -2.1192  1.3209 -0.5343
13055SOL    HW250890  10.693   1.059  10.275  0.6862  1.0894  1.1206
13056SOL     OW50891   6.447   8.956   1.893 -0.1734  0.2286  0.0697
13056SOL    HW150892   6.461   8.987   1.804 -0.7858  0.4943  0.0649
13056SOL    HW250893   6.528   8.978   1.939  0.2622 -0.1704 -0.4867
13057SOL     OW50894   7.213   0.310   7.467  0.4145 -0.5040 -0.1177
13057SOL    HW150895   7.298   0.293   7.508 -0.0949 -2.4991  0.2240
13057SOL    HW250896   7.224   0.395   7.424  2.9808 -1.2456 -1.1526
13058SOL     OW50897  10.850   4.237  11.631  0.3855 -0.0450  0.0747
13058SOL    HW150898  10.815   4.154  11.664 -2.3350  1.3871  1.0653
13058SOL    HW250899  10.829   4.236  11.537  0.0293 -0.3380  0.1532
13059SOL     OW50900   3.347   6.696   5.245  0.6122 -0.5526  0.2232
13059SOL    HW150901   3.316   6.723   5.331 -0.2147 -1.2905  0.1738
13059SOL    HW250902   3.267   6.684   5.194  1.0156 -1.7984 -0.1332
13060SOL     OW50903   8.397  11.624   9.216 -0.0855 -0.1076  0.2609
13060SOL    HW150904   8.373  11.534   9.192  0.2151  0.4108 -2.3395
13060SOL    HW250905   8.456  11.652   9.146 -0.1274  2.1066  1.0436
13061SOL     OW50906   7.927   4.650   0.019 -0.3801 -0.2026  0.2457
13061SOL    HW150907   8.021   4.666   0.024 -0.7468  2.0584  1.2560
13061SOL    HW250908   7.906   4.600   0.098 -0.0718 -0.5906  0.0867
13062SOL     OW50909   1.971   7.706   3.810  0.0184 -0.0007 -0.0311
13062SOL    HW150910   1.928   7.646   3.871  0.9535  1.4235  2.1662
13062SOL    HW250911   2.007   7.650   3.741  0.2962 -1.8983  1.5805
13063SOL     OW50912   0.903   2.813   1.227  0.0981 -0.7523  0.2823
13063SOL    HW150913   0.878   2.734   1.274  0.9844  0.0747  2.2270
13063SOL    HW250914   0.876   2.885   1.284 -1.8169  0.4882 -1.9581
13064SOL     OW50915   7.651   9.615   1.180 -0.0213  0.9738 -0.0412
13064SOL    HW150916   7.598   9.551   1.134  0.1741  0.8998 -0.1646
13064SOL    HW250917   7.589   9.681   1.211 -0.1050  1.2416 -0.7597
13065SOL     OW50918   3.869  10.517  11.111 -0.0200  0.2402  0.0036
13065SOL    HW150919   3.903  10.427  11.114 -0.3876  0.0663 -0.6915
13065SOL    HW250920   3.839  10.534  11.200 -0.3845 -0.5001  0.0317
13066SOL     OW50921   8.018   9.353   8.476 -0.3850  0.1555 -0.0454
13066SOL    HW150922   8.047   9.433   8.519  2.6318 -1.5048  1.2988
13066SOL    HW250923   7.927   9.342   8.505 -0.2857  2.1017  1.1934
13067SOL     OW50924   5.780   8.249   9.304 -0.2075  0.1212 -0.4266
13067SOL    HW150925   5.704   8.246   9.245  1.1835  1.7292 -2.4619
13067SOL    HW250926   5.824   8.330   9.281  1.8648 -0.5235  1.0450
13068SOL     OW50927   8.933   1.331  11.537  0.1662 -0.3548 -0.6183
13068SOL    HW150928   8.940   1.288  11.451 -0.2581  0.8162 -1.2676
13068SOL    HW250929   9.021   1.324  11.575  0.7991  0.4992 -1.8505
13069SOL     OW50930   3.085   5.269   0.781 -0.2228  0.6549  0.9196
13069SOL    HW150931   3.017   5.326   0.744  0.2410 -0.1045 -1.2152
13069SOL    HW250932   3.049   5.181   0.774  1.5552  0.0159 -1.9317
13070SOL     OW50933   0.069   7.730  11.175  0.0438 -0.1264 -0.7897
13070SOL    HW150934   0.073   7.642  11.213  1.1616  0.0639 -0.4249
13070SOL    HW250935  -0.011   7.768  11.212  0.6877 -0.2256  0.8197
13071SOL     OW50936   4.475   4.774   0.475  0.1778 -0.4738  0.6726
13071SOL    HW150937   4.538   4.843   0.498 -0.7379  0.7847 -0.4790
13071SOL    HW250938   4.525   4.715   0.417  0.2371  0.7139 -0.5393
13072SOL     OW50939   5.584  10.142   7.292 -0.0009 -0.2598 -0.1265
13072SOL    HW150940   5.651  10.149   7.361  1.5468 -0.6915 -1.5283
13072SOL    HW250941   5.517  10.207   7.317 -0.1712 -1.3197  2.4714
13073SOL     OW50942   8.575   2.809   9.264 -0.4094 -0.1293 -0.5194
13073SOL    HW150943   8.663   2.773   9.272 -0.9781 -1.5151 -0.2583
13073SOL    HW250944   8.588   2.903   9.255  1.0087 -0.0065  1.9568
13074SOL     OW50945  10.353   5.319   5.662  0.2845 -0.0699  0.9343
13074SOL    HW150946  10.267   5.293   5.697  0.0555  0.9168  1.1250
13074SOL    HW250947  10.413   5.308   5.736  0.1744  0.0157  1.0376
13075SOL     OW50948   0.176   3.720   9.167  0.8266 -0.1074 -0.3366
13075SOL    HW150949   0.154   3.679   9.083  1.3540 -0.7077 -0.1906
13075SOL    HW250950   0.241   3.661   9.206  0.7234  0.2621  0.4093
13076SOL     OW50951   1.381   3.977   0.074 -0.0507 -0.2115  0.0721
13076SOL    HW150952   1.370   3.999  -0.019  0.2613 -0.6770 -0.0860
13076SOL    HW250953   1.476   3.974   0.086 -0.0875  0.8482  0.6618
13077SOL     OW50954   3.951   1.724   4.657  0.2737 -0.6219 -0.0164
13077SOL    HW150955   3.945   1.629   4.665 -0.2623 -0.5117  1.0843
13077SOL    HW250956   3.873   1.749   4.608 -0.0824 -0.6665  0.5212
13078SOL     OW50957   7.684   2.162   0.470 -0.0431  0.4180 -0.0271
13078SOL    HW150958   7.615   2.165   0.536  0.4798 -1.5197  0.7104
13078SOL    HW250959   7.694   2.068   0.451  1.9774  0.6749 -0.5035
13079SOL     OW50960   8.966   7.376   4.388 -0.2680 -0.2686  0.3712
13079SOL    HW150961   8.930   7.373   4.300  0.9709 -0.5917 -0.1451
13079SOL    HW250962   9.033   7.444   4.385  1.5029 -1.8942  0.3227
13080SOL     OW50963   3.828   7.216   0.024  0.1639 -0.1156  0.2634
13080SOL    HW150964   3.856   7.306   0.005  0.6719 -0.3847 -0.2846
13080SOL    HW250965   3.740   7.226   0.060 -0.7544  0.4814 -1.9405
13081SOL     OW50966   2.607   7.129   5.703  0.3711  0.0619  0.1580
13081SOL    HW150967   2.552   7.059   5.739 -0.0581  0.5344  0.4312
13081SOL    HW250968   2.676   7.140   5.768  0.0203  0.3978  0.4770
13082SOL     OW50969   9.450   5.171   7.083 -0.4538 -0.3698 -0.3914
13082SOL    HW150970   9.456   5.258   7.124 -1.7567 -1.6228  2.8044
13082SOL    HW250971   9.356   5.157   7.073 -0.2297 -1.2330 -1.3382
13083SOL     OW50972   5.611   2.515   0.489  0.0388  0.8404 -0.6262
13083SOL    HW150973   5.632   2.561   0.570  0.8733  0.2972 -0.5269
13083SOL    HW250974   5.520   2.489   0.499  1.2523 -3.4231  2.2812
13084SOL     OW50975   2.426   1.457   1.747  0.2291  0.2191 -0.7088
13084SOL    HW150976   2.455   1.439   1.658 -0.2323  0.0799 -0.8351
13084SOL    HW250977   2.335   1.428   1.749 -0.8539  3.2275 -1.1623
13085SOL     OW50978   8.719  10.962  10.783 -0.4962 -0.1259 -0.4700
13085SOL    HW150979   8.674  10.942  10.700  1.8853  1.8606 -2.4040
13085SOL    HW250980   8.774  10.886  10.800 -1.5835 -0.8823 -0.2457
13086SOL     OW50981   7.070   7.225   6.520 -0.0911  0.1034 -0.1103
13086SOL    HW150982   7.000   7.274   6.562 -0.8304  0.1012 -1.2853
13086SOL    HW250983   7.137   7.291   6.501 -0.5264  0.4344 -0.5279
13087SOL     OW50984   1.857   2.895   8.089 -0.4580 -0.6365  0.6991
13087SOL    HW150985   1.788   2.831   8.076 -1.0683 -0.0767  1.1417
13087SOL    HW250986   1.926   2.869   8.028 -0.9293 -1.3783  0.4768
13088SOL     OW50987   9.739   8.986   1.289 -0.3154 -0.1763  0.2504
13088SOL    HW150988   9.822   9.013   1.329  0.4097  0.7585 -1.7527
13088SOL    HW250989   9.759   8.902   1.248 -0.7916 -0.6567  0.9711
13089SOL     OW50990  11.587   8.034  10.374  0.3461 -0.4125 -0.3190
13089SOL    HW150991  11.634   8.117  10.385 -1.3177  0.6834 -0.9898
13089SOL    HW250992  11.637   7.986  10.308 -0.0926  1.2515 -1.9600
13090SOL     OW50993   8.387   2.947   1.731 -0.3728 -0.2356  0.1052
13090SOL    HW150994   8.457   3.013   1.738  0.9405 -1.3343 -1.8232
13090SOL    HW250995   8.306   2.997   1.745  0.5905  1.7642 -0.9538
13091SOL     OW50996   8.922   2.674   9.589 -0.0871 -0.1776  0.0023
13091SOL    HW150997   8.841   2.653   9.636  0.0554  1.1705  0.9241
13091SOL    HW250998   8.983   2.701   9.658 -0.0556  2.4743 -0.9141
13092SOL     OW50999   8.165   4.541   1.168  0.1859 -0.2132 -0.1216
13092SOL    HW151000   8.252   4.502   1.152  0.2818 -0.3678  0.7176
13092SOL    HW251001   8.109   4.466   1.187  0.0085 -0.0642 -0.0548
13093SOL     OW51002   5.117  11.820   1.641  0.4309 -0.0327 -0.0360
13093SOL    HW151003   5.058  11.779   1.577  0.2945  1.5165 -0.9725
13093SOL    HW251004   5.178  11.751   1.666 -1.3483 -1.4888  0.4357
13094SOL     OW51005   0.730   8.396   5.434 -0.0005  0.5884 -0.0654
13094SOL    HW151006   0.749   8.352   5.517  0.6689  1.0743  0.0513
13094SOL    HW251007   0.656   8.454   5.454  0.7340  1.3809  0.4486
13095SOL     OW51008   4.593   8.602  11.839  0.1838 -0.7247  0.1638
13095SOL    HW151009   4.664   8.538  11.843 -0.7457 -2.0777 -2.6007
13095SOL    HW251010   4.606   8.647  11.755  0.2358  2.1452  1.5651
13096SOL     OW51011  11.020   3.093   7.208 -0.3232 -0.3697 -0.3024
13096SOL    HW151012  11.095   3.151   7.222  1.3254 -2.5276  0.3521
13096SOL    HW251013  11.057   3.018   7.161 -1.9123 -1.8264  0.6962
13097SOL     OW51014   3.798   6.699  11.324 -0.0295  0.3543  0.3578
13097SOL    HW151015   3.773   6.764  11.258  1.4698  0.4120 -0.2018
13097SOL    HW251016   3.855   6.639  11.277  0.5442  0.0165  1.4594
13098SOL     OW51017   0.750   3.693   3.300  0.6680 -0.1256  0.1474
13098SOL    HW151018   0.717   3.695   3.389  2.2426 -0.8149  0.7705
13098SOL    HW251019   0.718   3.610   3.264 -0.5357  0.4586 -0.1870
13099SOL     OW51020   8.903   3.497   7.613 -0.4479 -0.7239  0.1188
13099SOL    HW151021   8.973   3.446   7.572  0.4406  0.9098 -0.4654
13099SOL    HW251022   8.944   3.581   7.634 -2.6849  0.9752 -1.9022
13100SOL     OW51023   1.856   7.787   7.619  0.4930 -0.0170  0.2070
13100SOL    HW151024   1.812   7.797   7.534  0.4743  0.9504  0.3181
13100SOL    HW251025   1.932   7.731   7.600  0.3066 -0.0810 -0.3820
13101SOL     OW51026   9.857   0.377  11.948  0.0326 -0.1724 -0.0906
13101SOL    HW151027   9.785   0.440  11.951 -0.1421 -0.3970  0.8617
13101SOL    HW251028   9.861   0.349  11.856 -2.2786 -1.4748  0.1212
13102SOL     OW51029  11.302   0.993  11.577  0.2312  0.2041  0.2242
13102SOL    HW151030  11.381   0.979  11.628 -0.1570  0.8054  1.0068
13102SOL    HW251031  11.334   1.026  11.493  0.9169 -1.5806 -0.2629
13103SOL     OW51032   4.194   7.667   6.777 -0.1951  0.1603  0.1355
13103SOL    HW151033   4.186   7.589   6.831 -1.2205 -1.6556 -2.4186
13103SOL    HW251034   4.116   7.666   6.721  0.4529  2.2626 -0.9329
13104SOL     OW51035   9.707   6.171  10.021 -0.1461 -0.3644  0.7752
13104SOL    HW151036   9.678   6.099  10.078  1.6103  0.0839  2.3199
13104SOL    HW251037   9.632   6.232  10.020 -0.5585 -0.8267  1.8670
13105SOL     OW51038   6.452   0.193   2.072 -0.0760 -0.1481  0.2419
13105SOL    HW151039   6.498   0.136   2.010  1.9607 -0.2646  1.7660
13105SOL    HW251040   6.515   0.206   2.143 -2.0185  0.6627  1.8856
13106SOL     OW51041  10.170   2.751   4.041  0.0235  0.0263 -0.3683
13106SOL    HW151042  10.178   2.846   4.050  1.8372 -0.0663 -0.6831
13106SOL    HW251043  10.228   2.728   3.969 -0.3394 -1.3376 -0.2636
13107SOL     OW51044   8.876   3.563   3.127 -0.3544 -0.2454 -0.0506
13107SOL    HW151045   8.925   3.483   3.144 -0.2546 -0.2085 -0.1673
13107SOL    HW251046   8.926   3.632   3.172  0.5633  0.0481 -1.4605
13108SOL     OW51047   3.620   4.146   0.690  0.3142 -0.5424  0.1423
13108SOL    HW151048   3.681   4.082   0.655 -0.1982 -0.4093 -1.0197
13108SOL    HW251049   3.618   4.128   0.784 -0.1796 -2.5366 -0.2074
13109SOL     OW51050  10.017   0.311   0.919  0.1917 -0.3367 -0.3805
13109SOL    HW151051  10.024   0.394   0.873 -0.8926  0.5169  0.9090
13109SOL    HW251052  10.102   0.268   0.905  1.6434  1.9695  0.7524
13110SOL     OW51053   4.613   8.153   1.800 -0.0138 -0.4843  0.7836
13110SOL    HW151054   4.694   8.183   1.842  0.1416  0.7317 -0.3289
13110SOL    HW251055   4.609   8.060   1.820  1.0284 -0.3205  1.8816
13111SOL     OW51056   0.986   2.609   6.731  0.2751 -0.4275 -0.0653
13111SOL    HW151057   0.956   2.521   6.707  1.5147 -1.2703  1.3360
13111SOL    HW251058   0.991   2.608   6.826  1.4890  0.7652 -0.0907
13112SOL     OW51059   5.422   9.492   8.606  0.1487 -0.2167 -0.2050
13112SOL    HW151060   5.495   9.549   8.583 -0.8459  1.1844 -0.0545
13112SOL    HW251061   5.390   9.459   8.522  1.7401 -1.9369 -0.1986
13113SOL     OW51062  11.725   8.109   8.867 -0.2963  0.2029 -0.0971
13113SOL    HW151063  11.816   8.082   8.884  0.3522  1.0745 -1.8961
13113SOL    HW251064  11.702   8.161   8.944  0.8760  0.2871  0.2269
13114SOL     OW51065   1.386  10.004   7.668  0.2312  0.5280  0.0467
13114SOL    HW151066   1.378  10.083   7.615 -1.3638 -0.8782 -1.9554
13114SOL    HW251067   1.479   9.981   7.663  0.6035  1.9084  0.1596
13115SOL     OW51068   8.899   5.059   1.475  0.1994 -0.6968 -0.0661
13115SOL    HW151069   8.943   4.989   1.523  0.4330  0.2189  1.1300
13115SOL    HW251070   8.946   5.139   1.500 -0.5536 -0.0073 -0.7556
13116SOL     OW51071   8.575  10.788   6.734  0.1220  0.4478  0.0381
13116SOL    HW151072   8.549  10.701   6.705  1.1347  0.2797 -0.3994
13116SOL    HW251073   8.527  10.801   6.816  0.7915 -0.9591  0.6838
13117SOL     OW51074   9.851   0.693   2.519  0.4522 -0.1459  0.1213
13117SOL    HW151075   9.885   0.768   2.470  0.2930 -0.6996 -0.8520
13117SOL    HW251076   9.882   0.707   2.608  1.2295  0.5829 -0.2488
13118SOL     OW51077   6.244   4.317   9.110  0.1705 -0.1982 -0.3110
13118SOL    HW151078   6.198   4.236   9.091  3.5121 -2.5545  0.7674
13118SOL    HW251079   6.175   4.378   9.137 -2.4728 -2.6702 -1.0144
13119SOL     OW51080   3.817   5.355   6.617 -0.0120 -0.0176 -0.3979
13119SOL    HW151081   3.862   5.350   6.533  1.8905 -1.1876  0.6041
13119SOL    HW251082   3.766   5.274   6.622  0.4718 -0.3130 -0.1367
13120SOL     OW51083   7.782   0.201   0.762 -0.0642  0.1574 -0.3053
13120SOL    HW151084   7.698   0.217   0.717 -0.2580  1.0486  0.3331
13120SOL    HW251085   7.832   0.146   0.701 -2.1355 -2.8161  0.4575
13121SOL     OW51086  10.407   3.141   8.948  0.3590 -0.5905  0.0179
13121SOL    HW151087  10.374   3.200   8.880  1.5193 -0.3547 -0.3525
13121SOL    HW251088  10.501   3.134   8.931  0.5525 -1.0689  1.1831
13122SOL     OW51089   7.464   1.242  11.003 -0.3107  0.1921  0.0656
13122SOL    HW151090   7.477   1.232  10.908 -0.4476 -1.1249  0.1634
13122SOL    HW251091   7.529   1.306  11.029 -0.9061  1.3015 -1.0666
13123SOL     OW51092   6.340   0.738  10.005  0.7242 -0.4065 -0.2364
13123SOL    HW151093   6.304   0.694   9.928  2.4557  0.4416 -1.5862
13123SOL    HW251094   6.278   0.809  10.022  0.7741 -0.0603 -1.4004
13124SOL     OW51095   5.860   1.399   5.508  0.5944 -0.3279  0.4301
13124SOL    HW151096   5.851   1.307   5.484  2.0689 -0.1965 -0.7561
13124SOL    HW251097   5.949   1.422   5.482  1.0522  0.8397  2.8051
13125SOL     OW51098   8.049   0.675  10.291 -0.0124 -0.5492  0.3709
13125SOL    HW151099   8.050   0.630  10.206  0.4941 -1.6577  0.9353
13125SOL    HW251100   8.141   0.689  10.312 -0.1599  0.5602  0.3237
13126SOL     OW51101   0.721   1.022  10.603  0.1501 -0.4239 -0.3467
13126SOL    HW151102   0.742   1.025  10.509 -0.5661  0.1712 -0.4990
13126SOL    HW251103   0.677   1.105  10.620  0.1173 -0.6055  0.4871
13127SOL     OW51104  10.352   3.331   0.696  0.5675 -0.8270  0.1756
13127SOL    HW151105  10.427   3.302   0.646  0.2042  0.3048 -1.0988
13127SOL    HW251106  10.282   3.340   0.632 -0.2973 -0.6281  1.1111
13128SOL     OW51107   1.945   5.103   8.316  0.7229 -0.6115 -0.1880
13128SOL    HW151108   1.860   5.122   8.277  0.2963 -1.7692  0.1441
13128SOL    HW251109   1.941   5.143   8.403  0.9980  0.4074 -0.6320
13129SOL     OW51110   0.332  11.537   7.859 -0.3924  0.0937  0.1343
13129SOL    HW151111   0.335  11.538   7.763  0.8286  0.5182  0.1587
13129SOL    HW251112   0.336  11.630   7.884  1.0639 -0.0698  0.6115
13130SOL     OW51113   1.983   1.939  10.996  0.2083  0.5105  0.6596
13130SOL    HW151114   2.025   2.024  11.007 -1.0660  1.1867  0.4365
13130SOL    HW251115   2.022   1.902  10.917  1.7733  0.2488  1.5038
13131SOL     OW51116   1.864   6.678   3.466 -0.2739  0.0073 -0.0379
13131SOL    HW151117   1.788   6.622   3.478 -2.0131  1.9925 -1.0069
13131SOL    HW251118   1.863   6.700   3.372  1.0320  0.6893  0.0812
13132SOL     OW51119   4.739   6.227   0.936  0.1322 -0.1730  0.2157
13132SOL    HW151120   4.687   6.163   0.985  0.2693  0.0072  0.6015
13132SOL    HW251121   4.819   6.238   0.988  1.2902 -1.6231 -1.1495
13133SOL     OW51122   4.970   7.371   8.437 -0.5255  0.0436  0.1360
13133SOL    HW151123   5.021   7.437   8.389 -0.4487  1.7161  2.3475
13133SOL    HW251124   4.898   7.421   8.476 -1.0021 -1.3689  1.1365
13134SOL     OW51125   9.227   6.088   2.900 -0.3649 -0.1653 -0.5607
13134SOL    HW151126   9.296   6.065   2.837  1.5253  0.5614  1.1174
13134SOL    HW251127   9.236   6.183   2.911 -1.1472 -0.1797  0.2729
13135SOL     OW51128   1.296   2.333   5.874 -0.4628  0.0405  0.0710
13135SOL    HW151129   1.212   2.362   5.837  0.7906 -0.9032 -4.0771
13135SOL    HW251130   1.298   2.239   5.858  0.6941 -0.2636  1.7752
13136SOL     OW51131   5.062  10.383   3.856 -0.3574  0.1279 -0.5582
13136SOL    HW151132   5.018  10.394   3.940 -0.1862 -0.6579 -0.3574
13136SOL    HW251133   5.031  10.299   3.823  0.6911 -0.2545 -0.5997
13137SOL     OW51134  11.012   6.463   6.551  0.6065 -0.4947 -0.2574
13137SOL    HW151135  11.041   6.553   6.535 -1.8009  0.5947  1.0664
13137SOL    HW251136  10.968   6.436   6.471 -1.7308  0.8755  0.4718
13138SOL     OW51137   0.068   4.688   8.608 -0.0579 -0.3004  0.2601
13138SOL    HW151138   0.136   4.621   8.606 -0.2506 -0.4993  0.3183
13138SOL    HW251139   0.047   4.698   8.701 -0.0495 -0.1791  0.2495
13139SOL     OW51140  11.553  10.800   5.327 -0.1122 -0.3032  0.5404
13139SOL    HW151141  11.637  10.782   5.370  1.3073 -1.3330 -2.3966
13139SOL    HW251142  11.571  10.874   5.268 -1.5746  0.1268  0.5827
13140SOL     OW51143   5.672   0.182   1.978 -0.4565 -0.4466  0.4674
13140SOL    HW151144   5.583   0.198   2.010 -0.2459 -0.0331  0.8515
13140SOL    HW251145   5.686   0.089   1.992 -0.6859 -0.4373  0.7728
13141SOL     OW51146   5.485  11.006  11.456  0.2144  0.0974  0.1534
13141SOL    HW151147   5.519  11.007  11.367  0.0029  0.2226  0.0737
13141SOL    HW251148   5.438  11.090  11.465 -2.1447 -1.0666 -0.5390
13142SOL     OW51149   7.044   5.803   8.912  0.5665  0.3729 -0.2366
13142SOL    HW151150   7.086   5.876   8.867 -1.2838  1.5510 -0.1470
13142SOL    HW251151   6.961   5.790   8.865  1.3959 -2.6079 -1.1322
13143SOL     OW51152   3.216   6.598   5.961  0.5090  0.1939 -0.4326
13143SOL    HW151153   3.135   6.552   5.981  0.5181  0.6657  0.7229
13143SOL    HW251154   3.284   6.548   6.007  0.7088  0.5537 -0.3366
13144SOL     OW51155   2.328   5.244   1.408  0.0274 -0.1626  0.4881
13144SOL    HW151156   2.239   5.260   1.377  1.3831  1.2149 -3.2338
13144SOL    HW251157   2.345   5.152   1.388 -0.1875 -0.1388  0.2022
13145SOL     OW51158   1.055   2.947   1.055 -0.0785  0.0504  0.2121
13145SOL    HW151159   1.007   2.902   1.125 -1.2767  0.6476 -0.1999
13145SOL    HW251160   1.097   3.021   1.099  2.7646 -1.9374  1.1050
13146SOL     OW51161  11.060   1.757   3.138  0.1378 -0.0750 -0.6301
13146SOL    HW151162  11.131   1.817   3.115  0.3448  0.1682  0.5827
13146SOL    HW251163  11.035   1.783   3.227 -2.6280  0.9770 -1.6180
13147SOL     OW51164   2.202   2.053  10.646 -0.0945  0.6212  0.2325
13147SOL    HW151165   2.230   2.127  10.699  1.9770 -0.7591  1.2156
13147SOL    HW251166   2.108   2.065  10.635 -0.4995  1.4225  3.5400
13148SOL     OW51167  10.165   6.995  10.689 -0.4795 -0.0028 -0.6482
13148SOL    HW151168  10.238   6.986  10.627  2.2608 -0.9025  2.4125
13148SOL    HW251169  10.136   7.086  10.679  2.4532  1.0472 -0.7116
13149SOL     OW51170  10.303   5.670   1.239  0.2548  0.2996  0.0236
13149SOL    HW151171  10.312   5.620   1.320 -1.6455  2.2810  1.5653
13149SOL    HW251172  10.365   5.742   1.247  1.1077 -0.2909 -0.9952
13150SOL     OW51173   5.754   1.769   8.312 -0.0075 -0.0492  0.2505
13150SOL    HW151174   5.661   1.755   8.326  0.4662 -0.2487  4.4072
13150SOL    HW251175   5.760   1.857   8.274 -1.8579  0.1823  0.3983
13151SOL     OW51176  10.955   2.611   4.229  0.1066  0.5168  0.0542
13151SOL    HW151177  10.889   2.661   4.277 -0.6113 -1.0115  0.7280
13151SOL    HW251178  10.975   2.536   4.286  0.8804 -0.1612 -1.0623
13152SOL     OW51179   1.257   2.547   8.504 -0.4571  0.1012 -0.0125
13152SOL    HW151180   1.180   2.596   8.474 -1.3402 -2.8691 -3.1664
13152SOL    HW251181   1.294   2.602   8.574 -4.5740  2.3619  0.7231
13153SOL     OW51182   8.449   7.608  11.384 -0.1803  0.3058 -0.0178
13153SOL    HW151183   8.414   7.678  11.328  0.1819  1.4107  1.0798
13153SOL    HW251184   8.372   7.557  11.410 -0.3943 -0.0255 -1.2187
13154SOL     OW51185   3.469   5.115   6.918  0.1021  0.3323 -0.5153
13154SOL    HW151186   3.519   5.191   6.887 -0.5983  1.3861  0.8436
13154SOL    HW251187   3.443   5.138   7.007 -2.9401 -0.0981 -1.1934
13155SOL     OW51188   6.157   1.695   0.428 -0.2220 -0.2940 -0.3629
13155SOL    HW151189   6.068   1.677   0.398  0.0507 -1.3787 -0.5911
13155SOL    HW251190   6.148   1.715   0.521 -0.7567  0.0719 -0.4914
13156SOL     OW51191  10.812   5.294   1.080  0.2974  0.4381  0.0769
13156SOL    HW151192  10.830   5.356   1.150 -0.1050 -0.5146  1.0613
13156SOL    HW251193  10.840   5.210   1.115 -1.0569 -0.2571 -0.4120
13157SOL     OW51194   7.913   3.752   0.966 -0.5541  0.0654 -0.1873
13157SOL    HW151195   7.919   3.837   1.010  1.1832  0.3695 -0.9346
13157SOL    HW251196   8.004   3.725   0.953 -1.0633 -1.7049 -0.4000
13158SOL     OW51197   0.505   9.914   6.317  0.3777 -0.0923  0.6591
13158SOL    HW151198   0.447   9.977   6.275  0.6593  0.7747  1.5257
13158SOL    HW251199   0.582   9.911   6.261  0.1477 -0.0503  0.3399
13159SOL     OW51200   4.888   9.199  10.583  0.1695  0.6009  0.1054
13159SOL    HW151201   4.940   9.274  10.610  0.5989  0.2558  0.2385
13159SOL    HW251202   4.918   9.178  10.495 -0.5402  1.1073 -0.2657
13160SOL     OW51203  10.231  10.917   1.225 -0.0004 -0.3946  0.2825
13160SOL    HW151204  10.171  10.895   1.154  1.4909 -0.9799 -0.8599
13160SOL    HW251205  10.268  10.833   1.252  0.8997  0.0171  0.3898
13161SOL     OW51206   3.417   1.981   6.503  0.0470  0.2749  0.0813
13161SOL    HW151207   3.472   2.031   6.443 -0.3811  2.3007  1.3088
13161SOL    HW251208   3.474   1.910   6.532  0.9828  0.5401 -0.9921
13162SOL     OW51209   4.852   0.225   7.521 -0.6222 -0.8010 -0.0652
13162SOL    HW151210   4.900   0.191   7.597  0.1762 -0.0053 -0.1961
13162SOL    HW251211   4.782   0.278   7.558  0.4095  0.4535  0.1228
13163SOL     OW51212   9.150   6.221  10.944  0.2946  0.1918 -0.1597
13163SOL    HW151213   9.164   6.296  11.002 -0.8355  0.8395 -0.6765
13163SOL    HW251214   9.207   6.238  10.869  0.0599  0.5370 -0.2646
13164SOL     OW51215   6.378   7.703  10.202  0.1819 -0.0444 -0.4159
13164SOL    HW151216   6.331   7.724  10.122  1.0819  1.6057 -0.5343
13164SOL    HW251217   6.323   7.738  10.272  1.1270  1.8128 -0.5505
13165SOL     OW51218   8.082   0.499   0.057 -0.3033  0.6198 -0.3256
13165SOL    HW151219   8.152   0.564   0.060  0.1676  0.1272 -0.4946
13165SOL    HW251220   8.110   0.436  -0.010 -1.1367  0.6738 -0.7376
13166SOL     OW51221   4.183  11.287   0.477  0.5595 -0.3597  0.8970
13166SOL    HW151222   4.109  11.267   0.534  0.4528 -0.2208  0.8097
13166SOL    HW251223   4.253  11.313   0.537 -0.4725  2.8829  0.9026
13167SOL     OW51224   1.820   9.775   0.920  0.4027  0.7113 -0.5196
13167SOL    HW151225   1.734   9.763   0.960  0.7803 -0.1769  0.0527
13167SOL    HW251226   1.882   9.761   0.991  1.0205  2.2932 -0.7027
13168SOL     OW51227   4.519  10.728   0.532  0.4830  0.3716 -1.0760
13168SOL    HW151228   4.494  10.820   0.542 -0.2036  0.1996 -1.1687
13168SOL    HW251229   4.609  10.724   0.564 -0.1626  0.6692  0.8742
13169SOL     OW51230   3.716   7.701  10.780 -0.1157 -0.7505  0.8778
13169SOL    HW151231   3.793   7.694  10.723 -0.0292  1.6038  0.6202
13169SOL    HW251232   3.711   7.615  10.823  1.2570 -1.7718 -0.8194
13170SOL     OW51233   8.124   7.889   8.210 -0.5780 -0.1579  0.1298
13170SOL    HW151234   8.061   7.936   8.264 -0.7294 -0.4120  0.1788
13170SOL    HW251235   8.112   7.924   8.122  0.7486  1.3811  0.5137
13171SOL     OW51236   2.446   5.864   3.856  0.6117  0.1826 -0.1013
13171SOL    HW151237   2.353   5.882   3.865  0.8407  0.8521  1.2339
13171SOL    HW251238   2.484   5.947   3.826  0.6840 -0.3451 -1.5620
13172SOL     OW51239   9.092   6.149  10.158  0.1556  0.4672  0.2650
13172SOL    HW151240   9.060   6.071  10.203  2.3651 -0.9505 -0.4420
13172SOL    HW251241   9.148   6.114  10.088  0.5515  2.6894 -0.5962
13173SOL     OW51242   9.371   9.508   1.376 -0.3077  0.6633  0.4850
13173SOL    HW151243   9.338   9.465   1.297 -1.5652  0.4223  1.1221
13173SOL    HW251244   9.335   9.597   1.372  0.1145  0.8375  0.4956
13174SOL     OW51245   4.776  10.095   6.527 -0.1604  0.7157 -0.8749
13174SOL    HW151246   4.806  10.095   6.618  1.4142  0.6424 -1.3475
13174SOL    HW251247   4.681  10.087   6.532 -0.1786  1.5685  0.7719
13175SOL     OW51248   6.084   7.546   7.421 -0.2399  0.0882 -0.4493
13175SOL    HW151249   6.051   7.457   7.425 -0.8288  0.3366  1.7136
13175SOL    HW251250   6.010   7.598   7.388 -0.0614 -0.1484 -1.2287
13176SOL     OW51251   6.558  11.796   4.367  0.1686 -0.2633  0.3935
13176SOL    HW151252   6.575  11.758   4.280 -0.8707 -1.2746  0.5939
13176SOL    HW251253   6.557  11.720   4.426  1.1900  0.4464  1.3639
13177SOL     OW51254   8.160  11.203   6.428 -0.6096  0.3948  0.7147
13177SOL    HW151255   8.208  11.192   6.510 -1.4595 -1.9377  0.9764
13177SOL    HW251256   8.087  11.260   6.450 -1.1735 -0.6920  1.7805
13178SOL     OW51257  11.025   2.907   5.865  0.0079  0.2446  0.2652
13178SOL    HW151258  10.964   2.925   5.937  0.5518  0.9182  0.5636
13178SOL    HW251259  11.033   2.990   5.818 -1.2476 -0.4811 -1.2960
13179SOL     OW51260   8.329   2.342   2.436  0.2691  0.9514  0.1083
13179SOL    HW151261   8.400   2.287   2.467 -1.8411 -0.7834  2.2147
13179SOL    HW251262   8.344   2.427   2.478  0.9979  0.5367  0.7031
13180SOL     OW51263  10.516  10.653   3.361 -0.1108  0.1471  0.0418
13180SOL    HW151264  10.441  10.699   3.325 -0.6051 -0.0419  0.8055
13180SOL    HW251265  10.587  10.717   3.358  0.0892 -0.0898 -1.9483
13181SOL     OW51266   3.146   8.836   2.791  0.0627  0.0948 -0.4181
13181SOL    HW151267   3.096   8.792   2.722 -0.5601  0.9119 -0.5018
13181SOL    HW251268   3.099   8.918   2.806  1.2026  0.7279 -0.2597
13182SOL     OW51269  10.068  11.509   9.290  0.8578  0.1331  0.5886
13182SOL    HW151270  10.038  11.418   9.290  1.1422  0.0405  0.5171
13182SOL    HW251271   9.990  11.559   9.268  1.3647 -0.3018 -2.5790
13183SOL     OW51272  11.838   0.602   3.789  0.2591 -0.6137  0.1990
13183SOL    HW151273  11.762   0.577   3.737  1.4765 -1.6798 -1.1706
13183SOL    HW251274  11.909   0.609   3.725  1.4412 -0.1889  1.5048
13184SOL     OW51275  11.566   7.633   8.581  0.0398 -0.0534 -0.2172
13184SOL    HW151276  11.615   7.675   8.652  0.2520 -1.9572  0.8258
13184SOL    HW251277  11.475   7.661   8.595  0.2951  0.7448 -0.0904
13185SOL     OW51278   8.125   5.304   9.527 -0.3450 -0.0238 -0.0836
13185SOL    HW151279   8.070   5.259   9.591 -2.1397 -1.9446 -2.7540
13185SOL    HW251280   8.118   5.396   9.550 -3.0650 -0.4007  0.9420
13186SOL     OW51281   1.724   2.713   2.272 -0.2959  0.5074  0.4270
13186SOL    HW151282   1.666   2.662   2.329 -0.9413 -0.0989 -0.7288
13186SOL    HW251283   1.669   2.735   2.196  1.5743 -2.1960 -1.9055
13187SOL     OW51284   9.890   4.247   5.658  0.2595 -0.0944  0.5402
13187SOL    HW151285   9.929   4.272   5.575 -1.1344  2.3899  0.5353
13187SOL    HW251286   9.959   4.199   5.705  1.8843  0.6304 -1.0230
13188SOL     OW51287   3.567   1.262   7.354  0.3936 -0.2609 -0.2949
13188SOL    HW151288   3.509   1.218   7.292  0.3034  0.1457 -0.4997
13188SOL    HW251289   3.515   1.269   7.434 -0.0274  0.5505 -0.6268
13189SOL     OW51290  10.359   5.788   9.122  0.6335 -0.2547  0.0725
13189SOL    HW151291  10.271   5.801   9.159 -0.8112 -1.6038 -2.5480
13189SOL    HW251292  10.381   5.698   9.146  0.7041 -0.3550 -0.3575
13190SOL     OW51293   7.871   8.728   6.129 -0.8411 -0.2538  0.2984
13190SOL    HW151294   7.850   8.821   6.116  3.0417  0.9514  1.3472
13190SOL    HW251295   7.901   8.698   6.043  1.4635  0.6650  0.7005
13191SOL     OW51296   3.924  10.209  11.355  0.0209 -0.3995 -0.0391
13191SOL    HW151297   3.991  10.189  11.420 -0.5116 -2.5765 -0.0824
13191SOL    HW251298   3.850  10.241  11.406  0.5056  0.4899  0.1418
13192SOL     OW51299  11.956  10.478   9.793 -0.5063  0.3402  0.2542
13192SOL    HW151300  11.994  10.484   9.705 -0.1250 -1.5485  0.2523
13192SOL    HW251301  11.878  10.424   9.782 -0.9157  0.7732  0.9600
13193SOL     OW51302   1.482   6.916  11.855 -0.6168  0.3048  0.3685
13193SOL    HW151303   1.477   7.002  11.813 -0.0370 -0.4638 -1.3824
13193SOL    HW251304   1.427   6.859  11.801  0.1961 -0.7453  0.6014
13194SOL     OW51305   4.928   5.183   7.024 -0.2405  0.1745 -0.3508
13194SOL    HW151306   4.930   5.088   7.015 -0.6476  0.0790  0.4538
13194SOL    HW251307   4.835   5.205   7.025 -0.1502  0.7248 -1.7703
13195SOL     OW51308   7.946   6.898   9.880 -0.7687  0.2856  0.6772
13195SOL    HW151309   7.926   6.810   9.912 -2.0519  0.8785  1.5868
13195SOL    HW251310   7.982   6.944   9.956 -1.9714  1.1137  0.7741
13196SOL     OW51311  10.896   8.624   8.907 -0.0569  0.0127  0.4916
13196SOL    HW151312  10.921   8.675   8.830  1.9349  0.0724  1.1312
13196SOL    HW251313  10.914   8.683   8.981 -0.0451 -0.7510  1.1028
13197SOL     OW51314   1.730   6.752   0.809  0.8063 -0.4288  0.2502
13197SOL    HW151315   1.737   6.665   0.846  0.9211 -0.5994 -0.1682
13197SOL    HW251316   1.676   6.801   0.871 -0.9504 -1.3516 -0.4868
13198SOL     OW51317   5.546   7.854   8.473  0.0496  0.4136 -0.5252
13198SOL    HW151318   5.636   7.827   8.454 -0.3772 -2.2429  0.8006
13198SOL    HW251319   5.505   7.860   8.387  0.6082 -1.8800 -1.0202
13199SOL     OW51320   4.093   6.540   7.634  0.0428  0.0950 -0.1633
13199SOL    HW151321   4.123   6.630   7.619 -0.9041  0.4730  0.1282
13199SOL    HW251322   3.998   6.545   7.623 -0.1727 -0.5866  1.2088
13200SOL     OW51323   7.240   1.538  11.459  0.0841 -0.1776  0.0607
13200SOL    HW151324   7.162   1.593  11.449 -0.1883 -0.5792 -0.0864
13200SOL    HW251325   7.235   1.477  11.386  0.3120 -0.4755  0.2931
13201SOL     OW51326   7.794   0.055   6.400  0.4160 -0.4203  0.4237
13201SOL    HW151327   7.747   0.014   6.328  0.9573 -0.3353  0.0140
13201SOL    HW251328   7.728   0.107   6.445  0.4323  1.0259 -1.1303
13202SOL     OW51329   7.063   0.349   7.051 -0.5130 -0.3071 -0.5904
13202SOL    HW151330   7.145   0.334   7.005 -0.7670 -1.1351 -0.7994
13202SOL    HW251331   7.074   0.302   7.134 -0.4194  0.3712 -0.2169
13203SOL     OW51332   7.079   7.888   1.017  0.4109 -0.1650  0.3668
13203SOL    HW151333   7.064   7.873   0.923 -2.4235  1.6417  0.4342
13203SOL    HW251334   7.159   7.942   1.019  0.8492 -0.7098 -0.9350
13204SOL     OW51335   2.573  11.551   4.223 -0.6319  0.4071 -0.2202
13204SOL    HW151336   2.631  11.583   4.153 -0.7121  0.0157 -0.4686
13204SOL    HW251337   2.557  11.459   4.200 -1.4244  0.5369 -0.2043
13205SOL     OW51338   5.287   8.388   8.444  0.2835 -0.4191 -0.4978
13205SOL    HW151339   5.207   8.379   8.497  0.6193  0.2226  0.1340
13205SOL    HW251340   5.329   8.302   8.450  1.4475  0.2452  2.1543
13206SOL     OW51341   5.495  11.044   9.683  0.3044 -0.1697 -0.2479
13206SOL    HW151342   5.542  10.989   9.620  0.1468 -0.3668 -0.1941
13206SOL    HW251343   5.483  11.128   9.638 -1.9612 -1.0590 -1.4547
13207SOL     OW51344   1.298   8.984   5.079 -0.3737 -0.2554  0.0886
13207SOL    HW151345   1.312   8.994   5.173  0.8719 -0.7204 -0.0275
13207SOL    HW251346   1.285   8.890   5.066 -0.4938 -0.1988 -0.2178
13208SOL     OW51347   6.135   7.260   4.309  0.2278 -0.3216 -0.1507
13208SOL    HW151348   6.178   7.284   4.392  0.0974 -0.9997  0.1196
13208SOL    HW251349   6.203   7.271   4.243  0.4170 -0.0539  0.0819
13209SOL     OW51350   1.682   7.099   2.748  0.1593 -0.1045  0.0815
13209SOL    HW151351   1.730   7.181   2.752  0.1787 -0.1421  0.8239
13209SOL    HW251352   1.749   7.032   2.739  0.4839 -0.3415  3.1803
13210SOL     OW51353   1.650   4.943   5.003  0.6084 -0.0354 -0.1646
13210SOL    HW151354   1.600   4.999   4.944  2.1345  1.5712 -0.0142
13210SOL    HW251355   1.698   5.004   5.059  2.9093 -1.4433 -0.4598
13211SOL     OW51356  10.254   0.052  11.847 -0.1399  0.1306  0.2654
13211SOL    HW151357  10.263  -0.008  11.774  1.8074  0.4265  0.2072
13211SOL    HW251358  10.248  -0.004  11.924  0.3073 -0.1568  0.0918
13212SOL     OW51359   4.843  10.205   5.383 -0.2318 -0.5005  0.6050
13212SOL    HW151360   4.867  10.298   5.389 -0.7627 -0.1696 -1.6757
13212SOL    HW251361   4.927  10.159   5.384  0.5523  0.4292 -3.6258
13213SOL     OW51362   5.871   0.635  10.463 -0.7639  0.7724 -0.5895
13213SOL    HW151363   5.886   0.693  10.538 -1.1206  0.6801 -0.4444
13213SOL    HW251364   5.829   0.557  10.501  1.1193 -0.2780 -0.5327
13214SOL     OW51365   0.415   7.795   9.563  0.6675 -0.4577  0.1792
13214SOL    HW151366   0.323   7.771   9.575  0.4031 -0.3675 -1.3882
13214SOL    HW251367   0.464   7.721   9.599 -0.0359 -0.8440  0.3715
13215SOL     OW51368   4.712  11.926   1.125  0.2688  0.1901  0.1733
13215SOL    HW151369   4.794  11.967   1.155 -0.4350  2.0104 -0.2492
13215SOL    HW251370   4.647  11.950   1.192 -0.1070 -0.5822  0.1020
13216SOL     OW51371   5.117   3.178   6.562  0.1595  0.1626  0.3394
13216SOL    HW151372   5.087   3.252   6.509  1.1492  0.8882  0.7575
13216SOL    HW251373   5.103   3.102   6.506 -2.1297  0.4614  0.3962
13217SOL     OW51374   9.526   3.831   1.960  0.2690  0.1170  0.3330
13217SOL    HW151375   9.594   3.777   2.000  2.1900  1.5047 -0.8641
13217SOL    HW251376   9.563   3.920   1.960 -1.1217  0.7576 -1.2401
13218SOL     OW51377   3.822   2.270   8.404 -0.0829 -0.0190  0.0029
13218SOL    HW151378   3.828   2.236   8.493 -0.7013 -1.1262 -0.3508
13218SOL    HW251379   3.742   2.323   8.404  0.6097  1.0376  0.4289
13219SOL     OW51380   9.500   2.132   9.679 -0.3089 -0.0193 -0.0511
13219SOL    HW151381   9.578   2.084   9.705 -0.6860 -0.5239  0.1620
13219SOL    HW251382   9.429   2.068   9.686 -0.4286 -0.2550 -2.4257
13220SOL     OW51383   4.081   1.562   9.647 -0.7691  0.0923 -0.0171
13220SOL    HW151384   4.041   1.574   9.733  1.3294 -2.9611  1.5906
13220SOL    HW251385   4.165   1.608   9.653  1.2770 -3.4246  1.3089
13221SOL     OW51386  11.636   7.122   9.660 -0.7227 -0.2189  0.5525
13221SOL    HW151387  11.634   7.055   9.591  1.2454 -0.4882  0.7092
13221SOL    HW251388  11.558   7.103   9.713 -0.6055 -1.9439  0.1738
13222SOL     OW51389   2.725  10.468   0.959 -0.5581 -0.1524  0.1061
13222SOL    HW151390   2.645  10.455   0.908 -1.7786  2.3784  1.1614
13222SOL    HW251391   2.735  10.388   1.011 -1.2050 -1.3512 -1.5547
13223SOL     OW51392   1.171   0.087   8.185  0.0974  0.3003  0.6814
13223SOL    HW151393   1.238   0.154   8.174  0.4005 -0.2638 -1.3983
13223SOL    HW251394   1.147   0.092   8.278 -0.4137  3.7096  0.4926
13224SOL     OW51395   9.732   6.854   0.978 -0.0958  0.4309 -0.1898
13224SOL    HW151396   9.796   6.895   1.036 -0.2973  1.3687 -0.6065
13224SOL    HW251397   9.781   6.835   0.898  0.2938 -1.2707  0.4101
13225SOL     OW51398   0.374   0.870   2.698  0.0825  0.0509  0.0101
13225SOL    HW151399   0.309   0.865   2.628  0.3152 -0.3190 -0.1874
13225SOL    HW251400   0.404   0.961   2.696 -0.3385  0.1876  0.0194
13226SOL     OW51401   6.772   2.837  10.499  0.2424 -0.2977 -0.4633
13226SOL    HW151402   6.693   2.888  10.517  0.5049  0.2399 -0.7804
13226SOL    HW251403   6.740   2.752  10.470 -0.1946 -0.6590  1.0175
13227SOL     OW51404   5.084   4.472   6.900  0.5330  0.1075 -0.3281
13227SOL    HW151405   5.178   4.475   6.920  0.4152  0.8237  0.1488
13227SOL    HW251406   5.077   4.513   6.813  0.7175 -0.3987 -0.5825
13228SOL     OW51407   1.875  11.536   6.283 -0.0696 -0.0552 -0.7349
13228SOL    HW151408   1.870  11.540   6.187  3.1972  0.1854 -1.0130
13228SOL    HW251409   1.969  11.539   6.302 -0.6525  1.1166  2.5689
13229SOL     OW51410   4.663   6.186   7.189  0.7378  0.2107 -0.2958
13229SOL    HW151411   4.568   6.193   7.203  0.8276  0.6142  0.1365
13229SOL    HW251412   4.700   6.257   7.241  1.1412  1.2459 -1.9172
13230SOL     OW51413   2.272   6.627   5.969  0.0205  0.1590 -0.4484
13230SOL    HW151414   2.222   6.549   5.992  1.8202 -0.9525 -0.0690
13230SOL    HW251415   2.220   6.670   5.901 -1.5829 -0.7228  0.1689
13231SOL     OW51416   2.991   0.862  10.402  0.0678  0.3375 -0.5563
13231SOL    HW151417   2.996   0.882  10.309 -0.9057  0.6392 -0.5551
13231SOL    HW251418   2.907   0.817  10.413  0.6886 -0.7258 -0.0081
13232SOL     OW51419   2.892   8.126   4.096  0.3277  0.3182 -0.0453
13232SOL    HW151420   2.834   8.085   4.160  0.5787  1.0382  0.6640
13232SOL    HW251421   2.962   8.062   4.081 -0.7403 -0.6460 -1.0701
13233SOL     OW51422   0.923   6.774   4.376 -0.0396  0.3983  0.6604
13233SOL    HW151423   0.976   6.825   4.315  1.0302 -2.1395 -0.6468
13233SOL    HW251424   0.969   6.691   4.385 -2.4727 -0.9574  1.4886
13234SOL     OW51425   9.520   1.056  11.440 -0.1224 -0.1915 -0.1742
13234SOL    HW151426   9.441   1.002  11.440 -0.5067  0.3523  0.0270
13234SOL    HW251427   9.524   1.092  11.528  0.2717 -0.0992 -0.2281
13235SOL     OW51428  11.112   2.180   9.159  0.1627 -0.0588  0.3832
13235SOL    HW151429  11.018   2.199   9.159 -0.2398 -1.6942 -1.5412
13235SOL    HW251430  11.133   2.165   9.067  2.4728  0.8144  0.6841
13236SOL     OW51431   2.086   4.923   7.756  0.3598 -0.1255 -0.4351
13236SOL    HW151432   2.091   4.899   7.848  1.1427  0.4213 -0.3312
13236SOL    HW251433   2.135   4.853   7.711 -1.8839 -1.6360 -0.6978
13237SOL     OW51434   9.165   4.073   7.598  0.7740 -0.3226 -0.3803
13237SOL    HW151435   9.255   4.062   7.630  1.4205 -0.0438 -1.9887
13237SOL    HW251436   9.118   3.997   7.633  1.9726 -1.2047 -0.6142
13238SOL     OW51437   4.207   5.377  11.112  0.0023 -0.2600 -0.4278
13238SOL    HW151438   4.297   5.394  11.084  0.8163 -0.8818  1.6352
13238SOL    HW251439   4.159   5.360  11.031  1.3454  1.7401 -1.7161
13239SOL     OW51440   6.175   3.661   0.920 -0.2744 -0.4597  0.5329
13239SOL    HW151441   6.082   3.664   0.942 -0.2719  0.9722  0.4635
13239SOL    HW251442   6.186   3.582   0.867 -1.6002 -0.2254 -0.1154
13240SOL     OW51443   1.534   0.478   6.865 -0.1210  0.4202  0.3693
13240SOL    HW151444   1.567   0.458   6.953 -0.8741 -2.3849  0.1048
13240SOL    HW251445   1.609   0.464   6.808  0.0231  0.9837  0.4079
13241SOL     OW51446   1.816   6.507  10.726  0.1283  0.0218 -0.0064
13241SOL    HW151447   1.900   6.494  10.681  0.7615 -0.3723  1.2378
13241SOL    HW251448   1.753   6.455  10.676  1.1981 -2.0331  0.6949
13242SOL     OW51449  11.953   6.902   4.796  0.6461  0.1683  0.6652
13242SOL    HW151450  11.864   6.887   4.828  0.4472  1.1481  0.6001
13242SOL    HW251451  11.962   6.998   4.793  1.1064  0.1145 -0.9431
13243SOL     OW51452   3.009   6.922   0.544 -0.2028  0.4459  0.0605
13243SOL    HW151453   3.054   6.932   0.461 -0.1408  1.6195  0.2226
13243SOL    HW251454   3.002   7.011   0.579 -4.1748  0.6394 -0.7386
13244SOL     OW51455   1.337   4.954   7.667  0.2326  0.0580  0.1519
13244SOL    HW151456   1.286   4.881   7.700  0.0330  0.0760 -0.1134
13244SOL    HW251457   1.381   4.990   7.744 -0.0948 -0.0028  0.3669
13245SOL     OW51458   2.355   4.898   1.594 -0.5611  0.2450  0.4854
13245SOL    HW151459   2.398   4.857   1.669 -1.0993  2.3306  2.0325
13245SOL    HW251460   2.397   4.858   1.518 -1.1471 -3.2191  1.7734
13246SOL     OW51461   8.833   6.776   3.002 -0.2052  0.0584 -0.5970
13246SOL    HW151462   8.826   6.861   3.045 -0.0672 -0.0386 -0.3778
13246SOL    HW251463   8.893   6.726   3.058 -0.9596 -0.4771 -0.2552
13247SOL     OW51464   3.733   2.157   1.555 -0.5553  0.1051 -0.1142
13247SOL    HW151465   3.783   2.116   1.484 -1.7651 -0.7388 -0.5223
13247SOL    HW251466   3.726   2.089   1.622 -0.2480  0.5768  0.4037
13248SOL     OW51467   3.431   8.763  10.874 -0.1387 -0.0705  0.2003
13248SOL    HW151468   3.469   8.738  10.958 -1.3367 -0.3519  0.6736
13248SOL    HW251469   3.481   8.840  10.847  2.2859 -1.7379 -0.3146
13249SOL     OW51470   2.667   9.406   4.679  0.3904 -0.1342  0.0104
13249SOL    HW151471   2.637   9.383   4.767  0.9365 -0.9092  0.0066
13249SOL    HW251472   2.586   9.421   4.629  0.0711 -0.0818  0.5349
13250SOL     OW51473   2.452   0.997   6.844 -0.0665  0.3543  0.3210
13250SOL    HW151474   2.545   1.012   6.858  0.0522  1.1127 -1.1170
13250SOL    HW251475   2.408   1.048   6.913  0.5066  2.8401 -1.0403
13251SOL     OW51476   1.188   1.451   7.925 -0.5366 -0.2927 -0.2587
13251SOL    HW151477   1.135   1.377   7.894  1.1376 -1.2163 -1.0816
13251SOL    HW251478   1.215   1.426   8.013 -3.3287  1.2623  1.1715
13252SOL     OW51479   3.913   8.311   8.232  0.1748  0.7839 -0.4533
13252SOL    HW151480   3.884   8.364   8.157  0.6724  1.7843  0.0437
13252SOL    HW251481   3.872   8.353   8.308 -0.5675 -0.3963 -0.1637
13253SOL     OW51482   0.824   4.088   0.537  0.3443  0.2969 -0.2150
13253SOL    HW151483   0.827   4.158   0.602  1.4842  2.1732 -2.1547
13253SOL    HW251484   0.898   4.106   0.479 -0.5200 -1.3788 -1.9491
13254SOL     OW51485  11.169   2.000   7.478 -0.0806  0.5414 -0.5595
13254SOL    HW151486  11.189   1.936   7.409  0.1084  1.4291 -1.3506
13254SOL    HW251487  11.114   1.952   7.540  2.5973 -1.3410  0.5501
13255SOL     OW51488   3.892   9.020   1.646  0.6056  0.5893  0.4109
13255SOL    HW151489   3.820   9.024   1.583 -1.3688 -2.4538  2.2005
13255SOL    HW251490   3.864   9.078   1.717  0.6143  0.4911  0.4944
13256SOL     OW51491   0.980   3.189  10.341 -0.5079  0.1757 -0.9041
13256SOL    HW151492   0.972   3.279  10.374 -1.1600 -0.6701  1.3770
13256SOL    HW251493   1.071   3.183  10.311 -0.6117  1.7429 -1.6749
13257SOL     OW51494  11.921   5.223  11.861 -0.4349  0.1071  0.1115
13257SOL    HW151495  11.935   5.131  11.884 -0.2404 -0.3529 -1.7300
13257SOL    HW251496  11.889   5.263  11.943  1.4960 -1.0963  1.5362
13258SOL     OW51497  11.030   8.886   6.369 -0.0355  0.3068  0.0762
13258SOL    HW151498  10.977   8.928   6.437  1.1956  1.3187  0.4491
13258SOL    HW251499  10.982   8.903   6.288 -0.4557  0.9291  0.4426
13259SOL     OW51500   2.002   2.608   3.137  0.1390 -0.0153  0.5941
13259SOL    HW151501   1.984   2.638   3.226  0.6011  1.5348  0.1890
13259SOL    HW251502   2.097   2.605   3.131  0.1117 -0.0452  0.1234
13260SOL     OW51503   2.898   8.796   4.729  0.3067  0.1267  0.4254
13260SOL    HW151504   2.848   8.878   4.720  1.1446  0.5814 -0.3076
13260SOL    HW251505   2.956   8.795   4.652  0.3167 -1.1578  0.4279
13261SOL     OW51506   0.657  11.036   8.285  0.7029 -0.0893  0.1242
13261SOL    HW151507   0.747  11.028   8.253  0.8624 -0.3856  0.6432
13261SOL    HW251508   0.665  11.087   8.365  0.5856 -1.2964  0.9321
13262SOL     OW51509   4.084   3.026   2.530 -0.2413 -0.1416 -0.3011
13262SOL    HW151510   4.025   3.078   2.476 -0.7739  0.9783  1.2780
13262SOL    HW251511   4.126   2.965   2.469 -1.8757  0.0753 -1.7119
13263SOL     OW51512   3.590   7.259   1.567  0.2070  0.2571 -0.3416
13263SOL    HW151513   3.608   7.257   1.661  0.6231  1.4315 -0.3891
13263SOL    HW251514   3.658   7.315   1.530  0.3511 -0.6052 -1.4219
13264SOL     OW51515   4.542   8.785   4.033 -0.0781 -0.5428 -0.0971
13264SOL    HW151516   4.602   8.804   4.105  1.6479  1.3777 -1.8814
13264SOL    HW251517   4.596   8.740   3.968  0.1528  2.8624 -2.5418
13265SOL     OW51518   2.341   5.203   0.190 -0.3667  0.5134 -0.0381
13265SOL    HW151519   2.392   5.123   0.173  0.8122  1.4392 -1.0343
13265SOL    HW251520   2.398   5.274   0.161 -1.5985  1.6958  0.3614
13266SOL     OW51521  11.211   8.521  10.247  0.2150  0.8622 -0.1521
13266SOL    HW151522  11.148   8.453  10.270 -0.0732  1.2802  0.3193
13266SOL    HW251523  11.293   8.492  10.286  1.0956 -1.1607 -3.1795
13267SOL     OW51524   2.919   9.537   4.804 -0.6799  0.1640 -0.0954
13267SOL    HW151525   2.996   9.485   4.781  0.5456  0.5821  2.6488
13267SOL    HW251526   2.852   9.510   4.741  1.5455 -0.5009 -2.3502
13268SOL     OW51527   2.487  11.745   2.073 -0.0886 -0.2207 -0.0687
13268SOL    HW151528   2.491  11.731   1.978 -1.2294 -0.3201 -0.1114
13268SOL    HW251529   2.405  11.705   2.100 -0.7109  1.4475  0.6721
13269SOL     OW51530   9.812  10.622   9.350  0.4598  0.0109 -0.2495
13269SOL    HW151531   9.864  10.691   9.391  0.3034 -0.4504  0.7529
13269SOL    HW251532   9.873  10.549   9.337  0.5849  0.2639 -1.1490
13270SOL     OW51533   8.706   6.746  11.893  0.2609  0.1257  0.0495
13270SOL    HW151534   8.642   6.710  11.832 -0.3034  2.0865 -0.5992
13270SOL    HW251535   8.790   6.738  11.847 -0.1572  1.5744 -1.0325
13271SOL     OW51536   0.928   7.481   5.159 -0.3601  0.3633  0.7158
13271SOL    HW151537   0.941   7.445   5.247 -0.6675  1.9660  1.4650
13271SOL    HW251538   1.014   7.518   5.136  0.1182 -1.2965 -0.2944
13272SOL     OW51539   6.598   9.730   0.097  0.1574 -0.5025 -0.7557
13272SOL    HW151540   6.536   9.661   0.071 -0.0014 -0.9264  0.6538
13272SOL    HW251541   6.584   9.740   0.191  0.0666  1.5969 -0.9451
13273SOL     OW51542   5.473   6.826   7.754 -0.6123  0.3934  0.1480
13273SOL    HW151543   5.433   6.895   7.701 -0.8904  0.5899  0.6092
13273SOL    HW251544   5.548   6.869   7.796 -0.4366  0.2584 -0.0299
13274SOL     OW51545   9.937   1.174   4.664  0.0755 -0.5647  0.5616
13274SOL    HW151546   9.946   1.103   4.601 -0.6145  0.4459 -0.7430
13274SOL    HW251547   9.855   1.217   4.640  0.9425  1.2523  0.6641
13275SOL     OW51548   0.738  11.057   5.245 -0.2086 -0.3922 -0.5429
13275SOL    HW151549   0.777  11.047   5.158  2.1780  0.4772  0.3294
13275SOL    HW251550   0.813  11.070   5.303 -1.7455 -0.6179  1.6136
13276SOL     OW51551   8.764   6.152  10.847  0.7756 -0.4495 -0.0756
13276SOL    HW151552   8.790   6.140  10.756 -0.8168 -2.5778 -0.3144
13276SOL    HW251553   8.818   6.090  10.896  1.8902  0.9448  0.5239
13277SOL     OW51554   3.698  10.522   5.535 -0.5358  0.0335 -0.0669
13277SOL    HW151555   3.683  10.539   5.442 -0.0820 -0.7718 -0.3017
13277SOL    HW251556   3.627  10.464   5.561  0.9373 -2.1877 -0.6916
13278SOL     OW51557   3.459   9.230   3.392 -0.2578 -0.2549  0.4096
13278SOL    HW151558   3.398   9.304   3.398 -1.1794 -1.0154  0.5181
13278SOL    HW251559   3.497   9.238   3.305 -3.3265 -1.8918 -1.2641
13279SOL     OW51560   2.235   1.203  10.527 -0.6422  0.2820  0.9889
13279SOL    HW151561   2.248   1.112  10.554 -0.4114  0.0707  0.1734
13279SOL    HW251562   2.140   1.213  10.521 -0.6428 -0.1706  0.1850
13280SOL     OW51563   2.730   4.713   1.096 -0.3038 -0.4332  0.2193
13280SOL    HW151564   2.729   4.623   1.128 -0.1984 -0.9786 -1.2119
13280SOL    HW251565   2.691   4.708   1.009  0.0055  0.8540 -0.0192
13281SOL     OW51566  11.883  10.813   4.541  0.0121 -0.3094 -0.6181
13281SOL    HW151567  11.958  10.758   4.517  1.4407  0.3391  1.9811
13281SOL    HW251568  11.811  10.752   4.554 -0.0869 -0.9251 -3.4205
13282SOL     OW51569   6.826   6.117  11.323 -0.3994 -0.6899  0.5782
13282SOL    HW151570   6.766   6.042  11.328 -2.3143  0.7584  0.3645
13282SOL    HW251571   6.801   6.172  11.398 -0.5885  0.8083 -0.5558
13283SOL     OW51572   7.440   6.868  10.510  0.5543  0.0937 -0.5205
13283SOL    HW151573   7.468   6.959  10.507  1.5253 -0.0293  2.0930
13283SOL    HW251574   7.357   6.866  10.462  0.5994  2.3039 -0.7606
13284SOL     OW51575   6.576   0.039   1.648  0.0085  0.5710 -0.2134
13284SOL    HW151576   6.507   0.029   1.582  0.1820  3.9681 -1.1296
13284SOL    HW251577   6.654   0.001   1.608 -0.8841 -1.7297  0.1146
13285SOL     OW51578   4.287   8.625   3.843 -0.4695 -0.3366 -0.0704
13285SOL    HW151579   4.347   8.639   3.769  0.9122  0.6266  1.1725
13285SOL    HW251580   4.285   8.709   3.889 -1.5248 -0.8288  0.8337
13286SOL     OW51581  11.167   3.122  10.158 -0.1288 -0.1140  0.2124
13286SOL    HW151582  11.079   3.155  10.144  0.0985  0.7821  0.8103
13286SOL    HW251583  11.191   3.082  10.074 -1.0962 -0.3784  0.0536
13287SOL     OW51584   2.750  10.302   2.789  0.8403  0.2056 -0.2790
13287SOL    HW151585   2.739  10.211   2.764 -0.0126  0.0872  0.4595
13287SOL    HW251586   2.780  10.299   2.880  3.6689  0.6244 -1.0991
13288SOL     OW51587   7.688   6.654   5.387 -0.0333  0.1749  0.2083
13288SOL    HW151588   7.657   6.587   5.326  0.4964  0.3150 -0.2236
13288SOL    HW251589   7.679   6.614   5.473 -1.3852  0.2050  0.1031
13289SOL     OW51590   4.830   2.434   3.471  0.2041  0.2147 -0.5733
13289SOL    HW151591   4.889   2.402   3.402  1.1735  0.2004  0.2339
13289SOL    HW251592   4.745   2.399   3.447  0.7884 -0.9849 -1.0198
13290SOL     OW51593   1.364   0.667   0.637 -0.2707 -0.0502  0.3648
13290SOL    HW151594   1.456   0.640   0.633 -0.3360 -0.2546  0.2949
13290SOL    HW251595   1.314   0.586   0.636 -0.4545  0.0617  0.3849
13291SOL     OW51596   6.426   3.867   9.124  0.2774  0.1524  0.4170
13291SOL    HW151597   6.437   3.800   9.192  3.6097 -0.2561 -0.3413
13291SOL    HW251598   6.344   3.844   9.080 -0.9871 -0.6970  2.9992
13292SOL     OW51599   5.581   7.882   7.451  0.4877 -0.2575  0.0720
13292SOL    HW151600   5.550   7.952   7.509  2.4260  0.2796  0.5384
13292SOL    HW251601   5.543   7.903   7.366  0.5436  1.0234  0.3410
13293SOL     OW51602   1.872   5.244   9.055 -0.2733  0.3744  0.0699
13293SOL    HW151603   1.825   5.325   9.034 -0.4661  0.5565  1.1416
13293SOL    HW251604   1.964   5.271   9.060 -0.3890  0.6367  0.9001
13294SOL     OW51605   4.137   6.930   1.933 -0.0834  0.0630  0.8180
13294SOL    HW151606   4.189   6.954   1.856 -2.6247  1.1103 -0.7166
13294SOL    HW251607   4.139   6.834   1.934  1.0313  0.0587  0.2435
13295SOL     OW51608   9.805   3.429   4.099  0.2878 -0.6841  0.4337
13295SOL    HW151609   9.848   3.438   4.014 -1.4875 -1.7132 -0.6491
13295SOL    HW251610   9.855   3.485   4.157  0.7334  1.1713 -1.5948
13296SOL     OW51611   4.029   5.338   2.495 -0.5186  0.3215 -0.8781
13296SOL    HW151612   4.031   5.433   2.503 -1.8974  0.2206  1.8923
13296SOL    HW251613   4.113   5.310   2.532 -1.0911  0.4172  0.5524
13297SOL     OW51614   6.502   9.360   4.365 -0.2027  0.1560 -0.0499
13297SOL    HW151615   6.456   9.321   4.290 -0.4115  1.2990 -0.5395
13297SOL    HW251616   6.460   9.322   4.442 -2.2576  1.4061 -0.4719
13298SOL     OW51617   5.957  11.144   3.195  0.0599  0.2659  0.4184
13298SOL    HW151618   5.974  11.233   3.226 -1.3882  0.2323  1.4352
13298SOL    HW251619   5.935  11.155   3.103  1.1036  0.7980  0.2158
13299SOL     OW51620   1.958   2.237   3.833 -0.5871 -0.2410 -0.5159
13299SOL    HW151621   1.950   2.308   3.897  0.2446  0.4777 -1.1884
13299SOL    HW251622   2.028   2.182   3.867  0.6706  0.7780 -1.3565
13300SOL     OW51623   7.097   4.919   1.773 -0.3586 -0.2137 -0.0078
13300SOL    HW151624   7.112   4.993   1.832 -1.0260 -0.2991  0.2694
13300SOL    HW251625   7.004   4.900   1.781 -0.2950 -0.7431 -0.4857
13301SOL     OW51626  11.438  10.807   6.728 -0.1382  0.1212 -0.3946
13301SOL    HW151627  11.371  10.755   6.683 -1.0296  0.1627  0.8332
13301SOL    HW251628  11.495  10.839   6.657 -1.6834  0.4824 -1.5310
13302SOL     OW51629   5.776  11.299   6.303 -0.0288 -0.5510  0.1434
13302SOL    HW151630   5.738  11.359   6.240 -1.9187 -0.2441  1.5051
13302SOL    HW251631   5.811  11.355   6.372  0.6288 -0.9367  0.1409
13303SOL     OW51632   9.514   0.218   9.912  0.1515 -0.0856 -0.0573
13303SOL    HW151633   9.574   0.237   9.984  1.0521 -1.1869 -0.4864
13303SOL    HW251634   9.522   0.123   9.899 -0.3212  0.0330 -1.3221
13304SOL     OW51635   8.222   3.779   1.373  0.0200 -0.2708  0.1809
13304SOL    HW151636   8.278   3.719   1.325  0.2437 -1.1034  1.4322
13304SOL    HW251637   8.198   3.731   1.453 -2.3140  0.1238 -0.2056
13305SOL     OW51638   2.112   4.151  10.837  0.0647 -0.2454 -0.8313
13305SOL    HW151639   2.204   4.165  10.812 -0.7258  3.0448 -2.4311
13305SOL    HW251640   2.101   4.201  10.918 -0.5871  0.5972 -1.4142
13306SOL     OW51641   2.955   9.580   7.569 -0.4891 -0.0345 -0.4957
13306SOL    HW151642   2.923   9.571   7.479 -0.3895  0.5662 -0.5969
13306SOL    HW251643   2.971   9.674   7.579 -0.9812 -0.0323  0.3194
13307SOL     OW51644   8.753   5.021   0.226 -0.1624 -0.0991  0.7189
13307SOL    HW151645   8.728   4.972   0.147  0.6969 -1.2599  1.1316
13307SOL    HW251646   8.752   5.113   0.199  2.9144 -0.5431 -1.5654
13308SOL     OW51647   5.127   5.568   2.418 -0.5771 -0.1205  0.5852
13308SOL    HW151648   5.212   5.611   2.424 -0.3530 -0.6961  1.8300
13308SOL    HW251649   5.132   5.516   2.338  0.3936 -0.4684  0.8561
13309SOL     OW51650   4.911   4.075   0.330  0.4843 -0.4339  0.4511
13309SOL    HW151651   4.853   4.064   0.255  0.5960  1.6845 -0.0159
13309SOL    HW251652   4.950   4.162   0.318  0.5235 -0.0239  2.9494
13310SOL     OW51653   9.682   8.564   7.435  0.7227 -0.0691  0.3308
13310SOL    HW151654   9.725   8.493   7.387  0.0107 -1.1503  1.2325
13310SOL    HW251655   9.661   8.629   7.368 -0.3847 -1.5916 -0.8628
13311SOL     OW51656   9.090   6.277   6.863  0.4177  0.2703 -0.1083
13311SOL    HW151657   9.059   6.245   6.947 -0.5136 -0.2255 -0.6202
13311SOL    HW251658   9.152   6.346   6.885  1.1712 -0.7187  0.9917
13312SOL     OW51659   9.098   1.243   6.352  0.0732 -0.8558  0.2899
13312SOL    HW151660   9.138   1.283   6.275 -0.0475  0.3444  0.8312
13312SOL    HW251661   9.056   1.315   6.398  1.1769 -1.3111  2.1339
13313SOL     OW51662   4.229   0.001   1.821 -0.0584  0.7571 -0.9577
13313SOL    HW151663   4.259   0.032   1.735 -2.1711  0.9682 -1.6845
13313SOL    HW251664   4.160  -0.062   1.800 -1.0944  1.3316  0.5902
13314SOL     OW51665   1.346   9.086   5.334  0.2789 -0.2640  0.6515
13314SOL    HW151666   1.397   9.143   5.276 -1.5225  0.5242 -0.2461
13314SOL    HW251667   1.300   9.146   5.393 -0.3250 -0.8728  0.8137
13315SOL     OW51668   2.989   2.873   5.542 -0.5707 -0.1157 -0.2885
13315SOL    HW151669   3.015   2.900   5.454 -1.1461  2.0325  0.1459
13315SOL    HW251670   2.898   2.903   5.550 -0.7400 -0.8578  0.8217
13316SOL     OW51671  10.779   5.077   7.405 -0.1155  0.0258 -0.3502
13316SOL    HW151672  10.711   5.143   7.408  0.7814  0.9454  0.3660
13316SOL    HW251673  10.861   5.126   7.401  0.6273 -1.0161  1.0790
13317SOL     OW51674   1.229   5.152  10.744 -0.0346 -0.2585 -0.2010
13317SOL    HW151675   1.198   5.151  10.834  0.1804 -0.7714 -0.1333
13317SOL    HW251676   1.152   5.179  10.693  0.8414  4.5721  0.4971
13318SOL     OW51677   3.981   5.218   0.266 -0.4990 -0.3770 -0.4373
13318SOL    HW151678   3.909   5.156   0.255 -1.8716  1.5597 -4.2354
13318SOL    HW251679   3.957   5.269   0.343 -0.3280 -3.0886  1.5710
13319SOL     OW51680   2.346  11.934   8.630 -0.2535 -0.3681  0.1732
13319SOL    HW151681   2.295  11.943   8.710 -1.2199  1.9104 -0.6101
13319SOL    HW251682   2.435  11.960   8.654 -0.8008  1.5233  0.3029
13320SOL     OW51683   3.294   4.187  11.679  0.1084 -0.2925 -0.2880
13320SOL    HW151684   3.334   4.102  11.658 -1.0757 -0.1439 -3.6532
13320SOL    HW251685   3.212   4.164  11.722 -1.0644 -1.0221 -2.7636
13321SOL     OW51686   0.914   8.247   8.638  0.1773  0.7357 -0.4387
13321SOL    HW151687   0.834   8.265   8.589  0.3477  1.3746 -0.4996
13321SOL    HW251688   0.886   8.242   8.729  0.3021  2.8301 -0.2306
13322SOL     OW51689   2.425   0.663   3.095  0.0214  0.0542 -0.3332
13322SOL    HW151690   2.463   0.702   3.173 -0.9602  0.2452  0.0647
13322SOL    HW251691   2.496   0.665   3.030  1.5475 -2.0714  1.1579
13323SOL     OW51692   1.554   4.525   9.272 -0.0643 -0.0379 -0.3186
13323SOL    HW151693   1.526   4.584   9.202  1.7695  1.0849 -0.1913
13323SOL    HW251694   1.505   4.444   9.257 -0.5135  0.5313 -2.2385
13324SOL     OW51695   3.310   8.964   0.119  0.3806  0.0722 -0.1963
13324SOL    HW151696   3.313   8.882   0.069  0.4358  0.1190 -0.2690
13324SOL    HW251697   3.352   8.942   0.203 -0.0509 -0.1093 -0.0235
13325SOL     OW51698   7.071   4.059   2.222  0.1085  0.2453 -0.2306
13325SOL    HW151699   6.988   4.033   2.183  0.4392 -1.2069 -0.0147
13325SOL    HW251700   7.137   4.005   2.178  0.9462  1.3162 -0.3482
13326SOL     OW51701   3.244   8.049  11.316  0.4719 -0.0816 -0.5278
13326SOL    HW151702   3.198   8.127  11.284  0.3572  0.3495  0.6349
13326SOL    HW251703   3.311   8.032  11.250 -1.0048 -0.4261 -2.0006
13327SOL     OW51704   2.664  10.502   6.129  0.5081 -0.5664 -0.2204
13327SOL    HW151705   2.612  10.582   6.122  0.2828 -0.6395  0.5424
13327SOL    HW251706   2.629  10.457   6.206  2.0163 -0.3818  0.6033
13328SOL     OW51707   6.781   1.312   9.214  0.5497  0.0913 -0.3730
13328SOL    HW151708   6.724   1.235   9.214  0.1783  0.3291  0.9100
13328SOL    HW251709   6.861   1.283   9.258  0.6443  0.2767 -0.4196
13329SOL     OW51710   2.017   6.785   9.122 -0.1214 -0.0569  0.4125
13329SOL    HW151711   2.057   6.699   9.132  1.4326  0.5185 -0.4551
13329SOL    HW251712   2.054   6.837   9.194  0.8317  0.5009 -0.4406
13330SOL     OW51713   2.144   8.753   2.989  0.0499 -0.0127 -0.0881
13330SOL    HW151714   2.133   8.828   2.931  1.0559 -0.1842 -0.5192
13330SOL    HW251715   2.146   8.677   2.931  0.4325 -0.2409  0.2150
13331SOL     OW51716   0.003   6.295  10.057 -0.1702 -0.3275 -0.4459
13331SOL    HW151717  -0.048   6.352   9.999 -0.9609 -0.5032  0.0666
13331SOL    HW251718  -0.016   6.207  10.027 -1.7534 -0.5100  0.9806
13332SOL     OW51719   6.936   8.932   1.556  0.2229  0.3359  0.4177
13332SOL    HW151720   7.019   8.944   1.510 -0.8523  0.3645 -1.6030
13332SOL    HW251721   6.907   9.021   1.578  0.5623  0.3422  0.8561
13333SOL     OW51722   8.694   4.640   2.021  0.4448 -0.2974  0.6125
13333SOL    HW151723   8.623   4.596   2.068 -0.8945 -0.6582 -1.5480
13333SOL    HW251724   8.682   4.733   2.042 -1.7742 -0.1436 -0.9067
13334SOL     OW51725   9.356   3.434   2.789 -0.4976 -0.1150  0.0754
13334SOL    HW151726   9.433   3.486   2.768 -0.5380  0.1449  0.5684
13334SOL    HW251727   9.375   3.347   2.753 -1.1865  0.6728 -2.3926
13335SOL     OW51728   1.626   8.875   5.482 -0.5472  0.7555  0.8641
13335SOL    HW151729   1.616   8.968   5.502  0.9567  0.9412  0.8778
13335SOL    HW251730   1.707   8.850   5.527 -1.0770 -0.6306  1.0786
13336SOL     OW51731   1.602   1.827   6.822  0.1880 -0.1661 -0.0430
13336SOL    HW151732   1.522   1.823   6.874  0.1153  2.3256  0.1587
13336SOL    HW251733   1.641   1.740   6.831 -3.2804 -2.0476 -1.5351
13337SOL     OW51734  10.604   7.535   7.874 -0.0845 -0.0765 -0.5425
13337SOL    HW151735  10.656   7.473   7.822 -1.0175 -0.1872 -1.3814
13337SOL    HW251736  10.599   7.495   7.961  0.6033 -0.4237 -0.6536
13338SOL     OW51737   2.316   6.053   4.157 -0.0808 -0.1925 -0.5551
13338SOL    HW151738   2.409   6.031   4.166  0.1221  1.1328  0.9773
13338SOL    HW251739   2.310   6.095   4.071  0.9914  0.8216 -0.1511
13339SOL     OW51740   8.673   4.990  10.045 -0.3738 -0.0745  0.6995
13339SOL    HW151741   8.700   4.909  10.002  1.3937  0.5316  0.5799
13339SOL    HW251742   8.672   5.055   9.974 -1.9157  0.0141  0.7650
13340SOL     OW51743   6.918   3.299  11.300 -0.1952 -0.6585 -0.8893
13340SOL    HW151744   6.877   3.380  11.329  1.0178 -0.0618 -0.7374
13340SOL    HW251745   6.850   3.233  11.309 -1.6636  0.5740 -2.3560
13341SOL     OW51746   2.967   8.386   0.012  0.2552  0.1817 -0.2861
13341SOL    HW151747   2.937   8.452   0.074 -0.0167 -1.6056  1.5875
13341SOL    HW251748   3.058   8.368   0.038  0.6962  0.5828 -1.4872
13342SOL     OW51749   6.580  10.980   0.065 -0.2132 -0.2018 -0.8809
13342SOL    HW151750   6.531  10.917   0.118 -0.7457 -0.9127 -2.1998
13342SOL    HW251751   6.646  10.928   0.020 -0.3923  0.2390 -1.6716
13343SOL     OW51752   3.905   2.360   9.041  0.5959 -0.0134  0.2330
13343SOL    HW151753   3.926   2.361   9.134 -1.0883  1.9673  0.6790
13343SOL    HW251754   3.913   2.452   9.014 -0.2003 -0.3496 -1.2476
13344SOL     OW51755   6.895   2.955   6.310  0.3376 -0.5396  0.5038
13344SOL    HW151756   6.886   2.944   6.215 -0.9692 -0.7803  0.6399
13344SOL    HW251757   6.869   2.870   6.346  1.0476 -0.5210  1.0875
13345SOL     OW51758  11.194   7.266   0.508 -0.1505 -0.1348  0.0871
13345SOL    HW151759  11.234   7.180   0.494 -0.5846 -0.0058 -2.2558
13345SOL    HW251760  11.210   7.285   0.601  3.9001 -0.7419 -0.3276
13346SOL     OW51761   1.216   9.839   5.994  0.4583  0.0370 -0.9890
13346SOL    HW151762   1.286   9.805   5.939  1.1928 -1.0827  0.5479
13346SOL    HW251763   1.260   9.902   6.052 -0.1196  0.5433 -1.0947
13347SOL     OW51764   8.223   5.555   5.136 -0.0495 -0.9281  0.0130
13347SOL    HW151765   8.139   5.590   5.165  0.6058 -0.0537  0.9705
13347SOL    HW251766   8.206   5.463   5.116 -1.5906 -0.3703 -1.4768
13348SOL     OW51767  10.887   1.479  11.954 -0.0350 -0.1975  0.3327
13348SOL    HW151768  10.928   1.453  12.037 -0.5551 -0.8593  0.3851
13348SOL    HW251769  10.868   1.397  11.909 -0.9904  0.1124  0.1502
13349SOL     OW51770   7.981   2.210   2.889  0.3398  0.8139 -0.7802
13349SOL    HW151771   7.972   2.144   2.958 -2.3405 -0.4523 -2.1952
13349SOL    HW251772   8.076   2.222   2.879  0.8552 -1.0256  1.1425
13350SOL     OW51773  10.491  11.640   8.465  0.2282 -0.3565 -0.4406
13350SOL    HW151774  10.443  11.661   8.546 -0.3890  0.3508 -0.9792
13350SOL    HW251775  10.552  11.713   8.453 -1.0402  0.5540 -1.6390
13351SOL     OW51776   6.395  11.613   9.185  0.2334 -0.4108 -0.0119
13351SOL    HW151777   6.389  11.612   9.281  0.1569 -0.2596 -0.0146
13351SOL    HW251778   6.486  11.634   9.167 -0.1417  1.3753  0.0270
13352SOL     OW51779   6.202   1.116   3.485  0.1622  0.1023  0.0983
13352SOL    HW151780   6.295   1.135   3.472  0.2018  1.4377  1.8700
13352SOL    HW251781   6.197   1.086   3.576 -1.1006 -0.3085 -0.0872
13353SOL     OW51782   7.651   9.114   1.586 -0.0627  0.0357  0.3443
13353SOL    HW151783   7.707   9.084   1.658 -0.0042  0.2383  0.3840
13353SOL    HW251784   7.685   9.201   1.564  0.1839 -0.1975 -0.2040
13354SOL     OW51785   2.871   0.116   5.310  0.2590  0.1084 -0.1251
13354SOL    HW151786   2.881   0.207   5.338  0.5173  0.6484 -1.8114
13354SOL    HW251787   2.884   0.119   5.215 -1.2616 -1.4661 -0.4345
13355SOL     OW51788  11.844  10.957   8.397  0.5380 -0.2459 -0.1858
13355SOL    HW151789  11.899  10.937   8.473 -0.3541 -0.0325  0.5245
13355SOL    HW251790  11.902  10.942   8.322  1.5796 -0.0048  0.5395
13356SOL     OW51791  11.354   7.199   5.924 -0.9574 -0.0110  0.0873
13356SOL    HW151792  11.418   7.207   5.995  1.1839 -0.1609 -1.7082
13356SOL    HW251793  11.355   7.285   5.882 -1.6452 -0.1563 -0.2422
13357SOL     OW51794   1.886   1.491   7.379  0.2069 -0.5977 -0.2445
13357SOL    HW151795   1.896   1.581   7.347  1.2546 -0.8152 -0.5822
13357SOL    HW251796   1.832   1.499   7.457 -1.1602  0.1220 -1.2207
13358SOL     OW51797   4.918   8.133   6.716  0.0645  0.0256  0.0747
13358SOL    HW151798   4.960   8.193   6.777  0.0851  1.6897 -1.4928
13358SOL    HW251799   4.833   8.174   6.697  0.6082  0.2834 -2.0147
13359SOL     OW51800   7.468   4.185   3.908 -0.1715 -0.4840  0.0840
13359SOL    HW151801   7.513   4.206   3.826 -0.0067  0.9232  0.5111
13359SOL    HW251802   7.375   4.187   3.885 -0.1968  1.4235  0.2289
13360SOL     OW51803   8.807   1.570   0.123 -0.2892 -0.2685  0.1268
13360SOL    HW151804   8.829   1.615   0.041  0.7375 -0.1093  0.4749
13360SOL    HW251805   8.757   1.635   0.173  0.5108  0.2228  0.3038
13361SOL     OW51806   5.903   9.289   9.591  0.2834 -0.6465  0.0751
13361SOL    HW151807   5.931   9.294   9.683  1.5870 -0.7528 -0.2922
13361SOL    HW251808   5.977   9.325   9.542  0.2629 -2.0765 -1.0403
13362SOL     OW51809   9.549   7.959   5.263  0.0780 -0.3993  0.1368
13362SOL    HW151810   9.561   8.043   5.219  1.0443 -0.4016  0.3877
13362SOL    HW251811   9.454   7.950   5.271 -0.0711  0.2046 -0.7722
13363SOL     OW51812   9.440   4.928   0.953 -0.9506  0.2018  0.1445
13363SOL    HW151813   9.444   4.921   0.857  0.8977 -0.2984  0.2248
13363SOL    HW251814   9.442   4.838   0.984 -0.8784  0.3784  0.6676
13364SOL     OW51815   5.410  10.581   1.099  0.0935 -0.0352  0.0505
13364SOL    HW151816   5.504  10.596   1.089 -0.0234 -0.2578 -1.6154
13364SOL    HW251817   5.403  10.494   1.137  0.5491 -1.0863 -2.1499
13365SOL     OW51818  10.934   5.407   4.041 -0.4503 -0.5400 -0.6018
13365SOL    HW151819  10.931   5.314   4.065  0.2386 -0.2908  0.5337
13365SOL    HW251820  10.990   5.410   3.964  0.3405 -0.9561 -0.0488
13366SOL     OW51821   8.971   8.260  10.431 -0.0465  0.0682 -0.0298
13366SOL    HW151822   8.908   8.330  10.448 -0.5420 -0.0040 -1.3960
13366SOL    HW251823   9.052   8.306  10.409  0.5731  0.1590  2.2283
13367SOL     OW51824   4.279   5.803   5.932  0.1460  0.0430  0.7538
13367SOL    HW151825   4.224   5.772   6.003  0.6397 -0.2624  1.0038
13367SOL    HW251826   4.367   5.809   5.969  0.2600  0.6968  0.4097
13368SOL     OW51827   6.503   9.804   5.440  0.0024  0.0750 -0.1172
13368SOL    HW151828   6.540   9.850   5.516 -0.1578 -1.5845  1.0165
13368SOL    HW251829   6.523   9.861   5.365  2.5248  0.5122  0.8013
13369SOL     OW51830   9.644  10.938   7.174 -0.1895  0.0275 -0.0504
13369SOL    HW151831   9.629  10.999   7.101 -1.3493 -0.1188  0.0469
13369SOL    HW251832   9.716  10.882   7.144 -0.9062 -0.2898 -1.2544
13370SOL     OW51833   1.621   8.928   8.097  0.9461  0.6926 -0.2340
13370SOL    HW151834   1.603   9.007   8.045  0.1609  0.0344 -1.0020
13370SOL    HW251835   1.672   8.872   8.038 -0.5033 -0.3346 -0.5851
13371SOL     OW51836   1.311  10.517  11.277 -0.3289 -0.1380  0.0609
13371SOL    HW151837   1.234  10.550  11.323 -0.5027  0.1398 -0.4232
13371SOL    HW251838   1.352  10.596  11.239  0.1031 -0.3009  0.1816
13372SOL     OW51839   5.358   6.781   9.459 -0.1893  0.8914  0.0200
13372SOL    HW151840   5.446   6.801   9.425 -0.7292  2.3591 -0.5792
13372SOL    HW251841   5.342   6.691   9.431  0.9335  0.7620 -0.2684
13373SOL     OW51842   7.343   2.297   0.304 -0.7115  0.6008  0.1755
13373SOL    HW151843   7.276   2.246   0.258  0.5541 -1.3579  0.3890
13373SOL    HW251844   7.423   2.283   0.254 -0.1462  1.7986  0.6855
13374SOL     OW51845   3.017   6.041   7.205  0.0968 -0.5423  0.3860
13374SOL    HW151846   2.931   6.038   7.248  0.6208  0.8840  1.5929
13374SOL    HW251847   3.029   6.133   7.182  0.6226 -0.9909 -1.2516
13375SOL     OW51848   1.063   1.265  11.373  0.1834  0.1020 -0.1161
13375SOL    HW151849   1.138   1.312  11.337  1.0033 -1.0488  0.0248
13375SOL    HW251850   1.038   1.203  11.304 -0.3089  0.1157  0.0448
13376SOL     OW51851   2.477   8.478   0.119  0.4125 -0.2761  0.1493
13376SOL    HW151852   2.508   8.473   0.028 -1.1805 -0.3115 -0.4276
13376SOL    HW251853   2.392   8.433   0.117 -0.3606  1.0762  1.3252
13377SOL     OW51854   0.716   8.877   3.907  0.0900  0.0393 -0.3276
13377SOL    HW151855   0.749   8.788   3.919 -2.1845 -0.6935  1.2711
13377SOL    HW251856   0.772   8.931   3.963 -0.9553 -1.0962  1.9717
13378SOL     OW51857   2.158   1.568   6.322  0.5786 -0.3101 -0.1272
13378SOL    HW151858   2.136   1.658   6.299  1.3193  0.0415  0.4875
13378SOL    HW251859   2.230   1.544   6.263  0.4865 -0.4443 -0.1866
13379SOL     OW51860   9.277   0.241   5.648  0.2284 -0.1599  0.0621
13379SOL    HW151861   9.272   0.320   5.595  2.7820 -0.0052 -0.1047
13379SOL    HW251862   9.246   0.171   5.591 -2.3835  0.7027  0.3225
13380SOL     OW51863   1.130   2.722   1.484  0.4225 -0.5332 -0.3025
13380SOL    HW151864   1.141   2.636   1.525  2.2887 -0.1748  0.0333
13380SOL    HW251865   1.120   2.704   1.391  0.3961 -1.1241 -0.1858
13381SOL     OW51866  10.514   0.510   7.806 -0.2170 -0.7364 -0.3041
13381SOL    HW151867  10.589   0.526   7.749  0.1155  0.6258  0.4524
13381SOL    HW251868  10.509   0.415   7.814  1.0237 -0.8699 -0.8964
13382SOL     OW51869   9.474   4.695   0.509  0.4900 -0.1467 -0.0374
13382SOL    HW151870   9.529   4.698   0.431 -1.5725 -1.5345 -1.6477
13382SOL    HW251871   9.384   4.695   0.476 -0.6136  2.5161  2.4750
13383SOL     OW51872  10.028   9.004  10.232  0.2037  0.2875  0.6448
13383SOL    HW151873  10.050   9.085  10.187  0.0164  0.9504  1.7078
13383SOL    HW251874   9.946   8.975  10.192 -0.6415  1.5507  1.3962
13384SOL     OW51875   7.156   7.703   5.409  0.3524  0.1876  0.4766
13384SOL    HW151876   7.095   7.714   5.482 -1.5182  1.6478 -1.1909
13384SOL    HW251877   7.115   7.637   5.352 -0.1753  1.7807 -1.0815
13385SOL     OW51878   9.738   8.166   8.591 -0.8311 -0.5208 -0.0915
13385SOL    HW151879   9.679   8.180   8.665 -1.1904 -3.0839  0.1859
13385SOL    HW251880   9.822   8.146   8.631  0.2493  2.6662 -0.4884
13386SOL     OW51881   3.770   6.493  11.875  0.0985  0.4792  0.0507
13386SOL    HW151882   3.694   6.550  11.892  0.0649  0.4403  0.0331
13386SOL    HW251883   3.731   6.408  11.855  0.0899  0.7509 -1.1836
13387SOL     OW51884   7.387   6.860   8.404 -0.0234 -0.2478 -0.5463
13387SOL    HW151885   7.459   6.808   8.441  1.0198  1.6322  0.2124
13387SOL    HW251886   7.421   6.896   8.323 -0.3762  0.0569 -0.5656
13388SOL     OW51887   5.939   7.780   5.779 -0.1840 -0.2452 -0.0095
13388SOL    HW151888   5.894   7.720   5.838 -1.5682 -0.5771 -1.3443
13388SOL    HW251889   5.945   7.862   5.827 -2.3745 -0.1504  0.1960
13389SOL     OW51890   8.559   8.962   7.766 -0.0905  0.3124 -0.8906
13389SOL    HW151891   8.593   9.048   7.789 -0.0083 -0.2150  1.1857
13389SOL    HW251892   8.464   8.971   7.775 -0.0219 -0.0716  0.4833
13390SOL     OW51893   9.208   3.304   5.620  0.5324  0.6469  0.3125
13390SOL    HW151894   9.279   3.335   5.676  0.3590  2.5977 -0.4717
13390SOL    HW251895   9.227   3.340   5.533 -0.8240  0.2917 -0.1708
13391SOL     OW51896   4.717   3.765   4.683 -0.2298  0.0165 -0.1079
13391SOL    HW151897   4.789   3.733   4.627  0.0733  0.4792  0.0070
13391SOL    HW251898   4.671   3.686   4.710  0.9161 -0.4018  0.7394
13392SOL     OW51899   5.949   2.333   9.747  0.0496  0.3762  0.2491
13392SOL    HW151900   5.934   2.420   9.710  0.3988  0.5244  0.4518
13392SOL    HW251901   6.043   2.330   9.764 -0.1475  0.4427  1.4319
13393SOL     OW51902   8.118  10.636   8.724  0.0902  0.9575 -0.0713
13393SOL    HW151903   8.056  10.673   8.787  0.5965  2.6054 -0.4880
13393SOL    HW251904   8.204  10.644   8.766  0.3626  1.5210 -0.7047
13394SOL     OW51905   5.252   2.924   0.344 -0.1914 -0.0215  0.3057
13394SOL    HW151906   5.230   3.016   0.359 -1.0554 -0.1041 -0.3665
13394SOL    HW251907   5.168   2.883   0.324  0.2058 -0.9388  0.5058
13395SOL     OW51908  10.075   4.890   3.581  0.1033 -0.2417 -0.1508
13395SOL    HW151909  10.026   4.929   3.654 -0.2275 -0.6757 -0.1409
13395SOL    HW251910  10.030   4.922   3.503  1.5981  1.8174 -0.2746
13396SOL     OW51911   1.949   4.168   1.745  0.1066  0.7392 -0.2781
13396SOL    HW151912   1.926   4.198   1.833 -0.9668 -0.4020 -0.1404
13396SOL    HW251913   1.899   4.087   1.733  1.4204  0.0384 -1.3556
13397SOL     OW51914   8.930   0.403   6.170 -0.2919 -0.4504  0.2722
13397SOL    HW151915   8.898   0.491   6.192 -0.9986 -0.8171  0.7572
13397SOL    HW251916   8.966   0.369   6.252 -0.1384 -0.6684  0.1168
13398SOL     OW51917   7.368   0.507   7.252  0.4773  0.5665 -0.5004
13398SOL    HW151918   7.365   0.547   7.165  1.1239  0.3309 -0.6387
13398SOL    HW251919   7.416   0.425   7.239  0.1717  0.3036 -0.0076
13399SOL     OW51920   3.550   9.512  10.466  0.5588 -0.3436 -0.9524
13399SOL    HW151921   3.560   9.420  10.442 -1.1745 -0.3332 -1.9157
13399SOL    HW251922   3.500   9.550  10.393  0.8520  1.2489 -0.3594
13400SOL     OW51923   4.037   1.238  11.947 -0.1771 -0.2786 -0.1754
13400SOL    HW151924   3.984   1.174  11.901 -1.4451  1.2023 -0.8716
13400SOL    HW251925   4.034   1.316  11.892  0.4121  0.7366  1.1606
13401SOL     OW51926   8.011   4.809  10.878  0.9035  0.3783 -0.3133
13401SOL    HW151927   8.044   4.892  10.844  0.8790  1.0233  1.1397
13401SOL    HW251928   7.923   4.800  10.841  0.2919  1.7975  0.7097
13402SOL     OW51929   6.733   7.284   0.685  0.1928 -0.1604  0.1591
13402SOL    HW151930   6.680   7.325   0.753 -0.1502 -2.4190  1.3612
13402SOL    HW251931   6.671   7.261   0.616 -0.2058 -1.4446  0.9020
13403SOL     OW51932   5.584   2.205   2.738  0.5580  0.5647  0.0598
13403SOL    HW151933   5.543   2.172   2.658  0.9036 -1.7751  0.7517
13403SOL    HW251934   5.572   2.300   2.734  0.6285  0.5450 -2.7733
13404SOL     OW51935   1.068   1.800   8.573  0.2709  0.1947  0.7766
13404SOL    HW151936   1.048   1.882   8.529 -2.3138 -0.9855 -0.4820
13404SOL    HW251937   1.060   1.733   8.504  0.4675 -1.3014  2.1345
13405SOL     OW51938   1.705   0.798   7.310  0.3907  0.1775 -0.1790
13405SOL    HW151939   1.732   0.707   7.319 -0.2526 -0.1175 -1.1649
13405SOL    HW251940   1.667   0.804   7.223  1.1291  1.5740 -0.4357
13406SOL     OW51941   9.764   2.458   6.843  0.4323  0.0201 -0.1544
13406SOL    HW151942   9.718   2.374   6.831 -1.0761  0.5697  1.3780
13406SOL    HW251943   9.761   2.474   6.937  0.2299  2.0465 -0.4623
13407SOL     OW51944   9.931   7.725   8.098 -0.1476 -0.2976 -0.0473
13407SOL    HW151945  10.017   7.684   8.093 -0.4690 -0.8926 -0.8170
13407SOL    HW251946   9.941   7.808   8.052 -0.1524 -0.6805 -0.7601
13408SOL     OW51947   1.751  10.602   7.561  0.1018 -0.6657  0.0350
13408SOL    HW151948   1.808  10.633   7.632  0.3300  0.0568 -0.4537
13408SOL    HW251949   1.684  10.551   7.605  0.7138 -0.9213  0.6951
13409SOL     OW51950   0.797   9.149   9.527 -0.0676  0.7403 -0.3495
13409SOL    HW151951   0.870   9.087   9.526 -0.4311  0.3004 -0.9953
13409SOL    HW251952   0.825   9.220   9.469 -0.8377 -0.2904 -2.0718
13410SOL     OW51953  11.045   1.151   9.345 -0.2315 -0.6540 -0.1582
13410SOL    HW151954  10.995   1.212   9.291  0.0417  0.1798  0.4971
13410SOL    HW251955  11.074   1.204   9.420  1.5163 -1.1479 -0.4463
13411SOL     OW51956   3.593   5.092   5.058  0.3182 -0.6394  0.2953
13411SOL    HW151957   3.540   5.015   5.079  0.0696 -0.6842 -0.4590
13411SOL    HW251958   3.648   5.065   4.985  1.4657 -0.6152  1.1157
13412SOL     OW51959   7.992   7.630   0.082  0.1386 -0.1892 -0.7096
13412SOL    HW151960   7.927   7.567   0.054 -2.3099  0.3731  2.9411
13412SOL    HW251961   8.021   7.599   0.168  3.9358  0.2545 -1.6318
13413SOL     OW51962   8.020   5.333   6.159 -0.6256  0.0047  0.0118
13413SOL    HW151963   8.004   5.416   6.114 -1.9187  1.2174  2.5260
13413SOL    HW251964   8.001   5.266   6.093 -1.2695  1.6649 -1.5715
13414SOL     OW51965   6.190   0.038   9.073 -0.0230  0.2092 -0.1841
13414SOL    HW151966   6.208   0.057   8.981 -1.6576 -1.5851 -0.9295
13414SOL    HW251967   6.261  -0.021   9.099 -1.1863 -1.7996 -1.2783
13415SOL     OW51968   3.367  11.220   1.627  0.2058  0.2453  0.2076
13415SOL    HW151969   3.413  11.137   1.610  1.0136  0.3043  1.8745
13415SOL    HW251970   3.396  11.278   1.557  0.1693 -0.6598 -0.5929
13416SOL     OW51971   7.569   4.424   2.726 -0.3243  0.4518 -0.6039
13416SOL    HW151972   7.536   4.354   2.782  1.4409  1.0618  1.3376
13416SOL    HW251973   7.598   4.379   2.647  0.0791 -0.9204  0.2792
13417SOL     OW51974   6.308   1.344   4.019  0.8597  0.4457  0.6540
13417SOL    HW151975   6.259   1.411   3.973  0.8682  0.7289  1.0491
13417SOL    HW251976   6.247   1.312   4.087 -0.4357 -2.3666 -1.6069
13418SOL     OW51977   6.713   9.323   0.150 -0.6423 -0.0302 -0.0013
13418SOL    HW151978   6.670   9.286   0.073 -0.3222 -0.7969  0.1834
13418SOL    HW251979   6.789   9.369   0.115  0.4188 -1.7339 -0.0329
13419SOL     OW51980   1.266  11.063   8.023  0.1348 -0.2984 -0.2043
13419SOL    HW151981   1.297  11.016   8.102  0.2791  1.3807  0.7796
13419SOL    HW251982   1.197  11.121   8.055 -1.0751 -0.8583 -1.6593
13420SOL     OW51983   1.884   0.625   9.775  0.1678  0.4992 -0.1241
13420SOL    HW151984   1.934   0.702   9.799  1.0264 -0.2788  0.6669
13420SOL    HW251985   1.794   0.646   9.798  0.5665  0.8354  1.1876
13421SOL     OW51986   4.933   3.499   9.117 -0.0275  0.1110  0.1424
13421SOL    HW151987   4.987   3.424   9.143  1.3996  0.8880 -0.5048
13421SOL    HW251988   4.895   3.472   9.034  2.7159  1.0771 -1.5668
13422SOL     OW51989   1.568   2.348   1.871  0.3711  0.1704  0.2666
13422SOL    HW151990   1.632   2.418   1.886  0.6759 -0.2259  0.8934
13422SOL    HW251991   1.616   2.268   1.893  0.0402 -0.2369 -0.4799
13423SOL     OW51992   4.704  11.686   9.793  0.3291  0.5224  0.2089
13423SOL    HW151993   4.720  11.632   9.871 -0.8115  0.0538  0.1395
13423SOL    HW251994   4.648  11.757   9.824 -0.6239  0.0096 -0.2740
13424SOL     OW51995   5.997   6.010  10.547 -0.0855  0.3337 -0.1114
13424SOL    HW151996   6.043   6.036  10.466 -0.6293 -0.9938 -0.8743
13424SOL    HW251997   6.065   5.968  10.600 -0.3162 -1.4843 -1.1701
13425SOL     OW51998   8.457  10.082   6.879  0.3917 -0.4299 -0.1574
13425SOL    HW151999   8.428  10.157   6.930 -0.0179 -1.3028  0.9421
13425SOL    HW252000   8.503  10.120   6.804  1.0263  0.8887  0.8633
13426SOL     OW52001   1.860   3.640   5.935  0.5364  0.1547  0.4897
13426SOL    HW152002   1.825   3.568   5.883  0.3843 -1.5174  2.7311
13426SOL    HW252003   1.789   3.663   5.995  1.8173 -0.4785  2.3321
13427SOL     OW52004   6.612   1.271   6.060 -0.1687  0.0965  0.0327
13427SOL    HW152005   6.568   1.190   6.033 -0.3282  0.0317  0.4736
13427SOL    HW252006   6.695   1.270   6.013  0.3725 -0.9291  0.9280
13428SOL     OW52007   2.468   3.038   9.424  0.5048  0.2636  0.5451
13428SOL    HW152008   2.464   3.050   9.329  1.5790 -0.9861  0.3130
13428SOL    HW252009   2.454   2.944   9.437 -1.3135  0.6548  1.7767
13429SOL     OW52010   4.868   6.468   9.915  0.0955 -0.0847  0.1680
13429SOL    HW152011   4.799   6.454   9.979 -1.4659 -0.4325 -1.4867
13429SOL    HW252012   4.825   6.514   9.843  2.6079  3.8283  0.8708
13430SOL     OW52013   9.432   4.969   6.045 -0.3585 -0.2905  0.0980
13430SOL    HW152014   9.367   4.977   6.115 -0.1623 -2.1892  0.5451
13430SOL    HW252015   9.506   5.022   6.074 -0.7459 -0.1006  0.7605
13431SOL     OW52016   2.701   6.360   9.959  0.3356  0.0247  0.4736
13431SOL    HW152017   2.724   6.303   9.886  0.4597 -1.3053  1.5145
13431SOL    HW252018   2.706   6.304  10.037 -3.0693  0.4504  1.1787
13432SOL     OW52019   1.700   7.721   9.160  0.1683  0.1872  0.0279
13432SOL    HW152020   1.777   7.777   9.165 -0.5157  1.0746  1.6563
13432SOL    HW252021   1.710   7.660   9.233 -0.8645  0.6337  0.5727
13433SOL     OW52022   6.282   5.613   2.308 -0.0438  0.1111 -0.6780
13433SOL    HW152023   6.298   5.519   2.295  0.7950  0.3584 -1.5743
13433SOL    HW252024   6.286   5.626   2.402  0.6554 -0.6178 -0.6013
13434SOL     OW52025   5.961   0.914   9.706  0.0632  0.3778 -0.0501
13434SOL    HW152026   5.991   0.966   9.631 -0.3157 -0.7683 -1.0468
13434SOL    HW252027   5.922   0.977   9.766  1.2346  1.4536 -0.3636
13435SOL     OW52028   6.779   0.081   7.735 -0.5051  0.1176  0.3144
13435SOL    HW152029   6.763   0.172   7.762  0.9533  0.5550 -0.2009
13435SOL    HW252030   6.842   0.047   7.798  0.4055  0.0940 -0.5809
13436SOL     OW52031   2.195   3.700   8.479 -0.2308 -0.1440  0.3086
13436SOL    HW152032   2.167   3.614   8.448 -2.9412  0.1755  1.5709
13436SOL    HW252033   2.185   3.757   8.403  0.5573 -0.7057 -0.2387
13437SOL     OW52034   2.537   8.610   5.083 -0.3504 -0.8081 -0.9480
13437SOL    HW152035   2.587   8.686   5.112  1.4314 -1.8875 -1.0799
13437SOL    HW252036   2.545   8.547   5.154  0.5938 -1.9259 -2.0158
13438SOL     OW52037   8.569   4.306  11.445  0.8926  0.4429 -0.1071
13438SOL    HW152038   8.592   4.334  11.533 -0.7425 -0.2526  0.5771
13438SOL    HW252039   8.651   4.311  11.396  1.9888  0.1833  1.6199
13439SOL     OW52040   2.861   0.902   6.548  0.2826  0.0073 -0.2952
13439SOL    HW152041   2.846   0.848   6.470 -0.8237  0.0616 -0.1378
13439SOL    HW252042   2.845   0.991   6.519  0.3611  0.0765 -0.1256
13440SOL     OW52043   3.114   1.953   0.104  0.2250  0.3599  0.1019
13440SOL    HW152044   3.049   1.883   0.103  0.2668  0.3086  0.5297
13440SOL    HW252045   3.198   1.908   0.108  0.2932  0.4256 -0.5677
13441SOL     OW52046   4.580   0.337   2.805  0.7100 -0.0339 -0.8586
13441SOL    HW152047   4.588   0.266   2.868  0.3002 -1.3613 -2.2554
13441SOL    HW252048   4.655   0.393   2.822 -1.0867  1.6207  3.1128
13442SOL     OW52049   4.686   3.333   1.312 -0.0192  0.7018 -0.0375
13442SOL    HW152050   4.615   3.310   1.372  0.6741 -0.3025  0.4318
13442SOL    HW252051   4.760   3.354   1.368  0.4737  0.2994 -0.5244
13443SOL     OW52052   5.160   0.349  10.815 -0.2590  0.0165  0.0811
13443SOL    HW152053   5.083   0.395  10.784 -0.9976  0.0936  1.8844
13443SOL    HW252054   5.216   0.339  10.738 -0.4470  3.1499 -0.5814
13444SOL     OW52055   7.585   8.067  10.654  0.4074 -0.3701  0.6646
13444SOL    HW152056   7.570   7.974  10.668  0.2628 -0.2251  1.5244
13444SOL    HW252057   7.508   8.097  10.606  0.7896 -0.8293 -0.2612
13445SOL     OW52058   9.163   4.225   2.529  0.3839 -0.1133 -0.1354
13445SOL    HW152059   9.135   4.216   2.620 -0.5061  0.5230 -0.3324
13445SOL    HW252060   9.202   4.312   2.524  0.0825  0.0052 -0.4491
13446SOL     OW52061   6.296   8.565   2.689 -0.0676  0.3285 -0.6262
13446SOL    HW152062   6.315   8.642   2.636 -0.2963 -0.0111 -1.2194
13446SOL    HW252063   6.369   8.558   2.750  0.0031  0.9552 -0.6354
13447SOL     OW52064  10.417   1.885   9.912  0.5508 -0.6051  0.7000
13447SOL    HW152065  10.474   1.827   9.962  0.5191 -1.1902  0.0829
13447SOL    HW252066  10.344   1.905   9.971  1.3895  0.1735  1.5053
13448SOL     OW52067   2.170  10.563   4.465  0.6950  0.3036 -0.2050
13448SOL    HW152068   2.131  10.634   4.413 -1.3120 -0.0338  0.7484
13448SOL    HW252069   2.262  10.589   4.475  0.1496  2.4933 -0.3602
13449SOL     OW52070  11.007   3.542   7.006  0.0298 -0.0125  0.6879
13449SOL    HW152071  10.979   3.579   7.090  0.7455 -1.6456  1.6891
13449SOL    HW252072  10.963   3.457   7.001  3.0308 -1.7660  1.3891
13450SOL     OW52073   3.886   1.880  10.969  0.2376  0.6895 -0.1955
13450SOL    HW152074   3.859   1.911  11.055 -0.2006 -0.7841  0.2367
13450SOL    HW252075   3.980   1.869  10.976  0.0669 -0.5279  0.5069
13451SOL     OW52076   9.635   5.913   7.865 -0.3500  0.2974  0.5106
13451SOL    HW152077   9.634   5.958   7.950 -1.3281 -0.2875  0.8306
13451SOL    HW252078   9.708   5.851   7.872 -0.3097  0.3803  0.8594
13452SOL     OW52079   0.745   3.572  11.140 -0.1560  0.3642 -0.3170
13452SOL    HW152080   0.831   3.552  11.177  0.3434  0.8318 -1.2003
13452SOL    HW252081   0.726   3.498  11.082 -1.0876 -0.5354  1.0734
13453SOL     OW52082  10.515   8.220   7.997 -0.0575  0.3378  0.5603
13453SOL    HW152083  10.503   8.143   7.941 -0.6658  0.3930  0.5989
13453SOL    HW252084  10.492   8.294   7.940 -0.1229  0.4371  0.7158
13454SOL     OW52085   7.416   1.499   2.612  0.4737  0.4859  0.4330
13454SOL    HW152086   7.481   1.508   2.543  1.3976 -0.7013  1.0981
13454SOL    HW252087   7.335   1.478   2.566  0.8489  0.6940 -0.3407
13455SOL     OW52088   1.732   8.315   5.298  0.4035 -0.1649 -0.4551
13455SOL    HW152089   1.678   8.278   5.368  0.9321 -0.0097  0.0414
13455SOL    HW252090   1.730   8.409   5.313  0.4310 -0.1205 -0.7213
13456SOL     OW52091   6.701  11.523   2.202 -0.6009  0.1480 -0.0393
13456SOL    HW152092   6.644  11.491   2.131 -0.9034  2.5994 -1.0006
13456SOL    HW252093   6.782  11.549   2.157 -0.0593 -0.0343  0.8141
13457SOL     OW52094   0.465   0.798   4.385 -0.1029  0.2053 -0.1022
13457SOL    HW152095   0.399   0.854   4.345  0.1013 -0.9506 -2.2014
13457SOL    HW252096   0.517   0.765   4.311  1.6686 -0.3764  1.3142
13458SOL     OW52097  10.382   3.390   5.747  0.2225 -0.0193  0.4244
13458SOL    HW152098  10.435   3.450   5.694  0.3337  2.2340  2.8743
13458SOL    HW252099  10.291   3.412   5.723  0.2783 -1.1332 -0.9303
13459SOL     OW52100   4.069   2.066   2.645 -0.2368 -0.4928 -0.0328
13459SOL    HW152101   4.064   2.116   2.563  0.4772 -0.0196  0.2097
13459SOL    HW252102   4.159   2.077   2.675  0.1243 -2.4139 -0.2697
13460SOL     OW52103  10.862   0.893   7.220 -0.3259  0.4708 -0.2318
13460SOL    HW152104  10.842   0.942   7.299  0.7544  1.7862 -0.7218
13460SOL    HW252105  10.792   0.915   7.159 -0.2943  0.7685 -0.1651
13461SOL     OW52106   8.411   0.122   3.279 -0.2189  0.3196 -0.6737
13461SOL    HW152107   8.487   0.113   3.222  0.2855 -1.1335  0.1635
13461SOL    HW252108   8.355   0.048   3.257 -1.0304  0.9304 -0.7266
13462SOL     OW52109   6.484  11.712   5.978  0.5403 -0.1040 -0.3988
13462SOL    HW152110   6.501  11.747   5.890  1.6836  1.1804  0.2980
13462SOL    HW252111   6.390  11.697   5.981  0.2042  1.6759 -1.1913
13463SOL     OW52112   0.592   1.254   9.962 -0.1573 -0.5752  0.0242
13463SOL    HW152113   0.576   1.162   9.943  0.1722 -0.4659 -0.8389
13463SOL    HW252114   0.686   1.260   9.977  0.0193 -0.2089 -1.0785
13464SOL     OW52115  10.249   5.232   7.332  0.4667  0.4079 -0.2365
13464SOL    HW152116  10.296   5.258   7.253  0.9778  0.5448  0.1100
13464SOL    HW252117  10.258   5.137   7.335 -0.2821  0.3132 -0.7971
13465SOL     OW52118   4.217   4.450   9.248 -0.3105 -0.2984  0.1275
13465SOL    HW152119   4.264   4.367   9.259  0.0178 -0.1233  0.0535
13465SOL    HW252120   4.124   4.426   9.256 -0.2159 -0.6645  0.1553
13466SOL     OW52121   7.361  10.485   5.154  0.2651 -0.6772  0.5694
13466SOL    HW152122   7.405  10.489   5.069 -0.4864 -2.0063  0.0808
13466SOL    HW252123   7.310  10.566   5.158 -0.9493 -1.3013 -1.0019
13467SOL     OW52124   5.976   6.494   6.189 -0.2760  0.5104  0.3735
13467SOL    HW152125   5.993   6.417   6.243  0.5450  0.7562  0.4631
13467SOL    HW252126   5.881   6.505   6.193 -0.6113 -1.3619 -0.7991
13468SOL     OW52127   7.176   2.490   6.768  0.4455  0.2322 -0.1276
13468SOL    HW152128   7.259   2.482   6.721 -0.2630  0.1853 -1.4306
13468SOL    HW252129   7.170   2.583   6.791 -0.3636  0.8564 -2.5021
13469SOL     OW52130   4.734   7.439   5.186 -0.1257  0.2121 -0.2707
13469SOL    HW152131   4.681   7.468   5.260 -0.1033  0.1725 -0.2389
13469SOL    HW252132   4.774   7.358   5.216 -1.7583 -0.9411 -1.0529
13470SOL     OW52133   4.123   9.727   2.735  0.0782 -0.5332  0.5290
13470SOL    HW152134   4.159   9.649   2.777 -0.0579 -1.1097 -0.3947
13470SOL    HW252135   4.178   9.740   2.657  0.8424  0.9919  1.2569
13471SOL     OW52136   3.332   5.910   4.373 -0.2860  0.3721  0.0321
13471SOL    HW152137   3.278   5.904   4.294  1.8900  2.2290 -1.7370
13471SOL    HW252138   3.269   5.913   4.445 -2.4103 -0.3218 -1.6758
13472SOL     OW52139   2.041  10.162   7.255 -0.0108 -0.3136 -0.5520
13472SOL    HW152140   1.977  10.215   7.303 -0.1086 -0.0252 -0.9881
13472SOL    HW252141   2.126  10.191   7.289 -0.1407 -1.8427  1.1986
13473SOL     OW52142  10.166   6.352   6.611 -0.3778 -0.2268 -0.5369
13473SOL    HW152143  10.147   6.365   6.704 -0.6876 -2.0455 -0.3079
13473SOL    HW252144  10.236   6.287   6.610 -1.0034 -0.9095 -1.5801
13474SOL     OW52145   3.623   0.689   1.133  0.5897 -0.1852  0.6372
13474SOL    HW152146   3.698   0.748   1.124  0.9221 -0.6147  0.5043
13474SOL    HW252147   3.663   0.603   1.147  0.1141 -0.3016  1.3180
13475SOL     OW52148   8.363   3.003   3.535  0.1883  0.7905  0.2441
13475SOL    HW152149   8.332   3.043   3.453  1.5383  0.8642 -0.2433
13475SOL    HW252150   8.330   2.913   3.530  1.2002  0.4558 -0.9303
13476SOL     OW52151   5.620   3.962   6.474  0.0805 -0.0532 -0.1273
13476SOL    HW152152   5.601   3.907   6.550  0.5721  1.0676  0.8361
13476SOL    HW252153   5.625   3.900   6.401  2.6993 -1.6238  1.2361
13477SOL     OW52154   7.060   3.485   2.509  0.0524  0.2701 -0.2078
13477SOL    HW152155   6.978   3.509   2.551  0.7869  0.5694  1.0992
13477SOL    HW252156   7.117   3.457   2.581  0.8484 -0.6686 -1.1686
13478SOL     OW52157   6.798   6.135   2.250  0.4188  0.6291 -0.1648
13478SOL    HW152158   6.839   6.102   2.330  0.5989 -3.1494 -1.5897
13478SOL    HW252159   6.704   6.122   2.264  0.5382 -1.5934 -1.0517
13479SOL     OW52160   9.123   4.316   8.650  0.2697  0.1784  0.1444
13479SOL    HW152161   9.045   4.358   8.685  0.2260 -0.0674  0.3507
13479SOL    HW252162   9.119   4.330   8.556 -0.6514 -0.8759  0.0148
13480SOL     OW52163   0.156   3.626  10.988 -0.0264  0.2427 -0.5321
13480SOL    HW152164   0.195   3.713  10.991 -0.0208  0.2319 -0.2924
13480SOL    HW252165   0.174   3.594  10.900  0.2212  0.3681 -0.5261
13481SOL     OW52166   6.903   5.267   3.396  0.3208 -0.0846 -0.0539
13481SOL    HW152167   6.966   5.196   3.403  0.4182  0.0577  0.5131
13481SOL    HW252168   6.840   5.237   3.329 -0.9634 -1.7283  1.7909
13482SOL     OW52169   6.834   8.279   4.768 -0.1038 -0.1482 -0.2118
13482SOL    HW152170   6.843   8.228   4.687 -1.2923  0.5986 -0.8454
13482SOL    HW252171   6.750   8.250   4.804 -0.7038  1.1740 -0.4797
13483SOL     OW52172   2.617   5.012   6.143 -0.1545 -0.4762 -0.1318
13483SOL    HW152173   2.586   5.080   6.084 -0.3281 -0.5179 -0.0880
13483SOL    HW252174   2.662   5.059   6.213 -3.0089 -0.1329  1.6493
13484SOL     OW52175   9.393   3.383   3.170  0.2450  0.0007  0.0929
13484SOL    HW152176   9.424   3.293   3.163  0.6977  0.0685  1.0821
13484SOL    HW252177   9.305   3.381   3.131  0.3860 -0.7849 -0.2057
13485SOL     OW52178   2.957   0.544  11.555  0.1326  0.2955 -0.0540
13485SOL    HW152179   2.866   0.515  11.560 -0.6694  2.5691 -0.2095
13485SOL    HW252180   2.954   0.637  11.580  1.9216  1.2449 -2.8531
13486SOL     OW52181   1.620  11.808   9.809  0.1517  0.2444 -0.2473
13486SOL    HW152182   1.658  11.789   9.894 -2.4379  0.4051  1.0615
13486SOL    HW252183   1.644  11.733   9.754  0.6009 -0.6012  1.0759
13487SOL     OW52184   9.003   4.050   3.899 -0.4953  0.2688  0.0506
13487SOL    HW152185   8.913   4.040   3.930 -0.2868 -0.8952  0.3528
13487SOL    HW252186   9.056   4.042   3.978 -0.0296 -1.3676 -0.3766
13488SOL     OW52187   0.903   4.066   4.811  0.2170 -0.1914 -0.2861
13488SOL    HW152188   0.964   4.106   4.750  0.4717  0.2682  0.2591
13488SOL    HW252189   0.945   3.984   4.837 -0.9608 -1.5943 -2.5193
13489SOL     OW52190   7.660   2.201  10.684 -0.2186  0.2058  0.1123
13489SOL    HW152191   7.688   2.150  10.760  1.2175 -2.2342 -1.8887
13489SOL    HW252192   7.618   2.137  10.627 -1.6258  2.0470 -1.0224
13490SOL     OW52193  10.072   0.741   7.554  0.5105 -0.0193  0.1073
13490SOL    HW152194  10.160   0.704   7.561  0.5834  0.3910  1.5649
13490SOL    HW252195  10.013   0.668   7.574  0.5353 -0.0837 -0.0477
13491SOL     OW52196   0.919   3.971  11.716  0.1081  0.3835 -0.4033
13491SOL    HW152197   1.000   4.010  11.749  0.3622 -0.3921 -0.0790
13491SOL    HW252198   0.921   3.987  11.622  0.3497  0.8763 -0.3162
13492SOL     OW52199   3.705  10.589   7.259  0.5660  0.1281  0.0203
13492SOL    HW152200   3.722  10.682   7.248  1.2336 -0.1125 -1.2415
13492SOL    HW252201   3.618  10.584   7.299  1.4413  1.3209  2.2055
13493SOL     OW52202   2.812  11.658  11.216  0.2414 -0.0311 -0.0810
13493SOL    HW152203   2.907  11.669  11.206  0.0247  1.6446 -0.7218
13493SOL    HW252204   2.790  11.711  11.293 -0.3459  0.8611 -0.8297
13494SOL     OW52205   6.758  11.654   1.176 -0.0297  0.3859 -0.1000
13494SOL    HW152206   6.676  11.632   1.131 -0.2029 -0.9027  0.7737
13494SOL    HW252207   6.774  11.745   1.154 -2.8418  1.3735  1.3846
13495SOL     OW52208   6.602  11.561   0.689  0.3839  0.0598  0.0351
13495SOL    HW152209   6.514  11.527   0.705  0.2177  1.7605  3.5800
13495SOL    HW252210   6.660  11.501   0.736  0.7882  0.7511  0.4279
13496SOL     OW52211   2.430  10.024   5.653  0.3708 -0.2341 -0.3150
13496SOL    HW152212   2.506   9.981   5.613  0.5508 -0.1429 -0.0713
13496SOL    HW252213   2.456  10.116   5.661  0.2876 -0.2284 -0.0985
13497SOL     OW52214   4.608  11.045   6.346 -0.2514  0.4036 -0.0056
13497SOL    HW152215   4.608  11.029   6.440 -1.7504 -2.9449 -0.4423
13497SOL    HW252216   4.681  10.994   6.312 -1.0728 -0.2423 -0.8660
13498SOL     OW52217   4.010   5.032   5.173 -0.0323  0.6515 -0.0288
13498SOL    HW152218   3.954   5.109   5.160  1.5245  1.7550 -0.4443
13498SOL    HW252219   4.023   5.028   5.267 -0.3357  0.7473  0.0182
13499SOL     OW52220   3.370   1.797   5.776 -0.2245  0.1966  0.2364
13499SOL    HW152221   3.456   1.765   5.801 -0.5648 -1.7076 -0.7921
13499SOL    HW252222   3.332   1.725   5.725 -1.3694  2.0322 -1.6402
13500SOL     OW52223   6.982  10.789   4.398  0.3245  0.0004  0.0187
13500SOL    HW152224   6.964  10.774   4.491  0.8620  1.7807  0.4445
13500SOL    HW252225   6.896  10.790   4.357  0.0032  0.2949  0.6837
13501SOL     OW52226   2.433   1.789   5.303 -0.3299  0.5448 -0.0394
13501SOL    HW152227   2.386   1.705   5.308 -0.1396  0.5212  2.1803
13501SOL    HW252228   2.508   1.770   5.247 -0.2236 -0.8262  0.5098
13502SOL     OW52229   7.302   5.014   7.380 -0.0647 -0.1198 -0.5355
13502SOL    HW152230   7.279   5.074   7.450 -0.1916 -1.7552  0.8794
13502SOL    HW252231   7.391   5.039   7.355  0.0160  0.4177  0.2677
13503SOL     OW52232   8.061   6.980   4.927  0.6820  0.4531 -0.1432
13503SOL    HW152233   8.042   7.067   4.961  0.1433  0.3988 -0.3045
13503SOL    HW252234   8.048   6.922   5.002 -3.1249 -0.0087 -0.9631
13504SOL     OW52235   6.840   9.919   0.302  0.4314  0.1229  0.3836
13504SOL    HW152236   6.767   9.979   0.282 -0.6910 -1.1192  0.5826
13504SOL    HW252237   6.918   9.974   0.298 -0.7529  2.2714  3.4187
13505SOL     OW52238   2.621   7.471   3.761  0.4524 -0.1334  0.1526
13505SOL    HW152239   2.661   7.385   3.773  1.2381  0.3509  1.0353
13505SOL    HW252240   2.687   7.522   3.714 -0.7198 -0.5327 -2.1125
13506SOL     OW52241   3.834   5.390   1.164 -0.7970 -0.1318 -0.2101
13506SOL    HW152242   3.874   5.303   1.160 -0.4541  0.0356 -0.5697
13506SOL    HW252243   3.742   5.374   1.185 -0.5337 -0.5197  0.6662
13507SOL     OW52244  10.582   2.074   5.554 -0.2933 -0.0943 -0.1478
13507SOL    HW152245  10.521   2.133   5.510  1.3938  0.7862 -1.4203
13507SOL    HW252246  10.659   2.128   5.571 -0.0880 -0.9745  2.0810
13508SOL     OW52247  10.300   5.262   7.730  0.0276  0.5193  0.8734
13508SOL    HW152248  10.268   5.176   7.757  1.1966 -0.3636 -0.4227
13508SOL    HW252249  10.395   5.256   7.737  0.5434  0.0134 -3.6082
13509SOL     OW52250   5.673  11.748  10.490 -0.2084  0.1538 -0.5074
13509SOL    HW152251   5.753  11.698  10.475  0.5563  1.9375 -3.2172
13509SOL    HW252252   5.700  11.820  10.546 -0.0945  0.3095 -0.7587
13510SOL     OW52253   8.720   8.889   0.324 -0.0223  1.0184 -0.4638
13510SOL    HW152254   8.703   8.798   0.299  0.7206  0.6311  0.3943
13510SOL    HW252255   8.639   8.918   0.366 -0.5997  1.0684 -1.5645
13511SOL     OW52256   0.130   0.286   6.443 -0.0564 -0.0779  0.1555
13511SOL    HW152257   0.214   0.309   6.482  1.5947  0.5187 -3.4456
13511SOL    HW252258   0.135   0.192   6.427 -0.7673 -0.3372  1.2909
13512SOL     OW52259   8.316   8.588   4.751 -0.2022 -0.1171 -0.4003
13512SOL    HW152260   8.226   8.620   4.755  0.3617  1.5009  1.2046
13512SOL    HW252261   8.358   8.626   4.829  1.9488 -0.5440 -1.2775
13513SOL     OW52262   1.352   9.278   9.824  0.0977 -0.4179 -0.0094
13513SOL    HW152263   1.362   9.196   9.873  2.5088  0.9436  2.0052
13513SOL    HW252264   1.424   9.278   9.762  0.3014  0.2958  0.2151
13514SOL     OW52265   6.714   5.782   0.068  0.1419  0.1065  0.4244
13514SOL    HW152266   6.769   5.860   0.072  0.4807 -0.0558 -0.7227
13514SOL    HW252267   6.723   5.742   0.155 -0.7512  1.7984  1.3384
13515SOL     OW52268   0.451   4.316   8.792  0.2819 -0.2868  0.4053
13515SOL    HW152269   0.494   4.401   8.795  0.0797 -0.1581 -0.2438
13515SOL    HW252270   0.422   4.300   8.882 -0.6181  0.8099  0.3220
13516SOL     OW52271   8.791   2.053   9.476  0.4149  0.1175 -0.5158
13516SOL    HW152272   8.727   2.086   9.540 -0.6448  0.6398 -1.8004
13516SOL    HW252273   8.797   2.122   9.410  3.1653  0.5696  0.0943
13517SOL     OW52274   4.179   8.287   5.341 -0.1961  0.4937 -1.1031
13517SOL    HW152275   4.142   8.329   5.263  1.4291 -0.1876 -2.2929
13517SOL    HW252276   4.103   8.264   5.394 -1.3215  1.4193 -2.2511
13518SOL     OW52277   5.848   5.691  10.104  0.0009  0.5057 -0.2205
13518SOL    HW152278   5.776   5.744  10.071  0.0409  0.4312 -0.4305
13518SOL    HW252279   5.821   5.601  10.088  0.1079  0.4749 -0.2327
13519SOL     OW52280  10.761  11.639   0.917 -0.5930  0.3138  0.5664
13519SOL    HW152281  10.697  11.706   0.895  0.9470  1.5890 -0.2612
13519SOL    HW252282  10.829  11.647   0.850 -0.0376 -1.6524  0.8244
13520SOL     OW52283   3.000   0.328   0.160  0.9146  0.2426 -0.4121
13520SOL    HW152284   3.080   0.355   0.115 -0.3102  3.6900 -0.8571
13520SOL    HW252285   2.954   0.273   0.096  1.2660  1.3272 -1.6439
13521SOL     OW52286   5.055   4.968   5.013 -0.0879 -0.5708  0.9012
13521SOL    HW152287   5.049   4.880   4.976 -0.1715 -0.0555 -0.3625
13521SOL    HW252288   4.965   5.001   5.011  0.1848  0.1581 -0.2381
13522SOL     OW52289   8.320   1.207   0.100  0.9478  0.8001 -0.0377
13522SOL    HW152290   8.387   1.215   0.032  0.9685  0.1723 -0.1004
13522SOL    HW252291   8.258   1.143   0.064  0.6146  0.9520  0.2623
13523SOL     OW52292   8.474   1.873   0.721 -0.3233  0.4599 -0.3133
13523SOL    HW152293   8.476   1.811   0.648 -1.1718  1.5984 -1.3254
13523SOL    HW252294   8.383   1.875   0.750 -0.1433  0.6094  0.2646
13524SOL     OW52295   5.153   2.743   9.861  0.2377 -0.3152  0.2834
13524SOL    HW152296   5.066   2.782   9.852  0.2707 -0.4861 -0.8922
13524SOL    HW252297   5.171   2.745   9.956 -0.2393  1.4599  0.3651
13525SOL     OW52298   9.837   6.426   9.661 -0.7305 -0.6600  0.2824
13525SOL    HW152299   9.808   6.475   9.584 -0.6466 -0.4537  0.3833
13525SOL    HW252300   9.758   6.383   9.693 -0.3937 -2.6172 -1.2681
13526SOL     OW52301   7.824   3.150   1.871  0.6693 -0.0363 -0.2751
13526SOL    HW152302   7.879   3.082   1.910 -0.1347 -1.3722 -1.3592
13526SOL    HW252303   7.830   3.223   1.931  2.6364 -0.5768  0.2675
13527SOL     OW52304   3.009   1.906   1.491  0.0545 -0.6859  0.2090
13527SOL    HW152305   3.043   1.965   1.424 -0.5207 -1.3141 -0.6634
13527SOL    HW252306   3.082   1.894   1.552  0.9811 -1.0013 -0.9252
13528SOL     OW52307  11.145   3.217   5.437 -0.0180 -0.1199 -0.0661
13528SOL    HW152308  11.168   3.309   5.434  0.9629 -0.2666  1.6594
13528SOL    HW252309  11.154   3.187   5.347  0.4710  1.2730 -0.5069
13529SOL     OW52310   5.737   1.382  10.299 -0.2288 -0.3856  0.1635
13529SOL    HW152311   5.821   1.350  10.266  1.2071  1.6035  1.6588
13529SOL    HW252312   5.728   1.469  10.261  0.9195  1.5130  3.8122
13530SOL     OW52313   7.946   3.043  10.694 -0.0389  0.1403 -0.6026
13530SOL    HW152314   7.894   2.993  10.757  1.9610  0.1666  1.1832
13530SOL    HW252315   7.953   2.986  10.618  1.2840 -1.9548  0.9546
13531SOL     OW52316  10.704   4.108   5.499  0.0200  0.2344  0.3771
13531SOL    HW152317  10.743   4.021   5.490  0.7388  0.5057  0.7463
13531SOL    HW252318  10.765   4.155   5.555 -0.6009  0.8369  0.5619
13532SOL     OW52319  10.513   3.568   4.664  0.7417 -0.1444 -0.6989
13532SOL    HW152320  10.487   3.511   4.736  0.5132 -1.1881 -1.5898
13532SOL    HW252321  10.465   3.649   4.679 -0.6996 -0.9751 -0.6442
13533SOL     OW52322   8.421   2.865   5.364 -0.1648 -0.0904  1.1352
13533SOL    HW152323   8.377   2.835   5.443 -0.5250  0.4527  1.1496
13533SOL    HW252324   8.411   2.960   5.366 -2.8255 -0.1988 -1.0630
13534SOL     OW52325   3.870   5.334  11.427 -0.1633 -0.0912  0.3161
13534SOL    HW152326   3.828   5.276  11.490 -1.1746 -0.7707 -0.9379
13534SOL    HW252327   3.803   5.398  11.404 -0.1187 -0.4196 -0.7565
13535SOL     OW52328   7.860   8.883  11.622  0.1957  0.1220  0.5109
13535SOL    HW152329   7.923   8.930  11.677 -0.3061  3.0616 -1.2412
13535SOL    HW252330   7.774   8.911  11.654 -0.1498 -0.5401  0.1830
13536SOL     OW52331   7.129  10.635   7.159  0.8090 -0.2721 -0.3398
13536SOL    HW152332   7.052  10.596   7.201 -0.3684  1.2349 -1.0285
13536SOL    HW252333   7.195  10.565   7.160 -0.9935 -2.0491 -0.9642
13537SOL     OW52334   3.957   2.666   8.549 -0.1377  0.3266  0.4753
13537SOL    HW152335   4.023   2.625   8.493  0.2564 -0.4987  1.5058
13537SOL    HW252336   3.974   2.760   8.543 -2.0583  0.6328 -3.2259
13538SOL     OW52337   5.529   9.079   5.316 -0.1480 -0.1816 -0.3296
13538SOL    HW152338   5.587   9.053   5.245 -0.9437  1.0657 -1.4988
13538SOL    HW252339   5.556   9.169   5.337 -0.5417 -0.2017  0.2758
13539SOL     OW52340   7.825   7.976   8.279 -0.5571  0.3171 -0.0157
13539SOL    HW152341   7.879   8.054   8.265  0.0735  0.0522  0.8380
13539SOL    HW252342   7.819   7.935   8.193  0.2175  0.6005 -0.2120
13540SOL     OW52343   2.493   3.150   2.541  0.4403 -0.7562 -0.2940
13540SOL    HW152344   2.498   3.105   2.457  0.8475 -0.5901 -0.3593
13540SOL    HW252345   2.578   3.134   2.582  1.3150  1.5039 -1.1160
13541SOL     OW52346   5.034  10.450   0.523  0.0241 -0.8725  0.2569
13541SOL    HW152347   5.021  10.507   0.447 -0.4342 -1.8994 -0.4503
13541SOL    HW252348   5.120  10.409   0.508 -0.5978 -2.0127 -0.3653
13542SOL     OW52349   4.572   6.357   8.007  0.5054  0.2756  0.4204
13542SOL    HW152350   4.620   6.312   7.937  0.1345  0.0040  0.3371
13542SOL    HW252351   4.640   6.397   8.060  0.8378 -0.2140  0.3763
13543SOL     OW52352   5.205   2.023  10.035  0.1272  0.0553  0.3711
13543SOL    HW152353   5.300   2.008  10.029 -0.1622 -2.5755  1.2850
13543SOL    HW252354   5.197   2.097  10.096  1.5625 -0.0321  0.7099
13544SOL     OW52355   6.339   1.783   9.423 -0.0463  0.1338  0.2148
13544SOL    HW152356   6.294   1.764   9.505 -0.5884 -0.8144 -0.2826
13544SOL    HW252357   6.347   1.878   9.421 -1.4690  0.2796  0.6079
13545SOL     OW52358   9.464   2.831   0.868 -0.3539 -0.5757 -0.2127
13545SOL    HW152359   9.455   2.882   0.948 -0.2886 -1.6978  0.5278
13545SOL    HW252360   9.445   2.741   0.894 -2.4241 -0.7032 -1.8952
13546SOL     OW52361   3.150   2.181   9.293 -0.1375  0.2540 -0.4241
13546SOL    HW152362   3.177   2.097   9.255  0.9032  0.6231 -0.5312
13546SOL    HW252363   3.092   2.219   9.227  0.5416  0.2597 -1.0292
13547SOL     OW52364   8.492   6.340   6.267 -0.2617  0.1117 -0.0711
13547SOL    HW152365   8.455   6.348   6.355  2.5382 -0.5780  1.2555
13547SOL    HW252366   8.453   6.260   6.232  0.3643 -0.9042  1.4919
13548SOL     OW52367   9.585   9.759  10.105  0.1261 -0.7859 -0.3699
13548SOL    HW152368   9.581   9.664  10.090 -0.6769 -0.9472  0.7395
13548SOL    HW252369   9.494   9.785  10.115  0.4446 -0.3222  1.7482
13549SOL     OW52370   9.730  11.494  10.910 -0.1654  0.4518 -0.2486
13549SOL    HW152371   9.796  11.542  10.960 -1.2072  1.1328  0.5314
13549SOL    HW252372   9.688  11.561  10.855  0.9107 -0.2703 -2.0404
13550SOL     OW52373  11.644   4.133   2.264 -0.4285  0.2046 -0.1715
13550SOL    HW152374  11.736   4.155   2.281 -0.1648 -0.6473 -0.4356
13550SOL    HW252375  11.595   4.203   2.307  0.3630  1.2735 -0.9502
13551SOL     OW52376  11.200   0.933   5.825 -0.1927  0.6741  0.0103
13551SOL    HW152377  11.176   0.856   5.774 -2.2329  1.2353  0.0435
13551SOL    HW252378  11.191   0.905   5.916 -2.0988  1.2344  0.0300
13552SOL     OW52379  11.402  10.728  10.143 -0.3063 -0.2367  0.5249
13552SOL    HW152380  11.436  10.640  10.160  4.2540  1.1441 -0.0539
13552SOL    HW252381  11.407  10.772  10.228 -0.9223 -0.0410  0.4642
13553SOL     OW52382  10.931  11.750   4.295 -0.3148 -0.5663  0.4114
13553SOL    HW152383  10.973  11.675   4.337  0.3779 -0.3302  0.1372
13553SOL    HW252384  11.001  11.814   4.282 -0.6453 -0.3898 -0.5545
13554SOL     OW52385   1.415   9.610   6.934 -0.4737 -0.2195 -0.2955
13554SOL    HW152386   1.466   9.532   6.911 -1.6089 -0.4457 -2.2495
13554SOL    HW252387   1.342   9.577   6.985 -0.1196 -0.2375  0.1997
13555SOL     OW52388   3.674  10.766  11.686  0.7075 -0.6933 -0.2803
13555SOL    HW152389   3.723  10.693  11.725  2.7513  0.8510  0.2012
13555SOL    HW252390   3.741  10.829  11.662 -0.9353  0.5969 -1.6690
13556SOL     OW52391   1.614  11.370   0.254 -0.3844  0.0686 -0.1085
13556SOL    HW152392   1.610  11.390   0.347  1.1637  2.0123 -0.4105
13556SOL    HW252393   1.674  11.295   0.248 -0.6535 -0.1998  0.4472
13557SOL     OW52394   0.516   3.495  11.436 -0.9011 -0.2111 -0.1249
13557SOL    HW152395   0.535   3.424  11.374 -1.6127 -1.7205  1.2913
13557SOL    HW252396   0.423   3.487  11.454 -0.8034  0.4830  0.7660
13558SOL     OW52397   1.794   7.290   4.991  0.4427  0.1065 -0.0556
13558SOL    HW152398   1.803   7.327   5.079 -0.0394  0.6238 -0.2115
13558SOL    HW252399   1.792   7.366   4.933 -0.6559 -0.1466 -0.3788
13559SOL     OW52400   6.165   1.584   3.975  1.3193 -0.0929  0.2261
13559SOL    HW152401   6.200   1.648   3.912  2.4561  0.6735  1.5902
13559SOL    HW252402   6.077   1.565   3.942  1.8403  0.3352 -1.5434
13560SOL     OW52403   7.461   2.215  10.323  0.3277  0.1484  0.4130
13560SOL    HW152404   7.435   2.306  10.338 -0.7531 -0.4908  2.8347
13560SOL    HW252405   7.384   2.163  10.347  0.5392 -1.4319 -1.9500
13561SOL     OW52406  10.120   0.580   5.754 -0.6295  0.0567 -0.2728
13561SOL    HW152407  10.143   0.487   5.747 -0.8428  0.1471 -3.5749
13561SOL    HW252408  10.190   0.617   5.808  1.2892 -1.5179 -1.4926
13562SOL     OW52409   8.977   1.039  10.778 -0.8188 -0.4749 -0.8796
13562SOL    HW152410   9.008   1.090  10.704 -2.4796  0.2469 -1.1343
13562SOL    HW252411   9.022   1.076  10.854 -0.7870  0.3010 -1.2647
13563SOL     OW52412   3.508  11.306   6.183  0.3348 -0.1912  0.0114
13563SOL    HW152413   3.522  11.375   6.118  0.9460 -0.5531 -0.2509
13563SOL    HW252414   3.546  11.228   6.143 -1.2392 -0.9198 -0.1133
13564SOL     OW52415   0.110  11.868   8.162  0.0849 -0.1973 -0.2001
13564SOL    HW152416   0.144  11.957   8.163  1.7699 -0.8147  0.5383
13564SOL    HW252417   0.182  11.815   8.128 -1.0283 -1.2433 -1.0181
13565SOL     OW52418   9.101   1.700   1.332  0.3593 -0.0622 -0.0853
13565SOL    HW152419   9.169   1.638   1.358 -0.4547 -0.7077  0.5596
13565SOL    HW252420   9.056   1.722   1.414  0.1174  0.7578 -0.4298
13566SOL     OW52421   2.362   9.671   4.669  0.0724  0.1273  0.2764
13566SOL    HW152422   2.378   9.755   4.711 -1.4448  0.8611 -0.5110
13566SOL    HW252423   2.282   9.685   4.617 -0.0116 -1.6921 -0.1611
13567SOL     OW52424   3.250   8.959   6.967  0.2952 -0.2573 -0.1360
13567SOL    HW152425   3.315   9.010   6.919 -0.5533  0.9581 -0.0380
13567SOL    HW252426   3.292   8.938   7.050  0.8274 -0.1251 -0.3661
13568SOL     OW52427   0.786  10.112   4.831 -0.0715  0.5678 -0.1337
13568SOL    HW152428   0.722  10.108   4.902 -0.1934  0.1324 -0.2641
13568SOL    HW252429   0.758  10.186   4.778  0.1046  0.9895  0.3447
13569SOL     OW52430   0.896   5.695   1.505  0.4180 -0.4790 -0.1819
13569SOL    HW152431   0.967   5.651   1.458 -0.4400 -1.7964 -0.2940
13569SOL    HW252432   0.873   5.635   1.576  0.8297  0.9094  1.1604
13570SOL     OW52433   7.514   2.579  10.863 -0.0294 -0.1405  0.3404
13570SOL    HW152434   7.421   2.580  10.887 -0.2634 -0.6691 -0.4886
13570SOL    HW252435   7.514   2.597  10.769  0.6869 -0.4439  0.2773
13571SOL     OW52436   1.237   4.671   6.396  0.7192 -0.2012  0.0707
13571SOL    HW152437   1.328   4.687   6.420  0.9272 -1.7881  0.4871
13571SOL    HW252438   1.227   4.714   6.311  1.8020  0.1620  0.1084
13572SOL     OW52439   3.720  11.409  10.818  0.2865 -0.3232 -0.5819
13572SOL    HW152440   3.813  11.386  10.814  0.5188  0.6460 -0.9056
13572SOL    HW252441   3.710  11.454  10.902  0.2797  0.2945 -0.9130
13573SOL     OW52442  11.528   2.899   3.078  0.0426  0.1441  0.2246
13573SOL    HW152443  11.436   2.880   3.062 -0.3254  1.7645  0.2516
13573SOL    HW252444  11.558   2.827   3.133 -1.1883 -0.4317  0.1783
13574SOL     OW52445   7.322   1.333   8.736 -0.1265  0.0932 -0.4085
13574SOL    HW152446   7.284   1.315   8.650 -0.6851  0.4862 -0.2502
13574SOL    HW252447   7.349   1.424   8.731 -0.3221  0.1692 -0.1134
13575SOL     OW52448   7.760   2.101   2.203 -0.6246  0.3636  0.0898
13575SOL    HW152449   7.807   2.116   2.121 -1.0304  0.8846 -0.0519
13575SOL    HW252450   7.819   2.134   2.271  0.3050 -1.2991  0.1489
13576SOL     OW52451   2.809  11.496   3.459 -0.0243 -0.1889  0.0114
13576SOL    HW152452   2.793  11.422   3.517 -0.1221 -0.0350  0.1812
13576SOL    HW252453   2.897  11.525   3.483  0.6872 -1.2650 -1.1725
13577SOL     OW52454   5.616   0.976   4.516  0.5724 -0.3806 -0.1175
13577SOL    HW152455   5.618   0.957   4.609  0.2810 -2.3802 -0.4698
13577SOL    HW252456   5.523   0.982   4.494  0.4842 -2.9521 -0.7649
13578SOL     OW52457   2.613   5.887   4.553 -0.3867 -0.0814 -0.1823
13578SOL    HW152458   2.554   5.876   4.628  0.4341 -2.5985  0.2149
13578SOL    HW252459   2.568   5.843   4.481  1.0757 -2.4802  0.2452
13579SOL     OW52460   4.182   5.235   5.662  0.2821  0.0634 -0.5196
13579SOL    HW152461   4.126   5.286   5.603  1.0239  2.3745  0.6606
13579SOL    HW252462   4.121   5.185   5.716 -0.5325  0.3984 -1.1113
13580SOL     OW52463   0.059   5.888   7.285  0.0958 -0.2409 -0.5529
13580SOL    HW152464   0.083   5.975   7.316 -1.8906 -0.1346  0.8413
13580SOL    HW252465  -0.029   5.899   7.249 -0.7290 -1.8852  0.8231
13581SOL     OW52466   1.771  10.749   7.338 -0.0065  0.0257  0.4270
13581SOL    HW152467   1.782  10.669   7.389  2.3927 -0.4744 -0.7027
13581SOL    HW252468   1.846  10.803   7.363 -0.0892  0.7484 -0.8006
13582SOL     OW52469   3.591   9.884   8.135  0.2186 -0.0833  0.7129
13582SOL    HW152470   3.583   9.979   8.143 -1.4056 -0.3297  2.5534
13582SOL    HW252471   3.627   9.856   8.219 -1.7994 -1.3022  1.2234
13583SOL     OW52472   3.762   7.496   2.208  0.5302  0.1654  0.0681
13583SOL    HW152473   3.815   7.471   2.132  1.9877  1.3351  0.6534
13583SOL    HW252474   3.673   7.503   2.173  1.0653  0.0557 -1.4005
13584SOL     OW52475   8.223   9.093   3.754 -0.0624  0.4621  0.0344
13584SOL    HW152476   8.193   9.097   3.844  0.2397  0.5500  0.1335
13584SOL    HW252477   8.293   9.159   3.749 -0.3156  0.7037 -0.3524
13585SOL     OW52478   3.703   2.813   4.155 -0.5630 -0.2358  0.5035
13585SOL    HW152479   3.658   2.737   4.190  1.2706 -1.7597 -0.2866
13585SOL    HW252480   3.738   2.858   4.232  1.0904 -2.0331  0.8716
13586SOL     OW52481   8.032   3.975   8.411  0.3374  0.1077 -0.7746
13586SOL    HW152482   8.039   3.974   8.316 -0.4733  1.0465 -0.8546
13586SOL    HW252483   7.981   3.897   8.432  1.0455 -0.4424 -1.0473
13587SOL     OW52484  10.396   2.839  10.600  0.8407  0.1775 -0.2541
13587SOL    HW152485  10.318   2.876  10.641  1.0848 -0.3019  0.6666
13587SOL    HW252486  10.388   2.745  10.616  2.2569  0.2423  1.0136
13588SOL     OW52487  11.727   9.474   7.276 -0.0973 -0.3725  0.0558
13588SOL    HW152488  11.682   9.392   7.295 -0.3126 -0.3575 -0.3801
13588SOL    HW252489  11.708   9.530   7.351 -1.8492  0.0616 -0.6650
13589SOL     OW52490   1.269   8.980   9.854  0.4878 -0.1218 -0.5172
13589SOL    HW152491   1.315   8.913   9.804 -0.2714 -0.4603 -0.7813
13589SOL    HW252492   1.332   9.007   9.921  1.4993  0.2894 -1.5927
13590SOL     OW52493   2.417   4.721   4.027  0.2492 -0.0524  0.1587
13590SOL    HW152494   2.325   4.713   4.051  0.5338 -0.9557  0.9909
13590SOL    HW252495   2.417   4.727   3.932 -0.5346 -2.6751 -0.0859
13591SOL     OW52496   3.668   8.529   5.043  0.0457 -0.1044 -0.2085
13591SOL    HW152497   3.693   8.550   5.133 -0.9424 -0.4310  0.1627
13591SOL    HW252498   3.650   8.435   5.045 -0.5023 -0.0131 -0.6139
13592SOL     OW52499  10.677   1.378   6.859 -0.3688 -0.4999 -0.4860
13592SOL    HW152500  10.628   1.403   6.937  0.1778  0.1134 -0.3261
13592SOL    HW252501  10.619   1.399   6.786 -0.5255 -0.2033 -0.2796
13593SOL     OW52502   4.521  11.486  10.995  0.1257  0.2069 -0.0500
13593SOL    HW152503   4.472  11.504  11.075  0.9356  0.7526  0.3348
13593SOL    HW252504   4.454  11.475  10.927 -0.5408  0.3056  0.5884
13594SOL     OW52505   8.624   6.366   7.676 -0.3418 -0.1163  0.0257
13594SOL    HW152506   8.645   6.318   7.756 -1.2282  0.8325  0.8516
13594SOL    HW252507   8.583   6.301   7.619 -0.5982 -0.5746  0.7199
13595SOL     OW52508   4.145   3.359   2.630  0.0675  0.2143 -0.1269
13595SOL    HW152509   4.190   3.327   2.553  0.3517 -0.0477  0.1450
13595SOL    HW252510   4.116   3.448   2.607 -2.6609 -0.9650 -1.7006
13596SOL     OW52511   6.690   9.120   5.311  0.1103 -0.2405  0.5225
13596SOL    HW152512   6.677   9.157   5.399 -0.4560  0.4744  0.1578
13596SOL    HW252513   6.783   9.132   5.294  0.1526 -0.0359  0.8733
13597SOL     OW52514   5.369   9.667   0.304  1.0118 -0.0452  0.9611
13597SOL    HW152515   5.443   9.723   0.327  2.0031 -0.7036 -0.5396
13597SOL    HW252516   5.406   9.579   0.296  0.8966  0.0932 -3.2647
13598SOL     OW52517   5.761  11.062   6.088  0.4920  0.2784 -0.0147
13598SOL    HW152518   5.746  11.135   6.028  1.9782  0.3470 -0.3309
13598SOL    HW252519   5.730  10.985   6.040  0.3166  0.5163 -0.2833
13599SOL     OW52520  10.797   4.971   4.258 -0.1496  0.1474 -0.1133
13599SOL    HW152521  10.880   4.923   4.245 -0.7950 -1.0458  0.0242
13599SOL    HW252522  10.800   5.000   4.349  0.6337  1.1491 -0.4433
13600SOL     OW52523   4.574   6.032   9.985  0.3004  0.3239  0.3390
13600SOL    HW152524   4.648   5.996   9.937 -1.2180 -2.3539 -0.1902
13600SOL    HW252525   4.552   6.113   9.938  1.5780  0.0754 -0.7523
13601SOL     OW52526   0.165   0.748   6.669  0.2033 -0.5348 -0.0465
13601SOL    HW152527   0.081   0.712   6.696 -0.9997  2.2539  0.2665
13601SOL    HW252528   0.148   0.792   6.586  1.5849 -0.6856 -0.4422
13602SOL     OW52529   1.293   0.914   8.379 -0.2056 -0.5430 -0.2087
13602SOL    HW152530   1.257   0.836   8.422  0.2618 -1.1304 -0.8715
13602SOL    HW252531   1.280   0.899   8.286  0.2554 -0.0113 -0.3640
13603SOL     OW52532   5.206   2.595   9.046 -0.3801 -0.2011  0.1651
13603SOL    HW152533   5.177   2.681   9.014  0.5055  0.0979  0.1526
13603SOL    HW252534   5.154   2.532   8.994 -0.2385  0.3056 -0.6101
13604SOL     OW52535   1.929   0.751  11.339  1.0647  0.6352  0.1682
13604SOL    HW152536   1.964   0.802  11.266  2.7577  0.0880  0.5531
13604SOL    HW252537   2.004   0.735  11.396  0.5583 -2.0629  0.1967
13605SOL     OW52538   2.894   9.732   1.599 -0.1214  0.5338  0.3553
13605SOL    HW152539   2.924   9.746   1.688  0.3313  1.8894  0.0062
13605SOL    HW252540   2.820   9.671   1.608  0.7788 -0.4359  1.5032
13606SOL     OW52541   6.168   2.727  11.789  0.1463  0.3221 -0.1357
13606SOL    HW152542   6.217   2.665  11.736  0.0005  0.2530 -0.1910
13606SOL    HW252543   6.227   2.750  11.861 -0.5988 -1.6418  1.1753
13607SOL     OW52544   4.124   1.367   7.117  0.2416  0.2339 -0.1612
13607SOL    HW152545   4.089   1.289   7.160  0.5957  0.1809  0.0399
13607SOL    HW252546   4.048   1.423   7.102 -0.3868 -1.1083 -2.3750
13608SOL     OW52547   1.989   0.373   5.801  0.5321 -0.1753 -0.3365
13608SOL    HW152548   1.957   0.459   5.830  0.7515  0.4576 -1.8827
13608SOL    HW252549   2.005   0.325   5.883 -1.1023  0.6774  0.5335
13609SOL     OW52550   9.671   5.098   1.710  0.2185  0.2492 -0.0134
13609SOL    HW152551   9.743   5.059   1.659  0.9280  0.8040  0.5432
13609SOL    HW252552   9.657   5.037   1.782 -0.4459 -0.2816 -0.5779
13610SOL     OW52553   8.102   1.113   7.319 -0.2762 -0.7034  0.2757
13610SOL    HW152554   8.063   1.033   7.355  0.7295 -1.9263 -1.1974
13610SOL    HW252555   8.194   1.089   7.302  0.2524  1.0183  0.5165
13611SOL     OW52556   4.890  11.090   2.683  0.3041 -0.4327  0.6515
13611SOL    HW152557   4.899  11.090   2.587 -1.4323  0.7915  0.4479
13611SOL    HW252558   4.961  11.146   2.714 -0.5329  1.1046 -0.1216
13612SOL     OW52559  10.172   0.639   6.529  0.1708 -0.0716  0.0459
13612SOL    HW152560  10.096   0.640   6.587  1.1350  0.4926  1.3540
13612SOL    HW252561  10.141   0.680   6.447 -0.7677  0.7347  0.7811
13613SOL     OW52562   5.974   0.355   1.542  0.3523  0.1200 -0.0856
13613SOL    HW152563   5.951   0.397   1.625  0.5619  0.1963 -0.0677
13613SOL    HW252564   5.934   0.411   1.475  0.0030 -0.0579 -0.0269
13614SOL     OW52565   3.894   1.542   5.379  0.3704 -0.3928  0.5503
13614SOL    HW152566   3.894   1.494   5.296  1.0075  1.5133 -0.6233
13614SOL    HW252567   3.946   1.489   5.438  0.5860 -1.4032 -0.5137
13615SOL     OW52568   1.581   4.073  10.825  0.0293 -0.3969  0.3309
13615SOL    HW152569   1.572   4.168  10.831  0.3472 -0.4499  3.3757
13615SOL    HW252570   1.502   4.044  10.781 -2.0233  1.0445  2.8240
13616SOL     OW52571  11.360  11.557   7.430 -0.3085  0.0308  0.6255
13616SOL    HW152572  11.384  11.498   7.501  0.7697 -0.6389 -0.2679
13616SOL    HW252573  11.411  11.527   7.355 -0.3520  1.5969 -0.0700
13617SOL     OW52574   4.391   2.757   8.716 -0.0469 -0.0681 -0.2844
13617SOL    HW152575   4.434   2.681   8.753  0.1449  0.0529 -0.2547
13617SOL    HW252576   4.415   2.829   8.774 -0.9433 -0.1384  0.1869
13618SOL     OW52577  10.903   5.085   1.255 -1.1384 -0.0291  0.2416
13618SOL    HW152578  10.944   5.000   1.243 -0.8270  0.2371 -0.6416
13618SOL    HW252579  10.966   5.135   1.307 -1.3277 -0.3354  0.7734
13619SOL     OW52580   2.070   6.779   4.936 -0.0422 -0.4005 -0.3111
13619SOL    HW152581   2.138   6.816   4.880 -0.3585  1.4393  0.4417
13619SOL    HW252582   1.989   6.790   4.886 -0.2178  0.4936  0.1669
13620SOL     OW52583   6.365   7.636   6.902  0.1652 -0.0858  0.1766
13620SOL    HW152584   6.316   7.696   6.845  0.5466  0.2781  0.2282
13620SOL    HW252585   6.454   7.635   6.865  0.2987 -0.1993  0.4997
13621SOL     OW52586   2.129  10.014   9.402 -0.4106 -0.0121  0.2299
13621SOL    HW152587   2.083   9.931   9.388 -0.5131  0.1967 -0.7436
13621SOL    HW252588   2.063  10.081   9.387 -0.2189  0.2633  0.5917
13622SOL     OW52589   2.503  10.681   6.851 -0.1288 -0.4190 -0.4553
13622SOL    HW152590   2.453  10.732   6.915  1.7772 -2.2930  2.7898
13622SOL    HW252591   2.561  10.744   6.810 -1.3056  0.8259 -0.2810
13623SOL     OW52592   7.867   4.196  11.362 -0.3317 -0.6535 -0.0370
13623SOL    HW152593   7.931   4.238  11.420 -0.0452 -0.2025 -0.6631
13623SOL    HW252594   7.912   4.120  11.326 -0.5462 -0.9940  0.4150
13624SOL     OW52595   5.331   9.093   9.286  0.2589  0.2441  0.0324
13624SOL    HW152596   5.253   9.140   9.314  1.0401  2.0517 -0.6376
13624SOL    HW252597   5.301   9.003   9.270 -1.6319  0.8571 -0.0783
13625SOL     OW52598   2.460   6.678   8.688  0.0618 -0.4747  0.7790
13625SOL    HW152599   2.510   6.632   8.755 -1.4244 -1.8093  1.0141
13625SOL    HW252600   2.375   6.696   8.729 -0.0846  0.6984  0.0032
13626SOL     OW52601   1.108  10.300   6.610 -0.5525 -0.8637 -0.2287
13626SOL    HW152602   1.195  10.277   6.577 -1.3009  0.0320 -3.2087
13626SOL    HW252603   1.096  10.391   6.583 -2.2380 -0.8073  0.5679
13627SOL     OW52604   1.519   5.460   5.109  0.2839 -0.1728  0.1630
13627SOL    HW152605   1.482   5.388   5.058 -2.3360  1.7820 -0.9033
13627SOL    HW252606   1.504   5.538   5.056  0.3837  1.5472  2.4994
13628SOL     OW52607   9.801   4.431   2.383 -0.1717  0.0144 -0.2374
13628SOL    HW152608   9.839   4.465   2.464  0.2823 -0.2778 -0.3269
13628SOL    HW252609   9.707   4.430   2.400 -0.0254 -0.8325  0.5958
13629SOL     OW52610   3.309   9.504   4.021  0.5486 -0.0757 -0.6710
13629SOL    HW152611   3.365   9.581   4.028 -0.7516  0.7883  1.0420
13629SOL    HW252612   3.220   9.538   4.022 -0.0538 -1.5489 -0.8127
13630SOL     OW52613   6.574   3.436   4.684  0.0733  0.2421 -0.0690
13630SOL    HW152614   6.589   3.342   4.696  0.5071  0.2400 -0.5738
13630SOL    HW252615   6.573   3.472   4.772  2.6339  0.1704  0.0396
13631SOL     OW52616  10.633   0.925   6.187 -0.2297  0.0166  0.7328
13631SOL    HW152617  10.642   1.018   6.166  0.3388 -0.4019 -1.1066
13631SOL    HW252618  10.721   0.898   6.212 -0.3271 -0.1041  0.9476
13632SOL     OW52619   9.741   0.276   5.354  0.2945 -0.2554  0.0161
13632SOL    HW152620   9.805   0.248   5.289 -1.5649  1.5079 -2.8024
13632SOL    HW252621   9.771   0.362   5.382 -0.1598  0.0570 -0.4231
13633SOL     OW52622   2.797   4.068   7.093 -0.1158 -0.1860 -0.1933
13633SOL    HW152623   2.727   4.048   7.154 -0.7023 -0.7491 -1.0372
13633SOL    HW252624   2.762   4.046   7.006 -0.2180  2.9091 -1.0584
13634SOL     OW52625   9.260   2.352   0.770 -0.4054  0.0841  0.1809
13634SOL    HW152626   9.354   2.361   0.782 -0.0278 -0.5422 -1.8496
13634SOL    HW252627   9.238   2.417   0.703 -1.5730  0.6888  1.0991
13635SOL     OW52628   4.278   9.765   2.520  0.4775  0.1960 -0.6803
13635SOL    HW152629   4.294   9.851   2.483  0.6735  0.1668 -0.6663
13635SOL    HW252630   4.358   9.715   2.502  0.3817  0.0294 -0.6556
13636SOL     OW52631   6.508   6.780  11.326  0.0840  0.1066  0.0706
13636SOL    HW152632   6.444   6.747  11.390 -0.9201  1.3933 -0.2184
13636SOL    HW252633   6.571   6.709  11.315 -2.4936 -2.1320 -1.3015
13637SOL     OW52634   3.755   5.904   6.927 -0.3754 -0.2766  0.2901
13637SOL    HW152635   3.803   5.908   6.844 -2.8369  2.2015 -1.1943
13637SOL    HW252636   3.808   5.955   6.988 -0.7809  2.0948 -1.2026
13638SOL     OW52637   4.343   6.196   7.312 -0.2838 -0.0950  0.4551
13638SOL    HW152638   4.287   6.140   7.366  1.6183  0.8123  3.6219
13638SOL    HW252639   4.327   6.284   7.345 -0.2061  0.7700 -1.6594
13639SOL     OW52640  10.201   2.455   6.368  0.0054 -0.3334 -0.3867
13639SOL    HW152641  10.152   2.512   6.427 -0.3012 -0.0647 -0.8967
13639SOL    HW252642  10.241   2.514   6.304 -0.2322 -0.6794 -0.8591
13640SOL     OW52643   5.535   6.938   0.444 -0.1789  0.0853  0.0872
13640SOL    HW152644   5.562   6.992   0.518 -1.0718  1.3428 -0.4654
13640SOL    HW252645   5.528   6.850   0.480 -3.0211  1.0165  2.1994
13641SOL     OW52646  10.323   6.632   6.110 -0.5474  0.4955  0.2140
13641SOL    HW152647  10.284   6.545   6.100  0.4532 -0.0097  0.6301
13641SOL    HW252648  10.345   6.639   6.203 -1.4080  1.5472  0.3608
13642SOL     OW52649   2.369   8.573   6.769  0.1608  1.0420  0.9695
13642SOL    HW152650   2.384   8.667   6.780  3.2779  0.9104 -0.9725
13642SOL    HW252651   2.456   8.536   6.757 -1.1078 -1.8360 -0.2498
13643SOL     OW52652   6.451   4.637   8.804 -0.3006 -0.1673  0.0075
13643SOL    HW152653   6.411   4.648   8.718  0.9011 -1.3869 -0.7636
13643SOL    HW252654   6.532   4.587   8.786 -2.3632 -5.0271  2.2842
13644SOL     OW52655  10.236  10.392   8.217 -0.1053 -0.4269 -0.4876
13644SOL    HW152656  10.325  10.388   8.252 -0.0465  0.3622 -0.5477
13644SOL    HW252657  10.222  10.483   8.194 -1.2777 -0.3494  0.4016
13645SOL     OW52658   3.282   4.868   4.939 -0.7438 -0.4949 -0.1970
13645SOL    HW152659   3.302   4.827   4.855  1.9704  1.4108 -0.5819
13645SOL    HW252660   3.270   4.794   4.999  0.4467 -1.8714 -1.5806
13646SOL     OW52661   8.588   1.481   5.970  0.1825  0.2108  0.4575
13646SOL    HW152662   8.663   1.451   5.919 -0.3973  0.5021 -0.6044
13646SOL    HW252663   8.512   1.448   5.922 -0.4331  2.0099  0.1388
13647SOL     OW52664   1.000   1.761   0.827 -0.8941 -0.0407  0.1265
13647SOL    HW152665   1.077   1.722   0.868  0.5871  0.2191 -2.2600
13647SOL    HW252666   0.999   1.852   0.857  0.4963  0.3024 -0.7796
13648SOL     OW52667   5.604  11.727   7.551 -0.0698  0.1076  0.6316
13648SOL    HW152668   5.544  11.704   7.480 -1.0666 -1.9472  2.0410
13648SOL    HW252669   5.551  11.722   7.631  1.7742 -1.0426  1.8601
13649SOL     OW52670   2.854   5.055   3.333  0.0426 -0.0571  0.1229
13649SOL    HW152671   2.806   5.128   3.371  0.1189  0.5650 -0.9297
13649SOL    HW252672   2.945   5.084   3.332  0.2909 -0.7659  1.0385
13650SOL     OW52673   2.668   9.643   7.553 -0.5089  0.1162  0.3646
13650SOL    HW152674   2.738   9.633   7.617 -0.1138  0.4545 -0.0046
13650SOL    HW252675   2.710   9.628   7.468 -0.7369  0.9361  0.0937
13651SOL     OW52676   0.874   5.554   4.189 -0.1506 -0.4778  0.0537
13651SOL    HW152677   0.842   5.643   4.202  2.0411  0.2946  0.5760
13651SOL    HW252678   0.878   5.517   4.277  0.9535 -0.3167  0.0906
13652SOL     OW52679  10.426   4.726   3.293 -0.5630  0.7989 -0.4623
13652SOL    HW152680  10.395   4.725   3.383 -0.6146 -0.2371 -0.4817
13652SOL    HW252681  10.494   4.793   3.291 -1.0987  1.3710  0.1558
13653SOL     OW52682   3.247   6.369   5.476  0.0970  0.0409  0.2837
13653SOL    HW152683   3.233   6.460   5.449 -1.1577 -0.3363 -0.4425
13653SOL    HW252684   3.268   6.323   5.394  0.7549 -0.3287  0.6509
13654SOL     OW52685   5.938   7.007   5.186 -0.6822 -0.6188  0.2263
13654SOL    HW152686   5.853   7.051   5.182 -0.3434  0.0034 -0.3557
13654SOL    HW252687   5.932   6.949   5.262 -1.2981  0.1038  0.7365
13655SOL     OW52688  11.769   9.785  10.604  1.0860 -0.2661  0.0603
13655SOL    HW152689  11.755   9.765  10.697 -1.1799 -1.0317 -0.3847
13655SOL    HW252690  11.772   9.880  10.600  0.1598 -0.1974  0.7962
13656SOL     OW52691   9.294   2.173   4.660 -0.4353 -0.3506  0.1501
13656SOL    HW152692   9.311   2.258   4.702  0.8697  0.2013 -1.3865
13656SOL    HW252693   9.202   2.177   4.634 -0.6205  0.2388  0.8496
13657SOL     OW52694  10.399   8.506   9.605  0.2542 -0.2939  0.1510
13657SOL    HW152695  10.326   8.518   9.544  0.6690 -1.1287 -0.5338
13657SOL    HW252696  10.463   8.572   9.580  0.7183 -1.0782 -0.7941
13658SOL     OW52697   1.052  10.635   8.247  0.3989 -0.2510 -0.3299
13658SOL    HW152698   1.073  10.725   8.222 -0.9924  0.5022  0.9999
13658SOL    HW252699   0.958  10.627   8.229  0.5469 -1.5230 -0.6290
13659SOL     OW52700   3.515  11.877   4.940  0.0422 -0.5472  0.3379
13659SOL    HW152701   3.490  11.788   4.965  1.3243 -1.0605 -0.1136
13659SOL    HW252702   3.456  11.899   4.868 -1.1302 -0.5192  1.2727
13660SOL     OW52703   1.993   5.418   1.164  0.3348 -0.5746 -0.1551
13660SOL    HW152704   1.990   5.508   1.197  3.1099 -0.7653  0.8212
13660SOL    HW252705   2.005   5.364   1.242 -0.7348 -1.7793 -0.7891
13661SOL     OW52706   6.236   0.897  10.705  0.4845 -0.0125 -0.9223
13661SOL    HW152707   6.331   0.907  10.707  0.5310 -0.5147  0.5503
13661SOL    HW252708   6.220   0.814  10.749 -0.6137 -0.2245 -1.6821
13662SOL     OW52709   3.561   0.911   6.430  0.3414 -0.4462 -0.1833
13662SOL    HW152710   3.480   0.960   6.413  0.8596  0.4831 -0.0563
13662SOL    HW252711   3.571   0.853   6.354  0.3632  0.5431 -0.9563
13663SOL     OW52712  10.704   3.775   1.686 -0.2467  0.3916  0.1816
13663SOL    HW152713  10.716   3.684   1.659 -0.3751  0.9125 -1.7482
13663SOL    HW252714  10.620   3.800   1.647  0.5030  1.7831 -0.5760
13664SOL     OW52715  10.648   6.039   6.225  0.4052  0.1543  0.2349
13664SOL    HW152716  10.693   5.974   6.170  0.7653 -0.6287  1.4210
13664SOL    HW252717  10.559   6.005   6.233  0.9069 -0.8736  1.8460
13665SOL     OW52718   5.633   7.497   9.901 -0.0681 -0.2510 -0.3761
13665SOL    HW152719   5.592   7.503   9.815  0.2853 -2.1965 -0.7324
13665SOL    HW252720   5.561   7.482   9.962 -0.0804 -2.3143 -0.8239
13666SOL     OW52721   5.019   3.584   6.750 -0.5916  0.4804  0.2096
13666SOL    HW152722   5.002   3.677   6.766 -0.6879  0.2156  1.8393
13666SOL    HW252723   4.939   3.551   6.709 -2.2618  0.3028  3.3070
13667SOL     OW52724   7.715   1.829   3.024  0.2927  0.1339  0.0845
13667SOL    HW152725   7.656   1.849   2.952  0.1683 -0.5380 -0.0069
13667SOL    HW252726   7.674   1.755   3.069 -0.2556  1.2832  1.5797
13668SOL     OW52727   0.310   3.731   3.205  0.0305 -0.0376 -0.0822
13668SOL    HW152728   0.308   3.636   3.196 -0.2671 -0.0411  0.0259
13668SOL    HW252729   0.390   3.749   3.256 -0.0150 -0.2418  0.0609
13669SOL     OW52730   5.165   8.208   9.919 -0.9230 -0.4673 -0.2313
13669SOL    HW152731   5.211   8.163   9.989 -0.9243 -0.4218 -0.2011
13669SOL    HW252732   5.077   8.171   9.921 -1.7731  1.4136  1.5676
13670SOL     OW52733  10.052  10.995   9.240 -0.0102 -0.2483  0.4420
13670SOL    HW152734   9.969  10.950   9.252 -0.6684  1.3163  2.2598
13670SOL    HW252735  10.104  10.935   9.187 -1.2349 -2.5723  1.6986
13671SOL     OW52736   1.936   1.292   7.751  0.1839 -0.0638 -0.2009
13671SOL    HW152737   1.909   1.255   7.835  1.4041 -1.9268 -0.5654
13671SOL    HW252738   1.900   1.231   7.686  0.0951  0.8061 -0.9768
13672SOL     OW52739   9.322   2.100   6.560 -0.2314  0.6585 -0.1174
13672SOL    HW152740   9.280   2.060   6.483  0.4323  0.8421 -0.5771
13672SOL    HW252741   9.407   2.129   6.529  1.5476 -2.3718  1.4868
13673SOL     OW52742   2.844   8.632   4.928 -0.1604 -0.0746 -0.0434
13673SOL    HW152743   2.858   8.683   4.848  0.4052  2.1967  1.4296
13673SOL    HW252744   2.749   8.630   4.939 -0.3696 -1.8014 -1.5492
13674SOL     OW52745   8.258   4.996   3.668  0.4363 -0.2511 -0.3177
13674SOL    HW152746   8.326   4.930   3.675 -0.4265 -0.9893  2.0173
13674SOL    HW252747   8.183   4.950   3.630  0.1035 -0.4055  0.5155
13675SOL     OW52748   8.135   5.217   0.684  0.2485 -0.0949  0.8471
13675SOL    HW152749   8.206   5.230   0.622 -0.3843 -1.6339 -0.2691
13675SOL    HW252750   8.076   5.291   0.668  0.0964 -0.4573 -0.4198
13676SOL     OW52751   7.192  11.350   2.070 -0.1316  0.1397  0.0200
13676SOL    HW152752   7.231  11.414   2.129  0.7263 -0.9699  0.6860
13676SOL    HW252753   7.107  11.389   2.045  0.1307  1.2707  0.8218
13677SOL     OW52754   4.584   9.885   4.504  0.1358 -0.0590 -0.1588
13677SOL    HW152755   4.608   9.956   4.443 -0.0012 -0.5356 -0.7739
13677SOL    HW252756   4.634   9.810   4.474 -0.7801 -0.5976 -0.3734
13678SOL     OW52757   1.543   6.454   7.266 -0.0477  0.1574 -0.1247
13678SOL    HW152758   1.500   6.494   7.342 -0.5512  1.4809 -1.0567
13678SOL    HW252759   1.601   6.387   7.303  1.6524  2.4320  1.6454
13679SOL     OW52760   7.513   4.967   6.569  0.5266 -0.2278  0.2751
13679SOL    HW152761   7.470   4.902   6.514 -0.0345  0.3963 -0.0342
13679SOL    HW252762   7.595   4.987   6.522  1.3909 -1.7107  1.0668
13680SOL     OW52763   3.756   4.862   5.952  0.5295  0.6242  0.0864
13680SOL    HW152764   3.668   4.899   5.958  0.9832  1.5336  2.0431
13680SOL    HW252765   3.771   4.850   5.858 -1.8021  0.0687 -0.2758
13681SOL     OW52766   2.840  10.695  11.553 -0.4558 -0.0736  0.2119
13681SOL    HW152767   2.757  10.657  11.526  1.0336 -1.9113 -2.2069
13681SOL    HW252768   2.881  10.628  11.608  0.3808 -0.2162 -0.5536
13682SOL     OW52769   4.845   2.893   3.630 -0.1733  0.4877 -0.2852
13682SOL    HW152770   4.867   2.957   3.562  1.1342  1.4142  0.9631
13682SOL    HW252771   4.909   2.823   3.618 -0.3582  0.3366 -0.4048
13683SOL     OW52772   2.633   7.523   4.921  0.0952  0.2151 -0.5355
13683SOL    HW152773   2.564   7.574   4.963 -0.7296 -2.3451  1.4518
13683SOL    HW252774   2.700   7.588   4.898 -1.9348  2.4617 -0.4220
13684SOL     OW52775   1.999   0.129   9.143 -0.3370 -0.0490 -0.1794
13684SOL    HW152776   1.947   0.190   9.092  0.6299  1.5662  0.6886
13684SOL    HW252777   1.986   0.156   9.234  0.2302 -1.0436  0.2133
13685SOL     OW52778   4.905  10.750  11.685 -0.1016  0.2477 -0.1775
13685SOL    HW152779   4.931  10.682  11.622 -0.5401  0.0393 -0.1369
13685SOL    HW252780   4.810  10.758  11.674  0.0587  1.4726 -0.7921
13686SOL     OW52781   6.268   9.629   2.269  0.0790 -0.2467  0.0092
13686SOL    HW152782   6.222   9.627   2.353 -0.3997 -2.4385 -0.2558
13686SOL    HW252783   6.285   9.722   2.254  0.9938  0.1584  2.9410
13687SOL     OW52784   0.080   6.917  10.510 -0.3076 -0.2313 -0.2209
13687SOL    HW152785   0.128   6.836  10.493  1.3218  0.3933  1.1441
13687SOL    HW252786   0.101   6.974  10.435 -0.7622 -0.7322 -0.7436
13688SOL     OW52787   7.843   5.388   2.650  0.0632 -0.7778 -0.1241
13688SOL    HW152788   7.922   5.342   2.680 -0.2941 -1.4527 -0.1932
13688SOL    HW252789   7.773   5.323   2.658 -0.3984 -0.3392 -0.5265
13689SOL     OW52790   2.998   2.787   3.695  0.5202  0.1077  0.3810
13689SOL    HW152791   2.947   2.768   3.774 -2.4059 -2.7394 -1.8823
13689SOL    HW252792   3.032   2.702   3.667 -2.3841 -0.0530 -3.6140
13690SOL     OW52793  11.684   6.525   9.250 -0.4427  0.0296 -0.2077
13690SOL    HW152794  11.658   6.589   9.317  3.3536 -0.9668  2.5599
13690SOL    HW252795  11.647   6.442   9.280  0.6330 -0.2910  0.2499
13691SOL     OW52796  10.061   4.824   8.476 -0.3715  0.0021 -0.0525
13691SOL    HW152797  10.140   4.806   8.527  0.1287 -1.0596 -1.1464
13691SOL    HW252798  10.092   4.832   8.386 -1.3247  1.1724 -0.3064
13692SOL     OW52799   0.083   1.690   7.648  0.0331 -0.3743  0.5065
13692SOL    HW152800   0.065   1.683   7.555 -0.7721 -0.0020  0.6165
13692SOL    HW252801   0.102   1.601   7.677  2.0829 -0.2535 -0.3294
13693SOL     OW52802  11.806   4.415   9.676 -0.1613  0.1434 -0.3109
13693SOL    HW152803  11.712   4.428   9.691 -0.0147  1.0093 -0.1291
13693SOL    HW252804  11.820   4.441   9.585 -0.1355 -0.2469 -0.4240
13694SOL     OW52805   3.897   3.021   3.925  0.0620  0.5860  0.1774
13694SOL    HW152806   3.803   3.016   3.940  0.0498  0.5646  0.0918
13694SOL    HW252807   3.926   2.930   3.924  0.5248  0.6183  3.0202
13695SOL     OW52808   4.458   9.357   4.792 -0.5193 -0.3575 -0.8126
13695SOL    HW152809   4.523   9.419   4.825 -0.4258 -0.7274 -0.2897
13695SOL    HW252810   4.509   9.284   4.758 -0.6634 -1.2007  0.6975
13696SOL     OW52811   9.597   3.339   4.885 -0.1378  0.7218 -0.3800
13696SOL    HW152812   9.615   3.338   4.979 -1.1188  0.3040 -0.1764
13696SOL    HW252813   9.522   3.279   4.875  0.1665  0.5087 -1.4725
13697SOL     OW52814   7.919   0.006   8.635  0.0577  0.2689 -0.6120
13697SOL    HW152815   7.976  -0.002   8.711 -1.2445 -0.0124  0.3739
13697SOL    HW252816   7.868   0.085   8.651  1.3421  1.5234 -2.3345
13698SOL     OW52817  10.359   8.205   7.358  0.0092  0.3062 -0.3398
13698SOL    HW152818  10.448   8.169   7.359 -0.3356 -0.5721  0.8329
13698SOL    HW252819  10.310   8.145   7.302 -0.5950 -1.2562  1.7142
13699SOL     OW52820   6.823   7.036   5.627  0.3741  0.3582  0.4120
13699SOL    HW152821   6.811   7.081   5.711  2.2771  2.3717 -0.2878
13699SOL    HW252822   6.758   7.077   5.569 -0.9913 -1.0847  0.8651
13700SOL     OW52823   6.570   1.778   7.163 -0.3931  0.0995 -0.4715
13700SOL    HW152824   6.502   1.783   7.230 -0.4344  0.8186 -0.5522
13700SOL    HW252825   6.522   1.787   7.080 -0.1785  0.9449 -0.5155
13701SOL     OW52826   2.462   0.626   9.363  0.1704  0.4584 -0.4116
13701SOL    HW152827   2.547   0.599   9.396  0.7640  2.2804 -0.3211
13701SOL    HW252828   2.482   0.691   9.295 -1.1368  0.0666 -1.2183
13702SOL     OW52829   2.453   6.132   3.472  0.0020  0.3251 -0.0182
13702SOL    HW152830   2.397   6.153   3.397 -1.6126  0.3035  1.1407
13702SOL    HW252831   2.515   6.067   3.439  0.7139  1.8349 -1.8722
13703SOL     OW52832   8.668  10.476  11.924 -0.1105  0.0731  0.0251
13703SOL    HW152833   8.731  10.404  11.925 -0.9565 -0.7187 -1.2753
13703SOL    HW252834   8.711  10.546  11.975  1.7049 -0.5154 -0.6127
13704SOL     OW52835   3.674   4.935   6.851  0.3880  0.0540 -0.1420
13704SOL    HW152836   3.603   4.986   6.888 -0.2661 -1.4214  0.6961
13704SOL    HW252837   3.633   4.855   6.818  1.3174  0.1951 -1.7977
13705SOL     OW52838   3.831   0.044   0.063 -0.0087 -0.0957 -0.2195
13705SOL    HW152839   3.803   0.064  -0.026  0.9218 -0.3615 -0.5869
13705SOL    HW252840   3.880   0.122   0.091  1.0473 -0.6261 -0.5371
13706SOL     OW52841  10.491   1.268   2.972  0.1477 -0.2568 -0.4616
13706SOL    HW152842  10.551   1.337   3.001 -1.1359  0.8417 -0.2946
13706SOL    HW252843  10.466   1.294   2.883 -0.0511 -0.7097 -0.5412
13707SOL     OW52844   4.792   3.257   6.437  0.8959 -0.4977  0.5122
13707SOL    HW152845   4.728   3.206   6.488  1.2746 -2.6325 -1.0193
13707SOL    HW252846   4.738   3.315   6.383  0.4357  0.4402  1.9056
13708SOL     OW52847   5.694   1.074   7.665 -0.2608 -0.7536  0.1899
13708SOL    HW152848   5.774   1.126   7.673  0.5461 -1.5947 -1.7175
13708SOL    HW252849   5.725   0.984   7.656 -1.4695 -1.1845  0.1687
13709SOL     OW52850   3.329   5.002   1.699  0.0472  0.4296 -0.1905
13709SOL    HW152851   3.408   4.955   1.674  0.3661  0.5833  0.5157
13709SOL    HW252852   3.356   5.094   1.707 -0.1186  0.4278  0.4172
13710SOL     OW52853   3.519   9.994   5.048  1.4467 -0.8328 -0.0802
13710SOL    HW152854   3.443   9.936   5.055  2.1243 -1.6060  1.1359
13710SOL    HW252855   3.535  10.000   4.954 -1.1088  0.6917 -0.5244
13711SOL     OW52856  11.923   2.579   9.141  0.3620 -0.6737 -0.2600
13711SOL    HW152857  11.932   2.624   9.057  0.6628 -0.8101 -0.3015
13711SOL    HW252858  11.985   2.623   9.199  0.1188 -0.5455 -0.0918
13712SOL     OW52859   9.857   4.117   0.392 -0.0393  0.1890  0.0210
13712SOL    HW152860   9.951   4.106   0.379 -0.1946 -1.3010 -0.0402
13712SOL    HW252861   9.818   4.102   0.306 -0.4047 -0.2457  0.2568
13713SOL     OW52862   6.267   3.118  10.965 -0.2779  0.3051 -0.1180
13713SOL    HW152863   6.359   3.142  10.960 -0.3669  0.7809  0.4678
13713SOL    HW252864   6.265   3.024  10.945  0.2314  0.4693 -0.9821
13714SOL     OW52865   9.440   6.963   9.788 -0.0466 -0.6620  0.2968
13714SOL    HW152866   9.415   6.886   9.737  2.4148 -0.5083 -1.3277
13714SOL    HW252867   9.527   6.943   9.821 -0.1968  0.6395  1.5808
13715SOL     OW52868   4.368   4.596   6.498 -0.6487  0.5493  0.3586
13715SOL    HW152869   4.455   4.624   6.468 -0.3859 -2.0211 -1.6514
13715SOL    HW252870   4.307   4.640   6.439 -0.2208 -2.9264 -3.1090
13716SOL     OW52871   1.215   7.289   3.248 -0.2816  1.0026 -0.4543
13716SOL    HW152872   1.269   7.230   3.195 -2.5114  0.9159 -2.8718
13716SOL    HW252873   1.192   7.237   3.325  1.1079  0.2206 -0.5269
13717SOL     OW52874   2.588   9.881  11.275 -0.4359  0.5207 -0.2902
13717SOL    HW152875   2.673   9.841  11.296 -0.8766 -0.7205 -0.7891
13717SOL    HW252876   2.599   9.917  11.187  0.1278  2.0531  0.3614
13718SOL     OW52877   2.785   0.943   6.154  0.1794  0.0008 -0.0914
13718SOL    HW152878   2.867   0.989   6.139  0.1299 -0.2047 -0.9942
13718SOL    HW252879   2.732   1.006   6.205  0.0572  1.0193 -1.4324
13719SOL     OW52880   9.243   3.952   5.978  0.9707 -0.0492  0.0751
13719SOL    HW152881   9.208   4.035   5.947  1.1636 -0.3020 -0.8461
13719SOL    HW252882   9.334   3.952   5.948  0.7842 -0.8774 -0.4995
13720SOL     OW52883   7.290  10.460   0.545  0.0335  0.0079  0.2757
13720SOL    HW152884   7.267  10.393   0.481  0.2147  0.3021 -0.1012
13720SOL    HW252885   7.317  10.411   0.623  0.3461 -0.3638 -0.0613
13721SOL     OW52886   8.152   6.584  10.373  0.1410 -0.3757 -0.1559
13721SOL    HW152887   8.150   6.498  10.330 -0.3153 -0.4513  0.0125
13721SOL    HW252888   8.242   6.613  10.363 -0.0825 -0.0962 -1.7467
13722SOL     OW52889   0.241   5.885  10.371 -0.2411  0.1902  0.5789
13722SOL    HW152890   0.187   5.820  10.326 -2.5166  3.0853 -1.2825
13722SOL    HW252891   0.203   5.969  10.345  3.7698  2.4069  1.1276
13723SOL     OW52892  10.473   2.657  10.252 -0.2874  0.3317 -0.6187
13723SOL    HW152893  10.387   2.688  10.224 -0.2506  1.1427  0.1557
13723SOL    HW252894  10.513   2.731  10.297  0.6847 -0.1441 -0.6585
13724SOL     OW52895   6.053  10.967   5.390 -0.0536 -0.2289  0.0874
13724SOL    HW152896   6.045  10.872   5.396  0.0700 -0.3700 -1.6722
13724SOL    HW252897   5.970  11.000   5.425 -0.2525 -0.9874  0.3604
13725SOL     OW52898   6.814   2.237   9.882  0.2767 -0.1204 -0.9968
13725SOL    HW152899   6.735   2.251   9.934 -1.6243 -0.6955 -3.4927
13725SOL    HW252900   6.836   2.324   9.848  0.4010 -0.0387 -0.7040
13726SOL     OW52901   9.018   1.834   3.684  0.4179  0.7842 -0.1227
13726SOL    HW152902   9.065   1.868   3.608 -0.8033  0.2183 -1.1704
13726SOL    HW252903   8.941   1.790   3.647 -0.5662  1.0739  1.4786
13727SOL     OW52904   6.105   9.177   6.435  0.0210 -0.0193 -0.3477
13727SOL    HW152905   6.073   9.087   6.430  1.2184 -0.4379 -0.7654
13727SOL    HW252906   6.102   9.198   6.528 -0.3355 -0.4580 -0.2530
13728SOL     OW52907   1.778   9.183  10.941 -0.0489  0.4365  1.2797
13728SOL    HW152908   1.845   9.168  11.008  1.4117  0.0985 -0.1863
13728SOL    HW252909   1.755   9.095  10.910  0.2518  0.6273  0.4691
13729SOL     OW52910   3.620   3.027  10.467 -0.0176  0.4402 -0.7691
13729SOL    HW152911   3.702   2.978  10.466  0.2291  0.8541 -1.2392
13729SOL    HW252912   3.581   3.006  10.552  0.1521 -0.4484 -0.9099
13730SOL     OW52913   9.286  11.827   0.123 -0.3224 -0.3184 -0.1243
13730SOL    HW152914   9.226  11.822   0.048 -0.0837  0.2606 -0.3649
13730SOL    HW252915   9.363  11.779   0.095 -0.8134 -1.4007  0.3349
13731SOL     OW52916   7.681   2.569   5.564  0.2105  0.3303  0.0021
13731SOL    HW152917   7.631   2.501   5.609 -1.9642  0.4001 -2.0920
13731SOL    HW252918   7.748   2.522   5.515 -1.8613 -0.5781 -2.2005
13732SOL     OW52919   9.458   5.209   1.566 -0.5765 -0.6474 -0.2170
13732SOL    HW152920   9.415   5.221   1.650  2.0054  1.0039  1.0030
13732SOL    HW252921   9.544   5.173   1.588  0.8157  1.3915 -1.9368
13733SOL     OW52922   7.020   7.612   8.201 -0.0234  0.1494 -0.1644
13733SOL    HW152923   6.963   7.540   8.172  0.1963 -0.6755  1.3016
13733SOL    HW252924   7.089   7.568   8.251  0.0969  1.3767  0.7949
13734SOL     OW52925   6.651   3.738  11.148  0.0609  0.0356 -0.9960
13734SOL    HW152926   6.693   3.820  11.174  2.0294 -0.8954 -1.0833
13734SOL    HW252927   6.568   3.765  11.108  1.5200  2.1500 -2.8425
13735SOL     OW52928   8.089   7.618   2.826  0.4611  0.4803 -0.3678
13735SOL    HW152929   8.035   7.571   2.890  0.2350  1.4815  0.2117
13735SOL    HW252930   8.046   7.704   2.818  0.7579  0.5278 -1.5206
13736SOL     OW52931  11.345   1.760   0.575  0.1136 -0.0447 -0.0411
13736SOL    HW152932  11.287   1.732   0.646 -0.4915  0.2064 -0.4285
13736SOL    HW252933  11.331   1.695   0.506  0.2030  0.0905 -0.1855
13737SOL     OW52934   3.752   0.382   4.999 -0.5376  0.0423 -0.5226
13737SOL    HW152935   3.802   0.441   4.944  1.3104  0.6518  1.6584
13737SOL    HW252936   3.705   0.325   4.937 -0.5060  2.1890 -2.6614
13738SOL     OW52937   6.964   7.267  10.277  0.1768  0.0718  0.1955
13738SOL    HW152938   6.976   7.289  10.369 -0.6078  0.3508  0.2362
13738SOL    HW252939   6.873   7.238  10.271  0.2113  0.0954 -0.4945
13739SOL     OW52940  10.725   9.548   5.842  0.1233 -0.0316  0.3889
13739SOL    HW152941  10.702   9.580   5.929 -1.1025  0.6893 -0.1930
13739SOL    HW252942  10.726   9.452   5.852 -1.8759 -0.0531  0.7714
13740SOL     OW52943   5.008   2.690   3.557  0.2627 -0.4445  0.0721
13740SOL    HW152944   4.947   2.625   3.523 -0.5272  0.1581  0.3183
13740SOL    HW252945   5.090   2.642   3.569 -0.4533 -1.5261  0.7801
13741SOL     OW52946   9.246   1.509   1.473  0.1276 -0.0895 -0.3129
13741SOL    HW152947   9.204   1.551   1.548  0.5873 -0.1757 -0.0033
13741SOL    HW252948   9.222   1.416   1.481  0.9356 -0.2531  0.2475
13742SOL     OW52949   6.810   5.098   2.451 -0.5306 -0.0764 -0.2820
13742SOL    HW152950   6.798   5.020   2.505  0.7850 -0.8364 -1.0282
13742SOL    HW252951   6.789   5.070   2.362 -0.4187  0.5164 -0.5009
13743SOL     OW52952  11.055  10.604   6.649 -0.2023  0.4809  0.6047
13743SOL    HW152953  11.046  10.509   6.654 -0.6491  0.2460 -2.5221
13743SOL    HW252954  11.148  10.618   6.633 -0.0916  0.6223  1.3299
13744SOL     OW52955   3.509   7.014  11.743  0.1967  0.3534 -0.1996
13744SOL    HW152956   3.483   7.023  11.651 -0.1276 -0.3608 -0.1826
13744SOL    HW252957   3.536   6.923  11.752 -1.5151 -0.1022  0.8373
13745SOL     OW52958  11.927   0.762  10.093 -0.3025 -0.0885 -0.6001
13745SOL    HW152959  11.981   0.837  10.065  0.5032 -0.8288 -1.0591
13745SOL    HW252960  11.948   0.751  10.186 -0.7953  0.5590 -0.4057
13746SOL     OW52961  11.166   3.377   2.950  0.2017 -0.1618 -0.0189
13746SOL    HW152962  11.207   3.379   2.863  0.2624 -2.4582 -0.1026
13746SOL    HW252963  11.074   3.354   2.933  0.0921 -0.1156  0.4864
13747SOL     OW52964   5.793   3.672   6.492 -0.2709  0.1115  0.0987
13747SOL    HW152965   5.741   3.725   6.553  1.1572  1.5984  0.0820
13747SOL    HW252966   5.848   3.618   6.549 -0.7750 -0.3908  0.1145
13748SOL     OW52967   1.568   9.769   8.893  0.3106  0.0813  0.0473
13748SOL    HW152968   1.632   9.722   8.947  1.0192 -1.4883 -2.0121
13748SOL    HW252969   1.616   9.791   8.813 -1.0785  1.0300 -0.5555
13749SOL     OW52970  10.271   4.091   1.263  0.3951  0.1735 -0.2367
13749SOL    HW152971  10.231   4.105   1.349  0.6758 -2.9123  0.5023
13749SOL    HW252972  10.197   4.084   1.203  0.0289 -0.5399  0.2785
13750SOL     OW52973   9.662   5.192  10.658 -0.4698 -0.2981  0.4281
13750SOL    HW152974   9.738   5.162  10.708 -1.4427 -0.8222  1.6426
13750SOL    HW252975   9.607   5.114  10.648 -0.5047 -0.1040 -1.1070
13751SOL     OW52976   2.152  10.018   0.521 -0.0635 -0.3493 -0.1113
13751SOL    HW152977   2.115  10.002   0.608 -0.3730  0.0086 -0.1815
13751SOL    HW252978   2.145   9.933   0.476 -1.5429 -0.0772 -0.4144
13752SOL     OW52979   7.408   4.541   7.553  0.2305  0.0024 -0.8290
13752SOL    HW152980   7.374   4.629   7.536  1.1307  0.5499  0.0693
13752SOL    HW252981   7.430   4.541   7.646 -1.0203 -1.6408 -0.4713
13753SOL     OW52982   4.894   0.829   2.614  0.2018  0.4172  0.0766
13753SOL    HW152983   4.832   0.897   2.585 -1.0786 -0.4335  0.7119
13753SOL    HW252984   4.968   0.878   2.649 -0.7315  1.5018  0.5997
13754SOL     OW52985   1.525  11.772  11.746  0.5807  0.2790  0.5257
13754SOL    HW152986   1.602  11.745  11.695  1.7760  1.7815  1.4320
13754SOL    HW252987   1.516  11.865  11.726 -1.0370  0.1204  0.4399
13755SOL     OW52988   8.115  10.731   3.479 -0.2429 -0.0333 -0.1091
13755SOL    HW152989   8.033  10.775   3.458 -0.6328 -1.1369 -1.0248
13755SOL    HW252990   8.159  10.720   3.394 -1.3392 -3.6274 -0.3644
13756SOL     OW52991   7.423   4.528   3.275  0.6578  0.2224  0.0242
13756SOL    HW152992   7.341   4.531   3.225  0.3655 -1.8162  0.2930
13756SOL    HW252993   7.396   4.542   3.366  0.9064  1.6790 -0.1069
13757SOL     OW52994   6.897  10.355  10.792 -0.0687 -0.6223 -0.1065
13757SOL    HW152995   6.850  10.298  10.731  0.0263 -0.5850 -0.2153
13757SOL    HW252996   6.861  10.333  10.878  0.5895 -1.4851 -0.0304
13758SOL     OW52997   0.891   6.369   2.915  0.5086  0.3394 -0.6142
13758SOL    HW152998   0.837   6.305   2.869  0.6077 -1.1443  1.2106
13758SOL    HW252999   0.829   6.433   2.949  0.2049  0.1716 -0.8474
13759SOL     OW53000   7.584   9.496   9.913 -0.3075 -0.1607  0.1504
13759SOL    HW153001   7.584   9.431   9.842  2.0118 -0.6171  0.5065
13759SOL    HW253002   7.530   9.456   9.981 -2.0143 -0.0063 -1.0259
13760SOL     OW53003   3.927   5.586  11.069 -0.0473 -0.3191  0.4790
13760SOL    HW153004   3.978   5.537  11.004  0.0333  1.0936 -0.5668
13760SOL    HW253005   3.837   5.582  11.037 -0.0136  0.3492  0.2856
13761SOL     OW53006   9.627   0.797   6.333  0.3860 -0.2886 -0.1881
13761SOL    HW153007   9.560   0.777   6.398  0.9648  0.0728  0.5391
13761SOL    HW253008   9.579   0.817   6.253 -0.3192 -1.2371 -0.0112
13762SOL     OW53009  11.907   6.722   9.468  0.0885  0.0821  0.0018
13762SOL    HW153010  11.906   6.750   9.377 -0.8194  2.2567  0.6119
13762SOL    HW253011  11.998   6.698   9.485  0.7555  1.7902 -0.9169
13763SOL     OW53012   2.172   2.431  10.384 -0.7691  0.6143 -0.5091
13763SOL    HW153013   2.115   2.497  10.423  2.6272  1.5408  3.6431
13763SOL    HW253014   2.134   2.347  10.410  0.3802  1.2067  3.7400
13764SOL     OW53015   1.642  10.608   4.590  0.2136  0.0828  0.1909
13764SOL    HW153016   1.565  10.665   4.586  0.0465 -0.1882 -0.4489
13764SOL    HW253017   1.709  10.662   4.632  0.1626  0.8841 -0.7209
13765SOL     OW53018  11.950   3.289   3.316  0.4143 -0.3164  0.0058
13765SOL    HW153019  11.987   3.311   3.402  1.6147 -1.9280 -0.0574
13765SOL    HW253020  11.909   3.203   3.328 -0.0718 -0.2175 -0.8508
13766SOL     OW53021   3.192  11.752   1.833 -0.3228  0.0509  0.0768
13766SOL    HW153022   3.101  11.723   1.836 -0.1491 -0.4085  1.2042
13766SOL    HW253023   3.233  11.714   1.911  0.8339  0.2661 -0.3950
13767SOL     OW53024   8.865   1.003   5.907 -0.1765 -0.5011  0.5008
13767SOL    HW153025   8.811   0.958   5.972  1.0444 -0.4682  1.5735
13767SOL    HW253026   8.802   1.056   5.857 -1.2316 -1.0542  1.2013
13768SOL     OW53027  11.914   2.269   4.630  0.5096  0.2063  0.1076
13768SOL    HW153028  11.970   2.274   4.553  1.3367  1.0822  0.7451
13768SOL    HW253029  11.974   2.255   4.703 -0.2213 -0.1870  0.6516
13769SOL     OW53030   1.518   9.642   8.379 -0.4940  0.1306 -0.2432
13769SOL    HW153031   1.545   9.685   8.460 -0.5025  0.4235 -0.3932
13769SOL    HW253032   1.573   9.564   8.373  0.2548  0.6707 -0.4986
13770SOL     OW53033   7.299   7.394   6.536 -0.0805 -0.2659 -0.3795
13770SOL    HW153034   7.364   7.428   6.475 -1.1168  2.1824 -0.2416
13770SOL    HW253035   7.303   7.453   6.611 -3.2111  0.7845 -0.8563
13771SOL     OW53036   4.451   4.325   7.834  0.7261 -0.2628  0.4952
13771SOL    HW153037   4.526   4.341   7.778  0.7888 -0.7161  0.4456
13771SOL    HW253038   4.414   4.242   7.802  2.7418 -2.4066  3.2248
13772SOL     OW53039   2.953  11.198   7.605  0.1604  0.0563  0.1985
13772SOL    HW153040   2.895  11.139   7.653  1.1586 -1.3986 -0.3337
13772SOL    HW253041   3.039  11.184   7.642  0.6329  0.2339 -0.7900
13773SOL     OW53042   4.810   6.298   2.493 -0.3915 -0.1649 -0.0912
13773SOL    HW153043   4.893   6.345   2.483 -0.9529  0.8659 -0.1327
13773SOL    HW253044   4.816   6.225   2.431  0.3346  0.1041 -0.3504
13774SOL     OW53045   5.978   4.400   8.812  0.0970  0.1275  0.2062
13774SOL    HW153046   6.054   4.444   8.773 -0.2576  0.7170  0.1667
13774SOL    HW253047   5.907   4.414   8.750 -0.4036  0.8264  0.9095
13775SOL     OW53048   4.285  10.457   2.374  0.2451 -0.0567 -0.0781
13775SOL    HW153049   4.274  10.536   2.320  0.8127  0.4674  0.5478
13775SOL    HW253050   4.231  10.474   2.451  0.5124 -0.1965  0.1422
13776SOL     OW53051   1.396   6.934   1.527  0.0667  0.6307 -0.3533
13776SOL    HW153052   1.350   6.944   1.611 -0.0301  1.2963 -0.4814
13776SOL    HW253053   1.397   6.839   1.512 -0.7166  0.5625 -0.0442
13777SOL     OW53054   6.975   2.907   7.774  0.0212 -0.1081  0.1780
13777SOL    HW153055   6.890   2.947   7.792 -0.8802 -2.3192  1.0938
13777SOL    HW253056   6.955   2.821   7.738  1.8529 -0.7512  0.5649
13778SOL     OW53057   0.833  11.207   4.120 -0.1752 -0.0295 -0.2516
13778SOL    HW153058   0.831  11.176   4.029 -0.5742  1.1289 -0.6673
13778SOL    HW253059   0.825  11.302   4.112  0.2980  0.1277  0.9843
13779SOL     OW53060   8.410   8.257   8.738  0.4852  0.1562  0.2787
13779SOL    HW153061   8.319   8.246   8.765  0.5559 -1.0932  0.0670
13779SOL    HW253062   8.447   8.169   8.742  1.6343  0.6126  0.1632
13780SOL     OW53063   9.447   4.163   7.038  0.2574 -0.6068  0.1266
13780SOL    HW153064   9.471   4.169   6.945  0.6454 -1.1179  0.1872
13780SOL    HW253065   9.491   4.237   7.078 -1.2025  0.5584 -0.3418
13781SOL     OW53066   5.261   2.347   9.918  0.3084 -0.4757  0.5219
13781SOL    HW153067   5.208   2.291   9.862  1.7073 -2.6951  1.3114
13781SOL    HW253068   5.231   2.328  10.007 -0.7103  1.7351  0.7264
13782SOL     OW53069   5.334   4.602   2.967 -0.0725  0.1674  0.0772
13782SOL    HW153070   5.416   4.574   2.926 -0.1566  0.5083 -0.3302
13782SOL    HW253071   5.361   4.655   3.042  0.0857  0.8330 -0.4392
13783SOL     OW53072   8.367   3.364   6.971 -0.2590 -0.2568 -0.1319
13783SOL    HW153073   8.317   3.357   6.889  0.4198  0.0360 -0.5745
13783SOL    HW253074   8.364   3.457   6.993 -1.2582 -0.4692  0.7049
13784SOL     OW53075   5.443   4.266  10.994 -0.3590 -0.6314 -0.0669
13784SOL    HW153076   5.391   4.328  11.045  0.8887 -0.1833  0.6967
13784SOL    HW253077   5.473   4.317  10.919  0.3754 -0.3814  0.3804
13785SOL     OW53078   1.761  10.648  10.871 -0.0866  0.2236 -0.2281
13785SOL    HW153079   1.809  10.578  10.827  0.8076  1.5181 -1.4074
13785SOL    HW253080   1.748  10.714  10.802 -1.5479  0.8976  0.6572
13786SOL     OW53081  10.285   2.255   8.899  0.1532  0.0203  0.1398
13786SOL    HW153082  10.203   2.243   8.850 -0.2748  1.5176  0.4370
13786SOL    HW253083  10.263   2.320   8.966  1.6068  0.4850  0.1949
13787SOL     OW53084   0.950   4.836   8.028 -0.6945  0.5087 -0.0140
13787SOL    HW153085   0.989   4.903   7.971 -2.2409 -0.0065 -1.8124
13787SOL    HW253086   0.922   4.767   7.967 -0.9669 -0.8390  1.5761
13788SOL     OW53087  11.003   1.288   7.148 -0.4328 -0.5119 -0.3988
13788SOL    HW153088  10.925   1.316   7.100 -1.3653  0.6283  1.6666
13788SOL    HW253089  11.047   1.369   7.173 -2.0616 -0.6992  3.8906
13789SOL     OW53090   2.824   0.434   8.911 -0.2658 -0.2916  0.6339
13789SOL    HW153091   2.733   0.421   8.938 -0.3416 -1.7467 -0.2429
13789SOL    HW253092   2.862   0.347   8.911  0.9882  0.2348  0.4600
13790SOL     OW53093   9.834   0.766   9.049 -0.4433 -0.2095 -0.4492
13790SOL    HW153094   9.802   0.677   9.031 -0.2205 -0.4097  0.1233
13790SOL    HW253095   9.901   0.781   8.983  1.8091 -1.7127  1.3329
13791SOL     OW53096   3.742  11.506   9.393 -0.1775  0.4845  0.6739
13791SOL    HW153097   3.825  11.460   9.406  0.0880  0.5035 -0.8240
13791SOL    HW253098   3.760  11.570   9.325 -1.5397  0.1725 -0.0086
13792SOL     OW53099  10.040   6.081   3.285 -0.1394  0.3746 -0.2793
13792SOL    HW153100  10.101   6.147   3.254 -0.5352  0.6150 -0.5410
13792SOL    HW253101   9.958   6.127   3.298 -1.0142 -0.4233 -2.4270
13793SOL     OW53102   9.712   8.953   9.501  0.0604  0.1466  0.6135
13793SOL    HW153103   9.634   8.902   9.478  0.8078 -0.9665  0.4475
13793SOL    HW253104   9.693   9.041   9.469 -0.2095 -0.6184 -1.5265
13794SOL     OW53105   9.661  11.010   6.448  0.1819 -0.0560  0.3328
13794SOL    HW153106   9.647  11.025   6.355  1.5791 -3.0854 -0.4887
13794SOL    HW253107   9.724  11.077   6.474 -0.8141  1.3216 -0.6736
13795SOL     OW53108   5.204   5.850   0.412  0.4523  0.3529 -0.0668
13795SOL    HW153109   5.264   5.873   0.482  2.6836  1.6527 -2.2533
13795SOL    HW253110   5.228   5.761   0.387 -0.2065 -0.0325  0.6018
13796SOL     OW53111   0.066   9.450   7.196 -0.1812 -0.1672 -0.8911
13796SOL    HW153112   0.121   9.420   7.269 -0.1962 -1.9552 -1.5517
13796SOL    HW253113  -0.023   9.427   7.223 -0.4071  0.8750 -0.6994
13797SOL     OW53114  10.422   2.254   7.419  0.2065 -0.6176  0.7441
13797SOL    HW153115  10.352   2.249   7.484  1.0895  1.3716  1.9810
13797SOL    HW253116  10.467   2.336   7.440 -1.1042  1.7112 -4.1167
13798SOL     OW53117  11.638  10.623   9.817  0.1128 -0.1915  0.1380
13798SOL    HW153118  11.582  10.696   9.844  0.9131  0.4739  0.0247
13798SOL    HW253119  11.631  10.621   9.722  0.0878 -0.2683  0.1408
13799SOL     OW53120   0.985  10.306   8.251 -0.2600 -1.0703 -0.1140
13799SOL    HW153121   1.000  10.400   8.241  1.6660 -1.5298 -2.3463
13799SOL    HW253122   0.965  10.295   8.344  0.0956  1.4380  0.3354
13800SOL     OW53123   0.232   0.196   9.029 -0.3104 -0.0336  0.7364
13800SOL    HW153124   0.172   0.181   8.955  0.0618  2.9573 -0.3264
13800SOL    HW253125   0.319   0.190   8.990 -0.1035  1.2581  0.9689
13801SOL     OW53126   4.449   3.243   7.573  0.0912 -0.5051 -0.2278
13801SOL    HW153127   4.454   3.221   7.480  1.1854 -0.4872 -0.1942
13801SOL    HW253128   4.372   3.299   7.581 -0.8057 -1.5915 -0.8819
13802SOL     OW53129   1.514   7.963   0.393  0.1453 -0.1807  0.6311
13802SOL    HW153130   1.596   7.961   0.344  0.0669 -0.1925  0.4998
13802SOL    HW253131   1.487   7.871   0.399 -0.8112 -0.0332 -0.9394
13803SOL     OW53132  10.021   9.240   6.703  0.1161 -0.3522 -0.0226
13803SOL    HW153133  10.038   9.238   6.797 -0.2952  2.0170  0.1624
13803SOL    HW253134  10.067   9.163   6.668  0.7879 -0.9254  2.0205
13804SOL     OW53135   5.776  10.782   1.405  0.1260 -0.1677 -0.1833
13804SOL    HW153136   5.728  10.704   1.377  1.2669 -0.7220 -0.6490
13804SOL    HW253137   5.868  10.754   1.408  0.9208  1.7482 -2.6872
13805SOL     OW53138   0.189   6.066   0.523 -0.3930 -0.2174  0.1003
13805SOL    HW153139   0.212   6.133   0.460 -0.7108  0.3800  0.6065
13805SOL    HW253140   0.269   6.014   0.533 -0.7520 -1.2058 -1.8413
13806SOL     OW53141  11.412   4.910   4.937  0.5843 -0.0346 -0.9495
13806SOL    HW153142  11.421   4.863   4.854 -1.3774 -0.8385 -0.7543
13806SOL    HW253143  11.323   4.890   4.967  1.2301  0.2649  1.3507
13807SOL     OW53144   4.130   7.356   6.474 -0.1796 -0.4327 -0.2921
13807SOL    HW153145   4.169   7.386   6.392  0.9301  0.7470  0.6258
13807SOL    HW253146   4.129   7.434   6.530 -1.0511 -1.1774  0.7769
13808SOL     OW53147   1.287   2.636   0.535 -0.0443  0.2632 -0.0118
13808SOL    HW153148   1.278   2.546   0.505  2.6046  0.0200 -0.2778
13808SOL    HW253149   1.278   2.631   0.630 -1.9154  0.0602 -0.1694
13809SOL     OW53150   6.052  10.816   9.185 -0.4672 -0.1274 -0.1043
13809SOL    HW153151   6.046  10.891   9.125 -0.6251 -1.7514 -2.2540
13809SOL    HW253152   6.145  10.813   9.209 -0.6978  1.5707  1.2117
13810SOL     OW53153   9.402   6.646   2.483  0.1140  0.2381 -0.1235
13810SOL    HW153154   9.337   6.690   2.430 -1.4342 -0.5014  1.0744
13810SOL    HW253155   9.486   6.666   2.441 -0.6916  2.6570 -0.7118
13811SOL     OW53156  10.129   4.396   7.075 -0.7612  0.6513  0.4949
13811SOL    HW153157  10.102   4.320   7.024  0.7466 -0.0997  0.7674
13811SOL    HW253158  10.047   4.434   7.106 -1.5981 -0.1154 -0.7017
13812SOL     OW53159   6.866   8.062   5.896  0.6847 -0.4840  0.4421
13812SOL    HW153160   6.824   7.983   5.861 -1.4916  0.0395  1.6981
13812SOL    HW253161   6.876   8.119   5.820 -4.3292  0.8045  0.4100
13813SOL     OW53162   6.178  10.339   3.980  0.0266  0.4599  0.2031
13813SOL    HW153163   6.113  10.275   4.010  0.0586 -0.2379 -1.1349
13813SOL    HW253164   6.162  10.416   4.034 -1.2828 -0.0302  0.5640
13814SOL     OW53165  10.574   4.059   9.274 -0.5186 -0.0175 -0.1398
13814SOL    HW153166  10.592   4.041   9.367 -2.8221 -0.2060  0.3262
13814SOL    HW253167  10.482   4.086   9.272 -0.2623  0.8992 -2.2714
13815SOL     OW53168   8.777   9.782   5.111 -0.3041  0.9883  0.1838
13815SOL    HW153169   8.843   9.751   5.173  0.1193  0.4681 -0.5096
13815SOL    HW253170   8.733   9.703   5.080 -1.2227  1.3252  0.5928
13816SOL     OW53171   3.144   6.014   9.442 -0.2611 -0.1163  0.2146
13816SOL    HW153172   3.154   6.025   9.347  0.6141  1.6196  0.4713
13816SOL    HW253173   3.067   5.957   9.451 -2.3313  2.1783 -1.5023
13817SOL     OW53174   1.718  10.823   6.178  0.2084 -0.2261 -0.6618
13817SOL    HW153175   1.716  10.908   6.132 -1.5162  1.4177  2.2006
13817SOL    HW253176   1.632  10.785   6.161  0.3513 -0.6088 -0.5267
13818SOL     OW53177   2.995   2.744   4.790 -0.2583  0.0104 -0.5179
13818SOL    HW153178   2.943   2.664   4.780 -0.9745  0.2337  1.0374
13818SOL    HW253179   2.932   2.815   4.780  0.0358  0.3262 -0.1933
13819SOL     OW53180  11.020   4.265  11.024  0.1245 -0.4213  0.2085
13819SOL    HW153181  10.977   4.256  10.939 -0.7922 -0.5823  0.6843
13819SOL    HW253182  10.955   4.236  11.088 -0.2974  2.4314  1.2206
13820SOL     OW53183   4.929   5.764   7.071  0.7457  0.0213 -0.2718
13820SOL    HW153184   4.882   5.847   7.079  1.8717  0.5346  1.5649
13820SOL    HW253185   4.910   5.717   7.152  0.6392 -1.2732 -1.0145
13821SOL     OW53186   7.655   8.947   7.884  0.1964 -0.0177  0.2553
13821SOL    HW153187   7.653   8.939   7.979  1.0350 -0.4370  0.2539
13821SOL    HW253188   7.595   9.018   7.863  1.9703  1.8923  1.2982
13822SOL     OW53189   7.380   2.877   7.925 -0.4361  0.1649  0.2035
13822SOL    HW153190   7.456   2.829   7.959 -0.4333  0.4766  0.6403
13822SOL    HW253191   7.399   2.888   7.832  0.3078  0.7021  0.4078
13823SOL     OW53192   7.050   7.802   1.464 -0.0783  0.2094  0.5084
13823SOL    HW153193   7.059   7.893   1.435 -0.0787 -0.2550 -1.0550
13823SOL    HW253194   7.074   7.750   1.387 -2.3297 -1.1136  0.6222
13824SOL     OW53195   1.361  10.793   9.441  0.6300  0.2314 -0.2777
13824SOL    HW153196   1.436  10.741   9.468  0.4005  0.8964  1.9023
13824SOL    HW253197   1.287  10.733   9.447  0.4577  0.5474  1.6201
13825SOL     OW53198   5.032  10.833  10.944  0.6011 -0.4065  0.6341
13825SOL    HW153199   5.121  10.860  10.969  0.8749 -1.2120  0.5821
13825SOL    HW253200   4.986  10.915  10.926  1.7568 -0.0145 -0.7350
13826SOL     OW53201  10.629   8.369   5.353 -0.0693  0.6398  1.1056
13826SOL    HW153202  10.707   8.321   5.381  0.0454  1.9999  3.3857
13826SOL    HW253203  10.556   8.316   5.386 -0.0497  0.3550  0.6939
13827SOL     OW53204   6.960   9.819   6.196  0.0354 -0.2145 -0.3701
13827SOL    HW153205   6.890   9.788   6.139 -0.8116  0.2762  0.3802
13827SOL    HW253206   7.038   9.816   6.141 -0.2830 -2.1374 -0.7994
13828SOL     OW53207   8.651   4.564   7.895  0.5139 -0.4503 -0.2003
13828SOL    HW153208   8.719   4.498   7.882 -0.2062 -1.1585 -0.5043
13828SOL    HW253209   8.574   4.528   7.850 -0.1054  0.2527  0.2679
13829SOL     OW53210   2.382   4.346   7.074  0.2582 -0.2673 -0.1468
13829SOL    HW153211   2.325   4.368   7.000 -2.1883 -0.0488  1.6593
13829SOL    HW253212   2.459   4.401   7.062 -0.8800  1.1303 -1.5517
13830SOL     OW53213  11.291   0.911   3.709  0.3355 -0.2969 -0.2789
13830SOL    HW153214  11.331   0.902   3.623  0.4513 -1.4422 -0.1112
13830SOL    HW253215  11.247   0.827   3.724  1.0824 -0.4503  1.1697
13831SOL     OW53216   7.599  11.365   7.671 -0.5598  0.3487  0.4623
13831SOL    HW153217   7.640  11.283   7.643  1.2651  1.1450  0.6865
13831SOL    HW253218   7.540  11.339   7.743 -0.1617 -0.7757  0.4016
13832SOL     OW53219   7.368  10.284  10.881 -0.2934 -0.6400  0.1352
13832SOL    HW153220   7.367  10.357  10.819  2.3585 -3.1416 -3.2105
13832SOL    HW253221   7.315  10.217  10.839  1.7934 -2.5254  0.3811
13833SOL     OW53222  11.742   0.439   4.746  0.2492  0.6518  0.9687
13833SOL    HW153223  11.661   0.396   4.776  0.2677  1.5399  2.3864
13833SOL    HW253224  11.711   0.511   4.691  0.2071 -0.8895 -1.1067
13834SOL     OW53225   0.498   9.841   2.461  0.1685 -0.1314 -0.2792
13834SOL    HW153226   0.441   9.916   2.443  0.0970 -0.3476 -0.9588
13834SOL    HW253227   0.531   9.814   2.376 -0.5940 -1.4990 -0.1841
13835SOL     OW53228   3.888   0.724   0.296 -0.6172  0.3836  0.4097
13835SOL    HW153229   3.817   0.710   0.233  0.7008 -1.6047 -0.7323
13835SOL    HW253230   3.865   0.669   0.371 -0.5040  0.0919  0.2304
13836SOL     OW53231   2.290   8.273   6.403  0.6190 -0.0134 -0.2143
13836SOL    HW153232   2.329   8.341   6.348 -1.0182  0.4171 -0.9025
13836SOL    HW253233   2.333   8.283   6.488  2.5634 -0.1197 -1.1270
13837SOL     OW53234   0.057   4.309   4.838 -0.8181 -0.2820  0.6334
13837SOL    HW153235   0.108   4.229   4.827  0.5659  0.6949 -0.4730
13837SOL    HW253236   0.063   4.353   4.753 -1.6128  0.9630  1.1919
13838SOL     OW53237  11.361   3.607   5.856 -0.0624 -0.1540  0.4821
13838SOL    HW153238  11.448   3.568   5.862 -1.1898 -2.9081  0.5751
13838SOL    HW253239  11.305   3.549   5.907 -2.1263  1.0248 -0.2986
13839SOL     OW53240   3.953   8.722  11.524 -0.5521  0.2051  0.2160
13839SOL    HW153241   3.920   8.700  11.611  1.7696 -0.7755  0.9093
13839SOL    HW253242   4.032   8.670  11.514  0.7511  2.3242 -1.3858
13840SOL     OW53243   1.314   3.481   8.268  0.2531  0.1675 -0.1510
13840SOL    HW153244   1.407   3.480   8.289  0.6479 -2.6564 -1.5244
13840SOL    HW253245   1.301   3.564   8.223  1.7596  1.2493  1.2876
13841SOL     OW53246   9.535   6.049   3.830  0.4039  0.1597  0.1752
13841SOL    HW153247   9.488   5.981   3.782  1.0262 -0.2973  0.2103
13841SOL    HW253248   9.524   6.025   3.922  0.4239  0.2387  0.1985
13842SOL     OW53249   4.786   1.387   2.276 -0.2421 -0.2209  0.3919
13842SOL    HW153250   4.829   1.304   2.255 -0.7824 -0.6670  1.0098
13842SOL    HW253251   4.854   1.440   2.315  0.1578 -0.2996 -0.1865
13843SOL     OW53252   3.730   1.225   4.706  0.4016  0.0580  0.0810
13843SOL    HW153253   3.703   1.308   4.746  0.0187 -0.2535  0.4749
13843SOL    HW253254   3.648   1.179   4.688  0.4840  0.7037 -2.2137
13844SOL     OW53255   5.924  11.645   5.129  0.0356 -0.4173 -0.4708
13844SOL    HW153256   5.994  11.710   5.129  0.0444 -0.4227 -0.0842
13844SOL    HW253257   5.863  11.675   5.197 -0.3900 -0.3600 -0.8721
13845SOL     OW53258   4.976   7.460   7.282  0.2527 -0.0063 -0.3959
13845SOL    HW153259   4.959   7.551   7.309  1.0788 -0.5201  2.1612
13845SOL    HW253260   5.009   7.467   7.193  1.9537  2.4029  0.3113
13846SOL     OW53261  10.882   5.604   3.247  0.0400 -0.0491  0.4297
13846SOL    HW153262  10.971   5.600   3.282 -0.1141  0.1910  0.8514
13846SOL    HW253263  10.832   5.541   3.299 -0.8807  2.3957  2.7290
13847SOL     OW53264   5.594   3.361   3.448 -0.0220 -0.2934  0.0470
13847SOL    HW153265   5.564   3.298   3.383  0.8376 -0.5958 -0.0743
13847SOL    HW253266   5.514   3.396   3.487 -0.6414  0.9971 -2.1907
13848SOL     OW53267   9.103   8.673   6.493  0.0849 -0.1369 -0.1646
13848SOL    HW153268   9.168   8.646   6.429  1.0184 -0.0101  0.7015
13848SOL    HW253269   9.126   8.625   6.573 -0.1753  0.7904  0.4925
13849SOL     OW53270   2.587  10.057   4.513  0.2003  0.0595 -0.4050
13849SOL    HW153271   2.674  10.018   4.516 -1.3775 -3.8747  1.4934
13849SOL    HW253272   2.566  10.076   4.604 -1.4778 -0.5302 -0.6351
13850SOL     OW53273  10.350   6.195  11.848 -0.1938 -0.2725 -0.3023
13850SOL    HW153274  10.372   6.191  11.755  0.3365  0.7826 -0.2375
13850SOL    HW253275  10.409   6.131  11.889  0.6114  0.3219 -0.5133
13851SOL     OW53276   2.692   1.736   8.380 -0.4191  0.2239 -0.1940
13851SOL    HW153277   2.695   1.797   8.306 -1.7513  1.0135  0.3684
13851SOL    HW253278   2.604   1.746   8.416  0.2504 -0.0212  1.5941
13852SOL     OW53279   1.867   1.136   1.808 -0.3426 -0.1800  0.5711
13852SOL    HW153280   1.775   1.144   1.782  0.2179  0.9913 -1.2981
13852SOL    HW253281   1.868   1.064   1.871 -2.4562 -0.5588  0.2680
13853SOL     OW53282  11.621   8.032   8.267 -0.4404 -0.0309 -0.3189
13853SOL    HW153283  11.661   7.989   8.343  0.7938  1.4140 -0.0951
13853SOL    HW253284  11.553   8.088   8.304 -1.3783 -1.0091 -0.5182
13854SOL     OW53285   5.582   0.645   3.002 -0.3686 -0.3931  0.4699
13854SOL    HW153286   5.511   0.647   2.937  0.2296  0.3889 -0.1916
13854SOL    HW253287   5.542   0.677   3.082 -1.6841 -3.3538  1.1426
13855SOL     OW53288   2.945  10.530  10.189 -0.3090  0.1604 -0.8619
13855SOL    HW153289   3.022  10.520  10.244 -1.3968  0.1949  0.7381
13855SOL    HW253290   2.927  10.624  10.191 -1.3667 -0.0435  0.2078
13856SOL     OW53291   1.095   1.431   8.517 -0.7818 -0.0031 -0.4173
13856SOL    HW153292   1.073   1.490   8.445 -1.7595 -0.4738 -0.5164
13856SOL    HW253293   1.106   1.346   8.475 -2.5441 -0.5297  0.1109
13857SOL     OW53294   9.120   0.827   9.166  0.3240 -0.1402  0.1167
13857SOL    HW153295   9.025   0.839   9.170  0.4379  0.9087 -0.1492
13857SOL    HW253296   9.133   0.757   9.103 -0.2257  0.4764 -0.6998
13858SOL     OW53297   8.121   9.251   9.757  0.4873  0.1107 -0.2779
13858SOL    HW153298   8.159   9.169   9.789 -0.5314  0.1521  1.1560
13858SOL    HW253299   8.193   9.295   9.711  0.4864 -2.5750 -3.1691
13859SOL     OW53300   3.486   3.748   6.563  0.1556  0.3915  0.4815
13859SOL    HW153301   3.414   3.773   6.621 -0.8327 -2.6168  0.6965
13859SOL    HW253302   3.448   3.753   6.475  0.5714  1.4614  0.3444
13860SOL     OW53303   7.535   7.438   8.286 -0.2953 -0.4808  0.0142
13860SOL    HW153304   7.611   7.475   8.241  1.2633  0.0324  2.8157
13860SOL    HW253305   7.542   7.343   8.271  1.0597 -0.4631  0.3531
13861SOL     OW53306   2.401   1.922   9.960  0.0906  0.1187 -0.5819
13861SOL    HW153307   2.415   1.993  10.022 -1.1893 -0.2939  0.2263
13861SOL    HW253308   2.488   1.888   9.941  0.5799  0.9245  0.2019
13862SOL     OW53309   6.199  11.338   9.441  0.0893 -0.2930 -0.5725
13862SOL    HW153310   6.150  11.290   9.507  0.6323  0.5714  0.5067
13862SOL    HW253311   6.206  11.427   9.477  2.8984 -0.5006 -0.3740
13863SOL     OW53312   8.392   8.434   2.860  0.2410  0.3395  0.6340
13863SOL    HW153313   8.383   8.431   2.765 -2.2047 -0.6900  0.8155
13863SOL    HW253314   8.387   8.527   2.882 -2.5491  0.4577 -0.0976
13864SOL     OW53315   3.686   7.269   9.430  0.0753 -0.5579 -0.4305
13864SOL    HW153316   3.768   7.294   9.388 -1.3312  1.9656 -1.9140
13864SOL    HW253317   3.627   7.250   9.357 -0.7752 -2.1381  0.5996
13865SOL     OW53318  10.473   8.724  10.952 -0.3041 -0.4979  0.2823
13865SOL    HW153319  10.406   8.765  10.898 -0.1539 -0.9188 -0.2421
13865SOL    HW253320  10.548   8.713  10.892  0.5828  0.8312  1.0909
13866SOL     OW53321   2.710   7.535   5.962  0.5454  0.1353 -1.0614
13866SOL    HW153322   2.790   7.548   5.910  0.0303  1.2820 -1.6003
13866SOL    HW253323   2.652   7.606   5.935 -0.5664 -0.5208 -0.4735
13867SOL     OW53324   7.515   4.744   4.695 -0.8237  0.0623 -0.5174
13867SOL    HW153325   7.609   4.747   4.707 -0.9271  0.5173  0.2226
13867SOL    HW253326   7.493   4.651   4.698 -0.4517 -0.0189 -0.3070
13868SOL     OW53327   8.619   0.265   7.893 -0.2879  0.1953 -0.0495
13868SOL    HW153328   8.643   0.279   7.801 -0.3505  0.6395  0.0026
13868SOL    HW253329   8.628   0.170   7.905  0.2276  0.1994 -0.3664
13869SOL     OW53330   6.171   4.412   5.482 -0.3315 -0.2851 -0.0749
13869SOL    HW153331   6.124   4.386   5.403  0.0345 -1.2225 -0.0011
13869SOL    HW253332   6.239   4.345   5.492  1.8706  1.6385 -0.8871
13870SOL     OW53333   0.551   7.179  10.929  0.5965 -0.0988  0.1068
13870SOL    HW153334   0.511   7.189  11.016  0.6710 -0.1249  0.1443
13870SOL    HW253335   0.626   7.238  10.931  0.0701  0.5993 -0.2603
13871SOL     OW53336   8.384   5.737   4.604 -0.1523  0.0931 -0.2558
13871SOL    HW153337   8.338   5.665   4.646 -1.3891  1.1448  0.2495
13871SOL    HW253338   8.323   5.770   4.537  0.8848 -0.1057 -1.3351
13872SOL     OW53339   6.387   8.309  11.604  0.0871  0.0412 -0.7347
13872SOL    HW153340   6.420   8.228  11.564  1.2713  0.3356 -0.4084
13872SOL    HW253341   6.378   8.370  11.531 -0.1452 -0.1811 -0.8910
13873SOL     OW53342   7.249   0.700   7.521 -0.8919 -0.0412 -0.0764
13873SOL    HW153343   7.156   0.722   7.524 -0.5170  1.4887  1.8629
13873SOL    HW253344   7.285   0.756   7.452 -1.0687  0.9018  0.5766
13874SOL     OW53345   6.435   9.270   1.765 -0.1220 -0.4560 -0.0685
13874SOL    HW153346   6.501   9.207   1.737 -0.9841 -1.8398  0.8380
13874SOL    HW253347   6.449   9.347   1.710  1.7273 -0.9933 -0.4119
13875SOL     OW53348   5.435   5.936   3.873  0.4237 -0.4738 -0.0065
13875SOL    HW153349   5.439   6.028   3.846  2.0208  0.2579  2.3930
13875SOL    HW253350   5.498   5.892   3.816 -0.3080 -0.0984 -1.1344
13876SOL     OW53351   2.581  10.125   1.408 -0.6865 -0.6006 -0.1651
13876SOL    HW153352   2.505  10.093   1.457 -0.5936 -0.6054 -0.0223
13876SOL    HW253353   2.655  10.109   1.467 -0.9314  2.5420  1.1870
13877SOL     OW53354   0.870   0.544   6.739  0.3406 -0.7547 -0.0773
13877SOL    HW153355   0.808   0.518   6.670 -0.0282 -1.2490  0.4280
13877SOL    HW253356   0.867   0.472   6.801 -1.2901  0.7940  1.7670
13878SOL     OW53357   4.090   3.454   4.498  0.4460 -0.0367  0.4236
13878SOL    HW153358   4.150   3.499   4.556  0.0449 -0.0672  0.8662
13878SOL    HW253359   4.143   3.385   4.457  1.4253  1.6260 -1.2792
13879SOL     OW53360   4.911   0.546   9.896  0.5279 -0.1553 -0.8386
13879SOL    HW153361   4.899   0.524   9.988  1.0453  1.5392 -0.3230
13879SOL    HW253362   4.986   0.494   9.868 -0.8058 -2.1627 -0.8928
13880SOL     OW53363   9.686   2.903   2.505  0.0143  0.3026 -0.1401
13880SOL    HW153364   9.688   2.902   2.409  0.4399 -1.5832 -0.1583
13880SOL    HW253365   9.665   2.813   2.529  0.0890  0.7070  1.5507
13881SOL     OW53366   3.226   1.370   4.798 -0.2368  0.2212  0.3418
13881SOL    HW153367   3.226   1.305   4.728  0.4335  0.5749  0.0077
13881SOL    HW253368   3.219   1.318   4.878 -0.7299 -0.2009  0.0258
13882SOL     OW53369   8.503   5.213  11.748  0.7756 -0.4687  0.4893
13882SOL    HW153370   8.410   5.226  11.767  1.0268  1.7139  0.5563
13882SOL    HW253371   8.545   5.290  11.787  2.1980  0.3351 -2.3740
13883SOL     OW53372   7.623   4.301  11.275 -0.2446  0.2047  0.2144
13883SOL    HW153373   7.566   4.240  11.322  0.0458  1.2829  2.0693
13883SOL    HW253374   7.712   4.275  11.300 -0.1154  1.2840  0.9025
13884SOL     OW53375  10.650   1.973   2.352  0.0858 -0.4813  0.7231
13884SOL    HW153376  10.669   1.908   2.419 -0.6011 -0.1018  1.2889
13884SOL    HW253377  10.597   1.926   2.287  1.3721 -1.0489  0.0527
13885SOL     OW53378   2.120   2.685   4.655 -0.2258 -0.4979 -0.9244
13885SOL    HW153379   2.086   2.645   4.575 -0.2962 -1.5817 -0.3679
13885SOL    HW253380   2.042   2.704   4.707 -0.1002 -1.2428 -0.4536
13886SOL     OW53381  10.033   8.780   8.341 -0.1847 -0.0511  0.8536
13886SOL    HW153382   9.950   8.825   8.357 -2.0700 -2.5218 -0.9791
13886SOL    HW253383  10.018   8.733   8.259  1.9780 -2.8872  1.9356
13887SOL     OW53384   2.119   1.801  10.753 -0.1731  0.5084 -0.3129
13887SOL    HW153385   2.108   1.837  10.665  1.2948  0.1886 -0.6573
13887SOL    HW253386   2.195   1.846  10.789  1.1461 -1.4898 -0.4059
13888SOL     OW53387   3.822   3.355   3.950 -0.4811  0.4888 -0.3384
13888SOL    HW153388   3.911   3.378   3.921 -0.7061 -1.3413 -2.8008
13888SOL    HW253389   3.832   3.331   4.042  1.1996  2.0697 -0.0458
13889SOL     OW53390   1.419   0.961  11.276 -0.2164 -1.0280 -0.2009
13889SOL    HW153391   1.477   1.013  11.221  0.1035  1.0322  1.9055
13889SOL    HW253392   1.469   0.881  11.294  2.0026  0.5647  1.3281
13890SOL     OW53393   3.371  11.957   4.733 -0.1896 -0.3996  0.1453
13890SOL    HW153394   3.384  12.018   4.661  0.5067  0.4084  0.9252
13890SOL    HW253395   3.298  11.993   4.782 -0.1489 -0.5059  0.2856
13891SOL     OW53396   9.669   4.510   3.046  0.2237 -0.3658 -0.3420
13891SOL    HW153397   9.762   4.527   3.032  0.6450 -2.1160  0.0195
13891SOL    HW253398   9.631   4.596   3.063  1.5346  0.5515 -1.7370
13892SOL     OW53399   7.114  10.408   4.974 -0.1652  0.0279  0.7296
13892SOL    HW153400   7.124  10.317   5.001 -0.1169 -0.0374  0.4852
13892SOL    HW253401   7.201  10.435   4.946 -0.2790  0.0132  0.3645
13893SOL     OW53402   1.337   3.691   6.656  0.3234  0.8899 -0.6722
13893SOL    HW153403   1.303   3.712   6.743  0.7675  0.0620 -0.2931
13893SOL    HW253404   1.402   3.760   6.638  1.3242  0.2234  0.2962
13894SOL     OW53405   1.142   9.209   7.699 -0.1649 -0.2223 -0.1956
13894SOL    HW153406   1.100   9.268   7.761 -2.1877 -2.9506  1.2329
13894SOL    HW253407   1.169   9.266   7.626 -1.1798  2.5195  1.4190
13895SOL     OW53408  11.856   9.450   6.559 -0.6603  0.1021 -0.0984
13895SOL    HW153409  11.914   9.513   6.517 -1.1249  1.8259  1.6828
13895SOL    HW253410  11.880   9.454   6.652 -1.5054 -1.5039  0.2175
13896SOL     OW53411   3.974   4.865   7.350 -0.2997 -0.1076 -0.2243
13896SOL    HW153412   4.042   4.803   7.325 -0.1673 -0.0119 -0.1017
13896SOL    HW253413   3.960   4.850   7.443 -1.0799 -0.7425 -0.4383
13897SOL     OW53414  11.521   4.652   8.160  0.4607  0.0018  0.3172
13897SOL    HW153415  11.556   4.682   8.076 -0.8668  1.2061  0.1503
13897SOL    HW253416  11.497   4.561   8.146  1.6546 -0.2565 -0.1395
13898SOL     OW53417   0.206   2.216   3.267 -0.1675  0.0097 -0.2883
13898SOL    HW153418   0.207   2.144   3.331 -2.0572 -0.2536 -0.4964
13898SOL    HW253419   0.237   2.175   3.186  1.3696  0.1235  0.2159
13899SOL     OW53420   1.456  11.106  10.002  0.3730  0.4330  0.0430
13899SOL    HW153421   1.386  11.091   9.939  0.0729 -0.4281  0.5656
13899SOL    HW253422   1.434  11.050  10.076  1.2554  0.6747  0.5012
13900SOL     OW53423   1.078   3.138   2.932  0.5363 -0.2871  0.1308
13900SOL    HW153424   1.164   3.137   2.974  0.5033  3.4311  0.6067
13900SOL    HW253425   1.085   3.204   2.863 -1.0629 -2.2464 -2.0780
13901SOL     OW53426   3.948  11.787   6.962  0.4345 -0.1699 -0.3087
13901SOL    HW153427   3.856  11.815   6.957  0.4587 -0.2496 -1.2743
13901SOL    HW253428   3.944  11.691   6.954  0.5190 -0.2822  0.8435
13902SOL     OW53429   9.976   2.222   6.041  0.4203  1.4285  0.1254
13902SOL    HW153430   9.933   2.224   5.955  1.7237  1.9709 -0.5409
13902SOL    HW253431   9.928   2.288   6.092 -1.2143  0.1893  0.2783
13903SOL     OW53432   7.790   2.021   7.513 -0.0506  0.5547 -0.1078
13903SOL    HW153433   7.776   1.938   7.467 -1.8683  0.5963  0.3179
13903SOL    HW253434   7.746   2.086   7.459 -0.6449  0.8785  0.7525
13904SOL     OW53435   4.464   5.286   8.921  0.9897  0.1350 -0.1165
13904SOL    HW153436   4.454   5.278   8.826  0.2643  0.7053 -0.0947
13904SOL    HW253437   4.547   5.241   8.940  1.1140 -0.0349 -1.0062
13905SOL     OW53438   9.897  10.531   7.176 -0.2570 -0.0325  0.5700
13905SOL    HW153439   9.965  10.464   7.190  1.2777  1.7317  2.0433
13905SOL    HW253440   9.880  10.528   7.082  1.2830 -1.0876  0.2868
13906SOL     OW53441   9.656   8.232   7.846 -0.0501  0.1357  0.8875
13906SOL    HW153442   9.563   8.218   7.864  0.3864 -2.5623  1.4992
13906SOL    HW253443   9.698   8.222   7.932  1.0049 -1.2371  0.2406
13907SOL     OW53444   6.567   8.230   4.823 -0.3688 -0.2032 -0.1461
13907SOL    HW153445   6.573   8.253   4.731 -0.7208  1.2648  0.1713
13907SOL    HW253446   6.510   8.297   4.861 -0.4606 -0.9442  1.0829
13908SOL     OW53447   5.716   3.646   0.749  0.2569  0.0420 -0.3345
13908SOL    HW153448   5.704   3.740   0.734 -0.6118  0.2405  1.3324
13908SOL    HW253449   5.631   3.608   0.724 -0.0988 -0.0173  0.9217
13909SOL     OW53450  11.595   0.024   8.271 -0.8775  0.0044 -0.2250
13909SOL    HW153451  11.687   0.050   8.263 -0.6543  0.0094  1.7861
13909SOL    HW253452  11.594  -0.067   8.244 -0.2528 -0.0260 -0.1715
13910SOL     OW53453   8.856   2.170   4.908  0.2051 -0.3180  0.4294
13910SOL    HW153454   8.763   2.157   4.890 -0.2655  0.0141  2.3944
13910SOL    HW253455   8.861   2.258   4.946  1.5100  0.1279 -0.6665
13911SOL     OW53456  11.696   4.064   5.575  0.1354 -0.1571  0.4741
13911SOL    HW153457  11.779   4.110   5.562 -1.0205  1.8460 -0.2051
13911SOL    HW253458  11.645   4.082   5.496 -1.3376 -0.5004  1.3033
13912SOL     OW53459   6.044   3.286   4.590 -0.4450 -0.3072  0.0856
13912SOL    HW153460   5.958   3.295   4.631  0.2845 -0.9267  1.8429
13912SOL    HW253461   6.032   3.320   4.502 -2.5122 -0.4635  0.2593
13913SOL     OW53462   0.545   5.875  10.315 -0.0087  0.0739 -0.2703
13913SOL    HW153463   0.589   5.911  10.393  0.1529 -1.4630  0.3879
13913SOL    HW253464   0.453   5.896  10.328  0.2593  1.7620 -0.7852
13914SOL     OW53465   2.611  10.376   2.559 -0.6997 -0.2586 -0.1155
13914SOL    HW153466   2.652  10.333   2.634  2.0504 -1.4185 -2.1376
13914SOL    HW253467   2.550  10.310   2.525 -0.9657 -0.2280  0.2924
13915SOL     OW53468   3.296   4.745   8.918 -0.2878 -0.4533  0.1771
13915SOL    HW153469   3.335   4.705   8.840  0.7223 -1.3224  1.1064
13915SOL    HW253470   3.351   4.821   8.936 -1.2632  0.4916 -0.6498
13916SOL     OW53471   0.312   3.120   3.532 -0.0368  0.1992 -0.7776
13916SOL    HW153472   0.363   3.167   3.598 -2.0583  1.2576  0.1252
13916SOL    HW253473   0.304   3.182   3.459 -0.0719  0.0583 -0.8940
13917SOL     OW53474   3.752   3.188   3.462  0.1106 -0.2335 -0.4553
13917SOL    HW153475   3.832   3.237   3.482 -0.3631  0.5918 -0.5028
13917SOL    HW253476   3.688   3.222   3.525 -0.7445  0.6109 -1.7323
13918SOL     OW53477   1.393   0.712   9.397  0.3175  0.7099  0.1847
13918SOL    HW153478   1.474   0.746   9.358  0.4162  0.1460 -0.1059
13918SOL    HW253479   1.409   0.618   9.406 -0.6962  0.4266 -0.8184
13919SOL     OW53480   8.103   1.509   9.166  0.4217  0.0984  0.2518
13919SOL    HW153481   8.028   1.529   9.110 -0.9299 -1.7625  1.2914
13919SOL    HW253482   8.117   1.589   9.217  0.1527  0.9941 -1.0227
13920SOL     OW53483   0.427   2.729   7.373 -0.5705 -0.4143 -0.0659
13920SOL    HW153484   0.464   2.642   7.388 -0.7667 -0.1863  2.0168
13920SOL    HW253485   0.333   2.718   7.391 -0.9110 -0.1164 -1.4848
13921SOL     OW53486   2.225   3.658   1.949  0.4956  0.4466  0.1870
13921SOL    HW153487   2.241   3.593   1.880 -0.2726 -1.1494  1.4600
13921SOL    HW253488   2.290   3.639   2.016 -0.4994  0.1732  1.1108
13922SOL     OW53489   2.464   4.118   9.313  0.1626 -0.3531  0.2338
13922SOL    HW153490   2.547   4.156   9.282 -0.6239  2.5186  1.3519
13922SOL    HW253491   2.491   4.041   9.364  2.0141 -0.3678 -0.6601
13923SOL     OW53492   8.527   7.392  11.855  0.0449 -0.0171 -0.2124
13923SOL    HW153493   8.526   7.473  11.804 -0.1217  0.8014  1.0514
13923SOL    HW253494   8.524   7.323  11.789 -2.1826  1.0001 -1.2849
13924SOL     OW53495   1.612   7.099   4.478 -0.1357  0.5428 -0.0065
13924SOL    HW153496   1.680   7.046   4.520 -0.2748  0.8498  0.6270
13924SOL    HW253497   1.591   7.166   4.543 -1.4529  0.1208  0.0428
13925SOL     OW53498   9.393  10.034   9.215  0.4635  0.2356  0.2073
13925SOL    HW153499   9.432   9.968   9.271 -0.6208  0.4675  1.2669
13925SOL    HW253500   9.379  10.110   9.272  2.0428  1.5661 -1.0545
13926SOL     OW53501   0.716   4.653   8.494 -0.5098  0.1408 -0.0490
13926SOL    HW153502   0.722   4.575   8.438  4.2596  0.2288 -0.1178
13926SOL    HW253503   0.668   4.717   8.442 -0.6237 -1.3534 -1.8839
13927SOL     OW53504   1.987   8.226   5.893 -0.1441 -0.1683  0.3678
13927SOL    HW153505   1.973   8.148   5.947 -0.5908 -0.6035 -0.3568
13927SOL    HW253506   1.952   8.298   5.946 -3.3809 -0.9509 -0.4933
13928SOL     OW53507   4.821   1.774   9.975  0.2767 -0.2075 -0.2449
13928SOL    HW153508   4.843   1.685  10.002 -0.0690 -0.7510 -1.6708
13928SOL    HW253509   4.748   1.764   9.913  0.5506  1.0135 -0.8059
13929SOL     OW53510   4.946  11.700   1.447  0.6006  0.2342  0.6280
13929SOL    HW153511   4.884  11.631   1.471  1.2938 -1.2121 -1.4274
13929SOL    HW253512   5.008  11.657   1.388  1.9910  2.2743  0.4856
13930SOL     OW53513   5.368   7.456   4.101  0.1741 -0.3367 -0.3964
13930SOL    HW153514   5.370   7.552   4.100 -0.9498 -0.2623 -2.6154
13930SOL    HW253515   5.276   7.434   4.108  0.2225 -1.1807 -1.9084
13931SOL     OW53516   7.150   9.086   5.676 -0.0192  0.1648 -0.7152
13931SOL    HW153517   7.221   9.026   5.700 -0.9761 -1.1791 -1.0944
13931SOL    HW253518   7.194   9.160   5.636  1.3974  0.8756  1.8854
13932SOL     OW53519  10.509   2.205   2.476 -0.1130 -0.4147 -0.0479
13932SOL    HW153520  10.595   2.174   2.447 -0.4241 -2.2646  0.8715
13932SOL    HW253521  10.446   2.152   2.427 -0.7263  0.0635  0.2053
13933SOL     OW53522  11.191  11.259   5.601 -0.2989 -0.2194  0.4883
13933SOL    HW153523  11.124  11.327   5.594  1.3081  1.3116 -1.0796
13933SOL    HW253524  11.195  11.238   5.695 -1.8036  0.8358  0.8093
13934SOL     OW53525  11.200   2.579   5.264  0.2689 -0.2086  0.9023
13934SOL    HW153526  11.109   2.568   5.292  0.3303  0.0849  1.2205
13934SOL    HW253527  11.220   2.670   5.285  0.0863  0.2449 -0.7433
13935SOL     OW53528   5.733   2.907   8.275 -0.0247 -0.0297  0.1066
13935SOL    HW153529   5.724   2.999   8.253  0.0705 -0.1253 -0.3276
13935SOL    HW253530   5.772   2.867   8.198  0.3338 -0.3577  0.4536
13936SOL     OW53531   5.995   9.566   1.528  0.1047  0.0972  0.3095
13936SOL    HW153532   5.907   9.602   1.535 -0.1241 -0.2770 -0.4761
13936SOL    HW253533   5.994   9.515   1.447  1.2742  0.7377 -0.1373
13937SOL     OW53534   1.470   8.723   8.200  0.2132  0.1198  0.2435
13937SOL    HW153535   1.479   8.808   8.158 -0.3842  0.1742  0.2129
13937SOL    HW253536   1.560   8.692   8.213  0.4182 -0.1507 -1.5754
13938SOL     OW53537   4.476   9.167   3.218  0.0088  0.9594  0.2030
13938SOL    HW153538   4.495   9.113   3.294  3.4444  1.6712  0.0006
13938SOL    HW253539   4.382   9.183   3.222 -0.0575  0.3088  3.8089
13939SOL     OW53540   2.666   5.753   5.527 -0.4444 -0.3750  0.8751
13939SOL    HW153541   2.646   5.815   5.596  2.4664  1.1766  0.4993
13939SOL    HW253542   2.588   5.753   5.471 -0.7425  2.6294  1.1480
13940SOL     OW53543   1.797   5.969   8.446  0.0004  0.4095  0.3476
13940SOL    HW153544   1.848   6.046   8.419  2.5211 -0.0951  3.2395
13940SOL    HW253545   1.740   6.002   8.515  0.1087 -0.0512  0.6551
13941SOL     OW53546   3.000   8.375   2.210 -0.0824  1.1469 -0.2892
13941SOL    HW153547   3.038   8.390   2.123  0.2497  1.3844 -0.1029
13941SOL    HW253548   2.926   8.435   2.214 -1.7106 -0.6677 -1.4136
13942SOL     OW53549   5.873   9.723   6.221  0.3145  0.1246  0.2517
13942SOL    HW153550   5.942   9.762   6.275 -0.3592  0.5284  0.8480
13942SOL    HW253551   5.904   9.734   6.131  1.1321  0.0856  0.5224
13943SOL     OW53552   9.146  10.349   8.266  0.0269  0.1119 -0.0518
13943SOL    HW153553   9.217  10.335   8.203 -0.2355 -1.2148 -0.0876
13943SOL    HW253554   9.068  10.362   8.212 -0.1915 -0.9916 -0.0342
13944SOL     OW53555   0.196   2.641   7.138  0.0510 -0.6558  0.0848
13944SOL    HW153556   0.286   2.670   7.121  0.9873 -3.2977 -0.0176
13944SOL    HW253557   0.190   2.557   7.093 -2.8830 -0.0505 -0.8250
13945SOL     OW53558   6.495   0.982  10.382  0.3239 -0.0353 -0.1887
13945SOL    HW153559   6.553   0.929  10.327  2.8710  1.1087  1.1895
13945SOL    HW253560   6.528   0.970  10.471 -0.9720  1.4275  0.5446
13946SOL     OW53561   3.481   9.881   8.763  0.4441  0.1184 -0.2343
13946SOL    HW153562   3.408   9.824   8.737 -1.2187  0.3895  3.2673
13946SOL    HW253563   3.439   9.958   8.801  2.4219 -0.1091  2.7823
13947SOL     OW53564   3.408   7.166   2.117 -0.2220 -0.0482 -0.4325
13947SOL    HW153565   3.431   7.221   2.192 -0.1867 -1.3564  0.5761
13947SOL    HW253566   3.327   7.123   2.144  0.4028 -1.4175 -0.6319
13948SOL     OW53567  11.563   5.740   9.092  0.3529 -0.3313  0.3545
13948SOL    HW153568  11.497   5.749   9.024  1.3328  1.5218 -0.4400
13948SOL    HW253569  11.515   5.751   9.174 -0.3193  1.3361 -0.2147
13949SOL     OW53570   4.052  11.471   6.322  0.3058  0.0381  0.0545
13949SOL    HW153571   4.132  11.487   6.272  1.2289 -0.5383  1.3122
13949SOL    HW253572   4.022  11.558   6.348  1.5586  0.1694  1.1389
13950SOL     OW53573   5.474   6.981   3.301  0.5534  0.0779  0.1052
13950SOL    HW153574   5.547   6.957   3.358 -0.4910 -0.3434  1.3125
13950SOL    HW253575   5.407   6.915   3.319 -0.5645  1.1221 -0.1071
13951SOL     OW53576   8.100  11.017   1.177 -0.7654  0.8400  0.3628
13951SOL    HW153577   8.194  11.009   1.189 -0.5458 -0.2868 -1.7426
13951SOL    HW253578   8.068  10.927   1.178 -1.9289  1.2275  1.5320
13952SOL     OW53579   8.180  10.189   9.806 -0.1089  0.1659 -0.4797
13952SOL    HW153580   8.129  10.135   9.866  1.4090 -1.6087 -0.6945
13952SOL    HW253581   8.211  10.128   9.739  1.9493  1.2175 -0.5657
13953SOL     OW53582   6.998   4.427   0.968  0.6794 -0.0311 -0.6858
13953SOL    HW153583   7.027   4.377   1.044  0.2631  1.5351  0.5413
13953SOL    HW253584   6.946   4.499   1.004  2.6854  2.3432 -2.2027
13954SOL     OW53585   8.319   6.415  10.012 -0.1085 -0.3324 -0.0930
13954SOL    HW153586   8.226   6.402   9.992 -0.1480 -1.2463  0.6373
13954SOL    HW253587   8.359   6.330   9.998  0.5110 -0.0907  0.1727
13955SOL     OW53588   7.436   6.712   6.103 -0.2679  0.0671 -0.2424
13955SOL    HW153589   7.425   6.742   6.013 -0.8176  1.2149  0.1923
13955SOL    HW253590   7.488   6.781   6.145 -0.5474 -0.1576  0.4786
13956SOL     OW53591   3.230   1.887   7.414  0.2390  0.0842  0.2321
13956SOL    HW153592   3.262   1.956   7.355  0.2159  0.2828  0.4499
13956SOL    HW253593   3.215   1.932   7.497  1.5090 -0.4362  0.7667
13957SOL     OW53594  10.806   9.022   5.783  0.0520 -0.6405  0.5133
13957SOL    HW153595  10.834   9.075   5.709 -2.5922 -1.0633 -0.9099
13957SOL    HW253596  10.883   8.971   5.808  0.7314 -1.3478 -2.6937
13958SOL     OW53597   6.905   1.178   1.483  0.2077  0.2450  0.9630
13958SOL    HW153598   6.937   1.088   1.492  1.0812  0.5925  1.4321
13958SOL    HW253599   6.984   1.230   1.467 -0.2875  0.9347  0.7233
13959SOL     OW53600   7.552   6.890   3.550 -0.0936 -0.1881 -0.2508
13959SOL    HW153601   7.461   6.867   3.566 -0.3718 -0.3261 -1.8476
13959SOL    HW253602   7.569   6.963   3.610 -1.8341  1.0898 -1.2051
13960SOL     OW53603   4.522   4.332   8.681  0.2523 -0.4454 -0.5378
13960SOL    HW153604   4.462   4.373   8.619  0.1669 -0.3337 -0.3844
13960SOL    HW253605   4.588   4.288   8.627  1.7266  1.8696 -0.7575
13961SOL     OW53606   6.355   7.465   0.511 -0.2678 -0.3449 -0.2308
13961SOL    HW153607   6.377   7.528   0.580 -3.0038  1.0304 -0.4788
13961SOL    HW253608   6.323   7.388   0.558  0.7122 -0.6114  0.0299
13962SOL     OW53609   4.158   6.306  10.324  0.0327  0.1321  0.1102
13962SOL    HW153610   4.201   6.295  10.409  0.2611 -1.9702 -0.2361
13962SOL    HW253611   4.067   6.328  10.346  0.0202 -0.6920  0.9113
13963SOL     OW53612   0.978   4.952   1.801  0.5896  0.5671 -0.7015
13963SOL    HW153613   1.036   4.952   1.877  0.0870 -2.0113 -0.2435
13963SOL    HW253614   1.037   4.950   1.726  1.0843 -0.0092 -0.3023
13964SOL     OW53615   8.737   3.239   2.695 -0.0389  0.3815  0.1373
13964SOL    HW153616   8.715   3.247   2.788 -0.0725 -0.8065  0.2402
13964SOL    HW253617   8.786   3.319   2.676  0.4835  0.3702  1.3337
13965SOL     OW53618   4.971   9.672   5.759  0.2586  0.2794 -0.2007
13965SOL    HW153619   5.011   9.621   5.829  0.7600  0.2781 -0.4845
13965SOL    HW253620   4.973   9.614   5.683  3.4788  1.6474 -1.3240
13966SOL     OW53621  10.944   7.205   2.626  0.0419 -0.1193 -0.3558
13966SOL    HW153622  10.870   7.200   2.564  0.6468  0.4620 -1.1420
13966SOL    HW253623  10.953   7.298   2.644  0.0764 -0.2629  0.3764
13967SOL     OW53624   1.240   6.873   7.622 -0.1516 -0.0300  0.2268
13967SOL    HW153625   1.203   6.961   7.619 -0.9072 -0.3459 -2.0977
13967SOL    HW253626   1.335   6.886   7.626 -0.3076  0.8150  2.2266
13968SOL     OW53627   5.896   7.356   6.387 -0.3165 -0.5714  0.9560
13968SOL    HW153628   5.840   7.425   6.421  0.8411  0.9164 -0.0299
13968SOL    HW253629   5.968   7.350   6.450  0.6336  0.5809  0.0243
13969SOL     OW53630   0.673   9.626   8.235  0.0419 -0.1998 -0.5037
13969SOL    HW153631   0.628   9.551   8.274 -0.5028 -1.2429 -2.9610
13969SOL    HW253632   0.740   9.650   8.300 -0.8241 -1.7492  1.0596
13970SOL     OW53633  11.723   2.190   9.880  0.1363 -0.8708 -0.0490
13970SOL    HW153634  11.726   2.219   9.789  1.1309  0.1307  0.2888
13970SOL    HW253635  11.652   2.240   9.919  0.5288 -0.3752  0.0319
13971SOL     OW53636   2.291   2.665   6.197  0.4445 -0.2356 -0.5520
13971SOL    HW153637   2.293   2.760   6.199 -1.8721 -0.1072 -1.7574
13971SOL    HW253638   2.312   2.642   6.106  1.3917 -0.9096 -0.1761
13972SOL     OW53639  11.836   8.762   6.136 -0.4460  0.3769 -0.1594
13972SOL    HW153640  11.802   8.805   6.215  1.6783  1.7690  0.0806
13972SOL    HW253641  11.879   8.833   6.088  0.3185 -0.8983 -1.4064
13973SOL     OW53642  10.727   1.275  10.452  0.5929  0.3927 -0.0952
13973SOL    HW153643  10.802   1.262  10.511  0.5792 -1.0183 -0.3756
13973SOL    HW253644  10.726   1.370  10.438  1.2230  0.6567  1.3472
13974SOL     OW53645   8.143   6.745  11.103 -0.1326  0.3690 -0.2997
13974SOL    HW153646   8.048   6.759  11.102 -0.1486  0.2526 -1.1379
13974SOL    HW253647   8.179   6.827  11.137 -0.5660  0.1507  0.7227
13975SOL     OW53648   8.889   0.303   6.646  0.2809 -0.5038  0.0561
13975SOL    HW153649   8.893   0.359   6.724  0.8366 -0.3871 -0.0552
13975SOL    HW253650   8.827   0.235   6.670 -0.6506  0.3271  0.0820
13976SOL     OW53651   9.432   1.525   3.764  0.1135 -0.3243 -0.0148
13976SOL    HW153652   9.428   1.564   3.852 -2.5648  1.4519 -0.7914
13976SOL    HW253653   9.491   1.583   3.715  0.5710 -0.5488  0.2655
13977SOL     OW53654   7.970   9.692   6.615  0.6623 -0.2792 -0.3898
13977SOL    HW153655   7.892   9.647   6.647  1.1884 -0.6979  0.3194
13977SOL    HW253656   7.945   9.785   6.616  0.8737 -0.1932  1.9188
13978SOL     OW53657   8.965   3.421   8.105  0.2429 -0.1001 -0.2886
13978SOL    HW153658   8.981   3.508   8.067  0.9011  0.5819  1.4487
13978SOL    HW253659   8.875   3.400   8.078  0.3740  0.7181 -1.4581
13979SOL     OW53660   1.409   2.253   4.577  0.3696 -0.2809 -0.1551
13979SOL    HW153661   1.456   2.336   4.584 -0.9697  0.6938 -2.0593
13979SOL    HW253662   1.412   2.217   4.666  3.0512  0.6112  0.1981
13980SOL     OW53663   6.544   2.225   9.985 -0.4224  0.1671 -0.1359
13980SOL    HW153664   6.486   2.282  10.035  0.0463  0.0422  0.5692
13980SOL    HW253665   6.490   2.150   9.961 -0.7613  0.4197 -0.1637
13981SOL     OW53666   0.799   3.715   7.417  0.1239 -0.2816 -0.0789
13981SOL    HW153667   0.824   3.682   7.504 -0.1496  1.2904  0.6307
13981SOL    HW253668   0.865   3.781   7.397  0.3944 -0.8769 -1.2641
13982SOL     OW53669   4.997   9.505   2.271  0.3924  0.2909  0.7249
13982SOL    HW153670   5.061   9.576   2.263 -0.1443  0.6554 -0.5967
13982SOL    HW253671   4.916   9.541   2.235  0.3333 -1.2568 -0.8306
13983SOL     OW53672   2.606  11.795  10.839 -0.5943 -0.1143 -0.3379
13983SOL    HW153673   2.651  11.819  10.758 -0.1065  0.4457  0.0904
13983SOL    HW253674   2.612  11.700  10.844  1.3717  0.0033  0.1771
13984SOL     OW53675   4.812   5.997   7.064 -0.0430 -0.6257  0.1214
13984SOL    HW153676   4.788   6.063   7.129 -2.1585 -1.3099  0.1053
13984SOL    HW253677   4.759   6.017   6.987  1.1581 -0.8582 -0.7939
13985SOL     OW53678   8.667   0.619   4.532  0.3405  0.0320  0.1096
13985SOL    HW153679   8.719   0.567   4.594 -2.3247 -2.1707  0.6865
13985SOL    HW253680   8.716   0.614   4.450  1.2968 -1.5749  0.7152
13986SOL     OW53681   4.226  10.482   7.719  0.6641  0.2274  0.1751
13986SOL    HW153682   4.212  10.435   7.637  1.2907  0.6151 -0.1645
13986SOL    HW253683   4.214  10.416   7.788  0.0828 -0.0873 -0.2262
13987SOL     OW53684  10.537  11.703   1.571  0.0622  0.2533  0.1702
13987SOL    HW153685  10.562  11.764   1.640  1.6118 -0.2879  0.1180
13987SOL    HW253686  10.620  11.671   1.535 -0.6654  1.4669 -2.8510
13988SOL     OW53687   0.205  10.626   4.787  0.4485  0.5033 -0.0777
13988SOL    HW153688   0.124  10.625   4.837  1.0130  0.9246  0.8903
13988SOL    HW253689   0.178  10.615   4.696 -0.6606  0.3460  0.2573
13989SOL     OW53690   4.273   9.347  11.168  0.2059 -0.0324  0.0161
13989SOL    HW153691   4.276   9.254  11.146  0.9672  0.2428 -1.1179
13989SOL    HW253692   4.341   9.357  11.235 -1.5720 -0.7151  2.0654
13990SOL     OW53693   6.209   0.950   2.236 -0.3497  0.2097 -0.2074
13990SOL    HW153694   6.172   0.963   2.149  1.6579  0.3842 -1.0958
13990SOL    HW253695   6.212   0.855   2.248 -0.2242  0.1741 -0.5253
13991SOL     OW53696   0.047   5.757   0.773  0.5158 -0.1558 -0.1016
13991SOL    HW153697   0.020   5.817   0.842  0.5406 -1.2024  0.8620
13991SOL    HW253698   0.140   5.775   0.760  1.0128 -1.2371  1.5633
13992SOL     OW53699   3.576  11.288   1.817 -0.1955 -0.3937  0.0210
13992SOL    HW153700   3.654  11.334   1.787 -2.0427  3.3509  0.3378
13992SOL    HW253701   3.513  11.299   1.746 -1.3634 -0.6076  0.9922
13993SOL     OW53702   9.886   6.793   9.448  0.3991 -0.0114  0.3013
13993SOL    HW153703   9.870   6.753   9.362  0.5996  1.2719 -0.3578
13993SOL    HW253704   9.979   6.778   9.464  0.5093  0.3074 -0.0163
13994SOL     OW53705   2.184   9.091   8.485 -0.8924 -0.1708  0.3762
13994SOL    HW153706   2.103   9.082   8.535 -1.0349 -0.2813  0.1267
13994SOL    HW253707   2.159   9.075   8.394 -0.2203 -2.2489  0.5060
13995SOL     OW53708   0.395   5.332   5.791 -0.3477  0.3742 -0.0354
13995SOL    HW153709   0.443   5.411   5.817 -2.0626  1.6864 -0.5908
13995SOL    HW253710   0.450   5.290   5.726  0.1116  1.7655 -0.5823
13996SOL     OW53711   6.330   1.065   4.860  1.1898 -0.0902  0.2914
13996SOL    HW153712   6.311   1.113   4.779 -0.6902 -2.1677 -0.6468
13996SOL    HW253713   6.275   1.106   4.926 -1.0216 -1.2740 -0.6821
13997SOL     OW53714   0.309   0.608   5.421  0.1907  0.1085  0.2603
13997SOL    HW153715   0.295   0.700   5.401  0.8853 -0.1281 -1.4991
13997SOL    HW253716   0.403   0.595   5.408  0.0908 -0.8576  0.4426
13998SOL     OW53717   7.079   6.218   6.030 -0.6677 -0.1753  0.7624
13998SOL    HW153718   7.057   6.145   6.088  0.1262  0.0769  1.3989
13998SOL    HW253719   7.005   6.278   6.037 -1.5449 -1.1165 -0.1276
13999SOL     OW53720   5.196   6.387   4.093  0.5844 -0.5918  0.3121
13999SOL    HW153721   5.181   6.295   4.071 -0.1602 -0.3131 -0.4306
13999SOL    HW253722   5.115   6.431   4.066  1.3900  0.4651 -0.4928
14000SOL     OW53723   5.705   2.445   8.219  0.3407 -0.5900  0.3027
14000SOL    HW153724   5.755   2.422   8.141  0.8356  1.7609 -0.1436
14000SOL    HW253725   5.619   2.473   8.186  0.1614 -0.6603  0.6985
14001SOL     OW53726   5.422   5.496  11.718 -0.0940 -0.2871 -0.5682
14001SOL    HW153727   5.443   5.589  11.708  0.2115 -0.3787 -0.8012
14001SOL    HW253728   5.327   5.492  11.707  0.0315 -0.1721 -1.9903
14002SOL     OW53729   6.415   6.292   5.887 -0.0200  0.0037 -0.0744
14002SOL    HW153730   6.433   6.286   5.793 -0.2247  0.3927 -0.1412
14002SOL    HW253731   6.342   6.354   5.893  1.0924  1.3024  0.4676
14003SOL     OW53732   3.288   4.635   3.341 -0.0207 -0.4243 -0.2717
14003SOL    HW153733   3.217   4.601   3.396  0.7976 -0.0494  1.0596
14003SOL    HW253734   3.323   4.558   3.295 -0.9171 -0.6893 -0.5289
14004SOL     OW53735   1.746   7.461   4.781  0.1585 -0.0619  0.2109
14004SOL    HW153736   1.799   7.426   4.710  2.2861 -1.7103  2.4583
14004SOL    HW253737   1.788   7.544   4.804  0.4501 -0.2914  0.5284
14005SOL     OW53738  10.872   6.911   8.725 -0.0450 -0.1327 -0.5505
14005SOL    HW153739  10.856   6.935   8.633 -2.9235  0.2807 -0.0445
14005SOL    HW253740  10.868   6.993   8.772  0.6862 -0.4283  0.0367
14006SOL     OW53741   8.596   1.767  11.388 -0.3922 -0.0012  0.5867
14006SOL    HW153742   8.665   1.701  11.401 -0.6544 -0.2951  0.4937
14006SOL    HW253743   8.524   1.718  11.348  0.0847  0.6970 -1.2599
14007SOL     OW53744   2.551   3.615   2.821 -0.0435  0.0480  0.4617
14007SOL    HW153745   2.558   3.639   2.913  0.7295  1.3359  0.0981
14007SOL    HW253746   2.538   3.698   2.776  1.5068 -0.3177 -0.7602
14008SOL     OW53747   0.613   1.331  11.275  0.0363 -0.9638  0.4083
14008SOL    HW153748   0.564   1.411  11.292 -1.7459 -1.9244  0.0129
14008SOL    HW253749   0.702   1.350  11.306 -0.0730  1.4839 -0.5720
14009SOL     OW53750   0.012   1.451   1.740  0.4380 -0.1343 -0.2589
14009SOL    HW153751  -0.065   1.468   1.794  1.2141 -0.0438  0.8409
14009SOL    HW253752   0.075   1.411   1.799  1.4550  0.3396 -0.9894
14010SOL     OW53753   0.869   9.436   5.198  0.5544  0.5436  0.2052
14010SOL    HW153754   0.884   9.524   5.163  0.6043  0.3805 -0.1988
14010SOL    HW253755   0.798   9.447   5.262  0.9776  0.9739  0.6055
14011SOL     OW53756   2.387   8.327   2.258 -0.0339 -0.1887  0.3455
14011SOL    HW153757   2.309   8.295   2.213  0.1396 -0.2260  0.0719
14011SOL    HW253758   2.388   8.279   2.341 -2.4706  2.5378  2.1877
14012SOL     OW53759  11.818   2.183   8.026 -0.0080 -0.6465 -0.1313
14012SOL    HW153760  11.731   2.144   8.035 -0.0834 -0.3653  0.3514
14012SOL    HW253761  11.870   2.115   7.982 -0.3297 -1.0151  0.0534
14013SOL     OW53762   7.640   3.878   6.161  0.4115  0.8455 -0.1702
14013SOL    HW153763   7.725   3.921   6.166  0.5873  0.4129  0.8464
14013SOL    HW253764   7.628   3.860   6.067  1.8495  0.1257 -0.2565
14014SOL     OW53765   4.238  11.185  10.974  0.7495  0.1327 -0.3389
14014SOL    HW153766   4.277  11.268  10.945  0.2686  0.9281  1.1634
14014SOL    HW253767   4.177  11.211  11.044  0.1102 -1.4340 -0.2813
14015SOL     OW53768   6.978   1.431   8.553 -0.3768 -0.2503 -0.1278
14015SOL    HW153769   7.009   1.453   8.642 -2.2650 -0.5703  0.6630
14015SOL    HW253770   6.940   1.344   8.562  1.0078 -1.0645 -1.7136
14016SOL     OW53771   5.584   5.501  10.777 -0.1463  0.0720  0.2583
14016SOL    HW153772   5.505   5.538  10.816 -1.1051 -2.3139  0.7381
14016SOL    HW253773   5.653   5.565  10.798 -1.4911  1.0698  1.9184
14017SOL     OW53774   7.846   1.943  10.582  0.1386  0.5424 -0.5681
14017SOL    HW153775   7.756   1.950  10.550  0.2962 -0.5253 -1.2973
14017SOL    HW253776   7.839   1.958  10.676 -0.9454 -0.4792 -0.4660
14018SOL     OW53777   4.661   1.419   4.620 -0.1317  0.5447 -0.3952
14018SOL    HW153778   4.711   1.464   4.553  0.4356  0.1478 -0.2405
14018SOL    HW253779   4.635   1.489   4.681 -0.6279  0.9021 -0.9930
14019SOL     OW53780   3.492   3.017   9.875 -0.0602 -0.2068 -0.7199
14019SOL    HW153781   3.430   3.066   9.929 -1.4193 -1.5127 -1.0499
14019SOL    HW253782   3.534   3.084   9.821  0.6115  1.0095  1.1740
14020SOL     OW53783   2.538   5.035   4.351 -0.1152 -0.4794 -0.2254
14020SOL    HW153784   2.555   5.127   4.368  0.7894 -0.6833  0.0029
14020SOL    HW253785   2.618   4.990   4.378 -0.7270 -1.3812  0.1292
14021SOL     OW53786   6.701   1.684   2.255 -0.0620  0.4535  0.1933
14021SOL    HW153787   6.673   1.710   2.343  0.5025  2.7597 -0.2418
14021SOL    HW253788   6.633   1.718   2.197 -0.7592 -1.6041 -0.2743
14022SOL     OW53789   6.448   9.611   6.451 -0.2013  0.2986 -0.3019
14022SOL    HW153790   6.396   9.560   6.514 -0.8668 -1.0771 -1.8886
14022SOL    HW253791   6.477   9.687   6.501  0.3463 -1.3230  2.0479
14023SOL     OW53792  11.143   9.068   6.061  0.0820  0.2163  0.2516
14023SOL    HW153793  11.225   9.106   6.029  1.0957  0.7640  3.1480
14023SOL    HW253794  11.077   9.134   6.041  0.6145  0.4581 -0.7685
14024SOL     OW53795   2.267   8.494   3.679  0.2577  0.7057 -0.1360
14024SOL    HW153796   2.282   8.402   3.655 -0.0133  0.8989 -1.1102
14024SOL    HW253797   2.194   8.521   3.623 -0.5513  1.1355  1.0925
14025SOL     OW53798   6.394   6.071  11.904 -0.6410 -0.3408  0.5571
14025SOL    HW153799   6.425   5.989  11.941 -0.8652 -1.0997 -0.8945
14025SOL    HW253800   6.305   6.053  11.875 -0.7478  0.4595  0.3430
14026SOL     OW53801   4.040   9.748   5.279 -0.4837  0.5739 -0.1433
14026SOL    HW153802   4.115   9.715   5.230 -1.2677 -0.2203 -0.8454
14026SOL    HW253803   4.026   9.837   5.246 -1.4227 -0.1763 -1.9169
14027SOL     OW53804   0.970   1.511   3.234  0.1389  0.0220  0.1969
14027SOL    HW153805   0.999   1.435   3.285 -1.7288 -1.3545 -0.6764
14027SOL    HW253806   0.900   1.550   3.287 -1.7578 -1.3657 -1.1681
14028SOL     OW53807   6.815   6.600   3.007 -0.1233  0.3256  0.6382
14028SOL    HW153808   6.789   6.509   3.023 -0.0866 -0.1672 -1.7019
14028SOL    HW253809   6.894   6.611   3.060 -0.6436 -0.6914  1.6843
14029SOL     OW53810  11.908   7.401   6.829  0.0109  0.2808 -0.3481
14029SOL    HW153811  11.829   7.454   6.846  1.5340  2.6921 -0.2592
14029SOL    HW253812  11.953   7.398   6.913  0.6981  0.1506 -0.7200
14030SOL     OW53813  10.468   3.451   6.579 -0.1846 -0.4641  0.1710
14030SOL    HW153814  10.502   3.435   6.491 -0.3723 -1.0564  0.2010
14030SOL    HW253815  10.422   3.535   6.573 -3.9102 -2.3897 -1.4321
14031SOL     OW53816   5.234   3.292  10.248 -0.1230  0.4765  0.7075
14031SOL    HW153817   5.148   3.251  10.248 -0.7703  1.7675  0.8778
14031SOL    HW253818   5.249   3.316  10.156  0.8089 -1.2003  0.3884
14032SOL     OW53819   4.284   9.459  11.678  0.4220  0.2286 -0.0803
14032SOL    HW153820   4.272   9.545  11.718  0.9193 -0.1158  0.8377
14032SOL    HW253821   4.202   9.413  11.695  1.0196 -0.3065  1.5868
14033SOL     OW53822   3.649   8.416   9.319  0.1605 -0.0897  0.8188
14033SOL    HW153823   3.715   8.476   9.286 -0.5704 -0.9479 -2.5356
14033SOL    HW253824   3.570   8.469   9.328  0.1551 -0.0220  0.3601
14034SOL     OW53825   3.837   5.554   1.719  0.3307 -0.2225 -0.5919
14034SOL    HW153826   3.862   5.466   1.690 -0.4407 -0.0064 -2.0152
14034SOL    HW253827   3.883   5.613   1.660 -0.2473  0.2880 -0.5367
14035SOL     OW53828   2.233   9.535   8.771 -0.1363  0.1567  0.6514
14035SOL    HW153829   2.157   9.574   8.814 -1.3137 -0.9270 -0.3572
14035SOL    HW253830   2.200   9.507   8.686  1.5911  0.3070 -0.1070
14036SOL     OW53831   4.335  11.620   1.780 -0.1875  0.0855 -0.4195
14036SOL    HW153832   4.430  11.618   1.786 -0.2337 -1.9542  0.6928
14036SOL    HW253833   4.308  11.682   1.848  0.3374  0.2333 -0.3411
14037SOL     OW53834   6.895   6.001   4.542 -0.1897  0.8457 -0.0395
14037SOL    HW153835   6.914   6.095   4.542 -0.6244  0.9643  1.3410
14037SOL    HW253836   6.847   5.986   4.461  2.1537  1.2840 -1.6003
14038SOL     OW53837  11.493   4.921   0.462  0.3563  0.1841  0.5262
14038SOL    HW153838  11.524   4.999   0.416 -0.4151 -0.1543 -0.6281
14038SOL    HW253839  11.559   4.905   0.530  0.1558  2.2487  1.2785
14039SOL     OW53840   4.482   0.666  10.504  0.5182 -0.1018  0.0474
14039SOL    HW153841   4.388   0.649  10.508  0.3292  0.7086 -0.7072
14039SOL    HW253842   4.513   0.644  10.592 -0.6579  1.1882  0.8508
14040SOL     OW53843   4.759   5.871   4.775 -0.4723  0.2198 -0.0723
14040SOL    HW153844   4.784   5.914   4.858 -0.5316 -1.5548  0.9092
14040SOL    HW253845   4.801   5.785   4.779 -1.2961 -0.2769 -1.4472
14041SOL     OW53846   2.929   4.384   3.131 -0.1124  0.0753 -0.1857
14041SOL    HW153847   2.897   4.403   3.043 -0.5068 -0.7707 -0.2387
14041SOL    HW253848   3.024   4.377   3.121  0.0642  1.9689 -0.1484
14042SOL     OW53849   2.628   8.869   9.108 -0.4786  0.2513 -0.2269
14042SOL    HW153850   2.609   8.958   9.138  1.3085  0.5979 -0.0146
14042SOL    HW253851   2.613   8.815   9.186  2.2503  0.9075  0.8605
14043SOL     OW53852  10.104   4.590   4.347 -0.0149 -0.0887 -0.1173
14043SOL    HW153853  10.055   4.672   4.349  0.3345  0.1083  0.4384
14043SOL    HW253854  10.163   4.599   4.272  0.1432  0.2325  0.0494
14044SOL     OW53855  10.989   5.925   6.269 -0.4632  0.1138  0.1235
14044SOL    HW153856  10.926   5.857   6.296 -0.4637  0.3542  0.7397
14044SOL    HW253857  11.049   5.879   6.211 -1.0924 -0.1678 -0.3239
14045SOL     OW53858   3.462   4.492   2.918  0.0624 -0.0162  0.0144
14045SOL    HW153859   3.517   4.437   2.972  1.4715  1.9469  0.7120
14045SOL    HW253860   3.394   4.434   2.883  1.6629 -2.1935  0.3956
14046SOL     OW53861   1.759   6.820   6.179  0.2114  0.7366  0.0367
14046SOL    HW153862   1.837   6.872   6.156  0.1404  1.1820  0.7512
14046SOL    HW253863   1.767   6.806   6.273 -0.7629  1.1169  0.1923
14047SOL     OW53864   9.251   4.088   4.545  0.2566 -0.1913 -0.3331
14047SOL    HW153865   9.280   4.076   4.636 -1.6679  1.1130  0.4999
14047SOL    HW253866   9.243   4.183   4.534  0.8502 -0.2952 -2.0318
14048SOL     OW53867   1.508   6.028   8.447  0.5888  0.1085 -0.1773
14048SOL    HW153868   1.433   5.983   8.485  0.3639 -0.6322 -1.4444
14048SOL    HW253869   1.554   6.065   8.522 -0.2645 -0.6219  0.7392
14049SOL     OW53870   4.212   2.645   6.228 -0.0142 -0.2179  0.1085
14049SOL    HW153871   4.243   2.666   6.140 -2.8526  0.4741 -0.8178
14049SOL    HW253872   4.146   2.577   6.214  0.5728 -1.2392  1.9125
14050SOL     OW53873   4.360   5.379   9.742  0.3948  0.5825  0.1451
14050SOL    HW153874   4.391   5.290   9.724  0.8598  0.4050  1.6613
14050SOL    HW253875   4.440   5.428   9.763  0.1109  1.2952 -0.3872
14051SOL     OW53876   1.768   6.589   2.735  0.1297 -0.0454  0.2636
14051SOL    HW153877   1.862   6.575   2.742  0.5130 -0.1844 -3.1994
14051SOL    HW253878   1.729   6.516   2.784  1.8282 -0.8786  0.4638
14052SOL     OW53879   2.839   3.034   4.858 -0.0981  0.3033  0.1162
14052SOL    HW153880   2.933   3.028   4.837  0.0749  1.8922  0.2983
14052SOL    HW253881   2.799   3.070   4.779 -0.2096  1.6055  0.7355
14053SOL     OW53882   4.959  11.377   8.537 -0.7417 -0.4960 -0.2236
14053SOL    HW153883   5.024  11.384   8.467  0.0300 -0.8411  0.4393
14053SOL    HW253884   4.903  11.305   8.511  0.5818 -1.7750  0.3019
14054SOL     OW53885   6.667   3.582   4.501  0.0233  0.1993  0.5808
14054SOL    HW153886   6.621   3.537   4.572 -0.4245 -1.1594 -0.5162
14054SOL    HW253887   6.606   3.649   4.472  0.5677  1.3642  2.0316
14055SOL     OW53888   0.974   6.537   2.546 -0.0532  0.1604  0.2361
14055SOL    HW153889   1.047   6.588   2.510  1.5911 -1.9350  0.3871
14055SOL    HW253890   0.966   6.463   2.486 -1.5591 -0.0658  0.6930
14056SOL     OW53891   3.352   9.475   4.752 -0.9225 -0.2401  0.0298
14056SOL    HW153892   3.431   9.496   4.703 -1.5531  0.0016 -0.8996
14056SOL    HW253893   3.383   9.419   4.823  0.0753 -0.1889 -0.3431
14057SOL     OW53894   8.937   5.837   6.746 -0.2696  0.1797 -0.4341
14057SOL    HW153895   8.921   5.809   6.656 -0.6472  0.8095 -0.5721
14057SOL    HW253896   8.918   5.931   6.745 -1.5763 -0.0418  0.5943
14058SOL     OW53897  10.853   0.010  11.106  0.4048 -0.2688  0.1829
14058SOL    HW153898  10.947   0.027  11.113  0.2605  0.9251 -0.4445
14058SOL    HW253899  10.846  -0.058  11.040  0.7532  1.1383 -1.3835
14059SOL     OW53900   9.030   0.550   3.982 -0.4506  0.3554 -0.1121
14059SOL    HW153901   8.963   0.488   4.014  0.5286 -0.0116  1.3394
14059SOL    HW253902   9.023   0.546   3.887 -4.0592  2.0389 -0.1072
14060SOL     OW53903   5.548   8.436   4.959 -0.4514  0.2290 -0.1181
14060SOL    HW153904   5.633   8.418   4.919 -1.1589 -0.9949 -1.1060
14060SOL    HW253905   5.494   8.471   4.888 -0.4860  2.0860  0.7464
14061SOL     OW53906   2.344   4.284   0.690 -0.4720 -0.4366  0.5060
14061SOL    HW153907   2.380   4.285   0.779 -0.2860  2.0764  0.4610
14061SOL    HW253908   2.367   4.369   0.654  0.5677 -1.8165 -2.4532
14062SOL     OW53909  10.555   3.263   2.806 -0.4257 -0.1252  0.2701
14062SOL    HW153910  10.523   3.185   2.850 -0.0108 -1.4654 -1.6948
14062SOL    HW253911  10.484   3.327   2.814 -2.6321 -2.1382 -1.7485
14063SOL     OW53912   5.290   0.797   8.286  0.2325 -0.4882  0.1958
14063SOL    HW153913   5.219   0.781   8.349  0.5855  0.3926  0.8476
14063SOL    HW253914   5.273   0.884   8.252 -0.1462 -1.0896 -1.2276
14064SOL     OW53915   9.743   7.941   7.041 -0.0345 -0.0947 -0.1185
14064SOL    HW153916   9.681   7.900   7.100 -0.7346 -0.5981 -1.1648
14064SOL    HW253917   9.718   8.033   7.040 -2.4469 -0.6523 -2.4085
14065SOL     OW53918   1.148   4.803   6.174 -0.2032 -0.2658 -0.6430
14065SOL    HW153919   1.072   4.846   6.135 -0.1901 -0.5510 -0.9833
14065SOL    HW253920   1.224   4.848   6.136 -0.1946 -0.2211 -0.5745
14066SOL     OW53921   6.371   0.269   1.639  0.6904 -0.5095 -0.4561
14066SOL    HW153922   6.344   0.254   1.730  0.8004  0.5489 -0.2392
14066SOL    HW253923   6.436   0.201   1.622  1.6837  0.1147  0.7083
14067SOL     OW53924  11.040   6.451   8.394 -0.0538 -0.2912 -0.3664
14067SOL    HW153925  11.086   6.532   8.370  0.3376  0.0217  1.3650
14067SOL    HW253926  11.079   6.385   8.336 -0.5663  0.7606 -1.9991
14068SOL     OW53927   6.027   0.754   3.478  0.4081 -0.0600  0.3065
14068SOL    HW153928   6.122   0.754   3.461  0.3858 -0.3115  0.1904
14068SOL    HW253929   6.002   0.846   3.467  0.6509  0.0213  0.4071
14069SOL     OW53930   8.114   3.550   3.977 -0.1776 -0.3933 -0.6902
14069SOL    HW153931   8.037   3.558   3.921 -1.0777 -0.9629  0.4208
14069SOL    HW253932   8.114   3.458   4.004  0.8748 -0.3886 -0.6406
14070SOL     OW53933  10.531   6.470   9.340  0.7715  0.2566  0.1823
14070SOL    HW153934  10.562   6.381   9.358  1.3919  0.4602  0.1531
14070SOL    HW253935  10.472   6.490   9.412  1.0035  0.0000  0.4437
14071SOL     OW53936   1.271   0.553   3.492 -0.7063 -0.7728 -0.4580
14071SOL    HW153937   1.347   0.510   3.530 -1.2760 -0.6700  0.8444
14071SOL    HW253938   1.218   0.481   3.457 -1.5798 -1.1957  1.5737
14072SOL     OW53939   0.611  10.051  11.743  0.1812 -0.6463  0.0724
14072SOL    HW153940   0.669  10.113  11.787 -0.6193 -0.3581  0.7368
14072SOL    HW253941   0.665   9.972  11.731 -0.4738 -2.2096  4.9434
14073SOL     OW53942  10.509   4.537   6.840  0.7297  0.4667  0.0038
14073SOL    HW153943  10.566   4.493   6.777  2.6384  1.3840  1.0069
14073SOL    HW253944  10.564   4.548   6.918 -1.0907  0.6715  1.3175
14074SOL     OW53945   4.893   8.805   1.578 -0.1759 -0.5933  0.7832
14074SOL    HW153946   4.953   8.831   1.649  0.2389  0.4834  0.0679
14074SOL    HW253947   4.838   8.882   1.564 -0.6621 -1.0130  0.3412
14075SOL     OW53948   7.819   2.498   3.828  0.1459 -0.1091 -0.1161
14075SOL    HW153949   7.905   2.486   3.869 -0.7577  0.9136  2.2374
14075SOL    HW253950   7.756   2.466   3.892 -1.3508  1.3627 -0.7674
14076SOL     OW53951  11.523   4.201   7.506  0.4383  0.2609 -0.1128
14076SOL    HW153952  11.444   4.197   7.560  1.7025 -0.3958  1.8301
14076SOL    HW253953  11.494   4.236   7.422 -1.9081 -0.0447  0.5057
14077SOL     OW53954   5.615   1.515   4.691 -0.7824  0.6313  0.2128
14077SOL    HW153955   5.705   1.510   4.658 -0.5199 -2.0837  1.0840
14077SOL    HW253956   5.581   1.426   4.682 -3.0731  1.3761  0.7969
14078SOL     OW53957   0.209   0.392   2.810  0.1444  0.0523 -0.5210
14078SOL    HW153958   0.182   0.403   2.901  1.2057 -2.0013  0.0930
14078SOL    HW253959   0.297   0.355   2.815 -0.7356 -2.6045 -2.2767
14079SOL     OW53960   9.372   5.077   8.943 -0.1060  0.1088  0.2178
14079SOL    HW153961   9.386   5.044   9.032  0.1635  2.1678  0.9905
14079SOL    HW253962   9.417   5.014   8.887 -1.0056 -1.7150  1.4175
14080SOL     OW53963   2.577   4.652   0.866 -0.1848  0.4844 -0.1289
14080SOL    HW153964   2.482   4.651   0.877 -0.0003  0.0626  1.8704
14080SOL    HW253965   2.591   4.663   0.772 -2.2110 -3.2736 -1.0691
14081SOL     OW53966   3.723  10.803   3.075 -0.5070  0.4736  0.4996
14081SOL    HW153967   3.720  10.717   3.117  0.8867  0.9593  1.6802
14081SOL    HW253968   3.715  10.865   3.147  0.6532  1.3307 -0.0753
14082SOL     OW53969  11.273   1.463   1.375  0.4751  0.0635 -0.6982
14082SOL    HW153970  11.249   1.382   1.420 -0.0067 -0.3584 -1.6803
14082SOL    HW253971  11.192   1.491   1.332  0.7584  0.8172 -0.7548
14083SOL     OW53972   7.507   9.458   1.589 -0.4890 -0.2582  0.0930
14083SOL    HW153973   7.442   9.404   1.544 -0.4226 -0.0767 -0.2248
14083SOL    HW253974   7.583   9.457   1.531 -0.9364  1.2542 -0.5796
14084SOL     OW53975   7.693   7.015   2.156  0.9532  0.1744 -0.6622
14084SOL    HW153976   7.717   6.998   2.065  0.1102 -1.1243 -0.6700
14084SOL    HW253977   7.771   6.991   2.206  1.7838  1.8767 -1.0820
14085SOL     OW53978   0.351   7.651   8.179 -0.2333  0.6985 -0.3859
14085SOL    HW153979   0.314   7.720   8.124  2.5574  1.8103 -1.0445
14085SOL    HW253980   0.382   7.697   8.257  0.2687 -0.0757 -0.1248
14086SOL     OW53981   5.921   7.837   4.057 -0.4383  0.7651 -0.0186
14086SOL    HW153982   5.936   7.760   4.112 -0.3407 -0.6459 -1.9318
14086SOL    HW253983   6.006   7.880   4.051 -0.1088  0.0910 -0.2500
14087SOL     OW53984   1.897   0.753   8.676  0.4127 -0.4441  0.2213
14087SOL    HW153985   1.980   0.709   8.697  0.9832  0.2465 -0.4772
14087SOL    HW253986   1.890   0.823   8.741  0.5383 -0.3163  0.0995
14088SOL     OW53987   2.700   5.421   9.667 -0.9118  0.6179 -0.4537
14088SOL    HW153988   2.723   5.336   9.628 -0.9524 -0.3315  1.5098
14088SOL    HW253989   2.608   5.433   9.643 -1.0775 -0.1833 -0.2610
14089SOL     OW53990   2.150   8.117  11.457  0.0923 -0.1128 -0.1229
14089SOL    HW153991   2.083   8.077  11.513  0.3369 -0.5602 -0.1500
14089SOL    HW253992   2.159   8.057  11.384 -0.8777  0.9117 -1.1293
14090SOL     OW53993   7.329  10.982   3.779  0.1421 -0.6257  0.1512
14090SOL    HW153994   7.307  10.899   3.737 -0.5456 -0.0912 -0.5627
14090SOL    HW253995   7.299  10.972   3.870  0.6583 -1.3863  0.2493
14091SOL     OW53996   7.696   5.135   9.492 -0.6908 -0.0640  0.2195
14091SOL    HW153997   7.668   5.189   9.566 -1.7249  0.9666 -0.8697
14091SOL    HW253998   7.791   5.145   9.489 -0.7704  0.9624  0.6266
14092SOL     OW53999   4.773   2.862   8.309 -0.2692  0.8607  0.2949
14092SOL    HW154000   4.822   2.782   8.290  1.3683  1.9173 -0.1585
14092SOL    HW254001   4.686   2.846   8.272  0.3053 -0.3468 -0.5990
14093SOL     OW54002   5.866   4.240   7.894 -0.0557 -0.3626  0.4291
14093SOL    HW154003   5.938   4.186   7.860 -1.5285 -2.4342  0.3980
14093SOL    HW254004   5.850   4.206   7.982  0.2520  1.3921  1.1942
14094SOL     OW54005   3.910   9.642   5.834 -0.4651 -0.5726  0.3734
14094SOL    HW154006   3.942   9.700   5.903  0.1254  0.0524 -0.3885
14094SOL    HW254007   3.838   9.690   5.794  1.4377  0.7882 -1.7463
14095SOL     OW54008   5.777   9.499  10.897 -0.2942  0.1726  0.3704
14095SOL    HW154009   5.752   9.560  10.827  1.4307  0.3971 -0.0983
14095SOL    HW254010   5.806   9.556  10.968 -2.8780 -0.0249  1.6866
14096SOL     OW54011  11.666   2.943  10.220 -0.4460 -0.0891  0.0899
14096SOL    HW154012  11.676   2.914  10.129  1.7950 -0.1353  0.2906
14096SOL    HW254013  11.613   2.874  10.261 -2.6213  0.5689 -1.4103
14097SOL     OW54014   1.597   5.729   6.593  0.4650 -0.2625 -0.2155
14097SOL    HW154015   1.516   5.778   6.610 -0.1398 -0.3546 -2.4961
14097SOL    HW254016   1.663   5.797   6.577  0.3360 -0.1941 -0.4537
14098SOL     OW54017   6.450  10.296   0.411 -0.3267  0.0888 -0.2571
14098SOL    HW154018   6.479  10.375   0.366 -3.9287  0.9666 -1.4174
14098SOL    HW254019   6.433  10.324   0.501  1.2176 -0.1778  0.1440
14099SOL     OW54020   3.292   9.331  11.196 -0.1382 -0.1433 -0.2252
14099SOL    HW154021   3.231   9.312  11.267 -0.9385  0.4153 -0.7441
14099SOL    HW254022   3.299   9.426  11.195  1.1967 -0.2242  0.1909
14100SOL     OW54023   8.552   6.419  11.749 -0.0340 -0.2122  0.0418
14100SOL    HW154024   8.530   6.383  11.835 -1.9542  2.9154  1.0392
14100SOL    HW254025   8.645   6.439  11.755 -0.1582  0.0649  1.4593
14101SOL     OW54026   5.456   8.477   1.096  0.3120 -0.0542 -0.1889
14101SOL    HW154027   5.407   8.531   1.158  0.6853  1.0360 -0.8182
14101SOL    HW254028   5.538   8.524   1.082  0.1808 -0.1994 -1.6044
14102SOL     OW54029   8.322   2.914   9.801  0.1201  0.1099 -0.1298
14102SOL    HW154030   8.227   2.924   9.790 -0.0527 -1.0016  0.1878
14102SOL    HW254031   8.343   2.970   9.876 -0.2436  0.5496 -0.3500
14103SOL     OW54032   0.206   1.349   1.891 -0.0886  0.4290  0.1823
14103SOL    HW154033   0.184   1.268   1.938  1.4121  0.5501  1.1582
14103SOL    HW254034   0.252   1.320   1.813  0.8575  0.3220  0.7595
14104SOL     OW54035   2.596   6.769   7.263 -0.2874  0.2548 -0.0141
14104SOL    HW154036   2.579   6.677   7.242  1.4651 -0.2452  0.5980
14104SOL    HW254037   2.689   6.772   7.287  0.1014  2.4447 -1.4553
14105SOL     OW54038   3.829  11.507   5.678  0.1352 -0.9068  0.4619
14105SOL    HW154039   3.801  11.531   5.590  0.7177 -0.5295  0.3730
14105SOL    HW254040   3.843  11.412   5.674  0.8561 -0.7864 -0.0574
14106SOL     OW54041   0.146   5.490   1.823  0.4193  0.4408 -0.3571
14106SOL    HW154042   0.212   5.532   1.878 -0.5863  2.3167 -0.4821
14106SOL    HW254043   0.065   5.537   1.843 -1.0682 -2.2218  0.2870
14107SOL     OW54044   0.617   2.432   8.078 -0.3192 -0.1284 -0.0335
14107SOL    HW154045   0.548   2.388   8.028 -2.0602 -0.2662  2.3556
14107SOL    HW254046   0.660   2.362   8.126  0.2212  0.2071 -0.0225
14108SOL     OW54047   0.994   7.562  10.569  0.2379 -0.3851 -0.8513
14108SOL    HW154048   0.911   7.517  10.583  0.6847 -0.5086  1.9964
14108SOL    HW254049   1.060   7.501  10.603  0.9529  1.7710  2.0352
14109SOL     OW54050   8.004   9.582  11.194 -0.4291 -0.3594  0.2390
14109SOL    HW154051   7.962   9.546  11.272 -1.0877 -1.1624 -0.4732
14109SOL    HW254052   8.080   9.526  11.179  0.8611  1.0010  1.4371
14110SOL     OW54053   2.705  11.936   3.734 -0.2771 -0.5596 -0.1940
14110SOL    HW154054   2.791  11.943   3.775  0.0962  0.0913 -1.0599
14110SOL    HW254055   2.709  11.996   3.659 -0.7360 -2.0827 -1.5026
14111SOL     OW54056  11.706   6.890  10.694  0.6193  0.8464  0.2375
14111SOL    HW154057  11.699   6.879  10.599  1.8853  0.1759  0.1919
14111SOL    HW254058  11.655   6.817  10.731 -1.2806  2.0528  0.1386
14112SOL     OW54059   5.516  11.958   4.620 -0.1229 -0.0929  0.0184
14112SOL    HW154060   5.421  11.947   4.620 -0.1101 -0.3388  1.1495
14112SOL    HW254061   5.538  11.981   4.530 -1.3150  0.5095 -0.1310
14113SOL     OW54062   3.593  11.772   6.726  0.4583  0.6185  0.3704
14113SOL    HW154063   3.548  11.848   6.690 -0.4453 -0.4654 -0.8941
14113SOL    HW254064   3.677  11.770   6.679 -0.7290 -0.8087 -1.8630
14114SOL     OW54065   5.642   7.331   4.004 -0.0082 -0.1165  0.0402
14114SOL    HW154066   5.633   7.239   4.027  0.3722 -0.8230 -2.3590
14114SOL    HW254067   5.558   7.371   4.027  0.1088 -0.8198  1.8834
14115SOL     OW54068   4.656   3.942   3.468 -0.0126  0.0584 -0.1289
14115SOL    HW154069   4.574   3.985   3.492 -0.5437 -0.7651 -0.4087
14115SOL    HW254070   4.704   3.935   3.551 -0.0163  0.9550 -0.0422
14116SOL     OW54071   1.148  10.957   6.870  0.0390 -0.6033 -0.1498
14116SOL    HW154072   1.228  10.989   6.828  0.4994  0.0205  1.1554
14116SOL    HW254073   1.098  10.917   6.799  0.6500  0.6858 -1.3439
14117SOL     OW54074  10.343   3.476   1.993 -0.5509 -0.2539 -0.3584
14117SOL    HW154075  10.260   3.434   2.015 -1.4229  0.6585 -1.7617
14117SOL    HW254076  10.327   3.570   2.003  0.7050 -0.1133  0.5838
14118SOL     OW54077   3.819   8.687   6.820 -0.4861  0.1351 -0.4489
14118SOL    HW154078   3.826   8.677   6.915  0.0347 -0.5712 -0.5471
14118SOL    HW254079   3.907   8.665   6.787 -0.5024  0.9319 -1.0530
14119SOL     OW54080   1.179  11.934   5.268 -0.4395 -0.1657  0.3584
14119SOL    HW154081   1.216  11.998   5.329  0.0100  0.7449 -0.8375
14119SOL    HW254082   1.109  11.981   5.223 -0.9641 -0.9180  0.3745
14120SOL     OW54083   9.662   1.035   6.980  0.2624  0.0323  0.0283
14120SOL    HW154084   9.568   1.029   6.961  0.4109 -0.6541 -0.5358
14120SOL    HW254085   9.697   1.095   6.915  0.7888 -2.3999 -2.0823
14121SOL     OW54086   5.827  11.568   2.456 -0.0735 -0.3674  0.1088
14121SOL    HW154087   5.851  11.499   2.518  0.5539 -0.5170 -0.2865
14121SOL    HW254088   5.743  11.540   2.420 -0.1074 -0.6264  0.3873
14122SOL     OW54089   1.033   2.462  10.646 -0.4255 -0.3425 -0.1301
14122SOL    HW154090   1.103   2.528  10.637 -0.5038  0.1136  2.1952
14122SOL    HW254091   1.080   2.379  10.652 -0.1959 -0.2367 -0.3912
14123SOL     OW54092   5.062   4.359   2.721  0.4539 -0.4067 -0.4785
14123SOL    HW154093   5.109   4.442   2.723  0.7369 -0.5764 -0.1852
14123SOL    HW254094   5.019   4.353   2.806 -0.6009  0.0289 -0.9450
14124SOL     OW54095   3.244  10.772  10.765 -0.0782 -0.0250 -0.3576
14124SOL    HW154096   3.199  10.705  10.816  0.3825 -2.2678 -2.6444
14124SOL    HW254097   3.329  10.733  10.744  0.6034  1.6991 -0.9834
14125SOL     OW54098   7.094   6.107   5.399 -0.2999  0.2664 -0.6310
14125SOL    HW154099   7.005   6.076   5.382 -0.2329 -0.6435  0.5493
14125SOL    HW254100   7.083   6.189   5.446 -0.5845 -0.8939  1.4323
14126SOL     OW54101   8.082   0.969   3.888  0.2948 -0.1521  0.1687
14126SOL    HW154102   8.115   0.881   3.872  1.5240  0.2452  0.3719
14126SOL    HW254103   8.018   0.958   3.959  0.9231 -0.7956  0.6504
14127SOL     OW54104   8.013   7.973  10.234  0.0977  0.2731  0.0765
14127SOL    HW154105   8.090   7.930  10.269 -1.2102 -1.7720  0.6406
14127SOL    HW254106   8.018   7.959  10.139  0.8430  0.9273  0.0138
14128SOL     OW54107   3.530   5.492   4.800  0.0888 -0.0722  0.2623
14128SOL    HW154108   3.465   5.421   4.800  0.5018 -0.4980  1.6359
14128SOL    HW254109   3.573   5.484   4.885  0.1888  1.8043  0.4319
14129SOL     OW54110   4.990   0.916  11.887  0.2618  0.0554  0.3719
14129SOL    HW154111   4.935   0.880  11.818  2.7563 -0.6126 -1.4372
14129SOL    HW254112   4.987   0.852  11.957  0.2897 -0.9465 -0.5233
14130SOL     OW54113   6.581   3.180  11.091  0.0604 -0.1166  0.4134
14130SOL    HW154114   6.519   3.229  11.145  2.3708  2.3898  1.0524
14130SOL    HW254115   6.652   3.157  11.151  1.4004  0.2632 -0.9643
14131SOL     OW54116   4.500   4.519   3.398  0.4499  0.2391 -0.1754
14131SOL    HW154117   4.563   4.579   3.358  3.6171 -1.8060  1.3641
14131SOL    HW254118   4.486   4.451   3.331 -0.4125  0.8393 -0.6235
14132SOL     OW54119   1.848   2.601   4.761 -0.6452  0.2568 -0.0339
14132SOL    HW154120   1.780   2.597   4.828 -0.1466 -1.2693  0.4195
14132SOL    HW254121   1.921   2.551   4.798  0.2460  0.7697 -1.0469
14133SOL     OW54122   6.702  10.612   0.512 -0.4676  0.3262  0.7206
14133SOL    HW154123   6.718  10.690   0.565 -1.1917  2.2216 -1.6526
14133SOL    HW254124   6.613  10.584   0.536 -0.3242  0.4238  1.3660
14134SOL     OW54125   8.648   1.957   6.203 -1.1769  0.7927 -0.7049
14134SOL    HW154126   8.613   1.896   6.138 -1.9343  0.4067  0.0565
14134SOL    HW254127   8.732   1.985   6.166 -0.7689 -0.7634 -1.0286
14135SOL     OW54128   6.337   2.336  11.516  0.4581  0.3267 -0.1998
14135SOL    HW154129   6.398   2.405  11.488 -0.2927  1.8749  1.7937
14135SOL    HW254130   6.261   2.347  11.458  0.2840  1.2959  0.1883
14136SOL     OW54131   7.483  11.535   9.878 -0.7140  0.0707 -0.0267
14136SOL    HW154132   7.567  11.581   9.878  0.1974 -1.5432 -0.3944
14136SOL    HW254133   7.447  11.550   9.791 -0.0043 -0.6384 -0.4491
14137SOL     OW54134   1.645   2.637   8.342 -0.0193 -0.1807  0.1898
14137SOL    HW154135   1.691   2.554   8.329 -0.0393 -0.0825 -0.5574
14137SOL    HW254136   1.628   2.641   8.436 -2.0851 -2.1538 -0.0109
14138SOL     OW54137   6.666   9.412   1.060  0.2328 -0.9489 -0.0090
14138SOL    HW154138   6.661   9.365   1.143 -1.8346 -2.2365 -0.7784
14138SOL    HW254139   6.673   9.504   1.085 -2.2502 -1.1179  1.6877
14139SOL     OW54140   1.080   7.142   5.697  0.2556  0.3865 -0.7416
14139SOL    HW154141   1.068   7.072   5.633 -2.7907  0.1441 -0.0247
14139SOL    HW254142   1.036   7.111   5.776  0.6094  2.2840  0.2540
14140SOL     OW54143  10.032   2.257   0.432  0.1540 -0.2025  0.4992
14140SOL    HW154144  10.057   2.186   0.491  0.5539  0.9901  1.7942
14140SOL    HW254145  10.085   2.331   0.458 -0.9397  0.8691 -0.1959
14141SOL     OW54146   3.501   5.885   1.686 -0.3113  0.0027 -0.2728
14141SOL    HW154147   3.456   5.801   1.684 -0.0735 -0.1232 -0.2940
14141SOL    HW254148   3.449   5.941   1.629  0.4108 -0.5665 -1.5254
14142SOL     OW54149   3.443   9.363   1.334  0.8702  0.2104  0.7296
14142SOL    HW154150   3.361   9.400   1.300  1.3142  0.4772 -0.0882
14142SOL    HW254151   3.445   9.274   1.301  1.6237  0.6805 -0.5485
14143SOL     OW54152   7.018   5.954   2.782  0.7379  0.6333 -0.6535
14143SOL    HW154153   7.106   5.953   2.745  0.5337  1.3655 -1.1943
14143SOL    HW254154   7.031   5.972   2.875  1.2530 -1.1118 -0.3502
14144SOL     OW54155   4.066   9.354   0.089 -0.4183 -0.0132  0.3002
14144SOL    HW154156   4.122   9.329   0.162 -0.1449  0.2503  0.1837
14144SOL    HW254157   4.096   9.442   0.065 -0.2625 -0.2438 -0.3624
14145SOL     OW54158   5.340   4.284   7.626  0.2543  0.9797  0.3196
14145SOL    HW154159   5.262   4.302   7.679  1.3396 -0.4331  2.5249
14145SOL    HW254160   5.349   4.361   7.570 -1.5869  2.0620  1.4107
14146SOL     OW54161   1.961   9.994   0.790  0.6446 -0.2325 -0.7306
14146SOL    HW154162   1.962  10.053   0.865  1.1572 -0.8359 -0.2498
14146SOL    HW254163   1.930   9.911   0.825 -4.0107  0.6165 -2.1425
14147SOL     OW54164   3.635   0.133   2.306  0.2914 -0.0725  0.4898
14147SOL    HW154165   3.712   0.189   2.308  0.5529 -0.3380 -1.1464
14147SOL    HW254166   3.591   0.154   2.224  1.5895 -3.7864 -1.3635
14148SOL     OW54167  10.348   8.207   9.887 -0.4156 -0.4734 -0.2298
14148SOL    HW154168  10.257   8.236   9.887 -0.3816 -0.2750  0.9786
14148SOL    HW254169  10.387   8.255   9.960  0.2693 -1.7069  0.2362
14149SOL     OW54170   9.016   2.214  10.647 -0.4528 -0.2425 -0.2459
14149SOL    HW154171   9.046   2.149  10.584 -2.3853 -1.2916 -0.1619
14149SOL    HW254172   8.976   2.163  10.717 -1.0325  1.0107  0.3742
14150SOL     OW54173   2.331   4.706   9.481  0.4301  0.4918  0.2974
14150SOL    HW154174   2.336   4.688   9.575  1.2604 -0.1810  0.1302
14150SOL    HW254175   2.239   4.730   9.467 -0.0460 -0.8024  1.0287
14151SOL     OW54176  11.178  11.842  11.556  0.0639 -0.0029  0.6963
14151SOL    HW154177  11.086  11.833  11.580 -0.0912  1.3120  0.6410
14151SOL    HW254178  11.226  11.822  11.637 -0.3887  2.2111  1.5741
14152SOL     OW54179   6.531   5.408   4.866  0.1197 -0.4222 -0.2006
14152SOL    HW154180   6.487   5.490   4.848  1.0462  0.9242  3.0070
14152SOL    HW254181   6.461   5.344   4.875 -0.8434  0.7006  0.4010
14153SOL     OW54182   6.238   4.917  11.644 -0.0774 -0.2051 -0.4543
14153SOL    HW154183   6.201   4.927  11.731 -0.1652 -1.0516 -0.3871
14153SOL    HW254184   6.163   4.904  11.586 -0.1602  2.0886 -0.9514
14154SOL     OW54185   3.676   9.636   0.317  0.4631  0.2772 -0.4320
14154SOL    HW154186   3.683   9.571   0.387  1.3175 -0.3570 -1.0897
14154SOL    HW254187   3.757   9.686   0.322 -0.1041  1.1882 -0.0529
14155SOL     OW54188   4.640   5.591   8.248 -0.2424  0.2389  0.2920
14155SOL    HW154189   4.730   5.582   8.216 -0.4151  0.5551 -0.3002
14155SOL    HW254190   4.606   5.666   8.200 -0.4668  0.8134  1.3363
14156SOL     OW54191   6.292   7.771   6.471 -0.4292 -0.0465  0.0751
14156SOL    HW154192   6.272   7.772   6.565  0.3781  1.5494  0.2609
14156SOL    HW254193   6.380   7.733   6.465 -0.4230 -0.0167 -0.0255
14157SOL     OW54194   7.002   4.697   2.538  0.0854 -0.1599  0.2035
14157SOL    HW154195   7.021   4.772   2.481  1.1920 -0.5198  0.0772
14157SOL    HW254196   6.920   4.721   2.582 -1.5634 -0.4328 -2.5042
14158SOL     OW54197  10.027   6.903   9.886  0.1399  0.4544 -0.2947
14158SOL    HW154198   9.933   6.890   9.901  0.4934  0.4954  2.4485
14158SOL    HW254199  10.054   6.829   9.832 -1.2988 -0.0126 -0.4100
14159SOL     OW54200   1.091   9.280   7.417 -0.0715 -0.1295 -0.2413
14159SOL    HW154201   1.057   9.316   7.336  0.4607  0.0576 -0.3820
14159SOL    HW254202   1.067   9.187   7.414 -2.5968  0.4076  0.7175
14160SOL     OW54203   8.645   3.060   3.170 -0.1373  0.2527 -0.1603
14160SOL    HW154204   8.720   3.036   3.115 -0.2319  1.5854 -0.9185
14160SOL    HW254205   8.580   2.992   3.151  0.0315  0.3810 -1.3073
14161SOL     OW54206   4.958   7.739  10.575  0.2328 -0.4676 -0.1285
14161SOL    HW154207   4.925   7.829  10.574 -2.6974 -1.4011 -1.5504
14161SOL    HW254208   4.999   7.728  10.489 -1.6466 -1.0937 -1.0186
14162SOL     OW54209   9.986   3.227  10.718  0.1135 -0.5479 -0.3067
14162SOL    HW154210  10.002   3.318  10.743  0.7585 -1.1756  1.7604
14162SOL    HW254211   9.891   3.221  10.709  0.1394  0.6129 -1.8176
14163SOL     OW54212   8.807   8.623   5.348 -0.2128  0.2197  0.7592
14163SOL    HW154213   8.825   8.529   5.339  2.2200  0.4242  2.3432
14163SOL    HW254214   8.894   8.662   5.360 -1.2753  2.5192  1.4459
14164SOL     OW54215   8.553  11.533   2.403 -0.1809 -0.5007  0.3202
14164SOL    HW154216   8.646  11.538   2.426 -0.1228  0.5481 -0.1168
14164SOL    HW254217   8.526  11.446   2.432  0.7762 -0.5678  1.0483
14165SOL     OW54218   2.304   7.764  10.011 -0.5089 -0.2195 -0.2271
14165SOL    HW154219   2.314   7.669  10.022 -1.8502 -0.2548  0.9616
14165SOL    HW254220   2.327   7.779   9.919 -0.2698 -1.6995 -0.4441
14166SOL     OW54221   1.839   0.114   3.398 -0.5991 -0.0843  0.0767
14166SOL    HW154222   1.852   0.115   3.493  0.7836  0.6112 -0.1057
14166SOL    HW254223   1.910   0.167   3.363 -1.7026  0.5588 -1.2926
14167SOL     OW54224   8.487   0.810   9.080  0.1076  0.6032  0.3090
14167SOL    HW154225   8.468   0.903   9.089  1.0001  0.8444 -0.1113
14167SOL    HW254226   8.403   0.767   9.091 -0.0687  1.3282  2.2314
14168SOL     OW54227   4.949  10.016   9.412  0.4426 -0.2628  0.7142
14168SOL    HW154228   4.979   9.998   9.501 -1.2262  0.3699  1.4488
14168SOL    HW254229   4.991  10.099   9.389 -0.2601  0.3324  1.5109
14169SOL     OW54230   0.429   8.754   5.744 -0.1614  0.2393 -0.2866
14169SOL    HW154231   0.346   8.793   5.717 -0.7323 -0.3188  0.6080
14169SOL    HW254232   0.465   8.718   5.663  0.7168  3.1008 -1.3007
14170SOL     OW54233   9.556   1.505  10.928 -0.0143  0.2068 -0.2860
14170SOL    HW154234   9.553   1.422  10.975 -0.6389  1.6180  2.3810
14170SOL    HW254235   9.631   1.551  10.964 -0.2274  1.1704 -1.0232
14171SOL     OW54236   2.745  11.448   0.336 -0.7582  0.3011 -0.6660
14171SOL    HW154237   2.685  11.505   0.385 -2.1150 -2.3851  1.0180
14171SOL    HW254238   2.715  11.456   0.245  0.3263  3.5923 -0.8687
14172SOL     OW54239  11.835   6.605   3.835 -0.0670 -0.0274  0.0897
14172SOL    HW154240  11.903   6.564   3.889 -0.2825 -0.2699  0.1824
14172SOL    HW254241  11.774   6.533   3.815 -0.0914  0.1014 -0.3145
14173SOL     OW54242   1.639   7.665   5.605  0.3655  0.2004  0.0599
14173SOL    HW154243   1.555   7.697   5.575 -0.0430  1.8135  2.6150
14173SOL    HW254244   1.626   7.571   5.620 -1.1459  0.5085  0.8216
14174SOL     OW54245   5.146   9.563   8.023  0.2315  0.1683 -0.9206
14174SOL    HW154246   5.204   9.588   7.951 -1.3878 -1.7769 -3.0433
14174SOL    HW254247   5.078   9.510   7.982 -0.2047 -1.9726  2.2088
14175SOL     OW54248   7.640   6.740   8.423 -0.0157  0.4822 -0.2654
14175SOL    HW154249   7.670   6.768   8.337  0.5614  1.9908  0.4033
14175SOL    HW254250   7.692   6.661   8.441 -0.5346 -0.1741 -1.5003
14176SOL     OW54251   3.444  10.811   6.562  0.7305  0.2409  0.1030
14176SOL    HW154252   3.482  10.735   6.606  1.4113  0.4039 -0.1794
14176SOL    HW254253   3.510  10.880   6.573 -0.3287  1.1088  1.2519
14177SOL     OW54254   5.253   5.386   4.976  0.0257  0.2314  0.1356
14177SOL    HW154255   5.237   5.402   5.069 -1.4010 -2.2048  0.3825
14177SOL    HW254256   5.311   5.310   4.974 -2.1046 -1.4387 -0.9349
14178SOL     OW54257   0.875   6.306   3.836 -0.3833  0.4878 -0.5290
14178SOL    HW154258   0.851   6.249   3.908 -1.0883  1.3046 -0.0955
14178SOL    HW254259   0.921   6.250   3.774 -1.1830 -0.5732 -0.1847
14179SOL     OW54260   4.678   7.001   2.209 -0.6396  0.2317  0.2591
14179SOL    HW154261   4.604   7.021   2.152 -1.9802 -0.0092  1.8327
14179SOL    HW254262   4.639   6.992   2.296  1.0721 -1.1797  0.9255
14180SOL     OW54263   7.977   5.975   8.532  0.1176  0.4992  0.5743
14180SOL    HW154264   8.022   5.899   8.495 -1.6346 -1.0209  1.4431
14180SOL    HW254265   7.999   5.974   8.625 -2.2701 -0.7944  1.2089
14181SOL     OW54266  10.150   4.255   8.341  0.2423  0.1775 -0.1898
14181SOL    HW154267  10.230   4.278   8.388 -0.3573  1.7333  0.1396
14181SOL    HW254268  10.171   4.269   8.249  0.9202 -1.3162 -0.2940
14182SOL     OW54269   7.214   8.388   5.184 -0.2865  0.0938  0.1686
14182SOL    HW154270   7.191   8.445   5.111  0.8562  1.4783  0.8404
14182SOL    HW254271   7.303   8.359   5.165  0.1467  0.7342  1.1517
14183SOL     OW54272  10.066   6.412  10.190  0.2312  0.5200  0.3106
14183SOL    HW154273  10.035   6.465  10.116 -2.0474 -0.7217  0.2770
14183SOL    HW254274  10.024   6.451  10.267 -0.3174 -0.3303  0.4591
14184SOL     OW54275   0.060  10.972  11.604 -0.0547  0.2144  0.1400
14184SOL    HW154276  -0.015  11.030  11.619  0.8891  1.7075 -0.7609
14184SOL    HW254277   0.060  10.914  11.680 -0.6697  1.7710  1.3844
14185SOL     OW54278   1.221   3.624   8.558  0.0477 -0.0002 -0.0077
14185SOL    HW154279   1.210   3.719   8.563  0.4249 -0.0132  1.3677
14185SOL    HW254280   1.206   3.603   8.466 -0.3051  1.3561 -0.2786
14186SOL     OW54281  11.201   4.516   9.578 -0.8408  0.6462 -0.2013
14186SOL    HW154282  11.260   4.474   9.641  0.2575  1.4508 -0.6465
14186SOL    HW254283  11.199   4.456   9.504  1.1254  1.5159 -1.0472
14187SOL     OW54284  11.675   0.463   7.192 -0.2461  0.1393 -0.4642
14187SOL    HW154285  11.604   0.429   7.247  1.4014 -2.1726  0.3939
14187SOL    HW254286  11.715   0.532   7.244 -2.1866  1.9601 -1.2386
14188SOL     OW54287   3.986   9.172  11.609  0.4814 -0.3722  0.0055
14188SOL    HW154288   3.977   9.251  11.664 -0.5829  0.4771 -1.3236
14188SOL    HW254289   3.899   9.132  11.612  0.8209 -1.1121  0.0844
14189SOL     OW54290  11.897   3.448   5.315  0.4582 -0.0248  0.6668
14189SOL    HW154291  11.888   3.372   5.373  1.7485 -1.3665 -0.7502
14189SOL    HW254292  11.983   3.485   5.337  0.8701 -0.4245 -0.1798
14190SOL     OW54293   0.359   8.710   6.996  0.0364  0.0535  0.5910
14190SOL    HW154294   0.289   8.650   7.021  0.6862 -0.7814  0.4359
14190SOL    HW254295   0.370   8.767   7.072  0.3863 -0.9449  1.3144
14191SOL     OW54296   1.198   4.650   3.965  0.1993  0.3286  0.1660
14191SOL    HW154297   1.235   4.580   4.018  1.0815  0.6748  0.0263
14191SOL    HW254298   1.194   4.614   3.876 -3.2356 -1.0208  0.7054
14192SOL     OW54299   4.036   1.342   6.190  0.6479 -0.1849 -0.0999
14192SOL    HW154300   4.101   1.411   6.204 -0.1386  0.3748  0.9010
14192SOL    HW254301   3.963   1.386   6.145 -0.1421 -0.1775  1.1381
14193SOL     OW54302   7.395   0.862   3.516 -0.4004  0.2118  0.0086
14193SOL    HW154303   7.409   0.847   3.422 -1.2100  1.1843 -0.2937
14193SOL    HW254304   7.482   0.860   3.554  0.0986  1.3200 -1.0114
14194SOL     OW54305   5.222   5.320  10.447 -0.3236  0.1279 -0.2131
14194SOL    HW154306   5.232   5.229  10.417  0.4880 -1.1806  3.4613
14194SOL    HW254307   5.306   5.341  10.487 -0.5053  2.5746 -0.9921
14195SOL     OW54308   2.329   7.345  11.910 -0.4330  0.4050 -0.3020
14195SOL    HW154309   2.268   7.302  11.849 -1.1375  0.2052  0.5269
14195SOL    HW254310   2.415   7.336  11.868 -0.7528 -0.6782 -0.7586
14196SOL     OW54311   5.160   6.210   1.883  0.1059 -0.6350 -0.3145
14196SOL    HW154312   5.169   6.304   1.894 -0.0192 -0.5236 -1.0740
14196SOL    HW254313   5.158   6.174   1.972 -1.9647  0.2695  0.0631
14197SOL     OW54314   6.206   6.355   8.165  0.6306  0.0861 -0.0918
14197SOL    HW154315   6.238   6.278   8.118  0.0504 -0.3237  0.1692
14197SOL    HW254316   6.180   6.416   8.097  4.2033  1.4721 -0.4171
14198SOL     OW54317   8.176   6.252   8.505 -0.1084  0.3042 -0.1516
14198SOL    HW154318   8.194   6.183   8.569 -0.2145  1.4405  1.1586
14198SOL    HW254319   8.105   6.302   8.544  1.5561  2.6028  0.1040
14199SOL     OW54320   5.773   9.734   7.510 -0.1821 -0.3320  0.3213
14199SOL    HW154321   5.829   9.657   7.512 -1.3439 -1.2012  1.9136
14199SOL    HW254322   5.818   9.798   7.565  0.2133 -0.3042 -0.0352
14200SOL     OW54323   0.503   2.394   9.581 -0.6763  0.5710 -0.2279
14200SOL    HW154324   0.498   2.486   9.555 -3.5178  0.7434  0.6583
14200SOL    HW254325   0.596   2.380   9.600 -0.4539  3.8923  1.8339
14201SOL     OW54326   8.726  10.096   0.590 -0.1962  0.2792  0.1290
14201SOL    HW154327   8.660  10.061   0.531  0.3735 -1.0228  0.2336
14201SOL    HW254328   8.796  10.129   0.533 -0.1465  0.0361  0.0482
14202SOL     OW54329   1.214   9.485   1.868 -0.9746 -0.6586  0.4409
14202SOL    HW154330   1.265   9.565   1.856  0.2860 -1.1218  2.2317
14202SOL    HW254331   1.171   9.471   1.783  1.8034 -0.1817 -1.1757
14203SOL     OW54332   8.897   1.998   5.588  0.6695  0.1755  0.3929
14203SOL    HW154333   8.849   1.933   5.640 -0.6840  1.7814  1.2552
14203SOL    HW254334   8.987   1.994   5.623  0.7754 -1.5493  0.0536
14204SOL     OW54335   3.251   7.791  11.048 -0.2223  0.5066 -0.4246
14204SOL    HW154336   3.243   7.697  11.028  1.0597  0.5207 -1.1184
14204SOL    HW254337   3.286   7.793  11.137  1.1766  0.2659 -0.9400
14205SOL     OW54338   4.289   8.172   4.400  0.1334 -0.2104  0.0710
14205SOL    HW154339   4.198   8.181   4.429 -0.1931 -1.0097 -0.6742
14205SOL    HW254340   4.283   8.146   4.308  1.1355  0.8670 -0.3297
14206SOL     OW54341   1.555  11.497   3.330 -0.2767  0.2016 -0.1090
14206SOL    HW154342   1.607  11.519   3.252  0.3492 -0.0704  0.2257
14206SOL    HW254343   1.616  11.506   3.403 -1.6560  3.8539  0.8130
14207SOL     OW54344   5.519  11.869   5.995 -0.1577 -0.1495  0.0204
14207SOL    HW154345   5.575  11.793   6.014  2.7071  1.8452  0.1970
14207SOL    HW254346   5.572  11.923   5.936 -3.0819  0.6424 -2.0838
14208SOL     OW54347   8.824  11.672   5.640  0.0990  1.0443  0.0885
14208SOL    HW154348   8.825  11.718   5.556  0.8487 -0.6748 -0.9147
14208SOL    HW254349   8.898  11.707   5.688  1.3975  0.1197 -1.1456
14209SOL     OW54350   8.153   3.797   6.552  0.4826  0.1463  0.1348
14209SOL    HW154351   8.227   3.766   6.605 -0.4662 -0.8715  0.9076
14209SOL    HW254352   8.078   3.747   6.584 -0.4348  0.7074 -1.0643
14210SOL     OW54353  11.801   8.924   6.777 -0.1133  0.0090 -0.3992
14210SOL    HW154354  11.847   8.914   6.693 -0.7836 -1.7846 -0.5990
14210SOL    HW254355  11.817   8.841   6.823  1.2076  1.3785  1.7953
14211SOL     OW54356   0.399   2.418  11.931  0.1786 -0.1969  0.3356
14211SOL    HW154357   0.473   2.447  11.878  0.1363 -2.1886 -0.9410
14211SOL    HW254358   0.439   2.378  12.008  0.5642 -1.9326 -0.6920
14212SOL     OW54359   4.828   7.323   0.546 -0.2197 -0.1367  0.4177
14212SOL    HW154360   4.877   7.362   0.618 -0.3080 -0.4451  0.6487
14212SOL    HW254361   4.741   7.362   0.552 -0.1191  0.1138  0.2513
14213SOL     OW54362  10.515   2.792   1.013 -0.3784  0.0562 -0.4996
14213SOL    HW154363  10.512   2.702   1.045  0.2459  0.6807  1.4478
14213SOL    HW254364  10.442   2.836   1.057 -0.5987  0.5456 -1.3279
14214SOL     OW54365   1.355   1.761   6.959  0.0146  0.3038 -0.3256
14214SOL    HW154366   1.315   1.798   6.880  0.1615  0.2094 -0.4457
14214SOL    HW254367   1.298   1.788   7.030  0.7855  1.8192 -0.2547
14215SOL     OW54368   5.630   2.659   1.901 -0.0435 -0.0926 -0.3899
14215SOL    HW154369   5.722   2.634   1.907  0.3791  1.1059 -1.4881
14215SOL    HW254370   5.584   2.576   1.892  0.9574 -0.6924 -0.1644
14216SOL     OW54371   5.794   7.703   8.465 -0.0364 -0.0342  0.7027
14216SOL    HW154372   5.867   7.743   8.417  0.8180 -2.6915 -0.3587
14216SOL    HW254373   5.836   7.646   8.529 -1.1967 -0.9749  0.6405
14217SOL     OW54374  10.453   3.725  10.620  0.3041 -0.0430  0.0692
14217SOL    HW154375  10.510   3.716  10.543 -0.1376 -0.2505 -0.2402
14217SOL    HW254376  10.497   3.790  10.675  2.8915 -2.9134  1.6843
14218SOL     OW54377   3.600   3.617   4.465  0.2063 -0.0821 -0.5988
14218SOL    HW154378   3.597   3.550   4.533  2.1034 -0.7990 -1.1764
14218SOL    HW254379   3.655   3.686   4.502 -1.7005  1.2102 -0.0216
14219SOL     OW54380   0.325   5.245   2.904  0.2532 -0.0747 -0.2912
14219SOL    HW154381   0.350   5.301   2.830 -2.1246  0.3670 -0.8351
14219SOL    HW254382   0.303   5.161   2.864 -0.8368  0.1007 -0.0919
14220SOL     OW54383   1.999  11.555   1.384  0.0356  0.4991  0.3798
14220SOL    HW154384   1.919  11.578   1.337 -1.3799 -2.3725  1.1600
14220SOL    HW254385   2.065  11.542   1.316 -0.3646  1.9453 -0.3339
14221SOL     OW54386   1.809   9.919   8.806  0.2507 -0.2345 -0.3074
14221SOL    HW154387   1.830   9.974   8.881 -0.4441 -0.4343  0.0470
14221SOL    HW254388   1.838   9.832   8.831 -2.0478 -0.7777  0.7247
14222SOL     OW54389   1.078   3.433   2.018 -0.5592  0.0010  0.6366
14222SOL    HW154390   1.062   3.386   1.936  1.0193 -2.6584  1.7204
14222SOL    HW254391   0.996   3.424   2.067 -0.6266 -0.7195  0.3974
14223SOL     OW54392   6.846   9.596   2.641  0.6671  0.1205 -0.5919
14223SOL    HW154393   6.833   9.623   2.550  1.0764  1.9504 -0.1514
14223SOL    HW254394   6.938   9.569   2.646  1.7531  3.4829 -0.0060
14224SOL     OW54395   6.727   7.282   7.840  0.0290  0.0055  0.1530
14224SOL    HW154396   6.674   7.356   7.870  1.1158  1.0703 -0.4486
14224SOL    HW254397   6.794   7.272   7.907  0.8843  0.6860 -0.5673
14225SOL     OW54398   6.189   5.885   1.711  0.9428 -0.6850 -0.2641
14225SOL    HW154399   6.267   5.923   1.670  1.6097  0.7089  2.0811
14225SOL    HW254400   6.217   5.799   1.742  1.6482 -0.1545  0.6499
14226SOL     OW54401   7.207   2.693   7.074  0.2449 -0.1809 -0.4314
14226SOL    HW154402   7.170   2.605   7.061 -0.1278  0.0398 -0.9326
14226SOL    HW254403   7.195   2.736   6.989  0.9610  0.1596 -0.3618
14227SOL     OW54404   9.849  11.576   4.707  0.1047 -0.5279  0.3476
14227SOL    HW154405   9.898  11.623   4.639 -0.8944  0.4694  0.3045
14227SOL    HW254406   9.917  11.531   4.758  0.9453 -0.4497 -0.6715
14228SOL     OW54407   3.874   8.920  11.045  0.0298  0.0973  0.0616
14228SOL    HW154408   3.936   8.962  10.985 -1.5978  0.7808 -1.2423
14228SOL    HW254409   3.916   8.837  11.069  1.9689  1.0742  0.2539
14229SOL     OW54410   4.347   4.684   8.484  0.1638  0.0083 -0.1573
14229SOL    HW154411   4.318   4.740   8.556 -1.9090 -1.1443 -0.0191
14229SOL    HW254412   4.298   4.603   8.495 -0.0690 -0.3003 -2.7299
14230SOL     OW54413  10.265   4.298  11.042  0.2115 -0.9420  0.5423
14230SOL    HW154414  10.273   4.266  11.132 -0.9365  0.3899  1.1480
14230SOL    HW254415  10.355   4.315  11.015  0.5522 -1.0273  1.5686
14231SOL     OW54416   6.819   8.844   7.650 -0.2453 -0.3123 -0.2743
14231SOL    HW154417   6.901   8.806   7.616 -0.4267  0.3815 -1.5382
14231SOL    HW254418   6.782   8.892   7.576 -1.0322  0.6692  0.7185
14232SOL     OW54419   0.706   0.227   8.651 -0.1127 -0.1150 -0.2987
14232SOL    HW154420   0.745   0.208   8.736 -0.6841 -1.3771 -0.2951
14232SOL    HW254421   0.733   0.317   8.631  1.3131 -0.3427  0.4929
14233SOL     OW54422   4.449   2.181   1.977 -0.1683 -0.1748 -0.0921
14233SOL    HW154423   4.457   2.185   1.882 -0.0085 -0.7098 -0.1046
14233SOL    HW254424   4.532   2.144   2.007 -0.5296 -0.7725  0.1882
14234SOL     OW54425   3.562  10.157   8.169 -0.0530 -0.6112  0.2353
14234SOL    HW154426   3.613  10.235   8.190 -0.0026 -0.0497 -1.7709
14234SOL    HW254427   3.472  10.180   8.193  0.1012 -0.2593  0.4780
14235SOL     OW54428   3.865   0.390   8.483 -0.3363  0.4261  0.5495
14235SOL    HW154429   3.889   0.392   8.576  1.0044  0.8823  0.2098
14235SOL    HW254430   3.906   0.468   8.446 -0.8793  0.2619 -0.4369
14236SOL     OW54431  10.016   9.245   7.006  0.6156 -0.7503  0.9204
14236SOL    HW154432  10.011   9.154   7.033  0.2082 -0.8483  0.5222
14236SOL    HW254433  10.096   9.278   7.046  1.3972 -1.6075  0.0861
14237SOL     OW54434  10.833   3.413   4.273  0.0217  0.0608  0.2522
14237SOL    HW154435  10.899   3.347   4.290  0.3255  0.3017  0.0253
14237SOL    HW254436  10.753   3.364   4.256  0.1803 -0.2356  0.3712
14238SOL     OW54437   2.695   2.757   7.659  0.1512  0.2363 -0.8119
14238SOL    HW154438   2.686   2.748   7.564 -1.3268  1.4328 -0.8219
14238SOL    HW254439   2.730   2.845   7.672  2.1982 -0.5963 -0.2806
14239SOL     OW54440   0.596  11.416   2.413  0.5062 -0.1490  0.5503
14239SOL    HW154441   0.583  11.511   2.408 -0.6042 -0.3013  0.3689
14239SOL    HW254442   0.635  11.402   2.499 -1.7513  0.2407  1.7176
14240SOL     OW54443   7.555   8.547   5.322 -0.4079  0.3652  0.0078
14240SOL    HW154444   7.521   8.476   5.268 -0.1802 -0.2264  0.6196
14240SOL    HW254445   7.514   8.533   5.408 -1.2309  1.6295 -0.1535
14241SOL     OW54446   1.554   8.213   9.516 -0.5794 -0.2314  0.1919
14241SOL    HW154447   1.551   8.160   9.436 -2.1839 -0.2867  0.2480
14241SOL    HW254448   1.608   8.289   9.493  0.5039 -1.1436 -0.3520
14242SOL     OW54449   0.886   0.735   2.033 -0.8291 -0.4753 -0.4485
14242SOL    HW154450   0.792   0.737   2.047 -0.9034  0.7679 -0.9901
14242SOL    HW254451   0.897   0.741   1.938 -0.2071  0.8176 -0.3221
14243SOL     OW54452   4.067   3.334   0.918  0.5928  0.3720 -0.0651
14243SOL    HW154453   3.977   3.347   0.886  0.4275 -0.6584 -0.0446
14243SOL    HW254454   4.116   3.408   0.881 -0.2440  0.9163 -0.1251
14244SOL     OW54455   7.973   5.949   6.503  0.1553 -0.2937  0.4499
14244SOL    HW154456   8.053   6.003   6.504  0.1421 -0.2836  1.5040
14244SOL    HW254457   7.997   5.869   6.550 -0.2153 -0.6592  0.0299
14245SOL     OW54458   3.034   0.179   0.673  0.3272  0.2485 -0.5962
14245SOL    HW154459   3.058   0.221   0.590 -0.6337  3.1164  0.5010
14245SOL    HW254460   2.943   0.203   0.688 -0.3882 -2.4556  0.0796
14246SOL     OW54461   3.230   1.965   1.967 -0.3858  0.2616  0.0571
14246SOL    HW154462   3.272   1.903   2.026  0.3184 -0.2053 -0.9095
14246SOL    HW254463   3.138   1.937   1.964  0.0377 -1.1517 -0.8319
14247SOL     OW54464   8.298   4.396   7.319  0.2227 -0.2175 -0.4138
14247SOL    HW154465   8.359   4.421   7.249 -1.7780 -1.3080 -2.6768
14247SOL    HW254466   8.248   4.476   7.335 -0.2663 -0.3364 -1.2849
14248SOL     OW54467   2.118   3.165  11.619 -0.3257 -0.5327 -0.1581
14248SOL    HW154468   2.055   3.197  11.683  0.7279  0.8082  0.2515
14248SOL    HW254469   2.115   3.070  11.629 -0.9028 -0.4037  1.1918
14249SOL     OW54470   6.213   5.040   7.031 -0.2011 -0.1953 -0.6142
14249SOL    HW154471   6.214   5.023   7.125  2.6818 -1.5024 -0.7487
14249SOL    HW254472   6.180   4.958   6.993 -0.6378  0.0556 -0.7786
14250SOL     OW54473   6.173   4.043   5.303  0.0340  0.0596 -0.8315
14250SOL    HW154474   6.254   3.999   5.330 -0.0908 -0.8614 -1.9154
14250SOL    HW254475   6.202   4.124   5.263  0.4401 -0.3225 -1.3232
14251SOL     OW54476   5.094  10.818   3.367 -0.3736  0.1931 -0.2929
14251SOL    HW154477   5.020  10.757   3.370 -0.7318  0.6243 -0.2212
14251SOL    HW254478   5.053  10.905   3.369  0.1663  0.4385  0.5746
14252SOL     OW54479   8.251   3.425   3.138 -0.1882 -0.4309 -0.1618
14252SOL    HW154480   8.327   3.408   3.193  1.0667  1.3036 -1.2429
14252SOL    HW254481   8.244   3.348   3.082  1.6984 -0.0489 -1.0069
14253SOL     OW54482  11.230   2.146   8.596  0.0478 -0.4106 -0.1895
14253SOL    HW154483  11.296   2.125   8.661 -0.3622 -0.8814  0.0761
14253SOL    HW254484  11.179   2.217   8.635  2.5735  2.6171 -1.8078
14254SOL     OW54485   8.851   6.408   1.367 -0.1618 -0.1712  0.2155
14254SOL    HW154486   8.938   6.419   1.328 -0.2337  1.4379  0.4414
14254SOL    HW254487   8.857   6.452   1.452 -0.6550 -1.7171  1.0870
14255SOL     OW54488   9.396   5.447   9.970  0.1016  0.1269 -0.0713
14255SOL    HW154489   9.304   5.430   9.948  0.0676  1.2269 -0.8755
14255SOL    HW254490   9.400   5.436  10.065 -0.7296 -0.5205 -0.0973
14256SOL     OW54491   2.424   4.275   7.719  0.2778 -0.5480  0.0809
14256SOL    HW154492   2.347   4.323   7.688 -0.8718 -1.2526  1.6861
14256SOL    HW254493   2.465   4.333   7.783 -0.0405 -0.9264  0.6405
14257SOL     OW54494  11.917   6.836  11.396  0.3493  0.5719  0.0153
14257SOL    HW154495  11.873   6.754  11.421  0.4602  0.3124 -0.6407
14257SOL    HW254496  11.887   6.899  11.462 -0.0693  0.1109  0.2801
14258SOL     OW54497   0.987   7.699   9.432 -0.0420 -0.1108  0.1601
14258SOL    HW154498   0.936   7.622   9.459 -0.3184 -0.8152 -2.1124
14258SOL    HW254499   1.065   7.696   9.487  0.1819 -2.3240 -0.1571
14259SOL     OW54500  11.782   3.995  11.297  0.2325  0.5547  0.3508
14259SOL    HW154501  11.690   4.006  11.276  0.7808  0.6504 -2.4593
14259SOL    HW254502  11.823   4.078  11.271  1.4988 -0.5888 -1.6430
14260SOL     OW54503  10.096   0.755   6.292 -0.6693  0.0421  0.0042
14260SOL    HW154504  10.112   0.849   6.294 -1.5490  0.2281 -0.9326
14260SOL    HW254505  10.094   0.733   6.199 -0.5093 -0.9009  0.2154
14261SOL     OW54506   3.731   2.387   5.478  0.1741  0.4861  0.7123
14261SOL    HW154507   3.756   2.295   5.481 -1.3642 -0.0349 -0.8887
14261SOL    HW254508   3.701   2.401   5.388 -3.3323  1.4952  1.8938
14262SOL     OW54509   4.613   4.297   8.120  0.0555  0.3956  0.4188
14262SOL    HW154510   4.542   4.297   8.055  0.7193  0.8070 -0.3283
14262SOL    HW254511   4.683   4.348   8.079  1.0605 -0.5857  0.8370
14263SOL     OW54512  10.777   4.354  11.919  0.3044 -0.8609 -0.3923
14263SOL    HW154513  10.727   4.287  11.873  0.9108 -0.3466 -1.8570
14263SOL    HW254514  10.858   4.309  11.944 -0.1651 -1.2333  0.5081
14264SOL     OW54515   9.777  11.709   3.784  0.7112 -0.0380 -0.7371
14264SOL    HW154516   9.752  11.793   3.747  0.9843  0.4669  0.1839
14264SOL    HW254517   9.757  11.718   3.878 -0.3441 -1.4039 -0.8007
14265SOL     OW54518  11.016   8.927   9.922 -0.4561 -0.0985  0.0270
14265SOL    HW154519  10.994   9.020   9.924 -0.0116  0.0235  2.0058
14265SOL    HW254520  10.931   8.882   9.922 -0.7138  0.3428  1.1461
14266SOL     OW54521   9.962   0.369   1.599 -0.0181 -0.1981 -0.3802
14266SOL    HW154522   9.917   0.413   1.671  1.7162 -0.6241  1.0530
14266SOL    HW254523   9.997   0.288   1.639  1.9888  0.1285 -1.3477
14267SOL     OW54524  10.091   5.915   1.417 -0.1267 -0.2669 -0.4787
14267SOL    HW154525  10.147   5.866   1.478  0.0885  0.4945 -0.0538
14267SOL    HW254526  10.021   5.854   1.395  1.3146 -1.5589 -1.6955
14268SOL     OW54527  11.926   0.727   0.069 -0.7563 -0.6122  0.0920
14268SOL    HW154528  11.888   0.640   0.068 -0.7773 -0.6068 -0.8176
14268SOL    HW254529  11.937   0.748   0.162 -1.6056 -1.2006  0.3349
14269SOL     OW54530   5.343   2.032   7.763 -0.1947  0.2692  0.0005
14269SOL    HW154531   5.290   2.108   7.740 -1.1256 -0.1255  0.7548
14269SOL    HW254532   5.329   1.970   7.692 -1.7810 -0.3217  0.7799
14270SOL     OW54533   4.045  10.847   0.918  0.0135  0.4993  0.2062
14270SOL    HW154534   3.984  10.889   0.979  0.7196  1.4279  0.2845
14270SOL    HW254535   4.115  10.911   0.906  0.5585 -0.2226 -0.5343
14271SOL     OW54536   6.345   3.369   8.655 -0.2489  0.2541 -0.0970
14271SOL    HW154537   6.269   3.409   8.696  1.2975  2.0164  1.2464
14271SOL    HW254538   6.367   3.295   8.712 -0.4205  0.2885  0.0148
14272SOL     OW54539  11.637  11.386   8.931  0.4406 -0.4483  0.9181
14272SOL    HW154540  11.705  11.451   8.952  1.2181 -1.2693  1.0159
14272SOL    HW254541  11.612  11.407   8.841 -0.1925  0.7334  1.3541
14273SOL     OW54542   1.738  10.025   8.558 -0.5585  0.2847 -0.3926
14273SOL    HW154543   1.797   9.982   8.620 -0.2098  2.0112  0.5306
14273SOL    HW254544   1.692  10.091   8.610 -0.4068  1.6443 -1.9149
14274SOL     OW54545   4.614  11.465   9.199  0.2098  0.0395  0.3465
14274SOL    HW154546   4.548  11.396   9.205 -0.7261  0.3858 -3.5662
14274SOL    HW254547   4.564  11.546   9.203  0.4297  0.3190 -1.7370
14275SOL     OW54548   4.529  11.136   3.734 -0.0543 -0.6189  0.3756
14275SOL    HW154549   4.576  11.208   3.776  0.2486 -0.7104  0.1916
14275SOL    HW254550   4.523  11.161   3.642 -1.2336 -0.1417  0.5657
14276SOL     OW54551   7.911   3.757   6.016  0.6465  0.1115  0.5162
14276SOL    HW154552   7.906   3.805   6.098  0.0259 -0.2240  0.6810
14276SOL    HW254553   7.833   3.785   5.967  1.5257  1.0729 -0.3927
14277SOL     OW54554   7.761  10.276  11.406  0.3578  0.1890  0.3971
14277SOL    HW154555   7.720  10.342  11.461  0.4213 -0.9819  1.9084
14277SOL    HW254556   7.691  10.214  11.386  0.7279 -0.3215  0.6467
14278SOL     OW54557   7.448   8.089   6.175  0.6550 -0.8179  0.0348
14278SOL    HW154558   7.376   8.131   6.222  2.1814  1.6486  0.3018
14278SOL    HW254559   7.497   8.042   6.242  1.9273  1.3953  0.7190
14279SOL     OW54560   5.352   8.588   9.470 -0.5651 -0.0761  0.0737
14279SOL    HW154561   5.447   8.581   9.459 -0.2798  1.9762  0.8645
14279SOL    HW254562   5.316   8.560   9.386  0.8598  1.2402 -1.0371
14280SOL     OW54563   5.531   1.259   9.286 -0.7014 -0.2356  0.4094
14280SOL    HW154564   5.537   1.346   9.246 -0.9672 -0.4053  0.0002
14280SOL    HW254565   5.506   1.201   9.215  1.7910 -1.0772  0.1514
14281SOL     OW54566   5.430   5.214   8.045 -0.1284  0.2849  0.9848
14281SOL    HW154567   5.521   5.245   8.055 -0.1551  0.5121  0.5524
14281SOL    HW254568   5.415   5.158   8.121 -0.0431  1.2659  1.7479
14282SOL     OW54569   2.150   1.231   5.249  0.5482  0.4165  1.0170
14282SOL    HW154570   2.243   1.216   5.269  0.5182 -1.6133 -0.0354
14282SOL    HW254571   2.103   1.168   5.304  0.2270 -2.3265 -2.0850
14283SOL     OW54572   3.454  11.143   6.679  0.3528  0.4444  0.7300
14283SOL    HW154573   3.501  11.073   6.633 -0.3822 -0.0971  0.7897
14283SOL    HW254574   3.495  11.224   6.647  0.3185  0.0475 -0.3620
14284SOL     OW54575   8.204   0.858   7.415 -0.0767 -0.4892 -0.2796
14284SOL    HW154576   8.296   0.868   7.438  0.0588 -1.3239 -0.4373
14284SOL    HW254577   8.201   0.870   7.320 -0.0153 -1.1831 -0.3744
14285SOL     OW54578   2.275   8.309   3.470  0.1175 -0.5083  0.0648
14285SOL    HW154579   2.340   8.242   3.448 -0.9105 -1.2678 -0.8114
14285SOL    HW254580   2.206   8.297   3.405 -0.5929  0.7166  0.5565
14286SOL     OW54581   8.838  11.323  10.949 -0.3552 -0.7945  0.3892
14286SOL    HW154582   8.882  11.270  11.015  2.6277 -0.1674 -0.9413
14286SOL    HW254583   8.821  11.406  10.993  2.7118  0.0550  0.1675
14287SOL     OW54584  10.835   0.325   6.038 -0.0660 -0.0441  0.6182
14287SOL    HW154585  10.884   0.337   6.119  1.1371  1.4475 -0.2682
14287SOL    HW254586  10.754   0.374   6.051  0.5897  1.1057  0.5827
14288SOL     OW54587   6.257  10.391   5.152 -0.9927  0.0958 -0.0328
14288SOL    HW154588   6.243  10.443   5.072  0.4486  2.5514  1.1889
14288SOL    HW254589   6.298  10.310   5.121 -2.2693  0.1051 -1.9291
14289SOL     OW54590  10.462   7.068  10.740 -0.4433 -0.2949  0.1534
14289SOL    HW154591  10.465   7.144  10.683  1.0074  0.0463  0.6363
14289SOL    HW254592  10.414   7.002  10.690  0.4799  0.1025 -1.3071
14290SOL     OW54593   8.867   3.750  10.166  0.5929  0.1314  0.1097
14290SOL    HW154594   8.821   3.768  10.247  1.5281  2.1283  0.2660
14290SOL    HW254595   8.949   3.709  10.194  0.4082 -0.2462  0.0940
14291SOL     OW54596   1.500   2.650   7.243 -0.6371 -0.4334  0.4909
14291SOL    HW154597   1.506   2.615   7.154 -1.3660 -0.4017  0.4237
14291SOL    HW254598   1.462   2.737   7.232  0.3024  0.0246  0.7384
14292SOL     OW54599   7.219   2.717   9.728  0.2865 -0.1734 -0.3227
14292SOL    HW154600   7.172   2.676   9.656 -0.3475  2.1245 -1.3039
14292SOL    HW254601   7.247   2.802   9.694  2.1251 -0.0010  1.3786
14293SOL     OW54602   1.929   7.995  11.588  0.1614 -0.1577 -0.6132
14293SOL    HW154603   1.914   7.981  11.682  0.9307 -0.8511 -0.5849
14293SOL    HW254604   1.842   8.013  11.553 -0.5762 -2.6364 -0.2281
14294SOL     OW54605   7.941   1.279   8.476 -0.2169 -0.1213 -0.3470
14294SOL    HW154606   8.030   1.289   8.443  0.5405 -0.3199  1.5030
14294SOL    HW254607   7.934   1.343   8.547 -1.5739 -0.0838 -0.4884
14295SOL     OW54608   3.284   7.657   2.817  0.2436  0.5792 -0.5477
14295SOL    HW154609   3.289   7.562   2.815 -0.7798  0.4919  0.2917
14295SOL    HW254610   3.338   7.685   2.743  0.5741 -0.6426 -0.7933
14296SOL     OW54611   6.857   4.452   0.245  0.2903  0.2719  0.4421
14296SOL    HW154612   6.845   4.359   0.267  0.7563  0.2959  0.8190
14296SOL    HW254613   6.944   4.456   0.205  0.7513  0.7146  1.4608
14297SOL     OW54614   2.530   7.625   2.168  0.1679 -0.0554  0.0148
14297SOL    HW154615   2.609   7.676   2.150 -1.0178  1.1580 -2.3023
14297SOL    HW254616   2.518   7.571   2.089 -1.5269  0.1307  0.1016
14298SOL     OW54617   9.911   2.387   0.922  0.4387 -0.0501 -0.2591
14298SOL    HW154618   9.828   2.377   0.969  1.8672 -0.5017  2.3951
14298SOL    HW254619   9.900   2.335   0.842 -1.5615 -0.7557  0.4140
14299SOL     OW54620  10.931   3.976   0.707 -0.2467  0.0744 -0.2494
14299SOL    HW154621  11.015   3.938   0.680 -0.1696 -0.9349  1.3212
14299SOL    HW254622  10.954   4.044   0.771 -0.6082  0.0622 -0.1034
14300SOL     OW54623   4.058  11.636   4.407  0.4229  0.2520  0.8474
14300SOL    HW154624   3.965  11.623   4.387  0.7445 -2.1462  0.5352
14300SOL    HW254625   4.094  11.675   4.328 -0.1638  0.4093  0.6490
14301SOL     OW54626   7.244   7.202   8.912  0.3497  0.3872 -0.2105
14301SOL    HW154627   7.245   7.144   8.988  1.0271 -0.6519 -0.9714
14301SOL    HW254628   7.335   7.203   8.881  0.0615  0.6756 -1.0822
14302SOL     OW54629   8.718   6.364  10.063  0.5115 -0.7485  0.1946
14302SOL    HW154630   8.681   6.314  10.136 -1.0782 -0.7619 -0.5825
14302SOL    HW254631   8.738   6.297   9.997 -0.1210 -0.5341 -0.2227
14303SOL     OW54632   5.931   6.528   1.726  0.4543 -0.6519 -0.2446
14303SOL    HW154633   5.871   6.474   1.675 -0.7520  1.7116 -1.4744
14303SOL    HW254634   5.946   6.605   1.671  5.0338 -1.2294 -0.2428
14304SOL     OW54635   2.077   8.274   0.752 -0.6114  0.7275  0.5279
14304SOL    HW154636   2.130   8.248   0.828 -1.0020 -1.2737  0.1733
14304SOL    HW254637   2.123   8.350   0.716  1.1346  0.0181  1.1580
14305SOL     OW54638  11.789   5.667   4.095 -0.6126 -0.0440 -0.5215
14305SOL    HW154639  11.779   5.762   4.101 -1.7487 -0.0113 -2.1415
14305SOL    HW254640  11.882   5.651   4.110 -0.4690  1.2844  0.0869
14306SOL     OW54641   6.402   2.857   3.906  0.0989 -0.9484 -0.2532
14306SOL    HW154642   6.322   2.871   3.855  0.0855 -0.1844 -0.0357
14306SOL    HW254643   6.455   2.934   3.887  0.6022 -1.2476 -0.0580
14307SOL     OW54644   4.928  11.880   1.821 -0.2635 -0.1421 -0.4594
14307SOL    HW154645   4.998  11.875   1.755  0.7392  1.7855  0.3806
14307SOL    HW254646   4.947  11.809   1.882  0.8416  0.2286 -0.3603
14308SOL     OW54647   0.864   8.576   5.689  0.2365  0.1952 -0.6611
14308SOL    HW154648   0.912   8.498   5.661 -2.2677 -1.5560 -0.4075
14308SOL    HW254649   0.841   8.559   5.781  1.0467  2.0150 -0.0762
14309SOL     OW54650   8.477   5.318   0.150 -0.4842  0.1220 -0.0193
14309SOL    HW154651   8.462   5.272   0.233 -2.5489  0.3554 -0.2283
14309SOL    HW254652   8.430   5.401   0.160 -0.6539  0.2036 -1.3758
14310SOL     OW54653  11.755   8.885   2.761  0.4895 -0.8235 -0.0927
14310SOL    HW154654  11.792   8.898   2.674 -0.3316 -0.2267 -0.3665
14310SOL    HW254655  11.708   8.967   2.780  0.5612 -0.9888  0.8584
14311SOL     OW54656   2.020   3.391   9.796 -0.4206 -0.3995 -0.1944
14311SOL    HW154657   2.036   3.298   9.782  1.3500 -0.0193 -1.0340
14311SOL    HW254658   2.073   3.414   9.872 -1.2657 -0.1626  0.3433
14312SOL     OW54659   8.003   0.220  11.118  0.4522 -0.4304 -0.4426
14312SOL    HW154660   7.942   0.172  11.175  1.5006  0.9221  2.0107
14312SOL    HW254661   8.045   0.152  11.065 -0.0158 -1.9176  0.9917
14313SOL     OW54662   7.176   9.726   6.820  0.2393  0.0087  0.2415
14313SOL    HW154663   7.120   9.714   6.743  2.1154 -1.9616 -0.9143
14313SOL    HW254664   7.138   9.667   6.886 -1.2762  1.5837  0.8760
14314SOL     OW54665   4.593   3.493   2.758  0.0693 -1.0392  0.5800
14314SOL    HW154666   4.606   3.496   2.663 -1.0878 -1.8521  0.3720
14314SOL    HW254667   4.675   3.456   2.792  0.5164 -0.6781 -0.0928
14315SOL     OW54668   5.768   2.417   8.689 -0.0335 -0.3422 -0.2296
14315SOL    HW154669   5.823   2.379   8.620 -0.4442 -2.0068  0.3031
14315SOL    HW254670   5.813   2.395   8.770 -0.0759  0.7248  0.0977
14316SOL     OW54671   4.908  10.644   3.367  0.6483  0.1533  0.1583
14316SOL    HW154672   4.918  10.567   3.424  2.7416 -0.7068 -1.2190
14316SOL    HW254673   4.818  10.639   3.336  0.6106 -1.5229  0.4320
14317SOL     OW54674   9.496   5.154   9.218 -0.0539  0.6085  0.0173
14317SOL    HW154675   9.479   5.157   9.312 -1.7295 -2.6837 -0.0416
14317SOL    HW254676   9.567   5.091   9.209  1.3295  2.2209 -0.8908
14318SOL     OW54677   0.090   3.971  11.618 -0.6744 -0.2661  0.5357
14318SOL    HW154678   0.100   4.065  11.632  0.9988 -0.4256  0.5818
14318SOL    HW254679   0.076   3.962  11.523 -0.6958  0.0204  0.5117
14319SOL     OW54680  11.777   6.841   7.296 -0.0222 -0.1512  0.4189
14319SOL    HW154681  11.682   6.840   7.290  0.0397  1.3624 -2.4532
14319SOL    HW254682  11.807   6.804   7.214  1.8456  0.5469  0.7300
14320SOL     OW54683   7.349   5.703   1.032  0.3166  0.4474  0.0203
14320SOL    HW154684   7.364   5.615   0.996 -0.5013  0.9019 -1.5084
14320SOL    HW254685   7.304   5.687   1.115 -1.0525 -0.5549 -0.8813
14321SOL     OW54686   2.322   9.384   8.994 -0.0393  0.2275 -0.4794
14321SOL    HW154687   2.280   9.437   8.926  1.0896  2.7990  0.6880
14321SOL    HW254688   2.408   9.362   8.958 -0.2367 -0.2424 -0.6782
14322SOL     OW54689   2.018   0.501   4.780 -0.3978 -0.4048 -0.3514
14322SOL    HW154690   1.939   0.555   4.790 -0.5156 -0.4627 -0.9015
14322SOL    HW254691   2.010   0.465   4.691  0.6131  0.1856 -0.6916
14323SOL     OW54692   5.788   8.070   8.445 -0.7420 -0.1551  0.5860
14323SOL    HW154693   5.828   8.113   8.369 -2.3599  0.8095  0.2235
14323SOL    HW254694   5.743   8.141   8.492 -1.3684 -1.0491  1.3727
14324SOL     OW54695   1.482   3.674  10.737 -0.0334 -0.1640  0.6918
14324SOL    HW154696   1.444   3.761  10.744 -0.0928 -0.1718  0.4822
14324SOL    HW254697   1.424   3.618  10.789  0.7430  0.1446  1.9143
14325SOL     OW54698   9.055   1.685   1.627 -0.1646 -0.1509  0.1849
14325SOL    HW154699   9.062   1.770   1.669 -1.3123 -0.0086  0.1283
14325SOL    HW254700   9.086   1.623   1.692 -0.7122  0.1874  0.7763
14326SOL     OW54701   8.690   6.390   6.585  0.4242 -0.2214 -0.6910
14326SOL    HW154702   8.604   6.415   6.621  0.6961  1.9115 -1.4161
14326SOL    HW254703   8.749   6.392   6.661 -0.2534 -2.6265  0.0078
14327SOL     OW54704  10.554   1.392   5.165 -0.0245  0.1062 -0.0114
14327SOL    HW154705  10.514   1.468   5.123  1.4331  1.1676  0.4494
14327SOL    HW254706  10.648   1.404   5.153  0.2289 -1.8138 -0.2073
14328SOL     OW54707   1.292   7.023   5.310  0.0694 -0.5485 -0.2928
14328SOL    HW154708   1.311   6.989   5.398 -1.4678  2.3243  1.2935
14328SOL    HW254709   1.368   7.078   5.290  1.0998 -2.3178 -1.4874
14329SOL     OW54710   8.163  11.105   7.416 -0.4224 -0.0234 -1.0569
14329SOL    HW154711   8.157  11.017   7.380  0.0394 -0.0598 -1.0441
14329SOL    HW254712   8.115  11.100   7.499  0.6883 -0.5973 -0.4310
14330SOL     OW54713   7.657   5.344   5.530  0.4210  0.2156  0.2481
14330SOL    HW154714   7.650   5.327   5.624  1.0445 -0.0729  0.2538
14330SOL    HW254715   7.617   5.267   5.489  3.4101 -1.5400  0.2722
14331SOL     OW54716   4.354   3.553  10.872  1.4299 -0.5834 -0.0434
14331SOL    HW154717   4.289   3.615  10.838 -0.1914 -1.4658  1.2910
14331SOL    HW254718   4.393   3.514  10.794 -0.2457 -0.6049 -0.9224
14332SOL     OW54719   9.701   8.496   2.520  0.2663 -0.1710  0.0715
14332SOL    HW154720   9.789   8.464   2.540  1.7693  3.0220 -0.7458
14332SOL    HW254721   9.678   8.452   2.438  1.9851  0.3593 -0.7361
14333SOL     OW54722   3.921   7.781   0.643 -0.4129  0.3748 -0.0905
14333SOL    HW154723   3.832   7.775   0.677 -0.6060  2.5355 -0.0786
14333SOL    HW254724   3.941   7.875   0.645  1.3506  0.0745 -1.4242
14334SOL     OW54725   5.604   1.570   0.872 -0.2004  0.1927 -0.5049
14334SOL    HW154726   5.539   1.502   0.892 -1.0451  1.5717  1.7595
14334SOL    HW254727   5.685   1.537   0.911 -0.0297 -0.5516 -1.4569
14335SOL     OW54728   7.474   8.796   3.035 -0.5436 -0.0823  0.1809
14335SOL    HW154729   7.492   8.702   3.033  1.1281  0.2102 -0.3675
14335SOL    HW254730   7.427   8.813   2.954  0.6753 -0.2010 -0.5771
14336SOL     OW54731   3.971  10.079   4.490 -1.0381 -0.5670 -0.3555
14336SOL    HW154732   3.891  10.113   4.531 -1.2535 -1.5375  0.0579
14336SOL    HW254733   3.971  10.116   4.402 -1.5157  0.1022 -0.0782
14337SOL     OW54734   6.145   9.634  11.167 -0.2768 -0.3306 -0.3022
14337SOL    HW154735   6.233   9.655  11.135  0.1601  0.7838  1.4445
14337SOL    HW254736   6.159   9.563  11.230 -0.4409  0.5434  0.7593
14338SOL     OW54737   9.272  11.953   2.285  0.2053  0.4128  0.4388
14338SOL    HW154738   9.178  11.937   2.297  0.5579 -1.1829  1.3900
14338SOL    HW254739   9.284  12.045   2.311 -0.9358  0.3317  1.3684
14339SOL     OW54740   8.041   9.645   2.697 -0.1082  0.0120 -0.3103
14339SOL    HW154741   8.073   9.625   2.609  0.8109  2.2652 -0.5574
14339SOL    HW254742   7.966   9.586   2.710  1.9036 -2.9240 -1.1216
14340SOL     OW54743   3.733   6.749   0.625 -0.1430 -0.0337  0.3617
14340SOL    HW154744   3.827   6.754   0.644  0.2063 -0.6254 -1.0782
14340SOL    HW254745   3.692   6.737   0.711  1.2215 -1.1840  0.9022
14341SOL     OW54746   4.949   6.215  11.036 -0.0425  0.3224 -0.2944
14341SOL    HW154747   4.899   6.284  10.994  0.8436  1.0796 -0.1236
14341SOL    HW254748   4.996   6.258  11.107 -0.6481 -0.7296  0.8044
14342SOL     OW54749   7.837   2.480  11.375  0.1628 -0.4149 -0.2729
14342SOL    HW154750   7.771   2.499  11.308 -0.3751  0.7070  0.5391
14342SOL    HW254751   7.915   2.526  11.346  0.5888 -1.6576 -1.1829
14343SOL     OW54752   8.725   1.124   7.103 -0.4088  0.1321  0.4095
14343SOL    HW154753   8.691   1.202   7.059  0.2553 -0.0265 -0.4209
14343SOL    HW254754   8.805   1.103   7.054 -0.9056 -1.4230  0.2296
14344SOL     OW54755   0.323   5.241   5.349  0.0611 -0.4633  0.9015
14344SOL    HW154756   0.300   5.321   5.396  1.3049  1.0571 -0.9245
14344SOL    HW254757   0.275   5.247   5.266  0.0821 -1.6808  0.7890
14345SOL     OW54758   7.166  10.842   0.661 -0.2497 -0.5439 -0.3101
14345SOL    HW154759   7.146  10.916   0.718 -1.6367 -1.1626  0.0579
14345SOL    HW254760   7.251  10.863   0.623 -0.8193  1.4303 -0.5755
14346SOL     OW54761  10.691   5.006   9.307 -0.2225  0.0220  0.7569
14346SOL    HW154762  10.755   5.010   9.377 -0.8195  0.3480  1.2944
14346SOL    HW254763  10.620   4.952   9.342  0.5136 -1.8356 -0.4726
14347SOL     OW54764   1.588   4.360   3.738 -0.0009  0.4086 -0.1312
14347SOL    HW154765   1.572   4.269   3.760 -0.6495  0.9540  1.8157
14347SOL    HW254766   1.684   4.368   3.736  0.0578 -0.3211 -0.4093
14348SOL     OW54767   7.397   9.093   4.943  0.3508 -0.3421  0.0553
14348SOL    HW154768   7.369   9.115   4.854 -0.0711 -4.4787 -1.0707
14348SOL    HW254769   7.473   9.035   4.931  0.1657 -1.1780  2.3392
14349SOL     OW54770   7.176   4.392   6.021 -0.3524 -0.4267  0.1379
14349SOL    HW154771   7.110   4.326   6.001  0.9268 -1.2896 -1.5327
14349SOL    HW254772   7.202   4.427   5.935 -0.5570  1.8643  0.9222
14350SOL     OW54773   8.566   6.590   4.581 -0.1446  0.0553 -0.1200
14350SOL    HW154774   8.542   6.631   4.664 -1.2512 -0.4499 -0.1724
14350SOL    HW254775   8.488   6.599   4.527 -0.2187 -1.5839 -0.3289
14351SOL     OW54776   3.302   2.488   8.776  0.1824  0.5577 -0.4624
14351SOL    HW154777   3.299   2.428   8.702 -0.7396 -1.8893  1.4204
14351SOL    HW254778   3.395   2.504   8.791  0.5252 -1.3020 -0.3985
14352SOL     OW54779   7.029  10.888   2.282 -0.1349  0.2839 -0.8297
14352SOL    HW154780   7.059  10.974   2.312 -0.8072  0.5472 -0.8967
14352SOL    HW254781   7.069  10.827   2.344  0.3913  0.6347 -0.8089
14353SOL     OW54782   2.578  10.157   3.661 -0.1399 -0.3115 -0.1097
14353SOL    HW154783   2.616  10.245   3.652  0.3166 -0.4354  0.5589
14353SOL    HW254784   2.494  10.163   3.616 -0.9670  1.0027  1.4991
14354SOL     OW54785   8.531   2.191   6.145  0.3061  0.3725 -0.0486
14354SOL    HW154786   8.543   2.117   6.205 -0.0039  0.4163  0.0696
14354SOL    HW254787   8.545   2.153   6.058  0.2818  0.2050  0.0205
14355SOL     OW54788  11.869   4.146   6.987 -0.0007  0.1209  0.3730
14355SOL    HW154789  11.931   4.164   6.917 -1.4996  1.3799 -0.6862
14355SOL    HW254790  11.924   4.133   7.065  1.6096  0.1367 -0.7194
14356SOL     OW54791   2.236  11.064   2.469 -0.0505 -0.3943  0.1713
14356SOL    HW154792   2.232  10.970   2.454 -0.3922 -0.2473 -0.7451
14356SOL    HW254793   2.145  11.093   2.462 -0.2456 -0.2683  2.4760
14357SOL     OW54794   4.539   8.457   3.086 -0.7891  0.0963  0.3245
14357SOL    HW154795   4.448   8.454   3.057 -0.7625  0.4304  0.1968
14357SOL    HW254796   4.536   8.438   3.179 -1.0025  0.2136  0.3424
14358SOL     OW54797   9.262  11.151   6.345 -0.1749  0.1998  0.0033
14358SOL    HW154798   9.173  11.122   6.327 -0.3087 -0.2295  1.2680
14358SOL    HW254799   9.278  11.220   6.281 -1.7815  0.9633  0.3673
14359SOL     OW54800   0.271   4.523   7.038 -0.2219 -0.2498  0.4974
14359SOL    HW154801   0.252   4.557   7.126 -0.1952  1.2982 -0.0680
14359SOL    HW254802   0.191   4.478   7.012 -0.8517  0.7664  0.6435
14360SOL     OW54803   8.181   2.390  11.602  0.1422  0.2645 -0.8020
14360SOL    HW154804   8.147   2.326  11.539 -1.5682  0.0668  0.2758
14360SOL    HW254805   8.209   2.464  11.548 -0.7943 -0.1077 -1.8336
14361SOL     OW54806   1.101   3.217   4.626  0.2290  0.5325 -0.3309
14361SOL    HW154807   1.186   3.261   4.618  0.0954  1.4621  2.2233
14361SOL    HW254808   1.083   3.183   4.539  3.4452 -0.1015 -0.8924
14362SOL     OW54809  11.886   4.655   1.240  0.4772 -0.4331 -0.2756
14362SOL    HW154810  11.973   4.621   1.263  0.8790 -1.7644 -3.2436
14362SOL    HW254811  11.825   4.602   1.291  1.3369 -0.5808  0.6299
14363SOL     OW54812   7.952   5.172   4.987 -0.1376  0.1047 -0.0732
14363SOL    HW154813   8.013   5.102   5.010 -1.0915 -1.0368 -0.8656
14363SOL    HW254814   7.899   5.184   5.066  0.4165  0.3444  0.2618
14364SOL     OW54815   3.949   0.111   7.317  0.1169 -0.2742  0.4456
14364SOL    HW154816   3.903   0.194   7.301  1.1649 -0.0629 -1.8939
14364SOL    HW254817   3.883   0.054   7.357 -0.8191  1.4530  1.4702
14365SOL     OW54818   1.924   0.466   5.204 -0.0161  0.3067  0.5887
14365SOL    HW154819   1.884   0.388   5.166 -0.2091  0.0279  1.3562
14365SOL    HW254820   1.913   0.533   5.136 -2.5061  0.4746  1.0406
14366SOL     OW54821   2.351   4.924   0.805  0.5593 -0.8060  0.1684
14366SOL    HW154822   2.331   4.831   0.798  0.9664 -0.9312  0.6521
14366SOL    HW254823   2.424   4.937   0.744 -0.0959 -0.6157 -0.5875
14367SOL     OW54824   2.116   4.812   6.009 -0.5993  0.4658  0.0171
14367SOL    HW154825   2.073   4.848   5.932 -2.6983 -1.1147  0.3661
14367SOL    HW254826   2.172   4.742   5.976 -0.7220  0.4529 -0.1613
14368SOL     OW54827   4.169   4.638   1.690 -0.3170 -0.0336  0.1939
14368SOL    HW154828   4.259   4.608   1.700 -0.4761 -0.0586  1.7991
14368SOL    HW254829   4.136   4.591   1.614  0.6449 -0.9867  0.3494
14369SOL     OW54830   7.162   1.880   0.456  0.3112  0.1898 -0.0813
14369SOL    HW154831   7.184   1.821   0.384 -0.3938  1.1578 -1.1190
14369SOL    HW254832   7.224   1.952   0.447  0.8104 -0.0998  0.8522
14370SOL     OW54833   7.542   2.108   2.048 -0.5562  0.4616  0.6071
14370SOL    HW154834   7.609   2.109   2.117  0.4823 -2.3856 -0.1926
14370SOL    HW254835   7.592   2.097   1.967 -1.8850 -3.0701  0.0796
14371SOL     OW54836  11.230   2.681   2.632 -0.5689 -0.4723  0.1989
14371SOL    HW154837  11.142   2.703   2.602 -0.4678  0.0020  0.2296
14371SOL    HW254838  11.273   2.643   2.556 -0.4626  0.2974 -0.1340
14372SOL     OW54839   2.331   4.641   6.314  0.0690 -0.3409  0.6310
14372SOL    HW154840   2.332   4.546   6.307 -1.6602 -0.4004  0.7822
14372SOL    HW254841   2.416   4.669   6.278  1.2151 -1.9874  1.9273
14373SOL     OW54842   9.439   4.296   7.615  0.2131 -0.0094  0.5129
14373SOL    HW154843   9.528   4.318   7.644 -0.1784  0.4986  1.3871
14373SOL    HW254844   9.394   4.381   7.610  0.2748 -0.0511 -1.7523
14374SOL     OW54845   3.609  11.372   1.050 -0.3453  0.3180 -0.0327
14374SOL    HW154846   3.572  11.283   1.048  0.2845  0.0387  0.3216
14374SOL    HW254847   3.660  11.374   1.131 -1.3501  1.4222  0.6052
14375SOL     OW54848   6.581   4.483   0.209 -1.0147 -0.1627  0.0287
14375SOL    HW154849   6.537   4.552   0.259  1.0269  0.7640  0.6169
14375SOL    HW254850   6.674   4.498   0.222 -0.4080 -3.8862  1.3937
14376SOL     OW54851   0.585   1.068   2.627  0.2766  0.1340 -0.2574
14376SOL    HW154852   0.579   1.152   2.672 -1.7638 -0.8843  1.5341
14376SOL    HW254853   0.676   1.040   2.641  1.7234  2.9455 -2.8491
14377SOL     OW54854   0.629   1.596  11.037 -0.3920 -0.3629 -0.3483
14377SOL    HW154855   0.631   1.634  11.124  0.7467  0.4998 -0.7349
14377SOL    HW254856   0.555   1.535  11.039 -1.2680  0.6884  0.7769
14378SOL     OW54857   2.312  10.563   2.750  0.2743  0.2199  0.1384
14378SOL    HW154858   2.351  10.642   2.712  0.9922  0.1608  0.7144
14378SOL    HW254859   2.218  10.580   2.752  0.2685  0.4367 -1.1488
14379SOL     OW54860   4.378   9.514   9.018 -0.2835  0.4170  0.3431
14379SOL    HW154861   4.347   9.597   9.055  0.3103  0.4305  0.8189
14379SOL    HW254862   4.346   9.515   8.928  1.2707  2.0058 -0.2383
14380SOL     OW54863   2.789   3.501   5.259 -0.6244  0.4662 -0.0303
14380SOL    HW154864   2.813   3.410   5.245 -0.0983  0.9074 -2.5073
14380SOL    HW254865   2.766   3.533   5.172  0.3670  3.0135  0.5581
14381SOL     OW54866   4.408   1.378   5.655  0.7739  0.0381 -0.2214
14381SOL    HW154867   4.439   1.312   5.718 -0.9526 -1.3383 -0.7461
14381SOL    HW254868   4.486   1.404   5.607  1.6829 -0.7717  0.7719
14382SOL     OW54869   2.424   5.246   9.921 -1.1775 -0.1625  0.3607
14382SOL    HW154870   2.374   5.317   9.962  1.1474  1.3574  0.7777
14382SOL    HW254871   2.480   5.213   9.991  0.6611  0.3811 -0.7896
14383SOL     OW54872   3.938   5.510   4.212 -0.1882  0.1563 -0.3628
14383SOL    HW154873   3.999   5.581   4.191  1.0892 -1.0218 -0.8005
14383SOL    HW254874   3.853   5.541   4.182  0.3552  1.4644 -0.6160
14384SOL     OW54875   3.929   1.971   1.087  0.4565  0.5791  0.0248
14384SOL    HW154876   3.919   2.044   1.026 -0.3067  2.2037  1.9832
14384SOL    HW254877   3.862   1.986   1.153  1.3154 -1.0440  1.3342
14385SOL     OW54878   4.630   5.376   7.941 -0.0403 -0.1626 -0.4787
14385SOL    HW154879   4.709   5.419   7.910  0.0657  2.1598  2.5984
14385SOL    HW254880   4.659   5.289   7.970  0.8973 -0.1770 -1.4300
14386SOL     OW54881   1.489   2.703   5.091 -0.2551  0.0421  0.0180
14386SOL    HW154882   1.498   2.775   5.029 -2.6366  1.5916  1.3112
14386SOL    HW254883   1.495   2.624   5.037  0.7005  1.2170 -1.6914
14387SOL     OW54884   4.799   2.343  11.428  0.0614  0.1040 -0.2761
14387SOL    HW154885   4.803   2.265  11.483  0.7447  1.1620  1.2395
14387SOL    HW254886   4.782   2.414  11.489 -1.8151  1.0372 -1.7599
14388SOL     OW54887   7.654   0.937   3.625  0.4605  0.3593 -0.1978
14388SOL    HW154888   7.687   1.010   3.677  0.4057 -0.4383  1.0043
14388SOL    HW254889   7.710   0.936   3.547  2.7873 -0.4220  1.3759
14389SOL     OW54890   8.780   1.691   6.305  0.5477  0.3890 -0.3610
14389SOL    HW154891   8.716   1.629   6.338  0.4422  0.2129 -0.8852
14389SOL    HW254892   8.746   1.777   6.330  1.1180  0.2071  1.1044
14390SOL     OW54893   8.731   8.438  10.749 -0.3633 -0.2449 -0.1982
14390SOL    HW154894   8.804   8.493  10.720 -0.5302 -0.6780 -1.5431
14390SOL    HW254895   8.660   8.500  10.767 -0.2061  0.0683 -0.6328
14391SOL     OW54896   2.931   7.740   6.204 -0.2138 -0.0591 -0.1055
14391SOL    HW154897   2.921   7.732   6.299  0.3623 -1.7474 -0.1616
14391SOL    HW254898   2.867   7.807   6.179 -1.5962 -0.8162  1.2556
14392SOL     OW54899  11.453   6.759  10.398 -0.5727  0.2892 -0.1435
14392SOL    HW154900  11.415   6.843  10.372 -0.3627  1.9195  4.0730
14392SOL    HW254901  11.378   6.706  10.425 -0.4255  0.8888  1.5234
14393SOL     OW54902   6.798  11.146  11.554 -0.4554  0.1730  0.7888
14393SOL    HW154903   6.884  11.118  11.585  0.1619  1.1787  0.0259
14393SOL    HW254904   6.741  11.136  11.631 -0.4318 -3.4807  0.5168
14394SOL     OW54905  11.265   1.416   8.835 -0.1037  0.2892 -0.4422
14394SOL    HW154906  11.239   1.491   8.889  1.7790  1.1356 -0.6381
14394SOL    HW254907  11.187   1.359   8.834 -1.8812  2.5752 -0.9566
14395SOL     OW54908   4.544   2.067   2.614 -0.1374 -0.0307  0.3166
14395SOL    HW154909   4.608   2.034   2.677 -1.4822 -0.9626  1.2665
14395SOL    HW254910   4.596   2.101   2.542  1.4362 -3.3252 -0.2829
14396SOL     OW54911   5.758   3.883   5.797  0.1761 -0.4883 -0.2685
14396SOL    HW154912   5.679   3.937   5.791  0.7712  0.6109  1.1631
14396SOL    HW254913   5.725   3.794   5.811 -0.8291  0.0543  1.0062
14397SOL     OW54914   1.170   6.574  10.791  0.4762 -0.1767 -0.0415
14397SOL    HW154915   1.214   6.625  10.723  0.7435  0.8659  0.8990
14397SOL    HW254916   1.123   6.638  10.843  2.2406 -0.6055  2.2560
14398SOL     OW54917   7.868  11.616   4.281 -0.4527  0.3748  0.5067
14398SOL    HW154918   7.872  11.521   4.282 -0.6388  0.3550 -0.1543
14398SOL    HW254919   7.774  11.636   4.275 -0.5906  0.6391  2.6504
14399SOL     OW54920   3.039   2.852   5.811 -0.0592  0.4232  0.7980
14399SOL    HW154921   3.005   2.763   5.801 -0.5703  0.6297  0.6791
14399SOL    HW254922   3.024   2.893   5.726  1.4241  0.2087  0.4037
14400SOL     OW54923   7.870   0.035   6.887  0.1175  0.2485  0.5056
14400SOL    HW154924   7.811  -0.034   6.918 -1.2762  1.9495  1.8493
14400SOL    HW254925   7.905   0.000   6.806 -1.3783 -1.5902  0.5463
14401SOL     OW54926   9.839   3.878   8.382 -0.6547 -0.2976  0.5826
14401SOL    HW154927   9.914   3.829   8.346 -1.9790 -1.3138 -0.9640
14401SOL    HW254928   9.807   3.824   8.454 -0.8524 -0.6707  0.2178
14402SOL     OW54929   9.561   9.235   8.199  0.0480  0.9739  0.1385
14402SOL    HW154930   9.556   9.196   8.111  0.7565 -1.9785  1.3098
14402SOL    HW254931   9.651   9.268   8.205  0.7766 -1.0018  0.5631
14403SOL     OW54932   7.945   0.564   5.926 -0.3382  0.1271  0.0941
14403SOL    HW154933   7.980   0.516   6.002 -0.3541  1.9659  1.3317
14403SOL    HW254934   8.019   0.617   5.896  0.1449 -1.6973 -2.2273
14404SOL     OW54935   6.917   8.990  11.768 -0.5353  0.0594 -0.0590
14404SOL    HW154936   6.905   8.915  11.826  2.1270 -0.1036  0.4160
14404SOL    HW254937   6.930   8.952  11.681  0.0049  0.0107  0.0411
14405SOL     OW54938   7.850   1.506   5.509  0.6163 -0.0926  0.0347
14405SOL    HW154939   7.764   1.498   5.467  1.0818 -0.4193 -0.8560
14405SOL    HW254940   7.862   1.424   5.556 -0.0947  0.4406  1.2151
14406SOL     OW54941   5.290   9.136   3.124  0.5607  0.5737  0.0442
14406SOL    HW154942   5.291   9.041   3.135  0.0473  0.7552  2.1976
14406SOL    HW254943   5.222   9.166   3.186  2.2825  2.4820  1.1206
14407SOL     OW54944   2.656   7.179   2.172 -0.5931 -0.3771 -0.0479
14407SOL    HW154945   2.589   7.218   2.227 -0.3369 -1.2057  0.8737
14407SOL    HW254946   2.637   7.213   2.084 -1.3072  0.5613  0.4483
14408SOL     OW54947   5.265   6.936   9.236 -0.4830 -0.1913  0.6516
14408SOL    HW154948   5.325   7.008   9.222 -0.0743 -0.8881 -1.7510
14408SOL    HW254949   5.312   6.875   9.292 -0.7479  1.2542  2.5123
14409SOL     OW54950   6.312   5.903   2.070  0.0529 -0.0693 -0.4264
14409SOL    HW154951   6.376   5.835   2.091 -0.3900 -0.5297 -0.5625
14409SOL    HW254952   6.229   5.870   2.104  0.1498  1.2307  1.1992
14410SOL     OW54953   8.579  11.411   4.005  0.4695 -0.6687  0.2776
14410SOL    HW154954   8.498  11.374   4.041  0.9645 -1.0540  1.0006
14410SOL    HW254955   8.624  11.449   4.080  0.6640  0.1292 -0.2266
14411SOL     OW54956   0.304   2.278   1.560 -0.4341  0.1859  0.1931
14411SOL    HW154957   0.231   2.255   1.502  0.4599 -1.4814 -0.3380
14411SOL    HW254958   0.370   2.211   1.542 -0.3960 -0.8905  3.6966
14412SOL     OW54959  10.823   7.372   8.127  0.4636  0.4441  0.4900
14412SOL    HW154960  10.805   7.466   8.125  2.1401  0.7951  0.5393
14412SOL    HW254961  10.846   7.351   8.036  0.1304  0.0869  0.4885
14413SOL     OW54962   5.473  10.148   9.685  0.5952  0.2551 -0.3079
14413SOL    HW154963   5.448  10.066   9.728  2.5346  0.2048  0.8686
14413SOL    HW254964   5.476  10.212   9.756  2.2277  0.5676 -0.6063
14414SOL     OW54965   6.756   0.750   5.112 -0.1058  0.1384 -0.2890
14414SOL    HW154966   6.827   0.774   5.172 -2.6920  2.1609  2.2543
14414SOL    HW254967   6.705   0.830   5.102 -2.1893 -1.2749 -1.8046
14415SOL     OW54968   3.135   2.748  11.514 -0.5771 -0.4661  0.4305
14415SOL    HW154969   3.167   2.699  11.439  0.6661 -0.4972  0.9592
14415SOL    HW254970   3.142   2.687  11.587 -1.5264 -0.3494  0.6378
14416SOL     OW54971   9.896  10.224   5.785 -0.1131  0.0367  0.5266
14416SOL    HW154972   9.932  10.168   5.853  0.3885 -0.3575 -0.0523
14416SOL    HW254973   9.942  10.198   5.705 -0.5653  0.6082  0.0665
14417SOL     OW54974   6.972   8.944   5.422  0.7151  0.3789 -0.3599
14417SOL    HW154975   6.935   8.923   5.508  2.9998 -1.8353  0.2172
14417SOL    HW254976   6.915   8.899   5.360  1.3539 -1.5146  0.3609
14418SOL     OW54977   7.249   5.273   8.466  0.0326  0.1354  0.0178
14418SOL    HW154978   7.293   5.345   8.420  1.4819  0.2916  1.5481
14418SOL    HW254979   7.196   5.318   8.533 -0.2183 -0.1755  0.0273
14419SOL     OW54980   4.984   7.720   7.329  0.3877 -0.8122  0.3409
14419SOL    HW154981   5.058   7.772   7.360  0.1898  1.1182 -2.1323
14419SOL    HW254982   4.914   7.739   7.391  0.3209  2.0247 -0.4447
14420SOL     OW54983   9.973  11.956   6.208 -0.2184 -0.4049  0.0266
14420SOL    HW154984   9.944  12.025   6.148  0.5555  0.5325  0.7116
14420SOL    HW254985   9.975  11.877   6.154  0.2196  0.3706 -1.1202
14421SOL     OW54986  10.419   7.301   7.716  0.0241 -0.3442  0.3134
14421SOL    HW154987  10.404   7.207   7.725 -0.0377 -0.3417  0.2345
14421SOL    HW254988  10.333   7.341   7.728  0.2265 -0.2222  1.4010
14422SOL     OW54989  11.166   5.968  10.045  0.6767  0.2619 -0.2177
14422SOL    HW154990  11.158   6.048  10.098  1.6662 -0.0736  0.4797
14422SOL    HW254991  11.247   5.981   9.995 -0.5151  0.7930 -2.0782
14423SOL     OW54992   3.784   7.951  10.841  0.0781 -0.2730  0.5337
14423SOL    HW154993   3.777   7.856  10.830 -0.7394 -0.2887  1.0834
14423SOL    HW254994   3.693   7.982  10.838  0.4081  0.6961 -1.2378
14424SOL     OW54995   3.371   6.992   5.338 -0.1910  0.2540  0.3376
14424SOL    HW154996   3.451   6.985   5.286 -0.0078 -0.5058  0.7025
14424SOL    HW254997   3.321   7.062   5.296 -0.9603 -1.6187 -2.1443
14425SOL     OW54998  10.028   3.474   3.909  0.2339 -0.0391 -0.3966
14425SOL    HW154999   9.985   3.407   3.856  0.1739  0.5411 -1.0926
14425SOL    HW255000  10.104   3.500   3.857 -0.7129  1.6953 -0.9830
14426SOL     OW55001   5.987   4.260   8.566 -0.2276  0.3334 -0.8449
14426SOL    HW155002   5.894   4.258   8.588  0.1857  1.6847  1.2824
14426SOL    HW255003   6.009   4.170   8.542 -1.1904 -1.0307  2.7844
14427SOL     OW55004   6.822   9.900   3.016  0.3497 -0.3678 -0.0878
14427SOL    HW155005   6.835   9.812   3.052 -0.9673  0.1362  1.7464
14427SOL    HW255006   6.830   9.888   2.921  2.5618 -2.0033  0.2121
14428SOL     OW55007  10.116   4.384   2.357  0.1712  0.1860  0.0646
14428SOL    HW155008  10.022   4.367   2.362  0.0909  0.7194  0.3701
14428SOL    HW255009  10.155   4.297   2.361 -0.2639  0.0124  1.1716
14429SOL     OW55010   8.464   7.008   2.545  0.3418  0.1504  0.4439
14429SOL    HW155011   8.473   6.913   2.538 -0.8743 -0.0021  0.5821
14429SOL    HW255012   8.553   7.041   2.539  0.6113 -0.7742 -2.9654
14430SOL     OW55013   7.990   0.723   6.754 -0.1631  0.2094 -0.1408
14430SOL    HW155014   8.066   0.774   6.727  0.0704  0.0297  0.1596
14430SOL    HW255015   8.027   0.647   6.799 -0.4420 -1.1121 -2.0316
14431SOL     OW55016   1.926  10.873   0.115  0.1943 -0.5634  0.3841
14431SOL    HW155017   1.959  10.799   0.066  1.2268  0.4242 -0.4729
14431SOL    HW255018   1.952  10.950   0.064  1.3872  0.5234  2.4775
14432SOL     OW55019   2.059   8.633   9.524  0.2574 -0.4468  0.3792
14432SOL    HW155020   2.000   8.578   9.473 -0.7696  0.4387  0.5803
14432SOL    HW255021   2.101   8.689   9.459  0.6465 -0.8560  0.2723
14433SOL     OW55022   4.244   3.513  11.484 -0.3419 -0.2109  0.1218
14433SOL    HW155023   4.267   3.464  11.405 -0.7296 -1.0979  0.5526
14433SOL    HW255024   4.157   3.481  11.508 -0.4569  0.4500  0.6020
14434SOL     OW55025   1.524   8.949  11.234 -0.1498  0.3228  0.4378
14434SOL    HW155026   1.541   8.887  11.163  3.2150  2.1269 -0.5645
14434SOL    HW255027   1.495   8.894  11.308 -0.3703 -2.0046 -1.2772
14435SOL     OW55028   6.554   4.980   6.953 -0.3098  1.0344 -0.7426
14435SOL    HW155029   6.542   4.916   7.022 -1.6558  1.3566 -0.6472
14435SOL    HW255030   6.489   4.957   6.887  0.3591  1.2674 -1.5016
14436SOL     OW55031  10.527   3.957   7.771  0.2343  0.6563  0.1695
14436SOL    HW155032  10.614   3.918   7.780 -0.1968 -0.2526  0.6130
14436SOL    HW255033  10.472   3.907   7.831 -0.8073  0.5250 -0.8393
14437SOL     OW55034   0.741   7.719  10.346  0.3590 -0.0242 -0.1538
14437SOL    HW155035   0.737   7.629  10.377  0.8051 -0.8107 -2.1976
14437SOL    HW255036   0.664   7.761  10.385 -0.0464 -1.3609  0.5707
14438SOL     OW55037   1.106   3.138   0.545 -0.1692  0.1551  0.0763
14438SOL    HW155038   1.103   3.046   0.521  1.0369 -0.2974  1.5446
14438SOL    HW255039   1.029   3.152   0.600  2.0550 -1.2410  3.8484
14439SOL     OW55040  10.649  10.165  10.569  0.5887 -0.4550 -0.1435
14439SOL    HW155041  10.720  10.138  10.627  3.0906  1.3971 -2.1071
14439SOL    HW255042  10.633  10.257  10.592 -0.9010 -0.7219 -0.0360
14440SOL     OW55043   4.103   9.943   7.874  0.3514  0.2731  0.6536
14440SOL    HW155044   4.128   9.860   7.833 -0.2567 -0.0240  0.8792
14440SOL    HW255045   4.103  10.007   7.802  1.5144  0.2460  0.5962
14441SOL     OW55046   0.980   5.614  11.533 -0.1847  0.4233  0.1578
14441SOL    HW155047   0.906   5.675  11.531 -0.4420  0.1296  0.5116
14441SOL    HW255048   0.982   5.582  11.624  1.0869  1.2932  0.4537
14442SOL     OW55049   3.308   8.254   0.839  0.3566 -0.1158 -0.0097
14442SOL    HW155050   3.324   8.186   0.904  0.3635 -1.7832 -1.6523
14442SOL    HW255051   3.216   8.243   0.815  0.3276  0.5334 -0.2153
14443SOL     OW55052   7.707   0.744   1.412 -0.8467 -0.7901  0.0049
14443SOL    HW155053   7.726   0.835   1.437 -0.5924 -1.0614  0.8420
14443SOL    HW255054   7.626   0.750   1.361 -0.2835  0.0190 -0.8504
14444SOL     OW55055   2.818   4.125   8.224  0.5150  0.0736  0.0184
14444SOL    HW155056   2.862   4.044   8.250 -0.1126  0.3181  2.0668
14444SOL    HW255057   2.786   4.163   8.307 -1.3048  1.1902 -1.1074
14445SOL     OW55058   7.017  10.550  10.663 -0.1006  0.3638 -0.0208
14445SOL    HW155059   6.951  10.582  10.601  0.5328 -1.6667 -1.8744
14445SOL    HW255060   6.973  10.478  10.709  0.7230 -0.9582 -1.2200
14446SOL     OW55061  11.269  10.163   9.913 -0.2117 -0.3046 -0.1394
14446SOL    HW155062  11.312  10.229   9.859  0.8149  0.4609  1.5048
14446SOL    HW255063  11.209  10.213   9.969 -1.0672 -1.0401 -0.3807
14447SOL     OW55064   2.665   7.328   9.568  0.5106  0.1045  0.3437
14447SOL    HW155065   2.730   7.285   9.512 -0.5372  0.4815 -1.2116
14447SOL    HW255066   2.704   7.413   9.588  2.0819 -1.0045  2.4984
14448SOL     OW55067   8.395   5.993   9.809 -0.0882  0.2406 -0.6608
14448SOL    HW155068   8.340   5.915   9.798  1.1776 -0.6254 -1.1769
14448SOL    HW255069   8.478   5.969   9.767 -0.0073  2.2685 -1.7716
14449SOL     OW55070   4.314   2.133   2.237  0.5591 -0.4686 -0.2026
14449SOL    HW155071   4.343   2.122   2.147  2.4078  0.3642  0.2564
14449SOL    HW255072   4.332   2.049   2.279 -0.4147 -0.8965 -0.6041
14450SOL     OW55073   3.195   5.646  10.250 -0.7843  0.2103 -0.0793
14450SOL    HW155074   3.178   5.733  10.213 -1.3059  0.4488  0.7041
14450SOL    HW255075   3.167   5.652  10.341 -0.7679 -0.7641  0.0043
14451SOL     OW55076   9.763   9.882   9.892  0.1942 -0.4667  0.0971
14451SOL    HW155077   9.821   9.823   9.844 -2.5747 -2.5672 -0.9294
14451SOL    HW255078   9.721   9.826   9.956 -1.5310  0.6913  0.0214
14452SOL     OW55079   2.628  11.873   4.549 -0.1589  0.4300  0.0407
14452SOL    HW155080   2.655  11.942   4.610  0.5616  0.6752 -0.5436
14452SOL    HW255081   2.536  11.893   4.530 -0.2791  0.5697  0.7488
14453SOL     OW55082   8.557  11.134  11.041 -0.2242 -0.1999  0.2910
14453SOL    HW155083   8.610  11.169  11.112  2.3805 -1.5694 -0.8554
14453SOL    HW255084   8.568  11.039  11.047 -1.9161 -0.4892 -0.5037
14454SOL     OW55085   3.156  10.748   5.735  0.2181  0.1060  0.3044
14454SOL    HW155086   3.136  10.658   5.709  0.8372 -0.0206  0.2476
14454SOL    HW255087   3.229  10.740   5.796  0.5237  0.5924  0.0141
14455SOL     OW55088   5.113  11.859   7.337 -0.3481  0.0289 -0.4238
14455SOL    HW155089   5.046  11.927   7.329 -2.0308 -1.3775  0.8928
14455SOL    HW255090   5.177  11.882   7.270 -1.2827  2.3796 -0.6468
14456SOL     OW55091   3.158   0.253   5.959  0.3008  0.3082 -0.9728
14456SOL    HW155092   3.131   0.200   5.884 -0.6270  0.5594 -0.8311
14456SOL    HW255093   3.076   0.283   5.998  0.6982 -0.9487  0.9727
14457SOL     OW55094   3.720   7.334   4.852  0.1926 -0.1579  0.0322
14457SOL    HW155095   3.643   7.278   4.854  0.5621 -0.6904 -0.5351
14457SOL    HW255096   3.698   7.406   4.911 -0.8984 -0.0930 -0.4228
14458SOL     OW55097  10.732   0.761  10.771  0.2058 -0.1874  0.2350
14458SOL    HW155098  10.646   0.749  10.730  0.3237  1.0545 -0.4356
14458SOL    HW255099  10.792   0.714  10.714  0.2515  0.8146 -0.5718
14459SOL     OW55100   4.868   3.418   2.084 -0.0358  0.4179  0.9602
14459SOL    HW155101   4.951   3.373   2.068 -0.1579  0.0247  1.4160
14459SOL    HW255102   4.861   3.480   2.012 -0.0253 -0.5337  0.1083
14460SOL     OW55103   9.904   5.007   0.538  0.1000  0.6719  0.2526
14460SOL    HW155104   9.881   5.068   0.608  0.6955 -0.5878  1.6009
14460SOL    HW255105  10.000   5.012   0.533  0.1656 -0.2346  0.4769
14461SOL     OW55106   1.181   3.240   2.697  0.2179  0.2252  0.1762
14461SOL    HW155107   1.235   3.307   2.655  0.5301  0.2618  0.6286
14461SOL    HW255108   1.104   3.232   2.640  0.5200  0.4434 -0.2730
14462SOL     OW55109   2.247   4.095   9.926  0.3813  0.0599  0.2246
14462SOL    HW155110   2.172   4.132   9.973  0.9095 -0.2647  1.3639
14462SOL    HW255111   2.268   4.015   9.975  0.7742 -0.4574 -0.7549
14463SOL     OW55112   1.614   4.092   9.415  0.1025 -0.7622  0.2891
14463SOL    HW155113   1.642   4.049   9.496  0.9783  0.5868  0.7355
14463SOL    HW255114   1.622   4.186   9.433 -2.2435 -0.3545 -0.4748
14464SOL     OW55115   6.412   9.597   9.590 -0.2488  0.4014 -0.3314
14464SOL    HW155116   6.436   9.686   9.618 -0.3399  0.8006 -1.4919
14464SOL    HW255117   6.487   9.567   9.538 -1.0487  0.5716 -1.6103
14465SOL     OW55118   9.030   4.771  11.357 -0.0524  0.0808  0.5613
14465SOL    HW155119   8.987   4.727  11.283  1.5638 -0.9072  0.1470
14465SOL    HW255120   9.025   4.707  11.428  0.5394  0.0244  0.5592
14466SOL     OW55121   5.064   8.746   7.790  0.1005  0.2965 -0.1332
14466SOL    HW155122   5.155   8.716   7.791 -0.0509 -0.2750 -1.2493
14466SOL    HW255123   5.044   8.766   7.882  0.8900 -1.0033  0.3567
14467SOL     OW55124  10.734   4.433   5.639 -0.1655 -0.0457  0.6006
14467SOL    HW155125  10.746   4.483   5.720  0.0987  1.0823 -0.1130
14467SOL    HW255126  10.818   4.390   5.625 -0.1310 -0.0390  0.7795
14468SOL     OW55127   2.281  11.160  10.809 -0.2215  0.5603  0.0198
14468SOL    HW155128   2.230  11.233  10.773  0.0110  0.1059 -1.2812
14468SOL    HW255129   2.244  11.082  10.767  2.1643  0.2899 -1.7969
14469SOL     OW55130   9.880   0.643   5.197 -0.8668 -0.3039  0.2528
14469SOL    HW155131   9.965   0.657   5.156 -0.0552 -0.7858  1.7022
14469SOL    HW255132   9.843   0.568   5.152  0.1029 -0.9660  0.5341
14470SOL     OW55133  10.564   1.407   9.384  0.0908 -0.1275  0.7298
14470SOL    HW155134  10.595   1.415   9.294 -0.8754 -1.5939  0.2301
14470SOL    HW255135  10.470   1.426   9.379  0.1916  0.6374  1.5785
14471SOL     OW55136  11.829   4.980   1.120  0.9068  0.4011 -0.0606
14471SOL    HW155137  11.854   4.930   1.042  3.2924  3.3437 -1.3953
14471SOL    HW255138  11.877   4.938   1.191  0.2792 -1.1129 -0.4942
14472SOL     OW55139   6.825   5.199  10.515 -0.4075  0.2019 -0.1196
14472SOL    HW155140   6.760   5.243  10.461 -0.3453 -1.4684 -1.6811
14472SOL    HW255141   6.893   5.173  10.453 -0.7175 -2.5106  0.5476
14473SOL     OW55142  10.639   4.517   3.318 -0.2745  0.4581 -0.1819
14473SOL    HW155143  10.718   4.570   3.331  0.4594 -0.5254 -0.5105
14473SOL    HW255144  10.615   4.533   3.226 -1.6569  2.3092  0.4337
14474SOL     OW55145   3.431   8.942   0.355 -0.0293  0.5487  0.1472
14474SOL    HW155146   3.509   8.994   0.332 -0.1978  0.7974  0.1313
14474SOL    HW255147   3.411   8.968   0.445 -0.1191  0.5158  0.1367
14475SOL     OW55148   0.770   1.175   1.445  0.2832  0.2089 -0.0357
14475SOL    HW155149   0.823   1.122   1.506  0.2205  0.4828  0.2617
14475SOL    HW255150   0.802   1.151   1.358  0.8255  0.2928  0.1363
14476SOL     OW55151   7.306   4.852   5.068  0.1426  0.4461  0.1785
14476SOL    HW155152   7.225   4.899   5.089  0.4804  1.2196 -0.1935
14476SOL    HW255153   7.283   4.760   5.075 -0.6347  0.6638  0.5917
14477SOL     OW55154   0.402   4.888  11.907 -0.6916  0.3012 -0.2264
14477SOL    HW155155   0.371   4.907  11.818  0.5568  1.3184 -0.4868
14477SOL    HW255156   0.490   4.927  11.910 -0.3815 -0.4367  1.1961
14478SOL     OW55157   9.685   9.566   0.690 -0.0799 -0.3205 -0.1436
14478SOL    HW155158   9.687   9.608   0.776  1.1525  1.4496 -0.9685
14478SOL    HW255159   9.664   9.637   0.629 -0.9993 -1.5516 -1.3233
14479SOL     OW55160   4.922   9.460   9.788  0.1111 -0.3026  0.3568
14479SOL    HW155161   4.896   9.552   9.799  0.4093 -0.1532 -0.1346
14479SOL    HW255162   5.014   9.458   9.815  0.1372 -0.4292  0.2623
14480SOL     OW55163   2.718   3.287   9.674  0.3919  0.5583  0.5482
14480SOL    HW155164   2.677   3.339   9.604  0.0918  2.2105  1.9119
14480SOL    HW255165   2.664   3.207   9.678 -1.1927  1.5877  0.6078
14481SOL     OW55166   0.666   3.701   1.804 -0.1502 -0.1282  0.4524
14481SOL    HW155167   0.623   3.651   1.873 -2.8367  1.4140  0.0324
14481SOL    HW255168   0.703   3.777   1.850  0.7478 -0.6136  0.5666
14482SOL     OW55169  11.452   1.531   4.874  0.1952  0.0195  0.0225
14482SOL    HW155170  11.446   1.437   4.862  1.1555 -0.0934  0.3246
14482SOL    HW255171  11.398   1.568   4.804  0.0009 -0.7437 -0.2399
14483SOL     OW55172   1.580   7.976   4.767 -0.6634 -0.5442 -0.1322
14483SOL    HW155173   1.669   7.989   4.735 -1.0964  1.6787 -0.5888
14483SOL    HW255174   1.526   7.978   4.689 -1.1708 -1.6679  0.1670
14484SOL     OW55175   4.482  11.544   7.848  0.3057  0.6313 -0.5118
14484SOL    HW155176   4.443  11.595   7.777  0.3154 -0.2016 -1.1272
14484SOL    HW255177   4.462  11.453   7.826 -0.1397  0.3912  0.8303
14485SOL     OW55178   3.336   2.438   1.191  0.4740  0.5338  0.5601
14485SOL    HW155179   3.347   2.476   1.104  0.4525  0.5389  0.5595
14485SOL    HW255180   3.322   2.513   1.248  2.8575  0.7456  0.9703
14486SOL     OW55181   7.023   1.490   0.625 -0.2093 -0.4886  0.5150
14486SOL    HW155182   6.939   1.534   0.610 -0.1973 -0.8916 -0.8678
14486SOL    HW255183   7.012   1.403   0.586  1.3527 -0.0178 -1.1158
14487SOL     OW55184   8.283   7.315  11.222  0.2511  0.5108  0.4963
14487SOL    HW155185   8.369   7.279  11.246 -0.3073 -0.8998  0.4558
14487SOL    HW255186   8.265   7.380  11.289  1.5243  1.1396  0.2781
14488SOL     OW55187   0.692   2.987  11.731  0.2927  0.4210  0.3704
14488SOL    HW155188   0.627   2.933  11.776  1.2462 -0.7613  0.3888
14488SOL    HW255189   0.757   3.005  11.799  0.7520  0.2804 -0.0275
14489SOL     OW55190   6.092   6.454  11.259 -0.2158  0.1278  0.5360
14489SOL    HW155191   6.016   6.396  11.256 -1.2781  1.4076  1.7705
14489SOL    HW255192   6.131   6.438  11.345  1.8184 -1.5367 -0.5865
14490SOL     OW55193   3.148   9.585   9.484 -0.0582  0.4197  0.0182
14490SOL    HW155194   3.084   9.548   9.545 -0.5076  0.7810 -0.2294
14490SOL    HW255195   3.224   9.526   9.490 -1.3766 -1.6053 -1.6617
14491SOL     OW55196   6.857   9.134   3.330  0.4423  0.0531  0.1138
14491SOL    HW155197   6.923   9.098   3.389 -0.9069 -0.7953  1.1710
14491SOL    HW255198   6.828   9.215   3.372 -0.5524 -0.5745  0.6718
14492SOL     OW55199   1.926   5.537  10.714 -0.1146 -0.5723 -0.0935
14492SOL    HW155200   1.961   5.483  10.643 -0.8517  1.8509 -2.4573
14492SOL    HW255201   1.842   5.569  10.681 -0.2719  1.0352  1.6834
14493SOL     OW55202   7.787   8.218   2.532  0.0741 -0.9779 -0.1478
14493SOL    HW155203   7.834   8.199   2.614 -0.8670  0.6378  0.8284
14493SOL    HW255204   7.788   8.314   2.527 -3.8744 -0.7770  0.4314
14494SOL     OW55205   9.127   6.507   2.863  0.5272 -0.2417 -0.1336
14494SOL    HW155206   9.056   6.505   2.799 -0.3432  1.6612  0.6997
14494SOL    HW255207   9.203   6.535   2.812  0.5754 -1.6722 -0.9048
14495SOL     OW55208  10.403   0.539   3.235  0.6363  0.1057 -0.3058
14495SOL    HW155209  10.480   0.558   3.181  0.1107  0.9116 -0.7890
14495SOL    HW255210  10.330   0.579   3.187 -0.2317 -1.4599 -0.3536
14496SOL     OW55211   6.430   4.236  10.907  0.1324 -0.0146 -0.0007
14496SOL    HW155212   6.508   4.181  10.905  0.7452  0.8451 -0.1654
14496SOL    HW255213   6.378   4.202  10.980 -1.4552 -3.4094 -2.4295
14497SOL     OW55214   1.078   0.792   2.429 -0.5371  0.0149  0.6112
14497SOL    HW155215   1.085   0.865   2.491  1.7655 -0.8353  1.4655
14497SOL    HW255216   1.138   0.725   2.464  0.3406 -0.7784 -2.1603
14498SOL     OW55217   1.035   2.908   9.750  0.2398  0.4854 -0.3025
14498SOL    HW155218   1.075   2.847   9.688  0.2960  0.1184  0.0823
14498SOL    HW255219   0.983   2.967   9.696  1.4123  1.0703 -0.8316
14499SOL     OW55220   1.560   2.831   2.682 -0.4539 -0.1850 -0.2670
14499SOL    HW155221   1.542   2.774   2.757 -1.3555  2.7247  1.8856
14499SOL    HW255222   1.655   2.830   2.673 -0.3666 -0.8923  0.6312
14500SOL     OW55223  11.004   8.592   9.945  0.5247 -0.7429 -0.0248
14500SOL    HW155224  10.956   8.509   9.942  0.3385 -0.6436  0.2047
14500SOL    HW255225  10.974   8.639   9.867  1.5323 -1.3811 -0.8304
14501SOL     OW55226   5.834  11.902   5.186 -0.3651 -0.1919  0.2432
14501SOL    HW155227   5.831  11.997   5.177 -2.0261 -0.2684 -0.3420
14501SOL    HW255228   5.825  11.887   5.280  0.7977  0.2319  0.4386
14502SOL     OW55229   3.592   6.639   7.359  0.1588 -0.0936  0.3387
14502SOL    HW155230   3.591   6.734   7.344 -2.8401  0.2324  1.9305
14502SOL    HW255231   3.649   6.628   7.435  0.9724  0.3357 -0.1914
14503SOL     OW55232   5.176   6.285   3.680 -0.3289  0.2069  0.5615
14503SOL    HW155233   5.264   6.248   3.683 -0.6220 -0.5423  0.4299
14503SOL    HW255234   5.149   6.274   3.588 -0.0004  1.8220  0.2524
14504SOL     OW55235   7.004   1.857   3.783 -0.2939 -0.4082  0.0245
14504SOL    HW155236   6.937   1.821   3.726 -1.2473 -0.8128  1.3471
14504SOL    HW255237   6.984   1.821   3.870 -0.3939  2.0777  1.1213
14505SOL     OW55238   9.604  10.927   8.248 -0.4195  0.0666 -0.2868
14505SOL    HW155239   9.615  10.879   8.330  0.3778 -0.2482 -0.5642
14505SOL    HW255240   9.516  10.963   8.253  0.0569  1.1420  1.2810
14506SOL     OW55241  11.813   2.862   7.971  0.1775  0.0753  0.3773
14506SOL    HW155242  11.866   2.783   7.960 -1.1122 -0.9756  1.4396
14506SOL    HW255243  11.778   2.855   8.060 -2.8714  0.0046 -0.7191
14507SOL     OW55244   0.292   5.404   2.423  0.4350  0.2083 -0.6209
14507SOL    HW155245   0.214   5.390   2.368  0.5688  0.6203 -0.9216
14507SOL    HW255246   0.365   5.371   2.370  0.4596 -0.2410 -0.3110
14508SOL     OW55247   7.241   0.377   5.366  0.0327  0.0621  0.5080
14508SOL    HW155248   7.188   0.405   5.291 -0.8722 -0.6452  0.8674
14508SOL    HW255249   7.274   0.459   5.404  0.4159  0.4342 -0.5908
14509SOL     OW55250   4.144   8.354   2.137 -0.0970  0.2088 -0.2308
14509SOL    HW155251   4.238   8.367   2.139  0.0112 -0.1946  2.8227
14509SOL    HW255252   4.132   8.260   2.153 -1.0455  0.1229 -1.2598
14510SOL     OW55253   8.554   7.274  10.380 -0.1118  0.0709 -0.3473
14510SOL    HW155254   8.524   7.186  10.404 -1.2417  0.8567  1.3159
14510SOL    HW255255   8.474   7.326  10.378  0.8333  1.7380  1.8622
14511SOL     OW55256  10.446   9.043   6.705 -0.2307  0.0805 -0.1609
14511SOL    HW155257  10.506   8.972   6.682 -0.7683 -0.4861  0.1709
14511SOL    HW255258  10.370   8.999   6.742 -0.5806  0.8321  0.0232
14512SOL     OW55259  10.078  10.348   9.632 -0.4614  0.7862 -0.2653
14512SOL    HW155260  10.076  10.265   9.584 -0.7262  0.1198  0.8613
14512SOL    HW255261  10.162  10.346   9.680 -1.2279  0.3439  1.1275
14513SOL     OW55262   3.477   7.897   1.701 -0.0365 -0.3945  0.6332
14513SOL    HW155263   3.458   7.804   1.692 -2.2311  0.0064  0.4666
14513SOL    HW255264   3.557   7.901   1.754  0.0041 -2.3558  0.7744
14514SOL     OW55265  11.953   4.392   3.086  0.0560 -0.2302  0.0621
14514SOL    HW155266  11.986   4.354   3.167  0.8272  0.2484 -0.0167
14514SOL    HW255267  12.020   4.373   3.021 -0.2780 -0.0888 -0.3303
14515SOL     OW55268   0.036   2.858  10.828  0.6346  0.1723  0.4012
14515SOL    HW155269   0.122   2.818  10.822 -0.1478 -1.6790  0.7136
14515SOL    HW255270  -0.020   2.789  10.863 -0.3313  2.3055  3.5014
14516SOL     OW55271   7.652   3.725   8.778  0.1258  0.0639  0.6269
14516SOL    HW155272   7.657   3.647   8.722 -1.1199 -0.0218  0.6101
14516SOL    HW255273   7.605   3.695   8.856 -3.2706  1.4806 -0.6960
14517SOL     OW55274  11.322   7.921   8.687 -0.3461  0.5311  0.2888
14517SOL    HW155275  11.292   8.012   8.689  0.5358  0.8465 -0.5341
14517SOL    HW255276  11.412   7.925   8.718 -0.3591 -0.0906  0.4106
14518SOL     OW55277   2.439   0.821   1.680  0.3485 -0.4353 -0.0933
14518SOL    HW155278   2.429   0.885   1.610  1.1744 -1.3011 -1.0302
14518SOL    HW255279   2.522   0.845   1.722  0.5627 -0.7856 -0.3221
14519SOL     OW55280   8.318  11.284  11.266  0.1153 -0.0052  0.0665
14519SOL    HW155281   8.277  11.285  11.353 -0.2462  0.5241 -0.1061
14519SOL    HW255282   8.410  11.263  11.283 -0.2184 -1.2093  0.4566
14520SOL     OW55283   9.238   1.311   9.737  0.1360 -0.3586  0.6368
14520SOL    HW155284   9.166   1.254   9.762 -0.0646 -0.2315  0.3532
14520SOL    HW255285   9.307   1.291   9.799  0.1165 -1.0079  0.4507
14521SOL     OW55286  11.602   4.160   1.467 -0.1537 -0.2282  0.3538
14521SOL    HW155287  11.603   4.108   1.387 -1.3157 -1.3264  1.0130
14521SOL    HW255288  11.526   4.218   1.457  0.7120  0.8801 -0.0620
14522SOL     OW55289  11.746   2.871   9.969  0.9075 -0.7892 -0.4944
14522SOL    HW155290  11.756   2.960   9.935 -0.5603 -0.6773 -0.6927
14522SOL    HW255291  11.835   2.842   9.986  1.3721  1.5487  1.7171
14523SOL     OW55292   4.134   1.594   3.707 -0.7463 -0.1274  0.3060
14523SOL    HW155293   4.049   1.619   3.744  0.2939  1.4642  1.7734
14523SOL    HW255294   4.156   1.664   3.647 -0.1296 -0.1503  0.5038
14524SOL     OW55295  11.431   5.230   9.867  0.1708 -0.1262  0.2114
14524SOL    HW155296  11.396   5.309   9.907  1.6769 -0.1647  1.6971
14524SOL    HW255297  11.365   5.206   9.801 -0.9682  1.5755  0.6527
14525SOL     OW55298   6.943   7.409   7.446  0.0776 -0.6520 -0.2906
14525SOL    HW155299   6.951   7.487   7.392  1.5786 -0.1515  0.6128
14525SOL    HW255300   6.880   7.433   7.515  1.6643  0.3363  0.8820
14526SOL     OW55301   9.338   0.920   8.291  0.5267 -0.3597  0.5302
14526SOL    HW155302   9.399   0.900   8.362  1.1585  0.4466  0.2294
14526SOL    HW255303   9.367   1.005   8.258 -1.0947  0.3145  0.7421
14527SOL     OW55304   3.834   0.681   3.003 -0.1400  0.2867  0.5718
14527SOL    HW155305   3.872   0.718   3.083 -0.5243 -0.0594  0.9177
14527SOL    HW255306   3.841   0.752   2.939  0.8492  0.3177  0.6949
14528SOL     OW55307   1.215   2.851  11.520 -0.0665 -0.0448 -0.1028
14528SOL    HW155308   1.144   2.888  11.467 -1.3728 -0.8591  1.0134
14528SOL    HW255309   1.242   2.923  11.577 -0.7570 -0.0118  0.2046
14529SOL     OW55310   9.649  10.765   6.718  0.2379  0.4229  0.0281
14529SOL    HW155311   9.601  10.834   6.672 -0.5282 -1.6954 -2.6260
14529SOL    HW255312   9.584  10.697   6.733  1.6265 -1.0405 -0.3341
14530SOL     OW55313   5.645   2.821   5.194 -0.5321 -0.3437  0.4657
14530SOL    HW155314   5.712   2.872   5.239 -0.6820  1.3424 -1.1213
14530SOL    HW255315   5.563   2.866   5.216 -0.7679 -0.4362 -0.2187
14531SOL     OW55316   8.387   4.751   2.334 -0.0998 -0.4525 -0.1902
14531SOL    HW155317   8.365   4.707   2.416 -1.9646 -0.4540 -0.6348
14531SOL    HW255318   8.412   4.680   2.274  1.5405 -0.4258  0.4146
14532SOL     OW55319   0.995   2.294  11.612  0.4463  0.0422 -0.0658
14532SOL    HW155320   0.982   2.293  11.517 -0.9490  1.4508  0.0562
14532SOL    HW255321   1.005   2.387  11.633  3.8025 -0.4082  0.8519
14533SOL     OW55322   6.829  10.522  11.059  0.2120  0.3754 -0.9012
14533SOL    HW155323   6.824  10.580  11.135  0.7800 -0.0045 -0.5654
14533SOL    HW255324   6.904  10.554  11.010  3.3020 -2.5371  1.4446
14534SOL     OW55325   4.962   7.177   3.532 -0.1369  0.7697  0.3868
14534SOL    HW155326   5.011   7.096   3.545 -1.1285  0.1008  0.0857
14534SOL    HW255327   5.027   7.246   3.540  1.2519 -0.1450 -1.8702
14535SOL     OW55328   1.209   9.466   4.589  0.2186 -0.6554 -0.1418
14535SOL    HW155329   1.270   9.538   4.606  0.1225 -0.3714 -0.9507
14535SOL    HW255330   1.165   9.490   4.508 -1.2678 -0.6751  0.6354
14536SOL     OW55331   6.450   3.312   3.057 -0.0338  0.2261 -0.3625
14536SOL    HW155332   6.445   3.400   3.094 -0.7993 -0.0742  0.2905
14536SOL    HW255333   6.441   3.325   2.963 -2.5200  0.7139 -0.1285
14537SOL     OW55334   6.944  11.269   6.850 -0.0497 -0.0042 -0.9543
14537SOL    HW155335   6.855  11.238   6.865 -0.3150  0.9608 -0.4741
14537SOL    HW255336   6.948  11.354   6.893  1.7502 -0.9306  0.9169
14538SOL     OW55337   8.428  10.700   4.309 -0.5807 -0.7353 -0.3908
14538SOL    HW155338   8.456  10.740   4.391 -1.9735 -0.6134  0.0598
14538SOL    HW255339   8.424  10.606   4.327 -0.8452 -0.7120 -0.3196
14539SOL     OW55340   4.676  11.692   2.873 -0.0585 -0.5063  0.3513
14539SOL    HW155341   4.614  11.699   2.947 -0.1239  0.5264  0.2153
14539SOL    HW255342   4.681  11.781   2.838  1.8894 -0.4612  0.6601
14540SOL     OW55343   2.285   8.895   6.441  0.3801  0.2687 -0.1702
14540SOL    HW155344   2.229   8.971   6.425  0.2962  0.3297  0.3842
14540SOL    HW255345   2.226   8.820   6.435  0.2104  0.3407  0.5247
14541SOL     OW55346   5.351   4.931   8.770  0.6255  0.3834  0.5369
14541SOL    HW155347   5.260   4.955   8.750  0.5846 -0.9993 -1.2117
14541SOL    HW255348   5.345   4.842   8.806  1.2117  0.7336  1.5340
14542SOL     OW55349   9.805   0.420   2.172 -0.2404 -0.0435  0.5330
14542SOL    HW155350   9.796   0.366   2.093 -1.2401 -0.8434  1.1627
14542SOL    HW255351   9.817   0.357   2.243 -2.2394  0.4767  1.3967
14543SOL     OW55352  11.212   2.426   0.714  0.4481 -0.5686  0.6619
14543SOL    HW155353  11.201   2.436   0.620 -1.3031 -0.7540  0.8125
14543SOL    HW255354  11.299   2.462   0.733  0.3541  0.5035 -0.8456
14544SOL     OW55355  10.888   1.337   9.183  0.2142  0.2730 -0.2399
14544SOL    HW155356  10.798   1.364   9.163  0.2402 -0.7540 -2.0022
14544SOL    HW255357  10.941   1.381   9.117  0.8755  0.0295  0.1190
14545SOL     OW55358   2.045   5.534   0.876  0.6626  0.2535  0.2502
14545SOL    HW155359   1.975   5.468   0.873 -0.7461  1.7291 -2.3200
14545SOL    HW255360   2.072   5.535   0.968 -1.0767 -2.0050  0.8888
14546SOL     OW55361   1.194   8.845  10.325 -0.3474  0.0563  0.3438
14546SOL    HW155362   1.112   8.894  10.317 -0.7571 -0.5175  0.9676
14546SOL    HW255363   1.184   8.793  10.404 -0.5822 -2.2505 -1.0973
14547SOL     OW55364  11.543   6.587   9.770  0.2058  0.0399 -0.6481
14547SOL    HW155365  11.535   6.593   9.675  1.4321  2.3710 -0.6640
14547SOL    HW255366  11.636   6.600   9.787  0.1173 -1.0604  0.8634
14548SOL     OW55367   2.717   5.262   8.268 -0.5961 -0.3538 -0.4493
14548SOL    HW155368   2.705   5.170   8.244 -2.0287  0.3573 -2.7852
14548SOL    HW255369   2.631   5.301   8.256 -0.3773  1.0632  1.9263
14549SOL     OW55370   3.159   9.068  11.865 -0.1261 -0.6057 -0.1908
14549SOL    HW155371   3.088   9.122  11.899  1.7937  1.7491  0.4153
14549SOL    HW255372   3.217   9.053  11.940  1.6004  0.3210 -1.2489
14550SOL     OW55373   6.629   3.112   4.317  0.6471  0.6738  0.1993
14550SOL    HW155374   6.616   3.049   4.388  1.2745 -0.0025 -0.2806
14550SOL    HW255375   6.593   3.194   4.352  3.3475  1.0699  2.4232
14551SOL     OW55376   5.516   0.498   0.293 -0.4859  0.6971 -0.1660
14551SOL    HW155377   5.432   0.462   0.320 -0.2693  0.3648  0.0679
14551SOL    HW255378   5.578   0.426   0.305 -0.4964  0.2837 -2.2794
14552SOL     OW55379   6.060   8.074   1.983 -0.1128  0.1050  0.2742
14552SOL    HW155380   6.009   8.129   2.041  0.5512  0.7205  0.2791
14552SOL    HW255381   6.042   7.984   2.013  0.4354  0.4173  1.6062
14553SOL     OW55382   5.401   1.973   9.381 -0.4548 -0.8171 -0.1732
14553SOL    HW155383   5.417   2.059   9.341 -0.0476 -0.4185  0.8116
14553SOL    HW255384   5.306   1.960   9.373 -0.4335 -0.5516 -0.8750
14554SOL     OW55385  10.239   6.196   0.365  0.4909 -0.4128  0.1280
14554SOL    HW155386  10.172   6.226   0.426  0.7660  1.5721 -0.4592
14554SOL    HW255387  10.197   6.199   0.279  0.6156 -1.5258  0.0173
14555SOL     OW55388   1.077   3.796   9.631 -0.1428  0.3362 -0.3067
14555SOL    HW155389   1.086   3.860   9.702  0.0761 -0.3199  0.2677
14555SOL    HW255390   1.159   3.747   9.633 -1.2401 -1.5666  0.8677
14556SOL     OW55391  10.541  10.632   6.511 -0.2129  0.1440 -0.1695
14556SOL    HW155392  10.545  10.647   6.417  0.7205  2.3929  0.1692
14556SOL    HW255393  10.632  10.638   6.540 -0.4119 -1.1750  0.8130
14557SOL     OW55394  10.706  11.744   5.363 -0.1908 -0.2077  0.2240
14557SOL    HW155395  10.741  11.809   5.424 -0.4807 -0.1144  0.2979
14557SOL    HW255396  10.641  11.696   5.414  0.2054 -0.7317  0.2406
14558SOL     OW55397   1.933   2.644   5.963  0.1454 -0.4116  0.2403
14558SOL    HW155398   1.985   2.614   6.038  1.3215  1.0909  0.0939
14558SOL    HW255399   1.965   2.733   5.947 -1.0761 -0.1956 -1.1688
14559SOL     OW55400   2.765   1.163   6.486  0.2567 -0.2578 -0.5407
14559SOL    HW155401   2.775   1.190   6.577 -0.5877 -0.4768 -0.3731
14559SOL    HW255402   2.788   1.240   6.435  0.0494  0.0832 -0.1229
14560SOL     OW55403   3.320   9.805   5.021  0.0407  0.4340 -0.8119
14560SOL    HW155404   3.226   9.820   5.023  0.0948  1.0486 -2.1023
14560SOL    HW255405   3.336   9.745   5.093 -1.5510 -0.9054 -1.5190
14561SOL     OW55406   0.801  11.748   8.986  0.0802  0.3740  0.4312
14561SOL    HW155407   0.714  11.734   9.025  0.4213  0.4075  1.2194
14561SOL    HW255408   0.827  11.662   8.954  0.4175  0.0335  1.5920
14562SOL     OW55409   3.291   2.223   7.515 -0.1138  0.1659  0.2933
14562SOL    HW155410   3.242   2.179   7.583  1.2050 -0.1080  1.1049
14562SOL    HW255411   3.382   2.195   7.529  0.2673  0.5262 -1.2389
14563SOL     OW55412   6.117   5.197   3.509  0.7372 -0.1600 -0.3466
14563SOL    HW155413   6.072   5.113   3.504 -0.0562  0.3029 -1.5184
14563SOL    HW255414   6.120   5.217   3.602 -0.8756 -0.5500 -0.1794
14564SOL     OW55415   4.157   5.365   9.907 -0.8137 -0.2717 -0.1133
14564SOL    HW155416   4.239   5.367   9.859  0.6665  0.6829  2.3078
14564SOL    HW255417   4.115   5.449   9.888  0.6350  0.9062  1.5644
14565SOL     OW55418   8.812   0.747   3.579 -0.3939  0.4146 -0.3102
14565SOL    HW155419   8.719   0.767   3.569 -0.0318  1.3065 -2.3411
14565SOL    HW255420   8.845   0.738   3.490  1.4352 -0.1584  0.3688
14566SOL     OW55421   0.533   7.555   9.657  0.1912 -0.0718 -0.4576
14566SOL    HW155422   0.553   7.540   9.749  0.7580  1.9147 -0.2201
14566SOL    HW255423   0.602   7.510   9.609  0.9837  0.4655  0.1567
14567SOL     OW55424  11.075   1.999   9.776 -0.4787  0.1777 -0.1585
14567SOL    HW155425  11.090   1.905   9.761 -2.3512 -0.0431 -0.9407
14567SOL    HW255426  11.001   2.002   9.836  0.8148  1.1807  1.4619
14568SOL     OW55427  10.815   0.077   5.051 -0.1329  0.3499  0.4443
14568SOL    HW155428  10.849   0.110   4.967 -0.9466  0.3076  0.0852
14568SOL    HW255429  10.839  -0.015   5.052 -1.2158  0.0393 -0.3415
14569SOL     OW55430   3.892   1.297   5.251  0.5341 -0.1016 -0.3466
14569SOL    HW155431   3.885   1.210   5.290 -0.3084  0.4171  0.7060
14569SOL    HW255432   3.816   1.303   5.193 -0.6443  0.6801  1.1889
14570SOL     OW55433   9.483   9.146   8.455 -0.1894 -0.4062 -0.0939
14570SOL    HW155434   9.488   9.126   8.361 -1.3240  0.5284 -0.3715
14570SOL    HW255435   9.404   9.199   8.464  0.0311 -0.2960  1.3650
14571SOL     OW55436   4.948   5.854   0.325 -0.7291  0.8364  0.5976
14571SOL    HW155437   5.041   5.844   0.343 -1.1477 -0.5635  2.2783
14571SOL    HW255438   4.918   5.919   0.389 -1.2644 -0.3697  1.6441
14572SOL     OW55439   0.898   5.616   0.878 -0.1388 -0.4451 -0.1828
14572SOL    HW155440   0.973   5.647   0.927 -0.2380 -1.2029  0.4670
14572SOL    HW255441   0.861   5.546   0.932 -1.5196  0.1455 -0.3124
14573SOL     OW55442  11.404  10.848   9.382 -0.0167  0.2302 -0.0259
14573SOL    HW155443  11.450  10.901   9.317 -0.6433  0.2094 -0.4984
14573SOL    HW255444  11.334  10.805   9.333 -0.9347  0.7464  0.7791
14574SOL     OW55445  10.187   5.795   8.490 -0.3297 -0.1555  0.4756
14574SOL    HW155446  10.161   5.823   8.402 -0.8365  0.6212  0.8624
14574SOL    HW255447  10.179   5.874   8.544  0.4824 -0.4978  1.1186
14575SOL     OW55448   4.280   7.087  10.669 -0.3441 -0.5296  0.0262
14575SOL    HW155449   4.205   7.046  10.713 -1.5456 -0.0743 -1.4829
14575SOL    HW255450   4.320   7.142  10.736  0.6100 -3.1895  1.7813
14576SOL     OW55451   2.742   3.777   6.774  0.1312  0.2991 -0.3025
14576SOL    HW155452   2.780   3.777   6.687  1.1645  0.3319  0.1307
14576SOL    HW255453   2.745   3.685   6.802 -1.7639  0.0047 -0.9366
14577SOL     OW55454  10.002   0.891  11.493  0.3103  0.0022 -0.7059
14577SOL    HW155455   9.968   0.815  11.445  2.0724 -0.7387 -0.8682
14577SOL    HW255456   9.983   0.872  11.585  0.5152 -0.5291 -0.7668
14578SOL     OW55457   7.628  10.432   0.423 -0.3830 -0.0903 -0.1813
14578SOL    HW155458   7.673  10.513   0.401  1.3282 -0.5053  1.4644
14578SOL    HW255459   7.540  10.442   0.388  0.5881  1.3163 -2.4210
14579SOL     OW55460  10.610  11.273   4.409  0.2207  0.2509 -0.3585
14579SOL    HW155461  10.589  11.180   4.419  0.7455  0.2399  0.7722
14579SOL    HW255462  10.702  11.275   4.382 -0.0753  0.4218 -1.4016
14580SOL     OW55463   5.527   4.623   6.502 -0.0117  0.4392  0.1223
14580SOL    HW155464   5.572   4.581   6.576  1.1757  0.5653 -0.5100
14580SOL    HW255465   5.593   4.678   6.462 -0.9771  1.2778 -0.3474
14581SOL     OW55466   3.878   8.442   0.948  0.0601  0.3478 -0.2963
14581SOL    HW155467   3.899   8.428   0.855 -0.1510 -0.8868 -0.1654
14581SOL    HW255468   3.830   8.525   0.948 -0.4123  0.1003 -1.3604
14582SOL     OW55469   4.310   9.498   4.377 -0.6792  0.2880  0.6776
14582SOL    HW155470   4.402   9.480   4.359 -0.9249 -1.0388  0.5960
14582SOL    HW255471   4.310   9.583   4.420  0.6825 -0.0783  1.4903
14583SOL     OW55472   2.983   7.239   7.987  0.2772  0.4707 -0.1802
14583SOL    HW155473   2.959   7.229   7.895  1.9003  0.4387 -0.6332
14583SOL    HW255474   3.049   7.308   7.987  2.6763 -1.6669  0.4734
14584SOL     OW55475   8.218   3.353   7.224  0.0074  0.5056 -0.0240
14584SOL    HW155476   8.250   3.349   7.134  1.1138 -1.1963  0.3966
14584SOL    HW255477   8.287   3.311   7.276 -1.4344 -0.2551  1.3764
14585SOL     OW55478   1.443   0.867  11.779  0.1329  0.2936 -0.0298
14585SOL    HW155479   1.407   0.853  11.866  0.8861  0.2116  0.2765
14585SOL    HW255480   1.396   0.943  11.745 -1.2503 -0.5795 -0.1665
14586SOL     OW55481   6.501   2.985   5.156 -0.5161 -0.1836  0.0430
14586SOL    HW155482   6.418   3.007   5.199 -0.6576 -0.2787 -0.1798
14586SOL    HW255483   6.476   2.931   5.082 -0.2870  0.1419 -0.2740
14587SOL     OW55484   3.084   5.144   9.637 -0.0626 -0.4084 -0.1724
14587SOL    HW155485   3.126   5.097   9.565 -1.6481  0.0519 -1.4429
14587SOL    HW255486   3.149   5.209   9.664  2.0022 -2.9248  1.3266
14588SOL     OW55487   0.739   2.202   1.770 -0.2724 -0.0495 -0.4111
14588SOL    HW155488   0.650   2.178   1.743 -0.0193  1.1676 -2.4884
14588SOL    HW255489   0.774   2.121   1.808 -1.9775 -0.7767 -0.2863
14589SOL     OW55490   7.974  10.404   0.764 -0.3429  0.4387  0.1182
14589SOL    HW155491   7.940  10.382   0.851  1.0383 -1.2056  0.2951
14589SOL    HW255492   7.936  10.339   0.706 -0.8787  1.2394 -0.4363
14590SOL     OW55493   5.096   5.534   9.247 -0.4662 -1.0221  0.5231
14590SOL    HW155494   5.057   5.621   9.255  0.2993 -0.8239  3.2445
14590SOL    HW255495   5.171   5.546   9.188 -0.8122 -0.0105  0.2770
14591SOL     OW55496   7.941   5.547   3.421  0.0757  0.2210  0.2578
14591SOL    HW155497   7.935   5.486   3.347 -0.0847 -1.0968  1.3161
14591SOL    HW255498   7.970   5.493   3.494 -0.2225  1.3996  1.2773
14592SOL     OW55499  11.700   9.392   5.178  0.2682 -0.0831 -0.0248
14592SOL    HW155500  11.651   9.466   5.214  2.1571  1.0684  0.2550
14592SOL    HW255501  11.643   9.316   5.196 -0.2953  0.8465  2.6156
14593SOL     OW55502  11.055   2.733   3.372 -0.4010 -0.3578 -0.4736
14593SOL    HW155503  10.983   2.784   3.409 -0.9592  0.3492 -2.4262
14593SOL    HW255504  11.090   2.685   3.447 -2.9069 -0.7659  0.5519
14594SOL     OW55505   7.312   3.751   5.430 -0.2347 -0.0083  0.1691
14594SOL    HW155506   7.309   3.835   5.384 -0.1359  1.5767  2.8871
14594SOL    HW255507   7.396   3.713   5.405 -0.0103  0.9681 -0.6171
14595SOL     OW55508   0.425  10.070   2.805  0.4206  0.4549 -0.3871
14595SOL    HW155509   0.482  10.091   2.731  0.5662 -0.0246 -0.4155
14595SOL    HW255510   0.407  10.154   2.846  3.5982  0.3919  1.4419
14596SOL     OW55511   2.684   5.955   3.471 -0.4679 -0.1215  0.7089
14596SOL    HW155512   2.746   5.981   3.403 -0.6068  1.1032  1.0163
14596SOL    HW255513   2.736   5.901   3.531  0.0300  0.0126  0.4101
14597SOL     OW55514   0.924   2.443   8.014  0.3928  0.4149 -0.4776
14597SOL    HW155515   0.914   2.532   7.981  0.3793  0.2048 -1.0501
14597SOL    HW255516   1.017   2.422   8.002  0.5567  0.6172  0.3562
14598SOL     OW55517   3.763   7.740   4.577 -0.6172 -0.0097 -0.3722
14598SOL    HW155518   3.853   7.749   4.547 -0.7216 -0.8821 -0.9724
14598SOL    HW255519   3.721   7.684   4.512 -1.8438  1.1303 -0.5904
14599SOL     OW55520   3.358   1.226  11.169  0.2941 -0.2498  0.3846
14599SOL    HW155521   3.287   1.183  11.123 -1.1511  1.3473  1.0421
14599SOL    HW255522   3.420   1.155  11.188  0.2691 -1.2172 -2.6329
14600SOL     OW55523   2.372   8.324   6.642 -0.1168 -0.4735  0.1039
14600SOL    HW155524   2.319   8.303   6.720 -2.5244 -1.7984 -1.7385
14600SOL    HW255525   2.361   8.418   6.630 -2.3792 -0.7306 -0.3348
14601SOL     OW55526   7.259   9.190   3.179 -0.2442 -0.5861  0.0350
14601SOL    HW155527   7.285   9.279   3.206 -0.9424 -0.4818  0.4100
14601SOL    HW255528   7.262   9.139   3.260  1.9686 -1.3891 -0.4908
14602SOL     OW55529   8.902   1.863   0.517  0.2517 -0.1118 -0.0636
14602SOL    HW155530   8.839   1.832   0.452  0.4696 -1.2300  0.2378
14602SOL    HW255531   8.978   1.891   0.465  1.3348 -3.0925 -0.2665
14603SOL     OW55532   7.420  10.115   3.943 -0.1395 -0.3755  0.2951
14603SOL    HW155533   7.379  10.198   3.968 -0.7476 -1.0071  1.5352
14603SOL    HW255534   7.496  10.108   4.001 -0.1257 -0.7021  0.2366
14604SOL     OW55535  10.605   5.714   7.770  0.5294  0.1288 -0.5807
14604SOL    HW155536  10.661   5.704   7.847 -1.3427  1.0913  0.9814
14604SOL    HW255537  10.632   5.798   7.731 -0.4439  1.1010  0.7576
14605SOL     OW55538   3.438   7.787  10.561 -0.3755  1.0324  0.8892
14605SOL    HW155539   3.375   7.858  10.554 -0.0968  1.2003  0.0441
14605SOL    HW255540   3.479   7.799  10.647  0.7654  2.8126  0.1425
14606SOL     OW55541   3.794   2.174  11.623 -0.0673  0.8312 -0.0624
14606SOL    HW155542   3.799   2.196  11.530  0.0200 -0.5726 -0.4108
14606SOL    HW255543   3.700   2.167  11.642 -0.0730  0.5641 -0.1865
14607SOL     OW55544   9.301   3.688   8.419 -0.0919  0.0543  0.8714
14607SOL    HW155545   9.209   3.662   8.422  0.4874 -2.1462  1.3088
14607SOL    HW255546   9.310   3.749   8.492 -1.4638  1.4341 -0.0305
14608SOL     OW55547   2.107   6.223   7.201 -0.0099 -0.3241 -0.6081
14608SOL    HW155548   2.075   6.274   7.276 -0.2370 -2.3452  0.7559
14608SOL    HW255549   2.076   6.134   7.218  0.3667 -0.9535 -2.8827
14609SOL     OW55550   6.664  10.092   8.544 -0.4784  0.6701 -0.1228
14609SOL    HW155551   6.668  10.184   8.519 -0.3519  1.1856  1.6395
14609SOL    HW255552   6.570  10.071   8.543 -0.3946  0.0593 -2.8835
14610SOL     OW55553   7.541   1.027   5.648  0.1916 -0.2963 -0.4369
14610SOL    HW155554   7.460   1.025   5.698 -0.0612 -1.4448 -0.8608
14610SOL    HW255555   7.610   1.024   5.714 -0.0939  0.6759 -0.0759
14611SOL     OW55556   7.468   3.288   9.792  0.7910 -0.0148  0.1678
14611SOL    HW155557   7.417   3.211   9.818  1.7297 -0.8853 -0.5035
14611SOL    HW255558   7.472   3.283   9.697  0.2350  1.2955  0.0615
14612SOL     OW55559  10.167   6.778   7.400 -0.4237  0.8499  0.0655
14612SOL    HW155560  10.129   6.815   7.320  0.7317  0.2680 -0.7839
14612SOL    HW255561  10.235   6.718   7.368  0.0948  0.6534  1.4929
14613SOL     OW55562   1.410   9.362   5.871  0.1927 -0.5889  0.1706
14613SOL    HW155563   1.401   9.282   5.819  1.6845  0.4534 -1.8462
14613SOL    HW255564   1.505   9.378   5.873 -0.1402  2.0983 -1.1409
14614SOL     OW55565   3.678   0.918   9.518 -0.6239 -0.4857  0.1060
14614SOL    HW155566   3.690   1.011   9.539 -1.7018 -0.5047  0.8709
14614SOL    HW255567   3.607   0.917   9.454  0.6539 -0.6585 -1.3497
14615SOL     OW55568   1.116   2.708   3.764  0.3894  0.3154  0.1983
14615SOL    HW155569   1.052   2.760   3.813  0.9828  0.3634  0.9284
14615SOL    HW255570   1.062   2.650   3.710 -0.2868  1.6168 -0.5794
14616SOL     OW55571   2.340  11.870  11.252  0.1117 -0.3258 -0.2569
14616SOL    HW155572   2.282  11.882  11.176 -0.5401  1.8063  0.5137
14616SOL    HW255573   2.410  11.813  11.220 -0.3133  0.2626 -2.3816
14617SOL     OW55574   3.965   5.740  10.661  0.4494 -0.0069  0.4886
14617SOL    HW155575   3.943   5.649  10.641  0.6382 -0.1743  1.0180
14617SOL    HW255576   4.051   5.754  10.622 -0.6718  0.7533 -1.8909
14618SOL     OW55577   4.319   0.658   6.410  0.4607  0.2004  0.5771
14618SOL    HW155578   4.312   0.567   6.439 -1.4972 -0.0013 -0.3621
14618SOL    HW255579   4.294   0.655   6.317  1.5885  1.5418  0.2010
14619SOL     OW55580   5.974   4.682  10.934 -0.7173 -0.1253 -0.1726
14619SOL    HW155581   5.940   4.659  11.020 -0.8771 -0.2841 -0.2778
14619SOL    HW255582   6.067   4.658  10.938 -0.6547  0.1495  0.0543
14620SOL     OW55583   1.724   1.018   3.882 -0.6877 -0.2641  0.0224
14620SOL    HW155584   1.701   0.994   3.792  0.1294  2.3018 -0.9694
14620SOL    HW255585   1.819   1.009   3.886 -0.4958  1.3929 -0.0116
14621SOL     OW55586   8.032   9.070  10.666  0.2382  0.5519  0.1785
14621SOL    HW155587   7.986   9.132  10.723 -0.0466 -1.1537  1.9250
14621SOL    HW255588   8.098   9.124  10.621  0.5191  2.0299  2.1816
14622SOL     OW55589   9.316  11.802   5.651  0.0887  0.3280 -0.1464
14622SOL    HW155590   9.407  11.779   5.673 -0.6551 -1.6120  1.2525
14622SOL    HW255591   9.279  11.834   5.734 -0.8970 -0.3677 -0.2991
14623SOL     OW55592   4.282   4.568   2.761  0.4811  0.3614 -0.4352
14623SOL    HW155593   4.234   4.646   2.733 -1.3650 -0.9716 -1.2269
14623SOL    HW255594   4.239   4.496   2.714 -0.7207 -1.6711  3.3632
14624SOL     OW55595   3.924   6.160   8.241  0.3227  0.0752  0.4879
14624SOL    HW155596   3.902   6.217   8.168  1.1310 -1.0618 -0.6649
14624SOL    HW255597   3.855   6.093   8.242  1.0250 -0.6749 -0.0831
14625SOL     OW55598   2.988   0.710   3.405 -0.0916  0.1094  0.4473
14625SOL    HW155599   2.906   0.700   3.454 -0.6460  0.2623 -0.4291
14625SOL    HW255600   2.967   0.771   3.335  0.8303  0.2919  0.3144
14626SOL     OW55601   8.390   6.567   1.827  0.8068 -0.0621  0.2534
14626SOL    HW155602   8.367   6.502   1.894 -0.8895  1.2386  0.9961
14626SOL    HW255603   8.458   6.524   1.775  1.0386 -1.7225  1.8269
14627SOL     OW55604   5.418   3.956  11.808 -0.4111 -0.8107  0.1303
14627SOL    HW155605   5.501   3.931  11.848  0.3439 -0.2100 -1.0195
14627SOL    HW255606   5.365   3.987  11.881  0.2796 -1.4309  0.9134
14628SOL     OW55607   1.540   3.954   7.458 -0.2736  0.1984  0.0931
14628SOL    HW155608   1.456   3.933   7.499 -1.7335  0.6515 -2.4902
14628SOL    HW255609   1.560   4.042   7.489 -1.7479  0.8557 -0.7272
14629SOL     OW55610  11.793   1.701   8.974 -0.3026 -0.3896 -0.4115
14629SOL    HW155611  11.841   1.719   9.055  1.5442 -0.0109 -1.5228
14629SOL    HW255612  11.716   1.652   9.002  0.2630 -0.2420  1.5715
14630SOL     OW55613   5.828   2.359   8.982  0.2471 -0.2179  0.0646
14630SOL    HW155614   5.738   2.329   8.993 -0.0279 -0.2332 -1.8550
14630SOL    HW255615   5.841   2.423   9.052 -0.0084 -2.8200  2.6323
14631SOL     OW55616   0.643   6.190   8.712  0.0973  0.3206 -0.1056
14631SOL    HW155617   0.669   6.117   8.656  0.1147  0.3894 -0.1867
14631SOL    HW255618   0.600   6.252   8.652  1.5127  1.1211 -0.3360
14632SOL     OW55619   0.803   8.995   1.838  0.0462  0.3452 -0.2147
14632SOL    HW155620   0.890   9.009   1.877  0.2174 -1.1406 -0.0332
14632SOL    HW255621   0.792   8.900   1.837 -2.4320  0.5116  1.6675
14633SOL     OW55622   1.302   3.578  11.764 -0.0121 -0.2566 -0.3228
14633SOL    HW155623   1.260   3.594  11.848 -1.9723 -2.4309 -0.7810
14633SOL    HW255624   1.390   3.549  11.787 -0.0263  0.5913  0.8815
14634SOL     OW55625   2.996   5.423  11.634  0.4255 -0.7080 -0.1263
14634SOL    HW155626   2.998   5.462  11.546  0.4112 -2.0368 -0.7376
14634SOL    HW255627   2.916   5.371  11.635  1.8090 -2.9431 -0.3517
14635SOL     OW55628   9.297   0.078   3.484  0.3394  0.2079  0.2394
14635SOL    HW155629   9.363   0.147   3.491  1.0755 -0.4242 -0.2354
14635SOL    HW255630   9.279   0.052   3.575  0.4947  0.6194  0.3873
14636SOL     OW55631   5.627   5.521   5.314 -0.4474  0.2085  0.6612
14636SOL    HW155632   5.641   5.427   5.323 -0.3424  0.3703  2.4411
14636SOL    HW255633   5.715   5.559   5.322 -0.5013  0.4866  0.0518
14637SOL     OW55634   4.549   1.930  10.601  0.1725 -0.8839  0.7017
14637SOL    HW155635   4.625   1.896  10.553  0.6763  0.6346  0.3826
14637SOL    HW255636   4.586   1.967  10.681 -0.1197  0.5265  0.2027
14638SOL     OW55637   7.310  10.942   3.331 -0.0472 -0.1354  0.9088
14638SOL    HW155638   7.305  10.850   3.353 -0.7034 -0.8486 -1.8024
14638SOL    HW255639   7.373  10.979   3.393  0.7157 -2.5335  1.6429
14639SOL     OW55640   1.798  10.425   8.909  0.1227  0.0419 -0.4655
14639SOL    HW155641   1.801  10.366   8.985 -2.2591 -1.0102 -1.0807
14639SOL    HW255642   1.869  10.395   8.853 -1.7580 -3.3174 -1.3618
14640SOL     OW55643   6.481   9.997   3.618  0.1519 -0.3765  0.3002
14640SOL    HW155644   6.494  10.052   3.695 -0.0188 -1.2172  0.9433
14640SOL    HW255645   6.440   9.917   3.651  0.0551 -0.7509 -0.6643
14641SOL     OW55646   9.672   5.961   4.338  0.0102 -0.8566  0.0702
14641SOL    HW155647   9.655   6.051   4.311  1.2768 -1.0665 -1.5296
14641SOL    HW255648   9.638   5.956   4.428 -0.6157  1.0256 -0.0323
14642SOL     OW55649   8.653  10.796   7.564  0.4476 -0.4422 -0.0028
14642SOL    HW155650   8.733  10.838   7.594 -0.4667  0.8694  0.7414
14642SOL    HW255651   8.608  10.864   7.513  0.2980 -1.4969 -1.3280
14643SOL     OW55652   5.632   6.386   8.403 -0.3751  0.3126  0.0839
14643SOL    HW155653   5.592   6.343   8.328  0.6092 -3.7435  1.6022
14643SOL    HW255654   5.724   6.358   8.400 -0.2803  0.0729  2.6270
14644SOL     OW55655   3.078   6.822   6.342 -0.2096 -0.1662  0.7150
14644SOL    HW155656   3.118   6.828   6.255  0.0755 -1.2170  0.7586
14644SOL    HW255657   3.086   6.729   6.365 -0.3608  0.0879  1.8231
14645SOL     OW55658   9.287  11.920  10.762 -0.1865 -0.1248  0.3602
14645SOL    HW155659   9.378  11.925  10.791 -0.3651 -0.7982  1.0701
14645SOL    HW255660   9.268  12.007  10.725  0.0563  0.7961  2.2870
14646SOL     OW55661   4.007   3.925  10.992  0.1545 -0.1884 -0.2760
14646SOL    HW155662   3.919   3.952  11.019 -0.2765 -1.7154 -0.0503
14646SOL    HW255663   4.047   3.893  11.073  0.4143 -0.7751 -0.6337
14647SOL     OW55664   4.249   1.379  11.162  0.6977  0.4218  0.2579
14647SOL    HW155665   4.258   1.415  11.074 -1.9610 -0.1062 -0.3275
14647SOL    HW255666   4.167   1.415  11.195 -0.8259 -2.9165  0.6148
14648SOL     OW55667   8.995   8.409   4.487 -0.4607  0.2818  0.0883
14648SOL    HW155668   9.030   8.495   4.464  0.0289 -0.0789 -0.5620
14648SOL    HW255669   9.060   8.371   4.545 -0.6985  0.3643  0.4108
14649SOL     OW55670  11.380   2.322   7.715 -0.0774 -0.8419  0.4884
14649SOL    HW155671  11.388   2.231   7.743  0.3877 -0.6831  0.8770
14649SOL    HW255672  11.469   2.357   7.717 -0.4260  0.0325  1.7422
14650SOL     OW55673   4.266   2.567   3.876  0.2534 -0.0674 -0.2515
14650SOL    HW155674   4.196   2.504   3.861  0.4000 -0.4934  0.7561
14650SOL    HW255675   4.328   2.552   3.805  0.7894 -1.8019  0.5287
14651SOL     OW55676  11.916   5.992   2.215  0.2377 -0.4947 -0.1241
14651SOL    HW155677  11.957   5.935   2.280 -0.4545 -0.8123  0.0520
14651SOL    HW255678  11.954   5.965   2.131  0.7937 -0.3988  0.0955
14652SOL     OW55679  11.638   5.421  10.749  0.2092  0.6542 -0.2695
14652SOL    HW155680  11.662   5.330  10.731 -2.8519 -0.2299 -0.2966
14652SOL    HW255681  11.682   5.441  10.832  0.0440 -1.2324  0.3182
14653SOL     OW55682   4.416   1.384   3.821 -0.3600  0.3001 -0.1321
14653SOL    HW155683   4.353   1.320   3.788 -0.3501 -0.0866  0.5880
14653SOL    HW255684   4.366   1.439   3.881 -0.5408  1.4337 -1.2647
14654SOL     OW55685   4.218   0.266   8.418  0.4049 -1.0122  0.4014
14654SOL    HW155686   4.190   0.242   8.329 -1.2103 -0.4474  0.7250
14654SOL    HW255687   4.181   0.197   8.474 -1.5675  0.4491  0.9854
14655SOL     OW55688   6.215   6.468   2.893  0.5060 -0.0802 -1.3073
14655SOL    HW155689   6.248   6.410   2.825 -0.2474 -1.4679 -0.5368
14655SOL    HW255690   6.219   6.416   2.973 -0.8724  0.6665 -0.7204
14656SOL     OW55691   8.887   0.011   0.213  0.1654 -0.0361  0.4151
14656SOL    HW155692   8.907  -0.046   0.138  1.7119 -0.6115  1.2213
14656SOL    HW255693   8.855  -0.048   0.280 -1.0528  0.4612  0.2840
14657SOL     OW55694   2.976   0.246   8.177 -0.2388 -0.2407  0.0829
14657SOL    HW155695   2.923   0.284   8.108  0.8458 -0.5477 -0.9524
14657SOL    HW255696   2.957   0.299   8.254 -0.5998  0.8406 -0.7306
14658SOL     OW55697   9.122   5.383   4.924 -0.2514  0.3274 -0.0053
14658SOL    HW155698   9.102   5.400   5.016  1.9885 -0.1277  0.6307
14658SOL    HW255699   9.153   5.468   4.891  0.2746  0.1745  0.0771
14659SOL     OW55700   6.696   7.601   0.563 -0.3617  0.6542 -0.4129
14659SOL    HW155701   6.668   7.692   0.558 -1.1040  0.4040 -0.8420
14659SOL    HW255702   6.732   7.592   0.651 -1.9921  0.8873  0.3172
14660SOL     OW55703   0.944   7.386   5.414 -0.0746 -0.1580  0.3118
14660SOL    HW155704   0.963   7.294   5.397  0.7350 -0.0520  0.6020
14660SOL    HW255705   0.965   7.399   5.506 -1.5483 -0.0082  0.6510
14661SOL     OW55706   8.113   5.956   7.150  0.2483 -0.4549 -0.3129
14661SOL    HW155707   8.182   5.934   7.088  2.2421  1.9943  0.8542
14661SOL    HW255708   8.068   6.031   7.111  1.1000  0.6895  0.8079
14662SOL     OW55709   6.152  11.178   8.197 -0.4064 -0.7650  0.8347
14662SOL    HW155710   6.117  11.090   8.186  0.2496 -0.8859 -0.4296
14662SOL    HW255711   6.109  11.230   8.129  0.8921 -0.6289  0.0940
14663SOL     OW55712  10.798   1.169  11.500  0.2361  0.6136 -0.4051
14663SOL    HW155713  10.797   1.226  11.424 -0.6339  0.5199 -0.4689
14663SOL    HW255714  10.732   1.205  11.559 -0.0012 -0.0507 -0.2509
14664SOL     OW55715   6.747   3.284  11.630  0.5628 -0.0588  0.0909
14664SOL    HW155716   6.830   3.240  11.612 -0.0626 -1.0865 -0.4077
14664SOL    HW255717   6.713   3.241  11.708  0.8902  0.9542  0.8130
14665SOL     OW55718   1.045   3.023   9.439 -0.1721 -0.4792 -0.4456
14665SOL    HW155719   1.077   3.111   9.461 -0.0266 -0.3070 -1.3049
14665SOL    HW255720   0.976   3.038   9.375 -0.4494 -0.9754 -0.2674
14666SOL     OW55721   2.579   4.691   6.247  0.4611  0.4999  0.1496
14666SOL    HW155722   2.633   4.707   6.169  1.0810  0.1607  0.5037
14666SOL    HW255723   2.639   4.652   6.310 -0.4193 -0.7413  0.2387
14667SOL     OW55724   0.481   3.304   5.664 -0.1710 -0.0425  0.3573
14667SOL    HW155725   0.506   3.395   5.647 -1.4804  0.6423  1.9494
14667SOL    HW255726   0.522   3.283   5.748  2.1664 -1.8033 -1.0567
14668SOL     OW55727   9.079   5.566   0.365 -0.7224 -0.1818 -0.1225
14668SOL    HW155728   9.172   5.552   0.349 -0.2252 -1.2579  3.0377
14668SOL    HW255729   9.035   5.495   0.319  0.3551 -1.6763  1.0540
14669SOL     OW55730   1.926   1.630   8.398 -0.3253  0.0657  0.4591
14669SOL    HW155731   1.990   1.583   8.451 -0.0851  0.5461  0.6044
14669SOL    HW255732   1.978   1.687   8.341 -0.6215  0.6356  0.7459
14670SOL     OW55733  11.029  11.224   2.835 -0.1246 -0.2566  0.1979
14670SOL    HW155734  10.984  11.145   2.806  0.2623 -1.4962  2.7532
14670SOL    HW255735  11.089  11.245   2.762 -3.3602  0.4366 -2.5083
14671SOL     OW55736  11.315   3.853   2.695  0.4973 -0.4016 -0.2741
14671SOL    HW155737  11.303   3.896   2.780 -1.0698 -0.7757 -0.2701
14671SOL    HW255738  11.398   3.806   2.703 -0.2210 -1.4693  1.5281
14672SOL     OW55739   2.136   4.261  11.527 -0.3514  0.1034 -0.7228
14672SOL    HW155740   2.176   4.210  11.598  0.4571  1.0145 -0.5127
14672SOL    HW255741   2.196   4.334  11.513 -2.3801  2.0805  0.2503
14673SOL     OW55742   6.444   6.283   4.943  0.4310 -0.2060  0.2915
14673SOL    HW155743   6.383   6.320   4.879 -0.4099  0.1250  1.2611
14673SOL    HW255744   6.423   6.190   4.945  1.4196 -0.4888 -0.9225
14674SOL     OW55745   6.698   4.515  10.911 -0.3166  0.6658  0.1878
14674SOL    HW155746   6.628   4.481  10.967  1.0491  0.2390  1.7110
14674SOL    HW255747   6.767   4.541  10.972  1.6606 -0.7541 -1.3008
14675SOL     OW55748   6.677   8.411   1.117 -0.3644 -0.2089 -0.0071
14675SOL    HW155749   6.716   8.480   1.170 -1.7158  0.3281  0.3298
14675SOL    HW255750   6.695   8.436   1.026  0.0740  0.0167  0.1441
14676SOL     OW55751   3.955   3.830   4.369 -0.1203 -0.6163  0.1377
14676SOL    HW155752   3.929   3.907   4.320 -0.9347 -0.9250  0.0523
14676SOL    HW255753   4.050   3.835   4.376  0.0613 -0.7236 -1.7316
14677SOL     OW55754   7.616   3.298   7.869 -0.5236 -0.7276  0.1930
14677SOL    HW155755   7.610   3.298   7.773  0.3564 -1.6764  0.1267
14677SOL    HW255756   7.701   3.337   7.887 -1.2409  0.7001  0.6621
14678SOL     OW55757  10.550   6.897   3.884  0.0547 -0.3134  0.6646
14678SOL    HW155758  10.600   6.837   3.939  4.5632  1.3182 -1.1593
14678SOL    HW255759  10.556   6.982   3.927 -0.4891  0.0930 -0.0231
14679SOL     OW55760  10.145   2.653  10.047  0.3525 -0.1850 -0.2515
14679SOL    HW155761  10.052   2.641  10.069  0.6059  0.7138  1.5223
14679SOL    HW255762  10.143   2.693   9.960 -0.9774  0.3364 -0.0192
14680SOL     OW55763   5.776   3.387   0.893  0.7061 -0.0575  0.0481
14680SOL    HW155764   5.809   3.449   0.827 -0.1404 -0.1654 -0.4958
14680SOL    HW255765   5.711   3.335   0.846  1.4147 -1.3763  0.5069
14681SOL     OW55766   6.694   5.056  10.707 -0.0771 -0.1735 -0.7265
14681SOL    HW155767   6.744   5.109  10.644  0.8642 -0.4614 -0.2381
14681SOL    HW255768   6.623   5.114  10.734  1.2503  1.1037  0.2278
14682SOL     OW55769   3.784   4.460   2.191  0.4603 -0.1503  0.4386
14682SOL    HW155770   3.749   4.537   2.236  2.8744  0.0013  2.3004
14682SOL    HW255771   3.809   4.492   2.105 -1.4240  0.3343  0.0268
14683SOL     OW55772   2.181   5.434   9.745  0.1224 -0.0146  0.1913
14683SOL    HW155773   2.221   5.354   9.710 -3.0143 -1.4388 -0.4102
14683SOL    HW255774   2.141   5.407   9.827  0.8076  1.5069  1.0773
14684SOL     OW55775   9.986   1.194   5.278  0.0875 -0.5271 -0.3879
14684SOL    HW155776   9.904   1.145   5.286 -0.3698  0.3152  0.1012
14684SOL    HW255777  10.054   1.128   5.294 -0.5058 -1.0876 -0.1161
14685SOL     OW55778   5.637   1.930   8.854 -0.4904 -0.0710 -0.2118
14685SOL    HW155779   5.567   1.992   8.834 -0.5635 -0.0185  0.1960
14685SOL    HW255780   5.677   1.964   8.934 -1.8838 -1.6397  1.2476
14686SOL     OW55781   5.121   0.947   2.680 -0.9692  0.2837  0.5256
14686SOL    HW155782   5.147   1.039   2.684 -0.7048  0.1600  1.8450
14686SOL    HW255783   5.192   0.904   2.631 -2.1302  1.0985 -2.0868
14687SOL     OW55784   5.654  11.917  10.945 -0.6523 -0.7386 -0.2707
14687SOL    HW155785   5.640  11.959  11.030  1.3658 -0.4245 -0.0421
14687SOL    HW255786   5.653  11.823  10.964  0.4879 -0.6637  0.2689
14688SOL     OW55787   1.969   5.173   8.594  0.1539  0.4768  0.0322
14688SOL    HW155788   1.916   5.172   8.674 -0.6581 -1.2165 -0.4848
14688SOL    HW255789   2.045   5.226   8.617  1.1625 -1.8652  2.7636
14689SOL     OW55790   2.454   8.804  10.952  0.2017 -0.0378  0.1202
14689SOL    HW155791   2.435   8.766  10.866 -0.6430 -2.2808  1.1815
14689SOL    HW255792   2.432   8.896  10.943  0.7597 -0.0726 -2.2306
14690SOL     OW55793   3.975   4.186   8.246  0.4822  0.6869 -0.0372
14690SOL    HW155794   3.935   4.272   8.231  1.1384  1.3336  1.7594
14690SOL    HW255795   3.938   4.131   8.177 -0.9619  2.0755 -0.4318
14691SOL     OW55796   8.131   6.489  10.630 -0.2824 -0.3906 -0.4925
14691SOL    HW155797   8.134   6.532  10.544 -0.1216  2.1207  0.6753
14691SOL    HW255798   8.221   6.463  10.648 -0.0992  0.1424 -0.6151
14692SOL     OW55799   2.999   6.644  10.296 -0.1694  0.0762  0.1575
14692SOL    HW155800   2.922   6.699  10.312 -1.0892 -0.6515 -1.5408
14692SOL    HW255801   3.006   6.639  10.201  0.3144 -2.1262  0.2630
14693SOL     OW55802   9.548   4.419   2.449 -0.0871  0.7349  0.1648
14693SOL    HW155803   9.568   4.332   2.483 -2.1800 -1.0245 -2.6397
14693SOL    HW255804   9.466   4.444   2.492 -0.6991  0.2226 -0.6586
14694SOL     OW55805  11.291   0.511   3.845 -0.2386  0.6792 -0.9490
14694SOL    HW155806  11.385   0.495   3.840 -0.0300  1.9694 -1.5424
14694SOL    HW255807  11.260   0.452   3.913  0.6280 -1.4099 -2.2583
14695SOL     OW55808   3.041  10.437   4.637 -0.3238 -0.2902  0.0822
14695SOL    HW155809   3.046  10.519   4.687 -1.4126  0.7243 -1.4053
14695SOL    HW255810   3.086  10.457   4.555  0.4788 -1.5991  0.1701
14696SOL     OW55811  10.348   3.916   8.402 -0.6124 -0.6651 -0.1156
14696SOL    HW155812  10.326   3.963   8.483 -3.2568 -1.2354 -0.3993
14696SOL    HW255813  10.413   3.971   8.359  0.1290  0.1510  1.9095
14697SOL     OW55814   0.057   6.592   0.913 -0.7274 -0.0056 -0.6519
14697SOL    HW155815   0.016   6.658   0.969  0.7053  0.1208  0.3127
14697SOL    HW255816   0.132   6.562   0.964  0.8774  0.3925 -2.6684
14698SOL     OW55817   4.242   8.946   0.150  0.8050 -0.0377  0.2972
14698SOL    HW155818   4.304   8.876   0.132  0.4966 -0.0968 -0.6007
14698SOL    HW255819   4.161   8.901   0.173  0.4399 -0.0007 -0.8592
14699SOL     OW55820   3.032   4.775   5.298  0.0063 -0.3029  0.0787
14699SOL    HW155821   3.064   4.831   5.227 -1.1604 -0.0489 -0.2693
14699SOL    HW255822   3.094   4.790   5.369  1.3047 -0.7074 -0.9224
14700SOL     OW55823   8.798   8.888   8.408 -0.2794 -0.3532  0.4715
14700SOL    HW155824   8.795   8.963   8.466 -2.0717 -0.5026  0.6424
14700SOL    HW255825   8.830   8.922   8.324 -0.3447  0.4326  0.7647
14701SOL     OW55826   3.692   4.045   1.237 -0.4823  0.1519 -0.1889
14701SOL    HW155827   3.706   3.956   1.266 -0.2393  0.1566 -0.2870
14701SOL    HW255828   3.668   4.093   1.316 -1.4712 -0.1762 -0.2774
14702SOL     OW55829   5.049  10.085   7.515 -0.3298 -0.6460 -0.0475
14702SOL    HW155830   5.079  10.172   7.488  0.7717 -1.5571 -1.9366
14702SOL    HW255831   5.010  10.100   7.602 -0.6022  1.7887 -0.4919
14703SOL     OW55832   4.808   5.435   6.155 -0.0854 -0.4988  0.1200
14703SOL    HW155833   4.763   5.351   6.167  0.2949 -0.7908 -0.4364
14703SOL    HW255834   4.888   5.427   6.208 -0.4483 -0.1583  0.7356
14704SOL     OW55835   2.533   1.028   7.748 -0.2856  0.0794 -0.1055
14704SOL    HW155836   2.620   1.010   7.784  0.3512  0.6381 -1.2621
14704SOL    HW255837   2.481   1.058   7.822  1.0991  1.6427  0.3078
14705SOL     OW55838  11.654   7.944   9.517  0.4194 -0.3450 -0.1190
14705SOL    HW155839  11.615   7.953   9.604  0.5705 -0.4841 -0.0352
14705SOL    HW255840  11.717   8.016   9.512  2.1879 -1.7322  0.8516
14706SOL     OW55841   2.964   1.754   0.728 -0.2033  0.1738  0.8573
14706SOL    HW155842   2.942   1.715   0.643  0.3232 -0.6406  1.0862
14706SOL    HW255843   2.882   1.754   0.777 -0.2998 -0.2399  0.6949
14707SOL     OW55844   1.966   4.567   6.484  0.1225  0.0302 -0.1568
14707SOL    HW155845   1.924   4.595   6.565  0.5811  1.3841 -0.3705
14707SOL    HW255846   1.973   4.646   6.431  1.7290 -0.4127 -0.6655
14708SOL     OW55847   8.006   8.915   9.576  0.0529  0.1552 -0.1489
14708SOL    HW155848   8.088   8.866   9.583  0.3793  0.8666  1.6164
14708SOL    HW255849   8.013   8.983   9.644 -0.4666  2.5419 -2.3350
14709SOL     OW55850   0.957   1.064   2.993  0.0527 -0.7549  0.4799
14709SOL    HW155851   0.931   0.972   2.983  1.4627 -1.0040 -1.5142
14709SOL    HW255852   0.918   1.108   2.918 -1.4753  0.5628  1.9592
14710SOL     OW55853   1.126  10.153  10.743  0.8099 -0.1255  0.4430
14710SOL    HW155854   1.054  10.106  10.786 -1.5809  1.8466 -1.1111
14710SOL    HW255855   1.095  10.244  10.737  1.6875  0.1210 -3.6283
14711SOL     OW55856  10.613   5.541   9.113  0.5306 -0.4572  0.3088
14711SOL    HW155857  10.600   5.476   9.182 -1.1759  0.1600  0.6288
14711SOL    HW255858  10.644   5.619   9.159  0.5052 -0.3985  0.2265
14712SOL     OW55859   9.313   6.311   4.003 -0.4068  0.0923  0.2891
14712SOL    HW155860   9.357   6.296   3.919  1.1760 -0.8731  1.2317
14712SOL    HW255861   9.220   6.300   3.983 -0.0287 -0.6946 -1.2297
14713SOL     OW55862   2.861   5.328   1.374  0.5249  0.1240  0.0879
14713SOL    HW155863   2.774   5.326   1.414  0.4245  1.4718 -0.0239
14713SOL    HW255864   2.893   5.417   1.389  1.7846 -0.2720 -0.1018
14714SOL     OW55865   0.840   0.044   4.765 -0.3543  0.9347 -0.1683
14714SOL    HW155866   0.752   0.055   4.799 -0.0250  1.0084  0.7007
14714SOL    HW255867   0.867   0.132   4.738 -0.5673  0.9008 -0.4934
14715SOL     OW55868   8.940   9.925   9.603  0.4274  0.2378 -0.1528
14715SOL    HW155869   8.856   9.880   9.614 -0.4257  1.2318 -2.1405
14715SOL    HW255870   8.936   9.998   9.665  1.5876 -1.9036  2.6823
14716SOL     OW55871   4.042  11.078   9.328  0.3071 -0.2735  0.3649
14716SOL    HW155872   4.132  11.065   9.357  1.1927 -0.8209 -2.3327
14716SOL    HW255873   3.988  11.037   9.396  2.0670 -0.0466  1.9669
14717SOL     OW55874   2.190   6.596   8.406  0.2113  0.1482  0.2898
14717SOL    HW155875   2.170   6.582   8.313  1.9974  1.2038 -0.2985
14717SOL    HW255876   2.141   6.676   8.428 -0.9747 -0.6230  0.5528
14718SOL     OW55877   5.044   7.103   0.434  0.5641 -0.0151 -0.3964
14718SOL    HW155878   4.979   7.166   0.462  0.6955 -0.7029  1.5823
14718SOL    HW255879   5.119   7.119   0.491  1.0679 -1.1191 -0.7224
14719SOL     OW55880   1.333   0.954   0.297 -0.1078  0.0108 -0.4374
14719SOL    HW155881   1.413   0.980   0.342 -0.3069 -0.9121  0.4814
14719SOL    HW255882   1.282   1.034   0.291  0.3674  0.3533  0.0416
14720SOL     OW55883   3.811   5.517  10.343  0.3874  0.0064  0.1181
14720SOL    HW155884   3.730   5.483  10.305  0.8880 -0.1859 -0.7924
14720SOL    HW255885   3.828   5.460  10.419 -0.1115 -0.2015  0.0741
14721SOL     OW55886   9.493   7.130  10.763  0.5829  0.1117  0.0763
14721SOL    HW155887   9.451   7.069  10.824  3.5596 -2.1427  0.1298
14721SOL    HW255888   9.453   7.109  10.678  0.4858 -0.8739  0.3480
14722SOL     OW55889   8.148  10.839   8.538  0.2917  0.3278  0.2482
14722SOL    HW155890   8.128  10.780   8.612 -0.5768  0.7632  0.3733
14722SOL    HW255891   8.231  10.879   8.562  1.9019 -2.1707 -0.6788
14723SOL     OW55892   3.463   4.894   2.220  0.0234 -0.0882 -0.3177
14723SOL    HW155893   3.486   4.929   2.134 -1.2401  0.6928 -0.3601
14723SOL    HW255894   3.425   4.968   2.267  0.9617 -0.4278  1.0338
14724SOL     OW55895   3.050   6.375   3.042  0.1461 -0.8380  0.4741
14724SOL    HW155896   3.024   6.456   3.086  2.0634 -0.9592  1.9699
14724SOL    HW255897   2.978   6.357   2.982 -1.4533  0.6916  1.7947
14725SOL     OW55898   7.329   9.571   7.547 -0.1503 -0.2651  0.1075
14725SOL    HW155899   7.397   9.520   7.593  0.6188  1.0139  0.4296
14725SOL    HW255900   7.251   9.561   7.601 -0.1795 -1.5233 -0.1177
14726SOL     OW55901   4.230  10.913  11.525  0.0111  0.2920 -0.2123
14726SOL    HW155902   4.228  10.826  11.564 -1.5656  0.5108  0.2628
14726SOL    HW255903   4.301  10.958  11.572 -1.6910  0.4852  2.3657
14727SOL     OW55904   5.058   2.986   5.088  0.4358  0.2361 -0.0602
14727SOL    HW155905   5.013   3.017   5.009 -0.7194 -0.7340  0.1989
14727SOL    HW255906   5.140   2.948   5.055 -0.5651 -1.2392 -0.9515
14728SOL     OW55907   9.482   4.552   7.691  0.1763 -0.1781 -0.0241
14728SOL    HW155908   9.555   4.565   7.630  0.0121  2.1977  0.2008
14728SOL    HW255909   9.516   4.582   7.776  0.1620 -2.7443  0.9795
14729SOL     OW55910   7.291   1.213   6.800  0.6393 -0.0556 -0.0350
14729SOL    HW155911   7.288   1.278   6.869  1.2895 -0.9336  0.8549
14729SOL    HW255912   7.303   1.263   6.719 -0.3395  0.9987  0.4438
14730SOL     OW55913   8.997   2.555  11.270 -0.0938  0.3163 -0.1802
14730SOL    HW155914   9.047   2.589  11.345  0.8281  0.3076 -0.7640
14730SOL    HW255915   8.946   2.483  11.305 -0.9396  1.3472  0.7756
14731SOL     OW55916   9.623  10.519  10.106 -0.4310 -0.4085  0.4896
14731SOL    HW155917   9.606  10.430  10.137 -1.8893 -0.9546 -1.6138
14731SOL    HW255918   9.668  10.506  10.022 -1.1459  0.8130 -0.1074
14732SOL     OW55919   6.770   9.903   3.378  0.8395 -0.0677  0.6941
14732SOL    HW155920   6.677   9.915   3.398  0.2384 -0.6204 -1.5543
14732SOL    HW255921   6.815   9.928   3.459 -1.1369  2.0335  1.2651
14733SOL     OW55922  10.218   0.146  11.135 -0.6219  0.3686  0.2977
14733SOL    HW155923  10.265   0.202  11.197  1.3824 -1.3107  0.4319
14733SOL    HW255924  10.171   0.084  11.191 -1.2992  0.7333  0.1382
14734SOL     OW55925  10.991   1.514   6.091 -0.3431  0.0692 -0.0969
14734SOL    HW155926  10.927   1.557   6.034 -0.7422  0.2893  0.4999
14734SOL    HW255927  10.987   1.422   6.067  0.1295  0.2829 -1.0223
14735SOL     OW55928   0.606   1.003   2.296  0.2806  0.2265 -0.1572
14735SOL    HW155929   0.540   0.969   2.357  0.4188 -0.7509 -0.5296
14735SOL    HW255930   0.671   1.045   2.352  0.8964 -1.4876  0.4797
14736SOL     OW55931   8.327   6.634   6.906 -0.0217  0.2350 -0.4089
14736SOL    HW155932   8.242   6.667   6.878  0.3608  2.6193  1.0344
14736SOL    HW255933   8.308   6.549   6.947 -1.1572 -1.0379 -3.3208
14737SOL     OW55934   4.036   0.366  10.124 -0.2568  0.1302 -0.6895
14737SOL    HW155935   4.051   0.428  10.053 -0.0300  1.7141  0.6725
14737SOL    HW255936   3.989   0.417  10.191  0.3229 -1.0386  0.6665
14738SOL     OW55937   0.973   1.889  10.474  0.1420  0.1722  0.2375
14738SOL    HW155938   0.911   1.893  10.401 -0.2518  0.2857  0.5741
14738SOL    HW255939   0.920   1.858  10.548  0.3494  0.8381  0.6726
14739SOL     OW55940  11.304   3.112   9.060  0.4138  0.5833  0.1004
14739SOL    HW155941  11.276   3.191   9.107 -0.2869  0.2095  0.3240
14739SOL    HW255942  11.261   3.120   8.975 -0.1070  0.1719  0.3225
14740SOL     OW55943   4.831   1.958  10.733 -0.0874  0.6196 -0.4471
14740SOL    HW155944   4.763   2.025  10.735 -0.1486  0.5731 -1.0153
14740SOL    HW255945   4.903   1.996  10.783 -0.4381  0.7600 -0.0340
14741SOL     OW55946   7.927   0.803   6.369 -0.0471  0.2590 -0.7698
14741SOL    HW155947   7.850   0.857   6.390 -0.2925 -0.1408 -0.6376
14741SOL    HW255948   7.890   0.723   6.332  0.2827 -0.2514  0.0016
14742SOL     OW55949   8.260   0.963   2.438 -0.0939 -0.3742  0.3013
14742SOL    HW155950   8.300   0.876   2.439  0.1591 -0.2925 -1.1171
14742SOL    HW255951   8.330   1.022   2.464  0.3801 -0.3610 -0.9801
14743SOL     OW55952   0.695   1.254   0.485 -0.5054 -0.6329  0.0544
14743SOL    HW155953   0.712   1.191   0.555 -0.0481 -0.4653  0.1014
14743SOL    HW255954   0.601   1.247   0.468 -0.1851 -2.6912 -1.2331
14744SOL     OW55955   3.127  10.635   9.032  0.1988  0.4886 -0.0016
14744SOL    HW155956   3.171  10.579   9.097  0.9434 -0.0223 -0.9250
14744SOL    HW255957   3.141  10.724   9.065  1.8164  0.3286 -0.1839
14745SOL     OW55958   5.352   9.116   3.711  0.0374  0.4790  0.2564
14745SOL    HW155959   5.402   9.036   3.693 -1.2219 -0.2605 -0.0211
14745SOL    HW255960   5.419   9.185   3.714  1.1645 -0.5863  0.6279
14746SOL     OW55961   1.901   0.059   1.520  0.5115  0.4086  0.3478
14746SOL    HW155962   1.991   0.029   1.506  0.7567 -0.1380  2.7470
14746SOL    HW255963   1.850  -0.022   1.530 -0.3373  0.7039 -1.1454
14747SOL     OW55964  10.460   2.043   3.652 -0.6104  0.4435 -0.3870
14747SOL    HW155965  10.410   2.053   3.732  0.8633 -1.0981  0.7937
14747SOL    HW255966  10.549   2.023   3.681  0.3728  1.5574 -2.4099
14748SOL     OW55967   8.838   0.515   6.501 -0.3191  0.1505  0.1462
14748SOL    HW155968   8.861   0.438   6.553 -0.0961  0.4612  0.5104
14748SOL    HW255969   8.871   0.589   6.551  0.0690  0.4454 -0.5279
14749SOL     OW55970   6.992   3.981   4.090  0.0940  0.1615 -0.5337
14749SOL    HW155971   6.929   4.046   4.059  1.1627  1.8964  0.7675
14749SOL    HW255972   7.076   4.027   4.091  1.0366 -1.4684 -0.2513
14750SOL     OW55973   7.972   9.227   7.281 -0.3880 -0.1685  0.4226
14750SOL    HW155974   7.968   9.163   7.210 -0.8982 -1.0382  1.2145
14750SOL    HW255975   8.039   9.290   7.253 -1.2570  0.0641 -1.2713
14751SOL     OW55976   9.505   6.673   8.376 -0.2356  0.2424  0.0195
14751SOL    HW155977   9.416   6.680   8.411 -0.0082 -0.7216  0.8679
14751SOL    HW255978   9.557   6.727   8.435  0.2298 -1.7786  1.5879
14752SOL     OW55979   4.349   8.420  11.498 -0.0952 -0.6358 -0.1523
14752SOL    HW155980   4.349   8.390  11.407 -0.9670  1.3087 -0.8422
14752SOL    HW255981   4.435   8.395  11.531  1.3213  1.0221 -2.3669
14753SOL     OW55982   5.815   8.430   3.651  0.1655 -0.2305  0.2130
14753SOL    HW155983   5.843   8.440   3.560  1.0835  2.0704  0.6685
14753SOL    HW255984   5.880   8.370   3.689  1.4513  0.9786 -0.0111
14754SOL     OW55985   6.179   1.276   7.999  0.4351  0.0180 -0.0545
14754SOL    HW155986   6.234   1.250   7.925  1.1904 -0.4997  0.6693
14754SOL    HW255987   6.236   1.266   8.076 -0.5974 -0.3248  0.6892
14755SOL     OW55988   7.331   7.915   4.450 -0.4984 -0.6031  0.4631
14755SOL    HW155989   7.334   7.992   4.393  0.0294 -1.0916 -0.1813
14755SOL    HW255990   7.409   7.922   4.504 -0.5938 -0.5454  0.5942
14756SOL     OW55991  10.358   0.784   1.352  0.0522 -0.1796 -0.0588
14756SOL    HW155992  10.307   0.825   1.283 -1.9236  0.1075  1.4739
14756SOL    HW255993  10.420   0.851   1.380 -0.3399  0.3180 -0.3703
14757SOL     OW55994   1.822  10.078   5.655 -0.0305 -0.0434  0.0805
14757SOL    HW155995   1.873  10.148   5.697 -0.6420  1.0562 -0.9593
14757SOL    HW255996   1.886  10.009   5.639  1.3459  1.5608 -1.8167
14758SOL     OW55997  10.351   5.834   5.770  0.1232 -0.0777 -0.3774
14758SOL    HW155998  10.377   5.838   5.678 -1.3020  0.3710 -0.7926
14758SOL    HW255999  10.275   5.892   5.776  0.3444  0.1028  1.1455
14759SOL     OW56000   1.729  11.666  11.599 -0.4110  0.2308 -0.1035
14759SOL    HW156001   1.800  11.726  11.576  0.7295 -1.8567 -2.6003
14759SOL    HW256002   1.723  11.607  11.524 -2.5103 -1.7864  1.5155
14760SOL     OW56003  10.919   3.425   5.359 -0.4143 -0.3308  0.1705
14760SOL    HW156004  10.881   3.353   5.410  0.8258 -0.2061  1.3106
14760SOL    HW256005  10.879   3.504   5.397  3.0174  0.0684  3.4729
14761SOL     OW56006   8.918  10.991   0.947 -0.3898  0.5223 -0.4456
14761SOL    HW156007   8.959  10.981   0.862 -1.9813 -0.4909 -1.1524
14761SOL    HW256008   8.847  10.926   0.947  1.6797 -2.0869  3.0230
14762SOL     OW56009   4.508   6.642   7.298 -0.3149 -0.0168 -0.2090
14762SOL    HW156010   4.592   6.667   7.336  0.5180 -1.4766 -0.9703
14762SOL    HW256011   4.443   6.688   7.350  0.9405  0.8252  0.6693
14763SOL     OW56012   9.823   9.280   8.665  0.9008 -0.4217  0.3007
14763SOL    HW156013   9.864   9.338   8.600  2.0321 -0.7544  0.7083
14763SOL    HW256014   9.891   9.264   8.730 -0.0568 -0.5324  1.2992
14764SOL     OW56015  11.456   4.640   5.730  0.6250  0.4371  0.3520
14764SOL    HW156016  11.528   4.702   5.716  0.4182  0.2554 -1.9946
14764SOL    HW256017  11.498   4.556   5.744  0.8759  0.5711  0.4032
14765SOL     OW56018   3.214   9.660   7.814  0.2430 -0.0469  0.0156
14765SOL    HW156019   3.232   9.717   7.740  0.2735 -0.0460  0.0236
14765SOL    HW256020   3.269   9.694   7.885 -0.9813  0.9795  0.5289
14766SOL     OW56021   7.363   0.618   7.016  0.0686 -0.4236  0.0655
14766SOL    HW156022   7.272   0.636   6.989 -0.2106 -1.6193  0.1534
14766SOL    HW256023   7.399   0.568   6.943  0.9001  0.6416 -0.2831
14767SOL     OW56024   8.527   1.586   4.458  0.1774  0.3755  0.4895
14767SOL    HW156025   8.534   1.524   4.385  0.8354  1.3176 -0.2737
14767SOL    HW256026   8.456   1.645   4.433  0.2143  0.5334  0.7492
14768SOL     OW56027   9.468   3.384   5.719  0.0566  0.4388  0.4486
14768SOL    HW156028   9.478   3.455   5.782 -0.1528  0.9245 -0.0551
14768SOL    HW256029   9.553   3.340   5.719  0.5323  1.3236  0.0149
14769SOL     OW56030  10.443   0.152   8.037 -0.0916 -0.2017 -0.0157
14769SOL    HW156031  10.437   0.078   8.098  1.8527  0.9168  1.6862
14769SOL    HW256032  10.378   0.215   8.069 -0.3956 -0.3798 -0.2783
14770SOL     OW56033   1.135   1.994   8.295 -0.3643 -0.1398 -0.0395
14770SOL    HW156034   1.107   2.017   8.207  0.7150 -0.9626 -0.6309
14770SOL    HW256035   1.103   1.905   8.309 -1.0914  0.2146  0.6745
14771SOL     OW56036  11.096   2.987  11.482  1.3225 -0.2273  0.5341
14771SOL    HW156037  11.001   2.985  11.473  1.3021 -3.2754  0.3115
14771SOL    HW256038  11.112   3.048  11.554 -0.9994 -1.2213  2.0243
14772SOL     OW56039   4.877   8.773   6.007  0.4875  0.3324 -0.1097
14772SOL    HW156040   4.898   8.718   6.083  0.1695  0.4950  0.0942
14772SOL    HW256041   4.828   8.847   6.043 -0.6100 -0.1348 -0.5976
14773SOL     OW56042  10.506  11.851  11.025 -0.8596  0.6114  0.2603
14773SOL    HW156043  10.593  11.884  11.000 -2.1808  2.4045 -2.4885
14773SOL    HW256044  10.523  11.794  11.100  2.7057  0.6796 -0.3045
14774SOL     OW56045   7.219   3.059   7.698 -0.0067 -0.0716  0.7126
14774SOL    HW156046   7.223   3.025   7.609  0.2177  1.8758 -0.0652
14774SOL    HW256047   7.156   3.002   7.743 -0.1064 -1.0971 -0.6688
14775SOL     OW56048   2.451   8.901   7.408 -0.5898  0.9423  0.1991
14775SOL    HW156049   2.467   8.819   7.361 -0.8339  0.6600  0.5990
14775SOL    HW256050   2.526   8.910   7.467 -1.4173  0.0857  1.4264
14776SOL     OW56051   9.808   0.492   8.186 -0.1072 -0.1665  0.0127
14776SOL    HW156052   9.716   0.519   8.196 -0.0387 -0.1423  0.5944
14776SOL    HW256053   9.850   0.521   8.266  0.2274 -0.9652  0.1310
14777SOL     OW56054   9.327   3.680   4.801 -0.1754  0.3412 -0.0645
14777SOL    HW156055   9.243   3.639   4.820  0.7155 -1.1412  0.9120
14777SOL    HW256056   9.364   3.625   4.731  1.1010 -0.7071  1.3634
14778SOL     OW56057   9.688   6.397   5.431 -0.7198 -0.7899  0.1948
14778SOL    HW156058   9.604   6.360   5.403 -0.2328 -1.4295 -0.4670
14778SOL    HW256059   9.740   6.401   5.351  0.8208 -2.9105  0.9810
14779SOL     OW56060   0.170   1.449   4.533 -0.1191 -0.1176 -0.0493
14779SOL    HW156061   0.253   1.486   4.564  0.7037 -0.5496 -1.6528
14779SOL    HW256062   0.157   1.487   4.446 -1.5289 -0.2123  0.0852
14780SOL     OW56063   4.477   5.077   1.980 -0.5919 -0.3384 -0.3578
14780SOL    HW156064   4.395   5.080   2.030 -1.2742  2.2942 -1.4429
14780SOL    HW256065   4.452   5.043   1.895 -0.2427 -0.9275 -0.2299
14781SOL     OW56066   0.391   1.087  10.683 -0.7736 -0.0056 -0.1696
14781SOL    HW156067   0.465   1.147  10.694  2.8421 -3.8531 -0.9893
14781SOL    HW256068   0.376   1.085  10.589 -2.9664  1.6686  0.0693
14782SOL     OW56069   6.793  11.320   7.866  0.1867  0.6274  0.2159
14782SOL    HW156070   6.756  11.391   7.814 -0.3749 -0.3227 -0.7455
14782SOL    HW256071   6.773  11.241   7.815 -0.4097 -0.3527  1.9001
14783SOL     OW56072   2.456   5.753   7.770  0.0020 -0.2785  0.1092
14783SOL    HW156073   2.523   5.685   7.761  0.5153  0.0043  1.5293
14783SOL    HW256074   2.373   5.706   7.766  0.2587 -0.6767 -1.3120
14784SOL     OW56075   1.374   4.831   1.636  0.5133  0.8662  0.0307
14784SOL    HW156076   1.383   4.803   1.727  1.0292  0.4828 -0.1365
14784SOL    HW256077   1.396   4.754   1.584  0.3929  1.1330 -0.4242
14785SOL     OW56078   1.349   1.039   3.589 -0.5912 -0.0748  0.4894
14785SOL    HW156079   1.382   1.124   3.618  1.7788  0.1103 -2.2762
14785SOL    HW256080   1.285   1.060   3.520  0.1344 -0.4722 -0.3300
14786SOL     OW56081   5.776   3.791   2.659 -0.4832 -0.1212 -0.3165
14786SOL    HW156082   5.799   3.758   2.572 -1.4620 -0.7901 -0.3420
14786SOL    HW256083   5.681   3.805   2.655 -0.9283 -2.2015  1.2604
14787SOL     OW56084   0.761   1.772   9.607 -0.2133 -0.0507 -0.5219
14787SOL    HW156085   0.718   1.691   9.579 -1.9199  0.0049  1.6326
14787SOL    HW256086   0.690   1.836   9.612  0.9159  1.2922 -1.0589
14788SOL     OW56087  11.249   5.494   5.023  0.5330  0.1346 -0.2362
14788SOL    HW156088  11.219   5.450   5.102 -0.5292 -0.0812 -0.7338
14788SOL    HW256089  11.329   5.540   5.049  0.3771 -0.2018  0.8674
14789SOL     OW56090   1.578   9.314   1.626  0.2434  0.3388  0.0905
14789SOL    HW156091   1.492   9.304   1.585  0.2468 -0.8564  0.3261
14789SOL    HW256092   1.581   9.405   1.654 -0.5685  0.6407 -0.7607
14790SOL     OW56093   7.546  10.819   2.748  0.2312 -0.5590  0.6047
14790SOL    HW156094   7.602  10.749   2.782 -2.3537 -1.5189  3.2990
14790SOL    HW256095   7.587  10.900   2.778  0.2502 -1.2399  2.5684
14791SOL     OW56096   5.575  10.115   8.963  0.1568 -0.1388 -0.3239
14791SOL    HW156097   5.581  10.124   8.868  0.6023  0.9042 -0.2069
14791SOL    HW256098   5.642  10.173   8.997  0.4464 -0.9935  0.6244
14792SOL     OW56099  10.647   1.030   7.033  0.0869 -0.0278  0.0280
14792SOL    HW156100  10.587   1.032   6.958  1.3660  0.9527 -1.0075
14792SOL    HW256101  10.636   1.115   7.075  0.0184 -0.2418  0.4524
14793SOL     OW56102  11.861   8.402   0.830 -0.0432 -0.3080  0.0894
14793SOL    HW156103  11.845   8.319   0.875  1.4650 -0.1375  0.9897
14793SOL    HW256104  11.901   8.376   0.747 -0.6897 -0.5190 -0.1641
14794SOL     OW56105   4.249   5.849   5.666  0.0672  0.4490 -0.4001
14794SOL    HW156106   4.168   5.901   5.663 -0.3072  0.0495  1.3358
14794SOL    HW256107   4.253   5.818   5.757  2.1074  0.3327 -0.5035
14795SOL     OW56108   6.633   1.564   8.939 -0.4010  0.4547  0.6745
14795SOL    HW156109   6.669   1.497   8.881 -0.4081  0.7400  0.3292
14795SOL    HW256110   6.687   1.561   9.017 -0.6512 -0.2208  0.8243
14796SOL     OW56111   2.556  10.802   0.298 -0.7916 -0.1975 -0.7235
14796SOL    HW156112   2.537  10.880   0.349  0.3789 -0.4638  0.1692
14796SOL    HW256113   2.508  10.732   0.343 -0.0658 -0.3645 -0.1834
14797SOL     OW56114   6.585   0.510   3.358 -0.0392  0.4730 -0.2751
14797SOL    HW156115   6.588   0.600   3.327  2.9081  0.0139 -1.6781
14797SOL    HW256116   6.515   0.469   3.307  1.3552  1.0005 -2.7736
14798SOL     OW56117   7.971   3.373   6.279  0.2542 -0.0939  0.2745
14798SOL    HW156118   8.035   3.324   6.228 -0.4571 -1.8287  0.9632
14798SOL    HW256119   7.920   3.421   6.213  0.4143 -0.9720 -0.5188
14799SOL     OW56120   9.033   3.105  11.081  0.1397  0.3005 -0.0983
14799SOL    HW156121   8.949   3.094  11.036  2.0991 -0.4853 -3.9420
14799SOL    HW256122   9.048   3.200  11.081 -0.0458  0.3341 -0.8376
14800SOL     OW56123   6.162   5.777   5.736 -0.5568  0.2427 -0.4050
14800SOL    HW156124   6.096   5.746   5.798  0.3213 -1.7814 -0.4094
14800SOL    HW256125   6.200   5.854   5.777 -0.6429 -0.5128  1.1356
14801SOL     OW56126   7.513  11.955   1.082 -0.0255  0.1665  0.2809
14801SOL    HW156127   7.563  12.021   1.131  0.7825  1.1648 -1.7483
14801SOL    HW256128   7.556  11.872   1.103 -0.6163  0.3189  2.3336
14802SOL     OW56129   5.898  11.192   2.915  0.4846 -0.1609  0.0229
14802SOL    HW156130   5.984  11.235   2.915  0.2333  0.3515 -0.4751
14802SOL    HW256131   5.915  11.108   2.872  0.9036 -0.4180  0.6759
14803SOL     OW56132   1.467  11.423  11.532  0.4256 -0.1702 -0.2068
14803SOL    HW156133   1.445  11.362  11.602 -2.7671  2.0307  0.8837
14803SOL    HW256134   1.384  11.443  11.490  2.0477 -0.3763 -3.9108
14804SOL     OW56135   6.131   6.448   1.893  0.6839  0.1349 -0.1946
14804SOL    HW156136   6.071   6.470   1.822  0.9033 -0.3322 -0.5314
14804SOL    HW256137   6.089   6.483   1.972  0.5158  0.7935 -0.5752
14805SOL     OW56138   5.575   1.752   4.924 -0.8101 -0.0526 -0.4097
14805SOL    HW156139   5.499   1.742   4.866 -0.9942 -2.8361  0.1809
14805SOL    HW256140   5.634   1.681   4.897  0.5866  0.6918  0.6149
14806SOL     OW56141   0.297   1.587   9.320 -0.2380  0.2068  0.0426
14806SOL    HW156142   0.335   1.619   9.238  3.6149  0.2478  1.6366
14806SOL    HW256143   0.240   1.658   9.349  2.5309  2.6829 -0.0600
14807SOL     OW56144   9.745   5.578   6.708  0.5919  0.2947 -0.9084
14807SOL    HW156145   9.729   5.665   6.670  0.2701  1.0519  0.8579
14807SOL    HW256146   9.659   5.537   6.712  0.3417  0.9126  0.5580
14808SOL     OW56147   3.425   3.003   1.677  0.0770  0.7585 -0.1129
14808SOL    HW156148   3.371   3.068   1.631  0.2166  1.7336  1.0615
14808SOL    HW256149   3.364   2.934   1.702 -1.0338  2.6021  2.6378
14809SOL     OW56150   2.744  10.277   7.743  0.2667  0.4029 -0.6045
14809SOL    HW156151   2.655  10.248   7.727  0.0259  0.7487  0.0889
14809SOL    HW256152   2.777  10.302   7.656 -0.2317  0.0689 -0.8900
14810SOL     OW56153   9.974   4.704   7.156  0.6770 -0.3488  0.4738
14810SOL    HW156154   9.912   4.706   7.229  0.0014  0.6397 -0.1147
14810SOL    HW256155   9.945   4.632   7.101 -0.3071  0.4705 -0.0972
14811SOL     OW56156   5.143   0.577   2.572 -0.6740  0.6461 -0.3069
14811SOL    HW156157   5.173   0.540   2.489  0.8362  0.9856  0.0731
14811SOL    HW256158   5.205   0.647   2.592 -0.7134  0.2484  1.3668
14812SOL     OW56159   6.148   1.219  10.488  0.7898 -0.6896  0.2624
14812SOL    HW156160   6.182   1.138  10.451  0.2384 -0.9468  0.2989
14812SOL    HW256161   6.086   1.190  10.555 -2.2778 -0.3652 -2.1800
14813SOL     OW56162   4.586   6.257   3.786 -0.6994 -0.0284  0.2673
14813SOL    HW156163   4.556   6.330   3.732 -0.9494  0.0278  0.4856
14813SOL    HW256164   4.557   6.179   3.739  0.8207 -0.0369 -0.7305
14814SOL     OW56165   8.413  10.874   1.284 -0.1209 -0.6853 -0.4230
14814SOL    HW156166   8.370  10.794   1.314  0.8739 -1.2477 -0.4365
14814SOL    HW256167   8.448  10.852   1.198  0.4876 -0.3623 -0.2664
14815SOL     OW56168   8.039   5.219   3.986  0.4181 -0.5528 -0.3023
14815SOL    HW156169   8.040   5.313   4.003  0.6618 -0.4145 -1.0631
14815SOL    HW256170   8.106   5.206   3.919 -0.3594 -1.1161 -0.9938
14816SOL     OW56171   6.956   8.103   8.494  0.0372  0.0199 -0.6129
14816SOL    HW156172   6.994   8.116   8.581 -2.4437 -1.9380  0.9212
14816SOL    HW256173   6.908   8.184   8.476  1.7100  0.9993 -0.8789
14817SOL     OW56174  10.532   5.158   3.734  0.3354  0.0784  0.2655
14817SOL    HW156175  10.594   5.227   3.760 -1.6445  1.7243  0.8795
14817SOL    HW256176  10.455   5.206   3.702 -0.3884 -1.8967 -1.1585
14818SOL     OW56177   5.128   2.665   7.341  0.3716  0.3843  0.4923
14818SOL    HW156178   5.136   2.754   7.375  1.1200  0.8682 -0.8619
14818SOL    HW256179   5.097   2.614   7.416  1.6561  1.4350  1.8206
14819SOL     OW56180   6.011   5.793   5.188 -0.2991 -0.3086  0.1059
14819SOL    HW156181   5.938   5.764   5.243 -1.0523 -0.7057 -1.0833
14819SOL    HW256182   6.085   5.738   5.216 -0.6345 -0.4045  0.8188
14820SOL     OW56183   5.966   1.814   4.803 -0.4526 -0.2369 -0.0479
14820SOL    HW156184   5.952   1.729   4.762 -1.4253  0.1239 -0.4871
14820SOL    HW256185   5.920   1.808   4.887  0.1465 -0.4009  0.2812
14821SOL     OW56186   0.173   7.111   5.938  0.4267  0.0425 -0.2378
14821SOL    HW156187   0.081   7.100   5.914  0.4701 -4.6991  0.7569
14821SOL    HW256188   0.171   7.132   6.031  0.3427 -0.0731 -0.2135
14822SOL     OW56189   4.204   1.784   6.526  0.6298  0.3274 -0.3356
14822SOL    HW156190   4.132   1.767   6.465  0.0515  1.0472  0.1290
14822SOL    HW256191   4.271   1.721   6.502  0.4040  0.5812 -1.7075
14823SOL     OW56192   3.989   2.784   6.408 -0.7445  0.1937 -0.7735
14823SOL    HW156193   4.002   2.854   6.472 -0.5755  0.3113 -0.9381
14823SOL    HW256194   4.075   2.743   6.399 -1.0453 -0.6831  0.0718
14824SOL     OW56195   6.626   2.884   9.537 -0.0179 -0.5564  0.1267
14824SOL    HW156196   6.715   2.894   9.572  0.2042  0.1597 -0.5965
14824SOL    HW256197   6.569   2.890   9.614  0.5970 -2.0172  0.7250
14825SOL     OW56198   1.225   3.834   0.393 -0.0244 -0.5161 -0.1783
14825SOL    HW156199   1.208   3.859   0.302  1.9972  0.5982 -0.3110
14825SOL    HW256200   1.242   3.917   0.437  0.2006 -1.1455  0.9527
14826SOL     OW56201   0.892   1.016   4.798  0.2286  0.2626 -0.2118
14826SOL    HW156202   0.945   1.096   4.794  2.0730 -0.6289  2.6023
14826SOL    HW256203   0.912   0.970   4.716  2.8380  0.6381  0.1042
14827SOL     OW56204  10.372   1.172   5.164 -0.1341 -0.2723 -0.0965
14827SOL    HW156205  10.446   1.232   5.174 -0.3723  0.3272 -1.6376
14827SOL    HW256206  10.297   1.221   5.196 -0.2127  0.0138 -0.6912
14828SOL     OW56207   2.041   0.703   5.515  0.2657  0.0057  0.1660
14828SOL    HW156208   1.954   0.664   5.512 -0.7386  2.0454  0.7398
14828SOL    HW256209   2.098   0.632   5.542 -1.1846 -1.4299 -0.3597
14829SOL     OW56210   4.885  11.177  10.489  0.7005 -0.6459 -0.2239
14829SOL    HW156211   4.894  11.167  10.584 -0.0042 -0.4099 -0.1227
14829SOL    HW256212   4.969  11.150  10.454  0.8536 -1.0740  0.4462
14830SOL     OW56213  10.909   0.324   0.512 -0.2451  0.3681  1.0903
14830SOL    HW156214  10.875   0.414   0.510  0.6230  0.7907  3.2080
14830SOL    HW256215  10.832   0.270   0.531 -0.5180  0.8266  1.3181
14831SOL     OW56216   2.770  11.774  10.621  0.5207  0.0385  0.1470
14831SOL    HW156217   2.861  11.792  10.597  0.4869 -2.2743 -2.2311
14831SOL    HW256218   2.727  11.859  10.619  2.3036  0.9799 -0.2245
14832SOL     OW56219   6.835   2.247   7.656 -0.3602  0.3706  0.6742
14832SOL    HW156220   6.805   2.158   7.674 -1.5720  0.1685 -1.9377
14832SOL    HW256221   6.834   2.290   7.742 -0.1423 -1.9765  1.9334
14833SOL     OW56222   4.577  11.719   6.653 -0.2666  0.5680 -0.1507
14833SOL    HW156223   4.495  11.758   6.624  0.5307  0.8752 -2.1717
14833SOL    HW256224   4.566  11.626   6.637 -0.6433  0.4586  0.7136
14834SOL     OW56225   6.994   3.097   9.273 -0.3501 -0.1382  0.7915
14834SOL    HW156226   7.028   3.011   9.248 -0.7092 -0.3742  1.1017
14834SOL    HW256227   6.900   3.084   9.281 -0.2042 -0.2583  2.9120
14835SOL     OW56228  10.086   2.531  11.408 -0.2330 -0.2226 -0.2127
14835SOL    HW156229  10.147   2.459  11.393 -0.3977 -0.4985  0.3966
14835SOL    HW256230  10.110   2.597  11.343  1.3853  0.1070  0.6552
14836SOL     OW56231   7.837   7.680   8.452 -0.7920 -0.0479  0.3040
14836SOL    HW156232   7.756   7.724   8.425 -0.2752  0.5531 -0.3057
14836SOL    HW256233   7.890   7.748   8.493 -0.9447 -0.6337  1.5182
14837SOL     OW56234   9.843   2.939   3.153  0.2419 -1.1889 -1.5046
14837SOL    HW156235   9.923   2.949   3.101  1.2155 -1.5361 -0.1434
14837SOL    HW256236   9.863   2.868   3.215 -1.3603 -1.7259 -1.5377
14838SOL     OW56237   8.710   1.315   4.534 -0.4853 -0.1209  0.0103
14838SOL    HW156238   8.689   1.387   4.475 -1.6900  0.2676  0.8691
14838SOL    HW256239   8.699   1.236   4.480 -0.9533  0.2502 -0.4522
14839SOL     OW56240  11.826   3.793  11.477  0.1132 -0.0176  0.5709
14839SOL    HW156241  11.786   3.825  11.558  0.6606  0.3576  0.7025
14839SOL    HW256242  11.824   3.868  11.418 -1.5320 -0.6696 -0.2678
14840SOL     OW56243   6.831  11.445   4.617  0.4023 -0.1447 -0.0422
14840SOL    HW156244   6.875  11.491   4.689 -1.1447  0.5856  0.4894
14840SOL    HW256245   6.750  11.412   4.656 -0.4831  0.2908 -1.4474
14841SOL     OW56246   6.075  10.595   6.386 -0.6819 -0.3829 -0.5788
14841SOL    HW156247   6.126  10.514   6.380  0.7659  0.6130 -2.4234
14841SOL    HW256248   6.084  10.636   6.301 -1.1940  1.8711  0.3853
14842SOL     OW56249   9.685   0.573   4.218  0.0487 -0.1547 -0.2973
14842SOL    HW156250   9.742   0.573   4.295 -0.0558 -2.1836 -0.1529
14842SOL    HW256251   9.699   0.487   4.178 -2.0395 -0.2916 -0.8913
14843SOL     OW56252   9.163  11.834   1.064 -0.2966  0.1701  0.1975
14843SOL    HW156253   9.153  11.843   0.969  2.5261  3.2952 -0.0016
14843SOL    HW256254   9.164  11.740   1.079 -1.1246 -0.4453 -2.8072
14844SOL     OW56255   6.255   9.116   1.532  0.3694 -0.4730  0.3185
14844SOL    HW156256   6.229   9.059   1.605 -0.9579 -1.5182 -0.9169
14844SOL    HW256257   6.270   9.055   1.459  3.8955  0.3013  0.2214
14845SOL     OW56258   1.499   5.386   5.599 -0.3650 -0.2285  0.1823
14845SOL    HW156259   1.524   5.466   5.553  0.2920 -0.0137  0.8887
14845SOL    HW256260   1.405   5.394   5.612 -0.0915  1.1594  1.5869
14846SOL     OW56261   6.391   1.107   8.625  0.3321  0.0356  0.6155
14846SOL    HW156262   6.428   1.189   8.658 -0.1835  0.3675  0.3780
14846SOL    HW256263   6.302   1.105   8.661 -0.3029  0.4861 -0.8608
14847SOL     OW56264  11.368   9.760   8.078  0.2042  0.2405  0.3110
14847SOL    HW156265  11.333   9.826   8.138 -4.3875  0.0206 -1.7267
14847SOL    HW256266  11.431   9.808   8.023 -0.9515  2.2725  0.6642
14848SOL     OW56267   9.009   7.119   2.646 -0.1291 -0.2171  0.2958
14848SOL    HW156268   9.041   7.032   2.624  0.5973 -0.6246  2.6795
14848SOL    HW256269   9.086   7.176   2.634  1.4359 -1.0032  4.8094
14849SOL     OW56270   4.532   3.422   9.892  0.7122 -0.3324 -0.2889
14849SOL    HW156271   4.569   3.363   9.958 -0.1150  0.9922  1.4447
14849SOL    HW256272   4.591   3.497   9.892  0.8604 -0.4405 -1.2913
14850SOL     OW56273   3.901  10.425   4.213 -0.3672 -0.1327 -0.0132
14850SOL    HW156274   3.964  10.471   4.158  0.8898 -1.1413  0.5410
14850SOL    HW256275   3.929  10.444   4.303 -1.1459 -0.2008  0.2529
14851SOL     OW56276   4.455  11.693   9.437 -0.3554 -0.5059 -0.5321
14851SOL    HW156277   4.368  11.703   9.475  0.2097 -1.4472  1.1386
14851SOL    HW256278   4.488  11.611   9.475  1.9240  0.7098  0.2796
14852SOL     OW56279   8.044   7.331   9.918  0.0624  0.4177 -0.4232
14852SOL    HW156280   8.040   7.410   9.971  0.8048 -0.0964  0.4300
14852SOL    HW256281   8.044   7.259   9.982  0.8973 -0.2140 -1.1073
14853SOL     OW56282   2.304   7.520   1.132 -0.2638  0.4955  0.4767
14853SOL    HW156283   2.362   7.596   1.138  1.5352 -0.8516  0.8921
14853SOL    HW256284   2.359   7.446   1.157 -2.9481 -0.5222  4.2529
14854SOL     OW56285   2.459   5.386   9.542  0.1388  0.4418  0.6856
14854SOL    HW156286   2.482   5.382   9.449 -0.3053 -1.0618  0.6172
14854SOL    HW256287   2.396   5.315   9.554 -0.5791  1.2529  1.9342
14855SOL     OW56288   4.747   0.427   1.368 -0.2252 -0.4619  0.2634
14855SOL    HW156289   4.786   0.472   1.444 -0.4740  0.4543 -0.1313
14855SOL    HW256290   4.814   0.364   1.341  0.9613  0.9720 -0.3065
14856SOL     OW56291   0.600   8.711   9.113  0.3344 -0.1156  0.2575
14856SOL    HW156292   0.648   8.678   9.036 -0.3913 -2.2581  0.6558
14856SOL    HW256293   0.543   8.780   9.078  2.1327  1.0414 -0.5713
14857SOL     OW56294   7.839   0.968   8.607 -0.0177 -0.2775 -0.4697
14857SOL    HW156295   7.768   0.905   8.595 -0.7258  0.4892 -0.3735
14857SOL    HW256296   7.829   0.999   8.697  0.3306 -0.0335 -0.5122
14858SOL     OW56297   2.155   7.390   5.092 -0.5340 -0.1094  0.2430
14858SOL    HW156298   2.120   7.305   5.065  2.0021 -1.0464 -0.3861
14858SOL    HW256299   2.079   7.437   5.126 -2.4561 -1.7480 -1.4842
14859SOL     OW56300   2.845   6.802   8.045 -0.8296  0.3228 -0.1798
14859SOL    HW156301   2.938   6.781   8.051 -1.2509 -1.4202  1.2985
14859SOL    HW256302   2.829   6.865   8.115 -0.9721 -0.4045  0.4638
14860SOL     OW56303   6.920   3.700   0.940 -0.1599 -0.1706  0.0535
14860SOL    HW156304   6.952   3.625   0.991 -0.1255 -0.4667 -0.4010
14860SOL    HW256305   6.824   3.692   0.945 -0.1619  0.1362  0.5608
14861SOL     OW56306   6.624  10.879   9.922  0.2363  0.1430  0.1272
14861SOL    HW156307   6.563  10.945   9.953 -0.3255 -0.4891  0.3781
14861SOL    HW256308   6.587  10.849   9.838  1.1511  1.0375 -0.6238
14862SOL     OW56309   5.397   4.557  11.013  0.0411 -0.1602  0.3684
14862SOL    HW156310   5.436   4.528  11.096  1.3406  0.4326 -0.0090
14862SOL    HW256311   5.472   4.586  10.960 -0.7264 -0.8560 -1.1558
14863SOL     OW56312  10.741   9.043  11.067 -0.2173  0.0044  0.3021
14863SOL    HW156313  10.773   9.053  10.977  0.4032 -0.9341  0.4016
14863SOL    HW256314  10.821   9.035  11.120 -0.5425  1.6624  1.0975
14864SOL     OW56315   9.568   5.299   9.748 -0.7828  0.3839 -0.3924
14864SOL    HW156316   9.499   5.257   9.799 -2.1364  1.3183 -1.3914
14864SOL    HW256317   9.542   5.285   9.657  1.3561 -0.8794 -0.8841
14865SOL     OW56318   7.541   9.694  10.933 -0.7931  0.3488  0.2372
14865SOL    HW156319   7.635   9.678  10.934 -0.9318 -0.5499 -0.3767
14865SOL    HW256320   7.529   9.764  10.869 -0.5552  0.4023  0.2499
14866SOL     OW56321  11.639   7.312  10.030 -0.1972 -0.6778 -0.2204
14866SOL    HW156322  11.699   7.247   9.996  0.6615 -1.1348  1.9966
14866SOL    HW256323  11.628   7.289  10.122 -1.0243  1.4438  0.2798
14867SOL     OW56324   6.816   6.126   6.152  0.1406  0.2205  0.6502
14867SOL    HW156325   6.890   6.101   6.206 -0.0649 -0.5073  0.6105
14867SOL    HW256326   6.750   6.157   6.214 -0.0559 -0.5109  0.8166
14868SOL     OW56327  10.504   5.151  11.028  0.0761  0.4662 -0.0510
14868SOL    HW156328  10.542   5.161  11.115 -0.8389 -0.5226  0.4791
14868SOL    HW256329  10.456   5.232  11.013  0.0474  0.5463  0.4579
14869SOL     OW56330   8.622   3.412   9.349 -0.0924 -0.4888 -0.1429
14869SOL    HW156331   8.611   3.490   9.403  0.1863 -0.8288  0.4132
14869SOL    HW256332   8.616   3.339   9.411  1.8551 -0.8221 -0.3088
14870SOL     OW56333   2.141   4.305  11.190 -0.2844  0.4079  0.4533
14870SOL    HW156334   2.191   4.225  11.205 -0.5854  0.3366  1.1272
14870SOL    HW256335   2.173   4.366  11.258 -1.5769  0.1320  1.3431
14871SOL     OW56336  10.784   7.846  10.911 -0.0065  0.1258 -0.1279
14871SOL    HW156337  10.878   7.847  10.929 -0.2923 -1.2204  1.7037
14871SOL    HW256338  10.775   7.893  10.828  2.2638  0.3425 -0.3088
14872SOL     OW56339   0.958   6.221   7.301 -0.2336 -0.9277  0.1675
14872SOL    HW156340   0.893   6.276   7.258 -0.9528 -1.6612  0.2931
14872SOL    HW256341   0.910   6.142   7.325  0.6331 -1.3473  0.5497
14873SOL     OW56342   0.219   1.862   1.227  0.3330 -0.5630  0.4035
14873SOL    HW156343   0.241   1.771   1.208  1.8286 -0.1753  0.1900
14873SOL    HW256344   0.245   1.911   1.149 -2.2901 -0.1521 -0.3192
14874SOL     OW56345   0.031   9.164   9.228  0.3099  0.3805  0.1543
14874SOL    HW156346  -0.038   9.231   9.233  1.4811  1.5548  3.2714
14874SOL    HW256347   0.078   9.185   9.147 -0.6138  2.0357 -0.0161
14875SOL     OW56348   7.915   1.518  11.150 -0.0138 -0.6586  0.0413
14875SOL    HW156349   7.980   1.458  11.186  0.9493 -0.5690 -1.4365
14875SOL    HW256350   7.942   1.605  11.179  0.9852 -0.5436 -1.1320
14876SOL     OW56351   7.443   8.522   3.680 -0.4072  0.5231  0.1449
14876SOL    HW156352   7.469   8.436   3.649 -1.9085 -0.2186  0.8183
14876SOL    HW256353   7.434   8.575   3.600  0.0735 -0.0672 -0.3091
14877SOL     OW56354   4.331  10.710   5.886 -0.2088 -0.1878 -0.3158
14877SOL    HW156355   4.385  10.700   5.808  1.8683 -2.4089  1.2569
14877SOL    HW256356   4.377  10.775   5.939  0.2681 -1.1435  0.4736
14878SOL     OW56357   9.987   7.220   7.142  0.0422  0.3380  0.2027
14878SOL    HW156358   9.947   7.133   7.138  2.1423 -0.7682  1.5274
14878SOL    HW256359   9.978   7.255   7.053 -1.9868 -0.6592 -0.0301
14879SOL     OW56360  10.722   1.520   3.742  0.0724 -0.3182  0.6075
14879SOL    HW156361  10.627   1.514   3.735 -0.3366  2.7557  2.0214
14879SOL    HW256362  10.748   1.441   3.790 -1.6508 -1.3654 -0.0698
14880SOL     OW56363   5.313   6.713   0.933  0.2788  0.2180 -0.7453
14880SOL    HW156364   5.300   6.620   0.955  0.8418  0.1935 -0.5027
14880SOL    HW256365   5.229   6.741   0.899  0.1687 -0.4552 -1.0573
14881SOL     OW56366  11.783   9.853   5.199 -0.5071  0.2968 -0.6060
14881SOL    HW156367  11.849   9.811   5.254 -0.9415 -0.7229 -0.8373
14881SOL    HW256368  11.704   9.799   5.209 -0.9918  0.8677 -1.1747
14882SOL     OW56369   1.475   6.386   3.729  0.3525 -0.5128 -0.2962
14882SOL    HW156370   1.470   6.304   3.777 -2.0285  0.2834  0.9702
14882SOL    HW256371   1.426   6.370   3.648  0.1813 -0.4539 -0.2052
14883SOL     OW56372   8.026   2.998  11.825 -0.4123 -0.0251  0.6324
14883SOL    HW156373   8.014   2.903  11.820  0.4332 -0.2074  1.6514
14883SOL    HW256374   8.001   3.030  11.738  0.9806 -1.3876 -0.3368
14884SOL     OW56375   3.359  11.247   0.040  0.2990  0.0329  0.5247
14884SOL    HW156376   3.277  11.297   0.050  0.5430  0.6561 -0.4497
14884SOL    HW256377   3.339  11.161   0.079 -1.6751 -0.7305 -1.8966
14885SOL     OW56378   9.524   2.947   1.398  0.9997  0.1662 -0.7014
14885SOL    HW156379   9.604   2.895   1.402  0.7189 -0.2928 -0.9433
14885SOL    HW256380   9.551   3.031   1.361  1.7502  0.7741  1.1028
14886SOL     OW56381   6.288   6.382   2.431 -0.2542 -0.5037 -0.3548
14886SOL    HW156382   6.371   6.419   2.403 -0.7281  0.7177 -0.1931
14886SOL    HW256383   6.238   6.457   2.464 -1.1400 -1.3280  0.2256
14887SOL     OW56384  10.022   7.965  10.395 -0.5837 -0.4054  0.4250
14887SOL    HW156385  10.091   7.918  10.347  0.3372 -0.0376  1.3426
14887SOL    HW256386  10.060   7.979  10.481 -2.2353 -1.1445  1.3121
14888SOL     OW56387   3.063   4.886   0.276 -0.2572 -0.1338 -0.4838
14888SOL    HW156388   3.143   4.878   0.223 -0.1886 -0.1847 -0.3717
14888SOL    HW256389   2.995   4.910   0.213 -0.2294 -0.4563 -0.6382
14889SOL     OW56390   1.582   9.250   8.330 -0.3385 -0.4714  0.0098
14889SOL    HW156391   1.582   9.163   8.370 -0.8395 -0.4142  0.1435
14889SOL    HW256392   1.493   9.282   8.343 -0.3420 -0.2081 -0.6309
14890SOL     OW56393   9.687   3.644   4.916 -0.0920 -0.4889  0.5681
14890SOL    HW156394   9.699   3.678   4.827 -3.1004  0.1140  0.2689
14890SOL    HW256395   9.647   3.558   4.903  0.8591 -1.0630  1.3539
14891SOL     OW56396   0.293   0.443   7.505 -0.4522  0.2238 -0.1533
14891SOL    HW156397   0.263   0.396   7.428 -0.5735  1.8465 -1.1385
14891SOL    HW256398   0.369   0.493   7.474  0.9312 -0.8351  1.3518
14892SOL     OW56399   9.210   1.240   3.214  0.2183  0.2937 -0.0064
14892SOL    HW156400   9.243   1.199   3.293  1.0711  0.6218 -0.1811
14892SOL    HW256401   9.120   1.264   3.236  0.2841 -0.0585  0.6923
14893SOL     OW56402   2.841   7.389   0.712  0.6128 -0.4612  0.5604
14893SOL    HW156403   2.891   7.321   0.758 -0.6047 -2.5240 -1.0361
14893SOL    HW256404   2.904   7.428   0.651  1.0083 -1.0096  0.6114
14894SOL     OW56405   6.704  10.963   3.894  0.2321  0.2925 -0.2609
14894SOL    HW156406   6.693  11.018   3.817 -2.2438  1.2037  0.6374
14894SOL    HW256407   6.614  10.941   3.920  1.0776 -1.7501  1.1260
14895SOL     OW56408   2.247   7.977   6.093 -0.6659 -0.2229 -0.3357
14895SOL    HW156409   2.264   8.068   6.067 -0.4275  0.0679  0.8043
14895SOL    HW256410   2.222   7.934   6.011  1.3529  0.3384 -1.3222
14896SOL     OW56411   0.744   3.788   2.145  0.1459 -0.5300 -0.2858
14896SOL    HW156412   0.730   3.708   2.196 -1.5201 -1.5811 -2.2520
14896SOL    HW256413   0.739   3.858   2.210  1.1329 -1.9494  1.4152
14897SOL     OW56414   3.710  10.993   2.709  0.3913 -0.2331  0.1947
14897SOL    HW156415   3.764  10.925   2.749  0.6423  0.3508  0.8824
14897SOL    HW256416   3.773  11.054   2.670  0.1776 -0.2960 -0.2454
14898SOL     OW56417   5.733   5.403   7.278 -0.0310 -0.0283 -0.3544
14898SOL    HW156418   5.741   5.328   7.219 -2.8452 -1.1234  0.4515
14898SOL    HW256419   5.741   5.365   7.366  0.7673  1.0066  0.0314
14899SOL     OW56420   0.404  10.595   5.709 -0.1351  0.0055 -0.3260
14899SOL    HW156421   0.498  10.612   5.705 -0.0684 -0.5535 -2.3112
14899SOL    HW256422   0.368  10.641   5.632 -1.6261  0.9454  0.8778
14900SOL     OW56423   0.914   2.773   5.566  0.1125 -0.6507 -0.0011
14900SOL    HW156424   0.954   2.761   5.653  0.1216  1.8439  0.4032
14900SOL    HW256425   0.988   2.789   5.508  0.0745 -1.9355 -0.4391
14901SOL     OW56426   3.476  11.844   1.452  0.3087 -0.2251  0.0754
14901SOL    HW156427   3.462  11.936   1.429  0.0445 -0.2922 -0.0462
14901SOL    HW256428   3.571  11.834   1.456  0.3386  0.2571  0.9249
14902SOL     OW56429   2.705   6.940   4.351  0.3097  0.4493  0.3706
14902SOL    HW156430   2.732   7.025   4.314  1.9220  0.4196  1.3720
14902SOL    HW256431   2.787   6.897   4.374 -0.4915 -1.2971  0.1388
14903SOL     OW56432  11.208   5.280   2.901  0.5707 -0.2654  0.1180
14903SOL    HW156433  11.299   5.254   2.918  0.1970 -0.0949  2.7797
14903SOL    HW256434  11.212   5.326   2.817  2.6310 -1.6553 -0.6438
14904SOL     OW56435   2.885   1.003   1.790 -0.0411 -0.3813  0.0074
14904SOL    HW156436   2.966   0.980   1.744 -0.5517  2.2503 -2.5084
14904SOL    HW256437   2.913   1.068   1.856  0.0269 -0.1246 -0.2719
14905SOL     OW56438   1.456   9.498   9.173  0.8280  0.2224  0.2730
14905SOL    HW156439   1.411   9.574   9.134  1.3450  0.1349 -0.5268
14905SOL    HW256440   1.424   9.423   9.122  1.3617  0.0813  0.1348
14906SOL     OW56441   0.999  11.242   8.093 -0.7541 -0.3934  0.0452
14906SOL    HW156442   1.037  11.329   8.104 -1.8061  0.1998 -0.7415
14906SOL    HW256443   1.010  11.223   7.999  1.6913 -2.2190  0.6133
14907SOL     OW56444  10.753  11.647   4.103  0.5901 -0.1849  0.5470
14907SOL    HW156445  10.790  11.665   4.017  0.1805 -1.8109 -0.0087
14907SOL    HW256446  10.813  11.691   4.164  2.6033 -1.4032 -0.4129
14908SOL     OW56447   3.981   5.933   1.781  0.1478  0.3014 -0.0611
14908SOL    HW156448   3.916   5.978   1.727 -0.7705 -1.7924 -0.8105
14908SOL    HW256449   3.968   5.840   1.762  1.2642 -0.3837  2.1570
14909SOL     OW56450   9.312   1.053   3.425 -0.6260 -0.3393 -0.0597
14909SOL    HW156451   9.386   1.114   3.431  1.5833 -2.6897 -1.4382
14909SOL    HW256452   9.302   1.019   3.514  0.6465 -0.6972 -0.0281
14910SOL     OW56453   5.849   7.622   2.897 -0.4817  0.4168  0.5637
14910SOL    HW156454   5.888   7.612   2.984  0.0555  0.6444  0.3552
14910SOL    HW256455   5.905   7.687   2.854  1.0947 -1.8499 -1.0111
14911SOL     OW56456   2.502   7.192  11.527 -0.7318  0.4187 -0.5801
14911SOL    HW156457   2.497   7.287  11.520 -0.0557  0.6373  1.3876
14911SOL    HW256458   2.412   7.162  11.514 -1.5864  1.6206  1.9509
14912SOL     OW56459   4.140   0.814   2.204 -0.1681  1.0771 -0.2302
14912SOL    HW156460   4.078   0.874   2.245 -1.0041  0.0642  0.0271
14912SOL    HW256461   4.097   0.789   2.122  0.3043  1.0477 -0.4700
14913SOL     OW56462   4.633   0.205  10.023  0.0902 -0.1697  0.1947
14913SOL    HW156463   4.625   0.271  10.093  0.2359  0.3092 -0.2353
14913SOL    HW256464   4.549   0.206   9.979 -0.2437 -0.9695  0.7863
14914SOL     OW56465   8.811   2.697   5.077  0.0381  0.4193 -0.2704
14914SOL    HW156466   8.852   2.772   5.034  0.6284  0.5822  0.5742
14914SOL    HW256467   8.769   2.733   5.155 -0.2312 -0.0265 -0.2042
14915SOL     OW56468   9.452   5.466   7.205 -0.0601  0.4858 -0.0575
14915SOL    HW156469   9.483   5.511   7.284 -0.7128 -1.4308  1.3566
14915SOL    HW256470   9.365   5.502   7.189 -0.2250  0.3485  0.5322
14916SOL     OW56471   4.676   5.689   7.361 -0.3662 -0.1871  0.3490
14916SOL    HW156472   4.706   5.679   7.452  0.6502 -1.1783 -0.0782
14916SOL    HW256473   4.731   5.630   7.311 -1.7652 -0.5972 -0.7591
14917SOL     OW56474   6.027  10.560   5.550  0.3445  0.1431 -0.1013
14917SOL    HW156475   6.050  10.467   5.557 -0.4608 -0.3704 -3.0695
14917SOL    HW256476   6.063  10.588   5.466  1.3379  2.8278  1.1051
14918SOL     OW56477   1.902   1.640   9.833 -0.1932  0.1247 -0.1498
14918SOL    HW156478   1.996   1.620   9.838  0.1703  1.5890 -0.6557
14918SOL    HW256479   1.876   1.612   9.745  0.0080  0.6195 -0.3713
14919SOL     OW56480   4.666   1.791   2.338  0.1101  0.2518 -0.5820
14919SOL    HW156481   4.645   1.713   2.287 -0.3122 -0.8119  1.1421
14919SOL    HW256482   4.606   1.788   2.412  0.2870  2.0733 -0.3177
14920SOL     OW56483   5.619   4.677  10.255  0.1400  0.3174 -0.0152
14920SOL    HW156484   5.670   4.599  10.273 -1.0416 -0.1084  1.7299
14920SOL    HW256485   5.604   4.675  10.160  0.5862 -1.2787 -0.0663
14921SOL     OW56486   0.189   5.350   6.067 -0.0277  0.2832  0.2720
14921SOL    HW156487   0.150   5.273   6.109 -0.0043  0.2265  0.1897
14921SOL    HW256488   0.135   5.365   5.990 -0.2256  0.5402  0.4576
14922SOL     OW56489   2.416  10.934  10.530  0.4242  1.1610 -0.5477
14922SOL    HW156490   2.376  11.018  10.507 -0.2757  1.1766  0.5995
14922SOL    HW256491   2.467  10.952  10.609  0.7249  0.6210 -0.6110
14923SOL     OW56492   9.961   9.341   7.772 -0.3123 -0.0359  0.1298
14923SOL    HW156493   9.897   9.323   7.703  1.9310  2.1655 -2.7891
14923SOL    HW256494   9.913   9.395   7.835 -2.1533 -1.2161 -0.1588
14924SOL     OW56495   5.256   7.455   7.429  0.1941  0.1809  0.2151
14924SOL    HW156496   5.295   7.533   7.469  0.3781  0.3817 -0.3539
14924SOL    HW256497   5.168   7.483   7.405 -0.4598 -0.3635  1.7959
14925SOL     OW56498   2.211   7.640  10.716 -0.1812 -0.0228  0.1864
14925SOL    HW156499   2.249   7.610  10.799  0.7458 -2.3148 -0.9779
14925SOL    HW256500   2.120   7.658  10.737  0.6668  2.4403  2.3280
14926SOL     OW56501   1.656   9.759  11.509 -0.2729 -0.5945  0.2227
14926SOL    HW156502   1.735   9.746  11.458 -0.3495  0.9037 -0.3246
14926SOL    HW256503   1.662   9.849  11.541 -1.2252 -0.8236  1.1077
14927SOL     OW56504  10.708   4.930   0.269 -0.4769 -0.0181  0.3120
14927SOL    HW156505  10.729   4.845   0.228  2.4167  0.3440  0.8579
14927SOL    HW256506  10.655   4.975   0.203  0.5206 -1.0886 -1.3143
14928SOL     OW56507   2.974   1.669   2.242 -0.0046  0.2470 -0.6591
14928SOL    HW156508   2.888   1.628   2.234 -0.5808  1.6293 -2.1954
14928SOL    HW256509   2.990   1.674   2.336 -1.4169 -0.4013 -0.3592
14929SOL     OW56510   1.048   0.106   5.711  0.4689 -0.3080 -0.0111
14929SOL    HW156511   1.055   0.169   5.782  0.4221 -0.1088 -0.1845
14929SOL    HW256512   1.100   0.031   5.741  2.5261  0.7151 -0.8049
14930SOL     OW56513   9.419   3.655   0.279 -0.2206 -0.1444 -0.1890
14930SOL    HW156514   9.496   3.605   0.304 -0.1562  0.5190  0.9936
14930SOL    HW256515   9.452   3.742   0.259 -0.2943 -0.5775 -2.5064
14931SOL     OW56516   8.147  11.314   0.853 -0.1067 -0.4372 -0.2381
14931SOL    HW156517   8.205  11.284   0.923 -0.2094  2.3677  1.2195
14931SOL    HW256518   8.063  11.272   0.872 -0.0379  0.0096  1.1707
14932SOL     OW56519   6.114   0.375  11.782  0.2951 -0.2110  0.6886
14932SOL    HW156520   6.084   0.299  11.732 -0.9420  0.2860  0.6367
14932SOL    HW256521   6.208   0.380  11.764  0.7560 -2.6720  1.9946
14933SOL     OW56522   1.631  10.900   7.109  0.0464 -0.0673 -0.5604
14933SOL    HW156523   1.700  10.965   7.115  1.2694 -1.1610 -2.0864
14933SOL    HW256524   1.648  10.841   7.183 -1.0949  1.2864  0.8538
14934SOL     OW56525   4.213   5.178  11.296 -0.4149 -0.0806 -0.3112
14934SOL    HW156526   4.189   5.214  11.382  0.6291  0.0077 -0.0417
14934SOL    HW256527   4.200   5.250  11.235  1.3025  0.7007  0.1689
14935SOL     OW56528   6.083  10.978   4.446 -0.4242 -0.3830 -0.1685
14935SOL    HW156529   6.019  10.929   4.395 -0.6134  0.9893 -1.3149
14935SOL    HW256530   6.168  10.939   4.423 -0.6175 -0.5148 -0.6739
14936SOL     OW56531  10.531  11.935   4.227  0.1368 -0.1578  0.9307
14936SOL    HW156532  10.460  11.872   4.211  0.3350 -0.0511 -0.4807
14936SOL    HW256533  10.608  11.893   4.189  0.8494 -0.2472  2.4016
14937SOL     OW56534  10.669  11.001   5.703 -0.7055  0.6111 -0.3062
14937SOL    HW156535  10.584  11.039   5.683 -0.7238  1.1302  0.6986
14937SOL    HW256536  10.656  10.906   5.691 -1.2019  0.7498 -0.9068
14938SOL     OW56537   4.083   3.919  11.813  0.4693  0.1153 -0.0618
14938SOL    HW156538   4.048   3.833  11.835 -0.0434  0.5496  0.8773
14938SOL    HW256539   4.082   3.922  11.718 -0.5614 -0.4905 -0.0747
14939SOL     OW56540   8.742   4.193   6.267 -0.0663 -0.3441 -0.1621
14939SOL    HW156541   8.719   4.151   6.185 -1.1220 -1.2505  0.5751
14939SOL    HW256542   8.813   4.253   6.244  1.7669 -2.7487 -1.1841
14940SOL     OW56543   0.256   2.069   2.298 -0.4485 -0.1541 -0.0898
14940SOL    HW156544   0.212   2.029   2.373 -0.0857 -1.2852 -0.4610
14940SOL    HW256545   0.333   2.014   2.283  0.7618  1.4290  0.1461
14941SOL     OW56546   2.711   5.271  11.668  0.0115  0.0623  0.7796
14941SOL    HW156547   2.656   5.269  11.590  1.6723  0.3504 -0.4650
14941SOL    HW256548   2.671   5.209  11.728  0.0918 -2.1307 -1.3005
14942SOL     OW56549   3.304   6.996   9.427 -0.1336  0.0928 -0.2408
14942SOL    HW156550   3.322   7.024   9.517  2.2476 -1.6344 -0.0728
14942SOL    HW256551   3.286   6.902   9.435 -1.8678  0.2973 -1.3842
14943SOL     OW56552  11.537   5.693   3.675 -0.4047 -0.4005  0.2009
14943SOL    HW156553  11.531   5.599   3.687 -0.1385 -0.3291  0.9533
14943SOL    HW256554  11.486   5.730   3.747  0.3473  0.0387  0.5195
14944SOL     OW56555   8.214   8.791  10.205 -0.0032 -0.7905  0.2859
14944SOL    HW156556   8.142   8.762  10.260 -1.0697 -0.8355 -1.0830
14944SOL    HW256557   8.229   8.882  10.232  0.3451 -1.1882  1.4923
14945SOL     OW56558   1.856   5.151   1.267  0.1741  0.1198 -0.1083
14945SOL    HW156559   1.784   5.212   1.251 -1.3997 -1.5917  0.0053
14945SOL    HW256560   1.842   5.081   1.202  0.2314 -1.4908  1.5401
14946SOL     OW56561   9.939   2.175   9.583 -0.5133 -0.6317 -0.1185
14946SOL    HW156562   9.995   2.244   9.618 -0.3303 -1.3443  1.0547
14946SOL    HW256563   9.876   2.220   9.527 -0.1075  0.4234  0.2634
14947SOL     OW56564   0.894   8.221   0.131  0.4004 -0.0010 -0.0220
14947SOL    HW156565   0.864   8.152   0.072 -0.7258  0.2128  0.2814
14947SOL    HW256566   0.849   8.300   0.102 -1.1206 -0.1294  1.8256
14948SOL     OW56567   4.695   6.392   7.388 -0.0846  0.7322 -0.0371
14948SOL    HW156568   4.767   6.376   7.450  0.3967  2.2668 -0.1439
14948SOL    HW256569   4.648   6.466   7.426 -0.8491  0.5526 -0.6270
14949SOL     OW56570   7.237   2.685   2.362 -0.3838 -0.0842 -0.4665
14949SOL    HW156571   7.314   2.673   2.306  1.5855  0.3990  1.9912
14949SOL    HW256572   7.204   2.596   2.376  1.9717 -0.7751  1.3366
14950SOL     OW56573   2.526  11.242   7.829  0.7140  0.0577 -0.4145
14950SOL    HW156574   2.483  11.162   7.801  0.9741 -0.5342  0.8268
14950SOL    HW256575   2.508  11.248   7.923 -1.5109  2.8324 -0.8681
14951SOL     OW56576   3.630   7.138  10.446 -0.1399  0.0533  0.5921
14951SOL    HW156577   3.589   7.130  10.360 -0.7623  0.5764  0.8353
14951SOL    HW256578   3.712   7.184  10.429 -0.3596  0.3442  0.3051
14952SOL     OW56579   5.032   3.798   4.333  0.3378  0.0807 -0.0185
14952SOL    HW156580   5.066   3.836   4.414 -1.8983  0.5891  0.7473
14952SOL    HW256581   4.977   3.725   4.361 -1.6099  1.1215 -0.9237
14953SOL     OW56582  10.121   1.542   1.089 -0.0394  0.7090 -0.2930
14953SOL    HW156583  10.113   1.471   1.153  0.9343  0.5990 -0.2781
14953SOL    HW256584  10.116   1.498   1.004  0.2747  0.6615 -0.2857
14954SOL     OW56585   3.475   6.937  10.813  0.0637 -0.7844  1.2814
14954SOL    HW156586   3.499   6.850  10.780 -1.0355 -0.7440  0.2925
14954SOL    HW256587   3.386   6.926  10.848  0.0909 -0.1624  1.5591
14955SOL     OW56588   3.440   9.665   5.697 -0.0640 -0.3655  0.6289
14955SOL    HW156589   3.414   9.723   5.626  0.0538  0.4513  1.2343
14955SOL    HW256590   3.536   9.661   5.690 -0.1199 -1.0520  0.1663
14956SOL     OW56591   7.126   3.898   0.520 -0.0641  0.1336 -0.5615
14956SOL    HW156592   7.072   3.900   0.599  1.5456  0.2390  0.5726
14956SOL    HW256593   7.210   3.933   0.547  0.7911 -0.6055 -2.1329
14957SOL     OW56594   6.408   0.127   9.814  0.3166 -0.2295  0.3813
14957SOL    HW156595   6.400   0.066   9.741  2.0953 -0.1319  0.0728
14957SOL    HW256596   6.493   0.108   9.853 -0.4484 -0.0598  2.2578
14958SOL     OW56597   1.467   7.661   5.302  0.1116  0.0951 -0.7346
14958SOL    HW156598   1.407   7.659   5.377  1.4803 -0.6728  0.3983
14958SOL    HW256599   1.433   7.730   5.245 -1.9281 -0.4340 -0.2317
14959SOL     OW56600   5.942   0.856   4.182  0.4799 -0.5896  0.1710
14959SOL    HW156601   5.875   0.900   4.235 -0.0733 -2.7309  1.3611
14959SOL    HW256602   5.898   0.834   4.101 -0.3929 -2.1403  1.0144
14960SOL     OW56603  11.174   2.323  11.919 -0.0087 -0.7931  0.1003
14960SOL    HW156604  11.185   2.314  11.824  2.0463  2.7783 -0.1576
14960SOL    HW256605  11.257   2.290  11.955  0.6110  0.9533  0.3391
14961SOL     OW56606   6.654   8.239   8.710 -0.2337  0.3381  0.0534
14961SOL    HW156607   6.731   8.288   8.681 -0.0484 -0.0632 -0.1449
14961SOL    HW256608   6.601   8.230   8.631  0.0361 -0.3280 -0.0632
14962SOL     OW56609   8.883   0.545   1.849 -0.2256  0.0127 -0.2029
14962SOL    HW156610   8.836   0.475   1.894  2.3516 -1.6523  0.1101
14962SOL    HW256611   8.830   0.623   1.864 -3.8187 -1.9862 -1.5234
14963SOL     OW56612   9.991   5.220   3.299 -0.0836 -0.1934  0.1660
14963SOL    HW156613   9.931   5.147   3.318  0.3755 -0.2138  1.6706
14963SOL    HW256614  10.078   5.181   3.304  0.2387  0.6295  2.2101
14964SOL     OW56615   3.142  11.047   1.538  0.2008 -0.0263 -0.0690
14964SOL    HW156616   3.049  11.067   1.526  0.0907 -0.4520  0.0858
14964SOL    HW256617   3.181  11.132   1.561 -0.3424 -0.0596  1.0002
14965SOL     OW56618   5.172   8.794   5.376 -0.0148 -0.0037 -0.1066
14965SOL    HW156619   5.175   8.737   5.299  0.0253  0.6980 -0.6388
14965SOL    HW256620   5.263   8.810   5.398 -0.0233  0.0587 -0.1175
14966SOL     OW56621   4.513   7.824   7.607 -0.7793  0.0275  0.2231
14966SOL    HW156622   4.445   7.890   7.620  0.8809  2.1805 -1.3173
14966SOL    HW256623   4.534   7.829   7.514  1.0996 -0.9688  0.5466
14967SOL     OW56624   4.967   4.325   0.988 -0.0824 -0.6149  0.7279
14967SOL    HW156625   4.924   4.336   1.073 -0.6865 -2.5525  0.7267
14967SOL    HW256626   4.964   4.231   0.972 -0.7304 -0.2472 -1.8240
14968SOL     OW56627   0.374   3.220   0.727  0.1972 -0.3298  0.6518
14968SOL    HW156628   0.418   3.253   0.648 -1.2223  2.5583  0.9094
14968SOL    HW256629   0.445   3.195   0.785  1.5420  2.1154  0.2242
14969SOL     OW56630  10.868   8.250   5.379 -0.2075  0.2178 -0.0919
14969SOL    HW156631  10.899   8.195   5.307 -0.4060 -1.1456  0.8233
14969SOL    HW256632  10.910   8.213   5.457  0.2674  1.8696  0.4828
14970SOL     OW56633   0.665   4.709   5.272  0.5282 -0.2754  0.7760
14970SOL    HW156634   0.606   4.782   5.292 -0.5177 -0.8816 -0.0138
14970SOL    HW256635   0.680   4.715   5.178  1.2085 -0.5281  0.8590
14971SOL     OW56636   6.519  10.902   0.766  0.1075  0.5681 -0.1938
14971SOL    HW156637   6.529  10.809   0.787  0.9716  1.1217  2.1359
14971SOL    HW256638   6.424  10.916   0.761 -0.0386 -0.8156 -2.7467
14972SOL     OW56639   3.445   8.753   6.473 -0.7769  0.1206 -0.1713
14972SOL    HW156640   3.446   8.667   6.516  0.6983 -0.2652 -0.8963
14972SOL    HW256641   3.375   8.801   6.516 -1.6269 -1.4401  0.2679
14973SOL     OW56642   0.632   2.587   6.686  0.3083 -0.0887  0.0396
14973SOL    HW156643   0.696   2.646   6.725  0.3095  0.2649 -0.4838
14973SOL    HW256644   0.661   2.578   6.595  0.1817 -0.7165  0.0568
14974SOL     OW56645   6.770   4.049   0.913 -0.4434 -0.2426 -0.0807
14974SOL    HW156646   6.762   3.959   0.882 -2.2362 -0.2965  0.4339
14974SOL    HW256647   6.769   4.103   0.834  1.3019 -0.6610 -0.4374
14975SOL     OW56648   1.703   7.374   8.160  0.2481  0.2529  0.7886
14975SOL    HW156649   1.666   7.462   8.172 -0.9371 -0.2774  1.1365
14975SOL    HW256650   1.744   7.354   8.244  3.4064  1.7091 -0.2193
14976SOL     OW56651   2.860   7.232  10.255  0.4691  0.0248  0.0451
14976SOL    HW156652   2.880   7.249  10.347 -0.7083  3.6178 -0.1701
14976SOL    HW256653   2.945   7.226  10.212  1.0243 -0.8004  1.2268
14977SOL     OW56654   4.879   0.095   2.095  0.1305 -0.1393 -0.0824
14977SOL    HW156655   4.806   0.034   2.098 -1.1798  1.3509 -0.3045
14977SOL    HW256656   4.909   0.092   2.004  0.6467 -1.0690  0.1092
14978SOL     OW56657   4.167   0.512   0.975  0.1339 -0.1485 -0.0644
14978SOL    HW156658   4.102   0.504   1.044  0.3644  0.4665  0.2289
14978SOL    HW256659   4.236   0.451   1.000 -0.6027 -1.2819 -0.7095
14979SOL     OW56660   4.725   6.547   8.885  0.0785  0.0777  0.5617
14979SOL    HW156661   4.655   6.575   8.945 -0.8138 -3.1298  1.2328
14979SOL    HW256662   4.681   6.533   8.801  0.4415  0.4104  0.3125
14980SOL     OW56663   7.528  10.044   0.468 -0.3248  0.7309  0.3970
14980SOL    HW156664   7.617  10.077   0.456 -0.3413  0.5321 -0.2931
14980SOL    HW256665   7.492  10.037   0.379 -0.2569 -1.3501  0.4778
14981SOL     OW56666   3.401   2.069  11.898  0.5214  0.4953  0.3413
14981SOL    HW156667   3.354   1.986  11.891  1.5060 -0.0311 -0.4144
14981SOL    HW256668   3.470   2.051  11.962  2.0105  0.0544 -1.3089
14982SOL     OW56669   7.195  11.170   3.650  0.1716 -0.4137  0.1258
14982SOL    HW156670   7.195  11.215   3.734 -2.7336 -2.3772  1.3251
14982SOL    HW256671   7.254  11.095   3.662 -2.6465 -2.5709  1.7149
14983SOL     OW56672   3.842   2.541   7.518 -0.1146  0.5297  0.7189
14983SOL    HW156673   3.811   2.624   7.555 -1.0087  0.7995 -0.5816
14983SOL    HW256674   3.934   2.556   7.499 -0.4326  1.4776 -0.1450
14984SOL     OW56675   6.902   9.738  10.764 -0.0529 -0.4701  0.5594
14984SOL    HW156676   6.952   9.700  10.692 -1.6921 -2.0220  0.1586
14984SOL    HW256677   6.913   9.675  10.836  0.1524  0.1834  1.1129
14985SOL     OW56678   0.711   1.313   4.006  0.1140 -1.0826 -0.4495
14985SOL    HW156679   0.735   1.325   4.098  0.2128  1.0337 -0.6940
14985SOL    HW256680   0.655   1.388   3.986  2.1857  0.0028 -2.7631
14986SOL     OW56681   5.481  11.383   5.004  0.2464  0.1237  0.1785
14986SOL    HW156682   5.426  11.458   5.028  0.0587  0.8621 -2.2466
14986SOL    HW256683   5.424  11.307   5.015  0.8097  0.0714  3.8647
14987SOL     OW56684   2.609  10.163   3.171  0.1085  0.7123  0.3473
14987SOL    HW156685   2.601  10.217   3.250 -2.3006  0.9537  0.0186
14987SOL    HW256686   2.636  10.077   3.204 -0.1598  0.9958  1.3541
14988SOL     OW56687  11.229   9.050   8.026 -0.1180 -0.1909 -0.0937
14988SOL    HW156688  11.318   9.075   8.050  0.1006 -1.1631  0.1428
14988SOL    HW256689  11.222   9.074   7.934  0.0360  0.8351  0.1517
14989SOL     OW56690   8.231   0.729   5.570 -0.0550  0.2998 -0.2312
14989SOL    HW156691   8.164   0.778   5.525 -0.8193 -0.8338 -0.3747
14989SOL    HW256692   8.245   0.651   5.516  0.7204  0.0806  0.2557
14990SOL     OW56693   3.000   1.389   8.137 -0.5268 -0.5590 -0.4370
14990SOL    HW156694   2.927   1.444   8.107  1.6374  0.3109 -4.9120
14990SOL    HW256695   3.043   1.441   8.205 -0.3643  2.0120 -2.3612
14991SOL     OW56696   1.845   3.201   1.721 -0.3592 -0.0117 -0.6721
14991SOL    HW156697   1.891   3.263   1.778 -1.1888 -0.6033  0.6937
14991SOL    HW256698   1.893   3.205   1.638  1.5965  0.0482  0.3891
14992SOL     OW56699   2.706   5.664   6.710 -0.3250  0.0920 -0.3620
14992SOL    HW156700   2.801   5.660   6.718 -0.2532  2.1175  0.3439
14992SOL    HW256701   2.685   5.606   6.637  1.4957 -0.0720 -0.7828
14993SOL     OW56702  11.002   1.843  10.424 -0.6543 -0.0059  0.1570
14993SOL    HW156703  11.092   1.857  10.453 -0.2748  2.1531 -1.8671
14993SOL    HW256704  11.010   1.799  10.339 -1.5914 -0.9623  0.5284
14994SOL     OW56705   7.688  11.647   3.957 -0.0893  0.3926  0.2483
14994SOL    HW156706   7.610  11.701   3.943 -0.8531 -0.5352  0.7912
14994SOL    HW256707   7.757  11.709   3.979 -0.9890  1.1445  1.0079
14995SOL     OW56708   0.856   1.251   9.999  0.2588  0.4988 -0.0807
14995SOL    HW156709   0.931   1.305   9.975  0.5826  0.6687  1.2623
14995SOL    HW256710   0.894   1.167  10.024 -0.2572 -0.4986 -2.3765
14996SOL     OW56711   5.973   9.561   3.966  0.0911 -0.4107  0.0037
14996SOL    HW156712   5.956   9.638   4.020  0.0109 -0.8310  0.5773
14996SOL    HW256713   5.987   9.490   4.028  0.9822 -0.6982 -0.5048
14997SOL     OW56714   9.969   6.925   8.822 -0.7189  0.4608  0.1730
14997SOL    HW156715   9.935   6.867   8.754 -2.1534  1.4172  0.0380
14997SOL    HW256716  10.064   6.925   8.808 -0.9650  0.5729 -1.7904
14998SOL     OW56717   6.119   6.816  10.630  0.0757  0.3979  0.0267
14998SOL    HW156718   6.056   6.875  10.589 -1.8022 -1.9505 -0.6927
14998SOL    HW256719   6.186   6.801  10.563  0.1530  1.0865 -0.0556
14999SOL     OW56720   0.373   0.622   5.746 -0.0783 -0.4105 -0.0629
14999SOL    HW156721   0.377   0.529   5.771  1.7062  0.3182  2.8683
14999SOL    HW256722   0.455   0.639   5.701  0.2747  0.0272  0.7195
15000SOL     OW56723   6.612   4.864   7.413 -0.3345 -0.1035 -0.0660
15000SOL    HW156724   6.607   4.782   7.363 -1.1303  0.6655 -1.2962
15000SOL    HW256725   6.548   4.921   7.372  0.6912  1.3877  0.3241
15001SOL     OW56726   2.747   0.916   9.918 -0.3253 -0.9069 -0.3229
15001SOL    HW156727   2.716   0.988   9.972 -0.3500 -0.7322 -0.5679
15001SOL    HW256728   2.777   0.850   9.980  2.0697  0.3187 -0.0537
15002SOL     OW56729   6.089   5.424   0.245  0.0269 -0.0742  0.3356
15002SOL    HW156730   6.004   5.411   0.203 -0.1820 -2.0083  1.2647
15002SOL    HW256731   6.069   5.464   0.330 -0.0930 -1.6811  1.0850
15003SOL     OW56732   2.857   6.911   3.506  0.3069 -0.0809 -0.3197
15003SOL    HW156733   2.950   6.894   3.521  0.2756  0.7927  1.0137
15003SOL    HW256734   2.812   6.862   3.575 -0.0538  1.5115  0.6285
15004SOL     OW56735   3.464  11.287   2.894  0.8174 -0.0469 -0.0655
15004SOL    HW156736   3.513  11.369   2.895  0.2578  0.2880  0.8295
15004SOL    HW256737   3.530  11.220   2.874  1.1042  0.7030 -1.8376
15005SOL     OW56738   0.703   1.868   6.392 -0.2437  0.2213 -0.1994
15005SOL    HW156739   0.617   1.887   6.354 -0.6153  0.5305  0.7716
15005SOL    HW256740   0.763   1.927   6.346 -0.6347  0.3710 -0.5253
15006SOL     OW56741  11.709  11.452  11.096  0.3806 -0.4183  0.3045
15006SOL    HW156742  11.785  11.504  11.070  0.2716 -1.1242 -1.5698
15006SOL    HW256743  11.636  11.513  11.093  0.5273 -0.2656 -0.1125
15007SOL     OW56744   0.482  10.225   3.480 -0.1788 -0.6126  0.4173
15007SOL    HW156745   0.454  10.191   3.565  0.3552 -0.0080  0.8449
15007SOL    HW256746   0.511  10.148   3.431 -0.3929 -0.9505  0.8205
15008SOL     OW56747   2.507   6.781   4.295  0.2710  0.0435 -0.7642
15008SOL    HW156748   2.445   6.848   4.263 -0.4364 -0.4522 -0.4613
15008SOL    HW256749   2.587   6.830   4.314 -0.0840  0.7330 -0.9993
15009SOL     OW56750   9.265   1.101   1.097 -0.1879 -0.0351 -0.6488
15009SOL    HW156751   9.347   1.132   1.135 -0.9190  1.3221 -0.1360
15009SOL    HW256752   9.233   1.036   1.159 -0.2094  0.4826 -0.1129
15010SOL     OW56753   2.916   1.079  10.840 -0.1050 -0.4808 -0.0232
15010SOL    HW156754   2.931   1.005  10.782 -0.7387 -0.1813 -0.5867
15010SOL    HW256755   2.971   1.149  10.804  3.1486 -1.5250  2.4096
15011SOL     OW56756  11.774   8.866   7.482 -0.1299 -0.4823  0.1111
15011SOL    HW156757  11.804   8.775   7.489  0.1367 -0.2873  1.9867
15011SOL    HW256758  11.848   8.918   7.514 -0.2176  0.4366 -1.0927
15012SOL     OW56759   0.374  11.637   4.335  0.0628  0.4892  0.0083
15012SOL    HW156760   0.377  11.727   4.368 -0.0360  0.5896 -0.2580
15012SOL    HW256761   0.396  11.645   4.242  0.2082  0.2209  0.0194
15013SOL     OW56762   3.503   8.441   7.465  0.0535  0.3092  0.0337
15013SOL    HW156763   3.449   8.369   7.497  0.8175 -0.4968 -0.4220
15013SOL    HW256764   3.499   8.506   7.534 -1.5873  0.3390 -0.0422
15014SOL     OW56765   7.005   9.092   3.093  0.2309 -0.0420 -0.1502
15014SOL    HW156766   7.074   9.151   3.121 -1.5620  1.9405  0.3343
15014SOL    HW256767   6.941   9.093   3.164 -0.9556 -0.7044 -1.1611
15015SOL     OW56768   6.357   3.772  11.633 -0.0899 -0.1448 -0.3221
15015SOL    HW156769   6.288   3.715  11.599 -0.3454  0.8814 -1.6010
15015SOL    HW256770   6.316   3.858  11.641  1.0995  0.5627 -1.4058
15016SOL     OW56771   0.832   6.425   4.290  0.9258 -0.0661  0.2989
15016SOL    HW156772   0.920   6.425   4.254  0.4019 -1.2035 -1.0688
15016SOL    HW256773   0.839   6.374   4.371  1.5237 -0.0886  0.2387
15017SOL     OW56774   0.058   1.935   5.568 -0.9629  0.0021 -0.1561
15017SOL    HW156775   0.137   1.890   5.538 -1.4043 -0.0145 -1.3400
15017SOL    HW256776   0.082   2.028   5.568 -0.4190 -0.1103  1.1705
15018SOL     OW56777  10.651  10.541   2.761 -0.3104  0.4587 -0.5838
15018SOL    HW156778  10.674  10.570   2.673  0.3929 -0.8302 -0.8431
15018SOL    HW256779  10.649  10.622   2.813  2.0525  0.9590 -1.1814
15019SOL     OW56780   6.662   7.961   5.415 -0.0382  0.0644  0.2506
15019SOL    HW156781   6.717   7.930   5.488 -0.1735 -1.6660 -0.3392
15019SOL    HW256782   6.648   7.884   5.361  0.7295  1.4742 -2.0937
15020SOL     OW56783   3.460   1.902   9.091  0.8739 -0.2277 -0.6973
15020SOL    HW156784   3.474   1.996   9.081  1.2054 -0.2037 -0.0756
15020SOL    HW256785   3.537   1.871   9.140 -0.4800 -0.3541  1.4572
15021SOL     OW56786   7.213  11.143  10.961  0.0186  0.2781  0.4144
15021SOL    HW156787   7.216  11.120  11.054  3.1151 -0.9274  0.1462
15021SOL    HW256788   7.159  11.222  10.957 -3.7042 -1.8616  2.6181
15022SOL     OW56789   5.791  11.375   8.158  0.1870  0.0079 -0.1652
15022SOL    HW156790   5.853  11.316   8.115  0.6011 -1.2230  1.9468
15022SOL    HW256791   5.844  11.424   8.221 -0.4788  1.2660 -0.5624
15023SOL     OW56792   3.588   4.935   8.050  0.3291  0.4312 -0.1168
15023SOL    HW156793   3.504   4.889   8.059  0.8807 -0.5903  0.0011
15023SOL    HW256794   3.585   4.972   7.962  0.1270 -0.4150 -0.4842
15024SOL     OW56795  10.057   2.036  10.678  0.6050  0.7063  0.1204
15024SOL    HW156796  10.047   1.941  10.680  2.1368  0.5160  0.1562
15024SOL    HW256797   9.997   2.068  10.746  1.7737 -0.4399  1.7643
15025SOL     OW56798   5.111   8.195   5.070  0.5903  0.2090  0.3341
15025SOL    HW156799   5.082   8.177   5.159  0.0853  0.3916  0.2106
15025SOL    HW256800   5.030   8.201   5.019  0.7598  1.9626  0.2033
15026SOL     OW56801   3.712   6.180   3.646 -0.6806  0.0595  0.5667
15026SOL    HW156802   3.693   6.161   3.737 -1.0829  1.3033  0.7575
15026SOL    HW256803   3.742   6.271   3.645  0.6420 -0.3416 -0.3675
15027SOL     OW56804  11.771  10.092   6.470  0.7901  0.7414 -0.0152
15027SOL    HW156805  11.777  10.007   6.513 -0.6673  0.7173  0.1804
15027SOL    HW256806  11.820  10.081   6.389 -1.6537 -1.2351 -1.3768
15028SOL     OW56807   7.471   9.042  10.882 -0.2673 -0.1527 -0.7219
15028SOL    HW156808   7.416   9.046  10.961 -1.3882  3.4279 -1.5155
15028SOL    HW256809   7.413   9.006  10.815  0.9187 -3.9911  0.0217
15029SOL     OW56810   7.702   0.298   5.602 -0.1031  0.0162  0.4032
15029SOL    HW156811   7.652   0.218   5.614 -2.0592  1.1247  0.1041
15029SOL    HW256812   7.722   0.328   5.690  0.2026 -0.5179  0.5217
15030SOL     OW56813   0.628   4.336   1.144  0.3611 -0.3681 -0.4029
15030SOL    HW156814   0.655   4.413   1.094 -0.7562 -0.5670 -1.3502
15030SOL    HW256815   0.686   4.266   1.113  0.1831 -0.3168 -0.8578
15031SOL     OW56816  11.409   6.316  11.312  0.3764 -0.2710 -0.2056
15031SOL    HW156817  11.488   6.362  11.342  0.0295  0.3834 -0.2643
15031SOL    HW256818  11.340   6.347  11.371  0.1268 -0.7013 -0.2680
15032SOL     OW56819   8.860   3.547  11.888 -0.4025  0.0770 -0.6332
15032SOL    HW156820   8.863   3.642  11.876 -1.2415  0.2893  0.6624
15032SOL    HW256821   8.947   3.517  11.863  0.2033  1.3129 -0.0775
15033SOL     OW56822   9.736   8.661   8.165 -0.1158  0.6253  0.2197
15033SOL    HW156823   9.763   8.655   8.257  1.0682  1.5946 -0.0458
15033SOL    HW256824   9.644   8.634   8.166 -0.6956  2.4005  2.0011
15034SOL     OW56825  10.984   3.318   4.572  0.1751  0.9350  0.1566
15034SOL    HW156826  10.895   3.329   4.538  0.3435 -0.7360 -0.8979
15034SOL    HW256827  11.040   3.331   4.496  0.5946 -2.0736 -0.1336
15035SOL     OW56828   6.754   2.673   1.361  0.0243  0.1277 -0.2644
15035SOL    HW156829   6.667   2.686   1.398 -0.4647  0.6973 -1.5754
15035SOL    HW256830   6.757   2.730   1.285 -0.3204 -3.4244 -3.2465
15036SOL     OW56831  10.949   9.037   7.280  0.3071 -0.2681  0.3079
15036SOL    HW156832  10.935   9.040   7.375  1.9348 -3.3515  0.7721
15036SOL    HW256833  11.044   9.031   7.270  0.2040  0.5964 -1.5845
15037SOL     OW56834   4.842   2.902   7.172  0.4461  0.0700 -0.6857
15037SOL    HW156835   4.828   2.828   7.231 -1.6455  0.0578 -1.1440
15037SOL    HW256836   4.916   2.949   7.211  0.6794 -1.2626  0.5839
15038SOL     OW56837   7.019   4.032   5.699 -0.4846 -0.3591 -0.2622
15038SOL    HW156838   7.113   4.016   5.707 -0.7447 -1.3806  1.1146
15038SOL    HW256839   6.999   4.010   5.608  0.3759 -1.4946 -0.2016
15039SOL     OW56840  10.183   4.065   7.599 -0.4508  0.0203 -0.8492
15039SOL    HW156841  10.235   4.112   7.664 -1.0026 -1.6995  0.9223
15039SOL    HW256842  10.245   4.049   7.527  0.2132  1.8215 -0.7288
15040SOL     OW56843   9.705   4.994   9.155 -0.1794 -0.1228  0.1332
15040SOL    HW156844   9.697   4.989   9.059  0.1204  0.5654  0.0619
15040SOL    HW256845   9.752   4.915   9.180 -0.6428 -0.5219 -0.2432
15041SOL     OW56846   1.448   7.135  11.689 -0.0681 -0.2725  0.7464
15041SOL    HW156847   1.405   7.217  11.713  0.8224  1.1985 -2.1964
15041SOL    HW256848   1.384   7.089  11.636  0.0673 -0.6227  0.8861
15042SOL     OW56849   3.828  10.626   2.120 -0.0514 -0.4472 -0.0507
15042SOL    HW156850   3.881  10.558   2.161 -1.0826 -0.7924  0.7694
15042SOL    HW256851   3.744  10.583   2.103 -1.1805  0.9127  1.6583
15043SOL     OW56852   0.512   1.932  10.032 -0.0394  0.1582  0.8252
15043SOL    HW156853   0.482   1.982   9.957 -0.8614 -2.1981 -0.5147
15043SOL    HW256854   0.435   1.924  10.089 -0.1591 -0.3273  0.5983
15044SOL     OW56855   7.026   9.786   8.644 -0.4714 -0.6729  0.2798
15044SOL    HW156856   6.946   9.818   8.685  0.2992  1.4138  0.2852
15044SOL    HW256857   7.028   9.828   8.558 -0.9987 -3.3228 -1.1257
15045SOL     OW56858   1.583   0.233   9.949  0.2731  0.2698 -0.0872
15045SOL    HW156859   1.668   0.265   9.917 -0.5797  1.0250 -1.7091
15045SOL    HW256860   1.527   0.310   9.949 -0.2296 -0.0469  1.7868
15046SOL     OW56861   0.651   2.824   6.150  0.3728 -0.2069  0.0872
15046SOL    HW156862   0.732   2.779   6.126 -0.2242 -1.0659 -0.3772
15046SOL    HW256863   0.590   2.803   6.079 -0.8942 -1.3026  1.4291
15047SOL     OW56864   8.241   5.761   5.855  0.2648 -0.0147 -0.1178
15047SOL    HW156865   8.280   5.704   5.921 -0.6323 -0.7687 -0.2188
15047SOL    HW256866   8.268   5.849   5.881  0.0778 -0.3166  1.1614
15048SOL     OW56867   6.553   8.532   6.229  0.4958 -0.8825 -0.2621
15048SOL    HW156868   6.580   8.603   6.287 -1.0593  1.1960 -1.9131
15048SOL    HW256869   6.635   8.491   6.203  1.6138  1.1985 -0.2705
15049SOL     OW56870  10.269   2.643   6.900  0.0823 -0.4175 -0.0649
15049SOL    HW156871  10.219   2.710   6.946  0.4683  0.8465 -1.4204
15049SOL    HW256872  10.206   2.573   6.884 -0.8094  0.3935 -0.1956
15050SOL     OW56873   3.519   5.553  10.705  0.3095  0.1282  0.3140
15050SOL    HW156874   3.529   5.460  10.684  0.0593  0.1892 -0.0767
15050SOL    HW256875   3.592   5.572  10.765 -0.5421 -0.6860  1.6643
15051SOL     OW56876   3.362   2.812   2.012 -0.2690 -0.0102  0.6994
15051SOL    HW156877   3.290   2.834   1.953 -0.8111  0.0603  1.3746
15051SOL    HW256878   3.327   2.831   2.099  1.1267  1.6648  0.9518
15052SOL     OW56879  10.280   7.836   4.390  0.3383 -0.0300 -0.0884
15052SOL    HW156880  10.278   7.796   4.303  0.3077  0.6987 -0.4312
15052SOL    HW256881  10.368   7.872   4.398  0.3914 -0.2317  0.2476
15053SOL     OW56882   0.032   0.978   0.083 -0.0960  0.7941  0.9842
15053SOL    HW156883  -0.008   0.891   0.080  0.5072  0.5348 -1.0871
15053SOL    HW256884  -0.034   1.036   0.047  0.0190  0.9693  1.0531
15054SOL     OW56885   2.099   7.064   7.876  0.2610  0.4461 -0.0777
15054SOL    HW156886   2.154   7.138   7.902  0.5461  0.6447 -1.1893
15054SOL    HW256887   2.151   6.987   7.900 -0.4827  0.5484  2.0464
15055SOL     OW56888  10.412   4.181  11.347  0.4609 -0.3857  0.1412
15055SOL    HW156889  10.333   4.236  11.344  1.5545  1.2714  0.2223
15055SOL    HW256890  10.432   4.174  11.440  0.9266 -0.0092  0.0720
15056SOL     OW56891   2.641   9.530  11.002  0.0970  0.3973  0.0350
15056SOL    HW156892   2.680   9.523  11.089 -0.4920  2.8394  0.5651
15056SOL    HW256893   2.569   9.592  11.012 -0.6257 -0.0050 -2.0100
15057SOL     OW56894   7.768   1.107   3.823 -0.2211 -0.0843 -0.0460
15057SOL    HW156895   7.807   1.029   3.864 -1.1016 -1.1899 -1.2185
15057SOL    HW256896   7.842   1.153   3.784  0.3157 -0.3191  0.6746
15058SOL     OW56897   2.489   6.918   1.204  1.0383  0.2132 -0.4543
15058SOL    HW156898   2.483   6.876   1.118  1.6190  0.2663 -0.5279
15058SOL    HW256899   2.548   6.992   1.189 -0.8524  1.7566 -0.5910
15059SOL     OW56900   0.503   5.347   0.329 -0.2750  0.0865  0.3984
15059SOL    HW156901   0.503   5.440   0.349 -0.1694  0.2670 -0.3935
15059SOL    HW256902   0.410   5.323   0.325 -0.3166  0.3075 -0.0293
15060SOL     OW56903   4.087   8.174   1.023  0.6373 -0.4449  0.0600
15060SOL    HW156904   4.133   8.258   1.013  0.2020 -0.1653  0.3575
15060SOL    HW256905   4.157   8.110   1.037  0.9442 -0.0403  0.4057
15061SOL     OW56906   4.100  11.051   2.882 -0.3526 -0.3975 -0.1528
15061SOL    HW156907   4.154  11.103   2.942 -0.6678 -0.5538  0.2754
15061SOL    HW256908   4.138  11.065   2.796 -1.4339  1.8984 -0.3147
15062SOL     OW56909   6.870   5.284   3.950 -0.1691 -0.3755  0.3999
15062SOL    HW156910   6.940   5.341   3.918 -2.3184  1.6412 -1.0436
15062SOL    HW256911   6.856   5.311   4.041  0.6168 -0.4950  0.5632
15063SOL     OW56912   0.790   1.803   4.566 -0.0247  0.1742  0.0721
15063SOL    HW156913   0.830   1.889   4.580  1.7432 -0.4807 -0.6350
15063SOL    HW256914   0.754   1.780   4.652  1.2557  0.7851  0.8175
15064SOL     OW56915   4.615   0.418   4.658 -0.4816  0.0292  0.2370
15064SOL    HW156916   4.540   0.453   4.706 -0.9766 -0.7592  0.0432
15064SOL    HW256917   4.601   0.447   4.568  0.0660  0.8757  0.4072
15065SOL     OW56918   4.818  10.598   9.994 -0.3217  0.2921 -0.1007
15065SOL    HW156919   4.851  10.519  10.035  0.0042 -0.3722 -1.5668
15065SOL    HW256920   4.892  10.630   9.941 -0.7793  1.0053 -0.3288
15066SOL     OW56921   0.640   3.333   4.677  0.3864 -0.6750 -0.3654
15066SOL    HW156922   0.547   3.338   4.656  0.5036  0.4259 -0.7235
15066SOL    HW256923   0.643   3.293   4.764 -0.4848  0.0750  0.0346
15067SOL     OW56924   1.362   0.230   0.919  0.1522  0.3446  0.9518
15067SOL    HW156925   1.410   0.313   0.928 -0.7455  0.9133  0.6935
15067SOL    HW256926   1.278   0.256   0.878 -0.0695 -0.7142  0.7117
15068SOL     OW56927   6.448   8.846   5.190  0.0689 -0.7150  0.0068
15068SOL    HW156928   6.433   8.924   5.243  1.1279 -0.4063 -0.1198
15068SOL    HW256929   6.441   8.774   5.252 -0.8447 -0.5285  0.1384
15069SOL     OW56930   2.872   4.327   7.133  0.3491 -0.1340 -0.0889
15069SOL    HW156931   2.877   4.234   7.111  0.9834 -1.1124  3.5581
15069SOL    HW256932   2.960   4.360   7.120 -0.0073  0.1586 -1.9549
15070SOL     OW56933   6.368   6.394   6.292  0.2621 -0.4534  0.3357
15070SOL    HW156934   6.414   6.348   6.222  0.6723 -0.3124  0.5098
15070SOL    HW256935   6.279   6.358   6.290  0.7883 -1.9163  1.0386
15071SOL     OW56936  10.224   9.769   9.684 -0.4569 -0.1325 -0.2344
15071SOL    HW156937  10.309   9.810   9.703 -0.0379 -0.5212 -1.1743
15071SOL    HW256938  10.242   9.675   9.686 -1.4300 -0.3407  1.9863
15072SOL     OW56939   1.421   0.129   2.287 -0.2596 -0.0548 -0.3577
15072SOL    HW156940   1.388   0.071   2.218 -2.0071  1.1753 -0.6392
15072SOL    HW256941   1.345   0.142   2.344  0.4289  1.0267  0.3315
15073SOL     OW56942   8.034   2.303  10.721  0.2533 -0.2681  0.1610
15073SOL    HW156943   7.987   2.288  10.803 -0.0528  1.1603  0.2713
15073SOL    HW256944   7.973   2.276  10.653 -0.1395  0.1019  0.3601
15074SOL     OW56945   1.228   6.220   7.344 -0.5271  0.0642  0.3481
15074SOL    HW156946   1.135   6.210   7.324 -0.3507 -0.3847 -0.2450
15074SOL    HW256947   1.229   6.252   7.435 -1.2090 -1.4976  0.9344
15075SOL     OW56948   1.427   0.593   2.285  0.0071 -0.2138 -0.5036
15075SOL    HW156949   1.370   0.516   2.282 -0.1645 -0.0825 -0.6432
15075SOL    HW256950   1.459   0.603   2.195  0.2577 -0.2896 -0.4257
15076SOL     OW56951   5.242   4.919   1.500 -0.0431  0.5161  0.2811
15076SOL    HW156952   5.327   4.906   1.457 -0.5292 -0.4629 -0.4127
15076SOL    HW256953   5.263   4.970   1.578  1.1567  0.5024 -0.0097
15077SOL     OW56954   0.278   7.721  10.994  0.3518  0.4020 -0.4148
15077SOL    HW156955   0.271   7.817  10.993  0.7608  0.4363  0.1182
15077SOL    HW256956   0.216   7.693  11.061  1.0582  0.3593  0.2186
15078SOL     OW56957   7.587   0.578   1.045  0.3902  0.1743 -0.3226
15078SOL    HW156958   7.610   0.658   0.998 -0.5806 -0.1416 -1.3938
15078SOL    HW256959   7.560   0.517   0.976  0.1858 -0.7544  0.5544
15079SOL     OW56960   4.236   7.614  11.283  0.4465 -0.2134 -0.6403
15079SOL    HW156961   4.154   7.619  11.235 -0.5749  0.9187  1.1277
15079SOL    HW256962   4.244   7.522  11.308  0.4102 -0.5854 -1.9057
15080SOL     OW56963  10.324   6.798   1.233 -0.1438  0.1396 -0.4708
15080SOL    HW156964  10.294   6.845   1.311 -0.4742  0.5809 -0.8578
15080SOL    HW256965  10.263   6.824   1.165 -0.1602 -0.6382 -0.7621
15081SOL     OW56966   7.375   2.717  10.466  0.5304  0.4723  0.4517
15081SOL    HW156967   7.459   2.708  10.510  1.2879  0.8689 -0.8410
15081SOL    HW256968   7.397   2.757  10.382 -0.8313 -0.4027 -0.3515
15082SOL     OW56969   5.436   0.141   7.061 -0.1746 -0.0510 -0.4218
15082SOL    HW156970   5.520   0.136   7.017 -0.0594 -0.6005 -0.1474
15082SOL    HW256971   5.386   0.206   7.012 -0.8244 -2.1234 -2.7077
15083SOL     OW56972   0.086   5.585   4.126 -0.3060 -0.3234 -0.2293
15083SOL    HW156973   0.100   5.493   4.106 -1.4602 -0.2103 -1.7929
15083SOL    HW256974   0.105   5.631   4.044  0.2223  0.8333  0.5126
15084SOL     OW56975  11.481   1.565   7.169  0.3880  0.4659 -0.1888
15084SOL    HW156976  11.390   1.594   7.155 -0.2349 -0.5186  1.5117
15084SOL    HW256977  11.529   1.647   7.185 -0.7509  0.8542  1.5327
15085SOL     OW56978   4.026   3.915   9.081 -0.0805  0.8383 -0.7373
15085SOL    HW156979   4.088   3.909   9.008 -1.5725  0.6022 -2.0402
15085SOL    HW256980   3.941   3.929   9.039 -0.7095  2.9887  1.0598
15086SOL     OW56981   3.325   0.592   3.870  0.2036 -0.5118 -0.0357
15086SOL    HW156982   3.394   0.556   3.813  0.9645  0.9018 -0.0558
15086SOL    HW256983   3.245   0.583   3.818  0.8612  0.6330 -1.3234
15087SOL     OW56984   0.477  11.656   6.854  0.1632 -0.0150 -0.3764
15087SOL    HW156985   0.568  11.681   6.836  0.3648  0.0401  0.6618
15087SOL    HW256986   0.444  11.726   6.911 -0.8511  0.4883 -1.5075
15088SOL     OW56987   7.010   3.031  11.266 -0.0736 -0.2926  0.1203
15088SOL    HW156988   7.048   3.119  11.257 -1.2354  0.2249  0.0498
15088SOL    HW256989   7.084   2.972  11.256  0.6720  0.6707 -0.2594
15089SOL     OW56990   5.977   3.610   2.114 -0.0973  0.1598  0.2548
15089SOL    HW156991   6.014   3.569   2.192  1.9349  2.0746  0.3993
15089SOL    HW256992   5.924   3.682   2.148 -0.9191 -0.2763 -0.0868
15090SOL     OW56993   2.472   0.787   1.207 -0.1668 -0.3076 -0.1727
15090SOL    HW156994   2.413   0.857   1.234 -0.3004 -0.5433  0.1453
15090SOL    HW256995   2.508   0.752   1.288  0.2910 -0.2697 -0.3581
15091SOL     OW56996   6.715   3.025   9.302  0.5738 -0.2299  0.3190
15091SOL    HW156997   6.684   2.978   9.224 -1.9077  0.2019  0.9411
15091SOL    HW256998   6.676   2.978   9.375 -2.0596  2.6373  0.9814
15092SOL     OW56999   2.888   3.487   8.167 -0.4141  0.5544 -0.2962
15092SOL    HW157000   2.793   3.500   8.177 -0.8213 -0.9664 -1.7869
15092SOL    HW257001   2.899   3.392   8.160  1.3826  0.6048  1.0677
15093SOL     OW57002   8.689   2.408   1.354 -0.3714  0.1635 -0.1597
15093SOL    HW157003   8.764   2.449   1.312 -0.8580 -0.1841 -1.4406
15093SOL    HW257004   8.693   2.316   1.326 -1.6084  0.2732 -0.8000
15094SOL     OW57005   6.093   2.077   4.156 -0.0447 -0.1156 -0.1266
15094SOL    HW157006   6.079   1.996   4.108  0.7297  0.1083 -0.7502
15094SOL    HW257007   6.178   2.065   4.198 -0.3312  0.0265  0.5102
15095SOL     OW57008   3.523   3.435  11.242  0.2670 -0.5792 -0.2821
15095SOL    HW157009   3.554   3.400  11.325  0.3428 -0.1635 -0.1363
15095SOL    HW257010   3.522   3.530  11.254  1.0355 -0.4728 -1.0178
15096SOL     OW57011   6.789  10.142   5.834 -0.3919  0.2200  0.6177
15096SOL    HW157012   6.768  10.126   5.926 -4.6681  0.7178 -0.0340
15096SOL    HW257013   6.766  10.060   5.790 -0.7927  0.7974 -0.2630
15097SOL     OW57014   3.851  11.341   8.910 -0.3129  0.2179 -0.2386
15097SOL    HW157015   3.844  11.429   8.947  0.2242 -0.1300  0.7178
15097SOL    HW257016   3.924  11.300   8.956 -1.0334 -0.9994 -0.1094
15098SOL     OW57017   8.971   5.507   7.676  0.0443 -0.5654  0.3399
15098SOL    HW157018   8.923   5.429   7.705  0.7099 -1.2448 -0.3331
15098SOL    HW257019   8.912   5.580   7.694 -1.7669 -1.4553 -1.5561
15099SOL     OW57020   5.672   8.802   7.281  0.2232 -0.2826 -0.1149
15099SOL    HW157021   5.721   8.828   7.359  0.3795 -3.1408  0.8766
15099SOL    HW257022   5.717   8.724   7.249 -2.7736 -2.2435  0.0448
15100SOL     OW57023   5.930   6.686   9.015  0.2291 -0.1589  0.2451
15100SOL    HW157024   5.836   6.697   9.001  0.3710  0.9524  0.1279
15100SOL    HW257025   5.962   6.645   8.934 -0.2889 -1.4060  0.6519
15101SOL     OW57026  11.261   7.554   7.669  0.4086 -0.1773  0.5553
15101SOL    HW157027  11.187   7.547   7.729  0.8445 -1.5089  0.9644
15101SOL    HW257028  11.305   7.469   7.675  0.9477 -0.0335 -1.0153
15102SOL     OW57029   8.256   4.098   1.857 -0.3863  0.1112 -0.4899
15102SOL    HW157030   8.343   4.068   1.885 -0.3676 -0.9055 -1.5739
15102SOL    HW257031   8.272   4.184   1.819  0.0685  0.1407 -0.2424
15103SOL     OW57032   7.957   2.319   4.907 -0.2376 -0.2963 -0.1860
15103SOL    HW157033   8.029   2.271   4.865 -0.6001  0.5889 -1.9154
15103SOL    HW257034   7.898   2.251   4.938  1.0190 -1.0314  0.7091
15104SOL     OW57035   1.110   4.877   1.596  0.0030 -0.2898 -0.4129
15104SOL    HW157036   1.072   4.793   1.622 -0.7786  0.5917  1.5020
15104SOL    HW257037   1.204   4.865   1.606  0.0376 -1.3657 -1.6544
15105SOL     OW57038   1.805   2.663  10.735 -0.7600  0.7072 -0.5187
15105SOL    HW157039   1.801   2.756  10.756  0.4179  0.7561 -0.4935
15105SOL    HW257040   1.724   2.627  10.772 -1.0195  1.6421 -0.1593
15106SOL     OW57041  10.973   8.822   5.656 -0.4133 -0.1401 -0.2255
15106SOL    HW157042  10.967   8.894   5.593  0.9558 -0.7698 -1.1257
15106SOL    HW257043  10.968   8.743   5.602 -1.6627 -0.7393  0.7242
15107SOL     OW57044  10.626   4.225   0.742  0.0088 -0.2932 -0.4243
15107SOL    HW157045  10.568   4.287   0.787  1.3201  2.5197 -2.2519
15107SOL    HW257046  10.661   4.169   0.811 -1.8305  0.5129  1.2526
15108SOL     OW57047   8.400  10.915   0.589  0.4644  0.1306 -0.0464
15108SOL    HW157048   8.380  10.895   0.497 -0.3684 -0.2021  0.1965
15108SOL    HW257049   8.327  10.969   0.618 -0.0510 -0.9816  0.8269
15109SOL     OW57050   2.765   0.069   0.578 -0.2201  0.3012 -0.0694
15109SOL    HW157051   2.841   0.048   0.524 -0.3196 -0.6499  0.1501
15109SOL    HW257052   2.770   0.164   0.591  0.8962  0.2521 -0.0933
15110SOL     OW57053   8.655   3.699   9.098 -0.0220  0.5871  0.3629
15110SOL    HW157054   8.718   3.629   9.118  0.6561  1.0493 -0.1553
15110SOL    HW257055   8.703   3.780   9.115 -0.3827  0.9451 -0.2944
15111SOL     OW57056   8.957   6.411   7.714  0.3601  0.3243 -0.1282
15111SOL    HW157057   8.905   6.451   7.784  0.4013 -0.9147  0.6390
15111SOL    HW257058   8.964   6.319   7.738  2.1885  0.2713 -0.6562
15112SOL     OW57059   9.749   8.743   1.172  0.8921 -0.0494  0.4351
15112SOL    HW157060   9.789   8.670   1.124  0.5576 -0.3224  0.5647
15112SOL    HW257061   9.667   8.707   1.206  1.0006  0.2119  0.9950
15113SOL     OW57062   0.923  10.225  10.023  0.1612  0.2395  0.2049
15113SOL    HW157063   0.896  10.239   9.932 -0.5613  0.8707  0.5121
15113SOL    HW257064   1.015  10.253  10.025  0.5632 -0.9049 -0.5943
15114SOL     OW57065   0.432   3.988   0.347 -0.0886 -0.1358  0.4399
15114SOL    HW157066   0.519   3.950   0.357  0.3242  0.8134  0.6112
15114SOL    HW257067   0.383   3.955   0.423  0.3651 -0.0602  0.7733
15115SOL     OW57068   6.930   7.673   7.927  0.4184 -0.1478  0.0882
15115SOL    HW157069   6.990   7.602   7.950  1.1696  0.8055  1.2316
15115SOL    HW257070   6.868   7.677   8.000 -0.3679 -0.3923 -0.5497
15116SOL     OW57071   5.864   5.059   5.323  0.7995 -0.2897 -0.1581
15116SOL    HW157072   5.885   5.080   5.231 -0.9384 -0.7745 -0.6932
15116SOL    HW257073   5.776   5.022   5.320  0.9691 -0.9200  1.6519
15117SOL     OW57074   2.892   6.608   4.631 -0.2917  0.0671  0.3063
15117SOL    HW157075   2.840   6.548   4.685 -0.8559  0.3699  0.1078
15117SOL    HW257076   2.954   6.648   4.691  0.5113 -1.1736  0.3312
15118SOL     OW57077   9.038   4.757   8.012  0.4659 -0.3120 -0.5154
15118SOL    HW157078   9.032   4.718   7.925  0.6894  0.0734 -0.7038
15118SOL    HW257079   9.122   4.803   8.013 -0.6928  1.9505 -1.0445
15119SOL     OW57080   0.255  11.481   8.679  0.0023  0.1457 -0.4610
15119SOL    HW157081   0.169  11.524   8.670 -2.6507 -4.4503 -0.1790
15119SOL    HW257082   0.238  11.390   8.658  5.0918 -0.9775 -0.9233
15120SOL     OW57083   1.688   4.450  10.182 -0.4152  0.5242  0.4238
15120SOL    HW157084   1.629   4.392  10.231 -1.7141  2.5503  1.3761
15120SOL    HW257085   1.766   4.456  10.238 -0.4236  0.0319  0.4989
15121SOL     OW57086   8.710   9.965   7.650  0.3310  0.3207 -0.0011
15121SOL    HW157087   8.783   9.992   7.705  0.0395 -1.1462  1.1631
15121SOL    HW257088   8.749   9.904   7.587  0.1692 -0.2827  0.4736
15122SOL     OW57089  11.800   1.090   1.088  0.2073 -0.0104  0.1454
15122SOL    HW157090  11.888   1.053   1.102  0.0057 -0.1845  0.9864
15122SOL    HW257091  11.744   1.041   1.148 -0.4642  0.1275 -0.3655
15123SOL     OW57092  11.814   8.848   3.507  0.5314 -0.4177  0.3931
15123SOL    HW157093  11.828   8.837   3.413 -1.3635 -1.0342  0.1419
15123SOL    HW257094  11.895   8.816   3.547  0.6066 -2.0459 -0.9623
15124SOL     OW57095   6.784   4.223  10.500  0.5831  0.2738  0.5348
15124SOL    HW157096   6.825   4.167  10.435  0.1262  1.7855 -1.1232
15124SOL    HW257097   6.856   4.276  10.535  0.7246 -0.1042  0.8245
15125SOL     OW57098   7.886   6.302   8.294  0.3607 -0.2634 -0.3774
15125SOL    HW157099   7.829   6.226   8.288  0.1023 -0.1426  0.4774
15125SOL    HW257100   7.887   6.338   8.205 -1.2194 -0.0316 -0.3144
15126SOL     OW57101   6.632   0.406   4.743  0.2032  0.1980  0.3273
15126SOL    HW157102   6.686   0.471   4.698 -0.4057 -0.1431 -0.9215
15126SOL    HW257103   6.577   0.458   4.802 -0.2593  0.8261 -0.6347
15127SOL     OW57104  11.403   7.526  11.246  0.6084  0.4905 -0.2473
15127SOL    HW157105  11.443   7.442  11.226  1.6704  0.6455  1.0998
15127SOL    HW257106  11.399   7.572  11.162 -0.9240 -1.2477 -1.1971
15128SOL     OW57107   0.075   8.065   8.312 -0.5044 -0.1768  0.3200
15128SOL    HW157108   0.134   8.126   8.267 -2.3032  0.7678 -0.9143
15128SOL    HW257109   0.001   8.120   8.338 -0.0649 -0.9450  3.5132
15129SOL     OW57110   3.235  10.767  10.141 -0.8754  0.3737 -0.2588
15129SOL    HW157111   3.285  10.719  10.207 -0.2142  0.2122 -0.8657
15129SOL    HW257112   3.183  10.830  10.191 -0.1497  0.4604  0.3971
15130SOL     OW57113  10.092   4.691   8.839 -0.8938 -0.3514  0.2378
15130SOL    HW157114  10.030   4.758   8.810  1.4133  1.0496 -1.8580
15130SOL    HW257115  10.125   4.725   8.923  0.0440  1.1002 -0.6638
15131SOL     OW57116  11.028   3.403   9.340 -0.2560 -0.4905 -0.5249
15131SOL    HW157117  11.024   3.317   9.381  0.3037 -0.2146  0.1388
15131SOL    HW257118  10.944   3.444   9.360  0.6802  0.3708  2.0829
15132SOL     OW57119   4.363   3.348   8.122  0.2117 -0.1101 -0.2935
15132SOL    HW157120   4.313   3.356   8.041 -1.3253 -0.9793  0.5199
15132SOL    HW257121   4.334   3.421   8.176  1.0075  0.2922 -0.3926
15133SOL     OW57122   4.569   0.432   8.763  0.1934 -0.1156 -0.2356
15133SOL    HW157123   4.612   0.406   8.681 -0.6443  0.2156 -0.7890
15133SOL    HW257124   4.482   0.392   8.758 -1.1745  2.7265 -1.1344
15134SOL     OW57125   5.020   9.458   3.520  0.3625  0.0542 -0.2913
15134SOL    HW157126   5.067   9.476   3.602  1.0358 -0.4773 -0.5579
15134SOL    HW257127   4.970   9.538   3.504  0.9639  0.5285  0.1407
15135SOL     OW57128   8.067  10.654   0.376 -0.0825  0.2009  0.5122
15135SOL    HW157129   8.105  10.586   0.432 -1.9811  0.3656  2.1504
15135SOL    HW257130   8.009  10.606   0.317 -1.1778  0.3005  1.4566
15136SOL     OW57131   4.534   1.683   6.743  0.5939  0.6977  0.0381
15136SOL    HW157132   4.593   1.654   6.812 -1.6501  1.2642  2.3267
15136SOL    HW257133   4.546   1.778   6.740 -0.1534  0.8081  0.4839
15137SOL     OW57134   3.919  11.704   3.865 -0.3343  0.2894  0.1176
15137SOL    HW157135   3.950  11.690   3.954  1.5504 -0.2471 -0.5779
15137SOL    HW257136   3.891  11.795   3.863 -0.5251  0.2759  1.2693
15138SOL     OW57137   7.241   2.685   3.476  0.4790 -0.2806  0.4715
15138SOL    HW157138   7.146   2.680   3.486  0.5742 -0.9943  1.0839
15138SOL    HW257139   7.259   2.635   3.396  0.4463 -1.1246  0.9870
15139SOL     OW57140   3.780  10.242   0.761 -0.3125  0.5265 -0.3309
15139SOL    HW157141   3.764  10.210   0.672  1.0911 -1.8133  0.1855
15139SOL    HW257142   3.720  10.190   0.816  1.9062 -1.3101  0.5055
15140SOL     OW57143   7.816   5.986   5.534 -0.3063 -0.3324 -0.2340
15140SOL    HW157144   7.775   5.911   5.577  1.3958 -1.5142 -0.5438
15140SOL    HW257145   7.757   6.059   5.550 -1.9157 -1.6915  0.2770
15141SOL     OW57146   7.862  11.868  10.999 -0.3622  0.6370  0.1505
15141SOL    HW157147   7.910  11.818  11.065  1.0138  0.9982 -0.5141
15141SOL    HW257148   7.788  11.813  10.975 -0.7000  0.3633  1.7536
15142SOL     OW57149   1.814   8.013   9.658  0.3066 -0.4729 -0.3582
15142SOL    HW157150   1.796   8.105   9.678 -1.5431 -0.9755  0.4782
15142SOL    HW257151   1.870   8.016   9.580  1.2124  1.3689  0.2986
15143SOL     OW57152   4.692   6.684   5.622 -0.2420  0.0520 -0.3007
15143SOL    HW157153   4.651   6.701   5.707 -0.6681 -0.1125 -0.4737
15143SOL    HW257154   4.668   6.593   5.602 -1.2783  0.5132 -1.2341
15144SOL     OW57155   5.626   3.249   3.043 -0.4582  0.5273  0.4566
15144SOL    HW157156   5.720   3.258   3.059 -0.2963  1.2549 -0.7786
15144SOL    HW257157   5.619   3.183   2.974 -0.9634 -0.5587  1.5084
15145SOL     OW57158   5.657  11.544   8.596  0.2204  0.4821 -0.0091
15145SOL    HW157159   5.574  11.499   8.580  0.9080 -0.5675 -0.8048
15145SOL    HW257160   5.633  11.634   8.616 -1.1527  0.0022  0.6220
15146SOL     OW57161   9.178   0.071   9.497  0.1472  0.3789  0.0897
15146SOL    HW157162   9.240   0.069   9.571  0.0506 -0.6904  0.1659
15146SOL    HW257163   9.109   0.131   9.525 -0.7614 -1.2719  1.6437
15147SOL     OW57164   6.732   1.259   5.231 -0.0200  0.1118  0.0123
15147SOL    HW157165   6.703   1.227   5.146  0.4456 -0.2422 -0.0137
15147SOL    HW257166   6.819   1.222   5.243  0.9632  2.1447 -0.4396
15148SOL     OW57167   5.844   2.558   5.667 -0.6124 -0.0794  0.5080
15148SOL    HW157168   5.864   2.579   5.576  0.3720  1.6824  1.0827
15148SOL    HW257169   5.838   2.643   5.711 -2.5296 -0.8209  1.8255
15149SOL     OW57170   9.729   2.388   4.797  0.1389  0.5082 -0.2540
15149SOL    HW157171   9.747   2.463   4.740 -0.9871  2.1294  1.4223
15149SOL    HW257172   9.762   2.415   4.883  1.4822 -1.7254  0.0115
15150SOL     OW57173   2.911   9.120   3.140 -0.6136 -0.1423  0.3153
15150SOL    HW157174   2.894   9.026   3.140  0.4847 -0.3620  1.2812
15150SOL    HW257175   3.000   9.128   3.105 -0.6844  0.5448  0.2767
15151SOL     OW57176   6.565   3.838   9.426  0.1495 -0.0687 -0.3785
15151SOL    HW157177   6.574   3.911   9.364  1.1408 -0.8766 -1.2213
15151SOL    HW257178   6.476   3.805   9.410 -0.3162  0.9488  0.0258
15152SOL     OW57179   1.698   3.477   5.805  0.2207 -0.2339 -0.5426
15152SOL    HW157180   1.706   3.540   5.735  2.6326  0.3214  0.1298
15152SOL    HW257181   1.654   3.402   5.765  0.6646  0.4309 -2.3760
15153SOL     OW57182   4.381   9.736   8.696 -0.3410  0.2510  0.1323
15153SOL    HW157183   4.346   9.648   8.708  0.3499  0.0728  1.0107
15153SOL    HW257184   4.353   9.783   8.774  1.2399  0.1243  0.8186
15154SOL     OW57185   4.487   3.732   8.732 -0.4157 -0.4063 -0.1965
15154SOL    HW157186   4.472   3.825   8.716  1.2268  0.3310  2.0940
15154SOL    HW257187   4.533   3.702   8.653  3.0674  1.8720  0.7174
15155SOL     OW57188   1.154   0.812   3.487 -0.1327  0.0419 -0.0665
15155SOL    HW157189   1.201   0.728   3.489  1.4317  0.8548 -0.9714
15155SOL    HW257190   1.194   0.860   3.415  0.0656  2.1647  1.3735
15156SOL     OW57191   7.145   1.168   1.727 -0.1883 -0.3559  0.1279
15156SOL    HW157192   7.053   1.143   1.726 -0.7909  1.6736 -1.0094
15156SOL    HW257193   7.152   1.233   1.798  0.3149 -0.3538  0.0812
15157SOL     OW57194   4.580   1.022   7.866 -0.3886  0.4151 -0.0925
15157SOL    HW157195   4.669   1.034   7.835  0.2273 -0.9323  1.0311
15157SOL    HW257196   4.526   1.023   7.787  0.5506  1.7178 -0.7389
15158SOL     OW57197   7.382   8.310   2.421  0.2499 -0.3537  0.1806
15158SOL    HW157198   7.296   8.290   2.383  0.3312  0.5897 -0.5358
15158SOL    HW257199   7.364   8.372   2.491  0.3633  0.0649 -0.1545
15159SOL     OW57200   4.982   7.634  11.938 -0.6261  0.2829 -0.0055
15159SOL    HW157201   4.953   7.721  11.968  2.3338  1.1661  0.7195
15159SOL    HW257202   4.984   7.641  11.843  0.6921  1.5120  0.0619
15160SOL     OW57203   8.269   3.903   8.013  0.1427 -0.1911  0.0508
15160SOL    HW157204   8.235   3.888   8.101 -1.2602  1.7824 -0.0914
15160SOL    HW257205   8.206   3.859   7.955  0.0052  0.1308 -0.0450
15161SOL     OW57206  10.335   5.840   4.140 -0.4109 -0.1355  0.0015
15161SOL    HW157207  10.340   5.753   4.100 -2.2481 -0.7818  1.0389
15161SOL    HW257208  10.325   5.900   4.066 -3.3333 -1.2706 -0.6910
15162SOL     OW57209   6.183   9.729   3.364 -0.0336  0.2319  0.5135
15162SOL    HW157210   6.247   9.680   3.414 -0.2152 -0.9451 -0.3691
15162SOL    HW257211   6.235   9.781   3.303  0.0985 -0.5399 -0.0389
15163SOL     OW57212   7.061   3.991   1.736  0.6395  0.2821  0.2085
15163SOL    HW157213   7.094   4.061   1.793  0.8491  0.4277 -0.0870
15163SOL    HW257214   7.103   4.007   1.651 -1.0832  1.1881 -0.5334
15164SOL     OW57215   8.452   3.673   3.957 -0.3741  0.2530  0.2829
15164SOL    HW157216   8.527   3.732   3.971  0.2917 -0.4330 -0.3099
15164SOL    HW257217   8.395   3.689   4.032 -1.0373  2.8578 -0.6534
15165SOL     OW57218   0.035   1.355  10.484 -0.4885 -0.7463  0.0015
15165SOL    HW157219  -0.049   1.387  10.515 -0.4857  0.2249 -0.9290
15165SOL    HW257220   0.082   1.328  10.563 -2.1589 -2.5733  0.4266
15166SOL     OW57221  11.863   7.141   5.897 -0.6723 -0.1573  0.0069
15166SOL    HW157222  11.841   7.234   5.888 -0.5801 -0.2749 -1.8586
15166SOL    HW257223  11.807   7.110   5.969 -2.4956  0.8292 -0.9103
15167SOL     OW57224   2.092  11.039   6.873 -0.0708 -0.1549  0.2430
15167SOL    HW157225   2.161  10.998   6.926  0.7030  0.0019 -0.6128
15167SOL    HW257226   2.111  11.132   6.876  0.4399 -0.2090 -0.9180
15168SOL     OW57227   2.762   9.467   8.182 -0.0095 -0.2315  0.1964
15168SOL    HW157228   2.764   9.512   8.266 -0.4345  1.5822 -0.7045
15168SOL    HW257229   2.807   9.385   8.197  4.3569  2.0436  1.0752
15169SOL     OW57230   8.028   0.966   5.877 -0.2568 -0.2072  0.0474
15169SOL    HW157231   8.092   1.008   5.820 -0.0203 -1.4223 -0.6126
15169SOL    HW257232   8.050   0.997   5.965  1.2385 -0.5944 -0.1705
15170SOL     OW57233   4.821  11.855   4.586 -0.3634  0.0027 -0.6081
15170SOL    HW157234   4.797  11.933   4.636 -0.9082 -0.4665 -0.1320
15170SOL    HW257235   4.744  11.799   4.588  0.1606 -0.7465 -0.5705
15171SOL     OW57236   1.516   3.605  11.463  0.0505 -0.6266  0.1375
15171SOL    HW157237   1.563   3.631  11.384 -0.0850 -0.1357  0.2123
15171SOL    HW257238   1.448   3.546  11.433 -1.7874  1.6981 -0.5073
15172SOL     OW57239   6.062   0.994   8.569  0.1309 -0.0003  0.6168
15172SOL    HW157240   6.112   0.917   8.542  1.6427  1.0250  0.3589
15172SOL    HW257241   6.034   1.035   8.487  1.9564  1.3585  0.6273
15173SOL     OW57242   8.023   0.188   6.322 -0.0530  0.4804  0.3086
15173SOL    HW157243   7.949   0.139   6.359 -1.1704  0.6933 -1.4920
15173SOL    HW257244   8.019   0.168   6.228  2.5749  0.0158  0.2161
15174SOL     OW57245  10.291   2.909   4.457 -0.2481 -0.4137  0.3757
15174SOL    HW157246  10.352   2.878   4.390 -1.1382 -0.5037 -0.4116
15174SOL    HW257247  10.229   2.838   4.468 -1.8445  0.7114 -0.8763
15175SOL     OW57248   8.069   9.658   8.931  0.0144  0.3836  0.8155
15175SOL    HW157249   8.006   9.729   8.922 -1.5701 -1.0273  0.2891
15175SOL    HW257250   8.146   9.688   8.881 -0.2338  2.0824  1.3848
15176SOL     OW57251   0.954  10.465   8.660  0.5174  0.0181  0.0666
15176SOL    HW157252   1.023  10.464   8.594  0.2534 -2.1497 -0.2728
15176SOL    HW257253   0.900  10.388   8.639 -0.5467  0.2310  1.8084
15177SOL     OW57254   6.848  11.202   0.059 -0.0923 -0.1213  0.6447
15177SOL    HW157255   6.763  11.199   0.103 -0.3190 -1.7452  0.1499
15177SOL    HW257256   6.905  11.246   0.121 -0.3694 -2.4449  2.6738
15178SOL     OW57257   4.123   3.932  10.743  0.1141 -0.1071 -0.4838
15178SOL    HW157258   4.177   3.858  10.718  0.3823  0.4703 -1.6664
15178SOL    HW257259   4.097   3.913  10.834  3.0163  0.0247  0.4726
15179SOL     OW57260   5.712   3.941   7.703  0.8767  0.0383  0.5822
15179SOL    HW157261   5.777   3.958   7.635 -0.0588 -1.7796 -0.8518
15179SOL    HW257262   5.672   4.026   7.720  1.9668  0.7460 -0.2552
15180SOL     OW57263   1.600   2.251  10.681 -0.1097 -0.0583 -0.0809
15180SOL    HW157264   1.569   2.160  10.687 -0.1486 -0.0785 -0.4981
15180SOL    HW257265   1.563   2.283  10.598 -2.4444  1.2519  1.3750
15181SOL     OW57266   4.032   1.735   8.001 -0.3276 -0.2796 -0.1482
15181SOL    HW157267   4.106   1.678   8.021 -0.1518 -0.7987 -2.0433
15181SOL    HW257268   4.063   1.790   7.929 -2.4888 -2.2572 -2.8055
15182SOL     OW57269   2.402  11.563  11.417 -0.1740  0.2365 -0.0223
15182SOL    HW157270   2.426  11.551  11.325  2.8174  0.9261  0.5628
15182SOL    HW257271   2.420  11.478  11.457 -0.6369  0.1873  0.0796
15183SOL     OW57272   5.623  11.870   1.722 -0.5672  0.4581 -0.1385
15183SOL    HW157273   5.668  11.915   1.650  0.8944  2.0060  1.6266
15183SOL    HW257274   5.668  11.786   1.730 -0.3103  0.5490 -0.6058
15184SOL     OW57275   9.339   2.956   6.198  0.4747 -0.9327  0.1460
15184SOL    HW157276   9.408   3.008   6.239 -0.1222 -1.8058  2.3986
15184SOL    HW257277   9.384   2.881   6.160  1.0898  0.1268 -1.3532
15185SOL     OW57278   1.222   3.953   8.915  0.7733 -0.3533  0.1288
15185SOL    HW157279   1.171   4.034   8.909 -1.5327 -1.7611 -1.0124
15185SOL    HW257280   1.156   3.883   8.913  2.6886 -2.2901  0.4446
15186SOL     OW57281   0.730  11.215   9.392  0.0373  0.0194 -0.0568
15186SOL    HW157282   0.788  11.288   9.369 -1.5320  1.4521  0.3320
15186SOL    HW257283   0.658  11.221   9.330 -0.0440 -1.3569 -0.1367
15187SOL     OW57284   0.226   3.615   6.856 -0.4210 -0.1700  0.2725
15187SOL    HW157285   0.283   3.627   6.932 -0.2669  0.4305  0.0663
15187SOL    HW257286   0.187   3.701   6.841 -1.0506 -0.4684  0.1419
15188SOL     OW57287   4.210  10.121   4.659  0.6691  0.2010  0.2216
15188SOL    HW157288   4.222  10.042   4.712  0.6711 -1.3343 -1.9362
15188SOL    HW257289   4.126  10.107   4.615  1.6983  0.3270 -1.8895
15189SOL     OW57290  11.170  10.480   7.498  0.4727 -0.3470  0.8048
15189SOL    HW157291  11.216  10.553   7.457 -0.4394 -0.3068 -0.1838
15189SOL    HW257292  11.118  10.441   7.428 -0.3660 -0.8928  1.6966
15190SOL     OW57293  11.558  10.428   6.608  0.0780 -0.1124 -0.1989
15190SOL    HW157294  11.515  10.353   6.567  0.0847 -0.3888  0.3008
15190SOL    HW257295  11.645  10.430   6.568  0.2366 -0.6411  0.1185
15191SOL     OW57296   3.117   9.607   5.104  0.3124  0.7516 -0.0298
15191SOL    HW157297   3.099   9.522   5.063  1.0077  0.3877  0.4062
15191SOL    HW257298   3.109   9.590   5.198  2.7629  0.5875  0.2038
15192SOL     OW57299   9.933  11.777   1.470  0.1208 -0.0881 -0.0327
15192SOL    HW157300  10.011  11.725   1.490  1.1836  1.9285  1.5355
15192SOL    HW257301   9.967  11.860   1.439 -1.2509  1.5388  2.4545
15193SOL     OW57302   5.871   6.670   4.479 -0.5425 -0.0288 -0.0860
15193SOL    HW157303   5.847   6.755   4.515  0.0342  0.3835 -0.6410
15193SOL    HW257304   5.923   6.691   4.401 -1.2365 -0.8824 -0.8039
15194SOL     OW57305   3.450   0.994   4.955  0.4398 -0.6508  0.1961
15194SOL    HW157306   3.470   0.977   4.862  0.8920 -2.3122  0.5620
15194SOL    HW257307   3.463   1.089   4.965 -2.8258  0.2108 -2.1612
15195SOL     OW57308   4.966   5.853   2.224 -0.7690  0.4660  0.2279
15195SOL    HW157309   4.988   5.812   2.308 -0.6860 -1.0251 -0.5031
15195SOL    HW257310   5.046   5.844   2.172 -0.5859  2.0043  0.1966
15196SOL     OW57311   8.846  10.348  11.171  0.6300 -0.7510 -0.1188
15196SOL    HW157312   8.785  10.418  11.195  1.9084  0.3342  0.1012
15196SOL    HW257313   8.814  10.271  11.219  1.9610  0.8596  3.7872
15197SOL     OW57314   1.148   2.740   6.011  0.7046 -0.5236 -0.0242
15197SOL    HW157315   1.195   2.821   6.030  1.2109 -0.4079 -1.6836
15197SOL    HW257316   1.215   2.672   6.011  0.4537 -0.7772  0.2049
15198SOL     OW57317   0.495   4.490   9.377 -0.1351 -0.2625  0.2137
15198SOL    HW157318   0.585   4.521   9.384 -0.1429 -0.2533  0.2786
15198SOL    HW257319   0.460   4.499   9.466 -0.8847  1.7920 -0.2487
15199SOL     OW57320   1.804   9.182   1.863 -0.2419 -0.5784 -0.2272
15199SOL    HW157321   1.757   9.103   1.836 -0.7845 -0.6999  1.0102
15199SOL    HW257322   1.802   9.238   1.785 -2.2361 -0.6832 -0.3066
15200SOL     OW57323   6.194   3.891   6.103  0.3818 -0.2544 -0.4918
15200SOL    HW157324   6.104   3.894   6.136  0.4160 -2.0432 -0.1160
15200SOL    HW257325   6.206   3.974   6.058 -1.5527 -0.0824 -0.7871
15201SOL     OW57326  11.075   8.032   5.950 -0.2338 -0.1833  0.0889
15201SOL    HW157327  10.994   8.082   5.964 -1.0803 -1.6306  0.5157
15201SOL    HW257328  11.093   7.990   6.034  0.8754 -0.0396 -0.0543
15202SOL     OW57329   5.262  10.652   2.244  0.1064 -0.1245  0.3384
15202SOL    HW157330   5.217  10.593   2.184  1.8058  0.6692 -1.8929
15202SOL    HW257331   5.227  10.631   2.330 -1.6560 -2.1249 -0.7693
15203SOL     OW57332   4.029   2.097   1.364  0.3018 -0.1243  0.7190
15203SOL    HW157333   4.091   2.038   1.321  1.0684  0.9648  0.2879
15203SOL    HW257334   4.015   2.167   1.300 -1.1800 -0.2116  0.9183
15204SOL     OW57335   5.438  10.567   1.600 -0.2337  0.1988  0.7179
15204SOL    HW157336   5.500  10.589   1.669 -0.4134  1.2228  0.5664
15204SOL    HW257337   5.457  10.476   1.578 -0.6067 -0.3655  2.5680
15205SOL     OW57338   3.310   6.257   7.339 -0.0488 -0.2899 -0.1073
15205SOL    HW157339   3.219   6.287   7.343 -0.6593 -1.7996 -1.2723
15205SOL    HW257340   3.327   6.218   7.425 -1.4920 -2.4427 -0.6917
15206SOL     OW57341   4.630   4.537   9.226 -0.0621 -0.3020  0.3218
15206SOL    HW157342   4.645   4.567   9.316 -1.1727 -0.1665  0.4759
15206SOL    HW257343   4.706   4.482   9.206  1.1149  1.1616  0.6704
15207SOL     OW57344   1.178   2.990   2.170 -0.5020  0.1926 -0.1114
15207SOL    HW157345   1.178   3.023   2.260  1.1782  0.4861 -0.1776
15207SOL    HW257346   1.110   3.041   2.126 -1.5632 -0.1673  1.0434
15208SOL     OW57347   6.662   0.643   5.570  0.0538  0.5667 -0.2307
15208SOL    HW157348   6.580   0.594   5.579 -0.2913  1.0257 -0.7690
15208SOL    HW257349   6.682   0.639   5.476  0.8721  0.1031 -0.0391
15209SOL     OW57350   9.717   1.532   3.851  0.3867  0.4701  0.7419
15209SOL    HW157351   9.657   1.581   3.906  0.2985  2.2267 -0.8025
15209SOL    HW257352   9.770   1.599   3.807 -0.0242 -0.7418 -1.8044
15210SOL     OW57353   7.301   3.983   8.950 -0.7056 -0.4115  0.0187
15210SOL    HW157354   7.358   3.942   9.015 -0.3203  0.4048  0.2154
15210SOL    HW257355   7.341   4.069   8.934 -0.4317 -0.8090 -1.7583
15211SOL     OW57356  10.285   5.029   2.408  0.8566  0.2963  0.2831
15211SOL    HW157357  10.342   5.099   2.441 -0.2743  1.6814 -0.5350
15211SOL    HW257358  10.234   5.002   2.485  0.3737  1.3466  0.3600
15212SOL     OW57359   4.537   5.498  11.735 -0.1230 -0.3658 -0.6566
15212SOL    HW157360   4.621   5.456  11.718 -0.8764 -1.9257 -0.6278
15212SOL    HW257361   4.560   5.588  11.760  1.4397 -0.3386 -2.0553
15213SOL     OW57362   3.158   0.498   2.517 -0.1841 -0.2836 -0.0712
15213SOL    HW157363   3.112   0.414   2.519  0.0882 -0.4269  1.2829
15213SOL    HW257364   3.228   0.485   2.452 -1.2183 -0.4957 -1.1713
15214SOL     OW57365   2.026   5.946   7.893 -0.0558  0.2569 -0.4459
15214SOL    HW157366   1.989   5.904   7.815  1.3339  1.1115 -1.6079
15214SOL    HW257367   2.004   6.038   7.883 -1.0718  0.1920  0.9152
15215SOL     OW57368   6.084   5.643   8.324  0.2359  0.2076 -0.1438
15215SOL    HW157369   6.064   5.689   8.406 -1.6733 -1.2163  0.2876
15215SOL    HW257370   6.171   5.606   8.338 -0.4487 -0.8804  1.7452
15216SOL     OW57371   5.259   1.844   8.656 -0.1213  0.0622 -0.2525
15216SOL    HW157372   5.349   1.819   8.677 -0.2662  0.4925  0.9506
15216SOL    HW257373   5.205   1.786   8.710 -0.4891  1.7344  1.2454
15217SOL     OW57374   9.742   3.636   5.175  0.7648 -0.3868  0.3083
15217SOL    HW157375   9.719   3.632   5.082 -0.9324 -0.8232  0.7178
15217SOL    HW257376   9.838   3.639   5.176  0.8018 -0.0716 -1.4563
15218SOL     OW57377   0.502   7.272   3.585  0.1294  0.2439  0.2440
15218SOL    HW157378   0.488   7.300   3.494  1.4487  0.3859  0.0666
15218SOL    HW257379   0.472   7.182   3.587  2.9054 -0.8450 -1.1806
15219SOL     OW57380   2.141   7.880  10.507  0.1813  0.4667  0.5809
15219SOL    HW157381   2.168   7.971  10.497 -1.5210  0.8920 -0.6043
15219SOL    HW257382   2.087   7.862  10.430  2.1806 -2.2194 -0.3360
15220SOL     OW57383   4.667  11.941   4.236 -0.2221  0.4237  0.1321
15220SOL    HW157384   4.650  11.987   4.318 -0.7423  0.5117 -0.0251
15220SOL    HW257385   4.713  12.005   4.182  0.5750  0.2030  0.5334
15221SOL     OW57386   2.713   3.475   8.456 -0.2940  0.3018 -0.5613
15221SOL    HW157387   2.696   3.564   8.486  0.8197  0.3808 -0.1057
15221SOL    HW257388   2.690   3.476   8.363  1.4331  1.6057 -1.0475
15222SOL     OW57389   3.781   0.422  10.689  0.7378  0.0638  0.3721
15222SOL    HW157390   3.714   0.484  10.718  1.2549  0.1337  1.4855
15222SOL    HW257391   3.861   0.451  10.733  1.3769 -0.3513 -0.4930
15223SOL     OW57392   6.067   3.515  11.302 -0.3023  0.1443  0.2404
15223SOL    HW157393   5.987   3.564  11.323 -0.4935 -0.7095  1.6543
15223SOL    HW257394   6.125   3.579  11.262 -1.0157  1.2254  0.8945
15224SOL     OW57395   9.978   0.759   8.571  0.4298  0.2699  0.0541
15224SOL    HW157396  10.026   0.769   8.653 -1.4922  2.1167  1.0442
15224SOL    HW257397  10.032   0.803   8.505  1.8540 -0.9966  0.3336
15225SOL     OW57398   3.179  10.830   4.188  0.1228 -0.2100 -0.8112
15225SOL    HW157399   3.107  10.808   4.129 -0.3869 -1.3742  0.1865
15225SOL    HW257400   3.154  10.914   4.226 -0.2362 -0.1447 -1.1877
15226SOL     OW57401   1.054   9.419   5.409  0.6478  0.3411 -0.2131
15226SOL    HW157402   0.976   9.364   5.415  0.5744  0.6042  3.9389
15226SOL    HW257403   1.022   9.508   5.420  1.3421  0.7396 -1.2002
15227SOL     OW57404   9.964   7.506   5.898 -0.1116  0.0696  0.2154
15227SOL    HW157405  10.018   7.576   5.861 -0.8809  0.6722  0.2179
15227SOL    HW257406   9.980   7.511   5.992  1.2163 -0.9387  0.0789
15228SOL     OW57407   5.546   8.472   1.745  0.1543 -0.6987 -0.0106
15228SOL    HW157408   5.457   8.449   1.717  0.0186 -1.0870  0.7174
15228SOL    HW257409   5.535   8.553   1.794  0.1415 -0.9542  0.4144
15229SOL     OW57410   8.339   7.520   6.722 -0.0300 -0.2645  0.1586
15229SOL    HW157411   8.280   7.462   6.674 -0.2568 -0.6269  0.8598
15229SOL    HW257412   8.287   7.598   6.740 -0.0573 -0.2778  0.1354
15230SOL     OW57413   3.883   7.207  10.750  0.1067 -0.1950  0.1343
15230SOL    HW157414   3.880   7.281  10.810  0.3024  0.0075 -0.1049
15230SOL    HW257415   3.792   7.178  10.743  0.1247 -0.4294  0.7810
15231SOL     OW57416   9.234   5.583   1.257 -0.4287 -0.3742 -0.9035
15231SOL    HW157417   9.230   5.536   1.174  2.2600 -2.7101  0.1397
15231SOL    HW257418   9.230   5.515   1.324 -3.3409  1.4827  1.0656
15232SOL     OW57419   8.056  10.683   8.348  0.6052 -0.3230  0.8419
15232SOL    HW157420   8.079  10.598   8.385  1.2379 -0.5419 -0.0143
15232SOL    HW257421   8.094  10.747   8.409  0.9809 -0.6637  0.9721
15233SOL     OW57422   5.784   1.875   2.604 -0.4853 -0.7586 -0.0876
15233SOL    HW157423   5.849   1.913   2.664  0.6832 -0.5959 -1.4018
15233SOL    HW257424   5.733   1.815   2.658 -0.2234  0.2343  1.3152
15234SOL     OW57425   6.256  11.571   9.700 -0.4834 -0.1100 -0.9461
15234SOL    HW157426   6.176  11.616   9.674 -0.6501  0.3206  0.2364
15234SOL    HW257427   6.301  11.633   9.758  0.5679 -0.4578 -1.3506
15235SOL     OW57428   3.449   7.369  10.851  0.4106  0.1783 -0.3593
15235SOL    HW157429   3.376   7.392  10.794  0.6541 -1.3353 -1.3288
15235SOL    HW257430   3.492   7.295  10.808  0.1235 -1.6011  2.1415
15236SOL     OW57431  10.872   2.802   6.994 -0.1708 -0.1421  0.2203
15236SOL    HW157432  10.820   2.825   7.071 -1.3586 -0.5360 -0.4239
15236SOL    HW257433  10.953   2.851   7.004 -0.6374  0.4503  1.3137
15237SOL     OW57434   7.690   9.021   9.862  0.0092  0.3383  0.0730
15237SOL    HW157435   7.672   8.941   9.813 -1.6143  0.7861 -0.1044
15237SOL    HW257436   7.714   9.085   9.796  1.3753  0.0239  0.2204
15238SOL     OW57437   6.696   2.172   4.480 -0.4410  0.4221 -0.3022
15238SOL    HW157438   6.767   2.179   4.415 -0.0285 -0.6581  0.0059
15238SOL    HW257439   6.730   2.217   4.557 -0.3394  0.4373 -0.3552
15239SOL     OW57440   0.936   5.565   8.332 -0.0747 -0.6155 -0.4252
15239SOL    HW157441   0.905   5.638   8.278 -0.7108 -0.0374  0.6948
15239SOL    HW257442   0.862   5.544   8.388  0.5323 -1.2933  0.1345
15240SOL     OW57443   7.757   4.306   5.466 -0.4376  0.4322 -0.2058
15240SOL    HW157444   7.718   4.367   5.528 -3.0302 -1.4177  0.1465
15240SOL    HW257445   7.710   4.224   5.480  1.6365 -1.1697 -1.9047
15241SOL     OW57446  11.638   1.007   6.488  0.1646  0.2140 -0.2814
15241SOL    HW157447  11.565   1.002   6.549  0.6360 -0.3643  0.2534
15241SOL    HW257448  11.712   1.036   6.541  0.2399  1.2014 -0.9054
15242SOL     OW57449   7.206  10.228   6.542  0.2966 -0.2258 -0.4303
15242SOL    HW157450   7.237  10.142   6.517  0.2653 -0.7078  1.0715
15242SOL    HW257451   7.111  10.224   6.532  0.4577  0.6831 -3.3236
15243SOL     OW57452  10.293  11.908   7.851 -0.4182  0.1528  0.3739
15243SOL    HW157453  10.329  11.942   7.769  0.9816 -0.9359  0.5044
15243SOL    HW257454  10.270  11.987   7.901 -0.3747  0.8418 -0.6666
15244SOL     OW57455   8.049  11.737   7.141  0.0561  0.0023  0.3147
15244SOL    HW157456   7.964  11.699   7.164 -1.1415  3.1339  1.7386
15244SOL    HW257457   8.061  11.717   7.048 -3.8732  2.0773 -0.8490
15245SOL     OW57458   0.458   1.800   2.553 -0.4932  0.5050  0.2569
15245SOL    HW157459   0.505   1.729   2.508 -1.0606 -0.6063  1.3351
15245SOL    HW257460   0.497   1.880   2.519  1.2334 -0.3561  0.1067
15246SOL     OW57461  11.771   3.181   7.350  0.2251  0.2892  0.1569
15246SOL    HW157462  11.855   3.172   7.396 -0.4780 -0.3468  1.3463
15246SOL    HW257463  11.741   3.269   7.373 -0.1157 -0.0188  0.9381
15247SOL     OW57464   1.933   1.110  11.691  0.1368 -0.6231 -0.0222
15247SOL    HW157465   1.966   1.030  11.731  0.5447 -1.3635 -1.7475
15247SOL    HW257466   1.844   1.088  11.662 -0.3661  0.0780  0.9488
15248SOL     OW57467  11.292   6.040   2.765 -0.0369 -0.0495  0.7152
15248SOL    HW157468  11.221   6.104   2.767  0.3837  0.4836 -0.5062
15248SOL    HW257469  11.362   6.084   2.716  0.3198 -1.3750  0.0008
15249SOL     OW57470   0.832   6.087   2.570 -0.2833 -0.1681 -0.2191
15249SOL    HW157471   0.883   6.148   2.516  0.8408 -0.2215  0.7315
15249SOL    HW257472   0.863   6.000   2.543  0.6336 -0.1853  0.7804
15250SOL     OW57473   2.549   5.901   5.732 -0.5407  0.4160  0.6466
15250SOL    HW157474   2.586   5.989   5.741 -1.4385  0.6869  2.0424
15250SOL    HW257475   2.464   5.915   5.690 -0.8724  0.2761  1.2602
15251SOL     OW57476   6.291   6.937   4.194 -0.0105 -0.2172  0.2832
15251SOL    HW157477   6.283   7.030   4.174  3.3383 -0.1123 -1.1315
15251SOL    HW257478   6.267   6.931   4.287  1.3556  2.3660  0.8952
15252SOL     OW57479   7.187  11.520   6.403 -0.5326 -0.0991 -0.1256
15252SOL    HW157480   7.093  11.500   6.404 -0.2802 -1.5845 -1.6021
15252SOL    HW257481   7.206  11.543   6.312  0.6950 -0.7047 -0.0424
15253SOL     OW57482   8.113   7.952   5.794 -0.1341  0.9052  0.2126
15253SOL    HW157483   8.133   7.943   5.701  4.5817  1.7540  0.9007
15253SOL    HW257484   8.083   8.042   5.804  0.0441  1.0340 -0.4195
15254SOL     OW57485   0.206   2.333   2.633  0.7536 -0.1740  0.3560
15254SOL    HW157486   0.204   2.329   2.729  1.1299  0.5834  0.4034
15254SOL    HW257487   0.290   2.295   2.610  1.3319  1.0334  0.4208
15255SOL     OW57488   1.873   3.483   0.789  0.0662  0.1853 -0.1968
15255SOL    HW157489   1.832   3.404   0.754 -0.9509 -0.0149  1.3396
15255SOL    HW257490   1.921   3.519   0.715 -0.6280 -1.0855 -1.3312
15256SOL     OW57491   9.967   4.655   5.549  0.6314 -0.2251 -0.0739
15256SOL    HW157492  10.017   4.612   5.480 -1.4858 -0.0887 -1.8023
15256SOL    HW257493   9.906   4.713   5.502 -1.7930 -1.0935  1.7796
15257SOL     OW57494   7.688   3.422   1.533 -0.9345 -0.0224  0.5141
15257SOL    HW157495   7.717   3.334   1.555 -0.1327  0.0484 -0.1780
15257SOL    HW257496   7.720   3.477   1.605 -1.3695 -0.2851  0.9068
15258SOL     OW57497   7.300   0.490   4.273  0.2195  0.2815 -0.6471
15258SOL    HW157498   7.287   0.579   4.241  0.2566  0.0987 -1.1643
15258SOL    HW257499   7.365   0.500   4.343 -1.2345  0.9377  0.6726
15259SOL     OW57500   0.123   2.238   4.871 -0.4334 -0.0995 -0.1497
15259SOL    HW157501   0.135   2.331   4.849 -0.0088 -0.0097  0.4499
15259SOL    HW257502   0.203   2.196   4.839 -0.4938 -0.2127 -0.1516
15260SOL     OW57503   4.083  10.021   1.180  0.1425 -0.5703  0.4491
15260SOL    HW157504   4.125  10.069   1.252 -1.0492  0.7528  0.3061
15260SOL    HW257505   3.990  10.021   1.202 -0.1782 -0.6562 -0.8160
15261SOL     OW57506   2.801   9.409   1.113 -0.1092 -0.4389  0.2153
15261SOL    HW157507   2.808   9.481   1.176 -0.5236 -0.1237 -0.0940
15261SOL    HW257508   2.706   9.395   1.104 -0.0517 -0.4337 -0.3953
15262SOL     OW57509   7.981   6.011   1.616 -0.0341 -0.4485 -0.1930
15262SOL    HW157510   7.965   6.017   1.522  1.2662 -1.0863 -0.4764
15262SOL    HW257511   7.893   6.007   1.655 -0.7028 -3.7075 -1.6417
15263SOL     OW57512   8.187   0.111   9.510 -0.0416 -0.9806  0.8277
15263SOL    HW157513   8.270   0.157   9.497 -0.5591 -0.1929  0.1951
15263SOL    HW257514   8.196   0.069   9.595  0.1048  1.0884  1.8934
15264SOL     OW57515   0.909   5.298  11.886  0.7137 -0.1541 -0.4591
15264SOL    HW157516   0.822   5.326  11.914  0.7379 -0.8604  0.3244
15264SOL    HW257517   0.898   5.281  11.792 -0.0998 -0.6433 -0.2882
15265SOL     OW57518   9.726   1.300   4.930 -0.5347  0.0546  0.0235
15265SOL    HW157519   9.752   1.313   4.839  0.3798 -1.2921  0.0668
15265SOL    HW257520   9.791   1.348   4.981 -0.4310 -0.0550 -0.0050
15266SOL     OW57521   2.433   9.284   7.999 -0.0534  0.0572  0.4271
15266SOL    HW157522   2.483   9.360   7.969 -0.4619  0.4996  0.8348
15266SOL    HW257523   2.439   9.221   7.927 -0.2207  0.7202 -0.1843
15267SOL     OW57524   3.496   1.052   4.691  0.4543  0.3706 -0.6388
15267SOL    HW157525   3.416   1.098   4.664 -0.3975  0.2702  1.5582
15267SOL    HW257526   3.528   1.011   4.610 -1.7669  0.3302 -1.5643
15268SOL     OW57527   8.176   6.899   0.252  0.2890 -0.6481 -0.0684
15268SOL    HW157528   8.159   6.898   0.346  1.2370 -0.9292  0.1083
15268SOL    HW257529   8.218   6.984   0.236 -0.0824 -0.5026 -0.2778
15269SOL     OW57530   3.760   0.414   9.854 -0.1238 -0.1446  0.1037
15269SOL    HW157531   3.807   0.485   9.898 -0.1480  0.3556 -0.6666
15269SOL    HW257532   3.692   0.458   9.803 -0.5639 -0.7709  0.1409
15270SOL     OW57533   8.863  10.482  10.796  0.1909  0.3098  0.5597
15270SOL    HW157534   8.856  10.505  10.704  1.1493  0.9218  0.6170
15270SOL    HW257535   8.807  10.406  10.807  0.6608 -0.2375 -0.6899
15271SOL     OW57536   0.703  11.272   7.917  0.4162 -0.3035 -0.0275
15271SOL    HW157537   0.705  11.299   8.009 -1.7172 -1.0535  0.2978
15271SOL    HW257538   0.622  11.312   7.883  0.2685 -1.4729 -1.0912
15272SOL     OW57539   7.769   8.683  11.452  0.3949 -0.5310  0.4083
15272SOL    HW157540   7.825   8.756  11.478  0.4061 -1.3964  3.0757
15272SOL    HW257541   7.697   8.684  11.514 -2.3011  0.0887 -2.4896
15273SOL     OW57542   6.301   7.936   7.722 -0.3461 -0.3183  0.0125
15273SOL    HW157543   6.252   7.859   7.691 -0.8126 -0.1131  0.2273
15273SOL    HW257544   6.245   7.974   7.789  0.6890 -0.7938  1.1815
15274SOL     OW57545   5.931   5.664   3.694  0.4361  0.5396 -0.1387
15274SOL    HW157546   5.869   5.704   3.755  0.0067 -0.4353  0.0827
15274SOL    HW257547   5.994   5.620   3.750  0.3043  0.0283 -0.3858
15275SOL     OW57548   7.490   0.995   6.195  0.2172 -0.5466  0.1808
15275SOL    HW157549   7.542   1.020   6.271  1.0419 -0.3651 -0.4405
15275SOL    HW257550   7.472   1.077   6.150 -1.5955 -0.4454  0.9843
15276SOL     OW57551   2.883  11.279   5.040  0.3112 -0.3793 -0.5684
15276SOL    HW157552   2.810  11.333   5.069 -0.7890 -1.8419 -0.5389
15276SOL    HW257553   2.956  11.340   5.033 -0.4978  0.8402  0.9323
15277SOL     OW57554  11.084   6.202  11.261  0.0359  0.0012 -0.2060
15277SOL    HW157555  10.999   6.165  11.286 -0.3405  0.9533 -0.0361
15277SOL    HW257556  11.068   6.246  11.178  0.3203  0.3083 -0.1011
15278SOL     OW57557   6.941   0.355   0.244 -0.5209  0.1565  0.6575
15278SOL    HW157558   6.858   0.395   0.217 -0.9210 -1.0362  0.0558
15278SOL    HW257559   6.991   0.346   0.163  0.2234  0.8641  1.0178
15279SOL     OW57560   0.886   2.592   1.020 -0.1189  0.0798 -0.3419
15279SOL    HW157561   0.960   2.648   1.044 -1.6637  1.5217  1.2932
15279SOL    HW257562   0.816   2.617   1.080 -1.2266 -2.9508 -0.1996
15280SOL     OW57563   5.432   1.561   5.123 -0.8417  0.4589 -0.2034
15280SOL    HW157564   5.453   1.652   5.105 -0.4173 -0.0878 -2.9209
15280SOL    HW257565   5.346   1.564   5.166 -0.6040  2.1341  0.2138
15281SOL     OW57566  10.802   6.010   0.891 -0.1277 -0.0271 -0.8391
15281SOL    HW157567  10.783   6.051   0.807  1.7137  2.1408 -0.3078
15281SOL    HW257568  10.717   6.001   0.934 -0.6825  3.5766 -0.9388
15282SOL     OW57569   5.887   5.493  11.057  0.2552 -0.2507  0.7656
15282SOL    HW157570   5.884   5.588  11.047 -1.9342 -0.2032  1.3987
15282SOL    HW257571   5.810   5.461  11.010  0.6301 -1.6579  1.0550
15283SOL     OW57572   6.161   9.674   8.810 -0.0394 -0.6287 -0.5408
15283SOL    HW157573   6.085   9.647   8.862 -0.9523  0.1999 -1.3761
15283SOL    HW257574   6.189   9.595   8.764  0.0408 -1.0967  0.3120
15284SOL     OW57575   9.873   2.591   6.598  0.0966 -0.4097  0.2396
15284SOL    HW157576   9.835   2.601   6.686 -0.8958  1.1368 -0.3328
15284SOL    HW257577   9.864   2.497   6.579 -2.7697 -0.2867  0.4769
15285SOL     OW57578   0.772   6.502   7.729  0.5521  0.0854 -0.1657
15285SOL    HW157579   0.816   6.538   7.806  0.8673 -1.2451  0.2975
15285SOL    HW257580   0.686   6.476   7.759 -0.5343  2.4018 -1.0073
15286SOL     OW57581   3.661   6.812   3.129  0.0079 -0.1110  0.7020
15286SOL    HW157582   3.718   6.822   3.052 -0.3960 -1.2275  0.2288
15286SOL    HW257583   3.707   6.751   3.185  0.7118  1.3699  1.7884
15287SOL     OW57584   9.633   5.930  10.142 -0.3027  0.1570 -0.4393
15287SOL    HW157585   9.579   5.967  10.212 -1.9278  1.7276 -2.4061
15287SOL    HW257586   9.627   5.835  10.154 -3.5719  0.2421 -0.5412
15288SOL     OW57587   4.520   2.323   8.967 -0.0595  0.2158 -0.1147
15288SOL    HW157588   4.478   2.350   9.049 -1.9283 -0.5666 -0.7730
15288SOL    HW257589   4.613   2.314   8.990 -0.7275 -1.5673  2.3538
15289SOL     OW57590   7.415   4.783   4.075  0.0117 -0.4680 -0.3432
15289SOL    HW157591   7.383   4.709   4.024 -0.7786 -0.8518  0.6563
15289SOL    HW257592   7.417   4.751   4.165 -0.1434  0.6566  0.0836
15290SOL     OW57593   1.748   9.451   8.450 -0.1516 -0.2504  0.4607
15290SOL    HW157594   1.702   9.434   8.532  0.1854 -0.9992  0.4977
15290SOL    HW257595   1.727   9.376   8.395 -1.1221  0.6862 -0.4823
15291SOL     OW57596   2.758   1.473   0.745  0.1145 -0.2845  0.0765
15291SOL    HW157597   2.822   1.433   0.805  1.1618 -0.6981 -1.2563
15291SOL    HW257598   2.743   1.560   0.781 -0.1372 -0.9019  1.5445
15292SOL     OW57599   5.597   0.501   6.279  0.1094 -0.7026  0.4034
15292SOL    HW157600   5.572   0.575   6.334 -1.3761 -1.1911  0.4445
15292SOL    HW257601   5.583   0.424   6.334  2.3442 -1.0066  0.6134
15293SOL     OW57602   0.875   2.068   7.972 -0.1186  0.1910 -0.1547
15293SOL    HW157603   0.958   2.101   8.007 -0.1653  0.6870 -0.4963
15293SOL    HW257604   0.898   2.023   7.892 -0.2736  1.2116 -0.7996
15294SOL     OW57605   3.477   7.109   6.789  0.1534 -0.1135 -0.2621
15294SOL    HW157606   3.495   7.048   6.717  1.3666  1.7700 -1.6579
15294SOL    HW257607   3.447   7.189   6.745 -1.5091  0.3181  1.5125
15295SOL     OW57608   0.687   5.037   2.987  0.3433  0.0185 -0.1384
15295SOL    HW157609   0.606   4.991   2.963  0.3225 -0.5958  1.0510
15295SOL    HW257610   0.753   4.968   2.989  0.9202  0.5184 -1.0948
15296SOL     OW57611   1.281   8.750   7.858  0.6135  0.0783 -0.5537
15296SOL    HW157612   1.285   8.843   7.838  1.0202  0.1786 -0.0278
15296SOL    HW257613   1.344   8.709   7.798  0.0331  0.0610 -1.1717
15297SOL     OW57614   0.657   8.104   8.597  0.5341  0.2185 -0.1019
15297SOL    HW157615   0.633   8.130   8.685 -1.3511 -0.1339 -0.4633
15297SOL    HW257616   0.703   8.021   8.608  0.9240  0.5220  0.5897
15298SOL     OW57617   2.196   6.518   9.376 -0.4946  0.0397 -0.7981
15298SOL    HW157618   2.150   6.592   9.415 -0.2258 -0.1387 -0.1238
15298SOL    HW257619   2.138   6.487   9.307 -2.4637 -1.5257  1.3741
15299SOL     OW57620   0.051   7.376   6.583  0.2971  0.6098 -0.4377
15299SOL    HW157621   0.145   7.392   6.596 -0.1525  4.0673 -0.3817
15299SOL    HW257622   0.013   7.388   6.670 -0.2663 -0.1892 -0.5679
15300SOL     OW57623   9.828   3.020   7.729 -0.2223 -0.1800  0.1549
15300SOL    HW157624   9.875   2.949   7.685 -1.7764  0.1282 -2.1866
15300SOL    HW257625   9.821   2.990   7.820  0.4702 -2.3312 -0.4250
15301SOL     OW57626   2.012   4.080   7.124  0.7082 -0.3988 -0.6930
15301SOL    HW157627   1.967   4.153   7.080 -0.9043 -0.9454 -0.0394
15301SOL    HW257628   2.098   4.076   7.081  2.2627  3.9527  1.3390
15302SOL     OW57629   8.056   1.756   4.348 -0.1830 -0.4421 -1.1713
15302SOL    HW157630   8.069   1.809   4.269 -0.7036 -1.7774 -2.2030
15302SOL    HW257631   7.987   1.802   4.396 -0.0325  0.2690 -1.6181
15303SOL     OW57632   3.146   3.910   4.685 -0.3275  0.6316  0.0276
15303SOL    HW157633   3.071   3.965   4.667  0.5695  1.7586 -0.3839
15303SOL    HW257634   3.222   3.967   4.670  0.6091 -0.4941  0.3383
15304SOL     OW57635   8.008   0.740   2.115 -0.1418 -0.2126 -0.2966
15304SOL    HW157636   8.020   0.728   2.209 -0.4593  0.1700 -0.2048
15304SOL    HW257637   8.096   0.730   2.078  0.2547  1.1100  0.2069
15305SOL     OW57638   5.434   1.882   9.653 -0.0473  0.1105  0.5730
15305SOL    HW157639   5.425   1.929   9.569 -0.4657  0.3193  0.7301
15305SOL    HW257640   5.474   1.799   9.630 -1.0065 -0.2135  0.0367
15306SOL     OW57641   4.361   3.549   1.466  0.2773 -0.5481 -0.5708
15306SOL    HW157642   4.305   3.566   1.390  1.1310  0.4630 -0.9932
15306SOL    HW257643   4.354   3.628   1.520  2.3743  0.2235 -1.3325
15307SOL     OW57644   1.999   6.872   1.355  0.2688 -0.2376 -0.4635
15307SOL    HW157645   2.066   6.884   1.288 -0.2167  0.6064 -0.8144
15307SOL    HW257646   1.966   6.960   1.372  0.1203 -0.4873  0.6175
15308SOL     OW57647   1.308  11.778   2.366 -0.0722 -0.0634  0.1739
15308SOL    HW157648   1.227  11.745   2.406  0.0255  2.1361  2.4049
15308SOL    HW257649   1.374  11.712   2.388 -0.5048 -0.0026  1.7671
15309SOL     OW57650   1.963   5.676   5.265  0.0951 -0.3710  0.0022
15309SOL    HW157651   2.011   5.639   5.191 -0.8927 -0.9562 -0.3629
15309SOL    HW257652   1.993   5.625   5.341  2.1068  1.1094  0.2639
15310SOL     OW57653   0.834   1.001   9.806  0.2495 -0.7180 -0.3088
15310SOL    HW157654   0.906   0.939   9.794  1.3144 -0.3352  3.0518
15310SOL    HW257655   0.877   1.086   9.817 -0.7725 -0.2849  0.5720
15311SOL     OW57656   8.649   2.922   2.069  0.2876 -0.7428  0.3197
15311SOL    HW157657   8.657   2.853   2.134 -0.2389  0.4283  1.6731
15311SOL    HW257658   8.644   3.003   2.120 -0.0327  0.2254 -1.1809
15312SOL     OW57659   3.820   0.977   3.361 -0.3548 -0.2877 -0.0238
15312SOL    HW157660   3.754   0.980   3.292 -0.4427  0.3332  0.0830
15312SOL    HW257661   3.773   0.943   3.437 -1.2475  2.4466  0.7663
15313SOL     OW57662   0.967   3.757   9.384 -0.0636  0.7151 -0.4362
15313SOL    HW157663   1.028   3.767   9.457  0.0935 -0.6456 -0.3597
15313SOL    HW257664   0.924   3.842   9.378  0.0191  0.9106  1.1572
15314SOL     OW57665   6.394   5.102   0.081 -0.0834  0.4561  0.4791
15314SOL    HW157666   6.364   5.018   0.115 -1.4240  0.5432 -0.4061
15314SOL    HW257667   6.374   5.165   0.150 -0.3178  0.2425  0.6089
15315SOL     OW57668   3.737   0.547  11.345  0.1266  0.2148  0.0721
15315SOL    HW157669   3.806   0.520  11.284  1.1601  0.8853  0.9069
15315SOL    HW257670   3.673   0.592  11.291  0.0428 -0.9227 -0.8121
15316SOL     OW57671   1.381   4.799   0.648  0.3530  0.1100  0.6732
15316SOL    HW157672   1.329   4.873   0.681 -0.3671 -0.7305  1.4821
15316SOL    HW257673   1.440   4.777   0.720 -1.0935 -1.6124  1.4119
15317SOL     OW57674   1.267   1.619   9.597  0.0851 -0.1682 -0.7273
15317SOL    HW157675   1.352   1.632   9.638 -0.3710  2.6135 -0.4815
15317SOL    HW257676   1.257   1.694   9.538 -2.7220  0.3601  0.2681
15318SOL     OW57677   9.277   3.216   9.312  0.4312 -0.5312 -0.0364
15318SOL    HW157678   9.196   3.227   9.262  2.0371  0.4086 -2.5967
15318SOL    HW257679   9.304   3.304   9.335  1.0523 -0.7941  0.2767
15319SOL     OW57680   0.908   8.568   9.866  1.1000  0.2511 -0.5004
15319SOL    HW157681   0.934   8.487   9.909  0.1434  0.4785  0.5310
15319SOL    HW257682   0.991   8.609   9.841  1.5995 -0.8630 -0.7228
15320SOL     OW57683   5.808  11.514   4.049 -0.0407 -0.0228  0.5755
15320SOL    HW157684   5.896  11.519   4.012  0.1061 -1.6221  0.6605
15320SOL    HW257685   5.818  11.458   4.126 -0.6458  1.9130  2.1392
15321SOL     OW57686   6.700  11.598   9.167 -0.3951 -0.0575 -0.0277
15321SOL    HW157687   6.722  11.654   9.242  0.6513 -2.3277  1.4641
15321SOL    HW257688   6.685  11.512   9.205 -2.2499 -0.7946 -2.2052
15322SOL     OW57689   1.534  11.734   1.066 -0.3882  0.0253 -0.0654
15322SOL    HW157690   1.498  11.817   1.035  0.0523  0.7283  1.2470
15322SOL    HW257691   1.629  11.749   1.069 -0.1217 -1.1100 -1.4476
15323SOL     OW57692   1.383  11.522   4.110 -0.3240 -0.7916 -0.1450
15323SOL    HW157693   1.468  11.479   4.117 -0.1114 -0.3203  0.2831
15323SOL    HW257694   1.404  11.616   4.111 -0.7057 -0.6530 -1.8330
15324SOL     OW57695   1.171   3.200   6.461  0.3190 -0.1181 -0.6374
15324SOL    HW157696   1.238   3.250   6.506 -0.4397 -0.7764  1.3187
15324SOL    HW257697   1.093   3.256   6.465 -0.2198 -0.9077  0.5176
15325SOL     OW57698   1.830  11.236   2.712  0.7514 -0.6567  0.1779
15325SOL    HW157699   1.847  11.236   2.806  0.6511 -0.9780  0.1960
15325SOL    HW257700   1.752  11.290   2.702  2.1874  1.5359  0.0092
15326SOL     OW57701   1.434  10.411   4.982  0.6692  0.5283  0.1950
15326SOL    HW157702   1.358  10.353   4.986 -0.3442  1.8467  1.2125
15326SOL    HW257703   1.403  10.488   4.934  2.1579  0.0358 -1.6540
15327SOL     OW57704   0.951   3.322   5.673  0.2293  0.0509  0.3287
15327SOL    HW157705   0.977   3.257   5.609  0.2778  0.1007  0.2982
15327SOL    HW257706   0.869   3.357   5.639 -0.3095 -0.6810  0.8345
15328SOL     OW57707   2.687   2.251   5.311  0.3870 -0.2111 -0.0815
15328SOL    HW157708   2.712   2.340   5.284  2.1064 -0.8918 -0.8772
15328SOL    HW257709   2.670   2.259   5.405 -0.6394  1.1786 -0.3503
15329SOL     OW57710   4.621   8.198   6.232 -0.1640 -0.6927  0.1442
15329SOL    HW157711   4.549   8.175   6.174  0.1543  1.0524 -0.9869
15329SOL    HW257712   4.694   8.142   6.204  0.0626  0.3071 -1.3519
15330SOL     OW57713   2.898   2.602   3.339  0.0822 -0.2497  0.0170
15330SOL    HW157714   2.872   2.665   3.272  0.1336 -0.2140  0.0300
15330SOL    HW257715   2.866   2.640   3.421  0.3219 -0.1229  0.0528
15331SOL     OW57716   6.119  11.533   2.817 -0.0504  0.5027  0.0571
15331SOL    HW157717   6.130  11.592   2.742 -0.1699  0.2178 -0.1836
15331SOL    HW257718   6.028  11.505   2.813  0.7682 -2.3454 -1.8195
15332SOL     OW57719   3.729   5.937   1.168  0.2203 -0.7961  0.0311
15332SOL    HW157720   3.773   5.949   1.252 -1.6423 -0.1579  0.9662
15332SOL    HW257721   3.729   5.842   1.155 -1.2915 -1.0841  1.8105
15333SOL     OW57722   2.935   6.616   8.758 -0.2241  0.5866 -0.0759
15333SOL    HW157723   3.010   6.567   8.723 -0.4391  1.0877 -1.2793
15333SOL    HW257724   2.893   6.555   8.819  0.5287 -0.0888 -0.2221
15334SOL     OW57725   4.255   2.765   5.949  0.0493 -0.4959  0.2187
15334SOL    HW157726   4.221   2.693   5.896  0.7940 -1.4486  0.9915
15334SOL    HW257727   4.304   2.819   5.888  1.2335 -1.7933 -0.0310
15335SOL     OW57728   4.530   8.937   8.601  0.3329  0.0505 -0.2078
15335SOL    HW157729   4.602   8.994   8.629  1.2010 -1.0021 -0.2210
15335SOL    HW257730   4.572   8.852   8.586 -0.6957 -0.2546 -1.4950
15336SOL     OW57731   4.895   2.087   1.467  0.0352 -0.1294  0.0883
15336SOL    HW157732   4.903   2.087   1.371  0.7031  1.2993  0.1231
15336SOL    HW257733   4.881   2.179   1.490  1.0479 -0.2886  1.4515
15337SOL     OW57734   3.308  10.690   0.797 -0.2997 -0.0841  0.1894
15337SOL    HW157735   3.236  10.738   0.837  0.2439  0.7977  0.1224
15337SOL    HW257736   3.359  10.656   0.870 -1.7752 -2.3184  0.2860
15338SOL     OW57737   8.451   5.028   2.743  0.5255  0.6047 -0.1764
15338SOL    HW157738   8.400   5.056   2.667  1.3597  2.2202 -0.1870
15338SOL    HW257739   8.405   4.951   2.776 -1.0914  1.1669 -1.0217
15339SOL     OW57740   3.542   1.598   2.728 -0.3455  0.3714  0.2319
15339SOL    HW157741   3.581   1.633   2.647 -0.5203 -1.4701 -0.6930
15339SOL    HW257742   3.557   1.667   2.793  1.1484  1.2719 -0.9944
15340SOL     OW57743   1.594   5.017   2.225 -0.6118  0.6798 -0.1498
15340SOL    HW157744   1.543   4.995   2.303 -1.8685  1.9679 -0.5705
15340SOL    HW257745   1.685   5.002   2.251 -1.0940 -0.3465  1.0641
15341SOL     OW57746   6.135   5.277   7.438 -0.0230 -0.4445  0.3503
15341SOL    HW157747   6.073   5.297   7.508 -1.1720  0.6437 -0.9274
15341SOL    HW257748   6.175   5.194   7.465 -0.9080 -0.3983  1.9517
15342SOL     OW57749   2.504   3.472   7.758  0.4386 -0.2965 -0.0151
15342SOL    HW157750   2.516   3.384   7.793 -1.7675 -1.2347 -1.4266
15342SOL    HW257751   2.588   3.492   7.716  0.4688 -2.4835 -1.1698
15343SOL     OW57752   4.125  11.007   9.883 -0.6561 -0.5258 -0.1099
15343SOL    HW157753   4.153  10.930   9.834  1.5862 -0.0037  0.2358
15343SOL    HW257754   4.156  11.081   9.831  1.3034  0.0425  1.7040
15344SOL     OW57755   7.920  10.251  10.997  0.0861  0.2539  0.0599
15344SOL    HW157756   7.864  10.173  10.995  0.3090  0.0297  1.2828
15344SOL    HW257757   8.009  10.217  11.005  0.1914  0.6199  0.5476
15345SOL     OW57758   5.303   2.536   4.106 -0.0183  0.5379  0.0167
15345SOL    HW157759   5.335   2.587   4.031 -0.4982 -0.0208 -0.5813
15345SOL    HW257760   5.211   2.519   4.087  0.4130 -1.6219 -0.4443
15346SOL     OW57761   5.117   9.314   2.534 -0.0145 -0.1471 -0.2011
15346SOL    HW157762   5.194   9.371   2.536  0.6754 -1.0462  1.7092
15346SOL    HW257763   5.151   9.229   2.508 -0.6660 -0.1795 -0.9699
15347SOL     OW57764  10.696  10.951   1.753  0.1805  0.2942 -0.0549
15347SOL    HW157765  10.613  10.977   1.713 -0.0742 -0.1446  0.1829
15347SOL    HW257766  10.718  10.869   1.709  1.6191  1.4946 -1.7236
15348SOL     OW57767   7.234   2.412   6.204  0.1221  0.1535 -0.1386
15348SOL    HW157768   7.225   2.502   6.237  0.6292  0.1078  0.1332
15348SOL    HW257769   7.165   2.363   6.249  0.4303  0.2175  0.4101
15349SOL     OW57770  10.736   4.276   9.231 -0.6500  0.1944 -0.1695
15349SOL    HW157771  10.698   4.189   9.218 -0.9036  0.3375 -0.3866
15349SOL    HW257772  10.780   4.270   9.316 -0.1476 -0.3293 -0.4562
15350SOL     OW57773   6.066   4.992   2.591 -0.3048  0.3382  0.3579
15350SOL    HW157774   6.013   5.050   2.647 -0.4818 -1.3222  1.9975
15350SOL    HW257775   6.041   4.904   2.618 -0.3760 -0.5770 -2.3726
15351SOL     OW57776   0.535   2.188   8.328  0.4278 -0.4375 -0.2359
15351SOL    HW157777   0.529   2.272   8.374  0.1084 -2.0367  2.9137
15351SOL    HW257778   0.622   2.188   8.289  0.2268  1.5267 -0.8174
15352SOL     OW57779   6.123   8.234   4.958  0.1175 -0.2945  0.0339
15352SOL    HW157780   6.085   8.321   4.964  1.8105  0.3949  2.0421
15352SOL    HW257781   6.217   8.248   4.973  0.3385 -2.5213  1.1237
15353SOL     OW57782   6.876   8.062   6.734  0.3623  0.4776 -1.1580
15353SOL    HW157783   6.872   7.966   6.734 -0.8710  0.5164 -0.4587
15353SOL    HW257784   6.967   8.082   6.755  0.4742 -0.5430 -0.5988
15354SOL     OW57785   7.861   5.972  10.911  0.0691 -0.2264  0.4332
15354SOL    HW157786   7.774   5.985  10.872  0.2820 -0.3928 -0.1128
15354SOL    HW257787   7.871   5.877  10.915  1.1506 -0.2709 -1.6897
15355SOL     OW57788   5.764   2.985   0.554 -0.0250  0.2954  0.5387
15355SOL    HW157789   5.779   3.027   0.470 -1.4158  0.3855  0.3265
15355SOL    HW257790   5.713   2.906   0.534  1.9580 -1.1980  1.0012
15356SOL     OW57791   2.954  10.797   4.046  0.2634 -0.4924  0.6245
15356SOL    HW157792   2.884  10.790   4.110  0.1962 -1.7748  0.4367
15356SOL    HW257793   2.911  10.788   3.961  0.5386 -0.3737  0.4696
15357SOL     OW57794   5.911   0.056   1.768 -0.4765 -0.1477  0.2516
15357SOL    HW157795   5.922   0.151   1.758 -1.4028  0.0698  1.0825
15357SOL    HW257796   5.889   0.044   1.860  0.3461 -1.2565  0.3213
15358SOL     OW57797   6.631   7.121   5.418 -0.6281  0.1426  0.1523
15358SOL    HW157798   6.639   7.213   5.393 -1.1347  0.1238 -0.0965
15358SOL    HW257799   6.556   7.089   5.367 -0.2800 -0.4797  0.0261
15359SOL     OW57800   2.430   1.917   1.780 -0.7900 -0.6538  0.2800
15359SOL    HW157801   2.486   1.862   1.835 -0.2721  0.4115  0.8517
15359SOL    HW257802   2.352   1.933   1.834 -0.2299  0.4905  0.7922
15360SOL     OW57803  11.199   4.327   3.885  0.6113 -0.4691 -0.2001
15360SOL    HW157804  11.107   4.353   3.876  0.0372 -2.3938 -0.1218
15360SOL    HW257805  11.224   4.355   3.973  0.1070  0.0455 -0.2165
15361SOL     OW57806   4.454   6.077   6.370  0.2034  0.3088 -0.0530
15361SOL    HW157807   4.533   6.091   6.317 -0.5076  0.4617 -1.0949
15361SOL    HW257808   4.407   6.160   6.365  0.7892  0.8474  2.0313
15362SOL     OW57809  11.653   4.211   8.130 -0.0693 -0.5566  0.3639
15362SOL    HW157810  11.724   4.147   8.134 -0.6614 -1.1785  1.2400
15362SOL    HW257811  11.695   4.295   8.152  0.6786 -0.6442 -0.6407
15363SOL     OW57812   4.185  10.259   7.540 -0.2975 -0.0312 -0.2860
15363SOL    HW157813   4.216  10.174   7.571 -0.2297  0.5824  1.4364
15363SOL    HW257814   4.232  10.273   7.457  1.8035 -0.4508  0.7686
15364SOL     OW57815   1.919   1.070   3.346  0.3870 -0.6741 -0.4556
15364SOL    HW157816   1.992   1.020   3.381  0.8909  0.9334  0.8952
15364SOL    HW257817   1.917   1.048   3.253  2.1351 -1.2915 -0.3747
15365SOL     OW57818  11.814   0.318   1.709  0.1624 -0.0473 -0.1948
15365SOL    HW157819  11.804   0.329   1.803  2.3118  0.7170  0.0063
15365SOL    HW257820  11.785   0.229   1.691 -1.9462  0.3698  0.8841
15366SOL     OW57821   1.589  10.377   3.036 -0.4000  0.4916  0.3987
15366SOL    HW157822   1.522  10.373   3.105  0.2651  0.0147  1.0390
15366SOL    HW257823   1.650  10.307   3.059 -0.8506 -0.5631 -1.4158
15367SOL     OW57824   9.532   2.471   5.349 -0.0354  0.3837 -0.1671
15367SOL    HW157825   9.442   2.471   5.382  0.3686 -2.7974  1.2332
15367SOL    HW257826   9.524   2.441   5.258 -0.3732 -0.6299  0.1818
15368SOL     OW57827  11.744  11.153   0.309  0.4602 -0.0411 -0.2627
15368SOL    HW157828  11.699  11.070   0.326  0.4491  0.3199  1.6913
15368SOL    HW257829  11.682  11.220   0.338  1.5446  0.5303  0.8269
15369SOL     OW57830   0.011   3.650   4.170 -0.6079  0.0883 -1.0137
15369SOL    HW157831   0.009   3.584   4.101 -1.3592 -1.4507  0.4113
15369SOL    HW257832  -0.059   3.712   4.147  0.0069  0.3536 -2.2786
15370SOL     OW57833   3.714   1.114   6.122  0.3909 -0.1051  0.1913
15370SOL    HW157834   3.671   1.190   6.160 -2.1645 -0.7391 -1.2148
15370SOL    HW257835   3.743   1.063   6.198  1.0423  1.6267  1.1615
15371SOL     OW57836   9.441   4.201   7.355  0.6116 -0.1597  0.5669
15371SOL    HW157837   9.476   4.283   7.321  0.1246 -0.2782 -0.2346
15371SOL    HW257838   9.428   4.218   7.449 -1.4330  1.4112  0.0817
15372SOL     OW57839   7.434   2.830  10.223 -0.5924  0.0516  0.2627
15372SOL    HW157840   7.488   2.886  10.279 -1.6470  1.0542  0.3158
15372SOL    HW257841   7.382   2.891  10.171  0.8293 -0.8320 -2.3531
15373SOL     OW57842   4.894   3.139   0.879  0.4078 -0.3156 -0.0058
15373SOL    HW157843   4.926   3.213   0.931 -0.1235 -0.4056  0.4640
15373SOL    HW257844   4.947   3.065   0.909  0.5358 -0.2424 -0.0495
15374SOL     OW57845  11.258  11.469  10.092  0.6233 -0.6544  0.3891
15374SOL    HW157846  11.270  11.425  10.176  1.8505  0.1920  0.6857
15374SOL    HW257847  11.322  11.540  10.092  0.1444 -0.1756 -0.9594
15375SOL     OW57848   6.236   3.487   6.794  0.3465 -0.4016  0.4009
15375SOL    HW157849   6.282   3.412   6.758 -1.7892 -0.8042 -1.7841
15375SOL    HW257850   6.228   3.548   6.721  0.7788  1.3669  1.7512
15376SOL     OW57851   6.594   5.544   1.322 -0.0608 -0.2167 -0.1555
15376SOL    HW157852   6.648   5.505   1.253  1.0548 -0.6582  0.9188
15376SOL    HW257853   6.532   5.600   1.276  1.1727  0.1217 -1.4673
15377SOL     OW57854   1.198   8.627   8.540 -0.2572  0.0967  0.1037
15377SOL    HW157855   1.129   8.561   8.529  0.1201 -0.4065  0.6572
15377SOL    HW257856   1.157   8.709   8.514 -0.8256 -0.3162 -0.3327
15378SOL     OW57857   4.604   4.538   0.098  0.2458  0.4053 -0.3630
15378SOL    HW157858   4.677   4.588   0.061  0.3124  1.4890  1.1415
15378SOL    HW257859   4.526   4.581   0.065  0.3030  0.7646 -0.0395
15379SOL     OW57860   4.525   6.680   4.098  0.4240 -0.6612 -0.4255
15379SOL    HW157861   4.439   6.638   4.103  0.6891 -1.2036 -0.2546
15379SOL    HW257862   4.549   6.675   4.006  0.8897 -1.8217 -0.2640
15380SOL     OW57863   6.208   4.854   9.859  0.1139 -0.0833  0.1619
15380SOL    HW157864   6.180   4.802   9.784  1.2616  0.7287 -0.8559
15380SOL    HW257865   6.288   4.811   9.890  0.1439  0.1131  0.3612
15381SOL     OW57866  10.707   7.191   6.741  0.2542 -0.1825 -0.4382
15381SOL    HW157867  10.713   7.095   6.744  0.6281 -0.1774 -0.8411
15381SOL    HW257868  10.797   7.220   6.758 -0.2064  0.1668  1.7537
15382SOL     OW57869   8.929  11.276   9.527  0.2543 -0.8009  0.3657
15382SOL    HW157870   8.848  11.261   9.477  1.0825 -1.7201 -0.7394
15382SOL    HW257871   8.905  11.344   9.591 -0.9456  0.1555 -1.0362
15383SOL     OW57872   8.556   0.524  10.599  0.8319  0.2637 -0.0376
15383SOL    HW157873   8.558   0.441  10.552 -0.7010 -0.3555  0.8980
15383SOL    HW257874   8.542   0.590  10.532  1.3396 -0.2969 -0.7114
15384SOL     OW57875   0.844   3.049   9.246  0.1086  0.4493 -0.3504
15384SOL    HW157876   0.783   3.106   9.292 -0.4132  0.4827 -1.0648
15384SOL    HW257877   0.789   2.979   9.211  0.6159 -0.0084 -0.2406
15385SOL     OW57878   0.191  10.011   9.565 -0.2900  0.4246  0.0324
15385SOL    HW157879   0.262  10.063   9.526 -0.0415  1.1161  1.3339
15385SOL    HW257880   0.115  10.028   9.509 -0.3820  2.7482  0.7462
15386SOL     OW57881   3.193   2.242   0.858  0.4050  0.1031 -0.3163
15386SOL    HW157882   3.273   2.289   0.883 -0.5668  1.6990 -0.1143
15386SOL    HW257883   3.208   2.217   0.767  1.1962  0.2498 -0.2356
15387SOL     OW57884   9.587  10.377   6.928 -0.2779  0.3131 -0.2303
15387SOL    HW157885   9.550  10.356   6.842  0.1730  0.2011 -0.3995
15387SOL    HW257886   9.681  10.385   6.912  0.1351 -1.9949  0.6676
15388SOL     OW57887   4.276   8.065   3.463  0.7191  0.2866  0.8226
15388SOL    HW157888   4.247   8.155   3.444  0.6873 -0.2273 -2.0213
15388SOL    HW257889   4.350   8.051   3.403  1.2676 -1.3081  1.8294
15389SOL     OW57890   2.492   7.047   6.905  0.5242 -0.4321  0.7028
15389SOL    HW157891   2.466   6.967   6.950 -0.8090  0.3576  1.4084
15389SOL    HW257892   2.515   7.107   6.976 -0.6610  0.5223  0.3128
15390SOL     OW57893   1.293   1.660  10.526 -0.0565 -0.2484 -0.6171
15390SOL    HW157894   1.389   1.653  10.532 -0.2257 -2.1251  2.3444
15390SOL    HW257895   1.266   1.579  10.483 -0.3232  0.4159 -1.7178
15391SOL     OW57896   8.216   4.357   0.554 -0.5360 -0.0011  0.0934
15391SOL    HW157897   8.182   4.364   0.643 -0.6693 -3.0667  0.3916
15391SOL    HW257898   8.165   4.287   0.514 -0.1485  0.9703 -2.2598
15392SOL     OW57899  10.956   1.409   1.332  0.1406  0.1144 -0.3314
15392SOL    HW157900  10.947   1.363   1.415  0.3861  0.4444 -0.1213
15392SOL    HW257901  10.870   1.449   1.317  0.3653  0.8233  0.2241
15393SOL     OW57902   2.316   8.721   9.796  0.2429  0.0603  0.3553
15393SOL    HW157903   2.330   8.710   9.702  2.0237  0.3313  0.5637
15393SOL    HW257904   2.404   8.722   9.834 -0.4332  0.1702  2.0098
15394SOL     OW57905  10.227   1.230   9.222 -0.1100 -0.2543 -0.0986
15394SOL    HW157906  10.207   1.166   9.290  1.0897  0.1676  0.6716
15394SOL    HW257907  10.272   1.301   9.268 -1.0683  0.9879 -0.9875
15395SOL     OW57908  11.503   2.399   3.056 -0.4850 -0.3576 -0.2533
15395SOL    HW157909  11.527   2.349   3.135  2.0001  0.8469 -0.1620
15395SOL    HW257910  11.466   2.333   2.997  1.5823 -2.1682  0.3193
15396SOL     OW57911   0.243   1.402   7.062  0.0525 -0.3227  0.0659
15396SOL    HW157912   0.256   1.406   6.967  0.1327 -0.4436  0.0706
15396SOL    HW257913   0.153   1.431   7.075 -0.0821 -0.6671 -0.0832
15397SOL     OW57914   3.706   4.801   9.619  0.2746  0.1495  0.4816
15397SOL    HW157915   3.658   4.719   9.631  1.6425 -1.2117 -2.4678
15397SOL    HW257916   3.688   4.826   9.528  3.7266  0.4382 -0.2450
15398SOL     OW57917   2.837   7.693   5.470  0.2389 -0.5593  0.0389
15398SOL    HW157918   2.788   7.705   5.551 -0.2189  2.1524 -0.5411
15398SOL    HW257919   2.797   7.755   5.409  2.5450 -0.3129 -1.3398
15399SOL     OW57920   7.851   3.349   3.542 -0.1498 -0.4333  0.1631
15399SOL    HW157921   7.808   3.387   3.465  1.0668 -1.6575 -1.1887
15399SOL    HW257922   7.873   3.424   3.597  1.7562  0.8385 -2.1846
15400SOL     OW57923   4.463   9.931  11.709 -0.3685 -0.4327  0.2795
15400SOL    HW157924   4.402   9.967  11.773 -0.6892  0.7583 -0.6518
15400SOL    HW257925   4.408   9.910  11.633  0.1783 -0.6483 -0.0598
15401SOL     OW57926   6.632   0.448  11.853  0.3534 -0.4931 -0.8339
15401SOL    HW157927   6.565   0.432  11.787 -0.4665 -0.4244 -0.0404
15401SOL    HW257928   6.679   0.365  11.860 -0.7024 -1.0621 -0.2495
15402SOL     OW57929   8.592  11.772  11.140 -0.2896 -0.2030  0.4125
15402SOL    HW157930   8.500  11.754  11.158 -0.1599  0.4591  1.8559
15402SOL    HW257931   8.634  11.770  11.226  1.0949 -0.7291 -0.2428
15403SOL     OW57932   8.295  11.544   4.718 -0.3674  0.3166 -0.2219
15403SOL    HW157933   8.308  11.632   4.754  1.0308  0.6330 -1.4017
15403SOL    HW257934   8.278  11.489   4.794 -0.6335  1.4950  0.5956
15404SOL     OW57935   0.414   9.110   5.596  0.6278  0.2164 -0.2585
15404SOL    HW157936   0.363   9.190   5.582  0.1782  0.0859  0.5891
15404SOL    HW257937   0.452   9.120   5.683  0.2066 -0.6776  0.0422
15405SOL     OW57938  10.802   1.991   6.395  0.6025 -0.8028  0.2793
15405SOL    HW157939  10.731   2.052   6.414  1.2469  0.6819 -1.6603
15405SOL    HW257940  10.758   1.910   6.370 -0.3250 -0.6854  1.4586
15406SOL     OW57941   2.838  11.813   6.175 -0.6442  0.1529  0.2165
15406SOL    HW157942   2.929  11.782   6.168 -0.8175 -0.7839  1.6386
15406SOL    HW257943   2.823  11.861   6.094  1.3091  0.8143  0.1840
15407SOL     OW57944   9.053  10.377   8.744  0.0022  0.0878 -0.3578
15407SOL    HW157945   9.067  10.405   8.653 -0.7341  0.1931 -0.4479
15407SOL    HW257946   9.116  10.427   8.795  1.4427 -1.0488 -0.9669
15408SOL     OW57947   1.925   8.773   8.391  0.1353 -0.1120  0.1061
15408SOL    HW157948   1.939   8.762   8.485 -1.6666  1.5874  0.6370
15408SOL    HW257949   2.009   8.750   8.351  0.4574 -2.5386  1.9559
15409SOL     OW57950   2.862   5.530   2.857  0.2497  0.3785  0.4426
15409SOL    HW157951   2.790   5.582   2.822  0.1612  0.4925  0.7952
15409SOL    HW257952   2.835   5.439   2.844 -0.7327  0.3900  2.1262
15410SOL     OW57953   2.732   8.525   1.036  0.3118 -0.0243 -0.3893
15410SOL    HW157954   2.648   8.564   1.061 -0.6697 -1.4868 -1.2218
15410SOL    HW257955   2.791   8.599   1.024 -1.4614  1.2269 -1.8987
15411SOL     OW57956   3.318   0.166   4.485 -0.3693  0.8002 -0.2254
15411SOL    HW157957   3.338   0.078   4.452  0.6304  1.4140 -1.3181
15411SOL    HW257958   3.343   0.225   4.414 -0.9040  1.9956  0.5383
15412SOL     OW57959   1.808   9.601   9.663  0.3645  0.3218 -0.2448
15412SOL    HW157960   1.735   9.540   9.676  0.6826 -0.2920 -1.1952
15412SOL    HW257961   1.806   9.658   9.739  0.5377 -1.3975  1.1034
15413SOL     OW57962   3.397   1.209   5.611 -0.3157 -0.7428 -0.4633
15413SOL    HW157963   3.415   1.130   5.560  0.5107  0.4733 -2.1617
15413SOL    HW257964   3.316   1.244   5.575  0.2694  0.1262 -0.9785
15414SOL     OW57965   5.996   5.357   4.956 -0.3982  0.1767 -0.1462
15414SOL    HW157966   6.005   5.368   5.050 -1.8419  1.5012 -0.1244
15414SOL    HW257967   6.051   5.282   4.935  0.7553  0.4906  1.5872
15415SOL     OW57968  10.353   3.826  10.280  0.1203 -0.5801  0.4979
15415SOL    HW157969  10.311   3.897  10.232  2.4639  0.5765  0.0060
15415SOL    HW257970  10.328   3.839  10.371 -0.0666  0.4487  0.3016
15416SOL     OW57971   3.950   4.656  11.665 -0.0230  0.6015  0.0839
15416SOL    HW157972   4.034   4.615  11.648 -0.0314  0.2037  0.9628
15416SOL    HW257973   3.887   4.605  11.613  0.4961  2.1082 -2.1684
15417SOL     OW57974   5.011   7.664   3.397 -0.3171 -0.1648  0.5108
15417SOL    HW157975   5.057   7.627   3.322  0.3079  0.3052  0.6545
15417SOL    HW257976   5.077   7.717   3.442 -0.5762 -0.7529  1.6193
15418SOL     OW57977   0.453   8.615   9.919 -0.0739 -0.0007  0.1927
15418SOL    HW157978   0.500   8.615  10.002 -1.1613 -0.8238  0.8347
15418SOL    HW257979   0.514   8.574   9.857  0.6757  0.4663  0.6035
15419SOL     OW57980   2.630  10.298   6.628  0.0921  0.1804  0.4393
15419SOL    HW157981   2.539  10.266   6.632  0.0616  0.3320  1.1381
15419SOL    HW257982   2.681  10.220   6.607 -0.3246  0.3494 -1.4042
15420SOL     OW57983   5.559   0.881   7.945  0.5966  0.1931 -0.3031
15420SOL    HW157984   5.585   0.837   7.864  0.3610 -1.6279  0.5520
15420SOL    HW257985   5.464   0.891   7.937  0.3092 -1.6360  0.4728
15421SOL     OW57986   0.590   1.111   5.782  0.0056  0.6398  0.1021
15421SOL    HW157987   0.641   1.050   5.727  0.5903  1.7633 -0.6509
15421SOL    HW257988   0.510   1.128   5.731  0.5598  1.7040 -0.4478
15422SOL     OW57989   5.024   5.688   5.429  0.3913 -0.5860  0.6839
15422SOL    HW157990   4.952   5.660   5.486  0.7250 -2.3818  0.2685
15422SOL    HW257991   5.002   5.653   5.343  0.3805  1.2794 -0.1210
15423SOL     OW57992   5.852   2.310   6.426 -0.3387 -0.4095 -0.7516
15423SOL    HW157993   5.933   2.354   6.403 -0.7798  1.0702  0.3595
15423SOL    HW257994   5.877   2.252   6.498 -0.1601 -0.3913 -0.7977
15424SOL     OW57995   5.480   4.359   9.703 -0.1564  0.2444 -0.7066
15424SOL    HW157996   5.413   4.307   9.747  0.1366 -0.2839 -0.8709
15424SOL    HW257997   5.561   4.338   9.749  0.2512 -0.7624 -1.8354
15425SOL     OW57998   6.603   3.647  10.171  0.0927 -0.2103 -0.2520
15425SOL    HW157999   6.534   3.711  10.150 -2.2617 -1.9835  1.5242
15425SOL    HW258000   6.617   3.658  10.265  1.3712 -0.7434 -0.3666
15426SOL     OW58001  10.963   0.561   3.126 -0.1207 -0.0136  0.0276
15426SOL    HW158002  10.939   0.646   3.163  0.3961 -0.4923  1.5378
15426SOL    HW258003  10.880   0.513   3.120  0.0060 -0.6805  2.6384
15427SOL     OW58004   6.848  10.770   7.929 -0.2980  0.8150 -0.1524
15427SOL    HW158005   6.801  10.852   7.917 -0.5626  0.6238 -0.4475
15427SOL    HW258006   6.796  10.705   7.881 -1.2029  0.0763  1.6997
15428SOL     OW58007   2.700   9.921  10.389 -0.6178  0.4584  0.5643
15428SOL    HW158008   2.781   9.907  10.438  0.2123  0.0363 -0.8768
15428SOL    HW258009   2.700  10.014  10.367  0.7318  0.0059 -1.5172
15429SOL     OW58010   9.129   5.524  10.632 -0.5897 -0.0246 -0.3919
15429SOL    HW158011   9.199   5.589  10.638 -0.9043  0.4027 -1.1108
15429SOL    HW258012   9.174   5.440  10.622 -0.1342  0.4080 -2.5004
15430SOL     OW58013  11.132   6.078   4.102  0.0576 -0.3860  0.7448
15430SOL    HW158014  11.056   6.117   4.146  0.4766  0.3029  0.8712
15430SOL    HW258015  11.128   5.985   4.126 -1.3038 -0.5738 -0.0599
15431SOL     OW58016  11.819   6.100   3.358  0.6321  0.0236  0.2465
15431SOL    HW158017  11.784   6.029   3.305  1.0888 -1.3957  1.7616
15431SOL    HW258018  11.912   6.103   3.335  0.1852  1.8454 -1.6272
15432SOL     OW58019   2.974   4.696   5.868  0.0095 -0.3374 -0.0187
15432SOL    HW158020   3.002   4.654   5.949  0.2152 -0.8521 -0.3480
15432SOL    HW258021   2.902   4.641   5.836 -0.3139  0.0700  0.0026
15433SOL     OW58022   7.416   0.752   6.256 -0.4839  0.0530  0.6731
15433SOL    HW158023   7.426   0.844   6.233  1.6353 -0.3478 -0.1910
15433SOL    HW258024   7.487   0.735   6.319  0.3790 -1.4110 -0.6226
15434SOL     OW58025   3.327   9.352  10.112  0.2195 -0.0834  0.0646
15434SOL    HW158026   3.291   9.382  10.028 -0.8982 -1.4467  0.0166
15434SOL    HW258027   3.367   9.430  10.150 -1.4005  1.1469 -0.6391
15435SOL     OW58028   0.093   1.048   6.190  0.0363 -0.6575  0.0534
15435SOL    HW158029   0.045   1.120   6.230 -0.0502 -0.7247  0.0712
15435SOL    HW258030   0.183   1.060   6.219  0.0034 -0.6143  0.1382
15436SOL     OW58031   6.497   0.427   0.302  0.0391  0.4052  0.3266
15436SOL    HW158032   6.526   0.415   0.392 -0.6811 -2.0101  0.3116
15436SOL    HW258033   6.574   0.459   0.256  1.1630 -0.7640  1.3147
15437SOL     OW58034   9.932   6.413   5.702 -0.1071  0.1562  0.0505
15437SOL    HW158035   9.972   6.331   5.673  0.4543  0.4574 -0.0338
15437SOL    HW258036   9.998   6.480   5.684 -1.0760  0.8316 -1.1320
15438SOL     OW58037   7.583  11.677   4.261  0.2363 -0.0228 -0.1730
15438SOL    HW158038   7.521  11.749   4.251  0.1450  0.2508  1.9905
15438SOL    HW258039   7.553  11.611   4.199  0.3415  1.7483 -2.2419
15439SOL     OW58040   8.780   7.038   1.793 -0.2504 -0.4133 -0.1065
15439SOL    HW158041   8.842   7.048   1.865 -2.2842  0.4739  1.6422
15439SOL    HW258042   8.832   7.003   1.721  2.6211  1.7668  0.7233
15440SOL     OW58043   6.719  10.406   0.324  0.6266 -0.4035  0.2385
15440SOL    HW158044   6.719  10.500   0.340  0.4665 -0.5774  1.3093
15440SOL    HW258045   6.789  10.393   0.260 -0.2401  0.6014 -0.9686
15441SOL     OW58046   5.131   7.916   0.410 -0.2008  0.6088 -0.4400
15441SOL    HW158047   5.075   7.840   0.426 -1.4714  1.4446 -0.7737
15441SOL    HW258048   5.152   7.949   0.497  0.2855 -0.0579 -0.2970
15442SOL     OW58049   7.018   2.818  10.363 -0.4245 -0.0599  0.4877
15442SOL    HW158050   6.947   2.847  10.421 -1.6365 -0.5914 -0.6720
15442SOL    HW258051   6.988   2.732  10.331  1.1220 -0.6614  0.5768
15443SOL     OW58052   3.382   5.860  11.416  0.1960  0.1560 -0.2260
15443SOL    HW158053   3.478   5.859  11.408  0.1592 -0.4440 -0.7113
15443SOL    HW258054   3.352   5.809  11.341 -0.5202  0.5764 -0.2338
15444SOL     OW58055   2.736   4.852   2.238 -0.1821  0.2655  0.4259
15444SOL    HW158056   2.700   4.851   2.150 -0.4925 -2.1310  0.5068
15444SOL    HW258057   2.660   4.852   2.296 -0.0116  0.0218  0.6568
15445SOL     OW58058   0.694   6.992   0.010 -0.6897 -0.7631 -0.3593
15445SOL    HW158059   0.617   6.983   0.067  0.0069  1.5967  1.1117
15445SOL    HW258060   0.769   6.976   0.068  0.0005 -0.1407 -1.0544
15446SOL     OW58061   1.088  11.635   3.090 -0.1589 -0.4908  0.0365
15446SOL    HW158062   1.056  11.725   3.098  1.3247  0.1189 -0.6140
15446SOL    HW258063   1.176  11.637   3.126  0.4367 -1.3427 -1.3078
15447SOL     OW58064   2.096   0.741   9.298 -0.1882  0.3033 -0.0198
15447SOL    HW158065   2.007   0.736   9.265  0.0361 -0.4545 -0.5511
15447SOL    HW258066   2.134   0.656   9.276  0.4580  0.3685  0.7935
15448SOL     OW58067   9.137   5.641   0.636 -0.0756  0.2236  0.0277
15448SOL    HW158068   9.116   5.606   0.550 -1.7645 -0.9698  0.8754
15448SOL    HW258069   9.126   5.567   0.696  0.2817  1.2103  1.3743
15449SOL     OW58070   9.804   2.541   7.477 -0.0172 -0.2846 -0.4593
15449SOL    HW158071   9.764   2.623   7.447  1.8409  0.5337 -0.8198
15449SOL    HW258072   9.749   2.472   7.438 -1.2933  0.7648 -0.5987
15450SOL     OW58073   8.784   5.398   5.325  0.5902  0.1879 -0.2394
15450SOL    HW158074   8.727   5.421   5.251  2.0383 -0.2243 -1.5488
15450SOL    HW258075   8.756   5.310   5.350  1.2822 -0.4336 -1.5549
15451SOL     OW58076   5.020   2.347   5.313 -0.2615 -0.6298 -0.3973
15451SOL    HW158077   4.964   2.405   5.364  0.7890  0.7248 -0.7261
15451SOL    HW258078   4.972   2.331   5.232 -0.1313  0.6470 -0.7491
15452SOL     OW58079   5.226   6.819   9.684  0.0354  0.0355 -0.0454
15452SOL    HW158080   5.271   6.821   9.599  0.8098 -0.8890  0.3376
15452SOL    HW258081   5.137   6.847   9.663  0.2325 -0.0939 -1.1572
15453SOL     OW58082  10.649  10.970   4.997  0.0120 -0.2528  0.3289
15453SOL    HW158083  10.604  10.886   5.009 -0.2745  0.0952  1.8554
15453SOL    HW258084  10.627  10.997   4.908 -0.2880 -1.5553 -0.0135
15454SOL     OW58085   1.557  10.600   5.845  0.3376 -0.3588 -0.0235
15454SOL    HW158086   1.584  10.517   5.807 -0.8632 -0.6885 -0.2195
15454SOL    HW258087   1.478  10.578   5.895  0.1775  0.6105  0.1651
15455SOL     OW58088   2.982   6.696   5.724 -0.0451 -0.0311  0.0436
15455SOL    HW158089   3.059   6.691   5.667 -1.3042 -1.1959 -1.6595
15455SOL    HW258090   2.940   6.778   5.700  2.3584  2.4365  3.4300
15456SOL     OW58091   0.570   9.844   7.235 -0.1404  0.5549 -0.6181
15456SOL    HW158092   0.642   9.809   7.288 -1.5966 -0.4938  0.7306
15456SOL    HW258093   0.514   9.890   7.297 -0.9816  0.8166 -1.5558
15457SOL     OW58094   3.522  11.814   9.466  1.0528  0.2494  0.0558
15457SOL    HW158095   3.592  11.760   9.503  1.7386  0.5841 -0.7478
15457SOL    HW258096   3.502  11.878   9.535  0.3079 -0.9214  0.9790
15458SOL     OW58097   9.306   1.512   8.537  0.0377 -0.2051 -0.2550
15458SOL    HW158098   9.349   1.431   8.512 -1.7647 -0.9844 -1.0518
15458SOL    HW258099   9.327   1.573   8.467  1.5549  0.1076  0.4404
15459SOL     OW58100   3.981   7.477   0.227 -0.2394 -0.0803  0.3299
15459SOL    HW158101   3.930   7.457   0.148 -0.0653 -0.9315  0.4219
15459SOL    HW258102   3.993   7.572   0.224  0.5280 -0.1882 -1.1468
15460SOL     OW58103   2.949   8.419   2.813 -0.5181  0.0869 -0.6899
15460SOL    HW158104   2.864   8.373   2.811 -1.0947  0.9360  1.4921
15460SOL    HW258105   3.008   8.361   2.765 -1.8910 -1.4968 -0.5807
15461SOL     OW58106   2.872   7.044  10.492  0.2254 -0.4943 -0.2983
15461SOL    HW158107   2.849   6.972  10.433  3.2534 -0.8419 -1.2239
15461SOL    HW258108   2.955   7.076  10.458  0.8598  0.9371  2.3864
15462SOL     OW58109   9.490   2.428   1.538 -0.3907 -0.2603 -0.1305
15462SOL    HW158110   9.468   2.422   1.445  1.3321 -2.7856 -0.4849
15462SOL    HW258111   9.538   2.347   1.557  1.8630  1.4401  2.2680
15463SOL     OW58112   2.211  10.800  10.143 -0.0898 -0.0829  0.0396
15463SOL    HW158113   2.125  10.837  10.163 -0.2550  0.7238 -1.9084
15463SOL    HW258114   2.207  10.710  10.176 -0.4228  0.8986  3.0281
15464SOL     OW58115  11.737   3.741   3.965  0.3073  0.1696  0.0404
15464SOL    HW158116  11.693   3.716   3.884  0.7923  2.7376 -1.1132
15464SOL    HW258117  11.667   3.751   4.030 -0.2264 -0.6405 -0.4087
15465SOL     OW58118   5.701   3.694   5.512 -0.3352 -0.5125 -0.3280
15465SOL    HW158119   5.767   3.710   5.444  1.0542  1.0067  1.2839
15465SOL    HW258120   5.629   3.753   5.489 -0.5474 -1.1133 -1.2811
15466SOL     OW58121  11.861   4.080  10.836 -0.0471  0.1804 -0.4649
15466SOL    HW158122  11.800   4.131  10.890  0.6819  0.3033  0.2808
15466SOL    HW258123  11.868   3.996  10.881  1.3240  0.6320  0.2134
15467SOL     OW58124  11.664  11.647   6.720  0.5010 -0.4555  0.1513
15467SOL    HW158125  11.669  11.742   6.710 -1.7683 -0.1378  1.4358
15467SOL    HW258126  11.593  11.620   6.662  0.4134 -1.2194  0.5990
15468SOL     OW58127  10.356  10.337   3.799 -0.4934 -0.1644  0.0669
15468SOL    HW158128  10.448  10.323   3.775 -0.6141 -1.7458  0.4631
15468SOL    HW258129  10.314  10.359   3.716 -0.0412 -0.9775 -0.3888
15469SOL     OW58130   1.867  10.716   4.682 -0.3727 -0.3839 -0.4878
15469SOL    HW158131   1.949  10.763   4.690 -0.7711  0.0875  1.1177
15469SOL    HW258132   1.892  10.624   4.681  0.1294 -0.3040  1.3250
15470SOL     OW58133   7.609  10.460   1.074  0.0285 -0.3148  0.2210
15470SOL    HW158134   7.570  10.512   1.145 -2.2869 -2.1303  0.4308
15470SOL    HW258135   7.659  10.392   1.120  0.9575  0.2344  0.0243
15471SOL     OW58136   1.250  11.554   6.049 -0.4826 -0.0666  0.3175
15471SOL    HW158137   1.183  11.599   5.998 -0.7587 -0.2564  0.5104
15471SOL    HW258138   1.241  11.462   6.024  0.1247 -0.0091 -0.1279
15472SOL     OW58139   3.181   3.431   5.770 -0.0392 -0.3934  0.4041
15472SOL    HW158140   3.137   3.421   5.854 -0.5438 -2.5041 -0.0471
15472SOL    HW258141   3.212   3.343   5.748 -1.1618 -0.2556 -2.2300
15473SOL     OW58142   0.092   3.085   9.269  0.1179  0.4169  0.2128
15473SOL    HW158143   0.021   3.142   9.239 -0.5011 -1.3721 -1.9336
15473SOL    HW258144   0.061   3.050   9.352  0.2814  2.6782  1.3249
15474SOL     OW58145  11.080   6.284   7.805  0.2337  0.2425  0.0025
15474SOL    HW158146  11.013   6.342   7.769  0.0496  0.1688  0.2256
15474SOL    HW258147  11.053   6.268   7.895  0.7331  0.4861  0.2010
15475SOL     OW58148   4.110   4.162  10.515 -0.0042 -0.7462  0.1567
15475SOL    HW158149   4.064   4.078  10.518  0.0748 -0.7867  0.2277
15475SOL    HW258150   4.109   4.192  10.606 -2.2670  0.5261 -0.2019
15476SOL     OW58151   8.244   8.793   2.135  0.5695  1.4449  0.4157
15476SOL    HW158152   8.165   8.773   2.186 -0.9430  1.2737 -1.8502
15476SOL    HW258153   8.264   8.884   2.157  0.1812  1.2720  1.5657
15477SOL     OW58154   4.453   4.400  10.480  0.4869 -0.2125  0.1487
15477SOL    HW158155   4.447   4.316  10.526 -1.6560 -1.7410 -2.6494
15477SOL    HW258156   4.538   4.397  10.436  0.9363 -0.3463  1.0002
15478SOL     OW58157   5.181   4.003   3.823 -0.3071  0.6635  0.1538
15478SOL    HW158158   5.139   3.969   3.903 -0.1088 -0.4902 -0.2147
15478SOL    HW258159   5.271   3.972   3.829 -0.1889  0.9167 -0.3171
15479SOL     OW58160   0.667   1.811  11.672  0.0901  0.1012  0.3778
15479SOL    HW158161   0.717   1.856  11.740  1.7446 -2.2419  0.8496
15479SOL    HW258162   0.584   1.788  11.715  0.5054 -0.0244  1.1343
15480SOL     OW58163  11.360   5.124   5.700  0.3210 -0.3908 -0.0642
15480SOL    HW158164  11.449   5.097   5.722 -0.4467 -1.4336  1.9933
15480SOL    HW258165  11.362   5.219   5.701  0.9850 -0.3792  2.0905
15481SOL     OW58166   7.938   0.285   8.410  0.1787  0.5261  0.2136
15481SOL    HW158167   8.019   0.251   8.372 -1.5403 -1.5478 -1.9387
15481SOL    HW258168   7.940   0.257   8.501  1.7299  0.3253  0.1462
15482SOL     OW58169   2.141   2.111   6.796 -0.4148 -0.3432  0.2512
15482SOL    HW158170   2.194   2.141   6.722  1.6502 -0.3828  1.6388
15482SOL    HW258171   2.172   2.023   6.814 -2.3433 -1.1413 -0.0805
15483SOL     OW58172   4.213  10.455   8.901  0.2595  0.6094 -0.6069
15483SOL    HW158173   4.269  10.515   8.951 -0.3824  1.4374 -0.8658
15483SOL    HW258174   4.272  10.413   8.838  1.2439 -1.0026  1.2830
15484SOL     OW58175   7.123   7.122   5.124  0.9517 -0.0476 -0.1395
15484SOL    HW158176   7.182   7.064   5.171  0.3243 -0.9255 -0.4119
15484SOL    HW258177   7.171   7.145   5.044  0.9726 -0.6712 -0.3114
15485SOL     OW58178   7.576   5.444   1.694  0.7988  0.1056  0.3368
15485SOL    HW158179   7.591   5.484   1.780  1.9285 -0.1929  0.3024
15485SOL    HW258180   7.663   5.443   1.653  0.4045 -0.4258 -0.5142
15486SOL     OW58181   2.425   6.151   6.533 -0.0146  0.4550  0.0054
15486SOL    HW158182   2.419   6.071   6.586 -1.4754 -0.0323 -0.8302
15486SOL    HW258183   2.383   6.127   6.451 -0.2054  2.0161 -0.3678
15487SOL     OW58184  10.315   3.307   1.464 -0.1415  0.1492 -0.2286
15487SOL    HW158185  10.273   3.342   1.542 -0.3068 -0.5155 -0.0156
15487SOL    HW258186  10.395   3.359   1.455 -0.4809  0.7158 -0.0402
15488SOL     OW58187  11.847   9.414   6.850 -0.1917  0.1337 -0.2558
15488SOL    HW158188  11.798   9.474   6.906 -0.4199  0.3065 -0.6408
15488SOL    HW258189  11.781   9.353   6.816  0.2086 -1.1667  1.1534
15489SOL     OW58190   9.722   3.519   8.429 -0.1967  0.1240 -0.7216
15489SOL    HW158191   9.725   3.601   8.479  1.0191  0.1620 -0.8367
15489SOL    HW258192   9.796   3.525   8.369 -0.4828 -0.7828 -1.1837
15490SOL     OW58193   0.113   1.657   5.737  0.7261  0.2491 -0.3716
15490SOL    HW158194   0.142   1.649   5.646  1.8353  0.2219 -0.0319
15490SOL    HW258195   0.162   1.589   5.784  2.1964  1.9458  0.6849
15491SOL     OW58196   3.500   0.386   0.437  0.1196 -0.7476 -0.2805
15491SOL    HW158197   3.506   0.294   0.413 -0.2095 -0.3945 -1.7928
15491SOL    HW258198   3.552   0.393   0.517  0.6345 -2.1242 -0.4640
15492SOL     OW58199   0.818   0.520  11.345 -0.6823  0.3452 -0.0648
15492SOL    HW158200   0.733   0.562  11.346 -1.1731 -0.4696  3.0975
15492SOL    HW258201   0.802   0.431  11.376  1.2654  0.0615  0.3147
15493SOL     OW58202   9.555   6.736   4.804  0.2087 -0.0158 -0.3573
15493SOL    HW158203   9.569   6.689   4.887  1.0198  0.2704 -0.3218
15493SOL    HW258204   9.597   6.681   4.738  1.1746  0.6511 -0.3137
15494SOL     OW58205  11.774   5.485  10.966  0.0529  0.0094  0.6475
15494SOL    HW158206  11.799   5.576  10.952 -0.2907 -0.2344 -2.0968
15494SOL    HW258207  11.853   5.442  10.999  0.5666  1.0479  0.7968
15495SOL     OW58208   5.771  10.383  10.915 -0.1747  0.1847 -0.3267
15495SOL    HW158209   5.708  10.312  10.926 -0.3772  0.4913  0.5869
15495SOL    HW258210   5.815  10.390  11.000 -1.2116  2.1227  0.1114
15496SOL     OW58211   0.588   6.173   2.657  0.4791 -0.4405  0.3547
15496SOL    HW158212   0.562   6.226   2.582 -0.7390 -0.2318  0.8896
15496SOL    HW258213   0.682   6.159   2.646  0.8871  2.0035  0.2957
15497SOL     OW58214   0.819   5.118   8.200 -0.1910 -0.2916 -0.3784
15497SOL    HW158215   0.908   5.101   8.170  0.3667  0.2288  0.9209
15497SOL    HW258216   0.764   5.066   8.141  0.7716  1.1712 -2.7170
15498SOL     OW58217   8.507  10.332   7.935  0.2031 -0.1623 -0.0438
15498SOL    HW158218   8.473  10.255   7.890  1.5426 -0.2149 -1.0358
15498SOL    HW258219   8.547  10.384   7.866 -0.0950  1.1255  0.7091
15499SOL     OW58220   3.241   9.551  11.487 -0.6403 -0.1351 -0.1814
15499SOL    HW158221   3.240   9.482  11.553  0.3887  0.5834  0.6044
15499SOL    HW258222   3.330   9.550  11.453 -0.3923  1.3003  0.3802
15500SOL     OW58223  10.591   4.084   6.505 -0.2194  0.3738  0.7253
15500SOL    HW158224  10.565   4.175   6.490  1.6183  0.9045  0.5722
15500SOL    HW258225  10.665   4.070   6.447 -0.0821 -1.0452  1.1971
15501SOL     OW58226  10.492   1.658  10.715  0.3604 -0.3108 -0.2620
15501SOL    HW158227  10.546   1.710  10.655 -0.5826  1.5680  0.4539
15501SOL    HW258228  10.417   1.714  10.735  0.1622 -1.2585  1.9057
15502SOL     OW58229   5.864   7.107   2.846  0.0888  0.5217  0.3571
15502SOL    HW158230   5.894   7.016   2.852  1.6479  0.9445 -0.3664
15502SOL    HW258231   5.891   7.135   2.758  0.0931  1.8283  0.7530
15503SOL     OW58232   8.105   1.849   7.686  0.0733 -0.5670 -0.0458
15503SOL    HW158233   8.147   1.894   7.612  0.3009 -0.2851  0.2540
15503SOL    HW258234   8.028   1.807   7.647  0.0693 -0.2383 -0.4057
15504SOL     OW58235   4.446   0.609  10.134 -0.7259  0.3755  0.0595
15504SOL    HW158236   4.371   0.668  10.138  0.0053  1.3145  0.1743
15504SOL    HW258237   4.508   0.643  10.199  0.6574  0.8674 -1.4282
15505SOL     OW58238   2.477   3.607   9.640  0.1280 -0.3914 -0.1594
15505SOL    HW158239   2.537   3.679   9.625 -0.4236  0.1913  0.3418
15505SOL    HW258240   2.502   3.572   9.726 -0.1413 -0.2503 -0.0219
15506SOL     OW58241   8.916   7.010  11.608  0.0343  0.2922  0.1370
15506SOL    HW158242   9.000   6.994  11.651  0.6981  1.8353 -0.5126
15506SOL    HW258243   8.876   6.924  11.602  1.3471 -0.4132  0.9112
15507SOL     OW58244   7.178  10.905   0.964  0.1539 -0.4875  0.0464
15507SOL    HW158245   7.256  10.954   0.940 -0.3742  0.1592 -0.3801
15507SOL    HW258246   7.200  10.813   0.948  1.1383 -0.4011  0.8195
15508SOL     OW58247   8.648   7.745   6.442 -0.1485  0.4748 -0.3193
15508SOL    HW158248   8.685   7.724   6.356  0.8509  0.8904 -0.0043
15508SOL    HW258249   8.644   7.662   6.488 -0.0376  0.3583 -0.5225
15509SOL     OW58250   6.976   4.220  11.563  0.0974 -0.2470  0.1467
15509SOL    HW158251   6.918   4.145  11.549 -1.1716  0.8468 -0.7808
15509SOL    HW258252   7.021   4.231  11.479  2.3049 -1.5517  1.0839
15510SOL     OW58253   2.254   1.701   8.676 -0.0933 -0.2667 -0.2618
15510SOL    HW158254   2.272   1.660   8.592 -0.7822 -0.5356 -0.2861
15510SOL    HW258255   2.172   1.749   8.662 -1.0709 -1.5990  0.6816
15511SOL     OW58256   7.409   6.839   5.863 -0.4605  0.1890 -0.3052
15511SOL    HW158257   7.444   6.927   5.851 -1.7274  0.8233  0.4595
15511SOL    HW258258   7.348   6.828   5.790  0.9347 -0.7359 -1.3752
15512SOL     OW58259   5.010   9.452   3.998 -0.0751  0.3968  0.0800
15512SOL    HW158260   5.056   9.371   4.020  0.2045  0.6439  0.4204
15512SOL    HW258261   5.050   9.518   4.055 -0.8295  0.6202  0.3635
15513SOL     OW58262   1.864   7.594  11.326  0.2836 -0.1917  0.2619
15513SOL    HW158263   1.879   7.657  11.256  1.8725  0.1176  0.8473
15513SOL    HW258264   1.909   7.631  11.402 -1.3380 -0.5401  1.4630
15514SOL     OW58265   8.575   5.372   7.753  0.2333  0.1109  0.6576
15514SOL    HW158266   8.592   5.287   7.712  1.4816 -0.3727  2.0764
15514SOL    HW258267   8.509   5.354   7.819 -1.4551  0.8074 -0.7464
15515SOL     OW58268   0.919  11.275   2.806  0.8592  0.2544 -0.0206
15515SOL    HW158269   0.889  11.185   2.822  0.0768  0.4842 -0.1515
15515SOL    HW258270   1.004  11.264   2.764  1.5451 -0.4024  1.4784
15516SOL     OW58271  10.101  11.251  11.245  0.0012 -0.0604  0.3125
15516SOL    HW158272  10.141  11.258  11.158  1.1837 -1.8983  0.6366
15516SOL    HW258273  10.012  11.221  11.227 -0.2721  1.0733 -0.3094
15517SOL     OW58274  10.972   5.521   9.380 -0.5134  0.0579  0.0826
15517SOL    HW158275  11.051   5.542   9.331 -0.2389 -1.5995 -0.2504
15517SOL    HW258276  10.954   5.599   9.432  0.3420  1.1025 -1.1343
15518SOL     OW58277   9.947  10.130   9.904  0.0164 -0.0153 -0.4632
15518SOL    HW158278   9.940  10.149   9.998  0.3102 -2.0678  0.0167
15518SOL    HW258279   9.860  10.100   9.879  0.5500 -1.8181 -0.2516
15519SOL     OW58280  11.363   2.650   7.807  0.1633  0.3769 -0.1094
15519SOL    HW158281  11.437   2.688   7.760 -0.5183 -0.3678 -1.8769
15519SOL    HW258282  11.397   2.570   7.845  0.6091  0.7534  0.2970
15520SOL     OW58283   5.602   9.970   9.540  0.0762 -0.5351  0.4636
15520SOL    HW158284   5.558  10.041   9.588  0.9333  1.0578 -0.9849
15520SOL    HW258285   5.676   9.946   9.595 -0.1882 -0.2561  0.9492
15521SOL     OW58286   2.036   7.096   9.651 -0.4231  0.5980 -0.1957
15521SOL    HW158287   2.075   7.089   9.564 -0.4999 -0.8670 -0.1410
15521SOL    HW258288   1.959   7.152   9.638 -0.5755  0.1913 -1.1280
15522SOL     OW58289   1.441  11.622   7.023 -0.3412 -0.2719 -0.7421
15522SOL    HW158290   1.477  11.576   7.099  0.3096  0.8263 -0.3442
15522SOL    HW258291   1.428  11.712   7.055 -0.0158  0.2146 -1.9438
15523SOL     OW58292   0.228   8.877   6.824 -0.0058 -0.6129  0.3347
15523SOL    HW158293   0.273   8.821   6.886 -0.0820 -0.4768  0.5126
15523SOL    HW258294   0.241   8.834   6.739  0.6824 -0.4323  0.3467
15524SOL     OW58295   5.976   3.034  11.784 -0.0503 -0.1280 -0.0750
15524SOL    HW158296   6.044   3.037  11.851 -0.1125  0.7228 -0.0441
15524SOL    HW258297   5.894   3.020  11.833 -0.2980  1.9993  0.1968
15525SOL     OW58298   7.623   8.776   4.261  0.4995  0.0440  0.1137
15525SOL    HW158299   7.699   8.724   4.288 -0.5567 -1.6076  0.1106
15525SOL    HW258300   7.625   8.774   4.165 -0.0771 -0.8784  0.1071
15526SOL     OW58301   6.089   1.188   9.892  0.1821  0.1460  0.0601
15526SOL    HW158302   6.034   1.116   9.922  3.2124 -1.8702  1.2766
15526SOL    HW258303   6.132   1.219   9.971 -1.1448  3.5840 -0.3943
15527SOL     OW58304   7.232   8.806   8.104 -0.0482  0.3822  0.3584
15527SOL    HW158305   7.161   8.841   8.158  0.9856  1.4630  1.0666
15527SOL    HW258306   7.212   8.837   8.016 -0.6261  0.4076  0.4925
15528SOL     OW58307   7.154   4.200   7.441  0.1395 -0.3167  0.3209
15528SOL    HW158308   7.171   4.228   7.531 -0.4097  1.4030 -0.0677
15528SOL    HW258309   7.087   4.133   7.449  0.7019 -0.8003  1.2312
15529SOL     OW58310   1.304   1.776   7.896 -0.1875 -0.2154  0.3690
15529SOL    HW158311   1.295   1.680   7.895  0.0049 -0.2325  0.3124
15529SOL    HW258312   1.351   1.794   7.977  0.2774 -0.2115  0.1011
15530SOL     OW58313   5.431   6.547   3.474 -0.1958 -0.5539 -0.3208
15530SOL    HW158314   5.491   6.539   3.548  0.3912 -0.4817 -0.7853
15530SOL    HW258315   5.365   6.610   3.504 -0.1402 -0.7628  0.2548
15531SOL     OW58316   5.691   8.227   6.065  0.6126 -0.4769  0.9426
15531SOL    HW158317   5.612   8.175   6.082  0.8067 -0.7363  1.0661
15531SOL    HW258318   5.751   8.165   6.024  0.6181 -0.1837  0.5033
15532SOL     OW58319   0.440   1.017   9.248  0.1126 -0.4286  0.5686
15532SOL    HW158320   0.525   1.058   9.262  0.3550 -1.5486  2.9207
15532SOL    HW258321   0.425   1.023   9.153  2.0708  1.1571  0.3068
15533SOL     OW58322   4.549   9.011  10.998  0.0974 -0.3119 -0.2871
15533SOL    HW158323   4.593   9.049  10.922 -0.9655 -0.2931 -0.9086
15533SOL    HW258324   4.559   9.078  11.067  2.3069 -0.9285  0.0669
15534SOL     OW58325   0.633   4.815   5.658  0.1762  0.6922  0.0411
15534SOL    HW158326   0.572   4.864   5.604 -2.1531 -0.3968  1.5230
15534SOL    HW258327   0.600   4.725   5.656  1.1453  0.2546  1.6773
15535SOL     OW58328   7.987   4.987   4.493  0.3082 -0.9602 -0.1002
15535SOL    HW158329   7.943   4.932   4.429 -1.2432 -1.8853  1.6505
15535SOL    HW258330   7.937   5.069   4.492  1.1642 -0.4285 -1.0359
15536SOL     OW58331  10.744   6.657   6.141 -0.0140 -0.3332 -0.6489
15536SOL    HW158332  10.675   6.720   6.164 -0.1743  0.0659 -2.1082
15536SOL    HW258333  10.726   6.634   6.049  1.0180 -1.2422 -0.6458
15537SOL     OW58334   2.065   7.247   3.506  0.4736  0.4350  0.0481
15537SOL    HW158335   1.996   7.243   3.440 -0.8669  0.4377  1.3971
15537SOL    HW258336   2.117   7.169   3.491 -1.2754 -0.8796  0.4960
15538SOL     OW58337   3.456  11.273  11.375  0.0775 -0.5079  0.5689
15538SOL    HW158338   3.372  11.238  11.346 -0.0716  0.8430 -0.7500
15538SOL    HW258339   3.455  11.263  11.470 -0.8131 -2.1230  0.4177
15539SOL     OW58340   7.859   5.552   6.079 -0.3180  0.3558  0.3248
15539SOL    HW158341   7.884   5.586   5.993  0.8238  0.2690  0.6182
15539SOL    HW258342   7.871   5.626   6.138 -3.1394  1.0981  0.1402
15540SOL     OW58343   5.234   2.293   3.668  0.4427 -0.2825  0.3673
15540SOL    HW158344   5.233   2.219   3.607  1.1338 -0.4413  0.5345
15540SOL    HW258345   5.171   2.269   3.735  0.7816 -0.8126  0.5100
15541SOL     OW58346   4.336   8.247   1.848  0.5987  0.6611  0.1386
15541SOL    HW158347   4.353   8.308   1.920 -2.0787  0.6193  0.8983
15541SOL    HW258348   4.418   8.199   1.838  1.1643  0.8512  3.0115
15542SOL     OW58349   8.861   9.709   6.417  0.3596  0.2533  0.4833
15542SOL    HW158350   8.839   9.623   6.380 -1.6722  0.4919  1.0285
15542SOL    HW258351   8.789   9.728   6.477  0.8915  2.2565  0.5437
15543SOL     OW58352  10.813   8.760   8.501  0.0660 -0.0111  0.1398
15543SOL    HW158353  10.757   8.838   8.493  0.9459  0.5148 -1.3983
15543SOL    HW258354  10.860   8.772   8.583 -1.4227 -0.0397  1.0315
15544SOL     OW58355   5.125   9.736   2.265 -0.3983  0.3662 -0.3925
15544SOL    HW158356   5.162   9.809   2.217 -0.0533  0.1652 -0.4366
15544SOL    HW258357   5.198   9.702   2.318 -0.9348  1.0169  0.8027
15545SOL     OW58358  10.489   9.607   9.838  0.3221 -0.5821  0.1911
15545SOL    HW158359  10.434   9.583   9.912 -1.9274  0.9301 -0.8666
15545SOL    HW258360  10.549   9.673   9.873 -0.0950 -0.5630  0.8820
15546SOL     OW58361   8.309  10.055   0.814  0.0299 -0.2811  0.2039
15546SOL    HW158362   8.396  10.014   0.810  0.7230  1.1533 -2.3483
15546SOL    HW258363   8.265  10.025   0.734 -0.3684  1.8297 -0.4440
15547SOL     OW58364   8.710   5.494  11.242  0.1838  0.2672 -0.0024
15547SOL    HW158365   8.673   5.512  11.156 -2.5156  3.5539  1.6144
15547SOL    HW258366   8.648   5.433  11.283 -0.0120  0.7805  0.4849
15548SOL     OW58367   1.603   6.591   1.728 -0.6528  0.6894  0.3326
15548SOL    HW158368   1.578   6.644   1.652  1.5340  0.3761 -0.6982
15548SOL    HW258369   1.558   6.631   1.802 -0.7398  2.6636 -0.7322
15549SOL     OW58370   9.343   5.186   4.137  0.7375 -0.4927 -0.0435
15549SOL    HW158371   9.393   5.257   4.178 -1.9508  1.2226  0.5457
15549SOL    HW258372   9.402   5.150   4.070  1.6443  3.6560 -1.8135
15550SOL     OW58373   5.083   9.276   3.285  0.1517 -0.1629 -0.0761
15550SOL    HW158374   5.023   9.205   3.309 -0.6430  0.1940 -0.9398
15550SOL    HW258375   5.080   9.336   3.359 -2.3382  0.9842 -0.9941
15551SOL     OW58376  10.413  11.136  11.789 -0.0891 -0.3816 -0.3202
15551SOL    HW158377  10.438  11.077  11.860  1.2049 -1.7608 -1.8447
15551SOL    HW258378  10.495  11.176  11.760 -0.7061  0.7736 -0.5488
15552SOL     OW58379  11.146   1.436   2.449  0.0818 -0.2298 -0.9790
15552SOL    HW158380  11.089   1.510   2.427 -0.3469 -0.1721  0.2259
15552SOL    HW258381  11.221   1.475   2.493 -1.5318 -0.6158  2.4428
15553SOL     OW58382   5.923   2.593   3.164  0.1809  0.2003 -0.3987
15553SOL    HW158383   5.868   2.633   3.232 -2.0188 -0.2551 -1.8059
15553SOL    HW258384   5.953   2.511   3.203 -0.2609  0.3902  0.3704
15554SOL     OW58385   1.438   5.480   4.368  0.5671  0.2508  0.2415
15554SOL    HW158386   1.482   5.509   4.288  1.1642  1.8271  1.0951
15554SOL    HW258387   1.495   5.510   4.439  1.1332 -2.8988  1.2724
15555SOL     OW58388   2.912   2.137   6.897 -0.4309  0.0693  0.2079
15555SOL    HW158389   2.896   2.196   6.823 -0.3758 -1.1682 -0.8363
15555SOL    HW258390   2.948   2.193   6.966  4.4887  0.6481 -2.3540
15556SOL     OW58391   2.422   3.019   8.455 -0.3756  0.4444 -0.0380
15556SOL    HW158392   2.495   3.047   8.509 -0.2410 -0.6837  0.3730
15556SOL    HW258393   2.365   2.969   8.514 -0.8680  0.2828 -0.6327
15557SOL     OW58394   6.684   4.403   9.510  0.1486  0.2373 -0.1390
15557SOL    HW158395   6.652   4.326   9.557  0.6265 -0.3072 -0.6744
15557SOL    HW258396   6.685   4.376   9.418  1.7109  0.3657 -0.1888
15558SOL     OW58397  11.098   4.953   4.453 -0.3845 -0.2074 -0.4418
15558SOL    HW158398  11.141   4.877   4.492  4.3564  1.2511 -2.1309
15558SOL    HW258399  11.117   5.025   4.514  0.2064  0.5993 -1.5381
15559SOL     OW58400   7.204   4.589   5.399  0.1020 -0.1480 -0.1236
15559SOL    HW158401   7.141   4.601   5.470 -1.4470  1.4981 -1.6664
15559SOL    HW258402   7.186   4.502   5.364 -1.0782  0.1497 -0.2798
15560SOL     OW58403   1.158   3.923   7.897  0.0481 -0.2482 -0.2540
15560SOL    HW158404   1.187   3.833   7.910 -1.5619 -0.9419 -1.1913
15560SOL    HW258405   1.093   3.938   7.965 -1.7992 -0.8374 -1.7863
15561SOL     OW58406   8.524   3.944  11.654 -0.1871  0.5005  0.0355
15561SOL    HW158407   8.533   3.908  11.742  1.5763 -0.4022 -0.4727
15561SOL    HW258408   8.611   3.975  11.631 -0.9220  2.0369 -0.8750
15562SOL     OW58409   6.846   7.727   6.649  0.2340 -0.4305 -0.2539
15562SOL    HW158410   6.927   7.735   6.700  0.1292 -0.7240 -0.0433
15562SOL    HW258411   6.876   7.716   6.559  0.4179  0.1414 -0.2680
15563SOL     OW58412  11.205   4.066   0.746  0.4785 -0.2057  0.3404
15563SOL    HW158413  11.147   4.103   0.812  0.1774 -1.8241  1.0451
15563SOL    HW258414  11.254   3.998   0.793  1.9945  0.2106 -0.5588
15564SOL     OW58415   7.446   4.222   6.511  0.1398  0.3145 -0.0242
15564SOL    HW158416   7.492   4.261   6.586  0.6300  0.1213 -0.2157
15564SOL    HW258417   7.516   4.199   6.450 -0.1731 -0.4389 -0.1151
15565SOL     OW58418   1.124   4.128   1.526  0.3890 -0.2188 -0.7819
15565SOL    HW158419   1.163   4.109   1.440 -0.6685  1.2988 -1.6493
15565SOL    HW258420   1.070   4.050   1.545 -0.9232  0.1996 -2.4680
15566SOL     OW58421   1.626   1.476   1.874 -0.4286  0.1189  0.6154
15566SOL    HW158422   1.587   1.534   1.808  1.0695  2.2382  1.4497
15566SOL    HW258423   1.609   1.520   1.957  0.7452 -0.6463  1.2930
15567SOL     OW58424   6.668  11.930   2.926 -0.5019 -0.3790 -0.2472
15567SOL    HW158425   6.681  12.001   2.989 -0.1792  0.3310 -1.0873
15567SOL    HW258426   6.657  11.852   2.980  0.5022  0.0874  0.6692
15568SOL     OW58427   1.737   3.949   6.495 -0.2023  0.4196 -0.1711
15568SOL    HW158428   1.709   4.032   6.456  0.0088  0.9168  0.7265
15568SOL    HW258429   1.769   3.972   6.582  0.7683 -0.4686 -0.2707
15569SOL     OW58430   6.119   1.344   9.657  0.2180  0.0633 -0.1073
15569SOL    HW158431   6.121   1.271   9.719 -1.7152  0.3417  0.3624
15569SOL    HW258432   6.210   1.369   9.645  0.6567  0.2227  2.8992
15570SOL     OW58433   0.060   7.136   4.688  0.0899 -0.1067  0.0040
15570SOL    HW158434   0.080   7.180   4.605  0.5694 -0.4241 -0.0528
15570SOL    HW258435   0.033   7.207   4.747  2.3724  0.5469  0.3960
15571SOL     OW58436   1.781   1.633   4.439 -0.0875 -0.0914  0.7464
15571SOL    HW158437   1.750   1.651   4.527 -0.7934 -0.1394  0.5154
15571SOL    HW258438   1.725   1.686   4.382 -0.6727 -1.2087  0.2292
15572SOL     OW58439   0.814   7.212   9.756  0.5365 -0.6614 -0.0697
15572SOL    HW158440   0.740   7.196   9.815  2.3680 -2.4326  1.9490
15572SOL    HW258441   0.826   7.128   9.710  1.1957 -0.3539 -0.4653
15573SOL     OW58442   3.067   1.493  10.860 -0.2090  0.3804  0.0013
15573SOL    HW158443   3.147   1.481  10.912  0.2331 -0.3868 -0.8386
15573SOL    HW258444   3.058   1.413  10.810 -0.7064  1.0559 -1.0227
15574SOL     OW58445   0.673   1.195   8.467  0.1893  0.2877  0.1625
15574SOL    HW158446   0.647   1.282   8.495 -1.0537 -0.6520  2.1765
15574SOL    HW258447   0.629   1.182   8.383  1.3173  1.9700 -0.7364
15575SOL     OW58448   4.291   5.272   9.159 -0.4050 -0.2910 -0.3556
15575SOL    HW158449   4.355   5.246   9.093  1.8474 -0.4247  1.7637
15575SOL    HW258450   4.311   5.363   9.178 -0.9755 -0.2798  0.2322
15576SOL     OW58451   8.372   1.079   7.037  0.3446 -0.4297  0.4846
15576SOL    HW158452   8.326   1.121   6.964  0.0606  1.8167  1.8456
15576SOL    HW258453   8.461   1.064   7.004 -0.2570 -1.1186 -0.8788
15577SOL     OW58454   6.467   2.826   1.134 -0.2098  0.4007 -0.8472
15577SOL    HW158455   6.517   2.771   1.074  0.7776  1.6253 -1.1797
15577SOL    HW258456   6.490   2.794   1.221 -2.4921 -2.1303 -1.0304
15578SOL     OW58457   2.652   4.232   8.454 -0.3246 -0.2304 -0.3461
15578SOL    HW158458   2.655   4.218   8.549  1.6244  1.1936 -0.1141
15578SOL    HW258459   2.594   4.164   8.421 -2.7985  0.5131  2.0811
15579SOL     OW58460   2.667  10.999   9.422  0.8264 -0.5754 -0.7377
15579SOL    HW158461   2.642  10.912   9.392  0.6063 -0.6571 -0.3275
15579SOL    HW258462   2.686  10.987   9.515 -0.5599  0.0984 -0.3566
15580SOL     OW58463   4.594   7.245   7.145  0.0613 -0.2375  0.0715
15580SOL    HW158464   4.601   7.154   7.114  0.5266 -0.2684  0.2611
15580SOL    HW258465   4.507   7.250   7.185 -0.0443 -0.5454 -0.1146
15581SOL     OW58466   8.147   1.260   2.894 -0.0255 -0.3792 -0.1870
15581SOL    HW158467   8.168   1.239   2.803 -0.0930 -2.5760  0.2612
15581SOL    HW258468   8.225   1.235   2.943 -0.1522  0.3974  0.4224
15582SOL     OW58469  10.166   5.029   0.223  0.2376 -0.5096  0.0016
15582SOL    HW158470  10.093   5.072   0.178  0.6389 -2.1671 -2.4160
15582SOL    HW258471  10.232   5.097   0.230 -0.4496  0.2251 -0.4505
15583SOL     OW58472   2.361   4.070   9.055 -0.1652  0.0157 -0.2984
15583SOL    HW158473   2.367   4.092   9.148  0.8382  0.1050 -0.3758
15583SOL    HW258474   2.292   4.128   9.021  0.0787  0.6090  0.2074
15584SOL     OW58475  11.154   0.788   2.936 -0.0165  0.6860  0.2511
15584SOL    HW158476  11.203   0.866   2.963 -0.4636  1.1670 -0.3090
15584SOL    HW258477  11.159   0.788   2.841 -0.6710  0.4523  0.2131
15585SOL     OW58478   9.851   2.640  10.113 -0.0176 -0.1187  0.1674
15585SOL    HW158479   9.789   2.570  10.092  0.3682 -1.0941  2.1125
15585SOL    HW258480   9.827   2.711  10.054 -2.1604 -0.9288 -0.0244
15586SOL     OW58481   9.734   8.974   7.092 -0.4697  0.0449 -0.2217
15586SOL    HW158482   9.709   9.052   7.142 -1.2062 -0.5556  0.3713
15586SOL    HW258483   9.796   8.929   7.150 -1.3884 -0.6946  0.2058
15587SOL     OW58484   1.633   6.940   0.243 -0.1533 -0.4966 -0.3167
15587SOL    HW158485   1.586   6.954   0.326  0.4189  0.7492 -0.1755
15587SOL    HW258486   1.584   6.871   0.199 -0.3482 -1.3392  1.1507
15588SOL     OW58487   4.372   0.219   9.967 -0.2929 -0.3256 -0.2235
15588SOL    HW158488   4.345   0.310   9.964  1.4791  0.2363  0.0477
15588SOL    HW258489   4.370   0.190   9.876  1.9389  0.8859 -0.7299
15589SOL     OW58490  11.251   0.660   3.188 -0.3300 -0.2171  0.1860
15589SOL    HW158491  11.206   0.617   3.261 -0.6105  1.4226  1.0156
15589SOL    HW258492  11.182   0.677   3.124 -0.0650 -1.7613 -0.5757
15590SOL     OW58493  10.912   5.436  10.893 -0.4371  0.2445  0.0254
15590SOL    HW158494  10.924   5.481  10.977 -2.1435 -0.6037  0.7877
15590SOL    HW258495  10.992   5.453  10.845  0.1549  1.6672  1.4052
15591SOL     OW58496   5.679   4.567   9.316  0.3429  0.0014  0.5664
15591SOL    HW158497   5.631   4.575   9.234  0.4824  0.5639  0.5362
15591SOL    HW258498   5.736   4.491   9.303 -0.2237 -0.4053  0.4478
15592SOL     OW58499   1.495   0.793   3.690 -0.4982  0.2603 -0.5821
15592SOL    HW158500   1.517   0.881   3.658  0.8340  0.1548 -0.0520
15592SOL    HW258501   1.424   0.808   3.753  4.7139  2.4231  6.0475
15593SOL     OW58502   0.626   5.308   8.189  0.3017 -0.1232 -0.7799
15593SOL    HW158503   0.700   5.248   8.196 -0.0366 -0.4093  0.6490
15593SOL    HW258504   0.549   5.253   8.208 -0.0127  0.7486  0.5657
15594SOL     OW58505   3.780   9.286   6.696 -0.0305 -0.5939  0.2508
15594SOL    HW158506   3.725   9.243   6.761 -1.5191  0.5081 -0.2093
15594SOL    HW258507   3.754   9.247   6.613 -0.4873  0.2735 -0.0245
15595SOL     OW58508   5.526   7.761   3.462  0.1184  0.1399  0.2958
15595SOL    HW158509   5.596   7.729   3.405  0.2955 -0.5602  0.8910
15595SOL    HW258510   5.546   7.854   3.474 -0.2421  0.4465 -1.2307
15596SOL     OW58511  10.613   4.890  11.753  0.0139 -0.1285  0.2505
15596SOL    HW158512  10.577   4.979  11.759  1.4434  0.3966  1.4622
15596SOL    HW258513  10.702   4.902  11.721 -0.0496 -1.2054 -0.3590
15597SOL     OW58514   2.712   0.989   0.349 -0.1812 -0.7362 -0.2843
15597SOL    HW158515   2.735   0.904   0.387 -1.1046 -0.6494  0.4936
15597SOL    HW258516   2.760   1.053   0.402  0.0906 -0.7241 -0.5358
15598SOL     OW58517   3.278   1.485   2.113 -0.1231 -0.4144  0.1655
15598SOL    HW158518   3.216   1.499   2.041  0.1315 -2.0189 -0.3997
15598SOL    HW258519   3.323   1.569   2.122 -1.2443  0.2932 -0.4826
15599SOL     OW58520  10.376   8.452   4.900 -0.0506  0.3116  0.6935
15599SOL    HW158521  10.300   8.502   4.869 -0.2137 -0.4631 -0.1742
15599SOL    HW258522  10.437   8.454   4.827 -0.3979 -1.4472  0.3032
15600SOL     OW58523   6.762   2.715   5.304 -0.3821 -0.0652  0.3239
15600SOL    HW158524   6.853   2.702   5.275 -0.3896  0.5896 -0.0097
15600SOL    HW258525   6.717   2.748   5.226 -1.2502 -1.7292  0.0628
15601SOL     OW58526   7.574  10.500  10.123  0.1622 -0.0768 -0.0407
15601SOL    HW158527   7.580  10.407  10.143  1.5832 -0.4435 -1.8856
15601SOL    HW258528   7.588  10.505  10.029  0.7308  2.0489  0.1072
15602SOL     OW58529  11.333   5.387   5.821  0.0319 -0.3272 -0.1661
15602SOL    HW158530  11.305   5.361   5.909  0.6563  0.8248  0.3897
15602SOL    HW258531  11.387   5.465   5.835 -1.0326  0.7417 -1.6738
15603SOL     OW58532   4.233  10.672   3.161 -0.0165  0.4387 -0.9030
15603SOL    HW158533   4.254  10.629   3.244  2.6508  0.0756 -1.6735
15603SOL    HW258534   4.283  10.623   3.095 -1.8509  0.8838 -2.7101
15604SOL     OW58535  10.578   7.255   6.199  0.0066 -0.8503 -0.0153
15604SOL    HW158536  10.585   7.222   6.289 -0.6258 -0.3052  0.2473
15604SOL    HW258537  10.535   7.340   6.209 -0.1728 -0.8413 -0.8465
15605SOL     OW58538   5.783  10.937   0.189  0.4052  0.2231  0.8555
15605SOL    HW158539   5.852  10.909   0.130  0.7825 -0.8019  1.7668
15605SOL    HW258540   5.742  11.012   0.144  0.1943 -0.9612 -1.0454
15606SOL     OW58541   4.626   4.886  10.329 -0.2274 -0.1935  0.3312
15606SOL    HW158542   4.709   4.932  10.317 -0.0009 -0.9966 -1.4310
15606SOL    HW258543   4.648   4.794  10.317 -0.8015 -0.7766  3.1538
15607SOL     OW58544   5.532   8.218  11.384  0.2359  0.0470 -0.7897
15607SOL    HW158545   5.494   8.276  11.450  0.5208 -0.4666 -0.1514
15607SOL    HW258546   5.608   8.266  11.351  0.4921  0.0305 -0.2393
15608SOL     OW58547   5.397   5.989  10.119  0.2529  0.0807  0.2507
15608SOL    HW158548   5.401   6.077  10.157 -1.7962 -0.0352  0.8712
15608SOL    HW258549   5.304   5.976  10.100  0.7867 -1.1181 -1.8957
15609SOL     OW58550   8.333   6.580   2.511  0.3636  0.0499 -0.3074
15609SOL    HW158551   8.321   6.489   2.482 -0.5758  0.4959 -1.3872
15609SOL    HW258552   8.246   6.619   2.507  0.6782  0.8921  0.5796
15610SOL     OW58553   7.754  10.958   6.407 -0.0976 -0.3853 -0.0790
15610SOL    HW158554   7.805  11.004   6.472  0.0893 -1.2258  0.3860
15610SOL    HW258555   7.819  10.919   6.348 -0.2700  1.1279 -1.3460
15611SOL     OW58556   2.615   1.447  10.207 -0.6788  0.3594  0.2246
15611SOL    HW158557   2.541   1.506  10.199 -0.2869  1.0685  1.4883
15611SOL    HW258558   2.687   1.503  10.238  0.3275 -0.3450 -0.7571
15612SOL     OW58559   0.889   2.807   0.864 -0.4591  0.4076  0.3905
15612SOL    HW158560   0.931   2.858   0.933  1.2797  0.6845 -0.8040
15612SOL    HW258561   0.874   2.721   0.904  1.1634  0.3389  0.9417
15613SOL     OW58562   4.542   8.397   1.509 -0.3500 -0.3684  0.4358
15613SOL    HW158563   4.583   8.310   1.506  2.6456  0.8668  1.7164
15613SOL    HW258564   4.565   8.438   1.426  0.5838  0.1348  0.9326
15614SOL     OW58565   9.464   7.479   6.980  0.2743 -0.0807  0.6474
15614SOL    HW158566   9.525   7.432   6.923  2.3269  1.0037  1.8508
15614SOL    HW258567   9.430   7.550   6.925 -0.9664 -1.4443 -0.4246
15615SOL     OW58568   2.600   7.994   4.599  0.0697 -0.5372 -0.5312
15615SOL    HW158569   2.591   7.984   4.504  1.5820 -1.3064 -0.6179
15615SOL    HW258570   2.684   8.038   4.610 -0.0063 -0.6328  0.4731
15616SOL     OW58571   4.973   5.513   1.986 -0.1873 -0.3613 -0.3302
15616SOL    HW158572   5.043   5.567   1.951 -0.8378  0.1443 -0.8867
15616SOL    HW258573   5.007   5.479   2.069  0.1617  1.0771  0.1458
15617SOL     OW58574   4.720   3.916   8.104  0.4555 -0.1655  0.0633
15617SOL    HW158575   4.800   3.911   8.052 -1.3714 -1.7083 -2.8608
15617SOL    HW258576   4.661   3.972   8.053 -0.4496  0.7781  2.0381
15618SOL     OW58577   4.095  10.224   2.327  0.8668 -0.0642  0.0289
15618SOL    HW158578   4.100  10.207   2.233 -0.5236 -1.2959  0.1540
15618SOL    HW258579   4.184  10.208   2.359  0.9111 -1.5949 -0.7850
15619SOL     OW58580  10.433   6.253   9.131 -0.3370 -0.4039  0.3873
15619SOL    HW158581  10.523   6.222   9.127 -0.0053  0.5039  0.4639
15619SOL    HW258582  10.440   6.347   9.112 -0.9975  0.1556  2.6535
15620SOL     OW58583  10.391  11.574   5.929 -0.4348  0.3909 -0.0801
15620SOL    HW158584  10.414  11.664   5.952  1.1572  0.1018 -0.4498
15620SOL    HW258585  10.475  11.529   5.919 -1.2066 -1.2204  0.3806
15621SOL     OW58586   4.544   2.911  10.888 -0.7961 -0.3030 -0.4117
15621SOL    HW158587   4.488   2.907  10.965 -1.4055 -1.2655 -0.8969
15621SOL    HW258588   4.484   2.912  10.813 -0.2559  1.6777 -0.8848
15622SOL     OW58589   1.418   7.349   8.090 -0.0287 -0.1554  0.0537
15622SOL    HW158590   1.507   7.320   8.109  0.5177  1.5008  0.1955
15622SOL    HW258591   1.422   7.381   8.000 -0.7433 -0.9769 -0.2855
15623SOL     OW58592   8.421   2.573   9.684 -0.3115 -0.1468 -0.3792
15623SOL    HW158593   8.339   2.572   9.635  0.0107  1.8299 -1.0877
15623SOL    HW258594   8.398   2.608   9.770 -0.2356  0.3122 -0.5435
15624SOL     OW58595   9.620   6.280   4.296 -0.1911 -0.5056  0.7717
15624SOL    HW158596   9.540   6.261   4.247  0.2609  0.0277 -0.2206
15624SOL    HW258597   9.674   6.328   4.234  0.3869  0.2602  1.8375
15625SOL     OW58598   5.100   3.483   8.702 -0.4355 -0.1455  0.2258
15625SOL    HW158599   5.110   3.556   8.763  1.4919 -1.0100  1.0394
15625SOL    HW258600   5.066   3.523   8.622  0.7157  1.6803  0.5880
15626SOL     OW58601   8.816   7.662   7.555 -0.4688  0.3206  0.5363
15626SOL    HW158602   8.877   7.729   7.524  1.4326 -1.2470  0.6153
15626SOL    HW258603   8.777   7.700   7.634  1.3989  0.9607  1.2204
15627SOL     OW58604   5.645   7.032   2.392  0.6632 -0.3620 -0.3987
15627SOL    HW158605   5.651   7.013   2.299 -1.2913  0.3625 -0.7121
15627SOL    HW258606   5.576   7.097   2.400  1.5460  0.4452  1.4630
15628SOL     OW58607  10.914   1.887   1.982  0.4651  0.8295 -0.4335
15628SOL    HW158608  10.869   1.808   2.011  1.4795  0.2227 -0.4594
15628SOL    HW258609  10.896   1.951   2.051  1.1495  0.0106  0.5493
15629SOL     OW58610   7.261   8.643   6.753 -0.3416  0.3094 -0.1789
15629SOL    HW158611   7.327   8.685   6.808 -1.5463  1.3604  0.5227
15629SOL    HW258612   7.220   8.578   6.809 -0.8817  0.6770 -0.1387
15630SOL     OW58613   7.773   1.088   2.195  0.6019  0.0561 -0.5055
15630SOL    HW158614   7.803   1.179   2.193  0.6128  0.2481  2.7950
15630SOL    HW258615   7.680   1.095   2.219  0.2513 -0.7815 -1.5955
15631SOL     OW58616   7.391   0.293  10.763 -0.0198  0.5992  0.0635
15631SOL    HW158617   7.330   0.252  10.702  0.7510 -0.8401  0.2127
15631SOL    HW258618   7.477   0.282  10.722  0.4769 -0.1027  1.2364
15632SOL     OW58619   8.930   4.339   6.605 -0.4369 -0.6036 -0.3656
15632SOL    HW158620   8.888   4.425   6.610  0.7767  0.0136 -0.5103
15632SOL    HW258621   8.985   4.335   6.684  2.8103  0.5695 -2.3738
15633SOL     OW58622   3.928   1.732   5.769 -0.2699 -0.3718 -0.2915
15633SOL    HW158623   3.988   1.806   5.766 -0.6932  0.0996  1.7054
15633SOL    HW258624   3.980   1.659   5.801 -0.4048 -0.3421 -0.0027
15634SOL     OW58625   2.090  11.564   6.701 -0.4654  0.0165  0.5315
15634SOL    HW158626   2.049  11.632   6.647 -1.8170  0.2490  1.8072
15634SOL    HW258627   2.135  11.612   6.770 -0.7275 -0.3599  0.9648
15635SOL     OW58628   9.338   4.253   7.970  0.3711 -0.1082  0.1680
15635SOL    HW158629   9.256   4.301   7.960 -0.3996 -1.4851 -0.3322
15635SOL    HW258630   9.319   4.186   8.035  1.0745 -0.5238 -0.0389
15636SOL     OW58631   4.505   4.044   5.601 -0.0957 -0.2728  0.2019
15636SOL    HW158632   4.582   4.088   5.565  1.6888 -0.8193  3.0731
15636SOL    HW258633   4.533   3.954   5.617 -1.7380 -0.8299  0.1454
15637SOL     OW58634   5.909   2.654   1.920 -0.3451  0.6149  0.3797
15637SOL    HW158635   6.000   2.635   1.895 -0.1821  1.2005  0.5137
15637SOL    HW258636   5.904   2.630   2.013 -0.5322 -0.1129  0.1865
15638SOL     OW58637   1.221   4.486   7.343 -0.0710 -0.3405  0.1230
15638SOL    HW158638   1.150   4.503   7.282  0.1328 -0.6161 -0.1956
15638SOL    HW258639   1.186   4.421   7.403 -1.1364  1.6960  1.8445
15639SOL     OW58640   5.583   4.860   8.921  0.4207  0.3391  0.0417
15639SOL    HW158641   5.536   4.862   8.838  0.1882 -1.5702  0.0972
15639SOL    HW258642   5.668   4.898   8.901  0.3539 -0.0607 -1.0713
15640SOL     OW58643   4.691   1.815   4.219  0.7961 -0.2988  0.3163
15640SOL    HW158644   4.696   1.720   4.224 -3.3440 -0.7790 -1.2369
15640SOL    HW258645   4.615   1.839   4.272 -0.0990  1.7523 -1.7127
15641SOL     OW58646   0.525   0.239   9.895 -0.0507  0.4108 -0.2024
15641SOL    HW158647   0.497   0.331   9.895  0.7919  0.6725 -0.8262
15641SOL    HW258648   0.447   0.191   9.922 -0.3054  1.3650  0.8012
15642SOL     OW58649   0.165   2.473   8.796  0.4130 -0.5398 -0.0768
15642SOL    HW158650   0.115   2.392   8.783 -1.0344 -0.0705  2.0717
15642SOL    HW258651   0.155   2.521   8.714 -1.4460 -1.1359 -0.2472
15643SOL     OW58652   5.113   0.744  11.039 -0.0330  0.3120  0.2985
15643SOL    HW158653   5.112   0.649  11.045 -1.3818  0.2782  0.0044
15643SOL    HW258654   5.109   0.763  10.945  5.1225  0.7444 -0.0736
15644SOL     OW58655   5.005   8.166   9.530 -0.0602 -0.2026  0.1829
15644SOL    HW158656   4.951   8.244   9.541  0.6951  0.5563 -1.1541
15644SOL    HW258657   5.078   8.179   9.591 -0.0531  0.0263  0.1276
15645SOL     OW58658   9.703   3.046  10.581  1.0166 -0.0035  0.0891
15645SOL    HW158659   9.735   2.994  10.508 -0.8281  1.2936 -1.7645
15645SOL    HW258660   9.698   3.136  10.547  0.5546  0.7430  1.9707
15646SOL     OW58661   3.214   7.920   4.696 -0.2222  0.0905  0.4170
15646SOL    HW158662   3.223   7.868   4.776  2.0900  0.1795  0.2961
15646SOL    HW258663   3.304   7.942   4.672 -0.9067  0.7917 -1.7521
15647SOL     OW58664  11.236   6.153   4.935 -0.0691 -0.2590  0.0825
15647SOL    HW158665  11.277   6.237   4.912  0.7791 -0.1652  1.7241
15647SOL    HW258666  11.214   6.162   5.028  0.7827 -2.1239  0.5139
15648SOL     OW58667   7.320   4.918   5.503 -0.4935  0.2037  0.2652
15648SOL    HW158668   7.237   4.965   5.501  0.3447  1.7367 -0.2496
15648SOL    HW258669   7.323   4.871   5.420 -0.7915  0.2248  0.2407
15649SOL     OW58670   7.686   6.568   5.658  0.3136 -0.0945  0.0033
15649SOL    HW158671   7.766   6.515   5.664 -0.0887 -0.6415  0.6293
15649SOL    HW258672   7.699   6.639   5.721  0.4955  0.0847 -0.2315
15650SOL     OW58673  11.313   4.230   4.248  0.4822  0.1404  0.2105
15650SOL    HW158674  11.230   4.237   4.201 -0.7880  0.5603  2.3790
15650SOL    HW258675  11.289   4.198   4.334  2.3755  1.6882  1.4078
15651SOL     OW58676   2.269   1.077   5.567  0.1869  0.0011 -0.2840
15651SOL    HW158677   2.239   1.084   5.658 -0.8010 -0.7685 -0.5250
15651SOL    HW258678   2.245   0.988   5.541  0.8565  0.0616 -1.1666
15652SOL     OW58679   9.519   0.245   0.844  0.0008  0.7123 -0.0009
15652SOL    HW158680   9.551   0.156   0.858  0.0945  0.8260  0.5313
15652SOL    HW258681   9.425   0.240   0.864 -0.0983  0.6141 -0.4988
15653SOL     OW58682   4.273   6.150   5.566 -0.2328 -0.7665  0.4912
15653SOL    HW158683   4.331   6.185   5.634 -0.7002 -0.1973  0.6043
15653SOL    HW258684   4.312   6.065   5.543  0.5111 -0.5013  0.7265
15654SOL     OW58685   0.064   8.402   5.348 -0.1551 -0.1543 -0.5168
15654SOL    HW158686   0.069   8.466   5.419  2.3409  1.9707 -2.4212
15654SOL    HW258687  -0.011   8.431   5.296  0.9990  1.3836 -1.4080
15655SOL     OW58688   6.054   0.368   2.870 -0.6293 -0.1406  0.0847
15655SOL    HW158689   5.992   0.409   2.931 -0.3150 -0.6020  0.7215
15655SOL    HW258690   6.020   0.280   2.857 -1.0255  0.1409 -0.8947
15656SOL     OW58691   7.251   6.473  11.678  0.1415  0.2718 -0.0846
15656SOL    HW158692   7.321   6.537  11.683  1.4349 -1.0122 -0.9202
15656SOL    HW258693   7.171   6.524  11.686  1.1344  1.9061 -0.1428
15657SOL     OW58694   0.342  10.358  10.050  0.0988 -0.5353  0.1344
15657SOL    HW158695   0.283  10.374  10.123 -0.6500 -1.9660 -0.1062
15657SOL    HW258696   0.429  10.381  10.082 -0.1779 -1.4296  1.5827
15658SOL     OW58697   1.305   1.117   1.694  0.1285  0.4649  0.0166
15658SOL    HW158698   1.301   1.067   1.612 -1.6568 -0.0023  0.3545
15658SOL    HW258699   1.379   1.079   1.741 -0.6109 -1.2768 -0.1395
15659SOL     OW58700   2.846  10.773  10.217 -0.8217  0.2817 -0.6604
15659SOL    HW158701   2.889  10.840  10.164 -1.2136  0.5938 -0.5878
15659SOL    HW258702   2.812  10.821  10.293  1.8488 -0.4967  1.1750
15660SOL     OW58703   7.318  10.770   0.173 -0.1471  0.1196  0.2282
15660SOL    HW158704   7.293  10.686   0.136 -1.2265 -0.1032  1.3937
15660SOL    HW258705   7.239  10.800   0.220  1.1068  0.3710  2.3054
15661SOL     OW58706   8.777   2.547   6.650  0.0549  0.0830 -0.1532
15661SOL    HW158707   8.844   2.553   6.582  0.6474 -0.4320  0.3588
15661SOL    HW258708   8.707   2.605   6.622 -0.2765 -1.0651 -1.8198
15662SOL     OW58709   1.517   3.473   2.511  0.2155 -0.0377 -0.0724
15662SOL    HW158710   1.499   3.538   2.443 -0.5769 -0.9330 -0.7476
15662SOL    HW258711   1.436   3.422   2.518  0.4327 -0.2362  1.2433
15663SOL     OW58712   2.085   8.654   2.690 -0.4842 -0.1490  0.4154
15663SOL    HW158713   2.029   8.726   2.659 -0.9935 -0.6974  0.0514
15663SOL    HW258714   2.029   8.577   2.687  0.5970 -0.9117 -0.9893
15664SOL     OW58715   3.392   2.958   9.292  0.0532 -0.3850  0.1862
15664SOL    HW158716   3.419   2.879   9.340  0.6922 -0.6223 -0.5464
15664SOL    HW258717   3.468   3.016   9.298 -0.9285  0.7908  1.9663
15665SOL     OW58718   1.546   7.819   5.001 -0.1503  0.2545 -0.4963
15665SOL    HW158719   1.550   7.895   4.943 -0.3148  1.3086  0.8417
15665SOL    HW258720   1.519   7.747   4.943  2.4447  0.6132 -2.3377
15666SOL     OW58721   9.113  11.905   2.595 -0.4431  0.2593  0.5121
15666SOL    HW158722   9.154  11.901   2.682  0.1891  1.0702  0.2725
15666SOL    HW258723   9.019  11.909   2.613 -0.3736 -0.5235  1.1167
15667SOL     OW58724   3.153   8.787   1.249 -0.1304 -0.2162  0.3406
15667SOL    HW158725   3.128   8.867   1.296 -0.1159  0.3344 -0.5747
15667SOL    HW258726   3.080   8.772   1.188 -0.0837 -0.8466  0.4429
15668SOL     OW58727   0.833   1.079   3.275 -0.0309  0.6336 -0.3115
15668SOL    HW158728   0.919   1.115   3.299  0.4863 -0.2664 -0.7615
15668SOL    HW258729   0.837   1.068   3.180 -0.1363 -0.6580 -0.1876
15669SOL     OW58730   2.359   9.041   7.208 -0.4479 -0.7663  0.6945
15669SOL    HW158731   2.396   8.984   7.275  1.3354  1.1817  1.4952
15669SOL    HW258732   2.378   9.129   7.238 -0.5675  0.2259 -1.8455
15670SOL     OW58733   2.643   7.962   6.730 -0.1930 -0.3374  0.7655
15670SOL    HW158734   2.581   7.904   6.774  0.0594 -0.5191  0.8887
15670SOL    HW258735   2.599   7.989   6.650 -0.5650 -0.1932  1.0173
15671SOL     OW58736   1.846  10.942   5.851  0.3611  0.3903 -0.0935
15671SOL    HW158737   1.909  10.990   5.797 -0.1265  0.4957 -0.5788
15671SOL    HW258738   1.873  10.960   5.941  1.3096  0.0380 -0.3016
15672SOL     OW58739   5.499   0.812   0.670 -0.2689  0.5254  0.5179
15672SOL    HW158740   5.465   0.723   0.665  0.1444  0.4365 -1.1837
15672SOL    HW258741   5.460   0.857   0.594  0.4007  1.4854  0.7242
15673SOL     OW58742   8.176  11.075   9.613 -0.7378 -0.0294  0.1619
15673SOL    HW158743   8.166  11.106   9.703 -0.1510  0.7467 -0.0342
15673SOL    HW258744   8.094  11.098   9.570 -0.4247  1.0304  0.0969
15674SOL     OW58745  10.746   9.521   7.976 -0.3411  0.0004 -0.5267
15674SOL    HW158746  10.753   9.435   8.017  1.9299  0.6292  0.5300
15674SOL    HW258747  10.662   9.555   8.006  0.4072 -0.3227  2.1910
15675SOL     OW58748   8.768  10.920   5.850  0.0313  0.2291  0.0883
15675SOL    HW158749   8.729  10.833   5.856  1.0143 -0.1878  0.7037
15675SOL    HW258750   8.701  10.974   5.808 -0.5209 -0.8659 -0.4795
15676SOL     OW58751   3.000   9.409   2.216  0.7294 -0.1700 -0.3169
15676SOL    HW158752   2.960   9.444   2.136 -0.4083  1.5903  0.9601
15676SOL    HW258753   2.930   9.359   2.258  1.6832 -2.1777 -0.9647
15677SOL     OW58754   6.317   0.685   3.420  0.4048  0.2973  0.1453
15677SOL    HW158755   6.285   0.607   3.374 -0.4476 -0.0639  1.3076
15677SOL    HW258756   6.335   0.655   3.509  0.0600  1.4148  0.6077
15678SOL     OW58757   6.035   1.411   3.232  0.1637 -0.4585 -0.6735
15678SOL    HW158758   5.990   1.336   3.194 -0.8483  0.3287 -1.0738
15678SOL    HW258759   5.981   1.486   3.208  1.5435  0.4906 -0.9265
15679SOL     OW58760   8.015   8.856   3.910 -0.0951 -0.2222  0.1253
15679SOL    HW158761   8.082   8.845   3.843 -0.0481  0.3722  0.0695
15679SOL    HW258762   7.954   8.921   3.874  0.5685  1.0061  1.1157
15680SOL     OW58763   8.168   3.786   3.745  0.2012 -0.4066  0.0386
15680SOL    HW158764   8.221   3.853   3.787 -0.4120 -0.3870  0.8133
15680SOL    HW258765   8.182   3.708   3.798  1.0816 -0.9772 -0.9815
15681SOL     OW58766  11.636   0.918   2.785  0.5383 -0.0826 -0.1466
15681SOL    HW158767  11.601   0.832   2.761 -0.8989  0.6231 -0.7068
15681SOL    HW258768  11.676   0.950   2.704 -0.8274  0.6487 -0.5591
15682SOL     OW58769   5.976  11.460   2.218 -0.6542  0.6702 -0.1391
15682SOL    HW158770   5.929  11.496   2.293 -0.0168 -2.1598  1.7706
15682SOL    HW258771   5.911  11.409   2.171 -0.5686  0.7316 -0.3252
15683SOL     OW58772   9.560  11.185   0.805  0.9227 -0.1448 -0.0991
15683SOL    HW158773   9.467  11.198   0.825  1.0472  1.2034 -0.2874
15683SOL    HW258774   9.561  11.132   0.725  0.3796 -2.5528  1.3758
15684SOL     OW58775   6.277   5.698   6.911  0.3467  0.0262 -0.3739
15684SOL    HW158776   6.351   5.657   6.956 -0.3546 -0.9160 -0.0545
15684SOL    HW258777   6.210   5.708   6.978  0.6594  2.2041 -0.3132
15685SOL     OW58778   9.241   9.274   2.063 -0.1755 -0.1995 -0.2523
15685SOL    HW158779   9.335   9.277   2.084 -0.4685 -0.9153  1.3028
15685SOL    HW258780   9.237   9.226   1.980  0.7839 -1.0465  0.1627
15686SOL     OW58781   6.804   4.533   8.848  0.2514  0.1513  0.4904
15686SOL    HW158782   6.746   4.459   8.833 -0.7784  1.0456 -0.0964
15686SOL    HW258783   6.892   4.495   8.849  0.2926 -0.5475 -4.6257
15687SOL     OW58784   6.173   2.880  10.754 -0.3382  0.1838 -0.5484
15687SOL    HW158785   6.118   2.943  10.708 -1.2520  1.7219  2.3836
15687SOL    HW258786   6.145   2.794  10.721 -1.4619  1.1403 -2.2092
15688SOL     OW58787   4.664   6.185   2.697 -0.1718 -0.2247  0.0367
15688SOL    HW158788   4.714   6.214   2.621  0.0170 -1.6776 -0.4200
15688SOL    HW258789   4.573   6.199   2.673 -0.0613  1.3746  0.4320
15689SOL     OW58790   3.385  11.849   3.725  0.4711 -0.0207 -0.1630
15689SOL    HW158791   3.352  11.784   3.787  0.1233  0.9467  0.6942
15689SOL    HW258792   3.306  11.887   3.686  0.6252  0.8861  0.3964
15690SOL     OW58793   2.223  11.649   1.247 -0.6045  0.0567  0.2914
15690SOL    HW158794   2.316  11.669   1.233 -0.8291  0.6005 -0.5578
15690SOL    HW258795   2.179  11.696   1.176 -1.4911 -0.5475  0.4374
15691SOL     OW58796   3.065   8.758   2.268 -0.1440 -0.0464 -0.6227
15691SOL    HW158797   3.157   8.759   2.296 -0.5515  0.3234  0.7472
15691SOL    HW258798   3.069   8.728   2.177  1.5140  2.0534 -1.3153
15692SOL     OW58799   0.759   0.742   2.432 -0.1127 -0.1271  0.1155
15692SOL    HW158800   0.819   0.802   2.387 -1.0080 -0.7533 -2.0001
15692SOL    HW258801   0.781   0.655   2.398 -0.7846 -0.6475  0.9601
15693SOL     OW58802   0.115   7.904   4.691  0.1967 -0.5003 -0.2853
15693SOL    HW158803   0.086   7.814   4.679  0.7650 -0.9342  1.3149
15693SOL    HW258804   0.091   7.925   4.781  2.3761  0.0084  0.2385
15694SOL     OW58805   2.540   8.491   2.106 -0.4990  0.6582  0.1969
15694SOL    HW158806   2.495   8.442   2.175  0.9491 -1.2298 -0.1260
15694SOL    HW258807   2.469   8.524   2.050 -1.5750 -0.3936  0.8846
15695SOL     OW58808   6.479   0.037   0.039  0.0477  0.1827  0.7029
15695SOL    HW158809   6.440   0.049  -0.047  0.8324  0.4839  0.3806
15695SOL    HW258810   6.573   0.026   0.022  0.0316 -1.3366  1.3836
15696SOL     OW58811   2.723   1.463   8.094 -0.2450  0.1129  0.6567
15696SOL    HW158812   2.722   1.425   8.006 -0.4431 -0.4912  0.9132
15696SOL    HW258813   2.694   1.392   8.151  1.4576 -0.0262  1.4206
15697SOL     OW58814   3.992   1.384   8.759  0.0895 -0.6483  0.1351
15697SOL    HW158815   3.950   1.354   8.840  0.6728 -1.1171  0.2721
15697SOL    HW258816   3.979   1.479   8.759 -0.3920 -0.7092  0.5014
15698SOL     OW58817   6.816  11.411   7.129  0.4115 -0.2514 -0.5926
15698SOL    HW158818   6.724  11.389   7.120 -0.5257  2.8842  0.0107
15698SOL    HW258819   6.855  11.336   7.175 -2.4391 -0.5487  1.5846
15699SOL     OW58820   2.540  10.163   9.954  0.3919 -0.2187  0.1134
15699SOL    HW158821   2.561  10.167  10.047  0.5172 -0.0173  0.0761
15699SOL    HW258822   2.492  10.081   9.944 -0.3057  0.1365  0.4840
15700SOL     OW58823   6.522   7.994   4.413  0.1909  0.1272  0.1622
15700SOL    HW158824   6.532   7.929   4.483 -0.2019 -1.2273 -1.0123
15700SOL    HW258825   6.556   7.951   4.335 -0.7119  1.0719 -0.7830
15701SOL     OW58826   5.300   2.653   9.284 -0.2716  0.1128  0.0120
15701SOL    HW158827   5.229   2.708   9.317 -0.6952  0.0054 -0.6821
15701SOL    HW258828   5.283   2.647   9.190  0.3162 -0.4137 -0.0664
15702SOL     OW58829   9.819   0.742   5.436 -0.0319  0.7353  0.1846
15702SOL    HW158830   9.748   0.804   5.419 -0.7180 -0.0204  0.2053
15702SOL    HW258831   9.851   0.719   5.348 -1.6182 -0.9378 -0.0193
15703SOL     OW58832   2.497  10.050   7.120 -0.3978 -0.1514 -0.1868
15703SOL    HW158833   2.510  10.042   7.026  3.1072 -0.0983  0.1501
15703SOL    HW258834   2.536   9.970   7.156  0.2846  0.8173  1.2940
15704SOL     OW58835  11.438   2.050   7.739  0.2898 -0.7227 -0.0685
15704SOL    HW158836  11.379   1.984   7.776 -1.4343  0.6604 -0.2513
15704SOL    HW258837  11.446   2.026   7.647 -0.1928 -0.7617 -0.0998
15705SOL     OW58838   0.962   1.574   2.079  0.1815  0.1970 -0.1213
15705SOL    HW158839   0.934   1.663   2.097  1.1578  0.5021 -0.0847
15705SOL    HW258840   0.972   1.534   2.166  0.1725  0.1778 -0.1290
15706SOL     OW58841   8.275   1.613   6.933 -0.2579 -0.1491  0.0024
15706SOL    HW158842   8.313   1.700   6.915 -0.3905  0.4585  2.3043
15706SOL    HW258843   8.184   1.631   6.955  0.1013 -0.5973  2.1066
15707SOL     OW58844   0.380   6.224   3.401 -0.1487 -0.4023 -0.2060
15707SOL    HW158845   0.413   6.156   3.344 -0.5726 -0.9173  0.1524
15707SOL    HW258846   0.434   6.217   3.480 -0.2483 -0.3782 -0.1357
15708SOL     OW58847   7.023   4.112   3.647  0.1788 -0.4652 -0.3683
15708SOL    HW158848   7.016   4.019   3.625 -3.0210 -1.3748  3.2776
15708SOL    HW258849   6.932   4.142   3.649  0.7591  1.5085  2.7180
15709SOL     OW58850   2.725   5.948   1.892  0.2072 -0.4388 -0.0674
15709SOL    HW158851   2.652   5.925   1.833  1.4731  0.2977 -2.0168
15709SOL    HW258852   2.738   6.042   1.879  1.1641 -0.4587  0.6644
15710SOL     OW58853   4.764   9.870   1.016  0.4716  0.8580  0.4288
15710SOL    HW158854   4.720   9.935   0.961  0.8365  0.1857 -0.6912
15710SOL    HW258855   4.693   9.813   1.047  0.2715  1.1942  0.5867
15711SOL     OW58856   0.273  11.759   7.313  1.1362 -0.8036  0.0857
15711SOL    HW158857   0.231  11.673   7.319  2.0582 -1.3557 -0.8875
15711SOL    HW258858   0.241  11.795   7.230  0.0599  0.2024  0.9083
15712SOL     OW58859   5.715   7.300   0.360 -0.1399  0.2880  0.3603
15712SOL    HW158860   5.763   7.304   0.443 -0.0993  0.0093  0.3514
15712SOL    HW258861   5.729   7.386   0.321  2.9013 -0.7090 -1.0582
15713SOL     OW58862   5.103   5.606   1.313  0.6012 -0.3275  0.6763
15713SOL    HW158863   5.135   5.518   1.331  1.1381  0.1637  2.3256
15713SOL    HW258864   5.060   5.633   1.394  1.3055  1.2781  0.5593
15714SOL     OW58865   7.244   0.146   0.077  0.1389 -0.4285  0.2320
15714SOL    HW158866   7.332   0.108   0.072  0.0063 -0.6883 -0.1793
15714SOL    HW258867   7.257   0.231   0.117  0.4913 -0.7526  0.8184
15715SOL     OW58868   9.371   8.820   4.803  0.3069 -0.5070 -0.2517
15715SOL    HW158869   9.401   8.824   4.712  0.5068  1.0381 -0.1445
15715SOL    HW258870   9.305   8.751   4.804 -1.2325  0.8328 -2.0357
15716SOL     OW58871   4.829   1.976   5.498 -0.3090 -0.2945 -0.1979
15716SOL    HW158872   4.829   2.035   5.423 -1.9247 -1.3166 -1.0546
15716SOL    HW258873   4.906   2.002   5.549  1.8133 -0.6327 -3.0123
15717SOL     OW58874  11.919   5.354  10.016  0.1090 -0.5747  0.2390
15717SOL    HW158875  11.922   5.438   9.969  3.2249 -0.0736  1.1148
15717SOL    HW258876  11.833   5.317   9.993 -0.5497  1.8996 -1.7912
15718SOL     OW58877   9.597   7.384   7.234 -0.5237  0.3067  0.1888
15718SOL    HW158878   9.524   7.413   7.179 -0.3566  0.3116 -0.0316
15718SOL    HW258879   9.566   7.303   7.275 -0.1391 -0.4779 -1.0158
15719SOL     OW58880   7.158   8.159   7.000  0.3057 -0.3126 -0.3291
15719SOL    HW158881   7.191   8.159   6.910 -0.8296  0.4186 -0.7622
15719SOL    HW258882   7.094   8.087   7.002 -1.5272  1.2321 -0.8467
15720SOL     OW58883   5.509   8.795  10.588 -0.2834 -0.4931  0.1849
15720SOL    HW158884   5.569   8.729  10.553  0.4280 -0.5731  1.4810
15720SOL    HW258885   5.445   8.809  10.518  1.3343 -0.2773 -1.3353
15721SOL     OW58886   0.983   0.345   2.308  0.4289 -0.0405  0.2001
15721SOL    HW158887   1.066   0.326   2.265  0.5583 -0.4156  0.6122
15721SOL    HW258888   0.972   0.439   2.299  0.3354 -0.1337 -0.8742
15722SOL     OW58889   0.208   5.006   8.153  0.2580 -0.3878 -0.0778
15722SOL    HW158890   0.202   4.960   8.069  2.0074 -1.9520  0.5701
15722SOL    HW258891   0.163   4.948   8.215 -1.8688  1.2085 -0.0315
15723SOL     OW58892   0.279  11.872  10.564  0.3557  0.0981  0.5686
15723SOL    HW158893   0.267  11.847  10.656  0.3980 -0.9523  0.2995
15723SOL    HW258894   0.238  11.958  10.557 -0.3128 -0.1400  1.4078
15724SOL     OW58895   6.124   7.539   2.256  0.3230 -0.3601  0.5316
15724SOL    HW158896   6.105   7.454   2.297  0.3986 -0.4994  0.2771
15724SOL    HW258897   6.038   7.572   2.229  0.3183 -0.4622  0.4206
15725SOL     OW58898   3.573   9.295  11.361  0.4424  0.2392 -0.3480
15725SOL    HW158899   3.547   9.384  11.385 -2.0305 -0.6333  0.5156
15725SOL    HW258900   3.539   9.240  11.432  0.5411 -1.5687 -1.6353
15726SOL     OW58901   3.099   4.549  10.247 -0.3250  0.3608  0.0437
15726SOL    HW158902   3.121   4.456  10.257 -0.8808 -0.0742 -2.1705
15726SOL    HW258903   3.182   4.595  10.257  0.0794 -0.4287  0.4260
15727SOL     OW58904  10.942  11.800   8.120 -0.2641 -0.0106  0.4626
15727SOL    HW158905  10.979  11.756   8.043 -0.4073  0.5498  0.0719
15727SOL    HW258906  10.949  11.735   8.190  0.2410 -0.3831  0.0743
15728SOL     OW58907   2.832  10.909   0.210  0.2595 -0.3187 -0.0711
15728SOL    HW158908   2.893  10.876   0.276 -0.9313 -1.6279  0.4032
15728SOL    HW258909   2.745  10.887   0.244 -0.4032 -0.5163 -1.8089
15729SOL     OW58910   4.042   4.573   5.544 -0.1775  0.6602  1.1187
15729SOL    HW158911   4.052   4.496   5.600 -0.7224 -0.3128 -0.0797
15729SOL    HW258912   3.952   4.602   5.558  0.1632  1.3978  1.9216
15730SOL     OW58913   1.281   4.990   6.943  0.0537 -0.2354 -0.3544
15730SOL    HW158914   1.223   4.953   6.877  1.3160 -2.1022 -0.5208
15730SOL    HW258915   1.281   5.084   6.926 -2.0578 -0.2938 -0.9903
15731SOL     OW58916   2.713   8.731   2.679  1.0661 -0.0975  0.6210
15731SOL    HW158917   2.656   8.654   2.669 -1.1670  1.6432 -1.2206
15731SOL    HW258918   2.677   8.778   2.753  0.5751  0.5941 -0.0418
15732SOL     OW58919   0.743   9.282   5.875 -0.5481  0.1392  0.5996
15732SOL    HW158920   0.801   9.343   5.830 -0.0013 -0.2901  0.7203
15732SOL    HW258921   0.775   9.281   5.965  0.5546 -1.6317  0.2284
15733SOL     OW58922   5.728  10.814   5.144  0.2931  0.2689 -0.5657
15733SOL    HW158923   5.750  10.835   5.234 -0.6227  0.7496 -0.4522
15733SOL    HW258924   5.804  10.845   5.093 -1.0173  4.1998 -0.4457
15734SOL     OW58925   5.326   0.691   2.828  0.1573  0.2618 -0.1200
15734SOL    HW158926   5.318   0.763   2.765 -0.8300  0.4224  0.1729
15734SOL    HW258927   5.241   0.689   2.873  0.5903 -0.3286  0.6917
15735SOL     OW58928   8.741   2.743  11.807  0.5709  0.0245 -0.2049
15735SOL    HW158929   8.673   2.765  11.871 -0.0030  1.3711 -1.2298
15735SOL    HW258930   8.823   2.760  11.854  0.2741 -1.6992  1.0708
15736SOL     OW58931   5.559   7.220   5.848  0.5080  0.6944  0.0036
15736SOL    HW158932   5.536   7.127   5.856 -1.1107  1.0080 -0.6631
15736SOL    HW258933   5.565   7.251   5.939  2.9768 -0.4586  0.3072
15737SOL     OW58934   2.699  11.453   3.229 -0.3510 -0.0963  0.3522
15737SOL    HW158935   2.740  11.474   3.313 -0.8041  1.5193  0.1928
15737SOL    HW258936   2.761  11.395   3.186 -0.2493 -1.2254  1.9240
15738SOL     OW58937   2.828   9.053  10.680  0.2751  0.6229 -0.2667
15738SOL    HW158938   2.830   9.148  10.670 -0.0497  0.6400 -0.1823
15738SOL    HW258939   2.764   9.024  10.615  0.2024  0.4830 -0.1332
15739SOL     OW58940   3.901   7.440   9.774  0.5164 -0.5325 -0.0094
15739SOL    HW158941   3.979   7.465   9.822  1.2157 -0.2699 -1.2456
15739SOL    HW258942   3.830   7.447   9.838  0.8533  3.2353  0.1657
15740SOL     OW58943   4.514   4.957   7.170 -0.2990  0.5173  0.0988
15740SOL    HW158944   4.538   4.973   7.261  2.6653  1.4476 -0.7422
15740SOL    HW258945   4.442   5.017   7.153 -1.1320  0.0832  1.8971
15741SOL     OW58946   7.040   9.204   1.530  0.4684  0.4459 -0.2143
15741SOL    HW158947   7.074   9.291   1.508  0.1450  0.8926  0.9598
15741SOL    HW258948   7.001   9.215   1.617 -0.8669 -0.5304 -0.6465
15742SOL     OW58949   1.926   9.651   5.863 -0.6837 -0.6371  0.0886
15742SOL    HW158950   1.867   9.711   5.910 -2.1108 -2.5396  0.8312
15742SOL    HW258951   1.997   9.708   5.832 -1.7860  1.3796  1.0282
15743SOL     OW58952   1.268   0.826   4.167  0.2873 -0.2136 -0.0446
15743SOL    HW158953   1.267   0.904   4.112 -2.0152  0.6982  1.1823
15743SOL    HW258954   1.227   0.853   4.249 -2.3047 -3.0785 -0.1892
15744SOL     OW58955   3.554   2.121  10.536 -0.1303  0.1488  0.4990
15744SOL    HW158956   3.604   2.172  10.472  2.0959 -1.5225  0.7633
15744SOL    HW258957   3.471   2.103  10.493  0.9247 -0.0943 -1.5804
15745SOL     OW58958   2.644   5.287   0.049  0.0350  0.1677 -0.0715
15745SOL    HW158959   2.630   5.378   0.020  1.8455  0.6444  0.4401
15745SOL    HW258960   2.634   5.235  -0.031 -0.7882  0.8179 -0.4160
15746SOL     OW58961   3.240  11.490   3.326 -0.1739 -0.6540  0.1694
15746SOL    HW158962   3.278  11.487   3.238  0.0727 -0.0329  0.2460
15746SOL    HW258963   3.299  11.436   3.380  0.2677 -0.1925  0.1608
15747SOL     OW58964   9.906   9.892   5.659  0.2642 -0.4614 -0.4075
15747SOL    HW158965   9.974   9.837   5.698  0.0740  0.1189  0.7983
15747SOL    HW258966   9.869   9.940   5.733  0.9746  1.9382 -1.5160
15748SOL     OW58967   1.027   3.561  11.194 -0.3064  0.4706 -0.5987
15748SOL    HW158968   1.060   3.644  11.231 -0.6919  0.4050 -0.1013
15748SOL    HW258969   1.106   3.518  11.160 -0.1800  1.3068 -1.4037
15749SOL     OW58970   7.175   9.313  10.335  0.1216 -0.4302 -0.2523
15749SOL    HW158971   7.105   9.313  10.401 -1.2284 -2.1477 -1.5720
15749SOL    HW258972   7.247   9.265  10.376  0.0923  0.3401  0.7119
15750SOL     OW58973  11.011  10.823   8.636 -0.2649 -0.2057 -0.1151
15750SOL    HW158974  10.986  10.915   8.624  0.3384  0.0889  0.7792
15750SOL    HW258975  10.939  10.784   8.684 -1.2398 -0.6119 -1.8134
15751SOL     OW58976   6.058   2.723   3.857 -0.2649 -0.0452  0.2599
15751SOL    HW158977   5.973   2.759   3.830 -0.5792 -0.1068  1.1455
15751SOL    HW258978   6.037   2.635   3.890  0.2093 -0.2349  0.0562
15752SOL     OW58979   9.815  11.290   6.390  0.4617  0.3591  0.0735
15752SOL    HW158980   9.844  11.209   6.347 -0.3266  0.1740 -0.1136
15752SOL    HW258981   9.895  11.343   6.396  0.6040  0.3932 -1.6099
15753SOL     OW58982   8.963   0.173   1.629  0.2481 -0.1863  0.1712
15753SOL    HW158983   8.960   0.268   1.642 -1.2803 -0.4203  1.9019
15753SOL    HW258984   8.959   0.162   1.534  0.1614  1.4669 -0.0554
15754SOL     OW58985   1.084   6.793   8.642  0.4437  0.5567  0.1394
15754SOL    HW158986   1.097   6.712   8.593  1.1288  0.8512 -0.1868
15754SOL    HW258987   1.033   6.849   8.583 -0.9310  0.0136  0.7606
15755SOL     OW58988   1.684   5.728   0.072  0.0630 -0.4938 -0.0929
15755SOL    HW158989   1.711   5.802   0.018  0.3002 -0.9272 -0.5733
15755SOL    HW258990   1.589   5.737   0.081 -0.1285 -0.9884 -1.4424
15756SOL     OW58991   0.045   5.807   5.514 -0.1176  0.4142  0.5689
15756SOL    HW158992   0.022   5.753   5.439  0.2958  0.7976  0.1587
15756SOL    HW258993   0.001   5.766   5.588  0.3395 -0.5807  0.2957
15757SOL     OW58994   9.574   2.315  11.275  0.4455  0.3139  0.0303
15757SOL    HW158995   9.494   2.366  11.290  0.3729  0.5742 -1.1581
15757SOL    HW258996   9.645   2.378  11.287  0.4671  0.1723  0.7028
15758SOL     OW58997   8.875   0.857  11.888  0.0900  0.1834 -0.0046
15758SOL    HW158998   8.821   0.926  11.926 -0.9230 -0.2672 -0.5838
15758SOL    HW258999   8.836   0.775  11.920  1.7295 -0.1409  1.2903
15759SOL     OW59000   7.342  11.958   7.048 -0.1918 -0.9373 -0.8061
15759SOL    HW159001   7.311  12.041   7.014 -1.2474 -0.7481  0.5159
15759SOL    HW259002   7.416  11.934   6.992  2.3865  2.5503  0.7794
15760SOL     OW59003  10.252   0.676   2.208  0.4401 -0.0805  0.0578
15760SOL    HW159004  10.268   0.595   2.257  0.7462 -1.4373 -2.1683
15760SOL    HW259005  10.339   0.712   2.192  0.2619  1.4544  2.1233
15761SOL     OW59006   6.509   2.121  11.541 -0.8653  0.2840 -0.1405
15761SOL    HW159007   6.567   2.126  11.465 -0.9283  0.3477 -0.1848
15761SOL    HW259008   6.473   2.209  11.550 -1.5511  0.0521 -0.5819
15762SOL     OW59009   0.602   0.702   9.976  0.4244 -0.1450  0.1858
15762SOL    HW159010   0.583   0.795   9.963 -0.5137 -0.3902 -0.2550
15762SOL    HW259011   0.614   0.693  10.071  1.9889  0.6760  0.1084
15763SOL     OW59012   3.498   6.938   8.980 -0.5636 -0.0164 -0.4257
15763SOL    HW159013   3.425   6.987   8.942 -1.5442 -1.8656 -1.0762
15763SOL    HW259014   3.468   6.916   9.069  0.3876  1.5522  0.3203
15764SOL     OW59015   3.028   3.833   0.466 -0.3906 -0.3319  0.9566
15764SOL    HW159016   3.009   3.740   0.479 -1.5158  0.0873  2.5884
15764SOL    HW259017   3.124   3.837   0.463 -0.2388 -1.3520  2.7859
15765SOL     OW59018  10.146   4.449   9.928 -0.6101 -0.3669 -0.0037
15765SOL    HW159019  10.060   4.408   9.942 -0.6459 -0.5692 -0.7733
15765SOL    HW259020  10.206   4.375   9.919 -0.5497 -0.2364 -0.6480
15766SOL     OW59021   6.016   2.796   9.277  0.4266 -0.4206 -0.3897
15766SOL    HW159022   5.986   2.879   9.314 -0.0373 -0.4866 -0.6071
15766SOL    HW259023   6.111   2.797   9.288  0.5236  0.5508 -1.2200
15767SOL     OW59024   6.458  10.850  11.582 -0.3773  0.4024  0.4469
15767SOL    HW159025   6.459  10.945  11.593 -0.1781  0.3798  0.6428
15767SOL    HW259026   6.454  10.836  11.487 -0.3985  0.6065  0.4181
15768SOL     OW59027  10.070   2.478   7.408  0.4068 -0.2523  0.2655
15768SOL    HW159028   9.981   2.505   7.430  0.2600  2.8211 -3.0613
15768SOL    HW259029  10.061   2.387   7.380 -1.3660 -0.4808  1.4292
15769SOL     OW59030  11.448   7.606   3.035 -0.6292 -0.6576  0.1767
15769SOL    HW159031  11.439   7.530   2.978  0.3026  0.8443 -2.1659
15769SOL    HW259032  11.532   7.593   3.079 -1.5969 -2.0830  1.6897
15770SOL     OW59033  11.467   6.309   5.294 -0.1237 -0.6216  0.1016
15770SOL    HW159034  11.493   6.353   5.375 -0.8899 -0.4755  0.2774
15770SOL    HW259035  11.550   6.286   5.251  0.2853 -0.3179  0.7164
15771SOL     OW59036   0.706   2.596   4.752  0.0506 -0.9184 -0.2591
15771SOL    HW159037   0.622   2.601   4.706 -1.3117 -2.5249  1.8698
15771SOL    HW259038   0.743   2.684   4.744 -2.4435  0.2107 -0.1703
15772SOL     OW59039   2.101  11.713   6.036 -0.4031  0.4641 -0.0043
15772SOL    HW159040   2.030  11.650   6.028 -0.3561  0.4787 -0.5756
15772SOL    HW259041   2.154  11.700   5.957  1.6854 -1.3130  1.5795
15773SOL     OW59042   0.041  10.464   4.287  0.5777 -0.6115  0.4984
15773SOL    HW159043   0.015  10.394   4.347 -0.7393 -0.9973 -0.4862
15773SOL    HW259044   0.017  10.432   4.200 -2.7069  2.1330  0.2303
15774SOL     OW59045   4.696   8.674   4.588 -0.1740  0.1037  0.1572
15774SOL    HW159046   4.683   8.583   4.613  0.1183  0.0262  0.0265
15774SOL    HW259047   4.609   8.704   4.559 -0.1016 -0.3772 -0.5964
15775SOL     OW59048   7.512   8.094   2.548 -0.5145  0.0770  0.1999
15775SOL    HW159049   7.450   8.157   2.509 -0.4568  0.2376  0.3647
15775SOL    HW259050   7.594   8.143   2.556 -0.6247  0.1688  0.8643
15776SOL     OW59051   3.336   4.383  10.613  0.3283  0.0261 -0.3646
15776SOL    HW159052   3.427   4.392  10.585  0.4249 -2.1965 -0.9977
15776SOL    HW259053   3.288   4.363  10.533 -0.1504 -1.9012  0.3354
15777SOL     OW59054  10.008   5.131   9.065  0.5307 -0.5425 -0.5460
15777SOL    HW159055  10.080   5.176   9.019  0.6133 -1.4294 -1.3238
15777SOL    HW259056   9.929   5.163   9.022  0.4690  0.1611  0.0696
15778SOL     OW59057   8.368   0.624  11.390  0.5241 -0.0906  0.0317
15778SOL    HW159058   8.336   0.576  11.314  0.1117  0.6908 -0.3052
15778SOL    HW259059   8.298   0.686  11.411  1.1402  0.5463  0.2795
15779SOL     OW59060   5.650   4.159   9.585 -0.2805 -0.0752  0.0559
15779SOL    HW159061   5.596   4.108   9.524  0.2010 -0.5308  0.0020
15779SOL    HW259062   5.649   4.247   9.549 -0.1355 -0.3052 -0.5313
15780SOL     OW59063   9.843   4.456   6.233  0.4124 -0.3227  0.3594
15780SOL    HW159064   9.751   4.462   6.257  0.8914 -0.3644  2.3418
15780SOL    HW259065   9.877   4.545   6.244  0.5971 -0.2710 -0.5216
15781SOL     OW59066   0.949   0.835   6.810  0.3053  0.1912  0.7104
15781SOL    HW159067   0.956   0.755   6.760  0.1184  0.4680  0.2327
15781SOL    HW259068   0.912   0.899   6.749 -1.2039  0.1906  1.5519
15782SOL     OW59069   4.410   2.391   2.358  0.2985  0.0349  0.1459
15782SOL    HW159070   4.437   2.424   2.273  1.3750 -1.6595 -0.1948
15782SOL    HW259071   4.382   2.301   2.342 -2.0056  0.4882  1.1558
15783SOL     OW59072   4.143   1.363   1.212  0.3974  0.3604  0.8987
15783SOL    HW159073   4.115   1.430   1.275 -0.0594 -0.7598  1.9429
15783SOL    HW259074   4.144   1.282   1.263  0.2596 -0.5525 -0.4971
15784SOL     OW59075  11.178  10.360  10.132  0.3365 -0.1298 -0.3594
15784SOL    HW159076  11.217  10.428  10.188 -1.4067 -0.2124  1.0391
15784SOL    HW259077  11.096  10.397  10.102 -0.5522 -1.5053  0.2522
15785SOL     OW59078   2.045  10.334   2.679 -0.0166 -0.6793 -0.3814
15785SOL    HW159079   2.105  10.372   2.615  1.1555  0.3494  1.2641
15785SOL    HW259080   1.960  10.374   2.658  0.5142  0.2692 -0.8007
15786SOL     OW59081   4.552   5.565   2.919  0.4084  0.1587 -0.7768
15786SOL    HW159082   4.529   5.653   2.889 -0.2091  0.0156 -0.7392
15786SOL    HW259083   4.645   5.556   2.898  0.3274  0.5907 -1.3376
15787SOL     OW59084   5.356   1.907   0.002 -0.5908 -0.2437 -0.3792
15787SOL    HW159085   5.303   1.835  -0.030 -0.1146  0.1588 -2.1811
15787SOL    HW259086   5.364   1.966  -0.073  0.8624  0.5966  0.3968
15788SOL     OW59087   5.842   2.158  11.889  0.3208  0.3714 -0.1922
15788SOL    HW159088   5.924   2.154  11.838  0.1704 -1.2193 -0.3512
15788SOL    HW259089   5.836   2.250  11.916  2.8800  0.2797  1.0209
15789SOL     OW59090   1.539   0.459   4.466  0.2666  0.3751  0.4046
15789SOL    HW159091   1.550   0.518   4.540 -0.3760  0.7855  0.1814
15789SOL    HW259092   1.499   0.513   4.397  0.4684 -0.1025 -0.0977
15790SOL     OW59093   9.140   1.666   0.883  0.0237 -0.0800  0.7761
15790SOL    HW159094   9.061   1.675   0.830  0.1116  1.3400  0.8484
15790SOL    HW259095   9.179   1.584   0.853 -0.0068  0.5914 -1.2844
15791SOL     OW59096   0.504   5.831   7.104 -0.0252  0.2028 -0.1047
15791SOL    HW159097   0.451   5.911   7.117  1.3788  1.5807 -2.2605
15791SOL    HW259098   0.590   5.864   7.079  0.6533 -2.0214 -0.8539
15792SOL     OW59099   1.823   0.334   9.016  0.6128  0.1834 -0.4288
15792SOL    HW159100   1.882   0.373   8.952 -0.6650  1.3503 -0.9613
15792SOL    HW259101   1.796   0.406   9.072  0.2265 -0.4595  0.2380
15793SOL     OW59102   3.811  11.780   6.565  0.0998  0.2581 -0.2008
15793SOL    HW159103   3.786  11.737   6.484 -0.6610 -0.2178  0.2681
15793SOL    HW259104   3.897  11.817   6.548  1.3140 -2.3993 -0.2925
15794SOL     OW59105   7.620   4.012   5.011 -0.4086  0.1269  0.1914
15794SOL    HW159106   7.644   3.979   5.098  0.7565 -0.4542 -0.3187
15794SOL    HW259107   7.673   4.091   5.000 -0.5430  0.1914 -0.0017
15795SOL     OW59108   3.706   1.955   7.250 -0.7494 -0.4325  0.1662
15795SOL    HW159109   3.668   1.893   7.187 -1.8411  0.6400 -0.2727
15795SOL    HW259110   3.643   1.957   7.322 -1.2077  0.8131 -0.2365
15796SOL     OW59111   8.515   0.760   0.129 -0.1004 -0.4060 -0.2519
15796SOL    HW159112   8.466   0.837   0.158  1.5422  0.7012 -0.2596
15796SOL    HW259113   8.526   0.707   0.209 -2.4957 -1.4361 -0.5254
15797SOL     OW59114   4.613   8.519   9.757 -0.1370 -0.0462 -0.4895
15797SOL    HW159115   4.540   8.513   9.818 -0.1705 -0.4125 -0.5608
15797SOL    HW259116   4.691   8.529   9.812 -0.1773 -0.2783 -0.3872
15798SOL     OW59117   3.856   7.462   1.928 -0.1712  0.4946 -0.0243
15798SOL    HW159118   3.878   7.548   1.891  1.6597 -0.2258 -0.7104
15798SOL    HW259119   3.916   7.401   1.886 -1.9995 -1.2950 -0.1969
15799SOL     OW59120   7.943   6.368   7.719 -0.2745 -0.6642  0.6757
15799SOL    HW159121   8.001   6.397   7.790 -1.1697  0.1156  1.1096
15799SOL    HW259122   7.907   6.449   7.683  0.2254 -1.0454 -0.7500
15800SOL     OW59123   9.036   3.048   5.247 -0.1346  0.0516  0.1581
15800SOL    HW159124   9.011   3.032   5.338 -0.1153 -1.9638 -0.1455
15800SOL    HW259125   9.122   3.007   5.238 -0.2323  0.0396 -0.8090
15801SOL     OW59126   6.241   2.705   4.075  0.7770  0.2877 -0.4447
15801SOL    HW159127   6.155   2.732   4.043  0.7690  2.4778  1.1697
15801SOL    HW259128   6.289   2.678   3.997 -1.1996 -0.5257 -1.4274
15802SOL     OW59129   3.969  10.742   9.147 -0.5566  0.2218 -0.0885
15802SOL    HW159130   4.012  10.801   9.085  0.1678  0.4881  0.6532
15802SOL    HW259131   3.921  10.799   9.206 -0.8716 -0.0074 -0.1215
15803SOL     OW59132  10.815   1.397   7.372  0.7355 -0.4344  0.3025
15803SOL    HW159133  10.884   1.414   7.308  0.3213  1.7878  0.3668
15803SOL    HW259134  10.859   1.401   7.457  0.4296  1.9391  0.3981
15804SOL     OW59135   6.568   3.949   5.058 -0.3952  0.1213  0.2469
15804SOL    HW159136   6.656   3.986   5.047  0.2109 -1.6566 -1.4378
15804SOL    HW259137   6.515   3.992   4.992 -1.2448  2.2329  2.1653
15805SOL     OW59138   8.529   6.461   7.218 -0.7003  0.0038  0.2985
15805SOL    HW159139   8.451   6.407   7.205 -0.1699 -0.5714 -0.6867
15805SOL    HW259140   8.600   6.409   7.180  0.1188  0.6304  0.9386
15806SOL     OW59141   9.741   3.474  10.307  0.0421 -0.0163 -0.2144
15806SOL    HW159142   9.745   3.568  10.290  0.6246  0.2681  1.3613
15806SOL    HW259143   9.822   3.440  10.268  0.1715  0.2413 -0.1759
15807SOL     OW59144   5.891  10.987   9.677  0.3500  0.4058 -0.0236
15807SOL    HW159145   5.835  11.065   9.679 -0.4510 -0.1468 -0.6427
15807SOL    HW259146   5.901  10.967   9.584  1.8256  0.6578  0.0556
15808SOL     OW59147  11.372   5.054   0.046 -0.3427 -0.1646  0.8455
15808SOL    HW159148  11.425   5.052  -0.033  0.1924 -0.9229  1.2024
15808SOL    HW259149  11.333   4.967   0.050 -0.1436 -0.2274  1.5533
15809SOL     OW59150  10.778   0.876   5.232  0.2369  0.0611 -0.3260
15809SOL    HW159151  10.706   0.813   5.236  0.8240 -0.5714  0.8176
15809SOL    HW259152  10.803   0.879   5.140 -0.4093 -0.6687 -0.5320
15810SOL     OW59153  10.761  11.751   6.871 -0.2618 -0.1593 -0.4915
15810SOL    HW159154  10.696  11.683   6.888 -0.5626  0.3146  0.3355
15810SOL    HW259155  10.811  11.718   6.797 -0.2072 -1.4278  0.0678
15811SOL     OW59156   9.159  11.207   7.701 -0.3876 -0.2168 -0.2661
15811SOL    HW159157   9.123  11.243   7.619 -0.9304  0.9715  0.4691
15811SOL    HW259158   9.083  11.170   7.746 -0.1637 -0.4627 -0.0862
15812SOL     OW59159   3.190   6.824   8.866  0.4682 -0.3480  0.1273
15812SOL    HW159160   3.104   6.825   8.908  0.2342  1.7587 -0.2914
15812SOL    HW259161   3.208   6.731   8.851 -1.4288 -0.8799  0.8205
15813SOL     OW59162   0.897   5.160  10.916  0.2104  0.0115 -0.6001
15813SOL    HW159163   0.826   5.121  10.864  0.9030 -0.3683 -1.2988
15813SOL    HW259164   0.896   5.252  10.891 -1.1351  0.3754  0.7035
15814SOL     OW59165   7.300  10.461   8.148  0.0565 -0.2617 -0.2938
15814SOL    HW159166   7.212  10.465   8.183 -1.0278 -1.3316 -2.6958
15814SOL    HW259167   7.355  10.502   8.215 -2.2475  0.5149  1.2052
15815SOL     OW59168   9.883  11.877   4.987 -0.2160  0.4568 -0.2683
15815SOL    HW159169   9.852  11.803   5.040  1.6303 -1.1756 -1.3327
15815SOL    HW259170   9.976  11.884   5.008 -0.0856  1.6828 -1.1440
15816SOL     OW59171   3.781   3.726   7.638  0.1774  0.0312  0.3171
15816SOL    HW159172   3.838   3.649   7.637  1.5741  0.9886 -2.0761
15816SOL    HW259173   3.813   3.778   7.711 -0.8796 -1.6536  2.0640
15817SOL     OW59174   3.989   4.887   7.614 -0.2696  0.3547  0.6577
15817SOL    HW159175   3.934   4.838   7.675  2.2779 -2.2416  1.0937
15817SOL    HW259176   4.071   4.901   7.661  1.3634 -0.7447 -1.6530
15818SOL     OW59177   0.634   5.298  11.655 -0.1254  0.1165 -0.1018
15818SOL    HW159178   0.584   5.343  11.724  1.6782  1.7375  0.2134
15818SOL    HW259179   0.595   5.329  11.574  0.8821  2.1178  0.1193
15819SOL     OW59180   8.771   7.377   3.071 -0.2416  0.3386 -0.0441
15819SOL    HW159181   8.781   7.354   2.978 -1.0077 -0.5209  0.0751
15819SOL    HW259182   8.738   7.467   3.070 -0.0236  0.4174 -0.5963
15820SOL     OW59183   4.222   2.508   0.080  0.2910  0.4745 -0.7774
15820SOL    HW159184   4.290   2.559   0.036  0.7644  0.3755 -0.1920
15820SOL    HW259185   4.238   2.524   0.173  0.3807 -0.6300 -0.5840
15821SOL     OW59186  10.284   9.783   7.400  0.4552  0.1723  0.9817
15821SOL    HW159187  10.237   9.738   7.470  1.9633  0.6826  2.3756
15821SOL    HW259188  10.225   9.854   7.373 -0.5086 -0.5676  1.0947
15822SOL     OW59189   3.336   1.599   6.333 -0.3390  0.2033 -0.4276
15822SOL    HW159190   3.389   1.632   6.261  1.0229  0.2284  0.5486
15822SOL    HW259191   3.375   1.514   6.354 -1.1769 -0.1349 -0.1749
15823SOL     OW59192   6.995  10.728  11.533 -0.2305  0.0264  0.1133
15823SOL    HW159193   7.086  10.718  11.507 -0.2124  0.5651 -0.0388
15823SOL    HW259194   6.980  10.658  11.597  0.0580 -0.5665 -0.4574
15824SOL     OW59195   2.899   2.452   0.749  0.3934 -0.5441  0.5471
15824SOL    HW159196   2.875   2.544   0.745 -0.3938 -0.7859 -1.7849
15824SOL    HW259197   2.861   2.420   0.831 -2.5711  0.3829 -0.3640
15825SOL     OW59198  10.449   1.119   6.305 -0.1040 -0.1606  0.0705
15825SOL    HW159199  10.539   1.112   6.273 -0.3297  0.0672 -0.6349
15825SOL    HW259200  10.432   1.035   6.347  0.4132 -0.2355  0.1341
15826SOL     OW59201   5.287   7.032   8.085  0.2357  0.4799  0.8021
15826SOL    HW159202   5.321   7.050   7.998  1.4777  1.5740  1.4756
15826SOL    HW259203   5.236   7.110   8.107  1.1728  0.8734  1.6284
15827SOL     OW59204   4.128   4.276   9.518  0.3380 -0.1433 -0.7062
15827SOL    HW159205   4.071   4.292   9.593 -0.4168  0.2340 -1.3324
15827SOL    HW259206   4.093   4.334   9.450  1.2495 -0.1883 -1.2237
15828SOL     OW59207  10.088   0.813   3.654 -0.2224  0.1251 -0.4724
15828SOL    HW159208  10.135   0.855   3.726 -0.3568 -0.5779  0.0322
15828SOL    HW259209  10.030   0.881   3.620 -0.4330  0.3516  0.3328
15829SOL     OW59210   4.160   7.776   4.160  0.0513  0.1349  0.0461
15829SOL    HW159211   4.180   7.687   4.129 -0.4863 -0.3549  1.0559
15829SOL    HW259212   4.106   7.762   4.238 -0.5770  1.3613 -0.1490
15830SOL     OW59213   1.368   0.067   2.973  0.2301 -0.1222  0.1932
15830SOL    HW159214   1.395   0.127   2.903 -0.7645  0.3387  0.2028
15830SOL    HW259215   1.435  -0.002   2.971  1.1055  0.7068 -0.1490
15831SOL     OW59216   4.447   5.501   7.177  0.3813  0.1180  0.4650
15831SOL    HW159217   4.429   5.425   7.232  1.7436  0.0324  0.8348
15831SOL    HW259218   4.543   5.506   7.174  0.3178  1.1393 -0.4999
15832SOL     OW59219  10.224  11.807   0.084  0.4621  0.2111 -0.4270
15832SOL    HW159220  10.139  11.772   0.110  0.8463  1.2722  2.6280
15832SOL    HW259221  10.287  11.739   0.106  0.7944  1.1237  1.6282
15833SOL     OW59222   2.970   8.674   1.693 -0.0661  0.5406  0.4885
15833SOL    HW159223   3.025   8.737   1.646 -1.0786  0.2474 -1.1764
15833SOL    HW259224   2.884   8.684   1.653 -0.4795 -1.2166  0.8591
15834SOL     OW59225   8.803   9.556  11.559  0.4589 -0.0646  0.0833
15834SOL    HW159226   8.763   9.639  11.534  0.4236 -0.0353  0.2378
15834SOL    HW259227   8.737   9.490  11.539  1.0499 -0.2190 -1.4668
15835SOL     OW59228   9.847  11.181  11.212  0.7290 -0.1780 -0.3776
15835SOL    HW159229   9.788  11.107  11.226 -0.1008  0.4621 -0.4042
15835SOL    HW259230   9.809  11.228  11.137  0.5374  0.9624  0.4071
15836SOL     OW59231   0.270   8.902   2.739 -0.0236  0.2645 -0.2211
15836SOL    HW159232   0.198   8.888   2.800 -0.0497 -0.6585 -0.4455
15836SOL    HW259233   0.310   8.985   2.767  1.1007 -0.9960  2.1908
15837SOL     OW59234   4.927   1.454   6.321 -0.1021 -0.0275 -0.1305
15837SOL    HW159235   4.975   1.518   6.374 -0.8141  0.4245 -0.0238
15837SOL    HW259236   4.961   1.466   6.232  0.2947 -0.0138  0.0198
15838SOL     OW59237   2.372   9.535  10.245  0.4892  0.7119  0.3523
15838SOL    HW159238   2.324   9.473  10.190  0.8523 -0.9428  1.8213
15838SOL    HW259239   2.304   9.588  10.286  0.0358  0.0149  0.5240
15839SOL     OW59240   0.177   1.468   6.473  0.1444  0.2760  0.1063
15839SOL    HW159241   0.241   1.524   6.429 -1.7471  1.9164 -0.7255
15839SOL    HW259242   0.194   1.481   6.567  0.6907  1.0669 -0.0921
15840SOL     OW59243   5.641   2.454   6.518  0.3291 -0.5022  0.8505
15840SOL    HW159244   5.722   2.405   6.505 -0.3178 -2.0846  2.3903
15840SOL    HW259245   5.619   2.440   6.610 -1.9923 -0.5918  0.3431
15841SOL     OW59246   3.467  10.281  10.060  0.3325  0.0676 -0.0277
15841SOL    HW159247   3.473  10.339   9.985 -1.5630 -1.2236 -1.2652
15841SOL    HW259248   3.373  10.261  10.068  0.6764 -1.1291  1.6632
15842SOL     OW59249  11.623  11.395   2.225  0.2735  0.7352  0.3303
15842SOL    HW159250  11.575  11.445   2.291 -0.4234 -0.0820  0.4512
15842SOL    HW259251  11.675  11.461   2.178 -0.4707  1.5368  0.6141
15843SOL     OW59252   2.484   8.035   5.806 -0.5718 -0.3308  0.1772
15843SOL    HW159253   2.421   8.030   5.735 -1.5466  0.1492  0.9823
15843SOL    HW259254   2.476   7.951   5.852  0.0375 -0.6306 -0.2578
15844SOL     OW59255  11.338   7.135   8.573  0.3052  0.0784 -0.4912
15844SOL    HW159256  11.389   7.060   8.545  0.5277  0.1901 -0.3851
15844SOL    HW259257  11.305   7.110   8.660  1.1547  0.4712 -0.0409
15845SOL     OW59258   1.182   6.050  10.132  0.3452 -0.3625 -0.1754
15845SOL    HW159259   1.276   6.040  10.119  0.2984 -1.2556  0.1396
15845SOL    HW259260   1.143   5.998  10.061  0.0994 -1.7213  0.9134
15846SOL     OW59261   6.658   5.218   7.827 -0.4357 -0.3198 -0.3000
15846SOL    HW159262   6.732   5.179   7.780 -0.0560 -0.9979  0.8139
15846SOL    HW259263   6.624   5.284   7.767  0.3120 -0.8325 -1.3300
15847SOL     OW59264   2.216   8.835   4.702  0.2872  0.2932 -0.0754
15847SOL    HW159265   2.156   8.761   4.695  0.8842 -0.0775 -1.9311
15847SOL    HW259266   2.191   8.879   4.783 -1.5778 -0.6176 -0.1078
15848SOL     OW59267   7.445  11.207   0.282 -0.2697  0.4070  0.4835
15848SOL    HW159268   7.534  11.189   0.313 -0.2176  0.1392  0.1778
15848SOL    HW259269   7.389  11.179   0.354 -0.1455 -0.1605  0.3593
15849SOL     OW59270   5.480   9.597   5.259 -0.0195 -0.4639  0.2888
15849SOL    HW159271   5.511   9.630   5.175 -1.7580 -0.6918 -0.4904
15849SOL    HW259272   5.415   9.530   5.236 -0.9436 -0.1440  1.7972
15850SOL     OW59273   0.260   2.885  11.469 -0.1464 -0.2169  0.3177
15850SOL    HW159274   0.310   2.834  11.532 -3.8476 -2.5691  1.7006
15850SOL    HW259275   0.173   2.893  11.508 -2.0632  0.1005 -3.5013
15851SOL     OW59276   5.831   9.599   5.382 -0.9385 -0.2294  0.4107
15851SOL    HW159277   5.805   9.689   5.363  0.2826  0.2998  1.1126
15851SOL    HW259278   5.843   9.559   5.296  0.6403  0.9410  0.0408
15852SOL     OW59279   6.941  11.067   4.355  0.3713 -0.0441 -0.0490
15852SOL    HW159280   7.027  11.095   4.322  0.0688  0.6018 -0.3181
15852SOL    HW259281   6.949  10.973   4.366  0.7055 -0.1969 -1.3507
15853SOL     OW59282   8.039   7.324  11.958 -0.2192 -0.1236  0.0840
15853SOL    HW159283   7.972   7.258  11.940 -0.4009 -0.1172  0.6921
15853SOL    HW259284   8.045   7.325  12.054  1.7322 -1.2184  0.0149
15854SOL     OW59285   3.898   1.262   3.802  0.0977 -0.0139  0.0727
15854SOL    HW159286   3.853   1.178   3.810 -0.5324  0.3632  0.5506
15854SOL    HW259287   3.921   1.268   3.709  0.2599 -0.7616  0.0583
15855SOL     OW59288   1.746  11.600   5.804  0.0743 -0.5269  0.1387
15855SOL    HW159289   1.730  11.688   5.769 -0.2456 -1.1318 -1.3099
15855SOL    HW259290   1.707  11.541   5.740  0.7388 -1.7545  0.8203
15856SOL     OW59291   9.033   7.887   9.514  0.3293  0.3727  0.3246
15856SOL    HW159292   9.097   7.869   9.584  0.1450  0.5917  0.5520
15856SOL    HW259293   9.087   7.899   9.436  0.5494  0.2784  0.4594
15857SOL     OW59294   3.148   4.512   8.257 -0.0039  0.4093  0.0271
15857SOL    HW159295   3.243   4.515   8.247 -0.0554 -0.1308 -0.7274
15857SOL    HW259296   3.122   4.429   8.216 -0.6068 -0.3818  1.8998
15858SOL     OW59297   5.176   0.049   1.342  0.1633 -0.6799 -0.2845
15858SOL    HW159298   5.203  -0.034   1.303 -0.2727 -0.0845 -1.9701
15858SOL    HW259299   5.248   0.109   1.323 -0.8749  0.1177 -2.0146
15859SOL     OW59300   3.191   1.978   9.717 -0.5286 -0.1853 -0.1322
15859SOL    HW159301   3.247   1.952   9.790 -0.1411  1.8522  0.3575
15859SOL    HW259302   3.236   1.944   9.639 -0.3756 -1.4216  0.4692
15860SOL     OW59303   1.178   2.284   8.565  0.0697  0.2114  0.1853
15860SOL    HW159304   1.093   2.254   8.531  0.2454 -1.2026  0.8901
15860SOL    HW259305   1.202   2.358   8.509 -2.0364  1.2302  0.5220
15861SOL     OW59306   7.977   1.688   6.125 -0.1944  0.6125 -0.1506
15861SOL    HW159307   7.926   1.617   6.087  0.5701 -0.7942  1.2876
15861SOL    HW259308   8.068   1.662   6.110  0.1376  2.2448 -1.2190
15862SOL     OW59309  10.507   2.278  11.655 -0.2699  0.7485 -0.0688
15862SOL    HW159310  10.524   2.369  11.632  0.2037  0.7052  0.0923
15862SOL    HW259311  10.446   2.247  11.588 -1.9775  1.7275  0.9747
15863SOL     OW59312   5.091  10.974   8.445  0.1691  0.1466  0.4313
15863SOL    HW159313   5.064  10.913   8.377  2.9543  0.0436 -0.7144
15863SOL    HW259314   5.141  10.921   8.507  2.0321  1.0816 -0.2080
15864SOL     OW59315   9.133  10.010   5.783 -0.1725  0.7851  0.6225
15864SOL    HW159316   9.100  10.081   5.839 -1.7500 -0.6358  1.5904
15864SOL    HW259317   9.141  10.049   5.696 -0.4396  2.2879  1.2482
15865SOL     OW59318   0.815   4.791   2.022  0.2012 -0.1773  0.1677
15865SOL    HW159319   0.723   4.766   2.035  0.5185 -1.0200  0.8411
15865SOL    HW259320   0.820   4.814   1.929 -0.2924 -1.8809 -0.3150
15866SOL     OW59321   6.933   4.374   0.691 -0.5378  0.0757  0.0853
15866SOL    HW159322   6.971   4.416   0.768  3.5631 -3.7919  0.5919
15866SOL    HW259323   6.933   4.442   0.623  1.8834  1.9590  1.8006
15867SOL     OW59324  11.114   2.938   6.989 -0.3725 -0.0720 -0.3746
15867SOL    HW159325  11.203   2.905   7.006 -0.7489  0.0711  2.2621
15867SOL    HW259326  11.120   2.979   6.903  2.2418  0.3065 -0.1083
15868SOL     OW59327  10.506   3.294   7.838 -0.1614 -0.0557  0.4729
15868SOL    HW159328  10.429   3.341   7.803 -0.2627 -1.6435 -1.6496
15868SOL    HW259329  10.567   3.364   7.863 -1.3346  1.2296 -0.0763
15869SOL     OW59330   9.096   7.255   9.308  0.2873  0.2209  0.3619
15869SOL    HW159331   9.064   7.220   9.392  2.6149  2.7653  2.4967
15869SOL    HW259332   9.151   7.185   9.273 -1.7617 -1.4093  0.1623
15870SOL     OW59333   3.553  10.163   0.160 -0.6425 -0.0714 -0.1459
15870SOL    HW159334   3.648  10.164   0.155 -0.6668  1.5403 -0.6872
15870SOL    HW259335   3.526  10.100   0.093 -0.0037  1.2655 -1.7249
15871SOL     OW59336   2.833   4.233   7.420  0.0798 -0.3744  0.5830
15871SOL    HW159337   2.872   4.146   7.419  2.3611  0.5529 -1.2785
15871SOL    HW259338   2.818   4.253   7.328 -0.1434  1.2962  0.9567
15872SOL     OW59339   9.510   3.394   1.526 -0.3362  0.5324  0.7984
15872SOL    HW159340   9.449   3.394   1.452 -1.8881 -1.5386  1.9658
15872SOL    HW259341   9.593   3.362   1.489 -0.0248  2.8778 -0.7073
15873SOL     OW59342  11.833   6.870  10.332 -0.6194  0.3998  0.6402
15873SOL    HW159343  11.919   6.892  10.367  0.9261  0.3263 -2.7140
15873SOL    HW259344  11.777   6.942  10.359  0.7625  1.0150  1.9861
15874SOL     OW59345   5.270   6.388  11.386 -0.2385 -0.0270  0.0381
15874SOL    HW159346   5.300   6.422  11.470 -1.0266  0.0784  0.2895
15874SOL    HW259347   5.257   6.294  11.401 -0.6645  0.0446  0.1198
15875SOL     OW59348   8.039   7.430   9.157  0.0096  0.4471  0.4643
15875SOL    HW159349   7.980   7.420   9.231 -0.0685  0.2587  0.3764
15875SOL    HW259350   8.121   7.389   9.185  0.9094  2.7773  1.5076
15876SOL     OW59351  10.005   8.441  11.958 -0.3186 -0.0271  0.2875
15876SOL    HW159352   9.951   8.455  12.036 -1.0536 -1.4860  0.0713
15876SOL    HW259353  10.027   8.348  11.961  0.0190 -0.0075 -1.0150
15877SOL     OW59354   0.306   3.609   6.084 -0.1440  0.2425  0.2172
15877SOL    HW159355   0.235   3.614   6.149 -0.8578 -1.1299 -0.4134
15877SOL    HW259356   0.344   3.697   6.084 -1.9353  1.0703  0.4826
15878SOL     OW59357  11.445   3.840   1.283  0.1627  0.1215 -0.0789
15878SOL    HW159358  11.377   3.862   1.346  0.0437 -1.7312  0.5082
15878SOL    HW259359  11.398   3.823   1.201  0.2800  2.1354 -0.6079
15879SOL     OW59360   3.035   1.434  10.110 -0.1023  0.0418 -0.2725
15879SOL    HW159361   3.109   1.401  10.160 -0.1936 -1.0501 -0.8228
15879SOL    HW259362   2.966   1.368  10.122 -1.2064  1.3126  0.7027
15880SOL     OW59363   4.752   8.117   0.266  0.2013  0.0175 -0.2706
15880SOL    HW159364   4.793   8.203   0.277  0.2758 -0.0170 -0.2785
15880SOL    HW259365   4.712   8.120   0.179  1.3087 -0.4097 -0.8112
15881SOL     OW59366   4.289   3.181   0.495 -0.0074 -0.4100 -0.6041
15881SOL    HW159367   4.311   3.269   0.526  0.4532 -1.2949  1.7964
15881SOL    HW259368   4.205   3.192   0.450 -0.0342  1.2236 -0.2375
15882SOL     OW59369   0.308   6.525   3.639 -0.0360  0.5060  0.3226
15882SOL    HW159370   0.340   6.450   3.590 -0.8684 -0.7577  1.6291
15882SOL    HW259371   0.230   6.553   3.591 -0.2337 -0.0424  0.3172
15883SOL     OW59372   9.046   6.653   1.527 -0.4646 -0.6471 -0.3495
15883SOL    HW159373   9.104   6.579   1.546 -1.3760 -0.6161  3.2707
15883SOL    HW259374   9.086   6.696   1.452  1.8187 -3.0163 -0.6484
15884SOL     OW59375   3.889   3.715   4.601 -0.6069 -0.5699 -0.7007
15884SOL    HW159376   3.888   3.781   4.532 -0.4072 -0.7865 -0.9111
15884SOL    HW259377   3.975   3.724   4.642 -1.0617  0.1848  0.1333
15885SOL     OW59378   7.194   0.913   9.319 -0.3215  0.2954  0.2158
15885SOL    HW159379   7.258   0.909   9.247  1.1717 -1.3335  1.5350
15885SOL    HW259380   7.243   0.951   9.392 -1.1536 -0.1081  0.9986
15886SOL     OW59381   4.825   7.910  10.147 -0.0499  0.7012 -1.0961
15886SOL    HW159382   4.735   7.907  10.179  0.8688 -1.0130  1.7583
15886SOL    HW259383   4.832   7.835  10.088  0.1438 -1.0590  1.0073
15887SOL     OW59384  10.943   4.705  11.532  0.5816 -0.2320  0.1745
15887SOL    HW159385  11.025   4.656  11.524  0.1852 -0.9592  0.4544
15887SOL    HW259386  10.883   4.644  11.575 -0.9715 -0.7606 -2.5289
15888SOL     OW59387   4.822   2.171   9.475  0.1393  0.1588  0.2236
15888SOL    HW159388   4.876   2.105   9.432 -1.4222 -2.3109  1.7558
15888SOL    HW259389   4.750   2.121   9.514 -2.9937  3.1520 -1.2198
15889SOL     OW59390   1.246   6.317  10.836  0.4805  0.1144 -0.6040
15889SOL    HW159391   1.212   6.406  10.825  1.0035  0.4740  0.4783
15889SOL    HW259392   1.243   6.278  10.749  1.0381  1.4811 -1.2524
15890SOL     OW59393   8.583   9.647  10.337  0.4568 -0.5783 -0.2197
15890SOL    HW159394   8.575   9.724  10.281 -0.8704 -0.4977  0.0553
15890SOL    HW259395   8.635   9.586  10.285 -0.7088 -0.4938 -1.5669
15891SOL     OW59396   6.177   0.367  10.990  0.1534 -0.8016 -0.3819
15891SOL    HW159397   6.257   0.421  10.989 -0.5468  0.2726 -0.6116
15891SOL    HW259398   6.133   0.392  11.071  1.3180 -3.4123  1.1985
15892SOL     OW59399  10.495   7.388   7.469  0.0442  0.5742  0.0118
15892SOL    HW159400  10.540   7.308   7.444 -1.5232 -0.3045 -0.1442
15892SOL    HW259401  10.465   7.372   7.558 -0.6760  0.7934 -0.1828
15893SOL     OW59402   5.503   3.176   0.423  0.5842  0.2343  0.1830
15893SOL    HW159403   5.514   3.214   0.336  0.0697 -3.0239 -1.4812
15893SOL    HW259404   5.590   3.143   0.446  0.4433 -0.0574  0.3005
15894SOL     OW59405  10.164  11.952  11.398 -0.7767  0.3457 -0.0017
15894SOL    HW159406  10.253  11.976  11.422 -1.4107  0.7357  2.2173
15894SOL    HW259407  10.173  11.868  11.353  0.6985  0.2988  0.3217
15895SOL     OW59408   3.107   7.413   8.234 -0.2377  0.1732 -0.3280
15895SOL    HW159409   3.164   7.411   8.157  1.5233  0.2009  0.9010
15895SOL    HW259410   3.084   7.322   8.250  3.1551 -0.4941  1.6665
15896SOL     OW59411   5.264   5.276   8.670  0.0842 -0.1613  0.1307
15896SOL    HW159412   5.360   5.277   8.674  0.0526  0.3408  1.2488
15896SOL    HW259413   5.243   5.209   8.606  1.1823 -0.7284  0.3420
15897SOL     OW59414   1.513   6.688   2.825 -0.2886  0.2154  0.2248
15897SOL    HW159415   1.542   6.742   2.899  1.1429  0.5723 -0.5481
15897SOL    HW259416   1.595   6.657   2.785 -1.0640 -2.4509  0.5499
15898SOL     OW59417   6.291   9.704   4.786  0.4961  0.6531  0.6742
15898SOL    HW159418   6.370   9.691   4.734 -0.7505 -1.4631 -0.8840
15898SOL    HW259419   6.250   9.783   4.749  0.5630  0.2228 -0.3504
15899SOL     OW59420   7.513  10.822  11.251  0.1259 -0.5727  0.1516
15899SOL    HW159421   7.550  10.735  11.237  1.6490  0.1441 -0.5038
15899SOL    HW259422   7.432  10.823  11.200  1.2871 -0.8448 -1.7723
15900SOL     OW59423  10.895   3.846   9.304 -0.0410 -0.1285 -0.5824
15900SOL    HW159424  10.802   3.852   9.327  0.4390  1.0098  1.2996
15900SOL    HW259425  10.933   3.795   9.375  0.6539 -1.4116 -1.8389
15901SOL     OW59426   3.406   4.761   4.710  0.6164 -0.1643  0.3396
15901SOL    HW159427   3.438   4.851   4.697  1.1246 -0.2237  1.1236
15901SOL    HW259428   3.481   4.706   4.688  0.2174 -0.4202 -0.4220
15902SOL     OW59429   4.773   6.479   6.081 -0.0758  0.2187 -0.0484
15902SOL    HW159430   4.832   6.483   6.157  0.6792  0.9453 -0.6584
15902SOL    HW259431   4.712   6.552   6.095  1.5207  1.8938 -1.2787
15903SOL     OW59432   8.446   1.598   3.629 -0.2998 -0.1968 -0.0260
15903SOL    HW159433   8.366   1.573   3.583 -0.9087  0.8196  0.4257
15903SOL    HW259434   8.438   1.557   3.715 -0.7153  0.5184  0.2865
15904SOL     OW59435   8.097  10.144   1.721 -0.3998 -0.2747 -0.2859
15904SOL    HW159436   8.088  10.200   1.798  2.2513 -1.6037  1.1147
15904SOL    HW259437   8.031  10.076   1.734 -0.5481 -0.0207  0.3560
15905SOL     OW59438  10.989   9.602   3.186  0.4655  0.0836  0.1665
15905SOL    HW159439  10.997   9.693   3.157 -1.0056  0.1109 -0.2704
15905SOL    HW259440  10.962   9.609   3.278 -1.1169  0.1698 -0.2617
15906SOL     OW59441   5.284   9.618   6.113  0.2865  0.2886  0.0155
15906SOL    HW159442   5.280   9.628   6.018 -2.7109  1.8373  0.1732
15906SOL    HW259443   5.343   9.688   6.142 -1.6549  2.2745 -0.5547
15907SOL     OW59444   8.205   2.214   0.077  0.0738 -0.1290  0.1768
15907SOL    HW159445   8.147   2.141   0.097  0.5731 -0.3254  0.9524
15907SOL    HW259446   8.201   2.270   0.155  2.2871 -1.0501  1.0473
15908SOL     OW59447   3.940   3.622   2.547  0.3732  0.1763 -0.6654
15908SOL    HW159448   3.869   3.631   2.483 -1.0926  1.0150  0.9939
15908SOL    HW259449   4.010   3.678   2.513 -0.5274  0.9362 -1.3209
15909SOL     OW59450   3.117   1.521   6.862  0.2076 -0.0029  0.1114
15909SOL    HW159451   3.207   1.555   6.860  0.2380  0.0353  1.2957
15909SOL    HW259452   3.074   1.573   6.930 -0.5663 -0.3900 -0.0769
15910SOL     OW59453   8.263   9.597   6.050 -0.3282 -0.3741 -0.0542
15910SOL    HW159454   8.340   9.547   6.078  0.7089  1.3182  0.2850
15910SOL    HW259455   8.193   9.569   6.108 -0.3184 -2.7756 -1.0917
15911SOL     OW59456   5.299   6.482   9.515  0.0019 -0.0023  0.2276
15911SOL    HW159457   5.285   6.512   9.605  0.7216  0.0508  0.3305
15911SOL    HW259458   5.394   6.483   9.505 -0.1297  1.7081 -1.1405
15912SOL     OW59459   6.824   1.302   2.405  0.3352  0.3700  0.0991
15912SOL    HW159460   6.888   1.236   2.431  1.6165  0.6684 -2.0855
15912SOL    HW259461   6.796   1.342   2.487  1.6952 -0.9023  1.2336
15913SOL     OW59462   1.136   7.132   3.475 -0.2119 -0.4170  0.1644
15913SOL    HW159463   1.163   7.172   3.558 -2.6149  1.3136  0.2359
15913SOL    HW259464   1.074   7.064   3.501 -0.4071 -0.3691 -0.1723
15914SOL     OW59465   5.517  10.532   3.207 -0.2666 -0.1580  0.3105
15914SOL    HW159466   5.539  10.568   3.293 -0.1547 -0.8496  0.5829
15914SOL    HW259467   5.422  10.542   3.201 -0.2889 -0.2071  0.5643
15915SOL     OW59468   3.579   1.292   0.515  0.3397  0.2914  0.4119
15915SOL    HW159469   3.590   1.358   0.447 -2.4970 -0.1177 -0.5793
15915SOL    HW259470   3.549   1.214   0.468 -0.9959 -0.2163  2.0201
15916SOL     OW59471  10.795   0.526   9.610  0.2215  0.1406  0.0886
15916SOL    HW159472  10.859   0.471   9.565  1.3051  0.3607  1.3006
15916SOL    HW259473  10.750   0.573   9.539  0.5123 -0.9572 -0.8526
15917SOL     OW59474   9.134   6.879   0.504 -0.1254  0.1663 -0.4565
15917SOL    HW159475   9.107   6.794   0.538 -1.4297  1.6608  2.6899
15917SOL    HW259476   9.200   6.910   0.566 -0.3444  1.8123 -0.9995
15918SOL     OW59477   9.003  11.623   4.462  0.1340 -0.4187 -0.3271
15918SOL    HW159478   9.084  11.667   4.488 -1.2353  1.9416  0.2687
15918SOL    HW259479   8.952  11.617   4.543 -1.9112  1.9395 -1.2962
15919SOL     OW59480   7.543  11.957   8.049  0.5955 -0.2637 -0.3188
15919SOL    HW159481   7.541  11.862   8.059  1.2029 -0.5771 -2.7458
15919SOL    HW259482   7.628  11.983   8.086  1.4349 -0.9790 -1.6570
15920SOL     OW59483  10.927  10.834   9.801 -0.1841 -0.3239  0.0322
15920SOL    HW159484  10.939  10.899   9.870 -0.6451 -0.6650  0.4411
15920SOL    HW259485  11.016  10.815   9.771 -0.0592  0.6577 -0.2519
15921SOL     OW59486   8.309   2.851  11.947 -0.0590 -0.4954  0.2908
15921SOL    HW159487   8.249   2.786  11.912 -3.0652  1.0478  2.1955
15921SOL    HW259488   8.314   2.919  11.879 -0.2266 -0.7511  0.0229
15922SOL     OW59489   0.795   4.853   6.318  0.4224 -0.5654  0.0873
15922SOL    HW159490   0.709   4.824   6.288  0.3438 -1.8983  1.4684
15922SOL    HW259491   0.788   4.948   6.322 -0.6001 -0.5798 -0.9174
15923SOL     OW59492  11.419  10.528   9.507  0.3916  0.0347  0.8518
15923SOL    HW159493  11.380  10.499   9.589 -0.5470  0.7952  0.6946
15923SOL    HW259494  11.349  10.576   9.463  1.0506  0.1158 -0.1446
15924SOL     OW59495   7.293   5.850   6.220 -0.2819  0.0115 -0.0781
15924SOL    HW159496   7.291   5.754   6.216  0.1431 -0.0277  0.4527
15924SOL    HW259497   7.276   5.870   6.313 -0.2040  0.4444 -0.1554
15925SOL     OW59498   7.842   0.006   6.100  0.2135 -0.0534  0.1125
15925SOL    HW159499   7.799   0.081   6.141 -0.7610 -0.9432  0.7929
15925SOL    HW259500   7.770  -0.055   6.081  1.1630 -1.6612  1.4098
15926SOL     OW59501   7.585   5.992   5.033 -0.1722  0.0412 -0.5043
15926SOL    HW159502   7.643   5.929   5.076 -1.3589 -1.3740 -0.9252
15926SOL    HW259503   7.534   6.029   5.105 -0.3327 -0.3919 -0.3921
15927SOL     OW59504   5.663   1.765   3.295 -0.2859  0.0767 -0.6449
15927SOL    HW159505   5.603   1.752   3.368  0.8914 -2.0174  0.0571
15927SOL    HW259506   5.629   1.841   3.248 -1.1350  1.4659  2.0120
15928SOL     OW59507   4.401   9.494   3.459  0.1623  0.7467 -0.3781
15928SOL    HW159508   4.460   9.546   3.406 -1.1623  2.0292 -0.6702
15928SOL    HW259509   4.446   9.485   3.543  1.4560  0.2888 -1.0925
15929SOL     OW59510   3.585   3.383   3.835  0.0242 -0.4964 -0.6107
15929SOL    HW159511   3.675   3.359   3.858 -0.1882 -1.6228 -0.9229
15929SOL    HW259512   3.580   3.477   3.856  1.1935 -0.4665 -0.3692
15930SOL     OW59513   4.460   1.723   8.208 -0.1607 -0.4671  0.0622
15930SOL    HW159514   4.456   1.803   8.261  1.1087  0.6525 -1.4010
15930SOL    HW259515   4.554   1.711   8.191 -0.3922 -1.8668 -0.3582
15931SOL     OW59516   2.510   4.578   1.993  0.9551 -0.6967 -0.6941
15931SOL    HW159517   2.544   4.551   2.079  1.3259 -0.8976 -0.9009
15931SOL    HW259518   2.423   4.538   1.988 -0.0030  1.0864  0.4868
15932SOL     OW59519   9.952   8.171   5.370 -0.1689  0.2845 -0.2567
15932SOL    HW159520  10.042   8.174   5.337 -0.7101  0.0862 -1.8290
15932SOL    HW259521   9.940   8.081   5.398  0.7673  0.7868  1.9721
15933SOL     OW59522   7.865   4.117   7.041 -0.2743 -0.3284 -0.5522
15933SOL    HW159523   7.907   4.130   6.956  2.4481  1.4328  0.9131
15933SOL    HW259524   7.865   4.204   7.082 -3.9136 -0.5828  0.3178
15934SOL     OW59525   2.250   9.411   6.779 -0.5801  0.4623  0.0231
15934SOL    HW159526   2.210   9.498   6.789 -1.7338  0.1637 -1.5049
15934SOL    HW259527   2.343   9.425   6.793 -0.9356  1.6075  1.5399
15935SOL     OW59528   8.179   1.667   6.419 -0.0685 -0.3165  0.0737
15935SOL    HW159529   8.200   1.603   6.351 -2.2127 -0.4376 -0.5432
15935SOL    HW259530   8.084   1.661   6.430 -0.0800  1.3794  1.4132
15936SOL     OW59531   7.858  11.164   6.592 -0.2530 -0.2295  0.5332
15936SOL    HW159532   7.922  11.235   6.582  0.3722 -0.9488 -0.7980
15936SOL    HW259533   7.777  11.199   6.557 -0.3947  0.3937  1.4408
15937SOL     OW59534   0.864  10.687  11.024 -0.2430  0.4463  0.4675
15937SOL    HW159535   0.952  10.725  11.035 -0.8205  2.3405 -0.9062
15937SOL    HW259536   0.820  10.707  11.107  0.8184 -1.2945  1.5254
15938SOL     OW59537   8.771   3.190  10.941 -0.3866 -0.2350 -0.0045
15938SOL    HW159538   8.683   3.173  10.909  0.0967 -0.5840 -1.1933
15938SOL    HW259539   8.770   3.283  10.965 -1.3463 -0.4669  0.9478
15939SOL     OW59540  10.380  11.407   0.674 -0.5194 -0.0995 -0.3579
15939SOL    HW159541  10.436  11.463   0.620  0.7703  0.1068  1.1424
15939SOL    HW259542  10.422  11.322   0.672 -0.2080  0.0228  0.6741
15940SOL     OW59543   3.472   8.504   7.777 -0.2860 -0.2367  0.6458
15940SOL    HW159544   3.404   8.572   7.776 -0.3010 -0.2427  1.0165
15940SOL    HW259545   3.424   8.422   7.772 -0.2652 -0.2237  0.1384
15941SOL     OW59546   6.217   6.250   6.783 -0.7409 -0.0987 -0.5510
15941SOL    HW159547   6.205   6.163   6.820  0.3265  0.0240  0.1009
15941SOL    HW259548   6.245   6.235   6.693 -3.3672 -0.3997 -1.4216
15942SOL     OW59549   7.854   1.304   4.354  0.0836  0.5606 -0.4203
15942SOL    HW159550   7.866   1.212   4.332 -0.7518  0.5773 -0.9871
15942SOL    HW259551   7.932   1.327   4.405 -0.2739 -0.7897  0.8103
15943SOL     OW59552   6.969   5.777   3.387 -0.8215 -0.2540 -0.6095
15943SOL    HW159553   6.989   5.789   3.480  1.6475 -0.4124 -1.0335
15943SOL    HW259554   6.906   5.705   3.385 -1.4039  0.1738  0.9627
15944SOL     OW59555   5.151  11.905  10.419 -0.4581 -0.2720 -1.0075
15944SOL    HW159556   5.164  11.907  10.513  1.0585  0.4438 -1.1902
15944SOL    HW259557   5.074  11.959  10.403  1.0540  2.2119 -0.3826
15945SOL     OW59558   2.793   8.682  11.726  0.8293 -0.1940 -0.4708
15945SOL    HW159559   2.745   8.719  11.800  0.2991 -0.2374 -0.7888
15945SOL    HW259560   2.741   8.707  11.649  2.3125  1.4427 -1.0199
15946SOL     OW59561  10.385   2.980   3.186  0.3647 -0.0381  0.1757
15946SOL    HW159562  10.424   2.922   3.121 -0.4922 -0.5670  0.1135
15946SOL    HW259563  10.452   2.989   3.254  2.4082  2.7292 -1.9939
15947SOL     OW59564   7.002  10.666   6.892 -0.2862  0.0696 -0.5410
15947SOL    HW159565   7.082  10.680   6.841 -0.8092 -1.1442 -1.7602
15947SOL    HW259566   7.032  10.642   6.979  0.6669  0.2464 -0.8131
15948SOL     OW59567   3.410   9.729   4.165 -0.1377 -0.2813 -0.1032
15948SOL    HW159568   3.466   9.667   4.212 -0.7761  1.1646  2.8013
15948SOL    HW259569   3.469   9.777   4.108  1.6118  0.7973  2.4304
15949SOL     OW59570   3.911   2.846   5.154 -0.6874  0.2491 -0.3102
15949SOL    HW159571   3.961   2.896   5.219 -1.1767 -0.2509  0.4440
15949SOL    HW259572   3.973   2.781   5.122 -0.9633 -0.6566  0.9437
15950SOL     OW59573   0.856   9.723   6.556 -0.1215  0.5459  0.1520
15950SOL    HW159574   0.913   9.751   6.484 -1.9149  0.7361 -1.2928
15950SOL    HW259575   0.814   9.804   6.585 -0.3540  0.2921  0.5265
15951SOL     OW59576   0.676   4.516   0.430 -0.1620 -0.0337 -0.0991
15951SOL    HW159577   0.611   4.580   0.402  0.9121  1.3820  0.4836
15951SOL    HW259578   0.629   4.433   0.434 -1.8857  0.9222  0.2395
15952SOL     OW59579   1.426  11.002   6.836 -0.0300 -0.0777  0.1621
15952SOL    HW159580   1.437  10.913   6.801  2.1744  0.2677 -0.1877
15952SOL    HW259581   1.459  11.059   6.767 -0.7260  0.9830  0.6849
15953SOL     OW59582   8.073   0.795   1.201  0.4433  0.0744  0.0176
15953SOL    HW159583   8.005   0.833   1.256  0.5895  0.3257  0.0236
15953SOL    HW259584   8.030   0.722   1.156  0.2141  0.1333  0.1433
15954SOL     OW59585   7.255  11.832   2.940 -0.1381 -0.8564  0.6308
15954SOL    HW159586   7.319  11.902   2.924 -0.5683 -1.1423 -3.2043
15954SOL    HW259587   7.182  11.875   2.983  0.1812  0.7938 -0.4111
15955SOL     OW59588   9.650   8.007  11.938 -0.0878  0.4553 -0.0167
15955SOL    HW159589   9.581   8.048  11.886  1.3370  2.3899 -0.4819
15955SOL    HW259590   9.673   7.928  11.889 -0.8699  0.6244 -0.6799
15956SOL     OW59591   3.686   2.591   2.906 -0.0159 -0.0636 -0.1136
15956SOL    HW159592   3.689   2.683   2.932  1.0989 -0.1520  0.1382
15956SOL    HW259593   3.607   2.557   2.948 -0.0015  0.5812  0.4551
15957SOL     OW59594   8.576   6.569  11.416 -0.0998 -0.7648 -0.4708
15957SOL    HW159595   8.607   6.503  11.478  1.2179 -0.3214 -0.6320
15957SOL    HW259596   8.598   6.535  11.330 -0.2236 -0.5157 -0.6029
15958SOL     OW59597  11.527   6.527  11.533 -0.0254  0.2427  0.0538
15958SOL    HW159598  11.549   6.500  11.622 -2.0627 -2.6491 -0.1594
15958SOL    HW259599  11.434   6.552  11.538 -0.5076 -1.0935 -1.4240
15959SOL     OW59600   2.177   1.317   6.456 -0.1949  0.3979 -0.1176
15959SOL    HW159601   2.232   1.288   6.383  3.0830  2.5474  1.2282
15959SOL    HW259602   2.168   1.411   6.444 -1.3857  0.4905  1.1613
15960SOL     OW59603   0.118   6.487   3.962  0.5763  0.1097 -0.7806
15960SOL    HW159604   0.213   6.485   3.949  0.6616  1.7599 -0.6192
15960SOL    HW259605   0.104   6.431   4.038  1.5029  0.3015 -0.4484
15961SOL     OW59606   4.570   1.808   1.425  0.2109 -0.0136 -0.2788
15961SOL    HW159607   4.501   1.803   1.359 -1.1729  1.1195  1.0250
15961SOL    HW259608   4.646   1.839   1.377 -0.4209 -0.3673 -1.5653
15962SOL     OW59609   1.190   4.850   3.683  0.0513 -0.2610  0.2829
15962SOL    HW159610   1.110   4.852   3.629  0.6228  2.2067 -0.6107
15962SOL    HW259611   1.171   4.910   3.755  0.4261 -1.1672  1.1538
15963SOL     OW59612   4.920   2.213   3.032  0.2551  0.1068  0.4813
15963SOL    HW159613   4.980   2.149   2.995  1.6939  1.7448 -0.1737
15963SOL    HW259614   4.851   2.161   3.073 -0.3441 -1.8784 -2.6761
15964SOL     OW59615   5.715   5.785   8.882 -0.1114  0.4140 -0.2545
15964SOL    HW159616   5.741   5.694   8.892 -0.8868  0.1057 -0.9643
15964SOL    HW259617   5.797   5.834   8.887  0.5509 -0.4726 -1.8334
15965SOL     OW59618   7.030   7.191   7.077 -0.5604 -0.4499 -0.6044
15965SOL    HW159619   7.052   7.270   7.027 -0.4622 -1.3067 -1.9615
15965SOL    HW259620   6.988   7.133   7.013 -3.2281 -0.4438  0.9697
15966SOL     OW59621   7.616   7.829   8.319 -0.0686  0.3809 -0.2657
15966SOL    HW159622   7.533   7.870   8.294  0.1897  0.4010 -1.0964
15966SOL    HW259623   7.682   7.897   8.305  0.2329  0.0115 -0.6678
15967SOL     OW59624   4.631   4.539   0.361 -0.5059 -0.2940  0.3063
15967SOL    HW159625   4.613   4.523   0.269  2.0273 -1.6353 -0.0491
15967SOL    HW259626   4.723   4.565   0.364 -0.8764  1.0582  2.3555
15968SOL     OW59627   8.745   3.015   0.590  0.2902 -0.9427 -0.0495
15968SOL    HW159628   8.738   3.081   0.659 -0.3294 -0.6467 -0.3931
15968SOL    HW259629   8.821   2.962   0.616  1.4997  0.5695 -0.3484
15969SOL     OW59630   5.412  10.072   7.699  0.0256  0.3483 -0.0393
15969SOL    HW159631   5.352  10.091   7.626  1.3186 -1.4231 -1.6695
15969SOL    HW259632   5.439   9.982   7.684  2.2083  0.7267  1.2889
15970SOL     OW59633   8.738  11.176   6.640  0.3114 -0.0825  0.1729
15970SOL    HW159634   8.692  11.224   6.571 -0.5591  1.4029  1.7172
15970SOL    HW259635   8.695  11.203   6.721  0.6972 -2.4608  1.2651
15971SOL     OW59636   6.144   0.211   4.978 -0.3654 -0.1747  0.3987
15971SOL    HW159637   6.193   0.179   5.054  0.0175 -0.5694 -0.0015
15971SOL    HW259638   6.101   0.133   4.943 -0.7653  0.0564  0.3732
15972SOL     OW59639   3.225   7.208   1.899  0.2227 -0.0854  0.2498
15972SOL    HW159640   3.162   7.264   1.944  1.4907 -0.1343  2.2039
15972SOL    HW259641   3.238   7.134   1.959  0.9439 -0.8678 -0.8427
15973SOL     OW59642   0.829  10.220   9.765  0.5006  0.1756  0.4622
15973SOL    HW159643   0.762  10.158   9.793  0.6743 -0.5122 -0.5815
15973SOL    HW259644   0.780  10.293   9.728  0.3058  0.3543  1.0693
15974SOL     OW59645  11.860   2.991  11.156  0.3507 -0.4703  0.2402
15974SOL    HW159646  11.949   2.995  11.191  0.1292 -1.0843  0.9143
15974SOL    HW259647  11.827   3.081  11.166 -0.0716 -0.8252  2.6952
15975SOL     OW59648   4.682   9.689  11.495 -0.4844  0.0154 -0.2461
15975SOL    HW159649   4.774   9.669  11.513 -0.6228  0.2661  0.8153
15975SOL    HW259650   4.660   9.634  11.420  0.3088 -0.6614  0.0007
15976SOL     OW59651   9.220  11.333  10.615  0.0725  0.1727 -0.0635
15976SOL    HW159652   9.226  11.404  10.551  0.3110  0.5445  0.3578
15976SOL    HW259653   9.198  11.256  10.564  0.1183  0.4901 -0.5723
15977SOL     OW59654   1.036   5.884   3.904 -0.2560  0.1298  0.1374
15977SOL    HW159655   1.022   5.805   3.853 -0.2080  1.1034 -1.4471
15977SOL    HW259656   1.123   5.915   3.878 -0.5724  1.0872  0.1551
15978SOL     OW59657  10.141   0.315   0.360 -0.0318 -0.1353 -0.7086
15978SOL    HW159658  10.228   0.280   0.379 -0.4555 -0.5766  0.4829
15978SOL    HW259659  10.125   0.378   0.430 -0.4825  0.3157 -1.2038
15979SOL     OW59660   4.417   2.481   5.975 -0.0608  0.0258 -0.5349
15979SOL    HW159661   4.483   2.550   5.976 -0.8437  0.8419 -2.1206
15979SOL    HW259662   4.346   2.515   5.920 -2.0738 -0.5965  1.4687
15980SOL     OW59663   9.224   2.336   7.988 -0.1158 -0.7065  0.0981
15980SOL    HW159664   9.215   2.308   8.079  0.0887 -1.4821 -0.1145
15980SOL    HW259665   9.178   2.270   7.937  2.3128 -1.9934 -0.5953
15981SOL     OW59666   8.628   3.641   7.823 -0.6938 -0.3980 -0.7810
15981SOL    HW159667   8.627   3.550   7.792 -0.0390 -1.0504  0.9686
15981SOL    HW259668   8.656   3.692   7.747  0.3089 -1.8446 -1.4292
15982SOL     OW59669   0.763   2.934   4.028  0.4641 -0.5469 -0.2717
15982SOL    HW159670   0.703   2.886   4.085  2.2303 -1.8176  0.6345
15982SOL    HW259671   0.803   3.000   4.085  2.2081 -1.7949  0.0516
15983SOL     OW59672   5.905   5.968   7.076 -0.0842 -0.0292  0.0093
15983SOL    HW159673   5.894   6.015   7.159 -0.4962 -0.9678  0.4988
15983SOL    HW259674   5.899   6.036   7.010  3.2111  1.2148  0.8251
15984SOL     OW59675   6.413   5.436   6.643  0.5699  0.2849 -0.2756
15984SOL    HW159676   6.422   5.358   6.589  0.1818  0.2813 -0.3385
15984SOL    HW259677   6.469   5.502   6.601  1.3724 -0.1265  0.1108
15985SOL     OW59678   6.683   2.176   2.412  0.3151 -0.3334 -0.2836
15985SOL    HW159679   6.636   2.101   2.374  0.3671 -0.3872 -0.2422
15985SOL    HW259680   6.714   2.144   2.497  1.1971 -0.5854 -0.6957
15986SOL     OW59681   6.895   0.247   4.424  0.2506 -0.3781 -0.0307
15986SOL    HW159682   6.866   0.211   4.340  0.1261 -1.0184  0.2753
15986SOL    HW259683   6.876   0.340   4.419  0.8967 -0.2833 -0.9864
15987SOL     OW59684   8.482  10.245   5.073  0.2906  0.4646 -0.0330
15987SOL    HW159685   8.460  10.218   5.163 -1.3668 -1.8472 -1.0454
15987SOL    HW259686   8.576  10.263   5.077  0.3292  0.1401  2.0898
15988SOL     OW59687   0.028   7.584  10.614 -0.1770 -0.4987 -0.2053
15988SOL    HW159688   0.072   7.605  10.531 -2.3064 -0.7998 -1.4870
15988SOL    HW259689   0.019   7.489  10.613 -3.6052 -0.3081 -1.6049
15989SOL     OW59690   4.568   2.323   1.531  0.3155 -0.4112  0.3074
15989SOL    HW159691   4.625   2.391   1.495 -2.5506  1.5731 -0.9053
15989SOL    HW259692   4.552   2.264   1.458 -1.7598  0.9771 -0.4600
15990SOL     OW59693   5.989   9.044   3.682  0.4106 -0.3401 -0.1644
15990SOL    HW159694   6.059   9.098   3.645  0.7564 -0.0253  0.9078
15990SOL    HW259695   6.035   8.978   3.734 -0.0886  0.8277  1.8567
15991SOL     OW59696   6.887   8.738   9.339 -0.2413 -0.2091 -0.4496
15991SOL    HW159697   6.797   8.707   9.327 -0.4374  0.3267 -0.3614
15991SOL    HW259698   6.879   8.827   9.372  0.3237 -0.1064 -0.5642
15992SOL     OW59699   1.731   0.707  11.530  0.1159 -0.1848 -0.3500
15992SOL    HW159700   1.790   0.710  11.454  1.2539  2.4395  0.5041
15992SOL    HW259701   1.667   0.777  11.513 -0.3363 -0.3587  0.5609
15993SOL     OW59702   3.139   9.824  11.854 -0.9160 -0.0410 -0.4578
15993SOL    HW159703   3.199   9.813  11.780 -0.3980 -2.8993  0.2751
15993SOL    HW259704   3.107   9.736  11.873 -1.5670  0.6848  2.2789
15994SOL     OW59705   3.006   6.322   7.807  0.0787 -0.5710 -0.1000
15994SOL    HW159706   3.077   6.269   7.773 -0.0374 -0.3413 -0.7005
15994SOL    HW259707   3.014   6.406   7.762  2.3549  1.2345  3.2207
15995SOL     OW59708   0.094  11.237   5.939 -0.3661  0.2581 -0.6781
15995SOL    HW159709   0.032  11.207   6.006  0.1305  2.0644  0.6518
15995SOL    HW259710   0.167  11.176   5.947 -0.7161 -0.1162 -0.2272
15996SOL     OW59711   7.666   2.506  11.588 -0.4796  0.4809 -0.3100
15996SOL    HW159712   7.704   2.513  11.501 -0.0778  0.2422 -0.1552
15996SOL    HW259713   7.630   2.594  11.605 -0.5822  0.5199 -0.7215
15997SOL     OW59714  10.494   2.932  11.859 -0.1955  0.0344  0.0057
15997SOL    HW159715  10.532   2.846  11.878 -1.3062 -0.6571 -0.7995
15997SOL    HW259716  10.535   2.990  11.922 -0.1619 -1.2739  1.2500
15998SOL     OW59717   4.367   4.546   5.836  0.4788 -0.5544  0.3737
15998SOL    HW159718   4.328   4.465   5.805 -0.3305 -0.2550  0.5878
15998SOL    HW259719   4.412   4.521   5.917  0.0796 -0.7618  0.5354
15999SOL     OW59720   4.249   1.141   1.843 -0.0345 -0.4526  0.2651
15999SOL    HW159721   4.165   1.104   1.872 -0.4640 -0.0207 -0.3945
15999SOL    HW259722   4.236   1.236   1.850 -0.1787 -0.3240 -1.3820
16000SOL     OW59723   0.823   4.284   4.915  0.7341  0.1892  0.5913
16000SOL    HW159724   0.830   4.188   4.917  0.1113  0.1295  3.1808
16000SOL    HW259725   0.869   4.309   4.835  1.6224 -2.2060  0.2576
16001SOL     OW59726   9.604   1.462   8.442  0.2903  0.4318  0.2258
16001SOL    HW159727   9.623   1.509   8.523 -0.4354 -0.6582  1.0546
16001SOL    HW259728   9.690   1.442   8.406  0.6520  0.0688  1.2446
16002SOL     OW59729   7.796   0.349   4.813 -0.2721  0.1988 -0.2422
16002SOL    HW159730   7.804   0.259   4.781  0.5799 -0.5246  1.8146
16002SOL    HW259731   7.751   0.396   4.743 -3.1478 -2.4324 -0.3721
16003SOL     OW59732   9.053   2.027  10.460 -0.0301  0.1778 -0.8110
16003SOL    HW159733   8.995   1.970  10.511  0.2693 -0.6577 -1.3868
16003SOL    HW259734   9.122   1.969  10.427  1.2895  1.1978  0.0611
16004SOL     OW59735   4.854   1.267   9.752  0.6459 -0.7594  0.4732
16004SOL    HW159736   4.813   1.303   9.674 -0.4161 -2.1308  0.3408
16004SOL    HW259737   4.942   1.304   9.754  1.2706 -1.8927 -2.2585
16005SOL     OW59738   0.156   3.204   3.752 -0.5014 -0.0765 -0.4400
16005SOL    HW159739   0.249   3.229   3.753 -0.2893 -0.7428 -1.4795
16005SOL    HW259740   0.123   3.241   3.670 -0.9402 -0.5828 -0.4968
16006SOL     OW59741   7.954   7.088   7.464 -0.3542  0.3154  0.0428
16006SOL    HW159742   7.893   7.062   7.533 -0.0692  0.0932  0.2100
16006SOL    HW259743   7.986   7.174   7.491 -0.7271  0.5121 -0.1350
16007SOL     OW59744   2.043   0.857   8.906  0.1651  0.4103 -0.4014
16007SOL    HW159745   1.994   0.807   8.971  0.5677 -0.0949 -0.4800
16007SOL    HW259746   1.993   0.938   8.895  0.2017  0.5845  0.6715
16008SOL     OW59747   8.202   0.287   2.024  0.5665 -0.1117  0.0328
16008SOL    HW159748   8.288   0.258   2.055  0.0569 -0.8447  0.7905
16008SOL    HW259749   8.217   0.308   1.931  1.5726 -0.1684  0.1625
16009SOL     OW59750   0.712   7.420  10.459 -0.1782  0.4912 -0.1659
16009SOL    HW159751   0.740   7.363  10.387  0.3256  0.4191  0.0838
16009SOL    HW259752   0.617   7.422  10.452 -0.1428  0.3600 -0.7436
16010SOL     OW59753   3.578   0.297  11.018  0.0028 -0.4612 -0.4426
16010SOL    HW159754   3.653   0.350  11.047  0.1744 -0.3617 -1.0530
16010SOL    HW259755   3.507   0.359  11.008  0.1188 -0.3906 -0.8516
16011SOL     OW59756   4.701   1.608   5.485  0.1701 -0.5937  0.5153
16011SOL    HW159757   4.645   1.631   5.411 -1.7359 -1.6115  1.5603
16011SOL    HW259758   4.787   1.643   5.462 -1.1170  2.0758 -0.6677
16012SOL     OW59759   6.438   6.373   7.300 -0.1093 -0.1912 -0.6184
16012SOL    HW159760   6.343   6.379   7.312  0.0253 -0.5391  0.8726
16012SOL    HW259761   6.450   6.295   7.246 -0.8311  2.0484 -4.3826
16013SOL     OW59762   9.717   2.639   3.356  0.0101  0.2650  0.2235
16013SOL    HW159763   9.783   2.628   3.425  0.4810  0.0992 -0.2468
16013SOL    HW259764   9.642   2.676   3.401 -0.1956 -1.1637  1.1088
16014SOL     OW59765   4.550   2.157   3.756 -0.5464 -0.1806  0.4844
16014SOL    HW159766   4.537   2.062   3.754 -1.5746 -0.0564  0.6646
16014SOL    HW259767   4.486   2.192   3.695  1.1513  0.2975 -1.1027
16015SOL     OW59768   9.389  11.810  11.712 -0.0449 -0.0627  0.5105
16015SOL    HW159769   9.378  11.855  11.628 -0.5445 -0.5693  0.2891
16015SOL    HW259770   9.421  11.723  11.688 -0.2927 -0.2457  0.8320
16016SOL     OW59771  11.678  11.435  11.385 -0.4210 -0.2472  0.6417
16016SOL    HW159772  11.774  11.435  11.385 -0.4137 -1.1053  0.9300
16016SOL    HW259773  11.654  11.442  11.293 -0.0311 -3.2726  0.2031
16017SOL     OW59774   1.790   5.264   6.215  0.5312 -0.1653  0.6208
16017SOL    HW159775   1.776   5.221   6.300 -0.7569 -1.1288 -0.0417
16017SOL    HW259776   1.796   5.192   6.153  0.2220  0.5593 -0.2667
16018SOL     OW59777   8.455   0.097   1.896 -0.0438 -0.5574  0.4638
16018SOL    HW159778   8.540   0.079   1.857  0.5500 -0.0777  1.4818
16018SOL    HW259779   8.392   0.079   1.827  0.8748 -1.0650 -0.2602
16019SOL     OW59780   2.536  10.236   5.018  0.0870 -0.0576  0.1229
16019SOL    HW159781   2.546  10.161   4.959  1.5824 -0.1960  0.4916
16019SOL    HW259782   2.600  10.300   4.986 -0.2209  0.5060  0.6222
16020SOL     OW59783   6.263  11.501   5.036  0.2078  0.6658 -0.6655
16020SOL    HW159784   6.352  11.531   5.016  0.5220  0.9078  0.9943
16020SOL    HW259785   6.271  11.406   5.044  0.4812  0.7589  0.2341
16021SOL     OW59786   5.411   9.855   6.234  0.1889 -0.4627  0.2570
16021SOL    HW159787   5.490   9.815   6.198 -0.0476 -0.4447 -0.2977
16021SOL    HW259788   5.421   9.949   6.216  0.5618 -0.3163  1.2029
16022SOL     OW59789   2.593  10.184   8.274  0.1762 -0.3573  0.2803
16022SOL    HW159790   2.649  10.197   8.198  0.6013  1.9829  0.9339
16022SOL    HW259791   2.546  10.103   8.255  0.7131 -0.1646 -2.1910
16023SOL     OW59792   2.099   0.039  11.341 -0.5265 -0.5018  0.2894
16023SOL    HW159793   2.049  -0.007  11.273  1.4911  1.3915 -2.7456
16023SOL    HW259794   2.189   0.007  11.330  0.8137  3.2472 -1.4450
16024SOL     OW59795   1.353   3.697   1.006 -0.2213 -0.3294  0.6540
16024SOL    HW159796   1.379   3.761   0.939 -1.0374 -0.0308  0.6092
16024SOL    HW259797   1.326   3.620   0.956 -0.9424 -0.0644  0.6317
16025SOL     OW59798  10.905   4.563   1.937  0.2194  0.3595 -0.1278
16025SOL    HW159799  10.978   4.532   1.990  1.1546 -0.4978 -1.8302
16025SOL    HW259800  10.865   4.633   1.989  0.5508 -0.9713  2.0364
16026SOL     OW59801  10.002   9.433  10.273  0.4993 -0.5754  0.2155
16026SOL    HW159802  10.018   9.362  10.210 -0.1749 -0.2003 -0.3943
16026SOL    HW259803   9.952   9.498  10.224  0.0672 -0.2131  1.1061
16027SOL     OW59804   7.530   5.285   9.682 -0.1385 -0.1522 -0.1996
16027SOL    HW159805   7.580   5.306   9.761 -1.7142  1.6791  0.3912
16027SOL    HW259806   7.513   5.370   9.641 -1.2211 -0.8742 -1.3206
16028SOL     OW59807   5.258   5.776   8.879  0.0115 -0.5773 -0.2457
16028SOL    HW159808   5.284   5.710   8.815  1.0399 -0.9902  0.5513
16028SOL    HW259809   5.336   5.831   8.889  0.4893 -1.5293  1.8388
16029SOL     OW59810   5.374   6.079   3.059  0.4263  0.3778 -0.0929
16029SOL    HW159811   5.439   6.101   3.125  0.1078  3.8017 -0.7667
16029SOL    HW259812   5.419   6.093   2.976  0.2967 -2.2110 -0.6912
16030SOL     OW59813   1.560   5.149   6.928 -0.7511 -0.3336  0.2018
16030SOL    HW159814   1.502   5.094   6.877  0.9772 -0.8834 -1.2647
16030SOL    HW259815   1.614   5.087   6.979 -0.7557  0.1205  0.7761
16031SOL     OW59816   4.429   1.088   7.181  0.3442 -0.2255  0.1428
16031SOL    HW159817   4.433   1.157   7.247  1.0835  0.1668 -0.2978
16031SOL    HW259818   4.399   1.133   7.102  0.2485 -0.5343  0.0005
16032SOL     OW59819   9.283   4.010   3.995 -0.4960  0.1790 -0.9557
16032SOL    HW159820   9.341   3.990   4.068 -0.5282 -0.2083 -1.0309
16032SOL    HW259821   9.301   4.101   3.974 -0.6014  0.3388 -0.3639
16033SOL     OW59822   9.825   2.610   3.682  0.7642  0.0653 -0.7164
16033SOL    HW159823   9.776   2.539   3.641 -1.3457  2.0320 -1.8199
16033SOL    HW259824   9.876   2.649   3.611  0.9185  0.4560 -0.4013
16034SOL     OW59825  10.248   8.636   7.943 -0.0561 -0.7932  0.5276
16034SOL    HW159826  10.154   8.644   7.926 -0.1902 -1.2489  1.0452
16034SOL    HW259827  10.268   8.544   7.928  0.4374 -0.5857 -0.1720
16035SOL     OW59828   7.528   0.137  11.314  0.0700 -0.2644  0.1908
16035SOL    HW159829   7.435   0.158  11.328 -0.4233 -1.1994 -1.3470
16035SOL    HW259830   7.555   0.196  11.244  0.7860  0.3248  0.9518
16036SOL     OW59831   4.674   1.598   2.636 -0.6882 -0.4649  0.2487
16036SOL    HW159832   4.596   1.648   2.613  0.2294 -0.7058 -4.3387
16036SOL    HW259833   4.667   1.517   2.585  2.3342 -0.6492 -0.0966
16037SOL     OW59834   4.668  11.139   5.506 -0.0514 -0.1171 -0.5382
16037SOL    HW159835   4.627  11.113   5.423 -1.0457  2.3891 -0.9132
16037SOL    HW259836   4.602  11.191   5.551  1.5846  1.3666  0.3032
16038SOL     OW59837   7.055   5.950  11.281  0.2511  1.3522 -0.1602
16038SOL    HW159838   6.981   6.009  11.293 -0.0665  0.9013  0.1116
16038SOL    HW259839   7.131   6.002  11.306 -0.2335  0.9232  2.5035
16039SOL     OW59840  10.532   9.995  11.138  0.5773 -0.0332 -0.3693
16039SOL    HW159841  10.568  10.045  11.065  0.2886 -0.5874 -0.9016
16039SOL    HW259842  10.607   9.973  11.192  0.7788  0.4679 -0.4403
16040SOL     OW59843   6.449  10.069   2.581  0.2465 -0.5507 -0.0826
16040SOL    HW159844   6.477   9.979   2.600  0.1011  0.0439  3.8987
16040SOL    HW259845   6.526  10.123   2.601  0.4521  0.3117 -2.7647
16041SOL     OW59846  11.524   5.174   8.557 -0.6161  0.5200  0.3654
16041SOL    HW159847  11.545   5.266   8.542 -1.4139  0.5138 -0.9319
16041SOL    HW259848  11.465   5.175   8.632  1.3502  0.8035  2.0157
16042SOL     OW59849   6.641   6.251  11.512 -0.5680 -0.3156  0.5235
16042SOL    HW159850   6.640   6.347  11.509  0.1491 -0.3223  0.0535
16042SOL    HW259851   6.595   6.230  11.594  0.3137  0.4599  1.2483
16043SOL     OW59852   4.246  11.040   4.313  0.0931 -0.0172  0.5060
16043SOL    HW159853   4.199  10.976   4.367  0.8782 -0.5011  0.6241
16043SOL    HW259854   4.278  10.989   4.238  0.6270  0.2668  0.5418
16044SOL     OW59855   6.500   6.275   8.254 -0.1461 -0.3079 -0.1499
16044SOL    HW159856   6.468   6.364   8.267 -0.8034 -0.4859 -0.5216
16044SOL    HW259857   6.547   6.255   8.335  0.8218  0.7058 -0.4264
16045SOL     OW59858   0.857   7.905   6.541 -0.0070 -0.1837 -0.8662
16045SOL    HW159859   0.926   7.944   6.486 -1.2539  1.4499 -1.3698
16045SOL    HW259860   0.873   7.941   6.628  0.7037 -1.0790 -0.6157
16046SOL     OW59861  10.235   4.781  11.773 -0.4465  0.4617  0.2964
16046SOL    HW159862  10.162   4.811  11.719 -0.7875  0.5000  0.7650
16046SOL    HW259863  10.303   4.754  11.711 -0.9841  0.1229 -0.1489
16047SOL     OW59864   5.538   8.450  10.952  0.2765 -0.0194 -0.2005
16047SOL    HW159865   5.490   8.515  10.901  0.6558  0.6719  0.2964
16047SOL    HW259866   5.561   8.496  11.033  0.4337 -0.8238  0.2186
16048SOL     OW59867   5.663   2.988   7.535 -0.0112 -0.1778  0.0004
16048SOL    HW159868   5.739   3.024   7.490  0.7821  0.1260  1.5023
16048SOL    HW259869   5.655   3.040   7.615 -2.9869  1.0777 -0.9690
16049SOL     OW59870   1.233   5.832   4.206 -0.2263 -0.1164 -0.2514
16049SOL    HW159871   1.216   5.756   4.151 -0.2262  0.4263 -1.0166
16049SOL    HW259872   1.159   5.836   4.266 -0.2946 -0.6369 -0.2985
16050SOL     OW59873   7.164   8.683   7.265  0.4351 -0.2596 -0.2336
16050SOL    HW159874   7.074   8.662   7.240 -0.0128 -0.9115  1.7346
16050SOL    HW259875   7.191   8.749   7.202 -2.1707  1.5402  0.3366
16051SOL     OW59876  10.889  11.459   2.824  0.0586 -0.9234  0.2964
16051SOL    HW159877  10.951  11.517   2.869  1.8088 -0.1300 -2.8296
16051SOL    HW259878  10.928  11.372   2.831 -0.0053 -0.9118  0.8207
16052SOL     OW59879  10.968  11.429   0.290  0.1833  0.3663  0.5285
16052SOL    HW159880  10.885  11.426   0.242 -0.0825  1.1454  0.9081
16052SOL    HW259881  10.947  11.391   0.376  0.3496  0.1005  0.4528
16053SOL     OW59882   8.870   7.231  10.391 -0.0447 -0.0304  0.2771
16053SOL    HW159883   8.823   7.250  10.310 -2.1651  0.8800  1.6362
16053SOL    HW259884   8.820   7.161  10.432  1.0161 -0.4954  0.8066
16054SOL     OW59885   9.935   7.079   1.137 -0.3884  0.7718  0.4338
16054SOL    HW159886   9.974   7.072   1.049  0.8583  1.6367  0.8950
16054SOL    HW259887   9.951   7.170   1.163 -1.7391  0.8359  1.1266
16055SOL     OW59888   8.404   8.529   5.029 -0.5158  0.0755  0.6725
16055SOL    HW159889   8.383   8.475   5.106  0.1341 -0.4843  0.4652
16055SOL    HW259890   8.469   8.477   4.981 -1.8012 -0.1216 -0.8948
16056SOL     OW59891   3.737   8.758   5.790 -0.9512 -0.2221 -0.5441
16056SOL    HW159892   3.667   8.821   5.806 -2.7564 -2.4949  1.1217
16056SOL    HW259893   3.762   8.727   5.877  1.4165 -0.2684 -1.1774
16057SOL     OW59894   4.141  10.102  10.068 -0.6248  0.8013 -0.2624
16057SOL    HW159895   4.186  10.064   9.993 -2.6854  1.8140 -2.1324
16057SOL    HW259896   4.132  10.195  10.046  1.0729  1.7323  2.5056
16058SOL     OW59897   8.366   5.176   4.117 -0.2753 -0.2417 -0.0226
16058SOL    HW159898   8.325   5.261   4.102 -2.2410 -1.2664 -0.9970
16058SOL    HW259899   8.301   5.126   4.167  0.9914 -1.0644  0.8694
16059SOL     OW59900   0.864   8.175   1.512 -0.8143  0.7632 -0.1452
16059SOL    HW159901   0.792   8.173   1.575 -1.5326 -1.2944 -0.9551
16059SOL    HW259902   0.856   8.093   1.464  2.2360  0.3749 -0.1468
16060SOL     OW59903   8.380  11.267   5.684 -0.3491 -0.3673  0.0103
16060SOL    HW159904   8.290  11.286   5.708 -0.1084 -0.0630  0.7247
16060SOL    HW259905   8.384  11.172   5.675 -0.6641 -0.4074  0.3030
16061SOL     OW59906   7.331   3.894  10.025  0.0052 -0.7005  0.2548
16061SOL    HW159907   7.426   3.899  10.036 -0.0906  0.0957  0.8487
16061SOL    HW259908   7.310   3.970   9.971 -0.3432 -0.5782  0.5556
16062SOL     OW59909   8.615   2.593   4.010 -0.1086 -0.2055  0.0616
16062SOL    HW159910   8.546   2.535   3.977 -1.4477  1.6455 -0.5711
16062SOL    HW259911   8.686   2.584   3.947 -0.7968 -0.2514 -0.7303
16063SOL     OW59912  11.414   0.671   8.586  0.6843  0.3818  0.1895
16063SOL    HW159913  11.494   0.724   8.587  1.1102 -0.2659  0.7346
16063SOL    HW259914  11.396   0.657   8.493  2.8302 -1.8892  0.0383
16064SOL     OW59915  10.968   7.407   6.926 -0.1908  0.0121  0.4074
16064SOL    HW159916  10.899   7.438   6.985 -2.0135  0.5230 -1.8060
16064SOL    HW259917  10.979   7.478   6.863  0.0494 -1.3456 -1.1470
16065SOL     OW59918  11.659  11.222  10.101  0.1007  0.1233 -0.0284
16065SOL    HW159919  11.594  11.160  10.132 -0.5364  0.9362  0.2916
16065SOL    HW259920  11.714  11.172  10.041 -0.7790 -0.5891 -0.2492
16066SOL     OW59921   0.885  11.354   3.075  0.7096 -0.3244 -0.0606
16066SOL    HW159922   0.900  11.345   2.981 -1.4707 -2.4184 -0.3000
16066SOL    HW259923   0.922  11.274   3.113  0.2560 -0.1972  0.6711
16067SOL     OW59924   0.920   4.403   6.591 -0.1101 -0.1135  0.2801
16067SOL    HW159925   0.920   4.479   6.534 -0.3589 -0.6450 -0.4455
16067SOL    HW259926   1.004   4.407   6.637  1.2782 -1.0243 -1.9862
16068SOL     OW59927   3.837  11.488   4.287 -0.1325 -0.2199  0.2016
16068SOL    HW159928   3.920  11.443   4.272  0.4379  0.9099 -0.1306
16068SOL    HW259929   3.783  11.466   4.211  0.0987 -0.4547  0.1056
16069SOL     OW59930  10.369   6.274  11.257 -0.2198 -0.0765  0.2843
16069SOL    HW159931  10.284   6.233  11.275  0.3954 -0.6074  2.1269
16069SOL    HW259932  10.347   6.363  11.228 -1.4497 -0.7573 -1.0133
16070SOL     OW59933   8.440   3.364   1.759 -0.0598  0.1006 -0.1106
16070SOL    HW159934   8.459   3.387   1.668  0.2513 -0.4378 -0.1879
16070SOL    HW259935   8.423   3.447   1.802  1.4300  0.5406 -0.2942
16071SOL     OW59936   8.888   5.628  10.514  0.1893 -0.3681 -0.4366
16071SOL    HW159937   8.866   5.698  10.576 -0.9324 -3.0530  2.4655
16071SOL    HW259938   8.969   5.591  10.548 -1.0032 -2.5818  0.1963
16072SOL     OW59939   4.836   1.397   0.014 -0.0029 -0.6595  0.2586
16072SOL    HW159940   4.762   1.379   0.073  0.1085 -1.7636  0.0819
16072SOL    HW259941   4.913   1.372   0.065  0.3849  1.6316  0.9010
16073SOL     OW59942   7.947  11.925   2.198  0.7179 -0.3310 -0.0926
16073SOL    HW159943   7.986  12.010   2.218 -0.3900 -0.0416  0.9647
16073SOL    HW259944   7.954  11.875   2.280  0.3675 -0.8509 -0.3719
16074SOL     OW59945   2.491   8.365  11.550  0.2834 -0.2373  0.3664
16074SOL    HW159946   2.441   8.355  11.468  0.1478  0.2911  0.3779
16074SOL    HW259947   2.564   8.305  11.541 -0.4547 -1.1590  0.4260
16075SOL     OW59948   7.232   2.839   4.611  0.3700  0.3946 -0.0816
16075SOL    HW159949   7.327   2.839   4.616  0.3102  0.1952  1.2377
16075SOL    HW259950   7.213   2.809   4.522  1.5273 -1.0925  0.1384
16076SOL     OW59951   5.229   9.222   1.273 -0.0812  0.2930 -0.2986
16076SOL    HW159952   5.169   9.254   1.205  0.7097 -1.0473 -1.7130
16076SOL    HW259953   5.204   9.130   1.286 -0.0599  0.4661  1.0618
16077SOL     OW59954   9.658   5.680  10.505 -0.4028 -0.4832 -0.5903
16077SOL    HW159955   9.570   5.667  10.470 -0.9973  0.0548  0.6517
16077SOL    HW259956   9.652   5.762  10.555  0.6445 -0.7535  0.0099
16078SOL     OW59957   6.559   1.978   2.278  0.2990 -0.8178  0.3326
16078SOL    HW159958   6.484   2.034   2.259  1.5507  1.1665  0.8789
16078SOL    HW259959   6.523   1.907   2.331 -0.6932  2.4138  4.5901
16079SOL     OW59960   5.655   3.481   3.867  0.2705 -0.1577 -0.2564
16079SOL    HW159961   5.652   3.431   3.948  0.0573 -0.4840 -0.4634
16079SOL    HW259962   5.741   3.463   3.830  0.4178  0.0921 -0.0441
16080SOL     OW59963  11.373   5.654  10.875 -0.1577  0.3508  0.3218
16080SOL    HW159964  11.313   5.702  10.932  0.1225 -0.1854  1.0795
16080SOL    HW259965  11.454   5.704  10.875  0.2418 -0.2678  1.3684
16081SOL     OW59966   1.775   9.055  11.314  0.1532  1.2899  0.2070
16081SOL    HW159967   1.832   9.083  11.242  0.8073  2.9711  1.2936
16081SOL    HW259968   1.696   9.022  11.271  1.6084 -0.4326 -1.3279
16082SOL     OW59969   5.003   0.362   3.141 -0.1320  0.0700 -0.0715
16082SOL    HW159970   5.096   0.378   3.132  0.0602 -0.6944  0.4474
16082SOL    HW259971   4.993   0.268   3.130 -0.9334  0.2208 -0.7887
16083SOL     OW59972   7.952   5.134   5.975 -0.0293 -0.2148  0.5696
16083SOL    HW159973   7.871   5.112   5.928 -1.1776  1.2907  1.7539
16083SOL    HW259974   7.991   5.049   5.996 -1.6288 -1.0082  0.5079
16084SOL     OW59975   0.325   1.461   7.405 -0.5444 -0.1694  0.1299
16084SOL    HW159976   0.354   1.395   7.468 -0.0466 -0.4130 -0.3477
16084SOL    HW259977   0.308   1.412   7.325 -1.8558  0.0422  0.2636
16085SOL     OW59978   1.118   5.355   8.272  0.4187 -0.2244  0.1905
16085SOL    HW159979   1.191   5.361   8.334 -0.1564 -2.6936  1.2648
16085SOL    HW259980   1.055   5.420   8.302  0.9542 -0.1005  1.0833
16086SOL     OW59981  10.303   8.374  10.712 -0.3758  1.1085  0.4750
16086SOL    HW159982  10.228   8.423  10.744 -0.2633  0.6608  1.4564
16086SOL    HW259983  10.352   8.350  10.790  0.1478  0.3628 -0.0588
16087SOL     OW59984   3.584   0.322  10.528  0.2644 -0.0886  0.0359
16087SOL    HW159985   3.651   0.369  10.577  2.0420 -0.3912 -1.9564
16087SOL    HW259986   3.629   0.291  10.449 -2.3619  0.2363 -1.7303
16088SOL     OW59987   9.271   4.389   3.822 -0.5025 -0.0691 -0.2191
16088SOL    HW159988   9.288   4.474   3.782  0.6404 -1.3511 -2.6796
16088SOL    HW259989   9.186   4.399   3.864 -0.8286  2.0187 -1.2609
16089SOL     OW59990   4.261   9.986   5.288 -0.4003  0.4445 -0.3542
16089SOL    HW159991   4.232   9.977   5.197  0.2758 -0.5143 -0.4954
16089SOL    HW259992   4.341   9.933   5.293  0.7496  2.1679  0.2946
16090SOL     OW59993   5.939   0.434   9.070 -0.1221  0.1976 -0.3526
16090SOL    HW159994   5.869   0.390   9.117  0.0512 -1.8583 -1.8894
16090SOL    HW259995   6.019   0.400   9.111  0.0458 -1.9869 -2.2697
16091SOL     OW59996   6.998   3.250   1.317  0.1799 -0.1755 -0.2144
16091SOL    HW159997   6.976   3.159   1.338  1.4328 -0.1471  1.5419
16091SOL    HW259998   7.092   3.248   1.299 -0.0899  0.5368 -1.8867
16092SOL     OW59999   5.209   8.735   0.105  0.7456  0.0221 -0.3713
16092SOL    HW160000   5.173   8.729   0.194 -0.4003 -0.2440 -0.8424
16092SOL    HW260001   5.204   8.647   0.070  1.5052  0.0589 -0.6034
16093SOL     OW60002   1.849  11.295   7.438  0.2594 -0.5329 -0.0080
16093SOL    HW160003   1.816  11.212   7.471  0.0174 -0.1033  0.8548
16093SOL    HW260004   1.842  11.287   7.343  0.0046 -1.4000  0.0747
16094SOL     OW60005   0.741   4.198   5.441 -0.4864 -0.4317 -0.5753
16094SOL    HW160006   0.724   4.282   5.398  0.8621 -0.1739 -0.6612
16094SOL    HW260007   0.656   4.170   5.475 -1.0362  0.7461 -0.9443
16095SOL     OW60008   3.094   4.484   2.049  0.2666  0.0195  0.1394
16095SOL    HW160009   3.127   4.567   2.082  3.1236 -1.4580  1.3886
16095SOL    HW260010   3.060   4.438   2.126 -1.6652  0.0988 -0.5963
16096SOL     OW60011  11.638   3.879   2.431 -0.9317  0.0389  0.4827
16096SOL    HW160012  11.630   3.928   2.512  1.4051  1.9638 -0.3117
16096SOL    HW260013  11.612   3.941   2.362 -0.3341 -0.6601 -0.4028
16097SOL     OW60014   9.380   1.103   3.037  0.2773  0.7268 -0.3714
16097SOL    HW160015   9.366   1.011   3.059  1.2617  0.4903 -0.7071
16097SOL    HW260016   9.321   1.151   3.095  0.7909 -0.0321  0.8057
16098SOL     OW60017   7.439   6.173   0.281  0.1781 -0.1094  0.2623
16098SOL    HW160018   7.413   6.094   0.328  1.3421 -0.4785  0.3074
16098SOL    HW260019   7.369   6.186   0.217  0.9136 -2.3270 -1.1091
16099SOL     OW60020   1.600  11.947   0.591 -0.6966 -0.8242  0.1210
16099SOL    HW160021   1.651  11.951   0.511 -0.6941 -1.0613  0.1103
16099SOL    HW260022   1.648  11.886   0.647  0.7062  1.2118  1.3021
16100SOL     OW60023   5.531   9.124   7.877 -0.0797  0.2765 -0.1748
16100SOL    HW160024   5.452   9.177   7.885 -0.7682 -0.7014 -0.3879
16100SOL    HW260025   5.541   9.109   7.783  0.9437  1.2438 -0.2405
16101SOL     OW60026   3.014   0.600   7.611  0.4218  0.2455  0.6911
16101SOL    HW160027   2.919   0.583   7.609  0.1554  1.6682  0.4193
16101SOL    HW260028   3.021   0.692   7.635  1.7242  0.3117  0.1016
16102SOL     OW60029   9.184  10.834   0.194 -0.2275 -0.1224  0.2071
16102SOL    HW160030   9.263  10.814   0.244 -0.2783  0.8535  0.7022
16102SOL    HW260031   9.165  10.926   0.216 -2.1617 -0.6812  1.0234
16103SOL     OW60032  10.702   0.918  11.753  0.0701 -0.0077  0.6981
16103SOL    HW160033  10.631   0.939  11.692 -0.5279 -1.7629  0.7586
16103SOL    HW260034  10.781   0.950  11.709 -0.3461 -1.2611 -1.0349
16104SOL     OW60035  10.311   2.817  11.660 -0.1592 -0.2512  0.2992
16104SOL    HW160036  10.308   2.901  11.614  0.2595 -0.2950  0.1850
16104SOL    HW260037  10.366   2.834  11.737 -2.6723  0.4368  2.0810
16105SOL     OW60038   6.193  10.755   8.516  0.6466 -0.2385  0.1096
16105SOL    HW160039   6.123  10.700   8.481 -0.2627  0.7891  0.2674
16105SOL    HW260040   6.160  10.786   8.601  2.1653 -1.4213  1.2142
16106SOL     OW60041   0.927   5.731   5.257  0.7893 -0.2126 -0.1473
16106SOL    HW160042   0.950   5.642   5.284  1.6665 -0.3036 -1.1598
16106SOL    HW260043   0.847   5.720   5.205 -0.3949 -0.1341  1.5903
16107SOL     OW60044  10.085   7.427   0.465 -0.3653 -0.4835  0.1989
16107SOL    HW160045  10.108   7.506   0.416  2.6133 -1.2461  0.1553
16107SOL    HW260046  10.023   7.457   0.532  0.6113  1.8964  0.1381
16108SOL     OW60047   6.189   7.560  11.505 -0.2062 -0.0965 -0.2666
16108SOL    HW160048   6.278   7.563  11.471 -0.3833 -1.8753 -0.9959
16108SOL    HW260049   6.133   7.558  11.426 -0.6972 -2.4388  0.0601
16109SOL     OW60050   7.041   5.684   9.832  0.1016 -0.7023  0.1875
16109SOL    HW160051   7.029   5.599   9.789  1.7344 -0.4362 -0.8907
16109SOL    HW260052   6.979   5.684   9.904 -1.3311 -1.9982 -0.9977
16110SOL     OW60053   5.740   4.075  10.418  0.2269 -0.1103 -0.0281
16110SOL    HW160054   5.804   4.135  10.455 -0.1133  0.7805 -0.8451
16110SOL    HW260055   5.793   4.010  10.370  0.5938 -0.4840  0.8633
16111SOL     OW60056   0.138   1.227  11.764  0.2854  0.3069  0.0567
16111SOL    HW160057   0.073   1.276  11.714 -0.1086  0.8424  1.0602
16111SOL    HW260058   0.168   1.289  11.831  0.4143 -0.5489  0.8091
16112SOL     OW60059   8.039   5.100  10.812  0.1815  0.5022  0.0013
16112SOL    HW160060   8.127   5.123  10.843  0.6568 -0.8128 -0.2873
16112SOL    HW260061   7.986   5.176  10.832  0.7952  0.3496  2.5853
16113SOL     OW60062   3.258   7.467  10.682 -0.4481 -0.1628  0.2761
16113SOL    HW160063   3.218   7.401  10.626  2.3477 -2.2445  0.4964
16113SOL    HW260064   3.315   7.517  10.623 -0.1028 -0.1006  0.6572
16114SOL     OW60065  10.379   9.224  10.326  0.0547 -0.1306  0.4828
16114SOL    HW160066  10.315   9.287  10.360  0.5350  0.7083 -0.1217
16114SOL    HW260067  10.456   9.277  10.307  0.0106 -0.6631 -1.3416
16115SOL     OW60068  11.302   8.616   5.613 -0.0781  0.0219 -0.4891
16115SOL    HW160069  11.261   8.646   5.694 -1.5648  0.4301 -1.3584
16115SOL    HW260070  11.333   8.528   5.634 -2.2052 -0.6708 -0.0060
16116SOL     OW60071   0.593  10.852   1.462  0.4833  0.6411 -0.2582
16116SOL    HW160072   0.521  10.800   1.426  1.1928  0.3921 -1.3443
16116SOL    HW260073   0.604  10.925   1.400  1.7233  0.1996 -0.5900
16117SOL     OW60074  11.949   3.930   0.494 -0.2693  0.6788  0.9666
16117SOL    HW160075  11.987   3.861   0.439  0.7387  1.3336  0.8137
16117SOL    HW260076  11.985   3.914   0.581  0.9508  1.6952  0.6835
16118SOL     OW60077   2.528   4.192   2.266 -0.0370 -0.5786  0.1691
16118SOL    HW160078   2.492   4.106   2.242  1.2912 -0.7608 -1.3409
16118SOL    HW260079   2.582   4.217   2.191 -1.1385  2.0431  0.1790
16119SOL     OW60080   0.086  11.845   7.133  0.1631  0.2430 -0.2684
16119SOL    HW160081   0.067  11.830   7.041  1.6153 -0.6714 -0.4531
16119SOL    HW260082   0.024  11.788   7.180  0.3359 -0.3436 -0.7328
16120SOL     OW60083   2.910   7.503   3.687  0.5100  0.6769 -0.1487
16120SOL    HW160084   2.942   7.539   3.604  0.1640 -1.2725 -1.2172
16120SOL    HW260085   2.898   7.409   3.668 -0.8802  0.4249  1.7208
16121SOL     OW60086  11.213   2.209   4.562 -0.7767  0.5194  0.3082
16121SOL    HW160087  11.290   2.175   4.608 -1.0752 -0.5585  0.0307
16121SOL    HW260088  11.139   2.167   4.604 -1.2340  1.5721  0.5870
16122SOL     OW60089   5.607   1.777   4.451 -0.5527 -0.0420 -0.2186
16122SOL    HW160090   5.638   1.819   4.371  0.5111  2.0163  1.1816
16122SOL    HW260091   5.615   1.844   4.519 -1.1579 -1.7756  1.6963
16123SOL     OW60092   2.297   8.200   9.222  0.0841 -0.2765  0.4748
16123SOL    HW160093   2.308   8.267   9.154 -0.0500  0.5190  1.2217
16123SOL    HW260094   2.209   8.214   9.256 -0.7380 -2.1261 -0.6883
16124SOL     OW60095   8.400   5.711  10.695  0.3579 -0.5558 -0.2366
16124SOL    HW160096   8.385   5.758  10.777  1.9010 -0.2358 -0.1076
16124SOL    HW260097   8.458   5.768  10.645  3.5658 -2.8605  0.5449
16125SOL     OW60098   1.310   6.417   6.122 -0.1031  0.2206  0.3798
16125SOL    HW160099   1.225   6.402   6.164 -0.6069  1.9151  0.0293
16125SOL    HW260100   1.308   6.509   6.096  2.0223  0.4190  0.7468
16126SOL     OW60101   2.720   9.753   4.126 -0.0324  0.3042  0.6324
16126SOL    HW160102   2.656   9.688   4.154  0.1684  0.8244  2.4221
16126SOL    HW260103   2.802   9.728   4.170  0.7961  0.1613 -0.9118
16127SOL     OW60104   6.952   9.885   5.795 -0.0814  0.0367 -0.4876
16127SOL    HW160105   6.941   9.825   5.721 -0.1442  0.1697 -0.5857
16127SOL    HW260106   6.890   9.853   5.860 -0.4894  0.3110 -0.7402
16128SOL     OW60107   6.504   9.874   2.874 -0.1139  0.9412 -0.0249
16128SOL    HW160108   6.533   9.959   2.905  0.4291 -0.1960  2.8594
16128SOL    HW260109   6.422   9.858   2.920  0.7164 -0.8346  0.9198
16129SOL     OW60110   7.238  10.787  10.409  0.2772 -0.2535 -0.2351
16129SOL    HW160111   7.208  10.697  10.401  0.0556 -0.5220  2.5271
16129SOL    HW260112   7.309  10.795  10.346 -0.7811 -1.8322 -1.7024
16130SOL     OW60113  11.903   5.221   4.226 -0.4246 -0.3293  0.5307
16130SOL    HW160114  11.876   5.284   4.292  2.2328  0.5381  0.9301
16130SOL    HW260115  11.869   5.255   4.143 -1.4129  0.0683  1.0858
16131SOL     OW60116   3.354   8.736   2.315 -0.6916 -0.0694  0.4566
16131SOL    HW160117   3.421   8.682   2.273 -0.7828  0.9837 -1.1513
16131SOL    HW260118   3.397   8.772   2.392  1.0799  1.5217 -1.1612
16132SOL     OW60119   6.826   4.991   2.863 -0.3518 -0.1602 -0.5841
16132SOL    HW160120   6.796   4.916   2.812  1.3963 -1.0295 -0.4449
16132SOL    HW260121   6.874   4.951   2.936  1.4822  1.0732 -1.0509
16133SOL     OW60122   4.656   8.033  10.883 -0.1440  0.4888 -0.1530
16133SOL    HW160123   4.647   8.126  10.860  0.7868  0.8272  0.7533
16133SOL    HW260124   4.647   7.987  10.800  2.7268  1.6247 -1.2173
16134SOL     OW60125   7.225  11.533   6.116 -0.0729  0.4079  0.2782
16134SOL    HW160126   7.157  11.573   6.062 -0.3446  2.3885  1.9221
16134SOL    HW260127   7.305  11.541   6.063 -0.7127  0.1478 -0.7528
16135SOL     OW60128   1.024   0.441   7.247 -0.1650  0.2721 -0.7131
16135SOL    HW160129   1.030   0.500   7.322  1.3013 -0.1615 -0.4662
16135SOL    HW260130   1.051   0.356   7.280 -1.8342 -0.4789 -1.1784
16136SOL     OW60131   5.307   3.630   7.843  0.5150 -0.0768  0.3099
16136SOL    HW160132   5.399   3.623   7.816  0.4387  0.4033 -0.0925
16136SOL    HW260133   5.310   3.624   7.939  0.9339 -0.3932  0.2792
16137SOL     OW60134  10.951   2.788   2.509  0.5658 -0.0266  0.3939
16137SOL    HW160135  11.018   2.857   2.515  1.7708 -0.9550 -1.4705
16137SOL    HW260136  10.932   2.782   2.416 -1.1973 -0.6997  0.7640
16138SOL     OW60137   0.478   3.397  10.162 -0.1475 -0.4976 -0.3338
16138SOL    HW160138   0.386   3.424  10.163 -0.2775 -0.8370  1.9926
16138SOL    HW260139   0.526   3.477  10.138 -0.9593  0.0120 -0.3096
16139SOL     OW60140   7.318   7.181   5.957  0.1321  0.3008  0.3458
16139SOL    HW160141   7.248   7.116   5.943 -0.1197  0.4751  0.7626
16139SOL    HW260142   7.388   7.154   5.898 -1.0982  1.3789 -1.7483
16140SOL     OW60143   2.146   4.443   2.611 -0.4636  0.0301 -0.5478
16140SOL    HW160144   2.145   4.357   2.654  1.9207 -1.4110 -3.0304
16140SOL    HW260145   2.066   4.486   2.641 -1.3239 -2.6898  1.4800
16141SOL     OW60146   3.567  11.144   8.629  1.4569  0.1983 -0.0219
16141SOL    HW160147   3.534  11.166   8.541 -0.6097  2.6181  1.2141
16141SOL    HW260148   3.637  11.207   8.645  0.0842  1.5517  0.9658
16142SOL     OW60149   4.506  10.409   7.692 -0.3576  0.3259  0.6705
16142SOL    HW160150   4.417  10.441   7.706 -0.6968 -0.7055  0.9968
16142SOL    HW260151   4.504  10.369   7.605 -0.1761  0.4261  0.6206
16143SOL     OW60152   0.228   3.795   7.164  0.2482 -0.3186  0.5229
16143SOL    HW160153   0.155   3.734   7.155 -1.4974  1.7680 -0.6507
16143SOL    HW260154   0.297   3.759   7.108 -1.0560 -0.8169 -0.8324
16144SOL     OW60155  10.812   3.317   6.635 -0.0853 -0.1541  0.4881
16144SOL    HW160156  10.831   3.371   6.558 -1.0560  0.0869  0.4052
16144SOL    HW260157  10.892   3.266   6.648  0.8729  1.3092  0.5897
16145SOL     OW60158  11.734   9.300   1.318  0.0113 -0.0757  0.2030
16145SOL    HW160159  11.808   9.241   1.334 -0.7488 -0.9515  0.5423
16145SOL    HW260160  11.716   9.290   1.225  0.3865  0.2302  0.0932
16146SOL     OW60161   6.976   4.775   6.630  0.6597  0.3321  0.3663
16146SOL    HW160162   7.011   4.747   6.714  2.1802  1.3239  0.1204
16146SOL    HW260163   6.981   4.871   6.633 -0.3069  0.4196 -0.4245
16147SOL     OW60164   3.079   6.407   1.047 -0.2433 -0.6995  0.1478
16147SOL    HW160165   3.051   6.343   0.982  0.8328  0.1675 -1.2366
16147SOL    HW260166   3.091   6.488   0.998  1.2246 -0.1598  1.2913
16148SOL     OW60167   2.235   5.171   2.145  0.1454  0.5487  0.4169
16148SOL    HW160168   2.301   5.111   2.181  0.7038 -0.2056 -1.6960
16148SOL    HW260169   2.171   5.181   2.215  0.4791 -1.8643  1.1654
16149SOL     OW60170   0.767   0.761   7.328 -0.0550  0.8164  0.0363
16149SOL    HW160171   0.702   0.761   7.259 -0.4874 -0.0095  0.4280
16149SOL    HW260172   0.837   0.817   7.295 -1.4068  2.6068  0.0439
16150SOL     OW60173  11.718   2.343   6.048 -0.4301 -0.3592 -0.2025
16150SOL    HW160174  11.750   2.353   6.138 -2.3120  0.5607  0.4051
16150SOL    HW260175  11.797   2.348   5.994  0.7727 -1.2147  1.3883
16151SOL     OW60176   3.888   2.414   9.650 -0.3015  0.1166  0.1169
16151SOL    HW160177   3.823   2.354   9.613  0.7167 -1.9127  1.3988
16151SOL    HW260178   3.867   2.417   9.743  0.6038  0.5312  0.3171
16152SOL     OW60179   5.394   0.259   1.552  0.1489  0.5053  0.1956
16152SOL    HW160180   5.401   0.164   1.545  0.0295  0.5144 -0.0981
16152SOL    HW260181   5.303   0.274   1.580  0.6607  0.4666  1.9589
16153SOL     OW60182   9.437   8.814   9.202  0.2422 -0.4008  0.1184
16153SOL    HW160183   9.526   8.785   9.183  0.2348 -0.3716  0.0365
16153SOL    HW260184   9.423   8.889   9.143  0.4653  0.1334  0.7413
16154SOL     OW60185  11.511   8.757  10.964  0.4295 -0.1250 -0.2362
16154SOL    HW160186  11.429   8.806  10.960  0.2451 -0.3755  0.3342
16154SOL    HW260187  11.487   8.668  10.938  0.2962 -0.4574  0.9824
16155SOL     OW60188   0.229   1.776   0.830 -0.0241 -0.0877 -0.5134
16155SOL    HW160189   0.203   1.831   0.904  1.4312 -1.6647  1.2838
16155SOL    HW260190   0.294   1.829   0.783  0.1230  0.3827  0.1956
16156SOL     OW60191   1.545   4.558   9.970  0.5915 -0.0495  0.2003
16156SOL    HW160192   1.594   4.526  10.045  0.6142  1.1146  0.7125
16156SOL    HW260193   1.465   4.595  10.008 -0.0427 -0.6841 -0.4891
16157SOL     OW60194   4.922   6.980  10.541 -0.0353  0.0824  0.7897
16157SOL    HW160195   5.010   6.997  10.574  0.4217  0.9957 -0.7881
16157SOL    HW260196   4.889   6.910  10.597  1.4995  0.0675  1.7414
16158SOL     OW60197   1.510   1.878   4.819  0.2041  0.0048 -0.3955
16158SOL    HW160198   1.428   1.926   4.830  0.3472  1.3737 -3.8437
16158SOL    HW260199   1.574   1.929   4.868 -0.3118  1.3899 -1.0805
16159SOL     OW60200   0.926  11.124   9.065 -0.0323 -0.6323  0.0620
16159SOL    HW160201   0.910  11.070   8.988 -2.1796 -0.0685  0.0305
16159SOL    HW260202   0.872  11.203   9.050  0.4370  0.0156  1.5894
16160SOL     OW60203   7.132   8.745   9.451 -0.7741 -0.2599  0.3967
16160SOL    HW160204   7.170   8.671   9.498 -1.8762 -0.2091  1.4429
16160SOL    HW260205   7.055   8.709   9.408  0.2613 -0.3173 -1.5013
16161SOL     OW60206   1.477   7.832   7.580  0.1811 -0.0678 -0.0059
16161SOL    HW160207   1.494   7.861   7.490  1.0917 -0.8936 -0.1270
16161SOL    HW260208   1.423   7.753   7.569  0.9796 -0.6410  0.1218
16162SOL     OW60209   6.259   0.813  11.554  0.0429 -0.7569  0.3985
16162SOL    HW160210   6.255   0.731  11.505  1.3532  0.3524 -1.7479
16162SOL    HW260211   6.199   0.872  11.507 -0.2275 -0.2250  1.3797
16163SOL     OW60212   9.940   3.095   7.046  0.3515  0.0065  0.1287
16163SOL    HW160213   9.921   3.064   6.958 -0.5982  0.4571  0.1635
16163SOL    HW260214   9.885   3.041   7.103  2.6625 -1.9136  0.7042
16164SOL     OW60215   7.305   3.913   3.721  0.2568 -0.3780  0.6126
16164SOL    HW160216   7.239   3.906   3.652  0.4897 -0.3115  0.3817
16164SOL    HW260217   7.388   3.895   3.677  0.6836  1.8731  0.3700
16165SOL     OW60218   4.616   9.079  11.700  0.2698 -0.2601 -0.2892
16165SOL    HW160219   4.589   9.116  11.616 -0.4566  0.3592  0.2011
16165SOL    HW260220   4.619   9.154  11.759  2.1997 -0.4560 -0.0927
16166SOL     OW60221   6.635   1.577   4.289  0.2734 -0.2063 -0.1691
16166SOL    HW160222   6.573   1.519   4.332 -1.1528  1.0165 -0.5012
16166SOL    HW260223   6.643   1.541   4.200 -0.6469  0.1332 -0.3938
16167SOL     OW60224   9.320   2.329   6.725  0.5870 -0.4006  0.3341
16167SOL    HW160225   9.347   2.238   6.713 -1.8513 -0.9392 -1.9575
16167SOL    HW260226   9.234   2.323   6.766 -0.0730  0.8071 -0.8132
16168SOL     OW60227   3.443   0.143   1.753  0.3436  0.5826 -0.5699
16168SOL    HW160228   3.348   0.142   1.739  0.2313  2.4694 -0.1911
16168SOL    HW260229   3.481   0.134   1.665 -0.1488 -0.4408 -0.6981
16169SOL     OW60230  11.546   9.715   5.776  0.0765  0.2299  0.2577
16169SOL    HW160231  11.563   9.668   5.857 -0.1071 -0.2201  0.0402
16169SOL    HW260232  11.459   9.754   5.788 -0.3275 -0.5597 -0.0513
16170SOL     OW60233   3.619   4.311   4.498  0.0076  0.0552 -0.7011
16170SOL    HW160234   3.698   4.260   4.515  1.0974  1.2306 -1.9220
16170SOL    HW260235   3.588   4.338   4.584  2.4002  1.6258 -0.2298
16171SOL     OW60236   5.888   6.768   0.133 -0.4973  0.0444 -0.1299
16171SOL    HW160237   5.855   6.857   0.127  0.6800  0.5357  0.2459
16171SOL    HW260238   5.957   6.764   0.067 -1.3219 -0.9718 -0.9569
16172SOL     OW60239  10.349  10.567   7.607 -0.3003 -0.7358  0.3164
16172SOL    HW160240  10.383  10.575   7.517 -1.1484 -0.6652 -0.0100
16172SOL    HW260241  10.262  10.607   7.603 -1.0790 -2.2991  0.7372
16173SOL     OW60242   5.502  10.135   6.457  0.6394 -0.3213 -0.0634
16173SOL    HW160243   5.575  10.089   6.498  1.0609 -0.6108 -1.1029
16173SOL    HW260244   5.532  10.225   6.447  1.4848 -0.7534 -1.8563
16174SOL     OW60245  11.854   0.173  10.977  0.1882  0.0435 -0.0430
16174SOL    HW160246  11.817   0.197  11.061  3.0261 -0.0132  1.3463
16174SOL    HW260247  11.865   0.256  10.930  2.0396  0.5658  1.2291
16175SOL     OW60248   2.886   1.704   3.316  0.7777  0.6798 -0.3831
16175SOL    HW160249   2.823   1.652   3.365  0.8069  1.0627  0.0735
16175SOL    HW260250   2.842   1.789   3.304  0.5106  0.3810 -1.5885
16176SOL     OW60251   7.843   9.244   5.678  0.3037 -0.6477  0.2534
16176SOL    HW160252   7.803   9.163   5.646 -0.2326 -0.0605 -0.6013
16176SOL    HW260253   7.912   9.214   5.737  1.3768 -1.8137 -1.4761
16177SOL     OW60254  11.560   7.883   8.761 -0.2189  0.1957  0.3266
16177SOL    HW160255  11.605   7.814   8.809 -0.0524 -0.5026 -0.7884
16177SOL    HW260256  11.594   7.965   8.799 -1.1048 -0.2990  2.2834
16178SOL     OW60257   6.839   6.037   0.055 -0.2112  0.2306  0.2203
16178SOL    HW160258   6.814   6.085   0.134 -0.3847  0.7166 -0.1227
16178SOL    HW260259   6.932   6.058   0.043 -0.4209  0.9520 -0.2414
16179SOL     OW60260   7.457   5.773   5.934 -0.1506 -0.1289 -0.0960
16179SOL    HW160261   7.401   5.851   5.940  0.9461  0.7236 -0.5657
16179SOL    HW260262   7.432   5.720   6.010 -2.1025 -0.1518 -0.6925
16180SOL     OW60263   3.164   5.481   1.369 -0.6249  0.0614  0.1673
16180SOL    HW160264   3.215   5.560   1.349 -0.4202 -0.4024 -1.2324
16180SOL    HW260265   3.076   5.514   1.387 -0.7207  0.5847 -1.1290
16181SOL     OW60266   3.970   9.276   3.051  0.6589 -0.0934  0.5676
16181SOL    HW160267   3.912   9.333   3.001 -0.3471 -1.3755  0.2352
16181SOL    HW260268   3.933   9.274   3.139  2.1730  1.7939  1.3367
16182SOL     OW60269   4.367   5.727   2.572 -0.4080  0.2886 -0.0246
16182SOL    HW160270   4.396   5.637   2.587 -1.7449 -0.0162  1.0348
16182SOL    HW260271   4.444   5.781   2.587 -0.0973 -0.5395  1.6234
16183SOL     OW60272   9.587   4.952   2.575  0.1567 -0.2095  0.1408
16183SOL    HW160273   9.581   4.895   2.498 -1.6337 -0.5940  0.5127
16183SOL    HW260274   9.530   5.027   2.554 -0.1172 -0.1738  0.9575
16184SOL     OW60275   0.815  10.902   4.758  0.1186 -0.1997 -0.3865
16184SOL    HW160276   0.735  10.873   4.712 -0.3827 -0.3804  0.5806
16184SOL    HW260277   0.859  10.821   4.782 -0.8212 -0.1960  1.5138
16185SOL     OW60278   5.930  11.797   6.412  0.1238 -0.5481 -0.0477
16185SOL    HW160279   5.836  11.803   6.392 -0.0582 -0.9936  0.6377
16185SOL    HW260280   5.939  11.713   6.457  0.8337 -0.4414  0.0128
16186SOL     OW60281   0.629   0.406   8.092  0.9060  0.5738 -0.3884
16186SOL    HW160282   0.684   0.376   8.163 -0.8724 -1.0288  0.4017
16186SOL    HW260283   0.567   0.467   8.133 -0.1912 -0.4308 -0.4811
16187SOL     OW60284   8.008   6.558   5.071  0.7461 -0.2924 -0.1848
16187SOL    HW160285   8.031   6.493   5.004 -2.1576 -1.1790 -0.4832
16187SOL    HW260286   7.975   6.506   5.144  1.2987  0.7699  0.8377
16188SOL     OW60287   6.075   5.780   2.204  0.4538  0.2677  0.1420
16188SOL    HW160288   6.136   5.720   2.248 -0.8510 -0.5299  0.9219
16188SOL    HW260289   6.020   5.723   2.150  0.5593  1.0136 -0.7953
16189SOL     OW60290   6.293   8.628   9.554  0.0590 -0.3148 -0.3147
16189SOL    HW160291   6.319   8.683   9.480  0.9550 -0.9267 -0.4700
16189SOL    HW260292   6.200   8.647   9.566  0.8821  3.4867  1.5300
16190SOL     OW60293   7.250   6.825   3.081  0.2066  0.2949 -0.0333
16190SOL    HW160294   7.341   6.815   3.109 -0.2257  1.2125  1.9049
16190SOL    HW260295   7.200   6.821   3.163 -1.4107  0.6646 -0.9708
16191SOL     OW60296   5.167   2.236  10.792  0.8012  0.1288 -0.5916
16191SOL    HW160297   5.233   2.204  10.731 -0.3042  1.8739 -2.8372
16191SOL    HW260298   5.105   2.285  10.737 -0.9796  0.6962  1.7669
16192SOL     OW60299   8.529   8.976   6.007  0.4739 -0.3222  0.8480
16192SOL    HW160300   8.530   8.924   6.088 -2.1889 -1.3417  0.3054
16192SOL    HW260301   8.488   9.059   6.033 -0.8596 -0.8439  0.4970
16193SOL     OW60302   5.663   0.595   6.619 -0.1493  0.0747  0.3169
16193SOL    HW160303   5.754   0.573   6.638 -0.4332 -0.6351  0.8630
16193SOL    HW260304   5.658   0.690   6.633 -0.0259 -0.2151  2.5292
16194SOL     OW60305  10.758   3.074   5.822 -0.7210  0.1198  0.2878
16194SOL    HW160306  10.706   3.147   5.853  0.4301  1.6192 -1.1470
16194SOL    HW260307  10.833   3.114   5.777 -0.2537 -1.9142 -0.9168
16195SOL     OW60308   5.393  10.115   6.180  0.2628  0.1648 -0.3959
16195SOL    HW160309   5.455  10.158   6.239 -0.9906 -0.1486  1.2267
16195SOL    HW260310   5.339  10.186   6.145  0.2026  0.2262 -0.1764
16196SOL     OW60311   4.030   6.760   3.069 -0.2018  0.2511 -0.1908
16196SOL    HW160312   3.970   6.729   3.002  0.8828 -0.1454 -1.0035
16196SOL    HW260313   4.100   6.695   3.071 -0.6210 -0.2315  1.9604
16197SOL     OW60314   2.342   9.675   5.683  0.6866 -0.2435 -0.0372
16197SOL    HW160315   2.427   9.704   5.715  0.6302  1.2171 -1.1287
16197SOL    HW260316   2.359   9.587   5.649  1.2675 -0.8311  1.6614
16198SOL     OW60317   8.891   5.629  11.369 -0.2192 -0.0923  0.1519
16198SOL    HW160318   8.819   5.570  11.349 -0.1065  0.2072 -1.2148
16198SOL    HW260319   8.854   5.717  11.358 -0.2030  0.1072  1.5089
16199SOL     OW60320   8.257   5.124   1.778 -0.2293 -0.4854 -0.0339
16199SOL    HW160321   8.311   5.100   1.853  0.3686 -1.9467 -0.8724
16199SOL    HW260322   8.171   5.141   1.815  0.5487  0.9356  1.2234
16200SOL     OW60323  10.258   3.352   4.582  0.3304 -0.0071 -0.3360
16200SOL    HW160324  10.194   3.283   4.565  0.1194  0.1991 -0.3853
16200SOL    HW260325  10.337   3.323   4.538  0.0880  0.0320 -0.7984
16201SOL     OW60326  11.788   8.636   4.173  0.6425 -0.4314 -0.6419
16201SOL    HW160327  11.831   8.608   4.254 -2.3034  0.1113  1.2776
16201SOL    HW260328  11.715   8.576   4.163  0.0891  0.4317 -2.0813
16202SOL     OW60329   3.546   0.142   2.013  0.2799  0.2406 -0.4345
16202SOL    HW160330   3.615   0.085   1.979  0.7002  1.4138 -1.6864
16202SOL    HW260331   3.492   0.163   1.937  1.1158  2.7864 -0.4305
16203SOL     OW60332   4.232   0.575  10.620  0.5574 -0.1148 -0.3118
16203SOL    HW160333   4.200   0.664  10.636 -0.2410 -0.4675  0.1011
16203SOL    HW260334   4.154   0.526  10.595  1.3444 -0.1822 -2.8901
16204SOL     OW60335   8.443   9.668   9.816 -0.0709 -0.0334  0.0870
16204SOL    HW160336   8.409   9.733   9.755 -0.5790  0.0851  0.4785
16204SOL    HW260337   8.364   9.635   9.861  0.3586  0.5365  1.3113
16205SOL     OW60338  11.447   9.548   5.597 -0.2877  0.1654  0.5076
16205SOL    HW160339  11.476   9.591   5.677  0.5406 -0.3245  0.4894
16205SOL    HW260340  11.503   9.585   5.529 -1.0337  0.6307  0.1343
16206SOL     OW60341   6.132  11.879   7.677  0.2128 -0.6336 -0.3925
16206SOL    HW160342   6.079  11.953   7.648  0.8030 -0.4063 -0.9171
16206SOL    HW260343   6.181  11.912   7.752 -1.5147 -1.2996  1.1040
16207SOL     OW60344   2.735   0.620   3.130 -0.1922 -0.1184  0.0689
16207SOL    HW160345   2.792   0.692   3.158 -1.5769  0.6147  1.1106
16207SOL    HW260346   2.769   0.595   3.044 -1.8092  4.3174 -2.2142
16208SOL     OW60347  10.677  10.726   8.428  0.3174 -0.4406 -0.1607
16208SOL    HW160348  10.652  10.693   8.341  2.4202 -1.7464 -0.3267
16208SOL    HW260349  10.629  10.671   8.489 -1.7703  0.9684 -0.4067
16209SOL     OW60350   2.347  11.065   0.789  0.1869 -0.2676  0.8353
16209SOL    HW160351   2.291  11.023   0.854 -0.4158 -0.1627  0.3929
16209SOL    HW260352   2.416  11.001   0.771  0.7938 -0.0109  2.1161
16210SOL     OW60353   5.021  10.835   1.012  0.1086  0.3246 -0.3382
16210SOL    HW160354   4.983  10.786   1.085  0.5696  1.3790  0.6532
16210SOL    HW260355   5.097  10.783   0.985 -0.7296 -0.6624 -0.8568
16211SOL     OW60356   6.167  10.787   2.902 -0.0686 -0.4911 -0.1457
16211SOL    HW160357   6.170  10.731   2.824  0.5044 -0.6605 -0.0118
16211SOL    HW260358   6.148  10.727   2.974 -0.7511 -0.3118 -0.1707
16212SOL     OW60359   9.871   0.921   5.035  0.6095  0.5852 -0.0637
16212SOL    HW160360   9.831   0.989   5.089  0.6022  1.7128 -1.4303
16212SOL    HW260361   9.957   0.956   5.010  0.9263 -0.2345 -0.1591
16213SOL     OW60362   3.824   8.761   1.250  0.0517 -0.3817  0.1155
16213SOL    HW160363   3.740   8.725   1.280 -0.9759  0.8607 -1.1129
16213SOL    HW260364   3.800   8.826   1.183  1.9807  0.3204  0.0314
16214SOL     OW60365   9.480   4.066   2.773  0.7170  0.3035  0.1319
16214SOL    HW160366   9.385   4.075   2.761  0.8430  0.3262 -0.9381
16214SOL    HW260367   9.498   4.114   2.854  0.0558  1.8125 -0.5679
16215SOL     OW60368   7.840   6.171  11.691  0.6053  0.0481  0.3095
16215SOL    HW160369   7.882   6.125  11.763 -0.6689 -1.9942 -0.1706
16215SOL    HW260370   7.892   6.149  11.614 -0.1202 -0.7941  0.0466
16216SOL     OW60371   4.635  11.048   7.834  0.0230 -0.1418  0.5539
16216SOL    HW160372   4.637  11.011   7.922  0.6979  1.1944  1.1193
16216SOL    HW260373   4.725  11.076   7.817 -0.3981  0.9568  0.0396
16217SOL     OW60374   1.341  11.075   4.245 -0.7310 -0.1464  0.1993
16217SOL    HW160375   1.320  11.031   4.327 -1.0447 -0.4075 -0.0152
16217SOL    HW260376   1.258  11.113   4.216 -0.4848  0.5017  0.3302
16218SOL     OW60377   5.482  10.926   0.514 -0.1059  0.2446 -0.1354
16218SOL    HW160378   5.570  10.906   0.545 -0.2444 -1.0309 -0.5149
16218SOL    HW260379   5.450  10.993   0.574  0.4889 -0.5063  1.0481
16219SOL     OW60380   7.612   5.870   6.329 -0.0780  0.1411 -0.2458
16219SOL    HW160381   7.678   5.938   6.343  1.7846 -1.4409 -0.8517
16219SOL    HW260382   7.575   5.889   6.243 -0.7499  1.2750  0.2724
16220SOL     OW60383   9.142   1.897   4.647  0.1502  0.3573 -0.0635
16220SOL    HW160384   9.095   1.980   4.658 -0.9712  0.2391 -2.8925
16220SOL    HW260385   9.178   1.878   4.733 -1.4988  2.6073  1.2523
16221SOL     OW60386   2.399   0.939   9.944 -0.5506  0.2132 -0.1706
16221SOL    HW160387   2.381   0.942  10.038  0.1625  1.4368 -0.0501
16221SOL    HW260388   2.350   0.863   9.913  0.4819 -1.1858  1.4468
16222SOL     OW60389  10.705   7.253   8.365  0.2550 -0.3048 -0.9614
16222SOL    HW160390  10.750   7.290   8.289  1.0734  0.2981 -0.2121
16222SOL    HW260391  10.676   7.330   8.415 -0.2586 -0.6933 -0.6538
16223SOL     OW60392   4.185   7.417  11.649 -0.0065  0.3392  0.1084
16223SOL    HW160393   4.273   7.400  11.616  0.2962  2.0642 -0.0542
16223SOL    HW260394   4.196   7.485  11.715 -1.0407 -0.5553  1.2582
16224SOL     OW60395   7.285   3.625   9.967 -0.2765 -0.3655  0.0522
16224SOL    HW160396   7.300   3.706  10.016  1.5710 -0.7469  0.1831
16224SOL    HW260397   7.367   3.610   9.921 -0.0351 -2.9290  1.1751
16225SOL     OW60398   7.865   3.704   2.211 -0.4527  0.1460  0.2214
16225SOL    HW160399   7.829   3.640   2.273  1.5682 -1.1346  0.1674
16225SOL    HW260400   7.867   3.786   2.260  1.3945 -0.9044  2.0637
16226SOL     OW60401   5.450  11.930  11.364 -0.4517 -0.5445 -0.4852
16226SOL    HW160402   5.460  11.886  11.449 -0.1700  1.4139  0.5594
16226SOL    HW260403   5.356  11.941  11.354 -0.6283 -2.5035 -1.4106
16227SOL     OW60404  10.333   2.566   0.751  0.0624  0.0467 -0.5550
16227SOL    HW160405  10.331   2.525   0.837 -0.5789  1.4593  0.1419
16227SOL    HW260406  10.419   2.610   0.747  1.1574 -2.0340 -1.6811
16228SOL     OW60407   8.543   0.894  11.526  0.1254  0.1892 -0.3396
16228SOL    HW160408   8.596   0.939  11.460 -1.0606  0.5857 -1.0455
16228SOL    HW260409   8.541   0.803  11.498  1.2024 -0.0232  0.2159
16229SOL     OW60410   8.621  11.016   0.723  0.3191  0.5730 -0.3644
16229SOL    HW160411   8.542  10.976   0.685 -0.5289  1.0741  0.8003
16229SOL    HW260412   8.643  10.958   0.796 -0.4079  1.7279  0.8007
16230SOL     OW60413  11.937  10.163   8.150  0.2970 -0.0856 -0.3817
16230SOL    HW160414  11.896  10.087   8.191 -1.2275  1.6723  1.5690
16230SOL    HW260415  12.011  10.127   8.101  0.8061 -2.6031  2.0313
16231SOL     OW60416   5.410   2.842   0.585 -0.7416 -0.9535  0.2116
16231SOL    HW160417   5.359   2.910   0.541 -0.9538 -2.0336 -1.2801
16231SOL    HW260418   5.481   2.821   0.525  0.4771 -0.6981  1.5144
16232SOL     OW60419   9.473  10.396   5.116 -0.4387 -0.3607  0.4245
16232SOL    HW160420   9.397  10.422   5.169 -1.0685  1.0317 -1.0802
16232SOL    HW260421   9.458  10.438   5.032  1.7387 -0.5550 -0.1000
16233SOL     OW60422   8.850   4.622   0.904 -0.0121 -0.3425  0.0655
16233SOL    HW160423   8.773   4.567   0.886 -0.1024  0.1411 -1.0653
16233SOL    HW260424   8.923   4.574   0.867  0.2879 -0.8788  1.2810
16234SOL     OW60425   8.523   9.667   8.111  0.3301  0.6512  0.7851
16234SOL    HW160426   8.509   9.711   8.027  2.5522 -0.1282 -0.0449
16234SOL    HW260427   8.533   9.575   8.088 -0.1935  0.2561  2.0640
16235SOL     OW60428   8.200   3.912   0.929 -0.6553  0.1752 -0.4301
16235SOL    HW160429   8.195   3.817   0.937 -3.4700  0.2345 -0.5723
16235SOL    HW260430   8.230   3.942   1.015 -1.3800 -0.7749  0.1751
16236SOL     OW60431  10.247   2.543  11.714 -0.4791 -0.0810 -0.8509
16236SOL    HW160432  10.164   2.531  11.759 -0.5974  0.1858 -0.9965
16236SOL    HW260433  10.244   2.633  11.681  0.2640  0.2687 -0.0234
16237SOL     OW60434   5.297   4.404   9.981 -0.6784 -0.1893 -0.6505
16237SOL    HW160435   5.207   4.393   9.950 -0.9335 -2.2256  0.6526
16237SOL    HW260436   5.290   4.470  10.050 -1.0704  0.0352 -0.8952
16238SOL     OW60437   7.556   0.393   6.296 -0.1750  0.5173  0.2050
16238SOL    HW160438   7.562   0.483   6.328  1.5524  0.1083  1.2117
16238SOL    HW260439   7.474   0.360   6.331 -0.8226  1.6841 -0.1684
16239SOL     OW60440   3.665   9.006   1.457  0.0029  0.7202  0.6539
16239SOL    HW160441   3.669   8.911   1.448 -0.4228  0.7075  0.5790
16239SOL    HW260442   3.578   9.030   1.425  0.7411  1.3331 -0.9861
16240SOL     OW60443   6.525   5.311  11.560  0.5697 -0.3011 -0.3700
16240SOL    HW160444   6.494   5.248  11.495  0.0295 -2.4370  1.7972
16240SOL    HW260445   6.475   5.290  11.639  0.2366  3.0378  0.4587
16241SOL     OW60446  11.633   4.134   5.831  0.0599  0.0168 -0.3451
16241SOL    HW160447  11.649   4.104   5.742 -1.1578 -1.6365 -0.0387
16241SOL    HW260448  11.720   4.159   5.863  0.3778  1.9020 -2.3656
16242SOL     OW60449   7.235   7.788   6.201 -0.2036 -0.1981  0.5641
16242SOL    HW160450   7.273   7.837   6.128 -3.0469  1.0034 -0.2756
16242SOL    HW260451   7.292   7.806   6.275  1.0133  1.1679 -0.6478
16243SOL     OW60452   5.522   5.258   5.034  0.0917 -0.0080 -0.8468
16243SOL    HW160453   5.539   5.347   5.004 -1.0573  0.9228  1.0301
16243SOL    HW260454   5.504   5.268   5.128  0.9574 -2.3651 -0.3726
16244SOL     OW60455   8.032   7.373   4.576  0.2824  0.2012  0.3386
16244SOL    HW160456   7.994   7.395   4.490  1.1183  0.2924 -0.0224
16244SOL    HW260457   8.112   7.426   4.580  0.8857 -0.7237  0.6556
16245SOL     OW60458   8.976   5.095   4.272  0.4851 -0.2263  0.1027
16245SOL    HW160459   8.966   5.184   4.238 -1.8183 -0.4676 -0.0004
16245SOL    HW260460   8.950   5.100   4.363  1.3066 -0.6398  0.3751
16246SOL     OW60461  10.734   3.230   6.137  0.2233 -0.2236  0.6041
16246SOL    HW160462  10.692   3.183   6.064 -0.1789 -0.0908  0.7492
16246SOL    HW260463  10.666   3.289   6.170  0.6566  0.2982  0.5719
16247SOL     OW60464   7.689   2.784   4.172 -0.0664 -0.1780 -0.2455
16247SOL    HW160465   7.719   2.835   4.247 -3.6778  1.2862  0.4472
16247SOL    HW260466   7.689   2.846   4.099  2.8458 -1.4342 -1.4403
16248SOL     OW60467   2.200   6.706   8.841 -0.4489  0.3185  0.4277
16248SOL    HW160468   2.158   6.658   8.912  0.1000 -0.0657  0.4987
16248SOL    HW260469   2.208   6.796   8.873  1.2536 -0.1686  1.5339
16249SOL     OW60470  10.366   0.077   7.043 -0.2535 -0.1811 -0.0172
16249SOL    HW160471  10.358   0.098   7.136 -2.0169 -0.6890 -0.0014
16249SOL    HW260472  10.354   0.160   6.998  2.4295  0.3899  0.2036
16250SOL     OW60473   0.520   7.684   6.637  0.4499  0.4999 -0.5284
16250SOL    HW160474   0.510   7.592   6.663  0.9501  0.8259  0.9301
16250SOL    HW260475   0.603   7.711   6.676 -0.0454  1.7733 -0.2957
16251SOL     OW60476   1.150   9.208   1.676  0.3890 -0.5276 -0.4812
16251SOL    HW160477   1.197   9.129   1.703  0.5451 -0.0603  0.6651
16251SOL    HW260478   1.216   9.258   1.627  0.9298 -0.1458  0.6106
16252SOL     OW60479   6.731  11.260   1.949 -0.1704 -0.1901  0.0486
16252SOL    HW160480   6.783  11.301   1.879  0.3458  0.0449  0.5578
16252SOL    HW260481   6.666  11.325   1.972 -0.1011 -0.1178  0.0424
16253SOL     OW60482   5.628   6.393   3.148  0.0200 -0.5264  0.5235
16253SOL    HW160483   5.648   6.382   3.055 -1.6708 -2.6023  0.3308
16253SOL    HW260484   5.634   6.305   3.185 -1.3695 -0.0887  1.9408
16254SOL     OW60485   0.764   3.915   7.913  0.0871 -0.3741  0.2561
16254SOL    HW160486   0.689   3.972   7.901 -0.5598 -1.6462 -2.5612
16254SOL    HW260487   0.763   3.893   8.006 -1.1588  2.0650  0.8874
16255SOL     OW60488   0.361   6.684   7.642 -0.0824  0.7838  0.1220
16255SOL    HW160489   0.435   6.670   7.584 -0.8176  0.0745 -0.6789
16255SOL    HW260490   0.285   6.656   7.591 -0.9103  1.5285  0.9097
16256SOL     OW60491   4.047   4.874   6.696 -0.1172  0.2328  0.7702
16256SOL    HW160492   4.056   4.946   6.759 -1.4460  0.9315  0.1994
16256SOL    HW260493   4.022   4.799   6.749 -1.0201  0.7678  1.1316
16257SOL     OW60494  11.127   9.845   8.932  0.5885 -0.1414 -0.4668
16257SOL    HW160495  11.175   9.928   8.942  1.2098 -0.1783 -2.6694
16257SOL    HW260496  11.037   9.872   8.914  0.6535  0.0247 -0.5438
16258SOL     OW60497  10.937   5.677   5.203 -0.2101  0.4691 -0.2712
16258SOL    HW160498  10.858   5.674   5.256 -0.2286 -0.0602 -0.3171
16258SOL    HW260499  11.007   5.649   5.262 -0.1941  0.1020 -0.4603
16259SOL     OW60500   5.930   0.681   6.324 -0.9763  0.4766 -0.4493
16259SOL    HW160501   5.881   0.600   6.334  0.6207 -0.5292 -0.5000
16259SOL    HW260502   5.895   0.739   6.392  0.8178 -1.7826  2.6801
16260SOL     OW60503   4.713  11.544  10.030 -0.4624 -0.0638 -0.2065
16260SOL    HW160504   4.629  11.564  10.072 -0.0409  1.2091  0.0965
16260SOL    HW260505   4.748  11.471  10.080 -0.2000  1.0855  1.3966
16261SOL     OW60506   9.427  10.137  11.535  0.1388 -0.0986  0.0038
16261SOL    HW160507   9.509  10.120  11.581  1.3016  1.5960 -1.3039
16261SOL    HW260508   9.378  10.195  11.594  1.6410  2.1060 -0.7979
16262SOL     OW60509   7.505   5.390  10.335 -1.1115  0.9106  0.2120
16262SOL    HW160510   7.534   5.460  10.393  0.4221 -0.1555  0.7937
16262SOL    HW260511   7.527   5.422  10.247  1.9054  0.2362  0.6042
16263SOL     OW60512  10.239   4.751   2.750  0.4168  0.2320 -0.2201
16263SOL    HW160513  10.200   4.688   2.811 -3.3900  2.1707 -0.3262
16263SOL    HW260514  10.233   4.708   2.665  1.6682 -0.7536  0.1474
16264SOL     OW60515   7.207   5.894   6.944 -0.0460 -0.5505 -0.5884
16264SOL    HW160516   7.196   5.977   6.991 -0.7091 -1.8209  1.6804
16264SOL    HW260517   7.292   5.902   6.901  0.7565  0.6504  1.0787
16265SOL     OW60518   5.950   5.962   1.940 -0.1928 -0.4312 -0.4346
16265SOL    HW160519   5.921   5.881   1.896  1.5645 -1.2327 -0.2077
16265SOL    HW260520   6.042   5.971   1.914 -0.0396  0.8546  0.5039
16266SOL     OW60521   6.584   7.128  10.437  0.0208 -0.5048 -0.5035
16266SOL    HW160522   6.546   7.078  10.510  1.2420  1.4832  1.6476
16266SOL    HW260523   6.638   7.065  10.390 -1.2481 -1.9849 -0.0538
16267SOL     OW60524   4.341   5.182   5.317 -0.3488 -0.4003  0.0581
16267SOL    HW160525   4.368   5.091   5.300  0.2605 -0.2685  0.3041
16267SOL    HW260526   4.422   5.228   5.335 -0.6695  0.1791  0.0428
16268SOL     OW60527   6.398  11.916   1.435 -0.6408  0.1403 -0.5225
16268SOL    HW160528   6.329  11.866   1.479  0.0719  0.7038  1.3507
16268SOL    HW260529   6.435  11.856   1.371 -0.7823 -1.2297  0.6396
16269SOL     OW60530   7.456  10.966   9.713 -0.2881 -0.5806 -0.2891
16269SOL    HW160531   7.524  10.980   9.648 -0.4039 -0.4655 -0.3871
16269SOL    HW260532   7.400  10.898   9.675  0.2422 -1.2841  0.1569
16270SOL     OW60533   8.041   6.647   8.591 -0.7714  0.5029 -0.0895
16270SOL    HW160534   8.012   6.719   8.647  0.2369 -0.3161  1.5646
16270SOL    HW260535   8.075   6.582   8.652 -0.7294 -0.9597 -1.6067
16271SOL     OW60536   3.861   8.401   1.970  0.4815 -0.3654 -0.5402
16271SOL    HW160537   3.956   8.397   1.967  0.5436 -1.0522  1.1075
16271SOL    HW260538   3.835   8.430   1.883  2.3112  2.5407 -0.2220
16272SOL     OW60539   5.425  11.612   2.579 -0.2909 -0.0156 -0.5756
16272SOL    HW160540   5.502  11.649   2.535 -0.9515 -0.4030 -2.1096
16272SOL    HW260541   5.460  11.573   2.659  0.8033  1.5669 -0.2248
16273SOL     OW60542   2.352  11.445   9.271 -0.3319  0.2427  0.4503
16273SOL    HW160543   2.361  11.540   9.269 -1.2688  0.3417  0.7394
16273SOL    HW260544   2.361  11.422   9.363  0.7747 -0.0467  0.2794
16274SOL     OW60545   1.227   6.689   9.158  0.2936  0.0697  0.5160
16274SOL    HW160546   1.164   6.649   9.097  0.5250  1.2071 -0.5066
16274SOL    HW260547   1.256   6.769   9.114 -0.4481  1.6041  2.6658
16275SOL     OW60548   5.856   2.776   8.041 -0.4698  0.1340  0.1349
16275SOL    HW160549   5.785   2.800   7.981 -0.6942 -0.2921  0.2173
16275SOL    HW260550   5.865   2.681   8.030 -1.0993 -0.0980  1.3838
16276SOL     OW60551   0.813   0.295  10.580 -0.0567  0.5389 -0.3637
16276SOL    HW160552   0.867   0.358  10.533  1.2976 -0.4032 -0.1161
16276SOL    HW260553   0.861   0.278  10.661 -1.3581  0.6187  0.4461
16277SOL     OW60554   2.976   1.958   9.464 -0.1980  0.1687 -0.1217
16277SOL    HW160555   3.069   1.967   9.447  0.0793 -1.0632  0.6145
16277SOL    HW260556   2.941   1.917   9.385 -0.4424  2.1121 -1.0803
16278SOL     OW60557  11.436   5.848   7.541  0.2571 -0.0541  0.5374
16278SOL    HW160558  11.444   5.843   7.636 -0.4000 -0.5000  0.5753
16278SOL    HW260559  11.450   5.940   7.520 -0.1870  0.1483  1.1231
16279SOL     OW60560   0.452   8.093   8.056 -0.0074 -0.5101 -0.4101
16279SOL    HW160561   0.429   8.162   7.993 -0.4568 -0.7255 -0.4879
16279SOL    HW260562   0.378   8.092   8.117  0.6767  0.0823  0.4591
16280SOL     OW60563   6.243   0.224   6.424  0.2305 -0.1344  0.2723
16280SOL    HW160564   6.328   0.240   6.384 -0.4655  1.6860 -0.5797
16280SOL    HW260565   6.180   0.260   6.362 -0.9670  1.5726  2.3698
16281SOL     OW60566   3.565   9.413   8.993 -0.7447  0.4824 -0.1359
16281SOL    HW160567   3.617   9.377   8.922 -1.5523  1.4414 -1.2418
16281SOL    HW260568   3.564   9.507   8.977 -3.2243  0.4560 -0.4346
16282SOL     OW60569   5.349   6.445   1.011 -0.3650 -0.1834 -0.4929
16282SOL    HW160570   5.306   6.396   0.941  1.1470 -2.6842  0.1679
16282SOL    HW260571   5.435   6.467   0.975  0.0187 -0.5378  0.1921
16283SOL     OW60572   8.767   7.201  11.731  0.2105 -0.3803 -0.1646
16283SOL    HW160573   8.808   7.141  11.669  1.0360  1.3587 -1.4051
16283SOL    HW260574   8.822   7.279  11.728 -1.3948  0.8375  0.5698
16284SOL     OW60575   4.260  10.732   0.703 -0.0179 -0.1895  0.4053
16284SOL    HW160576   4.200  10.763   0.770 -3.5511 -1.6968 -1.7426
16284SOL    HW260577   4.275  10.808   0.647  0.1942  0.2310  1.0232
16285SOL     OW60578   6.491  11.371   9.578 -0.0161  0.5180  0.2646
16285SOL    HW160579   6.449  11.448   9.540  0.6592  0.1237 -1.3516
16285SOL    HW260580   6.545  11.406   9.649  0.3918  1.5836 -0.5448
16286SOL     OW60581   5.958   6.249   7.498 -0.7373  0.4843  0.2998
16286SOL    HW160582   6.019   6.303   7.548 -0.9623  0.2189  0.8617
16286SOL    HW260583   5.971   6.160   7.530 -1.0505  0.3460  0.0536
16287SOL     OW60584   1.610   2.705  10.031  0.2953  0.7886  0.4366
16287SOL    HW160585   1.704   2.687  10.036  0.0232 -0.4608  1.6929
16287SOL    HW260586   1.593   2.764  10.104 -0.0222  0.3298  0.7422
16288SOL     OW60587   5.065   6.515   9.370 -0.4317 -0.2452 -0.4456
16288SOL    HW160588   5.146   6.508   9.420  0.2241  2.0889 -1.0783
16288SOL    HW260589   5.053   6.428   9.332  0.6986 -1.1881  1.2238
16289SOL     OW60590   7.728   4.926  10.348  0.1155 -0.5802 -0.3212
16289SOL    HW160591   7.662   4.990  10.320 -1.9305 -1.2432  2.5302
16289SOL    HW260592   7.791   4.977  10.399  0.3572 -0.3523 -0.8413
16290SOL     OW60593   6.427   7.813  10.528 -0.7284 -0.0179  0.2131
16290SOL    HW160594   6.424   7.804  10.623  0.9785 -0.8031  0.2282
16290SOL    HW260595   6.518   7.834  10.508 -1.1457  0.5573 -1.2252
16291SOL     OW60596   0.747   0.103   9.806  0.0984  0.3839 -0.4719
16291SOL    HW160597   0.731   0.014   9.836  0.4347  0.0560 -1.2456
16291SOL    HW260598   0.664   0.148   9.818  0.3878  0.4631  1.5780
16292SOL     OW60599   2.805   9.430  10.652  0.2676 -0.5124 -0.1304
16292SOL    HW160600   2.856   9.373  10.594  0.9786 -0.9316  0.8872
16292SOL    HW260601   2.858   9.509  10.660  0.6805 -0.8604  0.7462
16293SOL     OW60602   6.269   9.095   3.792  0.0585 -0.3256 -0.0441
16293SOL    HW160603   6.218   9.118   3.870  2.1928  0.1395  1.3232
16293SOL    HW260604   6.242   9.158   3.725 -0.9567  0.0495  0.6941
16294SOL     OW60605  11.949   6.500  10.747 -0.6469  0.1737 -0.0465
16294SOL    HW160606  11.968   6.594  10.755  0.4725 -0.1668  1.4887
16294SOL    HW260607  11.936   6.487  10.653 -1.2994  1.9493 -0.2437
16295SOL     OW60608   3.964  11.825   1.165  0.2051 -0.1475 -0.0131
16295SOL    HW160609   3.986  11.736   1.194 -2.6150 -0.8353  0.3606
16295SOL    HW260610   3.915  11.812   1.084 -0.8273  0.9776  0.3925
16296SOL     OW60611  11.246   7.361   6.648 -0.1767  0.4145 -0.2612
16296SOL    HW160612  11.177   7.318   6.699  0.5104 -1.3558 -0.7513
16296SOL    HW260613  11.317   7.373   6.710 -0.3949  0.9333 -0.1063
16297SOL     OW60614   2.290  10.266  10.565 -0.1440 -0.2687 -0.1370
16297SOL    HW160615   2.373  10.299  10.530  0.4031 -2.1629 -0.7394
16297SOL    HW260616   2.315  10.207  10.635 -1.2040  2.5627  2.8792
16298SOL     OW60617   7.305   8.712  11.157  0.1645 -0.1817 -0.1564
16298SOL    HW160618   7.397   8.710  11.182 -0.1923 -0.5248  1.2440
16298SOL    HW260619   7.259   8.674  11.233 -1.1963  0.7714 -0.4651
16299SOL     OW60620   5.766   9.291  10.717  0.0921 -0.6336 -0.2750
16299SOL    HW160621   5.743   9.358  10.781 -2.7267 -0.3666 -1.4023
16299SOL    HW260622   5.843   9.247  10.754  0.7946  1.8548  1.4570
16300SOL     OW60623   5.844   1.661   3.517  0.1730  0.1146 -0.0017
16300SOL    HW160624   5.753   1.691   3.526 -1.0150 -3.1838  0.4890
16300SOL    HW260625   5.870   1.689   3.429 -0.2064  3.5622  0.8416
16301SOL     OW60626   3.227   0.825   4.537  0.3047  0.3521 -0.2909
16301SOL    HW160627   3.160   0.808   4.472 -0.3080  2.2580 -0.2263
16301SOL    HW260628   3.310   0.819   4.489 -0.1668  2.7289 -1.5868
16302SOL     OW60629   1.750   0.090   0.006  0.4785 -0.6153  0.3538
16302SOL    HW160630   1.673   0.143   0.027  1.2603  0.9737 -0.5682
16302SOL    HW260631   1.722  -0.000   0.019 -2.2279 -0.2632 -1.9428
16303SOL     OW60632   6.270   2.103   1.749 -0.2518 -0.2992  0.7034
16303SOL    HW160633   6.191   2.070   1.706 -0.9747  2.2127 -0.0687
16303SOL    HW260634   6.239   2.134   1.834 -0.0511  0.4922  0.4889
16304SOL     OW60635   1.452   8.848  11.494  0.1165  0.2470 -0.0505
16304SOL    HW160636   1.546   8.858  11.509  0.1874 -0.9054  0.3774
16304SOL    HW260637   1.412   8.921  11.541  0.7576  0.4026  0.2630
16305SOL     OW60638   4.356  11.876   1.111 -0.8313  0.2734  0.3674
16305SOL    HW160639   4.341  11.943   1.044  1.4816  1.1750  0.6466
16305SOL    HW260640   4.375  11.796   1.062 -3.1820 -0.1689  0.0338
16306SOL     OW60641   0.774   3.794   4.126  0.0451 -0.4342 -0.2256
16306SOL    HW160642   0.686   3.800   4.087 -0.5676 -1.5742  0.9072
16306SOL    HW260643   0.810   3.882   4.117 -1.1914  0.0447 -0.7593
16307SOL     OW60644   1.448   7.670   2.596  0.1835 -0.3042 -0.2696
16307SOL    HW160645   1.358   7.684   2.628  0.3820  0.4543 -0.0152
16307SOL    HW260646   1.489   7.756   2.604  1.7799 -1.1904  2.2593
16308SOL     OW60647   0.904   1.365   6.915 -0.1534  0.0891  0.0674
16308SOL    HW160648   0.903   1.418   6.835 -0.1986  2.5277  1.5605
16308SOL    HW260649   0.812   1.344   6.930 -0.2653  0.4986 -0.0142
16309SOL     OW60650   6.166   5.638   6.591  0.2920 -0.0198  0.5199
16309SOL    HW160651   6.248   5.595   6.614 -0.2088 -0.9827  0.5513
16309SOL    HW260652   6.163   5.717   6.645  0.7232 -0.5031  1.2479
16310SOL     OW60653   4.165   4.060   7.378 -0.0514  0.5349 -0.5480
16310SOL    HW160654   4.259   4.054   7.363  0.1647  1.0280  0.5337
16310SOL    HW260655   4.143   3.979   7.425  0.0655  0.9601  0.2643
16311SOL     OW60656   2.674   1.735   4.895 -1.0867  0.3820 -0.1165
16311SOL    HW160657   2.649   1.736   4.987 -1.0936  1.3947 -0.1193
16311SOL    HW260658   2.764   1.700   4.895 -1.2983 -0.1670  0.2096
16312SOL     OW60659   3.798   3.966   1.518 -0.1214 -0.4380  0.0549
16312SOL    HW160660   3.825   4.005   1.602 -0.8078  1.4843 -0.5713
16312SOL    HW260661   3.702   3.970   1.519 -0.1316 -0.3247 -0.8599
16313SOL     OW60662   5.121   6.830   3.971  0.2044 -0.3045  0.2107
16313SOL    HW160663   5.036   6.873   3.968  0.6374  0.5925  0.5503
16313SOL    HW260664   5.118   6.766   3.899 -0.9985 -0.7667  0.6414
16314SOL     OW60665  10.557   5.080   1.528 -0.3743  0.4094 -0.3397
16314SOL    HW160666  10.465   5.086   1.553 -0.0676 -1.0546  1.3668
16314SOL    HW260667  10.558   5.013   1.460 -0.3048 -1.9944  1.8527
16315SOL     OW60668  10.671   5.844   9.998 -0.0680 -0.1125  0.1831
16315SOL    HW160669  10.639   5.766  10.043  1.5017 -2.1722 -1.9952
16315SOL    HW260670  10.762   5.853  10.026  0.5082 -0.5952 -1.4278
16316SOL     OW60671   5.548   7.222   5.423 -0.9128 -0.1925 -0.1074
16316SOL    HW160672   5.458   7.228   5.455 -1.6763  0.6412 -2.2318
16316SOL    HW260673   5.555   7.291   5.357  1.2561 -0.3329 -0.1202
16317SOL     OW60674   4.949  10.769   7.583 -0.6261 -0.2981 -0.2228
16317SOL    HW160675   4.853  10.769   7.589 -0.7207  1.1346 -1.1591
16317SOL    HW260676   4.969  10.846   7.529  1.0467 -0.6764 -0.1819
16318SOL     OW60677   8.106   4.154  11.895 -0.0475  0.9045  0.1704
16318SOL    HW160678   8.054   4.234  11.890 -0.3123  0.7654  0.6337
16318SOL    HW260679   8.141   4.154  11.984 -0.0824  0.4845  0.1852
16319SOL     OW60680   7.035   6.956   6.548 -0.1103 -0.1879 -0.1941
16319SOL    HW160681   7.039   7.051   6.534  0.1446  0.0244  1.1680
16319SOL    HW260682   6.974   6.924   6.481 -0.0479  0.9078 -0.7896
16320SOL     OW60683   2.126   6.344   2.732  0.1545 -0.3562  0.0512
16320SOL    HW160684   2.215   6.326   2.761  0.1082  1.6921  1.6656
16320SOL    HW260685   2.127   6.327   2.638  2.1226 -0.7883  0.1199
16321SOL     OW60686   6.991   5.670  11.392 -0.2309  0.2248 -0.3910
16321SOL    HW160687   6.898   5.669  11.368 -0.4382  0.6010  0.3505
16321SOL    HW260688   7.025   5.750  11.352 -0.5129  0.7056  0.2868
16322SOL     OW60689   1.670   0.136   3.937  0.2566 -0.1586 -0.4210
16322SOL    HW160690   1.681   0.223   3.898  0.4408  0.9600  1.9670
16322SOL    HW260691   1.612   0.150   4.012 -0.1673 -2.2202 -0.2924
16323SOL     OW60692   2.899  11.266   6.762 -0.0975 -0.0464 -0.0061
16323SOL    HW160693   2.805  11.282   6.769 -0.6690 -3.5038  3.3429
16323SOL    HW260694   2.910  11.217   6.681 -1.1065  0.5978 -0.5470
16324SOL     OW60695   5.996   0.746  10.884 -0.0601  0.7650 -0.8224
16324SOL    HW160696   6.072   0.701  10.848 -1.0902 -0.2732 -1.7659
16324SOL    HW260697   5.950   0.680  10.936 -0.3087  1.3934 -0.2151
16325SOL     OW60698   7.282  10.752  11.105 -0.1070  0.0728 -0.1738
16325SOL    HW160699   7.238  10.800  11.035 -1.5722  0.7642  1.1571
16325SOL    HW260700   7.290  10.663  11.072  0.9343  0.7620 -1.9304
16326SOL     OW60701   4.080   1.494   2.460  0.0936  0.0749 -0.2907
16326SOL    HW160702   4.129   1.442   2.397 -0.6555  1.3669 -2.0107
16326SOL    HW260703   4.110   1.462   2.546  0.8901 -1.9583 -1.2633
16327SOL     OW60704   0.821   7.062   6.120 -0.4751 -0.4440 -0.4243
16327SOL    HW160705   0.846   7.111   6.198  0.5448 -0.9278 -0.4351
16327SOL    HW260706   0.729   7.083   6.107  0.1125  2.1312 -0.9066
16328SOL     OW60707   2.488   9.639   0.599  0.5211  0.1082 -0.3031
16328SOL    HW160708   2.571   9.624   0.554  0.4714 -0.2889 -0.2609
16328SOL    HW260709   2.435   9.688   0.536  0.7001  0.1562 -0.4178
16329SOL     OW60710   6.522   6.071   1.345 -0.0458  0.3832 -0.5961
16329SOL    HW160711   6.578   6.048   1.270 -0.6512 -1.5093 -0.5220
16329SOL    HW260712   6.458   6.132   1.309  1.4311  1.8534 -0.8962
16330SOL     OW60713   1.886  11.051   7.127 -0.5192  0.8143  0.8742
16330SOL    HW160714   1.881  11.145   7.146 -0.8437  0.5652  2.1171
16330SOL    HW260715   1.980  11.031   7.131 -0.3306  1.2821 -0.5409
16331SOL     OW60716   1.055   2.611   5.794 -0.1195  0.2792  0.1145
16331SOL    HW160717   1.071   2.680   5.858 -0.2457  0.1030  0.3358
16331SOL    HW260718   1.140   2.595   5.753 -0.1640  0.8184 -0.1914
16332SOL     OW60719   8.141   5.292   0.116 -0.2387 -0.2519  0.2855
16332SOL    HW160720   8.117   5.379   0.084  0.8428  0.2240  0.7261
16332SOL    HW260721   8.210   5.262   0.056 -0.2894 -0.6181  0.4052
16333SOL     OW60722   8.392   7.574   6.995  0.0628 -0.1803  0.2547
16333SOL    HW160723   8.428   7.553   6.909 -0.4688  1.0431 -0.2834
16333SOL    HW260724   8.380   7.489   7.038 -0.2870 -0.8487 -1.1314
16334SOL     OW60725   0.310   0.550   2.081 -0.1065  0.6921 -0.2367
16334SOL    HW160726   0.266   0.620   2.032  1.4475  1.5212 -0.5364
16334SOL    HW260727   0.340   0.489   2.013 -1.5425 -0.3438  0.0324
16335SOL     OW60728   7.908   7.703   9.483  0.3582  0.4302 -0.4197
16335SOL    HW160729   7.903   7.621   9.534  2.3550  1.0534  0.8885
16335SOL    HW260730   7.989   7.695   9.433  0.7721  1.7248  0.0057
16336SOL     OW60731   8.136  11.290   5.532 -0.3474  0.3584 -0.2604
16336SOL    HW160732   8.101  11.375   5.560  1.3080  0.3666  2.1282
16336SOL    HW260733   8.228  11.306   5.514 -0.0344 -0.8910  0.1055
16337SOL     OW60734   8.176   9.198   1.566  0.3749 -0.6303 -0.0944
16337SOL    HW160735   8.242   9.180   1.633 -0.7761 -1.9230  0.7448
16337SOL    HW260736   8.118   9.122   1.568 -0.8725  0.2443 -1.1421
16338SOL     OW60737   8.774   2.950   2.743 -0.4538  0.4154 -0.4316
16338SOL    HW160738   8.710   3.016   2.718  0.3890  0.9210 -1.3439
16338SOL    HW260739   8.779   2.892   2.666 -1.2748 -0.8045  0.4000
16339SOL     OW60740   4.444   5.440   3.371  0.0924  0.3385 -0.1221
16339SOL    HW160741   4.498   5.375   3.416 -2.5104 -0.4643  2.1273
16339SOL    HW260742   4.367   5.391   3.343 -0.8681  2.0129 -0.5165
16340SOL     OW60743   8.972   0.603   4.768 -0.2702  0.9163 -0.0075
16340SOL    HW160744   8.912   0.580   4.838  0.0357 -0.0126 -0.0405
16340SOL    HW260745   8.950   0.694   4.746  0.0961  1.4801  1.7725
16341SOL     OW60746   0.754   6.049   8.932 -0.1081 -0.3025 -0.0267
16341SOL    HW160747   0.778   6.113   8.864 -2.4855 -1.7447 -2.4324
16341SOL    HW260748   0.800   5.969   8.907  1.7810 -0.0072  2.1949
16342SOL     OW60749  10.271   7.778   9.828 -0.0729 -0.4882 -0.3249
16342SOL    HW160750  10.192   7.727   9.847 -2.7557  3.1635 -0.4746
16342SOL    HW260751  10.248   7.829   9.750  2.2942  1.0021 -0.1534
16343SOL     OW60752   4.313   5.310   6.718  0.1021 -0.3043 -0.5773
16343SOL    HW160753   4.319   5.395   6.761 -1.9729 -0.7376  0.7263
16343SOL    HW260754   4.265   5.327   6.637 -0.5409 -0.2419 -0.1926
16344SOL     OW60755  11.936   4.144   2.262 -0.2789 -0.2128  0.4575
16344SOL    HW160756  12.005   4.101   2.212 -0.8381 -2.4627  1.4963
16344SOL    HW260757  11.981   4.211   2.314  1.2465 -1.9814  1.5176
16345SOL     OW60758   9.055   4.786   3.981 -0.4345  0.6162 -0.0191
16345SOL    HW160759   9.029   4.877   3.964 -0.7549  0.6644  0.6617
16345SOL    HW260760   9.150   4.786   3.973 -0.5774  0.4648 -2.4730
16346SOL     OW60761   3.013   4.850   3.039 -0.3035 -0.6713 -0.1417
16346SOL    HW160762   3.085   4.786   3.044 -0.5548 -0.9765 -0.4197
16346SOL    HW260763   2.960   4.833   3.117  0.7075  0.5138  0.8573
16347SOL     OW60764   5.308   2.351   1.166  0.1694  0.2915 -0.1351
16347SOL    HW160765   5.300   2.265   1.207 -0.0782  0.9024  1.1381
16347SOL    HW260766   5.259   2.410   1.223  0.1932  1.2583 -1.0791
16348SOL     OW60767   6.328  11.353  10.334 -0.2630 -0.4559 -0.5144
16348SOL    HW160768   6.331  11.267  10.292  1.3834 -1.4865  1.5088
16348SOL    HW260769   6.274  11.340  10.412  0.4922  0.1628  0.1322
16349SOL     OW60770  11.651   6.129  11.461  0.1793 -0.7664  0.1685
16349SOL    HW160771  11.592   6.077  11.407  0.0092  0.5909 -1.0113
16349SOL    HW260772  11.592   6.180  11.518  0.1338  0.8969 -1.2958
16350SOL     OW60773   7.239   0.520   9.171  0.0334  0.0797  0.5033
16350SOL    HW160774   7.326   0.560   9.182  0.5606 -1.0215  0.4214
16350SOL    HW260775   7.183   0.567   9.233  0.9210  0.1014  1.3021
16351SOL     OW60776   0.372   2.882  10.241 -0.3452  0.2717  0.2675
16351SOL    HW160777   0.458   2.873  10.280 -0.7696 -0.0564  1.1651
16351SOL    HW260778   0.380   2.955  10.180  0.0637  1.5817  1.8001
16352SOL     OW60779   5.442   8.192   1.499 -0.2032  0.4008 -0.4737
16352SOL    HW160780   5.373   8.161   1.558 -1.7888  1.6741 -1.5870
16352SOL    HW260781   5.521   8.146   1.529 -1.9530 -3.1823 -0.7835
16353SOL     OW60782   4.173   4.756   1.950  0.3511  0.2290  0.6215
16353SOL    HW160783   4.118   4.833   1.934  0.1392  0.2388  1.3676
16353SOL    HW260784   4.144   4.692   1.884 -0.1650  0.4367  0.6399
16354SOL     OW60785   9.644   5.127   7.642  0.1535 -0.0220 -0.1172
16354SOL    HW160786   9.613   5.178   7.567  0.2155  0.4602  0.1797
16354SOL    HW260787   9.715   5.179   7.679 -0.2053 -0.0150  0.5700
16355SOL     OW60788   6.945   6.938  10.785  0.1942 -1.0354 -0.5554
16355SOL    HW160789   6.854   6.922  10.759  0.3513 -0.3370 -1.5766
16355SOL    HW260790   6.982   6.990  10.713  0.8331  0.3886  0.7387
16356SOL     OW60791   7.838   3.337   5.024  0.7687  0.3814 -0.7122
16356SOL    HW160792   7.777   3.333   4.950 -1.3556 -0.6421  0.9624
16356SOL    HW260793   7.871   3.427   5.023  0.3653  0.5421 -2.5479
16357SOL     OW60794   0.699  11.655   4.292  0.0556 -0.0630  0.2276
16357SOL    HW160795   0.693  11.676   4.199 -0.0584 -0.1893  0.2067
16357SOL    HW260796   0.723  11.738   4.334 -1.2184  0.3221  0.2483
16358SOL     OW60797   7.178   9.041   0.177 -0.4573 -0.0183 -0.4139
16358SOL    HW160798   7.126   8.968   0.212 -1.2617  1.1227  0.9073
16358SOL    HW260799   7.265   9.029   0.214 -0.6328 -0.2132 -0.0603
16359SOL     OW60800  10.926   5.463   7.886 -0.2440 -0.7555  0.0662
16359SOL    HW160801  10.882   5.544   7.911  1.1252  0.1750 -0.4183
16359SOL    HW260802  10.861   5.395   7.901 -1.8209  0.5414 -0.5585
16360SOL     OW60803  10.487   5.258   9.545  0.1864 -0.2631 -0.3556
16360SOL    HW160804  10.562   5.218   9.589 -1.2952 -1.9309  0.8254
16360SOL    HW260805  10.429   5.184   9.526 -0.3487  0.7294 -2.9684
16361SOL     OW60806   4.396   8.966  10.063 -0.4760  0.3750 -0.0651
16361SOL    HW160807   4.442   9.027  10.005  0.3449  1.4105  1.5794
16361SOL    HW260808   4.311   8.952  10.021 -1.3320  3.8482  0.1487
16362SOL     OW60809  10.559   2.167   9.853 -0.4547 -0.2750  0.4360
16362SOL    HW160810  10.469   2.175   9.882 -0.2261  1.0182  0.8599
16362SOL    HW260811  10.556   2.104   9.782 -1.6661 -0.3673  0.5526
16363SOL     OW60812  11.253  10.121   5.880  0.2764  0.5620 -0.5883
16363SOL    HW160813  11.331  10.067   5.866  1.0297  1.1357  1.1272
16363SOL    HW260814  11.287  10.207   5.905 -0.8597  0.5858  1.0781
16364SOL     OW60815   2.681   8.730  10.341  0.1114 -0.2100  0.5434
16364SOL    HW160816   2.595   8.748  10.301  0.4312  0.2172  0.0453
16364SOL    HW260817   2.674   8.767  10.429 -0.4182 -0.7004  0.7206
16365SOL     OW60818   9.194   3.399   1.079  0.0855 -0.4254 -0.1977
16365SOL    HW160819   9.187   3.344   1.001 -0.6902 -0.8559  0.1624
16365SOL    HW260820   9.141   3.476   1.059  0.2011 -0.3549 -0.2379
16366SOL     OW60821   5.339  10.613   7.038 -0.6256  0.4812 -0.3812
16366SOL    HW160822   5.267  10.618   7.101 -1.2489  0.8058 -1.1036
16366SOL    HW260823   5.333  10.695   6.988  0.2721  0.5284 -0.4319
16367SOL     OW60824   4.450   1.143   0.301 -0.7826  0.7135  0.0793
16367SOL    HW160825   4.476   1.125   0.391 -0.7555  1.4324  0.2231
16367SOL    HW260826   4.517   1.203   0.268 -0.1203 -0.4864 -0.8164
16368SOL     OW60827   4.974   3.715   1.061 -0.4668 -0.2956  0.2212
16368SOL    HW160828   4.975   3.632   1.013 -1.1473  0.5085 -1.2582
16368SOL    HW260829   5.042   3.767   1.018 -1.2695  0.5406 -0.0570
16369SOL     OW60830  10.181   1.442   6.016  0.0475  0.2881 -0.0841
16369SOL    HW160831  10.203   1.484   6.099 -0.7088  0.5943 -0.0332
16369SOL    HW260832  10.176   1.349   6.036 -1.1514  0.4443  0.4587
16370SOL     OW60833   1.908   8.170   5.542 -0.3032  0.0179  0.4299
16370SOL    HW160834   1.831   8.203   5.588 -0.6593  2.5172 -1.6988
16370SOL    HW260835   1.972   8.155   5.611 -1.7612  0.6524  2.0082
16371SOL     OW60836   7.621   3.888   2.655 -0.3689  0.0449  0.1093
16371SOL    HW160837   7.584   3.820   2.599 -0.9273 -1.1296  1.8244
16371SOL    HW260838   7.546   3.922   2.704  0.3733 -0.3608  1.5706
16372SOL     OW60839   8.125   0.636   8.632 -0.8726  0.3986  0.1503
16372SOL    HW160840   8.211   0.602   8.658 -1.2217 -0.8055 -0.2120
16372SOL    HW260841   8.114   0.716   8.684  0.0248  0.0175  0.9529
16373SOL     OW60842   4.999  10.750   9.655 -0.2154 -0.0580 -0.3278
16373SOL    HW160843   5.091  10.758   9.630 -0.4564  0.4974 -1.0735
16373SOL    HW260844   4.997  10.770   9.748  0.4070 -0.0171 -0.3223
16374SOL     OW60845   3.558  10.972   7.603 -0.0999 -0.7749 -0.5095
16374SOL    HW160846   3.561  10.883   7.570 -4.0462 -0.0361 -3.6310
16374SOL    HW260847   3.466  10.986   7.626  0.7626  1.8991  2.0077
16375SOL     OW60848   3.695   2.133   6.505  0.0800  0.0966 -0.0048
16375SOL    HW160849   3.781   2.093   6.491  0.3026  0.5837 -0.0325
16375SOL    HW260850   3.688   2.200   6.437 -0.1431  0.3517  0.2687
16376SOL     OW60851   4.774   3.705   1.793  0.0368 -0.1914  0.2571
16376SOL    HW160852   4.859   3.683   1.831  1.2954  2.4329 -0.7730
16376SOL    HW260853   4.781   3.677   1.702  0.5405  1.5319 -0.2852
16377SOL     OW60854   6.239   3.599   5.351 -0.4336  0.4366 -0.1650
16377SOL    HW160855   6.154   3.607   5.394 -1.0847  0.4140 -1.4228
16377SOL    HW260856   6.285   3.680   5.376  0.1183 -0.5868  2.4329
16378SOL     OW60857   4.563   8.603   0.338 -0.8477  0.2296  0.2645
16378SOL    HW160858   4.485   8.654   0.358 -0.3496  1.1086 -0.0115
16378SOL    HW260859   4.534   8.540   0.272 -1.2113  0.8670 -0.1948
16379SOL     OW60860   4.673   2.623   0.624 -0.0223 -0.2050 -0.1904
16379SOL    HW160861   4.731   2.683   0.579  0.3708  0.7131  1.4464
16379SOL    HW260862   4.589   2.668   0.628 -0.2369 -0.5654 -0.5871
16380SOL     OW60863   4.997   5.800  10.704  0.0115 -0.2469 -0.9496
16380SOL    HW160864   4.992   5.739  10.778  1.3385  0.3668 -0.3046
16380SOL    HW260865   5.045   5.752  10.637 -1.1823 -0.8007 -1.4257
16381SOL     OW60866  10.468   4.119   0.398 -0.3934 -0.1433 -0.3330
16381SOL    HW160867  10.430   4.196   0.439 -0.1889 -0.9333  1.4475
16381SOL    HW260868  10.408   4.096   0.328 -1.3163  0.6947  0.1672
16382SOL     OW60869   2.929   1.608   0.455 -0.1737 -0.0862  0.3601
16382SOL    HW160870   3.022   1.604   0.433 -0.5635 -0.2159 -1.3915
16382SOL    HW260871   2.900   1.517   0.451 -0.7129  0.1175 -0.7767
16383SOL     OW60872   4.274   3.048   0.080 -0.0842  0.1414 -0.1651
16383SOL    HW160873   4.287   2.979   0.146  0.0269 -0.1361 -0.4751
16383SOL    HW260874   4.357   3.096   0.079 -0.5888  1.0991  0.9738
16384SOL     OW60875   4.609   9.636  11.765 -0.0906 -0.9326  0.6584
16384SOL    HW160876   4.592   9.721  11.804  1.3820 -1.6173  2.9712
16384SOL    HW260877   4.607   9.652  11.670  0.9542  1.8496  1.0144
16385SOL     OW60878   8.719   8.211   7.516  0.5163  0.2832  0.3512
16385SOL    HW160879   8.626   8.232   7.517 -0.3508 -2.8662  2.8731
16385SOL    HW260880   8.761   8.284   7.562 -0.9077  1.0762  0.4412
16386SOL     OW60881   3.422   0.155   1.446 -0.1482  0.3174  0.0049
16386SOL    HW160882   3.355   0.215   1.413  0.2008 -0.7484 -2.8893
16386SOL    HW260883   3.505   0.193   1.417  0.5055  0.9550  2.4686
16387SOL     OW60884   1.384   1.340   1.095 -0.4663 -0.0683 -0.1540
16387SOL    HW160885   1.460   1.317   1.041  0.3691  2.0714 -0.0042
16387SOL    HW260886   1.308   1.312   1.044  0.3469  0.6135 -1.8008
16388SOL     OW60887   3.757   9.825  11.823 -0.2527  0.1357  0.3939
16388SOL    HW160888   3.663   9.811  11.838 -0.5144  0.7631 -0.6201
16388SOL    HW260889   3.765   9.838  11.729  0.7949  0.5807  0.5310
16389SOL     OW60890   1.644   9.219   9.774  0.1240  0.2684 -0.0882
16389SOL    HW160891   1.627   9.299   9.724  0.8300  0.4709 -0.0139
16389SOL    HW260892   1.651   9.150   9.708 -1.0800  0.1465 -0.1168
16390SOL     OW60893   6.356   5.237  11.770 -0.0427 -0.1101 -0.0159
16390SOL    HW160894   6.263   5.250  11.789 -0.0298  0.7989 -0.5662
16390SOL    HW260895   6.384   5.172  11.835 -0.6808  0.8087  1.2187
16391SOL     OW60896  10.327   0.937   4.028  0.1063  0.0607  0.3706
16391SOL    HW160897  10.326   0.848   3.992 -0.6996 -0.0507  0.6566
16391SOL    HW260898  10.284   0.991   3.962 -1.9879 -0.2560  1.3926
16392SOL     OW60899   4.349  10.833   2.641 -0.4866  0.2062  0.1234
16392SOL    HW160900   4.413  10.821   2.572 -0.8460  0.2833 -0.2244
16392SOL    HW260901   4.337  10.928   2.646 -1.2433  0.1489 -0.4319
16393SOL     OW60902   0.966   4.312   5.944 -0.3180 -0.0990  0.1392
16393SOL    HW160903   0.997   4.401   5.962 -0.2749  0.0684 -0.7112
16393SOL    HW260904   1.043   4.267   5.908 -0.3471 -0.4705  0.5431
16394SOL     OW60905   4.177   9.302   9.754 -0.2180 -0.1049  0.0458
16394SOL    HW160906   4.108   9.257   9.706 -1.2018  1.0048  0.3837
16394SOL    HW260907   4.255   9.249   9.738 -1.1886 -1.5561 -0.1045
16395SOL     OW60908  10.157   7.467  11.406 -0.2729 -0.2573 -0.1896
16395SOL    HW160909  10.158   7.553  11.363 -1.8041  0.6191  1.3889
16395SOL    HW260910  10.136   7.405  11.337 -1.9945  1.0092 -0.8802
16396SOL     OW60911  10.016   3.652   5.113  0.0591  0.7271 -0.5941
16396SOL    HW160912  10.021   3.640   5.018  1.8762  0.9476 -0.5668
16396SOL    HW260913  10.048   3.741   5.127  0.0154  0.6136  0.2411
16397SOL     OW60914   2.279   7.349  10.517 -0.2179 -0.7016 -0.1086
16397SOL    HW160915   2.333   7.421  10.549  0.0584 -0.8060 -0.3311
16397SOL    HW260916   2.338   7.274  10.512  0.0142 -0.4525 -1.7917
16398SOL     OW60917   0.733  10.905  11.505 -0.3954  0.9506  0.3866
16398SOL    HW160918   0.667  10.947  11.560 -1.0960  2.8986 -1.7472
16398SOL    HW260919   0.752  10.970  11.437  1.2618 -0.8558 -1.0034
16399SOL     OW60920   8.474  10.456   3.690 -0.0088  0.6542 -0.2943
16399SOL    HW160921   8.492  10.508   3.769  0.8864 -1.9165  1.3218
16399SOL    HW260922   8.490  10.516   3.617  0.6816  2.6864  1.4369
16400SOL     OW60923   4.428   1.192   4.283  0.4825  0.2633 -0.1088
16400SOL    HW160924   4.388   1.149   4.358  2.1026 -0.2895  0.4728
16400SOL    HW260925   4.521   1.196   4.304  1.1350 -0.7328 -2.4621
16401SOL     OW60926   1.748   4.271   9.157 -0.2825 -0.0748  0.2720
16401SOL    HW160927   1.766   4.353   9.111  1.5279  0.6011  2.0035
16401SOL    HW260928   1.796   4.280   9.240  0.7596 -3.2435  0.1413
16402SOL     OW60929   5.536   9.379   1.013  0.1803  0.0869  0.2288
16402SOL    HW160930   5.583   9.320   0.953  0.8950  1.0529 -0.1732
16402SOL    HW260931   5.465   9.415   0.960  1.3094  1.5800 -0.3025
16403SOL     OW60932   9.329   4.751   2.604  0.3406 -0.0461 -0.1336
16403SOL    HW160933   9.264   4.822   2.605  0.1769 -0.0450  3.5671
16403SOL    HW260934   9.404   4.788   2.557  0.0100  2.3940  1.0597
16404SOL     OW60935   3.925   1.659   1.634  0.1948 -0.0190 -0.3964
16404SOL    HW160936   3.901   1.750   1.617  2.4291  0.4663 -1.3843
16404SOL    HW260937   3.844   1.610   1.622 -1.6745  2.0276  2.6271
16405SOL     OW60938   4.215  10.593   8.206  0.3287  0.4728  0.5903
16405SOL    HW160939   4.268  10.665   8.173 -0.4047  0.1643 -1.4464
16405SOL    HW260940   4.153  10.634   8.266  1.3861  1.1642  1.2397
16406SOL     OW60941   3.799   4.024   3.422  0.0622 -0.0994  0.9183
16406SOL    HW160942   3.742   4.096   3.449 -1.4439 -0.5526 -0.8885
16406SOL    HW260943   3.847   4.059   3.347  0.9907 -0.2713  1.4176
16407SOL     OW60944   2.472   8.767   0.940  0.0139  0.7507  0.0233
16407SOL    HW160945   2.550   8.821   0.950 -0.1810  0.9588  0.4376
16407SOL    HW260946   2.404   8.827   0.910 -0.3993  0.8925  1.2163
16408SOL     OW60947   3.900   5.078   3.542 -0.3000  0.1639  0.4935
16408SOL    HW160948   3.943   5.076   3.627 -0.1973  1.0331  0.4761
16408SOL    HW260949   3.966   5.112   3.481 -0.6644  0.4856  0.2630
16409SOL     OW60950   2.626   8.048   2.048  0.0190  0.0136  0.5544
16409SOL    HW160951   2.683   8.123   2.027 -2.5128  1.3275 -2.5511
16409SOL    HW260952   2.686   7.981   2.080  2.8972  2.2461  0.3232
16410SOL     OW60953   9.362   1.763   9.417 -0.1978 -0.1534 -0.0426
16410SOL    HW160954   9.445   1.775   9.370 -0.6150  1.3611 -0.4296
16410SOL    HW260955   9.359   1.669   9.436  0.8815 -0.4895 -1.3867
16411SOL     OW60956   4.530   6.453   0.567 -0.1331  0.7404  0.2013
16411SOL    HW160957   4.520   6.410   0.652  1.2655 -1.4063 -0.6160
16411SOL    HW260958   4.464   6.412   0.511  0.1067  0.8608 -0.1770
16412SOL     OW60959   5.936  11.081   1.639 -0.1140  0.0819  0.0644
16412SOL    HW160960   5.860  11.082   1.697  1.4302  0.8106  2.2011
16412SOL    HW260961   5.913  11.141   1.568 -0.8375  1.9063  1.7327
16413SOL     OW60962   5.758   6.609  10.854  0.3896 -0.3476  0.0463
16413SOL    HW160963   5.846   6.646  10.852 -1.1890  4.0105 -1.7282
16413SOL    HW260964   5.737   6.590  10.763 -1.1215  0.5465  0.1706
16414SOL     OW60965   1.825   1.043  10.709  0.1231 -0.0830  0.4865
16414SOL    HW160966   1.753   1.014  10.653  0.1375  0.6403  0.0812
16414SOL    HW260967   1.903   1.006  10.667  0.1822  0.8561 -0.2695
16415SOL     OW60968   8.121   8.856   3.649  0.1688 -0.1159  0.0931
16415SOL    HW160969   8.174   8.780   3.624  0.3571 -0.5547  1.7269
16415SOL    HW260970   8.183   8.928   3.655 -0.0213  0.2277 -1.5384
16416SOL     OW60971   5.772   0.930  11.346  0.1030 -0.5200  0.6225
16416SOL    HW160972   5.805   0.861  11.404  0.1074 -0.5273  0.6116
16416SOL    HW260973   5.795   0.900  11.258  1.7644  0.3967  0.7171
16417SOL     OW60974   6.422   6.713  10.532 -0.5530 -0.2104  0.1714
16417SOL    HW160975   6.489   6.700  10.465 -0.7904 -1.3631  0.1396
16417SOL    HW260976   6.374   6.630  10.535  0.2781 -0.6989  2.7039
16418SOL     OW60977  10.209  11.804  10.771 -0.1256 -0.2081  0.0177
16418SOL    HW160978  10.287  11.780  10.720 -1.1288 -1.8057 -0.8068
16418SOL    HW260979  10.142  11.823  10.705 -0.6149  0.5918  0.7286
16419SOL     OW60980   3.375   9.130   4.530  0.1486  0.5646 -0.6572
16419SOL    HW160981   3.292   9.086   4.511  0.8286 -0.4126 -1.4135
16419SOL    HW260982   3.376   9.139   4.625 -0.4544 -0.1441 -0.5767
16420SOL     OW60983   7.870   1.388   6.231 -0.3022  0.4274 -0.1256
16420SOL    HW160984   7.943   1.379   6.170  1.9776  0.7135  2.3757
16420SOL    HW260985   7.809   1.448   6.188  1.4231  1.0064 -1.8815
16421SOL     OW60986   5.669   7.502   5.776  0.4372  0.1166 -0.3376
16421SOL    HW160987   5.759   7.497   5.809  0.0742  0.4241  0.7286
16421SOL    HW260988   5.665   7.587   5.731  0.5603  0.2887 -0.0242
16422SOL     OW60989  11.234  10.354  10.594 -0.0516 -0.0190  0.2458
16422SOL    HW160990  11.221  10.414  10.668  0.1147 -0.5641  0.7278
16422SOL    HW260991  11.324  10.323  10.604 -0.1247 -0.3261 -0.0183
16423SOL     OW60992   5.681   2.459   5.873 -0.4575  0.7129 -0.3228
16423SOL    HW160993   5.748   2.416   5.926 -1.6563 -2.2718 -1.0414
16423SOL    HW260994   5.728   2.489   5.795  0.1091 -1.2991 -0.7983
16424SOL     OW60995   6.916   9.281  11.434 -0.0285  0.0517 -0.8881
16424SOL    HW160996   6.979   9.349  11.458 -0.1548 -0.0091 -0.3538
16424SOL    HW260997   6.862   9.321  11.366 -1.1197  1.0864  0.5134
16425SOL     OW60998   6.101   5.355   5.219  0.3123 -0.1297  1.2496
16425SOL    HW160999   6.074   5.440   5.254 -0.0142 -0.6848  2.3819
16425SOL    HW261000   6.180   5.333   5.268  1.3551  0.2380 -0.1726
16426SOL     OW61001   0.619   2.332   3.860 -0.7069 -0.0674 -0.1587
16426SOL    HW161002   0.540   2.354   3.909  1.8326  1.7404  3.6230
16426SOL    HW261003   0.621   2.394   3.788 -1.3915  1.8476  1.3819
16427SOL     OW61004   9.965  10.282   7.730  0.6911 -0.0074  0.0026
16427SOL    HW161005   9.947  10.199   7.686 -0.8245  0.5654 -0.5207
16427SOL    HW261006  10.059  10.297   7.717  0.9626 -1.5678  0.0134
16428SOL     OW61007   3.806   2.781   4.726 -0.3861 -0.6221 -0.1629
16428SOL    HW161008   3.742   2.849   4.745 -0.5417 -0.5186 -1.0003
16428SOL    HW261009   3.890   2.827   4.725 -0.1748 -0.8860  1.6688
16429SOL     OW61010   9.627  11.720   9.354 -0.2521  0.3054  0.7062
16429SOL    HW161011   9.644  11.807   9.389 -0.9704  0.7134  0.0759
16429SOL    HW261012   9.544  11.693   9.393 -0.5477  0.3413  0.1201
16430SOL     OW61013   4.131   6.366   9.727  0.4292  0.2409 -0.3283
16430SOL    HW161014   4.075   6.425   9.678 -2.7654 -2.2185  0.0155
16430SOL    HW261015   4.161   6.302   9.662  1.3438  0.4671 -0.1491
16431SOL     OW61016  11.272   6.556  11.610 -0.3135  0.8347  0.6518
16431SOL    HW161017  11.226   6.570  11.528  1.0655 -0.3941 -0.3796
16431SOL    HW261018  11.222   6.487  11.654 -0.5046  0.8167  0.4070
16432SOL     OW61019  11.296   2.815   2.962 -0.0172  0.0854  0.2340
16432SOL    HW161020  11.211   2.838   2.999 -0.5341 -1.1012 -0.2024
16432SOL    HW261021  11.300   2.862   2.879 -1.0471 -1.2941 -0.6290
16433SOL     OW61022  10.941  11.780  11.683  0.6995  0.4880 -0.0233
16433SOL    HW161023  10.943  11.755  11.775  1.8296 -2.8189 -0.8309
16433SOL    HW261024  10.851  11.809  11.668  0.2842  0.3591  1.9065
16434SOL     OW61025   4.031   6.308   5.573  0.0920 -0.0486  0.2063
16434SOL    HW161026   4.119   6.272   5.559 -0.2492 -0.6606 -0.3929
16434SOL    HW261027   4.045   6.381   5.634  1.5216  2.0980 -2.4458
16435SOL     OW61028  11.432   0.185  11.438 -0.1998  0.3560  0.0425
16435SOL    HW161029  11.387   0.192  11.522  2.0421  1.2581  1.2621
16435SOL    HW261030  11.437   0.275  11.406  0.0359  0.1715 -0.4556
16436SOL     OW61031   6.843   7.701   2.871  0.2552 -0.2134 -0.0951
16436SOL    HW161032   6.876   7.734   2.788 -1.0883 -0.9394 -0.9571
16436SOL    HW261033   6.897   7.624   2.889  1.9910  1.1621  0.8501
16437SOL     OW61034   1.773   2.486   2.605  0.6132 -0.3937 -0.0807
16437SOL    HW161035   1.790   2.396   2.632 -0.2192 -0.4738  0.2089
16437SOL    HW261036   1.860   2.525   2.594  1.0539 -1.8510 -2.4050
16438SOL     OW61037   5.130   4.482   5.632 -0.4697  0.1175  0.1870
16438SOL    HW161038   5.096   4.395   5.614 -2.1547  1.1080 -1.8035
16438SOL    HW261039   5.056   4.541   5.617  1.0941  2.0545 -0.3928
16439SOL     OW61040   9.061  11.369   5.693 -0.0177  0.7297 -0.2158
16439SOL    HW161041   8.980  11.337   5.654 -0.7990  1.8692  0.4017
16439SOL    HW261042   9.128  11.306   5.665 -1.0954 -0.2096 -0.7737
16440SOL     OW61043   8.103  10.255   7.808  0.0724  0.6477 -0.0113
16440SOL    HW161044   8.106  10.334   7.862  0.8167  0.1905  0.6384
16440SOL    HW261045   8.054  10.192   7.861 -1.1246  0.8828 -0.8236
16441SOL     OW61046   1.854   9.076   4.523  0.3107 -0.8034  0.0218
16441SOL    HW161047   1.834   8.984   4.540 -4.0223  0.1754  1.3425
16441SOL    HW261048   1.789   9.125   4.573  2.0409  3.0222 -1.0997
16442SOL     OW61049   8.748   2.263   3.269 -0.0223  0.6778  0.7219
16442SOL    HW161050   8.714   2.179   3.299  0.9839  0.1431  0.3815
16442SOL    HW261051   8.683   2.327   3.300 -0.4364 -0.1408  1.5845
16443SOL     OW61052   1.978   3.284   6.254  0.2315 -0.3553 -0.3764
16443SOL    HW161053   2.028   3.333   6.190 -0.0854 -0.0783 -0.4125
16443SOL    HW261054   1.928   3.221   6.203 -1.3929  1.0486 -0.5796
16444SOL     OW61055   2.280   7.385   5.911 -0.1108  0.1460 -0.7922
16444SOL    HW161056   2.337   7.402   5.986  0.0447 -1.6417 -0.4545
16444SOL    HW261057   2.192   7.407   5.944 -0.0300 -0.5002 -0.1042
16445SOL     OW61058  11.088   9.135  10.493 -0.5393  0.4497 -0.3279
16445SOL    HW161059  11.152   9.182  10.546  0.9112 -0.1281 -1.4766
16445SOL    HW261060  11.129   9.051  10.475 -0.7438  0.7695 -2.6663
16446SOL     OW61061   6.721   1.652   5.437 -0.6192  0.1904 -0.2367
16446SOL    HW161062   6.677   1.617   5.360 -2.5212 -0.0751  0.9193
16446SOL    HW261063   6.693   1.596   5.509  0.5196  0.8854  0.7904
16447SOL     OW61064   9.638   4.060   9.520  0.4672  0.4987  0.3103
16447SOL    HW161065   9.721   4.031   9.559  0.5676  1.9747  1.2672
16447SOL    HW261066   9.655   4.150   9.492  0.0373 -0.1130 -2.1719
16448SOL     OW61067   6.047   8.795   3.816 -0.4213  0.2119  0.4034
16448SOL    HW161068   6.065   8.741   3.738  3.2236  1.4607  0.1600
16448SOL    HW261069   6.103   8.757   3.884  3.1055  3.8951 -0.0347
16449SOL     OW61070   9.406  11.605  11.181 -0.3794 -0.0324  0.3060
16449SOL    HW161071   9.350  11.627  11.255 -0.7833 -2.1650  0.6894
16449SOL    HW261072   9.469  11.542  11.216  0.3588  0.0558 -0.8231
16450SOL     OW61073  11.831   3.152  10.380 -0.3491 -0.2937  0.2701
16450SOL    HW161074  11.756   3.099  10.351 -2.1899  1.5921  1.3244
16450SOL    HW261075  11.817   3.163  10.474  1.5800 -0.3089  0.5941
16451SOL     OW61076   8.397  10.666   6.462  0.7438 -0.4302  0.1316
16451SOL    HW161077   8.385  10.614   6.383  0.7193  1.3297 -1.0855
16451SOL    HW261078   8.456  10.613   6.517 -0.9596 -2.6692 -0.0392
16452SOL     OW61079   7.158   8.158   5.377  0.3565 -0.0327 -0.1100
16452SOL    HW161080   7.109   8.108   5.442 -1.8448  2.8415  0.6648
16452SOL    HW261081   7.241   8.179   5.421  0.0188 -0.4193  0.7443
16453SOL     OW61082   5.830  10.233   1.238  0.2489  0.3773 -0.1249
16453SOL    HW161083   5.796  10.292   1.171  0.0973  0.0016 -0.3805
16453SOL    HW261084   5.817  10.280   1.320  0.8509  1.0334 -0.3941
16454SOL     OW61085   7.608   7.538   5.586  0.8142  0.0528  1.0303
16454SOL    HW161086   7.562   7.497   5.513  1.1387 -0.9468  1.3702
16454SOL    HW261087   7.604   7.632   5.567  0.6721 -0.1723 -0.1294
16455SOL     OW61088  10.036   3.511   2.859 -0.2081  0.0948 -0.1645
16455SOL    HW161089  10.069   3.587   2.907 -1.8407  1.2340 -0.7518
16455SOL    HW261090   9.984   3.548   2.788 -1.1819 -1.5692 -0.3861
16456SOL     OW61091   6.201   0.694   8.360 -0.4062  0.1657 -0.5746
16456SOL    HW161092   6.232   0.785   8.366  0.4508 -0.0950 -0.9249
16456SOL    HW261093   6.281   0.642   8.349 -0.9786 -0.5137 -1.6246
16457SOL     OW61094   4.004   7.032   5.905 -0.1147 -0.2110 -0.2569
16457SOL    HW161095   4.059   7.072   5.972  2.2513 -1.8178 -1.0915
16457SOL    HW261096   4.061   7.026   5.828 -2.5639  1.1124 -2.3315
16458SOL     OW61097   5.767   9.565  11.771 -0.0112 -0.3400 -0.2154
16458SOL    HW161098   5.806   9.513  11.841  1.2590 -0.3531 -0.9036
16458SOL    HW261099   5.682   9.592  11.806  0.1210 -1.2654  0.8929
16459SOL     OW61100   7.752   3.740  10.210  0.1186 -0.2788 -0.1779
16459SOL    HW161101   7.712   3.655  10.188  1.4642 -1.0867  0.3781
16459SOL    HW261102   7.706   3.803  10.155 -1.4546 -1.2505 -0.0337
16460SOL     OW61103   6.641   2.571  10.412 -0.0882  0.2473  0.1855
16460SOL    HW161104   6.606   2.534  10.331 -1.5121 -0.6375  1.1478
16460SOL    HW261105   6.735   2.557  10.406 -0.3131 -1.1166 -0.6948
16461SOL     OW61106  11.579   3.226   4.613 -0.1635 -0.1701  0.1361
16461SOL    HW161107  11.672   3.232   4.593 -0.1264  0.3728  0.4644
16461SOL    HW261108  11.572   3.152   4.673 -0.0818 -0.8609 -0.6926
16462SOL     OW61109   4.923   1.840  11.749  0.1481  0.2704 -0.7537
16462SOL    HW161110   4.856   1.776  11.724 -0.6437  0.8274 -0.0991
16462SOL    HW261111   4.888   1.883  11.827  2.9539 -2.0518  2.0469
16463SOL     OW61112  11.260   0.112  10.364 -0.0291 -0.1995  0.5554
16463SOL    HW161113  11.272   0.174  10.293  0.1229 -1.0452 -0.1825
16463SOL    HW261114  11.348   0.095  10.397  0.3959 -2.4606 -1.4228
16464SOL     OW61115   8.212  11.049   3.337 -0.4395 -0.3305 -0.4055
16464SOL    HW161116   8.197  10.970   3.284 -0.8776 -0.8913  0.5366
16464SOL    HW261117   8.281  11.025   3.398 -0.1963  0.2003 -0.4629
16465SOL     OW61118  11.539  10.253  10.851 -0.0402 -0.0879 -0.7333
16465SOL    HW161119  11.534  10.299  10.767 -0.8384  3.0596  0.8718
16465SOL    HW261120  11.580  10.316  10.910 -0.7385 -1.6813  1.5704
16466SOL     OW61121   7.408   7.101   0.485  0.2538 -0.2015  0.2267
16466SOL    HW161122   7.434   7.112   0.576 -0.9102 -0.5594  0.6234
16466SOL    HW261123   7.448   7.174   0.439  1.0578 -0.1577  0.9802
16467SOL     OW61124   8.300   8.465   0.856  0.1718 -0.2076  0.3460
16467SOL    HW161125   8.237   8.393   0.867 -1.1230  1.0146  1.2403
16467SOL    HW261126   8.339   8.477   0.943 -0.7482  1.1343  0.6100
16468SOL     OW61127   9.153  11.598   9.528  0.3525  0.0398  0.1106
16468SOL    HW161128   9.247  11.609   9.515  0.5232 -0.1336  1.1080
16468SOL    HW261129   9.113  11.660   9.467  1.1252  0.6583  0.2184
16469SOL     OW61130   9.880  10.082   7.543 -0.1189  0.4816 -0.0929
16469SOL    HW161131   9.804  10.127   7.506 -0.9833 -0.2926  0.6845
16469SOL    HW261132   9.949  10.095   7.478 -1.3859 -0.2480 -1.6752
16470SOL     OW61133   3.677   5.336   6.864 -0.4042  0.3811  0.8226
16470SOL    HW161134   3.700   5.424   6.893 -0.9323  0.8212 -0.0548
16470SOL    HW261135   3.725   5.325   6.782  0.1347 -0.3950  1.2250
16471SOL     OW61136   1.517  10.382   4.680  0.2332  0.4312 -0.3677
16471SOL    HW161137   1.574  10.457   4.664 -0.6337  2.0212  3.0488
16471SOL    HW261138   1.436  10.420   4.715 -0.5239 -2.0430  0.8109
16472SOL     OW61139  11.340   3.076   3.319  0.2908  0.5135 -0.4790
16472SOL    HW161140  11.342   3.143   3.250 -0.9656  0.7077 -0.3529
16472SOL    HW261141  11.257   3.092   3.365  1.4533  0.8814  1.5974
16473SOL     OW61142   4.902   2.317  10.275 -0.1925  0.5825  0.0630
16473SOL    HW161143   4.837   2.302  10.207  0.5272 -0.9528 -0.3269
16473SOL    HW261144   4.863   2.279  10.354  0.7843 -1.7187 -0.4881
16474SOL     OW61145   9.655   0.566   0.207  0.2801  0.3018  1.0733
16474SOL    HW161146   9.577   0.521   0.240  0.2392  0.1996  0.8386
16474SOL    HW261147   9.712   0.575   0.283  1.0652 -1.7157  0.7626
16475SOL     OW61148   5.312   4.112  10.141  0.2470  0.1759 -0.3000
16475SOL    HW161149   5.336   4.204  10.134  0.0151  0.2679  0.0827
16475SOL    HW261150   5.393   4.064  10.121  0.0204  0.4253 -1.9721
16476SOL     OW61151   1.808   3.971   6.962  0.1391 -0.6753 -0.6066
16476SOL    HW161152   1.899   3.952   6.988  0.1334 -1.5311 -1.1929
16476SOL    HW261153   1.779   4.037   7.025  1.7492  0.9722 -1.4792
16477SOL     OW61154   5.421   5.331   0.652  0.4676 -0.1856  0.2793
16477SOL    HW161155   5.433   5.272   0.579  0.9219  0.6504 -0.3404
16477SOL    HW261156   5.506   5.334   0.695  0.6071  0.4346 -0.0246
16478SOL     OW61157   8.258  11.383   2.829  0.1536  0.4548 -0.5022
16478SOL    HW161158   8.337  11.385   2.883 -1.6662  0.0730  2.3878
16478SOL    HW261159   8.239  11.290   2.818 -0.3741  0.5473 -0.3989
16479SOL     OW61160   1.888   7.900   5.092  0.4215 -0.2741  0.1650
16479SOL    HW161161   1.821   7.935   5.032  1.3911  0.6817 -0.3982
16479SOL    HW261162   1.847   7.905   5.179 -0.1992  0.4193 -0.1552
16480SOL     OW61163  11.749   4.396   1.031  0.0049  0.0419  0.4651
16480SOL    HW161164  11.678   4.461   1.026 -1.2155 -1.2860 -0.6532
16480SOL    HW261165  11.823   4.438   0.987 -1.4982 -0.1201 -2.5225
16481SOL     OW61166   6.506   9.256   0.842 -0.1830 -0.2442 -0.3466
16481SOL    HW161167   6.472   9.316   0.775  1.4796 -0.6619 -1.6167
16481SOL    HW261168   6.561   9.310   0.897 -0.4912 -0.1704 -0.1059
16482SOL     OW61169   6.462  11.798  11.555  0.4751 -0.2540  0.4733
16482SOL    HW161170   6.538  11.745  11.578  0.6842  0.8604  2.4933
16482SOL    HW261171   6.420  11.749  11.484  1.7758 -2.0579  0.8835
16483SOL     OW61172   3.602   3.949   5.259 -0.0598  0.5187  0.2374
16483SOL    HW161173   3.649   4.006   5.198 -0.8448  0.8697 -0.0568
16483SOL    HW261174   3.510   3.962   5.237 -0.2651 -0.9485  0.0901
16484SOL     OW61175   6.538   8.663   6.574  0.4912 -0.4636  0.3050
16484SOL    HW161176   6.483   8.666   6.652  2.0600 -2.2001  1.5669
16484SOL    HW261177   6.552   8.570   6.558  1.8327 -0.0943 -0.8673
16485SOL     OW61178   3.280   3.167   8.413  0.1364 -0.2783 -0.5162
16485SOL    HW161179   3.240   3.080   8.418 -2.4773  0.7726 -1.1338
16485SOL    HW261180   3.310   3.185   8.502 -0.7083 -1.2130 -0.0291
16486SOL     OW61181  10.705   5.239  10.217 -0.0806 -0.3846 -0.3697
16486SOL    HW161182  10.771   5.200  10.159 -0.5197 -1.3372 -0.2476
16486SOL    HW261183  10.714   5.190  10.298 -0.1815  0.2456  0.0247
16487SOL     OW61184   3.424   8.523   6.604 -0.3713 -0.7621 -0.6722
16487SOL    HW161185   3.356   8.456   6.606  0.0338 -1.1613 -0.0957
16487SOL    HW261186   3.500   8.479   6.566  0.3944 -1.1239  1.1946
16488SOL     OW61187   7.988   5.547   7.846 -0.2791  0.4151  1.4858
16488SOL    HW161188   8.061   5.564   7.785  0.6656 -0.4114  2.3419
16488SOL    HW261189   7.944   5.632   7.855 -1.9051  0.1143 -2.1113
16489SOL     OW61190   1.035  10.002   6.773 -0.5654 -0.4937 -0.4459
16489SOL    HW161191   0.943   9.998   6.746 -1.8859 -0.6185  3.4465
16489SOL    HW261192   1.048   9.924   6.826  0.9065  0.9501  1.4426
16490SOL     OW61193  11.645   6.047   2.244  0.7640 -0.5366 -0.1523
16490SOL    HW161194  11.735   6.028   2.218  1.1325 -0.5099  1.0621
16490SOL    HW261195  11.648   6.138   2.276  0.3564 -0.6153  0.1158
16491SOL     OW61196   8.242  10.646   7.651  0.0479  0.0621 -0.5110
16491SOL    HW161197   8.301  10.695   7.708 -0.1025  2.0632 -1.9900
16491SOL    HW261198   8.298  10.582   7.607  0.8317  0.8723 -0.7107
16492SOL     OW61199   2.556   5.626   8.252  0.3890  1.0201 -0.3125
16492SOL    HW161200   2.525   5.577   8.329 -0.3246  2.0458  0.0844
16492SOL    HW261201   2.637   5.669   8.282 -0.0452  1.6569 -0.0180
16493SOL     OW61202   6.889   5.116   9.432 -0.2008  0.4030  0.4914
16493SOL    HW161203   6.897   5.102   9.526 -1.0313 -0.0397  0.5070
16493SOL    HW261204   6.828   5.048   9.403  2.5094 -1.6616 -0.9337
16494SOL     OW61205   2.732   4.166  10.861 -0.2310 -0.4812 -0.3339
16494SOL    HW161206   2.642   4.183  10.831 -0.0180  2.2978  0.3887
16494SOL    HW261207   2.730   4.185  10.955  0.7904 -1.9487  0.0234
16495SOL     OW61208  11.527   7.124   0.656 -0.7055 -0.4590  0.0611
16495SOL    HW161209  11.436   7.122   0.627 -0.6791  0.2998 -0.0879
16495SOL    HW261210  11.568   7.194   0.605 -0.2118 -0.3315  0.6090
16496SOL     OW61211   1.405   4.532   7.736 -0.3435 -0.1050 -0.6937
16496SOL    HW161212   1.403   4.608   7.794  0.6978  0.3991 -1.3044
16496SOL    HW261213   1.316   4.528   7.700 -1.2127 -0.7910  1.3516
16497SOL     OW61214   7.185   6.263   0.584  0.3502  0.0489  0.3455
16497SOL    HW161215   7.150   6.175   0.568  0.2742  0.1803 -0.2295
16497SOL    HW261216   7.108   6.316   0.604  0.2601  0.2448 -0.4989
16498SOL     OW61217   7.820  10.281   0.528  0.3470  0.1432 -0.1781
16498SOL    HW161218   7.751  10.340   0.499 -1.7277 -2.2092 -0.3688
16498SOL    HW261219   7.828  10.217   0.457 -1.4975 -2.9732  2.1610
16499SOL     OW61220   9.531   0.023   6.154 -0.0216 -0.5453  0.3592
16499SOL    HW161221   9.471   0.097   6.144 -0.5409 -0.8836  0.8591
16499SOL    HW261222   9.615   0.055   6.122 -0.5982 -0.2490 -0.9019
16500SOL     OW61223   8.401   8.838  11.726  0.1747  0.7004  0.0419
16500SOL    HW161224   8.496   8.845  11.722  0.1105  1.5556 -0.2057
16500SOL    HW261225   8.370   8.927  11.706 -0.7232  0.0424 -1.6569
16501SOL     OW61226   8.613   4.210  11.951 -0.1787  0.4419  0.0061
16501SOL    HW161227   8.576   4.202  12.038  1.2488 -0.0428  0.5912
16501SOL    HW261228   8.696   4.162  11.955  0.2935  1.0820 -1.3873
16502SOL     OW61229  10.071   8.699   7.139 -0.5093 -0.6218 -0.3507
16502SOL    HW161230  10.049   8.622   7.086 -2.2122 -1.1209  1.0155
16502SOL    HW261231  10.007   8.699   7.210  1.1566  0.5216  1.2390
16503SOL     OW61232   5.770   6.667   8.094  0.1948 -0.2688  0.0314
16503SOL    HW161233   5.684   6.639   8.064  0.6766 -1.3816 -0.3785
16503SOL    HW261234   5.809   6.588   8.131  0.8064  0.3643  0.7766
16504SOL     OW61235   4.851   4.152   1.397 -0.6459  0.6412 -0.8352
16504SOL    HW161236   4.866   4.221   1.332 -1.2147  0.4407 -1.1861
16504SOL    HW261237   4.756   4.141   1.398 -0.7283  1.2302  0.6422
16505SOL     OW61238   8.782   8.250   2.911 -0.4482  0.2717  0.3013
16505SOL    HW161239   8.860   8.284   2.955 -0.4575 -1.3117  1.6380
16505SOL    HW261240   8.803   8.158   2.893 -1.1139  0.4312 -1.5306
16506SOL     OW61241   6.366   9.150   6.183  0.1382  0.5487 -0.0036
16506SOL    HW161242   6.351   9.196   6.101  2.4146 -0.3748 -1.0121
16506SOL    HW261243   6.334   9.210   6.251  1.4238  2.8921 -1.3536
16507SOL     OW61244   7.794  10.708   9.752 -0.3497 -0.4915  0.1795
16507SOL    HW161245   7.773  10.786   9.804  3.3563 -0.0417  1.2839
16507SOL    HW261246   7.792  10.739   9.661  0.7850  0.9096  0.5794
16508SOL     OW61247   7.474   4.219   8.878 -0.1044 -0.5006 -0.6349
16508SOL    HW161248   7.522   4.144   8.842 -1.0604 -1.7688  0.6322
16508SOL    HW261249   7.410   4.241   8.810 -0.0706 -1.0692 -0.8591
16509SOL     OW61250  11.416   1.577   6.793  0.1861  0.0740  0.4454
16509SOL    HW161251  11.438   1.574   6.700 -1.5122  0.4175 -0.0014
16509SOL    HW261252  11.407   1.485   6.819  1.4161 -0.0492  0.4878
16510SOL     OW61253  10.396   0.721   3.869 -0.1929 -0.0695 -0.4762
16510SOL    HW161254  10.431   0.789   3.811  1.0801 -0.4974 -0.2391
16510SOL    HW261255  10.471   0.693   3.921 -1.1742 -0.1531  0.9334
16511SOL     OW61256   2.925   0.901   8.824 -0.3351 -0.1412 -0.0396
16511SOL    HW161257   2.963   0.813   8.820 -0.7313 -0.2936 -0.7795
16511SOL    HW261258   2.928   0.932   8.733  2.2291  1.6918  0.5609
16512SOL     OW61259  11.277   6.036   3.590  0.3167  0.5200 -0.1924
16512SOL    HW161260  11.271   6.047   3.685  0.4764 -1.0604  0.0371
16512SOL    HW261261  11.332   6.109   3.561  1.3792  0.2888  1.1112
16513SOL     OW61262   0.685   2.289  11.489  0.1377  0.8634 -0.0412
16513SOL    HW161263   0.718   2.200  11.498 -1.6937  0.1636  0.2420
16513SOL    HW261264   0.684   2.305  11.395 -1.2389 -0.1377 -0.2213
16514SOL     OW61265   5.242   2.853   4.204  0.5685 -0.4794  0.2620
16514SOL    HW161266   5.203   2.908   4.272 -3.4688 -2.6708 -0.0162
16514SOL    HW261267   5.255   2.768   4.245 -1.8535 -1.8270 -1.4705
16515SOL     OW61268   2.029   2.817   6.861  0.3373  0.1322 -0.1379
16515SOL    HW161269   2.094   2.857   6.803  0.3253 -1.4401 -1.3220
16515SOL    HW261270   2.012   2.731   6.821 -0.6264 -0.4877  1.5308
16516SOL     OW61271   6.012   6.098   5.126 -0.1215  0.0439  0.0909
16516SOL    HW161272   6.052   6.068   5.208 -0.8290  0.7147  0.7008
16516SOL    HW261273   5.943   6.034   5.109 -0.8420  0.6145  0.7500
16517SOL     OW61274   6.052   3.334  10.486  0.0910  0.7135  0.0681
16517SOL    HW161275   6.052   3.429  10.495  2.7063  0.9255 -1.2846
16517SOL    HW261276   6.143   3.309  10.500 -0.5589 -1.6310  0.4763
16518SOL     OW61277   6.694   4.443   7.477 -0.1534 -0.2388 -0.2000
16518SOL    HW161278   6.611   4.419   7.518 -0.4581 -1.4261 -1.4526
16518SOL    HW261279   6.669   4.495   7.400  0.0857 -2.2994 -1.7607
16519SOL     OW61280   9.400   1.179   8.177  0.0790  0.3467 -0.2700
16519SOL    HW161281   9.432   1.265   8.203  0.6881 -0.7566  3.0825
16519SOL    HW261282   9.309   1.194   8.150 -0.2941  1.9112  1.6132
16520SOL     OW61283   6.097   2.185  11.774  0.2996  0.3301  0.1260
16520SOL    HW161284   6.187   2.175  11.806  0.3565  1.7542  0.4597
16520SOL    HW261285   6.088   2.278  11.756 -0.8309  0.0651 -0.7960
16521SOL     OW61286  11.298  11.884   7.199 -0.3327 -0.1127  0.4003
16521SOL    HW161287  11.370  11.935   7.160 -0.6281  0.0890  0.1097
16521SOL    HW261288  11.249  11.948   7.251 -0.0389 -0.3478  0.9772
16522SOL     OW61289   5.474   5.163   7.098  0.1456 -0.5358  0.3621
16522SOL    HW161290   5.539   5.165   7.028  0.0890  3.9451  0.1179
16522SOL    HW261291   5.390   5.175   7.052 -0.6267 -3.2407  0.9009
16523SOL     OW61292   8.897   4.776   9.280  0.0476  0.0835  0.1451
16523SOL    HW161293   8.824   4.834   9.259 -2.9604 -2.4202  2.6233
16523SOL    HW261294   8.949   4.825   9.344 -0.0498  1.4816 -0.8060
16524SOL     OW61295   6.239   4.233   1.051 -0.1059 -0.9986 -0.1682
16524SOL    HW161296   6.157   4.189   1.076 -0.2168 -1.0894 -0.6767
16524SOL    HW261297   6.241   4.226   0.956 -0.1997  0.2331 -0.2720
16525SOL     OW61298   8.643   6.428   2.724 -0.5219  0.6562 -1.0449
16525SOL    HW161299   8.688   6.344   2.737  1.7868  2.0911  0.9635
16525SOL    HW261300   8.628   6.432   2.630 -0.8448 -2.0401 -1.2038
16526SOL     OW61301   1.368   5.715   1.821 -0.1262 -0.3387  0.1945
16526SOL    HW161302   1.435   5.647   1.820  0.1706 -0.0451 -0.6281
16526SOL    HW261303   1.411   5.792   1.785 -0.5210  0.2334  0.9227
16527SOL     OW61304  10.434   1.722   3.135  0.4657 -0.4655  0.0864
16527SOL    HW161305  10.455   1.801   3.086  0.2380 -1.0612 -1.0071
16527SOL    HW261306  10.513   1.701   3.184  1.1606 -0.5945 -1.0666
16528SOL     OW61307  10.645   8.169   8.216  0.2226 -0.2155 -0.5207
16528SOL    HW161308  10.596   8.171   8.133  2.3601 -0.8940 -1.8751
16528SOL    HW261309  10.672   8.260   8.230  0.0467 -0.1382 -0.6801
16529SOL     OW61310   4.546   5.253   4.172 -0.0909  0.2566  0.0608
16529SOL    HW161311   4.639   5.272   4.179 -0.3194  1.9484 -0.8552
16529SOL    HW261312   4.542   5.161   4.145  1.3063  0.2443 -0.1862
16530SOL     OW61313   8.848   2.324   8.594  0.5054  0.6858  0.2462
16530SOL    HW161314   8.878   2.410   8.566  1.7336  1.5700  3.6732
16530SOL    HW261315   8.753   2.332   8.600  0.5029  1.3920 -0.6340
16531SOL     OW61316   7.436   3.908   1.561 -0.4816 -0.1648 -0.7589
16531SOL    HW161317   7.462   3.885   1.650  0.7903  0.1588 -1.0196
16531SOL    HW261318   7.407   3.825   1.523  1.0044 -0.7628 -0.6884
16532SOL     OW61319   3.124   6.124   3.194  0.3656  0.0723 -0.0596
16532SOL    HW161320   3.124   6.207   3.148  1.5306  0.2850  0.2786
16532SOL    HW261321   3.187   6.070   3.147  0.6299 -0.1390  0.5244
16533SOL     OW61322   4.335   2.937   9.375 -0.4841  0.0612 -0.5176
16533SOL    HW161323   4.250   2.948   9.331 -1.3486 -0.4891  0.9452
16533SOL    HW261324   4.323   2.977   9.461  0.3473 -1.0620  0.1552
16534SOL     OW61325   6.186  11.007   1.685  0.5514 -0.1190 -0.3471
16534SOL    HW161326   6.234  11.090   1.676 -0.8647  0.7254 -0.3329
16534SOL    HW261327   6.096  11.028   1.660 -0.5931 -0.8611  2.7610
16535SOL     OW61328   1.898   1.093   8.923  0.0336 -0.5668  0.0588
16535SOL    HW161329   1.950   1.162   8.964  0.6825 -0.2965 -1.1634
16535SOL    HW261330   1.827   1.138   8.879  0.6510 -0.6159 -1.0294
16536SOL     OW61331   1.989   1.391   8.068 -0.0981  0.8017 -0.3769
16536SOL    HW161332   1.952   1.393   8.157 -1.5842 -1.8321 -0.8141
16536SOL    HW261333   1.913   1.386   8.011  0.8561 -0.6083 -1.5998
16537SOL     OW61334  10.085   8.765   8.801  0.2627 -0.7078  0.3879
16537SOL    HW161335  10.127   8.847   8.775  0.6112 -0.5409  1.4331
16537SOL    HW261336  10.087   8.711   8.722  1.0520 -0.1333 -0.0014
16538SOL     OW61337   9.649   1.909   1.190 -0.0535  0.1140 -0.1408
16538SOL    HW161338   9.578   1.858   1.150  0.3118 -0.2244 -0.3619
16538SOL    HW261339   9.697   1.946   1.117  1.1950 -1.2911 -0.0880
16539SOL     OW61340   4.163  10.374   6.453  0.2899  0.5507 -0.2113
16539SOL    HW161341   4.205  10.459   6.439  1.1710 -0.3120 -3.5429
16539SOL    HW261342   4.233  10.319   6.489  0.4171  0.5998 -0.3814
16540SOL     OW61343   1.967  11.115  11.941 -0.5548 -0.6823 -0.1006
16540SOL    HW161344   1.985  11.189  11.884  3.5669 -1.8771 -0.6697
16540SOL    HW261345   1.938  11.155  12.023 -0.0499  1.4731 -0.8988
16541SOL     OW61346  11.453   0.117   7.062  1.0272 -0.2706 -0.4972
16541SOL    HW161347  11.545   0.112   7.088  1.0192  2.2678  0.2919
16541SOL    HW261348  11.454   0.165   6.979  0.3610  0.8024  0.1008
16542SOL     OW61349   0.315  10.840  10.050 -0.4354  0.1126 -0.3465
16542SOL    HW161350   0.290  10.930  10.071  0.5567  0.2552  0.2503
16542SOL    HW261351   0.258  10.817   9.976  0.9596  2.0859 -2.1686
16543SOL     OW61352   3.229   1.254   6.574  0.4997  0.4148 -0.4403
16543SOL    HW161353   3.183   1.183   6.619  0.9801  0.2635 -0.1834
16543SOL    HW261354   3.165   1.325   6.569 -0.6757 -0.6759 -2.4435
16544SOL     OW61355   6.789   4.365   3.008 -0.1527  0.5276 -0.0854
16544SOL    HW161356   6.744   4.448   2.998  1.3912  1.4224  0.0762
16544SOL    HW261357   6.855   4.364   2.938  0.0888 -0.3873  0.1312
16545SOL     OW61358  11.034   7.272   8.252  0.3004 -0.1139 -0.0856
16545SOL    HW161359  11.103   7.338   8.245  0.0315  0.0357 -1.6741
16545SOL    HW261360  10.956   7.314   8.217  0.0915 -1.1901 -0.9939
16546SOL     OW61361   7.258   1.365   4.899 -0.2475  0.1338  0.1649
16546SOL    HW161362   7.293   1.454   4.903  0.1907  0.0541 -1.5377
16546SOL    HW261363   7.169   1.374   4.933 -0.4605  1.3658 -0.6419
16547SOL     OW61364   0.701   4.459  11.572  0.4296 -0.4345  0.3617
16547SOL    HW161365   0.659   4.393  11.628 -1.2858  0.3184  0.0202
16547SOL    HW261366   0.665   4.543  11.603  0.2593  0.0838 -1.1594
16548SOL     OW61367  11.283   1.842   9.247  0.1438  0.0242 -0.1222
16548SOL    HW161368  11.261   1.914   9.306 -0.3871 -1.2747  1.3424
16548SOL    HW261369  11.360   1.801   9.286  0.5581 -0.1090 -1.0453
16549SOL     OW61370   6.069   9.401  10.043  0.4723 -0.4249  0.3623
16549SOL    HW161371   6.140   9.453  10.005 -1.6799 -0.3642 -4.2905
16549SOL    HW261372   6.006   9.465  10.076  0.5243 -0.3053  0.2259
16550SOL     OW61373   8.362   1.956   6.302 -0.0128  0.2154  0.2023
16550SOL    HW161374   8.367   1.938   6.208 -0.2746  0.4647  0.1399
16550SOL    HW261375   8.270   1.945   6.324  0.0477  0.1648  0.4303
16551SOL     OW61376  11.955   2.939   2.866  0.0041 -0.5859 -0.1882
16551SOL    HW161377  12.028   2.878   2.874  1.0158  0.6917  0.8352
16551SOL    HW261378  11.949   2.980   2.953 -1.0709  0.2919 -0.6517
16552SOL     OW61379   9.643   3.323   5.146  0.1985 -0.2951 -0.1370
16552SOL    HW161380   9.588   3.259   5.192 -2.1253  0.3328 -1.8258
16552SOL    HW261381   9.644   3.400   5.203 -2.4672  0.4064 -0.8776
16553SOL     OW61382  10.029   1.821   3.014  0.2788 -0.2103  0.1610
16553SOL    HW161383   9.969   1.752   3.044  0.0456 -0.4652 -0.8631
16553SOL    HW261384  10.111   1.775   2.998 -0.2130 -0.5020 -1.6907
16554SOL     OW61385   1.326  11.431   3.859 -0.0076  0.0425 -0.3468
16554SOL    HW161386   1.348  11.492   3.930  0.2151 -0.2902 -0.1260
16554SOL    HW261387   1.371  11.350   3.883  0.0895 -0.0627 -0.8874
16555SOL     OW61388   1.258   5.421   9.218  0.0287  0.2094 -1.1012
16555SOL    HW161389   1.352   5.436   9.205  0.2701 -2.0950 -2.6480
16555SOL    HW261390   1.254   5.363   9.294 -0.3311  1.7331  0.0943
16556SOL     OW61391  11.234  11.060   7.874 -0.2794 -0.1214 -0.0005
16556SOL    HW161392  11.226  11.144   7.829 -1.8053  0.7528  1.7759
16556SOL    HW261393  11.189  10.998   7.816 -0.0724  0.4809 -0.8206
16557SOL     OW61394   4.829   1.747   3.796 -0.6289  0.2895  0.0936
16557SOL    HW161395   4.777   1.729   3.875 -0.0318  1.4064  0.7681
16557SOL    HW261396   4.770   1.797   3.740 -0.6007  0.7159  0.4398
16558SOL     OW61397   3.614   7.829   2.754 -0.4332  0.5962  0.0698
16558SOL    HW161398   3.627   7.920   2.728 -0.0442  0.6058  0.2997
16558SOL    HW261399   3.701   7.796   2.773 -0.6986  0.5941  1.3758
16559SOL     OW61400   8.790   1.556   5.551  0.0224  0.3041  0.0629
16559SOL    HW161401   8.867   1.508   5.584 -0.6924 -0.8603  0.0860
16559SOL    HW261402   8.783   1.632   5.609  0.3967 -0.2680  0.8806
16560SOL     OW61403   4.209   0.651  10.321  0.1651  0.1068  0.2254
16560SOL    HW161404   4.155   0.619  10.393  0.7155  0.1678  0.6760
16560SOL    HW261405   4.255   0.574  10.289 -0.6340 -0.0606 -0.5643
16561SOL     OW61406   1.467   6.729   2.496 -0.1460  0.0562 -0.2628
16561SOL    HW161407   1.487   6.763   2.583  0.8615 -1.9811  0.3475
16561SOL    HW261408   1.524   6.779   2.437 -1.6159  2.2204  0.0324
16562SOL     OW61409   9.216   0.112   1.974  0.2614  0.1828  0.3224
16562SOL    HW161410   9.302   0.104   2.013 -0.4273 -0.3421  1.8163
16562SOL    HW261411   9.196   0.024   1.942  0.7860  0.5904 -1.1845
16563SOL     OW61412   1.698   5.850   1.952  0.1588  0.0680  0.0746
16563SOL    HW161413   1.664   5.849   1.862 -0.0747  2.0405  0.0936
16563SOL    HW261414   1.794   5.846   1.941  0.1283  0.1868 -0.2572
16564SOL     OW61415  11.808   6.500   9.601  0.0351 -0.0778  0.0032
16564SOL    HW161416  11.808   6.581   9.550 -0.5756  0.7249  1.2133
16564SOL    HW261417  11.847   6.435   9.543 -3.9364 -0.1677 -2.9861
16565SOL     OW61418   7.895   2.740   9.750 -0.0416 -0.2083  0.4532
16565SOL    HW161419   7.836   2.815   9.739  1.4356  0.7638 -1.6534
16565SOL    HW261420   7.975   2.778   9.785 -0.0278 -1.2366  1.6165
16566SOL     OW61421   8.267   5.148   9.343  0.1256  0.3415  0.4414
16566SOL    HW161422   8.237   5.212   9.408 -0.5341 -0.6600  1.1540
16566SOL    HW261423   8.360   5.166   9.332  0.1696  0.7423  1.4081
16567SOL     OW61424   1.902   5.097  10.347  0.1400 -0.1384  0.7433
16567SOL    HW161425   1.815   5.133  10.359  0.4778  0.8511  0.2815
16567SOL    HW261426   1.898   5.051  10.263 -0.0837 -0.5750  0.9880
16568SOL     OW61427   4.237   7.915   6.893 -0.3496  0.2990 -0.5197
16568SOL    HW161428   4.223   7.837   6.839  0.0437 -1.2498  1.4802
16568SOL    HW261429   4.159   7.968   6.879 -1.9874 -1.7875  0.1493
16569SOL     OW61430   5.359   5.142   5.307  0.8255  0.3359  0.0376
16569SOL    HW161431   5.436   5.199   5.313  1.1370 -0.0335 -0.3497
16569SOL    HW261432   5.373   5.076   5.375  0.9620  0.1387 -0.1818
16570SOL     OW61433   7.470   6.920   3.274  0.1332  0.7704  0.4283
16570SOL    HW161434   7.520   6.842   3.252  2.1092  2.0270  0.1981
16570SOL    HW261435   7.484   6.933   3.367 -1.0892  0.2765  0.6981
16571SOL     OW61436   4.381   1.721  11.151  0.6410  0.0295 -0.4866
16571SOL    HW161437   4.290   1.732  11.179  0.3755 -0.3933 -1.1861
16571SOL    HW261438   4.424   1.802  11.180 -0.0937  0.5117 -0.7032
16572SOL     OW61439   6.537   4.292   0.521 -0.1684  0.4728 -0.0858
16572SOL    HW161440   6.525   4.275   0.427  1.0164  0.3986 -0.2473
16572SOL    HW261441   6.525   4.386   0.529 -2.3707  0.2286  0.0684
16573SOL     OW61442  11.011   8.175   9.033 -0.0041 -0.0734  0.0285
16573SOL    HW161443  10.992   8.147   9.123  0.9268  0.1914  0.3177
16573SOL    HW261444  11.082   8.239   9.042  1.8576 -1.8536 -1.0719
16574SOL     OW61445  10.411   9.739  11.211 -0.3493  0.3590 -0.1474
16574SOL    HW161446  10.443   9.829  11.198 -1.0189  0.2520 -3.2074
16574SOL    HW261447  10.460   9.708  11.287  1.9756  2.4091 -0.6523
16575SOL     OW61448   8.437   1.525   0.737 -0.5174 -0.0269 -0.5306
16575SOL    HW161449   8.389   1.521   0.820 -1.5046  3.0346 -0.8131
16575SOL    HW261450   8.370   1.517   0.670 -0.0215 -0.2441 -1.0095
16576SOL     OW61451   8.342   4.643   2.589 -0.2805 -0.4741  0.2799
16576SOL    HW161452   8.277   4.575   2.610  0.9707 -1.0943  2.4428
16576SOL    HW261453   8.346   4.698   2.667  0.6698  0.4883 -0.4174
16577SOL     OW61454  10.286   7.054   1.384 -0.0108  0.0326 -0.5441
16577SOL    HW161455  10.342   7.107   1.327 -0.7053  4.8747  2.7112
16577SOL    HW261456  10.345   7.021   1.452 -0.3756  1.7679  0.6733
16578SOL     OW61457   2.901   0.491   2.953 -0.6779  0.0526 -0.0753
16578SOL    HW161458   2.939   0.404   2.935 -1.1512 -0.1261 -0.2207
16578SOL    HW261459   2.870   0.521   2.867  1.5072  1.3566 -0.4717
16579SOL     OW61460  10.192   1.932   4.267  0.2197 -0.4767 -0.3352
16579SOL    HW161461  10.245   1.855   4.248 -0.4098 -1.4091  1.4592
16579SOL    HW261462  10.172   1.969   4.182  2.9828 -0.5726 -1.1341
16580SOL     OW61463   2.274   5.655   9.421  0.4550  0.3305 -0.1248
16580SOL    HW161464   2.350   5.640   9.477  1.9472  0.3867 -2.0429
16580SOL    HW261465   2.238   5.738   9.452 -0.0635 -0.6370  2.0736
16581SOL     OW61466   5.837   2.259   6.877 -0.4353  0.0558 -0.6606
16581SOL    HW161467   5.762   2.308   6.843  1.0495  1.3754 -2.2204
16581SOL    HW261468   5.848   2.290   6.966 -1.1481  0.5775 -0.7475
16582SOL     OW61469   3.552   5.304  10.608 -0.3159  0.2077 -0.2608
16582SOL    HW161470   3.639   5.311  10.568  0.8448  2.7839  2.3978
16582SOL    HW261471   3.547   5.213  10.638  1.3077 -0.0868 -0.7749
16583SOL     OW61472   4.895   6.684   5.047  0.5980  0.5256  0.5162
16583SOL    HW161473   4.923   6.593   5.033  0.3118  0.2268  1.7672
16583SOL    HW261474   4.815   6.692   4.997  0.8501  0.2148  0.0550
16584SOL     OW61475   6.650   8.744   2.248  0.4310 -0.3051 -0.2329
16584SOL    HW161476   6.719   8.695   2.294  1.2814  0.9705 -0.0956
16584SOL    HW261477   6.592   8.773   2.318 -1.2823 -2.8081 -0.4810
16585SOL     OW61478   5.897   8.246   4.656  0.5523  0.3585 -0.6278
16585SOL    HW161479   5.931   8.171   4.608  1.1947  0.9961 -1.1906
16585SOL    HW261480   5.939   8.322   4.616  0.4174  0.9786  0.3612
16586SOL     OW61481  11.664  11.179   8.172 -0.2430  0.3983  1.0491
16586SOL    HW161482  11.634  11.091   8.194 -0.9773 -0.1201 -1.6746
16586SOL    HW261483  11.615  11.237   8.232 -0.8612 -0.9292  1.8690
16587SOL     OW61484  10.286  10.364   9.400  0.4116 -0.1605 -0.3979
16587SOL    HW161485  10.227  10.315   9.344 -1.2092 -0.6441  1.6040
16587SOL    HW261486  10.290  10.314   9.481  2.0939  0.8668  0.2212
16588SOL     OW61487   9.367   5.148   9.939  0.4994 -0.0642  0.7906
16588SOL    HW161488   9.389   5.119  10.027  0.1956  0.6962  1.1248
16588SOL    HW261489   9.292   5.207   9.950  2.8925  3.3713  0.5907
16589SOL     OW61490   2.313   7.848   3.570 -0.2468  0.1041  0.7846
16589SOL    HW161491   2.382   7.842   3.503 -0.1900 -0.5909  0.8911
16589SOL    HW261492   2.241   7.894   3.527  0.0229  0.2043  0.4407
16590SOL     OW61493  10.079  11.253   9.955 -0.2793 -0.1987  0.0752
16590SOL    HW161494  10.017  11.311   9.911  0.9893  0.6764 -0.6149
16590SOL    HW261495  10.117  11.201   9.885 -1.1353 -1.6594  0.6452
16591SOL     OW61496   4.260   2.994   1.826 -0.3139  0.2076 -0.1190
16591SOL    HW161497   4.207   2.924   1.788  2.0461 -1.3080 -0.8481
16591SOL    HW261498   4.349   2.959   1.826  1.0649  3.3779 -0.9045
16592SOL     OW61499   5.030   0.802   7.064 -0.5898 -0.1398 -0.3592
16592SOL    HW161500   4.968   0.874   7.058 -0.2753  0.0970 -0.8505
16592SOL    HW261501   4.994   0.734   7.007 -2.2350 -1.4277  2.0404
16593SOL     OW61502   2.852   0.852   2.375 -0.0555 -0.1992  0.0975
16593SOL    HW161503   2.900   0.783   2.421  1.6871 -0.2356 -1.6450
16593SOL    HW261504   2.838   0.817   2.287 -1.5921  0.6198 -0.0251
16594SOL     OW61505   5.287   3.122   0.584  0.5762  0.5685  0.0054
16594SOL    HW161506   5.215   3.185   0.579 -0.8522 -1.0325 -1.3072
16594SOL    HW261507   5.358   3.163   0.534 -0.7095  0.7190 -1.8105
16595SOL     OW61508   2.487  11.446   8.071  0.0410  0.1829 -0.0830
16595SOL    HW161509   2.451  11.509   8.132 -0.4057  0.3131 -0.4760
16595SOL    HW261510   2.413  11.390   8.047  0.6978 -1.3471  1.2841
16596SOL     OW61511   8.916   3.219   3.679 -1.2399  0.4043  0.0579
16596SOL    HW161512   8.948   3.303   3.713 -0.6627  0.4135 -0.4856
16596SOL    HW261513   8.857   3.243   3.607 -0.6601  0.3335 -0.4436
16597SOL     OW61514   2.763  10.317   0.144  0.1738 -0.1338 -0.0948
16597SOL    HW161515   2.687  10.260   0.151 -0.0520 -0.1846 -2.2716
16597SOL    HW261516   2.727  10.406   0.140  0.4216  0.0678  1.4875
16598SOL     OW61517   8.638   3.419   1.533 -0.0583  0.2856 -0.0471
16598SOL    HW161518   8.691   3.344   1.507  0.2826 -0.2470  1.9840
16598SOL    HW261519   8.701   3.491   1.541 -0.4230  0.9311 -2.2533
16599SOL     OW61520   4.842   9.455  10.745  0.0221 -0.2517  0.5175
16599SOL    HW161521   4.899   9.513  10.795 -0.9141  0.4209  0.8280
16599SOL    HW261522   4.818   9.505  10.667 -1.3042  0.0786  1.0941
16600SOL     OW61523   9.351   3.466   7.156  0.5046 -0.1016  0.2539
16600SOL    HW161524   9.429   3.416   7.131  0.9805  1.4518 -1.6500
16600SOL    HW261525   9.291   3.453   7.083 -0.9542 -1.0122  1.5506
16601SOL     OW61526   0.017  11.327   4.915  0.3357 -0.5718  0.2846
16601SOL    HW161527   0.095  11.318   4.860  0.7179  0.3882  0.6462
16601SOL    HW261528   0.032  11.407   4.965 -1.7631  0.7409 -1.0570
16602SOL     OW61529  10.062   3.392   3.552  0.1594  0.1883 -0.1138
16602SOL    HW161530  10.117   3.459   3.594 -0.3898  0.0582  0.8197
16602SOL    HW261531  10.125   3.338   3.503  0.9006 -0.0346  1.0368
16603SOL     OW61532   0.412   7.049   4.660 -0.1200  0.2314 -0.2245
16603SOL    HW161533   0.471   7.047   4.736  0.7717  0.4663 -0.8983
16603SOL    HW261534   0.342   6.988   4.683  0.8699 -0.7865  0.2015
16604SOL     OW61535   2.740   4.704   5.602 -0.1337  0.9510  0.6417
16604SOL    HW161536   2.806   4.672   5.541 -1.0244 -0.2636  0.2706
16604SOL    HW261537   2.753   4.799   5.604  1.5792  0.7424  0.5678
16605SOL     OW61538   4.957   3.802   9.571  0.2568 -0.0126 -0.0201
16605SOL    HW161539   5.039   3.821   9.526  0.2893  0.5571  0.2739
16605SOL    HW261540   4.977   3.727   9.627  0.2301 -0.6907 -0.8993
16606SOL     OW61541   9.676   6.576   8.657 -0.3490  0.1188 -0.2636
16606SOL    HW161542   9.749   6.526   8.695  0.2208  1.2386  0.1529
16606SOL    HW261543   9.620   6.509   8.617  2.0396 -0.6138 -2.6527
16607SOL     OW61544   0.723   5.106   6.312  0.7721 -0.1468 -0.4789
16607SOL    HW161545   0.676   5.141   6.388  1.2366 -0.4193 -0.0540
16607SOL    HW261546   0.655   5.090   6.247  0.5203  1.2337 -0.5665
16608SOL     OW61547   4.292   5.273   0.674 -0.7070  0.0156 -0.5855
16608SOL    HW161548   4.230   5.345   0.686  0.1509  0.9755 -1.6468
16608SOL    HW261549   4.378   5.313   0.688 -0.0300 -0.1550 -3.5628
16609SOL     OW61550   1.823   7.575   8.931 -0.0465 -0.1599  0.3249
16609SOL    HW161551   1.762   7.620   8.990 -0.6421 -2.6558  1.7763
16609SOL    HW261552   1.808   7.615   8.846 -1.6934  1.2152  1.1959
16610SOL     OW61553   6.508   6.452   8.759  0.4482  0.1200 -0.0138
16610SOL    HW161554   6.544   6.415   8.679 -0.2452 -0.3680 -0.1140
16610SOL    HW261555   6.536   6.391   8.828  0.2738  0.0353 -0.0166
16611SOL     OW61556   8.252  10.910   6.470  0.2016  0.0391  0.1763
16611SOL    HW161557   8.269  10.976   6.537  0.0980  0.5026 -0.2443
16611SOL    HW261558   8.297  10.832   6.500  0.1963  0.2592  0.7604
16612SOL     OW61559   4.410   5.578  10.223  1.0311  0.0691  0.0719
16612SOL    HW161560   4.322   5.599  10.255  0.6358 -1.7521  0.2978
16612SOL    HW261561   4.439   5.658  10.178 -0.4919  0.9007  0.4928
16613SOL     OW61562   9.384   5.086   6.687 -0.3158 -0.4253  0.5251
16613SOL    HW161563   9.323   5.013   6.675 -1.5733  0.4003  1.5821
16613SOL    HW261564   9.345   5.139   6.757 -0.3631  2.1800 -1.2947
16614SOL     OW61565   2.952   9.782   1.844  0.2223 -0.0790  0.5679
16614SOL    HW161566   2.984   9.694   1.862 -0.5673 -0.4569  0.1477
16614SOL    HW261567   3.031   9.831   1.819  0.3125 -1.4359 -2.2502
16615SOL     OW61568   2.258   4.012   5.230  0.3256  0.0179 -0.3414
16615SOL    HW161569   2.228   4.094   5.270 -1.4956  0.3224 -2.1854
16615SOL    HW261570   2.236   3.945   5.295  1.6295  0.8853  1.0917
16616SOL     OW61571   4.828   5.296   4.115 -0.3263 -0.3380 -0.4129
16616SOL    HW161572   4.829   5.350   4.036  3.3198  0.4250 -0.0355
16616SOL    HW261573   4.822   5.206   4.083 -1.4350  0.0461 -1.3535
16617SOL     OW61574   8.122   0.781   9.845  0.4823 -0.0566  0.5474
16617SOL    HW161575   8.131   0.744   9.757 -1.6684 -2.7680  1.3443
16617SOL    HW261576   8.059   0.852   9.834 -0.0599 -0.6173 -0.0536
16618SOL     OW61577   6.274  10.330  11.421 -0.0050 -0.0762 -0.2783
16618SOL    HW161578   6.323  10.368  11.348  1.1180 -2.1615 -0.6795
16618SOL    HW261579   6.338  10.276  11.467 -1.3732 -0.9913  0.6107
16619SOL     OW61580   5.899   5.598   4.206 -0.1143  0.0105  0.3796
16619SOL    HW161581   5.820   5.648   4.186  1.3758  1.5337 -2.1840
16619SOL    HW261582   5.961   5.663   4.241  0.7677 -0.7011  0.1827
16620SOL     OW61583   5.482   5.325   6.615  0.4688 -0.1585 -0.1472
16620SOL    HW161584   5.450   5.408   6.650 -1.4950 -1.2966  0.9000
16620SOL    HW261585   5.438   5.316   6.530  0.9352  0.0136 -0.4094
16621SOL     OW61586   3.534   0.962   1.422 -0.3609  0.1480  0.5880
16621SOL    HW161587   3.569   0.882   1.383 -2.1141 -0.1718 -0.4509
16621SOL    HW261588   3.547   1.029   1.355 -2.0312 -0.0745 -0.0117
16622SOL     OW61589   2.195   7.834   4.076  0.1234  0.1250 -0.2883
16622SOL    HW161590   2.226   7.819   3.987 -0.3711 -0.8686 -0.3064
16622SOL    HW261591   2.151   7.752   4.100 -1.4778  1.0792  0.1524
16623SOL     OW61592   1.638   1.647   7.760 -0.6723 -0.0711  0.2559
16623SOL    HW161593   1.672   1.637   7.849 -1.5272 -1.0478  0.4783
16623SOL    HW261594   1.546   1.623   7.766 -1.0570  1.0797 -0.6493
16624SOL     OW61595   0.442   0.354   0.259 -0.5175 -0.2538  0.2824
16624SOL    HW161596   0.441   0.397   0.174  0.0489 -0.9950 -0.1069
16624SOL    HW261597   0.487   0.416   0.316 -0.6555  0.1265 -0.0156
16625SOL     OW61598  10.478   1.047   8.385 -0.2641 -0.1508  0.1847
16625SOL    HW161599  10.465   0.997   8.304  1.1617 -0.4621  0.1349
16625SOL    HW261600  10.560   1.015   8.421 -0.1384  1.0250  0.9987
16626SOL     OW61601   7.535   0.614  11.196  0.0058 -0.2581  0.4886
16626SOL    HW161602   7.548   0.709  11.196 -2.2797  0.1719  2.6321
16626SOL    HW261603   7.610   0.579  11.149  0.8920  2.6029 -0.4263
16627SOL     OW61604   4.322   7.978   2.885  0.3990  0.2627  0.0035
16627SOL    HW161605   4.344   7.905   2.943  0.8597  1.0860  0.8972
16627SOL    HW261606   4.404   8.025   2.874  0.4012 -0.0694 -1.6341
16628SOL     OW61607   1.490  10.252   9.428 -0.6244 -0.2496 -0.2726
16628SOL    HW161608   1.538  10.227   9.507  0.5735  1.4776 -0.4035
16628SOL    HW261609   1.400  10.267   9.459 -0.6080 -1.3774  0.3921
16629SOL     OW61610   4.830   7.975   9.761  0.9852 -0.0153 -0.3405
16629SOL    HW161611   4.896   7.946   9.699  2.4535 -0.4234  1.3220
16629SOL    HW261612   4.824   7.904   9.825 -1.2157 -0.0550 -0.5034
16630SOL     OW61613   2.709   2.964   1.331  0.2722 -0.1494  0.5715
16630SOL    HW161614   2.722   2.869   1.329  0.1993 -0.1539 -0.0832
16630SOL    HW261615   2.652   2.979   1.406  1.8153 -0.4212  1.8520
16631SOL     OW61616   4.451   2.254   4.134 -0.5881 -0.1580 -0.1994
16631SOL    HW161617   4.375   2.304   4.105 -1.0031 -0.6365  0.0194
16631SOL    HW261618   4.526   2.310   4.116 -1.0746  0.7822  0.5593
16632SOL     OW61619  11.310   8.578   4.176  0.6469  0.0756 -0.3422
16632SOL    HW161620  11.359   8.659   4.158  0.6386  0.1684  0.0455
16632SOL    HW261621  11.266   8.558   4.093 -1.6169  2.0187  0.2542
16633SOL     OW61622   2.411   2.665   3.552 -0.8470  0.4770  0.4864
16633SOL    HW161623   2.443   2.666   3.461 -0.0600  0.9047  0.7574
16633SOL    HW261624   2.467   2.601   3.596 -2.3821 -1.0863  0.2973
16634SOL     OW61625   7.966   2.151   0.471  0.1812 -0.2199 -0.3692
16634SOL    HW161626   7.974   2.243   0.447  2.0525 -0.2099  0.1725
16634SOL    HW261627   7.874   2.140   0.493  0.0499  1.6659  0.1693
16635SOL     OW61628   1.308  11.831   6.431  0.2842  0.5328  0.0190
16635SOL    HW161629   1.236  11.792   6.481  0.1984  2.0952  1.1602
16635SOL    HW261630   1.333  11.763   6.368 -1.0350 -0.6749  0.7585
16636SOL     OW61631   6.987   3.903   6.708 -0.3499 -0.2389  0.3225
16636SOL    HW161632   7.022   3.828   6.660 -1.0011  0.1428 -0.8053
16636SOL    HW261633   7.060   3.934   6.761 -0.5410 -2.7485  2.2635
16637SOL     OW61634   1.703   1.455  11.906  0.3461 -0.2865 -0.2155
16637SOL    HW161635   1.722   1.535  11.955  2.3956 -0.3394 -0.8324
16637SOL    HW261636   1.655   1.486  11.829  0.3722  0.2482 -0.0252
16638SOL     OW61637   7.725   1.063  11.523 -0.6806  0.3899 -0.5626
16638SOL    HW161638   7.766   1.122  11.460 -1.1699 -0.3898 -1.6481
16638SOL    HW261639   7.799   1.015  11.561 -0.4243  0.4110 -1.0242
16639SOL     OW61640   7.981   5.598   9.903 -0.0088  0.2978 -0.2816
16639SOL    HW161641   7.994   5.666   9.837  2.6232 -1.0336 -1.2855
16639SOL    HW261642   7.903   5.551   9.874 -2.2020  3.0605  0.7202
16640SOL     OW61643  11.888   5.429   0.086 -0.4500  0.6656  0.5414
16640SOL    HW161644  11.890   5.524   0.069 -0.3970  0.4688 -0.6609
16640SOL    HW261645  11.952   5.416   0.156  0.5376  1.3643 -0.1939
16641SOL     OW61646   6.126   8.557   0.507 -0.3681 -0.0868 -0.3572
16641SOL    HW161647   6.163   8.508   0.581 -0.7004  1.8595  1.1699
16641SOL    HW261648   6.187   8.629   0.492 -1.0665  0.3941 -1.0055
16642SOL     OW61649   7.630  10.685   3.020 -0.2771  0.2938 -0.5786
16642SOL    HW161650   7.688  10.755   2.989 -1.3386  1.8303  0.7221
16642SOL    HW261651   7.688  10.624   3.066  0.3706  1.7480  0.6233
16643SOL     OW61652  10.534   1.501   1.017 -0.3703  0.1984  0.4061
16643SOL    HW161653  10.582   1.505   0.934 -3.1225  2.0040 -1.2579
16643SOL    HW261654  10.471   1.430   1.005  0.0910 -0.4172  1.5131
16644SOL     OW61655   6.279   5.908   0.180  0.7238  0.0693 -0.5576
16644SOL    HW161656   6.333   5.848   0.130  1.5072  0.7025 -0.4905
16644SOL    HW261657   6.323   5.916   0.264  0.9138  1.1233 -0.7434
16645SOL     OW61658   3.023  10.806   3.403  0.2184 -0.3538 -0.1632
16645SOL    HW161659   3.020  10.776   3.312  1.1540  2.2463 -1.1462
16645SOL    HW261660   3.106  10.853   3.410  0.6315 -1.3068  2.3634
16646SOL     OW61661   9.876   9.060   5.705 -0.0043  0.4709 -0.4020
16646SOL    HW161662   9.856   9.116   5.629 -1.1078  1.3124  0.4690
16646SOL    HW261663   9.933   8.992   5.670 -1.3647  0.1934 -2.2495
16647SOL     OW61664   0.038  10.948   5.366 -1.0667 -0.1092 -0.3534
16647SOL    HW161665   0.083  11.029   5.390  0.9262 -0.7932 -1.5751
16647SOL    HW261666  -0.053  10.975   5.353 -0.7509  1.6383  0.6573
16648SOL     OW61667   6.174   2.016   6.867  0.0096  0.6580  0.2945
16648SOL    HW161668   6.148   2.106   6.847 -0.7658  0.4178  0.1973
16648SOL    HW261669   6.133   1.997   6.951 -2.3071 -0.5787 -1.0257
16649SOL     OW61670   5.542   9.422   4.160 -0.4640 -0.5068  0.0149
16649SOL    HW161671   5.504   9.407   4.073 -0.0581 -0.0042 -0.2558
16649SOL    HW261672   5.536   9.517   4.173 -0.3740 -0.5613  0.4662
16650SOL     OW61673   8.412   2.226   2.188  0.3926 -0.2644 -0.5709
16650SOL    HW161674   8.423   2.294   2.122  0.7332  0.9299  0.6713
16650SOL    HW261675   8.367   2.270   2.260  1.8325 -0.9710  0.8271
16651SOL     OW61676   2.343   7.718   9.021 -0.3064  0.2505 -0.0912
16651SOL    HW161677   2.378   7.802   9.049  0.2643  0.1088 -0.3631
16651SOL    HW261678   2.316   7.731   8.931 -2.1467  0.7067  0.4887
16652SOL     OW61679   7.769  11.704   0.125  0.1773 -0.3553 -0.6030
16652SOL    HW161680   7.801  11.692   0.214  0.0723 -1.0819 -0.6603
16652SOL    HW261681   7.673  11.710   0.134 -0.0488 -2.7701 -0.8792
16653SOL     OW61682   5.746   8.672  10.522 -0.1643 -0.1808  0.1584
16653SOL    HW161683   5.761   8.683  10.428  0.5255  1.1273  0.3996
16653SOL    HW261684   5.766   8.580  10.540  0.2400 -0.2984 -0.8685
16654SOL     OW61685   8.949   1.238  10.547  0.4046 -0.0373  0.1660
16654SOL    HW161686   8.865   1.282  10.562  1.3153  1.9459 -0.2385
16654SOL    HW261687   8.928   1.168  10.485 -0.7450  1.3726 -1.1315
16655SOL     OW61688   3.092   5.750  10.871  0.5692  0.0162 -0.4742
16655SOL    HW161689   3.040   5.785  10.798  0.2469  0.0184 -0.2470
16655SOL    HW261690   3.145   5.680  10.832 -0.2494 -0.5790 -0.5387
16656SOL     OW61691   3.972   9.610   7.343 -0.6673  0.1984 -0.6252
16656SOL    HW161692   4.046   9.553   7.362  0.1041  1.3907  0.0659
16656SOL    HW261693   3.896   9.563   7.378 -0.0771 -0.4500 -0.1847
16657SOL     OW61694   6.354   8.773   3.302 -0.1679 -0.2014  0.1396
16657SOL    HW161695   6.297   8.710   3.258 -0.0215  0.4769 -1.0634
16657SOL    HW261696   6.415   8.801   3.233  0.9645 -0.1581  1.1375
16658SOL     OW61697   2.567   7.465   7.282 -0.2300 -0.1257 -0.1460
16658SOL    HW161698   2.499   7.434   7.222  0.7490 -1.4832 -0.6054
16658SOL    HW261699   2.529   7.454   7.369 -1.4507  1.3270 -0.4562
16659SOL     OW61700   8.976   4.581   5.789 -0.3005 -0.3246 -0.2143
16659SOL    HW161701   8.949   4.490   5.806  0.5346 -0.5929 -0.2748
16659SOL    HW261702   9.072   4.578   5.791 -0.1716  0.0878 -2.5812
16660SOL     OW61703   0.199   0.116   3.335 -0.0928 -0.3454  0.1574
16660SOL    HW161704   0.221   0.103   3.243  1.6575 -0.1587  0.5165
16660SOL    HW261705   0.243   0.045   3.381 -0.9565 -0.4414  0.8625
16661SOL     OW61706   6.533  10.445  10.529 -0.1240  0.1115 -0.8225
16661SOL    HW161707   6.545  10.371  10.588  0.0970  1.6134  1.1331
16661SOL    HW261708   6.487  10.511  10.582  0.7198  1.8082 -2.0955
16662SOL     OW61709   4.792   4.673   4.164 -0.8163 -0.4296 -0.6504
16662SOL    HW161710   4.830   4.756   4.193 -0.8511 -0.7374  0.2899
16662SOL    HW261711   4.700   4.694   4.145 -0.1096  0.4602 -3.5311
16663SOL     OW61712   4.256   2.091   5.284  0.0184 -0.2840  0.3002
16663SOL    HW161713   4.226   2.108   5.194  0.8489  2.2479  0.4312
16663SOL    HW261714   4.196   2.024   5.316 -1.4004 -0.0099 -1.5704
16664SOL     OW61715   7.285   6.748   8.999 -0.0765 -0.1529  0.3756
16664SOL    HW161716   7.308   6.786   9.085 -0.7301  0.8914  0.1132
16664SOL    HW261717   7.335   6.800   8.937 -1.0035  0.3111  0.0013
16665SOL     OW61718  10.913   2.741  10.869 -0.2687  0.0765 -0.1205
16665SOL    HW161719  10.901   2.762  10.776  0.1597 -0.2675 -0.2572
16665SOL    HW261720  10.971   2.665  10.869  0.2879  0.4952  0.4517
16666SOL     OW61721  11.152  11.603   9.667 -0.2249  0.0286  0.4073
16666SOL    HW161722  11.109  11.525   9.702 -0.4691  0.1800  0.4527
16666SOL    HW261723  11.159  11.662   9.742 -0.8496  0.3991  0.1842
16667SOL     OW61724   2.372   9.628   6.552 -0.2665 -0.1635 -0.6133
16667SOL    HW161725   2.284   9.665   6.561  0.3239  1.2053 -0.1887
16667SOL    HW261726   2.382   9.571   6.628 -0.9292 -0.6533 -0.8845
16668SOL     OW61727   9.559   0.569   5.226 -0.4805 -0.0830  0.0490
16668SOL    HW161728   9.495   0.610   5.285 -0.3887  0.4178 -0.2004
16668SOL    HW261729   9.579   0.636   5.161  0.2509 -0.2584  0.0842
16669SOL     OW61730   8.409   3.538   0.841 -0.1595 -0.0907 -0.7128
16669SOL    HW161731   8.465   3.463   0.819  0.3514 -0.0117  0.2406
16669SOL    HW261732   8.402   3.587   0.759  0.4021 -0.6046 -1.0811
16670SOL     OW61733   5.635   4.452   8.181 -0.5043  0.3099  0.2767
16670SOL    HW161734   5.580   4.457   8.259 -0.8275  0.4671  0.0400
16670SOL    HW261735   5.721   4.425   8.214 -0.3654  1.3761  0.8144
16671SOL     OW61736   2.978   1.152   1.991 -0.1529  0.5068  0.2343
16671SOL    HW161737   2.961   1.246   1.990  0.9586  0.7180 -0.0438
16671SOL    HW261738   2.946   1.122   2.076  1.8344  1.6198  1.4516
16672SOL     OW61739  10.017   6.623   5.428  0.0179  0.1594 -0.2695
16672SOL    HW161740  10.085   6.622   5.361  1.4677 -0.0558  1.1291
16672SOL    HW261741  10.063   6.599   5.509 -1.9977 -1.4570  0.4913
16673SOL     OW61742  10.014   9.889  10.120 -0.0370  0.1649  0.4282
16673SOL    HW161743  10.013   9.888  10.024 -0.4955  0.0703  0.4305
16673SOL    HW261744   9.986   9.978  10.143  0.2053  0.2299  0.4758
16674SOL     OW61745   1.269   0.666   9.007  0.6435  0.0204 -0.0105
16674SOL    HW161746   1.181   0.700   9.027  0.1904 -0.7824 -0.5810
16674SOL    HW261747   1.271   0.580   9.049  1.3693  0.2513  0.4534
16675SOL     OW61748   0.708  11.372   2.657 -0.2347  0.0300 -0.0150
16675SOL    HW161749   0.762  11.308   2.703  0.7562 -0.1788 -1.4237
16675SOL    HW261750   0.711  11.450   2.713  1.0242 -0.1814  0.2458
16676SOL     OW61751   3.734   8.052   7.777 -0.1920  0.5714  0.1554
16676SOL    HW161752   3.681   8.125   7.808  1.9694  1.2733  2.6542
16676SOL    HW261753   3.767   8.011   7.857  1.3911 -1.0440 -1.2274
16677SOL     OW61754   2.594   7.837   7.899 -0.0213  0.0723 -0.6299
16677SOL    HW161755   2.516   7.873   7.857 -0.9451 -1.1355 -0.0163
16677SOL    HW261756   2.563   7.757   7.942  1.5034 -0.2823 -0.1371
16678SOL     OW61757   9.901   8.599  10.067  0.3439  0.4673  0.0184
16678SOL    HW161758   9.960   8.553  10.007  2.8233  0.5471  2.1888
16678SOL    HW261759   9.924   8.691  10.056 -0.8661  0.7176 -0.5485
16679SOL     OW61760   8.049   0.619   7.762 -0.5656 -0.5849  0.4050
16679SOL    HW161761   8.090   0.646   7.844  0.9752 -2.0847  0.1754
16679SOL    HW261762   8.115   0.566   7.718 -1.3482  0.1792 -1.8311
16680SOL     OW61763   6.480   3.947  11.878  0.1417  0.8461 -0.2148
16680SOL    HW161764   6.537   3.932  11.803 -0.7329 -2.3914 -0.3700
16680SOL    HW261765   6.393   3.921  11.848 -0.2549 -0.3866  1.8269
16681SOL     OW61766   7.230   8.787   5.504  0.7604  0.2660 -0.1335
16681SOL    HW161767   7.209   8.793   5.411 -1.2285  0.6411  0.2979
16681SOL    HW261768   7.154   8.826   5.548  0.8202 -1.5536  1.7099
16682SOL     OW61769   3.113  11.792   5.351 -0.1895 -0.2067 -0.0870
16682SOL    HW161770   3.173  11.738   5.299 -1.5443 -0.0007 -1.9357
16682SOL    HW261771   3.088  11.863   5.293 -0.0838  1.2794  1.6140
16683SOL     OW61772   1.105   8.732   9.771  0.5574 -0.0322  0.3391
16683SOL    HW161773   1.111   8.825   9.749  0.8568 -0.2619 -0.5728
16683SOL    HW261774   1.196   8.704   9.782  0.4254  0.4264  3.5302
16684SOL     OW61775   3.264   6.842  10.594 -0.3760 -0.4371  0.4752
16684SOL    HW161776   3.204   6.794  10.536  1.5137 -1.7187 -0.5391
16684SOL    HW261777   3.224   6.834  10.680 -1.8814 -0.8721 -0.2207
16685SOL     OW61778   0.304   0.822   7.333 -0.2126 -0.2833 -0.1120
16685SOL    HW161779   0.379   0.811   7.274  0.6736 -2.8124  1.3413
16685SOL    HW261780   0.228   0.817   7.276  0.6685 -0.9396 -1.2757
16686SOL     OW61781   3.215   2.131   8.072  0.1447  0.1591 -0.5844
16686SOL    HW161782   3.283   2.104   8.134  0.3772  1.2048 -0.3753
16686SOL    HW261783   3.232   2.078   7.994  1.4824  0.7011 -0.6882
16687SOL     OW61784   4.760   9.643   7.557 -1.2774 -0.0807  0.4374
16687SOL    HW161785   4.798   9.589   7.626  0.6042 -0.5637 -0.8988
16687SOL    HW261786   4.667   9.648   7.579 -0.9119 -1.0255  2.4381
16688SOL     OW61787   8.062   0.423   4.871  0.3793 -0.0677  0.5458
16688SOL    HW161788   8.054   0.507   4.915  0.3674 -1.3742  3.2760
16688SOL    HW261789   7.971   0.394   4.858  0.3893  0.1033  0.0831
16689SOL     OW61790   3.971   2.561   7.026 -0.2194  0.5736  0.0892
16689SOL    HW161791   4.055   2.550   7.070  0.8445 -1.1162 -2.1596
16689SOL    HW261792   3.977   2.648   6.985  0.9129  0.0407 -0.9316
16690SOL     OW61793   2.127   5.329   5.674 -0.2456 -0.4102  0.3522
16690SOL    HW161794   2.176   5.301   5.597 -0.0420 -1.4237  0.8342
16690SOL    HW261795   2.190   5.380   5.725 -0.1801 -0.3284  0.1934
16691SOL     OW61796   2.995   8.698   8.865  0.0441  0.3041 -0.5878
16691SOL    HW161797   2.945   8.663   8.791  1.6984  0.8329 -2.0198
16691SOL    HW261798   2.998   8.626   8.928 -1.0557 -0.3035 -1.2060
16692SOL     OW61799  11.063   4.894   3.698  0.3839 -0.3623  0.2261
16692SOL    HW161800  11.157   4.912   3.703  0.2880  0.7325 -1.1600
16692SOL    HW261801  11.054   4.803   3.726  1.9061 -0.6207 -0.0334
16693SOL     OW61802   6.372   3.730   6.454 -0.1059  0.2440  0.6727
16693SOL    HW161803   6.438   3.753   6.519  1.6107 -0.9676 -0.5721
16693SOL    HW261804   6.295   3.704   6.506  0.9456  0.0306  2.1837
16694SOL     OW61805   9.154   7.485   7.879 -0.3019 -0.9001 -0.1311
16694SOL    HW161806   9.173   7.396   7.848  0.0617 -1.1036  0.6772
16694SOL    HW261807   9.223   7.505   7.942  0.0477  0.2478 -0.8341
16695SOL     OW61808  10.939   2.359  10.562  0.2639  0.2085 -0.4256
16695SOL    HW161809  11.030   2.388  10.560  0.5302 -0.6094 -0.7653
16695SOL    HW261810  10.901   2.402  10.638  0.7455  1.0966 -0.6761
16696SOL     OW61811  10.171   5.288   6.092  0.4176  0.1103 -0.6785
16696SOL    HW161812  10.209   5.339   6.163  0.0269  1.4652 -1.3952
16696SOL    HW261813  10.118   5.221   6.135  2.3496 -0.8410  0.3025
16697SOL     OW61814   7.312   2.842   9.256  0.0642 -0.1182  0.1612
16697SOL    HW161815   7.221   2.849   9.226  0.4179  0.8140 -0.7533
16697SOL    HW261816   7.321   2.750   9.281 -0.9965 -0.3419 -0.1931
16698SOL     OW61817   4.809   2.936  10.804  0.3882 -0.1161 -0.6211
16698SOL    HW161818   4.836   2.866  10.744 -1.2794 -2.1179  0.8362
16698SOL    HW261819   4.724   2.908  10.836 -0.0258  2.2914  0.5746
16699SOL     OW61820   4.611   4.158   2.831  0.1205 -0.0036  0.2827
16699SOL    HW161821   4.588   4.133   2.920 -0.7751  0.3078  0.1480
16699SOL    HW261822   4.613   4.076   2.781  0.8759 -0.2070  0.6346
16700SOL     OW61823   6.302   4.409   5.117  0.0966 -0.0017 -0.0908
16700SOL    HW161824   6.276   4.325   5.080  2.3265 -0.8160  0.0362
16700SOL    HW261825   6.229   4.468   5.097 -1.1430 -1.7490 -0.9260
16701SOL     OW61826  10.211   2.343   7.907 -0.3425 -0.2578  0.3549
16701SOL    HW161827  10.220   2.415   7.844 -1.1105 -0.2823  0.2077
16701SOL    HW261828  10.133   2.296   7.878 -0.6194 -0.3560  1.2336
16702SOL     OW61829   4.544   4.188   4.761  0.0077 -0.3773  0.7297
16702SOL    HW161830   4.564   4.257   4.824 -0.3735  0.0556  0.3828
16702SOL    HW261831   4.603   4.203   4.688 -1.6028  0.9913 -0.3593
16703SOL     OW61832   3.667   1.240  10.244 -0.0083 -0.3312  0.1077
16703SOL    HW161833   3.700   1.252  10.155  1.9015 -0.6495  0.7189
16703SOL    HW261834   3.618   1.158  10.240 -1.7492  0.6997 -1.0793
16704SOL     OW61835  10.539   7.157   6.473 -0.4213  0.0549  0.3820
16704SOL    HW161836  10.461   7.130   6.522  0.4628 -0.1442  1.7418
16704SOL    HW261837  10.607   7.165   6.540  1.1690 -1.4337 -0.9758
16705SOL     OW61838  10.356   4.383   1.626  0.9600 -0.3334 -1.0385
16705SOL    HW161839  10.345   4.289   1.609  1.9181 -0.1761 -2.6118
16705SOL    HW261840  10.420   4.412   1.562 -0.5326  1.7515 -1.6770
16706SOL     OW61841   7.855   0.788   0.336 -0.2924 -0.4918  1.1561
16706SOL    HW161842   7.842   0.775   0.242 -1.8075 -0.9717  1.4143
16706SOL    HW261843   7.950   0.799   0.345 -0.2565  1.1646 -0.6012
16707SOL     OW61844   7.046   5.227   2.747 -0.4618  0.5627 -0.7274
16707SOL    HW161845   6.984   5.283   2.795  0.1450  0.3054  0.3754
16707SOL    HW261846   7.054   5.148   2.801  1.1801  0.7843 -0.6088
16708SOL     OW61847  10.935   4.938   4.870 -0.5659  0.3076 -0.1780
16708SOL    HW161848  10.850   4.963   4.832 -1.1605 -0.2469  0.7558
16708SOL    HW261849  10.914   4.909   4.959  0.6109  0.1517  0.0635
16709SOL     OW61850   7.363  11.248   1.445 -0.1542 -0.5310 -0.3470
16709SOL    HW161851   7.336  11.320   1.502  3.9410  1.0118 -0.0116
16709SOL    HW261852   7.392  11.179   1.505  0.9782 -0.2370 -0.5182
16710SOL     OW61853   6.377   3.067   8.455 -0.3769 -0.4064 -0.4224
16710SOL    HW161854   6.453   3.087   8.399  0.3288  1.0994  0.9834
16710SOL    HW261855   6.307   3.047   8.393  0.9259 -0.9384 -1.7874
16711SOL     OW61856   8.010   5.944   2.929  0.5708  0.3662  0.7617
16711SOL    HW161857   8.078   5.975   2.988  1.2472 -2.0921  1.3828
16711SOL    HW261858   8.057   5.896   2.860 -0.3321  1.5453 -0.7604
16712SOL     OW61859   8.230  10.294   0.355 -0.4297 -0.5312 -0.8254
16712SOL    HW161860   8.188  10.341   0.282 -2.6888 -2.6535 -1.0555
16712SOL    HW261861   8.238  10.359   0.424 -3.1127  0.3601 -1.2259
16713SOL     OW61862   6.409   8.642   6.037  0.3514 -0.0364  0.3585
16713SOL    HW161863   6.473   8.613   6.102  0.9090  0.9489  0.2769
16713SOL    HW261864   6.420   8.737   6.034 -1.5618  0.2376  0.7964
16714SOL     OW61865   4.640   2.255   7.004  0.1159 -0.4674 -0.0696
16714SOL    HW161866   4.713   2.279   7.061  0.6550 -0.8721 -0.5772
16714SOL    HW261867   4.677   2.190   6.943 -0.8926 -1.3581  0.2402
16715SOL     OW61868   4.994   9.914   4.142  0.7933  0.2107  0.2426
16715SOL    HW161869   4.987   9.946   4.232 -2.3749 -0.3376  0.3273
16715SOL    HW261870   4.995   9.992   4.088 -0.6069  0.5678  0.6832
16716SOL     OW61871   5.054   8.474  10.804 -0.0544  0.7583  0.3386
16716SOL    HW161872   5.036   8.435  10.719 -0.5789  1.8813 -0.0830
16716SOL    HW261873   5.034   8.567  10.793 -0.8422  0.8156  1.8823
16717SOL     OW61874   8.206   8.517   6.527  0.3281 -1.1025  0.3513
16717SOL    HW161875   8.232   8.522   6.619  0.8690 -1.5094  0.2254
16717SOL    HW261876   8.203   8.423   6.508 -0.7191 -1.0467  0.2105
16718SOL     OW61877   7.772  10.396   1.738  0.2732  0.1817  0.8735
16718SOL    HW161878   7.804  10.477   1.698 -1.4700  0.2033 -0.5770
16718SOL    HW261879   7.700  10.424   1.795 -0.4092 -0.3467  0.2806
16719SOL     OW61880   2.996   8.764   2.576 -0.0097  0.2439  0.2074
16719SOL    HW161881   3.005   8.810   2.492  0.7533 -0.1968  0.0430
16719SOL    HW261882   2.955   8.681   2.553  0.8595 -0.1807  0.1653
16720SOL     OW61883   7.039   7.500   4.903 -0.1252  0.9528 -0.1872
16720SOL    HW161884   7.123   7.544   4.895 -0.1451  1.1566  0.6122
16720SOL    HW261885   7.040   7.463   4.992 -0.3690 -0.1113 -0.6135
16721SOL     OW61886   6.676  10.700  10.776  0.4847 -0.1191 -0.0090
16721SOL    HW161887   6.632  10.738  10.852  1.1012  1.4152 -0.3905
16721SOL    HW261888   6.758  10.748  10.769  0.3217 -0.0390 -1.7989
16722SOL     OW61889   9.065  11.697   0.468 -0.4375 -0.6893  0.0585
16722SOL    HW161890   9.032  11.787   0.463  0.9850 -0.1685 -0.6811
16722SOL    HW261891   9.027  11.662   0.548 -0.1281  0.9771  0.9909
16723SOL     OW61892   9.733  10.513   7.384  0.1229  0.0267 -0.3201
16723SOL    HW161893   9.668  10.578   7.357  1.8399  1.4986 -1.1883
16723SOL    HW261894   9.794  10.509   7.311  1.3579 -0.8009  0.7181
16724SOL     OW61895  11.209   6.145   5.225 -0.1222 -0.8370 -0.3079
16724SOL    HW161896  11.292   6.152   5.273 -1.0246 -0.8459  1.2963
16724SOL    HW261897  11.175   6.059   5.246 -0.8596 -0.5844 -0.4250
16725SOL     OW61898  10.312   1.641   2.219 -0.1259 -0.2426  0.6148
16725SOL    HW161899  10.296   1.696   2.141  2.1707  0.2406  0.4098
16725SOL    HW261900  10.272   1.557   2.197  0.6893 -0.2105 -1.2482
16726SOL     OW61901   1.367   3.709   7.828 -0.0005  0.8138 -0.1672
16726SOL    HW161902   1.444   3.765   7.839 -0.0707  0.7530  0.7309
16726SOL    HW261903   1.391   3.627   7.871  0.1863  0.0471 -1.6620
16727SOL     OW61904   7.030  11.524   2.390 -0.0201 -0.6205  0.1137
16727SOL    HW161905   7.002  11.446   2.437 -0.8231  0.4969  1.5534
16727SOL    HW261906   6.959  11.587   2.401  1.2069  0.8172  0.2490
16728SOL     OW61907  10.067   0.708   4.190  0.4152 -0.2258  0.3967
16728SOL    HW161908  10.049   0.699   4.284  0.5631  1.8537  0.6903
16728SOL    HW261909  10.062   0.803   4.175  1.0208 -0.4741 -1.5805
16729SOL     OW61910   8.332   3.328   9.340  0.0855 -0.1727 -0.0343
16729SOL    HW161911   8.332   3.421   9.363 -2.0557  0.2660 -1.4666
16729SOL    HW261912   8.420   3.311   9.307  0.7584  1.1213  1.0252
16730SOL     OW61913   2.542  10.954   6.013 -0.2554  0.6643  0.1359
16730SOL    HW161914   2.524  10.890   6.082 -0.2003  0.5166  0.0148
16730SOL    HW261915   2.464  11.009   6.011 -0.6663  0.0879 -0.3164
16731SOL     OW61916   0.569   7.428  11.078  0.1572 -0.2968  0.1329
16731SOL    HW161917   0.475   7.415  11.090 -0.4014  1.3574 -1.8406
16731SOL    HW261918   0.576   7.516  11.041  2.6790  0.5966  2.4111
16732SOL     OW61919  10.963   3.937   3.488 -0.1374  0.5747 -0.6158
16732SOL    HW161920  11.005   3.887   3.557 -1.6557  0.5536  0.3414
16732SOL    HW261921  10.957   4.026   3.523 -1.1169  0.5139 -0.6031
16733SOL     OW61922   6.936   1.882   0.077  0.1955 -0.3641  0.1626
16733SOL    HW161923   6.868   1.858   0.013  0.7859  0.2035 -0.7060
16733SOL    HW261924   6.893   1.873   0.162 -0.9712 -0.0561 -0.3661
16734SOL     OW61925   6.310   0.687   2.522 -0.3544 -0.5635  0.1653
16734SOL    HW161926   6.261   0.636   2.587  0.0003 -0.2860  0.6535
16734SOL    HW261927   6.402   0.673   2.545 -0.2527  1.4388  1.2235
16735SOL     OW61928   3.069   9.814   0.966  0.1428 -0.5517  0.1465
16735SOL    HW161929   3.017   9.831   1.044  2.1772  0.9170  1.2714
16735SOL    HW261930   3.014   9.843   0.893 -0.5087  1.3212  1.3131
16736SOL     OW61931   1.842  11.918   7.938 -0.7218 -0.7465  0.0823
16736SOL    HW161932   1.847  11.857   7.865 -0.4095  0.0517 -0.5807
16736SOL    HW261933   1.797  11.995   7.902  4.0065  1.9350 -0.9590
16737SOL     OW61934  10.729   6.166   1.238  0.1797 -0.5487  0.2997
16737SOL    HW161935  10.643   6.191   1.273  0.3456 -2.0654  1.8572
16737SOL    HW261936  10.792   6.212   1.294  0.4161 -0.7745  0.2183
16738SOL     OW61937   6.628  11.685  11.837 -0.2452 -0.3528 -0.0062
16738SOL    HW161938   6.562  11.649  11.897  0.9754 -1.2242  0.8603
16738SOL    HW261939   6.620  11.631  11.758 -1.9785  0.9103 -0.7380
16739SOL     OW61940   2.588   3.931   0.661 -0.0269  0.1710  0.2327
16739SOL    HW161941   2.635   3.895   0.586 -0.9350 -0.0690 -0.2417
16739SOL    HW261942   2.583   3.859   0.724 -0.2610  0.0189  0.0408
16740SOL     OW61943   5.024   6.770   1.925  0.0388  0.7061  0.0565
16740SOL    HW161944   4.994   6.710   1.993  1.2077 -0.0743 -0.0938
16740SOL    HW261945   4.988   6.855   1.950 -2.6701 -0.2195 -0.3385
16741SOL     OW61946   2.143   7.970   2.479 -0.4802  0.2516 -0.2634
16741SOL    HW161947   2.189   7.892   2.508 -1.0418 -0.0866 -0.2589
16741SOL    HW261948   2.114   7.949   2.390 -1.3989  0.0984  0.0569
16742SOL     OW61949   4.889   9.876   3.737  0.2851  0.2555  0.0162
16742SOL    HW161950   4.977   9.842   3.753  0.9196  1.4977 -0.6155
16742SOL    HW261951   4.841   9.858   3.818  0.5696 -1.9965 -0.2566
16743SOL     OW61952   2.684   9.627   7.980  0.5288 -0.3067 -0.2292
16743SOL    HW161953   2.622   9.570   7.935 -0.4540 -1.1543  2.0617
16743SOL    HW261954   2.729   9.570   8.042  1.8382  0.8010 -0.1141
16744SOL     OW61955   0.790  11.016   7.825  0.1536  0.1322 -0.1279
16744SOL    HW161956   0.773  11.101   7.866 -1.9825  0.3469 -1.3390
16744SOL    HW261957   0.756  10.953   7.888 -1.5068  0.3749 -0.7443
16745SOL     OW61958   2.812   8.281  10.128 -0.2624  0.8656 -0.1118
16745SOL    HW161959   2.888   8.274  10.186 -0.8298  0.1340  0.5641
16745SOL    HW261960   2.786   8.373  10.133  0.1311  0.9605  0.2280
16746SOL     OW61961   9.860  10.988   4.261 -0.3178 -0.5750 -0.1104
16746SOL    HW161962   9.922  10.951   4.324  0.9201  1.2799 -0.1498
16746SOL    HW261963   9.857  10.924   4.190  2.0275 -0.4848 -0.3800
16747SOL     OW61964  11.134   7.031   6.944 -0.2969  0.0816  0.6207
16747SOL    HW161965  11.196   6.968   6.906 -0.9477  0.0108 -0.3590
16747SOL    HW261966  11.099   6.987   7.021 -1.1820 -1.0123 -0.3832
16748SOL     OW61967   3.643   2.958   1.530  0.2729 -0.0878 -0.5922
16748SOL    HW161968   3.583   3.001   1.591 -0.6901 -1.0024 -0.8671
16748SOL    HW261969   3.705   2.912   1.587 -0.9698 -1.4183 -0.2556
16749SOL     OW61970   8.087   9.837   6.377 -0.2721 -0.5988 -0.4536
16749SOL    HW161971   8.057   9.755   6.415 -1.1263 -0.8128 -1.5578
16749SOL    HW261972   8.090   9.821   6.282 -1.9699  1.0907 -0.8597
16750SOL     OW61973   2.974   4.752   0.789  0.2742  0.1264  0.4654
16750SOL    HW161974   3.051   4.747   0.732  0.2617 -0.3778  0.4875
16750SOL    HW261975   2.909   4.696   0.747  0.1036  0.1243  0.7272
16751SOL     OW61976   7.938   9.071   7.074  0.2536  0.2566  0.0480
16751SOL    HW161977   7.958   8.986   7.036  0.2569  1.3260 -2.5942
16751SOL    HW261978   7.925   9.128   6.998 -2.4985  1.9989  1.6612
16752SOL     OW61979   1.269   7.981   4.331  1.2047 -0.3193 -0.6109
16752SOL    HW161980   1.290   7.955   4.241  1.5323 -0.4728 -0.4911
16752SOL    HW261981   1.186   7.936   4.350  1.8168 -1.3815 -0.3675
16753SOL     OW61982   5.810   0.213   9.448  0.3887 -0.0692 -0.0280
16753SOL    HW161983   5.833   0.201   9.356  0.2486 -0.0680 -0.0622
16753SOL    HW261984   5.804   0.308   9.459 -2.4430 -0.0860 -0.7109
16754SOL     OW61985   8.978   2.218  10.280 -0.0978 -0.1222 -0.1765
16754SOL    HW161986   8.988   2.147  10.345 -0.4859 -3.1988 -3.1832
16754SOL    HW261987   8.884   2.238  10.282  0.1946  1.3969  1.5820
16755SOL     OW61988   7.528   1.134  10.751  0.1779 -0.0081  0.7047
16755SOL    HW161989   7.617   1.115  10.720  0.1921 -0.5902  1.0727
16755SOL    HW261990   7.495   1.201  10.692  0.7884  0.0542  0.4324
16756SOL     OW61991   1.625   9.957   4.187  0.3390  0.0350  0.1159
16756SOL    HW161992   1.650   9.918   4.103  0.5303  1.0880 -0.3306
16756SOL    HW261993   1.607   9.882   4.244 -0.1787 -0.6935 -0.9772
16757SOL     OW61994   0.054   2.031   3.376  0.5483  0.3738 -0.8396
16757SOL    HW161995  -0.005   2.105   3.366  1.4136  1.6206  2.2361
16757SOL    HW261996  -0.003   1.955   3.383 -0.5065  1.1268 -1.0791
16758SOL     OW61997   6.393   6.464   1.356 -0.5121  0.3495  0.3117
16758SOL    HW161998   6.373   6.388   1.301 -0.1342 -0.8086  1.7228
16758SOL    HW261999   6.345   6.449   1.437  1.3203  0.4823  1.4758
16759SOL     OW62000   9.054   3.360  10.278  0.1870 -0.1167  0.3956
16759SOL    HW162001   9.079   3.421  10.348  2.9901  2.4547 -2.4756
16759SOL    HW262002   8.975   3.398  10.240  0.5754  0.4369  0.1194
16760SOL     OW62003  10.504   4.060   1.909 -0.0433 -0.2084 -0.1692
16760SOL    HW162004  10.548   3.975   1.903  1.8050  0.7978 -1.9377
16760SOL    HW262005  10.533   4.096   1.992  1.8067  0.0267 -0.8733
16761SOL     OW62006   9.601   9.337   1.615  0.1809  0.5115  0.0112
16761SOL    HW162007   9.656   9.360   1.691  0.8917  0.2532 -0.4169
16761SOL    HW262008   9.641   9.383   1.542 -1.3241  1.9089 -0.0086
16762SOL     OW62009   8.819   1.618   9.391 -0.2098 -0.4896  0.4707
16762SOL    HW162010   8.802   1.563   9.468  3.2162 -1.2612  0.8501
16762SOL    HW262011   8.833   1.555   9.320 -2.2221  0.1852 -0.5888
16763SOL     OW62012   4.740   3.671   0.466  0.4424 -0.2176  0.8220
16763SOL    HW162013   4.810   3.734   0.486  2.4473 -2.2511  0.7247
16763SOL    HW262014   4.732   3.619   0.546 -1.8268  0.6476  1.2293
16764SOL     OW62015   0.393   0.013   3.756 -0.1373  0.5529 -0.0120
16764SOL    HW162016   0.486  -0.010   3.764 -0.0841 -0.7031 -2.9921
16764SOL    HW262017   0.393   0.107   3.738  0.4931  0.6765  0.5968
16765SOL     OW62018   5.590   5.517   5.625  0.0435 -0.4950 -0.2029
16765SOL    HW162019   5.537   5.501   5.547  1.1686 -0.1070 -1.0750
16765SOL    HW262020   5.609   5.611   5.622  1.8380 -0.8329 -0.6325
16766SOL     OW62021  11.716   8.009   8.009  0.2183 -0.1953  0.0358
16766SOL    HW162022  11.743   8.099   7.992  0.7603 -0.8558 -3.2405
16766SOL    HW262023  11.689   8.009   8.101 -0.7049  3.4996 -0.0751
16767SOL     OW62024  10.054   7.303   9.621  0.0491 -0.0857 -0.1357
16767SOL    HW162025  10.052   7.210   9.646  1.3755  0.2389  1.3156
16767SOL    HW262026  10.143   7.331   9.640 -0.9145  2.0474  1.6008
16768SOL     OW62027  11.462   1.701   3.201  0.9048  0.0655  0.2192
16768SOL    HW162028  11.396   1.651   3.152  1.4623  0.3139 -0.8283
16768SOL    HW262029  11.532   1.637   3.218  3.2808  1.0346 -4.1845
16769SOL     OW62030   2.589   3.748   7.008  0.9047  0.4490 -0.1234
16769SOL    HW162031   2.601   3.804   7.085  0.8963  1.5864 -0.9253
16769SOL    HW262032   2.640   3.790   6.940  1.6230 -1.0369 -0.5283
16770SOL     OW62033   5.207   8.426   2.964 -0.5791 -0.2040  0.1009
16770SOL    HW162034   5.200   8.333   2.943  2.3041  0.0176 -2.6518
16770SOL    HW262035   5.297   8.449   2.941 -1.6329  3.6316 -0.9674
16771SOL     OW62036   1.564   8.658   0.193  0.1192 -0.0282  0.2091
16771SOL    HW162037   1.508   8.586   0.167  0.4451 -0.4515  0.6536
16771SOL    HW262038   1.504   8.726   0.224 -0.2738  0.4789 -1.5719
16772SOL     OW62039   3.117   8.646   9.268  0.1127  0.4016 -0.0391
16772SOL    HW162040   3.194   8.641   9.212  1.9116  2.0450  2.0984
16772SOL    HW262041   3.061   8.712   9.226 -0.4731 -1.1761 -1.8812
16773SOL     OW62042   9.526  10.566   0.194  0.3412 -0.2036  0.2289
16773SOL    HW162043   9.590  10.571   0.123 -0.4552 -0.1677 -0.4954
16773SOL    HW262044   9.571  10.516   0.263  1.8202  1.3782  0.4801
16774SOL     OW62045  11.792   1.463  11.907  0.2240 -0.4755  0.3987
16774SOL    HW162046  11.755   1.461  11.818  0.7027 -0.7477  0.1960
16774SOL    HW262047  11.720   1.491  11.963 -0.4878 -1.6193  0.1070
16775SOL     OW62048   4.826   1.421   4.247  0.0507  0.5997 -0.3669
16775SOL    HW162049   4.892   1.418   4.178 -0.4396 -2.6413 -0.8753
16775SOL    HW262050   4.853   1.351   4.308 -1.5499  0.8921  0.7468
16776SOL     OW62051   1.498   4.740   0.883 -0.2150  0.3361  0.2201
16776SOL    HW162052   1.484   4.728   0.977 -0.9544 -1.3210 -0.0740
16776SOL    HW262053   1.564   4.675   0.859 -1.1554 -0.3385 -0.6614
16777SOL     OW62054   2.800   1.992   3.275 -0.7083 -0.0808 -0.3424
16777SOL    HW162055   2.867   2.058   3.293  0.9260 -1.5146 -0.8434
16777SOL    HW262056   2.769   1.965   3.361 -0.9531  0.9059 -0.1148
16778SOL     OW62057   4.724   2.224  10.081 -0.1444  0.0597  0.6283
16778SOL    HW162058   4.764   2.181  10.005  0.3027 -0.4485  1.1518
16778SOL    HW262059   4.634   2.242  10.053  0.1694  0.3981 -0.2318
16779SOL     OW62060   8.755   5.919   5.554 -0.0756 -0.3262  0.2133
16779SOL    HW162061   8.836   5.906   5.505 -0.1272 -0.2225  0.1012
16779SOL    HW262062   8.709   5.835   5.546  0.0352 -0.3976  0.3064
16780SOL     OW62063   5.536   4.243  10.303 -0.6288  0.0206 -0.3725
16780SOL    HW162064   5.603   4.311  10.304 -1.0885  0.4850 -0.7314
16780SOL    HW262065   5.579   4.166  10.341  0.4650 -0.0466 -1.7046
16781SOL     OW62066  11.279   0.503   7.458  0.0636 -1.1295  0.4709
16781SOL    HW162067  11.194   0.501   7.503 -0.1215  0.5212  0.2616
16781SOL    HW262068  11.264   0.457   7.376 -0.8501 -0.2192  0.1067
16782SOL     OW62069   2.306   1.353   7.587  0.1033 -0.6379 -0.0124
16782SOL    HW162070   2.242   1.423   7.601  0.7126 -0.0506 -0.1319
16782SOL    HW262071   2.373   1.367   7.654  0.1464 -1.2075  0.0702
16783SOL     OW62072   6.780   7.514  10.154  0.3238  0.5608 -0.1555
16783SOL    HW162073   6.809   7.499  10.064 -1.8468  0.5375 -0.9140
16783SOL    HW262074   6.743   7.430  10.182  0.4840  0.7222  0.5713
16784SOL     OW62075   5.415   1.260   2.878  0.3410  0.1598 -0.1404
16784SOL    HW162076   5.366   1.225   2.804 -0.1817 -0.2269  0.3766
16784SOL    HW262077   5.370   1.225   2.955  2.5453 -1.7505  0.3614
16785SOL     OW62078   0.741   8.157   6.409  0.4644 -0.0537  0.5563
16785SOL    HW162079   0.718   8.081   6.463  0.4540 -1.1310 -0.8996
16785SOL    HW262080   0.834   8.170   6.424  0.7043 -1.0449  0.0279
16786SOL     OW62081   6.141  10.295   3.435  0.3351 -0.2119 -0.8682
16786SOL    HW162082   6.127  10.382   3.397  1.6475  0.5805  0.3423
16786SOL    HW262083   6.139  10.310   3.529  1.1728 -1.3872 -0.6444
16787SOL     OW62084  11.344   7.354   7.914  0.0924  0.2202 -0.0997
16787SOL    HW162085  11.394   7.353   7.832  0.1684 -1.9776 -0.0951
16787SOL    HW262086  11.273   7.291   7.899  0.2725 -0.4400  1.5934
16788SOL     OW62087   5.110   5.219   4.011  0.5687 -0.0030 -0.2513
16788SOL    HW162088   5.076   5.240   3.924 -0.8237 -1.8157 -0.1951
16788SOL    HW262089   5.127   5.124   4.008  2.8984  0.3186  0.6797
16789SOL     OW62090   7.276   1.574   1.548 -0.1776 -0.0746 -0.6481
16789SOL    HW162091   7.285   1.597   1.640  1.6222 -0.0870 -0.8028
16789SOL    HW262092   7.279   1.658   1.501  1.0375 -0.2051 -0.8290
16790SOL     OW62093   9.158   5.472   6.346 -0.2835  0.2760 -0.4659
16790SOL    HW162094   9.218   5.519   6.289 -1.0913  1.2587 -0.5345
16790SOL    HW262095   9.156   5.524   6.427 -0.2377 -0.3258 -0.0712
16791SOL     OW62096   6.206   5.804   0.924  0.0844  0.1246 -0.2520
16791SOL    HW162097   6.143   5.812   0.853 -0.9248 -1.3708  0.4184
16791SOL    HW262098   6.291   5.790   0.881 -0.4655 -0.4557 -1.1703
16792SOL     OW62099   1.031   8.213   6.426  0.1784 -0.5688  0.9263
16792SOL    HW162100   1.083   8.260   6.491 -0.2299 -0.2480  1.0252
16792SOL    HW262101   1.040   8.265   6.346  0.2707 -0.6887  0.8583
16793SOL     OW62102   3.666  11.921   0.540  0.4941 -0.2814  0.0570
16793SOL    HW162103   3.737  11.984   0.544  1.2794 -1.1254 -0.2252
16793SOL    HW262104   3.593  11.963   0.586  0.8560  0.9893 -0.5029
16794SOL     OW62105   9.885   5.239   4.679  0.0721 -0.5860  0.1946
16794SOL    HW162106   9.975   5.217   4.701 -0.6926 -2.5916  1.6798
16794SOL    HW262107   9.865   5.314   4.736  0.6966 -0.3301  0.0873
16795SOL     OW62108   5.537   0.335  10.846 -0.1711 -0.4941  0.4288
16795SOL    HW162109   5.580   0.302  10.925 -1.1394 -0.3224  1.0439
16795SOL    HW262110   5.485   0.262  10.815  0.9511 -0.8743 -0.6196
16796SOL     OW62111   4.464   0.574   3.255  0.3029 -0.3468 -0.3022
16796SOL    HW162112   4.405   0.541   3.322  0.0736  1.1489  0.2811
16796SOL    HW262113   4.414   0.642   3.210  1.5067  0.9064  0.1649
16797SOL     OW62114   4.934   3.706   2.335 -0.2877  0.1834  0.3499
16797SOL    HW162115   4.871   3.641   2.303 -3.3826  2.3475  1.6361
16797SOL    HW262116   4.916   3.784   2.283  2.3852  0.5442 -0.1802
16798SOL     OW62117   4.498   5.439   9.990 -0.5289  0.1058 -0.5980
16798SOL    HW162118   4.501   5.347  10.016  3.1873  0.7660  1.9995
16798SOL    HW262119   4.458   5.483  10.065 -1.1754  0.7902 -1.3310
16799SOL     OW62120   3.414   7.451   7.805 -0.0377  0.6319  0.0601
16799SOL    HW162121   3.494   7.404   7.784 -1.1846 -1.8713  0.8731
16799SOL    HW262122   3.348   7.414   7.745 -1.0214  1.1013  0.8216
16800SOL     OW62123  10.330   9.294  11.005 -0.2592  0.2475  0.3105
16800SOL    HW162124  10.338   9.293  11.100  0.6546  1.2786  0.2661
16800SOL    HW262125  10.374   9.214  10.976  1.7713  1.1855  0.6386
16801SOL     OW62126  11.455   2.957   9.769 -0.3169  0.4098 -0.1364
16801SOL    HW162127  11.509   2.878   9.782  0.4693  1.1608  1.3630
16801SOL    HW262128  11.499   3.004   9.698 -0.7399 -0.4254 -0.9809
16802SOL     OW62129   3.141   6.131   5.904 -0.2228  0.1479 -0.3459
16802SOL    HW162130   3.148   6.166   5.816 -1.2428  1.4609  0.0650
16802SOL    HW262131   3.085   6.054   5.895 -0.3438  0.2904 -0.8502
16803SOL     OW62132   3.822   0.811   8.988  0.9541  0.0055  0.1201
16803SOL    HW162133   3.739   0.838   8.949  0.6241 -0.5539  0.4262
16803SOL    HW262134   3.817   0.716   8.994  1.7908 -0.0769 -0.2410
16804SOL     OW62135   2.259   9.551   4.131  0.2607 -0.3073  0.3287
16804SOL    HW162136   2.253   9.528   4.224  1.4497  2.2070  1.1033
16804SOL    HW262137   2.208   9.632   4.123  0.9054 -0.0046 -1.0126
16805SOL     OW62138   2.548   4.980   0.125 -0.4716  0.1987 -0.3395
16805SOL    HW162139   2.481   4.912   0.122 -0.7970  0.5183 -0.4366
16805SOL    HW262140   2.541   5.024   0.040 -1.1889  1.2193  0.2264
16806SOL     OW62141  10.946   0.204   0.163 -0.2691 -0.3862 -0.0600
16806SOL    HW162142  10.938   0.277   0.102 -4.9516 -0.0503  0.5906
16806SOL    HW262143  10.966   0.245   0.248  3.1060 -0.5937 -0.6091
16807SOL     OW62144   6.008   8.879   7.245  0.3031 -0.2650  0.1127
16807SOL    HW162145   5.959   8.959   7.226 -1.6748 -1.4286  0.1317
16807SOL    HW262146   6.045   8.894   7.332 -1.2612  0.0732  0.7408
16808SOL     OW62147   9.573  10.071   0.659 -0.8957  0.3211  0.3225
16808SOL    HW162148   9.623  10.135   0.709  2.3772 -0.7622 -1.2497
16808SOL    HW262149   9.552  10.002   0.721 -1.2357  1.2228  1.2273
16809SOL     OW62150  10.388   0.482   6.225  0.2997 -0.4867 -0.7102
16809SOL    HW162151  10.358   0.392   6.242  0.3190 -0.3636  0.0173
16809SOL    HW262152  10.323   0.518   6.165 -0.3871 -0.5988 -0.0550
16810SOL     OW62153   0.620   2.524   1.585  0.2088  0.1649 -0.1267
16810SOL    HW162154   0.713   2.522   1.604 -0.0136 -0.5552  1.0483
16810SOL    HW262155   0.610   2.472   1.506  0.6779 -0.8539  0.4628
16811SOL     OW62156   9.210   4.808  10.272 -0.1233 -0.0669  0.0877
16811SOL    HW162157   9.221   4.748  10.199  0.9107  1.4393 -1.0660
16811SOL    HW262158   9.254   4.765  10.346 -0.3981 -1.2070 -0.3973
16812SOL     OW62159   5.546   1.855   0.191  0.0919 -0.4634  0.2381
16812SOL    HW162160   5.475   1.836   0.253  1.4476  1.1028  2.4360
16812SOL    HW262161   5.502   1.885   0.112 -1.7244 -0.1379  1.3225
16813SOL     OW62162   0.503   8.570   6.803  0.6086  0.2278 -0.3512
16813SOL    HW162163   0.509   8.483   6.842 -1.2380 -0.8286 -2.2488
16813SOL    HW262164   0.450   8.620   6.864 -1.1156 -1.0038 -0.7487
16814SOL     OW62165   6.620   5.224   8.172 -0.3877  0.3578 -0.3811
16814SOL    HW162166   6.604   5.250   8.082 -0.5479  0.3398 -0.3581
16814SOL    HW262167   6.609   5.129   8.172 -2.6023  0.5736  0.1099
16815SOL     OW62168   7.871   4.708   7.436  0.2240  0.5277  0.2815
16815SOL    HW162169   7.778   4.688   7.426  0.3014 -0.0486  0.6383
16815SOL    HW262170   7.874   4.800   7.460 -0.1749  0.9423 -1.1665
16816SOL     OW62171   3.883   9.932   5.618  0.0787 -0.2197  0.2958
16816SOL    HW162172   3.937   9.982   5.679  0.6763 -0.1728 -0.2620
16816SOL    HW262173   3.827   9.998   5.577  1.1921  0.0840 -0.7797
16817SOL     OW62174   8.614   7.059   2.797  0.1707  0.1795 -0.2179
16817SOL    HW162175   8.580   7.045   2.886 -1.1047  0.0730 -0.7022
16817SOL    HW262176   8.540   7.040   2.740  1.2574 -0.7178 -1.3730
16818SOL     OW62177   4.807   9.772   3.983  0.0471 -0.0986 -0.6527
16818SOL    HW162178   4.738   9.793   4.046  0.8521 -1.9133  0.9374
16818SOL    HW262179   4.889   9.789   4.031  0.6737 -0.6468 -1.5035
16819SOL     OW62180   3.594   9.261   7.563  0.1534 -0.4483  0.7841
16819SOL    HW162181   3.524   9.314   7.525  0.4054 -0.0246  0.9038
16819SOL    HW262182   3.588   9.277   7.657  0.4768 -0.3236  0.7848
16820SOL     OW62183   1.778   7.768   8.259  0.2070  0.3830 -0.2179
16820SOL    HW162184   1.700   7.714   8.249 -0.0746  0.3142  2.0073
16820SOL    HW262185   1.752   7.840   8.316  1.2299  1.5725 -1.1712
16821SOL     OW62186  11.930   7.617   6.094 -0.2161  0.2793  0.2764
16821SOL    HW162187  11.950   7.689   6.035  0.8989 -1.7461 -1.9879
16821SOL    HW262188  12.002   7.616   6.157 -1.2217  2.2277  1.5611
16822SOL     OW62189   1.932   9.653   6.386 -0.2363 -0.0776 -0.6193
16822SOL    HW162190   1.932   9.689   6.475  0.7029  0.0588 -0.6617
16822SOL    HW262191   1.921   9.559   6.397 -0.8018  0.0102 -0.4028
16823SOL     OW62192   1.969   9.868   6.153  0.1260 -0.2440 -0.3211
16823SOL    HW162193   1.880   9.877   6.185 -0.1687 -1.2293 -0.8279
16823SOL    HW262194   1.996   9.957   6.129 -0.6555  0.0762 -0.0256
16824SOL     OW62195   1.572   9.819   5.688 -0.2492 -0.0539  0.4639
16824SOL    HW162196   1.595   9.898   5.639 -1.0216  0.4817  0.9284
16824SOL    HW262197   1.580   9.748   5.625  2.5083  0.0741  0.5603
16825SOL     OW62198  11.488   4.455  10.367 -0.2904 -0.5811 -0.0463
16825SOL    HW162199  11.491   4.378  10.311 -2.2053 -0.5423 -0.2579
16825SOL    HW262200  11.523   4.424  10.451  1.1871 -1.0203 -0.7857
16826SOL     OW62201   9.946  11.055   4.732 -0.3036 -0.7842 -0.6577
16826SOL    HW162202   9.989  11.117   4.791 -1.8317 -0.4829  0.1935
16826SOL    HW262203   9.852  11.076   4.739 -0.5129  0.1448 -4.2153
16827SOL     OW62204   9.707  11.236   8.895  0.5130  0.8088  0.0687
16827SOL    HW162205   9.728  11.199   8.809  0.2707 -0.2100  0.4313
16827SOL    HW262206   9.690  11.160   8.951  3.7239  1.2163  1.8529
16828SOL     OW62207  11.822   4.458   1.644  0.6557  0.3734 -0.3383
16828SOL    HW162208  11.891   4.399   1.675  0.8832  0.2469 -1.0511
16828SOL    HW262209  11.754   4.452   1.710  0.0620 -1.7950 -1.0427
16829SOL     OW62210   4.779   9.281   4.248 -0.3775 -0.4062 -0.1549
16829SOL    HW162211   4.866   9.277   4.209 -0.0022 -0.8552  0.6898
16829SOL    HW262212   4.796   9.304   4.340 -1.2860  1.7972 -0.4708
16830SOL     OW62213  11.685   8.666   7.865  0.6004  0.2182  0.2853
16830SOL    HW162214  11.749   8.701   7.927  0.2153 -1.3581  1.6463
16830SOL    HW262215  11.615   8.731   7.864 -0.1626 -0.4465  2.8509
16831SOL     OW62216   8.162   5.635   9.268  0.2295  0.1070 -0.3566
16831SOL    HW162217   8.245   5.671   9.299 -0.1134  0.1926  0.5110
16831SOL    HW262218   8.186   5.563   9.211  0.9018 -0.1290  0.2142
16832SOL     OW62219   3.827   1.284   3.530 -0.1474 -0.2890 -0.0814
16832SOL    HW162220   3.815   1.300   3.436  2.1538 -1.0757 -0.5605
16832SOL    HW262221   3.778   1.203   3.547 -0.5338 -0.1682 -0.6139
16833SOL     OW62222   0.402   3.383   8.434  0.2650  0.0649 -0.9526
16833SOL    HW162223   0.315   3.346   8.446  0.8856 -0.8248  1.1902
16833SOL    HW262224   0.457   3.307   8.414  1.0030  0.2302  0.3789
16834SOL     OW62225   8.678   3.497   6.636 -0.0377  0.2874 -0.0488
16834SOL    HW162226   8.667   3.477   6.543  0.4446  0.9543 -0.2524
16834SOL    HW262227   8.684   3.592   6.640 -2.3380  0.4469  0.9140
16835SOL     OW62228   1.837   7.840   5.512  0.2308  0.6383 -0.0610
16835SOL    HW162229   1.776   7.769   5.530  0.7325  0.3801  0.6670
16835SOL    HW262230   1.787   7.901   5.458 -0.2705 -0.1689 -0.5377
16836SOL     OW62231   3.240   9.704   2.136 -0.3041 -0.1175 -0.0143
16836SOL    HW162232   3.190   9.694   2.055  0.2618 -0.6497 -0.3002
16836SOL    HW262233   3.264   9.615   2.161  2.4348  0.2193 -1.1095
16837SOL     OW62234   1.865   2.618  11.029  0.0047  0.1887 -0.3860
16837SOL    HW162235   1.869   2.672  10.950  0.5836  0.7392  0.0099
16837SOL    HW262236   1.871   2.680  11.101  0.3727 -0.3807  0.0822
16838SOL     OW62237   3.325   7.932   9.126  0.0652 -0.2065  0.0684
16838SOL    HW162238   3.377   7.862   9.165 -1.5258 -1.0454  0.8209
16838SOL    HW262239   3.326   8.002   9.192  1.8273  0.5994 -0.7726
16839SOL     OW62240   5.695   4.245   1.584  0.0451  0.0852  0.5650
16839SOL    HW162241   5.645   4.306   1.530 -1.2448 -1.5928 -0.2502
16839SOL    HW262242   5.714   4.293   1.664  1.1184  2.3201 -0.9066
16840SOL     OW62243   4.099   8.626   2.135 -0.6328 -0.4794 -0.0452
16840SOL    HW162244   4.110   8.531   2.128 -1.5721 -0.6423  0.5652
16840SOL    HW262245   4.096   8.657   2.045 -0.1946 -1.0147 -0.2468
16841SOL     OW62246   1.463   6.759   3.456  0.0311 -0.2477  0.0618
16841SOL    HW162247   1.454   6.851   3.432 -2.1760 -0.7882 -1.4373
16841SOL    HW262248   1.412   6.750   3.536  3.7605  0.5997  2.8385
16842SOL     OW62249   6.212   8.321   1.285  0.0152  0.2336 -0.7138
16842SOL    HW162250   6.210   8.416   1.283 -0.6987  0.3038  0.9522
16842SOL    HW262251   6.304   8.299   1.299 -0.1545  0.8829  2.0848
16843SOL     OW62252   2.867   1.314   9.408  0.3063 -0.6169 -0.8600
16843SOL    HW162253   2.796   1.252   9.391 -0.3989 -0.3073  0.7803
16843SOL    HW262254   2.938   1.260   9.441 -0.2862 -0.6032  0.5083
16844SOL     OW62255   6.357   5.405   5.810 -0.3780 -0.0315  0.1178
16844SOL    HW162256   6.306   5.369   5.738 -0.3940 -0.6521  0.4291
16844SOL    HW262257   6.442   5.360   5.804 -0.4775 -0.2988  0.6503
16845SOL     OW62258   2.893   3.583   7.117  0.2482 -0.1552 -0.0038
16845SOL    HW162259   2.916   3.675   7.128 -1.1031  0.1679  0.2794
16845SOL    HW262260   2.848   3.580   7.032  1.1294 -0.7399 -0.4704
16846SOL     OW62261   2.688   2.096   2.597  0.4615 -0.1958  0.2221
16846SOL    HW162262   2.702   2.130   2.509 -1.0877 -0.7703 -0.2831
16846SOL    HW262263   2.773   2.105   2.640  0.8521  1.5118 -0.8225
16847SOL     OW62264   1.867   4.201   5.083  0.0744 -0.1521  0.7343
16847SOL    HW162265   1.900   4.197   5.172 -0.6141  0.4797  1.0326
16847SOL    HW262266   1.795   4.139   5.080  0.2731 -0.3766  0.5342
16848SOL     OW62267   0.367   3.859   4.927  0.0147  0.2527 -0.0613
16848SOL    HW162268   0.398   3.790   4.869 -0.1527 -1.6323  1.9629
16848SOL    HW262269   0.446   3.891   4.971 -0.1269  0.0442  0.3477
16849SOL     OW62270   0.703   8.750   7.475  0.0345 -0.5286  0.3806
16849SOL    HW162271   0.610   8.734   7.460  0.1833 -0.7795 -0.2911
16849SOL    HW262272   0.726   8.817   7.411  0.8547 -2.1539 -1.1113
16850SOL     OW62273   6.280   2.713   4.348 -0.6195 -0.3450  0.9679
16850SOL    HW162274   6.200   2.686   4.393 -0.9834  0.0255  0.5578
16850SOL    HW262275   6.250   2.737   4.260  0.1921 -1.8338  0.2649
16851SOL     OW62276   7.695   7.025   4.868 -0.3398 -0.5375 -0.1444
16851SOL    HW162277   7.730   7.113   4.860 -4.1105  1.0128 -2.2651
16851SOL    HW262278   7.711   6.985   4.782 -0.5835 -1.1008  0.0696
16852SOL     OW62279   2.957   0.281  10.433 -0.2322  0.6524 -0.1268
16852SOL    HW162280   2.990   0.274  10.523  3.4108  1.7522 -1.2231
16852SOL    HW262281   3.008   0.217  10.383 -1.4949  0.7462 -1.6225
16853SOL     OW62282   6.335   2.143   2.755 -0.4364  0.3967 -0.5426
16853SOL    HW162283   6.428   2.162   2.771 -0.1877  0.1190 -1.5879
16853SOL    HW262284   6.288   2.211   2.803  0.2840  0.1035  0.6176
16854SOL     OW62285   2.572   2.007  10.285 -0.5062  0.3170  1.0161
16854SOL    HW162286   2.522   2.070  10.233 -1.9348 -1.3352  0.2964
16854SOL    HW262287   2.518   1.990  10.362 -0.2508 -0.2081  1.0860
16855SOL     OW62288   3.099   6.053   1.623 -0.1314 -0.2408  0.1650
16855SOL    HW162289   3.052   6.090   1.548  2.2123  1.9725 -0.3548
16855SOL    HW262290   3.074   6.109   1.697  1.7835  1.1842 -0.1852
16856SOL     OW62291   2.519   0.157   3.917  0.1892  0.5598 -0.4329
16856SOL    HW162292   2.431   0.187   3.938  0.1229 -0.3086  0.6441
16856SOL    HW262293   2.507   0.080   3.862  0.2230 -0.2985  0.7302
16857SOL     OW62294  10.020   5.023   9.563 -0.3629 -0.0677 -0.1873
16857SOL    HW162295  10.022   5.030   9.467  1.2448  0.2271 -0.1526
16857SOL    HW262296  10.087   4.958   9.583  1.5369  2.1101  0.8997
16858SOL     OW62297  10.131   0.917   8.379 -0.0265  0.0516 -0.2200
16858SOL    HW162298  10.128   0.909   8.284  0.3355 -2.2142 -0.0918
16858SOL    HW262299  10.224   0.923   8.401 -0.1226  0.9009 -0.0201
16859SOL     OW62300   5.399   5.461   1.504  0.1901  0.0674 -0.2139
16859SOL    HW162301   5.412   5.467   1.599 -0.5115 -1.4516  0.0051
16859SOL    HW262302   5.441   5.378   1.480  0.2221  0.3665 -1.2110
16860SOL     OW62303   3.216   8.294  11.585 -0.4832  0.6396  0.3081
16860SOL    HW162304   3.274   8.267  11.656 -1.5378 -0.4964  0.7601
16860SOL    HW262305   3.267   8.275  11.505  0.8820  2.3437  0.7077
16861SOL     OW62306  10.752   8.030   2.195  0.3838  0.5919  0.1460
16861SOL    HW162307  10.790   7.978   2.266 -2.0287  0.0504  1.1609
16861SOL    HW262308  10.716   8.108   2.239  0.3783  1.1098 -0.7548
16862SOL     OW62309   7.937   0.556  11.373 -0.4295 -0.8854  0.9755
16862SOL    HW162310   7.989   0.634  11.390 -1.3630 -0.2864  1.1778
16862SOL    HW262311   7.910   0.526  11.459 -3.2304  0.8093  0.8363
16863SOL     OW62312  10.574  11.885  10.534  0.1161  0.0379  0.0267
16863SOL    HW162313  10.569  11.941  10.611 -1.2573  0.3912 -0.2937
16863SOL    HW262314  10.634  11.931  10.475 -0.4892  0.8645  0.0317
16864SOL     OW62315   9.883   4.503   5.207 -0.3711 -0.3415  0.3414
16864SOL    HW162316   9.831   4.423   5.211 -1.3172  0.0970 -2.1075
16864SOL    HW262317   9.820   4.573   5.191  0.4065  1.0315  2.6561
16865SOL     OW62318   0.029   4.014   9.844 -0.0300 -0.2328 -0.1785
16865SOL    HW162319   0.106   3.984   9.795 -0.3454 -0.5399 -0.4922
16865SOL    HW262320   0.022   4.107   9.822 -1.6482 -0.8490 -2.8151
16866SOL     OW62321   2.523   6.984   3.691  0.0673 -0.1508  0.4469
16866SOL    HW162322   2.592   6.919   3.704  1.1837  1.0304  0.5569
16866SOL    HW262323   2.502   7.014   3.780  0.4047  0.4998  0.3069
16867SOL     OW62324   9.654   4.249  11.589  0.5217 -0.8300 -0.5442
16867SOL    HW162325   9.728   4.247  11.649  1.5583 -0.0082 -1.7464
16867SOL    HW262326   9.664   4.170  11.535 -0.1019 -1.2791 -0.0272
16868SOL     OW62327   4.844   0.175  10.899 -0.2400 -0.0309  0.1942
16868SOL    HW162328   4.822   0.161  10.807 -0.3381  2.8557 -0.3102
16868SOL    HW262329   4.783   0.119  10.947 -0.9557 -0.7339 -1.4535
16869SOL     OW62330   9.912   6.640   3.132  0.0226  0.4981 -0.2796
16869SOL    HW162331   9.992   6.664   3.179 -0.0123 -1.1721  0.7090
16869SOL    HW262332   9.937   6.563   3.081 -0.8410  0.2395 -0.3221
16870SOL     OW62333   5.860   0.509  10.998  0.6086  0.1849 -0.0609
16870SOL    HW162334   5.797   0.527  10.929  1.1923 -2.1905 -1.3199
16870SOL    HW262335   5.832   0.425  11.035  1.3856  0.5019  1.3180
16871SOL     OW62336  10.681  11.765   6.348  0.0151 -0.4129  0.0571
16871SOL    HW162337  10.636  11.722   6.421  0.7612 -1.0482  0.1597
16871SOL    HW262338  10.749  11.702   6.322 -0.4589 -0.3452 -1.4123
16872SOL     OW62339   9.614   7.344   8.655  0.0885  0.0688  0.1061
16872SOL    HW162340   9.650   7.354   8.567  0.0964 -0.0126  0.1006
16872SOL    HW262341   9.520   7.339   8.642  0.0541  0.5298  0.1408
16873SOL     OW62342   3.699   9.893   3.708 -0.3078  0.0479 -0.1549
16873SOL    HW162343   3.658   9.908   3.623 -0.3611 -0.8750 -0.2958
16873SOL    HW262344   3.773   9.835   3.689 -0.1164  0.1097  0.3827
16874SOL     OW62345  11.709   4.470   4.807 -0.6200 -0.8543  0.2234
16874SOL    HW162346  11.792   4.516   4.821 -0.2281 -1.4033 -0.2410
16874SOL    HW262347  11.716   4.392   4.861 -1.2745 -0.3985  0.9906
16875SOL     OW62348   3.287   3.736   8.401  0.1867  0.1836  0.0601
16875SOL    HW162349   3.209   3.685   8.377 -1.0503  2.3768 -0.8453
16875SOL    HW262350   3.357   3.700   8.345  0.4423 -3.0771  2.1712
16876SOL     OW62351   2.319   0.307   3.309 -0.1973  0.0118  0.5291
16876SOL    HW162352   2.327   0.400   3.332 -0.1682 -0.1652  1.2633
16876SOL    HW262353   2.372   0.262   3.374 -1.1481 -0.6039  0.8998
16877SOL     OW62354   4.645  10.676   9.417  0.1773 -0.0527  0.1912
16877SOL    HW162355   4.727  10.626   9.415  0.3940  0.2916  0.2466
16877SOL    HW262356   4.665  10.755   9.366 -0.3614 -0.3275 -0.4609
16878SOL     OW62357   5.579   6.626   6.272  0.0924  0.0934  0.1725
16878SOL    HW162358   5.635   6.651   6.199 -0.2516  1.7180  0.4265
16878SOL    HW262359   5.490   6.636   6.239 -0.0779  1.5329  0.9987
16879SOL     OW62360  10.476   2.063   6.028  0.1135 -0.5605  0.0582
16879SOL    HW162361  10.485   2.002   6.100  0.2664  1.2558  1.6463
16879SOL    HW262362  10.385   2.091   6.031  0.3469  0.2156  0.1484
16880SOL     OW62363   2.617   1.025   0.833 -0.0691 -0.1243  0.0547
16880SOL    HW162364   2.679   0.960   0.800 -0.4495 -0.6192  0.2842
16880SOL    HW262365   2.655   1.055   0.915 -0.9700 -1.7595  1.1276
16881SOL     OW62366   4.745   5.202   9.972 -0.0927 -0.0888 -0.4179
16881SOL    HW162367   4.727   5.274   9.912  1.1373 -0.9150 -1.8536
16881SOL    HW262368   4.665   5.149   9.971 -0.1658  0.0179 -1.2099
16882SOL     OW62369   5.015   1.852   1.760  0.2672 -0.1867  0.5680
16882SOL    HW162370   5.057   1.778   1.717  1.5731  1.3138 -0.8750
16882SOL    HW262371   4.932   1.863   1.713  0.9670  0.4597 -0.5417
16883SOL     OW62372   2.967   7.803  10.606  0.4443 -0.2567 -0.0088
16883SOL    HW162373   2.987   7.794  10.699  1.2036  0.6628 -0.0687
16883SOL    HW262374   2.951   7.897  10.594 -1.7489 -0.6214 -0.4044
16884SOL     OW62375   1.859  10.952   2.600 -0.3171  0.0745  0.0899
16884SOL    HW162376   1.842  11.039   2.636 -0.9022 -0.0253  0.0718
16884SOL    HW262377   1.846  10.892   2.674 -0.2470 -0.0245  0.0230
16885SOL     OW62378   0.225   1.815   3.514  0.0589  0.0265 -0.1440
16885SOL    HW162379   0.206   1.907   3.499  0.5938  0.1040 -0.3591
16885SOL    HW262380   0.224   1.775   3.427 -0.5455 -0.2454 -0.0160
16886SOL     OW62381   8.097   1.540   3.178 -0.5080  0.2664  0.1157
16886SOL    HW162382   8.042   1.582   3.245 -1.9595 -2.7264  0.9938
16886SOL    HW262383   8.185   1.542   3.214 -1.2392 -1.1659  2.2093
16887SOL     OW62384   2.958   4.936   5.996 -0.2536 -0.0225 -0.3324
16887SOL    HW162385   2.925   4.860   5.948 -0.4527  0.2904 -0.6991
16887SOL    HW262386   2.980   5.000   5.928  1.1310 -0.2169 -0.1152
16888SOL     OW62387   6.614   8.377   6.561  0.5066  0.5376 -0.3163
16888SOL    HW162388   6.672   8.383   6.486  0.6044  1.2185 -0.1895
16888SOL    HW262389   6.577   8.289   6.556 -0.6078  1.0669 -1.9800
16889SOL     OW62390   1.846   6.007  11.578  0.4339  0.3969 -0.2926
16889SOL    HW162391   1.887   5.932  11.621  0.3861  0.0011 -0.9083
16889SOL    HW262392   1.753   6.000  11.600  0.4968  0.5273  0.0124
16890SOL     OW62393   7.312   3.774  11.671 -0.0349  0.4540  0.5764
16890SOL    HW162394   7.261   3.804  11.595 -0.5021  0.9008  1.0591
16890SOL    HW262395   7.364   3.850  11.696  0.3396  0.2148  0.5249
16891SOL     OW62396  10.417   3.280   7.333  0.1710  0.1797 -0.0225
16891SOL    HW162397  10.377   3.313   7.252 -0.3948  0.9723  0.5622
16891SOL    HW262398  10.472   3.207   7.305  0.5477  0.8871 -1.2207
16892SOL     OW62399   0.517   4.028   3.320  0.4461  0.3267 -0.6591
16892SOL    HW162400   0.529   3.948   3.371 -0.6596 -1.3685 -2.9231
16892SOL    HW262401   0.604   4.047   3.284  0.2608 -1.3549 -2.1278
16893SOL     OW62402   7.270  10.659   4.614  0.2415 -0.2157  0.3436
16893SOL    HW162403   7.186  10.704   4.615 -0.3091 -1.1987 -0.3024
16893SOL    HW262404   7.322  10.707   4.548 -0.2244 -0.3253 -0.1102
16894SOL     OW62405  10.725   5.581  11.385 -0.6957  0.1447  0.1686
16894SOL    HW162406  10.643   5.622  11.412 -2.6031 -2.4375 -1.2323
16894SOL    HW262407  10.744   5.518  11.453  0.4704  1.0794  0.7394
16895SOL     OW62408   7.938  10.544   6.638 -0.1271  0.3878  0.4547
16895SOL    HW162409   7.954  10.572   6.548  1.8605 -0.0694  0.6177
16895SOL    HW262410   7.881  10.467   6.630 -3.5989  2.7881 -0.1081
16896SOL     OW62411   8.199   1.356  11.125  0.5938 -0.0800  0.6622
16896SOL    HW162412   8.283   1.310  11.113 -0.6725 -2.3324 -0.1094
16896SOL    HW262413   8.168   1.324  11.210  0.1478  0.1367  0.5783
16897SOL     OW62414   4.822   4.462   5.856 -0.3629 -0.1815  0.0485
16897SOL    HW162415   4.745   4.411   5.831 -0.0789 -0.1483 -0.9565
16897SOL    HW262416   4.787   4.534   5.908 -0.8568 -0.9077  0.7303
16898SOL     OW62417  10.265   2.665   7.308 -0.6887 -0.7423 -0.5189
16898SOL    HW162418  10.214   2.585   7.320  1.5249 -1.9525  1.9864
16898SOL    HW262419  10.350   2.634   7.275  0.4529  0.4245  1.1669
16899SOL     OW62420   9.079   7.738   7.818 -0.2372  0.4931 -0.0874
16899SOL    HW162421   9.088   7.744   7.723  1.2789 -0.3261 -0.0229
16899SOL    HW262422   9.124   7.657   7.841  1.3651  1.7832  1.5605
16900SOL     OW62423   1.986   2.809   2.357 -0.4062  0.3528  0.1196
16900SOL    HW162424   1.986   2.887   2.301 -0.2597 -0.2468 -0.7386
16900SOL    HW262425   1.900   2.770   2.342 -0.3111  0.1139  0.2050
16901SOL     OW62426   1.717   6.803   0.503  0.0609  0.4417  0.6260
16901SOL    HW162427   1.715   6.725   0.447 -0.9253  0.5486  0.4796
16901SOL    HW262428   1.726   6.768   0.592  2.0120  0.2902  0.4009
16902SOL     OW62429   4.024   7.799   7.690  0.0137  0.3423  0.4137
16902SOL    HW162430   4.097   7.846   7.650  0.8010  0.6842  2.1746
16902SOL    HW262431   4.041   7.802   7.784 -0.9950 -1.6987  0.7241
16903SOL     OW62432   7.090   4.151   2.950  0.2760 -0.3558  0.0481
16903SOL    HW162433   7.161   4.194   2.997 -0.0348  1.6830 -1.2543
16903SOL    HW262434   7.042   4.222   2.909 -2.6168 -1.6492  0.9436
16904SOL     OW62435   0.352  11.024   4.953  0.1651  0.0982  0.0939
16904SOL    HW162436   0.303  11.104   4.937 -0.7195 -0.7558 -1.8203
16904SOL    HW262437   0.371  10.989   4.866  1.8669 -1.0062  0.8359
16905SOL     OW62438   1.329   5.218   0.973  0.4077  0.0361  0.1334
16905SOL    HW162439   1.418   5.213   0.938  0.3843  1.0649 -0.1022
16905SOL    HW262440   1.323   5.143   1.033  1.8426  0.6436  1.1017
16906SOL     OW62441   3.793   2.607   2.087  0.2145  0.6026  0.0557
16906SOL    HW162442   3.784   2.513   2.070 -1.5383  0.5292  1.1081
16906SOL    HW262443   3.795   2.647   2.000  1.1306 -0.4135 -0.4031
16907SOL     OW62444   9.172   0.139   3.060  0.2834 -0.5328 -0.4266
16907SOL    HW162445   9.222   0.195   3.001  0.8599  0.3283  0.8290
16907SOL    HW262446   9.237   0.102   3.120 -0.5140  0.6676  1.2861
16908SOL     OW62447   1.640   0.914   1.658 -0.3192 -0.1969  0.2892
16908SOL    HW162448   1.612   0.976   1.590  2.1689  1.2142  0.4596
16908SOL    HW262449   1.594   0.943   1.737 -0.6330  0.2533 -0.0542
16909SOL     OW62450   6.847   9.794   0.715 -0.1507  0.0555 -0.2325
16909SOL    HW162451   6.838   9.747   0.632 -0.6585 -1.8702  0.8461
16909SOL    HW262452   6.941   9.811   0.723 -0.1519  0.6636 -1.3921
16910SOL     OW62453   3.003   4.091   0.970 -0.5374 -0.0240 -0.1421
16910SOL    HW162454   3.031   4.180   0.952  1.3556 -0.5866 -0.2344
16910SOL    HW262455   2.909   4.097   0.985 -0.4775  1.9335 -0.3793
16911SOL     OW62456  11.800  11.620   8.994 -0.7734  1.1503  0.0044
16911SOL    HW162457  11.830  11.638   9.083 -0.7299 -1.4196  0.6014
16911SOL    HW262458  11.808  11.704   8.948  3.5344  1.6333  1.1631
16912SOL     OW62459   9.808   9.999   3.980  0.0084  0.3049  0.2051
16912SOL    HW162460   9.886  10.037   4.021 -0.1525 -0.2301  1.0156
16912SOL    HW262461   9.840   9.922   3.933 -0.0121  0.1428  0.4548
16913SOL     OW62462   9.591   2.142   6.418 -0.5941  0.2259 -0.2748
16913SOL    HW162463   9.577   2.173   6.328 -0.9342  0.3326 -0.1886
16913SOL    HW262464   9.653   2.070   6.409 -1.4845 -0.5033 -0.7258
16914SOL     OW62465   0.908   1.939   5.279 -0.3992  0.2312 -0.5037
16914SOL    HW162466   0.974   1.975   5.220 -0.2635  1.2657  0.2676
16914SOL    HW262467   0.837   2.003   5.278 -0.2994  0.3793  0.6244
16915SOL     OW62468   5.039   7.571   0.815  0.2607  0.6696 -0.4713
16915SOL    HW162469   4.971   7.638   0.807  1.6267  2.1371 -0.1994
16915SOL    HW262470   5.009   7.516   0.888 -0.6548  1.2629 -0.3766
16916SOL     OW62471   8.521   6.572   1.366  0.0473 -0.3534 -0.5993
16916SOL    HW162472   8.530   6.593   1.273 -0.9528  1.8036 -0.2864
16916SOL    HW262473   8.569   6.642   1.411 -1.5031  0.0518  0.5324
16917SOL     OW62474   4.673  11.186   0.786  0.2845  0.6676 -0.1099
16917SOL    HW162475   4.762  11.205   0.816  1.1430  1.4312 -2.8328
16917SOL    HW262476   4.658  11.247   0.714 -1.6069 -0.8923 -1.1634
16918SOL     OW62477   2.863   0.632   5.477 -0.4167  0.1022  0.0614
16918SOL    HW162478   2.884   0.607   5.567  1.0586 -0.1914 -0.3395
16918SOL    HW262479   2.845   0.726   5.482 -0.9290 -0.0199  0.7396
16919SOL     OW62480   3.388  11.357   4.706  0.3139  0.2419 -0.1156
16919SOL    HW162481   3.452  11.421   4.737 -0.0431  0.4549  0.1946
16919SOL    HW262482   3.388  11.367   4.610  1.9234 -0.8979 -0.2784
16920SOL     OW62483   1.852   9.180  10.346 -0.1249 -0.0508  0.1890
16920SOL    HW162484   1.896   9.127  10.279 -0.7160 -0.8532  0.4248
16920SOL    HW262485   1.880   9.270  10.328  1.5618 -0.5285  0.2951
16921SOL     OW62486   1.164   5.323   0.105 -0.1360  0.1373 -0.1980
16921SOL    HW162487   1.075   5.302   0.076  0.2926 -2.4887  0.0905
16921SOL    HW262488   1.197   5.241   0.142  1.7892  1.5201  1.3779
16922SOL     OW62489   1.970   5.826   6.894  0.2294 -0.3261  0.2981
16922SOL    HW162490   2.061   5.799   6.878  0.9054  0.6729  2.1527
16922SOL    HW262491   1.969   5.919   6.874  0.3822  0.3022  2.8161
16923SOL     OW62492   4.617   9.053  10.248  0.2796 -0.3012 -0.3429
16923SOL    HW162493   4.571   9.055  10.164 -0.9760  1.0421  0.3145
16923SOL    HW262494   4.559   9.004  10.306 -0.4559  1.4951  0.5263
16924SOL     OW62495   8.127  11.592   3.755  0.7623  0.1812 -0.1635
16924SOL    HW162496   8.200  11.615   3.812  0.3548  2.4607 -0.4362
16924SOL    HW262497   8.075  11.673   3.749 -0.6065 -0.7416 -1.6836
16925SOL     OW62498   9.913   0.533   7.122  0.1842  0.0528 -0.2075
16925SOL    HW162499   9.821   0.544   7.101  0.6893  0.5276 -2.4059
16925SOL    HW262500   9.946   0.622   7.132  0.6608 -0.0536 -0.7514
16926SOL     OW62501   9.264   3.899  10.675 -0.0681  1.0884  0.4696
16926SOL    HW162502   9.183   3.940  10.706 -1.0890  0.0412 -0.6793
16926SOL    HW262503   9.270   3.925  10.583  1.7608  2.3995  0.8977
16927SOL     OW62504   5.928   8.867   0.408  0.1443 -0.2524  0.4210
16927SOL    HW162505   5.926   8.780   0.368  0.3197 -0.8602  1.6737
16927SOL    HW262506   6.018   8.877   0.439  0.3658  0.7707 -0.5157
16928SOL     OW62507   6.625   1.954   5.424 -0.1583  0.3242 -0.4801
16928SOL    HW162508   6.659   1.864   5.421 -2.8731 -0.7781 -2.7893
16928SOL    HW262509   6.659   1.994   5.345 -1.7659  0.1292 -1.3034
16929SOL     OW62510   6.492   5.888  11.653 -0.3109 -0.6715 -0.0569
16929SOL    HW162511   6.572   5.934  11.679 -0.9795  0.3544  0.2616
16929SOL    HW262512   6.427   5.913  11.719 -0.4453 -2.9744  0.7702
16930SOL     OW62513   8.626   0.561  11.075 -1.0079 -0.1939 -0.5191
16930SOL    HW162514   8.698   0.588  11.133  0.0115 -1.6420 -1.0286
16930SOL    HW262515   8.561   0.630  11.083  0.8527  1.7149 -0.7871
16931SOL     OW62516   1.963  11.844   5.440 -0.0813  0.1668  0.2447
16931SOL    HW162517   2.026  11.837   5.512  0.0761  0.3531  0.1274
16931SOL    HW262518   1.916  11.761   5.441  0.5576 -0.2066 -0.0339
16932SOL     OW62519   5.471   5.179   1.553  0.4140 -0.5957  0.2079
16932SOL    HW162520   5.457   5.139   1.640  2.8296 -2.0364  0.0248
16932SOL    HW262521   5.473   5.105   1.493 -1.4010  0.4008 -1.1768
16933SOL     OW62522   1.998   2.517   2.836  0.2698 -0.4069  0.2302
16933SOL    HW162523   2.061   2.527   2.765 -0.2938  0.8852 -0.1163
16933SOL    HW262524   2.046   2.541   2.915  0.7614 -1.3892  0.2466
16934SOL     OW62525   9.601   4.308   7.948  0.2927 -0.0542  0.0486
16934SOL    HW162526   9.507   4.293   7.941  0.4778 -0.6698 -1.5025
16934SOL    HW262527   9.618   4.310   8.042 -1.2283 -0.1504  0.3532
16935SOL     OW62528   1.823   3.445   3.494 -0.1734  0.2523 -0.1292
16935SOL    HW162529   1.837   3.382   3.564  1.6373  0.0937 -0.5754
16935SOL    HW262530   1.863   3.526   3.526 -2.1075  1.1089  0.2724
16936SOL     OW62531   0.542   1.665   0.887  0.0654  0.2185  0.4783
16936SOL    HW162532   0.602   1.690   0.957 -0.6246  3.0405  0.1774
16936SOL    HW262533   0.533   1.743   0.834 -0.7376 -1.3429 -1.8523
16937SOL     OW62534   1.485  11.482   2.894  0.4418 -0.7332  0.7328
16937SOL    HW162535   1.524  11.481   2.981  1.1544  0.6090  0.4655
16937SOL    HW262536   1.439  11.566   2.889 -0.3547 -1.1893  0.1260
16938SOL     OW62537   1.144   2.450   1.557 -0.4622 -0.2648 -0.1069
16938SOL    HW162538   1.055   2.434   1.589 -0.1115 -1.9595  0.1351
16938SOL    HW262539   1.197   2.458   1.636 -0.4451  1.1299 -0.2460
16939SOL     OW62540   4.073   0.373   3.210 -0.0343  0.1437  0.0677
16939SOL    HW162541   4.164   0.347   3.193 -0.0058 -0.7435  1.3979
16939SOL    HW262542   4.032   0.375   3.124  1.2642  0.6552 -0.5710
16940SOL     OW62543   8.568   3.904   7.480 -0.1534  0.5930  0.1332
16940SOL    HW162544   8.655   3.874   7.506 -0.5772 -0.7157  0.0940
16940SOL    HW262545   8.535   3.950   7.557 -0.1227 -0.4425  0.7806
16941SOL     OW62546  11.285   4.751   1.753  0.0264  1.2368  0.9974
16941SOL    HW162547  11.275   4.783   1.663  0.3323  0.2369  0.6053
16941SOL    HW262548  11.324   4.825   1.800 -1.5613  2.3336  0.6823
16942SOL     OW62549   5.313   3.004   9.723  0.2917 -0.3477 -0.1525
16942SOL    HW162550   5.273   2.936   9.777 -0.2577  1.2932  1.6430
16942SOL    HW262551   5.256   3.012   9.647  0.3269 -1.7930 -0.3626
16943SOL     OW62552   3.175  10.810   3.800 -0.0405  0.4859  0.7539
16943SOL    HW162553   3.103  10.747   3.801  0.2449 -0.0299 -2.4136
16943SOL    HW262554   3.251  10.760   3.831 -0.0501 -0.4430 -0.6564
16944SOL     OW62555   5.197   0.943   8.910  0.0496 -0.2873  0.1470
16944SOL    HW162556   5.181   1.034   8.934  2.4886  0.9238 -2.3524
16944SOL    HW262557   5.268   0.946   8.846  0.1911 -3.9654 -0.1100
16945SOL     OW62558   6.405   4.150   1.426 -0.6213  0.1056  0.5164
16945SOL    HW162559   6.367   4.070   1.390 -0.0412 -1.6086  3.4528
16945SOL    HW262560   6.446   4.193   1.350 -1.1620 -2.2210 -1.2032
16946SOL     OW62561  10.845  11.702   8.862 -0.8470 -0.1769 -0.0295
16946SOL    HW162562  10.764  11.729   8.904  0.2576 -0.6638  2.6256
16946SOL    HW262563  10.828  11.612   8.832 -1.8680  0.4197 -1.3159
16947SOL     OW62564   8.621  11.318   0.724 -0.1050  0.1015 -0.6120
16947SOL    HW162565   8.535  11.351   0.700 -0.2646  0.9510  0.9952
16947SOL    HW262566   8.614  11.223   0.715 -1.1027  0.1846 -0.8141
16948SOL     OW62567   3.988   9.761   4.142  0.4362 -0.8640 -0.2587
16948SOL    HW162568   3.926   9.745   4.213  0.7027  1.3416  0.5691
16948SOL    HW262569   4.073   9.768   4.185  0.6673  0.0371 -0.8151
16949SOL     OW62570   0.999   3.985   8.114 -0.0435 -0.0493 -0.5873
16949SOL    HW162571   1.051   4.052   8.157 -1.7114  1.4332 -0.7763
16949SOL    HW262572   0.987   3.917   8.180 -0.8704  1.2655  0.6622
16950SOL     OW62573   1.251   1.248   2.836  0.0752  0.1413 -0.4282
16950SOL    HW162574   1.247   1.266   2.742 -0.3303  0.6716 -0.3143
16950SOL    HW262575   1.176   1.295   2.872  0.8907  0.9013  0.3130
16951SOL     OW62576   3.932   2.012   6.743 -0.1413 -0.4590  0.6096
16951SOL    HW162577   3.860   1.949   6.749 -1.4000  0.7676 -0.8015
16951SOL    HW262578   3.935   2.053   6.830 -0.1529 -1.5355  1.1303
16952SOL     OW62579   4.335   0.963   3.112 -0.5137  0.8765  0.2584
16952SOL    HW162580   4.298   0.940   3.027 -0.1620 -0.1671  0.3670
16952SOL    HW262581   4.338   0.880   3.160 -0.6952  1.4453  1.2900
16953SOL     OW62582   7.416   3.188   5.108  0.0031  0.2756 -0.5522
16953SOL    HW162583   7.477   3.236   5.053 -1.0082  3.1205  0.6098
16953SOL    HW262584   7.332   3.191   5.061  0.0708 -1.1292 -0.8229
16954SOL     OW62585  11.285   4.162   7.080  0.3273  0.3547 -0.6938
16954SOL    HW162586  11.221   4.142   7.149  0.9913  0.4229 -0.0435
16954SOL    HW262587  11.262   4.249   7.050 -0.4318  0.0226 -1.0867
16955SOL     OW62588   6.160   9.803   6.856 -0.3327  0.1049 -0.3575
16955SOL    HW162589   6.184   9.796   6.948  1.7556 -0.0408 -0.8700
16955SOL    HW262590   6.065   9.797   6.856 -0.3204 -1.0788  1.6753
16956SOL     OW62591   5.682   0.194   9.073 -0.0763  0.7038  0.5107
16956SOL    HW162592   5.716   0.191   8.984  0.1777  0.7777  0.6029
16956SOL    HW262593   5.669   0.287   9.091 -2.2279  0.6108 -0.2240
16957SOL     OW62594   0.753   0.485   8.558  0.4880 -0.3176  0.3038
16957SOL    HW162595   0.728   0.550   8.492  1.3745 -0.8697 -0.6098
16957SOL    HW262596   0.846   0.503   8.575  0.0524  0.4178  2.1323
16958SOL     OW62597   4.202  11.310   1.372 -1.1447  0.3891  0.5675
16958SOL    HW162598   4.268  11.322   1.440 -2.1329  0.1650  1.5944
16958SOL    HW262599   4.229  11.368   1.302 -1.1414  2.1097  1.9293
16959SOL     OW62600   5.504   3.046   5.735  0.4898 -0.1749 -0.1589
16959SOL    HW162601   5.590   3.086   5.739  0.7534 -0.6847 -0.5833
16959SOL    HW262602   5.458   3.095   5.666  0.8804 -0.7280 -0.8169
16960SOL     OW62603   5.054   6.408  11.208 -0.1341  0.4774 -0.0299
16960SOL    HW162604   5.111   6.366  11.272  0.6840  0.2070 -0.9006
16960SOL    HW262605   5.031   6.492  11.247  0.2715  0.2743  0.6592
16961SOL     OW62606   3.566   8.160   9.227  0.1281  0.0427  0.4126
16961SOL    HW162607   3.593   8.247   9.258 -1.2820  0.6021  0.1189
16961SOL    HW262608   3.648   8.117   9.203  1.0669  0.4612  2.6272
16962SOL     OW62609  11.598   9.142   7.759  0.2702 -0.0610 -0.3570
16962SOL    HW162610  11.645   9.077   7.706  0.1617  0.7391 -1.4687
16962SOL    HW262611  11.526   9.172   7.703 -0.0865  0.5345  0.3934
16963SOL     OW62612   0.449   5.678   4.275 -0.2512 -0.1927  0.1383
16963SOL    HW162613   0.431   5.627   4.197 -1.7355 -0.9907  0.9519
16963SOL    HW262614   0.484   5.615   4.338 -3.0766 -0.5727  1.5090
16964SOL     OW62615   3.672   0.203   7.075  0.2909 -0.3236  0.2212
16964SOL    HW162616   3.670   0.199   7.171 -0.9106  2.4350  0.4057
16964SOL    HW262617   3.742   0.266   7.055 -0.2650  0.0395 -0.6445
16965SOL     OW62618   7.113   2.232  11.487 -0.1656  0.5817 -0.2275
16965SOL    HW162619   7.134   2.202  11.399  0.8133 -0.4277  0.3367
16965SOL    HW262620   7.166   2.178  11.545 -1.3100  0.7451  1.0357
16966SOL     OW62621   5.259  10.735   9.584  0.3921 -0.2965  0.0167
16966SOL    HW162622   5.239  10.776   9.500  0.9178 -0.0293  0.0208
16966SOL    HW262623   5.272  10.642   9.563 -2.3501 -0.8203  0.2267
16967SOL     OW62624   0.947   3.508   3.339 -0.3339  0.3696  1.0274
16967SOL    HW162625   0.890   3.571   3.294 -0.0441  0.8924  1.3818
16967SOL    HW262626   0.937   3.528   3.432 -1.0695 -0.8318  1.2346
16968SOL     OW62627   3.105  10.002   0.298 -0.7728  0.3054  0.4408
16968SOL    HW162628   3.152   9.936   0.349  0.2567  2.0157  1.8332
16968SOL    HW262629   3.015   9.996   0.328 -0.5890 -0.1582  0.9175
16969SOL     OW62630   8.746   8.527  11.359 -0.2880  0.2719  0.0302
16969SOL    HW162631   8.801   8.473  11.302 -0.7221  0.1254 -0.2500
16969SOL    HW262632   8.725   8.604  11.307 -0.7931  0.0793 -0.0593
16970SOL     OW62633   0.031   2.303  11.447  0.1810 -0.8239 -0.0876
16970SOL    HW162634   0.100   2.308  11.381 -0.7105  0.6170 -0.9710
16970SOL    HW262635  -0.050   2.308  11.397 -0.5661 -1.7194  0.9881
16971SOL     OW62636   7.877   2.803   5.287  0.1839  0.3218 -0.3098
16971SOL    HW162637   7.838   2.716   5.277  1.4864 -0.4500  0.8361
16971SOL    HW262638   7.967   2.792   5.256  0.5242  1.1141  0.3547
16972SOL     OW62639   5.286   1.167   6.311 -0.3267  0.1575 -0.4311
16972SOL    HW162640   5.208   1.188   6.362 -0.3586  0.0849 -0.4500
16972SOL    HW262641   5.318   1.085   6.349  0.0606  0.4727 -0.0511
16973SOL     OW62642  11.394   5.947   5.052  0.5045 -0.5983 -0.4753
16973SOL    HW162643  11.472   6.002   5.043 -0.9184  1.6469  0.1660
16973SOL    HW262644  11.330   5.985   4.991 -1.2186 -0.1819  1.4858
16974SOL     OW62645   1.996   9.762  11.518  0.2772  0.0708  0.3326
16974SOL    HW162646   2.003   9.735  11.426  0.3764 -1.2744  0.7158
16974SOL    HW262647   2.021   9.854  11.518 -0.1175  0.1952 -1.0511
16975SOL     OW62648   2.980   4.500   0.536 -0.2433 -0.0118  0.2213
16975SOL    HW162649   3.059   4.529   0.583 -0.5856  1.9766 -0.3276
16975SOL    HW262650   2.992   4.533   0.447 -0.1479 -2.7282 -0.8458
16976SOL     OW62651   5.705   5.091  11.355  0.3474 -0.2513  0.2988
16976SOL    HW162652   5.756   5.115  11.278  1.7109 -1.0467  0.9097
16976SOL    HW262653   5.653   5.169  11.375  1.9828  0.9261  0.1510
16977SOL     OW62654   7.436   6.183   3.495  0.3830 -0.2041  0.6553
16977SOL    HW162655   7.388   6.211   3.417  0.7648 -0.7365  0.2171
16977SOL    HW262656   7.518   6.232   3.491  0.7393 -0.8223  0.2855
16978SOL     OW62657   8.574   8.203   5.191 -0.5685  0.1940  0.8330
16978SOL    HW162658   8.479   8.189   5.193 -0.2430 -2.9481 -0.5301
16978SOL    HW262659   8.608   8.149   5.261  0.2933  0.7734  0.8718
16979SOL     OW62660   0.257  10.016   5.929  0.2969 -0.1975 -0.1054
16979SOL    HW162661   0.199  10.086   5.898  0.0507 -0.5478 -0.4606
16979SOL    HW262662   0.288   9.974   5.849 -0.1466 -0.9603  0.1117
16980SOL     OW62663   1.188  10.199   6.889 -0.2732 -0.3860 -0.0121
16980SOL    HW162664   1.178  10.254   6.812  2.8974 -0.5311 -0.6492
16980SOL    HW262665   1.141  10.119   6.868 -0.2872 -0.0394 -1.3808
16981SOL     OW62666   6.566   4.963   4.051  0.0566 -0.3390 -0.3503
16981SOL    HW162667   6.603   5.002   4.130  1.4768  1.2921 -1.7659
16981SOL    HW262668   6.570   5.032   3.985 -0.8645 -1.7284 -1.9451
16982SOL     OW62669   4.739  10.443   1.300  0.0396 -0.0627  0.0834
16982SOL    HW162670   4.739  10.349   1.279 -1.7148  0.2408 -1.4909
16982SOL    HW262671   4.769  10.486   1.220  1.5731  0.7430  1.0297
16983SOL     OW62672   5.631   7.457  10.289  0.0817  0.1658 -0.8047
16983SOL    HW162673   5.615   7.440  10.382  1.6182 -1.3690 -0.7797
16983SOL    HW262674   5.726   7.464  10.282 -0.1074  2.4715 -1.9453
16984SOL     OW62675   2.964   3.847   7.142 -0.2250 -0.8444 -0.1942
16984SOL    HW162676   2.892   3.904   7.117 -0.5609 -0.1732  2.0883
16984SOL    HW262677   3.043   3.897   7.122 -0.4431 -0.7363 -0.7885
16985SOL     OW62678  11.691   8.679  10.506 -0.2069 -0.2261  0.5304
16985SOL    HW162679  11.782   8.651  10.509 -0.1503 -0.0388  0.5284
16985SOL    HW262680  11.667   8.674  10.414 -0.2351 -0.3867  0.5449
16986SOL     OW62681   8.863   3.614   5.414 -0.1874 -0.0289 -0.3958
16986SOL    HW162682   8.876   3.530   5.458 -1.0358 -0.1487 -0.3537
16986SOL    HW262683   8.951   3.644   5.393  0.1031 -1.2873 -1.0726
16987SOL     OW62684   1.693   0.159   7.847  0.4303  0.4845  0.4547
16987SOL    HW162685   1.608   0.160   7.892 -0.3768 -1.9835 -0.8026
16987SOL    HW262686   1.683   0.221   7.775 -0.9481 -0.9168 -0.6284
16988SOL     OW62687   8.237   7.758   4.166  0.2778  0.0498 -0.4478
16988SOL    HW162688   8.284   7.690   4.117  0.3563  0.1322 -0.4890
16988SOL    HW262689   8.167   7.786   4.108 -0.0431 -0.3230 -0.2459
16989SOL     OW62690   6.520   8.687   8.951 -0.1438 -0.4459 -0.0164
16989SOL    HW162691   6.458   8.760   8.938 -0.7611 -1.1893 -1.4873
16989SOL    HW262692   6.588   8.724   9.007  0.0033  1.5656 -1.3769
16990SOL     OW62693  11.671   0.023   5.212 -0.4104 -0.0770 -0.4167
16990SOL    HW162694  11.666  -0.066   5.247  0.3434  0.0186 -0.0351
16990SOL    HW262695  11.637   0.078   5.282  1.9120  0.1979  0.5854
16991SOL     OW62696   6.869   1.821   8.206 -0.1974  0.2982  0.1021
16991SOL    HW162697   6.885   1.907   8.168  2.2730 -0.4028 -0.6365
16991SOL    HW262698   6.853   1.838   8.299  1.4038  1.4942  0.2026
16992SOL     OW62699   8.174   8.825   5.243 -0.2312 -0.0414 -0.3951
16992SOL    HW162700   8.098   8.799   5.190  0.1723 -0.3000 -0.8547
16992SOL    HW262701   8.221   8.887   5.187  1.4800 -2.0742 -1.3477
16993SOL     OW62702   3.152   9.214   0.182  0.5605 -0.5032 -0.4590
16993SOL    HW162703   3.201   9.139   0.149  0.8294 -0.4249 -0.2401
16993SOL    HW262704   3.060   9.188   0.173  0.5308  0.2024 -2.9533
16994SOL     OW62705   3.194  11.398   0.629 -0.4777  0.0798  0.2886
16994SOL    HW162706   3.148  11.336   0.573  1.3099 -0.7052 -0.3518
16994SOL    HW262707   3.207  11.475   0.574  2.0255 -0.9987 -0.7537
16995SOL     OW62708   0.250   4.590   5.252 -0.6585 -0.0875 -0.2179
16995SOL    HW162709   0.272   4.560   5.163  1.3774  1.2113 -0.2308
16995SOL    HW262710   0.307   4.666   5.265 -1.4362  0.1655  1.9528
16996SOL     OW62711   9.949   6.617   4.268  0.3424 -0.0524  0.0545
16996SOL    HW162712   9.912   6.652   4.349  1.0864  0.1404  0.3202
16996SOL    HW262713   9.945   6.690   4.206  0.6768  0.1057  0.2155
16997SOL     OW62714  11.715  11.033   9.886  0.6924  0.1396  0.8071
16997SOL    HW162715  11.623  11.008   9.885  0.3979  1.1578  1.0307
16997SOL    HW262716  11.754  10.981   9.816 -0.5559  1.4365 -0.9446
16998SOL     OW62717   5.353   8.569   1.345 -0.1063  0.0176  0.5738
16998SOL    HW162718   5.419   8.500   1.350  0.7880  0.8911  1.0449
16998SOL    HW262719   5.278   8.533   1.392  0.0344 -0.9769  0.0574
16999SOL     OW62720   4.711   4.320   4.484  0.0702  0.2034 -0.0892
16999SOL    HW162721   4.764   4.381   4.432 -1.6972  1.5352 -0.4162
16999SOL    HW262722   4.621   4.341   4.461 -0.6451 -2.0532  0.3778
17000SOL     OW62723   4.441   3.019   4.681 -0.3882  0.1164  0.2817
17000SOL    HW162724   4.534   3.039   4.667  0.0692 -1.4400  0.8926
17000SOL    HW262725   4.433   3.008   4.776 -0.9390 -0.8630  0.1370
17001SOL     OW62726   5.167   9.330   6.774  0.2823  0.2205  0.0407
17001SOL    HW162727   5.141   9.252   6.724  0.8510  1.5645 -2.5069
17001SOL    HW262728   5.263   9.329   6.771  0.2887  1.4490 -0.8219
17002SOL     OW62729   3.999   4.258   3.699 -0.8941 -0.2113 -0.3160
17002SOL    HW162730   3.967   4.198   3.766 -0.1102 -1.7566 -1.2484
17002SOL    HW262731   3.923   4.310   3.674 -0.9474  1.2674  2.5523
17003SOL     OW62732   4.319   9.904  11.389  0.0581  0.2903 -0.0357
17003SOL    HW162733   4.336   9.880  11.298 -0.9781 -0.1275 -0.1311
17003SOL    HW262734   4.366   9.986  11.402  0.2283  0.3384 -0.9429
17004SOL     OW62735   0.875   3.638   0.668  0.1213  0.4705  0.4343
17004SOL    HW162736   0.815   3.712   0.669 -0.5319 -0.0464  0.9946
17004SOL    HW262737   0.823   3.565   0.704  1.0434 -0.0130  0.8167
17005SOL     OW62738   9.598   8.147   9.448  0.1916  0.3894 -0.2949
17005SOL    HW162739   9.646   8.205   9.389 -2.7003  2.6845 -0.6474
17005SOL    HW262740   9.585   8.198   9.527 -0.5338 -0.6396  0.2834
17006SOL     OW62741   5.089   7.155   6.342  0.2295  0.1094  0.2831
17006SOL    HW162742   5.165   7.189   6.389 -1.4328  0.4170  2.9256
17006SOL    HW262743   5.079   7.065   6.375  0.5434 -0.6412 -1.5264
17007SOL     OW62744   2.771   1.664   3.643 -0.1088 -0.0530 -0.1248
17007SOL    HW162745   2.830   1.720   3.694  0.0978  0.7789 -1.2194
17007SOL    HW262746   2.808   1.576   3.650  1.9793  0.6122 -1.6855
17008SOL     OW62747   7.769   6.991   4.608 -0.2982 -0.1075  0.0275
17008SOL    HW162748   7.744   6.933   4.536 -2.7466  0.9348 -0.0714
17008SOL    HW262749   7.795   7.072   4.565  0.8877 -0.3561  0.2497
17009SOL     OW62750  10.464   1.153   2.606 -0.5626  0.3480  0.0146
17009SOL    HW162751  10.414   1.073   2.623 -0.1037  0.2183  0.8049
17009SOL    HW262752  10.406   1.206   2.552 -0.7721 -0.6169 -0.7276
17010SOL     OW62753   6.831   4.328  11.148  0.7065  0.2101  0.1132
17010SOL    HW162754   6.773   4.273  11.200 -2.8630  2.3487 -1.2485
17010SOL    HW262755   6.843   4.280  11.066 -0.1055  0.2303 -0.0224
17011SOL     OW62756   8.773   6.328   4.163  0.0893 -0.5823  0.2568
17011SOL    HW162757   8.761   6.413   4.120  0.8592 -1.9433 -3.0159
17011SOL    HW262758   8.731   6.337   4.248 -1.4565  2.4958 -0.6880
17012SOL     OW62759  10.005   5.373   9.245  0.3729  0.1265  0.0519
17012SOL    HW162760  10.045   5.454   9.275  0.6237 -0.0289  0.1352
17012SOL    HW262761  10.070   5.305   9.263  1.0081  0.1681 -1.9036
17013SOL     OW62762   8.896   2.068   5.938 -0.0520  0.5038  0.0630
17013SOL    HW162763   8.946   2.146   5.962 -0.7395  0.4550  1.7697
17013SOL    HW262764   8.938   2.037   5.858  1.5345  1.4407  0.4808
17014SOL     OW62765  11.168   6.260  10.455  0.3787  0.5827  0.1767
17014SOL    HW162766  11.200   6.351  10.462  1.8494  0.3328 -2.2128
17014SOL    HW262767  11.137   6.253  10.365 -1.4951 -0.8062  0.8820
17015SOL     OW62768   6.389   8.971  11.524 -0.1628 -0.2744 -0.2813
17015SOL    HW162769   6.306   8.989  11.567 -0.4530 -3.4635  0.7755
17015SOL    HW262770   6.414   9.054  11.483 -3.1259  1.1556  0.5533
17016SOL     OW62771   9.502  11.829   7.823 -0.4989 -0.1379  0.4577
17016SOL    HW162772   9.561  11.864   7.756 -2.0115  0.9523 -0.3516
17016SOL    HW262773   9.493  11.736   7.800  1.3730 -0.4868  0.9868
17017SOL     OW62774   7.996  10.910   7.239  0.2922  0.2707  0.2741
17017SOL    HW162775   8.006  10.837   7.299  2.9573  0.3711  0.0705
17017SOL    HW262776   8.016  10.873   7.153  0.8179  1.0263  0.0562
17018SOL     OW62777   9.392   6.107   2.642 -0.1662  0.0908  0.1779
17018SOL    HW162778   9.376   6.201   2.651  1.9674  0.3872  1.7506
17018SOL    HW262779   9.360   6.085   2.555 -0.4416  2.3507 -0.3445
17019SOL     OW62780   2.016   3.605   8.904  0.1102 -0.3363  1.0275
17019SOL    HW162781   2.011   3.656   8.823 -1.0606  0.7167  1.7243
17019SOL    HW262782   1.979   3.520   8.882  1.0633 -0.5470  0.1289
17020SOL     OW62783   2.668   9.146   1.105 -0.0215  0.7986 -0.0071
17020SOL    HW162784   2.625   9.087   1.044 -2.7520  0.5921  1.9383
17020SOL    HW262785   2.634   9.232   1.084 -1.7907  0.5918  1.7547
17021SOL     OW62786  10.827   4.676   9.214 -0.1368 -0.3249  0.6595
17021SOL    HW162787  10.818   4.629   9.131  1.7186  1.1609 -0.4633
17021SOL    HW262788  10.788   4.762   9.197  1.9646  0.6873  0.6280
17022SOL     OW62789  10.123   0.085   0.645  0.0773  0.4505  0.2570
17022SOL    HW162790  10.166   0.162   0.684 -0.1096 -0.0005  1.3949
17022SOL    HW262791  10.183   0.013   0.663  0.6076  0.4331 -1.4672
17023SOL     OW62792   7.053  10.995  11.361 -0.0165  0.0387 -0.5338
17023SOL    HW162793   7.031  11.031  11.447 -1.3853  1.5544 -1.4626
17023SOL    HW262794   6.991  10.922  11.350 -1.5170  1.3483 -1.1790
17024SOL     OW62795   6.180   7.295   0.038  0.0847  0.2804 -1.0415
17024SOL    HW162796   6.178   7.296  -0.058  0.9732  1.0825 -1.0701
17024SOL    HW262797   6.113   7.231   0.063  0.6747 -0.8548 -2.2258
17025SOL     OW62798   7.505   1.751   5.366  0.3024 -0.0818  0.5111
17025SOL    HW162799   7.575   1.706   5.319 -0.7366 -1.5780  0.3348
17025SOL    HW262800   7.544   1.774   5.451  1.8015  1.5190 -0.5271
17026SOL     OW62801   4.191   5.749   3.313  0.1918  0.5746  0.1429
17026SOL    HW162802   4.188   5.843   3.297 -2.0894  0.5490  0.1671
17026SOL    HW262803   4.157   5.710   3.233  0.7144 -0.2284  0.2986
17027SOL     OW62804   6.287   6.456   5.214  0.3941  0.2226  0.0064
17027SOL    HW162805   6.304   6.362   5.208  0.0301  0.2203 -1.1024
17027SOL    HW262806   6.365   6.491   5.259  0.3934 -0.6328  0.7126
17028SOL     OW62807   4.425   0.944   0.537  0.1955 -0.3552 -0.0589
17028SOL    HW162808   4.451   0.863   0.495  0.4662 -0.6935  0.7365
17028SOL    HW262809   4.331   0.935   0.552 -0.1352  0.2554 -1.6137
17029SOL     OW62810  11.475   0.180   8.772 -0.1424  0.0878  0.3689
17029SOL    HW162811  11.427   0.097   8.769  2.5876 -1.5993 -0.6592
17029SOL    HW262812  11.506   0.186   8.862  0.5398 -0.6002  0.1914
17030SOL     OW62813  10.485   0.691  10.703  0.0680 -0.6651 -0.0888
17030SOL    HW162814  10.424   0.765  10.703 -0.2528 -0.9282 -0.3394
17030SOL    HW262815  10.449   0.631  10.768  0.2561 -0.6616  0.0198
17031SOL     OW62816   5.845   7.161   1.817 -0.2438  0.0563 -0.1205
17031SOL    HW162817   5.936   7.190   1.816 -0.1682 -0.1387 -1.6961
17031SOL    HW262818   5.850   7.066   1.828 -0.3944  0.2965  2.4944
17032SOL     OW62819   8.880   5.575   2.451  0.2177  0.1273  0.2466
17032SOL    HW162820   8.927   5.492   2.445  0.3105  0.2741 -1.5247
17032SOL    HW262821   8.842   5.587   2.364  0.0265  1.8398  0.5385
17033SOL     OW62822   5.781   8.401   5.577 -0.3182 -0.0164 -0.6355
17033SOL    HW162823   5.746   8.326   5.624 -0.9506  0.8637  0.3418
17033SOL    HW262824   5.876   8.397   5.594 -0.2000 -1.1508 -1.4500
17034SOL     OW62825   9.403   2.321   8.432  0.0259  0.1116 -0.4849
17034SOL    HW162826   9.363   2.282   8.509  0.0070  0.2626 -0.4169
17034SOL    HW262827   9.413   2.249   8.370  0.6937 -0.1507 -0.0736
17035SOL     OW62828   0.479   3.374   4.161 -0.5965 -0.4223  0.5756
17035SOL    HW162829   0.564   3.415   4.176 -0.7412  0.1652 -0.1562
17035SOL    HW262830   0.499   3.280   4.154  0.3279 -0.1311 -1.6284
17036SOL     OW62831   4.789   6.075  11.422  0.1719 -0.6570  0.1860
17036SOL    HW162832   4.808   6.162  11.455 -1.5433 -0.2581  0.2042
17036SOL    HW262833   4.743   6.031  11.494  0.0986 -1.2142 -0.1952
17037SOL     OW62834   7.375   6.271   7.143  0.5534 -0.0156 -0.3198
17037SOL    HW162835   7.285   6.271   7.112  0.2020  0.8196  0.6181
17037SOL    HW262836   7.399   6.179   7.149  0.6085 -0.2338 -2.8467
17038SOL     OW62837   6.962   9.680   3.655  0.5440 -0.0823 -0.1855
17038SOL    HW162838   7.026   9.686   3.727 -1.7392  1.6165  1.8909
17038SOL    HW262839   6.945   9.771   3.631 -1.6277 -0.4078 -0.0987
17039SOL     OW62840  10.175  10.826   7.119 -0.1504  0.7506 -0.3868
17039SOL    HW162841  10.112  10.877   7.169 -1.0170 -1.7144  1.2231
17039SOL    HW262842  10.126  10.797   7.042 -0.6227 -0.0902  0.2134
17040SOL     OW62843   8.528   8.967   5.556  0.2070  0.2248  0.2613
17040SOL    HW162844   8.540   8.903   5.626 -0.3481  0.9597  1.0591
17040SOL    HW262845   8.568   8.927   5.479 -1.2538 -1.6396  0.4035
17041SOL     OW62846  11.695   2.977   6.910  0.0679  0.3489  0.1305
17041SOL    HW162847  11.653   2.918   6.847  2.0877 -0.1321 -0.8362
17041SOL    HW262848  11.724   2.919   6.981 -1.8412  0.8360  1.3858
17042SOL     OW62849   2.839   7.175   0.101 -0.3272  0.0129 -0.2302
17042SOL    HW162850   2.829   7.085   0.069  0.4862 -0.7893  1.6606
17042SOL    HW262851   2.773   7.183   0.170  2.4533 -0.7220  2.7524
17043SOL     OW62852   3.595   9.792   3.972  0.0782 -0.8277  0.7462
17043SOL    HW162853   3.673   9.745   3.999  0.3173 -1.4049 -0.8568
17043SOL    HW262854   3.601   9.797   3.877 -0.6319  1.2585  0.7544
17044SOL     OW62855   3.062   1.723   9.676  0.2015  0.3305  0.3821
17044SOL    HW162856   3.122   1.681   9.737  0.5986  0.6983  0.2418
17044SOL    HW262857   3.059   1.664   9.601  1.3307  0.9056 -0.1274
17045SOL     OW62858   4.979  11.011   7.435 -0.6486  0.4595 -0.2707
17045SOL    HW162859   5.014  11.083   7.486 -1.1985  1.0021 -0.6394
17045SOL    HW262860   5.041  11.000   7.362  0.2539 -0.4614  0.6073
17046SOL     OW62861   1.110  10.016   9.438 -0.1573 -0.5726 -0.1226
17046SOL    HW162862   1.134  10.037   9.528 -0.9801 -0.4047  0.0643
17046SOL    HW262863   1.188  10.039   9.387 -0.1746  0.6679  0.3785
17047SOL     OW62864  11.612   3.450  10.952  0.4235  0.2278 -0.5997
17047SOL    HW162865  11.687   3.470  10.896  1.0235  0.5432  0.2987
17047SOL    HW262866  11.561   3.531  10.955  1.0184  0.5855  0.2437
17048SOL     OW62867   7.624   5.823   3.767 -0.0298 -0.0774  0.0686
17048SOL    HW162868   7.643   5.759   3.835  1.7989  0.6006  0.2578
17048SOL    HW262869   7.570   5.889   3.811  2.2426  1.0556  1.3248
17049SOL     OW62870   6.699  11.612   3.468 -0.2865  0.3061  0.1101
17049SOL    HW162871   6.662  11.694   3.500  0.3310  0.3421  0.7578
17049SOL    HW262872   6.640  11.585   3.397 -1.8073  0.1279  1.3870
17050SOL     OW62873  10.394   9.131   1.321  0.2060  0.0307  0.0755
17050SOL    HW162874  10.311   9.084   1.318 -0.8013  1.6211  1.5118
17050SOL    HW262875  10.426   9.119   1.411  0.8271  0.5968 -0.0589
17051SOL     OW62876  10.287   1.789   4.841 -0.0088 -0.0069  0.1796
17051SOL    HW162877  10.249   1.750   4.919 -0.2943  1.5398  0.8656
17051SOL    HW262878  10.345   1.857   4.874  0.1146  0.4592 -0.9426
17052SOL     OW62879  10.672   8.987   8.513  0.3400 -0.0063  0.0976
17052SOL    HW162880  10.691   9.037   8.592  0.1636 -1.3037  1.0046
17052SOL    HW262881  10.582   9.011   8.490  0.0907 -0.2485  0.7927
17053SOL     OW62882   8.252   8.157   0.852  0.1245 -0.2431 -0.1608
17053SOL    HW162883   8.164   8.138   0.884  0.5369 -0.7272  0.7271
17053SOL    HW262884   8.271   8.087   0.790  0.8928 -1.7213  1.6565
17054SOL     OW62885   3.966   6.089   1.040  0.1740  0.2629 -0.3484
17054SOL    HW162886   3.908   6.163   1.024  1.4440  0.9186 -2.3609
17054SOL    HW262887   4.034   6.124   1.098 -0.4638 -0.0149  0.5877
17055SOL     OW62888   6.000   6.269   5.446 -0.2696 -0.1765 -0.3849
17055SOL    HW162889   6.061   6.206   5.485 -0.8688  0.7458  2.2934
17055SOL    HW262890   5.923   6.217   5.423  0.5563 -0.9473 -1.5485
17056SOL     OW62891  10.754   1.604   1.244 -0.1640 -0.7479  0.4452
17056SOL    HW162892  10.744   1.686   1.293  1.1807  0.0442 -0.5368
17056SOL    HW262893  10.741   1.628   1.153 -0.0416 -1.6802  0.1702
17057SOL     OW62894   9.857   6.441   3.386  0.0857  0.1788  0.3373
17057SOL    HW162895   9.921   6.507   3.412  1.8379 -1.3470  0.0643
17057SOL    HW262896   9.773   6.476   3.417  0.6110  3.4291 -1.4536
17058SOL     OW62897   7.084   5.133   0.114 -0.0166  0.4851  0.0956
17058SOL    HW162898   7.136   5.111   0.192  0.0090  2.2990  0.6242
17058SOL    HW262899   7.129   5.207   0.075 -0.4173  0.0235 -1.2972
17059SOL     OW62900   7.656   4.536   2.308  0.6092  0.5575  0.7612
17059SOL    HW162901   7.587   4.598   2.287 -1.8696 -2.1160  0.3525
17059SOL    HW262902   7.688   4.563   2.394 -0.6968  2.0777  0.8101
17060SOL     OW62903   9.858   4.542   3.744 -0.1976  0.6813  0.4411
17060SOL    HW162904   9.764   4.536   3.728 -0.0786  0.2691 -0.1372
17060SOL    HW262905   9.869   4.503   3.831 -0.2304 -2.1224 -0.7021
17061SOL     OW62906   3.490   4.973   5.967  0.2811  0.0230  0.5596
17061SOL    HW162907   3.422   5.005   5.907  1.1278  3.8296  1.3754
17061SOL    HW262908   3.446   4.964   6.051  0.2806  0.1976  0.5784
17062SOL     OW62909   3.300   7.875   7.683 -0.1526 -0.0832  0.0124
17062SOL    HW162910   3.246   7.939   7.636 -0.0770  0.1668  0.2647
17062SOL    HW262911   3.365   7.847   7.618  0.4081  0.8036  0.1694
17063SOL     OW62912   5.801   4.059   3.930  0.8427  0.1997  0.1505
17063SOL    HW162913   5.800   3.970   3.965  1.0298 -0.1499 -0.6989
17063SOL    HW262914   5.752   4.052   3.848 -0.3959  1.1950  0.7720
17064SOL     OW62915   1.181   1.496   1.567  0.2173 -0.6669 -0.4930
17064SOL    HW162916   1.205   1.589   1.564 -0.2128 -0.4865  0.8403
17064SOL    HW262917   1.124   1.483   1.491  0.0117  0.2472 -0.5068
17065SOL     OW62918   5.805   1.581   4.479  0.4693 -0.1852 -0.6542
17065SOL    HW162919   5.862   1.630   4.419 -0.2219 -0.3160 -1.4381
17065SOL    HW262920   5.730   1.639   4.492  0.6498 -0.1274  0.1649
17066SOL     OW62921   7.389   2.674   3.231 -0.4133  0.3030 -0.2683
17066SOL    HW162922   7.377   2.715   3.145 -0.7062 -0.4804 -0.6049
17066SOL    HW262923   7.424   2.745   3.286  0.7520  0.5422 -1.2794
17067SOL     OW62924  11.340   8.202  10.321 -0.1672 -0.3610  0.1455
17067SOL    HW162925  11.279   8.172  10.388 -0.6554 -2.3794 -1.1052
17067SOL    HW262926  11.422   8.218  10.368  0.0225 -3.3991  1.0367
17068SOL     OW62927   2.234   7.497   8.863  0.3482  0.0477  0.0074
17068SOL    HW162928   2.297   7.562   8.830 -0.2311 -0.1516 -1.5799
17068SOL    HW262929   2.289   7.425   8.894  1.0157  1.2709  1.9148
17069SOL     OW62930   6.916   4.092   0.676 -0.0863 -0.1392 -0.3516
17069SOL    HW162931   6.962   4.164   0.721 -0.7993 -1.9972  3.7672
17069SOL    HW262932   6.963   4.013   0.704 -1.8696 -1.5902 -1.2982
17070SOL     OW62933  11.153   2.017   4.010 -0.4641 -0.4082 -0.1932
17070SOL    HW162934  11.211   1.959   4.059 -1.7702 -1.3847  0.2917
17070SOL    HW262935  11.210   2.064   3.950  0.9039 -0.7728  0.7660
17071SOL     OW62936   3.305   1.792  11.392  0.1169  0.2184  0.0987
17071SOL    HW162937   3.253   1.840  11.457  1.0906 -2.0888  2.8377
17071SOL    HW262938   3.241   1.751  11.335 -1.0087 -0.1903  1.5789
17072SOL     OW62939   9.690   1.256   0.435  0.4958 -0.1210  0.5772
17072SOL    HW162940   9.761   1.312   0.404 -0.8035  1.2242 -0.0993
17072SOL    HW262941   9.675   1.284   0.526  1.9832 -1.6673  1.3622
17073SOL     OW62942   1.059   5.093   8.066  0.0394  0.0785 -0.2297
17073SOL    HW162943   1.022   5.164   8.013 -0.3145 -0.1276 -0.2609
17073SOL    HW262944   1.115   5.138   8.129  0.0184  0.3677 -0.4130
17074SOL     OW62945   2.943   0.251   7.826 -0.0174 -0.1820 -0.5292
17074SOL    HW162946   2.900   0.184   7.773 -0.4001  0.4804 -1.0762
17074SOL    HW262947   3.023   0.209   7.858 -1.1645 -1.5109  0.7205
17075SOL     OW62948   7.183   2.741   1.896  0.2133  0.1765 -0.1245
17075SOL    HW162949   7.150   2.808   1.956  1.3058 -0.5699  1.3590
17075SOL    HW262950   7.193   2.788   1.812 -0.1276  1.5742  0.5806
17076SOL     OW62951  11.306   5.047   0.830  0.2576 -0.5286  0.1251
17076SOL    HW162952  11.221   5.057   0.787 -2.1526 -3.1457  3.7332
17076SOL    HW262953  11.337   4.962   0.801  0.4200 -0.6722  0.7103
17077SOL     OW62954   9.374   6.298   1.350 -0.4151 -0.3591  0.4762
17077SOL    HW162955   9.373   6.206   1.375 -0.0864 -0.3594  0.4993
17077SOL    HW262956   9.397   6.299   1.257 -0.5700 -0.3081  0.4380
17078SOL     OW62957  10.277   2.004   9.176  0.1933 -0.5583 -0.6063
17078SOL    HW162958  10.306   2.095   9.169 -0.3882 -0.3411 -0.2563
17078SOL    HW262959  10.207   2.006   9.240 -0.9979 -0.9742 -1.8503
17079SOL     OW62960   4.692   3.786  10.566  0.1476  0.0818  0.2647
17079SOL    HW162961   4.641   3.774  10.486 -1.9626  1.1352  1.3818
17079SOL    HW262962   4.629   3.818  10.631  1.8254 -0.5698  2.3234
17080SOL     OW62963  10.934  10.984   5.516 -0.3531 -0.1781 -0.7128
17080SOL    HW162964  10.938  11.066   5.467 -1.0693  0.2247 -0.1303
17080SOL    HW262965  10.856  10.993   5.571  0.5009 -0.5346  0.6086
17081SOL     OW62966   7.529   4.133   1.397 -0.0156 -0.1834 -0.2399
17081SOL    HW162967   7.481   4.065   1.444  1.4085 -1.5734 -0.7374
17081SOL    HW262968   7.478   4.149   1.318 -0.0749 -1.0681 -0.3828
17082SOL     OW62969   7.624   2.892   2.986  0.8872  0.3608 -0.3246
17082SOL    HW162970   7.623   2.801   3.017  1.1570  0.3924 -0.2202
17082SOL    HW262971   7.596   2.887   2.895 -0.0906  0.2841 -0.0319
17083SOL     OW62972   1.138   8.682   5.862 -0.1686 -0.5269 -0.0051
17083SOL    HW162973   1.196   8.619   5.821 -0.1810 -0.5025 -0.0603
17083SOL    HW262974   1.061   8.631   5.888  0.0720 -0.6504  0.4795
17084SOL     OW62975   6.391   1.563   7.885 -0.1942  0.4975  0.6390
17084SOL    HW162976   6.392   1.478   7.841  0.2879  0.6956  0.2632
17084SOL    HW262977   6.422   1.543   7.974  1.2490  0.4856  0.1547
17085SOL     OW62978   8.395   0.141   1.345 -0.1069  0.0061 -0.0857
17085SOL    HW162979   8.354   0.064   1.385  0.2988 -0.4456 -0.5201
17085SOL    HW262980   8.335   0.213   1.363 -0.6129 -0.4617  0.1129
17086SOL     OW62981  11.670   9.543   7.011  0.8250 -0.4646  0.0099
17086SOL    HW162982  11.582   9.581   7.014  0.5275 -1.1865  1.1186
17086SOL    HW262983  11.681   9.502   7.096  1.8251 -1.3295 -0.5162
17087SOL     OW62984   5.818   7.481   2.282 -0.0542  0.3666  0.4026
17087SOL    HW162985   5.826   7.402   2.229 -1.0272  0.8027 -0.4243
17087SOL    HW262986   5.786   7.449   2.367 -0.2675 -0.1441  0.1364
17088SOL     OW62987   4.447   5.099  10.210 -0.1233 -0.3194  0.2041
17088SOL    HW162988   4.437   5.192  10.230 -0.4456  0.2387 -2.2776
17088SOL    HW262989   4.524   5.072  10.261  0.7248  1.6210  0.0571
17089SOL     OW62990   1.954   7.552   2.834 -0.1229 -0.6196 -0.5371
17089SOL    HW162991   1.960   7.625   2.773  1.8811  0.1334  0.4765
17089SOL    HW262992   1.956   7.593   2.921 -0.5735 -1.7926  0.0607
17090SOL     OW62993   2.036  11.781  11.140  0.9127 -0.7299  0.3195
17090SOL    HW162994   2.076  11.813  11.059 -1.2329 -0.8490 -0.8395
17090SOL    HW262995   2.073  11.694  11.151 -0.2051 -1.5304 -1.6666
17091SOL     OW62996  11.396   4.993   8.293  0.3155 -1.1267  0.6078
17091SOL    HW162997  11.450   5.030   8.363  0.7528 -0.1310 -0.2179
17091SOL    HW262998  11.458   4.977   8.222 -0.1040 -2.2346  0.4681
17092SOL     OW62999   3.058   8.983   7.614  0.4872 -0.0214 -0.4811
17092SOL    HW163000   3.105   8.904   7.640  0.4132 -0.0480 -0.4274
17092SOL    HW263001   3.034   9.025   7.697  1.9951  0.9477 -0.4847
17093SOL     OW63002   5.564  11.629   0.421 -0.0566  1.1904  0.2822
17093SOL    HW163003   5.576  11.538   0.448  1.0389  1.1078 -0.4057
17093SOL    HW263004   5.653  11.664   0.416 -0.3804  1.9136 -0.7511
17094SOL     OW63005   5.016   5.107   9.210  0.0627  0.1569 -0.3264
17094SOL    HW163006   5.087   5.098   9.147 -0.1228 -1.7842 -0.3078
17094SOL    HW263007   5.008   5.021   9.250  0.5858  1.4855  2.8614
17095SOL     OW63008   9.587   8.311   5.613 -0.1609 -0.1740 -0.4146
17095SOL    HW163009   9.555   8.399   5.594  0.0556 -0.0141 -0.0341
17095SOL    HW263010   9.643   8.289   5.539  1.2305  0.7155  0.3392
17096SOL     OW63011   2.806   0.774   4.662  0.5923 -0.1677  0.1108
17096SOL    HW163012   2.727   0.728   4.689 -0.7564  1.9160 -0.0495
17096SOL    HW263013   2.845   0.804   4.745 -0.4148  1.2828  0.1003
17097SOL     OW63014  10.050   3.480   5.386 -0.0086  0.3288  0.3583
17097SOL    HW163015   9.995   3.524   5.321  0.4908  1.5704  0.7525
17097SOL    HW263016  10.137   3.477   5.346  0.0797  0.1815  0.5616
17098SOL     OW63017   1.079  10.956   8.703 -0.4323 -0.7045  0.1142
17098SOL    HW163018   1.147  10.913   8.754  0.7628 -1.4671 -1.9899
17098SOL    HW263019   1.108  11.047   8.696 -0.7951 -0.5056  1.0497
17099SOL     OW63020   5.267   6.030   9.162  0.3168  0.1111 -0.4770
17099SOL    HW163021   5.340   6.086   9.135  0.3129  2.2422  3.2431
17099SOL    HW263022   5.304   5.973   9.230 -0.9178 -0.5913 -0.3514
17100SOL     OW63023   5.222   1.310   5.775  0.1029 -0.3080  0.1643
17100SOL    HW163024   5.259   1.248   5.712 -0.8503 -0.3687 -0.3569
17100SOL    HW263025   5.263   1.286   5.859 -0.4058 -1.7933  0.0216
17101SOL     OW63026   5.526  10.685   8.447  0.5366 -0.4420 -0.0048
17101SOL    HW163027   5.492  10.712   8.533  0.9406  0.5120 -0.1277
17101SOL    HW263028   5.493  10.751   8.386  1.0320 -0.5800 -0.4310
17102SOL     OW63029   4.127   6.800   5.726  0.1530 -0.6585  0.1369
17102SOL    HW163030   4.215   6.822   5.757  0.9500 -2.3611 -0.8129
17102SOL    HW263031   4.069   6.846   5.787  1.6432  1.7474 -0.0976
17103SOL     OW63032  10.770   7.110   0.173 -0.0994  0.2017 -0.3331
17103SOL    HW163033  10.683   7.092   0.135 -1.1840 -1.2687  2.5788
17103SOL    HW263034  10.830   7.058   0.119 -1.1805  0.2778 -1.6658
17104SOL     OW63035   7.730  10.042   3.422 -0.6009  0.2928  0.4792
17104SOL    HW163036   7.782   9.971   3.459  0.2447  0.4337 -0.4107
17104SOL    HW263037   7.785  10.119   3.431  0.8554 -0.0826 -3.4291
17105SOL     OW63038  10.307   5.822   0.366  0.1448 -0.1187  0.0368
17105SOL    HW163039  10.219   5.798   0.393  0.2988 -1.0975 -0.2795
17105SOL    HW263040  10.353   5.842   0.448 -0.2196 -0.1449  0.2467
17106SOL     OW63041   7.314   5.848   3.633 -0.4846  0.0829 -0.3858
17106SOL    HW163042   7.349   5.855   3.544 -0.6629 -1.7899 -0.6489
17106SOL    HW263043   7.317   5.937   3.667  1.0244  0.5942 -1.7254
17107SOL     OW63044   1.041   4.097   1.804 -0.0868 -0.0111 -0.1548
17107SOL    HW163045   1.075   4.154   1.873  4.6812 -3.0513  0.4574
17107SOL    HW263046   1.084   4.127   1.724  0.1134 -0.9165 -0.3940
17108SOL     OW63047  10.001  11.496  11.508 -0.0273  0.2101 -0.0869
17108SOL    HW163048   9.939  11.424  11.498 -1.5471  1.5626 -0.8816
17108SOL    HW263049  10.009  11.508  11.602  0.2790 -0.9879  0.0576
17109SOL     OW63050   2.384   9.282  11.926 -0.3615  0.0128 -0.2433
17109SOL    HW163051   2.353   9.368  11.899 -0.6223  0.1621  0.5049
17109SOL    HW263052   2.308   9.242  11.969 -0.6461 -1.0903 -1.6718
17110SOL     OW63053   1.415   3.158   4.276 -0.5029  0.0325 -0.2771
17110SOL    HW163054   1.376   3.185   4.192  2.1084 -0.1212 -1.6342
17110SOL    HW263055   1.508   3.151   4.258  0.4262  1.7539  3.1709
17111SOL     OW63056   6.552   6.672   1.288 -0.5961  0.3100 -0.3577
17111SOL    HW163057   6.501   6.614   1.344 -1.6117  1.2001 -0.3259
17111SOL    HW263058   6.636   6.627   1.275 -0.4229 -0.0244  1.6728
17112SOL     OW63059   4.653   4.235   2.097 -0.0598  0.2305 -0.4678
17112SOL    HW163060   4.577   4.178   2.109  1.4577 -1.7588  0.1952
17112SOL    HW263061   4.674   4.267   2.184 -0.4607  1.2939 -0.7364
17113SOL     OW63062   4.654   0.786   1.622  0.3180  0.2383  0.4523
17113SOL    HW163063   4.613   0.870   1.639 -0.3511 -0.1704  0.9265
17113SOL    HW263064   4.588   0.736   1.575  1.7395  0.9671 -2.5400
17114SOL     OW63065  10.373   0.984   7.513 -0.0316 -0.0981 -0.6716
17114SOL    HW163066  10.466   0.960   7.517  0.2218  1.0698  1.2872
17114SOL    HW263067  10.374   1.077   7.490 -0.6883  0.1136  0.1593
17115SOL     OW63068   9.020   1.797   4.347  0.5311  0.2115 -0.4355
17115SOL    HW163069   8.995   1.838   4.430 -2.4755 -2.7585  0.3528
17115SOL    HW263070   9.110   1.769   4.361  0.4589  0.7548  1.4346
17116SOL     OW63071  10.593   4.022   5.914  0.3521 -0.4163  0.2254
17116SOL    HW163072  10.642   4.100   5.891  2.3093 -1.8981 -0.9715
17116SOL    HW263073  10.660   3.958   5.938 -0.9930 -2.4227 -1.0565
17117SOL     OW63074   4.235  11.611  11.437 -0.3027  0.2111 -0.6346
17117SOL    HW163075   4.153  11.654  11.415  0.6418  1.6557 -1.5754
17117SOL    HW263076   4.210  11.537  11.492 -2.1987  0.6959 -0.7716
17118SOL     OW63077   0.123   0.057   5.234  0.0518  0.0494  0.5818
17118SOL    HW163078   0.077   0.141   5.232 -0.2561 -0.1148 -1.2812
17118SOL    HW263079   0.199   0.072   5.290  0.6416  1.9353 -0.6432
17119SOL     OW63080   1.324   4.339   9.274 -0.1621  0.4508 -0.1520
17119SOL    HW163081   1.341   4.245   9.266 -0.8533  0.3267 -0.1993
17119SOL    HW263082   1.234   4.344   9.305  0.2897  1.0810  1.1043
17120SOL     OW63083   0.876   3.965   1.484  0.6524 -0.2026 -0.1116
17120SOL    HW163084   0.788   3.928   1.479  0.7556 -0.5302  0.4521
17120SOL    HW263085   0.903   3.973   1.393  0.1436 -0.3524 -0.2809
17121SOL     OW63086   7.124  10.009   2.221 -0.2858 -0.3096 -0.1379
17121SOL    HW163087   7.199   9.964   2.182 -0.3875 -0.7611  0.1695
17121SOL    HW263088   7.048   9.957   2.194 -0.8753  1.7731 -2.9426
17122SOL     OW63089  11.228   1.690   9.022 -0.7938 -0.2275  0.3085
17122SOL    HW163090  11.252   1.735   9.103 -0.0974 -0.8823  0.4773
17122SOL    HW263091  11.194   1.760   8.966  0.0106  0.4720  0.6578
17123SOL     OW63092   0.270   5.791   1.662 -0.1477 -0.3194 -0.2966
17123SOL    HW163093   0.276   5.881   1.630 -0.3907 -0.5401 -0.9814
17123SOL    HW263094   0.334   5.787   1.733 -1.2169  0.8188  0.7824
17124SOL     OW63095   0.929   8.930  10.346  0.0341  0.1402  0.2622
17124SOL    HW163096   0.865   8.994  10.377 -0.3781 -0.7559  1.3356
17124SOL    HW263097   0.929   8.939  10.251 -3.2981 -1.2881 -0.0063
17125SOL     OW63098   7.026   9.071   6.921  0.1158  0.3394 -0.4632
17125SOL    HW163099   7.035   9.154   6.968 -0.3048 -0.5768  1.3258
17125SOL    HW263100   6.932   9.064   6.903  0.0691 -0.0158 -0.0884
17126SOL     OW63101   2.055   4.677   4.986  0.1995 -0.4712  0.2482
17126SOL    HW163102   2.062   4.591   5.026  0.9967 -0.2762  0.5525
17126SOL    HW263103   2.127   4.728   5.024 -0.0063  0.2036 -0.2292
17127SOL     OW63104   3.128   2.350  11.125  0.1620  0.0479 -0.9606
17127SOL    HW163105   3.088   2.433  11.101  2.7071  1.5242 -0.4348
17127SOL    HW263106   3.144   2.305  11.042 -0.5307  0.4174 -1.2937
17128SOL     OW63107   6.852   7.353   1.195 -0.1461 -0.2049  0.1535
17128SOL    HW163108   6.790   7.400   1.139  0.0818 -1.1148 -0.8928
17128SOL    HW263109   6.799   7.318   1.266 -0.4577  0.8831  0.4676
17129SOL     OW63110   7.013   5.380   5.497 -0.3529 -0.3815 -0.3841
17129SOL    HW163111   6.941   5.368   5.559 -0.0028 -1.1018 -0.1182
17129SOL    HW263112   7.069   5.304   5.509 -0.2369 -0.5002 -1.5349
17130SOL     OW63113  10.947   1.230   6.073  0.0825  0.3406  0.1457
17130SOL    HW163114  10.940   1.169   6.000  1.2336  0.0049  0.3090
17130SOL    HW263115  11.013   1.192   6.131 -2.4994 -0.6652  2.6411
17131SOL     OW63116   8.759   0.099   8.982 -0.6003 -0.6198  0.4070
17131SOL    HW163117   8.833   0.153   8.954 -0.4767 -0.2552  1.3748
17131SOL    HW263118   8.795   0.042   9.050 -0.8986 -1.4238 -0.0984
17132SOL     OW63119   3.348   9.195   3.700  0.2538  1.0270  0.2413
17132SOL    HW163120   3.374   9.149   3.780  1.0273  0.2968 -0.4050
17132SOL    HW263121   3.284   9.260   3.729  0.0452  0.3491  1.3602
17133SOL     OW63122   9.007   7.613   8.483 -0.0415  0.6060  0.3247
17133SOL    HW163123   9.044   7.636   8.398  0.1681  0.7298  0.4484
17133SOL    HW263124   8.913   7.632   8.475 -0.3022 -0.8623 -0.4003
17134SOL     OW63125   3.831   0.494   3.476  0.0441 -0.2041  0.1886
17134SOL    HW163126   3.858   0.447   3.555  0.7229  0.5058  0.3895
17134SOL    HW263127   3.791   0.575   3.508  0.3845  0.1200 -0.1839
17135SOL     OW63128   7.162   9.481   4.431 -0.2622 -0.5374  0.1658
17135SOL    HW163129   7.181   9.406   4.488 -0.0773 -0.7958 -0.2279
17135SOL    HW263130   7.156   9.443   4.343  0.7503  0.0407 -0.1679
17136SOL     OW63131   7.924   8.358   4.256  0.0114 -0.4367 -0.5892
17136SOL    HW163132   7.887   8.300   4.322 -1.3676 -0.1799 -1.0780
17136SOL    HW263133   7.998   8.401   4.299 -1.6653  0.7736  1.3098
17137SOL     OW63134   0.665   1.627   7.460 -0.5832  0.4041  0.2967
17137SOL    HW163135   0.718   1.637   7.539  0.7520 -0.3541 -0.4566
17137SOL    HW263136   0.708   1.556   7.412 -1.5207  0.6673 -0.9760
17138SOL     OW63137   0.463   6.128  10.878  0.4201  0.1459 -0.1102
17138SOL    HW163138   0.514   6.089  10.950  0.8566  0.2163 -0.3810
17138SOL    HW263139   0.451   6.056  10.816 -1.1139 -0.2847  0.6368
17139SOL     OW63140   0.941   8.619  10.729  0.5112  0.6413  0.2317
17139SOL    HW163141   0.977   8.706  10.745  1.6226  0.0405  1.1644
17139SOL    HW263142   0.868   8.611  10.791 -0.4516  1.3738 -0.7658
17140SOL     OW63143   1.747   4.628   0.925 -0.1090 -0.2670  0.2358
17140SOL    HW163144   1.775   4.650   1.013  1.3246 -1.7467  0.1897
17140SOL    HW263145   1.821   4.652   0.869 -1.2831  1.3924 -0.7308
17141SOL     OW63146   7.848  10.327   6.902 -0.2276 -0.4336  0.1006
17141SOL    HW163147   7.784  10.375   6.850  0.5965 -0.3644 -0.8652
17141SOL    HW263148   7.898  10.276   6.839  1.2721  0.2045  0.7348
17142SOL     OW63149  10.694   0.594   5.766 -0.8119 -0.0360 -0.2286
17142SOL    HW163150  10.629   0.658   5.798  0.8251  1.0843  0.9985
17142SOL    HW263151  10.659   0.509   5.792 -2.0048  0.4959 -0.0023
17143SOL     OW63152   6.740   9.347   4.664 -0.1426 -0.2786 -0.1731
17143SOL    HW163153   6.792   9.420   4.700  1.3090 -1.3678  0.0282
17143SOL    HW263154   6.705   9.382   4.582 -1.6238  1.4890  1.1146
17144SOL     OW63155  10.432  11.545   0.916  0.5808 -0.2007 -0.3514
17144SOL    HW163156  10.426  11.505   0.829 -1.2541  0.9330 -0.7864
17144SOL    HW263157  10.425  11.471   0.977  2.2428 -1.0492 -1.1222
17145SOL     OW63158   5.425   1.746   4.109 -0.3985 -0.4163  0.0352
17145SOL    HW163159   5.514   1.768   4.136 -0.5232 -0.3135  0.3726
17145SOL    HW263160   5.370   1.774   4.182 -0.6266 -1.2536  0.2011
17146SOL     OW63161   6.695   5.507  11.710 -0.3564  0.4755  0.0437
17146SOL    HW163162   6.756   5.576  11.735 -0.0867 -0.2061  1.3409
17146SOL    HW263163   6.682   5.456  11.790  1.3553 -2.4617 -1.3897
17147SOL     OW63164   5.993   7.751   6.663 -0.0253  0.0876  0.1190
17147SOL    HW163165   5.909   7.751   6.709 -0.4762  0.7144 -0.6843
17147SOL    HW263166   6.045   7.817   6.709 -0.5248  0.8155 -0.3485
17148SOL     OW63167   5.801   3.302  11.313 -0.5188  0.0659 -0.5442
17148SOL    HW163168   5.892   3.275  11.326 -0.7090 -0.7784 -0.9390
17148SOL    HW263169   5.762   3.298  11.400 -0.6511 -1.3737 -0.6407
17149SOL     OW63170   4.551   8.276   3.570  0.3674 -0.4735 -0.0711
17149SOL    HW163171   4.635   8.269   3.524  2.0312  1.1898  2.4440
17149SOL    HW263172   4.566   8.232   3.654 -1.5741 -0.8313  0.1347
17150SOL     OW63173   3.020   8.197   2.663  0.2907 -0.0683  0.3786
17150SOL    HW163174   2.979   8.139   2.727  0.4423  1.6824  2.1681
17150SOL    HW263175   2.969   8.184   2.583  0.5900 -2.9028  0.5685
17151SOL     OW63176   8.067   1.218  10.295 -0.5218  0.1323 -0.1498
17151SOL    HW163177   8.136   1.152  10.289  1.0700  1.7705 -0.6060
17151SOL    HW263178   7.989   1.168  10.322  0.2804 -2.1172 -1.6746
17152SOL     OW63179   8.697   6.927   7.865 -0.0383  0.7518 -0.0286
17152SOL    HW163180   8.751   7.000   7.895  1.0782 -0.8896  2.2646
17152SOL    HW263181   8.758   6.870   7.818 -0.4864  0.4138 -0.2056
17153SOL     OW63182  10.902   3.727   1.382 -0.1751  0.1828  0.1177
17153SOL    HW163183  10.945   3.813   1.374 -2.2887  1.5334  2.0077
17153SOL    HW263184  10.916   3.702   1.473 -1.7286 -0.2517  0.2587
17154SOL     OW63185   8.369   4.722   4.298 -0.0637 -0.1859 -0.5351
17154SOL    HW163186   8.421   4.669   4.238  0.2508 -0.5161  0.0259
17154SOL    HW263187   8.425   4.736   4.374 -0.2078  0.8060 -0.5927
17155SOL     OW63188   6.926   6.042  10.907  0.2333 -0.2868  0.1712
17155SOL    HW163189   6.977   6.001  10.837  0.2525 -0.9506  0.5549
17155SOL    HW263190   6.985   6.107  10.944 -0.0193  0.5461 -0.8560
17156SOL     OW63191   5.946   5.323   0.581  0.2621  0.6576  0.1549
17156SOL    HW163192   5.969   5.415   0.566  0.2154  0.8234  1.0567
17156SOL    HW263193   5.923   5.290   0.494  0.7160  1.3754 -0.2506
17157SOL     OW63194   0.797   9.635   7.189 -0.0762  0.4341 -0.0039
17157SOL    HW163195   0.771   9.634   7.097 -0.2617  1.8555  0.0134
17157SOL    HW263196   0.722   9.598   7.236 -0.7746  1.4661 -0.2658
17158SOL     OW63197  10.213   7.228   8.540  0.0583  0.1393 -0.3142
17158SOL    HW163198  10.224   7.163   8.609  3.3353 -0.4823 -1.2701
17158SOL    HW263199  10.135   7.200   8.492  1.6023 -3.4642 -0.9829
17159SOL     OW63200   4.216   0.135   1.278 -0.5376  0.4418 -0.7423
17159SOL    HW163201   4.230   0.047   1.243 -2.1671 -0.2123  0.1406
17159SOL    HW263202   4.304   0.169   1.293  0.1494 -1.4009 -0.2701
17160SOL     OW63203   5.848   2.831   1.113  0.1200  0.3680 -0.3849
17160SOL    HW163204   5.830   2.762   1.177 -2.8319  2.2483  1.0549
17160SOL    HW263205   5.888   2.786   1.039  1.4876 -2.2869  1.7844
17161SOL     OW63206  11.481   8.538   9.415  0.3886  0.5653 -0.5340
17161SOL    HW163207  11.499   8.587   9.335  0.6310  0.9428 -0.2514
17161SOL    HW263208  11.470   8.605   9.483  1.1889  0.2209 -0.0513
17162SOL     OW63209   9.698   2.667  11.623  0.4100 -0.2881 -0.5788
17162SOL    HW163210   9.659   2.736  11.568  1.6674  0.4860 -0.5375
17162SOL    HW263211   9.631   2.599  11.627  0.0112 -0.0839 -2.5339
17163SOL     OW63212   0.194   7.722   6.810 -0.4191  0.3238 -0.2726
17163SOL    HW163213   0.125   7.708   6.875 -1.5187  0.7488 -1.3146
17163SOL    HW263214   0.254   7.783   6.853 -0.4952 -0.3150  0.7839
17164SOL     OW63215   8.363   8.720   5.411  0.5385 -0.4219 -0.7984
17164SOL    HW163216   8.294   8.750   5.352  0.9844  0.8712 -0.7025
17164SOL    HW263217   8.361   8.782   5.484  1.8346 -0.3255 -0.8283
17165SOL     OW63218  10.947  11.053   8.078 -0.2669 -0.2649  0.1995
17165SOL    HW163219  10.947  11.026   8.170 -0.8595  0.3230  0.3807
17165SOL    HW263220  10.955  10.971   8.029 -1.7761 -0.7868  0.7516
17166SOL     OW63221   9.132   2.638   6.242 -0.2077  0.2262  0.4128
17166SOL    HW163222   9.112   2.652   6.150 -0.1829  0.8901  0.5005
17166SOL    HW263223   9.227   2.626   6.244 -0.4733 -2.4824  0.0495
17167SOL     OW63224   4.534   2.476   9.462 -0.2902 -0.3226  0.2838
17167SOL    HW163225   4.537   2.525   9.379  0.4836 -1.2703 -0.2740
17167SOL    HW263226   4.458   2.419   9.453  0.5882 -1.4290 -0.3907
17168SOL     OW63227  11.645   6.425   3.735 -0.2275 -0.4130 -0.0542
17168SOL    HW163228  11.693   6.377   3.667 -1.9645 -1.0994 -0.8669
17168SOL    HW263229  11.595   6.358   3.780  1.6218 -0.1199  2.6568
17169SOL     OW63230   2.493   4.368   9.131 -0.7729 -0.4521 -0.4778
17169SOL    HW163231   2.456   4.454   9.150 -1.9542 -1.1549  0.5623
17169SOL    HW263232   2.418   4.308   9.132  0.1950 -1.7192  0.3001
17170SOL     OW63233   0.767   5.513   3.928 -0.3295 -0.0795  0.2922
17170SOL    HW163234   0.690   5.569   3.942  0.5753  1.0247  1.1125
17170SOL    HW263235   0.817   5.523   4.009  1.9145  1.2564 -1.1496
17171SOL     OW63236   3.354  11.107   4.826 -0.2506 -0.4059  0.1719
17171SOL    HW163237   3.395  11.170   4.768 -0.9630 -0.9396 -0.9374
17171SOL    HW263238   3.381  11.022   4.793 -0.4507 -0.7204  0.7920
17172SOL     OW63239   3.619   1.485   2.255 -0.2058  0.0305 -0.5362
17172SOL    HW163240   3.633   1.503   2.162 -0.0821 -0.4980 -0.6178
17172SOL    HW263241   3.701   1.509   2.297 -0.5341  1.0741 -0.4415
17173SOL     OW63242   5.085   5.917   1.441  0.4996  0.1544 -0.3555
17173SOL    HW163243   5.157   5.854   1.434  0.4837 -0.0289  0.8491
17173SOL    HW263244   5.034   5.905   1.361  0.0587 -1.9291  0.1851
17174SOL     OW63245   0.147   0.640   7.180 -0.2646 -0.0576  0.1949
17174SOL    HW163246   0.135   0.549   7.208  0.7250  0.1749  1.4827
17174SOL    HW263247   0.192   0.634   7.096  1.5603 -0.7899  1.1570
17175SOL     OW63248   1.027   2.116   1.968 -0.6641 -0.6646 -0.1316
17175SOL    HW163249   0.942   2.073   1.967  0.1391 -2.3457  0.4056
17175SOL    HW263250   1.007   2.210   1.967 -2.5499 -0.9962  1.2410
17176SOL     OW63251  11.459   1.636   7.506 -0.5730  0.3855 -0.0236
17176SOL    HW163252  11.525   1.653   7.573  0.2885 -0.8296 -0.5156
17176SOL    HW263253  11.469   1.708   7.444  1.0366 -0.2879 -0.6173
17177SOL     OW63254   3.642  11.933   7.895  0.2145  0.2035  0.1240
17177SOL    HW163255   3.603  11.898   7.815  1.8499  0.0104 -0.6180
17177SOL    HW263256   3.577  11.996   7.927 -0.2284  0.7329 -1.6705
17178SOL     OW63257   3.083  11.780   5.620  0.3015  0.0836  0.0063
17178SOL    HW163258   3.085  11.782   5.524 -2.7646  1.3209 -0.1462
17178SOL    HW263259   3.175  11.779   5.646  1.4244  3.5942 -2.9413
17179SOL     OW63260   5.552   5.519   4.951 -0.1387  0.1428 -0.0111
17179SOL    HW163261   5.517   5.536   4.864 -0.5385 -0.7241 -0.0286
17179SOL    HW263262   5.524   5.594   5.003  1.0741  1.2382 -0.8822
17180SOL     OW63263   9.610   8.033  10.309  0.3503 -0.0985  0.1617
17180SOL    HW163264   9.662   7.999  10.383 -0.6063 -0.5826  0.6294
17180SOL    HW263265   9.527   7.986  10.314  0.5897 -0.8070 -1.7839
17181SOL     OW63266   9.856   0.139   2.567  0.7779 -0.3394 -0.1969
17181SOL    HW163267   9.780   0.155   2.510 -0.1692 -0.6616  0.9271
17181SOL    HW263268   9.834   0.182   2.649  1.0951 -1.7655  0.6837
17182SOL     OW63269   8.883   7.418   9.752 -0.4950  0.8521  0.3250
17182SOL    HW163270   8.820   7.463   9.807 -1.9855 -0.3127 -0.3660
17182SOL    HW263271   8.935   7.365   9.813 -0.8265  1.0713  0.8023
17183SOL     OW63272   3.557   8.342  10.723  0.6571 -0.9102 -0.6120
17183SOL    HW163273   3.495   8.280  10.762 -0.1783  0.5693  0.4911
17183SOL    HW263274   3.504   8.419  10.703  2.0648  0.2599  0.0127
17184SOL     OW63275   7.553   4.046   0.247  0.7157  0.3367 -0.4853
17184SOL    HW163276   7.636   4.041   0.199  0.5026 -0.9573 -0.7627
17184SOL    HW263277   7.568   3.994   0.326 -0.4791 -1.9188 -1.6150
17185SOL     OW63278   0.569   6.754   4.678 -0.3221 -0.4841  0.1252
17185SOL    HW163279   0.517   6.692   4.627  1.3038 -0.8721 -1.1628
17185SOL    HW263280   0.615   6.806   4.611 -1.3967  1.9451  1.1581
17186SOL     OW63281   2.534  10.691   5.042  0.5612  0.0513  0.0596
17186SOL    HW163282   2.488  10.626   5.095  0.0202  0.4399  0.0786
17186SOL    HW263283   2.470  10.762   5.030  1.2530  0.7293  0.3194
17187SOL     OW63284   1.521  10.891   0.359  0.3598 -0.3767  0.3992
17187SOL    HW163285   1.614  10.907   0.376  0.1947  0.3365  0.6905
17187SOL    HW263286   1.514  10.887   0.264  0.3154  2.1996  0.2183
17188SOL     OW63287   9.461   1.976   4.808 -0.3603  0.1277  0.4143
17188SOL    HW163288   9.527   1.945   4.745  0.3568  0.4399  0.9909
17188SOL    HW263289   9.420   2.050   4.764  2.5785  2.6874  1.5774
17189SOL     OW63290   0.312   8.572   6.199 -0.2891 -0.7167  0.0544
17189SOL    HW163291   0.272   8.587   6.113 -0.7116 -1.2478  0.1486
17189SOL    HW263292   0.241   8.589   6.261  0.2827  0.6404  0.3627
17190SOL     OW63293   8.064   0.240   6.679  0.1202 -0.0339  0.2672
17190SOL    HW163294   8.060   0.147   6.656 -1.3463 -0.5267  2.2041
17190SOL    HW263295   8.013   0.246   6.760 -0.8817  2.6858 -0.4788
17191SOL     OW63296   9.315   3.089   2.363 -0.3772  0.7456 -0.4600
17191SOL    HW163297   9.240   3.090   2.304 -0.5834 -2.4785 -0.4064
17191SOL    HW263298   9.278   3.072   2.450  0.3365  0.0045 -0.2911
17192SOL     OW63299  11.256   8.134   7.818 -0.0694  0.3028 -0.2653
17192SOL    HW163300  11.314   8.137   7.894 -0.4899  0.9850  0.0488
17192SOL    HW263301  11.175   8.176   7.849 -0.2605  0.5481 -1.0790
17193SOL     OW63302   2.315   7.976   7.552  0.1377 -0.0280  0.3123
17193SOL    HW163303   2.254   7.955   7.482 -0.4567 -0.2239  0.8780
17193SOL    HW263304   2.400   7.983   7.509 -0.1805 -0.3903 -0.3821
17194SOL     OW63305   4.256   7.503   9.278  0.1195 -0.7115  0.4118
17194SOL    HW163306   4.257   7.597   9.299 -3.3552 -0.2889 -0.6994
17194SOL    HW263307   4.349   7.480   9.269  1.1203  3.2031 -1.6595
17195SOL     OW63308   6.763  11.810  11.129  0.0539  0.2890  0.1001
17195SOL    HW163309   6.841  11.756  11.145 -0.2440 -0.2691 -0.3001
17195SOL    HW263310   6.786  11.895  11.166  0.5426 -0.0969  0.7178
17196SOL     OW63311   9.684   3.477   1.036  0.1943 -0.2723  0.3270
17196SOL    HW163312   9.664   3.403   0.978  0.3338  0.9642 -1.3656
17196SOL    HW263313   9.765   3.451   1.080  0.1933 -1.1671 -0.1655
17197SOL     OW63314   0.764   3.526   1.592 -0.3844 -0.3677 -0.2976
17197SOL    HW163315   0.715   3.592   1.641  1.3450  1.0317 -0.3519
17197SOL    HW263316   0.757   3.447   1.645 -0.5251  0.4896  1.0065
17198SOL     OW63317   5.433   0.793   4.141  0.2348 -0.2235 -0.1676
17198SOL    HW163318   5.476   0.855   4.082 -0.7515 -2.1189 -3.1042
17198SOL    HW263319   5.345   0.828   4.151  0.4283  0.1466  0.2676
17199SOL     OW63320   6.664  10.157   1.899  0.6213  0.0434 -0.4159
17199SOL    HW163321   6.615  10.232   1.932  1.4895  0.7329 -0.6509
17199SOL    HW263322   6.630  10.082   1.948 -0.6385  0.4905 -0.5587
17200SOL     OW63323   1.167   5.633   6.313  0.0704 -0.1962  0.1737
17200SOL    HW163324   1.238   5.697   6.304  1.5430 -1.6983  0.6357
17200SOL    HW263325   1.164   5.590   6.227 -2.3412  1.7975 -0.8751
17201SOL     OW63326   3.531  10.761   2.054  0.5479 -0.3286 -0.2203
17201SOL    HW163327   3.500  10.781   1.966 -0.7840  0.1978  0.3430
17201SOL    HW263328   3.625  10.747   2.044  0.2484 -1.3920 -1.8935
17202SOL     OW63329  10.430   5.034   1.195 -0.2646  0.7159  0.2992
17202SOL    HW163330  10.336   5.029   1.215 -0.5261 -0.4537 -1.0792
17202SOL    HW263331  10.440   5.117   1.148 -0.4980  1.1162  0.9405
17203SOL     OW63332   5.774   4.387   3.244 -0.5982 -0.3659 -0.4676
17203SOL    HW163333   5.743   4.455   3.185 -1.2563  1.1522  1.5229
17203SOL    HW263334   5.715   4.313   3.229 -0.9471  0.1014 -1.4576
17204SOL     OW63335   5.369   5.038   4.396 -0.3190  0.2572  0.3602
17204SOL    HW163336   5.413   4.977   4.337 -0.8425  1.0375 -0.8646
17204SOL    HW263337   5.282   4.999   4.410  0.0592 -0.3084  1.2498
17205SOL     OW63338   6.371   1.763   8.360  0.3202 -0.0918 -0.6370
17205SOL    HW163339   6.455   1.723   8.339  0.7543  0.8324 -0.7001
17205SOL    HW263340   6.393   1.851   8.390 -0.2401 -1.0701  3.3339
17206SOL     OW63341  11.506   2.226  11.674 -0.3379  0.7969 -0.2902
17206SOL    HW163342  11.568   2.285  11.632  0.3077  0.1244 -0.3005
17206SOL    HW263343  11.477   2.274  11.751 -1.4367  1.9888 -1.3963
17207SOL     OW63344   6.116   9.162   2.360 -0.1150 -0.2930 -0.3734
17207SOL    HW163345   6.089   9.243   2.402 -0.5342  0.2944 -1.7095
17207SOL    HW263346   6.210   9.157   2.374 -0.2026  0.0294  0.3626
17208SOL     OW63347   0.000   8.908   9.279  0.2914 -0.1496  0.0539
17208SOL    HW163348  -0.045   8.865   9.351  1.0484  1.0875  1.3314
17208SOL    HW263349  -0.001   9.001   9.302  1.1478  0.2000 -1.1891
17209SOL     OW63350   0.403   4.248   2.049  0.1765  0.8689  0.1523
17209SOL    HW163351   0.452   4.168   2.067 -2.1569 -0.8663 -0.6253
17209SOL    HW263352   0.395   4.251   1.954 -0.1959  1.7396  0.1993
17210SOL     OW63353   2.857  10.562   9.717  0.1140 -0.0688  0.9529
17210SOL    HW163354   2.824  10.482   9.757 -0.3810  0.9947  2.7783
17210SOL    HW263355   2.874  10.538   9.626 -2.6643 -1.5178  0.7098
17211SOL     OW63356   8.386   8.951   6.479  0.0713 -0.2917  0.0351
17211SOL    HW163357   8.401   8.861   6.452  1.3404 -0.3363  0.8111
17211SOL    HW263358   8.441   8.962   6.557 -0.4203  1.0095  0.2181
17212SOL     OW63359   4.389  10.153   9.236 -0.2526  0.3529  0.1116
17212SOL    HW163360   4.380  10.179   9.145 -0.0181  1.5629  0.4126
17212SOL    HW263361   4.462  10.091   9.236  1.1304  1.9014 -0.2754
17213SOL     OW63362   1.112   9.446   6.050 -0.2387  0.2792  0.8337
17213SOL    HW163363   1.190   9.409   6.090  0.1185 -1.4156 -1.2632
17213SOL    HW263364   1.040   9.391   6.082  0.2526 -2.2571 -2.0174
17214SOL     OW63365   1.351   0.374   9.416  0.1693 -0.3584  0.3109
17214SOL    HW163366   1.324   0.282   9.415  0.7652 -0.5390 -0.8653
17214SOL    HW263367   1.286   0.417   9.472 -1.3090 -1.1583 -0.7241
17215SOL     OW63368   1.169   1.440   0.494  0.1603 -0.2086  0.1898
17215SOL    HW163369   1.182   1.421   0.587  0.1024  0.8418  0.4302
17215SOL    HW263370   1.081   1.478   0.489  0.0416 -0.5355 -0.3462
17216SOL     OW63371   1.990   1.905   0.562 -0.0666  0.1681 -0.8558
17216SOL    HW163372   2.007   1.990   0.521  1.1535  0.7061  0.6993
17216SOL    HW263373   2.058   1.896   0.628 -0.2447 -1.9941 -0.9170
17217SOL     OW63374   4.322   0.873   9.514  0.3225  0.2287 -0.1322
17217SOL    HW163375   4.402   0.913   9.549 -0.0671  1.0716 -0.1772
17217SOL    HW263376   4.333   0.779   9.530  1.6629  0.2482 -0.8401
17218SOL     OW63377  10.834   3.263   2.000 -0.5319 -0.1917 -0.2890
17218SOL    HW163378  10.833   3.191   2.063 -0.8036 -0.3421 -0.4670
17218SOL    HW263379  10.854   3.223   1.916  0.3826  0.0834 -0.2108
17219SOL     OW63380  10.418   8.527   4.028 -0.0779  0.0848 -0.2699
17219SOL    HW163381  10.423   8.615   4.065  0.7011  0.0195 -0.2143
17219SOL    HW263382  10.368   8.477   4.093  0.1656  0.2902  0.0791
17220SOL     OW63383   5.766   1.916  11.721  0.2260  0.4874 -0.2363
17220SOL    HW163384   5.860   1.933  11.729  0.4432 -0.8868  0.4839
17220SOL    HW263385   5.730   1.943  11.806 -0.2642  2.2326 -0.9579
17221SOL     OW63386   8.266   9.446   6.920  0.1747  0.6946 -0.1606
17221SOL    HW163387   8.251   9.365   6.872 -0.9731  0.4094  0.6597
17221SOL    HW263388   8.186   9.497   6.908  0.2944  1.0666  0.5895
17222SOL     OW63389  10.936   5.055   2.352  0.2023  0.0366  0.2439
17222SOL    HW163390  10.912   5.137   2.396 -1.9306  0.9904 -2.4650
17222SOL    HW263391  10.868   4.993   2.379 -0.0619  0.1060 -0.2577
17223SOL     OW63392   7.271  11.309   4.999  0.2054  0.2004 -0.3351
17223SOL    HW163393   7.230  11.252   5.064 -0.2340 -0.9424 -1.5761
17223SOL    HW263394   7.361  11.320   5.030 -0.0745 -0.1029  0.5992
17224SOL     OW63395  11.266   8.559   7.753  0.1820  0.4346  0.6596
17224SOL    HW163396  11.291   8.487   7.695 -0.9679  0.9753 -0.5541
17224SOL    HW263397  11.211   8.615   7.699  0.9347  2.1750  1.6163
17225SOL     OW63398   7.308   0.091   9.015  0.0641 -0.0531 -0.3737
17225SOL    HW163399   7.388   0.041   9.027 -0.1838 -0.3926 -0.0750
17225SOL    HW263400   7.290   0.128   9.102  0.0004  0.1773 -0.4840
17226SOL     OW63401  10.732   7.073   1.301  0.2151  0.5557  0.7307
17226SOL    HW163402  10.746   6.979   1.290 -1.2767  0.3876  0.1000
17226SOL    HW263403  10.800   7.113   1.246 -0.3390 -0.1974 -0.5575
17227SOL     OW63404   8.207  11.515   9.415  0.2759  0.1944  0.0833
17227SOL    HW163405   8.259  11.561   9.350  0.7531 -1.0410 -0.4228
17227SOL    HW263406   8.207  11.423   9.387  0.0965 -0.2850  1.5590
17228SOL     OW63407   5.962   9.134   1.509  0.1864  0.3135  0.0041
17228SOL    HW163408   5.977   9.141   1.604 -0.4538 -0.2873  0.1602
17228SOL    HW263409   6.049   9.122   1.472  0.4257  0.3228  0.5435
17229SOL     OW63410   1.918   9.474  10.335 -0.0763  0.2472  0.4499
17229SOL    HW163411   1.858   9.542  10.365 -1.0787  1.5176 -3.7183
17229SOL    HW263412   2.005   9.508  10.356 -0.6450  1.8403  0.3822
17230SOL     OW63413   9.119   2.435   4.587  0.2804  0.7151 -0.5545
17230SOL    HW163414   9.141   2.446   4.680 -0.3912  0.2690 -0.3332
17230SOL    HW263415   9.032   2.395   4.588  0.0455  1.1850 -1.3842
17231SOL     OW63416   9.235   1.110  10.664  0.5155 -0.1503  0.5713
17231SOL    HW163417   9.294   1.051  10.616 -1.9931 -0.8017 -2.0435
17231SOL    HW263418   9.222   1.184  10.604 -1.1014  0.0514  1.1298
17232SOL     OW63419   1.913   0.793   1.601  0.8713 -0.6592 -0.0001
17232SOL    HW163420   1.846   0.858   1.624  0.4843 -0.5294 -1.4003
17232SOL    HW263421   1.867   0.709   1.606  0.4892 -0.5417 -1.2950
17233SOL     OW63422  11.001  11.837   2.275 -0.1302 -0.9080 -0.0746
17233SOL    HW163423  11.023  11.796   2.359 -1.3119  2.9504  2.3943
17233SOL    HW263424  11.065  11.908   2.265 -0.1466 -1.1507 -2.3938
17234SOL     OW63425   4.474   7.116   6.369 -0.5198  0.0756  0.1838
17234SOL    HW163426   4.503   7.166   6.445 -1.0058 -0.3590  0.6610
17234SOL    HW263427   4.496   7.172   6.294  1.4213 -0.1729  0.5200
17235SOL     OW63428   4.915   8.303   1.416 -0.3816  0.4759 -0.1505
17235SOL    HW163429   4.910   8.331   1.324  0.0974 -0.5912 -0.5155
17235SOL    HW263430   4.862   8.368   1.463 -0.6806  1.0117 -1.1802
17236SOL     OW63431   6.091   7.858   3.768  0.2268 -0.1932 -0.1390
17236SOL    HW163432   6.053   7.772   3.785 -1.0199  0.4274  0.3396
17236SOL    HW263433   6.016   7.914   3.746  0.8371  1.0862  0.8716
17237SOL     OW63434   2.990   9.613  10.111 -0.0183 -0.2881 -0.0225
17237SOL    HW163435   2.902   9.593  10.081  0.1591 -0.6282 -0.3298
17237SOL    HW263436   3.033   9.653  10.035  1.4927 -4.1667 -1.5111
17238SOL     OW63437   8.606   9.195   5.676  0.3771 -0.1439 -0.1923
17238SOL    HW163438   8.658   9.155   5.746 -0.6722 -0.7204  0.2824
17238SOL    HW263439   8.579   9.122   5.621  1.3885  0.3331 -1.3630
17239SOL     OW63440   4.776   2.446   6.695  0.3475  0.2159 -0.5619
17239SOL    HW163441   4.731   2.489   6.622  0.1269 -0.5629 -0.8906
17239SOL    HW263442   4.844   2.508   6.721 -0.1674  0.9019 -0.8221
17240SOL     OW63443  11.208   5.248   4.564 -0.4783 -0.6269 -0.3656
17240SOL    HW163444  11.246   5.334   4.581  0.1659 -0.6899 -1.4141
17240SOL    HW263445  11.267   5.187   4.608 -1.3510 -0.5083  1.0270
17241SOL     OW63446   0.433   5.865  10.758  0.0866  0.1054  0.4773
17241SOL    HW163447   0.368   5.817  10.708  0.4953 -1.2262  1.1738
17241SOL    HW263448   0.514   5.815  10.747  0.7613  1.1693  0.4489
17242SOL     OW63449  10.536   2.157   0.195 -0.1780 -0.1524 -0.1493
17242SOL    HW163450  10.556   2.192   0.108  0.2973 -0.9897 -0.3946
17242SOL    HW263451  10.621   2.129   0.230  0.0786  2.5857  1.7265
17243SOL     OW63452   4.039   5.033   8.462 -0.3392  0.3901  0.5924
17243SOL    HW163453   4.006   5.110   8.507 -1.1600  0.0457  0.5850
17243SOL    HW263454   4.022   5.050   8.369 -0.9124  0.0155  0.6278
17244SOL     OW63455   4.760  11.295   9.758 -0.1133  0.0536 -0.3949
17244SOL    HW163456   4.800  11.323   9.675  1.6901  1.1610  0.7712
17244SOL    HW263457   4.774  11.369   9.817  0.7072 -1.5673  1.5388
17245SOL     OW63458  10.159   6.535   5.653 -0.1042  0.0201  0.0496
17245SOL    HW163459  10.214   6.594   5.704 -0.9219  1.3025 -0.5050
17245SOL    HW263460  10.214   6.458   5.637  1.0755  0.7362  0.5697
17246SOL     OW63461   6.747   8.400   4.368  0.5773  0.5281 -0.4392
17246SOL    HW163462   6.738   8.474   4.308  0.9116  0.6117 -0.3868
17246SOL    HW263463   6.784   8.437   4.447 -0.6500  0.5680  0.1330
17247SOL     OW63464   6.557   1.808   2.998 -0.5644  0.6408 -0.2443
17247SOL    HW163465   6.497   1.779   3.067 -0.5569  0.6165 -0.2483
17247SOL    HW263466   6.580   1.898   3.024 -1.7018  1.1688 -0.9792
17248SOL     OW63467   9.429  10.301   0.579  0.1496  0.0031  0.0961
17248SOL    HW163468   9.334  10.290   0.576  0.2945 -1.2072 -1.0702
17248SOL    HW263469   9.461  10.218   0.614  0.8171  0.0672 -0.3398
17249SOL     OW63470   3.813   1.653   8.868 -0.4075 -0.0017 -0.0284
17249SOL    HW163471   3.794   1.733   8.917 -0.6528 -0.3573  0.4713
17249SOL    HW263472   3.863   1.682   8.791  1.4664  0.3971  1.2700
17250SOL     OW63473   8.787   3.771   6.613  0.0756  0.3362  0.2364
17250SOL    HW163474   8.787   3.843   6.676  0.0241  0.5707 -0.0302
17250SOL    HW263475   8.789   3.813   6.527 -0.9762  0.0384  0.0499
17251SOL     OW63476   4.312   8.942   5.816 -0.0900 -0.5397  0.1659
17251SOL    HW163477   4.343   9.007   5.753 -2.5748 -0.6954 -1.3368
17251SOL    HW263478   4.308   8.990   5.899  2.6231 -0.1619  0.1741
17252SOL     OW63479   5.881   9.909  10.139 -0.2946  0.5550  0.2447
17252SOL    HW163480   5.833   9.924  10.058 -0.2636 -0.7949 -0.0556
17252SOL    HW263481   5.973   9.914  10.114 -0.2815 -0.2427  0.0957
17253SOL     OW63482  11.783   8.277   1.172  0.0860 -0.3549 -0.1862
17253SOL    HW163483  11.836   8.269   1.093 -1.2626 -0.1365 -1.1476
17253SOL    HW263484  11.816   8.355   1.215 -1.3121  1.5163 -2.2821
17254SOL     OW63485   4.367  11.388   3.308  0.2686 -0.2025  0.4218
17254SOL    HW163486   4.402  11.384   3.219 -0.3253 -1.8257  0.2401
17254SOL    HW263487   4.440  11.359   3.364  0.0886 -0.9262  0.2897
17255SOL     OW63488   4.030   7.449   2.815  0.2680 -0.2102 -0.4700
17255SOL    HW163489   3.975   7.425   2.890 -0.7649 -0.9442 -1.4497
17255SOL    HW263490   4.040   7.368   2.765 -0.2968  0.5706 -1.9099
17256SOL     OW63491   7.788   2.364   8.341 -0.5102 -0.1686 -0.1632
17256SOL    HW163492   7.776   2.456   8.363 -1.7098 -0.3452 -0.0074
17256SOL    HW263493   7.747   2.317   8.413  0.0547 -0.8324 -0.2627
17257SOL     OW63494   7.517   2.963  11.017 -0.1552 -0.3504  0.2688
17257SOL    HW163495   7.466   3.042  11.004 -0.8359 -1.0969 -1.9859
17257SOL    HW263496   7.453   2.896  11.043  0.2485 -0.4551  1.0471
17258SOL     OW63497  10.137  10.862   5.935 -0.2010  0.3299 -0.6233
17258SOL    HW163498  10.119  10.917   6.012 -0.8172  1.9273 -1.8499
17258SOL    HW263499  10.208  10.908   5.890 -1.6308  0.9259 -2.3883
17259SOL     OW63500   8.540   9.287   0.049  0.5256 -0.0794 -0.4548
17259SOL    HW163501   8.631   9.290   0.079  0.1037  0.0454  0.9089
17259SOL    HW263502   8.488   9.304   0.128 -0.6456  1.6357 -1.5296
17260SOL     OW63503  11.446   6.456   9.983 -0.2531 -0.2876  0.0774
17260SOL    HW163504  11.479   6.530   9.932 -0.7483  1.0188  1.5658
17260SOL    HW263505  11.519   6.394   9.985 -0.0886 -0.2072 -1.8310
17261SOL     OW63506   7.736   4.884   8.320  0.0246 -0.7261 -0.2150
17261SOL    HW163507   7.697   4.918   8.400  1.7488  0.5361  0.1459
17261SOL    HW263508   7.762   4.794   8.343 -0.6660 -0.8266  0.2090
17262SOL     OW63509   1.912   5.740   0.235  0.2340  0.2001  0.0777
17262SOL    HW163510   1.829   5.718   0.193  0.4520 -1.2380  0.3425
17262SOL    HW263511   1.973   5.674   0.201  1.1252  0.8675  0.3507
17263SOL     OW63512   9.990   8.562   5.853 -0.2408  0.6375 -0.1028
17263SOL    HW163513  10.002   8.651   5.885 -2.8708  1.1743 -0.4080
17263SOL    HW263514  10.078   8.535   5.824  0.3495  3.7887 -1.6937
17264SOL     OW63515   3.470   8.131   9.603 -0.1895  0.1891 -0.3086
17264SOL    HW163516   3.452   8.225   9.613 -0.3106  0.0716  0.7267
17264SOL    HW263517   3.428   8.107   9.521 -1.8873  0.6353  0.3892
17265SOL     OW63518   6.823   7.832   2.639  0.2022  0.0384 -0.1148
17265SOL    HW163519   6.869   7.811   2.558 -1.2051  0.3981 -1.0318
17265SOL    HW263520   6.744   7.877   2.611 -1.4704 -1.8276  1.3308
17266SOL     OW63521   5.797   6.416   7.738 -0.3292 -0.5949  0.2466
17266SOL    HW163522   5.798   6.414   7.834 -0.7252  0.3108  0.2692
17266SOL    HW263523   5.888   6.433   7.714 -0.7712  2.8956  0.5768
17267SOL     OW63524   8.066   7.646  10.885 -0.3725 -0.4918 -0.2157
17267SOL    HW163525   8.070   7.642  10.981 -0.3924 -2.1493 -0.2420
17267SOL    HW263526   8.140   7.701  10.860  0.0421 -0.5927  0.7359
17268SOL     OW63527   7.198  11.932   4.096 -0.3940  0.1249 -0.5830
17268SOL    HW163528   7.116  11.922   4.145  0.3554 -0.3812  0.6296
17268SOL    HW263529   7.174  11.981   4.018 -1.7152  0.6575  0.1289
17269SOL     OW63530   2.755   8.003   1.746  0.0025  0.0132 -0.3177
17269SOL    HW163531   2.791   7.924   1.705  0.0628  0.0177 -0.2752
17269SOL    HW263532   2.664   8.007   1.716 -0.1169 -0.2911  0.0057
17270SOL     OW63533   2.168  11.129   8.269 -0.0793  0.1964  0.2987
17270SOL    HW163534   2.231  11.069   8.309 -0.2823  1.0245  1.9582
17270SOL    HW263535   2.085  11.081   8.272 -0.1840  0.4051  1.3513
17271SOL     OW63536   7.925   2.843   7.118  0.1241  0.2572  0.0346
17271SOL    HW163537   7.937   2.787   7.041 -0.2433 -1.3078  1.0687
17271SOL    HW263538   7.917   2.932   7.082  3.3572  0.0630 -1.5068
17272SOL     OW63539   5.400   0.566  10.941  0.8447 -0.4915 -0.4161
17272SOL    HW163540   5.440   0.490  10.899  1.0468 -1.2535  1.1076
17272SOL    HW263541   5.421   0.556  11.034  0.3770  1.1248 -0.1107
17273SOL     OW63542   7.903   8.925   8.536 -0.2034  0.3496 -0.2955
17273SOL    HW163543   7.887   8.884   8.621 -0.3135  0.4781 -0.2539
17273SOL    HW263544   7.881   9.017   8.549 -2.2992  0.0066 -1.0405
17274SOL     OW63545   6.787   2.291   9.415 -0.0267 -0.2355  0.1285
17274SOL    HW163546   6.774   2.231   9.489 -0.8186 -0.6876 -0.3527
17274SOL    HW263547   6.877   2.274   9.386  0.2931 -0.0466  0.9874
17275SOL     OW63548   9.844   4.052   1.102  0.0133 -0.2281  0.3099
17275SOL    HW163549   9.790   4.130   1.106  0.2985 -0.0331  0.4052
17275SOL    HW263550   9.800   3.995   1.039  0.0307  0.1852 -0.0862
17276SOL     OW63551   8.999   2.699   0.126  0.4427  0.0669 -0.4079
17276SOL    HW163552   8.995   2.623   0.068 -1.3936  0.6461 -1.1101
17276SOL    HW263553   9.001   2.774   0.065  3.7842  0.6513  0.2001
17277SOL     OW63554   7.980   1.656   5.294 -0.4192 -0.2668  0.0287
17277SOL    HW163555   7.977   1.574   5.245 -0.3853 -0.3854  0.2209
17277SOL    HW263556   7.919   1.643   5.367 -1.3710  0.3508 -0.6402
17278SOL     OW63557   7.830   7.819   6.578 -0.0130  0.3832  0.1938
17278SOL    HW163558   7.892   7.831   6.506  0.6015 -1.0001  0.4581
17278SOL    HW263559   7.778   7.743   6.553  0.7319 -0.6158  1.5428
17279SOL     OW63560   1.209   4.756  10.551 -0.8428  0.1499  0.5047
17279SOL    HW163561   1.206   4.753  10.646  1.1620  0.5750  0.6180
17279SOL    HW263562   1.156   4.832  10.528 -1.2313  0.1229  1.2693
17280SOL     OW63563   2.750   5.455   7.200  0.0923  0.4695  0.0185
17280SOL    HW163564   2.804   5.497   7.267 -0.1947  1.0495 -0.1087
17280SOL    HW263565   2.662   5.454   7.237  0.1093 -0.1256  0.0637
17281SOL     OW63566   1.565   7.413   5.558 -0.0823 -0.2554 -0.0647
17281SOL    HW163567   1.490   7.378   5.606  0.6525 -1.0684  0.5395
17281SOL    HW263568   1.541   7.406   5.466 -1.7577  1.8490  0.1233
17282SOL     OW63569   4.125   8.792   9.380 -0.1817 -0.4491  0.4101
17282SOL    HW163570   4.198   8.807   9.320  0.0073 -1.4132  0.3805
17282SOL    HW263571   4.160   8.812   9.466  0.2558 -1.2724  0.4407
17283SOL     OW63572  10.386   9.425   8.297  0.1027  0.2231 -0.3882
17283SOL    HW163573  10.428   9.511   8.298  0.2379  0.1795 -1.4013
17283SOL    HW263574  10.385   9.399   8.205 -3.3784  0.8219 -0.6373
17284SOL     OW63575   5.898  11.382   8.534  0.0041  0.4720 -0.2655
17284SOL    HW163576   5.818  11.428   8.562  0.3012  1.1100 -0.4434
17284SOL    HW263577   5.945  11.363   8.615 -0.6222 -0.4814 -0.1060
17285SOL     OW63578   0.713   8.033   7.723 -0.2384 -0.1516  0.1901
17285SOL    HW163579   0.648   8.002   7.785 -0.0477 -2.6776 -0.7453
17285SOL    HW263580   0.783   8.070   7.777 -1.1453 -0.0603  1.3272
17286SOL     OW63581   7.494   8.028  11.175 -0.2463  0.2070 -0.1512
17286SOL    HW163582   7.485   7.952  11.118  1.8291 -0.0539 -0.2059
17286SOL    HW263583   7.419   8.022  11.235  0.3291 -2.4072  0.4174
17287SOL     OW63584   2.199   9.397  10.048  0.5564 -0.1916  0.6314
17287SOL    HW163585   2.130   9.401  10.115 -1.0004  1.0471 -0.9632
17287SOL    HW263586   2.216   9.303  10.038 -1.9305 -0.6624  0.1202
17288SOL     OW63587   9.965   3.157   4.224 -0.3321  0.3342 -0.3229
17288SOL    HW163588  10.003   3.132   4.308 -1.6625 -1.2209 -0.1253
17288SOL    HW263589  10.014   3.234   4.197 -0.8163  1.7657  2.5545
17289SOL     OW63590   4.879   8.427  11.028 -0.1183  0.1061  0.3360
17289SOL    HW163591   4.880   8.510  11.075  0.8550  0.1423  0.2655
17289SOL    HW263592   4.926   8.445  10.946  0.3462 -0.5849  0.4444
17290SOL     OW63593   7.511   6.677   8.046 -0.4284  0.1767 -0.2755
17290SOL    HW163594   7.538   6.614   8.113  2.0452  2.8833  1.4907
17290SOL    HW263595   7.514   6.627   7.964 -0.5410 -2.4595  1.1956
17291SOL     OW63596   6.949   3.810   9.740  0.1078 -0.1437 -0.5093
17291SOL    HW163597   6.857   3.806   9.714  0.4491  0.7883 -1.9582
17291SOL    HW263598   6.963   3.900   9.768 -0.4626 -1.2318  4.1580
17292SOL     OW63599   7.543   7.812   3.304  0.3426 -0.5016 -0.2339
17292SOL    HW163600   7.586   7.807   3.219 -0.9751 -0.4736 -0.9222
17292SOL    HW263601   7.450   7.802   3.285  0.0994 -1.7270  1.3279
17293SOL     OW63602   2.297   8.302   4.393  0.3582  0.3751  0.5214
17293SOL    HW163603   2.301   8.217   4.349  0.0120  0.7295 -0.2174
17293SOL    HW263604   2.227   8.293   4.457  0.3610  0.0820  0.4834
17294SOL     OW63605   4.162  10.386  10.364 -0.1171  0.1221 -0.1964
17294SOL    HW163606   4.155  10.451  10.293  0.9251 -0.9579 -1.3265
17294SOL    HW263607   4.072  10.355  10.376 -0.4101  0.7875 -0.5848
17295SOL     OW63608   0.543   0.166   3.429 -0.1579  0.1981 -0.7335
17295SOL    HW163609   0.549   0.162   3.524 -0.7855  0.8052 -0.6564
17295SOL    HW263610   0.509   0.254   3.411 -1.2475 -0.3497 -1.4500
17296SOL     OW63611   4.352   5.570   1.871 -0.0917  0.1048 -0.1818
17296SOL    HW163612   4.394   5.501   1.819 -0.6918 -0.7646  0.4656
17296SOL    HW263613   4.258   5.554   1.862 -0.2233  0.4694  0.4832
17297SOL     OW63614   9.244   5.731   0.152 -0.1257  0.3095  0.5913
17297SOL    HW163615   9.255   5.784   0.231  0.6939  0.1163  0.6167
17297SOL    HW263616   9.271   5.643   0.178  2.0324  0.6090 -0.3549
17298SOL     OW63617   3.316   2.266   8.588 -0.2318  0.5138  0.5308
17298SOL    HW163618   3.330   2.272   8.493  0.4563  0.7832  0.6412
17298SOL    HW263619   3.287   2.176   8.603 -0.2172  0.4335  0.0840
17299SOL     OW63620   3.196   7.004   2.314  0.5493  0.9377 -0.2619
17299SOL    HW163621   3.163   7.064   2.381 -0.0378  0.2423  0.0883
17299SOL    HW263622   3.123   6.944   2.298  0.9632  0.6053 -0.9492
17300SOL     OW63623   9.326   4.259  11.718  0.0346  0.1983  0.4252
17300SOL    HW163624   9.386   4.312  11.666 -0.1315 -0.4562 -0.4461
17300SOL    HW263625   9.364   4.259  11.806  0.3186  1.3148  0.3206
17301SOL     OW63626   0.895  10.538   6.068 -0.3134 -0.4452  0.3756
17301SOL    HW163627   0.878  10.628   6.042 -0.4533 -0.4170  0.5668
17301SOL    HW263628   0.915  10.493   5.986  0.3631 -0.1057  0.3482
17302SOL     OW63629   2.877   0.800   8.263  0.8787  0.1391 -0.6112
17302SOL    HW163630   2.934   0.877   8.261  0.4119  0.8191  3.4320
17302SOL    HW263631   2.790   0.834   8.280 -0.0306 -1.1551 -2.3527
17303SOL     OW63632   3.243   4.846   1.889 -0.3298  0.5866  0.9550
17303SOL    HW163633   3.253   4.894   1.971  2.2703  2.0558 -0.1001
17303SOL    HW263634   3.276   4.905   1.822 -1.4180 -0.9519 -1.0681
17304SOL     OW63635   8.163   5.507  10.076  0.4170  0.2113  0.2314
17304SOL    HW163636   8.092   5.519  10.012  0.4609  0.3577  0.2115
17304SOL    HW263637   8.242   5.538  10.031  0.2811  1.3579  0.7438
17305SOL     OW63638   8.222   6.294   6.110  0.2310  0.1954 -0.3533
17305SOL    HW163639   8.217   6.206   6.073 -1.1072  0.6833 -1.4093
17305SOL    HW263640   8.287   6.339   6.055  1.5436 -0.3328  0.7057
17306SOL     OW63641   7.424   1.612   0.831  0.3752 -0.1863  0.2646
17306SOL    HW163642   7.498   1.576   0.782  0.3806  0.2005 -0.0258
17306SOL    HW263643   7.370   1.655   0.764 -0.3819 -0.9001  0.4006
17307SOL     OW63644   4.254   0.268   0.577  0.4471  0.0990  0.0940
17307SOL    HW163645   4.310   0.343   0.596  0.3903  0.0213  0.5646
17307SOL    HW263646   4.313   0.193   0.579  0.2571 -0.0285  0.9744
17308SOL     OW63647   7.737   3.763   0.732 -0.3575 -0.1269  0.1322
17308SOL    HW163648   7.788   3.767   0.813 -0.1834 -1.6075  0.1166
17308SOL    HW263649   7.646   3.752   0.761 -0.1010 -2.7241  0.1825
17309SOL     OW63650   8.208   3.361   8.407  0.4098 -0.2310  0.0770
17309SOL    HW163651   8.282   3.417   8.431 -0.2648  0.2774  1.0155
17309SOL    HW263652   8.142   3.378   8.473 -1.0999  0.3659 -1.5086
17310SOL     OW63653   3.176  10.252   7.904 -0.0443 -0.2770 -0.4875
17310SOL    HW163654   3.266  10.228   7.927 -0.3339  0.1822  1.2465
17310SOL    HW263655   3.137  10.171   7.872  0.2577 -1.0939  1.1353
17311SOL     OW63656   4.448   5.063   8.030 -0.1039  0.1734 -0.0626
17311SOL    HW163657   4.397   4.999   7.979 -0.3151  0.7904 -0.6394
17311SOL    HW263658   4.536   5.059   7.992  0.1224 -0.4252  0.5061
17312SOL     OW63659   4.530   0.018   1.702  0.2399 -0.1689 -0.3616
17312SOL    HW163660   4.441   0.009   1.670 -0.3996  2.8532  0.3202
17312SOL    HW263661   4.521   0.023   1.797  0.9751  1.3420 -0.3503
17313SOL     OW63662  10.072   4.796   1.548 -0.1130 -0.0239 -0.1980
17313SOL    HW163663  10.017   4.862   1.591  1.2508  0.5025  0.8217
17313SOL    HW263664  10.103   4.741   1.620  2.4170  1.0074 -0.3919
17314SOL     OW63665   9.711   1.115   0.000  0.0638 -0.1569 -0.1392
17314SOL    HW163666   9.671   1.047  -0.053  0.4493 -0.7502  0.3168
17314SOL    HW263667   9.645   1.183   0.006 -0.8072 -1.0311  0.4328
17315SOL     OW63668   8.552   7.703   1.342  0.1400  0.3540  0.0621
17315SOL    HW163669   8.554   7.799   1.341  0.1118  0.3476 -0.4926
17315SOL    HW263670   8.590   7.677   1.258 -3.1598 -0.0614 -1.4568
17316SOL     OW63671   7.916  10.281   9.342 -0.2731 -0.3867  0.8203
17316SOL    HW163672   7.942  10.210   9.283  0.1358  0.4774 -0.0816
17316SOL    HW263673   7.919  10.243   9.429  0.0274 -1.4497  0.3607
17317SOL     OW63674   1.299   7.939   5.926  0.0970 -0.1603 -0.5177
17317SOL    HW163675   1.372   7.884   5.899 -1.3328 -1.8305 -1.1318
17317SOL    HW263676   1.270   7.900   6.009  0.1778  0.7962 -0.0229
17318SOL     OW63677   8.275   5.619   3.802  0.7017 -0.0871 -0.7412
17318SOL    HW163678   8.323   5.701   3.801 -0.0243  0.3972 -3.1386
17318SOL    HW263679   8.254   5.602   3.710 -2.0638 -1.2117 -0.0266
17319SOL     OW63680   0.428   3.477   1.376 -0.0790  0.4652 -0.2378
17319SOL    HW163681   0.385   3.394   1.355  0.5069  0.0682  0.1101
17319SOL    HW263682   0.361   3.528   1.421  0.1550 -0.6368  1.4552
17320SOL     OW63683   8.857   9.790   6.823 -0.2094  0.1047  0.0128
17320SOL    HW163684   8.791   9.763   6.759 -0.3774 -0.3199  0.3618
17320SOL    HW263685   8.918   9.716   6.827  1.5612  1.3343 -1.9584
17321SOL     OW63686   9.550   5.775   0.317  0.4271  0.5898  0.8006
17321SOL    HW163687   9.474   5.833   0.325 -2.9326 -3.3687  1.2545
17321SOL    HW263688   9.524   5.711   0.251  3.5257 -0.8745  0.8217
17322SOL     OW63689   1.240   2.718   9.876  0.7511  0.2328 -0.7674
17322SOL    HW163690   1.188   2.659   9.823  2.5165 -1.0367 -1.1799
17322SOL    HW263691   1.280   2.778   9.813 -1.9626  2.7907 -0.2692
17323SOL     OW63692   7.456   2.592   0.698  0.3690 -0.1103  0.1828
17323SOL    HW163693   7.530   2.530   0.702  1.6815  1.4332  0.9439
17323SOL    HW263694   7.483   2.664   0.754 -2.0622  0.2146  1.0140
17324SOL     OW63695   2.597   1.482   6.736  0.3379 -0.0486 -0.3028
17324SOL    HW163696   2.671   1.542   6.735  1.7109 -1.6585 -0.2757
17324SOL    HW263697   2.544   1.506   6.660  2.0688 -0.2432 -1.6268
17325SOL     OW63698   5.609  11.567   9.700 -0.1184  0.2456 -0.5576
17325SOL    HW163699   5.594  11.641   9.642  0.0232  1.7303  1.2088
17325SOL    HW263700   5.542  11.576   9.768  0.5415 -0.6735  0.2426
17326SOL     OW63701   6.208   3.913   8.432  0.1852 -0.1607  0.3851
17326SOL    HW163702   6.248   3.969   8.365 -1.3442  1.6530  0.9042
17326SOL    HW263703   6.209   3.826   8.393  0.4584  0.6148 -1.4894
17327SOL     OW63704   6.672   5.858   4.971  0.3812 -0.3100 -0.1434
17327SOL    HW163705   6.735   5.892   5.034 -0.6352 -0.1108  0.7880
17327SOL    HW263706   6.696   5.766   4.961  2.5041  0.3487 -1.9033
17328SOL     OW63707   0.943   5.178   8.450 -0.6294 -0.4584 -0.3596
17328SOL    HW163708   0.926   5.203   8.359 -1.2581  0.3122 -0.0442
17328SOL    HW263709   0.906   5.250   8.501 -0.3521 -0.9272  0.5097
17329SOL     OW63710   2.747   0.196   4.117  0.3067 -0.0421 -0.3133
17329SOL    HW163711   2.713   0.188   4.028  0.5169  3.2326 -0.7992
17329SOL    HW263712   2.798   0.276   4.116 -1.4428  1.3456  3.2587
17330SOL     OW63713  10.508  10.848   7.166  0.0701  0.0216 -0.4715
17330SOL    HW163714  10.521  10.822   7.257 -1.1707  1.8538  0.2859
17330SOL    HW263715  10.418  10.820   7.146  0.5836 -1.0422 -1.4199
17331SOL     OW63716  10.674   5.644   1.781  0.5326  0.0559  0.0375
17331SOL    HW163717  10.644   5.575   1.722 -0.0889 -1.2609  1.8016
17331SOL    HW263718  10.766   5.623   1.797  0.2737 -0.5718  0.7882
17332SOL     OW63719  11.058   3.715   8.260  0.4212 -0.5879  0.3158
17332SOL    HW163720  11.152   3.710   8.278  0.6210  1.1891 -0.0490
17332SOL    HW263721  11.052   3.738   8.168 -0.3989 -1.3111  0.1811
17333SOL     OW63722  11.464   8.728   9.171  0.1072 -0.3074 -0.0150
17333SOL    HW163723  11.493   8.691   9.087 -2.3284 -1.0031 -0.6264
17333SOL    HW263724  11.503   8.815   9.173  1.4086 -0.8117 -1.1649
17334SOL     OW63725   0.022   2.596   9.784  0.1360 -0.2633  0.2185
17334SOL    HW163726  -0.028   2.540   9.844 -2.0907 -0.7134 -1.8686
17334SOL    HW263727   0.042   2.539   9.710  3.0538  0.1959  0.5596
17335SOL     OW63728  10.475   3.041   3.554 -0.3695  0.2072 -0.5251
17335SOL    HW163729  10.399   2.991   3.525 -0.6795  1.6541 -2.3415
17335SOL    HW263730  10.502   3.091   3.477  4.3083 -2.4569 -0.9482
17336SOL     OW63731  10.718   1.109   9.882 -0.2646  0.0533  0.1248
17336SOL    HW163732  10.719   1.140   9.791  3.1879  1.6171  0.5236
17336SOL    HW263733  10.673   1.178   9.930 -1.1476 -0.2641 -0.2275
17337SOL     OW63734   1.604   7.536   2.002  0.0014  0.3988  0.1411
17337SOL    HW163735   1.661   7.465   1.973  0.1449  0.9627 -1.0239
17337SOL    HW263736   1.532   7.536   1.939  0.4823  1.8688 -0.4589
17338SOL     OW63737   6.466   4.311   4.205  0.3269  0.5216  0.8236
17338SOL    HW163738   6.454   4.226   4.248  0.7338 -0.4157 -0.8488
17338SOL    HW263739   6.387   4.324   4.153  1.0135  0.3180 -0.2966
17339SOL     OW63740  10.096   8.527   9.193 -0.5241  0.1730  0.1777
17339SOL    HW163741  10.116   8.445   9.146  0.6642  0.0938  0.7855
17339SOL    HW263742  10.135   8.595   9.139  1.4796  0.0267  1.3085
17340SOL     OW63743   2.760  10.475   3.239  0.6713  0.7318 -0.4356
17340SOL    HW163744   2.768  10.415   3.313  1.2492  0.6439 -0.5623
17340SOL    HW263745   2.683  10.529   3.260  1.2445  1.1911  0.5870
17341SOL     OW63746   9.519   6.334   6.357  0.3752 -0.2641  0.1338
17341SOL    HW163747   9.597   6.287   6.386  0.8773 -0.0137 -0.7413
17341SOL    HW263748   9.456   6.266   6.336  0.4092 -0.4756  0.7314
17342SOL     OW63749   3.407  11.818   2.366  0.2441 -0.3514 -0.3493
17342SOL    HW163750   3.486  11.865   2.339 -0.8697  2.5426  0.9464
17342SOL    HW263751   3.425  11.790   2.456 -0.5852  1.5788  0.4871
17343SOL     OW63752   8.998   2.202   8.422 -0.8638  1.2301 -0.6562
17343SOL    HW163753   8.959   2.122   8.386 -1.2112  1.5760 -1.0578
17343SOL    HW263754   8.940   2.227   8.494  0.3524  0.0044  0.8116
17344SOL     OW63755   5.471   4.378  10.720  0.5210 -0.1987 -0.2561
17344SOL    HW163756   5.488   4.297  10.673  2.1946  0.6224 -1.1812
17344SOL    HW263757   5.556   4.423  10.720 -0.2653  1.3555  0.5945
17345SOL     OW63758   3.400   4.243  10.315  0.0403  0.2193 -0.3332
17345SOL    HW163759   3.451   4.304  10.367 -1.5566  1.0105  0.3511
17345SOL    HW263760   3.436   4.157  10.338  0.2983  0.6585  1.0083
17346SOL     OW63761   0.870   8.407   7.742 -0.7714 -0.0033  0.4034
17346SOL    HW163762   0.946   8.432   7.794 -0.5411 -0.9953  0.5627
17346SOL    HW263763   0.851   8.483   7.688  0.0646  0.4050  0.6803
17347SOL     OW63764  11.681  11.735   5.349 -0.4691  0.4175  0.2159
17347SOL    HW163765  11.690  11.662   5.411  0.5262 -1.7492 -2.2487
17347SOL    HW263766  11.761  11.786   5.360 -0.5296  0.3468  1.0247
17348SOL     OW63767   9.367   5.561   6.184 -0.1070  0.0744  0.1967
17348SOL    HW163768   9.459   5.567   6.211 -0.3260 -2.7637  1.9186
17348SOL    HW263769   9.366   5.493   6.117 -0.9096  0.4820 -0.2140
17349SOL     OW63770  11.701   0.903   9.948  0.1480 -0.2596 -0.1531
17349SOL    HW163771  11.742   0.827   9.990 -0.4964 -0.7735 -0.4326
17349SOL    HW263772  11.678   0.961  10.020  1.0145 -0.1324  0.0356
17350SOL     OW63773  11.446   4.311  11.813 -0.2832 -0.6275 -0.3058
17350SOL    HW163774  11.360   4.311  11.855 -0.8491 -0.3044 -1.4259
17350SOL    HW263775  11.496   4.245  11.861 -0.6517  0.2477  1.3362
17351SOL     OW63776   4.490   2.490   8.009  0.6487 -0.4824  0.8666
17351SOL    HW163777   4.575   2.479   7.966  0.7615  1.1346  0.5838
17351SOL    HW263778   4.432   2.429   7.964  0.7819  1.0392 -1.6225
17352SOL     OW63779   4.374  10.484   0.623 -0.7548  0.1356  0.0173
17352SOL    HW163780   4.431  10.508   0.549 -0.7112 -1.2974 -0.4454
17352SOL    HW263781   4.338  10.567   0.653 -0.8160  0.7630 -1.6593
17353SOL     OW63782   9.017   7.154   1.353  0.1776 -0.1124 -0.2736
17353SOL    HW163783   9.010   7.155   1.448  0.3288  1.7389 -0.2497
17353SOL    HW263784   8.969   7.075   1.326 -0.5905 -0.1956  1.2641
17354SOL     OW63785   0.491   7.924   7.845 -0.5923  0.1649  0.9089
17354SOL    HW163786   0.425   7.942   7.911 -1.9775 -1.3288  0.0158
17354SOL    HW263787   0.539   7.848   7.878 -1.4414 -0.7325  0.1340
17355SOL     OW63788   3.901  10.423   8.356 -0.0160 -0.1282 -0.1126
17355SOL    HW163789   3.922  10.499   8.410 -0.0128 -0.3358  0.1821
17355SOL    HW263790   3.961  10.354   8.387  0.6637  0.0213 -1.0352
17356SOL     OW63791   5.405   4.033   2.344 -0.3758  0.1768  0.0668
17356SOL    HW163792   5.390   4.032   2.250 -0.3186  0.9211  0.0485
17356SOL    HW263793   5.345   3.966   2.379 -0.8619  0.3556 -0.4198
17357SOL     OW63794   0.559   1.759   0.344 -0.5172 -0.2321  0.0305
17357SOL    HW163795   0.533   1.690   0.406  0.3926  0.8015  1.6333
17357SOL    HW263796   0.500   1.832   0.363  0.3330  0.4005  0.3170
17358SOL     OW63797   8.526   7.112   9.954 -0.5005  0.6567  0.4615
17358SOL    HW163798   8.453   7.057   9.982  0.7556 -1.5068 -0.3163
17358SOL    HW263799   8.522   7.110   9.858  0.9059  0.0386  0.4007
17359SOL     OW63800   0.151  10.637   2.356 -0.4558  0.1823 -0.4477
17359SOL    HW163801   0.132  10.695   2.282  1.0905  2.4597  0.7955
17359SOL    HW263802   0.189  10.695   2.422 -0.4431 -2.0050  1.6004
17360SOL     OW63803   6.487   3.181   7.866 -0.4016 -0.8207 -0.5025
17360SOL    HW163804   6.422   3.217   7.927  2.2332  0.7665  1.5908
17360SOL    HW263805   6.529   3.258   7.828  1.1706 -1.7530 -0.7372
17361SOL     OW63806   2.333   6.729   4.042 -0.2124  0.2184 -0.6619
17361SOL    HW163807   2.310   6.714   4.133 -1.0911 -0.9387 -1.0533
17361SOL    HW263808   2.341   6.642   4.004  0.1176  0.6839 -1.7003
17362SOL     OW63809   5.797   3.621   8.805  0.0180 -0.0911  0.2917
17362SOL    HW163810   5.711   3.578   8.804  0.3708 -0.9335  2.0323
17362SOL    HW263811   5.824   3.618   8.897  1.7633  0.4933 -0.1663
17363SOL     OW63812   6.753   9.269   7.124  0.5291  0.2326 -0.3944
17363SOL    HW163813   6.799   9.185   7.130  0.4369  0.1565 -0.7204
17363SOL    HW263814   6.817   9.334   7.154  0.8787  0.1367 -0.9144
17364SOL     OW63815   7.854   7.761   2.949 -0.1669 -0.1992  0.5371
17364SOL    HW163816   7.880   7.808   2.869 -0.4243 -0.4394  0.3115
17364SOL    HW263817   7.897   7.809   3.020  0.3180 -0.1755  0.2261
17365SOL     OW63818   2.540   5.277   2.298 -0.4641 -0.3142  0.0094
17365SOL    HW163819   2.559   5.317   2.213 -1.8657  1.9834  0.7080
17365SOL    HW263820   2.624   5.240   2.326  0.9086  2.0151 -0.7808
17366SOL     OW63821   5.989   2.618   1.488  0.3590 -0.4826  0.2924
17366SOL    HW163822   5.944   2.619   1.403  0.8268 -1.0995  0.0276
17366SOL    HW263823   5.948   2.689   1.537 -0.6365 -0.7631 -0.0851
17367SOL     OW63824  10.572  11.052   5.970 -0.8969 -0.0502  0.4860
17367SOL    HW163825  10.505  11.078   6.033 -0.4203  0.9596  0.5965
17367SOL    HW263826  10.598  11.133   5.928  2.5993  0.1753  2.7407
17368SOL     OW63827  10.027   0.831   9.755  0.4364  0.0815  0.3020
17368SOL    HW163828  10.087   0.776   9.705  0.7846  0.5960  0.1516
17368SOL    HW263829   9.946   0.780   9.760 -0.2695  0.7572 -2.4355
17369SOL     OW63830  10.481   4.786   2.485  0.0597  0.5798  0.1926
17369SOL    HW163831  10.540   4.716   2.459  0.9862  0.8685  1.4352
17369SOL    HW263832  10.394   4.747   2.480  0.5549 -0.6632  0.8068
17370SOL     OW63833   3.549  10.529   4.373 -0.1342  0.1555 -0.0738
17370SOL    HW163834   3.510  10.563   4.293  0.0107 -0.3023 -0.3381
17370SOL    HW263835   3.495  10.566   4.443  0.6121  1.7578 -0.2891
17371SOL     OW63836  10.680   6.202   6.799 -0.4724  0.8964 -0.4659
17371SOL    HW163837  10.648   6.281   6.842 -0.5870  1.1003 -0.9255
17371SOL    HW263838  10.685   6.225   6.707 -1.1067  0.1823 -0.6902
17372SOL     OW63839   7.401   6.354   2.597  0.0941 -0.0973  0.4457
17372SOL    HW163840   7.456   6.278   2.580  1.1758  0.3303  1.8335
17372SOL    HW263841   7.352   6.331   2.676 -0.1392  0.3492  0.4332
17373SOL     OW63842  11.729   5.629   6.119 -0.0560  0.1750  0.1865
17373SOL    HW163843  11.730   5.694   6.190 -0.6406  0.0870  0.2778
17373SOL    HW263844  11.806   5.574   6.136 -1.2250 -1.0452  1.8766
17374SOL     OW63845   2.720   7.753   8.861  0.2120 -0.0634 -0.1838
17374SOL    HW163846   2.635   7.715   8.840  0.8841 -1.7889  0.1046
17374SOL    HW263847   2.777   7.727   8.788  0.6713  0.5343 -0.0538
17375SOL     OW63848   5.597   3.497  11.597 -0.0576 -0.0005 -0.6602
17375SOL    HW163849   5.589   3.493  11.502 -0.3283  0.8595 -0.6856
17375SOL    HW263850   5.528   3.558  11.624  1.3625  1.4673 -0.1295
17376SOL     OW63851   8.158  11.061   2.420  0.0261 -0.0222 -0.0315
17376SOL    HW163852   8.209  11.114   2.358  1.0204 -0.4335  0.4113
17376SOL    HW263853   8.073  11.104   2.424  0.5419  1.0666 -0.3113
17377SOL     OW63854  11.193   1.398   0.042  0.3656  0.0006 -0.1731
17377SOL    HW163855  11.197   1.397   0.138 -0.4630  0.7656 -0.1186
17377SOL    HW263856  11.283   1.412   0.014  0.8479 -1.6450  0.4499
17378SOL     OW63857   0.643   5.100   7.668  0.3174  0.2621  0.3518
17378SOL    HW163858   0.728   5.068   7.636  0.9096 -0.3941  2.4195
17378SOL    HW263859   0.614   5.032   7.730 -2.0035  0.2007 -0.7026
17379SOL     OW63860   3.371   3.059   5.012 -0.7348 -0.3461  0.7822
17379SOL    HW163861   3.295   3.101   5.054 -0.9358  0.2239 -0.1166
17379SOL    HW263862   3.338   2.972   4.986 -1.5412  0.4040 -0.8509
17380SOL     OW63863   2.461   6.444   5.164 -0.0397 -0.4457 -0.3883
17380SOL    HW163864   2.374   6.482   5.158  0.1261  0.0764  0.3001
17380SOL    HW263865   2.456   6.363   5.114 -0.6205  0.0957 -1.2322
17381SOL     OW63866  11.049   4.281   0.012  0.1388 -0.0136 -0.0787
17381SOL    HW163867  11.073   4.335  -0.063 -1.6907 -0.0026 -0.7075
17381SOL    HW263868  11.085   4.195  -0.008 -0.4901 -0.0597 -1.0791
17382SOL     OW63869   2.412   5.054  10.422 -0.2290 -0.5732 -0.1502
17382SOL    HW163870   2.464   5.027  10.498  0.8406  0.7314 -0.3751
17382SOL    HW263871   2.378   4.972  10.386 -0.2054 -1.2720  1.3281
17383SOL     OW63872   9.814   4.647  10.585 -0.0273 -0.1223 -0.7146
17383SOL    HW163873   9.754   4.614  10.518  1.2248  0.2165 -2.0619
17383SOL    HW263874   9.895   4.598  10.571 -0.0708 -0.8529  1.3207
17384SOL     OW63875   8.191   5.537  10.626  0.1598 -0.0601 -0.2531
17384SOL    HW163876   8.198   5.520  10.532  0.0777 -0.6874 -0.1513
17384SOL    HW263877   8.272   5.584  10.648  0.0767  0.2871 -0.6755
17385SOL     OW63878   4.553   2.737  11.708 -0.6382  0.0716 -0.2782
17385SOL    HW163879   4.566   2.814  11.653 -0.7520 -0.3205 -0.8584
17385SOL    HW263880   4.462   2.711  11.692 -1.1089  0.7501  1.1280
17386SOL     OW63881  11.192   0.367   7.258  0.3376  0.0341 -0.0400
17386SOL    HW163882  11.138   0.311   7.202  0.0211 -0.0991  0.3966
17386SOL    HW263883  11.243   0.420   7.196 -0.0699 -0.0519 -0.4573
17387SOL     OW63884   5.465   6.784   4.367 -0.0790 -0.0007  0.3562
17387SOL    HW163885   5.387   6.766   4.315  0.0686  0.2616  0.0317
17387SOL    HW263886   5.524   6.711   4.348  0.1634  0.3421 -0.2327
17388SOL     OW63887   4.243   2.542   4.640  0.0121 -0.2055  0.2400
17388SOL    HW163888   4.206   2.569   4.556 -0.1111 -0.5102  0.1920
17388SOL    HW263889   4.175   2.488   4.680 -0.4590  0.9965  1.1309
17389SOL     OW63890   6.254   6.527  10.514  0.1126  0.4063  0.3189
17389SOL    HW163891   6.178   6.545  10.568 -0.4150  1.5442 -0.7591
17389SOL    HW263892   6.218   6.488  10.434  0.8110 -0.5419  0.4458
17390SOL     OW63893   9.531   9.834   7.128 -0.9104 -0.4843  0.2172
17390SOL    HW163894   9.568   9.803   7.045 -2.0204 -0.1010 -0.4474
17390SOL    HW263895   9.484   9.914   7.105  0.2299  0.6023  1.5558
17391SOL     OW63896   7.370  10.776   8.979 -0.3882 -0.0074 -1.1202
17391SOL    HW163897   7.320  10.703   9.015 -0.4929  0.6379  0.1219
17391SOL    HW263898   7.428  10.736   8.914 -0.7316 -1.1300 -0.7618
17392SOL     OW63899   0.500   1.143   1.471 -0.1848 -0.0823 -0.3737
17392SOL    HW163900   0.587   1.147   1.433 -0.7797 -0.2199 -1.7968
17392SOL    HW263901   0.504   1.068   1.532  0.6671 -0.0974 -0.4330
17393SOL     OW63902   7.129   1.014   2.980 -0.5607  0.4986 -0.2012
17393SOL    HW163903   7.161   0.931   3.013 -0.3792  0.6717  0.0613
17393SOL    HW263904   7.034   1.004   2.978 -0.5871  0.5768  0.6215
17394SOL     OW63905   5.841   5.153   5.942 -0.4277 -0.1511  0.3747
17394SOL    HW163906   5.846   5.249   5.947  0.4916 -0.1989  0.4573
17394SOL    HW263907   5.931   5.123   5.955 -0.4309 -0.9628 -1.1758
17395SOL     OW63908   0.854   0.534   4.066  0.3195  0.3884  0.5820
17395SOL    HW163909   0.891   0.605   4.013  0.6461 -1.7900 -2.3229
17395SOL    HW263910   0.797   0.486   4.007  0.6998 -2.2397  2.1626
17396SOL     OW63911   6.849   9.450   3.340  0.2724 -0.1893  0.3315
17396SOL    HW163912   6.896   9.420   3.417  3.3949 -0.4917 -1.5336
17396SOL    HW263913   6.866   9.544   3.336  0.3061 -0.2124 -0.1116
17397SOL     OW63914   8.681   2.026   0.593 -0.0690 -0.0154 -0.3861
17397SOL    HW163915   8.764   1.978   0.591 -0.7298 -1.3239  1.3058
17397SOL    HW263916   8.638   1.997   0.673 -0.0907  4.1866  1.4014
17398SOL     OW63917   9.911  11.211   5.653 -0.0283 -0.3864  0.6332
17398SOL    HW163918   9.910  11.129   5.603  1.6575  0.8383 -1.6233
17398SOL    HW263919   9.866  11.274   5.596 -2.8581  0.0225  3.0458
17399SOL     OW63920   0.786   2.105   4.606 -0.1692 -0.4764 -0.3520
17399SOL    HW163921   0.758   2.127   4.517 -1.8861  0.8112  0.4476
17399SOL    HW263922   0.876   2.138   4.612 -0.0163 -0.6208 -1.5991
17400SOL     OW63923  10.468   0.558   4.300  0.1547 -0.4018  0.0882
17400SOL    HW163924  10.476   0.640   4.253 -0.9210 -1.0872 -1.3363
17400SOL    HW263925  10.437   0.495   4.235 -0.8890 -1.5067  1.5777
17401SOL     OW63926   9.845   5.424   4.873 -0.2699  0.3580 -0.5067
17401SOL    HW163927   9.804   5.479   4.806  0.9532 -0.6331 -2.1586
17401SOL    HW263928   9.896   5.484   4.927 -1.3899  1.1914 -0.3420
17402SOL     OW63929   2.913   1.780   2.846 -0.0810  0.3376  0.1216
17402SOL    HW163930   2.821   1.767   2.870 -0.2263  1.2228  0.0880
17402SOL    HW263931   2.961   1.724   2.905 -0.6738 -0.5395 -0.2104
17403SOL     OW63932  11.142   5.027  10.765  0.1407  0.0020 -0.0158
17403SOL    HW163933  11.095   5.051  10.845  0.2826  1.1926 -0.2811
17403SOL    HW263934  11.144   4.931  10.767 -2.1109 -0.1071  0.1210
17404SOL     OW63935  11.779   4.275   7.451  0.0591 -0.5264 -0.2025
17404SOL    HW163936  11.687   4.269   7.477 -0.0921  1.1114 -0.2580
17404SOL    HW263937  11.815   4.343   7.508  0.6204  0.5646 -1.7854
17405SOL     OW63938   7.208   1.498   1.285 -0.1376  0.2570  0.4938
17405SOL    HW163939   7.239   1.528   1.371 -0.9239 -0.9335  1.2272
17405SOL    HW263940   7.282   1.511   1.227  0.9016 -0.2288  1.6558
17406SOL     OW63941   1.620   4.023   3.244  0.2343  0.0225  0.4681
17406SOL    HW163942   1.639   4.045   3.153 -1.9906  0.3757  0.0457
17406SOL    HW263943   1.609   4.107   3.287 -1.3562 -0.1452  0.4345
17407SOL     OW63944   6.829   7.660   5.408  0.3769 -0.5147  0.2557
17407SOL    HW163945   6.753   7.688   5.357  1.0889  0.5047 -0.2706
17407SOL    HW263946   6.795   7.651   5.497 -0.1258  1.0316  0.2497
17408SOL     OW63947   3.712   9.967   4.302  0.3315  0.1768  1.0396
17408SOL    HW163948   3.784  10.028   4.319 -0.1625  0.6827  1.3423
17408SOL    HW263949   3.638  10.023   4.277  0.2113 -0.3761  0.1244
17409SOL     OW63950   5.483   5.105   2.780 -0.0478  0.0135  0.2422
17409SOL    HW163951   5.456   5.110   2.872  0.8076  2.0543  0.4309
17409SOL    HW263952   5.419   5.159   2.734  0.4045  0.2185 -0.1456
17410SOL     OW63953   2.452   1.662  10.876  0.0732 -0.5241 -0.3282
17410SOL    HW163954   2.391   1.706  10.817  0.0473 -1.2390 -0.8511
17410SOL    HW263955   2.460   1.721  10.951 -0.7405 -0.1143 -0.5519
17411SOL     OW63956  10.708   8.777   0.624  0.4033  0.2847  0.3475
17411SOL    HW163957  10.716   8.685   0.602  0.8152 -0.0825  1.9351
17411SOL    HW263958  10.778   8.820   0.575  1.1944 -0.4671  0.8036
17412SOL     OW63959   2.139   4.842   3.963  0.7074 -0.2318  0.5241
17412SOL    HW163960   2.100   4.809   3.882 -0.3773  1.4945  0.2766
17412SOL    HW263961   2.131   4.770   4.025 -0.5202 -0.8249 -0.2850
17413SOL     OW63962   7.542   4.981   4.442  0.0371 -0.1147 -0.6718
17413SOL    HW163963   7.465   5.036   4.433  0.2110  0.3096  0.2544
17413SOL    HW263964   7.546   4.960   4.536 -0.1706 -1.9258 -1.0183
17414SOL     OW63965   2.186  11.851   6.436  0.4789  0.1306  0.1023
17414SOL    HW163966   2.132  11.902   6.376 -0.9714 -0.4475  0.8365
17414SOL    HW263967   2.225  11.916   6.495  1.0454  0.6047 -0.7755
17415SOL     OW63968   3.157   8.218   7.612 -0.0160 -0.4226  0.6013
17415SOL    HW163969   3.154   8.255   7.701 -1.4042 -0.5640  0.6478
17415SOL    HW263970   3.185   8.291   7.557  0.6924 -0.2833  1.1366
17416SOL     OW63971   7.056   6.220   7.603 -0.2253  1.4696 -0.5355
17416SOL    HW163972   7.117   6.238   7.532 -2.1490  0.1968 -2.6549
17416SOL    HW263973   7.005   6.145   7.573  0.0962 -0.4490  3.0607
17417SOL     OW63974  10.200   6.410  11.022 -0.2543  0.1642 -0.9520
17417SOL    HW163975  10.228   6.457  11.100 -0.3896  1.3639 -1.5970
17417SOL    HW263976  10.146   6.338  11.055 -1.1365  1.2407  0.0008
17418SOL     OW63977   1.185   6.403   6.375 -0.2460 -0.1228 -0.0345
17418SOL    HW163978   1.249   6.455   6.423 -1.0017  0.6466  0.1667
17418SOL    HW263979   1.234   6.327   6.344  1.0050  0.9227 -0.7185
17419SOL     OW63980  10.192   9.219   9.701 -0.4641 -0.2500  0.2295
17419SOL    HW163981  10.281   9.217   9.738 -1.1155  0.6070  1.9397
17419SOL    HW263982  10.174   9.128   9.677  0.3507 -0.6866  1.1847
17420SOL     OW63983   9.833   6.341   2.702  0.3639 -0.0822  0.1142
17420SOL    HW163984   9.791   6.309   2.782  1.3706 -0.5771  0.4679
17420SOL    HW263985   9.761   6.360   2.642 -0.3449 -1.4865  0.4834
17421SOL     OW63986   2.324   3.636   9.014 -0.1725  0.0420  0.2554
17421SOL    HW163987   2.229   3.621   9.010  0.2325 -3.1885 -0.8206
17421SOL    HW263988   2.340   3.707   8.952 -1.8912  0.8258  0.6575
17422SOL     OW63989   5.752   3.430   1.475  0.2482 -0.3869 -0.0177
17422SOL    HW163990   5.725   3.402   1.387  0.1522 -1.4666  0.3535
17422SOL    HW263991   5.704   3.512   1.488  2.1897  1.2008 -1.9763
17423SOL     OW63992   0.199   4.415   0.023 -0.2951  0.2799  0.3629
17423SOL    HW163993   0.284   4.445  -0.008 -0.4718  0.6910  0.2672
17423SOL    HW263994   0.136   4.470  -0.023 -0.5810  0.5236  1.0288
17424SOL     OW63995   3.547   9.490   6.680  0.4701  0.0017 -0.0517
17424SOL    HW163996   3.537   9.517   6.772 -0.0075  1.5873 -0.5264
17424SOL    HW263997   3.547   9.395   6.682 -0.3019  0.0095  1.5231
17425SOL     OW63998   1.586  10.573  11.582 -0.1784  0.4345 -0.1108
17425SOL    HW163999   1.493  10.594  11.572 -0.5859 -1.7063 -1.4473
17425SOL    HW264000   1.631  10.656  11.570 -1.9000  1.5548  0.6974
17426SOL     OW64001   2.239   7.440   7.451  0.5531 -0.1548 -0.2142
17426SOL    HW164002   2.229   7.421   7.357 -2.4105  2.1339 -0.5239
17426SOL    HW264003   2.210   7.360   7.495  2.8979 -1.6181 -1.1328
17427SOL     OW64004   5.457   3.120   7.710  0.3195 -0.0933  0.5635
17427SOL    HW164005   5.410   3.063   7.771  2.9941 -1.3993  1.5190
17427SOL    HW264006   5.440   3.082   7.624 -0.0850 -0.7408  0.9220
17428SOL     OW64007  10.982   1.597   2.313 -0.3635  0.2808  0.0212
17428SOL    HW164008  10.916   1.658   2.347  1.4784  0.5458  3.6422
17428SOL    HW264009  10.943   1.510   2.324 -0.6916  0.5093  0.7321
17429SOL     OW64010   4.639   6.915  10.308 -0.0736 -0.2345  0.2578
17429SOL    HW164011   4.694   6.992  10.298 -1.1199  0.5273  0.1910
17429SOL    HW264012   4.680   6.849  10.252 -0.3267  0.9271 -1.3752
17430SOL     OW64013   3.466   1.700   4.358 -0.1146  0.5466 -0.0384
17430SOL    HW164014   3.469   1.612   4.321 -1.5238  1.1062 -1.5941
17430SOL    HW264015   3.556   1.716   4.388  0.2324 -1.2786  0.0003
17431SOL     OW64016   2.885   5.845   9.439  0.4359 -0.2162  0.0377
17431SOL    HW164017   2.868   5.752   9.452  0.2419 -0.4767 -1.7498
17431SOL    HW264018   2.813   5.875   9.383  1.0247  0.7770 -0.2229
17432SOL     OW64019   4.555   0.974   6.485  0.5681 -0.1851  0.0434
17432SOL    HW164020   4.491   0.908   6.512 -0.5525 -0.1629 -2.3006
17432SOL    HW264021   4.637   0.925   6.475 -0.1701 -1.2411 -1.3255
17433SOL     OW64022   6.571   5.530   7.890 -0.1093  0.1124 -0.1968
17433SOL    HW164023   6.635   5.526   7.820  0.9017 -0.9372  0.7224
17433SOL    HW264024   6.490   5.497   7.851 -0.3432  2.1389 -1.5682
17434SOL     OW64025   2.674   7.477   4.503 -0.1203 -0.1883  0.1384
17434SOL    HW164026   2.634   7.396   4.472 -0.9173  0.7166 -1.3491
17434SOL    HW264027   2.768   7.458   4.507 -0.0336 -0.5846 -2.3415
17435SOL     OW64028   4.405   1.734  10.485  0.5219  0.2528 -0.0627
17435SOL    HW164029   4.462   1.799  10.525  0.0239 -0.0727  1.1985
17435SOL    HW264030   4.384   1.772  10.399  1.5720  0.9684 -0.0313
17436SOL     OW64031   6.592   1.731   1.691  0.5882  0.7529  0.0120
17436SOL    HW164032   6.551   1.735   1.604  1.7701  0.0238 -0.6138
17436SOL    HW264033   6.582   1.639   1.717  3.7641 -0.0815 -1.2111
17437SOL     OW64034   1.700   2.749   0.733  0.5274 -0.2839  0.3144
17437SOL    HW164035   1.703   2.786   0.821 -1.8196  0.3373  0.1964
17437SOL    HW264036   1.652   2.666   0.744  1.2333 -0.7733 -0.2154
17438SOL     OW64037  11.802   4.406   7.910  0.3505  0.1897  0.2579
17438SOL    HW164038  11.873   4.470   7.900  0.0426  0.6664  0.9549
17438SOL    HW264039  11.735   4.434   7.848  0.3401  0.3772  0.3511
17439SOL     OW64040   7.413   9.819   3.148  0.3726 -0.4722  0.7242
17439SOL    HW164041   7.454   9.867   3.220 -0.0227 -0.0174  0.6482
17439SOL    HW264042   7.337   9.871   3.125  0.8495 -0.2752 -0.4573
17440SOL     OW64043   0.911   3.207   3.156  0.2226  0.3573 -0.1541
17440SOL    HW164044   0.885   3.298   3.148  1.2813  0.5822 -1.3605
17440SOL    HW264045   0.956   3.187   3.074  2.0842 -0.5456  0.9865
17441SOL     OW64046   4.184   8.904   0.971 -0.5736  0.0457  0.1269
17441SOL    HW164047   4.232   8.974   1.014  2.2814 -0.5328 -1.8366
17441SOL    HW264048   4.173   8.837   1.038  2.9149 -0.4636  0.3732
17442SOL     OW64049   1.236   3.443   3.542 -0.0804  0.2482  0.1977
17442SOL    HW164050   1.313   3.395   3.573 -0.0234  0.5272  0.4818
17442SOL    HW264051   1.196   3.384   3.477  0.7589  0.3961 -0.4696
17443SOL     OW64052   4.630  10.138   9.465 -0.5233  0.2043 -0.0560
17443SOL    HW164053   4.679  10.184   9.534  0.3927 -1.3690  0.3966
17443SOL    HW264054   4.653  10.185   9.385  2.4142 -0.8848  0.0280
17444SOL     OW64055   2.874   5.255   8.517  0.6184 -0.2175 -0.4576
17444SOL    HW164056   2.858   5.164   8.539  2.2505 -0.3651  0.2657
17444SOL    HW264057   2.830   5.268   8.433  0.7191 -1.7907 -0.7759
17445SOL     OW64058   7.478   7.642   3.918 -0.2504  0.2391  0.1471
17445SOL    HW164059   7.504   7.701   3.988  1.1346 -1.2114  0.9292
17445SOL    HW264060   7.394   7.676   3.887  0.6360  2.7771  0.3108
17446SOL     OW64061   2.287   9.815   3.092 -0.3839 -0.5960 -0.3121
17446SOL    HW164062   2.259   9.906   3.099 -0.8036 -0.6615 -0.9875
17446SOL    HW264063   2.382   9.819   3.098 -0.4648 -0.2647  1.0617
17447SOL     OW64064   2.552   3.051   8.702 -0.3366  0.0007 -0.0655
17447SOL    HW164065   2.542   3.023   8.793 -2.7255  0.8587  0.0062
17447SOL    HW264066   2.644   3.075   8.694 -0.3017  1.0140  2.4988
17448SOL     OW64067   0.431   1.146   4.771  0.2922 -0.1078  0.5148
17448SOL    HW164068   0.432   1.061   4.726 -1.5853  0.6543 -1.1277
17448SOL    HW264069   0.491   1.200   4.721  0.5611 -0.1269  0.8178
17449SOL     OW64070   0.974   0.220   3.228  0.1037 -0.4093  0.3442
17449SOL    HW164071   1.043   0.202   3.163  0.4981  1.9306  0.0411
17449SOL    HW264072   0.894   0.188   3.187  0.7761 -1.7887  0.0541
17450SOL     OW64073   9.306  11.552   1.420 -0.0880 -0.0494  0.3183
17450SOL    HW164074   9.212  11.566   1.430  0.0530  1.0873  0.1336
17450SOL    HW264075   9.318  11.457   1.432 -1.4795 -0.4961 -1.4634
17451SOL     OW64076   8.515   2.721  10.526  0.2108 -0.2863 -0.3322
17451SOL    HW164077   8.578   2.663  10.483 -0.4937 -0.7839 -0.7001
17451SOL    HW264078   8.534   2.711  10.620  1.8151  0.8810 -0.4806
17452SOL     OW64079   1.999   8.343   2.695 -0.1666 -0.3822  0.0940
17452SOL    HW164080   2.031   8.316   2.610 -1.9027  0.3445 -0.8445
17452SOL    HW264081   1.979   8.261   2.740 -0.4037 -0.7591 -0.6818
17453SOL     OW64082  10.799   3.435   2.730 -0.3517  0.0626  0.4071
17453SOL    HW164083  10.838   3.438   2.643 -0.9764  1.6153  0.1418
17453SOL    HW264084  10.732   3.367   2.724 -1.1517  0.9150 -0.6769
17454SOL     OW64085   6.373   2.266   6.673 -0.2990 -0.0375 -0.2804
17454SOL    HW164086   6.440   2.334   6.681  0.8821 -1.0483 -1.1587
17454SOL    HW264087   6.304   2.293   6.734 -0.1702  2.2496 -1.0721
17455SOL     OW64088   8.227   1.204   9.158  0.2434 -0.2674  0.2066
17455SOL    HW164089   8.141   1.162   9.170 -0.4231  1.5259  2.4242
17455SOL    HW264090   8.206   1.297   9.147  1.8692  0.0330 -0.5680
17456SOL     OW64091   9.705   9.623   0.246  0.7964  0.4565  0.5310
17456SOL    HW164092   9.614   9.646   0.265  1.4973  3.2043  1.0722
17456SOL    HW264093   9.751   9.638   0.329  2.0471  1.1552 -0.2568
17457SOL     OW64094  10.874   4.039   4.341 -0.0084 -0.6927  0.7190
17457SOL    HW164095  10.789   4.077   4.364 -0.5866 -2.7709  2.3607
17457SOL    HW264096  10.883   4.056   4.248 -1.2349  1.3909  0.9006
17458SOL     OW64097   2.902   9.817   2.444  0.5033 -0.8586  0.0449
17458SOL    HW164098   2.817   9.775   2.427  1.5182 -4.4069  2.4704
17458SOL    HW264099   2.957   9.789   2.371  0.2483 -0.5810 -0.2623
17459SOL     OW64100   0.907   5.450   6.350  0.1814  0.1610 -0.6786
17459SOL    HW164101   0.869   5.494   6.427  0.5103 -1.0210  0.1857
17459SOL    HW264102   0.989   5.497   6.335 -0.3730  1.0704 -0.9661
17460SOL     OW64103   7.671  10.119  11.095  0.1363  0.1804 -0.0111
17460SOL    HW164104   7.630  10.121  11.181  0.0463  1.4763 -0.0647
17460SOL    HW264105   7.730  10.043  11.098 -0.3456 -0.1655  0.9565
17461SOL     OW64106   6.330  10.234   9.440  0.0645  0.0357 -0.4586
17461SOL    HW164107   6.363  10.294   9.373  1.4136  1.3771  1.2908
17461SOL    HW264108   6.243  10.267   9.462  0.8007  1.4799  0.5075
17462SOL     OW64109  11.137   3.060   0.911 -0.3444  0.0582 -0.3805
17462SOL    HW164110  11.195   3.005   0.964  0.1609 -0.5558 -1.5154
17462SOL    HW264111  11.077   2.997   0.870  0.8720  0.1847 -2.4886
17463SOL     OW64112   8.055   4.883   9.541 -0.2347 -0.4175  0.8754
17463SOL    HW164113   8.094   4.907   9.457  0.0843 -0.8798  0.8877
17463SOL    HW264114   8.129   4.858   9.595 -0.5014 -0.7700  1.0790
17464SOL     OW64115   9.262   0.517   8.963  0.5194 -0.4427 -0.2921
17464SOL    HW164116   9.280   0.441   8.907 -4.0628 -0.7115 -1.7934
17464SOL    HW264117   9.218   0.480   9.040 -2.8878  0.5062 -1.5837
17465SOL     OW64118   9.565   8.236  11.500 -0.1502  0.0339  0.1181
17465SOL    HW164119   9.602   8.212  11.415 -0.2827 -2.1406  0.6135
17465SOL    HW264120   9.540   8.152  11.539  0.9203  0.8676  2.7614
17466SOL     OW64121   2.553   0.147  11.697  0.4795 -0.5038  0.0664
17466SOL    HW164122   2.595   0.088  11.760 -2.0836 -3.3329 -0.6306
17466SOL    HW264123   2.463   0.156  11.729 -0.3980 -0.5802 -2.2070
17467SOL     OW64124   2.415   8.609   9.394 -0.3034  0.5341  0.2256
17467SOL    HW164125   2.420   8.527   9.442  1.8760 -0.3533 -1.3501
17467SOL    HW264126   2.339   8.599   9.336 -0.6354  0.0516  0.7402
17468SOL     OW64127   8.235  10.869   8.190  0.2810  0.6531 -0.0039
17468SOL    HW164128   8.207  10.795   8.245  2.3693 -1.3321 -1.4377
17468SOL    HW264129   8.309  10.908   8.237  1.7451 -0.7340 -1.0541
17469SOL     OW64130   3.820   7.504  10.394  0.0770 -0.0028 -0.1708
17469SOL    HW164131   3.818   7.580  10.336 -0.5696  1.3850  1.5664
17469SOL    HW264132   3.873   7.532  10.469 -0.6646 -1.0414  0.7848
17470SOL     OW64133   8.428   0.876   1.342  0.0624 -0.9395 -0.4859
17470SOL    HW164134   8.522   0.876   1.326  0.5067  0.7600  1.6562
17470SOL    HW264135   8.419   0.879   1.437 -2.1450 -0.5601 -0.6392
17471SOL     OW64136   3.019   9.335   5.055  0.1980 -0.0794 -0.1566
17471SOL    HW164137   3.009   9.300   4.967 -0.0035 -0.1562 -0.1046
17471SOL    HW264138   2.929   9.339   5.089  0.2828 -0.1304  0.0735
17472SOL     OW64139   8.683   1.894   8.143 -0.5395  0.5552 -0.0631
17472SOL    HW164140   8.692   1.812   8.095  1.1208  0.7479 -0.1198
17472SOL    HW264141   8.647   1.956   8.079  0.8934  0.6023 -0.8561
17473SOL     OW64142   3.286   9.095   1.685  0.2976  0.0289  0.1293
17473SOL    HW164143   3.264   9.137   1.601  1.1388  3.3110  1.4024
17473SOL    HW264144   3.367   9.048   1.667 -0.0561 -0.1473 -1.1194
17474SOL     OW64145   8.970   0.251  11.468  0.0855  0.0461  0.5216
17474SOL    HW164146   9.014   0.217  11.546  0.3827 -1.2050 -0.1616
17474SOL    HW264147   8.884   0.208  11.468  1.2224 -2.5043 -1.4594
17475SOL     OW64148   9.600  11.692   4.771 -0.1263 -0.0692 -0.0288
17475SOL    HW164149   9.686  11.651   4.769 -0.1099 -0.0722  0.4471
17475SOL    HW264150   9.558  11.666   4.689  1.0529  1.5375 -1.2115
17476SOL     OW64151   7.854   7.477  11.409  0.5637  0.1390 -0.2188
17476SOL    HW164152   7.795   7.534  11.358  0.6671 -0.3176 -0.8659
17476SOL    HW264153   7.894   7.536  11.473  0.0213  0.6230 -0.3139
17477SOL     OW64154   0.949   4.509   1.128  0.7833  0.2928 -0.0380
17477SOL    HW164155   0.961   4.452   1.204  1.2294  0.7557  0.2448
17477SOL    HW264156   0.877   4.469   1.079  0.1160  0.2846  0.9188
17478SOL     OW64157   6.528   4.761   2.480 -0.1570 -0.5081  0.1130
17478SOL    HW164158   6.466   4.833   2.497  2.1668  1.3532  1.3580
17478SOL    HW264159   6.513   4.700   2.553  0.0677  0.3904  0.9424
17479SOL     OW64160   1.293   9.039   6.123 -0.2328 -0.1465  0.0648
17479SOL    HW164161   1.341   9.001   6.051  0.3097 -0.0757  0.3861
17479SOL    HW264162   1.339   9.121   6.143  0.1353 -0.5770  1.0404
17480SOL     OW64163   2.040  11.600   0.401 -0.2140  0.5801 -0.1597
17480SOL    HW164164   2.119  11.548   0.385 -0.5322  0.2939 -0.8276
17480SOL    HW264165   2.015  11.578   0.491 -1.2218 -1.6538 -0.8977
17481SOL     OW64166   4.462   5.337   1.696  0.1909  0.2598  0.0413
17481SOL    HW164167   4.436   5.264   1.640  3.7155  0.6887 -2.5058
17481SOL    HW264168   4.494   5.297   1.776 -0.8983 -0.7042  0.0161
17482SOL     OW64169   2.822   9.074   7.488 -0.2902  0.1977 -0.4834
17482SOL    HW164170   2.764   9.005   7.521  0.7470 -1.2277 -1.4683
17482SOL    HW264171   2.907   9.054   7.527  0.0730  0.8084 -0.9520
17483SOL     OW64172   0.884   5.610   8.619  0.7342 -0.0165 -0.5700
17483SOL    HW164173   0.896   5.516   8.608 -1.1823 -0.3754  0.0342
17483SOL    HW264174   0.968   5.641   8.653  1.3438 -1.5316 -0.6245
17484SOL     OW64175  11.596   2.758   7.657 -0.0200  0.4558 -0.2856
17484SOL    HW164176  11.621   2.847   7.680  0.4608  0.1263  0.5095
17484SOL    HW264177  11.640   2.741   7.573 -0.1624  0.9801 -0.4684
17485SOL     OW64178   2.026   4.193  10.046 -0.0597  0.0682 -0.1345
17485SOL    HW164179   2.000   4.187  10.138 -0.7855 -1.5364 -0.4137
17485SOL    HW264180   1.982   4.272  10.014 -0.6613  0.0592  0.6386
17486SOL     OW64181   8.790   7.804   4.136  0.7499  0.7627 -0.7283
17486SOL    HW164182   8.729   7.877   4.123 -0.1407 -0.0691 -1.3036
17486SOL    HW264183   8.735   7.732   4.166  1.4718  0.0328 -1.1350
17487SOL     OW64184   8.646   6.925   4.584  0.2010  0.1520 -0.5031
17487SOL    HW164185   8.628   6.859   4.651  0.3664  0.1313 -0.4782
17487SOL    HW264186   8.692   6.994   4.630 -1.3465  1.0231 -0.1854
17488SOL     OW64187   3.267   1.126   1.104 -0.4547  0.1220  0.1150
17488SOL    HW164188   3.326   1.170   1.042 -0.5678 -0.8981 -0.7377
17488SOL    HW264189   3.305   1.039   1.115 -2.0893 -0.7631 -0.9029
17489SOL     OW64190   3.730   4.869   2.014  0.5024 -0.3195  0.2982
17489SOL    HW164191   3.676   4.947   2.011  1.7108  0.6906  2.6105
17489SOL    HW264192   3.701   4.817   1.939 -1.6913  1.4155 -0.1521
17490SOL     OW64193   6.941   6.863   3.904 -0.0228 -0.0863  0.3288
17490SOL    HW164194   6.868   6.829   3.852  0.6075 -0.3539 -0.4164
17490SOL    HW264195   6.906   6.941   3.947 -0.3887  0.5668 -1.0771
17491SOL     OW64196   3.857  10.512  10.663 -0.7215 -0.4879 -0.7301
17491SOL    HW164197   3.950  10.530  10.676 -0.8092 -0.2091 -0.4773
17491SOL    HW264198   3.844  10.523  10.569 -0.6262  0.1113 -0.6807
17492SOL     OW64199   0.016   1.302   9.673 -0.4090  0.0090 -0.1123
17492SOL    HW164200   0.106   1.333   9.682 -0.8745  2.2141 -2.0135
17492SOL    HW264201   0.014   1.262   9.586 -1.3785  0.4551 -0.3050
17493SOL     OW64202   9.512  11.560   4.576 -0.2054 -1.0656  0.6363
17493SOL    HW164203   9.443  11.496   4.561 -0.8688 -0.0494 -0.9589
17493SOL    HW264204   9.565  11.557   4.496  0.6265 -0.6702  1.1563
17494SOL     OW64205   4.924   1.514   6.074 -0.2452  0.1767 -0.1530
17494SOL    HW164206   4.865   1.539   6.003  0.1585  0.0977 -0.5183
17494SOL    HW264207   5.010   1.544   6.045 -0.0877  0.1891  0.3269
17495SOL     OW64208   9.741   2.455   1.370 -0.4539  0.1547  0.3143
17495SOL    HW164209   9.755   2.389   1.438  0.0866  0.6320  0.6766
17495SOL    HW264210   9.824   2.504   1.367 -1.1189  1.3326  0.6195
17496SOL     OW64211   5.750   3.975  11.633 -0.4859  0.4809 -0.2558
17496SOL    HW164212   5.687   3.930  11.577 -0.5251  2.1252 -1.6245
17496SOL    HW264213   5.769   3.912  11.703 -1.3139 -1.2061 -1.4702
17497SOL     OW64214   4.324   1.483   0.432 -0.3731  0.3914  0.3400
17497SOL    HW164215   4.291   1.395   0.454  0.2733 -0.0909 -0.5431
17497SOL    HW264216   4.271   1.509   0.356  0.3675  0.1689 -0.2622
17498SOL     OW64217   4.440   3.262   9.420 -0.2190  0.1375  0.2077
17498SOL    HW164218   4.469   3.332   9.478 -0.0673 -0.1881  0.5304
17498SOL    HW264219   4.492   3.273   9.341 -2.6468  2.5914 -1.2358
17499SOL     OW64220   7.449   0.106   4.921  0.1522 -0.3478 -0.6250
17499SOL    HW164221   7.446   0.132   4.829 -0.3012 -2.2679 -1.2056
17499SOL    HW264222   7.543   0.098   4.941  0.2496 -2.1444 -1.6423
17500SOL     OW64223   6.763   2.949   2.139  0.3075 -0.2815 -0.0901
17500SOL    HW164224   6.737   3.037   2.111  0.2900  0.0520  0.9336
17500SOL    HW264225   6.704   2.891   2.092  0.9335  0.1814 -1.5099
17501SOL     OW64226   7.742   7.836   7.191 -0.4037 -0.1981  0.2228
17501SOL    HW164227   7.681   7.897   7.231 -0.7091  0.1470 -0.7586
17501SOL    HW264228   7.696   7.752   7.189 -0.4705 -0.1640  0.3900
17502SOL     OW64229   2.952   3.153   0.059 -0.0508  0.2607 -0.0091
17502SOL    HW164230   3.006   3.194  -0.008 -0.8899  0.5298 -0.5377
17502SOL    HW264231   2.874   3.208   0.065 -2.2218 -2.2604 -2.2428
17503SOL     OW64232   6.616   0.160   4.963 -0.4364  0.7029  0.2158
17503SOL    HW164233   6.641   0.197   4.879 -0.1040  0.5759  0.2596
17503SOL    HW264234   6.562   0.228   5.004 -0.0052  1.0497  0.2042
17504SOL     OW64235   2.475   8.417   9.575 -0.5831  0.4128  0.1224
17504SOL    HW164236   2.539   8.472   9.622 -0.5545 -0.2280  0.8682
17504SOL    HW264237   2.521   8.333   9.563 -0.2620  0.8475 -1.8893
17505SOL     OW64238   7.945   9.245  11.304 -0.1228 -0.9811 -0.4090
17505SOL    HW164239   7.881   9.182  11.336 -1.7523 -0.7402 -2.9486
17505SOL    HW264240   7.931   9.323  11.358 -0.0088 -1.8176  0.8823
17506SOL     OW64241   7.062   1.613   4.943 -0.6305  0.7373 -0.3463
17506SOL    HW164242   7.069   1.692   4.889 -1.9919  1.1768  0.0870
17506SOL    HW264243   6.968   1.599   4.955 -0.4563  1.3389  2.8056
17507SOL     OW64244   2.148   2.986   9.117  0.0246 -0.0903 -0.1412
17507SOL    HW164245   2.123   2.907   9.165 -0.5632 -0.6502 -1.3422
17507SOL    HW264246   2.233   3.010   9.153 -0.4274 -0.4550  1.2248
17508SOL     OW64247   3.765   6.081   6.143 -0.8283  0.2644 -0.3993
17508SOL    HW164248   3.679   6.041   6.132 -0.8864 -0.4641  2.0749
17508SOL    HW264249   3.805   6.033   6.215  0.2205  2.8540  0.8827
17509SOL     OW64250   6.799   4.964  10.130 -0.3465  0.6563  0.2289
17509SOL    HW164251   6.741   5.041  10.127 -0.3299  0.7671  1.7158
17509SOL    HW264252   6.855   4.980  10.206  0.6279 -0.1687 -0.2984
17510SOL     OW64253   1.765   4.765  11.011 -0.3736 -0.2046  0.4072
17510SOL    HW164254   1.699   4.821  10.971 -0.7166  0.2313  1.5457
17510SOL    HW264255   1.724   4.678  11.014  0.3782 -0.7167 -1.8940
17511SOL     OW64256   9.047  10.018   6.109  0.2668  0.4439  0.3417
17511SOL    HW164257   9.125   9.969   6.134  1.2872  2.0249  0.3356
17511SOL    HW264258   9.059  10.105   6.145 -1.0725  0.9981 -0.4412
17512SOL     OW64259   3.036   6.754   4.835  0.0929 -0.3271  0.1486
17512SOL    HW164260   3.114   6.800   4.867 -0.9482 -0.4893  3.2046
17512SOL    HW264261   2.970   6.823   4.825  0.1697 -0.3981 -1.0601
17513SOL     OW64262   1.662  11.455   2.644  0.1223  0.2623 -0.4464
17513SOL    HW164263   1.747  11.498   2.650 -0.6174  1.9480 -1.2762
17513SOL    HW264264   1.600  11.527   2.631 -0.9838 -1.1213 -3.8818
17514SOL     OW64265   9.380  10.886  10.466 -0.0574 -0.3288 -0.2648
17514SOL    HW164266   9.445  10.819  10.445 -1.5575 -2.0921  0.3761
17514SOL    HW264267   9.341  10.909  10.381  0.7956  0.1004 -0.5442
17515SOL     OW64268   4.114   8.674   7.141  0.5790  0.2786  0.3980
17515SOL    HW164269   4.180   8.731   7.102  0.9172  1.0027  1.9542
17515SOL    HW264270   4.108   8.600   7.081 -0.1238  2.0493 -1.8881
17516SOL     OW64271   6.496   8.316   6.891  0.0682 -0.0109 -0.2284
17516SOL    HW164272   6.412   8.352   6.862 -0.1780  0.4909  1.0586
17516SOL    HW264273   6.524   8.260   6.818 -0.8576  0.6436 -1.1258
17517SOL     OW64274  11.697  11.541   9.609 -0.1597  0.4121 -0.0278
17517SOL    HW164275  11.689  11.472   9.544 -0.8587  0.3424  0.1249
17517SOL    HW264276  11.660  11.504   9.688  0.9845  0.3786  0.5183
17518SOL     OW64277   0.261   5.954   3.494 -0.2664 -0.1646 -0.1577
17518SOL    HW164278   0.201   5.949   3.568 -1.8352 -0.1019 -1.3559
17518SOL    HW264279   0.263   6.047   3.471  1.4133  0.0452  0.7060
17519SOL     OW64280   2.594   4.110   4.985  0.0906  0.0799  0.1608
17519SOL    HW164281   2.537   4.181   4.955  0.1195  0.3618  0.7620
17519SOL    HW264282   2.597   4.120   5.080  0.0556 -0.7615  0.2580
17520SOL     OW64283   2.101   6.474   3.582  0.2321  0.1134 -0.1148
17520SOL    HW164284   2.072   6.426   3.504 -0.2714  0.5651 -0.2075
17520SOL    HW264285   2.071   6.564   3.568 -0.3563  0.0807  0.8601
17521SOL     OW64286   6.661   5.964   5.873  0.1636  0.1626  0.1255
17521SOL    HW164287   6.636   5.920   5.954  0.6500 -2.2110 -0.9219
17521SOL    HW264288   6.750   5.996   5.889  0.6053 -1.0902  0.2666
17522SOL     OW64289   0.031   3.928   1.998  0.1750 -0.3206 -0.7058
17522SOL    HW164290  -0.054   3.972   1.991 -0.8582 -2.4371 -2.2752
17522SOL    HW264291   0.061   3.919   1.908  1.2573 -1.1482 -0.2864
17523SOL     OW64292   4.450   5.930   4.462 -0.0471 -0.5775 -0.4080
17523SOL    HW164293   4.442   5.836   4.477  1.6109 -0.7111 -0.2494
17523SOL    HW264294   4.496   5.937   4.378 -0.4725  0.1085 -0.5944
17524SOL     OW64295  11.005   7.248   0.310  0.0752  0.1575  0.6921
17524SOL    HW164296  11.051   7.295   0.241  0.0042  0.8993  1.1274
17524SOL    HW264297  11.065   7.250   0.385 -0.1475  0.0299  0.8767
17525SOL     OW64298   0.651   6.907   8.700  0.5125  0.2443  0.2999
17525SOL    HW164299   0.605   6.983   8.737 -0.0645  0.1536 -0.2273
17525SOL    HW264300   0.737   6.909   8.743 -0.5300 -0.5661  2.5900
17526SOL     OW64301   7.572   2.970  10.429  0.4700 -0.1096 -0.2892
17526SOL    HW164302   7.560   2.989  10.522  0.6147  0.0739 -0.3063
17526SOL    HW264303   7.537   3.048  10.384  0.8501  0.0140 -0.3712
17527SOL     OW64304   0.876   4.666   7.838 -0.3029  0.0708 -0.2227
17527SOL    HW164305   0.800   4.609   7.842 -0.0399 -0.2428  0.5410
17527SOL    HW264306   0.932   4.626   7.772  0.1277 -0.8954  0.6869
17528SOL     OW64307  11.657   2.269   5.730  0.5879  0.3376  0.2887
17528SOL    HW164308  11.581   2.224   5.767  0.5115 -0.5640 -0.8956
17528SOL    HW264309  11.732   2.224   5.768  0.5239 -1.5104 -1.5733
17529SOL     OW64310   8.181   8.703   2.899 -0.6796 -0.0977 -0.1006
17529SOL    HW164311   8.095   8.662   2.891 -0.3916 -1.0040  1.1315
17529SOL    HW264312   8.230   8.646   2.958  0.0664  1.5175  0.9244
17530SOL     OW64313   8.093   4.455   4.536  0.6285 -0.0552  0.5280
17530SOL    HW164314   8.181   4.419   4.552  0.4430  0.0845  1.9512
17530SOL    HW264315   8.108   4.549   4.525  0.6287  0.0183  1.1186
17531SOL     OW64316   9.709   3.878   4.726 -0.3683 -0.1582  0.8288
17531SOL    HW164317   9.762   3.806   4.693  1.3979  1.3597  0.2154
17531SOL    HW264318   9.653   3.903   4.652 -1.3575 -1.1790  1.2005
17532SOL     OW64319  10.530   2.504   3.925  0.2039 -0.7511  0.1326
17532SOL    HW164320  10.559   2.442   3.858  0.5654 -0.0616 -0.3607
17532SOL    HW264321  10.479   2.451   3.986 -1.5341 -1.1176 -1.5413
17533SOL     OW64322  10.164  11.514  10.511  0.2704 -0.4359 -0.3943
17533SOL    HW164323  10.208  11.575  10.570  0.5295 -0.6394 -0.3734
17533SOL    HW264324  10.110  11.461  10.568 -0.6812  0.3780 -0.5132
17534SOL     OW64325   3.492   1.804   4.649  0.6959  0.3022  0.5023
17534SOL    HW164326   3.437   1.834   4.578  0.7481 -0.5690  0.0797
17534SOL    HW264327   3.431   1.771   4.715  0.6643  0.6097  0.6255
17535SOL     OW64328   3.015   8.812  10.039  0.2289 -0.6715 -0.4582
17535SOL    HW164329   2.930   8.828   9.998 -0.2272 -0.2779  0.5996
17535SOL    HW264330   3.078   8.846   9.976 -0.5717  2.6657  0.3500
17536SOL     OW64331   6.197   1.466  11.623  0.2789  0.0893  0.1195
17536SOL    HW164332   6.238   1.493  11.705  1.2302 -0.0743 -0.2847
17536SOL    HW264333   6.103   1.465  11.642  0.4361  0.7393  0.9941
17537SOL     OW64334  10.970   1.405   8.631 -0.6468 -0.0684  0.3646
17537SOL    HW164335  10.988   1.387   8.724 -1.0537  1.4725  0.7719
17537SOL    HW264336  11.056   1.408   8.590 -0.3162  1.1930  1.0989
17538SOL     OW64337   2.308   0.918  11.755  0.1561  0.1453  0.0212
17538SOL    HW164338   2.337   1.007  11.734 -3.9100  1.3900 -1.2444
17538SOL    HW264339   2.334   0.905  11.846  1.0430  2.5492  0.1742
17539SOL     OW64340   5.133   3.738   5.252  0.1365  0.4076  0.1098
17539SOL    HW164341   5.119   3.645   5.233  0.0157  0.5594 -0.5493
17539SOL    HW264342   5.180   3.738   5.336  0.4591 -0.2567 -0.0629
17540SOL     OW64343   6.311  10.834   4.364  0.2893  0.3212  0.1280
17540SOL    HW164344   6.388  10.835   4.421 -1.2395  1.2185  2.2789
17540SOL    HW264345   6.251  10.772   4.406 -0.5875  0.4334 -0.9183
17541SOL     OW64346   1.570   4.079   3.762 -0.4211 -0.0249 -0.1789
17541SOL    HW164347   1.484   4.082   3.718 -0.4249  0.9993 -0.1445
17541SOL    HW264348   1.592   3.986   3.766 -0.5334 -0.1987 -2.1639
17542SOL     OW64349  11.860   5.277   4.961  0.0366 -0.3218  0.3577
17542SOL    HW164350  11.903   5.265   4.876  0.1417 -0.6895  0.4580
17542SOL    HW264351  11.768   5.293   4.939 -0.0291 -0.9062  0.1871
17543SOL     OW64352   7.740   3.398   8.521  0.1820  0.3311 -0.4313
17543SOL    HW164353   7.668   3.346   8.555 -0.3216  1.5906  0.4930
17543SOL    HW264354   7.803   3.402   8.593 -0.1624  1.6696 -0.1783
17544SOL     OW64355   4.046   3.656   5.805 -0.9547  0.7618 -0.2356
17544SOL    HW164356   4.100   3.689   5.733 -2.2858  0.5235 -1.3714
17544SOL    HW264357   4.056   3.722   5.874  0.7258  0.7519 -0.4223
17545SOL     OW64358   7.573   5.171   7.252 -0.7419  0.2950  0.1709
17545SOL    HW164359   7.537   5.227   7.183  0.2758  0.0777 -0.5625
17545SOL    HW264360   7.617   5.232   7.311  0.2140  0.3006 -0.5313
17546SOL     OW64361   1.640   4.437   5.013  0.2903 -0.2438 -0.5056
17546SOL    HW164362   1.682   4.521   5.032  0.6248 -0.7337  1.0974
17546SOL    HW264363   1.710   4.372   5.025 -0.2412 -0.8469 -0.6125
17547SOL     OW64364   0.362   2.659   8.872 -0.5325 -0.7356  0.2914
17547SOL    HW164365   0.413   2.665   8.791 -1.5074 -0.1484 -0.2891
17547SOL    HW264366   0.294   2.594   8.852 -0.8853 -0.4520  0.5764
17548SOL     OW64367   7.358   2.762   6.509 -0.3877  0.1254  0.3987
17548SOL    HW164368   7.326   2.834   6.455  0.2983 -0.8340 -1.3487
17548SOL    HW264369   7.442   2.793   6.543 -0.6425  0.5796  0.6318
17549SOL     OW64370  10.811   4.239   1.478  0.4265  0.3599 -0.3811
17549SOL    HW164371  10.780   4.241   1.388  2.0029 -0.8522 -0.9746
17549SOL    HW264372  10.787   4.152   1.510  1.1283  0.2637 -0.1008
17550SOL     OW64373   7.855   8.047   1.588  0.7270  0.0003 -0.1881
17550SOL    HW164374   7.761   8.055   1.572  0.2233 -5.3968 -1.8713
17550SOL    HW264375   7.896   8.099   1.518 -1.1779 -1.0069 -2.1786
17551SOL     OW64376   9.027   3.240   2.919 -0.0113  0.0909 -0.1800
17551SOL    HW164377   9.109   3.200   2.890  0.3136  0.7991 -0.2580
17551SOL    HW264378   8.962   3.170   2.913  0.7792 -0.7521  0.8006
17552SOL     OW64379   6.476   4.182   7.929  0.2332 -0.0033 -0.3597
17552SOL    HW164380   6.434   4.156   7.847  0.6918  0.5191 -0.7710
17552SOL    HW264381   6.545   4.242   7.902  1.8846 -1.5626  0.2054
17553SOL     OW64382   6.600   1.491   5.221 -0.0200  0.0326  0.4336
17553SOL    HW164383   6.514   1.489   5.263 -0.4268 -0.9938 -0.4143
17553SOL    HW264384   6.639   1.407   5.243  1.1435  0.8264  1.5286
17554SOL     OW64385   8.127   2.708   4.733  0.5913  0.5112 -0.4739
17554SOL    HW164386   8.112   2.763   4.810 -0.6640 -1.5061  0.8242
17554SOL    HW264387   8.185   2.638   4.764  0.5485 -0.0107 -1.5093
17555SOL     OW64388   0.885   9.195   8.186  0.5450  0.4002 -0.2934
17555SOL    HW164389   0.867   9.111   8.228  0.6978  0.6544  0.2926
17555SOL    HW264390   0.814   9.205   8.122  0.0715  0.1877  0.1840
17556SOL     OW64391   4.353   0.633   9.147  0.2075 -0.2495 -0.3004
17556SOL    HW164392   4.337   0.580   9.225 -0.2628  1.5262  0.8773
17556SOL    HW264393   4.270   0.631   9.099 -0.1568  0.2681  0.2931
17557SOL     OW64394  10.081   4.690   8.074  0.1081 -0.1377 -0.0837
17557SOL    HW164395  10.075   4.623   8.006 -0.5948 -0.4738  0.2963
17557SOL    HW264396  10.074   4.773   8.026 -0.2050 -0.3654 -0.4460
17558SOL     OW64397   2.636   4.259  11.103 -0.0977 -0.1530 -0.0118
17558SOL    HW164398   2.594   4.334  11.145  1.1339  0.2609  0.5116
17558SOL    HW264399   2.570   4.190  11.105 -1.6873  1.2297 -1.5397
17559SOL     OW64400   2.320   0.914   2.119  0.3839 -0.3055 -0.1029
17559SOL    HW164401   2.328   0.830   2.074 -0.0365  0.1536 -1.0496
17559SOL    HW264402   2.351   0.978   2.056 -0.8513  0.4169 -0.0189
17560SOL     OW64403   4.771   6.964   5.051  0.6235  0.1129  0.1424
17560SOL    HW164404   4.728   6.917   5.122  0.7183 -0.1471  0.0273
17560SOL    HW264405   4.720   6.941   4.973 -0.0433  1.1213  0.2608
17561SOL     OW64406  10.531  10.327   5.207  0.2586  0.6933 -0.0237
17561SOL    HW164407  10.625  10.311   5.203 -0.0331 -1.0253 -0.4842
17561SOL    HW264408  10.522  10.422   5.195  2.0581  1.2666  2.3757
17562SOL     OW64409   2.170   4.457   9.268 -0.4035  0.6254 -0.2926
17562SOL    HW164410   2.081   4.487   9.284 -0.1836  0.6515  0.9392
17562SOL    HW264411   2.170   4.365   9.294  0.2585  0.9817  1.0751
17563SOL     OW64412   7.893   6.320   3.621  0.2820 -0.3138 -0.1686
17563SOL    HW164413   7.966   6.296   3.564  0.2545 -0.4427 -0.1498
17563SOL    HW264414   7.933   6.337   3.706  0.0323 -2.7363  0.4988
17564SOL     OW64415   7.866  11.727   0.631  0.1261  0.3403  0.0175
17564SOL    HW164416   7.786  11.733   0.579  0.6762 -2.1185 -1.2917
17564SOL    HW264417   7.842  11.672   0.706  0.5823 -0.4804 -0.4270
17565SOL     OW64418  11.565   5.663   6.549 -0.3163 -0.3152  0.2491
17565SOL    HW164419  11.616   5.703   6.479  0.8227 -0.3709  1.0132
17565SOL    HW264420  11.565   5.570   6.528  1.6369 -0.6049  1.2473
17566SOL     OW64421   1.712   9.027  10.147 -0.3616  0.9243 -0.2424
17566SOL    HW164422   1.806   9.026  10.130 -0.2572 -1.9435 -0.0157
17566SOL    HW264423   1.704   9.057  10.237  0.2342  2.2094 -0.6015
17567SOL     OW64424   5.043   8.520   0.898  0.4839 -0.3454 -0.1563
17567SOL    HW164425   5.089   8.458   0.956  0.9548 -0.6841 -0.8750
17567SOL    HW264426   4.988   8.465   0.843  1.0389 -0.1498 -0.9205
17568SOL     OW64427   0.217   0.458   4.733 -0.0805  0.5333 -0.0374
17568SOL    HW164428   0.308   0.433   4.746 -0.4500 -1.2285 -0.5740
17568SOL    HW264429   0.211   0.547   4.767  1.2338 -0.2400  2.4072
17569SOL     OW64430   6.010   9.486   5.863 -0.3900 -0.0596  0.1618
17569SOL    HW164431   5.940   9.440   5.908 -0.4545  0.4681  0.6203
17569SOL    HW264432   5.976   9.504   5.776 -0.4830 -0.5832  0.0881
17570SOL     OW64433   2.836   3.582   1.291 -0.0162 -0.2314 -0.1515
17570SOL    HW164434   2.787   3.641   1.234 -0.9790 -1.2346 -0.3771
17570SOL    HW264435   2.877   3.640   1.356 -1.0061  0.6832 -0.3221
17571SOL     OW64436  10.261  11.009   4.589 -0.1572 -0.2431 -0.3755
17571SOL    HW164437  10.190  10.982   4.532 -2.2603  1.3383  1.3383
17571SOL    HW264438  10.230  11.090   4.630  1.1890 -1.2181  2.9671
17572SOL     OW64439   4.836  10.462   3.137  0.1537 -0.3971 -0.1055
17572SOL    HW164440   4.830  10.555   3.158  0.3058 -0.5617  0.6753
17572SOL    HW264441   4.765  10.447   3.074  1.3374  0.6650 -1.7928
17573SOL     OW64442   0.473   2.756   2.702 -0.3249  0.3170  0.2597
17573SOL    HW164443   0.493   2.691   2.768 -3.8656 -0.6675  0.5468
17573SOL    HW264444   0.419   2.710   2.638  0.9538  1.8647 -2.0826
17574SOL     OW64445   9.738   0.281   4.180 -0.6111 -0.4846 -0.0009
17574SOL    HW164446   9.780   0.239   4.255  0.4092 -1.6582 -1.1481
17574SOL    HW264447   9.811   0.298   4.119 -1.2600  1.3711 -0.3183
17575SOL     OW64448   5.622   1.274  10.002  0.3301  0.3235  0.0144
17575SOL    HW164449   5.608   1.179  10.004 -0.7347  0.4604 -0.4518
17575SOL    HW264450   5.646   1.296  10.093 -0.4440 -0.2514  0.3717
17576SOL     OW64451   8.906   5.187   4.539 -0.1787  0.1881  0.4867
17576SOL    HW164452   8.907   5.250   4.611 -1.0893 -0.4492  1.0783
17576SOL    HW264453   8.833   5.129   4.559 -1.6106  1.0485 -1.8677
17577SOL     OW64454   8.153   3.154   0.450 -0.8584 -0.1686  0.1540
17577SOL    HW164455   8.209   3.137   0.374 -0.7922 -0.2879  0.2281
17577SOL    HW264456   8.064   3.154   0.415 -0.7216  1.9969 -0.3135
17578SOL     OW64457   9.256   5.158   9.479  0.3680  0.1190  0.2932
17578SOL    HW164458   9.351   5.153   9.487  0.5260  0.2485 -1.2484
17578SOL    HW264459   9.232   5.234   9.533  0.9285 -0.8552  1.9721
17579SOL     OW64460   1.136   2.767   6.540  0.5325  0.3966 -0.2472
17579SOL    HW164461   1.077   2.705   6.582 -0.8356  1.4769 -0.4956
17579SOL    HW264462   1.214   2.716   6.519 -0.6969 -1.3368 -0.8238
17580SOL     OW64463   9.064   6.281  11.955 -0.3737  0.4468  0.1871
17580SOL    HW164464   9.032   6.361  11.998 -0.9030  0.0186  0.6114
17580SOL    HW264465   9.109   6.312  11.877 -1.0825  1.1379  0.0358
17581SOL     OW64466   4.289  11.616   0.701  0.0441  0.1646 -0.2528
17581SOL    HW164467   4.210  11.659   0.669 -0.7459 -1.8122 -1.1237
17581SOL    HW264468   4.346  11.611   0.624  1.0861  1.6113  0.3784
17582SOL     OW64469   9.428   0.426   0.289  0.2541 -0.0370  0.1053
17582SOL    HW164470   9.423   0.373   0.209  1.1053  0.2199 -0.1261
17582SOL    HW264471   9.413   0.364   0.360 -0.4118 -0.2869 -0.2436
17583SOL     OW64472   5.742  11.222   8.392  0.0577 -0.4560 -0.5503
17583SOL    HW164473   5.823  11.243   8.439  0.0672  0.2398 -0.8665
17583SOL    HW264474   5.744  11.279   8.316 -0.6464 -0.5714 -0.6545
17584SOL     OW64475   0.543   3.374   6.710  0.3472  0.4070 -0.5172
17584SOL    HW164476   0.470   3.430   6.682  0.2595  1.6449  1.8767
17584SOL    HW264477   0.512   3.285   6.696  0.1775  0.8472 -3.7109
17585SOL     OW64478   9.337   7.937   8.989 -0.3318 -0.3215  0.4581
17585SOL    HW164479   9.360   8.030   8.997 -0.5293 -0.2793  0.5273
17585SOL    HW264480   9.348   7.902   9.077 -0.6841 -0.2670  0.5248
17586SOL     OW64481   3.357   9.910   2.499  0.1539 -0.4054 -0.3570
17586SOL    HW164482   3.439   9.918   2.547 -1.9753  2.7193  3.3997
17586SOL    HW264483   3.304   9.851   2.552 -1.6171  1.6029  0.2695
17587SOL     OW64484   3.528   0.055  10.896  0.1617 -0.0162  0.1760
17587SOL    HW164485   3.513   0.013  10.980 -1.0908  0.3147  0.1408
17587SOL    HW264486   3.535   0.148  10.916  1.7573 -0.1053  0.1195
17588SOL     OW64487   2.328   8.902   3.677 -0.2929 -0.3877 -0.2259
17588SOL    HW164488   2.250   8.913   3.623  0.7373 -0.5593 -1.8190
17588SOL    HW264489   2.398   8.943   3.626  0.6759 -0.2608  1.1487
17589SOL     OW64490  10.995   4.539   9.870  0.7190 -0.0942 -0.3083
17589SOL    HW164491  10.906   4.504   9.873  0.7078 -0.0352  0.0120
17589SOL    HW264492  11.019   4.533   9.777  0.2875  0.1234 -0.4366
17590SOL     OW64493   4.555   5.822  10.183  0.4708  0.1942 -0.1281
17590SOL    HW164494   4.529   5.889  10.120 -1.9061 -0.4585  0.0679
17590SOL    HW264495   4.650   5.830  10.189  0.2750  3.7702  0.1631
17591SOL     OW64496   2.248   0.608   2.223 -0.5422  0.2016  0.2267
17591SOL    HW164497   2.260   0.703   2.221 -1.0034  0.2505 -0.2994
17591SOL    HW264498   2.336   0.573   2.208 -0.2374  0.5329  1.1771
17592SOL     OW64499  10.539  10.176   7.327 -0.3937  0.7915 -0.3606
17592SOL    HW164500  10.463  10.213   7.370  0.5064  1.1938  0.9353
17592SOL    HW264501  10.516  10.084   7.311 -0.5783  0.4966  1.4504
17593SOL     OW64502   0.926   8.310   6.768 -0.4630  0.1098  0.4680
17593SOL    HW164503   0.995   8.334   6.707 -0.9022 -1.1368 -0.5680
17593SOL    HW264504   0.935   8.372   6.840  1.7471 -0.0192  0.3867
17594SOL     OW64505   2.990   8.877  10.855  0.0970 -0.7125  0.5976
17594SOL    HW164506   3.080   8.892  10.825 -0.0888 -0.3716  0.1878
17594SOL    HW264507   2.942   8.954  10.824 -0.2879 -0.7848  1.0131
17595SOL     OW64508   0.343   5.597  11.552 -0.0705 -0.5349  0.1631
17595SOL    HW164509   0.419   5.571  11.500 -0.4393 -0.4278 -0.4385
17595SOL    HW264510   0.268   5.564  11.504 -0.4323 -0.2012  0.4891
17596SOL     OW64511   3.640   9.471   7.828 -0.1153 -0.4686 -0.4765
17596SOL    HW164512   3.726   9.458   7.789 -0.5208  0.2150 -1.6616
17596SOL    HW264513   3.618   9.562   7.806 -0.2763  0.0437  1.5683
17597SOL     OW64514   6.575  11.405   7.662  0.2979 -0.0293  0.2722
17597SOL    HW164515   6.627  11.436   7.588 -2.3615  0.6545 -1.4403
17597SOL    HW264516   6.552  11.484   7.710 -2.2271  0.2429 -1.1976
17598SOL     OW64517   8.833   0.209   2.169  0.1134  0.1328  1.0421
17598SOL    HW164518   8.823   0.298   2.203 -3.4146  0.5500 -0.6205
17598SOL    HW264519   8.852   0.156   2.246 -0.7745  1.9466  2.5847
17599SOL     OW64520   3.721   6.226   1.063 -0.2052  0.7228  0.1282
17599SOL    HW164521   3.726   6.138   1.100  2.2627  1.3333  1.4030
17599SOL    HW264522   3.647   6.266   1.108  0.3196  0.1549  1.5556
17600SOL     OW64523   3.477  10.381   5.570  0.4592  0.3486 -0.1704
17600SOL    HW164524   3.450  10.297   5.533  0.5237  0.0883  0.3520
17600SOL    HW264525   3.399  10.436   5.565  0.1133 -0.0732  0.4057
17601SOL     OW64526   1.343   4.212   7.251  0.0330 -0.5285 -0.0105
17601SOL    HW164527   1.268   4.201   7.193 -0.6388 -2.5237  1.1430
17601SOL    HW264528   1.307   4.253   7.330  0.5152  0.1705 -0.1458
17602SOL     OW64529  10.826   6.309   2.567  0.0979  0.1054  0.1049
17602SOL    HW164530  10.752   6.249   2.571 -0.0105  0.1302 -1.1102
17602SOL    HW264531  10.809   6.373   2.637 -0.7345 -0.2094  0.2003
17603SOL     OW64532  11.596   6.755   8.007 -0.5099  0.3846 -0.0724
17603SOL    HW164533  11.577   6.848   7.995 -0.0394  0.5689  0.5434
17603SOL    HW264534  11.577   6.716   7.922 -0.2678  1.1209 -0.4853
17604SOL     OW64535   7.488   4.192   6.084 -0.2151  0.3299  0.6201
17604SOL    HW164536   7.582   4.179   6.089 -0.0239  1.8291  1.5181
17604SOL    HW264537   7.476   4.285   6.101 -1.8440  0.2190  0.2422
17605SOL     OW64538  11.173   0.341   0.595  0.4790  0.3834 -0.1924
17605SOL    HW164539  11.168   0.428   0.635 -0.7950 -0.6345  2.0092
17605SOL    HW264540  11.085   0.325   0.561 -0.1823 -1.1566  2.0456
17606SOL     OW64541   6.534  10.624   0.857 -0.1126  0.1636 -0.1727
17606SOL    HW164542   6.458  10.587   0.812  1.1148 -1.2728 -1.1452
17606SOL    HW264543   6.606  10.563   0.839  0.8440  0.4004  2.3893
17607SOL     OW64544   1.443   4.966   3.908 -0.3016 -0.3259  0.7283
17607SOL    HW164545   1.403   4.954   3.994 -0.4307  2.2098  1.0900
17607SOL    HW264546   1.525   5.013   3.926 -0.6246  0.7671 -0.5704
17608SOL     OW64547   5.077  10.949   6.010 -0.3196 -0.4365 -0.2909
17608SOL    HW164548   5.072  10.856   6.034 -0.4702  0.1547  2.3016
17608SOL    HW264549   5.026  10.956   5.929  0.0131 -2.6507 -0.7545
17609SOL     OW64550   1.682  10.761   8.436 -0.8230 -0.7906  0.4331
17609SOL    HW164551   1.715  10.745   8.347  0.7895  1.5163  0.5285
17609SOL    HW264552   1.644  10.849   8.432 -1.1433 -0.8353  1.9369
17610SOL     OW64553   6.354   5.599  10.490  0.0373  0.4552 -0.0106
17610SOL    HW164554   6.405   5.523  10.462 -0.9752 -0.6782  1.0940
17610SOL    HW264555   6.289   5.611  10.421  1.0545  1.1955 -0.8616
17611SOL     OW64556   1.733   4.876  11.367 -0.0954  0.1740  0.0636
17611SOL    HW164557   1.764   4.824  11.293 -2.3092  2.1166 -2.4186
17611SOL    HW264558   1.663   4.822  11.405  0.7930 -0.6614  0.5773
17612SOL     OW64559  11.791  11.278   3.061  0.0256  0.3368 -0.3352
17612SOL    HW164560  11.863  11.317   3.110 -0.0715  0.5342 -0.3447
17612SOL    HW264561  11.719  11.274   3.124 -0.1751  0.8197 -0.5236
17613SOL     OW64562   3.595   4.090   4.206  0.0853 -0.3042 -0.2988
17613SOL    HW164563   3.560   4.050   4.285 -1.8454 -0.4507 -1.1814
17613SOL    HW264564   3.540   4.167   4.191  2.9098  2.1120  0.6491
17614SOL     OW64565  11.735   1.933   5.688 -0.6771 -0.1120 -0.2436
17614SOL    HW164566  11.644   1.953   5.713 -1.0459 -0.9300 -0.8810
17614SOL    HW264567  11.743   1.965   5.599  0.0245  0.9767  0.1845
17615SOL     OW64568   0.485   7.952   7.309  0.0471 -0.3657  0.2546
17615SOL    HW164569   0.549   7.977   7.375 -0.6897 -0.2027  0.9146
17615SOL    HW264570   0.480   7.856   7.316  1.8591 -0.6509 -1.3472
17616SOL     OW64571   4.417   6.974   9.358  0.3736 -0.5873 -0.5225
17616SOL    HW164572   4.469   6.906   9.402  0.8312 -0.1873 -0.4369
17616SOL    HW264573   4.459   6.984   9.272  2.2044  1.6793  0.5321
17617SOL     OW64574   3.400   7.719   7.897 -0.1446  0.0421 -0.3337
17617SOL    HW164575   3.429   7.638   7.855 -0.6623  0.5213 -1.6623
17617SOL    HW264576   3.365   7.772   7.825 -3.2517 -0.0357  0.9662
17618SOL     OW64577   5.316   5.455   5.501  0.2157 -0.5052  0.6174
17618SOL    HW164578   5.293   5.462   5.408  0.0416 -0.8748  0.6331
17618SOL    HW264579   5.286   5.538   5.539  0.2029 -0.3926  0.3604
17619SOL     OW64580  10.820   5.443   2.925  0.0553  0.0190 -0.2568
17619SOL    HW164581  10.905   5.446   2.969 -0.1391 -0.0867  0.1260
17619SOL    HW264582  10.756   5.455   2.994 -0.2023  2.0597 -0.7917
17620SOL     OW64583   8.628   5.698   1.084 -0.1423  0.1261 -0.5437
17620SOL    HW164584   8.699   5.729   1.028 -1.1625  1.8432 -0.9615
17620SOL    HW264585   8.629   5.757   1.159 -1.9208  1.0351 -1.1786
17621SOL     OW64586   5.721   6.223   6.559 -0.1927 -0.7707  0.6520
17621SOL    HW164587   5.628   6.204   6.548 -0.8133  0.1055  3.3840
17621SOL    HW264588   5.766   6.151   6.517 -2.1381 -1.8278  0.2607
17622SOL     OW64589   7.732   2.298   5.273  0.0807  0.0369 -0.1439
17622SOL    HW164590   7.658   2.282   5.331  0.0745 -0.1340 -0.1996
17622SOL    HW264591   7.741   2.217   5.222  0.7102 -0.1835  0.3143
17623SOL     OW64592   0.884   5.493   2.706 -0.7343  0.3646 -0.3786
17623SOL    HW164593   0.840   5.472   2.788  0.3089 -2.6514 -0.4683
17623SOL    HW264594   0.813   5.505   2.643 -1.5392  2.5965  0.8409
17624SOL     OW64595   7.780   0.110   0.128  0.0245  0.3596 -0.8454
17624SOL    HW164596   7.722   0.107   0.204  2.4555  0.6026  1.1250
17624SOL    HW264597   7.837   0.033   0.137  2.2046  1.8886 -0.7852
17625SOL     OW64598   4.088   8.432   4.546  0.0210  0.7720 -0.3412
17625SOL    HW164599   4.054   8.344   4.558  0.7158  0.6305  0.7625
17625SOL    HW264600   4.011   8.489   4.551 -0.2222  0.3583  0.7818
17626SOL     OW64601   6.493   5.163   7.179  0.1133  0.1315 -0.6619
17626SOL    HW164602   6.433   5.104   7.224  0.8154 -0.2994 -0.2787
17626SOL    HW264603   6.509   5.122   7.094 -0.9210  0.7609 -1.1911
17627SOL     OW64604   2.404   3.310   2.073 -0.2574  0.1735 -0.1335
17627SOL    HW164605   2.419   3.229   2.121 -0.7826 -0.8506 -1.6056
17627SOL    HW264606   2.436   3.292   1.984 -0.4233  1.5662 -0.5025
17628SOL     OW64607   6.304  10.409   1.021  0.1664 -0.0887 -0.1639
17628SOL    HW164608   6.211  10.393   1.006  0.3326 -1.0014 -0.2922
17628SOL    HW264609   6.312  10.413   1.116 -0.1969  1.3043 -0.1709
17629SOL     OW64610   6.018   1.078   9.448 -0.5722 -0.6597 -0.8069
17629SOL    HW164611   6.097   1.131   9.458  0.9950 -3.0780  0.2025
17629SOL    HW264612   5.951   1.141   9.419  1.7888  1.3744 -2.2311
17630SOL     OW64613   4.234  11.113   5.416  0.0478 -0.0036  0.2021
17630SOL    HW164614   4.232  11.203   5.384 -0.2640  1.0061  2.8099
17630SOL    HW264615   4.143  11.094   5.441  0.3858 -0.4848  1.0962
17631SOL     OW64616   2.441   5.928   4.926  0.1292  0.0449 -0.9233
17631SOL    HW164617   2.417   6.018   4.945  0.7139  0.4432 -1.9951
17631SOL    HW264618   2.380   5.900   4.858 -0.9213 -0.8380  0.3356
17632SOL     OW64619   6.339   4.929   2.572 -0.3297 -0.2469 -0.1419
17632SOL    HW164620   6.249   4.962   2.571 -0.9780 -1.9223 -1.8910
17632SOL    HW264621   6.367   4.940   2.663 -1.9805  1.1181  0.2494
17633SOL     OW64622   0.864  11.304   9.790 -0.0032 -0.4311 -0.6204
17633SOL    HW164623   0.821  11.304   9.876  0.7452  2.8479 -0.1182
17633SOL    HW264624   0.915  11.385   9.789  2.1021 -1.6598 -3.1793
17634SOL     OW64625   5.107   1.967   5.586  0.4959 -0.2584 -0.1162
17634SOL    HW164626   5.195   1.932   5.599  0.4154 -0.0116  1.2510
17634SOL    HW264627   5.057   1.933   5.660 -0.3074  0.3965 -0.3471
17635SOL     OW64628   7.454   2.564   4.790 -0.0302  0.3482 -0.0845
17635SOL    HW164629   7.524   2.538   4.850  1.7066  2.6486 -0.9482
17635SOL    HW264630   7.475   2.517   4.709 -0.0295  0.3135 -0.0645
17636SOL     OW64631   6.265  10.451   7.892 -0.3500  0.3349  0.0052
17636SOL    HW164632   6.326  10.480   7.959  1.2423 -0.7730 -0.8869
17636SOL    HW264633   6.274  10.515   7.822 -1.2942  0.9493  0.4182
17637SOL     OW64634  11.582   2.405   7.084 -0.2180 -0.5286  0.1344
17637SOL    HW164635  11.677   2.408   7.076 -0.2789 -0.7704 -0.7724
17637SOL    HW264636  11.551   2.381   6.996 -1.1279 -0.1542  0.3426
17638SOL     OW64637   9.840   4.104   8.189 -0.1304 -0.1676  0.1275
17638SOL    HW164638   9.781   4.177   8.208  0.6623  0.7804 -0.8679
17638SOL    HW264639   9.868   4.073   8.274 -2.9273 -1.4289  0.6856
17639SOL     OW64640   5.195   7.346   2.672  0.1286 -0.0611  0.2315
17639SOL    HW164641   5.282   7.386   2.664  0.0195 -0.1421 -1.6627
17639SOL    HW264642   5.195   7.275   2.608 -1.8168  0.8377 -0.8335
17640SOL     OW64643   1.809  11.665   1.634  0.3927  0.4531 -0.0921
17640SOL    HW164644   1.885  11.664   1.693 -0.8625 -0.3442  1.5919
17640SOL    HW264645   1.736  11.635   1.688 -1.4284  2.4524 -1.2729
17641SOL     OW64646  11.700   5.906   3.249  0.1199 -0.3577 -0.4569
17641SOL    HW164647  11.696   5.812   3.269 -0.5264 -0.1286  0.5901
17641SOL    HW264648  11.619   5.941   3.286  0.9607  0.8225  0.2985
17642SOL     OW64649   4.233   2.062  11.499 -0.3462 -0.0361  0.9270
17642SOL    HW164650   4.255   2.138  11.552  0.1261  0.1607  0.4630
17642SOL    HW264651   4.148   2.083  11.460  0.1726  0.6449  0.1153
17643SOL     OW64652   2.456  10.301   5.625  0.2910 -0.2038 -0.1631
17643SOL    HW164653   2.424  10.276   5.538  1.8476  2.0193 -1.4720
17643SOL    HW264654   2.446  10.396   5.628  1.9544 -0.0269  1.3632
17644SOL     OW64655  11.925   8.821   8.549 -0.4909  0.3720 -0.4532
17644SOL    HW164656  11.874   8.766   8.490  0.4422 -0.1316 -0.8045
17644SOL    HW264657  11.938   8.767   8.627  1.3518 -0.3442 -1.2236
17645SOL     OW64658   6.765   0.874   7.294 -0.2879 -0.1011  0.1788
17645SOL    HW164659   6.767   0.960   7.336 -0.2786  0.0962 -0.2246
17645SOL    HW264660   6.679   0.838   7.317 -0.0915 -0.2033  0.7774
17646SOL     OW64661   8.328   7.752   3.408  0.3859  0.6277 -0.3131
17646SOL    HW164662   8.352   7.662   3.430  1.0723  0.7032 -0.7218
17646SOL    HW264663   8.372   7.805   3.474  1.4493  0.7718 -1.1099
17647SOL     OW64664  11.947   1.774   3.792  0.5473 -0.2469  0.1066
17647SOL    HW164665  11.965   1.723   3.713  0.9621 -0.4282  0.3184
17647SOL    HW264666  11.908   1.856   3.759  1.3550 -0.0323 -0.3249
17648SOL     OW64667  11.170   4.447   4.490  0.3691  0.8454 -0.0656
17648SOL    HW164668  11.119   4.369   4.510  2.2053 -0.7057 -1.1462
17648SOL    HW264669  11.150   4.507   4.563 -2.0211 -0.0878  0.1535
17649SOL     OW64670   6.576  11.426   3.046  0.3158  0.4377 -0.2110
17649SOL    HW164671   6.538  11.343   3.016  1.2472 -0.2094  0.3377
17649SOL    HW264672   6.575  11.482   2.968 -2.2951  0.6822 -0.0831
17650SOL     OW64673   2.926   1.331   0.939 -0.5695 -0.2045  0.3442
17650SOL    HW164674   2.933   1.281   1.020 -0.1569 -0.6277  0.0544
17650SOL    HW264675   2.962   1.417   0.961 -0.2812 -0.3781  0.5626
17651SOL     OW64676   3.310   8.033   1.036 -0.5594 -0.3949 -0.7006
17651SOL    HW164677   3.317   8.113   1.088 -2.4261 -0.0954 -0.8575
17651SOL    HW264678   3.400   8.001   1.030 -0.2097 -0.4871  2.7617
17652SOL     OW64679   2.903  10.222   9.139  0.6690 -0.0215 -0.0738
17652SOL    HW164680   2.839  10.187   9.201 -1.2571  1.0565 -1.3467
17652SOL    HW264681   2.882  10.316   9.135  2.5155  0.4032 -0.3612
17653SOL     OW64682   6.569   6.049   4.773 -0.1668  0.1161  0.4491
17653SOL    HW164683   6.634   6.104   4.816 -1.3467 -0.0870  2.6851
17653SOL    HW264684   6.569   5.968   4.824  0.5076 -1.4645 -1.8809
17654SOL     OW64685  11.569   3.898   7.821  0.0058 -0.1480  0.7801
17654SOL    HW164686  11.527   3.979   7.849 -2.6934 -0.6954 -1.2904
17654SOL    HW264687  11.631   3.925   7.754 -1.6919  0.1981 -0.7208
17655SOL     OW64688   6.983   7.918   7.063 -0.0554  0.0654  0.3779
17655SOL    HW164689   6.998   7.845   7.123 -1.1767 -0.2993  0.2297
17655SOL    HW264690   6.899   7.955   7.090 -0.2955  0.2626 -0.5951
17656SOL     OW64691   5.772   9.721   0.478  0.2615 -0.1590  0.5018
17656SOL    HW164692   5.804   9.747   0.391 -1.6611 -0.6339 -0.4055
17656SOL    HW264693   5.768   9.804   0.526 -1.3254  0.5991 -0.8210
17657SOL     OW64694   1.515   5.995   0.573 -0.0434  0.4110 -0.1285
17657SOL    HW164695   1.512   5.921   0.635  0.3456 -0.6423 -1.3200
17657SOL    HW264696   1.436   6.045   0.592 -0.1501 -0.1176  0.9315
17658SOL     OW64697   2.283   6.761   0.218  0.1784  0.5177  0.2289
17658SOL    HW164698   2.267   6.837   0.163 -1.1182  0.1179  0.0151
17658SOL    HW264699   2.196   6.726   0.237  0.7159 -0.6055  0.7509
17659SOL     OW64700   4.299   8.177   9.050 -0.1727  0.1066 -0.6914
17659SOL    HW164701   4.314   8.084   9.032 -0.3022 -0.1911  0.6287
17659SOL    HW264702   4.361   8.223   8.993 -0.3939 -0.7523 -1.6676
17660SOL     OW64703   7.600   1.349   4.234 -0.1271  0.1830 -0.3569
17660SOL    HW164704   7.556   1.433   4.248 -0.1330 -0.2079  2.9686
17660SOL    HW264705   7.692   1.368   4.252 -0.3164 -0.6752  1.9264
17661SOL     OW64706   3.559   7.613   9.983  0.0947 -0.6142 -0.0140
17661SOL    HW164707   3.486   7.662  10.022 -0.0195 -0.3689 -0.5294
17661SOL    HW264708   3.585   7.665   9.907  1.8284  0.1171  1.0264
17662SOL     OW64709   5.294   9.481   7.749 -0.6454  0.1504 -0.3497
17662SOL    HW164710   5.310   9.468   7.656 -1.4950  0.0439 -0.4854
17662SOL    HW264711   5.300   9.394   7.787  1.0830  0.3481 -0.0592
17663SOL     OW64712   0.294   5.781   6.301  0.4328  0.1781  0.3510
17663SOL    HW164713   0.290   5.710   6.237 -1.5686 -0.0783  0.7022
17663SOL    HW264714   0.280   5.860   6.250 -2.6939 -0.1307  0.5455
17664SOL     OW64715   6.138   6.536   6.580 -0.0109  0.0678 -0.1749
17664SOL    HW164716   6.125   6.572   6.667  0.0192  0.1853 -0.2188
17664SOL    HW264717   6.217   6.578   6.547 -0.2993  0.4020 -0.4527
17665SOL     OW64718   2.217   9.943   4.766 -0.0013 -0.2032  0.2280
17665SOL    HW164719   2.191  10.032   4.789 -0.6639  0.5645 -3.0156
17665SOL    HW264720   2.142   9.907   4.719  0.7971 -1.9642  0.2273
17666SOL     OW64721   9.608   6.710   6.220 -0.1490 -0.1434  0.1329
17666SOL    HW164722   9.696   6.703   6.257 -0.1210 -0.8332 -0.0650
17666SOL    HW264723   9.550   6.680   6.290 -0.3193  1.1826  0.6066
17667SOL     OW64724   2.352   7.335  11.016 -0.5192 -0.1178 -0.1960
17667SOL    HW164725   2.296   7.261  11.038 -1.0488  0.2267 -0.3548
17667SOL    HW264726   2.441   7.307  11.039 -0.7961 -0.5557  0.3450
17668SOL     OW64727   5.288   7.260   2.233  0.0010 -0.3057  0.1984
17668SOL    HW164728   5.267   7.268   2.140  0.8101  0.7182  0.0764
17668SOL    HW264729   5.300   7.167   2.248  1.0450 -0.3976 -1.0204
17669SOL     OW64730  10.318   3.163   0.163  0.2155  0.0507  0.0797
17669SOL    HW164731  10.223   3.164   0.152  0.0791  0.8920  1.1614
17669SOL    HW264732  10.349   3.230   0.101  0.1406 -0.4062 -0.4623
17670SOL     OW64733   4.988  10.108   7.804 -0.3108  0.5824  0.0688
17670SOL    HW164734   5.031  10.114   7.890  2.8376  1.0022 -1.4020
17670SOL    HW264735   4.948  10.021   7.803  0.2861  0.2513  1.6832
17671SOL     OW64736  10.334  10.716   2.874 -0.4688 -0.4894  0.6069
17671SOL    HW164737  10.398  10.761   2.930 -1.2188  2.5251 -0.7743
17671SOL    HW264738  10.388  10.665   2.813  0.6788  1.3286  0.0121
17672SOL     OW64739  11.357   9.838   6.716  0.3926 -0.0805  0.7354
17672SOL    HW164740  11.325   9.748   6.718 -0.6748  0.2846  0.6956
17672SOL    HW264741  11.325   9.877   6.798  1.4032  0.0868  1.0625
17673SOL     OW64742  11.577  11.763   9.474 -0.0012 -0.0106  0.3133
17673SOL    HW164743  11.641  11.710   9.521 -0.3929  0.0528  0.9341
17673SOL    HW264744  11.495  11.715   9.484  0.1059 -0.5856 -1.2807
17674SOL     OW64745   8.084   8.634   1.752 -0.6106  0.4030 -0.2393
17674SOL    HW164746   8.058   8.639   1.660  0.0875  0.0338 -0.4608
17674SOL    HW264747   8.153   8.700   1.762 -1.2595  1.0264  0.2256
17675SOL     OW64748   9.265   6.354   5.796  0.0578  0.0342  0.1251
17675SOL    HW164749   9.178   6.315   5.786 -0.5770  1.5094 -0.5206
17675SOL    HW264750   9.248   6.449   5.797  1.7691  0.4067 -1.3389
17676SOL     OW64751   8.772   8.829   0.609  0.2593 -0.1370  0.0602
17676SOL    HW164752   8.847   8.847   0.665 -0.0788 -1.2269  0.9115
17676SOL    HW264753   8.788   8.741   0.575 -0.2655 -0.0764 -0.3665
17677SOL     OW64754   8.061   9.691   3.230  0.2470  0.4063 -0.7039
17677SOL    HW164755   8.136   9.745   3.254  2.6179 -3.1411  0.8079
17677SOL    HW264756   8.001   9.698   3.304  1.4470 -0.3952  0.3964
17678SOL     OW64757   3.539   4.004   9.718  0.0566 -0.9551 -0.3419
17678SOL    HW164758   3.623   4.012   9.764 -0.5155  0.3725  0.5123
17678SOL    HW264759   3.475   4.045   9.776 -0.9128 -0.3904 -1.7592
17679SOL     OW64760   2.010  11.350   2.168 -0.0572  0.4472 -0.1202
17679SOL    HW164761   1.949  11.282   2.139 -2.0483  1.9830  0.1835
17679SOL    HW264762   2.073  11.359   2.097 -0.8289 -0.4698 -0.9434
17680SOL     OW64763   3.230   7.321   0.136 -0.3723 -0.0789 -0.5872
17680SOL    HW164764   3.161   7.342   0.073 -1.3653  0.0997  0.5118
17680SOL    HW264765   3.291   7.266   0.087 -0.8360  0.4713 -1.8368
17681SOL     OW64766   5.559  11.549  10.681  0.2138  0.1015 -0.5648
17681SOL    HW164767   5.470  11.532  10.649 -1.0540  2.0765  1.6103
17681SOL    HW264768   5.597  11.607  10.616  0.1067 -1.0484 -1.7009
17682SOL     OW64769   9.580   6.539   2.158  0.3433 -0.1114  0.1597
17682SOL    HW164770   9.661   6.573   2.121 -0.2161  1.7467  0.5712
17682SOL    HW264771   9.560   6.598   2.231 -1.6255 -0.2478 -0.2253
17683SOL     OW64772   2.792   3.236   5.585  0.2177  0.3182 -0.2129
17683SOL    HW164773   2.772   3.150   5.623 -1.1879  0.8456  0.3152
17683SOL    HW264774   2.888   3.240   5.583  0.3311 -1.6941 -1.2915
17684SOL     OW64775  10.205   3.273   9.949 -0.5789 -0.3296  0.3381
17684SOL    HW164776  10.273   3.218   9.989  0.1355 -0.4903 -1.0634
17684SOL    HW264777  10.161   3.215   9.887 -1.1112  0.1593  0.2492
17685SOL     OW64778  11.055   2.040   3.355 -0.6933  0.0581  0.2133
17685SOL    HW164779  10.968   2.080   3.348 -0.9186 -0.3373  0.7073
17685SOL    HW264780  11.115   2.107   3.320 -1.1120  0.6486  0.6004
17686SOL     OW64781   0.281   4.899  11.614  0.0771 -0.2656 -0.2834
17686SOL    HW164782   0.331   4.922  11.535 -1.9579 -0.2496 -1.6217
17686SOL    HW264783   0.267   4.983  11.658  1.1290 -0.2624  0.0794
17687SOL     OW64784   0.880   4.929   8.851  0.1112 -0.6736  0.1152
17687SOL    HW164785   0.802   4.978   8.826  0.4866  0.4419  1.0479
17687SOL    HW264786   0.877   4.927   8.947  0.0333 -2.6337  0.1108
17688SOL     OW64787   1.449   3.494   7.969  0.2185  0.2308 -0.7418
17688SOL    HW164788   1.481   3.572   8.014  1.8164 -0.2588 -0.9880
17688SOL    HW264789   1.508   3.424   7.997 -0.2144 -0.5737 -1.7729
17689SOL     OW64790   2.472   6.618   5.763 -0.3669 -0.1940 -0.0956
17689SOL    HW164791   2.558   6.579   5.775 -0.0030  0.8364  0.7505
17689SOL    HW264792   2.423   6.593   5.841 -0.4739  0.1358 -0.0551
17690SOL     OW64793   5.343   4.496   2.220  0.1136 -0.1404  0.1408
17690SOL    HW164794   5.311   4.459   2.303  0.0943  1.2421  0.7890
17690SOL    HW264795   5.412   4.436   2.192  0.4385 -0.4015  1.4076
17691SOL     OW64796   2.115   5.228   4.845 -0.3431  0.3178 -0.0240
17691SOL    HW164797   2.193   5.283   4.836 -0.3555  0.3324 -0.0411
17691SOL    HW264798   2.042   5.283   4.817 -0.4864  0.6191  0.9094
17692SOL     OW64799   0.744  11.065  11.288 -0.3878  0.4813  0.1805
17692SOL    HW164800   0.836  11.086  11.273 -0.0048 -0.1539  1.5050
17692SOL    HW264801   0.702  11.150  11.303  0.0232  0.7518 -0.1777
17693SOL     OW64802  10.072   4.882  10.800  0.0472 -0.3128  0.2693
17693SOL    HW164803  10.153   4.921  10.766 -0.2022  0.0638  0.1017
17693SOL    HW264804  10.049   4.815  10.735  0.6848 -1.0225  0.7517
17694SOL     OW64805   1.050   6.689   8.150 -0.7289  0.0464 -0.2032
17694SOL    HW164806   1.113   6.727   8.210 -0.8835  1.1478 -0.7208
17694SOL    HW264807   1.087   6.706   8.063 -0.7438 -1.1046 -0.4596
17695SOL     OW64808  10.676   9.970   5.564  0.3871  0.6847 -0.3469
17695SOL    HW164809  10.664  10.065   5.560  0.7382  0.8031  1.0490
17695SOL    HW264810  10.591   9.936   5.592  0.5928  0.6899  0.2857
17696SOL     OW64811   8.559   0.678   8.616  0.0497  0.1439  0.7928
17696SOL    HW164812   8.552   0.761   8.664  0.2603  2.1546 -2.3784
17696SOL    HW264813   8.643   0.642   8.645  2.0633  3.1855 -0.6325
17697SOL     OW64814   2.595   7.240  11.071  0.2980  0.1785  0.5221
17697SOL    HW164815   2.645   7.299  11.126  0.2774  0.5025  0.1948
17697SOL    HW264816   2.658   7.176  11.040  0.0184 -0.9842  2.2186
17698SOL     OW64817   6.078   3.064   4.320  0.4326 -0.4611  0.0035
17698SOL    HW164818   6.090   2.989   4.262 -2.1041 -0.3774 -0.7707
17698SOL    HW264819   6.019   3.032   4.388 -0.9145  0.8315 -0.4885
17699SOL     OW64820   0.728   4.827  10.238  0.2218  0.1552 -0.1106
17699SOL    HW164821   0.648   4.804  10.192 -1.2416  0.4599  2.1024
17699SOL    HW264822   0.749   4.748  10.289  0.6962  0.4427  0.1424
17700SOL     OW64823   2.949   7.093   9.716  0.3413 -0.8645  0.0875
17700SOL    HW164824   2.864   7.065   9.752 -0.6187  0.1200 -1.2881
17700SOL    HW264825   3.009   7.022   9.739 -0.6321 -1.1757  1.8952
17701SOL     OW64826   4.905   7.672   2.450 -1.0798  0.5673  0.5449
17701SOL    HW164827   4.989   7.667   2.496 -1.0666  0.4056  0.5048
17701SOL    HW264828   4.891   7.765   2.437 -0.2635  0.5397 -0.6238
17702SOL     OW64829   0.997   9.677  10.471 -0.3973 -0.0686  0.2290
17702SOL    HW164830   1.044   9.722  10.542  1.8115  0.7948 -1.6456
17702SOL    HW264831   1.060   9.614  10.438 -0.5777  0.9498 -2.2437
17703SOL     OW64832   9.288   0.693   8.173  0.1260 -0.0953  0.3731
17703SOL    HW164833   9.285   0.782   8.208  0.0065  0.3247 -0.6749
17703SOL    HW264834   9.270   0.703   8.080  2.9627 -0.8943 -0.3442
17704SOL     OW64835  11.090   1.758   6.756  0.0482 -0.6944 -0.0317
17704SOL    HW164836  11.105   1.663   6.751 -1.2787 -0.9350  0.0777
17704SOL    HW264837  11.121   1.791   6.672 -2.0559 -1.6560 -1.2830
17705SOL     OW64838  11.187   8.773   5.363  0.2921 -0.3557  0.3728
17705SOL    HW164839  11.159   8.855   5.323 -0.7769 -0.4030  1.0089
17705SOL    HW264840  11.278   8.789   5.390  0.0537  0.6388  0.5909
17706SOL     OW64841   6.182   9.781   4.160  0.3676  0.1869  0.2666
17706SOL    HW164842   6.221   9.786   4.247  2.2717  0.0233 -0.5189
17706SOL    HW264843   6.092   9.812   4.171  1.6653  4.0354  1.6236
17707SOL     OW64844   4.417   8.175   0.881 -0.5664 -0.0773  0.0967
17707SOL    HW164845   4.499   8.174   0.832  0.4803 -0.5309  1.7979
17707SOL    HW264846   4.356   8.127   0.826  0.4499 -0.2352 -0.9419
17708SOL     OW64847   6.621  10.660   3.814  0.1866 -0.5224  0.1077
17708SOL    HW164848   6.565  10.720   3.862 -0.1139 -0.7856  0.0837
17708SOL    HW264849   6.659  10.714   3.744  0.9946 -0.0193  0.9025
17709SOL     OW64850   3.142   3.873   8.874 -0.1135 -0.6611  0.9398
17709SOL    HW164851   3.056   3.835   8.891 -0.3242 -0.5338  0.1754
17709SOL    HW264852   3.156   3.935   8.946 -0.8575 -0.3465  0.8155
17710SOL     OW64853   9.464   0.025   1.288  0.0188 -0.0578 -0.0793
17710SOL    HW164854   9.431  -0.038   1.352 -0.3659  0.4291  0.2081
17710SOL    HW264855   9.559   0.019   1.294 -0.0184 -0.4959  0.0578
17711SOL     OW64856  11.691   8.130   5.279 -1.1417  0.0957 -0.1578
17711SOL    HW164857  11.750   8.115   5.353  0.9704  1.9495 -1.3107
17711SOL    HW264858  11.717   8.064   5.214  0.9435  1.8243 -1.2582
17712SOL     OW64859   1.147   0.315   3.438 -0.2893  0.7559  0.5288
17712SOL    HW164860   1.136   0.226   3.473  0.4059  1.5595  3.0068
17712SOL    HW264861   1.071   0.329   3.382 -1.0562 -0.9506  1.0939
17713SOL     OW64862   1.847   7.506   6.403  0.4552 -0.2444 -0.4046
17713SOL    HW164863   1.898   7.467   6.332  1.2101 -0.5576  0.2870
17713SOL    HW264864   1.912   7.555   6.454  0.0729 -0.6748  0.5165
17714SOL     OW64865   7.173   4.176   1.886 -0.2038 -0.2001 -0.4385
17714SOL    HW164866   7.243   4.226   1.843  0.9999 -1.5276 -0.0967
17714SOL    HW264867   7.148   4.230   1.961 -1.7718  1.7696 -2.2204
17715SOL     OW64868   7.667   5.557   3.151  0.0454 -0.0489  0.3145
17715SOL    HW164869   7.743   5.498   3.144 -0.0254  0.0397 -1.6040
17715SOL    HW264870   7.702   5.644   3.132 -0.4223  0.0914  0.0938
17716SOL     OW64871   6.099  10.322  10.814 -0.1104  0.9361 -0.1517
17716SOL    HW164872   6.084  10.379  10.889 -2.1238 -0.6994  0.7886
17716SOL    HW264873   6.174  10.269  10.839 -0.6496  0.5341  0.6716
17717SOL     OW64874   2.227   8.532   8.797  0.5427  0.5806  0.5005
17717SOL    HW164875   2.161   8.532   8.728  1.0077 -0.2265  0.0495
17717SOL    HW264876   2.247   8.440   8.812  0.3975  0.7306  1.7753
17718SOL     OW64877   0.192   7.208   9.034  0.5834  0.5287 -0.1349
17718SOL    HW164878   0.106   7.246   9.045  0.7648  0.9739 -0.2539
17718SOL    HW264879   0.204   7.153   9.112  0.1305  0.3287 -0.1999
17719SOL     OW64880   3.548   3.517   1.392 -0.3206 -0.4645  0.9588
17719SOL    HW164881   3.456   3.539   1.378 -0.2550  0.1650  1.4753
17719SOL    HW264882   3.546   3.439   1.448 -0.5529 -1.8048 -0.8302
17720SOL     OW64883   1.587   7.504   6.656  0.6643  0.2643  0.3794
17720SOL    HW164884   1.571   7.412   6.632 -2.5437  0.6226  0.7228
17720SOL    HW264885   1.567   7.508   6.749  0.9630  1.3124  0.4127
17721SOL     OW64886   4.586   0.691   2.612  0.2893 -0.4597  0.5455
17721SOL    HW164887   4.572   0.782   2.639  0.3700 -0.2695 -0.0419
17721SOL    HW264888   4.681   0.679   2.616  0.2701 -0.5523  0.7274
17722SOL     OW64889   5.623  11.760   2.464  0.0448 -0.1738 -0.2612
17722SOL    HW164890   5.645  11.852   2.477  1.0769 -0.3492 -0.6555
17722SOL    HW264891   5.696  11.712   2.504 -1.2735 -0.8824  1.4382
17723SOL     OW64892   1.909   8.830  10.649  0.1023  0.5699 -0.6538
17723SOL    HW164893   1.848   8.818  10.722  0.4201 -0.7461 -0.5763
17723SOL    HW264894   1.928   8.924  10.648 -0.9484  0.8045  0.1019
17724SOL     OW64895   8.798   2.926   1.252 -0.3701  0.4763 -0.3799
17724SOL    HW164896   8.881   2.888   1.221  0.3112  1.0497  0.6571
17724SOL    HW264897   8.768   2.866   1.321  0.0363  1.0977  0.3587
17725SOL     OW64898   9.879   1.023  11.199 -0.0064 -0.6748  0.0370
17725SOL    HW164899   9.862   1.039  11.292 -0.0189 -1.0109  0.0922
17725SOL    HW264900   9.922   1.103  11.169 -0.5994 -0.2942  0.1786
17726SOL     OW64901   0.632  11.550  11.298 -0.4839 -0.3640 -0.2768
17726SOL    HW164902   0.659  11.501  11.220  0.4006 -0.5647  0.1323
17726SOL    HW264903   0.593  11.631  11.264 -0.5864 -0.6862 -0.9333
17727SOL     OW64904   9.002   6.958   3.823 -0.2206  0.3267  0.4740
17727SOL    HW164905   8.992   7.021   3.752  1.9896 -0.7490 -0.8834
17727SOL    HW264906   9.065   6.895   3.791 -1.7382 -2.1990  2.0756
17728SOL     OW64907   3.031   1.124   8.026 -0.1551 -0.8089 -0.1627
17728SOL    HW164908   3.050   1.214   8.051 -3.1319  0.2920 -1.2829
17728SOL    HW264909   3.092   1.105   7.955  0.3279  0.4483 -0.1084
17729SOL     OW64910   0.342   2.094   6.424  0.2547  0.3206  0.0093
17729SOL    HW164911   0.320   2.149   6.499 -1.4118  0.4712 -0.5411
17729SOL    HW264912   0.427   2.127   6.394  0.8181  0.4390  1.6319
17730SOL     OW64913   8.708  11.308   7.594 -0.2518  0.3582 -0.4122
17730SOL    HW164914   8.799  11.335   7.607  0.0652 -1.1621  0.7811
17730SOL    HW264915   8.689  11.249   7.667 -1.7021 -0.6041 -1.4967
17731SOL     OW64916   9.361   6.022   1.349  0.5192  0.1913 -0.3837
17731SOL    HW164917   9.306   5.960   1.301  0.2928 -0.0145  0.1329
17731SOL    HW264918   9.438   5.971   1.373  0.5758  0.2589 -0.4212
17732SOL     OW64919   1.071  10.945   7.808  0.8343  0.6398 -0.4462
17732SOL    HW164920   1.000  10.962   7.746  1.2813 -0.2389 -1.2330
17732SOL    HW264921   1.027  10.906   7.884  0.3194  1.4332 -0.3231
17733SOL     OW64922   8.038  11.222  10.185  0.3663 -0.4020  0.5354
17733SOL    HW164923   8.027  11.288  10.116 -0.6488  0.2713  1.2998
17733SOL    HW264924   8.014  11.268  10.266  2.4793 -0.8928  1.4916
17734SOL     OW64925   3.090  10.728   9.682 -0.2584 -0.4103 -0.5171
17734SOL    HW164926   3.153  10.750   9.751 -0.0350  1.0317 -1.1443
17734SOL    HW264927   3.025  10.674   9.726 -1.1093  1.9297  1.3161
17735SOL     OW64928   2.708   4.419   6.754 -0.7705 -0.0450 -0.1233
17735SOL    HW164929   2.802   4.434   6.759 -0.7819 -0.1558  0.4575
17735SOL    HW264930   2.675   4.438   6.841 -1.0630 -1.4822  0.1124
17736SOL     OW64931   8.395   3.429   1.447 -0.1783 -0.1470  0.6469
17736SOL    HW164932   8.374   3.336   1.442  0.1100 -0.1513 -1.3768
17736SOL    HW264933   8.491   3.431   1.444 -0.1506  0.1987  1.5162
17737SOL     OW64934   3.861   0.868   2.809  0.2022  0.3860  0.9882
17737SOL    HW164935   3.949   0.906   2.803 -0.0079  1.0704  2.0376
17737SOL    HW264936   3.827   0.874   2.720  1.0625  0.5004  0.6514
17738SOL     OW64937   2.701   7.787   8.328 -0.3046  0.8513 -0.0551
17738SOL    HW164938   2.729   7.696   8.313 -0.9772  0.4576  0.9621
17738SOL    HW264939   2.766   7.840   8.283  0.8094 -0.0977  0.3901
17739SOL     OW64940   0.839   7.791   0.715 -0.3925 -0.8411 -0.0293
17739SOL    HW164941   0.748   7.805   0.688 -0.9882 -1.5455  1.4950
17739SOL    HW264942   0.877   7.878   0.718 -0.8612 -0.5721 -1.1371
17740SOL     OW64943   4.787   3.484   9.446  0.4091  0.2276  0.2990
17740SOL    HW164944   4.773   3.461   9.538  0.6560 -2.7111 -0.3063
17740SOL    HW264945   4.880   3.467   9.431  0.4932  1.1981 -0.3993
17741SOL     OW64946  10.996   4.927   9.560 -0.2327 -0.1768 -0.1288
17741SOL    HW164947  10.914   4.969   9.584 -0.4219  0.7283 -2.1568
17741SOL    HW264948  11.026   4.975   9.483  2.0510 -0.6829  0.3768
17742SOL     OW64949   1.536   2.016   9.552 -0.2317  0.2200 -0.1922
17742SOL    HW164950   1.550   1.982   9.464  1.2958 -0.1983  0.1927
17742SOL    HW264951   1.447   1.987   9.575  0.3639 -2.0361 -0.5406
17743SOL     OW64952   7.812   5.069   0.584 -0.0578  0.0276 -0.4378
17743SOL    HW164953   7.741   5.076   0.649 -0.7037  0.8201 -1.2085
17743SOL    HW264954   7.875   5.011   0.625 -1.1970 -0.7831  0.2419
17744SOL     OW64955   4.751   6.719  10.129 -0.2078 -0.4141 -0.2295
17744SOL    HW164956   4.823   6.676  10.176  0.9305  1.5301 -0.0790
17744SOL    HW264957   4.713   6.650  10.076  1.7583 -1.5382 -0.2901
17745SOL     OW64958   6.981   1.780   9.602  0.3524  0.2664  0.1924
17745SOL    HW164959   6.894   1.801   9.636  0.5907  1.8350 -0.0946
17745SOL    HW264960   7.037   1.776   9.679  0.3359  0.8908  0.2381
17746SOL     OW64961   9.491   8.731   7.827 -0.8002  0.0130  0.2115
17746SOL    HW164962   9.435   8.696   7.897  1.0850  0.2689  1.9325
17746SOL    HW264963   9.528   8.654   7.785  0.5222 -0.1889  1.6383
17747SOL     OW64964   7.035   7.130   3.316 -0.1090 -0.3896  0.2002
17747SOL    HW164965   7.080   7.189   3.256 -0.4328 -0.0751  0.2591
17747SOL    HW264966   6.971   7.085   3.262 -0.4485 -0.0561  0.3139
17748SOL     OW64967   1.891  10.683   7.806  0.1391 -0.4602  0.9586
17748SOL    HW164968   1.947  10.605   7.812 -1.2704 -1.5579  0.5792
17748SOL    HW264969   1.837  10.680   7.884  0.4036  0.4340  1.1876
17749SOL     OW64970   8.046   9.045  11.793  1.2526  0.1629 -0.6977
17749SOL    HW164971   8.118   8.995  11.755  2.4595  2.0190 -0.9825
17749SOL    HW264972   8.059   9.135  11.762 -0.4433  0.8247  0.3107
17750SOL     OW64973   5.141  10.627   7.269  0.1806  0.8551 -0.3082
17750SOL    HW164974   5.181  10.612   7.354  1.0462 -1.7796 -1.0980
17750SOL    HW264975   5.077  10.556   7.258  0.6828  0.6211 -2.1652
17751SOL     OW64976   6.468   9.573   9.271  0.1881 -0.1584 -0.1524
17751SOL    HW164977   6.475   9.507   9.340  0.0602 -0.4460 -0.4122
17751SOL    HW264978   6.556   9.610   9.263 -0.1791  1.1574  1.4107
17752SOL     OW64979   6.245   5.449   9.192  0.5331  0.8865  0.1278
17752SOL    HW164980   6.280   5.425   9.106  2.6780  1.3561  0.8053
17752SOL    HW264981   6.233   5.366   9.237 -1.1086  0.6022 -0.7677
17753SOL     OW64982   5.415   7.669   7.234 -0.0992  0.3315 -0.3542
17753SOL    HW164983   5.383   7.652   7.323  1.5522  0.1268  0.2404
17753SOL    HW264984   5.486   7.732   7.247  1.2968 -0.9935 -1.3365
17754SOL     OW64985   1.955   9.084   2.498 -0.1554  0.2652 -0.0670
17754SOL    HW164986   1.979   9.164   2.546  0.4567  0.7783 -1.1824
17754SOL    HW264987   1.933   9.115   2.410 -2.8129 -0.4537  0.2437
17755SOL     OW64988   0.690   6.789  10.971 -0.6593  0.5675  0.2052
17755SOL    HW164989   0.733   6.746  11.045  0.4989  1.6925  0.2216
17755SOL    HW264990   0.606   6.820  11.005 -0.5597  0.2158  0.7725
17756SOL     OW64991   2.389   9.207  10.475 -0.0018  0.4753 -0.8278
17756SOL    HW164992   2.365   9.154  10.551 -1.4278 -0.3073 -1.7723
17756SOL    HW264993   2.448   9.274  10.510 -1.1954  0.5997  1.1057
17757SOL     OW64994   5.901   2.550  11.037  0.4274  0.3081 -0.6397
17757SOL    HW164995   5.880   2.548  11.130  1.9137  1.1232 -0.2479
17757SOL    HW264996   5.950   2.631  11.026  2.3092 -0.8982 -1.6569
17758SOL     OW64997  10.639   9.350   6.203 -0.3753  0.1138 -1.1128
17758SOL    HW164998  10.722   9.391   6.179  0.4252 -0.7244  0.1096
17758SOL    HW264999  10.643   9.342   6.298 -0.5822 -2.5523 -1.2677
17759SOL     OW65000  11.122   1.709   1.865 -0.2531 -0.5137  0.2029
17759SOL    HW165001  11.085   1.665   1.788  1.0533 -1.0962 -0.1196
17759SOL    HW265002  11.048   1.718   1.925 -2.4012  3.4754 -2.5515
17760SOL     OW65003   2.573   4.924  10.599  0.6458  0.4112 -0.2088
17760SOL    HW165004   2.621   4.944  10.680 -0.9915  0.9910  0.6737
17760SOL    HW265005   2.639   4.888  10.540  1.5305 -2.0181  2.0920
17761SOL     OW65006   5.576   6.167   8.556  0.1400  0.1868 -0.4570
17761SOL    HW165007   5.536   6.238   8.606  0.3220 -0.6627  0.9549
17761SOL    HW265008   5.636   6.211   8.496  0.5649  1.2230  0.6746
17762SOL     OW65009  11.401   3.003   5.136 -0.0367 -0.4487 -0.6335
17762SOL    HW165010  11.480   3.041   5.098 -0.0878 -1.8124 -2.1805
17762SOL    HW265011  11.335   3.073   5.129  0.4925  0.0007 -1.2126
17763SOL     OW65012  10.025   5.718   5.929 -0.2642 -0.3855  0.2276
17763SOL    HW165013  10.090   5.785   5.908 -0.7089  0.0480  0.2183
17763SOL    HW265014   9.982   5.751   6.007 -0.9221 -0.3445 -0.1460
17764SOL     OW65015   1.453   9.670  11.933 -0.0851  0.1998  0.3729
17764SOL    HW165016   1.545   9.645  11.947 -0.3230 -0.6256  0.5287
17764SOL    HW265017   1.443   9.753  11.979  0.9029  0.9378 -0.6846
17765SOL     OW65018  10.541   2.708   4.658  0.2152 -0.3800 -0.2691
17765SOL    HW165019  10.503   2.686   4.574 -0.7208  0.4115 -0.0780
17765SOL    HW265020  10.575   2.797   4.647 -1.1692  0.2992  0.5461
17766SOL     OW65021   8.555   6.787   0.567  0.1238  0.7083 -0.0121
17766SOL    HW165022   8.621   6.718   0.574  1.2105  1.8030  0.9128
17766SOL    HW265023   8.472   6.740   0.553  0.7640 -0.7806  1.0001
17767SOL     OW65024   3.098   8.004   9.014  0.1030 -0.0967 -0.1939
17767SOL    HW165025   3.105   7.983   8.921 -0.0106  2.9103 -0.9650
17767SOL    HW265026   3.184   7.984   9.050  1.0083  1.2480 -1.5483
17768SOL     OW65027   2.857   7.440   1.622  0.1981 -0.1157  0.0090
17768SOL    HW165028   2.879   7.354   1.659 -1.4233  0.3184  2.2194
17768SOL    HW265029   2.935   7.493   1.637  0.7712 -0.8592 -0.2544
17769SOL     OW65030   6.178   2.200   8.621 -0.0172 -0.3281 -0.8893
17769SOL    HW165031   6.177   2.253   8.542  1.1522 -0.8030 -1.2328
17769SOL    HW265032   6.268   2.169   8.629 -0.5156 -1.7390 -0.3550
17770SOL     OW65033   5.393   9.118   4.149 -0.3922  0.4380  0.1552
17770SOL    HW165034   5.402   9.056   4.076  0.6481  0.9794 -0.1929
17770SOL    HW265035   5.483   9.143   4.170 -0.5920 -0.4450  2.2834
17771SOL     OW65036   9.787   9.118   0.620  0.2981  0.2178  0.1426
17771SOL    HW165037   9.723   9.171   0.666 -0.6044  2.4608 -3.3046
17771SOL    HW265038   9.866   9.172   0.618  0.7661 -0.4470  0.2461
17772SOL     OW65039   9.403   8.550   5.597  0.8135 -0.2009 -0.2675
17772SOL    HW165040   9.352   8.538   5.677  1.6004 -1.9805  0.0240
17772SOL    HW265041   9.435   8.640   5.602  2.4304 -0.8084  2.4278
17773SOL     OW65042   6.543   8.022   3.079  0.3896 -0.5806  0.3798
17773SOL    HW165043   6.457   8.061   3.094  0.2515 -0.9441  0.5428
17773SOL    HW265044   6.524   7.932   3.053  0.6053 -0.0282 -1.8918
17774SOL     OW65045   6.571   1.586   0.197 -0.1246  0.3131  0.3832
17774SOL    HW165046   6.650   1.553   0.154 -0.5860 -0.1984 -0.0911
17774SOL    HW265047   6.513   1.509   0.202 -0.8862  0.8561  0.0436
17775SOL     OW65048  10.662   6.040   9.795  1.1112  0.0378  1.2810
17775SOL    HW165049  10.670   6.003   9.883 -1.6560 -1.1164  1.1597
17775SOL    HW265050  10.678   5.967   9.736  0.5026  0.1942  0.9104
17776SOL     OW65051   5.312   3.573   4.571  0.1953 -0.1880 -0.0263
17776SOL    HW165052   5.261   3.653   4.552  1.2785  0.5385  0.0540
17776SOL    HW265053   5.247   3.503   4.568 -0.6041  0.5633 -1.1420
17777SOL     OW65054  11.828   1.843   3.355 -0.0079 -0.3061  0.5788
17777SOL    HW165055  11.744   1.801   3.373  0.0733 -0.8713 -0.3335
17777SOL    HW265056  11.874   1.782   3.297  0.9943  0.0395  0.9797
17778SOL     OW65057  10.218   5.880  10.285  0.0434 -0.0724  0.0418
17778SOL    HW165058  10.307   5.846  10.281  0.2831  0.4137  1.1245
17778SOL    HW265059  10.176   5.829  10.355 -0.6999 -0.6562 -0.7936
17779SOL     OW65060  10.880   3.176   8.330 -0.3199  0.2710  0.6510
17779SOL    HW165061  10.908   3.108   8.268  0.1817  0.0194  1.1403
17779SOL    HW265062  10.962   3.210   8.367 -0.5398  1.5667 -0.0227
17780SOL     OW65063   6.292   2.124   9.067 -0.4540 -0.3541 -0.5796
17780SOL    HW165064   6.356   2.180   9.022 -0.3124  0.5474  0.7046
17780SOL    HW265065   6.207   2.162   9.046 -0.4385 -0.3918 -0.7097
17781SOL     OW65066   0.923   4.934   6.933 -0.4681 -0.7390 -0.0510
17781SOL    HW165067   0.843   4.903   6.975 -0.9348  1.2608  0.6517
17781SOL    HW265068   0.991   4.925   6.999 -0.3391 -1.3887 -0.2675
17782SOL     OW65069   3.693  10.533   3.137  0.1955  0.6181  0.0570
17782SOL    HW165070   3.640  10.518   3.215  0.6763 -0.1722  0.2340
17782SOL    HW265071   3.783  10.536   3.169  0.4450 -0.2548 -0.5280
17783SOL     OW65072   8.547   6.460  10.401  0.0132 -0.3998  0.0114
17783SOL    HW165073   8.578   6.382  10.355 -2.2667 -1.2430 -0.2333
17783SOL    HW265074   8.537   6.431  10.492  0.8556  0.1499  0.2883
17784SOL     OW65075   4.403  10.232   5.763  0.8577 -0.1251  0.3082
17784SOL    HW165076   4.366  10.215   5.677 -2.7167  0.6309  1.5533
17784SOL    HW265077   4.399  10.147   5.808 -0.9927  0.2416  0.9314
17785SOL     OW65078   1.676   8.162   1.222 -0.7126  0.0177  0.3031
17785SOL    HW165079   1.629   8.210   1.153 -1.2590  0.4695  0.9729
17785SOL    HW265080   1.615   8.092   1.247 -0.5629 -0.0759  0.4025
17786SOL     OW65081   6.284   6.410   3.483  0.2351 -0.4692  0.7128
17786SOL    HW165082   6.359   6.350   3.488 -0.7695 -1.6883  1.7565
17786SOL    HW265083   6.305   6.468   3.410  1.9611 -1.0955  0.6513
17787SOL     OW65084   2.410   3.575  11.890 -0.2451  0.5043 -0.1617
17787SOL    HW165085   2.390   3.512  11.960  2.4790 -1.6401 -1.1183
17787SOL    HW265086   2.384   3.529  11.810 -0.7040  1.7786 -0.7683
17788SOL     OW65087  10.386  11.737   6.953  0.7947  0.1927  0.7288
17788SOL    HW165088  10.353  11.743   6.864  2.4715 -0.1726  0.0488
17788SOL    HW265089  10.389  11.828   6.983 -0.6448  0.2468  0.7811
17789SOL     OW65090  11.748   9.756   2.338 -0.1117 -0.6798  0.0219
17789SOL    HW165091  11.818   9.743   2.275  0.1100  2.8503 -0.6757
17789SOL    HW265092  11.792   9.773   2.421 -0.0533  1.2534 -0.3569
17790SOL     OW65093   5.749   3.605   0.320 -0.4356  0.4971  0.2756
17790SOL    HW165094   5.807   3.677   0.343  1.2539 -0.9141  0.7491
17790SOL    HW265095   5.756   3.598   0.224 -2.0087  2.0168  0.0060
17791SOL     OW65096   6.438   6.913   7.213  0.3386 -0.1150 -0.1363
17791SOL    HW165097   6.460   6.876   7.299  0.9728 -1.6315 -0.9203
17791SOL    HW265098   6.515   6.897   7.159 -1.1109 -1.8901 -1.8149
17792SOL     OW65099   1.984   4.750   3.744  0.0376 -0.5137 -0.7301
17792SOL    HW165100   1.958   4.834   3.706 -0.5720 -0.4827 -0.2582
17792SOL    HW265101   1.906   4.720   3.792  1.4732  0.6426  2.6407
17793SOL     OW65102   5.480   0.471   4.998 -1.0941 -0.0629 -0.4482
17793SOL    HW165103   5.472   0.531   4.923  0.2602 -0.0176 -0.5980
17793SOL    HW265104   5.566   0.492   5.035 -1.0634 -1.1829  0.1574
17794SOL     OW65105   2.654   8.840  10.587  0.6220 -0.3716 -0.2345
17794SOL    HW165106   2.703   8.778  10.641  1.7114  0.6056 -0.0574
17794SOL    HW265107   2.586   8.874  10.645  0.3084 -1.0577 -0.1973
17795SOL     OW65108   3.854  10.494   7.918 -0.2178  0.1792 -0.2675
17795SOL    HW165109   3.921  10.563   7.922  1.0781 -0.9576 -1.3879
17795SOL    HW265110   3.869  10.441   7.996  0.0135  0.0745 -0.3839
17796SOL     OW65111   2.507   6.949   3.966  0.0069  0.5758  0.3092
17796SOL    HW165112   2.457   6.869   3.956  0.1073  0.6974 -1.3978
17796SOL    HW265113   2.471   6.990   4.045 -0.5362 -0.7681  0.7877
17797SOL     OW65114  10.031   2.189  11.626 -0.3005  0.1310  0.0821
17797SOL    HW165115   9.959   2.251  11.642  0.6806  1.3882 -0.2068
17797SOL    HW265116  10.048   2.150  11.711 -0.7171  0.5041  0.3454
17798SOL     OW65117  10.051   3.256   8.737  0.0610 -0.3723 -0.3385
17798SOL    HW165118  10.007   3.203   8.804 -0.0245  0.7545  0.5163
17798SOL    HW265119   9.986   3.266   8.668 -0.9942  1.0482  0.7962
17799SOL     OW65120   8.219   7.157   4.463 -0.0817  0.3710 -0.2171
17799SOL    HW165121   8.154   7.192   4.524 -0.5245  0.4293 -0.7139
17799SOL    HW265122   8.178   7.078   4.427  0.2404  0.2484 -0.3155
17800SOL     OW65123   2.999   9.059   9.383  0.1863 -0.3729 -0.3295
17800SOL    HW165124   3.003   8.998   9.310 -0.9735 -0.1137 -0.6369
17800SOL    HW265125   2.936   9.020   9.444 -0.3630  0.3722 -0.4026
17801SOL     OW65126   2.234   2.110   8.030 -0.9169  0.2488  0.0232
17801SOL    HW165127   2.150   2.128   7.988 -1.4995  1.7676  1.6611
17801SOL    HW265128   2.280   2.052   7.970 -2.2916  1.0608 -1.9176
17802SOL     OW65129   3.922   5.475  10.635  0.0496  0.6719 -0.1548
17802SOL    HW165130   3.896   5.385  10.615  1.6041  0.5595 -1.9743
17802SOL    HW265131   4.018   5.473  10.632  0.1435  2.0953  1.2464
17803SOL     OW65132   0.483   6.493   4.825  0.8918 -0.2771 -0.3905
17803SOL    HW165133   0.578   6.479   4.828  0.9178  0.0696  0.5984
17803SOL    HW265134   0.472   6.588   4.835  0.3982 -0.4422  0.8421
17804SOL     OW65135   8.533   6.431   0.827  0.2263  0.3630 -0.1591
17804SOL    HW165136   8.455   6.410   0.776  0.7688 -1.1700 -0.4323
17804SOL    HW265137   8.516   6.394   0.914 -0.1265  1.7380  0.3749
17805SOL     OW65138   5.105   2.724  10.126 -0.2094 -0.1371 -0.3648
17805SOL    HW165139   5.139   2.700  10.212  0.3096  2.6256  0.2928
17805SOL    HW265140   5.013   2.743  10.141 -0.4246 -0.8769 -0.7062
17806SOL     OW65141   2.877   7.614   6.972 -0.2935  0.4780 -0.5017
17806SOL    HW165142   2.880   7.599   7.067 -0.4365 -0.3418 -0.6233
17806SOL    HW265143   2.969   7.625   6.947 -0.2535  0.6779 -0.2749
17807SOL     OW65144   3.906   8.548  10.058  0.3487  0.2694  0.1877
17807SOL    HW165145   3.867   8.463  10.040 -0.8798  0.8893 -0.1843
17807SOL    HW265146   3.940   8.541  10.148 -0.8821 -0.2097  0.6277
17808SOL     OW65147   7.734   7.049   3.795 -0.2859 -0.0382 -0.5871
17808SOL    HW165148   7.777   7.064   3.710  1.6328 -0.7952  0.1873
17808SOL    HW265149   7.642   7.070   3.779  0.4272  2.3642 -2.1848
17809SOL     OW65150   2.140   0.553  11.778  0.1096  0.3581 -0.6226
17809SOL    HW165151   2.051   0.567  11.746  0.7224  0.0183 -2.5898
17809SOL    HW265152   2.153   0.624  11.841 -1.0981  1.1870 -1.2576
17810SOL     OW65153   0.957   4.544   7.619  0.1184  0.0251 -0.1637
17810SOL    HW165154   0.956   4.623   7.564  1.2115  0.0401 -0.1882
17810SOL    HW265155   0.898   4.484   7.576 -0.0115  0.5000 -0.6628
17811SOL     OW65156   0.538   1.528   1.771  0.1911  0.8074 -0.2501
17811SOL    HW165157   0.596   1.478   1.714 -0.5814  2.0195 -2.2304
17811SOL    HW265158   0.521   1.470   1.845  3.5929  0.2734  0.2771
17812SOL     OW65159   8.431   8.404   0.639  0.0893 -0.6914  0.3846
17812SOL    HW165160   8.368   8.408   0.710  0.5485  0.3279  0.7701
17812SOL    HW265161   8.508   8.451   0.673  1.6448 -3.1120  0.4867
17813SOL     OW65162   5.277   5.439   3.048  0.4674 -0.3891 -0.0452
17813SOL    HW165163   5.248   5.502   2.982  0.4384  1.3623  1.5555
17813SOL    HW265164   5.315   5.367   2.998  1.8735  1.5751 -1.9312
17814SOL     OW65165  10.322  11.506   7.596  0.4468  0.1470  0.4945
17814SOL    HW165166  10.234  11.507   7.634 -0.3818  0.3347 -1.3287
17814SOL    HW265167  10.372  11.448   7.652 -0.7943  0.1730  1.6715
17815SOL     OW65168   4.470   1.882   6.973  0.0213 -0.1227  0.1030
17815SOL    HW165169   4.383   1.843   6.959 -1.0747  1.9133  0.8987
17815SOL    HW265170   4.480   1.945   6.901  0.8033 -0.2625  0.0817
17816SOL     OW65171   1.736  11.478   7.010 -0.1182 -0.7916 -0.5722
17816SOL    HW165172   1.766  11.519   6.929 -2.2506 -1.6113 -1.8317
17816SOL    HW265173   1.655  11.524   7.032 -0.2044 -1.3917  0.4226
17817SOL     OW65174   8.311   8.114  10.123 -0.7669  0.5037 -0.8058
17817SOL    HW165175   8.235   8.161  10.087  0.1772  1.9794 -0.9385
17817SOL    HW265176   8.367   8.097  10.047 -0.4552  0.3900 -0.5520
17818SOL     OW65177   5.587   9.350   5.373  0.6704 -0.4127 -0.4971
17818SOL    HW165178   5.497   9.370   5.400  0.6661 -1.8756  0.7062
17818SOL    HW265179   5.606   9.413   5.303 -1.1431  0.1761 -0.5057
17819SOL     OW65180   3.259   7.520  11.664 -0.9886 -0.0714 -0.1559
17819SOL    HW165181   3.183   7.530  11.721 -0.6948 -2.2404  0.6960
17819SOL    HW265182   3.321   7.469  11.714  1.0300  1.4888 -0.9082
17820SOL     OW65183   5.214   5.019   3.123 -0.4700 -0.7219  0.3875
17820SOL    HW165184   5.222   4.931   3.160 -0.3673  0.5580  3.7103
17820SOL    HW265185   5.119   5.035   3.121 -0.5084 -1.0093 -0.5805
17821SOL     OW65186   5.829  10.419   3.508 -0.1463  0.9930 -0.0820
17821SOL    HW165187   5.867  10.344   3.463 -0.9608  0.4871  0.0488
17821SOL    HW265188   5.851  10.494   3.453 -1.0953  0.3916 -1.3401
17822SOL     OW65189   4.962   7.085   3.023  0.3362 -0.1180  0.0472
17822SOL    HW165190   4.981   7.119   3.111  1.5635 -2.3304  0.7239
17822SOL    HW265191   4.870   7.060   3.026  0.2796  0.1363  0.6045
17823SOL     OW65192   6.324   2.220   3.157 -0.4195 -0.0301 -0.0534
17823SOL    HW165193   6.320   2.126   3.144  1.2631 -0.1556  0.0727
17823SOL    HW265194   6.334   2.231   3.251 -0.3129  0.2519 -0.0965
17824SOL     OW65195   1.695   8.097  11.031  0.0659 -0.0865 -0.2505
17824SOL    HW165196   1.692   8.126  11.122 -1.2022 -2.0945  0.4211
17824SOL    HW265197   1.780   8.127  10.999 -0.5472  3.0249  0.7136
17825SOL     OW65198   6.329  10.249   4.256 -0.5980 -0.0496  0.1465
17825SOL    HW165199   6.311  10.194   4.180  1.9068  0.2229 -0.7470
17825SOL    HW265200   6.360  10.332   4.218  2.7447 -0.5999  1.3174
17826SOL     OW65201  10.448   8.785   4.115  0.1298  0.2483 -0.6016
17826SOL    HW165202  10.461   8.839   4.037 -1.4996  1.1835 -0.2591
17826SOL    HW265203  10.465   8.844   4.188  0.9259 -0.4285 -0.2207
17827SOL     OW65204   9.872   2.515   5.638  0.5880 -0.2499 -0.9124
17827SOL    HW165205   9.929   2.575   5.590  0.4031 -1.3081 -2.5376
17827SOL    HW265206   9.818   2.474   5.570 -0.5265 -0.9510  0.3442
17828SOL     OW65207   6.472   2.407   6.952  0.2010 -0.7519  0.0942
17828SOL    HW165208   6.473   2.312   6.934 -0.8239 -1.1552  1.9150
17828SOL    HW265209   6.491   2.414   7.045  4.0956  1.1386 -0.6514
17829SOL     OW65210   8.950   2.198   7.061 -0.5870  0.3721  0.0172
17829SOL    HW165211   8.930   2.260   6.991 -1.6873  0.5470  0.4732
17829SOL    HW265212   8.948   2.113   7.019  0.4955  0.5867 -0.5177
17830SOL     OW65213   1.364   6.053   0.062 -0.0536  0.8954  0.3924
17830SOL    HW165214   1.455   6.070   0.036 -0.6564  0.0612 -2.7059
17830SOL    HW265215   1.313   6.118   0.013 -1.2685 -0.3826 -0.1165
17831SOL     OW65216   0.529  11.173   5.400  0.1312  0.1415 -0.2495
17831SOL    HW165217   0.509  11.120   5.477  0.6060 -0.2932 -0.4164
17831SOL    HW265218   0.582  11.115   5.345  3.3164  1.7642  0.9179
17832SOL     OW65219   0.227   3.467   3.178 -0.5537  0.3682 -0.1935
17832SOL    HW165220   0.277   3.392   3.211 -2.7877 -0.8279  0.6762
17832SOL    HW265221   0.139   3.432   3.162 -1.6066  2.7345  0.0305
17833SOL     OW65222   2.389  11.910   3.170 -0.3254 -0.0192  0.9902
17833SOL    HW165223   2.457  11.887   3.234  1.9928 -0.3850 -1.4038
17833SOL    HW265224   2.393  12.005   3.165 -0.4451  0.0042  1.3311
17834SOL     OW65225   3.227   7.854   1.542  0.1099  0.1633 -0.3119
17834SOL    HW165226   3.224   7.859   1.446 -0.6842  1.9377 -0.2263
17834SOL    HW265227   3.321   7.856   1.562  0.2724  2.3616 -0.9965
17835SOL     OW65228   4.125   2.202   6.338 -0.9917  0.2663 -0.1373
17835SOL    HW165229   4.102   2.291   6.363 -2.4417 -0.3243  0.7723
17835SOL    HW265230   4.156   2.210   6.248 -0.2904  1.7842  0.2083
17836SOL     OW65231   1.344  11.900   2.100 -0.5997 -0.2647  0.2615
17836SOL    HW165232   1.407  11.870   2.035 -1.6524 -0.9448 -0.4734
17836SOL    HW265233   1.327  11.823   2.154 -0.2615  0.1094  0.9116
17837SOL     OW65234   8.290   8.559   8.944 -0.4998  0.7898 -0.2233
17837SOL    HW165235   8.216   8.619   8.956 -2.2328 -1.0416 -1.1663
17837SOL    HW265236   8.252   8.472   8.955  1.8566 -0.2094  0.7330
17838SOL     OW65237   2.304   9.513   2.891  0.5510  0.0435  0.0221
17838SOL    HW165238   2.281   9.490   2.981  0.8403 -2.5834 -0.4955
17838SOL    HW265239   2.227   9.559   2.858 -1.4545 -2.8455  0.3219
17839SOL     OW65240   3.750   2.033   5.730 -0.2627  0.0106  0.1963
17839SOL    HW165241   3.685   2.061   5.665 -0.4627 -2.1018 -0.5705
17839SOL    HW265242   3.831   2.023   5.679  0.1376  0.4724  0.7295
17840SOL     OW65243   5.969   3.069   7.589 -0.1970 -0.4296  0.1341
17840SOL    HW165244   6.033   3.082   7.659  1.8334 -0.8100 -1.5316
17840SOL    HW265245   5.889   3.112   7.619  1.0784  0.7322  1.9952
17841SOL     OW65246   2.917   6.466   4.406 -0.4723 -0.2013  0.4571
17841SOL    HW165247   3.010   6.452   4.418 -0.0933  0.4002 -1.4344
17841SOL    HW265248   2.889   6.515   4.483  1.2979  1.7641 -0.0768
17842SOL     OW65249   5.835   0.477   1.340 -0.5591 -0.0141  0.6476
17842SOL    HW165250   5.869   0.562   1.311 -1.3137  0.4005  0.9429
17842SOL    HW265251   5.844   0.420   1.263  1.4506 -0.1452  0.9210
17843SOL     OW65252   9.861  11.311   6.702  0.4202  0.0377  0.0098
17843SOL    HW165253   9.871  11.338   6.793 -0.2638 -0.0697  0.1227
17843SOL    HW265254   9.794  11.370   6.666  0.5088 -0.0773 -0.3541
17844SOL     OW65255   0.461   1.494   7.884 -0.2357  0.1533 -0.0895
17844SOL    HW165256   0.486   1.402   7.894  1.1192  0.5203  0.0927
17844SOL    HW265257   0.529   1.532   7.829 -0.6130  1.1208  0.0892
17845SOL     OW65258   4.031   3.074   3.068 -0.2084 -0.5684  0.8533
17845SOL    HW165259   3.995   2.988   3.088  0.2125 -1.0062 -0.2201
17845SOL    HW265260   4.069   3.065   2.981 -0.2851  0.7457  0.6622
17846SOL     OW65261   2.529  10.284   5.965  0.1818  0.0897  0.0905
17846SOL    HW165262   2.560  10.306   5.878 -1.3424  0.9841 -0.2734
17846SOL    HW265263   2.600  10.309   6.024  0.9490  0.1237 -0.8393
17847SOL     OW65264   7.870   0.879   9.504  0.5910 -0.2140 -0.2009
17847SOL    HW165265   7.911   0.897   9.589  0.6448  0.6597 -0.4061
17847SOL    HW265266   7.886   0.785   9.489  1.6636 -0.1065  0.1869
17848SOL     OW65267   5.419  11.728   0.644 -0.1964  0.5817  0.6808
17848SOL    HW165268   5.429  11.652   0.701 -0.7250 -0.1876 -0.2052
17848SOL    HW265269   5.452  11.698   0.559 -1.5325  0.9267  0.0157
17849SOL     OW65270  11.551   8.451   7.505  0.6798 -0.2451 -0.3243
17849SOL    HW165271  11.639   8.457   7.543 -0.0001 -0.2272  1.3393
17849SOL    HW265272  11.509   8.379   7.553 -0.1155 -0.4556 -1.3068
17850SOL     OW65273   5.989   9.131   6.153 -0.5304  0.2906  0.0955
17850SOL    HW165274   6.057   9.118   6.219 -1.1704 -0.4340  0.6274
17850SOL    HW265275   5.976   9.226   6.151  2.1500  0.7551 -1.7361
17851SOL     OW65276   5.725   4.759   2.436  0.0318 -0.1365 -0.1152
17851SOL    HW165277   5.743   4.667   2.414 -1.8910 -1.1266  2.0594
17851SOL    HW265278   5.691   4.797   2.355  0.9969 -1.2842 -1.0883
17852SOL     OW65279   1.838  11.282   3.227  0.7965 -0.4947 -0.5506
17852SOL    HW165280   1.862  11.374   3.222 -0.9169 -0.0458 -0.9588
17852SOL    HW265281   1.840  11.262   3.321  1.0129 -0.0095 -0.4501
17853SOL     OW65282   9.992   7.964   6.125 -0.5166 -0.2501 -0.1877
17853SOL    HW165283   9.903   7.969   6.092 -0.4144  1.6880 -0.2744
17853SOL    HW265284   9.983   7.968   6.220 -0.5404 -0.2065 -0.1918
17854SOL     OW65285   6.952   6.834   1.753 -0.7609  0.0976  0.3401
17854SOL    HW165286   6.997   6.756   1.721 -0.8294 -0.2777  1.1437
17854SOL    HW265287   6.877   6.800   1.803  0.4137  0.5802  2.5506
17855SOL     OW65288   1.767   1.225   7.970  0.3408  0.5210  0.2747
17855SOL    HW165289   1.732   1.245   8.057 -0.1435  2.6182 -0.3414
17855SOL    HW265290   1.752   1.131   7.959 -1.3359  0.5721  1.6896
17856SOL     OW65291   5.336   7.955   2.766 -0.3090 -0.0539 -0.2644
17856SOL    HW165292   5.292   7.876   2.796 -0.5990  0.2504  0.1300
17856SOL    HW265293   5.407   7.923   2.710  0.3026 -0.6611  0.8126
17857SOL     OW65294   4.267   4.261   1.493 -0.1887 -0.3390  0.0472
17857SOL    HW165295   4.213   4.183   1.478 -1.6857  0.7352 -0.4460
17857SOL    HW265296   4.205   4.334   1.488  1.2966  0.9526 -0.2830
17858SOL     OW65297   7.059   0.948   0.856  0.4606 -0.3289 -0.4190
17858SOL    HW165298   7.037   0.858   0.877 -1.7481  0.5955  1.6793
17858SOL    HW265299   6.977   0.996   0.865  0.7834  1.4952 -4.6611
17859SOL     OW65300   5.848  10.246   0.659  0.0610  0.3109  0.4610
17859SOL    HW165301   5.914  10.183   0.687 -0.2812  0.4108  1.5672
17859SOL    HW265302   5.772  10.193   0.634  0.3939  0.2158 -0.3535
17860SOL     OW65303   7.707   3.757   3.239 -0.1766 -0.4248 -0.2232
17860SOL    HW165304   7.634   3.786   3.184  0.0103 -0.7791 -0.6632
17860SOL    HW265305   7.709   3.820   3.311  0.1205  0.5827 -1.0673
17861SOL     OW65306   6.654   8.913  10.114  0.3841 -0.0340 -0.4804
17861SOL    HW165307   6.744   8.906  10.080  0.5207 -0.1393 -0.0955
17861SOL    HW265308   6.612   8.831  10.089  0.3854  0.0303 -0.6926
17862SOL     OW65309   6.160   3.726   2.548 -0.6063  0.7245 -0.0842
17862SOL    HW165310   6.235   3.719   2.489  1.4643 -1.5161  2.5363
17862SOL    HW265311   6.102   3.655   2.522  0.2808 -0.2301  0.4587
17863SOL     OW65312   7.720   0.625   8.959  0.0428 -0.2579 -0.1945
17863SOL    HW165313   7.745   0.551   9.014  1.2293  1.1940  1.3295
17863SOL    HW265314   7.785   0.626   8.889  0.1472 -0.5421 -0.1013
17864SOL     OW65315   8.878  10.209   5.339  0.5918 -0.1051 -0.2197
17864SOL    HW165316   8.838  10.178   5.420  0.3495 -0.4909 -0.4880
17864SOL    HW265317   8.804  10.233   5.283  0.7636  0.4455 -0.2207
17865SOL     OW65318   4.902   4.188   7.586  0.0613  0.6006  0.6512
17865SOL    HW165319   4.857   4.124   7.640  1.9574 -0.9522  0.5114
17865SOL    HW265320   4.833   4.236   7.541 -1.5323  0.8967  3.2164
17866SOL     OW65321   8.121  10.730  11.671 -0.2878  0.2361  0.0642
17866SOL    HW165322   8.117  10.673  11.748  0.2547  0.8996  0.5965
17866SOL    HW265323   8.030  10.741  11.644 -0.3530 -1.8613 -0.7977
17867SOL     OW65324   8.053   6.984  10.117  0.2617 -0.1824  0.2428
17867SOL    HW165325   8.073   6.939  10.199  0.0090 -0.5171  0.1207
17867SOL    HW265326   8.049   7.077  10.141  4.1016  0.2276 -0.0586
17868SOL     OW65327   0.378   2.486  10.386 -0.4066  0.1723 -0.2978
17868SOL    HW165328   0.331   2.566  10.409  1.8837  1.1821  1.1627
17868SOL    HW265329   0.426   2.509  10.306 -0.6576 -0.1180 -0.5311
17869SOL     OW65330   1.507  11.512   2.401  0.0833  0.2024  0.4731
17869SOL    HW165331   1.549  11.514   2.315 -0.4638 -0.3256  0.1928
17869SOL    HW265332   1.547  11.586   2.448 -1.6230  2.2834 -1.1740
17870SOL     OW65333   5.285   3.351   7.095 -0.3892 -0.0455  0.5532
17870SOL    HW165334   5.215   3.304   7.140 -2.6310  0.9775 -1.5963
17870SOL    HW265335   5.317   3.288   7.029 -0.8999  0.2246  0.0382
17871SOL     OW65336  11.196   6.078   9.151 -0.4080  0.1656  0.4107
17871SOL    HW165337  11.105   6.097   9.172 -0.3192  0.3682  0.6189
17871SOL    HW265338  11.195   6.052   9.059 -0.5733  0.9059  0.1962
17872SOL     OW65339   8.791   7.847   3.877  0.3872 -0.5330 -0.0686
17872SOL    HW165340   8.810   7.840   3.971  0.0152  0.7929  0.1282
17872SOL    HW265341   8.862   7.902   3.842  0.6517 -1.2099 -0.6166
17873SOL     OW65342   1.932   1.336   0.087  0.1360  0.7331  0.0365
17873SOL    HW165343   1.949   1.340  -0.007  0.0146 -0.8967 -0.0872
17873SOL    HW265344   1.837   1.341   0.094  0.1249  0.5386  0.0393
17874SOL     OW65345   6.629   9.931   7.526  0.6522 -0.4127 -0.3793
17874SOL    HW165346   6.704   9.950   7.468  0.7893 -1.8342 -0.7134
17874SOL    HW265347   6.662   9.949   7.614  0.5679  1.3962 -0.6677
17875SOL     OW65348   1.701   5.801   7.990  0.2068  0.1602  0.0074
17875SOL    HW165349   1.679   5.727   8.047 -1.0753  0.1471 -0.4529
17875SOL    HW265350   1.617   5.826   7.950  0.9239  0.7277 -1.2035
17876SOL     OW65351   6.934   9.221   8.765  0.3076 -0.0811 -0.2564
17876SOL    HW165352   6.872   9.172   8.820  0.2804  1.0742  0.7818
17876SOL    HW265353   6.880   9.270   8.704  0.1285  1.3718  1.0230
17877SOL     OW65354   9.122   5.072   5.460  0.4272  0.3316 -0.0711
17877SOL    HW165355   9.171   5.128   5.399  0.3510  0.2062 -0.2475
17877SOL    HW265356   9.169   4.989   5.459 -0.8695 -0.4301 -1.7039
17878SOL     OW65357  11.606   6.788   6.108  0.0259 -0.6522  0.0405
17878SOL    HW165358  11.551   6.817   6.181  0.6676 -0.1683  0.3420
17878SOL    HW265359  11.673   6.733   6.149 -1.3291 -2.8729 -0.5520
17879SOL     OW65360   9.410   1.316  11.273 -0.0001 -0.2858 -0.3012
17879SOL    HW165361   9.473   1.386  11.289  0.9815 -0.8968 -1.3002
17879SOL    HW265362   9.456   1.236  11.299 -0.7263 -0.6583 -0.1349
17880SOL     OW65363   7.969   9.476   1.823 -0.2515  0.0799  0.4105
17880SOL    HW165364   7.874   9.460   1.822 -0.1067 -1.0375 -2.1793
17880SOL    HW265365   7.986   9.524   1.742  1.7240 -2.2350 -0.6592
17881SOL     OW65366  10.542   9.034   5.725 -1.0018 -0.1800  0.1119
17881SOL    HW165367  10.637   9.042   5.733 -0.6048 -1.6083 -2.2685
17881SOL    HW265368  10.517   8.970   5.792 -0.2251 -0.1068  0.4765
17882SOL     OW65369   3.501   2.508  11.035  0.3555  0.8930  0.1272
17882SOL    HW165370   3.495   2.413  11.050 -0.1226  0.7602 -0.8392
17882SOL    HW265371   3.579   2.535  11.083  0.7631 -0.0705  0.0327
17883SOL     OW65372  11.089  11.480   7.218 -0.2997 -0.1626  0.0795
17883SOL    HW165373  11.108  11.566   7.256  1.4265  0.1943 -1.4315
17883SOL    HW265374  11.055  11.500   7.131 -0.4549 -1.0032 -0.0595
17884SOL     OW65375   1.363   2.589   3.012 -0.0783  0.2776  0.3107
17884SOL    HW165376   1.272   2.615   2.998 -0.1457 -0.0159  0.1798
17884SOL    HW265377   1.414   2.669   3.000 -0.3404  0.4927  0.6198
17885SOL     OW65378   3.246  11.014   7.562 -0.1279 -0.6489  0.4180
17885SOL    HW165379   3.224  10.934   7.611 -1.6159 -0.3824  0.2172
17885SOL    HW265380   3.243  11.083   7.628 -0.9284 -0.4642  0.1927
17886SOL     OW65381   2.732   4.315   2.106 -0.0163 -0.8583  0.1734
17886SOL    HW165382   2.748   4.222   2.090 -0.0867 -1.1305  1.5706
17886SOL    HW265383   2.812   4.345   2.150  0.3599 -0.0415 -1.0168
17887SOL     OW65384   8.863   8.580   8.412 -0.8023  0.5387  0.4208
17887SOL    HW165385   8.939   8.523   8.415 -1.3536 -0.1666  1.4515
17887SOL    HW265386   8.883   8.643   8.342  1.1863  1.0565  1.3783
17888SOL     OW65387   2.165   2.649   6.533  0.3595 -0.5064  0.4829
17888SOL    HW165388   2.101   2.590   6.492  1.4542 -1.6898  0.4173
17888SOL    HW265389   2.249   2.624   6.493  1.1298 -0.2366  1.8911
17889SOL     OW65390   8.329  11.901   3.855  0.0738  0.0884 -0.2365
17889SOL    HW165391   8.256  11.881   3.797  0.8255 -2.2385 -0.4805
17889SOL    HW265392   8.393  11.946   3.798 -0.7201  1.2455 -0.2502
17890SOL     OW65393   6.788   0.966   4.467 -0.3173  0.4553  0.1109
17890SOL    HW165394   6.835   1.031   4.519 -0.8023  0.2545  0.8004
17890SOL    HW265395   6.818   0.983   4.377  0.8270  0.5378  0.4846
17891SOL     OW65396   1.704   2.733   0.313 -0.0682 -0.2464 -0.0074
17891SOL    HW165397   1.753   2.657   0.343  1.9015  0.5526 -1.0884
17891SOL    HW265398   1.729   2.803   0.373 -0.7149 -0.0529  0.0536
17892SOL     OW65399   7.162   3.216  10.775  0.2943  0.2442  0.3639
17892SOL    HW165400   7.168   3.297  10.826 -0.0061  0.7443 -0.3719
17892SOL    HW265401   7.075   3.220  10.734  0.5484 -0.1204 -0.2169
17893SOL     OW65402   4.351   5.708   8.238 -0.1632  0.0141 -0.5519
17893SOL    HW165403   4.259   5.730   8.220  0.0221  1.7183  0.3966
17893SOL    HW265404   4.398   5.740   8.161 -0.1376  1.0418 -0.1153
17894SOL     OW65405  10.684   3.877   4.029  0.2953  0.2716 -0.2187
17894SOL    HW165406  10.656   3.864   3.939  0.0169 -0.3855 -0.0427
17894SOL    HW265407  10.619   3.936   4.067  0.2099  0.2578 -0.3452
17895SOL     OW65408   9.058   2.548  10.971 -0.2720  0.1934  0.1549
17895SOL    HW165409   9.079   2.480  10.907  1.2600 -0.1084  0.9428
17895SOL    HW265410   9.111   2.623  10.945 -1.4138  0.8838 -0.2822
17896SOL     OW65411   3.086  11.244   4.526 -0.3657 -0.1751  0.5842
17896SOL    HW165412   3.074  11.279   4.614 -0.2820 -0.1775  0.5968
17896SOL    HW265413   3.167  11.286   4.494 -2.3908  2.9285 -1.0117
17897SOL     OW65414   2.323   4.602   7.909  0.6119  0.3865  0.8458
17897SOL    HW165415   2.272   4.672   7.950 -0.8128 -0.2726  0.2680
17897SOL    HW265416   2.282   4.522   7.939  1.5794 -0.1929  0.6723
17898SOL     OW65417   8.579   8.473   8.238 -0.5624 -0.4589 -0.1196
17898SOL    HW165418   8.606   8.481   8.147  2.4439 -0.3542  0.6737
17898SOL    HW265419   8.580   8.562   8.272 -3.7323 -0.2134 -0.4011
17899SOL     OW65420   7.433   0.867   5.432  0.3278 -0.3708 -0.1384
17899SOL    HW165421   7.477   0.903   5.509  0.3188 -2.7138  1.0248
17899SOL    HW265422   7.420   0.943   5.375 -0.8609  1.6986  2.6755
17900SOL     OW65423   7.603   3.243   5.751  0.0054  0.2148  0.3035
17900SOL    HW165424   7.603   3.289   5.667 -1.3985  0.9924  0.6896
17900SOL    HW265425   7.627   3.153   5.729  1.7710  0.8661 -0.6221
17901SOL     OW65426   6.900   7.845   0.528  0.1849  0.4610 -0.1222
17901SOL    HW165427   6.874   7.826   0.437 -0.0776  1.2167 -0.2112
17901SOL    HW265428   6.835   7.908   0.558  1.6490  2.0750 -0.2016
17902SOL     OW65429   8.689  11.937   1.807  0.5635  0.4005 -0.6711
17902SOL    HW165430   8.772  11.965   1.769  0.5859  2.9961  1.0434
17902SOL    HW265431   8.715  11.883   1.882  0.5794 -1.1120 -1.7111
17903SOL     OW65432  10.362   3.028  10.066 -0.3849  0.2888  0.0118
17903SOL    HW165433  10.378   2.935  10.048 -1.3239  0.1243 -0.0411
17903SOL    HW265434  10.296   3.027  10.136 -1.3091  0.9025 -0.8326
17904SOL     OW65435   8.942   4.972   0.923 -0.0793  0.1319  0.0456
17904SOL    HW165436   8.872   5.038   0.923  0.3090  0.6100  2.1344
17904SOL    HW265437   8.897   4.890   0.947 -0.3005 -0.0953 -1.0622
17905SOL     OW65438   5.945   6.760   6.418 -0.7100  0.1834  0.5679
17905SOL    HW165439   6.030   6.717   6.418  0.2526  2.0098  0.9212
17905SOL    HW265440   5.883   6.691   6.444  0.9476 -0.6169  2.6650
17906SOL     OW65441   6.861   1.738   1.697 -0.5877  0.0363 -0.1186
17906SOL    HW165442   6.894   1.666   1.644 -0.6241 -1.1736  1.4278
17906SOL    HW265443   6.767   1.724   1.701 -1.1397  2.2707 -2.7528
17907SOL     OW65444   2.641   0.774   9.184  0.7919 -0.1908 -0.4346
17907SOL    HW165445   2.612   0.861   9.159 -1.5889 -0.6983  0.2712
17907SOL    HW265446   2.727   0.765   9.145 -0.2286  1.2506 -3.3053
17908SOL     OW65447   1.090   5.855   2.177  0.1553  0.9727  0.3414
17908SOL    HW165448   1.167   5.798   2.172  0.2256  0.9823  1.1583
17908SOL    HW265449   1.021   5.798   2.213 -1.2130 -0.0216 -3.3254
17909SOL     OW65450   9.270   3.790   6.883  0.0149  0.2370  0.4823
17909SOL    HW165451   9.331   3.798   6.956  1.0776 -1.5656 -0.1579
17909SOL    HW265452   9.188   3.763   6.924  1.2375 -3.3676  0.9242
17910SOL     OW65453  10.549   3.295   5.477  0.0316 -0.3308 -0.8896
17910SOL    HW165454  10.541   3.378   5.523 -1.2367 -0.2428 -1.2249
17910SOL    HW265455  10.638   3.266   5.495  0.5021  1.1061 -0.7873
17911SOL     OW65456   7.311   5.906   0.086 -0.0537  0.1380  0.0974
17911SOL    HW165457   7.379   5.891   0.019 -0.3057 -1.9751  0.2404
17911SOL    HW265458   7.235   5.856   0.054 -0.0545 -1.2531  2.1230
17912SOL     OW65459   0.067  10.179   9.761  0.2479  0.2475  0.5210
17912SOL    HW165460  -0.004  10.210   9.704  0.8769 -0.5052 -0.7071
17912SOL    HW265461   0.096  10.097   9.721  1.7766  0.5060  1.0320
17913SOL     OW65462   0.155   3.941   5.432  0.0943 -0.0150  0.0898
17913SOL    HW165463   0.178   3.881   5.362 -0.7069 -0.0018 -0.1966
17913SOL    HW265464   0.096   3.890   5.488  0.1272  0.2163  0.3352
17914SOL     OW65465   6.417   6.399   0.426 -0.2493 -0.3929  0.3587
17914SOL    HW165466   6.428   6.336   0.355 -1.2327 -0.9819  0.7100
17914SOL    HW265467   6.402   6.345   0.504  1.7517  0.2070  1.2337
17915SOL     OW65468   3.661   4.050   2.855  0.2694 -0.7280 -0.3735
17915SOL    HW165469   3.700   3.965   2.835  1.5172 -0.4344  0.6633
17915SOL    HW265470   3.611   4.073   2.777 -0.1485 -2.4364 -0.6393
17916SOL     OW65471  10.668   2.960   3.172 -0.4065 -0.4163  0.4796
17916SOL    HW165472  10.730   2.893   3.145  0.3356  0.3877  0.1691
17916SOL    HW265473  10.609   2.971   3.097 -0.1342 -0.2611  0.2902
17917SOL     OW65474   5.484   8.502   7.709  0.0214  0.1291 -0.7932
17917SOL    HW165475   5.420   8.547   7.764  0.8896  0.2050  0.1737
17917SOL    HW265476   5.482   8.550   7.626  0.2107  1.3477 -0.1206
17918SOL     OW65477   7.189   4.139  10.633 -0.7795  0.1105  0.2611
17918SOL    HW165478   7.277   4.144  10.670  0.1274  0.6131 -1.7834
17918SOL    HW265479   7.171   4.045  10.626 -0.2165 -0.0025  0.2897
17919SOL     OW65480  11.566   4.904  11.346  0.0847 -0.0299  0.4099
17919SOL    HW165481  11.478   4.868  11.333 -0.0923  0.5631 -0.0979
17919SOL    HW265482  11.624   4.830  11.332 -0.2517 -0.0433 -1.0678
17920SOL     OW65483   4.658   6.074   6.174  0.5588 -0.3576  0.1115
17920SOL    HW165484   4.697   5.987   6.166  1.8252  0.0713  1.1318
17920SOL    HW265485   4.694   6.123   6.100  1.6439 -0.1014  0.7809
17921SOL     OW65486  10.271   1.279   2.437 -0.4048  0.4863 -0.0225
17921SOL    HW165487  10.323   1.315   2.364  1.0019  0.1937  0.7975
17921SOL    HW265488  10.218   1.353   2.467  0.1823  1.0499 -0.3322
17922SOL     OW65489   8.866   1.476   2.267  0.5834  0.6367  0.0265
17922SOL    HW165490   8.899   1.509   2.351  0.4092 -1.6907  1.1008
17922SOL    HW265491   8.917   1.397   2.251 -2.2947 -1.4742  0.2696
17923SOL     OW65492   3.418   9.687   0.189  0.4262  0.2340 -0.3423
17923SOL    HW165493   3.500   9.677   0.238  0.5286  0.7070 -0.4146
17923SOL    HW265494   3.446   9.719   0.103  0.1283  0.8268 -0.2191
17924SOL     OW65495   4.495   9.835   4.993 -0.2930 -0.2129  0.3692
17924SOL    HW165496   4.503   9.917   4.944  0.6046 -0.9602 -0.7823
17924SOL    HW265497   4.583   9.819   5.028 -0.2978 -1.0121  0.0305
17925SOL     OW65498   1.927   4.424   8.796 -0.4140 -0.4343 -0.0059
17925SOL    HW165499   1.886   4.341   8.818 -2.5724  1.0231  2.0660
17925SOL    HW265500   1.948   4.463   8.881  1.0340  0.9332 -0.9316
17926SOL     OW65501   5.806  11.875   1.203 -0.0323  0.2550 -0.2315
17926SOL    HW165502   5.858  11.916   1.272 -0.9262 -1.4277  1.5603
17926SOL    HW265503   5.767  11.948   1.155  1.6586  1.4967  0.2069
17927SOL     OW65504   3.084   3.127   2.750 -0.2863  0.2027  0.2222
17927SOL    HW165505   3.010   3.161   2.800  0.4871  1.5986  0.4558
17927SOL    HW265506   3.139   3.203   2.733  1.8637 -1.0059  1.3318
17928SOL     OW65507   7.804  11.086   4.502 -0.1824 -0.1419  0.3951
17928SOL    HW165508   7.844  11.048   4.580 -1.6483 -0.1147  1.2004
17928SOL    HW265509   7.711  11.066   4.511 -0.7773  2.1632  0.0181
17929SOL     OW65510   1.106   0.134   2.945  0.1473  0.0893  0.2237
17929SOL    HW165511   1.093   0.227   2.931 -1.3110  0.1016  1.3685
17929SOL    HW265512   1.193   0.127   2.985 -0.2372  1.0848  1.2636
17930SOL     OW65513  10.310   7.072   8.759 -0.2528  0.3567 -0.0719
17930SOL    HW165514  10.382   7.014   8.736 -0.1835  0.3151  0.2440
17930SOL    HW265515  10.327   7.097   8.850 -0.3359  0.7900 -0.1705
17931SOL     OW65516   2.110   7.051  10.505 -0.3732 -0.5121 -0.7696
17931SOL    HW165517   2.095   7.044  10.410 -1.8804  0.5701 -0.6471
17931SOL    HW265518   2.205   7.053  10.514 -0.2011 -0.2516 -2.3015
17932SOL     OW65519  11.081  10.750   0.511 -0.0515  0.3689  0.9127
17932SOL    HW165520  11.004  10.713   0.469  0.8748  1.1763 -1.7411
17932SOL    HW265521  11.047  10.802   0.583 -1.9685  0.3672  0.0655
17933SOL     OW65522   6.238   6.507   6.878  0.0574  0.4679  0.1881
17933SOL    HW165523   6.206   6.424   6.842 -1.0159  0.2720  1.4910
17933SOL    HW265524   6.198   6.511   6.965  0.7966  1.9486  0.4756
17934SOL     OW65525   6.536   1.014   6.020 -0.3842  0.9038  0.1618
17934SOL    HW165526   6.477   0.959   6.073 -0.2949 -0.0871 -0.7397
17934SOL    HW265527   6.580   0.953   5.962  0.7756  1.7702  0.0904
17935SOL     OW65528   0.908   5.443  10.978 -0.5627  0.1295 -0.3290
17935SOL    HW165529   1.002   5.456  10.995 -0.7299 -1.0191  1.8219
17935SOL    HW265530   0.877   5.529  10.949  1.2202  0.4141 -1.5445
17936SOL     OW65531   3.741   9.088  11.649 -0.1420  0.6986 -0.7070
17936SOL    HW165532   3.724   8.999  11.618 -0.3274  0.1397  0.8828
17936SOL    HW265533   3.663   9.110  11.701  1.0030  0.7170  1.1112
17937SOL     OW65534   0.376  10.687   1.394 -0.0801  0.5542 -0.6063
17937SOL    HW165535   0.328  10.743   1.456 -0.8079 -0.7247  0.0290
17937SOL    HW265536   0.378  10.601   1.436  2.4605  0.4487 -0.7959
17938SOL     OW65537   2.997  11.795   4.753 -0.2005 -0.0058  0.0730
17938SOL    HW165538   2.975  11.875   4.802 -2.2797  0.3711 -1.3414
17938SOL    HW265539   2.922  11.737   4.767  0.1225 -0.6986 -0.9527
17939SOL     OW65540   2.624  10.594  10.107 -0.1480 -0.3105 -0.1459
17939SOL    HW165541   2.586  10.669  10.154  1.0518  0.3094 -0.1327
17939SOL    HW265542   2.706  10.577  10.153  0.1158 -0.9386 -0.8448
17940SOL     OW65543   9.196   0.236  10.212 -0.4085  0.5968  0.8446
17940SOL    HW165544   9.259   0.224  10.141 -1.2463 -2.6009  0.4793
17940SOL    HW265545   9.158   0.323  10.196  0.3799  0.5400 -1.8423
17941SOL     OW65546   9.142   0.634   0.646 -0.3177  0.1572 -0.2882
17941SOL    HW165547   9.207   0.674   0.589 -0.6566  2.4388  0.7951
17941SOL    HW265548   9.058   0.656   0.605 -0.5111 -1.9045 -1.1388
17942SOL     OW65549   9.996   9.506   6.897  0.2823  0.3578  0.0277
17942SOL    HW165550  10.013   9.424   6.943 -0.7889  0.8520  1.3853
17942SOL    HW265551   9.917   9.488   6.846  0.4999  0.3122 -0.2917
17943SOL     OW65552  11.736   6.306   5.187 -0.1985 -0.1633  0.5726
17943SOL    HW165553  11.820   6.298   5.232 -0.4375  1.2477  1.3275
17943SOL    HW265554  11.740   6.242   5.116  0.8774 -1.2126  1.5483
17944SOL     OW65555   1.528   5.932   0.972  0.3182 -0.0919 -0.0366
17944SOL    HW165556   1.563   6.019   0.950 -0.5808  0.2539 -0.1239
17944SOL    HW265557   1.595   5.871   0.939  1.2013  0.5637  0.4766
17945SOL     OW65558   4.202  11.086   8.607  0.1881 -0.1935  0.5354
17945SOL    HW165559   4.252  11.009   8.580 -1.0599 -0.3350 -1.6317
17945SOL    HW265560   4.111  11.064   8.586 -0.1892  1.8623 -0.1730
17946SOL     OW65561   9.446   2.970   5.554  0.4305  0.4981 -0.2117
17946SOL    HW165562   9.491   3.006   5.630  0.2078  0.6054 -0.1303
17946SOL    HW265563   9.368   2.929   5.589  0.6187  0.0400 -0.3197
17947SOL     OW65564   6.059   9.401   2.490  0.7348  0.5738 -0.3787
17947SOL    HW165565   6.045   9.385   2.583  2.0110  1.3747 -0.0155
17947SOL    HW265566   6.019   9.486   2.474  1.1295  0.7628 -0.3850
17948SOL     OW65567   3.607  10.447  11.292 -0.1977  0.8678  0.0534
17948SOL    HW165568   3.633  10.525  11.341  1.3047 -0.0257  0.7596
17948SOL    HW265569   3.589  10.479  11.203  0.3012  2.0345  0.3540
17949SOL     OW65570   1.158   6.420   3.737  0.5796 -0.1909 -0.4147
17949SOL    HW165571   1.101   6.345   3.724 -0.6759  0.2026  2.0777
17949SOL    HW265572   1.204   6.401   3.819 -0.2704  1.9669  0.6441
17950SOL     OW65573   0.664   4.744  11.577  0.0102  0.1416  0.0855
17950SOL    HW165574   0.751   4.756  11.540 -0.5090  1.0109 -0.9149
17950SOL    HW265575   0.627   4.832  11.581 -1.3100 -0.3380 -0.7923
17951SOL     OW65576   6.930   1.193   8.714 -0.1223 -0.8571  0.5461
17951SOL    HW165577   6.943   1.271   8.767 -3.2467 -1.5340  2.5338
17951SOL    HW265578   6.961   1.121   8.769 -0.6526 -1.3379  0.2257
17952SOL     OW65579  11.865   0.612   7.326  0.4152 -0.1616  0.5963
17952SOL    HW165580  11.835   0.701   7.343 -1.8519 -0.8203  0.3123
17952SOL    HW265581  11.947   0.623   7.278 -0.0867  1.7715  0.1041
17953SOL     OW65582   4.518  10.691   2.375  0.1625  0.0301 -0.0428
17953SOL    HW165583   4.436  10.700   2.328 -0.7487  1.4339  1.7120
17953SOL    HW265584   4.563  10.774   2.363  0.3197  0.0789  0.7942
17954SOL     OW65585   1.794   6.802   8.966 -0.3429  0.5964 -0.8796
17954SOL    HW165586   1.874   6.782   9.015 -2.1120 -0.6690  1.7397
17954SOL    HW265587   1.769   6.890   8.996 -1.7146 -0.3891  1.0978
17955SOL     OW65588  10.832   4.802   7.405 -0.2624  0.5628  0.3494
17955SOL    HW165589  10.885   4.780   7.481 -3.0543  0.1273  2.3416
17955SOL    HW265590  10.816   4.896   7.413  1.1921  0.9683 -0.9933
17956SOL     OW65591   4.544   1.072   6.222 -0.1209  0.4545  0.5176
17956SOL    HW165592   4.639   1.079   6.214 -0.2164 -0.2205 -2.1069
17956SOL    HW265593   4.530   1.040   6.312  2.1646 -0.2626  0.6934
17957SOL     OW65594   2.054   1.161   8.464  0.6177  0.1225 -0.0907
17957SOL    HW165595   2.065   1.070   8.437 -2.7702 -0.3615 -0.2776
17957SOL    HW265596   2.048   1.156   8.560 -2.1368 -0.3565 -0.1922
17958SOL     OW65597   7.809  10.737   5.614 -0.3651  0.0489 -0.2896
17958SOL    HW165598   7.892  10.697   5.637  0.8167  1.4615 -1.8665
17958SOL    HW265599   7.770  10.677   5.550  0.4929  0.4049 -1.1804
17959SOL     OW65600  11.310   8.549   7.144  0.3327  0.7025  0.4330
17959SOL    HW165601  11.220   8.571   7.168  0.6506  0.2728  2.1700
17959SOL    HW265602  11.361   8.564   7.224  1.7099  0.3752 -0.3443
17960SOL     OW65603   6.657   2.156   8.006  0.1949 -0.1289 -0.0021
17960SOL    HW165604   6.725   2.223   8.001  0.9530 -0.9652 -1.5297
17960SOL    HW265605   6.703   2.073   7.996 -0.7568 -0.9153  1.6174
17961SOL     OW65606   8.761   6.994   2.520  0.1013  0.0454  0.8435
17961SOL    HW165607   8.719   7.002   2.606  0.6310  0.7688  1.0500
17961SOL    HW265608   8.844   7.042   2.530  0.1395  0.1951 -0.0914
17962SOL     OW65609   4.960   8.434   8.893  0.4978 -0.3665 -0.3884
17962SOL    HW165610   4.967   8.405   8.984  0.8843  0.0346 -0.2840
17962SOL    HW265611   5.008   8.367   8.843  0.6873 -0.3427 -0.2411
17963SOL     OW65612   4.495   4.188  11.869 -0.0454 -0.0946  0.5288
17963SOL    HW165613   4.520   4.100  11.899  1.7166  0.5731  1.1972
17963SOL    HW265614   4.434   4.219  11.936 -1.4572 -1.1265 -0.2161
17964SOL     OW65615   2.215  11.135   2.863 -0.0002 -0.2839  0.0990
17964SOL    HW165616   2.217  11.108   2.955  0.0436  1.1884  0.5518
17964SOL    HW265617   2.299  11.180   2.849 -0.4945  0.5320 -0.3272
17965SOL     OW65618   8.414   5.946   0.495  0.1735 -0.2323  0.1575
17965SOL    HW165619   8.335   5.985   0.533 -0.1258  0.0066 -0.6943
17965SOL    HW265620   8.442   5.881   0.559 -1.8749 -1.7685 -0.4078
17966SOL     OW65621   2.035   3.068  11.348 -0.5925  0.0111  0.6406
17966SOL    HW165622   2.096   3.030  11.285  0.0129  0.4974  0.9213
17966SOL    HW265623   2.091   3.103  11.418 -1.0446  2.0595  0.0547
17967SOL     OW65624   3.940   1.245   9.870 -0.3669  0.3379 -1.3434
17967SOL    HW165625   4.023   1.285   9.895 -0.0141 -0.0526 -1.8627
17967SOL    HW265626   3.925   1.178   9.938  0.1178 -0.0910 -1.6517
17968SOL     OW65627   6.851   3.133   6.495 -0.2955 -0.0104  0.1457
17968SOL    HW165628   6.881   3.214   6.453  1.5011 -0.2468  0.8778
17968SOL    HW265629   6.860   3.066   6.427 -0.6266  0.1847 -0.0944
17969SOL     OW65630   9.953   1.723   3.344 -0.0697 -0.1044  0.3348
17969SOL    HW165631   9.928   1.631   3.353 -1.9036  0.3719  0.5188
17969SOL    HW265632   9.877   1.764   3.303  0.1540  1.5995  1.5589
17970SOL     OW65633   5.684   3.244   1.983 -0.1989  0.2547  0.0657
17970SOL    HW165634   5.604   3.259   2.034  1.0080  0.2685  2.0602
17970SOL    HW265635   5.664   3.280   1.897 -1.6479  2.0967  1.0939
17971SOL     OW65636  10.369   1.173   1.862  0.0010  0.7108 -0.1069
17971SOL    HW165637  10.294   1.128   1.823 -0.2170  1.7796 -0.9592
17971SOL    HW265638  10.436   1.105   1.869 -1.6809 -0.8337  2.6827
17972SOL     OW65639   5.460   7.040  11.388  0.2795  0.1118  0.9102
17972SOL    HW165640   5.505   7.038  11.304 -0.1141 -1.6914  0.7148
17972SOL    HW265641   5.438   7.132  11.401  0.8453  0.4983 -0.6726
17973SOL     OW65642   2.299  11.229   2.156  0.0965 -0.4228 -0.0121
17973SOL    HW165643   2.356  11.275   2.094 -0.2815 -1.0571 -0.8504
17973SOL    HW265644   2.357  11.202   2.227  0.3579  1.2241  0.4608
17974SOL     OW65645   7.501   5.562   4.449 -0.1676  0.2455 -0.3082
17974SOL    HW165646   7.532   5.532   4.363 -0.9285 -2.9506  0.4121
17974SOL    HW265647   7.407   5.573   4.438 -0.0579  1.4539 -0.2368
17975SOL     OW65648   3.083  10.636  10.935  0.1666  0.0586  0.8517
17975SOL    HW165649   3.110  10.546  10.957  0.6205 -0.2249 -0.7856
17975SOL    HW265650   2.988  10.634  10.943  0.1249 -0.7255  0.2872
17976SOL     OW65651   4.015   7.012   9.012  0.2104 -0.0461 -0.8628
17976SOL    HW165652   3.990   6.936   8.959  0.4217  0.7186 -2.1173
17976SOL    HW265653   4.107   6.997   9.034 -0.2314 -0.9969  0.4409
17977SOL     OW65654   5.745   8.832  11.653  0.1858 -0.0291  0.1051
17977SOL    HW165655   5.709   8.870  11.733  2.1397  2.7638 -0.2248
17977SOL    HW265656   5.827   8.791  11.680  0.2402 -0.1652 -0.2605
17978SOL     OW65657   1.279  11.116  11.436 -0.0928 -0.6918 -0.0951
17978SOL    HW165658   1.348  11.114  11.502  0.1551  1.6700 -0.1850
17978SOL    HW265659   1.198  11.117  11.487  0.0931  0.8759  0.2340
17979SOL     OW65660  10.166   9.153   6.259 -0.5009  0.4070  0.0237
17979SOL    HW165661  10.176   9.248   6.257 -0.3414  0.4127  0.8114
17979SOL    HW265662  10.248   9.121   6.297  0.2905 -0.1981 -2.0164
17980SOL     OW65663   3.299   0.450   4.959  0.5962 -0.1305  0.7896
17980SOL    HW165664   3.374   0.488   5.004 -0.0299  0.8250  1.0664
17980SOL    HW265665   3.278   0.513   4.890  1.2827 -1.3702 -0.5979
17981SOL     OW65666  11.851   1.763   3.073  0.6538  0.4619 -0.4503
17981SOL    HW165667  11.768   1.779   3.028  0.1673  0.4821  0.4297
17981SOL    HW265668  11.906   1.837   3.049 -0.0512  1.1558  0.0335
17982SOL     OW65669   0.707   1.339   2.415 -0.3596 -0.6856  0.3430
17982SOL    HW165670   0.780   1.296   2.371 -0.8394 -0.7848 -0.3682
17982SOL    HW265671   0.681   1.278   2.484  0.4427 -0.4941  0.8237
17983SOL     OW65672   8.092   2.815   3.939  0.0444 -0.3942  0.0111
17983SOL    HW165673   8.186   2.811   3.922 -0.4139 -1.9557 -2.6566
17983SOL    HW265674   8.069   2.726   3.967 -0.5245  0.2365  1.6886
17984SOL     OW65675   9.905  10.801   3.275  0.1679  0.1400  0.7238
17984SOL    HW165676   9.938  10.743   3.207 -1.9776  0.7888 -0.9834
17984SOL    HW265677   9.956  10.882   3.264 -0.3628  0.3468 -0.3542
17985SOL     OW65678   8.084   7.287   7.866  0.0945  0.1745  0.0496
17985SOL    HW165679   8.122   7.372   7.845 -0.2369  0.2567 -0.2210
17985SOL    HW265680   8.015   7.307   7.930 -0.0119  0.1113 -0.0469
17986SOL     OW65681   6.449   5.399  10.285 -0.0654 -0.2223  0.2423
17986SOL    HW165682   6.375   5.391  10.226 -0.7647  1.4919  0.8197
17986SOL    HW265683   6.523   5.364  10.236 -0.8279  0.1334 -1.2134
17987SOL     OW65684  11.521   3.614   7.596  0.5505 -0.2591  0.6568
17987SOL    HW165685  11.533   3.679   7.665 -1.4182  0.0353  0.7800
17987SOL    HW265686  11.426   3.608   7.585  0.7451 -1.9122 -0.5042
17988SOL     OW65687   9.763   6.892  10.026 -0.3305 -0.2933  0.1128
17988SOL    HW165688   9.746   6.820   9.965  2.9371 -2.0660  1.0217
17988SOL    HW265689   9.708   6.872  10.102 -1.8322  0.0164 -0.8407
17989SOL     OW65690  10.700   2.772   5.702 -0.2743  0.1481  0.3410
17989SOL    HW165691  10.651   2.722   5.767 -1.0174 -0.0086 -0.3386
17989SOL    HW265692  10.743   2.841   5.754 -0.5400 -0.2067  1.0529
17990SOL     OW65693   3.198   7.990   8.724 -0.1276 -0.0258 -0.7352
17990SOL    HW165694   3.134   7.987   8.652  0.5167 -0.7351 -1.2964
17990SOL    HW265695   3.258   7.917   8.705  1.5036  1.2916 -0.8355
17991SOL     OW65696   2.587  11.793  10.255 -0.1408  0.1797  0.4799
17991SOL    HW165697   2.541  11.843  10.189  0.4224  0.3013  0.1680
17991SOL    HW265698   2.534  11.802  10.334 -0.4823  0.5683  0.2096
17992SOL     OW65699   3.358   1.185  10.552 -0.6038  0.3484  0.8470
17992SOL    HW165700   3.449   1.166  10.531 -0.3009  0.6754  1.8256
17992SOL    HW265701   3.329   1.245  10.483 -0.0268  0.3763  0.6282
17993SOL     OW65702   3.325   9.635   0.590  0.4085 -0.3949  0.3562
17993SOL    HW165703   3.338   9.615   0.683 -1.4592 -0.8581  0.5557
17993SOL    HW265704   3.331   9.550   0.546  0.6531 -0.2598  0.1238
17994SOL     OW65705   9.315   6.608   3.948 -0.2150 -0.1616  0.0917
17994SOL    HW165706   9.310   6.519   3.982 -0.1294  0.5476  2.0349
17994SOL    HW265707   9.317   6.664   4.025 -0.3628  1.5522 -1.0868
17995SOL     OW65708   3.588   5.359   0.864 -0.2956  0.1132 -0.2175
17995SOL    HW165709   3.563   5.316   0.946 -0.3007  2.4457  1.0968
17995SOL    HW265710   3.506   5.369   0.816 -0.7328  1.0596  0.6957
17996SOL     OW65711   3.679  11.093   0.924  0.0123  0.3762  0.0109
17996SOL    HW165712   3.665  11.093   0.830  0.6308  0.2295 -0.0851
17996SOL    HW265713   3.591  11.085   0.961 -0.1842 -0.2745 -0.5653
17997SOL     OW65714   0.353   1.529  10.762  0.1138 -0.2036  0.1543
17997SOL    HW165715   0.401   1.484  10.831  1.0535  0.2499 -0.1936
17997SOL    HW265716   0.414   1.595  10.729  0.0406 -1.0228 -1.7473
17998SOL     OW65717   3.026   8.779   6.575 -0.6835  0.1602  0.6744
17998SOL    HW165718   2.991   8.723   6.643  0.9447 -0.8553  0.7353
17998SOL    HW265719   3.054   8.719   6.505  0.7222  0.8876  0.5653
17999SOL     OW65720  11.075   3.694   3.631  0.4874 -0.6464  0.3431
17999SOL    HW165721  11.117   3.623   3.679  1.0338 -0.2272  0.5022
17999SOL    HW265722  11.020   3.738   3.696 -0.1603 -1.1588  0.1491
18000SOL     OW65723  11.303   9.784   7.506 -0.6626  0.7660  0.8369
18000SOL    HW165724  11.343   9.858   7.551  1.1792  0.6385 -0.4504
18000SOL    HW265725  11.218   9.817   7.476  0.7056  2.9538 -1.0253
18001SOL     OW65726   2.866   4.417   5.773  0.1239  0.5403  0.4791
18001SOL    HW165727   2.796   4.356   5.749 -1.9078  3.0724 -0.4286
18001SOL    HW265728   2.832   4.463   5.850  1.1915  1.2170  0.5605
18002SOL     OW65729   5.233   6.116  11.459  0.2670  0.4084 -0.0521
18002SOL    HW165730   5.160   6.054  11.457  0.1159  0.5645  0.5507
18002SOL    HW265731   5.307   6.066  11.425  0.0323  0.0455 -0.0389
18003SOL     OW65732   8.353   0.961   8.139  0.4113 -0.1417 -0.0060
18003SOL    HW165733   8.386   1.049   8.156 -2.8475  1.1289  0.3955
18003SOL    HW265734   8.380   0.910   8.216  0.9406  0.9249  0.5343
18004SOL     OW65735   9.872   4.490   4.036 -0.1502  0.0648 -0.3949
18004SOL    HW165736   9.966   4.474   4.027 -0.1442 -0.7659  0.8766
18004SOL    HW265737   9.857   4.490   4.130 -1.4343  0.1619 -0.5858
18005SOL     OW65738   8.538   9.534  11.428 -0.0110 -0.5045  0.1068
18005SOL    HW165739   8.534   9.459  11.369 -1.1849 -0.3959  0.0112
18005SOL    HW265740   8.600   9.594  11.387 -0.8547 -0.4004 -1.0845
18006SOL     OW65741   4.278   0.684   1.305  0.2144 -0.0762 -0.4258
18006SOL    HW165742   4.353   0.641   1.347  1.3628  1.3886 -0.8760
18006SOL    HW265743   4.226   0.612   1.269  1.5495 -1.1292 -0.3410
18007SOL     OW65744   0.290   6.137   9.759 -0.2305 -0.0471 -0.2415
18007SOL    HW165745   0.234   6.196   9.709  0.5346  0.8604 -0.0624
18007SOL    HW265746   0.362   6.116   9.700 -1.4042 -2.3230 -0.9708
18008SOL     OW65747   8.142   7.852   1.790 -0.4955 -0.7916 -0.9145
18008SOL    HW165748   8.197   7.925   1.762  0.3258 -1.3373 -0.7695
18008SOL    HW265749   8.141   7.858   1.886 -3.1372  0.9582 -0.9689
18009SOL     OW65750   2.842   6.059   0.019  0.2051  0.5194 -0.1729
18009SOL    HW165751   2.890   5.981   0.046  0.9292  0.7206 -0.8470
18009SOL    HW265752   2.905   6.130   0.026 -0.4695  1.0653  0.5051
18010SOL     OW65753   1.298   6.150   3.194 -0.0624  0.2713 -0.0498
18010SOL    HW165754   1.332   6.218   3.136 -1.5326  0.8003 -0.3352
18010SOL    HW265755   1.341   6.070   3.166  1.4966  1.0161  0.1087
18011SOL     OW65756   3.843  10.099   2.717 -0.3620  0.3023 -0.3977
18011SOL    HW165757   3.838  10.190   2.690  0.4372  0.1736 -1.0152
18011SOL    HW265758   3.875  10.103   2.808  1.0606  0.6033 -0.8863
18012SOL     OW65759   3.449   1.619   8.436  0.0527  0.2624  0.1648
18012SOL    HW165760   3.423   1.703   8.473  0.4140 -0.0595  1.2039
18012SOL    HW265761   3.379   1.558   8.462  0.4443 -0.0234  0.5817
18013SOL     OW65762   8.877   4.801   5.954  0.6085 -0.3535 -0.5093
18013SOL    HW165763   8.915   4.728   5.907  2.1732  0.4944 -0.6148
18013SOL    HW265764   8.937   4.874   5.940  0.2186  0.4017  1.3298
18014SOL     OW65765   3.956   5.518   3.809 -0.4398 -0.0131  0.4695
18014SOL    HW165766   3.990   5.451   3.867  0.7913  0.3428  0.1863
18014SOL    HW265767   3.972   5.484   3.721 -1.0486  0.0578  0.3262
18015SOL     OW65768   3.552   2.781   2.344  0.5565  0.3783 -0.3519
18015SOL    HW165769   3.609   2.839   2.393 -0.1004  1.0035 -0.3021
18015SOL    HW265770   3.576   2.693   2.373  3.8886  0.2659 -2.8249
18016SOL     OW65771   6.978   2.863   2.850  0.1912 -0.0120 -0.3437
18016SOL    HW165772   6.898   2.910   2.826 -0.5044 -0.3048  1.2887
18016SOL    HW265773   6.999   2.895   2.938  1.7475 -0.1246 -0.6422
18017SOL     OW65774   6.004   4.952   1.413 -0.8289  0.4630 -0.0403
18017SOL    HW165775   6.082   4.981   1.461 -0.5134  0.2357 -0.4041
18017SOL    HW265776   6.023   4.861   1.391 -1.3482  0.3071  0.1655
18018SOL     OW65777   2.106   7.221  11.329 -0.3882  0.4304  0.4140
18018SOL    HW165778   2.100   7.186  11.240  0.2402  0.9813  0.1430
18018SOL    HW265779   2.114   7.316  11.317 -2.1547  0.7114  1.1364
18019SOL     OW65780   2.747   4.777   4.396  0.3920 -0.0473 -0.1353
18019SOL    HW165781   2.787   4.754   4.480  2.8785  1.5442 -0.7830
18019SOL    HW265782   2.741   4.694   4.349 -0.6502 -0.8967  1.3964
18020SOL     OW65783   0.074  10.835  10.351 -0.1287 -0.5165 -0.0399
18020SOL    HW165784   0.096  10.771  10.283 -0.5350 -1.9462  1.1134
18020SOL    HW265785   0.158  10.873  10.377 -0.0911  1.0269 -2.2048
18021SOL     OW65786  10.078   4.505   4.773  0.2619  0.0435 -0.1872
18021SOL    HW165787  10.104   4.591   4.738  2.2464 -0.1604  0.6612
18021SOL    HW265788  10.094   4.511   4.867 -0.8291 -0.8419  0.0732
18022SOL     OW65789   5.188  11.910   9.230  0.8482 -0.0233  0.3098
18022SOL    HW165790   5.279  11.899   9.202  0.4714  1.1719 -1.5641
18022SOL    HW265791   5.137  11.872   9.158 -0.1686  2.6018 -0.4714
18023SOL     OW65792   4.947   3.088   1.992  0.5725  0.2018 -0.6543
18023SOL    HW165793   4.951   3.116   1.901  2.3386  1.7085 -0.1754
18023SOL    HW265794   5.039   3.082   2.019  0.0957 -0.8174  0.8707
18024SOL     OW65795   3.444   2.819   8.967  0.5807 -0.2484 -0.6648
18024SOL    HW165796   3.392   2.754   9.016 -0.1339  2.2928  2.2377
18024SOL    HW265797   3.535   2.794   8.982  0.3486  0.0367  1.4434
18025SOL     OW65798   3.033   3.608   2.087  0.0534  0.4077 -0.3455
18025SOL    HW165799   2.937   3.611   2.090  0.0829  1.4879  0.2060
18025SOL    HW265800   3.054   3.578   1.999 -0.7938 -0.7181 -0.1840
18026SOL     OW65801   0.515   8.257   7.767  0.6653  0.0144  0.2845
18026SOL    HW165802   0.588   8.292   7.818 -0.3214  2.4150  0.2207
18026SOL    HW265803   0.497   8.325   7.701 -0.7421 -1.1247 -0.5801
18027SOL     OW65804   7.043   1.106   6.803 -0.5752  0.0682  0.0861
18027SOL    HW165805   7.034   1.086   6.896  0.4975  1.6830  0.5824
18027SOL    HW265806   7.126   1.153   6.796 -1.4168  1.4416 -1.4076
18028SOL     OW65807   9.871   1.868  11.183 -0.1471  0.3631  0.2455
18028SOL    HW165808   9.892   1.895  11.273  0.9716  0.3578  0.0055
18028SOL    HW265809   9.884   1.947  11.131  0.5876  0.0270 -0.0983
18029SOL     OW65810   1.189   8.957   6.408 -0.0308 -0.0501 -0.1098
18029SOL    HW165811   1.219   8.870   6.435 -0.5185  0.3784  2.0333
18029SOL    HW265812   1.226   8.970   6.321 -0.4009 -2.6048 -0.7108
18030SOL     OW65813   0.088   9.682   8.945 -0.8289 -0.2770 -0.1760
18030SOL    HW165814   0.167   9.686   8.998 -0.7392  2.7755 -0.3400
18030SOL    HW265815   0.119   9.688   8.854 -1.1971 -0.0413 -0.2924
18031SOL     OW65816   0.559  11.442   5.428 -0.0095  0.3189 -0.9091
18031SOL    HW165817   0.617  11.491   5.370  0.8472 -0.9930 -1.2097
18031SOL    HW265818   0.576  11.350   5.407  0.9673 -0.2619  1.9492
18032SOL     OW65819   7.076  11.905   9.544  0.1233  0.4314 -0.2528
18032SOL    HW165820   7.144  11.873   9.603 -0.5941 -0.5676  0.0533
18032SOL    HW265821   7.119  11.910   9.459  0.8753  0.8771  0.1433
18033SOL     OW65822   2.477  11.187   2.860 -0.5767  0.2200 -0.5458
18033SOL    HW165823   2.547  11.123   2.872 -0.8308  0.0934  0.3965
18033SOL    HW265824   2.494  11.226   2.774  1.3902  1.1132  0.1916
18034SOL     OW65825   6.563   9.332   6.943 -0.2425  0.1383  0.6004
18034SOL    HW165826   6.610   9.302   7.022  0.0391 -1.8121 -0.2444
18034SOL    HW265827   6.510   9.257   6.917  0.8457  0.1559 -1.9312
18035SOL     OW65828   1.447   4.070   2.849  0.3837  0.0070  0.3501
18035SOL    HW165829   1.422   4.003   2.913 -0.6062  0.1614  0.1362
18035SOL    HW265830   1.512   4.026   2.794  0.2447 -0.5636  0.6272
18036SOL     OW65831   6.590   9.875   8.919 -0.2620  0.4763 -0.2439
18036SOL    HW165832   6.503   9.841   8.937 -0.0919  0.3377  0.3593
18036SOL    HW265833   6.630   9.884   9.006  1.1018 -1.5019 -0.6006
18037SOL     OW65834   9.126  11.653   0.791  0.0600  0.0238 -0.2435
18037SOL    HW165835   9.070  11.598   0.736 -0.3695 -0.9198  1.0784
18037SOL    HW265836   9.110  11.742   0.759 -1.6090 -0.2965 -0.4288
18038SOL     OW65837   9.672   6.220   5.706  0.5585 -0.1666 -0.2194
18038SOL    HW165838   9.675   6.130   5.675 -1.6199 -1.4627  2.9025
18038SOL    HW265839   9.587   6.229   5.748  1.6429  2.6281  1.7086
18039SOL     OW65840  10.681   2.628   2.063  0.1360 -0.6677  0.5187
18039SOL    HW165841  10.629   2.702   2.033  0.1521 -0.0674  1.9204
18039SOL    HW265842  10.617   2.565   2.095 -0.0930 -2.4454 -2.9230
18040SOL     OW65843   1.393  11.658   9.293 -0.4414  0.3561  0.2054
18040SOL    HW165844   1.338  11.655   9.214  0.0234  1.6255 -0.1884
18040SOL    HW265845   1.482  11.665   9.260 -0.3699  3.3729  0.7478
18041SOL     OW65846   5.373   6.331   6.874  0.2320 -0.0995  0.2631
18041SOL    HW165847   5.428   6.386   6.818 -1.8473 -0.0090 -1.8452
18041SOL    HW265848   5.351   6.388   6.949  0.6244  0.8640 -0.3301
18042SOL     OW65849   7.664   3.941   8.151  0.1430 -0.0773 -0.2196
18042SOL    HW165850   7.656   3.860   8.099 -0.1292  0.4433 -1.0119
18042SOL    HW265851   7.648   3.913   8.241  1.0813 -1.0848 -0.3471
18043SOL     OW65852   3.173   8.671   5.479  0.3255 -0.7781  0.1436
18043SOL    HW165853   3.095   8.616   5.468  0.8407 -1.5613  0.2888
18043SOL    HW265854   3.220   8.630   5.552 -0.7168  1.5592  2.3057
18044SOL     OW65855   7.349   9.823   7.908 -0.1179  0.0383 -0.3097
18044SOL    HW165856   7.276   9.868   7.950 -0.1840  1.9520 -2.2630
18044SOL    HW265857   7.333   9.834   7.814  1.3554 -1.7530 -0.8282
18045SOL     OW65858   1.856   1.454  10.549  0.0653 -0.1770 -0.1701
18045SOL    HW165859   1.767   1.453  10.514 -0.0895  1.5361  0.1146
18045SOL    HW265860   1.848   1.495  10.635  1.2907  1.1409 -0.6514
18046SOL     OW65861   5.956   4.660   4.839 -0.2461  0.4670 -0.5378
18046SOL    HW165862   5.918   4.734   4.792  0.2880  1.0637 -0.0445
18046SOL    HW265863   5.976   4.596   4.770 -1.4039  0.4571 -0.8832
18047SOL     OW65864   3.947  11.572   0.174 -0.5246  0.8270 -0.1341
18047SOL    HW165865   3.965  11.661   0.146 -1.7020  0.6329 -1.6806
18047SOL    HW265866   3.917  11.528   0.094  2.0346 -1.5617  0.0384
18048SOL     OW65867   7.816   9.600   2.443 -0.7863 -0.3895  0.0787
18048SOL    HW165868   7.843   9.660   2.513 -1.7702  0.5060 -0.2893
18048SOL    HW265869   7.812   9.654   2.365 -0.2095 -1.2752 -0.5871
18049SOL     OW65870   7.001   8.550  11.702 -0.0280 -0.0055  0.1816
18049SOL    HW165871   7.000   8.490  11.776  0.5676 -0.0904  0.1220
18049SOL    HW265872   7.015   8.493  11.626 -0.2068  0.1279  0.0479
18050SOL     OW65873  10.028   2.176   6.550  0.7979 -0.0383  0.4226
18050SOL    HW165874   9.941   2.211   6.528  1.6256  1.1106 -1.2173
18050SOL    HW265875  10.011   2.114   6.620 -1.3291  0.3305  0.3141
18051SOL     OW65876   2.116   9.797  11.233 -0.2779 -0.2549 -0.5328
18051SOL    HW165877   2.190   9.832  11.283 -0.3004  0.9809 -1.3162
18051SOL    HW265878   2.120   9.844  11.149 -2.5923  0.6870 -0.1798
18052SOL     OW65879   7.663   8.395   0.159  0.2826 -0.1997 -0.0611
18052SOL    HW165880   7.742   8.348   0.187  2.3364  2.3632 -1.1762
18052SOL    HW265881   7.650   8.366   0.069  0.3705 -0.1022 -0.1053
18053SOL     OW65882   5.180   4.384  10.815  0.0230  0.0751 -0.4620
18053SOL    HW165883   5.273   4.393  10.797  0.5575  0.8162  2.1688
18053SOL    HW265884   5.145   4.473  10.804 -0.0426  0.1215  0.1000
18054SOL     OW65885   4.474   0.627   4.799  0.2111 -0.3849  0.3189
18054SOL    HW165886   4.534   0.621   4.873 -0.5693 -0.7875  0.9387
18054SOL    HW265887   4.462   0.721   4.786  0.7302 -0.3043  0.3841
18055SOL     OW65888   5.331   6.922  11.076 -0.4144 -0.1412 -0.7536
18055SOL    HW165889   5.383   6.961  11.006  0.3519 -2.4649 -1.5657
18055SOL    HW265890   5.388   6.856  11.115 -0.8480  1.0116  2.0655
18056SOL     OW65891   3.082   7.155   2.505  0.2094  0.6973 -0.1016
18056SOL    HW165892   3.143   7.214   2.548  0.4387  0.6437 -0.3534
18056SOL    HW265893   3.053   7.095   2.575 -1.0850  1.9437  0.4907
18057SOL     OW65894   5.612   6.653  10.214  0.5330  0.0138 -0.3179
18057SOL    HW165895   5.571   6.618  10.293 -0.6898 -1.6047 -1.6104
18057SOL    HW265896   5.701   6.618  10.215  1.1823  1.5351  1.2413
18058SOL     OW65897   2.086   8.325   4.124  0.6783 -0.0023  0.1727
18058SOL    HW165898   2.151   8.260   4.095  0.1890 -0.8177  0.8427
18058SOL    HW265899   2.058   8.368   4.043 -0.1903 -1.7789 -0.5502
18059SOL     OW65900   5.910   8.885   1.608 -0.0831  0.4732 -0.0919
18059SOL    HW165901   5.860   8.945   1.553  0.9906  1.0174 -0.5097
18059SOL    HW265902   5.969   8.942   1.658  0.0240 -0.1381  0.4918
18060SOL     OW65903   6.490   8.787   7.637 -0.4867  0.1046 -0.0907
18060SOL    HW165904   6.543   8.771   7.714 -0.8329 -0.5597  0.0114
18060SOL    HW265905   6.513   8.877   7.611  0.4342 -0.0505  0.1366
18061SOL     OW65906   8.397   1.469   8.399  0.1380 -0.1009 -0.1519
18061SOL    HW165907   8.405   1.530   8.325  2.8783 -0.0632  0.0536
18061SOL    HW265908   8.407   1.524   8.477 -1.1179 -0.3554  0.2082
18062SOL     OW65909   8.718   4.670   8.306  0.4940 -0.2848  0.2867
18062SOL    HW165910   8.710   4.667   8.402  0.7211 -0.0486  0.3140
18062SOL    HW265911   8.655   4.605   8.275 -0.1130  0.1533  0.5742
18063SOL     OW65912  11.892  11.325  10.425  0.5845  0.7730  0.7736
18063SOL    HW165913  11.803  11.327  10.460  0.8799  0.2511  1.5542
18063SOL    HW265914  11.903  11.236  10.392  0.3205  1.2373 -0.6632
18064SOL     OW65915   3.094   9.842   5.375  0.4046 -0.3866  0.1521
18064SOL    HW165916   3.189   9.834   5.374  0.4085 -0.7188 -1.9330
18064SOL    HW265917   3.062   9.757   5.403  0.7289 -0.9170 -1.0263
18065SOL     OW65918  11.458   3.276   6.750  0.4401  0.7048  0.2206
18065SOL    HW165919  11.511   3.254   6.827  0.9646  0.3819 -0.2174
18065SOL    HW265920  11.448   3.193   6.704 -0.1860  0.8264  0.1299
18066SOL     OW65921   3.363   2.099   3.698  0.4479  0.2057 -0.0874
18066SOL    HW165922   3.286   2.042   3.704 -0.5686  1.5502  0.3546
18066SOL    HW265923   3.427   2.061   3.758 -0.6597  0.1746  1.1278
18067SOL     OW65924   1.493  10.521  10.373 -0.0834  0.5596 -0.5126
18067SOL    HW165925   1.573  10.572  10.387  0.6849 -0.8412  0.4262
18067SOL    HW265926   1.510  10.471  10.293  0.4414 -0.5550  0.2786
18068SOL     OW65927   3.662   9.300  11.089  0.4868 -0.2607  0.0735
18068SOL    HW165928   3.587   9.294  11.148 -0.5525 -0.9095 -1.2649
18068SOL    HW265929   3.734   9.261  11.138 -0.4432 -1.1525  0.7818
18069SOL     OW65930   2.434   3.403   0.145  0.7979 -0.0182 -0.0514
18069SOL    HW165931   2.462   3.316   0.115  3.9726  0.7830  0.2378
18069SOL    HW265932   2.464   3.407   0.236 -0.3999  0.9604  0.3182
18070SOL     OW65933   2.076   9.188   7.606 -0.0305  0.1882  0.4760
18070SOL    HW165934   2.014   9.151   7.543 -0.4511  0.9299  0.4410
18070SOL    HW265935   2.162   9.169   7.568 -0.2781  0.6009 -0.3196
18071SOL     OW65936   6.465   3.689   5.120  0.2227 -0.1117 -0.0175
18071SOL    HW165937   6.464   3.666   5.213  0.9093  0.9191  0.2615
18071SOL    HW265938   6.496   3.780   5.118  0.9302 -0.3604 -1.3106
18072SOL     OW65939   8.451   0.292   0.379 -0.6199  0.2876  0.4994
18072SOL    HW165940   8.385   0.293   0.310 -0.0264  0.5506 -0.0762
18072SOL    HW265941   8.479   0.200   0.383 -2.5833 -0.3227  2.3059
18073SOL     OW65942  11.691   2.319   3.983 -0.5861 -0.3594  0.2367
18073SOL    HW165943  11.707   2.405   3.945 -1.0259 -0.1368  0.5459
18073SOL    HW265944  11.613   2.331   4.037 -0.0640 -0.6966  1.0955
18074SOL     OW65945   6.815   0.852   6.206 -0.0856  0.3994 -0.0204
18074SOL    HW165946   6.835   0.945   6.196  0.5059  0.2858  0.0753
18074SOL    HW265947   6.753   0.849   6.279  1.2206  0.5752  1.1323
18075SOL     OW65948   4.873   3.192   9.498  0.0985 -0.3386  0.3563
18075SOL    HW165949   4.788   3.164   9.462 -0.8333  0.1783  2.0100
18075SOL    HW265950   4.850   3.242   9.577  1.8251  2.4346 -0.7564
18076SOL     OW65951   9.659   8.847   7.412 -0.5548 -0.8923  0.3656
18076SOL    HW165952   9.574   8.890   7.400  0.4310  1.5349  1.3568
18076SOL    HW265953   9.673   8.850   7.507  0.6946 -1.0704  0.2022
18077SOL     OW65954   9.685   5.005   2.203  0.3191  0.0493  0.4529
18077SOL    HW165955   9.623   4.990   2.275 -0.1319  0.0809  0.0702
18077SOL    HW265956   9.765   4.960   2.232  0.0645 -0.1500  0.8660
18078SOL     OW65957   0.257   5.797   4.775  0.4796  0.1402 -0.6004
18078SOL    HW165958   0.348   5.803   4.747  0.4333  0.6902 -0.6385
18078SOL    HW265959   0.206   5.810   4.695  0.3629  0.2420 -0.5097
18079SOL     OW65960   1.836   2.451   1.376 -0.4519 -0.7627 -0.4097
18079SOL    HW165961   1.741   2.452   1.362 -0.6665 -0.7024  0.9878
18079SOL    HW265962   1.850   2.508   1.451  0.9645  1.1321 -2.0048
18080SOL     OW65963   8.505   6.283  11.133 -0.2309  0.3910  0.0017
18080SOL    HW165964   8.527   6.329  11.214  1.1599  1.9397 -1.1823
18080SOL    HW265965   8.412   6.262  11.143 -0.3020  1.2561  1.6555
18081SOL     OW65966   0.000   2.743   1.624 -0.8952 -0.3778 -0.4259
18081SOL    HW165967  -0.052   2.720   1.700  2.0440 -0.4491  1.7267
18081SOL    HW265968   0.058   2.668   1.610  1.1191  1.0829 -0.3693
18082SOL     OW65969   2.861   2.119   9.712  0.0081 -0.5424  0.9918
18082SOL    HW165970   2.784   2.153   9.665  0.8391 -0.5136 -0.4243
18082SOL    HW265971   2.839   2.128   9.804 -1.1757  0.6658  0.6239
18083SOL     OW65972  11.117   3.069   1.910 -0.2842 -0.0361 -0.4554
18083SOL    HW165973  11.088   3.012   1.839 -1.1106  0.9588 -0.9352
18083SOL    HW265974  11.188   3.121   1.872  2.2370 -2.3945  0.6848
18084SOL     OW65975   4.247   5.681   9.241  0.4870  0.2063  0.4915
18084SOL    HW165976   4.256   5.622   9.316 -2.9674  0.9733  1.6616
18084SOL    HW265977   4.298   5.759   9.265  0.2267  0.0396  1.6028
18085SOL     OW65978   1.167   1.361   1.795 -0.5537 -0.0503 -0.1012
18085SOL    HW165979   1.201   1.275   1.769 -0.6269  0.1147 -0.7501
18085SOL    HW265980   1.188   1.418   1.722  0.7206  0.8104  0.8977
18086SOL     OW65981   0.733   3.163   6.363 -0.2574 -0.4093  0.4024
18086SOL    HW165982   0.648   3.141   6.323  0.6027  0.5046 -2.1040
18086SOL    HW265983   0.719   3.248   6.403 -0.4246  0.0056 -0.4945
18087SOL     OW65984   3.710   9.800   2.990 -0.5970  0.4942 -0.1010
18087SOL    HW165985   3.791   9.807   2.939 -0.6806 -1.5839 -0.5926
18087SOL    HW265986   3.653   9.745   2.937 -1.8600  0.8426  0.8469
18088SOL     OW65987   6.542   9.366   5.638  0.2698 -0.5134  0.0516
18088SOL    HW165988   6.574   9.433   5.578  0.4045  0.5906  1.3107
18088SOL    HW265989   6.452   9.393   5.658  0.3008 -0.7401  0.5174
18089SOL     OW65990   3.777   0.042   3.518  0.3568 -0.2561  0.1104
18089SOL    HW165991   3.724  -0.035   3.536  0.7212 -0.9468 -1.5196
18089SOL    HW265992   3.860   0.025   3.562 -0.0174 -0.1853  0.8457
18090SOL     OW65993   5.708   7.169   8.237  0.3000 -0.3882  0.7236
18090SOL    HW165994   5.762   7.092   8.219  1.2089 -0.2001  2.4436
18090SOL    HW265995   5.621   7.133   8.254  0.6533 -1.0295  1.2472
18091SOL     OW65996   7.939   2.908  11.355  0.3239  0.1550 -0.4020
18091SOL    HW165997   7.858   2.883  11.310  0.9955 -3.3727  0.0227
18091SOL    HW265998   7.986   2.962  11.292 -0.3801 -1.5742 -2.5412
18092SOL     OW65999   6.125   8.808   9.167  0.1471  0.1506 -0.3791
18092SOL    HW166000   6.159   8.892   9.138  0.4233 -0.0988 -0.7929
18092SOL    HW266001   6.040   8.801   9.125 -0.3575  0.7005  0.5227
18093SOL     OW66002   9.741   2.562  10.574 -0.1296 -0.2391 -0.0461
18093SOL    HW166003   9.663   2.587  10.624  1.4120  1.2765  1.7600
18093SOL    HW266004   9.733   2.468  10.563 -2.2991 -0.1119 -0.0967
18094SOL     OW66005   0.166   0.071  11.913  0.1096 -0.0120 -0.2160
18094SOL    HW166006   0.236   0.132  11.892  1.8585 -1.6173  0.7241
18094SOL    HW266007   0.182  -0.004  11.856  0.4478 -1.2649  1.4570
18095SOL     OW66008   4.498   3.229  11.008 -0.0318  0.6755 -0.0617
18095SOL    HW166009   4.586   3.266  11.016  0.5718 -0.9298  1.1223
18095SOL    HW266010   4.477   3.238  10.915  1.0867  1.6998 -0.2423
18096SOL     OW66011   3.866   6.235  11.478  0.1606 -0.2480 -0.4071
18096SOL    HW166012   3.847   6.195  11.394  0.0592  1.1521 -1.0892
18096SOL    HW266013   3.780   6.248  11.518  0.2308 -1.2382  0.0839
18097SOL     OW66014  10.130   5.919   7.713  0.7102  0.0604 -0.1291
18097SOL    HW166015  10.148   6.011   7.698  0.9294  0.5148  2.4160
18097SOL    HW266016  10.075   5.917   7.792 -0.4670 -1.9260 -0.9102
18098SOL     OW66017   1.327  10.832   8.826  0.6020  0.3786  0.0133
18098SOL    HW166018   1.364  10.915   8.796  1.6989 -0.1756 -0.2062
18098SOL    HW266019   1.359  10.767   8.763 -0.8951 -0.0988 -0.2870
18099SOL     OW66020   8.823   4.049  10.554  0.1170  0.1488  0.3352
18099SOL    HW166021   8.818   4.127  10.498  1.1838 -0.4016 -0.5650
18099SOL    HW266022   8.900   4.064  10.609 -0.4742  0.3350  1.1221
18100SOL     OW66023  10.479   5.827  10.321  0.1750  0.2876  0.8940
18100SOL    HW166024  10.454   5.813  10.412 -0.0754 -0.3636  0.7290
18100SOL    HW266025  10.568   5.793  10.316 -0.3151 -0.9844  0.5704
18101SOL     OW66026   0.605  11.491   6.467  0.1911  0.4463  0.2076
18101SOL    HW166027   0.606  11.484   6.371 -0.4241  0.4553  0.1927
18101SOL    HW266028   0.663  11.565   6.487 -0.8238  1.3992 -0.2602
18102SOL     OW66029   2.855   2.069   3.653  0.1381  0.1474 -0.5485
18102SOL    HW166030   2.891   2.156   3.634 -0.2616  0.3730 -0.2879
18102SOL    HW266031   2.905   2.039   3.729 -2.5940  2.0127  2.2181
18103SOL     OW66032   7.960   0.978   4.332 -0.0157 -0.0098 -0.2242
18103SOL    HW166033   7.979   0.897   4.283  1.5629 -0.4227  1.0000
18103SOL    HW266034   7.992   0.961   4.420 -1.7061  1.1688  0.6795
18104SOL     OW66035   7.293   2.092  11.675  0.3699  0.1849 -0.0883
18104SOL    HW166036   7.356   2.088  11.747  2.4787  1.2447 -1.7744
18104SOL    HW266037   7.208   2.084  11.718  1.5638 -0.0615  2.4250
18105SOL     OW66038   7.658  10.112   5.374  0.2656  0.1216  0.0089
18105SOL    HW166039   7.697  10.095   5.288 -0.4186  0.1953 -0.3261
18105SOL    HW266040   7.621  10.200   5.367  0.1634  0.1105  0.3614
18106SOL     OW66041   4.831   5.141   5.880  0.0551 -0.0069 -0.4209
18106SOL    HW166042   4.769   5.096   5.937 -0.6610  1.4150 -0.0170
18106SOL    HW266043   4.780   5.213   5.842  0.8071 -0.2888 -2.0261
18107SOL     OW66044   0.828   0.512  11.063 -0.3033 -0.3466  0.1279
18107SOL    HW166045   0.820   0.523  11.158  0.1472 -0.9241  0.2364
18107SOL    HW266046   0.922   0.513  11.046 -0.3538 -0.9712 -0.2209
18108SOL     OW66047   9.195   9.675  11.520 -0.2829 -0.2944 -0.3654
18108SOL    HW166048   9.149   9.644  11.442  0.3863  0.1784 -0.9649
18108SOL    HW266049   9.151   9.758  11.542  0.5310  0.3821 -1.1995
18109SOL     OW66050  10.498   0.013   1.407 -0.1504 -0.4330  0.2742
18109SOL    HW166051  10.458  -0.035   1.479 -1.3926 -0.2802 -0.2900
18109SOL    HW266052  10.462   0.102   1.415  1.1986  0.1177  0.6003
18110SOL     OW66053   6.545   2.359   1.262  0.3355  0.4586 -0.0622
18110SOL    HW166054   6.632   2.353   1.300  0.9869 -2.1265 -1.6998
18110SOL    HW266055   6.500   2.279   1.290 -0.0769 -0.1951 -2.3154
18111SOL     OW66056   0.636   6.102   0.086  0.1121  0.3552  0.2095
18111SOL    HW166057   0.606   6.013   0.106 -2.6957  1.1731  0.0109
18111SOL    HW266058   0.727   6.090   0.058  0.0340 -2.3632  0.7955
18112SOL     OW66059   6.321   7.041   9.191 -0.2156 -0.2865 -0.0838
18112SOL    HW166060   6.397   7.073   9.141 -1.2175  1.2194 -0.7248
18112SOL    HW266061   6.329   6.946   9.188  1.5754 -0.1643 -0.2359
18113SOL     OW66062   3.749   0.904   4.999 -0.0554  0.7495  0.1034
18113SOL    HW166063   3.659   0.917   4.967  0.1266  0.9257 -0.3446
18113SOL    HW266064   3.797   0.872   4.923  0.1526  0.1630  0.4692
18114SOL     OW66065  11.165   4.807   8.329 -0.2887  0.2989 -0.0131
18114SOL    HW166066  11.129   4.762   8.405  0.4179 -0.7307 -0.2717
18114SOL    HW266067  11.231   4.866   8.365 -1.6658  1.6493  0.3878
18115SOL     OW66068  10.356   7.679   7.870  0.2896  0.0282  0.5050
18115SOL    HW166069  10.427   7.622   7.840  0.7088  0.0607  1.3886
18115SOL    HW266070  10.319   7.716   7.790  1.2111 -0.0712  0.0193
18116SOL     OW66071   9.384   1.075  10.974 -0.0284  0.3618  0.4959
18116SOL    HW166072   9.369   1.167  10.952  1.7280  0.6477  0.3049
18116SOL    HW266073   9.306   1.048  11.021  0.0621  2.4426  1.9647
18117SOL     OW66074   5.533   1.156   1.505 -0.3840 -0.3554 -0.1721
18117SOL    HW166075   5.461   1.171   1.567 -1.1481  1.7788 -1.4574
18117SOL    HW266076   5.522   1.224   1.439  2.4263 -0.3953 -0.8148
18118SOL     OW66077   1.923  10.449  10.830  0.2035 -0.9365 -0.0155
18118SOL    HW166078   1.989  10.466  10.763  0.3453  3.1885  0.9041
18118SOL    HW266079   1.972  10.412  10.904  0.6862 -1.9698 -0.8345
18119SOL     OW66080   0.330   6.180   8.780  0.0237 -0.3128  0.2733
18119SOL    HW166081   0.335   6.231   8.699 -1.9215 -0.6578 -0.1166
18119SOL    HW266082   0.421   6.163   8.803  0.6405 -0.6010 -2.0864
18120SOL     OW66083   3.617  10.685  10.131  0.1844  0.1336  0.1811
18120SOL    HW166084   3.690  10.674  10.070 -0.1435 -0.9604 -0.0319
18120SOL    HW266085   3.606  10.599  10.171 -1.4257  0.0950 -0.2763
18121SOL     OW66086   0.326   6.577  10.800  0.0776 -0.7118  0.1092
18121SOL    HW166087   0.324   6.494  10.848  1.1673 -0.1148  1.2509
18121SOL    HW266088   0.258   6.631  10.841 -1.1310 -1.2556 -1.1091
18122SOL     OW66089   2.049   5.163   3.706  0.5128  0.0712  0.1431
18122SOL    HW166090   1.987   5.232   3.729  0.1388 -0.1449 -0.1937
18122SOL    HW266091   2.118   5.207   3.656  0.2581  0.1996 -0.0980
18123SOL     OW66092   5.858   4.183   4.979  0.5856 -0.0143 -0.7291
18123SOL    HW166093   5.903   4.099   4.971  0.9293  0.2118 -1.2173
18123SOL    HW266094   5.890   4.234   4.905  1.4404  1.0509  0.3374
18124SOL     OW66095   7.277   3.352   2.638 -0.4789 -0.5577  0.3785
18124SOL    HW166096   7.300   3.411   2.710 -2.1881 -0.4229  0.8525
18124SOL    HW266097   7.271   3.266   2.679  3.7115 -1.5266 -0.6119
18125SOL     OW66098  11.898   5.646   1.884 -0.6314  0.0002 -0.2470
18125SOL    HW166099  11.802   5.648   1.891 -0.5147 -0.2366  3.9615
18125SOL    HW266100  11.922   5.737   1.867 -1.5859  1.2174  3.8272
18126SOL     OW66101   0.467   0.329  11.209  0.1576 -0.4264  0.2640
18126SOL    HW166102   0.473   0.419  11.239 -0.6685 -0.3350  0.1748
18126SOL    HW266103   0.524   0.326  11.132  2.6550 -0.7759  1.9912
18127SOL     OW66104   4.554   6.732   8.660  0.2869 -0.2676  0.4369
18127SOL    HW166105   4.589   6.654   8.617 -0.1776  0.7361 -1.8684
18127SOL    HW266106   4.535   6.793   8.589 -0.9372  1.3335  2.0417
18128SOL     OW66107  11.780   8.550   4.815 -0.5099  0.3144 -0.4364
18128SOL    HW166108  11.761   8.479   4.754 -0.3950 -1.1808  1.1855
18128SOL    HW266109  11.841   8.512   4.879  1.8640  2.7166 -1.0835
18129SOL     OW66110   8.679   8.819   4.305 -0.2590  0.0842  0.5409
18129SOL    HW166111   8.696   8.746   4.364 -0.0411 -0.6523 -0.4208
18129SOL    HW266112   8.584   8.823   4.297 -0.2450 -0.5032  0.0861
18130SOL     OW66113  11.115   8.549   8.475  0.1482 -0.0228 -0.0971
18130SOL    HW166114  11.033   8.594   8.494 -0.7614 -1.9189  0.6957
18130SOL    HW266115  11.162   8.609   8.417 -0.1773  2.7266  2.2627
18131SOL     OW66116  10.238  11.659   9.474 -0.1240 -0.5475 -0.6248
18131SOL    HW166117  10.230  11.638   9.381  0.6625  0.3345 -0.9166
18131SOL    HW266118  10.232  11.755   9.477 -1.1586 -0.6275  0.3530
18132SOL     OW66119   5.676   3.327   4.094 -0.1454  0.0910 -0.3093
18132SOL    HW166120   5.637   3.347   4.179 -0.0758 -0.6962 -0.0836
18132SOL    HW266121   5.673   3.231   4.088  1.2463  0.0311 -0.5226
18133SOL     OW66122   1.934   3.947   5.522  0.3849  0.2244  0.2172
18133SOL    HW166123   1.909   3.898   5.600 -2.6746  0.8110 -0.2707
18133SOL    HW266124   1.968   3.881   5.462 -0.9918 -0.9009  0.6227
18134SOL     OW66125  11.563   4.175   3.394 -0.7250  0.4514 -0.5559
18134SOL    HW166126  11.519   4.253   3.429 -1.1918 -0.1461  0.2155
18134SOL    HW266127  11.532   4.103   3.449  0.2327 -0.1816 -0.8234
18135SOL     OW66128   7.491   8.523   5.839 -0.5735 -0.0769 -0.1622
18135SOL    HW166129   7.558   8.527   5.907 -0.6905  0.9327 -0.1037
18135SOL    HW266130   7.426   8.461   5.873  0.5989 -1.5625 -0.4815
18136SOL     OW66131   5.101   6.975   5.038  0.0147 -0.6256  0.2283
18136SOL    HW166132   5.016   6.939   5.014  0.8396 -1.3714 -1.7784
18136SOL    HW266133   5.117   7.044   4.974  0.4766  0.2471  1.2476
18137SOL     OW66134   1.999  11.398   4.397 -0.4696 -0.0118  0.1500
18137SOL    HW166135   2.024  11.473   4.343  0.2935  0.5088  1.1859
18137SOL    HW266136   1.930  11.431   4.455 -0.9922 -0.4486 -0.2175
18138SOL     OW66137  10.548   6.894   6.226 -0.2672  0.1525  0.0077
18138SOL    HW166138  10.632   6.929   6.257  1.0067 -2.7151  0.1183
18138SOL    HW266139  10.511   6.849   6.303 -0.5259 -0.9569 -0.7333
18139SOL     OW66140   0.868   8.721   7.889 -0.2442  0.6987 -0.4088
18139SOL    HW166141   0.956   8.712   7.925 -0.7704 -1.3584  0.5365
18139SOL    HW266142   0.877   8.694   7.798  0.2992  1.6486 -0.6475
18140SOL     OW66143   6.032   9.933   2.700 -0.1515  0.2620  0.6534
18140SOL    HW166144   6.093   9.997   2.737 -0.0203  0.5578 -0.0582
18140SOL    HW266145   6.010   9.968   2.614 -0.4108 -0.4396  0.4289
18141SOL     OW66146  10.434   5.485   8.000  0.1669  0.5143 -0.2924
18141SOL    HW166147  10.411   5.566   7.955  0.2570  0.6341 -0.1237
18141SOL    HW266148  10.350   5.451   8.032 -0.2172 -0.6921 -2.3757
18142SOL     OW66149   7.253   9.218   3.630  0.2909 -0.6727  0.1480
18142SOL    HW166150   7.284   9.308   3.619 -1.2330  0.0988  1.6912
18142SOL    HW266151   7.269   9.197   3.722 -0.6205 -1.4704  0.1456
18143SOL     OW66152   3.627   9.430   4.639 -0.3240 -0.5385  0.2501
18143SOL    HW166153   3.615   9.362   4.573  0.2295 -1.1071  0.7257
18143SOL    HW266154   3.691   9.490   4.600 -0.5267 -0.4939 -0.0144
18144SOL     OW66155   3.862   3.965  10.345  1.2168 -0.6009  0.0973
18144SOL    HW166156   3.821   3.882  10.319 -1.3143  0.3341  0.8354
18144SOL    HW266157   3.855   3.966  10.441  0.6486  0.7264  0.0542
18145SOL     OW66158   6.723   5.990   2.778  0.0386 -0.3159  0.0847
18145SOL    HW166159   6.800   5.933   2.771  1.3262  1.0574  1.9715
18145SOL    HW266160   6.697   5.985   2.870 -0.7000  1.0101 -0.0189
18146SOL     OW66161   0.125   4.946   5.967 -0.4958  0.6087 -0.4529
18146SOL    HW166162   0.106   4.853   5.953 -2.2138  0.9317 -0.4093
18146SOL    HW266163   0.213   4.958   5.929 -1.0714 -0.5948 -2.3428
18147SOL     OW66164   2.727   3.028   0.436 -0.4037  0.0660  0.0067
18147SOL    HW166165   2.682   3.005   0.355 -0.3435  1.0263 -0.3177
18147SOL    HW266166   2.807   3.072   0.407  0.7463 -1.5839  0.5813
18148SOL     OW66167   3.297   3.389   2.160  0.0042  0.4399  0.2017
18148SOL    HW166168   3.215   3.340   2.165 -0.5719  1.3966  0.3439
18148SOL    HW266169   3.338   3.377   2.245 -0.3382  0.5404  0.3833
18149SOL     OW66170   2.282   6.970   5.475 -0.3041 -0.2358 -0.6847
18149SOL    HW166171   2.339   6.904   5.434  0.6176  0.6228 -0.8141
18149SOL    HW266172   2.256   6.930   5.558  1.6470 -0.1123  0.0484
18150SOL     OW66173  10.736  11.389   8.118 -0.6755  1.0012  0.1256
18150SOL    HW166174  10.769  11.332   8.188 -1.4286  1.7524  1.1194
18150SOL    HW266175  10.676  11.449   8.163  0.2727  2.7376 -0.8366
18151SOL     OW66176   1.453   1.454   4.533 -0.3052  0.4996 -0.6030
18151SOL    HW166177   1.398   1.386   4.572  2.3327 -1.2296  0.3427
18151SOL    HW266178   1.427   1.535   4.578 -3.2887  0.1973 -1.5441
18152SOL     OW66179   0.147   3.305   9.654 -0.0168  0.0360 -0.1723
18152SOL    HW166180   0.126   3.335   9.742 -0.4162  0.1493 -0.3043
18152SOL    HW266181   0.192   3.222   9.667  0.1706  0.1839  0.1493
18153SOL     OW66182   9.245   0.013   0.335 -0.0564 -0.5898 -0.5034
18153SOL    HW166183   9.323  -0.005   0.388  0.6567 -0.8877 -1.6235
18153SOL    HW266184   9.260  -0.035   0.254 -0.1936  1.4336 -1.7857
18154SOL     OW66185  11.371  11.271   2.153 -0.1453 -0.2630  0.3944
18154SOL    HW166186  11.351  11.351   2.104 -1.4059  0.0656  1.3922
18154SOL    HW266187  11.462  11.283   2.180 -0.0061  0.3809 -0.3031
18155SOL     OW66188   3.708   0.125   5.607  0.1650  0.0083  0.2021
18155SOL    HW166189   3.745   0.046   5.569  0.3827 -0.2599  0.9590
18155SOL    HW266190   3.679   0.177   5.531 -1.1622 -1.3591 -0.2749
18156SOL     OW66191   7.961   8.683   9.855  0.5182 -0.3895 -0.1411
18156SOL    HW166192   7.871   8.667   9.882  0.3644 -2.5566 -1.6557
18156SOL    HW266193   7.965   8.777   9.837 -2.2066 -0.5801 -2.4371
18157SOL     OW66194   3.124   1.034   8.940  0.6693 -0.3281 -0.2312
18157SOL    HW166195   3.049   0.990   8.901 -1.4159  2.7640 -0.0091
18157SOL    HW266196   3.172   1.070   8.866 -0.4662  1.2550 -0.2266
18158SOL     OW66197   7.409  11.419   5.852 -0.7023 -0.0066 -0.3244
18158SOL    HW166198   7.338  11.398   5.792 -3.1010 -1.2892  2.6847
18158SOL    HW266199   7.453  11.335   5.868 -0.3926  0.2232  0.0576
18159SOL     OW66200   1.897  10.758  11.262 -0.0389 -0.1361 -0.3291
18159SOL    HW166201   1.819  10.731  11.213 -0.5812  0.1969  0.3412
18159SOL    HW266202   1.899  10.699  11.338  0.5345 -0.3425 -0.4980
18160SOL     OW66203   6.874  11.412   8.140 -0.0667  0.2534  0.3071
18160SOL    HW166204   6.874  11.368   8.055  1.0714  1.7866 -0.5527
18160SOL    HW266205   6.889  11.342   8.204  1.1819 -0.6909 -0.9515
18161SOL     OW66206   6.881   2.866   6.063  0.5923 -0.3054 -0.3767
18161SOL    HW166207   6.970   2.830   6.054  0.1436 -0.9882 -2.5577
18161SOL    HW266208   6.840   2.852   5.978 -1.5981  0.1202  0.5383
18162SOL     OW66209   2.373   6.274   7.091 -0.5551 -0.0363 -0.0850
18162SOL    HW166210   2.296   6.234   7.130 -0.5528 -0.1686 -0.2160
18162SOL    HW266211   2.359   6.267   6.997 -0.5373  0.2369 -0.1079
18163SOL     OW66212   8.962   6.843   9.557 -0.1979 -0.1194  0.0551
18163SOL    HW166213   8.893   6.859   9.622 -0.6142 -1.4685 -0.0116
18163SOL    HW266214   8.916   6.798   9.486  0.5963 -0.2284 -0.3913
18164SOL     OW66215   3.713   3.765   9.323  0.4493  0.9363 -0.1180
18164SOL    HW166216   3.803   3.792   9.302 -0.5721  4.0898 -0.9319
18164SOL    HW266217   3.675   3.840   9.367 -0.7871 -1.6542  3.7300
18165SOL     OW66218   4.753   4.109  10.168  0.3040  0.2631  0.4951
18165SOL    HW166219   4.720   4.080  10.083  1.1779  0.1055  0.1989
18165SOL    HW266220   4.843   4.138  10.150  0.2399  0.9367  1.2229
18166SOL     OW66221   2.339   9.724   8.239 -0.4812 -0.2470  0.3479
18166SOL    HW166222   2.352   9.644   8.188 -0.5117 -1.5380  2.2491
18166SOL    HW266223   2.379   9.704   8.324 -0.7473  1.6710  0.9607
18167SOL     OW66224   1.321   9.707   6.383  0.4323 -0.3074 -0.1892
18167SOL    HW166225   1.265   9.783   6.367  0.5324 -0.2268 -0.1612
18167SOL    HW266226   1.327   9.702   6.479  2.8379  1.4542 -0.1503
18168SOL     OW66227   6.488   9.058  10.996  1.0923 -0.4385 -0.7822
18168SOL    HW166228   6.577   9.060  11.030  0.8676 -0.1670 -0.1988
18168SOL    HW266229   6.480   9.138  10.945  0.6765  0.3506  0.4880
18169SOL     OW66230   4.635   1.264   8.707 -0.1521  0.1781 -0.5852
18169SOL    HW166231   4.631   1.279   8.612 -0.7852  1.4011 -0.3950
18169SOL    HW266232   4.545   1.240   8.731 -0.6177  2.2824  0.0196
18170SOL     OW66233   2.149  10.361   9.906  0.2364  0.4086  0.1770
18170SOL    HW166234   2.234  10.403   9.895  0.8207 -0.8895 -0.5179
18170SOL    HW266235   2.170  10.268   9.920 -1.0490  0.1000  0.1647
18171SOL     OW66236   8.336   9.984   7.291 -0.1456 -0.0020 -0.2633
18171SOL    HW166237   8.399   9.933   7.342 -0.7115 -2.0217 -1.4994
18171SOL    HW266238   8.388  10.054   7.252  0.9816 -0.5674  0.1898
18172SOL     OW66239   2.689   0.806   7.148  0.0231 -0.0626  0.1931
18172SOL    HW166240   2.678   0.744   7.076 -0.7451  0.8662 -0.5247
18172SOL    HW266241   2.602   0.844   7.160  0.1017 -0.2880  1.7207
18173SOL     OW66242   6.594   2.475   7.463 -0.8613 -0.5709 -0.1208
18173SOL    HW166243   6.552   2.424   7.532  0.5825 -0.3688  0.9306
18173SOL    HW266244   6.567   2.565   7.480 -0.1341 -0.4588  0.4755
18174SOL     OW66245  11.926   0.708   7.828  0.4049 -0.4527 -0.1723
18174SOL    HW166246  11.989   0.642   7.857  0.6656  0.4313  1.3464
18174SOL    HW266247  11.880   0.666   7.756  0.8114 -2.1604  0.5149
18175SOL     OW66248  10.325   3.991   9.750  0.4098  0.2692 -0.1198
18175SOL    HW166249  10.347   4.027   9.664  0.2496  0.1306 -0.2191
18175SOL    HW266250  10.333   3.897   9.739  0.1386  0.2376 -0.0538
18176SOL     OW66251   0.286   3.047   5.195 -0.4684 -0.2244 -0.5087
18176SOL    HW166252   0.314   2.965   5.235  0.5250 -0.2608 -1.2372
18176SOL    HW266253   0.214   3.077   5.250 -0.6638 -1.4361 -0.0633
18177SOL     OW66254  10.389   7.694   4.147  0.1557 -0.1216 -0.0357
18177SOL    HW166255  10.389   7.743   4.065 -0.7948  1.5850  0.9267
18177SOL    HW266256  10.457   7.735   4.201  0.3690 -0.8426  0.2705
18178SOL     OW66257   9.626   1.451   5.466 -0.0382  0.1197 -0.4225
18178SOL    HW166258   9.713   1.450   5.505 -0.2779  0.3421  0.1313
18178SOL    HW266259   9.630   1.385   5.397  0.8799  0.8437 -1.0940
18179SOL     OW66260   3.073   3.509   8.685  0.0907  0.2075  0.1377
18179SOL    HW166261   3.055   3.432   8.632  1.0427 -0.1811  0.3508
18179SOL    HW266262   2.988   3.550   8.697 -0.3708 -0.5731 -0.3394
18180SOL     OW66263   5.212   2.514   5.397 -0.8868  0.1254 -0.1711
18180SOL    HW166264   5.169   2.545   5.476 -1.4412 -0.5938 -0.1865
18180SOL    HW266265   5.154   2.447   5.361  1.2607 -2.5970  1.0647
18181SOL     OW66266   0.589   4.517   7.145  0.1206 -0.8236 -0.1949
18181SOL    HW166267   0.517   4.489   7.200 -0.0868 -0.2112 -0.1539
18181SOL    HW266268   0.601   4.445   7.083 -0.3515 -1.0367 -0.0392
18182SOL     OW66269   4.227   1.678   9.892 -0.2034  0.2125 -1.2033
18182SOL    HW166270   4.220   1.772   9.873 -2.9036  0.0875 -1.2170
18182SOL    HW266271   4.252   1.674   9.984 -0.7796  0.9643 -1.0004
18183SOL     OW66272   6.290   1.376   9.374 -0.6479  0.3196 -0.0067
18183SOL    HW166273   6.305   1.295   9.423 -0.8819 -0.4024 -1.1144
18183SOL    HW266274   6.288   1.444   9.442  1.5019 -0.3093  0.7795
18184SOL     OW66275   3.833  10.535   6.347 -0.4942  0.2151  0.8934
18184SOL    HW166276   3.895  10.508   6.280 -0.7894  0.6301  0.4502
18184SOL    HW266277   3.750  10.497   6.319 -0.9234  1.5856  0.2492
18185SOL     OW66278   9.801   0.962  10.385 -0.0722 -0.0567  0.3161
18185SOL    HW166279   9.752   0.936  10.462  0.2244 -0.4966  0.3603
18185SOL    HW266280   9.832   1.051  10.404  1.1595 -0.6596  1.2948
18186SOL     OW66281   6.072   7.133   9.060 -0.2267 -0.3442  0.2462
18186SOL    HW166282   6.109   7.061   9.112  1.0445  0.4122  0.4303
18186SOL    HW266283   6.146   7.168   9.011 -1.0423  0.1723 -0.6544
18187SOL     OW66284   5.974   6.685   2.562 -0.0890  0.4883  0.0550
18187SOL    HW166285   6.048   6.672   2.622  0.7029  0.6190 -0.8607
18187SOL    HW266286   5.999   6.761   2.510 -1.4930  1.3876  0.6289
18188SOL     OW66287   2.840  10.824   3.622  0.2674  0.6657 -0.4417
18188SOL    HW166288   2.885  10.898   3.664 -0.6260  0.2892  1.2678
18188SOL    HW266289   2.900  10.796   3.552  1.2259  2.1463 -0.2605
18189SOL     OW66290  11.436   1.475  11.926 -0.5952  0.4394 -0.2093
18189SOL    HW166291  11.403   1.555  11.886  2.1741  1.0497 -1.5432
18189SOL    HW266292  11.491   1.436  11.858  0.4878 -1.0352  1.4338
18190SOL     OW66293   8.494   9.300   0.462 -0.0311  0.3258  0.2493
18190SOL    HW166294   8.426   9.361   0.490 -0.4408 -0.1286  0.2661
18190SOL    HW266295   8.512   9.247   0.540  0.4756  0.5607  0.2971
18191SOL     OW66296   6.845   1.784  10.810  0.0455  0.2812 -0.1436
18191SOL    HW166297   6.837   1.754  10.720 -3.3453  2.2814 -0.7227
18191SOL    HW266298   6.937   1.805  10.822  0.6430 -0.4072 -3.0222
18192SOL     OW66299   2.584   7.156   7.739  0.1700 -0.5663  0.0080
18192SOL    HW166300   2.624   7.119   7.661  2.0713 -0.1682  0.7451
18192SOL    HW266301   2.605   7.093   7.808  1.3031  0.6284  0.7973
18193SOL     OW66302   6.524   9.294   2.968  0.4391  0.3100 -0.3182
18193SOL    HW166303   6.532   9.288   2.872  2.1011 -1.7076 -0.1097
18193SOL    HW266304   6.587   9.362   2.992 -0.5045  1.3495 -0.6697
18194SOL     OW66305   2.455   0.751   5.324 -0.4867 -0.1309 -0.0163
18194SOL    HW166306   2.495   0.698   5.393  1.7622  0.4487 -0.7692
18194SOL    HW266307   2.381   0.699   5.293 -0.0919 -1.4813  1.2036
18195SOL     OW66308   6.547   6.130   9.091  0.2292  0.0096 -0.1574
18195SOL    HW166309   6.594   6.130   9.174  2.6993 -0.6652 -1.4651
18195SOL    HW266310   6.501   6.046   9.090 -0.9349  0.5849  1.0438
18196SOL     OW66311  10.759   7.749  11.273 -0.3866  0.4770 -0.2742
18196SOL    HW166312  10.728   7.756  11.363 -0.7356  0.2638 -0.3786
18196SOL    HW266313  10.681   7.760  11.219 -0.2889 -0.0822 -0.5377
18197SOL     OW66314  11.743   5.847   2.511 -0.4561 -0.6172  0.8939
18197SOL    HW166315  11.807   5.780   2.486  0.6939 -0.0194  2.1047
18197SOL    HW266316  11.662   5.820   2.467  0.1451 -2.4033  0.7702
18198SOL     OW66317   6.960   8.118   7.389  0.3537  0.3108  0.7619
18198SOL    HW166318   6.893   8.183   7.370  1.0303  0.1318 -3.1087
18198SOL    HW266319   6.914   8.048   7.434 -2.1132  0.3236 -1.4795
18199SOL     OW66320   1.118   7.102   4.911  0.1482  0.8146  0.1137
18199SOL    HW166321   1.055   7.170   4.934  0.3065  1.2363 -0.6597
18199SOL    HW266322   1.082   7.060   4.834  1.2193  1.6630 -0.8933
18200SOL     OW66323   9.040   6.432   1.177 -0.8381 -0.4835  0.0168
18200SOL    HW166324   8.964   6.489   1.169 -0.5255 -0.3520 -2.8690
18200SOL    HW266325   9.074   6.423   1.088  2.0629 -1.1951  1.0673
18201SOL     OW66326   4.958   2.093   3.404  0.1099 -0.4739 -0.4851
18201SOL    HW166327   4.982   2.015   3.455 -0.9719 -0.1890  0.5222
18201SOL    HW266328   4.862   2.092   3.403 -0.0118  1.8366  1.2181
18202SOL     OW66329   7.305   9.806  11.288  0.8461 -0.0682  0.1608
18202SOL    HW166330   7.383   9.753  11.268  1.0105  0.3665 -0.3972
18202SOL    HW266331   7.313   9.882  11.230 -0.9344 -0.9005 -1.2692
18203SOL     OW66332   2.724   8.302   2.003 -0.2476 -0.1254 -0.3205
18203SOL    HW166333   2.693   8.329   2.090  0.3659 -0.9891  0.1876
18203SOL    HW266334   2.750   8.383   1.961 -2.8037  0.6158 -0.6485
18204SOL     OW66335   5.054   0.225   4.527 -0.0197 -0.5378  0.5179
18204SOL    HW166336   4.967   0.265   4.522 -0.1102 -0.8132 -0.2306
18204SOL    HW266337   5.114   0.294   4.497 -0.1021 -0.7218 -0.0781
18205SOL     OW66338   7.826   0.776   3.729 -0.2345  0.2351 -0.2472
18205SOL    HW166339   7.889   0.707   3.707 -1.2009 -0.5259 -0.6979
18205SOL    HW266340   7.771   0.784   3.652 -1.2547  0.2507  0.4602
18206SOL     OW66341   5.412   3.702  11.662  0.0098  0.0473  0.2691
18206SOL    HW166342   5.414   3.796  11.682 -0.6031 -0.4538  3.3010
18206SOL    HW266343   5.321   3.685  11.637  0.4502  0.4370 -1.7796
18207SOL     OW66344   3.848   4.146   0.214  0.3219 -0.0679  0.8653
18207SOL    HW166345   3.765   4.120   0.254  0.5918 -1.6637  0.4270
18207SOL    HW266346   3.826   4.158   0.121  0.5243 -0.1964  0.8024
18208SOL     OW66347   4.869   7.168   4.035 -0.3876  0.2401  0.2529
18208SOL    HW166348   4.877   7.223   4.114  0.8977  0.2177  0.1494
18208SOL    HW266349   4.930   7.206   3.973 -1.4446  0.2917 -0.7807
18209SOL     OW66350   6.669   3.113   8.883 -0.3724 -0.5716  0.4637
18209SOL    HW166351   6.598   3.150   8.830 -0.3891 -2.1191 -0.6700
18209SOL    HW266352   6.739   3.178   8.877 -0.0037 -1.0772 -2.3392
18210SOL     OW66353   3.461  11.429   8.180  0.1707 -0.7160 -0.5665
18210SOL    HW166354   3.430  11.512   8.142  1.8812 -0.7309 -2.1502
18210SOL    HW266355   3.382  11.376   8.188 -0.9059  0.9072  0.1248
18211SOL     OW66356   1.330  10.582   1.677 -0.0649  0.6749  0.1066
18211SOL    HW166357   1.270  10.643   1.634  0.0323  1.1248  0.6017
18211SOL    HW266358   1.403  10.572   1.616 -2.0558 -2.3964 -2.0440
18212SOL     OW66359   7.835   6.229   0.411  0.5540 -0.2234  0.3998
18212SOL    HW166360   7.791   6.143   0.414 -1.6126  0.6385 -2.1927
18212SOL    HW266361   7.783   6.285   0.468  1.6635 -0.4613  1.6852
18213SOL     OW66362   3.705   6.791   2.836  0.1295  0.5578 -0.0195
18213SOL    HW166363   3.702   6.868   2.779 -0.9699 -0.5585 -1.5837
18213SOL    HW266364   3.779   6.740   2.802 -0.4591 -0.0583 -0.3995
18214SOL     OW66365   1.686   3.995   5.077  0.1284 -0.0118  0.3635
18214SOL    HW166366   1.612   3.981   5.137  1.0191  2.5577  2.2518
18214SOL    HW266367   1.655   3.961   4.993 -3.1372  0.7025  1.1169
18215SOL     OW66368   4.123   5.240   7.649  0.4216  0.1380 -0.5112
18215SOL    HW166369   4.167   5.168   7.693 -0.5341 -1.5435 -2.1373
18215SOL    HW266370   4.193   5.301   7.627  1.8040 -1.7242 -1.6889
18216SOL     OW66371   2.154  10.760   2.175 -0.3303  0.0417  0.3780
18216SOL    HW166372   2.094  10.759   2.249 -1.7332  1.4038 -0.6669
18216SOL    HW266373   2.141  10.846   2.135 -0.0240 -0.8395 -1.7532
18217SOL     OW66374   3.792   0.042  11.284  0.7977  0.0141 -0.0292
18217SOL    HW166375   3.746   0.066  11.363 -2.1056  0.5397 -1.7460
18217SOL    HW266376   3.745  -0.035  11.251  1.1517  0.5059 -1.8159
18218SOL     OW66377   3.359   3.211   8.685  0.2053 -0.2674  0.3026
18218SOL    HW166378   3.346   3.171   8.771 -0.5885 -1.1905 -0.2226
18218SOL    HW266379   3.350   3.305   8.700  0.4290 -0.3954  1.2823
18219SOL     OW66380   8.023   4.524   1.980 -0.4358  0.1804 -0.6055
18219SOL    HW166381   8.056   4.612   1.963 -2.2679  1.0207 -0.1338
18219SOL    HW266382   8.020   4.482   1.895 -1.8563  1.4747 -1.2392
18220SOL     OW66383   6.126   0.421   2.235 -0.7313 -0.0644  0.2180
18220SOL    HW166384   6.034   0.445   2.231 -0.6431  0.1573 -0.5775
18220SOL    HW266385   6.146   0.385   2.149 -0.0267  0.0719  0.3173
18221SOL     OW66386   1.843   4.855   5.552  0.0829 -0.0719  0.6486
18221SOL    HW166387   1.835   4.838   5.458 -0.3393 -1.6377  0.9466
18221SOL    HW266388   1.755   4.882   5.579  0.5074  1.7008  0.3767
18222SOL     OW66389  10.578   1.170   7.907  0.3054  0.1912 -1.0989
18222SOL    HW166390  10.668   1.181   7.937  0.2406  0.2946 -0.9415
18222SOL    HW266391  10.567   1.076   7.896 -0.1496  0.0232  0.6507
18223SOL     OW66392   3.153   4.473   0.112  0.4896  0.7843  0.0828
18223SOL    HW166393   3.203   4.439   0.187  0.8958  2.9304  0.8584
18223SOL    HW266394   3.209   4.457   0.036  1.3238  1.0427  0.6252
18224SOL     OW66395  10.075   6.155   5.323 -0.0332  0.1429 -0.3771
18224SOL    HW166396   9.995   6.103   5.321 -1.7259  2.5431  0.4345
18224SOL    HW266397  10.105   6.156   5.232 -1.3750 -0.1649 -0.8413
18225SOL     OW66398   8.074   4.370   8.239  0.0540  0.1779 -0.1648
18225SOL    HW166399   8.031   4.295   8.197 -0.8838  1.2155 -1.1314
18225SOL    HW266400   8.167   4.360   8.216  0.2714 -1.5977  1.1860
18226SOL     OW66401   3.027  11.426   7.172 -0.1202  0.0746  0.2464
18226SOL    HW166402   3.098  11.487   7.188 -0.0428 -0.0277  0.2930
18226SOL    HW266403   2.952  11.481   7.151 -0.0432  0.1836  0.2595
18227SOL     OW66404   9.891   9.625   6.230 -0.2731  0.0176 -0.4442
18227SOL    HW166405   9.910   9.558   6.163  1.3523  1.9388 -2.0224
18227SOL    HW266406   9.968   9.681   6.230 -2.0963  2.6629 -0.1258
18228SOL     OW66407   5.820  10.976   5.757 -0.3556  0.7399 -0.3467
18228SOL    HW166408   5.732  10.947   5.782 -0.2561  1.9609  1.5898
18228SOL    HW266409   5.843  10.920   5.683 -1.5693 -1.6644  0.9593
18229SOL     OW66410   2.588   2.090   0.587 -0.5652  0.6380  0.3858
18229SOL    HW166411   2.583   2.010   0.639  1.4897  0.2055  0.0198
18229SOL    HW266412   2.504   2.094   0.541  0.2225 -2.8288 -1.7146
18230SOL     OW66413   0.865   3.570   7.177  0.5271  0.3352  0.0818
18230SOL    HW166414   0.945   3.541   7.220 -0.8027 -1.8736  1.2567
18230SOL    HW266415   0.838   3.648   7.227  1.6999  0.8732 -0.0912
18231SOL     OW66416   3.778   4.633   8.362 -0.3315  0.0845  0.4140
18231SOL    HW166417   3.790   4.713   8.310 -1.7653 -0.3406 -0.6473
18231SOL    HW266418   3.829   4.648   8.441  1.6293  0.9102 -0.9407
18232SOL     OW66419   5.847  11.521  10.726 -0.1377 -0.7380  0.0940
18232SOL    HW166420   5.901  11.598  10.747  0.0947 -0.9718  0.3511
18232SOL    HW266421   5.759  11.546  10.754 -0.1541 -0.3832 -0.2621
18233SOL     OW66422   7.473   2.831   1.706  0.0514 -0.4815 -0.2030
18233SOL    HW166423   7.486   2.883   1.785  0.1511  0.2115 -0.6631
18233SOL    HW266424   7.378   2.832   1.692  0.1079  0.2065 -0.6107
18234SOL     OW66425   6.261   4.767   3.055  0.0612 -0.1503  0.1174
18234SOL    HW166426   6.195   4.735   2.993  0.0923  0.0615 -0.0268
18234SOL    HW266427   6.270   4.860   3.035  0.4010 -0.1755  0.1402
18235SOL     OW66428   6.244  11.059   3.105  0.2182 -0.1113  0.0733
18235SOL    HW166429   6.157  11.056   3.145  0.1307 -0.0964 -0.1151
18235SOL    HW266430   6.263  10.968   3.080  0.6926 -0.2944  1.0374
18236SOL     OW66431  10.754  11.773  11.411 -0.4015  0.5689  0.1350
18236SOL    HW166432  10.818  11.710  11.443 -1.4037 -0.3768  0.3171
18236SOL    HW266433  10.795  11.858  11.427  0.1869  0.0404  1.5951
18237SOL     OW66434   0.050   6.407   7.905  0.7664 -0.3095 -0.2927
18237SOL    HW166435  -0.010   6.473   7.939  0.3190 -0.2641 -1.1423
18237SOL    HW266436   0.132   6.455   7.889  0.6959 -0.1382 -0.1363
18238SOL     OW66437   7.974   7.228   5.043 -0.2737  0.0466  0.3240
18238SOL    HW166438   7.897   7.213   5.098 -1.2143  2.0577 -0.3390
18238SOL    HW266439   8.016   7.305   5.082  2.0961 -1.6483  1.3343
18239SOL     OW66440   8.375   7.974   3.245 -0.0443  0.0201  0.2933
18239SOL    HW166441   8.343   7.896   3.290 -0.8052 -0.3862 -0.9037
18239SOL    HW266442   8.301   8.034   3.246  0.4815  0.6792  1.0445
18240SOL     OW66443   4.981   2.044   9.193 -0.1448  0.4972 -0.0214
18240SOL    HW166444   5.005   2.134   9.216 -1.6172  0.4185  2.0652
18240SOL    HW266445   5.023   1.990   9.259 -1.5808 -0.0881  0.4437
18241SOL     OW66446   0.557   2.099   6.028  0.1542  0.1297 -0.2151
18241SOL    HW166447   0.557   2.004   6.023  2.3575  0.0430  0.0719
18241SOL    HW266448   0.580   2.128   5.939  1.5960  0.2581  0.1695
18242SOL     OW66449  11.748   0.147   1.124 -0.4937 -0.3781 -0.0008
18242SOL    HW166450  11.820   0.124   1.066  1.1500  1.2748  1.2762
18242SOL    HW266451  11.670   0.142   1.069  0.3940 -3.2283 -1.1711
18243SOL     OW66452   4.768   6.917   7.302 -0.3702  0.3495 -0.3238
18243SOL    HW166453   4.843   6.966   7.334  0.0131  0.8490 -1.8894
18243SOL    HW266454   4.771   6.834   7.349  0.3737  0.8824  0.5920
18244SOL     OW66455  10.351   6.564   2.726  0.4446  0.1947 -0.0759
18244SOL    HW166456  10.438   6.525   2.727  1.0216  1.3514  2.6724
18244SOL    HW266457  10.292   6.493   2.750  0.9151 -0.0553  0.3477
18245SOL     OW66458   1.650   3.480   2.761  0.0473  0.2775 -0.5802
18245SOL    HW166459   1.617   3.464   2.672 -0.9378  0.0176 -0.1799
18245SOL    HW266460   1.574   3.466   2.817  0.7064  0.2804  0.3234
18246SOL     OW66461   4.479  11.342   5.163  0.3327  0.6340 -0.0630
18246SOL    HW166462   4.462  11.407   5.232  0.1453 -0.8896  1.3953
18246SOL    HW266463   4.539  11.280   5.203 -1.3648 -1.4157 -0.5289
18247SOL     OW66464   3.590   1.584   3.240  0.2198 -0.1146 -0.2473
18247SOL    HW166465   3.554   1.549   3.159  0.5775  1.9423 -1.3655
18247SOL    HW266466   3.520   1.640   3.275  0.0305 -1.0648  0.9333
18248SOL     OW66467  11.107   9.433   9.217  0.1979 -0.7021  0.2464
18248SOL    HW166468  11.112   9.517   9.171 -2.0701  0.0760  1.2402
18248SOL    HW266469  11.193   9.394   9.205  0.9907  1.2819 -1.1614
18249SOL     OW66470   6.713   0.252  10.109 -0.5218 -0.2983  0.2663
18249SOL    HW166471   6.746   0.330  10.154  0.2455 -1.0833  1.1154
18249SOL    HW266472   6.633   0.230  10.156 -0.4844 -0.2854  0.3377
18250SOL     OW66473   3.913   4.677   9.313  0.2788  0.3068  0.6857
18250SOL    HW166474   3.947   4.764   9.333  0.2934  0.5706 -0.4408
18250SOL    HW266475   3.854   4.691   9.238  2.2537 -1.0074 -1.2269
18251SOL     OW66476   7.110   3.962   6.986 -0.3786  0.3356  0.0044
18251SOL    HW166477   7.100   4.055   7.004 -1.8173 -0.3139  3.2384
18251SOL    HW266478   7.029   3.922   7.017  0.1087 -2.0352 -1.4589
18252SOL     OW66479   5.193   3.661   4.131  0.5581 -0.0824 -0.6363
18252SOL    HW166480   5.126   3.670   4.063  0.0350  0.5236 -0.0498
18252SOL    HW266481   5.168   3.723   4.199  1.4796 -0.1558 -0.2055
18253SOL     OW66482   6.651   8.160   2.060  0.2391 -0.2929  0.0423
18253SOL    HW166483   6.621   8.130   2.146  0.4044 -0.8159 -0.0793
18253SOL    HW266484   6.572   8.194   2.018  0.2898  0.6404  0.6692
18254SOL     OW66485  11.304   2.211   1.987  0.0426  0.0411  0.3484
18254SOL    HW166486  11.227   2.155   1.984  0.0733  0.0190 -0.2473
18254SOL    HW266487  11.345   2.199   1.901  1.2254 -0.6788  0.9764
18255SOL     OW66488  11.628   9.406  10.515  0.6690  0.2109 -0.4097
18255SOL    HW166489  11.593   9.354  10.443  1.3826  1.1086 -1.4532
18255SOL    HW266490  11.723   9.405  10.501  0.8801 -0.2146  0.9605
18256SOL     OW66491   4.331  11.850   5.155  0.1999 -0.0828  0.2237
18256SOL    HW166492   4.317  11.787   5.225  0.4650  0.6595  0.9524
18256SOL    HW266493   4.355  11.796   5.079 -1.1731 -0.9817  0.3880
18257SOL     OW66494   2.722   9.616  10.096  0.8957  0.3831 -0.4136
18257SOL    HW166495   2.665   9.551  10.054  1.2105 -0.2012  0.0440
18257SOL    HW266496   2.706   9.604  10.190  1.4575  0.5102 -0.3013
18258SOL     OW66497  10.402   9.807   5.182 -0.1141  0.2849  0.2180
18258SOL    HW166498  10.341   9.862   5.230 -1.6273 -0.6241 -0.6089
18258SOL    HW266499  10.348   9.754   5.125  1.2365 -2.2023  1.0736
18259SOL     OW66500   9.588  10.186  10.725 -0.2057 -0.1777 -0.2629
18259SOL    HW166501   9.599  10.169  10.631  0.5800  1.5343 -0.5374
18259SOL    HW266502   9.547  10.273  10.728  1.4749  0.6213  0.9522
18260SOL     OW66503  10.624   4.893  10.718  0.5520 -1.0471  0.2548
18260SOL    HW166504  10.596   4.818  10.771 -0.1614 -0.6430  0.4597
18260SOL    HW266505  10.675   4.948  10.777 -0.7127 -0.3143  0.7021
18261SOL     OW66506   4.934   5.022   1.983 -0.1544 -0.1714 -0.4497
18261SOL    HW166507   4.886   4.948   2.020 -1.1297  1.5973  2.1511
18261SOL    HW266508   4.868   5.069   1.931 -0.5481  0.7687  0.8613
18262SOL     OW66509   4.974   3.327   3.629  0.2747  0.0331 -0.0574
18262SOL    HW166510   4.976   3.388   3.555 -0.2062  1.7746  1.2896
18262SOL    HW266511   4.890   3.282   3.621  0.8579 -0.8780 -1.3556
18263SOL     OW66512   4.451   4.754   3.569  0.2311 -0.6390 -0.1748
18263SOL    HW166513   4.492   4.731   3.652  0.2526 -0.1982 -0.0628
18263SOL    HW266514   4.474   4.682   3.510 -1.5511 -2.0671  0.7526
18264SOL     OW66515   1.505   1.341   8.113  0.7183 -0.2419  0.5377
18264SOL    HW166516   1.485   1.297   8.029  1.5351 -1.3231  0.8805
18264SOL    HW266517   1.421   1.373   8.143  0.1775 -1.0368 -0.0576
18265SOL     OW66518   4.809   6.134   0.633 -0.3506  0.3985 -0.4338
18265SOL    HW166519   4.874   6.064   0.631 -0.7157  0.0513 -0.1810
18265SOL    HW266520   4.801   6.158   0.725  1.2787  2.2010 -0.6893
18266SOL     OW66521   7.855   9.455   9.150 -0.1989  0.0391 -0.0893
18266SOL    HW166522   7.849   9.541   9.191  2.4132 -0.1672  0.9569
18266SOL    HW266523   7.853   9.393   9.223  0.7093 -0.5769 -0.5575
18267SOL     OW66524  11.678  11.208   7.076 -0.2836  0.0706 -0.1374
18267SOL    HW166525  11.681  11.131   7.133 -0.6782  0.2429  0.1143
18267SOL    HW266526  11.586  11.233   7.073 -0.1028  0.7666  0.0908
18268SOL     OW66527   4.240   7.105   0.254 -0.2171  0.0066 -0.3770
18268SOL    HW166528   4.266   7.015   0.276 -0.4102 -0.3880 -1.6985
18268SOL    HW266529   4.196   7.136   0.333  0.8350 -0.6597  0.5051
18269SOL     OW66530   3.233   2.173   6.995  0.2633  0.9860 -0.4970
18269SOL    HW166531   3.255   2.171   6.902 -0.1167 -0.8455 -0.5798
18269SOL    HW266532   3.182   2.254   7.005  0.6416  1.4141 -1.7931
18270SOL     OW66533   6.399   7.081  10.740 -0.0484 -0.0439 -0.1987
18270SOL    HW166534   6.325   7.111  10.792 -0.0800  1.2244 -0.9322
18270SOL    HW266535   6.476   7.119  10.783  0.0522 -0.1935 -0.2455
18271SOL     OW66536   5.025   1.599   4.722  0.3176 -0.4178 -0.0462
18271SOL    HW166537   5.003   1.539   4.793 -1.4004 -0.7367 -0.8088
18271SOL    HW266538   5.092   1.553   4.671 -0.2013 -1.2226 -0.0077
18272SOL     OW66539   1.648   1.355   2.273 -0.3574  0.1405 -0.7128
18272SOL    HW166540   1.647   1.435   2.220  0.6544 -0.3025 -1.4177
18272SOL    HW266541   1.645   1.284   2.210  1.4193 -0.4039 -0.2448
18273SOL     OW66542   4.971   7.343  11.867  0.2231 -0.3169  0.3178
18273SOL    HW166543   5.056   7.308  11.893 -0.5637 -1.7893  1.0207
18273SOL    HW266544   4.967   7.430  11.907  2.0920  0.5235 -1.1894
18274SOL     OW66545   0.085   1.213   4.694 -0.0497  0.4947  0.4631
18274SOL    HW166546   0.115   1.288   4.644 -1.0389  0.0332 -0.8649
18274SOL    HW266547   0.165   1.172   4.727  0.8194 -0.2189 -2.2567
18275SOL     OW66548   4.878   5.801   6.205 -0.5431 -0.9004  0.0279
18275SOL    HW166549   4.968   5.769   6.196 -1.3630 -3.2496 -0.4810
18275SOL    HW266550   4.870   5.822   6.298  0.4076 -1.0589  0.1577
18276SOL     OW66551  10.888   2.352  10.122  0.3925  0.3796 -0.0925
18276SOL    HW166552  10.945   2.336  10.047  1.0238  0.1751  0.4240
18276SOL    HW266553  10.883   2.447  10.130 -0.5863  0.4337 -1.0662
18277SOL     OW66554   6.124   8.112   2.320 -0.6832  0.2459  0.3629
18277SOL    HW166555   6.137   8.153   2.406  0.0323  0.0067  0.3750
18277SOL    HW266556   6.045   8.154   2.285 -1.4030 -0.1746  1.4433
18278SOL     OW66557   7.067   8.765   1.125 -0.4046  0.1121  0.1509
18278SOL    HW166558   7.138   8.810   1.080  1.0431 -1.2546  0.9826
18278SOL    HW266559   6.995   8.765   1.062  0.4786  1.0957 -0.9032
18279SOL     OW66560   9.797   9.897   7.261  0.1128 -0.4756  0.6370
18279SOL    HW166561   9.872   9.928   7.312  0.3632 -0.0982  0.0544
18279SOL    HW266562   9.827   9.816   7.220  1.4272  1.2728 -2.2401
18280SOL     OW66563  10.497   3.894   1.280  0.8968 -0.3830  0.1200
18280SOL    HW166564  10.420   3.946   1.258  0.7350 -1.2426 -1.4456
18280SOL    HW266565  10.493   3.885   1.376 -0.4279  0.3732  0.1582
18281SOL     OW66566   4.963  10.241  11.210  0.9483  0.0401  0.0675
18281SOL    HW166567   4.959  10.147  11.195  2.5503 -0.1276  0.5494
18281SOL    HW266568   4.883  10.261  11.258 -0.3001 -0.7468 -1.5932
18282SOL     OW66569   5.593   9.958   4.015 -0.1946  0.2442 -0.7520
18282SOL    HW166570   5.540   9.927   3.942  0.3387 -0.2761 -0.9197
18282SOL    HW266571   5.680   9.972   3.978  0.7024 -2.1857  0.2288
18283SOL     OW66572   3.863   4.574   8.910  0.0529  0.3878 -0.8489
18283SOL    HW166573   3.919   4.644   8.874 -0.1678 -0.2607 -2.5656
18283SOL    HW266574   3.924   4.502   8.927 -0.3195 -1.1792 -4.8810
18284SOL     OW66575   9.202   4.866   4.542  0.3478 -0.1958  0.7081
18284SOL    HW166576   9.199   4.792   4.480 -0.9818 -0.1527  0.6879
18284SOL    HW266577   9.110   4.885   4.560  0.7005  0.7852  1.5308
18285SOL     OW66578   2.502   1.120   1.504 -0.0847  0.0053 -0.0918
18285SOL    HW166579   2.457   1.089   1.425 -0.0698  0.1913 -0.1749
18285SOL    HW266580   2.518   1.213   1.487  1.2550 -0.2777 -0.5093
18286SOL     OW66581   0.196   8.897   5.644 -0.3932 -0.1704  0.2785
18286SOL    HW166582   0.123   8.953   5.671 -0.9702 -1.0865  0.6342
18286SOL    HW266583   0.270   8.958   5.634 -1.1957  0.7702 -0.0996
18287SOL     OW66584   0.837   6.070   3.957 -0.6365 -0.0583 -0.1231
18287SOL    HW166585   0.905   6.010   3.928  1.2042  1.1506  1.4650
18287SOL    HW266586   0.804   6.033   4.039 -1.0126  0.0280 -0.2297
18288SOL     OW66587   0.228   3.507  10.146  0.0396 -0.4226  0.7033
18288SOL    HW166588   0.217   3.587  10.095  0.3248 -1.1615 -0.5651
18288SOL    HW266589   0.140   3.483  10.173 -0.1270 -0.0471  0.4997
18289SOL     OW66590   7.697  10.839   1.438 -0.7274 -0.2554  0.0859
18289SOL    HW166591   7.626  10.850   1.375  0.7101 -1.6648 -1.8956
18289SOL    HW266592   7.663  10.777   1.502 -1.2231 -1.1301 -0.9934
18290SOL     OW66593   7.574  11.241   4.892  0.1430  0.7532  0.4750
18290SOL    HW166594   7.510  11.172   4.873  0.6909  0.2546  0.4109
18290SOL    HW266595   7.578  11.292   4.811  1.5068 -0.5943 -0.3784
18291SOL     OW66596   0.753   0.617  10.592 -0.0890 -0.2521  0.4506
18291SOL    HW166597   0.783   0.632  10.682  0.9146  1.6653 -0.1427
18291SOL    HW266598   0.813   0.551  10.558 -0.2282 -0.7033  1.0477
18292SOL     OW66599  10.238   7.086   8.269  0.1019 -0.2042 -0.1405
18292SOL    HW166600  10.236   7.088   8.173  0.4438  1.6284 -0.1422
18292SOL    HW266601  10.330   7.090   8.292 -0.0247  1.0473  0.2435
18293SOL     OW66602   1.643   2.143   3.890 -0.0246  0.6643 -0.3031
18293SOL    HW166603   1.702   2.193   3.946 -2.1683  2.5469  0.4414
18293SOL    HW266604   1.560   2.142   3.937 -0.8897 -1.0215 -1.7395
18294SOL     OW66605   1.217   6.902   5.086  0.0048 -0.0326 -0.0152
18294SOL    HW166606   1.169   6.970   5.039  1.1671  1.4814  0.9050
18294SOL    HW266607   1.248   6.945   5.165  0.8108 -1.6419  0.5915
18295SOL     OW66608   3.555   4.585   5.054  0.1390  0.6420  0.4136
18295SOL    HW166609   3.516   4.514   5.003 -1.2948  0.7558  1.3116
18295SOL    HW266610   3.507   4.663   5.027  1.8196  1.3750 -0.7053
18296SOL     OW66611  10.746   0.867   9.707  0.1491 -0.0297  0.1027
18296SOL    HW166612  10.761   0.904   9.794  1.2529  3.2087 -1.3250
18296SOL    HW266613  10.790   0.927   9.647 -2.2265 -0.9948 -2.8808
18297SOL     OW66614  11.683   9.928   6.934  0.1774  0.5153 -0.1723
18297SOL    HW166615  11.599   9.898   6.971 -0.4635  0.0784 -1.8944
18297SOL    HW266616  11.676  10.023   6.934 -1.1794  0.4796 -2.0374
18298SOL     OW66617  10.526   2.548   7.247 -0.2194 -0.5929 -0.1287
18298SOL    HW166618  10.541   2.600   7.168 -0.0994  0.9865  0.8871
18298SOL    HW266619  10.593   2.579   7.309 -1.1018 -0.8989  1.0135
18299SOL     OW66620  10.805   4.148   8.168  0.2129  0.0449  0.3397
18299SOL    HW166621  10.853   4.231   8.174 -0.2422  0.3034  0.4047
18299SOL    HW266622  10.860   4.093   8.111  0.6772  0.2742  0.5578
18300SOL     OW66623   8.552  10.577   7.219 -0.2127 -0.3407 -0.4795
18300SOL    HW166624   8.628  10.563   7.276 -1.0681  0.8138  1.0092
18300SOL    HW266625   8.575  10.654   7.167 -0.5103  0.2466  0.2510
18301SOL     OW66626   8.214   1.302   2.102 -0.0818 -0.3945  0.0316
18301SOL    HW166627   8.301   1.261   2.101 -0.5334 -1.4094  0.7641
18301SOL    HW266628   8.168   1.259   2.174 -0.5593  1.4920  0.9455
18302SOL     OW66629   5.504  11.449   0.695 -0.1441 -0.3536 -0.1422
18302SOL    HW166630   5.541  11.434   0.607  2.5147 -0.6115  0.9078
18302SOL    HW266631   5.450  11.372   0.712  1.8030 -1.8600 -0.4068
18303SOL     OW66632  11.461   2.758   3.477 -0.3049  0.2005 -0.6119
18303SOL    HW166633  11.514   2.837   3.469 -0.2086  0.8491  3.8777
18303SOL    HW266634  11.372   2.790   3.492 -0.4794 -0.5802  0.0846
18304SOL     OW66635   0.819  10.568   7.717 -0.5798  0.4783 -0.2201
18304SOL    HW166636   0.749  10.633   7.715 -0.0058  1.1863  0.9351
18304SOL    HW266637   0.879  10.596   7.648 -1.8916 -0.7318 -1.9240
18305SOL     OW66638  10.392   6.272   5.263  0.1671 -0.2942  0.3750
18305SOL    HW166639  10.326   6.218   5.220  0.3825  0.9511 -1.6603
18305SOL    HW266640  10.456   6.210   5.298 -0.0474 -1.3864 -1.1075
18306SOL     OW66641   9.733   1.037   9.077  0.1085  0.1719 -0.1505
18306SOL    HW166642   9.737   0.941   9.073 -0.1531  0.1739 -0.5857
18306SOL    HW266643   9.792   1.061   9.148  0.2568 -0.3079 -0.1096
18307SOL     OW66644  11.481   4.201  10.218  0.0956 -0.0720  0.2765
18307SOL    HW166645  11.512   4.136  10.281 -2.5046  0.2179  1.9651
18307SOL    HW266646  11.417   4.155  10.164  0.8011  0.2318 -0.8775
18308SOL     OW66647   2.283  11.241  10.036  0.0901 -0.3611 -0.0061
18308SOL    HW166648   2.316  11.282   9.956  2.2691  1.5252  1.7398
18308SOL    HW266649   2.330  11.158  10.041  1.1576  0.2309  0.0937
18309SOL     OW66650   5.922   1.872   0.638  0.1771  0.0667  0.2268
18309SOL    HW166651   5.876   1.857   0.555  1.3358  0.8632 -0.5942
18309SOL    HW266652   5.870   1.826   0.703 -0.0524 -1.7187 -1.1423
18310SOL     OW66653   6.007   5.961   7.581 -0.0093 -0.4448 -0.3261
18310SOL    HW166654   5.986   5.867   7.584  0.5003 -0.5430  1.0082
18310SOL    HW266655   6.080   5.971   7.642  2.0594  0.3329 -2.7649
18311SOL     OW66656   0.191   4.997   7.430 -0.2874 -0.4213  0.3754
18311SOL    HW166657   0.286   4.984   7.421 -0.5171 -1.3095 -1.0608
18311SOL    HW266658   0.176   5.084   7.394 -0.2142 -0.9507 -0.9750
18312SOL     OW66659   5.983  11.474   0.287 -0.4548 -0.3280  0.4079
18312SOL    HW166660   6.053  11.434   0.339 -0.8180 -0.6808  0.6320
18312SOL    HW266661   6.019  11.558   0.260  1.5153 -1.9838 -2.6311
18313SOL     OW66662   0.359   5.581  11.187  0.2087  0.6695  0.8950
18313SOL    HW166663   0.274   5.625  11.182  0.0357  0.2099 -0.7166
18313SOL    HW266664   0.358   5.536  11.272 -0.8931  1.1786  1.1670
18314SOL     OW66665   0.283   0.648   3.364  0.1264 -0.6353  0.0431
18314SOL    HW166666   0.220   0.717   3.342  0.8590 -0.2962 -1.0550
18314SOL    HW266667   0.230   0.568   3.367 -0.6345 -0.1242  0.7837
18315SOL     OW66668   3.804   2.965   4.374 -0.5416  0.1999 -0.0618
18315SOL    HW166669   3.893   2.967   4.410  0.1279  0.6098 -1.6464
18315SOL    HW266670   3.775   3.056   4.376 -1.3152 -0.0579  1.3155
18316SOL     OW66671  11.548   4.562   5.036  0.4866 -0.3879  0.1710
18316SOL    HW166672  11.631   4.572   5.083  0.7621  0.0835 -0.4124
18316SOL    HW266673  11.569   4.510   4.959 -0.0283 -1.4341  0.7051
18317SOL     OW66674   4.205   3.379   9.591  0.2874 -0.1132 -0.3171
18317SOL    HW166675   4.229   3.289   9.614 -0.4261 -0.4045 -0.6907
18317SOL    HW266676   4.287   3.428   9.600  1.0819 -1.0994 -1.6707
18318SOL     OW66677   9.559   1.806   3.063  0.0657  0.4114 -0.5855
18318SOL    HW166678   9.543   1.884   3.011 -1.7156  1.1317  0.9273
18318SOL    HW266679   9.529   1.829   3.151  1.7901 -1.1580  0.5052
18319SOL     OW66680   0.643   3.539   2.314  0.0171  0.4152 -0.3317
18319SOL    HW166681   0.556   3.577   2.298 -0.1525 -0.7164 -2.6042
18319SOL    HW266682   0.627   3.468   2.376 -0.6467  0.4140 -0.4937
18320SOL     OW66683  10.954  10.091   8.943 -0.1956  0.3923 -0.0386
18320SOL    HW166684  10.913  10.023   8.890 -2.5881  1.2199  0.6337
18320SOL    HW266685  10.890  10.110   9.012  0.3902  3.2470 -0.1422
18321SOL     OW66686   0.479   1.943   3.752  0.5151  0.0951  0.1823
18321SOL    HW166687   0.556   1.897   3.720  1.3039  1.4664  0.0116
18321SOL    HW266688   0.508   1.983   3.835  0.3458  1.4898 -0.4000
18322SOL     OW66689   0.815   5.782   8.858  0.1315  0.1160 -0.4104
18322SOL    HW166690   0.773   5.815   8.778  0.1522  1.6265  0.1648
18322SOL    HW266691   0.896   5.743   8.828  0.0280  0.4547 -1.1662
18323SOL     OW66692   5.694   9.278   2.356 -0.0215 -0.2254  0.2809
18323SOL    HW166693   5.784   9.281   2.322  0.6037 -0.0128  1.8742
18323SOL    HW266694   5.644   9.235   2.287  1.4323 -0.9255 -0.3791
18324SOL     OW66695   7.269   7.418   9.081 -0.0504  0.0556 -0.4408
18324SOL    HW166696   7.255   7.477   9.007 -0.4241  0.4960 -0.0194
18324SOL    HW266697   7.263   7.330   9.042 -2.1054  0.2288 -0.6508
18325SOL     OW66698   3.848   7.684   1.666  0.3391  0.6119  0.0794
18325SOL    HW166699   3.828   7.777   1.654 -1.1249  0.2170 -0.7693
18325SOL    HW266700   3.768   7.648   1.704  0.8669 -0.3248  0.3166
18326SOL     OW66701   5.757   7.215   5.158  0.1458 -0.3380 -0.1149
18326SOL    HW166702   5.700   7.183   5.088 -0.5065  1.5061 -0.4791
18326SOL    HW266703   5.798   7.293   5.123  0.6180  0.0371  1.1924
18327SOL     OW66704   3.697   5.140   5.980  0.1743 -0.2161  0.0481
18327SOL    HW166705   3.614   5.097   5.958  0.2251  0.2083 -1.0381
18327SOL    HW266706   3.713   5.116   6.071 -0.1704 -1.8920 -0.2995
18328SOL     OW66707   1.422  11.541  10.074  0.0701  0.3229  0.1600
18328SOL    HW166708   1.503  11.491  10.081  0.2968  0.8097  1.1855
18328SOL    HW266709   1.399  11.536   9.981  1.0472 -0.1646 -0.0732
18329SOL     OW66710   0.074   4.877   5.384  0.1936  0.2261 -0.8323
18329SOL    HW166711   0.134   4.904   5.453 -0.9551 -0.7607  0.6311
18329SOL    HW266712  -0.007   4.925   5.402 -0.4188 -0.7418 -0.8978
18330SOL     OW66713   6.878  11.927  10.280  0.6193  0.1417 -0.1776
18330SOL    HW166714   6.912  11.959  10.197  0.7518 -0.7877 -0.4925
18330SOL    HW266715   6.801  11.875  10.256 -0.3189  1.1959  0.4239
18331SOL     OW66716   9.158  10.835   8.351  0.1375  0.5674 -0.1394
18331SOL    HW166717   9.211  10.757   8.367 -0.1433  0.2140 -0.8948
18331SOL    HW266718   9.122  10.858   8.437  0.3729 -0.0236  0.1186
18332SOL     OW66719   5.402   0.544   6.582 -0.3166 -0.2947 -0.1507
18332SOL    HW166720   5.371   0.610   6.643 -1.0486 -0.0771 -0.7356
18332SOL    HW266721   5.497   0.549   6.586 -0.3615 -0.1616  0.8294
18333SOL     OW66722   7.294   1.430   5.242  0.5678 -0.2459 -0.1838
18333SOL    HW166723   7.209   1.397   5.214  0.6204  0.0790 -0.7291
18333SOL    HW266724   7.302   1.402   5.333 -1.0562  1.4737  0.5630
18334SOL     OW66725   2.704   9.928   1.868  0.1664 -0.2756 -0.4317
18334SOL    HW166726   2.796   9.905   1.853  0.4259  1.2705 -1.4055
18334SOL    HW266727   2.693  10.012   1.823 -1.2699  0.4351  1.1619
18335SOL     OW66728   1.645   1.536   7.068 -0.0585 -0.0830 -0.5527
18335SOL    HW166729   1.594   1.455   7.076 -0.5730  0.3887  1.4500
18335SOL    HW266730   1.597   1.600   7.121  0.0071  1.7460 -2.5602
18336SOL     OW66731   7.442  11.667   9.005 -0.3545  0.1517 -0.6797
18336SOL    HW166732   7.396  11.654   9.088 -0.5041 -0.7273 -0.8957
18336SOL    HW266733   7.526  11.622   9.016  0.5373  1.8327 -0.2501
18337SOL     OW66734   3.146  11.079   9.895 -0.9661  0.3729 -0.1377
18337SOL    HW166735   3.231  11.050   9.860 -1.7835  0.1002 -2.0160
18337SOL    HW266736   3.161  11.169   9.924 -0.2970  0.7497 -1.5590
18338SOL     OW66737   4.650  11.485   4.743 -0.0218  0.1551 -0.7580
18338SOL    HW166738   4.634  11.522   4.656  0.4840  1.0900 -0.4641
18338SOL    HW266739   4.625  11.554   4.804 -0.9361 -0.7058 -0.1239
18339SOL     OW66740   0.176   7.226   3.683  0.0269 -0.6972 -0.7177
18339SOL    HW166741   0.239   7.154   3.679 -1.7443 -2.3744 -0.2067
18339SOL    HW266742   0.100   7.188   3.727 -0.2259  2.1194  1.5233
18340SOL     OW66743   2.813   4.678   7.575  0.2599  0.0074  0.1840
18340SOL    HW166744   2.798   4.585   7.591  1.2176 -0.2078 -0.0762
18340SOL    HW266745   2.809   4.718   7.662  1.3217 -0.5180  0.4929
18341SOL     OW66746   4.792   5.461   1.373  0.3671  0.0783  0.0349
18341SOL    HW166747   4.801   5.495   1.462  1.2045  0.4084 -0.1632
18341SOL    HW266748   4.853   5.387   1.370  0.6439  0.3197 -0.3823
18342SOL     OW66749   7.567   6.144   7.386 -0.0296  0.3256 -0.2402
18342SOL    HW166750   7.509   6.095   7.327  0.2266 -1.5263  0.9704
18342SOL    HW266751   7.609   6.209   7.329 -0.8371 -0.4498 -1.8032
18343SOL     OW66752   7.441   3.546   5.743  0.1522  0.0316 -0.0492
18343SOL    HW166753   7.505   3.503   5.686  3.4952  1.2240  2.4717
18343SOL    HW266754   7.454   3.639   5.730 -0.0487  0.3220  1.5407
18344SOL     OW66755   7.684   3.586   6.524 -0.0091 -0.5132 -0.1614
18344SOL    HW166756   7.620   3.528   6.565  0.4005 -1.0646 -0.2965
18344SOL    HW266757   7.650   3.600   6.436  0.3022 -1.2197 -0.4066
18345SOL     OW66758  10.404   1.830   1.749  0.0337  0.0237  0.1251
18345SOL    HW166759  10.383   1.857   1.659  1.2922  2.2616  0.4237
18345SOL    HW266760  10.484   1.778   1.740 -0.0354 -0.0495 -0.0873
18346SOL     OW66761   4.474   0.363   1.594  0.4891 -0.4806  0.2600
18346SOL    HW166762   4.431   0.277   1.598  1.3247 -0.9502 -0.6060
18346SOL    HW266763   4.499   0.381   1.684 -2.9289  0.5782  1.1697
18347SOL     OW66764   6.180   3.027   6.115  0.1368 -0.8760 -0.3399
18347SOL    HW166765   6.216   3.011   6.028  0.3322 -0.3541 -0.3564
18347SOL    HW266766   6.234   3.097   6.151 -0.1761 -0.8356  0.0578
18348SOL     OW66767   2.464   9.619   6.004  0.3797 -0.1236 -0.2041
18348SOL    HW166768   2.524   9.646   5.934  2.4355 -0.0694  1.4805
18348SOL    HW266769   2.437   9.530   5.979 -0.9628  0.7951 -2.2904
18349SOL     OW66770   9.515   9.130   0.726  0.3222 -0.1861  0.2748
18349SOL    HW166771   9.496   9.109   0.817  1.3517 -0.2106  0.4956
18349SOL    HW266772   9.459   9.205   0.706  0.2257 -0.0626  0.9885
18350SOL     OW66773   5.003   8.480   5.689  0.2434 -0.9245 -0.0156
18350SOL    HW166774   5.082   8.470   5.742 -0.5479  0.4862  1.5090
18350SOL    HW266775   4.938   8.425   5.733 -0.4812  0.4324  0.6757
18351SOL     OW66776   9.815   5.125   9.727  0.3096  0.4819  0.3200
18351SOL    HW166777   9.787   5.033   9.726  0.0486  0.4483 -3.0714
18351SOL    HW266778   9.886   5.128   9.662  2.5538  2.1598  2.6666
18352SOL     OW66779   3.877   6.540   2.071 -0.8444 -0.2708  0.3972
18352SOL    HW166780   3.841   6.629   2.069 -0.2935 -0.0472 -1.5719
18352SOL    HW266781   3.881   6.518   2.164 -0.2640  2.0702  0.9967
18353SOL     OW66782   9.274   8.147  10.742  0.1353  0.0936 -0.3345
18353SOL    HW166783   9.214   8.218  10.719 -0.1017  0.1501  0.4150
18353SOL    HW266784   9.349   8.191  10.781 -0.6477 -0.0908  1.5321
18354SOL     OW66785   3.648   1.374  11.531  0.8537 -0.3847 -0.1627
18354SOL    HW166786   3.578   1.411  11.478  1.3375 -1.1401 -1.3554
18354SOL    HW266787   3.699   1.321  11.470  2.2956 -0.0839  0.7405
18355SOL     OW66788   2.649   5.779   9.285  0.7544 -0.0673 -0.3986
18355SOL    HW166789   2.595   5.741   9.216  0.1994 -0.2738  0.1355
18355SOL    HW266790   2.606   5.753   9.367  1.5703 -0.0883  0.0366
18356SOL     OW66791   8.503   1.131  10.300  0.2721 -0.3598  0.1653
18356SOL    HW166792   8.470   1.057  10.248 -1.1322 -0.2656  0.8852
18356SOL    HW266793   8.489   1.207  10.243 -2.3521 -0.0922  1.0170
18357SOL     OW66794   8.346   8.562   5.873  0.5236 -0.8116 -0.5837
18357SOL    HW166795   8.358   8.548   5.967  0.1438  1.1142 -0.1867
18357SOL    HW266796   8.335   8.657   5.865 -1.2917 -1.1104 -2.3668
18358SOL     OW66797   5.995   5.771   6.003 -0.3096  0.3769 -0.2125
18358SOL    HW166798   5.962   5.841   6.058  0.0620  0.4606 -0.0929
18358SOL    HW266799   5.994   5.694   6.059 -0.1384  0.4162 -0.1554
18359SOL     OW66800   9.226   1.061   2.358  0.5748  0.4409 -0.0917
18359SOL    HW166801   9.173   0.982   2.346 -0.6727  1.0070  1.4036
18359SOL    HW266802   9.230   1.073   2.452 -0.8110  3.1463 -0.2657
18360SOL     OW66803  11.878   6.839   1.883 -0.0695  0.4266 -0.3908
18360SOL    HW166804  11.915   6.888   1.810  0.8092 -0.2272 -0.3984
18360SOL    HW266805  11.841   6.760   1.843  0.0126  0.2810 -0.1820
18361SOL     OW66806   5.217   8.144   2.936  0.6603  0.6284 -0.3659
18361SOL    HW166807   5.134   8.096   2.928  1.5543 -1.6610  2.3746
18361SOL    HW266808   5.276   8.098   2.877  0.5580  0.7934 -0.5971
18362SOL     OW66809   5.828   4.075   6.799  0.0704  0.1522  0.7408
18362SOL    HW166810   5.782   4.110   6.876  0.6730  1.9990  0.3101
18362SOL    HW266811   5.901   4.135   6.785 -1.6298  1.6590 -2.9625
18363SOL     OW66812   5.191   8.277  11.251 -0.3544 -0.2401 -0.0320
18363SOL    HW166813   5.122   8.219  11.217  0.9295 -1.6315 -0.3804
18363SOL    HW266814   5.214   8.239  11.336 -0.5117  0.6562  0.4257
18364SOL     OW66815   5.848   8.621   0.769  0.1383  0.1219  0.3740
18364SOL    HW166816   5.822   8.565   0.696 -0.5117  0.4134  0.3762
18364SOL    HW266817   5.779   8.688   0.774  0.0794 -0.0048  1.3751
18365SOL     OW66818   0.126   0.965  11.672 -0.4663  0.6875  0.2862
18365SOL    HW166819   0.130   1.059  11.688 -2.3399  0.4798  2.6215
18365SOL    HW266820   0.206   0.931  11.712 -0.1749  1.2166  0.1692
18366SOL     OW66821   7.070   5.046   8.682  0.1500  0.3014  0.5945
18366SOL    HW166822   7.076   5.141   8.670  1.1593  0.0130 -2.0211
18366SOL    HW266823   7.012   5.034   8.756 -0.0581  2.9619  0.9522
18367SOL     OW66824   0.313   1.143  10.988  0.1444  0.2449 -0.6180
18367SOL    HW166825   0.242   1.142  11.052  0.5853 -0.3502 -0.1208
18367SOL    HW266826   0.282   1.086  10.917  0.1628 -0.0900 -0.3588
18368SOL     OW66827   6.875   0.031   8.192  0.4683 -0.7978 -0.2483
18368SOL    HW166828   6.791  -0.015   8.194 -0.5821  1.0454  0.9185
18368SOL    HW266829   6.922  -0.001   8.269 -0.3782  0.2319  0.7261
18369SOL     OW66830  11.597   6.625   1.192 -0.1268 -0.6039  0.0044
18369SOL    HW166831  11.522   6.676   1.160  0.5232  0.3799  0.0138
18369SOL    HW266832  11.594   6.544   1.140 -0.9791 -0.4201 -0.2513
18370SOL     OW66833   6.206   5.515   4.485 -0.5902 -0.7193 -0.0290
18370SOL    HW166834   6.131   5.538   4.540 -0.8283 -0.3157 -0.5124
18370SOL    HW266835   6.171   5.452   4.422 -1.2246  1.3641 -1.9235
18371SOL     OW66836  10.066   9.212   8.005  0.1501 -0.2276 -0.0131
18371SOL    HW166837  10.080   9.307   8.008 -2.8621  0.2876  0.8298
18371SOL    HW266838  10.026   9.196   7.920 -0.8378 -0.4438  0.4716
18372SOL     OW66839   9.282   4.478   1.756  0.0883  0.5986 -0.2979
18372SOL    HW166840   9.286   4.571   1.779 -1.0975  1.0180 -1.6222
18372SOL    HW266841   9.267   4.478   1.661  1.8845 -0.9843 -0.6271
18373SOL     OW66842   1.349   8.681  10.586  0.1174 -0.3869  0.4108
18373SOL    HW166843   1.259   8.689  10.552  0.7036  2.5062 -0.7471
18373SOL    HW266844   1.390   8.617  10.527 -1.0505 -1.5190  0.7643
18374SOL     OW66845  10.780   2.114   5.981 -0.3674  0.4811  0.1986
18374SOL    HW166846  10.845   2.054   6.019  0.0893  1.9747  1.8624
18374SOL    HW266847  10.701   2.061   5.974  0.9407 -1.4225 -1.9434
18375SOL     OW66848   9.673   4.730   4.416 -0.1957 -0.4623 -0.3782
18375SOL    HW166849   9.734   4.776   4.473 -0.0124  0.0827 -0.9925
18375SOL    HW266850   9.594   4.784   4.417 -0.8528 -1.3947  0.7640
18376SOL     OW66851   3.738   1.593   8.480  0.2642 -0.1976 -0.0413
18376SOL    HW166852   3.735   1.587   8.385  1.2755 -0.3907 -0.0778
18376SOL    HW266853   3.647   1.586   8.509  0.1352 -2.4718 -0.8491
18377SOL     OW66854   7.672   7.442   4.179 -0.2123  0.2000 -0.6273
18377SOL    HW166855   7.722   7.360   4.184 -0.7324 -0.0698  0.6482
18377SOL    HW266856   7.607   7.426   4.111  0.2254 -0.1272 -0.9804
18378SOL     OW66857   8.861   3.819   8.252  0.4130  0.2941 -0.0427
18378SOL    HW166858   8.868   3.817   8.157  0.3757 -0.7623 -0.0430
18378SOL    HW266859   8.835   3.908   8.273  2.6781  1.1965 -0.8450
18379SOL     OW66860   9.970   7.001   6.953  0.7871  0.5021  0.0315
18379SOL    HW166861   9.984   7.089   6.918  0.1100  1.0376  1.0570
18379SOL    HW266862   9.961   6.945   6.875 -1.6968  1.8149 -0.7448
18380SOL     OW66863   1.557   4.765   7.468 -0.0295  0.2284 -0.4978
18380SOL    HW166864   1.619   4.834   7.488  0.2423  0.2775 -1.4443
18380SOL    HW266865   1.534   4.727   7.553  1.7085 -0.1496 -0.1645
18381SOL     OW66866  11.490   0.648   6.321 -0.0800  0.0653  0.1456
18381SOL    HW166867  11.505   0.732   6.276 -0.0027  1.0037  1.8550
18381SOL    HW266868  11.523   0.583   6.259  1.0231  1.3719 -0.7205
18382SOL     OW66869  10.049  10.725   8.069  0.2920 -0.0740  0.3808
18382SOL    HW166870  10.025  10.660   8.136  0.5106 -0.9575 -0.3783
18382SOL    HW266871  10.141  10.708   8.051 -0.5037 -2.1080 -2.5078
18383SOL     OW66872   4.857   5.288   8.364 -0.0617  0.1135  0.4655
18383SOL    HW166873   4.841   5.212   8.308 -4.1908  1.1399 -0.0392
18383SOL    HW266874   4.840   5.364   8.307 -2.0435  1.2258  2.3905
18384SOL     OW66875  10.279   0.046   1.829 -0.1528  0.3407 -0.2346
18384SOL    HW166876  10.227  -0.029   1.799  1.1332 -1.4392  1.7320
18384SOL    HW266877  10.250   0.060   1.919  0.7967  1.1303 -0.0366
18385SOL     OW66878   7.401   1.690   4.090 -0.0351  0.1539 -0.1871
18385SOL    HW166879   7.456   1.764   4.066 -0.1376  0.5561  0.7752
18385SOL    HW266880   7.428   1.620   4.031  1.4135  0.3828  0.1794
18386SOL     OW66881  11.147   3.697  11.373 -0.3651  0.6420 -0.2837
18386SOL    HW166882  11.084   3.737  11.314 -0.5088  0.1389 -0.4766
18386SOL    HW266883  11.148   3.754  11.450 -0.9858  0.6984 -0.3199
18387SOL     OW66884  11.513   9.060   1.916 -0.0052  0.3278  0.2569
18387SOL    HW166885  11.506   9.041   1.823  3.9337  0.4583 -0.2348
18387SOL    HW266886  11.462   8.991   1.959 -1.0316 -0.3459 -1.9138
18388SOL     OW66887   6.552   6.752   4.144  0.0343  1.0795  0.1152
18388SOL    HW166888   6.626   6.706   4.105 -0.2594  0.7967 -0.1196
18388SOL    HW266889   6.486   6.755   4.075 -1.2676 -1.1913  1.1321
18389SOL     OW66890  10.108   3.728   1.741 -0.5547 -0.0444 -0.3265
18389SOL    HW166891  10.012   3.732   1.734 -0.4600  0.7613 -1.2082
18389SOL    HW266892  10.127   3.766   1.827 -1.0155 -0.1928 -0.1522
18390SOL     OW66893   5.395   7.987   2.096  0.1046  0.8365 -0.7123
18390SOL    HW166894   5.437   8.033   2.169 -1.5837  1.0881  0.1362
18390SOL    HW266895   5.468   7.959   2.041  1.4181  0.9586  0.8734
18391SOL     OW66896   9.964  11.750   0.246  0.5646 -0.0302 -0.3764
18391SOL    HW166897   9.965  11.835   0.291  1.9735  0.1001 -0.5816
18391SOL    HW266898   9.923  11.690   0.308  0.2241  0.6565  0.0733
18392SOL     OW66899   4.098   6.392   6.321  0.3567  0.0226 -0.1559
18392SOL    HW166900   4.125   6.359   6.236 -0.2135 -1.5871  0.2539
18392SOL    HW266901   4.177   6.388   6.375  0.0944 -1.6368  0.1509
18393SOL     OW66902   8.331   5.810   7.591  0.0409  0.0918 -0.0075
18393SOL    HW166903   8.305   5.888   7.541 -0.5571  0.0823  0.2847
18393SOL    HW266904   8.343   5.742   7.525  0.0587  0.2938 -0.2145
18394SOL     OW66905   6.624   9.636  10.845  0.0715  0.3802  0.2330
18394SOL    HW166906   6.669   9.693  10.907  1.7349  0.1152 -0.6772
18394SOL    HW266907   6.613   9.689  10.767  1.1169 -0.3386 -0.4245
18395SOL     OW66908  11.930   1.735   9.200  0.0487  0.0813 -0.0593
18395SOL    HW166909  11.999   1.775   9.252 -0.4507  1.0534 -0.1317
18395SOL    HW266910  11.875   1.688   9.263 -0.5012  1.1760  0.2952
18396SOL     OW66911   2.968   4.857   7.357 -0.7874  0.2899 -0.4799
18396SOL    HW166912   3.017   4.858   7.439 -1.1836  0.0648 -0.2346
18396SOL    HW266913   2.996   4.936   7.311 -1.3744  1.0019  0.3544
18397SOL     OW66914  10.497   3.913   2.316 -0.6247 -0.6625  0.0747
18397SOL    HW166915  10.466   3.924   2.226  2.9360  1.3518 -1.0994
18397SOL    HW266916  10.558   3.840   2.311  0.8736  0.5298  0.4012
18398SOL     OW66917  10.226   5.192   3.687  0.3287  0.1928 -0.2097
18398SOL    HW166918  10.134   5.170   3.699  0.5521 -0.1261  1.0615
18398SOL    HW266919  10.230   5.287   3.698  0.2847  0.0906  0.8340
18399SOL     OW66920   2.193   3.793  11.106  0.4157  0.6493  0.1909
18399SOL    HW166921   2.101   3.790  11.079  0.5862  0.3014 -0.3969
18399SOL    HW266922   2.239   3.744  11.037  1.3328  2.7251 -0.7340
18400SOL     OW66923  11.534   5.111   4.579  0.1988 -0.3575 -0.3854
18400SOL    HW166924  11.570   5.030   4.617  1.4224 -0.3206 -1.4137
18400SOL    HW266925  11.473   5.080   4.511 -0.0662 -0.4101 -0.1269
18401SOL     OW66926   4.291   8.885   3.999  0.4130 -0.3580 -0.1743
18401SOL    HW166927   4.313   8.964   4.048 -0.4422  0.3655 -0.9471
18401SOL    HW266928   4.362   8.824   4.021  0.1719 -0.0019  1.8015
18402SOL     OW66929   4.573   1.507  10.456 -0.1016  0.0769 -0.3235
18402SOL    HW166930   4.569   1.477  10.365  0.8657  1.0246 -0.7019
18402SOL    HW266931   4.496   1.563  10.466  0.6832  1.3158 -1.0805
18403SOL     OW66932   7.005   3.054   8.834 -0.3331 -0.1409  0.4136
18403SOL    HW166933   7.085   3.012   8.866 -0.6558  1.1742  3.2265
18403SOL    HW266934   7.014   3.146   8.858 -1.9069  0.4146 -0.9092
18404SOL     OW66935   2.789   3.034   1.959 -0.4149  0.5334  0.3233
18404SOL    HW166936   2.778   2.948   1.999  0.3439  0.0282 -0.5102
18404SOL    HW266937   2.774   3.096   2.031 -1.0774 -0.2812  0.9057
18405SOL     OW66938   4.822  11.045  10.950  0.5259 -0.0578 -0.0964
18405SOL    HW166939   4.736  11.064  10.986  0.4615 -1.9865  0.8954
18405SOL    HW266940   4.883  11.066  11.021  0.7365 -0.2517 -0.2165
18406SOL     OW66941   1.089   4.627  11.307 -0.4109  0.1321 -0.2881
18406SOL    HW166942   1.155   4.575  11.262 -0.9263 -0.3898 -0.4544
18406SOL    HW266943   1.025   4.648  11.240 -0.8404 -0.0757  0.0495
18407SOL     OW66944   6.973   7.233   9.064  0.0670  0.2425  0.3267
18407SOL    HW166945   7.056   7.217   9.019  0.4081  3.3379 -0.3196
18407SOL    HW266946   6.991   7.210   9.156  1.0526 -0.8311 -0.1050
18408SOL     OW66947   8.057   6.934   4.667 -0.6468 -0.2781  0.3395
18408SOL    HW166948   7.962   6.943   4.673 -0.5828  0.3973  0.4921
18408SOL    HW266949   8.088   6.959   4.754 -0.3022 -0.0439  0.1519
18409SOL     OW66950   6.200   5.819   8.040 -0.0082 -0.1369  0.6391
18409SOL    HW166951   6.286   5.798   8.075  0.1456 -1.0720 -0.2640
18409SOL    HW266952   6.158   5.871   8.109  0.4935 -1.4329  1.9594
18410SOL     OW66953   2.840   2.017   8.901  0.2344  0.1766  0.3946
18410SOL    HW166954   2.914   2.071   8.875  1.4081 -0.3264  2.4210
18410SOL    HW266955   2.856   1.932   8.860 -0.2231  0.5741 -0.6455
18411SOL     OW66956   9.589   1.732   3.661  0.3325  0.2985  0.3066
18411SOL    HW166957   9.683   1.747   3.663  0.2613  0.7943  0.2269
18411SOL    HW266958   9.551   1.820   3.668 -0.1228  0.0911  0.4698
18412SOL     OW66959   0.740   4.836   1.670  0.3256 -0.2174  0.5459
18412SOL    HW166960   0.823   4.851   1.716  0.5827 -1.1492  0.4139
18412SOL    HW266961   0.765   4.787   1.592 -0.5374 -2.2252  1.4665
18413SOL     OW66962   7.274   1.099   4.146 -0.1291 -0.2325  0.1647
18413SOL    HW166963   7.315   1.073   4.064 -0.5567  1.5963 -0.6861
18413SOL    HW266964   7.185   1.065   4.140 -0.1182 -0.2189 -0.0790
18414SOL     OW66965   7.159   9.487  10.779 -0.2449  0.1646  0.3606
18414SOL    HW166966   7.113   9.507  10.861 -2.6074  0.0814 -0.8775
18414SOL    HW266967   7.147   9.565  10.725  2.2587  0.6712  0.4262
18415SOL     OW66968   9.476  11.566   8.426 -0.5553 -0.0414 -0.3648
18415SOL    HW166969   9.503  11.548   8.336  1.2213  1.2146 -0.1403
18415SOL    HW266970   9.382  11.585   8.420 -0.6465 -0.8126 -1.7903
18416SOL     OW66971   5.145   9.960   9.978 -0.3840 -0.1499 -0.0866
18416SOL    HW166972   5.089  10.036   9.962 -1.3000 -0.7116  0.3618
18416SOL    HW266973   5.182   9.975  10.065  0.8921  0.6436 -0.7328
18417SOL     OW66974  11.010   4.900   1.870 -0.6247  0.2908 -0.1178
18417SOL    HW166975  11.059   4.845   1.931  0.4878 -0.2212 -1.4291
18417SOL    HW266976  10.924   4.857   1.864 -0.7221  0.2984  0.9830
18418SOL     OW66977   4.986   9.790   7.718 -0.4687  0.8278 -0.1542
18418SOL    HW166978   5.003   9.791   7.624 -1.1376 -1.2818 -0.3321
18418SOL    HW266979   5.070   9.768   7.758 -0.5316  0.1634 -0.3773
18419SOL     OW66980   4.489  10.429  10.746 -0.2694 -0.0087 -0.0066
18419SOL    HW166981   4.467  10.511  10.790  0.1145  0.6240 -0.9775
18419SOL    HW266982   4.411  10.406  10.696  0.1033  0.5127 -0.8461
18420SOL     OW66983   4.868   0.446   4.200  0.1427 -0.2190 -0.0900
18420SOL    HW166984   4.931   0.374   4.202 -1.6283 -1.8048  0.8432
18420SOL    HW266985   4.889   0.498   4.278  1.1466  0.0778 -0.5358
18421SOL     OW66986   9.358   6.335   0.790  0.6422 -0.1599  0.0683
18421SOL    HW166987   9.394   6.415   0.829 -0.2632  1.0737 -1.4737
18421SOL    HW266988   9.292   6.305   0.852  0.9059  0.3673  0.6113
18422SOL     OW66989   4.570   9.983   8.836  1.0243 -1.0150  0.2468
18422SOL    HW166990   4.570   9.888   8.840 -1.3027 -1.1252 -0.3853
18422SOL    HW266991   4.492  10.004   8.784 -0.3667  1.2977  3.0229
18423SOL     OW66992   5.341  11.310   1.753 -0.1778 -0.3608  0.2103
18423SOL    HW166993   5.319  11.219   1.735 -2.6710  0.4169 -1.0854
18423SOL    HW266994   5.290  11.331   1.832  0.1654 -0.0149  0.3400
18424SOL     OW66995   9.992  10.098   3.486  0.0420  0.1738  0.2789
18424SOL    HW166996  10.018  10.037   3.417  4.1618  2.0104 -0.0722
18424SOL    HW266997  10.063  10.093   3.550 -0.0070  3.6489  0.7987
18425SOL     OW66998   1.499  11.944   0.878 -0.0333 -0.3283 -0.6351
18425SOL    HW166999   1.434  12.009   0.904 -1.9853 -2.2908 -0.3087
18425SOL    HW267000   1.505  11.952   0.783  0.2873  0.7671 -0.5383
18426SOL     OW67001   1.041   7.078   6.952 -0.5229  0.5168  0.9228
18426SOL    HW167002   0.986   7.066   7.029 -0.1128 -0.6711  1.0483
18426SOL    HW267003   1.123   7.112   6.986 -0.1761 -0.4469  1.0867
18427SOL     OW67004   3.163   2.695   3.366 -0.7315 -0.0761  0.2434
18427SOL    HW167005   3.183   2.636   3.439  0.4255 -0.6269 -0.4767
18427SOL    HW267006   3.091   2.652   3.320 -0.7394 -0.2874  0.4467
18428SOL     OW67007   9.196   5.051  10.176  0.0719 -0.0872  0.0255
18428SOL    HW167008   9.120   5.030  10.122  1.0652  0.1582 -1.5274
18428SOL    HW267009   9.218   4.968  10.219  0.4697 -0.8388 -1.5529
18429SOL     OW67010   5.182   4.437   3.135 -0.6319  0.0889 -0.0708
18429SOL    HW167011   5.225   4.434   3.221  0.5958  4.9016 -0.2229
18429SOL    HW267012   5.254   4.444   3.073 -1.5557  0.3675 -1.1368
18430SOL     OW67013   0.778   4.576  10.833 -0.1218  0.4850 -0.8103
18430SOL    HW167014   0.821   4.515  10.892 -1.3627  0.4543  0.1233
18430SOL    HW267015   0.685   4.551  10.836 -0.2264  0.4639 -2.8175
18431SOL     OW67016   0.243   8.498   9.033  0.2862 -0.3255  0.6754
18431SOL    HW167017   0.236   8.574   9.091 -0.1794 -0.0037  0.2175
18431SOL    HW267018   0.154   8.461   9.032  0.5327 -0.9387  0.9720
18432SOL     OW67019   0.307   8.105   7.604  0.1514 -0.4448 -0.4708
18432SOL    HW167020   0.264   8.185   7.575 -1.1371 -0.9067  0.1025
18432SOL    HW267021   0.382   8.136   7.654 -1.2621  0.4780  1.1952
18433SOL     OW67022   6.291   6.649   0.475 -0.4637  0.1877 -0.2451
18433SOL    HW167023   6.324   6.701   0.402 -2.4422 -0.9214 -2.0531
18433SOL    HW267024   6.312   6.559   0.452 -0.6277 -0.1369  0.8402
18434SOL     OW67025   0.202   4.870   0.152 -0.0207  0.1861 -0.6939
18434SOL    HW167026   0.257   4.874   0.231 -0.3951 -0.5347 -0.3845
18434SOL    HW267027   0.264   4.866   0.080  0.3943 -1.9826 -0.2819
18435SOL     OW67028   2.506   5.332   9.272 -0.6991 -0.3382  0.1183
18435SOL    HW167029   2.587   5.370   9.307 -0.8909 -0.3042  0.5166
18435SOL    HW267030   2.510   5.352   9.178 -0.1173 -0.5619  0.0880
18436SOL     OW67031  10.130   0.699   0.039 -0.1753  0.7021 -0.6123
18436SOL    HW167032  10.117   0.786   0.077  0.7231 -0.3440  2.2869
18436SOL    HW267033  10.073   0.642   0.090  1.3772 -0.8499 -0.5334
18437SOL     OW67034   1.032   8.434   8.469 -0.0302  0.3263  0.0033
18437SOL    HW167035   1.011   8.403   8.381 -0.2277 -0.3757  0.2838
18437SOL    HW267036   1.011   8.359   8.526  1.3712  0.2867  0.5106
18438SOL     OW67037  10.028   2.289   5.658  0.5026  0.2947  0.1366
18438SOL    HW167038  10.109   2.330   5.687  0.5245  1.0769 -0.9612
18438SOL    HW267039   9.963   2.359   5.662  0.0049 -0.1793  0.4647
18439SOL     OW67040   4.334   2.361   9.168 -0.9205  0.5128  0.1340
18439SOL    HW167041   4.320   2.317   9.252  1.0016  0.2322  0.3553
18439SOL    HW267042   4.278   2.439   9.172 -1.5965  0.0010  1.2520
18440SOL     OW67043   4.840   8.495   6.883  0.2608  0.1812 -0.0417
18440SOL    HW167044   4.875   8.568   6.832  0.8836 -0.7763 -1.0233
18440SOL    HW267045   4.908   8.427   6.879 -0.5551 -0.6865  0.3455
18441SOL     OW67046   4.323  11.008   0.584 -0.4505  0.0763 -0.2103
18441SOL    HW167047   4.254  10.993   0.648 -0.5515 -0.1699 -0.3766
18441SOL    HW267048   4.294  10.961   0.506  0.2522 -0.6411 -0.0541
18442SOL     OW67049  11.336   3.881   0.565 -0.2215 -0.1466 -0.1237
18442SOL    HW167050  11.349   3.969   0.599  0.6798 -0.5619  0.6384
18442SOL    HW267051  11.243   3.863   0.581 -0.2933  0.4684  0.1850
18443SOL     OW67052   9.876   5.439  10.210  0.4219  0.5715  0.8858
18443SOL    HW167053   9.935   5.472  10.143  0.2884  0.2264  0.5949
18443SOL    HW267054   9.916   5.466  10.293  0.5539  1.0514  0.6683
18444SOL     OW67055   1.721   2.990   7.655  0.6354 -0.0257  0.0000
18444SOL    HW167056   1.807   2.949   7.667  0.2801 -1.3563 -1.7523
18444SOL    HW267057   1.695   2.966   7.566 -0.6164  2.1456 -0.2867
18445SOL     OW67058   4.160   7.804   3.448 -0.7763 -0.2735  0.5198
18445SOL    HW167059   4.135   7.791   3.356 -0.2191 -0.7113  0.4258
18445SOL    HW267060   4.191   7.894   3.452 -2.5047  0.3518  0.6775
18446SOL     OW67061   1.142   9.413   8.818 -0.4535  0.5144 -0.2182
18446SOL    HW167062   1.194   9.371   8.887  0.7660  2.1251 -0.0836
18446SOL    HW267063   1.099   9.486   8.862  1.4139  2.4005 -1.3559
18447SOL     OW67064   1.271   5.017   9.005  0.6102  0.0782  0.4251
18447SOL    HW167065   1.238   5.040   9.092 -1.5515  0.2749 -0.3871
18447SOL    HW267066   1.362   4.993   9.020  0.1790 -0.3293  2.8133
18448SOL     OW67067  10.058   7.285   9.353 -0.3127 -0.0885 -0.3608
18448SOL    HW167068  10.030   7.301   9.443  0.0292  2.5602 -0.6612
18448SOL    HW267069  10.135   7.229   9.361 -0.2116  0.2275  1.0094
18449SOL     OW67070   8.161   5.634   7.206  0.1922 -0.4031  0.4014
18449SOL    HW167071   8.222   5.611   7.276  2.5774 -0.8883 -1.7124
18449SOL    HW267072   8.185   5.724   7.183 -0.5521 -0.2625  0.1507
18450SOL     OW67073   6.035   5.971   8.205  0.1826  0.2790  0.2138
18450SOL    HW167074   5.968   5.940   8.266 -1.5413  1.6617 -0.8705
18450SOL    HW267075   6.088   6.032   8.256 -0.8925  0.9939  0.5312
18451SOL     OW67076   9.542   9.398   7.779  0.4173 -0.2960  0.1468
18451SOL    HW167077   9.480   9.346   7.727 -1.2120  0.7890  0.9274
18451SOL    HW267078   9.495   9.478   7.800  2.8298  1.5341 -0.9397
18452SOL     OW67079   7.353   9.631  10.594  0.4110 -0.6482  0.0948
18452SOL    HW167080   7.357   9.536  10.599 -0.2355 -0.6671  0.4180
18452SOL    HW267081   7.392   9.653  10.509  1.3998 -1.1309  0.4210
18453SOL     OW67082   9.111   2.968   4.300 -0.1183  0.7181 -0.2566
18453SOL    HW167083   9.030   2.954   4.251 -0.3437  0.4887  0.1710
18453SOL    HW267084   9.092   2.932   4.387  0.5344  0.4259 -0.2364
18454SOL     OW67085   0.415   2.979   1.335 -0.1608  0.0524 -0.0583
18454SOL    HW167086   0.498   2.932   1.342  0.0931  0.3338 -0.9315
18454SOL    HW267087   0.358   2.939   1.401  1.2122  1.0372  1.8218
18455SOL     OW67088  11.600   0.156   9.389  0.7533  0.2458  1.0016
18455SOL    HW167089  11.694   0.174   9.382  0.5868  0.5177 -1.9965
18455SOL    HW267090  11.586   0.080   9.332 -0.8552  0.2561  1.3314
18456SOL     OW67091   5.379  11.806   9.449  0.2889 -0.1282  0.3382
18456SOL    HW167092   5.301  11.821   9.395  0.2160 -0.3509  0.3759
18456SOL    HW267093   5.400  11.891   9.485 -1.3858 -0.4563  2.2769
18457SOL     OW67094   5.843   0.868   6.488 -0.4942  0.6100  0.5688
18457SOL    HW167095   5.796   0.871   6.571 -1.1243 -0.0176  0.2429
18457SOL    HW267096   5.866   0.959   6.469 -1.6713  0.9345  0.6794
18458SOL     OW67097  11.605   2.154   6.767 -0.0952 -0.2655 -0.3645
18458SOL    HW167098  11.673   2.090   6.788 -0.6862 -0.5277  0.8353
18458SOL    HW267099  11.523   2.105   6.772 -0.4046  0.0916 -1.6075
18459SOL     OW67100   2.296   2.009   3.092 -0.5288  0.2223  0.0445
18459SOL    HW167101   2.268   2.000   3.183  0.1262  0.5278  0.2858
18459SOL    HW267102   2.385   1.973   3.091 -0.7803 -0.4149 -0.6238
18460SOL     OW67103   1.271  11.219  10.890 -0.3511  0.0573  0.0654
18460SOL    HW167104   1.240  11.157  10.824  2.8002 -1.2740 -0.3546
18460SOL    HW267105   1.238  11.304  10.861 -1.6387 -0.9181 -1.4817
18461SOL     OW67106   4.946  11.540   8.192  0.0879  0.4798 -0.1682
18461SOL    HW167107   4.963  11.632   8.212 -0.2468  1.0890 -2.4132
18461SOL    HW267108   4.871  11.542   8.132 -0.5790 -1.3521  0.5186
18462SOL     OW67109   8.462   5.371   5.570  0.2362  0.3429  0.0066
18462SOL    HW167110   8.459   5.438   5.502  0.2866  0.3232 -0.0150
18462SOL    HW267111   8.424   5.413   5.647  1.3141  0.7712  0.3172
18463SOL     OW67112   2.908   3.584   4.342  0.3129  0.4930 -0.1718
18463SOL    HW167113   2.921   3.495   4.310 -0.5635  0.5094 -0.6213
18463SOL    HW267114   2.994   3.625   4.336  0.5093 -0.0174 -0.9581
18464SOL     OW67115  11.562  10.446   5.703 -0.3528 -0.1733 -0.4462
18464SOL    HW167116  11.652  10.439   5.671 -0.0104 -0.3767  0.5152
18464SOL    HW267117  11.536  10.535   5.682 -0.0302 -0.2063 -0.9989
18465SOL     OW67118   5.131   4.978   9.487 -0.2544 -0.7836 -0.0443
18465SOL    HW167119   5.139   5.072   9.475  1.7836 -0.6168  2.0069
18465SOL    HW267120   5.066   4.951   9.422 -0.3757  1.8983 -1.1556
18466SOL     OW67121   9.619   3.383   6.576  0.0681 -0.3956 -0.0589
18466SOL    HW167122   9.601   3.313   6.514  0.8217 -0.6383 -0.0104
18466SOL    HW267123   9.572   3.459   6.541  0.5890 -0.4922 -0.9991
18467SOL     OW67124   4.463   4.363   4.497  0.1039  0.2424 -0.6633
18467SOL    HW167125   4.429   4.412   4.571 -0.7913 -0.5750 -0.5130
18467SOL    HW267126   4.406   4.386   4.424  1.0322  1.1106 -1.1531
18468SOL     OW67127   2.707   4.151  10.329  0.6179  0.5487 -0.0598
18468SOL    HW167128   2.768   4.224  10.322 -1.8205  2.7523 -0.1233
18468SOL    HW267129   2.728   4.095  10.255  2.8495  0.9073  0.2373
18469SOL     OW67130   0.855   3.848   8.835  0.5060 -0.6480 -0.0106
18469SOL    HW167131   0.783   3.792   8.864  0.3662  0.0925  1.1421
18469SOL    HW267132   0.929   3.823   8.890  0.4286  0.3058  0.5509
18470SOL     OW67133  11.945   4.312   6.088  0.3615 -0.5657 -0.2680
18470SOL    HW167134  11.941   4.385   6.149  0.0210 -0.6375 -0.1999
18470SOL    HW267135  11.971   4.237   6.142 -0.7812 -0.8113 -0.0316
18471SOL     OW67136  11.216   6.524   9.862  0.3306 -0.3495  0.4652
18471SOL    HW167137  11.162   6.511   9.939  0.8933 -0.5012  0.8369
18471SOL    HW267138  11.306   6.525   9.895  0.5115  0.8944 -0.0136
18472SOL     OW67139   6.945  11.388   6.413 -0.0761 -0.2106  0.5185
18472SOL    HW167140   6.859  11.429   6.421  0.2910  0.5102  0.7496
18472SOL    HW267141   6.952  11.365   6.320 -1.0541 -1.4618  0.7311
18473SOL     OW67142   0.729   2.135   5.312  0.7639 -0.0999  0.3097
18473SOL    HW167143   0.664   2.202   5.292 -0.9022 -1.7397 -0.1136
18473SOL    HW267144   0.779   2.171   5.385 -0.0675  1.5705  0.1066
18474SOL     OW67145   9.419   2.188   9.942  0.3906  0.2291  0.0677
18474SOL    HW167146   9.436   2.188   9.848  2.2675 -0.0079  0.3802
18474SOL    HW267147   9.432   2.098   9.969 -1.6380 -0.0266  0.3452
18475SOL     OW67148   1.536   7.042  10.110  0.4778  0.3230 -0.6189
18475SOL    HW167149   1.622   7.072  10.140 -0.7973  1.4280  2.3629
18475SOL    HW267150   1.486   7.123  10.096 -0.4794 -0.3075 -0.9745
18476SOL     OW67151   2.316   3.673   5.260  0.4058  0.6949  0.2218
18476SOL    HW167152   2.334   3.625   5.179  0.6345  0.6826  0.2789
18476SOL    HW267153   2.392   3.656   5.315 -0.6875 -1.0735  1.2855
18477SOL     OW67154   6.333   5.074   2.353  0.5239 -0.1502 -0.1990
18477SOL    HW167155   6.336   5.027   2.436 -1.3865 -1.5848 -0.8720
18477SOL    HW267156   6.246   5.056   2.318  0.4911  2.1527 -1.5375
18478SOL     OW67157   6.196   1.156   6.531  0.4552  0.1504  0.3603
18478SOL    HW167158   6.225   1.174   6.442  1.3425  0.4885  0.7083
18478SOL    HW267159   6.277   1.151   6.582 -0.0772  0.6176  1.2640
18479SOL     OW67160   3.008  11.901  11.838 -0.3000 -0.1500  0.3670
18479SOL    HW167161   2.962  11.819  11.855 -1.4252  0.3246 -0.2696
18479SOL    HW267162   2.998  11.951  11.919 -0.8568 -0.0768  0.2546
18480SOL     OW67163   3.592   2.110  10.808 -0.0524 -0.0160  0.4152
18480SOL    HW167164   3.592   2.127  10.714  0.8059 -0.1739  0.3812
18480SOL    HW267165   3.603   2.015  10.815  1.0617  0.1167  0.6779
18481SOL     OW67166   7.778   5.355   0.976 -0.1453 -0.4866 -0.0597
18481SOL    HW167167   7.712   5.295   0.940  1.6392 -0.7805 -3.2267
18481SOL    HW267168   7.778   5.428   0.915 -0.3190  1.5085  2.2014
18482SOL     OW67169   5.216   0.553   7.918  0.2050  0.2391 -0.0827
18482SOL    HW167170   5.227   0.495   7.843 -0.1849  1.6676 -1.2993
18482SOL    HW267171   5.171   0.629   7.883  0.8471  1.3614  1.4032
18483SOL     OW67172   2.139   6.679   6.361  0.2098  0.4900 -0.2139
18483SOL    HW167173   2.189   6.598   6.360 -0.5498  0.0008  0.4762
18483SOL    HW267174   2.197   6.744   6.319  1.0538 -0.2575 -0.2258
18484SOL     OW67175   3.127  11.105   4.195  0.0550  0.5073 -0.3384
18484SOL    HW167176   3.062  11.160   4.238  1.0294  1.4490 -0.0062
18484SOL    HW267177   3.191  11.167   4.160 -0.5627 -0.2284 -2.9985
18485SOL     OW67178   9.872   4.444   0.011 -0.7695  0.0050  0.1901
18485SOL    HW167179   9.811   4.491  -0.045 -2.2751 -1.3262  0.6259
18485SOL    HW267180   9.848   4.470   0.100  0.2052  0.4990  0.3158
18486SOL     OW67181   3.009   7.608   3.023  0.1142 -0.2805  0.3596
18486SOL    HW167182   3.031   7.667   2.951 -0.2959 -1.8975 -1.1702
18486SOL    HW267183   2.938   7.653   3.070 -0.0019  0.5663 -0.5940
18487SOL     OW67184   0.801  10.954   9.332  0.0275  0.0078 -0.0662
18487SOL    HW167185   0.894  10.964   9.353 -0.0672 -0.3428  0.5464
18487SOL    HW267186   0.760  11.032   9.371  0.1620  0.5652 -1.0149
18488SOL     OW67187   4.565  10.381   1.487  0.2709 -0.5451 -0.0576
18488SOL    HW167188   4.632  10.418   1.430  0.8581  0.8296  1.4528
18488SOL    HW267189   4.570  10.286   1.471  2.2302 -0.4307 -0.3596
18489SOL     OW67190   8.733  11.609   7.650  0.1566  0.3027  0.5944
18489SOL    HW167191   8.714  11.665   7.575 -0.8708 -1.4089 -0.5146
18489SOL    HW267192   8.647  11.582   7.682  0.6138 -0.5793  1.1242
18490SOL     OW67193   3.623   4.601   4.709 -0.5526  0.2723 -0.3206
18490SOL    HW167194   3.599   4.511   4.730 -1.0636  0.3563 -0.5250
18490SOL    HW267195   3.688   4.592   4.638  0.8922  0.0074  0.9799
18491SOL     OW67196   4.714  11.154   7.532 -0.0063 -0.5036  0.3847
18491SOL    HW167197   4.721  11.203   7.450 -1.8529 -0.6043  0.1260
18491SOL    HW267198   4.777  11.083   7.523 -0.3480 -0.6659 -1.0846
18492SOL     OW67199   5.363   1.395  11.854 -0.1360 -0.4933 -0.4844
18492SOL    HW167200   5.292   1.399  11.919  1.1540 -1.4345  1.0389
18492SOL    HW267201   5.365   1.303  11.826  0.2995 -0.4099 -0.7322
18493SOL     OW67202   0.096   1.730   7.358 -0.6553 -0.2412 -0.0709
18493SOL    HW167203   0.018   1.730   7.303 -0.4644 -0.9887 -0.3551
18493SOL    HW267204   0.159   1.677   7.310  0.3173  1.0225 -0.2371
18494SOL     OW67205   8.870  10.168   9.191 -0.5756 -0.6135 -0.0194
18494SOL    HW167206   8.856  10.092   9.246  0.0344 -0.0700  0.9229
18494SOL    HW267207   8.865  10.135   9.101 -2.1673 -1.4115  0.3362
18495SOL     OW67208  11.871   9.013  10.439  0.6703 -0.2962 -0.2069
18495SOL    HW167209  11.831   9.063  10.510  2.0561 -1.1430  1.2420
18495SOL    HW267210  11.921   9.077  10.389  0.6116  0.1333  0.2813
18496SOL     OW67211   2.382   2.366   8.087 -0.4267  0.2274  0.1377
18496SOL    HW167212   2.416   2.390   8.001  1.1580  0.1772  0.7139
18496SOL    HW267213   2.391   2.271   8.091 -1.1178  0.1563  0.1209
18497SOL     OW67214   8.513   2.827   4.618 -0.6249  0.5852 -0.4447
18497SOL    HW167215   8.573   2.771   4.668 -0.2234  0.3116 -1.2244
18497SOL    HW267216   8.570   2.882   4.564 -1.0626  0.6198 -0.8770
18498SOL     OW67217   6.243   8.152   3.737 -0.0757 -0.3790 -0.1619
18498SOL    HW167218   6.283   8.104   3.665  0.3127 -0.2357 -0.0440
18498SOL    HW267219   6.245   8.243   3.710 -0.9728 -0.4383 -0.4606
18499SOL     OW67220   8.543   1.813   2.810  0.1757  0.5696  0.1904
18499SOL    HW167221   8.514   1.767   2.889 -2.2301  0.7923 -0.5007
18499SOL    HW267222   8.591   1.747   2.760  0.4604  0.0347  1.1412
18500SOL     OW67223   0.038   1.321   6.830 -0.0409  0.2794  0.1849
18500SOL    HW167224   0.122   1.353   6.796  0.8200  0.9318  2.6847
18500SOL    HW267225   0.049   1.226   6.836 -0.5267  0.0420 -2.0067
18501SOL     OW67226  10.036   4.771   3.832  0.0860  0.1001  0.2919
18501SOL    HW167227  10.054   4.677   3.831 -0.6279 -0.0419 -0.0591
18501SOL    HW267228  10.056   4.800   3.743 -0.9274  0.0228  0.0239
18502SOL     OW67229   8.055   7.645  11.169  0.3979  1.0976 -0.1438
18502SOL    HW167230   7.970   7.681  11.196 -0.4139  0.3210 -1.5481
18502SOL    HW267231   8.079   7.584  11.239 -1.3253 -0.3804 -0.7689
18503SOL     OW67232   2.672   3.045   3.500  0.4182 -0.3203 -0.1550
18503SOL    HW167233   2.723   3.108   3.450  0.8059 -0.0891  0.5249
18503SOL    HW267234   2.735   2.978   3.527  0.3958  0.0074  0.7559
18504SOL     OW67235   9.782   6.178  10.384 -0.0363 -0.0612  0.4908
18504SOL    HW167236   9.774   6.251  10.322  0.2812  0.3659  0.9464
18504SOL    HW267237   9.837   6.114  10.339  0.3846  0.3474  0.4175
18505SOL     OW67238   2.556   9.516   4.938  0.1196 -0.3595  0.2824
18505SOL    HW167239   2.485   9.493   4.878  0.2566  1.1200 -0.4938
18505SOL    HW267240   2.518   9.504   5.025 -0.3380 -1.7572 -0.0828
18506SOL     OW67241  11.859   2.011   4.280  0.8527 -0.4149 -0.3456
18506SOL    HW167242  11.846   2.077   4.348 -3.2668  0.0253 -1.2707
18506SOL    HW267243  11.891   2.061   4.205 -0.1313  0.2073 -0.3778
18507SOL     OW67244  11.764   2.672   6.036 -0.2779 -0.5464  0.5579
18507SOL    HW167245  11.681   2.718   6.047 -0.3440 -0.6502  0.4911
18507SOL    HW267246  11.753   2.620   5.956  0.4260  0.7331 -0.4118
18508SOL     OW67247   2.719  11.479  11.703 -0.5212 -0.1392 -0.0149
18508SOL    HW167248   2.764  11.459  11.621  0.2752 -1.9149  0.8111
18508SOL    HW267249   2.774  11.545  11.745  0.7649 -1.4443  0.4503
18509SOL     OW67250   3.569   9.421   2.630  0.1592 -0.5132  0.5086
18509SOL    HW167251   3.502   9.451   2.569 -0.3753 -1.4222  0.6305
18509SOL    HW267252   3.611   9.348   2.585  0.4133 -0.5708  0.8361
18510SOL     OW67253   6.149   8.011   8.170  0.2918  0.6091  0.0671
18510SOL    HW167254   6.121   8.006   8.079  1.9633  0.8674 -0.5019
18510SOL    HW267255   6.084   8.068   8.212  0.7008  2.3422 -1.4891
18511SOL     OW67256  10.471   8.751   0.397 -0.6278 -0.1408  0.7850
18511SOL    HW167257  10.542   8.714   0.345 -0.8415  1.9445 -1.1305
18511SOL    HW267258  10.511   8.770   0.482  0.9132  0.2592  0.0075
18512SOL     OW67259   7.468   2.451   5.214  0.6489 -0.0008 -0.2255
18512SOL    HW167260   7.453   2.448   5.309 -2.1122  0.6367 -0.5649
18512SOL    HW267261   7.485   2.360   5.190 -1.0562 -0.5746  0.5862
18513SOL     OW67262   3.343   8.576   3.684 -0.1049  0.3371  0.3495
18513SOL    HW167263   3.374   8.519   3.614 -0.3892 -2.9202  2.6048
18513SOL    HW267264   3.255   8.603   3.656 -0.2631 -0.9861 -0.5290
18514SOL     OW67265   0.954   6.043   6.605 -0.1184  0.5693 -0.3019
18514SOL    HW167266   1.017   6.050   6.677 -0.1642 -1.2320 -0.0616
18514SOL    HW267267   0.875   6.087   6.638  0.5580  1.7001 -0.1192
18515SOL     OW67268  10.768   7.090  11.528 -0.2313 -0.3457 -0.7435
18515SOL    HW167269  10.721   7.149  11.586  0.6240  0.4874 -0.8645
18515SOL    HW267270  10.857   7.126  11.525 -0.0446 -0.8537 -1.8973
18516SOL     OW67271   5.555   9.027   4.903 -0.0703 -0.2988 -0.0655
18516SOL    HW167272   5.646   9.028   4.872 -0.6024  2.1952 -1.7752
18516SOL    HW267273   5.532   8.934   4.905  2.2743 -0.9505 -0.2542
18517SOL     OW67274   5.488   7.426   3.443  0.0352  0.1623 -0.0039
18517SOL    HW167275   5.484   7.336   3.410  0.4784 -0.2438  0.9987
18517SOL    HW267276   5.582   7.442   3.456 -0.0779  0.5981  0.2728
18518SOL     OW67277   4.788   7.092   0.719 -0.2406  0.5937  0.1819
18518SOL    HW167278   4.723   7.124   0.781  0.0482  0.7386  0.4103
18518SOL    HW267279   4.783   7.153   0.645 -0.3956  0.5781  0.1800
18519SOL     OW67280   8.019   8.175   6.686 -0.0497 -0.1518  0.4617
18519SOL    HW167281   8.030   8.124   6.766  1.0212 -1.2714 -0.3559
18519SOL    HW267282   8.102   8.164   6.639 -0.4351  0.9724 -0.5212
18520SOL     OW67283   6.434   4.763   7.732 -0.7623 -0.1121 -0.3924
18520SOL    HW167284   6.457   4.852   7.757  0.3912 -0.6124  0.4500
18520SOL    HW267285   6.345   4.751   7.765 -1.1965  0.9376 -1.1345
18521SOL     OW67286   6.851   5.128   5.953  0.5082 -0.2078  0.7356
18521SOL    HW167287   6.880   5.133   5.862  1.0010  2.4421  0.9646
18521SOL    HW267288   6.814   5.040   5.961  0.5777 -0.5786 -1.9655
18522SOL     OW67289   5.671   5.207   6.927 -0.2505 -0.5241  0.7634
18522SOL    HW167290   5.739   5.183   6.990 -0.0317  1.1876  1.2259
18522SOL    HW267291   5.649   5.297   6.949 -0.5866 -0.0710 -1.2499
18523SOL     OW67292   4.578   0.490   0.207  0.4332  0.3427  0.1892
18523SOL    HW167293   4.564   0.407   0.162  2.2437 -0.6092  1.2715
18523SOL    HW267294   4.581   0.555   0.137  0.8976 -0.7699 -0.8558
18524SOL     OW67295   8.130   8.250   2.738  0.2809 -0.0926 -0.4385
18524SOL    HW167296   8.210   8.292   2.705  0.2138  0.3910 -0.0079
18524SOL    HW267297   8.074   8.242   2.661  0.6318 -0.1615 -0.6883
18525SOL     OW67298   8.828  11.837   5.404 -0.5935 -0.4853 -0.0186
18525SOL    HW167299   8.860  11.843   5.314  0.8953 -0.5134  0.4932
18525SOL    HW267300   8.869  11.910   5.450 -0.1482 -1.3297  0.9750
18526SOL     OW67301  10.327  11.351  10.025 -0.3946  0.3697 -0.2199
18526SOL    HW167302  10.390  11.288   9.991  0.7288  1.2227  0.2214
18526SOL    HW267303  10.242  11.307  10.017 -0.0695  0.1008 -2.9934
18527SOL     OW67304   5.631  10.245   5.901  0.5794  0.2463 -0.5792
18527SOL    HW167305   5.638  10.150   5.893 -0.4654 -0.2331  2.6854
18527SOL    HW267306   5.537  10.264   5.896  0.8474  1.4142 -2.8383
18528SOL     OW67307   2.138   4.684   8.778 -0.1791  0.0716 -0.2747
18528SOL    HW167308   2.201   4.755   8.773  0.0049 -0.0909 -0.2656
18528SOL    HW267309   2.056   4.722   8.747  0.0547  0.1226 -0.8306
18529SOL     OW67310   3.786  11.327  11.436 -0.3194  0.5113 -0.0405
18529SOL    HW167311   3.831  11.406  11.406  0.0593 -0.1669 -1.3103
18529SOL    HW267312   3.703  11.359  11.472  0.5921  1.6438  1.1345
18530SOL     OW67313   3.308   2.506   1.560 -0.1255  0.1655  0.0292
18530SOL    HW167314   3.326   2.573   1.494  0.6494 -0.1765 -0.1162
18530SOL    HW267315   3.367   2.434   1.538 -1.1488 -0.6858  0.0106
18531SOL     OW67316   1.115  10.037  11.463 -0.0341 -0.0227 -0.0002
18531SOL    HW167317   1.076  10.084  11.390 -0.5988  1.6773  1.3298
18531SOL    HW267318   1.175   9.974  11.422  0.3050  1.4441 -1.8862
18532SOL     OW67319   3.888   7.441   0.484 -0.0841 -0.2710 -0.1200
18532SOL    HW167320   3.909   7.485   0.402 -3.5857  1.4173 -0.2875
18532SOL    HW267321   3.927   7.496   0.552  0.0773  0.1217 -0.5295
18533SOL     OW67322   6.988   6.751   5.857  0.1487 -0.4874  0.2851
18533SOL    HW167323   6.914   6.803   5.889  0.1213  0.3995 -1.1448
18533SOL    HW267324   6.961   6.722   5.770  1.7227  0.4028 -0.5365
18534SOL     OW67325   3.160   1.787   4.398  0.6556  0.1629  0.0100
18534SOL    HW167326   3.188   1.856   4.458  0.2894 -0.4828  0.9406
18534SOL    HW267327   3.242   1.748   4.367  0.8946 -1.4121  2.3622
18535SOL     OW67328  11.389   0.641   1.880 -0.2940 -0.1694 -0.0237
18535SOL    HW167329  11.447   0.717   1.890  0.6096 -0.7901 -0.4247
18535SOL    HW267330  11.419   0.599   1.800  0.7275 -2.2267  1.3649
18536SOL     OW67331   6.906   6.564   3.751  0.0402  0.1606 -0.5785
18536SOL    HW167332   6.856   6.505   3.696  0.1756  0.7414 -1.3490
18536SOL    HW267333   6.919   6.642   3.697  0.8817  0.4233 -0.0213
18537SOL     OW67334   0.685   9.578   5.651 -0.8092 -0.0282 -0.7409
18537SOL    HW167335   0.702   9.637   5.724 -0.0048 -0.6457 -0.4019
18537SOL    HW267336   0.768   9.530   5.640 -1.6534 -1.6082 -0.5213
18538SOL     OW67337   7.346   8.583  10.389  0.4399  0.0279 -0.1542
18538SOL    HW167338   7.349   8.663  10.337 -0.8488 -0.6519 -1.3146
18538SOL    HW267339   7.298   8.607  10.468  1.0103  0.6583  0.0068
18539SOL     OW67340   4.277   4.417   6.313  0.2168 -0.5677  0.4748
18539SOL    HW167341   4.329   4.437   6.391 -1.7484  0.0084  1.6973
18539SOL    HW267342   4.242   4.329   6.330  0.5436 -0.8410 -0.2216
18540SOL     OW67343  10.542  11.933   1.723 -0.4556 -0.3825 -0.4707
18540SOL    HW167344  10.560  12.014   1.676 -0.3240 -0.2102 -0.1306
18540SOL    HW267345  10.460  11.950   1.770 -0.6302 -0.5824 -0.7000
18541SOL     OW67346   2.181  10.738   7.474  0.2950  0.4865 -0.1168
18541SOL    HW167347   2.182  10.652   7.516 -0.6273  0.4846 -0.0803
18541SOL    HW267348   2.273  10.760   7.463  0.5438 -0.4585 -0.0325
18542SOL     OW67349   7.527   6.218   6.509 -0.1802 -0.3143  0.1942
18542SOL    HW167350   7.606   6.177   6.476 -1.2561 -1.6449 -0.8592
18542SOL    HW267351   7.456   6.164   6.475 -1.5634  1.0045  0.8583
18543SOL     OW67352   1.817   3.063   0.777 -0.4201 -0.5863  0.2316
18543SOL    HW167353   1.729   3.080   0.809 -0.4125 -2.6914  1.5365
18543SOL    HW267354   1.805   3.032   0.687 -0.8777  0.2665 -0.0155
18544SOL     OW67355   7.601   7.845   4.196  0.2746  0.0059 -0.1600
18544SOL    HW167356   7.573   7.767   4.245  0.5848  0.0300  0.0578
18544SOL    HW267357   7.520   7.895   4.182  0.0464 -0.4470 -0.4675
18545SOL     OW67358   3.768   6.988   4.614  0.1586 -0.2195 -0.6748
18545SOL    HW167359   3.799   6.937   4.689  2.2275 -1.1501 -2.0399
18545SOL    HW267360   3.782   7.079   4.639 -0.1985 -0.4645  0.4633
18546SOL     OW67361   8.100   3.891  10.022  0.4176 -0.4587  0.0666
18546SOL    HW167362   8.080   3.838  10.100  0.9446 -1.7987 -0.6767
18546SOL    HW267363   8.145   3.968  10.056  1.7084 -1.5793  1.0188
18547SOL     OW67364   6.362   4.586   9.360  0.1159 -0.2815 -0.9094
18547SOL    HW167365   6.412   4.558   9.283 -1.0793 -1.3385 -1.3456
18547SOL    HW267366   6.337   4.504   9.403  0.1570  0.2759  0.2180
18548SOL     OW67367   7.541   7.185  10.746 -0.7943 -0.5063 -0.1233
18548SOL    HW167368   7.524   7.190  10.652 -1.2561 -2.2318 -0.1611
18548SOL    HW267369   7.576   7.272  10.769 -1.4711  0.2210 -1.7063
18549SOL     OW67370  11.767   2.884   9.211 -0.0767  0.2119  0.2614
18549SOL    HW167371  11.829   2.921   9.274 -0.3718  1.5451 -0.2033
18549SOL    HW267372  11.819   2.865   9.133 -0.1042  0.5595  0.1589
18550SOL     OW67373   5.685   1.211   2.885 -0.0094  0.4557  0.3443
18550SOL    HW167374   5.591   1.228   2.894  0.1763  0.8597  1.8448
18550SOL    HW267375   5.695   1.118   2.901 -0.2147  0.2842 -0.4809
18551SOL     OW67376  10.273   2.934   2.002  0.2299 -0.3278  0.0387
18551SOL    HW167377  10.301   3.025   2.004 -0.0011 -0.2419 -0.5129
18551SOL    HW267378  10.201   2.929   2.064 -0.7869  0.2206 -1.0623
18552SOL     OW67379  10.323  11.818   9.263 -0.1335  0.6837  0.3118
18552SOL    HW167380  10.389  11.775   9.209 -0.6047  0.8651 -0.4193
18552SOL    HW267381  10.358  11.907   9.277 -0.1567  0.7333  0.0504
18553SOL     OW67382   5.819   5.763   4.722  0.3120  0.1145 -0.2306
18553SOL    HW167383   5.811   5.725   4.810  0.7363  1.4433  0.4176
18553SOL    HW267384   5.901   5.727   4.688  0.6245  0.3045  0.2999
18554SOL     OW67385  10.927  11.544   2.320  0.3714 -0.3326 -0.5536
18554SOL    HW167386  10.942  11.556   2.226  3.3638  0.9166 -0.0495
18554SOL    HW267387  10.999  11.488   2.349  0.0247  0.0277  1.1218
18555SOL     OW67388  10.134   1.034   5.468  0.3630 -0.5729 -0.3316
18555SOL    HW167389  10.084   0.954   5.483  1.7973 -1.6526 -1.0377
18555SOL    HW267390  10.225   1.006   5.469  0.8759  0.9051 -1.4537
18556SOL     OW67391   8.761  11.935   4.902  0.4701  0.0818 -0.0930
18556SOL    HW167392   8.822  11.943   4.829  0.6694 -0.7466 -0.0277
18556SOL    HW267393   8.755  12.023   4.938  0.8356  0.3747 -0.7341
18557SOL     OW67394   6.700   5.497  11.358  0.7270 -0.2027 -0.4422
18557SOL    HW167395   6.624   5.555  11.360  1.4634  0.7855  1.8308
18557SOL    HW267396   6.738   5.510  11.271 -0.2150  1.2627 -0.6575
18558SOL     OW67397   3.016  10.045  10.027 -0.0769  0.4691  0.6411
18558SOL    HW167398   3.066   9.965  10.013 -0.2360  0.2154  1.4175
18558SOL    HW267399   2.930  10.014  10.057 -0.6891  0.8960 -0.6012
18559SOL     OW67400   5.433   9.247  11.723 -0.0719  0.5964 -0.2865
18559SOL    HW167401   5.338   9.260  11.726  0.1391  2.1337  0.3904
18559SOL    HW267402   5.444   9.166  11.673 -1.7968 -0.4642  0.9260
18560SOL     OW67403   5.664   0.531   3.683 -0.5749 -0.6902  0.0988
18560SOL    HW167404   5.714   0.462   3.639 -0.0809 -0.4791  0.3194
18560SOL    HW267405   5.636   0.589   3.613  0.7358 -0.0126  0.0997
18561SOL     OW67406   7.896   0.455   2.794  0.0082 -0.2582  0.3570
18561SOL    HW167407   7.842   0.476   2.871 -0.0103 -1.0487  0.5742
18561SOL    HW267408   7.902   0.359   2.795 -0.0191 -0.2813 -0.6501
18562SOL     OW67409   6.116  11.307   4.707  0.5285 -0.5729  0.5336
18562SOL    HW167410   6.039  11.356   4.679  0.2599 -2.2388 -1.9561
18562SOL    HW267411   6.137  11.343   4.794 -3.1104 -0.1847  1.4070
18563SOL     OW67412   9.550   9.032   6.208 -0.4532  0.4484  0.6239
18563SOL    HW167413   9.460   9.003   6.217 -0.0319 -1.0277  0.3314
18563SOL    HW267414   9.583   9.037   6.298 -0.2872 -0.8823  0.6606
18564SOL     OW67415   4.294   5.457   7.563  0.1480  0.3510  0.3335
18564SOL    HW167416   4.271   5.443   7.471  1.2391 -2.1537  0.3754
18564SOL    HW267417   4.318   5.550   7.567 -0.4614  0.6535 -1.7697
18565SOL     OW67418   0.978   6.965   6.376  0.3980  0.6205 -0.4190
18565SOL    HW167419   1.016   6.963   6.288  0.5322 -0.2526 -0.3475
18565SOL    HW267420   0.934   7.050   6.381  0.4169  0.6933 -1.3166
18566SOL     OW67421   1.453   2.453   5.491  0.2081 -0.5053 -0.0518
18566SOL    HW167422   1.451   2.538   5.447 -0.0091  0.0695  1.0174
18566SOL    HW267423   1.545   2.429   5.494  0.5198  0.6580  1.3446
18567SOL     OW67424   5.779   9.042   4.386 -0.1915 -0.2818 -0.8585
18567SOL    HW167425   5.727   9.103   4.333  0.2174  1.2753  0.4540
18567SOL    HW267426   5.805   9.093   4.463  2.2556 -1.3758 -0.8818
18568SOL     OW67427   1.146   6.004   2.556 -0.0724  0.4988 -0.6432
18568SOL    HW167428   1.099   5.952   2.622  1.3681  2.7450  2.4201
18568SOL    HW267429   1.234   5.965   2.553 -0.2239  0.2034 -1.5435
18569SOL     OW67430   1.505  10.993   3.237 -0.4121  0.0152  0.3716
18569SOL    HW167431   1.428  10.943   3.262 -0.0650 -1.8965 -2.0434
18569SOL    HW267432   1.472  11.057   3.174 -0.2189 -0.0375  0.2167
18570SOL     OW67433   1.392   1.989   7.689  0.4848  0.1731  0.5480
18570SOL    HW167434   1.376   1.910   7.740 -0.4143 -0.7821 -1.1460
18570SOL    HW267435   1.346   1.975   7.607  1.6165  1.7984 -0.4222
18571SOL     OW67436   3.346   3.431   9.137 -0.0748  0.2797 -0.1693
18571SOL    HW167437   3.354   3.343   9.100  2.3009  0.2398  0.3048
18571SOL    HW267438   3.430   3.473   9.118  0.5095  0.9593  3.2812
18572SOL     OW67439   4.262   1.749   3.528  0.3601 -0.1980  0.4939
18572SOL    HW167440   4.224   1.749   3.440 -0.0862  0.1743  0.6820
18572SOL    HW267441   4.342   1.697   3.520  1.7986  2.0046 -0.7938
18573SOL     OW67442  11.078   4.522   0.161 -0.2306 -0.1879  0.0454
18573SOL    HW167443  11.107   4.430   0.160  1.6206  0.3437 -1.6707
18573SOL    HW267444  11.071   4.546   0.069  0.2037  1.6561  0.4551
18574SOL     OW67445   8.364   6.115   7.814  0.1130  0.5597  0.4395
18574SOL    HW167446   8.458   6.103   7.801  0.4124  0.4098  2.3980
18574SOL    HW267447   8.328   6.027   7.812 -0.0885  0.6641 -0.9084
18575SOL     OW67448   3.793  10.737   1.118 -0.2179  0.4346 -0.1048
18575SOL    HW167449   3.829  10.825   1.125  1.0810 -0.1394  0.8768
18575SOL    HW267450   3.754  10.720   1.203 -2.5825  0.8790 -1.0086
18576SOL     OW67451   8.539   8.098  10.864 -0.1531  0.4941 -0.1375
18576SOL    HW167452   8.465   8.049  10.900 -0.1283  0.7721  0.3101
18576SOL    HW267453   8.607   8.032  10.848 -0.2097  0.3464  0.2200
18577SOL     OW67454   6.749   3.264   2.529 -0.1470  0.0978  0.0904
18577SOL    HW167455   6.764   3.269   2.623 -0.4300 -1.3882  0.2365
18577SOL    HW267456   6.835   3.244   2.491 -0.2012 -0.2033  0.1247
18578SOL     OW67457  10.988   0.762   8.645  0.1797  0.1410  0.2738
18578SOL    HW167458  11.009   0.855   8.643 -0.2902  0.2395 -0.7288
18578SOL    HW267459  11.069   0.720   8.676  0.4633  0.8486  0.5277
18579SOL     OW67460   7.888   3.067   8.712  0.0512 -0.1755  0.4825
18579SOL    HW167461   7.976   3.100   8.726  0.0559  0.3349 -0.5904
18579SOL    HW267462   7.881   3.056   8.617 -0.5027 -1.7611  0.6802
18580SOL     OW67463  10.907   0.012  10.058 -0.3537 -0.3057 -0.3693
18580SOL    HW167464  10.979   0.076  10.061  1.1954 -1.9687 -0.4739
18580SOL    HW267465  10.828   0.066  10.050  0.9951  1.5619 -2.4236
18581SOL     OW67466  10.565  10.394  10.996  0.3004 -0.0201  0.2385
18581SOL    HW167467  10.576  10.305  10.962 -2.8878  0.0366 -1.2913
18581SOL    HW267468  10.526  10.382  11.083 -1.1895 -0.1857 -0.4217
18582SOL     OW67469   8.812   2.642   8.724  0.6584 -0.3193 -0.0140
18582SOL    HW167470   8.880   2.700   8.760  1.5020 -1.1689 -0.2009
18582SOL    HW267471   8.773   2.693   8.653  0.1698  0.6971  0.9378
18583SOL     OW67472   3.380   8.404   5.344  0.1004  0.8026  0.2778
18583SOL    HW167473   3.436   8.336   5.307  0.3226  1.5516 -0.8285
18583SOL    HW267474   3.328   8.360   5.411 -0.0104 -0.5169 -0.6534
18584SOL     OW67475   4.316   8.722   0.364 -0.0847 -0.1770  0.1321
18584SOL    HW167476   4.323   8.792   0.430  0.5878  0.3910 -0.5229
18584SOL    HW267477   4.223   8.719   0.342  0.0772  1.5242 -0.8903
18585SOL     OW67478   8.256   0.381  10.452  0.4164 -0.3302 -0.4370
18585SOL    HW167479   8.323   0.419  10.396 -0.7498  1.9331 -0.4352
18585SOL    HW267480   8.291   0.390  10.541 -0.2412  1.8507 -0.3352
18586SOL     OW67481   6.823  11.158   2.658 -0.1855 -0.2988  0.9017
18586SOL    HW167482   6.897  11.101   2.678  0.8111  0.5747 -0.1582
18586SOL    HW267483   6.860  11.246   2.654 -0.6123 -0.1301 -2.5271
18587SOL     OW67484   8.234   0.521  10.962  0.2792  0.3135 -0.0469
18587SOL    HW167485   8.208   0.470  11.038 -2.4141  0.6369 -0.6491
18587SOL    HW267486   8.279   0.597  10.998 -1.2744  0.6401  1.2835
18588SOL     OW67487   9.922  11.394   6.955 -0.2967  0.1327 -0.2284
18588SOL    HW167488   9.995  11.333   6.943  0.3646  0.5667  1.3715
18588SOL    HW267489   9.884  11.371   7.039 -0.2110  1.7255  0.2808
18589SOL     OW67490   8.663   0.326   1.666  0.5184  0.3248 -0.6073
18589SOL    HW167491   8.712   0.315   1.747  0.2354  0.0196 -0.4741
18589SOL    HW267492   8.703   0.262   1.606 -0.4012 -0.6970 -0.1719
18590SOL     OW67493   2.302   3.798   6.966  0.1709  0.2457 -0.2372
18590SOL    HW167494   2.388   3.782   7.005  0.9071 -0.4958 -2.0797
18590SOL    HW267495   2.313   3.878   6.916 -0.2164  0.1449 -0.4851
18591SOL     OW67496   5.877   0.503   3.152 -0.0700 -0.1367 -0.7573
18591SOL    HW167497   5.865   0.537   3.064 -1.3289  0.6239 -0.3173
18591SOL    HW267498   5.788   0.491   3.186  0.3796  0.8932  0.8848
18592SOL     OW67499   3.709   1.560  10.159  0.1754  0.1338 -0.6760
18592SOL    HW167500   3.664   1.589  10.238  0.5090  0.1417 -0.4879
18592SOL    HW267501   3.679   1.620  10.091 -2.0741 -1.3830 -1.1279
18593SOL     OW67502   0.408  11.308   6.534 -0.1285  1.1731  0.0683
18593SOL    HW167503   0.475  11.366   6.498  0.2327  0.1682 -0.9371
18593SOL    HW267504   0.403  11.332   6.627  1.8411  1.0818  0.2458
18594SOL     OW67505   3.794   8.913   5.387 -0.0552  0.5485  0.5488
18594SOL    HW167506   3.827   8.852   5.453  1.1297 -1.0957 -1.4361
18594SOL    HW267507   3.869   8.931   5.330 -0.9066  2.2645 -0.1143
18595SOL     OW67508   5.267   6.207   2.727  0.3596 -0.5401  0.2506
18595SOL    HW167509   5.276   6.303   2.720  0.6146 -0.3772  2.3320
18595SOL    HW267510   5.173   6.192   2.736  0.4097 -0.3820  1.0756
18596SOL     OW67511   6.754   5.168   9.050 -0.6795 -0.2065 -0.7014
18596SOL    HW167512   6.743   5.082   9.009 -1.6429 -0.4250 -0.0167
18596SOL    HW267513   6.842   5.195   9.025 -0.1662 -1.6155 -0.5160
18597SOL     OW67514   9.693   8.832   2.299  0.0758  0.2689  0.3034
18597SOL    HW167515   9.609   8.856   2.338  1.5555  1.8637  2.7737
18597SOL    HW267516   9.745   8.801   2.373  1.1585 -2.4891 -1.4426
18598SOL     OW67517   8.848  10.737   8.612 -0.2254  0.3384  0.6630
18598SOL    HW167518   8.816  10.799   8.678 -0.9473 -0.6329  1.2547
18598SOL    HW267519   8.857  10.654   8.659  1.0068  0.0399 -0.0423
18599SOL     OW67520   1.023   3.946   2.463  0.5677 -0.2108  0.2035
18599SOL    HW167521   0.983   3.873   2.417 -1.8612  0.7703  0.5859
18599SOL    HW267522   1.098   3.908   2.510 -0.4280 -2.3685  0.1445
18600SOL     OW67523   3.697   4.498  10.014 -0.0078  0.1428  0.1875
18600SOL    HW167524   3.762   4.531   9.952 -0.9234  1.3472 -0.1589
18600SOL    HW267525   3.628   4.564  10.015 -1.8148 -1.6264 -0.3353
18601SOL     OW67526   5.800   0.507   0.114  0.2170 -0.0486  0.1508
18601SOL    HW167527   5.813   0.533   0.205  1.0316  0.2647 -0.0456
18601SOL    HW267528   5.800   0.589   0.066 -0.1751 -0.2166 -0.1349
18602SOL     OW67529   1.462  11.595  11.951 -0.5144 -0.0257 -0.1179
18602SOL    HW167530   1.378  11.552  11.934 -0.1755 -0.2744 -1.1763
18602SOL    HW267531   1.480  11.645  11.872  0.3408  0.0317  0.1046
18603SOL     OW67532   6.337   9.838   8.969 -0.0747 -0.6733 -0.2084
18603SOL    HW167533   6.297   9.883   9.043  1.0203 -0.5123  0.3168
18603SOL    HW267534   6.264   9.806   8.917 -0.9881  3.2366 -1.6301
18604SOL     OW67535   0.401   1.518   8.819  0.0029  0.8075 -0.3036
18604SOL    HW167536   0.447   1.518   8.735 -2.5220  1.8953 -1.8121
18604SOL    HW267537   0.471   1.513   8.884  2.0379 -1.2794 -2.4106
18605SOL     OW67538   8.393   7.001   8.357 -0.1570 -0.3989  0.4360
18605SOL    HW167539   8.418   6.968   8.271  1.5277 -1.7785  1.3682
18605SOL    HW267540   8.330   6.936   8.390 -0.2072 -0.3063  0.5220
18606SOL     OW67541   2.973   8.751   5.948 -0.3976 -0.2277 -0.4473
18606SOL    HW167542   3.024   8.798   5.882  0.9083 -0.1362  0.5772
18606SOL    HW267543   3.006   8.661   5.944  0.0065 -0.1328  0.3299
18607SOL     OW67544   2.410   6.377   2.289 -0.3583 -0.4222  0.4349
18607SOL    HW167545   2.463   6.440   2.338  1.1871 -1.3146 -0.0175
18607SOL    HW267546   2.472   6.332   2.232 -1.5823 -1.6422 -0.0075
18608SOL     OW67547   9.421   9.235   1.431 -0.2097 -0.2063  0.1228
18608SOL    HW167548   9.433   9.253   1.338  0.5371 -0.7564  0.1083
18608SOL    HW267549   9.486   9.169   1.452  0.9290  1.2726  1.4746
18609SOL     OW67550   1.294  10.089  10.957 -0.0373 -0.0604  0.0019
18609SOL    HW167551   1.250  10.122  10.879 -0.0425 -1.6290 -0.6842
18609SOL    HW267552   1.361  10.155  10.976 -0.4526  0.6562 -0.9329
18610SOL     OW67553   2.106  11.697   8.597 -0.3438  0.0748  0.3591
18610SOL    HW167554   2.201  11.691   8.583 -0.3102  0.3963  0.4377
18610SOL    HW267555   2.082  11.613   8.635 -0.2861 -0.4795 -0.7995
18611SOL     OW67556   7.559   3.428   9.271  0.2749 -0.4670  0.1292
18611SOL    HW167557   7.520   3.504   9.316 -1.4033 -0.0868 -1.8027
18611SOL    HW267558   7.622   3.466   9.211 -0.8936 -0.4954 -1.1691
18612SOL     OW67559  11.883   4.037   4.892 -0.0354 -0.2815  0.2211
18612SOL    HW167560  11.887   4.112   4.951 -0.6135  0.2809 -0.4450
18612SOL    HW267561  11.975   4.010   4.881  0.0159 -1.0802  2.2094
18613SOL     OW67562   3.750   3.690  11.571 -0.0680  0.0735 -0.1897
18613SOL    HW167563   3.669   3.737  11.554 -0.0363  0.4809  0.7314
18613SOL    HW267564   3.768   3.706  11.664 -0.9857 -3.1548  0.7034
18614SOL     OW67565   6.167  10.640   2.674 -0.7787 -0.1156  0.3942
18614SOL    HW167566   6.210  10.706   2.620  0.5059 -1.4572 -0.2781
18614SOL    HW267567   6.074  10.647   2.652 -0.5767  0.9941 -0.1569
18615SOL     OW67568   3.492   4.156   8.529  0.7141  0.1065  0.4004
18615SOL    HW167569   3.586   4.175   8.520  0.6529  0.9482  1.3096
18615SOL    HW267570   3.468   4.113   8.447  2.0328 -0.7277  0.4090
18616SOL     OW67571   5.030   5.199   0.207  0.3634 -1.1572  0.5415
18616SOL    HW167572   5.102   5.255   0.234 -0.4579 -0.3013  1.0175
18616SOL    HW267573   4.962   5.259   0.178 -1.1354 -1.7695  2.5334
18617SOL     OW67574   1.001   7.563   7.054  0.2299 -0.2041 -0.0855
18617SOL    HW167575   1.030   7.620   6.983 -1.5344  2.8279  1.4623
18617SOL    HW267576   0.917   7.529   7.024 -0.4147  0.9078  0.4089
18618SOL     OW67577   6.619   3.178   6.654 -0.6004  0.1699  0.1157
18618SOL    HW167578   6.569   3.159   6.574 -1.3214 -0.2686  0.6522
18618SOL    HW267579   6.705   3.204   6.623 -0.6567 -0.6566 -0.7908
18619SOL     OW67580   5.056   3.416   9.446 -0.2271  0.5044  0.1185
18619SOL    HW167581   5.149   3.429   9.427 -0.4997  2.4072 -0.1006
18619SOL    HW267582   5.038   3.326   9.417  1.2120  0.5915 -1.1614
18620SOL     OW67583   6.111   1.562   7.821 -0.3779 -0.2562  0.5622
18620SOL    HW167584   6.198   1.535   7.848 -0.6055 -1.2951  0.2804
18620SOL    HW267585   6.113   1.557   7.725 -0.8263 -0.5167  0.5666
18621SOL     OW67586  10.245   3.834   0.355  0.3567  0.0427 -0.0903
18621SOL    HW167587  10.334   3.824   0.386  0.2771 -2.6985 -0.5243
18621SOL    HW267588  10.198   3.758   0.391 -0.7771 -0.8529 -3.1573
18622SOL     OW67589   7.588  10.532   0.088 -0.3864  0.2681 -0.3428
18622SOL    HW167590   7.492  10.534   0.082 -0.3455  1.1994 -0.8734
18622SOL    HW267591   7.617  10.539  -0.003  0.1935 -1.8893 -0.3668
18623SOL     OW67592   4.662  10.205   7.799  0.5831  0.1312  0.0552
18623SOL    HW167593   4.603  10.279   7.781 -0.8733 -1.1457 -0.6713
18623SOL    HW267594   4.640  10.179   7.889  0.7100  0.2500  0.1199
18624SOL     OW67595   7.118   4.239   6.990  0.4178  0.0597 -0.0834
18624SOL    HW167596   7.078   4.280   6.914  2.0045  3.2070  0.6192
18624SOL    HW267597   7.052   4.247   7.059  0.5715  1.1187 -0.0534
18625SOL     OW67598   2.513   3.345  11.264 -0.1302 -0.0986  0.4611
18625SOL    HW167599   2.489   3.412  11.200 -0.2008 -0.2711  0.3074
18625SOL    HW267600   2.592   3.305  11.229 -0.9999 -1.2053 -0.2664
18626SOL     OW67601   1.681   1.870   7.340 -0.5186 -0.3584  0.3469
18626SOL    HW167602   1.728   1.841   7.418 -0.1117  0.9246  0.6075
18626SOL    HW267603   1.742   1.855   7.268  0.1509  0.8477  0.6261
18627SOL     OW67604   8.758   6.579   4.082 -0.7314 -0.1764  0.4278
18627SOL    HW167605   8.748   6.582   3.986  0.2218 -0.6682  0.3005
18627SOL    HW267606   8.770   6.671   4.107  1.8340 -0.2518 -0.2855
18628SOL     OW67607  10.762   2.556   0.762  0.5447 -0.1929 -0.1570
18628SOL    HW167608  10.702   2.624   0.731  0.7485 -0.7041 -1.7522
18628SOL    HW267609  10.818   2.602   0.826 -0.2619  0.7626 -0.1081
18629SOL     OW67610   4.354   7.054   1.680  0.4226 -0.0079  0.3009
18629SOL    HW167611   4.362   6.965   1.715  1.0296  0.5149  1.5720
18629SOL    HW267612   4.308   7.102   1.749 -1.4125  0.2993 -1.0830
18630SOL     OW67613   0.046   2.535   0.691 -0.4123  0.2218  0.3667
18630SOL    HW167614  -0.014   2.491   0.632 -1.4299  0.9642  0.8163
18630SOL    HW267615  -0.003   2.544   0.773  0.0840  1.3585  0.5667
18631SOL     OW67616   4.272   3.568   9.927 -0.2251 -0.0288  0.2218
18631SOL    HW167617   4.271   3.634   9.858 -0.4118  1.1738  1.3202
18631SOL    HW267618   4.352   3.518   9.911 -1.5223 -1.4826 -2.3239
18632SOL     OW67619   6.626   7.405   4.348  0.0211 -0.5702  0.2752
18632SOL    HW167620   6.720   7.385   4.355  0.4330  1.1436  0.0924
18632SOL    HW267621   6.621   7.475   4.284 -1.3680 -0.3965  0.5445
18633SOL     OW67622   7.974  11.587   1.663  0.0073  0.2884  0.7755
18633SOL    HW167623   7.887  11.587   1.703  0.4778 -0.4269  1.8442
18633SOL    HW267624   7.981  11.501   1.622 -0.1010  0.6622 -0.0534
18634SOL     OW67625   3.475  11.476   7.735 -0.2397  0.3046  0.6156
18634SOL    HW167626   3.477  11.394   7.785  2.4885  0.0093  0.1591
18634SOL    HW267627   3.483  11.448   7.644 -0.6828  1.0531  0.3406
18635SOL     OW67628   3.754   0.760   6.263 -0.1716  0.0864 -0.5150
18635SOL    HW167629   3.824   0.703   6.293  0.6435  0.1726 -2.1165
18635SOL    HW267630   3.788   0.848   6.275 -1.2632  0.2663  1.5650
18636SOL     OW67631   8.128   8.380   1.110 -0.7138 -0.6485  0.3779
18636SOL    HW167632   8.205   8.405   1.161  0.1538 -1.0145 -0.6976
18636SOL    HW267633   8.120   8.286   1.121 -1.3377 -0.5473  0.8940
18637SOL     OW67634   1.793   0.792   4.788 -0.3407  0.3495  0.0774
18637SOL    HW167635   1.872   0.829   4.747 -1.1976  1.3373 -0.7476
18637SOL    HW267636   1.749   0.868   4.826 -0.1294 -0.3964  1.9317
18638SOL     OW67637   4.163   5.918   4.406  0.4777  0.1322 -0.1546
18638SOL    HW167638   4.250   5.915   4.445  0.6408  2.3542 -0.2113
18638SOL    HW267639   4.106   5.875   4.470  1.6233 -1.7116 -0.2960
18639SOL     OW67640   2.005  11.144  10.051 -0.0575 -0.6859  0.3740
18639SOL    HW167641   2.003  11.049  10.063  0.6920 -0.6443  0.8746
18639SOL    HW267642   2.097  11.168  10.061 -0.1522  0.0228 -0.3321
18640SOL     OW67643   7.748   4.766  11.803  0.4694  0.0321 -0.2785
18640SOL    HW167644   7.805   4.795  11.731  1.0740  1.3531  0.6878
18640SOL    HW267645   7.808   4.732  11.869 -0.0813 -1.1550 -0.3626
18641SOL     OW67646   3.924   7.356  10.974 -0.0248  0.0065  0.0067
18641SOL    HW167647   3.845   7.411  10.974 -0.7469 -0.7895 -3.1256
18641SOL    HW267648   3.995   7.418  10.988 -1.0437  1.1595  0.3407
18642SOL     OW67649  11.566   8.592   5.310 -0.3228 -0.4317  0.1016
18642SOL    HW167650  11.560   8.615   5.218  1.2804 -0.5374 -0.0499
18642SOL    HW267651  11.532   8.669   5.356  0.0529  0.1211 -0.5357
18643SOL     OW67652   6.797   8.578  10.235 -0.3955  0.5469  0.2378
18643SOL    HW167653   6.739   8.654  10.246 -1.0489  0.0119  0.5924
18643SOL    HW267654   6.857   8.583  10.309 -0.1356  0.9764  0.0003
18644SOL     OW67655   4.166  11.492  10.932 -0.6593  0.1258  0.5113
18644SOL    HW167656   4.115  11.560  10.888  1.1456  0.9106 -0.5149
18644SOL    HW267657   4.122  11.478  11.015 -2.2455  1.0790 -0.1239
18645SOL     OW67658   9.095   1.005   8.791 -0.1444  0.2302  0.1956
18645SOL    HW167659   9.128   1.079   8.740  0.1249 -0.4183 -0.5861
18645SOL    HW267660   9.165   0.940   8.788  0.2791  0.5128  2.1963
18646SOL     OW67661   7.740   4.510   7.009  0.1410  0.1301  0.4176
18646SOL    HW167662   7.654   4.544   6.985  0.4211  1.3494  1.0414
18646SOL    HW267663   7.793   4.519   6.929  0.0845  0.7800  0.4452
18647SOL     OW67664   0.499   0.521   7.173 -0.6605 -0.3062  0.0325
18647SOL    HW167665   0.506   0.539   7.267  0.1635 -0.8212  0.0750
18647SOL    HW267666   0.525   0.604   7.131 -1.8717  0.2017  0.2492
18648SOL     OW67667  10.922   4.040   8.684  0.2319  0.1615  0.8830
18648SOL    HW167668  10.969   4.004   8.609  1.8697  2.8325  0.4767
18648SOL    HW267669  10.831   4.047   8.654  0.2586 -1.5669  0.2842
18649SOL     OW67670   5.963   0.126   2.852  0.1542  0.1246 -0.5662
18649SOL    HW167671   5.871   0.106   2.869  0.3739 -0.9155 -0.5482
18649SOL    HW267672   5.972   0.114   2.757 -0.1137  1.9145 -0.8564
18650SOL     OW67673  10.285  10.905   9.158  0.1236 -0.4400  0.2314
18650SOL    HW167674  10.329  10.909   9.243  1.1816  0.6706 -0.3188
18650SOL    HW267675  10.357  10.891   9.096 -0.1364  2.0496 -0.7649
18651SOL     OW67676  10.592   8.020   9.162 -0.0653 -0.2146  0.0864
18651SOL    HW167677  10.529   7.986   9.099 -3.0653  0.5876  2.4055
18651SOL    HW267678  10.612   8.108   9.130 -0.8824 -0.1330 -0.2351
18652SOL     OW67679   2.854   1.074   0.123  0.3078 -0.4801  0.5981
18652SOL    HW167680   2.883   0.985   0.099 -1.0463 -0.7258 -0.1971
18652SOL    HW267681   2.795   1.061   0.197  1.1879 -0.0967  1.3836
18653SOL     OW67682   2.499   8.354  10.014  0.1122 -0.2110 -0.1675
18653SOL    HW167683   2.435   8.325  10.078 -1.1641 -0.2889 -1.4380
18653SOL    HW267684   2.546   8.425  10.058 -0.7723 -0.2103  0.8257
18654SOL     OW67685   8.669   0.867   9.661 -0.0877  0.3848  0.0970
18654SOL    HW167686   8.659   0.777   9.630 -1.2133  1.0250 -1.5341
18654SOL    HW267687   8.585   0.909   9.641 -0.3918  1.2779  2.8035
18655SOL     OW67688   2.372   8.923   5.809  0.4446 -0.1444  0.0817
18655SOL    HW167689   2.376   8.843   5.862  0.7850  0.1823  0.5591
18655SOL    HW267690   2.435   8.983   5.851 -0.8382  0.8884  0.5943
18656SOL     OW67691   4.999   6.683   7.268 -0.1012 -0.1508  0.3254
18656SOL    HW167692   5.010   6.758   7.210  0.0994  0.7895  1.5387
18656SOL    HW267693   5.089   6.656   7.290 -0.1567  0.3647  1.2506
18657SOL     OW67694   9.595   6.082   7.426  0.1472 -0.1353  0.3845
18657SOL    HW167695   9.626   6.166   7.392 -2.6704  0.7240 -0.3017
18657SOL    HW267696   9.620   6.083   7.518 -0.4194  1.7946  0.5605
18658SOL     OW67697   0.830   4.110   9.086 -0.0346  0.1720  0.2317
18658SOL    HW167698   0.874   4.100   9.170 -0.3727 -0.6293  0.3173
18658SOL    HW267699   0.768   4.038   9.082 -0.1115  0.2735 -0.6539
18659SOL     OW67700   8.431   3.522   8.477 -0.2466  0.0629  0.3409
18659SOL    HW167701   8.521   3.519   8.445 -0.5550 -0.8047 -0.4713
18659SOL    HW267702   8.429   3.599   8.534  1.5706 -1.0825  2.0800
18660SOL     OW67703   9.774   4.032  11.493  0.0840 -0.4918  0.2642
18660SOL    HW167704   9.741   3.975  11.425  0.9964 -0.2513 -0.3994
18660SOL    HW267705   9.870   4.023  11.489  0.2401  0.8151  0.3432
18661SOL     OW67706   1.624  10.941   4.520  0.1567 -0.5142  0.0768
18661SOL    HW167707   1.648  11.026   4.556  1.3158 -0.8061  0.0435
18661SOL    HW267708   1.588  10.893   4.595  0.9828 -0.5349  0.4735
18662SOL     OW67709   5.776   7.552   3.884  0.4270  0.2522  0.1728
18662SOL    HW167710   5.708   7.619   3.873 -0.2718 -0.5355 -0.4906
18662SOL    HW267711   5.745   7.497   3.956 -0.6948 -1.3037 -1.4193
18663SOL     OW67712   6.489   1.066   2.692 -0.2436 -0.0815 -0.2339
18663SOL    HW167713   6.463   1.046   2.603 -0.3599 -0.6954 -0.0629
18663SOL    HW267714   6.454   1.154   2.708 -3.3776 -1.3206  0.4038
18664SOL     OW67715   5.523   0.282   6.420 -0.0403  0.4193 -0.5189
18664SOL    HW167716   5.569   0.282   6.504  0.0422  2.3498 -0.5071
18664SOL    HW267717   5.430   0.281   6.443 -0.0213  1.1778 -0.3680
18665SOL     OW67718   5.073   9.068   4.681  0.0276 -0.2434  0.6523
18665SOL    HW167719   5.064   8.975   4.701 -0.7565 -0.0823  1.1090
18665SOL    HW267720   5.127   9.071   4.603  0.7203 -1.0448  1.0827
18666SOL     OW67721   1.207   1.053   3.995 -0.2722 -0.2174 -0.3254
18666SOL    HW167722   1.221   1.129   3.938  0.7287  2.2051  2.8399
18666SOL    HW267723   1.118   1.065   4.028  0.2662  0.2577  1.0134
18667SOL     OW67724   4.852   8.374   9.522  0.2137 -0.1161  0.0456
18667SOL    HW167725   4.831   8.448   9.579 -1.6967  0.3090 -1.1242
18667SOL    HW267726   4.874   8.413   9.438  0.1883 -0.8318 -0.3021
18668SOL     OW67727   0.463   9.205   8.155  0.0556  0.1330  0.2051
18668SOL    HW167728   0.518   9.142   8.109 -1.0014 -0.5720 -0.1436
18668SOL    HW267729   0.491   9.290   8.123  2.9437  0.0718  2.1810
18669SOL     OW67730   2.318   5.539   1.337 -0.3075  0.5161 -0.3389
18669SOL    HW167731   2.371   5.599   1.283  0.6936  1.4160  1.5470
18669SOL    HW267732   2.371   5.459   1.342  1.1463  1.5083  1.7711
18670SOL     OW67733   1.937   0.906  10.511  0.2209 -0.2514  0.1739
18670SOL    HW167734   1.920   0.931  10.420  0.6371  0.9519  0.4125
18670SOL    HW267735   2.033   0.901  10.517  0.1632 -1.7998  0.1804
18671SOL     OW67736   6.053   0.739   4.967  0.2562 -0.0267  0.0807
18671SOL    HW167737   6.058   0.719   4.874  1.3535 -0.1319  0.1478
18671SOL    HW267738   6.109   0.673   5.009 -0.8169 -0.4457  0.8964
18672SOL     OW67739   3.103   9.365   4.742 -0.3929 -0.3914  0.1069
18672SOL    HW167740   3.197   9.384   4.739 -0.3184 -0.2507  2.0499
18672SOL    HW267741   3.099   9.271   4.758 -0.6602 -0.7922 -1.9959
18673SOL     OW67742   1.760   1.644   0.287  0.0748  0.0943 -0.5089
18673SOL    HW167743   1.713   1.683   0.361 -1.1491  0.6844 -1.5451
18673SOL    HW267744   1.759   1.550   0.305 -0.2845  0.2229  0.1854
18674SOL     OW67745   1.015   5.722   4.697 -0.4945  0.4138  0.2731
18674SOL    HW167746   1.064   5.641   4.709 -1.2907  0.0452  1.2542
18674SOL    HW267747   1.056   5.784   4.757  0.9937  1.1953 -1.4587
18675SOL     OW67748   7.295   8.212   0.271 -0.3358 -0.6920 -0.3962
18675SOL    HW167749   7.323   8.304   0.271 -2.6499  0.0811 -1.7339
18675SOL    HW267750   7.342   8.173   0.197  0.6930 -0.6400  0.2041
18676SOL     OW67751   6.998  10.635   9.978  0.1646 -0.0170  0.3963
18676SOL    HW167752   6.931  10.569   9.961  2.1115 -1.8407 -0.6148
18676SOL    HW267753   6.993  10.651  10.073 -0.3332 -1.6304  0.6665
18677SOL     OW67754   1.406   5.301   9.986  0.0117 -0.1550  0.2045
18677SOL    HW167755   1.488   5.251   9.986 -0.4128 -0.8747 -0.7462
18677SOL    HW267756   1.338   5.234   9.990 -0.5460  0.4649  2.0360
18678SOL     OW67757   2.105   4.676   4.713  0.1788 -0.5121 -0.1376
18678SOL    HW167758   2.082   4.767   4.695  0.5808 -0.3664  0.0794
18678SOL    HW267759   2.091   4.665   4.807  1.4433 -0.2761  0.1008
18679SOL     OW67760   4.219   9.487   9.364 -0.4218  0.1392 -0.0361
18679SOL    HW167761   4.153   9.433   9.321  0.6274 -1.4788  0.2824
18679SOL    HW267762   4.203   9.575   9.332 -2.1349 -0.3729 -0.6720
18680SOL     OW67763   3.976   2.092   0.438 -0.1571 -0.4343 -0.3739
18680SOL    HW167764   3.935   2.119   0.357  1.2928  0.8850 -0.7109
18680SOL    HW267765   4.019   2.009   0.416 -3.5490 -2.5912  0.3331
18681SOL     OW67766   5.941   9.324   7.244 -0.0232  0.3180 -0.2036
18681SOL    HW167767   6.031   9.355   7.233  0.3255 -0.5254  0.1903
18681SOL    HW267768   5.930   9.258   7.176 -0.2055  0.1297  0.0092
18682SOL     OW67769  11.664   2.084   5.116 -0.0793 -0.4077  0.0385
18682SOL    HW167770  11.678   1.999   5.074 -1.6078 -1.3364  1.3340
18682SOL    HW267771  11.722   2.084   5.192  1.0986  0.4032 -0.8184
18683SOL     OW67772  10.917   2.306   0.256  0.1658  0.1537 -0.3470
18683SOL    HW167773  10.880   2.372   0.197 -0.1953  0.0577 -0.2316
18683SOL    HW267774  10.903   2.341   0.344 -1.6205 -0.8328 -0.1713
18684SOL     OW67775   5.999  10.335   5.182 -0.4259  0.0810  0.7392
18684SOL    HW167776   6.094  10.328   5.183 -0.4697 -0.9976 -0.5142
18684SOL    HW267777   5.980  10.409   5.124 -0.3515  0.6517  1.4313
18685SOL     OW67778   2.953   9.466   4.462 -0.4332 -0.0622  0.0692
18685SOL    HW167779   2.972   9.385   4.510  1.3316 -0.5591 -1.3552
18685SOL    HW267780   2.898   9.438   4.389  0.5187 -0.0749 -0.6597
18686SOL     OW67781   8.796   4.180   4.661  0.3474 -0.2624  0.6648
18686SOL    HW167782   8.783   4.109   4.597 -0.6293 -0.6693  1.2927
18686SOL    HW267783   8.860   4.238   4.619  0.1411 -0.7999 -0.4494
18687SOL     OW67784   4.324   9.829   7.281  0.4935 -0.0392 -0.6539
18687SOL    HW167785   4.370   9.850   7.199 -0.0686 -1.2952 -1.3247
18687SOL    HW267786   4.232   9.838   7.259  0.3184 -0.9702 -0.3328
18688SOL     OW67787   4.213   2.784   8.185 -0.0307 -0.0159  0.2933
18688SOL    HW167788   4.133   2.733   8.197  0.0929  0.0540  1.6156
18688SOL    HW267789   4.184   2.865   8.143 -0.7276  0.1865  1.1445
18689SOL     OW67790   2.661   1.900   4.188 -0.2793 -0.0297 -0.2782
18689SOL    HW167791   2.636   1.978   4.237 -0.4154 -0.1606 -0.1412
18689SOL    HW267792   2.727   1.858   4.242 -1.5419 -1.0049  0.5411
18690SOL     OW67793   9.853   2.989   5.702  0.0272  0.3584 -0.0854
18690SOL    HW167794   9.914   3.060   5.680 -1.0905  0.7415 -2.2501
18690SOL    HW267795   9.830   3.005   5.793  0.7264  2.0709 -0.1634
18691SOL     OW67796   0.888   4.787   4.755 -0.2657 -0.3525 -0.4833
18691SOL    HW167797   0.897   4.705   4.803 -0.0088  0.4614  0.9008
18691SOL    HW267798   0.964   4.839   4.781 -0.9086  0.6838 -0.6258
18692SOL     OW67799   7.361   5.173   6.762 -0.2739 -0.6001 -0.2837
18692SOL    HW167800   7.295   5.211   6.820  1.1830  0.6417  0.6480
18692SOL    HW267801   7.356   5.224   6.682  0.0600  0.0104  0.0767
18693SOL     OW67802   8.491   9.298   5.167  0.0916 -0.8753 -0.0854
18693SOL    HW167803   8.471   9.216   5.212 -1.5278  0.3151  1.4933
18693SOL    HW267804   8.446   9.365   5.218  1.0686  0.9772 -1.5358
18694SOL     OW67805   4.721   8.224  10.505 -0.4060 -0.3550  0.5976
18694SOL    HW167806   4.686   8.225  10.416 -0.4879  0.0029  0.6319
18694SOL    HW267807   4.744   8.316  10.523  0.4454 -0.5563  0.6117
18695SOL     OW67808   2.782   2.943   9.731  0.4879  0.0412  0.2525
18695SOL    HW167809   2.806   2.911   9.644  1.0924 -0.7293  0.6897
18695SOL    HW267810   2.695   2.981   9.719  1.3665  1.8065 -1.1229
18696SOL     OW67811   5.044   6.203   8.238 -0.3679  0.7391 -0.3964
18696SOL    HW167812   5.072   6.284   8.195 -1.3681  0.7043 -1.1533
18696SOL    HW267813   5.048   6.137   8.169 -1.4848  0.5700 -0.3176
18697SOL     OW67814   2.750   8.043   9.698  0.2065 -0.3025 -0.2473
18697SOL    HW167815   2.753   7.954   9.662 -0.0779  0.2343 -1.6553
18697SOL    HW267816   2.667   8.046   9.746  0.8506 -1.2030  0.9901
18698SOL     OW67817   3.828   7.428   5.853  0.5633  0.2305 -0.2488
18698SOL    HW167818   3.897   7.492   5.871 -0.4773  1.3299 -0.1228
18698SOL    HW267819   3.748   7.469   5.885 -0.3798 -0.4233 -1.6989
18699SOL     OW67820   4.811   4.477   3.413 -0.1378  0.3257  0.0163
18699SOL    HW167821   4.776   4.396   3.377 -0.1717  0.5986 -0.5636
18699SOL    HW267822   4.856   4.449   3.493  0.6251 -0.3998 -0.6419
18700SOL     OW67823  11.049   4.883   3.134 -0.0709 -0.4700  0.2481
18700SOL    HW167824  11.007   4.827   3.068  2.3317 -2.8192  0.5578
18700SOL    HW267825  11.043   4.971   3.097 -1.5653 -1.2696 -1.6055
18701SOL     OW67826  11.216   0.140  11.625  0.2488 -0.7599  0.0642
18701SOL    HW167827  11.189   0.135  11.717  1.4713 -0.9442  0.4305
18701SOL    HW267828  11.180   0.060  11.586  0.0716 -0.8893  0.4792
18702SOL     OW67829   0.961   5.568   3.141 -0.4120 -0.1756 -0.4361
18702SOL    HW167830   0.903   5.505   3.185  0.3421 -1.8481 -1.6961
18702SOL    HW267831   1.039   5.571   3.196 -0.3601 -0.5474 -0.4842
18703SOL     OW67832   4.556  10.617   4.411 -0.5029  0.6986 -0.1453
18703SOL    HW167833   4.607  10.649   4.336 -1.0584 -0.3398 -0.9800
18703SOL    HW267834   4.502  10.547   4.375 -1.6280  0.9637  0.9941
18704SOL     OW67835   0.402   5.606   7.207  0.2978 -0.3488  0.2100
18704SOL    HW167836   0.458   5.672   7.167 -0.5992  0.0647 -0.4027
18704SOL    HW267837   0.455   5.526   7.205  0.6550 -0.1043 -0.8943
18705SOL     OW67838   3.941   0.405   2.093 -0.0220 -0.2670  0.1594
18705SOL    HW167839   3.850   0.401   2.125  0.1742  0.9746  0.9476
18705SOL    HW267840   3.990   0.351   2.155  0.1893  1.3093  1.4519
18706SOL     OW67841   0.679   0.125   5.969 -0.0466  0.2426  0.5173
18706SOL    HW167842   0.731   0.197   5.934 -1.0152  1.0302  0.6398
18706SOL    HW267843   0.594   0.164   5.989 -1.3276 -1.3444 -1.3898
18707SOL     OW67844  11.883   3.483   9.503 -0.0853 -0.1342  0.4620
18707SOL    HW167845  11.935   3.422   9.555  1.3366  0.7341  0.1157
18707SOL    HW267846  11.924   3.483   9.417 -2.4186 -1.5747 -0.7806
18708SOL     OW67847   2.927   8.223   1.809 -0.2150  0.1432 -0.3937
18708SOL    HW167848   2.843   8.257   1.839 -0.1175  1.0906 -1.1365
18708SOL    HW267849   2.907   8.134   1.779 -0.8321  0.1520 -0.0263
18709SOL     OW67850   7.340   5.818  10.000  0.5586  0.5614  0.2314
18709SOL    HW167851   7.401   5.781   9.936  1.6954  1.2171  0.8963
18709SOL    HW267852   7.394   5.880  10.050 -0.4276  0.4097  1.5024
18710SOL     OW67853   2.218   0.110   0.351  0.2242 -0.5837 -0.4510
18710SOL    HW167854   2.215   0.027   0.304 -3.1134 -1.0211  0.3503
18710SOL    HW267855   2.224   0.176   0.281 -1.1676 -1.3553 -1.3422
18711SOL     OW67856   5.401   8.558   4.776  0.3655  0.0909 -0.2807
18711SOL    HW167857   5.308   8.581   4.776  0.1907 -0.5974 -0.3075
18711SOL    HW267858   5.404   8.468   4.743  0.7346 -1.0722  2.6375
18712SOL     OW67859  11.849   5.041   7.510  0.1404  0.9359 -0.3109
18712SOL    HW167860  11.808   4.973   7.457  0.7917 -0.4744  0.9321
18712SOL    HW267861  11.941   5.043   7.482  0.6261 -0.2014  1.0544
18713SOL     OW67862   7.574   9.192   3.806  0.1608  0.1809 -0.1543
18713SOL    HW167863   7.656   9.162   3.767 -0.1573 -0.3732 -0.4106
18713SOL    HW267864   7.561   9.280   3.770  2.1163  1.5216  2.1476
18714SOL     OW67865  11.946   5.423   2.995  0.9199 -0.0628  0.0560
18714SOL    HW167866  12.015   5.459   3.051 -0.2514  0.7106  1.0602
18714SOL    HW267867  11.955   5.328   3.004  0.9133  0.0389  1.3854
18715SOL     OW67868   6.405   1.900   6.982  0.0329 -0.7403  0.6656
18715SOL    HW167869   6.335   1.954   6.945 -0.3777 -1.2737  0.6685
18715SOL    HW267870   6.441   1.852   6.908 -1.3971 -2.5079  1.0543
18716SOL     OW67871   0.797   8.012   5.852 -0.1679  0.5203 -0.0695
18716SOL    HW167872   0.826   7.920   5.857 -0.6719  0.3447 -0.3738
18716SOL    HW267873   0.772   8.033   5.942 -0.8688  0.0814 -0.1474
18717SOL     OW67874   4.759  11.737   7.655  0.2104 -0.4920 -0.5669
18717SOL    HW167875   4.740  11.729   7.749 -0.1078  0.4586 -0.5381
18717SOL    HW267876   4.845  11.779   7.652 -0.1764  0.3208 -0.6846
18718SOL     OW67877   3.068   0.584   6.617 -0.5527  0.0373  0.0453
18718SOL    HW167878   3.103   0.507   6.572 -1.2706 -0.0884 -0.3141
18718SOL    HW267879   3.019   0.548   6.691  1.6771  0.2761  1.7741
18719SOL     OW67880   6.715  11.194   9.051 -0.0327  0.1702  0.0218
18719SOL    HW167881   6.655  11.225   8.983  1.6114 -0.0266 -1.6034
18719SOL    HW267882   6.674  11.114   9.084 -0.6613  0.0232 -1.0577
18720SOL     OW67883   4.725   6.321  10.103  0.3614 -0.0566  0.5027
18720SOL    HW167884   4.678   6.320  10.186 -0.4488  1.2790  0.1032
18720SOL    HW267885   4.789   6.251  10.110 -1.9145 -2.2216  0.9578
18721SOL     OW67886   4.222   8.328   3.426  0.2563 -0.2990 -0.4016
18721SOL    HW167887   4.170   8.374   3.493 -1.3601 -1.1836 -0.9929
18721SOL    HW267888   4.308   8.371   3.429 -0.9644  2.3434 -0.5073
18722SOL     OW67889   6.864   6.610   8.934 -0.1264  0.3698  0.4469
18722SOL    HW167890   6.952   6.576   8.914 -1.4588 -2.6048 -0.9682
18722SOL    HW267891   6.843   6.667   8.860  0.1547  0.1627  0.2054
18723SOL     OW67892   0.713   7.372   3.970 -0.1686  0.7755 -0.0523
18723SOL    HW167893   0.721   7.352   3.877 -1.2436  1.3026 -0.2698
18723SOL    HW267894   0.647   7.311   4.003  0.7726  0.0418  0.5633
18724SOL     OW67895   6.759   8.732  11.262  0.1463 -0.0129 -0.7433
18724SOL    HW167896   6.673   8.691  11.267 -0.6909  1.7375  1.1233
18724SOL    HW267897   6.796   8.722  11.350  0.4339  2.0175 -0.5717
18725SOL     OW67898   9.806   8.968  10.413 -0.1272 -0.5471 -0.2718
18725SOL    HW167899   9.882   8.992  10.360 -0.4982  0.6841 -0.2665
18725SOL    HW267900   9.801   8.872  10.405  1.0057 -0.5785 -0.8233
18726SOL     OW67901   9.938   8.928   0.773 -0.1810  0.5397  0.0678
18726SOL    HW167902   9.942   8.850   0.717 -1.0553 -0.2115  1.0110
18726SOL    HW267903   9.886   8.991   0.723 -1.3704 -0.2992  0.2127
18727SOL     OW67904   6.933   1.507   1.188  0.1591  0.2467 -0.0401
18727SOL    HW167905   6.993   1.436   1.165 -0.7377 -0.3016 -0.7458
18727SOL    HW267906   6.990   1.578   1.219  1.0073 -1.2118  1.8951
18728SOL     OW67907   8.727   3.201   3.444  0.4687  0.1934 -0.1035
18728SOL    HW167908   8.732   3.107   3.462  1.0603  0.2926  0.2360
18728SOL    HW267909   8.711   3.206   3.349  0.0843 -0.2500 -0.0677
18729SOL     OW67910   3.233  11.722  11.548 -1.0750  1.0829 -0.6331
18729SOL    HW167911   3.197  11.635  11.564  0.9702  0.1984 -0.5908
18729SOL    HW267912   3.244  11.760  11.636  1.2034 -0.0208 -0.3549
18730SOL     OW67913   0.117   9.039   4.049 -0.8928 -0.2845 -0.2810
18730SOL    HW167914   0.196   8.988   4.030 -1.1149 -0.3686 -0.9935
18730SOL    HW267915   0.070   8.987   4.114 -0.3340 -0.2007  0.2072
18731SOL     OW67916  11.397   7.283   7.656 -0.1412  0.5091  0.1236
18731SOL    HW167917  11.419   7.192   7.678  0.1530  0.4202 -0.4917
18731SOL    HW267918  11.471   7.334   7.687 -1.0511  0.7736  2.0006
18732SOL     OW67919   2.668   8.885   6.681  0.0943 -0.1888 -0.0599
18732SOL    HW167920   2.592   8.833   6.707  0.2932  0.4379  1.9991
18732SOL    HW267921   2.630   8.966   6.645 -0.2283 -0.2089  0.2258
18733SOL     OW67922   8.056  10.870   4.541  0.0726 -0.2406  0.9331
18733SOL    HW167923   8.026  10.783   4.515 -0.4409  0.3617 -0.5778
18733SOL    HW267924   8.099  10.905   4.464 -0.4256  1.1496  1.2633
18734SOL     OW67925   2.130   3.174   2.945 -0.5265  0.4046 -0.9774
18734SOL    HW167926   2.036   3.152   2.942 -0.8745  1.3430  1.4021
18734SOL    HW267927   2.160   3.143   3.030  1.2579  0.5620 -1.5040
18735SOL     OW67928   2.108   9.890   5.499  0.0706 -0.4832 -0.4530
18735SOL    HW167929   2.194   9.877   5.458 -0.1994 -0.3510 -1.0666
18735SOL    HW267930   2.089   9.806   5.540  1.1125 -0.0990  0.8875
18736SOL     OW67931   8.536  11.283   0.375 -0.6688  0.4516 -0.6808
18736SOL    HW167932   8.518  11.189   0.378 -0.1777  0.3717 -0.0202
18736SOL    HW267933   8.492  11.318   0.453  0.9371  0.4370  0.2639
18737SOL     OW67934   8.597  10.577   0.833  0.0039 -0.1771  0.4202
18737SOL    HW167935   8.576  10.503   0.776 -0.3611 -0.4502  0.9059
18737SOL    HW267936   8.654  10.539   0.900 -0.7162 -0.1705  1.0509
18738SOL     OW67937   6.443  10.126   7.174  0.2604 -0.1534 -0.0298
18738SOL    HW167938   6.477  10.195   7.116  2.1613 -0.1310  1.0268
18738SOL    HW267939   6.487  10.142   7.257 -1.3362 -1.0456  1.0263
18739SOL     OW67940   4.002   6.176   5.822  0.2325  0.7427  0.0175
18739SOL    HW167941   3.948   6.228   5.881 -0.0963 -1.2957  1.6271
18739SOL    HW267942   3.995   6.221   5.737 -2.2456  1.7430  0.6596
18740SOL     OW67943   1.227   0.394   2.181 -0.0876  0.3377 -0.0654
18740SOL    HW167944   1.224   0.369   2.089  0.6526 -0.3663  0.0926
18740SOL    HW267945   1.170   0.471   2.187 -0.9808 -0.2357 -0.9056
18741SOL     OW67946  11.618   7.769  11.892 -0.2036  0.0883  0.4695
18741SOL    HW167947  11.528   7.763  11.925 -1.2679  0.9984 -2.0177
18741SOL    HW267948  11.647   7.857  11.917 -0.2773  0.0726  0.6135
18742SOL     OW67949   0.737   4.756   9.245  0.1759  0.1983 -0.3999
18742SOL    HW167950   0.669   4.817   9.273 -0.6113  0.2533 -2.2527
18742SOL    HW267951   0.796   4.809   9.192  0.8096 -0.1779 -0.0798
18743SOL     OW67952  11.471   9.049   1.649  0.0246  0.6316  0.4913
18743SOL    HW167953  11.513   9.005   1.575 -0.5945 -0.4328  0.7408
18743SOL    HW267954  11.382   9.012   1.651  0.1564  0.3216  2.0094
18744SOL     OW67955  11.481   5.034   2.654  0.2313  0.2357  0.2028
18744SOL    HW167956  11.465   5.117   2.700  0.3668 -0.3112  1.2787
18744SOL    HW267957  11.458   5.052   2.563 -3.3754  0.4516  1.0074
18745SOL     OW67958   0.655   1.317   7.037 -0.1468  0.9084 -1.0633
18745SOL    HW167959   0.624   1.396   6.992 -1.7566  0.0262 -1.5782
18745SOL    HW267960   0.575   1.272   7.064  0.7441 -0.4175 -0.5510
18746SOL     OW67961   4.012   2.619   8.049  0.5280 -0.0333  0.0858
18746SOL    HW167962   3.929   2.610   8.001  0.3361 -1.0655  0.5684
18746SOL    HW267963   4.011   2.545   8.111  0.7663  1.2390  1.6622
18747SOL     OW67964   9.359   1.011   0.287  0.1397  0.1036 -0.2393
18747SOL    HW167965   9.268   1.037   0.272  0.0555  0.1156  0.2668
18747SOL    HW267966   9.369   0.930   0.238  0.4121  1.0733 -1.8664
18748SOL     OW67967   9.483   2.608  10.663 -0.0598 -0.1042  0.1174
18748SOL    HW167968   9.487   2.702  10.645  0.5512  0.2915  2.0776
18748SOL    HW267969   9.410   2.600  10.725 -0.4002 -1.0084 -0.3862
18749SOL     OW67970   2.540   3.960   9.768 -0.4444 -0.4135 -0.4829
18749SOL    HW167971   2.471   3.908   9.809  0.2210  0.2151  1.5356
18749SOL    HW267972   2.592   3.993   9.841  0.3597  1.4113 -1.8123
18750SOL     OW67973   1.564   3.051   0.897 -0.1624  0.2269 -0.4375
18750SOL    HW167974   1.553   3.094   0.982  0.7805 -1.8802  0.8333
18750SOL    HW267975   1.479   3.011   0.878 -0.6527  1.4761 -0.9925
18751SOL     OW67976   7.132   3.735   6.543 -0.0883  0.0709 -0.1533
18751SOL    HW167977   7.102   3.645   6.535  0.8263 -0.1893 -0.7537
18751SOL    HW267978   7.162   3.759   6.455  1.0070  0.4652  0.3039
18752SOL     OW67979   5.677   2.259   0.286  0.7478  0.2970 -0.4313
18752SOL    HW167980   5.744   2.322   0.312  0.6833 -0.4134  1.6187
18752SOL    HW267981   5.725   2.195   0.233  1.5394  0.2537  0.3023
18753SOL     OW67982   8.105   3.811  11.470 -0.0194  0.4904  0.2562
18753SOL    HW167983   8.094   3.878  11.538  1.3829  2.6715 -1.4943
18753SOL    HW267984   8.198   3.788  11.474 -0.6664 -2.2778  1.5200
18754SOL     OW67985  10.176  10.527  11.341  0.0402  0.5600 -0.3556
18754SOL    HW167986  10.128  10.581  11.403 -0.6580 -0.5788  0.1400
18754SOL    HW267987  10.120  10.522  11.264  0.3310  0.9460 -0.5948
18755SOL     OW67988   4.126   0.543   6.711  0.0612  0.8649 -0.0314
18755SOL    HW167989   4.128   0.617   6.651 -1.3322  1.0748  0.1427
18755SOL    HW267990   4.156   0.469   6.659  0.5038  1.3535 -0.4883
18756SOL     OW67991   4.714   9.321   5.663  0.4672 -0.5427  0.0380
18756SOL    HW167992   4.674   9.305   5.578  0.4455  2.6217 -0.6373
18756SOL    HW267993   4.649   9.288   5.726 -0.5176 -0.8822 -1.1113
18757SOL     OW67994   5.192   4.559   9.360  0.3936  0.0675  0.3224
18757SOL    HW167995   5.189   4.604   9.445  1.0779 -0.4976  0.6684
18757SOL    HW267996   5.278   4.516   9.360  2.2133  3.2443 -2.3204
18758SOL     OW67997   1.855  11.126   2.071  0.0509  0.2328 -0.2507
18758SOL    HW167998   1.770  11.165   2.093  0.0756  0.6375 -0.8372
18758SOL    HW267999   1.848  11.035   2.099 -0.3766  0.4035  0.2146
18759SOL     OW68000   3.953   7.989  10.520 -0.3011 -0.1958 -0.1104
18759SOL    HW168001   3.910   8.039  10.589 -0.0338  1.9631 -1.4111
18759SOL    HW268002   3.893   7.992  10.446  0.8475  0.5106 -1.0598
18760SOL     OW68003  10.515   9.406   1.837  0.2537 -0.2510  0.8966
18760SOL    HW168004  10.518   9.311   1.841 -0.6123 -0.3746 -0.4656
18760SOL    HW268005  10.602   9.435   1.865  0.6246 -1.4556  1.0231
18761SOL     OW68006   3.578   4.965   3.692  0.9005 -0.4657 -0.4427
18761SOL    HW168007   3.643   5.008   3.637  2.6521 -0.6131  1.3930
18761SOL    HW268008   3.629   4.924   3.762 -1.1819 -0.4485  1.1881
18762SOL     OW68009  11.002   4.156   5.259 -0.4808  0.3525  0.0783
18762SOL    HW168010  11.066   4.085   5.265 -2.0975 -1.0196  2.5329
18762SOL    HW268011  10.946   4.131   5.186 -0.4218 -0.3641  0.2721
18763SOL     OW68012   6.324   1.814   9.145 -0.4385 -0.3130 -0.1845
18763SOL    HW168013   6.331   1.771   9.230 -2.7642 -0.9898 -0.2689
18763SOL    HW268014   6.373   1.896   9.155  1.1950 -1.3731  1.0577
18764SOL     OW68015   8.206  11.401   8.301 -0.3042  0.4412  0.0958
18764SOL    HW168016   8.245  11.346   8.233  1.6851  0.8955  0.8061
18764SOL    HW268017   8.128  11.439   8.259 -0.4467 -1.1094 -1.1289
18765SOL     OW68018   1.064  11.258  10.041  0.5866  0.7815 -0.0482
18765SOL    HW168019   1.065  11.176  10.090 -1.7654  0.3313 -0.6322
18765SOL    HW268020   1.124  11.315  10.089 -0.7026  0.0138  2.6928
18766SOL     OW68021   5.494   5.150  11.109 -0.0944  0.0304 -0.6243
18766SOL    HW168022   5.477   5.089  11.037 -0.0448 -1.4802  0.5844
18766SOL    HW268023   5.465   5.103  11.187  3.4001 -0.0239  0.8206
18767SOL     OW68024  10.076  11.670   6.604 -0.0642 -0.0241 -0.3507
18767SOL    HW168025  10.088  11.731   6.532  0.8155  0.6055  0.2993
18767SOL    HW268026  10.070  11.726   6.682  0.9453 -0.7464  0.2816
18768SOL     OW68027   0.291   8.669   4.517  0.4908  0.0665  0.2499
18768SOL    HW168028   0.362   8.681   4.455 -0.2399 -1.8393 -1.0130
18768SOL    HW268029   0.312   8.588   4.563 -0.7978 -0.4780 -0.0807
18769SOL     OW68030  11.301   4.263   1.933 -0.2833  0.3272  0.0352
18769SOL    HW168031  11.307   4.227   2.022 -0.3989  0.0404 -0.0709
18769SOL    HW268032  11.372   4.326   1.928  0.1104 -0.0991  0.1313
18770SOL     OW68033   9.269   5.371   1.447 -0.5541 -0.0148  0.1602
18770SOL    HW168034   9.248   5.420   1.527 -1.0294  0.6830 -0.3792
18770SOL    HW268035   9.315   5.293   1.478  0.4180  0.8678  1.0380
18771SOL     OW68036   1.554   9.864   6.846  0.4744 -0.1664  0.2620
18771SOL    HW168037   1.491   9.799   6.876 -0.2226  1.7236  3.2590
18771SOL    HW268038   1.512   9.948   6.863  2.0774  1.1639 -1.8084
18772SOL     OW68039   2.288   6.931   4.555  0.4530 -0.5190  0.2044
18772SOL    HW168040   2.249   6.976   4.480  0.9797  0.2830  0.3998
18772SOL    HW268041   2.295   6.999   4.622 -0.2346 -1.2796  1.0745
18773SOL     OW68042   6.521  10.172   3.853  0.1704 -0.2470  0.6356
18773SOL    HW168043   6.517  10.255   3.900 -1.5148  0.0883 -0.0394
18773SOL    HW268044   6.446  10.122   3.884 -1.8454  0.5231 -2.5469
18774SOL     OW68045  11.276   2.990  11.300  0.5884 -0.3377 -0.4292
18774SOL    HW168046  11.233   2.981  11.215  0.9314  0.8616 -0.7484
18774SOL    HW268047  11.204   2.985  11.363  0.3654 -1.5025 -0.7553
18775SOL     OW68048   2.062   7.429  11.102  0.1600 -0.7326  0.6301
18775SOL    HW168049   2.082   7.409  11.011  1.3209 -5.1780  1.6152
18775SOL    HW268050   1.967   7.439  11.104 -0.1319 -2.6157 -0.8338
18776SOL     OW68051   8.722   0.714   9.171 -0.0803  0.0462 -0.0129
18776SOL    HW168052   8.636   0.739   9.137 -0.3183 -0.1593  0.4229
18776SOL    HW268053   8.771   0.797   9.176 -0.7128  0.3803  1.0026
18777SOL     OW68054   6.138   6.981  10.354  0.9551  0.0498  0.1239
18777SOL    HW168055   6.184   7.044  10.411  0.0578  0.4522  0.4325
18777SOL    HW268056   6.053   7.022  10.339  1.3709  0.2236 -2.0049
18778SOL     OW68057  10.478   7.722   0.227 -0.0294  0.0558 -0.0873
18778SOL    HW168058  10.530   7.674   0.163  1.1579  1.1860 -0.0043
18778SOL    HW268059  10.457   7.805   0.185  1.1817  1.0193  1.1034
18779SOL     OW68060   5.064  10.317   1.075 -0.1368 -0.7228  0.0345
18779SOL    HW168061   5.118  10.240   1.090 -1.0930 -1.2974  0.6384
18779SOL    HW268062   5.117  10.390   1.105  0.8014 -1.1313 -0.5915
18780SOL     OW68063   9.466   9.873   7.554  0.3700 -0.1687  0.7203
18780SOL    HW168064   9.452   9.932   7.480 -1.4299 -3.5924 -1.9589
18780SOL    HW268065   9.389   9.884   7.609  0.3715  0.3870  0.6175
18781SOL     OW68066   7.820   7.203   2.780 -0.1629 -0.0141  0.2376
18781SOL    HW168067   7.764   7.274   2.813  1.4015  1.8691 -0.9773
18781SOL    HW268068   7.840   7.228   2.690  0.8628 -1.7758 -0.0621
18782SOL     OW68069   7.013   6.641  11.733  0.0733 -0.3061  0.0472
18782SOL    HW168070   6.930   6.618  11.691 -0.9688  0.8192  1.3961
18782SOL    HW268071   7.019   6.736  11.723  2.2059 -0.5396 -1.7429
18783SOL     OW68072   9.902  11.703  10.992 -0.1213  0.2438  0.0583
18783SOL    HW168073   9.876  11.688  11.083 -2.2684 -0.3538 -0.5893
18783SOL    HW268074   9.967  11.772  10.997 -0.1703  0.2200  2.0503
18784SOL     OW68075  10.388   8.561   5.276 -0.2062  0.2189  0.5958
18784SOL    HW168076  10.468   8.590   5.320 -0.4367  0.2434  1.0052
18784SOL    HW268077  10.346   8.501   5.339  1.1119 -2.4236 -0.8765
18785SOL     OW68078   4.913  10.672   6.971  0.2457 -0.3688  0.4492
18785SOL    HW168079   4.823  10.654   6.943  0.4004  0.5649 -0.7351
18785SOL    HW268080   4.903  10.728   7.048 -0.1883 -0.6927  0.6344
18786SOL     OW68081   8.871   3.527   4.258 -0.3672  0.2552 -0.2291
18786SOL    HW168082   8.831   3.498   4.176 -1.7033  1.2546  0.0395
18786SOL    HW268083   8.906   3.447   4.298 -1.5071 -0.5497 -0.8102
18787SOL     OW68084   6.072   1.318   4.564 -0.0442 -0.1838  0.2180
18787SOL    HW168085   6.131   1.368   4.507  0.7462  0.0209  1.1889
18787SOL    HW268086   6.022   1.263   4.504  0.8038 -0.0138 -0.6669
18788SOL     OW68087   2.499   6.609   0.994 -0.8241 -0.2758 -0.4013
18788SOL    HW168088   2.454   6.531   0.963 -1.0452 -0.4594  0.3460
18788SOL    HW268089   2.459   6.681   0.947 -0.4058 -0.6334 -1.3288
18789SOL     OW68090   9.394   4.670   5.224 -0.1100 -0.1250 -0.2170
18789SOL    HW168091   9.395   4.765   5.211 -0.6880 -0.2974 -1.8076
18789SOL    HW268092   9.315   4.654   5.275 -0.3961  0.2036 -0.5423
18790SOL     OW68093   4.210   0.021   8.089  0.4523 -0.0655  0.8317
18790SOL    HW168094   4.121   0.045   8.112  0.2393 -0.6963  0.6865
18790SOL    HW268095   4.241  -0.030   8.164  0.4466 -0.4445  0.5741
18791SOL     OW68096   3.996  11.573   1.264 -0.5308  0.4263 -0.3457
18791SOL    HW168097   4.006  11.488   1.221 -0.4767 -0.0728  0.6141
18791SOL    HW268098   4.002  11.553   1.358 -0.4679  1.4968 -0.1071
18792SOL     OW68099   8.356   1.821   5.997 -0.3948 -0.4867  0.0697
18792SOL    HW168100   8.441   1.786   5.969 -1.5863 -1.8422 -2.1228
18792SOL    HW268101   8.340   1.894   5.937 -1.5997 -1.4619 -0.8427
18793SOL     OW68102   7.302   7.667   1.008  0.3206  0.6115 -0.0256
18793SOL    HW168103   7.250   7.685   0.930  0.2274 -1.0627 -0.3836
18793SOL    HW268104   7.391   7.694   0.984  0.3623 -0.2021 -0.8610
18794SOL     OW68105   9.845  11.438   5.475 -0.6112 -0.0008 -0.9952
18794SOL    HW168106   9.830  11.402   5.388 -1.6249 -1.2127 -0.3562
18794SOL    HW268107   9.761  11.429   5.520  0.0678 -0.0310  0.3230
18795SOL     OW68108   1.108   4.880   8.742 -0.3671  0.2525 -0.0120
18795SOL    HW168109   1.028   4.893   8.793 -0.7154 -0.5284 -0.3463
18795SOL    HW268110   1.135   4.968   8.716 -0.6741  0.5822  0.7763
18796SOL     OW68111   1.578   6.322   1.815  0.6475 -0.1869  0.0959
18796SOL    HW168112   1.606   6.314   1.724  3.4321 -0.9107  0.9095
18796SOL    HW268113   1.568   6.416   1.828  2.0234  0.0825 -0.5395
18797SOL     OW68114   0.331   4.538   4.981 -0.4691 -0.1775 -0.2993
18797SOL    HW168115   0.413   4.518   4.937 -0.2798  0.6811 -0.3502
18797SOL    HW268116   0.298   4.616   4.937 -0.5895  0.3225  0.6430
18798SOL     OW68117   3.480   2.328   7.216 -0.2974 -0.1580  0.1476
18798SOL    HW168118   3.409   2.383   7.250 -0.1579 -0.3803  0.8184
18798SOL    HW268119   3.486   2.351   7.123  0.1976  1.4412  0.5483
18799SOL     OW68120   2.355   5.273   3.627 -0.0155 -0.6747 -0.2561
18799SOL    HW168121   2.383   5.249   3.539  0.1821  0.1828 -0.4342
18799SOL    HW268122   2.434   5.306   3.670 -0.0496 -1.3301  0.3418
18800SOL     OW68123   0.931   3.211   0.718 -0.3587  0.1890 -0.1034
18800SOL    HW168124   0.961   3.222   0.808 -1.4290  1.1824  0.1607
18800SOL    HW268125   0.840   3.239   0.720 -0.3083  0.5245 -1.5640
18801SOL     OW68126   0.420   2.333  11.574 -0.8824  0.1303  0.3751
18801SOL    HW168127   0.510   2.328  11.542 -0.1662  0.6224  2.1525
18801SOL    HW268128   0.405   2.249  11.618 -0.5854  0.7390  1.7051
18802SOL     OW68129   9.248   4.286   8.349 -0.0615  0.6284 -0.2455
18802SOL    HW168130   9.315   4.296   8.416 -0.9313  1.3499  0.5404
18802SOL    HW268131   9.282   4.218   8.291  1.0420  0.5193  0.5024
18803SOL     OW68132   1.472   5.649   4.899 -0.0025  0.2205  0.1168
18803SOL    HW168133   1.488   5.735   4.939 -0.3805  0.2114  0.2856
18803SOL    HW268134   1.377   5.644   4.889  0.1054  0.4903 -1.3721
18804SOL     OW68135   4.391   4.141  10.596  0.6468  0.0570  0.9415
18804SOL    HW168136   4.320   4.104  10.544 -0.0805  0.9974  1.2272
18804SOL    HW268137   4.427   4.067  10.645  0.9946 -0.7474 -0.4662
18805SOL     OW68138   7.810   1.324   0.698  0.4777  0.0491  0.0690
18805SOL    HW168139   7.899   1.332   0.663 -0.7744 -0.7510 -3.8376
18805SOL    HW268140   7.789   1.231   0.690 -0.9723  0.3496  0.1315
18806SOL     OW68141   7.967   9.844   1.395  0.2493 -0.1219 -0.1374
18806SOL    HW168142   7.938   9.791   1.321 -1.1016  1.2928 -0.6817
18806SOL    HW268143   7.970   9.783   1.469 -0.1803 -1.1771 -0.9680
18807SOL     OW68144   2.991   7.871   7.572 -0.7659  0.2861 -0.1355
18807SOL    HW168145   3.005   7.786   7.530  0.6501 -0.2367  1.2569
18807SOL    HW268146   2.919   7.856   7.634 -1.3954  0.4732 -0.8109
18808SOL     OW68147   0.846   7.754   7.686 -0.4669 -0.1488  0.7592
18808SOL    HW168148   0.775   7.816   7.704 -0.0035  0.8687 -0.7319
18808SOL    HW268149   0.924   7.808   7.679  0.0540 -0.9598  0.0210
18809SOL     OW68150   1.655   4.775   3.011 -0.4779  0.2070 -0.2359
18809SOL    HW168151   1.693   4.688   3.003  1.9211  1.3207 -2.9475
18809SOL    HW268152   1.572   4.770   2.965 -0.6798 -0.7881  0.2266
18810SOL     OW68153   6.404   4.042   4.259  0.8670  0.1616 -0.1625
18810SOL    HW168154   6.477   4.000   4.215  1.9663  1.3270  0.4853
18810SOL    HW268155   6.326   3.998   4.225  1.8095 -0.4282 -1.6046
18811SOL     OW68156   9.552   2.079   0.621 -0.3542  0.6208  0.5574
18811SOL    HW168157   9.583   2.168   0.606  2.0085 -0.5640 -2.5515
18811SOL    HW268158   9.618   2.039   0.678  1.7565 -0.6281 -2.5428
18812SOL     OW68159  11.015   6.879  10.186 -0.5499  0.5058 -0.3535
18812SOL    HW168160  11.040   6.917  10.102 -1.4361 -0.2268 -0.9618
18812SOL    HW268161  10.964   6.802  10.164 -0.4321  0.0531  0.8656
18813SOL     OW68162   1.558   7.878   6.396  0.0142  0.0808  0.0241
18813SOL    HW168163   1.587   7.964   6.426  3.2436 -0.0938 -2.1560
18813SOL    HW268164   1.636   7.837   6.360 -2.0158 -2.6184 -1.7103
18814SOL     OW68165   0.622   0.803   2.045  0.3995  0.3351 -0.3759
18814SOL    HW168166   0.603   0.749   2.121  0.6435  0.9445  0.1271
18814SOL    HW268167   0.536   0.834   2.015  0.1560 -1.1134 -1.2794
18815SOL     OW68168   2.259   4.430   0.414 -0.1606 -0.5907  0.6482
18815SOL    HW168169   2.204   4.358   0.446 -1.7307  0.4809  0.4549
18815SOL    HW268170   2.263   4.417   0.319  0.5652 -1.0742  0.7309
18816SOL     OW68171   4.894  11.649   5.039 -0.0856  0.1310  0.9620
18816SOL    HW168172   4.962  11.585   5.057 -0.7468 -1.0319 -0.4050
18816SOL    HW268173   4.940  11.723   4.999  0.3358 -0.9518 -0.6580
18817SOL     OW68174   6.996   4.712  11.868 -0.0639 -0.3441  0.4625
18817SOL    HW168175   6.938   4.699  11.944  0.6851 -0.9875  0.9438
18817SOL    HW268176   6.937   4.737  11.797 -0.6752  1.3931  1.5070
18818SOL     OW68177   4.512   8.273   8.523 -0.2525  0.3881 -0.7028
18818SOL    HW168178   4.476   8.356   8.493 -1.9025  0.7146  1.8527
18818SOL    HW268179   4.589   8.299   8.575 -0.8378  0.3842  0.1955
18819SOL     OW68180   9.131  10.348   4.799  0.4032  0.1798 -0.0376
18819SOL    HW168181   9.170  10.371   4.714 -1.0011  0.7082 -0.5613
18819SOL    HW268182   9.176  10.268   4.824  0.5389 -0.2462 -1.5087
18820SOL     OW68183  11.241   4.549   9.172 -0.0212 -0.3731 -0.1974
18820SOL    HW168184  11.189   4.488   9.224 -4.0177  4.2684  2.1061
18820SOL    HW268185  11.302   4.588   9.235  0.4017  0.0242 -0.8413
18821SOL     OW68186   6.441   0.474   0.849  0.1621  0.0120  0.3825
18821SOL    HW168187   6.365   0.526   0.875  0.8936  1.4900 -0.2594
18821SOL    HW268188   6.506   0.490   0.917  1.0609  1.5520 -0.7663
18822SOL     OW68189   9.562  10.715   5.912  0.1344  0.3653  0.4700
18822SOL    HW168190   9.609  10.694   5.992  1.5754  2.6177  0.2995
18822SOL    HW268191   9.619  10.686   5.841 -0.4803 -0.3069  0.2337
18823SOL     OW68192   4.651   0.178   9.223 -0.0132  0.6630  0.4108
18823SOL    HW168193   4.724   0.161   9.282 -0.2716 -0.3716  0.4572
18823SOL    HW268194   4.586   0.224   9.277 -0.6270 -1.0791  1.2225
18824SOL     OW68195   2.541   2.122   5.741 -0.4492 -0.3545  0.6255
18824SOL    HW168196   2.609   2.185   5.717 -0.3089  0.2203  2.4037
18824SOL    HW268197   2.520   2.077   5.659  0.3121  1.1581 -0.4395
18825SOL     OW68198   6.646   5.958   8.340  0.1412 -0.0969  0.5534
18825SOL    HW168199   6.716   5.894   8.329  0.6476  0.2434  1.5967
18825SOL    HW268200   6.691   6.043   8.343 -0.4828  0.2908 -0.4510
18826SOL     OW68201  10.969   2.801  11.778 -0.1193  0.1950  0.6350
18826SOL    HW168202  11.030   2.740  11.736  0.7742  2.0859 -0.9837
18826SOL    HW268203  10.885   2.784  11.735 -0.6796 -1.9052  2.3539
18827SOL     OW68204   5.413   9.773   1.052  0.0575 -0.0953 -0.2190
18827SOL    HW168205   5.508   9.768   1.044  0.0953  1.3455 -1.0530
18827SOL    HW268206   5.388   9.692   1.096  1.3982 -1.8318 -2.4481
18828SOL     OW68207   9.416   2.423  10.145 -0.2944  0.1039 -0.5068
18828SOL    HW168208   9.387   2.457  10.229 -0.7377  0.3102 -0.7337
18828SOL    HW268209   9.492   2.475  10.122 -0.7433  0.7018 -0.6728
18829SOL     OW68210   0.712   1.770  10.114 -0.8681 -0.9680 -0.7701
18829SOL    HW168211   0.765   1.753  10.035  0.3208  0.1230 -0.2408
18829SOL    HW268212   0.641   1.827  10.084  0.7006  1.1030 -0.7405
18830SOL     OW68213  10.046   2.234   9.904  0.3580 -0.3071 -0.0912
18830SOL    HW168214  10.060   2.140   9.916  0.3628 -0.2674  0.2230
18830SOL    HW268215  10.045   2.270   9.992  0.6459  0.0317 -0.2219
18831SOL     OW68216   9.478  10.850   0.767  0.3632 -0.0304  0.0696
18831SOL    HW168217   9.506  10.886   0.683  0.6413 -1.2022 -0.3652
18831SOL    HW268218   9.559  10.844   0.818  0.3910 -0.4195 -0.0161
18832SOL     OW68219   4.430   4.188   7.119 -0.1751  0.6596 -0.0081
18832SOL    HW168220   4.476   4.105   7.107 -1.1931  0.3408 -2.3936
18832SOL    HW268221   4.496   4.255   7.100  0.6883  0.4647  2.0711
18833SOL     OW68222   5.238   3.377   6.689  0.4975 -0.0327  0.3750
18833SOL    HW168223   5.163   3.416   6.735  1.0069  0.6798  0.6234
18833SOL    HW268224   5.199   3.308   6.635 -0.9245  2.6702 -2.3953
18834SOL     OW68225   6.179  10.271   0.676 -0.0543  0.0171  0.2718
18834SOL    HW168226   6.137  10.285   0.590 -0.7031  0.8523  0.7015
18834SOL    HW268227   6.150  10.184   0.702 -1.5914  0.5658  0.5532
18835SOL     OW68228   5.398   1.515  11.593  0.0617  0.0745 -0.5368
18835SOL    HW168229   5.464   1.453  11.564 -1.2477 -1.5581 -0.1958
18835SOL    HW268230   5.394   1.503  11.688 -0.2608  0.6395 -0.4724
18836SOL     OW68231  11.042  11.860   0.638  0.7823  0.1308 -0.7468
18836SOL    HW168232  11.097  11.898   0.569  2.3019 -0.2288  0.2282
18836SOL    HW268233  10.952  11.877   0.609  1.1853 -2.8418 -4.4641
18837SOL     OW68234  10.804   0.600  10.312  0.2189  0.0547 -0.1136
18837SOL    HW168235  10.875   0.582  10.250  0.4971 -1.4165  0.5993
18837SOL    HW268236  10.728   0.557  10.274  0.3869 -0.8407  0.5238
18838SOL     OW68237   8.169   1.217   6.492  0.1569 -0.5245  0.6674
18838SOL    HW168238   8.079   1.225   6.522  0.8023 -2.1955  3.4128
18838SOL    HW268239   8.174   1.129   6.455  0.7313 -0.5914  0.8893
18839SOL     OW68240   3.873   4.886  11.202 -0.1961 -0.5082  0.4946
18839SOL    HW168241   3.942   4.833  11.242 -0.6396  0.1486  2.2165
18839SOL    HW268242   3.795   4.868  11.254 -1.1219 -0.5184 -0.8411
18840SOL     OW68243   7.664   0.236   7.034 -0.1243  0.2198 -0.0715
18840SOL    HW168244   7.686   0.258   6.944 -1.0533  1.8328  0.0432
18840SOL    HW268245   7.708   0.153   7.051  0.8463  0.3676 -1.6957
18841SOL     OW68246  10.840   7.829   6.884 -0.3706  0.2958 -0.2298
18841SOL    HW168247  10.856   7.902   6.824 -0.6626  0.5285 -0.0289
18841SOL    HW268248  10.764   7.784   6.848 -0.3375  0.2336 -0.2224
18842SOL     OW68249  10.572   1.608   1.847 -0.5295  0.7272  0.2984
18842SOL    HW168250  10.657   1.580   1.814  0.1043  0.7571  1.8301
18842SOL    HW268251  10.513   1.536   1.826 -0.3606  1.0915 -1.6041
18843SOL     OW68252   8.350   1.836   1.570  0.1463  0.1519 -0.4715
18843SOL    HW168253   8.397   1.914   1.541 -0.2300  0.2046 -0.9525
18843SOL    HW268254   8.397   1.763   1.529  0.1702  0.1631 -0.4639
18844SOL     OW68255   6.130   6.656   5.066 -0.4727 -0.1096 -0.3627
18844SOL    HW168256   6.202   6.611   5.110  0.2046  2.2787  1.1509
18844SOL    HW268257   6.071   6.682   5.137 -0.6315  1.6582 -1.0834
18845SOL     OW68258   6.096   9.349   8.479 -0.1095 -0.6443  0.3078
18845SOL    HW168259   6.136   9.263   8.463  1.7440 -0.7836  4.2803
18845SOL    HW268260   6.137   9.407   8.415 -0.4232 -2.4085 -1.6186
18846SOL     OW68261   4.731   1.050  10.481 -0.0693  0.2524  0.2171
18846SOL    HW168262   4.709   1.133  10.524 -1.6686  0.5213 -1.0190
18846SOL    HW268263   4.818   1.066  10.443  0.4593  0.7026  1.5493
18847SOL     OW68264   4.906   3.002   6.135 -0.8623  0.4387 -0.0174
18847SOL    HW168265   4.885   3.096   6.138 -0.3982  0.5403  0.0399
18847SOL    HW268266   4.820   2.959   6.132 -1.1927  0.7595  2.4829
18848SOL     OW68267   6.528   1.337   2.748 -0.2741  0.0414 -0.4676
18848SOL    HW168268   6.623   1.324   2.755 -0.1487  0.3086 -1.5603
18848SOL    HW268269   6.517   1.431   2.735 -0.6158 -0.1037 -1.3086
18849SOL     OW68270   4.993   0.886   9.748 -0.2842 -0.4023  0.5324
18849SOL    HW168271   5.036   0.807   9.717 -0.0247  0.1259 -0.5171
18849SOL    HW268272   5.034   0.905   9.832  0.1159 -1.0033  0.4798
18850SOL     OW68273   2.728   3.974   3.780 -0.0159 -0.2679 -0.2309
18850SOL    HW168274   2.722   4.061   3.820 -0.2882 -0.1288 -0.5701
18850SOL    HW268275   2.669   3.920   3.832 -0.0125 -0.1983 -0.1543
18851SOL     OW68276   2.582   2.913   8.261  0.0777  0.5950 -0.4654
18851SOL    HW168277   2.540   2.961   8.332 -0.5950 -1.1022  0.3397
18851SOL    HW268278   2.519   2.845   8.237  2.1701 -1.9252  0.6666
18852SOL     OW68279   5.241  11.452   5.132  0.4682 -0.2583  0.1532
18852SOL    HW168280   5.205  11.539   5.116  0.0845 -0.1736  1.3807
18852SOL    HW268281   5.164  11.395   5.133  0.5007 -0.3001  1.3083
18853SOL     OW68282   7.617   3.030   0.864  0.4447 -0.1095  0.0809
18853SOL    HW168283   7.686   2.991   0.918 -0.1797  1.1863  1.8823
18853SOL    HW268284   7.664   3.085   0.801  1.0777  0.4830  1.0593
18854SOL     OW68285   5.449  11.018   6.569  0.3626  0.2767  0.8407
18854SOL    HW168286   5.536  11.022   6.608  0.8221 -0.0284 -0.1180
18854SOL    HW268287   5.462  11.046   6.478 -0.2182 -1.4497  0.1768
18855SOL     OW68288   1.636   6.066   0.309 -0.0788  0.0220  0.2006
18855SOL    HW168289   1.696   6.015   0.363 -0.1767  0.8255  1.0851
18855SOL    HW268290   1.549   6.049   0.345 -0.2335 -0.0196 -0.1804
18856SOL     OW68291  11.769   0.461   8.442  0.4966 -0.1222  0.2537
18856SOL    HW168292  11.680   0.441   8.468  1.0198 -0.8197  1.5575
18856SOL    HW268293  11.791   0.540   8.492  0.2970  0.6255 -0.7999
18857SOL     OW68294   3.628   2.353   6.272  0.4036 -0.2757 -0.2590
18857SOL    HW168295   3.665   2.430   6.230  0.8366 -0.3747 -0.0729
18857SOL    HW268296   3.552   2.385   6.319 -0.1192 -0.1737 -1.1613
18858SOL     OW68297   8.504   8.132   9.471  0.8023 -0.3216 -0.2474
18858SOL    HW168298   8.555   8.210   9.452  0.6487  0.0689  0.8967
18858SOL    HW268299   8.545   8.064   9.417 -0.1642  0.8789 -2.6386
18859SOL     OW68300  11.225   5.737   6.329  0.6038  0.4454  0.1219
18859SOL    HW168301  11.188   5.822   6.304  0.1389  0.0604 -0.5105
18859SOL    HW268302  11.263   5.753   6.416  0.6177  1.3255 -0.0351
18860SOL     OW68303   6.876   7.673   3.944  0.0760  0.1191 -0.4279
18860SOL    HW168304   6.891   7.693   3.852  1.8432  1.9641  0.1712
18860SOL    HW268305   6.886   7.758   3.988  2.4206 -1.1707  1.7799
18861SOL     OW68306   8.905   9.377   3.650  0.1812 -0.4059  0.2325
18861SOL    HW168307   8.955   9.304   3.686  0.5769  0.3051  1.1695
18861SOL    HW268308   8.928   9.452   3.705  2.2180  1.2232 -2.5631
18862SOL     OW68309  11.272   7.001   5.449 -0.0791  0.2966  0.1649
18862SOL    HW168310  11.273   6.986   5.354  0.1301 -0.7099  0.3109
18862SOL    HW268311  11.362   7.028   5.469  0.0632 -0.1701  0.1704
18863SOL     OW68312   6.201   4.832   5.609  0.5028 -0.3405 -0.4729
18863SOL    HW168313   6.224   4.787   5.690  0.3514  0.8455  0.2595
18863SOL    HW268314   6.202   4.764   5.542  0.1949 -1.4315  0.5982
18864SOL     OW68315   6.821   1.672   7.019  0.0261 -0.0546 -0.1622
18864SOL    HW168316   6.741   1.710   7.057 -0.0096  0.6325 -0.8979
18864SOL    HW268317   6.790   1.597   6.968  0.0135 -0.6426  0.6973
18865SOL     OW68318   3.714   2.611   6.746 -0.2702  0.0778  0.2960
18865SOL    HW168319   3.669   2.532   6.777  0.9979 -1.0216 -0.5285
18865SOL    HW268320   3.801   2.607   6.786  0.1885  0.4660 -0.6302
18866SOL     OW68321   8.677   3.363   5.026  0.1050 -0.5195 -0.3092
18866SOL    HW168322   8.662   3.385   5.118  1.8362  0.7267 -0.2819
18866SOL    HW268323   8.653   3.270   5.020  0.6884 -0.8575  1.5868
18867SOL     OW68324   7.640   2.400   0.686  0.2635  0.5903  0.1353
18867SOL    HW168325   7.625   2.355   0.770 -0.5599 -1.3861 -0.9915
18867SOL    HW268326   7.736   2.398   0.675  0.3842  0.9723  1.0762
18868SOL     OW68327   4.422   6.924   0.343  0.6883 -0.2738  0.5574
18868SOL    HW168328   4.472   6.848   0.314 -0.5742 -0.7479 -0.4355
18868SOL    HW268329   4.447   6.935   0.435  3.9221  0.5612 -0.2775
18869SOL     OW68330   6.233   5.706  10.718 -0.0452 -0.0684 -0.1807
18869SOL    HW168331   6.146   5.671  10.697  0.3718 -0.7324 -0.8832
18869SOL    HW268332   6.289   5.674  10.647  0.6401  0.9041 -0.0878
18870SOL     OW68333   6.885   8.468   9.010 -0.7327  0.0632  0.8151
18870SOL    HW168334   6.897   8.452   8.916  0.9633 -0.0308  1.0128
18870SOL    HW268335   6.794   8.444   9.027 -1.6673  1.8899 -1.1494
18871SOL     OW68336   5.194   6.837   5.674 -0.0797 -0.2453 -0.3095
18871SOL    HW168337   5.151   6.764   5.718 -2.0515  1.7158  1.2308
18871SOL    HW268338   5.122   6.885   5.632  1.1590  0.8583 -1.2453
18872SOL     OW68339   9.932   5.788   2.512  0.0161 -0.0562  0.4189
18872SOL    HW168340   9.957   5.698   2.535  0.8414  0.2883  0.8884
18872SOL    HW268341   9.941   5.837   2.593 -1.5523  0.2395  0.4488
18873SOL     OW68342   4.315   0.252   2.756  0.2033  0.0235 -0.0811
18873SOL    HW168343   4.298   0.211   2.841  0.8773 -0.0901  0.0056
18873SOL    HW268344   4.390   0.310   2.773 -1.4958  2.3143  0.1291
18874SOL     OW68345   5.908   7.471  10.315  0.2720  0.2818 -0.3366
18874SOL    HW168346   5.928   7.410  10.386  0.7450  0.3784 -0.3865
18874SOL    HW268347   5.985   7.468  10.258 -1.3307 -2.2749 -2.6396
18875SOL     OW68348   2.150  10.362   8.426  0.5554 -0.2894 -0.2675
18875SOL    HW168349   2.219  10.398   8.372  0.8101 -1.4545 -0.7521
18875SOL    HW268350   2.148  10.269   8.404 -1.7544 -0.1554 -0.9451
18876SOL     OW68351   8.292   9.645  11.518 -0.5736  0.2238 -0.4044
18876SOL    HW168352   8.246   9.630  11.435 -0.1872  0.6737 -0.7063
18876SOL    HW268353   8.381   9.614  11.502 -0.4105  0.6072 -0.2648
18877SOL     OW68354  10.287  10.387   8.902  0.0265  0.5863  0.0308
18877SOL    HW168355  10.251  10.476   8.906 -3.0185 -0.4737 -1.0174
18877SOL    HW268356  10.258  10.353   8.817  0.7805 -1.5364  0.5603
18878SOL     OW68357   4.813   6.195   3.560  0.4924 -0.1514  0.4382
18878SOL    HW168358   4.760   6.138   3.504  1.3170 -0.6500  0.1391
18878SOL    HW268359   4.801   6.160   3.648 -1.5747  1.2162  0.7840
18879SOL     OW68360   7.975   7.588   0.369  0.2116 -0.4518  0.0590
18879SOL    HW168361   7.963   7.601   0.463 -1.2673  0.6482 -0.2309
18879SOL    HW268362   7.950   7.497   0.354 -1.2698 -0.1596  0.5177
18880SOL     OW68363   4.599   9.030   3.912  0.2968 -0.0589  0.3423
18880SOL    HW168364   4.683   8.999   3.879  0.6111 -1.4689  2.2594
18880SOL    HW268365   4.558   8.952   3.950 -2.2465  0.4257 -1.1558
18881SOL     OW68366   2.729   4.706   0.516 -0.2590  0.3003  0.2230
18881SOL    HW168367   2.686   4.708   0.431 -0.8104 -0.6904  0.4763
18881SOL    HW268368   2.784   4.628   0.514 -0.1259  0.3761  0.7145
18882SOL     OW68369   4.576   2.898   5.182  0.5053 -0.3983 -0.3570
18882SOL    HW168370   4.647   2.960   5.197 -1.0550  1.4809 -0.3380
18882SOL    HW268371   4.568   2.851   5.265  1.2775 -0.1743 -0.1428
18883SOL     OW68372   1.255   5.061   2.545 -0.3899  0.8089 -0.4039
18883SOL    HW168373   1.192   5.133   2.541 -0.3689  0.7959 -1.0793
18883SOL    HW268374   1.340   5.104   2.535 -0.3274  0.7672 -0.0569
18884SOL     OW68375   8.290   7.296  11.549  0.2375  0.1344 -0.2890
18884SOL    HW168376   8.378   7.263  11.562  0.6224 -0.4764 -3.5545
18884SOL    HW268377   8.248   7.289  11.635  2.5154 -2.1088  0.7534
18885SOL     OW68378   8.540  10.347   0.296 -0.4396 -0.5269  0.3073
18885SOL    HW168379   8.463  10.296   0.271 -1.4805  1.1065  0.0335
18885SOL    HW268380   8.615  10.292   0.272 -1.5015 -2.3069  0.9259
18886SOL     OW68381   9.335   6.657   2.763  0.1283  0.0294  0.2301
18886SOL    HW168382   9.312   6.732   2.817 -3.6553 -1.2211  0.5952
18886SOL    HW268383   9.381   6.695   2.687 -0.2128  2.4809  1.1771
18887SOL     OW68384   8.728   0.098   6.770 -0.3082 -0.6169  0.2236
18887SOL    HW168385   8.643   0.070   6.805 -0.4730 -0.9740 -0.4485
18887SOL    HW268386   8.789   0.085   6.843 -0.6239 -1.4496  0.3479
18888SOL     OW68387   3.495  10.635  10.718  0.3300 -0.6782  0.0047
18888SOL    HW168388   3.556  10.662  10.787 -1.3748  1.9620  0.5991
18888SOL    HW268389   3.545  10.645  10.637  0.6434  1.8601  0.4431
18889SOL     OW68390   3.219   8.692  11.361 -0.0051  0.2164 -0.1921
18889SOL    HW168391   3.288   8.755  11.338 -1.5444  2.5376  1.1645
18889SOL    HW268392   3.159   8.741  11.417 -0.9520 -2.7027  1.5821
18890SOL     OW68393   7.082   7.294   8.218 -0.4832 -0.5093  0.2122
18890SOL    HW168394   7.005   7.318   8.268 -1.1540 -1.5955 -0.2465
18890SOL    HW268395   7.097   7.202   8.240  1.5267  0.0255  1.3495
18891SOL     OW68396   5.816   3.755   3.519  0.5361  0.2850 -0.8936
18891SOL    HW168397   5.898   3.794   3.489  1.1238 -0.1096  0.1356
18891SOL    HW268398   5.780   3.819   3.580  2.1818 -1.1838  1.8789
18892SOL     OW68399   7.487  11.689   0.135 -0.2907  0.0809  0.1990
18892SOL    HW168400   7.429  11.763   0.151 -0.7142 -0.3830  0.8371
18892SOL    HW268401   7.467  11.627   0.205  1.5479  0.2611  0.9573
18893SOL     OW68402   6.595   5.495   1.744 -0.2407 -0.0897 -0.6375
18893SOL    HW168403   6.583   5.414   1.794 -1.1004  0.2144 -0.3306
18893SOL    HW268404   6.598   5.564   1.811 -1.2320  0.3052 -0.9720
18894SOL     OW68405   8.180   9.731  10.775 -0.5053 -0.1312  0.5248
18894SOL    HW168406   8.253   9.693  10.823 -0.4883 -1.4927 -0.5114
18894SOL    HW268407   8.150   9.804  10.830  1.8640  0.7314  0.7875
18895SOL     OW68408   7.138   3.677   2.344 -0.5810  0.1323 -0.4060
18895SOL    HW168409   7.161   3.633   2.262  1.3820  0.8988 -0.3208
18895SOL    HW268410   7.137   3.607   2.410 -0.1709 -0.1816 -0.7353
18896SOL     OW68411  10.070   0.748   7.904  0.3751  0.2061 -0.0410
18896SOL    HW168412  10.002   0.784   7.961 -0.4560  0.1669 -0.9769
18896SOL    HW268413  10.087   0.816   7.840  0.8106 -0.0071 -0.1574
18897SOL     OW68414   4.331   8.132   2.317 -0.5247  0.2536 -0.3542
18897SOL    HW168415   4.377   8.059   2.358  0.1897  0.1730 -1.2860
18897SOL    HW268416   4.247   8.096   2.291 -0.6355  0.0779  0.2188
18898SOL     OW68417   7.710  11.379   8.739  0.5102 -0.2278  0.3777
18898SOL    HW168418   7.638  11.331   8.697  0.1134  0.1062  0.6745
18898SOL    HW268419   7.716  11.461   8.689 -0.4474  0.4964  1.4056
18899SOL     OW68420  11.655   7.698   6.617  1.0471  0.6042 -0.2802
18899SOL    HW168421  11.745   7.730   6.610  1.2248  0.1084 -0.2913
18899SOL    HW268422  11.601   7.774   6.595  1.4559 -0.1709 -5.0723
18900SOL     OW68423   0.570   3.717   7.801 -0.0141  0.6437 -0.0742
18900SOL    HW168424   0.664   3.734   7.799 -0.0995  1.2171  0.6049
18900SOL    HW268425   0.539   3.744   7.714  0.6030 -0.5857 -0.7069
18901SOL     OW68426   6.317  10.569   1.277  0.4227 -0.5099  0.2335
18901SOL    HW168427   6.408  10.577   1.248  0.9903  2.4872  2.3167
18901SOL    HW268428   6.323  10.537   1.367 -0.6286 -0.8667  0.1910
18902SOL     OW68429  10.320   2.356  11.457 -0.3613  0.1500 -0.0688
18902SOL    HW168430  10.264   2.290  11.418 -0.0114  0.4857 -1.1776
18902SOL    HW268431  10.266   2.397  11.525 -0.8135 -0.7680  0.1431
18903SOL     OW68432   7.160  11.146   1.663 -0.0908 -0.1184  0.0261
18903SOL    HW168433   7.104  11.215   1.627 -0.9764  0.7642  2.8071
18903SOL    HW268434   7.113  11.064   1.643 -0.7146  0.3548 -0.4895
18904SOL     OW68435   3.980   1.782   0.041  0.6827 -0.0919  0.5117
18904SOL    HW168436   4.038   1.732  -0.016 -0.9976 -0.6889 -0.7584
18904SOL    HW268437   3.946   1.852  -0.014 -1.9229 -1.3884  0.2913
18905SOL     OW68438   0.130  10.265   6.650  0.1683  0.6414 -0.2859
18905SOL    HW168439   0.164  10.349   6.681 -0.5189  1.5018 -1.7667
18905SOL    HW268440   0.103  10.219   6.729  1.6800  1.3047  0.6448
18906SOL     OW68441   6.061   8.757  11.717  0.2882 -0.1942  0.5032
18906SOL    HW168442   6.055   8.770  11.623  1.0272 -1.0232  0.3345
18906SOL    HW268443   6.067   8.846  11.753  0.6284  0.1075 -0.2719
18907SOL     OW68444   3.902   5.559   3.077  0.3133 -0.4526  0.5012
18907SOL    HW168445   3.869   5.640   3.116  0.2030  0.5335 -1.5248
18907SOL    HW268446   3.996   5.573   3.068  0.1798 -0.1646 -0.6270
18908SOL     OW68447   4.825   7.383   9.376 -0.0508 -0.1899 -0.5309
18908SOL    HW168448   4.893   7.336   9.424 -1.8485 -2.7422 -0.2941
18908SOL    HW268449   4.803   7.326   9.303 -2.9197 -0.2009  0.2245
18909SOL     OW68450   6.285  11.257   3.612  0.4084  0.2142 -0.1936
18909SOL    HW168451   6.308  11.165   3.627 -0.3608 -0.1129 -0.8721
18909SOL    HW268452   6.367  11.305   3.621  0.8845 -0.5878 -0.1753
18910SOL     OW68453   1.792   3.159   8.612  0.2817  0.4125 -0.2828
18910SOL    HW168454   1.849   3.231   8.585  0.0470  1.5317  1.9464
18910SOL    HW268455   1.708   3.200   8.630 -0.1512 -0.5854  0.0342
18911SOL     OW68456  10.666  10.822   6.827  0.3575  0.6386 -0.0349
18911SOL    HW168457  10.593  10.764   6.848  0.4608 -0.4500 -2.3546
18911SOL    HW268458  10.684  10.869   6.908 -0.8557 -1.3540  1.4700
18912SOL     OW68459   5.748   4.202  10.976 -0.6794 -0.3986  0.7663
18912SOL    HW168460   5.791   4.137  11.031 -0.2640 -1.2706 -0.5457
18912SOL    HW268461   5.660   4.211  11.014 -1.2220 -2.7457  0.2319
18913SOL     OW68462  10.698   3.357  11.208  0.0811 -0.2414  0.7237
18913SOL    HW168463  10.772   3.301  11.229  1.8225  2.0427  1.0766
18913SOL    HW268464  10.664   3.384  11.294  1.1017  1.4751  0.6248
18914SOL     OW68465   9.981   6.514  11.620 -0.2604 -0.1157  0.3795
18914SOL    HW168466  10.016   6.445  11.675  0.5768 -0.4149 -0.4919
18914SOL    HW268467   9.918   6.560  11.675  0.5536 -0.3989  1.5640
18915SOL     OW68468   7.442   9.051  11.488  0.3057 -0.5937  0.0599
18915SOL    HW168469   7.508   9.037  11.555  0.0755 -0.4797  0.3131
18915SOL    HW268470   7.488   9.038  11.405  0.2980 -1.9910  0.2561
18916SOL     OW68471   9.398   4.673   1.934 -0.8212 -0.0586 -0.2921
18916SOL    HW168472   9.406   4.644   2.025 -1.0358  0.7352 -0.0050
18916SOL    HW268473   9.304   4.683   1.920 -0.8560 -1.2552 -0.9640
18917SOL     OW68474   4.949   5.226   6.290 -0.2612  0.2355  0.3625
18917SOL    HW168475   4.980   5.147   6.336  0.5396  1.2225  1.5723
18917SOL    HW268476   4.869   5.197   6.246  1.2697 -1.8877 -1.2570
18918SOL     OW68477   2.121   2.646   7.470 -0.4455 -0.1700  0.7410
18918SOL    HW168478   2.181   2.701   7.521  0.8405 -0.7169 -0.1318
18918SOL    HW268479   2.042   2.642   7.523 -0.3727  2.0211  1.1140
18919SOL     OW68480  11.085  11.052   7.048  0.0698  0.2418  0.1267
18919SOL    HW168481  11.081  11.065   6.953 -0.8089 -1.3908 -0.0998
18919SOL    HW268482  11.001  11.086   7.080 -0.4269 -0.8851  0.0618
18920SOL     OW68483   5.289  11.286  10.406  0.1453  0.0746 -0.3640
18920SOL    HW168484   5.232  11.215  10.438  0.5899 -0.2731 -0.3401
18920SOL    HW268485   5.346  11.244  10.342  0.2573  0.4646 -0.5229
18921SOL     OW68486  10.257   2.437   2.764 -0.0526  0.0376  0.5389
18921SOL    HW168487  10.228   2.441   2.672  0.5524  1.0274  0.3713
18921SOL    HW268488  10.339   2.487   2.765  0.1450 -0.2936  1.5496
18922SOL     OW68489   0.389   2.261  10.018 -0.3733 -0.1321  0.6336
18922SOL    HW168490   0.330   2.219  10.081 -0.4329 -0.6614  0.2266
18922SOL    HW268491   0.379   2.354  10.036 -0.8258 -0.2466  1.0233
18923SOL     OW68492   2.570  10.517   3.448  0.3381 -0.2455 -0.0263
18923SOL    HW168493   2.506  10.568   3.497 -1.6112 -1.4229 -1.1815
18923SOL    HW268494   2.638  10.496   3.512 -0.0453  1.6447  1.0815
18924SOL     OW68495  10.648   3.601   8.858  0.4610 -0.1212 -0.1900
18924SOL    HW168496  10.731   3.633   8.821  1.8156  0.5624  3.1470
18924SOL    HW268497  10.669   3.514   8.890 -0.5521 -0.5133 -0.5688
18925SOL     OW68498   2.405   3.850  11.840 -0.4247 -0.1103  0.1366
18925SOL    HW168499   2.405   3.867  11.935  0.1534  0.7903 -0.0122
18925SOL    HW268500   2.437   3.760  11.832  1.3575  0.4376  0.7143
18926SOL     OW68501   7.936   3.740   1.572  0.2040  0.6597 -0.1549
18926SOL    HW168502   7.866   3.687   1.611 -2.1392  1.0733 -3.4461
18926SOL    HW268503   8.003   3.676   1.548 -0.3420 -0.1341  0.3733
18927SOL     OW68504   3.981   1.076   1.863 -0.5080 -0.5019 -0.2945
18927SOL    HW168505   3.921   1.017   1.816  0.5025 -1.5729 -0.2854
18927SOL    HW268506   3.957   1.163   1.832 -3.9416 -0.5378  1.7258
18928SOL     OW68507   8.234   1.597   6.098 -0.1866 -0.0352  0.2594
18928SOL    HW168508   8.268   1.675   6.056  1.7493 -0.0374  1.6949
18928SOL    HW268509   8.311   1.544   6.119 -1.3963 -2.0820 -0.1382
18929SOL     OW68510   5.322   1.608   2.251 -0.3583  0.5388 -0.0143
18929SOL    HW168511   5.281   1.610   2.164 -0.2785 -3.2465 -0.2795
18929SOL    HW268512   5.414   1.588   2.234 -0.2781  0.0817  0.9182
18930SOL     OW68513   1.163   2.598   2.090 -0.2882 -0.3234  0.3162
18930SOL    HW168514   1.074   2.619   2.115  0.0103 -0.5290  1.6407
18930SOL    HW268515   1.218   2.647   2.152  0.5120 -0.2799 -0.4090
18931SOL     OW68516   7.506   1.287   5.954 -0.2831 -0.7105 -0.5559
18931SOL    HW168517   7.466   1.348   6.016  0.4338 -1.0563  0.2664
18931SOL    HW268518   7.437   1.267   5.891 -1.1105 -0.5647  0.2920
18932SOL     OW68519   6.178  11.863   8.638  0.0890 -0.1768  0.3188
18932SOL    HW168520   6.158  11.802   8.709  0.5160 -1.1028 -0.3488
18932SOL    HW268521   6.247  11.919   8.673  0.5635 -0.8753  0.4997
18933SOL     OW68522   1.038   5.828   7.962  0.3745  0.0331 -0.2423
18933SOL    HW168523   1.007   5.825   7.871  0.2656  0.5433 -0.2264
18933SOL    HW268524   1.128   5.798   7.957  0.2795 -0.2182 -0.4800
18934SOL     OW68525   4.780   7.587  10.348 -0.6872  0.5334  0.2058
18934SOL    HW168526   4.703   7.538  10.376 -1.5700  1.0444 -1.2014
18934SOL    HW268527   4.832   7.523  10.298 -1.9082  0.9909 -1.7521
18935SOL     OW68528  10.613  11.431  11.191  0.1094 -0.2982  0.1093
18935SOL    HW168529  10.646  11.357  11.242 -0.8193 -0.4525  0.5009
18935SOL    HW268530  10.518  11.417  11.187  0.0031  0.5140 -0.3876
18936SOL     OW68531   9.188   6.518   8.572 -0.5592 -0.0289  0.4811
18936SOL    HW168532   9.158   6.536   8.661 -0.5083 -1.0872  0.7199
18936SOL    HW268533   9.127   6.452   8.538  0.1451 -0.5297  0.1674
18937SOL     OW68534   0.276   3.135   1.013 -0.1544  0.7498  0.2037
18937SOL    HW168535   0.221   3.213   1.004 -0.1955  0.8839  1.4097
18937SOL    HW268536   0.235   3.071   0.955 -1.1976  1.0613  0.5637
18938SOL     OW68537   7.073   3.983  11.248 -0.1945 -0.3148 -0.7380
18938SOL    HW168538   7.033   4.025  11.172  1.1569  0.8372 -0.8575
18938SOL    HW268539   7.167   4.001  11.238  0.2349 -1.8171  0.1885
18939SOL     OW68540   9.546   3.752   0.580  0.2313  0.0136 -0.0757
18939SOL    HW168541   9.617   3.802   0.540 -0.5824  0.1808 -1.3366
18939SOL    HW268542   9.590   3.696   0.645  1.6142 -0.4120 -1.3305
18940SOL     OW68543   0.716   9.618  10.856 -0.5249 -0.2580 -0.1076
18940SOL    HW168544   0.696   9.691  10.798 -1.9574 -0.6595 -0.1604
18940SOL    HW268545   0.702   9.652  10.944 -1.5976 -0.5574 -0.1470
18941SOL     OW68546   7.625   5.304   4.042  0.1871  0.3052  0.1202
18941SOL    HW168547   7.589   5.219   4.068 -1.0312  0.6243 -0.4196
18941SOL    HW268548   7.697   5.283   3.983  2.7368 -0.4227  3.2269
18942SOL     OW68549   5.060   2.706   7.049  0.1274  0.7259 -0.6772
18942SOL    HW168550   5.021   2.696   7.136 -0.3325  0.3197 -0.9296
18942SOL    HW268551   5.136   2.763   7.064  1.8880 -1.7683  0.5312
18943SOL     OW68552   0.295   8.972   8.202 -0.1666 -0.0878 -0.7044
18943SOL    HW168553   0.275   8.943   8.291  2.2959 -1.7247 -0.5585
18943SOL    HW268554   0.307   9.066   8.209 -0.1682 -0.1695  0.6772
18944SOL     OW68555   4.897   5.456  11.267  0.4336 -0.3019 -0.3294
18944SOL    HW168556   4.965   5.520  11.290  0.4354 -0.4929  0.2371
18944SOL    HW268557   4.937   5.403  11.198  1.0117 -0.6411  0.2496
18945SOL     OW68558  10.528   1.093   4.894 -0.2689  0.1691 -0.9009
18945SOL    HW168559  10.482   1.116   4.974 -2.0572 -1.5874 -1.3310
18945SOL    HW268560  10.543   0.999   4.901  2.3098  0.4543 -1.3368
18946SOL     OW68561  10.269   8.233   6.224  0.5734 -0.4474  0.1554
18946SOL    HW168562  10.274   8.220   6.319  0.7169  2.1594  0.5530
18946SOL    HW268563  10.297   8.148   6.187 -1.9077 -2.3794  2.3564
18947SOL     OW68564  10.888   1.776   5.408 -0.5479  0.6219 -0.1158
18947SOL    HW168565  10.885   1.768   5.503 -1.0472  0.6990 -0.1203
18947SOL    HW268566  10.926   1.693   5.378  2.2889  1.6703  0.2893
18948SOL     OW68567   3.544   8.707   0.708 -0.6380  0.0235  0.1015
18948SOL    HW168568   3.511   8.617   0.704 -0.3224 -0.1257  0.7411
18948SOL    HW268569   3.476   8.755   0.755 -0.4566 -0.0505  0.4448
18949SOL     OW68570   8.060   0.072   9.264 -0.6743  0.2871  0.1263
18949SOL    HW168571   8.015  -0.011   9.279 -0.4032  0.1630  0.2623
18949SOL    HW268572   8.106   0.090   9.347 -0.5070  0.4330  0.0034
18950SOL     OW68573   7.023   3.475   7.635  0.1336  0.6491  0.3295
18950SOL    HW168574   7.107   3.440   7.667 -0.5990 -0.7326  0.8052
18950SOL    HW268575   7.032   3.570   7.645  1.2464  0.4675  1.3971
18951SOL     OW68576   5.026  11.478   6.454 -0.7258  0.3292  0.6447
18951SOL    HW168577   5.003  11.556   6.404 -1.2064 -0.4170 -0.3225
18951SOL    HW268578   5.117  11.460   6.430 -0.4762  0.8118  1.1890
18952SOL     OW68579   6.981  10.456   2.489 -0.4750 -0.1705 -0.4105
18952SOL    HW168580   6.973  10.375   2.541  0.6506  0.3970  0.6966
18952SOL    HW268581   6.905  10.508   2.516 -0.0454  0.0073  0.4813
18953SOL     OW68582   0.048   2.068   8.859  0.2165  0.0286 -0.1930
18953SOL    HW168583  -0.047   2.064   8.874  0.0341  1.6601 -0.7693
18953SOL    HW268584   0.060   2.142   8.799  1.8929  0.0583  0.1360
18954SOL     OW68585   7.877   6.566   8.903  0.5535  0.5370 -0.7024
18954SOL    HW168586   7.948   6.590   8.963  0.1870  0.2881 -0.1656
18954SOL    HW268587   7.834   6.649   8.883 -0.1712  0.4622  0.4659
18955SOL     OW68588   6.435   9.523   0.018  0.5181  0.2033 -0.0555
18955SOL    HW168589   6.456   9.469  -0.057  1.1655  0.2056  0.1215
18955SOL    HW268590   6.438   9.463   0.093  4.6960  1.0412  0.6653
18956SOL     OW68591   2.883   4.386  11.090 -0.4609  0.0052  0.2496
18956SOL    HW168592   2.930   4.316  11.042 -0.9693  1.5356 -2.7201
18956SOL    HW268593   2.791   4.361  11.084 -0.6394  0.8544 -0.7771
18957SOL     OW68594   0.105   0.751   4.526  0.3296 -0.5005  0.1748
18957SOL    HW168595   0.181   0.793   4.565  0.1479  1.1204 -1.1271
18957SOL    HW268596   0.031   0.809   4.545 -0.4280 -1.5442  0.5547
18958SOL     OW68597  10.344   5.175  10.290 -0.5633  0.1476 -0.5331
18958SOL    HW168598  10.345   5.080  10.297  0.7620  0.1934  0.1629
18958SOL    HW268599  10.271   5.194  10.231  0.3407 -1.3981 -2.2669
18959SOL     OW68600   8.340   8.915   3.126 -0.2323 -0.5934  0.4103
18959SOL    HW168601   8.246   8.915   3.147 -0.6144  0.9478 -1.0891
18959SOL    HW268602   8.343   8.921   3.031  1.3976  0.0307  0.4808
18960SOL     OW68603   3.175   8.470   5.158  0.1597 -0.1444 -0.6146
18960SOL    HW168604   3.239   8.447   5.225  1.1546  0.8527 -1.1803
18960SOL    HW268605   3.207   8.429   5.078 -0.8035 -0.9941 -0.5878
18961SOL     OW68606   9.899   1.724   8.421 -0.4943 -0.0908 -0.3688
18961SOL    HW168607   9.911   1.671   8.500 -1.9844  1.1217  0.7177
18961SOL    HW268608   9.975   1.782   8.420 -2.0777  2.2416  2.1496
18962SOL     OW68609   8.052   7.608   8.269  0.4409 -0.1692 -0.2382
18962SOL    HW168610   8.004   7.652   8.339  0.3078 -0.1098 -0.3666
18962SOL    HW268611   8.100   7.678   8.225  0.7238 -0.2405 -0.0505
18963SOL     OW68612   6.520   0.733   6.978  0.4615  0.1981 -0.0541
18963SOL    HW168613   6.591   0.689   7.025  0.8424 -1.2426 -1.8814
18963SOL    HW268614   6.471   0.662   6.937 -2.0584  1.1454  1.0778
18964SOL     OW68615   2.040   2.746   1.878 -0.3761 -0.0939  0.3292
18964SOL    HW168616   1.991   2.698   1.945 -0.3911 -0.9149 -0.2494
18964SOL    HW268617   1.975   2.763   1.810 -0.1532 -0.0603  0.1278
18965SOL     OW68618   6.982   1.668   2.194  0.4770  0.0339  0.1061
18965SOL    HW168619   6.981   1.708   2.106  1.2735 -0.1075  0.0247
18965SOL    HW268620   6.890   1.666   2.220  0.2412  0.1871 -0.6785
18966SOL     OW68621   2.087   9.950   3.938 -0.3839  0.1658  0.2327
18966SOL    HW168622   2.107  10.043   3.942  1.2899 -0.1959  1.8582
18966SOL    HW268623   2.153   9.915   3.877 -0.4082 -0.0851  0.3498
18967SOL     OW68624   7.511  11.248   8.147  0.1721 -0.4644  0.3122
18967SOL    HW168625   7.606  11.237   8.147  0.2358 -0.2137 -1.0923
18967SOL    HW268626   7.495  11.321   8.207  1.0077  0.3379 -0.4041
18968SOL     OW68627  10.790   5.568   5.475 -0.9038  0.1413 -0.4213
18968SOL    HW168628  10.759   5.636   5.415 -1.8432  0.9119  0.8799
18968SOL    HW268629  10.777   5.605   5.562  1.1231 -0.6465  0.2731
18969SOL     OW68630   6.998   3.017   3.425  0.3700 -0.1329  0.0051
18969SOL    HW168631   7.055   2.941   3.434  0.3444 -0.4022 -1.7478
18969SOL    HW268632   7.039   3.084   3.481  2.7854 -0.1362 -1.5781
18970SOL     OW68633   6.277   3.181   3.970 -0.3093 -0.1074  0.0109
18970SOL    HW168634   6.287   3.191   4.064 -1.5142 -0.2582  0.1707
18970SOL    HW268635   6.183   3.178   3.956 -0.1481 -0.0434 -1.2076
18971SOL     OW68636   3.472  10.742   2.876 -0.0217  0.3525  0.4780
18971SOL    HW168637   3.457  10.701   2.791  0.5675  1.6264 -0.2594
18971SOL    HW268638   3.558  10.709   2.903 -0.3740 -0.3501  0.7781
18972SOL     OW68639   0.608   4.211   7.285  0.4330 -0.2229 -0.1480
18972SOL    HW168640   0.539   4.274   7.301 -0.1479 -0.6884 -0.7331
18972SOL    HW268641   0.586   4.173   7.199  0.8708 -1.0684  0.0998
18973SOL     OW68642   2.699   8.098  10.872 -0.0882  0.0300 -0.0528
18973SOL    HW168643   2.658   8.184  10.867  0.8771  0.5555  0.7076
18973SOL    HW268644   2.792   8.114  10.854  0.0605 -0.8852 -0.1510
18974SOL     OW68645   4.880   2.228   6.630  0.1834 -0.1785 -0.4466
18974SOL    HW168646   4.973   2.249   6.617  0.5957 -0.8840  1.1114
18974SOL    HW268647   4.839   2.313   6.649  0.7955 -0.0454  0.3196
18975SOL     OW68648   2.316   2.320   6.205 -0.2760 -0.2720  0.1354
18975SOL    HW168649   2.274   2.294   6.123  1.3031  1.3665 -1.2837
18975SOL    HW268650   2.393   2.370   6.177  0.3443  0.2836  2.6380
18976SOL     OW68651   6.093   8.812  11.459  0.7032  0.0186  0.0920
18976SOL    HW168652   6.093   8.898  11.417 -2.9443  0.5040  0.7142
18976SOL    HW268653   6.064   8.751  11.391 -0.0191 -0.1075  0.4985
18977SOL     OW68654   4.948   6.922   9.977 -0.2573  0.5478  0.1754
18977SOL    HW168655   4.970   7.015   9.985 -2.7528  1.3426 -1.1233
18977SOL    HW268656   4.882   6.908  10.045  1.0513 -0.6630  1.2411
18978SOL     OW68657   6.605   3.597   8.385 -0.3774  0.4150  0.1332
18978SOL    HW168658   6.569   3.673   8.339 -2.6680  1.2282  3.0145
18978SOL    HW268659   6.547   3.525   8.361 -0.4998  0.4448  0.3347
18979SOL     OW68660   1.709   9.183   4.713 -0.2147  0.9698  0.0694
18979SOL    HW168661   1.695   9.262   4.662 -1.1276  0.7234 -0.0787
18979SOL    HW268662   1.625   9.168   4.757 -0.0127  0.1516  0.1893
18980SOL     OW68663   4.687   8.951   5.467 -0.8484 -0.6906 -0.2754
18980SOL    HW168664   4.626   8.892   5.423 -0.0730 -0.2415 -2.0325
18980SOL    HW268665   4.767   8.946   5.415 -0.5815  1.4667 -0.1596
18981SOL     OW68666   2.395   6.403   0.818 -0.2588  0.0368  0.6794
18981SOL    HW168667   2.342   6.430   0.742 -0.4937  1.3894  1.2936
18981SOL    HW268668   2.483   6.389   0.782 -1.0092 -2.4810 -0.3993
18982SOL     OW68669  10.551   8.016   9.904  0.0252 -0.8684  0.4855
18982SOL    HW168670  10.530   7.942   9.848 -0.9404  0.4323 -0.9779
18982SOL    HW268671  10.471   8.069   9.905  1.2641  1.1270 -0.1670
18983SOL     OW68672   4.795  10.018   1.297 -0.9394 -0.1620  0.4996
18983SOL    HW168673   4.784  10.099   1.247 -1.4786  1.2813  2.7992
18983SOL    HW268674   4.798   9.949   1.231  3.1473  1.9479 -1.9136
18984SOL     OW68675   8.779   4.562   9.715  0.3919 -0.2059  0.6060
18984SOL    HW168676   8.816   4.572   9.628  0.2535 -0.9491  0.4601
18984SOL    HW268677   8.839   4.502   9.760  0.0478 -0.4217  0.7796
18985SOL     OW68678   9.238   5.652   6.739 -0.3528 -0.6704  0.4576
18985SOL    HW168679   9.253   5.558   6.754  0.0344 -0.6121  0.4346
18985SOL    HW268680   9.222   5.687   6.826  0.3713 -0.6064  0.5733
18986SOL     OW68681   7.590   5.848   1.313  0.3974 -0.3844  0.3290
18986SOL    HW168682   7.578   5.754   1.297 -2.3037  0.0488 -0.7862
18986SOL    HW268683   7.512   5.873   1.362 -0.7703  1.8363 -2.3687
18987SOL     OW68684   4.312  11.339   2.483  0.1949  0.4630 -0.1790
18987SOL    HW168685   4.244  11.391   2.440  1.3440  0.5977 -1.9291
18987SOL    HW268686   4.371  11.405   2.521  0.7954  0.4212 -1.0221
18988SOL     OW68687  11.057   2.516  10.921  0.2289 -0.0914  0.3138
18988SOL    HW168688  11.004   2.442  10.949  1.3675 -0.6059  1.2202
18988SOL    HW268689  11.147   2.492  10.945  0.8870  0.7530 -1.1395
18989SOL     OW68690  10.353   3.899   2.813  0.2898  0.2044 -0.3854
18989SOL    HW168691  10.323   3.989   2.830  3.2366  1.2446 -0.0042
18989SOL    HW268692  10.293   3.844   2.863  0.2170  2.2292  2.0002
18990SOL     OW68693   8.060   4.185  11.136  0.6188  0.4451 -0.2393
18990SOL    HW168694   8.070   4.169  11.230  1.7377  0.9542 -0.2463
18990SOL    HW268695   8.042   4.279  11.130 -0.0445  0.3036 -0.5066
18991SOL     OW68696   9.229   2.798   5.594 -0.6834  0.1329 -0.3709
18991SOL    HW168697   9.281   2.760   5.664 -0.3973  2.2662  0.6460
18991SOL    HW268698   9.162   2.732   5.575 -1.1980 -0.2351  2.3811
18992SOL     OW68699   5.892   9.340   0.790  0.0464 -0.4382 -0.4999
18992SOL    HW168700   5.872   9.383   0.707  1.7294  0.7791 -0.3295
18992SOL    HW268701   5.971   9.384   0.821  0.2601 -1.8303  1.0634
18993SOL     OW68702  11.014   7.053   7.773  0.2050 -0.4754 -0.7323
18993SOL    HW168703  11.081   7.030   7.708 -2.4478  1.0109 -4.3411
18993SOL    HW268704  10.941   6.995   7.753 -0.7852  0.1741  0.8501
18994SOL     OW68705   6.222  11.126   2.264 -0.3358  0.3494  0.1939
18994SOL    HW168706   6.201  11.038   2.297 -0.8718  0.6549  0.6758
18994SOL    HW268707   6.301  11.113   2.210 -0.7040 -0.5094 -0.1560
18995SOL     OW68708   6.061   6.119   3.397 -0.2743  0.1842  0.2479
18995SOL    HW168709   5.994   6.072   3.347 -0.1447  0.6747 -0.4011
18995SOL    HW268710   6.041   6.211   3.381 -1.1112  0.3966  2.2716
18996SOL     OW68711   6.928   2.575  11.768 -0.2676  0.2140  0.5702
18996SOL    HW168712   6.886   2.586  11.683 -0.0799 -0.1919  0.4186
18996SOL    HW268713   7.004   2.519  11.750 -0.2525  0.0845  1.0094
18997SOL     OW68714   2.201  11.083   3.790 -0.6796  0.1002 -0.4018
18997SOL    HW168715   2.151  11.127   3.859  0.5177 -0.4291  0.8426
18997SOL    HW268716   2.147  11.008   3.767 -0.5464 -0.4167  0.8614
18998SOL     OW68717   5.306   3.217   5.557 -0.2015  0.7894  0.1035
18998SOL    HW168718   5.369   3.175   5.499  1.2071  2.8387  0.0649
18998SOL    HW268719   5.239   3.150   5.572  1.8508 -1.4165 -0.0253
18999SOL     OW68720  11.665   7.325   1.392  0.1498 -0.0891 -0.3503
18999SOL    HW168721  11.642   7.275   1.314  0.7261 -1.6506  0.4180
18999SOL    HW268722  11.588   7.317   1.449 -0.8186  2.1918 -1.2317
19000SOL     OW68723   0.417   2.267   7.984 -0.1635  0.0632  0.0857
19000SOL    HW168724   0.415   2.189   8.039 -2.9032 -0.3661 -0.5026
19000SOL    HW268725   0.392   2.237   7.897 -0.9152  1.5193 -0.2412
19001SOL     OW68726   5.037  11.738   2.478 -0.2598  0.5683  0.3499
19001SOL    HW168727   5.091  11.697   2.546  0.1789  1.6253  0.6502
19001SOL    HW268728   5.056  11.831   2.484 -3.4516  1.2705  1.6930
19002SOL     OW68729   8.019   8.154   0.541  0.2219  0.3602  0.5032
19002SOL    HW168730   7.993   8.064   0.561 -0.2508  0.8343  2.2675
19002SOL    HW268731   8.114   8.154   0.552  0.4547 -0.3073 -1.2929
19003SOL     OW68732   0.720   9.877   5.172  0.2086 -0.1066 -0.2549
19003SOL    HW168733   0.744   9.824   5.248  0.3347 -0.6971 -0.6928
19003SOL    HW268734   0.762   9.832   5.098 -2.2576 -1.2411 -1.0799
19004SOL     OW68735   5.770   0.253   8.241 -0.3999  0.1824 -0.1393
19004SOL    HW168736   5.732   0.298   8.317 -2.4143 -0.1742 -0.8665
19004SOL    HW268737   5.793   0.324   8.181 -2.1570  0.3895 -0.6456
19005SOL     OW68738   0.410   6.889   5.517  0.4235 -0.0550 -0.2050
19005SOL    HW168739   0.444   6.809   5.556 -0.4489 -0.8008 -0.9294
19005SOL    HW268740   0.334   6.912   5.569 -1.3015 -1.5674 -1.9060
19006SOL     OW68741   8.573  11.706   9.016  0.4073 -0.6713  0.1739
19006SOL    HW168742   8.625  11.786   9.027  1.0384 -1.1608  0.8739
19006SOL    HW268743   8.545  11.708   8.925  1.1277 -0.0746 -0.0462
19007SOL     OW68744   0.938   3.766  10.368 -0.7175  0.5763 -0.4277
19007SOL    HW168745   0.873   3.828  10.399  0.0363  1.1534  0.0338
19007SOL    HW268746   1.015   3.782  10.423 -0.4175 -0.5735 -0.4848
19008SOL     OW68747   3.124   3.995   1.487 -0.0234  0.2206 -0.2822
19008SOL    HW168748   3.186   3.926   1.514 -0.1837  0.3973  0.5760
19008SOL    HW268749   3.148   4.014   1.397  0.7394 -0.1939 -0.1836
19009SOL     OW68750   2.998  11.228   2.742 -0.7292 -0.2447  0.0568
19009SOL    HW168751   2.926  11.178   2.781  0.7864 -3.0576 -0.4588
19009SOL    HW268752   3.073  11.168   2.744  0.4057  0.7617 -3.7056
19010SOL     OW68753  11.177   6.055  10.775 -0.0001  0.3817 -0.3238
19010SOL    HW168754  11.224   6.137  10.791 -0.1026  0.2305  0.8843
19010SOL    HW268755  11.224   5.990  10.827 -1.8837  0.3532  1.4552
19011SOL     OW68756   1.907   1.374   1.395  0.3379 -0.3214 -0.3425
19011SOL    HW168757   1.978   1.417   1.443  2.8735 -2.0874 -2.2811
19011SOL    HW268758   1.877   1.440   1.332  1.5975 -0.1585 -0.7876
19012SOL     OW68759   2.940   8.924   5.119 -0.0479  0.6010  0.0681
19012SOL    HW168760   3.018   8.870   5.131  0.3094  1.2738  0.8659
19012SOL    HW268761   2.951   8.963   5.032  1.7442  2.5845  1.0753
19013SOL     OW68762   5.603   9.423   7.768 -0.1310  0.7390  0.4776
19013SOL    HW168763   5.569   9.494   7.823 -0.3178 -0.7695  2.4215
19013SOL    HW268764   5.562   9.437   7.683 -4.2125  0.2207  2.1247
19014SOL     OW68765   2.810   6.893   3.995 -0.3466 -0.2941  0.0478
19014SOL    HW168766   2.717   6.912   3.984 -0.3347  1.2078  2.0403
19014SOL    HW268767   2.856   6.961   3.946 -0.3512  1.6855  2.5758
19015SOL     OW68768   1.278   7.670   9.464 -0.0946 -0.1457  0.1220
19015SOL    HW168769   1.368   7.648   9.487 -0.7376 -1.9386  1.1191
19015SOL    HW268770   1.231   7.587   9.469 -1.6713  0.6221 -1.1094
19016SOL     OW68771  11.881   0.029  10.691  0.0732  0.2114 -0.0853
19016SOL    HW168772  11.795  -0.013  10.694  0.1639  0.0289 -0.0204
19016SOL    HW268773  11.906   0.040  10.783  1.0928 -1.7517 -0.0705
19017SOL     OW68774  11.644   3.067  11.820  0.1844  0.6944  0.0336
19017SOL    HW168775  11.735   3.037  11.819  0.0744  0.2450 -1.8286
19017SOL    HW268776  11.642   3.136  11.885  1.2665 -0.9620  1.9308
19018SOL     OW68777   3.182  10.489  10.001  0.4494 -0.5740  0.7872
19018SOL    HW168778   3.120  10.541  10.052 -0.2071 -1.3185  0.7622
19018SOL    HW268779   3.247  10.552   9.970 -0.6319  0.3258  0.2890
19019SOL     OW68780   9.378   2.662   4.926  0.1029 -0.4440  0.1826
19019SOL    HW168781   9.376   2.687   4.834 -1.0440  0.2501  0.3705
19019SOL    HW268782   9.409   2.739   4.972  0.5344 -0.7407  0.3924
19020SOL     OW68783   7.703   3.684   0.295  0.1155  0.2451 -0.5843
19020SOL    HW168784   7.634   3.678   0.228 -2.4350  3.5605  1.4419
19020SOL    HW268785   7.784   3.676   0.246 -1.6150 -1.1557 -3.5204
19021SOL     OW68786   6.290   0.857   6.099  0.1161 -0.6727 -0.1781
19021SOL    HW168787   6.218   0.914   6.072 -0.0156 -1.8255 -2.4730
19021SOL    HW268788   6.246   0.782   6.139 -0.1110 -1.8744 -2.5282
19022SOL     OW68789   8.723   7.206   5.195 -0.1191  0.4012  0.2957
19022SOL    HW168790   8.715   7.264   5.271  1.7276  0.8398  0.2043
19022SOL    HW268791   8.809   7.228   5.157 -0.5676 -0.4941 -1.3436
19023SOL     OW68792   3.845   4.078   4.297  0.2305  0.2482  0.2791
19023SOL    HW168793   3.853   4.165   4.336  0.7137  0.1778  0.3359
19023SOL    HW268794   3.759   4.080   4.253  0.9822  1.3844 -1.2492
19024SOL     OW68795   5.713  10.026   9.923  0.5320 -0.3097  0.0661
19024SOL    HW168796   5.619  10.011   9.933  0.9302 -1.7496  2.3339
19024SOL    HW268797   5.739   9.971   9.850 -0.4579  0.6138 -1.0208
19025SOL     OW68798   0.334   6.169  10.573  0.5868  0.4803 -0.2228
19025SOL    HW168799   0.338   6.253  10.528  0.7133  0.7324  0.2568
19025SOL    HW268800   0.362   6.105  10.507  0.9660  0.8670 -0.4386
19026SOL     OW68801   5.267  11.048   9.379  0.4602  0.3742  0.1536
19026SOL    HW168802   5.255  10.957   9.351  3.1246 -0.4247  1.2977
19026SOL    HW268803   5.196  11.063   9.442 -1.3199 -0.1269 -1.6384
19027SOL     OW68804   5.982   7.148   8.399  0.1974  0.0077 -0.4126
19027SOL    HW168805   5.928   7.073   8.374  1.1294 -0.5865 -0.6896
19027SOL    HW268806   5.921   7.222   8.398 -0.9575 -0.8806  0.8265
19028SOL     OW68807   9.760   2.849   1.467 -0.2260 -0.7535 -0.5543
19028SOL    HW168808   9.808   2.913   1.414  0.3069  0.7835  1.6152
19028SOL    HW268809   9.829   2.795   1.506 -0.6404 -2.2343 -1.7989
19029SOL     OW68810   6.782   8.864  10.449  0.4778 -0.8039 -0.5325
19029SOL    HW168811   6.694   8.903  10.451  1.1115  0.6705  1.4751
19029SOL    HW268812   6.784   8.804  10.523  1.3445 -0.3546 -0.1746
19030SOL     OW68813  11.637   4.807   7.965 -0.0539 -0.3347 -0.1624
19030SOL    HW168814  11.678   4.851   7.890  1.2479 -1.9122 -0.4383
19030SOL    HW268815  11.605   4.878   8.020  1.3535  0.9425 -0.9224
19031SOL     OW68816  11.236   0.611   5.766 -0.3498 -0.0910  0.2853
19031SOL    HW168817  11.183   0.550   5.819 -0.4280  0.0214  0.3373
19031SOL    HW268818  11.180   0.630   5.690  0.5452 -1.8161 -0.8597
19032SOL     OW68819  10.162  10.270  10.332  0.1311 -0.2692 -0.1103
19032SOL    HW168820  10.210  10.227  10.403 -0.7165  0.7172  1.0983
19032SOL    HW268821  10.219  10.341  10.303  0.7182 -1.0087 -0.8362
19033SOL     OW68822   9.899   7.776  10.044 -0.0462 -0.7305 -0.0287
19033SOL    HW168823   9.878   7.759   9.952  0.9188 -1.8102 -0.0753
19033SOL    HW268824   9.955   7.854  10.041  3.0264 -2.7722 -0.8023
19034SOL     OW68825   4.802   5.087   1.577 -0.1160 -0.0529  0.1688
19034SOL    HW168826   4.728   5.058   1.524 -1.0040  1.2631  0.6269
19034SOL    HW268827   4.878   5.071   1.522 -0.8955  0.1439 -1.0113
19035SOL     OW68828   7.312   0.758  11.767  0.1403  0.1198  0.7704
19035SOL    HW168829   7.353   0.674  11.748 -0.0584  0.0155  0.8004
19035SOL    HW268830   7.380   0.823  11.748 -0.1100  0.0317 -0.5156
19036SOL     OW68831  11.919   4.448   3.391  0.7166 -0.1457 -0.7682
19036SOL    HW168832  11.930   4.354   3.382  1.8544  0.1230 -2.8225
19036SOL    HW268833  11.863   4.474   3.318  0.3916  0.7627 -0.2151
19037SOL     OW68834   9.956   5.175   0.128 -0.7018 -0.2929  0.5059
19037SOL    HW168835   9.912   5.181   0.043  2.7758  2.5278 -1.3746
19037SOL    HW268836   9.909   5.236   0.183 -0.2940  1.4084 -0.9298
19038SOL     OW68837   5.497   1.575  10.864 -0.1579  0.0056  0.9314
19038SOL    HW168838   5.554   1.497  10.868 -0.8813 -0.4889  2.1074
19038SOL    HW268839   5.518   1.614  10.779  2.1407  0.0117  1.4161
19039SOL     OW68840   2.792   1.676   6.726 -0.0162 -0.2320  0.4128
19039SOL    HW168841   2.774   1.726   6.806  0.2199 -0.0658  0.3612
19039SOL    HW268842   2.879   1.704   6.699 -0.6427  0.7786 -0.6890
19040SOL     OW68843   7.996   1.405   7.429  0.2144 -0.2092 -0.1710
19040SOL    HW168844   7.966   1.319   7.458  0.4796 -0.0539  0.5681
19040SOL    HW268845   8.085   1.390   7.397  0.7088  0.0033  1.0767
19041SOL     OW68846   5.732   8.261   7.232  0.3648 -0.5145 -0.2523
19041SOL    HW168847   5.660   8.273   7.293  0.2078 -3.7539  0.3887
19041SOL    HW268848   5.691   8.258   7.146 -0.2774 -1.7821  0.0645
19042SOL     OW68849   8.948   9.677   9.714 -0.3525 -0.2427 -0.9604
19042SOL    HW168850   8.971   9.769   9.698  0.4630 -0.0691  0.8886
19042SOL    HW268851   8.856   9.680   9.742 -0.5633 -0.0881 -1.6597
19043SOL     OW68852   3.724   5.079   6.266 -0.3598  0.2061  0.7245
19043SOL    HW168853   3.674   5.026   6.328 -1.3968  1.5370  1.0472
19043SOL    HW268854   3.814   5.048   6.277 -0.5131  0.3495  2.8392
19044SOL     OW68855   8.705   2.499   0.045 -0.2148 -0.9365 -0.1963
19044SOL    HW168856   8.621   2.493  -0.001 -0.3600  2.2093 -0.6104
19044SOL    HW268857   8.682   2.533   0.132  0.5902  0.3317 -0.4428
19045SOL     OW68858   8.049  11.629   5.237  0.7094  0.0758  0.5355
19045SOL    HW168859   8.086  11.704   5.284 -1.9701  0.5876  2.0228
19045SOL    HW268860   8.041  11.560   5.302 -2.1736  0.4754  0.7284
19046SOL     OW68861   7.217   3.248   1.490 -0.5869 -0.0256 -0.1569
19046SOL    HW168862   7.276   3.310   1.533 -0.1443 -0.4588 -0.1266
19046SOL    HW268863   7.269   3.167   1.482 -1.0071 -0.2590 -0.5846
19047SOL     OW68864   9.828  10.800   6.993  0.1835  0.2923 -0.1290
19047SOL    HW168865   9.743  10.785   6.952  0.3056 -0.3509 -0.1445
19047SOL    HW268866   9.891  10.773   6.927  0.3980  0.3327  0.0594
19048SOL     OW68867   8.894  10.023   0.787 -0.0666 -0.0160  0.1054
19048SOL    HW168868   8.825  10.047   0.726 -0.3511 -1.2219 -0.0670
19048SOL    HW268869   8.935  10.107   0.810  0.4207  0.4506 -2.1615
19049SOL     OW68870   3.706   7.492  11.639  0.5256  0.1189  0.1544
19049SOL    HW168871   3.787   7.442  11.647 -0.9102 -2.0461  2.2569
19049SOL    HW268872   3.708   7.525  11.549  3.3338 -0.4941 -0.1268
19050SOL     OW68873   3.147  10.958   5.501  0.1900 -0.4004 -0.1409
19050SOL    HW168874   3.092  10.895   5.547  1.7448 -0.3627  1.9671
19050SOL    HW268875   3.230  10.912   5.488  0.8025  0.6456 -0.0646
19051SOL     OW68876   6.336   4.588  10.026  0.6752  0.5549  0.3163
19051SOL    HW168877   6.259   4.542  10.061  1.0638  0.3244  0.8926
19051SOL    HW268878   6.337   4.566   9.933 -0.2489  0.9825  0.1937
19052SOL     OW68879   2.274   4.226   5.367  0.0861 -0.5559 -0.2330
19052SOL    HW168880   2.269   4.224   5.463  2.1116 -0.9276 -0.0947
19052SOL    HW268881   2.257   4.317   5.344 -0.8704 -0.5504  0.4259
19053SOL     OW68882   6.671   2.295   4.721  0.2133  0.0753  0.5109
19053SOL    HW168883   6.742   2.282   4.784 -0.7066 -0.8301  1.4162
19053SOL    HW268884   6.599   2.241   4.755 -0.6827  0.4334 -0.7368
19054SOL     OW68885   5.463  10.419   8.868  0.3294  0.2017  0.2678
19054SOL    HW168886   5.395  10.357   8.840 -0.2522  0.9525 -0.0275
19054SOL    HW268887   5.416  10.502   8.878  1.2365  0.7631 -0.0754
19055SOL     OW68888   5.277   0.396   0.419 -0.1618 -0.3521 -0.0432
19055SOL    HW168889   5.182   0.388   0.420 -0.1612 -0.3637 -0.0775
19055SOL    HW268890   5.308   0.312   0.386 -0.1876  0.1405 -1.3849
19056SOL     OW68891   3.360   5.887   6.284 -0.2453  0.6006  0.0737
19056SOL    HW168892   3.378   5.908   6.375 -0.5354 -2.9297  1.0562
19056SOL    HW268893   3.266   5.906   6.274 -0.3518  0.4092  0.6781
19057SOL     OW68894   2.429   1.327   7.994  0.2741 -0.6733  0.0430
19057SOL    HW168895   2.346   1.307   7.952  0.1780 -0.3040  0.0519
19057SOL    HW268896   2.471   1.390   7.936 -0.8355  1.5757  1.5640
19058SOL     OW68897   8.399   7.333   7.137  0.0081  0.2503  0.2209
19058SOL    HW168898   8.494   7.335   7.149 -0.3130  0.0754  3.9623
19058SOL    HW268899   8.377   7.240   7.136 -0.0820  0.2202 -2.3785
19059SOL     OW68900   8.198   1.593   2.098  0.1021 -0.0594  0.0727
19059SOL    HW168901   8.262   1.591   2.027  1.2586  1.2839  1.0176
19059SOL    HW268902   8.222   1.519   2.153  1.1180  0.6576  0.6210
19060SOL     OW68903   8.309   5.803   2.563 -0.3457  0.5269  0.0572
19060SOL    HW168904   8.333   5.896   2.556 -0.8279  0.5796 -0.9505
19060SOL    HW268905   8.234   5.803   2.623 -0.5134  0.8134 -0.1502
19061SOL     OW68906   3.460   7.003  11.079 -0.4074  0.4810 -0.4566
19061SOL    HW168907   3.553   6.997  11.102 -0.6358  0.7164  0.5383
19061SOL    HW268908   3.460   7.006  10.983  0.4962 -1.4981 -0.5650
19062SOL     OW68909   7.922   6.622   8.332  0.0440  0.6660 -0.3014
19062SOL    HW168910   8.000   6.601   8.281  0.2682  0.3953  0.1489
19062SOL    HW268911   7.952   6.622   8.423 -0.5950 -0.0002 -0.0825
19063SOL     OW68912   0.392   5.740   3.313 -0.0483 -0.0954  0.4946
19063SOL    HW168913   0.377   5.774   3.224 -0.0372 -0.1838  0.4594
19063SOL    HW268914   0.353   5.806   3.370  0.2699  0.1413  0.4407
19064SOL     OW68915   6.963   5.800   7.969 -0.3117  0.4142 -0.0604
19064SOL    HW168916   6.965   5.891   7.942 -0.4780  0.3863 -0.1713
19064SOL    HW268917   6.967   5.750   7.887  2.1153  0.2701  0.0722
19065SOL     OW68918   2.627  10.644  11.856 -0.4771 -0.5339  0.3362
19065SOL    HW168919   2.684  10.632  11.932  1.0841 -0.7491 -0.8268
19065SOL    HW268920   2.646  10.570  11.800 -0.8341  0.1849 -0.7614
19066SOL     OW68921   8.631  11.918   2.343  0.2847  0.1262  0.2131
19066SOL    HW168922   8.624  11.976   2.419 -0.6015 -1.3167  1.2997
19066SOL    HW268923   8.544  11.878   2.335  0.8784 -1.1262 -0.4029
19067SOL     OW68924  10.745   4.260   1.214  0.2227  0.6826  0.1721
19067SOL    HW168925  10.727   4.189   1.152  0.6478  0.8334 -0.1347
19067SOL    HW268926  10.785   4.329   1.160 -1.0857  1.5659  0.2705
19068SOL     OW68927   5.616   3.016   3.772  0.3803 -0.5032  0.7957
19068SOL    HW168928   5.564   3.012   3.692  0.0448 -0.3494  1.0084
19068SOL    HW268929   5.682   3.083   3.754 -0.3611  0.3077  1.0459
19069SOL     OW68930   5.449   3.484   5.613  0.1467  0.0678  0.1661
19069SOL    HW168931   5.378   3.429   5.580  0.0419 -0.4588  1.2473
19069SOL    HW268932   5.460   3.551   5.545 -1.3632  0.1487 -0.0318
19070SOL     OW68933   3.329  11.151   7.341  0.5062 -0.2145  0.0648
19070SOL    HW168934   3.273  11.229   7.343 -1.0493 -1.2076 -1.5111
19070SOL    HW268935   3.303  11.101   7.418  1.4621  0.7448  1.0443
19071SOL     OW68936   2.272   0.907   4.769 -1.0688 -0.0784  0.3988
19071SOL    HW168937   2.296   0.883   4.679 -0.7973 -0.4535  0.5681
19071SOL    HW268938   2.312   0.839   4.823 -1.3040  0.0997  0.7987
19072SOL     OW68939  10.967   3.633   0.814  0.3652 -0.1974 -0.3291
19072SOL    HW168940  11.042   3.627   0.873  0.5184 -0.5654 -0.5610
19072SOL    HW268941  11.005   3.628   0.726  0.0698 -0.3754 -0.4464
19073SOL     OW68942   2.872   6.850   1.043  0.9476  0.0190  0.6422
19073SOL    HW168943   2.965   6.861   1.064  1.7461 -2.8246 -1.0033
19073SOL    HW268944   2.834   6.810   1.121  0.6691  2.4543  1.8766
19074SOL     OW68945   4.951  10.144   1.571  0.1687 -0.3272 -0.2922
19074SOL    HW168946   4.868  10.173   1.608  1.0867  0.9363  0.9186
19074SOL    HW268947   4.935  10.137   1.477 -1.0876  0.6591 -0.1757
19075SOL     OW68948  11.776   2.795   7.079 -0.0376 -0.1877  0.0843
19075SOL    HW168949  11.856   2.783   7.131  0.9156  0.4229 -1.1713
19075SOL    HW268950  11.706   2.762   7.135  1.0226 -0.2519  1.4444
19076SOL     OW68951   0.312   1.661   9.058 -0.1013 -0.1818 -0.2693
19076SOL    HW168952   0.397   1.697   9.033 -0.2982  0.8912  0.5580
19076SOL    HW268953   0.250   1.700   8.996 -0.1399 -0.1063 -0.1826
19077SOL     OW68954   8.776  10.018   1.146 -1.1503  0.1203  0.1408
19077SOL    HW168955   8.839  10.075   1.190 -0.4596  1.2643 -2.1613
19077SOL    HW268956   8.691  10.053   1.172 -0.7512  1.5456 -0.3558
19078SOL     OW68957  10.512   1.333   8.390  0.2691  0.4430 -0.1477
19078SOL    HW168958  10.599   1.357   8.420  0.7529  0.2469 -1.3482
19078SOL    HW268959  10.517   1.239   8.374  0.0202  0.5277 -0.7807
19079SOL     OW68960   9.094   7.204  11.204 -0.2248  0.2738  0.3799
19079SOL    HW168961   9.048   7.285  11.180  0.6192  0.6661  0.0642
19079SOL    HW268962   9.126   7.169  11.121 -0.3327 -0.2426  0.5502
19080SOL     OW68963   5.701   1.722  10.971 -0.2325  0.1090  0.2229
19080SOL    HW168964   5.700   1.754  11.061 -0.8740  1.1705 -0.1459
19080SOL    HW268965   5.636   1.651  10.971  0.4053 -0.4933  0.7873
19081SOL     OW68966   9.319   4.818   6.700 -0.2268  0.0844  0.2697
19081SOL    HW168967   9.321   4.849   6.791  0.0275 -2.4148  1.2029
19081SOL    HW268968   9.377   4.742   6.700  1.6562  1.3430 -2.5934
19082SOL     OW68969   8.801   4.964   8.441  0.0761  0.2240 -0.0105
19082SOL    HW168970   8.848   5.047   8.456 -0.0770  0.0791  1.4128
19082SOL    HW268971   8.870   4.901   8.420  0.1760  0.7400 -1.3209
19083SOL     OW68972   8.781   1.289   7.913 -0.1100  0.5498  0.0067
19083SOL    HW168973   8.758   1.365   7.860  0.2622  0.7704  0.1568
19083SOL    HW268974   8.869   1.265   7.882  0.5410  1.2914  1.1953
19084SOL     OW68975   4.449   6.871   6.611  0.4760 -1.0414  0.1604
19084SOL    HW168976   4.424   6.953   6.653  3.4775  0.9116 -1.5331
19084SOL    HW268977   4.460   6.809   6.684 -0.0467  0.5658  1.6780
19085SOL     OW68978  10.166   3.293   4.104 -0.7082  0.1289  0.1542
19085SOL    HW168979  10.245   3.346   4.117  0.1741 -1.2015  0.4391
19085SOL    HW268980  10.116   3.341   4.038  0.5237  0.8114 -0.3344
19086SOL     OW68981   6.822   0.276   6.042 -0.1833  0.1134  0.2002
19086SOL    HW168982   6.746   0.286   5.984 -0.0063 -1.5950 -0.3820
19086SOL    HW268983   6.892   0.326   5.999 -0.7969  1.1874  0.4267
19087SOL     OW68984  11.658   9.268   6.550  0.7716  0.3968 -0.0869
19087SOL    HW168985  11.733   9.327   6.547 -1.5960  3.6867 -3.3861
19087SOL    HW268986  11.614   9.288   6.633  1.9539  0.5305  0.5201
19088SOL     OW68987   4.134   5.231   1.324 -0.0902  0.2907 -0.3843
19088SOL    HW168988   4.191   5.275   1.262  2.8064 -2.1841  0.2852
19088SOL    HW268989   4.073   5.181   1.269  0.4654  0.5001 -1.2034
19089SOL     OW68990  11.458   2.929   2.361 -0.0542 -0.4386  0.4332
19089SOL    HW168991  11.495   2.873   2.292 -4.0132 -1.4431 -1.1529
19089SOL    HW268992  11.447   2.870   2.436 -0.8564 -0.8721 -0.0095
19090SOL     OW68993  11.739   0.500   0.046 -0.9717 -0.5035  0.2119
19090SOL    HW168994  11.748   0.475   0.137 -0.0004  1.1446  0.6059
19090SOL    HW268995  11.648   0.527   0.037 -0.8126  0.3097  0.9711
19091SOL     OW68996   0.930   7.648   6.412  0.4377  0.2824  0.0895
19091SOL    HW168997   0.916   7.574   6.471 -2.0293 -0.0073 -0.7681
19091SOL    HW268998   0.895   7.724   6.459 -1.3120  0.0902 -0.8102
19092SOL     OW68999  11.081   3.722   2.603  0.4386 -0.4061 -0.0460
19092SOL    HW169000  11.149   3.783   2.631 -0.5993  1.1949 -0.8376
19092SOL    HW269001  11.018   3.721   2.674  1.0214 -1.5256  0.4831
19093SOL     OW69002  10.357   4.129   6.675  0.2667  0.0780 -0.2692
19093SOL    HW169003  10.324   4.219   6.678  0.2020  0.0369  0.8423
19093SOL    HW269004  10.359   4.107   6.582  0.0098  1.1271 -0.5377
19094SOL     OW69005   6.068   1.654   5.632  0.1413 -0.1227 -0.7359
19094SOL    HW169006   6.136   1.686   5.574 -0.2058  0.2114 -0.9591
19094SOL    HW269007   6.036   1.573   5.590  0.5968 -0.4377 -0.4816
19095SOL     OW69008   8.550   0.509   4.195 -0.5490 -0.2464  0.3843
19095SOL    HW169009   8.623   0.465   4.152 -0.8772 -1.1313  0.6948
19095SOL    HW269010   8.521   0.576   4.133 -0.4280 -0.8889 -0.3780
19096SOL     OW69011   3.879   0.652   9.968  0.2185 -0.1898  0.2434
19096SOL    HW169012   3.836   0.697  10.041  0.1272  0.0847  0.0214
19096SOL    HW269013   3.859   0.706   9.892 -0.0937 -0.7270 -0.0651
19097SOL     OW69014   0.766   0.505   9.842  0.3710  0.2542  0.2015
19097SOL    HW169015   0.726   0.590   9.862  0.2657  0.1467  0.4589
19097SOL    HW269016   0.807   0.478   9.925  1.8903  0.8492 -0.3217
19098SOL     OW69017   5.622   4.953   3.865  0.2127  0.3841 -0.1632
19098SOL    HW169018   5.559   4.882   3.879  0.9945 -0.2559  0.2181
19098SOL    HW269019   5.610   5.010   3.941  0.9811 -0.4312  0.5889
19099SOL     OW69020   9.539   9.331   5.008 -0.2739  0.2005 -0.0025
19099SOL    HW169021   9.595   9.258   5.034 -0.9315  0.2145  1.5430
19099SOL    HW269022   9.470   9.333   5.074 -1.6985  0.6454 -1.4477
19100SOL     OW69023   6.837  11.409  11.507 -0.2477 -0.3402  0.2481
19100SOL    HW169024   6.821  11.318  11.534  2.7252 -1.1152 -0.2152
19100SOL    HW269025   6.926  11.428  11.537 -0.3824  2.0649 -0.6206
19101SOL     OW69026   8.477   7.314   0.313 -0.1403  0.2948  0.0092
19101SOL    HW169027   8.553   7.321   0.255  0.6243  0.1608  0.9685
19101SOL    HW269028   8.512   7.328   0.400 -0.9423 -1.3291  0.6400
19102SOL     OW69029  10.853   4.130   4.055 -0.2124  0.1504 -0.0332
19102SOL    HW169030  10.779   4.070   4.045 -1.5284  1.4389  1.3567
19102SOL    HW269031  10.841   4.195   3.986  0.6633 -0.6233 -0.9315
19103SOL     OW69032  11.867   1.303  11.276 -0.0709  0.2575 -0.4300
19103SOL    HW169033  11.776   1.299  11.248 -0.1466  0.4150 -0.2140
19103SOL    HW269034  11.885   1.396  11.286 -0.3425  0.1874  0.9690
19104SOL     OW69035   4.359   2.387  10.116 -0.2053 -0.2170 -0.4346
19104SOL    HW169036   4.328   2.387  10.025  0.5383  0.2350 -0.7020
19104SOL    HW269037   4.450   2.415  10.109 -0.9241  2.8329  0.7077
19105SOL     OW69038   6.534   0.039   9.097 -0.0545  0.2615 -0.3469
19105SOL    HW169039   6.499   0.103   9.035 -4.1296 -2.0026 -0.7320
19105SOL    HW269040   6.566  -0.033   9.043  0.8054  0.2675  0.1367
19106SOL     OW69041  11.501  10.014   7.126 -0.1242  0.0102  0.6392
19106SOL    HW169042  11.473  10.088   7.181 -0.7620  1.5236 -1.5972
19106SOL    HW269043  11.513   9.942   7.188  0.0428  1.8312  2.8606
19107SOL     OW69044   8.404   3.223  10.233  0.0857  0.1483 -0.1805
19107SOL    HW169045   8.476   3.218  10.296 -0.6823  0.7369  0.7804
19107SOL    HW269046   8.438   3.275  10.161  0.1277  1.8173  0.9970
19108SOL     OW69047   3.445   8.608   7.257  0.0893 -0.0354  0.8872
19108SOL    HW169048   3.510   8.564   7.203  0.1892 -0.4676  1.3567
19108SOL    HW269049   3.467   8.585   7.347 -1.5089 -1.3219  1.0015
19109SOL     OW69050   9.423   7.410   9.398 -0.1988 -0.1669  0.1660
19109SOL    HW169051   9.458   7.326   9.367  1.0130  0.3823 -0.0481
19109SOL    HW269052   9.420   7.401   9.493  0.8091 -0.1611  0.2164
19110SOL     OW69053   2.940   8.807   0.049  0.0799 -0.5852  0.5233
19110SOL    HW169054   2.865   8.749   0.060  0.4328 -1.1057  0.2256
19110SOL    HW269055   2.983   8.805   0.135 -0.1001 -0.4971  0.6157
19111SOL     OW69056   5.146   6.043   2.461  0.3031 -0.0900 -0.3338
19111SOL    HW169057   5.082   6.003   2.520  0.2108 -1.5055 -1.3502
19111SOL    HW269058   5.231   6.022   2.500  0.2114  0.3659  0.1299
19112SOL     OW69059   1.451   8.485   4.466 -0.1887 -0.0086 -0.5339
19112SOL    HW169060   1.490   8.497   4.380  1.5847  0.4938  0.3010
19112SOL    HW269061   1.419   8.572   4.490  2.9296  0.8656  0.9380
19113SOL     OW69062   3.955  11.244   5.684  0.1549  0.1356 -0.5883
19113SOL    HW169063   4.035  11.295   5.699  2.0024 -2.4161 -1.2269
19113SOL    HW269064   3.978  11.182   5.615 -2.6414 -0.2125 -1.3247
19114SOL     OW69065   0.871   9.939   7.053 -0.1591  0.1030  0.3035
19114SOL    HW169066   0.929  10.006   7.089 -1.1893  1.4627 -0.4514
19114SOL    HW269067   0.927   9.862   7.042  1.8878  1.7388 -1.7026
19115SOL     OW69068  10.880   0.549   8.529  0.1161 -0.9436  0.3773
19115SOL    HW169069  10.902   0.487   8.598  4.4077 -0.4586 -0.2996
19115SOL    HW269070  10.897   0.635   8.568 -0.4886 -0.4719 -0.3622
19116SOL     OW69071  10.052   9.532  10.620 -0.2817  0.1000  0.0884
19116SOL    HW169072  10.005   9.589  10.559 -0.5379  0.4140  0.5729
19116SOL    HW269073  10.067   9.586  10.697 -0.4082 -0.4433  0.5018
19117SOL     OW69074   3.372   5.682   3.233 -0.1977 -0.2584 -0.9192
19117SOL    HW169075   3.313   5.650   3.165 -0.8313 -0.4653 -0.2873
19117SOL    HW269076   3.449   5.626   3.227  0.2276  0.4175 -2.1708
19118SOL     OW69077   9.222   8.575   6.255 -0.6815 -0.2746  0.6763
19118SOL    HW169078   9.155   8.511   6.232 -0.1449 -0.4309 -0.5353
19118SOL    HW269079   9.302   8.540   6.215 -0.3543  1.0626  0.1192
19119SOL     OW69080   9.677   7.095   6.373  0.0075  0.8013  0.4458
19119SOL    HW169081   9.599   7.071   6.424 -0.5528  2.4678  0.4560
19119SOL    HW269082   9.666   7.050   6.290 -1.8849  2.3184 -0.1911
19120SOL     OW69083   5.558   1.327   1.912  0.1172 -0.1558  0.2514
19120SOL    HW169084   5.606   1.268   1.854 -1.5025  1.6229 -3.2335
19120SOL    HW269085   5.467   1.316   1.887 -0.5481  1.4401  1.8039
19121SOL     OW69086   6.661   4.091   7.171  0.0558 -0.2466 -0.3736
19121SOL    HW169087   6.696   4.153   7.235 -1.1005 -1.5246  1.6146
19121SOL    HW269088   6.664   4.138   7.088  1.2547  1.6420  0.6564
19122SOL     OW69089   9.889   0.550  10.615  0.2555 -1.0128  0.0931
19122SOL    HW169090   9.831   0.585  10.683  1.1452  0.3784  0.1755
19122SOL    HW269091   9.976   0.551  10.655  0.8440  0.1269 -1.1491
19123SOL     OW69092   8.915   8.721   4.885 -0.0812 -0.7176  0.2220
19123SOL    HW169093   8.842   8.766   4.927 -0.2686  0.2002 -1.0386
19123SOL    HW269094   8.987   8.784   4.889 -0.2288 -0.4349 -1.1999
19124SOL     OW69095   1.388   6.392   6.573 -0.4567 -0.1237  0.1014
19124SOL    HW169096   1.332   6.419   6.647  1.3433  0.4898  1.3002
19124SOL    HW269097   1.476   6.387   6.610  0.3001 -1.1758 -1.7109
19125SOL     OW69098   5.508   2.934   5.988 -0.0229 -0.3774  0.4000
19125SOL    HW169099   5.504   2.970   5.900 -1.7101 -1.7050 -0.1123
19125SOL    HW269100   5.478   3.005   6.045  1.3636  0.5879 -0.0050
19126SOL     OW69101   8.367   2.020  10.073  0.4385  0.3923  0.2743
19126SOL    HW169102   8.343   2.031  10.165 -1.0202 -0.2789  0.0104
19126SOL    HW269103   8.407   2.104  10.049 -0.4607  1.1013  1.1409
19127SOL     OW69104   0.406   2.878   6.619  0.3520 -0.4480 -0.2068
19127SOL    HW169105   0.492   2.874   6.661  0.0231 -2.4979  0.3821
19127SOL    HW269106   0.413   2.820   6.544 -0.3492 -0.1988 -0.4705
19128SOL     OW69107   2.329   0.088   6.563 -0.3333  0.4544  0.1746
19128SOL    HW169108   2.349   0.048   6.648 -0.3664  0.6624  0.2817
19128SOL    HW269109   2.414   0.106   6.523 -0.2066  2.8100  1.3126
19129SOL     OW69110   4.230   0.222  11.909 -0.3210 -0.1952  0.4050
19129SOL    HW169111   4.151   0.219  11.964 -1.4894 -0.0117 -1.2108
19129SOL    HW269112   4.211   0.164  11.836  1.6184 -1.2188  0.6386
19130SOL     OW69113   5.304  10.252   6.654  0.1482 -0.0611 -0.3201
19130SOL    HW169114   5.273  10.237   6.565 -0.6992 -1.5338  0.1932
19130SOL    HW269115   5.395  10.280   6.643 -0.8062  2.8628 -1.7847
19131SOL     OW69116   0.226   1.549   1.246  0.1611  0.0519 -0.1088
19131SOL    HW169117   0.165   1.505   1.188  0.5228 -2.0110  0.9885
19131SOL    HW269118   0.190   1.537   1.334  1.1298  0.5254  0.3792
19132SOL     OW69119   9.865   9.657  10.158 -0.5766 -0.1515 -0.1824
19132SOL    HW169120   9.801   9.724  10.134  0.4215  0.7654 -0.3325
19132SOL    HW269121   9.929   9.702  10.214 -0.6080 -1.2932  0.8382
19133SOL     OW69122   1.419   5.120   4.913  0.1693 -0.3013  0.8828
19133SOL    HW169123   1.402   5.127   5.007 -1.8447  1.7302  0.4589
19133SOL    HW269124   1.467   5.201   4.892 -0.4830 -0.1366 -0.0234
19134SOL     OW69125  11.920   5.756   2.873  0.0822  0.3256 -0.3271
19134SOL    HW169126  11.852   5.701   2.835  0.9688 -3.1923  2.6050
19134SOL    HW269127  11.994   5.748   2.813 -0.1392 -0.9294 -0.4532
19135SOL     OW69128   8.303   8.761   1.405  0.0768  0.1871  0.0312
19135SOL    HW169129   8.354   8.811   1.469  1.3206 -0.6839 -0.2428
19135SOL    HW269130   8.295   8.674   1.443  2.0186 -0.7588 -1.5295
19136SOL     OW69131   7.094   5.849  10.372 -0.1786 -0.2765 -0.1010
19136SOL    HW169132   7.112   5.874  10.281  0.8930  1.1160  0.4541
19136SOL    HW269133   7.022   5.906  10.399 -0.3893 -0.5780 -0.0213
19137SOL     OW69134   8.553   8.522   5.390  0.3896 -0.5903  0.1891
19137SOL    HW169135   8.490   8.594   5.393  0.8642 -0.1272 -0.8477
19137SOL    HW269136   8.635   8.562   5.364  0.9440 -1.3222  0.7729
19138SOL     OW69137  10.151   7.716   7.693 -0.2465 -0.3335  0.0979
19138SOL    HW169138  10.175   7.784   7.630  0.3018  0.0838  0.7396
19138SOL    HW269139  10.122   7.765   7.770  0.0409 -0.8289  0.5272
19139SOL     OW69140  11.151   0.366  11.781  0.5720 -0.4689  0.0510
19139SOL    HW169141  11.213   0.437  11.766 -0.3288  0.2264 -0.4695
19139SOL    HW269142  11.177   0.298  11.718  1.2243 -0.4791  0.3170
19140SOL     OW69143   4.552   2.687   1.702 -0.5200 -0.3430 -0.4901
19140SOL    HW169144   4.490   2.727   1.641 -0.7313 -1.0858 -0.7773
19140SOL    HW269145   4.635   2.730   1.684 -1.0965  1.2366  0.4443
19141SOL     OW69146   9.020  11.939   9.827  0.0597  0.0419 -0.4473
19141SOL    HW169147   8.967  12.018   9.825 -1.7747 -1.1295 -0.5690
19141SOL    HW269148   8.957  11.868   9.843  1.7429 -1.3114  0.4982
19142SOL     OW69149   5.066   7.533   3.722  0.3531  0.0946 -0.0993
19142SOL    HW169150   4.979   7.568   3.704 -0.4383 -0.5306  2.2238
19142SOL    HW269151   5.081   7.470   3.652 -0.7923  0.6319 -0.8655
19143SOL     OW69152   6.868   1.004   2.924  0.2717  0.1777 -0.1784
19143SOL    HW169153   6.827   0.975   2.842  0.3419  0.2301 -0.2319
19143SOL    HW269154   6.807   0.976   2.992 -0.6471  1.6502 -0.3491
19144SOL     OW69155   9.546  11.283   4.273  0.3127  0.3247 -0.3750
19144SOL    HW169156   9.528  11.341   4.200  2.0932  0.8758 -0.4191
19144SOL    HW269157   9.641  11.285   4.283  0.3662 -1.9067  0.1841
19145SOL     OW69158   8.588   8.324   4.949  0.6811  0.3109  0.1398
19145SOL    HW169159   8.659   8.298   5.008  0.2057 -0.6094  0.3265
19145SOL    HW269160   8.629   8.335   4.864  0.9044 -1.1206  0.0456
19146SOL     OW69161  10.788  11.323   0.107 -0.0527  0.1099  0.8549
19146SOL    HW169162  10.788  11.372   0.025 -0.0016  1.8443  1.8489
19146SOL    HW269163  10.791  11.231   0.080 -2.4102  0.5227 -1.1109
19147SOL     OW69164   6.734   8.459   2.037  0.0360 -0.2049  0.5487
19147SOL    HW169165   6.744   8.554   2.041  0.7612 -0.1250 -1.8001
19147SOL    HW269166   6.643   8.443   2.065 -0.9437  1.4566 -1.4205
19148SOL     OW69167  11.523   6.531   7.354  0.4591  0.3069 -0.6991
19148SOL    HW169168  11.476   6.477   7.290  1.0589 -0.8336 -0.2024
19148SOL    HW269169  11.472   6.522   7.435  0.2212  0.9990 -0.7635
19149SOL     OW69170   0.526   5.236  10.265  0.0446  0.1407 -0.3333
19149SOL    HW169171   0.458   5.233  10.197 -1.7073  0.0602  1.3299
19149SOL    HW269172   0.503   5.311  10.319  1.8362  0.6562 -0.2119
19150SOL     OW69173   9.282   1.709   9.838  0.2276 -0.4919  0.1150
19150SOL    HW169174   9.238   1.654   9.773  0.6926 -0.0153 -0.6165
19150SOL    HW269175   9.287   1.795   9.797 -0.8624  0.2229  1.3999
19151SOL     OW69176   0.398   4.398   5.429  0.5951  0.7379 -0.2504
19151SOL    HW169177   0.332   4.411   5.362  0.5746 -0.2574 -0.4415
19151SOL    HW269178   0.372   4.318   5.474  1.5492  0.4357 -0.1986
19152SOL     OW69179  11.678   2.720   0.720 -0.1584  0.3567 -0.4174
19152SOL    HW169180  11.704   2.801   0.765  1.2297  0.6302 -1.6481
19152SOL    HW269181  11.618   2.749   0.651 -0.5203  0.2026 -0.1690
19153SOL     OW69182   4.647   4.093   8.586  0.4410 -0.5864  0.4603
19153SOL    HW169183   4.697   4.038   8.526  0.6075 -0.0908  0.1365
19153SOL    HW269184   4.714   4.137   8.639  0.4280  0.9839 -0.7694
19154SOL     OW69185   8.869   5.204   0.422  0.8901 -0.0065  0.6927
19154SOL    HW169186   8.946   5.223   0.369  0.1091  1.2432 -0.0607
19154SOL    HW269187   8.829   5.128   0.381  2.1158 -1.1642  1.5637
19155SOL     OW69188   5.276   3.325   1.198  0.0538 -0.4192  0.4044
19155SOL    HW169189   5.261   3.324   1.293 -0.4795  0.6640  0.3568
19155SOL    HW269190   5.356   3.274   1.185  0.7673  0.3454  1.5753
19156SOL     OW69191   4.149   5.627   8.998 -0.7634 -0.0890  0.1945
19156SOL    HW169192   4.184   5.638   9.086 -0.1521  0.9599 -0.1710
19156SOL    HW269193   4.218   5.658   8.939 -1.9604  1.2347 -0.5731
19157SOL     OW69194   8.693  11.548   9.390 -0.4811 -0.3739 -0.5760
19157SOL    HW169195   8.698  11.488   9.316 -0.6521 -0.3449 -0.6113
19157SOL    HW269196   8.611  11.526   9.434 -0.2022 -0.6389 -0.1790
19158SOL     OW69197   9.450   0.493  10.972 -0.4619 -0.3659 -0.2344
19158SOL    HW169198   9.537   0.465  11.000 -0.9909 -1.8852 -0.0161
19158SOL    HW269199   9.462   0.582  10.940  0.9316 -0.0619  1.0231
19159SOL     OW69200   6.708   0.146  10.954  0.0759 -0.5714  0.5058
19159SOL    HW169201   6.741   0.088  10.885  0.3664  0.9712 -0.6952
19159SOL    HW269202   6.742   0.108  11.036 -0.3562 -2.4907 -0.1438
19160SOL     OW69203   9.812   4.046   6.524  0.7141 -0.0093  0.2396
19160SOL    HW169204   9.872   3.986   6.568  1.2465  1.6518  1.9069
19160SOL    HW269205   9.865   4.088   6.456  0.8381 -0.0714  0.2976
19161SOL     OW69206   4.512   5.890   0.741 -0.0395  0.3573  0.3423
19161SOL    HW169207   4.557   5.811   0.773  1.8393  2.1823  2.5112
19161SOL    HW269208   4.444   5.907   0.806 -1.0638  0.0800 -0.6178
19162SOL     OW69209   0.250  11.141  10.569  0.4223 -0.6820 -0.2092
19162SOL    HW169210   0.173  11.151  10.627  0.1060 -0.7018 -0.6234
19162SOL    HW269211   0.323  11.126  10.629  0.1702 -0.2604  0.2154
19163SOL     OW69212  10.200   0.957   4.255  0.0809  0.1518  0.5763
19163SOL    HW169213  10.255   0.941   4.178  0.2644  1.1796  0.4803
19163SOL    HW269214  10.121   0.999   4.221 -0.3750 -0.4762  0.8235
19164SOL     OW69215   7.262   0.804  11.457  0.5665  0.2037 -0.5549
19164SOL    HW169216   7.230   0.827  11.370 -0.1230  0.2013 -0.3119
19164SOL    HW269217   7.351   0.773  11.443  0.7927  1.0987 -1.1396
19165SOL     OW69218  11.070   7.098   7.342  0.1244 -0.3595 -0.4738
19165SOL    HW169219  11.133   7.026   7.346 -1.0550 -1.3821  0.3246
19165SOL    HW269220  11.075   7.140   7.428  0.7228  0.4680 -0.8938
19166SOL     OW69221   3.954   2.072  10.588 -0.0132 -0.1011  0.3568
19166SOL    HW169222   3.912   1.988  10.570 -1.0332  0.5980 -0.6734
19166SOL    HW269223   4.017   2.083  10.517 -1.0551  0.7478 -0.4488
19167SOL     OW69224   5.630   1.379   3.306  0.0250  0.1582  0.0518
19167SOL    HW169225   5.566   1.377   3.235 -0.5155  0.8258  0.5111
19167SOL    HW269226   5.586   1.426   3.377 -0.1830 -2.1154  1.5418
19168SOL     OW69227   4.046  11.744   0.629 -0.4516  0.0756  0.0008
19168SOL    HW169228   3.993  11.780   0.700 -1.8272  1.7883 -1.7588
19168SOL    HW269229   3.985  11.690   0.579  0.8251 -2.2340  0.7776
19169SOL     OW69230   5.334   7.752   4.042 -0.2708  0.0703  0.8478
19169SOL    HW169231   5.247   7.744   4.002  0.5966 -0.9351 -0.9967
19169SOL    HW269232   5.343   7.844   4.064 -0.7286  0.7883 -1.6433
19170SOL     OW69233   7.245  10.333   5.737 -0.1923 -0.6176  0.0607
19170SOL    HW169234   7.313  10.318   5.802  0.8742  2.6422 -0.1594
19170SOL    HW269235   7.174  10.376   5.785 -0.6427 -0.8472 -0.3855
19171SOL     OW69236   9.911   8.807   9.400  0.5453 -0.6658  0.0074
19171SOL    HW169237   9.921   8.830   9.307  2.3179  0.8361  0.5102
19171SOL    HW269238   9.829   8.848   9.426  0.0698 -1.0299 -0.8600
19172SOL     OW69239   4.845   2.985  10.403  0.1443 -0.3249  0.3114
19172SOL    HW169240   4.749   2.980  10.406  0.2020 -1.3877  1.2319
19172SOL    HW269241   4.873   2.950  10.487  1.3871 -2.1956 -0.8059
19173SOL     OW69242   6.688   4.626   3.013  0.2128  0.2300 -0.2562
19173SOL    HW169243   6.723   4.704   3.058  0.3978 -0.1324  0.2421
19173SOL    HW269244   6.630   4.661   2.945  2.5776  0.9286 -2.0484
19174SOL     OW69245   5.732  11.366   0.863 -0.3883 -0.4078  0.0654
19174SOL    HW169246   5.668  11.431   0.835 -0.8569 -0.9576 -0.1849
19174SOL    HW269247   5.702  11.338   0.950 -0.8256 -1.0705 -0.2853
19175SOL     OW69248   5.672   5.529  10.297 -0.3782 -0.0740 -0.2393
19175SOL    HW169249   5.685   5.615  10.337 -0.2113 -0.4941  0.6305
19175SOL    HW269250   5.698   5.467  10.365 -0.1279 -0.8088 -0.9979
19176SOL     OW69251   9.390   9.201   7.669  0.2282  0.2526  0.2846
19176SOL    HW169252   9.322   9.134   7.676 -0.9884  1.2553 -1.3645
19176SOL    HW269253   9.385   9.231   7.578  2.0156  1.2761  0.4726
19177SOL     OW69254  11.601   5.635   4.546  0.0750  0.0188 -0.2563
19177SOL    HW169255  11.522   5.660   4.500 -0.3796 -1.3081 -0.2345
19177SOL    HW269256  11.609   5.541   4.532  1.1702 -0.0239  0.4768
19178SOL     OW69257   1.979   7.302   3.235  0.1935 -0.7936  0.0016
19178SOL    HW169258   1.896   7.346   3.218 -1.5994 -4.1106 -0.4690
19178SOL    HW269259   2.031   7.317   3.156 -1.5058 -1.8733 -1.3776
19179SOL     OW69260   4.742   1.155   8.280  0.5474 -0.3642  0.0193
19179SOL    HW169261   4.772   1.072   8.244 -2.1998 -1.7633  0.6924
19179SOL    HW269262   4.742   1.215   8.206 -0.6129 -1.9186 -1.3167
19180SOL     OW69263   6.906   3.097   5.760  0.7137 -0.2424 -0.6048
19180SOL    HW169264   6.863   3.011   5.757  1.4812 -0.6326 -0.4828
19180SOL    HW269265   6.999   3.078   5.748  0.6892  0.7727 -2.7983
19181SOL     OW69266   7.329  10.340   7.632  0.2891  0.0194 -0.1009
19181SOL    HW169267   7.285  10.305   7.554  1.0760  1.3002 -1.1572
19181SOL    HW269268   7.258  10.376   7.685 -0.2185 -0.5276 -0.3914
19182SOL     OW69269   0.489  11.289   4.655  0.6105 -0.3662  0.2930
19182SOL    HW169270   0.560  11.230   4.629 -0.6649 -1.9151  0.1343
19182SOL    HW269271   0.503  11.368   4.605  0.6391 -1.7010 -1.9305
19183SOL     OW69272   8.850   5.586   9.370  0.0135  0.7244 -0.2182
19183SOL    HW169273   8.936   5.592   9.412 -0.4252  3.6978  0.5099
19183SOL    HW269274   8.860   5.633   9.287 -0.8158  0.7971 -0.2877
19184SOL     OW69275   2.426  11.135  11.757  0.3490  0.2371 -0.3614
19184SOL    HW169276   2.472  11.204  11.806 -3.0427  1.8727  0.8459
19184SOL    HW269277   2.438  11.056  11.810  0.9569  0.8205  0.3999
19185SOL     OW69278  11.260   2.669   8.890 -0.1131  0.0417  0.7148
19185SOL    HW169279  11.189   2.706   8.943  0.2266  1.0173  0.5204
19185SOL    HW269280  11.289   2.742   8.836 -0.3854 -0.9149 -0.7721
19186SOL     OW69281  11.525   2.966   6.079 -0.6029  0.3740 -0.4212
19186SOL    HW169282  11.537   3.026   6.006  0.7046  0.7562  0.0841
19186SOL    HW269283  11.581   3.000   6.148 -0.3876 -1.0107  0.1267
19187SOL     OW69284   0.474   1.859   0.700 -0.1226  0.0720  0.5222
19187SOL    HW169285   0.541   1.927   0.696 -0.3386  0.2492 -0.5080
19187SOL    HW269286   0.407   1.887   0.637 -0.8826 -0.3979  1.0928
19188SOL     OW69287   3.505  11.005   1.562 -0.2965 -0.1560 -0.1197
19188SOL    HW169288   3.468  10.917   1.558  0.0346 -0.3568  0.8931
19188SOL    HW269289   3.559  11.012   1.484  1.3869 -1.6765  0.8228
19189SOL     OW69290   3.068   1.407   1.540  0.3482 -0.5271  0.1770
19189SOL    HW169291   3.146   1.462   1.531  0.3535 -0.6967 -0.8453
19189SOL    HW269292   3.096   1.320   1.514  0.2866 -1.0036  1.6146
19190SOL     OW69293   5.854   7.237   2.151 -0.6541 -0.6659  0.0681
19190SOL    HW169294   5.794   7.162   2.149 -1.2700 -0.1932  0.6490
19190SOL    HW269295   5.883   7.246   2.060 -2.2370 -0.2825 -0.4182
19191SOL     OW69296   5.213   8.593   2.603  0.4488  0.2504  0.1175
19191SOL    HW169297   5.200   8.675   2.649 -1.5634  0.7473 -1.1828
19191SOL    HW269298   5.305   8.571   2.616  0.3667  1.2517  2.8004
19192SOL     OW69299   4.062   4.554   0.705 -0.0407 -0.3841  0.0871
19192SOL    HW169300   4.128   4.555   0.775  1.4481 -1.1160 -1.2407
19192SOL    HW269301   4.089   4.483   0.648 -2.5510 -1.3224 -0.0478
19193SOL     OW69302   0.143   4.529   0.441 -0.1968  0.1694  0.4639
19193SOL    HW169303   0.096   4.455   0.481 -1.7999  1.5125  1.1986
19193SOL    HW269304   0.197   4.564   0.512  1.1375 -0.6993 -0.0844
19194SOL     OW69305   1.505  10.512   3.458  0.2395 -0.9170  0.3741
19194SOL    HW169306   1.575  10.573   3.432 -0.6733  0.2532  0.5717
19194SOL    HW269307   1.548  10.451   3.517  1.0623 -0.0921  0.6620
19195SOL     OW69308   7.267   5.848   7.322  0.4666  0.1219 -0.1294
19195SOL    HW169309   7.299   5.932   7.291 -0.2080  0.7089  0.7065
19195SOL    HW269310   7.178   5.841   7.286  0.7199 -0.4999 -0.6593
19196SOL     OW69311   1.424   2.216   6.990 -0.0890 -0.2254 -0.4676
19196SOL    HW169312   1.332   2.229   6.967 -0.4879  0.8535  1.5182
19196SOL    HW269313   1.472   2.245   6.912 -1.3578  2.4408 -0.3898
19197SOL     OW69314   6.149   7.947   4.012 -0.0853  0.1399 -0.3104
19197SOL    HW169315   6.230   7.990   4.037 -0.4032  0.3728  0.3326
19197SOL    HW269316   6.148   7.952   3.916  0.2216  0.9383 -0.2765
19198SOL     OW69317   9.416   5.893   9.462 -0.0360 -0.2167 -0.1949
19198SOL    HW169318   9.507   5.910   9.484  0.7664 -1.5703 -2.1939
19198SOL    HW269319   9.390   5.969   9.409  0.1124 -0.1097 -0.1151
19199SOL     OW69320   3.725   5.246   4.716  0.4322  0.2481 -0.0123
19199SOL    HW169321   3.718   5.321   4.656  2.9906  0.2979 -0.3792
19199SOL    HW269322   3.702   5.282   4.801 -0.6673  0.8514 -0.5455
19200SOL     OW69323   4.766   7.986   4.484  0.1270 -0.2331 -0.1832
19200SOL    HW169324   4.699   7.938   4.532  0.8457 -0.0269  1.0594
19200SOL    HW269325   4.811   8.039   4.550  1.5705 -0.4212 -0.9568
19201SOL     OW69326  10.039   8.159   7.008  0.2963  0.4846  0.0740
19201SOL    HW169327   9.970   8.175   7.073  0.1513  1.2925 -0.2671
19201SOL    HW269328  10.069   8.246   6.983  0.8698  0.1600 -0.3953
19202SOL     OW69329   9.254   7.420   6.588 -0.0044 -0.1610  0.0332
19202SOL    HW169330   9.198   7.407   6.664 -1.7056  2.7330 -0.5644
19202SOL    HW269331   9.194   7.419   6.513  1.2129 -0.0589 -0.9835
19203SOL     OW69332   5.284   2.488  11.741  0.0894 -0.0076 -0.0411
19203SOL    HW169333   5.375   2.497  11.711  0.3154 -1.4169  0.1675
19203SOL    HW269334   5.291   2.471  11.835 -0.4601  0.9525  0.1866
19204SOL     OW69335   8.284   1.851   9.497  0.0885  0.1390  0.2530
19204SOL    HW169336   8.221   1.919   9.522  0.5416  0.8078 -0.3836
19204SOL    HW269337   8.365   1.899   9.481 -0.0176 -0.3101 -1.9433
19205SOL     OW69338   0.676   4.222  11.313 -0.3161  0.2874 -0.0626
19205SOL    HW169339   0.607   4.260  11.367 -0.2749  1.5708 -0.8829
19205SOL    HW269340   0.638   4.140  11.280 -0.5567 -0.2273  1.3825
19206SOL     OW69341  11.409   7.952  10.592 -0.2617  0.1242 -0.2812
19206SOL    HW169342  11.345   8.020  10.570  1.3240  1.4779 -0.8611
19206SOL    HW269343  11.465   7.944  10.515 -0.3246 -1.8040 -0.1917
19207SOL     OW69344   5.412  10.449   5.694 -0.1203 -0.3327 -0.4342
19207SOL    HW169345   5.334  10.496   5.725  1.1869  0.1334  2.5238
19207SOL    HW269346   5.414  10.369   5.747  2.7446  0.9356  1.6538
19208SOL     OW69347   1.317   0.423  11.009  0.2065  0.6647  0.0387
19208SOL    HW169348   1.341   0.490  11.073  0.3515 -1.0712  1.9262
19208SOL    HW269349   1.221   0.425  11.007  0.2352  1.9486 -1.1186
19209SOL     OW69350   4.887   6.746   8.684  0.0899 -0.1550 -0.2066
19209SOL    HW169351   4.971   6.781   8.712  0.1530 -0.1160 -0.4503
19209SOL    HW269352   4.877   6.665   8.734  0.3686 -0.2691 -0.3384
19210SOL     OW69353   3.184   9.870   9.515 -0.3723 -0.4735 -0.2395
19210SOL    HW169354   3.163   9.777   9.501  0.2342 -0.5479 -0.6881
19210SOL    HW269355   3.166   9.884   9.608  1.7090 -1.6410  0.4084
19211SOL     OW69356   9.099  11.343   0.353 -0.1850  0.6268  0.1641
19211SOL    HW169357   9.060  11.429   0.366 -0.4988  0.7650 -1.5465
19211SOL    HW269358   9.142  11.348   0.268  1.3409 -0.3590  0.8331
19212SOL     OW69359   3.057  10.606   5.071  0.0855 -0.2355  0.5604
19212SOL    HW169360   2.975  10.654   5.083 -1.0594 -1.8893 -0.3416
19212SOL    HW269361   3.074  10.610   4.977  1.1898  0.2715  0.7590
19213SOL     OW69362   3.242   2.970  11.914 -0.6122 -0.1729  0.4719
19213SOL    HW169363   3.309   2.904  11.899 -0.6278  0.0096 -0.5028
19213SOL    HW269364   3.213   2.995  11.826 -0.4248  1.3099  0.7978
19214SOL     OW69365   1.161   8.574   4.512  0.6087 -0.5312 -0.1736
19214SOL    HW169366   1.205   8.490   4.527  1.6720 -0.1687 -1.1619
19214SOL    HW269367   1.069   8.551   4.500  0.8921 -1.5616 -0.4557
19215SOL     OW69368   2.121   8.541   3.250 -0.2455 -0.1781  0.0616
19215SOL    HW169369   2.142   8.611   3.188  1.0700  1.6449  2.4098
19215SOL    HW269370   2.082   8.586   3.325  1.1436 -1.8401  1.9011
19216SOL     OW69371  10.810   0.496   5.367  0.3304 -0.2817  0.2662
19216SOL    HW169372  10.856   0.439   5.305 -0.1161 -0.6511  0.2685
19216SOL    HW269373  10.879   0.536   5.419  0.6538 -0.7812  0.2255
19217SOL     OW69374   6.495  11.538   2.386  0.2126 -0.3527  0.0053
19217SOL    HW169375   6.448  11.523   2.304  0.9485  0.0737 -0.5074
19217SOL    HW269376   6.582  11.569   2.359  0.7682 -1.0350  0.9249
19218SOL     OW69377   0.743   1.538   9.479 -0.1235  0.3722  0.3595
19218SOL    HW169378   0.711   1.532   9.389  0.3935 -0.6499  0.2267
19218SOL    HW269379   0.834   1.507   9.474 -0.3390 -0.4924  1.3524
19219SOL     OW69380   8.346   0.729   1.123 -0.1466  0.6679 -0.3487
19219SOL    HW169381   8.252   0.745   1.117 -0.1739  0.2430 -1.2940
19219SOL    HW269382   8.378   0.795   1.184 -0.7875  1.9764 -1.3823
19220SOL     OW69383  10.212   6.614   4.183  0.1606  0.0500  0.7149
19220SOL    HW169384  10.189   6.651   4.097  1.1245 -1.1267 -0.0934
19220SOL    HW269385  10.131   6.619   4.234 -0.8361 -0.5239 -0.7458
19221SOL     OW69386   0.083  11.086   7.080  0.6151 -0.2476  0.3190
19221SOL    HW169387   0.048  11.121   6.998 -1.0829 -1.7873  0.3161
19221SOL    HW269388   0.092  10.992   7.065 -0.2731 -0.6660  2.0267
19222SOL     OW69389   9.787   4.058   1.703 -0.0882  0.1023  0.7847
19222SOL    HW169390   9.712   4.104   1.667 -0.1521 -1.2473 -0.9686
19222SOL    HW269391   9.750   4.002   1.772 -1.0845 -1.7765 -1.1305
19223SOL     OW69392   2.654   0.561  10.963 -0.2805 -0.2629 -0.2778
19223SOL    HW169393   2.694   0.474  10.952  1.5376  0.3228  1.1228
19223SOL    HW269394   2.651   0.574  11.058 -0.8733  1.0645 -0.4566
19224SOL     OW69395   2.025   1.821   2.991  0.3311  0.3022 -0.2850
19224SOL    HW169396   1.995   1.760   3.059 -0.5354  1.6061  0.5433
19224SOL    HW269397   2.114   1.844   3.018 -0.2957  1.4488  0.9091
19225SOL     OW69398   0.838   5.501   7.550  0.2059 -0.5049 -0.8364
19225SOL    HW169399   0.890   5.557   7.493  1.5541  1.0379  1.7438
19225SOL    HW269400   0.765   5.556   7.578  0.8605 -0.4074  0.7423
19226SOL     OW69401   7.774   8.967   7.652 -0.3683  0.2077  0.2164
19226SOL    HW169402   7.702   8.960   7.715 -1.0504 -0.9631 -0.6638
19226SOL    HW269403   7.836   8.899   7.678 -0.0922  0.4806  0.2918
19227SOL     OW69404   2.472  11.708  11.792 -0.1190  0.1031 -0.9362
19227SOL    HW169405   2.384  11.692  11.759 -0.4832 -1.8000  0.8337
19227SOL    HW269406   2.528  11.696  11.715 -1.1728 -1.4584 -1.5086
19228SOL     OW69407   2.605   9.287   6.303  0.1807  0.0246 -0.1401
19228SOL    HW169408   2.700   9.279   6.288  0.6204  1.1418  1.6558
19228SOL    HW269409   2.568   9.206   6.268  1.8252 -0.5149 -0.7217
19229SOL     OW69410   9.345   9.483   8.575 -0.2734 -0.2551 -0.1975
19229SOL    HW169411   9.332   9.487   8.670  0.3104 -0.2502 -0.1166
19229SOL    HW269412   9.259   9.456   8.541 -0.8938  1.0978  0.2095
19230SOL     OW69413  10.163   9.275   8.412 -0.1739 -1.0551 -0.5049
19230SOL    HW169414  10.240   9.292   8.358 -0.6464  1.1498 -0.5698
19230SOL    HW269415  10.109   9.216   8.360 -0.5309  0.8658 -2.4601
19231SOL     OW69416  11.821  11.464   1.391 -0.2775 -0.0922  0.6046
19231SOL    HW169417  11.781  11.549   1.409 -1.2289 -0.7183  1.5707
19231SOL    HW269418  11.809  11.451   1.297 -1.1210  0.3538  0.6417
19232SOL     OW69419   9.299   0.735  11.226  0.2602 -0.2959 -0.5859
19232SOL    HW169420   9.380   0.734  11.276 -1.3406  0.7519  2.3467
19232SOL    HW269421   9.295   0.650  11.183  2.7518 -0.4519 -0.6193
19233SOL     OW69422   9.873  11.264   0.270  0.7043  0.8242 -0.2591
19233SOL    HW169423   9.909  11.255   0.359  0.8273  0.3463 -0.3554
19233SOL    HW269424   9.812  11.192   0.261  0.7384  0.8350 -0.5869
19234SOL     OW69425   1.041   1.021   2.571 -0.5300  0.1295  0.1325
19234SOL    HW169426   1.084   1.102   2.546 -0.8234  0.4296  0.5864
19234SOL    HW269427   1.098   0.984   2.638 -0.6604  0.2204  0.2946
19235SOL     OW69428   9.365   8.057   8.567  0.2683  0.1587 -0.0905
19235SOL    HW169429   9.378   7.998   8.641 -2.0781 -0.6176 -0.1976
19235SOL    HW269430   9.303   8.122   8.600 -0.7021 -0.1247 -1.2948
19236SOL     OW69431   5.105  11.553   9.239  0.1939 -0.7134  0.8791
19236SOL    HW169432   5.093  11.459   9.230  0.0415 -0.5585 -1.0261
19236SOL    HW269433   5.200  11.566   9.234  0.1732 -0.7173  0.4462
19237SOL     OW69434   0.044   9.215   5.045 -0.0776  0.0375  0.4648
19237SOL    HW169435   0.000   9.260   5.118 -1.1005 -0.9748  0.5060
19237SOL    HW269436   0.008   9.257   4.966 -2.2051 -1.6207  0.4495
19238SOL     OW69437   6.099   7.001   6.434 -0.0094  0.3841  0.0711
19238SOL    HW169438   6.047   6.923   6.451 -0.0652  0.5588  0.7253
19238SOL    HW269439   6.081   7.023   6.342 -1.2523  0.5732  0.3487
19239SOL     OW69440   2.364   9.124   7.570  0.5205 -0.0451  0.1649
19239SOL    HW169441   2.430   9.185   7.538  0.1536 -0.3830 -1.3724
19239SOL    HW269442   2.367   9.052   7.507 -1.8935  0.3465 -0.5170
19240SOL     OW69443   0.555   3.570   6.298  0.1600 -0.0189 -0.3358
19240SOL    HW169444   0.602   3.575   6.215  0.6804 -1.6079 -0.1728
19240SOL    HW269445   0.463   3.570   6.273  0.3109 -0.4376 -0.9134
19241SOL     OW69446   2.797   7.526   8.312  0.0689  0.7399  0.3597
19241SOL    HW169447   2.871   7.475   8.346  0.4810  1.3612  0.4088
19241SOL    HW269448   2.724   7.464   8.312  0.6659  0.0157 -0.0180
19242SOL     OW69449   4.105   8.011   6.297  0.0825 -0.2825 -0.5192
19242SOL    HW169450   4.193   8.013   6.259 -0.4994  0.8250 -1.8989
19242SOL    HW269451   4.057   7.947   6.243 -0.1450 -0.3758 -0.2114
19243SOL     OW69452   8.676   5.807  11.640  0.1710  0.4622 -0.6960
19243SOL    HW169453   8.751   5.768  11.684  0.2771  0.2245 -1.0763
19243SOL    HW269454   8.693   5.792  11.547 -0.1838  0.7042 -0.8016
19244SOL     OW69455   6.355   1.663   3.118 -0.2793 -0.6595 -0.3026
19244SOL    HW169456   6.316   1.649   3.032  0.3451  0.4607 -0.7963
19244SOL    HW269457   6.281   1.671   3.178 -0.9099  2.0801 -1.3100
19245SOL     OW69458  10.613   4.615   8.551  0.1584 -0.0073  0.0537
19245SOL    HW169459  10.634   4.655   8.635 -2.5140 -0.5656  1.0746
19245SOL    HW269460  10.650   4.675   8.486  2.4609  0.3319  1.5574
19246SOL     OW69461   9.890   7.689  10.298 -0.2307 -0.1883 -0.0224
19246SOL    HW169462   9.981   7.694  10.327 -0.6432  0.6530  1.2528
19246SOL    HW269463   9.890   7.731  10.212  0.3033  1.4994  0.7571
19247SOL     OW69464   1.809   0.225   1.771 -0.3268 -0.5904  0.1838
19247SOL    HW169465   1.856   0.146   1.798 -2.1508 -1.5726  0.6385
19247SOL    HW269466   1.866   0.297   1.798  1.3016 -1.7274 -0.0764
19248SOL     OW69467  10.386  10.899   9.752 -0.2975 -0.1842 -0.0618
19248SOL    HW169468  10.349  10.814   9.726 -0.5783  0.5876 -2.4358
19248SOL    HW269469  10.480  10.881   9.761 -0.3024 -0.6910 -0.8865
19249SOL     OW69470  10.799   4.106  10.654 -0.0617  0.6076  0.0695
19249SOL    HW169471  10.720   4.054  10.669  0.8339 -1.5259 -1.9781
19249SOL    HW269472  10.860   4.077  10.721  0.2344 -0.6388 -0.7061
19250SOL     OW69473   3.690   8.219   3.614  0.1114 -0.3799  0.0446
19250SOL    HW169474   3.757   8.210   3.681 -0.7996  0.9041  1.2132
19250SOL    HW269475   3.720   8.292   3.560  1.2552 -1.9488 -1.5116
19251SOL     OW69476   3.224   2.705   5.529  0.5899  1.3045  0.0192
19251SOL    HW169477   3.249   2.702   5.436 -2.6593 -1.1474 -1.0091
19251SOL    HW269478   3.155   2.772   5.533  0.3900  1.0740  0.5299
19252SOL     OW69479   1.678   0.702   9.386 -0.0381 -0.1332  0.3195
19252SOL    HW169480   1.667   0.607   9.397 -0.5884 -0.3278 -1.6210
19252SOL    HW269481   1.770   0.713   9.365  0.1287 -0.1626  0.9888
19253SOL     OW69482  10.685  11.717   4.760  0.2519  0.2853 -0.1367
19253SOL    HW169483  10.727  11.789   4.713  2.4657 -1.5747 -1.1775
19253SOL    HW269484  10.650  11.661   4.691  1.9307 -1.5558  0.4359
19254SOL     OW69485   4.124   4.745   6.430  0.2536  0.3163 -0.7690
19254SOL    HW169486   4.106   4.814   6.366  0.9278 -0.1192 -1.4506
19254SOL    HW269487   4.183   4.786   6.493 -0.4913  0.7781 -0.3553
19255SOL     OW69488   0.470   8.697   8.300 -0.0217 -0.7921 -0.0525
19255SOL    HW169489   0.563   8.720   8.311 -0.3496 -0.4471  2.8690
19255SOL    HW269490   0.422   8.774   8.332 -1.2338 -2.0671  1.3654
19256SOL     OW69491   0.139   0.147   6.015 -0.1739  0.0583  0.1228
19256SOL    HW169492   0.060   0.172   6.063  0.7234  0.9903  1.1776
19256SOL    HW269493   0.211   0.185   6.066  0.9330 -0.4139 -1.0348
19257SOL     OW69494   2.207   2.505   7.037 -0.3996  0.5609 -0.0748
19257SOL    HW169495   2.196   2.505   6.942 -0.8611 -1.5900 -0.0908
19257SOL    HW269496   2.215   2.412   7.060  3.0142  1.1501  1.6645
19258SOL     OW69497  10.423   5.086   4.306  0.0298  0.0159 -0.3507
19258SOL    HW169498  10.387   5.096   4.218 -0.0974 -0.9309 -0.4199
19258SOL    HW269499  10.517   5.096   4.295 -0.0154  0.2488 -0.5356
19259SOL     OW69500   1.794   6.104   9.211  0.4525 -0.5426 -0.4221
19259SOL    HW169501   1.887   6.114   9.193  0.4839  1.1147  0.5128
19259SOL    HW269502   1.762   6.193   9.226 -0.7583 -1.2666  1.7475
19260SOL     OW69503   9.187   1.497   1.108 -0.2964 -0.4746 -0.2278
19260SOL    HW169504   9.184   1.548   1.027  2.2064 -0.5768 -0.4529
19260SOL    HW269505   9.117   1.535   1.162  1.2168  3.0944 -0.4900
19261SOL     OW69506  10.183   5.623  11.256 -0.6922 -0.3616 -0.2257
19261SOL    HW169507  10.220   5.711  11.251  0.9527 -1.0725 -1.8519
19261SOL    HW269508  10.089   5.636  11.249 -0.3993  1.2086 -2.2514
19262SOL     OW69509   7.918   0.628   5.032  0.0714 -0.2503 -0.4873
19262SOL    HW169510   7.834   0.651   4.992 -0.0637 -0.7698 -0.5021
19262SOL    HW269511   7.902   0.635   5.126  0.6429  1.9016 -0.4892
19263SOL     OW69512  10.479   4.870   5.291 -0.2776  0.0466 -0.4600
19263SOL    HW169513  10.548   4.807   5.315 -0.6541 -0.5503 -0.9058
19263SOL    HW269514  10.459   4.915   5.373 -0.3856 -0.8102  0.0047
19264SOL     OW69515   8.494   1.371   4.288  0.1234 -0.5508  0.3697
19264SOL    HW169516   8.422   1.344   4.346  1.0717 -1.0911  1.3352
19264SOL    HW269517   8.542   1.291   4.270 -0.0472 -0.3504 -1.0512
19265SOL     OW69518  10.026   9.618   5.802  0.0842 -0.5080  0.2827
19265SOL    HW169519  10.043   9.546   5.741  1.4497 -1.8670  2.1339
19265SOL    HW269520   9.935   9.607   5.828  0.3751 -1.9043  0.8482
19266SOL     OW69521   5.541   2.822   9.384 -0.0912  0.2690 -0.1867
19266SOL    HW169522   5.552   2.750   9.322 -0.1045  0.1167 -0.0125
19266SOL    HW269523   5.523   2.898   9.329  0.2457  0.2042 -0.3896
19267SOL     OW69524   4.501   9.761   3.204 -0.0857  0.4326 -0.3533
19267SOL    HW169525   4.506   9.815   3.125  0.4097  0.6049 -0.2084
19267SOL    HW269526   4.512   9.823   3.276 -3.0023  0.6855  0.0010
19268SOL     OW69527   4.405   5.257   4.666 -0.2587  0.3421 -0.6951
19268SOL    HW169528   4.467   5.223   4.730 -0.4005  0.1203 -0.6762
19268SOL    HW269529   4.375   5.180   4.618  1.5002  0.7099 -2.5162
19269SOL     OW69530   4.414   8.308   5.582 -0.2839  0.7118 -0.2489
19269SOL    HW169531   4.506   8.288   5.569 -0.8960 -2.3559 -0.6216
19269SOL    HW269532   4.407   8.326   5.676  0.7460  1.6466 -0.3253
19270SOL     OW69533   6.150   2.647   7.227  0.0060 -0.5389 -0.1722
19270SOL    HW169534   6.071   2.689   7.259 -1.2429 -2.4945 -0.5667
19270SOL    HW269535   6.219   2.713   7.240 -1.7233  1.3595 -0.2057
19271SOL     OW69536   6.533   5.391   8.365 -0.1113 -0.2153  0.2886
19271SOL    HW169537   6.500   5.331   8.431 -0.7691  0.0593  0.2211
19271SOL    HW269538   6.521   5.345   8.282  2.1238 -1.1814  0.4562
19272SOL     OW69539   8.472   8.429  11.417 -0.1277  0.1600 -0.1713
19272SOL    HW169540   8.564   8.452  11.410 -0.4060  1.3914 -0.0861
19272SOL    HW269541   8.458   8.360  11.352  0.7040  0.4206 -0.6279
19273SOL     OW69542   7.260   6.702   0.493 -0.1127 -0.0355 -0.4422
19273SOL    HW169543   7.318   6.695   0.569 -0.5847 -0.6742 -0.1413
19273SOL    HW269544   7.285   6.630   0.437 -1.0366 -0.7102 -0.0160
19274SOL     OW69545   4.792   0.742   3.561 -0.2026 -0.1731 -0.3288
19274SOL    HW169546   4.749   0.677   3.616 -1.6220  0.8795 -0.1261
19274SOL    HW269547   4.829   0.805   3.623  0.4289 -0.3264 -0.5410
19275SOL     OW69548   2.539   7.293   6.049 -0.2670 -0.3755  1.0756
19275SOL    HW169549   2.562   7.381   6.019  0.5165  0.0875  2.8891
19275SOL    HW269550   2.624   7.251   6.065 -0.6327 -0.6239  2.4652
19276SOL     OW69551   4.154   6.753   2.267 -0.1704 -0.5271 -0.2174
19276SOL    HW169552   4.244   6.733   2.240  0.4958  1.1914  0.5743
19276SOL    HW269553   4.122   6.673   2.308  0.9710 -1.1821 -0.5750
19277SOL     OW69554   6.435   1.722   5.323 -0.3546 -0.3898 -0.3126
19277SOL    HW169555   6.430   1.732   5.228  0.4827 -1.3306 -0.4690
19277SOL    HW269556   6.481   1.800   5.353 -0.6161 -0.0933 -0.6752
19278SOL     OW69557  11.900   6.084   9.863  0.3319 -0.0126  0.3487
19278SOL    HW169558  11.897   6.101   9.769 -0.1992  0.8287  0.5068
19278SOL    HW269559  11.939   5.997   9.871 -2.6767 -1.6529 -0.8817
19279SOL     OW69560   8.059   4.742   7.003  0.0479  0.2414  0.0598
19279SOL    HW169561   8.012   4.821   6.977  0.1720 -0.0886 -1.2141
19279SOL    HW269562   8.005   4.704   7.073  0.1092  1.5613  0.8442
19280SOL     OW69563  11.887  10.392   4.058 -0.8069 -0.1599  0.1971
19280SOL    HW169564  11.795  10.372   4.041 -1.0156  0.7158  0.2311
19280SOL    HW269565  11.921  10.420   3.974 -0.2134 -1.7037 -0.1158
19281SOL     OW69566   5.158   9.180  11.616 -0.0426  0.2966  0.2198
19281SOL    HW169567   5.201   9.168  11.531  1.5862 -1.0620  1.1600
19281SOL    HW269568   5.106   9.260  11.606 -2.4792 -1.4593 -3.0167
19282SOL     OW69569   0.994   3.411   2.456 -0.2472  0.9127  0.4508
19282SOL    HW169570   0.928   3.389   2.520  0.7053  0.4524  1.3085
19282SOL    HW269571   0.993   3.337   2.394 -0.0169  0.5285  0.8966
19283SOL     OW69572   9.876   5.213   8.614  0.3741 -0.3134 -0.2372
19283SOL    HW169573   9.873   5.306   8.593  0.8517 -0.7320 -2.4137
19283SOL    HW269574   9.822   5.171   8.547  0.7271 -1.6566  0.2765
19284SOL     OW69575   0.720   4.318   5.795 -0.1324  0.3586 -0.4007
19284SOL    HW169576   0.771   4.284   5.721  0.2814 -0.3652  0.2026
19284SOL    HW269577   0.784   4.336   5.863 -0.6434 -0.4921  0.3421
19285SOL     OW69578   8.015  11.938   8.089 -0.0009 -0.1306 -0.5858
19285SOL    HW169579   8.033  11.909   8.178 -2.2325 -0.1915 -0.0970
19285SOL    HW269580   8.101  11.943   8.047  1.1113  0.0555  1.6003
19286SOL     OW69581   2.176   0.102   5.399 -0.0210 -0.1284  0.6203
19286SOL    HW169582   2.227   0.181   5.387 -0.1860 -0.1884 -0.5855
19286SOL    HW269583   2.086   0.133   5.410 -0.4727 -0.1811 -2.2098
19287SOL     OW69584   1.834  11.386   7.878  0.0124  0.1864 -0.2488
19287SOL    HW169585   1.870  11.470   7.908  1.2068 -0.3901  0.0120
19287SOL    HW269586   1.910  11.327   7.877 -0.6946 -0.7383 -0.9959
19288SOL     OW69587  11.577   7.161   0.938  0.5353 -0.0664  0.3524
19288SOL    HW169588  11.555   7.136   0.849  1.0775  1.4729 -0.2533
19288SOL    HW269589  11.670   7.185   0.934  0.9029 -1.1414  1.6160
19289SOL     OW69590   9.616   5.325   0.368  0.2273 -0.4260 -0.3291
19289SOL    HW169591   9.580   5.237   0.359  3.5236 -2.0508  0.7342
19289SOL    HW269592   9.608   5.345   0.461  0.2904  0.0408 -0.4198
19290SOL     OW69593   4.489   6.499   3.046 -0.4237 -0.9398 -0.2948
19290SOL    HW169594   4.493   6.488   2.951 -0.4463 -0.5847 -0.3386
19290SOL    HW269595   4.564   6.450   3.079  1.6859  1.7823 -0.7536
19291SOL     OW69596   1.646   8.908   6.306  0.0440 -0.4680  0.1546
19291SOL    HW169597   1.597   8.826   6.315 -0.7638 -0.2070 -1.4224
19291SOL    HW269598   1.642   8.948   6.393 -0.7246 -1.4718  0.6027
19292SOL     OW69599   2.292   3.057   5.999 -0.1177 -0.4386 -0.4075
19292SOL    HW169600   2.275   3.033   6.090 -1.4341  0.3656 -0.4108
19292SOL    HW269601   2.383   3.085   5.998  0.3947 -1.9723  0.3109
19293SOL     OW69602  10.625   2.273   4.490  0.7323 -0.1176 -0.1774
19293SOL    HW169603  10.635   2.350   4.433 -1.4006 -0.5700 -1.2599
19293SOL    HW269604  10.637   2.199   4.432  0.6568 -0.6067  0.4217
19294SOL     OW69605  11.815   8.426   5.869 -0.0073 -0.1802 -0.0083
19294SOL    HW169606  11.882   8.365   5.901 -0.1533  0.8254  2.3732
19294SOL    HW269607  11.852   8.513   5.886 -0.4522  0.4316 -1.9548
19295SOL     OW69608  10.127  10.818   2.738 -0.4347  0.0973 -0.3582
19295SOL    HW169609  10.214  10.816   2.778 -0.2526  0.8546 -0.6833
19295SOL    HW269610  10.104  10.726   2.725  0.2105 -0.1170 -0.0441
19296SOL     OW69611   3.616  11.497   2.902 -0.5715 -0.4002  0.8896
19296SOL    HW169612   3.635  11.541   2.819  1.4685 -2.4815  0.1648
19296SOL    HW269613   3.624  11.567   2.968  0.1266  0.8137 -0.4203
19297SOL     OW69614   9.208  10.657   0.739  0.2256 -0.2726 -0.4291
19297SOL    HW169615   9.137  10.663   0.675  0.9491 -0.3200 -1.2610
19297SOL    HW269616   9.245  10.745   0.743 -0.6163  0.0440  0.8961
19298SOL     OW69617   0.231   0.915  10.807  0.4785 -0.3562  0.6351
19298SOL    HW169618   0.228   0.829  10.764  1.6380 -1.0974  1.9821
19298SOL    HW269619   0.302   0.961  10.763  0.3591 -0.3676  0.4270
19299SOL     OW69620  10.392   2.672   5.056  0.4280  1.0664 -0.2082
19299SOL    HW169621  10.422   2.725   5.129 -0.6508 -0.1057  1.1407
19299SOL    HW269622  10.311   2.632   5.087  0.7231 -0.6388 -1.5048
19300SOL     OW69623   7.060   9.644  10.575  0.1219  0.3741  0.0010
19300SOL    HW169624   7.018   9.622  10.492 -1.5332  1.0463  0.6256
19300SOL    HW269625   7.137   9.696  10.550 -1.5371  2.4690 -1.0897
19301SOL     OW69626   9.975   3.697   5.870 -0.0779  0.0838 -0.4943
19301SOL    HW169627   9.984   3.725   5.779  0.7845 -1.4070 -0.9118
19301SOL    HW269628  10.048   3.739   5.915  0.3446 -0.2931 -0.8115
19302SOL     OW69629   5.863   7.455   7.199 -0.6414 -0.1688 -0.0114
19302SOL    HW169630   5.821   7.446   7.113  1.7191  0.3078 -1.3028
19302SOL    HW269631   5.952   7.422   7.185  0.0892  0.7977  2.0197
19303SOL     OW69632   9.101   0.941   5.188  0.5776 -0.1559  0.8318
19303SOL    HW169633   9.049   1.007   5.142  0.8482  1.2629  2.4409
19303SOL    HW269634   9.037   0.892   5.240  0.2717 -1.7583 -0.9550
19304SOL     OW69635   3.182  10.328   1.437  0.2083 -0.0622  0.1027
19304SOL    HW169636   3.164  10.318   1.530 -0.3426 -0.1991 -0.0137
19304SOL    HW269637   3.142  10.411   1.414  1.7144  0.7453  0.3157
19305SOL     OW69638   6.096   9.680  11.496  0.2180  0.6775 -0.3817
19305SOL    HW169639   6.165   9.625  11.458  0.1170  0.0814  0.2593
19305SOL    HW269640   6.140   9.763  11.514  1.4422 -0.3780  2.0459
19306SOL     OW69641   3.993   7.350   4.946  0.2082 -0.0098  0.2955
19306SOL    HW169642   4.004   7.441   4.974 -2.0235 -1.1312  6.2291
19306SOL    HW269643   3.908   7.349   4.902  0.4006  0.7393 -0.1255
19307SOL     OW69644   7.941  11.699   5.629  0.2954 -0.1232  0.2021
19307SOL    HW169645   7.937  11.792   5.605  0.9679  0.2560  1.4154
19307SOL    HW269646   7.850  11.671   5.633  0.0057  0.8431  1.0171
19308SOL     OW69647   3.127  11.953   5.126  0.3699  0.3711 -0.0803
19308SOL    HW169648   3.058  11.995   5.074  0.8673 -0.5903 -1.5905
19308SOL    HW269649   3.204  12.006   5.111  0.1494  1.0064  0.9896
19309SOL     OW69650  11.195   3.990   1.210 -0.1800  0.4406 -0.6097
19309SOL    HW169651  11.151   3.916   1.167  0.5842 -0.0046 -0.6450
19309SOL    HW269652  11.280   3.996   1.165  0.2469  0.5743  0.1943
19310SOL     OW69653   9.436   6.878   1.171 -0.1229  0.4507  0.4320
19310SOL    HW169654   9.499   6.806   1.171  0.2676  0.6523 -2.7555
19310SOL    HW269655   9.354   6.839   1.201  0.6816 -0.6525  1.2856
19311SOL     OW69656   3.899   7.970   6.035  0.4499 -0.3925 -0.1643
19311SOL    HW169657   3.840   7.931   5.971 -0.4384 -0.9072  0.9386
19311SOL    HW269658   3.985   7.968   5.993 -0.1903 -0.2227 -1.5414
19312SOL     OW69659   8.234   9.258   5.913 -0.0649  0.0094  0.0111
19312SOL    HW169660   8.260   9.210   5.833 -1.2290 -0.5385 -0.0622
19312SOL    HW269661   8.311   9.253   5.969  0.6584  0.0970 -0.9373
19313SOL     OW69662   4.302   0.899   8.720  0.0349 -0.2905  0.3484
19313SOL    HW169663   4.245   0.880   8.794 -1.7457 -0.0956 -0.8965
19313SOL    HW269664   4.312   0.994   8.721 -0.4358 -0.2354  0.0386
19314SOL     OW69665   3.393  10.442   5.269  0.0073 -0.3457 -0.2498
19314SOL    HW169666   3.326  10.450   5.338 -0.0031 -0.0934 -0.2879
19314SOL    HW269667   3.371  10.360   5.224  1.2913 -1.6591  1.4087
19315SOL     OW69668  10.773   2.468   1.795  0.2771 -0.1512 -0.6728
19315SOL    HW169669  10.745   2.443   1.707 -1.1194  0.8443 -0.5503
19315SOL    HW269670  10.763   2.388   1.847 -0.7391 -0.2613 -1.0175
19316SOL     OW69671  10.107   4.818   0.757 -0.4887  0.5070  0.6760
19316SOL    HW169672  10.119   4.856   0.671 -2.7539  0.3694  0.2350
19316SOL    HW269673  10.164   4.741   0.758 -0.3855  0.5576 -0.6651
19317SOL     OW69674   1.647   3.358   8.867  0.2785  0.7618 -0.3004
19317SOL    HW169675   1.630   3.434   8.923 -0.5060  0.0429  0.4546
19317SOL    HW269676   1.578   3.361   8.801 -1.0016 -0.3946  0.9195
19318SOL     OW69677  11.729   4.573  10.719 -0.1526 -0.2765  0.2979
19318SOL    HW169678  11.679   4.501  10.680 -0.8630 -0.1519  0.9620
19318SOL    HW269679  11.693   4.582  10.807  0.1939  0.6429  0.3529
19319SOL     OW69680   5.226   2.063   8.487  0.2280  0.3056 -0.2614
19319SOL    HW169681   5.245   1.993   8.550  0.2407  0.5953  0.0631
19319SOL    HW269682   5.251   2.027   8.402 -0.4799 -0.3606 -0.1970
19320SOL     OW69683   3.638  11.628   1.264  0.4421  0.6888  0.1000
19320SOL    HW169684   3.553  11.659   1.294  0.6044  0.4696  0.8256
19320SOL    HW269685   3.624  11.603   1.173 -1.4340 -3.3234  1.2411
19321SOL     OW69686   2.485   6.731   9.604  0.9990  0.2495 -0.5374
19321SOL    HW169687   2.546   6.658   9.605 -0.1179 -0.7207  0.9388
19321SOL    HW269688   2.416   6.706   9.665 -0.3825  1.7325 -1.4061
19322SOL     OW69689  11.394   2.071   6.428 -0.3884  0.3663  0.3313
19322SOL    HW169690  11.380   2.157   6.467 -0.9075  1.0976 -1.3518
19322SOL    HW269691  11.445   2.089   6.349 -1.2218 -0.7581 -0.4890
19323SOL     OW69692   5.647  10.830   4.513 -0.3621 -0.2039 -0.3904
19323SOL    HW169693   5.640  10.735   4.503 -1.5235 -0.2978  1.0384
19323SOL    HW269694   5.732  10.844   4.554 -0.3158 -0.6571 -0.3265
19324SOL     OW69695   1.825   5.173   4.615 -0.4112  0.0085  0.5035
19324SOL    HW169696   1.786   5.253   4.651 -1.4866 -0.5619  0.6690
19324SOL    HW269697   1.777   5.102   4.658 -0.0907 -0.7141 -0.3027
19325SOL     OW69698   2.243   9.791   5.116  0.0337  0.0470  0.1462
19325SOL    HW169699   2.204   9.785   5.204 -0.3709 -0.1914 -0.0473
19325SOL    HW269700   2.337   9.786   5.132  0.0071  0.9423  0.6443
19326SOL     OW69701   9.935   3.117   8.929 -0.1489 -0.0141  0.1975
19326SOL    HW169702   9.954   3.087   9.018 -0.3190 -0.7655 -0.0107
19326SOL    HW269703   9.841   3.137   8.931 -0.4881 -1.4266 -0.1781
19327SOL     OW69704   1.404   8.168   7.567  0.1121 -0.1473 -0.0684
19327SOL    HW169705   1.439   8.086   7.604 -1.9808 -1.4546 -0.8108
19327SOL    HW269706   1.447   8.176   7.482  0.6789 -0.2085  0.2059
19328SOL     OW69707   5.763   0.702   3.448  0.4385  0.4465 -0.0034
19328SOL    HW169708   5.856   0.717   3.465  0.4367 -0.4657  0.9367
19328SOL    HW269709   5.757   0.609   3.427 -0.1980  0.6115 -0.5898
19329SOL     OW69710  10.580   8.431   7.619 -0.3949  0.1876  0.2341
19329SOL    HW169711  10.596   8.369   7.691  0.0708 -0.6710 -0.5905
19329SOL    HW269712  10.629   8.509   7.645  0.4278 -0.3897  0.4885
19330SOL     OW69713   9.446   5.729  11.205 -0.3549 -0.2458  0.3401
19330SOL    HW169714   9.436   5.812  11.157  1.7604 -0.5097 -0.6935
19330SOL    HW269715   9.539   5.726  11.228 -0.2346 -2.5706 -0.1598
19331SOL     OW69716   0.878   0.320   9.466 -0.0849  0.1431 -0.0917
19331SOL    HW169717   0.815   0.350   9.532  0.3022 -0.7965  0.7422
19331SOL    HW269718   0.853   0.229   9.448 -0.0641  0.3281 -1.1133
19332SOL     OW69719   3.999   5.911   1.288  0.3042 -0.4035 -0.2489
19332SOL    HW169720   3.996   6.002   1.318 -0.9220 -0.5567  0.1348
19332SOL    HW269721   3.957   5.913   1.202  0.9947 -0.4864 -0.5967
19333SOL     OW69722   7.866   1.421   8.213 -0.0205  0.2645  0.1366
19333SOL    HW169723   7.794   1.483   8.223  1.9049  2.6774 -0.2516
19333SOL    HW269724   7.896   1.403   8.302  1.7225  2.8167  0.1317
19334SOL     OW69725  10.719   1.788   1.427 -0.1024  0.4907  0.6447
19334SOL    HW169726  10.753   1.719   1.484 -1.9602 -0.1597  1.0262
19334SOL    HW269727  10.677   1.850   1.487  0.7668  1.5228  0.2237
19335SOL     OW69728   6.376   2.377  11.172 -0.1749 -0.1773 -0.0199
19335SOL    HW169729   6.289   2.355  11.204  0.5407 -1.5539  1.0492
19335SOL    HW269730   6.362   2.453  11.115 -2.0348 -0.2766  0.2597
19336SOL     OW69731  11.704  11.261   1.549 -0.0402 -0.6186 -0.3711
19336SOL    HW169732  11.755  11.329   1.505 -0.4361  0.0295  0.1687
19336SOL    HW269733  11.770  11.206   1.591  0.2313  0.9710  1.4456
19337SOL     OW69734   9.172  11.260  10.003 -0.0795 -0.0084 -0.3444
19337SOL    HW169735   9.130  11.208   9.935 -1.1330 -0.2238  0.4349
19337SOL    HW269736   9.137  11.348   9.992 -1.9197 -0.4803  1.1737
19338SOL     OW69737   5.219  10.786   8.594 -0.2739  0.1288 -0.0025
19338SOL    HW169738   5.204  10.704   8.546 -0.9541  0.1102  0.2290
19338SOL    HW269739   5.310  10.780   8.624 -0.4125 -0.6819  0.2757
19339SOL     OW69740   5.908   3.499   7.098  0.7231 -0.0677  0.0282
19339SOL    HW169741   5.892   3.569   7.036 -1.5518  0.7588  1.4180
19339SOL    HW269742   5.837   3.436   7.083 -0.2951  0.4829  2.1500
19340SOL     OW69743   6.261   9.762   9.954 -0.6024 -0.1247  0.1816
19340SOL    HW169744   6.301   9.678   9.972 -1.0816 -0.2909  0.4907
19340SOL    HW269745   6.179   9.740   9.909 -0.5070  0.1936 -0.1571
19341SOL     OW69746   6.844   9.290   6.619 -0.5974 -0.5757 -0.2154
19341SOL    HW169747   6.910   9.248   6.564 -0.1368  1.1210 -1.0336
19341SOL    HW269748   6.861   9.258   6.707  1.4878 -0.0050 -0.3675
19342SOL     OW69749   9.021   1.697   6.819  0.2112 -0.6240 -0.4126
19342SOL    HW169750   8.967   1.710   6.741  2.2826 -2.1449 -2.2156
19342SOL    HW269751   9.097   1.754   6.807  1.0919 -1.6911 -0.0709
19343SOL     OW69752   4.195   7.079   3.841 -0.3753 -0.1824  0.1036
19343SOL    HW169753   4.104   7.111   3.845 -0.4488 -0.3067 -0.5483
19343SOL    HW269754   4.247   7.158   3.827 -0.3414 -0.0577  0.9015
19344SOL     OW69755   8.220  11.507   5.020 -0.6461  0.2283 -0.6937
19344SOL    HW169756   8.163  11.537   5.091 -0.4418 -1.0697  0.0618
19344SOL    HW269757   8.173  11.433   4.981  0.7048 -1.2694  0.3357
19345SOL     OW69758   8.650   5.460  11.547  0.1784  0.1907 -0.3778
19345SOL    HW169759   8.557   5.444  11.531  0.2812 -0.6507 -0.1953
19345SOL    HW269760   8.695   5.388  11.502  0.7366  0.5292 -0.3765
19346SOL     OW69761   4.981   0.026   4.969  0.3031  0.3156 -0.3732
19346SOL    HW169762   4.900   0.032   4.920 -0.1830 -0.5916  0.2774
19346SOL    HW269763   5.048   0.004   4.904 -0.2903 -0.6601 -0.6759
19347SOL     OW69764   0.452   4.119   6.783 -0.2392  0.2829 -0.0294
19347SOL    HW169765   0.513   4.191   6.766  0.0115  0.4987  1.6719
19347SOL    HW269766   0.506   4.040   6.780 -0.6395  0.0093 -2.6572
19348SOL     OW69767  11.121   1.941   7.195  0.3855  0.1731 -0.8844
19348SOL    HW169768  11.128   1.852   7.228  1.4878  0.2688 -0.8250
19348SOL    HW269769  11.028   1.962   7.203  0.3898 -0.3213  0.7931
19349SOL     OW69770   3.831   4.413   0.738  0.2714 -0.1238  0.0487
19349SOL    HW169771   3.912   4.448   0.700  1.2859 -0.4348  1.8130
19349SOL    HW269772   3.847   4.320   0.747  0.0617 -0.0665  1.1866
19350SOL     OW69773  11.428   5.248   0.507  0.4640 -0.5044 -0.5884
19350SOL    HW169774  11.352   5.190   0.506  1.4611 -1.8475 -1.0423
19350SOL    HW269775  11.493   5.204   0.453  1.6171  0.5648 -0.1247
19351SOL     OW69776   6.007   9.577   0.003  0.0856  0.0742 -0.1925
19351SOL    HW169777   6.017   9.485   0.028 -1.4758 -0.6348 -1.9898
19351SOL    HW269778   6.090   9.599  -0.039 -0.1998 -1.1516 -1.4962
19352SOL     OW69779   6.951   7.058   2.550  0.1408 -0.0436  0.4336
19352SOL    HW169780   6.941   6.972   2.509  1.9360 -0.6251  1.0993
19352SOL    HW269781   6.940   7.120   2.478  1.2894 -0.9709 -0.5949
19353SOL     OW69782   4.882   6.362   9.025 -0.0896 -0.0802 -0.5619
19353SOL    HW169783   4.870   6.289   8.964 -0.4541  0.5507 -1.2607
19353SOL    HW269784   4.810   6.422   9.005  0.2625  0.5175 -0.0593
19354SOL     OW69785   5.184  11.674  11.757  0.1095 -0.0943 -0.1251
19354SOL    HW169786   5.267  11.628  11.749  0.6029  0.8034 -0.2797
19354SOL    HW269787   5.121  11.606  11.780  0.6418 -0.9946 -1.2526
19355SOL     OW69788   6.215   2.885   7.793  0.5731  0.1343  0.2785
19355SOL    HW169789   6.173   2.971   7.801 -0.6846 -0.4207 -0.0790
19355SOL    HW269790   6.212   2.866   7.699 -3.0675 -2.1114  0.6719
19356SOL     OW69791  11.392   4.688   6.433 -0.1409  0.2089 -0.2179
19356SOL    HW169792  11.367   4.630   6.362 -0.2884  2.5165 -2.1725
19356SOL    HW269793  11.425   4.767   6.390  2.8499  0.5117  2.2555
19357SOL     OW69794   3.814   9.612   4.613  0.1736  0.0172  0.1605
19357SOL    HW169795   3.772   9.684   4.660  0.1412 -1.0575  1.8699
19357SOL    HW269796   3.799   9.631   4.520 -0.9948  1.4892  0.6213
19358SOL     OW69797   5.678  11.671   1.314  0.1708 -0.7148 -0.7051
19358SOL    HW169798   5.745  11.608   1.343 -0.0551 -1.0450 -0.8917
19358SOL    HW269799   5.728  11.745   1.280  0.4700 -1.4903 -2.0166
19359SOL     OW69800   5.115   3.071   5.946 -0.0368 -0.2997  0.1104
19359SOL    HW169801   5.082   3.013   5.878 -2.0955  0.0121  0.7727
19359SOL    HW269802   5.064   3.048   6.024 -0.7342  2.1669  0.4559
19360SOL     OW69803   4.422   8.397   5.190 -0.0882 -0.1354  0.1427
19360SOL    HW169804   4.490   8.389   5.256 -0.0827 -0.0751  0.1449
19360SOL    HW269805   4.342   8.416   5.239 -0.0416  0.1358  0.1183
19361SOL     OW69806  10.726   7.037  10.505  0.5007  0.8152 -0.3634
19361SOL    HW169807  10.765   7.078  10.582  1.5274  1.0544 -0.9952
19361SOL    HW269808  10.737   6.943  10.520 -1.3617  0.7354  0.8271
19362SOL     OW69809   9.071   8.108   6.335 -0.0482  0.3527 -0.0515
19362SOL    HW169810   9.034   8.149   6.413 -0.1574 -0.7921  0.5122
19362SOL    HW269811   9.023   8.027   6.325  1.2672 -0.4406 -0.1841
19363SOL     OW69812  10.070   3.914   2.645 -0.2370 -0.9938 -0.0380
19363SOL    HW169813   9.983   3.940   2.614  0.4586  0.0885 -1.1743
19363SOL    HW269814  10.120   3.898   2.565  1.2511  0.6200  0.5241
19364SOL     OW69815   5.346   6.062   0.280  0.2199 -0.3470 -0.0080
19364SOL    HW169816   5.281   6.010   0.328 -0.6605  0.5226 -0.2108
19364SOL    HW269817   5.398   6.105   0.347 -0.0922 -0.2484  0.1744
19365SOL     OW69818  10.481   7.124   1.214  0.4796  0.4084 -0.2266
19365SOL    HW169819  10.574   7.117   1.236  0.4324 -0.0836 -0.1622
19365SOL    HW269820  10.466   7.053   1.151  0.0568  0.2226  0.0806
19366SOL     OW69821  10.944   2.590   2.091 -0.3471 -0.5232 -0.2178
19366SOL    HW169822  10.965   2.501   2.062 -2.0982 -1.2275  0.5057
19366SOL    HW269823  10.849   2.598   2.076 -0.3841  0.9052  0.5708
19367SOL     OW69824   3.180   4.048   7.326 -0.2047 -0.1870  0.1299
19367SOL    HW169825   3.091   4.014   7.335 -0.3920  0.1474 -0.3858
19367SOL    HW269826   3.197   4.093   7.408  0.3304 -2.1410  1.1381
19368SOL     OW69827   3.873   5.713   5.533 -0.0312  0.0667  0.5766
19368SOL    HW169828   3.861   5.621   5.559  1.3036 -0.1360  0.5710
19368SOL    HW269829   3.888   5.759   5.615  4.6237 -0.6440  0.3869
19369SOL     OW69830   3.675   0.382   2.987 -0.0144  0.1442  0.1478
19369SOL    HW169831   3.769   0.364   2.988 -0.3523 -1.7728  0.8523
19369SOL    HW269832   3.635   0.302   3.021 -1.8965  1.0103  0.0642
19370SOL     OW69833  10.787   9.256   2.104 -0.0993 -0.1235 -0.2351
19370SOL    HW169834  10.867   9.279   2.056 -0.5667  0.2839 -0.8369
19370SOL    HW269835  10.801   9.290   2.192  0.9514 -1.2548  0.0601
19371SOL     OW69836   0.141   0.342  11.294  0.5187 -0.1959  0.0506
19371SOL    HW169837   0.158   0.284  11.368 -0.6292  0.1435  0.6012
19371SOL    HW269838   0.061   0.389  11.318  1.1342  1.2474 -0.6078
19372SOL     OW69839  10.048   6.267   0.555  0.1302  0.1153 -0.3229
19372SOL    HW169840  10.060   6.189   0.610  1.4546  0.3265 -0.2865
19372SOL    HW269841   9.955   6.289   0.565 -0.2590 -1.4050 -0.2692
19373SOL     OW69842   0.592   8.790  10.790  0.3423 -0.2608 -0.0763
19373SOL    HW169843   0.642   8.796  10.709 -1.7829  1.1665 -1.3615
19373SOL    HW269844   0.591   8.879  10.824 -0.0857 -0.5589  0.7132
19374SOL     OW69845   1.181   5.714   5.630  0.4588 -0.1489 -0.3590
19374SOL    HW169846   1.203   5.718   5.723 -0.6160  1.7271 -0.1163
19374SOL    HW269847   1.193   5.804   5.599  1.2957 -0.8429 -2.1815
19375SOL     OW69848   1.421   4.967   3.610 -0.3346 -0.2892  0.0343
19375SOL    HW169849   1.350   4.955   3.673 -1.2872 -2.2050 -1.2633
19375SOL    HW269850   1.450   5.057   3.622  0.0446 -0.7637  3.6623
19376SOL     OW69851  10.484   8.407  10.037  0.8961 -0.2613 -0.2189
19376SOL    HW169852  10.436   8.471   9.984 -1.6766 -3.6694 -2.4615
19376SOL    HW269853  10.554   8.377   9.980  1.0423 -0.6033  0.1398
19377SOL     OW69854   1.345   0.526   6.281  0.1601  0.2383 -0.1962
19377SOL    HW169855   1.331   0.577   6.361  2.5236 -0.2141  0.5984
19377SOL    HW269856   1.302   0.442   6.298 -0.0478  0.4326  0.2587
19378SOL     OW69857   8.972  11.403   6.793  0.2458 -0.2846  0.2458
19378SOL    HW169858   8.985  11.324   6.741 -1.8837 -1.1586  0.9442
19378SOL    HW269859   9.001  11.378   6.881  3.6471  1.1282 -0.3152
19379SOL     OW69860  11.315   5.003   3.701  0.1987  0.2166 -0.1346
19379SOL    HW169861  11.381   4.968   3.641  0.5457 -0.0194  0.3824
19379SOL    HW269862  11.360   5.011   3.785 -0.7071 -0.9101  0.4755
19380SOL     OW69863   1.143  10.644  10.641  0.4644 -0.2745  0.3600
19380SOL    HW169864   1.128  10.725  10.594 -0.2569 -0.3041  0.5293
19380SOL    HW269865   1.182  10.585  10.576  2.2146  0.5901  0.5554
19381SOL     OW69866   1.555   7.312   4.641  0.0998 -0.1067 -0.2929
19381SOL    HW169867   1.510   7.394   4.619 -1.1146 -0.2627  1.3778
19381SOL    HW269868   1.625   7.338   4.700 -0.0365 -0.2054 -0.0824
19382SOL     OW69869   4.422   4.444   2.045  0.0450  0.0559 -0.3430
19382SOL    HW169870   4.503   4.412   2.083 -1.4072 -1.8361  1.3756
19382SOL    HW269871   4.423   4.539   2.062  1.3285 -0.1154  0.7205
19383SOL     OW69872   4.205   9.806   1.017  0.0643 -0.3184  0.8543
19383SOL    HW169873   4.138   9.772   1.076 -1.6785  0.8780 -0.3299
19383SOL    HW269874   4.222   9.895   1.050 -0.1936 -0.0089  0.1734
19384SOL     OW69875  11.658   1.979   1.878  0.3058 -0.4374  0.5544
19384SOL    HW169876  11.714   2.054   1.899 -0.4007  0.2401  0.0720
19384SOL    HW269877  11.574   1.999   1.919 -0.6639  0.2495 -1.5955
19385SOL     OW69878   1.140   5.872   5.348  0.4400 -0.0236 -0.1256
19385SOL    HW169879   1.207   5.827   5.297  0.3268  1.6243 -1.8490
19385SOL    HW269880   1.058   5.832   5.319  0.4840 -0.1244 -0.1116
19386SOL     OW69881   2.072   3.423  11.945 -0.0735  0.2677 -0.0061
19386SOL    HW169882   2.063   3.501  11.889  1.5242 -0.1154 -0.8537
19386SOL    HW269883   2.053   3.349  11.887  0.8905 -0.0951  0.1200
19387SOL     OW69884   3.602   9.511   8.405 -0.0239 -0.3214  0.0921
19387SOL    HW169885   3.551   9.592   8.405  0.0226 -0.2737 -1.1150
19387SOL    HW269886   3.539   9.443   8.426 -0.3611 -0.1328 -0.2972
19388SOL     OW69887   6.953  11.566  11.153 -0.5064  0.5269  0.3123
19388SOL    HW169888   7.029  11.540  11.206  0.2014  1.1231 -0.3716
19388SOL    HW269889   6.991  11.617  11.081 -1.4922  0.1730 -0.4837
19389SOL     OW69890   5.202   9.286   4.057  0.7349  0.0598 -0.1186
19389SOL    HW169891   5.246   9.213   4.101  0.2891 -0.5920 -0.7294
19389SOL    HW269892   5.260   9.309   3.984  0.9291  0.4003  0.1380
19390SOL     OW69893   3.104   3.846   1.842  0.1931  0.5191  0.0264
19390SOL    HW169894   3.160   3.802   1.905 -0.4458 -0.3716 -0.0030
19390SOL    HW269895   3.117   3.797   1.760  0.2892  1.0578 -0.2833
19391SOL     OW69896  11.404   4.017   1.781 -0.1174 -0.1693  0.6409
19391SOL    HW169897  11.383   4.100   1.824  0.9194  0.2296  0.3986
19391SOL    HW269898  11.419   3.956   1.854 -1.5180 -0.3384  0.8211
19392SOL     OW69899   8.130   7.397   3.218  0.0350  0.1052 -0.6831
19392SOL    HW169900   8.060   7.455   3.248 -0.4434 -0.4405 -0.7250
19392SOL    HW269901   8.103   7.372   3.129  0.5292  0.2767 -0.8826
19393SOL     OW69902   3.779   0.267   4.561 -0.0741  0.7444  0.4567
19393SOL    HW169903   3.684   0.254   4.568 -0.3691  3.1360  1.6688
19393SOL    HW269904   3.791   0.309   4.476 -0.0217  0.0337  0.1031
19394SOL     OW69905   6.488  11.664   7.466 -0.1374 -0.4290 -0.1279
19394SOL    HW169906   6.567  11.611   7.467 -0.5044 -1.0209  1.5386
19394SOL    HW269907   6.509  11.740   7.520 -0.4970 -0.2568 -0.2242
19395SOL     OW69908   5.714  11.959   7.362 -0.2093 -0.2833  0.4387
19395SOL    HW169909   5.808  11.961   7.346 -0.3963 -0.2895 -0.7187
19395SOL    HW269910   5.689  11.867   7.348 -0.1497 -0.6334  2.3246
19396SOL     OW69911   3.252   9.057   9.535 -0.1464  0.0609 -0.1836
19396SOL    HW169912   3.174   9.006   9.513  0.6786 -0.3052 -2.5071
19396SOL    HW269913   3.227   9.148   9.516 -0.2869  0.0506 -0.0525
19397SOL     OW69914   8.449   0.978   0.276 -0.0022  0.1413 -0.0422
19397SOL    HW169915   8.479   1.004   0.363 -1.7039 -0.4808  0.7735
19397SOL    HW269916   8.402   1.055   0.243 -0.8081 -0.1921  0.3101
19398SOL     OW69917   1.990   2.338   2.396  0.3911 -0.0877  0.3730
19398SOL    HW169918   1.921   2.295   2.447 -0.2982  0.8242  0.2290
19398SOL    HW269919   2.013   2.274   2.328 -0.9408 -0.0720 -0.1112
19399SOL     OW69920  10.091   2.857   0.034  0.6589 -0.3404  0.0673
19399SOL    HW169921  10.143   2.809   0.099  1.0058  0.4706  0.3977
19399SOL    HW269922  10.019   2.895   0.083  1.4037  1.0131  0.1746
19400SOL     OW69923  10.572   3.058   7.303  0.0207 -0.4722  0.1159
19400SOL    HW169924  10.588   3.058   7.397 -1.6099  1.9003  0.4888
19400SOL    HW269925  10.506   2.990   7.289  1.1833 -1.7086  0.4375
19401SOL     OW69926   5.331  11.117   7.183  0.3018 -0.4005 -0.2715
19401SOL    HW169927   5.350  11.158   7.267  1.1475 -0.3313 -0.4785
19401SOL    HW269928   5.383  11.168   7.120 -1.2359  0.3110 -1.0113
19402SOL     OW69929   6.148   7.380  10.213 -0.0898 -0.4122  0.4560
19402SOL    HW169930   6.236   7.413  10.230  0.3839 -1.4276 -0.0029
19402SOL    HW269931   6.156   7.328  10.133 -1.0026 -0.9316  0.6908
19403SOL     OW69932   5.622   0.631   9.338  0.5704  0.4913 -0.0905
19403SOL    HW169933   5.659   0.713   9.306 -1.2253  0.6332 -2.0592
19403SOL    HW269934   5.527   0.647   9.338  0.3077 -0.5125  2.7368
19404SOL     OW69935   2.049   1.671   0.358  0.1665 -0.4279  0.2016
19404SOL    HW169936   2.034   1.742   0.421  0.7387  1.6022 -1.8470
19404SOL    HW269937   1.964   1.657   0.317  0.1206 -0.7403  0.4000
19405SOL     OW69938   2.178   6.179   5.378 -0.2384 -0.2472  0.0548
19405SOL    HW169939   2.087   6.199   5.399  0.0626  0.4989  0.7250
19405SOL    HW269940   2.207   6.252   5.324 -0.0913 -0.5763 -0.3104
19406SOL     OW69941   1.648   4.967   8.491  0.1675 -0.2681 -0.3055
19406SOL    HW169942   1.600   4.886   8.475 -1.6950  1.0504 -1.7965
19406SOL    HW269943   1.682   4.992   8.404  0.6042  0.5964  0.0986
19407SOL     OW69944   3.764   8.511   6.314  0.3739 -0.0766 -0.0606
19407SOL    HW169945   3.848   8.526   6.358  0.9642 -1.4600 -0.6490
19407SOL    HW269946   3.784   8.445   6.247 -0.6756  1.3211 -1.8389
19408SOL     OW69947   1.781  11.760   4.633 -0.0579 -0.2295  0.6055
19408SOL    HW169948   1.833  11.819   4.579  0.1460  1.4487  2.5140
19408SOL    HW269949   1.783  11.799   4.720 -0.4604 -2.7559  1.8436
19409SOL     OW69950   9.930   1.946  11.439 -0.2310  0.3783 -0.8034
19409SOL    HW169951   9.855   2.004  11.429 -0.2078  0.4092 -0.8050
19409SOL    HW269952   9.921   1.909  11.527  0.6119  1.6392 -0.1340
19410SOL     OW69953   4.205   7.103   3.202 -0.3188  0.0747  0.1752
19410SOL    HW169954   4.200   7.119   3.108  3.4195  0.3134 -0.1180
19410SOL    HW269955   4.137   7.037   3.218 -2.2485  1.2725 -2.2740
19411SOL     OW69956   9.304   4.949   1.705  0.7588 -0.3927  0.1422
19411SOL    HW169957   9.290   5.028   1.653 -3.2162 -0.2921  1.0505
19411SOL    HW269958   9.378   4.970   1.762  1.2287  1.7786 -1.1729
19412SOL     OW69959   9.491   3.101   9.419 -0.3764 -0.2425  0.4998
19412SOL    HW169960   9.523   3.191   9.413  0.8405 -0.5424  1.8793
19412SOL    HW269961   9.420   3.096   9.355 -0.1703  1.5628  0.0853
19413SOL     OW69962   2.729   7.659  10.539  0.0195  0.0478  0.7105
19413SOL    HW169963   2.672   7.710  10.597  0.8039  0.5932  1.0252
19413SOL    HW269964   2.816   7.697  10.552  0.1438  0.4960 -1.1981
19414SOL     OW69965   0.520   2.245   0.143 -0.3337 -0.1711  0.4045
19414SOL    HW169966   0.508   2.152   0.124 -1.6795 -0.0780  0.7280
19414SOL    HW269967   0.582   2.247   0.216 -0.0575 -0.7915  0.1900
19415SOL     OW69968   6.405   8.664   0.866 -0.2583 -0.3561 -0.5648
19415SOL    HW169969   6.391   8.744   0.815 -1.8877 -0.0454  0.3044
19415SOL    HW269970   6.412   8.693   0.957  3.7768 -0.7841 -0.5874
19416SOL     OW69971   4.117   6.647   9.219  0.5003 -0.3285 -0.5293
19416SOL    HW169972   4.116   6.551   9.216  0.6142 -0.3645  0.4463
19416SOL    HW269973   4.025   6.672   9.223  0.4963 -0.4244 -0.0310
19417SOL     OW69974   7.979   7.218  11.455 -0.0750  0.0475 -0.3084
19417SOL    HW169975   8.004   7.272  11.531 -0.9313  0.5909 -0.3919
19417SOL    HW269976   7.925   7.277  11.402  0.5867 -0.3073 -1.3855
19418SOL     OW69977   7.645   7.611   6.507  0.1161 -0.3409 -0.1184
19418SOL    HW169978   7.570   7.566   6.468  0.5042 -0.3718 -0.8394
19418SOL    HW269979   7.675   7.552   6.576 -1.8889  0.6662  1.7245
19419SOL     OW69980   6.147   4.714   8.247  0.3210  0.3580 -0.5602
19419SOL    HW169981   6.214   4.749   8.304 -1.6528  1.7311  1.0644
19419SOL    HW269982   6.087   4.787   8.232 -1.5712 -1.1471 -0.7490
19420SOL     OW69983   7.345   1.981   6.052 -0.2552  0.1079  0.7445
19420SOL    HW169984   7.325   1.914   6.118  0.3874  0.7904  1.6612
19420SOL    HW269985   7.264   2.030   6.043 -0.0332  0.7323  1.9086
19421SOL     OW69986   2.726   7.189   9.236  0.3069  0.6139  0.0719
19421SOL    HW169987   2.772   7.251   9.179  0.6823  0.1054 -0.1921
19421SOL    HW269988   2.778   7.187   9.316  1.6913 -1.1108 -0.7814
19422SOL     OW69989  11.051   0.709   5.021  0.3116 -0.0376  0.2091
19422SOL    HW169990  11.077   0.672   5.105 -0.8108 -0.4337  0.3928
19422SOL    HW269991  10.993   0.643   4.982  0.8825  0.1025 -0.9168
19423SOL     OW69992   5.103   6.887   8.797 -0.0739 -0.1821  0.0750
19423SOL    HW169993   5.083   6.869   8.888 -0.2267  1.3602  0.3579
19423SOL    HW269994   5.194   6.917   8.797  0.1208 -0.7459 -0.3625
19424SOL     OW69995   9.512   7.782   9.586 -0.0046 -0.2548 -0.4805
19424SOL    HW169996   9.541   7.826   9.666 -2.1637  0.6599 -0.1426
19424SOL    HW269997   9.593   7.750   9.546  1.5718  2.7272  0.0228
19425SOL     OW69998   7.919   6.321   1.855 -0.4438 -0.3883  0.6307
19425SOL    HW169999   7.930   6.415   1.861  0.1793 -0.4682  0.7642
19425SOL    HW270000   8.008   6.285   1.855 -0.6677 -0.9668  0.4462
19426SOL     OW70001  10.231   0.212  10.672 -0.5940  0.3361  0.1215
19426SOL    HW170002  10.234   0.193  10.578 -0.0531 -1.4471  0.4512
19426SOL    HW270003  10.314   0.257  10.690 -0.1712 -0.3555 -0.0704
19427SOL     OW70004   3.756   5.175   2.864  0.4352 -0.4459 -0.1878
19427SOL    HW170005   3.673   5.163   2.910  0.8435 -0.1545  0.6427
19427SOL    HW270006   3.781   5.086   2.838 -1.5057 -0.2986 -2.9653
19428SOL     OW70007   9.479  10.156   9.707  0.0762  0.6564 -0.2225
19428SOL    HW170008   9.428  10.189   9.633 -1.5198  1.4889  1.1594
19428SOL    HW270009   9.424  10.175   9.783  1.7282 -0.0174  1.1921
19429SOL     OW70010  11.872   5.833   5.060 -0.1912  0.2679 -0.1368
19429SOL    HW170011  11.856   5.757   5.004  0.8270 -1.5022  1.8268
19429SOL    HW270012  11.961   5.859   5.040  0.6563 -1.1876  1.4379
19430SOL     OW70013   3.267  11.754   2.108  0.4160  0.2170 -0.0638
19430SOL    HW170014   3.234  11.842   2.130 -0.5703 -0.2302  0.3168
19430SOL    HW270015   3.338  11.739   2.171  1.4500  1.2322 -0.9432
19431SOL     OW70016   0.934   5.995  10.419  0.5205  0.1431 -0.0327
19431SOL    HW170017   0.845   5.998  10.454  0.2751  1.6722 -0.6954
19431SOL    HW270018   0.925   6.020  10.327  1.0258 -4.6848 -1.6513
19432SOL     OW70019   1.891  10.976   0.604 -0.0083 -0.4835 -0.1413
19432SOL    HW170020   1.976  10.998   0.567  0.3230 -1.2635  0.1237
19432SOL    HW270021   1.842  10.938   0.531 -0.8862  1.7940 -0.8167
19433SOL     OW70022   6.593  11.363   8.171  0.3107 -0.2533  0.3810
19433SOL    HW170023   6.667  11.403   8.126  1.5171 -1.3693  1.2789
19433SOL    HW270024   6.614  11.270   8.172 -0.9538 -0.5471  0.9645
19434SOL     OW70025   9.238   3.718   5.326  0.4497  0.0136  0.0305
19434SOL    HW170026   9.249   3.743   5.417  1.5696  0.3200 -0.1747
19434SOL    HW270027   9.276   3.790   5.276 -0.2071 -0.1156 -0.6862
19435SOL     OW70028   0.950   4.880   8.336 -0.3624  0.3808  0.3369
19435SOL    HW170029   0.902   4.960   8.360 -1.2496 -0.4145  1.3692
19435SOL    HW270030   0.941   4.874   8.241 -2.7086  0.0830  0.5062
19436SOL     OW70031  11.662   2.989   0.772 -0.1534  0.0671 -0.1668
19436SOL    HW170032  11.581   3.006   0.724  0.1248  1.8335 -0.1058
19436SOL    HW270033  11.729   3.038   0.723  0.1992  1.6269  1.7494
19437SOL     OW70034   9.356   3.905   5.154  0.2346  0.2279  0.1266
19437SOL    HW170035   9.438   3.912   5.202  0.1888  0.3718  0.1849
19437SOL    HW270036   9.382   3.884   5.065  0.3025 -0.4703  0.3029
19438SOL     OW70037   9.419   5.870   7.421 -0.4375 -0.2892 -0.5233
19438SOL    HW170038   9.452   5.960   7.423  0.8973 -0.7730  0.4097
19438SOL    HW270039   9.392   5.857   7.330  1.8218  0.2140 -1.3410
19439SOL     OW70040   5.145  11.068  10.432 -0.0831  0.7206 -0.1218
19439SOL    HW170041   5.094  11.023  10.365 -1.4307  0.3977  1.0540
19439SOL    HW270042   5.180  10.998  10.487  0.2227  1.0029  0.0422
19440SOL     OW70043  10.808   5.626   2.059  0.3360 -0.5038 -0.1878
19440SOL    HW170044  10.892   5.595   2.092 -0.3813 -0.0108  2.3293
19440SOL    HW270045  10.743   5.569   2.101 -0.7693  1.6300  1.1389
19441SOL     OW70046   6.057   5.406   8.508  0.0320 -0.1952  0.5370
19441SOL    HW170047   6.080   5.318   8.539 -1.0019 -0.7882 -0.2973
19441SOL    HW270048   6.141   5.447   8.488  0.5420 -0.9347  1.0824
19442SOL     OW70049   3.229   6.809   2.794 -0.2890  0.1768  0.4971
19442SOL    HW170050   3.296   6.862   2.838  0.4908  0.0192 -0.4649
19442SOL    HW270051   3.216   6.734   2.852  0.8541 -0.1200  0.4032
19443SOL     OW70052   9.795  10.474   5.064  0.6847 -0.1863 -0.7379
19443SOL    HW170053   9.745  10.555   5.050  0.9953  0.2942  0.7808
19443SOL    HW270054   9.791  10.459   5.158  0.8071 -1.8526 -0.9658
19444SOL     OW70055   3.351   9.353   9.137  0.4339 -0.4986 -0.7087
19444SOL    HW170056   3.295   9.429   9.159  0.4842 -0.3853 -0.9724
19444SOL    HW270057   3.415   9.388   9.075  1.3545 -0.4167  0.2583
19445SOL     OW70058   6.330   0.530  11.439 -0.5369  0.0870 -0.3873
19445SOL    HW170059   6.350   0.526  11.345 -0.2932  1.3831 -0.4131
19445SOL    HW270060   6.409   0.567  11.478 -1.2612  1.1881  0.0836
19446SOL     OW70061   0.303   9.626   6.985  0.3226 -1.1636  0.4616
19446SOL    HW170062   0.339   9.711   6.961  1.3584 -0.7539  3.0905
19446SOL    HW270063   0.210   9.632   6.964  0.6847 -0.0363 -0.9379
19447SOL     OW70064   5.273  11.606   2.335  0.0829 -0.7255  0.3953
19447SOL    HW170065   5.330  11.574   2.405 -0.5460 -0.8769  0.8485
19447SOL    HW270066   5.212  11.666   2.379  0.7176  0.4865 -0.2984
19448SOL     OW70067   4.074   4.192   9.941  0.1870  0.8791  0.4379
19448SOL    HW170068   4.163   4.194   9.906  0.8079 -1.6485  1.6031
19448SOL    HW270069   4.084   4.159  10.031 -1.8884  0.9110  0.7361
19449SOL     OW70070   2.893   8.211   2.440  0.3506 -0.2583  0.1330
19449SOL    HW170071   2.952   8.246   2.373  1.7291  1.9673  2.3649
19449SOL    HW270072   2.808   8.205   2.396  1.3921  0.1790 -2.0705
19450SOL     OW70073   7.751   8.853   9.658 -0.4260  0.0893  0.0233
19450SOL    HW170074   7.833   8.873   9.612  0.4025 -1.7356  0.6162
19450SOL    HW270075   7.682   8.888   9.601  0.7725  2.5851  0.0220
19451SOL     OW70076   1.614  11.539   1.784  0.2743  0.4741  0.5604
19451SOL    HW170077   1.539  11.512   1.730  1.5916 -0.0319 -1.0902
19451SOL    HW270078   1.608  11.484   1.862 -1.1165  0.5173  0.5104
19452SOL     OW70079   8.643   2.729   2.268  0.2232 -0.1217  0.8660
19452SOL    HW170080   8.709   2.669   2.233 -0.9013 -0.8393 -0.0925
19452SOL    HW270081   8.621   2.691   2.353  0.4312 -0.3469  0.8232
19453SOL     OW70082   3.886   9.515   8.139 -0.0107 -0.0145 -0.5776
19453SOL    HW170083   3.882   9.555   8.226 -0.2101 -1.7617  0.2834
19453SOL    HW270084   3.860   9.584   8.079 -3.4819  0.3841  1.0896
19454SOL     OW70085   8.398  11.882   6.611 -0.2525  0.1087 -0.5916
19454SOL    HW170086   8.338  11.920   6.547 -0.9516 -0.1008 -0.0804
19454SOL    HW270087   8.347  11.813   6.654  0.4727 -0.3108 -0.3888
19455SOL     OW70088   5.607   4.700   9.977  0.0313  0.4387 -0.0496
19455SOL    HW170089   5.661   4.675   9.902 -1.0485 -1.3978 -0.2757
19455SOL    HW270090   5.551   4.769   9.944  1.1223  1.2480 -0.2621
19456SOL     OW70091   0.979   4.561   4.918  0.0448 -0.2359 -0.7863
19456SOL    HW170092   0.978   4.474   4.878  2.0402 -0.4883 -0.4225
19456SOL    HW270093   1.071   4.589   4.911 -0.3097  1.2985  0.2375
19457SOL     OW70094   5.221   8.896   1.355  0.1951 -0.4753 -0.1862
19457SOL    HW170095   5.250   8.920   1.267  0.3525 -1.0998 -0.3111
19457SOL    HW270096   5.189   8.806   1.346 -0.9883 -0.1094  0.1275
19458SOL     OW70097  10.311   5.183  11.803 -0.0428 -0.5497 -0.5161
19458SOL    HW170098  10.342   5.253  11.861 -0.5031 -0.5093 -0.3095
19458SOL    HW270099  10.306   5.106  11.860  0.4703 -0.7584 -0.7445
19459SOL     OW70100   9.342  11.047  10.986  0.1002  0.2705  0.2679
19459SOL    HW170101   9.366  10.971  10.933  0.5463  2.0715 -2.3285
19459SOL    HW270102   9.248  11.035  11.004 -0.5277  0.3232 -2.4781
19460SOL     OW70103   3.230   1.870   8.528  0.4608  0.3249  0.2104
19460SOL    HW170104   3.252   1.789   8.574  0.3768 -0.6077 -1.3113
19460SOL    HW270105   3.297   1.932   8.556  1.5363 -0.7642  0.1777
19461SOL     OW70106   7.815   7.314   9.021 -0.2979 -0.2415 -0.3350
19461SOL    HW170107   7.896   7.348   9.058  0.0319 -1.3853  0.0523
19461SOL    HW270108   7.746   7.363   9.064  0.1314 -0.6205  0.8296
19462SOL     OW70109   0.179   1.754   2.449 -0.0258  0.0764  0.0634
19462SOL    HW170110   0.242   1.731   2.381  0.2203  1.9232 -0.3719
19462SOL    HW270111   0.231   1.758   2.529  0.1606  0.3139 -0.0685
19463SOL     OW70112   4.428   8.245   9.736 -0.0425 -0.1953  0.1146
19463SOL    HW170113   4.381   8.191   9.800  0.5983  0.1430  0.8901
19463SOL    HW270114   4.463   8.318   9.788 -0.0746  0.4461 -0.7474
19464SOL     OW70115   1.995   5.005   4.995 -0.2101 -0.2011 -0.1452
19464SOL    HW170116   2.033   5.073   4.939 -1.4484 -2.3172 -3.8794
19464SOL    HW270117   2.070   4.952   5.022  0.4002  0.7615  0.0967
19465SOL     OW70118   4.180   1.903  11.000  0.1309 -0.5379 -0.0425
19465SOL    HW170119   4.175   1.850  11.079  2.0463 -0.3377  0.2705
19465SOL    HW270120   4.224   1.846  10.936 -1.0972 -0.5845 -0.8926
19466SOL     OW70121   3.193   2.293   3.815 -0.6303 -0.6572 -0.9055
19466SOL    HW170122   3.250   2.260   3.747  1.0894  0.7442 -0.2155
19466SOL    HW270123   3.167   2.216   3.865 -0.6284 -1.4980 -2.1626
19467SOL     OW70124   6.326   7.338  11.137 -0.1063  0.4031  0.0338
19467SOL    HW170125   6.421   7.327  11.140 -0.1296  0.2183  0.0572
19467SOL    HW270126   6.291   7.276  11.200 -0.1792  1.3076  0.9113
19468SOL     OW70127   6.741   6.261   5.538 -0.5157  0.2874  0.2759
19468SOL    HW170128   6.807   6.238   5.604 -0.4048 -3.1076 -0.8079
19468SOL    HW270129   6.662   6.277   5.589 -0.0210 -0.5169  1.3504
19469SOL     OW70130   7.599   9.017   9.040 -0.6906 -0.1818 -0.1505
19469SOL    HW170131   7.558   8.960   9.105 -0.1365 -2.8644 -1.9618
19469SOL    HW270132   7.693   9.012   9.060 -0.7446  1.5148  0.6703
19470SOL     OW70133   8.267   5.163   5.442  0.6146 -0.2569  0.4204
19470SOL    HW170134   8.183   5.207   5.428  1.9230  1.9045 -1.4330
19470SOL    HW270135   8.299   5.200   5.524  0.3340 -0.0796  0.4523
19471SOL     OW70136   5.452   7.176   0.924  0.0634 -0.2319 -0.2632
19471SOL    HW170137   5.489   7.226   0.851 -0.9866 -0.8557 -1.2440
19471SOL    HW270138   5.363   7.210   0.933  0.4453  0.4444  1.3169
19472SOL     OW70139   5.742   7.491   7.692 -0.1032  0.0170 -0.2584
19472SOL    HW170140   5.728   7.548   7.768 -0.2942 -1.2256  0.6543
19472SOL    HW270141   5.711   7.543   7.617  1.0933  1.6989  0.3337
19473SOL     OW70142   3.106   9.419  10.282  0.0606 -0.5400 -0.0405
19473SOL    HW170143   3.071   9.495  10.235  0.6307  1.1456  2.0881
19473SOL    HW270144   3.177   9.388  10.227  0.0669  0.7194 -0.7945
19474SOL     OW70145   6.032   0.058   5.530  0.3866 -0.0536  0.0920
19474SOL    HW170146   6.039  -0.003   5.604 -0.6637 -1.1137 -0.6495
19474SOL    HW270147   5.938   0.066   5.514  0.5358  1.2226 -0.2902
19475SOL     OW70148   4.709   4.457   6.329  0.1044 -0.1390  0.0665
19475SOL    HW170149   4.751   4.419   6.405  2.5736 -0.9692 -1.5948
19475SOL    HW270150   4.682   4.382   6.276 -1.2361  0.4265 -0.0972
19476SOL     OW70151   9.600   1.184   9.430 -0.1080 -0.5876 -0.5956
19476SOL    HW170152   9.647   1.159   9.510 -1.2294  0.1379  0.3118
19476SOL    HW270153   9.551   1.106   9.405  1.0632 -1.1535 -1.1987
19477SOL     OW70154   1.335   4.464   3.049 -0.4793  0.1889 -0.2281
19477SOL    HW170155   1.374   4.551   3.056  1.2735 -0.6033  0.3449
19477SOL    HW270156   1.404   4.409   3.012 -0.5829 -1.5354  1.9120
19478SOL     OW70157   9.963  11.775   1.123 -0.2068  0.2595  0.1023
19478SOL    HW170158   9.926  11.856   1.156 -3.2279 -0.1653 -1.8731
19478SOL    HW270159  10.022  11.802   1.052 -0.7897  0.7685 -0.1952
19479SOL     OW70160   0.675  11.847   8.187 -0.1065  0.3402  0.0891
19479SOL    HW170161   0.589  11.881   8.165 -0.4109 -1.3921 -1.6304
19479SOL    HW270162   0.670  11.828   8.281 -1.1971  1.2927  0.2410
19480SOL     OW70163   7.115   9.602  11.255  0.2178  0.5153  0.2693
19480SOL    HW170164   7.159   9.684  11.277  0.5358 -0.0570  1.9256
19480SOL    HW270165   7.108   9.556  11.339 -0.2324 -1.0180 -0.5793
19481SOL     OW70166   0.783   7.070   5.222 -0.0446  0.0916 -0.2667
19481SOL    HW170167   0.861   7.087   5.275 -0.1776  0.2786 -0.1283
19481SOL    HW270168   0.715   7.050   5.287  0.5447 -2.9412 -0.4402
19482SOL     OW70169   3.573   4.705   4.417  0.2344  0.3274  0.2670
19482SOL    HW170170   3.557   4.799   4.428  0.1383  0.2991  0.3722
19482SOL    HW270171   3.665   4.693   4.439  0.1229  0.3198  0.7370
19483SOL     OW70172   4.693  10.895   3.505  0.3515  0.0648 -0.2498
19483SOL    HW170173   4.641  10.835   3.452 -0.7981  0.0236  0.8798
19483SOL    HW270174   4.642  10.907   3.585  2.8498 -1.2632  1.6661
19484SOL     OW70175  11.057   1.023   8.646 -0.0054  0.4253 -0.2719
19484SOL    HW170176  11.051   1.064   8.732  1.4217 -1.5826  0.8594
19484SOL    HW270177  11.115   1.081   8.596  2.0794 -0.1571  1.3258
19485SOL     OW70178   9.615   0.363   5.961  0.6616 -0.4068  0.1956
19485SOL    HW170179   9.646   0.291   5.905 -0.6299 -2.7145  2.2380
19485SOL    HW270180   9.695   0.403   5.994  1.4359 -0.1990 -1.7501
19486SOL     OW70181   9.930   3.172   9.305  0.3029  0.2278  0.1741
19486SOL    HW170182   9.850   3.166   9.253 -1.1552  1.1552  2.1875
19486SOL    HW270183   9.999   3.185   9.240 -1.3623  0.9728 -1.5557
19487SOL     OW70184   7.911   7.619   1.353  0.2693 -0.4078 -0.4394
19487SOL    HW170185   7.865   7.700   1.376  2.0744  1.5439 -3.0607
19487SOL    HW270186   7.988   7.619   1.410 -0.5411 -1.2435  0.7158
19488SOL     OW70187   4.444   1.514  11.920  0.3454  0.1044  0.4011
19488SOL    HW170188   4.528   1.558  11.917 -0.4841  1.6920 -1.3393
19488SOL    HW270189   4.458   1.432  11.873  1.1517 -0.1415  1.0425
19489SOL     OW70190   0.867   0.808   1.028 -0.5204  0.0412 -0.1764
19489SOL    HW170191   0.892   0.726   0.985 -0.0768  0.3490 -0.5169
19489SOL    HW270192   0.817   0.781   1.105  0.6126 -0.6082  0.3663
19490SOL     OW70193   4.889   1.925   4.367 -0.4169 -0.3810 -0.0923
19490SOL    HW170194   4.830   1.904   4.295 -0.0909  0.8533 -0.7451
19490SOL    HW270195   4.926   1.841   4.394 -1.0385 -0.9268 -0.9335
19491SOL     OW70196   3.564  11.523   4.427  0.0659 -0.2942  0.0175
19491SOL    HW170197   3.612  11.512   4.508  1.7854  1.5336 -0.6743
19491SOL    HW270198   3.626  11.499   4.358 -0.4185  0.7966 -0.8481
19492SOL     OW70199   3.221   5.518   4.822  0.4283  0.2970 -0.2505
19492SOL    HW170200   3.204   5.482   4.909 -0.4206  0.8636 -0.1751
19492SOL    HW270201   3.173   5.459   4.763  1.6485 -0.5575 -0.4242
19493SOL     OW70202  11.428   6.203   5.697 -0.3393  0.3323 -0.0962
19493SOL    HW170203  11.416   6.160   5.782 -1.5503 -0.2175 -0.5167
19493SOL    HW270204  11.406   6.295   5.713  0.5305  0.4514  0.4260
19494SOL     OW70205   6.857   6.952   1.199  0.5655  0.3931 -0.3174
19494SOL    HW170206   6.773   6.922   1.234  0.5024 -1.3854 -1.8673
19494SOL    HW270207   6.923   6.905   1.250  0.5257 -0.5340 -1.1023
19495SOL     OW70208  11.611   2.905  10.546 -0.1212 -0.6144  0.0665
19495SOL    HW170209  11.688   2.877  10.596  2.5700  2.6711 -1.8214
19495SOL    HW270210  11.607   2.844  10.473  1.0925 -0.5196 -0.1048
19496SOL     OW70211   0.261   0.837  11.932  0.3475  0.0420  0.1252
19496SOL    HW170212   0.302   0.913  11.975 -0.9313  0.1581  1.2093
19496SOL    HW270213   0.176   0.829  11.975 -1.7811  1.1466 -3.4180
19497SOL     OW70214  11.745   0.583  11.147  0.0539  0.3697 -0.4134
19497SOL    HW170215  11.653   0.557  11.137 -0.0344  0.8765 -0.9969
19497SOL    HW270216  11.773   0.608  11.059  0.6179  0.6530 -0.1609
19498SOL     OW70217   4.384  11.121  10.594  0.0424 -0.1809 -0.5897
19498SOL    HW170218   4.469  11.151  10.562  0.0109 -0.7391 -1.2309
19498SOL    HW270219   4.400  11.031  10.623 -0.2751 -0.2040 -0.4771
19499SOL     OW70220   7.241   5.826  11.514  0.2653 -0.2829 -0.3100
19499SOL    HW170221   7.281   5.880  11.446  1.1675  1.3425  1.3798
19499SOL    HW270222   7.156   5.868  11.531 -0.4769 -1.3776 -1.1918
19500SOL     OW70223  10.957   3.413   8.558  0.3526  0.4212  0.0015
19500SOL    HW170224  10.868   3.401   8.591  0.8079  0.1563  1.2186
19500SOL    HW270225  10.999   3.328   8.571  0.2104 -0.1229 -2.5624
19501SOL     OW70226   8.246   6.378   7.547 -0.1990 -0.0802 -0.4104
19501SOL    HW170227   8.260   6.464   7.507  0.6926 -0.7684 -1.6528
19501SOL    HW270228   8.159   6.384   7.586  0.1976  1.6679  0.3176
19502SOL     OW70229   1.486   6.778  11.513  0.1174 -0.0323 -0.5461
19502SOL    HW170230   1.413   6.760  11.454 -1.2435 -0.1486  1.0962
19502SOL    HW270231   1.460   6.738  11.597  2.3995 -0.7171 -0.0973
19503SOL     OW70232  11.809   8.616  11.565 -0.7208 -0.5708  0.1963
19503SOL    HW170233  11.905   8.611  11.564 -0.7570 -2.3085  1.4276
19503SOL    HW270234  11.789   8.670  11.641 -0.7417  0.9637 -0.8468
19504SOL     OW70235  11.594   1.424  11.711 -0.4349  0.3260  0.3573
19504SOL    HW170236  11.594   1.471  11.628 -2.4349  1.5631  0.9812
19504SOL    HW270237  11.600   1.331  11.686 -1.0848  0.6656 -1.1829
19505SOL     OW70238   3.791   1.328  10.889  0.5878 -0.3049 -0.2095
19505SOL    HW170239   3.867   1.299  10.838 -0.6827 -1.7716 -1.3793
19505SOL    HW270240   3.747   1.391  10.832  0.9937  0.6694  0.5335
19506SOL     OW70241   6.861   7.093  11.010 -0.0706  0.2454  0.2782
19506SOL    HW170242   6.925   7.164  11.006  0.5186 -0.1786  1.6249
19506SOL    HW270243   6.902   7.022  10.960  0.5037  0.0042  1.0643
19507SOL     OW70244   8.670   2.949   3.513  0.4508  0.2628 -0.1997
19507SOL    HW170245   8.578   2.968   3.499  0.8965  2.2039 -0.7890
19507SOL    HW270246   8.686   2.973   3.604  0.6880  1.3819 -0.5258
19508SOL     OW70247   9.291   2.924  10.156  0.2603 -0.9784 -0.3350
19508SOL    HW170248   9.372   2.907  10.108  0.5977  0.7184 -0.4270
19508SOL    HW270249   9.226   2.944  10.088  1.0074  2.5620 -0.1990
19509SOL     OW70250   7.836   3.939   9.612 -0.3181  0.2050 -0.0156
19509SOL    HW170251   7.888   3.942   9.692 -0.0735 -0.0915 -0.1617
19509SOL    HW270252   7.749   3.970   9.638  0.1664  1.5758  0.0344
19510SOL     OW70253   7.864  11.344   9.169  0.1090  0.0527 -0.2404
19510SOL    HW170254   7.858  11.249   9.180  0.7844 -0.1337 -1.2769
19510SOL    HW270255   7.932  11.356   9.101  0.6862  1.3059  0.5178
19511SOL     OW70256  10.541   5.449   2.572 -0.1757 -0.4590 -0.3384
19511SOL    HW170257  10.614   5.485   2.621 -0.5951 -0.0388 -0.0203
19511SOL    HW270258  10.520   5.516   2.507  0.2926 -0.9543 -1.0225
19512SOL     OW70259   9.915  10.166  11.555  0.3558 -0.2216  0.2046
19512SOL    HW170260   9.949  10.230  11.492  0.0692  1.4967  1.7128
19512SOL    HW270261   9.896  10.088  11.503  0.0473  1.1526 -1.8412
19513SOL     OW70262  10.272   3.589  11.362  0.3026 -0.2892 -0.0012
19513SOL    HW170263  10.214   3.534  11.415 -1.0485  0.3708 -0.7494
19513SOL    HW270264  10.217   3.619  11.290  1.8549 -0.4465 -1.3036
19514SOL     OW70265   6.235  11.401   2.052  0.5442 -0.0561  0.2572
19514SOL    HW170266   6.206  11.344   1.981  0.4444 -0.9549  0.9992
19514SOL    HW270267   6.162  11.401   2.115  1.7503 -1.7062  1.7693
19515SOL     OW70268   6.125   2.481   6.992 -0.3769  0.1370  0.2007
19515SOL    HW170269   6.149   2.533   7.069 -0.8567 -1.2062  1.2890
19515SOL    HW270270   6.173   2.522   6.920  2.9330 -0.6461  1.7618
19516SOL     OW70271   8.266   7.378   4.871  0.2502 -0.2272  0.3381
19516SOL    HW170272   8.328   7.427   4.924  0.5807  0.3991 -0.6043
19516SOL    HW270273   8.321   7.329   4.809 -0.1717  1.1617 -1.2238
19517SOL     OW70274   7.240   0.248  11.245  0.0474  0.0271  0.1626
19517SOL    HW170275   7.248   0.343  11.231  0.7593 -0.1049 -0.3645
19517SOL    HW270276   7.261   0.209  11.161 -1.3985 -0.5764  0.0461
19518SOL     OW70277   6.794   2.021  10.060  0.2121  0.1056 -0.5443
19518SOL    HW170278   6.836   2.059   9.983  0.8625 -0.7292 -0.6157
19518SOL    HW270279   6.760   1.937  10.030  2.7685 -1.4865  0.6453
19519SOL     OW70280   7.039   1.310   7.804 -0.3486 -0.0320 -0.5251
19519SOL    HW170281   6.951   1.349   7.802 -0.1179  0.4932 -0.6315
19519SOL    HW270282   7.044   1.267   7.889  0.0674  1.7675  0.4024
19520SOL     OW70283  11.221  10.367   6.373 -0.0735  0.0801  0.5399
19520SOL    HW170284  11.191  10.387   6.284  0.9148 -0.3908  0.0679
19520SOL    HW270285  11.315  10.385   6.370  0.1318 -0.8172  1.2194
19521SOL     OW70286   3.510   0.431   8.105  0.6043  0.3796  0.3576
19521SOL    HW170287   3.536   0.401   8.192 -0.0460 -0.1795  0.3638
19521SOL    HW270288   3.442   0.497   8.121  0.8590  0.6649  0.2853
19522SOL     OW70289   0.826   5.676  10.909 -0.3835 -0.0747  0.3061
19522SOL    HW170290   0.894   5.734  10.942 -1.5172  1.0611  0.7271
19522SOL    HW270291   0.746   5.705  10.953 -1.2671 -0.9149 -0.6899
19523SOL     OW70292   9.821  11.048  10.717  0.4458 -0.1403  0.0525
19523SOL    HW170293   9.758  11.113  10.686  0.8065  0.2621  0.1510
19523SOL    HW270294   9.896  11.057  10.658  0.7785  0.0113  0.4924
19524SOL     OW70295  10.398   7.301  10.585 -0.5634 -0.3156 -0.0072
19524SOL    HW170296  10.355   7.298  10.500 -1.6808 -0.3466  0.5429
19524SOL    HW270297  10.452   7.380  10.582 -0.6139 -0.3025 -0.7279
19525SOL     OW70298   5.370   4.263   4.033  0.2398 -0.6600  0.2858
19525SOL    HW170299   5.282   4.291   4.010 -0.2772 -1.2618  1.4554
19525SOL    HW270300   5.366   4.167   4.030  1.1883 -0.6891 -0.8162
19526SOL     OW70301   3.683   3.565   3.557 -0.2399 -0.3110 -0.4062
19526SOL    HW170302   3.607   3.544   3.503  0.1231  0.1314 -1.1041
19526SOL    HW270303   3.649   3.628   3.622 -0.1838  1.0299 -1.6210
19527SOL     OW70304   4.689   9.017   1.566  0.1883  0.8483 -1.0601
19527SOL    HW170305   4.629   9.082   1.602  0.9035  1.0391 -0.1946
19527SOL    HW270306   4.691   9.036   1.472 -0.6000  1.2444 -1.0066
19528SOL     OW70307   2.410  10.142   0.910 -0.5099 -0.5998  0.4004
19528SOL    HW170308   2.396  10.061   0.862  1.2335 -0.7725  0.1278
19528SOL    HW270309   2.397  10.117   1.002  2.2798 -1.8295  0.5626
19529SOL     OW70310   9.136  10.127   0.540 -0.3118  0.3952  0.2697
19529SOL    HW170311   9.060  10.148   0.486 -1.4377  0.8839  1.9692
19529SOL    HW270312   9.109  10.148   0.629  0.7183 -2.3038  1.3369
19530SOL     OW70313   7.396   7.853   5.458  0.4014  0.0107  0.2626
19530SOL    HW170314   7.474   7.818   5.417  1.3455 -2.9510  4.0339
19530SOL    HW270315   7.331   7.783   5.452 -0.5300  0.7930  0.8297
19531SOL     OW70316   7.094   0.112   2.834  0.0678  0.3465  0.3776
19531SOL    HW170317   7.086   0.200   2.798 -0.5961  0.0510 -0.2407
19531SOL    HW270318   7.166   0.117   2.897 -0.2454  1.4218  0.6557
19532SOL     OW70319   5.317   0.726   6.789  0.2756  0.0662  0.4206
19532SOL    HW170320   5.230   0.764   6.779 -0.6106 -1.9068  0.1554
19532SOL    HW270321   5.329   0.717   6.883  0.7279  1.4104  0.5195
19533SOL     OW70322   1.386  10.412   5.534 -0.1400 -0.2777 -0.1659
19533SOL    HW170323   1.337  10.399   5.452 -1.8226 -0.6336  0.8362
19533SOL    HW270324   1.356  10.340   5.590 -0.6319  1.1498  1.4766
19534SOL     OW70325  10.021   8.842   1.643 -0.0353 -0.2116 -0.3718
19534SOL    HW170326  10.031   8.778   1.573  0.5911 -1.4282  0.7638
19534SOL    HW270327  10.017   8.789   1.723  0.9694  1.1808  0.6552
19535SOL     OW70328  11.798   1.912   9.420  0.0085 -0.5419 -0.4749
19535SOL    HW170329  11.779   1.903   9.514  3.8563 -0.0608  0.5029
19535SOL    HW270330  11.798   1.822   9.387 -0.4384 -0.8039  0.2024
19536SOL     OW70331  10.669   4.861   6.162  0.0254 -0.3711 -0.5740
19536SOL    HW170332  10.582   4.891   6.138  0.2622  0.4454 -0.4268
19536SOL    HW270333  10.729   4.918   6.113  0.4934 -1.8116 -1.7860
19537SOL     OW70334   6.740   9.401  11.619  0.1504 -0.0317 -0.8302
19537SOL    HW170335   6.794   9.378  11.543 -0.1074  2.7766 -1.9944
19537SOL    HW270336   6.785   9.475  11.659 -0.1932 -0.8983  1.3190
19538SOL     OW70337   5.203   6.691   8.640  0.0259 -0.2456  0.0345
19538SOL    HW170338   5.188   6.607   8.684 -0.8081 -1.0347 -1.6696
19538SOL    HW270339   5.183   6.756   8.706 -2.7340 -1.3662  0.4431
19539SOL     OW70340   3.393   7.945   8.104 -0.3622 -0.2702 -0.2160
19539SOL    HW170341   3.327   7.992   8.054  0.4484  0.5020 -0.5882
19539SOL    HW270342   3.448   7.903   8.037  2.1475  2.6769 -0.1714
19540SOL     OW70343   9.574   2.055   6.979  0.3288  0.1260 -0.0350
19540SOL    HW170344   9.632   2.112   7.030 -0.8080  0.8672  0.4542
19540SOL    HW270345   9.519   2.013   7.044 -0.3889  0.2340 -0.5677
19541SOL     OW70346   2.064   8.012   2.131 -0.0617 -0.5479 -0.2634
19541SOL    HW170347   2.081   8.099   2.096  0.9755 -0.6386 -0.0321
19541SOL    HW270348   2.149   7.968   2.127 -0.0787 -0.8226  1.6066
19542SOL     OW70349   2.598   5.538  10.842  0.3286 -0.3614  0.3631
19542SOL    HW170350   2.633   5.449  10.831  1.0326  0.0826 -1.3351
19542SOL    HW270351   2.656   5.579  10.906  0.2815 -0.9719  0.8053
19543SOL     OW70352  11.868   0.572   6.360  0.8383 -0.1761  0.1221
19543SOL    HW170353  11.934   0.615   6.414  0.3716  1.2322 -0.3812
19543SOL    HW270354  11.839   0.640   6.299 -1.3127 -0.6511  0.5417
19544SOL     OW70355   6.269   6.013   5.850 -0.4293 -0.1265  0.3752
19544SOL    HW170356   6.201   6.079   5.864 -0.4759  0.0885 -0.7629
19544SOL    HW270357   6.333   6.056   5.793 -0.5575 -1.1073 -0.5506
19545SOL     OW70358   7.801   0.401  11.575 -0.1674 -0.2106 -0.2555
19545SOL    HW170359   7.893   0.376  11.578  0.5507  2.2727  1.5957
19545SOL    HW270360   7.755   0.326  11.613  1.2872 -0.8046  0.3980
19546SOL     OW70361   9.900   0.785   3.863  0.1435  0.5204 -0.2203
19546SOL    HW170362   9.912   0.690   3.865 -0.4064  0.4476  1.8238
19546SOL    HW270363   9.960   0.815   3.795  1.0528 -1.1928 -0.2367
19547SOL     OW70364   3.154   3.840   9.322 -0.2785  0.5059  1.5361
19547SOL    HW170365   3.241   3.799   9.315 -1.4319 -1.7709 -1.3156
19547SOL    HW270366   3.156   3.911   9.258 -1.1015 -0.8166  0.0028
19548SOL     OW70367   3.476   1.004   0.642  0.3363 -0.0610  0.4308
19548SOL    HW170368   3.529   0.927   0.621 -1.2820 -0.8627 -1.0230
19548SOL    HW270369   3.535   1.062   0.691  3.1639 -0.0746 -2.5792
19549SOL     OW70370   5.973   8.284   1.414 -0.4051  0.2527  0.4733
19549SOL    HW170371   5.984   8.262   1.507  0.3837 -1.6670 -0.0336
19549SOL    HW270372   6.061   8.307   1.385 -0.9016  2.4930  0.5238
19550SOL     OW70373   4.513   5.076   9.303 -0.2603 -0.0970  0.5098
19550SOL    HW170374   4.447   5.009   9.321  0.0965 -0.0200  2.3305
19550SOL    HW270375   4.485   5.115   9.220 -1.0574 -1.7706 -0.0533
19551SOL     OW70376   7.368   5.875   1.454  0.2440 -0.2248 -0.0751
19551SOL    HW170377   7.324   5.958   1.469  0.1888 -0.3026  0.1872
19551SOL    HW270378   7.300   5.809   1.463  0.5927 -0.4212  1.2721
19552SOL     OW70379  10.920   5.562   8.727  0.0754  0.0086  0.4661
19552SOL    HW170380  10.842   5.588   8.678  0.5408  0.4280 -0.0594
19552SOL    HW270381  10.979   5.526   8.660  1.5573  2.4550  0.3477
19553SOL     OW70382   1.595   0.042   2.789 -0.0832 -0.0851  0.2475
19553SOL    HW170383   1.581   0.070   2.698  1.4890  0.0025 -0.0046
19553SOL    HW270384   1.636   0.117   2.831 -0.5365 -0.2296  0.9641
19554SOL     OW70385  10.250   8.492   5.852  0.2237  0.4628  0.1300
19554SOL    HW170386  10.329   8.507   5.799  1.5606 -0.3228  1.8090
19554SOL    HW270387  10.274   8.522   5.940 -1.6462  0.9398  0.5186
19555SOL     OW70388   4.437   3.448   5.721  0.2399 -0.3690 -0.4697
19555SOL    HW170389   4.451   3.372   5.778  1.7485 -0.1750 -0.5248
19555SOL    HW270390   4.402   3.411   5.640 -1.0207 -0.7525  0.2340
19556SOL     OW70391   8.619   4.304   4.810  0.0508  0.3688  0.1136
19556SOL    HW170392   8.655   4.392   4.817 -1.5249  1.2700 -1.9324
19556SOL    HW270393   8.686   4.254   4.765  0.6397  0.7160  0.5881
19557SOL     OW70394   8.831  10.373   9.894  0.1240  0.3166 -0.3246
19557SOL    HW170395   8.772  10.422   9.952 -0.2656 -0.2031 -0.2677
19557SOL    HW270396   8.796  10.386   9.807  0.5303  0.8466 -0.4108
19558SOL     OW70397   2.412  10.181   5.367  0.1765  0.0207 -0.5686
19558SOL    HW170398   2.358  10.150   5.294  2.8537 -1.5557 -2.0523
19558SOL    HW270399   2.459  10.103   5.396  2.4016  1.4503 -0.0787
19559SOL     OW70400   1.865   7.696  11.084 -0.2325  0.3997 -0.8746
19559SOL    HW170401   1.946   7.726  11.043 -1.3615  2.8349 -1.4936
19559SOL    HW270402   1.797   7.712  11.018 -1.4129 -0.2334  0.1449
19560SOL     OW70403   1.938   7.051   3.761  0.0244 -0.3032  0.1250
19560SOL    HW170404   1.982   7.030   3.844 -0.2126  0.1999  0.3790
19560SOL    HW270405   1.997   7.113   3.718 -0.1738 -0.0503  0.2181
19561SOL     OW70406   3.458  10.153   2.842 -0.0232  0.0864 -0.0252
19561SOL    HW170407   3.526  10.147   2.909  0.8421 -0.6651 -0.9367
19561SOL    HW270408   3.482  10.086   2.778 -0.3527  1.3318 -1.5039
19562SOL     OW70409   4.795   2.440   9.766  0.1392  0.2040 -0.1926
19562SOL    HW170410   4.840   2.470   9.687  0.5256 -0.0580 -0.0736
19562SOL    HW270411   4.859   2.453   9.836  0.3663 -1.0146 -0.1573
19563SOL     OW70412   3.164   5.076   3.098  0.5501 -0.0289  0.1439
19563SOL    HW170413   3.150   5.065   3.192 -0.1620 -1.1540 -0.0872
19563SOL    HW270414   3.091   5.032   3.056  0.9607  0.2861 -0.9605
19564SOL     OW70415   1.312   5.226   3.291  0.2299  0.0817 -0.3277
19564SOL    HW170416   1.249   5.156   3.309  1.0177 -0.0857  2.2967
19564SOL    HW270417   1.378   5.185   3.235 -1.0555 -0.2386 -1.6683
19565SOL     OW70418   5.414   9.596   3.723  0.2481  0.7386  0.1239
19565SOL    HW170419   5.502   9.632   3.731  1.0588 -1.3449  1.0987
19565SOL    HW270420   5.384   9.625   3.636  2.5875  0.0396 -0.9816
19566SOL     OW70421   8.092   6.332   4.934 -0.1191  0.3123  0.3165
19566SOL    HW170422   8.051   6.275   4.999 -1.3196 -0.4874 -1.0827
19566SOL    HW270423   8.040   6.320   4.855 -0.4386  3.3726 -0.0621
19567SOL     OW70424   9.820   2.505   6.076 -0.2822  0.1223  0.0219
19567SOL    HW170425   9.898   2.497   6.021 -0.1213  0.8940  0.1215
19567SOL    HW270426   9.798   2.598   6.072 -1.2717 -0.1075 -0.1041
19568SOL     OW70427   2.297   2.600  10.710 -0.2459 -0.2389 -0.4089
19568SOL    HW170428   2.209   2.580  10.742 -0.9981  2.7528 -0.3193
19568SOL    HW270429   2.344   2.517  10.716 -3.3525 -2.2618 -1.6029
19569SOL     OW70430   8.159   9.323   3.183  0.1084 -0.0815  0.0162
19569SOL    HW170431   8.157   9.390   3.115 -1.2845  1.5698  1.5826
19569SOL    HW270432   8.251   9.297   3.188  1.0246  2.8680  0.3911
19570SOL     OW70433   5.310   5.023  11.342 -0.4085 -0.6492  0.5462
19570SOL    HW170434   5.250   4.956  11.309  0.5533 -1.6044  0.6860
19570SOL    HW270435   5.393   4.978  11.353  0.1184  0.4373  1.2106
19571SOL     OW70436   8.131   9.989   4.531 -0.3290  0.3525 -0.4403
19571SOL    HW170437   8.111  10.036   4.611  1.6648 -0.2151  0.4687
19571SOL    HW270438   8.158   9.902   4.560 -2.2271 -0.8263 -1.9514
19572SOL     OW70439  10.365   6.235   8.674  0.5170 -0.8633  0.1854
19572SOL    HW170440  10.310   6.228   8.596  1.0306  0.5150 -0.3218
19572SOL    HW270441  10.319   6.297   8.731  0.1383 -1.8660  1.0229
19573SOL     OW70442   9.637   1.091   1.500 -0.1222 -0.2642 -0.3445
19573SOL    HW170443   9.681   1.153   1.557  0.3473 -0.9126  0.0206
19573SOL    HW270444   9.704   1.026   1.478 -0.8577 -1.2225  0.1451
19574SOL     OW70445   0.859   6.789   7.785 -0.3024  0.2345  0.1701
19574SOL    HW170446   0.901   6.819   7.704  2.7564 -0.1269  1.5007
19574SOL    HW270447   0.788   6.852   7.799  0.1968  1.3586 -1.8503
19575SOL     OW70448  10.173   6.005   8.707 -0.0644  0.1973 -0.3750
19575SOL    HW170449  10.172   6.008   8.803  2.0920 -0.5209 -0.2853
19575SOL    HW270450  10.256   6.044   8.682  0.9866 -2.5949 -1.7442
19576SOL     OW70451   8.200   0.876   5.251  0.5444 -0.4893  0.4311
19576SOL    HW170452   8.145   0.824   5.309 -1.1748  1.6226  0.7902
19576SOL    HW270453   8.175   0.966   5.268  1.1320  0.3167 -2.4363
19577SOL     OW70454   1.624   6.436   0.477 -0.0153 -0.1074  0.5438
19577SOL    HW170455   1.692   6.491   0.438  1.8764 -0.4555  3.0640
19577SOL    HW270456   1.556   6.497   0.504 -0.4022  0.3404 -1.3636
19578SOL     OW70457   1.171   2.389   0.510 -0.0742 -0.2229  0.5779
19578SOL    HW170458   1.122   2.316   0.473 -2.5251  2.3714 -1.8489
19578SOL    HW270459   1.111   2.428   0.573  0.9942  0.0265  1.4734
19579SOL     OW70460   1.690  10.349   9.268 -0.0216 -0.3628 -0.0739
19579SOL    HW170461   1.647  10.425   9.229  0.7617 -0.7798 -1.8310
19579SOL    HW270462   1.624  10.311   9.326 -0.0064  2.4293  2.0249
19580SOL     OW70463   0.963  11.350  10.319 -0.3064  0.1640  0.3648
19580SOL    HW170464   0.978  11.427  10.375 -2.3630  2.7202 -2.3064
19580SOL    HW270465   1.037  11.350  10.259 -0.2459 -0.0504  0.4384
19581SOL     OW70466   7.516   1.633  11.430  0.9623 -0.3350  0.1525
19581SOL    HW170467   7.423   1.616  11.447  0.7900  0.1183 -0.3197
19581SOL    HW270468   7.555   1.641  11.518  0.0248  2.2653  0.4200
19582SOL     OW70469  10.111   2.710   6.506  0.0861 -1.2038  0.4785
19582SOL    HW170470  10.113   2.805   6.506 -0.2118 -1.1915  1.2366
19582SOL    HW270471  10.024   2.688   6.539  0.0086 -1.7389 -0.0635
19583SOL     OW70472   5.778   9.861  11.741  0.2284 -0.1978 -0.0778
19583SOL    HW170473   5.720   9.901  11.676 -0.4264  0.1674  0.7180
19583SOL    HW270474   5.781   9.769  11.717  2.2942  0.3472 -2.3620
19584SOL     OW70475   7.755  10.535   5.445 -0.5483 -0.1500  0.4626
19584SOL    HW170476   7.800  10.578   5.372  0.1721  1.7618  1.9432
19584SOL    HW270477   7.670  10.510   5.409 -0.4779  1.3495 -0.8738
19585SOL     OW70478   4.167   8.455   1.001  0.0428 -0.3442  0.8125
19585SOL    HW170479   4.105   8.451   0.928  0.0334 -0.7641  0.8413
19585SOL    HW270480   4.235   8.515   0.971 -0.0784 -0.3388  0.5473
19586SOL     OW70481   3.863   0.121  10.009 -0.6056 -0.6749 -0.3896
19586SOL    HW170482   3.904   0.194  10.055 -2.4213 -0.3808  0.8773
19586SOL    HW270483   3.876   0.046  10.068 -0.2110 -1.0058 -0.8938
19587SOL     OW70484   0.269   3.954   2.539 -0.6024 -0.1843 -0.6353
19587SOL    HW170485   0.207   3.906   2.484 -2.4004  1.0167  0.2365
19587SOL    HW270486   0.326   4.000   2.478 -1.7139  0.0956 -1.4753
19588SOL     OW70487   4.763   4.048   8.926 -0.2779 -0.3685 -0.3414
19588SOL    HW170488   4.702   4.028   8.997 -1.6076 -2.7342 -2.0050
19588SOL    HW270489   4.845   4.007   8.952 -0.2570  0.2161  0.5447
19589SOL     OW70490   3.934   5.799   0.538  0.0803 -0.6868  0.1023
19589SOL    HW170491   3.900   5.843   0.461  0.1246  1.0512  1.0176
19589SOL    HW270492   3.989   5.728   0.504 -0.5731 -0.4767 -1.4273
19590SOL     OW70493   7.830   1.296   0.982  0.0834  0.2196  0.1183
19590SOL    HW170494   7.749   1.251   1.005  0.8173 -1.0345  0.3047
19590SOL    HW270495   7.814   1.331   0.894 -0.4866 -0.4615 -0.0540
19591SOL     OW70496   8.334   3.432   7.756 -0.5433  0.0379  0.3178
19591SOL    HW170497   8.302   3.505   7.809 -1.0103  0.2625 -0.2474
19591SOL    HW270498   8.258   3.408   7.702 -0.1175 -0.2567 -0.1564
19592SOL     OW70499   1.916   0.212   7.585  0.3831  0.6423  0.4499
19592SOL    HW170500   1.945   0.256   7.505 -1.1482 -0.4790 -0.7844
19592SOL    HW270501   1.924   0.278   7.654  1.8519  1.5935 -0.5910
19593SOL     OW70502   2.688   3.493   5.659 -0.5090 -0.4228  0.0300
19593SOL    HW170503   2.753   3.445   5.607  0.0732  0.0291  0.3201
19593SOL    HW270504   2.719   3.484   5.749 -0.1262  0.8642  0.0522
19594SOL     OW70505   5.944   3.445   9.437 -0.0325  0.0384  0.3794
19594SOL    HW170506   5.894   3.396   9.502 -3.9610  0.9405 -1.6259
19594SOL    HW270507   5.953   3.384   9.363  0.1916  0.4838  0.0315
19595SOL     OW70508   1.297   5.249   3.999  0.0676 -0.1434  0.2732
19595SOL    HW170509   1.287   5.231   4.092 -0.9263  2.0890  0.6522
19595SOL    HW270510   1.392   5.247   3.985  0.5905  3.2237  2.2573
19596SOL     OW70511  11.439   1.171  11.883 -0.2530  0.0122  0.6189
19596SOL    HW170512  11.488   1.171  11.801 -1.1578 -0.8823  0.0540
19596SOL    HW270513  11.348   1.182  11.857 -0.3149  2.8864  1.7270
19597SOL     OW70514   9.317   8.567   5.339  0.2532  0.0640 -0.2681
19597SOL    HW170515   9.364   8.647   5.314  0.7516  0.1079  0.7243
19597SOL    HW270516   9.364   8.536   5.417 -1.1026 -0.1349  0.5036
19598SOL     OW70517   7.109   1.574   4.269 -0.2384  0.2435 -0.0591
19598SOL    HW170518   7.130   1.641   4.334  0.3572  0.9630 -0.9693
19598SOL    HW270519   7.016   1.588   4.250  0.5087  3.1013 -2.6462
19599SOL     OW70520   1.860   1.813   1.011  0.4316 -0.8291 -0.0924
19599SOL    HW170521   1.807   1.892   1.019 -1.6316 -2.1240 -0.2651
19599SOL    HW270522   1.934   1.839   0.955 -0.6928  0.7245 -0.9304
19600SOL     OW70523   1.727   5.907   3.833  0.0211  0.1017 -0.1430
19600SOL    HW170524   1.815   5.934   3.809  0.5667 -0.2468  1.3783
19600SOL    HW270525   1.710   5.831   3.777  0.0924  1.0154 -1.4639
19601SOL     OW70526  10.526   8.931  11.211 -0.1426  0.0829 -0.4105
19601SOL    HW170527  10.587   8.858  11.197  0.9297  0.5283  1.6300
19601SOL    HW270528  10.569   9.006  11.169 -0.8827 -0.2428 -1.8274
19602SOL     OW70529   3.855   9.304  11.336  0.1891 -0.5406  0.1099
19602SOL    HW170530   3.762   9.285  11.352 -0.4860  2.9835  1.1533
19602SOL    HW270531   3.900   9.261  11.408 -0.7891 -0.8946  0.5373
19603SOL     OW70532  10.607   9.203   8.945 -0.4869  0.2358 -0.5356
19603SOL    HW170533  10.675   9.176   8.884 -0.3916 -0.6130 -0.0656
19603SOL    HW270534  10.556   9.268   8.897  1.4886  1.9638 -0.4217
19604SOL     OW70535   0.398   5.886  11.509 -0.1193  0.1320  0.0034
19604SOL    HW170536   0.484   5.869  11.547 -0.3746 -0.4968  0.3291
19604SOL    HW270537   0.364   5.798  11.488  0.4477  0.4875 -2.6816
19605SOL     OW70538  11.736  10.442   2.445 -1.0055 -0.8604  0.1058
19605SOL    HW170539  11.680  10.394   2.384 -1.8596  0.5817 -0.2740
19605SOL    HW270540  11.726  10.534   2.421 -0.1854 -0.3846  1.4537
19606SOL     OW70541   4.492   9.339  11.344  0.1122 -0.2746  0.4682
19606SOL    HW170542   4.530   9.418  11.306 -1.2001  0.5064  0.7061
19606SOL    HW270543   4.508   9.347  11.438 -0.3924 -0.0681  0.5402
19607SOL     OW70544   3.893   8.751   7.887 -0.3147 -0.0929  0.4977
19607SOL    HW170545   3.833   8.808   7.936  0.7999  0.2699  1.4769
19607SOL    HW270546   3.980   8.776   7.918  0.2471 -1.7951  0.3753
19608SOL     OW70547   7.520   0.944  11.368 -0.4567  0.5531  0.2372
19608SOL    HW170548   7.571   0.937  11.287 -0.9635 -1.2221  0.0341
19608SOL    HW270549   7.584   0.967  11.435  0.6129 -1.3138 -0.0665
19609SOL     OW70550   7.574   5.279   4.397 -0.7843  0.3230 -0.2649
19609SOL    HW170551   7.640   5.224   4.439 -2.2561 -1.2556  0.0748
19609SOL    HW270552   7.519   5.310   4.468 -2.6432 -1.4851 -0.8101
19610SOL     OW70553   5.429   9.415   2.215 -0.1828  0.3165  0.4892
19610SOL    HW170554   5.341   9.446   2.195 -1.0198  0.1823  3.4875
19610SOL    HW270555   5.420   9.372   2.300  2.6732 -0.2308  0.5983
19611SOL     OW70556   0.836   0.407   3.379 -0.3874  0.5799 -0.3982
19611SOL    HW170557   0.768   0.454   3.331 -2.4640 -1.6469  0.1772
19611SOL    HW270558   0.890   0.366   3.311 -0.9262  0.6174 -0.8501
19612SOL     OW70559   5.187   2.569   2.239  0.2110  0.4076 -0.0372
19612SOL    HW170560   5.174   2.485   2.195 -0.0685  1.0552 -1.2234
19612SOL    HW270561   5.238   2.548   2.317 -1.5013 -1.1424  0.7199
19613SOL     OW70562   2.443   8.340   1.350 -0.7404 -0.3702  0.0994
19613SOL    HW170563   2.372   8.371   1.294 -0.2784 -0.1225 -0.3645
19613SOL    HW270564   2.415   8.361   1.439 -1.3556 -0.5003 -0.0575
19614SOL     OW70565   1.807   7.974   4.609 -0.0872  0.2550 -0.3498
19614SOL    HW170566   1.849   8.003   4.528 -0.9008  0.0741 -0.8357
19614SOL    HW270567   1.880   7.945   4.664  0.3033 -2.0333 -1.9772
19615SOL     OW70568   4.365   1.958  11.932 -0.0966 -0.2764 -0.3440
19615SOL    HW170569   4.345   1.865  11.927  0.1645 -0.3485 -0.0520
19615SOL    HW270570   4.279   2.001  11.937 -0.1977 -0.5836  0.8735
19616SOL     OW70571   9.446   2.346   8.739 -0.4359  0.4740  0.7766
19616SOL    HW170572   9.359   2.316   8.712 -0.7521  2.3269 -0.5005
19616SOL    HW270573   9.428   2.411   8.807 -0.0794  0.8924  0.4780
19617SOL     OW70574   9.689   1.990   6.168  0.2065  0.1733  0.2226
19617SOL    HW170575   9.705   1.968   6.260  0.5479 -0.6512 -0.0280
19617SOL    HW270576   9.773   2.021   6.136 -0.0386  0.9596  0.3143
19618SOL     OW70577   8.564   3.539   9.707 -1.1522  0.8087  0.5233
19618SOL    HW170578   8.517   3.611   9.750 -2.1490  0.0155  0.8135
19618SOL    HW270579   8.608   3.580   9.633 -1.5722  1.7517  0.7824
19619SOL     OW70580   4.003   9.447   4.688 -0.0276  0.7463  0.1573
19619SOL    HW170581   3.938   9.514   4.668 -0.4113  0.1096 -0.8339
19619SOL    HW270582   4.081   9.496   4.714 -0.8480  1.5240  1.2402
19620SOL     OW70583  10.418  10.866   6.355  0.1385 -0.1884 -0.5236
19620SOL    HW170584  10.465  10.884   6.436  0.1342 -1.2599 -0.2741
19620SOL    HW270585  10.417  10.950   6.309  1.0503  0.1837  0.1084
19621SOL     OW70586   3.219   4.820   6.082 -0.4785  0.1298  0.2201
19621SOL    HW170587   3.176   4.870   6.013  0.1860  0.6966  0.2063
19621SOL    HW270588   3.286   4.879   6.116  0.8521 -1.0328 -0.3157
19622SOL     OW70589   6.325  10.431   2.167 -0.8162 -0.4399  0.3186
19622SOL    HW170590   6.233  10.431   2.140 -1.0607  0.8297  1.0854
19622SOL    HW270591   6.343  10.521   2.193  0.9427 -0.4373 -0.7552
19623SOL     OW70592   3.462  11.843   4.383  0.4054 -0.5642  0.5149
19623SOL    HW170593   3.497  11.853   4.294 -0.7647 -2.3529 -0.2151
19623SOL    HW270594   3.539  11.852   4.440  0.8774  2.8937 -0.4182
19624SOL     OW70595   6.248   3.663   8.358 -0.0879  0.2740 -0.3102
19624SOL    HW170596   6.292   3.587   8.397 -0.6424  0.2531  0.3000
19624SOL    HW270597   6.260   3.652   8.264  1.7059  0.5686 -0.1566
19625SOL     OW70598   9.301   9.026   5.205 -0.1968 -0.0878 -0.3443
19625SOL    HW170599   9.244   9.090   5.248 -1.8759 -1.0391 -1.0410
19625SOL    HW270600   9.329   9.070   5.125 -0.1398  0.3054 -0.1133
19626SOL     OW70601   1.951  10.784   1.728 -0.2732 -0.2123  0.2783
19626SOL    HW170602   1.880  10.764   1.790 -0.2069  0.4552  0.5699
19626SOL    HW270603   1.950  10.879   1.720  0.0805 -0.2552 -0.3281
19627SOL     OW70604   2.509   2.544  11.871  0.5601 -0.1364 -0.3370
19627SOL    HW170605   2.456   2.624  11.874 -0.9666 -1.1061 -0.2652
19627SOL    HW270606   2.491   2.507  11.784  2.2769  0.2237 -0.8863
19628SOL     OW70607   8.190   9.844   1.050  0.2346  0.5119  0.0073
19628SOL    HW170608   8.117   9.869   0.993  0.7365  0.5744 -0.6170
19628SOL    HW270609   8.253   9.803   0.992  0.5946  0.2359  0.5851
19629SOL     OW70610   8.871   4.028   9.679 -0.1955 -0.4784  0.0518
19629SOL    HW170611   8.811   3.956   9.700 -0.1464 -0.0300  1.9339
19629SOL    HW270612   8.813   4.102   9.660 -0.3142  0.0608  2.2592
19630SOL     OW70613   1.674   6.950   4.242 -0.4464 -0.1071 -0.2300
19630SOL    HW170614   1.646   7.002   4.317  0.7550  1.4280 -0.7847
19630SOL    HW270615   1.609   6.970   4.174 -0.8888 -0.6089  0.0362
19631SOL     OW70616   5.243   4.701   4.049 -0.7399 -0.6971 -0.2622
19631SOL    HW170617   5.306   4.704   3.977 -1.8927 -0.4331 -1.2854
19631SOL    HW270618   5.285   4.645   4.115 -0.1179 -1.8746 -1.5944
19632SOL     OW70619  10.162   6.051   4.766  0.4021 -0.3520  0.6541
19632SOL    HW170620  10.067   6.039   4.769  0.0743  1.5244 -0.6397
19632SOL    HW270621  10.179   6.124   4.825  1.1019 -0.9151  1.1627
19633SOL     OW70622   6.053   3.133   3.237  0.1982 -1.0270 -0.3322
19633SOL    HW170623   6.105   3.213   3.233 -1.3668  0.0646 -4.0944
19633SOL    HW270624   6.008   3.130   3.152 -3.0866 -3.7268  1.2566
19634SOL     OW70625   4.113   6.890   7.721  0.1123 -0.3713 -0.0458
19634SOL    HW170626   4.171   6.846   7.659  0.5810 -0.4123  0.4135
19634SOL    HW270627   4.109   6.980   7.689  0.2426 -0.4231 -0.2128
19635SOL     OW70628   1.946   1.510   8.836 -0.4471 -0.1728  0.1891
19635SOL    HW170629   1.988   1.596   8.832 -0.2347 -0.3071 -2.6812
19635SOL    HW270630   1.979   1.471   8.917  0.6801  1.8308  0.7626
19636SOL     OW70631   6.004   7.993   9.663  0.4708 -0.3030 -0.3338
19636SOL    HW170632   6.072   7.939   9.623  0.2088  0.5813 -2.0755
19636SOL    HW270633   6.012   8.078   9.619 -1.2369  0.0610  0.0027
19637SOL     OW70634   0.449   2.231   0.688 -0.0544 -0.3174  0.1846
19637SOL    HW170635   0.476   2.243   0.596  1.0673 -0.3426  0.4954
19637SOL    HW270636   0.435   2.320   0.720 -1.2713 -0.3474 -0.2400
19638SOL     OW70637   3.234  10.513   3.521 -0.0465 -0.0533 -0.5408
19638SOL    HW170638   3.303  10.568   3.559  0.5674 -0.1015 -1.5493
19638SOL    HW270639   3.256  10.509   3.428  0.0478 -2.1835 -0.4758
19639SOL     OW70640   6.222   0.292   2.495  0.2979  0.2491  0.9814
19639SOL    HW170641   6.204   0.334   2.411  1.2496  0.6732  0.9863
19639SOL    HW270642   6.205   0.360   2.561  1.1464  0.4166  1.0316
19640SOL     OW70643   8.155   2.578   9.577  0.2836  0.1287  0.2433
19640SOL    HW170644   8.171   2.671   9.565 -0.1947  0.4296  1.8066
19640SOL    HW270645   8.077   2.560   9.525 -0.9809  1.1144  1.7272
19641SOL     OW70646   9.237   0.952  11.457 -0.1204 -0.4779  0.2696
19641SOL    HW170647   9.215   0.910  11.541 -0.3969 -2.0032 -0.5290
19641SOL    HW270648   9.221   0.884  11.392 -0.5748  0.8947 -1.1018
19642SOL     OW70649   7.300   1.348   1.910 -0.3117  0.0227  0.1469
19642SOL    HW170650   7.389   1.382   1.919 -0.3910 -0.3097  3.2679
19642SOL    HW270651   7.245   1.426   1.901  0.1393  0.3076 -0.1846
19643SOL     OW70652   0.533   1.701   3.462  0.2384 -0.2164  0.1027
19643SOL    HW170653   0.537   1.740   3.375 -0.0576 -0.0239  0.1738
19643SOL    HW270654   0.443   1.715   3.491  0.2963 -0.4042  0.3824
19644SOL     OW70655   3.719   5.200   0.236 -0.6156  0.2013 -0.1136
19644SOL    HW170656   3.729   5.293   0.257 -1.3637  0.1327  0.6212
19644SOL    HW270657   3.656   5.168   0.301 -1.5973 -0.4651 -1.3552
19645SOL     OW70658   4.927   7.333  10.285  0.5832  0.8982 -0.2408
19645SOL    HW170659   5.015   7.366  10.268  0.9073  0.0789 -0.2066
19645SOL    HW270660   4.928   7.306  10.377  1.7174 -3.1755 -1.2436
19646SOL     OW70661   5.343   5.607  10.402 -0.0564  0.6046 -0.4020
19646SOL    HW170662   5.404   5.682  10.400 -0.5760  1.0807  0.7699
19646SOL    HW270663   5.392   5.538  10.448  0.4892  0.1378 -1.6407
19647SOL     OW70664   2.115   5.416   4.615 -0.7011 -0.3651 -0.2174
19647SOL    HW170665   2.164   5.499   4.621 -2.5093  0.6945  0.6148
19647SOL    HW270666   2.175   5.357   4.570  2.7535 -0.2281  3.6619
19648SOL     OW70667   2.166   3.200   0.152 -0.0186  0.3319 -0.1447
19648SOL    HW170668   2.170   3.288   0.116  0.8519  0.0766 -0.6803
19648SOL    HW270669   2.097   3.205   0.219 -0.8963  1.0773 -1.0781
19649SOL     OW70670   8.414   0.926   0.920 -0.3667 -0.3324 -0.4168
19649SOL    HW170671   8.400   0.840   0.960 -1.8150 -0.0197 -0.1719
19649SOL    HW270672   8.334   0.942   0.870 -0.1924  0.9515 -0.3138
19650SOL     OW70673   9.501   8.825  10.912  0.0253  0.3786 -0.4151
19650SOL    HW170674   9.589   8.830  10.950  0.3431 -1.4742 -0.7893
19650SOL    HW270675   9.447   8.787  10.982 -0.7368  2.3908  0.1480
19651SOL     OW70676  11.777   1.116   7.649 -0.2019 -0.4166 -0.2740
19651SOL    HW170677  11.730   1.043   7.688 -1.1710  0.6047  0.5336
19651SOL    HW270678  11.709   1.180   7.628  0.7509  0.8537  0.3674
19652SOL     OW70679   3.287  10.732  10.446  0.7569 -0.2403  0.1289
19652SOL    HW170680   3.204  10.774  10.426 -1.2839 -2.2682  3.3499
19652SOL    HW270681   3.347  10.804  10.467 -0.8952  1.2142  0.0275
19653SOL     OW70682   8.686   0.216   2.924 -0.1722 -0.1758 -0.1148
19653SOL    HW170683   8.715   0.223   3.015 -0.5318 -2.4079  0.2359
19653SOL    HW270684   8.768   0.211   2.874  0.0291  0.5129  0.1400
19654SOL     OW70685  10.715   2.315   5.625  0.0994 -0.5547  0.0219
19654SOL    HW170686  10.723   2.381   5.555 -0.2440 -0.9543 -0.4022
19654SOL    HW270687  10.792   2.330   5.680 -0.1548  0.4268  0.1294
19655SOL     OW70688   0.085   0.443   1.216  0.1196 -0.0200 -0.2612
19655SOL    HW170689   0.078   0.362   1.267 -0.3542  0.5398  0.5928
19655SOL    HW270690   0.068   0.512   1.280 -2.4609  0.6554 -1.5775
19656SOL     OW70691   3.524   9.879   9.530 -0.7443  0.2272 -0.0022
19656SOL    HW170692   3.573   9.911   9.454 -0.4448  1.5908  0.7308
19656SOL    HW270693   3.570   9.798   9.555  0.9641  1.2798  0.4453
19657SOL     OW70694  10.374   0.714   7.944 -0.5033  0.2253  0.1480
19657SOL    HW170695  10.411   0.627   7.928 -1.4675 -0.3406  0.8571
19657SOL    HW270696  10.281   0.704   7.923 -0.5924  1.1379  0.0802
19658SOL     OW70697   7.095   1.135   3.309 -0.1484 -0.1849 -0.1180
19658SOL    HW170698   7.166   1.121   3.371 -0.5155 -0.6196  0.2139
19658SOL    HW270699   7.094   1.230   3.295 -1.4187  0.2274  2.2155
19659SOL     OW70700   6.644   7.271   1.364  0.2476 -0.1058 -0.7613
19659SOL    HW170701   6.642   7.354   1.412 -0.5497  0.0247 -1.0087
19659SOL    HW270702   6.560   7.267   1.319  0.4131 -0.8972 -1.0173
19660SOL     OW70703   2.528   3.678   7.968 -0.5357 -0.1401 -0.2339
19660SOL    HW170704   2.437   3.704   7.981 -0.5499  0.0178 -0.6584
19660SOL    HW270705   2.526   3.618   7.894 -0.1776  0.5561 -0.8118
19661SOL     OW70706   2.256   6.542  10.889 -0.4379 -0.5410  0.1766
19661SOL    HW170707   2.252   6.609  10.821  1.0474 -1.6208 -1.0346
19661SOL    HW270708   2.169   6.542  10.928 -0.7236  1.4857 -0.3496
19662SOL     OW70709   4.601   6.259   9.269  0.4007 -0.1882 -0.3052
19662SOL    HW170710   4.527   6.235   9.214 -1.2360  0.4113  1.5389
19662SOL    HW270711   4.614   6.353   9.252  0.1115 -0.0795  0.0558
19663SOL     OW70712   3.360   4.287   2.770 -0.0150  0.7804  0.5992
19663SOL    HW170713   3.432   4.232   2.739  0.2085 -0.1949  2.6824
19663SOL    HW270714   3.302   4.297   2.694  2.1185  1.3464 -1.0429
19664SOL     OW70715   5.392  10.987   1.068 -0.0967  0.2579  0.2331
19664SOL    HW170716   5.355  11.067   1.032  1.1132  1.1726  0.9482
19664SOL    HW270717   5.346  10.917   1.023 -2.8709  1.2923  1.2665
19665SOL     OW70718   8.857   3.240  11.376  0.6974  0.6234  0.6047
19665SOL    HW170719   8.840   3.322  11.330 -0.4612  1.1424  1.8797
19665SOL    HW270720   8.879   3.267  11.465  2.6962 -0.3633  0.4594
19666SOL     OW70721   8.561   3.717   6.849  0.2104 -0.0355 -0.0967
19666SOL    HW170722   8.495   3.679   6.906  1.6557 -2.4956  0.0751
19666SOL    HW270723   8.630   3.747   6.909  1.1023 -1.3512 -0.4234
19667SOL     OW70724   4.699   8.524   7.321 -0.1745 -0.0940  0.3548
19667SOL    HW170725   4.788   8.540   7.351  0.2620  0.3936 -1.1325
19667SOL    HW270726   4.702   8.437   7.283 -0.0614  0.3295 -0.6293
19668SOL     OW70727   8.614   9.336   1.250  0.3527  1.0965  0.0232
19668SOL    HW170728   8.709   9.351   1.254  0.2826  1.3120  1.4156
19668SOL    HW270729   8.590   9.312   1.339 -0.6307 -0.7398 -0.6786
19669SOL     OW70730   0.399   2.342   8.668 -0.0693 -0.0265  0.0797
19669SOL    HW170731   0.441   2.278   8.725 -0.3680  0.4743  0.8899
19669SOL    HW270732   0.311   2.353   8.706 -0.2365  0.3840 -0.4233
19670SOL     OW70733   7.999   8.714  11.905  0.1028  0.1210 -0.4555
19670SOL    HW170734   7.947   8.782  11.949 -1.8684 -1.2580 -0.5400
19670SOL    HW270735   8.048   8.672  11.976  1.7311  1.8668 -0.4622
19671SOL     OW70736   9.029   8.042   9.927  0.3338 -0.2056 -0.7723
19671SOL    HW170737   8.979   8.087   9.994  1.0690  0.5881 -0.7369
19671SOL    HW270738   8.977   8.053   9.847 -0.4827 -1.0546 -0.3699
19672SOL     OW70739   6.201   4.262  11.362  0.1173 -0.1438  0.2782
19672SOL    HW170740   6.190   4.356  11.351 -2.1269 -0.2635  1.0506
19672SOL    HW270741   6.158   4.242  11.445  0.1536 -1.9214 -0.0938
19673SOL     OW70742   5.383   5.141   9.938 -0.1343  0.2486  0.2221
19673SOL    HW170743   5.395   5.125  10.032  0.2328  0.5629  0.2262
19673SOL    HW270744   5.293   5.173   9.931 -0.8511 -1.5855  0.2441
19674SOL     OW70745   0.997   3.912   7.419  0.0772  0.1239  0.5275
19674SOL    HW170746   0.964   3.986   7.367  0.0487 -1.3253 -1.6534
19674SOL    HW270747   1.074   3.947   7.463  0.7648  1.2016 -1.3806
19675SOL     OW70748   4.349   3.386   0.178 -0.1434  0.3424  0.1014
19675SOL    HW170749   4.357   3.291   0.167 -1.4564  0.1577  0.6727
19675SOL    HW270750   4.440   3.416   0.186  0.2519 -1.0089  1.1380
19676SOL     OW70751  10.202   1.546   3.513  0.2434 -0.0742  0.3315
19676SOL    HW170752  10.208   1.584   3.425  0.3929  0.6350  0.6372
19676SOL    HW270753  10.122   1.493   3.510  0.9705 -1.1655 -0.6286
19677SOL     OW70754   1.228   4.187   3.165  0.0538 -0.0516 -0.1405
19677SOL    HW170755   1.218   4.153   3.076 -0.3130 -0.2852 -0.0120
19677SOL    HW270756   1.234   4.282   3.154 -0.8715 -0.0066 -0.3483
19678SOL     OW70757   1.704   6.510   4.966 -0.3031  0.3676  0.6086
19678SOL    HW170758   1.757   6.578   4.923  0.0528 -0.3766 -0.1485
19678SOL    HW270759   1.615   6.546   4.968 -0.1861  0.7028 -0.1101
19679SOL     OW70760   1.384   0.320   2.800 -0.3177 -0.7560 -0.1140
19679SOL    HW170761   1.418   0.340   2.713 -0.9485  0.3262 -0.1221
19679SOL    HW270762   1.340   0.400   2.828  1.2947 -0.4843  1.8883
19680SOL     OW70763   8.498   4.595   4.119 -0.3906  1.0014  0.1238
19680SOL    HW170764   8.481   4.594   4.025  1.8959 -2.6279 -0.4310
19680SOL    HW270765   8.463   4.512   4.151  1.2513  0.9312  1.9359
19681SOL     OW70766   6.817   5.345   7.441  0.0601  0.0199 -0.2543
19681SOL    HW170767   6.900   5.325   7.484 -0.1260  1.3417  0.7918
19681SOL    HW270768   6.838   5.418   7.382 -0.8562  2.4114  2.1845
19682SOL     OW70769   3.637   7.687   8.075  0.3186  0.2249 -0.2548
19682SOL    HW170770   3.571   7.706   8.008  1.2847  0.4617 -1.1857
19682SOL    HW270771   3.588   7.648   8.147 -0.8660  0.6454 -0.7974
19683SOL     OW70772   5.408  10.157  11.328  0.7580 -0.1300 -0.2685
19683SOL    HW170773   5.436  10.239  11.286 -2.1295  0.8373 -0.5629
19683SOL    HW270774   5.397  10.096  11.255  0.4312  0.0552 -0.3813
19684SOL     OW70775  11.227   0.715   4.795  0.2722  0.1816 -0.1346
19684SOL    HW170776  11.180   0.665   4.862 -1.4497 -0.0350 -1.4531
19684SOL    HW270777  11.159   0.755   4.742  1.5668  0.1664 -1.9042
19685SOL     OW70778   4.568  10.930   9.577 -0.3578  0.3595 -0.2931
19685SOL    HW170779   4.541  11.003   9.633  0.6282 -0.7249  1.7116
19685SOL    HW270780   4.661  10.920   9.594 -0.4792 -1.3953 -0.4449
19686SOL     OW70781   8.301   5.922  10.904  0.0193 -0.2052  0.1840
19686SOL    HW170782   8.228   5.974  10.938  0.9628  1.1102  0.2579
19686SOL    HW270783   8.377   5.953  10.953  1.3173  1.2782 -2.5592
19687SOL     OW70784   0.050   5.289   5.184  0.3137 -0.3080 -0.3575
19687SOL    HW170785   0.104   5.218   5.149 -1.4727 -1.8100 -0.2669
19687SOL    HW270786  -0.034   5.279   5.139 -0.7763  0.2015  1.4602
19688SOL     OW70787   6.207  10.412   2.445  0.0655 -0.2331 -0.6740
19688SOL    HW170788   6.237  10.388   2.533 -1.7005 -0.0419  0.0303
19688SOL    HW270789   6.284  10.401   2.389  1.5618  0.7743  1.0851
19689SOL     OW70790   1.474   6.655   0.434  0.0574 -0.2286 -0.7622
19689SOL    HW170791   1.484   6.747   0.411  0.9192 -0.4922 -1.4756
19689SOL    HW270792   1.388   6.632   0.398 -1.0776  0.7857  1.1603
19690SOL     OW70793   5.069   2.666   8.549  0.6202  0.3035  0.3020
19690SOL    HW170794   5.021   2.668   8.632 -0.1293  0.5422 -0.1259
19690SOL    HW270795   5.160   2.649   8.574  0.2670 -0.4549  1.1055
19691SOL     OW70796   8.702   5.879   1.275  0.0308 -0.1787  0.2706
19691SOL    HW170797   8.762   5.924   1.216 -0.6699  0.7860  0.2793
19691SOL    HW270798   8.757   5.815   1.320  0.6142 -0.7981 -1.2701
19692SOL     OW70799   3.412   5.317   3.890 -0.5589  0.2761  0.5294
19692SOL    HW170800   3.319   5.299   3.881 -0.5063  0.7306 -1.1722
19692SOL    HW270801   3.450   5.294   3.806  1.1876 -1.5940  1.7279
19693SOL     OW70802   4.190   1.492  10.912 -0.4496  0.0754  0.3750
19693SOL    HW170803   4.111   1.545  10.922 -1.7999 -1.6799 -0.4454
19693SOL    HW270804   4.245   1.543  10.852 -1.4909  0.7559 -0.0321
19694SOL     OW70805   9.948  10.143  10.197  0.0315  0.0216  0.0263
19694SOL    HW170806   9.884  10.178  10.258  1.0504  0.1227  1.0656
19694SOL    HW270807  10.026  10.196  10.210  0.4483 -0.3244 -0.9561
19695SOL     OW70808   9.166   4.443   7.411 -0.6240  0.6144 -0.0709
19695SOL    HW170809   9.256   4.440   7.380 -0.5548 -0.5730  0.1859
19695SOL    HW270810   9.136   4.532   7.392  0.6805  1.0972  0.0871
19696SOL     OW70811   5.552   6.577   5.447 -0.1325 -0.0189  0.2609
19696SOL    HW170812   5.493   6.644   5.412 -0.1582 -0.0319  0.2790
19696SOL    HW270813   5.514   6.494   5.418  0.0163 -0.0178  0.0615
19697SOL     OW70814   8.482   4.551  11.200  0.4472  0.1877 -0.2222
19697SOL    HW170815   8.478   4.585  11.111  1.2166  1.0755  0.0659
19697SOL    HW270816   8.576   4.535  11.215  0.2178 -0.9860  0.0575
19698SOL     OW70817   8.203   7.590   6.381  0.4228  0.7528  0.0871
19698SOL    HW170818   8.207   7.523   6.450  2.0640  1.5042  0.7824
19698SOL    HW270819   8.279   7.572   6.326  0.2778  1.4131 -0.3348
19699SOL     OW70820   8.067   4.497   4.809 -0.1689 -0.0204 -0.1206
19699SOL    HW170821   7.992   4.449   4.844 -0.8809  2.1337  1.5527
19699SOL    HW270822   8.059   4.489   4.714 -2.1733 -0.3193  0.0385
19700SOL     OW70823   0.084   6.601   5.116 -0.0184 -0.1035 -0.4718
19700SOL    HW170824   0.064   6.690   5.088 -0.4580 -0.3316 -0.8920
19700SOL    HW270825   0.093   6.551   5.034 -0.9714 -0.7047 -0.2301
19701SOL     OW70826   5.792   1.272   9.074 -0.0764 -0.6624  0.1591
19701SOL    HW170827   5.856   1.303   9.010 -0.0043  0.4047  0.7354
19701SOL    HW270828   5.757   1.192   9.035 -0.9261  0.5913 -1.8026
19702SOL     OW70829   1.760   6.101   2.452 -0.2751  0.2862 -0.3969
19702SOL    HW170830   1.823   6.048   2.499 -0.4990 -1.5252 -2.0104
19702SOL    HW270831   1.679   6.095   2.503 -0.0828 -0.3165 -0.1555
19703SOL     OW70832   8.406   8.949   3.558 -0.3191 -0.6026 -0.3571
19703SOL    HW170833   8.455   8.873   3.589 -0.6756  0.1253  2.2949
19703SOL    HW270834   8.368   8.987   3.638 -1.4512  1.4558 -1.7684
19704SOL     OW70835   7.568  11.287   1.867  0.1416  0.1478 -0.5321
19704SOL    HW170836   7.474  11.265   1.869  0.0989  0.3583  1.1548
19704SOL    HW270837   7.604  11.231   1.798 -0.9671 -1.0722 -0.1675
19705SOL     OW70838   3.060   5.656  10.484  0.1581  0.2701 -0.5151
19705SOL    HW170839   3.007   5.720  10.531  1.8665  0.1103  1.7999
19705SOL    HW270840   3.003   5.580  10.475 -0.7868  0.9310 -0.2833
19706SOL     OW70841   0.879   2.461   6.313  0.2654 -0.4542  0.2890
19706SOL    HW170842   0.825   2.388   6.282  2.1704 -1.2022 -1.4957
19706SOL    HW270843   0.864   2.531   6.249 -0.9176  0.4702  1.5317
19707SOL     OW70844  11.274   2.264   6.835  0.3008 -0.6067 -0.2729
19707SOL    HW170845  11.252   2.182   6.790 -1.8593  0.4541 -1.3088
19707SOL    HW270846  11.272   2.241   6.928 -1.0024 -1.6189 -0.5147
19708SOL     OW70847   0.665   2.771   9.764 -0.4126 -0.4202 -0.4621
19708SOL    HW170848   0.722   2.705   9.724 -0.1445 -0.4610 -0.0165
19708SOL    HW270849   0.723   2.845   9.784 -0.8415  0.2707 -1.6547
19709SOL     OW70850  10.332   1.997   0.217  0.3156  0.3578  0.0028
19709SOL    HW170851  10.327   1.976   0.124 -2.1160  0.9202 -0.0694
19709SOL    HW270852  10.386   2.076   0.221  0.7404  0.1276 -0.8658
19710SOL     OW70853   2.122   2.150  10.209  0.1561 -0.2309  0.3006
19710SOL    HW170854   2.039   2.189  10.233  0.4650 -0.4388  1.8162
19710SOL    HW270855   2.120   2.062  10.248 -0.1067 -1.4136 -2.1404
19711SOL     OW70856   6.144   1.409   8.635  0.3285 -0.6113 -0.4695
19711SOL    HW170857   6.119   1.390   8.725  1.1383  0.7021  0.0644
19711SOL    HW270858   6.234   1.441   8.641  0.3898 -0.4843 -1.7449
19712SOL     OW70859   0.405  10.670   8.806 -0.0075 -0.6290  0.5471
19712SOL    HW170860   0.314  10.686   8.830  0.0189 -0.9350  0.8688
19712SOL    HW270861   0.407  10.579   8.776 -0.0143 -0.2863 -0.5259
19713SOL     OW70862  11.347   6.365   7.199 -0.1167  0.2856 -0.5880
19713SOL    HW170863  11.417   6.343   7.137 -0.0121 -0.5791 -0.1802
19713SOL    HW270864  11.271   6.315   7.169  0.0413 -0.4391  0.1867
19714SOL     OW70865  10.659   3.094  11.715  0.7597 -0.0838  0.1901
19714SOL    HW170866  10.696   3.057  11.635 -1.0873 -0.5713 -0.5067
19714SOL    HW270867  10.606   3.023  11.752 -0.0294  0.7637  0.7323
19715SOL     OW70868   5.600   8.980   9.760  0.8867  0.2831  0.0500
19715SOL    HW170869   5.564   8.950   9.676  0.3153 -0.1219  0.4353
19715SOL    HW270870   5.690   8.949   9.760  0.8975  0.3042 -0.4273
19716SOL     OW70871  10.965   4.060   7.964 -0.1156  0.0976  0.0706
19716SOL    HW170872  10.973   4.015   7.880  0.6566  0.9792 -0.3448
19716SOL    HW270873  11.018   4.139   7.955  0.6123 -0.1553  1.6418
19717SOL     OW70874   0.030   5.100  10.195  0.1640 -0.0830 -0.4292
19717SOL    HW170875   0.017   5.159  10.120  0.3819 -0.2180 -0.5770
19717SOL    HW270876   0.045   5.014  10.155  0.7072 -0.0772 -0.2418
19718SOL     OW70877   7.454   5.053   9.348 -0.1881 -0.8677 -0.4222
19718SOL    HW170878   7.392   5.028   9.416 -2.0804  2.5373 -0.6872
19718SOL    HW270879   7.536   5.067   9.395 -0.9425 -0.5179  0.8413
19719SOL     OW70880   1.153  10.002   5.032 -0.4046  0.1815 -0.1605
19719SOL    HW170881   1.178   9.910   5.030 -1.6154 -0.1441 -1.3109
19719SOL    HW270882   1.174  10.034   4.945 -0.7674  0.7802 -0.0324
19720SOL     OW70883   0.863   3.190   8.529  0.0297 -0.4203  0.2174
19720SOL    HW170884   0.931   3.185   8.596  0.3357  1.2962  0.0639
19720SOL    HW270885   0.908   3.170   8.447 -0.4035 -2.8343  0.4692
19721SOL     OW70886  11.762   5.071  10.345 -0.2063  0.0571  0.0465
19721SOL    HW170887  11.797   5.048  10.431 -0.8944 -3.0561 -0.3800
19721SOL    HW270888  11.838   5.100  10.295  0.4169  0.6809  1.3074
19722SOL     OW70889  10.246   3.727   9.715  0.8411 -0.2995 -0.0958
19722SOL    HW170890  10.193   3.735   9.636 -0.8675  2.1507  1.1553
19722SOL    HW270891  10.182   3.731   9.787  2.5260 -0.0936  1.4526
19723SOL     OW70892   6.869   8.874   1.817  0.3886  0.4919  0.1831
19723SOL    HW170893   6.896   8.941   1.880 -1.0123  1.5429 -0.2770
19723SOL    HW270894   6.919   8.894   1.738  1.2489 -0.0825  0.5717
19724SOL     OW70895   7.238  10.354   1.609  0.3466 -0.0101 -0.0452
19724SOL    HW170896   7.266  10.288   1.673  2.3186 -0.3949 -1.2124
19724SOL    HW270897   7.280  10.435   1.639  0.8054 -0.0675 -0.5267
19725SOL     OW70898  10.048   6.728   1.597 -0.5156 -0.4211  0.3810
19725SOL    HW170899  10.057   6.742   1.503 -1.9609  1.5463  0.4816
19725SOL    HW270900  10.024   6.636   1.606  2.1497 -1.3548 -0.9314
19726SOL     OW70901   3.215   1.612   9.910  0.4156 -0.1687  0.1835
19726SOL    HW170902   3.205   1.594  10.003 -0.0424 -1.5770 -0.1169
19726SOL    HW270903   3.238   1.528   9.871  0.2519  0.3203 -1.0336
19727SOL     OW70904   8.499   7.201  10.675 -0.6336  0.4189  1.1746
19727SOL    HW170905   8.506   7.143  10.599 -0.8603  0.2881  1.2553
19727SOL    HW270906   8.571   7.264  10.663  1.1639 -1.2977  2.3350
19728SOL     OW70907   3.629   2.733   6.528  0.0387  0.6629 -0.2769
19728SOL    HW170908   3.667   2.719   6.614 -1.0817  3.4479  0.7865
19728SOL    HW270909   3.563   2.664   6.519 -1.3941  1.5985  2.1269
19729SOL     OW70910   5.565   6.643   9.886 -0.3226  0.4682 -0.1315
19729SOL    HW170911   5.593   6.626   9.976  0.6291  1.9882 -0.0946
19729SOL    HW270912   5.474   6.612   9.882  0.7636 -3.2566  0.1890
19730SOL     OW70913   9.560   4.437  10.095  0.2601  0.2405 -0.1403
19730SOL    HW170914   9.513   4.519  10.080 -0.6617 -0.0449  1.0590
19730SOL    HW270915   9.631   4.461  10.155  0.4041  0.2854 -0.3276
19731SOL     OW70916   0.232  10.017  10.229  0.0266  0.2572  0.1435
19731SOL    HW170917   0.277  10.031  10.145 -1.8538 -0.3264 -1.0343
19731SOL    HW270918   0.279   9.945  10.270  0.3579 -0.1478 -0.9091
19732SOL     OW70919   9.522   7.453   4.768  0.0867  0.0643  0.1522
19732SOL    HW170920   9.614   7.428   4.756  0.4013  2.0228 -2.2144
19732SOL    HW270921   9.506   7.519   4.701 -2.8554  0.3830  1.0348
19733SOL     OW70922  11.007   8.433   9.517  0.2698 -0.2888  0.7634
19733SOL    HW170923  11.101   8.438   9.536  0.5903  0.2563 -0.8042
19733SOL    HW270924  10.976   8.523   9.526  0.9142  0.5256 -3.1981
19734SOL     OW70925   2.019   8.725  10.999 -0.6621  0.4464 -0.0930
19734SOL    HW170926   2.043   8.640  11.036 -1.8257 -0.0070 -0.3218
19734SOL    HW270927   2.010   8.783  11.074 -0.7712  0.1260  0.1424
19735SOL     OW70928   5.465  10.781   8.707  0.1706 -0.1887 -0.0745
19735SOL    HW170929   5.497  10.868   8.730 -1.5111  0.1041  1.4024
19735SOL    HW270930   5.521  10.721   8.758  0.7418  0.0581 -0.3976
19736SOL     OW70931   2.147  11.473  11.547 -0.2306 -0.1599  0.1819
19736SOL    HW170932   2.083  11.415  11.505 -0.4213 -0.2869  0.6366
19736SOL    HW270933   2.231  11.432  11.529 -0.0945  0.8653 -1.8138
19737SOL     OW70934   6.714   1.979   5.672 -0.1827 -0.0566  0.3278
19737SOL    HW170935   6.662   2.000   5.595  0.1086  0.7400  0.3376
19737SOL    HW270936   6.804   1.976   5.641 -0.2307 -1.6717  0.2634
19738SOL     OW70937  10.478   4.924   9.806  0.3500  0.8682  0.4751
19738SOL    HW170938  10.390   4.930   9.768 -0.8777 -3.8862  1.8649
19738SOL    HW270939  10.477   4.986   9.879 -1.9735  0.8471  0.5491
19739SOL     OW70940   3.924   7.536   9.519  0.0044  0.0835 -0.3752
19739SOL    HW170941   3.999   7.589   9.544  0.3721 -0.5538 -0.1160
19739SOL    HW270942   3.906   7.481   9.595 -0.3650 -0.1729 -0.6413
19740SOL     OW70943   2.987   8.059  10.491  0.6665  0.0832  0.1179
19740SOL    HW170944   3.006   8.074  10.398 -2.7251  2.6775 -0.3300
19740SOL    HW270945   3.017   8.140  10.534 -0.7991  0.3175  0.7311
19741SOL     OW70946   8.887   7.295  10.901 -0.0841 -0.1834  0.2408
19741SOL    HW170947   8.898   7.353  10.976 -0.6327  1.1992 -0.7120
19741SOL    HW270948   8.973   7.291  10.859 -0.6814  2.4921 -1.4468
19742SOL     OW70949   3.341   7.912  10.829 -0.6023 -0.1141 -0.7809
19742SOL    HW170950   3.290   7.874  10.901 -0.3063  1.3032  0.2048
19742SOL    HW270951   3.276   7.924  10.759 -1.8014  2.0344  0.5901
19743SOL     OW70952  10.031   1.764   9.395 -0.0276 -0.4350 -0.1204
19743SOL    HW170953  10.023   1.837   9.333  0.9513 -0.3294 -0.1381
19743SOL    HW270954  10.039   1.806   9.480  0.9996 -0.4903 -0.1758
19744SOL     OW70955   1.979   5.389   1.674 -0.0218 -0.3900  1.1318
19744SOL    HW170956   2.032   5.322   1.718 -0.3101 -0.4379  1.4043
19744SOL    HW270957   1.912   5.413   1.738 -0.3750 -0.3780  0.7574
19745SOL     OW70958  11.315   4.759   7.269  0.0497 -0.1089 -0.4104
19745SOL    HW170959  11.243   4.717   7.316  1.1313 -0.9949  0.5103
19745SOL    HW270960  11.358   4.687   7.222  0.7121  0.3035 -0.4494
19746SOL     OW70961   0.705   1.787  10.428 -0.5808  0.8304  0.4325
19746SOL    HW170962   0.764   1.715  10.405  1.8939  2.1532  2.1524
19746SOL    HW270963   0.625   1.769  10.379  0.7210 -1.8581 -0.9326
19747SOL     OW70964   7.818   3.562   1.724  0.7064  0.1220  0.6235
19747SOL    HW170965   7.824   3.619   1.801 -1.3300  0.1314  0.8332
19747SOL    HW270966   7.878   3.490   1.743  2.0919  1.3477  1.0804
19748SOL     OW70967   8.950   1.360   0.628 -0.2383  0.2869  0.2227
19748SOL    HW170968   8.953   1.453   0.650  0.3554  0.1030  1.0033
19748SOL    HW270969   8.961   1.316   0.713  2.0065 -0.4798 -0.4049
19749SOL     OW70970   8.173   9.049   7.524 -0.2398  0.3098  0.0110
19749SOL    HW170971   8.164   9.144   7.521 -0.6465  0.3209  1.2269
19749SOL    HW270972   8.261   9.032   7.490  0.1195  1.1741  0.4787
19750SOL     OW70973  11.311   9.688   3.730  0.2595  0.1419 -0.4208
19750SOL    HW170974  11.289   9.604   3.690  1.2187 -1.1909  1.6705
19750SOL    HW270975  11.397   9.674   3.769 -0.3512  1.4947  1.5722
19751SOL     OW70976   2.135   7.073   0.328  0.1399  0.0140 -0.0615
19751SOL    HW170977   2.177   7.106   0.248  0.3748  0.6924  0.3364
19751SOL    HW270978   2.042   7.070   0.307  0.2405 -0.1578 -0.4850
19752SOL     OW70979  11.288   5.682   8.899 -0.4603 -0.3403 -0.0304
19752SOL    HW170980  11.203   5.722   8.883 -0.3319  0.0588  0.2852
19752SOL    HW270981  11.268   5.598   8.941 -0.6465  0.4754  1.5785
19753SOL     OW70982   3.522   6.805   5.524  0.6885 -0.2093  0.2174
19753SOL    HW170983   3.471   6.777   5.601 -1.0484 -1.9848 -1.4503
19753SOL    HW270984   3.462   6.862   5.476  1.4435  0.2129 -0.2384
19754SOL     OW70985   8.168   5.592  11.499  0.2150 -0.5009  0.2265
19754SOL    HW170986   8.257   5.626  11.492  0.0240 -0.3295 -2.5980
19754SOL    HW270987   8.116   5.650  11.444 -1.2648 -1.8001  0.1858
19755SOL     OW70988   9.027   9.745  11.231  0.0684  0.1841 -0.6954
19755SOL    HW170989   9.105   9.760  11.177  0.1495 -0.3530 -0.7306
19755SOL    HW270990   9.004   9.832  11.264  1.2501  0.2146  0.0956
19756SOL     OW70991  11.774   2.291  11.276  0.6487  0.2407  0.2628
19756SOL    HW170992  11.793   2.275  11.183  2.5858 -1.0589  0.7971
19756SOL    HW270993  11.687   2.254  11.290  0.0401  1.0894 -1.1758
19757SOL     OW70994  11.428   0.242   5.942  0.1085  0.0388 -0.1059
19757SOL    HW170995  11.429   0.325   5.895 -2.2631 -0.3160 -0.9022
19757SOL    HW270996  11.396   0.264   6.030 -0.3970 -0.0085 -0.2769
19758SOL     OW70997   2.107   2.994   2.136 -0.2451 -0.2162  0.3044
19758SOL    HW170998   2.078   3.017   2.047  0.7703  0.0817  0.0345
19758SOL    HW270999   2.153   2.910   2.125  1.5004  0.6905  0.1851
19759SOL     OW71000  11.039  10.906  10.479 -0.3458 -0.3719  0.2155
19759SOL    HW171001  11.028  10.968  10.407  1.8352  0.2443  0.3259
19759SOL    HW271002  11.032  10.959  10.558  1.6515 -0.1807  0.3088
19760SOL     OW71003   6.773   6.163   0.310 -0.0947  0.4263 -0.5496
19760SOL    HW171004   6.791   6.140   0.401 -2.3732  0.3757 -0.0552
19760SOL    HW271005   6.781   6.259   0.308 -0.8907  0.5167 -0.0542
19761SOL     OW71006   9.575  10.283  10.227 -0.9072 -0.3892  0.8951
19761SOL    HW171007   9.571  10.206  10.170  0.0085 -1.3177  2.0370
19761SOL    HW271008   9.523  10.258  10.304 -1.6637  0.6309  0.7305
19762SOL     OW71009   0.133   4.329   5.640  0.3256 -0.1509  0.4740
19762SOL    HW171010   0.144   4.415   5.683  0.0123  0.0860  0.0841
19762SOL    HW271011   0.165   4.266   5.705 -1.6315  0.0629  1.7421
19763SOL     OW71012   7.038   0.660   0.756  0.2688 -0.0846 -0.0891
19763SOL    HW171013   7.080   0.592   0.704 -0.3193  0.6973 -1.6536
19763SOL    HW271014   6.974   0.614   0.810  0.2566 -0.8351 -0.7358
19764SOL     OW71015   1.601   9.299   4.112  0.3428 -0.1140  0.0353
19764SOL    HW171016   1.545   9.272   4.040 -0.4784  0.8331  0.2849
19764SOL    HW271017   1.684   9.325   4.070  0.1823 -0.3930 -0.4631
19765SOL     OW71018   8.038   0.827   4.870  0.5873 -1.0994  0.1411
19765SOL    HW171019   8.016   0.757   4.931 -0.6965 -0.7279  0.1222
19765SOL    HW271020   8.002   0.906   4.909  0.4415 -0.7348 -0.7008
19766SOL     OW71021   3.002  11.119   8.448  0.4953 -0.5647 -0.2910
19766SOL    HW171022   2.969  11.141   8.362  0.7340  0.1512 -0.2051
19766SOL    HW271023   2.931  11.142   8.508  0.2278 -1.3101 -0.3131
19767SOL     OW71024   2.250   5.428  10.059  0.0935  0.3749  0.1682
19767SOL    HW171025   2.273   5.482  10.135  0.8905  1.2017 -0.6304
19767SOL    HW271026   2.184   5.479  10.013  0.7043  0.5921 -0.4814
19768SOL     OW71027   8.343   7.646   2.720 -0.0763  0.1005  0.3913
19768SOL    HW171028   8.268   7.631   2.778  0.2203 -0.4034  0.6476
19768SOL    HW271029   8.309   7.627   2.632 -0.0893 -0.7190  0.5677
19769SOL     OW71030   4.940   3.289  10.745  0.2709  0.1662 -0.8713
19769SOL    HW171031   4.947   3.365  10.686 -0.5671  0.1553 -0.9972
19769SOL    HW271032   4.873   3.234  10.704 -0.5773  0.3251  0.2573
19770SOL     OW71033   5.749   6.040   3.858  0.4984 -0.0849 -0.4183
19770SOL    HW171034   5.799   6.119   3.836 -0.2632  1.0341  1.6433
19770SOL    HW271035   5.814   5.970   3.858  1.4982  0.8182 -0.6526
19771SOL     OW71036   3.267   9.782   9.219 -0.5015  0.6056  0.7250
19771SOL    HW171037   3.274   9.811   9.309  1.2166 -0.2318  0.9242
19771SOL    HW271038   3.187   9.822   9.185 -0.6478  1.7135  2.3144
19772SOL     OW71039   4.737   0.184  11.446  0.3173 -0.2018 -0.0555
19772SOL    HW171040   4.729   0.279  11.444  2.8763  0.0594 -1.3229
19772SOL    HW271041   4.682   0.154  11.373 -0.4133  0.2803  0.2832
19773SOL     OW71042   7.997   1.529   6.988 -0.4606  0.3228  0.0075
19773SOL    HW171043   7.937   1.569   7.052 -1.3319  0.3870 -0.8288
19773SOL    HW271044   8.000   1.437   7.012  0.3218  0.5827  0.9868
19774SOL     OW71045   2.476   5.191   5.184  0.2617  0.1165  0.1516
19774SOL    HW171046   2.539   5.172   5.114  0.1893 -0.1099  0.1466
19774SOL    HW271047   2.454   5.283   5.173  2.3056  0.8447  1.5119
19775SOL     OW71048  10.365   3.650   7.136  0.5788  0.2416 -0.1113
19775SOL    HW171049  10.274   3.624   7.120  0.2603  1.1123  0.2259
19775SOL    HW271050  10.365   3.679   7.228  1.4829 -0.9460  0.2954
19776SOL     OW71051   7.577   3.549  10.263 -0.0901  0.1150 -0.0550
19776SOL    HW171052   7.485   3.573  10.252 -0.0321  0.2002 -0.3725
19776SOL    HW271053   7.582   3.458  10.231  0.2919  0.7234 -1.8410
19777SOL     OW71054   9.499   6.147   8.387  0.0380 -0.1181  0.5197
19777SOL    HW171055   9.482   6.143   8.482  1.1632 -1.7448  0.7008
19777SOL    HW271056   9.488   6.239   8.365 -1.5599  0.0939  1.9703
19778SOL     OW71057  10.446   9.282   6.880  0.1623 -0.0785  0.9040
19778SOL    HW171058  10.433   9.246   6.793 -0.8018  2.1568  0.0424
19778SOL    HW271059  10.499   9.361   6.866 -0.5342  0.6624  2.2520
19779SOL     OW71060   8.061   8.841   3.130  0.8735 -0.5385 -0.7954
19779SOL    HW171061   8.069   8.748   3.109 -1.9792 -1.8171  2.7652
19779SOL    HW271062   7.974   8.865   3.098 -0.6495 -0.7231  2.7663
19780SOL     OW71063   1.955   7.827   9.829 -0.2574  0.1210  0.5753
19780SOL    HW171064   2.044   7.828   9.795  0.3131  0.4656  2.0018
19780SOL    HW271065   1.914   7.905   9.791  0.4945  0.7370  1.0158
19781SOL     OW71066   0.007   0.436   9.353 -0.5675 -0.2454 -0.0174
19781SOL    HW171067  -0.049   0.358   9.357  0.0350 -0.7806 -1.4735
19781SOL    HW271068   0.044   0.442   9.441 -1.2550 -1.1273  0.3535
19782SOL     OW71069   5.731  11.215  11.568 -0.1872 -0.7325 -0.3751
19782SOL    HW171070   5.679  11.174  11.638 -0.2627  0.6256  0.4074
19782SOL    HW271071   5.741  11.306  11.597 -1.0882  0.1518 -2.6299
19783SOL     OW71072   6.824  11.940   5.660  0.0712  0.5061  0.2255
19783SOL    HW171073   6.841  11.942   5.755  2.5813 -0.3629 -0.1204
19783SOL    HW271074   6.846  11.851   5.634 -3.8197 -0.3351 -0.7691
19784SOL     OW71075   6.980   1.340   1.857  0.5909  0.3364  0.4676
19784SOL    HW171076   6.981   1.415   1.916 -0.9122  1.4370 -0.8192
19784SOL    HW271077   6.933   1.272   1.905 -0.0359  0.9887  0.7863
19785SOL     OW71078   7.909   6.016   2.419  0.1781  0.2877 -0.2096
19785SOL    HW171079   7.820   5.982   2.408  0.5552 -1.4138  1.5234
19785SOL    HW271080   7.959   5.975   2.348  0.0437 -0.5950  0.1930
19786SOL     OW71081   8.070   2.724   9.261  0.0095 -0.2589 -0.5126
19786SOL    HW171082   8.039   2.807   9.295 -1.2552 -0.8175 -0.2495
19786SOL    HW271083   8.164   2.722   9.283 -0.0463  0.8799 -0.1315
19787SOL     OW71084   3.297   7.509   5.893  0.0021  0.4409  0.0453
19787SOL    HW171085   3.263   7.578   5.835 -0.0788 -0.5989 -1.2001
19787SOL    HW271086   3.247   7.431   5.868  0.9935 -0.3579  0.5207
19788SOL     OW71087   7.810   0.901   4.002  0.2928  0.0805  0.1928
19788SOL    HW171088   7.831   0.842   3.930  0.4912  1.2310 -0.7250
19788SOL    HW271089   7.763   0.846   4.065 -1.1187 -0.6754 -1.4197
19789SOL     OW71090   7.727   7.903   2.288 -0.4356 -0.2051 -0.2091
19789SOL    HW171091   7.697   7.959   2.217 -0.1261 -1.1486 -1.1165
19789SOL    HW271092   7.814   7.873   2.259  0.0588  0.0412  0.9485
19790SOL     OW71093   5.615   6.874   3.496 -0.1357  0.3833  0.3009
19790SOL    HW171094   5.615   6.789   3.538 -0.5042 -0.2667 -0.9658
19790SOL    HW271095   5.561   6.929   3.552 -1.6060 -0.7784  0.0736
19791SOL     OW71096   8.908   0.975   2.988 -0.0113  0.1096  0.1256
19791SOL    HW171097   8.968   0.901   2.994  0.4465  0.4180 -0.5560
19791SOL    HW271098   8.930   1.030   3.064  0.6729  0.2916 -0.1940
19792SOL     OW71099   7.573   8.305  11.356  0.1984 -0.0803 -0.3986
19792SOL    HW171100   7.535   8.224  11.321 -2.5349  0.4244  1.0420
19792SOL    HW271101   7.498   8.364  11.365  1.6058  1.5793  1.3094
19793SOL     OW71102  10.248   0.745   0.616 -0.3170  0.1560  0.2636
19793SOL    HW171103  10.292   0.745   0.700 -0.6712 -1.2998  0.4668
19793SOL    HW271104  10.318   0.736   0.551 -0.2647 -2.2093  0.5852
19794SOL     OW71105   5.534   8.050   4.986  0.2414  0.1357  1.0224
19794SOL    HW171106   5.604   8.016   4.931  0.5443 -1.6772  2.4070
19794SOL    HW271107   5.576   8.117   5.040 -0.0070  1.7513 -0.6845
19795SOL     OW71108   8.612   0.364   0.068  0.2090  0.4256 -0.3613
19795SOL    HW171109   8.525   0.324   0.070  0.3539  0.0910 -0.5481
19795SOL    HW271110   8.662   0.315   0.133  0.2085  0.7335 -0.1299
19796SOL     OW71111  10.957   3.283   1.039 -0.2348  0.1476 -1.0176
19796SOL    HW171112  10.876   3.272   0.989  0.0381 -0.4496 -1.3350
19796SOL    HW271113  11.014   3.213   1.008  0.2021  0.2176 -0.3869
19797SOL     OW71114  10.681   3.962   7.075 -0.5492  0.1051 -0.5419
19797SOL    HW171115  10.629   4.010   7.011 -0.2914 -1.1433 -1.7177
19797SOL    HW271116  10.702   3.879   7.033  0.0334 -0.5690  0.9833
19798SOL     OW71117   6.710   8.879   7.404  0.3056 -0.4418  0.6877
19798SOL    HW171118   6.692   8.786   7.396 -1.8479  0.0810 -2.4220
19798SOL    HW271119   6.782   8.895   7.343 -0.5456  0.1423 -0.2031
19799SOL     OW71120   9.730   7.280  11.882  0.0696 -0.2694 -0.0525
19799SOL    HW171121   9.715   7.185  11.885 -1.7328 -0.0405  3.4302
19799SOL    HW271122   9.818   7.292  11.919  0.0196 -0.5541  0.1608
19800SOL     OW71123   5.657   1.317   6.117 -0.3287  0.2408 -0.0338
19800SOL    HW171124   5.744   1.295   6.150 -0.3581 -0.3839 -0.3632
19800SOL    HW271125   5.612   1.355   6.192 -0.6429 -1.8240  0.9006
19801SOL     OW71126   3.572  10.836   5.703 -0.6725  0.1417  0.3969
19801SOL    HW171127   3.652  10.820   5.654 -1.5113  0.4328 -1.1536
19801SOL    HW271128   3.584  10.789   5.785  1.2280  0.5058  0.3693
19802SOL     OW71129   9.891   1.692   6.345  0.2434  0.0292  0.3211
19802SOL    HW171130   9.978   1.726   6.325  0.3566 -0.6216 -0.3752
19802SOL    HW271131   9.907   1.607   6.386 -0.0508  0.3243  1.0607
19803SOL     OW71132   9.252  11.869  11.112 -0.6002  0.6559  0.6882
19803SOL    HW171133   9.298  11.789  11.087  0.8294  0.7325  2.8069
19803SOL    HW271134   9.241  11.861  11.207 -2.4418  1.9830  0.6301
19804SOL     OW71135   3.140  10.187  10.793  0.2064 -0.2221 -0.4032
19804SOL    HW171136   3.203  10.116  10.806  0.8885  0.8479  3.1850
19804SOL    HW271137   3.172  10.235  10.717  3.0967 -0.3869  0.6119
19805SOL     OW71138   8.766   9.571   7.307  0.7339 -0.5941  0.6616
19805SOL    HW171139   8.734   9.493   7.263  1.0636 -0.4212  0.1059
19805SOL    HW271140   8.839   9.540   7.361  1.3113 -0.5719 -0.0844
19806SOL     OW71141   3.779   8.259   1.120  0.3280 -0.3803  0.0689
19806SOL    HW171142   3.842   8.316   1.076  0.6004 -1.7741 -1.4485
19806SOL    HW271143   3.700   8.264   1.065  0.1548 -0.9986  0.2470
19807SOL     OW71144   1.456   1.205   4.292 -0.2999 -0.7210 -0.6944
19807SOL    HW171145   1.506   1.286   4.284 -0.5672 -0.6073 -1.3074
19807SOL    HW271146   1.366   1.230   4.270 -0.8167 -0.7413  1.2353
19808SOL     OW71147   5.057   9.476  10.464 -0.5450 -0.2342  0.5637
19808SOL    HW171148   5.104   9.448  10.385 -0.8709  0.9715 -0.0741
19808SOL    HW271149   5.115   9.451  10.536  1.1527  1.2764 -0.2018
19809SOL     OW71150   7.761   4.795  10.770 -0.9452  0.2619 -0.0831
19809SOL    HW171151   7.696   4.731  10.800 -0.8498  0.5104  0.6804
19809SOL    HW271152   7.713   4.878  10.767 -0.0980  0.9635  2.9615
19810SOL     OW71153  11.435   2.878   4.276 -0.4545  0.1028  0.6147
19810SOL    HW171154  11.468   2.854   4.363 -0.2716 -1.5706  0.1171
19810SOL    HW271155  11.384   2.802   4.248 -0.8709  0.8005 -0.5669
19811SOL     OW71156   4.039   3.861   6.014 -0.0622 -0.4660 -0.5350
19811SOL    HW171157   4.057   3.954   6.031  0.4935 -0.5290 -0.7536
19811SOL    HW271158   4.083   3.815   6.085 -0.5169 -0.5531 -0.3079
19812SOL     OW71159   1.710   4.378   1.057  0.2947  0.0413  0.5148
19812SOL    HW171160   1.705   4.298   1.004  0.6348  0.7131 -0.5703
19812SOL    HW271161   1.670   4.445   1.003 -2.2559  0.1785  2.4068
19813SOL     OW71162   9.532   3.943   5.945 -0.6556  0.2979  0.0448
19813SOL    HW171163   9.532   3.860   5.992 -0.6614  0.0719 -0.3556
19813SOL    HW271164   9.622   3.953   5.913 -0.0722  1.4647  1.8759
19814SOL     OW71165   3.394   0.422  10.343  0.1615 -0.1597  0.2654
19814SOL    HW171166   3.315   0.451  10.388  1.2302  0.4860  1.8396
19814SOL    HW271167   3.442   0.371  10.409  2.0813  1.3448  0.1206
19815SOL     OW71168   9.112  10.224   7.577 -0.2304 -0.2118  0.1523
19815SOL    HW171169   9.201  10.250   7.598 -0.5010  0.4076  0.5502
19815SOL    HW271170   9.121  10.137   7.538  0.6261  0.2096 -0.6198
19816SOL     OW71171   9.869   2.095   1.124 -0.0121 -0.0288  0.0450
19816SOL    HW171172   9.862   2.189   1.140  0.9968 -0.2495  2.1444
19816SOL    HW271173   9.923   2.062   1.196 -1.8214 -2.4970  0.4411
19817SOL     OW71174  10.522   6.612   9.922  0.0077  0.4946  0.1322
19817SOL    HW171175  10.490   6.593  10.011 -0.3360  1.1050  0.1395
19817SOL    HW271176  10.456   6.573   9.864 -0.0596  0.5979  0.1411
19818SOL     OW71177   6.024   3.781   2.782  0.0481 -0.5449 -0.1631
19818SOL    HW171178   5.931   3.794   2.759  0.7575  1.0318 -2.5001
19818SOL    HW271179   6.068   3.770   2.698  2.0640 -0.8514  0.8761
19819SOL     OW71180   5.821   8.439   6.170  0.5734 -0.2113 -0.2280
19819SOL    HW171181   5.754   8.492   6.213  0.8180 -0.5525  0.6029
19819SOL    HW271182   5.780   8.353   6.159  0.6085 -0.2029 -0.4169
19820SOL     OW71183   5.589   0.749  10.203 -0.0380  0.2353 -0.0475
19820SOL    HW171184   5.605   0.658  10.179 -0.4065  0.3706 -0.8156
19820SOL    HW271185   5.601   0.751  10.298 -0.8018 -0.7734  0.0849
19821SOL     OW71186   2.453   4.060   1.046  0.2387 -0.3110  0.1056
19821SOL    HW171187   2.446   3.968   1.023  1.7338 -0.2916 -0.5009
19821SOL    HW271188   2.405   4.068   1.129 -1.9523 -1.1355 -1.0169
19822SOL     OW71189  11.627   5.117   6.481  0.7512  0.0515  0.5056
19822SOL    HW171190  11.558   5.153   6.536  1.0663  0.7990  0.4252
19822SOL    HW271191  11.653   5.036   6.526 -1.8386 -1.6214 -0.7359
19823SOL     OW71192   5.948   4.458  10.746  0.0336  0.2785 -0.1607
19823SOL    HW171193   5.956   4.497  10.659 -0.9522  2.0583  0.4995
19823SOL    HW271194   5.958   4.532  10.806 -4.4983  0.1270  1.1284
19824SOL     OW71195  11.669  11.818   8.779  1.3569  0.6865 -0.1653
19824SOL    HW171196  11.604  11.846   8.714  1.5532  0.1372 -0.6123
19824SOL    HW271197  11.638  11.853   8.862  0.2428  0.0572 -0.2996
19825SOL     OW71198   5.281   4.907   6.238  0.0565 -0.2689  0.1656
19825SOL    HW171199   5.294   4.842   6.168 -0.5135 -0.3076  0.0939
19825SOL    HW271200   5.281   4.991   6.192 -1.9689 -0.3871 -0.1195
19826SOL     OW71201   7.136   6.679   1.563 -0.1357 -0.1827 -0.0384
19826SOL    HW171202   7.064   6.626   1.599 -2.2622  1.5770 -1.4459
19826SOL    HW271203   7.187   6.617   1.510 -0.0124 -1.6722  1.7115
19827SOL     OW71204   8.223   8.354   4.316 -0.4528  0.2389 -0.2127
19827SOL    HW171205   8.286   8.293   4.278 -0.6661 -0.1762  0.0947
19827SOL    HW271206   8.270   8.393   4.390  0.1768  1.5004 -1.2428
19828SOL     OW71207   9.079  10.433  10.285  0.1765  0.3964  0.0426
19828SOL    HW171208   8.987  10.414  10.299  0.3843 -2.5114 -1.7696
19828SOL    HW271209   9.126  10.363  10.332  1.4236  1.0343 -0.1930
19829SOL     OW71210   1.585   1.660   1.617 -0.2839  0.2149  0.1542
19829SOL    HW171211   1.557   1.751   1.626 -2.4598 -0.3862  0.1626
19829SOL    HW271212   1.677   1.665   1.591 -1.1928  2.5128 -3.2887
19830SOL     OW71213  10.623   4.855   6.443  0.2967  0.1321 -0.3590
19830SOL    HW171214  10.625   4.885   6.352  0.9608  1.5018  0.0733
19830SOL    HW271215  10.693   4.789   6.448 -0.3105 -0.5847 -1.0222
19831SOL     OW71216  11.284   3.905   1.492 -0.3730 -0.2048 -0.5483
19831SOL    HW171217  11.325   3.938   1.572  0.5773 -1.5477 -0.4585
19831SOL    HW271218  11.245   3.983   1.451  0.6946  0.7964  0.2950
19832SOL     OW71219   1.336   8.533   8.968 -0.3709 -0.0172 -0.1404
19832SOL    HW171220   1.345   8.448   9.012  0.3410  0.1454  0.0424
19832SOL    HW271221   1.393   8.527   8.892  1.3081  0.9849  0.9604
19833SOL     OW71222   6.674   8.430   9.720 -0.0307  0.0470  0.8889
19833SOL    HW171223   6.633   8.372   9.785  0.8557 -1.4836  0.1343
19833SOL    HW271224   6.614   8.429   9.646 -0.7334  1.2987  1.4104
19834SOL     OW71225  10.014   7.654   9.162  0.8426 -0.1407 -0.3777
19834SOL    HW171226   9.943   7.590   9.169  1.5310 -1.0982 -1.6924
19834SOL    HW271227  10.078   7.612   9.104  1.5196  1.5589 -0.9143
19835SOL     OW71228   7.035   6.807   9.910  0.0576  1.3395  0.5211
19835SOL    HW171229   7.125   6.824   9.884  0.0332 -1.4391 -1.9087
19835SOL    HW271230   6.985   6.811   9.828 -1.7223  1.0394  1.5287
19836SOL     OW71231   0.635   5.401  10.681 -0.0107  0.2449  0.1279
19836SOL    HW171232   0.629   5.311  10.711 -1.1052  0.6284  1.1689
19836SOL    HW271233   0.625   5.396  10.586 -0.1827 -0.7193  0.1869
19837SOL     OW71234  11.884   6.740   5.854 -0.3689  1.1663 -0.0669
19837SOL    HW171235  11.806   6.732   5.798  0.9445  1.4770 -2.0445
19837SOL    HW271236  11.875   6.826   5.896 -1.3988  0.9165  0.2459
19838SOL     OW71237   4.536  10.277   7.463 -0.1646 -0.3520 -0.1582
19838SOL    HW171238   4.625  10.272   7.429  0.5647  0.3993  1.5361
19838SOL    HW271239   4.505  10.186   7.462  0.2246 -0.4890 -1.6884
19839SOL     OW71240   3.035  10.036   6.673 -0.0084 -0.3688 -0.4003
19839SOL    HW171241   2.981  10.051   6.595  1.3302 -2.8654 -1.9314
19839SOL    HW271242   3.089   9.960   6.651  2.4325  0.5360  1.9666
19840SOL     OW71243  11.781   0.059   1.650 -0.2061  0.1722  0.2319
19840SOL    HW171244  11.722   0.016   1.712 -1.2534 -0.3726 -1.0881
19840SOL    HW271245  11.760   0.019   1.566  2.8244 -0.8131 -0.1537
19841SOL     OW71246   3.909   9.681   7.768  0.7324 -0.1179  0.6686
19841SOL    HW171247   3.879   9.696   7.857 -0.5644 -2.4465  0.7042
19841SOL    HW271248   3.921   9.586   7.762  1.1078  0.0114 -1.5306
19842SOL     OW71249   0.727   2.684   0.065 -0.2410  0.0897  0.7103
19842SOL    HW171250   0.695   2.628  -0.006  0.9601 -0.0992  0.2904
19842SOL    HW271251   0.699   2.772   0.040  0.1269  0.0168  0.0121
19843SOL     OW71252   1.850   6.843   3.199  0.5138 -0.0844  0.5499
19843SOL    HW171253   1.763   6.873   3.228 -0.1513  0.4911 -1.7692
19843SOL    HW271254   1.903   6.922   3.199  0.3687  0.0262 -0.1528
19844SOL     OW71255   1.982  11.488   5.675 -0.2052 -0.0761 -0.6068
19844SOL    HW171256   2.044  11.459   5.608  0.6337 -0.3573  0.2785
19844SOL    HW271257   1.941  11.566   5.637  2.1734  1.3581 -0.3745
19845SOL     OW71258   3.400   2.794   6.338  0.0961 -0.3379  0.4442
19845SOL    HW171259   3.334   2.781   6.406 -1.5035 -2.1039 -1.3205
19845SOL    HW271260   3.468   2.730   6.357  0.8832  0.7977  1.6796
19846SOL     OW71261   3.588   9.896   2.697  0.1180 -0.1831 -0.0417
19846SOL    HW171262   3.582   9.828   2.764 -0.9337  0.3563  0.4344
19846SOL    HW271263   3.682   9.912   2.686  0.3279 -0.9352  0.6275
19847SOL     OW71264   4.217   9.340   1.496 -0.4733 -0.1142 -0.2873
19847SOL    HW171265   4.126   9.363   1.480 -0.7920 -1.5317 -0.6770
19847SOL    HW271266   4.251   9.314   1.410  0.1429 -0.1446 -0.0447
19848SOL     OW71267   9.371   3.158   2.796 -0.3394  0.4775  0.1958
19848SOL    HW171268   9.458   3.129   2.767  0.0994  0.9962  0.9433
19848SOL    HW271269   9.369   3.135   2.889 -0.8123  0.9028  0.2938
19849SOL     OW71270   5.173   4.676   9.589 -0.2851 -0.1728 -0.1575
19849SOL    HW171271   5.148   4.708   9.676 -0.7042 -0.3951 -0.1931
19849SOL    HW271272   5.171   4.754   9.534  0.3103  0.0285  0.0984
19850SOL     OW71273   7.887  10.877   3.494  0.1241 -0.0416 -0.3040
19850SOL    HW171274   7.830  10.854   3.421  1.2942 -0.8866 -0.9881
19850SOL    HW271275   7.842  10.949   3.538  0.1587  1.6200 -2.8172
19851SOL     OW71276  11.386   0.446   3.515  0.9807  0.3449 -0.4263
19851SOL    HW171277  11.327   0.388   3.564  1.0489  0.4126 -0.2626
19851SOL    HW271278  11.328   0.508   3.471  0.9992  1.6639  1.3138
19852SOL     OW71279   2.057   3.776   9.849 -0.3523 -0.1291 -0.2545
19852SOL    HW171280   2.121   3.818   9.906 -0.4998  0.7927 -0.7468
19852SOL    HW271281   2.109   3.713   9.799  0.3510  1.1115 -1.1631
19853SOL     OW71282   5.113   9.784   0.684  0.6560 -0.0056  0.3651
19853SOL    HW171283   5.049   9.843   0.644  1.4424  1.6677  1.4580
19853SOL    HW271284   5.072   9.755   0.765  0.3739 -0.8020 -0.0491
19854SOL     OW71285   1.683   1.568   8.019 -0.2242 -0.3923  0.1138
19854SOL    HW171286   1.616   1.500   8.034  0.0587 -0.5662  0.6136
19854SOL    HW271287   1.704   1.600   8.107  0.7186 -0.6946  0.0042
19855SOL     OW71288   0.872  11.029   5.007 -0.1298 -0.1214 -0.2840
19855SOL    HW171289   0.873  10.980   4.925 -0.4184  0.0163 -0.3680
19855SOL    HW271290   0.907  11.115   4.984 -1.1525  0.2505 -0.4701
19856SOL     OW71291   6.657   8.943   4.579 -0.4988  0.1174 -0.4630
19856SOL    HW171292   6.740   8.951   4.626 -0.3668  1.0236 -0.8304
19856SOL    HW271293   6.674   8.879   4.510  0.1642  0.9635 -1.0967
19857SOL     OW71294   9.739   3.278   3.250  0.3419 -0.1095 -0.5356
19857SOL    HW171295   9.680   3.273   3.174 -0.4997 -1.7993  0.1843
19857SOL    HW271296   9.816   3.323   3.216 -0.9229  1.2551 -1.7834
19858SOL     OW71297   3.924   6.381  10.442 -0.5420 -0.1279 -0.1360
19858SOL    HW171298   3.867   6.355  10.515 -1.0728  1.7168  0.1587
19858SOL    HW271299   3.864   6.413  10.375  0.0661  0.6969 -0.3044
19859SOL     OW71300   7.939   8.456   1.524  0.6331  0.0714  0.0843
19859SOL    HW171301   7.917   8.424   1.612  0.1412 -1.1528 -0.4469
19859SOL    HW271302   7.900   8.543   1.519 -1.2063 -0.6806  0.3849
19860SOL     OW71303   7.261   4.473   8.260  0.5549 -0.5032 -0.1211
19860SOL    HW171304   7.325   4.496   8.193  2.9455 -2.7113  1.2182
19860SOL    HW271305   7.202   4.411   8.218 -0.3043  0.9629 -1.1565
19861SOL     OW71306   6.476   4.540   1.314  0.0068 -0.0759  0.3889
19861SOL    HW171307   6.447   4.451   1.296  0.2413  0.0044 -0.4639
19861SOL    HW271308   6.569   4.532   1.335  0.4301  0.1061 -1.2574
19862SOL     OW71309   5.005   6.728   6.825  0.1881  0.3060 -0.5300
19862SOL    HW171310   5.048   6.791   6.882 -0.3601 -0.5663  0.8995
19862SOL    HW271311   5.038   6.643   6.854 -2.2141 -0.3771  0.4373
19863SOL     OW71312   4.023   9.081  10.283  0.6077  0.7758  0.0580
19863SOL    HW171313   3.990   9.037  10.205 -0.2859 -0.1480  0.9465
19863SOL    HW271314   4.105   9.121  10.254  0.9828 -0.6899 -1.0078
19864SOL     OW71315   3.562   7.854   7.553  0.4106 -0.4859 -0.1029
19864SOL    HW171316   3.618   7.799   7.607  1.0595  0.1749 -0.0865
19864SOL    HW271317   3.602   7.941   7.558 -1.1204  0.2146  0.6441
19865SOL     OW71318   8.007   5.364   8.885  0.0046 -0.8601 -0.2685
19865SOL    HW171319   7.999   5.338   8.976 -1.0655 -1.3977 -0.4963
19865SOL    HW271320   8.026   5.283   8.838  3.2179 -0.2412 -0.2704
19866SOL     OW71321   7.452  11.844   9.486  0.6178  0.2782 -0.0392
19866SOL    HW171322   7.368  11.824   9.445  0.1957  0.6840  0.6052
19866SOL    HW271323   7.495  11.903   9.425  0.7906 -0.5732 -0.7611
19867SOL     OW71324   7.379   1.934   1.405 -0.1606 -0.3084  0.5150
19867SOL    HW171325   7.418   1.957   1.490 -0.2491  2.0213 -0.0059
19867SOL    HW271326   7.318   2.006   1.387 -1.4410 -1.6546 -0.7335
19868SOL     OW71327   6.262  10.213   4.763  1.0160 -0.2024 -0.2421
19868SOL    HW171328   6.311  10.205   4.681  0.1810 -0.6504 -0.7141
19868SOL    HW271329   6.291  10.296   4.800  2.3571 -0.5996 -0.3482
19869SOL     OW71330  10.957   5.805   2.620 -0.0148  0.5881  0.6286
19869SOL    HW171331  10.950   5.893   2.584 -2.2543  0.8332  1.4488
19869SOL    HW271332  10.977   5.818   2.713 -0.5508  0.2689  0.7971
19870SOL     OW71333   0.883   5.210   9.205  0.1084 -0.3210 -0.7713
19870SOL    HW171334   0.928   5.216   9.289  0.8131 -1.4076 -1.0388
19870SOL    HW271335   0.790   5.207   9.227  0.0947  2.2574 -0.2211
19871SOL     OW71336   0.707   7.241   6.867  0.0595 -0.5456 -0.0575
19871SOL    HW171337   0.720   7.152   6.901  1.5542 -0.0179  0.8969
19871SOL    HW271338   0.793   7.266   6.834 -0.9518 -0.3839 -2.7862
19872SOL     OW71339   8.882   2.886   5.885 -0.2120 -0.2210  0.1691
19872SOL    HW171340   8.909   2.805   5.842 -0.3502 -0.2291  0.0970
19872SOL    HW271341   8.960   2.915   5.933 -0.6288 -1.2427  1.5102
19873SOL     OW71342   9.856   5.066  10.787  0.4290 -0.5014 -0.2356
19873SOL    HW171343   9.810   4.982  10.782  0.2219 -0.3233 -2.9058
19873SOL    HW271344   9.949   5.044  10.778  0.7251 -0.6500  2.5167
19874SOL     OW71345   6.950   9.232   4.544 -0.0226  0.1687 -0.6610
19874SOL    HW171346   6.876   9.270   4.591 -0.8924 -3.0998  0.9060
19874SOL    HW271347   6.919   9.225   4.453 -0.7904  0.8234 -0.4599
19875SOL     OW71348  11.586   9.305   8.167 -0.6179  0.2311 -0.0432
19875SOL    HW171349  11.583   9.397   8.140  0.9860  0.2943 -0.0926
19875SOL    HW271350  11.643   9.304   8.243 -1.9479 -0.5184  1.0020
19876SOL     OW71351   8.195   3.411   6.617 -0.2028 -0.0120  0.8187
19876SOL    HW171352   8.257   3.421   6.545 -0.4999 -4.2624 -0.3140
19876SOL    HW271353   8.113   3.449   6.583  0.1893 -0.0904 -0.2576
19877SOL     OW71354  11.285   7.350   9.964  0.3927 -0.1280 -0.4166
19877SOL    HW171355  11.276   7.328  10.057  0.3133 -1.9913 -0.8212
19877SOL    HW271356  11.305   7.443   9.963 -1.4467  0.3679  1.3737
19878SOL     OW71357   5.900  11.213  10.374 -0.0494 -0.3863  0.1830
19878SOL    HW171358   5.983  11.168  10.358 -1.1706 -2.5028 -0.0688
19878SOL    HW271359   5.864  11.170  10.452 -0.1337  1.7199  1.3741
19879SOL     OW71360   8.434  11.046   7.649  0.3049  0.3651  0.4418
19879SOL    HW171361   8.442  11.081   7.561 -2.6354  1.8657  0.6587
19879SOL    HW271362   8.340  11.041   7.666  0.7315 -0.6799  3.1991
19880SOL     OW71363   2.419   0.248   4.750 -0.3744 -0.2896 -0.5465
19880SOL    HW171364   2.466   0.262   4.668  0.1082  0.4020 -0.1602
19880SOL    HW271365   2.332   0.220   4.723 -1.0849  2.4168 -1.3923
19881SOL     OW71366   0.349   5.753   1.112  0.0544  0.6238 -0.0436
19881SOL    HW171367   0.403   5.832   1.104 -0.7274  1.3252  1.3332
19881SOL    HW271368   0.370   5.718   1.199  0.0217 -0.4355 -0.4372
19882SOL     OW71369   6.590   5.447   6.853  0.4453 -0.3767 -0.0928
19882SOL    HW171370   6.518   5.465   6.792  0.3720 -0.4320 -0.0229
19882SOL    HW271371   6.621   5.359   6.828 -1.5100 -1.7112  1.8201
19883SOL     OW71372   4.497   7.788   4.239  0.0330  0.3352 -0.3529
19883SOL    HW171373   4.418   7.752   4.198 -0.8309  2.6855 -0.9247
19883SOL    HW271374   4.466   7.823   4.323  1.0267 -0.9802  0.6030
19884SOL     OW71375  11.633   6.989  11.154 -0.5241 -0.0463  0.2458
19884SOL    HW171376  11.544   7.020  11.142 -0.7710 -1.0032 -0.5742
19884SOL    HW271377  11.629   6.931  11.229 -0.3822  0.6530  0.8045
19885SOL     OW71378  11.733   0.569   7.687  0.0148  0.2377  0.0682
19885SOL    HW171379  11.778   0.504   7.633 -1.2348  0.6727 -1.5961
19885SOL    HW271380  11.660   0.598   7.633 -0.9255  1.2047  1.7770
19886SOL     OW71381   8.019   6.304   3.854  0.7666  0.3905  0.2896
19886SOL    HW171382   8.006   6.370   3.922 -0.6576 -1.5297  1.9847
19886SOL    HW271383   8.098   6.257   3.880  0.3940 -0.1511  0.4595
19887SOL     OW71384   5.898   7.400   0.596 -0.0500  0.3668 -0.1615
19887SOL    HW171385   5.859   7.452   0.525 -0.4139 -0.5113 -0.6294
19887SOL    HW271386   5.847   7.423   0.673  2.3435  3.7718  0.6374
19888SOL     OW71387   5.954   7.202   7.018  0.4351  0.0576 -0.4590
19888SOL    HW171388   6.010   7.272   6.985  0.3833 -0.0931 -0.8700
19888SOL    HW271389   5.907   7.170   6.940  1.2639 -1.1715 -0.4846
19889SOL     OW71390   3.899   7.133   4.230  0.1691 -0.2571 -1.0260
19889SOL    HW171391   3.971   7.128   4.293 -0.9382  0.0755  0.3200
19889SOL    HW271392   3.859   7.046   4.233 -1.1077  0.3410  0.2702
19890SOL     OW71393   7.916   8.113   3.372 -0.2523 -0.0446 -0.4940
19890SOL    HW171394   7.945   8.130   3.462 -1.0697  1.6883 -0.5198
19890SOL    HW271395   7.989   8.140   3.317  0.5513 -1.8189 -0.3739
19891SOL     OW71396   4.896   5.963   7.444  0.3444  0.0699  0.5757
19891SOL    HW171397   4.945   5.882   7.430  0.0174  0.0704 -0.6976
19891SOL    HW271398   4.807   5.943   7.416 -0.2180  0.3214  2.0653
19892SOL     OW71399   5.866  11.878   3.942 -0.4288 -0.0680 -1.1343
19892SOL    HW171400   5.876  11.954   3.884  0.4347 -0.1478 -1.0988
19892SOL    HW271401   5.844  11.806   3.882 -0.0770 -0.0366 -1.3046
19893SOL     OW71402   0.119   5.219   7.794 -0.3375 -0.3086  0.1746
19893SOL    HW171403   0.207   5.234   7.828 -0.3441  0.6133 -0.1875
19893SOL    HW271404   0.108   5.285   7.725 -1.2514 -0.5182  0.1045
19894SOL     OW71405   6.809   5.158   5.342  0.2144 -0.2054  0.3080
19894SOL    HW171406   6.814   5.070   5.305 -1.6269 -0.7586  1.3001
19894SOL    HW271407   6.816   5.216   5.266 -1.2141 -1.2664 -0.6848
19895SOL     OW71408   7.714   7.411   6.741 -0.0005 -0.3040 -0.3009
19895SOL    HW171409   7.715   7.499   6.778 -0.3824  0.3282 -1.7063
19895SOL    HW271410   7.622   7.389   6.732  0.0821 -0.5436 -0.6100
19896SOL     OW71411   1.761  11.050   5.453  0.0353 -0.0061 -0.5548
19896SOL    HW171412   1.851  11.029   5.480  0.0443 -0.6071 -1.0294
19896SOL    HW271413   1.769  11.081   5.363 -0.2017  0.2354 -0.4947
19897SOL     OW71414   2.735   2.037   7.276 -0.5397 -0.3599 -0.3552
19897SOL    HW171415   2.827   2.045   7.302 -0.7635  0.6083  0.1746
19897SOL    HW271416   2.732   2.076   7.188 -0.1654 -1.8052 -1.0338
19898SOL     OW71417   8.236   0.090   6.453 -0.0714 -0.2657 -0.4626
19898SOL    HW171418   8.181   0.024   6.412  0.3172 -0.3949 -0.7730
19898SOL    HW271419   8.195   0.174   6.430 -0.8413 -0.4029  0.3318
19899SOL     OW71420  11.804   3.134   5.738  0.3752  0.2667  0.3275
19899SOL    HW171421  11.835   3.126   5.828  0.3833  1.2635  0.4258
19899SOL    HW271422  11.823   3.049   5.698  1.0238  0.0576  1.0642
19900SOL     OW71423   9.115   3.366   4.556 -0.4327 -0.4566 -0.4342
19900SOL    HW171424   9.134   3.437   4.617  1.3727  1.5700 -3.1239
19900SOL    HW271425   9.190   3.307   4.563  1.4904  1.4797 -2.7868
19901SOL     OW71426   4.437   7.235   1.523 -0.0385 -0.3599 -0.0986
19901SOL    HW171427   4.525   7.262   1.549  0.0357 -1.4810  0.8581
19901SOL    HW271428   4.415   7.162   1.580 -2.5335  1.3344  1.3599
19902SOL     OW71429   4.736   9.892   7.448 -0.5072  0.2642 -0.3515
19902SOL    HW171430   4.798   9.945   7.499  1.0790 -1.0345 -0.8164
19902SOL    HW271431   4.752   9.802   7.477 -0.5046 -0.3557 -2.1553
19903SOL     OW71432  10.743   1.677   8.957 -0.0890 -0.2495 -0.3175
19903SOL    HW171433  10.777   1.745   9.014  0.0919  0.3665 -1.1440
19903SOL    HW271434  10.683   1.722   8.897 -0.1401 -0.8495 -0.7357
19904SOL     OW71435   6.709   1.287   8.558  0.3148 -0.1330  0.1265
19904SOL    HW171436   6.691   1.285   8.652 -0.7942 -0.0932 -0.0749
19904SOL    HW271437   6.702   1.195   8.531 -1.3210  0.0818 -0.2551
19905SOL     OW71438   9.125   2.345   8.246  0.7260 -0.2004  0.4785
19905SOL    HW171439   9.194   2.392   8.292  0.1463  2.0847 -0.8153
19905SOL    HW271440   9.080   2.295   8.315  0.2927  2.5328  2.3349
19906SOL     OW71441   9.028   8.775   6.945  0.4792 -0.6239 -0.0480
19906SOL    HW171442   9.055   8.687   6.921 -1.9972 -1.0185 -1.8624
19906SOL    HW271443   8.977   8.764   7.025  1.0919 -0.6631  0.3404
19907SOL     OW71444   0.311   1.743   0.163 -0.3581  0.1960  0.2556
19907SOL    HW171445   0.401   1.714   0.179 -0.5340  0.0478  0.9778
19907SOL    HW271446   0.271   1.669   0.117 -0.2872  0.0171  0.4780
19908SOL     OW71447   4.889   2.360   1.570  0.3549  0.1598 -0.0056
19908SOL    HW171448   4.948   2.426   1.605  0.5305  0.8327 -1.5030
19908SOL    HW271449   4.834   2.407   1.508 -0.0703 -0.9406 -0.4933
19909SOL     OW71450   8.987   2.527   7.066 -0.4146  0.1636 -0.4325
19909SOL    HW171451   8.902   2.563   7.093  0.0049  2.1817 -1.5692
19909SOL    HW271452   8.966   2.470   6.992 -0.9018 -0.2946  0.0521
19910SOL     OW71453  11.686   1.903   1.610  0.1339  0.2505  0.5313
19910SOL    HW171454  11.705   1.979   1.556  0.1093  0.1099  0.3226
19910SOL    HW271455  11.652   1.939   1.692 -1.3974  0.4399 -0.1512
19911SOL     OW71456   3.398   2.872   5.257 -0.3903 -0.1318  0.1456
19911SOL    HW171457   3.472   2.818   5.227 -2.0828 -1.8404 -1.2144
19911SOL    HW271458   3.325   2.811   5.264 -2.3830  1.9280 -1.2222
19912SOL     OW71459   2.209   5.117   2.760  0.0618  0.0141 -0.7060
19912SOL    HW171460   2.172   5.062   2.691 -1.7311 -0.9703  0.9445
19912SOL    HW271461   2.253   5.055   2.819 -3.5268 -0.1275  2.1744
19913SOL     OW71462  10.770   0.367   7.301 -0.5460  0.0105  0.7599
19913SOL    HW171463  10.862   0.369   7.277 -0.9330 -0.7153 -0.8956
19913SOL    HW271464  10.764   0.300   7.370 -0.0859 -1.2243 -0.3697
19914SOL     OW71465   3.781   8.132   5.814  0.3192 -0.0427  0.0937
19914SOL    HW171466   3.803   8.105   5.725 -1.6452 -0.7762 -0.2045
19914SOL    HW271467   3.861   8.116   5.864  1.0298 -0.8955 -1.2521
19915SOL     OW71468   2.042   6.666  11.537  0.3225  0.6265 -0.0759
19915SOL    HW171469   1.996   6.583  11.528 -0.3451  0.9016  0.6614
19915SOL    HW271470   2.080   6.682  11.451  2.6215 -1.6761  0.3941
19916SOL     OW71471   4.367  11.772   8.592 -0.2596 -0.7544 -0.1266
19916SOL    HW171472   4.441  11.758   8.651 -0.3829  0.1216  0.2628
19916SOL    HW271473   4.346  11.865   8.602 -0.4161 -0.6411 -1.4131
19917SOL     OW71474   8.218   9.573   5.150 -0.1714  0.3257 -0.4022
19917SOL    HW171475   8.135   9.529   5.166  0.2934 -0.7682 -0.9144
19917SOL    HW271476   8.210   9.611   5.063 -0.2749  0.5571 -0.2920
19918SOL     OW71477   3.916   7.885   6.537  0.0557 -0.2804 -0.5809
19918SOL    HW171478   3.909   7.805   6.486  2.0582 -0.7030 -0.2700
19918SOL    HW271479   3.891   7.860   6.626  0.5048 -0.5412 -0.5235
19919SOL     OW71480  11.915   6.316   9.397 -0.1621 -0.2700  0.2939
19919SOL    HW171481  11.987   6.255   9.383 -1.7236 -2.4935  1.4066
19919SOL    HW271482  11.920   6.376   9.322  2.7025 -0.4024  0.2598
19920SOL     OW71483   3.239   1.994  11.116  0.0415  0.2474 -0.2094
19920SOL    HW171484   3.153   1.960  11.089  0.1587  1.6559 -2.6664
19920SOL    HW271485   3.297   1.918  11.109 -0.8275 -0.5503  0.7768
19921SOL     OW71486   1.258   1.421   8.205 -0.3569  0.3701 -0.9625
19921SOL    HW171487   1.193   1.491   8.204  0.6808  1.6436  3.0429
19921SOL    HW271488   1.212   1.346   8.244  0.1483  0.8702  0.6612
19922SOL     OW71489   6.995   9.514   6.680  0.0386 -0.0178 -0.7330
19922SOL    HW171490   6.954   9.433   6.648  0.2392 -0.7644  0.8202
19922SOL    HW271491   7.063   9.532   6.616  0.1545 -1.2218 -0.9866
19923SOL     OW71492   8.766   4.226   8.842 -0.4423  0.4276 -0.1030
19923SOL    HW171493   8.766   4.286   8.767 -1.0027  0.3408 -0.1766
19923SOL    HW271494   8.677   4.231   8.876 -0.2233  0.3754  0.4910
19924SOL     OW71495   8.736   6.743   1.470  0.3166 -0.3190 -0.8511
19924SOL    HW171496   8.734   6.827   1.426  1.3969  0.1328 -0.0906
19924SOL    HW271497   8.829   6.729   1.492  0.2355 -1.9009 -1.3377
19925SOL     OW71498   3.812   9.114   7.087  0.2976 -0.9142 -0.2041
19925SOL    HW171499   3.749   9.142   7.153 -1.6899  0.5666 -2.5783
19925SOL    HW271500   3.844   9.029   7.120 -2.2370 -1.3099  1.5581
19926SOL     OW71501   0.287   0.431   6.861  0.3536  0.2998  0.1446
19926SOL    HW171502   0.196   0.449   6.885  0.7637  0.4288  1.6737
19926SOL    HW271503   0.336   0.507   6.892  1.1530 -0.3507  0.5168
19927SOL     OW71504   4.121   1.475   0.222  0.0421 -0.0527  0.4683
19927SOL    HW171505   4.040   1.523   0.238 -0.5171 -0.5663 -0.7394
19927SOL    HW271506   4.100   1.384   0.241 -0.5056 -0.6218 -2.3988
19928SOL     OW71507   6.200  10.707   0.120  0.2245 -0.1698 -0.3138
19928SOL    HW171508   6.112  10.743   0.110 -0.3653 -1.9060 -2.0765
19928SOL    HW271509   6.239  10.716   0.033  2.0007  1.0100  0.5566
19929SOL     OW71510  11.495   7.453   7.242  0.9477  0.2376  0.5453
19929SOL    HW171511  11.437   7.479   7.171  2.3310  1.8636 -0.0429
19929SOL    HW271512  11.475   7.514   7.313 -0.1499 -1.1317  1.4920
19930SOL     OW71513   4.529  11.025   0.037 -0.0556 -0.0844  0.1624
19930SOL    HW171514   4.605  10.983   0.078  1.0058  0.9853 -0.6469
19930SOL    HW271515   4.487  11.072   0.109 -1.0684 -2.1726  1.0104
19931SOL     OW71516   6.150   3.793   3.138  0.0666  0.1967 -0.1566
19931SOL    HW171517   6.074   3.840   3.103  0.5227  1.5730  0.6371
19931SOL    HW271518   6.113   3.722   3.190 -0.8887  2.8789  3.1781
19932SOL     OW71519   5.098   4.282   0.075  0.8042 -0.0251  0.7193
19932SOL    HW171520   5.008   4.303   0.102  1.5756  1.1644  2.5733
19932SOL    HW271521   5.106   4.320  -0.012 -0.1508  0.8874  0.9990
19933SOL     OW71522   4.965  11.390  11.041  0.1786 -0.6685  0.2285
19933SOL    HW171523   5.014  11.312  11.069  1.0227 -0.5187 -0.7731
19933SOL    HW271524   4.879  11.356  11.018  1.0943 -1.6888 -2.0381
19934SOL     OW71525   4.019   4.040   5.590  0.3713  0.0261 -0.1053
19934SOL    HW171526   3.986   3.973   5.651  1.4559  0.0385  0.5165
19934SOL    HW271527   4.077   3.992   5.531  0.9250  0.3565  0.1621
19935SOL     OW71528   5.661   3.336  11.069  0.2917 -0.3246 -0.1835
19935SOL    HW171529   5.711   3.321  11.150 -1.3859  0.6400  1.0778
19935SOL    HW271530   5.653   3.248  11.030  0.1187 -1.0018  1.3130
19936SOL     OW71531   9.412   2.952   6.678 -0.1655  0.5384  0.1642
19936SOL    HW171532   9.322   2.945   6.710 -0.6044  0.4077 -1.0483
19936SOL    HW271533   9.438   3.042   6.700  0.6167 -0.3728  3.4516
19937SOL     OW71534   4.740   0.479   7.047 -0.0917  0.0925 -0.1899
19937SOL    HW171535   4.711   0.570   7.055 -1.3559 -0.3059  0.1122
19937SOL    HW271536   4.663   0.433   7.012  0.9429 -0.6491 -1.5657
19938SOL     OW71537   5.299   3.828   4.909  0.0260  0.9079  0.0455
19938SOL    HW171538   5.306   3.898   4.845 -1.3536 -0.7034 -2.0276
19938SOL    HW271539   5.205   3.810   4.916  0.3133 -0.5152  0.7501
19939SOL     OW71540   0.110   0.855   3.315  0.1294 -0.2509 -0.2868
19939SOL    HW171541   0.033   0.905   3.340 -0.0044 -0.6289  0.0740
19939SOL    HW271542   0.091   0.824   3.227  0.1320  0.1701 -0.4359
19940SOL     OW71543   2.276  11.181   5.698 -0.1677  0.0020  0.0724
19940SOL    HW171544   2.347  11.242   5.676  0.2041 -0.7770 -0.9890
19940SOL    HW271545   2.290  11.106   5.640 -2.7893  0.4666 -1.2929
19941SOL     OW71546  11.929  10.492   9.304  0.5621  0.2333  0.1880
19941SOL    HW171547  12.013  10.484   9.258  0.6374 -0.2745  0.4102
19941SOL    HW271548  11.872  10.428   9.260 -0.5018  2.3227 -1.6705
19942SOL     OW71549  11.511   1.499   0.784 -0.3532  0.6662 -0.1732
19942SOL    HW171550  11.470   1.450   0.855 -1.1729  1.1675 -0.2887
19942SOL    HW271551  11.445   1.500   0.715  1.5787 -2.7779 -2.3796
19943SOL     OW71552   2.432   1.825   8.385 -0.0216  0.7921  0.3599
19943SOL    HW171553   2.401   1.735   8.372  0.2957  0.5999  0.8994
19943SOL    HW271554   2.355   1.879   8.371 -0.7703  0.2922  2.1947
19944SOL     OW71555   8.566   5.353   1.439 -0.2775  0.3390  0.3277
19944SOL    HW171556   8.476   5.364   1.409 -0.7365 -1.3137  1.0107
19944SOL    HW271557   8.568   5.396   1.525 -1.1623 -1.7949  1.4866
19945SOL     OW71558   5.445   5.835   9.792  0.2147  0.5735  0.7107
19945SOL    HW171559   5.534   5.809   9.768 -1.3544 -3.8621 -1.4319
19945SOL    HW271560   5.422   5.903   9.728  1.3387  0.2381 -0.0854
19946SOL     OW71561   5.342   4.017   3.528  0.8721 -0.2739  0.1327
19946SOL    HW171562   5.309   4.104   3.551  0.1020 -0.7135  0.7541
19946SOL    HW271563   5.429   4.013   3.568  0.2295 -0.3991  1.5838
19947SOL     OW71564  11.638   9.893   8.353  0.3941 -0.0327 -0.7509
19947SOL    HW171565  11.664   9.890   8.261  0.7137 -0.9000 -0.6357
19947SOL    HW271566  11.654   9.984   8.379  0.8366  0.0813 -1.3941
19948SOL     OW71567  11.140   0.549   3.437  0.3375  0.2003  0.3523
19948SOL    HW171568  11.075   0.485   3.406  0.6918  0.0449 -0.0935
19948SOL    HW271569  11.119   0.562   3.529 -0.7061  0.6209  0.0662
19949SOL     OW71570   4.088   2.582   0.918 -0.2197  0.0867 -0.2561
19949SOL    HW171571   4.017   2.613   0.973  0.8129 -2.8450  3.1551
19949SOL    HW271572   4.167   2.615   0.960  0.5762 -1.1777 -0.6734
19950SOL     OW71573  10.088   6.031   6.622 -0.2982 -1.1617 -0.2056
19950SOL    HW171574   9.993   6.040   6.615 -0.3220 -0.8018  0.4886
19950SOL    HW271575  10.110   6.072   6.706  0.3239 -2.3284  0.2250
19951SOL     OW71576   5.734  10.172   7.515  0.4150  0.4500 -0.0339
19951SOL    HW171577   5.758  10.096   7.568  0.7679  0.7520  0.2488
19951SOL    HW271578   5.676  10.223   7.572  0.7198  0.7294  0.0237
19952SOL     OW71579  11.033   3.742  10.767  0.3595 -0.2539 -0.5822
19952SOL    HW171580  11.067   3.698  10.844  2.4572  0.5666 -0.9780
19952SOL    HW271581  11.012   3.830  10.797 -0.2997 -0.3941 -0.6179
19953SOL     OW71582   5.168   8.173   8.151 -0.3173 -0.3669  0.0745
19953SOL    HW171583   5.200   8.141   8.235 -0.1566 -1.5246 -0.4167
19953SOL    HW271584   5.215   8.256   8.137 -1.3506  0.5526  1.7464
19954SOL     OW71585   9.021   5.634   3.695  0.1262 -0.0229 -0.2150
19954SOL    HW171586   8.976   5.579   3.631 -2.0219 -0.6769  1.7251
19954SOL    HW271587   9.068   5.699   3.642 -2.2392  0.0219 -2.4583
19955SOL     OW71588   6.861  10.882  10.877  0.3203 -0.0494 -0.0192
19955SOL    HW171589   6.838  10.973  10.861 -0.4061 -0.5071 -1.8401
19955SOL    HW271590   6.950  10.885  10.912 -0.3800  1.4365  1.7870
19956SOL     OW71591   3.901   6.013   2.794 -0.6470  0.2719  0.2345
19956SOL    HW171592   3.952   6.050   2.722  1.4341  1.5003  2.2135
19956SOL    HW271593   3.811   6.040   2.776 -0.8876 -2.2489 -3.5634
19957SOL     OW71594  11.917   3.115   6.098  0.1573 -0.5265 -0.0789
19957SOL    HW171595  11.916   3.032   6.050  0.0969  0.4824 -1.9113
19957SOL    HW271596  11.843   3.109   6.159 -1.0007 -1.0969 -1.4949
19958SOL     OW71597   5.236  11.254   1.008  0.1918 -0.4534  0.1871
19958SOL    HW171598   5.250  11.308   1.085 -0.8418  1.3230 -0.8000
19958SOL    HW271599   5.295  11.290   0.942 -0.3684 -0.6464 -0.4347
19959SOL     OW71600   2.493   4.829   9.342 -0.1977 -0.1566 -0.6690
19959SOL    HW171601   2.550   4.756   9.318 -0.0448  0.5009 -2.4068
19959SOL    HW271602   2.427   4.789   9.399  1.0964 -1.2182  0.1611
19960SOL     OW71603   9.541   9.821   4.982 -0.4426  0.3486 -0.0972
19960SOL    HW171604   9.564   9.728   4.974  0.4158  0.6570 -1.8517
19960SOL    HW271605   9.567   9.845   5.071  0.8971 -0.7090 -0.1591
19961SOL     OW71606   3.117   9.543   8.878 -0.1636  0.5329 -0.4911
19961SOL    HW171607   3.139   9.480   8.809 -1.6820 -0.6864  0.0870
19961SOL    HW271608   3.166   9.514   8.955 -2.6823 -1.5021  0.4727
19962SOL     OW71609   3.341   7.624   8.139 -0.3141  0.5018 -0.0231
19962SOL    HW171610   3.332   7.538   8.099  0.8939  0.1009  0.5381
19962SOL    HW271611   3.367   7.681   8.066  0.0335  0.1544 -0.1757
19963SOL     OW71612  11.673   7.075   6.397  0.1288 -0.6239 -0.0303
19963SOL    HW171613  11.613   7.100   6.467  0.4640  1.7081 -0.5078
19963SOL    HW271614  11.753   7.125   6.413  0.6542 -0.9601 -1.3932
19964SOL     OW71615  10.661   3.666   5.210  0.3677 -0.1736 -0.2862
19964SOL    HW171616  10.676   3.691   5.119  0.1099  0.0402 -0.2701
19964SOL    HW271617  10.702   3.580   5.218  2.1509  0.6353 -0.0819
19965SOL     OW71618  11.339   3.783   5.152 -0.0040  0.0402 -0.3875
19965SOL    HW171619  11.270   3.717   5.147 -0.6203  0.6470 -0.1064
19965SOL    HW271620  11.372   3.789   5.062  0.6698 -1.2606 -0.2491
19966SOL     OW71621   4.701   1.356   5.583  0.4269  0.3408 -0.1388
19966SOL    HW171622   4.708   1.446   5.550  0.5990  0.7567  0.9870
19966SOL    HW271623   4.759   1.354   5.659  2.1826 -1.3832 -1.4433
19967SOL     OW71624   7.438   9.561  11.601  0.3696  0.8429  0.1897
19967SOL    HW171625   7.400   9.635  11.554 -0.5305  0.6018  0.5216
19967SOL    HW271626   7.364   9.521  11.647 -0.0776 -2.7338 -3.1169
19968SOL     OW71627   3.241   8.864  10.573 -0.6074  0.7232 -0.3244
19968SOL    HW171628   3.252   8.880  10.479  0.1272 -0.4300 -0.4419
19968SOL    HW271629   3.243   8.952  10.612 -0.2361  1.1684 -1.3122
19969SOL     OW71630   4.167   8.434   8.278  0.3754 -0.2593 -0.2447
19969SOL    HW171631   4.240   8.372   8.279  0.1464 -0.5454  1.0624
19969SOL    HW271632   4.090   8.379   8.264  0.2605 -0.1705  0.0266
19970SOL     OW71633   2.014   6.392   8.169 -0.1410 -0.3104 -0.2742
19970SOL    HW171634   2.031   6.480   8.203  1.2149 -0.2548 -1.0263
19970SOL    HW271635   2.097   6.366   8.129 -0.8641 -1.4848 -1.0469
19971SOL     OW71636  11.251   3.232   2.370  1.0768 -0.0893  0.3702
19971SOL    HW171637  11.183   3.249   2.305  0.1567 -1.2809  0.9715
19971SOL    HW271638  11.327   3.282   2.340  0.2752  0.3938 -0.9116
19972SOL     OW71639   1.563   5.291   2.755 -0.5896  0.2576 -0.6848
19972SOL    HW171640   1.577   5.322   2.845 -1.1873 -1.1070 -0.1004
19972SOL    HW271641   1.590   5.365   2.700 -0.7065  1.3086  0.6215
19973SOL     OW71642   2.476  11.468   4.851 -0.5657  0.5589 -0.2990
19973SOL    HW171643   2.533  11.415   4.794 -1.7352  0.3280 -1.2941
19973SOL    HW271644   2.458  11.412   4.926 -0.7927  0.0030 -0.7600
19974SOL     OW71645   7.450   2.968  11.415 -0.8560  0.2171  0.8748
19974SOL    HW171646   7.505   3.031  11.462  3.1131 -2.0340 -0.2519
19974SOL    HW271647   7.442   3.004  11.327 -2.6686  1.2837  1.4273
19975SOL     OW71648   1.416   8.241   8.014  0.4643 -0.1168  0.4710
19975SOL    HW171649   1.328   8.238   7.975  0.8260  0.0984 -0.3938
19975SOL    HW271650   1.415   8.174   8.082 -0.1503 -0.6212 -0.0197
19976SOL     OW71651   7.625   1.772   5.655  0.6454  0.5235 -0.1407
19976SOL    HW171652   7.672   1.695   5.685 -0.9089 -0.3110  0.2848
19976SOL    HW271653   7.546   1.774   5.708 -0.3051  1.2492 -1.5123
19977SOL     OW71654   6.153   4.503   3.649  0.1633  0.3089  0.3041
19977SOL    HW171655   6.116   4.483   3.734 -0.3167  2.2198  0.5969
19977SOL    HW271656   6.082   4.488   3.587 -1.1307  3.5508  0.8188
19978SOL     OW71657  10.795  10.809   8.049  0.1772  0.5918  0.4132
19978SOL    HW171658  10.851  10.821   8.126 -0.2250  0.7945  0.6791
19978SOL    HW271659  10.803  10.716   8.028 -1.4753 -0.0119  2.1084
19979SOL     OW71660   7.724   6.252  11.164 -0.3717 -0.1327  0.2279
19979SOL    HW171661   7.650   6.313  11.163 -0.7047 -0.5138 -1.0490
19979SOL    HW271662   7.778   6.281  11.238 -1.8225  0.1055  1.2448
19980SOL     OW71663   8.759   8.731   0.073  0.8388  0.0792  0.0620
19980SOL    HW171664   8.697   8.804   0.067  1.4992  0.5986 -0.7056
19980SOL    HW271665   8.705   8.653   0.059  0.4893  0.5805 -1.7290
19981SOL     OW71666   3.350   5.085   0.165 -0.0901  0.3141 -0.2296
19981SOL    HW171667   3.294   5.097   0.089 -0.5562  0.8170  0.1835
19981SOL    HW271668   3.425   5.036   0.132 -0.9507 -0.7144 -0.7113
19982SOL     OW71669   0.601   1.747   0.059 -0.4492  0.4904 -0.3895
19982SOL    HW171670   0.656   1.678   0.021 -0.8967 -0.9690  1.4826
19982SOL    HW271671   0.622   1.747   0.152  1.3261  4.6020 -0.5434
19983SOL     OW71672   0.044   2.173   2.147  0.6620 -0.0011 -0.3763
19983SOL    HW171673   0.046   2.160   2.052 -0.4155 -2.2742 -0.1389
19983SOL    HW271674   0.132   2.148   2.176  1.0524  0.8686 -0.7520
19984SOL     OW71675   6.581   4.377  11.491 -0.0423  0.4300 -0.0523
19984SOL    HW171676   6.579   4.331  11.407 -1.3121  1.4002 -0.5900
19984SOL    HW271677   6.512   4.335  11.543  0.5412  0.0289  0.4105
19985SOL     OW71678   5.381   2.715   3.731  0.5957  0.1112  0.2735
19985SOL    HW171679   5.330   2.722   3.812  0.7881  0.2286  0.3870
19985SOL    HW271680   5.332   2.654   3.677  0.5457 -0.0896  0.5428
19986SOL     OW71681   7.552   4.868   1.202 -0.4800 -0.4811  0.5602
19986SOL    HW171682   7.514   4.864   1.114  0.7961 -3.9188  0.0016
19986SOL    HW271683   7.487   4.826   1.258  0.5511 -2.4480  0.3648
19987SOL     OW71684   4.649   6.539   9.236  0.0958 -0.0796 -0.3586
19987SOL    HW171685   4.699   6.611   9.198 -0.1856  1.0411  1.2730
19987SOL    HW271686   4.580   6.582   9.286 -0.3938 -1.5091  0.2419
19988SOL     OW71687  10.641   5.670   0.175 -0.2073  0.3986  0.0072
19988SOL    HW171688  10.552   5.699   0.155 -0.0064  1.4296  0.5597
19988SOL    HW271689  10.682   5.656   0.089 -1.1456 -0.9448 -0.2627
19989SOL     OW71690   9.148   3.641   7.762 -0.2226 -0.3298 -0.6273
19989SOL    HW171691   9.167   3.547   7.762 -2.1279 -0.8493 -3.2122
19989SOL    HW271692   9.190   3.673   7.682  0.7203  1.1678  0.4152
19990SOL     OW71693   1.861   2.379   6.995 -0.0247  0.9313  0.8787
19990SOL    HW171694   1.921   2.424   7.054 -1.8174  2.7896  1.4133
19990SOL    HW271695   1.844   2.441   6.925 -1.8122  0.7766  1.1100
19991SOL     OW71696   4.378   4.662   9.211 -0.0352  0.6529 -0.0943
19991SOL    HW171697   4.305   4.602   9.226 -0.7144  1.5111  0.1225
19991SOL    HW271698   4.455   4.606   9.206 -0.8837 -0.4458 -1.8287
19992SOL     OW71699   5.034   7.490   0.231 -0.3184 -0.1532 -0.4083
19992SOL    HW171700   5.014   7.536   0.149  0.2378  0.7882 -0.0358
19992SOL    HW271701   5.025   7.397   0.209 -3.4582  0.1147 -0.6721
19993SOL     OW71702   0.051   2.455   4.131 -0.2855 -0.1655  0.3172
19993SOL    HW171703   0.037   2.363   4.154 -0.9984 -0.4411 -1.0927
19993SOL    HW271704   0.069   2.498   4.214 -1.5893 -1.2772  1.2164
19994SOL     OW71705   5.622   7.606   8.254 -0.0355 -0.2399  0.1812
19994SOL    HW171706   5.618   7.511   8.245 -2.6420 -0.0483 -1.9218
19994SOL    HW271707   5.667   7.621   8.337 -2.5186 -3.4089  2.3235
19995SOL     OW71708   0.518   6.459   9.282 -0.6858  0.3518 -0.7506
19995SOL    HW171709   0.581   6.531   9.272 -1.7001  1.1235 -1.8835
19995SOL    HW271710   0.453   6.474   9.213 -2.8287  0.3484  1.1322
19996SOL     OW71711  11.794   9.769   8.143  0.1409  0.0688 -0.1261
19996SOL    HW171712  11.758   9.810   8.064 -0.2557  0.1168  0.0778
19996SOL    HW271713  11.886   9.750   8.121 -0.2924 -1.0909 -1.0597
19997SOL     OW71714   7.755   6.099   4.588  0.2673 -0.4842  0.3498
19997SOL    HW171715   7.701   6.132   4.660  0.4356 -0.2446  0.3665
19997SOL    HW271716   7.692   6.074   4.521  0.1268 -0.3583  0.4334
19998SOL     OW71717   1.308  11.639  10.961 -0.0295  0.2244  0.1105
19998SOL    HW171718   1.329  11.697  10.888 -0.3343 -1.2060 -1.1827
19998SOL    HW271719   1.278  11.697  11.031  2.1841  1.7988 -0.1680
19999SOL     OW71720   9.411   3.222   7.895 -1.0115  0.8395 -0.2111
19999SOL    HW171721   9.332   3.204   7.945 -0.0002 -0.0499  1.1285
19999SOL    HW271722   9.448   3.301   7.935 -0.3395  0.2804  0.2905
20000SOL     OW71723  10.840   8.357   9.897 -0.2012  0.1113 -0.2345
20000SOL    HW171724  10.833   8.269   9.935 -1.8432 -0.1888 -1.1320
20000SOL    HW271725  10.823   8.344   9.804  0.7570  1.2372 -0.5914
20001SOL     OW71726   1.169   0.922   9.365  0.2375  0.0459 -0.1631
20001SOL    HW171727   1.225   0.936   9.289 -1.9351 -1.1569 -2.0878
20001SOL    HW271728   1.187   0.831   9.391  0.9641  0.4479  0.7988
20002SOL     OW71729   5.571   2.385   5.078  0.1394  0.4214  0.0212
20002SOL    HW171730   5.660   2.390   5.111  0.2883  1.0298 -0.4671
20002SOL    HW271731   5.574   2.427   4.993 -0.3963 -0.4797 -0.4581
20003SOL     OW71732   2.019   0.310   7.312  0.5537  0.3156  0.1785
20003SOL    HW171733   2.073   0.255   7.254  2.1031  2.5273 -0.6303
20003SOL    HW271734   2.077   0.383   7.335 -1.4395  1.6765  1.0740
20004SOL     OW71735   2.285   0.411  11.071  0.0218  0.0186  0.1360
20004SOL    HW171736   2.274   0.462  10.991 -0.0962 -1.6823 -0.9720
20004SOL    HW271737   2.197   0.400  11.106  0.1159  1.1209  0.7573
20005SOL     OW71738   0.689   4.257   1.912  0.2496  0.7419  0.1136
20005SOL    HW171739   0.604   4.213   1.915 -0.5972  2.3027 -0.2651
20005SOL    HW271740   0.727   4.228   1.829 -0.1499  0.4552  0.0247
20006SOL     OW71741   9.130   9.194   5.359  0.5648  0.2017 -0.4062
20006SOL    HW171742   9.207   9.234   5.400 -1.1991  2.2750  1.1224
20006SOL    HW271743   9.084   9.267   5.317  0.4917 -1.3238 -3.2624
20007SOL     OW71744  10.999   1.005   8.971 -0.1564 -0.5570  0.1477
20007SOL    HW171745  10.940   0.983   9.043 -0.1207 -2.5650 -0.4025
20007SOL    HW271746  11.069   0.941   8.977  0.1450 -0.3929 -1.3472
20008SOL     OW71747   6.068   0.169  11.613  0.1289 -0.4309  0.2084
20008SOL    HW171748   6.057   0.084  11.656  0.6499 -0.1904  0.8560
20008SOL    HW271749   6.146   0.158  11.559 -0.0904 -0.5124 -0.0888
20009SOL     OW71750   7.239   6.743   0.973  0.0863 -0.1164  0.3330
20009SOL    HW171751   7.252   6.665   0.920  0.9870 -0.6720  1.3366
20009SOL    HW271752   7.247   6.816   0.911 -1.1694 -0.8089 -0.6880
20010SOL     OW71753   5.980   9.782   5.609  0.4642 -0.8189 -0.2351
20010SOL    HW171754   5.923   9.740   5.544  0.4246 -3.6334  1.4169
20010SOL    HW271755   6.068   9.775   5.573  0.0932  1.6272 -1.8426
20011SOL     OW71756   0.356   3.407   7.533  0.4243 -0.2905 -0.5281
20011SOL    HW171757   0.399   3.393   7.617 -2.5557  0.0465  1.1498
20011SOL    HW271758   0.354   3.320   7.493 -0.4070 -0.9684  0.9243
20012SOL     OW71759   1.490   9.083   7.354  0.0207  0.5781 -0.3290
20012SOL    HW171760   1.429   9.039   7.414 -0.3771  0.4141 -0.8359
20012SOL    HW271761   1.486   9.175   7.379 -0.2277  0.5296 -0.1790
20013SOL     OW71762   1.600   9.473  10.037  0.0043  0.1052 -0.0662
20013SOL    HW171763   1.599   9.400  10.098 -0.0787 -0.2084 -0.4399
20013SOL    HW271764   1.692   9.485  10.015 -0.1135 -0.8622 -1.1600
20014SOL     OW71765   9.747   1.935   4.283  0.1032 -0.0057  0.2881
20014SOL    HW171766   9.662   1.928   4.238  0.2682 -1.0960  0.1140
20014SOL    HW271767   9.800   1.990   4.225  0.2581 -1.2566 -0.8125
20015SOL     OW71768   6.587  11.325   1.544 -0.0904  0.1994  0.3513
20015SOL    HW171769   6.571  11.328   1.450  0.9826 -1.0879  0.0897
20015SOL    HW271770   6.551  11.241   1.572 -1.8001  1.2339  1.4050
20016SOL     OW71771   2.820   5.242   2.831 -0.0998 -0.0451  0.2445
20016SOL    HW171772   2.785   5.152   2.828 -2.8322  0.9437 -1.7357
20016SOL    HW271773   2.864   5.254   2.747 -1.4560  1.0056 -0.3599
20017SOL     OW71774   0.648   9.148   2.944 -0.1465 -0.1479  0.0535
20017SOL    HW171775   0.698   9.126   3.022 -0.2664 -1.5865 -0.2322
20017SOL    HW271776   0.711   9.142   2.872 -0.7568 -2.5721 -0.3835
20018SOL     OW71777   2.494   8.042   7.362  0.1212  0.3335 -0.4738
20018SOL    HW171778   2.514   8.127   7.322  2.6611 -0.2264 -0.5983
20018SOL    HW271779   2.551   7.980   7.316  0.4180 -0.9514  1.4814
20019SOL     OW71780  11.338   2.909   7.416 -0.2040 -0.3221 -0.0127
20019SOL    HW171781  11.361   2.819   7.439 -0.1744 -0.4250 -0.4414
20019SOL    HW271782  11.418   2.945   7.377 -0.3834 -0.2789 -0.3375
20020SOL     OW71783  11.309   4.285   0.347 -0.3996 -0.0066 -0.1711
20020SOL    HW171784  11.229   4.232   0.350 -1.9375  2.1821 -0.2519
20020SOL    HW271785  11.345   4.281   0.435  0.1427 -1.9918 -0.4303
20021SOL     OW71786   3.330  11.932   3.374 -0.7021  0.3240  0.2210
20021SOL    HW171787   3.317  11.914   3.281  0.9881 -1.0994  0.1979
20021SOL    HW271788   3.424  11.938   3.384 -0.8549  0.3749  1.8688
20022SOL     OW71789   1.017   2.970   3.238 -0.2302  0.2897 -0.6494
20022SOL    HW171790   0.968   3.049   3.216 -2.9199 -0.4530  2.0813
20022SOL    HW271791   0.962   2.898   3.206 -0.2503 -0.5597  1.2099
20023SOL     OW71792   7.348   2.919   0.863 -0.0883  0.3175 -0.0083
20023SOL    HW171793   7.327   2.910   0.770  0.5084  0.5009 -0.1716
20023SOL    HW271794   7.437   2.955   0.863 -0.6051  1.6531  0.6178
20024SOL     OW71795   3.211   7.873   1.267  0.1041 -0.3167 -0.4795
20024SOL    HW171796   3.160   7.854   1.188 -1.3112  0.1641  0.2708
20024SOL    HW271797   3.246   7.961   1.252 -1.0065  0.1973 -0.1830
20025SOL     OW71798   4.640  11.362   6.968  0.0783 -0.2413 -0.0730
20025SOL    HW171799   4.557  11.315   6.967  0.9550 -2.0288  1.9460
20025SOL    HW271800   4.707  11.294   6.958  1.3349  0.9272  0.0078
20026SOL     OW71801   7.633   5.190   8.222 -0.0859  0.4478  0.6445
20026SOL    HW171802   7.580   5.229   8.153  0.8303  1.0422  0.2448
20026SOL    HW271803   7.720   5.180   8.182 -0.1936 -1.7060  0.8527
20027SOL     OW71804  11.412   8.573   0.698 -0.1686 -0.9285 -0.4192
20027SOL    HW171805  11.320   8.547   0.704 -0.3284 -0.7154 -1.7077
20027SOL    HW271806  11.444   8.530   0.619  0.6302 -0.3868 -0.4019
20028SOL     OW71807   7.710   8.681   9.338 -0.0415  0.2143  0.2794
20028SOL    HW171808   7.721   8.644   9.425 -1.0473  0.2906  0.4593
20028SOL    HW271809   7.644   8.625   9.296  0.7618 -0.0973 -0.6045
20029SOL     OW71810   3.808  10.374  10.103 -0.3032  0.3512 -0.0954
20029SOL    HW171811   3.739  10.370  10.037  0.5004  0.0608 -0.9541
20029SOL    HW271812   3.854  10.456  10.084  0.6526 -0.2915 -0.6819
20030SOL     OW71813   6.455   6.797  10.085  0.7050  0.5617 -0.0160
20030SOL    HW171814   6.468   6.789  10.179  1.5062  1.5636 -0.0162
20030SOL    HW271815   6.432   6.709  10.055 -0.1107  0.3493  1.1896
20031SOL     OW71816   3.003   9.080   7.000  0.5607  0.1537  0.1507
20031SOL    HW171817   2.967   9.040   6.921 -0.6754 -0.0478  0.7934
20031SOL    HW271818   3.098   9.071   6.991  0.3581 -1.8598 -0.2818
20032SOL     OW71819   6.336   4.111   0.611 -0.1513 -0.2129 -0.0527
20032SOL    HW171820   6.425   4.145   0.614 -0.3249  0.2701 -0.3482
20032SOL    HW271821   6.301   4.141   0.528 -0.4753 -0.6983 -0.0960
20033SOL     OW71822   8.635   0.871   8.833 -0.4106  0.1289 -0.2527
20033SOL    HW171823   8.574   0.825   8.890 -0.1017  0.4797  0.3759
20033SOL    HW271824   8.599   0.960   8.827 -0.0518  0.2913 -0.0133
20034SOL     OW71825   2.572   5.639   0.878 -0.4540 -0.1605  0.5530
20034SOL    HW171826   2.657   5.637   0.834 -0.5404 -1.3548  0.4236
20034SOL    HW271827   2.566   5.728   0.914  1.2326 -0.3318  1.3220
20035SOL     OW71828   9.983   1.070   9.570  0.0041 -0.2577  0.2725
20035SOL    HW171829  10.008   0.987   9.610 -3.0709 -0.3799  2.2684
20035SOL    HW271830   9.910   1.102   9.623 -0.1808  2.8138 -1.5486
20036SOL     OW71831   6.738   3.226   2.101  0.2866  0.0675  0.2179
20036SOL    HW171832   6.784   3.250   2.021 -0.2736 -1.3554 -0.5686
20036SOL    HW271833   6.807   3.204   2.163  0.7545 -2.8136 -1.1833
20037SOL     OW71834   6.550   4.945   0.515 -0.5014  0.6280 -0.4887
20037SOL    HW171835   6.509   4.880   0.458 -0.0090 -0.0952 -0.0351
20037SOL    HW271836   6.611   4.992   0.458 -0.0314 -0.0731 -0.5878
20038SOL     OW71837   4.739   7.162   5.294  0.2810 -0.0620 -0.5686
20038SOL    HW171838   4.684   7.139   5.369 -0.2258  1.1447 -0.5471
20038SOL    HW271839   4.711   7.103   5.224 -0.4657 -0.0296 -0.3050
20039SOL     OW71840   1.225  11.056   3.696 -0.3427 -0.0610  0.1744
20039SOL    HW171841   1.316  11.025   3.701 -0.1550 -1.1105 -4.8351
20039SOL    HW271842   1.173  10.979   3.718  0.0102 -0.4185 -0.2320
20040SOL     OW71843   1.670   1.982   7.733 -0.0388  0.1447  0.7534
20040SOL    HW171844   1.578   1.959   7.733 -0.4254  1.5763  0.2549
20040SOL    HW271845   1.680   2.039   7.810  0.5739 -0.5301  1.1833
20041SOL     OW71846  10.336  11.420  11.896 -0.3389  0.2004 -0.7165
20041SOL    HW171847  10.253  11.394  11.856 -0.9867 -1.2351  1.4196
20041SOL    HW271848  10.384  11.338  11.908 -0.3578  0.4824  1.7160
20042SOL     OW71849   2.058   9.201   4.624 -0.8182 -0.4239 -0.5690
20042SOL    HW171850   2.084   9.129   4.682 -2.3916 -0.1625  0.5531
20042SOL    HW271851   1.973   9.174   4.589 -0.5649  0.0838 -1.6021
20043SOL     OW71852   2.139   3.859   8.268  0.3983  0.2398 -0.3345
20043SOL    HW171853   2.090   3.854   8.186  0.9271 -0.0946 -0.6367
20043SOL    HW271854   2.129   3.950   8.296 -0.3666  0.1808 -0.4060
20044SOL     OW71855   6.979   0.505   2.854 -0.2017 -0.4858  0.5401
20044SOL    HW171856   7.028   0.465   2.782  0.6001 -0.1073  0.8622
20044SOL    HW271857   6.988   0.444   2.927  0.3923 -0.0867  0.8082
20045SOL     OW71858   0.641   5.203   4.912 -0.4131  0.2405 -0.0274
20045SOL    HW171859   0.557   5.244   4.934  0.3246  0.2090  3.3960
20045SOL    HW271860   0.623   5.109   4.913 -0.3370  0.2303  0.8054
20046SOL     OW71861   3.123   3.241  10.678 -0.3227  0.0328  0.1965
20046SOL    HW171862   3.100   3.241  10.586  2.2815  0.0746 -0.5318
20046SOL    HW271863   3.061   3.301  10.719 -3.3383 -2.0620 -0.9379
20047SOL     OW71864   5.445  10.392   6.281 -0.2714  0.4392  0.4590
20047SOL    HW171865   5.474  10.480   6.307 -1.2043  1.1931 -0.9344
20047SOL    HW271866   5.349  10.397   6.282 -0.3864  0.4057 -2.5474
20048SOL     OW71867   2.209   7.484   3.491 -0.4094  0.1810 -0.0330
20048SOL    HW171868   2.255   7.482   3.575 -0.7017  1.1263  0.1622
20048SOL    HW271869   2.158   7.403   3.490  0.3953 -0.3345  0.2388
20049SOL     OW71870   7.459   7.539   1.199 -0.0588  0.0113 -0.1598
20049SOL    HW171871   7.498   7.613   1.246 -0.7373 -0.0351  0.4856
20049SOL    HW271872   7.388   7.577   1.148  0.9787  0.1441 -1.5824
20050SOL     OW71873   7.851   5.735   3.051  0.2177  0.2606 -0.2408
20050SOL    HW171874   7.881   5.804   2.991  1.0517  0.1666  0.0575
20050SOL    HW271875   7.931   5.698   3.087 -0.2716  0.6853  1.3672
20051SOL     OW71876   2.157  10.246  11.537  0.1499 -0.1164 -0.4077
20051SOL    HW171877   2.228  10.236  11.601  0.2580 -0.5633 -0.5981
20051SOL    HW271878   2.146  10.341  11.530  0.6152 -0.0437 -0.2488
20052SOL     OW71879   4.395   3.695   6.140  0.5786 -0.5571 -0.0062
20052SOL    HW171880   4.401   3.697   6.044 -1.4218  1.1934 -0.1653
20052SOL    HW271881   4.382   3.603   6.162  1.3245 -1.0157 -1.3831
20053SOL     OW71882   3.640   7.261   8.224 -0.2005 -0.1248 -0.1081
20053SOL    HW171883   3.611   7.292   8.310  1.7486 -0.0653  0.5668
20053SOL    HW271884   3.559   7.256   8.173 -1.1534  1.8651  1.0660
20054SOL     OW71885   6.978  10.799   7.406 -0.1284 -0.7725  0.1564
20054SOL    HW171886   6.952  10.863   7.472 -0.0722 -0.6322  0.0446
20054SOL    HW271887   7.002  10.721   7.455 -0.2995 -0.7413  0.2878
20055SOL     OW71888   1.625   1.855   5.425 -0.4749 -0.6039 -0.4591
20055SOL    HW171889   1.652   1.784   5.483 -0.9659  1.1517  2.0839
20055SOL    HW271890   1.706   1.903   5.406 -0.2735 -1.3167 -1.5283
20056SOL     OW71891   3.254  11.197  10.540 -0.0982 -0.6458  0.4988
20056SOL    HW171892   3.172  11.167  10.501 -0.6393 -0.1985  1.2818
20056SOL    HW271893   3.298  11.244  10.469 -0.5959 -0.7253  0.1309
20057SOL     OW71894   3.238   2.713   5.973  0.4893 -0.1666  0.1123
20057SOL    HW171895   3.162   2.750   5.928  1.5039 -0.9336 -2.4386
20057SOL    HW271896   3.307   2.713   5.906  3.1155  1.5400  2.6257
20058SOL     OW71897   5.360   8.847  10.368 -0.1241  0.1735 -0.4053
20058SOL    HW171898   5.289   8.789  10.340  0.4015 -1.0016  0.5522
20058SOL    HW271899   5.411   8.862  10.289  0.0208 -1.1512 -0.5993
20059SOL     OW71900   4.857   2.739  10.245  0.1171  0.2249 -0.3356
20059SOL    HW171901   4.793   2.684  10.289 -0.2251 -0.5955 -1.8109
20059SOL    HW271902   4.835   2.828  10.272 -1.0502 -0.1311 -0.0945
20060SOL     OW71903   5.357   2.619   8.585  0.2916 -0.2491 -0.2998
20060SOL    HW171904   5.369   2.545   8.525 -0.4533 -0.6736  0.0605
20060SOL    HW271905   5.445   2.643   8.611  0.5213 -1.4305  0.0728
20061SOL     OW71906   8.278   3.846   9.602 -0.2492 -0.3211  0.4044
20061SOL    HW171907   8.304   3.902   9.674 -0.0632 -1.9990  1.7130
20061SOL    HW271908   8.308   3.891   9.523 -0.0402  1.3260  1.3929
20062SOL     OW71909   7.066   3.109   5.218 -0.4836 -0.1270  0.2687
20062SOL    HW171910   7.135   3.061   5.172 -0.8357  0.8796 -1.3745
20062SOL    HW271911   7.063   3.068   5.305  0.2362 -2.0747 -0.5617
20063SOL     OW71912  11.311  11.142   8.659 -0.0835 -0.4453 -0.5492
20063SOL    HW171913  11.372  11.089   8.710  1.1398  0.7419 -0.7156
20063SOL    HW271914  11.329  11.118   8.568 -0.5111 -0.7497 -0.5548
20064SOL     OW71915   5.533  10.877  11.153 -0.0582 -0.1078  0.5292
20064SOL    HW171916   5.599  10.913  11.212 -1.6388 -0.6179  2.7483
20064SOL    HW271917   5.554  10.783  11.149  1.0458  0.1724 -1.1610
20065SOL     OW71918   8.561   2.180   7.183 -0.0582  0.1971 -0.2506
20065SOL    HW171919   8.484   2.189   7.127 -0.2354 -0.2008 -0.0757
20065SOL    HW271920   8.550   2.095   7.224 -0.3840  0.8512  1.0685
20066SOL     OW71921   5.463   3.462   3.061 -0.5440  0.0094  0.2298
20066SOL    HW171922   5.512   3.385   3.033 -1.3480  0.4070 -2.6066
20066SOL    HW271923   5.374   3.446   3.030 -0.9572  1.6534  0.4716
20067SOL     OW71924   7.136  11.320   0.414  0.2446 -0.4995  0.0018
20067SOL    HW171925   7.066  11.257   0.399 -0.9524  0.9609 -0.9197
20067SOL    HW271926   7.211  11.268   0.441 -1.0505 -2.1709  0.5209
20068SOL     OW71927   6.130   3.244   1.899  0.2398 -0.1472 -0.6552
20068SOL    HW171928   6.087   3.246   1.814 -0.9808 -1.5469 -0.1029
20068SOL    HW271929   6.096   3.166   1.942  2.1809 -0.4685  0.4316
20069SOL     OW71930   4.794   9.823   7.965 -0.9608 -0.3797 -0.6221
20069SOL    HW171931   4.762   9.753   8.022 -1.0074  0.2812  0.1911
20069SOL    HW271932   4.750   9.808   7.881 -2.6987 -0.0771  0.1781
20070SOL     OW71933   7.702   5.970   0.460 -0.4988 -0.8004  0.4256
20070SOL    HW171934   7.694   5.878   0.435 -0.8614 -0.8299  0.6458
20070SOL    HW271935   7.628   5.985   0.519 -0.3499 -0.4100  0.5128
20071SOL     OW71936  11.532   3.125   1.945 -0.1040  0.4343  0.1217
20071SOL    HW171937  11.524   3.169   2.029 -0.4241  1.8358 -0.6068
20071SOL    HW271938  11.459   3.158   1.893  0.2747 -0.1477 -0.8211
20072SOL     OW71939   6.471   3.488  11.001  0.1630  0.1725  0.3727
20072SOL    HW171940   6.401   3.495  11.066  0.1215  1.2547  0.2286
20072SOL    HW271941   6.494   3.395  11.000 -0.3016  0.0351  1.4417
20073SOL     OW71942   1.358  11.492   5.629  1.1402 -0.0672  0.2101
20073SOL    HW171943   1.281  11.455   5.586  1.3098  2.1493 -2.2946
20073SOL    HW271944   1.324  11.569   5.676  1.4136 -0.8223  1.6933
20074SOL     OW71945   3.292   9.782   1.404  0.3703  0.2233 -0.2812
20074SOL    HW171946   3.331   9.804   1.319  0.4405 -0.2704 -0.3771
20074SOL    HW271947   3.272   9.867   1.443 -1.6864  0.4923 -1.7354
20075SOL     OW71948   4.802   0.918   5.127 -0.4091  0.0902  0.8783
20075SOL    HW171949   4.864   0.937   5.198 -1.3509 -2.2776  2.4335
20075SOL    HW271950   4.720   0.960   5.154 -0.9151 -1.2554  1.4905
20076SOL     OW71951   9.330   1.893   2.037  0.0806 -0.3095  0.1988
20076SOL    HW171952   9.286   1.892   2.122 -0.4550 -0.2861 -0.0684
20076SOL    HW271953   9.407   1.948   2.050  1.6497 -2.6529  1.4275
20077SOL     OW71954   2.751   0.132   0.100  0.2242  0.0684 -0.3508
20077SOL    HW171955   2.738   0.086   0.018 -0.3084 -1.0891  0.3671
20077SOL    HW271956   2.784   0.066   0.161 -0.8444  0.5289  0.7861
20078SOL     OW71957   4.230   6.431   9.389  0.6363 -0.2108 -0.2816
20078SOL    HW171958   4.313   6.430   9.437  0.5265  0.4902 -0.0656
20078SOL    HW271959   4.249   6.385   9.307  1.0107 -0.7942  0.1311
20079SOL     OW71960  10.973  11.224   2.303 -0.0793 -0.1161  0.0807
20079SOL    HW171961  11.036  11.165   2.261 -0.6159 -2.2024  1.9645
20079SOL    HW271962  11.026  11.278   2.361  0.2866  0.3639 -0.6882
20080SOL     OW71963   2.693   8.197   5.778  0.2073 -0.8334 -0.4286
20080SOL    HW171964   2.631   8.147   5.832 -0.6361  0.0326 -0.5647
20080SOL    HW271965   2.690   8.154   5.693 -2.1689  0.6817 -1.1997
20081SOL     OW71966  11.092   4.756  10.691 -0.0555 -0.0460 -0.3029
20081SOL    HW171967  11.058   4.787  10.606  0.1654 -0.1590 -0.4318
20081SOL    HW271968  11.069   4.663  10.693 -0.6575  0.1000  0.0550
20082SOL     OW71969   6.122   8.638   6.558  0.1694 -0.1525 -0.5290
20082SOL    HW171970   6.182   8.670   6.626  0.6909 -1.5857 -0.2742
20082SOL    HW271971   6.175   8.638   6.479 -0.0513  0.2698 -0.6835
20083SOL     OW71972   3.952   0.693   7.971  0.0024 -0.1001  0.4126
20083SOL    HW171973   4.022   0.692   7.907  0.1225  0.7990  0.5077
20083SOL    HW271974   3.880   0.647   7.929  0.6924 -1.1956  0.3843
20084SOL     OW71975   5.155   9.428   9.974  0.0617  0.3968 -0.7635
20084SOL    HW171976   5.153   9.480  10.054  1.6745 -0.7406  0.0732
20084SOL    HW271977   5.248   9.408   9.960 -0.4453 -2.1152 -1.0822
20085SOL     OW71978   6.835  10.723  10.471 -0.1575 -0.7319 -0.0584
20085SOL    HW171979   6.840  10.816  10.447 -1.6552 -0.9287 -1.2590
20085SOL    HW271980   6.747  10.696  10.446 -0.3259 -2.1019  1.7738
20086SOL     OW71981   2.061  10.493   6.547  0.1882 -0.6182 -0.2963
20086SOL    HW171982   2.074  10.401   6.572  0.2391 -0.1939  1.3544
20086SOL    HW271983   2.073  10.542   6.628 -0.2818  0.8231 -1.0580
20087SOL     OW71984   9.810   6.419   6.456  0.1351 -0.4240  0.0870
20087SOL    HW171985   9.847   6.381   6.377  0.6709  0.9976 -0.3703
20087SOL    HW271986   9.808   6.347   6.519  0.7978 -1.2788 -0.8522
20088SOL     OW71987  10.656   4.581   0.679 -0.1726 -0.0857 -0.3756
20088SOL    HW171988  10.574   4.554   0.721 -0.4992 -0.0191 -0.9559
20088SOL    HW271989  10.649   4.548   0.589 -0.1822  1.1002 -0.8345
20089SOL     OW71990   2.176   8.528   1.016  0.4685  0.1735 -0.1280
20089SOL    HW171991   2.261   8.487   0.996  1.0118  0.5082  1.4025
20089SOL    HW271992   2.162   8.511   1.109 -0.6899  0.9703 -0.1350
20090SOL     OW71993   7.450   6.770  10.158  0.0929 -0.2330 -0.3560
20090SOL    HW171994   7.496   6.854  10.162  0.6630 -0.5620  2.0417
20090SOL    HW271995   7.490   6.723  10.085  0.7381  1.0294 -0.8435
20091SOL     OW71996  11.934   3.839   9.603 -0.5493 -0.4160  0.1702
20091SOL    HW171997  11.947   3.933   9.586 -1.4959 -0.2265  0.4865
20091SOL    HW271998  11.841   3.830   9.619 -0.5735 -1.5283 -0.5257
20092SOL     OW71999   9.933   9.067   6.368  0.1960 -0.3724 -0.3115
20092SOL    HW172000   9.884   9.149   6.367  1.8855  0.7198 -2.1971
20092SOL    HW272001  10.014   9.087   6.321  1.6881 -2.5384  1.1267
20093SOL     OW72002   8.949  10.252   5.840  0.2141  0.0631  0.1314
20093SOL    HW172003   8.903  10.320   5.790 -0.1128 -0.5580 -0.4311
20093SOL    HW272004   8.891  10.234   5.914  0.6688  0.9388  0.7174
20094SOL     OW72005   4.523   9.253   8.489  0.2282 -0.4730  0.0141
20094SOL    HW172006   4.595   9.315   8.480  1.1459 -1.2596  1.5494
20094SOL    HW272007   4.533   9.193   8.416 -1.6238  1.9830 -2.4941
20095SOL     OW72008   3.786   2.206   3.681 -0.1429  0.6642 -0.2004
20095SOL    HW172009   3.824   2.190   3.768  3.2762  0.8759 -1.5316
20095SOL    HW272010   3.809   2.296   3.661 -0.2856  0.4035 -1.6057
20096SOL     OW72011   9.843   5.888   7.464 -0.5356 -0.1104  0.0486
20096SOL    HW172012   9.863   5.965   7.518 -3.0754  1.0152 -0.4504
20096SOL    HW272013   9.829   5.818   7.528 -2.2589  0.8980  0.8756
20097SOL     OW72014   7.046   1.171   5.584  0.1913  0.0748  0.5281
20097SOL    HW172015   7.002   1.102   5.634  1.7409  0.0805  1.9732
20097SOL    HW272016   6.975   1.229   5.556 -0.8462 -0.5370  1.7946
20098SOL     OW72017   6.807   1.102   0.917  0.2631 -0.3341  0.4234
20098SOL    HW172018   6.784   1.129   1.006 -2.6704 -0.4350 -0.2210
20098SOL    HW272019   6.807   1.183   0.867  2.2137 -0.2358  0.5108
20099SOL     OW72020   9.504   2.780   1.826  0.0615 -0.3905  0.0310
20099SOL    HW172021   9.463   2.787   1.740  0.2291  0.6106  0.0143
20099SOL    HW272022   9.598   2.786   1.808  0.0956 -0.1473  0.2836
20100SOL     OW72023   8.149   2.866   8.633  0.1511 -0.3910  0.1653
20100SOL    HW172024   8.232   2.820   8.617  0.8618  0.4341  1.2728
20100SOL    HW272025   8.167   2.957   8.607  0.6099  0.4726  3.0840
20101SOL     OW72026   7.000   2.169  10.846  0.4679 -0.2771  0.6122
20101SOL    HW172027   6.987   2.240  10.909 -0.7715 -0.1166  0.1939
20101SOL    HW272028   6.955   2.198  10.767 -0.3616 -1.6773  0.5381
20102SOL     OW72029   6.767  10.995   9.386 -0.2065 -0.3715  0.3458
20102SOL    HW172030   6.827  11.070   9.386 -0.2896 -0.3050  0.4005
20102SOL    HW272031   6.695  11.022   9.330 -1.7545  0.8303  2.7705
20103SOL     OW72032   9.671   1.019   2.750  0.1183  0.2757 -0.4861
20103SOL    HW172033   9.657   1.055   2.837  1.8345  1.1463 -0.5281
20103SOL    HW272034   9.766   1.027   2.735  0.6391 -3.9861 -0.6411
20104SOL     OW72035   2.088   0.384  10.359  0.0406  0.2763  0.1819
20104SOL    HW172036   2.180   0.385  10.385 -0.1694  1.1355  0.9263
20104SOL    HW272037   2.039   0.401  10.440 -0.9020 -2.3093  0.2508
20105SOL     OW72038   2.949   0.798  11.692  0.1887  0.4796  0.2086
20105SOL    HW172039   2.957   0.893  11.700 -2.2826  0.5983  2.9730
20105SOL    HW272040   3.031   0.764  11.730  0.8935  1.4468 -0.3850
20106SOL     OW72041   7.787   1.935  11.118 -0.2053 -0.2700 -0.0534
20106SOL    HW172042   7.859   1.988  11.152  1.7456 -2.0076 -1.1718
20106SOL    HW272043   7.758   1.883  11.193  0.5432 -0.4030  0.1530
20107SOL     OW72044   2.356   4.995  10.933 -0.1629 -0.5320  0.1558
20107SOL    HW172045   2.314   4.912  10.907  0.1083 -0.5816 -0.1353
20107SOL    HW272046   2.309   5.061  10.882  0.2950 -0.6181 -0.3869
20108SOL     OW72047   9.183   3.028   8.707 -0.6304 -0.2745 -0.6688
20108SOL    HW172048   9.260   3.070   8.669 -0.7834  0.3217 -0.3319
20108SOL    HW272049   9.141   3.097   8.759  0.0449 -1.2550  1.2970
20109SOL     OW72050  10.949   5.649   4.190  0.0935  0.2596  0.6133
20109SOL    HW172051  10.876   5.698   4.150 -0.6998 -0.2397  1.4103
20109SOL    HW272052  10.939   5.560   4.157  0.0304  0.0701  1.1410
20110SOL     OW72053   8.163   8.227   5.978 -0.0348 -0.5969  0.4061
20110SOL    HW172054   8.137   8.276   6.056 -0.8214  1.7325 -1.2259
20110SOL    HW272055   8.259   8.227   5.981 -0.0485 -0.1459  1.1390
20111SOL     OW72056   7.406   3.630   1.787  0.1481  0.1748  0.6682
20111SOL    HW172057   7.318   3.668   1.797 -0.0644  0.5048 -1.6785
20111SOL    HW272058   7.465   3.705   1.789 -0.0936  0.5507 -2.0023
20112SOL     OW72059   6.597   6.439   9.911 -0.2014 -0.6538 -0.7130
20112SOL    HW172060   6.661   6.443   9.841  0.2281 -0.1151 -0.2987
20112SOL    HW272061   6.643   6.396   9.983 -0.6403 -1.2095 -0.7580
20113SOL     OW72062   4.884   2.811   2.329  0.3671 -0.0190  0.6529
20113SOL    HW172063   4.863   2.777   2.243  0.7515 -2.6203  1.4884
20113SOL    HW272064   4.977   2.791   2.341  0.6449  1.4599  1.1937
20114SOL     OW72065   9.062  11.578   2.169 -0.3806  0.1751 -0.1348
20114SOL    HW172066   9.016  11.496   2.188  0.3350 -0.0058  0.8578
20114SOL    HW272067   9.074  11.620   2.254  1.8954 -0.1021 -0.2686
20115SOL     OW72068   1.712   9.873   4.494 -0.1686  0.4273 -0.4168
20115SOL    HW172069   1.627   9.839   4.466 -0.3265  0.8461 -0.4593
20115SOL    HW272070   1.775   9.829   4.438 -0.6181  2.8372 -3.0076
20116SOL     OW72071  10.385   1.333   0.864  1.1623  0.3262 -0.1792
20116SOL    HW172072  10.457   1.305   0.808 -0.6891  0.2606 -2.6835
20116SOL    HW272073  10.313   1.354   0.803 -1.8275 -2.0059  2.1952
20117SOL     OW72074  10.060   9.974   6.982 -0.3388 -0.2582  0.0331
20117SOL    HW172075  10.126  10.017   6.928  1.0264 -2.7231 -0.4514
20117SOL    HW272076  10.090   9.987   7.072 -0.2732  0.3053 -0.0712
20118SOL     OW72077   7.210   9.614   0.629  0.5606  0.3958  0.0590
20118SOL    HW172078   7.175   9.613   0.540  1.1586  0.5878 -0.1804
20118SOL    HW272079   7.182   9.698   0.665 -0.2687  0.0313  0.2986
20119SOL     OW72080  11.404   2.570   2.438  0.2979  0.1643 -0.7270
20119SOL    HW172081  11.486   2.562   2.487 -0.3569 -0.8224  0.2565
20119SOL    HW272082  11.432   2.581   2.347  1.5464  1.6558 -0.2277
20120SOL     OW72083  11.921   3.720   7.903  0.2677  0.9292 -0.0775
20120SOL    HW172084  11.990   3.685   7.846  0.8936  1.1900  0.4969
20120SOL    HW272085  11.945   3.812   7.915 -0.0575  0.9639  0.3204
20121SOL     OW72086   8.460   2.110   8.610 -0.5352 -0.3970  0.3154
20121SOL    HW172087   8.512   2.040   8.570  0.3571  0.8808 -0.8199
20121SOL    HW272088   8.397   2.135   8.541 -0.8223 -0.0527  0.6982
20122SOL     OW72089   7.678   2.232  11.062 -0.5990 -0.4128 -0.1504
20122SOL    HW172090   7.724   2.313  11.042 -0.5191 -0.4196  0.0062
20122SOL    HW272091   7.725   2.195  11.137 -1.4999  0.1186  0.6960
20123SOL     OW72092  10.233  11.392   4.100 -0.3366  0.2003 -0.2596
20123SOL    HW172093  10.207  11.426   4.186 -1.3877 -3.1020  0.9246
20123SOL    HW272094  10.318  11.349   4.117 -0.4991 -0.3818 -0.8767
20124SOL     OW72095  10.770   2.218   8.703 -0.9377  0.0617  0.0520
20124SOL    HW172096  10.812   2.158   8.765 -0.8669  0.2527  0.1909
20124SOL    HW272097  10.751   2.164   8.627  0.1796  0.1108 -0.2848
20125SOL     OW72098   4.377   9.816   4.056  0.4799  0.2298  0.0052
20125SOL    HW172099   4.330   9.863   3.987  1.2271  1.0500  0.0340
20125SOL    HW272100   4.334   9.731   4.060 -0.1634  0.4948 -0.8465
20126SOL     OW72101  10.798   8.935   2.105  0.0933 -0.1794  0.2286
20126SOL    HW172102  10.778   8.991   2.181 -1.6031  1.4466 -1.3110
20126SOL    HW272103  10.777   8.847   2.135 -1.0959  0.4933  1.5092
20127SOL     OW72104   3.348   1.488  11.776  0.2325  0.1963 -0.3776
20127SOL    HW172105   3.419   1.519  11.719  0.2684  1.9154  0.5126
20127SOL    HW272106   3.391   1.464  11.857 -0.0383 -0.3264 -0.3826
20128SOL     OW72107   2.331   3.290   6.468  0.1584  0.3995  0.0134
20128SOL    HW172108   2.264   3.352   6.498 -1.1106 -0.2716 -1.3279
20128SOL    HW272109   2.284   3.230   6.410  1.2531 -2.0754  1.5148
20129SOL     OW72110   3.339   9.120   4.788  0.6978  0.0684  0.1185
20129SOL    HW172111   3.277   9.059   4.830  0.0271 -0.7094 -1.8801
20129SOL    HW272112   3.401   9.142   4.857 -0.9733 -0.2574  1.8101
20130SOL     OW72113   1.907   1.390   1.886  0.6532 -0.6306 -0.3583
20130SOL    HW172114   1.817   1.420   1.884  0.4289 -0.5834  3.4859
20130SOL    HW272115   1.903   1.299   1.855 -0.6300 -0.4934 -0.6335
20131SOL     OW72116   4.889  11.609   8.928  0.2813 -0.0118  0.2318
20131SOL    HW172117   4.903  11.599   8.834 -0.6694 -0.1076  0.0885
20131SOL    HW272118   4.839  11.531   8.954  1.0457 -0.2925  0.9413
20132SOL     OW72119   2.111   5.246   3.098 -0.0572 -0.1198 -0.0075
20132SOL    HW172120   2.183   5.187   3.075  0.4506  0.8914 -1.1600
20132SOL    HW272121   2.118   5.257   3.193 -1.5190 -3.5828  0.6613
20133SOL     OW72122   0.631   1.003   6.019 -0.3131 -0.3010 -0.0214
20133SOL    HW172123   0.601   1.038   5.935  3.4612  1.1491 -0.9912
20133SOL    HW272124   0.710   0.953   5.997  0.8462  0.1803  2.6290
20134SOL     OW72125   1.340   4.997   1.135 -0.1306 -0.3241  0.3395
20134SOL    HW172126   1.308   5.008   1.224  0.0179  1.1280  0.2412
20134SOL    HW272127   1.394   4.918   1.138 -0.8897 -0.8325  1.2997
20135SOL     OW72128   9.378   7.719  10.989  0.3861 -0.4945  0.9061
20135SOL    HW172129   9.460   7.694  11.031 -0.5054 -1.7842  1.9616
20135SOL    HW272130   9.384   7.682  10.901  0.5456 -1.3769  1.2866
20136SOL     OW72131   1.456  10.761   6.730  0.2593 -0.2167 -0.0200
20136SOL    HW172132   1.454  10.673   6.767  0.3193  0.3924  1.4677
20136SOL    HW272133   1.416  10.751   6.643 -0.5928 -1.5338  0.5037
20137SOL     OW72134   7.801   5.851   5.827 -0.0155 -0.1548 -0.1522
20137SOL    HW172135   7.749   5.928   5.806 -0.6442 -0.7482 -0.8557
20137SOL    HW272136   7.751   5.778   5.791  1.1339 -0.7791 -0.5420
20138SOL     OW72137   9.548   3.382   0.809  0.4734 -0.3086  0.2483
20138SOL    HW172138   9.463   3.408   0.773  0.8226 -0.2506 -0.5599
20138SOL    HW272139   9.601   3.362   0.732  0.4844 -2.6442  0.7851
20139SOL     OW72140   8.492   3.449   4.465  0.2812 -0.1180 -0.0069
20139SOL    HW172141   8.500   3.377   4.528 -0.8538  0.5706  0.9616
20139SOL    HW272142   8.419   3.423   4.409 -0.0144  0.1879  0.2332
20140SOL     OW72143   5.090   5.324   9.749  0.5218  0.1404 -0.0348
20140SOL    HW172144   5.023   5.391   9.764  0.4122  0.6257 -2.2762
20140SOL    HW272145   5.172   5.366   9.774  0.2557  0.4905  0.2578
20141SOL     OW72146   3.364   3.416   6.374 -0.2645  0.4491  0.0851
20141SOL    HW172147   3.431   3.348   6.383  0.4879  1.3935  2.2469
20141SOL    HW272148   3.412   3.492   6.340 -0.4139  0.8369  0.7221
20142SOL     OW72149   4.693   0.718  11.030 -0.0391  0.4417 -0.3062
20142SOL    HW172150   4.733   0.740  11.114 -1.3222  1.7187  0.0112
20142SOL    HW272151   4.744   0.768  10.965  0.0337  0.6116 -0.1193
20143SOL     OW72152   9.893   2.013   6.713  0.1337  0.5945 -0.5953
20143SOL    HW172153   9.850   1.928   6.724  0.6322  0.3922 -0.1014
20143SOL    HW272154   9.941   2.026   6.795  0.6039  1.0401 -0.9333
20144SOL     OW72155   8.819  10.405   8.915 -0.7433  0.2109  0.0558
20144SOL    HW172156   8.900  10.400   8.864  0.8230 -0.6668  2.4705
20144SOL    HW272157   8.772  10.324   8.894 -0.9756  0.6512 -1.2316
20145SOL     OW72158   4.551   7.002   3.794 -0.3697 -0.1768 -0.1695
20145SOL    HW172159   4.603   7.053   3.732  1.4993 -1.6610  0.1064
20145SOL    HW272160   4.524   7.066   3.861  1.5413  0.5709 -0.0561
20146SOL     OW72161   5.686   1.907  11.458  0.2031 -0.1840 -0.4166
20146SOL    HW172162   5.614   1.867  11.506 -1.5519  1.0674 -1.8541
20146SOL    HW272163   5.758   1.911  11.521 -1.6014  0.3385  1.7376
20147SOL     OW72164   9.667   3.357   0.580  0.1512 -0.4826 -0.0246
20147SOL    HW172165   9.733   3.373   0.648 -1.5270  4.0068  0.9020
20147SOL    HW272166   9.683   3.426   0.516 -1.5865 -1.3778 -1.4859
20148SOL     OW72167   1.214   2.152   0.098  0.0735  0.2773  0.7722
20148SOL    HW172168   1.169   2.088   0.152 -0.1657  1.1841  1.6678
20148SOL    HW272169   1.144   2.201   0.055  0.2392  0.3859  0.6221
20149SOL     OW72170  11.540   5.283   6.107 -0.1654 -0.2299  0.0061
20149SOL    HW172171  11.603   5.307   6.039 -0.2705  0.6092  0.1916
20149SOL    HW272172  11.504   5.367   6.137  0.9523 -0.4236  2.1280
20150SOL     OW72173   4.757  11.314   0.540 -0.1160 -0.0265  0.2025
20150SOL    HW172174   4.739  11.407   0.548 -0.7380 -0.1526  0.3270
20150SOL    HW272175   4.788  11.302   0.450  0.3110  0.3492  0.2953
20151SOL     OW72176   5.782   5.438   1.108  0.9001 -0.3372 -0.0518
20151SOL    HW172177   5.770   5.458   1.015  2.9524  1.4939  0.0162
20151SOL    HW272178   5.728   5.503   1.153 -1.3486 -2.1905  0.1074
20152SOL     OW72179  10.242   6.808   4.866 -0.1723  0.4260  0.0753
20152SOL    HW172180  10.165   6.776   4.913  0.0726 -1.1244 -0.5091
20152SOL    HW272181  10.207   6.872   4.804 -0.8710  0.3237  0.3504
20153SOL     OW72182   1.269   1.652  11.822  0.0151 -0.1111  0.5774
20153SOL    HW172183   1.207   1.595  11.869  0.1135  0.4934  1.4656
20153SOL    HW272184   1.218   1.730  11.801 -0.3787 -0.8635 -1.4593
20154SOL     OW72185   9.972   2.382  10.688 -0.4016 -0.3116 -0.0245
20154SOL    HW172186  10.065   2.403  10.686 -0.0161 -1.8723 -0.0688
20154SOL    HW272187   9.936   2.423  10.609  0.5592 -0.9570 -0.8237
20155SOL     OW72188   4.517  10.271   0.409 -0.9125 -0.5017  0.0162
20155SOL    HW172189   4.542  10.188   0.449  0.5157  0.1778  0.6034
20155SOL    HW272190   4.591  10.329   0.426 -0.9267  0.2732 -2.2896
20156SOL     OW72191   7.975   6.788   7.678 -0.0416 -0.5611 -0.4200
20156SOL    HW172192   7.940   6.864   7.631  0.2860  0.6422  1.1542
20156SOL    HW272193   8.069   6.805   7.684 -0.1690 -0.2177  1.3186
20157SOL     OW72194   5.133   4.443   1.921 -0.4180 -0.1351 -0.4824
20157SOL    HW172195   5.184   4.521   1.946 -0.1690  0.3470 -2.3476
20157SOL    HW272196   5.157   4.377   1.987 -0.0260  1.1081  0.6724
20158SOL     OW72197   3.267   7.366   4.768 -0.2427 -0.4104  0.0474
20158SOL    HW172198   3.200   7.385   4.834 -0.0860 -2.0792  0.7505
20158SOL    HW272199   3.307   7.450   4.750 -2.5016  0.6465 -0.3905
20159SOL     OW72200   0.744  10.082   7.813 -0.1897 -0.1078  0.2430
20159SOL    HW172201   0.733  10.040   7.898 -1.6347  0.8134  0.5541
20159SOL    HW272202   0.820  10.039   7.775 -0.4252 -1.6100  1.3472
20160SOL     OW72203   0.331   8.078  10.443  0.0264 -0.7936  0.2925
20160SOL    HW172204   0.354   8.096  10.534 -0.8932 -0.4495  0.4735
20160SOL    HW272205   0.273   8.002  10.448  0.0424 -0.8261 -0.0124
20161SOL     OW72206   8.359   5.747   4.130  0.2999  0.4238  0.0955
20161SOL    HW172207   8.298   5.780   4.065  1.3264  0.6547 -0.7847
20161SOL    HW272208   8.309   5.745   4.212 -0.6159  1.4409 -0.4199
20162SOL     OW72209   8.742  10.944   8.749  0.3560  0.0266  0.0757
20162SOL    HW172210   8.747  11.030   8.791  1.4854  0.3497 -0.6617
20162SOL    HW272211   8.707  10.886   8.817 -0.9133  1.1497  0.4316
20163SOL     OW72212   9.019   3.780   5.947  0.0888 -0.6301  0.4295
20163SOL    HW172213   9.094   3.838   5.962 -0.3675  0.2942 -0.6680
20163SOL    HW272214   9.047   3.724   5.874  0.4251 -1.6369  1.3088
20164SOL     OW72215  11.132   8.880   6.744  0.8449 -0.6169 -0.3288
20164SOL    HW172216  11.072   8.809   6.723 -1.1246  1.4907 -2.4353
20164SOL    HW272217  11.188   8.845   6.814 -0.6861 -3.7974 -0.5352
20165SOL     OW72218   7.275  11.143   1.922  0.6029 -0.5129 -0.4966
20165SOL    HW172219   7.207  11.137   1.855  0.0240 -0.8089  0.1095
20165SOL    HW272220   7.248  11.216   1.978  1.2951 -0.0060 -0.8092
20166SOL     OW72221   0.769   3.553   8.735  0.0970  0.5349 -0.0944
20166SOL    HW172222   0.733   3.465   8.728 -0.0403  0.5847 -0.0029
20166SOL    HW272223   0.716   3.606   8.675 -0.2982  0.7090  0.4045
20167SOL     OW72224   0.101   2.808   4.500  0.1378  0.1346 -0.9215
20167SOL    HW172225   0.022   2.784   4.451 -0.6482  0.5696  0.0668
20167SOL    HW272226   0.067   2.846   4.582  1.3832  0.0813 -0.3547
20168SOL     OW72227   0.506   4.613  11.350 -0.3496  0.1942  0.5255
20168SOL    HW172228   0.598   4.636  11.360 -0.4059 -0.1019  1.9564
20168SOL    HW272229   0.474   4.604  11.440 -1.8016  0.3952  0.0530
20169SOL     OW72230   3.231   1.165   1.899  0.3248 -0.4128 -0.2104
20169SOL    HW172231   3.198   1.244   1.855  0.7015  0.2737  0.6907
20169SOL    HW272232   3.153   1.127   1.940  0.5145  0.9991  1.6009
20170SOL     OW72233   9.158   5.014   8.718 -0.1991  0.4888  0.4612
20170SOL    HW172234   9.200   4.950   8.775  0.3444  0.2455 -0.2020
20170SOL    HW272235   9.067   4.984   8.710 -0.2377  0.4435  1.0736
20171SOL     OW72236   7.078   1.469   6.648  0.6203  0.1229  0.5257
20171SOL    HW172237   7.073   1.373   6.656  1.5242  0.1915  2.3091
20171SOL    HW272238   7.171   1.489   6.650  0.7873  0.8420 -4.0101
20172SOL     OW72239  11.506  10.182   6.465  0.3268  0.1617 -0.4075
20172SOL    HW172240  11.459  10.159   6.386  0.6179 -0.0198 -0.5298
20172SOL    HW272241  11.588  10.133   6.460 -0.3223 -1.1220  0.7778
20173SOL     OW72242   3.006   0.286   2.579 -0.3216 -0.3241 -0.0143
20173SOL    HW172243   2.938   0.240   2.628 -0.3700 -0.4139 -0.1650
20173SOL    HW272244   3.071   0.219   2.559  0.2482 -0.0573  0.8989
20174SOL     OW72245   4.941   9.041   2.838  0.3537  0.5325 -0.6055
20174SOL    HW172246   4.906   9.117   2.884  1.7934  0.2820  1.0241
20174SOL    HW272247   4.905   8.966   2.886  0.6297  0.2300 -0.8669
20175SOL     OW72248   7.848  10.258  10.484 -0.1141 -0.1081  0.0713
20175SOL    HW172249   7.754  10.247  10.472  0.0137 -1.8080  0.3691
20175SOL    HW272250   7.857  10.306  10.566 -0.7077 -0.5616  0.4024
20176SOL     OW72251   5.293   7.207  11.172 -0.5299 -0.7762  0.0313
20176SOL    HW172252   5.246   7.210  11.256 -0.1442 -0.1820  0.2418
20176SOL    HW272253   5.234   7.164  11.112 -0.8198 -1.1983  0.6154
20177SOL     OW72254  10.535   9.256   9.536 -0.2282  0.2341  0.0549
20177SOL    HW172255  10.620   9.241   9.577 -0.7516 -1.0819  0.7261
20177SOL    HW272256  10.525   9.185   9.473 -0.2766  1.1334 -0.9632
20178SOL     OW72257   9.005   0.686  11.121 -0.1796 -0.5982 -0.0948
20178SOL    HW172258   9.005   0.662  11.213  0.7977  2.5492  0.8495
20178SOL    HW272259   8.919   0.658  11.089 -1.4583  0.2228  2.3924
20179SOL     OW72260   0.468  11.234  11.145  0.3455 -0.7068 -0.0057
20179SOL    HW172261   0.503  11.257  11.230  0.5494  1.4276 -0.6240
20179SOL    HW272262   0.438  11.143  11.155  1.9790 -1.1004  1.7864
20180SOL     OW72263   7.873   1.060   1.246  0.3195  0.1562  0.4041
20180SOL    HW172264   7.799   1.022   1.200  0.7117 -2.5383  1.7719
20180SOL    HW272265   7.923   1.105   1.179 -2.3240  1.8124 -0.6027
20181SOL     OW72266   7.734   9.792   6.961 -0.3519  0.4613 -0.1659
20181SOL    HW172267   7.705   9.860   6.900  0.8682  0.9086 -0.2754
20181SOL    HW272268   7.745   9.714   6.906  0.0936  0.6869 -0.4050
20182SOL     OW72269   0.514   4.539   1.660 -0.0999 -0.3199  0.0605
20182SOL    HW172270   0.539   4.513   1.571  0.1441  0.2270 -0.0367
20182SOL    HW272271   0.488   4.631   1.652 -0.6653 -0.4391  0.4469
20183SOL     OW72272   8.660   3.698   1.320  0.5864 -0.0926  0.4324
20183SOL    HW172273   8.620   3.655   1.244  0.6610 -0.7321  0.7489
20183SOL    HW272274   8.739   3.739   1.285  1.5332 -1.7964  0.4474
20184SOL     OW72275   5.567   3.612   7.773 -0.6486 -0.0396  0.3716
20184SOL    HW172276   5.592   3.523   7.798 -1.1090  0.1414  1.5407
20184SOL    HW272277   5.647   3.663   7.783 -0.9948  0.1976  2.4145
20185SOL     OW72278   1.107   0.865   1.605 -0.1435  0.5479  0.3739
20185SOL    HW172279   1.071   0.796   1.550 -0.7250 -0.0080  1.4019
20185SOL    HW272280   1.181   0.899   1.556  0.7538 -1.4649  0.2353
20186SOL     OW72281   0.040  10.163   8.898 -0.2285 -0.0406 -0.1715
20186SOL    HW172282   0.030  10.167   8.993  1.7051 -1.0004  0.1062
20186SOL    HW272283   0.007  10.077   8.874 -0.8628  0.2603 -0.4215
20187SOL     OW72284  11.779   6.132  10.301 -0.8892 -0.3468  0.6445
20187SOL    HW172285  11.765   6.066  10.369 -4.4837 -1.0594 -0.5386
20187SOL    HW272286  11.712   6.198  10.319  1.0263  1.7885  0.3275
20188SOL     OW72287   3.713   2.751   9.024  0.5279  0.0637  0.3350
20188SOL    HW172288   3.773   2.678   9.009  0.5384 -0.1544  1.3662
20188SOL    HW272289   3.691   2.745   9.117 -2.4988 -0.9659 -0.3093
20189SOL     OW72290   4.867   9.352   9.118 -0.5690 -0.8015 -0.5135
20189SOL    HW172291   4.774   9.337   9.132 -0.6437 -0.1241 -0.2514
20189SOL    HW272292   4.880   9.444   9.140  0.2710 -1.0363  0.0205
20190SOL     OW72293   6.255   0.752   7.363 -0.6726  0.3681  0.0025
20190SOL    HW172294   6.246   0.776   7.271  2.0723  1.7155 -0.0089
20190SOL    HW272295   6.168   0.766   7.400 -1.6495  0.5614 -2.1950
20191SOL     OW72296   9.692   4.289   5.205 -0.4417  0.0243 -0.4205
20191SOL    HW172297   9.609   4.322   5.169 -0.6505  1.4625  1.2229
20191SOL    HW272298   9.704   4.204   5.163 -2.3866  0.0947 -1.2517
20192SOL     OW72299   5.568  11.516   8.100  0.8290 -0.0860  0.4773
20192SOL    HW172300   5.505  11.447   8.080 -0.1128  0.8940 -0.0462
20192SOL    HW272301   5.629  11.476   8.160  0.8862 -1.6752 -0.5914
20193SOL     OW72302   8.113   4.609   5.231 -0.3865 -0.6189 -0.2262
20193SOL    HW172303   8.041   4.549   5.248 -0.0277 -1.4258 -1.4370
20193SOL    HW272304   8.086   4.691   5.273 -1.8538 -0.9994 -0.3680
20194SOL     OW72305   9.010   9.009  11.381 -0.0001  0.5928 -0.3534
20194SOL    HW172306   9.040   8.935  11.434 -0.9848  0.3157 -0.1627
20194SOL    HW272307   9.090   9.058  11.362  0.7863 -0.8575 -1.0151
20195SOL     OW72308   2.171   6.895  11.910  0.7144  0.6668 -0.0070
20195SOL    HW172309   2.128   6.955  11.850 -0.1233  1.5022  1.3720
20195SOL    HW272310   2.222   6.952  11.969 -0.6204  0.1395  1.7403
20196SOL     OW72311   8.788   3.811   7.631 -0.2137 -0.6378  0.2203
20196SOL    HW172312   8.853   3.802   7.561 -1.1380 -1.4570 -0.5570
20196SOL    HW272313   8.812   3.893   7.675 -1.3838  1.6739 -2.9957
20197SOL     OW72314   5.313  10.443   9.508 -0.1463  0.5363  0.5099
20197SOL    HW172315   5.391  10.395   9.480 -0.3499  0.6650 -0.3242
20197SOL    HW272316   5.303  10.422   9.600 -1.3049 -2.6003 -0.2050
20198SOL     OW72317   2.921   1.886   9.901  0.3089  0.7681 -0.5048
20198SOL    HW172318   2.860   1.957   9.919  0.2229  0.4156  0.6518
20198SOL    HW272319   2.974   1.878   9.980  0.9550  0.1728 -0.9805
20199SOL     OW72320   2.216   0.718   0.266  0.4694 -0.4669  0.3256
20199SOL    HW172321   2.310   0.709   0.277  0.7746  1.2823 -0.4350
20199SOL    HW272322   2.178   0.644   0.314  2.1863 -0.8240  1.1990
20200SOL     OW72323   8.903   9.717   8.042  0.3333 -0.5250 -0.3243
20200SOL    HW172324   8.991   9.751   8.060  0.0552  0.8994 -1.4240
20200SOL    HW272325   8.912   9.622   8.048  1.5343 -0.3534  1.3091
20201SOL     OW72326   2.574   9.454   1.783 -0.3486  0.3971 -0.6439
20201SOL    HW172327   2.533   9.532   1.819 -1.8167 -0.9431  0.7548
20201SOL    HW272328   2.581   9.472   1.689 -2.8662  1.3037 -0.7373
20202SOL     OW72329   3.635  10.127   8.838 -0.5677  0.3074  0.1655
20202SOL    HW172330   3.621  10.220   8.822  1.6274  0.7436  0.4310
20202SOL    HW272331   3.624  10.085   8.753  3.3836  1.5679 -1.2197
20203SOL     OW72332   2.342  11.410   6.250  0.4041  0.4537  0.3669
20203SOL    HW172333   2.282  11.472   6.291 -1.6492 -0.6759 -0.7783
20203SOL    HW272334   2.352  11.441   6.160  1.9706  0.8776  0.6463
20204SOL     OW72335   4.564   7.669   7.359  0.4329  0.1560 -0.2542
20204SOL    HW172336   4.626   7.596   7.371  1.2894  0.8165 -0.5615
20204SOL    HW272337   4.481   7.626   7.340  0.8308 -0.7556 -0.0134
20205SOL     OW72338   1.168  10.459  11.044  0.1591 -0.5533  0.2429
20205SOL    HW172339   1.220  10.437  11.121 -0.4710  0.5360  1.0136
20205SOL    HW272340   1.217  10.529  11.001 -1.2393  1.4863  1.7430
20206SOL     OW72341   0.802  11.685   7.219 -0.3345 -0.5482  0.6672
20206SOL    HW172342   0.896  11.673   7.203  0.0031  0.9470  1.3552
20206SOL    HW272343   0.760  11.651   7.140  0.9857  1.8804 -1.2107
20207SOL     OW72344   7.842   5.958  10.514  0.5333  0.0602  0.6158
20207SOL    HW172345   7.913   5.904  10.548  0.8558 -0.5401 -0.9209
20207SOL    HW272346   7.882   6.044  10.499  1.0353 -0.3291 -0.4360
20208SOL     OW72347   9.489   2.760   6.495  0.2443 -0.0627  0.6153
20208SOL    HW172348   9.461   2.852   6.497 -0.5328 -0.2169 -1.0958
20208SOL    HW272349   9.427   2.715   6.552 -0.6975  0.1727 -0.2032
20209SOL     OW72350   8.612   4.276   4.020 -0.1031  0.2017  0.0359
20209SOL    HW172351   8.598   4.309   3.931 -0.6265  0.7513  0.3180
20209SOL    HW272352   8.548   4.323   4.073  0.7686  0.5049  0.8507
20210SOL     OW72353   0.775   9.679   6.203  0.5567 -0.4591 -0.1949
20210SOL    HW172354   0.761   9.773   6.190  0.1076 -0.8144 -2.6340
20210SOL    HW272355   0.853   9.660   6.152  1.6137 -1.1747  1.5940
20211SOL     OW72356   4.280   5.177   3.667 -0.0407 -0.8330  0.1279
20211SOL    HW172357   4.226   5.256   3.664  0.1218 -0.7289 -0.1845
20211SOL    HW272358   4.347   5.196   3.733  0.0215 -0.6927  0.0260
20212SOL     OW72359  11.473  10.070   9.496  0.5669  0.2052 -0.0554
20212SOL    HW172360  11.399  10.065   9.556 -0.0489 -1.8305 -0.9117
20212SOL    HW272361  11.491   9.979   9.471  1.3256  0.8973 -2.3043
20213SOL     OW72362   5.249   0.901   7.605  0.1748  0.3730 -0.3858
20213SOL    HW172363   5.192   0.935   7.537 -1.0603  0.0702  0.4651
20213SOL    HW272364   5.296   0.978   7.638  0.6756  0.5360 -1.4533
20214SOL     OW72365   0.768   1.426   0.291  0.1133  0.0625  0.1772
20214SOL    HW172366   0.791   1.373   0.215 -0.6853  0.8583 -0.6414
20214SOL    HW272367   0.761   1.363   0.363 -1.5320 -1.0663 -0.9037
20215SOL     OW72368   8.468   1.121   4.606  0.2103 -0.1435 -0.2963
20215SOL    HW172369   8.524   1.047   4.628  4.5830  2.0572 -2.6271
20215SOL    HW272370   8.513   1.197   4.642 -3.2309  1.6611  0.6509
20216SOL     OW72371  10.115   1.150   0.411 -0.4492 -0.3085  0.0915
20216SOL    HW172372  10.099   1.058   0.432  0.8197 -0.3296  1.0700
20216SOL    HW272373  10.127   1.192   0.496  1.5636  0.2530 -0.4324
20217SOL     OW72374   1.072   6.574   4.814  0.0124 -0.0992  0.0633
20217SOL    HW172375   1.015   6.595   4.740  1.2780  2.7305 -0.2431
20217SOL    HW272376   1.033   6.619   4.889  1.4091  1.3956 -0.0353
20218SOL     OW72377   5.653   9.711  10.129 -0.0102  0.1526  0.4212
20218SOL    HW172378   5.727   9.681  10.183 -0.1169  2.0663  1.7139
20218SOL    HW272379   5.594   9.753  10.191 -0.0510  2.6641 -1.2017
20219SOL     OW72380   2.231  10.385   6.150 -0.2673  0.3495 -0.5679
20219SOL    HW172381   2.275  10.445   6.090 -0.7640 -0.1737 -1.4908
20219SOL    HW272382   2.249  10.419   6.237  1.3584  0.5464 -0.9504
20220SOL     OW72383   2.949   3.007   1.636 -0.0310 -0.3759  0.6613
20220SOL    HW172384   2.918   2.918   1.617  0.1494 -0.5727  1.2502
20220SOL    HW272385   2.885   3.041   1.699  1.1807 -0.9731  2.2971
20221SOL     OW72386   3.096   5.954   3.407 -0.3137  0.2362  0.3139
20221SOL    HW172387   3.113   6.008   3.330 -0.1175  0.6516  0.6502
20221SOL    HW272388   3.058   6.014   3.471 -0.3985 -0.0925  0.5760
20222SOL     OW72389  10.426   1.396   1.749  0.2154  0.2101  0.7232
20222SOL    HW172390  10.331   1.402   1.738  0.1612 -1.3998  0.0299
20222SOL    HW272391  10.440   1.313   1.795  1.3956 -1.1756 -1.8805
20223SOL     OW72392  10.193  10.309   6.277 -0.6776  0.1953  0.1321
20223SOL    HW172393  10.235  10.352   6.352  0.9762 -0.5488 -0.3146
20223SOL    HW272394  10.217  10.217   6.285 -2.6957 -0.3695  0.1045
20224SOL     OW72395   3.415   2.535   6.177 -0.1731  0.9668  0.0507
20224SOL    HW172396   3.490   2.531   6.117  0.7392  1.6970  1.0807
20224SOL    HW272397   3.351   2.590   6.132 -1.2965 -1.8076 -2.0354
20225SOL     OW72398   0.874   3.631   2.716 -0.0629  0.3466 -0.2479
20225SOL    HW172399   0.963   3.657   2.691  0.2643 -0.1238  0.4033
20225SOL    HW272400   0.818   3.675   2.653  0.6241  0.7869 -0.5644
20226SOL     OW72401   9.765   6.569   7.590 -0.5547  0.4520 -0.4278
20226SOL    HW172402   9.735   6.585   7.680 -0.7454 -0.6324 -0.2829
20226SOL    HW272403   9.790   6.655   7.557 -0.6356  0.8866  0.6142
20227SOL     OW72404  11.063   5.007   9.039  0.0276  0.6481  0.0453
20227SOL    HW172405  10.992   4.945   9.027  0.4022  0.0749  0.7237
20227SOL    HW272406  11.065   5.023   9.134  0.3784  1.1602 -0.0458
20228SOL     OW72407  10.251  11.233   3.287  0.5098 -0.5467 -0.1000
20228SOL    HW172408  10.297  11.287   3.351 -0.8585  0.2643  0.2191
20228SOL    HW272409  10.239  11.290   3.212 -0.7177 -0.4747  0.1427
20229SOL     OW72410   1.545   9.809   8.600  0.1564  0.4408 -0.4555
20229SOL    HW172411   1.501   9.863   8.665  0.0265 -0.3187  0.0923
20229SOL    HW272412   1.629   9.854   8.585  0.1473  0.6702  0.1622
20230SOL     OW72413   5.971   6.290  10.294 -0.0728 -0.4301  0.0039
20230SOL    HW172414   6.012   6.205  10.275  0.4096 -0.5598  1.4993
20230SOL    HW272415   5.877   6.272  10.295  0.0167 -0.8986  0.0864
20231SOL     OW72416   0.647   8.466   4.380 -0.0821  0.0350  0.1689
20231SOL    HW172417   0.594   8.538   4.415  0.1622  0.0136  0.5862
20231SOL    HW272418   0.612   8.388   4.422 -0.4412 -0.1092 -0.3926
20232SOL     OW72419   5.098   7.320   4.943 -0.0719 -0.1675  0.8118
20232SOL    HW172420   5.037   7.258   4.902  1.7062 -0.9694 -0.7669
20232SOL    HW272421   5.128   7.375   4.870  2.3853 -0.9284  1.1810
20233SOL     OW72422   0.437  10.197   9.553 -0.5022  0.3425 -0.4984
20233SOL    HW172423   0.360  10.253   9.567 -0.3867  0.2972  0.4020
20233SOL    HW272424   0.501  10.254   9.510 -0.6330  0.7055 -0.2182
20234SOL     OW72425   8.772  10.677  11.333 -0.3416 -0.0196  0.0190
20234SOL    HW172426   8.717  10.723  11.395 -0.4368  1.0311 -0.8245
20234SOL    HW272427   8.726  10.594  11.316 -0.9790  0.2676  0.3366
20235SOL     OW72428   4.453  10.507   6.876 -0.3421 -0.0974  0.4038
20235SOL    HW172429   4.487  10.432   6.827 -1.5630 -2.0191  2.3287
20235SOL    HW272430   4.407  10.559   6.810 -0.1252 -1.4482 -0.8658
20236SOL     OW72431   2.901   3.685   0.210  0.1666  0.0280  0.5617
20236SOL    HW172432   2.854   3.664   0.290 -0.1982  0.6034  0.5067
20236SOL    HW272433   2.988   3.712   0.240 -0.1006  0.6480  0.8048
20237SOL     OW72434  11.771   5.369   7.037  0.4735  0.6225  0.3702
20237SOL    HW172435  11.724   5.452   7.027 -1.1782 -0.3175  0.0251
20237SOL    HW272436  11.769   5.329   6.950 -0.8519 -0.8309  1.0130
20238SOL     OW72437   1.049   0.633   8.070  0.2299  0.3970 -0.0996
20238SOL    HW172438   1.002   0.561   8.112  0.8716 -0.0759 -0.1761
20238SOL    HW272439   1.041   0.615   7.976 -2.4495  2.2324 -0.3180
20239SOL     OW72440   4.128  10.913   8.982  0.1193  0.2013  0.2843
20239SOL    HW172441   4.114  10.900   8.888  0.5691  0.0884  0.2329
20239SOL    HW272442   4.222  10.929   8.990  0.6713 -2.8918  1.0698
20240SOL     OW72443   6.459  10.229   0.712  0.3955 -0.0281 -0.0958
20240SOL    HW172444   6.509  10.254   0.790 -1.2873  0.3009  0.9340
20240SOL    HW272445   6.372  10.266   0.727 -0.5981 -1.8115 -1.1037
20241SOL     OW72446   4.174   3.063   3.341 -0.4629 -0.0855  0.4442
20241SOL    HW172447   4.234   3.136   3.356  0.0587 -0.3185 -0.4658
20241SOL    HW272448   4.089   3.105   3.326 -0.5240  0.2476  1.6123
20242SOL     OW72449   6.825   8.468   6.735  0.2613  0.0036  0.2092
20242SOL    HW172450   6.742   8.450   6.691  0.3988 -0.6672  0.2126
20242SOL    HW272451   6.892   8.446   6.671  0.4821 -1.6844  0.9479
20243SOL     OW72452   5.275  11.004   7.448  0.9105 -0.3235 -0.5094
20243SOL    HW172453   5.234  10.962   7.371  0.7988  0.1030 -0.6881
20243SOL    HW272454   5.288  10.932   7.510 -0.8585 -0.3639 -0.1231
20244SOL     OW72455   9.688   3.730  10.963  0.1887  0.0282  0.3542
20244SOL    HW172456   9.643   3.653  10.996  1.0390 -0.7446 -0.2542
20244SOL    HW272457   9.619   3.796  10.954 -0.8727 -1.1819 -0.7388
20245SOL     OW72458   1.404   3.959   5.148 -0.3857 -0.6529 -0.0188
20245SOL    HW172459   1.406   3.923   5.060 -0.0355 -2.0999  0.5547
20245SOL    HW272460   1.325   3.923   5.187 -1.1944  0.9517 -0.1101
20246SOL     OW72461   8.092   6.890   8.175  0.4382 -0.0258  0.5900
20246SOL    HW172462   8.154   6.940   8.228  0.7515 -0.1034  0.2960
20246SOL    HW272463   8.100   6.800   8.207  0.5743 -0.0595  0.4608
20247SOL     OW72464   6.458   5.678   0.414 -0.0515 -0.3330  0.0539
20247SOL    HW172465   6.411   5.657   0.333  1.3941 -0.1146 -0.8642
20247SOL    HW272466   6.439   5.770   0.430 -0.0384 -0.2802 -0.2354
20248SOL     OW72467   4.215   2.862  11.237  0.4356 -0.1666  0.8873
20248SOL    HW172468   4.187   2.830  11.151 -0.7109  0.7033  0.9122
20248SOL    HW272469   4.281   2.928  11.219  0.1870  0.0234  0.6698
20249SOL     OW72470   1.505   2.031  10.780 -0.3752  0.0736  0.7309
20249SOL    HW172471   1.581   2.019  10.836 -0.0556  0.9394  0.4928
20249SOL    HW272472   1.436   2.062  10.839 -0.0034  1.1080  0.6490
20250SOL     OW72473   1.304   3.573   0.385 -0.4083  0.4797  0.5940
20250SOL    HW172474   1.235   3.519   0.424 -0.6539 -0.1497 -0.6712
20250SOL    HW272475   1.266   3.661   0.380 -1.9675 -0.2331 -1.9620
20251SOL     OW72476   1.066   1.495   4.884  0.0096 -0.6293 -0.9522
20251SOL    HW172477   1.023   1.473   4.967  1.2603  1.1222  0.2382
20251SOL    HW272478   1.142   1.437   4.881 -0.0617 -0.7265 -0.9186
20252SOL     OW72479   6.666   7.287   0.250  0.1193 -0.2793  0.3755
20252SOL    HW172480   6.700   7.224   0.187 -0.0889  0.7847 -0.8425
20252SOL    HW272481   6.573   7.293   0.230 -1.0024 -3.1475  3.6516
20253SOL     OW72482   2.079   4.176   4.062  0.0990  0.6739  0.1267
20253SOL    HW172483   2.105   4.267   4.051 -0.8377  1.1292  1.3252
20253SOL    HW272484   2.161   4.128   4.074  0.8415  0.8101 -3.5302
20254SOL     OW72485   8.197   1.088   1.282  0.0025  0.2409 -0.0703
20254SOL    HW172486   8.155   1.139   1.213  1.1340  0.3519 -0.6963
20254SOL    HW272487   8.186   0.997   1.254  0.0684  0.2622 -0.1643
20255SOL     OW72488   7.762  11.123   1.356 -0.4629  0.2400 -0.0860
20255SOL    HW172489   7.761  11.029   1.336 -1.7120  0.3273 -0.4864
20255SOL    HW272490   7.714  11.163   1.284 -1.1705  1.0470  0.8182
20256SOL     OW72491   4.976   0.511  10.711 -0.9820  0.6886  1.0198
20256SOL    HW172492   4.895   0.481  10.669 -0.4059 -0.4639  0.6894
20256SOL    HW272493   5.006   0.583  10.656 -2.5409  2.1423  1.9868
20257SOL     OW72494   1.892   4.355  11.732 -0.9811  0.6277  0.0612
20257SOL    HW172495   1.809   4.308  11.737 -1.3020  1.1766 -0.0548
20257SOL    HW272496   1.945   4.305  11.670 -0.3120 -1.1217  1.9256
20258SOL     OW72497   9.734   9.654   5.853 -0.2043 -0.1672 -0.1871
20258SOL    HW172498   9.669   9.629   5.919  1.2297  1.8555  2.1887
20258SOL    HW272499   9.729   9.750   5.850  1.8181 -0.0339 -0.8125
20259SOL     OW72500   6.541   2.451   5.649 -0.2015 -0.1772  0.2440
20259SOL    HW172501   6.592   2.460   5.568 -0.5844 -1.8397 -0.2072
20259SOL    HW272502   6.604   2.417   5.713 -0.2683 -0.3450  0.2205
20260SOL     OW72503   9.619   5.274   3.776  0.0963 -0.7582  0.8536
20260SOL    HW172504   9.556   5.295   3.845  1.5755  2.4880  1.3681
20260SOL    HW272505   9.698   5.248   3.822  0.1452 -1.6857  0.2754
20261SOL     OW72506   7.273   8.617  11.719 -0.7404  0.6233 -0.2967
20261SOL    HW172507   7.247   8.692  11.773  0.4307 -0.3125  1.6866
20261SOL    HW272508   7.190   8.580  11.689 -1.5284  0.7366  1.5655
20262SOL     OW72509  11.354   3.314   5.697  0.7802 -0.2896  0.3919
20262SOL    HW172510  11.314   3.312   5.784 -1.0911 -0.0638 -0.4151
20262SOL    HW272511  11.355   3.222   5.669 -2.1166 -0.0907 -0.7749
20263SOL     OW72512   2.473   4.720   8.106 -0.1722  0.4498 -0.2910
20263SOL    HW172513   2.397   4.768   8.137  0.1644  1.0509 -0.3751
20263SOL    HW272514   2.527   4.707   8.184  1.0735  2.6898 -0.6808
20264SOL     OW72515   2.333   0.132   0.608  0.0516  0.4068  0.0992
20264SOL    HW172516   2.302   0.127   0.518 -0.1668  1.3459  0.1172
20264SOL    HW272517   2.322   0.224   0.633  0.0047  0.1415  1.1149
20265SOL     OW72518   5.031   9.524   1.789 -0.1138  1.0726  0.0787
20265SOL    HW172519   5.043   9.494   1.699 -1.3092 -1.1608  0.5907
20265SOL    HW272520   4.936   9.517   1.804  0.0752  1.3159  1.5509
20266SOL     OW72521   8.089   6.017  11.082  0.9362  0.7837 -0.8736
20266SOL    HW172522   8.089   5.934  11.130  0.1064  1.8341  1.0612
20266SOL    HW272523   8.023   6.006  11.013 -1.4513  0.7822  1.2633
20267SOL     OW72524   4.736   1.157   0.417 -0.0942 -0.0555  0.1328
20267SOL    HW172525   4.821   1.114   0.418 -0.8794 -1.6870 -0.1281
20267SOL    HW272526   4.707   1.155   0.508 -1.1516 -2.2903 -0.1951
20268SOL     OW72527   7.906  11.103   8.479 -0.2184 -0.0535  0.1701
20268SOL    HW172528   7.822  11.121   8.437  0.8691  1.7722 -1.4171
20268SOL    HW272529   7.967  11.092   8.406  1.1357 -0.2022  1.2830
20269SOL     OW72530   2.153  10.137   0.258  0.9860  0.2044 -0.2684
20269SOL    HW172531   2.156  10.088   0.340  0.7518  1.4879  0.5343
20269SOL    HW272532   2.118  10.075   0.194 -1.5172 -0.0369  1.2116
20270SOL     OW72533  10.150   1.908   8.314 -0.2139 -0.3322  0.1451
20270SOL    HW172534  10.147   1.887   8.221 -1.4990 -2.6302  0.6441
20270SOL    HW272535  10.201   1.837   8.353  0.3879  0.6520  1.2270
20271SOL     OW72536   3.285   0.254   8.696 -0.2685  0.2852 -0.3322
20271SOL    HW172537   3.243   0.171   8.675 -2.2855  0.7550  1.5171
20271SOL    HW272538   3.297   0.252   8.791  0.3788  1.7920 -0.3525
20272SOL     OW72539   6.216   6.744   4.045  0.7567 -0.4378 -0.4128
20272SOL    HW172540   6.255   6.818   4.092 -1.0313  1.4449 -1.7041
20272SOL    HW272541   6.161   6.700   4.110  1.3717 -0.2617  0.2310
20273SOL     OW72542   3.922   3.094  10.615 -0.5774 -0.3132  0.4724
20273SOL    HW172543   3.912   3.002  10.639 -0.5062 -0.2379  0.7879
20273SOL    HW272544   3.918   3.142  10.698 -1.0516  0.0057  0.2699
20274SOL     OW72545   7.429  10.310   5.960  0.0239 -0.2248 -0.3964
20274SOL    HW172546   7.522  10.336   5.959 -0.3191  1.3121  1.2288
20274SOL    HW272547   7.401  10.328   6.050 -1.6275 -1.5735 -0.6001
20275SOL     OW72548  10.459   6.581   3.014  0.2642 -0.2455 -0.5413
20275SOL    HW172549  10.413   6.584   2.931  0.1494 -0.6679 -0.4964
20275SOL    HW272550  10.391   6.560   3.078  0.1997  0.8633 -0.2157
20276SOL     OW72551   1.457   4.415   0.876  0.4143 -0.0103 -0.2519
20276SOL    HW172552   1.444   4.433   0.782  1.2217  1.3074 -0.1287
20276SOL    HW272553   1.381   4.454   0.918  1.1000  1.3111 -0.1858
20277SOL     OW72554  10.147   8.992   1.180  0.2629 -0.1573 -0.3243
20277SOL    HW172555  10.122   9.003   1.089 -0.6701 -0.1903 -0.0779
20277SOL    HW272556  10.151   8.898   1.194 -0.7341 -0.1714 -0.0414
20278SOL     OW72557   2.030  10.303   1.553  0.1116  0.1138  0.0136
20278SOL    HW172558   1.958  10.357   1.588 -1.5551 -2.1588  0.3518
20278SOL    HW272559   2.097  10.305   1.621 -0.3378  0.9433  0.4474
20279SOL     OW72560   9.906   3.591   4.302  0.2260 -0.3112  0.3578
20279SOL    HW172561   9.822   3.634   4.289  1.4412  1.9784 -0.5055
20279SOL    HW272562   9.919   3.592   4.397 -0.4699 -0.2087  0.4574
20280SOL     OW72563   0.405  10.739   9.780 -0.0743  0.2101  0.0439
20280SOL    HW172564   0.317  10.705   9.798  0.6330 -0.3891  2.7643
20280SOL    HW272565   0.442  10.678   9.716 -0.6016 -1.2646  1.0980
20281SOL     OW72566   9.181   6.926  10.350 -1.0649 -0.3772 -0.0543
20281SOL    HW172567   9.156   7.017  10.335 -1.7332 -0.4120  0.7760
20281SOL    HW272568   9.122   6.875  10.295  0.0650 -0.2820 -1.4138
20282SOL     OW72569   6.318   8.039   0.816 -0.1480  0.2680 -0.4000
20282SOL    HW172570   6.292   8.075   0.901 -2.1577 -2.2085  0.1482
20282SOL    HW272571   6.280   7.952   0.814  1.4293 -0.4802 -3.1185
20283SOL     OW72572   0.543   3.875  10.176 -0.4127 -0.7254 -1.3013
20283SOL    HW172573   0.583   3.866  10.090  1.1685  2.1143 -0.9582
20283SOL    HW272574   0.449   3.883  10.158 -0.2118 -1.1428 -2.6479
20284SOL     OW72575   8.779  10.668   6.908 -0.6703  0.0215 -0.7560
20284SOL    HW172576   8.753  10.704   6.824 -1.4495 -0.4191 -0.7186
20284SOL    HW272577   8.736  10.582   6.912  0.2544 -0.4479 -0.3845
20285SOL     OW72578   0.548  11.451   9.449  0.0160 -0.0436  0.4581
20285SOL    HW172579   0.593  11.475   9.531  1.9025  2.2878 -1.1125
20285SOL    HW272580   0.488  11.382   9.475  0.9527  0.1522  3.7072
20286SOL     OW72581   3.208   7.714   5.709  0.6543 -0.4274 -0.8559
20286SOL    HW172582   3.200   7.807   5.732  2.6292 -0.3180 -0.4072
20286SOL    HW272583   3.120   7.679   5.721  0.5583  0.5612  2.7902
20287SOL     OW72584   7.784   3.149  11.863 -0.2228 -0.4441 -0.0032
20287SOL    HW172585   7.797   3.054  11.858  0.8166 -0.3663  0.8784
20287SOL    HW272586   7.835   3.184  11.790  0.8768 -0.4535  0.7433
20288SOL     OW72587   1.086   9.829   9.188  0.3585 -0.6291 -0.2136
20288SOL    HW172588   1.109   9.816   9.280 -1.4540 -1.5484  0.1397
20288SOL    HW272589   1.027   9.904   9.189  3.0093  1.6605 -1.1049
20289SOL     OW72590   8.780   2.410  10.138  0.3666 -0.2183 -0.0660
20289SOL    HW172591   8.734   2.335  10.099 -2.0039  0.6034  0.9736
20289SOL    HW272592   8.816   2.457  10.063  2.2451 -2.5139 -0.7285
20290SOL     OW72593   7.592   9.329   1.087 -0.1915  0.3358  0.3874
20290SOL    HW172594   7.538   9.286   1.021  0.7347  1.8084 -1.4204
20290SOL    HW272595   7.650   9.259   1.120 -1.7659 -0.7753  0.8926
20291SOL     OW72596  10.975   1.558   3.628 -0.2425 -0.2693 -0.3118
20291SOL    HW172597  11.025   1.629   3.667  0.2058 -0.5952 -0.2824
20291SOL    HW272598  10.890   1.562   3.671  0.5235 -1.1803  1.3688
20292SOL     OW72599  11.729   0.740   1.734 -0.2202  0.1984 -0.4879
20292SOL    HW172600  11.792   0.812   1.721  0.9474 -0.9050 -1.1303
20292SOL    HW272601  11.737   0.718   1.827  0.5033 -0.0664 -0.6080
20293SOL     OW72602  10.457   9.741   9.133 -0.5708  0.8800  0.5129
20293SOL    HW172603  10.537   9.719   9.086 -1.5245 -2.3315  0.2097
20293SOL    HW272604  10.428   9.823   9.093 -0.2449 -0.6305 -3.1885
20294SOL     OW72605   5.105   7.048  10.772 -0.1795 -0.0138  0.0845
20294SOL    HW172606   5.097   7.019  10.863  0.1179 -0.2097  0.0493
20294SOL    HW272607   5.132   7.139  10.778 -0.6966  0.1381  0.1936
20295SOL     OW72608   6.511   2.882   9.816  0.2197  0.3804  0.5500
20295SOL    HW172609   6.520   2.791   9.847  0.8186 -0.2623 -1.4042
20295SOL    HW272610   6.534   2.935   9.892 -0.8154 -1.0735  1.9548
20296SOL     OW72611   6.093   5.099   6.028  0.1322  0.2314 -0.5047
20296SOL    HW172612   6.132   5.178   6.066 -0.9280  1.0062 -0.9773
20296SOL    HW272613   6.081   5.040   6.102  0.7663  0.5859 -0.1153
20297SOL     OW72614  11.917   7.042  10.714  0.2668  0.0921  1.0714
20297SOL    HW172615  11.836   6.991  10.718 -0.5608  1.1819 -0.7477
20297SOL    HW272616  11.968   7.002  10.644  0.3237  0.7773  0.7138
20298SOL     OW72617   4.616   7.019   8.172 -0.2525 -0.2942  0.6871
20298SOL    HW172618   4.627   6.933   8.133  0.1995  0.1260 -0.1437
20298SOL    HW272619   4.566   7.068   8.106  0.5251  0.4294  0.6243
20299SOL     OW72620   8.356  11.401   7.600  0.8213  0.1938 -0.0106
20299SOL    HW172621   8.423  11.446   7.652  1.1868 -0.3175 -0.0219
20299SOL    HW272622   8.405  11.333   7.554 -0.0560 -1.9901  2.0374
20300SOL     OW72623   5.026  11.586   7.353  0.5044 -0.2928 -0.1118
20300SOL    HW172624   5.057  11.674   7.376 -2.0065  0.5051  0.5016
20300SOL    HW272625   5.044  11.577   7.259  0.8507  0.8180 -0.1602
20301SOL     OW72626   0.964  11.597  10.449  0.2972  0.2908  0.0912
20301SOL    HW172627   1.006  11.626  10.529 -2.5384 -3.2206  3.2200
20301SOL    HW272628   0.897  11.664  10.431  0.9407  1.1000  0.6546
20302SOL     OW72629   3.180   7.827   0.746 -0.0737  0.4039  0.4506
20302SOL    HW172630   3.089   7.820   0.717 -0.2986  0.8314  1.0243
20302SOL    HW272631   3.217   7.897   0.693  0.1972 -0.3999 -0.4414
20303SOL     OW72632  11.885   0.425   1.006 -0.1533 -0.4938  0.0151
20303SOL    HW172633  11.904   0.335   0.978  0.3758 -0.4598  0.2444
20303SOL    HW272634  11.937   0.436   1.086  1.5008  0.7182 -1.1559
20304SOL     OW72635   1.612  11.485   5.592  0.3767  0.4142 -0.1579
20304SOL    HW172636   1.636  11.396   5.568 -1.0305  0.2589 -1.0621
20304SOL    HW272637   1.517  11.486   5.594  0.3465  1.9654 -0.4586
20305SOL     OW72638  10.334   0.590   5.980  0.0543  0.1632 -0.1797
20305SOL    HW172639  10.392   0.665   5.985  0.4302  0.1190 -2.4782
20305SOL    HW272640  10.392   0.515   5.965 -0.4153 -0.3267  0.4221
20306SOL     OW72641   5.921   3.949   6.445  0.4186 -0.5917 -0.4721
20306SOL    HW172642   5.838   3.995   6.454  0.4625 -0.8577  2.3072
20306SOL    HW272643   5.897   3.857   6.432  0.3347 -0.3299 -2.4378
20307SOL     OW72644   6.029   8.553   8.586 -0.0366 -0.2740 -0.0529
20307SOL    HW172645   6.061   8.507   8.508  0.7159 -0.5869  0.4243
20307SOL    HW272646   5.964   8.493   8.623 -0.1364 -0.2857 -0.2442
20308SOL     OW72647   3.235   3.782   5.453 -0.3225  0.6854 -0.3873
20308SOL    HW172648   3.159   3.746   5.406 -1.7724  1.6490  1.0808
20308SOL    HW272649   3.226   3.748   5.542  1.7783 -0.2688 -0.4861
20309SOL     OW72650   8.651   0.102   1.423  0.6868 -0.2460 -0.2014
20309SOL    HW172651   8.574   0.150   1.394  0.2666  0.5530  2.0398
20309SOL    HW272652   8.621   0.012   1.437 -0.4225  0.4662  2.5313
20310SOL     OW72653   8.739   5.999   4.759  0.2282  0.4096 -0.1324
20310SOL    HW172654   8.704   5.994   4.848  1.4631 -0.9193  0.3253
20310SOL    HW272655   8.745   5.908   4.730 -1.0836  0.8766 -1.9865
20311SOL     OW72656  11.574   4.576   7.439  0.2238  0.5501  0.1040
20311SOL    HW172657  11.547   4.663   7.410 -0.1865  0.0158 -1.1684
20311SOL    HW272658  11.585   4.585   7.534  1.2674  2.2469 -0.1504
20312SOL     OW72659   3.784   4.155   8.555 -0.2474 -0.4665  0.2551
20312SOL    HW172660   3.805   4.225   8.493  1.0341 -0.8801  0.1966
20312SOL    HW272661   3.807   4.191   8.641 -1.1093 -0.2419  0.3966
20313SOL     OW72662   2.415   1.664  10.601  0.0658  0.0131 -0.0926
20313SOL    HW172663   2.407   1.568  10.598  1.4660 -0.1195 -1.0896
20313SOL    HW272664   2.507   1.680  10.580 -0.0180  1.5728  0.6064
20314SOL     OW72665   6.432   1.965   0.599  0.2185 -1.3614 -0.0823
20314SOL    HW172666   6.512   2.003   0.635 -0.8006  0.5769  0.2653
20314SOL    HW272667   6.445   1.967   0.504  0.0481  0.3127 -0.1022
20315SOL     OW72668   2.282   7.774   2.228 -0.5760 -0.2299 -0.1546
20315SOL    HW172669   2.362   7.727   2.254 -1.3283 -1.4033  0.0852
20315SOL    HW272670   2.257   7.733   2.145 -1.7219 -0.8702  0.4876
20316SOL     OW72671   5.741   9.474   7.114 -0.4598 -0.2013 -0.0142
20316SOL    HW172672   5.693   9.391   7.113  0.7784 -0.9481 -0.9373
20316SOL    HW272673   5.827   9.453   7.151  0.3107  0.3657 -1.3715
20317SOL     OW72674  10.992   3.120   2.846  0.3068 -0.3255  0.1271
20317SOL    HW172675  10.987   3.126   2.941  0.5039 -0.5694  0.1536
20317SOL    HW272676  11.081   3.149   2.825  0.0576  0.3384 -0.0358
20318SOL     OW72677   0.470   5.076   9.063  0.3659  0.6337  0.3472
20318SOL    HW172678   0.386   5.056   9.103 -0.5893  2.0221 -0.8445
20318SOL    HW272679   0.490   5.000   9.009  1.3128 -0.9359  2.7332
20319SOL     OW72680  10.200   0.319   7.139 -0.0083  0.0775  0.1569
20319SOL    HW172681  10.269   0.280   7.193 -0.0939 -0.3840 -0.0583
20319SOL    HW272682  10.119   0.279   7.171 -0.0654 -0.1535 -0.2613
20320SOL     OW72683   3.732  10.700   9.466  0.0083 -0.2023  0.1549
20320SOL    HW172684   3.694  10.618   9.434 -4.4700  1.0845  1.3557
20320SOL    HW272685   3.712  10.764   9.398 -2.9118  1.0705  1.9887
20321SOL     OW72686   3.700  10.143   7.689 -0.3728 -0.1806  0.3351
20321SOL    HW172687   3.793  10.121   7.684 -0.6286 -1.1672 -0.7152
20321SOL    HW272688   3.693  10.231   7.653  0.2276  0.1855  1.0925
20322SOL     OW72689   1.594  11.074   6.026  0.6222  0.3158 -0.1868
20322SOL    HW172690   1.565  11.007   5.964 -1.2890  0.5958  0.3494
20322SOL    HW272691   1.566  11.157   5.987 -0.1739  0.5269  0.7929
20323SOL     OW72692   2.117   3.224   3.481 -0.3135  0.0531  0.4430
20323SOL    HW172693   2.201   3.242   3.522 -0.1701 -1.0645  0.6903
20323SOL    HW272694   2.139   3.172   3.404 -0.8450 -1.8939  1.5217
20324SOL     OW72695   8.528  11.624   2.765  0.1181  0.4608  0.2478
20324SOL    HW172696   8.455  11.637   2.705  0.6845  0.1950 -0.5208
20324SOL    HW272697   8.498  11.557   2.826 -0.1671  0.1125 -0.2643
20325SOL     OW72698  10.976   5.182   9.841 -0.0282  0.3995 -0.8080
20325SOL    HW172699  10.949   5.258   9.894  1.2880 -0.5169  1.3115
20325SOL    HW272700  10.970   5.108   9.902 -0.2054 -1.0303 -2.5087
20326SOL     OW72701   2.389   2.359  10.996  0.4335 -0.3088  0.0933
20326SOL    HW172702   2.452   2.371  11.067  2.6501 -0.8991 -1.6716
20326SOL    HW272703   2.416   2.421  10.929  0.0902 -1.6107 -1.3084
20327SOL     OW72704   6.812   9.091   0.276 -0.0131 -0.7153  0.4435
20327SOL    HW172705   6.799   9.163   0.215  0.5081 -0.4525  0.6415
20327SOL    HW272706   6.741   9.029   0.255 -0.3525 -0.2357  0.1539
20328SOL     OW72707   5.574   1.942   2.921 -0.0860 -0.4140 -0.0518
20328SOL    HW172708   5.639   1.888   2.875 -1.4393 -1.2113 -1.0964
20328SOL    HW272709   5.571   2.024   2.872 -0.2538 -0.5748 -0.3053
20329SOL     OW72710   1.874  10.683   8.248  0.3746 -0.2459  0.1270
20329SOL    HW172711   1.865  10.601   8.297  1.2717 -0.3002  0.2128
20329SOL    HW272712   1.949  10.669   8.191  1.2771  0.9197  0.9705
20330SOL     OW72713   3.010   8.579   7.987 -0.3631 -0.3968  0.0682
20330SOL    HW172714   3.035   8.509   8.049 -0.6626  0.0212  0.6682
20330SOL    HW272715   2.954   8.535   7.923 -1.2948 -0.5348  0.9513
20331SOL     OW72716  11.501   7.054   8.096 -0.1571  0.2372  0.3537
20331SOL    HW172717  11.581   7.036   8.145 -0.2016  0.0300  0.3507
20331SOL    HW272718  11.481   7.145   8.116 -1.3875 -0.4442  2.4687
20332SOL     OW72719   7.863   2.874   0.659 -0.1870  0.3855  0.6193
20332SOL    HW172720   7.925   2.814   0.619 -0.0173  1.1286 -0.2786
20332SOL    HW272721   7.810   2.820   0.718  1.6944 -0.1682  1.8839
20333SOL     OW72722   4.936   0.633   3.163 -0.0137 -0.2690  0.0228
20333SOL    HW172723   4.853   0.679   3.177 -0.6388 -1.4536  0.3756
20333SOL    HW272724   4.913   0.540   3.168  1.1959 -0.6314 -0.7292
20334SOL     OW72725   8.331   0.501   1.600  0.1385 -0.2030 -0.6128
20334SOL    HW172726   8.260   0.507   1.665 -0.2191 -1.7763 -0.8180
20334SOL    HW272727   8.303   0.559   1.529  1.8017  3.7868  1.6422
20335SOL     OW72728  10.006   1.938   0.905  0.2344  0.0670  0.3622
20335SOL    HW172729   9.952   2.005   0.947  0.6468 -0.3378  1.5836
20335SOL    HW272730   9.970   1.855   0.938  0.2957 -0.2856 -0.4350
20336SOL     OW72731  11.407   5.488  10.002 -0.0071  0.2684 -0.1649
20336SOL    HW172732  11.346   5.561  10.017  0.3187  0.7603 -1.1500
20336SOL    HW272733  11.442   5.468  10.089 -0.3869  1.0311  0.1755
20337SOL     OW72734   7.205   8.122   6.332 -0.1770 -0.3866 -0.5970
20337SOL    HW172735   7.192   8.113   6.426  1.7249 -2.0347 -0.4167
20337SOL    HW272736   7.129   8.079   6.293  0.2290 -1.9487  0.2548
20338SOL     OW72737   2.856   5.925   7.593  0.6227 -0.4221  0.2273
20338SOL    HW172738   2.761   5.927   7.599  0.5957 -0.4193 -0.1998
20338SOL    HW272739   2.886   5.936   7.683  0.2179 -0.6440  0.3871
20339SOL     OW72740   6.421  11.594   9.441 -0.8180  0.5077  0.2574
20339SOL    HW172741   6.494  11.646   9.474 -1.0713  1.2455 -0.3038
20339SOL    HW272742   6.345  11.628   9.488 -1.1591  1.4732 -0.9614
20340SOL     OW72743   3.123   9.052   3.988 -0.6088  0.1129 -0.1762
20340SOL    HW172744   3.179   9.125   4.015 -0.5135  0.1884 -0.5719
20340SOL    HW272745   3.043   9.094   3.955  0.3429  0.1861 -2.5948
20341SOL     OW72746   0.108   3.240   1.765 -0.1544 -0.5433 -0.1035
20341SOL    HW172747   0.116   3.292   1.685  1.1298 -1.8015 -0.8377
20341SOL    HW272748   0.015   3.245   1.787 -0.1264  1.8458 -0.2475
20342SOL     OW72749  10.075   7.251   6.881 -0.2340 -0.2237 -0.0278
20342SOL    HW172750  10.093   7.345   6.879  0.5713 -0.3486  0.6512
20342SOL    HW272751  10.079   7.224   6.789  1.7666  0.0357 -0.0702
20343SOL     OW72752   5.407   6.421   4.666 -0.5992 -0.5664  0.2638
20343SOL    HW172753   5.497   6.440   4.638 -0.1632  0.2617  2.0878
20343SOL    HW272754   5.353   6.481   4.614 -0.1714 -1.3319 -1.1177
20344SOL     OW72755  11.559   8.399   5.826  0.1780  0.3391 -0.1948
20344SOL    HW172756  11.652   8.388   5.848  0.3061  0.0049 -0.8854
20344SOL    HW272757  11.554   8.483   5.782  0.1984  0.2456 -0.3785
20345SOL     OW72758   3.292   0.525   9.254 -0.4088  0.8166  0.0307
20345SOL    HW172759   3.216   0.582   9.244 -1.8883 -0.7451  1.7906
20345SOL    HW272760   3.294   0.474   9.173 -1.5474  0.5167  0.1807
20346SOL     OW72761   5.104   2.090   7.433  0.1530  0.3450 -0.5540
20346SOL    HW172762   5.094   2.082   7.339  0.0586  0.8549 -0.5897
20346SOL    HW272763   5.196   2.110   7.446  0.3457 -0.5771 -0.4787
20347SOL     OW72764   1.055  11.145   3.190 -0.0503 -0.1996 -0.5229
20347SOL    HW172765   1.040  11.143   3.285 -0.2682 -2.1166 -0.5646
20347SOL    HW272766   1.128  11.205   3.178  0.0992 -0.0775  0.8697
20348SOL     OW72767   7.871   1.344   9.636  0.3143 -0.0121 -0.5186
20348SOL    HW172768   7.828   1.272   9.591  0.2497 -0.2361 -0.1066
20348SOL    HW272769   7.800   1.402   9.664  0.3820  0.3435 -1.0632
20349SOL     OW72770   9.262   0.804   3.852  0.0121  0.4479 -0.2108
20349SOL    HW172771   9.209   0.807   3.932  1.1405  1.3692  0.5429
20349SOL    HW272772   9.198   0.802   3.781 -1.0318 -1.3026  0.7104
20350SOL     OW72773   6.412   2.218   8.078  0.0741  0.0694 -0.0640
20350SOL    HW172774   6.497   2.193   8.040 -0.1680  0.3373 -0.7955
20350SOL    HW272775   6.377   2.137   8.113 -1.2024 -0.9642 -3.3715
20351SOL     OW72776   9.694   3.359   9.940 -0.1747  0.6733  0.1716
20351SOL    HW172777   9.703   3.441   9.987 -0.1666 -0.4153  2.1725
20351SOL    HW272778   9.756   3.365   9.868  0.8408  1.8568  1.1159
20352SOL     OW72779   3.151  11.743   2.882 -0.2633  0.0560  0.0216
20352SOL    HW172780   3.158  11.760   2.788  1.6838 -0.2315  0.0732
20352SOL    HW272781   3.138  11.648   2.888 -1.3423  0.1903  0.0400
20353SOL     OW72782   5.284   6.671  11.927 -0.3340  0.0976  0.2248
20353SOL    HW172783   5.253   6.589  11.890 -1.3261  1.0636 -1.1866
20353SOL    HW272784   5.288   6.655  12.022 -1.1348 -1.3493  0.0375
20354SOL     OW72785   2.438   7.427   1.983 -0.1260 -0.0265  0.3612
20354SOL    HW172786   2.382   7.415   1.906  1.2903  1.1909 -0.9197
20354SOL    HW272787   2.524   7.396   1.956  0.1383 -0.7100  1.8804
20355SOL     OW72788   3.328   4.282   1.169 -0.2306 -0.5485 -0.6500
20355SOL    HW172789   3.266   4.328   1.113 -2.6369 -2.9942 -0.2075
20355SOL    HW272790   3.278   4.208   1.204  1.7427 -0.3296  3.0919
20356SOL     OW72791   0.864   4.261   0.732  0.3524  0.1085 -0.4573
20356SOL    HW172792   0.791   4.316   0.760 -0.0804 -1.1229  0.9562
20356SOL    HW272793   0.942   4.313   0.751 -0.0501  0.2747  0.8123
20357SOL     OW72794   6.946   6.302  11.577  0.0133 -0.2005 -0.2898
20357SOL    HW172795   6.980   6.384  11.541 -0.8591  0.4916  0.4097
20357SOL    HW272796   6.859   6.324  11.610 -1.0091 -1.8253 -1.6902
20358SOL     OW72797  10.395   6.201   6.678 -0.1258  0.0916  0.0394
20358SOL    HW172798  10.458   6.238   6.616 -0.7648 -0.1960 -0.8025
20358SOL    HW272799  10.419   6.109   6.684 -0.3892  0.0084 -0.1866
20359SOL     OW72800   4.991   5.915   0.990  0.3128  0.7998 -0.2421
20359SOL    HW172801   4.899   5.894   0.980  0.2313  1.8258 -1.9281
20359SOL    HW272802   4.998   5.950   1.079 -0.7008 -0.2141  0.2638
20360SOL     OW72803   9.269  11.694  11.381  0.3472 -0.1478 -0.2563
20360SOL    HW172804   9.325  11.767  11.408  0.9722 -1.0205  0.9083
20360SOL    HW272805   9.279  11.629  11.451 -0.1661 -1.3712 -1.2739
20361SOL     OW72806   4.678   8.141   1.526 -0.5009 -0.6758  0.5216
20361SOL    HW172807   4.732   8.088   1.467 -1.0897 -0.2872 -0.3873
20361SOL    HW272808   4.707   8.117   1.614 -1.2153 -3.0052  0.1709
20362SOL     OW72809   4.859   4.175   6.425  0.7528  0.2411  0.6168
20362SOL    HW172810   4.934   4.175   6.366  0.0115 -0.4959 -0.3524
20362SOL    HW272811   4.870   4.254   6.477  0.4808  1.9877 -1.7824
20363SOL     OW72812   5.807  11.599  11.009  0.0608  0.5743 -0.6355
20363SOL    HW172813   5.868  11.636  10.945  0.5809  0.7122 -0.0653
20363SOL    HW272814   5.813  11.657  11.085  0.8416 -0.6117  0.2515
20364SOL     OW72815   8.008   4.285   7.682  0.0128  0.3691 -0.6788
20364SOL    HW172816   7.995   4.277   7.777 -1.0172 -1.1364 -0.9217
20364SOL    HW272817   8.068   4.214   7.660 -1.2487 -0.5124 -1.4071
20365SOL     OW72818  11.441  11.140   8.972 -0.1194 -0.5972  0.0897
20365SOL    HW172819  11.495  11.080   8.920 -0.2183 -0.9285  0.3700
20365SOL    HW272820  11.486  11.224   8.965 -0.1622 -0.6235 -0.5866
20366SOL     OW72821  10.999   9.851   4.935  0.4011 -0.1373  0.8599
20366SOL    HW172822  10.952   9.922   4.981 -0.4638  0.5431 -0.9796
20366SOL    HW272823  10.941   9.776   4.942 -0.0465  0.1511  0.3326
20367SOL     OW72824  11.909   2.582   8.420 -0.1885 -0.3727  0.1750
20367SOL    HW172825  11.828   2.611   8.377 -0.6671 -1.7656  0.0732
20367SOL    HW272826  11.895   2.602   8.513 -0.7337 -0.7754  0.1837
20368SOL     OW72827   6.500   8.217   5.935  0.0544 -0.1520  0.0823
20368SOL    HW172828   6.497   8.284   6.003  0.8837 -0.7723  0.7576
20368SOL    HW272829   6.556   8.148   5.971 -2.2896 -2.1198  0.2341
20369SOL     OW72830   3.530   4.937   2.877 -0.0893  0.1657  0.3472
20369SOL    HW172831   3.586   4.960   2.803 -0.3698  1.6776  0.5572
20369SOL    HW272832   3.576   4.866   2.922  0.9832  0.4677 -0.2433
20370SOL     OW72833   9.826   8.357  11.253 -0.2822 -0.2107  0.4049
20370SOL    HW172834   9.786   8.432  11.296  1.0533  0.5597  0.3825
20370SOL    HW272835   9.782   8.281  11.290 -1.8587  0.5766  0.2365
20371SOL     OW72836   0.756   5.459   2.950 -0.0937  0.1162  0.2698
20371SOL    HW172837   0.813   5.500   3.015  0.3360 -3.1575  2.2015
20371SOL    HW272838   0.734   5.374   2.988 -2.6326 -0.6049 -2.4429
20372SOL     OW72839   2.118   3.318   9.086 -0.5693 -0.0163 -0.4852
20372SOL    HW172840   2.193   3.347   9.034  0.4568 -0.2373  0.8163
20372SOL    HW272841   2.128   3.223   9.093  1.0612  0.2434  2.5607
20373SOL     OW72842   0.433   9.779   7.845  0.5747 -0.0670 -0.6701
20373SOL    HW172843   0.490   9.727   7.902 -0.7843 -2.1468 -1.0897
20373SOL    HW272844   0.360   9.805   7.901 -0.8340 -2.2336 -1.3692
20374SOL     OW72845  10.776   7.245   1.884 -0.2948  0.3232 -0.0103
20374SOL    HW172846  10.842   7.269   1.819  1.1706  0.5947  1.4786
20374SOL    HW272847  10.716   7.186   1.838  0.3220  0.9778 -1.7321
20375SOL     OW72848   8.213   6.979   5.788 -0.1218 -0.1305  0.0769
20375SOL    HW172849   8.137   7.006   5.840  1.6375  1.2803  2.1366
20375SOL    HW272850   8.250   6.905   5.836 -0.5031 -1.2091 -1.2491
20376SOL     OW72851   1.695   8.761  10.354  0.3074  0.5173  0.3402
20376SOL    HW172852   1.689   8.857  10.362  0.2363  0.5280  0.1588
20376SOL    HW272853   1.781   8.746  10.314  0.0464  0.5385 -0.2331
20377SOL     OW72854  10.266   2.388   1.387  0.0890  0.0620  0.1835
20377SOL    HW172855  10.254   2.378   1.293  1.8587 -1.0118  0.0207
20377SOL    HW272856  10.357   2.416   1.397  1.1726 -3.3273  1.6282
20378SOL     OW72857   2.533   4.010   1.824  0.3494  0.0764 -0.4707
20378SOL    HW172858   2.568   4.055   1.901  1.0806 -0.4977 -0.4501
20378SOL    HW272859   2.564   3.920   1.833 -0.6644 -0.3173 -0.7684
20379SOL     OW72860   7.222  10.720   4.266  0.4173  0.2310 -0.5539
20379SOL    HW172861   7.141  10.732   4.315  0.3046 -2.3618  0.0246
20379SOL    HW272862   7.196  10.671   4.187  1.2480  0.4368 -0.9678
20380SOL     OW72863   9.186   6.162   4.913 -0.1756 -0.2559 -0.0459
20380SOL    HW172864   9.103   6.180   4.869 -1.3501 -3.2208  0.7113
20380SOL    HW272865   9.164   6.163   5.006  0.9331  0.1667  0.2173
20381SOL     OW72866   3.320   8.410   4.938 -0.0976 -0.1141  0.2356
20381SOL    HW172867   3.381   8.349   4.897  1.1544 -0.1541  2.0247
20381SOL    HW272868   3.312   8.482   4.875  2.3937  0.2306  0.2001
20382SOL     OW72869   8.505   2.110   4.190  0.5167 -0.2182 -0.5708
20382SOL    HW172870   8.569   2.045   4.219 -1.1901 -2.1045 -0.8632
20382SOL    HW272871   8.452   2.065   4.125 -1.5042  1.0693  0.0846
20383SOL     OW72872   7.029   2.550   5.807 -0.1105  0.8973  0.4706
20383SOL    HW172873   7.101   2.487   5.815 -1.2081 -0.1534  3.2973
20383SOL    HW272874   7.061   2.628   5.853 -0.0068  1.1993 -0.1091
20384SOL     OW72875  10.030   4.876   7.862 -0.5193  0.8516 -0.4772
20384SOL    HW172876  10.108   4.887   7.808  0.3213  0.7136  0.6783
20384SOL    HW272877   9.984   4.802   7.823  1.0547 -0.4837  0.0957
20385SOL     OW72878   2.882   9.207   3.859 -0.2740  0.2175 -0.4679
20385SOL    HW172879   2.933   9.252   3.791 -0.8433  0.7699 -0.5405
20385SOL    HW272880   2.819   9.154   3.811  0.0924 -0.3136 -0.3747
20386SOL     OW72881  10.857  10.518   6.227 -0.4719 -0.9580  0.5778
20386SOL    HW172882  10.935  10.564   6.257  1.5646 -3.3848 -0.6058
20386SOL    HW272883  10.846  10.445   6.288  0.1613 -2.4737 -1.0379
20387SOL     OW72884   8.393  11.008   5.679  0.1069  0.2659  0.3147
20387SOL    HW172885   8.375  10.922   5.641 -2.3225  0.7808  0.1416
20387SOL    HW272886   8.371  10.998   5.772 -2.9939  1.3034 -0.1713
20388SOL     OW72887   9.257   6.686   0.798  0.2910 -0.0358  0.4648
20388SOL    HW172888   9.176   6.660   0.755 -1.4203  1.6203  2.4296
20388SOL    HW272889   9.251   6.781   0.806  2.6910  0.2159  0.2511
20389SOL     OW72890   1.349  11.803   6.064 -0.3387 -0.0493 -0.0116
20389SOL    HW172891   1.419  11.780   6.124 -0.9008 -0.5899  0.4491
20389SOL    HW272892   1.297  11.723   6.055  0.3427 -0.3350 -2.0806
20390SOL     OW72893   2.296   2.770  11.043  0.9862  0.3424 -0.4042
20390SOL    HW172894   2.368   2.706  11.040  1.5510  0.9924 -1.6993
20390SOL    HW272895   2.302   2.816  10.959 -0.2678  1.1666 -0.0653
20391SOL     OW72896  11.704  10.871   7.670  0.2476 -0.2381  0.1737
20391SOL    HW172897  11.686  10.956   7.631 -0.6553  0.4693  2.0114
20391SOL    HW272898  11.619  10.827   7.672  0.6549 -1.0812 -0.5008
20392SOL     OW72899   0.595   7.386   5.423 -0.0298  0.3589 -0.1539
20392SOL    HW172900   0.687   7.384   5.449 -0.0590  0.9302  0.0222
20392SOL    HW272901   0.547   7.393   5.505 -0.0906  3.0111 -0.3156
20393SOL     OW72902   2.975  11.573   0.644 -0.0697  0.0486 -0.2066
20393SOL    HW172903   3.035  11.515   0.597  0.0914  1.5758 -2.0243
20393SOL    HW272904   3.032  11.639   0.685 -0.4002  0.7756 -0.8862
20394SOL     OW72905   7.246   6.501  10.897  0.0851 -0.0289  0.1901
20394SOL    HW172906   7.321   6.561  10.896  0.9422 -1.0312 -1.8158
20394SOL    HW272907   7.211   6.505  10.808 -2.3957  0.4970  1.0933
20395SOL     OW72908   4.327   6.300  11.550  0.8145 -0.0927 -0.9970
20395SOL    HW172909   4.377   6.380  11.536 -0.5332  1.5604  2.5611
20395SOL    HW272910   4.239   6.321  11.520  0.3514 -0.0376  0.3487
20396SOL     OW72911   3.711  10.380   7.060  0.4522 -0.5838  0.2150
20396SOL    HW172912   3.728  10.448   7.125 -0.0750 -1.0849  0.8857
20396SOL    HW272913   3.710  10.298   7.110  1.1765 -1.1114 -0.5932
20397SOL     OW72914   8.025   3.411  11.884  0.1399 -0.0486  0.4147
20397SOL    HW172915   7.989   3.347  11.945  0.6769  0.0936  0.8859
20397SOL    HW272916   8.116   3.422  11.911 -0.4894  2.5846  1.7953
20398SOL     OW72917   6.049  10.114   4.890  0.5376 -0.0123 -0.3617
20398SOL    HW172918   6.087  10.043   4.942  0.9283  1.3522  1.3139
20398SOL    HW272919   6.124  10.149   4.841  0.4332 -0.4895 -0.8584
20399SOL     OW72920   3.238   3.158   0.359 -0.3897 -0.0667 -0.0387
20399SOL    HW172921   3.319   3.186   0.318 -1.0379  0.3610 -1.0671
20399SOL    HW272922   3.217   3.075   0.318 -0.3614 -0.2846  0.3830
20400SOL     OW72923   4.296   6.412   0.434 -0.4640 -0.1149  0.6497
20400SOL    HW172924   4.273   6.385   0.345 -2.0526 -0.7078  1.1863
20400SOL    HW272925   4.286   6.332   0.486  5.4309 -1.2564  0.7339
20401SOL     OW72926   1.104   9.466  10.304  0.1550 -0.5648  0.4349
20401SOL    HW172927   1.133   9.453  10.214  0.4766  0.1653  0.4285
20401SOL    HW272928   1.070   9.380  10.331 -1.7832 -0.3339 -1.0456
20402SOL     OW72929  10.641  11.262   5.355  0.1873  0.5013 -0.3495
20402SOL    HW172930  10.680  11.267   5.267 -0.1794  0.0195 -0.5427
20402SOL    HW272931  10.670  11.178   5.389 -0.0978  0.4583 -0.2128
20403SOL     OW72932   2.796   0.322   0.687 -0.6368 -0.4777 -0.0211
20403SOL    HW172933   2.796   0.399   0.631 -0.3689  0.1221  0.7850
20403SOL    HW272934   2.712   0.325   0.732 -0.2729 -0.1606  0.6587
20404SOL     OW72935   7.583  10.889   5.714  0.2531 -0.3855 -0.4275
20404SOL    HW172936   7.536  10.924   5.638  0.4818 -1.1575 -0.9339
20404SOL    HW272937   7.650  10.832   5.677  0.6303 -0.4633  0.3446
20405SOL     OW72938   7.692   9.440   1.397 -0.3720  0.1152 -0.1387
20405SOL    HW172939   7.769   9.382   1.391  1.8968  2.7071  1.6595
20405SOL    HW272940   7.687   9.481   1.310  0.6900  0.3341 -0.1175
20406SOL     OW72941   4.921   0.458   2.140 -0.1618  0.3868 -0.0493
20406SOL    HW172942   4.870   0.449   2.059 -1.5935  1.6438  0.6768
20406SOL    HW272943   5.002   0.409   2.122 -0.9158 -0.3115 -1.8209
20407SOL     OW72944   4.912   5.636   6.566 -0.1243 -0.5200  0.4416
20407SOL    HW172945   4.859   5.699   6.516  0.7990  1.3379  1.6665
20407SOL    HW272946   4.889   5.654   6.657  0.0200 -2.1488  0.8197
20408SOL     OW72947  11.171   3.549   0.622  0.4542 -0.4402 -0.0742
20408SOL    HW172948  11.164   3.563   0.527 -1.2272 -1.4694 -0.1409
20408SOL    HW272949  11.163   3.454   0.633 -1.1511 -0.1967  1.2126
20409SOL     OW72950   0.382   7.048   3.639 -0.7252 -0.2088  0.3827
20409SOL    HW172951   0.394   7.013   3.727  0.6195 -2.2907 -0.5652
20409SOL    HW272952   0.375   6.971   3.583 -0.0629  1.0576 -1.5236
20410SOL     OW72953   2.439   4.027   3.432 -0.0430  0.2013 -0.0467
20410SOL    HW172954   2.415   3.985   3.349  1.0779  0.3714 -0.4726
20410SOL    HW272955   2.464   3.954   3.489 -2.9332 -0.1415  0.9414
20411SOL     OW72956   9.442   8.976  11.802 -0.5111 -0.0577  0.4013
20411SOL    HW172957   9.440   9.028  11.721  0.6616  0.2566  0.5588
20411SOL    HW272958   9.417   8.888  11.774  1.9057 -0.4702 -0.7567
20412SOL     OW72959  10.773   6.513   9.612  0.0649 -0.2265  0.0980
20412SOL    HW172960  10.775   6.417   9.604 -0.4034 -0.3210  0.9956
20412SOL    HW272961  10.722   6.542   9.537  0.4030 -0.6553 -0.3112
20413SOL     OW72962   2.153   8.828   3.277 -0.2598  0.0887 -0.2673
20413SOL    HW172963   2.096   8.830   3.354 -0.7699  1.3506 -0.6508
20413SOL    HW272964   2.109   8.884   3.214  0.2279 -0.8106 -1.4349
20414SOL     OW72965   1.077   4.568   9.421 -0.3530 -0.1951 -0.0237
20414SOL    HW172966   0.984   4.551   9.407 -1.0188  1.8187  1.4755
20414SOL    HW272967   1.108   4.605   9.338 -1.1505  0.0878 -0.2033
20415SOL     OW72968  11.342   3.441   3.378  0.1121 -0.0720 -0.3155
20415SOL    HW172969  11.323   3.376   3.310 -1.8588  0.4155 -0.2995
20415SOL    HW272970  11.437   3.439   3.387  0.2424 -1.6998 -1.5408
20416SOL     OW72971  10.332   5.880   2.136 -0.5425 -0.1041 -0.2371
20416SOL    HW172972  10.391   5.866   2.210 -1.0978  0.3653  0.3104
20416SOL    HW272973  10.383   5.855   2.059  0.0377 -0.6236  0.3064
20417SOL     OW72974   6.959   5.937   3.858  0.0116  0.0624  0.0432
20417SOL    HW172975   6.982   6.023   3.824 -2.9033  0.9751  0.1192
20417SOL    HW272976   6.915   5.893   3.784 -0.8129 -0.3288  0.7444
20418SOL     OW72977   9.051   7.643   6.186 -0.8556 -0.0506  0.1090
20418SOL    HW172978   9.144   7.660   6.168 -0.5617 -1.7314 -0.1172
20418SOL    HW272979   9.004   7.709   6.135  0.2215  1.5081  1.0571
20419SOL     OW72980   5.738   0.404   8.482  0.1385 -0.0815  0.1531
20419SOL    HW172981   5.799   0.474   8.460  0.3064  0.1542  1.2968
20419SOL    HW272982   5.782   0.355   8.552 -0.9066  0.0048  0.8960
20420SOL     OW72983   2.753  10.267   0.445 -0.3132 -0.3932 -0.1089
20420SOL    HW172984   2.667  10.303   0.467 -0.3034 -1.4738  1.8873
20420SOL    HW272985   2.802  10.269   0.527  1.0873 -1.1469 -0.8835
20421SOL     OW72986   4.963   1.689   7.822 -0.2394 -0.3043 -0.1413
20421SOL    HW172987   4.999   1.763   7.871 -0.1713  0.2377 -0.9828
20421SOL    HW272988   4.939   1.726   7.737 -1.9318 -0.8590  0.0603
20422SOL     OW72989   3.267   5.751   3.477  0.4509 -0.5185 -0.6453
20422SOL    HW172990   3.294   5.726   3.388  0.5577 -0.0042 -0.7572
20422SOL    HW272991   3.197   5.815   3.464 -1.1746 -2.1354 -0.3627
20423SOL     OW72992   1.516   4.666  11.359  0.0521 -0.0248 -0.4001
20423SOL    HW172993   1.488   4.728  11.426 -0.9945 -0.1090 -0.7433
20423SOL    HW272994   1.547   4.590  11.408 -0.6286 -0.0508 -0.0010
20424SOL     OW72995   6.960   6.262   4.952 -0.0534  0.2963 -0.1012
20424SOL    HW172996   6.901   6.220   5.015 -2.1481  3.3114  0.1388
20424SOL    HW272997   6.904   6.284   4.878  1.4045  0.8624 -1.0737
20425SOL     OW72998   8.748   0.134   8.216  0.6466  0.2884  0.0707
20425SOL    HW172999   8.797   0.180   8.284 -0.4071  1.7990 -0.1273
20425SOL    HW273000   8.791   0.160   8.134  0.5517  0.2905  0.0211
20426SOL     OW73001   0.414   2.847   8.624  0.1649 -0.1863 -0.1002
20426SOL    HW173002   0.484   2.797   8.583  1.1545  0.4780  0.7289
20426SOL    HW273003   0.391   2.914   8.559  1.3062  0.4866  0.1638
20427SOL     OW73004   2.389   7.426   7.103  0.1518 -0.3792 -0.4784
20427SOL    HW173005   2.346   7.347   7.072  2.5553 -1.5038 -1.1490
20427SOL    HW273006   2.412   7.475   7.024 -1.5342  1.2063 -0.0743
20428SOL     OW73007   8.377   3.781  10.441 -0.0680 -0.8979 -0.7893
20428SOL    HW173008   8.377   3.742  10.528  2.7240  1.9676  0.7068
20428SOL    HW273009   8.296   3.832  10.437 -0.4964 -1.5198 -0.1294
20429SOL     OW73010   8.551   9.616   6.709 -0.2030 -0.2940 -0.1121
20429SOL    HW173011   8.606   9.674   6.656  1.5928 -0.9454  0.9585
20429SOL    HW273012   8.508   9.674   6.772  0.6346  0.0372  0.1650
20430SOL     OW73013   0.950   4.955   6.083 -0.1277 -0.0744  0.1595
20430SOL    HW173014   0.890   4.905   6.137  0.2557  0.2236  0.8697
20430SOL    HW273015   0.946   5.044   6.118 -1.4982  0.6448 -1.6498
20431SOL     OW73016   8.947   9.567   7.513 -0.0195 -0.5671  0.1336
20431SOL    HW173017   8.970   9.642   7.567 -2.2856  0.6505 -0.4920
20431SOL    HW273018   8.991   9.493   7.556  4.6393  1.3274 -0.7789
20432SOL     OW73019   3.242  11.772  11.256  0.4431 -0.1488 -0.0140
20432SOL    HW173020   3.169  11.834  11.254 -0.2413 -0.9489 -1.3191
20432SOL    HW273021   3.240  11.734  11.344 -0.0150  0.6453  0.3227
20433SOL     OW73022   3.525  11.470  11.199  0.0582 -0.1491  0.3782
20433SOL    HW173023   3.497  11.401  11.259  0.2489 -1.2559 -0.7652
20433SOL    HW273024   3.454  11.476  11.134 -0.9064  2.1347  1.5264
20434SOL     OW73025   7.626  10.262   7.611  0.0402  0.0562  0.3623
20434SOL    HW173026   7.637  10.208   7.532 -0.1168  0.6228 -0.0534
20434SOL    HW273027   7.538  10.298   7.603 -0.4308 -0.8245  1.3996
20435SOL     OW73028   1.061   2.659  11.664  0.0252  0.2723 -0.7451
20435SOL    HW173029   1.113   2.739  11.655 -1.1521  1.5157  2.0580
20435SOL    HW273030   1.060   2.642  11.758 -0.0143 -2.9543 -1.2279
20436SOL     OW73031   8.189   8.488   0.422  0.4841 -0.3180  0.3021
20436SOL    HW173032   8.259   8.431   0.389 -1.1801 -1.8419 -0.7363
20436SOL    HW273033   8.199   8.485   0.517  1.0182 -1.6005  0.2246
20437SOL     OW73034   5.128   3.958   0.952 -0.3232  0.0873 -0.0135
20437SOL    HW173035   5.051   3.986   1.001 -0.3367  0.5284 -0.2818
20437SOL    HW273036   5.175   4.039   0.931  0.4149 -0.2024  0.4701
20438SOL     OW73037   0.048   3.671   3.640  0.2687  0.5402 -0.0392
20438SOL    HW173038  -0.035   3.657   3.686 -0.1030  3.0212  0.2052
20438SOL    HW273039   0.114   3.677   3.710  0.8168 -1.9130 -0.2543
20439SOL     OW73040   0.688   5.220   4.651 -0.2101  0.1283  0.2992
20439SOL    HW173041   0.595   5.244   4.656 -0.4730 -0.7351 -0.1766
20439SOL    HW273042   0.707   5.180   4.736 -0.2340  0.4063  0.4392
20440SOL     OW73043  10.935   1.339  10.994 -0.2908  0.3203 -0.1632
20440SOL    HW173044  10.927   1.397  11.070  0.5689  0.0034  0.1739
20440SOL    HW273045  10.880   1.263  11.016 -1.1105  0.8288 -0.4411
20441SOL     OW73046   1.686   8.093   2.652  0.3611  0.5132  0.2660
20441SOL    HW173047   1.750   8.082   2.723 -1.0110  0.0715  1.4731
20441SOL    HW273048   1.735   8.069   2.573  1.5461 -0.3153  1.2053
20442SOL     OW73049   3.387   9.783   1.698 -0.0509  0.4156  0.2711
20442SOL    HW173050   3.457   9.771   1.633  0.5828 -0.1521  1.0487
20442SOL    HW273051   3.391   9.704   1.752 -0.7897  0.7375  0.8039
20443SOL     OW73052   8.871  10.453   0.468  0.1950 -0.6399  0.1568
20443SOL    HW173053   8.776  10.445   0.474 -0.0210  0.9189 -0.6863
20443SOL    HW273054   8.893  10.520   0.533  0.5700 -0.1945 -0.4184
20444SOL     OW73055   8.327   4.871   0.309  0.0167 -0.1904 -0.1571
20444SOL    HW173056   8.234   4.883   0.325  0.2951  2.3414  0.1031
20444SOL    HW273057   8.346   4.926   0.233  1.5036  0.4255  0.5997
20445SOL     OW73058  11.001   6.869  11.585  0.3470  0.4820 -0.0040
20445SOL    HW173059  11.009   6.929  11.659 -2.1500  0.0666  0.7113
20445SOL    HW273060  10.928   6.812  11.609  1.5331 -1.7734 -1.3912
20446SOL     OW73061  11.157   2.634   7.601 -0.2439  0.4464 -0.0963
20446SOL    HW173062  11.204   2.615   7.519  1.1262  0.1836  0.7114
20446SOL    HW273063  11.225   2.629   7.669 -1.5940 -0.7111  1.2387
20447SOL     OW73064   6.158   7.778   4.673 -0.3621  0.6540 -0.5815
20447SOL    HW173065   6.142   7.684   4.672  1.8475  0.2160 -1.5869
20447SOL    HW273066   6.072   7.817   4.658 -1.1150 -1.2571 -1.6447
20448SOL     OW73067   1.195   2.192   9.402  0.4998  0.3837  0.6269
20448SOL    HW173068   1.107   2.171   9.371 -0.4294  1.0655  2.6531
20448SOL    HW273069   1.204   2.144   9.484  2.0668  0.2648  0.4230
20449SOL     OW73070   6.249   4.062   4.683 -0.0966  0.0884 -0.2399
20449SOL    HW173071   6.268   4.133   4.621 -0.2532 -0.3264 -0.7711
20449SOL    HW273072   6.175   4.016   4.644 -0.7447  0.3239  0.6745
20450SOL     OW73073   9.548   6.822  10.197  0.0763  0.6410  0.3132
20450SOL    HW173074   9.472   6.797  10.249 -0.5050  0.0845 -0.7714
20450SOL    HW273075   9.537   6.916  10.183 -0.3538  0.5886  0.2774
20451SOL     OW73076   3.185  11.692   4.925  0.2677  0.1795 -0.0532
20451SOL    HW173077   3.235  11.709   4.845 -0.2391 -2.0629 -0.9363
20451SOL    HW273078   3.102  11.738   4.911 -0.5922 -1.7555 -1.7752
20452SOL     OW73079   5.900   4.873   8.568 -0.5388 -0.2069 -0.2056
20452SOL    HW173080   5.865   4.894   8.654  0.3638  0.4814  0.0162
20452SOL    HW273081   5.934   4.956   8.535 -0.4096 -0.5655 -1.0029
20453SOL     OW73082   6.268  10.576  10.372  0.5514 -0.0716 -0.2356
20453SOL    HW173083   6.203  10.530  10.425 -0.0333  1.3018  0.2901
20453SOL    HW273084   6.348  10.525  10.384  0.1883 -0.3847  1.1611
20454SOL     OW73085  10.963   1.048  11.121 -0.1312  1.0058  0.7410
20454SOL    HW173086  10.930   1.010  11.040  0.6076 -0.7805  1.2269
20454SOL    HW273087  10.886   1.051  11.179 -0.3421  0.9010  0.4671
20455SOL     OW73088   1.768   0.379   3.845 -0.0023 -0.0168 -0.2027
20455SOL    HW173089   1.697   0.441   3.861  1.6038  2.2212 -1.2003
20455SOL    HW273090   1.797   0.398   3.756  0.5510 -2.2789 -0.5693
20456SOL     OW73091   8.486   8.396   6.322  0.0577  0.1499 -0.2536
20456SOL    HW173092   8.510   8.348   6.243  0.0447  0.7628 -0.6374
20456SOL    HW273093   8.429   8.336   6.370 -1.4320  0.4116 -1.5926
20457SOL     OW73094  10.734   2.365   6.049  0.0804  0.2396  0.0076
20457SOL    HW173095  10.730   2.275   6.015 -2.0873  0.5484 -0.7422
20457SOL    HW273096  10.752   2.354   6.143 -1.3871 -1.0909  0.1903
20458SOL     OW73097   1.990   5.614   7.123  0.1276 -0.3859  0.5402
20458SOL    HW173098   2.025   5.636   7.036 -0.3638 -1.1884  0.1240
20458SOL    HW273099   1.980   5.519   7.121 -2.4087 -0.1935  0.4931
20459SOL     OW73100  11.894   8.913   7.043  0.3039  0.3327  0.7643
20459SOL    HW173101  11.858   8.949   6.962  0.8925  0.7338  0.6790
20459SOL    HW273102  11.972   8.864   7.016 -1.3703 -2.5441  0.6283
20460SOL     OW73103   8.398   5.210   6.795 -0.4385  0.1920  0.0726
20460SOL    HW173104   8.374   5.139   6.736  0.0857  0.0263  0.0496
20460SOL    HW273105   8.492   5.197   6.812 -0.8111 -0.4545  1.8610
20461SOL     OW73106   2.453  11.383   7.111  0.1700  0.4626 -0.0280
20461SOL    HW173107   2.493  11.380   7.198 -1.1264 -1.0715  0.5745
20461SOL    HW273108   2.523  11.355   7.051  1.2712  2.1711  0.3943
20462SOL     OW73109   8.900   6.591   8.664 -0.0031  0.1668  0.0711
20462SOL    HW173110   8.831   6.577   8.729  0.5455 -0.4120  0.5403
20462SOL    HW273111   8.982   6.587   8.714  0.3581  1.5263 -0.3639
20463SOL     OW73112   8.850   5.243  11.762 -0.4022 -0.1357 -0.2614
20463SOL    HW173113   8.823   5.331  11.737 -0.1988  0.0165  0.0397
20463SOL    HW273114   8.848   5.193  11.681  0.0536  0.2960 -0.5489
20464SOL     OW73115   1.508   2.543   6.983 -0.2106  0.4651  0.4578
20464SOL    HW173116   1.456   2.603   6.930  0.9013  0.2794 -0.9302
20464SOL    HW273117   1.517   2.465   6.927  0.5352  0.0319  1.1646
20465SOL     OW73118   4.013   0.347   9.424 -0.0949 -0.4147 -0.1595
20465SOL    HW173119   4.094   0.372   9.379  0.4711 -1.0135  0.5068
20465SOL    HW273120   3.967   0.290   9.362 -0.4492  0.6376 -0.8974
20466SOL     OW73121   0.859   3.617  10.655  0.3414  0.1700 -0.1309
20466SOL    HW173122   0.835   3.692  10.710 -1.4320 -2.7133  3.4794
20466SOL    HW273123   0.778   3.594  10.609  0.4024 -0.4835  0.0790
20467SOL     OW73124   8.918   9.148   7.975  0.2845 -0.2210 -0.4682
20467SOL    HW173125   8.828   9.117   7.962  0.2386 -0.0267 -0.6019
20467SOL    HW273126   8.968   9.105   7.905  0.6149 -1.6820  0.6016
20468SOL     OW73127  11.319   5.475   6.703  0.2521  0.0001 -0.0451
20468SOL    HW173128  11.256   5.460   6.773  1.5879  0.2051  1.2476
20468SOL    HW273129  11.333   5.570   6.703  0.4027 -0.0189 -0.4503
20469SOL     OW73130   1.704   8.098   5.760  0.5422 -0.6297 -0.8915
20469SOL    HW173131   1.632   8.093   5.823  0.1842 -0.7791 -1.3085
20469SOL    HW273132   1.757   8.020   5.777  0.6027 -0.5189 -0.5816
20470SOL     OW73133   7.516   5.221   2.847  0.3439 -0.0940  0.0774
20470SOL    HW173134   7.528   5.243   2.939  1.7741 -0.2456 -0.0503
20470SOL    HW273135   7.588   5.161   2.827 -0.3518 -0.6063 -0.9668
20471SOL     OW73136   8.426   3.071   4.091  0.1267 -0.0054 -0.2026
20471SOL    HW173137   8.365   3.095   4.161  0.5778 -0.9803  0.5359
20471SOL    HW273138   8.429   2.976   4.093  0.2159 -0.0482 -1.5059
20472SOL     OW73139   7.346   0.633   9.430  0.1518 -0.2052  0.2835
20472SOL    HW173140   7.398   0.635   9.349 -0.8789 -1.3415 -0.4500
20472SOL    HW273141   7.389   0.696   9.488  1.8095 -0.4573 -0.6004
20473SOL     OW73142   6.889   6.881   4.437 -0.6673  0.4110  0.4256
20473SOL    HW173143   6.911   6.809   4.378  1.1487 -0.1280  1.6735
20473SOL    HW273144   6.890   6.959   4.381  1.4872 -0.0167 -0.2044
20474SOL     OW73145   0.359   1.680   4.881 -0.8480  0.2484 -0.0781
20474SOL    HW173146   0.367   1.621   4.807 -0.9912  1.7237 -1.3086
20474SOL    HW273147   0.349   1.622   4.957  1.1226 -1.3424 -0.9345
20475SOL     OW73148   5.530   4.552   0.650  0.2208  0.3247  0.2978
20475SOL    HW173149   5.533   4.503   0.568 -2.0598 -0.0964  0.4019
20475SOL    HW273150   5.603   4.613   0.644  2.2031 -1.9513 -0.5456
20476SOL     OW73151   8.263   6.276   3.588  0.0417  0.4770 -0.2980
20476SOL    HW173152   8.217   6.258   3.670  0.1629 -0.3431 -0.4086
20476SOL    HW273153   8.206   6.240   3.520  1.0047 -0.9118 -0.4130
20477SOL     OW73154   9.139   7.178  10.924  0.3828 -0.0087  0.5050
20477SOL    HW173155   9.178   7.091  10.924  0.3850 -0.0081  0.5628
20477SOL    HW273156   9.185   7.225  10.854  2.5232  0.8903  2.3614
20478SOL     OW73157   7.259   7.537   3.064 -0.0084  0.7340 -0.3926
20478SOL    HW173158   7.185   7.584   3.102 -0.2918  0.6926 -0.8862
20478SOL    HW273159   7.268   7.572   2.975  0.3734  0.5287 -0.4410
20479SOL     OW73160   8.732   3.769   5.068 -0.1175  0.3072  0.1040
20479SOL    HW173161   8.699   3.813   5.147  0.5092 -2.1886  1.8863
20479SOL    HW273162   8.823   3.798   5.060 -0.6408  1.8268 -0.7251
20480SOL     OW73163   7.204   8.465   0.929 -0.1560 -0.2135  0.4756
20480SOL    HW173164   7.138   8.410   0.972  0.5871 -0.9333  0.7233
20480SOL    HW273165   7.283   8.410   0.927  0.2671  0.4126 -0.3595
20481SOL     OW73166  11.224   1.838   2.448 -0.1075 -0.5208 -0.3619
20481SOL    HW173167  11.273   1.785   2.385  2.5588  0.4369  0.7793
20481SOL    HW273168  11.240   1.795   2.532  0.6027  1.0585  0.3330
20482SOL     OW73169   4.628   4.422   7.589 -0.2848  0.3456 -0.5905
20482SOL    HW173170   4.572   4.482   7.540 -1.5731 -1.0455 -0.9221
20482SOL    HW273171   4.641   4.347   7.530 -1.6292 -1.2488  1.0003
20483SOL     OW73172   2.526  10.022   6.853 -0.3551  0.2481  0.3220
20483SOL    HW173173   2.540   9.929   6.872 -1.5172  0.3186  1.6553
20483SOL    HW273174   2.611  10.052   6.819  0.3956 -1.0184  0.9982
20484SOL     OW73175  10.156   5.111   8.677  0.1370  0.0496  0.4638
20484SOL    HW173176  10.066   5.143   8.673  0.4686  1.2622  1.6706
20484SOL    HW273177  10.148   5.021   8.709 -0.6957 -0.2216 -0.4796
20485SOL     OW73178   7.663  11.522   8.974  0.1345  0.2325  0.0005
20485SOL    HW173179   7.663  11.459   8.902  1.1173 -0.6470  0.7310
20485SOL    HW273180   7.735  11.582   8.954 -0.8689  1.2345 -0.7507
20486SOL     OW73181   0.081   0.186   6.790 -0.5301 -0.2078  0.9202
20486SOL    HW173182   0.141   0.120   6.755 -0.7226  0.6965 -1.3188
20486SOL    HW273183  -0.003   0.167   6.747 -0.6105  1.3913  0.2803
20487SOL     OW73184  11.865   5.700   9.468  0.4087  0.2994 -0.1285
20487SOL    HW173185  11.876   5.609   9.441  1.1399 -0.0100  1.1242
20487SOL    HW273186  11.954   5.731   9.483  0.0773  0.6044  1.3321
20488SOL     OW73187   1.399  11.866   8.930 -0.5589  0.7683  0.5275
20488SOL    HW173188   1.416  11.916   9.010  0.3306 -0.7160  1.3248
20488SOL    HW273189   1.351  11.789   8.960  0.1917 -0.0384 -0.2889
20489SOL     OW73190   7.265   1.259   5.477  0.2257 -0.1784 -0.0862
20489SOL    HW173191   7.176   1.239   5.506  0.5727 -1.8526 -0.0834
20489SOL    HW273192   7.322   1.226   5.546  0.8649  2.1532  0.5994
20490SOL     OW73193   7.912   8.143  11.919 -0.2539  0.3313  0.7584
20490SOL    HW173194   7.932   8.052  11.943  0.4496  0.3810  0.3584
20490SOL    HW273195   7.974   8.195  11.969 -1.4017  0.6820  1.8815
20491SOL     OW73196   6.290   4.106   8.774  0.4741  0.0665  0.2919
20491SOL    HW173197   6.283   4.014   8.748  0.6327  0.1525 -0.0663
20491SOL    HW273198   6.373   4.135   8.736  0.4186  0.3601  0.3955
20492SOL     OW73199   3.050   1.701   3.088  0.0271 -0.6361  0.0183
20492SOL    HW173200   3.083   1.613   3.106 -0.7137 -1.1868 -1.1994
20492SOL    HW273201   2.970   1.707   3.140 -0.4650 -1.0742 -0.6724
20493SOL     OW73202  10.214   7.720   8.361 -0.1598 -0.0769 -0.1241
20493SOL    HW173203  10.133   7.685   8.398  0.1779 -0.5231  0.2100
20493SOL    HW273204  10.201   7.715   8.266 -0.6690  0.2136 -0.0736
20494SOL     OW73205   7.627   8.564   6.219  0.0568 -0.6409 -0.2507
20494SOL    HW173206   7.662   8.475   6.230  1.4302 -0.5367 -2.8323
20494SOL    HW273207   7.702   8.621   6.235  0.1355 -0.1959 -1.9457
20495SOL     OW73208   3.746   4.024   9.916  0.0147  0.3589 -0.4818
20495SOL    HW173209   3.819   4.086   9.915 -0.2567  0.6955 -1.4331
20495SOL    HW273210   3.776   3.951   9.969  0.9393  0.6236 -0.6306
20496SOL     OW73211   0.436   6.927   7.746  0.0756  0.0051  0.0156
20496SOL    HW173212   0.406   6.849   7.700 -1.3278  1.1907 -1.1743
20496SOL    HW273213   0.417   6.909   7.838  0.3276 -1.2820 -0.1641
20497SOL     OW73214   5.262   1.355  10.228 -0.0378  0.0623 -0.1839
20497SOL    HW173215   5.328   1.308  10.279 -0.3092 -0.5030 -0.3494
20497SOL    HW273216   5.287   1.447  10.236  0.6382 -0.1266 -0.0614
20498SOL     OW73217   8.475   4.947   9.440  0.5208  0.1913 -0.4543
20498SOL    HW173218   8.482   4.926   9.347 -0.1370  0.4386 -0.5655
20498SOL    HW273219   8.507   5.036   9.447  2.0332 -0.3444 -0.1910
20499SOL     OW73220   1.227   8.631   6.459 -0.5358  0.5100 -0.4815
20499SOL    HW173221   1.147   8.629   6.512  0.3032  1.8907  0.9236
20499SOL    HW273222   1.260   8.541   6.464 -1.7369  0.0355 -0.6848
20500SOL     OW73223   6.609   2.203   2.807  0.5761  0.2232 -0.0343
20500SOL    HW173224   6.662   2.280   2.787 -0.5746  0.5334 -2.1350
20500SOL    HW273225   6.631   2.182   2.898  2.0043  2.1285  0.1236
20501SOL     OW73226   8.159   4.423   0.843 -0.2482  0.1752  0.5383
20501SOL    HW173227   8.100   4.357   0.882 -0.5062 -0.4821 -0.9154
20501SOL    HW273228   8.103   4.500   0.831 -1.1137 -0.7052 -1.5964
20502SOL     OW73229   3.119   0.203   0.949  0.5012 -0.2441  0.2776
20502SOL    HW173230   3.090   0.288   0.981 -1.2409 -0.9261  0.6074
20502SOL    HW273231   3.117   0.212   0.853  0.5409  0.1423  0.3096
20503SOL     OW73232   6.131  10.222  11.089  0.1684  0.0495  0.4385
20503SOL    HW173233   6.224  10.220  11.107  0.1096 -1.6047  0.7534
20503SOL    HW273234   6.115  10.144  11.036 -1.0202  0.3417  0.3220
20504SOL     OW73235   0.869   1.138   7.466 -0.6063  0.0498  0.0200
20504SOL    HW173236   0.911   1.200   7.406  1.9051 -0.0723  1.4987
20504SOL    HW273237   0.876   1.054   7.421  1.1181 -0.0210  0.3537
20505SOL     OW73238   3.154   3.725   6.789 -0.0627 -0.1731 -0.2969
20505SOL    HW173239   3.198   3.690   6.867 -0.5325 -0.9154 -0.3555
20505SOL    HW273240   3.213   3.793   6.756  1.5580 -1.8439 -0.9901
20506SOL     OW73241   5.791   3.593   7.964  0.0234  0.3464  0.0811
20506SOL    HW173242   5.862   3.658   7.967  0.0400  0.3369 -0.0961
20506SOL    HW273243   5.827   3.521   7.911 -0.2247  0.4724 -0.2651
20507SOL     OW73244   2.804   5.824   7.141  0.0647  0.2349 -0.0122
20507SOL    HW173245   2.748   5.800   7.216 -0.1351  0.6268 -0.0356
20507SOL    HW273246   2.888   5.782   7.160 -0.1911 -0.2450  0.0914
20508SOL     OW73247   0.492   4.939   7.317 -0.2986  0.4488  0.7336
20508SOL    HW173248   0.540   5.010   7.275 -1.2251  0.8390  0.2902
20508SOL    HW273249   0.474   4.877   7.246 -1.5208  0.9179  0.6082
20509SOL     OW73250   3.431   0.948   1.941 -0.7209  0.1268 -0.3867
20509SOL    HW173251   3.494   0.923   1.873  1.0414 -0.6986  1.4632
20509SOL    HW273252   3.412   1.040   1.922  1.0546  0.4054 -1.0046
20510SOL     OW73253   8.520   5.866   6.582  0.6228  0.4307  0.0296
20510SOL    HW173254   8.577   5.940   6.561  0.8080  0.4005  0.4142
20510SOL    HW273255   8.573   5.789   6.563  0.9624  0.4001  1.0168
20511SOL     OW73256   6.552   8.143   1.635 -1.0422 -0.1174 -0.2661
20511SOL    HW173257   6.546   8.129   1.540  0.3426  1.4052 -0.6126
20511SOL    HW273258   6.620   8.083   1.664  0.5291  1.3785 -0.7349
20512SOL     OW73259   0.343   2.653   9.949 -0.3428 -0.1757 -0.0532
20512SOL    HW173260   0.265   2.638  10.001 -0.3937  1.1384  0.2911
20512SOL    HW273261   0.375   2.566   9.926 -0.9697 -0.7454  1.2035
20513SOL     OW73262   5.438   6.226   3.820  0.6334  0.1718  0.0284
20513SOL    HW173263   5.441   6.275   3.903  0.1645  0.0546  0.1149
20513SOL    HW273264   5.524   6.241   3.781  1.2161 -0.5373  0.9872
20514SOL     OW73265   5.840   4.253   1.347 -0.6326 -0.2813  0.4334
20514SOL    HW173266   5.790   4.256   1.428 -0.6652 -1.0983  0.4451
20514SOL    HW273267   5.918   4.203   1.368 -1.2177 -1.5714 -0.3428
20515SOL     OW73268   1.169   2.525   7.693 -0.0347 -0.1774  0.3397
20515SOL    HW173269   1.170   2.494   7.784 -0.7425  1.3889  0.9266
20515SOL    HW273270   1.205   2.614   7.698 -0.5674  0.1162 -0.8256
20516SOL     OW73271   3.984   9.370  11.077  0.0415  0.2718 -0.5929
20516SOL    HW173272   3.934   9.340  11.153 -1.2845 -0.8773 -1.8657
20516SOL    HW273273   4.076   9.360  11.103 -0.3738  0.3954  1.0248
20517SOL     OW73274   8.669  11.495  11.406  0.5181 -0.0478 -0.0093
20517SOL    HW173275   8.735  11.562  11.391  0.5709  0.1306  0.9918
20517SOL    HW273276   8.586  11.542  11.401  0.5807  0.2231  1.3265
20518SOL     OW73277   1.403   9.072   6.626  0.2039  0.4314  0.0120
20518SOL    HW173278   1.308   9.071   6.616  0.3876  1.0631 -2.1226
20518SOL    HW273279   1.431   8.982   6.609  0.0553  0.4225 -0.1799
20519SOL     OW73280  10.435   8.579   8.875 -0.1710 -0.1341 -0.0055
20519SOL    HW173281  10.417   8.629   8.796 -2.6112 -0.5660  0.1899
20519SOL    HW273282  10.518   8.534   8.858 -0.9001 -0.6613 -2.5564
20520SOL     OW73283   4.114   9.214   1.079 -0.2061 -0.2700 -0.3990
20520SOL    HW173284   4.041   9.270   1.054 -0.1281 -0.2220 -0.5190
20520SOL    HW273285   4.164   9.203   0.998  0.6088  0.7084 -0.0465
20521SOL     OW73286   5.693   5.302   0.723  0.8549  0.6901  0.0245
20521SOL    HW173287   5.764   5.304   0.659 -0.3204 -2.3913 -1.5817
20521SOL    HW273288   5.716   5.231   0.784 -0.1229  0.6413  0.3615
20522SOL     OW73289   6.175  10.585   3.467 -0.6185  0.3600  0.0885
20522SOL    HW173290   6.246  10.628   3.420  0.3098 -0.8772  0.3008
20522SOL    HW273291   6.212  10.564   3.553 -0.1610 -2.8976 -0.7632
20523SOL     OW73292   8.355   4.357   1.908  0.8257 -0.0569 -0.3662
20523SOL    HW173293   8.317   4.412   1.840 -0.2609 -0.7750 -0.3519
20523SOL    HW273294   8.436   4.323   1.870 -0.7669 -2.1052 -2.1187
20524SOL     OW73295  10.329  11.732   8.678  0.2584  0.3063  0.4292
20524SOL    HW173296  10.317  11.709   8.770 -1.6216 -0.8860 -0.0575
20524SOL    HW273297  10.253  11.694   8.633  0.8793  1.2479 -1.5580
20525SOL     OW73298   3.188   7.159   9.253 -0.0116 -0.4201 -0.7237
20525SOL    HW173299   3.171   7.211   9.332 -0.2327  0.4514 -1.3295
20525SOL    HW273300   3.216   7.074   9.286 -0.8996 -0.3340  0.3020
20526SOL     OW73301   7.676   3.594   8.099 -0.4907  0.0972 -0.1974
20526SOL    HW173302   7.736   3.582   8.173 -2.1791 -0.9782  1.0770
20526SOL    HW273303   7.617   3.519   8.104 -2.1636  1.2793 -1.1604
20527SOL     OW73304   9.655   7.746   8.107 -0.4241 -0.0670 -0.1296
20527SOL    HW173305   9.748   7.736   8.085 -0.2914 -0.4302  0.5828
20527SOL    HW273306   9.646   7.706   8.193 -1.3997 -0.7395 -0.5249
20528SOL     OW73307   9.361  10.909   6.298 -0.4447 -0.2163 -0.3657
20528SOL    HW173308   9.350  10.841   6.365  1.5325  0.9706  1.2813
20528SOL    HW273309   9.302  10.979   6.326 -1.4492 -0.6763 -1.2847
20529SOL     OW73310   5.640   9.208   0.812 -0.6534  0.5307 -0.5973
20529SOL    HW173311   5.619   9.209   0.719  1.8156 -0.1170 -1.2334
20529SOL    HW273312   5.730   9.241   0.817 -0.1078 -1.0081  1.3492
20530SOL     OW73313   0.743   1.623   7.990 -0.9234  0.7049  0.1761
20530SOL    HW173314   0.670   1.682   8.008 -1.8874  0.0959 -1.5326
20530SOL    HW273315   0.820   1.680   7.989 -1.8961  2.0967 -1.9753
20531SOL     OW73316   9.502   1.968   2.446 -0.1887  0.3749  0.4711
20531SOL    HW173317   9.567   2.036   2.463  2.2303 -1.6922  0.2668
20531SOL    HW273318   9.548   1.906   2.388 -2.5698 -0.9512 -0.1121
20532SOL     OW73319  10.615  11.799   0.276  0.4698 -0.1807  0.0050
20532SOL    HW173320  10.559  11.821   0.200 -0.3058  0.1209  0.6450
20532SOL    HW273321  10.690  11.755   0.238 -0.3628 -0.9027 -0.8672
20533SOL     OW73322   4.551   1.631   5.997  0.0765 -0.7165 -0.0604
20533SOL    HW173323   4.480   1.691   6.015  0.2668 -0.7590  0.8419
20533SOL    HW273324   4.581   1.601   6.083  0.9452 -0.9711 -0.4343
20534SOL     OW73325   2.340   5.622   0.738 -0.1357  0.1599 -0.1515
20534SOL    HW173326   2.343   5.693   0.674  0.8280 -0.2201 -0.5523
20534SOL    HW273327   2.422   5.631   0.788  0.2658 -0.9958 -0.5782
20535SOL     OW73328   2.462   6.568   8.440  0.2198  0.0799 -0.0830
20535SOL    HW173329   2.368   6.554   8.430 -0.0559  0.6805  1.3265
20535SOL    HW273330   2.470   6.617   8.523  1.8217 -0.7668  0.3063
20536SOL     OW73331   4.540   1.674   7.173 -0.6513  0.2833  0.4004
20536SOL    HW173332   4.527   1.720   7.256  1.0628  1.9120 -0.1623
20536SOL    HW273333   4.519   1.739   7.106  0.1193 -0.3044 -0.4364
20537SOL     OW73334   4.211   7.372   6.824 -0.3500  0.5891 -0.1899
20537SOL    HW173335   4.135   7.329   6.786  1.1428 -0.9198 -1.6516
20537SOL    HW273336   4.247   7.308   6.885  1.7646 -0.3129 -2.2135
20538SOL     OW73337   1.254   0.747   7.423  0.2302 -0.0857  0.1012
20538SOL    HW173338   1.232   0.767   7.332  1.2641  1.2584  0.1259
20538SOL    HW273339   1.199   0.806   7.474 -1.6814 -2.0628  0.4742
20539SOL     OW73340   5.685   6.379   1.660  0.3380  0.1412 -0.4436
20539SOL    HW173341   5.697   6.301   1.714  1.9727 -1.3607 -2.7802
20539SOL    HW273342   5.595   6.405   1.675  1.0194  0.7433  4.0402
20540SOL     OW73343   0.919   1.399   2.708 -0.4220  0.4289 -0.8551
20540SOL    HW173344   0.940   1.436   2.793  1.6661 -0.5353 -0.8909
20540SOL    HW273345   0.834   1.436   2.686  0.0544  2.5359  0.5726
20541SOL     OW73346  11.742   9.976   1.269  0.1864 -0.2472  0.5293
20541SOL    HW173347  11.727   9.882   1.280 -0.5593 -0.1385  0.4791
20541SOL    HW273348  11.686  10.017   1.335 -0.9518  0.2277 -0.6995
20542SOL     OW73349   2.272   5.788   8.256  0.3023  0.1035 -0.0235
20542SOL    HW173350   2.337   5.826   8.197 -0.3918 -0.0092 -0.8829
20542SOL    HW273351   2.317   5.714   8.297  0.6779 -0.0435 -0.6903
20543SOL     OW73352  10.076  10.742   4.696 -0.0007 -0.9995  0.5453
20543SOL    HW173353  10.023  10.715   4.771 -0.5426  0.9063  0.9152
20543SOL    HW273354  10.141  10.802   4.734  0.0914 -0.4769 -0.4136
20544SOL     OW73355  11.359   1.695   6.427 -0.6398 -0.6516 -0.0396
20544SOL    HW173356  11.323   1.769   6.476 -1.1556 -0.5095 -0.6208
20544SOL    HW273357  11.284   1.660   6.378 -0.2446 -1.1031 -0.3278
20545SOL     OW73358   5.257   1.879   7.554  0.1136 -0.3587  0.5451
20545SOL    HW173359   5.209   1.798   7.567 -0.5698 -0.1504 -0.5394
20545SOL    HW273360   5.253   1.895   7.460  2.9950 -0.7303  0.2751
20546SOL     OW73361   1.016  11.262   6.219 -0.3705 -0.4114  0.3466
20546SOL    HW173362   1.088  11.325   6.213  0.4703 -1.2996  0.7775
20546SOL    HW273363   1.049  11.194   6.277 -0.9328 -1.7042 -0.8188
20547SOL     OW73364  11.401   2.401   7.303 -0.1213 -0.0492  0.4569
20547SOL    HW173365  11.455   2.374   7.229 -0.0414 -0.7605  0.7621
20547SOL    HW273366  11.316   2.360   7.287 -0.1052 -0.2026  0.7516
20548SOL     OW73367  10.594   4.615   3.056 -0.0946 -0.0357  0.1771
20548SOL    HW173368  10.530   4.678   3.023  0.3095  0.2980  0.0175
20548SOL    HW273369  10.594   4.545   2.991 -0.4781 -0.1588  0.3068
20549SOL     OW73370   4.360   6.117  10.140 -0.3886  0.1175 -0.4188
20549SOL    HW173371   4.455   6.114  10.129 -0.2800  0.0175  0.4520
20549SOL    HW273372   4.335   6.206  10.116 -0.2112 -0.1255 -1.5775
20550SOL     OW73373   9.271   8.715  11.155 -0.5180 -0.5983  0.2051
20550SOL    HW173374   9.187   8.706  11.199 -0.5961  1.1757  0.4932
20550SOL    HW273375   9.325   8.645  11.192 -1.9352 -1.9586 -0.2295
20551SOL     OW73376   9.222   1.106   6.710 -0.0386  0.3385  0.4593
20551SOL    HW173377   9.230   1.035   6.647  0.8984 -0.3901  1.3673
20551SOL    HW273378   9.186   1.179   6.660 -1.0682 -0.7700 -0.4911
20552SOL     OW73379   7.568   2.116   0.206 -0.6050 -0.0394  0.2169
20552SOL    HW173380   7.633   2.058   0.168 -1.0696  0.0319 -0.7047
20552SOL    HW273381   7.605   2.142   0.291 -0.1326 -1.1934  0.3703
20553SOL     OW73382   0.923   5.188   5.181 -0.3301 -0.4353  0.0378
20553SOL    HW173383   0.843   5.158   5.137 -0.4218 -0.4438  0.2079
20553SOL    HW273384   0.924   5.138   5.264 -0.1380 -0.4510  0.0261
20554SOL     OW73385   3.857   0.415   5.904  0.0051  0.1936  0.0463
20554SOL    HW173386   3.810   0.384   5.982 -0.8945 -0.3659 -0.7100
20554SOL    HW273387   3.895   0.499   5.932 -0.6999  0.2352  0.9406
20555SOL     OW73388  10.568   6.280   4.588  0.2898 -0.2405  0.1546
20555SOL    HW173389  10.602   6.342   4.654 -0.3086  0.1096  0.1410
20555SOL    HW273390  10.646   6.239   4.552  0.7494  0.9227 -0.2330
20556SOL     OW73391   8.273   6.053   8.701 -0.1754 -0.0671 -0.2791
20556SOL    HW173392   8.193   6.036   8.750  0.2287  0.8031  0.7014
20556SOL    HW273393   8.299   5.967   8.668 -1.5996 -0.3337 -0.7725
20557SOL     OW73394  11.270   3.433  11.916  0.3809  0.2885  0.3343
20557SOL    HW173395  11.318   3.510  11.885  1.6013 -0.9204 -0.9223
20557SOL    HW273396  11.208   3.468  11.981  1.7661  2.1333  0.7486
20558SOL     OW73397   5.778  10.815  10.474 -0.0318 -0.2725 -0.4197
20558SOL    HW173398   5.815  10.814  10.386  2.3977 -0.0933  0.5369
20558SOL    HW273399   5.756  10.907  10.489 -1.2661 -0.4260 -1.1017
20559SOL     OW73400   0.686   1.110   6.272 -0.2909  0.3390  0.1648
20559SOL    HW173401   0.730   1.194   6.267  2.5215 -1.0453 -0.0449
20559SOL    HW273402   0.664   1.088   6.181 -0.6199  0.6165  0.1748
20560SOL     OW73403  11.744   9.759   4.940 -0.3952  0.1698  0.6506
20560SOL    HW173404  11.689   9.824   4.896  0.0107  0.4600  0.5644
20560SOL    HW273405  11.783   9.807   5.013 -0.1348  0.0094  0.6170
20561SOL     OW73406   0.451   9.073   7.682  0.0351 -0.1667  0.0781
20561SOL    HW173407   0.515   9.131   7.639 -1.2226  0.9152 -0.4171
20561SOL    HW273408   0.499   9.036   7.756  1.4239  0.1103 -0.6412
20562SOL     OW73409   8.088   8.463   5.447  0.0482  0.1432  0.2836
20562SOL    HW173410   8.127   8.481   5.533 -0.8093  0.0866  0.6972
20562SOL    HW273411   8.010   8.519   5.445 -1.4614 -1.8106  0.6823
20563SOL     OW73412   2.301  10.711   4.130  0.2835  0.5854 -0.5029
20563SOL    HW173413   2.250  10.706   4.050  0.5575  0.1481 -0.6500
20563SOL    HW273414   2.248  10.765   4.189 -0.5034 -0.1344 -0.5351
20564SOL     OW73415   6.167   0.429   1.959  0.1703  0.4855 -0.4180
20564SOL    HW173416   6.211   0.347   1.937  0.3364  1.0684 -2.3906
20564SOL    HW273417   6.238   0.493   1.967  0.1103  0.3740  1.7809
20565SOL     OW73418   3.315   3.552   0.791 -0.6744 -0.2840 -0.0097
20565SOL    HW173419   3.320   3.488   0.862 -0.1987 -0.6882 -0.4008
20565SOL    HW273420   3.222   3.575   0.786 -0.8705 -1.0348  0.0507
20566SOL     OW73421   2.128  10.377   5.268  0.2257 -0.2363 -0.5562
20566SOL    HW173422   2.104  10.287   5.292 -1.7029  0.4443  0.2502
20566SOL    HW273423   2.069  10.400   5.197 -0.5256  0.9532  0.4008
20567SOL     OW73424   0.324   9.669   9.082 -0.2211  0.2788  0.1583
20567SOL    HW173425   0.385   9.611   9.126 -0.1113 -0.6589 -1.1734
20567SOL    HW273426   0.379   9.733   9.038 -0.1472 -0.6956 -1.2214
20568SOL     OW73427   8.731   8.357   5.747  0.3839  0.0319 -0.0489
20568SOL    HW173428   8.676   8.402   5.811  1.1991  0.5276  0.3114
20568SOL    HW273429   8.770   8.284   5.796  2.2749  1.3466  0.4906
20569SOL     OW73430   7.148   7.460   4.110  0.4624  0.5604  0.2052
20569SOL    HW173431   7.154   7.551   4.137  0.8384  0.5329  0.2256
20569SOL    HW273432   7.204   7.413   4.172 -1.1863  0.0504  1.3748
20570SOL     OW73433   7.999   3.633   9.887 -0.6296 -0.0838  0.4951
20570SOL    HW173434   7.923   3.663   9.836 -0.5402 -1.6099 -0.6010
20570SOL    HW273435   8.032   3.713   9.929 -0.9866  1.1938 -1.4938
20571SOL     OW73436   6.015   3.349   4.329  0.0927 -0.5336  0.2558
20571SOL    HW173437   6.030   3.270   4.278 -1.1489 -0.6261  0.0263
20571SOL    HW273438   5.959   3.404   4.275 -0.9661 -0.4894  1.3544
20572SOL     OW73439   0.765   9.925   8.654  0.0917  0.2321  0.1881
20572SOL    HW173440   0.693   9.864   8.640  0.1196 -0.2454  1.9306
20572SOL    HW273441   0.723  10.012   8.654 -0.1924  0.1047 -0.6294
20573SOL     OW73442   0.849   2.876   9.939 -0.2444  0.1229  0.5756
20573SOL    HW173443   0.854   2.787   9.973  0.4947 -0.0211  0.0885
20573SOL    HW273444   0.925   2.885   9.882 -0.2109  1.1243  0.7611
20574SOL     OW73445  11.848   0.852   2.958 -0.0930  0.0006 -0.2551
20574SOL    HW173446  11.797   0.932   2.974 -0.2390 -0.3874  1.4701
20574SOL    HW273447  11.835   0.833   2.865 -0.5023  1.6695 -0.5662
20575SOL     OW73448   2.861   2.008   5.969 -0.4143  0.6060  0.1095
20575SOL    HW173449   2.871   2.094   6.010 -0.2070  0.4108  0.4707
20575SOL    HW273450   2.945   1.964   5.982 -0.3409  0.5413 -0.5370
20576SOL     OW73451  10.508   6.180   3.556 -0.4660  0.3355 -0.5344
20576SOL    HW173452  10.467   6.095   3.544  1.3167 -0.6622  0.0443
20576SOL    HW273453  10.591   6.173   3.508  0.1893  1.3676  0.4044
20577SOL     OW73454   9.923   8.230   3.342  0.0429  0.3590 -0.0149
20577SOL    HW173455  10.011   8.249   3.308 -0.7142 -0.6137 -2.7568
20577SOL    HW273456   9.938   8.179   3.421  1.9443  1.4824  0.4004
20578SOL     OW73457   1.498   7.161   0.435  0.1468 -0.0200 -0.2394
20578SOL    HW173458   1.445   7.231   0.396  1.2131  0.2939 -1.1907
20578SOL    HW273459   1.588   7.184   0.413  0.5282 -1.7426 -0.6756
20579SOL     OW73460   7.700   3.352   7.601  0.1837 -0.3320  0.5389
20579SOL    HW173461   7.663   3.425   7.552 -0.7953 -0.4856  1.0303
20579SOL    HW273462   7.668   3.274   7.557  0.9209 -0.4823  0.2430
20580SOL     OW73463   1.690   1.874   9.729  0.0458  0.3762 -0.0332
20580SOL    HW173464   1.632   1.924   9.672  0.8994 -0.2054 -1.4419
20580SOL    HW273465   1.663   1.899   9.818 -2.3922  0.0492 -0.6202
20581SOL     OW73466   6.253   9.631  10.262 -0.1686 -0.3946  0.0786
20581SOL    HW173467   6.282   9.722  10.265  1.1501 -0.7710 -0.7190
20581SOL    HW273468   6.278   9.600  10.176  0.2816 -1.7957  0.6830
20582SOL     OW73469   7.718   3.546   2.398 -0.1854 -0.0499 -0.0683
20582SOL    HW173470   7.724   3.457   2.362 -0.2528 -0.5855  1.1886
20582SOL    HW273471   7.639   3.544   2.452  0.6262  0.3082  1.1727
20583SOL     OW73472   4.554   5.223   5.066 -0.0358 -0.1989  0.3248
20583SOL    HW173473   4.535   5.207   5.159  0.5814 -1.6131  0.2271
20583SOL    HW273474   4.553   5.319   5.058 -0.4264 -0.0637  1.7168
20584SOL     OW73475  11.772  10.907   7.188 -0.5198 -0.1368  0.0545
20584SOL    HW173476  11.794  10.882   7.098 -0.9778  0.4909 -0.2396
20584SOL    HW273477  11.852  10.889   7.238 -0.1622 -0.2125 -0.5320
20585SOL     OW73478   0.997   2.012   7.738  0.3421 -0.0840  0.1149
20585SOL    HW173479   1.026   1.943   7.678 -1.8259 -0.3172 -0.7408
20585SOL    HW273480   1.041   2.091   7.707 -1.2842 -0.0427 -2.3426
20586SOL     OW73481   3.643   5.810   0.588  0.2826 -0.3143 -0.7210
20586SOL    HW173482   3.630   5.866   0.512 -0.9089  1.3349  0.6180
20586SOL    HW273483   3.736   5.818   0.609 -0.0779  2.3531  0.2396
20587SOL     OW73484   9.156   2.867   6.788  0.1834 -0.1209 -0.1272
20587SOL    HW173485   9.071   2.903   6.812  0.3249 -0.8267  1.5292
20587SOL    HW273486   9.139   2.815   6.709 -0.8102  0.1831 -0.1181
20588SOL     OW73487   5.012   0.754   8.136  0.4391  0.2142 -0.7617
20588SOL    HW173488   4.967   0.698   8.073 -1.0318 -0.0482  0.4505
20588SOL    HW273489   5.104   0.752   8.109  0.0539 -0.9090 -2.1153
20589SOL     OW73490  11.733   5.453  11.421  0.4164 -0.6176  0.3401
20589SOL    HW173491  11.721   5.415  11.508 -2.5789 -0.5411  0.0472
20589SOL    HW273492  11.646   5.453  11.382  1.1703  1.9303 -1.6335
20590SOL     OW73493   5.005   0.484   6.653  0.1440 -0.3176  0.1262
20590SOL    HW173494   4.957   0.452   6.577  1.8042 -1.5240 -0.4761
20590SOL    HW273495   4.944   0.544   6.697 -1.5422 -1.0747 -1.0772
20591SOL     OW73496   3.657   9.813   2.316  0.3920 -0.3697 -0.2133
20591SOL    HW173497   3.606   9.877   2.265 -0.1664  0.0096  0.8033
20591SOL    HW273498   3.592   9.753   2.351  0.8886 -1.3144 -0.8822
20592SOL     OW73499   8.459   0.061   0.765 -0.2755 -0.1071 -0.8430
20592SOL    HW173500   8.388   0.068   0.828  0.8986 -0.3109  0.5495
20592SOL    HW273501   8.423   0.099   0.684 -1.5996  0.7572  0.1049
20593SOL     OW73502   7.360  10.208   8.261 -0.0304  0.6694  0.2820
20593SOL    HW173503   7.288  10.158   8.298 -1.0760  3.1281  1.7831
20593SOL    HW273504   7.325  10.243   8.179  0.4559 -0.3691 -0.3973
20594SOL     OW73505   8.601   7.681   3.849  0.5453 -0.2193  0.7312
20594SOL    HW173506   8.656   7.759   3.862 -1.3331  1.2153  0.4018
20594SOL    HW273507   8.552   7.673   3.931 -0.0416 -0.4186  0.3570
20595SOL     OW73508   4.878   9.540  11.881 -0.0357  0.0464 -0.2624
20595SOL    HW173509   4.792   9.576  11.858 -0.0554  0.7428  0.8607
20595SOL    HW273510   4.877   9.534  11.977  0.7714 -0.9485 -0.2972
20596SOL     OW73511   8.797   2.621   5.462  0.3897 -0.1257  0.0159
20596SOL    HW173512   8.805   2.548   5.401  1.0368  0.0459 -0.1041
20596SOL    HW273513   8.769   2.695   5.407  0.8306 -0.0072 -0.0481
20597SOL     OW73514   5.984   6.345  10.569 -0.6011  0.1688 -0.6734
20597SOL    HW173515   6.033   6.322  10.490  1.6926 -0.1778  0.7635
20597SOL    HW273516   5.971   6.262  10.615  1.3971  0.7246  1.0576
20598SOL     OW73517   3.794   8.045   7.515 -0.4280  0.2687  0.1819
20598SOL    HW173518   3.795   8.134   7.480 -1.7128 -0.1980 -1.1254
20598SOL    HW273519   3.781   8.056   7.609  0.3786  1.4826  0.1656
20599SOL     OW73520   7.437   0.701   4.646 -0.4645  0.5268 -0.3695
20599SOL    HW173521   7.464   0.786   4.681 -0.9865 -0.0620  1.6005
20599SOL    HW273522   7.407   0.720   4.557 -1.6080  2.6220  0.3846
20600SOL     OW73523  10.329  10.549   8.586 -0.0866 -0.1114  0.4987
20600SOL    HW173524  10.290  10.594   8.511 -0.3000  0.5193  0.9804
20600SOL    HW273525  10.396  10.610   8.619  0.0177 -0.3909  0.8102
20601SOL     OW73526   0.260  11.556   9.664  0.5886 -0.7062  0.0265
20601SOL    HW173527   0.275  11.628   9.603 -0.8984  0.0960  0.5543
20601SOL    HW273528   0.190  11.504   9.623 -1.1699  0.4210  1.4482
20602SOL     OW73529  10.325   3.444  10.875  0.1941  0.2949 -0.2994
20602SOL    HW173530  10.357   3.504  10.943  0.1037 -1.0520  0.9985
20602SOL    HW273531  10.370   3.362  10.893 -1.2051 -0.5997 -0.7391
20603SOL     OW73532   6.234   6.893   2.894  0.2743 -0.0805 -0.4890
20603SOL    HW173533   6.144   6.912   2.922 -0.4963 -1.7608 -1.6502
20603SOL    HW273534   6.279   6.977   2.902 -1.4416  0.8597 -0.0445
20604SOL     OW73535   8.689   5.314   7.318 -0.2284 -0.0658 -0.0381
20604SOL    HW173536   8.724   5.399   7.343  2.4302 -0.9390 -0.4165
20604SOL    HW273537   8.681   5.317   7.223  0.3587 -0.3809 -0.1033
20605SOL     OW73538   2.109   1.380   0.842  0.3541  0.2620 -0.0877
20605SOL    HW173539   2.075   1.310   0.787 -0.2989 -1.4429  2.3747
20605SOL    HW273540   2.204   1.378   0.826  0.1005  0.5499 -1.8924
20606SOL     OW73541   3.115   0.531  10.094 -0.1457 -0.2300 -0.0953
20606SOL    HW173542   3.130   0.490  10.010  0.8779 -0.8281  0.3643
20606SOL    HW273543   3.188   0.592  10.105  0.0355 -0.5650  0.6009
20607SOL     OW73544   0.525   1.709  10.690 -0.3132  0.0511  0.5519
20607SOL    HW173545   0.522   1.798  10.724  2.3301  0.2721  0.4238
20607SOL    HW273546   0.530   1.719  10.595 -4.3172 -0.4690  0.1153
20608SOL     OW73547  11.165  11.699   1.698 -0.4081  0.4690  0.4004
20608SOL    HW173548  11.177  11.615   1.654  0.1752  0.3215  0.8134
20608SOL    HW273549  11.222  11.759   1.651 -1.2916  0.7888 -0.2814
20609SOL     OW73550   0.538   9.142   9.001  0.5966 -0.6704  0.1849
20609SOL    HW173551   0.529   9.148   8.906  0.8741 -0.9930  0.1381
20609SOL    HW273552   0.632   9.156   9.017  0.1515  2.5786  0.6547
20610SOL     OW73553   0.324   9.829   9.827 -0.3560  0.4131 -0.8441
20610SOL    HW173554   0.402   9.783   9.857 -1.0026  0.1794  0.5461
20610SOL    HW273555   0.319   9.907   9.882 -1.4429  0.0993 -0.4618
20611SOL     OW73556   8.818   9.416  11.816  0.4001  0.0418 -0.1219
20611SOL    HW173557   8.727   9.389  11.801  0.1811  0.1894  0.8529
20611SOL    HW273558   8.835   9.483  11.751 -0.4229  0.4989  0.1274
20612SOL     OW73559   7.986   6.191   7.471  0.6565  0.0522  0.2173
20612SOL    HW173560   7.972   6.255   7.541 -0.5273  1.5214 -1.2742
20612SOL    HW273561   7.899   6.177   7.433  1.0337 -1.7960 -0.0737
20613SOL     OW73562   7.928   6.522   4.035  0.1784  0.7387 -0.6504
20613SOL    HW173563   7.840   6.557   4.051  0.4041  1.5550 -1.1384
20613SOL    HW273564   7.983   6.569   4.098  0.6401  2.0141 -1.9541
20614SOL     OW73565   0.466   4.768   3.009 -0.2018  0.3634 -0.1063
20614SOL    HW173566   0.502   4.771   2.920 -1.6044  3.5648 -0.6974
20614SOL    HW273567   0.393   4.706   3.003  0.2510 -0.1238 -0.9287
20615SOL     OW73568   9.906   0.680  11.340 -0.2640 -0.1911 -0.3451
20615SOL    HW173569   9.903   0.714  11.251  0.8517 -0.2845 -0.4406
20615SOL    HW273570   9.995   0.646  11.349  0.1796  1.2829  1.3436
20616SOL     OW73571  11.672  10.144   8.926  0.3018 -0.1486  0.0263
20616SOL    HW173572  11.596  10.155   8.983  1.4287 -2.7076  2.2557
20616SOL    HW273573  11.659  10.060   8.883  0.4204  0.8547 -2.1528
20617SOL     OW73574   2.926  11.192   1.988 -0.1719 -0.7384 -0.1443
20617SOL    HW173575   2.987  11.119   1.978 -0.9997 -1.3506 -0.9050
20617SOL    HW273576   2.879  11.196   1.905 -0.6031  0.2395  0.1268
20618SOL     OW73577   4.104   5.673   1.101 -0.0450  0.7563  0.0354
20618SOL    HW173578   4.127   5.643   1.013  0.4028 -0.3219  0.5095
20618SOL    HW273579   4.173   5.736   1.123 -0.8297  1.9806 -0.8465
20619SOL     OW73580   6.568  10.597  11.098  0.4698 -0.3507 -0.0423
20619SOL    HW173581   6.635  10.531  11.083  0.5920 -0.0983 -0.6321
20619SOL    HW273582   6.616  10.678  11.115  0.3297 -0.5116  1.2630
20620SOL     OW73583   3.053   7.692   8.303  0.4874  0.4062  0.1880
20620SOL    HW173584   3.008   7.632   8.244 -0.1444  0.6123  0.4514
20620SOL    HW273585   3.097   7.635   8.367  0.9142  0.1943 -0.2886
20621SOL     OW73586   7.247   8.103  10.802 -0.1810  0.0246  0.1405
20621SOL    HW173587   7.218   8.014  10.783 -0.2508 -0.0924  0.7681
20621SOL    HW273588   7.224   8.153  10.724 -3.1189  0.1920  1.0078
20622SOL     OW73589   0.615   2.687   2.332  0.0528 -0.0891  0.1561
20622SOL    HW173590   0.561   2.682   2.253  1.0183 -0.3427 -0.4978
20622SOL    HW273591   0.599   2.775   2.366 -1.3421 -0.4049  0.4021
20623SOL     OW73592   9.480   7.424   6.024  0.0764 -0.0123  0.2963
20623SOL    HW173593   9.439   7.372   5.955  3.7406 -3.1250  0.1315
20623SOL    HW273594   9.482   7.366   6.100 -0.1591  1.8404  1.8102
20624SOL     OW73595   9.179   3.073   7.722  0.0070  0.0367 -0.7487
20624SOL    HW173596   9.145   3.100   7.807 -2.3988 -1.1026 -1.2685
20624SOL    HW273597   9.239   3.002   7.742  0.1804  0.3955  0.0593
20625SOL     OW73598   7.878   4.588  10.609 -0.6549 -0.2460  0.0357
20625SOL    HW173599   7.940   4.536  10.660 -0.4204  1.5037  1.6478
20625SOL    HW273600   7.841   4.649  10.673  0.6517  3.0300 -2.0918
20626SOL     OW73601   5.910  11.702   2.055 -0.5632 -0.7622  0.0472
20626SOL    HW173602   5.994  11.716   2.012 -0.8394 -0.4307 -0.3959
20626SOL    HW273603   5.919  11.619   2.101  0.3605 -0.2395  0.8579
20627SOL     OW73604  11.557   5.826  10.258  0.2993 -0.0795  0.4175
20627SOL    HW173605  11.651   5.824  10.244  0.2585  0.7036 -0.0473
20627SOL    HW273606  11.519   5.794  10.176  0.1560 -0.1519  0.5110
20628SOL     OW73607   2.099   8.927   1.204  0.1549 -0.4119  0.2088
20628SOL    HW173608   2.172   8.987   1.187  1.4094 -2.4115 -2.0182
20628SOL    HW273609   2.028   8.960   1.149  0.8851 -0.9728 -1.1173
20629SOL     OW73610   8.658   0.406   7.312  0.0648 -0.3253 -0.1023
20629SOL    HW173611   8.743   0.383   7.349 -0.4789 -1.1483  0.6598
20629SOL    HW273612   8.677   0.430   7.221  1.2870  0.8537  0.4369
20630SOL     OW73613   1.128  11.175   4.808 -0.3447 -0.2906 -0.5807
20630SOL    HW173614   1.137  11.219   4.724  1.4798  1.4109  0.4169
20630SOL    HW273615   1.042  11.202   4.841 -0.1601  0.8142 -0.9606
20631SOL     OW73616   0.400  11.919   6.909 -0.0800 -0.6400 -0.0628
20631SOL    HW173617   0.317  11.903   6.863 -1.0887 -2.9158  2.2631
20631SOL    HW273618   0.375  11.973   6.984  0.6050 -0.9613  0.4092
20632SOL     OW73619  10.495   3.134   9.846  0.2734 -0.1508  0.5758
20632SOL    HW173620  10.433   3.092   9.786  0.2825 -0.4294  0.7572
20632SOL    HW273621  10.472   3.100   9.932  0.4282  0.0466  0.6950
20633SOL     OW73622   7.331  10.065   0.650  0.3515  0.1405  0.3150
20633SOL    HW173623   7.261  10.025   0.599  0.3085 -1.8210  1.7966
20633SOL    HW273624   7.411  10.049   0.600  0.0947 -0.1541 -0.0010
20634SOL     OW73625  10.429   2.437   0.006 -0.0517 -0.1672  0.3473
20634SOL    HW173626  10.360   2.443  -0.061 -1.1454 -2.6153  1.1768
20634SOL    HW273627  10.491   2.373  -0.029  0.7541  0.4951  0.5351
20635SOL     OW73628  11.857   4.771   7.111  0.4212 -0.4175  0.1248
20635SOL    HW173629  11.825   4.681   7.111  2.4379 -1.1857  0.5323
20635SOL    HW273630  11.893   4.783   7.023 -0.4541  0.2452 -0.1558
20636SOL     OW73631  11.297   2.231   2.957 -0.1031 -0.5567 -0.2159
20636SOL    HW173632  11.312   2.321   2.928  2.8923 -0.2048  1.9607
20636SOL    HW273633  11.203   2.225   2.971 -0.6158  1.5977 -2.2424
20637SOL     OW73634   4.338   6.816  11.352 -0.3944 -0.1179  0.4157
20637SOL    HW173635   4.288   6.736  11.336  0.4745 -0.7703  0.9038
20637SOL    HW273636   4.276   6.874  11.395 -1.5773  0.1690 -1.5538
20638SOL     OW73637   2.299  10.366   3.920 -1.1470 -0.1334 -0.1695
20638SOL    HW173638   2.339  10.453   3.928 -1.1919 -0.2195  1.1965
20638SOL    HW273639   2.371  10.305   3.934 -1.2859 -0.3072 -0.2110
20639SOL     OW73640   2.153   2.699   0.253  0.0198 -0.0754 -0.4797
20639SOL    HW173641   2.121   2.704   0.343  0.5920 -0.9950 -0.2176
20639SOL    HW273642   2.215   2.771   0.245 -0.0821  0.0468 -0.1653
20640SOL     OW73643  10.872   6.233  10.556 -0.3351 -0.3237  0.3557
20640SOL    HW173644  10.955   6.236  10.508  0.6391 -0.3422  1.9678
20640SOL    HW273645  10.861   6.141  10.579 -0.3909 -0.2021  0.8284
20641SOL     OW73646   8.432  10.868   6.249  0.1110  0.0888  0.0173
20641SOL    HW173647   8.374  10.814   6.303  0.2768 -0.9413 -0.8083
20641SOL    HW273648   8.431  10.954   6.292  0.3267 -0.7150  1.7167
20642SOL     OW73649   8.568   9.896   0.448  0.5509 -0.6651  0.1353
20642SOL    HW173650   8.643   9.881   0.391 -0.0010  2.6595 -1.7150
20642SOL    HW273651   8.496   9.847   0.408  1.0327 -1.4535  0.2212
20643SOL     OW73652   6.444  10.858  11.310 -0.0346  0.3340  0.1497
20643SOL    HW173653   6.409  10.818  11.231 -2.0295  0.5344  0.8761
20643SOL    HW273654   6.425  10.951  11.301  0.2325  0.4376  0.6166
20644SOL     OW73655   5.668   6.744   8.644 -0.8976 -0.0131  0.1005
20644SOL    HW173656   5.617   6.669   8.614 -0.9944  0.0974 -0.0152
20644SOL    HW273657   5.622   6.820   8.609 -0.3637  0.0682 -0.4428
20645SOL     OW73658   7.846   8.175   4.487  0.0713 -0.2640  0.0462
20645SOL    HW173659   7.849   8.154   4.581 -0.1469 -2.2160 -0.3462
20645SOL    HW273660   7.886   8.100   4.444 -0.4825  0.2749 -1.4910
20646SOL     OW73661   9.491   9.007   0.990 -0.5140 -0.0921 -0.2637
20646SOL    HW173662   9.471   8.957   1.069 -1.8888  1.4389  0.4219
20646SOL    HW273663   9.582   8.985   0.970 -0.9601 -2.5928  0.1478
20647SOL     OW73664  10.592   5.250   7.766 -0.5765 -0.4436 -0.4219
20647SOL    HW173665  10.604   5.327   7.710  0.7645  0.9001  1.6067
20647SOL    HW273666  10.677   5.206   7.766 -0.2765  0.0778  1.2170
20648SOL     OW73667   2.553  11.944   0.733  0.3713  0.1289  0.3444
20648SOL    HW173668   2.626  11.964   0.675 -0.1092  1.0953  0.0429
20648SOL    HW273669   2.479  11.992   0.695 -0.3335 -0.5483  0.8420
20649SOL     OW73670   9.139   1.071  11.815  0.1584  0.4349 -0.1999
20649SOL    HW173671   9.170   1.155  11.783  0.8187 -0.1595 -1.1739
20649SOL    HW273672   9.080   1.039  11.747 -1.5208  0.8865  0.9708
20650SOL     OW73673   9.772   5.282  11.911 -0.1712 -0.3878  0.8187
20650SOL    HW173674   9.696   5.341  11.915 -1.9390 -2.5855  1.5427
20650SOL    HW273675   9.819   5.310  11.832 -1.3289  1.4925  0.7264
20651SOL     OW73676   1.637  11.570   8.698 -0.4544  0.6797  0.1465
20651SOL    HW173677   1.678  11.643   8.652 -0.4158  0.4502 -0.1819
20651SOL    HW273678   1.694  11.553   8.773 -0.2683  0.7417  0.0170
20652SOL     OW73679   4.464  10.087  10.443  0.5573  0.2166 -0.3241
20652SOL    HW173680   4.542  10.039  10.474  0.1008 -1.5951 -1.7823
20652SOL    HW273681   4.498  10.171  10.412  1.9313 -0.4904 -0.8225
20653SOL     OW73682   5.025   8.855   9.492  0.0653 -0.1273  0.1265
20653SOL    HW173683   5.038   8.930   9.549  0.4610 -1.0262  1.2713
20653SOL    HW273684   5.087   8.868   9.420  1.6756 -0.4012  1.4210
20654SOL     OW73685   2.605  11.477   0.602  0.6428  0.3096 -0.2197
20654SOL    HW173686   2.635  11.535   0.673 -0.0252 -0.3735  0.6473
20654SOL    HW273687   2.584  11.536   0.530 -0.4014  1.2058  0.7805
20655SOL     OW73688   3.613   9.033   3.569 -0.1459 -0.2772  0.1413
20655SOL    HW173689   3.664   9.096   3.619  2.1137 -0.6316 -1.5473
20655SOL    HW273690   3.655   9.031   3.483 -2.8350 -0.8830 -1.2808
20656SOL     OW73691  11.685   4.912   1.811  0.0335  0.4332  0.5547
20656SOL    HW173692  11.651   4.824   1.795  0.4135  0.5603 -1.1924
20656SOL    HW273693  11.607   4.967   1.816 -0.2530 -0.0851  2.5150
20657SOL     OW73694   2.495  10.231   1.822 -0.6224 -0.4903 -0.4019
20657SOL    HW173695   2.423  10.168   1.830 -0.0875 -0.9731  1.0753
20657SOL    HW273696   2.517  10.253   1.913  1.4506 -0.7636 -0.7997
20658SOL     OW73697   3.196   8.481   2.409  0.1807 -0.1756  0.1967
20658SOL    HW173698   3.208   8.572   2.380 -0.7245  0.4062  1.5265
20658SOL    HW273699   3.102   8.466   2.402  0.0487 -0.3244  1.8046
20659SOL     OW73700   6.847   9.639   6.863 -0.7886  0.4938  0.0955
20659SOL    HW173701   6.897   9.566   6.825 -2.2504 -1.6998  2.0721
20659SOL    HW273702   6.761   9.634   6.821 -0.7739  1.3657 -0.0545
20660SOL     OW73703   6.079   6.057   2.717 -0.5522 -0.0842  0.3228
20660SOL    HW173704   6.028   6.133   2.688 -0.2707  0.1741  0.4920
20660SOL    HW273705   6.023   6.011   2.779 -1.4631 -1.0538 -1.1578
20661SOL     OW73706  11.146  10.448   6.066 -0.2462  0.4386 -0.4214
20661SOL    HW173707  11.209  10.417   6.002 -3.1965  0.4052 -3.5798
20661SOL    HW273708  11.160  10.543   6.069  0.8662  0.2778  0.0813
20662SOL     OW73709   1.289   6.736  11.121  0.0774 -0.6797  0.4038
20662SOL    HW173710   1.320   6.725  11.031 -1.8433 -1.1424 -0.2503
20662SOL    HW273711   1.223   6.805  11.115  0.8455  0.2001  1.7176
20663SOL     OW73712   7.221   7.620   5.796  0.0006  0.0260  0.0902
20663SOL    HW173713   7.257   7.707   5.779 -0.1192  0.2533  0.9860
20663SOL    HW273714   7.298   7.564   5.804  0.0731  0.0015 -0.6857
20664SOL     OW73715   8.041  10.693  10.923 -0.0872  0.3256 -0.6080
20664SOL    HW173716   8.048  10.771  10.868  1.7513 -0.1859 -1.1709
20664SOL    HW273717   8.064  10.621  10.865  0.8209 -0.3466  0.5523
20665SOL     OW73718   3.511   6.723  11.685 -0.3594  0.0883 -1.0046
20665SOL    HW173719   3.431   6.671  11.690 -0.6704  0.6179 -0.3015
20665SOL    HW273720   3.546   6.705  11.598  0.1569 -2.1858 -0.3861
20666SOL     OW73721  11.497   7.930   9.298 -0.0779  0.1153  0.0202
20666SOL    HW173722  11.426   7.994   9.297 -0.2849 -0.1153 -1.1362
20666SOL    HW273723  11.544   7.948   9.380  0.4535  2.3860 -0.6856
20667SOL     OW73724  11.620   4.634   3.018  0.0125  0.7599  0.2265
20667SOL    HW173725  11.602   4.727   3.008 -0.0223  0.7683  0.3558
20667SOL    HW273726  11.709   4.622   2.985 -0.0129  0.8245  0.1367
20668SOL     OW73727   0.150   8.618   7.263  0.5099  0.3323  0.1514
20668SOL    HW173728   0.143   8.711   7.284 -0.9274  0.1558  0.6284
20668SOL    HW273729   0.091   8.575   7.326  0.9396 -0.8692 -0.2330
20669SOL     OW73730   6.158   1.629   6.455 -0.0045 -0.2286  0.0878
20669SOL    HW173731   6.083   1.668   6.410  0.5226 -0.5370 -1.0700
20669SOL    HW273732   6.192   1.700   6.510  0.3226  0.6570 -1.2162
20670SOL     OW73733  11.254   3.322   7.668 -0.9108 -0.3267  0.0108
20670SOL    HW173734  11.251   3.231   7.639 -1.6202  0.1043 -1.3391
20670SOL    HW273735  11.230   3.373   7.591  0.2170  1.0585  0.5292
20671SOL     OW73736   8.665   8.065   7.835 -0.4216  0.5966 -0.3448
20671SOL    HW173737   8.584   8.028   7.872 -0.4400 -0.9266 -1.8020
20671SOL    HW273738   8.640   8.152   7.807 -1.3249  0.4764  0.0266
20672SOL     OW73739  10.149   4.455   2.812 -0.5903  0.5320 -0.5068
20672SOL    HW173740  10.062   4.422   2.834 -0.0930 -0.2546  0.3874
20672SOL    HW273741  10.175   4.405   2.735  0.5626 -2.0636  1.3979
20673SOL     OW73742   9.575   4.642   9.120  0.4879 -0.0258 -0.4819
20673SOL    HW173743   9.567   4.649   9.215 -1.0093  1.1026 -0.6462
20673SOL    HW273744   9.528   4.562   9.098  2.9327 -1.6825 -0.1186
20674SOL     OW73745  11.702  10.698   6.933  0.1339  0.3020 -0.1019
20674SOL    HW173746  11.745  10.640   6.870 -1.0338 -1.2047  0.4065
20674SOL    HW273747  11.694  10.782   6.888  2.3870  0.2686 -0.6566
20675SOL     OW73748   8.137   2.634   4.434  0.0582 -0.4309  0.0461
20675SOL    HW173749   8.161   2.655   4.525 -2.6710 -1.0872  1.0221
20675SOL    HW273750   8.104   2.544   4.438 -0.1035 -0.4776 -1.6069
20676SOL     OW73751   8.318   0.351   4.438 -0.0260 -0.5621  0.5702
20676SOL    HW173752   8.321   0.323   4.347  1.0505 -1.2670  0.8060
20676SOL    HW273753   8.242   0.307   4.475  0.7652 -1.9962  0.5466
20677SOL     OW73754  10.070   9.911   3.876  0.0469  0.1512  0.1469
20677SOL    HW173755  10.026   9.847   3.820 -0.9755  0.5551  0.4665
20677SOL    HW273756  10.083   9.987   3.819  1.7477 -0.5115 -0.3869
20678SOL     OW73757   8.343   6.038   9.413  0.0963 -0.1355 -0.2317
20678SOL    HW173758   8.352   6.066   9.322 -0.2543 -2.7473 -1.1700
20678SOL    HW273759   8.404   6.093   9.461  2.2574 -0.3678 -2.4776
20679SOL     OW73760   8.896   6.679   6.199 -0.4852  0.3531  0.4010
20679SOL    HW173761   8.933   6.632   6.124 -0.6563  0.7933  0.0403
20679SOL    HW273762   8.842   6.614   6.244  1.4468 -0.6020  1.4905
20680SOL     OW73763   9.211   6.472  10.410 -0.1883 -0.1245 -0.8468
20680SOL    HW173764   9.117   6.458  10.411 -0.3667  0.8817 -1.5666
20680SOL    HW273765   9.235   6.485  10.502 -0.8527  0.1694 -0.7108
20681SOL     OW73766  10.570   2.165   6.392 -0.3739 -0.2473  0.3861
20681SOL    HW173767  10.534   2.205   6.471 -2.1778  0.8269 -0.9102
20681SOL    HW273768  10.589   2.239   6.333  0.1892 -1.0615 -0.4992
20682SOL     OW73769  11.197   2.360  11.358  0.1676 -0.6562 -0.1927
20682SOL    HW173770  11.181   2.288  11.298 -0.9847 -1.2660  0.8028
20682SOL    HW273771  11.116   2.368  11.409  1.1601 -0.3113  1.4246
20683SOL     OW73772   1.588   3.428   9.387 -0.3429  0.1891 -0.0518
20683SOL    HW173773   1.512   3.476   9.353 -0.9592 -0.0168  0.9856
20683SOL    HW273774   1.586   3.345   9.339  0.1951  0.8088 -1.1930
20684SOL     OW73775   8.374   7.365   9.486 -0.5205  0.2843 -0.4479
20684SOL    HW173776   8.305   7.361   9.551  0.2048 -2.1824  0.2968
20684SOL    HW273777   8.448   7.319   9.527  0.6480  0.4932 -2.2094
20685SOL     OW73778   9.555   1.893   3.937  0.2049  0.3859 -0.1363
20685SOL    HW173779   9.518   1.913   4.023 -1.0366  1.4669 -0.8983
20685SOL    HW273780   9.506   1.947   3.876  3.1289  2.0284 -1.2266
20686SOL     OW73781  10.725   3.571   1.259 -0.0298  0.1278 -0.7546
20686SOL    HW173782  10.724   3.588   1.164 -2.1738  1.7262 -0.5289
20686SOL    HW273783  10.797   3.623   1.292  0.8225 -0.5380 -1.4834
20687SOL     OW73784   1.860   9.617   4.202  0.5430  0.3711 -0.4518
20687SOL    HW173785   1.917   9.692   4.186  0.0376  0.6963 -0.7499
20687SOL    HW273786   1.921   9.545   4.220  1.0619  0.6463 -1.0336
20688SOL     OW73787   0.109   8.771   7.766 -0.2734 -0.1717  0.5644
20688SOL    HW173788   0.158   8.790   7.847  1.7825 -0.3841 -0.5503
20688SOL    HW273789   0.148   8.830   7.701  0.5595 -2.4056 -1.0718
20689SOL     OW73790   4.591   9.578  10.748 -0.6949 -0.2008  0.0383
20689SOL    HW173791   4.649   9.504  10.731 -1.3629 -0.7957  0.3214
20689SOL    HW273792   4.583   9.622  10.663  0.5954  0.2132  0.1099
20690SOL     OW73793   1.563   1.306   0.594  0.3805 -0.3584  0.0840
20690SOL    HW173794   1.541   1.286   0.685 -4.1823 -0.7284 -0.8391
20690SOL    HW273795   1.576   1.400   0.593  1.1125 -0.4280  1.1980
20691SOL     OW73796   0.516   9.496   2.245  0.3336 -0.0705 -0.3057
20691SOL    HW173797   0.444   9.435   2.228  0.6945 -0.1374 -1.6893
20691SOL    HW273798   0.582   9.443   2.290  0.8788 -0.8927 -1.9863
20692SOL     OW73799   3.905   5.759   8.891  0.5487 -0.4580  0.6570
20692SOL    HW173800   3.979   5.818   8.906 -0.1913 -0.2143  4.2326
20692SOL    HW273801   3.942   5.672   8.901  1.1518 -0.6442 -2.2334
20693SOL     OW73802  10.546   1.189   3.921 -0.2715  0.2347  0.3200
20693SOL    HW173803  10.509   1.145   3.998 -2.5833 -0.8217 -1.2816
20693SOL    HW273804  10.470   1.216   3.870  1.1727  2.5259 -0.7631
20694SOL     OW73805   8.385   2.645   6.951 -0.0893  0.0319  0.7269
20694SOL    HW173806   8.458   2.657   6.890 -1.3858  0.4068 -0.8157
20694SOL    HW273807   8.423   2.595   7.024  1.7705  0.4936  0.1368
20695SOL     OW73808   7.705  10.529   8.372 -0.1224 -0.1008 -0.4070
20695SOL    HW173809   7.787  10.480   8.375 -0.0535 -0.1886 -2.2052
20695SOL    HW273810   7.724  10.610   8.418  0.6683 -0.5437  0.0639
20696SOL     OW73811   3.168  10.131   2.506  0.5921 -0.3391  0.4121
20696SOL    HW173812   3.210  10.051   2.473  0.7494 -0.0376 -0.1305
20696SOL    HW273813   3.162  10.117   2.600 -0.6060 -1.5718  0.1998
20697SOL     OW73814   7.023   3.091   1.672 -0.3841  0.2122  0.5336
20697SOL    HW173815   7.103   3.141   1.689 -1.3202  1.1935  2.3736
20697SOL    HW273816   7.018   3.086   1.577  2.5410 -1.0613  0.3236
20698SOL     OW73817   7.332   5.436   0.629 -0.2575  0.4291 -0.0060
20698SOL    HW173818   7.241   5.425   0.602 -0.4605 -2.0545  1.4059
20698SOL    HW273819   7.383   5.404   0.554 -0.6628 -1.1902  0.3792
20699SOL     OW73820   6.498   2.296  10.308 -0.1214  0.6114  0.2974
20699SOL    HW173821   6.533   2.320  10.394  1.3221 -0.0413 -0.0903
20699SOL    HW273822   6.435   2.366  10.288  0.3192  1.3538  1.3871
20700SOL     OW73823   5.365   1.405   6.696 -0.1952  0.0584  0.7996
20700SOL    HW173824   5.412   1.403   6.780  2.9587 -2.0427 -0.7915
20700SOL    HW273825   5.424   1.361   6.635 -2.7748  0.5908 -2.3535
20701SOL     OW73826  10.353   6.365   1.039 -0.8056 -0.3641  0.6382
20701SOL    HW173827  10.289   6.319   0.984  0.0569 -1.1353  0.2567
20701SOL    HW273828  10.437   6.350   0.996 -0.3910  0.8659  0.9878
20702SOL     OW73829  11.164  11.899  10.915  0.1917 -0.3736  0.0336
20702SOL    HW173830  11.204  11.949  10.986  3.2809 -3.0829  0.4464
20702SOL    HW273831  11.218  11.919  10.838 -1.4376  0.4072 -0.9766
20703SOL     OW73832   0.263   2.591   3.620 -0.1591 -0.2808 -0.4022
20703SOL    HW173833   0.310   2.513   3.590  0.2371 -0.4710  0.6749
20703SOL    HW273834   0.253   2.644   3.541  1.1037 -0.6339 -0.8353
20704SOL     OW73835   9.651   3.589   0.386  0.3496 -0.4688  0.0484
20704SOL    HW173836   9.698   3.653   0.333  0.2742 -0.1508  0.3628
20704SOL    HW273837   9.618   3.639   0.461  0.8424 -0.9987  0.6297
20705SOL     OW73838   6.706   1.450   2.092 -1.0409  0.3152  0.2214
20705SOL    HW173839   6.734   1.534   2.128 -4.5601  1.9051 -0.3615
20705SOL    HW273840   6.650   1.413   2.160  0.7172 -1.8264  0.6106
20706SOL     OW73841   5.179   5.257   8.358 -0.1016 -0.5533  0.0184
20706SOL    HW173842   5.145   5.168   8.345 -0.4057 -0.7484  1.9034
20706SOL    HW273843   5.101   5.313   8.357  0.1278 -0.2147 -1.6081
20707SOL     OW73844   9.736   1.602   8.924  0.1204 -0.2192  0.0506
20707SOL    HW173845   9.793   1.643   8.860  0.5832  0.3173  0.7884
20707SOL    HW273846   9.693   1.676   8.968  0.5105 -0.5257  0.9823
20708SOL     OW73847   5.496   8.214   5.435 -0.5021  0.1941 -0.3804
20708SOL    HW173848   5.493   8.119   5.443 -1.2703  0.3526  2.0374
20708SOL    HW273849   5.404   8.242   5.437 -0.2720  1.0278 -0.6948
20709SOL     OW73850  10.071  11.437   8.797  0.2884 -0.2159  0.5839
20709SOL    HW173851  10.055  11.502   8.865 -0.2052 -0.7335  0.9720
20709SOL    HW273852  10.014  11.463   8.724 -0.1610 -0.3976  0.8646
20710SOL     OW73853   1.728   3.082  10.486 -0.0013  0.2781 -0.2809
20710SOL    HW173854   1.679   3.163  10.472 -0.6906 -0.2296 -0.9244
20710SOL    HW273855   1.724   3.037  10.401 -0.7435 -1.0115  0.4063
20711SOL     OW73856   8.415   9.292   2.830 -0.5674  0.4907  0.5156
20711SOL    HW173857   8.386   9.258   2.915 -2.1099  0.1063 -0.1290
20711SOL    HW273858   8.431   9.213   2.777  1.2052  0.7037  0.6780
20712SOL     OW73859   1.751  11.530   5.200  0.3884 -0.1422  0.1141
20712SOL    HW173860   1.812  11.458   5.215 -0.7297 -1.0493  0.3961
20712SOL    HW273861   1.777  11.565   5.114  1.0769 -0.7326  0.0712
20713SOL     OW73862   1.055   5.249   4.952  0.7003 -0.0083 -0.1629
20713SOL    HW173863   1.131   5.192   4.938 -0.8331 -2.0123 -0.8027
20713SOL    HW273864   1.016   5.218   5.034  0.5503  1.0162  0.1721
20714SOL     OW73865  11.343   2.139   2.286  0.0308 -0.3005 -0.1799
20714SOL    HW173866  11.325   2.225   2.325  0.4642 -0.4373  0.3407
20714SOL    HW273867  11.367   2.158   2.196 -1.5548 -0.0203 -0.5711
20715SOL     OW73868   9.544   3.991   4.183 -0.7266 -0.8692 -0.3311
20715SOL    HW173869   9.532   4.083   4.159  2.4797 -0.7475 -1.9053
20715SOL    HW273870   9.564   3.992   4.276 -0.5599  0.0335 -0.3744
20716SOL     OW73871   3.122   7.861   3.154  0.1918 -0.2945  0.4787
20716SOL    HW173872   3.030   7.853   3.132 -0.1216  3.2773 -0.0317
20716SOL    HW273873   3.123   7.885   3.247  0.4797  1.1065  0.1316
20717SOL     OW73874   7.819   8.028   4.090 -0.3521  0.0403 -0.0616
20717SOL    HW173875   7.744   8.087   4.088 -0.3742 -0.0073 -2.0021
20717SOL    HW273876   7.813   7.986   4.176 -2.1035  0.5852  0.1326
20718SOL     OW73877   2.650   4.880   6.933 -0.4721  0.2430 -0.2253
20718SOL    HW173878   2.690   4.797   6.907 -2.6646 -1.0673  0.2976
20718SOL    HW273879   2.659   4.936   6.856  2.0809 -0.0157 -0.2028
20719SOL     OW73880   3.782   0.812  10.640 -0.0206  0.2716 -0.0637
20719SOL    HW173881   3.818   0.876  10.702 -0.6663  1.0364 -0.4664
20719SOL    HW273882   3.845   0.809  10.568 -0.0466  0.5301 -0.0953
20720SOL     OW73883   8.537   3.471  10.783  0.3980 -0.1015 -0.4596
20720SOL    HW173884   8.632   3.472  10.794  0.3947  1.1144 -0.4021
20720SOL    HW273885   8.514   3.379  10.788  1.5209 -0.3838 -0.0056
20721SOL     OW73886   3.129   2.425   7.418 -0.2184 -0.1604  0.2604
20721SOL    HW173887   3.193   2.355   7.432  1.1966  0.9474 -0.4101
20721SOL    HW273888   3.113   2.461   7.505  1.0767  0.3719  0.3009
20722SOL     OW73889   5.511  10.593   7.956  0.3266 -0.2415  0.3892
20722SOL    HW173890   5.460  10.518   7.926 -2.3504  0.8077  1.9511
20722SOL    HW273891   5.534  10.572   8.046  1.5110 -0.0777  0.1454
20723SOL     OW73892  10.732   8.627   9.218  0.3507 -0.0872  0.0140
20723SOL    HW173893  10.637   8.624   9.205  0.1857 -0.9961  1.2873
20723SOL    HW273894  10.761   8.537   9.204  0.8664 -0.0308  0.6814
20724SOL     OW73895  11.701   6.144   9.547  0.1573  0.0230 -0.0321
20724SOL    HW173896  11.792   6.174   9.538  0.7004 -0.7863  2.0339
20724SOL    HW273897  11.694   6.068   9.490  0.9782 -0.2833  0.2641
20725SOL     OW73898   7.718   0.200   1.222 -0.3459  0.2316 -0.6346
20725SOL    HW173899   7.706   0.293   1.236  1.3227  0.0332  3.3309
20725SOL    HW273900   7.796   0.194   1.167 -0.5068  1.1266 -0.9770
20726SOL     OW73901   4.760   1.988   6.258  0.1082  0.1433  0.6811
20726SOL    HW173902   4.672   2.016   6.232  0.3925 -0.2599 -0.8258
20726SOL    HW273903   4.812   2.069   6.260  0.1843  0.1379 -0.5187
20727SOL     OW73904  10.211   1.575   6.268 -0.6291 -0.1407  0.1071
20727SOL    HW173905  10.288   1.627   6.243 -1.0194  0.1697 -0.4700
20727SOL    HW273906  10.247   1.501   6.318  0.1882 -0.7197 -1.2650
20728SOL     OW73907   1.398   1.977   9.029 -0.0732 -0.0499  0.2196
20728SOL    HW173908   1.406   1.882   9.017  0.7158 -0.2932  2.2918
20728SOL    HW273909   1.326   1.987   9.091 -1.5831  0.8898 -1.5939
20729SOL     OW73910   6.726   8.088  11.393 -0.2475 -0.0843 -0.0654
20729SOL    HW173911   6.680   8.172  11.401  2.9349  1.7580  0.5240
20729SOL    HW273912   6.724   8.068  11.299  0.7020  1.8075 -0.5387
20730SOL     OW73913   2.239   7.114   5.259  0.0549  0.0347  0.2405
20730SOL    HW173914   2.228   7.051   5.329  1.2524 -1.1352 -0.5883
20730SOL    HW273915   2.178   7.185   5.280 -0.8657 -1.1088  1.5047
20731SOL     OW73916   6.799   2.095   2.629 -0.5472  0.4841 -0.0066
20731SOL    HW173917   6.818   2.002   2.639 -0.8336  0.4231  0.0007
20731SOL    HW273918   6.746   2.117   2.706 -0.8619  0.5444 -0.2385
20732SOL     OW73919   7.595   0.079   7.516  0.6296 -0.4455  0.2873
20732SOL    HW173920   7.541   0.112   7.444 -0.2694 -0.7532  0.8076
20732SOL    HW273921   7.645   0.007   7.478  5.8197  3.6869 -2.1329
20733SOL     OW73922   9.465  11.949   0.550 -0.3082 -0.2764  0.1037
20733SOL    HW173923   9.554  11.975   0.527 -0.3275  0.7556  1.1521
20733SOL    HW273924   9.476  11.870   0.603  0.3488  2.0231  3.7369
20734SOL     OW73925   7.273  11.183   1.174 -0.5863 -0.6379 -0.0150
20734SOL    HW173926   7.180  11.204   1.180 -0.1140  1.2496  2.4242
20734SOL    HW273927   7.310  11.215   1.257  2.0719 -2.2429 -0.4667
20735SOL     OW73928   5.106   4.880   6.683 -0.6499  0.2124 -0.1273
20735SOL    HW173929   5.095   4.882   6.778  0.4822 -2.4002  0.1604
20735SOL    HW273930   5.154   4.961   6.663  1.0397 -0.1727  1.8761
20736SOL     OW73931   0.570   4.053   4.702  0.2160 -0.1304  0.1351
20736SOL    HW173932   0.584   4.135   4.656  0.1300 -0.4297 -0.4352
20736SOL    HW273933   0.479   4.029   4.682  0.5571 -0.8981 -0.5963
20737SOL     OW73934   1.961   6.051   2.180 -0.5531 -0.0940  0.4811
20737SOL    HW173935   2.041   6.020   2.221 -0.2931 -0.4651 -0.2895
20737SOL    HW273936   1.891   6.014   2.234 -0.2159  1.0535  1.7487
20738SOL     OW73937   6.977  11.589   3.028  0.2795 -0.8128  0.2429
20738SOL    HW173938   7.065  11.559   3.005  0.1564 -0.9477 -0.0613
20738SOL    HW273939   6.964  11.668   2.976 -0.1043 -1.2713 -0.3905
20739SOL     OW73940   0.888   2.430   1.715 -0.4243  0.5677  0.0586
20739SOL    HW173941   0.913   2.448   1.806 -0.8237  0.4729  0.1894
20739SOL    HW273942   0.846   2.345   1.718  0.5806  0.0422 -0.4032
20740SOL     OW73943   1.250   8.269   4.103  0.1037  0.3428  0.4893
20740SOL    HW173944   1.184   8.281   4.171 -1.4766 -0.3345 -0.8583
20740SOL    HW273945   1.230   8.184   4.065  1.2678  0.4764 -0.4934
20741SOL     OW73946  11.230   1.216   5.968 -0.1080  0.7357  0.3499
20741SOL    HW173947  11.177   1.156   6.019  0.3328 -0.0151 -0.0583
20741SOL    HW273948  11.223   1.184   5.878  1.4146  0.3061  0.3499
20742SOL     OW73949   8.012   6.631   0.483  0.2604 -0.5067 -0.1988
20742SOL    HW173950   8.035   6.710   0.530 -2.3764  0.0055  0.3830
20742SOL    HW273951   8.030   6.651   0.391  4.1327 -1.0341  0.2856
20743SOL     OW73952   1.360   8.812   4.440  0.5977 -0.1741  0.0828
20743SOL    HW173953   1.402   8.815   4.354  0.6545 -1.2144  0.0562
20743SOL    HW273954   1.268   8.795   4.422  0.7466 -1.2438  0.2305
20744SOL     OW73955   2.934   7.129   8.921  0.2768  0.6213  0.7652
20744SOL    HW173956   2.920   7.194   8.990  0.3331  1.4082  0.0543
20744SOL    HW273957   2.860   7.142   8.861  0.4440  0.2250  0.4717
20745SOL     OW73958   4.982   7.569   4.160 -0.3936  0.7507 -0.1148
20745SOL    HW173959   5.022   7.654   4.178 -0.7229  1.1721 -1.2889
20745SOL    HW273960   4.903   7.589   4.110 -1.5578 -0.1330  1.2944
20746SOL     OW73961   9.328   4.116   8.714 -0.2385  0.2382 -0.3629
20746SOL    HW173962   9.337   4.136   8.808  1.4200 -0.7569 -0.2708
20746SOL    HW273963   9.269   4.184   8.681 -0.1693  1.1378  1.2346
20747SOL     OW73964   2.008   4.431   0.010  0.4116  0.1717  0.2920
20747SOL    HW173965   1.948   4.430   0.085  1.1625  0.8742  0.9095
20747SOL    HW273966   1.950   4.424  -0.066 -0.3908 -0.1120  0.9096
20748SOL     OW73967   3.050   1.678   6.583  0.3538 -0.3974 -0.3258
20748SOL    HW173968   3.035   1.604   6.525  0.7468 -0.5789 -0.1977
20748SOL    HW273969   3.144   1.676   6.601  1.4873  2.9964 -4.2558
20749SOL     OW73970  10.145  10.382   6.667  0.6792  0.4520 -0.3162
20749SOL    HW173971  10.117  10.299   6.630 -0.5433  0.1550  1.1702
20749SOL    HW273972  10.214  10.412   6.609  0.0446 -0.8118 -1.7997
20750SOL     OW73973   9.826   8.470   7.950  0.5067  0.3471 -0.1631
20750SOL    HW173974   9.791   8.540   8.004  0.1282  1.1928 -1.4577
20750SOL    HW273975   9.754   8.407   7.943  0.2545  0.6591 -0.3994
20751SOL     OW73976   6.927   8.085  10.733  0.0394  0.2813 -0.4129
20751SOL    HW173977   6.860   8.112  10.670 -0.4278 -1.1280 -0.5550
20751SOL    HW273978   6.981   8.022  10.685  2.2048  2.1962 -0.6642
20752SOL     OW73979   9.619   3.616   7.158  0.1900  0.2008  0.0814
20752SOL    HW173980   9.638   3.531   7.119  0.5740  1.3576 -2.4433
20752SOL    HW273981   9.560   3.596   7.231  0.7752 -2.2558 -0.0358
20753SOL     OW73982  10.709   0.857   7.603  0.9465 -0.2276  0.3765
20753SOL    HW173983  10.701   0.915   7.527  1.0365  0.1390  0.6437
20753SOL    HW273984  10.779   0.796   7.580  0.3867 -0.6796 -0.1895
20754SOL     OW73985   1.988   5.936   5.141 -0.9362  0.5703 -0.5914
20754SOL    HW173986   1.938   5.946   5.060 -1.6514 -0.7978 -0.3569
20754SOL    HW273987   1.944   5.863   5.187 -1.1187  1.8766  1.4354
20755SOL     OW73988   6.874   3.116   4.796  0.0525 -0.4188 -0.5792
20755SOL    HW173989   6.875   3.128   4.891  3.9753 -0.4358 -0.4897
20755SOL    HW273990   6.893   3.024   4.783 -1.1219 -0.5680 -1.4639
20756SOL     OW73991   0.999   3.055   4.191 -0.3163  0.1459  0.3780
20756SOL    HW173992   1.041   3.039   4.275 -0.4576  1.7939  0.7940
20756SOL    HW273993   1.068   3.041   4.126  0.1339  0.1065  0.8596
20757SOL     OW73994   9.643  10.071  11.695 -0.4517  0.2070 -0.3390
20757SOL    HW173995   9.675  10.002  11.754 -0.7669 -0.4408 -0.9085
20757SOL    HW273996   9.711  10.138  11.696  0.2660 -0.5070 -0.4444
20758SOL     OW73997   7.484   8.355   1.597  0.1464 -0.0897  0.4918
20758SOL    HW173998   7.419   8.367   1.528 -0.0679  1.9142  0.9881
20758SOL    HW273999   7.468   8.427   1.659  1.8972 -0.3863  1.3720
20759SOL     OW74000   6.289  10.263  10.332  0.0525  0.1499  0.2699
20759SOL    HW174001   6.342  10.207  10.388 -0.0022  0.9378  1.1331
20759SOL    HW274002   6.345  10.282  10.257  0.3527 -0.4136  0.3468
20760SOL     OW74003   8.632   8.690   5.650 -0.0966 -0.5178 -0.1432
20760SOL    HW174004   8.642   8.710   5.743  1.0110  0.0463 -0.3659
20760SOL    HW274005   8.562   8.624   5.647 -0.2530 -0.4331  1.0642
20761SOL     OW74006  10.310   1.456   9.345  0.3862 -0.1913 -0.6193
20761SOL    HW174007  10.306   1.492   9.433  1.4182 -1.4880 -0.0069
20761SOL    HW274008  10.297   1.532   9.287 -1.1101  0.5504  0.6186
20762SOL     OW74009   0.580   0.872  11.398 -0.1668 -0.0328  0.0142
20762SOL    HW174010   0.550   0.950  11.352 -1.8813  1.3361  3.1122
20762SOL    HW274011   0.674   0.884  11.408  0.1204  0.0220 -2.2289
20763SOL     OW74012   2.495   2.907   1.507  0.3335 -0.3100 -0.0893
20763SOL    HW174013   2.445   2.839   1.462  0.5041 -0.3540 -0.2130
20763SOL    HW274014   2.440   2.986   1.501  0.1677 -0.4180 -0.0071
20764SOL     OW74015  11.164   5.353   0.324 -0.2270 -0.3479  0.7201
20764SOL    HW174016  11.152   5.259   0.333 -0.2676 -0.4404 -0.1556
20764SOL    HW274017  11.254   5.362   0.294 -0.5234 -0.1856 -0.1545
20765SOL     OW74018  10.429  10.955   9.393  0.2346  0.0199  0.1703
20765SOL    HW174019  10.447  10.905   9.472 -2.1671  2.7483  2.6865
20765SOL    HW274020  10.503  11.015   9.386  0.4272 -0.1911  0.3627
20766SOL     OW74021   6.573  10.526   7.167  0.0482 -0.1442  0.7629
20766SOL    HW174022   6.570  10.601   7.109  3.1373 -0.3745  0.1169
20766SOL    HW274023   6.525  10.457   7.121  0.9660  0.1915 -0.7404
20767SOL     OW74024   0.278   1.383   9.701 -0.0728  0.3225  0.2641
20767SOL    HW174025   0.364   1.375   9.660  0.3194  2.5531  0.5073
20767SOL    HW274026   0.284   1.331   9.781  0.3514 -1.1503 -0.6889
20768SOL     OW74027   7.147   1.050   8.546 -0.1615  0.2160  0.1434
20768SOL    HW174028   7.187   0.966   8.527  1.4477  0.7274  1.0806
20768SOL    HW274029   7.135   1.050   8.641  0.1935  1.1631  0.2040
20769SOL     OW74030   2.261   4.982   4.529  0.1122 -0.0421 -0.3544
20769SOL    HW174031   2.173   4.994   4.565 -0.2620 -1.9596 -0.5209
20769SOL    HW274032   2.280   4.890   4.543  1.3113 -0.0982 -2.0418
20770SOL     OW74033  10.025   2.932   3.467  0.5524 -0.3838 -0.7395
20770SOL    HW174034   9.956   2.996   3.480 -0.3712 -1.5830  0.6368
20770SOL    HW274035  10.097   2.981   3.429 -0.2525  1.3843 -0.0758
20771SOL     OW74036   0.529   5.167   5.640 -0.7795 -0.2407 -0.2258
20771SOL    HW174037   0.618   5.160   5.674 -0.6794  0.9156 -0.2211
20771SOL    HW274038   0.540   5.177   5.545 -0.8503  0.6307 -0.1542
20772SOL     OW74039   4.639   5.501   3.187  0.1068  0.4878  0.4385
20772SOL    HW174040   4.605   5.520   3.100 -0.2282 -1.3362  0.1420
20772SOL    HW274041   4.562   5.510   3.244 -0.4013 -1.3086  0.0925
20773SOL     OW74042   9.915   3.885  10.491 -0.8225 -0.2600 -0.1627
20773SOL    HW174043   9.855   3.833  10.544 -0.9470  0.6626  0.6299
20773SOL    HW274044  10.000   3.845  10.504 -1.1341 -1.1267 -0.7102
20774SOL     OW74045   5.787  10.482   2.121  0.0313  0.2002  0.6405
20774SOL    HW174046   5.698  10.461   2.093  0.1065 -1.7393  1.6744
20774SOL    HW274047   5.775  10.544   2.193 -0.3404  1.7102 -0.6689
20775SOL     OW74048   4.758   5.919   8.983  0.8256  0.1753  0.2767
20775SOL    HW174049   4.745   5.965   9.065 -0.5536  3.8969 -1.7751
20775SOL    HW274050   4.851   5.896   8.982  1.3292  1.8899  1.9948
20776SOL     OW74051  10.668   2.860  10.119 -0.5084 -0.3567 -0.2216
20776SOL    HW174052  10.597   2.828  10.175 -0.4819 -1.2126 -0.6687
20776SOL    HW274053  10.623   2.890  10.039 -0.5025  0.4466  0.0694
20777SOL     OW74054   2.311   5.583   5.733 -0.7194 -0.2279 -0.4463
20777SOL    HW174055   2.359   5.653   5.777 -0.1844  1.2762 -3.1713
20777SOL    HW274056   2.223   5.619   5.720 -1.1527 -1.0233  0.1601
20778SOL     OW74057   3.702   7.283   5.686  0.0560  0.1216  0.1379
20778SOL    HW174058   3.713   7.191   5.710  2.2094 -0.1088 -1.3852
20778SOL    HW274059   3.765   7.329   5.740  1.8946  0.1172 -1.8632
20779SOL     OW74060   9.389  10.501   5.583  0.4528  0.4667  0.0832
20779SOL    HW174061   9.349  10.531   5.664 -0.4004 -0.6544  0.1031
20779SOL    HW274062   9.368  10.569   5.519 -2.3363 -0.4556 -0.1265
20780SOL     OW74063   2.332   0.047   4.979  0.3992  0.1537  0.2160
20780SOL    HW174064   2.383   0.077   4.905 -0.1273 -1.7593 -0.9920
20780SOL    HW274065   2.241   0.067   4.955  0.3018  0.4410  0.8069
20781SOL     OW74066   8.950   5.377  10.850 -0.1050 -0.1485 -0.1830
20781SOL    HW174067   8.922   5.413  10.934  0.2595 -1.0335  0.3339
20781SOL    HW274068   8.985   5.452  10.802  2.2266 -0.0437  1.5180
20782SOL     OW74069   0.542   6.981   4.169 -0.3574  0.1570  0.3711
20782SOL    HW174070   0.567   6.889   4.157  0.2457  0.0325  2.2384
20782SOL    HW274071   0.500   6.983   4.255  1.3315  1.9309  1.2300
20783SOL     OW74072   0.898   2.385   9.068 -0.1404  0.4162 -0.2391
20783SOL    HW174073   0.964   2.454   9.057  0.5211 -0.3367 -1.1417
20783SOL    HW274074   0.870   2.364   8.979  1.7344 -2.4106 -0.2894
20784SOL     OW74075  10.436   6.465   7.966  0.6731 -0.6846  0.2404
20784SOL    HW174076  10.467   6.542   7.918 -0.5229  0.1371  0.7272
20784SOL    HW274077  10.425   6.496   8.056 -1.6415 -0.8304  0.0779
20785SOL     OW74078   7.400   4.660  10.536 -0.2131 -0.1416  0.1871
20785SOL    HW174079   7.381   4.685  10.446  0.3233  1.4934  0.4812
20785SOL    HW274080   7.494   4.673  10.545 -0.4009  0.6204  1.2246
20786SOL     OW74081   2.897   6.924   2.941  0.1513  0.1879  0.1186
20786SOL    HW174082   2.967   6.911   3.005 -2.0328 -1.2433  2.4038
20786SOL    HW274083   2.862   7.011   2.960 -0.4286 -0.1954  0.8309
20787SOL     OW74084   0.038  11.462  11.725 -0.7837 -0.2982  0.0074
20787SOL    HW174085   0.026  11.540  11.672 -0.3401 -0.4734 -0.3611
20787SOL    HW274086   0.102  11.488  11.792 -1.3536 -0.0734  0.4676
20788SOL     OW74087  11.580   6.396   2.345  0.2381 -0.2745  0.2143
20788SOL    HW174088  11.567   6.317   2.398  1.2925 -0.1472  0.6867
20788SOL    HW274089  11.661   6.434   2.378  0.3845  0.3568 -0.8305
20789SOL     OW74090   2.150   1.283  10.097  0.6552  0.2128 -0.0690
20789SOL    HW174091   2.108   1.369  10.105  1.0588  0.3749  0.4004
20789SOL    HW274092   2.229   1.300  10.045  1.6979  0.4958  1.5293
20790SOL     OW74093   3.198   4.552   2.680  0.1192  0.4644  0.1796
20790SOL    HW174094   3.230   4.592   2.761  1.3162  1.4400 -0.7511
20790SOL    HW274095   3.143   4.619   2.640  0.7807  0.5597 -0.5733
20791SOL     OW74096   5.887   7.152  10.081  0.0410  0.2945 -0.2057
20791SOL    HW174097   5.934   7.236  10.079 -0.0345  0.3268 -1.2784
20791SOL    HW274098   5.795   7.177  10.088  0.0966  0.2582  0.7756
20792SOL     OW74099   2.699  11.018  11.002  0.5913 -0.5975  0.0437
20792SOL    HW174100   2.641  11.025  11.077  0.7340  2.8526  0.0241
20792SOL    HW274101   2.787  11.012  11.040  0.5131 -1.5906  0.0933
20793SOL     OW74102   3.954   3.503   5.235 -0.2695  0.1673  0.3491
20793SOL    HW174103   3.908   3.584   5.260 -0.7124 -0.5082  1.8058
20793SOL    HW274104   3.985   3.467   5.317 -0.1799 -1.2227 -0.2726
20794SOL     OW74105  11.649   7.821   7.243  0.4081 -0.4409 -0.0270
20794SOL    HW174106  11.556   7.821   7.219  0.1567 -2.6924  0.7579
20794SOL    HW274107  11.651   7.847   7.335  0.8645  2.3750 -0.7464
20795SOL     OW74108   6.930   5.832   5.167  0.2618  0.0082 -0.0374
20795SOL    HW174109   6.989   5.840   5.093 -2.3376 -1.6233 -2.4638
20795SOL    HW274110   6.946   5.745   5.203  0.7143  0.3542  0.6248
20796SOL     OW74111   8.646   4.327   6.558 -0.0103 -0.2980 -0.2223
20796SOL    HW174112   8.623   4.420   6.555  0.5192 -0.1788 -2.4535
20796SOL    HW274113   8.732   4.326   6.602 -1.3534 -0.1359  2.6370
20797SOL     OW74114   7.746   9.767   7.870 -0.2961 -0.2110  0.5066
20797SOL    HW174115   7.734   9.785   7.963 -0.4032 -2.4781  0.9917
20797SOL    HW274116   7.659   9.777   7.831 -0.4421 -0.1947  0.8408
20798SOL     OW74117   3.213   5.959   5.496  0.4678  0.2608  0.0467
20798SOL    HW174118   3.130   5.912   5.505 -0.3208  1.4590 -0.6314
20798SOL    HW274119   3.224   5.970   5.402  0.4944  1.6012  0.1820
20799SOL     OW74120   4.220   9.005   7.410  0.4766 -0.1314 -0.3721
20799SOL    HW174121   4.278   8.931   7.428 -0.0515 -0.8596 -1.5526
20799SOL    HW274122   4.181   9.027   7.495  1.8320 -0.1727  0.2752
20800SOL     OW74123  10.767   1.941   5.215 -0.3372  0.0430  0.9767
20800SOL    HW174124  10.786   2.034   5.230  0.1358 -0.0519  1.0008
20800SOL    HW274125  10.778   1.900   5.301  2.4256 -0.5069  0.4478
20801SOL     OW74126   5.346   2.545   6.573 -0.2763  0.0461 -0.1377
20801SOL    HW174127   5.430   2.586   6.595 -0.7216  0.5585  0.6135
20801SOL    HW274128   5.371   2.466   6.524  0.6888 -0.4249  1.0680
20802SOL     OW74129   8.727   1.335  10.872 -0.1602 -0.4093  0.1926
20802SOL    HW174130   8.722   1.426  10.842 -0.1378 -0.5630 -0.2743
20802SOL    HW274131   8.749   1.285  10.794  0.7038 -0.7125  0.6252
20803SOL     OW74132   6.009   5.161   5.552  0.3086 -0.3011 -0.1851
20803SOL    HW174133   5.961   5.224   5.604  0.7455 -0.1319  0.0204
20803SOL    HW274134   5.959   5.153   5.471 -0.2051 -0.3363  0.1334
20804SOL     OW74135   5.263   6.393   4.903  0.4723  0.6155  0.0106
20804SOL    HW174136   5.300   6.413   4.817  1.0050 -0.0373  0.0829
20804SOL    HW274137   5.337   6.397   4.963  0.2440  0.3088  0.3188
20805SOL     OW74138   6.966   7.275   0.207 -0.8767 -0.9294 -0.3390
20805SOL    HW174139   6.920   7.330   0.270  1.3244  1.2030 -0.4461
20805SOL    HW274140   7.027   7.223   0.260 -1.1500 -1.3841 -0.4650
20806SOL     OW74141   0.472   4.885  10.573 -0.0932 -0.0461  0.1777
20806SOL    HW174142   0.471   4.813  10.510 -2.2090 -1.4859  1.6934
20806SOL    HW274143   0.518   4.956  10.529 -2.2641 -0.6121 -3.3809
20807SOL     OW74144   1.500  10.272  10.960  0.2217 -0.4053 -0.5104
20807SOL    HW174145   1.454  10.339  10.908  1.4990  0.1382 -0.9783
20807SOL    HW274146   1.559  10.321  11.016  0.1080 -1.0846  0.2189
20808SOL     OW74147   9.506  11.710   2.927  0.3640  0.0410  0.3434
20808SOL    HW174148   9.457  11.789   2.906 -0.1574 -0.3314  0.1472
20808SOL    HW274149   9.598  11.734   2.914  0.1175 -0.0759 -2.0905
20809SOL     OW74150   1.602   2.838  11.209 -0.1105  0.0298  0.1061
20809SOL    HW174151   1.649   2.795  11.280  0.0370 -0.6367 -0.3837
20809SOL    HW274152   1.526   2.782  11.193 -0.1292  0.1588 -0.2722
20810SOL     OW74153   9.587   0.548   4.824 -0.2633  0.2477  0.2033
20810SOL    HW174154   9.510   0.579   4.777  0.2464  1.3454  0.0541
20810SOL    HW274155   9.641   0.504   4.758 -0.5434 -0.1193  0.2159
20811SOL     OW74156   5.046   6.846   0.397 -0.2784  0.6114  0.1523
20811SOL    HW174157   5.096   6.820   0.474 -2.2788 -0.7009  1.0785
20811SOL    HW274158   5.030   6.940   0.409 -0.8838  0.3440  1.5244
20812SOL     OW74159   7.968  11.283  10.769  0.4131 -0.0786  0.4358
20812SOL    HW174160   7.936  11.216  10.830  0.2419 -0.7707 -0.4113
20812SOL    HW274161   7.930  11.365  10.802 -0.0971 -0.5144  0.9520
20813SOL     OW74162   0.186   4.099   3.669  0.2210 -0.5564 -0.2806
20813SOL    HW174163   0.160   4.168   3.730 -1.1623 -0.9138 -0.4244
20813SOL    HW274164   0.205   4.023   3.724  1.8722 -0.0496 -0.1132
20814SOL     OW74165   0.914  11.287   4.973 -0.1272  0.1995  0.2672
20814SOL    HW174166   0.869  11.319   5.051 -0.5638 -1.2806  0.6493
20814SOL    HW274167   0.885  11.345   4.902 -0.3694  1.0349  1.0406
20815SOL     OW74168   9.745   2.178   7.658 -0.0256  0.0348 -0.1208
20815SOL    HW174169   9.651   2.168   7.642 -0.0336 -0.9488  0.4386
20815SOL    HW274170   9.787   2.123   7.592  0.1003 -0.4155  0.3237
20816SOL     OW74171   4.574   1.497   4.188 -0.8518  0.5438 -0.1179
20816SOL    HW174172   4.667   1.472   4.192 -1.1367 -0.7819 -1.2206
20816SOL    HW274173   4.533   1.446   4.257 -1.0071 -0.0262 -0.6314
20817SOL     OW74174   6.337   0.841   8.094  0.4679 -0.7724  0.2477
20817SOL    HW174175   6.414   0.881   8.134  0.6615 -0.6101 -0.2652
20817SOL    HW274176   6.342   0.749   8.117  2.3567 -1.3324 -2.0575
20818SOL     OW74177   8.740  10.478   1.032  0.1274  0.1832  0.1423
20818SOL    HW174178   8.760  10.397   0.985 -1.5657 -0.6722  0.8234
20818SOL    HW274179   8.657  10.460   1.077 -1.6267  3.1200 -1.6252
20819SOL     OW74180  11.495   3.984   9.320 -0.0401 -0.5916 -0.3271
20819SOL    HW174181  11.409   4.021   9.302 -0.8586 -2.0294  0.4286
20819SOL    HW274182  11.480   3.890   9.327  1.6897 -0.9350 -0.6725
20820SOL     OW74183   5.535   4.498   1.044  0.2062 -0.3150  0.0670
20820SOL    HW174184   5.526   4.442   0.966  1.1764 -1.1167  0.5131
20820SOL    HW274185   5.626   4.489   1.070  0.2754  1.1637  0.4134
20821SOL     OW74186   2.382   1.208   3.871  0.4033  0.4302  0.0023
20821SOL    HW174187   2.326   1.194   3.947 -1.8217  1.0509 -1.4083
20821SOL    HW274188   2.395   1.303   3.868  0.2254  0.4390 -0.5571
20822SOL     OW74189   1.801   5.115   5.171  0.2946  0.2955 -0.3889
20822SOL    HW174190   1.878   5.078   5.127  0.6148 -1.6598  1.6488
20822SOL    HW274191   1.823   5.207   5.184  2.1312 -0.1199 -0.2557
20823SOL     OW74192  10.895   8.737   7.434  0.4337 -0.0403 -0.0056
20823SOL    HW174193  10.871   8.829   7.438  2.8032  0.6310  0.2802
20823SOL    HW274194  10.825   8.696   7.384 -0.6759  1.9110 -0.1398
20824SOL     OW74195   4.043   4.974   3.023  0.2345  0.3183  0.4316
20824SOL    HW174196   3.971   4.947   2.966  1.9904  1.3676 -2.4982
20824SOL    HW274197   4.035   5.069   3.028  0.5402  0.3034  1.4174
20825SOL     OW74198   8.925   7.188   3.175  0.0035 -0.6080 -0.1318
20825SOL    HW174199   8.870   7.256   3.135  1.0131  0.6302  0.5111
20825SOL    HW274200   8.947   7.130   3.103  0.5186  0.7086 -1.0749
20826SOL     OW74201   9.750   7.834  11.234 -0.4686 -0.2785 -0.0644
20826SOL    HW174202   9.725   7.765  11.173 -1.1307 -0.5004  0.4410
20826SOL    HW274203   9.724   7.800  11.320 -2.2327  1.1981  0.0496
20827SOL     OW74204  11.596   3.310   3.301  0.2506  0.4770  0.6523
20827SOL    HW174205  11.591   3.336   3.209 -0.3493 -0.0940  0.5183
20827SOL    HW274206  11.651   3.232   3.300  0.1739  0.4228  0.7692
20828SOL     OW74207   1.896   4.919   2.853 -0.1640 -0.1687  0.4717
20828SOL    HW174208   1.804   4.893   2.839 -0.3755  1.5926 -2.0652
20828SOL    HW274209   1.891   5.011   2.879  0.8741  0.0362 -0.0310
20829SOL     OW74210  11.174   6.382  11.777  0.1962  0.2911  0.1010
20829SOL    HW174211  11.143   6.293  11.761 -1.9027  1.2266 -1.6161
20829SOL    HW274212  11.195   6.384  11.870  1.2089 -2.2233 -0.0126
20830SOL     OW74213   6.461   2.197   5.477  0.1550 -0.1726  0.4891
20830SOL    HW174214   6.493   2.260   5.412 -0.0863  0.4632  0.9855
20830SOL    HW274215   6.498   2.114   5.448  1.8830  0.4579  0.7551
20831SOL     OW74216   9.847   6.165  11.635 -0.0659  0.1271 -0.3328
20831SOL    HW174217   9.754   6.158  11.659 -0.0924  2.2921  0.4494
20831SOL    HW274218   9.847   6.214  11.553  0.3835  0.4661 -0.1360
20832SOL     OW74219   5.751   2.123   7.135 -0.1043  0.4298  0.7180
20832SOL    HW174220   5.809   2.198   7.150  0.8760 -0.2137  0.2435
20832SOL    HW274221   5.770   2.064   7.208 -1.2913  0.8745  1.4094
20833SOL     OW74222   3.971   8.891   4.221 -0.6675 -0.0240 -0.0659
20833SOL    HW174223   3.967   8.803   4.256 -1.6200  0.0144 -0.0741
20833SOL    HW274224   4.062   8.919   4.237 -0.8663 -0.2674  1.6993
20834SOL     OW74225   2.009   6.964   7.335 -0.1876 -0.1507 -0.0771
20834SOL    HW174226   1.997   6.927   7.247  0.4765  0.3660 -0.3855
20834SOL    HW274227   2.096   6.936   7.361 -0.8414 -1.3424  0.9353
20835SOL     OW74228   6.596   7.350   2.037  0.4038 -0.0827 -0.1547
20835SOL    HW174229   6.682   7.324   2.070 -0.4700 -2.0973  0.7010
20835SOL    HW274230   6.576   7.431   2.083  0.4183 -1.3790  2.2774
20836SOL     OW74231  10.062   1.010   5.826 -0.0810 -0.3334  0.3671
20836SOL    HW174232  10.122   1.010   5.752  1.2180  0.5647  1.3857
20836SOL    HW274233   9.985   0.964   5.794  0.8302 -0.8180 -1.2261
20837SOL     OW74234   5.072   8.616   5.026  0.3668 -0.3216 -0.0861
20837SOL    HW174235   5.132   8.592   5.096 -0.2140 -1.9110 -0.0927
20837SOL    HW274236   5.015   8.539   5.016 -0.4893  0.4416 -1.3077
20838SOL     OW74237   5.149  10.110   4.417 -0.3443 -0.1554 -0.0832
20838SOL    HW174238   5.214  10.123   4.487 -0.0201 -2.3950  0.1097
20838SOL    HW274239   5.081  10.057   4.457 -1.4037  0.6343 -0.8069
20839SOL     OW74240  11.931   1.005   9.446 -0.2153  0.3495  0.4311
20839SOL    HW174241  11.948   0.939   9.379  2.5048  1.0121  0.3552
20839SOL    HW274242  12.016   1.023   9.485 -1.1888  2.3680  1.8300
20840SOL     OW74243   5.298   6.401   3.248 -0.1126 -0.4856  0.0728
20840SOL    HW174244   5.317   6.428   3.159  0.7828  0.4296  0.5239
20840SOL    HW274245   5.322   6.476   3.302  2.6012 -2.1292  1.3828
20841SOL     OW74246   6.909   0.542   1.841 -0.6276 -0.1354  0.3169
20841SOL    HW174247   6.928   0.458   1.799 -2.3018 -1.1756  1.5490
20841SOL    HW274248   6.963   0.605   1.792 -0.0442 -1.7529 -1.2507
20842SOL     OW74249   5.464   7.785   0.323 -0.2916  0.0102 -0.0135
20842SOL    HW174250   5.518   7.742   0.389 -0.5161  0.4909  0.4864
20842SOL    HW274251   5.378   7.744   0.333  0.2681 -1.7531 -1.7302
20843SOL     OW74252   7.679  11.132   7.543 -0.0871 -0.5132 -0.4470
20843SOL    HW174253   7.729  11.053   7.560 -0.5187 -0.5098  1.0289
20843SOL    HW274254   7.618  11.109   7.473  2.7084 -0.1649 -3.2036
20844SOL     OW74255   5.194   3.708   9.304  0.0813 -0.7658 -0.5611
20844SOL    HW174256   5.207   3.622   9.344 -0.7762 -0.8994 -0.5591
20844SOL    HW274257   5.251   3.708   9.227  2.1056 -0.3451  0.8593
20845SOL     OW74258  11.052   2.383   4.363 -0.1199 -0.2246  0.4480
20845SOL    HW174259  11.107   2.347   4.432 -0.7649 -0.0735  1.0561
20845SOL    HW274260  11.020   2.306   4.315  1.3569 -0.2806 -0.5230
20846SOL     OW74261   4.686   0.457   7.623 -0.2700  0.1844  0.0107
20846SOL    HW174262   4.662   0.542   7.586 -1.0525 -0.2626 -0.5343
20846SOL    HW274263   4.612   0.431   7.678 -0.3936 -0.4904 -0.4494
20847SOL     OW74264  11.517   8.988   9.483 -0.0707  0.2241 -0.0234
20847SOL    HW174265  11.532   8.982   9.578 -0.7118  1.2395  0.1478
20847SOL    HW274266  11.536   9.079   9.462 -1.3592  0.3633 -0.6214
20848SOL     OW74267   8.913   5.368   5.699  0.0407 -0.2903  0.7086
20848SOL    HW174268   8.935   5.444   5.645  1.6293 -0.2679  1.3214
20848SOL    HW274269   8.843   5.324   5.651  0.5398  0.4084 -0.7310
20849SOL     OW74270  10.560   2.388   0.886  0.0028 -0.2517  0.2988
20849SOL    HW174271  10.622   2.333   0.934  0.0972  1.4913  2.3318
20849SOL    HW274272  10.613   2.432   0.820  0.5611 -0.1824  0.7899
20850SOL     OW74273   7.276   4.670   9.546 -0.2003  0.5540  0.0825
20850SOL    HW174274   7.369   4.671   9.521 -0.2921  1.8956 -0.2719
20850SOL    HW274275   7.241   4.751   9.510 -1.8023 -0.4760 -0.8234
20851SOL     OW74276  11.704   3.499   3.485 -0.5810 -0.7432  0.0268
20851SOL    HW174277  11.750   3.576   3.453 -2.5996  0.6668  0.3851
20851SOL    HW274278  11.692   3.444   3.407  1.1915 -0.9227 -0.1595
20852SOL     OW74279   1.541   9.825   5.241  0.0437  0.5077  0.1846
20852SOL    HW174280   1.539   9.754   5.306  1.5060  0.2857  0.0243
20852SOL    HW274281   1.451   9.829   5.208 -0.2721 -0.7052  0.8112
20853SOL     OW74282  10.719   5.094  10.462 -0.6032  0.2532  0.4400
20853SOL    HW174283  10.758   5.126  10.544 -0.1539 -1.0388  0.7521
20853SOL    HW274284  10.718   4.999  10.471 -0.4434  0.0719 -1.1031
20854SOL     OW74285  11.634   4.827  10.096  0.2174  0.0821 -0.0965
20854SOL    HW174286  11.578   4.895  10.058 -0.4026 -0.1987  0.2982
20854SOL    HW274287  11.595   4.809  10.182  0.8901 -0.1530  0.1667
20855SOL     OW74288   6.274   1.388  10.652 -0.4803  0.5489 -0.1887
20855SOL    HW174289   6.355   1.337  10.661 -0.0443  0.9589 -1.5705
20855SOL    HW274290   6.229   1.349  10.578 -1.3725  0.5779  0.3310
20856SOL     OW74291   1.824   6.384   9.197  0.2291 -0.0168  0.1422
20856SOL    HW174292   1.905   6.412   9.153  1.3292 -0.0012  2.0617
20856SOL    HW274293   1.754   6.420   9.144  1.5146  1.1490 -0.8340
20857SOL     OW74294   1.051   6.344   8.756 -0.4980 -0.4372  0.6190
20857SOL    HW174295   1.038   6.292   8.835 -1.4067 -1.2616 -0.0493
20857SOL    HW274296   0.979   6.407   8.757  0.8748  1.2216  1.6861
20858SOL     OW74297   2.026   2.901   5.959 -0.0030  0.0848  0.3446
20858SOL    HW174298   1.981   2.920   5.876 -0.0492 -1.5640 -0.0473
20858SOL    HW274299   2.116   2.929   5.944 -0.2095  0.6171  0.0625
20859SOL     OW74300   3.727   0.292   7.946 -0.1880 -0.2427  0.2255
20859SOL    HW174301   3.655   0.341   7.985 -0.3042  1.4278 -1.8996
20859SOL    HW274302   3.692   0.203   7.934 -1.7774  0.4178 -0.3637
20860SOL     OW74303  11.141   1.561   5.613 -0.4204  0.9343 -0.1943
20860SOL    HW174304  11.168   1.643   5.573  0.1715  1.0739  0.4837
20860SOL    HW274305  11.162   1.494   5.548  2.1353  0.9603  0.5280
20861SOL     OW74306  10.764   4.395   1.790  0.5301 -0.2563  0.0065
20861SOL    HW174307  10.820   4.362   1.719  1.1091  0.3540  0.1618
20861SOL    HW274308  10.824   4.448   1.844 -0.4299  1.3867 -0.4673
20862SOL     OW74309   7.881  11.323   4.359 -0.5739 -0.4557 -0.2606
20862SOL    HW174310   7.813  11.378   4.399  0.4370  0.2624  0.5737
20862SOL    HW274311   7.863  11.235   4.392 -1.5798 -0.4357 -0.7265
20863SOL     OW74312   0.302   1.329   8.181  0.1602  0.6569  0.1026
20863SOL    HW174313   0.306   1.424   8.192 -1.8776  0.8119 -0.1615
20863SOL    HW274314   0.251   1.316   8.101  0.1766 -0.6650  0.2907
20864SOL     OW74315   1.431   1.268   3.665  0.0122  0.2117 -0.5235
20864SOL    HW174316   1.501   1.281   3.729  0.2415 -1.6020 -0.3592
20864SOL    HW274317   1.452   1.328   3.593  1.3448  0.1720 -0.1872
20865SOL     OW74318   4.571  11.938  10.527  0.5136 -0.2135  0.1110
20865SOL    HW174319   4.502  11.920  10.463  0.9254  1.1319 -0.7464
20865SOL    HW274320   4.571  11.861  10.584 -0.2662 -1.1751 -1.1348
20866SOL     OW74321   4.184   4.832   3.229 -0.5905  0.0169  0.3863
20866SOL    HW174322   4.152   4.869   3.146 -1.1880  0.3309  0.7491
20866SOL    HW274323   4.259   4.779   3.204 -0.6265  0.2914 -0.3329
20867SOL     OW74324   9.912   5.093   2.612  0.8529  0.0860 -0.4879
20867SOL    HW174325   9.824   5.060   2.599  0.2753 -0.1141  3.0359
20867SOL    HW274326   9.904   5.188   2.608 -0.1272  0.2031  2.1652
20868SOL     OW74327   5.372   7.732   6.551 -0.3001  0.1093  0.0995
20868SOL    HW174328   5.411   7.679   6.621 -1.4956 -1.1440 -0.1407
20868SOL    HW274329   5.340   7.668   6.488 -0.7409  1.1719 -0.7803
20869SOL     OW74330   5.250   8.888   4.220 -0.0100  0.0692  0.1808
20869SOL    HW174331   5.285   8.967   4.180  0.2226  0.2918  0.8073
20869SOL    HW274332   5.286   8.816   4.169 -2.1834  0.4035 -1.9810
20870SOL     OW74333   7.946  11.700   4.954 -0.2308 -0.1558  0.0752
20870SOL    HW174334   7.856  11.668   4.960 -0.0314 -0.9465 -0.9038
20870SOL    HW274335   7.989  11.668   5.033 -0.1767 -1.9303 -0.6349
20871SOL     OW74336   3.787   7.408   8.483  0.2527  0.3255 -0.0155
20871SOL    HW174337   3.697   7.375   8.495  0.4349  0.4310  1.9836
20871SOL    HW274338   3.777   7.483   8.424 -0.9014  0.0695 -0.1830
20872SOL     OW74339   0.411  10.977   8.014 -0.3546  0.0173 -0.1997
20872SOL    HW174340   0.435  11.066   7.989 -0.7374 -0.3452 -1.9635
20872SOL    HW274341   0.331  10.958   7.965 -1.3089 -0.6816  1.5280
20873SOL     OW74342   3.812   7.027   8.484 -0.0576  0.4087  0.0391
20873SOL    HW174343   3.802   7.092   8.554 -0.1652  0.5579 -0.1133
20873SOL    HW274344   3.788   6.944   8.526 -0.1328  0.4982  0.1778
20874SOL     OW74345   3.768   8.495  10.820  0.6141 -0.0204 -0.3149
20874SOL    HW174346   3.843   8.438  10.802  0.8240 -0.4889  1.6979
20874SOL    HW274347   3.693   8.449  10.782  1.0344 -0.7908 -0.2401
20875SOL     OW74348  10.806   8.497   0.541 -0.1227  0.4399  0.2329
20875SOL    HW174349  10.756   8.431   0.588 -0.0671  0.9498  1.0198
20875SOL    HW274350  10.898   8.475   0.559 -0.0857  0.3073 -0.1023
20876SOL     OW74351   0.178  11.922   9.221  0.8368  0.1185  0.2903
20876SOL    HW174352   0.223  11.949   9.301 -1.6058  2.6629  0.9994
20876SOL    HW274353   0.213  11.979   9.153  2.1483 -1.3169 -0.2927
20877SOL     OW74354  10.052  11.907  10.538  0.2541  0.2636 -0.4873
20877SOL    HW174355  10.010  11.993  10.547  0.6959  0.2675  3.6159
20877SOL    HW274356   9.981  11.848  10.513 -0.5614  1.4311 -1.0048
20878SOL     OW74357   4.536   8.697  11.519  0.6822  0.0312 -0.2118
20878SOL    HW174358   4.478   8.651  11.458  0.3904  0.0023  0.0804
20878SOL    HW274359   4.505   8.788  11.518 -0.5304 -0.3207  1.2623
20879SOL     OW74360   2.880   1.891   4.690  0.2358 -0.5401  0.2536
20879SOL    HW174361   2.962   1.921   4.730 -0.2427 -1.3624  1.9771
20879SOL    HW274362   2.905   1.815   4.638  0.6467 -0.5013  0.3895
20880SOL     OW74363   8.234   0.266   1.708  0.5943  0.0954  0.4226
20880SOL    HW174364   8.272   0.342   1.664  0.4365  1.0240  1.8273
20880SOL    HW274365   8.299   0.196   1.696  0.6938  0.3905 -0.9773
20881SOL     OW74366   3.707   5.275   0.621  0.9833  0.4752  0.1045
20881SOL    HW174367   3.767   5.205   0.651  0.7659 -0.2788 -1.1593
20881SOL    HW274368   3.671   5.311   0.702 -0.2779 -2.0962  0.8187
20882SOL     OW74369   5.594  11.728   4.061  0.1152  0.3239 -0.1241
20882SOL    HW174370   5.607  11.794   4.130 -0.4302  0.7932 -0.4642
20882SOL    HW274371   5.671  11.671   4.069  0.8446  1.2726 -0.1347
20883SOL     OW74372   0.976   2.142   9.161 -0.1164 -0.2276  0.3597
20883SOL    HW174373   0.898   2.093   9.189 -0.2686  0.2110  0.7175
20883SOL    HW274374   0.949   2.234   9.164 -0.1568 -0.1508 -1.2885
20884SOL     OW74375   0.160   7.558   6.269 -0.4117  0.7207 -0.2717
20884SOL    HW174376   0.234   7.599   6.312 -0.9413  0.9580  0.4416
20884SOL    HW274377   0.198   7.487   6.218  0.2513  0.4668  0.5486
20885SOL     OW74378   2.227   5.945   5.299 -0.1924 -0.1809 -0.3439
20885SOL    HW174379   2.142   5.927   5.260 -1.1048  0.9254  1.0396
20885SOL    HW274380   2.222   6.036   5.326  1.4707 -0.0751 -0.3027
20886SOL     OW74381   3.461   5.713   3.929 -0.4653 -0.0085 -0.4044
20886SOL    HW174382   3.483   5.793   3.978  0.7779 -0.4410 -0.2241
20886SOL    HW274383   3.487   5.733   3.839 -1.0019  0.1026 -0.5414
20887SOL     OW74384   8.513   7.004   3.038  0.4137 -0.0653  0.4085
20887SOL    HW174385   8.487   7.096   3.042  1.2020  0.2809 -1.5051
20887SOL    HW274386   8.596   7.001   3.085  1.3626  0.6218 -1.1550
20888SOL     OW74387   6.411   8.246   0.674 -0.1789 -0.1072 -0.3080
20888SOL    HW174388   6.345   8.314   0.688 -2.0408 -1.3757 -2.2699
20888SOL    HW274389   6.375   8.169   0.718 -0.2569 -0.9260 -1.7528
20889SOL     OW74390   3.591   7.127   7.043  0.5109  0.4265 -0.0821
20889SOL    HW174391   3.546   7.120   6.958  0.8265 -1.7029 -0.1382
20889SOL    HW274392   3.577   7.218   7.070 -0.2299  0.9680 -2.0594
20890SOL     OW74393   9.510   5.466   5.821  0.2005 -0.2193 -0.4624
20890SOL    HW174394   9.571   5.511   5.879  0.2790 -1.5769  0.5784
20890SOL    HW274395   9.525   5.504   5.735  1.9704  0.0297 -0.0759
20891SOL     OW74396   5.264   8.187  11.502 -0.0166 -0.2620 -0.3409
20891SOL    HW174397   5.305   8.241  11.570 -1.3977  0.2229  0.1374
20891SOL    HW274398   5.207   8.127  11.550  0.6324 -1.4177 -0.9516
20892SOL     OW74399   4.611   4.643   3.767  0.1100 -0.7275 -0.1182
20892SOL    HW174400   4.646   4.573   3.822  1.3599  1.3190  1.8397
20892SOL    HW274401   4.684   4.665   3.708 -0.3912 -1.2350 -0.9559
20893SOL     OW74402   8.138   7.359   7.475  0.2821 -0.1732 -0.1183
20893SOL    HW174403   8.197   7.330   7.405  1.2202  0.4404  0.4014
20893SOL    HW274404   8.144   7.290   7.541 -1.1236 -1.0955 -0.8909
20894SOL     OW74405   2.685   1.036   7.397  0.1886 -0.2099  0.1309
20894SOL    HW174406   2.622   0.983   7.445  1.0230 -1.0432  0.3291
20894SOL    HW274407   2.652   1.126   7.404 -0.5141 -0.5248  0.9427
20895SOL     OW74408   7.695  11.278   2.877 -0.4888  0.0526  0.1820
20895SOL    HW174409   7.620  11.248   2.929 -0.4216  0.8667  0.7557
20895SOL    HW274410   7.704  11.212   2.808 -2.8384  0.7982 -0.9637
20896SOL     OW74411   6.977   3.498   1.123  0.3484 -0.0392 -0.2053
20896SOL    HW174412   7.017   3.425   1.172  0.3929 -0.2328 -0.5294
20896SOL    HW274413   6.883   3.486   1.135  0.3802  0.5773  0.7935
20897SOL     OW74414   0.909   1.543   0.491  0.4182  0.2361 -0.0595
20897SOL    HW174415   0.864   1.528   0.408 -0.5598  0.4745  0.4211
20897SOL    HW274416   0.883   1.632   0.517 -1.2360 -0.6833  1.6837
20898SOL     OW74417   0.774   6.132   1.450  0.7108  0.2708 -0.0259
20898SOL    HW174418   0.786   6.222   1.419  0.4852 -0.3595 -2.0677
20898SOL    HW274419   0.853   6.086   1.421  1.2488 -0.0438  1.7807
20899SOL     OW74420   8.298  11.834   4.503 -0.5952  0.1577  0.5622
20899SOL    HW174421   8.352  11.837   4.582 -1.6820  2.7232  1.3098
20899SOL    HW274422   8.255  11.920   4.500 -1.5366 -0.3129 -2.1724
20900SOL     OW74423   9.552  11.426   7.223  0.5186 -0.0618  0.3552
20900SOL    HW174424   9.615  11.485   7.264  1.1986  0.1892 -0.9872
20900SOL    HW274425   9.559  11.445   7.129 -2.2907  0.7201  0.2017
20901SOL     OW74426   1.302   5.903   3.815 -0.1582 -0.5493  0.1466
20901SOL    HW174427   1.341   5.827   3.772 -0.7555 -0.6538 -0.2188
20901SOL    HW274428   1.349   5.978   3.779  0.4482 -0.7435  0.5239
20902SOL     OW74429   3.175  10.229  10.123  0.9726  0.1190 -0.0551
20902SOL    HW174430   3.167  10.312  10.077  0.7566  0.6579  0.9303
20902SOL    HW274431   3.101  10.177  10.091 -1.0534  1.5910  1.8731
20903SOL     OW74432   3.510  10.245   6.828 -0.5843  0.1810 -0.3296
20903SOL    HW174433   3.464  10.314   6.780  1.1113  0.7873 -1.1574
20903SOL    HW274434   3.574  10.292   6.882 -1.5115 -0.5809  1.5170
20904SOL     OW74435   6.412   9.080   6.987  0.1872 -0.6688 -0.2654
20904SOL    HW174436   6.414   9.040   6.900 -1.6301 -1.1357 -0.1399
20904SOL    HW274437   6.350   9.026   7.037 -0.2177  0.6838  0.7466
20905SOL     OW74438  10.778   3.806   5.936 -0.1256  0.0954  0.6034
20905SOL    HW174439  10.736   3.736   5.985 -0.6914 -2.1922 -2.7745
20905SOL    HW274440  10.872   3.794   5.953 -0.2456 -1.2537  0.4510
20906SOL     OW74441   4.535  11.713   0.100 -0.3942  0.1022 -0.6584
20906SOL    HW174442   4.603  11.756   0.048  0.1765  1.8526  1.3898
20906SOL    HW274443   4.474  11.678   0.035  0.8012  1.2688 -2.5069
20907SOL     OW74444   3.965   6.718   2.794  0.5083 -0.2137  0.1407
20907SOL    HW174445   4.043   6.667   2.816  0.1881  0.5430  3.6749
20907SOL    HW274446   3.998   6.806   2.777  0.5616 -0.2671 -0.0313
20908SOL     OW74447   1.249   5.890   7.201  0.4203 -0.2613 -0.2224
20908SOL    HW174448   1.330   5.934   7.179 -0.0507  0.3648 -0.7416
20908SOL    HW274449   1.258   5.869   7.294  0.8939  0.4275 -0.1016
20909SOL     OW74450   4.778  11.080   9.374  0.8474 -0.5335 -0.1707
20909SOL    HW174451   4.743  11.166   9.398 -1.1929 -0.9135 -1.4846
20909SOL    HW274452   4.814  11.045   9.455  1.8252  1.5712  0.3723
20910SOL     OW74453   8.435   7.302   2.554  0.0594  0.5287  0.1162
20910SOL    HW174454   8.428   7.211   2.525 -0.9495  0.1356  1.5465
20910SOL    HW274455   8.349   7.324   2.588 -0.0810  2.4432 -1.3157
20911SOL     OW74456   4.271   3.058   8.040 -0.1561 -0.1003  0.0066
20911SOL    HW174457   4.202   3.059   8.106 -0.3364 -0.9654 -0.1581
20911SOL    HW274458   4.274   3.148   8.007 -2.3396 -0.3678 -1.1293
20912SOL     OW74459   2.852   1.563   5.963  0.4011 -0.1482 -0.5159
20912SOL    HW174460   2.907   1.486   5.974  1.5640  0.4909 -1.6720
20912SOL    HW274461   2.813   1.577   6.050 -0.1782 -2.2513 -0.3845
20913SOL     OW74462   3.884   2.878   8.772  0.1660 -0.3472 -0.3918
20913SOL    HW174463   3.838   2.795   8.782  0.0854 -0.1257  1.2984
20913SOL    HW274464   3.823   2.934   8.724  0.1133 -1.1559 -1.3013
20914SOL     OW74465  10.456   7.598   8.722  0.1586  0.1477  0.2443
20914SOL    HW174466  10.546   7.630   8.721  0.0655  0.4099 -0.3601
20914SOL    HW274467  10.412   7.651   8.655 -0.6259  0.5485  1.0679
20915SOL     OW74468   3.724   3.111   7.067  0.0777  0.6900  0.1027
20915SOL    HW174469   3.701   3.203   7.050 -0.6429  0.5566  0.3453
20915SOL    HW274470   3.760   3.112   7.156 -0.1817  0.6945  0.2078
20916SOL     OW74471   3.803   1.222   7.191 -0.5159 -0.5897  0.1358
20916SOL    HW174472   3.812   1.312   7.161 -0.5184 -0.9180 -0.8666
20916SOL    HW274473   3.727   1.224   7.250  0.2305  0.2913  1.1120
20917SOL     OW74474   4.808   2.151   1.809 -0.0412  0.5343  0.1507
20917SOL    HW174475   4.712   2.152   1.800 -0.1433 -0.1621  1.0031
20917SOL    HW274476   4.838   2.110   1.727 -0.5280  0.0829  0.1846
20918SOL     OW74477   9.871   1.184   2.935  0.1143 -0.4605 -0.5196
20918SOL    HW174478   9.917   1.129   2.871 -1.4068 -2.0135 -0.3414
20918SOL    HW274479   9.902   1.152   3.019 -0.4747 -0.7911 -0.4239
20919SOL     OW74480   5.127   9.133   2.120  0.5460 -0.7278  0.2297
20919SOL    HW174481   5.092   9.213   2.080  0.9625 -0.6747 -0.0270
20919SOL    HW274482   5.062   9.111   2.187  1.8544  1.4931  2.4006
20920SOL     OW74483   8.739   2.031   8.397  0.2215 -0.9032  0.4037
20920SOL    HW174484   8.688   1.968   8.448 -0.8810 -0.8613 -0.5867
20920SOL    HW274485   8.749   1.989   8.311 -2.8833  1.2300 -1.2328
20921SOL     OW74486  10.804   2.186   6.704  0.5045  0.2115 -0.0911
20921SOL    HW174487  10.763   2.253   6.650 -0.0501 -0.4823 -0.5544
20921SOL    HW274488  10.863   2.234   6.761  0.8862  0.9876 -1.1120
20922SOL     OW74489   0.858   0.355   9.157 -0.6048  0.6297  0.4439
20922SOL    HW174490   0.767   0.380   9.172 -0.9028 -0.7273  1.0510
20922SOL    HW274491   0.878   0.295   9.228  0.6026  0.4823  0.0013
20923SOL     OW74492   2.620   4.544   2.878 -0.6789  0.3075  0.5465
20923SOL    HW174493   2.595   4.556   2.786 -1.5387 -2.0812  0.3861
20923SOL    HW274494   2.600   4.627   2.920 -2.3323  0.7520 -1.0070
20924SOL     OW74495   3.580  11.126   9.944  0.1046 -0.0912  0.1669
20924SOL    HW174496   3.508  11.180   9.977 -0.4759 -0.3167 -0.6986
20924SOL    HW274497   3.607  11.169   9.863  1.9454  0.8212  1.1922
20925SOL     OW74498   5.191   9.627   8.768 -0.3773  0.0383 -0.1711
20925SOL    HW174499   5.245   9.566   8.718 -1.2605 -0.5559 -0.4375
20925SOL    HW274500   5.114   9.575   8.794  0.2403  0.1878  2.1953
20926SOL     OW74501  10.145   6.090   1.229  0.2390 -0.5441 -0.0639
20926SOL    HW174502  10.165   6.029   1.158 -0.9350 -0.8542 -0.1514
20926SOL    HW274503  10.130   6.034   1.305 -0.5686 -0.3738 -0.0797
20927SOL     OW74504  11.799   1.510  10.047 -0.1570  0.2988 -0.0681
20927SOL    HW174505  11.708   1.535  10.064 -1.0357 -2.5573 -0.0498
20927SOL    HW274506  11.843   1.518  10.132 -0.9764 -0.4806  0.4396
20928SOL     OW74507   2.936   4.870   2.788  0.8084 -0.0174 -0.2466
20928SOL    HW174508   2.949   4.862   2.882  0.8429 -0.4179 -0.2812
20928SOL    HW274509   2.889   4.953   2.777  0.5548 -0.1032  0.1492
20929SOL     OW74510   3.954   9.322   2.654  0.3288 -0.8083  0.1312
20929SOL    HW174511   3.951   9.415   2.676  0.8910 -0.4492 -1.2133
20929SOL    HW274512   3.879   9.308   2.596  0.0879 -1.2580  0.5420
20930SOL     OW74513  11.187  11.777   6.962  0.0905 -0.1841 -0.2634
20930SOL    HW174514  11.223  11.807   7.045 -1.8002  0.7774  0.2537
20930SOL    HW274515  11.258  11.727   6.922  2.6259  3.0166 -0.1339
20931SOL     OW74516   9.868   9.651   6.498  0.4131  0.2822  0.4407
20931SOL    HW174517   9.890   9.619   6.411  2.3264  2.7750 -0.1180
20931SOL    HW274518   9.772   9.652   6.499  0.2738 -2.7437 -0.3726
20932SOL     OW74519   8.514   6.281   0.020 -0.3471  0.2465 -0.2535
20932SOL    HW174520   8.596   6.284   0.069 -0.0265 -2.0624 -0.5449
20932SOL    HW274521   8.476   6.196   0.041 -2.3309  0.9575 -0.7113
20933SOL     OW74522   3.509  10.928   6.885  0.1085 -0.8122 -0.4826
20933SOL    HW174523   3.470  10.948   6.970  0.2487  0.4682 -0.7060
20933SOL    HW274524   3.475  10.995   6.826  1.1781 -0.7929 -1.1030
20934SOL     OW74525   0.030  10.856   6.320 -0.3964  0.2399 -0.6165
20934SOL    HW174526  -0.019  10.918   6.374  1.5164 -0.7270  2.4781
20934SOL    HW274527  -0.028  10.780   6.313 -0.0052 -0.3527  1.7942
20935SOL     OW74528   0.569   4.251  11.729 -0.2573  0.0377 -0.1885
20935SOL    HW174529   0.520   4.176  11.764 -1.5018  0.7544 -0.3452
20935SOL    HW274530   0.661   4.226  11.739 -0.5156 -0.0801  3.0407
20936SOL     OW74531   8.362   5.871  11.270 -0.3347  0.0585 -0.3496
20936SOL    HW174532   8.280   5.837  11.235 -1.7275  1.7534  1.0666
20936SOL    HW274533   8.428   5.841  11.208 -1.8576 -2.1693 -1.0394
20937SOL     OW74534   6.836   6.963  10.358  0.5489  0.1397 -0.0480
20937SOL    HW174535   6.869   6.968  10.269  0.0991 -1.4350 -0.3357
20937SOL    HW274536   6.902   6.913  10.406 -0.5655 -1.6275 -0.2488
20938SOL     OW74537   2.318  10.984   4.573 -0.3145 -0.2907 -0.2697
20938SOL    HW174538   2.269  11.049   4.522  1.2917  0.6849 -0.6705
20938SOL    HW274539   2.390  10.959   4.515 -0.1845 -1.4837  0.3819
20939SOL     OW74540   8.921   3.490   3.800 -0.3145  0.0775 -0.2465
20939SOL    HW174541   8.982   3.538   3.856  0.3488  0.5107 -1.3043
20939SOL    HW274542   8.853   3.459   3.859  1.3065 -1.0849  1.1120
20940SOL     OW74543   0.806   0.128  10.390  0.3722  0.3031  0.1410
20940SOL    HW174544   0.764   0.180  10.322  0.5822 -1.0216 -1.0485
20940SOL    HW274545   0.798   0.181  10.470 -2.0669  0.8117 -0.3719
20941SOL     OW74546   0.808   1.681   9.875 -0.3844  0.1456 -0.1242
20941SOL    HW174547   0.734   1.621   9.884 -2.3895  2.6178  1.1223
20941SOL    HW274548   0.791   1.726   9.792  0.7676 -0.5290 -0.7435
20942SOL     OW74549   6.082   1.364   3.502  0.1263 -0.1674  0.2229
20942SOL    HW174550   6.126   1.281   3.484  2.2146  0.8504  0.4073
20942SOL    HW274551   6.063   1.401   3.416  1.1595  0.1496  0.1255
20943SOL     OW74552   5.636   7.646   5.408  0.0445 -0.3602 -0.1565
20943SOL    HW174553   5.717   7.662   5.455  0.3790 -0.9989 -0.5003
20943SOL    HW274554   5.627   7.720   5.348  0.7906 -0.6803 -0.6781
20944SOL     OW74555   9.359   5.980  11.047  0.0967  0.2042 -0.4480
20944SOL    HW174556   9.309   6.003  10.969 -0.6900  1.4629  0.4052
20944SOL    HW274557   9.421   6.052  11.057 -0.3550  0.4652  0.5394
20945SOL     OW74558   2.444   3.325  10.260 -0.4000 -0.1825  0.0031
20945SOL    HW174559   2.452   3.410  10.303  1.1359 -1.4668  2.4622
20945SOL    HW274560   2.507   3.329  10.188  0.2269  0.4954  0.5709
20946SOL     OW74561   1.154  11.608   4.474  0.0398  0.5992  0.1695
20946SOL    HW174562   1.097  11.677   4.510  0.5439  0.3207  1.5849
20946SOL    HW274563   1.096  11.534   4.458 -0.1343  0.5620  0.9241
20947SOL     OW74564   4.404   1.627   0.932 -0.3771  0.3837 -0.2794
20947SOL    HW174565   4.447   1.541   0.929 -1.3189 -0.0875 -0.6298
20947SOL    HW274566   4.317   1.612   0.895 -0.3826  1.5954 -0.8221
20948SOL     OW74567   1.415   3.867   6.225 -0.3035  0.3254 -0.1226
20948SOL    HW174568   1.422   3.813   6.304 -0.0752  1.9685  1.0608
20948SOL    HW274569   1.492   3.924   6.229  0.2425 -0.2061 -2.0948
20949SOL     OW74570  10.382   0.680   8.397 -0.3056 -0.3803  0.0217
20949SOL    HW174571  10.465   0.643   8.429 -0.3922 -1.1459 -0.6005
20949SOL    HW274572  10.330   0.694   8.475 -0.5427 -2.2816  0.2326
20950SOL     OW74573   6.711   8.604   7.394  0.5584  0.4081  0.0119
20950SOL    HW174574   6.770   8.572   7.326  2.1428  0.4363  1.3029
20950SOL    HW274575   6.722   8.542   7.467 -2.1635 -0.4585 -0.1872
20951SOL     OW74576  11.570   4.312   4.588  0.3020  0.1954  0.4324
20951SOL    HW174577  11.530   4.399   4.590  0.5115  0.2934  2.3049
20951SOL    HW274578  11.664   4.328   4.590  0.4200 -0.0791 -1.3435
20952SOL     OW74579   8.980   1.928   6.165  0.3180  0.1120  0.4070
20952SOL    HW174580   8.961   1.972   6.081 -1.4356 -0.9590  0.1859
20952SOL    HW274581   9.026   1.848   6.140  3.3247  1.5603  0.7989
20953SOL     OW74582  11.626   3.682   8.344 -0.3043  0.5905  0.1537
20953SOL    HW174583  11.686   3.698   8.271 -0.6880 -0.3736 -0.4060
20953SOL    HW274584  11.557   3.747   8.334  0.1136  1.0390  0.1902
20954SOL     OW74585  10.894   6.843   7.621 -0.2590 -0.0055  0.1154
20954SOL    HW174586  10.888   6.781   7.548 -1.2787 -0.9575  0.9648
20954SOL    HW274587  10.805   6.877   7.630  0.1683  1.2068  0.0210
20955SOL     OW74588   8.015   6.813   5.148  0.1054  0.3551 -0.3556
20955SOL    HW174589   8.025   6.718   5.147 -1.0165  0.2057  0.6080
20955SOL    HW274590   8.079   6.843   5.212  1.4892  0.4263 -1.6997
20956SOL     OW74591   5.184   9.852   6.598 -0.1593  0.6171  0.3615
20956SOL    HW174592   5.215   9.879   6.684 -0.0519  0.9660  0.2174
20956SOL    HW274593   5.101   9.808   6.614  0.7171 -0.9478  0.8258
20957SOL     OW74594   5.313   4.944   3.759  0.2365 -0.0970  1.2280
20957SOL    HW174595   5.328   5.038   3.769 -3.9640  0.8810  0.2494
20957SOL    HW274596   5.352   4.923   3.674 -0.2019  1.1988  0.6776
20958SOL     OW74597   0.938   9.203   7.148 -0.5111  0.2868  0.2929
20958SOL    HW174598   0.885   9.200   7.068 -0.3773  1.9621  0.1076
20958SOL    HW274599   0.885   9.157   7.213  0.4971 -3.5016 -1.2922
20959SOL     OW74600   6.099   6.774   1.382  0.3647 -0.1083  0.3492
20959SOL    HW174601   6.019   6.798   1.336  0.5764  2.1646  1.0083
20959SOL    HW274602   6.168   6.822   1.337  0.9061  0.2889  1.5551
20960SOL     OW74603   3.153   9.368   8.003 -0.4296 -0.2761  0.4309
20960SOL    HW174604   3.109   9.451   7.987  1.0957  0.0786 -2.4903
20960SOL    HW274605   3.084   9.309   8.032 -2.3341  0.9193 -1.4468
20961SOL     OW74606   8.307   0.353   3.661 -0.7167  0.8029  0.5897
20961SOL    HW174607   8.226   0.302   3.656 -0.1577 -0.0080 -1.0540
20961SOL    HW274608   8.303   0.411   3.584  0.6397  0.1234 -0.0276
20962SOL     OW74609  10.913   1.863  11.494  0.8080 -0.1262 -0.4858
20962SOL    HW174610  10.997   1.884  11.535  1.0958  1.3342 -1.7071
20962SOL    HW274611  10.935   1.839  11.404 -0.0395 -0.3222 -0.6536
20963SOL     OW74612   0.613  10.931   6.110 -0.5952  0.6481 -0.2952
20963SOL    HW174613   0.632  10.940   6.204 -0.7561 -1.2700 -0.0384
20963SOL    HW274614   0.582  11.018   6.084  1.5827  1.8792  0.8884
20964SOL     OW74615  11.017   3.722   5.967 -0.1167  0.0098 -0.0047
20964SOL    HW174616  11.039   3.633   5.939 -0.6684 -0.4219  0.9006
20964SOL    HW274617  11.088   3.776   5.932  0.5375 -0.8703 -0.0728
20965SOL     OW74618   9.533   2.729  10.927 -0.1412 -0.1972 -0.1396
20965SOL    HW174619   9.482   2.779  10.991  0.8851 -0.6205  1.0556
20965SOL    HW274620   9.603   2.788  10.901  0.5909 -0.6945  0.6483
20966SOL     OW74621   1.885  11.517   0.989  0.1235 -1.3018  0.2579
20966SOL    HW174622   1.802  11.483   0.956 -1.8408 -0.2199  3.6695
20966SOL    HW274623   1.926  11.442   1.031 -0.8110 -1.1044  1.5613
20967SOL     OW74624   5.914  10.662   2.654  0.0776  0.0578  0.4762
20967SOL    HW174625   5.855  10.590   2.632 -1.1333  0.6619  1.6241
20967SOL    HW274626   5.857  10.729   2.692  1.3020  1.2698  0.2456
20968SOL     OW74627   2.134  11.578   3.387 -0.3516 -0.3396 -0.2613
20968SOL    HW174628   2.147  11.634   3.463 -0.3598 -1.0658  0.2813
20968SOL    HW274629   2.223  11.560   3.354 -0.3158 -0.4740 -0.0919
20969SOL     OW74630   1.546  11.887   5.423  0.3390  0.1210 -0.1832
20969SOL    HW174631   1.578  11.913   5.509 -0.7964 -0.9092  0.5948
20969SOL    HW274632   1.522  11.795   5.433 -1.1878  0.3623 -1.1727
20970SOL     OW74633   9.681   8.827   9.733  0.0032  0.2966  0.2834
20970SOL    HW174634   9.751   8.850   9.672  2.7097 -0.8311  2.7037
20970SOL    HW274635   9.602   8.821   9.679  2.2765 -1.3079 -3.2175
20971SOL     OW74636   0.344  11.291   9.478 -0.2984  0.2795 -0.2224
20971SOL    HW174637   0.390  11.226   9.424  1.7902  2.4373 -1.1983
20971SOL    HW274638   0.320  11.243   9.557  0.6034 -1.8312 -1.1501
20972SOL     OW74639   4.898   4.597   8.750  0.1439  0.7364  0.5518
20972SOL    HW174640   4.834   4.574   8.681  0.9716 -0.0592  0.0249
20972SOL    HW274641   4.974   4.628   8.702  0.9539 -0.3778  1.0646
20973SOL     OW74642   1.824   5.526   8.155  0.1212  0.4040  1.1781
20973SOL    HW174643   1.739   5.484   8.143  1.5231 -2.8174  1.4503
20973SOL    HW274644   1.863   5.526   8.067 -0.3408  2.4552  0.9313
20974SOL     OW74645   5.540   2.149  11.600  0.0431 -0.2026 -0.1956
20974SOL    HW174646   5.613   2.100  11.561  0.2350 -1.6305  1.7961
20974SOL    HW274647   5.574   2.237  11.612  1.1464 -0.6181 -0.1354
20975SOL     OW74648   5.141   8.295   1.033 -0.2655  0.6240 -0.4725
20975SOL    HW174649   5.146   8.287   1.128 -0.3663 -0.3863 -0.5404
20975SOL    HW274650   5.232   8.296   1.004 -0.1661  2.6287 -0.2739
20976SOL     OW74651   0.047   4.930   2.613  0.4176  0.5882 -0.1868
20976SOL    HW174652  -0.016   4.994   2.579 -0.6351  0.2668  1.0647
20976SOL    HW274653  -0.007   4.868   2.662  1.6334 -0.1989  0.1921
20977SOL     OW74654   4.896   3.355   8.811 -0.0187  0.2802  0.5362
20977SOL    HW174655   4.962   3.401   8.759 -0.7784 -0.3224 -0.9884
20977SOL    HW274656   4.925   3.264   8.811 -0.1155  0.2411  1.0678
20978SOL     OW74657  10.566   6.927  11.572  0.1014  0.0912  0.3553
20978SOL    HW174658  10.593   6.902  11.661  1.3745  1.5188  0.4002
20978SOL    HW274659  10.645   6.960  11.531 -0.6934  0.3839 -1.0066
20979SOL     OW74660   5.401   7.176   4.680 -0.1046  0.0286 -0.1234
20979SOL    HW174661   5.382   7.139   4.766 -1.2783 -0.5861 -0.6384
20979SOL    HW274662   5.483   7.224   4.693 -0.2256 -0.1093  1.3167
20980SOL     OW74663  11.037   3.644   8.992  0.8725 -0.0711 -0.2196
20980SOL    HW174664  10.999   3.556   8.990 -0.4420  0.4494  0.5240
20980SOL    HW274665  11.060   3.658   9.084  0.4814  0.6030 -0.2208
20981SOL     OW74666   4.410   1.264  10.491  0.3637 -0.1251  0.4946
20981SOL    HW174667   4.467   1.309  10.429  0.1915 -0.3367  0.1831
20981SOL    HW274668   4.429   1.306  10.575  2.7565 -1.7355  0.8876
20982SOL     OW74669   7.120   0.567  11.499  0.8332  0.6363 -1.0586
20982SOL    HW174670   7.135   0.661  11.508 -0.6046  0.8492 -0.6908
20982SOL    HW274671   7.175   0.541  11.425  0.6774  1.9074 -1.6534
20983SOL     OW74672   4.120   8.557   9.876  0.2798  0.4282  0.5507
20983SOL    HW174673   4.052   8.572   9.942  0.6187  1.5260  0.6833
20983SOL    HW274674   4.073   8.526   9.799 -0.3764  1.0652  0.6773
20984SOL     OW74675   3.886   3.705   5.027  0.4767 -0.2764  0.0505
20984SOL    HW174676   3.897   3.762   5.104 -1.8563  0.0312  0.2283
20984SOL    HW274677   3.945   3.632   5.043  1.7616  0.9112  0.9880
20985SOL     OW74678   8.129   4.004  11.674 -0.1526  0.0179 -0.4246
20985SOL    HW174679   8.138   4.063  11.749  1.9652 -0.0929 -0.5236
20985SOL    HW274680   8.118   4.062  11.599 -0.4645  0.1897 -0.2482
20986SOL     OW74681   8.403   1.083   8.815 -0.2154 -0.6864 -0.7790
20986SOL    HW174682   8.316   1.123   8.818 -0.6858 -1.7416  0.2712
20986SOL    HW274683   8.436   1.092   8.904  0.1287 -1.6231 -0.8084
20987SOL     OW74684   4.528   5.726   1.725  0.3292  0.0271  0.2279
20987SOL    HW174685   4.452   5.752   1.673  0.4968  0.7997  0.3593
20987SOL    HW274686   4.490   5.680   1.800 -0.0606  1.0113  0.6516
20988SOL     OW74687   8.167   7.222   5.636 -0.1499  0.5863 -0.1501
20988SOL    HW174688   8.224   7.284   5.681 -0.1499  0.8731 -0.5414
20988SOL    HW274689   8.186   7.137   5.677  1.3211  0.4794 -0.9826
20989SOL     OW74690   7.584   9.031   3.051 -0.0327  0.4549 -0.0765
20989SOL    HW174691   7.510   9.047   3.109 -0.3668  0.3237 -0.4585
20989SOL    HW274692   7.587   8.936   3.041  0.3181  0.4461  0.1040
20990SOL     OW74693   2.621   4.640   4.187  0.8577  0.1588  0.3034
20990SOL    HW174694   2.557   4.646   4.117  1.1217 -1.6687 -0.1220
20990SOL    HW274695   2.581   4.688   4.260  1.0993  3.1958 -1.3741
20991SOL     OW74696   4.285   7.173  10.119 -0.1122 -0.1351 -0.3371
20991SOL    HW174697   4.328   7.088  10.114 -0.0247 -0.1006 -0.1559
20991SOL    HW274698   4.280   7.193  10.212  1.0730  0.6668 -0.4187
20992SOL     OW74699   4.636   2.341  11.675 -0.4858  0.0902 -0.8096
20992SOL    HW174700   4.633   2.428  11.715 -1.5872  0.1647 -1.0233
20992SOL    HW274701   4.612   2.281  11.746  3.1358 -0.4004  0.1651
20993SOL     OW74702   7.668   9.585  11.831 -0.3043  0.1145  0.0173
20993SOL    HW174703   7.612   9.578  11.909 -0.6022  1.1039 -0.0937
20993SOL    HW274704   7.609   9.618  11.763 -0.4177 -2.1402 -1.0603
20994SOL     OW74705   3.060   7.378   9.477  0.9186 -0.2348 -0.1802
20994SOL    HW174706   3.131   7.345   9.532  0.1846 -1.0713  0.2981
20994SOL    HW274707   3.095   7.458   9.437  0.8136  1.6334  3.1197
20995SOL     OW74708   0.788   4.157   8.767  0.2267 -0.4834  0.3197
20995SOL    HW174709   0.698   4.176   8.795 -0.5713 -1.0650 -1.7049
20995SOL    HW274710   0.813   4.079   8.818 -0.5536 -0.5316  0.6388
20996SOL     OW74711   9.011   0.914   7.863  0.0426 -0.3485  0.5236
20996SOL    HW174712   9.039   0.913   7.771  1.9340 -0.6294  1.0559
20996SOL    HW274713   8.925   0.873   7.862 -0.7440  1.1762 -1.3331
20997SOL     OW74714   1.473   5.121   0.113 -0.1291 -0.4473 -0.0689
20997SOL    HW174715   1.383   5.120   0.147  0.0242  0.0953  0.3744
20997SOL    HW274716   1.526   5.093   0.187  0.2501  1.1180  0.2883
20998SOL     OW74717   5.734   4.948   8.053 -0.3854 -0.5632 -0.1256
20998SOL    HW174718   5.735   5.015   7.985 -2.6551 -0.2286  0.1015
20998SOL    HW274719   5.694   4.990   8.128 -1.0042 -1.9056  0.3258
20999SOL     OW74720   2.843  10.754   7.759 -0.1724  0.7276 -0.0843
20999SOL    HW174721   2.863  10.702   7.836 -1.7205  0.1621 -0.0344
20999SOL    HW274722   2.897  10.716   7.689  1.1693  1.1871  0.6543
21000SOL     OW74723   8.544  11.281   6.465 -0.3585 -0.1282 -0.0525
21000SOL    HW174724   8.541  11.218   6.393 -2.2375 -0.3119  0.1352
21000SOL    HW274725   8.475  11.252   6.525 -0.2394  1.2376  0.7852
21001SOL     OW74726  10.352   2.663   9.499 -0.0734 -0.2338  0.2805
21001SOL    HW174727  10.359   2.729   9.567  0.4366 -0.6465  0.6362
21001SOL    HW274728  10.261   2.668   9.470 -0.1868  0.2233  0.7101
21002SOL     OW74729  11.935   9.680   6.972 -0.3891 -0.0480  0.3334
21002SOL    HW174730  11.890   9.762   6.948 -1.8968 -1.2671 -1.2981
21002SOL    HW274731  11.883   9.644   7.044 -1.8398 -1.1980 -1.2090
21003SOL     OW74732   3.325  10.587   0.285 -0.0560 -0.1631  0.0963
21003SOL    HW174733   3.258  10.583   0.217  0.2527  4.2222 -0.8012
21003SOL    HW274734   3.400  10.542   0.247 -0.4264  0.7557 -1.8648
21004SOL     OW74735   1.218  11.943   4.473  0.8456  0.6220 -0.1418
21004SOL    HW174736   1.200  11.941   4.567 -1.0552  0.2612 -0.4793
21004SOL    HW274737   1.298  11.892   4.462  0.7299  0.1299  1.2047
21005SOL     OW74738   3.996   8.052   5.391 -0.0030 -0.4998  0.7771
21005SOL    HW174739   4.085   8.060   5.423 -0.0914 -0.9514  1.1539
21005SOL    HW274740   4.005   8.028   5.299  0.2653  2.9257 -0.2131
21006SOL     OW74741   5.162   9.381  10.733 -0.2963  0.0665  0.4245
21006SOL    HW174742   5.121   9.450  10.785  0.3567  0.1802  0.8099
21006SOL    HW274743   5.255   9.388  10.754  0.0547  0.4283 -1.1383
21007SOL     OW74744   3.621   7.352   0.334 -0.5173  0.4442 -0.3026
21007SOL    HW174745   3.592   7.273   0.379  0.3382 -0.5442 -1.4184
21007SOL    HW274746   3.711   7.366   0.365 -1.3539  2.2986  1.5621
21008SOL     OW74747   2.463  11.311   8.658  0.3809  0.2109  0.2984
21008SOL    HW174748   2.465  11.221   8.691 -1.6161 -0.2470 -0.7001
21008SOL    HW274749   2.506  11.362   8.726  0.2137 -1.2897  1.5959
21009SOL     OW74750   6.838   4.162   7.666  0.0375 -0.2358 -0.1430
21009SOL    HW174751   6.874   4.086   7.621 -0.1144  0.1385 -0.9144
21009SOL    HW274752   6.748   4.137   7.687  0.5174 -0.9412  1.2421
21010SOL     OW74753   8.780   6.720   9.381  0.2920 -0.4107  0.0472
21010SOL    HW174754   8.703   6.673   9.414 -0.1182  0.1476 -0.1064
21010SOL    HW274755   8.819   6.660   9.317 -0.3161 -0.4822 -0.2622
21011SOL     OW74756   6.025   8.230   0.919  0.0496  0.0508 -0.2898
21011SOL    HW174757   6.059   8.166   0.980 -1.8273  0.0946  0.8735
21011SOL    HW274758   6.053   8.315   0.954 -0.1993  0.0225 -0.0173
21012SOL     OW74759   6.184   5.232   9.351 -0.4521 -0.6995 -0.1271
21012SOL    HW174760   6.113   5.284   9.389 -0.0986 -0.5001  0.2683
21012SOL    HW274761   6.207   5.169   9.420 -0.6794 -1.1989 -0.4940
21013SOL     OW74762   4.645   7.358   6.828 -0.0408 -0.8109 -0.4043
21013SOL    HW174763   4.735   7.389   6.837  0.2773 -1.9703  0.6897
21013SOL    HW274764   4.591   7.431   6.860  0.5777 -0.5686  0.1043
21014SOL     OW74765   8.095   7.351   2.097 -0.0058 -0.2454 -0.0651
21014SOL    HW174766   8.169   7.341   2.037  0.0028 -0.9639  0.0474
21014SOL    HW274767   8.020   7.318   2.047 -0.2293  0.3355 -0.1233
21015SOL     OW74768   0.158  10.351   6.343 -0.3692 -0.7217 -0.1973
21015SOL    HW174769   0.187  10.352   6.252 -0.9239 -0.4684 -0.3774
21015SOL    HW274770   0.124  10.262   6.357  0.8873 -1.1575  0.1483
21016SOL     OW74771   1.511   6.717   0.101  0.3646 -0.0967  0.1744
21016SOL    HW174772   1.452   6.642   0.106 -0.9830  0.9553  0.6734
21016SOL    HW274773   1.475   6.771   0.030 -0.2411  1.3390  1.5284
21017SOL     OW74774   6.088   9.014   8.080  0.5315 -0.1516  0.1281
21017SOL    HW174775   6.026   9.067   8.129  0.3854  1.2877 -1.5173
21017SOL    HW274776   6.150   8.982   8.146 -0.8694 -0.0942  1.5258
21018SOL     OW74777   1.403   5.872  11.482 -0.9200  0.3378  0.0085
21018SOL    HW174778   1.451   5.789  11.486 -2.5418 -0.6012  2.5512
21018SOL    HW274779   1.467   5.938  11.509 -0.0307 -0.3100 -0.4928
21019SOL     OW74780   3.202   4.731  11.517 -0.5248 -0.9483  0.0924
21019SOL    HW174781   3.190   4.651  11.569 -1.3263 -1.5011 -0.9282
21019SOL    HW274782   3.160   4.799  11.569  0.3667 -1.1281  1.0849
21020SOL     OW74783   0.920  11.478   5.785 -0.1972  0.1677 -0.5854
21020SOL    HW174784   0.828  11.454   5.777  0.2804 -2.1147 -0.1078
21020SOL    HW274785   0.920  11.557   5.839 -1.8283 -0.6198  0.6558
21021SOL     OW74786  10.536   5.917  10.709 -0.0092 -0.3461 -0.2671
21021SOL    HW174787  10.471   5.859  10.669  0.5702 -0.6431 -0.7940
21021SOL    HW274788  10.550   5.986  10.644 -0.2532  0.0690  0.1104
21022SOL     OW74789   9.281   7.438   5.264 -0.3058  0.4863  0.4586
21022SOL    HW174790   9.338   7.515   5.269  0.8879 -0.1654 -1.6788
21022SOL    HW274791   9.194   7.474   5.251  0.0970  1.5013  0.4859
21023SOL     OW74792   2.366   2.984  11.488 -0.5745  0.1053 -0.2652
21023SOL    HW174793   2.333   2.963  11.401  0.2319  1.0658 -0.8271
21023SOL    HW274794   2.408   3.070  11.477 -1.6855  0.9017  1.3683
21024SOL     OW74795   4.692  10.639  10.245 -0.2502  0.7826  0.1919
21024SOL    HW174796   4.720  10.556  10.207  0.3511  0.9998  0.1461
21024SOL    HW274797   4.663  10.690  10.169 -0.3523  0.7184  0.1873
21025SOL     OW74798   4.946  10.391   9.702 -0.5827  0.0920 -0.3122
21025SOL    HW174799   4.950  10.372   9.608 -0.2975  0.3680 -0.3578
21025SOL    HW274800   4.853  10.405   9.720 -0.6800 -0.3376 -0.4772
21026SOL     OW74801   5.830   1.543   8.131 -0.3521 -0.5634 -0.3719
21026SOL    HW174802   5.824   1.619   8.189 -1.7289 -0.5857 -0.4403
21026SOL    HW274803   5.797   1.470   8.184 -0.1112 -0.8929 -0.6727
21027SOL     OW74804  11.564   4.386   2.656  0.8614  0.5065 -0.5822
21027SOL    HW174805  11.641   4.376   2.600  0.5652  0.1526 -0.9270
21027SOL    HW274806  11.592   4.353   2.742  0.7475 -0.7062 -0.9976
21028SOL     OW74807   5.477   1.246   0.687 -0.2033  0.1950  0.3448
21028SOL    HW174808   5.405   1.227   0.627 -0.2845  0.6162  0.2987
21028SOL    HW274809   5.538   1.299   0.635  0.9974 -1.5748 -0.1502
21029SOL     OW74810   2.747   9.371   6.000  0.6115 -0.3675  0.3709
21029SOL    HW174811   2.661   9.359   5.961  0.7957 -1.8015  0.3328
21029SOL    HW274812   2.798   9.416   5.932 -0.0128  0.1775  0.2657
21030SOL     OW74813  11.832   9.743  10.265 -0.5275 -0.0198 -0.4549
21030SOL    HW174814  11.914   9.768  10.222 -0.8685  0.4358 -0.8549
21030SOL    HW274815  11.791   9.683  10.203 -0.4320 -0.3535 -0.1938
21031SOL     OW74816   1.683   5.887   1.194  0.1119 -0.9865  0.2553
21031SOL    HW174817   1.679   5.935   1.111  0.0873 -1.8305 -0.2481
21031SOL    HW274818   1.741   5.939   1.249 -0.3630 -0.0930 -0.0759
21032SOL     OW74819   2.203   3.264  10.766  0.3919 -0.4013  0.0178
21032SOL    HW174820   2.292   3.272  10.733  0.2802  0.4409 -0.1116
21032SOL    HW274821   2.162   3.349  10.746  0.0730 -0.1530  1.5751
21033SOL     OW74822   8.377   8.420   4.543  0.6187  0.4951  0.0915
21033SOL    HW174823   8.358   8.338   4.589 -3.0233  1.3036  0.3639
21033SOL    HW274824   8.374   8.487   4.612  0.4126  1.1834 -0.5783
21034SOL     OW74825  11.166   2.050   5.057  0.7023 -0.0441  0.4170
21034SOL    HW174826  11.258   2.073   5.046  0.5315  0.8473  0.7526
21034SOL    HW274827  11.126   2.128   5.095 -0.2319 -0.3585  0.1120
21035SOL     OW74828   0.187  10.665   7.543  0.4553  0.3391 -0.7336
21035SOL    HW174829   0.130  10.682   7.618 -0.5370  1.2829 -1.6414
21035SOL    HW274830   0.194  10.570   7.539  0.6588  0.2751  0.6277
21036SOL     OW74831   9.438   3.289   0.460 -0.1226 -0.1319  0.7275
21036SOL    HW174832   9.501   3.304   0.531 -0.1569  2.4867  0.3170
21036SOL    HW274833   9.420   3.195   0.463 -0.3608 -0.1114  4.3765
21037SOL     OW74834   3.505   6.508   4.477  0.0727 -0.3891  0.0608
21037SOL    HW174835   3.503   6.443   4.547  1.2917  0.2521  0.7191
21037SOL    HW274836   3.463   6.586   4.514 -0.6440 -0.5166 -0.4516
21038SOL     OW74837   8.528  10.602   1.859 -0.2354 -0.0495  0.5117
21038SOL    HW174838   8.482  10.685   1.846 -1.2144 -0.6715 -0.1337
21038SOL    HW274839   8.476  10.538   1.811 -0.4118 -1.3388  2.3113
21039SOL     OW74840   7.722  11.355   0.731 -0.2167  0.4900  0.2738
21039SOL    HW174841   7.653  11.290   0.721  0.4171 -0.4208  1.6313
21039SOL    HW274842   7.734  11.390   0.642 -1.6888 -0.0639 -0.1704
21040SOL     OW74843  11.940   2.314   6.830 -0.1385 -0.2291 -0.0847
21040SOL    HW174844  11.998   2.390   6.825 -0.5465  0.0325 -1.2799
21040SOL    HW274845  11.969   2.257   6.759 -1.0692 -0.2821 -0.4380
21041SOL     OW74846  10.033  10.152   6.515 -0.2583  0.2579  0.4477
21041SOL    HW174847  10.007  10.070   6.557 -0.5066 -0.5800 -1.2462
21041SOL    HW274848  10.118  10.133   6.475 -0.4004  0.7436 -0.1113
21042SOL     OW74849   7.601  10.828   5.251  0.4717  0.0155 -0.0959
21042SOL    HW174850   7.672  10.764   5.239 -0.0332 -1.0314  2.0351
21042SOL    HW274851   7.646  10.910   5.269  1.1471 -0.3447 -0.1055
21043SOL     OW74852   2.499   4.122   2.942  0.7760 -0.4981  0.6484
21043SOL    HW174853   2.468   4.033   2.960  0.4044 -0.4723  0.1439
21043SOL    HW274854   2.493   4.166   3.027  0.3284 -0.7663  0.7625
21044SOL     OW74855   4.250   4.971   7.462  0.9188 -0.5388 -0.3683
21044SOL    HW174856   4.190   4.904   7.497 -0.2255  1.4446  1.8251
21044SOL    HW274857   4.329   4.961   7.514  1.0787 -0.7488 -0.6517
21045SOL     OW74858   9.473  10.546   0.713 -0.7442  0.0649  0.7214
21045SOL    HW174859   9.379  10.545   0.733 -0.7066 -1.5286  0.9328
21045SOL    HW274860   9.498  10.454   0.708  0.6691  0.4571 -0.0630
21046SOL     OW74861   8.789   6.232   3.059  0.3637  0.3343 -0.3178
21046SOL    HW174862   8.863   6.173   3.067  0.5820  0.7442  1.0019
21046SOL    HW274863   8.767   6.231   2.966  0.9341 -1.0973 -0.4657
21047SOL     OW74864  10.697   9.114   7.694 -0.1700  0.1325  0.0620
21047SOL    HW174865  10.647   9.049   7.644 -0.9560 -0.0173  1.0139
21047SOL    HW274866  10.632   9.179   7.721  0.4852  0.9345 -0.2607
21048SOL     OW74867   0.775   5.918   0.365  0.1304 -0.0855 -0.2694
21048SOL    HW174868   0.706   5.902   0.302  0.1741 -0.5149 -0.2141
21048SOL    HW274869   0.854   5.931   0.313  0.4465 -1.8083 -0.2949
21049SOL     OW74870  10.219  11.137   8.333  0.3500 -0.0670 -0.6410
21049SOL    HW174871  10.221  11.041   8.332 -1.2946 -0.1806  1.0612
21049SOL    HW274872  10.304  11.163   8.367  0.8872 -0.9092 -1.3051
21050SOL     OW74873   9.124   1.304   2.945 -0.9002  0.0562  0.0990
21050SOL    HW174874   9.150   1.213   2.936 -0.3790  0.2573 -0.5023
21050SOL    HW274875   9.157   1.330   3.031  0.6820  0.2218 -0.5313
21051SOL     OW74876   8.176   2.190  11.408 -0.6489 -0.4743  0.1034
21051SOL    HW174877   8.211   2.107  11.440  2.1169  1.1823  1.8005
21051SOL    HW274878   8.236   2.215  11.337 -2.1636 -0.4307 -1.2156
21052SOL     OW74879   2.608   5.719   7.324 -0.0624  0.1564 -0.2841
21052SOL    HW174880   2.640   5.746   7.410  1.4811  0.2807 -0.8574
21052SOL    HW274881   2.552   5.644   7.342 -2.3446  2.0501  1.0913
21053SOL     OW74882   7.041   5.235  10.126  0.2402  0.2106  0.0867
21053SOL    HW174883   7.094   5.272  10.056 -0.4015 -0.4383 -0.7703
21053SOL    HW274884   6.974   5.301  10.144 -0.9443 -0.5087 -1.4828
21054SOL     OW74885   5.754   4.531   4.579  0.0764 -0.1345  0.1418
21054SOL    HW174886   5.771   4.439   4.559 -0.8130  0.1205 -2.0714
21054SOL    HW274887   5.813   4.579   4.521 -0.0923  0.7024  0.6453
21055SOL     OW74888   8.033   1.348  11.403 -0.1296 -0.0937  0.1528
21055SOL    HW174889   8.028   1.423  11.463 -2.7311 -0.1472  0.1285
21055SOL    HW274890   8.068   1.277  11.456 -0.0951  0.4709  0.9075
21056SOL     OW74891   4.323   9.245   1.234 -0.6596 -0.9432 -0.2282
21056SOL    HW174892   4.249   9.253   1.174 -1.0274 -1.0330  0.2061
21056SOL    HW274893   4.324   9.152   1.258 -1.5899 -0.6208  1.2295
21057SOL     OW74894  11.237   1.177   0.641  0.3623 -0.3843 -1.0388
21057SOL    HW174895  11.268   1.170   0.731 -2.3995  3.0988  0.3924
21057SOL    HW274896  11.187   1.097   0.626 -1.3891  0.1070  1.5981
21058SOL     OW74897   3.648   8.894   6.577 -0.5072 -0.3413 -0.0251
21058SOL    HW174898   3.637   8.986   6.555 -1.3131 -0.5030 -0.3366
21058SOL    HW274899   3.577   8.849   6.532  0.2707 -1.2130 -0.4228
21059SOL     OW74900   1.367   5.886   3.149  0.5093 -0.1325 -0.1544
21059SOL    HW174901   1.456   5.884   3.112  0.7675 -1.6763  0.4987
21059SOL    HW274902   1.337   5.795   3.145 -0.9382  0.3194 -0.0726
21060SOL     OW74903   5.677  11.534   6.810 -0.4200 -0.2605 -0.5350
21060SOL    HW174904   5.716  11.480   6.741 -0.3266  0.1110 -0.7776
21060SOL    HW274905   5.590  11.555   6.777 -0.3923 -0.1210 -0.5196
21061SOL     OW74906   7.459   0.735   7.972 -0.1679  0.4302  0.1430
21061SOL    HW174907   7.489   0.646   7.950 -0.2586  0.1980  0.9238
21061SOL    HW274908   7.412   0.764   7.894  0.3595  0.0143 -0.3369
21062SOL     OW74909   1.460   3.396   2.951  0.1507  0.0634  0.5710
21062SOL    HW174910   1.470   3.413   3.045  0.9838  1.5238  0.2566
21062SOL    HW274911   1.371   3.423   2.931 -0.9166 -2.5550  1.3450
21063SOL     OW74912   0.015   9.756   9.495 -0.7672 -0.5628  0.1194
21063SOL    HW174913   0.041   9.709   9.416  3.2430  0.6251  0.5424
21063SOL    HW274914  -0.017   9.841   9.463  0.3053 -0.3014 -0.2801
21064SOL     OW74915   5.937   2.800   7.268 -0.2244  0.0477 -0.2168
21064SOL    HW174916   5.918   2.890   7.297 -1.3437 -0.2808  0.1383
21064SOL    HW274917   5.877   2.786   7.195  0.0533 -0.3612 -0.3679
21065SOL     OW74918   5.023   2.402   3.200  0.2411  0.2384 -0.2517
21065SOL    HW174919   5.015   2.312   3.168  0.4017  0.2942 -0.4497
21065SOL    HW274920   4.939   2.442   3.181  0.2451  0.1935 -0.3620
21066SOL     OW74921   9.259   1.622   0.066 -0.4099  0.0716 -0.6378
21066SOL    HW174922   9.190   1.570   0.108  1.1031  0.0244  2.0815
21066SOL    HW274923   9.234   1.713   0.082 -0.7313  0.0944 -1.2576
21067SOL     OW74924   9.380   4.256   1.097  0.0632 -0.3089 -0.0571
21067SOL    HW174925   9.385   4.169   1.136  1.3968 -0.4836 -0.5772
21067SOL    HW274926   9.392   4.241   1.003 -3.9088  0.0046 -0.7896
21068SOL     OW74927  11.584   3.022   7.938 -0.2841 -0.2180  0.6258
21068SOL    HW174928  11.581   3.046   7.845  2.4612  1.6304  0.9210
21068SOL    HW274929  11.664   2.970   7.947 -0.4298 -0.2298  2.0132
21069SOL     OW74930   5.483   4.713   3.909 -0.5969  0.0957 -0.4428
21069SOL    HW174931   5.530   4.651   3.965  0.0390  0.5737 -0.4357
21069SOL    HW274932   5.501   4.683   3.820 -0.5097  0.1127 -0.4313
21070SOL     OW74933  11.501   3.416   8.054  0.3515 -0.0091  0.1807
21070SOL    HW174934  11.535   3.503   8.036  0.4497 -0.3439 -1.3782
21070SOL    HW274935  11.526   3.399   8.145 -2.8404  3.0170  1.8888
21071SOL     OW74936   2.569   8.147   7.063 -0.5061 -0.3876  0.4252
21071SOL    HW174937   2.500   8.083   7.083 -0.6179 -1.4386 -2.8412
21071SOL    HW274938   2.526   8.211   7.006  0.6035  0.3974  0.4429
21072SOL     OW74939   1.228   0.838   7.159  0.0527 -0.4532 -0.3773
21072SOL    HW174940   1.224   0.782   7.082  1.6857 -1.9122  0.5187
21072SOL    HW274941   1.293   0.905   7.137  0.3083 -0.6985 -0.3711
21073SOL     OW74942   4.528   6.594   0.936 -0.3799  0.2149 -0.1875
21073SOL    HW174943   4.546   6.513   0.889  1.5852 -0.0295  0.8904
21073SOL    HW274944   4.432   6.599   0.939 -0.5503 -2.0468 -0.2788
21074SOL     OW74945  11.140   5.230   5.477 -0.0354  0.1417 -0.3406
21074SOL    HW174946  11.161   5.313   5.434 -0.8352 -0.0459 -1.1416
21074SOL    HW274947  11.225   5.195   5.504  0.1829  2.3496  2.2598
21075SOL     OW74948   4.247   8.658   0.813 -0.1706  0.1710  0.3470
21075SOL    HW174949   4.280   8.735   0.860 -0.0856  0.2335  0.1846
21075SOL    HW274950   4.199   8.694   0.739  0.8113  0.0461 -0.3592
21076SOL     OW74951   3.815   6.529   5.957 -0.0389  0.4833  0.0812
21076SOL    HW174952   3.770   6.494   5.880  0.6469 -0.4760  0.0981
21076SOL    HW274953   3.807   6.460   6.023  0.8565  0.5743  0.3042
21077SOL     OW74954   3.187   1.196   6.934  0.0665  0.4335  0.3379
21077SOL    HW174955   3.200   1.268   6.873  0.5515 -0.3130 -0.4750
21077SOL    HW274956   3.179   1.118   6.878  1.5476 -0.4146  1.2341
21078SOL     OW74957   1.473   5.875   6.305  0.6394  0.2886  0.0476
21078SOL    HW174958   1.521   5.952   6.275  1.1496 -0.4435 -1.0889
21078SOL    HW274959   1.527   5.801   6.279  0.0220 -0.4731  0.8753
21079SOL     OW74960  10.551   4.651   9.830 -0.4712  0.3341  0.0781
21079SOL    HW174961  10.560   4.743   9.806  0.9315  0.1429 -0.2187
21079SOL    HW274962  10.537   4.652   9.925  0.2081  0.8289  0.1781
21080SOL     OW74963   8.921   4.880   1.713 -0.4938 -0.6069 -0.1221
21080SOL    HW174964   8.938   4.792   1.680 -1.3822 -0.9561  0.3151
21080SOL    HW274965   9.000   4.903   1.764  1.3793  0.3578 -3.1755
21081SOL     OW74966   8.897   7.098   7.981  0.3826 -0.2397  0.3173
21081SOL    HW174967   8.990   7.091   7.958  0.1366  0.5201 -1.0434
21081SOL    HW274968   8.893   7.165   8.048  0.7149  0.6369 -0.5093
21082SOL     OW74969   5.470   7.725   1.008 -0.5574  0.0961 -0.9226
21082SOL    HW174970   5.395   7.720   1.067 -1.2590  1.0783 -1.7021
21082SOL    HW274971   5.467   7.643   0.959 -0.6530 -0.2107 -0.4152
21083SOL     OW74972   3.674  11.840   7.019  0.0917  0.4874 -0.2483
21083SOL    HW174973   3.625  11.846   6.937  1.1521  0.7649 -0.8915
21083SOL    HW274974   3.653  11.920   7.066  0.1909  0.7715 -0.6777
21084SOL     OW74975   8.356  10.388  11.655 -0.2578  0.2533  0.3965
21084SOL    HW174976   8.354  10.378  11.560  1.6877 -0.6178  0.4017
21084SOL    HW274977   8.270  10.357  11.684 -0.3019 -1.0421 -0.9697
21085SOL     OW74978   3.941   7.468   7.130 -1.2087  0.3648 -0.2361
21085SOL    HW174979   4.025   7.513   7.146 -0.8956  0.3457 -1.6529
21085SOL    HW274980   3.880   7.508   7.192 -0.6741  2.0138 -0.7069
21086SOL     OW74981   3.538   7.501   2.024 -0.2074 -0.7581  0.1294
21086SOL    HW174982   3.551   7.463   1.937 -0.7665  0.2357 -0.4077
21086SOL    HW274983   3.443   7.511   2.031 -0.0858  0.4059  0.2915
21087SOL     OW74984   1.942   2.044  11.682 -0.1622  0.6693 -0.1658
21087SOL    HW174985   1.873   2.104  11.652 -0.4164  0.9770  0.9799
21087SOL    HW274986   2.001   2.100  11.733  1.7897  0.7228 -2.3139
21088SOL     OW74987   2.350   6.839  11.187 -0.5801 -0.3960 -0.7302
21088SOL    HW174988   2.425   6.854  11.244 -1.7299 -0.1728  0.8049
21088SOL    HW274989   2.370   6.757  11.142  0.4209 -0.5162 -0.0945
21089SOL     OW74990   9.209   0.649   6.715  0.1813 -0.4185  0.1778
21089SOL    HW174991   9.293   0.626   6.677  0.6217 -1.1724  1.5285
21089SOL    HW274992   9.168   0.565   6.736  0.1329 -0.0651  1.6587
21090SOL     OW74993   2.345   7.063   5.972  0.4152  0.0404 -0.1905
21090SOL    HW174994   2.352   7.157   5.986  0.6681  0.1247 -0.8566
21090SOL    HW274995   2.399   7.024   6.041  3.1338  0.4998 -1.8966
21091SOL     OW74996   9.348  10.922   7.910 -0.4274 -0.4305  0.4795
21091SOL    HW174997   9.311  10.928   7.822 -3.3987 -0.5821  1.5951
21091SOL    HW274998   9.310  10.997   7.957 -0.0411 -1.1398  1.9846
21092SOL     OW74999   7.968   5.224   1.246  0.7044 -0.1545  0.0208
21092SOL    HW175000   7.911   5.268   1.309 -0.4571 -1.9477  0.2776
21092SOL    HW275001   8.039   5.187   1.299  0.8451  0.0748 -0.0039
21093SOL     OW75002   4.039   1.825   9.069 -0.0307  0.0893  0.3174
21093SOL    HW175003   4.051   1.772   9.148  0.4589 -0.3031 -0.0164
21093SOL    HW275004   4.127   1.832   9.031 -0.2987  0.0801 -0.3153
21094SOL     OW75005   1.301   6.148   4.572  0.0009  0.3519  0.3704
21094SOL    HW175006   1.393   6.134   4.551  0.0116 -1.2533  1.2991
21094SOL    HW275007   1.287   6.097   4.652 -2.0059 -0.6165 -0.5112
21095SOL     OW75008   9.108   1.907   1.751 -0.7244 -0.3989  0.5768
21095SOL    HW175009   9.196   1.941   1.732 -1.2137 -0.1604 -1.4300
21095SOL    HW275010   9.059   1.984   1.781 -0.7429 -0.1245 -0.1311
21096SOL     OW75011   5.365   1.440   0.450  0.1420  0.2849  0.2118
21096SOL    HW175012   5.346   1.523   0.405  0.5047 -0.1155 -0.7131
21096SOL    HW275013   5.461   1.436   0.452  0.1252 -0.1750  0.1264
21097SOL     OW75014   4.743   6.208   0.080 -0.3759  0.5547 -0.4160
21097SOL    HW175015   4.814   6.271   0.069 -0.9936  1.4104  0.3076
21097SOL    HW275016   4.771   6.152   0.152 -0.0639  0.3322 -0.7054
21098SOL     OW75017   2.380   8.732  11.206  0.0237  0.4464 -0.6770
21098SOL    HW175018   2.379   8.736  11.110 -2.9487  0.5437 -0.7449
21098SOL    HW275019   2.367   8.639  11.226  0.4079  0.4568 -0.3703
21099SOL     OW75020  11.581   7.835   2.607  0.4427  0.5099  0.0590
21099SOL    HW175021  11.552   7.818   2.696  0.0606  2.1084  0.2569
21099SOL    HW275022  11.672   7.863   2.616  0.3069  0.9782 -0.0215
21100SOL     OW75023   2.577   3.868   4.397  0.2217  0.1534 -0.1655
21100SOL    HW175024   2.533   3.859   4.313 -0.7841 -0.1696  0.3762
21100SOL    HW275025   2.671   3.869   4.376  0.0317 -1.1516 -1.1765
21101SOL     OW75026   4.444   6.631   1.947 -0.0456  0.3507 -0.0063
21101SOL    HW175027   4.420   6.655   2.036 -0.6860  1.1370 -0.3786
21101SOL    HW275028   4.494   6.550   1.956  0.0635  0.5293  1.0777
21102SOL     OW75029   8.895  10.653   5.623 -0.1275 -0.2501 -0.4437
21102SOL    HW175030   8.956  10.675   5.694 -0.0926 -2.3164  0.2014
21102SOL    HW275031   8.920  10.565   5.596 -2.2307 -0.7796 -0.8218
21103SOL     OW75032   1.752   6.864  10.518 -0.0480  0.0068  0.5952
21103SOL    HW175033   1.670   6.821  10.492  0.1478  0.5964 -1.1828
21103SOL    HW275034   1.725   6.951  10.547 -0.2005 -0.4203  1.7970
21104SOL     OW75035   0.486  11.615   8.786 -0.1379  0.2743  0.0435
21104SOL    HW175036   0.483  11.710   8.793 -0.8353  0.2858 -0.3177
21104SOL    HW275037   0.401  11.586   8.821  0.2676 -0.2441  0.6134
21105SOL     OW75038   4.535  11.803   6.940  0.1792  0.1439  0.3946
21105SOL    HW175039   4.590  11.781   6.865 -0.8874  0.7138 -0.5853
21105SOL    HW275040   4.563  11.743   7.009  1.4007 -0.1772 -0.3523
21106SOL     OW75041   6.292   3.979  10.642 -0.5246  0.3235 -0.1071
21106SOL    HW175042   6.387   3.990  10.639 -0.3664 -0.9209 -0.3414
21106SOL    HW275043   6.257   4.068  10.635  0.6300  0.8905  0.9336
21107SOL     OW75044   1.869   3.655   1.547  0.0655 -0.1573  0.2754
21107SOL    HW175045   1.948   3.708   1.544 -0.0403  0.0271  0.6715
21107SOL    HW275046   1.817   3.685   1.472  1.3874 -1.9293 -1.4794
21108SOL     OW75047   5.920   9.287  11.046  0.1244  0.0331  0.1278
21108SOL    HW175048   6.013   9.269  11.036 -0.0397 -0.4721 -0.5512
21108SOL    HW275049   5.906   9.370  11.001  0.0530 -0.4281 -0.7059
21109SOL     OW75050   3.867   0.331   9.082 -0.1470  0.1509 -0.6649
21109SOL    HW175051   3.802   0.317   9.013 -0.8669  1.5325 -0.2819
21109SOL    HW275052   3.838   0.409   9.128  0.1098 -0.9376  1.4807
21110SOL     OW75053   1.585   4.393   8.476  0.0970 -0.3467 -0.1233
21110SOL    HW175054   1.505   4.403   8.529  0.3911  0.5023  0.1832
21110SOL    HW275055   1.624   4.481   8.476  1.0420 -0.7603 -0.2603
21111SOL     OW75056  10.161   5.429   1.525 -0.3902 -0.1074 -0.2927
21111SOL    HW175057  10.082   5.416   1.578  0.0965  0.4969  0.6027
21111SOL    HW275058  10.202   5.508   1.561  0.1962  0.0600 -1.2831
21112SOL     OW75059   7.438   0.526  11.713 -0.0092 -0.3762 -0.2520
21112SOL    HW175060   7.461   0.540  11.621  0.1834 -0.2099 -0.1813
21112SOL    HW275061   7.356   0.478  11.710  0.2976 -0.8925 -0.5124
21113SOL     OW75062   3.740   3.292   9.812  0.0983 -0.7004  0.5889
21113SOL    HW175063   3.688   3.219   9.779 -0.7919 -0.5075  1.5403
21113SOL    HW275064   3.676   3.362   9.826  0.9394  0.2912 -0.3438
21114SOL     OW75065   6.748   7.771  10.920  0.7913  0.6657  0.1462
21114SOL    HW175066   6.820   7.763  10.858  0.9923  1.0869  0.3210
21114SOL    HW275067   6.787   7.751  11.005  0.3944 -0.4664  0.0804
21115SOL     OW75068   8.573   0.381   4.727  0.5336  0.0256  0.1617
21115SOL    HW175069   8.619   0.405   4.807  1.8758 -1.3282 -0.1567
21115SOL    HW275070   8.498   0.441   4.723  1.2183  1.0348  1.6807
21116SOL     OW75071   2.862   6.579   2.000  0.3352  0.0933  0.3653
21116SOL    HW175072   2.877   6.633   1.922  1.0602  2.8543  2.2673
21116SOL    HW275073   2.899   6.630   2.072  1.2526 -3.0864  2.3683
21117SOL     OW75074   7.664  10.580   1.929 -0.1818  0.2579  0.1895
21117SOL    HW175075   7.606  10.654   1.948 -1.7029 -1.1484  1.4115
21117SOL    HW275076   7.722  10.574   2.005  1.6855  1.6858 -1.0494
21118SOL     OW75077   9.254   3.648   9.986 -0.2259 -0.1095  0.5451
21118SOL    HW175078   9.206   3.693  10.056 -1.7123  1.8432 -1.5791
21118SOL    HW275079   9.337   3.695   9.981  0.0826 -0.5587  1.2635
21119SOL     OW75080   5.798   3.388   9.028  0.2093  0.1268  0.9658
21119SOL    HW175081   5.845   3.338   9.094  1.3409 -0.6036 -0.3467
21119SOL    HW275082   5.724   3.426   9.075  1.5226  0.4655  2.8636
21120SOL     OW75083   9.442   5.209   2.826 -0.4329  0.1599  0.3957
21120SOL    HW175084   9.440   5.276   2.894  2.2851  1.2167 -0.4372
21120SOL    HW275085   9.519   5.155   2.848  0.2980  0.3188 -1.6060
21121SOL     OW75086  10.692   1.946   3.786  0.4152 -0.2465 -0.4624
21121SOL    HW175087  10.769   1.905   3.826  2.9570  0.8609 -3.7502
21121SOL    HW275088  10.679   2.026   3.836  1.5022 -0.3928  0.0972
21122SOL     OW75089   5.794   4.869   4.369  1.0244 -0.0638  0.3370
21122SOL    HW175090   5.806   4.951   4.322 -0.2750 -0.2399 -0.3475
21122SOL    HW275091   5.730   4.889   4.437  1.0270 -0.4014  0.4415
21123SOL     OW75092   5.942   6.796   9.734  0.5495  0.1774  0.9242
21123SOL    HW175093   5.922   6.790   9.828  0.7992 -0.8854  0.9335
21123SOL    HW275094   5.979   6.883   9.722 -3.1519  1.9442  1.0651
21124SOL     OW75095   7.429   8.577   1.773 -0.0694  0.0119  0.6647
21124SOL    HW175096   7.469   8.663   1.760 -0.1922 -0.0296 -0.0734
21124SOL    HW275097   7.335   8.596   1.780 -0.3032 -0.2007 -1.3707
21125SOL     OW75098   1.575   7.315   8.908 -0.0522  0.3213  0.6614
21125SOL    HW175099   1.482   7.291   8.906 -0.3391  0.7447 -4.0532
21125SOL    HW275100   1.575   7.404   8.943 -1.7154  0.8906 -0.6038
21126SOL     OW75101   2.493   5.489   8.026 -0.5650 -0.4236  0.2124
21126SOL    HW175102   2.504   5.527   8.113 -0.8244 -1.3856  0.6760
21126SOL    HW275103   2.400   5.467   8.021 -0.0313 -3.2729  0.9584
21127SOL     OW75104  10.002  10.413   9.358 -0.0724  0.9733 -0.4026
21127SOL    HW175105   9.981  10.321   9.341 -0.3391  1.4101 -2.8618
21127SOL    HW275106  10.045  10.413   9.443 -1.2296 -1.2438  0.2524
21128SOL     OW75107  10.629  11.577   1.143  0.4044  0.2751 -0.0274
21128SOL    HW175108  10.668  11.611   1.063  0.7750 -0.4418 -0.1569
21128SOL    HW275109  10.588  11.495   1.117 -0.3046  0.5107  0.3253
21129SOL     OW75110   7.233  10.522   1.368  0.2032 -0.4638  0.1272
21129SOL    HW175111   7.171  10.525   1.295 -0.7338  0.4662  0.9433
21129SOL    HW275112   7.207  10.444   1.418 -0.2538 -0.1215  0.4228
21130SOL     OW75113   9.305   3.395   8.937  0.4680  0.4455  0.7156
21130SOL    HW175114   9.350   3.322   8.893  0.2669  0.3391  0.6877
21130SOL    HW275115   9.371   3.430   8.997  0.5798  0.2661  0.7005
21131SOL     OW75116   3.601   7.064   9.649 -0.5664 -0.3463 -0.9133
21131SOL    HW175117   3.656   7.136   9.617  0.3766 -0.2133  0.8841
21131SOL    HW275118   3.544   7.103   9.714 -0.0115 -1.1982  0.1242
21132SOL     OW75119   1.437   0.102   6.347  0.6091  0.0542  0.2995
21132SOL    HW175120   1.416   0.018   6.388  1.8215  0.0041  0.8526
21132SOL    HW275121   1.520   0.128   6.387  1.6086  0.2281 -1.7704
21133SOL     OW75122   5.506   1.571   5.652 -0.3659  0.1377  0.5153
21133SOL    HW175123   5.443   1.525   5.597  1.9787 -1.1030 -1.2927
21133SOL    HW275124   5.483   1.545   5.741 -1.8526 -0.9619 -0.1385
21134SOL     OW75125   1.074   1.338   2.280  0.4592  0.2691 -0.4191
21134SOL    HW175126   1.046   1.334   2.189  1.2858  1.5390 -0.7560
21134SOL    HW275127   1.168   1.319   2.278  0.2859 -0.8178  0.3233
21135SOL     OW75128   3.635   9.006   7.655 -0.2666 -0.5499 -0.4943
21135SOL    HW175129   3.625   9.030   7.747 -0.6013 -0.5080 -0.5405
21135SOL    HW275130   3.604   9.083   7.607 -2.1198 -1.3360 -0.6529
21136SOL     OW75131  11.034   1.102   7.458  0.2397 -0.2618 -0.4131
21136SOL    HW175132  11.124   1.134   7.456  0.2854 -0.2000  1.3850
21136SOL    HW275133  10.987   1.164   7.513 -0.9029 -0.3542 -1.2352
21137SOL     OW75134   4.211   7.113   5.417  0.3512  0.1304 -0.0460
21137SOL    HW175135   4.201   7.142   5.326  1.1168 -0.7379 -0.4264
21137SOL    HW275136   4.121   7.097   5.447 -0.0432  2.0950 -0.0523
21138SOL     OW75137   5.086   3.271   1.005 -0.5554  0.5935  0.0820
21138SOL    HW175138   5.149   3.312   1.064 -0.4315  0.0378  0.3339
21138SOL    HW275139   5.139   3.217   0.947 -0.6457  1.3288 -0.7188
21139SOL     OW75140   0.045   2.271   8.670 -0.2961 -0.1471 -0.4465
21139SOL    HW175141   0.092   2.221   8.603 -0.0575 -1.0603  0.3915
21139SOL    HW275142  -0.020   2.321   8.620 -0.1728 -0.8597 -1.3605
21140SOL     OW75143   4.152   2.092   4.186  0.4491  0.6699  0.4613
21140SOL    HW175144   4.139   2.183   4.211  1.5941  0.8976  0.2844
21140SOL    HW275145   4.237   2.068   4.224  1.1325  0.3165 -1.1922
21141SOL     OW75146  10.191   2.289   7.567 -0.1004 -0.4544 -0.8695
21141SOL    HW175147  10.147   2.369   7.538 -1.9971 -1.5460 -1.1460
21141SOL    HW275148  10.173   2.285   7.661  2.1119  0.6658 -0.3201
21142SOL     OW75149   3.948   9.198  10.511 -0.0286 -0.6115  0.4246
21142SOL    HW175150   3.972   9.131  10.447  0.9035  0.2119 -0.1352
21142SOL    HW275151   3.865   9.169  10.547 -0.9472 -0.7725 -1.6581
21143SOL     OW75152   0.710   5.886   1.165 -0.0995  0.1132 -0.5656
21143SOL    HW175153   0.729   5.792   1.159 -0.7097 -0.0162 -0.5473
21143SOL    HW275154   0.780   5.921   1.220  0.0022 -0.3684 -0.3842
21144SOL     OW75155   3.530   9.900   7.308 -0.2385  0.2624  0.0516
21144SOL    HW175156   3.620   9.891   7.276  0.3846 -2.0188  2.1701
21144SOL    HW275157   3.477   9.894   7.228  1.4008 -0.1969 -1.0798
21145SOL     OW75158   3.140   8.875   8.270 -0.2887 -0.7265  0.0804
21145SOL    HW175159   3.172   8.943   8.211  0.2051  1.4754  2.7145
21145SOL    HW275160   3.179   8.794   8.236 -0.4069  0.2978 -2.8103
21146SOL     OW75161   3.420   7.169   6.273  0.4415 -0.0477 -0.3317
21146SOL    HW175162   3.445   7.098   6.215 -3.4504 -1.3784 -0.6344
21146SOL    HW275163   3.441   7.137   6.361 -0.1327 -1.0500 -0.5566
21147SOL     OW75164   9.574   1.135   5.844 -0.0366 -0.1972 -0.1002
21147SOL    HW175165   9.606   1.069   5.905  0.5615  0.0977 -0.0848
21147SOL    HW275166   9.479   1.139   5.861  0.0780 -0.3042  0.6252
21148SOL     OW75167   1.315   7.676   4.243 -0.0471  0.6972  0.6109
21148SOL    HW175168   1.343   7.619   4.171  2.1206  0.9726  1.1663
21148SOL    HW275169   1.323   7.765   4.208 -0.1368  0.7904  0.8230
21149SOL     OW75170   2.418   7.105   7.278 -0.3548  0.1071  0.2164
21149SOL    HW175171   2.432   7.178   7.338  0.8442  1.7439 -1.9330
21149SOL    HW275172   2.505   7.086   7.242 -0.9725 -1.0695 -0.7328
21150SOL     OW75173   0.291   6.029   5.471  0.6825  0.1626 -0.0535
21150SOL    HW175174   0.230   5.990   5.534  0.5991  2.6821  1.5672
21150SOL    HW275175   0.293   6.122   5.494  0.9222  1.1702 -3.6108
21151SOL     OW75176  10.959   7.059   9.231  0.1612 -0.3282  0.2393
21151SOL    HW175177  10.963   6.964   9.236  2.6954 -0.2655  0.9781
21151SOL    HW275178  10.866   7.080   9.240 -0.2809 -2.6451  1.9981
21152SOL     OW75179   7.976   4.699   2.726  0.0490 -0.5608 -0.1889
21152SOL    HW175180   7.907   4.652   2.773 -0.1415  0.1032  0.1890
21152SOL    HW275181   8.025   4.629   2.682  0.4984 -1.2365  1.3189
21153SOL     OW75182   0.918  11.464   9.299  0.0051 -0.0064 -0.7263
21153SOL    HW175183   1.000  11.510   9.319 -0.0722 -0.0205 -0.3578
21153SOL    HW275184   0.860  11.532   9.266  0.0860  0.0484 -0.7563
21154SOL     OW75185   3.339   4.962   7.343 -0.0941 -0.5370 -0.5750
21154SOL    HW175186   3.380   4.882   7.313 -0.5680 -0.4226 -1.5709
21154SOL    HW275187   3.284   4.935   7.417  0.7864 -0.8918 -0.0469
21155SOL     OW75188   7.295   8.659   4.818 -0.0420  0.5265 -0.0525
21155SOL    HW175189   7.313   8.567   4.839 -0.7543  0.7026  1.3694
21155SOL    HW275190   7.237   8.655   4.742  1.0719 -0.1499 -0.9119
21156SOL     OW75191   9.813   9.295   6.335  0.1356 -0.4127  0.2154
21156SOL    HW175192   9.793   9.342   6.254  0.2028 -1.4775 -0.4371
21156SOL    HW275193   9.733   9.301   6.387 -0.7843 -1.7880 -0.9685
21157SOL     OW75194   2.112   3.950   6.717 -0.7509 -0.0682 -0.4600
21157SOL    HW175195   2.167   4.021   6.685 -2.0953  0.5142 -1.5831
21157SOL    HW275196   2.122   3.880   6.652  1.2099 -1.3104  1.0580
21158SOL     OW75197  10.535   4.138  10.429  0.3060  0.2188 -0.5030
21158SOL    HW175198  10.494   4.183  10.355  0.2338 -0.5749 -0.9592
21158SOL    HW275199  10.623   4.116  10.398  0.1541 -0.4276 -0.4809
21159SOL     OW75200   7.080   6.804   3.301  0.1045  0.4535  0.1958
21159SOL    HW175201   6.987   6.823   3.315  0.3053  1.0371  0.8109
21159SOL    HW275202   7.125   6.850   3.372  0.9872  1.4990 -0.9882
21160SOL     OW75203   5.306   9.392   7.499 -0.6860 -0.2844  0.2206
21160SOL    HW175204   5.239   9.337   7.539 -0.4297 -1.8596 -1.4157
21160SOL    HW275205   5.348   9.336   7.435  1.6467  0.9201  0.5863
21161SOL     OW75206   1.683   1.749   8.813 -0.5547 -0.2077 -0.2982
21161SOL    HW175207   1.654   1.696   8.739  1.7855  0.5397 -1.8630
21161SOL    HW275208   1.606   1.757   8.868 -2.8598  0.3422 -3.3300
21162SOL     OW75209   1.341   3.594   6.316  0.0759 -0.4947  0.4738
21162SOL    HW175210   1.400   3.621   6.385 -0.0064 -0.8951  0.7073
21162SOL    HW275211   1.398   3.564   6.245  0.1578 -0.4684  0.5295
21163SOL     OW75212   2.148   4.671   1.187  0.2861 -0.0240  0.3959
21163SOL    HW175213   2.191   4.678   1.272 -1.5191  1.6043  1.2693
21163SOL    HW275214   2.101   4.588   1.191  0.1241  0.0911  1.0754
21164SOL     OW75215   6.701   5.414   6.069  0.1565  0.2900 -0.2987
21164SOL    HW175216   6.660   5.499   6.058  0.2822  0.4928  0.7048
21164SOL    HW275217   6.761   5.406   5.995  1.0664  1.6310  0.2586
21165SOL     OW75218   6.409  10.485   5.346  0.4118 -0.5228 -0.4408
21165SOL    HW175219   6.486  10.477   5.290  0.9553  2.1777 -0.2396
21165SOL    HW275220   6.335  10.479   5.286  0.9808  2.0262 -1.5407
21166SOL     OW75221   1.921   3.398   3.223  0.2571  0.3988 -0.3760
21166SOL    HW175222   1.896   3.311   3.191  1.1499  0.2876 -0.7766
21166SOL    HW275223   1.879   3.404   3.309  1.7702 -1.2238  0.5465
21167SOL     OW75224   2.193   7.609   0.903 -0.5175  0.3546 -0.0405
21167SOL    HW175225   2.127   7.540   0.901 -1.9527  1.7012 -0.2905
21167SOL    HW275226   2.258   7.577   0.967 -1.1675 -1.1693 -0.0839
21168SOL     OW75227   3.493   3.453   9.849  0.5408  0.2870  0.4439
21168SOL    HW175228   3.432   3.452   9.776  2.2008 -1.8837 -1.0387
21168SOL    HW275229   3.442   3.420   9.923 -0.5957  0.4459 -0.2416
21169SOL     OW75230   8.986   0.509   7.750  0.2809 -0.1669  0.1226
21169SOL    HW175231   8.952   0.507   7.839 -0.1257 -1.2331 -0.0404
21169SOL    HW275232   9.080   0.519   7.760  0.1286  0.9162  0.6273
21170SOL     OW75233   2.321   4.983   1.287  0.4640  0.4851  0.1217
21170SOL    HW175234   2.268   4.930   1.228 -0.4288  1.2470  0.2098
21170SOL    HW275235   2.411   4.968   1.258  0.0497  0.9711 -1.5539
21171SOL     OW75236   0.371   4.269   1.020  0.2809 -0.0060 -0.1399
21171SOL    HW175237   0.467   4.277   1.024  0.2284  2.4694 -1.6269
21171SOL    HW275238   0.340   4.315   1.098  0.2550 -1.4610  0.7516
21172SOL     OW75239   7.379   7.400   4.667 -0.0497 -0.1664  0.0277
21172SOL    HW175240   7.430   7.329   4.629  0.6502  1.2437 -1.8260
21172SOL    HW275241   7.444   7.464   4.696 -0.6659 -0.2259  1.6664
21173SOL     OW75242   7.164   9.714   3.468  0.4062 -0.1667 -0.5219
21173SOL    HW175243   7.090   9.709   3.528  0.1235 -1.3635 -0.9337
21173SOL    HW275244   7.181   9.807   3.458 -1.9768  0.2118 -1.5522
21174SOL     OW75245   5.048  10.169   9.139  0.0258  0.3337  0.5169
21174SOL    HW175246   5.025  10.195   9.049 -0.1547 -0.1173  0.4289
21174SOL    HW275247   5.117  10.230   9.165  0.7045 -0.0757 -0.2534
21175SOL     OW75248  11.382   2.186   4.798  0.1744  0.0944 -0.9902
21175SOL    HW175249  11.371   2.091   4.796 -1.2893  0.1961  0.0649
21175SOL    HW275250  11.474   2.201   4.777  0.9690 -1.6941  0.9298
21176SOL     OW75251   0.264   5.866   4.474  0.1152  0.5702 -0.5976
21176SOL    HW175252   0.314   5.821   4.406  0.1370 -0.0417 -0.1858
21176SOL    HW275253   0.293   5.957   4.469  2.3968 -0.0153  0.5957
21177SOL     OW75254   6.866   8.435   8.717 -0.2784 -0.6772  0.5292
21177SOL    HW175255   6.896   8.449   8.627  0.3330 -0.5588  0.7508
21177SOL    HW275256   6.793   8.497   8.726  0.4986  0.2719  0.5294
21178SOL     OW75257   8.053   5.240   2.668  0.0207 -0.8770 -0.2869
21178SOL    HW175258   8.067   5.230   2.762  0.7894  0.0431 -0.2857
21178SOL    HW275259   8.102   5.168   2.629 -1.4809 -2.1307  0.0560
21179SOL     OW75260   9.902   4.581   8.247  0.6160 -0.8722 -0.3262
21179SOL    HW175261   9.939   4.573   8.335  1.7379 -2.9805 -0.9295
21179SOL    HW275262   9.970   4.627   8.197 -0.8348  2.1777  0.2799
21180SOL     OW75263   3.603   9.173   7.860  0.2936  0.3070  0.1543
21180SOL    HW175264   3.628   9.265   7.850  0.0806  0.1391 -2.6462
21180SOL    HW275265   3.511   9.176   7.888  0.6573  0.8957  1.3814
21181SOL     OW75266   3.854  10.829   7.387  0.2070 -0.2437  0.4277
21181SOL    HW175267   3.915  10.756   7.394 -0.9834 -1.1700  1.4500
21181SOL    HW275268   3.885  10.879   7.311  0.7607 -2.0651 -0.5936
21182SOL     OW75269  11.734   4.961   8.654 -0.8137 -0.1500  0.1776
21182SOL    HW175270  11.702   5.033   8.599 -0.3135 -1.5473 -2.0715
21182SOL    HW275271  11.654   4.916   8.682 -1.0538 -0.2271 -0.5932
21183SOL     OW75272   3.696   3.751   0.376 -0.8429  0.2629 -0.1612
21183SOL    HW175273   3.617   3.697   0.367 -0.7939  0.0617  0.5353
21183SOL    HW275274   3.761   3.692   0.415 -1.2514  1.1905  2.0822
21184SOL     OW75275  11.664   2.310   4.559  0.0395  0.2476 -0.2630
21184SOL    HW175276  11.644   2.243   4.625 -0.1395  0.9978  0.4619
21184SOL    HW275277  11.759   2.314   4.555  0.0505  0.4278  0.1912
21185SOL     OW75278   8.677   9.175   6.848  0.2900  0.2458  0.1568
21185SOL    HW175279   8.642   9.263   6.838  1.2600  0.5964 -0.2649
21185SOL    HW275280   8.757   9.186   6.899 -0.2883 -0.5637  1.3014
21186SOL     OW75281   4.154   3.845   9.792 -0.0281  0.6246 -0.2222
21186SOL    HW175282   4.061   3.829   9.776 -0.2174  0.6311  0.8098
21186SOL    HW275283   4.191   3.859   9.705 -1.0629  1.0162 -0.6193
21187SOL     OW75284   6.505   1.281   7.334  0.2256  0.3800  0.4197
21187SOL    HW175285   6.546   1.212   7.387  0.8038 -0.9105 -1.5800
21187SOL    HW275286   6.556   1.360   7.353  1.4831 -0.4381  0.5702
21188SOL     OW75287   8.405   5.374   9.791 -0.7114 -0.1743 -0.0055
21188SOL    HW175288   8.403   5.444   9.856  0.2512  1.4636 -1.6688
21188SOL    HW275289   8.315   5.341   9.788 -1.2692  1.2258  0.5712
21189SOL     OW75290   9.589   3.903   1.383 -0.0866 -0.3492 -0.0442
21189SOL    HW175291   9.517   3.953   1.346 -1.3900 -1.5192  0.7881
21189SOL    HW275292   9.617   3.845   1.312 -1.2805 -1.2335  0.1833
21190SOL     OW75293   2.517  10.392   0.499 -0.2841  0.0255  0.0756
21190SOL    HW175294   2.458  10.331   0.544  0.0820 -0.3877  0.0119
21190SOL    HW275295   2.461  10.465   0.474 -0.7215 -0.2501  0.2233
21191SOL     OW75296   6.361   9.491  10.053 -0.4136 -0.0813  0.1218
21191SOL    HW175297   6.366   9.473   9.959  0.1979 -0.4101  0.2063
21191SOL    HW275298   6.433   9.440  10.090 -0.2613  0.5397  0.6925
21192SOL     OW75299   5.073   1.445   6.665  0.0313  0.4009  0.2381
21192SOL    HW175300   5.071   1.499   6.586 -0.5395  1.3630  0.8849
21192SOL    HW275301   5.166   1.431   6.683  0.1722 -0.7156 -1.1645
21193SOL     OW75302   0.073   3.884   3.222  0.0946 -0.0000  0.2924
21193SOL    HW175303   0.166   3.880   3.198  0.2141  0.8579  0.5623
21193SOL    HW275304   0.038   3.957   3.171 -0.9038 -1.5045 -1.2699
21194SOL     OW75305   0.478   6.368   5.300  0.2864 -0.1694 -0.4632
21194SOL    HW175306   0.541   6.376   5.372 -0.5119  0.2999  0.1958
21194SOL    HW275307   0.531   6.342   5.224  1.4500  1.3439 -0.1964
21195SOL     OW75308   3.663   1.046   1.183 -0.1447 -0.2409  0.3122
21195SOL    HW175309   3.676   1.099   1.105 -2.0345 -2.6135 -1.7736
21195SOL    HW275310   3.748   1.048   1.228  0.7937  1.7489 -1.3872
21196SOL     OW75311   5.395   3.968  10.389 -0.3916  0.0526  0.2451
21196SOL    HW175312   5.311   3.929  10.416 -0.9544  0.9939 -0.0975
21196SOL    HW275313   5.385   3.982  10.295 -0.0129  0.5706  0.2830
21197SOL     OW75314   1.489   6.507   5.751 -0.5084  1.1225 -0.0674
21197SOL    HW175315   1.442   6.437   5.706  2.6878  0.7516 -3.2913
21197SOL    HW275316   1.522   6.467   5.832  1.2442 -1.2606 -1.8308
21198SOL     OW75317   7.838   2.507   6.792 -0.0727  0.1508  0.3094
21198SOL    HW175318   7.770   2.455   6.749 -1.3009  1.2272  0.8898
21198SOL    HW275319   7.871   2.451   6.862 -1.0430 -0.0425  0.6221
21199SOL     OW75320   7.535  10.129  11.339  0.6351 -0.4082  0.1405
21199SOL    HW175321   7.461  10.127  11.278  0.2224 -0.6348  0.6321
21199SOL    HW275322   7.499  10.095  11.421  1.0085  0.4929  0.6999
21200SOL     OW75323   1.113  10.832  11.855  0.1969  0.3530 -0.0066
21200SOL    HW175324   1.075  10.754  11.814  0.1464  0.6339 -0.5069
21200SOL    HW275325   1.206  10.830  11.829  0.8009 -0.8763  2.0451
21201SOL     OW75326   8.969   1.759   5.099 -0.7234 -0.4828  0.1858
21201SOL    HW175327   8.881   1.762   5.136 -1.2245  0.3836 -1.0044
21201SOL    HW275328   8.958   1.712   5.016  0.2325 -1.7451  0.7452
21202SOL     OW75329   7.156  10.893   4.026 -0.0793 -0.2209  0.2591
21202SOL    HW175330   7.200  10.882   4.111 -1.7789 -0.1334  1.2024
21202SOL    HW275331   7.063  10.881   4.046 -0.7524  1.8924 -1.1963
21203SOL     OW75332   1.150   5.755   5.919  0.9282  0.1594  0.2745
21203SOL    HW175333   1.069   5.735   5.967  1.5069 -0.7250  0.9162
21203SOL    HW275334   1.217   5.703   5.963  1.7979  0.6532 -0.4383
21204SOL     OW75335   3.363  11.548  10.255 -1.0429 -0.3414 -0.1681
21204SOL    HW175336   3.395  11.629  10.295  0.9145 -1.3767  0.4732
21204SOL    HW275337   3.330  11.497  10.329  0.3041 -1.2527 -0.1765
21205SOL     OW75338   8.168  10.201   7.172 -0.5003  0.2689  0.0675
21205SOL    HW175339   8.183  10.164   7.085  1.0012  1.1089 -0.0626
21205SOL    HW275340   8.181  10.295   7.160  1.6510  0.2208  1.5624
21206SOL     OW75341  10.992   2.078   1.030  0.0034 -0.6350 -0.1829
21206SOL    HW175342  10.977   2.138   0.957 -2.2001 -0.1348  0.5872
21206SOL    HW275343  10.961   2.126   1.107  1.0134 -1.6466  0.8935
21207SOL     OW75344   3.438   6.416  11.227 -0.1028  0.1646 -1.2594
21207SOL    HW175345   3.372   6.427  11.158 -0.8295  0.3098 -0.5555
21207SOL    HW275346   3.521   6.411  11.180 -0.3962  1.9270 -2.0685
21208SOL     OW75347   3.094   9.274  11.418 -0.3697 -0.3000  0.2895
21208SOL    HW175348   3.012   9.245  11.377 -0.0044  0.7672 -1.2745
21208SOL    HW275349   3.137   9.193  11.444 -1.8813 -0.8831  1.0999
21209SOL     OW75350   8.932   4.900  10.664  0.1549 -0.4546 -0.3836
21209SOL    HW175351   8.909   4.993  10.669  1.0322 -0.1296 -1.8236
21209SOL    HW275352   8.937   4.881  10.570  1.7185 -1.4909 -0.1339
21210SOL     OW75353   6.097   5.571   5.467 -0.8088  0.5245  0.0619
21210SOL    HW175354   6.053   5.558   5.551 -0.7967 -1.4369 -0.1730
21210SOL    HW275355   6.188   5.590   5.489 -0.1982 -2.4586  0.5751
21211SOL     OW75356   4.069   5.818  11.128  0.4064  0.1383  0.3134
21211SOL    HW175357   4.029   5.731  11.118  1.0857 -0.0972 -0.4734
21211SOL    HW275358   4.162   5.804  11.108  0.2184  1.3754 -1.6259
21212SOL     OW75359   2.625   3.937   7.255 -0.8199 -0.9194  0.3628
21212SOL    HW175360   2.641   3.911   7.346 -2.3817 -2.5641  0.2311
21212SOL    HW275361   2.545   3.990   7.259  0.7031  1.4967  0.2472
21213SOL     OW75362   0.436   4.364   5.899 -0.6490  0.7558 -0.3194
21213SOL    HW175363   0.430   4.451   5.938  1.4061  0.2727  1.2234
21213SOL    HW275364   0.512   4.368   5.841 -1.1058  0.2191 -0.9892
21214SOL     OW75365   5.657   9.333   5.643 -0.4817  0.0810  0.3455
21214SOL    HW175366   5.591   9.267   5.666 -1.2998  0.7302 -0.0755
21214SOL    HW275367   5.646   9.345   5.549 -1.2300  1.7361  0.6200
21215SOL     OW75368   7.435   4.567   8.580  0.0122 -0.2864 -0.1678
21215SOL    HW175369   7.417   4.491   8.525 -0.9493 -1.0420  1.1554
21215SOL    HW275370   7.370   4.563   8.650  2.0010 -0.1087  1.7909
21216SOL     OW75371   6.635  10.350   8.455  0.4232  0.1647 -0.2205
21216SOL    HW175372   6.640  10.438   8.418  0.8064  0.6194  0.8679
21216SOL    HW275373   6.635  10.364   8.550  2.3379 -1.0787  0.0248
21217SOL     OW75374   2.474   4.521   0.624 -0.8751 -0.1234 -0.2645
21217SOL    HW175375   2.434   4.566   0.550  0.2141 -0.6360 -1.2079
21217SOL    HW275376   2.562   4.498   0.593  0.3105  1.2474  1.8135
21218SOL     OW75377   8.156   7.194   6.820  0.4707 -0.1818 -0.1024
21218SOL    HW175378   8.079   7.212   6.765  1.1506  0.1798 -0.9701
21218SOL    HW275379   8.129   7.219   6.908 -0.5681 -0.5340 -0.3044
21219SOL     OW75380   4.141   8.908   7.901 -0.0249 -0.1401  0.5724
21219SOL    HW175381   4.197   8.851   7.954 -0.3959  0.1902  1.3362
21219SOL    HW275382   4.194   8.987   7.887  0.3850 -0.5576 -0.2521
21220SOL     OW75383   8.121   5.348   7.153 -0.0590 -0.1511 -0.0285
21220SOL    HW175384   8.035   5.307   7.143 -0.2953  0.3372 -0.0365
21220SOL    HW275385   8.128   5.365   7.247  0.4347 -1.0416  0.1108
21221SOL     OW75386   3.846   5.982   3.806  0.5144 -0.3326 -0.0582
21221SOL    HW175387   3.907   6.056   3.811 -2.3518  2.1651  2.4276
21221SOL    HW275388   3.840   5.962   3.713  2.7831  1.3263 -0.6602
21222SOL     OW75389   6.173   2.954   3.786  0.1995  0.4872  0.2724
21222SOL    HW175390   6.131   2.870   3.803  0.4969  0.4465  0.8308
21222SOL    HW275391   6.145   3.010   3.858  0.4771  0.6894  0.2239
21223SOL     OW75392   6.341  10.278   5.627  0.7329  0.5193  0.2459
21223SOL    HW175393   6.321  10.360   5.581  1.9532  0.0546 -1.1882
21223SOL    HW275394   6.273  10.271   5.694 -1.1120  1.2774 -1.4347
21224SOL     OW75395  10.365   0.241  10.100 -0.5553  0.2168 -0.1474
21224SOL    HW175396  10.359   0.337  10.102  0.2702  0.3358 -1.7253
21224SOL    HW275397  10.403   0.218  10.184  1.0100  1.4599 -0.4534
21225SOL     OW75398  10.404   1.105  10.148  0.2560  0.3092 -0.2096
21225SOL    HW175399  10.447   1.163  10.085  0.3164 -1.7979 -2.2429
21225SOL    HW275400  10.467   1.096  10.220 -0.4580  4.0410  1.1038
21226SOL     OW75401   7.113   8.371   7.186 -0.3366  0.0582 -0.5477
21226SOL    HW175402   7.136   8.293   7.135 -1.0078 -0.9196  0.6081
21226SOL    HW275403   7.187   8.382   7.246 -0.1327  0.4635 -0.8684
21227SOL     OW75404   6.014  10.940   8.225 -0.1586 -0.3864  0.2225
21227SOL    HW175405   5.967  10.948   8.307  0.2072 -0.5824  0.4562
21227SOL    HW275406   5.955  10.891   8.168 -1.3408  1.6168 -0.3775
21228SOL     OW75407   9.522   0.827   7.988  0.8321  0.1789 -0.0656
21228SOL    HW175408   9.434   0.789   7.988  0.1938  1.6169 -0.0186
21228SOL    HW275409   9.580   0.751   7.993 -0.3760 -0.8390 -0.7732
21229SOL     OW75410   7.888   4.928   9.019  0.5556 -0.4145 -0.3737
21229SOL    HW175411   7.867   4.838   9.044 -0.0101 -1.1138 -3.0289
21229SOL    HW275412   7.817   4.954   8.959  0.3554  2.0646  0.7893
21230SOL     OW75413   1.260   0.973   6.830  0.2813 -0.9107 -0.3952
21230SOL    HW175414   1.275   0.879   6.831 -1.8039 -1.2800  0.0692
21230SOL    HW275415   1.221   0.991   6.745  3.9396  0.2159 -2.0552
21231SOL     OW75416  11.918   4.690   7.998 -0.4149  0.1553 -0.5396
21231SOL    HW175417  11.918   4.727   7.909  0.1807  2.2774  0.2896
21231SOL    HW275418  11.826   4.692   8.024 -0.5394 -0.0767 -0.9537
21232SOL     OW75419   5.250   9.474   8.353 -0.4436 -0.2375 -0.4936
21232SOL    HW175420   5.189   9.504   8.421 -0.1923 -0.8023 -0.0025
21232SOL    HW275421   5.210   9.501   8.271 -1.1201 -0.1765 -0.1513
21233SOL     OW75422   8.899   4.991   2.343  0.2548  0.2474 -0.3002
21233SOL    HW175423   8.803   4.988   2.346  0.1482 -0.0107 -2.4083
21233SOL    HW275424   8.925   5.020   2.431 -1.6885 -0.6781  0.6606
21234SOL     OW75425   0.823   4.154   7.623  0.6194 -0.5590 -0.3281
21234SOL    HW175426   0.811   4.239   7.582  1.2121  0.4747  1.5173
21234SOL    HW275427   0.770   4.158   7.703 -0.2703 -2.3703 -0.7753
21235SOL     OW75428   6.680  11.383  10.695 -1.1063 -0.2967 -0.1122
21235SOL    HW175429   6.726  11.384  10.779 -0.1665 -2.1674 -0.5481
21235SOL    HW275430   6.596  11.426  10.712 -0.0786  1.3139  1.2267
21236SOL     OW75431  10.682   5.491   6.137 -0.5018 -0.5085 -0.0308
21236SOL    HW175432  10.761   5.437   6.141  0.7918  1.1928 -1.3376
21236SOL    HW275433  10.651   5.482   6.047  0.6946  2.1119 -0.7943
21237SOL     OW75434   7.621   6.676   1.713 -0.2900  0.9265 -0.4930
21237SOL    HW175435   7.621   6.636   1.801 -0.6322  0.2074 -0.8109
21237SOL    HW275436   7.530   6.698   1.696 -0.0614  2.1486 -0.1992
21238SOL     OW75437   3.439   5.481   9.438 -0.0807 -0.0685  0.7525
21238SOL    HW175438   3.488   5.502   9.358  0.8946  1.4066  1.6611
21238SOL    HW275439   3.498   5.508   9.509 -0.3728 -2.5228  2.0301
21239SOL     OW75440   9.062   6.590   4.140  0.1976 -0.2410 -0.2116
21239SOL    HW175441   9.104   6.505   4.154  0.5555 -0.1153 -0.5046
21239SOL    HW275442   8.976   6.569   4.104  0.7731 -0.4522 -1.5169
21240SOL     OW75443   9.212   2.629   9.516 -0.4880 -0.1617 -0.2077
21240SOL    HW175444   9.193   2.668   9.601  2.0724  0.7490  0.0501
21240SOL    HW275445   9.192   2.536   9.526 -0.4870 -0.0167  1.2917
21241SOL     OW75446   7.598   6.910   6.225 -0.5585  0.3726 -0.3297
21241SOL    HW175447   7.519   6.963   6.234 -1.2850 -0.8130  0.6434
21241SOL    HW275448   7.656   6.942   6.295 -0.4656  0.7490 -0.5755
21242SOL     OW75449   8.105   7.286   1.038 -0.2837  0.1177  0.3964
21242SOL    HW175450   8.051   7.254   1.110 -0.7480  1.9482  0.9317
21242SOL    HW275451   8.043   7.332   0.981  0.2112 -0.6217 -0.7541
21243SOL     OW75452  10.709   8.391  10.239 -0.3622 -0.2975 -0.6544
21243SOL    HW175453  10.623   8.409  10.276 -0.1581 -0.2582 -0.1893
21243SOL    HW275454  10.691   8.355  10.152 -0.8479 -0.4429 -0.4955
21244SOL     OW75455   7.593   9.938   2.873  0.5305  0.7696 -0.0417
21244SOL    HW175456   7.582  10.011   2.812  2.2408  0.2324 -1.0550
21244SOL    HW275457   7.613   9.863   2.817 -2.8989 -0.9633  0.8109
21245SOL     OW75458   2.674  10.272   7.130 -0.5193  0.3610 -0.0954
21245SOL    HW175459   2.619  10.194   7.121 -0.3916  0.2532  0.0851
21245SOL    HW275460   2.714  10.282   7.044 -0.1383 -0.0644  0.0282
21246SOL     OW75461   5.452  10.713   5.156  0.5117 -0.1796  0.2582
21246SOL    HW175462   5.483  10.625   5.176  1.2149  0.1632  0.7200
21246SOL    HW275463   5.530  10.761   5.131 -0.0311  0.0133 -1.1364
21247SOL     OW75464   7.368   8.041   1.781 -0.2777 -0.5858  0.1752
21247SOL    HW175465   7.342   7.954   1.813  0.8321 -1.1645 -0.4169
21247SOL    HW275466   7.287   8.083   1.756 -0.6491 -3.0938 -3.6254
21248SOL     OW75467   8.264   8.983   9.828  0.6561 -0.0719  0.1964
21248SOL    HW175468   8.235   8.903   9.786  0.7414 -0.5850  1.0835
21248SOL    HW275469   8.213   8.987   9.909 -1.6294  2.3667 -1.2162
21249SOL     OW75470   9.525  11.204  11.589  0.4427  0.1148 -0.1087
21249SOL    HW175471   9.521  11.111  11.567 -2.0748  0.2598 -0.5780
21249SOL    HW275472   9.553  11.206  11.680 -0.1288 -1.1364  0.1096
21250SOL     OW75473  10.149   6.514   8.423 -0.3092  0.4636  0.3815
21250SOL    HW175474  10.226   6.566   8.402 -0.8185  0.9653 -0.2375
21250SOL    HW275475  10.103   6.565   8.490 -0.4618  0.4843  0.2597
21251SOL     OW75476   0.008   4.635   9.817  0.1815 -0.7181  0.0594
21251SOL    HW175477  -0.063   4.634   9.753  3.2432 -1.3225 -3.6851
21251SOL    HW275478   0.012   4.545   9.849 -0.0642 -0.9281 -0.4874
21252SOL     OW75479   5.836   9.458  10.493 -0.0542 -0.5472 -0.3532
21252SOL    HW175480   5.821   9.397  10.566  0.4674 -0.2759 -0.0156
21252SOL    HW275481   5.791   9.417  10.419  1.6992 -2.2112 -0.5676
21253SOL     OW75482   2.476   2.976   5.459  0.0158  0.4551  0.1225
21253SOL    HW175483   2.489   2.962   5.366  1.8895  1.4961  0.1662
21253SOL    HW275484   2.459   2.889   5.495 -0.3663  0.0028 -1.1352
21254SOL     OW75485   3.506   1.049   0.372 -0.4347  0.4855  0.5254
21254SOL    HW175486   3.545   0.967   0.341  0.2150  0.8619  0.3246
21254SOL    HW275487   3.445   1.021   0.440 -0.8508 -0.2318 -0.1226
21255SOL     OW75488   4.725  11.352   9.417  0.4194  0.3432 -0.2067
21255SOL    HW175489   4.818  11.339   9.436 -0.2895 -1.6669  2.6828
21255SOL    HW275490   4.722  11.374   9.324  3.7083 -0.5682 -0.6586
21256SOL     OW75491   4.592   6.184   2.948  0.2282 -0.0402 -0.2496
21256SOL    HW175492   4.641   6.169   2.868 -0.6968  0.3141 -0.9011
21256SOL    HW275493   4.517   6.126   2.941 -0.5191  0.8899 -0.2471
21257SOL     OW75494   5.795   3.694   9.623 -0.4081 -0.1367  0.6870
21257SOL    HW175495   5.812   3.639   9.699 -0.6835  1.1041  1.6741
21257SOL    HW275496   5.724   3.648   9.576 -0.3516 -0.8265  1.2556
21258SOL     OW75497   2.416   1.341   5.872  0.4789 -0.5375 -0.3619
21258SOL    HW175498   2.343   1.278   5.870 -1.2910  1.3151  1.1881
21258SOL    HW275499   2.493   1.288   5.891 -0.6126 -2.4507 -0.9891
21259SOL     OW75500  10.305   6.916   9.535 -0.2415 -0.2393  0.6361
21259SOL    HW175501  10.378   6.854   9.529 -0.2759 -0.1743 -0.6804
21259SOL    HW275502  10.327   6.972   9.610  0.3281 -1.1449  1.1605
21260SOL     OW75503   1.229   2.370   6.593 -0.0999  0.9309 -0.1954
21260SOL    HW175504   1.211   2.332   6.507  0.5481 -1.0596  0.4829
21260SOL    HW275505   1.324   2.364   6.601 -0.3145 -1.7665  1.7931
21261SOL     OW75506   9.023   9.578   6.183 -0.1346  0.3082 -0.3894
21261SOL    HW175507   8.932   9.554   6.202  0.0054  0.6613  0.8680
21261SOL    HW275508   9.038   9.548   6.094 -1.9584  1.6206 -1.1955
21262SOL     OW75509   7.422   7.991   8.565  0.3180 -0.8607 -0.4432
21262SOL    HW175510   7.483   8.044   8.513  0.3081  0.1663  0.5598
21262SOL    HW275511   7.336   8.011   8.528 -0.1361  2.5889  2.0400
21263SOL     OW75512   0.626   0.435   9.301  0.4092  0.2977 -0.7363
21263SOL    HW175513   0.694   0.451   9.366 -0.9991  0.2208  0.8385
21263SOL    HW275514   0.605   0.522   9.266  0.8994  0.3881 -0.8145
21264SOL     OW75515  11.532  11.730   8.151  0.3288  0.2029  0.1465
21264SOL    HW175516  11.450  11.707   8.107  1.0179  1.1718 -1.7338
21264SOL    HW275517  11.590  11.656   8.136 -0.5196 -1.0779  2.5905
21265SOL     OW75518   4.222   9.153  11.444  0.2215 -0.1408 -0.5715
21265SOL    HW175519   4.270   9.236  11.439 -0.8748  0.4925 -1.0374
21265SOL    HW275520   4.146   9.172  11.499  0.6832 -1.2324  0.4843
21266SOL     OW75521   5.591   9.253   7.073  0.5543  0.7908  0.5670
21266SOL    HW175522   5.633   9.200   7.004  0.0952  0.7556  0.3098
21266SOL    HW275523   5.575   9.191   7.144 -1.8197  0.0692 -0.4933
21267SOL     OW75524   1.673   7.629   2.855 -0.2135 -0.3640 -0.0497
21267SOL    HW175525   1.666   7.659   2.764  1.4425 -0.6554 -0.3069
21267SOL    HW275526   1.766   7.609   2.867 -0.4174 -0.4635  1.6789
21268SOL     OW75527   9.859   5.779   4.083 -0.2896 -0.4283 -0.2620
21268SOL    HW175528   9.810   5.793   4.165 -1.1014 -0.1490 -0.7789
21268SOL    HW275529   9.950   5.775   4.110 -0.5156  0.0491  0.6149
21269SOL     OW75530   0.113  10.910   4.746 -0.2019  0.1377  0.5684
21269SOL    HW175531   0.172  10.837   4.765  0.3612  0.7220  1.1431
21269SOL    HW275532   0.026  10.876   4.766  0.0947 -0.2477  1.2461
21270SOL     OW75533   5.656   2.920  10.278  0.5285 -0.4928 -0.2028
21270SOL    HW175534   5.610   2.988  10.327  1.7095  1.2179 -1.3523
21270SOL    HW275535   5.678   2.961  10.195  1.4687 -2.2408 -0.8734
21271SOL     OW75536   0.724   1.591   6.333  0.0274  0.3564  0.4253
21271SOL    HW175537   0.655   1.591   6.267  1.0785  1.3212 -0.7272
21271SOL    HW275538   0.724   1.680   6.368  0.3452  0.2176  0.7861
21272SOL     OW75539   0.869  10.551   7.454  0.5625 -0.3231 -0.5443
21272SOL    HW175540   0.804  10.599   7.402 -0.0900 -0.0627  0.4873
21272SOL    HW275541   0.833  10.462   7.461  1.2500 -0.7001 -1.5495
21273SOL     OW75542   4.847   4.422   7.982 -0.1224  0.3606 -0.5838
21273SOL    HW175543   4.864   4.450   7.892 -0.5132 -0.3526 -0.8805
21273SOL    HW275544   4.845   4.326   7.978 -0.4933  0.3337  0.1228
21274SOL     OW75545   9.565   6.557   4.524 -0.0244 -0.4363  0.0058
21274SOL    HW175546   9.504   6.585   4.592  0.7081  0.1179  0.4463
21274SOL    HW275547   9.578   6.463   4.541  1.0529 -0.0646  1.3642
21275SOL     OW75548   9.233   4.474   6.647 -0.7568  0.5687 -0.2058
21275SOL    HW175549   9.146   4.500   6.679 -0.3650  1.9333 -0.1799
21275SOL    HW275550   9.294   4.512   6.710 -0.1431 -2.4235  1.1970
21276SOL     OW75551   2.279  11.247   8.047 -0.6012 -0.4012  0.2061
21276SOL    HW175552   2.254  11.232   8.139 -1.3693  0.7193  0.2006
21276SOL    HW275553   2.200  11.227   7.997 -0.9011  1.1623  0.0043
21277SOL     OW75554   2.054   4.728   0.244 -1.3956 -0.1323  0.4131
21277SOL    HW175555   2.103   4.790   0.298  0.4814 -1.0200 -0.1988
21277SOL    HW275556   2.020   4.781   0.172 -1.7816  0.5885  1.1065
21278SOL     OW75557   7.139   5.699   0.018  0.5988 -0.3320  0.0120
21278SOL    HW175558   7.049   5.693  -0.015  0.7289 -0.4747 -0.3270
21278SOL    HW275559   7.193   5.681  -0.059  0.9101 -0.6793  0.3116
21279SOL     OW75560   8.084  10.948   3.708  0.0999  0.0619 -0.1008
21279SOL    HW175561   8.016  10.916   3.767  0.0922 -1.3801 -0.8477
21279SOL    HW275562   8.051  10.929   3.620  1.6224 -1.0776 -0.4692
21280SOL     OW75563   2.052   5.760   8.833  0.2839  0.5051 -0.2147
21280SOL    HW175564   2.088   5.809   8.907  1.4025  0.1090 -0.4838
21280SOL    HW275565   2.088   5.804   8.756 -0.2421  0.4265 -0.5087
21281SOL     OW75566   5.803   1.137   4.079  0.4106 -0.1241 -0.1328
21281SOL    HW175567   5.802   1.118   4.172  0.7568  0.6945  0.0490
21281SOL    HW275568   5.730   1.086   4.043  0.1146 -0.2476  0.6233
21282SOL     OW75569   0.260   4.495   9.181 -0.1938  0.6440  0.0300
21282SOL    HW175570   0.344   4.505   9.226 -0.1138  0.4203 -0.0639
21282SOL    HW275571   0.194   4.515   9.247 -0.2134 -2.6860  1.2251
21283SOL     OW75572   7.606   3.369   6.192 -0.0803 -0.1456  0.5343
21283SOL    HW175573   7.550   3.375   6.270  0.8690  0.7435  1.1767
21283SOL    HW275574   7.566   3.430   6.130  0.2150  0.5586  1.0244
21284SOL     OW75575   5.864   8.018   5.907  0.3523  0.4882  0.6324
21284SOL    HW175576   5.915   8.097   5.891  2.6456 -0.7314  1.4674
21284SOL    HW275577   5.887   7.993   5.997 -0.6364 -0.9084  0.5262
21285SOL     OW75578   3.369  10.124   9.786 -0.5809 -0.1102 -0.1823
21285SOL    HW175579   3.431  10.055   9.810  0.2172  0.4083 -0.6816
21285SOL    HW275580   3.286  10.078   9.772 -0.3945 -0.7765  0.7980
21286SOL     OW75581   1.921   6.887   4.484 -0.2620 -0.1799  0.3425
21286SOL    HW175582   1.913   6.931   4.569 -0.4738 -1.8298  1.2236
21286SOL    HW275583   1.840   6.835   4.476 -0.0594 -0.3599 -0.6830
21287SOL     OW75584   1.186  11.768  11.765  0.0052 -0.0304 -0.0082
21287SOL    HW175585   1.269  11.805  11.736  0.0645  0.0409  0.2472
21287SOL    HW275586   1.212  11.688  11.811 -0.1549 -0.6696 -1.0015
21288SOL     OW75587  10.516   5.539  11.182 -0.2198  0.2594  0.1015
21288SOL    HW175588  10.604   5.534  11.221 -0.0847  0.7791 -0.1351
21288SOL    HW275589  10.497   5.632  11.177 -0.8219  0.1437  0.2200
21289SOL     OW75590   1.319   9.542   9.663 -0.4211 -0.0885  0.0246
21289SOL    HW175591   1.298   9.456   9.629  0.1557 -0.4620  0.5778
21289SOL    HW275592   1.243   9.566   9.716 -0.6681 -0.1662 -0.2926
21290SOL     OW75593   0.296   6.535   9.073 -0.3484 -0.0092  0.2046
21290SOL    HW175594   0.378   6.533   9.023 -0.6283 -0.4327 -0.2573
21290SOL    HW275595   0.246   6.460   9.039  0.0095 -1.1572  2.0825
21291SOL     OW75596   7.399   6.541   7.305 -0.0722 -0.3766  0.2992
21291SOL    HW175597   7.473   6.508   7.253 -0.4419  1.0363 -1.1978
21291SOL    HW275598   7.364   6.614   7.254 -1.2039  0.3368  2.0009
21292SOL     OW75599   4.344   1.778   2.896  0.8913  0.0375  0.8184
21292SOL    HW175600   4.404   1.851   2.880  0.9694  0.5112  3.0147
21292SOL    HW275601   4.262   1.820   2.922 -0.4003 -0.6047 -1.8520
21293SOL     OW75602   7.900   0.932   2.394 -0.0246  0.1763 -0.0572
21293SOL    HW175603   7.846   0.909   2.469 -0.1071  0.2305 -0.0999
21293SOL    HW275604   7.844   0.915   2.318  1.0410 -2.9017 -0.3156
21294SOL     OW75605   3.132   6.675   6.993 -0.0243  0.1652 -0.2129
21294SOL    HW175606   3.089   6.599   6.955  2.7430 -1.5498 -0.1580
21294SOL    HW275607   3.134   6.658   7.087  1.0894  0.0145 -0.2532
21295SOL     OW75608  10.350  11.100   8.046 -0.4633 -0.0607 -0.5332
21295SOL    HW175609  10.278  11.054   8.090 -0.7491 -1.0373 -1.9302
21295SOL    HW275610  10.420  11.035   8.039  0.0441  0.4644 -0.4080
21296SOL     OW75611   1.085   7.994   5.155  0.3177  0.4872 -0.0307
21296SOL    HW175612   1.061   8.026   5.242 -0.2718  2.2814 -0.7943
21296SOL    HW275613   1.028   8.042   5.096 -0.4185 -1.8622 -1.3531
21297SOL     OW75614   9.009   4.627   1.648  0.2907 -0.2848 -0.1856
21297SOL    HW175615   8.968   4.562   1.591 -0.1528 -0.6083  0.4928
21297SOL    HW275616   8.993   4.595   1.737  0.0104  0.7963  0.1638
21298SOL     OW75617   9.707   5.633   9.240  0.2853  0.1226  0.2540
21298SOL    HW175618   9.678   5.684   9.165  1.2037 -0.1980 -0.3285
21298SOL    HW275619   9.738   5.551   9.203  1.4163  0.2387  0.9059
21299SOL     OW75620  11.419   3.927   6.964 -0.1450  0.1135 -0.3101
21299SOL    HW175621  11.483   3.904   7.032 -1.7124 -1.8002  0.5940
21299SOL    HW275622  11.380   4.009   6.996 -0.1376 -0.2121  0.5814
21300SOL     OW75623   6.508  11.139   9.747  0.0335  0.4930  0.0478
21300SOL    HW175624   6.581  11.187   9.785 -0.5160  0.5935  0.9977
21300SOL    HW275625   6.473  11.198   9.680  0.7600  0.4715 -0.3705
21301SOL     OW75626  11.916   6.451   9.150  0.4759 -0.0514  0.0599
21301SOL    HW175627  11.952   6.495   9.072  1.0175 -0.0938  0.2806
21301SOL    HW275628  11.834   6.497   9.167  0.9360  0.7545  0.1702
21302SOL     OW75629   4.666   7.541   4.325  0.1299  0.2568 -0.4151
21302SOL    HW175630   4.590   7.554   4.381  0.8271  0.8378  0.4216
21302SOL    HW275631   4.631   7.541   4.236 -1.0096 -0.8270  0.0172
21303SOL     OW75632   1.761   2.828   1.006 -0.3069 -0.0726  0.2248
21303SOL    HW175633   1.767   2.914   0.966  0.1946 -0.8536 -1.4908
21303SOL    HW275634   1.723   2.844   1.093 -1.2386  1.7339 -0.4628
21304SOL     OW75635   4.202  10.684   2.798  0.0536  0.7760 -0.0341
21304SOL    HW175636   4.265  10.631   2.846  0.2182 -0.2148 -1.2980
21304SOL    HW275637   4.247  10.709   2.718 -0.9446  0.5579 -0.6846
21305SOL     OW75638   6.586   0.026   1.907 -0.0516  0.1737 -0.1094
21305SOL    HW175639   6.682   0.027   1.908 -0.0141  1.5557 -1.1830
21305SOL    HW275640   6.563   0.038   1.815 -1.2334  1.1121  0.2727
21306SOL     OW75641  11.748   6.714   9.936 -0.2060 -0.3977  0.3152
21306SOL    HW175642  11.716   6.718  10.026  1.6357  1.3358  0.9778
21306SOL    HW275643  11.766   6.805   9.914  1.3895 -0.9898 -1.0217
21307SOL     OW75644   4.295   9.024   2.960 -0.7314 -0.3746  0.1043
21307SOL    HW175645   4.359   9.059   2.897 -0.4812  1.0517  1.0858
21307SOL    HW275646   4.274   9.099   3.016 -1.4330 -1.4370  1.3107
21308SOL     OW75647  10.240   9.189   8.921 -0.4766 -0.4400  0.1775
21308SOL    HW175648  10.252   9.280   8.893 -1.4473 -0.5021 -0.4747
21308SOL    HW275649  10.328   9.161   8.948  0.3281 -0.0363 -1.8100
21309SOL     OW75650  11.366   6.992   7.387 -0.4831  0.3849  0.1808
21309SOL    HW175651  11.412   7.073   7.364  0.7585 -0.7637 -1.6295
21309SOL    HW275652  11.422   6.922   7.353 -2.6099 -1.1623 -0.3433
21310SOL     OW75653   8.931   4.423   1.480 -0.0260 -0.7403  0.0106
21310SOL    HW175654   9.011   4.437   1.429  0.5876  0.2242  1.1719
21310SOL    HW275655   8.861   4.422   1.415  0.5008  2.2975 -0.7806
21311SOL     OW75656   1.077   8.575   7.350  0.3197 -0.2644 -0.4926
21311SOL    HW175657   1.072   8.609   7.261 -1.5281  0.2993 -0.2221
21311SOL    HW275658   1.030   8.492   7.346  0.8933 -0.6076 -0.1931
21312SOL     OW75659   7.444   6.802   4.533  0.1084  0.4426 -0.0725
21312SOL    HW175660   7.463   6.727   4.476  1.2736  1.1876 -0.7052
21312SOL    HW275661   7.509   6.795   4.603 -0.1406  0.5538  0.1685
21313SOL     OW75662   3.366   3.437  10.954 -0.0350 -0.4796  0.2713
21313SOL    HW175663   3.273   3.423  10.972 -0.2129  1.6445  1.4315
21313SOL    HW275664   3.409   3.423  11.039  0.4890 -0.0133  0.0904
21314SOL     OW75665  10.175   6.692   8.703 -0.1219 -0.5066  0.1453
21314SOL    HW175666  10.188   6.744   8.782 -1.2693 -0.7989  0.5446
21314SOL    HW275667  10.195   6.602   8.730 -2.6348 -0.9629  0.7626
21315SOL     OW75668   3.717   8.976   8.518 -0.0752 -0.2372 -0.1580
21315SOL    HW175669   3.776   8.904   8.538 -0.4341  0.0062  2.0251
21315SOL    HW275670   3.632   8.934   8.503  0.0977 -0.3875 -0.7488
21316SOL     OW75671   8.331   4.698   6.609 -0.2004  0.2117 -0.2470
21316SOL    HW175672   8.333   4.656   6.523  0.7010  0.0092 -0.1412
21316SOL    HW275673   8.239   4.699   6.633 -0.3256 -0.9972 -0.6066
21317SOL     OW75674  10.833   1.373  11.282  0.0275  0.1041 -0.5791
21317SOL    HW175675  10.765   1.440  11.285 -1.0988 -1.0485  0.3899
21317SOL    HW275676  10.891   1.395  11.355 -0.4406 -0.0562 -0.1522
21318SOL     OW75677   2.451   6.990   1.796 -0.4817 -0.0232 -0.6727
21318SOL    HW175678   2.362   6.968   1.768 -0.2920  0.5017 -1.7677
21318SOL    HW275679   2.475   7.066   1.742  0.4425  0.1648 -0.0294
21319SOL     OW75680   3.391  11.921  11.562 -0.1777 -0.1206 -0.1430
21319SOL    HW175681   3.361  11.923  11.653 -0.4775 -0.3118 -0.2362
21319SOL    HW275682   3.340  11.851  11.521 -1.9015  1.6086 -1.0982
21320SOL     OW75683   3.225   5.819  11.133  0.4736  0.2104 -0.1161
21320SOL    HW175684   3.296   5.876  11.104  1.8858 -0.9832  0.8006
21320SOL    HW275685   3.230   5.743  11.076  0.2962 -0.1402  0.3298
21321SOL     OW75686   2.275  10.577  11.774 -0.3363  0.0789 -0.4842
21321SOL    HW175687   2.312  10.490  11.759 -2.1823 -0.9187  0.4350
21321SOL    HW275688   2.272  10.586  11.869  1.4160  1.9247 -0.5164
21322SOL     OW75689   4.154   2.491   2.402  0.1235  0.0103 -0.1032
21322SOL    HW175690   4.243   2.456   2.395  0.6623  1.4330 -0.7796
21322SOL    HW275691   4.166   2.584   2.420 -1.2470  0.1433  0.2583
21323SOL     OW75692   1.850   7.591   0.264 -0.1777 -0.0157  0.5245
21323SOL    HW175693   1.819   7.546   0.343 -1.9644  0.8452  0.3603
21323SOL    HW275694   1.827   7.532   0.192  3.8225 -2.0948  0.6607
21324SOL     OW75695  10.156   7.415   7.795 -0.2445  0.0294 -0.2516
21324SOL    HW175696  10.073   7.371   7.810 -1.2178  1.0852 -2.1903
21324SOL    HW275697  10.132   7.499   7.755  1.7408  0.4299 -0.7132
21325SOL     OW75698   8.503   8.931   2.075 -0.1923  0.5150  0.1699
21325SOL    HW175699   8.545   8.879   2.143 -1.0148  1.7296  1.6728
21325SOL    HW275700   8.558   8.919   1.998  1.1484 -0.3746  1.2233
21326SOL     OW75701   0.900   5.979   3.229  0.1037  0.5776 -0.2922
21326SOL    HW175702   0.959   5.981   3.153  1.0706  0.0028  0.4139
21326SOL    HW275703   0.841   5.906   3.212  0.8907 -0.1188 -0.1005
21327SOL     OW75704   7.726   9.692   8.701  0.1750 -0.1860 -0.2419
21327SOL    HW175705   7.789   9.697   8.629  3.6120  2.4794  2.5419
21327SOL    HW275706   7.669   9.768   8.689  2.5600  1.9748  1.1183
21328SOL     OW75707   8.554   8.218  11.600 -0.4888  0.7285 -0.2101
21328SOL    HW175708   8.644   8.187  11.595 -0.7988 -0.3033  0.2171
21328SOL    HW275709   8.536   8.255  11.514 -0.4119 -1.2663 -1.1438
21329SOL     OW75710   1.935   1.490   9.323 -0.1492  0.0887 -0.1278
21329SOL    HW175711   1.927   1.585   9.317  2.5495  0.4247  0.3687
21329SOL    HW275712   1.889   1.458   9.246 -0.8198  1.8252 -0.4941
21330SOL     OW75713   2.085   5.357   3.988  0.0308  0.0316  0.8050
21330SOL    HW175714   2.130   5.275   4.008  0.1198 -0.1759 -0.2170
21330SOL    HW275715   2.015   5.332   3.929  1.2328  0.9278 -1.0821
21331SOL     OW75716   8.728   3.409   0.695 -0.8224  0.6208 -0.3155
21331SOL    HW175717   8.769   3.394   0.610 -0.3506  1.5102 -0.2502
21331SOL    HW275718   8.635   3.396   0.680 -0.7975  1.3263 -1.0973
21332SOL     OW75719   2.738   7.713   7.439 -0.2916 -0.0151  0.2727
21332SOL    HW175720   2.796   7.757   7.501  0.2838  0.7671 -0.7901
21332SOL    HW275721   2.650   7.741   7.463  0.1226  4.1447 -2.0324
21333SOL     OW75722   4.496   4.511   6.077 -0.1582 -0.1851  0.0224
21333SOL    HW175723   4.540   4.428   6.092  0.2886  0.4021  2.2460
21333SOL    HW275724   4.414   4.505   6.125  0.3032  0.9831  1.0113
21334SOL     OW75725   2.492   4.026   7.747  0.1848  0.2480  0.5793
21334SOL    HW175726   2.482   4.120   7.733 -1.2034 -0.0029 -0.3214
21334SOL    HW275727   2.419   4.003   7.805  1.5313 -0.0060  2.2384
21335SOL     OW75728   2.086   4.014   6.165  0.2963  0.0175  0.1351
21335SOL    HW175729   2.126   4.085   6.216 -0.2440 -0.5914  1.4534
21335SOL    HW275730   2.021   3.976   6.224 -0.6182 -0.4938 -1.1528
21336SOL     OW75731  11.635   0.492   0.912  0.1443 -0.4431 -0.7992
21336SOL    HW175732  11.611   0.581   0.939 -2.3901 -1.2544 -0.1721
21336SOL    HW275733  11.714   0.472   0.963 -0.7733  0.4839  1.0804
21337SOL     OW75734  11.513   7.717   7.815  0.1311  0.0146  0.4993
21337SOL    HW175735  11.471   7.786   7.763 -1.0717 -0.0437  1.3514
21337SOL    HW275736  11.460   7.640   7.801  1.8795 -0.9907 -1.0096
21338SOL     OW75737   3.262   7.020   4.968  0.4837  0.2501 -0.0444
21338SOL    HW175738   3.310   6.937   4.969 -2.0790 -1.3902 -1.9005
21338SOL    HW275739   3.182   7.002   5.017 -0.3348  1.4718 -0.8734
21339SOL     OW75740   5.114  10.487   2.108  0.0053  0.1748  0.0409
21339SOL    HW175741   5.141  10.455   2.022  0.1471 -0.5470  0.3426
21339SOL    HW275742   5.051  10.557   2.090  0.7798  0.7077 -0.6542
21340SOL     OW75743   6.752   1.487   9.593  0.5427  0.0971 -0.3512
21340SOL    HW175744   6.678   1.468   9.651 -0.6714  0.2306 -1.7841
21340SOL    HW275745   6.721   1.559   9.538  0.7414 -1.5096 -2.7103
21341SOL     OW75746  11.279   9.898   2.441 -0.0491  0.9690  0.0252
21341SOL    HW175747  11.271   9.971   2.380 -1.0667 -0.0969 -1.1726
21341SOL    HW275748  11.356   9.850   2.410 -0.0259  0.9243  0.1497
21342SOL     OW75749   8.485   6.466   6.739  0.3951 -0.7077 -0.1353
21342SOL    HW175750   8.444   6.541   6.783  0.8729 -0.3191 -0.3375
21342SOL    HW275751   8.490   6.399   6.807 -2.3758 -1.5070 -0.6012
21343SOL     OW75752   5.385   1.799   2.470 -0.4117  0.6941 -0.0231
21343SOL    HW175753   5.358   1.726   2.414 -0.8520  0.6436  0.2460
21343SOL    HW275754   5.303   1.842   2.495 -0.1986  0.9125  0.3146
21344SOL     OW75755   7.866   3.560  11.469  0.7174  0.3616  0.8064
21344SOL    HW175756   7.842   3.525  11.555 -1.2432  0.8650  0.5223
21344SOL    HW275757   7.923   3.634  11.488 -1.6785  2.0773  1.8983
21345SOL     OW75758  11.485   0.076   6.621 -0.2700 -0.5100 -0.2020
21345SOL    HW175759  11.448   0.131   6.552 -0.9680  1.1696  1.4161
21345SOL    HW275760  11.457  -0.012   6.598 -0.0873 -0.0769 -2.2833
21346SOL     OW75761   6.443   1.482   8.148 -0.2998  0.0051  0.2718
21346SOL    HW175762   6.503   1.556   8.145  1.0451 -0.9943 -3.2482
21346SOL    HW275763   6.413   1.478   8.239  2.9671  2.1204  1.6183
21347SOL     OW75764   4.336   7.749  10.714  0.1170  0.1417  0.3123
21347SOL    HW175765   4.345   7.747  10.809 -0.6221 -1.8169  0.3687
21347SOL    HW275766   4.299   7.664  10.691  1.2610  0.1613 -1.8391
21348SOL     OW75767   6.650   0.802  10.224 -0.4702  0.3760  0.6069
21348SOL    HW175768   6.648   0.794  10.128 -0.7556 -0.9379  0.7059
21348SOL    HW275769   6.702   0.727  10.253 -2.6386 -0.8099  1.6225
21349SOL     OW75770  11.379   6.208  10.665 -0.0590 -0.1988 -0.0977
21349SOL    HW175771  11.449   6.192  10.728  0.0306 -0.0377 -0.1549
21349SOL    HW275772  11.401   6.292  10.626 -0.9755  0.4849  0.8044
21350SOL     OW75773   9.529   0.995   0.943 -0.1452  0.0489  0.1756
21350SOL    HW175774   9.617   0.971   0.916 -0.2622 -0.6537  0.3773
21350SOL    HW275775   9.539   1.023   1.034  0.1152  1.5897 -0.2953
21351SOL     OW75776   0.906   8.260   7.082  0.4275 -0.0796 -0.7093
21351SOL    HW175777   0.916   8.310   7.163 -0.9971  0.7358 -1.0021
21351SOL    HW275778   0.835   8.198   7.101  0.4430 -0.2370 -1.1673
21352SOL     OW75779   8.346   1.380   4.769 -0.1924  0.2607  0.1643
21352SOL    HW175780   8.294   1.412   4.695 -0.1928 -0.2165 -0.0453
21352SOL    HW275781   8.319   1.289   4.779  1.5815 -0.4313 -0.8347
21353SOL     OW75782   1.446   3.887  10.081 -0.4744 -0.0234  0.2916
21353SOL    HW175783   1.373   3.826  10.072 -1.5503  1.2235  0.1939
21353SOL    HW275784   1.479   3.898   9.991 -1.1050  0.5072  0.1213
21354SOL     OW75785   0.685   8.341   7.964 -0.7604 -0.0111  0.1372
21354SOL    HW175786   0.691   8.256   8.006 -0.0055  0.7266  1.5808
21354SOL    HW275787   0.776   8.362   7.939 -1.0112  0.1554 -0.6931
21355SOL     OW75788  10.853   2.276   9.246 -0.0534  0.3187  0.4096
21355SOL    HW175789  10.784   2.216   9.216  0.2457 -0.0937  0.5444
21355SOL    HW275790  10.806   2.345   9.292 -0.5035  0.8055 -0.7294
21356SOL     OW75791   4.898   0.040   9.234 -0.2296 -0.2972  0.2054
21356SOL    HW175792   4.874  -0.045   9.271  2.4085 -0.6329  1.3428
21356SOL    HW275793   4.903   0.024   9.139  1.9992 -1.9686  0.5354
21357SOL     OW75794   3.539   0.076   6.305  0.3799 -0.4642  0.0455
21357SOL    HW175795   3.602   0.014   6.268  2.0948  1.2471 -0.0200
21357SOL    HW275796   3.501   0.119   6.228 -1.3917 -1.9006  0.0533
21358SOL     OW75797   6.849   1.008   0.104  0.2885  0.4303 -0.2632
21358SOL    HW175798   6.768   1.032   0.059  0.5971  0.7698 -0.6537
21358SOL    HW275799   6.903   1.087   0.097  0.2033  0.6265  1.0388
21359SOL     OW75800   3.802   9.764   4.931  0.2590 -0.1866 -0.1325
21359SOL    HW175801   3.797   9.798   4.841  1.1383  1.2488  0.3256
21359SOL    HW275802   3.891   9.730   4.939  0.3844  0.2519  0.3738
21360SOL     OW75803  10.642   0.035   7.216 -0.0032 -0.0475  0.7024
21360SOL    HW175804  10.706   0.044   7.146  0.4950  0.6251  1.2233
21360SOL    HW275805  10.695   0.031   7.296 -0.5976  0.1024  1.1077
21361SOL     OW75806   6.075   2.630  10.671  1.1653 -0.3977 -0.0525
21361SOL    HW175807   6.132   2.558  10.642  1.4232 -0.8882  1.5847
21361SOL    HW275808   5.997   2.587  10.705  1.5831  0.0396  1.5119
21362SOL     OW75809   8.309   8.962   9.274  0.0139 -0.4484 -0.0001
21362SOL    HW175810   8.301   8.867   9.269 -1.2402 -0.2989 -1.8645
21362SOL    HW275811   8.369   8.985   9.203 -0.8146  0.2513 -0.4870
21363SOL     OW75812   1.919   1.969   6.205 -0.6183  0.0350 -0.5632
21363SOL    HW175813   1.944   2.045   6.257 -2.1007  0.1158  0.0829
21363SOL    HW275814   1.836   1.993   6.165 -1.7570 -1.6685  0.6638
21364SOL     OW75815   4.825   0.625   5.216  0.0656  0.1431 -0.3473
21364SOL    HW175816   4.920   0.633   5.210 -0.0604  1.0700 -1.2654
21364SOL    HW275817   4.794   0.715   5.225 -0.6108 -0.2686  2.0869
21365SOL     OW75818   6.957   4.518   1.713  0.4843  0.4953  0.1024
21365SOL    HW175819   6.974   4.516   1.619  1.3027 -0.9611  0.2508
21365SOL    HW275820   7.043   4.526   1.754  0.1325  1.1946  0.7318
21366SOL     OW75821   6.307   6.774   9.585  0.3080 -0.2215 -0.7544
21366SOL    HW175822   6.328   6.709   9.652 -0.8057 -0.0066 -0.1801
21366SOL    HW275823   6.227   6.743   9.544 -1.1134  1.5071  0.5613
21367SOL     OW75824   0.538   3.039   0.455  0.1829 -0.1393 -0.1635
21367SOL    HW175825   0.555   3.133   0.453  0.0520 -0.0760  1.0353
21367SOL    HW275826   0.446   3.032   0.482  0.0855 -0.6063 -0.6043
21368SOL     OW75827  10.017   4.045  11.932 -0.5837 -0.4142 -0.0845
21368SOL    HW175828  10.078   4.103  11.977  0.2619 -0.0534 -1.6124
21368SOL    HW275829  10.054   3.957  11.945 -0.7808 -0.4020  0.5773
21369SOL     OW75830   1.028   2.183   0.433  0.2136 -0.0269  0.0306
21369SOL    HW175831   1.051   2.090   0.440  0.7921  0.1625  0.7845
21369SOL    HW275832   0.968   2.199   0.505  0.9174  0.4101  0.5345
21370SOL     OW75833  10.487   5.141   9.955  0.2200  0.2432 -0.0569
21370SOL    HW175834  10.522   5.130  10.043  0.7994  0.4196 -0.2574
21370SOL    HW275835  10.528   5.221   9.923 -0.5965  0.6153 -0.1964
21371SOL     OW75836   8.761   5.370   5.915  0.1893 -0.2935 -0.4409
21371SOL    HW175837   8.812   5.378   5.834  0.6856 -0.3181 -0.1397
21371SOL    HW275838   8.728   5.458   5.931  3.8982  0.9604  1.7427
21372SOL     OW75839   8.170   8.120   1.705 -0.3395 -0.0932 -0.2751
21372SOL    HW175840   8.086   8.159   1.730 -0.5327 -0.4251 -0.3983
21372SOL    HW275841   8.231   8.148   1.773 -0.7677 -0.6502  0.3476
21373SOL     OW75842   6.470   0.425   2.848 -0.2262 -0.3138 -0.1061
21373SOL    HW175843   6.521   0.352   2.812 -1.1039 -0.8983 -0.1869
21373SOL    HW275844   6.530   0.468   2.909  0.3974 -0.9219 -0.2755
21374SOL     OW75845   5.092   4.871   5.924  0.4284  0.1979  0.1709
21374SOL    HW175846   5.138   4.927   5.861  0.6870 -0.4987 -0.2777
21374SOL    HW275847   5.160   4.844   5.985  0.4390 -0.1197  0.0229
21375SOL     OW75848   8.474  11.801  10.475  0.7371 -0.0595 -0.2978
21375SOL    HW175849   8.529  11.762  10.544 -1.1691  0.1623  1.4543
21375SOL    HW275850   8.464  11.892  10.502  0.3481  0.1518 -1.1492
21376SOL     OW75851  10.403   1.112   3.669  0.0342  0.3752 -0.0290
21376SOL    HW175852  10.369   1.191   3.629  0.0826  1.2502  1.5668
21376SOL    HW275853  10.493   1.135   3.694 -0.2171  0.1187  1.1778
21377SOL     OW75854   2.748   1.415   1.689  0.5054  0.0484 -0.0023
21377SOL    HW175855   2.699   1.421   1.607 -0.5343 -0.2188  0.5766
21377SOL    HW275856   2.716   1.334   1.730  2.0943 -0.6236 -0.0087
21378SOL     OW75857  11.696   2.660   2.025  0.1105 -0.0903 -0.5895
21378SOL    HW175858  11.618   2.710   2.050  0.6709  1.0632 -1.0727
21378SOL    HW275859  11.706   2.594   2.094 -0.9487  0.1260 -0.2172
21379SOL     OW75860   0.301   4.269   9.035 -0.2627  0.0477 -0.0792
21379SOL    HW175861   0.248   4.328   9.088  1.1386  1.6086 -0.3364
21379SOL    HW275862   0.245   4.246   8.961 -1.5117 -0.5350  1.0045
21380SOL     OW75863   7.332   3.613   3.265 -0.2212  0.3028 -0.0575
21380SOL    HW175864   7.381   3.661   3.199  0.0385 -1.0060 -0.8589
21380SOL    HW275865   7.396   3.556   3.307 -0.7249 -0.1868  0.0688
21381SOL     OW75866   2.597   8.834   2.437 -0.0171  0.0199 -0.1332
21381SOL    HW175867   2.624   8.800   2.522 -2.0897 -0.0853  0.5377
21381SOL    HW275868   2.678   8.838   2.386  0.9281 -2.0324  1.0874
21382SOL     OW75869   9.663   1.960   2.060 -0.1715 -0.2568  0.8066
21382SOL    HW175870   9.650   1.901   2.135 -2.5009 -0.9513 -0.0313
21382SOL    HW275871   9.728   2.023   2.090  0.6843 -1.8605  2.5826
21383SOL     OW75872  10.552  10.792   4.318 -0.3695 -0.5294  0.2486
21383SOL    HW175873  10.646  10.794   4.303  0.0691 -1.8990  2.4770
21383SOL    HW275874  10.515  10.776   4.231  1.5518 -1.6880 -0.4249
21384SOL     OW75875   7.476   4.727   2.306  0.2364 -0.2375 -0.0000
21384SOL    HW175876   7.388   4.757   2.328 -0.5643 -1.2762 -1.6091
21384SOL    HW275877   7.484   4.742   2.212  2.1929  0.7848  0.2690
21385SOL     OW75878   3.995   1.972   7.132 -0.0006  0.0364 -0.0762
21385SOL    HW175879   4.024   2.053   7.175 -0.3162 -0.6202  1.4393
21385SOL    HW275880   3.900   1.975   7.138  0.0131 -0.7600  0.6015
21386SOL     OW75881   7.577   1.696  11.705  0.1500 -0.4514 -0.1853
21386SOL    HW175882   7.661   1.657  11.727  1.3146  0.5749 -2.4999
21386SOL    HW275883   7.576   1.779  11.753  0.9462 -0.0029 -0.9123
21387SOL     OW75884   7.344   6.747   1.716 -0.0365  0.6509  0.0538
21387SOL    HW175885   7.273   6.709   1.665  1.3116 -1.6671 -0.2477
21387SOL    HW275886   7.367   6.827   1.669 -1.5111  0.7222 -0.6108
21388SOL     OW75887   3.975   1.426   3.182 -0.1278 -0.5306  0.1330
21388SOL    HW175888   3.979   1.399   3.090  0.0956  1.6580 -0.5390
21388SOL    HW275889   3.889   1.396   3.212 -1.4803  1.2457 -1.6764
21389SOL     OW75890   4.339  10.507   7.137 -0.2011 -0.1781 -0.5952
21389SOL    HW175891   4.372  10.524   7.049 -0.0684 -2.0994 -0.9699
21389SOL    HW275892   4.255  10.553   7.140  0.0718  0.4116 -1.5027
21390SOL     OW75893   8.671   7.335   0.115 -0.0847  0.5352  0.5405
21390SOL    HW175894   8.701   7.245   0.098 -0.0745  0.5973  0.2101
21390SOL    HW275895   8.620   7.358   0.037  0.8744  1.2305  0.0949
21391SOL     OW75896  10.193   6.163  11.523  0.2074 -0.0095 -0.1238
21391SOL    HW175897  10.260   6.230  11.536  1.0844 -1.0325  0.8353
21391SOL    HW275898  10.127   6.183  11.589 -0.1867  0.6931 -0.7238
21392SOL     OW75899   6.956   1.210  11.802  0.0060  0.1540 -0.7116
21392SOL    HW175900   6.898   1.217  11.877  0.2919  1.8927 -0.6214
21392SOL    HW275901   7.044   1.206  11.840  0.1561  1.0875 -0.9420
21393SOL     OW75902  10.750   1.866   8.103  1.1160 -0.0701  0.4298
21393SOL    HW175903  10.714   1.954   8.113  0.4307  0.2216 -3.2857
21393SOL    HW275904  10.795   1.849   8.186  0.1084  3.1803  1.8020
21394SOL     OW75905   4.095   3.360  10.654  0.0468 -0.1956  0.1793
21394SOL    HW175906   4.050   3.278  10.670  0.8548 -0.7791 -0.4555
21394SOL    HW275907   4.076   3.380  10.562  0.7264 -0.2401  0.0223
21395SOL     OW75908   9.490   2.025   1.790 -0.0633 -0.1718  0.3002
21395SOL    HW175909   9.482   1.954   1.854  1.7274  1.9595  3.1190
21395SOL    HW275910   9.433   2.094   1.824  0.0887  0.6475 -1.0415
21396SOL     OW75911   7.261   8.424   6.009  0.0394  0.8320 -0.0868
21396SOL    HW175912   7.257   8.513   6.044 -1.6355  0.9912 -0.5937
21396SOL    HW275913   7.221   8.370   6.077  0.5839  0.5201 -0.0021
21397SOL     OW75914   4.007   1.114   4.597 -0.2259  0.3905  0.1285
21397SOL    HW175915   3.924   1.158   4.582 -0.2090  0.3747 -0.0194
21397SOL    HW275916   4.012   1.101   4.691 -0.6946 -0.1923  0.0776
21398SOL     OW75917   5.161  11.609   5.871  0.5075  0.4733  0.3086
21398SOL    HW175918   5.081  11.644   5.831  0.0578 -0.8784 -0.0271
21398SOL    HW275919   5.224  11.607   5.800  1.6274  3.6514  1.0516
21399SOL     OW75920   5.929   0.354   0.740  0.1559  0.2933  0.0553
21399SOL    HW175921   6.011   0.383   0.700 -0.3926  0.2922 -1.1433
21399SOL    HW275922   5.868   0.346   0.666 -0.7510 -0.3085  0.8354
21400SOL     OW75923   4.038  10.416   3.919 -0.0938 -0.2253 -0.5915
21400SOL    HW175924   4.102  10.395   3.851  0.2214 -1.0645 -0.0529
21400SOL    HW275925   4.087  10.411   4.001 -1.0329 -1.9383 -0.0619
21401SOL     OW75926   6.072   1.176   2.602  0.3083  0.0263 -0.0842
21401SOL    HW175927   6.123   1.146   2.676 -0.3953 -0.5436  0.1784
21401SOL    HW275928   5.999   1.224   2.641 -0.7316 -1.3006 -0.3386
21402SOL     OW75929   3.481   1.581  11.211 -0.1414  0.3218 -0.7574
21402SOL    HW175930   3.419   1.552  11.277  1.1014  1.0949  0.8426
21402SOL    HW275931   3.490   1.507  11.151  1.7763 -2.1831  2.2780
21403SOL     OW75932  11.075   4.408  11.712  0.3680 -0.0184 -0.4379
21403SOL    HW175933  11.010   4.349  11.676 -0.5474  0.7875 -0.1372
21403SOL    HW275934  11.112   4.452  11.636  1.0798 -0.9841 -0.6653
21404SOL     OW75935   3.841   8.851   0.179  0.3709 -0.1305  0.2510
21404SOL    HW175936   3.876   8.940   0.179  0.1162 -0.0295  0.3556
21404SOL    HW275937   3.783   8.848   0.103 -0.1601  0.0104  0.6452
21405SOL     OW75938  10.692   6.067   9.340 -0.3571  0.1136  0.3533
21405SOL    HW175939  10.786   6.049   9.343 -0.4767 -0.3800  1.6815
21405SOL    HW275940  10.675   6.090   9.249  0.8802 -0.7127 -0.1119
21406SOL     OW75941   1.893   5.655   2.163  0.5966 -0.1932 -0.6870
21406SOL    HW175942   1.892   5.724   2.097  1.3801 -1.3638 -1.9722
21406SOL    HW275943   1.975   5.609   2.149  1.0046 -0.2003  1.4309
21407SOL     OW75944   7.172   7.692  10.005 -0.0524  0.5975  0.1203
21407SOL    HW175945   7.120   7.618  10.037  0.7629  0.1403  0.4212
21407SOL    HW275946   7.228   7.654   9.937  0.2228  0.9766  0.1291
21408SOL     OW75947   6.568   5.223   5.465 -0.2039  0.1109  0.3218
21408SOL    HW175948   6.520   5.194   5.387 -0.0683 -0.0693  0.3065
21408SOL    HW275949   6.654   5.184   5.456  0.5322  1.8449 -0.5494
21409SOL     OW75950   7.493   4.023   2.882 -0.3843 -0.1409 -0.1940
21409SOL    HW175951   7.441   3.973   2.946 -3.2062  2.4032 -0.2626
21409SOL    HW275952   7.518   4.103   2.928 -1.1533  1.0511 -1.7324
21410SOL     OW75953  10.170   9.707   8.981  0.7604 -0.2495 -0.4876
21410SOL    HW175954  10.164   9.665   8.895  0.1514 -0.5956 -0.2786
21410SOL    HW275955  10.262   9.697   9.006  0.9546 -0.0996 -1.1172
21411SOL     OW75956   1.672   6.683   8.453 -0.0338  0.5133 -0.1136
21411SOL    HW175957   1.674   6.677   8.549  1.1711  0.9028 -0.1094
21411SOL    HW275958   1.599   6.625   8.428  1.0700 -1.4291  0.8957
21412SOL     OW75959   6.308   9.400  11.040  0.0708  0.0922 -0.6255
21412SOL    HW175960   6.336   9.362  10.957  1.1714  0.3124 -0.3750
21412SOL    HW275961   6.341   9.490  11.037  0.5781 -0.0482  0.2449
21413SOL     OW75962   5.634   0.071   6.242  0.0527  0.4651 -0.1432
21413SOL    HW175963   5.603   0.155   6.276 -0.5543  0.0768  0.2806
21413SOL    HW275964   5.583   0.056   6.163  0.0621  0.4274 -0.1423
21414SOL     OW75965   2.794  10.397   7.444 -0.0817  0.0378 -0.0872
21414SOL    HW175966   2.715  10.345   7.428  0.1854 -0.8347  1.2723
21414SOL    HW275967   2.790  10.467   7.379 -1.2951 -0.7432 -0.9032
21415SOL     OW75968   2.213   3.155   2.650 -0.4500 -0.6805  0.1233
21415SOL    HW175969   2.206   3.211   2.572 -2.1936 -0.4508  0.3994
21415SOL    HW275970   2.172   3.073   2.624  0.8622 -1.3715  0.1648
21416SOL     OW75971   5.996   1.926  11.470  0.1668 -0.4003 -0.5396
21416SOL    HW175972   6.088   1.944  11.453  1.1853 -3.3834  0.9817
21416SOL    HW275973   5.986   1.936  11.565 -0.4523 -2.2272 -0.3634
21417SOL     OW75974   4.282   0.075   6.794  0.1424  0.0771  0.1838
21417SOL    HW175975   4.332   0.098   6.872  2.3367 -0.1692 -1.0674
21417SOL    HW275976   4.298   0.147   6.733 -1.1873  0.0511 -0.2290
21418SOL     OW75977   5.853   3.467   9.851  0.7360  0.0260 -0.0396
21418SOL    HW175978   5.944   3.448   9.827  0.5310  0.7056 -1.5073
21418SOL    HW275979   5.802   3.397   9.811  0.5955 -0.2430  0.6091
21419SOL     OW75980   9.539  11.854   4.140 -0.4111 -0.4639 -0.0423
21419SOL    HW175981   9.549  11.933   4.086 -0.2133 -1.9404 -2.3140
21419SOL    HW275982   9.602  11.792   4.103 -0.9168 -1.8665  1.3563
21420SOL     OW75983   0.212   5.799  11.739 -0.0313 -0.0024  0.0323
21420SOL    HW175984   0.270   5.849  11.681 -0.5210 -0.8662 -1.2676
21420SOL    HW275985   0.239   5.708  11.726  1.4305 -0.1067  2.9978
21421SOL     OW75986   5.239   9.740   7.742 -0.3537  0.0408 -0.0063
21421SOL    HW175987   5.259   9.649   7.764  1.2966  0.7264  1.5939
21421SOL    HW275988   5.297   9.760   7.669  3.2593  1.2029  2.8754
21422SOL     OW75989   9.222   6.498  10.102 -0.3942  0.1603 -0.4004
21422SOL    HW175990   9.238   6.464  10.190 -0.7583  0.7929 -0.0803
21422SOL    HW275991   9.144   6.451  10.072 -0.5903  0.3376 -0.1692
21423SOL     OW75992   6.949  11.634   4.413 -0.1228  0.2217 -0.2090
21423SOL    HW175993   6.882  11.593   4.468 -0.3836 -0.2655 -0.8869
21423SOL    HW275994   6.977  11.565   4.353  1.3799  0.2560  0.4121
21424SOL     OW75995   7.704   3.101   9.317 -0.8031  0.2086 -0.7183
21424SOL    HW175996   7.745   3.153   9.248 -0.0634 -0.1895 -0.5807
21424SOL    HW275997   7.651   3.036   9.270 -2.4907  1.6282 -0.9028
21425SOL     OW75998   8.930   9.819  10.608 -0.3629  0.4704 -0.2586
21425SOL    HW175999   8.840   9.850  10.604  0.1138  1.8607 -0.6068
21425SOL    HW276000   8.973   9.861  10.533 -0.0405 -2.2884 -1.7810
21426SOL     OW76001   8.801   3.966   5.993 -0.0023  0.1564 -0.5014
21426SOL    HW176002   8.865   3.896   5.983 -1.2323 -0.7653 -2.5462
21426SOL    HW276003   8.816   4.023   5.917 -0.4123  0.9279 -0.0167
21427SOL     OW76004   2.351   0.216   7.408 -0.0530 -0.5289  0.3959
21427SOL    HW176005   2.299   0.168   7.472  1.2119 -2.3758  0.1028
21427SOL    HW276006   2.395   0.148   7.357  0.0798  0.9148 -1.5117
21428SOL     OW76007   5.409   3.284   7.520  0.5977 -0.4587  0.8446
21428SOL    HW176008   5.440   3.261   7.607  1.9044  1.7034  1.0360
21428SOL    HW276009   5.416   3.380   7.517 -1.8244 -0.2414 -0.7594
21429SOL     OW76010   1.455   1.707   8.959  0.4860  0.5144 -0.7134
21429SOL    HW176011   1.389   1.680   8.895  0.2861  2.2664 -1.3104
21429SOL    HW276012   1.423   1.674   9.042 -0.2223 -0.1969 -1.2534
21430SOL     OW76013   8.814  11.934  10.129 -0.6918 -0.5380 -0.1660
21430SOL    HW176014   8.778  11.859  10.083 -1.9017  0.0819 -0.2717
21430SOL    HW276015   8.739  11.974  10.173  0.4494 -1.3662  2.7960
21431SOL     OW76016   6.844   8.249   0.798 -0.1608 -0.2405 -0.2751
21431SOL    HW176017   6.846   8.341   0.823 -0.5197 -0.1439 -0.5870
21431SOL    HW276018   6.935   8.221   0.802  0.2078  0.6082 -1.8870
21432SOL     OW76019   5.005   7.110   5.295 -0.1821 -0.9544 -0.0084
21432SOL    HW176020   5.011   7.054   5.217 -2.1571 -0.5328 -0.5131
21432SOL    HW276021   4.911   7.122   5.309  0.1632  0.7483  1.1562
21433SOL     OW76022  11.422   0.505   1.371  0.3572 -0.2436 -0.1705
21433SOL    HW176023  11.497   0.447   1.372  0.6133 -0.2781  4.6232
21433SOL    HW276024  11.347   0.448   1.390 -0.2742  0.2797 -1.0399
21434SOL     OW76025   8.136  10.094   6.456  0.0848 -0.1263 -0.4501
21434SOL    HW176026   8.102  10.016   6.413 -0.4576 -1.0911  1.5892
21434SOL    HW276027   8.199  10.060   6.520 -0.5429  1.0218  0.8356
21435SOL     OW76028   1.673   1.069   4.170  0.1647  0.2433 -0.4996
21435SOL    HW176029   1.671   1.042   4.078  1.6813 -0.9111 -0.2279
21435SOL    HW276030   1.599   1.129   4.178 -0.4308 -0.1661 -2.3015
21436SOL     OW76031   3.019   1.892  11.545  0.0649 -0.1210 -0.4813
21436SOL    HW176032   2.991   1.802  11.559  0.5311 -0.0924  0.7878
21436SOL    HW276033   3.030   1.928  11.633  0.2376  1.0683 -0.9610
21437SOL     OW76034  10.968   8.072   8.654 -0.0160  0.3397 -0.1778
21437SOL    HW176035  10.884   8.042   8.687 -0.1889  0.7217 -0.2640
21437SOL    HW276036  10.947   8.120   8.574  0.3307  0.0206 -0.4672
21438SOL     OW76037  11.722   3.288   8.535  0.3297 -0.1223 -0.2596
21438SOL    HW176038  11.762   3.309   8.620  0.7613  2.6543 -1.0321
21438SOL    HW276039  11.707   3.194   8.538 -1.1412  0.0607  3.5318
21439SOL     OW76040   6.384   4.258   9.924 -0.0634  0.1774  0.2347
21439SOL    HW176041   6.372   4.169   9.890  0.1272 -0.6013  2.0689
21439SOL    HW276042   6.344   4.315   9.859  0.2877 -1.2045 -1.2547
21440SOL     OW76043  11.713   8.700   1.183  0.6853 -0.1740 -0.2226
21440SOL    HW176044  11.622   8.726   1.168  0.1626 -1.6277  0.1420
21440SOL    HW276045  11.751   8.693   1.096  0.6331  1.0519 -0.3479
21441SOL     OW76046   8.067   4.716   0.967  0.0734 -0.3162 -0.4139
21441SOL    HW176047   7.993   4.723   1.027 -0.4786  0.4985 -1.1619
21441SOL    HW276048   8.131   4.662   1.013 -0.6828 -0.4064  0.5503
21442SOL     OW76049  10.115  10.999   3.527  0.6612 -0.0488  0.0634
21442SOL    HW176050  10.205  11.031   3.532  0.0746  1.4743  1.5702
21442SOL    HW276051  10.098  10.991   3.433  2.3529 -0.3842 -0.2537
21443SOL     OW76052   2.518   8.539   0.747  0.1948  0.8894  0.1319
21443SOL    HW176053   2.438   8.498   0.713  1.7383 -1.7190 -0.5891
21443SOL    HW276054   2.486   8.602   0.812 -2.3773 -1.2763  1.1422
21444SOL     OW76055  11.161   4.354   6.487 -0.3468  0.1372  0.1540
21444SOL    HW176056  11.172   4.309   6.403 -2.5273 -1.5687  0.6755
21444SOL    HW276057  11.218   4.307   6.548 -0.6633 -0.2751  0.1375
21445SOL     OW76058  10.117  10.775  11.937  0.3178  0.6234 -0.0618
21445SOL    HW176059  10.074  10.794  12.020  1.5723 -0.7632  0.9525
21445SOL    HW276060  10.124  10.860  11.893 -0.4142  1.3664  1.2159
21446SOL     OW76061   7.625   8.638   3.345  0.3162 -0.4902  0.3736
21446SOL    HW176062   7.680   8.589   3.283 -1.6071 -4.0787  1.2084
21446SOL    HW276063   7.687   8.681   3.403  2.1587  0.4918 -2.1452
21447SOL     OW76064   5.238   0.580   2.080  0.0025 -0.0050 -0.0067
21447SOL    HW176065   5.306   0.612   2.021 -0.5625 -0.5371 -0.9710
21447SOL    HW276066   5.170   0.545   2.022 -1.2415  0.7813  0.9090
21448SOL     OW76067   6.811   1.716   9.852  0.2506 -0.1443 -0.1665
21448SOL    HW176068   6.782   1.675   9.933 -0.1486  0.3976 -0.0288
21448SOL    HW276069   6.775   1.660   9.783 -0.0688 -0.1760  0.0228
21449SOL     OW76070   0.238   8.315   6.980 -0.5357 -0.2906  0.1042
21449SOL    HW176071   0.181   8.242   6.956 -0.8000 -0.2992  0.7579
21449SOL    HW276072   0.179   8.388   6.998 -0.2230  0.7715 -2.6431
21450SOL     OW76073  10.573   0.903   7.848 -0.1192 -0.4122  0.3241
21450SOL    HW176074  10.615   0.894   7.763 -0.4191 -1.0178  0.2403
21450SOL    HW276075  10.511   0.831   7.852 -0.2305 -0.2829  0.9838
21451SOL     OW76076   6.492   7.023   5.629 -0.9425  0.3560 -0.0751
21451SOL    HW176077   6.537   7.069   5.700 -0.1174  0.3593 -0.5878
21451SOL    HW276078   6.552   7.028   5.555 -0.7064 -1.7546 -0.0939
21452SOL     OW76079   1.952   8.530   9.294  0.4199 -0.5793 -0.4039
21452SOL    HW176080   2.008   8.481   9.234  3.0114  0.3443  1.0911
21452SOL    HW276081   1.931   8.611   9.247 -0.7039 -1.4203 -1.4137
21453SOL     OW76082   7.414   8.810   6.544 -0.9545  0.3265  0.4773
21453SOL    HW176083   7.341   8.767   6.588 -2.7226  1.6664 -0.9738
21453SOL    HW276084   7.423   8.762   6.461  0.6750 -0.5951  1.1429
21454SOL     OW76085   4.715   2.258   4.547 -0.3388  0.8839 -0.2794
21454SOL    HW176086   4.782   2.253   4.479  0.9821  0.0029  1.0226
21454SOL    HW276087   4.763   2.277   4.627 -1.5250 -0.5160  0.8303
21455SOL     OW76088  10.306   0.505  11.912  0.0614  0.2026 -0.2280
21455SOL    HW176089  10.381   0.558  11.886 -0.8223  0.3052 -2.8902
21455SOL    HW276090  10.236   0.569  11.927 -0.0370 -0.0195  0.2940
21456SOL     OW76091   8.136   4.609   8.650  0.3957  0.2138 -0.0855
21456SOL    HW176092   8.174   4.574   8.731 -0.9579 -1.3283 -0.0379
21456SOL    HW276093   8.078   4.538   8.619 -1.8174  2.0836 -0.5073
21457SOL     OW76094   7.940  10.496   0.187  0.0404  0.2351 -0.3598
21457SOL    HW176095   8.021  10.447   0.200 -0.7161 -0.8336  0.5313
21457SOL    HW276096   7.901  10.459   0.109 -0.3989 -0.4278  0.1616
21458SOL     OW76097   1.180   4.995   9.290 -0.3018 -0.6082 -0.1086
21458SOL    HW176098   1.107   5.022   9.346  0.2857  1.0152 -0.0780
21458SOL    HW276099   1.253   4.980   9.350 -0.1243 -0.4689 -0.2852
21459SOL     OW76100   3.060   4.378   4.408 -0.4445  0.0201 -0.3007
21459SOL    HW176101   3.064   4.319   4.333  1.4295  1.9840 -1.8776
21459SOL    HW276102   3.001   4.448   4.381  1.5616  1.6545 -0.7914
21460SOL     OW76103   8.536   5.432  10.355 -0.1496  0.2159 -0.7582
21460SOL    HW176104   8.558   5.524  10.342 -0.5871  0.6180  1.0868
21460SOL    HW276105   8.441   5.427  10.346  0.0426 -0.4673 -2.9059
21461SOL     OW76106   4.768   9.394   0.995 -0.3910 -0.1760  0.0976
21461SOL    HW176107   4.733   9.306   0.978  1.0776 -0.6461 -0.6331
21461SOL    HW276108   4.719   9.424   1.072  1.2229 -2.9577  2.4498
21462SOL     OW76109   8.104   6.638   0.219 -0.0112 -0.5311  0.1215
21462SOL    HW176110   8.033   6.671   0.164  0.7651  1.1423  0.0683
21462SOL    HW276111   8.163   6.712   0.229 -0.0440 -0.7766  3.1174
21463SOL     OW76112   6.826   0.004   5.951  0.7382  0.4967  0.2305
21463SOL    HW176113   6.831   0.085   6.001  2.3466 -0.4343  1.6695
21463SOL    HW276114   6.768  -0.052   6.002  0.8383  0.1988  0.0197
21464SOL     OW76115  11.103   2.414   8.020  0.3094  0.0608  0.1680
21464SOL    HW176116  11.123   2.366   8.101  1.6962 -0.0084 -0.2014
21464SOL    HW276117  11.173   2.391   7.960 -0.3181  0.6807 -0.8281
21465SOL     OW76118   2.141  11.018   2.111  0.4995 -0.4058 -0.2584
21465SOL    HW176119   2.073  11.064   2.062  0.1818  0.6029  1.0555
21465SOL    HW276120   2.205  11.086   2.133  0.8363 -0.9065  0.3549
21466SOL     OW76121   1.497   6.764  10.140 -0.2765  0.3152 -0.1784
21466SOL    HW176122   1.504   6.857  10.119  0.3098  0.3359  0.0892
21466SOL    HW276123   1.498   6.719  10.056  1.4451  0.4311 -0.2435
21467SOL     OW76124   9.976   4.973   3.082  0.1401  0.1548  0.6143
21467SOL    HW176125   9.994   4.962   2.989 -0.1020 -0.5533  0.6492
21467SOL    HW276126  10.062   4.993   3.120  0.4873 -0.9511  0.4431
21468SOL     OW76127   0.188   4.052   0.169 -0.1876  0.1053  0.0294
21468SOL    HW176128   0.217   4.093   0.087 -0.6709  1.1742  0.3855
21468SOL    HW276129   0.268   4.047   0.222  0.1948 -0.8876 -0.6173
21469SOL     OW76130   5.739   5.667   0.583  0.8678  0.0677 -0.1224
21469SOL    HW176131   5.805   5.695   0.647  0.1440  0.5032  0.4470
21469SOL    HW276132   5.787   5.659   0.501  1.5946  0.5531  0.2445
21470SOL     OW76133   6.797   2.217  11.367 -0.5916 -0.3080  0.4737
21470SOL    HW176134   6.853   2.202  11.291 -2.4230 -0.0163 -1.0454
21470SOL    HW276135   6.712   2.242  11.328 -0.9603  2.1994  2.6400
21471SOL     OW76136   7.887   7.874   3.196 -0.0602  0.1992 -0.4723
21471SOL    HW176137   7.919   7.796   3.241 -1.1010  1.0795  2.0335
21471SOL    HW276138   7.914   7.947   3.252 -3.8990  1.1773  0.4634
21472SOL     OW76139   4.822   6.286  11.683  0.2062  0.5834 -0.4321
21472SOL    HW176140   4.728   6.302  11.675 -0.1074 -0.1496  1.2382
21472SOL    HW276141   4.850   6.349  11.750  0.8732  0.6700 -0.7889
21473SOL     OW76142   1.764  10.716   2.814  0.3045  0.3343  0.3965
21473SOL    HW176143   1.783  10.797   2.863  0.3273  1.0650 -0.7880
21473SOL    HW276144   1.682  10.684   2.853 -0.9955  2.2013 -0.6120
21474SOL     OW76145  10.652   1.692   3.333 -0.4216  0.0207 -0.2208
21474SOL    HW176146  10.733   1.733   3.301 -1.0978  0.3581 -1.5372
21474SOL    HW276147  10.665   1.685   3.428  2.1836 -2.1552 -0.5927
21475SOL     OW76148   2.073   5.557   5.041 -0.8325  0.5424 -0.0617
21475SOL    HW176149   2.157   5.532   5.003 -0.4179  1.4963  0.1904
21475SOL    HW276150   2.008   5.528   4.978 -0.3799 -0.9250  0.1063
21476SOL     OW76151  10.628   6.540   7.018  0.2898 -0.2115 -0.3074
21476SOL    HW176152  10.570   6.479   7.063  0.5797 -0.5838 -0.4399
21476SOL    HW276153  10.710   6.538   7.068  0.0735  0.6015  0.1089
21477SOL     OW76154  10.854   4.097   6.295 -0.3905  0.0163 -1.0765
21477SOL    HW176155  10.923   4.031   6.289 -0.9368 -0.5563 -1.2615
21477SOL    HW276156  10.899   4.180   6.290  0.5250 -0.2713  1.2116
21478SOL     OW76157   2.547   0.832   3.289  0.4711 -0.6221 -0.1367
21478SOL    HW176158   2.545   0.789   3.375  0.6752 -1.3135 -0.4702
21478SOL    HW276159   2.634   0.871   3.283  0.6514 -1.0375 -0.2486
21479SOL     OW76160   3.138   8.261  11.172 -0.1656 -0.0523  0.3454
21479SOL    HW176161   3.225   8.292  11.146 -0.4165 -0.4227 -0.9666
21479SOL    HW276162   3.103   8.333  11.225  0.4187  0.6611 -0.2094
21480SOL     OW76163   3.840   2.937   3.538  0.0288 -0.0631  0.6890
21480SOL    HW176164   3.793   2.945   3.621  0.4463 -0.4775  0.9724
21480SOL    HW276165   3.814   3.014   3.488 -1.1438 -0.4011  0.7379
21481SOL     OW76166   3.444   6.464   3.522 -0.0610 -0.0775 -0.2192
21481SOL    HW176167   3.432   6.369   3.516  1.6832 -0.4076  0.8807
21481SOL    HW276168   3.536   6.478   3.498 -0.1723  1.2928  0.0576
21482SOL     OW76169   5.924   7.840   2.383 -0.0420  0.3734 -0.1753
21482SOL    HW176170   5.851   7.798   2.429 -0.6621  0.0375 -1.4115
21482SOL    HW276171   5.882   7.904   2.326  0.5829 -0.0612 -1.1535
21483SOL     OW76172   4.505  10.441   3.711 -0.1613  0.5267  0.4512
21483SOL    HW176173   4.555  10.359   3.719  2.0895  1.8194  0.5449
21483SOL    HW276174   4.450  10.428   3.634  0.3905 -0.9549  0.2633
21484SOL     OW76175   8.761   0.647   2.695  0.4029  0.3734 -0.2232
21484SOL    HW176176   8.712   0.593   2.757  1.6587  1.0296  1.4113
21484SOL    HW276177   8.700   0.662   2.624 -0.3311 -2.3327 -0.2841
21485SOL     OW76178   6.245  11.040   5.599  0.4068  0.1357 -0.2556
21485SOL    HW176179   6.187  11.083   5.536 -0.4791  1.0465  1.1346
21485SOL    HW276180   6.231  10.946   5.584  0.8993  0.2966 -1.9996
21486SOL     OW76181  11.351   9.239   8.352 -0.0888  0.2582  0.1008
21486SOL    HW176182  11.358   9.301   8.424  0.2154 -1.6423  1.8040
21486SOL    HW276183  11.438   9.238   8.312 -0.2498  1.2985 -0.2846
21487SOL     OW76184   8.041   2.489   9.984  0.1180 -0.0574 -0.2394
21487SOL    HW176185   7.968   2.550   9.993  0.0745 -0.3335  1.6322
21487SOL    HW276186   8.009   2.422   9.923 -2.0485 -1.2938  2.0639
21488SOL     OW76187   5.971   5.820  11.928  0.0718 -0.0555  0.0568
21488SOL    HW176188   6.052   5.773  11.911 -0.9639 -1.2338 -2.1296
21488SOL    HW276189   5.997   5.896  11.979  2.3061 -1.1916  0.7077
21489SOL     OW76190   6.816   5.795   0.844 -0.5074 -0.1314 -0.2358
21489SOL    HW176191   6.805   5.786   0.749  0.9143 -0.5952 -0.3788
21489SOL    HW276192   6.897   5.845   0.854 -0.4465 -0.4050  0.7318
21490SOL     OW76193  10.581   0.411   5.492 -0.6199  0.0783  0.3104
21490SOL    HW176194  10.656   0.449   5.445 -0.3691  0.9184  1.3630
21490SOL    HW276195  10.619   0.343   5.547 -0.0169  2.5870  3.3137
21491SOL     OW76196   2.149   0.179   6.375  0.6849 -0.0097  0.2848
21491SOL    HW176197   2.206   0.168   6.451  1.5745  0.3280 -0.3183
21491SOL    HW276198   2.200   0.231   6.313 -0.4179  0.6417 -0.1256
21492SOL     OW76199   4.518   6.928   8.450  0.1266  0.3131 -0.1971
21492SOL    HW176200   4.453   6.917   8.380 -0.8019  0.6770  0.5891
21492SOL    HW276201   4.598   6.956   8.404 -0.6986  1.3898 -1.0469
21493SOL     OW76202   4.785   6.703   7.727  0.6251 -0.3632  0.0747
21493SOL    HW176203   4.839   6.714   7.805  0.4754 -0.8319  0.2431
21493SOL    HW276204   4.763   6.793   7.700  0.5564 -0.2072  0.6482
21494SOL     OW76205  10.406   6.640   5.155 -0.5015 -0.0059 -0.3519
21494SOL    HW176206  10.370   6.692   5.227  0.4605  0.4365 -0.1709
21494SOL    HW276207  10.485   6.687   5.129 -0.7348 -0.2692 -1.5753
21495SOL     OW76208   5.200   8.962   8.219  0.1816 -0.6707  0.4540
21495SOL    HW176209   5.257   8.885   8.228 -0.3084 -1.0214  0.6464
21495SOL    HW276210   5.211   9.010   8.301  0.3366 -0.6475  0.4187
21496SOL     OW76211   2.943   2.378   0.500  0.3140 -0.3453  0.1793
21496SOL    HW176212   2.889   2.308   0.464  1.0748 -1.3157  0.8779
21496SOL    HW276213   2.921   2.381   0.593 -0.0297  0.6497  0.0772
21497SOL     OW76214   9.470   7.529   9.060  0.3107  0.7637  0.0722
21497SOL    HW176215   9.425   7.595   9.112 -2.6186  0.6373 -2.0561
21497SOL    HW276216   9.507   7.577   8.986  0.7540  0.4133  0.0610
21498SOL     OW76217   3.766   5.213   4.018 -0.4590 -0.3412  0.4439
21498SOL    HW176218   3.715   5.262   3.953 -0.1297  1.4584  1.4514
21498SOL    HW276219   3.857   5.234   3.998 -0.3724  0.7705  1.7980
21499SOL     OW76220   3.199   7.010   6.557  0.4377 -0.1792  0.2449
21499SOL    HW176221   3.226   6.935   6.610  0.7483 -0.4099 -0.2355
21499SOL    HW276222   3.170   6.973   6.475  1.9574  0.2986 -0.5535
21500SOL     OW76223   6.181   1.521   4.422  0.2534 -0.0492  0.6806
21500SOL    HW176224   6.136   1.605   4.414 -2.1355 -1.2600  0.5138
21500SOL    HW276225   6.269   1.538   4.389 -0.9171  1.7852 -1.8370
21501SOL     OW76226   5.501  10.696   9.787  0.0044  0.4779 -0.2718
21501SOL    HW176227   5.442  10.757   9.741 -0.2480 -0.7728 -1.6948
21501SOL    HW276228   5.443  10.643   9.842 -0.0168  0.2684 -0.4945
21502SOL     OW76229   2.776  11.495   8.644  0.2405  0.3189 -0.3979
21502SOL    HW176230   2.855  11.452   8.677  1.4339  3.1718  0.8160
21502SOL    HW276231   2.704  11.455   8.693  1.1757 -0.6923  0.1956
21503SOL     OW76232   3.847   0.768   9.719 -0.5564 -0.3470  0.3969
21503SOL    HW176233   3.863   0.688   9.669  0.1377  0.2653 -0.3962
21503SOL    HW276234   3.776   0.812   9.673 -0.1527  0.0495  0.1457
21504SOL     OW76235   2.783   4.730  10.778  0.0067 -0.0781  0.0927
21504SOL    HW176236   2.831   4.680  10.712  0.4546  0.4147  0.0426
21504SOL    HW276237   2.691   4.709  10.762  0.1261 -0.1054 -0.5659
21505SOL     OW76238   4.290   1.763   8.754  0.1450  0.3018  0.0362
21505SOL    HW176239   4.324   1.831   8.695  0.6929  0.0782  0.0933
21505SOL    HW276240   4.315   1.681   8.713  2.1806  0.1256  1.4880
21506SOL     OW76241   5.690   5.191   9.268 -0.3068 -0.6065  0.5217
21506SOL    HW176242   5.740   5.130   9.323  2.4956  2.4992  1.7899
21506SOL    HW276243   5.664   5.261   9.327  1.8769  2.3683 -1.7053
21507SOL     OW76244  11.796   2.249   5.353  0.0023  0.3084 -0.0334
21507SOL    HW176245  11.851   2.276   5.279  0.4491 -3.4028 -1.2748
21507SOL    HW276246  11.743   2.326   5.373  1.1416  2.0367 -3.0037
21508SOL     OW76247   7.292  11.585  11.161  0.2878 -0.4447  0.0347
21508SOL    HW176248   7.325  11.629  11.239  2.0802 -0.7309 -0.5073
21508SOL    HW276249   7.371  11.553  11.117 -0.5221  0.8079 -2.5368
21509SOL     OW76250  10.116   2.658   2.861 -0.0078  0.1215 -0.0493
21509SOL    HW176251  10.161   2.585   2.818 -1.4445  0.3085 -2.0136
21509SOL    HW276252  10.107   2.630   2.952 -2.5603 -3.3599 -1.1390
21510SOL     OW76253  11.015   6.796   9.236  0.5254 -0.0036 -0.1587
21510SOL    HW176254  10.983   6.781   9.325  1.9997 -1.6435  0.1393
21510SOL    HW276255  10.955   6.746   9.180  0.9822 -0.8921  0.1413
21511SOL     OW76256   2.250   6.147  10.464 -0.3706 -0.0700 -0.0112
21511SOL    HW176257   2.312   6.215  10.490 -0.7356 -0.1419  1.0983
21511SOL    HW276258   2.197   6.132  10.542 -0.9505 -0.9187 -0.5529
21512SOL     OW76259   4.193   9.983   1.889  0.3621 -0.3267  0.3565
21512SOL    HW176260   4.183  10.058   1.830  0.3333  0.1278  0.9285
21512SOL    HW276261   4.167   9.908   1.836  0.8682  0.0022 -0.3792
21513SOL     OW76262   2.377   7.019   4.230 -0.2618  0.1191  0.2089
21513SOL    HW176263   2.297   7.040   4.278 -1.7776 -1.0657 -1.6167
21513SOL    HW276264   2.420   7.103   4.217 -0.7610  0.6776  1.9736
21514SOL     OW76265   5.091   9.649  11.617 -0.2513  0.1212  0.3547
21514SOL    HW176266   5.050   9.690  11.693 -0.7636  0.8548 -0.3063
21514SOL    HW276267   5.020   9.599  11.576 -0.3597  0.9220 -0.4655
21515SOL     OW76268   6.530   1.247   3.093  0.1986 -0.4546  0.0582
21515SOL    HW176269   6.567   1.183   3.154  0.4996  0.1404  0.5087
21515SOL    HW276270   6.462   1.291   3.144 -0.2278 -0.6241 -0.3509
21516SOL     OW76271   2.241   7.544   0.507  0.6775 -0.5316  1.3667
21516SOL    HW176272   2.274   7.625   0.546  0.7014  0.6314 -0.9160
21516SOL    HW276273   2.173   7.572   0.446  0.4622 -2.2625  0.7562
21517SOL     OW76274   9.889   0.092   1.317 -0.4798 -0.3726 -0.3958
21517SOL    HW176275   9.973   0.084   1.362 -0.9714 -3.1000  0.2325
21517SOL    HW276276   9.830   0.130   1.382 -0.2696 -0.6758 -0.0211
21518SOL     OW76277   0.356   6.912   5.985 -0.7647  0.1819 -0.1382
21518SOL    HW176278   0.360   6.824   5.948 -1.4437  0.7577 -1.6534
21518SOL    HW276279   0.263   6.930   5.997 -0.7253  1.2111 -1.1952
21519SOL     OW76280   7.129   3.806   2.659  0.3121  0.0453 -0.3095
21519SOL    HW176281   7.038   3.782   2.642 -0.0800  1.6216 -0.5898
21519SOL    HW276282   7.147   3.771   2.746  0.5267 -3.1674 -1.5395
21520SOL     OW76283   4.448   0.240   3.447 -0.2131  0.4758 -0.5150
21520SOL    HW176284   4.380   0.304   3.430 -0.9824 -0.3755 -0.7258
21520SOL    HW276285   4.528   0.291   3.456 -0.9611  1.5462  0.2879
21521SOL     OW76286   4.004   2.736   0.668 -0.4604  0.2528 -0.2675
21521SOL    HW176287   4.025   2.817   0.713 -0.7622  0.0315  0.2760
21521SOL    HW276288   4.006   2.669   0.737 -0.1804 -0.2044 -0.7122
21522SOL     OW76289   3.095   8.698   1.985  0.1742 -0.3095  0.5037
21522SOL    HW176290   3.023   8.657   1.936 -0.5244  3.3042 -1.8629
21522SOL    HW276291   3.174   8.670   1.938 -0.0774 -0.7204  0.3222
21523SOL     OW76292   1.767  10.657   1.858  0.2653 -0.0840 -0.1219
21523SOL    HW176293   1.779  10.576   1.808  1.3818 -0.8490  1.2678
21523SOL    HW276294   1.673  10.665   1.870 -0.1689  0.7823 -3.2599
21524SOL     OW76295   9.158   0.647   1.778  0.0367 -0.7970 -0.3930
21524SOL    HW176296   9.146   0.742   1.772  1.9861 -0.2672  1.9732
21524SOL    HW276297   9.075   0.615   1.812 -1.0321 -0.1451 -2.2529
21525SOL     OW76298   0.066   7.801   8.330 -0.4515  0.2529  0.0760
21525SOL    HW176299   0.094   7.795   8.238  0.5995  1.9947  0.2424
21525SOL    HW276300   0.044   7.893   8.342 -0.5686  0.0412  1.5820
21526SOL     OW76301   8.711   3.828   2.458 -0.7625 -0.4383  0.8679
21526SOL    HW176302   8.625   3.808   2.495 -1.5558  0.1252 -0.5995
21526SOL    HW276303   8.747   3.895   2.516 -1.5745 -0.2242  1.1409
21527SOL     OW76304   1.438   1.867   3.778  1.0251  0.3655 -0.2328
21527SOL    HW176305   1.451   1.921   3.856 -1.5855  2.0155 -0.8101
21527SOL    HW276306   1.428   1.930   3.707  0.8460 -1.0123 -1.4772
21528SOL     OW76307   7.370   4.246   0.178 -0.0996 -0.2075  0.5499
21528SOL    HW176308   7.395   4.272   0.089  0.0272  0.1990  0.7008
21528SOL    HW276309   7.430   4.174   0.200 -1.0748 -1.2909 -0.2282
21529SOL     OW76310   9.116   2.368   4.040  0.2510  0.6145 -0.3190
21529SOL    HW176311   9.207   2.339   4.028  0.4273  0.0907  1.8828
21529SOL    HW276312   9.068   2.288   4.060 -0.8657  0.7954 -2.1206
21530SOL     OW76313   7.470   3.109   1.577 -0.0186  0.1570 -0.4431
21530SOL    HW176314   7.496   3.113   1.669 -0.2601  1.5566 -0.4039
21530SOL    HW276315   7.512   3.031   1.543  0.4890 -0.1060  0.7332
21531SOL     OW76316   0.199   2.642   8.598 -0.0417  0.1402  0.1554
21531SOL    HW176317   0.248   2.724   8.601  0.3203  0.0425 -1.8398
21531SOL    HW276318   0.261   2.578   8.563 -0.9578 -0.4767 -0.3738
21532SOL     OW76319   4.810   2.285   8.798 -0.0891  0.2265 -0.3143
21532SOL    HW176320   4.723   2.261   8.765  0.1040 -1.2451  0.1707
21532SOL    HW276321   4.799   2.294   8.892  0.1207  0.8618 -0.3461
21533SOL     OW76322   9.435  11.008   7.384 -0.1223 -0.0056  0.1924
21533SOL    HW176323   9.478  11.013   7.298  0.8908 -1.2565  0.6027
21533SOL    HW276324   9.441  11.097   7.418  1.0702  0.1292 -0.2977
21534SOL     OW76325   4.298   3.107  10.394  0.4441 -0.1005  0.1888
21534SOL    HW176326   4.202   3.115  10.392  0.4701  0.4327  0.7744
21534SOL    HW276327   4.325   3.161  10.468  1.3211  1.1151 -0.9588
21535SOL     OW76328   1.677   3.713  10.532  0.3237 -0.1852 -0.4084
21535SOL    HW176329   1.637   3.701  10.446 -0.0359 -1.2534 -0.1146
21535SOL    HW276330   1.610   3.682  10.594  0.7643  0.1065  0.2323
21536SOL     OW76331  10.962   7.818  11.621 -0.2223 -0.2169  0.1400
21536SOL    HW176332  10.878   7.838  11.661 -0.4111 -0.3890 -0.1644
21536SOL    HW276333  10.943   7.746  11.561  0.2318 -0.5824  0.4243
21537SOL     OW76334   7.531   8.063  10.356 -0.0252  0.3945  0.2302
21537SOL    HW176335   7.620   8.028  10.350 -0.3530 -0.2002 -3.0764
21537SOL    HW276336   7.540   8.155  10.330 -0.1241  0.9874  2.1609
21538SOL     OW76337   9.902  11.307  11.727  0.1187  0.5245  0.2395
21538SOL    HW176338   9.978  11.366  11.735  0.8314 -0.3600  0.1411
21538SOL    HW276339   9.912  11.267  11.641 -0.4175  0.3377  0.2658
21539SOL     OW76340   3.378  10.130  11.013 -0.7611  0.6834 -0.2516
21539SOL    HW176341   3.400  10.211  10.966  0.7217 -0.3938 -1.5113
21539SOL    HW276342   3.385  10.154  11.105  0.4525  1.8088 -0.6037
21540SOL     OW76343   8.608  11.093  10.179  0.0535 -0.0087  0.3786
21540SOL    HW176344   8.534  11.095  10.118  0.3482 -0.1841  0.0210
21540SOL    HW276345   8.609  11.181  10.217 -0.4155 -0.0401  0.4759
21541SOL     OW76346   7.920   2.030   8.404  0.1082  0.0863  0.0130
21541SOL    HW176347   7.971   1.951   8.385  0.1664  0.4277 -1.3001
21541SOL    HW276348   7.834   2.012   8.366 -0.7899 -0.4619  2.1498
21542SOL     OW76349   1.359   4.809   3.188  0.0264  0.3872  0.2888
21542SOL    HW176350   1.442   4.841   3.154  0.4070 -1.3736 -0.4912
21542SOL    HW276351   1.379   4.778   3.276  0.6488 -1.7913 -0.5792
21543SOL     OW76352   8.069   5.497  11.253 -0.6056 -0.0755 -0.1690
21543SOL    HW176353   8.116   5.494  11.336  1.2072 -2.3446 -1.1678
21543SOL    HW276354   8.019   5.415  11.252  0.6561 -0.8677 -1.9459
21544SOL     OW76355   8.888   4.388   6.034  0.2394 -0.0309 -0.1850
21544SOL    HW176356   8.867   4.450   6.104  0.2385 -0.2320 -0.0064
21544SOL    HW276357   8.805   4.376   5.988  0.2381  0.0957 -0.2165
21545SOL     OW76358  10.185   5.833   3.509 -0.4195  0.6207 -0.1895
21545SOL    HW176359  10.116   5.767   3.501  0.1476 -0.1248  0.7535
21545SOL    HW276360  10.172   5.871   3.596 -0.4115  1.3918 -0.5135
21546SOL     OW76361   3.449   2.792   2.639  0.2685  0.3419 -0.3644
21546SOL    HW176362   3.438   2.792   2.544  0.4425  2.2776 -0.4345
21546SOL    HW276363   3.466   2.701   2.662 -0.2607 -0.2313 -2.1273
21547SOL     OW76364  10.326   5.345   4.981 -0.2588  0.1390  0.5525
21547SOL    HW176365  10.320   5.311   5.070  1.7437 -2.0658 -0.0541
21547SOL    HW276366  10.399   5.408   4.984 -0.4744  0.3901  0.5524
21548SOL     OW76367   7.173   6.677   4.875  0.0267 -0.4557  0.2946
21548SOL    HW176368   7.169   6.764   4.836  0.3772 -0.0764  1.0758
21548SOL    HW276369   7.208   6.621   4.806  3.1060  0.6731  0.7540
21549SOL     OW76370  10.844   4.019   6.805 -0.7708 -0.0559  0.1492
21549SOL    HW176371  10.767   4.076   6.808 -1.3889 -0.7770 -1.2430
21549SOL    HW276372  10.815   3.937   6.845  0.0938  0.4942  2.0696
21550SOL     OW76373   5.806   4.427   0.395 -0.1616 -0.8976  0.1173
21550SOL    HW176374   5.891   4.456   0.361 -0.2677 -0.0349  0.5563
21550SOL    HW276375   5.829   4.366   0.466  0.0624 -1.8795 -0.7643
21551SOL     OW76376   7.429   2.072   1.155  0.4506 -0.1936  0.0183
21551SOL    HW176377   7.475   2.049   1.075  0.6275  0.2061  0.0009
21551SOL    HW276378   7.403   1.988   1.194 -0.9421 -0.3650 -1.2039
21552SOL     OW76379   0.926   5.032   0.904 -1.0883 -0.1767  0.5715
21552SOL    HW176380   0.990   4.972   0.941 -0.3254  1.1064  1.4163
21552SOL    HW276381   0.954   5.045   0.814 -0.1531  0.3456  0.9234
21553SOL     OW76382   2.199  10.540   3.727 -0.0518 -0.1153 -0.0453
21553SOL    HW176383   2.157  10.526   3.812 -1.5855 -2.2514 -1.0456
21553SOL    HW276384   2.128  10.528   3.664  0.9683  1.7866 -1.6477
21554SOL     OW76385   6.323   1.261   2.350 -0.1856  0.2312 -0.7781
21554SOL    HW176386   6.273   1.325   2.301 -0.0947  0.3176 -0.7587
21554SOL    HW276387   6.265   1.186   2.358 -1.1318  1.1220  1.1388
21555SOL     OW76388  11.487   2.695   6.090 -0.5509 -0.1293 -0.4865
21555SOL    HW176389  11.397   2.695   6.057 -0.8640  0.5007  0.3172
21555SOL    HW276390  11.514   2.786   6.088 -0.6999  0.0006  1.2240
21556SOL     OW76391  10.148   5.780   2.307 -0.4353  0.0003  0.1189
21556SOL    HW176392  10.178   5.690   2.297 -0.0993  0.2240 -1.0079
21556SOL    HW276393  10.192   5.828   2.236  0.1023  1.2332  1.2465
21557SOL     OW76394   3.214   6.958   7.092 -0.0806 -0.2340 -0.6554
21557SOL    HW176395   3.187   6.871   7.062 -1.7689 -0.0732  0.3215
21557SOL    HW276396   3.304   6.946   7.122 -0.0366 -1.4607 -1.2155
21558SOL     OW76397   9.217  10.468   1.560 -0.0401 -0.4412 -0.5370
21558SOL    HW176398   9.136  10.476   1.611  0.5976  1.2490  0.2496
21558SOL    HW276399   9.195  10.507   1.475 -0.3914 -1.1192 -0.7727
21559SOL     OW76400  10.486   1.963   7.810  0.1970  0.3639 -0.3099
21559SOL    HW176401  10.437   2.028   7.861  0.8590  0.8371 -0.2639
21559SOL    HW276402  10.515   2.011   7.732 -1.8061 -0.6487 -1.7542
21560SOL     OW76403   1.823   3.511   9.480 -0.2571  0.1696 -0.0541
21560SOL    HW176404   1.894   3.484   9.421 -0.1129 -0.1158  0.2423
21560SOL    HW276405   1.743   3.485   9.435 -0.1243 -0.6932  0.1830
21561SOL     OW76406   3.463   3.008   3.515  0.4798  0.0073  0.2342
21561SOL    HW176407   3.545   2.961   3.532  0.5572 -0.2111 -0.6572
21561SOL    HW276408   3.473   3.091   3.561  1.3284  0.1055 -0.1036
21562SOL     OW76409   1.021  10.994  10.106  0.0562 -0.2132 -0.0594
21562SOL    HW176410   0.926  10.988  10.094 -0.0435 -2.1071  1.2243
21562SOL    HW276411   1.043  10.916  10.157  2.3879 -0.1056 -0.8001
21563SOL     OW76412   2.301   4.049   1.706  1.0053  0.0093 -0.0334
21563SOL    HW176413   2.231   4.009   1.757 -0.4213  1.4280 -0.7841
21563SOL    HW276414   2.377   4.047   1.764  0.2317 -1.1578  0.9827
21564SOL     OW76415   7.989   0.795   5.432 -0.3944  0.1171 -0.3322
21564SOL    HW176416   7.966   0.885   5.452  0.3837  0.4829 -1.0189
21564SOL    HW276417   7.913   0.760   5.385 -0.7716  0.3515  0.0977
21565SOL     OW76418   4.962   7.436   1.034 -0.2059 -0.3611 -0.5356
21565SOL    HW176419   5.012   7.440   1.116  1.3275  1.9217 -1.4737
21565SOL    HW276420   4.882   7.485   1.052  0.1618  0.2029 -0.4032
21566SOL     OW76421   2.835   4.461   8.082 -0.0088  0.4635 -0.5739
21566SOL    HW176422   2.918   4.424   8.112  1.4189  2.0919 -2.2906
21566SOL    HW276423   2.780   4.463   8.161  0.8902 -2.2586  0.2440
21567SOL     OW76424   4.125   9.811   5.960  0.5847 -0.5485 -0.1815
21567SOL    HW176425   4.151   9.821   6.052  3.4954  1.4005 -1.0642
21567SOL    HW276426   4.166   9.729   5.932  1.5813 -0.0407 -0.2557
21568SOL     OW76427  10.824   4.756   3.499  0.1725  0.1372 -0.3242
21568SOL    HW176428  10.857   4.667   3.484  0.1257  0.0486  0.0660
21568SOL    HW276429  10.752   4.744   3.561 -0.4649  0.3516 -1.0111
21569SOL     OW76430   7.406   4.425   1.992 -0.4266  0.0294  0.1206
21569SOL    HW176431   7.495   4.399   1.971  0.3483  1.0497  1.9044
21569SOL    HW276432   7.387   4.383   2.075  0.0826  3.1839  2.0047
21570SOL     OW76433   8.500   7.013   4.920 -0.1542 -0.8078 -0.7615
21570SOL    HW176434   8.427   7.031   4.979  0.8423 -0.1354  0.3066
21570SOL    HW276435   8.578   7.028   4.973  0.7755 -1.1358 -1.9847
21571SOL     OW76436   9.349   3.880  11.649 -0.2817  0.3710  0.3302
21571SOL    HW176437   9.364   3.958  11.596  1.9584  1.4037  2.2526
21571SOL    HW276438   9.302   3.913  11.726  0.3159 -0.2220  0.9647
21572SOL     OW76439   9.084  11.841   3.426  0.6861 -0.4265 -0.2804
21572SOL    HW176440   9.031  11.866   3.350 -1.3480 -1.9338  0.5874
21572SOL    HW276441   9.153  11.908   3.429 -0.1639  0.6497 -2.4248
21573SOL     OW76442   1.920   1.703   6.590 -0.3228 -0.0804  0.5512
21573SOL    HW176443   1.883   1.652   6.518 -0.5227 -1.9160  1.8872
21573SOL    HW276444   1.867   1.679   6.666  1.1038  0.3016  1.7039
21574SOL     OW76445  11.953   3.960   3.925 -0.6248  0.1775 -0.7103
21574SOL    HW176446  11.902   4.009   3.861 -0.5591  0.7591 -0.3301
21574SOL    HW276447  11.912   3.874   3.927 -0.9470  0.3131 -1.1586
21575SOL     OW76448   9.883  11.698   7.988 -0.6082  0.3663 -0.1698
21575SOL    HW176449   9.971  11.661   7.990 -0.4044  0.8547  0.7327
21575SOL    HW276450   9.894  11.788   8.020 -1.1801  1.0185 -1.7164
21576SOL     OW76451   9.422  11.606  10.181  0.1868  0.4973  0.5696
21576SOL    HW176452   9.327  11.616  10.189 -0.0098 -0.6097 -0.1376
21576SOL    HW276453   9.448  11.558  10.260  0.1178  0.5107  0.6008
21577SOL     OW76454   3.304   3.621   1.307 -0.3503 -0.3855  0.4045
21577SOL    HW176455   3.272   3.661   1.227 -0.5726 -0.0703  0.6483
21577SOL    HW276456   3.347   3.691   1.355  1.2746 -0.9451 -0.1987
21578SOL     OW76457   8.848   6.844   8.508 -0.3659 -0.2113 -0.2105
21578SOL    HW176458   8.774   6.830   8.567 -0.1254 -1.3680 -0.1491
21578SOL    HW276459   8.887   6.757   8.498  0.9902  0.3791 -0.2390
21579SOL     OW76460   2.896  11.752   7.353  0.4716  0.1270  0.0837
21579SOL    HW176461   2.987  11.762   7.380  0.1838 -0.5413  1.3882
21579SOL    HW276462   2.858  11.694   7.419 -1.2729  1.5122  0.3707
21580SOL     OW76463   2.458   9.070   0.581  0.2644 -0.4037  0.3020
21580SOL    HW176464   2.525   9.115   0.632  0.6996 -0.8216  0.1021
21580SOL    HW276465   2.507   9.015   0.520 -0.2468 -0.0082 -0.4832
21581SOL     OW76466  11.815  11.956   9.012  0.2402 -0.3303  0.5418
21581SOL    HW176467  11.828  11.917   9.098  1.0563  0.3830  0.7514
21581SOL    HW276468  11.724  11.987   9.013  0.7212  1.0973  1.7304
21582SOL     OW76469   5.962   1.357   6.317 -0.2014 -0.3222  0.2826
21582SOL    HW176470   5.937   1.353   6.410 -0.9473  1.7227  0.2299
21582SOL    HW276471   5.963   1.451   6.297  2.3714 -0.5555 -1.1618
21583SOL     OW76472   7.093  10.534   7.598  0.0091 -0.0116 -0.0876
21583SOL    HW176473   7.123  10.574   7.679  0.9648  0.5625 -0.7194
21583SOL    HW276474   7.172  10.502   7.556 -0.5812 -1.2538 -0.3154
21584SOL     OW76475   7.960   0.242   1.654 -0.4259 -0.2206  0.0744
21584SOL    HW176476   8.054   0.250   1.664 -0.0651 -2.3197 -0.9495
21584SOL    HW276477   7.926   0.233   1.743  0.5636 -1.1412  0.3736
21585SOL     OW76478   5.869   3.763  11.765 -0.0960  0.1516  0.0381
21585SOL    HW176479   5.885   3.709  11.688  0.3328  0.1071  0.1601
21585SOL    HW276480   5.949   3.814  11.777  1.2756 -2.2961  2.4541
21586SOL     OW76481   3.845   1.056   5.406  0.9138 -0.0444  0.2304
21586SOL    HW176482   3.856   0.983   5.345  0.5206 -0.2645  0.4177
21586SOL    HW276483   3.931   1.069   5.444  1.3695  0.6440 -0.9842
21587SOL     OW76484   7.534   9.565   2.070 -0.0459  0.2026 -0.3118
21587SOL    HW176485   7.517   9.498   2.136 -0.3096 -1.4462 -1.9854
21587SOL    HW276486   7.565   9.641   2.121  1.5610 -1.5844  1.5532
21588SOL     OW76487   4.018   5.673   0.113 -0.3518 -0.3569  0.2246
21588SOL    HW176488   4.010   5.585   0.077 -0.6848  0.2100 -1.1684
21588SOL    HW276489   4.036   5.660   0.206 -1.3769 -1.8855  0.2430
21589SOL     OW76490   0.344  10.212   8.227 -0.7002  0.6363 -0.8755
21589SOL    HW176491   0.290  10.134   8.215 -0.4224  0.4546 -0.9665
21589SOL    HW276492   0.348  10.252   8.141  0.2896 -0.0050 -1.1470
21590SOL     OW76493  11.001   6.544  10.283  0.3721 -0.5198  0.4511
21590SOL    HW176494  10.934   6.606  10.314 -0.0202 -0.5856 -0.2493
21590SOL    HW276495  10.963   6.505  10.205  1.5332 -0.0346 -0.3762
21591SOL     OW76496   9.778   6.649  11.746  0.1158  0.0017  0.6873
21591SOL    HW176497   9.799   6.687  11.831 -2.8249  2.1091  0.6068
21591SOL    HW276498   9.774   6.723  11.686 -0.6400 -1.1012 -0.6941
21592SOL     OW76499   5.031   9.845   7.408 -0.3076 -0.3286 -0.5269
21592SOL    HW176500   5.022   9.936   7.436 -2.5116 -0.7741  0.4425
21592SOL    HW276501   5.123   9.836   7.386  0.1260  1.9290  0.0899
21593SOL     OW76502   2.170  10.111   8.372  0.2234  0.5410 -0.1904
21593SOL    HW176503   2.224  10.104   8.293 -0.0194 -0.1534 -0.3036
21593SOL    HW276504   2.098  10.050   8.358  0.0380  0.5959  0.4627
21594SOL     OW76505   1.153   5.008   5.068  0.3464 -0.3548  0.1655
21594SOL    HW176506   1.247   5.001   5.080  0.5657  2.8182  1.2665
21594SOL    HW276507   1.118   5.012   5.157 -0.7420 -0.7586 -0.2279
21595SOL     OW76508   0.601   4.839   8.684 -0.4646  1.1527 -0.3288
21595SOL    HW176509   0.650   4.760   8.659  0.3907  0.7522  2.3392
21595SOL    HW276510   0.657   4.912   8.656  0.1722  0.7474 -0.1277
21596SOL     OW76511   2.841   2.710   0.990 -0.0168  0.3024 -0.4836
21596SOL    HW176512   2.796   2.790   1.015 -2.5646 -0.0016 -3.3835
21596SOL    HW276513   2.904   2.738   0.923  0.0867  0.0430 -0.4965
21597SOL     OW76514   4.648   2.584   2.411  0.5992  0.0713  0.0633
21597SOL    HW176515   4.612   2.671   2.395 -0.3362 -0.1842  0.6992
21597SOL    HW276516   4.617   2.561   2.498  0.4824 -1.0679 -0.2628
21598SOL     OW76517   7.831   1.632  10.124  0.1119  0.4038  0.3533
21598SOL    HW176518   7.812   1.642  10.218 -1.3213 -1.4894  0.3254
21598SOL    HW276519   7.889   1.557  10.120 -1.4895 -0.8587 -0.3717
21599SOL     OW76520   7.963  11.029   8.964  0.4425 -0.3137 -0.1320
21599SOL    HW176521   8.051  11.004   8.937 -0.0093 -0.9575 -1.0403
21599SOL    HW276522   7.940  11.102   8.906  0.3057 -0.2650 -0.0179
21600SOL     OW76523   6.912   3.388   6.376 -0.3810  0.3868 -0.5056
21600SOL    HW176524   6.850   3.460   6.388 -0.1110  0.6033 -0.4101
21600SOL    HW276525   6.930   3.387   6.282  0.9739  1.5822 -0.2807
21601SOL     OW76526   5.300  10.708   2.894 -0.7200 -0.2686  0.7908
21601SOL    HW176527   5.281  10.744   2.980 -0.9091 -0.9573  1.0379
21601SOL    HW276528   5.223  10.730   2.841  1.0350  3.9161 -0.4651
21602SOL     OW76529   8.076   2.576   8.391  0.1957  0.1929 -0.4173
21602SOL    HW176530   8.032   2.602   8.472 -1.1659 -1.0655 -0.7251
21602SOL    HW276531   8.147   2.519   8.419 -2.6232 -3.5183 -0.1873
21603SOL     OW76532   8.578  11.737   4.979 -0.1196  0.1219 -0.2291
21603SOL    HW176533   8.507  11.767   4.921  1.0837  0.3730 -1.6332
21603SOL    HW276534   8.646  11.804   4.969 -0.9845  1.9538  3.9332
21604SOL     OW76535  10.278   9.968   2.830  0.2519 -0.2774  0.5819
21604SOL    HW176536  10.306  10.032   2.765 -0.2306 -0.2342  0.4175
21604SOL    HW276537  10.352   9.962   2.891  0.6248 -0.1651  0.1502
21605SOL     OW76538   2.202  10.580  11.224 -0.1369  0.2830  0.4888
21605SOL    HW176539   2.191  10.587  11.319  1.9538 -1.4857  0.9600
21605SOL    HW276540   2.234  10.491  11.210  0.6400  0.8342 -1.7757
21606SOL     OW76541   7.825   0.164   9.156  0.1131 -0.0479  0.1536
21606SOL    HW176542   7.806   0.078   9.119 -2.0042  0.4704 -0.0460
21606SOL    HW276543   7.919   0.160   9.176  0.2912 -2.0288 -0.7803
21607SOL     OW76544   0.536  11.394   4.897  0.2374 -0.0184 -0.0959
21607SOL    HW176545   0.492  11.354   4.822 -0.5908  0.4426  0.1337
21607SOL    HW276546   0.526  11.329   4.967 -0.4532  0.2736  0.0736
21608SOL     OW76547   3.558   3.719   3.767 -0.4143  0.3094  1.0720
21608SOL    HW176548   3.636   3.767   3.737 -2.0023  1.8307 -0.8568
21608SOL    HW276549   3.553   3.739   3.861 -0.1858  2.7613  0.6183
21609SOL     OW76550   7.969   7.077   5.863 -0.2174 -0.9898 -0.5128
21609SOL    HW176551   7.940   7.168   5.853 -1.0475 -1.0429  1.1175
21609SOL    HW276552   7.888   7.025   5.860  0.1200 -1.5497 -0.1133
21610SOL     OW76553   2.089  11.909   8.436 -0.2505 -0.1491 -0.1746
21610SOL    HW176554   2.080  11.832   8.492 -0.3471  0.2825  0.4104
21610SOL    HW276555   2.018  11.900   8.371  0.0480 -0.8000 -0.4110
21611SOL     OW76556   2.071   7.511   9.338  0.6319  0.0474  0.1158
21611SOL    HW176557   1.977   7.516   9.355  0.7573  1.6376  0.4440
21611SOL    HW276558   2.079   7.532   9.245  0.5531 -1.7696 -0.3475
21612SOL     OW76559  10.227   0.602   7.186  0.2351  0.4120  0.1106
21612SOL    HW176560  10.257   0.641   7.104  0.7542  1.3314  0.7251
21612SOL    HW276561  10.243   0.508   7.175  1.1535  0.6280 -0.4829
21613SOL     OW76562   9.702   4.843  10.743 -0.0653 -0.7357 -0.2213
21613SOL    HW176563   9.613   4.858  10.711 -0.5682  1.1374  1.7687
21613SOL    HW276564   9.741   4.782  10.681 -2.1226 -0.1545 -2.2010
21614SOL     OW76565   8.502   6.267   4.731  0.7600  0.4387  0.0373
21614SOL    HW176566   8.571   6.275   4.664  0.5326  0.3415 -0.2084
21614SOL    HW276567   8.547   6.285   4.814  1.2800 -0.4999 -0.0281
21615SOL     OW76568   6.850  10.333   9.288 -0.2749 -0.0719 -0.5314
21615SOL    HW176569   6.778  10.304   9.231  0.2160 -1.5558 -0.4287
21615SOL    HW276570   6.807  10.365   9.367 -0.8491 -0.8957 -0.4955
21616SOL     OW76571  10.929   3.098   4.371 -0.7816 -0.1574  0.3514
21616SOL    HW176572  11.017   3.088   4.408 -0.4998  1.7619  0.3230
21616SOL    HW276573  10.930   3.043   4.293  1.3764  1.7770 -1.1554
21617SOL     OW76574   8.636  10.380   5.629 -0.1396 -0.6976  0.0344
21617SOL    HW176575   8.728  10.404   5.644  0.0045 -0.2230 -1.4171
21617SOL    HW276576   8.640  10.288   5.603 -0.1835 -0.9263  0.7969
21618SOL     OW76577   3.171   6.125   7.728 -0.2930 -0.1901  0.0254
21618SOL    HW176578   3.118   6.061   7.776  0.0077 -0.7226 -0.3418
21618SOL    HW276579   3.260   6.088   7.729 -0.3619 -0.4347 -1.3024
21619SOL     OW76580   9.023   1.176   1.009  0.0028 -0.6249  0.2356
21619SOL    HW176581   9.021   1.191   1.103 -0.1227  0.6929  0.0396
21619SOL    HW276582   9.116   1.183   0.985 -0.0068 -0.6122  0.2027
21620SOL     OW76583   2.527   6.597   9.989  0.7431 -0.3706  0.4669
21620SOL    HW176584   2.565   6.509   9.981  0.3114 -0.6014  0.9530
21620SOL    HW276585   2.585   6.652   9.936 -0.5315 -1.3922 -2.1366
21621SOL     OW76586   4.420   8.495  10.379  0.1428  0.0488  0.1582
21621SOL    HW176587   4.418   8.424  10.443  1.5928  0.2191  0.4285
21621SOL    HW276588   4.512   8.518  10.371 -0.0800  0.5056 -1.4861
21622SOL     OW76589   4.411  11.351   4.187 -0.4238  0.2802 -0.4458
21622SOL    HW176590   4.464  11.273   4.168  0.8747  0.7526  1.1058
21622SOL    HW276591   4.358  11.363   4.108  0.4113 -1.3154 -1.2960
21623SOL     OW76592   5.546   8.649   2.664 -0.0720 -0.1035  0.0257
21623SOL    HW176593   5.544   8.737   2.626  0.8810 -0.0332  0.1143
21623SOL    HW276594   5.612   8.602   2.613  0.7605 -0.2012  1.1374
21624SOL     OW76595   2.447   0.829   7.608 -0.0614 -0.6073 -0.0801
21624SOL    HW176596   2.436   0.765   7.679 -0.6334 -0.5837 -0.1435
21624SOL    HW276597   2.451   0.914   7.651 -2.3104 -0.4009 -0.1685
21625SOL     OW76598   4.939   2.649   2.056 -0.4292 -0.5873 -0.0633
21625SOL    HW176599   4.976   2.687   1.976  0.6198 -0.4997  0.4564
21625SOL    HW276600   5.013   2.607   2.099 -1.0676 -0.9753  0.6709
21626SOL     OW76601  10.762   9.870   6.216 -0.2582  0.8598 -0.2163
21626SOL    HW176602  10.817   9.868   6.295 -0.5489  0.7247 -0.0140
21626SOL    HW276603  10.729   9.959   6.212 -1.8732  0.3512  0.9602
21627SOL     OW76604   8.640   5.938   2.246 -0.0237  0.3308  0.0386
21627SOL    HW176605   8.610   5.934   2.155  1.3720  1.3853 -0.5092
21627SOL    HW276606   8.730   5.972   2.240 -0.0891  0.9315  1.8529
21628SOL     OW76607   1.496   6.274  11.251 -0.5378 -0.0002  0.2183
21628SOL    HW176608   1.522   6.182  11.250  0.8886  0.3730  0.6318
21628SOL    HW276609   1.484   6.297  11.159 -0.8512 -0.5730  0.1098
21629SOL     OW76610   0.720   7.233  10.260 -0.1777  0.1595  0.1582
21629SOL    HW176611   0.656   7.173  10.221 -1.3450  1.7155 -0.4296
21629SOL    HW276612   0.770   7.265  10.186  0.3553  0.0233  0.4550
21630SOL     OW76613   9.350   5.484   4.305 -0.3079 -0.5056  0.1863
21630SOL    HW176614   9.438   5.450   4.295 -1.2234 -4.1141  2.5314
21630SOL    HW276615   9.325   5.513   4.217  2.1693 -2.1448 -1.1602
21631SOL     OW76616   7.621  10.432   6.709  0.3206  0.3895 -0.2450
21631SOL    HW176617   7.557  10.361   6.714  1.2207 -0.3826  1.2832
21631SOL    HW276618   7.570  10.511   6.726 -0.6514  0.1135 -1.7020
21632SOL     OW76619  11.798   3.484   0.688 -0.7276 -0.4025 -0.0963
21632SOL    HW176620  11.765   3.524   0.607  0.6924 -0.7668 -0.9025
21632SOL    HW276621  11.762   3.396   0.688  0.4681 -0.9248 -1.1609
21633SOL     OW76622   0.783   3.022   0.251  0.1789  0.4822  0.3348
21633SOL    HW176623   0.822   2.954   0.305  0.2919 -0.8762 -1.3572
21633SOL    HW276624   0.693   3.030   0.283  0.1637 -0.4830  0.5632
21634SOL     OW76625   1.781   9.761   5.022 -0.4810  0.7204  0.4648
21634SOL    HW176626   1.876   9.760   5.030 -0.1813  3.3023 -1.4992
21634SOL    HW276627   1.749   9.751   5.112  1.5212 -1.3299  1.0553
21635SOL     OW76628   7.552   9.636   8.357  0.0288 -0.6199  0.5147
21635SOL    HW176629   7.528   9.695   8.285 -0.5162 -0.3731  0.8898
21635SOL    HW276630   7.560   9.693   8.433  2.4433 -0.5972  0.3136
21636SOL     OW76631   1.670   2.494   3.678 -0.4435 -0.3757 -0.0104
21636SOL    HW176632   1.690   2.499   3.771  0.1968 -1.3055 -0.0819
21636SOL    HW276633   1.740   2.439   3.642  0.0340  0.9886 -1.2588
21637SOL     OW76634   7.520   2.843   9.593 -0.0956 -0.2610 -0.3173
21637SOL    HW176635   7.605   2.885   9.611 -0.1356 -0.4308  0.2943
21637SOL    HW276636   7.536   2.790   9.515 -0.0792  0.9940 -1.2047
21638SOL     OW76637   7.360   4.343   4.144  0.0044 -0.2085 -0.0099
21638SOL    HW176638   7.381   4.345   4.237  2.8269  2.1212 -0.5528
21638SOL    HW276639   7.303   4.418   4.131 -0.3193 -0.4821 -0.1703
21639SOL     OW76640   2.300  10.818   0.064  0.0775 -0.4786  0.3853
21639SOL    HW176641   2.281  10.728   0.090  0.0592 -0.7394 -0.5127
21639SOL    HW276642   2.374  10.843   0.119  0.7887 -1.4182 -0.1269
21640SOL     OW76643   5.419   5.179   1.045 -0.3467 -0.6060  0.0810
21640SOL    HW176644   5.510   5.158   1.025  0.0093  0.4711  0.5449
21640SOL    HW276645   5.423   5.252   1.106 -1.5061 -1.1424  0.8475
21641SOL     OW76646   5.754   0.048   2.536  0.7145  0.4712  0.0417
21641SOL    HW176647   5.845   0.027   2.557  1.7270  1.4235 -2.8698
21641SOL    HW276648   5.738   0.131   2.581  1.9769  1.2782 -0.9289
21642SOL     OW76649   6.397   8.083   0.456  0.4907 -0.2036 -0.4924
21642SOL    HW176650   6.327   8.127   0.407 -1.0536  0.7359  2.3341
21642SOL    HW276651   6.409   8.137   0.534  0.5294 -3.2107  1.7534
21643SOL     OW76652   8.961   6.024  10.963  0.2386 -0.1718 -0.6215
21643SOL    HW176653   8.964   6.006  11.057  0.5642 -1.8358 -0.9075
21643SOL    HW276654   9.027   6.092  10.949  0.1385  0.1351  0.3512
21644SOL     OW76655   8.037   5.409   1.042  0.0304  0.5280  0.5583
21644SOL    HW176656   8.086   5.432   1.121  1.1559 -1.6617  0.5625
21644SOL    HW276657   8.040   5.488   0.988  0.6042  1.5387  2.0103
21645SOL     OW76658   4.114   6.510   8.344  0.0051 -0.7857 -0.3050
21645SOL    HW176659   4.125   6.540   8.254 -0.6376 -0.0486 -0.1583
21645SOL    HW276660   4.135   6.417   8.342 -0.8872 -0.9787 -1.3995
21646SOL     OW76661   4.522   6.651  10.377 -0.2565  0.0665  0.4539
21646SOL    HW176662   4.466   6.607  10.314 -0.2875 -1.0088  1.2036
21646SOL    HW276663   4.501   6.744  10.367 -1.9723 -0.2818  0.5008
21647SOL     OW76664   3.190   9.059   7.977  0.9505  0.2783 -0.5117
21647SOL    HW176665   3.184   8.987   7.915 -2.4996  0.6883 -0.8485
21647SOL    HW276666   3.243   9.125   7.932  0.5578 -0.3701 -1.9916
21648SOL     OW76667   9.173   4.225   0.531 -0.6309 -0.2033 -0.2446
21648SOL    HW176668   9.263   4.229   0.564 -1.2824 -1.4832  1.9340
21648SOL    HW276669   9.136   4.310   0.554 -0.2529 -0.0361 -0.2431
21649SOL     OW76670  11.916   5.620   3.659  0.2797 -0.2478 -0.4689
21649SOL    HW176671  11.940   5.626   3.566 -2.5438  0.7627 -1.2137
21649SOL    HW276672  11.832   5.665   3.665  0.6005  0.0907  2.7007
21650SOL     OW76673   1.738  11.608   3.514  0.6721 -0.1471  0.2884
21650SOL    HW176674   1.812  11.636   3.460  1.4393 -0.9519  0.8783
21650SOL    HW276675   1.715  11.685   3.566  1.7432 -0.1461  0.7922
21651SOL     OW76676   5.675   4.394   7.732  0.5948 -0.0411 -0.1043
21651SOL    HW176677   5.724   4.317   7.760  0.8672 -0.6064 -1.9784
21651SOL    HW276678   5.715   4.419   7.648 -1.6226  0.0814 -1.2027
21652SOL     OW76679   9.614   1.994   7.906 -0.5413  0.1849 -0.3040
21652SOL    HW176680   9.672   2.064   7.936  1.5864 -2.2899  1.7899
21652SOL    HW276681   9.663   1.949   7.837 -0.2290 -1.4680  0.9463
21653SOL     OW76682   2.213   2.473   6.772  0.0363 -0.0771  0.4153
21653SOL    HW176683   2.166   2.529   6.710 -1.2444  0.4663  1.8275
21653SOL    HW276684   2.249   2.402   6.717 -3.4314 -1.2266 -0.6662
21654SOL     OW76685   3.825  10.099   9.783 -0.6759  0.2331 -0.1700
21654SOL    HW176686   3.894  10.032   9.787  0.0899  0.9531 -0.8620
21654SOL    HW276687   3.800  10.113   9.874  1.3958  1.2416  0.3092
21655SOL     OW76688   6.135   1.458   2.211 -0.0483  0.1301  0.3786
21655SOL    HW176689   6.122   1.421   2.299 -0.7065  2.8856  1.5582
21655SOL    HW276690   6.050   1.447   2.168 -0.6783  1.4034  1.2283
21656SOL     OW76691   5.412   7.705   0.706  0.0155 -0.1438 -0.0471
21656SOL    HW176692   5.345   7.774   0.709 -0.6677 -0.8276  1.1431
21656SOL    HW276693   5.492   7.748   0.736 -0.4678  0.0859  0.9695
21657SOL     OW76694   4.116   1.932   5.736  0.6771 -0.1461  0.3405
21657SOL    HW176695   4.069   1.961   5.815  0.5442 -1.5275  0.7969
21657SOL    HW276696   4.183   1.999   5.723 -0.6496  1.2383  0.3653
21658SOL     OW76697   5.335   5.835  10.616  0.0746 -0.0843  0.2290
21658SOL    HW176698   5.353   5.924  10.647 -0.9008  0.5436 -0.9331
21658SOL    HW276699   5.378   5.829  10.531  2.0406 -1.5184  1.2593
21659SOL     OW76700   0.372   9.401   4.844 -0.3925  0.1909 -0.5295
21659SOL    HW176701   0.311   9.334   4.812 -0.8717 -1.0611  2.6029
21659SOL    HW276702   0.454   9.354   4.856  0.0495  0.8669 -0.8801
21660SOL     OW76703   2.511  10.142  10.257 -0.3948 -0.2290  0.2954
21660SOL    HW176704   2.523  10.210  10.324 -1.0197  0.3671 -0.1837
21660SOL    HW276705   2.417  10.123  10.260 -0.0673 -1.9151  1.2169
21661SOL     OW76706   7.221   9.179   4.495 -0.3779 -0.1816 -0.3657
21661SOL    HW176707   7.142   9.128   4.514 -0.1669 -1.1694 -1.9908
21661SOL    HW276708   7.235   9.168   4.401  2.0596 -0.6135 -0.0198
21662SOL     OW76709   4.700   4.838   4.583 -0.3420 -0.3401  0.6051
21662SOL    HW176710   4.711   4.866   4.673  2.8257  0.6624  0.0427
21662SOL    HW276711   4.759   4.763   4.574  0.2299  0.2516 -0.8705
21663SOL     OW76712  10.828   5.341   2.453 -0.4108  0.1966  0.1642
21663SOL    HW176713  10.792   5.292   2.379 -1.0854 -0.6622  1.0408
21663SOL    HW276714  10.780   5.308   2.529  0.4712  0.8651  1.0272
21664SOL     OW76715   5.982   2.178   1.226  0.1032 -0.5205 -0.3148
21664SOL    HW176716   6.023   2.216   1.304 -0.8743 -0.9796  0.4357
21664SOL    HW276717   5.926   2.108   1.260 -3.1956  1.5667 -1.0185
21665SOL     OW76718   6.617   6.393   0.059  0.5852  0.0757 -0.2914
21665SOL    HW176719   6.570   6.392  -0.024  1.0986  0.6043 -0.5988
21665SOL    HW276720   6.706   6.364   0.036 -0.1312 -3.3681  0.6566
21666SOL     OW76721  11.737   2.436   8.759 -0.1381  0.1609 -0.4110
21666SOL    HW176722  11.738   2.446   8.854  1.0088  0.6848 -0.4731
21666SOL    HW276723  11.779   2.515   8.725  0.9268 -0.7512 -1.2786
21667SOL     OW76724   3.316   2.413   6.775  0.0228  0.4692  0.2844
21667SOL    HW176725   3.232   2.449   6.803 -0.3956  0.3347 -0.7696
21667SOL    HW276726   3.296   2.323   6.748  1.0871 -0.7697  3.1480
21668SOL     OW76727   1.559  10.450   7.863 -0.3478 -0.5617  0.0910
21668SOL    HW176728   1.553  10.402   7.780 -1.0475  0.2403 -0.3332
21668SOL    HW276729   1.483  10.507   7.863 -0.1488 -0.2819  1.1269
21669SOL     OW76730   4.475  11.335   8.782  0.5501  0.0074 -0.1116
21669SOL    HW176731   4.459  11.350   8.689 -2.6047 -0.8768  0.1799
21669SOL    HW276732   4.439  11.412   8.826 -1.8016 -1.3490  0.5134
21670SOL     OW76733   8.584   7.615   4.134 -0.1195 -0.7373 -0.4697
21670SOL    HW176734   8.546   7.635   4.219 -0.2860 -1.4225 -0.3727
21670SOL    HW276735   8.579   7.520   4.127  0.4537 -0.7405 -0.9853
21671SOL     OW76736  11.907   3.497   5.828 -0.5552 -0.1038  0.2284
21671SOL    HW176737  11.910   3.554   5.906 -0.3146  0.2695 -0.0476
21671SOL    HW276738  11.941   3.413   5.858  1.9337  0.7343 -0.0449
21672SOL     OW76739   8.471   3.324   0.647  0.3659 -0.0127 -0.4294
21672SOL    HW176740   8.479   3.267   0.571  0.1469 -1.8307  0.8393
21672SOL    HW276741   8.377   3.328   0.664  0.5101 -1.0305  0.7264
21673SOL     OW76742   5.348   8.435   8.096 -0.8255 -0.2030 -0.6105
21673SOL    HW176743   5.348   8.531   8.098 -2.0540 -0.1204 -2.5605
21673SOL    HW276744   5.418   8.410   8.157 -2.0849  1.8456  1.8997
21674SOL     OW76745   3.694  10.908   6.258 -0.6653  0.6958 -0.0818
21674SOL    HW176746   3.647  10.987   6.233  0.4991  1.0720 -1.1918
21674SOL    HW276747   3.760  10.896   6.189  0.8544  0.1885  1.4000
21675SOL     OW76748   2.351   8.446  10.341  0.0941 -0.3538 -0.0041
21675SOL    HW176749   2.437   8.452  10.299 -0.5364  0.6686 -1.2306
21675SOL    HW276750   2.302   8.383  10.288 -0.4282  0.2831 -0.2960
21676SOL     OW76751   7.403  10.906   6.958 -0.1531  0.3830  0.3115
21676SOL    HW176752   7.358  10.898   7.042 -2.3275  0.9693 -0.7213
21676SOL    HW276753   7.436  10.996   6.956 -0.8435  0.6423  0.2239
21677SOL     OW76754  10.409   7.895   5.731 -0.4163 -0.0422  0.1739
21677SOL    HW176755  10.499   7.923   5.716 -0.4121 -0.5736 -0.9022
21677SOL    HW276756  10.357   7.973   5.712 -0.2468 -0.0495 -0.3518
21678SOL     OW76757   5.973   0.056   0.752 -0.2224 -0.0823  0.4575
21678SOL    HW176758   6.046   0.034   0.810  0.0472 -0.9816 -0.1856
21678SOL    HW276759   5.974   0.151   0.746  1.4787 -0.1070 -0.2278
21679SOL     OW76760   0.990   1.268   4.717 -0.2028 -0.2160 -0.0179
21679SOL    HW176761   0.957   1.286   4.629  0.2212 -1.3169 -0.4280
21679SOL    HW276762   1.024   1.352   4.748 -0.1250  0.1335 -1.0147
21680SOL     OW76763   7.686   6.134   8.252  0.1426  0.0819  0.4344
21680SOL    HW176764   7.699   6.067   8.185 -1.2823  0.5997 -0.4117
21680SOL    HW276765   7.635   6.090   8.320 -3.1494  0.8487 -1.3073
21681SOL     OW76766   3.761   4.224   2.051  0.3699  0.5463 -0.1701
21681SOL    HW176767   3.817   4.151   2.079  0.4497  0.6339 -0.0985
21681SOL    HW276768   3.775   4.292   2.118  0.0205  0.4925 -0.0423
21682SOL     OW76769   7.705   4.743   5.453  0.7879 -0.3560 -0.5881
21682SOL    HW176770   7.627   4.724   5.400 -0.0736  0.6261  0.2886
21682SOL    HW276771   7.703   4.676   5.522  0.9460 -0.5676 -0.7860
21683SOL     OW76772   7.048   4.583   1.444 -0.0431  0.6997  0.1625
21683SOL    HW176773   7.094   4.661   1.475  1.6582 -0.8143  1.7045
21683SOL    HW276774   7.073   4.575   1.352 -0.7422  2.2641 -0.1907
21684SOL     OW76775   5.419   1.014   9.641 -0.3325  0.0266  0.6864
21684SOL    HW176776   5.373   1.006   9.725 -0.0193 -0.3380  0.8256
21684SOL    HW276777   5.496   0.958   9.651 -1.1197 -1.2911 -0.4248
21685SOL     OW76778   3.014   4.264   3.943  0.1369 -0.1312  0.1438
21685SOL    HW176779   3.069   4.245   3.867 -0.0899  1.3480 -0.4080
21685SOL    HW276780   3.070   4.242   4.018  1.4551  1.1794 -0.4061
21686SOL     OW76781   0.708  10.382  10.106  0.1590  0.1216 -0.3540
21686SOL    HW176782   0.693  10.452  10.041 -0.6493  0.3505  0.0684
21686SOL    HW276783   0.798  10.354  10.090  0.6661  1.5774 -0.2412
21687SOL     OW76784   5.550   4.656   2.776 -0.0810 -0.3235  0.2716
21687SOL    HW176785   5.524   4.740   2.739  2.0830  0.3967  0.1969
21687SOL    HW276786   5.646   4.656   2.770  0.0273 -2.4809  0.9674
21688SOL     OW76787   0.360   9.608   2.609 -0.1942  0.2054  0.0637
21688SOL    HW176788   0.429   9.672   2.590 -0.2572  0.5949  1.0398
21688SOL    HW276789   0.347   9.615   2.704 -0.9496 -0.5077  0.0267
21689SOL     OW76790   5.154   6.411   5.763 -0.2820 -0.1175  0.4295
21689SOL    HW176791   5.095   6.455   5.824  0.0385  0.9505 -0.0180
21689SOL    HW276792   5.166   6.473   5.692 -0.6283 -1.3497 -0.7299
21690SOL     OW76793   1.775   4.214   6.400 -0.7150  0.1498 -0.6035
21690SOL    HW176794   1.862   4.236   6.432 -0.3567  1.5953 -2.4686
21690SOL    HW276795   1.723   4.292   6.416 -1.7233 -0.7198  0.5419
21691SOL     OW76796   5.836   2.408   1.298  0.1567 -0.6025  0.8678
21691SOL    HW176797   5.805   2.367   1.218  0.3212 -1.1724  1.0902
21691SOL    HW276798   5.925   2.374   1.310  0.6107  0.4476  0.6251
21692SOL     OW76799   9.898   0.146   8.458 -0.3354  0.5509  0.1259
21692SOL    HW176800   9.945   0.173   8.537  1.3831 -1.3858 -0.1639
21692SOL    HW276801   9.958   0.165   8.387 -0.4652 -0.8314 -0.3806
21693SOL     OW76802   8.602  10.454   0.531  0.0091  0.7223 -0.1079
21693SOL    HW176803   8.542  10.421   0.598 -0.4329  3.1192  0.7657
21693SOL    HW276804   8.564  10.424   0.449 -1.2959  0.5470  0.5276
21694SOL     OW76805   4.909   2.205   6.264  0.0965 -0.0714  0.2384
21694SOL    HW176806   4.970   2.241   6.328  0.5318 -1.3007  0.5424
21694SOL    HW276807   4.858   2.281   6.234  1.0281  0.7920  0.7815
21695SOL     OW76808   2.638   0.920   2.535  0.3154 -0.2588 -0.2799
21695SOL    HW176809   2.721   0.897   2.577  0.6466  0.8148 -0.3294
21695SOL    HW276810   2.658   0.918   2.441  0.2565 -0.1162 -0.2953
21696SOL     OW76811   8.474   5.219   4.932 -0.1016 -0.3040  0.5118
21696SOL    HW176812   8.523   5.302   4.930  2.3989 -1.6796 -1.0073
21696SOL    HW276813   8.471   5.195   5.025 -0.9493  1.4693  0.9890
21697SOL     OW76814   8.067   1.120   6.129  0.6769 -0.3927  0.8080
21697SOL    HW176815   8.065   1.215   6.115  1.9671 -0.2916  1.1093
21697SOL    HW276816   7.978   1.097   6.155 -0.0278  0.4961 -0.6960
21698SOL     OW76817   7.338   2.030  10.795 -0.3074 -0.0272 -0.5751
21698SOL    HW176818   7.354   2.067  10.881 -1.0351  1.7678 -1.1591
21698SOL    HW276819   7.397   1.955  10.789  0.4975  0.4405  1.0722
21699SOL     OW76820  11.294   9.164  10.711 -0.2922  0.6995  0.0561
21699SOL    HW176821  11.332   9.076  10.709  2.1098  1.5522  2.4461
21699SOL    HW276822  11.207   9.151  10.750 -0.5872 -0.7415 -0.9837
21700SOL     OW76823   1.587   0.464  11.203 -0.1091 -0.1372 -0.4806
21700SOL    HW176824   1.588   0.414  11.121  0.5046  0.4534 -0.8437
21700SOL    HW276825   1.630   0.407  11.266 -0.0625 -0.3616 -0.7135
21701SOL     OW76826  10.006   3.868   6.617  0.4683 -0.2439  0.1249
21701SOL    HW176827   9.982   3.781   6.648 -1.6489  0.0568 -0.5378
21701SOL    HW276828  10.055   3.907   6.689  1.0071 -1.7814  0.6181
21702SOL     OW76829   9.948   3.795   3.418  0.5003 -0.5193  0.0388
21702SOL    HW176830   9.883   3.814   3.486 -0.6383 -0.3086 -1.0765
21702SOL    HW276831  10.023   3.761   3.466  0.4390  1.3511  1.5819
21703SOL     OW76832   4.200   6.560  11.326  0.0967 -0.2523 -0.1245
21703SOL    HW176833   4.154   6.508  11.392 -1.4324 -0.6936 -1.4579
21703SOL    HW276834   4.268   6.502  11.292  0.6908 -0.1263  0.8122
21704SOL     OW76835   8.461   8.157  11.307  0.1644  0.2175 -0.1152
21704SOL    HW176836   8.378   8.136  11.348  0.4296 -1.0402 -0.1816
21704SOL    HW276837   8.503   8.072  11.291  2.0111  0.8398  1.0560
21705SOL     OW76838   0.655   5.043  10.418  0.0467  0.1387 -0.1775
21705SOL    HW176839   0.619   5.127  10.388  1.9265  1.4591  1.0106
21705SOL    HW276840   0.692   5.003  10.340 -0.1283  0.8215 -0.6160
21706SOL     OW76841   5.361   3.416   6.352 -0.1965  0.1257 -0.0452
21706SOL    HW176842   5.270   3.446   6.345 -0.1934 -0.0537 -1.0166
21706SOL    HW276843   5.413   3.496   6.348 -0.2219  0.0947 -1.8990
21707SOL     OW76844   2.541   9.098   5.999 -0.0609  0.3125 -0.0815
21707SOL    HW176845   2.621   9.085   5.948 -0.9218 -0.0325 -1.3806
21707SOL    HW276846   2.561   9.061   6.085  0.0506 -2.9915 -1.4147
21708SOL     OW76847   8.441  11.197   5.959  0.4583 -0.3705 -0.0663
21708SOL    HW176848   8.471  11.275   5.911  1.2219 -0.6305 -0.0314
21708SOL    HW276849   8.387  11.231   6.030  1.9250  0.2412  0.8042
21709SOL     OW76850   8.841   8.690  10.965  0.4578  0.4921 -0.1010
21709SOL    HW176851   8.911   8.626  10.952 -0.2682 -1.0771  2.7964
21709SOL    HW276852   8.760   8.639  10.956 -0.2039  1.4641  0.1687
21710SOL     OW76853   7.677   0.317  10.701  0.1404 -0.2299  0.1676
21710SOL    HW176854   7.708   0.259  10.771  1.6231 -0.4760 -0.6353
21710SOL    HW276855   7.732   0.395  10.709  0.3681 -0.2846 -0.7388
21711SOL     OW76856   8.276   2.876   6.835 -0.1851 -0.1444 -0.1128
21711SOL    HW176857   8.259   2.787   6.867 -0.0748 -0.0432  0.2265
21711SOL    HW276858   8.335   2.914   6.900  0.1198  0.0266 -0.4931
21712SOL     OW76859  10.775   7.626   3.220 -0.2258  0.4098 -0.4729
21712SOL    HW176860  10.773   7.645   3.314  1.6825  2.5867 -0.8003
21712SOL    HW276861  10.824   7.544   3.214 -0.1997  0.3441  0.4013
21713SOL     OW76862   6.595   7.506   7.907 -0.1721  0.0139  0.3484
21713SOL    HW176863   6.579   7.592   7.868  0.3037  0.4720  1.1444
21713SOL    HW276864   6.511   7.481   7.945  0.3429  1.5133  2.7497
21714SOL     OW76865   1.331   3.879  10.782  0.3425 -0.7557  0.3968
21714SOL    HW176866   1.258   3.850  10.837  1.6539  0.0384  2.7303
21714SOL    HW276867   1.307   3.967  10.754 -0.9647 -1.6716 -1.6455
21715SOL     OW76868   2.242   3.617   6.338  0.2337 -0.2755  0.2807
21715SOL    HW176869   2.335   3.602   6.322  0.2261  1.5661 -2.1082
21715SOL    HW276870   2.199   3.591   6.256 -1.2318 -0.1586  0.9787
21716SOL     OW76871   1.755   1.414   5.769  0.1639  0.4715 -0.1951
21716SOL    HW176872   1.695   1.345   5.743 -1.5606  1.3263  1.3244
21716SOL    HW276873   1.826   1.368   5.815 -0.6445 -0.3555  0.2599
21717SOL     OW76874   9.091   5.518   2.886  0.6592 -0.3973 -0.3089
21717SOL    HW176875   9.039   5.589   2.848  0.2433  0.4083  1.6557
21717SOL    HW276876   9.027   5.452   2.913  0.7297  0.0272  0.9575
21718SOL     OW76877   2.510   8.571   8.735 -0.3904  0.0916 -0.3988
21718SOL    HW176878   2.533   8.664   8.732  0.6767 -0.1281 -3.2921
21718SOL    HW276879   2.416   8.568   8.718 -0.1945  0.6665 -1.7568
21719SOL     OW76880   2.164   5.133   4.276  0.7070 -0.4687  0.2023
21719SOL    HW176881   2.148   5.169   4.364  1.6681 -0.5153  0.4041
21719SOL    HW276882   2.140   5.041   4.283 -1.3897 -0.0119 -0.2094
21720SOL     OW76883   6.768   6.615   4.009  0.2761 -0.3730  0.1176
21720SOL    HW176884   6.782   6.657   3.925 -0.3099 -0.5754 -0.0867
21720SOL    HW276885   6.732   6.529   3.988  4.5888 -2.5017  0.3394
21721SOL     OW76886   8.237   7.299   1.873  0.3378  0.2149  0.0363
21721SOL    HW176887   8.194   7.225   1.830  0.5183 -0.6261  1.2641
21721SOL    HW276888   8.293   7.337   1.805 -1.4132  0.6305 -1.2609
21722SOL     OW76889  10.814   8.282   9.630  0.2818  0.5188  0.1154
21722SOL    HW176890  10.766   8.269   9.548  0.7476 -2.2393  0.1889
21722SOL    HW276891  10.887   8.340   9.607 -0.3369  0.8506 -1.0779
21723SOL     OW76892   1.183   6.877   6.006 -0.4653  0.1480  0.0675
21723SOL    HW176893   1.247   6.813   5.976  0.1596  1.2654 -1.1342
21723SOL    HW276894   1.098   6.834   5.995  0.0517 -1.4930  2.0563
21724SOL     OW76895   7.420   2.490   1.068 -0.2072 -0.1389  0.2811
21724SOL    HW176896   7.351   2.444   1.022 -0.6284  1.3175 -0.6090
21724SOL    HW276897   7.394   2.582   1.065 -0.0199  0.0957  3.0600
21725SOL     OW76898   5.506   0.923   2.794  0.5325  0.5285 -0.1577
21725SOL    HW176899   5.570   0.873   2.742  2.6267  1.4114  1.4320
21725SOL    HW276900   5.509   1.011   2.756 -1.8279  0.0031 -1.7927
21726SOL     OW76901   9.304   0.604   1.569  0.3907 -0.4918  0.5641
21726SOL    HW176902   9.252   0.631   1.644 -1.8048  0.1927 -1.0812
21726SOL    HW276903   9.323   0.511   1.584 -0.7237 -0.5722  1.5471
21727SOL     OW76904   1.869   5.945   2.783  0.2127 -0.1455 -0.2364
21727SOL    HW176905   1.782   5.954   2.745 -0.5930  0.4570  1.6302
21727SOL    HW276906   1.897   6.035   2.800  1.4506 -0.2970 -1.2598
21728SOL     OW76907   7.805   1.028   6.167 -0.3026 -0.1544  0.4082
21728SOL    HW176908   7.800   0.947   6.116  0.1800 -0.7174  1.2355
21728SOL    HW276909   7.754   1.009   6.246  0.2411  0.1653  0.8399
21729SOL     OW76910   5.156   3.153  10.678 -0.4168 -0.3590 -0.5901
21729SOL    HW176911   5.066   3.182  10.691  0.5987  2.8143  0.1110
21729SOL    HW276912   5.197   3.164  10.763  0.6945 -1.7452 -0.9050
21730SOL     OW76913   7.714   9.312   0.520  0.0170 -0.8112 -0.8011
21730SOL    HW176914   7.673   9.233   0.484  1.7897 -3.0005  1.5660
21730SOL    HW276915   7.668   9.327   0.603  0.0437  0.3518 -0.9869
21731SOL     OW76916   5.538   5.039   0.694  0.1203  0.2063 -0.4494
21731SOL    HW176917   5.449   5.004   0.700  0.5765 -1.5622 -2.6013
21731SOL    HW276918   5.573   5.034   0.783 -1.4457 -0.4401  0.1480
21732SOL     OW76919   1.624   8.860   2.346 -0.1498 -0.8634  0.7519
21732SOL    HW176920   1.623   8.914   2.424 -0.4183  0.6469 -0.2488
21732SOL    HW276921   1.695   8.797   2.360 -0.3510 -0.7708  2.2783
21733SOL     OW76922   4.622   2.516   6.474  0.2933  0.3337  0.1871
21733SOL    HW176923   4.609   2.549   6.385 -1.7189  2.1152  1.0333
21733SOL    HW276924   4.536   2.481   6.499  1.6198 -3.1131  0.4007
21734SOL     OW76925  10.478   5.821  11.126 -0.7928 -0.1024 -0.0495
21734SOL    HW176926  10.505   5.846  11.215  0.0975 -1.0493 -0.0388
21734SOL    HW276927  10.551   5.850  11.071 -1.0695 -0.0684 -0.3964
21735SOL     OW76928   5.952   5.366  10.735 -0.1259 -0.3824  0.4056
21735SOL    HW176929   5.951   5.460  10.718 -1.1138 -0.6399 -1.2028
21735SOL    HW276930   6.039   5.338  10.707 -0.1804 -0.0825 -0.0838
21736SOL     OW76931  10.617   4.584   6.163 -0.1158 -0.1496  0.2447
21736SOL    HW176932  10.636   4.676   6.144  1.5737 -0.2986  1.0230
21736SOL    HW276933  10.607   4.580   6.258 -0.0832 -0.7770  0.2255
21737SOL     OW76934   7.446   2.498   2.714 -0.0111  0.2256  0.8538
21737SOL    HW176935   7.367   2.451   2.686  1.7164 -1.4594 -1.5694
21737SOL    HW276936   7.517   2.435   2.704  2.2213  2.7829 -0.9743
21738SOL     OW76937   9.807   2.713   0.009 -0.3420 -0.3736  0.3018
21738SOL    HW176938   9.790   2.806  -0.002 -0.7045 -0.1758  2.2075
21738SOL    HW276939   9.848   2.686  -0.073  1.5912  1.8872  0.4207
21739SOL     OW76940   7.734  11.735  11.700 -0.0642 -0.3171 -0.1418
21739SOL    HW176941   7.646  11.702  11.715 -0.4141  0.6249 -0.0278
21739SOL    HW276942   7.790  11.680  11.754 -0.2353 -2.5613 -2.0985
21740SOL     OW76943  10.092   2.452   8.796 -0.1354  0.3009 -0.0674
21740SOL    HW176944  10.150   2.498   8.857 -2.4164  0.6546  1.9836
21740SOL    HW276945  10.100   2.500   8.714  1.1289  1.3828  0.6539
21741SOL     OW76946   2.455   1.888   9.204 -0.0612 -0.5350 -0.6030
21741SOL    HW176947   2.512   1.812   9.216  0.4188 -0.4590 -2.1509
21741SOL    HW276948   2.391   1.882   9.274  0.8147 -1.5940  0.1321
21742SOL     OW76949  10.905   8.221   3.783  0.2089 -0.2656  0.0147
21742SOL    HW176950  10.865   8.227   3.696 -1.7770 -0.8614  0.8308
21742SOL    HW276951  10.944   8.307   3.797  0.6789 -0.2021 -1.5103
21743SOL     OW76952  11.529   2.795   0.523  0.1670  0.2044 -0.0603
21743SOL    HW176953  11.531   2.807   0.428  2.3326  0.1682 -0.0594
21743SOL    HW276954  11.437   2.776   0.542 -0.6994  2.1522 -1.8865
21744SOL     OW76955   8.087   4.468   3.866 -0.0561 -0.0783 -0.4289
21744SOL    HW176956   8.165   4.424   3.830 -0.7472 -1.4880 -0.2917
21744SOL    HW276957   8.082   4.550   3.819  0.7075 -0.6020 -1.4736
21745SOL     OW76958   8.439   4.514   4.575 -0.5280  0.0223  0.2860
21745SOL    HW176959   8.525   4.492   4.541 -0.7460 -0.2210 -0.1233
21745SOL    HW276960   8.390   4.432   4.569 -0.7689  0.1454  0.5661
21746SOL     OW76961   5.512   9.284  10.204  0.5255  0.0737 -0.4714
21746SOL    HW176962   5.591   9.337  10.214  0.4552  0.2172 -0.6581
21746SOL    HW276963   5.441   9.348  10.195 -0.0655  0.0135  2.6915
21747SOL     OW76964   9.251   3.906   8.914 -0.0256 -0.1577  0.5261
21747SOL    HW176965   9.163   3.884   8.947 -0.7393  0.2919 -1.0015
21747SOL    HW276966   9.294   3.821   8.903 -0.5007 -0.4226  0.6821
21748SOL     OW76967   3.732   7.141   1.269 -0.2996 -0.7409  0.2781
21748SOL    HW176968   3.778   7.100   1.342  0.0113  0.5324  0.8237
21748SOL    HW276969   3.790   7.212   1.240 -0.3971 -1.2365 -1.2352
21749SOL     OW76970   2.225  10.931   9.268  0.1384  0.3184  0.0053
21749SOL    HW176971   2.247  11.010   9.219  2.1858 -0.9137 -1.1929
21749SOL    HW276972   2.192  10.870   9.202  0.4473 -0.4818  0.5745
21750SOL     OW76973   6.529   8.055   5.729  0.6813  0.5687  0.4627
21750SOL    HW176974   6.527   8.094   5.642 -0.8738  0.0125  0.2271
21750SOL    HW276975   6.496   8.123   5.787 -0.1606  0.2855  0.3271
21751SOL     OW76976   8.411   5.202   7.936  0.5833  0.2959  0.6882
21751SOL    HW176977   8.395   5.180   8.028  1.2923  0.3534  0.8303
21751SOL    HW276978   8.506   5.190   7.924  0.3383 -0.9318 -0.3574
21752SOL     OW76979   1.742   3.792   8.997  0.0490  0.2803 -0.6034
21752SOL    HW176980   1.784   3.858   9.051  1.6492 -1.8309  0.9109
21752SOL    HW276981   1.757   3.821   8.907  2.3376  1.0602 -0.0252
21753SOL     OW76982   2.727  10.790  11.289  0.6251 -0.1731 -0.6297
21753SOL    HW176983   2.740  10.870  11.341 -2.9923  0.6761 -0.7880
21753SOL    HW276984   2.689  10.727  11.350 -0.8762 -0.1597 -1.4969
21754SOL     OW76985   9.844   9.481   9.616  0.0640  0.3719  0.0682
21754SOL    HW176986   9.820   9.565   9.577  1.1285  1.4054  1.5535
21754SOL    HW276987   9.917   9.450   9.562  1.0182  1.4157  0.7140
21755SOL     OW76988   7.448   2.362   3.003  0.0438 -0.1678 -0.6869
21755SOL    HW176989   7.376   2.423   2.990  0.2599  0.1008 -0.6369
21755SOL    HW276990   7.506   2.376   2.928 -0.1352 -0.6393 -0.9157
21756SOL     OW76991  10.926   3.450   6.119 -0.3292 -0.0614 -0.1402
21756SOL    HW176992  11.016   3.453   6.087 -0.0702 -0.6192  0.5084
21756SOL    HW276993  10.908   3.357   6.130 -1.0368  0.0390 -0.3793
21757SOL     OW76994   7.318   7.596   8.845 -0.5270  0.1917 -0.3872
21757SOL    HW176995   7.224   7.582   8.836 -0.7089  1.9246 -1.7672
21757SOL    HW276996   7.326   7.682   8.886  0.4693 -0.1370  0.1497
21758SOL     OW76997   5.157   9.327   0.988  0.1571 -0.0395 -0.1222
21758SOL    HW176998   5.194   9.352   0.904 -0.5293 -0.0272 -0.4231
21758SOL    HW276999   5.126   9.408   1.027 -0.8604 -0.2335 -0.5118
21759SOL     OW77000   5.177   8.574   7.061  0.1549 -0.0535 -0.2521
21759SOL    HW177001   5.193   8.524   6.980  1.1167  0.7339 -0.5796
21759SOL    HW277002   5.198   8.664   7.037 -2.4603  0.6993  0.0647
21760SOL     OW77003   6.705   6.959   7.104  0.2615 -0.1199  0.2303
21760SOL    HW177004   6.771   6.928   7.041  0.2079  0.9796 -0.4018
21760SOL    HW277005   6.685   7.048   7.074 -3.0755 -1.1273 -0.9199
21761SOL     OW77006  10.018   9.559   1.347 -0.4762  0.3217  0.3104
21761SOL    HW177007   9.973   9.477   1.328  1.7047 -0.7400 -0.5745
21761SOL    HW277008  10.089   9.534   1.406 -0.1543  1.6885  0.5381
21762SOL     OW77009   5.733   4.658  11.340  0.0381  0.1676  0.8802
21762SOL    HW177010   5.789   4.719  11.291 -1.0092  0.6010  0.1815
21762SOL    HW277011   5.667   4.714  11.381 -2.7874 -0.6389 -2.1953
21763SOL     OW77012   0.878   5.887   6.408 -0.8350  0.1529  0.0714
21763SOL    HW177013   0.896   5.930   6.492  0.3908  0.9460 -0.5572
21763SOL    HW277014   0.937   5.812   6.406  0.9956  1.5429 -1.0911
21764SOL     OW77015   2.303  11.421   5.527 -0.2934 -0.1720 -0.2822
21764SOL    HW177016   2.379  11.372   5.496 -1.7917 -1.7703 -1.6767
21764SOL    HW277017   2.297  11.496   5.468 -0.4882 -0.7313 -0.9944
21765SOL     OW77018  10.770  11.685   7.397  0.0193 -0.1612  0.3171
21765SOL    HW177019  10.731  11.630   7.465 -1.7810 -2.1740 -2.1083
21765SOL    HW277020  10.718  11.665   7.319  1.5579  2.4753 -1.5289
21766SOL     OW77021   8.597   6.411   9.034  0.0971  0.4775  0.2893
21766SOL    HW177022   8.535   6.473   9.072 -0.1874  1.0147 -0.9728
21766SOL    HW277023   8.542   6.352   8.982  0.4318 -0.4809  0.9973
21767SOL     OW77024   4.553   2.770   0.283  0.3719  0.1329  0.5086
21767SOL    HW177025   4.538   2.683   0.321  1.2351  0.3767  1.4713
21767SOL    HW277026   4.468   2.795   0.245  0.2946 -1.4010 -0.3941
21768SOL     OW77027   9.894   1.037   3.324  0.0715  0.1617 -0.3420
21768SOL    HW177028   9.902   1.124   3.285 -1.6292 -0.3390 -1.9203
21768SOL    HW277029   9.921   0.977   3.254 -0.8780 -0.6634 -0.0214
21769SOL     OW77030   5.747   4.444   9.576 -0.2241  0.0245  0.1257
21769SOL    HW177031   5.819   4.419   9.633 -0.4433  0.7064  0.7177
21769SOL    HW277032   5.748   4.540   9.576 -0.9663  0.0427 -0.0668
21770SOL     OW77033   3.972   8.757   8.239 -0.2338 -0.5260 -0.5824
21770SOL    HW177034   3.969   8.852   8.225 -2.0273 -0.6940 -1.6752
21770SOL    HW277035   3.948   8.745   8.330  2.5504  0.1423  0.3446
21771SOL     OW77036  11.781   2.627   3.632 -0.0794  0.1902 -0.3080
21771SOL    HW177037  11.698   2.647   3.677  2.2342  4.0026  2.8846
21771SOL    HW277038  11.838   2.593   3.701  2.0081  0.8469 -1.6289
21772SOL     OW77039   7.164   2.771   6.820  0.0230  0.2225 -0.2146
21772SOL    HW177040   7.226   2.837   6.788 -2.4417  1.7659 -2.2638
21772SOL    HW277041   7.083   2.821   6.836 -1.1977 -1.9339  0.7488
21773SOL     OW77042   3.995   0.291   2.693 -0.2021  0.3469 -0.1223
21773SOL    HW177043   4.049   0.331   2.625  0.3881  0.6884  0.5290
21773SOL    HW277044   4.003   0.197   2.678 -2.1341  0.4110 -2.0869
21774SOL     OW77045   4.683   7.878   1.938  0.3422 -0.1987 -0.2645
21774SOL    HW177046   4.629   7.856   1.862 -0.5186  1.2500 -0.0892
21774SOL    HW277047   4.667   7.807   2.000 -1.6498  0.3835 -0.0708
21775SOL     OW77048   6.386  10.994   3.622 -0.6678 -0.5020  0.4670
21775SOL    HW177049   6.320  10.981   3.690  0.4734  0.5246  1.8308
21775SOL    HW277050   6.469  10.996   3.670  0.2221 -0.3088 -1.0402
21776SOL     OW77051   3.831   2.854   9.997  0.1582 -0.5719  0.0910
21776SOL    HW177052   3.837   2.948   9.984 -3.8574 -0.3020 -1.1170
21776SOL    HW277053   3.898   2.818   9.938 -0.0142  1.4964 -1.4944
21777SOL     OW77054  11.203   3.448  11.241  0.0692 -0.1754 -0.2787
21777SOL    HW177055  11.135   3.398  11.286 -0.4406  0.8119  0.0767
21777SOL    HW277056  11.217   3.525  11.296 -0.3419  0.8975 -1.6195
21778SOL     OW77057   6.426  11.416   5.346  0.8374  0.4088 -0.2461
21778SOL    HW177058   6.355  11.447   5.290  1.8207  1.6675 -0.8357
21778SOL    HW277059   6.505  11.453   5.308  1.8917 -1.2729  0.1684
21779SOL     OW77060  11.567   1.653  10.061 -0.1277 -0.1495  0.2934
21779SOL    HW177061  11.553   1.650  10.156 -3.4874  0.3487 -0.0617
21779SOL    HW277062  11.523   1.574  10.028  2.4760 -1.2613 -0.8047
21780SOL     OW77063   6.527   2.996  11.502 -0.4713  0.4818 -0.3503
21780SOL    HW177064   6.522   2.995  11.598 -0.6226 -0.8643 -0.3455
21780SOL    HW277065   6.502   3.085  11.478 -4.2492 -0.0783  0.7227
21781SOL     OW77066   2.565   4.717   5.207  0.1300  0.0119 -0.1121
21781SOL    HW177067   2.627   4.773   5.255  0.8654 -1.6854  0.9877
21781SOL    HW277068   2.514   4.674   5.275 -1.5045  0.4727 -0.9841
21782SOL     OW77069  11.919   2.582  10.719  0.4346 -0.2641 -0.0431
21782SOL    HW177070  12.014   2.589  10.723  0.7233 -1.9386 -2.1521
21782SOL    HW277071  11.893   2.648  10.655 -0.0248  1.0382  1.4113
21783SOL     OW77072   5.911   6.843  10.000  0.5196  0.0833  0.1746
21783SOL    HW177073   5.848   6.771  10.003 -0.8605  1.2754  1.3134
21783SOL    HW277074   5.862   6.920  10.030  2.3078  1.2351  0.3384
21784SOL     OW77075   1.568   3.908   4.752 -0.7414  0.3855  0.2221
21784SOL    HW177076   1.533   3.977   4.695 -0.7761 -0.3542 -0.6805
21784SOL    HW277077   1.549   3.827   4.705 -0.5720 -0.2382  1.1989
21785SOL     OW77078   9.100   7.178   8.814 -0.0040  0.0313 -0.8858
21785SOL    HW177079   9.062   7.255   8.770  1.1765 -0.7895 -3.5087
21785SOL    HW277080   9.165   7.215   8.874 -2.5413  1.2601  1.3454
21786SOL     OW77081   2.617   8.019   0.209 -0.0593  0.1887  0.0599
21786SOL    HW177082   2.619   7.930   0.174 -0.7020 -1.3213  3.4672
21786SOL    HW277083   2.679   8.067   0.154 -0.2073 -2.1096 -2.3697
21787SOL     OW77084   4.235  10.795   1.170  0.4809 -0.4912  0.6811
21787SOL    HW177085   4.269  10.706   1.159  0.6538 -0.4598  0.9450
21787SOL    HW277086   4.168  10.804   1.103  0.1895 -0.9562  0.9052
21788SOL     OW77087   3.013   7.387   5.310 -0.2419 -0.3658 -0.3402
21788SOL    HW177088   3.083   7.355   5.253  0.3123  0.9539 -0.4409
21788SOL    HW277089   2.959   7.441   5.254  1.5874  2.8501  0.7505
21789SOL     OW77090   6.484   5.855  11.055  0.3740 -0.2161  0.3981
21789SOL    HW177091   6.439   5.782  11.014  2.2742 -1.2356  0.0375
21789SOL    HW277092   6.544   5.887  10.988  0.4110  0.9282  0.9516
21790SOL     OW77093  10.540   2.375   2.137  0.0796  0.4139 -0.0654
21790SOL    HW177094  10.535   2.424   2.219 -0.6871 -0.2486  0.2915
21790SOL    HW277095  10.580   2.291   2.162  2.1114  1.0983 -0.8040
21791SOL     OW77096   6.231  11.550   6.249  0.1939 -0.2413 -0.3634
21791SOL    HW177097   6.157  11.574   6.193  0.0394  0.4749  0.1343
21791SOL    HW277098   6.252  11.460   6.223 -0.3661 -0.1918 -1.0303
21792SOL     OW77099   4.750  11.215   8.460  0.3769  0.0680 -0.8711
21792SOL    HW177100   4.754  11.180   8.371  0.2765 -1.6385 -0.2374
21792SOL    HW277101   4.656  11.225   8.477  0.3577 -0.6217 -0.5760
21793SOL     OW77102   7.139   6.996  10.572  0.5607  0.0407 -1.0858
21793SOL    HW177103   7.198   7.021  10.643 -0.1992 -1.3174  0.0611
21793SOL    HW277104   7.182   7.029  10.493  1.9328  0.6842 -0.1146
21794SOL     OW77105   5.989   3.038   2.012  0.1140 -0.2456 -0.1680
21794SOL    HW177106   6.032   2.967   2.060 -0.1591  0.3437  0.9833
21794SOL    HW277107   5.896   3.020   2.021  0.0246  0.5111  0.5663
21795SOL     OW77108   1.722   0.527   1.993  0.2176 -0.7253 -0.0040
21795SOL    HW177109   1.782   0.456   2.017  0.1021 -1.7846 -2.4969
21795SOL    HW277110   1.770   0.578   1.929 -0.5781  0.0221 -0.0240
21796SOL     OW77111   3.675   2.828   0.864  0.8222 -1.0147  0.0714
21796SOL    HW177112   3.641   2.743   0.836 -0.8527 -0.4247  0.1583
21796SOL    HW277113   3.731   2.857   0.792 -0.9441 -0.9116 -1.3552
21797SOL     OW77114   8.123   6.119   1.241 -0.5624 -0.2652  0.1910
21797SOL    HW177115   8.156   6.033   1.265 -0.0098 -0.3244 -0.7507
21797SOL    HW277116   8.200   6.168   1.211 -0.8436  0.6049  0.8350
21798SOL     OW77117   8.132   5.964   7.431  0.3164  0.1357 -0.3919
21798SOL    HW177118   8.153   5.963   7.338 -0.4956 -2.4919 -0.6176
21798SOL    HW277119   8.069   6.036   7.441 -1.5163 -1.0604 -2.4090
21799SOL     OW77120   2.237   1.587   4.365  0.0657  0.6800 -0.3393
21799SOL    HW177121   2.303   1.620   4.304  0.5519  2.9387  1.2963
21799SOL    HW277122   2.166   1.650   4.360 -1.4033 -0.9395 -0.9793
21800SOL     OW77123   2.978   6.051   6.721 -0.1003  0.1434 -0.2312
21800SOL    HW177124   3.036   5.977   6.738 -0.8378 -0.5114 -0.4873
21800SOL    HW277125   2.931   6.065   6.803 -1.2162 -0.8225 -0.6736
21801SOL     OW77126   7.362   2.663   5.704 -0.4537  0.2144 -0.7728
21801SOL    HW177127   7.388   2.755   5.700  1.9874 -0.4264 -2.6074
21801SOL    HW277128   7.374   2.638   5.796  2.0611  0.9929 -0.7980
21802SOL     OW77129   4.665   1.607   0.321 -0.5765 -0.1092 -0.6727
21802SOL    HW177130   4.736   1.631   0.261 -0.1437 -0.1363 -0.1859
21802SOL    HW277131   4.592   1.663   0.296  0.3475  1.6304  0.3303
21803SOL     OW77132   8.325   5.151   5.873 -0.5944 -0.3350 -0.5608
21803SOL    HW177133   8.396   5.210   5.850 -0.9716  0.3404 -0.0342
21803SOL    HW277134   8.246   5.205   5.868 -0.8869 -0.6395  0.4531
21804SOL     OW77135   9.556   3.895  10.454  0.4979 -0.0041 -0.1695
21804SOL    HW177136   9.521   3.968  10.505 -0.0756 -0.3972  0.0179
21804SOL    HW277137   9.608   3.845  10.517 -0.6592 -0.7959  0.2034
21805SOL     OW77138   0.214   7.257   8.466 -0.0137  0.3405 -0.3497
21805SOL    HW177139   0.256   7.172   8.452  0.4409  0.4668  0.1886
21805SOL    HW277140   0.232   7.277   8.558  0.9014  1.5576 -0.7717
21806SOL     OW77141   9.580   9.196  11.922 -0.2325 -1.0447  0.0082
21806SOL    HW177142   9.548   9.108  11.900 -0.2037 -0.7491 -1.2832
21806SOL    HW277143   9.505   9.254  11.909 -0.1401 -0.8096  0.4687
21807SOL     OW77144   7.457   5.633   7.121  1.1139 -0.4551 -0.0838
21807SOL    HW177145   7.529   5.684   7.084 -0.1017  0.3563 -1.4894
21807SOL    HW277146   7.447   5.667   7.210  1.9064  0.0275 -0.1661
21808SOL     OW77147   8.753   6.501   5.159  0.1717  0.0047  0.0866
21808SOL    HW177148   8.790   6.578   5.201 -1.1477  0.0684  1.2058
21808SOL    HW277149   8.669   6.488   5.203 -0.3784 -1.0916 -1.2157
21809SOL     OW77150   3.584   3.463   8.489 -0.1930 -0.2319 -0.6482
21809SOL    HW177151   3.595   3.381   8.537 -1.6014  0.8083  1.6151
21809SOL    HW277152   3.511   3.507   8.532 -0.5153  1.5420 -2.7985
21810SOL     OW77153   9.757   6.586   6.996  0.1339  0.2560  1.1690
21810SOL    HW177154   9.702   6.516   7.030 -0.6523  0.9347  1.3365
21810SOL    HW277155   9.696   6.644   6.949  0.9599  0.1176 -0.1481
21811SOL     OW77156   1.921   3.959   0.112 -0.2159  0.0247  0.1930
21811SOL    HW177157   1.997   3.920   0.155 -0.4232 -0.6048 -0.0125
21811SOL    HW277158   1.951   4.047   0.088 -0.1207  0.4417  1.7025
21812SOL     OW77159   5.022   7.248   3.819  0.4193 -0.3166  0.1425
21812SOL    HW177160   5.004   7.340   3.798 -1.6226 -0.2055  1.9026
21812SOL    HW277161   4.974   7.199   3.753 -1.0338 -0.0361  0.9370
21813SOL     OW77162   1.958   9.009   5.231  0.4721  0.4244  0.2327
21813SOL    HW177163   1.987   8.923   5.201  1.0731  0.9552 -0.7515
21813SOL    HW277164   1.862   9.003   5.232  0.5200 -0.4623  0.8446
21814SOL     OW77165   7.793   3.395   6.796  0.5039 -0.3180 -0.0467
21814SOL    HW177166   7.701   3.396   6.769  0.3238 -2.7512  0.2750
21814SOL    HW277167   7.789   3.387   6.891  1.0722  0.3450  0.0381
21815SOL     OW77168   5.581   4.097   5.803  0.5708  0.2077  0.3410
21815SOL    HW177169   5.553   4.152   5.730  0.9058  0.6317  0.5271
21815SOL    HW277170   5.501   4.081   5.853  0.2998 -0.2665 -0.2331
21816SOL     OW77171   0.571   5.551   6.979 -0.5408  0.3596 -0.4323
21816SOL    HW177172   0.531   5.557   6.892 -0.2799  1.1539 -0.5071
21816SOL    HW277173   0.568   5.641   7.013 -0.5239  0.0758  0.3257
21817SOL     OW77174   8.240   6.643   9.898  0.2276  0.0991  0.5588
21817SOL    HW177175   8.292   6.578   9.945  1.2010 -0.2036 -0.8668
21817SOL    HW277176   8.149   6.616   9.913  0.5825 -1.0292  0.7851
21818SOL     OW77177   2.858   0.942   3.598 -0.7100 -0.2170  0.1112
21818SOL    HW177178   2.905   0.959   3.517 -0.0383 -1.2993  0.2498
21818SOL    HW277179   2.827   0.851   3.588 -1.9485  0.1554  0.4228
21819SOL     OW77180   4.354  10.518   2.945  0.3790  0.0283 -0.2097
21819SOL    HW177181   4.314  10.441   2.906  0.5623  0.5464 -1.4491
21819SOL    HW277182   4.428  10.484   2.997 -0.2367 -0.7128  0.1935
21820SOL     OW77183   8.460   9.136   1.487 -0.0022 -0.2835 -0.7144
21820SOL    HW177184   8.439   9.057   1.538  1.2241  0.0989  0.4260
21820SOL    HW277185   8.378   9.185   1.485  0.2292  0.4056  2.2287
21821SOL     OW77186  11.424   7.155   9.849  1.0396  0.0836 -0.4133
21821SOL    HW177187  11.353   7.090   9.846  0.0498  1.1590 -1.6044
21821SOL    HW277188  11.385   7.231   9.893  2.1872 -0.0863  0.9647
21822SOL     OW77189   4.241   2.142   3.911  0.1593 -0.2230 -0.2854
21822SOL    HW177190   4.226   2.112   4.000 -0.4334  1.2711  0.1549
21822SOL    HW277191   4.310   2.085   3.877 -1.0010 -2.1581  0.4039
21823SOL     OW77192   3.180  11.340   9.923  0.4534 -0.1684  0.0856
21823SOL    HW177193   3.185  11.417   9.979  0.7682  0.0775 -0.2723
21823SOL    HW277194   3.120  11.366   9.852  0.5329 -0.2633 -0.0165
21824SOL     OW77195   8.900   8.649   1.730 -0.2499 -0.9254  0.1717
21824SOL    HW177196   8.899   8.652   1.634  1.5956 -0.7321  0.1198
21824SOL    HW277197   8.867   8.735   1.757  0.9072 -0.2998 -0.3375
21825SOL     OW77198   4.595  10.156   3.142  0.0488  0.0443  0.1597
21825SOL    HW177199   4.516  10.103   3.150  0.7664 -1.0013  0.4422
21825SOL    HW277200   4.654  10.123   3.210  1.4224 -0.4221 -1.2117
21826SOL     OW77201   8.718   3.417  10.551  0.4070 -0.4189  0.1745
21826SOL    HW177202   8.632   3.421  10.592  0.0088  0.0509 -0.6820
21826SOL    HW277203   8.718   3.489  10.488  1.4278 -0.4128  0.1621
21827SOL     OW77204   9.407   8.949   7.390  0.1998  0.2741  0.6076
21827SOL    HW177205   9.419   9.044   7.390 -1.0928  0.4542  0.2046
21827SOL    HW277206   9.371   8.929   7.303 -1.6707 -0.2761  1.4594
21828SOL     OW77207   1.528   0.151   5.297 -0.3610  1.0906  0.2886
21828SOL    HW177208   1.509   0.058   5.311 -1.9560  1.6152  2.0150
21828SOL    HW277209   1.484   0.173   5.215  1.7740 -0.0787 -1.2786
21829SOL     OW77210  10.232  11.538   9.869  0.4563 -0.2330 -0.5230
21829SOL    HW177211  10.281  11.476   9.924 -1.8041 -1.1773  0.5571
21829SOL    HW277212  10.205  11.486   9.793 -0.6548 -0.3565 -0.0648
21830SOL     OW77213   5.241   4.965   8.424 -0.2284 -0.0696 -0.2572
21830SOL    HW177214   5.320   4.965   8.478 -0.6666  0.9275  0.4117
21830SOL    HW277215   5.193   4.887   8.451  1.2023 -1.5213 -1.7269
21831SOL     OW77216   8.917   0.243   9.392  0.2910  0.0636  0.1338
21831SOL    HW177217   8.961   0.265   9.474  0.4210 -0.9067  0.3396
21831SOL    HW277218   8.860   0.318   9.374  0.7717  0.5857  0.7479
21832SOL     OW77219   5.737   5.965   6.523 -0.5601 -0.1315 -0.0821
21832SOL    HW177220   5.827   5.984   6.548 -1.5106  2.8283  1.5344
21832SOL    HW277221   5.712   5.890   6.578  0.6990 -0.5380 -0.0522
21833SOL     OW77222  10.595   4.869   0.776  0.2961  0.3482 -0.8191
21833SOL    HW177223  10.619   4.777   0.782 -0.2285  0.2497 -0.1889
21833SOL    HW277224  10.568   4.881   0.685 -0.4837 -0.3366 -0.6886
21834SOL     OW77225   4.574  11.116   1.253  0.3480  0.2534 -0.2752
21834SOL    HW177226   4.619  11.082   1.330  0.4462 -4.1680 -1.9754
21834SOL    HW277227   4.637  11.175   1.212  0.7221  1.7854  2.3365
21835SOL     OW77228   0.853   0.054   8.387  0.2460  0.3365  0.3165
21835SOL    HW177229   0.783   0.018   8.443  1.4649 -0.7571  1.2035
21835SOL    HW277230   0.895  -0.023   8.349  0.2421  1.0269 -1.1628
21836SOL     OW77231   9.684  11.857  11.821  0.2514  0.2108  0.2069
21836SOL    HW177232   9.610  11.800  11.802  0.2029  0.1683  0.5067
21836SOL    HW277233   9.744  11.802  11.872  1.2276 -0.2374 -1.3744
21837SOL     OW77234   0.463   4.858   9.747 -0.0877 -0.1490  0.1733
21837SOL    HW177235   0.528   4.788   9.758  0.0928  0.0751  0.5659
21837SOL    HW277236   0.388   4.828   9.797 -0.2049 -0.3062 -0.0973
21838SOL     OW77237  11.208  10.793   9.732  0.2316 -0.2781 -0.1326
21838SOL    HW177238  11.210  10.744   9.650  1.0450 -0.5358  0.0273
21838SOL    HW277239  11.240  10.880   9.710  1.0358 -0.5218  0.0011
21839SOL     OW77240   4.279  10.644   6.731  0.5063  0.1211  0.5672
21839SOL    HW177241   4.290  10.608   6.644  0.4382  1.2142  0.0835
21839SOL    HW277242   4.284  10.739   6.718 -0.0498  0.3163  1.6698
21840SOL     OW77243   7.317   8.415  11.397  0.3030 -0.2586 -0.2063
21840SOL    HW177244   7.281   8.389  11.482 -0.7554 -0.6662 -0.7581
21840SOL    HW277245   7.240   8.431  11.343  0.9429  2.1757 -0.4762
21841SOL     OW77246   0.837   6.092   2.845 -0.1226 -0.1543 -0.8338
21841SOL    HW177247   0.783   6.025   2.887 -1.0530  1.0083 -0.0905
21841SOL    HW277248   0.821   6.082   2.752 -0.3506 -0.8706 -0.7223
21842SOL     OW77249   5.150   7.924   6.668 -0.5319 -0.1610 -0.1549
21842SOL    HW177250   5.120   7.923   6.758  0.6205 -0.6253  0.2352
21842SOL    HW277251   5.201   7.844   6.658 -0.4378  0.0091 -1.1479
21843SOL     OW77252   7.615   3.821   1.352 -0.0688 -0.0881  0.2863
21843SOL    HW177253   7.566   3.865   1.421  1.2841  0.2872  1.0509
21843SOL    HW277254   7.587   3.863   1.271 -0.4264  0.6443  0.7838
21844SOL     OW77255   8.391   4.403   9.574  0.1997  0.0623  0.2010
21844SOL    HW177256   8.429   4.407   9.662  1.8900 -1.0296 -0.4338
21844SOL    HW277257   8.317   4.464   9.578  0.6634  0.5944  2.1556
21845SOL     OW77258   6.231   6.890   1.176 -0.1561  0.2587 -0.2778
21845SOL    HW177259   6.180   6.962   1.137  1.0715  1.2533 -0.1116
21845SOL    HW277260   6.306   6.881   1.118 -0.0318 -0.5495  0.0043
21846SOL     OW77261   1.159   0.001   5.935 -0.1460 -0.1587  0.0373
21846SOL    HW177262   1.253  -0.013   5.949  0.3790  1.8921 -1.0208
21846SOL    HW277263   1.129   0.045   6.015 -0.0250 -0.1215  0.0632
21847SOL     OW77264   7.580   8.704   4.512 -0.2207  0.3597 -0.3591
21847SOL    HW177265   7.508   8.644   4.493 -0.0423  0.5153 -1.5997
21847SOL    HW277266   7.595   8.751   4.430 -0.2538  2.0021  0.5433
21848SOL     OW77267   4.020   0.808   0.849  0.0454  0.2638 -0.4714
21848SOL    HW177268   4.113   0.827   0.864 -0.2355  1.0050  0.4878
21848SOL    HW277269   3.976   0.892   0.868 -0.8543 -0.2098 -0.4211
21849SOL     OW77270   2.806   7.849   1.229  0.9011  0.8105  0.2709
21849SOL    HW177271   2.869   7.790   1.188  0.6868  0.2719  0.7090
21849SOL    HW277272   2.857   7.898   1.294  0.6568 -0.4399  1.4396
21850SOL     OW77273   5.312   9.528   0.847 -0.0783  0.5350  0.3324
21850SOL    HW177274   5.370   9.558   0.777 -1.7458  0.0036 -1.3414
21850SOL    HW277275   5.244   9.596   0.853  1.2345  1.7815  3.1070
21851SOL     OW77276   1.431   7.559   3.202  0.0546 -0.9569  0.3033
21851SOL    HW177277   1.523   7.576   3.218 -0.1067  0.0500  0.2224
21851SOL    HW277278   1.428   7.521   3.114  0.3883 -1.0864  0.3466
21852SOL     OW77279   2.745   2.663   7.410  0.9880 -0.2314  0.1033
21852SOL    HW177280   2.675   2.635   7.351 -0.1408 -2.0757  2.1658
21852SOL    HW277281   2.810   2.593   7.405  1.2503 -0.0132  0.4236
21853SOL     OW77282   4.479   2.706  10.433  0.3356 -0.2128 -0.0978
21853SOL    HW177283   4.395   2.707  10.387  0.4938  0.4243 -0.3872
21853SOL    HW277284   4.512   2.617  10.420 -0.0948 -0.3383 -0.3522
21854SOL     OW77285   3.657   5.353   6.260  0.4588  0.1707  0.3296
21854SOL    HW177286   3.670   5.263   6.289  0.3246  0.5350  1.5678
21854SOL    HW277287   3.567   5.354   6.226  0.5634 -0.2260  0.0365
21855SOL     OW77288  10.988   4.663   9.603  0.2304  0.0637 -0.8156
21855SOL    HW177289  11.002   4.756   9.586 -0.5348  0.1544 -0.9768
21855SOL    HW277290  11.076   4.624   9.597  0.4914  0.6982 -1.2199
21856SOL     OW77291   8.390   5.456   8.781 -0.0187 -0.0001 -0.1188
21856SOL    HW177292   8.360   5.367   8.765  0.7687 -0.5066  1.0701
21856SOL    HW277293   8.404   5.460   8.876 -0.3617  1.4960 -0.1081
21857SOL     OW77294  10.540  11.044   8.663  0.3429 -0.0914 -0.5237
21857SOL    HW177295  10.449  11.058   8.636  0.9509  2.8528 -1.4258
21857SOL    HW277296  10.590  11.045   8.581  1.2233 -1.9855 -0.0670
21858SOL     OW77297   6.070   7.885   0.761 -0.2148 -0.1350 -0.5882
21858SOL    HW177298   6.020   7.917   0.836  1.9697  2.7693 -0.2021
21858SOL    HW277299   6.004   7.862   0.696 -2.0989 -0.4844  1.3275
21859SOL     OW77300  10.333  11.814   0.728 -0.5483 -0.0172  0.1540
21859SOL    HW177301  10.404  11.814   0.663 -1.5179 -0.4069 -0.9562
21859SOL    HW277302  10.307  11.722   0.735 -2.3590  0.3242 -1.1364
21860SOL     OW77303   5.765   2.380  10.584 -0.5069 -0.3774  0.3409
21860SOL    HW177304   5.820   2.335  10.648  0.3492  0.8797  0.5387
21860SOL    HW277305   5.696   2.421  10.637 -1.2516 -1.3617  0.1676
21861SOL     OW77306   0.705   6.272  10.093 -1.0070 -0.1775  0.5699
21861SOL    HW177307   0.760   6.335  10.140 -0.1000 -0.3096 -0.2705
21861SOL    HW277308   0.641   6.326  10.046 -1.1371  0.0207  0.9672
21862SOL     OW77309   0.554   6.521   9.003  0.4949  0.6525  0.4792
21862SOL    HW177310   0.646   6.545   8.997  0.8478 -0.9851 -1.6611
21862SOL    HW277311   0.554   6.428   9.022 -0.7578  0.8285  1.5176
21863SOL     OW77312   5.425   0.313   2.296 -0.5506  0.7662 -0.4336
21863SOL    HW177313   5.345   0.365   2.306 -1.0555 -0.2134  0.9096
21863SOL    HW277314   5.421   0.281   2.205 -3.0023 -1.2425  0.2475
21864SOL     OW77315   0.823   2.337  10.105 -0.0322  0.4459  0.0678
21864SOL    HW177316   0.780   2.278  10.166  0.8265  0.5648  0.8061
21864SOL    HW277317   0.883   2.281  10.056  0.8191  0.7023  0.8022
21865SOL     OW77318   2.323   7.090   1.337 -0.3391 -0.1306  0.4502
21865SOL    HW177319   2.388   7.022   1.320 -0.8535 -0.6831  0.6858
21865SOL    HW277320   2.354   7.133   1.418 -0.0884 -0.1700  0.3758
21866SOL     OW77321   9.521   1.584   0.351  0.1454  0.3547 -0.0874
21866SOL    HW177322   9.544   1.544   0.267  0.0562 -1.2280  0.6076
21866SOL    HW277323   9.542   1.677   0.340  2.1739 -0.1650 -1.1549
21867SOL     OW77324   8.265   8.379  10.429  0.2826 -0.5356 -0.5800
21867SOL    HW177325   8.234   8.426  10.507 -3.0873 -1.7065 -1.0531
21867SOL    HW277326   8.278   8.289  10.459 -0.1898 -0.8022 -1.1640
21868SOL     OW77327   6.188   0.334   9.678  0.2380 -0.3386 -0.5102
21868SOL    HW177328   6.217   0.347   9.768 -0.9693  0.2144 -0.1741
21868SOL    HW277329   6.138   0.253   9.680  0.1884 -0.3122 -0.6770
21869SOL     OW77330   2.755   5.148   8.899  1.1394 -0.3848 -0.1690
21869SOL    HW177331   2.748   5.145   8.994 -1.7101 -2.0771 -0.3191
21869SOL    HW277332   2.765   5.057   8.872 -1.0442 -0.3041 -1.5510
21870SOL     OW77333   3.400   4.144   6.877  0.4029 -0.4857  0.1318
21870SOL    HW177334   3.490   4.174   6.863 -0.0403  0.4337 -0.9231
21870SOL    HW277335   3.396   4.123   6.970  1.7517 -0.6927  0.1603
21871SOL     OW77336   1.955   8.414   1.348 -0.4054  0.3155 -0.2558
21871SOL    HW177337   1.879   8.438   1.402  0.0745 -0.8176  0.9992
21871SOL    HW277338   1.967   8.321   1.364  1.8732  0.6551  0.4189
21872SOL     OW77339   9.262   4.379   4.543 -0.0229  0.6415 -0.4337
21872SOL    HW177340   9.307   4.435   4.480  2.4073 -1.0661 -0.3596
21872SOL    HW277341   9.314   4.387   4.623 -0.7154 -0.2745  0.1211
21873SOL     OW77342   7.831   4.212   4.268 -0.2844  0.3510  0.0435
21873SOL    HW177343   7.792   4.210   4.181 -2.3745  1.3440  0.9058
21873SOL    HW277344   7.868   4.124   4.279  0.4365  0.3467 -1.9865
21874SOL     OW77345   2.449   9.346   5.966  0.1586  0.4964 -0.1340
21874SOL    HW177346   2.354   9.338   5.970  0.1592  0.7549  0.5999
21874SOL    HW277347   2.481   9.256   5.974 -0.0503  0.0550 -3.0926
21875SOL     OW77348   6.028   4.037   1.041  0.7299  0.2734 -0.3980
21875SOL    HW177349   6.013   4.064   0.951 -0.1202  1.1614 -0.0055
21875SOL    HW277350   6.097   3.970   1.035 -0.4980 -0.9292 -1.8592
21876SOL     OW77351  10.908   5.334   3.236 -0.3915 -0.1078 -0.1386
21876SOL    HW177352  10.827   5.380   3.215  0.3348  1.3686  0.1584
21876SOL    HW277353  10.976   5.382   3.189  0.5332 -0.2677  0.9871
21877SOL     OW77354   0.038   3.121   1.331 -0.7761  0.3272 -0.1988
21877SOL    HW177355   0.075   3.073   1.405 -0.8389  1.9156  0.9217
21877SOL    HW277356  -0.048   3.081   1.317 -1.1406  0.5919  1.1992
21878SOL     OW77357   4.095   4.814   4.992 -0.3892  0.2173  0.0345
21878SOL    HW177358   4.059   4.883   5.048 -0.4319 -0.1557  0.4712
21878SOL    HW277359   4.018   4.774   4.951 -0.3837  0.2276  0.0145
21879SOL     OW77360   9.476   3.560   3.331 -0.2774 -0.2230  0.1962
21879SOL    HW177361   9.438   3.509   3.259  0.1903  0.4744 -0.5627
21879SOL    HW277362   9.506   3.494   3.394 -1.8805 -0.8104  0.3885
21880SOL     OW77363   4.305   6.103   4.625 -0.4064  0.3294  0.3203
21880SOL    HW177364   4.266   6.162   4.559 -4.3951 -3.3840 -1.1416
21880SOL    HW277365   4.388   6.076   4.587  0.0249  2.5186 -0.4343
21881SOL     OW77366   9.884   0.358   7.334  0.0803  0.2696  0.5301
21881SOL    HW177367   9.791   0.338   7.331  0.4827 -1.6860  0.3198
21881SOL    HW277368   9.897   0.424   7.265 -0.8772 -0.5881 -0.4981
21882SOL     OW77369   2.626   1.223  11.226  0.3120  0.5303  0.8823
21882SOL    HW177370   2.542   1.238  11.182 -0.5620 -0.0136  2.3045
21882SOL    HW277371   2.678   1.176  11.161 -1.0151 -0.4256  0.4539
21883SOL     OW77372   7.021  11.178   6.581  0.3660  0.2777 -0.4865
21883SOL    HW177373   6.994  11.237   6.511  1.2592  1.6520  0.2970
21883SOL    HW277374   7.006  11.227   6.662  0.1198 -0.9775  0.2571
21884SOL     OW77375   0.554   5.220   3.104 -0.5508  0.3920 -0.5170
21884SOL    HW177376   0.482   5.213   3.042 -0.3706 -0.5904 -0.6285
21884SOL    HW277377   0.609   5.144   3.086  0.0121  0.6139  0.2056
21885SOL     OW77378   6.069   4.094   7.757 -0.2294 -0.1623 -0.2650
21885SOL    HW177379   6.025   4.058   7.680 -1.3098  0.9982 -0.2217
21885SOL    HW277380   6.151   4.045   7.763 -0.1689 -0.3578 -2.0831
21886SOL     OW77381   7.228   1.697   0.658  0.3409  0.0760 -0.7101
21886SOL    HW177382   7.160   1.629   0.660  0.5512 -0.1186  0.1010
21886SOL    HW277383   7.206   1.751   0.581  2.4764 -3.2312 -3.9588
21887SOL     OW77384   6.343   1.634   8.943 -0.0460  0.0761 -0.1900
21887SOL    HW177385   6.436   1.617   8.961  0.1182  1.4391  0.3378
21887SOL    HW277386   6.317   1.698   9.009 -1.5938 -0.8721  0.1670
21888SOL     OW77387   1.281   2.066   4.418  0.2885  0.7801  0.3660
21888SOL    HW177388   1.347   1.997   4.423 -1.2147 -0.6274  1.8854
21888SOL    HW277389   1.326   2.144   4.450  1.6862  0.2749 -0.2820
21889SOL     OW77390   3.811   6.112   3.153 -0.1173 -0.4813  0.2751
21889SOL    HW177391   3.757   6.189   3.133  2.6073  0.7692 -3.4110
21889SOL    HW277392   3.778   6.044   3.093  0.7357 -0.4983 -0.1885
21890SOL     OW77393   1.859   4.055   6.724 -0.5776  0.6623  0.0573
21890SOL    HW177394   1.943   4.010   6.719  0.5590  2.6735 -0.0031
21890SOL    HW277395   1.823   4.029   6.809  1.6672  2.2467  1.6072
21891SOL     OW77396   5.161   5.413   2.152  0.0090  0.3345 -0.5535
21891SOL    HW177397   5.154   5.323   2.120  0.4882  0.1650 -0.1971
21891SOL    HW277398   5.252   5.437   2.135  0.0984  0.4666  0.0831
21892SOL     OW77399   1.476   9.419   7.779 -0.0340  0.4741  0.3553
21892SOL    HW177400   1.473   9.513   7.760 -0.3490  0.5030  0.5407
21892SOL    HW277401   1.563   9.405   7.816 -0.1258  0.7632  0.6860
21893SOL     OW77402   0.782   0.331   3.849 -0.2507  0.0863  0.1982
21893SOL    HW177403   0.773   0.409   3.794  0.3599 -0.5731 -0.8804
21893SOL    HW277404   0.873   0.304   3.837  0.5655  1.1011  3.2176
21894SOL     OW77405   4.854   8.845   0.541  0.0427  0.0483  0.8002
21894SOL    HW177406   4.879   8.756   0.518  0.3538  0.4771 -0.6289
21894SOL    HW277407   4.767   8.857   0.503 -0.0269  0.3287  1.0429
21895SOL     OW77408  11.414   9.661   9.707 -0.5361  0.2822 -0.5772
21895SOL    HW177409  11.476   9.613   9.763 -0.3451  1.9513  0.7238
21895SOL    HW277410  11.446   9.646   9.618  1.6988  0.9606  0.0471
21896SOL     OW77411   3.647   3.041   5.805  0.4129 -0.2681  0.5157
21896SOL    HW177412   3.649   3.025   5.899 -0.8143 -0.9411  0.4358
21896SOL    HW277413   3.627   2.956   5.766  0.7054  0.0450 -0.3498
21897SOL     OW77414   5.130   5.768   6.903 -0.6550 -0.0048 -0.5370
21897SOL    HW177415   5.051   5.751   6.954 -0.3784  0.5238  0.0909
21897SOL    HW277416   5.199   5.720   6.949 -0.2658  1.0700  0.0378
21898SOL     OW77417   3.439   1.818  11.090  0.0923 -0.6898 -0.2819
21898SOL    HW177418   3.445   1.733  11.133  1.8047  0.4831  1.9980
21898SOL    HW277419   3.498   1.811  11.015 -0.3869 -1.7056 -0.5895
21899SOL     OW77420   3.289  11.055   0.319 -0.2995  0.1626  0.0679
21899SOL    HW177421   3.216  11.045   0.258 -0.2768 -0.7275  0.1813
21899SOL    HW277422   3.354  10.991   0.290 -1.1368 -1.8566  2.2565
21900SOL     OW77423   0.252   2.086   4.455  0.1544 -1.0224 -0.2190
21900SOL    HW177424   0.340   2.050   4.457  0.1097 -1.1771 -0.9331
21900SOL    HW277425   0.196   2.012   4.479  0.2670 -0.7364  0.9817
21901SOL     OW77426   9.798   8.188  11.694 -0.3291 -0.4805  0.3130
21901SOL    HW177427   9.817   8.247  11.767 -1.7318  0.2647  0.1118
21901SOL    HW277428   9.734   8.235  11.642 -2.5654 -2.6962  0.8749
21902SOL     OW77429   5.152   7.799   3.154  0.0536  0.2365  0.0430
21902SOL    HW177430   5.213   7.861   3.195  0.5764 -0.6229  0.5858
21902SOL    HW277431   5.199   7.764   3.079  0.6857 -1.2704  1.1115
21903SOL     OW77432   7.886   1.999   1.668 -0.1238 -0.7775  0.0510
21903SOL    HW177433   7.950   1.937   1.703  0.3900 -0.0163  0.4910
21903SOL    HW277434   7.839   1.950   1.601  0.0590 -1.7342  0.6103
21904SOL     OW77435   5.659   2.160   7.549 -0.3058  0.4600  0.1111
21904SOL    HW177436   5.682   2.103   7.622  0.4879  0.1913 -0.3372
21904SOL    HW277437   5.739   2.164   7.495 -1.7395 -1.9197 -2.4694
21905SOL     OW77438  11.759   4.787   3.403  0.2865 -0.8328 -0.7054
21905SOL    HW177439  11.725   4.701   3.377 -0.3087 -0.0677 -2.6189
21905SOL    HW277440  11.701   4.850   3.359  1.4344  0.5346 -0.3175
21906SOL     OW77441   3.619   4.101   6.305  0.1200  0.2879  0.3829
21906SOL    HW177442   3.664   4.173   6.350 -0.5114  2.2987 -1.9941
21906SOL    HW277443   3.644   4.111   6.213  0.9529 -3.3238  0.0685
21907SOL     OW77444   5.449   6.630  11.708 -0.2224  0.4144  0.6928
21907SOL    HW177445   5.517   6.697  11.718 -0.3133  0.3347  1.9953
21907SOL    HW277446   5.391   6.643  11.783  0.2611 -1.7064  1.5127
21908SOL     OW77447   6.249  11.481   3.928 -0.4205  0.4724  0.0321
21908SOL    HW177448   6.238  11.396   3.970 -0.9051 -0.0323 -1.0761
21908SOL    HW277449   6.343  11.498   3.931 -0.5241  0.9919  2.3065
21909SOL     OW77450   9.484   6.198   7.170  0.2867 -0.7038 -0.7261
21909SOL    HW177451   9.425   6.140   7.120 -1.2188 -0.9459  1.2060
21909SOL    HW277452   9.426   6.249   7.226  1.8788 -0.5725  0.9066
21910SOL     OW77453   7.121   0.293   1.099 -0.0575  0.2393  0.0944
21910SOL    HW177454   7.200   0.332   1.061 -0.3041  0.8878  0.2400
21910SOL    HW277455   7.101   0.349   1.174 -0.6910  0.1029  0.0258
21911SOL     OW77456   9.443   2.936  10.649  0.0808 -0.5479  0.4246
21911SOL    HW177457   9.421   2.967  10.561  0.2212 -2.3877 -0.3046
21911SOL    HW277458   9.536   2.957  10.660  0.4016 -1.4684 -0.4087
21912SOL     OW77459   1.782  10.492   6.566  0.8182  0.0499 -0.1875
21912SOL    HW177460   1.862  10.512   6.615 -0.2820 -0.4508  1.9371
21912SOL    HW277461   1.758  10.574   6.523  0.7938  1.0987  1.7366
21913SOL     OW77462  10.128   0.070   1.457  0.6846 -0.1167  0.6090
21913SOL    HW177463  10.198   0.013   1.490 -0.3385  0.3139  3.7682
21913SOL    HW277464  10.169   0.156   1.453  1.0828 -0.3313 -0.2749
21914SOL     OW77465   3.572   5.671  10.320 -0.1591  0.3607 -0.5201
21914SOL    HW177466   3.550   5.578  10.318  0.0150  0.3294 -1.5196
21914SOL    HW277467   3.663   5.674  10.351  0.3618  0.0694 -1.9402
21915SOL     OW77468   9.784   5.494   3.418 -0.1993  0.4668  0.3116
21915SOL    HW177469   9.760   5.490   3.325  0.9593  0.3573 -0.0014
21915SOL    HW277470   9.707   5.530   3.461 -1.3918 -1.0620 -0.4417
21916SOL     OW77471   0.710   1.276   3.693 -0.2826  0.1907 -0.2219
21916SOL    HW177472   0.686   1.367   3.711 -0.6519  0.3389 -1.3420
21916SOL    HW277473   0.655   1.224   3.752  1.3946  0.7288  1.9030
21917SOL     OW77474   2.807   1.503   5.353  0.4699  0.0390  0.0495
21917SOL    HW177475   2.717   1.533   5.359  0.6116  0.6653 -0.7514
21917SOL    HW277476   2.842   1.512   5.442  0.5488  2.4527 -0.1629
21918SOL     OW77477   0.839   6.073   9.388 -0.1505 -0.0497  0.0293
21918SOL    HW177478   0.754   6.100   9.352  1.0056  0.6747 -2.4555
21918SOL    HW277479   0.851   6.128   9.465 -1.2912  0.9236 -0.4487
21919SOL     OW77480   8.261   5.806   3.355 -0.6941  0.1163 -0.3545
21919SOL    HW177481   8.268   5.750   3.432 -2.6570 -1.8145 -1.4444
21919SOL    HW277482   8.298   5.753   3.284  0.5896  1.6414 -0.8874
21920SOL     OW77483   1.907   5.578  11.639 -0.0416  0.2619 -0.0864
21920SOL    HW177484   1.991   5.585  11.592 -0.0499  0.4763 -0.0713
21920SOL    HW277485   1.911   5.493  11.682  0.6661  0.7561  0.8711
21921SOL     OW77486   3.699   7.962   9.584  0.9018  0.5982 -0.1936
21921SOL    HW177487   3.693   7.917   9.499  0.7605  2.4797 -1.2426
21921SOL    HW277488   3.630   8.029   9.580  0.7916  0.6281  1.4987
21922SOL     OW77489   8.359   2.492   0.684 -0.0348  0.2340 -0.6226
21922SOL    HW177490   8.334   2.405   0.651  0.3801 -0.2522  0.3097
21922SOL    HW277491   8.441   2.478   0.731  0.2457  1.2122 -0.7894
21923SOL     OW77492   8.155   6.649   2.090 -0.3373  0.1901  0.6362
21923SOL    HW177493   8.088   6.612   2.148 -0.3559 -0.1417  0.4068
21923SOL    HW277494   8.192   6.573   2.045 -0.5490  0.4749 -0.0259
21924SOL     OW77495   7.319   9.122   4.169 -0.5657  0.4581  0.6129
21924SOL    HW177496   7.392   9.084   4.219 -1.4230 -0.8639  0.8929
21924SOL    HW277497   7.341   9.105   4.078 -0.3003  0.4851  0.6702
21925SOL     OW77498   8.544   5.169   4.517 -0.7006 -0.1281 -0.1043
21925SOL    HW177499   8.473   5.110   4.492 -0.5579 -0.2276 -0.2770
21925SOL    HW277500   8.606   5.165   4.444 -0.9591  0.6671 -0.3752
21926SOL     OW77501   7.821   3.898   4.041 -0.0397 -0.8262  0.4116
21926SOL    HW177502   7.820   3.980   3.992  2.3423 -2.2204 -2.3280
21926SOL    HW277503   7.841   3.924   4.131 -1.7644  1.6945  0.1666
21927SOL     OW77504   2.419   5.554  10.331 -0.2547 -0.3571 -0.3138
21927SOL    HW177505   2.411   5.547  10.426  0.7248  2.1409  0.0364
21927SOL    HW277506   2.494   5.499  10.309  0.1608 -0.1439  0.5251
21928SOL     OW77507  10.989   0.677   7.145 -0.2139 -0.1673  0.4391
21928SOL    HW177508  10.943   0.752   7.184 -0.7046 -1.8013  3.2767
21928SOL    HW277509  11.081   0.703   7.145 -0.4705  0.7996  0.4016
21929SOL     OW77510  11.581  10.687   5.981 -0.6750  0.0252 -0.3449
21929SOL    HW177511  11.605  10.769   5.937 -0.2668  0.1214  0.0423
21929SOL    HW277512  11.664  10.641   5.991 -0.5426  0.5745  1.4538
21930SOL     OW77513   6.536  11.402   7.179  0.4595 -0.3436  0.0041
21930SOL    HW177514   6.477  11.368   7.112  0.9296  0.4251 -0.8301
21930SOL    HW277515   6.491  11.385   7.262 -0.3086 -0.9760 -0.5291
21931SOL     OW77516   7.989   6.674   4.596 -0.5351  0.3173 -0.1122
21931SOL    HW177517   7.986   6.616   4.672  0.1638 -0.7042 -0.8387
21931SOL    HW277518   8.002   6.762   4.633 -1.9580  0.0942  1.0260
21932SOL     OW77519  11.651   2.422  10.283  0.4367 -0.4785  0.1386
21932SOL    HW177520  11.611   2.403  10.198 -0.4148 -0.7895  0.5895
21932SOL    HW277521  11.576   2.440  10.340  0.9882 -0.4734  0.8655
21933SOL     OW77522   1.188   4.693  11.605  0.0772 -0.1186 -0.0552
21933SOL    HW177523   1.196   4.782  11.640  0.0720 -0.7774  1.6837
21933SOL    HW277524   1.126   4.649  11.663  0.4360 -1.4165 -0.6127
21934SOL     OW77525   8.844  11.600   1.646  0.0125  0.3787  0.0171
21934SOL    HW177526   8.783  11.527   1.658 -0.0828  0.4005 -0.3292
21934SOL    HW277527   8.849  11.641   1.732 -0.3972  0.3288  0.0669
21935SOL     OW77528   3.687   3.315   5.788 -0.6303 -0.4500  0.3736
21935SOL    HW177529   3.734   3.244   5.832 -0.5640 -0.5930  0.0770
21935SOL    HW277530   3.639   3.271   5.718  0.4729 -0.0327 -0.6700
21936SOL     OW77531   5.899   6.563   2.330 -0.3300 -0.2243 -0.5780
21936SOL    HW177532   5.935   6.595   2.413 -1.3326  0.3551 -0.3524
21936SOL    HW277533   5.965   6.502   2.298 -0.2570 -1.0409  1.0121
21937SOL     OW77534   4.076   5.002   3.729 -0.6412 -0.1491  0.3856
21937SOL    HW177535   4.095   4.937   3.661 -0.8661 -0.5576  0.7156
21937SOL    HW277536   4.147   5.066   3.720 -2.0987  1.3106 -2.0578
21938SOL     OW77537   7.586   3.672  10.952  0.4450  0.2684 -0.4960
21938SOL    HW177538   7.584   3.609  11.024 -0.6284  0.5767 -0.2327
21938SOL    HW277539   7.579   3.757  10.995 -1.1192  0.4149 -0.9804
21939SOL     OW77540   1.259   8.604   8.087  0.1224 -0.5255 -0.3010
21939SOL    HW177541   1.262   8.637   7.997  1.8694  0.2759  0.0209
21939SOL    HW277542   1.333   8.645   8.130 -0.6077 -1.0133  1.4909
21940SOL     OW77543   2.171   0.012   4.251 -0.0474  0.6651 -0.1350
21940SOL    HW177544   2.121   0.088   4.281  1.6732  0.8962  2.4994
21940SOL    HW277545   2.261   0.042   4.246  0.6060 -1.0498  0.4322
21941SOL     OW77546   0.920   2.245   7.278 -0.3749  0.4049  0.2440
21941SOL    HW177547   0.950   2.170   7.329  0.1110 -0.0542 -0.6930
21941SOL    HW277548   1.001   2.288   7.248 -0.6410  0.2652 -0.7023
21942SOL     OW77549   4.045   4.661   6.902 -0.4153 -1.0717  0.1994
21942SOL    HW177550   4.018   4.577   6.867  1.2877 -2.1524  1.3303
21942SOL    HW277551   3.964   4.701   6.934 -1.2583 -2.2129 -0.4579
21943SOL     OW77552   7.532   3.596   8.993  0.2856 -0.1933  0.2450
21943SOL    HW177553   7.552   3.513   8.949  2.2797  1.3974 -2.0846
21943SOL    HW277554   7.590   3.596   9.069  2.3350  0.1473 -1.2226
21944SOL     OW77555   3.470   4.655   3.560 -0.6129 -0.3310  0.1746
21944SOL    HW177556   3.504   4.735   3.519 -1.1366 -0.9098 -1.4765
21944SOL    HW277557   3.383   4.644   3.521 -1.5115 -0.4677  2.1104
21945SOL     OW77558   1.193   4.925   5.353 -0.1520  0.0175  0.2380
21945SOL    HW177559   1.278   4.898   5.387 -1.0893 -1.2329  1.6735
21945SOL    HW277560   1.194   5.021   5.360  2.4843  0.4394 -3.1931
21946SOL     OW77561   2.333   0.273   4.393 -0.4567 -0.0106 -0.0055
21946SOL    HW177562   2.261   0.232   4.440 -0.7272 -0.8147 -1.0993
21946SOL    HW277563   2.410   0.256   4.448 -1.3151  2.6596  2.2652
21947SOL     OW77564   2.099   4.249  10.562  0.1934  0.0997 -0.1646
21947SOL    HW177565   2.092   4.237  10.657 -1.0318 -0.7547 -0.3433
21947SOL    HW277566   2.138   4.336  10.551  1.0767 -0.1149  1.1246
21948SOL     OW77567   7.188   7.541   9.740 -0.3201 -0.0298  0.0854
21948SOL    HW177568   7.129   7.616   9.730 -2.9606 -2.0445 -0.3202
21948SOL    HW277569   7.266   7.565   9.689 -1.5969  1.9218 -1.0683
21949SOL     OW77570  11.320   3.409   4.886  0.7756 -0.3244  0.3108
21949SOL    HW177571  11.372   3.448   4.816 -1.0019 -0.2574 -1.0529
21949SOL    HW277572  11.276   3.334   4.845 -2.2389  1.1396  0.5447
21950SOL     OW77573  10.780   9.802  11.002  0.1073  0.0075 -0.5906
21950SOL    HW177574  10.718   9.752  10.948 -0.9325  0.9796 -0.3398
21950SOL    HW277575  10.775   9.761  11.088  1.5216 -1.3354 -1.1066
21951SOL     OW77576   5.685   6.201   8.879  0.3094 -0.0291 -0.4308
21951SOL    HW177577   5.728   6.253   8.810 -2.0785  0.5940 -1.5363
21951SOL    HW277578   5.758   6.160   8.926  2.2991  3.5465 -0.0694
21952SOL     OW77579   4.301   6.321   8.919 -0.8495 -0.0940  0.1412
21952SOL    HW177580   4.356   6.313   8.841  0.5162  0.0208  1.0605
21952SOL    HW277581   4.213   6.332   8.885 -0.3015 -0.1798 -1.3855
21953SOL     OW77582   4.056  10.106   3.598 -0.1953 -0.2358  0.2665
21953SOL    HW177583   3.990  10.132   3.662 -0.0142  0.3680  0.2219
21953SOL    HW277584   4.013  10.041   3.543 -0.4825 -0.4576  0.7501
21954SOL     OW77585   3.568   5.206   1.101 -0.2826 -0.4743  0.1097
21954SOL    HW177586   3.477   5.197   1.128 -0.4095 -0.3639 -0.2699
21954SOL    HW277587   3.613   5.130   1.138 -0.5635 -0.6194  0.1488
21955SOL     OW77588   3.542   8.956   1.159 -0.2155  0.1857  0.1306
21955SOL    HW177589   3.630   8.988   1.142 -0.0985 -0.5015 -0.5847
21955SOL    HW277590   3.546   8.862   1.141 -1.3068  0.2935 -0.7966
21956SOL     OW77591   7.735  10.878   9.042 -0.0484 -0.2076 -0.0841
21956SOL    HW177592   7.684  10.886   8.962  1.6012 -1.6722 -1.3580
21956SOL    HW277593   7.819  10.919   9.021 -0.0884  0.7468  1.4363
21957SOL     OW77594   7.595   0.855   8.849  0.1407  0.3370  0.2767
21957SOL    HW177595   7.585   0.785   8.914 -0.7669 -0.5372 -0.7746
21957SOL    HW277596   7.602   0.810   8.765  1.7010  1.4319 -0.2261
21958SOL     OW77597   6.452   9.825   0.354 -0.5472  0.4632  0.7169
21958SOL    HW177598   6.478   9.877   0.430 -0.3246 -0.5486  1.3506
21958SOL    HW277599   6.407   9.887   0.296  0.2979  1.4922  1.1489
21959SOL     OW77600  10.646   2.101   9.028  0.7877 -0.1888 -0.1572
21959SOL    HW177601  10.560   2.079   9.064  0.7698 -1.1791 -0.7415
21959SOL    HW277602  10.627   2.156   8.952  0.7475  0.6203  0.4240
21960SOL     OW77603   4.470   6.569   6.274  0.3129 -0.4538  0.8067
21960SOL    HW177604   4.565   6.576   6.268  0.3326 -0.6742  0.8772
21960SOL    HW277605   4.438   6.603   6.190  0.3948  0.8295  1.2717
21961SOL     OW77606   5.960   8.246   7.041 -0.0277  0.5532 -0.0194
21961SOL    HW177607   5.901   8.266   7.114 -1.2855 -2.1692 -0.1406
21961SOL    HW277608   5.956   8.323   6.985 -2.3980  1.0387  0.6983
21962SOL     OW77609   5.909   5.072   5.064  0.2182 -0.1497  0.3502
21962SOL    HW177610   5.924   4.982   5.036 -1.7475 -1.2797  2.6758
21962SOL    HW277611   5.836   5.102   5.009  0.4856 -0.1514 -0.0147
21963SOL     OW77612   4.062  11.082   7.245  0.5149  0.1904  0.0784
21963SOL    HW177613   3.978  11.128   7.250  0.1044 -0.6416  1.2590
21963SOL    HW277614   4.052  11.022   7.171  0.3217  0.5546 -0.1970
21964SOL     OW77615   8.233   7.035   1.037 -0.3064  0.3127  0.1994
21964SOL    HW177616   8.327   7.043   1.056 -0.0221 -1.3855 -0.3054
21964SOL    HW277617   8.199   7.124   1.048  1.7538  1.4824 -1.8040
21965SOL     OW77618   3.478   3.014   4.588  0.1826  0.2674  0.4803
21965SOL    HW177619   3.545   2.973   4.533  0.6268  0.6975  0.6942
21965SOL    HW277620   3.527   3.053   4.661 -0.4283 -0.6036  1.3822
21966SOL     OW77621  11.952   2.330   5.094 -0.4201 -0.1469  0.1815
21966SOL    HW177622  12.017   2.286   5.148 -1.3632 -1.6072  0.1911
21966SOL    HW277623  11.963   2.291   5.007 -1.6697 -0.8919  0.3329
21967SOL     OW77624   3.896  10.646   3.950  0.1068 -0.0932  0.5872
21967SOL    HW177625   3.930  10.564   3.915 -0.3410 -0.0431  0.0261
21967SOL    HW277626   3.964  10.676   4.010  0.1692 -0.9919  0.9864
21968SOL     OW77627   3.233   4.130   7.590  0.8073  0.1634  0.1040
21968SOL    HW177628   3.169   4.102   7.656  0.2245  1.1588 -0.0198
21968SOL    HW277629   3.315   4.087   7.616 -0.3436 -2.9489 -0.9771
21969SOL     OW77630   2.497   1.932   1.065 -0.1547 -0.0946  0.0565
21969SOL    HW177631   2.439   1.994   1.022 -0.4203 -0.5921 -0.3066
21969SOL    HW277632   2.488   1.952   1.158  0.0444  0.6549 -0.0796
21970SOL     OW77633  11.354   3.173   6.271 -0.0298 -0.0564  0.0210
21970SOL    HW177634  11.357   3.241   6.339 -0.2671  0.1755 -0.1977
21970SOL    HW277635  11.304   3.213   6.200  0.2246 -0.2965 -0.2950
21971SOL     OW77636  10.031   7.247   5.759  0.8299  0.0837 -0.5391
21971SOL    HW177637   9.981   7.297   5.823 -0.1227 -2.1576  0.5284
21971SOL    HW277638  10.079   7.182   5.810 -1.3516 -2.9888 -2.0802
21972SOL     OW77639   9.571  10.105   6.129 -0.2511 -0.6631 -0.6424
21972SOL    HW177640   9.651  10.051   6.129  0.4259  0.3058 -0.9772
21972SOL    HW277641   9.506  10.051   6.173  0.1014 -2.1996 -1.8979
21973SOL     OW77642   4.462   5.051  10.794  0.2544  0.5372 -0.4794
21973SOL    HW177643   4.394   5.011  10.847  0.9350 -0.4845 -0.3522
21973SOL    HW277644   4.479   4.988  10.724 -0.3501  1.6813 -1.7122
21974SOL     OW77645   6.817   5.793   0.567  0.0687  0.0071  0.0513
21974SOL    HW177646   6.778   5.772   0.482  0.9279  0.5508 -0.4956
21974SOL    HW277647   6.880   5.862   0.547  0.4182  0.0022  1.1105
21975SOL     OW77648   0.548   2.236   5.077  0.3653 -0.5181  0.3683
21975SOL    HW177649   0.532   2.215   4.985  1.3126 -0.6323  0.2275
21975SOL    HW277650   0.640   2.260   5.081  0.1326  0.3250  1.1386
21976SOL     OW77651   2.055   2.323   5.577  0.2426  0.6741  0.0262
21976SOL    HW177652   2.093   2.401   5.537  1.6139 -0.1762 -0.3851
21976SOL    HW277653   2.095   2.319   5.665  0.2932  0.3588 -0.0104
21977SOL     OW77654   7.215  11.945   5.319 -0.1646 -0.3324  0.2790
21977SOL    HW177655   7.276  11.978   5.253  0.6075 -1.5691  0.3401
21977SOL    HW277656   7.224  12.006   5.393 -0.4497  0.5966 -0.4317
21978SOL     OW77657   2.557   2.979  11.196 -0.2466 -0.0226  0.0892
21978SOL    HW177658   2.603   3.062  11.184  0.0429 -0.0355  1.0254
21978SOL    HW277659   2.465   3.000  11.181 -0.2763  0.6611  1.1509
21979SOL     OW77660   1.319   3.514  11.159  0.1377 -0.1154  0.1036
21979SOL    HW177661   1.412   3.515  11.134  0.0676  0.1233 -0.1580
21979SOL    HW277662   1.318   3.472  11.245  0.4151 -0.7053 -0.1744
21980SOL     OW77663   2.942   0.824   3.151  0.2356  0.1756 -0.1138
21980SOL    HW177664   3.002   0.835   3.077  0.2974  0.5203 -0.0152
21980SOL    HW277665   2.921   0.913   3.179  0.5073  0.0516  0.5223
21981SOL     OW77666   7.074  10.968   7.890  0.2109  0.2363 -0.2576
21981SOL    HW177667   7.123  10.910   7.832  1.8191  1.7147 -0.4638
21981SOL    HW277668   7.099  10.940   7.978 -0.4207 -0.5084 -0.3024
21982SOL     OW77669   8.799   2.765  10.021 -0.1466  0.1136 -0.1178
21982SOL    HW177670   8.842   2.691   9.977  0.6008  1.0264 -0.9707
21982SOL    HW277671   8.834   2.842   9.977 -1.2431  0.9679  0.4702
21983SOL     OW77672   9.778   3.513   8.705  0.2970 -0.0814  0.1922
21983SOL    HW177673   9.778   3.434   8.652  1.4426 -0.5743  0.8826
21983SOL    HW277674   9.836   3.574   8.659 -0.1004  0.1364 -0.0238
21984SOL     OW77675   1.101   6.377   4.227  0.1676 -0.4678  0.5953
21984SOL    HW177676   1.123   6.346   4.139 -1.8192 -1.6506  0.4681
21984SOL    HW277677   1.171   6.439   4.248  1.1369 -0.7668 -1.4731
21985SOL     OW77678   4.332   8.571   8.485  0.6078  0.2082 -0.0070
21985SOL    HW177679   4.397   8.591   8.418  0.0162  0.1772 -0.5938
21985SOL    HW277680   4.264   8.523   8.439 -0.5274  1.4779  0.2820
21986SOL     OW77681   5.474   5.632  11.047  0.4218 -0.4899 -0.2197
21986SOL    HW177682   5.415   5.674  10.985 -1.4210  0.3686  1.9825
21986SOL    HW277683   5.533   5.702  11.074  0.3205 -0.5063  0.0407
21987SOL     OW77684   4.205   5.731  11.472 -0.3092  0.1113  0.7788
21987SOL    HW177685   4.282   5.706  11.421 -0.5262 -0.2498  0.6243
21987SOL    HW277686   4.141   5.662  11.453 -1.4195  1.4890 -0.7674
21988SOL     OW77687   4.617   5.982  10.896  0.5521 -0.3401 -0.4227
21988SOL    HW177688   4.686   6.022  10.948 -0.3754  1.2705 -0.3724
21988SOL    HW277689   4.591   6.050  10.833 -0.3506 -1.2270 -1.0452
21989SOL     OW77690   7.578  10.374   4.631  0.4840 -0.5108 -0.0781
21989SOL    HW177691   7.605  10.341   4.545  1.0076 -1.5012  0.4486
21989SOL    HW277692   7.497  10.421   4.614  0.8995 -0.1504 -1.2107
21990SOL     OW77693   1.403   6.750   4.432  0.4807  0.1868 -0.2374
21990SOL    HW177694   1.345   6.714   4.499  0.7481 -0.5933 -0.4228
21990SOL    HW277695   1.387   6.845   4.435  0.2616  0.1271  0.7073
21991SOL     OW77696   5.035  11.360   5.720 -0.2813  0.0995  0.0744
21991SOL    HW177697   5.080  11.295   5.775 -1.6882 -0.5223  0.5337
21991SOL    HW277698   4.963  11.312   5.681 -0.6378  1.1127 -0.5431
21992SOL     OW77699   5.123   6.465   1.931  0.8975 -0.2709  0.2865
21992SOL    HW177700   5.052   6.450   1.994 -0.6815  0.8245 -1.1367
21992SOL    HW277701   5.195   6.498   1.984  0.0407 -0.5330  1.6811
21993SOL     OW77702   9.904   2.072  10.465 -0.6005  0.1948 -0.6668
21993SOL    HW177703   9.970   2.046  10.530 -0.5991  1.9715  0.1101
21993SOL    HW277704   9.852   1.994  10.451  0.6554 -0.7987 -0.0454
21994SOL     OW77705   3.031   6.477   6.641 -0.1834 -0.3346  0.5866
21994SOL    HW177706   3.046   6.386   6.617  1.1506 -1.0240  3.5236
21994SOL    HW277707   3.095   6.526   6.590 -0.2821 -1.1439 -0.3406
21995SOL     OW77708   8.159   4.475   5.586 -0.4957 -0.0990 -0.7753
21995SOL    HW177709   8.106   4.545   5.549 -2.3975 -0.2196  1.5084
21995SOL    HW277710   8.201   4.514   5.663  2.4271 -0.1621 -2.2089
21996SOL     OW77711   7.222   0.363  10.185 -0.1495  0.3221  0.5290
21996SOL    HW177712   7.186   0.428  10.125  1.0419  0.8437  0.3332
21996SOL    HW277713   7.163   0.363  10.260 -0.0769  1.8010  0.6175
21997SOL     OW77714   0.413   9.491   3.870 -0.4261 -0.3352 -0.5577
21997SOL    HW177715   0.410   9.521   3.961 -0.0855 -0.6613 -0.4376
21997SOL    HW277716   0.377   9.403   3.873  1.3022 -1.0651 -0.4311
21998SOL     OW77717   9.042   1.336   6.635 -0.0362 -0.1665  0.0185
21998SOL    HW177718   9.021   1.374   6.720 -0.6895  1.2662 -0.7401
21998SOL    HW277719   9.055   1.412   6.578 -0.4768 -1.0887 -1.3582
21999SOL     OW77720   4.330   8.405   9.474  0.3235 -0.3308  0.0441
21999SOL    HW177721   4.353   8.336   9.537  0.9314 -0.5535 -0.4042
21999SOL    HW277722   4.235   8.400   9.467 -0.0365  1.1968  2.6301
22000SOL     OW77723   1.127   3.946   0.146 -0.3712 -0.0949 -0.2452
22000SOL    HW177724   1.108   3.897   0.067  1.5170  0.1959 -0.9167
22000SOL    HW277725   1.218   3.975   0.136 -0.5686  1.2384  1.3357
22001SOL     OW77726   9.277   9.437  10.701 -0.6282  0.2519 -0.5894
22001SOL    HW177727   9.326   9.411  10.779  0.6493 -1.5128 -1.8929
22001SOL    HW277728   9.334   9.500  10.656 -0.4089 -0.3166 -1.1232
22002SOL     OW77729   7.973  11.854   1.109  0.3405 -0.2076  0.0277
22002SOL    HW177730   7.943  11.943   1.123  1.2984  0.4695 -1.8028
22002SOL    HW277731   8.062  11.864   1.076  0.6925 -1.8802  0.3985
22003SOL     OW77732   0.894   7.124   8.260  0.4091 -0.1328  0.4458
22003SOL    HW177733   0.906   7.208   8.305 -1.8290  0.5132 -0.0421
22003SOL    HW277734   0.928   7.140   8.172  0.2235  0.1970  0.4304
22004SOL     OW77735   8.778   0.679  10.875  0.8424 -0.4381 -0.0162
22004SOL    HW177736   8.858   0.640  10.840  0.2885 -1.3706 -0.2890
22004SOL    HW277737   8.733   0.607  10.919 -0.0001 -0.0103 -0.1474
22005SOL     OW77738   7.644   4.342  10.756  0.6336  0.2440  0.1922
22005SOL    HW177739   7.689   4.344  10.840  0.1056 -1.6046  0.5767
22005SOL    HW277740   7.575   4.408  10.764 -0.0109 -0.5457  1.6118
22006SOL     OW77741   7.337   8.401   7.349  0.3571 -0.1236 -0.4529
22006SOL    HW177742   7.389   8.474   7.383  1.6353 -0.7669 -0.9540
22006SOL    HW277743   7.311   8.352   7.427  2.9415 -1.3825 -0.2799
22007SOL     OW77744   9.730   2.552   2.361 -0.1046  0.9467  0.6139
22007SOL    HW177745   9.799   2.616   2.342  0.6223 -0.3909 -1.5641
22007SOL    HW277746   9.648   2.598   2.338  0.3602  1.3120 -0.3765
22008SOL     OW77747   0.072   8.154   6.854  0.3243 -0.7861 -0.0888
22008SOL    HW177748  -0.011   8.201   6.858 -0.0019 -1.4079  1.4052
22008SOL    HW277749   0.052   8.071   6.812  0.0283 -1.1923  0.8241
22009SOL     OW77750   7.947  10.166   8.630  0.4716  0.6775 -0.4112
22009SOL    HW177751   8.004  10.182   8.554  0.2958  1.3819 -0.4002
22009SOL    HW277752   7.868  10.217   8.612 -0.4551 -0.8243 -0.7402
22010SOL     OW77753   7.533   1.492   1.915  0.4863 -0.2924 -0.3069
22010SOL    HW177754   7.625   1.489   1.888  0.7859 -1.1009  0.7350
22010SOL    HW277755   7.537   1.496   2.011 -0.5660  0.4589 -0.2774
22011SOL     OW77756   4.342   8.980   8.414 -0.0243  0.1530 -0.6421
22011SOL    HW177757   4.296   9.062   8.432  0.1456  0.0998  0.0315
22011SOL    HW277758   4.403   8.970   8.486  0.1984 -0.3972 -0.9030
22012SOL     OW77759   8.635   8.634   3.185 -0.5827  0.1952 -0.3558
22012SOL    HW177760   8.700   8.628   3.115 -0.9417  1.4259 -0.8213
22012SOL    HW277761   8.593   8.548   3.186  2.6700 -1.5843  1.6500
22013SOL     OW77762   2.088  11.175   7.396  0.3283 -0.2124 -0.0282
22013SOL    HW177763   2.117  11.145   7.482 -1.4067 -3.3964 -0.3830
22013SOL    HW277764   2.016  11.235   7.414 -0.0670 -0.9166  0.7525
22014SOL     OW77765   1.025   7.136   5.398 -0.5167 -0.1986  0.0854
22014SOL    HW177766   1.119   7.135   5.378 -0.7603 -0.5052 -1.0930
22014SOL    HW277767   1.012   7.060   5.454  0.1968  0.7356  1.6072
22015SOL     OW77768  10.860   6.430   7.741  0.2475  0.0383  0.6924
22015SOL    HW177769  10.851   6.479   7.823  0.3928 -0.7787  1.2150
22015SOL    HW277770  10.774   6.432   7.701  0.6486  2.1945 -0.1769
22016SOL     OW77771   4.687   4.592   9.544  0.1256 -0.6551 -0.0028
22016SOL    HW177772   4.611   4.534   9.542 -0.9570  0.7331 -1.2444
22016SOL    HW277773   4.761   4.536   9.519 -0.8101 -1.5945 -0.7587
22017SOL     OW77774   9.167   5.250  11.787 -0.2737 -0.2158  0.0057
22017SOL    HW177775   9.076   5.272  11.766  0.4202  0.8799 -2.2156
22017SOL    HW277776   9.207   5.234  11.702  1.3524 -1.8726  1.0303
22018SOL     OW77777   9.721  11.796   6.796  0.1452  0.0980  0.4020
22018SOL    HW177778   9.815  11.777   6.789  0.6945  2.2951  1.0372
22018SOL    HW277779   9.701  11.783   6.889 -0.4074 -1.1608  0.1279
22019SOL     OW77780   5.517   7.810  10.829 -0.2281 -0.2011 -0.0245
22019SOL    HW177781   5.577   7.792  10.901  0.3292  0.3033 -0.3473
22019SOL    HW277782   5.434   7.774  10.857  0.1224 -0.5167  0.6273
22020SOL     OW77783   1.450   6.504   5.160  0.6409 -0.0588 -0.3776
22020SOL    HW177784   1.357   6.497   5.142  0.5033 -0.6256  0.4789
22020SOL    HW277785   1.466   6.598   5.171  0.0728  0.0060 -0.0763
22021SOL     OW77786   2.869   3.717   5.539  0.2312 -0.1856 -0.4667
22021SOL    HW177787   2.840   3.725   5.630  0.0083 -0.2439 -0.5320
22021SOL    HW277788   2.909   3.630   5.534 -1.2064 -0.8703 -0.8159
22022SOL     OW77789   7.874   3.561   7.411  0.5919  0.3893 -0.2769
22022SOL    HW177790   7.868   3.477   7.365 -0.5760 -0.0812  0.6768
22022SOL    HW277791   7.783   3.590   7.419  0.9787  1.8127 -0.6842
22023SOL     OW77792   7.908   6.504   8.039  0.6826  0.0526 -0.1435
22023SOL    HW177793   8.000   6.502   8.014  0.5139  2.5183 -1.2876
22023SOL    HW277794   7.869   6.571   7.982 -1.5599 -0.0354  1.1451
22024SOL     OW77795   7.997   7.327   2.961 -0.5271 -0.6015  0.0347
22024SOL    HW177796   7.918   7.362   3.002  0.4217  0.2793  1.1997
22024SOL    HW277797   7.967   7.251   2.911 -2.5510  1.3022 -1.8638
22025SOL     OW77798  11.544  11.624  10.897  0.6125  0.0942 -0.1620
22025SOL    HW177799  11.596  11.680  10.954  0.5881  0.5747 -0.6059
22025SOL    HW277800  11.590  11.624  10.813  0.5193 -0.4147 -0.2212
22026SOL     OW77801   2.599   8.775   3.931 -0.0467  0.4577 -0.0142
22026SOL    HW177802   2.521   8.739   3.890 -1.2635  1.8545  0.9440
22026SOL    HW277803   2.578   8.868   3.946  2.0953  1.0767 -0.4360
22027SOL     OW77804  10.047  10.679   6.848  0.5681 -0.1368 -0.1214
22027SOL    HW177805  10.052  10.585   6.868  1.0033 -0.0044  0.4075
22027SOL    HW277806  10.128  10.698   6.802  0.3353 -0.0818 -0.5123
22028SOL     OW77807   6.066   1.179   4.777 -0.3514  0.0145 -0.1017
22028SOL    HW177808   6.065   1.218   4.864 -0.6944 -0.0634 -0.0690
22028SOL    HW277809   6.046   1.251   4.718 -2.8002 -0.4134  0.0926
22029SOL     OW77810  11.408   5.784   6.755  0.3110  0.2229  0.1212
22029SOL    HW177811  11.447   5.866   6.784  1.5210 -0.2086 -0.1886
22029SOL    HW277812  11.466   5.754   6.684 -1.2940  0.1570 -1.2263
22030SOL     OW77813   7.215  11.349   2.521 -0.2963 -0.7071  0.4450
22030SOL    HW177814   7.188  11.441   2.516  1.3003 -0.1781  0.7820
22030SOL    HW277815   7.251  11.339   2.609  0.0958 -1.4884  0.2045
22031SOL     OW77816   1.390   2.571   6.001  0.0575  0.4702  0.3105
22031SOL    HW177817   1.377   2.494   5.946 -0.6411 -0.5837  1.8656
22031SOL    HW277818   1.419   2.639   5.941 -0.6330 -0.6253 -1.3357
22032SOL     OW77819  10.963  11.594   0.732  0.2656  0.6314  0.3381
22032SOL    HW177820  11.004  11.680   0.723 -0.5932  0.9929 -0.2592
22032SOL    HW277821  10.973  11.553   0.646  2.8268 -0.8863  1.2670
22033SOL     OW77822   7.085  10.163   3.986  0.0261 -0.2414 -0.3080
22033SOL    HW177823   7.059  10.092   4.045 -2.3539  1.5203  0.9134
22033SOL    HW277824   7.105  10.236   4.044  0.3464  0.7381 -1.6088
22034SOL     OW77825   6.267  11.354   7.938 -0.3595 -0.1913 -0.6899
22034SOL    HW177826   6.264  11.418   7.868  1.1250 -0.0254 -0.6238
22034SOL    HW277827   6.248  11.270   7.895  2.8628 -0.4789 -1.8401
22035SOL     OW77828   7.359   2.104   2.597  0.2607 -0.6796  0.3218
22035SOL    HW177829   7.386   2.044   2.667 -0.9775  1.6624  2.9977
22035SOL    HW277830   7.272   2.075   2.573  0.1730 -0.7332  0.6947
22036SOL     OW77831   0.334   5.231   3.484  0.0312 -0.3815 -0.0328
22036SOL    HW177832   0.414   5.205   3.530  1.1261 -1.1238 -2.1663
22036SOL    HW277833   0.287   5.149   3.470  1.0884 -0.6874 -2.4985
22037SOL     OW77834   5.553   9.970   4.849  0.3442  0.0909 -0.2349
22037SOL    HW177835   5.631  10.022   4.830 -0.8849  2.9547  1.7957
22037SOL    HW277836   5.488  10.001   4.786 -1.0738  3.0273  2.3628
22038SOL     OW77837   1.965  10.834   2.392 -0.0079 -0.2634 -0.1977
22038SOL    HW177838   1.929  10.886   2.464 -0.6404 -1.0733  0.0800
22038SOL    HW277839   1.910  10.857   2.317  1.6652  1.8505 -0.8928
22039SOL     OW77840   8.843   4.090   5.076 -0.7130  0.3530 -0.1673
22039SOL    HW177841   8.897   4.150   5.024  2.4547 -0.8954  1.4182
22039SOL    HW277842   8.893   4.008   5.076 -2.9880 -1.1148  0.9165
22040SOL     OW77843   1.881   6.848   9.794 -0.1361 -1.1333 -0.6884
22040SOL    HW177844   1.965   6.802   9.805  1.7268  2.2337  0.5283
22040SOL    HW277845   1.882   6.877   9.702 -0.2426 -1.5017 -0.8109
22041SOL     OW77846   4.525   0.550   1.052 -0.5641  0.6183  0.1812
22041SOL    HW177847   4.599   0.558   1.111  0.3348  0.4893 -0.8974
22041SOL    HW277848   4.529   0.629   0.998  0.6099 -0.7441 -1.8739
22042SOL     OW77849  11.379   0.475   7.065 -0.0237 -0.3841 -0.4683
22042SOL    HW177850  11.408   0.493   6.975  0.1212 -2.2964 -0.8460
22042SOL    HW277851  11.456   0.492   7.119 -0.3093  1.4742 -0.5699
22043SOL     OW77852   9.295   0.226  11.496  0.3792  0.3876 -0.0097
22043SOL    HW177853   9.383   0.262  11.506  1.2210 -1.6432  0.3770
22043SOL    HW277854   9.250   0.249  11.578  1.1440 -0.0854  0.5523
22044SOL     OW77855   6.710   9.361   2.711  0.0649  0.3810  0.7134
22044SOL    HW177856   6.705   9.446   2.667 -1.4229 -0.5676 -1.0844
22044SOL    HW277857   6.794   9.362   2.756 -0.1748  3.0362  1.2633
22045SOL     OW77858   0.328   2.547   9.284 -0.3583 -0.0617  0.1916
22045SOL    HW177859   0.266   2.620   9.271 -0.9247 -0.5964 -0.1473
22045SOL    HW277860   0.281   2.470   9.253  0.5919 -0.4447 -0.3388
22046SOL     OW77861   7.881   1.547   9.010  0.4339  0.2079  0.0859
22046SOL    HW177862   7.815   1.503   8.957  0.9744  0.8492 -1.1606
22046SOL    HW277863   7.854   1.639   9.010 -0.4060  0.0253  2.2383
22047SOL     OW77864  11.767   3.243   4.009 -0.4801  0.0769 -0.3049
22047SOL    HW177865  11.766   3.182   4.082  1.1789  3.1681  2.6035
22047SOL    HW277866  11.708   3.314   4.036  2.6680  2.9179 -0.1962
22048SOL     OW77867   7.319   9.341   5.562 -0.0617 -0.4488  0.5519
22048SOL    HW177868   7.394   9.347   5.622 -0.2317 -1.9977  0.9674
22048SOL    HW277869   7.354   9.296   5.485 -0.4316 -0.6372  0.4950
22049SOL     OW77870   7.588   5.572   4.865  0.3697  0.1686  0.2608
22049SOL    HW177871   7.579   5.477   4.862 -0.4613  0.1806  1.4193
22049SOL    HW277872   7.648   5.588   4.938 -2.3342  0.5823  2.5857
22050SOL     OW77873   7.721  10.917   9.936  0.2101 -0.3586 -0.1929
22050SOL    HW177874   7.682  11.004   9.941 -1.2395 -1.0458  1.5820
22050SOL    HW277875   7.677  10.867  10.006  0.8435 -2.5636 -1.2856
22051SOL     OW77876   1.786  11.151   0.269  0.0953  0.2558 -0.5195
22051SOL    HW177877   1.797  11.093   0.344 -0.1105  0.7431 -0.1073
22051SOL    HW277878   1.778  11.092   0.194 -1.9108 -0.3447  0.1084
22052SOL     OW77879   8.171   7.306   4.229  0.1601  0.5613 -0.1454
22052SOL    HW177880   8.204   7.295   4.318  0.9909  1.2551 -0.3552
22052SOL    HW277881   8.203   7.392   4.202  1.5728 -0.4342 -1.8209
22053SOL     OW77882   8.333   0.240   6.069 -0.0460 -0.4166  0.4652
22053SOL    HW177883   8.391   0.174   6.108  1.6127  0.6028 -0.1370
22053SOL    HW277884   8.383   0.274   5.994 -3.0310 -2.2923 -2.7212
22054SOL     OW77885   1.992  10.967  11.124 -0.2366 -0.2849  0.2641
22054SOL    HW177886   1.934  10.910  11.174 -2.8773  1.2772 -0.8397
22054SOL    HW277887   1.969  11.056  11.153  1.6586  0.4040 -0.2115
22055SOL     OW77888   2.447   6.584  10.635  0.0921  0.2101  0.4871
22055SOL    HW177889   2.379   6.648  10.612 -0.0453  0.5185  1.6746
22055SOL    HW277890   2.489   6.621  10.713 -0.0228 -1.1693  1.2297
22056SOL     OW77891   2.295   5.903   9.873  0.0799 -0.0891  0.4479
22056SOL    HW177892   2.222   5.966   9.875  0.1396 -0.0184  2.4105
22056SOL    HW277893   2.371   5.957   9.852 -0.1247  0.2021  0.4362
22057SOL     OW77894   9.012   5.146   2.562  0.2553  0.3258  0.0401
22057SOL    HW177895   8.950   5.176   2.629 -0.7967 -3.3080  0.9357
22057SOL    HW277896   9.094   5.135   2.609  0.0690 -0.1694  0.2658
22058SOL     OW77897   1.325   7.559   9.073 -0.2602  0.4110  0.0913
22058SOL    HW177898   1.392   7.570   9.007 -1.0679  1.7411 -0.5590
22058SOL    HW277899   1.372   7.559   9.156  0.5086  1.9799 -0.3114
22059SOL     OW77900   1.472   2.355   8.091 -0.1594 -0.5468  0.1214
22059SOL    HW177901   1.462   2.277   8.146  0.7437 -0.7960 -0.0458
22059SOL    HW277902   1.515   2.322   8.012 -0.7941 -0.0683 -0.4378
22060SOL     OW77903   9.838   6.760   6.431 -0.3427  0.1254  0.5584
22060SOL    HW177904   9.883   6.807   6.361 -1.9557 -0.8758 -1.2593
22060SOL    HW277905   9.908   6.720   6.483  0.9058  0.4127 -0.8489
22061SOL     OW77906  10.569   6.349   3.094 -0.2808 -0.4114 -0.3628
22061SOL    HW177907  10.488   6.301   3.078  0.2667 -0.9372 -1.7170
22061SOL    HW277908  10.549   6.439   3.068 -0.8038 -0.2355  0.5850
22062SOL     OW77909   3.937   8.884   4.508 -0.0245 -0.0944  0.5524
22062SOL    HW177910   4.001   8.843   4.450  0.5417  0.1683  0.9719
22062SOL    HW277911   3.853   8.871   4.466  0.1739 -1.4711  0.5574
22063SOL     OW77912  10.394   3.214   2.332  0.0787 -0.0417 -0.4506
22063SOL    HW177913  10.320   3.270   2.312 -1.3670 -2.3740 -2.2064
22063SOL    HW277914  10.356   3.140   2.379  1.4801 -0.7402 -0.3536
22064SOL     OW77915   2.227  11.358  10.386 -0.1229 -0.1221 -0.0272
22064SOL    HW177916   2.156  11.351  10.322  0.2848 -0.3208 -0.4741
22064SOL    HW277917   2.305  11.332  10.336  0.6389  2.2915 -0.2080
22065SOL     OW77918   6.353   6.683   0.161  0.1432  0.1061  0.8263
22065SOL    HW177919   6.323   6.737   0.088  2.8161 -0.0141 -0.4388
22065SOL    HW277920   6.340   6.593   0.132  1.9812  0.0498  0.1174
22066SOL     OW77921   7.512  11.393  10.152 -0.1137 -0.0164 -0.3621
22066SOL    HW177922   7.486  11.477  10.189  0.3355 -0.4890  1.0721
22066SOL    HW277923   7.511  11.407  10.057 -0.6084  1.4262 -0.1577
22067SOL     OW77924   0.954   6.308   5.169  1.0834  0.6426  0.3487
22067SOL    HW177925   0.903   6.230   5.192 -1.1671  1.6052 -1.0541
22067SOL    HW277926   1.018   6.316   5.240  1.1061 -2.1870  0.7825
22068SOL     OW77927   8.486   7.697   8.139  0.4455  0.1914  0.2429
22068SOL    HW177928   8.552   7.636   8.171  0.7981  0.5175  0.1424
22068SOL    HW277929   8.411   7.642   8.117  0.9525 -0.2693 -0.3578
22069SOL     OW77930   9.334   3.226   4.574 -0.3236 -0.1280  0.4668
22069SOL    HW177931   9.423   3.261   4.585 -1.2234  2.5255 -0.0940
22069SOL    HW277932   9.334   3.189   4.485  0.2222 -0.2395  0.5082
22070SOL     OW77933   1.729  10.358   3.924  0.5705 -0.8964  0.4980
22070SOL    HW177934   1.639  10.334   3.944  1.0030 -0.9519  2.5263
22070SOL    HW277935   1.771  10.370   4.009  2.8934 -2.3637 -0.3462
22071SOL     OW77936   5.120   0.288   1.021 -0.2449  0.0623  0.1430
22071SOL    HW177937   5.136   0.382   1.029 -1.5291  0.1925  1.7374
22071SOL    HW277938   5.060   0.280   0.948 -0.1049  0.4725 -0.0194
22072SOL     OW77939   2.315   6.903  10.124 -0.8438 -0.0072 -0.0600
22072SOL    HW177940   2.273   6.860  10.050 -1.6103 -1.6469  1.2577
22072SOL    HW277941   2.367   6.973  10.085 -1.0536 -0.9427 -2.1405
22073SOL     OW77942   7.917   4.538   8.099  0.0427  0.1346 -0.0290
22073SOL    HW177943   7.829   4.520   8.133  0.1514 -0.3703 -0.0125
22073SOL    HW277944   7.976   4.498   8.162  0.3122  1.0190  0.2970
22074SOL     OW77945   6.090  10.956   5.852  0.2407 -0.0487  0.2562
22074SOL    HW177946   5.996  10.975   5.857  0.1726 -0.1970 -0.3733
22074SOL    HW277947   6.127  11.033   5.809  0.2850 -0.3534 -0.2574
22075SOL     OW77948   0.002   2.130   9.488 -0.3789 -0.2210  0.3385
22075SOL    HW177949   0.091   2.111   9.459  0.4290  0.1981  2.3556
22075SOL    HW277950  -0.054   2.071   9.436  1.1607 -1.2128 -0.2578
22076SOL     OW77951   9.512   1.179   7.496 -0.5341  0.2404 -0.2086
22076SOL    HW177952   9.548   1.218   7.576 -0.2059 -1.0747  0.3111
22076SOL    HW277953   9.460   1.249   7.457  1.8762  2.0013 -0.5560
22077SOL     OW77954   5.034   6.208   3.958 -0.4772  0.1762 -0.1443
22077SOL    HW177955   4.939   6.218   3.972 -0.3117  0.6715  0.7354
22077SOL    HW277956   5.056   6.279   3.897 -0.4215  1.0780  0.8938
22078SOL     OW77957   4.580   6.531   7.624  0.1268  0.3684  0.0800
22078SOL    HW177958   4.560   6.597   7.691 -2.6667 -2.4081  2.3374
22078SOL    HW277959   4.494   6.502   7.593  1.3025 -0.3220 -2.9080
22079SOL     OW77960   4.924   5.398   4.722 -0.1027 -0.2996  0.3303
22079SOL    HW177961   4.901   5.411   4.814  1.7570  0.9494  0.6783
22079SOL    HW277962   5.004   5.345   4.724 -0.7566 -1.3710 -0.6494
22080SOL     OW77963   1.897   7.781   2.006 -0.0259 -0.2068  0.1503
22080SOL    HW177964   1.933   7.724   2.074  2.4372 -0.6324 -1.3689
22080SOL    HW277965   1.907   7.870   2.041 -3.2980 -0.5313  2.2637
22081SOL     OW77966  11.767   4.295   2.872 -0.6955 -0.0277  0.1101
22081SOL    HW177967  11.847   4.323   2.828  0.0732 -3.4219 -0.9465
22081SOL    HW277968  11.787   4.302   2.965 -0.2257  1.6785 -0.0716
22082SOL     OW77969   6.972   1.776   1.952 -0.2630  0.1315 -0.1670
22082SOL    HW177970   6.948   1.758   1.861 -0.7455 -1.0780  0.1789
22082SOL    HW277971   6.912   1.846   1.979 -1.1615 -0.5482 -0.3321
22083SOL     OW77972  11.234   5.333   7.630  0.9019  0.3012  0.5775
22083SOL    HW177973  11.305   5.387   7.597  1.1316 -0.4221 -0.1770
22083SOL    HW277974  11.196   5.294   7.551 -1.3361  1.8446  0.7807
22084SOL     OW77975   1.508   1.883  11.222 -0.1298 -0.0925  0.1298
22084SOL    HW177976   1.564   1.933  11.162 -0.5035 -0.3984 -0.4786
22084SOL    HW277977   1.555   1.886  11.305 -0.4507  1.8540  0.3015
22085SOL     OW77978  10.736  11.324  11.455 -0.0596 -0.2975 -0.4981
22085SOL    HW177979  10.772  11.410  11.432  0.7947 -1.1473 -2.5089
22085SOL    HW277980  10.811  11.265  11.454 -0.8023 -1.2701 -0.1806
22086SOL     OW77981   2.258   4.911   8.809  0.1172  0.0792  0.4886
22086SOL    HW177982   2.323   4.923   8.739 -0.4661  0.6555  0.0308
22086SOL    HW277983   2.217   4.997   8.818 -2.3673 -0.8689 -1.0124
22087SOL     OW77984  10.660   0.401   0.748  0.0228  0.1522  0.0766
22087SOL    HW177985  10.588   0.465   0.746  1.6728  2.0944 -0.4083
22087SOL    HW277986  10.674   0.383   0.841 -1.4501 -0.7529  0.1636
22088SOL     OW77987   8.864   5.943   7.954  0.7753  0.4793  0.4694
22088SOL    HW177988   8.925   5.870   7.953 -0.0510 -0.2384  0.8613
22088SOL    HW277989   8.919   6.021   7.945  1.8850 -0.0464  2.2504
22089SOL     OW77990  11.920  11.610  10.949 -0.3057 -0.3747  0.1624
22089SOL    HW177991  11.920  11.668  10.873  2.0367  0.7056  0.8779
22089SOL    HW277992  11.919  11.670  11.024 -0.6483 -1.3572  0.9621
22090SOL     OW77993   2.261   6.440   0.291  0.3266  0.0660 -1.0680
22090SOL    HW177994   2.232   6.476   0.207  0.4115  1.3339 -0.5756
22090SOL    HW277995   2.213   6.358   0.299  0.0625  0.0922 -2.2031
22091SOL     OW77996   4.097   6.464  10.070  0.2897 -0.0458 -0.8193
22091SOL    HW177997   4.081   6.402  10.142  2.8000  0.2841  0.1101
22091SOL    HW277998   4.164   6.422  10.016  1.0201  1.2450 -0.9549
22092SOL     OW77999  10.677   3.009   1.550 -0.0714 -0.4807  0.2789
22092SOL    HW178000  10.671   3.067   1.474  0.2888 -0.2739  0.4016
22092SOL    HW278001  10.588   2.978   1.564 -0.3355  0.2940  0.3965
22093SOL     OW78002   1.665   2.299  11.942  0.2515  0.2464  0.4679
22093SOL    HW178003   1.626   2.355  12.009  0.1267  0.5647  0.1375
22093SOL    HW278004   1.640   2.210  11.967 -1.8816  0.5274 -0.4680
22094SOL     OW78005   9.372   3.651  11.533 -0.1035 -0.2556 -0.1037
22094SOL    HW178006   9.380   3.666  11.439 -0.2996 -0.2060 -0.1132
22094SOL    HW278007   9.375   3.739  11.571  1.4333 -0.3416  0.0585
22095SOL     OW78008   8.335   5.514   1.249 -0.5143  0.3635  0.4380
22095SOL    HW178009   8.243   5.498   1.269 -0.4121  0.0751  0.6854
22095SOL    HW278010   8.368   5.564   1.324 -0.6639  1.1716 -0.0187
22096SOL     OW78011   0.444   6.778   8.920 -0.2086  0.0111 -0.0920
22096SOL    HW178012   0.372   6.759   8.980  0.0792 -0.9813 -0.0467
22096SOL    HW278013   0.498   6.699   8.922 -0.5295 -0.2993 -2.1439
22097SOL     OW78014  11.452   0.807   9.145  0.1747  0.3163  0.1060
22097SOL    HW178015  11.435   0.805   9.239  0.3536 -1.0077  0.1331
22097SOL    HW278016  11.478   0.897   9.127 -0.0507  0.6346  1.2847
22098SOL     OW78017  10.883   9.345   2.354 -0.1562 -0.0480  0.2675
22098SOL    HW178018  10.958   9.391   2.391 -0.2463  0.7293 -0.4989
22098SOL    HW278019  10.807   9.392   2.389 -0.2598  0.0141 -0.0434
22099SOL     OW78020   1.231   6.288   3.991 -0.4938  0.3840  0.5033
22099SOL    HW178021   1.251   6.222   4.058 -1.8151 -0.8478 -0.2681
22099SOL    HW278022   1.314   6.300   3.944 -0.7110 -2.3651 -0.7333
22100SOL     OW78023   1.843   2.945  11.041 -0.4120 -0.1994 -0.2403
22100SOL    HW178024   1.921   2.909  11.084  0.0373 -0.7305 -1.4559
22100SOL    HW278025   1.770   2.911  11.093  0.0942 -1.2420 -0.1753
22101SOL     OW78026   5.448   6.583   1.892 -0.0747 -0.4215 -0.0760
22101SOL    HW178027   5.544   6.590   1.893 -0.0370 -0.5521  2.5448
22101SOL    HW278028   5.430   6.492   1.913 -0.8024 -0.5286 -1.0899
22102SOL     OW78029   4.714   6.667   0.216 -0.8974  0.4893 -0.0346
22102SOL    HW178030   4.783   6.622   0.265 -1.8634  0.5757  1.4725
22102SOL    HW278031   4.638   6.665   0.274 -1.9697  1.0281 -1.3554
22103SOL     OW78032   7.427   0.441   8.254  0.4400 -0.0247  0.0257
22103SOL    HW178033   7.472   0.451   8.170  0.9256  1.5043  0.4508
22103SOL    HW278034   7.497   0.426   8.318  0.1053 -0.6863  0.2540
22104SOL     OW78035   6.372   4.223   3.823 -0.0166  0.2424 -0.3656
22104SOL    HW178036   6.445   4.162   3.831  1.5074  1.4397 -3.5477
22104SOL    HW278037   6.308   4.177   3.769 -0.7204 -0.0183  0.6650
22105SOL     OW78038   3.353   7.726   2.531 -0.0324  0.0058 -0.6483
22105SOL    HW178039   3.417   7.660   2.502 -1.0915 -0.6883 -1.4882
22105SOL    HW278040   3.365   7.799   2.471  0.2678  0.0589 -0.5255
22106SOL     OW78041   3.521   5.264   7.658  0.4659  0.6729  0.0556
22106SOL    HW178042   3.502   5.355   7.634 -1.5104 -0.0793 -1.5260
22106SOL    HW278043   3.604   5.244   7.614  0.4481  1.4479 -0.3456
22107SOL     OW78044   5.077   6.823   9.074 -0.3608  0.2923  0.5122
22107SOL    HW178045   5.134   6.889   9.113 -0.1827  1.1258 -1.0680
22107SOL    HW278046   5.120   6.739   9.094 -0.2026  0.6922  1.9188
22108SOL     OW78047   6.593   4.605  10.674  0.8831 -0.0003 -0.6101
22108SOL    HW178048   6.520   4.543  10.664  0.8973 -0.1993  0.4383
22108SOL    HW278049   6.642   4.572  10.749  2.0690  0.1284 -1.3027
22109SOL     OW78050   9.495   7.766   6.343  0.0880  0.0918  0.2314
22109SOL    HW178051   9.503   7.710   6.420 -1.9929  1.7956  1.8037
22109SOL    HW278052   9.540   7.847   6.368  0.7770  0.1126 -0.9940
22110SOL     OW78053   3.258   0.916   1.470  0.1240 -0.0539  0.5657
22110SOL    HW178054   3.347   0.948   1.455  0.6690 -1.4868  0.6041
22110SOL    HW278055   3.246   0.849   1.403 -1.7428  1.5677 -0.8541
22111SOL     OW78056   9.542   5.710   3.001 -0.0086  0.0486 -0.3168
22111SOL    HW178057   9.596   5.774   2.955 -0.5426 -0.0166 -1.0529
22111SOL    HW278058   9.456   5.715   2.958 -0.7143  0.4235  1.0724
22112SOL     OW78059   7.018   0.810   7.387 -0.0545  0.1753 -0.2504
22112SOL    HW178060   6.934   0.841   7.352 -0.5285  1.3544  1.7869
22112SOL    HW278061   7.034   0.728   7.341 -2.5292 -0.2929 -0.4307
22113SOL     OW78062   0.165   0.399   5.546  0.4372 -0.9163 -0.6008
22113SOL    HW178063   0.205   0.485   5.529  0.0657 -0.2946  1.3848
22113SOL    HW278064   0.107   0.384   5.472 -0.0821  0.9363 -0.6218
22114SOL     OW78065   1.861   4.269   3.731 -0.4022 -0.1668  0.1925
22114SOL    HW178066   1.837   4.201   3.668  1.9521 -0.9111 -0.0229
22114SOL    HW278067   1.929   4.320   3.687 -0.2380  0.6427  1.3305
22115SOL     OW78068   0.719  11.774   6.717 -0.3167 -0.1462  0.1501
22115SOL    HW178069   0.794  11.795   6.772 -0.9252  3.2963 -0.1191
22115SOL    HW278070   0.758  11.734   6.638  1.4330  2.4660 -0.4399
22116SOL     OW78071   4.998   0.986   0.212  0.0606  0.7302  0.4147
22116SOL    HW178072   5.033   0.902   0.241 -0.5159  0.5751  0.6597
22116SOL    HW278073   5.000   0.981   0.116  0.1475  0.4899  0.4290
22117SOL     OW78074   3.682   8.681   1.733 -0.3532 -0.3446 -0.6661
22117SOL    HW178075   3.640   8.736   1.666  2.6153  1.1259 -1.4786
22117SOL    HW278076   3.705   8.601   1.686 -0.6905 -0.4418 -0.6701
22118SOL     OW78077   1.332   5.572  10.185 -0.2812  0.1463  0.1526
22118SOL    HW178078   1.357   5.563  10.277 -0.0306  1.6088  0.2425
22118SOL    HW278079   1.318   5.482  10.156 -1.2688 -0.2969  1.8567
22119SOL     OW78080   0.654   0.052   5.609  0.0499 -0.2682  0.3273
22119SOL    HW178081   0.718   0.123   5.612 -0.0054 -0.2371  0.9353
22119SOL    HW278082   0.569   0.096   5.616 -0.1207 -0.2141 -1.5845
22120SOL     OW78083   2.594   9.093   1.365 -0.2479  0.3795 -0.2922
22120SOL    HW178084   2.660   9.136   1.420 -0.7726  1.1003 -0.2049
22120SOL    HW278085   2.620   9.113   1.275  0.2563 -0.2589 -0.2889
22121SOL     OW78086   2.374   9.097   7.826 -0.5148 -0.7367 -0.8011
22121SOL    HW178087   2.307   9.028   7.831  0.8196 -2.3487 -3.0318
22121SOL    HW278088   2.370   9.127   7.735 -0.9686  2.1502  0.0776
22122SOL     OW78089   2.651   8.682   9.303  0.4506  0.0147 -0.1889
22122SOL    HW178090   2.565   8.645   9.321  0.3770  0.3466  0.1691
22122SOL    HW278091   2.702   8.664   9.382  0.3403  0.8652  0.0919
22123SOL     OW78092  11.873  11.752   1.263  0.3592 -0.1968 -0.1539
22123SOL    HW178093  11.884  11.686   1.195 -0.1137  0.8499 -1.2985
22123SOL    HW278094  11.956  11.752   1.311  0.7425 -0.8836 -0.7976
22124SOL     OW78095   7.323   3.491   8.201 -0.5814  0.2638 -0.0401
22124SOL    HW178096   7.268   3.566   8.226 -1.6284 -0.5941  0.3177
22124SOL    HW278097   7.310   3.427   8.271  0.3824 -0.2219 -0.2856
22125SOL     OW78098   7.924   1.644   9.494  0.7595  0.0432 -0.4966
22125SOL    HW178099   7.881   1.699   9.559  1.8290 -1.8374  2.0264
22125SOL    HW278100   7.857   1.580   9.469  1.0956 -1.0050  1.0880
22126SOL     OW78101   1.186  10.303   9.961 -0.5174  0.0643 -0.1288
22126SOL    HW178102   1.203  10.389  10.000  1.1797 -0.6297  0.7924
22126SOL    HW278103   1.192  10.318   9.867  0.7818  0.8007  0.0404
22127SOL     OW78104   6.037   1.245   8.416  0.4760  0.5118  0.1473
22127SOL    HW178105   5.950   1.284   8.404  1.0244  1.2011 -1.9655
22127SOL    HW278106   6.060   1.265   8.507 -1.8626 -0.3434  1.0056
22128SOL     OW78107  11.868   1.242   3.950 -0.1306 -0.3689 -0.5512
22128SOL    HW178108  11.907   1.192   4.021 -1.3825  0.1881  0.5730
22128SOL    HW278109  11.773   1.231   3.961 -0.3774  0.5091 -1.5413
22129SOL     OW78110   3.706   7.841   6.279 -0.6330  0.3574  0.2721
22129SOL    HW178111   3.694   7.772   6.344 -0.1343 -0.9879 -0.9959
22129SOL    HW278112   3.784   7.815   6.231 -1.4602  0.8086 -1.4188
22130SOL     OW78113  10.600   8.158   9.421 -0.1919 -0.5743  0.0341
22130SOL    HW178114  10.580   8.119   9.336 -0.0887 -0.2972 -0.1153
22130SOL    HW278115  10.523   8.210   9.442  0.0629 -0.0934 -0.2056
22131SOL     OW78116   9.988   6.408   7.334 -0.2168  0.5514 -0.2073
22131SOL    HW178117  10.011   6.490   7.290  0.9366  0.2585 -0.1786
22131SOL    HW278118  10.050   6.402   7.406  2.4972 -2.3220 -2.5480
22132SOL     OW78119   5.064   1.643   4.277  0.0753  0.3089  0.0833
22132SOL    HW178120   5.042   1.588   4.201 -1.3611  0.9951 -0.0276
22132SOL    HW278121   5.084   1.728   4.239 -0.5479  0.6260  0.4555
22133SOL     OW78122   8.299   3.661   3.297  0.2443 -0.2598 -0.1854
22133SOL    HW178123   8.282   3.596   3.229 -0.1513 -1.9446  1.4614
22133SOL    HW278124   8.215   3.674   3.340  0.1600  1.8674 -0.8506
22134SOL     OW78125   3.935   5.455   8.816  0.3549  0.1058 -0.1849
22134SOL    HW178126   4.011   5.441   8.759 -0.3275  0.1845 -1.1369
22134SOL    HW278127   3.865   5.482   8.756 -0.3390  0.3406  0.7181
22135SOL     OW78128   2.983   2.099   6.550 -0.0727 -0.4611  0.6825
22135SOL    HW178129   2.999   2.165   6.618 -0.0361 -0.5912  0.8024
22135SOL    HW278130   3.034   2.023   6.579  2.7801  0.5570 -1.2227
22136SOL     OW78131   2.199   7.669   7.762  0.8049  0.1531 -0.0683
22136SOL    HW178132   2.288   7.690   7.733  0.6364 -0.1374 -0.8225
22136SOL    HW278133   2.182   7.732   7.832  1.5863  0.2422  0.0595
22137SOL     OW78134   9.081  11.882   2.911  0.3522  0.2220 -0.0406
22137SOL    HW178135   9.080  11.948   2.981 -0.6029 -1.2621  1.4340
22137SOL    HW278136   9.023  11.812   2.943 -0.1626 -0.5145 -2.3596
22138SOL     OW78137   9.403   7.144   7.295 -0.0589 -0.3314  0.4804
22138SOL    HW178138   9.364   7.149   7.208  0.4965 -0.3495  0.2318
22138SOL    HW278139   9.453   7.062   7.294  1.7792  0.7444  0.0573
22139SOL     OW78140   6.416   0.091  10.733  0.0564 -0.2307 -0.0096
22139SOL    HW178141   6.434   0.002  10.763 -0.3400 -0.0918  0.6780
22139SOL    HW278142   6.347   0.122  10.792 -0.1365  0.3658 -0.5418
22140SOL     OW78143   4.898   7.904   5.975  0.4047  0.6534  0.3945
22140SOL    HW178144   4.919   7.906   6.068  2.6337  0.0511 -0.0298
22140SOL    HW278145   4.960   7.841   5.938 -1.9296 -0.8556 -1.1872
22141SOL     OW78146   1.037   8.596   6.265 -0.2348 -0.4609  0.8321
22141SOL    HW178147   1.040   8.510   6.225  0.0528 -0.1130  0.0888
22141SOL    HW278148   1.108   8.595   6.329  1.5281  0.0902 -1.0180
22142SOL     OW78149   1.793  11.138   8.937 -0.5304 -0.3985  0.3354
22142SOL    HW178150   1.697  11.146   8.937 -0.5369 -0.4615  0.1417
22142SOL    HW278151   1.814  11.102   9.022 -0.6860 -0.4584  0.3496
22143SOL     OW78152   9.919   6.918   4.571 -0.0896  0.4399 -0.6105
22143SOL    HW178153   9.881   6.830   4.571 -0.3246  0.4961  1.7029
22143SOL    HW278154   9.847   6.976   4.547 -0.7449  0.2659  0.8721
22144SOL     OW78155   2.258   5.979  10.216 -0.7398 -0.6308 -0.1438
22144SOL    HW178156   2.234   6.020  10.299  0.6304  0.8336 -0.4289
22144SOL    HW278157   2.218   6.034  10.149 -0.0950 -0.5889 -0.5004
22145SOL     OW78158   8.866   0.252  11.096 -0.1821 -0.2407 -0.2614
22145SOL    HW178159   8.894   0.167  11.063  0.2548 -0.5200  0.7871
22145SOL    HW278160   8.886   0.313  11.024  1.5501 -0.6923 -0.2055
22146SOL     OW78161   0.678   5.070   9.527 -0.1711  0.5092 -0.1433
22146SOL    HW178162   0.759   5.061   9.476 -0.3520 -1.2691 -0.1912
22146SOL    HW278163   0.700   5.131   9.597  1.1241  0.2981 -0.3390
22147SOL     OW78164   5.656  11.843   6.463 -0.3594  0.0239  0.1882
22147SOL    HW178165   5.627  11.905   6.396  0.6890 -0.0159 -0.3218
22147SOL    HW278166   5.670  11.897   6.541  0.3335  0.4098 -0.1903
22148SOL     OW78167   4.847   3.335   4.143  0.4376  0.1262  0.3332
22148SOL    HW178168   4.935   3.367   4.165  1.5940 -1.6740 -1.2884
22148SOL    HW278169   4.840   3.251   4.189 -0.3634  0.1762  0.3132
22149SOL     OW78170   1.071   3.844  10.130 -0.2276 -0.0055  0.0395
22149SOL    HW178171   1.011   3.793  10.185  2.4248 -2.0259  1.2831
22149SOL    HW278172   1.082   3.927  10.176 -1.9372  0.3938 -0.1936
22150SOL     OW78173   3.053  10.037   7.810 -0.5852  0.2145 -0.7055
22150SOL    HW178174   3.090  10.052   7.723  0.5205 -0.5474 -0.3866
22150SOL    HW278175   2.969   9.993   7.794  0.6446 -2.0290 -1.3632
22151SOL     OW78176   5.935   1.734   6.792 -0.3934  0.3856  0.6516
22151SOL    HW178177   5.900   1.781   6.868 -0.0906 -0.3998  1.2838
22151SOL    HW278178   5.905   1.644   6.803 -0.2187  0.2263 -0.0871
22152SOL     OW78179   4.138   3.295   6.201 -0.5635  0.4287  0.1380
22152SOL    HW178180   4.166   3.317   6.112  1.7001 -1.1234  0.4034
22152SOL    HW278181   4.084   3.216   6.190 -0.8130  0.6039  0.0932
22153SOL     OW78182  11.775  11.119   4.871 -0.4565  0.4026  0.1185
22153SOL    HW178183  11.727  11.161   4.800 -1.2287  1.5762  1.3060
22153SOL    HW278184  11.863  11.157   4.866 -0.4471  0.3380 -0.2986
22154SOL     OW78185  10.483   4.816   6.811  0.2841 -0.6076  0.3313
22154SOL    HW178186  10.449   4.728   6.830 -1.8898  0.1912  0.4141
22154SOL    HW278187  10.577   4.809   6.829  0.1253 -2.8209  0.6531
22155SOL     OW78188   0.317   4.191  10.165 -0.7243 -0.3029  0.6005
22155SOL    HW178189   0.347   4.201  10.256 -0.2512 -0.4240  0.4610
22155SOL    HW278190   0.281   4.102  10.162 -0.3764 -0.4489  0.5771
22156SOL     OW78191   2.406   4.802   6.555 -0.1500 -0.1281  0.4858
22156SOL    HW178192   2.315   4.830   6.559  0.0103  0.8357 -1.3095
22156SOL    HW278193   2.409   4.743   6.480  0.8145  0.3477  0.1366
22157SOL     OW78194   0.286   2.172   7.783  0.6770 -0.6301 -0.0895
22157SOL    HW178195   0.271   2.078   7.775 -2.8767 -0.5063  2.3682
22157SOL    HW278196   0.212   2.212   7.737  0.2773  0.7580  1.6278
22158SOL     OW78197   3.409   8.355   4.067 -0.2566 -0.0319 -0.1611
22158SOL    HW178198   3.382   8.393   4.151 -0.6862  1.8471 -1.0792
22158SOL    HW278199   3.499   8.326   4.081 -0.5381 -0.3591  1.1146
22159SOL     OW78200   9.826   1.844   4.006  0.9491  0.9215  0.1832
22159SOL    HW178201   9.850   1.926   4.049  1.1768  1.0062 -0.1024
22159SOL    HW278202   9.741   1.863   3.966  0.6103  0.7581  0.8213
22160SOL     OW78203   8.888   0.293   3.837 -0.2717  0.5092  0.2206
22160SOL    HW178204   8.921   0.210   3.871  1.7290  0.8593 -0.7046
22160SOL    HW278205   8.887   0.282   3.742 -2.4484  0.7274  0.1590
22161SOL     OW78206   5.117   8.500   4.137 -0.0784  0.3219  0.0360
22161SOL    HW178207   5.099   8.425   4.079 -0.2851  0.8017 -0.5267
22161SOL    HW278208   5.056   8.567   4.108 -2.2784 -0.3582  2.6912
22162SOL     OW78209   9.423  10.854   5.709 -0.1391 -0.2616 -0.0919
22162SOL    HW178210   9.474  10.840   5.789 -0.7987 -0.9920  0.2124
22162SOL    HW278211   9.361  10.924   5.732 -0.2346 -0.3732 -0.0076
22163SOL     OW78212   4.977  10.618   5.207  0.2876 -0.4291  0.0999
22163SOL    HW178213   4.999  10.600   5.115  1.7459 -3.2265  0.8604
22163SOL    HW278214   5.047  10.677   5.237  0.8311 -0.9189 -0.1746
22164SOL     OW78215   5.289   8.542   0.601  0.0347  0.3916 -0.0820
22164SOL    HW178216   5.263   8.599   0.674  1.3967  0.2258  0.5584
22164SOL    HW278217   5.371   8.502   0.630 -0.7229 -1.6751 -0.6376
22165SOL     OW78218   1.705   1.637   3.760  0.2505  0.3522  0.3706
22165SOL    HW178219   1.765   1.564   3.745  0.4076  0.5323  0.1240
22165SOL    HW278220   1.629   1.596   3.802  0.9236  0.2672  1.5310
22166SOL     OW78221   1.500   3.643   1.467  0.1850  0.1905 -0.2773
22166SOL    HW178222   1.419   3.644   1.518 -0.0183 -0.6389 -0.5748
22166SOL    HW278223   1.545   3.563   1.495 -0.0372 -0.3972 -1.5605
22167SOL     OW78224   3.731   7.449   3.521 -0.2991  0.4524 -0.0066
22167SOL    HW178225   3.683   7.501   3.456  0.3660  0.5461 -0.4371
22167SOL    HW278226   3.810   7.499   3.538 -0.8415  0.8487  1.5293
22168SOL     OW78227   1.383  10.865   5.169  0.4284  0.1744 -0.2991
22168SOL    HW178228   1.334  10.789   5.139  0.7677  0.6922 -2.2885
22168SOL    HW278229   1.323  10.909   5.231 -0.3155 -0.9201 -0.2110
22169SOL     OW78230   3.065  10.061   4.129 -0.5291  0.6918 -0.0511
22169SOL    HW178231   3.106   9.998   4.189  1.9086  0.3981 -1.8620
22169SOL    HW278232   3.091  10.147   4.161  0.6735  0.5380 -0.5616
22170SOL     OW78233   5.527   7.693   1.379 -0.0111 -0.1337 -0.4636
22170SOL    HW178234   5.479   7.610   1.379  0.0595 -0.1947  0.7407
22170SOL    HW278235   5.613   7.670   1.413 -0.0375  0.4578  0.0088
22171SOL     OW78236   5.769   2.358  11.621 -0.3448 -0.1440  0.6777
22171SOL    HW178237   5.823   2.288  11.586  0.5166  0.9961 -0.3747
22171SOL    HW278238   5.826   2.435  11.621 -1.9549  1.1265 -0.5342
22172SOL     OW78239   8.857   4.557  10.091  0.2363  0.1713 -0.3785
22172SOL    HW178240   8.842   4.510  10.173  0.9915  1.1560  0.3658
22172SOL    HW278241   8.868   4.489  10.025  2.1321 -0.7504  0.8035
22173SOL     OW78242   8.591   2.111   4.560  0.4158  0.4863  0.1940
22173SOL    HW178243   8.499   2.088   4.559  0.6473 -0.4293 -0.2870
22173SOL    HW278244   8.628   2.060   4.633  0.6998  0.2173 -0.1354
22174SOL     OW78245   2.149   0.980   8.206  0.1279 -0.5503 -0.0686
22174SOL    HW178246   2.142   0.931   8.124 -0.2162 -0.3575 -0.1539
22174SOL    HW278247   2.060   0.983   8.240 -0.2666  1.8212 -1.1111
22175SOL     OW78248   5.999  10.755   6.561  0.0296  0.2115 -0.1009
22175SOL    HW178249   6.034  10.686   6.504 -0.4020 -0.5973  0.5937
22175SOL    HW278250   5.956  10.707   6.632  0.6601  1.1963  0.9721
22176SOL     OW78251   3.799  11.937  10.308  0.3097 -0.7208  0.2323
22176SOL    HW178252   3.738  11.866  10.328  0.2533 -0.5116  0.8148
22176SOL    HW278253   3.882  11.893  10.292 -0.2340 -1.1065 -1.7163
22177SOL     OW78254   5.081   8.610   1.925 -0.1778 -0.5650  0.4974
22177SOL    HW178255   5.093   8.698   1.960  0.0299 -0.0011 -0.9051
22177SOL    HW278256   4.988   8.602   1.907  0.0159  0.0361 -0.9439
22178SOL     OW78257   1.684   1.227   3.389  0.5200 -1.2203 -0.0852
22178SOL    HW178258   1.694   1.298   3.453  1.7357  0.3430 -1.9003
22178SOL    HW278259   1.773   1.194   3.377  0.7658  0.1224 -2.6270
22179SOL     OW78260   8.156   0.720   0.842 -0.2375  0.2995 -0.8904
22179SOL    HW178261   8.120   0.748   0.758 -2.1365  0.3476 -0.1030
22179SOL    HW278262   8.080   0.700   0.896  0.9430 -0.1833  0.6850
22180SOL     OW78263   7.984   5.765  10.249  1.0253 -0.0542  0.0330
22180SOL    HW178264   8.009   5.801  10.164  0.2680  1.2110  0.3184
22180SOL    HW278265   8.047   5.801  10.311  1.1352 -0.3911  0.1229
22181SOL     OW78266   4.630   3.906   1.949 -0.3133  0.6563 -0.0834
22181SOL    HW178267   4.668   3.839   1.893 -0.5705 -0.7139  1.2920
22181SOL    HW278268   4.571   3.955   1.892  0.9788  0.6647 -1.4585
22182SOL     OW78269   0.332   0.760   3.771 -0.3391  0.3294 -0.0043
22182SOL    HW178270   0.310   0.827   3.706 -1.2668 -0.1011 -0.1535
22182SOL    HW278271   0.326   0.677   3.722  1.3879  0.1616  0.0235
22183SOL     OW78272   7.096  10.269   5.517  0.3294 -0.1963 -0.5502
22183SOL    HW178273   7.008  10.241   5.544  0.7024 -0.9353 -0.0667
22183SOL    HW278274   7.138  10.298   5.598  0.5677  0.0650 -0.7656
22184SOL     OW78275   0.817  11.860   6.072  0.0780  0.0610  0.1820
22184SOL    HW178276   0.833  11.793   6.005  0.4751 -0.3805  0.7111
22184SOL    HW278277   0.777  11.933   6.024  0.7134 -0.0932 -0.6038
22185SOL     OW78278   9.651   7.282   7.888 -0.3714 -0.1166 -0.1364
22185SOL    HW178279   9.610   7.260   7.972  0.7891 -1.2508  0.1601
22185SOL    HW278280   9.647   7.378   7.885  0.7636  0.0606  1.8690
22186SOL     OW78281   3.890   7.170  10.095  0.3753  0.3508  0.1872
22186SOL    HW178282   3.981   7.195  10.077  0.2808 -0.3194 -1.3609
22186SOL    HW278283   3.841   7.204  10.020 -0.2031 -1.7174 -0.4290
22187SOL     OW78284   9.781   6.572   0.288 -0.2784 -0.3433  0.5467
22187SOL    HW178285   9.724   6.552   0.363 -0.6167  0.2562  0.4558
22187SOL    HW278286   9.779   6.667   0.281 -1.1862 -0.4390 -0.9306
22188SOL     OW78287   4.693   4.954   9.647 -0.0475  0.3761  0.9054
22188SOL    HW178288   4.770   4.986   9.695  0.6364  3.9886 -2.0918
22188SOL    HW278289   4.637   5.031   9.639 -0.6925 -0.3163 -2.7873
22189SOL     OW78290  11.587   6.502  10.471 -0.3359  0.2146 -0.2610
22189SOL    HW178291  11.502   6.470  10.501 -1.2272  1.0493 -1.7905
22189SOL    HW278292  11.574   6.595  10.455  0.8524  0.3453 -0.5813
22190SOL     OW78293   3.792   3.642   6.882  0.6360  0.8138  0.0081
22190SOL    HW178294   3.754   3.639   6.794  1.4632  1.8381 -0.4027
22190SOL    HW278295   3.869   3.698   6.873  0.4893  1.2945  1.4837
22191SOL     OW78296   0.032   9.545   6.177 -0.0326  0.4830 -0.1280
22191SOL    HW178297   0.118   9.513   6.148 -0.0686 -1.7302  1.9068
22191SOL    HW278298   0.045   9.638   6.192  1.8655  0.3108 -0.4235
22192SOL     OW78299   8.623   3.342   4.747 -0.3092 -0.0548 -0.4716
22192SOL    HW178300   8.645   3.366   4.837  0.7290  2.3128 -1.2778
22192SOL    HW278301   8.538   3.299   4.754 -0.1019 -0.2399  1.6544
22193SOL     OW78302   6.968   1.166   7.576  0.8516  0.5932  0.4897
22193SOL    HW178303   6.979   1.218   7.656  0.0759  0.8149  0.4617
22193SOL    HW278304   7.056   1.160   7.539  1.3145  0.0418  1.6381
22194SOL     OW78305  10.189   4.703   1.303  0.3371 -0.2197  0.6477
22194SOL    HW178306  10.167   4.736   1.391  3.2003 -1.0114  1.7732
22194SOL    HW278307  10.124   4.743   1.246 -1.9113  0.0208  3.1507
22195SOL     OW78308   0.591   8.232   4.528 -0.2737 -0.1244 -0.3424
22195SOL    HW178309   0.605   8.152   4.478 -2.0864 -1.4269  1.0683
22195SOL    HW278310   0.593   8.203   4.619  3.4307  2.2420  0.5113
22196SOL     OW78311   5.577  11.509   6.267  0.5857 -0.5306 -0.1203
22196SOL    HW178312   5.598  11.558   6.188 -0.1060 -0.2139 -0.1165
22196SOL    HW278313   5.550  11.575   6.331 -0.5965 -0.9081 -0.1919
22197SOL     OW78314   3.069   4.336   9.132 -0.3125 -0.1349  0.1498
22197SOL    HW178315   3.044   4.334   9.039  2.5222 -2.0012 -0.6816
22197SOL    HW278316   3.120   4.416   9.142  0.4132 -0.5443 -0.2252
22198SOL     OW78317   2.403   8.833   6.724 -0.6183  0.3665  0.6773
22198SOL    HW178318   2.346   8.855   6.798 -2.0240  0.4557 -0.3991
22198SOL    HW278319   2.364   8.878   6.649  0.7555  0.2505 -0.1468
22199SOL     OW78320   5.515   1.196   6.563 -0.1047 -0.6149  0.2203
22199SOL    HW178321   5.537   1.139   6.489 -1.4959  1.7192 -2.1606
22199SOL    HW278322   5.599   1.216   6.604  1.1419  0.3308 -2.5688
22200SOL     OW78323   7.995   7.876  11.954  0.3069  0.2283  0.0643
22200SOL    HW178324   7.975   7.795  12.001 -0.7159  0.9091  0.8468
22200SOL    HW278325   8.020   7.847  11.866 -1.4725 -0.8751 -0.1261
22201SOL     OW78326   0.187   1.467   0.533  0.1279 -0.4233 -0.1693
22201SOL    HW178327   0.218   1.487   0.622  0.4226  0.5469 -0.4867
22201SOL    HW278328   0.122   1.397   0.546  1.3509 -1.4481  0.6463
22202SOL     OW78329   3.151   1.097   4.947 -0.1504  0.5137 -0.0133
22202SOL    HW178330   3.130   1.067   4.858 -0.7104 -0.1948  0.3446
22202SOL    HW278331   3.227   1.044   4.973  1.6188  2.4559 -0.9748
22203SOL     OW78332   0.702   6.386   5.769 -0.0112  0.5104  0.3116
22203SOL    HW178333   0.623   6.352   5.810  0.2902  0.7255  1.0929
22203SOL    HW278334   0.672   6.431   5.690 -0.2656 -3.7881 -2.3985
22204SOL     OW78335   8.084   5.096   1.470  0.3880  0.2755  0.9587
22204SOL    HW178336   8.163   5.052   1.500  2.5420  3.2564  0.2033
22204SOL    HW278337   8.068   5.164   1.536  0.8287  2.1591 -0.7597
22205SOL     OW78338   2.266   4.316   2.067  0.2730 -0.0562 -0.2803
22205SOL    HW178339   2.249   4.407   2.088 -1.1484 -0.0722 -1.2095
22205SOL    HW278340   2.279   4.273   2.152  0.7126  0.9499  0.1708
22206SOL     OW78341   7.761   7.220   8.010  0.0300 -0.3695 -0.1386
22206SOL    HW178342   7.823   7.255   8.074  0.1099 -0.8453  0.0481
22206SOL    HW278343   7.688   7.188   8.063 -2.2759  3.6583 -0.4706
22207SOL     OW78344   3.949   2.400   9.308 -0.0173 -0.1327  0.4163
22207SOL    HW178345   4.028   2.443   9.276 -0.3497 -0.0883 -0.3847
22207SOL    HW278346   3.978   2.345   9.381  0.4399  1.3541  1.4048
22208SOL     OW78347   1.993   6.639   4.363 -0.2972  0.9030 -0.2971
22208SOL    HW178348   1.993   6.731   4.386 -2.4114  1.0015 -0.5204
22208SOL    HW278349   1.931   6.632   4.291 -0.4016 -0.7294 -0.0878
22209SOL     OW78350   8.233  11.958   9.753 -0.3499  0.1490  0.2664
22209SOL    HW178351   8.210  11.961   9.846  0.7355  2.1222  0.5206
22209SOL    HW278352   8.222  11.866   9.728 -0.7731 -0.3934  2.3050
22210SOL     OW78353   8.565   3.605   4.936 -0.5332  0.3291  0.3038
22210SOL    HW178354   8.600   3.524   4.973  1.0222 -0.5347 -2.7898
22210SOL    HW278355   8.618   3.674   4.975  1.4326 -0.5913 -0.6191
22211SOL     OW78356   9.550  11.671   3.523  0.1552  0.2410 -0.3118
22211SOL    HW178357   9.591  11.724   3.592 -0.5418  0.1668  0.1766
22211SOL    HW278358   9.551  11.728   3.446  0.2764  0.6153 -0.0399
22212SOL     OW78359   8.637   2.677   5.721  0.0190 -0.7352  0.4558
22212SOL    HW178360   8.678   2.630   5.795 -0.4732 -1.5455  0.2240
22212SOL    HW278361   8.702   2.670   5.650  1.4697  1.8977  1.3831
22213SOL     OW78362   9.255   6.761   6.290  0.0958  0.2803 -0.8038
22213SOL    HW178363   9.188   6.787   6.353 -0.6338 -2.0630 -0.5183
22213SOL    HW278364   9.333   6.743   6.343 -0.2402 -0.7756 -0.6443
22214SOL     OW78365   0.389   3.023   2.263  0.0881  0.3187 -0.5938
22214SOL    HW178366   0.339   2.969   2.203  0.2377 -0.2858 -0.1788
22214SOL    HW278367   0.426   2.962   2.326 -1.2860  1.0679  1.0295
22215SOL     OW78368   2.979   7.029   6.748 -0.3232  0.4112 -0.7380
22215SOL    HW178369   3.021   7.100   6.797  0.6063 -0.6273  0.0260
22215SOL    HW278370   3.048   6.963   6.737 -1.5733 -1.1031  0.0276
22216SOL     OW78371   2.626   2.353   2.177 -0.0476  0.1289 -0.6440
22216SOL    HW178372   2.694   2.309   2.229  0.4588  0.2201 -1.2105
22216SOL    HW278373   2.546   2.305   2.196  0.5348 -1.2166 -1.4364
22217SOL     OW78374  10.025   1.007   1.045 -0.0169  0.3344 -0.0631
22217SOL    HW178375  10.102   1.062   1.058  1.7641 -1.9406 -0.3708
22217SOL    HW278376  10.033   0.938   1.111 -1.4784 -0.3208 -0.5168
22218SOL     OW78377   6.713   1.494   8.392 -0.1051  0.0416 -0.3032
22218SOL    HW178378   6.700   1.426   8.458  0.5201  1.3655  1.2262
22218SOL    HW278379   6.726   1.575   8.442 -1.2826  1.3978 -2.0621
22219SOL     OW78380   7.219   1.420   8.106 -0.0934  0.2198  0.2430
22219SOL    HW178381   7.231   1.430   8.012 -1.2165  0.2130  0.0769
22219SOL    HW278382   7.132   1.381   8.115 -0.4349  1.1604  1.3161
22220SOL     OW78383   5.056   8.344   7.149 -0.3052  0.2345  0.1397
22220SOL    HW178384   5.001   8.355   7.226 -0.8746  0.7356 -0.3236
22220SOL    HW278385   5.084   8.433   7.127  1.3609 -0.0889  0.8361
22221SOL     OW78386   1.363   8.294   5.114  0.0402  0.0930 -0.3141
22221SOL    HW178387   1.400   8.368   5.162 -0.4096  0.5171 -0.6221
22221SOL    HW278388   1.425   8.277   5.044  1.0412 -0.9400  0.7622
22222SOL     OW78389   7.602   8.475   2.374  0.3730  0.2222  0.1904
22222SOL    HW178390   7.651   8.427   2.307  1.0870 -0.2402  1.0215
22222SOL    HW278391   7.524   8.423   2.389  0.3107  0.2208 -0.1289
22223SOL     OW78392   0.629   4.491   1.402  0.0838  0.3303  0.5759
22223SOL    HW178393   0.686   4.565   1.381  0.0654  0.3034  0.4300
22223SOL    HW278394   0.687   4.415   1.401  0.8747  0.6957  4.1115
22224SOL     OW78395   2.732   4.042   6.733  0.1080 -0.0660 -0.0454
22224SOL    HW178396   2.814   4.075   6.770  0.4470  0.4643 -1.2322
22224SOL    HW278397   2.730   3.949   6.758  1.0494 -0.0776  0.0188
22225SOL     OW78398  10.770   5.683   1.015  0.0182  0.5706  0.0792
22225SOL    HW178399  10.786   5.682   1.109  0.9508 -0.4197 -0.0643
22225SOL    HW278400  10.826   5.754   0.983  1.8276 -0.8182 -0.0189
22226SOL     OW78401   3.140   9.275   7.293 -0.2759  0.4714  0.1554
22226SOL    HW178402   3.186   9.343   7.342  1.7116  0.0386 -1.0018
22226SOL    HW278403   3.180   9.193   7.321 -0.0802  0.0991 -1.1350
22227SOL     OW78404   6.089   2.248   4.383  0.0335 -0.5540  0.1913
22227SOL    HW178405   6.056   2.202   4.306  0.2012 -0.2546 -0.0601
22227SOL    HW278406   6.150   2.185   4.424 -0.4342 -0.9041  0.3649
22228SOL     OW78407   5.060   5.584   8.429  0.2716  0.1397 -0.1845
22228SOL    HW178408   5.154   5.572   8.439  0.1070 -2.3488 -0.9583
22228SOL    HW278409   5.023   5.556   8.513  0.2015  1.2483  0.1697
22229SOL     OW78410   0.464   1.299   7.577  0.2340 -0.2245  0.1287
22229SOL    HW178411   0.533   1.277   7.639 -0.6350 -1.5246  0.6637
22229SOL    HW278412   0.462   1.225   7.516 -1.6875 -0.9616  1.0280
22230SOL     OW78413  10.513   9.793   5.707 -0.4127  0.1159  0.1279
22230SOL    HW178414  10.456   9.745   5.767 -1.4723  1.4851  0.2644
22230SOL    HW278415  10.601   9.782   5.743 -0.6853 -1.3197  0.3991
22231SOL     OW78416   7.319   5.981   6.471 -0.4518  0.4988 -0.6315
22231SOL    HW178417   7.348   5.910   6.528  0.3181  0.3224 -1.2309
22231SOL    HW278418   7.223   5.977   6.474 -0.4226  0.2234  0.2991
22232SOL     OW78419  10.060   7.602   6.190 -0.1077  0.2862 -0.1469
22232SOL    HW178420  10.117   7.676   6.170 -1.0188  1.6942  2.1291
22232SOL    HW278421   9.983   7.641   6.230 -1.4453 -1.7853 -0.5466
22233SOL     OW78422  11.766   2.571   0.520 -0.0261 -0.1606 -0.1793
22233SOL    HW178423  11.726   2.487   0.540 -2.0236  0.5071 -1.1116
22233SOL    HW278424  11.730   2.632   0.584 -1.2515  0.6264 -1.5560
22234SOL     OW78425   5.461  10.327  11.115 -0.6152  0.2413  0.0264
22234SOL    HW178426   5.404  10.346  11.040 -1.4837 -1.2483  0.2849
22234SOL    HW278427   5.519  10.257  11.084  0.9539  1.5541 -0.1477
22235SOL     OW78428   5.402   8.878   9.594 -0.0934 -0.5168 -0.0050
22235SOL    HW178429   5.395   8.782   9.598  0.7102 -0.6657 -1.2417
22235SOL    HW278430   5.332   8.904   9.535  0.7822 -0.5613 -1.1134
22236SOL     OW78431   9.551   8.785  10.652  0.2586 -0.5428 -0.1489
22236SOL    HW178432   9.582   8.867  10.615 -1.7771 -0.1715 -1.1780
22236SOL    HW278433   9.535   8.805  10.745  0.3114  0.0637 -0.2689
22237SOL     OW78434   6.021   4.597   6.193 -0.4094  0.1594  0.2980
22237SOL    HW178435   5.984   4.521   6.238  0.5581 -0.1741  0.5429
22237SOL    HW278436   6.012   4.576   6.100 -2.7930  1.0285  0.2718
22238SOL     OW78437  10.343   0.193   5.423 -0.0599  0.0956  0.6962
22238SOL    HW178438  10.285   0.127   5.384 -3.1874  3.0043  0.0090
22238SOL    HW278439  10.344   0.265   5.360  0.4437  2.0923  2.8491
22239SOL     OW78440   1.167  10.534   6.239 -0.7502 -0.0116  0.8451
22239SOL    HW178441   1.234  10.599   6.218  0.8049 -1.5195  0.8917
22239SOL    HW278442   1.108  10.534   6.164 -0.5630  1.1671  0.6840
22240SOL     OW78443   8.787  11.653   2.710  0.2650  0.7235 -0.1729
22240SOL    HW178444   8.695  11.636   2.732  0.4640  0.7687  0.7629
22240SOL    HW278445   8.830  11.664   2.795  0.8369  2.3587 -0.6435
22241SOL     OW78446   3.179   2.901   0.279  0.0013 -0.6674  0.1451
22241SOL    HW178447   3.171   2.914   0.184 -2.9170  0.9705  0.4953
22241SOL    HW278448   3.098   2.855   0.304  0.5479 -0.7477  1.8932
22242SOL     OW78449   5.023   6.648   0.847 -0.2522  0.3580  0.1785
22242SOL    HW178450   4.939   6.680   0.883 -0.2119  0.0377  0.5640
22242SOL    HW278451   5.006   6.557   0.824 -0.0431  0.3283  0.1434
22243SOL     OW78452   3.596   6.968   7.358  0.3470 -0.1834  0.1693
22243SOL    HW178453   3.644   7.019   7.423 -0.4643  0.2261  0.4720
22243SOL    HW278454   3.655   6.961   7.283  1.2662 -0.5972  0.9164
22244SOL     OW78455  10.355   6.875   7.110  0.5503  0.0164  0.4956
22244SOL    HW178456  10.366   6.820   7.188  0.1040  0.3772  0.8167
22244SOL    HW278457  10.265   6.908   7.117  0.6109  0.2900 -0.0189
22245SOL     OW78458   4.945   4.393   3.646 -0.1815  0.4016 -0.1829
22245SOL    HW178459   4.924   4.431   3.732 -1.6400 -1.5115  0.3678
22245SOL    HW278460   4.982   4.307   3.667  2.6981  1.2172 -1.4084
22246SOL     OW78461   3.955  10.620   1.734 -0.4465  0.2700  0.0041
22246SOL    HW178462   3.876  10.629   1.787 -0.0909 -1.0855  0.8165
22246SOL    HW278463   4.025  10.605   1.798  0.3787  0.9167 -0.7351
22247SOL     OW78464  11.806   3.592   0.118  0.0117 -0.0287 -0.4924
22247SOL    HW178465  11.712   3.608   0.118  0.2430  1.5088 -1.4613
22247SOL    HW278466  11.814   3.500   0.144 -1.6510  0.2440  1.2906
22248SOL     OW78467   1.284   1.799   1.823 -0.4799  0.0867 -0.4901
22248SOL    HW178468   1.296   1.733   1.891 -2.0412 -1.3720 -1.5478
22248SOL    HW278469   1.372   1.827   1.801  0.2235 -1.5503  0.1042
22249SOL     OW78470   3.625   9.751  10.604 -0.6041 -0.5338 -0.5262
22249SOL    HW178471   3.689   9.724  10.670 -1.3088 -0.1978  0.3003
22249SOL    HW278472   3.610   9.671  10.552 -0.6085 -0.9978  0.1777
22250SOL     OW78473   8.944   5.849   6.445 -0.0836 -0.0473  0.0649
22250SOL    HW178474   8.945   5.942   6.423  0.4277  0.8916  3.4539
22250SOL    HW278475   9.035   5.821   6.437  0.0927  0.2786  0.8140
22251SOL     OW78476   3.798   5.161   8.602  0.5784 -0.5850  0.2722
22251SOL    HW178477   3.838   5.244   8.575  2.5433 -1.0713  1.5345
22251SOL    HW278478   3.811   5.157   8.696  0.9514 -2.5472  0.1724
22252SOL     OW78479   0.837   3.927  11.347  0.3000  0.1762  0.3908
22252SOL    HW178480   0.747   3.957  11.336  0.5133  1.0068  0.7596
22252SOL    HW278481   0.877   3.993  11.405  1.1863 -0.0860  0.0948
22253SOL     OW78482   3.970   3.496   8.770 -0.6527 -0.1353  0.8142
22253SOL    HW178483   3.941   3.471   8.857 -2.7003  1.0482  0.5509
22253SOL    HW278484   4.057   3.459   8.761 -0.2845 -0.0391  3.4585
22254SOL     OW78485   7.060   6.520   8.066 -0.1129 -0.1721  0.1413
22254SOL    HW178486   7.124   6.498   8.134 -1.2598 -0.8398  1.0471
22254SOL    HW278487   7.098   6.594   8.020  2.4408 -1.9942 -0.9137
22255SOL     OW78488   4.799   9.438   1.462 -0.3173 -0.2286  0.2430
22255SOL    HW178489   4.834   9.363   1.414  1.0732  0.2799  0.4153
22255SOL    HW278490   4.704   9.428   1.456 -0.1778 -0.6204 -1.8925
22256SOL     OW78491   2.687   3.593  11.855  0.1240  0.2106  0.2795
22256SOL    HW178492   2.603   3.547  11.855  0.8843 -1.2400  0.7123
22256SOL    HW278493   2.670   3.675  11.900 -1.3794  0.5759 -0.8764
22257SOL     OW78494   1.096   4.938   2.349  0.0631  0.0968  0.2527
22257SOL    HW178495   1.022   4.996   2.333 -0.2709 -0.4861 -0.3735
22257SOL    HW278496   1.160   4.992   2.395 -0.7479  0.6072  0.8093
22258SOL     OW78497  10.022  11.808   4.554  0.0357  0.2071 -0.3596
22258SOL    HW178498  10.018  11.903   4.552  0.2518  0.2061 -0.9467
22258SOL    HW278499  10.081  11.788   4.626  0.3990  0.5294 -0.5647
22259SOL     OW78500   5.784   2.786  11.384  0.1032 -0.0327  0.8688
22259SOL    HW178501   5.814   2.863  11.433  0.0049 -0.8843  2.3110
22259SOL    HW278502   5.720   2.745  11.441 -0.3661 -0.8251 -0.1889
22260SOL     OW78503   2.557   7.530   0.604  0.3646  0.2394 -0.0915
22260SOL    HW178504   2.514   7.445   0.598  0.4922  0.2690 -2.0015
22260SOL    HW278505   2.486   7.593   0.592  0.3637  0.4056  0.7181
22261SOL     OW78506   3.172   0.363  11.052  0.2772  0.4025 -0.0274
22261SOL    HW178507   3.092   0.391  11.006 -2.3539  1.1489  4.4283
22261SOL    HW278508   3.142   0.295  11.112  3.4486 -0.5369  0.6413
22262SOL     OW78509   1.918   3.166   4.661  0.5319  0.7168 -0.1422
22262SOL    HW178510   1.973   3.089   4.676  0.3718  0.4313 -1.0074
22262SOL    HW278511   1.890   3.193   4.749  0.7602 -0.0813  0.1779
22263SOL     OW78512   7.209   6.930   0.386 -0.1350 -0.0900  0.0446
22263SOL    HW178513   7.212   6.851   0.440 -0.6342 -0.8762 -1.0314
22263SOL    HW278514   7.280   6.985   0.419 -1.2597  0.0906  2.4183
22264SOL     OW78515   9.211   7.089   5.046 -0.4890  0.5345  0.1441
22264SOL    HW178516   9.203   7.183   5.031 -0.6467  0.3412 -1.1050
22264SOL    HW278517   9.264   7.082   5.125 -0.2640  1.6718  0.1161
22265SOL     OW78518   5.399   1.909   3.696 -0.1330 -0.9618 -0.0638
22265SOL    HW178519   5.358   1.879   3.778 -2.2813  0.5220 -0.5067
22265SOL    HW278520   5.481   1.951   3.724 -1.1131  0.0487  1.4414
22266SOL     OW78521   9.637   7.373  10.776  0.1208 -0.2338  0.4184
22266SOL    HW178522   9.700   7.366  10.705 -0.9018 -0.4539 -0.4998
22266SOL    HW278523   9.582   7.295  10.766  0.2877 -0.5451  1.7868
22267SOL     OW78524  10.212  11.267  11.653  0.1797 -0.1270 -0.3915
22267SOL    HW178525  10.200  11.236  11.563  1.4874 -2.2507  0.0905
22267SOL    HW278526  10.272  11.204  11.692 -0.8841  0.3434  2.2051
22268SOL     OW78527   4.854   4.706   0.592  0.2539 -0.4707  0.0208
22268SOL    HW178528   4.802   4.628   0.612  0.1786 -0.1222  1.2538
22268SOL    HW278529   4.916   4.676   0.525 -0.6024 -1.2508 -0.4468
22269SOL     OW78530   6.868   3.125   3.806  0.9442 -0.1218 -0.0456
22269SOL    HW178531   6.962   3.128   3.787  1.2490 -2.6803  0.6769
22269SOL    HW278532   6.863   3.126   3.902  0.3568 -1.3040 -0.0438
22270SOL     OW78533   5.998  11.450  10.025  0.4762 -0.2752  0.2235
22270SOL    HW178534   5.948  11.477   9.949 -1.1416  0.3613  1.4546
22270SOL    HW278535   6.026  11.360  10.005 -0.2068 -0.2404 -0.9612
22271SOL     OW78536  10.597   6.443   4.844  0.3136  0.8355 -0.1347
22271SOL    HW178537  10.576   6.536   4.834  0.8559  0.9944  0.1300
22271SOL    HW278538  10.600   6.430   4.939  1.0002  0.7340 -0.1618
22272SOL     OW78539   5.426   1.474   3.991 -0.4322 -0.2496 -0.3265
22272SOL    HW178540   5.382   1.544   3.942 -2.2516 -0.6804  0.5947
22272SOL    HW278541   5.463   1.518   4.068  0.3341  0.0382 -0.8545
22273SOL     OW78542  10.990  11.202   5.326 -0.1599  0.1260  0.0411
22273SOL    HW178543  10.913  11.197   5.270  0.6189  0.1101 -1.0493
22273SOL    HW278544  11.022  11.292   5.316 -0.9995  0.6630  1.8254
22274SOL     OW78545   1.573   1.621   5.906  0.2131 -0.4934  0.1295
22274SOL    HW178546   1.649   1.568   5.882  0.6896  0.5866 -0.8446
22274SOL    HW278547   1.590   1.648   5.997  0.5752 -0.9496  0.1988
22275SOL     OW78548  10.622   0.472   6.024  0.4612 -0.0009 -0.4153
22275SOL    HW178549  10.649   0.564   6.017  0.6791  0.0266  0.6381
22275SOL    HW278550  10.564   0.470   6.101 -0.1237 -0.6207 -0.8611
22276SOL     OW78551   0.259  11.551   9.003  0.1543 -0.2385 -0.0017
22276SOL    HW178552   0.224  11.469   8.968 -0.9468 -0.0924  0.6949
22276SOL    HW278553   0.299  11.527   9.087  0.1058 -0.1207  0.0561
22277SOL     OW78554   3.394   6.238   0.826 -0.9015  0.0902 -0.6995
22277SOL    HW178555   3.352   6.202   0.748  0.5161 -0.3053 -1.3297
22277SOL    HW278556   3.487   6.217   0.814 -0.6318  0.1499  1.0368
22278SOL     OW78557   7.661   4.314   2.497 -0.2573  0.0322 -0.5815
22278SOL    HW178558   7.674   4.238   2.439 -0.3883  0.9424 -1.8397
22278SOL    HW278559   7.650   4.388   2.437  0.7573  1.2040  0.6252
22279SOL     OW78560   6.485  10.556   6.812 -0.3075  0.3479 -0.6698
22279SOL    HW178561   6.579  10.538   6.815 -0.5401 -0.8143  0.8427
22279SOL    HW278562   6.458  10.527   6.725  0.5441 -0.3680 -0.7076
22280SOL     OW78563  11.038   3.897   3.204  0.6057 -0.0439  0.3656
22280SOL    HW178564  11.026   3.917   3.296  0.9106  0.3180  0.3328
22280SOL    HW278565  11.039   3.802   3.199 -1.0534 -0.0833  0.5055
22281SOL     OW78566   0.539   0.900   8.152  0.3372 -0.1168  0.2760
22281SOL    HW178567   0.633   0.886   8.139  0.5503 -1.2841  2.5487
22281SOL    HW278568   0.497   0.830   8.102  0.6598  0.2725 -0.5649
22282SOL     OW78569   8.114   2.680  11.804 -0.2711  0.5735  0.1837
22282SOL    HW178570   8.076   2.652  11.887  1.4305 -1.1804  0.4488
22282SOL    HW278571   8.044   2.668  11.740 -0.9157 -0.2572  1.0236
22283SOL     OW78572   5.040   2.585  10.416  0.2170  0.4403  0.0792
22283SOL    HW178573   4.950   2.597  10.385  0.1321 -0.0723  0.1262
22283SOL    HW278574   5.065   2.499  10.384 -0.0094 -0.2891  1.7825
22284SOL     OW78575  11.435   3.569   0.689 -0.2742  0.1063 -0.7828
22284SOL    HW178576  11.365   3.556   0.625 -2.1875 -0.8141  1.3251
22284SOL    HW278577  11.416   3.654   0.728 -0.4955 -0.3225  0.0768
22285SOL     OW78578  10.795   4.622  11.308  0.2730 -0.6973 -0.1234
22285SOL    HW178579  10.751   4.680  11.246 -0.4217 -0.8235  0.2422
22285SOL    HW278580  10.806   4.675  11.387 -0.3668 -1.0548  0.2138
22286SOL     OW78581   8.620   7.665   0.401  0.0252  0.2421  0.6756
22286SOL    HW178582   8.674   7.615   0.339  0.1499  0.8083  0.3232
22286SOL    HW278583   8.534   7.670   0.360 -0.2507 -0.4911  1.1480
22287SOL     OW78584   0.629   4.871  10.850  0.4869 -0.0299  0.2173
22287SOL    HW178585   0.675   4.788  10.837 -0.5592 -0.8878  1.7346
22287SOL    HW278586   0.561   4.871  10.782  0.0582 -0.7532  0.6300
22288SOL     OW78587   4.849   4.673   0.249 -0.3185 -0.0302  0.6504
22288SOL    HW178588   4.922   4.655   0.308  0.6367  1.4172 -0.0641
22288SOL    HW278589   4.862   4.612   0.176 -0.6099 -0.7035  1.1393
22289SOL     OW78590   7.648   9.253   0.786  0.2967  0.1430 -0.4688
22289SOL    HW178591   7.579   9.188   0.799 -0.5026  0.8815 -0.9651
22289SOL    HW278592   7.640   9.312   0.861  0.8934 -0.2053 -0.1238
22290SOL     OW78593   2.409   4.247   4.817 -0.6770 -0.0251  0.3906
22290SOL    HW178594   2.367   4.163   4.799 -1.3770  0.7105 -1.6197
22290SOL    HW278595   2.398   4.298   4.737  2.4517  0.9091  0.4275
22291SOL     OW78596   2.345  10.052   1.521 -0.6469 -0.0967 -0.4942
22291SOL    HW178597   2.306  10.042   1.607  0.7076 -0.2885  0.1174
22291SOL    HW278598   2.272  10.038   1.460 -1.5141 -0.4618  0.5975
22292SOL     OW78599   2.300   8.962   9.164 -0.2423  0.2762 -0.1887
22292SOL    HW178600   2.285   8.995   9.075 -0.4729  1.3183  0.2331
22292SOL    HW278601   2.387   8.922   9.159 -0.5390 -0.3007 -1.0563
22293SOL     OW78602   8.480   4.783   4.566  0.3530 -0.2177  0.2823
22293SOL    HW178603   8.450   4.818   4.650  1.5901  1.2023  0.1769
22293SOL    HW278604   8.460   4.690   4.570 -2.8147  0.3620  0.7254
22294SOL     OW78605   3.488   3.863   6.308  0.0398 -0.1546 -0.9325
22294SOL    HW178606   3.526   3.951   6.306 -1.4535  0.5314 -0.7025
22294SOL    HW278607   3.453   3.849   6.220 -2.2753  0.7127 -0.2292
22295SOL     OW78608   4.608   7.762   0.411 -0.6018  0.3088 -0.5349
22295SOL    HW178609   4.528   7.736   0.365 -0.8528 -0.2646  0.1985
22295SOL    HW278610   4.616   7.698   0.482  0.8189  0.0074 -0.9411
22296SOL     OW78611   0.243   7.482   9.908 -0.4450  0.7161 -0.0823
22296SOL    HW178612   0.262   7.575   9.918 -1.8907  0.9394  0.8067
22296SOL    HW278613   0.196   7.476   9.825 -1.2552  0.9359  0.3533
22297SOL     OW78614  11.433   0.846   2.506 -0.7802 -0.1529 -0.2164
22297SOL    HW178615  11.478   0.777   2.555 -0.6845 -0.0470 -0.1548
22297SOL    HW278616  11.365   0.877   2.565 -1.8230 -1.2401 -0.8083
22298SOL     OW78617  10.600   5.173   6.429 -0.3600 -0.1404  0.2747
22298SOL    HW178618  10.594   5.092   6.480  0.5134 -0.3750  0.0251
22298SOL    HW278619  10.692   5.198   6.435 -0.8901  1.7921  1.8059
22299SOL     OW78620   5.877   3.774   5.310 -0.0176  0.3593 -0.1397
22299SOL    HW178621   5.901   3.854   5.264 -0.0303  0.5454  0.1739
22299SOL    HW278622   5.900   3.703   5.249 -1.0993  0.6394 -0.9018
22300SOL     OW78623   3.391   5.963   6.560  0.2650 -0.0854  0.1356
22300SOL    HW178624   3.393   6.051   6.522  1.9682  0.5759  1.6163
22300SOL    HW278625   3.479   5.950   6.595 -0.5941 -1.4975  1.9122
22301SOL     OW78626   3.370  10.955   9.762 -0.2164  0.5404  0.0801
22301SOL    HW178627   3.460  10.928   9.743  0.5236  1.7967  1.5858
22301SOL    HW278628   3.351  11.023   9.698 -0.2789 -0.0489 -0.5364
22302SOL     OW78629  11.818   0.682   8.590 -0.6382  0.3532  0.1169
22302SOL    HW178630  11.828   0.651   8.680 -2.7115 -0.9776 -0.0291
22302SOL    HW278631  11.734   0.728   8.591 -0.8724 -0.0211 -1.2151
22303SOL     OW78632   6.744  10.775   5.195  0.1444  0.3664  0.0847
22303SOL    HW178633   6.821  10.823   5.225 -0.9185  2.3473 -0.2241
22303SOL    HW278634   6.675  10.799   5.255 -0.2446 -1.5873  0.5026
22304SOL     OW78635  11.767   8.706   8.343  0.2136 -0.5479 -0.1593
22304SOL    HW178636  11.688   8.673   8.386  0.0006  1.0752  0.7596
22304SOL    HW278637  11.736   8.774   8.284  0.9046  0.0134  0.1102
22305SOL     OW78638   9.084   1.822   8.073 -0.1924 -0.1400 -0.3667
22305SOL    HW178639   9.151   1.890   8.077 -1.8196  1.5461 -0.4812
22305SOL    HW278640   9.069   1.807   7.980 -0.2584 -0.2224 -0.3438
22306SOL     OW78641   4.634   9.838   9.554  0.0220  0.3254  0.2744
22306SOL    HW178642   4.688   9.910   9.520 -0.1367  0.3128 -0.0047
22306SOL    HW278643   4.570   9.821   9.485  1.3103 -1.4435 -0.5529
22307SOL     OW78644   0.395   0.063  11.163  0.4322 -0.2918  0.1876
22307SOL    HW178645   0.401   0.156  11.186  0.3283 -0.3745  0.5577
22307SOL    HW278646   0.327   0.059  11.096  0.5540 -0.0799  0.0499
22308SOL     OW78647  11.603  11.055   5.510 -0.0420 -0.1936 -0.1681
22308SOL    HW178648  11.508  11.063   5.496  0.1152  2.4677 -0.3274
22308SOL    HW278649  11.612  10.996   5.585 -1.6886 -2.1413 -1.4222
22309SOL     OW78650   1.434   8.536   9.759 -0.3181  0.0521 -0.0229
22309SOL    HW178651   1.364   8.513   9.698  0.7494  1.2906 -1.7975
22309SOL    HW278652   1.483   8.454   9.771  0.2069  0.0570 -1.8902
22310SOL     OW78653   5.928   0.286   4.028  0.2762  0.1745  0.2322
22310SOL    HW178654   5.993   0.220   4.050  0.9656  0.3042 -1.2813
22310SOL    HW278655   5.954   0.364   4.076  0.3397 -0.2124  0.8286
22311SOL     OW78656   4.335   3.328   8.885 -0.2594 -0.5151  0.4471
22311SOL    HW178657   4.428   3.353   8.882 -0.2784 -0.5343 -0.4096
22311SOL    HW278658   4.331   3.243   8.840 -0.5628 -0.9637  1.2802
22312SOL     OW78659   0.147   3.400   3.535 -0.6435  0.5522  0.0574
22312SOL    HW178660   0.094   3.470   3.573  0.1487  1.9899 -1.3562
22312SOL    HW278661   0.228   3.443   3.508 -0.3102 -0.8112 -1.2885
22313SOL     OW78662   3.356   2.220   0.381  0.3151  0.1714  0.3435
22313SOL    HW178663   3.328   2.189   0.295  1.2826  1.2896 -0.3907
22313SOL    HW278664   3.431   2.164   0.403 -0.2437 -0.4479  0.6971
22314SOL     OW78665   5.661  11.639   6.032  0.4308 -0.2124  0.4304
22314SOL    HW178666   5.638  11.603   5.947  0.1984  0.2387  0.2996
22314SOL    HW278667   5.756  11.649   6.029  0.4024 -0.0240  0.1584
22315SOL     OW78668   2.552   2.647   8.699 -0.5288  0.3437 -0.5565
22315SOL    HW178669   2.477   2.605   8.657 -1.9522  1.8964  0.3044
22315SOL    HW278670   2.536   2.637   8.792  0.5709  0.3292 -0.3566
22316SOL     OW78671   4.079   2.417   0.439  0.0753 -0.2075  0.1357
22316SOL    HW178672   4.029   2.339   0.462  0.4720 -0.4100  0.3239
22316SOL    HW278673   4.014   2.487   0.432 -0.3528 -0.6584 -0.5448
22317SOL     OW78674   6.500   6.002   9.575  0.9578  0.7920 -0.5545
22317SOL    HW178675   6.450   5.942   9.519 -0.9638  0.4531  1.4062
22317SOL    HW278676   6.570   5.947   9.611  0.3539  0.2029 -0.2565
22318SOL     OW78677  10.392   6.652   7.277 -0.1916  0.3274  0.2199
22318SOL    HW178678  10.370   6.561   7.256  1.6081  0.0870 -0.8496
22318SOL    HW278679  10.471   6.647   7.330 -0.4802  1.2664  0.7728
22319SOL     OW78680   6.549   6.377   7.576 -0.2032  0.4336 -0.0680
22319SOL    HW178681   6.601   6.297   7.571 -1.0049 -0.0427 -2.1150
22319SOL    HW278682   6.516   6.389   7.487 -4.3457  0.1916  1.2444
22320SOL     OW78683  11.750   4.047   2.029  0.7705 -1.1345  0.0671
22320SOL    HW178684  11.763   4.142   2.029  1.3941 -1.2167 -0.7451
22320SOL    HW278685  11.687   4.032   2.100  1.6723 -0.2532  1.0985
22321SOL     OW78686   6.261   4.305  10.193 -0.4361  0.4512  0.5148
22321SOL    HW178687   6.302   4.312  10.106  0.0675 -0.7762  0.6359
22321SOL    HW278688   6.331   4.274  10.250 -0.5827  1.8864  1.5284
22322SOL     OW78689   3.216   2.940   3.762  0.3389  0.4005  0.0952
22322SOL    HW178690   3.228   3.017   3.705  1.4411  0.4094  0.3093
22322SOL    HW278691   3.126   2.912   3.746  0.6341  0.3697 -1.7003
22323SOL     OW78692   8.536  10.294  10.099  0.5458 -0.4749  0.5149
22323SOL    HW178693   8.561  10.380  10.066 -0.8832 -0.2833 -0.1445
22323SOL    HW278694   8.454  10.309  10.145 -0.0417 -1.5852 -0.1408
22324SOL     OW78695   5.598   2.488  11.794  0.1435  0.2216 -0.1544
22324SOL    HW178696   5.665   2.449  11.850  1.1609  1.2285 -0.6301
22324SOL    HW278697   5.588   2.427  11.721  1.6958  0.7985 -0.8790
22325SOL     OW78698   4.787  11.941   8.654  0.0469 -0.1266  0.0006
22325SOL    HW178699   4.767  12.035   8.655 -1.8571 -0.4726 -0.9717
22325SOL    HW278700   4.851  11.931   8.583 -0.0399  0.3948 -0.1554
22326SOL     OW78701   1.040  11.643   5.083  0.4748 -0.1058  0.6470
22326SOL    HW178702   0.964  11.682   5.040  1.0577  2.6386  1.9029
22326SOL    HW278703   1.102  11.715   5.093  2.7131 -1.9443  0.9154
22327SOL     OW78704   3.183   7.220   7.735  0.3458  0.1276 -0.6738
22327SOL    HW178705   3.130   7.139   7.738  0.2459  0.1695 -1.2046
22327SOL    HW278706   3.273   7.190   7.747  0.1737  0.0979  0.6636
22328SOL     OW78707   7.377   2.857   6.073 -0.5921 -0.2788 -0.2964
22328SOL    HW178708   7.387   2.790   6.140  0.6928 -1.3006 -1.4469
22328SOL    HW278709   7.435   2.829   6.002 -1.1593  1.2728 -1.4352
22329SOL     OW78710   1.847   5.518   4.580 -0.2755  0.2028  0.0424
22329SOL    HW178711   1.938   5.489   4.571 -0.8573 -1.8027  0.1160
22329SOL    HW278712   1.796   5.453   4.531 -1.7522  0.7152  0.8369
22330SOL     OW78713  10.955  11.412   9.854 -0.0879 -0.2478  0.2715
22330SOL    HW178714  10.921  11.470   9.922  0.7301  0.6243 -0.0473
22330SOL    HW278715  11.031  11.370   9.894  1.2443  1.2993 -0.4988
22331SOL     OW78716   7.499   0.854   6.959 -0.2318  0.2824  0.1463
22331SOL    HW178717   7.474   0.766   6.988 -1.7243  0.3104 -0.9661
22331SOL    HW278718   7.592   0.846   6.937  0.0348 -0.6165  1.4867
22332SOL     OW78719  11.803   2.552  11.711  0.0917 -0.4155 -0.0563
22332SOL    HW178720  11.740   2.621  11.733 -0.4511 -0.2379 -1.9674
22332SOL    HW278721  11.753   2.492  11.656  1.4378 -0.5349 -1.2008
22333SOL     OW78722   3.265   4.074   6.026  0.8720 -0.8444 -0.2266
22333SOL    HW178723   3.196   4.093   5.963 -0.9121 -0.5195  1.6908
22333SOL    HW278724   3.264   3.979   6.036 -0.0987 -0.7757  0.5587
22334SOL     OW78725  10.335   1.042   3.333  0.4590 -0.4172 -0.4035
22334SOL    HW178726  10.294   1.109   3.388 -0.5175  0.6336 -2.3275
22334SOL    HW278727  10.427   1.069   3.329  0.2717  0.2607 -0.3741
22335SOL     OW78728  11.387   8.717  10.164  0.0220  0.1076  0.2400
22335SOL    HW178729  11.350   8.665  10.235 -0.4154 -1.1701 -0.8863
22335SOL    HW278730  11.331   8.699  10.089  0.2527  1.7240 -0.3603
22336SOL     OW78731   3.442   6.662   9.969 -0.3352  0.2275  0.2207
22336SOL    HW178732   3.362   6.617   9.940  0.9382 -0.0831 -3.4105
22336SOL    HW278733   3.492   6.596  10.016 -1.7060  0.1217  1.5789
22337SOL     OW78734   4.821   4.865   6.422 -0.2948  0.8325 -0.0599
22337SOL    HW178735   4.871   4.785   6.438 -1.3804  0.4753  1.7702
22337SOL    HW278736   4.888   4.934   6.419  0.5082  0.0770  0.0794
22338SOL     OW78737   8.984   2.539   6.447 -1.2866  0.2209 -0.3245
22338SOL    HW178738   9.042   2.583   6.385 -0.1200 -0.1377  0.4884
22338SOL    HW278739   8.937   2.475   6.394  0.1528 -0.5231 -0.7620
22339SOL     OW78740   7.923  10.378   8.396  0.4088 -0.0067  0.5189
22339SOL    HW178741   7.998  10.361   8.452  0.7325  0.9251  0.3813
22339SOL    HW278742   7.933  10.316   8.323 -0.6729 -2.0741  2.0393
22340SOL     OW78743   6.611   1.499   1.849  0.0872  0.5238  0.1498
22340SOL    HW178744   6.645   1.474   1.935 -0.4146  1.8455  0.7651
22340SOL    HW278745   6.665   1.450   1.787  1.3230  0.5190  1.1752
22341SOL     OW78746   8.705   5.042   1.696  0.4794  0.8474 -0.5313
22341SOL    HW178747   8.773   4.975   1.707  0.7380  1.0083 -1.1125
22341SOL    HW278748   8.679   5.035   1.604  0.6792  1.7008 -0.6644
22342SOL     OW78749  10.974   0.536   8.277 -0.0583  0.0188  0.4757
22342SOL    HW178750  10.933   0.543   8.363 -0.7671 -0.3296  0.1702
22342SOL    HW278751  10.919   0.474   8.229  1.1061 -0.8460  0.2246
22343SOL     OW78752   0.735   6.910   4.517  0.0976 -0.4502  0.2748
22343SOL    HW178753   0.802   6.854   4.478 -1.1195 -0.9150 -1.2674
22343SOL    HW278754   0.767   6.999   4.504  0.4530 -0.6665 -0.3637
22344SOL     OW78755   6.807   7.534   4.768 -0.0627 -0.0271  0.3005
22344SOL    HW178756   6.879   7.548   4.830 -1.1044  0.8335  1.3609
22344SOL    HW278757   6.825   7.448   4.729  2.4112  0.8453 -0.6947
22345SOL     OW78758  10.430   2.041   8.838 -0.0075  0.1807  0.3307
22345SOL    HW178759  10.364   1.975   8.817 -0.2839 -0.0352  1.7986
22345SOL    HW278760  10.382   2.112   8.880  0.8058 -0.5099  2.5533
22346SOL     OW78761   3.797   2.342   2.021 -0.1948  0.0905 -0.5209
22346SOL    HW178762   3.707   2.311   2.024 -0.1321 -0.1755 -1.3049
22346SOL    HW278763   3.818   2.349   1.928  1.1817 -1.5991 -0.3743
22347SOL     OW78764   5.996   8.862   4.425 -0.2202 -0.3413  0.0153
22347SOL    HW178765   5.922   8.922   4.423  0.3610  0.5470 -4.0923
22347SOL    HW278766   5.986   8.809   4.345  2.8986 -0.9565 -0.1184
22348SOL     OW78767   1.305   1.932   0.657  0.0212  0.2604  0.1758
22348SOL    HW178768   1.315   1.916   0.563 -0.2367  0.2821  0.1445
22348SOL    HW278769   1.392   1.960   0.686  0.4151 -0.8867  0.1750
22349SOL     OW78770   3.630   3.993   9.438 -0.0389 -0.2825  1.0659
22349SOL    HW178771   3.687   4.042   9.497 -2.8617  1.8720  2.2590
22349SOL    HW278772   3.546   3.988   9.484 -1.7329 -0.5863 -1.7781
22350SOL     OW78773   2.023  10.117   1.044  0.6449 -0.2457  0.4216
22350SOL    HW178774   2.114  10.146   1.035 -0.1105  3.3556  2.5056
22350SOL    HW278775   1.998  10.145   1.132 -2.5386 -1.0257 -0.1299
22351SOL     OW78776   2.866  10.020  11.311 -0.0579  0.0782  0.4779
22351SOL    HW178777   2.869   9.925  11.318  0.0279  0.1043  0.8058
22351SOL    HW278778   2.922  10.052  11.382  0.3712  0.3661  0.0167
22352SOL     OW78779   9.605   4.627  10.953  0.7725 -0.0474 -0.2392
22352SOL    HW178780   9.615   4.712  10.912  2.4732  0.3217  0.8091
22352SOL    HW278781   9.580   4.568  10.882  0.0332  1.2157 -1.0634
22353SOL     OW78782   8.228   5.400   7.404 -0.5332 -0.6958 -0.8056
22353SOL    HW178783   8.182   5.331   7.451 -0.0411  0.6270  1.8188
22353SOL    HW278784   8.316   5.400   7.441 -1.2748  3.0750  1.4957
22354SOL     OW78785  11.284   0.686   9.563 -0.0426  0.3026 -0.1013
22354SOL    HW178786  11.258   0.594   9.565 -1.2311  0.5171 -2.2631
22354SOL    HW278787  11.367   0.685   9.515 -1.2026  0.4909 -2.2483
22355SOL     OW78788   9.616  11.513   1.654  0.2683  0.2595  0.1230
22355SOL    HW178789   9.651  11.443   1.709  0.2701 -0.8991 -1.3024
22355SOL    HW278790   9.522  11.516   1.675 -0.0677 -1.3079 -0.9169
22356SOL     OW78791   7.443   6.817   3.888  1.0238  0.4848  0.3107
22356SOL    HW178792   7.364   6.768   3.910  1.3574  0.3189  1.2168
22356SOL    HW278793   7.415   6.882   3.824  0.2798  0.0413  0.1830
22357SOL     OW78794  10.288   5.246   5.228 -0.0271 -0.2306 -0.4350
22357SOL    HW178795  10.215   5.294   5.267 -0.6887 -0.5329 -1.2679
22357SOL    HW278796  10.258   5.156   5.222  0.6558 -0.4832 -0.2382
22358SOL     OW78797  10.521   7.117  10.329 -0.5932 -0.0710 -0.3115
22358SOL    HW178798  10.435   7.121  10.371  0.4983  0.8932  2.0540
22358SOL    HW278799  10.581   7.096  10.401  1.3361  0.9260 -1.5579
22359SOL     OW78800   6.324   0.701  11.834 -0.7201  0.2374 -0.2134
22359SOL    HW178801   6.370   0.627  11.793 -1.9424 -1.0780  0.6787
22359SOL    HW278802   6.324   0.769  11.766  1.1405 -0.2460 -0.7904
22360SOL     OW78803   3.831   3.045   4.937 -0.1353 -0.1174  0.1197
22360SOL    HW178804   3.864   3.045   5.027  2.4416  0.3880 -0.7242
22360SOL    HW278805   3.903   3.008   4.885 -0.6869  1.5285 -1.9778
22361SOL     OW78806   5.489   6.197   9.113  0.1023  0.4503 -0.2077
22361SOL    HW178807   5.538   6.177   9.034 -1.3951 -0.5525 -0.9321
22361SOL    HW278808   5.549   6.249   9.166  1.8889 -0.6174 -1.0831
22362SOL     OW78809   8.510   9.861   2.922 -0.3657  0.3907 -0.0430
22362SOL    HW178810   8.458   9.786   2.894 -1.7234  1.5048 -0.6408
22362SOL    HW278811   8.564   9.828   2.994  0.6045 -1.6577 -1.6421
22363SOL     OW78812   1.321   3.492  10.884 -0.0288 -0.0622  0.1931
22363SOL    HW178813   1.230   3.489  10.854  0.1875  0.5027 -0.5820
22363SOL    HW278814   1.317   3.530  10.971 -0.7515 -2.4255  1.2727
22364SOL     OW78815   9.264   0.173   6.158  0.5307 -0.1141  0.1260
22364SOL    HW178816   9.301   0.208   6.077 -0.5502 -0.4515 -0.5346
22364SOL    HW278817   9.169   0.185   6.148  0.2548 -1.7062  0.5968
22365SOL     OW78818  10.862  11.546   8.553 -0.3806 -0.4207 -0.4695
22365SOL    HW178819  10.840  11.523   8.644  1.1193 -1.5197 -0.3379
22365SOL    HW278820  10.958  11.541   8.550 -0.1163  2.8361 -1.2955
22366SOL     OW78821  11.423  11.730  11.348 -0.1481  0.1317  0.3288
22366SOL    HW178822  11.413  11.688  11.433  1.6495  0.6395  0.8424
22366SOL    HW278823  11.394  11.664  11.284 -0.8727 -0.4978  1.2897
22367SOL     OW78824   8.843  11.187   3.709  0.5888 -0.0543  0.3728
22367SOL    HW178825   8.783  11.129   3.756  1.7317 -1.7519 -0.1660
22367SOL    HW278826   8.927  11.141   3.710  1.0566  0.6417 -1.8646
22368SOL     OW78827  11.643   5.004   3.635 -0.7292  0.5322 -0.0604
22368SOL    HW178828  11.638   5.091   3.594 -0.5919  0.3797 -0.4101
22368SOL    HW278829  11.658   4.944   3.562  2.2038  0.5277  0.3992
22369SOL     OW78830   4.218   2.284   7.008  0.2638  0.2084 -0.7678
22369SOL    HW178831   4.157   2.304   6.937  1.5379  0.6470 -1.7911
22369SOL    HW278832   4.231   2.367   7.052 -0.3380 -0.0140 -0.1562
22370SOL     OW78833   8.706   3.176   6.748  0.8262 -0.7199 -0.2990
22370SOL    HW178834   8.769   3.222   6.692  1.7153 -1.2736  0.2238
22370SOL    HW278835   8.751   3.096   6.774  0.0769 -0.9067  0.4613
22371SOL     OW78836   1.804   5.806   5.968  0.0335  0.1398 -0.8641
22371SOL    HW178837   1.812   5.724   6.016  1.5879  0.8651  0.1912
22371SOL    HW278838   1.832   5.873   6.030 -2.1999  1.6373 -1.3381
22372SOL     OW78839   9.934   6.812   4.807  0.0470  0.1386  0.3786
22372SOL    HW178840   9.904   6.878   4.870  0.6475  0.3489  0.4553
22372SOL    HW278841   9.926   6.855   4.722 -0.8236 -0.1674  0.3000
22373SOL     OW78842   6.048  11.226   0.933 -0.7158 -0.1227  0.2657
22373SOL    HW178843   6.084  11.140   0.956  1.7595  0.7347 -0.0807
22373SOL    HW278844   6.030  11.268   1.017  1.6478  0.3730  0.5916
22374SOL     OW78845   2.247   8.262   5.782 -0.7710  0.2684 -0.1052
22374SOL    HW178846   2.155   8.277   5.801 -0.4671 -0.5796  2.4987
22374SOL    HW278847   2.283   8.228   5.864  1.8368  0.4430 -1.0743
22375SOL     OW78848   6.016   3.864   3.424 -0.6106 -0.3449 -0.7991
22375SOL    HW178849   6.028   3.959   3.424 -0.2476 -0.3456  1.4907
22375SOL    HW278850   6.096   3.829   3.384 -0.3862  0.2631 -0.8841
22376SOL     OW78851  10.987  10.469   9.451  0.0327  0.6226 -0.1525
22376SOL    HW178852  10.900  10.476   9.412 -0.1033  0.6857  0.1642
22376SOL    HW278853  11.007  10.375   9.448 -0.7635  0.3778  1.3213
22377SOL     OW78854  10.661   3.592   6.075  0.1521  0.4202 -0.1691
22377SOL    HW178855  10.741   3.540   6.081 -0.8009 -1.0648  0.4215
22377SOL    HW278856  10.652   3.631   6.162 -0.4295 -0.4764  0.1834
22378SOL     OW78857   4.962  11.282   3.502  0.4659  0.3202  0.1045
22378SOL    HW178858   4.973  11.308   3.593  1.4594  2.9128 -0.6406
22378SOL    HW278859   4.889  11.336   3.470  0.5627 -0.0577 -0.7954
22379SOL     OW78860   2.917   9.796   4.738 -0.4764  0.0109  0.5450
22379SOL    HW178861   2.950   9.707   4.724  0.1569  0.3084  0.0963
22379SOL    HW278862   2.935   9.814   4.830  0.4498  0.0912  0.3589
22380SOL     OW78863   6.057  10.333   1.031  0.2883  0.1368 -0.0568
22380SOL    HW178864   6.021  10.279   1.101 -2.7743  0.0455 -1.5378
22380SOL    HW278865   6.006  10.309   0.954  2.3909  1.4313 -1.9890
22381SOL     OW78866   1.090  10.587   9.083 -0.1664  0.2738  0.6415
22381SOL    HW178867   1.107  10.535   9.162  0.2141 -1.8467 -0.7623
22381SOL    HW278868   1.153  10.554   9.019 -2.3321 -0.1239 -1.4224
22382SOL     OW78869  11.709   5.671  10.616  0.0993  0.0488  0.2824
22382SOL    HW178870  11.661   5.713  10.687  1.1891  0.3232  0.8730
22382SOL    HW278871  11.705   5.577  10.637 -3.3509 -0.4283 -1.6538
22383SOL     OW78872   3.531   6.087   3.062 -0.0022  0.1001  0.3528
22383SOL    HW178873   3.498   6.035   3.135 -0.7988  0.3012  0.1446
22383SOL    HW278874   3.478   6.167   3.063 -2.4930 -1.3213 -2.5334
22384SOL     OW78875   6.102   7.456   7.076  0.1062  0.1277  0.2758
22384SOL    HW178876   6.114   7.483   6.985 -2.1281 -0.4558 -0.2439
22384SOL    HW278877   6.189   7.465   7.115  1.4148 -0.8705 -2.2223
22385SOL     OW78878  10.636   6.570  10.700  0.1197  0.4413 -0.1765
22385SOL    HW178879  10.582   6.584  10.778  1.3533 -0.0331  0.8144
22385SOL    HW278880  10.578   6.526  10.638 -0.2422 -1.5099  1.4327
22386SOL     OW78881   0.198   6.572   9.784  0.2343 -0.1097 -0.0764
22386SOL    HW178882   0.128   6.506   9.780  1.0333 -0.9515 -0.6461
22386SOL    HW278883   0.233   6.574   9.695 -0.0325  1.4014 -0.1677
22387SOL     OW78884   3.215  11.301   8.260  0.0759  0.9143 -0.0486
22387SOL    HW178885   3.267  11.224   8.237  0.3347  0.4236  2.0400
22387SOL    HW278886   3.125  11.270   8.261  0.2443  0.4083  1.5440
22388SOL     OW78887  11.139   4.362   9.342 -0.2085 -0.5537 -0.1431
22388SOL    HW178888  11.045   4.366   9.359 -0.3517 -1.7314 -0.5421
22388SOL    HW278889  11.152   4.276   9.300  1.0154 -0.3355 -0.2474
22389SOL     OW78890   4.988   4.257   8.578  0.2951  0.3593 -0.1676
22389SOL    HW178891   5.058   4.321   8.593  0.9824 -0.3498 -0.2701
22389SOL    HW278892   4.942   4.252   8.662  2.3759 -1.4985  0.9847
22390SOL     OW78893   1.567   4.999   5.560  0.2945  0.3838  0.5423
22390SOL    HW178894   1.621   5.075   5.541  0.1824  0.4434  0.4559
22390SOL    HW278895   1.556   4.956   5.475  1.0097 -0.1660  0.7176
22391SOL     OW78896   8.941   8.074  11.019  0.2885  0.4580  0.2069
22391SOL    HW178897   8.893   8.120  10.950  0.7504  0.8612  0.1449
22391SOL    HW278898   8.896   8.098  11.100 -0.0199  0.2940  0.0863
22392SOL     OW78899   1.135   1.994   1.505 -0.2288 -0.1898 -0.0656
22392SOL    HW178900   1.199   2.060   1.479 -0.6633  0.7324  1.0874
22392SOL    HW278901   1.187   1.920   1.535  0.2897  0.1445 -0.1292
22393SOL     OW78902   4.397   4.571   4.733  0.0019 -0.0856  0.1585
22393SOL    HW178903   4.386   4.662   4.761  0.3985 -0.5556  1.9799
22393SOL    HW278904   4.313   4.530   4.749  0.0207 -0.1969 -0.0250
22394SOL     OW78905   3.808  10.713   8.652  0.0152 -0.4064 -0.2562
22394SOL    HW178906   3.779  10.641   8.707  1.1123 -0.0740  0.8198
22394SOL    HW278907   3.739  10.779   8.659 -0.1496 -0.6307  0.2331
22395SOL     OW78908   5.537  11.716   5.141  0.2803  0.0236 -0.6052
22395SOL    HW178909   5.519  11.723   5.047  0.6411 -0.8982 -0.7563
22395SOL    HW278910   5.609  11.777   5.156  0.4536 -0.0826 -0.9983
22396SOL     OW78911   3.118   4.037   7.837 -0.4774  0.2105  0.0636
22396SOL    HW178912   3.114   3.941   7.836  0.1935  0.1710  0.6107
22396SOL    HW278913   3.106   4.061   7.928 -1.0132  0.6753 -0.1222
22397SOL     OW78914   7.882   8.660   0.863  0.0244 -0.4552 -0.0337
22397SOL    HW178915   7.947   8.625   0.802 -0.3364  1.3895 -1.5756
22397SOL    HW278916   7.929   8.671   0.945  1.2432 -0.5614 -0.7020
22398SOL     OW78917   7.920   4.838  11.605 -0.9068  0.0142  0.2369
22398SOL    HW178918   7.857   4.836  11.533  0.1884 -1.5869 -0.7436
22398SOL    HW278919   7.961   4.751  11.604 -0.3864  0.1699  2.3981
22399SOL     OW78920   1.608   5.293  11.928 -0.1921  0.2184  0.2141
22399SOL    HW178921   1.564   5.225  11.978 -1.7165  0.8772 -0.1699
22399SOL    HW278922   1.686   5.314  11.979  0.3135 -1.7921  0.3355
22400SOL     OW78923   4.295   2.731   6.979  0.2290  0.0820 -0.1723
22400SOL    HW178924   4.380   2.771   6.961  0.1935  0.2539  0.0431
22400SOL    HW278925   4.283   2.667   6.908  0.2043  0.5690 -0.6135
22401SOL     OW78926   3.412   0.584   5.795 -0.7351  0.0080 -0.6035
22401SOL    HW178927   3.455   0.503   5.820 -0.6941  0.2411  0.0845
22401SOL    HW278928   3.339   0.592   5.856 -1.5424 -0.1813 -1.4988
22402SOL     OW78929   4.516   0.622   9.529 -0.4761 -0.0245  0.8654
22402SOL    HW178930   4.590   0.680   9.541 -1.5071  1.7495 -0.7863
22402SOL    HW278931   4.544   0.539   9.567  2.1883  0.6732  0.6182
22403SOL     OW78932   7.785  10.857   2.318 -1.1224  0.1610 -0.0369
22403SOL    HW178933   7.695  10.879   2.342 -1.0256  0.8450 -0.3057
22403SOL    HW278934   7.835  10.872   2.397 -1.1567  0.2766 -0.0379
22404SOL     OW78935   7.491   7.325   9.321  0.2522 -0.4115 -0.2427
22404SOL    HW178936   7.463   7.235   9.305 -0.8407  0.1222 -1.5510
22404SOL    HW278937   7.418   7.365   9.368  0.4413 -0.0254 -0.2726
22405SOL     OW78938   3.581   2.513   3.673  0.2200  0.0898  0.6205
22405SOL    HW178939   3.669   2.545   3.651  0.3041 -1.1389 -1.0553
22405SOL    HW278940   3.531   2.592   3.693  1.0572  1.0712 -0.9005
22406SOL     OW78941   5.725   7.457   6.606  0.0173 -0.6735  0.4428
22406SOL    HW178942   5.654   7.479   6.666 -0.0025  1.6788 -0.3431
22406SOL    HW278943   5.801   7.444   6.664 -0.0792  1.2116  1.0646
22407SOL     OW78944  10.427   1.703   4.602  0.3487  0.3829  0.5670
22407SOL    HW178945  10.375   1.709   4.682  0.3343  1.8243  0.4763
22407SOL    HW278946  10.492   1.635   4.621 -0.7088 -0.5114  1.1574
22408SOL     OW78947   7.843   1.531   1.596  0.5262 -0.6918 -0.0617
22408SOL    HW178948   7.813   1.488   1.676 -2.2880 -1.1497 -1.2507
22408SOL    HW278949   7.852   1.460   1.532  2.3117 -0.2794 -0.3203
22409SOL     OW78950   2.232  11.533   9.551 -0.2268 -0.0509  0.1467
22409SOL    HW178951   2.318  11.563   9.580  0.3927 -0.4515 -1.2047
22409SOL    HW278952   2.201  11.478   9.623  0.0296  1.2009  1.2388
22410SOL     OW78953   0.179   0.756   0.479 -0.0674  0.0554  0.4285
22410SOL    HW178954   0.267   0.764   0.442  0.1289 -1.9716  0.3368
22410SOL    HW278955   0.156   0.845   0.506  0.5026  1.3469 -2.8813
22411SOL     OW78956   1.856   2.281  10.796  0.3193  0.0618  0.1113
22411SOL    HW178957   1.763   2.276  10.778  0.4476 -0.3778 -0.4828
22411SOL    HW278958   1.863   2.323  10.882 -0.4493 -0.4847  0.4480
22412SOL     OW78959   8.501   5.306  11.311 -0.3135  0.3912 -0.4241
22412SOL    HW178960   8.428   5.273  11.259  0.6583 -1.0399 -0.9503
22412SOL    HW278961   8.518   5.236  11.374  1.5061  0.0209 -1.2624
22413SOL     OW78962   2.669   4.812   8.674  0.8889  0.5626 -0.3207
22413SOL    HW178963   2.676   4.807   8.769  0.3096  0.3425 -0.2898
22413SOL    HW278964   2.645   4.724   8.647 -1.7779  1.2608 -0.4301
22414SOL     OW78965   3.522   0.514   5.105  0.3100 -0.1843  0.2266
22414SOL    HW178966   3.542   0.427   5.139  2.1305  0.3517  0.6225
22414SOL    HW278967   3.581   0.526   5.031  0.0702  0.7115  0.1637
22415SOL     OW78968   8.193   8.531  10.653  0.3842 -0.3226 -0.0637
22415SOL    HW178969   8.215   8.616  10.615  0.4798 -0.3894 -0.1621
22415SOL    HW278970   8.222   8.538  10.744  0.1431 -0.1562  0.0001
22416SOL     OW78971  11.221   0.613  11.349 -0.5977  0.0888  0.8237
22416SOL    HW178972  11.155   0.554  11.385  0.2499 -0.5767  1.3089
22416SOL    HW278973  11.170   0.686  11.314 -1.7032 -1.1051 -0.1711
22417SOL     OW78974   5.104   8.062   3.488 -0.1513 -0.2479 -0.8707
22417SOL    HW178975   5.153   8.090   3.565 -1.0442 -1.4714  0.1963
22417SOL    HW278976   5.128   8.124   3.419  0.4436  1.0631  0.4757
22418SOL     OW78977   0.665   4.756   4.603 -0.1891 -0.3259 -0.1585
22418SOL    HW178978   0.755   4.761   4.636 -0.8814 -0.5281  1.8893
22418SOL    HW278979   0.659   4.828   4.540  0.9086  0.8207  0.9793
22419SOL     OW78980   4.848   0.719   6.688  0.3034  0.6339 -0.3478
22419SOL    HW178981   4.765   0.750   6.724  0.5086  1.3953 -0.5113
22419SOL    HW278982   4.858   0.767   6.606  1.3636  1.2754  0.1306
22420SOL     OW78983   1.775   2.390   8.823  0.0506 -0.3923 -0.0592
22420SOL    HW178984   1.733   2.360   8.743  0.0763  0.8272 -0.5618
22420SOL    HW278985   1.703   2.401   8.885  0.0200 -1.2587  0.0696
22421SOL     OW78986   9.476   1.395   9.208  0.0265 -0.2775 -0.3146
22421SOL    HW178987   9.404   1.388   9.271 -1.8038  0.1869 -2.2238
22421SOL    HW278988   9.497   1.304   9.186  0.8772 -0.4534  1.1168
22422SOL     OW78989   6.907   7.868  11.500 -0.3869 -0.2264  0.0092
22422SOL    HW178990   6.834   7.924  11.473  0.5546  0.4966 -1.1377
22422SOL    HW278991   6.971   7.929  11.537 -0.2097 -0.8122  0.6816
22423SOL     OW78992   8.504  11.401   0.988 -0.1881  0.6394 -0.2756
22423SOL    HW178993   8.509  11.490   1.023  0.1624  1.5630 -2.5389
22423SOL    HW278994   8.590  11.387   0.948 -0.3497 -0.6167 -0.2140
22424SOL     OW78995   1.323   0.698   6.888 -0.7095 -0.2506  0.6874
22424SOL    HW178996   1.411   0.663   6.895  0.9987  3.7373  2.9463
22424SOL    HW278997   1.267   0.633   6.931  1.2531 -2.4193  0.1184
22425SOL     OW78998   6.790   5.535  11.063  0.1262 -0.3407  0.8489
22425SOL    HW178999   6.883   5.518  11.049  0.1522  0.4060 -0.0165
22425SOL    HW279000   6.778   5.626  11.035 -0.9734 -0.6098  0.3826
22426SOL     OW79001   9.464   3.551   9.140 -0.2141 -0.2186 -0.3046
22426SOL    HW179002   9.417   3.563   9.222  1.2771 -2.3555  1.0017
22426SOL    HW279003   9.493   3.638   9.115 -1.1093  0.5424  1.1910
22427SOL     OW79004   0.993   9.983   5.815 -0.4672  0.0659  0.3924
22427SOL    HW179005   1.075   9.936   5.833  1.3106  2.3534 -1.1924
22427SOL    HW279006   0.984  10.044   5.889  1.4280  2.4364 -1.1597
22428SOL     OW79007   8.185   2.642   0.350 -0.1537  0.0893  0.3751
22428SOL    HW179008   8.142   2.708   0.297 -0.6173  0.5743  1.3306
22428SOL    HW279009   8.272   2.632   0.311 -0.0180  1.3783  0.3176
22429SOL     OW79010   7.899   9.180   2.004  0.5384 -0.1954  0.7428
22429SOL    HW179011   7.862   9.256   2.049 -1.3300 -0.2036 -0.6464
22429SOL    HW279012   7.989   9.206   1.983  0.1738  1.3502  0.9498
22430SOL     OW79013   7.390   1.645   2.845  0.2405  0.3164  0.3864
22430SOL    HW179014   7.425   1.578   2.904  0.7485  1.5851  1.6117
22430SOL    HW279015   7.412   1.615   2.757  1.0326 -0.7868  0.9415
22431SOL     OW79016   6.675  10.899  11.075  0.6515  0.7155  0.4412
22431SOL    HW179017   6.761  10.910  11.034  0.1453  3.6565 -0.1065
22431SOL    HW279018   6.690  10.917  11.167  0.9568 -0.9195  0.7240
22432SOL     OW79019   9.949   1.067   8.701 -0.3955 -0.3389  0.2438
22432SOL    HW179020   9.897   1.146   8.713 -0.0037 -0.0832  0.2838
22432SOL    HW279021   9.942   1.047   8.608  0.9650  0.7856 -0.1347
22433SOL     OW79022   5.254   8.127   2.519 -0.3470 -0.3482  0.2593
22433SOL    HW179023   5.250   8.071   2.597 -1.3965 -0.3098  0.2481
22433SOL    HW279024   5.185   8.192   2.533  0.5228  0.6418  0.0332
22434SOL     OW79025   9.066   7.377   5.911 -0.1668 -0.1065  0.2685
22434SOL    HW179026   8.985   7.345   5.871  1.3038 -1.5388 -1.7783
22434SOL    HW279027   9.085   7.458   5.864 -0.2631  0.0774  0.5472
22435SOL     OW79028   7.251   4.981   4.486  0.1829 -0.3585  0.0556
22435SOL    HW179029   7.173   5.029   4.511  0.0201 -0.0486 -1.0179
22435SOL    HW279030   7.256   4.909   4.550  0.0833  0.6842  1.2813
22436SOL     OW79031   4.559   0.428   6.138 -0.0749  0.0523  0.1033
22436SOL    HW179032   4.606   0.453   6.218  0.7949 -0.5184 -0.2080
22436SOL    HW279033   4.595   0.342   6.115 -1.1906 -0.3369 -0.2318
22437SOL     OW79034   3.166   0.481   1.273  0.3385 -0.3446 -0.0589
22437SOL    HW179035   3.256   0.491   1.242  0.5481 -0.1199  0.5905
22437SOL    HW279036   3.175   0.436   1.357  0.0324  1.6250  1.0996
22438SOL     OW79037   6.027   1.900  10.256 -0.2533  0.2876 -0.3209
22438SOL    HW179038   5.961   1.918  10.323  0.0457  0.7720 -0.1494
22438SOL    HW279039   5.997   1.947  10.179  1.2245  2.8160  0.5135
22439SOL     OW79040   3.521  11.293   3.239  0.1581 -0.1465 -0.2139
22439SOL    HW179041   3.500  11.334   3.155  0.2054  1.0898  0.3729
22439SOL    HW279042   3.609  11.324   3.261  0.1322 -0.4314  0.3249
22440SOL     OW79043  10.356   3.612   8.713  0.5145  0.3342  0.7031
22440SOL    HW179044  10.369   3.558   8.635  0.1380  0.2583  0.6908
22440SOL    HW279045  10.328   3.550   8.780 -0.5618  0.5890  0.5202
22441SOL     OW79046   4.495   7.395   3.344  0.5043 -0.5368 -0.2074
22441SOL    HW179047   4.487   7.443   3.426 -0.7027 -1.0801  0.0114
22441SOL    HW279048   4.561   7.444   3.294  0.0568  0.7545  0.4149
22442SOL     OW79049   7.599   0.584   3.153  0.3911 -0.2103 -0.4402
22442SOL    HW179050   7.605   0.605   3.060  1.1514  0.1996 -0.3105
22442SOL    HW279051   7.567   0.664   3.194  1.4001  0.0803 -0.1864
22443SOL     OW79052   8.653   4.888   6.561  0.8436 -0.4362 -0.2062
22443SOL    HW179053   8.658   4.801   6.520 -0.5386  0.0130 -1.4017
22443SOL    HW279054   8.685   4.948   6.494 -0.4382  0.2040 -0.2707
22444SOL     OW79055   0.267   3.088  11.262  0.7174 -0.0710 -0.2380
22444SOL    HW179056   0.198   3.151  11.241  1.2470  0.0690 -1.6737
22444SOL    HW279057   0.233   3.040  11.337 -0.5839  0.5564 -0.3934
22445SOL     OW79058   7.650  10.475   9.838  1.1440 -0.2186 -0.0317
22445SOL    HW179059   7.688  10.552   9.797  0.7529 -0.3277 -0.6115
22445SOL    HW279060   7.721  10.411   9.839  0.6749 -0.8449 -2.2304
22446SOL     OW79061   8.745   4.362   0.947 -0.8269 -0.2453  0.2920
22446SOL    HW179062   8.685   4.332   1.015  0.0015 -0.5759  0.8989
22446SOL    HW279063   8.731   4.302   0.874 -1.0968 -0.4419  0.5038
22447SOL     OW79064   8.360   7.972   9.636 -0.1323  0.4424 -0.4070
22447SOL    HW179065   8.363   7.876   9.632 -3.8724  0.1374  0.1721
22447SOL    HW279066   8.407   8.001   9.558  2.3975 -1.7199  0.1752
22448SOL     OW79067   6.457   1.594   2.802  0.6438 -0.3679 -0.3764
22448SOL    HW179068   6.512   1.624   2.730  0.0324 -0.8645 -1.0579
22448SOL    HW279069   6.493   1.638   2.879  0.5609  1.1233 -1.1550
22449SOL     OW79070   7.503   2.585   2.317 -0.4525 -0.6776  0.6797
22449SOL    HW179071   7.579   2.530   2.336  0.5156  0.7192  0.9763
22449SOL    HW279072   7.538   2.673   2.307 -1.8626 -0.1993 -0.5636
22450SOL     OW79073   3.124   1.137   5.712  0.4460  0.3415  0.2968
22450SOL    HW179074   3.121   1.158   5.806  2.5179 -0.5499  0.5978
22450SOL    HW279075   3.195   1.074   5.703 -0.4363 -0.4470 -1.7388
22451SOL     OW79076  11.390  11.592   6.883  0.1507 -0.0664  0.3963
22451SOL    HW179077  11.464  11.627   6.833  0.4391  0.5360  1.2286
22451SOL    HW279078  11.377  11.504   6.847 -0.3171  0.7060 -1.4394
22452SOL     OW79079   7.965   9.522   7.488  0.7754  0.6522 -0.2553
22452SOL    HW179080   7.981   9.583   7.560  0.9801 -0.4326  0.6562
22452SOL    HW279081   8.052   9.484   7.470  0.1115 -2.3006  1.9627
22453SOL     OW79082   7.658   3.779   7.680 -0.8609 -0.3428  0.0873
22453SOL    HW179083   7.692   3.868   7.690 -2.3588  0.2303  0.3356
22453SOL    HW279084   7.697   3.731   7.753  0.3113 -0.0100 -0.3091
22454SOL     OW79085   3.496   9.221  10.444  0.3037 -0.0068 -0.2151
22454SOL    HW179086   3.524   9.180  10.362 -0.6432 -0.4432 -0.3277
22454SOL    HW279087   3.562   9.193  10.508  2.0199  1.6867 -1.1267
22455SOL     OW79088   8.839   2.378   6.860  0.4464 -0.7408  0.0310
22455SOL    HW179089   8.823   2.459   6.811  1.3598  1.2851  2.8078
22455SOL    HW279090   8.752   2.347   6.884  0.1070 -0.3222 -0.6176
22456SOL     OW79091   1.597   0.478   5.116 -0.0537  0.2808  0.1765
22456SOL    HW179092   1.674   0.423   5.103  0.6108  1.1677  0.2806
22456SOL    HW279093   1.593   0.490   5.211 -1.1065 -0.8416  0.3015
22457SOL     OW79094   2.399  11.036   4.082 -0.0706 -0.1703 -0.5398
22457SOL    HW179095   2.370  10.968   4.143  1.4416 -1.3325 -1.0273
22457SOL    HW279096   2.454  10.989   4.019 -0.5465  1.2094 -2.0480
22458SOL     OW79097   7.623  10.005   6.077  0.1990  0.4786  0.2201
22458SOL    HW179098   7.577   9.995   5.993  1.4942  1.5657 -0.6734
22458SOL    HW279099   7.629  10.100   6.089  2.3436  0.3838  0.1831
22459SOL     OW79100   3.148   9.477  11.916  0.3330 -0.0438  0.4308
22459SOL    HW179101   3.053   9.486  11.929  0.0279 -1.5709 -0.5700
22459SOL    HW279102   3.181   9.447  12.001  0.0534  1.1956  1.0014
22460SOL     OW79103   6.187   7.302   6.168 -0.1797  0.2202 -0.2035
22460SOL    HW179104   6.188   7.387   6.212 -0.7761  0.2656 -0.2656
22460SOL    HW279105   6.259   7.254   6.207 -1.0464  0.0376  1.2641
22461SOL     OW79106   3.401  10.379   4.913 -0.4009  0.4447  0.1244
22461SOL    HW179107   3.379  10.400   4.823  0.6747  1.9865  0.1857
22461SOL    HW279108   3.405  10.464   4.958  0.3402 -0.1836  1.3119
22462SOL     OW79109   9.996   9.753  10.460 -0.7934  0.1907 -0.7259
22462SOL    HW179110   9.915   9.793  10.428  0.0255  0.7033 -2.2932
22462SOL    HW279111  10.026   9.811  10.530 -0.8970  0.9707 -1.3168
22463SOL     OW79112   8.673   6.055   9.648 -0.0290 -0.0625 -0.8136
22463SOL    HW179113   8.643   5.989   9.585 -1.5859 -1.7378  1.4700
22463SOL    HW279114   8.650   6.139   9.609 -0.8471 -1.0165 -2.4921
22464SOL     OW79115   1.886   5.838   6.486 -0.0262  0.1522 -0.5097
22464SOL    HW179116   1.915   5.788   6.410  0.2571  0.8503 -0.8711
22464SOL    HW279117   1.952   5.821   6.553 -0.0245 -0.0903 -0.5705
22465SOL     OW79118   1.505  10.194  10.484 -0.6185  0.2489 -0.2900
22465SOL    HW179119   1.425  10.142  10.493  0.7128 -1.8494  0.1506
22465SOL    HW279120   1.561  10.142  10.427  0.5581  1.5254 -0.3452
22466SOL     OW79121   2.274   9.922   6.763  0.6204  0.5657 -0.2266
22466SOL    HW179122   2.363   9.951   6.785  1.0805  0.0960 -1.3716
22466SOL    HW279123   2.218   9.970   6.823  1.7103  0.2069  1.1248
22467SOL     OW79124   4.016  11.826   3.610  0.0267  0.0233 -0.2912
22467SOL    HW179125   4.061  11.765   3.668  1.7188  2.6084  1.3348
22467SOL    HW279126   4.045  11.802   3.522 -0.1069 -2.0016  0.1609
22468SOL     OW79127  11.734   0.180  11.247  0.1204 -0.0670 -0.3443
22468SOL    HW179128  11.646   0.145  11.235 -0.1495  0.3178  0.4675
22468SOL    HW279129  11.740   0.199  11.340  0.8558  0.4720 -0.4930
22469SOL     OW79130   9.474   2.155  10.560 -0.3190  0.0435 -0.3908
22469SOL    HW179131   9.454   2.196  10.644 -1.7018 -1.0862 -0.1403
22469SOL    HW279132   9.462   2.225  10.495 -0.2205  0.6575  0.2477
22470SOL     OW79133  11.341   5.009   1.308 -0.2858 -0.2007  0.3763
22470SOL    HW179134  11.434   5.024   1.325 -0.0203 -2.1943  0.8657
22470SOL    HW279135  11.338   4.979   1.217 -0.2376 -1.6465  0.8300
22471SOL     OW79136   8.946   7.431   7.087 -0.5420 -0.0603 -0.5599
22471SOL    HW179137   8.933   7.516   7.044 -0.7750  0.1992  0.0201
22471SOL    HW279138   8.926   7.447   7.179  0.1681 -0.5629 -0.3111
22472SOL     OW79139   3.880   9.951   0.405 -0.4325 -0.8426  0.0453
22472SOL    HW179140   3.911   9.927   0.493 -0.3299 -1.0682 -0.0501
22472SOL    HW279141   3.896   9.872   0.352  0.3729 -0.4018 -0.3940
22473SOL     OW79142   8.943   4.409   9.853  0.1512 -0.0891 -0.5433
22473SOL    HW179143   8.954   4.315   9.870 -0.2391  0.1855  1.3917
22473SOL    HW279144   9.019   4.432   9.799 -0.5955 -1.8160 -2.4740
22474SOL     OW79145   3.523   6.363   1.222 -0.6116 -0.1447 -0.5096
22474SOL    HW179146   3.431   6.390   1.216 -0.8695 -1.1040 -1.0579
22474SOL    HW279147   3.533   6.329   1.311  0.1353  3.1203  0.7930
22475SOL     OW79148   5.573   6.691   0.296 -0.6862  0.3859  0.2645
22475SOL    HW179149   5.621   6.659   0.372 -0.1885 -0.0352 -0.2188
22475SOL    HW279150   5.590   6.785   0.293  0.7063  0.1364 -0.3045
22476SOL     OW79151   4.349   2.738   2.163 -0.5014 -0.4072 -0.2672
22476SOL    HW179152   4.370   2.652   2.128 -0.4962 -0.2843 -0.5778
22476SOL    HW279153   4.420   2.794   2.130  0.1427 -0.5141  0.9090
22477SOL     OW79154   4.911   1.457  11.622  0.0843 -0.0099  0.1836
22477SOL    HW179155   4.869   1.452  11.536  0.6835 -0.9724 -0.0683
22477SOL    HW279156   4.994   1.503  11.606 -1.0590  2.4651  0.7900
22478SOL     OW79157   1.393   4.202   5.297  0.2852 -0.0717  0.1639
22478SOL    HW179158   1.471   4.215   5.350  0.5170 -1.2801  0.1550
22478SOL    HW279159   1.405   4.116   5.258 -0.2141  0.4778 -1.2790
22479SOL     OW79160   0.638   2.491  11.802 -0.1536 -0.0976 -0.2094
22479SOL    HW179161   0.671   2.404  11.823  0.0674 -0.1763 -0.8793
22479SOL    HW279162   0.648   2.499  11.707  2.3362  1.6642  0.1063
22480SOL     OW79163   3.968   9.985   2.426  0.4501  0.8079 -0.1757
22480SOL    HW179164   4.013  10.046   2.367 -0.7786  0.1400 -1.8983
22480SOL    HW279165   3.882  10.024   2.439 -0.3611 -0.5350 -1.3267
22481SOL     OW79166   5.143   4.527   3.554 -0.3668  0.3870 -0.5805
22481SOL    HW179167   5.074   4.466   3.581 -0.8439  0.9822 -0.4281
22481SOL    HW279168   5.141   4.596   3.620  0.0072  0.6879 -0.8783
22482SOL     OW79169   8.978   6.385   0.797 -0.1746  0.3328  0.2824
22482SOL    HW179170   8.937   6.402   0.713  1.4806  1.5570 -0.3258
22482SOL    HW279171   9.018   6.299   0.788  1.5114  1.1823 -0.8648
22483SOL     OW79172  10.554   4.161   7.992  0.1532 -0.0435  0.2722
22483SOL    HW179173  10.527   4.095   7.929  1.1355  0.0336 -0.2504
22483SOL    HW279174  10.610   4.114   8.054  2.1692  0.5412 -0.9944
22484SOL     OW79175   6.447   3.795   2.671  0.0975 -0.1795 -0.3816
22484SOL    HW179176   6.400   3.783   2.589  0.5212 -0.1865 -0.6268
22484SOL    HW279177   6.381   3.827   2.732 -0.0164  0.7738 -0.9861
22485SOL     OW79178   4.847   1.942   5.032 -0.1590 -0.0565  0.4281
22485SOL    HW179179   4.823   2.034   5.025  0.3438  0.0426 -0.0064
22485SOL    HW279180   4.906   1.926   4.959  2.3669  0.0971  2.3175
22486SOL     OW79181   8.967   7.101   4.453 -0.7246 -0.0685 -0.2341
22486SOL    HW179182   8.900   7.061   4.397 -2.2439  2.2696 -0.2083
22486SOL    HW279183   8.965   7.194   4.430  2.1202  0.2079  0.2403
22487SOL     OW79184   5.783  11.600   2.839 -0.5711  0.0528  0.1424
22487SOL    HW179185   5.707  11.584   2.782 -1.7599  1.2623  1.3280
22487SOL    HW279186   5.791  11.520   2.891 -1.0028 -0.0947 -0.0144
22488SOL     OW79187   0.449   0.173   8.662 -0.5550 -0.1223  0.3145
22488SOL    HW179188   0.543   0.190   8.671 -0.0879 -2.4685  0.5596
22488SOL    HW279189   0.424   0.222   8.584  0.5199  1.6937  1.0383
22489SOL     OW79190   3.535   8.051   2.536  0.5529  0.0501 -0.5221
22489SOL    HW179191   3.465   7.986   2.537 -0.2700  0.9147 -0.3924
22489SOL    HW279192   3.533   8.087   2.447 -0.5547  1.5114  0.0618
22490SOL     OW79193   7.086   3.381   7.976  0.1431 -0.4652  0.3058
22490SOL    HW179194   7.125   3.299   8.004 -0.0992 -0.6379  0.1455
22490SOL    HW279195   7.160   3.438   7.956  0.3079 -0.8150 -0.0783
22491SOL     OW79196   5.466   0.081   1.284  0.2683 -0.8529  0.2040
22491SOL    HW179197   5.471   0.118   1.196  0.0629 -1.2806  0.0112
22491SOL    HW279198   5.531   0.130   1.334  0.6322 -0.8492 -0.2679
22492SOL     OW79199   7.769   8.958   5.988 -0.3615 -0.0353 -0.0603
22492SOL    HW179200   7.709   8.930   5.919  0.2039 -0.5951 -0.3356
22492SOL    HW279201   7.832   9.015   5.945  0.0411 -0.4506 -0.0269
22493SOL     OW79202  11.155   7.748   9.857 -0.2672 -0.3916 -0.1618
22493SOL    HW179203  11.190   7.811   9.795  2.3636 -1.3050  0.2787
22493SOL    HW279204  11.132   7.672   9.804 -3.1032  0.6999 -0.6432
22494SOL     OW79205   9.374   2.543   1.037  0.2539  0.5990  0.2012
22494SOL    HW179206   9.416   2.562   1.121  1.1453  3.1528 -0.7110
22494SOL    HW279207   9.284   2.574   1.047  0.7094  2.0967 -0.1377
22495SOL     OW79208   6.750   9.578   6.452 -0.1623  0.1288  0.3278
22495SOL    HW179209   6.761   9.559   6.359 -0.3766  0.7483  0.1705
22495SOL    HW279210   6.672   9.529   6.478 -1.5822  1.8793 -0.4169
22496SOL     OW79211   2.657  10.875   6.745 -0.2335 -0.2752 -0.1045
22496SOL    HW179212   2.657  10.948   6.807  1.8355 -1.4336  1.3649
22496SOL    HW279213   2.664  10.917   6.659 -1.8730  1.3159  0.4733
22497SOL     OW79214   1.603   4.388   4.290 -0.1284 -0.3060  0.3805
22497SOL    HW179215   1.659   4.311   4.300  0.2692 -0.3078 -1.5031
22497SOL    HW279216   1.552   4.370   4.212 -1.3893  0.5530  0.9736
22498SOL     OW79217   2.756   6.447   3.323  0.0541 -0.0944  0.1579
22498SOL    HW179218   2.666   6.463   3.295 -0.1821 -0.1599  0.8719
22498SOL    HW279219   2.786   6.374   3.268  0.0618  0.6583 -0.8735
22499SOL     OW79220   9.232   0.009   5.881 -0.5279 -0.4425  0.4734
22499SOL    HW179221   9.234  -0.050   5.957  0.4468 -1.3698 -0.2482
22499SOL    HW279222   9.153   0.062   5.895  0.1678  0.1428  2.6776
22500SOL     OW79223  10.606   1.247   9.649 -0.2332  0.3914 -0.4486
22500SOL    HW179224  10.690   1.294   9.650  0.2525 -0.3506 -2.5866
22500SOL    HW279225  10.569   1.266   9.563 -1.2997 -0.9832 -0.3178
22501SOL     OW79226   6.524   1.370   1.519 -0.1637  0.4177  0.0818
22501SOL    HW179227   6.590   1.357   1.587 -0.1756  0.8740  0.1835
22501SOL    HW279228   6.448   1.406   1.565 -0.7869 -0.8782  0.0998
22502SOL     OW79229   6.728   8.363   5.441  0.9200  0.0278  0.0123
22502SOL    HW179230   6.689   8.446   5.414  0.4812 -0.5384 -1.1558
22502SOL    HW279231   6.774   8.383   5.522  0.0297  1.1997  0.2445
22503SOL     OW79232   0.796   1.470   2.995 -0.2667 -0.3618  0.0175
22503SOL    HW179233   0.764   1.445   3.081  0.6805 -0.7741  0.2666
22503SOL    HW279234   0.782   1.565   2.990  1.0219 -0.0778  1.2332
22504SOL     OW79235   5.257   6.069   1.638 -0.2332 -0.0911 -0.3558
22504SOL    HW179236   5.192   6.076   1.567 -0.0250 -0.0727 -0.5440
22504SOL    HW279237   5.233   6.138   1.699 -0.3106  0.0042 -0.4926
22505SOL     OW79238   8.008   9.272   6.518 -0.0488  0.8556 -0.5387
22505SOL    HW179239   8.040   9.191   6.557  1.3073  1.7094  0.1944
22505SOL    HW279240   7.987   9.249   6.427 -0.9448 -0.6002 -0.0048
22506SOL     OW79241  11.041   8.700   1.463 -0.3143  0.4309 -0.1109
22506SOL    HW179242  10.970   8.651   1.505  2.1873 -0.2875  3.9195
22506SOL    HW279243  11.029   8.790   1.492 -0.5359  0.6647 -0.9084
22507SOL     OW79244   2.873  11.061  10.779 -0.6007  0.1184  0.0417
22507SOL    HW179245   2.967  11.044  10.779  0.4986  4.7824 -1.1144
22507SOL    HW279246   2.850  11.067  10.872  0.2354 -0.9743  0.3433
22508SOL     OW79247  11.802   5.782  10.163  0.0747  0.0997 -0.1001
22508SOL    HW179248  11.785   5.695  10.199  1.0856 -1.3425 -2.8154
22508SOL    HW279249  11.895   5.797  10.180 -0.2349  0.9969  0.9331
22509SOL     OW79250  10.440   9.337   9.781 -0.3331 -0.0037 -0.1457
22509SOL    HW179251  10.460   9.314   9.691  0.7211 -0.4498  0.1919
22509SOL    HW279252  10.436   9.432   9.782 -0.6500 -0.0082 -0.7122
22510SOL     OW79253   3.644   7.053   1.033  0.0259  0.1497 -0.1827
22510SOL    HW179254   3.619   7.136   0.992  2.0644 -0.1300 -2.2249
22510SOL    HW279255   3.687   7.079   1.115  1.5047  1.2512 -1.2503
22511SOL     OW79256   4.159   9.448  10.088 -0.0631 -0.5908 -0.4987
22511SOL    HW179257   4.176   9.355  10.103  0.0099 -0.4563  0.2584
22511SOL    HW279258   4.078   9.449  10.037 -0.8480 -1.0188  0.7138
22512SOL     OW79259   6.379   5.808   8.396  0.1262 -0.0136  0.1212
22512SOL    HW179260   6.331   5.885   8.367 -0.8253  0.1138  1.8375
22512SOL    HW279261   6.470   5.837   8.402 -0.0166  0.5868 -0.4924
22513SOL     OW79262   4.583   1.080  10.840 -0.5151  0.2241 -0.7166
22513SOL    HW179263   4.665   1.088  10.791  0.0236 -0.4402  0.0492
22513SOL    HW279264   4.519   1.129  10.788  0.3464  0.6916 -1.3646
22514SOL     OW79265   6.050  10.627   2.400  0.3803 -0.3753  0.7568
22514SOL    HW179266   6.111  10.554   2.396 -0.5246 -1.0953 -0.1410
22514SOL    HW279267   5.985  10.601   2.465  0.8960  0.3088  1.5713
22515SOL     OW79268   2.042   6.182   4.592 -0.3743  0.3324  0.2217
22515SOL    HW179269   2.066   6.244   4.523  2.5699 -0.2557  0.5811
22515SOL    HW279270   1.994   6.113   4.545  1.9001 -0.2610 -1.4372
22516SOL     OW79271   9.905   9.976   9.514 -0.2733 -0.4811 -0.5365
22516SOL    HW179272   9.986  10.008   9.553  0.5071 -1.7232 -1.0749
22516SOL    HW279273   9.840   9.984   9.583  0.4150  0.0709  0.0665
22517SOL     OW79274   8.674   5.566   4.462 -0.0030  0.2903  0.6168
22517SOL    HW179275   8.642   5.546   4.550  1.2689 -0.0868  1.0172
22517SOL    HW279276   8.595   5.564   4.407 -0.5598 -1.4576  1.3969
22518SOL     OW79277   4.172   3.716  11.073  0.1345 -0.2366  0.0243
22518SOL    HW179278   4.103   3.660  11.107  0.5328 -0.7505 -0.0170
22518SOL    HW279279   4.252   3.664  11.080  0.4027  0.0799 -0.6055
22519SOL     OW79280   2.843  10.890  11.892 -0.0106 -0.1527  0.5918
22519SOL    HW179281   2.752  10.906  11.868  0.4446  3.0007  0.4803
22519SOL    HW279282   2.843  10.888  11.987 -0.1665  0.2436  0.6021
22520SOL     OW79283   9.371  11.112   9.071  0.0324  0.4171 -0.0274
22520SOL    HW179284   9.378  11.146   9.161  1.4025  1.3371 -0.4452
22520SOL    HW279285   9.307  11.042   9.077  0.9183 -0.3019  1.9122
22521SOL     OW79286  11.495   6.124   7.608  0.6244 -0.4850  0.7268
22521SOL    HW179287  11.436   6.185   7.563  3.0633  0.8365 -0.9244
22521SOL    HW279288  11.473   6.134   7.700  0.0780  2.0089  0.4095
22522SOL     OW79289   2.690   1.238   5.869 -0.1712  0.2338  0.1839
22522SOL    HW179290   2.694   1.318   5.816 -1.4325  1.1724  1.4345
22522SOL    HW279291   2.702   1.268   5.959 -1.7071 -0.8395  0.7859
22523SOL     OW79292  10.376   5.933   6.031  0.1061 -0.2184  0.0135
22523SOL    HW179293  10.379   5.899   5.942  3.4211 -0.2914  0.0380
22523SOL    HW279294  10.365   5.856   6.087  1.3980 -0.5920 -0.2201
22524SOL     OW79295   6.646   8.747   7.850  0.4451  0.4606 -0.2085
22524SOL    HW179296   6.677   8.666   7.892  1.3064  1.5221  1.2614
22524SOL    HW279297   6.726   8.787   7.814 -0.0691  0.3486 -1.5526
22525SOL     OW79298  10.099   4.983   9.274  0.0344 -0.2763  0.5801
22525SOL    HW179299  10.067   5.033   9.199  0.6933 -0.1253  0.3904
22525SOL    HW279300  10.115   4.895   9.240  0.1920 -0.2464  0.5734
22526SOL     OW79301   0.698   3.585   1.328  0.1132 -0.1727  0.1318
22526SOL    HW179302   0.764   3.616   1.390 -0.2780  1.4176 -0.2034
22526SOL    HW279303   0.614   3.610   1.367 -0.1834 -0.2373 -0.4506
22527SOL     OW79304   7.429   7.120   6.212 -0.2278  0.7216 -0.1797
22527SOL    HW179305   7.407   7.148   6.123 -1.4225  1.5970  0.3663
22527SOL    HW279306   7.345   7.098   6.252  0.4030 -0.7724  0.3954
22528SOL     OW79307   3.773  10.644   2.485  0.8646  0.1975 -0.2081
22528SOL    HW179308   3.809  10.562   2.516  0.1599 -0.9285 -2.1531
22528SOL    HW279309   3.679  10.627   2.473  0.8694  0.9509 -1.5593
22529SOL     OW79310   3.568   8.601  11.560 -0.2604 -0.0418 -0.3757
22529SOL    HW179311   3.624   8.531  11.594 -0.9704 -0.1105  0.7057
22529SOL    HW279312   3.480   8.578  11.589 -0.6090  0.9162 -0.6392
22530SOL     OW79313   6.547  10.420  10.238 -0.0377  0.2853 -0.1330
22530SOL    HW179314   6.585  10.498  10.196 -1.7663  1.5145  0.4886
22530SOL    HW279315   6.593  10.414  10.322  0.7023  0.0952 -0.5351
22531SOL     OW79316   2.707   9.831   8.474 -0.4494  0.0544 -0.2460
22531SOL    HW179317   2.676   9.801   8.560 -1.3778  2.1016  0.1925
22531SOL    HW279318   2.627   9.857   8.428  0.1853  0.3733 -1.1773
22532SOL     OW79319   9.293   0.493   3.163 -0.2925  0.0982  0.3634
22532SOL    HW179320   9.295   0.400   3.187  0.8289  0.0325  0.0755
22532SOL    HW279321   9.316   0.538   3.244 -1.7813  0.2065  0.7602
22533SOL     OW79322  10.779   2.142  11.540 -0.5021 -0.5713  0.1876
22533SOL    HW179323  10.751   2.094  11.617  1.8827 -0.7576  1.0229
22533SOL    HW279324  10.863   2.103  11.516  0.4866  1.7279 -0.4145
22534SOL     OW79325   1.629  11.236  10.739 -0.0975 -0.4349  0.0734
22534SOL    HW179326   1.597  11.317  10.700 -0.8006 -0.1421  1.2124
22534SOL    HW279327   1.652  11.260  10.829  0.2392 -1.3700  0.2488
22535SOL     OW79328   8.951   3.638   9.066 -0.3080 -0.1186 -0.0849
22535SOL    HW179329   8.929   3.730   9.080 -0.7860 -0.0109 -1.3957
22535SOL    HW279330   8.981   3.607   9.152 -0.1651  1.2409  0.3823
22536SOL     OW79331   3.689   2.971  11.188 -0.1591 -0.1009  0.2278
22536SOL    HW179332   3.776   2.969  11.229  0.2614 -0.2144 -0.6333
22536SOL    HW279333   3.643   3.042  11.232  0.2554 -0.2409  0.9135
22537SOL     OW79334   3.473   9.201  11.592 -0.3777 -0.0087  0.0111
22537SOL    HW179335   3.486   9.271  11.656  0.1843  0.2314 -0.3557
22537SOL    HW279336   3.385   9.167  11.610 -0.0601 -0.2486  1.2028
22538SOL     OW79337   2.214   2.778   8.573 -0.3273  0.2758  0.8149
22538SOL    HW179338   2.162   2.729   8.510  0.1371  0.0912  0.5708
22538SOL    HW279339   2.249   2.712   8.633 -0.6554  0.4355  1.1857
22539SOL     OW79340   2.952   7.465   4.494 -0.5679 -0.2025 -0.2673
22539SOL    HW179341   2.984   7.486   4.581  0.6386  1.3153 -1.0181
22539SOL    HW279342   3.002   7.388   4.467 -1.5012 -1.1533  0.6477
22540SOL     OW79343   6.037   8.536   2.613  0.1938  0.0938 -0.4947
22540SOL    HW179344   6.130   8.526   2.635  0.1332 -0.9714 -0.6726
22540SOL    HW279345   6.036   8.605   2.547  0.7997  0.5068 -0.0897
22541SOL     OW79346   3.878   2.124   4.524  0.4795  0.2360  0.3205
22541SOL    HW179347   3.925   2.052   4.483  0.4567 -0.5186  1.5877
22541SOL    HW279348   3.928   2.202   4.498  0.7112 -0.2480 -0.7642
22542SOL     OW79349  11.443  11.494  11.509 -0.0030 -0.4117  0.0734
22542SOL    HW179350  11.446  11.449  11.594  0.0675  0.1731  0.3836
22542SOL    HW279351  11.526  11.471  11.467  0.6899  0.6035  0.8434
22543SOL     OW79352   4.989   1.248   0.652 -0.0409  0.5278  0.2855
22543SOL    HW179353   4.985   1.169   0.597 -0.7472  0.7955 -0.0585
22543SOL    HW279354   4.991   1.320   0.590 -2.8288  0.9331  0.5548
22544SOL     OW79355   3.288  10.719   3.111 -0.1470 -0.3169  0.0614
22544SOL    HW179356   3.198  10.702   3.084 -0.3628  1.4592 -0.4596
22544SOL    HW279357   3.338  10.719   3.030  0.1290 -0.2066  0.2295
22545SOL     OW79358   2.056   0.142   4.875 -0.1263  0.0312  0.4982
22545SOL    HW179359   1.987   0.186   4.925 -0.7983  0.5027 -0.7827
22545SOL    HW279360   2.019   0.055   4.855  0.5262 -0.5204  1.6059
22546SOL     OW79361   8.196   7.097  11.348  0.3265 -0.2968  0.0771
22546SOL    HW179362   8.217   7.182  11.310  0.5854 -0.3728  0.0470
22546SOL    HW279363   8.116   7.112  11.398  0.2787 -0.0747 -0.0640
22547SOL     OW79364   7.964   0.299   9.505 -0.3813 -0.4310 -0.1676
22547SOL    HW179365   7.886   0.245   9.487 -0.8445  0.1070  0.2089
22547SOL    HW279366   8.037   0.245   9.475 -0.8160 -1.3973  0.4715
22548SOL     OW79367   7.850   6.422   5.232 -0.3999  0.3231 -0.6588
22548SOL    HW179368   7.862   6.346   5.289 -0.2592  0.7451 -0.1160
22548SOL    HW279369   7.755   6.428   5.219 -0.3859 -0.1491 -0.9915
22549SOL     OW79370   1.421   0.951   2.649 -0.2967 -0.0403 -0.6681
22549SOL    HW179371   1.351   0.966   2.713 -0.1362  1.4068 -0.7989
22549SOL    HW279372   1.395   0.870   2.605 -0.5284 -0.9477  1.0385
22550SOL     OW79373  11.347  11.777  10.716 -0.2256  0.4279  0.1924
22550SOL    HW179374  11.262  11.736  10.699 -0.8161  1.4236  0.6532
22550SOL    HW279375  11.403  11.705  10.744 -0.6796 -0.3826 -0.8751
22551SOL     OW79376   4.746   2.427   7.882 -0.3184  0.2998  0.4824
22551SOL    HW179377   4.793   2.388   7.956 -1.8184 -0.5410  1.0368
22551SOL    HW279378   4.774   2.376   7.806 -1.4806 -1.2463  1.0471
22552SOL     OW79379   7.614   9.912   4.263  0.3510  0.1884  0.2709
22552SOL    HW179380   7.569   9.835   4.299  0.0510  0.1529 -0.1729
22552SOL    HW279381   7.696   9.917   4.312  0.5750 -0.6767 -0.0047
22553SOL     OW79382  11.251  11.089   9.996  0.1322  0.3412  0.1205
22553SOL    HW179383  11.286  11.152   9.933 -0.0272  0.4490  0.1388
22553SOL    HW279384  11.315  11.087  10.066 -0.8213  2.0065  1.1008
22554SOL     OW79385   8.482   4.552   2.169 -0.3852  0.1036 -0.1400
22554SOL    HW179386   8.459   4.502   2.248 -2.4758  0.5904 -0.3863
22554SOL    HW279387   8.422   4.519   2.102 -1.1295  2.1901 -0.5766
22555SOL     OW79388   7.858   4.560   7.838  0.1494 -0.1366  0.4506
22555SOL    HW179389   7.943   4.531   7.805  0.7954  1.2057  0.8495
22555SOL    HW279390   7.862   4.545   7.933  0.5408  1.2573  0.6822
22556SOL     OW79391   4.405  11.701   9.149  0.6715 -0.2430  0.2224
22556SOL    HW179392   4.427  11.794   9.148  2.1344 -0.5553 -1.8328
22556SOL    HW279393   4.377  11.684   9.239 -1.9230  2.6541  0.1309
22557SOL     OW79394   1.064  11.824   7.626 -0.5107 -0.3994  0.2408
22557SOL    HW179395   1.057  11.913   7.592  0.4638 -0.3680  0.1086
22557SOL    HW279396   1.054  11.768   7.550 -0.4152 -0.3892  0.2216
22558SOL     OW79397  10.433   3.382   9.687  0.4666 -0.3090  0.1548
22558SOL    HW179398  10.467   3.326   9.617  1.7587  0.8035 -0.1566
22558SOL    HW279399  10.460   3.339   9.768  0.4492 -0.7272 -0.0619
22559SOL     OW79400   2.305   4.120   6.613 -0.2363 -0.6284  0.2377
22559SOL    HW179401   2.376   4.169   6.654 -0.2813 -0.4530  0.1046
22559SOL    HW279402   2.346   4.078   6.537 -0.5937  0.6658 -0.7110
22560SOL     OW79403   5.310  10.404  10.169  0.5395 -0.3797 -0.6585
22560SOL    HW179404   5.317  10.386  10.262  1.4553 -1.2992 -0.8810
22560SOL    HW279405   5.325  10.319  10.127  1.3982  0.2442 -1.6616
22561SOL     OW79406   5.073   7.371   5.208  0.0294 -0.0493  0.0809
22561SOL    HW179407   5.045   7.347   5.120  0.7188  1.0606 -0.4576
22561SOL    HW279408   5.071   7.289   5.257 -2.9789 -0.2483 -0.2232
22562SOL     OW79409   2.696  10.373   9.518 -0.6888 -0.3575  0.0435
22562SOL    HW179410   2.773  10.318   9.535 -0.8051 -0.4935  0.1371
22562SOL    HW279411   2.651  10.376   9.602  0.4644  1.6984  0.6427
22563SOL     OW79412   1.394   7.528   2.942 -0.4258 -0.0191 -0.1778
22563SOL    HW179413   1.308   7.555   2.909 -0.6520  1.1297  1.2529
22563SOL    HW279414   1.451   7.534   2.866 -1.8011 -2.0597 -1.4939
22564SOL     OW79415   6.669   2.943   1.600 -0.3091  0.5209  0.3967
22564SOL    HW179416   6.610   2.870   1.619  0.4142  0.0545  0.8814
22564SOL    HW279417   6.631   2.985   1.523  0.3389 -1.5486 -1.1263
22565SOL     OW79418   8.230   1.473   0.961  0.0455  0.0547 -0.4680
22565SOL    HW179419   8.292   1.401   0.954 -1.0209 -0.8089 -1.3953
22565SOL    HW279420   8.214   1.482   1.055  0.5439 -0.6156 -0.3150
22566SOL     OW79421  10.775   0.122   6.315 -0.3514  0.2118 -0.7977
22566SOL    HW179422  10.801   0.052   6.375 -2.9301 -0.0393  0.1900
22566SOL    HW279423  10.843   0.189   6.325  0.2664 -0.6194  1.0489
22567SOL     OW79424   0.740   0.220   0.962 -0.8607  0.0787 -0.0220
22567SOL    HW179425   0.809   0.159   0.987 -1.9126 -0.0946  2.9410
22567SOL    HW279426   0.750   0.231   0.868  3.1164  0.0542  0.2553
22568SOL     OW79427   4.703   3.569   5.799 -0.3254 -0.4340 -0.3909
22568SOL    HW179428   4.765   3.501   5.824  0.0627  0.2185  0.4675
22568SOL    HW279429   4.629   3.522   5.762  0.9644 -1.2136 -2.1276
22569SOL     OW79430   7.143   1.639   6.041  0.4861 -0.2433 -0.0633
22569SOL    HW179431   7.128   1.709   6.105  0.8888 -0.3592  0.1607
22569SOL    HW279432   7.117   1.676   5.957 -1.8104 -0.6529  0.3729
22570SOL     OW79433   7.733   8.545   7.639  0.2014 -0.2508 -0.4180
22570SOL    HW179434   7.728   8.537   7.544  1.8570  0.2473 -0.5822
22570SOL    HW279435   7.683   8.624   7.659 -0.9498 -0.8755 -0.7524
22571SOL     OW79436   9.717   5.399   1.576  0.5890 -0.1034  0.0424
22571SOL    HW179437   9.718   5.332   1.645  1.1423 -0.1764 -0.0331
22571SOL    HW279438   9.800   5.445   1.587  0.4642  0.1977 -0.2742
22572SOL     OW79439   4.444  11.329  11.936  0.6287  0.3396  0.0527
22572SOL    HW179440   4.537  11.310  11.918  0.9403  1.0578  0.8315
22572SOL    HW279441   4.404  11.242  11.946  0.5294 -0.1359 -3.2710
22573SOL     OW79442   4.376   2.549   8.265 -0.4214 -0.0002  0.0111
22573SOL    HW179443   4.424   2.521   8.186  1.1404 -0.4596  1.0658
22573SOL    HW279444   4.348   2.638   8.245  0.7686  0.2414 -0.7400
22574SOL     OW79445  10.318   0.799   6.673  0.5431  0.1955  0.1024
22574SOL    HW179446  10.274   0.728   6.627 -0.7969  0.0327  1.5805
22574SOL    HW279447  10.344   0.860   6.604  1.0106 -1.3300 -1.1088
22575SOL     OW79448   4.426   5.956   7.587  0.4174 -0.1677  0.7453
22575SOL    HW179449   4.487   6.006   7.641 -0.3134  1.7244 -0.1017
22575SOL    HW279450   4.465   5.955   7.500  0.2904 -0.8821  0.6832
22576SOL     OW79451   4.281   7.399   1.022 -0.0745  0.1873  0.6936
22576SOL    HW179452   4.196   7.358   1.006 -0.2848  0.3368  1.4262
22576SOL    HW279453   4.310   7.363   1.105  1.9023 -2.0377 -0.8191
22577SOL     OW79454   1.220   0.143   2.464  0.4190  0.0384  0.2217
22577SOL    HW179455   1.240   0.144   2.558  0.0077 -0.1954  0.3163
22577SOL    HW279456   1.126   0.164   2.460  0.1266 -1.2416 -0.0535
22578SOL     OW79457  10.294  10.663  10.437 -0.2174  0.3048  0.0299
22578SOL    HW179458  10.299  10.601  10.364 -0.2094 -1.5187  1.5029
22578SOL    HW279459  10.202  10.686  10.443 -0.7121 -1.7965  1.1927
22579SOL     OW79460  10.744   3.111   0.822 -0.5739 -0.0674  0.7359
22579SOL    HW179461  10.770   3.070   0.739  0.5277  0.1932  0.9300
22579SOL    HW279462  10.761   3.044   0.888  0.7586  0.4964  0.9974
22580SOL     OW79463   7.477   2.182   5.170 -0.1659 -0.0551  0.1879
22580SOL    HW179464   7.564   2.143   5.156 -0.5850 -0.8441 -0.3255
22580SOL    HW279465   7.430   2.117   5.222 -0.6070  0.1392  0.0360
22581SOL     OW79466   3.406   3.389   6.943  0.6894  0.2873 -0.5686
22581SOL    HW179467   3.349   3.371   6.869  0.8445 -0.0347 -0.6096
22581SOL    HW279468   3.481   3.330   6.932  0.7038  0.2204 -0.1473
22582SOL     OW79469   7.368   9.897   7.626  0.0098 -0.2826  0.2439
22582SOL    HW179470   7.454   9.855   7.617 -1.1465 -2.9823  0.5873
22582SOL    HW279471   7.314   9.855   7.559 -1.2594  0.6975  0.6190
22583SOL     OW79472  10.565   3.629   2.093  0.1196  0.2678  0.1196
22583SOL    HW179473  10.593   3.572   2.165  1.7624  0.6810 -0.1582
22583SOL    HW279474  10.508   3.574   2.040 -0.8957 -0.1298  1.5637
22584SOL     OW79475   0.794   4.226   2.165  0.0478  0.5876  0.4568
22584SOL    HW179476   0.782   4.315   2.197 -0.0541  0.6401  0.2726
22584SOL    HW279477   0.748   4.224   2.081  3.1360  1.4998 -1.4458
22585SOL     OW79478   5.990   3.636   8.253 -0.1321 -0.8512 -0.4382
22585SOL    HW179479   6.067   3.639   8.310 -0.3854  0.0428 -0.1167
22585SOL    HW279480   6.025   3.652   8.165 -0.1053  1.3020 -0.0892
22586SOL     OW79481   8.168   9.099  10.075  0.0516 -0.0156 -0.4085
22586SOL    HW179482   8.148   9.192  10.090 -0.2660 -0.1754  0.1705
22586SOL    HW279483   8.181   9.063  10.162 -0.3541 -0.6366 -0.6012
22587SOL     OW79484   4.622   2.273   5.989 -0.1995 -0.0682 -0.3984
22587SOL    HW179485   4.547   2.332   5.979  1.0889  1.4803 -1.5490
22587SOL    HW279486   4.671   2.309   6.064 -0.3094 -0.7485  0.0088
22588SOL     OW79487   5.725   1.151   9.746 -0.2416  0.2681  0.3027
22588SOL    HW179488   5.768   1.210   9.684 -3.7521 -0.0785 -2.8159
22588SOL    HW279489   5.674   1.210   9.803  0.8274  0.4500  1.1008
22589SOL     OW79490   9.489   0.210   4.294 -0.0534  0.1741  0.2833
22589SOL    HW179491   9.495   0.245   4.384 -1.3277 -1.3178  0.9843
22589SOL    HW279492   9.577   0.223   4.258  0.9892 -0.7141  2.3306
22590SOL     OW79493   8.467  11.145   9.640  0.1507  0.0887  0.1268
22590SOL    HW179494   8.408  11.110   9.573  0.9291 -1.3397  0.1475
22590SOL    HW279495   8.414  11.209   9.687 -0.8949 -0.0287 -0.8433
22591SOL     OW79496   2.234   8.228   0.087  0.1195  0.1748  0.2143
22591SOL    HW179497   2.211   8.267   0.003 -0.5878  0.0741  0.3527
22591SOL    HW279498   2.182   8.277   0.152  2.0713  1.5274  0.8362
22592SOL     OW79499   3.719   1.015   4.175 -0.5539 -0.0430 -0.4540
22592SOL    HW179500   3.721   1.097   4.126  1.9208 -0.4939 -1.2912
22592SOL    HW279501   3.812   0.994   4.189 -1.1089 -0.6752  3.2523
22593SOL     OW79502   2.337  10.206   0.599 -0.0930  0.1870 -0.0800
22593SOL    HW179503   2.386  10.129   0.627 -2.3775 -1.9592 -1.6059
22593SOL    HW279504   2.253  10.172   0.569 -0.9857  3.2270 -1.4471
22594SOL     OW79505   2.237   0.489  11.535 -0.4222  0.5472  0.4766
22594SOL    HW179506   2.305   0.556  11.538 -0.7170  0.9233 -0.8317
22594SOL    HW279507   2.179   0.510  11.608  0.4224  0.6867  1.1252
22595SOL     OW79508   9.736   7.086   4.445  0.0545  0.4365  0.1517
22595SOL    HW179509   9.662   7.026   4.452  1.0264 -0.7070  1.0668
22595SOL    HW279510   9.700   7.164   4.404 -0.9307 -1.3817 -2.8168
22596SOL     OW79511   5.709   0.006  10.657 -0.3286  0.2107  0.0054
22596SOL    HW179512   5.724  -0.036  10.742 -0.6589  0.3376  0.1272
22596SOL    HW279513   5.651   0.079  10.677 -0.3516  0.2792 -0.3216
22597SOL     OW79514   1.737   7.595   5.315  0.3343 -0.2320 -0.1226
22597SOL    HW179515   1.741   7.599   5.411  1.0466 -0.8882 -0.1231
22597SOL    HW279516   1.643   7.602   5.296  0.2797  1.5299  0.5256
22598SOL     OW79517   8.589   6.631   7.583 -0.2897  0.1511 -0.0652
22598SOL    HW179518   8.594   6.541   7.616  1.4913  0.1980 -0.1348
22598SOL    HW279519   8.599   6.685   7.661 -2.5317  0.3496  0.1482
22599SOL     OW79520   5.855   8.785   8.319  0.1600 -0.4471  0.8325
22599SOL    HW179521   5.761   8.802   8.325  0.1036 -0.9028  1.4066
22599SOL    HW279522   5.866   8.735   8.238  0.0744  0.6044  0.1482
22600SOL     OW79523   2.227  10.827  11.038 -0.0756 -0.1334  0.6301
22600SOL    HW179524   2.203  10.746  11.084 -1.9122  1.2360  2.3041
22600SOL    HW279525   2.155  10.888  11.059  1.0689  1.8349 -0.8284
22601SOL     OW79526   2.285   9.459   8.124 -0.0208  0.2989 -0.2333
22601SOL    HW179527   2.313   9.393   8.060  0.0724  1.9362 -1.9764
22601SOL    HW279528   2.341   9.445   8.200  0.7224 -0.9308 -0.9762
22602SOL     OW79529   1.549   3.682   0.336  0.3997  0.7766  0.5439
22602SOL    HW179530   1.459   3.651   0.333  0.5061  0.4010  1.2196
22602SOL    HW279531   1.597   3.615   0.385  1.3047  0.3343 -0.8804
22603SOL     OW79532   0.805   7.946   1.394 -0.0681  0.4684  0.0183
22603SOL    HW179533   0.822   7.919   1.304  1.6744  1.7821 -0.0924
22603SOL    HW279534   0.835   7.872   1.447  1.8631  0.8945 -0.3921
22604SOL     OW79535   7.890   2.441   2.757 -0.0936  0.5748  0.1803
22604SOL    HW179536   7.937   2.462   2.676  0.6359 -0.1432  0.4071
22604SOL    HW279537   7.938   2.368   2.794 -0.6634  0.6400  1.0678
22605SOL     OW79538   6.293   2.275  10.539  0.1920  0.1983  0.8574
22605SOL    HW179539   6.318   2.365  10.518  0.1175 -0.2669 -1.4526
22605SOL    HW279540   6.376   2.229  10.551  0.2583  0.2425  0.5552
22606SOL     OW79541   1.427   0.286  10.378 -0.4705  0.4804  0.4640
22606SOL    HW179542   1.369   0.246  10.314  0.1079  1.4665 -0.7232
22606SOL    HW279543   1.475   0.212  10.417 -0.7844 -0.1365 -0.2955
22607SOL     OW79544   9.027  11.087  11.473 -0.4331 -0.7997 -0.0455
22607SOL    HW179545   9.022  10.991  11.470 -0.7720 -0.8131  0.7915
22607SOL    HW279546   9.092  11.109  11.406 -0.4583 -1.6060 -0.3464
22608SOL     OW79547   2.713   8.184   5.303  0.2570 -0.0322 -0.1979
22608SOL    HW179548   2.649   8.253   5.324  0.2233  0.0897 -0.6949
22608SOL    HW279549   2.758   8.216   5.224  0.2188 -0.6000 -0.4506
22609SOL     OW79550   3.870   9.958   0.080  0.1657  0.5974 -0.2013
22609SOL    HW179551   3.830   9.898   0.017  0.7062 -1.4778  1.3237
22609SOL    HW279552   3.833  10.044   0.058  0.0970 -0.0769 -3.0848
22610SOL     OW79553   5.170   2.908  11.473 -0.2295  0.0024 -0.4087
22610SOL    HW179554   5.194   2.843  11.407  0.2198 -0.2059 -0.0476
22610SOL    HW279555   5.075   2.917  11.465 -0.0644  0.7779 -1.8206
22611SOL     OW79556   9.594   7.041   9.254  0.4750  0.2784  0.2254
22611SOL    HW179557   9.680   7.078   9.273  0.8981 -1.5151  2.0377
22611SOL    HW279558   9.609   6.948   9.243 -1.3066 -0.1724  1.1803
22612SOL     OW79559   3.528   0.047  11.958 -0.3114  0.0135 -0.1741
22612SOL    HW179560   3.559   0.137  11.945  0.0433 -0.1395 -0.3934
22612SOL    HW279561   3.555   0.001  11.878 -0.1725 -0.3759  0.0963
22613SOL     OW79562   8.320   1.403   8.668 -0.2498 -0.3181  0.2545
22613SOL    HW179563   8.253   1.356   8.716  0.2914 -0.9801  0.3782
22613SOL    HW279564   8.327   1.356   8.585 -0.3673  0.1175 -0.0039
22614SOL     OW79565   2.361  11.707   9.932  0.2494  0.2201  0.1357
22614SOL    HW179566   2.303  11.735   9.861  0.9616  0.5816 -0.3176
22614SOL    HW279567   2.302  11.672   9.999 -0.5004  0.7856 -0.2171
22615SOL     OW79568  11.408   4.545   7.713 -0.2181 -0.1145  0.1775
22615SOL    HW179569  11.407   4.452   7.692 -0.4935  0.2982 -1.8472
22615SOL    HW279570  11.324   4.561   7.757  0.2156 -0.9483  1.3788
22616SOL     OW79571   9.688   4.425   2.047  0.1818 -0.3673 -0.6878
22616SOL    HW179572   9.638   4.433   1.966 -1.6290  2.4237  0.5613
22616SOL    HW279573   9.627   4.450   2.116  1.8476 -1.9690  1.5136
22617SOL     OW79574  10.208   2.939   5.533  0.3460  0.1751  0.4057
22617SOL    HW179575  10.236   3.028   5.553 -3.0963  1.2307  1.1148
22617SOL    HW279576  10.218   2.891   5.615  0.0644  0.5459  0.6598
22618SOL     OW79577   3.503   0.696   8.471  0.1269  0.4555 -0.4488
22618SOL    HW179578   3.413   0.691   8.438 -0.4131  1.8355  0.7267
22618SOL    HW279579   3.515   0.616   8.522 -0.0001 -0.3133 -1.5894
22619SOL     OW79580   3.225   3.473  11.906 -0.7765  0.2197  0.5655
22619SOL    HW179581   3.141   3.459  11.950 -0.7231 -0.9683  0.3295
22619SOL    HW279582   3.266   3.387  11.905 -0.2708  0.4558 -0.7777
22620SOL     OW79583   1.538   1.510   3.955 -0.1725  0.5023  0.3234
22620SOL    HW179584   1.522   1.480   4.044 -1.1267  1.6088  0.5425
22620SOL    HW279585   1.580   1.435   3.912 -1.5517 -0.7830  1.1315
22621SOL     OW79586   5.676   1.797   6.559  0.0072  0.0768 -0.1443
22621SOL    HW179587   5.683   1.705   6.532  0.1993 -0.0736  0.4218
22621SOL    HW279588   5.737   1.843   6.501 -0.4056 -0.0817 -0.7238
22622SOL     OW79589   0.815   3.821  10.954 -0.0648  0.5574  0.1944
22622SOL    HW179590   0.822   3.905  11.000 -2.2222  0.1889  1.3363
22622SOL    HW279591   0.782   3.760  11.020 -1.0101 -0.5633 -1.2568
22623SOL     OW79592   7.996   6.571   1.313 -0.0131  0.0812  0.0837
22623SOL    HW179593   7.979   6.549   1.221  1.2518  0.3083 -0.2263
22623SOL    HW279594   7.910   6.581   1.351 -0.5687 -0.1583 -1.0547
22624SOL     OW79595   7.387   7.441  11.473  0.6386  0.0251  0.3087
22624SOL    HW179596   7.482   7.440  11.485  0.5547 -0.8052  0.9423
22624SOL    HW279597   7.353   7.483  11.552  0.5932  2.7055 -1.0033
22625SOL     OW79598   6.235  11.633   7.720 -0.4676  0.1608 -0.1949
22625SOL    HW179599   6.195  11.720   7.727 -0.0928  0.3760 -0.6980
22625SOL    HW279600   6.329  11.649   7.728 -0.2430  0.0296 -2.1078
22626SOL     OW79601  10.209   5.432   4.520  0.1459 -0.9154  0.4693
22626SOL    HW179602  10.139   5.496   4.520  1.6161  0.8219 -1.3643
22626SOL    HW279603  10.273   5.466   4.457  3.1162 -1.8658  2.7251
22627SOL     OW79604  10.790  11.437   8.787  0.2802 -0.1653 -0.2701
22627SOL    HW179605  10.703  11.398   8.784 -0.4171  1.2868  0.3624
22627SOL    HW279606  10.843  11.374   8.837 -0.2177 -1.3491 -1.1866
22628SOL     OW79607   8.019  10.323   4.479 -0.7533  0.5249 -0.0880
22628SOL    HW179608   8.025  10.414   4.506  2.1798  0.0129  1.4445
22628SOL    HW279609   7.965  10.281   4.546  1.1473  0.4963  1.5315
22629SOL     OW79610   4.394   5.989   8.467  0.0271 -0.3848  0.2647
22629SOL    HW179611   4.483   5.966   8.493  0.0441  0.7983  1.3076
22629SOL    HW279612   4.402   6.015   8.375  0.9765  0.8025  0.6675
22630SOL     OW79613   0.569   7.189   0.522 -0.0548 -0.1194 -0.2551
22630SOL    HW179614   0.515   7.201   0.600 -1.5450  0.6790 -1.3463
22630SOL    HW279615   0.590   7.096   0.521 -0.5296 -0.2501  0.7767
22631SOL     OW79616   2.181   2.231   2.689 -0.0733  0.1434 -0.4251
22631SOL    HW179617   2.184   2.231   2.785  2.2950  1.2187 -0.4356
22631SOL    HW279618   2.271   2.249   2.662 -0.5394 -0.8211 -2.8860
22632SOL     OW79619   1.822   4.003  11.611 -0.9773 -0.7435 -0.1410
22632SOL    HW179620   1.823   4.041  11.523  0.7491  0.0760  0.2011
22632SOL    HW279621   1.765   4.062  11.661  1.6356  1.5645  0.3694
22633SOL     OW79622   5.760   5.352   4.852 -0.5403  0.3534  0.0078
22633SOL    HW179623   5.845   5.358   4.895  0.0300 -0.1633 -1.0289
22633SOL    HW279624   5.709   5.423   4.891  0.0066  0.0181  1.4024
22634SOL     OW79625   1.404   2.247   4.857  0.0178 -0.6426 -0.5116
22634SOL    HW179626   1.364   2.161   4.841  0.2918 -0.7926 -0.4194
22634SOL    HW279627   1.331   2.306   4.873 -0.1361 -1.3632  1.9279
22635SOL     OW79628   5.598   7.042   4.965 -0.1421  0.1070  0.3328
22635SOL    HW179629   5.505   7.022   4.978 -0.0005 -0.4641  0.5086
22635SOL    HW279630   5.598   7.119   4.909 -0.7381  0.9366  1.4233
22636SOL     OW79631   4.982   6.542  11.742 -0.1207 -0.3986 -0.4111
22636SOL    HW179632   5.064   6.582  11.712  0.1751  0.5301  1.4363
22636SOL    HW279633   4.933   6.615  11.781  0.4783 -1.6884  3.1907
22637SOL     OW79634   1.372  10.304   5.982  0.0502  0.5480  0.0395
22637SOL    HW179635   1.384  10.303   6.077  0.3846  0.6372 -0.0004
22637SOL    HW279636   1.326  10.386   5.964  1.3632  1.2850 -0.0348
22638SOL     OW79637   6.223   4.168   0.372 -0.8642 -0.1398 -0.0656
22638SOL    HW179638   6.129   4.157   0.359 -0.7907 -1.6411  0.4923
22638SOL    HW279639   6.264   4.098   0.321  0.0038  0.8880 -0.8294
22639SOL     OW79640   6.706   4.041   3.292 -0.3754  0.0318  0.4625
22639SOL    HW179641   6.713   4.052   3.198 -1.5353 -1.7233  0.1082
22639SOL    HW279642   6.754   4.114   3.329  1.4683 -0.1072 -1.4800
22640SOL     OW79643   6.988  11.518   6.961  0.4202  0.1150  0.2084
22640SOL    HW179644   7.007  11.612   6.962  0.5386  0.0919 -0.0109
22640SOL    HW279645   6.914  11.509   7.022  1.0525  0.2119  1.0114
22641SOL     OW79646   7.090   1.400   7.314  0.0030  0.7273  0.4130
22641SOL    HW179647   7.039   1.477   7.288 -1.4764  0.5923  2.6512
22641SOL    HW279648   7.144   1.380   7.238 -1.0934  2.7248 -0.9703
22642SOL     OW79649   6.152   4.986   0.545  0.2902 -0.3038  0.1793
22642SOL    HW179650   6.203   4.921   0.497 -0.9680 -0.1137 -1.5194
22642SOL    HW279651   6.072   4.939   0.570  0.9756 -0.4482  2.3241
22643SOL     OW79652   4.992   2.579   6.752 -0.6384 -0.0343 -0.1823
22643SOL    HW179653   5.025   2.602   6.665 -1.2271  0.1215 -0.3673
22643SOL    HW279654   5.027   2.647   6.809 -0.4511  0.0008 -0.3360
22644SOL     OW79655   3.479   2.164   9.748  0.0682 -0.2977  0.3323
22644SOL    HW179656   3.395   2.166   9.701 -0.1962 -0.9928  0.7640
22644SOL    HW279657   3.544   2.189   9.682 -0.4559  0.0945 -0.0458
22645SOL     OW79658   4.596  10.310   6.734 -0.0387  0.0565 -0.0549
22645SOL    HW179659   4.603  10.234   6.792  0.3317  0.0536 -0.1013
22645SOL    HW279660   4.566  10.274   6.651 -0.7874  0.0910  0.1987
22646SOL     OW79661   7.847   6.853   9.061  0.4440  0.1498 -0.0566
22646SOL    HW179662   7.813   6.898   8.983 -1.5244 -0.0219  0.6310
22646SOL    HW279663   7.924   6.806   9.030  1.3139  2.2373 -1.2847
22647SOL     OW79664   8.340   2.713   2.268 -0.5706 -0.0195  0.1141
22647SOL    HW179665   8.423   2.724   2.315 -1.5246  0.5839  1.7365
22647SOL    HW279666   8.326   2.619   2.265 -0.7291 -0.0681  1.5440
22648SOL     OW79667   6.476   3.507   2.532 -0.0821 -0.3184  0.0343
22648SOL    HW179668   6.516   3.487   2.448 -1.8723  1.0484 -1.2267
22648SOL    HW279669   6.504   3.597   2.551 -1.0963  0.0209 -0.0097
22649SOL     OW79670   3.674  11.498   7.012  0.1457 -0.1096  0.2687
22649SOL    HW179671   3.767  11.483   6.994  0.0081  0.5053 -1.0731
22649SOL    HW279672   3.630  11.472   6.931 -0.9257 -0.9035  1.0632
22650SOL     OW79673   8.042   3.348   2.319 -0.1404 -0.4532 -0.7528
22650SOL    HW179674   8.133   3.323   2.300  0.0891 -1.0539  0.9959
22650SOL    HW279675   8.048   3.434   2.360 -0.3096 -0.6969 -0.2078
22651SOL     OW79676   7.844   4.296  10.542 -0.4370 -0.2737 -0.5957
22651SOL    HW179677   7.922   4.333  10.584 -1.5193 -0.4475  1.6906
22651SOL    HW279678   7.780   4.289  10.612 -1.7869 -2.2483 -1.9309
22652SOL     OW79679   1.980   7.663   8.101  0.3909 -0.0881  0.2115
22652SOL    HW179680   2.038   7.733   8.070  0.6781  0.1212  1.1794
22652SOL    HW279681   1.907   7.709   8.143  0.2022 -0.3598  0.1789
22653SOL     OW79682   2.405   3.705   5.879  0.2365  0.2348 -0.7308
22653SOL    HW179683   2.440   3.727   5.793 -0.0364  2.6931 -0.3115
22653SOL    HW279684   2.329   3.651   5.861  0.9874 -0.4774 -1.9348
22654SOL     OW79685   4.173   5.762   2.395  0.4159 -0.0407  0.0256
22654SOL    HW179686   4.234   5.747   2.467  0.8679  0.2794 -0.2910
22654SOL    HW279687   4.228   5.775   2.318 -0.0387  0.5212 -0.2092
22655SOL     OW79688   6.608  10.762   3.274  0.4561 -0.1901 -0.3355
22655SOL    HW179689   6.616  10.709   3.354  1.0542  1.1389  0.5310
22655SOL    HW279690   6.666  10.719   3.211  1.3555 -0.2847  0.5264
22656SOL     OW79691   3.528   6.038   1.928 -0.1242  0.2243  0.1083
22656SOL    HW179692   3.447   6.025   1.977 -1.7237  1.5160 -2.0324
22656SOL    HW279693   3.514   5.993   1.845  2.4418 -1.7522  0.6244
22657SOL     OW79694   1.635   5.334   9.751  0.2730  0.2219  0.0128
22657SOL    HW179695   1.584   5.253   9.760 -0.2730  0.4564 -0.8738
22657SOL    HW279696   1.710   5.308   9.698 -0.2328  0.4310 -0.8148
22658SOL     OW79697   4.397   0.886   9.221  0.5575  0.3021 -0.5550
22658SOL    HW179698   4.412   0.819   9.154  0.0598  0.1794 -0.5481
22658SOL    HW279699   4.413   0.841   9.304 -2.2715 -0.5887 -0.3764
22659SOL     OW79700   1.172   0.136   0.681 -0.0053  0.6693 -0.7700
22659SOL    HW179701   1.088   0.098   0.657  0.5045  0.0236 -1.5852
22659SOL    HW279702   1.149   0.216   0.729 -1.0841 -0.3560  0.5026
22660SOL     OW79703   2.299   1.101   6.301  0.2766  0.6499  0.9772
22660SOL    HW179704   2.279   1.015   6.266 -2.4474  0.9619  1.5110
22660SOL    HW279705   2.325   1.085   6.392  0.8909  0.3180  0.7425
22661SOL     OW79706   9.310   6.655   9.718 -0.5814  0.1831  0.4473
22661SOL    HW179707   9.229   6.610   9.696 -0.7324  0.0603  1.2248
22661SOL    HW279708   9.312   6.657   9.814 -0.4226  1.5385  0.4390
22662SOL     OW79709   1.763   9.036   9.269  0.0791 -0.2454  0.3304
22662SOL    HW179710   1.757   9.111   9.209 -2.8951 -0.9812 -0.4121
22662SOL    HW279711   1.830   9.063   9.333  0.7392  2.0719 -1.2026
22663SOL     OW79712   9.467  11.350   0.413  0.7304  0.1019 -0.2497
22663SOL    HW179713   9.519  11.398   0.477  0.8798  0.6780 -0.7992
22663SOL    HW279714   9.449  11.413   0.344  1.1986 -0.7191 -1.1392
22664SOL     OW79715   0.242   7.507   3.050  0.3001 -0.0325 -0.1028
22664SOL    HW179716   0.286   7.463   2.977 -0.3968  0.4516 -0.8264
22664SOL    HW279717   0.311   7.558   3.092  0.3480  1.2259 -1.6097
22665SOL     OW79718   6.210   6.041   3.605  0.0003  0.5664 -0.0680
22665SOL    HW179719   6.181   6.074   3.520  2.4983 -0.3032 -1.3586
22665SOL    HW279720   6.182   5.949   3.606 -2.3580  1.1940  1.2972
22666SOL     OW79721   8.558   0.533   1.800  0.0567  0.2712 -0.2256
22666SOL    HW179722   8.473   0.555   1.762 -1.5705 -2.5101  1.4466
22666SOL    HW279723   8.588   0.457   1.751 -0.6855 -1.5500  1.9519
22667SOL     OW79724   0.738   7.934   5.083  0.6879 -0.0362  0.2684
22667SOL    HW179725   0.799   7.916   5.011  0.2347 -0.5825  0.0153
22667SOL    HW279726   0.714   7.848   5.116  0.7349  0.2092  0.9490
22668SOL     OW79727   3.127   1.134   3.456  0.1710 -0.1397  0.4312
22668SOL    HW179728   3.128   1.088   3.372  1.0245 -1.6239  1.2001
22668SOL    HW279729   3.217   1.167   3.466  0.2694 -0.5821  1.0623
22669SOL     OW79730   3.108   1.047   5.968 -0.1570  0.1686  0.0500
22669SOL    HW179731   3.043   1.100   6.014 -0.6948 -0.5523  0.1473
22669SOL    HW279732   3.148   0.994   6.038  0.8402  0.8943  0.0581
22670SOL     OW79733   8.179   4.651   3.402 -0.0116  0.2137  0.1414
22670SOL    HW179734   8.165   4.641   3.307 -0.2244 -0.9212  0.2700
22670SOL    HW279735   8.140   4.735   3.423 -0.0957  0.4170 -0.7627
22671SOL     OW79736   3.926   3.047   9.440 -0.0096  0.3624  0.0753
22671SOL    HW179737   3.922   3.137   9.407 -0.9327  0.5625  0.6806
22671SOL    HW279738   4.006   3.043   9.491  1.6317 -0.0371 -2.3468
22672SOL     OW79739   9.980  10.388   8.846 -0.2310  0.5005  0.0607
22672SOL    HW179740  10.000  10.330   8.772 -2.5578  0.5855 -0.7048
22672SOL    HW279741   9.987  10.331   8.923  2.6673  0.5090 -0.0666
22673SOL     OW79742   1.372   6.714   5.898 -0.0697 -0.1930 -0.0952
22673SOL    HW179743   1.403   6.636   5.853 -1.4802  0.1025 -1.6784
22673SOL    HW279744   1.430   6.723   5.974  2.3891 -0.7465 -1.7952
22674SOL     OW79745   3.565   7.598   2.411 -0.2776 -0.7645  0.0002
22674SOL    HW179746   3.577   7.674   2.355 -0.5996 -0.3080  0.5349
22674SOL    HW279747   3.652   7.558   2.418  0.2425  0.4609  0.9733
22675SOL     OW79748   2.198  11.057   3.122  0.6141 -0.4385  0.3637
22675SOL    HW179749   2.287  11.027   3.138  0.4856 -0.3428  1.2881
22675SOL    HW279750   2.143  10.983   3.146  0.4575 -0.7030 -0.7562
22676SOL     OW79751   9.633   4.847   2.838 -0.1998 -0.8534  0.5942
22676SOL    HW179752   9.600   4.862   2.750 -1.0197 -0.7361  0.9143
22676SOL    HW279753   9.698   4.777   2.828  0.5392 -0.0724 -0.2637
22677SOL     OW79754   4.774   1.576   9.749  0.3250  0.4119 -0.1364
22677SOL    HW179755   4.812   1.524   9.819  1.4648  0.5450 -0.6495
22677SOL    HW279756   4.835   1.569   9.676  0.1754  1.8878 -0.4508
22678SOL     OW79757   7.680   6.293   3.438  0.0387  0.4881  0.2207
22678SOL    HW179758   7.747   6.303   3.505  0.4979  0.9180 -0.2883
22678SOL    HW279759   7.729   6.290   3.355 -0.6264  2.9712 -0.3708
22679SOL     OW79760   4.610   5.586   4.715  0.1236 -0.0643 -0.2498
22679SOL    HW179761   4.573   5.575   4.803  0.5963  0.2931 -0.0018
22679SOL    HW279762   4.537   5.615   4.661 -0.1740 -0.3056  0.0221
22680SOL     OW79763   9.409   8.123  11.829  0.0173 -0.1043  0.1951
22680SOL    HW179764   9.327   8.089  11.793  0.5428 -0.4023 -0.7371
22680SOL    HW279765   9.391   8.216  11.844 -0.3156 -0.0472 -0.5237
22681SOL     OW79766   7.893   6.377   5.617 -0.3909  0.0462  0.1340
22681SOL    HW179767   7.935   6.322   5.551  0.4266  1.3537 -0.4701
22681SOL    HW279768   7.945   6.362   5.697 -0.4446 -0.3699  0.0970
22682SOL     OW79769   7.378   5.721   4.781  0.0407  0.2262  0.0113
22682SOL    HW179770   7.452   5.665   4.802 -0.5009  0.2923  2.4229
22682SOL    HW279771   7.319   5.665   4.730 -0.3006 -1.3557  2.0058
22683SOL     OW79772   3.362   8.860   3.695  1.0571  0.0257  0.3296
22683SOL    HW179773   3.386   8.845   3.787 -0.5959  1.0131  0.9673
22683SOL    HW279774   3.442   8.841   3.646  1.9674 -0.5682  1.9620
22684SOL     OW79775   3.576   7.540   6.362  0.5688  0.0527 -0.6357
22684SOL    HW179776   3.590   7.578   6.448  0.5206  0.5762 -0.8523
22684SOL    HW279777   3.488   7.503   6.365  0.4933  0.2432 -0.5251
22685SOL     OW79778   4.922  11.752   9.997 -0.3267  0.0472 -0.0321
22685SOL    HW179779   4.883  11.832   9.960  1.2753  1.0420  0.2998
22685SOL    HW279780   4.848  11.701  10.029 -1.4994  0.7202 -1.5725
22686SOL     OW79781   5.099   1.732  10.381  0.3336  0.1455  0.2802
22686SOL    HW179782   5.084   1.826  10.394  1.2160  0.3590 -0.1995
22686SOL    HW279783   5.092   1.719  10.286  1.8977  0.0386  0.1640
22687SOL     OW79784   3.251   9.248   4.118  0.2518 -0.3906 -0.2126
22687SOL    HW179785   3.287   9.329   4.081  0.5460 -0.0527  0.7841
22687SOL    HW279786   3.298   9.236   4.200 -0.2898 -1.2016 -0.0090
22688SOL     OW79787   4.909   6.463   2.869 -0.5470  0.0748 -0.4791
22688SOL    HW179788   4.890   6.371   2.848 -0.7149 -0.0116  0.0523
22688SOL    HW279789   4.999   6.462   2.900 -0.7795 -0.0162  0.1958
22689SOL     OW79790   9.145   0.358   0.542  0.0041  0.6472  0.0499
22689SOL    HW179791   9.147   0.453   0.545 -0.2906  0.6413  0.4563
22689SOL    HW279792   9.234   0.331   0.565 -0.4342  0.7758  2.0447
22690SOL     OW79793   2.206   8.161   0.992 -0.4882  0.1423  0.1722
22690SOL    HW179794   2.128   8.112   1.018  0.7136 -1.4519  0.9290
22690SOL    HW279795   2.276   8.124   1.045  1.0223  0.6863 -1.3670
22691SOL     OW79796   9.693   4.259   6.660  0.5531  0.4486  0.1416
22691SOL    HW179797   9.732   4.340   6.625  2.7270 -0.1717  0.9770
22691SOL    HW279798   9.736   4.189   6.612  0.7295 -0.2907  1.3444
22692SOL     OW79799   8.260   1.637   8.804  0.4503  0.2740  0.2998
22692SOL    HW179800   8.335   1.695   8.820 -0.1353  1.2810 -0.4519
22692SOL    HW279801   8.269   1.612   8.712 -0.1069  0.3740  0.2134
22693SOL     OW79802   7.737   2.056   7.784  0.3708  0.1666  0.0076
22693SOL    HW179803   7.655   2.012   7.809  0.9745 -1.1844 -0.3349
22693SOL    HW279804   7.727   2.075   7.691  0.6854 -0.5683 -0.1834
22694SOL     OW79805  10.623   1.632   7.413  0.5097  0.5464  0.0153
22694SOL    HW179806  10.669   1.690   7.473 -1.0287  1.8821 -0.0234
22694SOL    HW279807  10.639   1.544   7.448  0.9151  1.1790  1.4884
22695SOL     OW79808   8.177   2.021   0.327 -0.2547 -0.6571  0.4576
22695SOL    HW179809   8.126   1.947   0.357 -0.7111 -1.1363 -1.3511
22695SOL    HW279810   8.129   2.098   0.356  0.0034 -1.0561  1.9861
22696SOL     OW79811  11.708   0.192   7.767  0.2191  0.2044  0.0413
22696SOL    HW179812  11.668   0.276   7.742 -2.1732 -1.1952 -1.1497
22696SOL    HW279813  11.644   0.150   7.824  0.8447 -1.3263 -0.3368
22697SOL     OW79814   1.852   2.887   2.660  0.5250 -0.2029  0.2852
22697SOL    HW179815   1.943   2.880   2.631  0.7567 -0.4056  1.0375
22697SOL    HW279816   1.854   2.864   2.753 -0.4515 -1.2785  0.0742
22698SOL     OW79817   8.081   2.908   0.892 -0.4005 -0.1223  0.2367
22698SOL    HW179818   8.017   2.940   0.828  1.5209 -0.1843 -1.8212
22698SOL    HW279819   8.103   2.820   0.862  0.9517  0.0564  0.6455
22699SOL     OW79820   4.679   9.121   8.303  0.1004  0.3579  0.2432
22699SOL    HW179821   4.727   9.044   8.271  1.3193  1.8874 -1.8838
22699SOL    HW279822   4.746   9.178   8.339 -0.0028  2.4333 -2.5455
22700SOL     OW79823   3.550   8.841   5.985 -0.2240 -0.2576  0.3406
22700SOL    HW179824   3.554   8.933   6.012  1.0497  0.1715 -1.1863
22700SOL    HW279825   3.566   8.792   6.066  0.8036  0.9003  0.8671
22701SOL     OW79826   4.788   9.086   6.118  0.1599 -0.1162  0.2724
22701SOL    HW179827   4.876   9.124   6.121 -0.0742  0.5005 -0.3866
22701SOL    HW279828   4.729   9.161   6.122 -0.3451 -0.5451  0.9856
22702SOL     OW79829   3.537   1.456   3.009 -0.1960  0.3013  0.4205
22702SOL    HW179830   3.560   1.401   2.934  0.0185 -0.7029  1.2019
22702SOL    HW279831   3.480   1.400   3.063 -0.6609  1.1433  0.8154
22703SOL     OW79832   0.953   4.216   1.198  0.1675 -0.2987  0.5302
22703SOL    HW179833   1.022   4.153   1.180  0.3462  0.1869 -0.5039
22703SOL    HW279834   0.876   4.180   1.155 -0.3137 -0.9474  1.8541
22704SOL     OW79835   4.600  11.533   1.806 -0.0101  0.4619  0.5301
22704SOL    HW179836   4.662  11.460   1.818 -1.1370 -1.3736 -3.3416
22704SOL    HW279837   4.608  11.584   1.887  2.6881 -2.5423  2.4136
22705SOL     OW79838   6.518   9.963  10.464 -0.3378  0.2852 -0.2047
22705SOL    HW179839   6.468   9.966  10.382  0.5663  0.6546 -0.7588
22705SOL    HW279840   6.605   9.932  10.438 -0.6023 -1.5760  0.9306
22706SOL     OW79841  10.786   6.513   1.696 -0.2579 -0.2773  0.6802
22706SOL    HW179842  10.803   6.538   1.605 -0.3382  2.8815  1.4179
22706SOL    HW279843  10.831   6.429   1.706  1.8095  0.4247 -1.6382
22707SOL     OW79844   7.465   7.037   9.332  0.1610 -0.2665 -0.1306
22707SOL    HW179845   7.546   7.040   9.384  0.0302  0.2273  0.0565
22707SOL    HW279846   7.445   6.944   9.323  0.6538 -0.3860 -0.0271
22708SOL     OW79847   9.942   4.591   2.187 -0.1423 -0.2109 -0.3874
22708SOL    HW179848   9.889   4.646   2.128  1.0075 -0.1075 -1.3427
22708SOL    HW279849   9.878   4.557   2.250 -1.0449  1.4818 -0.3128
22709SOL     OW79850  11.318   0.639   8.321 -0.6670 -0.0227 -0.5746
22709SOL    HW179851  11.265   0.567   8.354  0.7854 -0.8777 -0.0027
22709SOL    HW279852  11.360   0.604   8.243  2.6423 -1.0820  1.4706
22710SOL     OW79853   5.073   8.669   9.983 -0.0989 -0.1574  0.8113
22710SOL    HW179854   5.087   8.644   9.891 -2.8516  1.7580 -0.2548
22710SOL    HW279855   5.122   8.750   9.994 -0.1458 -0.1392  0.8896
22711SOL     OW79856   7.373  10.101  11.107 -0.1325 -0.2212  0.0327
22711SOL    HW179857   7.400  10.098  11.016  1.6826  1.9019  0.4142
22711SOL    HW279858   7.282  10.131  11.105 -0.4257 -1.1462 -1.0798
22712SOL     OW79859   5.436   0.443   2.745 -0.4858  0.2121 -0.3144
22712SOL    HW179860   5.387   0.520   2.775  0.5000  1.3657 -1.5048
22712SOL    HW279861   5.416   0.437   2.651 -1.6594 -1.8780  0.0116
22713SOL     OW79862   2.523   1.537   9.867  0.7761 -0.7709  0.0421
22713SOL    HW179863   2.483   1.550   9.781  4.6744  1.0636 -1.7677
22713SOL    HW279864   2.549   1.625   9.895  0.7675 -1.4728  2.5573
22714SOL     OW79865   5.958   9.796   4.801  0.2109 -0.0732 -0.0787
22714SOL    HW179866   6.015   9.871   4.783 -0.3052 -0.0655 -1.8012
22714SOL    HW279867   5.989   9.727   4.743 -0.9155 -0.3734 -0.3499
22715SOL     OW79868   4.754   1.412  11.360 -0.0444  0.3360  0.8504
22715SOL    HW179869   4.675   1.459  11.334  0.4324  1.9581  2.1970
22715SOL    HW279870   4.817   1.432  11.291  0.3807  2.3747  1.7566
22716SOL     OW79871   4.601   4.680  10.885 -0.1929  0.2418 -0.0072
22716SOL    HW179872   4.651   4.615  10.835 -0.5189 -0.5724  0.6952
22716SOL    HW279873   4.629   4.764  10.849  0.0969 -0.2884 -1.0724
22717SOL     OW79874   4.525   8.806   0.875  0.0796 -0.2663  0.5718
22717SOL    HW179875   4.486   8.824   0.960 -0.7001  0.8950 -0.0077
22717SOL    HW279876   4.609   8.851   0.877  0.7773 -1.5388  1.2744
22718SOL     OW79877   8.839   7.846  10.240 -0.1514 -0.4459 -0.2608
22718SOL    HW179878   8.839   7.863  10.334  0.6160  1.1305 -0.5091
22718SOL    HW279879   8.836   7.933  10.200 -3.8753 -1.0755 -1.7565
22719SOL     OW79880   2.439   1.108   1.903  0.4612 -0.3881 -0.0857
22719SOL    HW179881   2.387   1.037   1.866 -0.1984  0.0552 -0.0306
22719SOL    HW279882   2.512   1.119   1.842 -0.0503 -0.3544 -0.6994
22720SOL     OW79883   7.887   4.285   3.865  0.2242  0.4354  0.3227
22720SOL    HW179884   7.940   4.365   3.856  1.5603 -0.5575 -1.5494
22720SOL    HW279885   7.951   4.214   3.858 -1.0142 -0.8205  1.3275
22721SOL     OW79886   3.887   9.490   6.822 -0.1869  0.6692  0.0044
22721SOL    HW179887   3.836   9.427   6.771 -1.4014  0.9696  0.8001
22721SOL    HW279888   3.886   9.455   6.912  0.6100  0.9308  0.1245
22722SOL     OW79889   9.351   2.603   6.745 -0.2140 -0.1859  0.6551
22722SOL    HW179890   9.357   2.509   6.729  2.0061  0.1588 -0.9855
22722SOL    HW279891   9.284   2.634   6.684 -0.4095 -0.5794  0.6638
22723SOL     OW79892  11.260  11.193   7.410 -0.0914  0.2073 -0.1151
22723SOL    HW179893  11.172  11.228   7.399 -0.1791 -0.1443 -0.5404
22723SOL    HW279894  11.307  11.261   7.459 -0.8970 -0.0587  1.0864
22724SOL     OW79895   9.979   7.776   5.296  0.3057 -0.0166 -0.3147
22724SOL    HW179896  10.029   7.722   5.357  4.1165  1.6973 -1.6139
22724SOL    HW279897   9.916   7.822   5.352  2.3715  0.1272  2.1073
22725SOL     OW79898   1.156   0.635   1.422 -0.3681 -0.0122  0.1584
22725SOL    HW179899   1.178   0.696   1.352 -0.9057 -0.0576 -0.0521
22725SOL    HW279900   1.241   0.609   1.459  0.0015 -0.8205 -1.1840
22726SOL     OW79901   6.786   8.017   0.102  0.2513  0.6122  0.7058
22726SOL    HW179902   6.694   8.013   0.128 -0.0450 -0.0587 -0.3852
22726SOL    HW279903   6.821   8.093   0.149 -1.1583  1.5989  0.2370
22727SOL     OW79904   9.242   7.265   7.716  0.9440  0.2722  0.1327
22727SOL    HW179905   9.203   7.294   7.633  1.5130 -1.2986 -0.7315
22727SOL    HW279906   9.335   7.257   7.697  1.1679  0.4400  1.1081
22728SOL     OW79907   3.049   0.631   0.646 -0.4771  0.1616 -0.0358
22728SOL    HW179908   3.029   0.618   0.738  0.7636  0.1881  0.2516
22728SOL    HW279909   3.132   0.583   0.632  0.7777  2.3446 -0.4851
22729SOL     OW79910   3.071   2.949   3.427 -0.0832 -0.3015  0.1916
22729SOL    HW179911   3.120   3.018   3.381 -0.7476 -0.5452 -0.9072
22729SOL    HW279912   3.125   2.871   3.416  0.6626  0.0071  1.4239
22730SOL     OW79913   9.886   0.040   7.956 -0.0136  0.1743 -0.3945
22730SOL    HW179914   9.841   0.004   8.032  1.1349 -0.4697 -0.0039
22730SOL    HW279915   9.887   0.135   7.972  0.1730  0.0486  0.3658
22731SOL     OW79916   7.269   6.490   4.686 -0.0360  0.1795  0.0039
22731SOL    HW179917   7.255   6.402   4.720 -0.1028 -0.1789 -0.9291
22731SOL    HW279918   7.332   6.479   4.614 -1.1476  0.6730 -1.0858
22732SOL     OW79919   5.689   5.401   6.418  0.1206 -0.1675  0.3694
22732SOL    HW179920   5.609   5.453   6.417 -0.7095 -1.4155 -0.4839
22732SOL    HW279921   5.713   5.395   6.511 -0.5730  0.4963  0.5994
22733SOL     OW79922  10.504   1.924   6.283 -0.3981  0.0227  0.0511
22733SOL    HW179923  10.523   2.014   6.308  0.7748 -0.5407  1.3119
22733SOL    HW279924  10.439   1.894   6.346 -0.2209 -0.2542  0.1045
22734SOL     OW79925   3.319   7.975   2.362 -0.8067 -0.4425  0.2499
22734SOL    HW179926   3.322   7.928   2.279 -1.8264 -0.8488  0.4252
22734SOL    HW279927   3.267   8.053   2.343 -0.9751 -0.4969  0.4810
22735SOL     OW79928   0.761   7.454   8.419 -0.1381 -0.1597 -0.6153
22735SOL    HW179929   0.845   7.464   8.463 -0.4769 -0.4822  0.1269
22735SOL    HW279930   0.771   7.501   8.337  1.0094 -0.8004 -0.8666
22736SOL     OW79931   4.884   1.544   8.616  0.4366  0.0974  0.7562
22736SOL    HW179932   4.904   1.451   8.610 -0.7047 -0.1393  0.3437
22736SOL    HW279933   4.803   1.554   8.566  1.4845  1.6139 -0.7440
22737SOL     OW79934   1.217   2.380   5.118  0.3071  0.6130  0.6453
22737SOL    HW179935   1.313   2.380   5.125  0.4099 -0.1309 -0.6472
22737SOL    HW279936   1.200   2.398   5.026 -0.7151 -2.4888  0.1435
22738SOL     OW79937   6.469   6.657   6.808 -0.3079 -0.2431  0.4441
22738SOL    HW179938   6.394   6.603   6.832 -1.4754  0.4953 -1.2957
22738SOL    HW279939   6.455   6.678   6.716  2.1170 -0.1602  0.0293
22739SOL     OW79940   7.370  11.881   1.436 -0.1585  0.3182  0.2862
22739SOL    HW179941   7.383  11.791   1.404 -0.2300  0.5244 -0.3256
22739SOL    HW279942   7.277  11.899   1.418 -0.2098  0.4212  0.6508
22740SOL     OW79943   0.823   6.663  11.164  0.3770 -0.2761 -0.6103
22740SOL    HW179944   0.844   6.708  11.245 -0.1655  0.1784 -0.7203
22740SOL    HW279945   0.809   6.572  11.190  0.8364 -0.2601 -0.2944
22741SOL     OW79946   4.264   9.522   4.018 -0.4041 -0.4783 -0.6905
22741SOL    HW179947   4.345   9.513   4.069 -0.7519 -1.1126 -0.2293
22741SOL    HW279948   4.294   9.532   3.927  0.2485  1.4763 -0.2977
22742SOL     OW79949   8.554   7.958   0.020 -0.3384 -0.2129 -0.2951
22742SOL    HW179950   8.579   8.050   0.025 -2.5336  0.5120 -1.1412
22742SOL    HW279951   8.490   7.947   0.091 -0.0689 -1.1171 -0.1714
22743SOL     OW79952   4.285   8.604   7.763 -0.3490  0.4877  0.3753
22743SOL    HW179953   4.240   8.620   7.845 -0.9722  0.1266  0.1121
22743SOL    HW279954   4.366   8.558   7.787 -0.6993  0.0657  0.7579
22744SOL     OW79955   9.099   7.939   6.891 -0.2682 -0.1315 -0.2652
22744SOL    HW179956   9.079   8.032   6.895 -1.5298 -0.3772 -0.2699
22744SOL    HW279957   9.191   7.934   6.865 -0.0336  1.1112  0.2848
22745SOL     OW79958   0.249  11.379  10.102 -0.0983 -0.3908  0.9156
22745SOL    HW179959   0.266  11.472  10.082 -0.7307 -0.5035 -0.1672
22745SOL    HW279960   0.280  11.369  10.193  0.9829  0.6140  0.6871
22746SOL     OW79961  11.821   5.142   1.684  0.5682 -0.2850 -0.7212
22746SOL    HW179962  11.859   5.092   1.612 -2.7325 -0.7671 -2.3287
22746SOL    HW279963  11.772   5.078   1.735  0.4355  0.5346  0.2136
22747SOL     OW79964   3.428   1.365   6.455  0.3559  0.5988 -0.1534
22747SOL    HW179965   3.342   1.351   6.495 -1.2060  1.8985 -2.7886
22747SOL    HW279966   3.477   1.285   6.474 -0.9594  0.3053  2.4350
22748SOL     OW79967   7.020   5.121   6.167  0.3730  0.0209 -0.5640
22748SOL    HW179968   6.963   5.131   6.091  0.4156  0.1038 -0.5851
22748SOL    HW279969   7.051   5.030   6.161 -1.6366 -0.8138  0.7779
22749SOL     OW79970   9.298   8.501   7.555 -0.0177 -0.2497  0.1678
22749SOL    HW179971   9.378   8.476   7.601 -0.1491  0.8567  1.0306
22749SOL    HW279972   9.320   8.584   7.513 -0.1352 -0.8754 -1.1834
22750SOL     OW79973   8.594   7.183   3.796  0.0446 -0.3488  0.7558
22750SOL    HW179974   8.545   7.128   3.734 -0.7622 -1.5580  2.3996
22750SOL    HW279975   8.633   7.122   3.858 -0.9281  0.8849  2.6929
22751SOL     OW79976   2.274   0.446   6.473  0.1577 -0.1628  0.0061
22751SOL    HW179977   2.253   0.536   6.446 -0.1294  0.0856  1.0104
22751SOL    HW279978   2.316   0.407   6.397 -1.0492  0.3524 -0.9521
22752SOL     OW79979   8.535   7.273  11.284 -0.4867  0.1780 -0.2285
22752SOL    HW179980   8.596   7.346  11.271 -0.9780  0.1566 -3.4777
22752SOL    HW279981   8.587   7.208  11.332  1.8292  0.5170 -2.0623
22753SOL     OW79982   6.307   8.283   4.249  0.0080  0.6230  0.1480
22753SOL    HW179983   6.325   8.247   4.162 -0.4210 -0.9693  0.6822
22753SOL    HW279984   6.290   8.206   4.304 -0.8807  1.6556  1.3809
22754SOL     OW79985   5.235   7.528   0.627  0.0130  0.0836 -0.0035
22754SOL    HW179986   5.158   7.531   0.683 -0.2062  0.7399 -0.3279
22754SOL    HW279987   5.299   7.584   0.670  0.4987 -0.8286  0.5120
22755SOL     OW79988   2.665   5.685   2.732  0.5664  0.7362 -0.1800
22755SOL    HW179989   2.584   5.726   2.763 -0.0169 -0.5037 -0.0144
22755SOL    HW279990   2.642   5.651   2.645  1.2530  1.3556 -0.6199
22756SOL     OW79991   5.748   0.220   5.101 -0.2062  0.2731  0.1531
22756SOL    HW179992   5.719   0.248   5.188  0.8398  1.3295  0.1849
22756SOL    HW279993   5.667   0.214   5.050 -0.8122 -0.1488  1.1355
22757SOL     OW79994  10.127   6.166   7.642  0.5599 -0.1322 -0.1405
22757SOL    HW179995  10.070   6.240   7.666 -0.1504 -0.3883 -0.9921
22757SOL    HW279996  10.210   6.207   7.618  0.1576  0.4058 -0.6479
22758SOL     OW79997  11.106   0.179   6.475 -0.1745 -0.7219 -0.0501
22758SOL    HW179998  11.046   0.131   6.532 -0.9040 -1.7698 -1.6325
22758SOL    HW279999  11.125   0.118   6.404  0.5925  0.5884 -1.0009
22759SOL     OW80000  11.499   1.852   8.168  0.2842 -0.7547 -0.4146
22759SOL    HW180001  11.477   1.759   8.171 -0.5700 -0.5551  0.6755
22759SOL    HW280002  11.464   1.886   8.251 -0.2903  0.7103 -1.2302
22760SOL     OW80003   6.851   5.888   5.485 -0.7923 -0.2823  0.1052
22760SOL    HW180004   6.826   5.810   5.435 -0.7822 -0.1771 -0.0676
22760SOL    HW280005   6.769   5.922   5.520 -0.7916 -0.3931  0.2127
22761SOL     OW80006   3.200   3.338  11.561  0.4371 -0.0135  0.4654
22761SOL    HW180007   3.157   3.268  11.512  0.8786 -1.5165  2.1307
22761SOL    HW280008   3.213   3.408  11.497 -0.0880 -1.4100 -1.2361
22762SOL     OW80009   2.935   3.810   9.968  0.0336 -0.1699  0.1298
22762SOL    HW180010   2.975   3.788   9.885  1.7749  0.4173  0.7736
22762SOL    HW280011   2.848   3.770   9.964  0.3458 -0.7546 -1.6571
22763SOL     OW80012   2.922  11.172   0.231  0.1641 -0.5233  0.6280
22763SOL    HW180013   2.896  11.080   0.219  0.0163 -0.8588  3.0484
22763SOL    HW280014   2.839  11.219   0.239  0.2180  0.0081 -1.4277
22764SOL     OW80015   5.806   4.221  11.304 -0.0157 -0.0155  0.1731
22764SOL    HW180016   5.853   4.302  11.324  0.3782  0.5179 -2.4991
22764SOL    HW280017   5.717   4.237  11.337  0.0879  1.4897 -0.1892
22765SOL     OW80018   0.404   7.916   5.847 -0.1953  0.0199 -0.5301
22765SOL    HW180019   0.372   7.926   5.758 -0.1290 -0.3409 -0.5971
22765SOL    HW280020   0.464   7.989   5.860 -0.2128  0.0771 -0.7791
22766SOL     OW80021   8.104   9.547   1.359 -0.5827 -0.4762  0.9849
22766SOL    HW180022   8.041   9.578   1.294 -0.1259 -0.6022  0.4760
22766SOL    HW280023   8.189   9.568   1.322 -0.2952  2.1743  2.8743
22767SOL     OW80024   2.023   8.427   7.064  0.1673 -0.0048 -0.5788
22767SOL    HW180025   1.939   8.416   7.110 -0.2946 -0.4831 -1.5039
22767SOL    HW280026   2.085   8.451   7.133  0.1092 -3.2734  0.8222
22768SOL     OW80027   6.063  10.102   8.393  0.1083 -0.1741  0.2959
22768SOL    HW180028   6.094  10.017   8.362  0.7552 -1.0212  3.0094
22768SOL    HW280029   6.110  10.166   8.340  0.9686 -1.5056 -0.5905
22769SOL     OW80030   5.025   7.940   3.748 -0.3709  0.6055  0.3016
22769SOL    HW180031   5.046   7.924   3.656 -1.2527 -0.2600  0.2224
22769SOL    HW280032   5.015   8.035   3.754  0.2772  0.7277 -0.3563
22770SOL     OW80033   0.498   7.250   3.925  0.2221  0.1925  0.2130
22770SOL    HW180034   0.461   7.164   3.903 -1.2423  0.5588  1.1036
22770SOL    HW280035   0.432   7.312   3.895  1.6011  1.0815 -1.1137
22771SOL     OW80036   9.401   5.386   3.032 -0.8283  0.7497  0.3460
22771SOL    HW180037   9.416   5.319   3.099 -0.1933 -0.5085 -0.9890
22771SOL    HW280038   9.369   5.462   3.080  0.2264  0.1107  2.1437
22772SOL     OW80039  11.845   4.647   0.933 -0.3530  0.0927 -0.8020
22772SOL    HW180040  11.927   4.676   0.975 -1.2164  1.1683  0.2050
22772SOL    HW280041  11.776   4.689   0.984 -1.5242 -0.2556 -2.0512
22773SOL     OW80042  10.565  11.436   9.582 -0.1546 -0.0176  0.4278
22773SOL    HW180043  10.649  11.460   9.545  0.8777 -2.9417  0.5716
22773SOL    HW280044  10.517  11.518   9.590  1.5424  1.4054 -2.3941
22774SOL     OW80045   3.338  10.088   9.439  0.4466 -0.6057 -0.1794
22774SOL    HW180046   3.303  10.014   9.489 -1.8487  0.5943  0.1315
22774SOL    HW280047   3.337  10.058   9.349  0.4690 -1.2816  0.0380
22775SOL     OW80048   1.402   8.079   8.232 -0.1420  0.1413 -0.0979
22775SOL    HW180049   1.342   8.108   8.301 -0.4010 -2.7931  1.0321
22775SOL    HW280050   1.484   8.062   8.278 -0.1963 -1.4756 -0.5474
22776SOL     OW80051   7.176   9.125   8.636 -0.0709  0.2923 -0.5831
22776SOL    HW180052   7.264   9.163   8.638 -0.2211  0.6328 -0.4227
22776SOL    HW280053   7.126   9.176   8.699 -0.3037 -0.1119 -0.4341
22777SOL     OW80054  10.538  11.917   6.597 -0.3098 -0.0808  0.2657
22777SOL    HW180055  10.552  11.822   6.592  0.3099  0.0045  0.3471
22777SOL    HW280056  10.514  11.942   6.508  0.5861 -0.1517  0.0028
22778SOL     OW80057   5.622   7.255  10.104  0.3018 -0.2695  0.2107
22778SOL    HW180058   5.627   7.316  10.177  1.6543 -1.9124  1.5740
22778SOL    HW280059   5.533   7.221  10.107  1.0782 -2.4683  3.0502
22779SOL     OW80060   3.152   9.973   1.574  0.4538 -0.4028 -0.0477
22779SOL    HW180061   3.232  10.021   1.594  0.7586 -0.8804 -0.0916
22779SOL    HW280062   3.148   9.905   1.641 -0.3109  0.0788  0.3980
22780SOL     OW80063   7.070   9.557   0.388 -0.2545  0.7400 -0.2120
22780SOL    HW180064   7.091   9.616   0.315  2.0974 -0.5007 -0.6444
22780SOL    HW280065   7.068   9.469   0.348 -1.1923  0.2457  0.8519
22781SOL     OW80066  10.900   1.888   6.038 -0.0521 -0.2230 -0.1604
22781SOL    HW180067  10.957   1.920   6.108  0.0908  1.2605 -0.8999
22781SOL    HW280068  10.848   1.819   6.078  0.2377  0.3898  1.3300
22782SOL     OW80069   9.931   2.963   6.809  0.2032  0.2929 -0.8831
22782SOL    HW180070   9.997   2.972   6.740  0.4941 -0.7436 -0.7592
22782SOL    HW280071   9.850   2.940   6.762 -0.0007  1.1935 -1.0019
22783SOL     OW80072   2.267   8.648   8.445 -0.0997  0.0439  0.0626
22783SOL    HW180073   2.195   8.605   8.490 -0.7455 -0.3249 -1.2812
22783SOL    HW280074   2.226   8.699   8.376  0.8957  0.2909 -0.3733
22784SOL     OW80075   3.671   5.058   3.378 -0.2854  0.1024  0.2018
22784SOL    HW180076   3.641   4.968   3.366 -0.1972  0.1361 -0.2808
22784SOL    HW280077   3.754   5.050   3.425  0.2908 -0.1333 -0.8239
22785SOL     OW80078   8.161   1.418   1.560 -0.4979  0.0189 -0.7325
22785SOL    HW180079   8.120   1.499   1.529 -0.1430 -0.0223 -1.3185
22785SOL    HW280080   8.172   1.432   1.654 -3.5659 -0.7167 -0.1422
22786SOL     OW80081   6.528   5.262   7.508 -0.0198 -0.5424  0.8472
22786SOL    HW180082   6.488   5.295   7.427  0.5088  0.5005  0.9915
22786SOL    HW280083   6.614   5.230   7.481  0.2632  0.0480  1.0246
22787SOL     OW80084   9.686  10.717   6.367  0.2647  0.3109 -0.0980
22787SOL    HW180085   9.695  10.812   6.371 -2.2160  0.5905  1.2973
22787SOL    HW280086   9.742  10.683   6.437 -2.7605  1.2711  3.0734
22788SOL     OW80087   9.744   2.708   3.931  0.1556 -0.1012  0.6655
22788SOL    HW180088   9.793   2.683   3.852  0.1904 -1.6673  1.1453
22788SOL    HW280089   9.768   2.799   3.946 -1.7768  1.1364 -2.5470
22789SOL     OW80090   1.059   2.109   6.174  0.1897 -0.0969  0.4153
22789SOL    HW180091   1.063   2.148   6.087  0.1336  0.6434  0.7299
22789SOL    HW280092   1.117   2.033   6.170  0.4404  0.1211 -0.1714
22790SOL     OW80093   9.286   1.603  10.091 -0.1527  0.9344 -0.4842
22790SOL    HW180094   9.190   1.612  10.095 -0.3929 -0.6618 -1.7527
22790SOL    HW280095   9.309   1.630  10.002  0.4925  0.5435 -0.4415
22791SOL     OW80096   5.640   1.740   8.024 -0.1205  0.0523  0.1085
22791SOL    HW180097   5.647   1.667   8.086  0.2536 -0.9817 -1.1096
22791SOL    HW280098   5.730   1.772   8.016 -0.3607  0.9996  1.0236
22792SOL     OW80099   1.517  10.183   8.216  0.4175 -0.4618  0.5791
22792SOL    HW180100   1.452  10.198   8.285  0.4362 -0.8254  0.6786
22792SOL    HW280101   1.467  10.144   8.145  0.5346 -0.7733  0.6686
22793SOL     OW80102   4.672   0.404   3.450 -0.1878  0.0283 -0.4691
22793SOL    HW180103   4.768   0.402   3.449 -0.1296  0.4648 -2.9655
22793SOL    HW280104   4.650   0.481   3.503  0.7323 -1.2400  1.8522
22794SOL     OW80105   8.560  10.928   7.336 -0.6959 -0.1601  0.3711
22794SOL    HW180106   8.497  10.857   7.327 -0.6004 -0.1526 -0.3377
22794SOL    HW280107   8.621  10.917   7.264  0.1649 -0.2035  1.0843
22795SOL     OW80108  10.687   4.285   4.892 -0.4792  0.4726  0.1229
22795SOL    HW180109  10.659   4.353   4.954 -0.1981 -0.4559  1.3078
22795SOL    HW280110  10.736   4.333   4.825 -2.9879  1.8635 -0.8618
22796SOL     OW80111  11.252   6.578   5.356 -0.0852  0.1847  0.4634
22796SOL    HW180112  11.247   6.499   5.410 -0.4511  1.4747  2.4183
22796SOL    HW280113  11.258   6.545   5.266 -0.9253 -2.0441  1.1539
22797SOL     OW80114   6.792   1.123   8.047  0.3534  0.1424  0.7645
22797SOL    HW180115   6.713   1.166   8.078 -0.6872 -0.8087 -0.4695
22797SOL    HW280116   6.825   1.074   8.123 -0.5377  0.1296  1.1449
22798SOL     OW80117  10.928   0.355   3.683 -0.4723  0.0627  0.7361
22798SOL    HW180118  10.888   0.439   3.703  0.2172  0.1430  1.8368
22798SOL    HW280119  10.860   0.307   3.635 -1.2037  0.8850  0.9328
22799SOL     OW80120   3.020   4.183   6.140 -0.2725  0.3928  0.0330
22799SOL    HW180121   2.999   4.145   6.055  1.3592  0.3725 -0.4073
22799SOL    HW280122   3.084   4.123   6.179  0.6330  1.4751  0.3093
22800SOL     OW80123  11.072   4.181   2.999 -0.4300  0.1146 -0.0049
22800SOL    HW180124  11.143   4.199   3.061 -0.1447  0.5699 -0.4616
22800SOL    HW280125  11.004   4.243   3.023 -1.0762 -0.9352  1.0418
22801SOL     OW80126   4.606   7.132   4.780  0.1137 -0.0239 -0.3614
22801SOL    HW180127   4.581   7.212   4.734  2.3981  1.9098  1.4982
22801SOL    HW280128   4.536   7.120   4.845 -0.3180  0.4036 -0.7346
22802SOL     OW80129   6.022  11.948   9.468  0.6136  0.5104 -0.2897
22802SOL    HW180130   5.929  11.940   9.488  0.0660  0.0267 -2.7604
22802SOL    HW280131   6.026  12.017   9.402  1.6466 -1.2779 -2.2060
22803SOL     OW80132   6.234   1.719   7.175  0.5292 -0.1986  0.0292
22803SOL    HW180133   6.221   1.633   7.216 -0.3419 -0.2466 -0.3246
22803SOL    HW280134   6.290   1.766   7.236 -0.3217 -0.4551  1.0419
22804SOL     OW80135   9.971   7.872   9.349  0.0153  0.3749 -0.0998
22804SOL    HW180136   9.881   7.847   9.373  0.2443 -2.4800 -1.7670
22804SOL    HW280137  10.001   7.801   9.291  2.6451  2.2808 -1.2564
22805SOL     OW80138   8.070   2.678   0.592  0.0958  0.2532  0.2398
22805SOL    HW180139   8.091   2.670   0.499 -1.8125  0.8433 -0.2975
22805SOL    HW280140   8.149   2.650   0.637 -0.0460 -3.6488 -1.5133
22806SOL     OW80141   9.216   2.688   8.693  0.3615 -0.1679 -0.2886
22806SOL    HW180142   9.184   2.770   8.730  1.8875 -0.4547  1.8475
22806SOL    HW280143   9.310   2.700   8.685  0.2318 -0.4727 -3.4267
22807SOL     OW80144   6.076   9.777   0.546  0.1157  0.1072  0.3877
22807SOL    HW180145   6.064   9.746   0.456  2.3441 -1.3898  0.5074
22807SOL    HW280146   6.122   9.861   0.536  3.1300 -1.4427  0.0180
22808SOL     OW80147   4.452   1.804   6.235  0.4561  0.2746  0.2286
22808SOL    HW180148   4.489   1.733   6.289 -2.1643 -0.1678  1.6463
22808SOL    HW280149   4.416   1.866   6.299 -1.3347  0.5514 -0.9790
22809SOL     OW80150   0.543   2.940   2.464 -0.3048  0.2001  0.2052
22809SOL    HW180151   0.457   2.923   2.502  0.1009  2.4797  2.4950
22809SOL    HW280152   0.602   2.948   2.540  1.5142  0.6892 -1.1686
22810SOL     OW80153   0.488   2.726   4.656 -0.4040  0.1249 -0.0681
22810SOL    HW180154   0.441   2.645   4.636 -1.4803  0.8715 -0.6958
22810SOL    HW280155   0.437   2.795   4.612  2.1480  0.8295 -2.1833
22811SOL     OW80156   0.382  10.200  10.505  0.2009  0.2021 -0.2605
22811SOL    HW180157   0.405  10.139  10.435  1.4157  0.8521 -0.4551
22811SOL    HW280158   0.437  10.277  10.489  0.1741  0.5392  1.1484
22812SOL     OW80159  10.900   9.324   5.451  0.2367  0.0105  0.4413
22812SOL    HW180160  10.886   9.419   5.440 -1.6354 -0.2862 -0.1427
22812SOL    HW280161  10.900   9.290   5.361 -1.2645 -0.7789  0.7203
22813SOL     OW80162   4.135   8.676  10.890  0.0301 -0.1167 -0.0281
22813SOL    HW180163   4.207   8.718  10.937 -0.3343 -1.4219  1.8060
22813SOL    HW280164   4.071   8.653  10.958 -0.3597 -2.4520 -1.0618
22814SOL     OW80165   8.900   1.911   7.815  0.1740 -0.1187  0.6079
22814SOL    HW180166   8.865   1.902   7.903  0.8065 -1.3488  0.7490
22814SOL    HW280167   8.852   1.847   7.763  0.3149  0.0923  0.2126
22815SOL     OW80168  11.223   6.080   4.498  0.1874  0.0492  0.7632
22815SOL    HW180169  11.163   6.153   4.514  0.7654  0.9600 -1.0247
22815SOL    HW280170  11.169   6.002   4.513 -0.8852  0.8353  1.1351
22816SOL     OW80171   9.967   1.665   5.313 -0.1265 -0.0187 -0.0603
22816SOL    HW180172  10.063   1.662   5.320 -0.0852  1.4302  0.3640
22816SOL    HW280173   9.937   1.640   5.401 -0.0485  1.8324  0.5304
22817SOL     OW80174   8.367  10.150   9.068 -0.6654 -0.4561 -0.3012
22817SOL    HW180175   8.352  10.190   8.982 -1.7946  0.1652  0.1640
22817SOL    HW280176   8.414  10.217   9.118 -0.4267 -0.6380 -0.2800
22818SOL     OW80177   7.921   1.090   0.408  0.1135  0.3962  0.3048
22818SOL    HW180178   7.907   1.182   0.427  3.6607  1.0714  0.2352
22818SOL    HW280179   7.934   1.086   0.313 -0.4233 -0.2936  0.2429
22819SOL     OW80180   7.905   9.716   3.456  0.4276 -0.0731  0.0037
22819SOL    HW180181   7.834   9.701   3.519  0.2700  0.3605 -0.0681
22819SOL    HW280182   7.973   9.759   3.507  0.9992 -1.2443  0.2791
22820SOL     OW80183   2.964   9.802   6.396 -0.0784 -0.3093  0.2254
22820SOL    HW180184   3.011   9.885   6.391 -2.4758  1.3215  2.0193
22820SOL    HW280185   2.951   9.775   6.305  1.8425  0.5734 -0.3544
22821SOL     OW80186   9.218   5.844  11.670  0.1330  0.0057  0.0747
22821SOL    HW180187   9.169   5.816  11.747 -0.6735 -0.5290 -0.6085
22821SOL    HW280188   9.300   5.880  11.705  1.2489 -3.1610  1.0445
22822SOL     OW80189   8.434   1.383   0.475  0.3106 -0.4133 -0.3437
22822SOL    HW180190   8.401   1.316   0.535 -0.0697 -0.8768 -1.0514
22822SOL    HW280191   8.363   1.396   0.412  1.1513 -0.8254 -1.4131
22823SOL     OW80192   6.683   8.774   1.574 -0.3495 -0.1478 -0.6087
22823SOL    HW180193   6.709   8.683   1.586 -0.9359 -0.3526 -0.8244
22823SOL    HW280194   6.757   8.825   1.606  0.3285 -0.7033 -1.2812
22824SOL     OW80195   6.126   1.489   9.976 -0.1814  0.2242  1.0207
22824SOL    HW180196   6.074   1.566   9.951 -1.8812 -0.8352  1.1091
22824SOL    HW280197   6.104   1.423   9.911  0.7845 -0.3946  1.3020
22825SOL     OW80198   4.124   5.186   4.823  0.6390 -0.4514  0.1214
22825SOL    HW180199   4.099   5.246   4.753  1.1911 -0.9326 -0.5028
22825SOL    HW280200   4.219   5.178   4.815  0.6287 -1.0335  0.4946
22826SOL     OW80201   2.521   5.886  10.460  0.8684 -0.2582  0.2564
22826SOL    HW180202   2.506   5.967  10.508 -0.1020  0.0186 -0.4932
22826SOL    HW280203   2.464   5.892  10.384  2.4293 -0.6569 -0.9972
22827SOL     OW80204   3.755  11.033   3.969 -0.0142 -0.2638 -0.1925
22827SOL    HW180205   3.715  11.070   4.047  1.6708  1.1848  0.0473
22827SOL    HW280206   3.756  11.105   3.906  0.4901 -0.8053 -0.8246
22828SOL     OW80207   7.774   9.450   9.550 -0.1968  0.0817  0.1411
22828SOL    HW180208   7.721   9.529   9.559  0.6209  0.7672 -0.9713
22828SOL    HW280209   7.756   9.401   9.631 -1.2108  1.0797  0.5524
22829SOL     OW80210   3.242   9.340  11.720 -0.2360 -0.1204 -0.1345
22829SOL    HW180211   3.166   9.306  11.673 -0.4284  0.1106  0.0103
22829SOL    HW280212   3.207   9.379  11.799  0.2181 -1.7428  0.9210
22830SOL     OW80213  11.246   8.793   9.835  0.1955  0.6147 -0.0236
22830SOL    HW180214  11.237   8.699   9.848  0.4257  0.2832 -1.9390
22830SOL    HW280215  11.168   8.830   9.876 -0.0847 -0.4478  0.4378
22831SOL     OW80216   1.181   8.398   4.918 -0.6391  0.0093 -0.3951
22831SOL    HW180217   1.099   8.351   4.933  0.3396 -1.4137  0.7993
22831SOL    HW280218   1.238   8.370   4.989  1.6090 -0.7507 -2.3830
22832SOL     OW80219  11.049  10.593   4.758 -0.2303 -0.3223 -0.7902
22832SOL    HW180220  11.019  10.622   4.844 -2.0493 -0.1115 -1.4460
22832SOL    HW280221  11.069  10.500   4.770  0.8939  0.0140  0.1628
22833SOL     OW80222   1.043  11.240   9.587 -0.4794  1.1714  0.1112
22833SOL    HW180223   1.092  11.300   9.531  0.9774  1.3169  1.4641
22833SOL    HW280224   0.983  11.296   9.636 -2.2121  0.9760 -1.6648
22834SOL     OW80225   3.324   7.159  11.893 -0.0758  0.2816 -0.3366
22834SOL    HW180226   3.249   7.102  11.879 -0.4818  1.0618 -1.4004
22834SOL    HW280227   3.392   7.124  11.835  0.2386 -0.1269  0.2639
22835SOL     OW80228   6.931   3.723   1.969 -0.0247 -0.2340 -0.0034
22835SOL    HW180229   6.878   3.643   1.976  0.1220 -0.3748 -0.4644
22835SOL    HW280230   6.902   3.778   2.042  0.7170 -1.1997  1.0537
22836SOL     OW80231   3.191   1.505   2.651  0.6740 -0.2449 -1.0168
22836SOL    HW180232   3.183   1.436   2.717  1.6337 -0.7285 -1.3839
22836SOL    HW280233   3.253   1.469   2.587 -0.0047  0.3324 -2.0213
22837SOL     OW80234   9.513   2.423   3.620  0.8837  0.0226  0.3447
22837SOL    HW180235   9.528   2.513   3.593 -0.0640  0.0338 -0.1853
22837SOL    HW280236   9.466   2.383   3.547  1.2109 -0.8735  0.6112
22838SOL     OW80237  10.391   2.594   5.513  0.3634 -0.2391 -0.3467
22838SOL    HW180238  10.373   2.668   5.455 -3.3137 -0.6436  0.0736
22838SOL    HW280239  10.369   2.516   5.462  1.9402 -0.9783  0.0055
22839SOL     OW80240   2.670   0.684  11.504  0.1518  0.2645 -0.3864
22839SOL    HW180241   2.701   0.769  11.472 -0.2902  0.3176 -0.6760
22839SOL    HW280242   2.603   0.706  11.569  0.8086  0.1520  0.3460
22840SOL     OW80243   5.299  11.107   0.136  0.3203  0.1324 -0.1040
22840SOL    HW180244   5.223  11.142   0.089 -0.9690 -2.6913 -0.3163
22840SOL    HW280245   5.344  11.052   0.071  0.4991 -1.0573  0.9910
22841SOL     OW80246   6.611   7.696   5.262  0.0212  0.6470  0.5775
22841SOL    HW180247   6.516   7.707   5.270  0.0030 -0.5020  2.7051
22841SOL    HW280248   6.626   7.684   5.168 -1.8424  1.4584  0.1200
22842SOL     OW80249   0.811   1.075   1.164 -0.0342 -0.2876  0.4513
22842SOL    HW180250   0.853   0.997   1.201  0.2028  0.2722  1.3782
22842SOL    HW280251   0.760   1.041   1.090  1.8955 -1.0212 -0.6305
22843SOL     OW80252   5.696   8.070   4.369  0.3036 -0.6346  0.1409
22843SOL    HW180253   5.732   8.142   4.421 -0.5988  0.7260 -1.0275
22843SOL    HW280254   5.762   8.054   4.302  0.2154 -0.4343  0.0047
22844SOL     OW80255   3.013   7.716  10.366  0.3768  0.4624 -0.2459
22844SOL    HW180256   3.104   7.743  10.383 -0.2279  1.2123  2.3609
22844SOL    HW280257   2.962   7.765  10.431 -1.6358 -1.6069 -0.1548
22845SOL     OW80258   3.579   7.631   8.948  0.1034 -0.4720 -0.1471
22845SOL    HW180259   3.507   7.651   9.007 -0.1783 -0.8762 -0.3509
22845SOL    HW280260   3.628   7.714   8.942  0.4298 -0.5516  1.0395
22846SOL     OW80261   1.700   7.001   5.815  0.1247  0.3473 -0.1257
22846SOL    HW180262   1.612   7.032   5.837  0.2636  0.4345  0.3360
22846SOL    HW280263   1.752   7.081   5.809  0.9913  0.2042  3.2842
22847SOL     OW80264  10.385  10.449   6.109 -0.0277 -0.4213  0.3827
22847SOL    HW180265  10.457  10.500   6.147  0.2484  1.8692 -2.8139
22847SOL    HW280266  10.310  10.470   6.163  0.7887  0.8355  1.0885
22848SOL     OW80267   5.587   8.124  10.303  0.3577  0.6621  0.3072
22848SOL    HW180268   5.644   8.168  10.241  1.4330 -2.1465 -0.8391
22848SOL    HW280269   5.501   8.123  10.261  1.1425 -1.5059 -1.4450
22849SOL     OW80270   6.084   8.179   1.712 -0.6004 -0.8634 -0.2448
22849SOL    HW180271   6.071   8.169   1.806  0.7046 -1.4329 -0.1056
22849SOL    HW280272   6.043   8.102   1.673  2.1135 -2.6502  0.1859
22850SOL     OW80273   4.622   1.588   8.478  0.4838  0.1489  0.6888
22850SOL    HW180274   4.670   1.575   8.396  1.1570  0.6796  0.9931
22850SOL    HW280275   4.589   1.677   8.472 -1.2960 -0.5074  0.0682
22851SOL     OW80276   1.267   2.798   8.648  0.0856 -0.2999 -0.0040
22851SOL    HW180277   1.305   2.866   8.592 -0.7033  0.2374  0.0983
22851SOL    HW280278   1.197   2.842   8.696 -1.0918 -1.3974 -0.6483
22852SOL     OW80279   3.624   5.356   5.464  0.0041 -0.2748 -0.0910
22852SOL    HW180280   3.661   5.289   5.521 -1.9714 -0.4007  1.1117
22852SOL    HW280281   3.581   5.417   5.523  0.7337  1.4339 -1.2492
22853SOL     OW80282   6.552   5.989  10.821  0.9120 -0.1187  0.2721
22853SOL    HW180283   6.600   5.952  10.748  0.2797 -0.1501 -0.1360
22853SOL    HW280284   6.617   6.040  10.870  1.4806 -0.6447  0.0678
22854SOL     OW80285   2.993   9.755   8.660  0.4843  0.4579 -0.3251
22854SOL    HW180286   2.928   9.804   8.710  1.0373  0.7998  0.0721
22854SOL    HW280287   2.995   9.798   8.574  0.3772  0.6134 -0.2487
22855SOL     OW80288   1.507   6.025   5.628  0.1792 -0.2355  0.1710
22855SOL    HW180289   1.549   6.027   5.542 -0.8745  1.5517 -0.3412
22855SOL    HW280290   1.562   6.080   5.683 -0.0038 -0.0941  0.2150
22856SOL     OW80291   2.838   6.596   9.979 -0.0165 -0.3886  0.2126
22856SOL    HW180292   2.894   6.621   9.905  0.4296  0.7569  0.9009
22856SOL    HW280293   2.808   6.508   9.958  2.5082 -1.3036  0.0740
22857SOL     OW80294   5.908   4.705   2.015 -0.2118  0.0130  0.3569
22857SOL    HW180295   5.991   4.752   2.002  0.1019  0.1859  2.5955
22857SOL    HW280296   5.923   4.619   1.977  1.4865 -0.3864  1.7817
22858SOL     OW80297   4.558   6.843   4.800 -0.4137  0.0503  0.0724
22858SOL    HW180298   4.504   6.794   4.739 -0.8141  0.8107 -0.1949
22858SOL    HW280299   4.586   6.921   4.751  2.0319 -0.9469 -0.2584
22859SOL     OW80300   9.774   7.232   4.787 -0.1843  0.6003 -0.3698
22859SOL    HW180301   9.726   7.154   4.761 -1.2035  1.4368 -1.0714
22859SOL    HW280302   9.788   7.281   4.706  0.8856  0.9193 -0.0148
22860SOL     OW80303   7.580   9.283   6.248 -0.0327  0.2793 -0.1803
22860SOL    HW180304   7.557   9.376   6.253 -0.1450  0.2204  0.5241
22860SOL    HW280305   7.575   9.252   6.339 -0.1251 -0.4449 -0.4232
22861SOL     OW80306   2.083   2.852  11.712  0.9316  0.0329  0.5277
22861SOL    HW180307   2.160   2.800  11.688  2.3989  2.4836 -0.5555
22861SOL    HW280308   2.094   2.871  11.805  0.9153 -0.7242  0.6879
22862SOL     OW80309   0.474   1.900   7.755  0.7791  0.0315  1.0825
22862SOL    HW180310   0.452   1.819   7.708 -2.0491  0.4209  1.5497
22862SOL    HW280311   0.519   1.954   7.689 -0.7373 -0.4490 -0.4304
22863SOL     OW80312  11.316   9.274   7.686 -0.3273 -0.0357 -0.1645
22863SOL    HW180313  11.260   9.201   7.710 -2.0834  1.4100  0.3072
22863SOL    HW280314  11.300   9.341   7.752  1.7233  0.5857 -0.2022
22864SOL     OW80315   3.655   5.588   8.961  0.4890  0.6681 -0.3076
22864SOL    HW180316   3.601   5.605   8.884  0.4975 -0.7175 -0.6413
22864SOL    HW280317   3.742   5.618   8.935  0.0319  2.4208  0.0452
22865SOL     OW80318   5.790   1.307   2.396  0.0652 -0.7699  0.1105
22865SOL    HW180319   5.879   1.308   2.360 -0.5819  3.3970 -1.9657
22865SOL    HW280320   5.803   1.298   2.490  2.8855  1.1853  0.0457
22866SOL     OW80321   5.427   8.781   9.168  0.3829 -0.3876 -0.2593
22866SOL    HW180322   5.402   8.802   9.078 -3.1981  0.8997  0.8933
22866SOL    HW280323   5.402   8.689   9.179  2.0533 -0.9574 -0.8793
22867SOL     OW80324   5.494   5.008   7.873  0.3878  0.0066  0.0575
22867SOL    HW180325   5.492   5.077   7.940  1.0121  0.7061 -0.6294
22867SOL    HW280326   5.502   4.926   7.923  0.6159  0.5015  0.8432
22868SOL     OW80327   1.100  11.800   3.675  0.1700  0.0824 -0.1604
22868SOL    HW180328   1.152  11.786   3.754  1.3856 -0.6518 -1.0449
22868SOL    HW280329   1.115  11.720   3.623 -1.7330 -0.0750 -0.5157
22869SOL     OW80330   7.687   1.569   5.196  0.0450 -0.7820  0.0951
22869SOL    HW180331   7.773   1.545   5.163 -0.0348 -0.2771 -0.4974
22869SOL    HW280332   7.639   1.486   5.200  0.3564 -0.9772 -0.1561
22870SOL     OW80333   3.526   3.878   3.332  0.2508  0.0393  0.6374
22870SOL    HW180334   3.486   3.795   3.306  1.2971 -0.8454  1.7156
22870SOL    HW280335   3.571   3.909   3.254  0.0321 -0.5317  0.2842
22871SOL     OW80336  11.418   9.163   5.941  0.4151  0.5094 -0.5912
22871SOL    HW180337  11.471   9.221   5.887 -0.7593  0.4813 -1.8427
22871SOL    HW280338  11.479   9.096   5.972  1.4334  1.4302 -0.5588
22872SOL     OW80339   8.871   2.178   1.286 -0.0903  0.5575 -0.1473
22872SOL    HW180340   8.957   2.210   1.259 -0.4396  1.1275 -0.5992
22872SOL    HW280341   8.879   2.083   1.283  0.7536  0.5910  0.5483
22873SOL     OW80342   8.478  10.335   9.213  0.2392  0.3192  0.1042
22873SOL    HW180343   8.462  10.356   9.305  0.3501  1.0289 -0.0332
22873SOL    HW280344   8.571  10.355   9.200  0.4964 -0.8311  0.1121
22874SOL     OW80345   6.424   7.304   3.468 -0.0126 -0.0752 -0.1718
22874SOL    HW180346   6.377   7.294   3.551 -0.0203 -1.1143 -0.2955
22874SOL    HW280347   6.487   7.374   3.485 -0.8162  0.5536  0.3427
22875SOL     OW80348   1.559   6.356   5.413  0.5294  0.4501 -0.2403
22875SOL    HW180349   1.488   6.400   5.461  1.0531  0.5216  0.4923
22875SOL    HW280350   1.577   6.414   5.339  0.4360  0.9040  0.0843
22876SOL     OW80351   7.628   7.407   2.167  0.2260 -0.0672 -0.4147
22876SOL    HW180352   7.552   7.350   2.154  0.2756 -0.0282 -0.8926
22876SOL    HW280353   7.703   7.353   2.142  0.4071 -0.2610  0.4964
22877SOL     OW80354   1.369   4.152   1.958 -0.2842 -0.3723  0.2887
22877SOL    HW180355   1.464   4.148   1.971 -0.4723 -3.1395  1.6429
22877SOL    HW280356   1.349   4.245   1.962  2.4598  0.3959 -1.0461
22878SOL     OW80357   9.308   2.047   5.473 -0.2387 -0.1923  0.1437
22878SOL    HW180358   9.236   2.054   5.536  0.0224  1.0796  0.3229
22878SOL    HW280359   9.278   2.098   5.397 -1.3528 -3.1728 -1.6109
22879SOL     OW80360   8.801  11.018  10.460  0.5023 -0.3877 -0.5956
22879SOL    HW180361   8.843  11.097  10.426 -2.2519  1.2273 -0.6070
22879SOL    HW280362   8.786  10.963  10.383  4.0312 -1.9029 -0.3758
22880SOL     OW80363   3.851   1.586   2.414 -0.4933  0.0779 -0.5012
22880SOL    HW180364   3.936   1.541   2.410  0.0808  1.2263 -2.0914
22880SOL    HW280365   3.874   1.679   2.426 -1.5945  0.2273  0.6688
22881SOL     OW80366   7.043  11.924   3.517 -0.8065 -0.0517  0.0921
22881SOL    HW180367   7.022  11.924   3.424 -0.5643 -0.8586  0.0331
22881SOL    HW280368   7.054  12.017   3.539 -0.3013  0.1095 -0.8114
22882SOL     OW80369  10.589   1.749   6.530 -0.1743 -0.1145  0.0794
22882SOL    HW180370  10.608   1.799   6.610 -0.9841 -0.7707  0.7051
22882SOL    HW280371  10.643   1.671   6.537 -1.3899 -0.9397  0.8025
22883SOL     OW80372   3.116   9.514   9.192  0.2468  0.2006  0.0166
22883SOL    HW180373   3.024   9.536   9.182  0.6689  1.4139 -1.6433
22883SOL    HW280374   3.152   9.584   9.246  0.5718  0.8408 -1.0047
22884SOL     OW80375  11.571   0.998   0.722 -0.4786 -0.2321 -0.4680
22884SOL    HW180376  11.508   1.043   0.778  0.3291 -1.0790  1.2235
22884SOL    HW280377  11.619   0.941   0.782  1.3735 -0.1893 -1.8157
22885SOL     OW80378   5.738   2.565   7.266 -0.0949 -0.2063  0.1775
22885SOL    HW180379   5.795   2.621   7.213 -0.8515  0.3530 -0.0608
22885SOL    HW280380   5.795   2.494   7.295  1.2177  1.3056  1.5235
22886SOL     OW80381   5.761   9.998   7.119 -0.0491  0.1216  0.0047
22886SOL    HW180382   5.719   9.913   7.126  1.4137 -0.5514  1.2371
22886SOL    HW280383   5.708  10.056   7.175 -1.0371  0.0457 -0.8257
22887SOL     OW80384   1.058   7.967   8.861 -0.2145 -0.1409  0.1365
22887SOL    HW180385   1.092   7.956   8.772  3.8834  0.5452  1.3970
22887SOL    HW280386   1.066   8.061   8.878  0.8530 -0.4817  1.7718
22888SOL     OW80387   2.159   9.803   4.479  0.1215  0.7277 -0.5689
22888SOL    HW180388   2.160   9.898   4.465 -1.7493  1.0382  0.9406
22888SOL    HW280389   2.068   9.784   4.502  0.7477 -1.2086  0.4962
22889SOL     OW80390  10.586   6.060   4.078 -0.2587 -0.3185 -0.2790
22889SOL    HW180391  10.563   6.110   4.156 -0.0833 -1.1725  0.3421
22889SOL    HW280392  10.505   6.016   4.052  0.0910 -1.4598  0.5066
22890SOL     OW80393   1.185   4.389   8.859  0.2304  0.0400  0.3377
22890SOL    HW180394   1.128   4.418   8.930  0.9811 -0.2802  1.0868
22890SOL    HW280395   1.267   4.367   8.902  0.0881 -2.0380 -0.3710
22891SOL     OW80396   3.688   1.076   9.065 -0.2926 -0.1266 -0.0949
22891SOL    HW180397   3.647   1.007   9.012 -1.6710  0.5833 -0.0111
22891SOL    HW280398   3.711   1.033   9.147 -0.3538 -0.6772 -0.3586
22892SOL     OW80399   2.560   5.057   5.837 -0.3049  0.2337  0.2527
22892SOL    HW180400   2.581   5.120   5.906 -0.0752  1.2094 -0.6849
22892SOL    HW280401   2.465   5.046   5.843 -0.1227 -0.8823  1.7042
22893SOL     OW80402   5.612   4.045   4.833 -0.0486  0.1604 -0.2078
22893SOL    HW180403   5.603   4.026   4.926 -0.5044 -1.1908 -0.5022
22893SOL    HW280404   5.689   4.102   4.827  1.3987 -1.5978  0.7978
22894SOL     OW80405   1.618   5.154  10.382 -0.2629  0.2439 -0.0137
22894SOL    HW180406   1.522   5.152  10.389 -0.1883 -0.7526  0.9343
22894SOL    HW280407   1.642   5.242  10.413 -0.7210 -0.4126  2.4722
22895SOL     OW80408  11.638   8.157   5.995 -0.3254 -0.0303  0.8281
22895SOL    HW180409  11.582   8.216   5.944 -0.5075 -1.3175 -0.5184
22895SOL    HW280410  11.626   8.071   5.955  0.3124 -0.9137  2.4341
22896SOL     OW80411  11.878   1.738   1.552 -0.0245 -0.7149 -0.2523
22896SOL    HW180412  11.868   1.671   1.483 -0.5102  0.6572 -1.5721
22896SOL    HW280413  11.789   1.765   1.572  0.1616 -0.5576  0.3709
22897SOL     OW80414   0.051  10.392  10.061  0.4188 -0.1023 -0.1387
22897SOL    HW180415   0.034  10.392   9.967 -0.3192  2.2378 -0.0757
22897SOL    HW280416   0.036  10.302  10.089 -2.7475 -0.1955 -1.7091
22898SOL     OW80417   2.594   2.548   8.977 -0.0248 -0.0089  0.6408
22898SOL    HW180418   2.550   2.462   8.972 -1.1506  0.5696 -0.0038
22898SOL    HW280419   2.576   2.579   9.066 -2.8961  1.1611 -0.2361
22899SOL     OW80420  11.955   1.249   7.829  0.5105 -0.0147  0.2829
22899SOL    HW180421  11.891   1.231   7.761 -0.1933  1.7042  0.4240
22899SOL    HW280422  11.955   1.171   7.884 -0.4663 -0.5761 -0.4938
22900SOL     OW80423   3.021   1.447   5.147 -0.0891  0.0829  0.4611
22900SOL    HW180424   3.082   1.375   5.160  1.9823  1.8038  0.8281
22900SOL    HW280425   2.949   1.429   5.208  0.4682 -1.5173  0.7019
22901SOL     OW80426   2.283   8.484   7.183 -0.2919 -0.2974  0.6606
22901SOL    HW180427   2.320   8.572   7.173 -0.3380 -0.3444  0.0170
22901SOL    HW280428   2.249   8.482   7.273  0.8712 -0.1032  1.1224
22902SOL     OW80429   4.610   5.260   5.321 -0.2873 -0.1023 -0.6956
22902SOL    HW180430   4.620   5.345   5.364  0.3449 -1.1506  1.3969
22902SOL    HW280431   4.692   5.214   5.341 -0.3294 -0.9696 -2.3737
22903SOL     OW80432   5.951   5.042   6.668  0.3398 -0.1132  0.0090
22903SOL    HW180433   5.859   5.066   6.676  0.7868  1.1286  2.2978
22903SOL    HW280434   5.965   5.031   6.574 -1.6733  1.6421 -0.5667
22904SOL     OW80435   6.998   4.857   9.020 -0.0013  0.1334  0.0089
22904SOL    HW180436   6.918   4.881   8.972  0.2398  1.4195  0.2210
22904SOL    HW280437   6.967   4.798   9.089 -0.6023 -0.2830 -0.6019
22905SOL     OW80438  10.404   2.481   8.095  0.1827  0.2352  0.3684
22905SOL    HW180439  10.486   2.518   8.061  0.7643 -0.9778  0.3847
22905SOL    HW280440  10.360   2.447   8.017 -0.8466  1.8318  0.2118
22906SOL     OW80441  11.333   1.003   1.143  0.6404  0.3675  0.4572
22906SOL    HW180442  11.342   0.919   1.189  2.1562 -0.4847 -1.2625
22906SOL    HW280443  11.269   0.985   1.073  0.6900  0.7507  0.3119
22907SOL     OW80444   8.556   8.339   8.967 -0.0916 -0.6264 -0.1122
22907SOL    HW180445   8.605   8.273   8.918 -0.2863 -1.3146  0.6100
22907SOL    HW280446   8.484   8.364   8.910  1.3317  0.7292 -1.3870
22908SOL     OW80447   8.327   4.250   4.545 -0.7056 -0.1684  0.3720
22908SOL    HW180448   8.375   4.200   4.612 -0.7516  0.5753  0.9741
22908SOL    HW280449   8.340   4.201   4.464  0.6616 -0.2508  0.6257
22909SOL     OW80450   6.680   6.618   9.430  0.3970  0.4500 -0.0709
22909SOL    HW180451   6.636   6.703   9.422  0.8527  0.6816 -0.1244
22909SOL    HW280452   6.699   6.592   9.340  0.0303  0.1705 -0.0691
22910SOL     OW80453   4.282   2.236   0.161 -0.0896  0.2362 -0.4641
22910SOL    HW180454   4.249   2.185   0.088  0.5412  1.0327 -1.3320
22910SOL    HW280455   4.221   2.310   0.168  0.5027  0.7808 -0.9503
22911SOL     OW80456   4.302   9.149  10.275 -0.0516  0.5087 -0.4879
22911SOL    HW180457   4.315   9.102  10.192 -3.9087 -0.6896 -0.6179
22911SOL    HW280458   4.327   9.086  10.343 -0.1822  0.1728 -0.7447
22912SOL     OW80459   2.062   4.138   8.299 -0.1944  0.1882 -0.1901
22912SOL    HW180460   2.096   4.186   8.224  2.0505  1.5208  1.5389
22912SOL    HW280461   1.996   4.196   8.337 -1.6073 -0.6498 -1.2680
22913SOL     OW80462   1.200   0.758   1.179 -0.1069  0.2057 -0.1216
22913SOL    HW180463   1.185   0.691   1.112  0.0432 -0.0879  0.1355
22913SOL    HW280464   1.260   0.820   1.137 -1.2006  0.8404 -0.7894
22914SOL     OW80465   3.330   8.085   6.454  0.3492 -0.0212 -0.3455
22914SOL    HW180466   3.267   8.041   6.396  2.1056 -1.3409 -1.3497
22914SOL    HW280467   3.416   8.056   6.422  1.4857  1.7298  0.9592
22915SOL     OW80468   8.546   0.386  10.866 -0.2196 -0.0083 -0.4029
22915SOL    HW180469   8.566   0.413  10.777 -0.7288 -2.6472 -1.4033
22915SOL    HW280470   8.545   0.468  10.916 -0.3031  1.6007 -2.8570
22916SOL     OW80471   2.372   0.046   7.723 -0.3643  0.0456  0.0465
22916SOL    HW180472   2.431  -0.010   7.671 -0.9525  1.1731 -1.9350
22916SOL    HW280473   2.291   0.047   7.673 -0.7841  1.6420  0.7215
22917SOL     OW80474   1.618   6.373   2.779 -1.1130  0.2178  0.2103
22917SOL    HW180475   1.576   6.301   2.825 -0.2990 -0.6673 -0.4045
22917SOL    HW280476   1.548   6.412   2.726 -1.2485 -1.0905 -0.6173
22918SOL     OW80477  11.076   1.719   1.316  0.3275 -0.2995 -0.0283
22918SOL    HW180478  11.010   1.664   1.273  0.1418 -0.3521  0.3160
22918SOL    HW280479  11.033   1.804   1.326  0.2440 -0.3869  0.3641
22919SOL     OW80480   9.973   2.118   3.723  0.1147  0.5766  0.7131
22919SOL    HW180481  10.020   2.161   3.652 -1.1281 -1.0948 -1.2426
22919SOL    HW280482   9.928   2.044   3.681 -0.9570 -0.2975  3.1890
22920SOL     OW80483   5.934  11.183   5.601 -0.0873 -0.6067 -0.3685
22920SOL    HW180484   5.866  11.125   5.566 -1.2958 -0.1517  1.1064
22920SOL    HW280485   5.927  11.174   5.696  1.5712 -0.1241 -0.1667
22921SOL     OW80486  10.837   7.773   8.986  0.4684 -0.1523  0.1887
22921SOL    HW180487  10.904   7.746   9.049  0.4706  2.2540  1.3564
22921SOL    HW280488  10.810   7.859   9.017 -0.4074  0.6067 -2.4543
22922SOL     OW80489   7.948   4.666  11.246 -0.8255  0.1987 -0.0900
22922SOL    HW180490   7.867   4.716  11.250 -0.2763  1.2246 -1.2108
22922SOL    HW280491   8.018   4.732  11.241 -0.0421 -0.6521 -0.8944
22923SOL     OW80492   0.306  10.883   5.228  0.8565 -0.0214  0.8355
22923SOL    HW180493   0.276  10.955   5.172 -1.2595 -0.4186  1.3887
22923SOL    HW280494   0.234  10.868   5.288  1.1364 -2.7772  0.5851
22924SOL     OW80495   3.648   8.631   0.215 -0.0779  0.3679  0.4268
22924SOL    HW180496   3.680   8.719   0.231  2.0971 -0.6201  1.9937
22924SOL    HW280497   3.705   8.598   0.145 -0.4049 -0.0341  0.3482
22925SOL     OW80498   0.149  11.639   6.387 -0.0766  0.6129 -0.0314
22925SOL    HW180499   0.206  11.593   6.325  0.3938 -2.1457  2.2367
22925SOL    HW280500   0.209  11.690   6.442 -0.2764  1.2836 -0.4218
22926SOL     OW80501   5.744  10.179   6.602  0.3708 -0.1984  0.2209
22926SOL    HW180502   5.774  10.233   6.528 -0.8676 -2.6815 -2.3082
22926SOL    HW280503   5.803  10.104   6.603 -1.8928 -2.1479 -0.9352
22927SOL     OW80504   5.125   0.917  11.251  0.4287 -0.4037  0.7274
22927SOL    HW180505   5.104   0.857  11.180  1.4707  0.3278 -0.2328
22927SOL    HW280506   5.066   0.892  11.322 -0.7586 -1.0421 -0.4451
22928SOL     OW80507   4.277   0.911   5.884  0.1470 -0.0515 -0.3681
22928SOL    HW180508   4.257   1.000   5.913  0.0237  0.4490 -1.8990
22928SOL    HW280509   4.193   0.877   5.853  0.2144 -0.6816  0.1165
22929SOL     OW80510  11.648   4.003   1.257  0.5396  0.8426 -0.0629
22929SOL    HW180511  11.584   3.932   1.257  0.2226  1.1190  0.5710
22929SOL    HW280512  11.650   4.034   1.166  0.9289 -0.1805 -0.4256
22930SOL     OW80513   7.586  11.879   2.518  0.1445  0.0376 -0.4539
22930SOL    HW180514   7.499  11.859   2.553  1.1609 -0.7230  1.8205
22930SOL    HW280515   7.582  11.973   2.498 -1.1791  0.0340 -0.3025
22931SOL     OW80516   7.737   9.041   3.445  0.4964 -0.1935 -0.3064
22931SOL    HW180517   7.708   9.132   3.456  2.2049  0.2794  0.6443
22931SOL    HW280518   7.814   9.048   3.388 -1.9316 -1.5528 -4.1277
22932SOL     OW80519   8.120   7.245   3.954  0.2042 -0.3816  0.3539
22932SOL    HW180520   8.118   7.238   4.049 -0.0159 -3.0435  0.2534
22932SOL    HW280521   8.028   7.252   3.928  0.2618  0.3131  0.3400
22933SOL     OW80522   8.875   7.651   2.264  0.2233 -0.3396  0.0558
22933SOL    HW180523   8.965   7.660   2.232  0.2057  1.0762  0.3239
22933SOL    HW280524   8.882   7.662   2.359 -0.1789 -0.7087  0.1299
22934SOL     OW80525   8.500   6.906   7.651  0.4795  0.1655  0.0902
22934SOL    HW180526   8.556   6.931   7.725  0.3286 -0.4077  0.4008
22934SOL    HW280527   8.425   6.862   7.692 -0.2966  1.0947 -0.3097
22935SOL     OW80528   0.685   8.800   6.986  0.1798  0.3578 -0.0826
22935SOL    HW180529   0.594   8.772   6.995  0.8499 -1.5336  1.6237
22935SOL    HW280530   0.707   8.839   7.071  1.1648  0.0908 -0.1975
22936SOL     OW80531   2.230   3.575  10.238  0.0505 -0.0652 -0.5982
22936SOL    HW180532   2.177   3.504  10.274  1.0894  0.4196  2.0777
22936SOL    HW280533   2.191   3.654  10.275  0.4969  0.5691 -1.4613
22937SOL     OW80534   3.367   8.670   0.443 -0.0683  0.3914 -0.3497
22937SOL    HW180535   3.427   8.681   0.516 -0.1760  0.1346 -0.2200
22937SOL    HW280536   3.380   8.748   0.388  1.1036 -0.1374 -0.8581
22938SOL     OW80537  11.531  10.353  10.563  0.8358 -0.3310 -0.0116
22938SOL    HW180538  11.511  10.274  10.512 -0.1436 -0.3934  0.4414
22938SOL    HW280539  11.619  10.378  10.535  0.4388 -0.5222 -1.5042
22939SOL     OW80540   4.702  11.307  10.921  0.0325  0.2868  0.0880
22939SOL    HW180541   4.642  11.374  10.953 -0.1227 -0.4631  1.4333
22939SOL    HW280542   4.657  11.269  10.845 -0.5385  0.7188  0.2050
22940SOL     OW80543   5.623   5.084   0.448 -0.0730 -0.2204 -0.4522
22940SOL    HW180544   5.601   5.055   0.537  0.0886 -0.5570 -0.5202
22940SOL    HW280545   5.548   5.138   0.422 -1.1023 -1.7924 -0.8867
22941SOL     OW80546   0.650   8.360   4.120  0.0118 -0.5435 -0.6387
22941SOL    HW180547   0.654   8.423   4.192  0.6147 -0.7822 -0.4585
22941SOL    HW280548   0.731   8.310   4.127 -0.4962 -1.4023 -0.7263
22942SOL     OW80549   7.378   2.680   3.707 -0.3643 -0.4970 -0.3615
22942SOL    HW180550   7.338   2.698   3.622 -0.0527  0.7421 -0.2646
22942SOL    HW280551   7.307   2.693   3.770 -0.4326 -0.7888 -0.3751
22943SOL     OW80552   8.771   6.670   6.902 -0.1904  0.0146 -0.1879
22943SOL    HW180553   8.768   6.597   6.841 -0.9740 -0.2692  0.1782
22943SOL    HW280554   8.690   6.719   6.885 -1.4057 -1.1354  1.8842
22944SOL     OW80555  10.425   4.987   8.479  0.1166  0.7645 -0.5051
22944SOL    HW180556  10.384   4.906   8.510 -0.8175  1.6575  0.6509
22944SOL    HW280557  10.435   4.973   8.385 -1.5787 -0.0450 -0.6119
22945SOL     OW80558  11.823   6.586   6.781  0.1881  0.1162  0.2024
22945SOL    HW180559  11.862   6.515   6.731 -0.1888 -0.4283  0.6684
22945SOL    HW280560  11.736   6.554   6.806  0.4260  0.2938  1.3424
22946SOL     OW80561   8.160   9.479   1.600 -0.1303  0.2144 -0.8531
22946SOL    HW180562   8.152   9.384   1.599  0.2504  0.1895 -1.4837
22946SOL    HW280563   8.116   9.509   1.521  0.7796  0.4783 -1.2703
22947SOL     OW80564   6.018   7.090  11.630  0.3671 -0.1943 -0.5772
22947SOL    HW180565   6.107   7.062  11.608  0.2702 -1.1948  0.2219
22947SOL    HW280566   5.964   7.057  11.559  0.3272 -1.6825  0.0959
22948SOL     OW80567   5.289   3.932   0.268  0.4865 -0.1102 -0.3854
22948SOL    HW180568   5.272   3.983   0.189 -0.6395  0.2845  0.0877
22948SOL    HW280569   5.381   3.907   0.261  0.6613  0.7205 -1.3540
22949SOL     OW80570   2.036   6.182   8.621  0.2623  0.1799  0.9848
22949SOL    HW180571   1.977   6.238   8.570  0.5710  0.1669  0.6107
22949SOL    HW280572   2.114   6.236   8.634  0.8488 -0.4075  0.0154
22950SOL     OW80573   3.687   2.697  10.890  0.0071  0.2757 -0.2008
22950SOL    HW180574   3.659   2.669  10.977  1.5851 -0.6726  0.0315
22950SOL    HW280575   3.661   2.626  10.832 -2.5377  1.5997 -0.8648
22951SOL     OW80576   8.483   2.806   4.136  0.1091 -0.1817 -0.1861
22951SOL    HW180577   8.532   2.737   4.090 -0.1925  0.1965 -1.0857
22951SOL    HW280578   8.432   2.758   4.202 -0.9020 -0.9645 -1.4833
22952SOL     OW80579  11.439  11.495   5.265  0.5823 -0.5506 -0.2100
22952SOL    HW180580  11.388  11.497   5.346  0.1095 -1.1028 -0.4903
22952SOL    HW280581  11.509  11.559   5.280 -1.1189  1.4588 -0.4389
22953SOL     OW80582   8.694   1.654   2.649  0.2993 -0.2662  0.1057
22953SOL    HW180583   8.687   1.563   2.620  0.6767 -0.5970  1.0329
22953SOL    HW280584   8.747   1.696   2.581 -1.8120 -0.1499 -1.5692
22954SOL     OW80585   0.132   7.819   5.949 -0.1198  0.8190  0.2034
22954SOL    HW180586   0.092   7.803   5.864 -0.5569 -0.9900  0.7054
22954SOL    HW280587   0.225   7.802   5.935 -0.4866 -1.8782  0.5694
22955SOL     OW80588   5.326   3.106   4.088  0.7376 -0.0024 -0.1504
22955SOL    HW180589   5.306   3.027   4.138  1.0200 -0.4828 -0.7684
22955SOL    HW280590   5.422   3.105   4.079  0.6587 -0.1716 -1.0722
22956SOL     OW80591   8.601   1.489   9.725  0.1227 -0.2391  0.1101
22956SOL    HW180592   8.649   1.426   9.670  0.6537  1.1513 -1.0892
22956SOL    HW280593   8.608   1.572   9.677 -1.0747  0.6070  1.3494
22957SOL     OW80594   2.102   0.188   3.230 -0.0737  0.0356 -0.2934
22957SOL    HW180595   2.103   0.094   3.245 -0.3478 -0.3967 -2.7416
22957SOL    HW280596   2.181   0.220   3.275 -1.2719 -0.9036  2.7444
22958SOL     OW80597   7.683   1.003   1.490 -0.0522 -0.0002  0.7465
22958SOL    HW180598   7.649   1.092   1.497 -1.3826 -0.4284 -0.0574
22958SOL    HW280599   7.765   1.006   1.539  0.1263  1.7568  0.4242
22959SOL     OW80600   4.302   9.495   0.939 -0.3234  0.0981  1.3379
22959SOL    HW180601   4.270   9.565   0.996  0.2530 -1.1598  3.3056
22959SOL    HW280602   4.260   9.512   0.855 -1.6104  1.7593  2.2492
22960SOL     OW80603   0.440   0.037  11.894 -0.4862  0.0551 -0.1135
22960SOL    HW180604   0.494   0.064  11.819 -0.4564  0.5422  0.0796
22960SOL    HW280605   0.384  -0.032  11.859 -0.2456  0.0526 -0.5034
22961SOL     OW80606  11.056   5.801   8.794  0.3452  0.2086  0.0335
22961SOL    HW180607  11.073   5.830   8.705  1.5024 -0.8726 -0.1226
22961SOL    HW280608  10.981   5.742   8.786  1.4282 -1.1310 -0.4865
22962SOL     OW80609   5.488   7.045   4.386 -0.0531  0.1143  0.4310
22962SOL    HW180610   5.481   6.952   4.408 -0.1168  0.3799  1.6034
22962SOL    HW280611   5.580   7.067   4.399 -0.2624  0.4892  1.3704
22963SOL     OW80612   8.966   2.864   8.837  0.1136  0.1649 -0.4689
22963SOL    HW180613   9.035   2.876   8.902  1.7168 -0.3697 -2.0068
22963SOL    HW280614   8.941   2.953   8.812 -0.7777  0.3851  1.0807
22964SOL     OW80615  11.450   2.784  11.020  0.3647 -0.1039  0.1422
22964SOL    HW180616  11.375   2.724  11.025 -0.2304  0.3362 -2.3519
22964SOL    HW280617  11.519   2.740  11.070 -0.2517 -2.5927 -1.0297
22965SOL     OW80618   4.371   7.605   1.633  0.4400 -0.2637 -0.8097
22965SOL    HW180619   4.300   7.630   1.693  1.5511  0.0533  0.4239
22965SOL    HW280620   4.329   7.599   1.548 -1.1120 -0.2728 -0.0853
22966SOL     OW80621   6.905   3.203  11.905  0.0622 -0.1226 -0.3807
22966SOL    HW180622   6.870   3.135  11.846  0.0579 -0.1079 -0.3947
22966SOL    HW280623   6.977   3.160  11.950  0.0283 -0.1518 -0.3538
22967SOL     OW80624   8.377   1.511   9.396 -0.5107  0.3464 -0.0906
22967SOL    HW180625   8.298   1.544   9.438  0.7475  0.7876  2.1480
22967SOL    HW280626   8.377   1.417   9.416  0.4033  0.6587  1.6271
22968SOL     OW80627   4.899   7.731  10.860  0.4098 -0.2789 -0.3955
22968SOL    HW180628   4.898   7.819  10.896  0.4554 -0.7301  0.7652
22968SOL    HW280629   4.920   7.743  10.767  2.6452  0.7948  0.1693
22969SOL     OW80630  10.802   1.081  10.145  0.5503 -0.0772 -0.4130
22969SOL    HW180631  10.784   1.127  10.063 -0.4253 -1.4156 -0.9931
22969SOL    HW280632  10.834   0.995  10.118 -1.0636 -1.0404  0.5481
22970SOL     OW80633   3.506   9.791  11.913 -0.0469 -0.1833 -0.3258
22970SOL    HW180634   3.462   9.874  11.931 -2.4843 -1.9262  3.0989
22970SOL    HW280635   3.457   9.753  11.840 -0.4146  0.4306 -0.4032
22971SOL     OW80636  10.904   5.342   6.172 -0.4935  0.0451 -0.6268
22971SOL    HW180637  10.923   5.266   6.228 -1.5033  1.5755  2.0138
22971SOL    HW280638  10.981   5.398   6.181 -0.6423  0.2770 -0.8035
22972SOL     OW80639   9.077   8.626   0.629 -0.3866  0.4500 -0.3802
22972SOL    HW180640   9.140   8.671   0.573 -0.3132  0.2187 -0.4859
22972SOL    HW280641   9.079   8.674   0.712 -1.2510  1.4227 -0.9101
22973SOL     OW80642   2.742   5.589   3.762  0.0664 -0.7131  0.5201
22973SOL    HW180643   2.756   5.567   3.854 -0.6923 -0.9981  0.5759
22973SOL    HW280644   2.797   5.527   3.714 -1.2265 -2.0868  0.7150
22974SOL     OW80645  10.093   3.185   3.199 -0.1139 -0.2904 -0.3719
22974SOL    HW180646  10.023   3.250   3.190  0.5644  0.6553  0.8904
22974SOL    HW280647  10.063   3.110   3.148 -1.4223  0.6010 -0.9593
22975SOL     OW80648   3.427   8.199   4.824 -0.1257  0.3964 -0.5793
22975SOL    HW180649   3.402   8.202   4.731 -0.3121 -0.4712 -0.5576
22975SOL    HW280650   3.452   8.108   4.840  0.7870  0.7370 -0.0016
22976SOL     OW80651   4.957   5.582   1.070 -0.2112 -0.4686  0.0925
22976SOL    HW180652   4.927   5.670   1.045  1.0106 -0.1065 -0.1368
22976SOL    HW280653   5.004   5.595   1.152 -1.2238 -1.1440  0.8179
22977SOL     OW80654  10.651   5.186   0.582 -0.3404 -0.0241  0.1340
22977SOL    HW180655  10.694   5.234   0.653  0.1347 -0.2314 -0.0043
22977SOL    HW280656  10.724   5.147   0.533 -0.6925 -0.3607 -0.1247
22978SOL     OW80657   1.619   0.410   9.357  0.2013 -0.3794  0.2753
22978SOL    HW180658   1.662   0.378   9.436  1.3360 -1.4017 -0.7137
22978SOL    HW280659   1.529   0.378   9.364  0.2930 -0.4727  1.1337
22979SOL     OW80660   7.639   7.091  11.005  0.5782 -0.2927  0.6495
22979SOL    HW180661   7.608   7.172  11.046  1.7410  0.6728 -0.2762
22979SOL    HW280662   7.608   7.096  10.915 -1.9118 -2.3656  1.2706
22980SOL     OW80663   8.342   6.689   8.009  0.6848 -0.5479  0.0201
22980SOL    HW180664   8.381   6.776   8.014 -0.8111  0.2841 -1.4463
22980SOL    HW280665   8.416   6.629   8.007  1.7808  0.7609  0.1774
22981SOL     OW80666   9.925   4.674   7.707 -0.2640 -0.2734  0.0535
22981SOL    HW180667  10.003   4.679   7.651 -0.0050 -0.7460  0.3685
22981SOL    HW280668   9.851   4.683   7.646  0.0423  1.2945 -0.1188
22982SOL     OW80669  10.192   3.156  11.239 -0.3386 -0.1746  0.3595
22982SOL    HW180670  10.113   3.132  11.287  0.0649 -1.2304  0.5072
22982SOL    HW280671  10.175   3.130  11.149 -0.5233  0.4832  0.1950
22983SOL     OW80672   1.718   3.915   4.067  0.0556 -0.7906 -0.7169
22983SOL    HW180673   1.692   3.993   4.019 -0.8243 -0.1983  0.6761
22983SOL    HW280674   1.806   3.894   4.033 -0.2402  0.0006 -2.0439
22984SOL     OW80675   1.332   5.568   7.547 -0.4614  0.2905 -0.1388
22984SOL    HW180676   1.370   5.556   7.460  1.1628  0.0921  0.5583
22984SOL    HW280677   1.248   5.522   7.544 -0.6613  0.6925 -1.7260
22985SOL     OW80678   7.644   1.395  11.128 -0.0943 -0.3755  0.1343
22985SOL    HW180679   7.595   1.428  11.204  0.1111 -1.5732  0.8088
22985SOL    HW280680   7.719   1.455  11.121 -0.7035  0.4083  0.1821
22986SOL     OW80681   3.125   0.506   8.200  0.7078 -0.3769  0.5015
22986SOL    HW180682   3.063   0.522   8.272 -0.5967  0.8507 -0.8330
22986SOL    HW280683   3.118   0.412   8.182 -0.9250 -0.2396  0.2698
22987SOL     OW80684   9.780   9.505   7.907  0.1265  0.3321  0.0322
22987SOL    HW180685   9.794   9.596   7.935  0.1858  0.1928  0.4591
22987SOL    HW280686   9.692   9.506   7.867 -0.7016  0.1885  1.7505
22988SOL     OW80687   6.737   9.421   3.076  0.3330  0.0451  0.0500
22988SOL    HW180688   6.815   9.393   3.028  0.3602 -1.0563  0.7280
22988SOL    HW280689   6.763   9.422   3.168  0.1823  1.8295  0.1269
22989SOL     OW80690   6.650   0.039   9.339 -0.2394 -0.7563 -0.4049
22989SOL    HW180691   6.733   0.085   9.325  0.5692 -0.7749  3.2125
22989SOL    HW280692   6.606   0.042   9.254  2.3611  1.4396 -1.8440
22990SOL     OW80693   4.142   2.006   3.615  0.2277 -0.0093  0.2943
22990SOL    HW180694   4.203   1.939   3.583  0.0866  0.1931 -0.4051
22990SOL    HW280695   4.163   2.014   3.708  0.2930 -0.9802  0.3787
22991SOL     OW80696  10.447   4.812   2.948  0.4708 -0.3594 -0.2058
22991SOL    HW180697  10.486   4.893   2.914 -1.9401  1.1932  0.4623
22991SOL    HW280698  10.397   4.777   2.874 -2.3218  1.4026  0.6980
22992SOL     OW80699   3.956   9.790   9.707 -0.0164  0.3195  0.1019
22992SOL    HW180700   4.001   9.862   9.663  0.3236  0.1217  0.1239
22992SOL    HW280701   4.008   9.712   9.686  0.5423  0.3180  1.4029
22993SOL     OW80702   8.438  10.985   8.318  0.4955  0.3559  0.3750
22993SOL    HW180703   8.506  11.049   8.294  0.4342  0.4295  0.4007
22993SOL    HW280704   8.487  10.913   8.358  0.6807 -0.0901 -0.6267
22994SOL     OW80705   3.970   6.210  10.969 -0.5437 -0.4638 -0.2744
22994SOL    HW180706   3.954   6.211  11.064  0.2374 -1.8298 -0.1108
22994SOL    HW280707   4.016   6.292  10.952  1.8092 -1.4115  1.0271
22995SOL     OW80708   7.121   8.310   9.162 -0.4351 -0.4189  0.1309
22995SOL    HW180709   7.081   8.246   9.103  0.8223 -0.7530 -0.3878
22995SOL    HW280710   7.183   8.258   9.214 -1.2244 -0.0614  1.4914
22996SOL     OW80711  10.572   0.060  10.015 -0.2868 -0.5507  0.0410
22996SOL    HW180712  10.494   0.088  10.062  0.1414  2.6528 -0.9111
22996SOL    HW280713  10.633   0.134  10.022  0.0746  0.0053 -4.8366
22997SOL     OW80714   6.076   7.214   5.516 -0.2788  0.5947  0.1306
22997SOL    HW180715   6.040   7.278   5.454  0.4760  2.1602  1.2149
22997SOL    HW280716   6.170   7.216   5.500 -0.0849  0.9315  1.1876
22998SOL     OW80717   2.034   0.870   4.643 -0.3794 -0.0029 -0.4784
22998SOL    HW180718   2.117   0.874   4.691 -1.3690 -0.1686  1.3052
22998SOL    HW280719   2.048   0.929   4.568  0.8730  1.0989  0.5561
22999SOL     OW80720   2.337   8.097   5.582  0.2085 -0.3622  0.3827
22999SOL    HW180721   2.287   8.092   5.501 -2.2856 -1.4686  1.8775
22999SOL    HW280722   2.288   8.158   5.637  1.4250 -0.2142  1.3463
23000SOL     OW80723   8.704   3.910   6.988 -0.6105 -0.0019 -0.0199
23000SOL    HW180724   8.635   3.963   7.028  0.3135  0.2214  1.3900
23000SOL    HW280725   8.722   3.953   6.905 -2.7792 -0.6096 -0.8610
23001SOL     OW80726   7.544   5.987   7.880 -0.4976 -0.3758 -0.4318
23001SOL    HW180727   7.563   6.034   7.799 -0.2784 -1.7964 -1.2355
23001SOL    HW280728   7.629   5.974   7.922 -0.5050 -0.4501 -0.4392
23002SOL     OW80729   9.448   5.670   0.660 -0.1413  0.1405 -0.3129
23002SOL    HW180730   9.490   5.708   0.736  0.0023 -0.8142  0.1021
23002SOL    HW280731   9.355   5.665   0.684  0.1230 -1.6537  0.4751
23003SOL     OW80732   1.838   2.211   2.566  0.2467 -0.3794  0.1766
23003SOL    HW180733   1.820   2.119   2.580 -1.1211  0.0575  1.5714
23003SOL    HW280734   1.901   2.234   2.635 -0.9983  0.1553  1.1867
23004SOL     OW80735   0.807   2.247   7.744  0.4834  0.4269  0.7004
23004SOL    HW180736   0.812   2.192   7.822  2.8160  0.2518  0.4759
23004SOL    HW280737   0.892   2.237   7.701 -1.4973 -1.4659 -3.2631
23005SOL     OW80738  10.573   1.369   2.471 -0.2584 -0.1395  0.4494
23005SOL    HW180739  10.644   1.318   2.433  0.4272  0.4871  0.8603
23005SOL    HW280740  10.559   1.331   2.557 -1.8409 -1.5869 -0.3697
23006SOL     OW80741   9.766   6.131  11.138 -0.1560  0.7148 -0.5520
23006SOL    HW180742   9.807   6.169  11.060 -1.4553 -2.2374 -2.8842
23006SOL    HW280743   9.674   6.154  11.130 -0.3549  0.0985 -0.0621
23007SOL     OW80744   8.396   4.163   2.441 -0.3331  0.2680  0.2932
23007SOL    HW180745   8.394   4.101   2.514  1.4682 -0.7063 -0.4306
23007SOL    HW280746   8.341   4.122   2.374 -0.1310  0.0402  0.2644
23008SOL     OW80747   5.018  10.270   6.740 -0.0815 -0.1369 -0.0524
23008SOL    HW180748   5.111  10.258   6.720  0.2194  1.2693  0.4319
23008SOL    HW280749   4.995  10.352   6.696 -0.9903 -0.2546  0.2012
23009SOL     OW80750   7.228  10.453  11.312  0.0722 -0.3636 -0.1609
23009SOL    HW180751   7.197  10.436  11.223 -0.2307 -1.1709  0.0901
23009SOL    HW280752   7.184  10.387  11.366 -0.0497  0.3681  0.6491
23010SOL     OW80753   6.606   8.969   9.811  0.7969  0.3639 -0.6887
23010SOL    HW180754   6.659   8.893   9.788 -0.8818 -1.0797  0.0254
23010SOL    HW280755   6.646   9.001   9.893  0.8460 -0.4341 -0.3909
23011SOL     OW80756   0.326   5.197  10.784  0.7393 -0.4116 -0.0080
23011SOL    HW180757   0.326   5.249  10.864 -0.1297 -0.6641  0.1729
23011SOL    HW280758   0.391   5.129  10.799  0.9178 -0.1758  0.2907
23012SOL     OW80759   5.198   0.495   6.299  0.0307 -0.7003 -0.8644
23012SOL    HW180760   5.118   0.524   6.254 -0.5709 -1.0851 -0.0691
23012SOL    HW280761   5.169   0.472   6.387  1.2089  0.2285 -0.1972
23013SOL     OW80762   5.767   4.957  10.129  0.1640 -0.3264 -0.1956
23013SOL    HW180763   5.840   4.911  10.088  0.4871  1.5154 -1.8287
23013SOL    HW280764   5.774   4.936  10.222  2.7565 -0.2585 -0.3214
23014SOL     OW80765   8.922   5.558   3.947 -0.1676 -0.4203  0.2082
23014SOL    HW180766   8.871   5.636   3.970 -0.3796 -0.3807 -0.3771
23014SOL    HW280767   8.972   5.585   3.869 -0.5353 -0.9867 -0.2267
23015SOL     OW80768   9.277  11.401   4.536  0.2536 -0.3543  0.0768
23015SOL    HW180769   9.191  11.410   4.578 -0.7768 -2.2848 -1.4427
23015SOL    HW280770   9.288  11.307   4.524  1.8781 -0.0462 -1.1937
23016SOL     OW80771   6.093   4.991   1.704  0.2599  0.5202 -0.0874
23016SOL    HW180772   6.125   4.970   1.792 -0.0800 -0.7938 -0.2629
23016SOL    HW280773   6.020   4.931   1.690  0.3804  0.6408 -1.3149
23017SOL     OW80774   8.995  11.185   0.039 -0.8244 -0.5464  0.4338
23017SOL    HW180775   9.009  11.099  -0.002  0.2111  0.2763 -1.0446
23017SOL    HW280776   9.017  11.172   0.131  0.1363 -1.6716  0.0674
23018SOL     OW80777   1.820   8.437   6.782 -0.3783  0.1351 -0.3721
23018SOL    HW180778   1.807   8.394   6.697 -1.8621 -0.5030  0.1327
23018SOL    HW280779   1.908   8.475   6.777  0.6835 -2.2258 -1.1846
23019SOL     OW80780  10.394   2.671  11.169  0.0995 -0.4740 -0.2123
23019SOL    HW180781  10.302   2.646  11.167 -0.3903  1.0132  1.1868
23019SOL    HW280782  10.434   2.621  11.098 -1.8383 -0.8803 -1.0959
23020SOL     OW80783   1.688   9.662   9.119 -0.3733  0.2529 -0.3069
23020SOL    HW180784   1.623   9.598   9.147  0.0682  0.6721  1.8563
23020SOL    HW280785   1.770   9.633   9.159  0.0735  1.5051 -0.2537
23021SOL     OW80786   0.829   1.636   9.188 -0.5972  0.0068 -0.4000
23021SOL    HW180787   0.809   1.544   9.209  0.5936 -0.5299 -1.4614
23021SOL    HW280788   0.922   1.636   9.167 -1.1640  0.8443 -3.4391
23022SOL     OW80789   2.485  11.232   1.682  0.3044 -0.1630  0.5976
23022SOL    HW180790   2.475  11.137   1.686  2.5322 -0.5788 -1.4157
23022SOL    HW280791   2.452  11.257   1.596 -0.5930  0.9798  1.2377
23023SOL     OW80792   5.414   1.915   5.418 -0.1595 -0.2055  0.2197
23023SOL    HW180793   5.374   1.871   5.493  0.0189  0.6979  0.8702
23023SOL    HW280794   5.492   1.958   5.454  1.6589 -2.2205 -1.0791
23024SOL     OW80795   5.670   6.352   6.246 -0.1630 -0.4437 -0.1484
23024SOL    HW180796   5.617   6.272   6.243 -2.1246  0.8354 -2.3242
23024SOL    HW280797   5.620   6.412   6.301  0.6414 -0.2501  0.3851
23025SOL     OW80798   5.134   6.120   5.534  0.3001 -0.3646 -0.2491
23025SOL    HW180799   5.175   6.132   5.619 -1.6459 -0.2843  0.7518
23025SOL    HW280800   5.109   6.209   5.507  1.2815 -0.3401 -1.1299
23026SOL     OW80801   3.336   7.316  10.464 -0.3006 -0.1243 -0.1412
23026SOL    HW180802   3.419   7.353  10.433 -0.3418  0.4863  0.4796
23026SOL    HW280803   3.348   7.221  10.454  0.3382 -0.0250 -0.3891
23027SOL     OW80804   2.178   0.832   7.200 -0.2110  0.3368  0.3263
23027SOL    HW180805   2.099   0.880   7.172 -1.3932 -1.4632  0.4107
23027SOL    HW280806   2.181   0.845   7.294 -1.1985 -0.6414  0.5170
23028SOL     OW80807   8.515   3.452   3.796 -0.4553 -0.3436 -0.0249
23028SOL    HW180808   8.517   3.537   3.839 -1.7099 -0.1471 -0.3281
23028SOL    HW280809   8.445   3.404   3.840 -0.1913 -0.9924 -0.2942
23029SOL     OW80810   0.097  10.161   5.740  0.4578  0.2815 -0.1674
23029SOL    HW180811   0.082  10.066   5.731 -2.0534  0.3694  2.1565
23029SOL    HW280812   0.081  10.195   5.652 -3.4026 -1.0018 -0.1623
23030SOL     OW80813   5.704  10.191   8.723 -0.4558 -0.0066 -0.0265
23030SOL    HW180814   5.712  10.107   8.678  2.2877 -0.0517  0.3931
23030SOL    HW280815   5.703  10.256   8.653  2.1390 -0.1782 -0.3395
23031SOL     OW80816   4.285   6.921   9.076  0.3497  0.1479 -0.0898
23031SOL    HW180817   4.301   6.853   9.010  0.2704 -0.2573  0.2982
23031SOL    HW280818   4.265   6.872   9.156  0.0888  0.6338  0.1471
23032SOL     OW80819   0.066   6.904   6.136 -0.2188  0.4742 -0.3319
23032SOL    HW180820   0.055   6.830   6.196  2.0220 -0.2678 -0.7372
23032SOL    HW280821  -0.021   6.944   6.130 -1.4534 -1.9953  0.0534
23033SOL     OW80822   0.109   7.418   3.468  0.0316  0.4488 -0.0922
23033SOL    HW180823   0.152   7.364   3.534 -0.1159 -0.7053 -0.9135
23033SOL    HW280824   0.109   7.365   3.389 -0.0356  1.7039 -0.9643
23034SOL     OW80825   3.810  10.963  11.552 -0.5466  0.4324  0.5673
23034SOL    HW180826   3.878  11.020  11.515  0.2229 -0.9500 -0.2395
23034SOL    HW280827   3.730  10.990  11.507 -0.5236  1.8852  1.3179
23035SOL     OW80828   0.042   7.264  10.334  0.3594 -0.3229 -0.0954
23035SOL    HW180829   0.078   7.176  10.347 -1.8927 -1.1433  1.1857
23035SOL    HW280830   0.081   7.316  10.405 -0.5990 -1.1052  1.0508
23036SOL     OW80831   6.136   2.861   8.675 -0.1604 -0.3300 -0.0978
23036SOL    HW180832   6.088   2.944   8.674  1.8853  0.9788  1.3318
23036SOL    HW280833   6.142   2.837   8.767  2.6462  0.1344 -0.0424
23037SOL     OW80834   6.510   0.526   9.570  0.1570  0.3138  0.5674
23037SOL    HW180835   6.552   0.469   9.634  0.7350  1.2139  1.0228
23037SOL    HW280836   6.457   0.468   9.516  0.4822 -0.5975  1.2103
23038SOL     OW80837  10.054   8.209   9.935  0.1307  0.2426 -0.0513
23038SOL    HW180838   9.959   8.209   9.948  0.4557 -0.2409  3.2418
23038SOL    HW280839  10.080   8.300   9.946  0.0990  0.3011 -0.4614
23039SOL     OW80840  10.378   2.609   4.448  0.0816  0.3303  0.9133
23039SOL    HW180841  10.356   2.522   4.415  0.9759  0.4273  0.0052
23039SOL    HW280842  10.400   2.660   4.370  1.4477  0.8123  1.5732
23040SOL     OW80843   5.291   6.642   0.478  0.4074  0.7496 -0.5209
23040SOL    HW180844   5.376   6.671   0.512  1.8426 -2.0343 -1.4517
23040SOL    HW280845   5.229   6.659   0.550  2.7735 -2.2129  2.5276
23041SOL     OW80846   3.410   5.868   2.892 -0.1151 -0.3256 -0.4064
23041SOL    HW180847   3.429   5.775   2.878 -0.8729 -0.5475 -0.0147
23041SOL    HW280848   3.321   5.869   2.928 -0.4004  0.6023 -1.1064
23042SOL     OW80849   2.954   6.076  10.026 -0.0320 -0.0458 -0.3944
23042SOL    HW180850   2.945   5.982  10.012  1.1632 -0.7814  2.7749
23042SOL    HW280851   2.884   6.098  10.088  2.0644  0.1526  2.0901
23043SOL     OW80852   9.526   0.532   8.857 -0.0368  0.1282  0.3098
23043SOL    HW180853   9.594   0.523   8.923 -0.7378  1.7322  1.3273
23043SOL    HW280854   9.449   0.492   8.897 -0.4522  1.0617  0.4869
23044SOL     OW80855   0.056   8.491   9.483  0.2487 -0.2209  1.1585
23044SOL    HW180856   0.125   8.427   9.468 -0.0054 -0.4988  1.1692
23044SOL    HW280857   0.098   8.560   9.535  0.0737 -1.2327  2.6933
23045SOL     OW80858   8.462   3.028   0.912  0.2413 -0.1909 -0.1983
23045SOL    HW180859   8.423   2.950   0.950  2.0263 -1.5351 -0.9440
23045SOL    HW280860   8.394   3.095   0.918 -0.6154 -1.1817  2.4083
23046SOL     OW80861   9.869   6.003   6.412 -0.0836  0.3524 -0.1415
23046SOL    HW180862   9.820   6.078   6.446 -1.0538 -0.2238 -0.2414
23046SOL    HW280863   9.853   6.003   6.318  0.8170  0.6535 -0.3091
23047SOL     OW80864   7.503   2.084  10.095 -0.0526 -0.2441  0.0318
23047SOL    HW180865   7.495   2.129  10.178 -0.3113 -1.0716  0.4722
23047SOL    HW280866   7.595   2.058  10.089 -0.0329 -0.1792  0.0616
23048SOL     OW80867   3.610   2.722   3.251  0.5634  0.0388  0.6911
23048SOL    HW180868   3.692   2.674   3.245 -0.2736 -1.2417 -2.6941
23048SOL    HW280869   3.635   2.814   3.243  1.8472 -0.0105  3.2276
23049SOL     OW80870  11.953   9.925   8.488 -0.0185 -0.0835 -0.3752
23049SOL    HW180871  12.046   9.923   8.464  0.5558 -0.4108  1.6557
23049SOL    HW280872  11.931   9.833   8.505 -0.0588  0.2143  1.3349
23050SOL     OW80873   0.781   4.654   2.281 -0.0094  0.0979 -0.2949
23050SOL    HW180874   0.735   4.573   2.262  0.9246 -0.4296 -0.3181
23050SOL    HW280875   0.750   4.715   2.214 -2.0274  0.3092  0.7301
23051SOL     OW80876   8.905   9.493  11.195 -0.1235 -0.4546  0.1279
23051SOL    HW180877   8.953   9.443  11.261  1.6558 -0.3992 -1.0698
23051SOL    HW280878   8.937   9.582  11.203  0.8904 -0.6445 -1.4617
23052SOL     OW80879   4.408   2.500   5.584  0.2136 -0.5159  0.6367
23052SOL    HW180880   4.401   2.427   5.522  0.5945  0.7912 -1.0081
23052SOL    HW280881   4.498   2.531   5.575 -0.3394  1.0495  0.2314
23053SOL     OW80882   6.039   6.863   2.386 -0.4155  0.5501  0.5382
23053SOL    HW180883   6.090   6.819   2.318 -1.5361  1.3786 -0.9040
23053SOL    HW280884   6.059   6.956   2.376 -0.4639  0.6725  1.4640
23054SOL     OW80885  11.082   9.057   9.371 -0.3528 -0.6267 -0.2974
23054SOL    HW180886  11.085   8.961   9.376 -0.7911 -0.7562 -1.9638
23054SOL    HW280887  11.001   9.076   9.324  0.1025  0.5348 -0.6474
23055SOL     OW80888   5.615  10.072   1.304  0.3595 -0.5455 -0.0332
23055SOL    HW180889   5.705  10.100   1.318  0.5727 -0.7625 -0.8719
23055SOL    HW280890   5.620   9.977   1.299 -0.3424 -0.7903  2.6863
23056SOL     OW80891   5.997  11.719  10.858 -0.2128 -0.1561  0.3562
23056SOL    HW180892   5.987  11.805  10.817 -0.5543  0.1368  1.0272
23056SOL    HW280893   6.076  11.727  10.911 -0.5952 -0.0421  0.9187
23057SOL     OW80894   1.198  11.521  11.891  0.4149 -0.5975  0.2183
23057SOL    HW180895   1.132  11.493  11.956  1.7654  0.0168  1.9317
23057SOL    HW280896   1.195  11.453  11.824 -2.0750 -0.4978  0.1258
23058SOL     OW80897  10.375   7.116   0.646 -0.5458  0.2817 -0.5685
23058SOL    HW180898  10.380   7.186   0.581  0.8139  0.4524 -0.3128
23058SOL    HW280899  10.293   7.133   0.693 -1.1123  0.6583 -1.6506
23059SOL     OW80900   1.976   4.993   0.636  0.6872 -0.2756 -0.7037
23059SOL    HW180901   1.883   4.972   0.634  0.3842  0.8903  0.0006
23059SOL    HW280902   1.996   5.001   0.730  1.2545  0.4824 -0.8845
23060SOL     OW80903   2.129   2.852   7.943 -0.3384  0.2490  0.1896
23060SOL    HW180904   2.083   2.768   7.943 -0.9641  0.5917  0.2315
23060SOL    HW280905   2.153   2.866   7.851  2.0756 -1.2182  0.5257
23061SOL     OW80906  11.325   7.679  10.610 -0.2783 -0.0347  0.0728
23061SOL    HW180907  11.330   7.774  10.621 -0.9084  0.3297 -2.2376
23061SOL    HW280908  11.368   7.661  10.527  2.2714 -2.1764  1.6931
23062SOL     OW80909   4.147   2.388   5.346  0.1242  0.3088 -0.0366
23062SOL    HW180910   4.186   2.301   5.334 -1.1077 -0.4048  0.9288
23062SOL    HW280911   4.118   2.414   5.258  0.2431 -0.3803 -0.2851
23063SOL     OW80912   2.520   3.393   5.332 -0.1099  0.5161  0.1523
23063SOL    HW180913   2.584   3.464   5.336  0.9878 -0.4716  0.7363
23063SOL    HW280914   2.482   3.390   5.420 -3.8758  3.5692 -1.0593
23064SOL     OW80915  10.498   7.239   9.257  0.1276  0.0474  0.1809
23064SOL    HW180916  10.494   7.335   9.254  0.9159  0.1210  1.0531
23064SOL    HW280917  10.574   7.217   9.205 -0.2731 -0.1334 -0.3315
23065SOL     OW80918   5.852   1.584  11.234  0.1085  0.2238  0.7276
23065SOL    HW180919   5.759   1.593  11.255 -0.1844 -0.5147 -0.1261
23065SOL    HW280920   5.873   1.662  11.183 -0.0522  0.3805  0.9012
23066SOL     OW80921   5.038   1.878   3.547  0.6117  0.0461  0.0222
23066SOL    HW180922   5.075   1.793   3.524 -1.1585 -1.0037  0.8328
23066SOL    HW280923   5.056   1.887   3.641 -1.0616 -0.4832  0.4338
23067SOL     OW80924   5.167   2.983  10.039 -0.6416 -0.3990  0.6587
23067SOL    HW180925   5.153   2.895  10.074 -0.1394 -0.1724  1.4397
23067SOL    HW280926   5.086   3.030  10.059 -0.9062 -0.6676  0.2510
23068SOL     OW80927   8.171   4.722   7.748 -0.0992 -0.3656 -0.0090
23068SOL    HW180928   8.215   4.803   7.723  0.9914 -0.6414  0.9443
23068SOL    HW280929   8.131   4.741   7.833 -3.5638  0.4852 -1.6536
23069SOL     OW80930   1.822   6.512   1.392  0.6785 -0.4891  0.0365
23069SOL    HW180931   1.753   6.447   1.379  0.3923 -0.2728  0.4399
23069SOL    HW280932   1.780   6.582   1.442  1.2835 -0.5241  0.6066
23070SOL     OW80933   7.596   3.621   8.448 -0.3619  0.6474 -0.0023
23070SOL    HW180934   7.650   3.548   8.476 -0.2262 -0.3657 -2.6899
23070SOL    HW280935   7.508   3.584   8.440 -0.2661  0.7071 -1.5223
23071SOL     OW80936   4.082   7.768   9.625 -0.1067 -0.2461 -0.5025
23071SOL    HW180937   4.141   7.773   9.700  0.5442  0.3300 -1.0359
23071SOL    HW280938   4.037   7.853   9.624  0.3402 -0.0094 -1.1207
23072SOL     OW80939   4.456   5.867   5.512  0.0009  0.4241  0.0437
23072SOL    HW180940   4.509   5.907   5.581  0.5245 -1.4753  0.8043
23072SOL    HW280941   4.369   5.858   5.551 -0.1901  1.0080 -0.2251
23073SOL     OW80942   4.127   3.305  11.714  0.0887  0.3748 -0.3138
23073SOL    HW180943   4.072   3.277  11.641  0.2536  2.6140 -1.4037
23073SOL    HW280944   4.078   3.282  11.792 -1.4236  0.4163 -1.2091
23074SOL     OW80945   0.574   8.971   7.940  0.5964 -0.0498  0.0435
23074SOL    HW180946   0.619   8.898   7.981  0.9869  0.3933  0.4075
23074SOL    HW280947   0.484   8.940   7.930  0.7353 -0.5457  0.2735
23075SOL     OW80948   9.770   2.126  11.317 -0.4157  0.0328  0.2934
23075SOL    HW180949   9.816   2.209  11.329  1.0825 -0.4931 -1.4551
23075SOL    HW280950   9.678   2.148  11.333 -0.2151  2.2841 -1.1364
23076SOL     OW80951   5.167   9.923   9.074 -0.3793  0.7264  0.1446
23076SOL    HW180952   5.150   9.852   9.137 -0.2168  0.2620 -0.3312
23076SOL    HW280953   5.116   9.996   9.108  0.2754  0.7097  1.2238
23077SOL     OW80954   0.151   0.970  10.068  0.1943 -0.4804 -0.0653
23077SOL    HW180955   0.098   1.049  10.081  1.2225  0.1073  0.7227
23077SOL    HW280956   0.231   1.001  10.027  1.1742 -0.8843  1.4550
23078SOL     OW80957   5.063   8.920  11.474  0.6043  0.0741 -0.1154
23078SOL    HW180958   5.147   8.965  11.470  0.1180  1.0108 -0.1377
23078SOL    HW280959   5.064   8.873  11.557  1.8962 -1.4834 -0.9532
23079SOL     OW80960   6.703   0.558   4.532  0.6716 -0.4427 -0.0809
23079SOL    HW180961   6.787   0.604   4.537  2.7582 -3.9813  0.7050
23079SOL    HW280962   6.705   0.515   4.447 -0.6190 -0.2203 -0.2479
23080SOL     OW80963   5.366   5.323   4.484 -0.5423 -0.7645 -0.1282
23080SOL    HW180964   5.365   5.244   4.429 -0.7275 -0.2184 -0.9216
23080SOL    HW280965   5.432   5.304   4.550 -0.3026 -1.4363 -0.5365
23081SOL     OW80966  11.201  11.599   6.618 -0.0695  0.0268 -0.0001
23081SOL    HW180967  11.214  11.611   6.524 -0.6438 -1.1090 -0.2405
23081SOL    HW280968  11.207  11.504   6.631  0.3821  0.2010  1.1764
23082SOL     OW80969   1.887  11.131  10.901  0.1332  0.3555 -0.2364
23082SOL    HW180970   1.906  11.091  10.816 -0.7758 -0.4782 -0.0617
23082SOL    HW280971   1.931  11.075  10.965  2.3393  1.9817 -0.2297
23083SOL     OW80972   4.164  10.221   6.910 -0.6257 -0.3648 -0.1660
23083SOL    HW180973   4.228  10.166   6.956 -1.1196 -0.9954 -0.2238
23083SOL    HW280974   4.137  10.168   6.835 -0.5579  0.2635 -0.6360
23084SOL     OW80975  11.348   1.867  10.376  0.5699  0.3094  0.0050
23084SOL    HW180976  11.343   1.963  10.374 -1.1065  0.2398 -1.0107
23084SOL    HW280977  11.311   1.842  10.460  2.4774  0.5695  0.9797
23085SOL     OW80978   8.914   2.679   4.512  0.3338  0.9688 -0.3520
23085SOL    HW180979   8.938   2.772   4.505  1.1494  0.9176  1.2353
23085SOL    HW280980   8.993   2.632   4.485  0.5772  0.7730  0.6460
23086SOL     OW80981   4.402   8.117   3.755  0.0874  0.6301  0.3190
23086SOL    HW180982   4.345   8.190   3.778 -2.9509 -1.8572  1.3727
23086SOL    HW280983   4.379   8.096   3.665 -1.8210 -1.1538  1.1201
23087SOL     OW80984   6.601   5.741   4.052  0.5239 -0.1858  0.1239
23087SOL    HW180985   6.621   5.675   4.118 -2.5878  0.7702  2.2060
23087SOL    HW280986   6.529   5.704   4.001 -1.4466  1.5288  1.4804
23088SOL     OW80987   5.360  11.852   7.131 -0.1197  0.0719  0.9826
23088SOL    HW180988   5.374  11.783   7.066  0.1677 -0.5261  1.6677
23088SOL    HW280989   5.384  11.933   7.085 -2.8469  0.0621 -0.6643
23089SOL     OW80990   4.718   5.047   7.932 -0.1036 -0.5355 -0.0878
23089SOL    HW180991   4.735   5.021   7.841 -1.2907 -1.5525 -0.0548
23089SOL    HW280992   4.800   5.086   7.962  0.6469 -1.1402 -1.2652
23090SOL     OW80993   1.286  11.946  10.528 -0.4238  0.3585  0.9042
23090SOL    HW180994   1.311  11.950  10.436 -1.5821  0.7542  0.5911
23090SOL    HW280995   1.304  12.034  10.562  1.5360 -0.2022  1.5184
23091SOL     OW80996   0.397   4.538  11.097  0.7950 -0.4410 -0.4885
23091SOL    HW180997   0.370   4.625  11.124  1.5728 -0.3070 -0.1033
23091SOL    HW280998   0.436   4.499  11.175  3.1226 -0.0249 -1.3676
23092SOL     OW80999   8.080   8.736   4.722  0.3929 -0.1905 -0.5984
23092SOL    HW181000   7.998   8.702   4.756  0.3454  1.0249  0.5910
23092SOL    HW281001   8.056   8.775   4.638 -0.4461  0.8784  0.1035
23093SOL     OW81002  10.926   6.095   6.745  0.2823 -0.0390  0.2066
23093SOL    HW181003  10.833   6.114   6.762  0.3093 -0.7393  1.2685
23093SOL    HW281004  10.936   6.106   6.651 -1.4290 -2.1004 -0.2953
23094SOL     OW81005   8.148   5.156   2.282 -0.5437 -0.0527  0.3217
23094SOL    HW181006   8.077   5.091   2.288  0.2761 -1.1903 -1.2942
23094SOL    HW281007   8.215   5.113   2.228  1.1612  1.1893  1.3542
23095SOL     OW81008   5.647   3.676   8.518  0.2274 -0.0686  0.3115
23095SOL    HW181009   5.658   3.590   8.559  0.8689  0.0426  0.3838
23095SOL    HW281010   5.614   3.656   8.431  1.1706 -0.4528  0.0207
23096SOL     OW81011   8.858   8.110   9.718  0.9987  0.2597  0.4448
23096SOL    HW181012   8.801   8.034   9.706  1.4486 -0.3135  1.7252
23096SOL    HW281013   8.803   8.185   9.695  0.9512 -0.4837 -2.1744
23097SOL     OW81014   2.792   8.045   6.955 -0.5439 -0.1912  0.5507
23097SOL    HW181015   2.752   8.002   6.879 -0.3089 -0.0859  0.3672
23097SOL    HW281016   2.720   8.092   6.996 -0.7368 -0.4977  0.5692
23098SOL     OW81017   7.924   8.187   1.949  0.1024 -0.3584  0.1024
23098SOL    HW181018   7.871   8.112   1.921 -0.2206  0.0403 -0.3677
23098SOL    HW281019   7.989   8.149   2.008  0.0688 -1.0476 -0.2845
23099SOL     OW81020  11.715  10.846   5.660 -0.6179  0.0740 -0.8568
23099SOL    HW181021  11.632  10.817   5.698  0.4115  0.5979  2.1175
23099SOL    HW281022  11.759  10.891   5.732  2.0106  0.3261 -2.4880
23100SOL     OW81023   7.407   3.154  10.884 -0.2620 -1.0391 -0.5108
23100SOL    HW181024   7.319   3.152  10.846 -0.3828 -0.1218 -0.2957
23100SOL    HW281025   7.461   3.197  10.818 -0.4945  0.6702  0.3671
23101SOL     OW81026   6.163   9.708   2.510 -0.2546 -0.2601 -0.0237
23101SOL    HW181027   6.110   9.786   2.493  1.6338  1.0773 -0.1451
23101SOL    HW281028   6.206   9.726   2.593  3.3100  0.7843 -1.8747
23102SOL     OW81029  11.450   7.516   8.365 -0.4988 -0.0619 -0.2087
23102SOL    HW181030  11.425   7.563   8.444 -0.7092 -0.0053 -0.3080
23102SOL    HW281031  11.451   7.584   8.296 -1.8719 -0.3895 -0.5766
23103SOL     OW81032   0.314   6.041   7.132  0.2738 -0.8077 -0.1454
23103SOL    HW181033   0.332   6.058   7.039 -0.5746  2.0836  0.1099
23103SOL    HW281034   0.226   6.004   7.133 -0.2851  0.4562 -0.4628
23104SOL     OW81035   9.603  11.624   0.403 -0.4331 -0.4123 -0.7535
23104SOL    HW181036   9.510  11.646   0.397 -0.5327 -0.2227  1.0849
23104SOL    HW281037   9.645  11.705   0.433  0.1001 -0.9233 -0.1038
23105SOL     OW81038   6.736  10.266   7.621  0.4166 -0.2785 -0.0367
23105SOL    HW181039   6.782  10.349   7.625  1.3633 -0.7842 -0.1406
23105SOL    HW281040   6.788  10.212   7.562 -0.7837 -0.5901 -0.8615
23106SOL     OW81041   7.666   5.540  11.796  0.5757 -0.6118 -0.1761
23106SOL    HW181042   7.706   5.479  11.858  0.0205 -2.3557 -1.4287
23106SOL    HW281043   7.688   5.627  11.829  1.7773 -1.4843  1.4582
23107SOL     OW81044   9.783  11.907   9.670 -0.3047 -0.2672  0.6810
23107SOL    HW181045   9.754  11.907   9.762  1.6731 -1.6325  1.3844
23107SOL    HW281046   9.878  11.890   9.675  0.0938  0.9444 -1.5755
23108SOL     OW81047   5.391   6.171   7.501 -0.0424 -0.9083 -0.3118
23108SOL    HW181048   5.473   6.218   7.514 -1.2378  1.6056 -1.3255
23108SOL    HW281049   5.411   6.106   7.433  0.8703  0.3964 -1.3380
23109SOL     OW81050   2.276  11.531   8.219 -0.5323 -0.0761  0.3849
23109SOL    HW181051   2.237  11.532   8.132  1.4424 -0.1576 -0.5454
23109SOL    HW281052   2.209  11.491   8.275 -1.6357 -0.4854 -1.1754
23110SOL     OW81053   5.174   2.617   6.250 -0.0705 -0.3087 -1.1764
23110SOL    HW181054   5.239   2.681   6.221  1.4965 -1.5543 -0.5882
23110SOL    HW281055   5.148   2.572   6.170  1.2325 -1.0415 -1.2227
23111SOL     OW81056   6.143   5.287   4.307  0.4372 -0.2952  0.1064
23111SOL    HW181057   6.194   5.336   4.242  0.7534 -1.8348 -0.8558
23111SOL    HW281058   6.193   5.207   4.321 -0.2786 -0.5441  1.3173
23112SOL     OW81059   5.042   5.028   2.582 -0.1238 -0.4266  0.0230
23112SOL    HW181060   5.094   4.972   2.525  1.3191 -1.0727  1.8692
23112SOL    HW281061   5.005   4.969   2.648  0.0583  0.5470  1.0426
23113SOL     OW81062   9.712   3.813   9.201  0.4578  0.0353 -0.3396
23113SOL    HW181063   9.737   3.803   9.292  1.2999  0.0511 -0.5615
23113SOL    HW281064   9.794   3.829   9.155 -0.2168  4.0226 -0.5775
23114SOL     OW81065  10.171   6.250   8.452  0.0109 -0.1461  0.1017
23114SOL    HW181066  10.174   6.229   8.359  0.4543 -0.7274  0.2436
23114SOL    HW281067  10.185   6.345   8.456  2.8463 -0.4421 -0.2949
23115SOL     OW81068   2.082   6.316   0.874 -0.8253 -0.1247  0.0889
23115SOL    HW181069   2.030   6.273   0.943  0.4761 -1.6897  0.1615
23115SOL    HW281070   2.168   6.275   0.880 -0.8845 -0.9695 -3.0475
23116SOL     OW81071   0.958   3.663   4.798  0.5039 -0.0177 -0.7208
23116SOL    HW181072   1.002   3.724   4.739 -0.0233  0.0138 -1.0854
23116SOL    HW281073   0.883   3.632   4.749  0.1916 -0.1792 -0.1509
23117SOL     OW81074   7.107   2.729   5.569 -0.0132 -0.2399 -0.0046
23117SOL    HW181075   7.047   2.663   5.605 -1.5960  0.7997 -0.6519
23117SOL    HW281076   7.176   2.737   5.635  0.0376 -2.2556  0.2672
23118SOL     OW81077  10.372   4.197   4.862  0.0359  0.5290 -0.3165
23118SOL    HW181078  10.462   4.220   4.885  1.3514 -3.8299 -0.1328
23118SOL    HW281079  10.372   4.194   4.766  0.5614 -0.6872 -0.3054
23119SOL     OW81080   7.781   8.358   6.301  0.3191  0.2232  0.4199
23119SOL    HW181081   7.769   8.334   6.393  1.3118 -0.2563  0.4415
23119SOL    HW281082   7.847   8.297   6.269  1.3916  1.5793 -0.0845
23120SOL     OW81083   2.354  10.357   8.653  0.4706  0.0975 -0.2013
23120SOL    HW181084   2.432  10.323   8.608  0.3874  0.3768 -0.5623
23120SOL    HW281085   2.316  10.419   8.590 -0.0304 -0.0222 -0.0129
23121SOL     OW81086   5.440   0.001   9.131 -0.2204  0.2178 -0.5722
23121SOL    HW181087   5.444  -0.052   9.052 -0.2980 -0.1825 -0.3139
23121SOL    HW281088   5.497   0.076   9.113  0.3272 -0.2294 -0.7485
23122SOL     OW81089   5.229   2.544   9.702  0.1864 -0.3181  0.2318
23122SOL    HW181090   5.269   2.483   9.763 -0.6281 -0.3157  0.7884
23122SOL    HW281091   5.209   2.621   9.754 -0.2579 -0.2032 -0.1000
23123SOL     OW81092   5.202  10.176   4.147 -0.6525  0.3626  0.1775
23123SOL    HW181093   5.159  10.259   4.129 -0.0665  0.4527 -0.9373
23123SOL    HW281094   5.167  10.148   4.231 -1.1400  1.5505  0.3919
23124SOL     OW81095   1.201   4.173  11.028 -0.3563 -0.2720  0.5041
23124SOL    HW181096   1.240   4.237  10.968 -0.6395  0.0164  0.6256
23124SOL    HW281097   1.223   4.206  11.115  1.5355 -1.5894  0.5842
23125SOL     OW81098   7.746   3.400   7.056 -0.3761  0.0845  0.4908
23125SOL    HW181099   7.791   3.357   7.129  0.8693  2.5331  1.2537
23125SOL    HW281100   7.704   3.477   7.095 -0.0096  1.2413 -1.2819
23126SOL     OW81101   7.051   9.884  10.094  0.5761 -0.1805  0.3345
23126SOL    HW181102   7.085   9.965  10.058 -0.8864  0.7388  0.9381
23126SOL    HW281103   7.001   9.844  10.022  0.9115 -0.3157  0.1769
23127SOL     OW81104   6.141   1.993   1.061 -0.5972 -0.1074 -0.0587
23127SOL    HW181105   6.092   2.037   1.131  0.7178 -0.7700  1.3088
23127SOL    HW281106   6.161   2.064   0.999 -1.7516  0.4961  0.2212
23128SOL     OW81107   7.434  10.665   6.504 -0.3554  0.1959 -0.2898
23128SOL    HW181108   7.386  10.597   6.550 -1.3409 -0.1190 -1.7130
23128SOL    HW281109   7.486  10.618   6.438 -0.1730  0.7245 -0.5323
23129SOL     OW81110   9.987   3.681  11.947 -0.0652 -0.1571 -0.3628
23129SOL    HW181111  10.072   3.722  11.961 -0.6767  1.4593 -1.1396
23129SOL    HW281112   9.956   3.719  11.865 -0.0450 -3.2826 -1.9832
23130SOL     OW81113   6.861   9.583  11.755  0.3724 -0.3794  0.0252
23130SOL    HW181114   6.956   9.584  11.766  0.1596  0.3385  2.2198
23130SOL    HW281115   6.826   9.566  11.843 -1.5285 -2.5623 -1.0255
23131SOL     OW81116  10.964   8.200   1.661 -0.0262 -0.6166 -0.4298
23131SOL    HW181117  11.024   8.169   1.729  1.0626  0.3212 -0.9370
23131SOL    HW281118  10.931   8.120   1.620  0.3096 -1.1561  0.3312
23132SOL     OW81119   3.002   6.420   6.017  0.1098 -0.4565  0.6581
23132SOL    HW181120   2.943   6.477   6.067  0.3840  0.5055 -0.0907
23132SOL    HW281121   3.036   6.359   6.082  0.1390  0.4973  1.5775
23133SOL     OW81122   0.891   7.981   5.431  0.5400  0.5803  0.1998
23133SOL    HW181123   0.927   7.905   5.384  0.0351  0.3706  0.1497
23133SOL    HW281124   0.932   7.976   5.518 -1.9041 -1.6732  1.3885
23134SOL     OW81125   7.597   5.653   7.648 -0.0639  0.4948  0.1509
23134SOL    HW181126   7.547   5.711   7.591 -2.0100 -0.9940  0.2190
23134SOL    HW281127   7.532   5.617   7.708  1.6710  0.7973  2.2991
23135SOL     OW81128   2.762   4.444   8.368 -0.1015 -0.1276 -0.3406
23135SOL    HW181129   2.824   4.455   8.440 -1.1732  0.9854  0.4597
23135SOL    HW281130   2.717   4.362   8.388  0.4431 -0.4519 -0.4185
23136SOL     OW81131   7.123   2.994   1.120  0.6795  0.3522 -0.1905
23136SOL    HW181132   7.048   3.042   1.085  0.5078 -0.4237 -0.9280
23136SOL    HW281133   7.181   3.061   1.155  0.0622  1.0270 -0.4409
23137SOL     OW81134   5.241   3.389   3.270  0.4805 -0.0776  0.1501
23137SOL    HW181135   5.255   3.482   3.254 -1.4073  0.3585  0.7737
23137SOL    HW281136   5.262   3.378   3.363  0.5877 -0.2485  0.1055
23138SOL     OW81137   3.105   5.685   0.793  0.4953  0.9966  0.0134
23138SOL    HW181138   3.120   5.772   0.758 -1.1793  1.1886 -0.2731
23138SOL    HW281139   3.074   5.633   0.718  1.9880 -0.0179  0.0455
23139SOL     OW81140   3.719   2.324  10.217  0.3186  0.1157 -0.0525
23139SOL    HW181141   3.684   2.389  10.156  2.0808  0.1984 -1.0326
23139SOL    HW281142   3.792   2.368  10.259  0.3779 -0.6309  0.6323
23140SOL     OW81143   4.036   0.590   1.871 -0.2716  0.0195 -0.1877
23140SOL    HW181144   3.999   0.511   1.910 -0.9004  0.8467  0.9419
23140SOL    HW281145   4.119   0.561   1.832 -0.3257 -1.1233  0.5012
23141SOL     OW81146   8.494  11.812   0.045 -0.3154 -0.3940 -0.4523
23141SOL    HW181147   8.553  11.743   0.075 -1.4019 -1.1456  0.0216
23141SOL    HW281148   8.431  11.822   0.117 -0.3119  0.9297 -0.6164
23142SOL     OW81149   1.717   4.939   7.052 -0.2151  0.2762 -0.3152
23142SOL    HW181150   1.742   4.848   7.038 -0.4854  0.3666 -1.4366
23142SOL    HW281151   1.800   4.985   7.066 -0.0615 -0.0867 -0.0050
23143SOL     OW81152  11.487   1.132   6.103 -0.0429  0.0534 -0.2564
23143SOL    HW181153  11.559   1.149   6.042  0.1415 -1.3440 -0.4510
23143SOL    HW281154  11.412   1.175   6.063  0.1813 -0.4306 -1.2315
23144SOL     OW81155  11.631   7.594   7.063  0.7628 -0.0689 -0.0445
23144SOL    HW181156  11.599   7.658   7.127  1.8658 -1.5081  2.0599
23144SOL    HW281157  11.597   7.510   7.093  2.4157 -0.9702 -0.5666
23145SOL     OW81158  11.098   5.609   2.497  0.1509  1.0151  0.4311
23145SOL    HW181159  11.157   5.683   2.482  0.1960  1.1164  1.0577
23145SOL    HW281160  11.012   5.649   2.511  0.3483  1.0336  1.7226
23146SOL     OW81161   5.109   6.037   8.008  0.3216 -0.2214  0.3364
23146SOL    HW181162   5.204   6.042   8.009  0.3992 -0.3423  3.3343
23146SOL    HW281163   5.083   6.085   7.930  2.8327 -1.0349 -1.1066
23147SOL     OW81164  10.059   2.947   9.107  0.5410  0.3120  0.2395
23147SOL    HW181165   9.979   2.902   9.137  0.3483 -0.5385 -1.4570
23147SOL    HW281166  10.117   2.945   9.183 -0.5679 -0.2010  1.1106
23148SOL     OW81167   3.173   9.699   8.210 -0.1034 -0.6224 -0.2569
23148SOL    HW181168   3.102   9.701   8.146 -0.4564 -2.0983  0.0492
23148SOL    HW281169   3.174   9.609   8.243  0.5738 -0.1071  1.2572
23149SOL     OW81170  11.200   1.248   8.577 -0.4388 -0.4402 -0.0981
23149SOL    HW181171  11.200   1.288   8.490  1.3893 -1.3859 -0.5832
23149SOL    HW281172  11.257   1.305   8.629  0.5764 -1.2738 -0.2587
23150SOL     OW81173   6.448   2.849   6.829 -0.4185  0.5593 -0.0778
23150SOL    HW181174   6.501   2.846   6.749 -1.4001  3.3026 -0.9766
23150SOL    HW281175   6.511   2.839   6.900  0.8821  0.6808 -1.1591
23151SOL     OW81176   5.609   8.272   9.069  0.1038  0.2612  0.0770
23151SOL    HW181177   5.591   8.206   9.003  1.9566  0.2586 -0.4589
23151SOL    HW281178   5.644   8.347   9.020 -0.2766  0.9852  0.8696
23152SOL     OW81179   0.115   4.937   7.876  0.6172  0.1882 -0.2331
23152SOL    HW181180   0.106   5.031   7.866 -0.2553  0.2116  0.6564
23152SOL    HW281181   0.176   4.911   7.806  1.3993  1.4870 -0.0594
23153SOL     OW81182   7.961   1.801   4.881 -0.0638 -0.3524  0.0599
23153SOL    HW181183   7.880   1.769   4.920  0.7865 -1.3479  1.0555
23153SOL    HW281184   7.986   1.875   4.935 -0.9683  0.7981 -1.0367
23154SOL     OW81185   7.804   5.016   3.626  0.4852  0.0807 -0.1127
23154SOL    HW181186   7.846   4.990   3.544  0.6843  0.3981 -0.1135
23154SOL    HW281187   7.843   4.959   3.692 -2.0911 -2.6088 -0.6734
23155SOL     OW81188   1.061   4.892   2.080 -0.4638  0.0461  0.0801
23155SOL    HW181189   0.971   4.867   2.098 -0.4891  0.8515  1.2127
23155SOL    HW281190   1.101   4.902   2.166  0.7880 -0.5278 -0.4005
23156SOL     OW81191   0.405   7.642   4.940 -0.2481 -0.4510 -0.5025
23156SOL    HW181192   0.414   7.736   4.922 -0.6824 -0.4377 -0.6617
23156SOL    HW281193   0.448   7.630   5.025 -1.3150  0.1280  0.1400
23157SOL     OW81194   6.599  10.516   7.781  0.2656 -0.0539 -0.8238
23157SOL    HW181195   6.627  10.439   7.830 -0.2016  0.6612  0.6265
23157SOL    HW281196   6.508  10.500   7.759  0.8691 -1.0341 -2.8540
23158SOL     OW81197   5.020  11.894   5.206 -0.1638  0.0743  0.0980
23158SOL    HW181198   5.015  11.932   5.118 -2.8362 -0.2951  0.0027
23158SOL    HW281199   5.002  11.968   5.264 -1.4786 -0.2200  0.1123
23159SOL     OW81200   4.405   8.157   9.301 -0.6946 -0.2006 -0.1835
23159SOL    HW181201   4.377   8.242   9.336  0.1686  0.0653 -0.1349
23159SOL    HW281202   4.391   8.164   9.207 -0.5312  0.0300 -0.1906
23160SOL     OW81203   1.317   7.146   6.955  0.0121 -0.4882  0.1652
23160SOL    HW181204   1.408   7.138   6.926  0.5875 -0.6379  1.9243
23160SOL    HW281205   1.298   7.063   7.000 -1.3192 -0.8482 -0.9794
23161SOL     OW81206   7.772   5.915   8.085 -0.1691  0.1955 -0.3818
23161SOL    HW181207   7.718   5.844   8.120  0.3638  0.2467  0.5761
23161SOL    HW281208   7.847   5.872   8.045  0.7523  0.2268  1.2290
23162SOL     OW81209   1.580   2.476  10.829 -0.0489  0.0072 -0.1906
23162SOL    HW181210   1.503   2.505  10.878 -0.7117  1.6337 -2.0685
23162SOL    HW281211   1.557   2.388  10.800 -1.8891  0.9260 -1.8478
23163SOL     OW81212   8.132   9.048   2.396  0.4442 -0.0850 -0.2025
23163SOL    HW181213   8.213   9.055   2.346  0.5762 -0.4502 -0.0471
23163SOL    HW281214   8.155   9.078   2.484  0.3229  0.1417 -0.2482
23164SOL     OW81215   5.722   0.182   1.406 -0.1819 -0.3422 -0.0285
23164SOL    HW181216   5.803   0.132   1.402  0.1840  0.1577  0.7519
23164SOL    HW281217   5.706   0.194   1.500 -2.0351 -1.8062 -0.0964
23165SOL     OW81218  11.787   1.678   7.270  0.3482 -0.4033 -0.2040
23165SOL    HW181219  11.781   1.719   7.357  1.2173  0.1254 -0.3797
23165SOL    HW281220  11.754   1.745   7.210  0.7665 -0.3631 -0.3887
23166SOL     OW81221   0.102  10.798   7.082  0.0968  0.5192  0.1516
23166SOL    HW181222   0.092  10.731   7.014  1.6304 -0.9838  1.3232
23166SOL    HW281223   0.156  10.756   7.149  0.2479  2.6089  1.4159
23167SOL     OW81224   7.599   0.166   5.246 -0.4536 -0.3926  0.0096
23167SOL    HW181225   7.603   0.175   5.151 -0.5609  0.0313  0.0439
23167SOL    HW281226   7.691   0.160   5.274 -0.3180  1.4408  0.0591
23168SOL     OW81227  10.084   0.424   9.775  0.5191  0.2928 -0.0334
23168SOL    HW181228   9.999   0.386   9.797  0.7398  0.7304  1.6705
23168SOL    HW281229  10.136   0.416   9.855  1.6025  1.3377 -0.5952
23169SOL     OW81230   3.688   8.359  11.623  0.2081  0.1785  0.0782
23169SOL    HW181231   3.770   8.393  11.659  0.6790  1.8966 -2.3611
23169SOL    HW281232   3.707   8.343  11.531 -2.6647  2.4845 -1.0657
23170SOL     OW81233  11.253   2.304   5.294 -0.1212  0.1834  0.7032
23170SOL    HW181234  11.248   2.399   5.279  0.1871  0.0641 -0.1953
23170SOL    HW281235  11.299   2.270   5.217  0.9626 -0.5352  1.6322
23171SOL     OW81236   7.672   3.944   5.255 -0.1697 -0.2670 -0.0966
23171SOL    HW181237   7.622   3.979   5.328  1.7220  0.1115  1.0842
23171SOL    HW281238   7.697   3.856   5.282  0.1333 -0.3049 -0.4902
23172SOL     OW81239   4.870   9.509   0.780  0.4888 -0.1018  0.5980
23172SOL    HW181240   4.887   9.453   0.704 -0.9423 -0.6631  0.6728
23172SOL    HW281241   4.844   9.448   0.849  1.0813  0.4751  1.3487
23173SOL     OW81242   9.475   3.987   9.706 -0.4666 -0.6120 -0.2914
23173SOL    HW181243   9.536   4.020   9.640 -1.0961 -0.1850 -0.6601
23173SOL    HW281244   9.438   3.908   9.667  1.8395 -2.4764  1.0135
23174SOL     OW81245   6.119   5.868  11.415 -0.0112  0.2563 -0.2955
23174SOL    HW181246   6.136   5.815  11.493 -0.2429  0.6859  0.0475
23174SOL    HW281247   6.027   5.853  11.395 -1.0210  2.9975  1.7110
23175SOL     OW81248   9.966   3.356   7.001 -0.2395 -0.0554 -0.3953
23175SOL    HW181249   9.955   3.261   7.006  0.5307 -0.1562 -0.5081
23175SOL    HW281250   9.916   3.382   6.923 -2.0120 -0.1070  0.6896
23176SOL     OW81251   9.553   4.917   1.878  0.1636 -0.0344 -0.0062
23176SOL    HW181252   9.539   4.822   1.874  1.0929 -0.1310 -1.6303
23176SOL    HW281253   9.496   4.946   1.950  0.7521 -1.9585  1.3335
23177SOL     OW81254  10.974   7.544   2.072  0.1821  0.1934 -0.0514
23177SOL    HW181255  11.049   7.543   2.133  0.8177 -1.1644 -0.8079
23177SOL    HW281256  10.933   7.458   2.084  0.9663 -0.5593 -2.2616
23178SOL     OW81257   3.676   8.841   4.081 -0.1437  0.1156 -0.3768
23178SOL    HW181258   3.640   8.930   4.082  0.2724  0.2872  0.3570
23178SOL    HW281259   3.770   8.854   4.065  0.0662 -0.1240  0.5827
23179SOL     OW81260   6.872   1.672  10.382 -0.3894  0.0701  0.0688
23179SOL    HW181261   6.912   1.708  10.304 -0.5086 -0.4932 -0.2572
23179SOL    HW281262   6.779   1.665  10.361 -0.3139 -0.7817 -0.0210
23180SOL     OW81263   3.890  11.187   7.742 -0.4394 -0.2004 -0.8571
23180SOL    HW181264   3.913  11.118   7.680 -0.0986 -1.6035  0.7381
23180SOL    HW281265   3.873  11.140   7.824 -2.7560  1.3873 -0.3408
23181SOL     OW81266   9.016   6.356   0.344 -0.1215  0.8098 -0.7730
23181SOL    HW181267   9.006   6.261   0.348 -0.4403  0.8527 -0.5245
23181SOL    HW281268   8.967   6.389   0.419 -2.1208  1.3174 -2.1886
23182SOL     OW81269   1.583   1.772   6.148 -0.0898 -0.1052 -0.6033
23182SOL    HW181270   1.616   1.862   6.153  0.1386 -0.1052 -1.7963
23182SOL    HW281271   1.636   1.723   6.211  0.6707  0.3476 -0.8749
23183SOL     OW81272  10.267   6.310   2.421  0.2329 -0.8867 -0.3768
23183SOL    HW181273  10.192   6.285   2.474  0.2512  0.5560  0.3682
23183SOL    HW281274  10.325   6.233   2.424 -0.0563 -1.0800  1.1528
23184SOL     OW81275   9.607  10.747   4.234  0.1471  0.3356  0.1338
23184SOL    HW181276   9.684  10.701   4.201  0.8948  2.3118 -1.0522
23184SOL    HW281277   9.642  10.806   4.301 -0.8781 -1.1236  2.0720
23185SOL     OW81278   4.348  11.101   6.378  0.4375 -0.3151  0.2346
23185SOL    HW181279   4.438  11.076   6.358  1.0538  0.4535  1.8293
23185SOL    HW281280   4.339  11.083   6.472 -0.6714  0.7174  0.3521
23186SOL     OW81281   1.665   6.498   3.880  0.0981 -0.5342  0.2191
23186SOL    HW181282   1.585   6.469   3.835 -1.5932  3.3984  0.3095
23186SOL    HW281283   1.662   6.452   3.964 -1.6214 -1.1480 -0.1256
23187SOL     OW81284   0.642  11.270   9.030  0.0403  0.3161  0.6884
23187SOL    HW181285   0.552  11.300   9.044 -0.6446 -0.0775 -2.1536
23187SOL    HW281286   0.640  11.177   9.054  0.1969  0.7106  2.3260
23188SOL     OW81287   7.199   1.298   4.309 -0.5121 -0.2210  0.0697
23188SOL    HW181288   7.164   1.375   4.263  1.1865  0.5534 -0.0209
23188SOL    HW281289   7.221   1.237   4.239  0.6066  0.3193 -0.0746
23189SOL     OW81290   8.565   5.664   0.372  0.0365 -0.1400 -0.5104
23189SOL    HW181291   8.568   5.580   0.419  0.9385  0.3888  0.4178
23189SOL    HW281292   8.539   5.728   0.439 -0.2487  0.3925 -1.1169
23190SOL     OW81293   0.576   6.130   6.246 -0.0972  0.3716  0.0991
23190SOL    HW181294   0.518   6.164   6.178 -0.2729  1.1496  0.6271
23190SOL    HW281295   0.630   6.205   6.272 -1.0416  0.5147  1.8457
23191SOL     OW81296  11.532   6.364  11.819 -0.4727  0.2680 -0.0960
23191SOL    HW181297  11.619   6.333  11.793 -0.2612  0.7570  0.0186
23191SOL    HW281298  11.472   6.296  11.787  0.0171 -0.5414  0.6343
23192SOL     OW81299   8.135   3.412   2.665  0.2465  0.4539 -0.3706
23192SOL    HW181300   8.207   3.361   2.629  0.3570 -0.9445  1.6607
23192SOL    HW281301   8.103   3.360   2.739 -1.6874  1.8849 -0.1113
23193SOL     OW81302   6.235   1.739   2.193  0.3595  0.7079 -0.3371
23193SOL    HW181303   6.325   1.722   2.166  1.0521  0.5597  1.8882
23193SOL    HW281304   6.191   1.654   2.187  0.7476  0.4885 -0.0613
23194SOL     OW81305   5.211   0.641   3.126 -0.2061 -0.2162  0.7002
23194SOL    HW181306   5.256   0.718   3.162 -0.5922 -0.1373  1.0284
23194SOL    HW281307   5.119   0.669   3.121 -0.2468 -0.4410  0.2271
23195SOL     OW81308  10.054   7.996   5.592 -0.1126 -0.5750 -0.1436
23195SOL    HW181309  10.067   7.966   5.682  1.8331  0.4685  0.0014
23195SOL    HW281310  10.043   8.091   5.601  1.8288 -0.2051 -1.0537
23196SOL     OW81311   5.939   1.637  11.531 -0.2731  0.1191  0.2903
23196SOL    HW181312   5.977   1.724  11.532  1.6517 -0.6601  1.3314
23196SOL    HW281313   5.912   1.623  11.440  0.4877  1.3544 -0.1455
23197SOL     OW81314   3.837   4.858  10.910 -0.8817 -0.2027 -0.4180
23197SOL    HW181315   3.870   4.855  11.000  0.2765 -1.2923 -0.8533
23197SOL    HW281316   3.870   4.778  10.869 -0.5152  0.7594 -2.1143
23198SOL     OW81317   2.290   7.728   4.388 -0.4719 -0.4299 -0.1021
23198SOL    HW181318   2.332   7.655   4.342  0.1872  0.4700 -0.9591
23198SOL    HW281319   2.340   7.737   4.469 -0.6994 -1.0599  0.1163
23199SOL     OW81320   5.309   1.482   3.705 -0.1929 -0.0488  0.0065
23199SOL    HW181321   5.287   1.567   3.744  0.3929  0.7380 -1.2803
23199SOL    HW281322   5.232   1.428   3.719 -1.0345  1.0732 -0.1346
23200SOL     OW81323   9.393   1.948   4.468  0.1731  0.2677 -0.2427
23200SOL    HW181324   9.329   1.923   4.534  0.6585 -1.8045 -0.5018
23200SOL    HW281325   9.477   1.927   4.506  0.5382  0.3157 -0.9968
23201SOL     OW81326   8.968   7.466   3.516  0.3479 -0.1820  0.3206
23201SOL    HW181327   8.936   7.556   3.530  0.8871  0.2055 -0.8037
23201SOL    HW281328   8.893   7.411   3.538 -0.9930  0.6752 -1.7459
23202SOL     OW81329   5.597  11.212   7.998  0.0038 -0.2740 -0.0065
23202SOL    HW181330   5.508  11.237   8.023 -0.2505 -0.0939 -1.0338
23202SOL    HW281331   5.652  11.280   8.036 -0.5481  1.0540 -1.4889
23203SOL     OW81332  10.643   0.650   2.914 -0.2928 -0.1429 -0.1544
23203SOL    HW181333  10.687   0.565   2.901 -0.9214 -0.6306  0.7910
23203SOL    HW281334  10.646   0.664   3.009  0.3176  1.1897 -0.3471
23204SOL     OW81335   0.789   8.710   6.263  0.2129 -0.4158 -0.5346
23204SOL    HW181336   0.851   8.665   6.321  0.4516  0.6401  0.0637
23204SOL    HW281337   0.711   8.654   6.263  0.4676 -0.7936  0.2474
23205SOL     OW81338   0.699   4.261  10.941 -0.4816 -0.2649  0.1568
23205SOL    HW181339   0.658   4.181  10.972 -0.4501 -0.6654 -0.8225
23205SOL    HW281340   0.790   4.237  10.924 -0.3128  0.1385  0.4481
23206SOL     OW81341   4.126   0.518   9.921 -0.1057  0.3145 -0.2204
23206SOL    HW181342   4.052   0.574   9.943  0.3113  0.5307  0.6508
23206SOL    HW281343   4.197   0.578   9.900  0.1402  0.1130  0.0208
23207SOL     OW81344   5.318  11.578   3.638 -0.0849 -0.3748  0.0570
23207SOL    HW181345   5.304  11.487   3.666  1.1626 -0.6065 -0.0119
23207SOL    HW281346   5.353  11.622   3.715 -0.9349  0.1345  0.1694
23208SOL     OW81347   2.223   9.125   0.123 -0.1260  0.1189  0.2921
23208SOL    HW181348   2.286   9.131   0.194 -0.4732  0.3086  0.5904
23208SOL    HW281349   2.148   9.176   0.153 -1.6850 -2.5666  1.3084
23209SOL     OW81350  11.885   5.474   6.475 -0.0825 -0.3054 -0.4858
23209SOL    HW181351  11.804   5.426   6.457  0.6775 -1.6654 -0.4042
23209SOL    HW281352  11.955   5.413   6.450  1.0077 -0.8461  3.2515
23210SOL     OW81353   7.711   8.845   2.558  0.3530 -0.8176  0.2937
23210SOL    HW181354   7.752   8.882   2.637  0.7438 -1.1447  0.2461
23210SOL    HW281355   7.775   8.782   2.525 -0.0054 -1.0160 -0.0299
23211SOL     OW81356   2.511   3.702   3.091  0.3049 -0.2965  0.2380
23211SOL    HW181357   2.606   3.703   3.104  0.3082 -0.5968  0.2306
23211SOL    HW281358   2.479   3.636   3.153  0.1025 -0.2053  0.2313
23212SOL     OW81359   0.425   9.384   2.752  0.4650 -0.3950 -0.5193
23212SOL    HW181360   0.377   9.435   2.687  0.8703  0.4327 -0.1814
23212SOL    HW281361   0.515   9.384   2.721  0.6015 -0.2700 -0.1414
23213SOL     OW81362   7.585   8.528   3.011 -0.2562 -0.1659 -0.2207
23213SOL    HW181363   7.642   8.556   2.940 -1.3815 -2.4608 -2.1428
23213SOL    HW281364   7.645   8.503   3.081  1.0072 -0.3393 -1.3258
23214SOL     OW81365   2.549   3.452   8.807 -0.2165  0.4022 -0.0686
23214SOL    HW181366   2.619   3.386   8.805 -1.0331 -0.4717 -0.3145
23214SOL    HW281367   2.596   3.536   8.815  0.8673 -0.1466 -0.4199
23215SOL     OW81368   4.504   2.085   5.204  0.2646 -0.1291  0.7073
23215SOL    HW181369   4.414   2.082   5.236 -0.0407 -0.2575 -0.1400
23215SOL    HW281370   4.503   2.151   5.134  0.4658 -1.1909 -0.3432
23216SOL     OW81371   5.954  11.476   5.968 -0.2293  0.0104 -0.2133
23216SOL    HW181372   6.022  11.409   5.978 -0.6343 -0.5990 -1.4102
23216SOL    HW281373   6.003  11.558   5.965  0.3516 -0.3055  0.2298
23217SOL     OW81374   2.618   7.223   4.426  0.9766  0.2898  0.1273
23217SOL    HW181375   2.657   7.203   4.341  0.3941  0.1930 -0.1201
23217SOL    HW281376   2.603   7.138   4.467 -2.4853  0.0165 -1.3634
23218SOL     OW81377   5.896   1.644   6.346 -0.2092 -0.1866  0.7829
23218SOL    HW181378   5.854   1.720   6.308  0.0945 -0.5889 -0.3852
23218SOL    HW281379   5.824   1.590   6.380 -0.5223 -0.0850  0.2841
23219SOL     OW81380   5.452  11.471   1.190 -0.5329 -0.2348  0.2609
23219SOL    HW181381   5.490  11.426   1.115 -0.0083 -0.1524  0.4729
23219SOL    HW281382   5.501  11.553   1.196 -0.6190 -0.2091  0.6481
23220SOL     OW81383   7.802   6.653   2.143  0.1690  0.6111  0.2803
23220SOL    HW181384   7.754   6.616   2.217 -0.9937  1.2102 -0.1494
23220SOL    HW281385   7.778   6.597   2.069  1.3278  0.0110  0.3350
23221SOL     OW81386   1.721   7.005   7.684 -0.0412 -0.3030  0.0470
23221SOL    HW181387   1.762   7.063   7.619 -0.2801  1.9014  1.7369
23221SOL    HW281388   1.793   6.951   7.716  0.3138 -0.5830 -1.1567
23222SOL     OW81389   9.011   4.103   4.194  0.3805 -0.5302  0.1112
23222SOL    HW181390   9.084   4.145   4.149  0.5102 -0.2976  0.5351
23222SOL    HW281391   9.052   4.045   4.258  0.1976 -0.8221 -0.0318
23223SOL     OW81392   2.981   4.526   9.328 -0.0393 -0.6002  0.7382
23223SOL    HW181393   2.925   4.546   9.253  2.1752 -0.1559 -0.9073
23223SOL    HW281394   2.997   4.432   9.321 -0.4365 -0.7001  1.1243
23224SOL     OW81395   9.193   4.697   5.972  0.6410  0.3966  0.2911
23224SOL    HW181396   9.229   4.692   6.061  2.7114 -0.8279 -0.5302
23224SOL    HW281397   9.191   4.791   5.952  1.1440  0.6233  1.2565
23225SOL     OW81398   5.652  11.657   9.325 -0.4226  0.8293  0.5001
23225SOL    HW181399   5.707  11.705   9.264  0.2186  0.2407  0.6085
23225SOL    HW281400   5.618  11.724   9.384  0.5697  1.1380  0.7331
23226SOL     OW81401  11.916   6.842  11.117 -0.9111 -0.0406 -0.5511
23226SOL    HW181402  11.937   6.920  11.066  2.1254 -1.1232 -1.1609
23226SOL    HW281403  11.941   6.864  11.206 -1.6913  0.2106 -0.3792
23227SOL     OW81404   4.272   6.027  11.231  0.0388  0.2915 -0.2637
23227SOL    HW181405   4.202   6.021  11.165 -0.2409  2.2717 -0.2120
23227SOL    HW281406   4.301   5.937  11.243 -3.0421 -0.7573  0.2875
23228SOL     OW81407  11.279   2.254   0.365  0.8155 -0.2222  0.2838
23228SOL    HW181408  11.346   2.206   0.414  0.2009 -1.7677 -0.3080
23228SOL    HW281409  11.285   2.219   0.276  0.5978  1.1149 -0.2719
23229SOL     OW81410   5.317   0.519   5.593 -0.1203 -0.0514 -0.0191
23229SOL    HW181411   5.281   0.490   5.677  0.6705  0.9330  0.6824
23229SOL    HW281412   5.411   0.527   5.609  0.1508 -0.6107 -1.2371
23230SOL     OW81413   5.848   4.389   6.863 -0.2024 -0.0376  0.1611
23230SOL    HW181414   5.925   4.361   6.814 -0.4405  0.3073 -0.4350
23230SOL    HW281415   5.857   4.349   6.949  0.3298 -0.5008 -0.1050
23231SOL     OW81416   4.545  11.736   3.373  0.0993  0.0045  0.4236
23231SOL    HW181417   4.503  11.822   3.371 -0.5169 -0.2332  1.8788
23231SOL    HW281418   4.526  11.702   3.460  0.1344 -1.7172 -0.2032
23232SOL     OW81419  10.029   7.656   6.467  0.0487 -0.1397  0.2009
23232SOL    HW181420   9.964   7.706   6.515 -1.0511  1.1499 -2.3937
23232SOL    HW281421  10.113   7.689   6.498 -0.6191  1.1366  0.7209
23233SOL     OW81422  10.596   3.991  11.241  0.3169  0.1574  0.1278
23233SOL    HW181423  10.582   3.903  11.275 -0.0270 -0.1002 -0.6438
23233SOL    HW281424  10.538   4.047  11.293  1.0999  0.0528  1.1300
23234SOL     OW81425   2.212   4.943   3.647  0.0928 -0.0657  0.0317
23234SOL    HW181426   2.284   4.946   3.709 -0.0912  2.2561  0.2159
23234SOL    HW281427   2.149   5.008   3.680 -1.1851 -0.6166 -1.2006
23235SOL     OW81428  11.198  11.568   0.952  0.5023 -0.3457  0.1368
23235SOL    HW181429  11.113  11.526   0.940  0.4337 -0.7157  1.7429
23235SOL    HW281430  11.254  11.528   0.886 -0.3082 -0.8308 -0.2731
23236SOL     OW81431   4.328   5.689  10.680  0.3673 -0.4494  0.1994
23236SOL    HW181432   4.270   5.729  10.615  0.0578 -0.8738  0.2113
23236SOL    HW281433   4.276   5.618  10.718  0.6671 -0.4219  0.6704
23237SOL     OW81434   7.381   3.075   6.224  0.3843  0.3428  0.0892
23237SOL    HW181435   7.343   3.152   6.181  1.2611 -0.0515 -1.4640
23237SOL    HW281436   7.365   3.003   6.163 -1.0825 -0.9105  1.8423
23238SOL     OW81437  10.946   8.109   7.330  0.0031 -0.6887  0.0019
23238SOL    HW181438  10.948   8.069   7.417 -1.9064 -0.5717  0.1365
23238SOL    HW281439  10.986   8.195   7.342 -0.8027 -0.4304  0.9177
23239SOL     OW81440  10.816   2.773   4.401  0.4036 -0.4314 -0.1091
23239SOL    HW181441  10.895   2.777   4.456 -0.1709 -1.5744  0.8492
23239SOL    HW281442  10.750   2.821   4.451  0.2472 -0.2405 -0.4932
23240SOL     OW81443   4.655   3.055   9.340  0.4603  0.4990  0.5852
23240SOL    HW181444   4.569   3.025   9.369  0.3768  1.1786  1.0573
23240SOL    HW281445   4.638   3.136   9.294  0.9186  1.0493  1.3615
23241SOL     OW81446  11.059  11.266   9.202  0.7044 -0.0844 -0.0291
23241SOL    HW181447  11.077  11.172   9.212  0.2055 -0.1280  0.4800
23241SOL    HW281448  10.986  11.284   9.262  0.9066  0.6637  0.0093
23242SOL     OW81449   1.793   6.713  10.131 -0.7476  0.4008  0.4993
23242SOL    HW181450   1.697   6.722  10.129 -0.6513  1.3799 -0.5731
23242SOL    HW281451   1.825   6.802  10.143  0.0348 -0.0999  2.6090
23243SOL     OW81452   8.030   2.694   2.325 -0.1671 -0.1570 -0.3741
23243SOL    HW181453   7.963   2.759   2.345 -0.2251 -0.4759  0.5409
23243SOL    HW281454   8.110   2.744   2.313 -0.3253  0.1290 -0.2421
23244SOL     OW81455   0.391   4.602   1.347  0.1662 -0.0144 -0.3079
23244SOL    HW181456   0.432   4.671   1.399  0.0619  1.0821 -1.6083
23244SOL    HW281457   0.462   4.539   1.331  0.3793  0.0055  0.5294
23245SOL     OW81458  10.112  11.567   7.970 -0.0529  0.2168 -0.4763
23245SOL    HW181459  10.187  11.566   8.030 -1.6529  1.1332  1.6775
23245SOL    HW281460  10.095  11.475   7.952  0.9343 -0.0520 -0.1279
23246SOL     OW81461   7.924   1.718   6.451  0.0409  0.2372 -0.1904
23246SOL    HW181462   7.868   1.788   6.484 -2.3996 -2.3768  1.6934
23246SOL    HW281463   7.903   1.714   6.358 -0.3204  1.4995 -0.1929
23247SOL     OW81464  11.811   8.540   9.671  0.1691  0.8293  0.3548
23247SOL    HW181465  11.882   8.519   9.610  0.8263  1.7554  0.7728
23247SOL    HW281466  11.852   8.596   9.736 -1.2376  2.5548 -0.1625
23248SOL     OW81467  11.954   9.377   5.364  0.0338 -0.5683 -0.5205
23248SOL    HW181468  11.972   9.445   5.299 -0.0382 -0.2004 -0.1535
23248SOL    HW281469  11.875   9.406   5.408 -0.0104 -0.9039 -0.3785
23249SOL     OW81470   0.796  10.753   5.032  0.5558  0.1392  0.3024
23249SOL    HW181471   0.848  10.726   4.957 -0.4536 -0.0775 -0.3297
23249SOL    HW281472   0.829  10.841   5.053  0.1558  0.6229 -1.0358
23250SOL     OW81473   8.660   0.943   2.557 -0.3367 -0.1070  0.1472
23250SOL    HW181474   8.652   0.868   2.497 -0.0112 -1.0998  1.3068
23250SOL    HW281475   8.749   0.976   2.541  0.0428 -0.8700  0.6348
23251SOL     OW81476   7.317   8.903   7.410  0.1164 -0.3750  0.0112
23251SOL    HW181477   7.409   8.910   7.439  0.9208 -3.5069 -1.4131
23251SOL    HW281478   7.322   8.904   7.315 -1.6145  1.4540 -0.1150
23252SOL     OW81479   0.167   7.166   7.531  0.0246 -0.1185  0.3632
23252SOL    HW181480   0.263   7.166   7.533  0.0427  1.7335  1.1462
23252SOL    HW281481   0.145   7.193   7.442  0.1794 -1.8755 -0.2442
23253SOL     OW81482   8.520   9.945  11.300 -0.0335  0.5036  0.1677
23253SOL    HW181483   8.510  10.017  11.238 -0.5738 -0.7681 -1.2751
23253SOL    HW281484   8.500   9.984  11.385  0.8532  2.3222 -0.4092
23254SOL     OW81485   4.306   7.458   1.410  0.2414 -0.4177 -0.1502
23254SOL    HW181486   4.224   7.416   1.385 -0.1734  0.3058 -0.0280
23254SOL    HW281487   4.352   7.392   1.462 -0.0404 -1.0042 -0.6257
23255SOL     OW81488  11.089  10.330   6.708 -0.6822  0.2585 -0.0110
23255SOL    HW181489  11.124  10.309   6.794 -0.1540 -0.8604 -0.4825
23255SOL    HW281490  11.136  10.271   6.648 -2.6000 -0.5454 -0.7908
23256SOL     OW81491   1.002   9.460   7.236  0.4116  0.0769 -0.0286
23256SOL    HW181492   0.941   9.522   7.195  1.1071  0.6809 -0.1731
23256SOL    HW281493   0.962   9.375   7.223 -0.9317  0.5452  0.8007
23257SOL     OW81494   5.031   0.083   3.150  0.0305 -0.3332 -0.0352
23257SOL    HW181495   5.054   0.043   3.234  1.2328  1.8953  0.7789
23257SOL    HW281496   5.108   0.071   3.095  0.3881  0.7338  0.2011
23258SOL     OW81497   1.377   1.671   3.577 -0.1879 -0.2995 -0.2852
23258SOL    HW181498   1.400   1.739   3.640 -1.4745 -0.1903  0.0880
23258SOL    HW281499   1.459   1.623   3.563  0.2026 -0.1098  1.1973
23259SOL     OW81500   4.026  10.223   8.505  0.2326  0.2252 -0.1105
23259SOL    HW181501   4.108  10.178   8.525 -0.5060 -0.9535  0.4233
23259SOL    HW281502   3.993  10.250   8.591 -0.5381 -0.4469 -0.1798
23260SOL     OW81503   3.427   6.502   9.050 -0.1691  0.0324  0.1653
23260SOL    HW181504   3.472   6.573   9.096 -0.0350  1.0102 -1.3885
23260SOL    HW281505   3.487   6.429   9.054  1.9191  1.4601 -2.3280
23261SOL     OW81506   0.555  10.904   9.572 -0.6439  0.5994 -0.3647
23261SOL    HW181507   0.510  10.907   9.656 -0.1830 -0.5953 -0.0579
23261SOL    HW281508   0.635  10.954   9.585 -1.2581  1.6508 -0.5357
23262SOL     OW81509   9.903   0.163   4.668 -0.3159  0.1987  0.0777
23262SOL    HW181510   9.973   0.203   4.719  1.7396 -0.5924 -1.9679
23262SOL    HW281511   9.850   0.115   4.733  2.4520 -1.2144  1.4577
23263SOL     OW81512   7.918  10.801   1.168  0.3163  0.1685 -0.0462
23263SOL    HW181513   7.883  10.772   1.084  1.8250 -2.4313  0.1017
23263SOL    HW281514   7.845  10.794   1.229 -0.2226 -0.0768 -0.7125
23264SOL     OW81515   8.360   2.025   4.402 -0.2628  0.0463 -0.5747
23264SOL    HW181516   8.411   2.050   4.326 -1.0823 -0.7234 -1.3979
23264SOL    HW281517   8.351   1.930   4.395 -2.7335  0.2540 -1.0944
23265SOL     OW81518   0.767   3.437   8.373 -0.1730  0.1445  0.1062
23265SOL    HW181519   0.817   3.379   8.431  0.3807  0.5782  0.0665
23265SOL    HW281520   0.742   3.381   8.299 -1.9580 -0.7461  1.3222
23266SOL     OW81521   1.956   5.741   9.249 -0.0544  0.1800  0.1183
23266SOL    HW181522   1.963   5.661   9.196 -0.5245 -0.2711  0.7204
23266SOL    HW281523   1.873   5.780   9.222 -0.6979 -0.4747  1.0630
23267SOL     OW81524   0.027   8.860   1.136 -0.3180  0.0555 -0.1529
23267SOL    HW181525   0.008   8.796   1.067 -0.9050  0.2375 -0.1688
23267SOL    HW281526   0.031   8.809   1.216  1.3566 -0.3047 -0.4320
23268SOL     OW81527   2.132   4.629   0.564  0.1865  0.3155 -0.0854
23268SOL    HW181528   2.127   4.713   0.518 -0.9757 -0.3416 -1.2357
23268SOL    HW281529   2.175   4.570   0.501  0.5369 -0.0748  0.5154
23269SOL     OW81530   0.621   5.716   2.610  0.1913  0.2220  0.1340
23269SOL    HW181531   0.556   5.785   2.626 -1.9534 -1.3827 -1.0640
23269SOL    HW281532   0.605   5.652   2.680  0.1428 -0.4104 -0.4507
23270SOL     OW81533   3.224   5.199   8.709 -0.0748 -0.0236  0.2687
23270SOL    HW181534   3.272   5.117   8.696 -1.7399 -0.7953 -1.4830
23270SOL    HW281535   3.168   5.182   8.785  0.4970 -0.0463  0.6917
23271SOL     OW81536   7.768   2.517  10.989 -0.6829  0.0716 -0.1274
23271SOL    HW181537   7.848   2.530  10.937 -0.4636 -1.7843 -0.3278
23271SOL    HW281538   7.698   2.510  10.924 -0.6620 -0.5548 -0.0877
23272SOL     OW81539   4.162  10.028   8.831 -0.3138  0.6236  0.4595
23272SOL    HW181540   4.209  10.056   8.909 -1.1716  0.9622  0.8620
23272SOL    HW281541   4.070  10.040   8.852 -0.7460 -2.1547  0.5191
23273SOL     OW81542   1.642   2.869   3.210  0.2799  0.0434  0.2767
23273SOL    HW181543   1.605   2.957   3.199 -0.2417  0.0744  2.0154
23273SOL    HW281544   1.643   2.832   3.121  0.5344  1.8005 -0.4845
23274SOL     OW81545   1.726   1.338   8.799  0.2455 -0.0688 -0.1474
23274SOL    HW181546   1.804   1.390   8.818 -0.1265  0.5609 -0.3233
23274SOL    HW281547   1.653   1.396   8.819 -0.1746 -0.4179 -0.6478
23275SOL     OW81548   3.011   2.199   5.244 -0.4417 -0.5479 -0.5926
23275SOL    HW181549   2.968   2.222   5.162 -0.9260  0.0722 -0.1761
23275SOL    HW281550   2.940   2.166   5.300 -0.8729  2.4624  0.8591
23276SOL     OW81551   2.265   3.778   3.585  0.2163  0.1891 -0.1417
23276SOL    HW181552   2.244   3.848   3.647 -1.2467 -0.2831 -0.0640
23276SOL    HW281553   2.361   3.776   3.583  0.2857  1.4614  0.6754
23277SOL     OW81554   9.012   4.584   6.762 -0.3076 -0.5233  0.3098
23277SOL    HW181555   8.919   4.564   6.759 -0.1642 -1.2010  0.0602
23277SOL    HW281556   9.017   4.679   6.771 -1.0446 -0.6523  2.8091
23278SOL     OW81557   8.763   7.084   0.043  0.1481 -0.0100  0.2870
23278SOL    HW181558   8.764   7.114  -0.047 -0.0821  1.1897  0.6588
23278SOL    HW281559   8.701   7.011   0.043 -3.2433  2.5686  0.1719
23279SOL     OW81560   5.190  11.641   6.253  0.6798 -0.7116  0.2107
23279SOL    HW181561   5.166  11.702   6.322 -1.7407 -0.2562 -0.9358
23279SOL    HW281562   5.214  11.697   6.179 -0.0400 -1.1165 -0.3482
23280SOL     OW81563   4.183  11.658   9.506  0.1590  0.4244 -0.1576
23280SOL    HW181564   4.123  11.601   9.457  0.1265 -0.0723  0.4535
23280SOL    HW281565   4.139  11.744   9.506 -0.1663  0.2612 -0.4069
23281SOL     OW81566   3.137   2.220  10.074 -0.0903  0.1280 -0.5721
23281SOL    HW181567   3.070   2.287  10.063 -0.3078 -0.0836 -0.5255
23281SOL    HW281568   3.219   2.264  10.048 -0.4266 -0.0094 -1.9819
23282SOL     OW81569   0.541   2.045   3.191 -0.7988 -1.1300 -0.0403
23282SOL    HW181570   0.569   2.067   3.102 -1.0252 -0.0249  0.1436
23282SOL    HW281571   0.574   2.117   3.245  0.4773 -2.4274  1.0007
23283SOL     OW81572   9.010   6.130   9.666  0.0401  0.0998  0.1996
23283SOL    HW181573   9.038   6.182   9.592 -0.6782  0.9456  0.4949
23283SOL    HW281574   8.914   6.133   9.663 -0.0048 -0.2686  0.8629
23284SOL     OW81575  11.803   6.696   8.971 -0.2496  0.3732  0.6159
23284SOL    HW181576  11.731   6.633   8.967 -0.4549  0.6146  0.4376
23284SOL    HW281577  11.864   6.667   8.902 -0.8174  0.9393 -0.1382
23285SOL     OW81578   2.478   7.535   2.450  0.3010 -0.5018  0.1642
23285SOL    HW181579   2.469   7.573   2.363  0.3967 -0.0052  0.3644
23285SOL    HW281580   2.497   7.610   2.507 -0.1762 -0.7654  0.6779
23286SOL     OW81581   3.594   5.001   9.777 -0.0399 -0.0848 -0.0859
23286SOL    HW181582   3.634   4.950   9.706 -2.0492  0.7851 -1.9518
23286SOL    HW281583   3.570   5.084   9.736 -1.3656  0.4169  1.6063
23287SOL     OW81584   4.114   7.192   2.917  0.6951 -0.2598  0.1078
23287SOL    HW181585   4.208   7.195   2.904  0.4885 -0.5867 -1.8926
23287SOL    HW281586   4.079   7.164   2.832 -1.3500  1.8844  0.1427
23288SOL     OW81587   2.367  11.054   6.642 -0.7061 -0.3815 -0.5859
23288SOL    HW181588   2.306  11.118   6.679 -0.5041 -1.1027  1.0685
23288SOL    HW281589   2.338  10.970   6.677  0.9515 -0.7960 -0.1235
23289SOL     OW81590   1.277   5.388   8.501  0.0830 -0.2537  0.3419
23289SOL    HW181591   1.259   5.298   8.528 -1.0570  0.3410  1.6682
23289SOL    HW281592   1.373   5.391   8.493  0.2148 -1.3359  1.2237
23290SOL     OW81593  10.719   1.320   6.464  0.1844  0.3192  0.1012
23290SOL    HW181594  10.683   1.332   6.376  1.8214 -0.3746 -0.7140
23290SOL    HW281595  10.642   1.312   6.521 -0.9246  2.4274 -0.9914
23291SOL     OW81596   0.517   1.052   3.755 -0.1992 -0.8166  0.5697
23291SOL    HW181597   0.598   1.037   3.706  0.5003  0.7771  1.1798
23291SOL    HW281598   0.448   1.025   3.695  0.7641 -2.2784  0.0614
23292SOL     OW81599   3.492   9.348   4.964 -0.2188 -0.1251 -0.0509
23292SOL    HW181600   3.542   9.426   4.985  0.5408 -0.5494 -0.2669
23292SOL    HW281601   3.528   9.280   5.021 -0.5045 -0.4525 -0.2526
23293SOL     OW81602   4.329   2.272  11.642  0.2202 -0.0405 -0.0636
23293SOL    HW181603   4.268   2.321  11.696 -0.1155 -0.2448 -0.2535
23293SOL    HW281604   4.401   2.248  11.701  0.0940  0.1592  0.1688
23294SOL     OW81605   6.664  11.925   5.164  0.5814 -0.0330  0.0443
23294SOL    HW181606   6.727  11.962   5.227  1.5414  2.5137 -2.2183
23294SOL    HW281607   6.653  11.994   5.098 -3.2201 -1.1119 -0.6720
23295SOL     OW81608   8.430   5.487   8.125  0.1310 -0.5436  0.3057
23295SOL    HW181609   8.368   5.547   8.083 -0.9039 -0.8976  1.2687
23295SOL    HW281610   8.381   5.450   8.198  1.5192 -0.8028  1.1384
23296SOL     OW81611   8.511   8.230   3.526 -0.4510  0.1235  0.4762
23296SOL    HW181612   8.543   8.141   3.509  0.7142  0.6815 -0.3592
23296SOL    HW281613   8.561   8.259   3.602  0.5328  0.7202 -0.3739
23297SOL     OW81614   8.719   1.759   5.166  0.0259 -0.3669 -0.4625
23297SOL    HW181615   8.675   1.816   5.103  0.0057 -1.5260 -1.5151
23297SOL    HW281616   8.653   1.741   5.233  0.4699  2.0607  0.7702
23298SOL     OW81617  10.947   4.531   1.147  0.5942  0.6017  0.0377
23298SOL    HW181618  11.036   4.495   1.150  0.6552  0.6287 -1.1617
23298SOL    HW281619  10.909   4.494   1.068 -0.8435 -0.2294  1.0652
23299SOL     OW81620  11.745   6.264   6.859 -0.2358  0.4487 -0.0441
23299SOL    HW181621  11.678   6.257   6.791 -1.2468 -0.3737  0.9955
23299SOL    HW281622  11.703   6.313   6.929  0.8610  1.4575 -0.0619
23300SOL     OW81623   9.952   3.175   2.369 -0.1406 -0.0214  0.0215
23300SOL    HW181624   9.918   3.119   2.438  1.2048 -1.5515 -0.5140
23300SOL    HW281625   9.874   3.209   2.325 -0.9947  0.0197  1.4980
23301SOL     OW81626   1.346   7.003   4.762 -0.1957 -0.2344  0.3972
23301SOL    HW181627   1.301   7.048   4.833  0.1925  0.3337  0.2901
23301SOL    HW281628   1.439   7.010   4.785  0.0255  1.0356 -0.7839
23302SOL     OW81629  11.877   1.235   6.317 -0.0094  0.0198 -0.1844
23302SOL    HW181630  11.784   1.252   6.304 -0.2028 -1.2868 -0.6031
23302SOL    HW281631  11.885   1.210   6.409  0.1747  1.5691  0.2499
23303SOL     OW81632  11.675   2.867   6.477  0.1903  0.0364  0.2572
23303SOL    HW181633  11.646   2.782   6.511 -0.6316 -0.4232 -1.4475
23303SOL    HW281634  11.741   2.844   6.411  0.8474  0.8105  0.6306
23304SOL     OW81635   7.505   6.252   8.061  0.0203  0.1847 -0.6339
23304SOL    HW181636   7.546   6.179   8.107 -1.6669 -1.1496 -1.1658
23304SOL    HW281637   7.516   6.327   8.121 -0.5110 -1.0891  1.1314
23305SOL     OW81638   6.789   4.844   5.280  0.0148  0.1674  0.0655
23305SOL    HW181639   6.863   4.788   5.257 -0.1423  0.2834 -0.7674
23305SOL    HW281640   6.769   4.822   5.371  0.3711 -0.6579 -0.0472
23306SOL     OW81641   4.303   9.118   7.870 -0.6525 -0.1644 -0.3908
23306SOL    HW181642   4.384   9.136   7.919 -0.7966  1.4698 -0.6817
23306SOL    HW281643   4.257   9.202   7.869 -1.8171 -0.7847 -1.2287
23307SOL     OW81644   8.734   6.629   5.795 -0.5285  0.0064  0.1147
23307SOL    HW181645   8.684   6.548   5.805  1.0816 -1.3803 -2.0446
23307SOL    HW281646   8.792   6.631   5.871  0.8658 -2.0542 -0.7982
23308SOL     OW81647   2.285   4.188   0.010 -0.3098 -0.1217 -0.4515
23308SOL    HW181648   2.288   4.140   0.093  0.7118  0.1097 -0.3346
23308SOL    HW281649   2.196   4.222   0.005 -0.3297  0.0297  0.6479
23309SOL     OW81650   4.423   8.390   5.859  0.5809 -0.2174 -0.1824
23309SOL    HW181651   4.405   8.481   5.835 -1.4999 -0.9673 -1.7606
23309SOL    HW281652   4.375   8.376   5.940  1.5165  0.2445  0.4807
23310SOL     OW81653   1.547   7.175   5.275  0.0024 -0.2212  0.0285
23310SOL    HW181654   1.640   7.195   5.290  0.1415 -0.1761 -0.8406
23310SOL    HW281655   1.517   7.244   5.215 -1.4083  1.5868  2.6324
23311SOL     OW81656   2.786   6.070   2.836  0.5655  0.3233 -0.1214
23311SOL    HW181657   2.725   6.066   2.910  0.7541 -0.5760  0.0058
23311SOL    HW281658   2.816   5.979   2.827  2.7786  0.9390  0.5760
23312SOL     OW81659   3.918   6.689  11.755 -0.5348  0.1161  0.0229
23312SOL    HW181660   3.829   6.655  11.769 -0.5480  0.1583  0.0442
23312SOL    HW281661   3.913   6.734  11.670 -0.4410 -0.1903 -0.1456
23313SOL     OW81662   3.141   0.739   5.113 -1.0735  0.0506  0.1138
23313SOL    HW181663   3.194   0.682   5.057 -1.3983 -1.4898  1.2932
23313SOL    HW281664   3.204   0.796   5.156 -0.4033 -1.2899  0.9719
23314SOL     OW81665  11.059  11.469   5.274 -0.0440 -0.8441 -0.5433
23314SOL    HW181666  11.112  11.469   5.194 -1.5168 -0.0445 -1.5567
23314SOL    HW281667  11.107  11.526   5.334  0.4857 -0.4991 -1.2742
23315SOL     OW81668   0.861   2.796   4.681  0.0276  0.8961  0.0626
23315SOL    HW181669   0.880   2.854   4.755  0.4754 -0.2429  0.8650
23315SOL    HW281670   0.944   2.786   4.635 -0.1174  1.1219 -0.2554
23316SOL     OW81671   0.458   4.436   4.177  0.2208 -0.5143  0.2667
23316SOL    HW181672   0.475   4.444   4.083  0.6558 -0.8140  0.3188
23316SOL    HW281673   0.446   4.343   4.192  2.9212 -0.8363  0.9541
23317SOL     OW81674   7.828   2.449   7.143  0.3059 -0.3111  0.2774
23317SOL    HW181675   7.830   2.481   7.233 -1.0604  0.2470  0.1340
23317SOL    HW281676   7.920   2.433   7.121  0.8375  1.3247  1.1521
23318SOL     OW81677   0.759   0.072   9.527 -0.1401 -0.1472 -0.1629
23318SOL    HW181678   0.761   0.086   9.622  1.0186  0.1333 -0.2181
23318SOL    HW281679   0.751  -0.023   9.517 -3.2086 -0.0450  0.1921
23319SOL     OW81680  11.727   7.728  11.038  0.2822  0.1268 -0.3976
23319SOL    HW181681  11.670   7.669  10.989  2.1587  1.4996 -4.7979
23319SOL    HW281682  11.814   7.688  11.030  1.1166  1.9609 -1.0113
23320SOL     OW81683   8.329   6.922  10.012 -0.3257  0.1220  0.0640
23320SOL    HW181684   8.306   6.837   9.973 -1.1806  0.5747 -0.4721
23320SOL    HW281685   8.245   6.959  10.040  0.1962  0.1487  1.6724
23321SOL     OW81686   8.740   7.319   1.868  0.1572  0.6443  0.0759
23321SOL    HW181687   8.659   7.339   1.916 -0.9745  2.0489 -2.2564
23321SOL    HW281688   8.718   7.243   1.815  0.5575  0.6861 -0.1499
23322SOL     OW81689   8.505  10.702   9.314 -0.0212 -0.0704 -0.0815
23322SOL    HW181690   8.522  10.671   9.403 -1.4089 -2.4563 -0.5617
23322SOL    HW281691   8.459  10.785   9.327  0.4685  0.0055  1.3891
23323SOL     OW81692   3.349  11.082   8.216  0.2443 -0.3333 -0.1110
23323SOL    HW181693   3.444  11.075   8.226  0.0180 -1.2619  2.1504
23323SOL    HW281694   3.316  10.996   8.241 -1.1980 -0.1910 -1.3570
23324SOL     OW81695  10.477   3.531   1.479  0.5300  0.0749 -0.1600
23324SOL    HW181696  10.504   3.547   1.388 -0.9540  0.2937 -0.5796
23324SOL    HW281697  10.405   3.592   1.494  0.1638 -0.5912  0.8769
23325SOL     OW81698   4.711  11.216  11.923 -0.0688 -0.0707  0.1517
23325SOL    HW181699   4.670  11.132  11.943 -1.8733 -0.0366 -2.7369
23325SOL    HW281700   4.756  11.201  11.839  0.2028  1.6435 -0.0513
23326SOL     OW81701   7.813   2.408   1.224 -0.8251  0.3283  0.1995
23326SOL    HW181702   7.895   2.444   1.258 -0.6216 -0.9883  1.2038
23326SOL    HW281703   7.745   2.453   1.274 -0.6504  0.4655  0.3146
23327SOL     OW81704   0.477   1.595   0.543  0.1963  0.3872  0.5443
23327SOL    HW181705   0.493   1.665   0.606  2.0725  0.3335  0.1838
23327SOL    HW281706   0.453   1.520   0.597 -0.0675  0.8194  1.0506
23328SOL     OW81707   3.229   8.646   7.610 -0.4843 -0.1084  0.0820
23328SOL    HW181708   3.293   8.674   7.545 -0.7053  0.2230  0.0083
23328SOL    HW281709   3.174   8.583   7.563 -0.9494  0.4975 -0.1971
23329SOL     OW81710   2.515   3.433   0.388  0.6266 -0.0727  0.5358
23329SOL    HW181711   2.514   3.529   0.383  1.0119 -0.0970 -0.2363
23329SOL    HW281712   2.458   3.412   0.462  0.3170  0.7400  0.5413
23330SOL     OW81713   5.365   1.493   8.656 -0.8395  0.0587  0.4527
23330SOL    HW181714   5.423   1.514   8.583  1.5050  2.0533  2.6913
23330SOL    HW281715   5.371   1.398   8.665 -3.6477 -0.7947 -3.6510
23331SOL     OW81716   4.766   7.885   1.397  0.6531  0.2746 -0.2209
23331SOL    HW181717   4.840   7.826   1.383  0.3741 -0.2440  0.4457
23331SOL    HW281718   4.715   7.843   1.467  0.9837  1.7914  0.9837
23332SOL     OW81719   8.219   4.895   5.453  0.2419 -0.2072  0.7203
23332SOL    HW181720   8.136   4.858   5.426 -0.3622  1.1279  0.6799
23332SOL    HW281721   8.217   4.985   5.423  1.2261  0.1793  1.7050
23333SOL     OW81722   8.617  11.666   1.044  0.3062 -0.4888 -0.1792
23333SOL    HW181723   8.566  11.746   1.033  0.1255 -0.5725  0.0410
23333SOL    HW281724   8.653  11.672   1.132 -0.3109 -0.9914  0.1161
23334SOL     OW81725   8.564   6.015   2.000  0.5869  0.0273  0.3898
23334SOL    HW181726   8.522   5.950   1.944  1.3040  0.2668 -0.4477
23334SOL    HW281727   8.587   6.087   1.941  1.3743  0.2808  0.9822
23335SOL     OW81728   6.784   9.783  11.027 -1.0728  0.5499 -0.0428
23335SOL    HW181729   6.870   9.821  11.011 -1.2263  0.3185 -1.5436
23335SOL    HW281730   6.722   9.845  10.988 -1.4649 -0.1700 -0.5912
23336SOL     OW81731   9.083   8.295   7.359  0.8177  0.1152  0.2451
23336SOL    HW181732   9.075   8.287   7.454  1.3491 -1.1424  0.1997
23336SOL    HW281733   9.003   8.340   7.332  0.3049 -0.1872  1.2028
23337SOL     OW81734  11.446   8.223   7.633 -0.4237  0.3263  0.4563
23337SOL    HW181735  11.521   8.177   7.672  0.7598  1.1327 -0.7843
23337SOL    HW281736  11.377   8.215   7.698  0.3464 -1.5008  1.1299
23338SOL     OW81737   0.034   2.126   9.152 -0.4206  0.0879 -0.0933
23338SOL    HW181738   0.031   2.034   9.179 -2.2573  0.0141 -0.4629
23338SOL    HW281739  -0.024   2.131   9.076  1.5355  1.0924 -1.6151
23339SOL     OW81740   0.417   5.901   0.483 -0.0843  0.0779 -0.0993
23339SOL    HW181741   0.424   5.900   0.387 -1.4065 -1.5025 -0.2339
23339SOL    HW281742   0.502   5.870   0.514 -0.5127 -2.1486 -0.9238
23340SOL     OW81743   1.442   7.275  10.734 -0.7326  0.2357 -0.2217
23340SOL    HW181744   1.471   7.347  10.789  1.2097 -0.3148 -0.4559
23340SOL    HW281745   1.409   7.209  10.795  0.8543 -0.1326  0.2574
23341SOL     OW81746   6.751   4.812  10.808  0.4578 -0.0955 -0.0218
23341SOL    HW181747   6.684   4.754  10.771  0.7315  0.6996 -1.8856
23341SOL    HW281748   6.725   4.900  10.778  0.9257  0.5526  1.4070
23342SOL     OW81749   0.272   2.004   9.828  0.4450 -0.8118  0.1011
23342SOL    HW181750   0.309   2.091   9.812  1.7419 -1.3880 -0.1702
23342SOL    HW281751   0.219   1.986   9.750 -0.6883  0.1449  0.6217
23343SOL     OW81752   6.128   5.215  11.171 -0.3531  0.0771  0.1996
23343SOL    HW181753   6.136   5.121  11.154  1.9452  0.5470 -1.8779
23343SOL    HW281754   6.167   5.228  11.258  2.5193 -0.5614 -0.8856
23344SOL     OW81755   1.967   5.836   9.517  0.0578 -0.0710  0.2927
23344SOL    HW181756   1.955   5.818   9.424  1.7123 -0.5273  0.1341
23344SOL    HW281757   2.005   5.755   9.553  0.4110  0.4542  1.1473
23345SOL     OW81758   5.486   1.756   6.362 -0.2338 -0.3592  0.1876
23345SOL    HW181759   5.547   1.795   6.424 -0.6079 -1.8803  1.5953
23345SOL    HW281760   5.436   1.693   6.414 -1.1068 -1.1382 -1.5025
23346SOL     OW81761   0.207  11.131   3.849  0.1444 -0.1779 -0.0877
23346SOL    HW181762   0.132  11.130   3.908  1.1461 -1.1071  1.2049
23346SOL    HW281763   0.255  11.211   3.872 -0.5226  0.5208 -1.0493
23347SOL     OW81764   8.910   0.463   8.050 -0.0534  0.3178 -0.5951
23347SOL    HW181765   9.002   0.489   8.055 -0.3106  1.1993 -0.1981
23347SOL    HW281766   8.875   0.481   8.137 -0.0026 -2.4688  0.1006
23348SOL     OW81767   3.772  10.213   5.390 -0.5692 -0.4358 -0.2082
23348SOL    HW181768   3.792  10.305   5.409 -1.6060 -0.1528 -0.4179
23348SOL    HW281769   3.857  10.170   5.390 -0.1797  0.2110  1.5335
23349SOL     OW81770   1.892   1.439   3.821  0.2138 -0.6371 -0.2959
23349SOL    HW181771   1.908   1.504   3.890  0.5622  1.4435 -2.2422
23349SOL    HW281772   1.979   1.406   3.799  0.2557 -0.3270 -0.6125
23350SOL     OW81773   3.510   4.095   2.616  0.1070 -0.1330  0.6889
23350SOL    HW181774   3.491   4.006   2.587  0.3169  0.0238  0.0428
23350SOL    HW281775   3.571   4.129   2.550  0.3204  0.3627  1.1330
23351SOL     OW81776  10.034   9.444  11.934  0.4493 -0.1772 -0.3815
23351SOL    HW181777   9.993   9.510  11.990 -0.8736 -1.1788 -0.1401
23351SOL    HW281778  10.077   9.495  11.865  0.7333  0.9989  0.6104
23352SOL     OW81779  11.334   2.048   0.550  0.9602  0.4623 -0.1951
23352SOL    HW181780  11.257   2.104   0.537 -0.0981 -0.7852  0.4645
23352SOL    HW281781  11.312   1.967   0.504  1.4567 -0.2787  0.8462
23353SOL     OW81782   3.906   3.411   6.537  0.0312 -0.1085  0.4859
23353SOL    HW181783   3.846   3.421   6.611  1.2901 -0.3744  1.5824
23353SOL    HW281784   3.898   3.493   6.488 -0.0876  0.4985  1.4940
23354SOL     OW81785   8.906   2.321   3.803 -0.2381  0.1574 -0.0489
23354SOL    HW181786   8.881   2.250   3.744  0.8316  0.5830 -1.0569
23354SOL    HW281787   8.918   2.279   3.888 -0.5650 -0.6964 -0.4134
23355SOL     OW81788  10.852   6.252   1.698 -0.5238  0.3790 -0.2378
23355SOL    HW181789  10.871   6.168   1.740 -1.7048  0.9362  1.4909
23355SOL    HW281790  10.904   6.250   1.617 -0.0088 -1.7214  0.0823
23356SOL     OW81791   5.551  10.988   2.774 -0.0430  0.2300  0.4325
23356SOL    HW181792   5.536  10.948   2.688 -1.8937 -0.8639  1.2186
23356SOL    HW281793   5.626  10.940   2.809  0.3085  0.2308 -0.2927
23357SOL     OW81794  11.195   9.999  10.250  0.1043 -0.4014  0.2092
23357SOL    HW181795  11.193  10.079  10.302 -1.2995 -1.4990  1.9507
23357SOL    HW281796  11.103   9.983  10.228  0.6300 -0.0392 -2.6089
23358SOL     OW81797   8.864   6.187   8.424 -0.2434 -0.0506 -0.1935
23358SOL    HW181798   8.841   6.111   8.370 -0.5642 -0.8991  1.0894
23358SOL    HW281799   8.958   6.198   8.412 -0.1457 -0.8359 -0.1647
23359SOL     OW81800   8.548   8.363   3.253 -0.0189  0.1590  0.0767
23359SOL    HW181801   8.498   8.314   3.188  1.5083 -2.4433  0.7422
23359SOL    HW281802   8.529   8.319   3.336  1.3134  0.7605  0.7294
23360SOL     OW81803   4.567   7.625   9.644 -0.0672 -0.3927  0.7912
23360SOL    HW181804   4.604   7.621   9.555  0.9866 -1.5372  1.2538
23360SOL    HW281805   4.567   7.718   9.665  3.3022 -0.3199  1.0126
23361SOL     OW81806   6.553   6.856   9.481 -0.3107 -0.5228  0.7549
23361SOL    HW181807   6.525   6.948   9.489  0.5398  0.0468 -1.6798
23361SOL    HW281808   6.481   6.806   9.518 -1.1343  1.1023  1.4804
23362SOL     OW81809   9.816   7.577  11.368  0.0809 -0.0548  0.2361
23362SOL    HW181810   9.787   7.574  11.459 -1.0637  1.1990 -0.0565
23362SOL    HW281811   9.907   7.609  11.374  1.5843 -3.9226  1.1418
23363SOL     OW81812   0.704   4.791   4.168  0.4331  0.1381 -0.8631
23363SOL    HW181813   0.617   4.824   4.189 -0.0958 -0.6566 -1.7143
23363SOL    HW281814   0.763   4.842   4.223 -0.4987  1.2239 -0.8301
23364SOL     OW81815   1.208   6.093  10.415  0.4035 -0.0654 -0.5066
23364SOL    HW181816   1.121   6.075  10.452  1.0373 -0.2555  0.9836
23364SOL    HW281817   1.195   6.093  10.320 -1.1993 -0.1886 -0.3131
23365SOL     OW81818   3.013   8.178   4.384 -0.0088  0.1037  0.2689
23365SOL    HW181819   2.971   8.134   4.310 -0.1449  0.9256 -0.1450
23365SOL    HW281820   2.982   8.268   4.380 -0.6493 -0.0229  1.8035
23366SOL     OW81821   8.401   9.923   6.445 -0.0433  0.3183  0.0773
23366SOL    HW181822   8.324   9.874   6.474 -0.0634  0.4366  0.2259
23366SOL    HW281823   8.390   9.932   6.351  0.6043 -1.1073 -0.1656
23367SOL     OW81824   5.576   8.578  10.079  0.1291  0.2996 -0.1673
23367SOL    HW181825   5.523   8.523  10.136  0.7528  1.3008  1.4588
23367SOL    HW281826   5.552   8.552   9.990 -1.0767 -1.1285  0.5437
23368SOL     OW81827   4.227   0.938   2.870 -0.2353  0.2494  0.6559
23368SOL    HW181828   4.221   0.873   2.800 -1.1169  1.0085  0.0233
23368SOL    HW281829   4.217   1.022   2.827  2.3975  0.9765  1.2329
23369SOL     OW81830   6.599   4.086  10.192  0.0047  0.3934  0.2508
23369SOL    HW181831   6.564   4.143  10.261  0.0540 -0.5834  1.0973
23369SOL    HW281832   6.525   4.029  10.169 -0.1297  0.9575 -0.7950
23370SOL     OW81833   3.282   0.260   2.238 -0.0005 -0.4112 -1.0051
23370SOL    HW181834   3.242   0.188   2.286  2.9850 -1.0602  0.7918
23370SOL    HW281835   3.288   0.331   2.303 -0.1076  0.3736 -1.8325
23371SOL     OW81836   6.510   1.371   9.726  0.1327 -0.1991  0.0155
23371SOL    HW181837   6.501   1.340   9.636  0.4342  0.3207 -0.1998
23371SOL    HW281838   6.461   1.453   9.728 -0.8212 -0.7703  0.6287
23372SOL     OW81839   8.320   3.019   2.308 -0.0598 -0.3256  0.0749
23372SOL    HW181840   8.247   2.975   2.264 -0.3862 -1.5352  1.7181
23372SOL    HW281841   8.398   2.976   2.273 -0.2967 -1.0310  0.3863
23373SOL     OW81842   2.972   2.825   5.209  0.3468 -0.5757  0.4904
23373SOL    HW181843   2.900   2.865   5.162  1.0897  1.7930  1.2102
23373SOL    HW281844   2.994   2.746   5.158 -1.0446  0.0413 -1.1558
23374SOL     OW81845   6.114  10.337   9.598 -0.1055  0.6998 -0.8393
23374SOL    HW181846   6.149  10.276   9.663  1.3882 -0.6990 -2.8646
23374SOL    HW281847   6.023  10.308   9.586 -0.6849  1.5006  1.1358
23375SOL     OW81848   1.165   5.491   4.761  0.4428  0.0597 -0.1769
23375SOL    HW181849   1.196   5.519   4.675  1.5710 -0.0715  0.1689
23375SOL    HW281850   1.114   5.412   4.744 -0.8266  1.0021 -0.9049
23376SOL     OW81851  11.266   9.976  11.814 -0.1262  0.0159  0.4592
23376SOL    HW181852  11.200  10.004  11.752  0.7676 -1.5107 -1.2592
23376SOL    HW281853  11.329  10.049  11.816  0.5494 -0.4518 -1.5414
23377SOL     OW81854   7.151   6.623   0.079 -0.0793 -0.5873 -0.0799
23377SOL    HW181855   7.213   6.695   0.089  0.8082 -1.0196 -2.0944
23377SOL    HW281856   7.204   6.549   0.050 -1.1838 -1.6657  0.5982
23378SOL     OW81857   3.375   6.486   6.499 -0.2721 -0.2356  0.2735
23378SOL    HW181858   3.432   6.426   6.450 -1.1417  0.3905 -1.5827
23378SOL    HW281859   3.418   6.496   6.584  1.9846 -0.3690 -0.7929
23379SOL     OW81860   5.459  10.202   4.368  0.1027  0.7585 -0.0570
23379SOL    HW181861   5.480  10.292   4.342 -0.9823  0.7011 -1.2288
23379SOL    HW281862   5.365  10.193   4.350  0.0605 -0.4086  0.6568
23380SOL     OW81863   4.154   0.168  10.300  0.5020  0.3728  0.0689
23380SOL    HW181864   4.097   0.242  10.283  0.3290 -0.0145 -1.0973
23380SOL    HW281865   4.172   0.130  10.214  0.0572 -1.3244  0.6706
23381SOL     OW81866   8.664   3.690   2.229  0.3907  0.1719  0.2103
23381SOL    HW181867   8.746   3.716   2.186  1.4186 -2.1122  0.6330
23381SOL    HW281868   8.669   3.730   2.316 -0.0119  1.8146 -0.4667
23382SOL     OW81869   4.214   3.680   8.592 -0.0004 -0.0099 -0.6069
23382SOL    HW181870   4.271   3.703   8.665  0.9776 -1.7930 -0.7726
23382SOL    HW281871   4.262   3.614   8.543 -0.7808  0.8764 -2.6993
23383SOL     OW81872   9.544   7.814   7.652  0.1861  0.0905 -0.0608
23383SOL    HW181873   9.474   7.751   7.670  0.3184 -0.1141 -0.2526
23383SOL    HW281874   9.501   7.883   7.601 -0.0083  0.2712  0.3412
23384SOL     OW81875   9.935   7.487   4.796 -0.3640 -0.1343  0.2608
23384SOL    HW181876   9.937   7.410   4.853  2.4846 -0.5052 -0.1871
23384SOL    HW281877   9.901   7.455   4.713  0.6959 -0.8955  0.1135
23385SOL     OW81878   2.452   1.177  11.643 -0.2434  0.3649  0.1635
23385SOL    HW181879   2.496   1.134  11.717  1.0394 -0.0034 -0.7673
23385SOL    HW281880   2.524   1.209  11.588 -1.1121 -0.6304 -1.6358
23386SOL     OW81881   4.072  10.742   0.032  0.4506  0.1042 -0.8836
23386SOL    HW181882   3.981  10.725   0.056  0.6828  1.2966  1.0799
23386SOL    HW281883   4.116  10.658   0.044 -0.0279 -0.0235  0.0478
23387SOL     OW81884   5.717   4.852   8.361  0.5796 -0.0984 -0.1929
23387SOL    HW181885   5.806   4.850   8.397  0.5571  0.6545 -0.0627
23387SOL    HW281886   5.710   4.939   8.321 -0.2901  0.0791  0.3139
23388SOL     OW81887   8.734   8.757  11.210  0.3183  1.1064  0.3359
23388SOL    HW181888   8.791   8.751  11.133  0.7365  2.7155  0.4797
23388SOL    HW281889   8.650   8.786  11.175 -0.1573 -0.3015  0.2467
23389SOL     OW81890  11.762   2.552   9.369  0.8684 -0.1408 -0.1150
23389SOL    HW181891  11.735   2.633   9.413 -0.1351 -0.8009  0.5085
23389SOL    HW281892  11.827   2.581   9.304  1.0803  1.0659  0.6036
23390SOL     OW81893   5.533   2.363   2.225 -0.0901  0.6191 -0.4977
23390SOL    HW181894   5.499   2.274   2.230  1.1801  0.1604  0.9750
23390SOL    HW281895   5.499   2.406   2.304  1.1465  0.7149  0.0133
23391SOL     OW81896   7.844  10.712   1.718 -0.2934  0.0559 -1.0634
23391SOL    HW181897   7.897  10.773   1.770  0.1508 -1.8960  0.9341
23391SOL    HW281898   7.909  10.659   1.671 -0.5819 -0.0838 -1.3004
23392SOL     OW81899   4.737   1.865   1.660  0.3833 -0.2828 -0.5389
23392SOL    HW181900   4.659   1.874   1.714  0.6861 -0.2490 -0.1082
23392SOL    HW281901   4.734   1.940   1.600  2.3601  2.3507  2.3542
23393SOL     OW81902   5.101   0.695   5.666 -0.4980  0.4852 -0.5018
23393SOL    HW181903   5.053   0.634   5.722 -1.4324  0.8953 -0.8383
23393SOL    HW281904   5.123   0.644   5.588 -1.1396  0.5245 -0.7143
23394SOL     OW81905   7.596   8.625   8.546 -0.0430 -0.1463 -0.0315
23394SOL    HW181906   7.628   8.636   8.635  0.6699 -0.0757 -0.2901
23394SOL    HW281907   7.671   8.646   8.491 -0.2012 -1.1145 -0.6329
23395SOL     OW81908   8.583   1.574  11.848  0.2522  0.2090 -0.0568
23395SOL    HW181909   8.527   1.509  11.805 -0.3764  1.5399 -1.3774
23395SOL    HW281910   8.667   1.567  11.804 -0.0749  0.8527 -0.8025
23396SOL     OW81911   9.408   8.035  11.209  0.0801 -0.1184  0.5392
23396SOL    HW181912   9.314   8.056  11.214  0.0956 -0.1055  0.7568
23396SOL    HW281913   9.414   7.944  11.239  0.0538 -0.3398 -0.0986
23397SOL     OW81914   6.030   3.003   4.649 -0.3265 -0.0591  0.1772
23397SOL    HW181915   6.071   3.083   4.616  1.1486 -0.8281  0.0889
23397SOL    HW281916   6.003   3.026   4.738 -0.6443  0.7657 -0.1135
23398SOL     OW81917  10.949   5.199   4.622 -0.4839 -0.5970 -0.2191
23398SOL    HW181918  11.044   5.202   4.623 -0.4434 -1.5612  1.3955
23398SOL    HW281919  10.923   5.193   4.714 -2.1676  0.7183 -0.5372
23399SOL     OW81920   4.876   9.645   7.315 -0.3369 -0.0336  0.4176
23399SOL    HW181921   4.831   9.612   7.392  0.9254 -1.1429  0.7197
23399SOL    HW281922   4.922   9.724   7.345  0.8312 -0.9303  1.0367
23400SOL     OW81923   7.532   4.962   8.578 -0.3226  0.3136  0.3466
23400SOL    HW181924   7.437   4.947   8.582 -0.3093  0.4394  1.5218
23400SOL    HW281925   7.540   5.057   8.569 -0.3014  0.2436 -0.5201
23401SOL     OW81926   6.078   0.517   3.328 -0.1038 -0.7296  0.1251
23401SOL    HW181927   5.999   0.513   3.273  0.2132  1.6060 -0.6186
23401SOL    HW281928   6.062   0.591   3.387  0.5108 -1.8051  1.6988
23402SOL     OW81929   5.526   1.700   3.525  0.0439  0.0581 -0.1435
23402SOL    HW181930   5.453   1.759   3.541  0.6191  0.7566 -0.0490
23402SOL    HW281931   5.486   1.613   3.518 -0.6372  0.2068  1.4112
23403SOL     OW81932   9.009   4.545  10.522  0.2818  0.1441  0.1573
23403SOL    HW181933   9.094   4.589  10.524  0.6596 -0.5372 -0.4266
23403SOL    HW281934   8.962   4.586  10.450  0.2925  0.1938  0.1786
23404SOL     OW81935  11.907  11.865   5.373  0.1768  0.6608 -0.5347
23404SOL    HW181936  11.950  11.924   5.311 -1.5325  2.9692  0.3594
23404SOL    HW281937  11.963  11.866   5.450  1.0614 -0.3213 -1.1431
23405SOL     OW81938   7.909   1.250   6.451  0.6181 -0.3269 -0.4973
23405SOL    HW181939   7.897   1.302   6.371 -1.6006  0.8137  0.4883
23405SOL    HW281940   7.848   1.177   6.441  1.5598 -1.1222 -0.5519
23406SOL     OW81941  10.791   0.467   9.243  0.4980  0.2115  0.7629
23406SOL    HW181942  10.770   0.376   9.264  1.1304  0.0646  0.7820
23406SOL    HW281943  10.877   0.482   9.282  0.7476  0.5770  0.0984
23407SOL     OW81944   8.428   9.708   0.929  0.2693  0.2283  0.4309
23407SOL    HW181945   8.485   9.774   0.969  0.7885  0.4144 -0.5833
23407SOL    HW281946   8.441   9.719   0.835 -0.9466 -0.1792  0.1963
23408SOL     OW81947   7.581   7.349   7.490  0.0730  0.6187  0.5233
23408SOL    HW181948   7.508   7.410   7.479  1.2164  2.0788  0.6630
23408SOL    HW281949   7.579   7.326   7.583  1.1479  2.5236  1.0685
23409SOL     OW81950   6.961   8.430  11.453 -0.2658  0.0434  0.4920
23409SOL    HW181951   6.979   8.476  11.371  0.2530 -0.4306  0.3313
23409SOL    HW281952   6.978   8.338  11.433 -1.1427 -0.2027  0.8471
23410SOL     OW81953   4.495   0.764  11.767  0.7408 -0.4770 -0.6668
23410SOL    HW181954   4.468   0.808  11.686  0.1982  0.4127 -0.0270
23410SOL    HW281955   4.424   0.704  11.787 -0.4070  1.1624  0.4938
23411SOL     OW81956   8.424   6.118   6.725  0.2937  0.5301  0.0630
23411SOL    HW181957   8.490   6.169   6.772  0.4383 -0.8012  1.3837
23411SOL    HW281958   8.468   6.035   6.704  0.7158  1.5570 -3.8185
23412SOL     OW81959   3.950   5.242   6.919 -0.1544 -0.5100 -0.3304
23412SOL    HW181960   3.866   5.252   6.964  0.7089  0.4725  1.1162
23412SOL    HW281961   4.009   5.303   6.963  1.1338 -0.5903 -1.8407
23413SOL     OW81962  11.192   5.852   6.057  0.0157  0.2406  0.6116
23413SOL    HW181963  11.286   5.845   6.070  0.1637 -1.4690 -1.0155
23413SOL    HW281964  11.180   5.850   5.962 -1.6702  0.1171  0.7871
23414SOL     OW81965   0.572   0.538   1.758 -0.1985 -0.1038  0.8112
23414SOL    HW181966   0.542   0.454   1.791  1.9742 -0.8041  1.1512
23414SOL    HW281967   0.618   0.578   1.832  1.6213 -0.1195 -0.2401
23415SOL     OW81968   7.305   1.973   8.410  0.1720 -0.0198  0.1615
23415SOL    HW181969   7.249   2.050   8.401  0.1934  0.1043  1.0168
23415SOL    HW281970   7.292   1.924   8.328 -1.1845  0.0111  0.3281
23416SOL     OW81971   5.869   7.644   5.548 -0.7252 -0.6070  0.1202
23416SOL    HW181972   5.930   7.577   5.579 -0.1838  0.1055  0.6284
23416SOL    HW281973   5.881   7.717   5.608 -1.0745  0.0728 -0.6155
23417SOL     OW81974   3.604   4.048   4.971  0.0792 -0.2945  0.1874
23417SOL    HW181975   3.660   3.970   4.969 -1.9538 -1.9404  1.9800
23417SOL    HW281976   3.577   4.061   4.880  2.7294  0.1477 -0.6067
23418SOL     OW81977   9.888   7.207  10.116 -0.0698  0.3665  0.3350
23418SOL    HW181978   9.963   7.150  10.101 -1.3751 -1.1949 -0.5771
23418SOL    HW281979   9.892   7.271  10.044 -1.3376 -1.7066 -1.7455
23419SOL     OW81980   2.630   8.810   1.662 -0.1226  0.0072 -0.0244
23419SOL    HW181981   2.578   8.833   1.739  0.3377  0.7131  0.0875
23419SOL    HW281982   2.572   8.827   1.588 -0.1734  0.4638  0.1157
23420SOL     OW81983   8.023  10.603   3.726 -0.2533  0.1888 -0.1661
23420SOL    HW181984   8.085  10.530   3.735  0.5300  0.6469 -1.5599
23420SOL    HW281985   8.047  10.645   3.644 -0.6333  2.0897  0.6423
23421SOL     OW81986   5.572   5.313  11.328 -0.2344 -0.0869  0.2568
23421SOL    HW181987   5.650   5.363  11.350 -1.1673  1.6797 -0.2795
23421SOL    HW281988   5.589   5.278  11.241  0.4539 -0.8094  0.6654
23422SOL     OW81989   7.332   4.942   8.779  0.3151  0.5082 -0.2097
23422SOL    HW181990   7.240   4.937   8.753  0.0809  1.1891  0.4414
23422SOL    HW281991   7.329   4.967   8.871  1.1390 -1.0387  0.2750
23423SOL     OW81992   5.795   9.813   1.796  0.0807  0.0767  0.5369
23423SOL    HW181993   5.760   9.724   1.796 -1.0479  0.5017 -0.4393
23423SOL    HW281994   5.747   9.858   1.865  1.8312 -0.4648  2.2106
23424SOL     OW81995   7.638   6.326   7.829  0.0679 -0.3346  0.6084
23424SOL    HW181996   7.726   6.353   7.854 -0.6564  1.8653  0.9897
23424SOL    HW281997   7.588   6.329   7.911 -0.6442 -0.3231  0.1861
23425SOL     OW81998   2.542   5.107   1.704 -0.5734  0.0558  0.2079
23425SOL    HW181999   2.626   5.071   1.732 -0.1755  0.7666 -0.0457
23425SOL    HW282000   2.498   5.034   1.661 -1.5480 -1.3301  3.2607
23426SOL     OW82001   2.957  11.879   3.385 -0.1786  0.6097 -0.1142
23426SOL    HW182002   3.013  11.803   3.399 -0.1307  0.8634  1.2193
23426SOL    HW282003   3.018  11.953   3.382 -0.3204  0.7211 -0.2705
23427SOL     OW82004   4.768   2.149   5.286  0.4477  0.2565 -0.4413
23427SOL    HW182005   4.700   2.102   5.237  0.9897 -0.6917 -0.3043
23427SOL    HW282006   4.828   2.181   5.219 -0.2589  1.3209 -0.5832
23428SOL     OW82007   0.653  11.644   5.274  0.0188 -0.8363 -0.1409
23428SOL    HW182008   0.633  11.661   5.182  1.6612 -0.9812 -0.5689
23428SOL    HW282009   0.688  11.727   5.306 -1.5231 -0.4752  0.6720
23429SOL     OW82010  10.856   4.025   0.081 -0.1033 -0.1510  0.2945
23429SOL    HW182011  10.943   4.018   0.044 -0.5309 -1.2497 -0.5255
23429SOL    HW282012  10.871   4.050   0.173  0.9928  1.4473 -0.2722
23430SOL     OW82013   5.473   8.625   7.469 -0.1596  0.1294 -0.0195
23430SOL    HW182014   5.390   8.645   7.426 -0.3733 -2.7073 -1.1448
23430SOL    HW282015   5.535   8.688   7.433 -1.5005  1.3569 -0.2512
23431SOL     OW82016   0.699   5.320  11.164 -0.1219  0.0430  0.3909
23431SOL    HW182017   0.788   5.342  11.138  0.8353 -0.5259  2.9642
23431SOL    HW282018   0.672   5.251  11.103  1.2560  0.0660 -0.2714
23432SOL     OW82019   5.629  11.316  10.362  0.0500  0.0823 -0.3655
23432SOL    HW182020   5.682  11.248  10.321  0.7486  0.4138 -0.0228
23432SOL    HW282021   5.690  11.387  10.379 -0.2000 -0.0737  1.3233
23433SOL     OW82022   3.162   1.803   8.254  0.1422  0.5647 -0.6204
23433SOL    HW182023   3.233   1.825   8.194 -0.5480  1.7476 -1.0326
23433SOL    HW282024   3.186   1.844   8.337 -0.8606  2.5112 -1.2308
23434SOL     OW82025  10.749   4.923   8.699  0.1462 -0.3975 -0.0805
23434SOL    HW182026  10.731   5.016   8.690  1.8220  0.1026  1.2813
23434SOL    HW282027  10.688   4.893   8.767 -0.0296 -0.1773 -0.1430
23435SOL     OW82028   4.069   8.509   5.665  0.0293  0.8942 -0.5029
23435SOL    HW182029   3.987   8.492   5.711 -1.4207  1.6922 -2.6718
23435SOL    HW282030   4.092   8.598   5.691 -0.4628  1.1277 -0.8692
23436SOL     OW82031   5.539  10.611   0.415  0.4745  0.0209 -0.5656
23436SOL    HW182032   5.492  10.686   0.377  0.2294 -0.2235 -0.7452
23436SOL    HW282033   5.563  10.640   0.503  0.8810  0.5241 -0.8330
23437SOL     OW82034   9.669   5.010   8.028 -0.0570 -0.0095 -0.5443
23437SOL    HW182035   9.686   4.952   8.102  1.6769  1.7926  0.5797
23437SOL    HW282036   9.596   5.064   8.057 -0.3149 -0.2492 -0.7447
23438SOL     OW82037   8.026   4.501   9.386  0.1197 -0.0905  0.2038
23438SOL    HW182038   8.008   4.593   9.364  0.2384  0.0472  0.6577
23438SOL    HW282039   7.944   4.468   9.421  0.8905  0.8113  3.1789
23439SOL     OW82040   6.279   6.637   7.285 -0.1872 -0.4598  0.5605
23439SOL    HW182041   6.312   6.693   7.355 -0.1985  0.7004 -0.3162
23439SOL    HW282042   6.337   6.561   7.285  1.7283  0.9222 -0.1058
23440SOL     OW82043   5.870   2.039  10.881 -0.6255 -0.3397  0.0657
23440SOL    HW182044   5.891   1.953  10.918 -0.3614 -0.7029 -0.8849
23440SOL    HW282045   5.831   2.088  10.953 -1.5036 -1.5300  0.4319
23441SOL     OW82046   2.072   4.703   8.478  0.0985 -0.4621 -0.4817
23441SOL    HW182047   2.106   4.614   8.485 -0.4472 -0.6457 -0.1276
23441SOL    HW282048   2.018   4.715   8.555  1.1764  0.6291  0.1573
23442SOL     OW82049   8.172   3.229   1.950  0.0823 -0.1313  0.7861
23442SOL    HW182050   8.112   3.208   2.022 -0.9783 -0.6222 -0.2074
23442SOL    HW282051   8.256   3.245   1.992 -0.1803 -1.7535  2.0169
23443SOL     OW82052   2.271   7.220   0.843  0.2773 -0.2266 -0.0271
23443SOL    HW182053   2.349   7.258   0.882 -0.6958  1.5612  0.3201
23443SOL    HW282054   2.222   7.185   0.917 -0.0680  0.2700 -0.0146
23444SOL     OW82055   8.689   8.231   0.788  0.3358 -0.3537 -0.3891
23444SOL    HW182056   8.728   8.305   0.740 -0.3145 -0.2468 -0.7727
23444SOL    HW282057   8.723   8.153   0.743 -1.9903 -0.2544 -2.5268
23445SOL     OW82058   1.642   9.052   8.494 -0.0019 -0.0552 -0.2999
23445SOL    HW182059   1.556   9.028   8.531  0.2177 -0.4123 -0.0175
23445SOL    HW282060   1.650   8.997   8.417 -0.0164 -0.0358 -0.3154
23446SOL     OW82061   5.437   9.298  11.244 -0.2954  0.2407 -0.0692
23446SOL    HW182062   5.490   9.352  11.303 -0.8776 -0.0668  0.7623
23446SOL    HW282063   5.489   9.290  11.165  0.8617  0.0286  0.6938
23447SOL     OW82064  11.052   5.089   9.283 -0.3387  0.4016 -0.3705
23447SOL    HW182065  11.133   5.065   9.329 -0.3449  0.1615 -0.4843
23447SOL    HW282066  11.032   5.177   9.315 -0.1090  0.4059 -0.2344
23448SOL     OW82067   5.548   8.841   4.106  0.3714  0.1617 -0.5917
23448SOL    HW182068   5.492   8.764   4.092  1.2785 -0.5878 -0.1912
23448SOL    HW282069   5.584   8.828   4.194  1.0682  0.7067 -0.7958
23449SOL     OW82070   5.320   1.361   7.788 -0.4579  0.5357  0.2076
23449SOL    HW182071   5.413   1.372   7.768 -0.0978 -1.5356  0.4443
23449SOL    HW282072   5.291   1.447   7.818  1.2209  1.3795 -0.4576
23450SOL     OW82073   0.384   8.956   5.347  0.3005  0.1261 -0.2779
23450SOL    HW182074   0.396   9.030   5.407 -0.9954  0.5441 -0.5048
23450SOL    HW282075   0.466   8.954   5.296 -0.1640  2.3397 -1.2425
23451SOL     OW82076   1.602   0.070  10.406  0.7174  0.5625 -0.1442
23451SOL    HW182077   1.645   0.059  10.321 -2.1187 -0.3179 -1.5841
23451SOL    HW282078   1.632  -0.005  10.458  2.6075  1.1988 -0.2286
23452SOL     OW82079   1.884   1.869   4.640 -0.2757  0.0852 -0.4676
23452SOL    HW182080   1.830   1.940   4.607  0.1394  0.4412 -0.3880
23452SOL    HW282081   1.822   1.808   4.681 -0.4774  1.2443  1.0153
23453SOL     OW82082   1.730  10.678   8.010  0.8196 -0.6542 -0.0301
23453SOL    HW182083   1.763  10.719   8.090 -1.1566  1.7122 -0.3073
23453SOL    HW282084   1.674  10.607   8.041  1.3218 -0.7758  0.6133
23454SOL     OW82085   0.693   0.341   2.615  0.2048 -0.0942  0.1447
23454SOL    HW182086   0.681   0.402   2.689 -0.4103 -1.7680  1.4931
23454SOL    HW282087   0.694   0.254   2.656  1.2669 -1.0010 -1.6952
23455SOL     OW82088   3.680   2.862   7.891 -0.3297 -0.6412 -0.5212
23455SOL    HW182089   3.592   2.872   7.927 -0.2837  0.9345 -0.7458
23455SOL    HW282090   3.736   2.846   7.967 -0.6186 -0.1538 -0.2044
23456SOL     OW82091   7.866   3.855   7.407 -0.7557  0.0226 -0.7954
23456SOL    HW182092   7.798   3.829   7.470  3.0502 -0.6711  3.5597
23456SOL    HW282093   7.849   3.948   7.390 -1.6103  0.4768  2.0036
23457SOL     OW82094  11.802   1.637   9.416 -0.1458  0.4379  0.2309
23457SOL    HW182095  11.747   1.559   9.415 -0.4082  0.6217  0.0703
23457SOL    HW282096  11.853   1.630   9.497  2.5581 -1.7650 -1.4899
23458SOL     OW82097   6.934   7.412   3.957 -0.4339 -0.0244  0.4623
23458SOL    HW182098   7.010   7.423   4.014 -0.0481  0.7375 -0.1647
23458SOL    HW282099   6.924   7.498   3.915 -2.2759  0.2044  1.2937
23459SOL     OW82100   9.478   0.732  11.430 -0.7059 -0.3387  0.4115
23459SOL    HW182101   9.541   0.690  11.488 -0.3281  0.1080  0.3289
23459SOL    HW282102   9.393   0.711  11.467 -0.4800 -0.4296  0.8751
23460SOL     OW82103   4.316   7.492   8.557 -0.3734 -0.5569 -0.0161
23460SOL    HW182104   4.245   7.430   8.542  0.5970 -1.5043 -0.8611
23460SOL    HW282105   4.342   7.522   8.470 -0.7367  0.9607  0.3730
23461SOL     OW82106   5.148  11.361   2.957  0.1014 -0.0013  0.4620
23461SOL    HW182107   5.150  11.455   2.938  1.0523 -0.0400  0.3240
23461SOL    HW282108   5.168  11.355   3.050 -0.2185 -0.0581  0.5293
23462SOL     OW82109   7.142   6.172   4.305  0.0594  0.4845 -0.1117
23462SOL    HW182110   7.100   6.148   4.222  1.0467 -0.5412 -0.3431
23462SOL    HW282111   7.134   6.267   4.309  1.2838  0.7266 -2.1138
23463SOL     OW82112   4.624   6.996   1.376 -0.9055 -0.4881  0.2416
23463SOL    HW182113   4.670   6.998   1.293  0.1702  0.0298  0.8268
23463SOL    HW282114   4.654   6.915   1.418  0.7513  0.6121  1.2922
23464SOL     OW82115   9.401   3.165   3.781  0.2649 -0.6207 -0.1888
23464SOL    HW182116   9.313   3.145   3.814  0.1120 -0.4531 -0.4913
23464SOL    HW282117   9.388   3.240   3.722  0.8771  0.7130  1.2901
23465SOL     OW82118   6.902   2.350   7.920  0.5427 -0.4527  0.2217
23465SOL    HW182119   6.860   2.419   7.971 -0.5740 -0.8348 -0.1362
23465SOL    HW282120   6.979   2.392   7.882  0.0418  0.5231  0.2391
23466SOL     OW82121   8.606   8.574  11.015 -0.0907  0.0667  0.0705
23466SOL    HW182122   8.541   8.596  11.082 -1.7011  0.9019 -1.6584
23466SOL    HW282123   8.605   8.479  11.011 -1.2316  0.0597  0.0948
23467SOL     OW82124   0.001   1.489   7.122  0.1525 -0.2123 -0.4810
23467SOL    HW182125  -0.050   1.444   7.056  0.2515 -2.2694  0.7472
23467SOL    HW282126  -0.060   1.552   7.161 -0.4004 -0.1960 -1.3460
23468SOL     OW82127   0.632   4.771   3.223  0.0036  0.0826  0.3021
23468SOL    HW182128   0.710   4.783   3.168  0.0389 -1.3714 -0.0214
23468SOL    HW282129   0.564   4.744   3.161 -0.2592 -0.4791  0.8303
23469SOL     OW82130   9.202   3.437   4.299 -0.3729 -0.1271  0.5579
23469SOL    HW182131   9.138   3.408   4.365  2.0304 -0.6051  2.8243
23469SOL    HW282132   9.262   3.363   4.290  0.8567  0.9286 -0.2426
23470SOL     OW82133   2.721   2.929   6.601  0.5836  0.1875 -0.1347
23470SOL    HW182134   2.814   2.945   6.587  0.5758  1.3400  0.9470
23470SOL    HW282135   2.701   2.973   6.684 -0.8639 -0.2863 -0.1974
23471SOL     OW82136   6.104   8.899   2.313 -0.4532 -0.2637  0.0297
23471SOL    HW182137   6.134   8.987   2.335 -0.5401 -0.1972 -0.1152
23471SOL    HW282138   6.058   8.909   2.229 -1.0323 -0.3369  0.3376
23472SOL     OW82139   9.063   0.662   9.636  0.2078 -0.0104 -1.3921
23472SOL    HW182140   9.067   0.754   9.662 -1.3234 -0.0842 -0.8206
23472SOL    HW282141   9.039   0.664   9.543 -0.8360  0.1670 -1.1270
23473SOL     OW82142   7.112   4.528   0.141 -0.3736  0.0715 -0.2410
23473SOL    HW182143   7.111   4.574   0.057  0.8363 -3.5884 -2.5062
23473SOL    HW282144   7.196   4.551   0.180 -0.5242  1.0570 -0.4732
23474SOL     OW82145   7.633   5.907   9.751 -0.3191 -0.0136  0.1872
23474SOL    HW182146   7.694   5.839   9.724  1.0052  0.9234  0.7307
23474SOL    HW282147   7.621   5.893   9.845  0.4124  0.8226  0.4192
23475SOL     OW82148   6.902   1.722  11.793 -0.3403  1.1130 -0.3622
23475SOL    HW182149   6.976   1.745  11.736 -0.3534  0.9014 -0.4655
23475SOL    HW282150   6.826   1.754  11.745 -0.4194  0.2339 -0.8427
23476SOL     OW82151  11.654   8.302   6.627  0.3520  0.1385 -0.1129
23476SOL    HW182152  11.708   8.373   6.593 -0.9300  0.5373 -1.4110
23476SOL    HW282153  11.597   8.278   6.554 -2.4713  0.9562  1.6647
23477SOL     OW82154  10.369   9.602   9.352 -0.2780 -0.0302  0.1611
23477SOL    HW182155  10.396   9.660   9.281  0.4326  0.6198  0.9375
23477SOL    HW282156  10.451   9.573   9.392 -0.6414 -1.0786  0.1907
23478SOL     OW82157   7.748   7.300   1.431 -0.4785 -0.3776 -0.4249
23478SOL    HW182158   7.738   7.394   1.415 -0.8508  0.0882  2.0686
23478SOL    HW282159   7.677   7.279   1.492  0.1872 -2.0840 -0.1969
23479SOL     OW82160   2.610   9.031  11.235  0.2603  0.2484  0.1012
23479SOL    HW182161   2.633   9.017  11.143  0.3996 -0.0426  0.1797
23479SOL    HW282162   2.630   8.948  11.278 -3.9206 -1.2959 -0.3902
23480SOL     OW82163   2.103   1.865   0.902 -0.6624  0.2177 -0.2366
23480SOL    HW182164   2.132   1.801   0.966 -1.7715  0.4689  0.5364
23480SOL    HW282165   2.157   1.848   0.824  0.6288 -0.1532  0.7110
23481SOL     OW82166   9.690   6.069  10.807  0.0958  0.3830  0.0667
23481SOL    HW182167   9.756   6.136  10.790  1.3431 -1.0085 -0.9106
23481SOL    HW282168   9.675   6.029  10.721 -0.8304 -0.3824  0.5716
23482SOL     OW82169   9.321   6.958   8.981  0.2239 -0.5668  0.0584
23482SOL    HW182170   9.389   7.008   8.938  0.4142 -0.9259 -0.0656
23482SOL    HW282171   9.361   6.872   8.998  0.0898 -0.4895  0.7847
23483SOL     OW82172   2.521   3.816   0.964  0.1084 -0.1105 -0.4066
23483SOL    HW182173   2.443   3.784   0.919 -0.2317 -0.3404  0.3375
23483SOL    HW282174   2.592   3.763   0.928 -0.2353 -0.6546 -0.2955
23484SOL     OW82175  10.528   6.765   9.509  0.0630 -0.3508 -0.3174
23484SOL    HW182176  10.594   6.800   9.569  0.5561 -0.3898 -0.8315
23484SOL    HW282177  10.573   6.758   9.425 -0.1132 -1.8647 -0.3131
23485SOL     OW82178   7.644   9.462   7.963 -0.2259  0.7157 -0.4211
23485SOL    HW182179   7.636   9.373   7.999 -0.7513  0.1154 -1.9299
23485SOL    HW282180   7.732   9.490   7.989 -0.3030  0.0262  0.6521
23486SOL     OW82181   3.684   0.732   1.480 -0.3459  0.2639  0.1650
23486SOL    HW182182   3.760   0.679   1.456  0.1692  1.0713 -0.0453
23486SOL    HW282183   3.628   0.673   1.531  0.4014 -0.3568  0.2863
23487SOL     OW82184   0.740  11.551   6.211 -0.5607 -0.1785  0.3724
23487SOL    HW182185   0.828  11.587   6.203 -1.2551  1.2456 -1.7739
23487SOL    HW282186   0.739  11.475   6.153 -1.3174  1.1671 -1.4876
23488SOL     OW82187  11.434   3.688   6.617  0.5302 -0.0221 -0.3555
23488SOL    HW182188  11.502   3.746   6.650 -0.1612  0.3130  0.5331
23488SOL    HW282189  11.406   3.637   6.693  1.1422 -1.5744 -1.1206
23489SOL     OW82190   5.682   3.700   1.114  0.1090  0.0290 -0.4720
23489SOL    HW182191   5.743   3.701   1.041 -0.1059 -1.8746 -0.7395
23489SOL    HW282192   5.598   3.676   1.075 -0.3488  0.5390  0.1763
23490SOL     OW82193  10.922   4.069   7.671 -0.3661  0.2079 -0.0158
23490SOL    HW182194  10.853   4.010   7.701 -0.3560  0.8773  1.4100
23490SOL    HW282195  10.882   4.117   7.598 -0.4737 -1.2963 -0.9830
23491SOL     OW82196   7.497   0.380   8.971 -0.3887 -0.2807  0.3465
23491SOL    HW182197   7.441   0.374   9.048  0.0043  0.7325  0.7242
23491SOL    HW282198   7.586   0.374   9.005 -0.2247 -1.3294 -0.1969
23492SOL     OW82199   0.718   2.940   5.598 -0.5029 -0.6553  0.1665
23492SOL    HW182200   0.681   2.973   5.517  1.8151  1.2861 -0.2372
23492SOL    HW282201   0.793   2.887   5.571  0.7714  0.6396  0.9482
23493SOL     OW82202   9.225   6.745   8.102 -0.0071  0.3322  0.6286
23493SOL    HW182203   9.267   6.831   8.107  0.3733  0.0803  2.1673
23493SOL    HW282204   9.188   6.731   8.189  0.1951 -1.1973  0.4850
23494SOL     OW82205   7.515   2.115   9.323 -0.3955 -0.7380  0.1302
23494SOL    HW182206   7.598   2.075   9.348 -0.1124 -0.2306  0.0265
23494SOL    HW282207   7.515   2.200   9.366 -0.9694 -0.8267  0.3175
23495SOL     OW82208   8.505  10.765   5.359  0.1548 -0.5249  0.0531
23495SOL    HW182209   8.484  10.843   5.308  1.8034 -1.2560 -1.8664
23495SOL    HW282210   8.601  10.762   5.361  0.1353 -1.9927  0.9235
23496SOL     OW82211   6.222   7.443   2.766  0.0816 -0.1753 -0.1810
23496SOL    HW182212   6.174   7.375   2.812 -1.1086  0.4877 -0.3831
23496SOL    HW282213   6.236   7.512   2.831  1.9100 -0.8728  0.2178
23497SOL     OW82214   5.180   0.157   0.086  0.0393  0.5944 -0.8587
23497SOL    HW182215   5.183   0.251   0.103 -1.2159  0.3438  1.1155
23497SOL    HW282216   5.266   0.136   0.050  1.2612  2.1092  0.9654
23498SOL     OW82217   0.450   1.008   1.048 -0.4050 -0.7841 -0.0124
23498SOL    HW182218   0.501   0.958   0.984  1.2149  2.2625 -1.2944
23498SOL    HW282219   0.363   1.015   1.010 -0.1128 -1.0042 -0.7347
23499SOL     OW82220   2.412   9.158   9.764 -0.4534  0.5004  0.6736
23499SOL    HW182221   2.363   9.129   9.687  1.5478 -0.2876 -0.3970
23499SOL    HW282222   2.433   9.250   9.745  3.7505 -0.7414 -2.0198
23500SOL     OW82223   1.312  11.314   7.658  0.0011 -0.6429 -0.4182
23500SOL    HW182224   1.329  11.407   7.640  1.8686 -0.8687  0.0547
23500SOL    HW282225   1.398  11.275   7.668 -0.6887 -1.5896  3.8396
23501SOL     OW82226   8.454   8.791   5.131 -0.4596  0.5547 -0.0599
23501SOL    HW182227   8.386   8.844   5.089 -1.7825 -0.6424  0.4667
23501SOL    HW282228   8.429   8.701   5.113  0.6795  0.0681  0.6582
23502SOL     OW82229   3.479   4.858   4.081 -0.2853  0.1624  0.3568
23502SOL    HW182230   3.538   4.837   4.154  1.6053  0.8216 -0.9231
23502SOL    HW282231   3.476   4.954   4.080 -0.4750  0.1516 -0.2891
23503SOL     OW82232   4.543   3.055   4.059  0.0940 -0.3500 -0.9221
23503SOL    HW182233   4.505   3.109   4.128  0.4845 -0.5095 -0.5814
23503SOL    HW282234   4.492   3.077   3.981 -0.3794 -0.2018 -0.5763
23504SOL     OW82235   5.062  11.155   0.039  0.0891  0.0615 -0.2907
23504SOL    HW182236   5.024  11.131   0.124 -0.8974  0.5093 -0.5856
23504SOL    HW282237   5.000  11.119  -0.025 -0.5812  1.9284 -0.7714
23505SOL     OW82238   1.317   0.950   0.992  0.3104  0.5005 -0.7388
23505SOL    HW182239   1.228   0.961   0.958  0.1973  0.4225 -0.4649
23505SOL    HW282240   1.368   0.919   0.916  0.1590  0.7803 -0.9565
23506SOL     OW82241   4.192   4.885   6.209 -0.0459  0.2512 -0.3871
23506SOL    HW182242   4.187   4.806   6.155  0.6768  0.9087 -1.4597
23506SOL    HW282243   4.199   4.957   6.146  0.5138  1.0704  0.5747
23507SOL     OW82244   4.966   4.877   9.310 -0.0195  0.4367  0.1941
23507SOL    HW182245   4.976   4.793   9.265  0.7881  0.3558  0.5084
23507SOL    HW282246   4.876   4.875   9.344  0.6912 -1.3214  2.1927
23508SOL     OW82247   0.882  10.548  11.378  0.2000 -0.2260  0.0783
23508SOL    HW182248   0.833  10.598  11.313  0.0250 -0.0745  0.3221
23508SOL    HW282249   0.831  10.558  11.459 -1.9731 -3.9140 -0.6210
23509SOL     OW82250   1.480   8.003   1.012  0.5919  0.3673 -0.2997
23509SOL    HW182251   1.506   7.971   1.099 -1.5827 -1.2659 -0.1734
23509SOL    HW282252   1.460   7.924   0.963 -3.2048  1.3509 -0.5950
23510SOL     OW82253   3.549   1.022   3.587 -0.5481  0.0185 -0.3101
23510SOL    HW182254   3.627   1.005   3.640  0.3623  2.7975 -0.5978
23510SOL    HW282255   3.476   1.001   3.645  0.4054 -0.8508  0.6145
23511SOL     OW82256   9.722   9.946   5.855  0.0044  0.7564  0.2011
23511SOL    HW182257   9.657   9.975   5.791  0.6540  0.8177 -0.4406
23511SOL    HW282258   9.700   9.994   5.934 -2.4665 -1.2764  0.8786
23512SOL     OW82259   4.617   6.852  11.677 -0.5862  0.7525  0.0572
23512SOL    HW182260   4.536   6.840  11.726 -1.1493  2.5748 -0.3739
23512SOL    HW282261   4.604   6.932  11.627  1.2137  0.6963 -0.5764
23513SOL     OW82262   1.286   8.481   5.721 -0.1052  0.2664  0.6746
23513SOL    HW182263   1.377   8.485   5.693 -0.5142  0.3509 -0.6772
23513SOL    HW282264   1.277   8.393   5.759  0.1292 -0.3536 -0.6686
23514SOL     OW82265   1.168   4.779   8.447  0.5374  0.4086  0.7050
23514SOL    HW182266   1.159   4.699   8.499  1.4206 -0.5114 -0.4874
23514SOL    HW282267   1.080   4.799   8.417  0.2317  0.1870  1.4246
23515SOL     OW82268   0.353   4.593   6.025  0.6258  0.2425 -0.0781
23515SOL    HW182269   0.281   4.647   6.056  0.4472  0.0847 -0.2132
23515SOL    HW282270   0.400   4.566   6.104 -0.2222 -0.7218  0.1141
23516SOL     OW82271   7.235   5.388   2.044  0.0225 -0.3341 -0.2671
23516SOL    HW182272   7.230   5.361   1.952  0.3359  0.0223 -0.3917
23516SOL    HW282273   7.148   5.421   2.064 -0.2816 -1.1544 -0.1998
23517SOL     OW82274  11.065   8.343   6.754 -0.3428  0.1649  0.3815
23517SOL    HW182275  10.987   8.310   6.799 -0.4519  0.1422  0.1767
23517SOL    HW282276  11.049   8.325   6.662 -0.5644  1.1166  0.2225
23518SOL     OW82277   6.828  11.690   7.173 -0.3367  0.1642  0.0672
23518SOL    HW182278   6.733  11.682   7.179 -0.2719 -0.5630  0.2637
23518SOL    HW282279   6.859  11.600   7.168  0.1982  0.4242 -2.3677
23519SOL     OW82280   3.188   6.919  11.708 -0.0726  0.4447 -0.1767
23519SOL    HW182281   3.164   6.996  11.657  0.5390 -0.4810 -1.9424
23519SOL    HW282282   3.269   6.888  11.667 -0.4193 -1.2529  0.3598
23520SOL     OW82283   9.266   8.886   0.110  0.1473  0.0878  0.5769
23520SOL    HW182284   9.171   8.894   0.097  0.2566  2.0671  0.6470
23520SOL    HW282285   9.303   8.951   0.050  1.4556 -0.5958  0.6268
23521SOL     OW82286   5.567   9.372   4.614 -0.2140 -0.0821  0.1254
23521SOL    HW182287   5.524   9.290   4.637 -1.9530  0.2120 -1.7511
23521SOL    HW282288   5.602   9.357   4.526  0.5494  0.8033  0.2589
23522SOL     OW82289   3.527   9.941   7.583 -0.2026  0.1791 -0.1163
23522SOL    HW182290   3.541   9.958   7.490 -1.2050  0.7595 -0.1660
23522SOL    HW282291   3.579  10.008   7.627  0.5023 -0.2707 -0.2398
23523SOL     OW82292   4.565  10.681   2.020  0.1239  0.0937  0.0781
23523SOL    HW182293   4.607  10.701   1.936 -0.0822 -1.4116 -0.4128
23523SOL    HW282294   4.518  10.761   2.042  2.0395  1.3287 -0.0704
23524SOL     OW82295   2.022   5.962   7.177 -0.0816  0.7282  0.5036
23524SOL    HW182296   2.007   5.868   7.175  0.9521  0.5704 -0.1675
23524SOL    HW282297   1.940   6.000   7.145  0.3740 -0.0601 -1.7768
23525SOL     OW82298   5.942   8.935   1.152 -0.3786 -0.4916  0.1638
23525SOL    HW182299   5.956   9.026   1.123  0.6400 -0.5471  0.4574
23525SOL    HW282300   5.884   8.898   1.085 -0.4107  0.2289 -0.2246
23526SOL     OW82301  10.190   8.088  10.625 -0.0031  0.4116  0.5519
23526SOL    HW182302  10.225   8.045  10.703 -1.9378  1.3943  2.0502
23526SOL    HW282303  10.118   8.142  10.658 -2.6462 -1.1623 -2.2451
23527SOL     OW82304  11.944   7.907   8.646 -0.2339 -0.8389  0.3846
23527SOL    HW182305  11.992   7.832   8.611 -1.4709 -1.5411  0.1355
23527SOL    HW282306  12.005   7.980   8.639  0.1702 -1.2949 -1.6981
23528SOL     OW82307   6.171   6.724   6.173 -0.6295 -0.1807  0.1671
23528SOL    HW182308   6.087   6.679   6.181 -0.1924 -1.1534 -0.6009
23528SOL    HW282309   6.212   6.687   6.095  0.7955 -0.1944  0.8800
23529SOL     OW82310   9.356  11.814   4.365 -0.0452  0.3780  0.0780
23529SOL    HW182311   9.420  11.834   4.297 -0.6590 -1.1360 -0.9814
23529SOL    HW282312   9.302  11.893   4.371 -0.2624  0.3842 -1.5216
23530SOL     OW82313  11.772   7.527   9.628  0.1083 -0.2027  0.4163
23530SOL    HW182314  11.682   7.513   9.659  0.5189 -0.2991  1.5963
23530SOL    HW282315  11.823   7.457   9.667  0.9620  0.6921  0.9638
23531SOL     OW82316   1.749   1.145   6.872  0.0449 -0.3439  0.2376
23531SOL    HW182317   1.686   1.168   6.940  0.4669 -0.1154  0.5556
23531SOL    HW282318   1.831   1.130   6.919  0.0660 -1.3290 -0.0941
23532SOL     OW82319   5.799   2.116   4.124 -0.3058 -0.1535  0.2504
23532SOL    HW182320   5.889   2.105   4.093  0.1710 -0.8253  1.7932
23532SOL    HW282321   5.767   2.192   4.075  0.4102 -1.0844 -1.7750
23533SOL     OW82322   0.898   4.302   3.965  0.2365 -0.3949 -0.1940
23533SOL    HW182323   0.975   4.283   3.911  1.2630 -1.2030  1.4752
23533SOL    HW282324   0.886   4.397   3.957  0.5023 -0.4491 -1.5993
23534SOL     OW82325   7.409   3.148   0.219 -0.1829 -0.2429  0.2781
23534SOL    HW182326   7.468   3.140   0.294 -0.8811  1.0547  0.9900
23534SOL    HW282327   7.433   3.230   0.177  0.5598 -1.1968 -1.2947
23535SOL     OW82328  10.641   0.167  11.202  1.2345  0.1932  0.3746
23535SOL    HW182329  10.710   0.106  11.179  0.8124  0.2752 -1.2593
23535SOL    HW282330  10.606   0.197  11.117 -0.7903  0.1526  1.1296
23536SOL     OW82331   9.195   5.407   3.454  0.0693 -0.2574 -0.4393
23536SOL    HW182332   9.106   5.433   3.480  0.7798  0.1624  1.7490
23536SOL    HW282333   9.189   5.312   3.441 -0.4527 -0.4437  0.9504
23537SOL     OW82334   7.116   7.730  11.819  0.0753 -0.0603 -0.2686
23537SOL    HW182335   7.112   7.641  11.855 -1.3226 -0.7290 -1.8728
23537SOL    HW282336   7.171   7.779  11.880  0.7605 -1.9841  0.7509
23538SOL     OW82337   4.085   5.522   1.891 -0.1170 -0.0059 -0.0307
23538SOL    HW182338   4.086   5.436   1.933  1.8123 -1.8711 -3.4591
23538SOL    HW282339   3.994   5.551   1.897 -1.1228 -2.9049  0.1475
23539SOL     OW82340   8.742   0.561   7.614  0.1366 -0.2521  0.2305
23539SOL    HW182341   8.752   0.650   7.648  0.7239 -0.6813  1.2403
23539SOL    HW282342   8.806   0.509   7.663 -0.8510 -1.4097  0.3532
23540SOL     OW82343   2.198   5.361  10.884  0.1143 -0.1929  0.2031
23540SOL    HW182344   2.114   5.331  10.920  0.1414 -0.9187 -0.2878
23540SOL    HW282345   2.224   5.290  10.825  2.5867 -1.4660  2.5979
23541SOL     OW82346  10.874   7.309   9.976  0.4637 -0.1225 -0.5722
23541SOL    HW182347  10.915   7.223   9.985  1.3528  0.3828  0.4794
23541SOL    HW282348  10.847   7.313   9.884  0.7925 -1.3510 -0.7422
23542SOL     OW82349   5.795  10.181   2.130  0.4121 -0.5843 -0.1690
23542SOL    HW182350   5.731  10.252   2.140 -0.7220 -1.8341  2.3089
23542SOL    HW282351   5.870  10.209   2.182  1.2681  0.1289 -1.7220
23543SOL     OW82352  10.595   2.002  11.714  0.1359 -0.3927 -0.2030
23543SOL    HW182353  10.523   1.940  11.722  0.6906 -0.9077  1.2492
23543SOL    HW282354  10.553   2.086  11.697 -0.8756 -0.5680  1.2354
23544SOL     OW82355   3.743   4.594   5.500  0.2667 -0.0053 -0.2697
23544SOL    HW182356   3.669   4.583   5.440  0.2463  1.9253 -0.6910
23544SOL    HW282357   3.704   4.630   5.580  0.3918 -1.8867  0.6884
23545SOL     OW82358   4.435   1.697   0.589 -0.1959 -0.8077  0.0202
23545SOL    HW182359   4.452   1.635   0.519 -1.2027  0.1072 -1.0760
23545SOL    HW282360   4.342   1.685   0.610  0.6055 -2.8553  3.0391
23546SOL     OW82361   6.910   1.877   1.112 -0.0112  0.3941  0.7782
23546SOL    HW182362   6.922   1.971   1.095  1.5287  0.1169  0.1249
23546SOL    HW282363   6.991   1.837   1.081 -0.1317 -1.0298  2.1902
23547SOL     OW82364   8.091   7.846  11.524 -0.2185 -0.0326  0.5694
23547SOL    HW182365   8.037   7.917  11.558 -0.3115  0.2858 -0.2167
23547SOL    HW282366   8.152   7.888  11.464  0.1569 -0.5349  0.5875
23548SOL     OW82367   3.071   5.361  11.020 -0.0372 -0.2246 -0.4403
23548SOL    HW182368   3.071   5.266  11.035 -0.0241 -0.2460 -0.5747
23548SOL    HW282369   3.103   5.371  10.930 -1.3310 -0.1680 -0.9090
23549SOL     OW82370   6.393   3.103   8.737 -0.0899 -0.0766 -0.0875
23549SOL    HW182371   6.361   3.076   8.650  0.9284 -0.1598 -0.4436
23549SOL    HW282372   6.316   3.095   8.793 -0.5092 -1.0456 -0.7668
23550SOL     OW82373  10.062   2.932   6.085 -0.2966 -0.6782  0.0231
23550SOL    HW182374  10.016   2.994   6.028 -0.1879  0.4666  1.1399
23550SOL    HW282375   9.997   2.864   6.103 -1.3215  0.4999  0.9307
23551SOL     OW82376   1.264   1.018   4.560 -0.4088 -0.0624  0.5709
23551SOL    HW182377   1.327   0.986   4.495 -2.2798 -1.3226 -0.7147
23551SOL    HW282378   1.267   0.953   4.630  0.5314  0.5217  1.1098
23552SOL     OW82379   7.366   2.330   2.224 -0.2835  0.3506  0.0473
23552SOL    HW182380   7.348   2.365   2.137  0.8796  0.2154 -0.2520
23552SOL    HW282381   7.415   2.398   2.269  1.6155 -0.6651 -0.3931
23553SOL     OW82382   2.181  11.873  10.937  0.7122  0.4923  0.2047
23553SOL    HW182383   2.227  11.826  10.867 -1.4441 -1.2857 -0.1584
23553SOL    HW282384   2.238  11.946  10.959  2.6151 -0.3129 -1.6951
23554SOL     OW82385   4.537   1.246   6.555 -0.6664 -0.0162 -0.2501
23554SOL    HW182386   4.580   1.254   6.641 -0.2948 -1.3976 -0.2798
23554SOL    HW282387   4.538   1.152   6.537  1.6053  0.4053 -2.9599
23555SOL     OW82388   5.655   5.883   6.873 -0.0630 -0.1681  0.4800
23555SOL    HW182389   5.666   5.818   6.803  1.5950  1.5708 -0.9756
23555SOL    HW282390   5.573   5.927   6.852 -0.7497 -1.1481  0.9876
23556SOL     OW82391   3.003   9.487   9.774 -0.9889  0.4041  0.0502
23556SOL    HW182392   2.913   9.514   9.753 -1.1638 -0.3009 -0.1471
23556SOL    HW282393   2.993   9.397   9.806 -0.0719 -0.7393 -2.6121
23557SOL     OW82394   4.905   1.519   2.789  0.2140  0.3006  0.3743
23557SOL    HW182395   4.878   1.560   2.871  0.0805 -0.7257  0.8561
23557SOL    HW282396   4.837   1.543   2.726 -0.4506 -0.1074  0.9317
23558SOL     OW82397  11.717   6.251   8.821  0.6773 -0.5806 -0.1967
23558SOL    HW182398  11.718   6.286   8.911  1.7271 -1.1110  0.0126
23558SOL    HW282399  11.677   6.321   8.769  1.4042  0.3584  0.4478
23559SOL     OW82400   2.754  10.229  11.534  0.0803 -0.1303 -0.1455
23559SOL    HW182401   2.713  10.214  11.449  0.2374 -1.5734  0.0176
23559SOL    HW282402   2.775  10.142  11.567  2.7060  0.4805  0.0696
23560SOL     OW82403   9.941   1.429   6.437 -0.0340 -0.4771 -0.1973
23560SOL    HW182404   9.979   1.377   6.367 -0.6788 -1.1087 -0.0886
23560SOL    HW282405  10.015   1.449   6.496  0.2608 -1.0454 -0.3739
23561SOL     OW82406  10.325   5.178   6.574  0.2929  0.4727  0.4331
23561SOL    HW182407  10.374   5.212   6.499 -2.0953  2.3259 -0.4218
23561SOL    HW282408  10.244   5.143   6.536  0.3541 -1.4296  1.8874
23562SOL     OW82409   2.081   6.615   0.806  0.6017  0.3509 -0.4345
23562SOL    HW182410   2.086   6.520   0.801  0.9095  0.3798 -0.7160
23562SOL    HW282411   2.007   6.638   0.750  0.9027  0.3168 -0.8508
23563SOL     OW82412   5.726   6.809   4.908  0.0838 -0.7914  0.7890
23563SOL    HW182413   5.657   6.849   4.856  1.2587 -0.7964 -0.8248
23563SOL    HW282414   5.695   6.816   4.999 -1.0824  1.0323  0.2848
23564SOL     OW82415   2.329   2.512   4.721  0.3931 -0.3373  0.5994
23564SOL    HW182416   2.252   2.556   4.685  0.4042 -0.6721  0.1527
23564SOL    HW282417   2.381   2.582   4.760  0.8213  0.2046 -0.8455
23565SOL     OW82418   5.113  11.286   9.245 -0.5279  0.0415 -0.0976
23565SOL    HW182419   5.062  11.216   9.203  0.8949 -0.7741 -0.5245
23565SOL    HW282420   5.203  11.256   9.241 -0.2512 -0.2310  3.7869
23566SOL     OW82421   8.277   2.522   1.114 -0.4148 -0.3221 -0.1878
23566SOL    HW182422   8.365   2.485   1.110 -0.1378  0.3012  0.0187
23566SOL    HW282423   8.285   2.594   1.176 -1.0293 -0.1428 -0.3180
23567SOL     OW82424  10.572   7.826  11.061  0.2841  0.3121  0.2822
23567SOL    HW182425  10.653   7.826  11.010 -0.2862  0.8259 -0.6593
23567SOL    HW282426  10.542   7.917  11.058 -1.2621 -0.2000 -0.9396
23568SOL     OW82427  10.189   5.266   1.296  0.1791  0.0503  0.1287
23568SOL    HW182428  10.159   5.313   1.374  0.8428  0.1302  0.3378
23568SOL    HW282429  10.181   5.330   1.225 -0.2645  0.0287  0.1552
23569SOL     OW82430   8.642   4.336  10.066 -0.3956 -0.0678  0.5032
23569SOL    HW182431   8.562   4.309  10.111  0.1885 -0.8811  1.0819
23569SOL    HW282432   8.712   4.290  10.113  0.2974 -0.3749 -0.8007
23570SOL     OW82433   7.983   8.064   0.936  0.7341  0.3115 -0.0648
23570SOL    HW182434   7.925   8.136   0.910  0.9747 -0.4276 -2.9701
23570SOL    HW282435   7.938   7.985   0.906  1.6587 -0.5784  0.7874
23571SOL     OW82436   6.885   6.640   0.463  0.1957  0.4007  0.5457
23571SOL    HW182437   6.892   6.712   0.400 -1.6263  0.6160  0.5295
23571SOL    HW282438   6.919   6.677   0.545 -0.9015  1.3681  0.5862
23572SOL     OW82439   4.613   3.525   4.796  0.5081 -0.7199 -0.3279
23572SOL    HW182440   4.643   3.458   4.734 -1.9907 -0.8594 -1.5260
23572SOL    HW282441   4.547   3.480   4.849 -2.6005  1.0702 -2.3591
23573SOL     OW82442   7.913   4.918   1.341 -0.0171 -0.3546  0.4939
23573SOL    HW182443   7.940   4.999   1.385  0.2814  0.1902 -0.6617
23573SOL    HW282444   7.994   4.884   1.303 -0.2405 -0.9201  0.5216
23574SOL     OW82445   3.098  11.718   6.087 -0.5696 -0.0782 -0.1423
23574SOL    HW182446   3.124  11.643   6.034 -1.7487 -0.0491 -0.7994
23574SOL    HW282447   3.144  11.706   6.170  0.1951 -0.8772 -0.6650
23575SOL     OW82448   6.843   0.276   8.875 -0.2325 -0.5318 -0.4595
23575SOL    HW182449   6.921   0.297   8.825  0.0520 -0.1197  0.1371
23575SOL    HW282450   6.875   0.229   8.952 -0.2540  1.6942  1.0352
23576SOL     OW82451   0.497   0.342   6.705 -0.5570 -0.1472 -0.8005
23576SOL    HW182452   0.500   0.247   6.722 -0.3488 -0.0741 -0.4139
23576SOL    HW282453   0.420   0.372   6.753  1.0879  0.3668  1.6542
23577SOL     OW82454   6.937   2.005   6.501  0.2493  0.2617 -0.1327
23577SOL    HW182455   6.871   1.950   6.543  1.7827 -2.1982 -0.6859
23577SOL    HW282456   7.020   1.978   6.541  1.3790  0.2374 -2.2922
23578SOL     OW82457   2.169   7.986   0.386  0.1645 -0.3873 -0.4603
23578SOL    HW182458   2.148   8.049   0.455  0.7980  1.9262 -2.2166
23578SOL    HW282459   2.257   8.011   0.358  0.1836 -1.6868 -1.6446
23579SOL     OW82460  10.679   5.914   8.149 -0.4752 -0.1920  0.3839
23579SOL    HW182461  10.695   6.005   8.124 -1.1793 -0.5814 -1.6683
23579SOL    HW282462  10.611   5.919   8.216 -0.1034  0.8118  0.7085
23580SOL     OW82463   7.759   1.179   5.196 -0.3695  0.4670  0.2001
23580SOL    HW182464   7.707   1.163   5.276 -0.7891  0.9206  0.0205
23580SOL    HW282465   7.695   1.176   5.125 -0.1247  0.9006 -0.0407
23581SOL     OW82466   3.190   9.545   3.125  0.2646 -0.1239 -0.1632
23581SOL    HW182467   3.224   9.632   3.103 -1.4188  0.1070 -2.0544
23581SOL    HW282468   3.096   9.556   3.133  0.0274 -1.7549 -0.2608
23582SOL     OW82469   6.747   1.388  11.517  0.5213 -0.4749  0.5129
23582SOL    HW182470   6.661   1.419  11.544 -1.0619 -1.6370 -2.6648
23582SOL    HW282471   6.792   1.466  11.486 -0.3990 -0.2051 -0.1762
23583SOL     OW82472   3.498   2.340   5.328  0.2131  0.3356  0.1475
23583SOL    HW182473   3.515   2.328   5.234  0.8042  3.0670 -0.2017
23583SOL    HW282474   3.412   2.383   5.331 -0.7904 -1.6372  1.0474
23584SOL     OW82475   7.147   2.300   1.696  0.2008 -0.6822  0.1797
23584SOL    HW182476   7.129   2.385   1.655 -0.6079 -1.4169 -1.0453
23584SOL    HW282477   7.129   2.314   1.789  0.0863  0.4782  0.0005
23585SOL     OW82478  10.184   7.780   4.657 -0.0302  0.0859 -0.1488
23585SOL    HW182479  10.130   7.856   4.678 -1.4568 -0.4647 -1.5843
23585SOL    HW282480  10.221   7.800   4.571  1.9795  0.3680  0.7151
23586SOL     OW82481   2.203   1.943   9.341  0.2819  0.3587 -0.6064
23586SOL    HW182482   2.202   1.918   9.434  0.7645  1.2679 -0.3439
23586SOL    HW282483   2.122   1.991   9.328 -0.8108 -1.5530 -1.1949
23587SOL     OW82484   5.057   3.968  10.802 -0.1009 -0.1715  0.3585
23587SOL    HW182485   5.138   3.919  10.789 -0.3600 -0.3837 -0.5514
23587SOL    HW282486   4.993   3.902  10.828 -0.4853 -0.3762 -1.0105
23588SOL     OW82487   2.003   4.315   0.774 -0.3265  0.7747 -0.0166
23588SOL    HW182488   2.083   4.350   0.812 -0.3040  1.1786 -0.4294
23588SOL    HW282489   2.030   4.236   0.729 -0.4698 -0.1305  1.4035
23589SOL     OW82490  10.777  10.163   8.315  0.4522  0.4624  0.2263
23589SOL    HW182491  10.789  10.232   8.381  0.5433  0.2809  0.4010
23589SOL    HW282492  10.858  10.113   8.318  0.5035  0.5231 -0.1086
23590SOL     OW82493   5.587   8.773   1.226 -0.4419 -0.3018 -0.2916
23590SOL    HW182494   5.578   8.868   1.215 -2.0300 -0.4789 -0.7617
23590SOL    HW282495   5.502   8.744   1.259 -0.1922 -1.6432 -0.7417
23591SOL     OW82496  10.934   4.508   4.319  0.4212  0.4519 -0.3625
23591SOL    HW182497  11.008   4.534   4.373  1.2757 -1.2760 -0.6272
23591SOL    HW282498  10.868   4.476   4.381  0.6723  0.1684 -0.2437
23592SOL     OW82499  11.899   4.695   8.371  0.1784 -0.7753 -0.3128
23592SOL    HW182500  11.947   4.686   8.453  0.3064 -0.8864 -0.3996
23592SOL    HW282501  11.814   4.655   8.389 -0.2298  0.2723  0.1345
23593SOL     OW82502  11.229   4.874   8.033  0.1409 -0.2514  0.0371
23593SOL    HW182503  11.186   4.833   8.108  0.0360 -0.6941 -0.2592
23593SOL    HW282504  11.316   4.898   8.065  0.3912 -1.1708  0.0849
23594SOL     OW82505   3.938  10.808   7.121 -0.0722  0.2270 -0.1646
23594SOL    HW182506   3.866  10.791   7.060  0.8454 -0.5257 -1.0672
23594SOL    HW282507   4.010  10.836   7.065  1.1351 -1.5354  0.4250
23595SOL     OW82508   8.373   5.466   5.818 -0.7396  0.5841  0.3941
23595SOL    HW182509   8.280   5.449   5.831 -0.5361  0.0958  1.2866
23595SOL    HW282510   8.403   5.503   5.901 -0.7858  3.7970 -0.8837
23596SOL     OW82511  11.070   9.336  10.182  0.0281  0.2973 -0.7480
23596SOL    HW182512  11.147   9.282  10.196  1.2250  2.3124  1.2931
23596SOL    HW282513  11.103   9.426  10.189 -2.4185  1.2373 -0.3085
23597SOL     OW82514   3.363   3.668   6.953  0.1066 -0.7087  0.2184
23597SOL    HW182515   3.428   3.736   6.971  0.1130 -0.8273  0.6611
23597SOL    HW282516   3.413   3.586   6.956 -0.0956 -0.8162  0.7576
23598SOL     OW82517   9.262   4.541   8.178 -0.5240 -0.4286  0.3972
23598SOL    HW182518   9.290   4.471   8.238 -1.1584 -1.8151 -0.8555
23598SOL    HW282519   9.226   4.494   8.103  0.5701  1.2425 -1.2367
23599SOL     OW82520   7.573  10.720   6.849  0.3826  0.4440 -0.0066
23599SOL    HW182521   7.543  10.801   6.892 -1.8523  0.7630 -1.9841
23599SOL    HW282522   7.581  10.744   6.756 -0.2923 -1.6031 -0.6271
23600SOL     OW82523   4.005  11.616   2.754 -0.3994  0.0749  0.3319
23600SOL    HW182524   4.062  11.649   2.685 -0.5669 -0.4801 -0.0855
23600SOL    HW282525   4.025  11.523   2.759  1.7139  0.5505  3.0616
23601SOL     OW82526   4.834   6.792  11.813 -0.6435  0.1418  0.3779
23601SOL    HW182527   4.888   6.869  11.795  1.2989 -1.1564  0.3122
23601SOL    HW282528   4.749   6.811  11.773  0.1708  1.7389 -0.6671
23602SOL     OW82529   2.738   9.030   0.666 -0.5257  0.1077 -0.8545
23602SOL    HW182530   2.786   9.108   0.693  0.0322 -0.0650 -1.3435
23602SOL    HW282531   2.804   8.972   0.628 -0.8569 -0.8077 -0.0797
23603SOL     OW82532   5.039   3.031   7.311 -0.5377 -0.4216 -0.0832
23603SOL    HW182533   4.986   3.023   7.390 -0.9721 -2.1736 -0.5052
23603SOL    HW282534   5.094   3.108   7.326 -1.7326  0.2194  1.2376
23604SOL     OW82535   6.457   6.047   7.280 -0.2756 -0.6786 -0.1315
23604SOL    HW182536   6.550   6.025   7.288 -0.0192  0.1543 -0.7210
23604SOL    HW282537   6.423   5.985   7.216  0.1491 -0.2083 -0.8206
23605SOL     OW82538   2.325   4.859   2.078  0.2834  0.2416 -0.1293
23605SOL    HW182539   2.309   4.856   1.984 -0.0193 -1.7202 -0.0479
23605SOL    HW282540   2.421   4.866   2.085  0.4429 -1.0692 -0.6145
23606SOL     OW82541   7.827   0.372   5.100  0.1571 -0.3141  0.3419
23606SOL    HW182542   7.861   0.396   5.014  0.3768  0.6390  0.6904
23606SOL    HW282543   7.759   0.437   5.118 -0.3295 -0.8890  0.6183
23607SOL     OW82544  11.464   1.677   9.378 -0.3620 -0.0044 -0.4416
23607SOL    HW182545  11.542   1.637   9.341  0.1481  0.0425  0.5485
23607SOL    HW282546  11.405   1.604   9.396 -0.4051 -0.0735 -0.8511
23608SOL     OW82547   7.510   7.023   1.028  0.5148  0.1986 -0.0585
23608SOL    HW182548   7.466   7.057   0.950  1.1281  1.3937  0.0946
23608SOL    HW282549   7.492   7.088   1.096 -0.2450 -0.9602  0.9044
23609SOL     OW82550   1.109   3.522   1.193 -0.8730 -0.0381 -0.1923
23609SOL    HW182551   1.121   3.603   1.244  1.5527 -0.6044  0.2785
23609SOL    HW282552   1.090   3.553   1.105  0.3549  1.1117 -0.1034
23610SOL     OW82553   0.979   3.360   1.356 -0.5221  0.3283 -0.6241
23610SOL    HW182554   1.041   3.389   1.290 -0.9816 -2.3237 -2.3418
23610SOL    HW282555   0.910   3.427   1.354  1.5228  2.6458  0.4508
23611SOL     OW82556   8.858   4.744   7.322  0.3023  0.3462 -0.1145
23611SOL    HW182557   8.821   4.656   7.329  2.3753 -0.6658 -0.8675
23611SOL    HW282558   8.948   4.734   7.352  0.2871  2.4724  0.7806
23612SOL     OW82559   1.707  10.772   3.460 -0.2560 -0.3941  0.2321
23612SOL    HW182560   1.713  10.844   3.399 -0.1132 -1.3524 -0.9244
23612SOL    HW282561   1.705  10.813   3.547 -0.8766  1.0040 -0.4232
23613SOL     OW82562   7.062   8.458   0.232 -0.0691 -0.1064 -0.3967
23613SOL    HW182563   7.012   8.539   0.238  0.9460  0.5628 -0.6263
23613SOL    HW282564   7.149   8.481   0.265  0.0587 -1.2700  0.1170
23614SOL     OW82565   5.366  10.898   6.998  0.1084  0.6355 -0.0354
23614SOL    HW182566   5.342  10.990   7.007  0.0467  0.7343 -1.0260
23614SOL    HW282567   5.443  10.886   7.053  0.5792  1.4730 -0.4989
23615SOL     OW82568   1.357   0.948   5.601 -0.9143  0.0788  0.0583
23615SOL    HW182569   1.328   1.038   5.621 -0.3658  0.0557  0.9919
23615SOL    HW282570   1.452   0.953   5.601 -0.8852 -0.2865 -0.9759
23616SOL     OW82571   7.914   8.166   5.868 -0.3233  0.1992  0.1368
23616SOL    HW182572   7.998   8.189   5.909  0.0519  2.8680 -1.8523
23616SOL    HW282573   7.849   8.214   5.919 -0.5853 -1.1223  1.0963
23617SOL     OW82574   0.947   1.112   5.919  0.0762 -0.3529 -0.2986
23617SOL    HW182575   0.968   1.032   5.967  0.9287  0.1987  0.2734
23617SOL    HW282576   0.879   1.154   5.972  1.1166  0.3253  0.5317
23618SOL     OW82577   3.356   1.782   0.087  0.5805  0.1059 -0.3198
23618SOL    HW182578   3.370   1.689   0.072 -0.0901 -0.2595  1.1092
23618SOL    HW282579   3.375   1.794   0.180  0.8994  1.4507 -0.5365
23619SOL     OW82580   9.601   2.471  10.977 -0.4035 -0.3712 -0.4925
23619SOL    HW182581   9.585   2.564  10.967  0.4523 -0.0389  0.9014
23619SOL    HW282582   9.608   2.458  11.072  0.8802 -1.6016 -0.7122
23620SOL     OW82583   8.497   7.873   1.061  0.3399  0.2396 -0.6578
23620SOL    HW182584   8.403   7.873   1.079  0.0417 -0.2002 -2.1248
23620SOL    HW282585   8.517   7.961   1.031  0.6315  0.6556  0.6802
23621SOL     OW82586  10.203  11.105   5.626 -0.1914  0.3361 -0.3209
23621SOL    HW182587  10.128  11.160   5.646  0.1367  0.5335  0.4189
23621SOL    HW282588  10.253  11.103   5.708  1.7141  1.9626 -1.3490
23622SOL     OW82589   9.329   4.717   4.006  0.4616 -0.1830  0.3777
23622SOL    HW182590   9.390   4.773   4.054 -0.8787  0.9866  0.7981
23622SOL    HW282591   9.350   4.628   4.036  0.1953  0.4314  2.5714
23623SOL     OW82592  11.535   7.981   9.786  0.5915 -0.4075 -0.2415
23623SOL    HW182593  11.447   8.017   9.788  0.7891  0.1137 -0.5264
23623SOL    HW282594  11.592   8.056   9.806  1.1441 -0.0853 -2.6839
23624SOL     OW82595   7.127   4.693   2.765 -0.2998  0.1783 -0.0371
23624SOL    HW182596   7.220   4.670   2.774 -0.2733  0.6418  1.1236
23624SOL    HW282597   7.113   4.701   2.671  0.5654 -0.9806 -0.2876
23625SOL     OW82598   1.884   3.223   3.652  0.1746 -0.0714 -0.3435
23625SOL    HW182599   1.953   3.211   3.587  1.2769 -0.6646  0.8653
23625SOL    HW282600   1.832   3.143   3.647  1.2112 -0.8341  0.5462
23626SOL     OW82601   4.146   9.722   3.565  0.0817  0.6931 -0.1234
23626SOL    HW182602   4.130   9.786   3.635  1.9460  0.7547  0.2940
23626SOL    HW282603   4.219   9.670   3.597 -0.5947 -0.8676 -1.0110
23627SOL     OW82604   8.042   6.363  10.067  0.4970  0.4772 -0.7470
23627SOL    HW182605   7.984   6.406  10.004 -1.0724  0.0877  0.3570
23627SOL    HW282606   8.048   6.272  10.035 -2.7586 -0.5677  1.1113
23628SOL     OW82607   6.014   5.537   1.721  0.3980  0.3351  0.0780
23628SOL    HW182608   6.012   5.538   1.625 -1.1471  0.5532  0.0834
23628SOL    HW282609   5.953   5.606   1.747  1.3791  0.7953  1.2311
23629SOL     OW82610  11.623   6.254   6.623 -0.3404  0.4649 -0.3413
23629SOL    HW182611  11.537   6.219   6.601 -0.1023  0.2600 -0.9672
23629SOL    HW282612  11.649   6.305   6.547 -0.2237  1.1494  0.1447
23630SOL     OW82613   9.674   7.683  11.000  0.4930  0.4909  0.0712
23630SOL    HW182614   9.742   7.616  10.999  1.2027  1.2080 -0.0223
23630SOL    HW282615   9.661   7.706  10.909 -1.8043 -1.5316 -0.2249
23631SOL     OW82616   7.246  11.630   4.453 -0.3183  0.4593  0.6599
23631SOL    HW182617   7.278  11.720   4.462 -0.9486  1.0153 -1.9790
23631SOL    HW282618   7.152  11.636   4.468 -0.6154  0.5767 -1.0319
23632SOL     OW82619   7.345  10.552   4.876 -0.1434 -0.0368  0.1005
23632SOL    HW182620   7.324  10.563   4.783 -2.0499 -0.7453  0.3878
23632SOL    HW282621   7.404  10.624   4.897  0.4091  0.0632 -1.6842
23633SOL     OW82622   8.166   5.448   6.500 -0.7620  0.4420  0.4334
23633SOL    HW182623   8.185   5.458   6.593 -0.1565 -0.1146  0.3713
23633SOL    HW282624   8.210   5.367   6.475 -1.8848 -0.0275 -0.0785
23634SOL     OW82625   8.547  10.536   7.637 -0.1185  0.0775 -0.4586
23634SOL    HW182626   8.620  10.473   7.638 -0.1397 -0.0893  2.5864
23634SOL    HW282627   8.589  10.621   7.629  0.1492 -0.1652 -1.7264
23635SOL     OW82628   5.579   4.850   3.444 -0.4368 -0.1181  0.4796
23635SOL    HW182629   5.588   4.937   3.482  0.7020 -0.7736  1.8240
23635SOL    HW282630   5.665   4.831   3.406  0.6022 -1.9833  3.3758
23636SOL     OW82631   2.351   1.270   2.271  0.6721  0.3626 -0.0331
23636SOL    HW182632   2.317   1.201   2.328  1.5229 -0.4256 -0.4619
23636SOL    HW282633   2.285   1.278   2.202 -0.0850  0.9287  0.7412
23637SOL     OW82634   5.997  10.205   1.913 -0.3108 -0.4432  0.4182
23637SOL    HW182635   5.941  10.202   1.991 -0.4033  0.1184  0.3795
23637SOL    HW282636   6.037  10.118   1.909 -0.7645 -0.6724  0.7534
23638SOL     OW82637   2.819   6.541   0.772  0.4950 -0.3647 -0.1275
23638SOL    HW182638   2.807   6.631   0.743  0.2123  0.0174  1.1162
23638SOL    HW282639   2.832   6.548   0.866  1.8098 -1.5168 -0.1872
23639SOL     OW82640   8.802   7.532   0.270  0.3642 -0.1186 -0.1539
23639SOL    HW182641   8.887   7.553   0.230  0.2749  0.5878  0.0060
23639SOL    HW282642   8.757   7.479   0.204  0.5143  0.4003 -0.6910
23640SOL     OW82643   7.199   0.106   8.417  0.2789  0.0891  0.0263
23640SOL    HW182644   7.193   0.166   8.343 -0.6688  1.2274  0.9841
23640SOL    HW282645   7.284   0.124   8.456 -0.4589  1.6638  0.9781
23641SOL     OW82646   6.511   8.350   1.355 -0.5284 -0.1151  0.1883
23641SOL    HW182647   6.559   8.348   1.273 -0.8722  0.4583 -0.0331
23641SOL    HW282648   6.535   8.434   1.395 -0.6438 -0.2265  0.4928
23642SOL     OW82649   6.819   0.627   1.444 -0.3935 -0.3097  0.6827
23642SOL    HW182650   6.851   0.685   1.375 -1.8164 -0.1717  0.1196
23642SOL    HW282651   6.744   0.673   1.482 -0.4659 -0.9975  1.4029
23643SOL     OW82652  11.442   9.523   8.798 -0.4482 -0.1538 -0.0539
23643SOL    HW182653  11.403   9.608   8.777  0.3638  0.4182  0.6627
23643SOL    HW282654  11.411   9.504   8.886  0.2319 -0.0838  0.2032
23644SOL     OW82655   0.108   3.881   5.906 -0.0751 -0.4884  0.3623
23644SOL    HW182656   0.015   3.900   5.915  0.1690  0.2108  1.6423
23644SOL    HW282657   0.112   3.818   5.834 -1.2532  1.4846 -1.5614
23645SOL     OW82658   2.805   2.775   4.216  0.1069 -0.2588 -0.4683
23645SOL    HW182659   2.882   2.823   4.248 -0.9205  1.9966 -1.1627
23645SOL    HW282660   2.765   2.739   4.295  0.3218  1.0061  0.2523
23646SOL     OW82661   4.586   7.371   2.185 -0.2064  0.3469 -0.4231
23646SOL    HW182662   4.502   7.351   2.227 -0.4804  0.1970 -1.0428
23646SOL    HW282663   4.647   7.381   2.258 -0.2836 -1.6510 -0.0307
23647SOL     OW82664   8.551   0.067   1.108 -0.0788 -0.1062  0.3458
23647SOL    HW182665   8.512  -0.012   1.145  0.4115  0.3651  1.9665
23647SOL    HW282666   8.511   0.139   1.158 -0.9540  0.7480 -1.4773
23648SOL     OW82667  10.841   7.577  10.875  0.1141  0.6766 -0.3901
23648SOL    HW182668  10.818   7.668  10.896  0.0891  0.6316 -0.2190
23648SOL    HW282669  10.906   7.584  10.805  0.5416  0.8433  0.0182
23649SOL     OW82670  10.069   0.272   4.866  0.2898 -0.3106  0.2535
23649SOL    HW182671  10.151   0.308   4.899  1.7192 -2.4085 -0.8236
23649SOL    HW282672  10.016   0.257   4.944  0.9367  0.9747  0.9744
23650SOL     OW82673  11.891   4.062   3.068  0.5357 -0.6574  0.1662
23650SOL    HW182674  11.926   4.023   2.988  0.3136  0.3743 -0.4549
23650SOL    HW282675  11.802   4.029   3.074  0.2614 -0.0549 -0.4966
23651SOL     OW82676   1.098   7.099  10.490  0.4907 -0.2452  0.0732
23651SOL    HW182677   1.064   7.108  10.401 -0.0733  0.3964  0.3396
23651SOL    HW282678   1.076   7.010  10.515  0.9145 -0.5312 -0.5267
23652SOL     OW82679   5.938  10.636   0.674  0.0192  0.0478 -1.1302
23652SOL    HW182680   6.013  10.612   0.620  1.3904  0.2589  0.5672
23652SOL    HW282681   5.938  10.732   0.673  0.6726  0.0825 -0.0319
23653SOL     OW82682   1.873   4.822   3.383 -0.3600 -0.0114 -0.0962
23653SOL    HW182683   1.813   4.816   3.457 -0.7752 -0.1289 -0.4461
23653SOL    HW282684   1.825   4.871   3.316  0.4657  1.2379  0.1707
23654SOL     OW82685   2.532   6.831   7.514  0.2091  0.3704  0.1099
23654SOL    HW182686   2.548   6.754   7.568  0.8594  0.0732 -0.4948
23654SOL    HW282687   2.567   6.808   7.428 -0.1595  1.1066 -0.2467
23655SOL     OW82688   4.411   1.818   7.367 -0.1010 -0.0431 -0.0677
23655SOL    HW182689   4.444   1.852   7.450 -1.3977  0.9780  0.0652
23655SOL    HW282690   4.318   1.802   7.383 -0.5517  0.9498 -1.5460
23656SOL     OW82691   7.097   9.711   0.083  0.3654  0.6129  0.0063
23656SOL    HW182692   7.141   9.681   0.003 -0.4510 -1.0593  0.1514
23656SOL    HW282693   7.012   9.743   0.053 -1.0863 -2.5254  0.3902
23657SOL     OW82694   5.134   0.745   6.558 -0.0651  0.7360 -0.2170
23657SOL    HW182695   5.069   0.682   6.590  1.0207 -0.0371  0.5490
23657SOL    HW282696   5.136   0.814   6.624 -0.4004  0.9705 -0.4508
23658SOL     OW82697  10.180   2.052   5.612  0.2181 -0.3529  0.3713
23658SOL    HW182698  10.114   2.118   5.633 -1.5496 -1.8529 -0.2114
23658SOL    HW282699  10.190   2.002   5.693 -0.6079 -1.1234  0.0198
23659SOL     OW82700   3.602   7.916   1.346  0.0988  0.1751 -0.5728
23659SOL    HW182701   3.613   7.970   1.425 -1.0894 -1.5617  0.8771
23659SOL    HW282702   3.662   7.954   1.282 -1.0881  3.6040  0.0971
23660SOL     OW82703   5.460  10.098   2.595 -0.1793  0.1726 -1.0218
23660SOL    HW182704   5.508  10.058   2.523 -1.8809  0.9270 -2.6894
23660SOL    HW282705   5.432  10.025   2.649 -0.1697 -0.5862 -2.0034
23661SOL     OW82706   6.662   6.390  10.601 -0.5109  0.6240  0.1771
23661SOL    HW182707   6.597   6.430  10.542  0.4845 -0.5272 -1.8208
23661SOL    HW282708   6.610   6.339  10.662 -1.5708 -0.9862 -1.9242
23662SOL     OW82709   7.313   9.063   1.299  0.2541 -0.4513 -0.1844
23662SOL    HW182710   7.249   9.063   1.227  0.5724 -0.1262 -0.4698
23662SOL    HW282711   7.374   8.993   1.277 -0.8746 -1.8118  0.8813
23663SOL     OW82712   2.197   6.922   1.651  0.3053  0.0229  0.2404
23663SOL    HW182713   2.151   6.865   1.713  0.3275  0.2535  0.4729
23663SOL    HW282714   2.237   6.862   1.588 -2.1753 -0.1314 -1.3292
23664SOL     OW82715   9.886   2.454   2.762  0.7882  0.5086 -0.0541
23664SOL    HW182716   9.796   2.480   2.740  0.5536  0.1288  0.4313
23664SOL    HW282717   9.931   2.450   2.677  0.9888  2.9223 -0.1237
23665SOL     OW82718   3.598   6.838  10.310 -0.0298  0.0075 -0.2438
23665SOL    HW182719   3.664   6.820  10.243  0.3931 -1.2937  0.4848
23665SOL    HW282720   3.582   6.753  10.351 -2.3727  0.2379 -0.5713
23666SOL     OW82721   6.871   1.224   6.458  0.0985 -0.1170 -0.3956
23666SOL    HW182722   6.784   1.223   6.497 -0.1509  0.8697 -0.8940
23666SOL    HW282723   6.887   1.315   6.435  1.3702 -0.2382 -0.1076
23667SOL     OW82724   2.604   4.131   8.734 -0.3462  0.5058 -0.1722
23667SOL    HW182725   2.628   4.214   8.776 -0.7248  0.4852  0.0921
23667SOL    HW282726   2.510   4.140   8.716 -0.3288  0.2456 -0.4047
23668SOL     OW82727   6.920   3.839   2.417 -0.0237  0.2435  0.2436
23668SOL    HW182728   7.001   3.788   2.412 -0.5982 -0.5824 -1.2773
23668SOL    HW282729   6.927   3.888   2.500  1.5836 -0.5301  0.5967
23669SOL     OW82730   5.787   2.874   9.838  0.3207  0.2021 -0.5058
23669SOL    HW182731   5.799   2.868   9.743  0.4295 -1.9078 -0.4116
23669SOL    HW282732   5.708   2.823   9.855 -0.1144  1.1719  0.4864
23670SOL     OW82733   9.886   6.299   8.347 -0.0991  0.0868 -0.5773
23670SOL    HW182734   9.976   6.295   8.378 -0.0473 -0.2640 -0.7601
23670SOL    HW282735   9.835   6.328   8.422  0.1741  0.3423 -0.4911
23671SOL     OW82736   3.864   6.788   1.700 -0.5417 -0.5499  0.5102
23671SOL    HW182737   3.927   6.859   1.709 -0.9045  0.0788 -1.4831
23671SOL    HW282738   3.917   6.709   1.690  0.0091  0.0368 -1.6860
23672SOL     OW82739   6.359  11.218   5.021  0.3710  0.6532  0.0231
23672SOL    HW182740   6.397  11.174   4.945 -2.0519  0.8446 -1.3957
23672SOL    HW282741   6.336  11.147   5.082 -1.1588  0.1132 -1.1303
23673SOL     OW82742   0.985   9.046   7.431 -0.3649  0.1348  0.3717
23673SOL    HW182743   0.910   9.048   7.372  1.4698  0.5702 -2.0715
23673SOL    HW282744   1.002   8.953   7.445 -2.1732 -0.0005  2.1701
23674SOL     OW82745   5.244   7.890   0.157 -0.5965 -0.1182 -0.0674
23674SOL    HW182746   5.234   7.894   0.252 -0.8458  0.3408 -0.1089
23674SOL    HW282747   5.244   7.797   0.137 -2.6607 -0.2053  0.1636
23675SOL     OW82748   6.478  11.002  10.600 -0.1464 -0.0489 -0.7223
23675SOL    HW182749   6.430  11.037  10.676  0.5155 -1.7754  0.5498
23675SOL    HW282750   6.424  10.930  10.569 -0.7586  1.0693 -2.3963
23676SOL     OW82751   9.004   1.846   8.922 -0.3430 -0.2637 -0.6064
23676SOL    HW182752   8.997   1.779   8.990  0.2704 -0.9934 -1.2343
23676SOL    HW282753   8.929   1.830   8.865  1.0771 -2.0454 -2.1200
23677SOL     OW82754  10.906   6.366   2.004  0.4566  0.2092  0.0104
23677SOL    HW182755  10.929   6.273   2.014 -2.6331 -0.7398 -0.6758
23677SOL    HW282756  10.924   6.386   1.912 -0.2340 -0.1871 -0.2232
23678SOL     OW82757   7.419   2.010   3.834 -0.0988  0.0939 -0.1899
23678SOL    HW182758   7.365   2.003   3.912 -1.2609  2.9328 -0.6293
23678SOL    HW282759   7.470   2.090   3.847  0.2570  0.2095 -2.0176
23679SOL     OW82760  10.863   8.686   9.629 -0.1337 -0.2071 -0.6172
23679SOL    HW182761  10.778   8.671   9.587 -0.2510  0.6123 -0.6876
23679SOL    HW282762  10.843   8.731   9.711  0.1940 -0.5305 -0.3551
23680SOL     OW82763   1.022   4.871   9.719 -0.0150  0.1818 -0.0577
23680SOL    HW182764   1.032   4.903   9.809 -1.8931 -0.6870  0.4974
23680SOL    HW282765   1.079   4.794   9.715 -0.9798 -0.6116  0.8666
23681SOL     OW82766   3.801   6.106   7.474 -0.2755  0.2229 -0.2811
23681SOL    HW182767   3.749   6.046   7.420  1.7220 -0.2475 -1.8199
23681SOL    HW282768   3.738   6.170   7.507 -2.2998 -2.0608  0.5176
23682SOL     OW82769   3.594   3.692   4.922 -0.0042 -0.9636  0.7208
23682SOL    HW182770   3.557   3.615   4.878 -1.1619 -0.2080  0.3170
23682SOL    HW282771   3.611   3.662   5.011  1.1764 -2.1523  0.1222
23683SOL     OW82772   3.797   0.088  10.598  0.2916 -0.4064  0.1973
23683SOL    HW182773   3.754   0.172  10.616 -0.6904 -0.5686 -1.1448
23683SOL    HW282774   3.880   0.112  10.557  0.0987 -0.0838 -0.0130
23684SOL     OW82775   5.067  10.339   9.421  0.2888 -0.1926  0.2479
23684SOL    HW182776   5.106  10.298   9.344 -1.3279  0.6553 -1.0766
23684SOL    HW282777   5.141  10.381   9.465  1.7464 -3.0836  0.8388
23685SOL     OW82778   6.851   9.487   1.453 -0.1538 -0.0990  0.3642
23685SOL    HW182779   6.846   9.482   1.357 -0.7515 -2.7100  0.4797
23685SOL    HW282780   6.944   9.498   1.471  0.1334 -1.0135 -0.4875
23686SOL     OW82781   4.810   7.831   0.181  0.5291  0.5484  0.0822
23686SOL    HW182782   4.812   7.925   0.200 -1.1461  0.7519 -0.5443
23686SOL    HW282783   4.737   7.798   0.234  1.5756 -0.5658  0.8771
23687SOL     OW82784   2.727   1.347   4.956 -0.4527  0.4111 -0.3382
23687SOL    HW182785   2.719   1.327   4.863 -1.9505  2.2232 -0.6598
23687SOL    HW282786   2.801   1.407   4.962 -0.3391  0.2730 -0.3431
23688SOL     OW82787   7.022   8.183  11.337 -0.0828  0.2880 -0.1065
23688SOL    HW182788   7.061   8.179  11.250 -0.7451  0.3694 -0.4194
23688SOL    HW282789   6.960   8.110  11.338  0.6652 -0.3611  0.6819
23689SOL     OW82790   0.737   5.549   5.141  0.6926  0.7233 -0.0504
23689SOL    HW182791   0.648   5.519   5.158  1.6207 -2.2367  0.1888
23689SOL    HW282792   0.738   5.570   5.048 -0.4628  1.7802  0.1440
23690SOL     OW82793   4.451  10.313   2.725  0.0337  0.0829 -0.4666
23690SOL    HW182794   4.514  10.275   2.787 -1.6089  0.8903  1.8481
23690SOL    HW282795   4.494  10.393   2.694  0.0771  0.8439  1.3892
23691SOL     OW82796   9.264  11.057   5.804 -0.2664  0.2686 -0.2120
23691SOL    HW182797   9.268  11.025   5.894  0.4875  1.2355  0.1169
23691SOL    HW282798   9.171  11.064   5.785 -0.4924 -2.6048 -0.5045
23692SOL     OW82799   4.108   9.853   4.465  0.3331  0.3507 -0.5951
23692SOL    HW182800   4.025   9.807   4.479  0.8831 -0.2625  0.9172
23692SOL    HW282801   4.084   9.944   4.453 -0.7146 -0.1270 -2.6233
23693SOL     OW82802   7.015   9.960   4.158  0.7132 -0.4188  0.3382
23693SOL    HW182803   6.989   9.950   4.250 -1.6834  0.7336 -0.1381
23693SOL    HW282804   6.985   9.879   4.116 -0.8617  0.2661  0.0778
23694SOL     OW82805   4.137   8.234   7.134 -0.1470 -0.1121  0.5654
23694SOL    HW182806   4.045   8.212   7.120  0.0734 -0.8142  0.1560
23694SOL    HW282807   4.144   8.250   7.228 -0.7859  0.4689  0.5310
23695SOL     OW82808   7.452   3.554   5.178 -0.0440 -0.3660  0.3304
23695SOL    HW182809   7.519   3.489   5.199 -0.6272 -0.7352  1.0939
23695SOL    HW282810   7.369   3.509   5.194 -0.5063  1.3905  3.6981
23696SOL     OW82811   4.862   5.532   7.840  0.0865  0.1193 -0.6164
23696SOL    HW182812   4.954   5.531   7.812 -0.1603  2.0110 -1.6919
23696SOL    HW282813   4.854   5.613   7.890 -0.0980 -1.9559  3.0748
23697SOL     OW82814   8.775   4.880   6.799  0.1522  0.1974  0.5879
23697SOL    HW182815   8.864   4.869   6.766 -0.4216  1.2040 -1.4893
23697SOL    HW282816   8.719   4.852   6.726 -1.2121  2.1686  0.8099
23698SOL     OW82817   8.742   3.201   4.557 -0.2146 -0.2731  0.1613
23698SOL    HW182818   8.679   3.148   4.509  1.2972 -1.7513 -0.2685
23698SOL    HW282819   8.693   3.237   4.631 -2.2556  0.9392 -1.6729
23699SOL     OW82820   7.884   3.999   6.189  0.7665  0.2240 -0.2098
23699SOL    HW182821   7.917   4.075   6.140 -1.9979  2.2158  0.7607
23699SOL    HW282822   7.937   3.997   6.268 -0.4090  2.5890  0.7515
23700SOL     OW82823   7.294   4.437  10.677  0.3711  0.3403 -0.4901
23700SOL    HW182824   7.345   4.461  10.600 -2.1933  0.7902 -2.1554
23700SOL    HW282825   7.275   4.344  10.666 -0.0471  0.4168 -0.4283
23701SOL     OW82826   8.467   0.592  11.791 -0.0942 -0.0717 -0.0694
23701SOL    HW182827   8.515   0.675  11.784  2.5792 -1.4357  0.8796
23701SOL    HW282828   8.388   0.615  11.841 -0.3131  2.1776 -1.2915
23702SOL     OW82829   5.771   1.307   8.331  0.3245 -0.3280  0.5198
23702SOL    HW182830   5.754   1.227   8.282 -2.0354  0.7182 -0.4925
23702SOL    HW282831   5.720   1.298   8.412 -0.1276  0.2390  0.3034
23703SOL     OW82832   2.395   8.010   3.799  0.0666 -0.3795 -0.1162
23703SOL    HW182833   2.472   8.022   3.743  1.3932 -1.7677  1.2995
23703SOL    HW282834   2.330   7.970   3.742  0.0833  1.4995 -1.5336
23704SOL     OW82835   0.426  11.920   5.183 -0.1294  0.0586 -0.0544
23704SOL    HW182836   0.362  11.850   5.174  1.5747 -1.4840 -0.8898
23704SOL    HW282837   0.422  11.944   5.276 -0.5208 -1.4013  0.3369
23705SOL     OW82838   9.109   4.484   0.631 -0.0599  0.4396  0.4303
23705SOL    HW182839   9.129   4.515   0.719 -0.6351 -0.5466  0.9225
23705SOL    HW282840   9.020   4.452   0.636 -0.1216  0.4135 -0.5341
23706SOL     OW82841   1.134   4.384   7.782 -0.1169  0.2864 -0.1372
23706SOL    HW182842   1.085   4.435   7.718  0.4108  0.6202 -0.2802
23706SOL    HW282843   1.082   4.391   7.862  0.0651  1.2439 -0.0914
23707SOL     OW82844   2.957   3.437   1.707 -0.1383  0.1492 -0.2093
23707SOL    HW182845   3.035   3.443   1.763  0.7891 -1.5589 -1.2245
23707SOL    HW282846   2.910   3.360   1.739 -1.3034  1.0075  0.2169
23708SOL     OW82847   3.767   4.943   3.941 -0.6470 -0.1994  0.5929
23708SOL    HW182848   3.777   5.038   3.952 -0.2643 -0.1091 -0.4287
23708SOL    HW282849   3.754   4.910   4.030  2.5714  0.4113  1.4473
23709SOL     OW82850   2.407  10.338   1.461  0.2499  0.2300 -0.0962
23709SOL    HW182851   2.482  10.313   1.408  0.4105 -0.0837  0.2706
23709SOL    HW282852   2.366  10.255   1.485  1.2240  0.2383  1.7672
23710SOL     OW82853   5.287   2.762  10.349 -0.0497 -0.1563  0.0492
23710SOL    HW182854   5.218   2.739  10.411 -1.5764  0.5183 -1.3220
23710SOL    HW282855   5.301   2.856  10.362  0.1478 -0.1591 -0.1289
23711SOL     OW82856   5.190   5.779   0.804  0.1089 -0.7940  0.7046
23711SOL    HW182857   5.136   5.807   0.879  0.8613 -1.1107  1.3834
23711SOL    HW282858   5.244   5.708   0.839  0.4852 -0.9378 -0.1449
23712SOL     OW82859   9.715   8.683   5.910 -0.3900 -0.2295  0.5227
23712SOL    HW182860   9.713   8.698   6.004 -0.4586  3.4255  0.0851
23712SOL    HW282861   9.796   8.636   5.894  0.4133  0.4920  2.2731
23713SOL     OW82862   7.028   7.681   3.142 -0.4110  0.1801  0.4011
23713SOL    HW182863   6.957   7.622   3.118 -1.2565  0.4680  2.0353
23713SOL    HW282864   6.992   7.769   3.129 -0.1363  0.3257  0.6106
23714SOL     OW82865  10.261   3.880   6.792  0.3239 -0.0994 -0.2468
23714SOL    HW182866  10.282   3.874   6.886 -0.3774 -0.5347 -0.1078
23714SOL    HW282867  10.308   3.958   6.762  1.2076 -0.4140  0.2857
23715SOL     OW82868   1.697   2.246   6.339 -0.4271  0.8063  0.2721
23715SOL    HW182869   1.678   2.180   6.273  2.6813  0.3570 -0.3496
23715SOL    HW282870   1.711   2.326   6.288  2.2081  0.4091  0.2170
23716SOL     OW82871   7.003  10.661  10.282 -1.0073 -0.6378 -0.4013
23716SOL    HW182872   6.950  10.696  10.354  0.1716 -0.6791  0.5287
23716SOL    HW282873   7.079  10.623  10.326 -0.7064 -1.4975 -1.6244
23717SOL     OW82874   3.368   6.161   4.104 -0.5019 -0.1923  0.1425
23717SOL    HW182875   3.282   6.154   4.062 -0.0325  3.1397 -1.7806
23717SOL    HW282876   3.361   6.239   4.159  1.1020 -0.2060  0.4069
23718SOL     OW82877   3.358   1.941  10.352  0.4705 -0.3146  0.0236
23718SOL    HW182878   3.403   1.979  10.277  0.0259 -1.9478 -1.1259
23718SOL    HW282879   3.396   1.854  10.361 -1.0152 -0.9745  0.2881
23719SOL     OW82880   9.946   7.041   0.027  0.2551  0.4553 -0.3232
23719SOL    HW182881  10.029   6.999   0.051 -0.2779 -0.2692  0.2853
23719SOL    HW282882   9.926   7.100   0.101  0.0956  0.4319 -0.3467
23720SOL     OW82883  11.647   2.145   4.788  0.4454  0.7387 -0.2301
23720SOL    HW182884  11.732   2.102   4.791  0.5884  1.0670  0.9326
23720SOL    HW282885  11.629   2.169   4.879 -0.7855  0.8787 -0.4931
23721SOL     OW82886   7.320   5.446   1.593  0.1680 -0.3362  0.3848
23721SOL    HW182887   7.415   5.438   1.604  0.3822  0.6641 -0.5361
23721SOL    HW282888   7.287   5.463   1.681  1.0504  1.0048  0.4812
23722SOL     OW82889   8.200  10.493   7.097  0.3031  0.2749  0.0181
23722SOL    HW182890   8.107  10.516   7.090  0.3328 -0.0173 -1.9373
23722SOL    HW282891   8.222  10.508   7.189 -1.7426  0.0804  0.5771
23723SOL     OW82892   2.028   5.793  11.486  0.0308 -0.0098 -0.8281
23723SOL    HW182893   1.961   5.830  11.429 -0.4656 -1.3469 -1.1547
23723SOL    HW282894   2.057   5.714  11.441  2.1932  0.7680 -0.9194
23724SOL     OW82895   6.273   0.459  10.164 -0.3034  0.6406 -0.0172
23724SOL    HW182896   6.322   0.470  10.082  0.0927 -0.3687  0.0657
23724SOL    HW282897   6.215   0.384  10.148 -0.5860  0.7542  0.4523
23725SOL     OW82898   2.722   4.053   6.463  0.3259  0.2066  0.5148
23725SOL    HW182899   2.769   3.974   6.438  0.7410  0.7976 -0.6279
23725SOL    HW282900   2.718   4.050   6.559  0.2639 -1.2235  0.4829
23726SOL     OW82901  10.444   1.316   7.733  0.3847 -0.0533  0.7106
23726SOL    HW182902  10.487   1.251   7.788 -0.1263 -0.8205  0.2180
23726SOL    HW282903  10.483   1.399   7.760  1.2171 -0.5822  1.1828
23727SOL     OW82904  11.726   4.318   0.414  0.0731 -0.0520 -0.4747
23727SOL    HW182905  11.688   4.368   0.342  1.1147  0.7019 -0.5173
23727SOL    HW282906  11.814   4.295   0.383  0.4732  0.1505  0.4884
23728SOL     OW82907   0.568  10.450   6.242  0.0707  0.3448  0.3347
23728SOL    HW182908   0.628  10.460   6.317 -0.3710 -1.0403  0.9025
23728SOL    HW282909   0.481  10.461   6.280 -0.0942  3.0429 -0.6054
23729SOL     OW82910   8.014   6.889   1.896 -0.3136  0.0056 -0.4757
23729SOL    HW182911   8.039   6.803   1.930  1.3621 -0.4272 -2.6088
23729SOL    HW282912   7.935   6.872   1.845 -0.0383 -0.2631 -0.8188
23730SOL     OW82913   4.171  10.913   7.017  0.5695 -0.2122  0.1428
23730SOL    HW182914   4.252  10.911   7.067  0.5880  2.7054  0.4052
23730SOL    HW282915   4.198  10.939   6.929  0.0216 -0.2539 -0.0400
23731SOL     OW82916   9.068   8.645   5.412 -0.1994 -0.4724  0.2797
23731SOL    HW182917   9.136   8.578   5.406 -0.3722 -0.9732  2.8478
23731SOL    HW282918   9.114   8.724   5.439 -0.3619 -0.2070 -0.1930
23732SOL     OW82919   3.157   6.927   0.328  0.0604  0.3812 -0.6786
23732SOL    HW182920   3.129   6.949   0.239  1.8428  0.4256 -1.2758
23732SOL    HW282921   3.222   6.994   0.349 -0.2129  0.2682  0.6124
23733SOL     OW82922   8.918  11.746   6.916  0.2745 -0.3750 -0.0072
23733SOL    HW182923   8.879  11.738   6.829 -2.1993 -0.6288  1.0352
23733SOL    HW282924   8.858  11.803   6.964  2.5722  1.2958  1.0333
23734SOL     OW82925   0.828   4.795   2.996  0.5113  0.1435 -0.4624
23734SOL    HW182926   0.807   4.762   2.908  0.4057  2.5286 -1.3945
23734SOL    HW282927   0.923   4.798   2.998  0.6435 -2.2620  0.4999
23735SOL     OW82928  11.225   3.544   7.894 -0.4254 -0.2559  0.4954
23735SOL    HW182929  11.180   3.555   7.810 -0.4520 -1.8516  0.2610
23735SOL    HW282930  11.200   3.620   7.946 -0.8903  0.4517 -0.7295
23736SOL     OW82931   4.196   1.214   8.975 -0.4420 -0.0244  0.3072
23736SOL    HW182932   4.127   1.155   8.946 -0.0673 -1.1236  1.5493
23736SOL    HW282933   4.219   1.183   9.063  0.9396  0.9297  0.3178
23737SOL     OW82934   2.978   2.782   2.680  0.3348 -0.0388 -0.5729
23737SOL    HW182935   2.941   2.852   2.627 -0.8377  0.4978  0.9022
23737SOL    HW282936   3.072   2.803   2.686  0.3873  0.2039 -1.9010
23738SOL     OW82937   2.670   5.738  10.069  1.1275  0.5605  0.3301
23738SOL    HW182938   2.647   5.647  10.050  0.5993  0.8456 -0.4924
23738SOL    HW282939   2.752   5.752  10.023  0.2735  1.0087 -1.1295
23739SOL     OW82940  11.718   8.942  10.217 -0.3213  0.1755 -0.2110
23739SOL    HW182941  11.712   8.847  10.209  3.2406 -0.0426 -2.5177
23739SOL    HW282942  11.764   8.956  10.301  0.7366 -0.3035 -0.6928
23740SOL     OW82943   7.451   8.133   9.555 -0.3236 -0.0905  0.0205
23740SOL    HW182944   7.443   8.038   9.547 -1.2577 -0.0051 -0.2253
23740SOL    HW282945   7.457   8.148   9.650 -1.8208 -0.3098  0.1822
23741SOL     OW82946   4.248   9.785   9.189 -0.5510 -0.1801  0.2850
23741SOL    HW182947   4.324   9.827   9.229 -0.0200  0.3360 -1.2009
23741SOL    HW282948   4.174   9.811   9.244  0.1886  0.1849  1.1358
23742SOL     OW82949   8.268   7.465   4.030 -0.8882  0.2434  0.1573
23742SOL    HW182950   8.360   7.440   4.019 -1.1175 -0.9771  0.8543
23742SOL    HW282951   8.218   7.393   3.992 -1.5532  0.3278  0.8422
23743SOL     OW82952   4.328   6.489   5.818 -0.3957  0.5536  0.4816
23743SOL    HW182953   4.235   6.504   5.803 -0.4387  1.2997  1.3813
23743SOL    HW282954   4.372   6.554   5.764 -0.4088  0.4650  0.3636
23744SOL     OW82955   3.945   0.752  10.421  0.7170 -0.4474 -0.2395
23744SOL    HW182956   4.031   0.786  10.397  1.7514 -2.7830 -0.1447
23744SOL    HW282957   3.906   0.725  10.338 -0.0377  0.7656 -0.3009
23745SOL     OW82958   5.505   8.125   0.891  0.1837  0.5960  0.0034
23745SOL    HW182959   5.592   8.160   0.871  0.4820 -0.9135 -1.6166
23745SOL    HW282960   5.489   8.149   0.982  1.8555  1.7647  0.0311
23746SOL     OW82961   4.567   9.078   1.954 -0.0630  0.2919  0.1204
23746SOL    HW182962   4.567   8.997   1.904 -0.7667 -0.2192  0.9230
23746SOL    HW282963   4.588   9.146   1.890  1.9627 -0.6693 -0.3018
23747SOL     OW82964   8.352   7.565  10.958  0.4007  0.2221  0.2073
23747SOL    HW182965   8.327   7.486  11.006  1.7370 -0.2458  0.1759
23747SOL    HW282966   8.435   7.542  10.915  0.1630  1.2246 -0.8504
23748SOL     OW82967   9.667   3.797   7.745 -0.0908 -0.5958 -0.2638
23748SOL    HW182968   9.607   3.749   7.687 -0.9332  0.7533 -0.5566
23748SOL    HW282969   9.615   3.816   7.822  0.8745 -1.9197  0.7604
23749SOL     OW82970  10.119   7.024  10.095 -1.0946 -0.3472  0.3991
23749SOL    HW182971  10.117   6.939  10.141 -0.7914 -1.3095 -1.2682
23749SOL    HW282972  10.079   7.006  10.010 -0.6956  1.1144 -0.1272
23750SOL     OW82973   9.036   1.268   7.847 -0.0364  0.3154 -0.0625
23750SOL    HW182974   9.067   1.214   7.774 -1.6947  0.0887 -0.6471
23750SOL    HW282975   9.083   1.235   7.923 -1.0677 -2.0786 -0.3761
23751SOL     OW82976   5.720   2.779  11.845  0.9024 -0.4445 -0.3540
23751SOL    HW182977   5.670   2.707  11.807  0.6075 -0.3665 -0.1140
23751SOL    HW282978   5.805   2.741  11.866  0.3286 -1.0483  0.9373
23752SOL     OW82979  10.004   5.024   6.154 -0.1342 -0.1694  0.4786
23752SOL    HW182980  10.086   4.974   6.147 -0.2002 -0.0466 -2.5245
23752SOL    HW282981   9.935   4.957   6.147 -0.2173  0.0931 -2.2093
23753SOL     OW82982   8.830  10.575  10.529 -0.0796 -0.8869 -0.1661
23753SOL    HW182983   8.870  10.656  10.496  0.2159 -1.0249 -0.1524
23753SOL    HW282984   8.747  10.569  10.483 -0.1426 -0.5299 -0.1037
23754SOL     OW82985  10.566   1.872   9.406 -0.8998  0.5845 -0.0844
23754SOL    HW182986  10.537   1.841   9.320  1.9015 -2.3110 -0.1944
23754SOL    HW282987  10.596   1.793   9.450 -0.7550  2.2208  2.9942
23755SOL     OW82988   0.949   9.562   9.288 -0.0954 -0.2500  0.1286
23755SOL    HW182989   0.987   9.610   9.214 -1.7618  0.6883 -0.1643
23755SOL    HW282990   0.950   9.624   9.360 -1.0493 -0.2028  0.1127
23756SOL     OW82991   5.697   8.033   9.431 -0.7160  0.5739  0.1806
23756SOL    HW182992   5.727   8.109   9.381  0.1956 -0.3939 -0.7779
23756SOL    HW282993   5.777   7.985   9.454 -1.2735 -0.0856  0.8162
23757SOL     OW82994   8.167   0.300   0.627 -0.1208 -0.1375 -0.0631
23757SOL    HW182995   8.122   0.352   0.561  1.1029  0.0073 -0.7960
23757SOL    HW282996   8.185   0.216   0.585 -1.3146 -0.8812  0.8323
23758SOL     OW82997   8.027   2.130   3.956 -0.0267 -0.1570 -0.2437
23758SOL    HW182998   8.085   2.180   3.898 -1.2176  1.0235 -0.4467
23758SOL    HW282999   7.945   2.124   3.908 -0.9554  0.6313  1.1858
23759SOL     OW83000   5.740  11.137   5.352  0.1068 -0.3496  0.1480
23759SOL    HW183001   5.739  11.232   5.353 -0.7691 -0.2768  3.2953
23759SOL    HW283002   5.677  11.112   5.284 -1.2875  1.3784  0.7383
23760SOL     OW83003   6.529   7.180   6.883 -0.0918  0.0492 -0.8604
23760SOL    HW183004   6.443   7.177   6.925 -0.1153 -2.4092 -0.9428
23760SOL    HW283005   6.584   7.229   6.944 -1.6311  2.3201 -1.1345
23761SOL     OW83006  11.357  11.486   5.978  0.0764  0.3824  0.0517
23761SOL    HW183007  11.431  11.512   5.924 -0.3313  2.3385  0.3794
23761SOL    HW283008  11.392  11.479   6.066 -0.0440  0.9263  0.1439
23762SOL     OW83009   6.552   1.881  10.884 -0.4891  0.5979  0.5171
23762SOL    HW183010   6.641   1.876  10.849 -0.4779 -0.8372  0.6795
23762SOL    HW283011   6.495   1.867  10.807 -0.5260 -0.0320  0.6543
23763SOL     OW83012   6.937   6.328   7.851 -0.2541 -0.2937 -0.0188
23763SOL    HW183013   6.977   6.414   7.862 -0.1021 -0.3146 -0.3983
23763SOL    HW283014   6.977   6.293   7.771 -0.7124 -0.4928 -0.1643
23764SOL     OW83015   9.508   1.989   3.605  0.1740  0.1184 -0.0382
23764SOL    HW183016   9.484   2.046   3.532 -1.0978 -0.0684  0.2041
23764SOL    HW283017   9.554   2.046   3.666 -0.5712  0.7673 -0.0657
23765SOL     OW83018   6.111  11.946  10.759 -0.4154  0.3863 -0.4595
23765SOL    HW183019   6.069  12.032  10.762  1.3762  1.3415 -0.7940
23765SOL    HW283020   6.174  11.948  10.832 -0.0602 -0.4763 -0.7306
23766SOL     OW83021  10.123   6.852   0.137  0.2823  0.4666 -0.1804
23766SOL    HW183022  10.201   6.908   0.146  1.4873 -0.6690 -2.5487
23766SOL    HW283023  10.147   6.770   0.178 -0.2865  0.6095  0.4590
23767SOL     OW83024   5.481   3.566   1.651  0.3018  0.2904 -0.4063
23767SOL    HW183025   5.448   3.549   1.563  0.5649 -0.8673 -0.3065
23767SOL    HW283026   5.485   3.661   1.658 -1.1951  0.4254 -1.0894
23768SOL     OW83027  11.904   8.525  10.483  0.5366 -0.2175  0.3722
23768SOL    HW183028  11.839   8.465  10.520  1.4563 -1.8938 -0.5783
23768SOL    HW283029  11.971   8.467  10.447  1.3797  1.4142 -0.7841
23769SOL     OW83030   9.798  10.616   7.973 -0.0775  0.1516  0.1202
23769SOL    HW183031   9.743  10.693   7.958  1.4099  1.3515  0.6023
23769SOL    HW283032   9.878  10.651   8.012  0.6157 -1.6596  0.4082
23770SOL     OW83033   2.575   4.423   7.933  0.3536 -0.0061  0.0335
23770SOL    HW183034   2.604   4.416   8.024  0.3477  3.4141  0.4430
23770SOL    HW283035   2.640   4.372   7.883 -0.1274 -2.6874  1.9111
23771SOL     OW83036   1.412   8.928   9.447  0.1811 -0.0204  0.5062
23771SOL    HW183037   1.454   8.975   9.519 -0.2287  0.9702  0.1099
23771SOL    HW283038   1.476   8.861   9.422  0.1011 -0.7402  2.1394
23772SOL     OW83039   8.829   3.824  11.905  0.0591 -0.2300  0.0921
23772SOL    HW183040   8.877   3.817  11.987  1.9363 -0.2197 -0.9575
23772SOL    HW283041   8.737   3.829  11.931  0.7055  2.6033  2.3707
23773SOL     OW83042   4.486   0.825   2.021  0.6069  0.4982  0.2893
23773SOL    HW183043   4.557   0.771   1.986 -1.6751 -3.3947  1.1241
23773SOL    HW283044   4.481   0.801   2.113 -1.9703  0.3308  0.1713
23774SOL     OW83045   4.793   1.913   8.532 -0.2908 -0.2399  0.3439
23774SOL    HW183046   4.834   1.961   8.604 -1.4148  2.5255 -0.7300
23774SOL    HW283047   4.863   1.858   8.497  1.4306  1.4902  0.9209
23775SOL     OW83048   3.735   4.600   7.180 -0.2863 -0.0007 -0.3525
23775SOL    HW183049   3.679   4.616   7.256 -1.6081 -1.6091 -0.9150
23775SOL    HW283050   3.761   4.687   7.150 -0.4638  0.6958  1.3906
23776SOL     OW83051   4.615   5.860   2.509 -0.1412 -1.0067 -0.6348
23776SOL    HW183052   4.666   5.781   2.493 -0.8457 -1.3996 -0.9875
23776SOL    HW283053   4.628   5.878   2.602 -0.3086 -1.7794 -0.4521
23777SOL     OW83054   3.342  10.143   1.329 -0.7641 -1.1903 -0.1479
23777SOL    HW183055   3.280  10.216   1.340  0.2166  0.0780 -2.3556
23777SOL    HW283056   3.378  10.130   1.416 -1.7213  0.2848  0.5147
23778SOL     OW83057   6.031   3.042   1.627 -0.5361 -0.2663 -0.4808
23778SOL    HW183058   5.959   3.090   1.668  0.2489 -0.4737  1.2483
23778SOL    HW283059   6.110   3.084   1.662  0.1698 -1.9884  0.1127
23779SOL     OW83060   8.678   5.142   5.367  0.2230  0.3044 -0.1481
23779SOL    HW183061   8.697   5.145   5.460 -1.2277  0.7339  0.1630
23779SOL    HW283062   8.748   5.089   5.329 -0.3331 -1.6976  1.4783
23780SOL     OW83063   4.816  10.408   5.831  0.5851  0.1293  0.4957
23780SOL    HW183064   4.726  10.413   5.863 -0.4267 -0.8892 -1.9485
23780SOL    HW283065   4.856  10.490   5.861 -1.6894  1.4509  0.2026
23781SOL     OW83066   5.139   9.768   0.235 -0.0770  0.5318  0.0609
23781SOL    HW183067   5.165   9.812   0.153 -0.0205  0.7537  0.1964
23781SOL    HW283068   5.219   9.730   0.269  0.1687  1.6023  0.7121
23782SOL     OW83069  10.906   9.890   6.451 -0.0614 -0.2927 -0.4589
23782SOL    HW183070  10.962   9.829   6.500 -0.9759 -1.1776 -0.4678
23782SOL    HW283071  10.921   9.975   6.491  2.7501 -0.0960 -1.7036
23783SOL     OW83072   7.923   2.037   0.813  0.1624  0.1928 -0.1619
23783SOL    HW183073   7.962   2.066   0.895 -1.8120  1.8193  0.2658
23783SOL    HW283074   7.979   2.074   0.745  1.2262 -0.3253  0.4107
23784SOL     OW83075   9.798   6.383   0.609  0.4146 -1.2807 -0.0289
23784SOL    HW183076   9.768   6.342   0.690 -1.0340  0.7243  0.5374
23784SOL    HW283077   9.728   6.364   0.546  0.3440 -0.7717 -0.1065
23785SOL     OW83078   3.469   7.164   1.253  0.4866 -0.0405 -0.1365
23785SOL    HW183079   3.561   7.160   1.278  0.2111  0.3067  0.9916
23785SOL    HW283080   3.470   7.189   1.161  1.5105  0.3031 -0.0436
23786SOL     OW83081   6.435   1.229   0.482  0.6375 -0.0211  0.1071
23786SOL    HW183082   6.379   1.153   0.494  0.0684  0.0409 -1.8147
23786SOL    HW283083   6.516   1.206   0.527  0.2148 -1.4412  0.2024
23787SOL     OW83084   7.359   3.835   8.607  0.0878  0.3996  0.1178
23787SOL    HW183085   7.344   3.779   8.684  1.7632 -0.0134  0.1691
23787SOL    HW283086   7.278   3.826   8.556 -0.6095 -0.2015  1.2749
23788SOL     OW83087   7.309   0.269   2.912  0.0670  0.1059 -0.0084
23788SOL    HW183088   7.338   0.292   2.824 -2.8518 -1.4501 -1.5223
23788SOL    HW283089   7.375   0.206   2.943 -0.0140 -1.0574 -2.0431
23789SOL     OW83090   1.130   8.424  10.771 -0.4243  0.2935  0.0016
23789SOL    HW183091   1.052   8.450  10.723 -1.0711 -1.1594  0.2158
23789SOL    HW283092   1.131   8.480  10.848 -2.3593 -0.9103  0.9904
23790SOL     OW83093   9.670  11.483  10.578 -0.0669  0.0192 -0.0133
23790SOL    HW183094   9.710  11.531  10.506 -1.1452 -0.6552 -1.1088
23790SOL    HW283095   9.628  11.550  10.632  0.7029  0.5296 -0.0414
23791SOL     OW83096   1.717   5.399   5.273  0.2761  0.0305 -0.3615
23791SOL    HW183097   1.631   5.414   5.232  0.1316  0.7232  0.1763
23791SOL    HW283098   1.771   5.472   5.243  0.2210  0.4482  0.5183
23792SOL     OW83099   9.923   6.858   6.191 -0.0941  0.5298 -0.5131
23792SOL    HW183100   9.849   6.917   6.178 -0.2058  0.3844 -0.5352
23792SOL    HW283101   9.920   6.799   6.116 -2.0873 -1.7527  1.2416
23793SOL     OW83102   1.948   5.652   1.597 -0.6474 -0.3748 -0.7091
23793SOL    HW183103   1.921   5.563   1.619  1.2744 -0.6859  0.6712
23793SOL    HW283104   1.958   5.651   1.502 -2.6947 -0.9654 -0.9659
23794SOL     OW83105   5.272   4.562  11.359  0.9995  0.1269 -0.0456
23794SOL    HW183106   5.209   4.517  11.302  0.7505  1.5257 -0.9236
23794SOL    HW283107   5.355   4.556  11.311  1.2020 -0.3283  0.3553
23795SOL     OW83108   1.570   0.563   3.876 -0.0772  0.2166 -0.0414
23795SOL    HW183109   1.550   0.655   3.856  2.2753  0.5823 -0.9708
23795SOL    HW283110   1.485   0.526   3.903 -0.8617  2.9622  1.7154
23796SOL     OW83111   9.735   0.406   8.668 -0.1922 -0.0287  0.1078
23796SOL    HW183112   9.686   0.475   8.713 -2.0342 -1.5945  0.6224
23796SOL    HW283113   9.681   0.328   8.677  0.4546 -0.9542 -2.8814
23797SOL     OW83114   8.536  11.339  10.296  0.2296 -0.5336  0.5303
23797SOL    HW183115   8.571  11.417  10.338  2.5654 -1.2981  0.1525
23797SOL    HW283116   8.509  11.283  10.369 -1.6658  0.6309  0.7994
23798SOL     OW83117   5.279   8.547  11.203 -0.6412  0.5228  0.0262
23798SOL    HW183118   5.367   8.535  11.240  0.1205  0.7431 -1.5848
23798SOL    HW283119   5.239   8.460  11.208 -0.0032  0.2190  0.0416
23799SOL     OW83120  10.581   6.068   5.837 -0.1010  0.0920  0.1367
23799SOL    HW183121  10.595   6.025   5.922 -1.4918 -0.9367 -0.1149
23799SOL    HW283122  10.544   5.999   5.781  0.9185  0.7069 -1.3613
23800SOL     OW83123   6.520  10.228   7.418 -0.1383 -0.2704  0.1133
23800SOL    HW183124   6.589  10.231   7.484 -0.5391  1.5088  0.5190
23800SOL    HW283125   6.446  10.274   7.459 -0.8594 -0.3553 -1.0576
23801SOL     OW83126   0.787   2.564   5.066  0.0744 -0.0553  0.1664
23801SOL    HW183127   0.792   2.608   4.982 -0.0099 -0.1720  0.0995
23801SOL    HW283128   0.764   2.473   5.044  0.9736 -0.3146  0.2542
23802SOL     OW83129  11.254   5.190   4.245 -0.2632  0.2556  0.0095
23802SOL    HW183130  11.300   5.242   4.179 -0.9666  1.6009  0.5248
23802SOL    HW283131  11.218   5.255   4.306 -1.2405 -0.8394  0.6606
23803SOL     OW83132  11.564   6.497   6.881  0.4268 -0.0691 -0.5822
23803SOL    HW183133  11.517   6.502   6.797 -1.2165 -3.8948 -0.1039
23803SOL    HW283134  11.506   6.541   6.943  1.2623  2.0323 -1.1708
23804SOL     OW83135   7.413  10.115   2.325 -0.0130 -0.8274 -0.3910
23804SOL    HW183136   7.398  10.209   2.331 -0.4499 -0.9805  2.1408
23804SOL    HW283137   7.328  10.076   2.346  0.5185 -1.7864  0.0564
23805SOL     OW83138   5.464   4.686   1.267 -0.0210 -0.6458  0.1367
23805SOL    HW183139   5.534   4.667   1.204 -0.3872 -0.5957 -0.2887
23805SOL    HW283140   5.385   4.690   1.214 -0.3910 -0.9894  0.6555
23806SOL     OW83141   7.120   4.485   9.380 -0.5309  0.6963 -0.3590
23806SOL    HW183142   7.187   4.539   9.423  0.1645  0.0181 -0.5651
23806SOL    HW283143   7.126   4.400   9.424 -1.2812  0.6310 -0.3643
23807SOL     OW83144  10.622   4.634  11.854 -0.1948 -0.4198 -0.1563
23807SOL    HW183145  10.607   4.726  11.830 -1.3632 -0.8023 -0.9649
23807SOL    HW283146  10.665   4.596  11.777 -1.9564 -1.1205 -0.8323
23808SOL     OW83147   1.482   7.772   9.775  0.3855 -0.2876  0.4394
23808SOL    HW183148   1.558   7.737   9.822  0.6122  1.1032  1.1467
23808SOL    HW283149   1.516   7.791   9.687  0.8219  0.2085  0.7134
23809SOL     OW83150   6.946   2.825   7.262  0.0411 -0.0106 -0.3780
23809SOL    HW183151   6.946   2.793   7.172  0.0466 -1.4888  0.1131
23809SOL    HW283152   6.896   2.760   7.310  1.0486  0.1119  0.8913
23810SOL     OW83153   0.091   7.230   4.444  0.9404  0.4621  0.1373
23810SOL    HW183154   0.043   7.223   4.361  0.3919 -0.1836  0.4962
23810SOL    HW283155   0.163   7.289   4.425  0.8847  0.2376 -0.8369
23811SOL     OW83156   5.706   8.617   1.575 -0.1614  0.0806 -0.4374
23811SOL    HW183157   5.664   8.578   1.499 -0.7159  0.2036 -0.2035
23811SOL    HW283158   5.667   8.571   1.650  0.8354 -0.4771 -0.2451
23812SOL     OW83159   0.519   7.724  10.043 -0.1604 -0.2628 -0.3815
23812SOL    HW183160   0.569   7.675   9.977  0.3637 -3.8272  2.3747
23812SOL    HW283161   0.439   7.751   9.997 -0.0882 -3.0192 -2.4012
23813SOL     OW83162   1.926   0.948   8.354 -0.1117  0.7951 -0.4596
23813SOL    HW183163   1.927   0.861   8.396 -0.8603 -0.3484 -2.6326
23813SOL    HW283164   1.851   0.992   8.394 -0.4491 -0.0129 -0.1583
23814SOL     OW83165   6.056   3.121   9.536  0.0659  0.1598  0.0946
23814SOL    HW183166   6.139   3.169   9.532 -0.4202  0.9754 -0.5740
23814SOL    HW283167   6.021   3.139   9.623 -0.4072  1.5463 -0.3644
23815SOL     OW83168   1.077   5.409   7.287 -0.3248  0.3334  0.3473
23815SOL    HW183169   1.160   5.457   7.277 -0.5365  0.6074 -0.1033
23815SOL    HW283170   1.103   5.317   7.284 -0.2895  0.3640 -2.2778
23816SOL     OW83171   3.114   1.871   5.983  0.0633  0.4557 -0.2223
23816SOL    HW183172   3.149   1.810   6.048 -1.1233 -0.6037 -0.5263
23816SOL    HW283173   3.181   1.939   5.975  1.6334 -1.0109 -0.1689
23817SOL     OW83174  11.491   1.828   7.298  0.2996 -0.2087 -0.1634
23817SOL    HW183175  11.403   1.846   7.265  0.4194  0.3564 -0.1769
23817SOL    HW283176  11.536   1.912   7.293  1.7449 -0.9999 -2.8851
23818SOL     OW83177   7.651   1.086   0.700  0.0176  0.0598  0.2246
23818SOL    HW183178   7.659   1.015   0.764 -0.6992 -1.1256 -0.9498
23818SOL    HW283179   7.654   1.042   0.615  2.8323  1.7179 -0.6915
23819SOL     OW83180   9.252  10.738   4.719 -1.0258  0.6865  0.1139
23819SOL    HW183181   9.235  10.832   4.728 -0.5141  0.8936 -0.8315
23819SOL    HW283182   9.288  10.729   4.630  0.3813 -0.1838  0.7285
23820SOL     OW83183   8.988  11.195   0.607  0.3675 -0.6380 -0.1328
23820SOL    HW183184   8.995  11.288   0.586 -0.8521 -0.3529  0.6177
23820SOL    HW283185   8.903  11.169   0.572  1.2731 -1.8463 -1.5905
23821SOL     OW83186  10.346   5.622   4.008 -0.3516  0.4775 -0.6115
23821SOL    HW183187  10.429   5.574   4.005 -1.4034 -1.4937 -0.2406
23821SOL    HW283188  10.279   5.554   4.001 -1.9643  1.8509  0.5305
23822SOL     OW83189   5.033   6.279   9.236  0.7160 -0.1222 -0.0243
23822SOL    HW183190   4.971   6.302   9.167 -1.6582 -1.6825  1.4433
23822SOL    HW283191   5.080   6.202   9.203 -0.5537 -0.9886  0.1337
23823SOL     OW83192   6.485   9.371   8.106 -0.1638 -0.6622  0.2794
23823SOL    HW183193   6.491   9.407   8.017 -1.8230  2.4676  1.2892
23823SOL    HW283194   6.400   9.328   8.110 -0.3534 -0.2632  0.5354
23824SOL     OW83195   8.604   1.964   7.443  0.2506  0.2300  0.1596
23824SOL    HW183196   8.513   1.992   7.450  0.5688  0.9952  1.6489
23824SOL    HW283197   8.599   1.871   7.422 -0.8736  0.3800 -0.2792
23825SOL     OW83198   8.011   7.783   6.371 -0.1914 -0.5321 -0.0215
23825SOL    HW183199   7.946   7.749   6.309 -1.0564  0.8025  0.1288
23825SOL    HW283200   8.075   7.712   6.379 -2.1106 -2.2844  0.5741
23826SOL     OW83201   0.325   0.026   5.434  0.2905  0.0533  0.1000
23826SOL    HW183202   0.282   0.049   5.516  1.3027  0.9561  0.4002
23826SOL    HW283203   0.362  -0.061   5.450 -0.0144 -0.0253  0.3944
23827SOL     OW83204  11.596   1.799   0.709  0.1307 -0.1578 -0.5193
23827SOL    HW183205  11.650   1.720   0.705  0.2776 -0.0817 -0.0783
23827SOL    HW283206  11.519   1.779   0.656 -0.1265 -0.8197  0.0935
23828SOL     OW83207   7.923   1.872   7.906 -0.1203  0.1239 -0.5321
23828SOL    HW183208   7.855   1.805   7.901 -2.2042  1.7702  2.6562
23828SOL    HW283209   7.882   1.950   7.868  0.3765  0.8398  0.3670
23829SOL     OW83210   6.901   6.009   8.208 -0.0458  0.0220 -0.0108
23829SOL    HW183211   6.869   5.920   8.221 -1.4900  0.4339 -0.5673
23829SOL    HW283212   6.952   6.005   8.127 -0.0811 -0.3145 -0.0158
23830SOL     OW83213   2.115   6.991   5.774 -0.7281  0.2275  0.1980
23830SOL    HW183214   2.111   6.896   5.769  0.2695  0.2291 -1.0939
23830SOL    HW283215   2.196   7.010   5.821  0.4671  0.4271 -1.8414
23831SOL     OW83216   7.529   1.541   2.164  0.0560 -0.1749 -0.3588
23831SOL    HW183217   7.445   1.537   2.210  0.3217 -0.3148  0.1139
23831SOL    HW283218   7.589   1.581   2.227  0.1074  0.8782 -1.0533
23832SOL     OW83219  10.454   0.573   2.684  0.2177 -0.0266  0.0214
23832SOL    HW183220  10.502   0.490   2.692  2.5906  1.3306  1.4089
23832SOL    HW283221  10.520   0.635   2.652 -1.3652  1.4434 -0.5341
23833SOL     OW83222   7.807  11.145  11.169  0.3034  0.1704 -0.4435
23833SOL    HW183223   7.712  11.159  11.165  0.0754 -1.3085 -0.6307
23833SOL    HW283224   7.843  11.233  11.180 -0.8630  1.2005 -3.6633
23834SOL     OW83225   7.310   0.583   1.980 -0.2063 -0.0531 -0.1560
23834SOL    HW183226   7.327   0.647   1.911  0.7228 -0.5987 -0.4666
23834SOL    HW283227   7.393   0.535   1.988 -0.7142 -0.8603  0.4261
23835SOL     OW83228   0.842   7.455   6.581 -0.0082  0.3430  0.4619
23835SOL    HW183229   0.891   7.440   6.662  0.2214  1.5790  0.5737
23835SOL    HW283230   0.752   7.470   6.610  0.0252  0.5337  0.4662
23836SOL     OW83231   5.645   3.244   9.310 -0.1289  0.0380  0.1334
23836SOL    HW183232   5.624   3.330   9.273  0.2303 -0.0095 -0.1803
23836SOL    HW283233   5.641   3.258   9.405 -4.7489 -0.6810  0.3027
23837SOL     OW83234   3.467  10.689   8.506  0.4104 -0.2352 -1.4037
23837SOL    HW183235   3.560  10.711   8.495  0.8295 -0.8294  0.5028
23837SOL    HW283236   3.430  10.764   8.553  0.3874 -0.7882 -0.5087
23838SOL     OW83237   3.395   8.680   2.793 -0.1299 -0.6148  0.0275
23838SOL    HW183238   3.367   8.589   2.785 -0.2889 -0.5097 -0.6777
23838SOL    HW283239   3.483   8.681   2.755 -0.9085 -0.0972 -1.8616
23839SOL     OW83240   2.253   0.588   4.945  0.7741  0.2558 -0.5210
23839SOL    HW183241   2.175   0.551   4.905  0.0847  1.0174  0.0905
23839SOL    HW283242   2.232   0.596   5.038  0.3885  3.2822 -0.7526
23840SOL     OW83243   4.329   9.223  11.878  0.3443  0.2907  0.1151
23840SOL    HW183244   4.300   9.291  11.817 -0.1725  0.2279  0.2924
23840SOL    HW283245   4.330   9.143  11.826 -0.0806  0.2404  0.1862
23841SOL     OW83246  10.613   4.809   7.871 -0.1625 -0.2186 -0.4345
23841SOL    HW183247  10.649   4.727   7.838  0.5385  0.2334 -0.8135
23841SOL    HW283248  10.672   4.877   7.838 -0.6376  0.4276  0.0064
23842SOL     OW83249   6.187  11.129   7.751  0.2770 -0.0198 -0.2935
23842SOL    HW183250   6.109  11.152   7.701 -0.0358  1.5584  0.8599
23842SOL    HW283251   6.249  11.097   7.685 -1.1512 -0.8830 -1.2827
23843SOL     OW83252   3.670   2.392   9.220  0.2344  0.0396 -0.6087
23843SOL    HW183253   3.658   2.455   9.148  0.9622  0.9295  0.0196
23843SOL    HW283254   3.759   2.407   9.250 -0.4402  0.5404  1.2568
23844SOL     OW83255   9.628   4.702   7.931 -0.5564 -0.5346 -0.7450
23844SOL    HW183256   9.578   4.716   8.012 -0.3292 -2.8344 -0.1502
23844SOL    HW283257   9.699   4.766   7.935 -1.7730  0.8388 -0.2095
23845SOL     OW83258   1.193   6.776   4.655  0.0572 -0.1908 -0.4307
23845SOL    HW183259   1.225   6.864   4.676 -2.5229  1.1573 -1.6086
23845SOL    HW283260   1.198   6.728   4.737 -0.4975  1.7734  0.8244
23846SOL     OW83261   3.341   9.266   7.842  0.5893  0.3467  0.5480
23846SOL    HW183262   3.277   9.306   7.901 -1.2666 -0.1996 -1.0184
23846SOL    HW283263   3.369   9.337   7.784 -1.0075 -0.0591 -0.7781
23847SOL     OW83264   3.864   1.469   7.125  0.2135 -0.3232  0.2170
23847SOL    HW183265   3.887   1.499   7.037  1.7029 -0.2629  0.5991
23847SOL    HW283266   3.784   1.517   7.147 -1.4704 -1.9472 -1.9368
23848SOL     OW83267   3.356  10.370   9.676  0.1613 -0.2087  0.2092
23848SOL    HW183268   3.424  10.422   9.719 -0.0659 -0.7103  1.2072
23848SOL    HW283269   3.349  10.291   9.730 -1.1495 -0.2053  0.0770
23849SOL     OW83270   3.384  11.601   5.827 -0.2730  0.4390 -0.4515
23849SOL    HW183271   3.360  11.678   5.775 -0.9502 -0.2119 -1.1417
23849SOL    HW283272   3.317  11.536   5.805 -0.2220 -0.0606  0.7939
23850SOL     OW83273   5.983   9.260   9.839  0.5116  0.6304 -0.1670
23850SOL    HW183274   5.969   9.169   9.867  0.4530  1.1251  1.4989
23850SOL    HW283275   6.001   9.308   9.920 -0.9375  2.3954 -0.8197
23851SOL     OW83276   2.250   5.414   6.244 -0.6143 -0.1454  0.4083
23851SOL    HW183277   2.228   5.463   6.165  0.1198 -0.6497 -0.1232
23851SOL    HW283278   2.218   5.325   6.228  0.6379 -0.5706  0.1420
23852SOL     OW83279   0.325  10.675   9.318  0.3498 -0.1120  0.5473
23852SOL    HW183280   0.387  10.681   9.391 -2.0776  0.9205  2.7042
23852SOL    HW283281   0.346  10.750   9.263  2.1202 -0.8083  0.1833
23853SOL     OW83282   6.159   5.478   7.257  0.2319 -0.0953  0.0392
23853SOL    HW183283   6.143   5.393   7.298 -1.1136 -0.1913 -0.6266
23853SOL    HW283284   6.085   5.490   7.197  1.3049  0.7447 -1.1868
23854SOL     OW83285   9.559   0.451   6.400  0.0721 -0.0568  0.4088
23854SOL    HW183286   9.593   0.393   6.468 -0.0690 -1.3018 -0.5417
23854SOL    HW283287   9.617   0.437   6.325  0.4422  1.5626  0.3585
23855SOL     OW83288   1.699   6.190   1.592  0.0291 -0.1300 -0.6630
23855SOL    HW183289   1.623   6.165   1.539 -0.9701 -1.4526  1.2676
23855SOL    HW283290   1.745   6.107   1.609 -0.6679 -0.0529  1.9190
23856SOL     OW83291   6.726   9.389   8.274  0.0827  0.0331  0.3602
23856SOL    HW183292   6.672   9.334   8.217 -0.6275  0.7202  0.3665
23856SOL    HW283293   6.801   9.413   8.220  0.8413 -1.6104  0.6148
23857SOL     OW83294   3.995  11.248   3.378  0.5295  0.3218 -0.6697
23857SOL    HW183295   4.050  11.320   3.348  0.5199 -0.2869 -2.2204
23857SOL    HW283296   3.979  11.196   3.300 -0.5897 -0.6241  0.1599
23858SOL     OW83297   7.276   1.984   0.739 -0.3823  0.3445  0.3503
23858SOL    HW183298   7.300   1.949   0.825 -2.0488  0.2006  0.7937
23858SOL    HW283299   7.227   1.913   0.698  0.1278  0.5325 -0.6022
23859SOL     OW83300   0.154   0.304   0.238 -0.0886 -0.2856  0.2839
23859SOL    HW183301   0.161   0.374   0.303 -2.5736 -1.0768  1.5168
23859SOL    HW283302   0.244   0.286   0.212  0.7367  2.2696  1.0848
23860SOL     OW83303   6.256  11.743   2.933 -0.0449 -0.2686 -0.6779
23860SOL    HW183304   6.170  11.760   2.894  0.5565  0.0625 -1.9240
23860SOL    HW283305   6.304  11.693   2.866  0.8596 -0.1305 -0.1596
23861SOL     OW83306   3.195   4.107   3.464 -0.4059 -0.0852  0.3998
23861SOL    HW183307   3.263   4.060   3.415 -1.8501 -2.1641  0.2812
23861SOL    HW283308   3.119   4.105   3.407 -0.9563  1.0576  1.0781
23862SOL     OW83309   4.979   9.804   6.849 -0.1009  0.6401  0.4562
23862SOL    HW183310   4.966   9.713   6.821  0.3540  0.8479 -0.4802
23862SOL    HW283311   5.006   9.797   6.940  1.0847 -0.2635  0.0737
23863SOL     OW83312   0.766   0.527   4.464  0.0466 -0.0807 -0.3286
23863SOL    HW183313   0.837   0.575   4.421  0.0004  0.6365  0.3625
23863SOL    HW283314   0.784   0.537   4.557 -1.3290  0.7063 -0.1153
23864SOL     OW83315   2.074   4.811   9.449 -0.4472 -0.2697 -0.0764
23864SOL    HW183316   2.067   4.894   9.496 -0.0997  0.0264 -0.5431
23864SOL    HW283317   2.045   4.830   9.360 -0.9625 -0.7955 -0.0304
23865SOL     OW83318   0.893   0.873   4.116  0.0409 -0.3366  0.0628
23865SOL    HW183319   0.897   0.825   4.034 -1.1224  2.0932 -1.5198
23865SOL    HW283320   0.985   0.888   4.139  0.4047 -0.2147 -1.3544
23866SOL     OW83321   6.019   8.068   0.011 -0.4163 -0.0317  0.0169
23866SOL    HW183322   6.046   8.029  -0.072 -0.5241 -0.0702 -0.0014
23866SOL    HW283323   5.996   8.158  -0.011 -0.9748 -0.1970 -0.1018
23867SOL     OW83324   2.461   5.768   2.889  0.0047 -0.2445  0.5832
23867SOL    HW183325   2.497   5.750   2.976 -1.5783 -1.2992  1.0716
23867SOL    HW283326   2.367   5.781   2.904 -0.0074  1.6871 -0.7118
23868SOL     OW83327   3.226   4.153   0.754  0.2990  0.2779 -0.4284
23868SOL    HW183328   3.140   4.163   0.712  0.5679 -0.8639 -1.2842
23868SOL    HW283329   3.252   4.243   0.775  0.1977  0.9397 -2.8167
23869SOL     OW83330   0.056   4.987   4.815 -0.2639  0.0260  0.0435
23869SOL    HW183331   0.012   5.044   4.752 -1.8545 -0.7306  0.4272
23869SOL    HW283332   0.017   4.901   4.801  0.0753 -0.3657  1.3674
23870SOL     OW83333   6.807   4.944   8.854  0.9502  1.0078  0.1765
23870SOL    HW183334   6.797   4.980   8.766 -2.1776  1.8388  0.7679
23870SOL    HW283335   6.732   4.887   8.867  0.8576  1.5337  2.5772
23871SOL     OW83336   6.383   2.264   4.036 -0.0358 -0.5934 -0.5769
23871SOL    HW183337   6.455   2.262   4.098  0.3029  0.5405 -0.9095
23871SOL    HW283338   6.305   2.282   4.089 -0.1415 -2.0899 -0.1809
23872SOL     OW83339   8.788   8.659   4.495 -0.1472  0.0765 -0.2535
23872SOL    HW183340   8.769   8.569   4.520 -0.3964  0.2437  0.1767
23872SOL    HW283341   8.883   8.668   4.505 -0.1348 -0.1095 -0.2060
23873SOL     OW83342   3.309  11.702   8.677 -0.3078 -0.1728  0.3240
23873SOL    HW183343   3.375  11.646   8.636 -1.9878 -0.7986 -1.6737
23873SOL    HW283344   3.291  11.661   8.762 -0.9850 -2.3206 -0.7964
23874SOL     OW83345   3.863   0.040   9.133 -0.1813 -0.1101  0.1243
23874SOL    HW183346   3.770   0.015   9.127  0.3527 -2.3600  0.2756
23874SOL    HW283347   3.867   0.126   9.092 -1.8447 -1.2854 -2.8744
23875SOL     OW83348  11.873   6.141   9.125  0.1739 -0.1170 -0.1609
23875SOL    HW183349  11.896   6.221   9.173 -0.4381 -0.5234  0.8304
23875SOL    HW283350  11.946   6.128   9.064  0.5109  0.9292 -0.0077
23876SOL     OW83351   5.173   3.872   6.565 -0.4946  0.6809  0.0758
23876SOL    HW183352   5.206   3.920   6.489 -0.4929  0.3796 -0.1143
23876SOL    HW283353   5.232   3.897   6.637  0.1558  0.1377 -0.2623
23877SOL     OW83354   9.909   1.706   0.362 -0.0022  0.4827  0.3457
23877SOL    HW183355  10.000   1.736   0.363  0.0024  0.5011 -0.3059
23877SOL    HW283356   9.863   1.773   0.311 -0.2200  0.0154 -0.0671
23878SOL     OW83357   6.952   9.358   6.934 -0.2256  0.6146 -0.1707
23878SOL    HW183358   6.873   9.311   6.960  0.0241  1.1187  1.6779
23878SOL    HW283359   6.971   9.415   7.008  3.5225 -1.5741  0.8105
23879SOL     OW83360   5.687  10.829  11.576  0.7755  0.2330  0.0397
23879SOL    HW183361   5.617  10.787  11.627  1.4192 -0.7900  0.1092
23879SOL    HW283362   5.645  10.905  11.536 -0.7371 -1.0560 -0.9526
23880SOL     OW83363  10.806   3.489   3.887  0.3786  0.4117 -0.4321
23880SOL    HW183364  10.743   3.556   3.913  0.6031  0.8959 -1.0987
23880SOL    HW283365  10.886   3.512   3.933  0.0762 -0.2189  0.4356
23881SOL     OW83366   7.199   6.248   6.328 -0.5283 -0.7332 -0.0353
23881SOL    HW183367   7.251   6.186   6.276  0.7458  1.1220 -1.0895
23881SOL    HW283368   7.263   6.294   6.382 -0.7081  2.5018 -2.2818
23882SOL     OW83369   6.679   6.628   5.687  0.1490  0.5898  0.1364
23882SOL    HW183370   6.585   6.636   5.703  0.1065 -0.7170  0.6382
23882SOL    HW283371   6.698   6.695   5.622 -1.1795  0.7061 -0.1563
23883SOL     OW83372   6.755   7.475  11.338  0.2555  0.1632  0.4097
23883SOL    HW183373   6.813   7.520  11.276  0.5733  0.9898  1.2817
23883SOL    HW283374   6.811   7.455  11.413 -0.4975  0.6773  1.1219
23884SOL     OW83375   4.807  10.986  11.354 -0.2470 -0.1560 -0.4411
23884SOL    HW183376   4.867  10.912  11.355  0.4096  0.3664  1.2221
23884SOL    HW283377   4.720  10.946  11.345  0.0536 -1.1825  0.8654
23885SOL     OW83378   6.158  11.734  11.593  0.4829 -0.0712 -0.6376
23885SOL    HW183379   6.179  11.698  11.679  1.2374 -2.2748 -1.6673
23885SOL    HW283380   6.226  11.799  11.577 -1.9818  3.5871  2.0757
23886SOL     OW83381   3.847   3.155   6.444 -0.0879 -0.2089  0.2906
23886SOL    HW183382   3.860   3.248   6.461 -0.0094 -0.1605 -0.0193
23886SOL    HW283383   3.891   3.110   6.516  1.9961 -0.0589 -0.7827
23887SOL     OW83384   5.786   6.575  11.465  0.0384  0.1615 -0.3329
23887SOL    HW183385   5.873   6.580  11.504  0.1283  1.9009 -0.7094
23887SOL    HW283386   5.756   6.665  11.460 -2.1500 -0.4564  0.5248
23888SOL     OW83387   3.380   1.453   5.924  0.0697  0.3243  0.1610
23888SOL    HW183388   3.343   1.496   5.847  0.8539  1.5342  0.4284
23888SOL    HW283389   3.375   1.360   5.904  1.0207  0.6250 -1.7219
23889SOL     OW83390   5.921   9.674   8.296 -0.2946 -0.2113  0.3213
23889SOL    HW183391   5.890   9.728   8.224 -2.7068  3.2440  3.6007
23889SOL    HW283392   5.845   9.622   8.322  0.7558 -1.9807  0.0674
23890SOL     OW83393   4.180   9.525   7.964 -0.1486 -0.4980  0.3000
23890SOL    HW183394   4.260   9.505   8.012 -1.0057 -0.9016  1.6002
23890SOL    HW283395   4.122   9.566   8.028 -0.7690  0.3365 -0.7715
23891SOL     OW83396   8.641   4.919   2.093  0.1516 -0.5670  0.0830
23891SOL    HW183397   8.670   5.008   2.071 -1.3611  0.1104  0.6644
23891SOL    HW283398   8.632   4.920   2.188 -3.5521 -0.0529 -0.1254
23892SOL     OW83399   4.915   4.377   2.960 -0.1884  0.6341  0.0387
23892SOL    HW183400   4.891   4.288   2.987 -1.1954  0.6424 -0.7780
23892SOL    HW283401   4.976   4.407   3.028 -0.3815 -0.4200  0.6999
23893SOL     OW83402   5.982  11.029   3.709 -0.5610 -0.8537 -0.0995
23893SOL    HW183403   5.961  10.940   3.738 -2.2381 -0.9418 -1.4470
23893SOL    HW283404   5.982  11.024   3.613 -0.0725  0.4761 -0.1929
23894SOL     OW83405   9.712   2.279  10.518  0.6487  0.7379 -0.1025
23894SOL    HW183406   9.787   2.228  10.485  0.5260  0.5914 -0.1539
23894SOL    HW283407   9.650   2.213  10.548  0.4620  0.8563 -0.2295
23895SOL     OW83408  10.642   8.507   7.359  0.5149  0.1142  0.0750
23895SOL    HW183409  10.662   8.446   7.288 -0.5430 -1.3277  0.9878
23895SOL    HW283410  10.655   8.457   7.439 -0.7612  0.9571  0.8423
23896SOL     OW83411   6.907   5.804  11.638  0.2658  0.0930  0.2898
23896SOL    HW183412   6.907   5.899  11.624 -1.0052  0.1726  0.7002
23896SOL    HW283413   6.976   5.771  11.580  0.4467  1.2171 -0.1629
23897SOL     OW83414  10.222   4.817   6.706  0.2498  0.3900 -0.3256
23897SOL    HW183415  10.314   4.827   6.732 -0.0549  1.5331  0.4072
23897SOL    HW283416  10.173   4.829   6.788 -0.4602 -3.5120  0.0048
23898SOL     OW83417   5.706   7.023   1.583  0.6832 -0.4142  0.2267
23898SOL    HW183418   5.684   7.008   1.675  0.6469 -0.4392  0.2142
23898SOL    HW283419   5.771   6.957   1.563  1.6861  0.4292  0.6019
23899SOL     OW83420   8.026   5.558   2.531  0.7489 -0.2791  1.1768
23899SOL    HW183421   8.017   5.623   2.601 -0.8085 -0.5383  1.2493
23899SOL    HW283422   7.966   5.487   2.556  2.9478 -2.1420  1.5023
23900SOL     OW83423   1.702   9.832   5.923  0.3440  0.1067  0.5705
23900SOL    HW183424   1.654   9.807   5.844  0.9460 -1.0564  0.5440
23900SOL    HW283425   1.638   9.825   5.993 -0.5724  2.4543  0.0749
23901SOL     OW83426   3.156   1.940   6.706 -0.1592 -0.6241 -0.4512
23901SOL    HW183427   3.131   1.882   6.634 -1.5712 -0.4847 -0.1054
23901SOL    HW283428   3.116   1.900   6.784  0.7501 -0.3921  0.1467
23902SOL     OW83429   4.797   5.874  10.535  0.5477 -0.4524 -0.2956
23902SOL    HW183430   4.716   5.831  10.564 -0.3154  1.1112 -0.2479
23902SOL    HW283431   4.850   5.881  10.615 -0.8460  1.7581  0.5237
23903SOL     OW83432   5.685   3.161   8.240  0.3456  0.3575  0.0297
23903SOL    HW183433   5.683   3.130   8.150 -0.3546 -1.0383  0.4935
23903SOL    HW283434   5.759   3.222   8.243  0.7723 -0.0644 -1.3200
23904SOL     OW83435   4.329   5.141   6.948  0.3863  0.1352  0.1102
23904SOL    HW183436   4.331   5.178   6.860  2.2712  0.4416  0.2506
23904SOL    HW283437   4.261   5.191   6.993  1.0349  1.6114 -0.4888
23905SOL     OW83438   1.547   4.220   0.251  0.0398  0.1266 -0.4041
23905SOL    HW183439   1.503   4.136   0.266 -0.5646  0.8903  2.9596
23905SOL    HW283440   1.516   4.249   0.165 -1.7361 -1.9072 -0.5322
23906SOL     OW83441  11.227   4.809   8.642  0.4570 -0.3459 -0.0498
23906SOL    HW183442  11.225   4.724   8.686  0.5107 -0.0451  0.5340
23906SOL    HW283443  11.319   4.820   8.615  0.5329 -0.2871  0.2330
23907SOL     OW83444   3.237   5.898  10.155  0.2815 -0.3200  0.2973
23907SOL    HW183445   3.210   5.929  10.241 -2.4091 -1.2980 -0.0962
23907SOL    HW283446   3.193   5.957  10.094 -0.3265 -1.4302 -0.3816
23908SOL     OW83447   8.683   2.666   9.731 -0.3069 -0.1635  0.0074
23908SOL    HW183448   8.684   2.761   9.715  0.6020 -0.1360  0.1765
23908SOL    HW283449   8.597   2.638   9.701 -0.5489  0.7023 -0.1447
23909SOL     OW83450   7.653   5.963   2.295 -0.0988 -0.5971 -0.1427
23909SOL    HW183451   7.566   5.933   2.267  0.0325  1.0230 -2.6945
23909SOL    HW283452   7.714   5.920   2.234  0.2714  2.7445 -2.4029
23910SOL     OW83453   0.416   1.240   3.099 -0.4678 -0.2337  0.1510
23910SOL    HW183454   0.323   1.231   3.120 -0.6482 -1.3536 -1.0071
23910SOL    HW283455   0.422   1.324   3.053 -0.7599  0.2259  0.9382
23911SOL     OW83456   7.696   0.895   4.259 -0.5995  0.0772  0.2257
23911SOL    HW183457   7.637   0.944   4.317 -1.0893  0.2046 -0.3777
23911SOL    HW283458   7.760   0.959   4.229  0.4095 -0.2426  1.5780
23912SOL     OW83459  10.222   5.932   1.791 -0.3300 -0.0012 -0.3520
23912SOL    HW183460  10.260   5.877   1.722 -0.0885 -0.4325  0.1156
23912SOL    HW283461  10.155   5.876   1.831  0.3291 -0.1774  0.5202
23913SOL     OW83462   0.654   8.712   5.550 -0.4436 -0.1082 -0.1184
23913SOL    HW183463   0.678   8.802   5.531 -1.0840 -0.4299 -2.7780
23913SOL    HW283464   0.729   8.677   5.598  1.2052  0.9923 -1.7455
23914SOL     OW83465  10.205   0.430   9.377  0.2554  0.5306 -0.2730
23914SOL    HW183466  10.161   0.420   9.293  1.6583 -1.0197 -0.8814
23914SOL    HW283467  10.272   0.498   9.361  3.0769 -2.3092 -1.6565
23915SOL     OW83468   6.539   6.393   3.329  0.6122 -0.0658 -0.7271
23915SOL    HW183469   6.620   6.369   3.285 -0.0873 -1.6733 -1.2218
23915SOL    HW283470   6.567   6.437   3.409  1.9616 -0.3746 -1.0064
23916SOL     OW83471   3.881   0.868   8.206  0.9180  0.3850 -0.1663
23916SOL    HW183472   3.878   0.916   8.289  2.0176 -1.1443  0.8154
23916SOL    HW283473   3.801   0.815   8.206  0.5125  0.9795 -0.4932
23917SOL     OW83474   7.410   5.458   5.381  0.2786  0.2121 -0.0958
23917SOL    HW183475   7.485   5.423   5.428  0.0843 -0.0590  0.0142
23917SOL    HW283476   7.434   5.452   5.289  1.1775  1.9021 -0.0165
23918SOL     OW83477   3.515   4.747   7.358  0.0204 -0.5307  0.3235
23918SOL    HW183478   3.555   4.834   7.366  2.0511 -1.3301 -0.3895
23918SOL    HW283479   3.510   4.715   7.448  1.6346 -0.6397  0.4093
23919SOL     OW83480   7.172   7.332   1.578 -0.3214 -0.3553 -0.0970
23919SOL    HW183481   7.112   7.286   1.637 -1.4096  1.3087  0.1682
23919SOL    HW283482   7.120   7.347   1.498  0.4245 -0.6812 -0.6499
23920SOL     OW83483   9.781   3.236   8.630  0.2085 -0.0171 -0.4340
23920SOL    HW183484   9.781   3.215   8.536 -0.5177  0.1970 -0.4895
23920SOL    HW283485   9.751   3.155   8.672 -2.4166  0.7656 -0.6347
23921SOL     OW83486  10.854   3.228   3.590 -0.6369 -0.4835 -0.0418
23921SOL    HW183487  10.874   3.148   3.541 -0.4079 -1.3620  1.3923
23921SOL    HW283488  10.939   3.259   3.621 -0.7137  0.4062 -0.7158
23922SOL     OW83489  10.304   0.438  11.229 -0.4405  0.0954  0.3599
23922SOL    HW183490  10.229   0.495  11.241  0.1747  1.3399 -1.2558
23922SOL    HW283491  10.380   0.497  11.228  0.1125 -0.4969 -2.5171
23923SOL     OW83492  10.716   3.340   9.012  0.3253  0.1824  0.0289
23923SOL    HW183493  10.703   3.253   9.049  0.1660 -0.1461 -0.7754
23923SOL    HW283494  10.797   3.333   8.962 -0.7183 -0.1269 -1.7458
23924SOL     OW83495   7.417   9.510   8.626 -0.4363 -0.8094  0.3392
23924SOL    HW183496   7.343   9.549   8.673 -0.7621 -0.5112 -0.3992
23924SOL    HW283497   7.495   9.551   8.664 -0.6001 -1.5395  1.5186
23925SOL     OW83498  10.292   1.670   5.880 -0.2487  0.0313  0.2513
23925SOL    HW183499  10.308   1.629   5.794  1.8231 -1.0494  1.0805
23925SOL    HW283500  10.269   1.597   5.937  0.6999  0.3890  1.1258
23926SOL     OW83501   5.353   7.312   3.797  0.2347  0.4585  0.0545
23926SOL    HW183502   5.349   7.407   3.787  0.2834  0.3776 -0.8672
23926SOL    HW283503   5.328   7.296   3.888  0.0480  1.3385  0.1682
23927SOL     OW83504   2.252   0.921  10.542  0.0422  0.0046 -0.3388
23927SOL    HW183505   2.279   0.872  10.464 -0.0988 -0.7210  0.0581
23927SOL    HW283506   2.300   0.879  10.614 -0.2686  0.2915  0.0382
23928SOL     OW83507   2.766   1.089   8.977 -0.3888  0.3680  0.3844
23928SOL    HW183508   2.803   1.023   8.919  1.0282  2.1834 -0.8916
23928SOL    HW283509   2.684   1.050   9.008 -1.0061 -0.8734 -2.5007
23929SOL     OW83510   8.144   1.496   3.659 -0.3457 -0.0927 -0.1649
23929SOL    HW183511   8.097   1.574   3.689  0.4655  1.3835 -2.4829
23929SOL    HW283512   8.137   1.435   3.732 -1.8240  1.7813  1.3844
23930SOL     OW83513   1.989   9.378   5.839 -0.1778 -0.8007  0.2510
23930SOL    HW183514   1.977   9.472   5.847  0.5013 -0.6692 -0.2393
23930SOL    HW283515   2.073   9.360   5.881 -0.2501 -1.1718  0.2450
23931SOL     OW83516   8.385   0.406   5.843  0.2454  0.6158  0.7888
23931SOL    HW183517   8.352   0.366   5.762  1.2191  0.2952  0.5351
23931SOL    HW283518   8.325   0.478   5.860 -1.2344 -0.6108  0.9426
23932SOL     OW83519   8.607  10.841  10.571  0.0193  0.1301 -0.2912
23932SOL    HW183520   8.684  10.880  10.528  0.1990 -0.8319 -0.8787
23932SOL    HW283521   8.538  10.905  10.559  0.5002  0.6032 -0.5755
23933SOL     OW83522   6.625   0.499   1.800  0.1713  0.1610  0.5038
23933SOL    HW183523   6.694   0.473   1.861  0.8184  1.0034  0.1613
23933SOL    HW283524   6.658   0.580   1.760 -1.7653  1.5678  1.5826
23934SOL     OW83525   5.786   0.701   1.700  0.2607  0.1637 -0.1628
23934SOL    HW183526   5.876   0.678   1.723  0.4526  1.1725  0.1466
23934SOL    HW283527   5.750   0.621   1.661  0.7590 -0.7876  1.2325
23935SOL     OW83528   6.361   4.353   1.890  0.2699  0.0234 -0.0709
23935SOL    HW183529   6.428   4.422   1.889  2.5327 -2.0368 -0.7022
23935SOL    HW283530   6.329   4.349   1.799  0.7165 -0.2573 -0.2199
23936SOL     OW83531   7.837   8.690   8.412  0.1682  0.6546  0.6669
23936SOL    HW183532   7.880   8.774   8.428  0.8648  0.2054  1.2453
23936SOL    HW283533   7.879   8.656   8.334 -1.2867  1.5827 -0.5761
23937SOL     OW83534   7.642   3.881   4.523  0.6193 -0.3845  0.2998
23937SOL    HW183535   7.616   3.948   4.459  1.0019  2.1843  2.6093
23937SOL    HW283536   7.640   3.799   4.475 -1.7427  1.0164 -2.2704
23938SOL     OW83537   9.036   4.735   6.326  0.5035  0.0513  0.1963
23938SOL    HW183538   9.089   4.806   6.363 -1.7803  1.7201  0.4658
23938SOL    HW283539   9.088   4.656   6.341  2.2610  1.4088  1.6767
23939SOL     OW83540   8.275   5.535  11.010  0.7196 -0.3859  0.6090
23939SOL    HW183541   8.361   5.545  10.969  1.4214  0.4559  2.1972
23939SOL    HW283542   8.292   5.482  11.088 -0.4057 -1.1010  0.3909
23940SOL     OW83543   8.309   1.823  11.594 -0.0215  0.1148  0.2576
23940SOL    HW183544   8.384   1.883  11.593  1.4097 -1.5480  1.6881
23940SOL    HW283545   8.281   1.819  11.502  0.7156  1.8382 -0.0915
23941SOL     OW83546   8.086   4.704   3.719  0.3450 -0.0671 -0.4794
23941SOL    HW183547   8.009   4.757   3.700  1.4413  1.0948 -1.9047
23941SOL    HW283548   8.134   4.754   3.785  0.8114  0.1631 -0.9862
23942SOL     OW83549   5.656   4.440   4.816 -0.3542 -1.0025  0.2511
23942SOL    HW183550   5.733   4.411   4.767 -1.1484 -0.0738 -1.6712
23942SOL    HW283551   5.637   4.528   4.781 -1.2229 -0.4606  1.9725
23943SOL     OW83552  11.775   3.714   1.747 -0.1998 -0.1256 -0.1631
23943SOL    HW183553  11.715   3.770   1.699 -0.2311  0.6878  0.7796
23943SOL    HW283554  11.745   3.625   1.729 -2.7186  0.2653  1.4970
23944SOL     OW83555   7.788   3.866   4.812 -0.1078  0.3724  0.0017
23944SOL    HW183556   7.776   3.841   4.720  0.0946  1.9170 -0.4698
23944SOL    HW283557   7.776   3.961   4.813  1.0069  0.5331  1.3863
23945SOL     OW83558   3.324   0.728  10.089  0.0760  0.0678 -0.6600
23945SOL    HW183559   3.387   0.672  10.133 -1.3152 -1.9936 -1.1309
23945SOL    HW283560   3.372   0.767  10.016  1.0946 -0.4936 -0.3044
23946SOL     OW83561   7.756  10.019   4.838  0.5643 -0.0556  0.2120
23946SOL    HW183562   7.690   9.950   4.827 -0.0387  0.3545  1.1226
23946SOL    HW283563   7.772  10.021   4.933  2.3257 -0.5423 -0.0312
23947SOL     OW83564  10.734   1.567   6.011  0.3642 -0.0094  0.1567
23947SOL    HW183565  10.728   1.473   5.993 -2.5216 -0.3721  2.3292
23947SOL    HW283566  10.685   1.608   5.941 -1.6202 -0.5110  1.1886
23948SOL     OW83567   3.810   3.993   2.452  0.1067  0.0282  0.1701
23948SOL    HW183568   3.873   4.045   2.501  0.9345  0.1297 -0.9518
23948SOL    HW283569   3.758   4.058   2.404  0.0442 -0.1031  0.0581
23949SOL     OW83570   2.663   9.064   2.612  0.1643 -0.0582  0.2945
23949SOL    HW183571   2.589   9.123   2.599  0.6191  0.6041  0.6270
23949SOL    HW283572   2.651   8.996   2.546 -2.1439 -1.4210  1.9585
23950SOL     OW83573   8.858   1.017   2.323 -0.2047  0.2614 -0.0724
23950SOL    HW183574   8.920   0.949   2.351  2.5187  1.1212 -3.2508
23950SOL    HW283575   8.878   1.092   2.379  1.1456  0.2595 -0.5040
23951SOL     OW83576   2.906   9.878   5.869 -0.0576  0.1466  0.8010
23951SOL    HW183577   2.876   9.832   5.947  1.0096  1.1001  1.8067
23951SOL    HW283578   2.984   9.831   5.840 -0.2119  0.0452  0.5382
23952SOL     OW83579   7.290   2.601   1.482 -0.4770 -0.0437  0.1198
23952SOL    HW183580   7.235   2.582   1.406 -0.2206 -0.7710  0.1070
23952SOL    HW283581   7.333   2.684   1.461 -0.4260 -0.2275 -0.5205
23953SOL     OW83582   3.458   5.046  10.767  0.1485  0.4495  0.7899
23953SOL    HW183583   3.433   5.030  10.858 -0.0095 -1.4275  0.4605
23953SOL    HW283584   3.375   5.054  10.720  0.1168 -1.8509  0.3333
23954SOL     OW83585   8.809   6.430   7.963  0.0675 -0.3604 -0.0647
23954SOL    HW183586   8.805   6.520   7.997 -1.5393  0.5693 -2.4542
23954SOL    HW283587   8.718   6.401   7.962  0.2654 -0.9887 -1.8210
23955SOL     OW83588   5.619   7.850   0.754 -0.4556  0.1726  0.4938
23955SOL    HW183589   5.677   7.908   0.703 -0.0763 -1.8057 -1.4836
23955SOL    HW283590   5.588   7.905   0.826  2.3783  1.8823  0.5731
23956SOL     OW83591  10.793   4.056  10.384  0.3780  0.1971  0.0085
23956SOL    HW183592  10.820   4.084  10.471  0.2784  0.8745 -0.1700
23956SOL    HW283593  10.827   3.967  10.375  2.0188  0.7977  0.0196
23957SOL     OW83594   1.410   7.048  11.249 -0.0369  0.1143  0.0253
23957SOL    HW183595   1.483   7.109  11.260  0.7089 -0.9386  1.3514
23957SOL    HW283596   1.358   7.058  11.328  0.7515 -1.7207  0.8487
23958SOL     OW83597   1.670   1.289   3.821  0.5698  0.3937 -0.1969
23958SOL    HW183598   1.684   1.199   3.850  0.6848  0.4458 -0.0951
23958SOL    HW283599   1.755   1.331   3.827  0.9539 -0.0108 -2.0648
23959SOL     OW83600   0.974   8.703   9.034 -0.7518 -0.6303 -0.1502
23959SOL    HW183601   0.910   8.686   9.103 -1.6302  1.7330 -0.2937
23959SOL    HW283602   1.057   8.711   9.079 -0.7582 -2.2452  0.2155
23960SOL     OW83603   6.034   3.910   6.706  0.4230 -0.1331 -0.1810
23960SOL    HW183604   6.037   3.919   6.610  1.2839 -1.5696 -0.3209
23960SOL    HW283605   5.955   3.957   6.732  0.9557  1.5513 -1.4328
23961SOL     OW83606   4.523   0.146   7.401  0.0003  0.2410  0.5199
23961SOL    HW183607   4.488   0.089   7.470 -1.9112 -0.8903 -1.2944
23961SOL    HW283608   4.478   0.119   7.322  0.0971  3.3337 -0.7359
23962SOL     OW83609   1.477   4.113   4.557 -0.5045 -0.1600 -0.2210
23962SOL    HW183610   1.415   4.171   4.512  0.4124  1.0167 -0.0173
23962SOL    HW283611   1.550   4.170   4.582 -0.3717 -1.0414  1.5717
23963SOL     OW83612   7.773   5.540  11.069 -0.2472 -0.5010  0.0595
23963SOL    HW183613   7.797   5.458  11.026  1.2473 -0.6366  1.0442
23963SOL    HW283614   7.714   5.514  11.139  0.2260 -0.7464  0.3719
23964SOL     OW83615  10.541   0.657   1.696 -0.0834  0.2972 -0.1206
23964SOL    HW183616  10.494   0.693   1.772  0.2824  3.1652 -1.1114
23964SOL    HW283617  10.475   0.606   1.650 -0.7030 -0.2977  1.3534
23965SOL     OW83618   7.492   6.632  10.974  0.5675 -0.1835  0.0818
23965SOL    HW183619   7.451   6.713  11.002 -1.4064 -0.2816 -2.1783
23965SOL    HW283620   7.585   6.644  10.992  0.5194  3.1004 -1.2963
23966SOL     OW83621   3.039   7.907   4.012 -0.1560  0.5359 -0.3473
23966SOL    HW183622   3.048   7.887   3.919 -0.0796  0.4596 -0.3231
23966SOL    HW283623   3.123   7.943   4.038  0.3982 -0.9767  0.0755
23967SOL     OW83624   9.992   7.624   9.632  0.0355 -0.1244  0.0948
23967SOL    HW183625  10.029   7.538   9.613 -0.3260 -0.0126 -1.1828
23967SOL    HW283626  10.064   7.685   9.616  0.2830 -0.1633  0.9728
23968SOL     OW83627   7.774   2.747   5.740  0.3829  0.0913 -0.1567
23968SOL    HW183628   7.859   2.703   5.731  0.0892 -1.2593  2.4969
23968SOL    HW283629   7.714   2.695   5.685  0.4360 -1.8347  1.4700
23969SOL     OW83630   8.849   0.454   5.712 -0.2235  0.3641 -0.0562
23969SOL    HW183631   8.899   0.442   5.792 -0.4435 -0.9712 -0.1023
23969SOL    HW283632   8.789   0.526   5.732  0.1089  0.4204  0.7801
23970SOL     OW83633   7.831   5.249   4.555  0.1761  0.6163 -0.2485
23970SOL    HW183634   7.820   5.212   4.643  0.4997  0.1357 -0.4068
23970SOL    HW283635   7.783   5.331   4.558  1.1819  1.1976  0.7566
23971SOL     OW83636   6.700   6.282  10.126 -0.0071 -0.2578 -0.0509
23971SOL    HW183637   6.659   6.198  10.105 -1.1322  0.0817  0.6781
23971SOL    HW283638   6.793   6.267  10.113  0.0791 -2.3320  2.1944
23972SOL     OW83639  11.268   2.165   9.710 -0.2295 -0.1185  0.6041
23972SOL    HW183640  11.252   2.191   9.619 -0.2894  1.2517  0.9763
23972SOL    HW283641  11.210   2.091   9.725 -0.3785 -0.2155 -0.4156
23973SOL     OW83642  10.617   0.594   9.050  0.5138  0.0359 -0.2958
23973SOL    HW183643  10.580   0.666   9.100  1.1084  0.5732 -0.6219
23973SOL    HW283644  10.687   0.560   9.105  1.4186  0.8685 -0.8980
23974SOL     OW83645   1.811   5.016   3.705 -0.0916  0.4174 -0.4417
23974SOL    HW183646   1.900   5.051   3.702 -0.4007  1.3095  0.3649
23974SOL    HW283647   1.767   5.068   3.772 -0.7825 -1.0846  0.3091
23975SOL     OW83648   9.653   6.093   0.500  0.7583 -0.4567  0.7760
23975SOL    HW183649   9.646   6.182   0.465 -0.9380 -0.7290  0.3172
23975SOL    HW283650   9.599   6.095   0.579  1.5633 -0.8196  1.3415
23976SOL     OW83651   6.123   7.698   1.230 -0.0700  0.3198  0.0943
23976SOL    HW183652   6.033   7.730   1.233 -0.3520 -0.3039 -0.9876
23976SOL    HW283653   6.154   7.704   1.320 -0.9578  1.1983  0.3578
23977SOL     OW83654  11.481  10.677   5.609 -1.0866 -0.6165 -0.4057
23977SOL    HW183655  11.427  10.751   5.635 -2.3955 -1.7091  0.1320
23977SOL    HW283656  11.460  10.663   5.517  2.7042  2.5418 -2.0157
23978SOL     OW83657   1.894  11.389  11.431  0.2702  0.3212  0.2107
23978SOL    HW183658   1.823  11.443  11.394  0.5410 -0.1652 -1.0815
23978SOL    HW283659   1.866  11.372  11.521 -1.5970 -0.3933 -0.4438
23979SOL     OW83660  10.311   5.221   3.062 -0.3067  0.0635  0.4643
23979SOL    HW183661  10.299   5.129   3.084 -0.5086  0.2440  1.1399
23979SOL    HW283662  10.360   5.258   3.136 -0.5727  0.5832  0.3904
23980SOL     OW83663   7.466  11.448  11.024  0.0311 -0.7610 -0.3675
23980SOL    HW183664   7.537  11.478  11.082 -0.6243  0.2908 -0.0825
23980SOL    HW283665   7.484  11.355  11.011 -0.0034 -1.1220  1.8228
23981SOL     OW83666   0.488   1.489   3.975 -0.3794  0.0749  0.1156
23981SOL    HW183667   0.469   1.564   3.918 -1.4560  0.0471  0.4085
23981SOL    HW283668   0.413   1.430   3.961 -0.4210 -0.1420  1.1980
23982SOL     OW83669   2.827   3.265   2.553 -0.4628 -0.1491  0.3110
23982SOL    HW183670   2.849   3.343   2.503  0.4027 -0.4167  0.2549
23982SOL    HW283671   2.807   3.298   2.641 -0.9990  0.2172  0.0555
23983SOL     OW83672   6.198   8.071  11.241 -0.3383  0.3296 -0.6727
23983SOL    HW183673   6.198   8.129  11.165 -0.8719  0.2072 -0.7708
23983SOL    HW283674   6.149   8.120  11.308  0.2669  0.5055 -0.3563
23984SOL     OW83675  10.023   5.700   6.855  0.6411  0.4028 -0.6050
23984SOL    HW183676   9.965   5.766   6.891 -0.2030  0.3301 -1.8014
23984SOL    HW283677   9.966   5.641   6.807  1.3648 -1.2537  0.4694
23985SOL     OW83678   1.842   1.985   4.113  0.1062  0.5884 -0.3880
23985SOL    HW183679   1.833   1.943   4.028  1.7111  0.9000 -0.7570
23985SOL    HW283680   1.930   1.961   4.142  0.0327  1.4733  0.6290
23986SOL     OW83681   6.694   2.091   1.508  0.1774 -0.5229 -0.0442
23986SOL    HW183682   6.749   2.013   1.494 -0.1202 -0.5934 -0.9098
23986SOL    HW283683   6.631   2.064   1.574 -1.9302 -2.1394 -2.5136
23987SOL     OW83684   4.236   8.081   0.121  0.2064 -0.0957  0.0115
23987SOL    HW183685   4.237   8.139   0.198  1.5106 -0.7470  0.5154
23987SOL    HW283686   4.147   8.045   0.119 -0.0446  0.4564  0.8128
23988SOL     OW83687   3.646   3.939   5.539  0.2335  0.2061 -0.2308
23988SOL    HW183688   3.723   3.993   5.557 -0.2744  0.9952 -0.3819
23988SOL    HW283689   3.655   3.915   5.446 -1.1045  2.6672 -1.0789
23989SOL     OW83690   6.171   4.140  11.639 -0.2948  0.0129 -0.2151
23989SOL    HW183691   6.249   4.197  11.640  0.5101 -1.0599 -0.2362
23989SOL    HW283692   6.189   4.073  11.705 -0.9689 -0.5553 -0.5922
23990SOL     OW83693  10.940   4.180   3.270 -0.3011 -0.2097  0.0903
23990SOL    HW183694  10.998   4.104   3.258 -0.1573 -0.2368  0.9246
23990SOL    HW283695  10.873   4.169   3.203 -0.1770 -0.9748  0.0748
23991SOL     OW83696   0.385  10.397   8.690  0.5343  0.0274  0.0303
23991SOL    HW183697   0.361  10.308   8.664 -1.8899  0.8423 -0.7814
23991SOL    HW283698   0.458  10.419   8.633  1.0952 -1.3712  0.1534
23992SOL     OW83699   2.867   6.300  11.122 -0.1131  0.1048 -0.9667
23992SOL    HW183700   2.900   6.258  11.201 -0.9138  1.0825 -0.0784
23992SOL    HW283701   2.850   6.228  11.061  0.7515 -0.6370 -0.3511
23993SOL     OW83702   6.327   3.657   6.979 -0.7581  0.2610 -0.6124
23993SOL    HW183703   6.417   3.639   6.956 -1.2831  1.0159 -3.6132
23993SOL    HW283704   6.277   3.582   6.946 -1.4212  0.7407 -0.7367
23994SOL     OW83705   4.799   6.822  10.751  0.7500  0.4056 -0.2626
23994SOL    HW183706   4.751   6.806  10.833  1.8857 -1.6218  0.0725
23994SOL    HW283707   4.888   6.791  10.769  0.8601 -0.7231 -2.4833
23995SOL     OW83708   4.982  10.018  11.511 -0.4120 -0.0001  1.0564
23995SOL    HW183709   4.897   9.999  11.472  0.3998  0.9656 -1.3790
23995SOL    HW283710   4.973  10.107  11.544 -0.1033  0.4718 -0.0770
23996SOL     OW83711   3.543   8.362   3.826 -0.8638  0.2997 -0.4486
23996SOL    HW183712   3.619   8.341   3.879 -1.3809  1.3417  0.7412
23996SOL    HW283713   3.548   8.301   3.752  0.0787 -0.9166  0.5747
23997SOL     OW83714   9.571   1.049   4.566  0.4999  0.0451  0.0090
23997SOL    HW183715   9.587   0.962   4.531 -0.3983  0.1000 -0.5720
23997SOL    HW283716   9.578   1.039   4.661  0.4301 -0.6522 -0.0575
23998SOL     OW83717   1.202  10.008   8.134  0.1218  0.2096 -0.5480
23998SOL    HW183718   1.266  10.039   8.071  1.2960 -1.6234 -0.3237
23998SOL    HW283719   1.236  10.034   8.219  0.5676 -0.7120 -0.4323
23999SOL     OW83720   5.589   9.022   5.783  0.0123  0.1574 -0.2786
23999SOL    HW183721   5.616   9.052   5.870 -0.0099  1.6362 -0.7534
23999SOL    HW283722   5.647   8.948   5.764  1.6781  1.3381  0.0053
24000SOL     OW83723   3.022   3.050   7.879  0.0445 -0.0235  0.0386
24000SOL    HW183724   3.035   2.960   7.910  1.3962 -0.4582 -1.6432
24000SOL    HW283725   3.096   3.099   7.914 -0.2670  0.2680  0.3006
24001SOL     OW83726   3.365   3.191  11.308  0.1929  0.2230 -0.2360
24001SOL    HW183727   3.416   3.268  11.334 -0.4931  0.2183  1.2540
24001SOL    HW283728   3.325   3.216  11.225 -1.4996  2.2576  1.0857
24002SOL     OW83729   5.812   3.255   4.700  0.6255  0.1525 -0.2235
24002SOL    HW183730   5.736   3.212   4.661 -0.9893  1.8104  0.9599
24002SOL    HW283731   5.831   3.205   4.779  0.6385 -0.1010 -0.3834
24003SOL     OW83732   1.060   2.581   2.814 -0.4153 -0.5120 -0.1082
24003SOL    HW183733   1.061   2.633   2.894 -0.3648 -0.9260  0.1624
24003SOL    HW283734   1.137   2.611   2.765 -0.3385 -0.3952  0.0813
24004SOL     OW83735   2.702   7.747   3.757 -0.1077  0.2176 -0.2787
24004SOL    HW183736   2.769   7.711   3.815  0.3612 -0.0893 -0.9952
24004SOL    HW283737   2.628   7.764   3.814 -0.1001 -1.2343  0.2191
24005SOL     OW83738   2.330   0.221   9.915 -0.2059 -0.2384 -0.2794
24005SOL    HW183739   2.389   0.295   9.930 -0.5172  0.2208 -1.2515
24005SOL    HW283740   2.246   0.250   9.949 -0.2364 -0.2877 -0.3134
24006SOL     OW83741   7.669   1.749   9.337 -0.4320  0.6252 -0.4319
24006SOL    HW183742   7.619   1.798   9.402  0.3109  1.8723 -0.7639
24006SOL    HW283743   7.734   1.811   9.305  0.1008 -0.3837 -1.3792
24007SOL     OW83744   0.429   4.436   8.465 -0.0674 -0.2850  0.9616
24007SOL    HW183745   0.392   4.505   8.520 -1.4926 -0.2001 -0.0469
24007SOL    HW283746   0.393   4.453   8.378  0.7574 -1.4339  0.3613
24008SOL     OW83747   4.041   3.043   7.584 -0.4509 -0.0131  0.3467
24008SOL    HW183748   4.086   2.959   7.592 -1.1660 -0.2581  2.3016
24008SOL    HW283749   4.061   3.089   7.665 -0.9304  1.2930 -0.2480
24009SOL     OW83750   2.989  10.189   7.406  0.0618 -0.3153  0.3428
24009SOL    HW183751   2.931  10.129   7.359  0.1982 -0.8322  0.8135
24009SOL    HW283752   2.931  10.258   7.438  0.0524  0.3554 -1.0478
24010SOL     OW83753   4.975   9.576   4.346 -0.0866 -0.1688 -0.4843
24010SOL    HW183754   5.023   9.608   4.422 -0.9950  1.1301 -0.4360
24010SOL    HW283755   5.037   9.581   4.274  1.3619 -3.0240  0.3916
24011SOL     OW83756   2.922   3.678   1.554  0.2747  0.1185 -0.0694
24011SOL    HW183757   2.884   3.596   1.583  1.7421 -1.1422 -1.4830
24011SOL    HW283758   3.011   3.677   1.590  0.3836  0.9640 -0.2955
24012SOL     OW83759   1.781   2.417   6.145 -0.3828  0.3381  0.0765
24012SOL    HW183760   1.727   2.431   6.067 -1.7899 -0.9697  0.7773
24012SOL    HW283761   1.785   2.504   6.186  2.4978  1.7023 -2.6546
24013SOL     OW83762   4.664   4.125   0.204 -0.6798  0.3695 -0.5294
24013SOL    HW183763   4.611   4.159   0.276 -1.2674  0.6038 -1.0592
24013SOL    HW283764   4.632   4.036   0.191 -1.0328  0.5507 -0.9256
24014SOL     OW83765   0.730   9.657   2.880  0.4696  0.0208  0.1927
24014SOL    HW183766   0.672   9.586   2.906  0.5069 -0.4979 -1.0518
24014SOL    HW283767   0.682   9.737   2.903 -0.5748 -0.4023 -0.4497
24015SOL     OW83768   8.134  10.043   5.874  0.2466  0.7370  0.6985
24015SOL    HW183769   8.039  10.048   5.884  0.4393  0.8407  3.1375
24015SOL    HW283770   8.167  10.120   5.920  1.5326  0.2877  0.5744
24016SOL     OW83771   1.511   6.752   3.130 -0.1694 -0.2982 -0.0834
24016SOL    HW183772   1.442   6.789   3.185  0.9833 -0.8768  1.8184
24016SOL    HW283773   1.517   6.660   3.158  0.3311 -0.6631 -1.3163
24017SOL     OW83774   8.400  11.123   8.644  0.0200  0.0783 -0.2716
24017SOL    HW183775   8.465  11.177   8.598 -0.3842 -0.9549 -2.1744
24017SOL    HW283776   8.328  11.183   8.664  0.4439  0.6795 -0.5053
24018SOL     OW83777   4.913   2.290   4.165  0.1063 -0.0280  0.3494
24018SOL    HW183778   4.832   2.290   4.115 -0.2922  0.3114  0.9871
24018SOL    HW283779   4.947   2.379   4.157  1.2062 -0.5442 -1.1537
24019SOL     OW83780   4.760   4.679   9.805 -0.2323  0.0622  0.4655
24019SOL    HW183781   4.752   4.696   9.711  0.6520 -1.7990  0.0007
24019SOL    HW283782   4.788   4.763   9.843 -0.6260  0.8440 -0.9111
24020SOL     OW83783   6.565   4.248   2.600 -0.3039 -0.2991  0.3686
24020SOL    HW183784   6.540   4.191   2.672 -3.1814 -1.6880 -1.5462
24020SOL    HW283785   6.607   4.190   2.536 -1.0782  0.1599 -0.5938
24021SOL     OW83786   7.028   8.496   1.790 -0.1929  0.0042 -0.0646
24021SOL    HW183787   7.049   8.467   1.702 -0.2942  0.5249 -0.2626
24021SOL    HW283788   6.953   8.443   1.816 -0.9950  0.7439 -0.7964
24022SOL     OW83789   6.548   9.590   0.444 -0.2613  0.5602  0.1002
24022SOL    HW183790   6.512   9.672   0.411 -1.3513  0.4309  0.9012
24022SOL    HW283791   6.642   9.605   0.450 -0.4606  1.7945  0.3436
24023SOL     OW83792   4.892   2.193   0.509  0.0567 -0.6182  0.5619
24023SOL    HW183793   4.811   2.243   0.511 -0.0470 -0.8073  1.7453
24023SOL    HW283794   4.949   2.242   0.450 -0.9686 -0.5895 -0.4534
24024SOL     OW83795   6.862   9.273   5.614  0.0112  0.2907 -0.2696
24024SOL    HW183796   6.785   9.219   5.629 -0.4314  0.9698 -0.0114
24024SOL    HW283797   6.897   9.243   5.531  0.4019 -1.1035  0.3780
24025SOL     OW83798   0.113   6.926   7.059 -0.1126  0.0715 -0.6175
24025SOL    HW183799   0.065   6.954   6.981 -0.9348 -2.5836 -1.1443
24025SOL    HW283800   0.085   6.836   7.074  0.2915  0.3554  2.5687
24026SOL     OW83801   8.986   2.856   4.881 -0.9175 -0.6226  0.5250
24026SOL    HW183802   9.029   2.936   4.851 -0.6338 -0.6924  0.7406
24026SOL    HW283803   9.055   2.805   4.923 -0.6856 -1.8239 -1.2195
24027SOL     OW83804   8.224   0.718   1.921  0.0289  0.1347  0.3250
24027SOL    HW183805   8.184   0.648   1.870 -1.8919  1.2397  0.2160
24027SOL    HW283806   8.231   0.791   1.859  1.2148  0.3214  0.6602
24028SOL     OW83807   2.222   6.979   8.268 -0.4954  0.2678 -0.1067
24028SOL    HW183808   2.221   6.918   8.195 -1.7966  0.1739 -0.0425
24028SOL    HW283809   2.174   6.934   8.338  1.8349 -0.1892  1.2936
24029SOL     OW83810   3.187   8.867   4.886  0.1703 -0.0734  0.2062
24029SOL    HW183811   3.215   8.795   4.830  1.2997  1.2647 -1.0017
24029SOL    HW283812   3.186   8.830   4.974 -0.3090 -1.8395 -0.5075
24030SOL     OW83813   7.854   5.333   2.176  0.0992  0.0307 -0.1902
24030SOL    HW183814   7.935   5.378   2.149  1.4840 -0.5847  2.6110
24030SOL    HW283815   7.818   5.388   2.245 -0.7425 -0.8057  0.0439
24031SOL     OW83816   4.064  10.378   9.533 -0.2784 -0.6566  0.0098
24031SOL    HW183817   3.976  10.358   9.564 -0.5878 -0.2036 -0.5409
24031SOL    HW283818   4.122  10.348   9.602 -0.9007 -0.4134  0.6447
24032SOL     OW83819   7.565   9.381   7.620 -0.0724 -0.8152  0.2602
24032SOL    HW183820   7.630   9.318   7.587  0.6271  0.2878 -0.5689
24032SOL    HW283821   7.599   9.409   7.704 -0.1041 -1.1428  0.3829
24033SOL     OW83822   3.567   5.590   9.227 -0.0381 -0.0627 -0.0102
24033SOL    HW183823   3.593   5.582   9.135 -2.4423 -0.7788 -0.6934
24033SOL    HW283824   3.552   5.684   9.240 -1.1478 -0.1203 -0.8046
24034SOL     OW83825   8.902   9.375   8.133  0.6147 -0.1093 -0.1333
24034SOL    HW183826   8.816   9.353   8.167  0.8342 -0.2355  0.3447
24034SOL    HW283827   8.921   9.306   8.070  0.9022 -0.7796  0.6793
24035SOL     OW83828   3.569   0.478   9.686  0.2290  0.0821 -0.1989
24035SOL    HW183829   3.480   0.447   9.669  1.1571 -2.9178 -0.2231
24035SOL    HW283830   3.611   0.476   9.600  1.0018 -1.1260  0.1800
24036SOL     OW83831   5.312   5.915   6.060  0.0906 -0.1584 -0.1892
24036SOL    HW183832   5.352   5.828   6.058  1.2415  0.3629 -1.1049
24036SOL    HW283833   5.278   5.928   5.972  1.6512  1.0531 -0.6639
24037SOL     OW83834   8.627  11.788   7.121  0.5228 -0.3709 -0.0385
24037SOL    HW183835   8.595  11.780   7.031 -0.1680  1.0065  0.0715
24037SOL    HW283836   8.580  11.863   7.158  1.8427 -0.0110  1.0136
24038SOL     OW83837   6.893   1.932   6.793  0.1859  0.3463 -0.2988
24038SOL    HW183838   6.823   1.881   6.753 -0.0469  1.5577 -1.4827
24038SOL    HW283839   6.854   1.967   6.873  0.2519 -1.0271  0.3616
24039SOL     OW83840   1.275   9.560  10.480  0.7451  0.0255 -0.0114
24039SOL    HW183841   1.229   9.489  10.436 -0.8167  0.6335  0.5716
24039SOL    HW283842   1.325   9.518  10.550 -1.2388 -0.4229  1.2110
24040SOL     OW83843   8.004  11.851   2.725  0.7651 -0.0194  0.1419
24040SOL    HW183844   8.079  11.905   2.699  1.6143 -0.7120  1.0895
24040SOL    HW283845   8.032  11.809   2.806 -0.4506 -0.7198  0.2136
24041SOL     OW83846   0.433  10.769   5.987  0.4125 -0.3938  0.1755
24041SOL    HW183847   0.513  10.790   6.034 -0.0171  1.0748  0.3279
24041SOL    HW283848   0.367  10.758   6.055  0.4795 -1.6395  0.0541
24042SOL     OW83849   5.811   2.502  11.272  0.4417  0.5174 -0.1196
24042SOL    HW183850   5.781   2.412  11.265  0.9563  0.2933  0.4460
24042SOL    HW283851   5.731   2.553  11.285  0.2631 -0.0348  1.0430
24043SOL     OW83852  10.915   4.630   3.034  0.3553  0.3208  0.3464
24043SOL    HW183853  10.848   4.663   2.974 -0.9825 -1.1629  0.9592
24043SOL    HW283854  10.881   4.546   3.065  2.4565 -0.4297  0.7973
24044SOL     OW83855   2.453   5.428   3.366  0.1472  0.2786  0.0094
24044SOL    HW183856   2.483   5.518   3.374 -1.1783  0.7752 -0.2532
24044SOL    HW283857   2.533   5.375   3.365  1.0107  1.5417 -1.1149
24045SOL     OW83858  10.094   5.687   4.194  0.1717  0.3047 -0.8103
24045SOL    HW183859  10.078   5.662   4.285  2.7496 -0.6470 -0.5421
24045SOL    HW283860  10.181   5.727   4.195 -0.1686  1.2218 -2.7191
24046SOL     OW83861  10.649  11.780  10.138 -0.2053 -0.0544  0.4415
24046SOL    HW183862  10.632  11.871  10.113  1.6863  0.6265  1.3957
24046SOL    HW283863  10.713  11.750  10.073  0.7143 -0.0095  1.3027
24047SOL     OW83864   4.553   4.130   6.359  0.5003 -0.5771  0.2281
24047SOL    HW183865   4.640   4.158   6.389  1.5562 -2.0563 -1.2443
24047SOL    HW283866   4.571   4.054   6.304 -1.2679  1.6576 -3.8279
24048SOL     OW83867   1.221   0.815   9.926 -0.0544  0.1164 -0.0543
24048SOL    HW183868   1.310   0.850   9.930 -1.1639  3.3900 -0.5534
24048SOL    HW283869   1.185   0.833  10.013 -0.0300 -2.0322  0.4587
24049SOL     OW83870   9.642   0.261  11.750  0.1166 -0.0022  0.1223
24049SOL    HW183871   9.577   0.193  11.772 -2.0802  2.0895  0.5801
24049SOL    HW283872   9.609   0.300  11.669  1.2545  0.6464 -0.0474
24050SOL     OW83873   9.246   0.857   7.311  0.3171 -0.0972 -0.1200
24050SOL    HW183874   9.198   0.935   7.283  0.1143  0.2322  1.0714
24050SOL    HW283875   9.319   0.891   7.363  0.0173 -0.6939  0.7234
24051SOL     OW83876   9.288   2.562   0.523  0.8752  0.2254 -0.0109
24051SOL    HW183877   9.361   2.524   0.475  1.0407  0.5862 -0.0528
24051SOL    HW283878   9.211   2.515   0.490  0.7088  1.8837 -2.2695
24052SOL     OW83879   8.345   2.949  11.440 -0.0664  0.0229 -0.3093
24052SOL    HW183880   8.316   3.027  11.393 -0.0076 -0.1142 -0.5748
24052SOL    HW283881   8.378   2.891  11.371  3.2866  1.1757  0.1090
24053SOL     OW83882   4.193   4.348   6.860  0.5694 -0.1092 -0.8857
24053SOL    HW183883   4.270   4.388   6.818  0.6896 -0.1936 -0.7476
24053SOL    HW283884   4.118   4.390   6.818  0.6881  1.3787  0.3034
24054SOL     OW83885   2.219   5.167   8.323 -0.0493 -0.0130  0.1512
24054SOL    HW183886   2.131   5.130   8.323  0.3265 -0.9591  1.2179
24054SOL    HW283887   2.237   5.187   8.415  1.4543 -1.3903  0.2035
24055SOL     OW83888  10.733   9.311   8.137  0.1552  0.1763 -0.0168
24055SOL    HW183889  10.755   9.221   8.161  0.5154  0.5090  0.9555
24055SOL    HW283890  10.637   9.311   8.132  0.1634 -0.3155 -0.2705
24056SOL     OW83891   0.727   4.969   1.310 -0.3562  0.5687  0.6492
24056SOL    HW183892   0.803   5.009   1.351 -0.0073 -0.2686  0.8275
24056SOL    HW283893   0.686   5.041   1.261 -0.2748  1.3602  1.7124
24057SOL     OW83894   5.960  10.710   5.788 -0.3939 -0.4519  0.3802
24057SOL    HW183895   5.953  10.668   5.702 -0.2541 -0.6926  0.4850
24057SOL    HW283896   5.870  10.711   5.821 -0.4827 -0.1572  0.1373
24058SOL     OW83897   8.914   9.560   9.164  0.2820 -0.1327 -0.1776
24058SOL    HW183898   8.951   9.632   9.112  1.5216 -0.3786  0.3238
24058SOL    HW283899   8.988   9.528   9.216 -0.7737 -0.2906  1.2978
24059SOL     OW83900   3.458   7.933   6.069  0.1700  0.1396 -0.0953
24059SOL    HW183901   3.516   7.992   6.117 -1.0313 -0.0692  1.6904
24059SOL    HW283902   3.475   7.847   6.107  0.2570 -0.3077 -1.1099
24060SOL     OW83903   7.238   8.861   9.923 -0.4901  0.4097 -0.5441
24060SOL    HW183904   7.165   8.857   9.985 -1.5995 -1.1081 -1.8561
24060SOL    HW283905   7.204   8.915   9.851 -0.3060 -0.2158 -1.1129
24061SOL     OW83906   8.309  11.183   4.710  0.2602  0.3457 -0.5727
24061SOL    HW183907   8.301  11.237   4.631 -0.1886 -0.5929 -1.1951
24061SOL    HW283908   8.349  11.102   4.679  2.1317  0.7684  0.5758
24062SOL     OW83909   8.132   3.900   4.776  0.4665  0.4205  0.4663
24062SOL    HW183910   8.110   3.849   4.698 -1.8666 -1.3770  2.1540
24062SOL    HW283911   8.199   3.848   4.821 -0.2152 -0.0103  1.0114
24063SOL     OW83912   7.465   8.381   0.498 -0.1970 -0.2224 -0.3944
24063SOL    HW183913   7.513   8.312   0.453  0.8887  0.7198 -0.7231
24063SOL    HW283914   7.430   8.436   0.428  0.2748  0.4389 -0.1244
24064SOL     OW83915   7.098   6.997   5.539 -0.6135 -0.0394 -0.0618
24064SOL    HW183916   7.062   6.922   5.492  0.0875  1.0033 -2.4327
24064SOL    HW283917   7.022   7.035   5.584 -0.9586 -2.1374  1.2426
24065SOL     OW83918  11.018   9.095   6.885  0.2192  0.2728  0.2009
24065SOL    HW183919  11.032   9.016   6.833 -0.8287  0.8917 -1.0540
24065SOL    HW283920  10.963   9.067   6.958  1.1421 -0.4551  0.6486
24066SOL     OW83921  10.055  10.737  11.470 -0.3008  0.0773  0.0360
24066SOL    HW183922  10.034  10.827  11.444 -1.5965 -0.0613  0.5090
24066SOL    HW283923   9.985  10.713  11.531  0.9761 -0.6470  1.2910
24067SOL     OW83924   7.164   5.634   6.502  0.3056 -0.0690 -0.5508
24067SOL    HW183925   7.203   5.561   6.551  1.2091  0.5810 -0.2671
24067SOL    HW283926   7.091   5.595   6.455  0.4078 -1.0396  0.0626
24068SOL     OW83927  10.447   2.774   9.953 -0.1622  0.0202  0.0178
24068SOL    HW183928  10.433   2.806   9.864 -0.1353 -0.9756 -0.3512
24068SOL    HW283929  10.418   2.683   9.951  0.9665 -0.3761  0.7150
24069SOL     OW83930  11.723  10.518   7.155  0.0267 -0.2297  0.6587
24069SOL    HW183931  11.686  10.577   7.090 -2.0514 -2.8241 -0.6881
24069SOL    HW283932  11.817  10.520   7.138 -0.1656  1.4260 -0.3995
24070SOL     OW83933   7.299   5.312  11.947 -0.2764 -0.0304  0.3768
24070SOL    HW183934   7.360   5.266  12.005  0.8655  1.8994  0.7861
24070SOL    HW283935   7.351   5.329  11.868 -1.7810 -2.5574 -1.3142
24071SOL     OW83936  10.582   6.027  11.921  0.1105 -0.2037  0.2197
24071SOL    HW183937  10.551   5.936  11.915 -2.2763  0.5462 -0.1123
24071SOL    HW283938  10.614   6.035  12.011  0.7316 -1.4581  0.1418
24072SOL     OW83939  10.876   9.864   8.830 -0.3310 -0.2107  1.4216
24072SOL    HW183940  10.821   9.814   8.890 -0.4920 -3.2574 -1.0365
24072SOL    HW283941  10.946   9.804   8.804  1.1372  1.7874  0.3771
24073SOL     OW83942   5.119   6.067  10.865  0.1547  0.1299  0.3697
24073SOL    HW183943   5.069   5.987  10.851 -0.9661  1.2026 -2.3891
24073SOL    HW283944   5.056   6.129  10.902  0.4753  0.3397  0.5713
24074SOL     OW83945  11.733   2.787  11.311 -0.1501 -0.5138  0.3500
24074SOL    HW183946  11.767   2.850  11.247  0.8528 -0.0765  1.2938
24074SOL    HW283947  11.682   2.725  11.258 -1.1187  1.0362 -0.6026
24075SOL     OW83948   2.240   7.749   1.941 -0.1958  0.0515  0.3079
24075SOL    HW183949   2.325   7.750   1.897  0.1979 -0.5402  1.0392
24075SOL    HW283950   2.201   7.665   1.915 -0.7602  0.5117 -0.3822
24076SOL     OW83951   1.914   7.554   0.590  0.1213  0.3646  0.4172
24076SOL    HW183952   1.974   7.485   0.617 -0.1403  0.4071  1.1240
24076SOL    HW283953   1.947   7.583   0.505 -0.0569 -0.9557 -0.1155
24077SOL     OW83954   4.792   1.133   3.391 -0.4603 -0.2970  0.2456
24077SOL    HW183955   4.801   1.227   3.376  1.2489 -0.2959  1.0245
24077SOL    HW283956   4.701   1.122   3.420 -0.6775  1.1150  0.1669
24078SOL     OW83957   5.142  10.093   8.062  0.8869 -0.8807 -0.9081
24078SOL    HW183958   5.236  10.079   8.053  0.8811 -0.6030 -1.4270
24078SOL    HW283959   5.107  10.005   8.077  1.4542 -0.7496  1.5394
24079SOL     OW83960   6.344   9.738   7.662  0.4215  0.0629  0.6737
24079SOL    HW183961   6.308   9.775   7.743 -1.2150 -1.1647  0.5755
24079SOL    HW283962   6.361   9.813   7.606  0.4286  0.8630  1.7239
24080SOL     OW83963   3.562   2.841  10.057  0.1551  0.1823 -0.3502
24080SOL    HW183964   3.528   2.906   9.995  1.4744  0.5614 -0.7164
24080SOL    HW283965   3.649   2.821  10.024 -0.1927 -1.7460 -0.2051
24081SOL     OW83966  10.071   3.169   4.988  0.2228  0.5593  0.4209
24081SOL    HW183967  10.124   3.099   5.025 -0.4617  0.9619  2.2409
24081SOL    HW283968  10.005   3.188   5.055 -0.7468  1.6887 -0.7980
24082SOL     OW83969  11.477   4.347   0.576  0.0175  0.3540 -0.3904
24082SOL    HW183970  11.534   4.271   0.587  1.7475  1.7637  1.2058
24082SOL    HW283971  11.531   4.410   0.529 -0.4843  1.4386  0.4503
24083SOL     OW83972   0.375  11.272   6.087 -0.1693 -0.1504 -0.1759
24083SOL    HW183973   0.345  11.182   6.102 -3.1876  1.0487  1.8796
24083SOL    HW283974   0.455  11.280   6.137  0.2360 -1.7133 -0.5287
24084SOL     OW83975   6.879   8.875   7.168  0.1024 -0.2902 -0.2394
24084SOL    HW183976   6.806   8.899   7.111  0.1124 -0.4660 -0.3252
24084SOL    HW283977   6.926   8.806   7.121  0.5766  0.1211 -0.3814
24085SOL     OW83978   1.568   7.137   7.861 -0.2644  0.5278  0.0833
24085SOL    HW183979   1.629   7.207   7.838 -0.0075  0.5493  0.8059
24085SOL    HW283980   1.603   7.059   7.818 -0.8362  0.9337 -1.1574
24086SOL     OW83981   2.195  10.383   5.788  0.2030 -0.2732  0.5155
24086SOL    HW183982   2.238  10.308   5.747  1.7042  0.1978  1.1234
24086SOL    HW283983   2.113  10.348   5.822  0.3352 -1.3621 -0.2227
24087SOL     OW83984  11.134   3.931   7.540  0.3534  0.2985  0.2220
24087SOL    HW183985  11.166   3.856   7.589 -0.1310 -1.1630 -1.5651
24087SOL    HW283986  11.089   3.985   7.604  2.5567  0.1983  1.9764
24088SOL     OW83987   8.759   4.184   4.296  0.2984 -0.3682 -0.2080
24088SOL    HW183988   8.840   4.133   4.293  0.6505  0.1835 -0.4067
24088SOL    HW283989   8.741   4.206   4.204  0.0452 -0.2992 -0.1427
24089SOL     OW83990   6.231   3.739   3.668  0.2841  0.5294  0.6057
24089SOL    HW183991   6.258   3.691   3.747 -1.2578  0.6236  1.2146
24089SOL    HW283992   6.138   3.720   3.658  0.7155 -0.7396 -2.0957
24090SOL     OW83993   3.147   8.745   5.146  0.5648  0.0296  0.2775
24090SOL    HW183994   3.225   8.755   5.202 -0.3620  1.5755  1.3868
24090SOL    HW283995   3.119   8.655   5.160  1.0451  0.0328  1.3930
24091SOL     OW83996   4.279  10.277   3.825  0.1474 -0.3029 -0.0252
24091SOL    HW183997   4.367  10.314   3.832 -0.3692  1.3450 -1.3647
24091SOL    HW283998   4.288  10.203   3.766  0.4930  0.5816 -1.1345
24092SOL     OW83999   2.516  10.340   2.089  0.3326  0.2817  0.2597
24092SOL    HW184000   2.545  10.395   2.162  1.3175 -0.2269  0.2597
24092SOL    HW284001   2.461  10.273   2.129  1.8786 -0.7550  0.7429
24093SOL     OW84002   2.774   2.194   0.392 -0.8129 -0.0849  0.2478
24093SOL    HW184003   2.764   2.127   0.324  0.9854  0.8084 -0.9654
24093SOL    HW284004   2.719   2.163   0.464 -0.5273 -2.5544 -0.5039
24094SOL     OW84005  11.438  11.115  10.201  0.0672 -0.3592  0.2097
24094SOL    HW184006  11.414  11.206  10.216 -1.1650 -0.4979 -0.7411
24094SOL    HW284007  11.442  11.075  10.288 -0.8228  0.2540  0.5365
24095SOL     OW84008  10.780   7.756   7.759 -0.4542  0.5409  0.5665
24095SOL    HW184009  10.765   7.666   7.786 -0.7237 -0.0154 -1.2878
24095SOL    HW284010  10.874   7.763   7.747 -0.6323 -0.3530 -1.8836
24096SOL     OW84011  10.235   6.589   1.823 -0.1994 -0.1400  0.4458
24096SOL    HW184012  10.229   6.681   1.796  0.5070 -0.3496 -0.4827
24096SOL    HW284013  10.236   6.540   1.741 -1.5305 -1.0575  0.9577
24097SOL     OW84014   0.740  11.057  10.120  0.4044 -0.3764  0.1900
24097SOL    HW184015   0.669  11.029  10.062 -0.1251  1.6999 -0.2239
24097SOL    HW284016   0.732  11.152  10.124  1.1081 -0.3450  2.8038
24098SOL     OW84017   2.452   0.996  10.227  0.5990  0.3978  0.2493
24098SOL    HW184018   2.432   1.066  10.289 -0.5822  0.7242 -0.4594
24098SOL    HW284019   2.387   0.928  10.246 -0.5922  1.0104 -1.3793
24099SOL     OW84020   2.232   1.531   5.741 -0.0438  0.1289 -0.1126
24099SOL    HW184021   2.174   1.479   5.686 -1.1743 -0.1683  1.2983
24099SOL    HW284022   2.301   1.471   5.768  1.5960  0.7213 -2.5836
24100SOL     OW84023   3.517   2.248   1.287  0.0637 -0.1137  0.2359
24100SOL    HW184024   3.454   2.302   1.240 -0.2244  0.0976  0.8492
24100SOL    HW284025   3.500   2.266   1.380  1.0881  0.0084  0.4101
24101SOL     OW84026   1.453   2.083  10.314 -0.3247 -0.1870 -0.1316
24101SOL    HW184027   1.519   2.020  10.286 -0.0046  0.0156  0.1431
24101SOL    HW284028   1.373   2.032  10.325  0.0344 -0.6267  0.5000
24102SOL     OW84029   5.989   6.278   7.911  0.7413  0.3908  0.2902
24102SOL    HW184030   5.979   6.190   7.948 -0.4511 -0.0568 -0.9982
24102SOL    HW284031   6.035   6.265   7.828  0.2092  0.9181 -0.0993
24103SOL     OW84032  10.781   8.571  10.827  0.3075 -0.0746 -0.2597
24103SOL    HW184033  10.792   8.664  10.807 -0.3374 -0.0051 -0.3121
24103SOL    HW284034  10.816   8.525  10.750  0.0641  0.1347 -0.4948
24104SOL     OW84035   1.476   6.999   5.566  0.2832 -0.2137  0.3871
24104SOL    HW184036   1.503   6.908   5.577  2.0847  0.6177  4.4982
24104SOL    HW284037   1.551   7.041   5.523 -0.9183 -0.6793 -2.4031
24105SOL     OW84038   4.215   5.378   8.818  0.2376  0.3786 -0.0111
24105SOL    HW184039   4.192   5.439   8.888  0.3393  0.9160 -0.4368
24105SOL    HW284040   4.300   5.341   8.845 -0.2067 -0.1884  0.6400
24106SOL     OW84041   1.226   6.326   7.613  0.2672  0.2007  0.5014
24106SOL    HW184042   1.143   6.365   7.641  1.0460  0.8983  1.9437
24106SOL    HW284043   1.237   6.249   7.670 -1.2550 -2.3020 -2.3057
24107SOL     OW84044   7.764   3.213   1.199  0.7372  0.5051  0.5374
24107SOL    HW184045   7.674   3.244   1.203  0.7074  0.3454  1.2854
24107SOL    HW284046   7.757   3.120   1.180  0.7229  0.3947  1.0706
24108SOL     OW84047   1.815   1.783   7.597 -0.1771 -0.3252  0.0568
24108SOL    HW184048   1.768   1.723   7.654  1.7678 -1.3864  0.6335
24108SOL    HW284049   1.787   1.870   7.625 -3.1617 -0.8693 -0.8804
24109SOL     OW84050   4.858   4.901   9.982  0.4745 -0.3108  0.4983
24109SOL    HW184051   4.866   4.994   9.960 -1.4483 -0.1335  0.4451
24109SOL    HW284052   4.847   4.899  10.077 -0.8811 -0.3685  0.3510
24110SOL     OW84053   5.232   4.203   4.466  0.4175 -0.4672  0.3939
24110SOL    HW184054   5.272   4.247   4.541  1.3623  1.6383 -1.2379
24110SOL    HW284055   5.140   4.191   4.491  0.6497  0.4529  1.7713
24111SOL     OW84056  11.366  10.721   8.281 -0.1193  0.3555 -0.4791
24111SOL    HW184057  11.273  10.698   8.288 -0.1003 -0.0618 -1.4739
24111SOL    HW284058  11.396  10.676   8.203  0.7391  1.1259 -0.6104
24112SOL     OW84059   4.252   7.167   5.752 -0.2818 -0.2778  0.1754
24112SOL    HW184060   4.225   7.259   5.748 -0.5224 -0.3321  0.4730
24112SOL    HW284061   4.305   7.161   5.832 -1.2211 -0.6365  0.7912
24113SOL     OW84062  11.226   3.931   7.819 -0.0223  0.2778  0.5034
24113SOL    HW184063  11.259   4.017   7.843  0.6470 -0.0714  0.8867
24113SOL    HW284064  11.306   3.879   7.804 -0.4013  0.2144 -1.5194
24114SOL     OW84065   1.604   5.259   2.060 -0.3265  0.2650 -0.7086
24114SOL    HW184066   1.626   5.174   2.098  1.1625  0.4019 -1.2131
24114SOL    HW284067   1.657   5.322   2.109 -0.4512  0.7556 -1.1956
24115SOL     OW84068   9.971   7.588   8.432 -0.6843 -0.2325 -0.6138
24115SOL    HW184069   9.942   7.534   8.359  1.2547 -0.2946 -1.4018
24115SOL    HW284070   9.933   7.546   8.509 -2.8082 -0.1445 -1.5339
24116SOL     OW84071  10.371   9.788   6.899  0.1080  0.4451  0.0452
24116SOL    HW184072  10.349   9.858   6.838 -1.3957 -0.3825 -0.4314
24116SOL    HW284073  10.459   9.809   6.930  0.9979  0.8146 -2.5136
24117SOL     OW84074   5.716   2.652   0.720 -0.0423 -0.7229  0.0339
24117SOL    HW184075   5.697   2.576   0.775 -0.9865 -0.5095  0.0116
24117SOL    HW284076   5.788   2.697   0.765  2.1154 -2.8196 -1.1125
24118SOL     OW84077  10.467   8.953   3.435 -0.7055  0.2450  0.8553
24118SOL    HW184078  10.529   9.010   3.390 -1.0304 -0.2564 -0.2594
24118SOL    HW284079  10.453   8.995   3.521 -0.5711  1.5743  0.2500
24119SOL     OW84080   9.309   8.915   7.685 -0.2477  0.0700 -0.4030
24119SOL    HW184081   9.316   8.901   7.591  0.0754  0.0192 -0.3734
24119SOL    HW284082   9.366   8.847   7.723  1.0478  1.1959 -0.2337
24120SOL     OW84083   5.412   5.896   9.346  0.0857 -0.1513 -0.0419
24120SOL    HW184084   5.490   5.876   9.295  0.9896  1.0119  0.8367
24120SOL    HW284085   5.392   5.815   9.393  0.5222 -0.5681 -0.5643
24121SOL     OW84086   0.123   1.092   1.171 -0.2865  0.0466 -0.1178
24121SOL    HW184087   0.186   1.138   1.227 -1.3972  1.1437  0.2622
24121SOL    HW284088   0.144   1.120   1.082 -0.3651  0.5671  0.0255
24122SOL     OW84089   3.928   6.664   7.103 -0.1418  0.5355 -0.7220
24122SOL    HW184090   3.870   6.736   7.080  0.9702  1.8215  0.3289
24122SOL    HW284091   3.885   6.620   7.177  0.1085  1.3570 -0.0772
24123SOL     OW84092   6.370   2.773   0.004 -0.1308  0.1332 -0.1554
24123SOL    HW184093   6.358   2.787   0.098  0.0615  2.0049 -0.3623
24123SOL    HW284094   6.453   2.726  -0.003  0.7177  1.4607  0.5703
24124SOL     OW84095   2.870   3.027   3.087 -0.4382  0.1133  0.4346
24124SOL    HW184096   2.952   2.988   3.055 -0.5387  0.3240 -0.1002
24124SOL    HW284097   2.848   3.093   3.021  0.3485  1.9276  1.9332
24125SOL     OW84098   9.758   5.387   7.151  0.2240 -0.4015  0.2993
24125SOL    HW184099   9.730   5.307   7.196  1.8147 -1.1698  0.0003
24125SOL    HW284100   9.841   5.410   7.192  0.3127  0.4902 -0.3580
24126SOL     OW84101   7.555   8.208   5.920 -0.2924  0.0566  0.7506
24126SOL    HW184102   7.647   8.230   5.935 -0.0759 -0.1270 -0.2701
24126SOL    HW284103   7.524   8.175   6.004  0.3649  0.8354  1.3122
24127SOL     OW84104   1.601   3.171   2.927  0.0145 -0.0361 -0.2012
24127SOL    HW184105   1.552   3.119   2.863  2.3586  0.5081 -2.6465
24127SOL    HW284106   1.564   3.259   2.919  0.2247  0.0055 -0.7452
24128SOL     OW84107   1.398   2.777   5.362 -0.4052  0.9129 -0.1387
24128SOL    HW184108   1.412   2.752   5.271 -0.7203  0.4103 -0.0514
24128SOL    HW284109   1.486   2.797   5.395 -0.1524  0.0136 -0.2412
24129SOL     OW84110   3.076  11.142   3.521  0.3605  0.0349 -0.0977
24129SOL    HW184111   3.121  11.178   3.444  1.4988 -1.0090  0.0392
24129SOL    HW284112   3.125  11.063   3.542  0.9159  1.0018  2.5527
24130SOL     OW84113   3.710  10.841   0.337 -0.3019  0.1847  0.4033
24130SOL    HW184114   3.751  10.833   0.424  2.9974 -1.0886 -1.0994
24130SOL    HW284115   3.723  10.933   0.313  0.3955  0.1435  0.5840
24131SOL     OW84116   6.895   2.617   9.297  0.5089 -0.3125 -0.1293
24131SOL    HW184117   6.818   2.609   9.352  1.3124 -2.0525  0.8540
24131SOL    HW284118   6.887   2.545   9.235  0.9322 -0.0032 -0.5448
24132SOL     OW84119   5.094   6.181  11.736 -0.6095  0.1711  0.0102
24132SOL    HW184120   5.013   6.212  11.695 -1.2023 -2.2400 -0.8253
24132SOL    HW284121   5.068   6.156  11.825 -0.8896 -0.8308 -0.3343
24133SOL     OW84122   1.925   0.978   5.118 -0.1108 -0.1408  0.3657
24133SOL    HW184123   2.019   0.986   5.102  0.1031 -1.8710  0.6343
24133SOL    HW284124   1.918   0.932   5.201 -1.1664 -1.7244 -0.5417
24134SOL     OW84125   5.492   9.811   5.888 -0.5901  0.6113  0.6204
24134SOL    HW184126   5.474   9.721   5.861  1.1603  0.3129  0.3380
24134SOL    HW284127   5.529   9.803   5.976 -1.1848  1.1287  0.9228
24135SOL     OW84128   6.153   9.062  11.342 -0.1732 -0.0922 -0.4037
24135SOL    HW184129   6.224   9.114  11.303  0.9382 -2.0345 -1.1145
24135SOL    HW284130   6.102   9.032  11.267  0.4140 -1.6569 -0.2186
24136SOL     OW84131   5.136   8.701  10.286 -0.0331  0.2596  0.4957
24136SOL    HW184132   5.077   8.701  10.211 -0.4624 -0.9005  0.8098
24136SOL    HW284133   5.205   8.640  10.262  0.3383  0.6145  0.6625
24137SOL     OW84134   2.252   8.498   0.676  0.0408 -0.2175  0.1890
24137SOL    HW184135   2.178   8.554   0.698  0.5176  0.4746  0.0683
24137SOL    HW284136   2.268   8.515   0.583  1.8589  1.5049  0.7327
24138SOL     OW84137  11.816   5.810   9.122 -0.2851 -0.0226 -0.0229
24138SOL    HW184138  11.854   5.859   9.049  0.2812  0.9976  0.9287
24138SOL    HW284139  11.723   5.801   9.099 -0.0434 -0.0790 -1.0458
24139SOL     OW84140   7.608   6.214   5.565 -0.1547  0.1266 -0.2832
24139SOL    HW184141   7.515   6.203   5.586 -0.3189  1.9922  0.1789
24139SOL    HW284142   7.610   6.290   5.506  1.1550  0.8222  0.6130
24140SOL     OW84143   7.692   4.836   2.645  0.0024 -0.0867  0.1101
24140SOL    HW184144   7.715   4.747   2.616 -1.8959 -0.5095 -0.2150
24140SOL    HW284145   7.597   4.840   2.635  0.1401  2.3256 -0.8018
24141SOL     OW84146   8.579  10.729   0.489 -0.3392  0.5475  0.3183
24141SOL    HW184147   8.539  10.794   0.547  0.3057  0.1660  1.1943
24141SOL    HW284148   8.588  10.651   0.542  0.4449  0.2535 -0.2334
24142SOL     OW84149   2.753   5.448   9.322  0.3042 -0.0003  0.7120
24142SOL    HW184150   2.788   5.483   9.404  1.4411  0.9514 -0.1477
24142SOL    HW284151   2.815   5.476   9.255 -0.2160 -1.3685 -0.3982
24143SOL     OW84152   3.886   5.201   5.536  0.0032  0.3951 -0.0049
24143SOL    HW184153   3.960   5.143   5.520  0.2748  1.1606 -1.7789
24143SOL    HW284154   3.809   5.146   5.524  0.2474 -0.2687  1.2849
24144SOL     OW84155   3.827   7.796  11.151 -0.6312 -0.2090 -0.2620
24144SOL    HW184156   3.800   7.704  11.150  0.1919 -0.4933  1.2105
24144SOL    HW284157   3.762   7.841  11.097 -1.2313 -1.5943 -0.7392
24145SOL     OW84158   2.029   6.637   2.540  0.2977 -1.1821  0.0379
24145SOL    HW184159   1.973   6.609   2.468 -2.4857  0.8624  1.2367
24145SOL    HW284160   2.061   6.723   2.513 -0.3276 -0.6403  0.9485
24146SOL     OW84161   6.299   1.080   7.842  0.2426  0.3482 -0.4254
24146SOL    HW184162   6.364   1.011   7.856  2.0161  1.1618 -3.6476
24146SOL    HW284163   6.229   1.038   7.791 -0.4867  0.1261  0.7218
24147SOL     OW84164   3.831   0.965   0.431  0.1234  0.1297  0.2621
24147SOL    HW184165   3.831   1.034   0.365  1.1211  0.5875  0.7203
24147SOL    HW284166   3.774   0.897   0.395  0.2899  0.5684 -0.8587
24148SOL     OW84167   8.068   1.100   2.280 -0.3766  0.2331 -0.4610
24148SOL    HW184168   7.985   1.053   2.272 -0.7932  1.0424 -1.0030
24148SOL    HW284169   8.131   1.033   2.307 -1.4011 -0.2033  1.0140
24149SOL     OW84170  10.180  10.993  11.800 -0.2016 -0.2289 -0.0823
24149SOL    HW184171  10.123  11.000  11.724  0.4699  1.0970 -0.4852
24149SOL    HW284172  10.261  11.035  11.774  0.6589 -1.2903  0.7899
24150SOL     OW84173   3.359   7.385   1.751 -1.2293  0.2762  0.3484
24150SOL    HW184174   3.310   7.326   1.808 -1.7244 -0.4637 -0.8231
24150SOL    HW284175   3.441   7.339   1.734 -0.3683  1.2084  1.7390
24151SOL     OW84176   5.742   8.296   9.666 -0.3236 -0.2106  0.4845
24151SOL    HW184177   5.745   8.230   9.735  0.9823  0.7977  1.4304
24151SOL    HW284178   5.828   8.292   9.625 -0.8786 -0.3736 -0.7043
24152SOL     OW84179  11.658  11.484   9.283  0.0141  0.1538 -0.2992
24152SOL    HW184180  11.581  11.502   9.338  1.4640 -0.1985  2.0007
24152SOL    HW284181  11.636  11.522   9.198 -2.7357 -0.0643  0.2169
24153SOL     OW84182   7.531   2.388   9.415  0.1655  0.0975 -0.1104
24153SOL    HW184183   7.596   2.451   9.449  0.0657  1.0181 -1.5102
24153SOL    HW284184   7.454   2.442   9.395 -0.6266 -0.8020  0.4582
24154SOL     OW84185   5.885   5.943   9.040 -0.1681 -0.1434 -0.3469
24154SOL    HW184186   5.943   5.872   9.070 -0.4919  0.5250  2.0654
24154SOL    HW284187   5.944   6.017   9.023 -0.0526 -0.3220 -0.7474
24155SOL     OW84188   7.761   7.038   8.279  0.4893 -0.4150 -0.0929
24155SOL    HW184189   7.780   6.969   8.215 -1.4046 -1.7699  0.7153
24155SOL    HW284190   7.715   7.105   8.228  0.7784 -0.5429 -0.5355
24156SOL     OW84191  11.832   9.441   9.836  0.5291 -0.5073  0.0835
24156SOL    HW184192  11.901   9.487   9.883  1.8873 -1.1078 -1.2723
24156SOL    HW284193  11.808   9.499   9.764 -1.2139  0.1973  1.1639
24157SOL     OW84194   2.182  11.184   4.398  0.7722  0.2318 -0.1978
24157SOL    HW184195   2.250  11.249   4.379 -1.2612  2.2008 -1.1354
24157SOL    HW284196   2.103  11.236   4.415 -0.8132 -1.9914 -0.3377
24158SOL     OW84197   3.000   2.442   1.171  0.0082  0.0180 -0.1327
24158SOL    HW184198   3.086   2.435   1.213 -0.5296  0.2592  1.0331
24158SOL    HW284199   3.016   2.497   1.094  0.5065  1.9174  1.2528
24159SOL     OW84200   5.869   1.233   0.664 -0.1605 -0.0344  0.7318
24159SOL    HW184201   5.873   1.328   0.678  3.9571  0.9127 -3.8535
24159SOL    HW284202   5.785   1.219   0.622  0.1090  2.2244 -0.7819
24160SOL     OW84203  11.253  10.518   7.811 -0.6946 -0.4997  0.3316
24160SOL    HW184204  11.218  10.436   7.844  2.1037 -1.3794  1.4024
24160SOL    HW284205  11.176  10.569   7.786 -2.5225 -3.8348 -1.5032
24161SOL     OW84206   5.074   7.439   2.356  0.2627  0.1555 -0.1206
24161SOL    HW184207   5.011   7.374   2.325 -0.4223  1.7757 -2.4194
24161SOL    HW284208   5.157   7.392   2.360 -0.5154 -1.2743  0.0704
24162SOL     OW84209   5.359   6.928   6.674  0.7169 -0.6498 -0.1166
24162SOL    HW184210   5.425   6.997   6.667  0.6129 -0.4584  0.6438
24162SOL    HW284211   5.349   6.894   6.585  1.7415 -0.5895 -0.2657
24163SOL     OW84212  11.948   6.449  11.177 -0.1406  0.0947  0.4133
24163SOL    HW184213  11.898   6.524  11.209  0.8710  1.0413 -0.1591
24163SOL    HW284214  11.981   6.407  11.256 -2.6906 -1.2302  0.8968
24164SOL     OW84215   2.691   1.752  10.488 -0.4556 -0.7301  0.4025
24164SOL    HW184216   2.772   1.703  10.502 -0.7739 -1.2085  0.5852
24164SOL    HW284217   2.694   1.823  10.552 -0.9286 -1.6839  1.5172
24165SOL     OW84218   2.100   3.032   4.865 -0.0328  0.1016 -0.1988
24165SOL    HW184219   2.169   3.065   4.807  1.3781 -2.0842  0.1226
24165SOL    HW284220   2.147   2.990   4.937 -1.6773 -1.6399 -0.0652
24166SOL     OW84221  11.512   4.030  11.254 -0.4221 -0.0635  0.0541
24166SOL    HW184222  11.500   4.114  11.298 -0.1165 -0.7570  1.5290
24166SOL    HW284223  11.425   4.006  11.222 -0.3104  1.3275 -1.4037
24167SOL     OW84224   4.756   0.378   8.007  0.6598 -0.3159  0.5464
24167SOL    HW184225   4.688   0.433   7.968 -0.4287 -2.1237 -0.1946
24167SOL    HW284226   4.808   0.439   8.060 -1.4071  1.1536  1.0038
24168SOL     OW84227   3.942   1.460   4.672 -0.1633 -0.1927  0.0839
24168SOL    HW184228   3.973   1.449   4.762 -2.4799 -1.0941  0.8263
24168SOL    HW284229   4.005   1.409   4.619  0.8743 -0.1496  1.2266
24169SOL     OW84230   0.166   4.220   2.581 -0.1005 -0.5080 -0.0431
24169SOL    HW184231   0.242   4.163   2.576 -0.3938 -1.1813  2.1774
24169SOL    HW284232   0.092   4.160   2.590 -0.7598  0.1808 -0.7119
24170SOL     OW84233   3.524   7.405   7.120 -0.4909 -0.2197  0.3127
24170SOL    HW184234   3.540   7.380   7.029 -1.1076  1.2666 -0.2249
24170SOL    HW284235   3.611   7.415   7.158 -0.2214  0.1867 -0.4057
24171SOL     OW84236   1.103   0.091   3.587 -0.2069  0.2784  0.0260
24171SOL    HW184237   1.197   0.108   3.580 -0.4777  2.5289  0.7324
24171SOL    HW284238   1.097   0.007   3.631  1.5018  0.2999  0.3929
24172SOL     OW84239   6.463   1.348  10.905  0.3500  0.2482  0.3071
24172SOL    HW184240   6.393   1.413  10.903 -0.1432 -0.2690  0.3464
24172SOL    HW284241   6.430   1.278  10.961 -0.9807 -2.0386 -2.9782
24173SOL     OW84242   6.317   6.557   7.791 -0.0485 -0.4298  0.6225
24173SOL    HW184243   6.390   6.516   7.839 -0.0650 -0.7860  0.3453
24173SOL    HW284244   6.355   6.634   7.750 -0.3118  0.6286  2.2609
24174SOL     OW84245   1.381   8.791   9.697 -0.3095 -0.7192  0.0419
24174SOL    HW184246   1.421   8.804   9.611 -2.5234 -0.5100 -1.0459
24174SOL    HW284247   1.399   8.700   9.718  0.6812 -0.6399 -0.4178
24175SOL     OW84248   1.525   1.376   2.638  0.4516 -0.3280  0.5331
24175SOL    HW184249   1.615   1.395   2.612  0.5931 -0.6860  0.7570
24175SOL    HW284250   1.514   1.422   2.721 -0.7521  2.8163 -1.2209
24176SOL     OW84251   7.179   3.017   5.701 -0.4613  0.2408 -0.3765
24176SOL    HW184252   7.258   2.984   5.658  0.1600 -0.7710  1.4555
24176SOL    HW284253   7.211   3.080   5.765 -0.7407 -2.4236  2.5943
24177SOL     OW84254   3.924   6.698   3.472  0.2697  0.4135  0.3297
24177SOL    HW184255   3.901   6.757   3.545  1.8494 -0.5183  1.6395
24177SOL    HW284256   3.840   6.682   3.428 -0.4924  2.1903  1.0167
24178SOL     OW84257   2.013   3.924   3.697 -0.2999 -0.0131  0.1689
24178SOL    HW184258   2.006   3.929   3.793 -0.4794 -0.7958  0.2076
24178SOL    HW284259   1.942   3.979   3.664 -0.1074  0.4281  0.4833
24179SOL     OW84260   0.283  11.786  10.304  0.2718 -0.5807 -0.0485
24179SOL    HW184261   0.282  11.807  10.397 -0.7269  0.6769 -0.3074
24179SOL    HW284262   0.349  11.844  10.267 -1.5248  1.2345 -0.5597
24180SOL     OW84263   9.215  11.570   8.323 -0.6168 -0.0564  0.9248
24180SOL    HW184264   9.216  11.660   8.289 -0.8195  0.4418  2.1658
24180SOL    HW284265   9.130  11.535   8.294 -0.9309  0.4692  1.1856
24181SOL     OW84266   1.437   2.612   0.286 -0.0846 -0.1055 -0.3136
24181SOL    HW184267   1.480   2.695   0.308 -0.2222  0.0089 -0.4687
24181SOL    HW284268   1.376   2.597   0.358  0.9445 -0.8055  0.4553
24182SOL     OW84269   6.818   6.224   9.562  0.2534 -0.0689  0.2567
24182SOL    HW184270   6.788   6.144   9.607  1.6256 -1.1140 -0.6164
24182SOL    HW284271   6.912   6.212   9.554  0.3747  1.3251 -0.5620
24183SOL     OW84272   7.969   2.955  10.420 -0.1841  0.3242 -0.0510
24183SOL    HW184273   7.920   2.927  10.343  0.3595 -1.3606  0.1687
24183SOL    HW284274   8.020   3.031  10.390 -0.3781  0.0193 -1.1935
24184SOL     OW84275   4.962   1.097   7.708 -0.2320  0.4208 -0.0902
24184SOL    HW184276   5.035   1.145   7.670 -0.1933  1.8325  1.6686
24184SOL    HW284277   4.986   1.082   7.799 -1.2461 -0.9537 -0.0012
24185SOL     OW84278   1.795   5.157   3.427  0.5134  0.5214  0.0954
24185SOL    HW184279   1.748   5.074   3.415  1.8427 -0.5565  1.9339
24185SOL    HW284280   1.803   5.167   3.521 -0.4066  3.2750 -0.0325
24186SOL     OW84281  11.501   5.310   5.445  0.7500  0.0207 -0.0004
24186SOL    HW184282  11.592   5.285   5.427  1.0385 -0.0465  1.4070
24186SOL    HW284283  11.449   5.235   5.415  1.0213  0.5582 -1.9489
24187SOL     OW84284  10.152   1.788  10.472 -0.3709  0.3934  0.0473
24187SOL    HW184285  10.193   1.840  10.402 -0.1798  1.7078  1.0826
24187SOL    HW284286  10.159   1.698  10.442  1.0504  0.7988 -0.9541
24188SOL     OW84287   7.323   5.826   8.963  0.0329 -0.7022  0.3684
24188SOL    HW184288   7.237   5.817   9.005 -0.2465 -1.2001 -0.2922
24188SOL    HW284289   7.309   5.793   8.874 -0.0671  2.6736 -1.0030
24189SOL     OW84290   0.329   8.002   6.112  0.1125 -0.1147 -0.5347
24189SOL    HW184291   0.404   7.950   6.142 -0.4887 -0.8777 -0.3095
24189SOL    HW284292   0.329   7.990   6.017  0.7429  0.5458 -0.6270
24190SOL     OW84293   4.048   8.667   5.055  0.2867 -0.1745 -0.1780
24190SOL    HW184294   4.019   8.594   5.000 -1.6638 -1.0338  1.8281
24190SOL    HW284295   4.043   8.633   5.144  1.4451  1.7666  0.6877
24191SOL     OW84296   6.363  11.864   5.468 -0.0410  1.0468 -0.3380
24191SOL    HW184297   6.436  11.875   5.407  1.1924 -0.7533  0.7212
24191SOL    HW284298   6.326  11.952   5.476  1.1946  1.7726 -1.8819
24192SOL     OW84299   8.218   7.488   5.437  0.3424 -0.1663 -0.3104
24192SOL    HW184300   8.278   7.420   5.469 -0.9810 -1.2415 -0.0333
24192SOL    HW284301   8.175   7.520   5.516  0.5036  0.5549 -0.5148
24193SOL     OW84302   6.921   4.976   9.887  0.7526  0.2086 -0.0624
24193SOL    HW184303   6.896   5.018   9.970 -0.3282 -0.4166 -0.0604
24193SOL    HW284304   6.892   4.885   9.896  2.3325 -0.3633 -0.3919
24194SOL     OW84305   7.340   3.509   2.839 -0.0832 -0.2743  0.2134
24194SOL    HW184306   7.419   3.530   2.888 -0.5289  0.2679  0.7111
24194SOL    HW284307   7.272   3.564   2.878 -0.4806  0.0413 -0.8957
24195SOL     OW84308   6.165   4.842   8.787  0.5776 -0.2127 -0.6301
24195SOL    HW184309   6.122   4.792   8.857 -1.2730 -0.4119 -1.8516
24195SOL    HW284310   6.160   4.785   8.710  0.5717  0.8853 -1.4677
24196SOL     OW84311   0.529   0.952   4.612  0.1611  0.1836  0.6454
24196SOL    HW184312   0.508   0.909   4.529 -0.9709  0.8399  0.5779
24196SOL    HW284313   0.574   0.884   4.663 -0.7216 -0.7814  0.1703
24197SOL     OW84314  11.166   6.223   8.296  0.1551  0.4529  0.2015
24197SOL    HW184315  11.257   6.229   8.326  0.8903 -0.6216 -1.6333
24197SOL    HW284316  11.138   6.135   8.324 -0.0649  0.4996  0.1292
24198SOL     OW84317   0.743   9.208   6.461  0.0515 -0.1685  0.1430
24198SOL    HW184318   0.835   9.214   6.434  0.6876 -0.1115  2.1497
24198SOL    HW284319   0.707   9.136   6.408  1.8100 -1.5495  0.7029
24199SOL     OW84320   5.435   5.546   4.701  0.0594 -0.5425 -0.5793
24199SOL    HW184321   5.449   5.604   4.627  0.3244 -0.8906 -0.8053
24199SOL    HW284322   5.451   5.458   4.666  1.2460 -0.6423  0.1322
24200SOL     OW84323   9.501   4.527  10.728 -0.2515  0.5051  0.3363
24200SOL    HW184324   9.474   4.603  10.676 -0.1633 -0.1593 -0.7011
24200SOL    HW284325   9.510   4.456  10.664 -1.4362 -0.6786  1.4374
24201SOL     OW84326   9.654   5.504   3.174  0.8804  0.2557  0.0152
24201SOL    HW184327   9.726   5.550   3.131  0.1497  2.1976  0.7669
24201SOL    HW284328   9.575   5.546   3.140  0.1756 -0.3878  0.8193
24202SOL     OW84329   1.802  11.764   1.092 -0.0316 -0.1744  0.3254
24202SOL    HW184330   1.884  11.811   1.104  0.0940 -0.3394  0.1262
24202SOL    HW284331   1.828  11.679   1.055 -0.2541 -0.3964  0.6686
24203SOL     OW84332   3.184   0.115   2.466 -0.4777 -0.2067  0.2809
24203SOL    HW184333   3.277   0.094   2.474 -0.6891 -0.9966  0.7338
24203SOL    HW284334   3.156   0.072   2.385 -0.3006  0.6177 -0.2339
24204SOL     OW84335   6.615   9.191   4.846 -0.0308 -0.2272 -0.4103
24204SOL    HW184336   6.669   9.250   4.793 -1.7472 -0.0705 -2.1207
24204SOL    HW284337   6.566   9.141   4.781 -1.1646 -1.0760  1.0658
24205SOL     OW84338   7.418   1.557   1.122 -0.0475 -0.0866  0.0375
24205SOL    HW184339   7.401   1.575   1.030  1.0303 -1.8388 -0.5747
24205SOL    HW284340   7.490   1.494   1.120 -0.0118 -0.1663  2.0857
24206SOL     OW84341  10.920   3.476   9.671 -0.1405  0.0637 -0.0143
24206SOL    HW184342  10.871   3.419   9.730 -0.8627  0.7659  0.0684
24206SOL    HW284343  10.868   3.478   9.591 -0.0661  0.5412 -0.0498
24207SOL     OW84344   4.944   4.308   6.026  0.2368  0.2898 -0.8482
24207SOL    HW184345   4.854   4.276   6.034  0.2841 -0.4252 -2.6639
24207SOL    HW284346   4.940   4.373   5.956  1.1788  0.0615 -1.1230
24208SOL     OW84347   7.543   3.774   7.257 -0.3221  0.1352  0.5683
24208SOL    HW184348   7.527   3.827   7.335 -0.5689 -0.5947  1.0224
24208SOL    HW284349   7.607   3.824   7.207 -0.2158  0.6479  1.2045
24209SOL     OW84350   5.507   7.522   6.195 -0.4071  0.3433  0.0191
24209SOL    HW184351   5.522   7.474   6.113 -0.1572  0.2159  0.1407
24209SOL    HW284352   5.418   7.557   6.186 -0.4630  0.1443 -0.2132
24210SOL     OW84353   2.941   4.670  10.553  0.1688 -0.1217  0.0100
24210SOL    HW184354   2.978   4.742  10.501  1.1891  0.4868  1.5084
24210SOL    HW284355   3.011   4.647  10.615 -2.0034  1.4716  3.3827
24211SOL     OW84356  10.997  11.798   4.670  0.3671  0.0915 -0.3773
24211SOL    HW184357  10.927  11.814   4.607 -0.5876 -0.5801  0.4879
24211SOL    HW284358  10.960  11.823   4.755  1.3550  0.2185  0.0331
24212SOL     OW84359   4.543   0.090   3.774  0.2008  1.0723 -0.3216
24212SOL    HW184360   4.466   0.072   3.719 -0.4632  0.5122  0.7582
24212SOL    HW284361   4.617   0.082   3.714 -0.5524  1.2173 -1.2980
24213SOL     OW84362   6.284  11.770   8.410  0.4352 -0.4194  0.4391
24213SOL    HW184363   6.356  11.830   8.392  0.8197 -1.1765 -0.6482
24213SOL    HW284364   6.240  11.808   8.486  0.7123  1.1792 -0.1567
24214SOL     OW84365   3.399  11.469   2.659  0.0011  0.0883  0.8133
24214SOL    HW184366   3.421  11.377   2.646 -0.4729  0.0160  0.5100
24214SOL    HW284367   3.325  11.467   2.720 -0.0551  0.2636  0.7497
24215SOL     OW84368   4.589   5.190  11.177 -0.5241 -0.0161  0.2856
24215SOL    HW184369   4.541   5.118  11.219 -0.2496 -1.3810 -1.5949
24215SOL    HW284370   4.610   5.250  11.248 -0.7340 -1.8289  1.9603
24216SOL     OW84371   2.696   8.244   7.264 -0.0603  0.1671  0.2170
24216SOL    HW184372   2.756   8.173   7.288  2.3852  1.2017 -2.2958
24216SOL    HW284373   2.655   8.215   7.183 -0.0060  1.0832 -0.1482
24217SOL     OW84374   4.716   7.622   8.063  0.4750  0.2160  0.1357
24217SOL    HW184375   4.799   7.668   8.049  0.6959 -0.7392 -1.9639
24217SOL    HW284376   4.683   7.605   7.975 -0.8155 -1.4808  0.9056
24218SOL     OW84377   1.741   7.118   5.520 -0.2733 -0.7335 -0.0205
24218SOL    HW184378   1.820   7.063   5.525  1.7635  1.9871  0.1802
24218SOL    HW284379   1.739   7.165   5.603 -0.3006  1.4753 -1.1961
24219SOL     OW84380   0.216   4.819  10.672 -0.7040 -0.1321 -0.2464
24219SOL    HW184381   0.215   4.841  10.765  0.2160 -0.3370 -0.1840
24219SOL    HW284382   0.308   4.813  10.649 -0.8612 -2.4968 -0.5788
24220SOL     OW84383   4.505   2.875   1.983 -0.5417  0.3276 -0.1310
24220SOL    HW184384   4.531   2.828   1.904  0.0442 -1.6228  1.1550
24220SOL    HW284385   4.587   2.900   2.025 -0.7731 -0.8813  1.1021
24221SOL     OW84386   5.121   9.453   6.322 -0.3363 -0.3114 -0.2470
24221SOL    HW184387   5.068   9.518   6.368 -1.1876 -0.5748 -0.8354
24221SOL    HW284388   5.159   9.501   6.248 -1.5194 -0.6139 -1.0844
24222SOL     OW84389   4.365   0.819   6.624 -0.6458 -0.2715  0.0482
24222SOL    HW184390   4.295   0.857   6.677 -1.7884 -0.2591 -1.4155
24222SOL    HW284391   4.320   0.758   6.565  0.4783  0.1861 -1.3330
24223SOL     OW84392   4.797   9.893   6.308 -0.1628  0.2129 -0.1136
24223SOL    HW184393   4.881   9.928   6.280 -0.7034  0.2077 -1.8418
24223SOL    HW284394   4.786   9.925   6.398  0.8050  1.8094 -0.5352
24224SOL     OW84395  10.785   3.847   4.729 -0.6346  0.4378 -0.4312
24224SOL    HW184396  10.834   3.855   4.647 -1.1454  0.4273 -0.7378
24224SOL    HW284397  10.724   3.920   4.728 -1.9640 -0.6467 -0.9687
24225SOL     OW84398  10.811  11.089   6.567 -0.1095 -0.0676 -0.6071
24225SOL    HW184399  10.741  11.025   6.552 -0.3213 -0.0175  0.1291
24225SOL    HW284400  10.773  11.173   6.543 -0.3325 -0.0329 -0.1490
24226SOL     OW84401   9.926   4.829  11.084  0.3328  0.1259  0.1007
24226SOL    HW184402   9.958   4.841  10.994 -0.3154  0.3609 -0.1060
24226SOL    HW284403   9.859   4.896  11.094  1.8995  1.5673  1.5294
24227SOL     OW84404  10.151   1.391   3.141 -0.5124 -0.1370 -0.4211
24227SOL    HW184405  10.158   1.442   3.060  3.3093 -0.8635 -0.7199
24227SOL    HW284406  10.179   1.452   3.209  0.8730 -0.8081 -0.3502
24228SOL     OW84407  10.525   3.591   7.576 -0.1411 -0.4089  0.3492
24228SOL    HW184408  10.550   3.592   7.668  1.0809 -1.3472  0.0520
24228SOL    HW284409  10.578   3.521   7.537 -2.2790 -1.6005 -0.6163
24229SOL     OW84410   4.405   4.106   2.103 -0.2712  0.2391 -0.6584
24229SOL    HW184411   4.310   4.111   2.114 -0.4816  0.0524 -2.1995
24229SOL    HW284412   4.419   4.107   2.009  1.2405 -0.2128 -0.4729
24230SOL     OW84413  11.867   2.970   9.510 -0.3221  0.7031  0.4654
24230SOL    HW184414  11.911   2.936   9.588  1.7492  0.9617 -0.5234
24230SOL    HW284415  11.791   3.017   9.544 -2.3672 -3.2543  2.0298
24231SOL     OW84416   1.920   4.231   7.840  0.0091  0.1194  0.6327
24231SOL    HW184417   1.825   4.234   7.855 -0.0242 -0.5397  0.5963
24231SOL    HW284418   1.931   4.164   7.773  0.3657  1.3082 -0.5363
24232SOL     OW84419   1.958   3.545   8.095 -0.0018  0.5073 -0.0674
24232SOL    HW184420   2.051   3.532   8.114  0.1202 -1.4615 -1.6284
24232SOL    HW284421   1.956   3.614   8.029  0.4433  0.0598 -0.5611
24233SOL     OW84422   8.943  11.713   4.211 -0.1976 -0.0721  0.5885
24233SOL    HW184423   8.964  11.697   4.302 -0.4850  1.7792  1.0255
24233SOL    HW284424   8.858  11.757   4.213 -0.3737 -0.3061 -0.5967
24234SOL     OW84425   8.360   5.813  11.913  0.8725  0.2120  0.2595
24234SOL    HW184426   8.340   5.848  12.000  1.2014  2.3492 -0.4421
24234SOL    HW284427   8.418   5.879  11.874 -1.0716  0.5048 -2.4295
24235SOL     OW84428   7.341   6.089   2.196  0.8717 -0.5401  0.1373
24235SOL    HW184429   7.261   6.071   2.147 -0.1494  1.8141  0.8321
24235SOL    HW284430   7.342   6.022   2.265  0.7180 -1.9564 -1.1689
24236SOL     OW84431   3.902   8.179   6.498  0.2544  0.4561  0.0808
24236SOL    HW184432   3.922   8.267   6.466 -2.2243  0.1912 -2.4975
24236SOL    HW284433   3.825   8.191   6.553 -0.1690 -0.1176 -0.3861
24237SOL     OW84434   9.006   4.401   4.283 -0.2738  0.2707 -0.5472
24237SOL    HW184435   8.952   4.349   4.223 -1.0962  2.1342 -1.5345
24237SOL    HW284436   9.014   4.486   4.239  1.2260  0.9117  0.8617
24238SOL     OW84437   6.125   6.392   0.575  0.0555 -0.1013 -0.0506
24238SOL    HW184438   6.086   6.465   0.623 -0.5685  0.6587 -1.6480
24238SOL    HW284439   6.054   6.329   0.566  0.6511 -1.0717  1.5204
24239SOL     OW84440   3.897   0.324   5.644 -0.3212 -0.0300 -0.5826
24239SOL    HW184441   3.877   0.355   5.732 -3.1360  0.4480 -1.2973
24239SOL    HW284442   3.857   0.238   5.638 -3.5512  1.4101 -2.4338
24240SOL     OW84443   2.072   3.568   6.120 -0.3831 -0.1103  0.0186
24240SOL    HW184444   2.150   3.596   6.071 -1.4092  2.2138 -0.4306
24240SOL    HW284445   1.998   3.599   6.067 -1.5581  0.2997  1.8058
24241SOL     OW84446   3.340  11.857   8.336 -0.0116 -0.0411 -0.2273
24241SOL    HW184447   3.303  11.935   8.294  0.4256 -0.1871 -0.9094
24241SOL    HW284448   3.275  11.832   8.402  0.3599  1.5542  0.8013
24242SOL     OW84449   4.892   1.841   2.664 -0.0488  0.0750  0.1379
24242SOL    HW184450   4.834   1.901   2.711 -1.9914 -1.3291 -0.3788
24242SOL    HW284451   4.839   1.764   2.646  1.7260 -0.9293 -1.1602
24243SOL     OW84452   0.532   9.114  10.100  0.2113 -0.3723  0.1685
24243SOL    HW184453   0.469   9.059  10.148  1.8672 -1.6190  1.0245
24243SOL    HW284454   0.606   9.055  10.082  1.6585  1.3290  0.2939
24244SOL     OW84455   9.170   9.701   6.822  0.0205 -0.3258 -0.0596
24244SOL    HW184456   9.193   9.719   6.913  0.2501  0.1673 -0.2146
24244SOL    HW284457   9.196   9.609   6.809 -0.0342 -0.4053  0.3760
24245SOL     OW84458   8.734   7.568   8.986 -0.0289 -0.2179  0.2605
24245SOL    HW184459   8.806   7.522   9.030  0.4386 -0.2487 -0.5339
24245SOL    HW284460   8.675   7.498   8.957 -1.1329 -0.1494  2.1232
24246SOL     OW84461   6.694   8.585   1.318  0.3505  0.0814  0.1930
24246SOL    HW184462   6.741   8.530   1.380  0.2176 -0.6345 -0.3312
24246SOL    HW284463   6.730   8.672   1.331  0.1808 -0.0103  1.4187
24247SOL     OW84464   2.377  11.754   4.824 -0.3664 -0.2976  0.2085
24247SOL    HW184465   2.315  11.743   4.752  0.0689 -0.8478 -0.0782
24247SOL    HW284466   2.403  11.665   4.848  0.3297 -0.0686  0.3197
24248SOL     OW84467   9.311   5.837   4.580  0.2519 -0.2989 -0.5916
24248SOL    HW184468   9.228   5.854   4.535  0.3616  1.7057 -0.1125
24248SOL    HW284469   9.296   5.757   4.630 -2.2419  1.2916  1.4024
24249SOL     OW84470   3.627   7.658   1.230 -0.2073  0.6661 -0.7009
24249SOL    HW184471   3.597   7.742   1.266  0.7230 -0.0601  2.0610
24249SOL    HW284472   3.693   7.682   1.165  0.9193  2.1263  0.8786
24250SOL     OW84473   3.092   1.358   5.927  0.1092  0.0705  0.2116
24250SOL    HW184474   3.143   1.418   5.873  0.5326 -0.7302 -0.3007
24250SOL    HW284475   3.154   1.326   5.992  0.2357 -0.7819 -0.3123
24251SOL     OW84476   1.627   5.010   9.481  0.0641 -0.3062 -0.1354
24251SOL    HW184477   1.632   5.088   9.425  0.7375  0.8696  1.4909
24251SOL    HW284478   1.711   5.009   9.527 -1.0452 -0.3007  2.0225
24252SOL     OW84479  10.842   5.687   6.261  0.5349 -0.1035 -0.5792
24252SOL    HW184480  10.855   5.642   6.344 -0.5848  0.4615 -0.0718
24252SOL    HW284481  10.778   5.633   6.214  0.9151 -0.2455 -0.9408
24253SOL     OW84482   1.346  11.665   4.659 -0.2973  0.4018 -0.4561
24253SOL    HW184483   1.283  11.642   4.591  1.0156 -2.0562 -0.9501
24253SOL    HW284484   1.410  11.721   4.615 -0.7504  0.8454 -0.5705
24254SOL     OW84485   4.593   2.155   7.419  0.6360  0.3777  0.7848
24254SOL    HW184486   4.520   2.166   7.357  1.3085  0.2477 -0.0462
24254SOL    HW284487   4.611   2.244   7.450  1.1235  0.6272 -0.1819
24255SOL     OW84488   6.280   0.956   8.360 -0.5636  0.0273 -0.3796
24255SOL    HW184489   6.275   1.028   8.298 -1.4228 -0.3181 -0.7275
24255SOL    HW284490   6.316   0.995   8.439 -2.5351  1.2544 -0.0050
24256SOL     OW84491   5.106   8.407   3.564 -0.1265 -0.3389  0.3154
24256SOL    HW184492   5.186   8.360   3.541  0.5273 -0.0211  1.8108
24256SOL    HW284493   5.131   8.461   3.639 -1.8673 -0.5881  1.1229
24257SOL     OW84494   9.823   6.013   5.278 -0.0321 -0.4657 -0.0676
24257SOL    HW184495   9.768   5.934   5.286 -0.0784 -0.4633 -0.3725
24257SOL    HW284496   9.761   6.085   5.267 -0.0076 -0.3268  0.6472
24258SOL     OW84497   8.887   1.297   4.160 -0.0327 -0.5127  0.2468
24258SOL    HW184498   8.858   1.380   4.198  0.8826 -0.6615  1.3400
24258SOL    HW284499   8.955   1.323   4.097  0.2546 -0.4332  0.5889
24259SOL     OW84500  10.431   1.581   0.068 -0.3599 -0.1302 -0.2292
24259SOL    HW184501  10.387   1.548  -0.010 -0.5194 -0.7977  0.1335
24259SOL    HW284502  10.476   1.661   0.039  0.2552 -0.8104 -1.1897
24260SOL     OW84503   8.548   6.353  10.705  0.5265  0.2244 -0.4943
24260SOL    HW184504   8.630   6.327  10.747  0.1224  0.6331  0.5760
24260SOL    HW284505   8.495   6.390  10.776 -0.6766 -0.2275 -1.1269
24261SOL     OW84506   3.725   9.273   2.476 -1.0905 -0.2014  0.0090
24261SOL    HW184507   3.745   9.247   2.387 -0.7601  0.4571 -0.1215
24261SOL    HW284508   3.726   9.192   2.526  2.7039 -0.2614  0.1602
24262SOL     OW84509   3.704   2.247   9.570  0.0402  0.2018  0.0198
24262SOL    HW184510   3.680   2.272   9.480  1.8376 -0.9693 -0.8546
24262SOL    HW284511   3.720   2.153   9.565  0.6363  0.1957  1.4615
24263SOL     OW84512   9.016   1.110   3.893  0.6901  0.3903  0.1397
24263SOL    HW184513   9.076   1.109   3.968 -0.2679 -0.7363  0.9242
24263SOL    HW284514   9.035   1.029   3.847 -0.3414 -0.0631  0.4974
24264SOL     OW84515   6.646   8.601   9.993 -0.2254 -0.4481 -0.0452
24264SOL    HW184516   6.712   8.631   9.930 -0.2854  1.3465  0.6969
24264SOL    HW284517   6.694   8.590  10.075 -0.5396 -0.7569  0.0988
24265SOL     OW84518   4.702   3.281   4.690  0.8834  0.1197 -0.6593
24265SOL    HW184519   4.792   3.253   4.674  1.1614  0.4248  0.2800
24265SOL    HW284520   4.682   3.249   4.778  0.5329  1.1541 -0.3474
24266SOL     OW84521   2.973   6.084  11.362  0.2549  0.1066 -0.9948
24266SOL    HW184522   2.881   6.058  11.370  0.4358 -0.4982 -0.8584
24266SOL    HW284523   3.007   6.030  11.290  1.3364 -2.0542  1.0192
24267SOL     OW84524  11.578   2.762   3.769 -0.1714  0.1895  0.0280
24267SOL    HW184525  11.492   2.722   3.773 -0.8392  1.6825  2.6037
24267SOL    HW284526  11.567   2.838   3.712 -0.3574 -0.0587 -0.2682
24268SOL     OW84527   9.818   3.855   3.652  0.0472 -0.1051  0.5436
24268SOL    HW184528   9.812   3.948   3.672  0.7162 -0.1061  0.7787
24268SOL    HW284529   9.825   3.813   3.738  1.4725 -0.2264  0.3878
24269SOL     OW84530   8.614   3.019   7.117  0.5198  0.2697  0.2325
24269SOL    HW184531   8.657   3.101   7.094  0.4412  0.3885  0.5076
24269SOL    HW284532   8.521   3.038   7.112  0.4995  0.1380  0.0913
24270SOL     OW84533   5.265   8.943   1.109  0.0223 -0.0872 -0.0116
24270SOL    HW184534   5.189   8.920   1.056 -0.3279  0.3103  0.3077
24270SOL    HW284535   5.328   8.981   1.047  0.5929 -1.8173 -0.5418
24271SOL     OW84536   6.916   4.106   9.625  0.3330 -0.3594 -0.1616
24271SOL    HW184537   6.829   4.138   9.603  0.2662 -0.4586 -0.0426
24271SOL    HW284538   6.918   4.105   9.721  1.0172  1.1706 -0.1229
24272SOL     OW84539   5.593   5.062   3.593  0.5055 -0.6955 -0.3251
24272SOL    HW184540   5.605   5.142   3.643  0.7711 -0.7366 -0.3251
24272SOL    HW284541   5.627   4.993   3.650  1.3980 -0.6726 -0.8220
24273SOL     OW84542   4.325   1.876   8.998 -0.0712 -0.6786  0.1142
24273SOL    HW184543   4.420   1.869   8.988  0.1000 -0.5122  1.4525
24273SOL    HW284544   4.290   1.839   8.917  1.1326 -0.4659 -0.5374
24274SOL     OW84545   2.765   9.520   2.796 -0.2948 -0.4789 -0.3172
24274SOL    HW184546   2.687   9.523   2.851  0.4460 -0.3876  0.7620
24274SOL    HW284547   2.732   9.503   2.708 -1.4125 -1.9711  0.3553
24275SOL     OW84548   5.705   6.855   7.270  0.1099 -0.0726 -0.1402
24275SOL    HW184549   5.761   6.930   7.249 -2.1952  1.6346 -0.6177
24275SOL    HW284550   5.712   6.845   7.365 -0.3412  1.5061  0.0958
24276SOL     OW84551   5.302   8.292   9.364  0.1811  0.6653 -0.3503
24276SOL    HW184552   5.228   8.293   9.423  0.6888 -1.0551  0.3876
24276SOL    HW284553   5.379   8.287   9.421  0.9654  3.0054 -1.0680
24277SOL     OW84554   7.448   8.674   9.882  0.0983  0.1879 -0.2794
24277SOL    HW184555   7.392   8.601   9.857 -0.1627  0.3200 -0.0879
24277SOL    HW284556   7.387   8.745   9.903  0.3504  1.0200 -2.0945
24278SOL     OW84557   0.475   1.140   5.029 -0.4000  0.1466 -0.0896
24278SOL    HW184558   0.408   1.075   5.050 -0.5627  0.5497  0.6643
24278SOL    HW284559   0.478   1.141   4.933 -1.8019  0.4581 -0.1448
24279SOL     OW84560   8.243  10.562   2.810  0.2940 -0.1708 -0.0520
24279SOL    HW184561   8.337  10.542   2.814  0.3284  0.0549  0.3009
24279SOL    HW284562   8.237  10.632   2.745  0.2500 -0.8681 -0.8084
24280SOL     OW84563  11.480   5.158   2.988  0.0815 -0.0792 -0.0593
24280SOL    HW184564  11.524   5.073   2.979  1.3718  0.5481  0.1124
24280SOL    HW284565  11.477   5.175   3.082 -1.4749 -0.5618  0.0133
24281SOL     OW84566   1.730   0.579   2.310 -0.1138 -0.0371 -0.5725
24281SOL    HW184567   1.677   0.500   2.319 -1.8936  0.9907 -1.4724
24281SOL    HW284568   1.701   0.618   2.228  1.3833  1.0932 -0.6062
24282SOL     OW84569   1.672   9.257   9.133 -0.2573  0.3252 -0.4115
24282SOL    HW184570   1.630   9.343   9.142  2.4497  1.7409 -0.1890
24282SOL    HW284571   1.673   9.240   9.039 -0.3342  0.7917 -0.4977
24283SOL     OW84572   0.683   6.614   1.733 -0.1074 -0.1250 -0.3121
24283SOL    HW184573   0.595   6.582   1.754  0.8390 -3.7410 -1.0997
24283SOL    HW284574   0.741   6.549   1.773  2.3763  3.1162  1.7668
24284SOL     OW84575   8.969   0.998   4.936 -0.4381 -1.2526  0.1004
24284SOL    HW184576   9.038   0.940   4.903 -0.5995 -0.9475 -0.7937
24284SOL    HW284577   9.010   1.085   4.938 -0.8923 -1.0008 -0.8060
24285SOL     OW84578   5.595   2.577  10.708  0.2024  0.2807  0.1965
24285SOL    HW184579   5.538   2.568  10.784  0.6471 -0.4763  0.4428
24285SOL    HW284580   5.543   2.629  10.646 -0.3023  0.5949  0.8655
24286SOL     OW84581   8.214   0.038   0.575  0.5353  0.4952 -0.5305
24286SOL    HW184582   8.132  -0.010   0.560  0.3625 -0.2266  2.2112
24286SOL    HW284583   8.277  -0.029   0.600  0.8933  1.4041  1.1737
24287SOL     OW84584   6.447   2.810  11.326 -0.5806  0.0504 -0.2780
24287SOL    HW184585   6.528   2.815  11.275 -0.7419 -0.0655 -0.5430
24287SOL    HW284586   6.451   2.887  11.384 -0.0772 -0.1899  0.0134
24288SOL     OW84587  11.243   5.514   4.217 -0.2681  0.3909 -0.0082
24288SOL    HW184588  11.257   5.497   4.123 -1.1509  0.1398 -0.0970
24288SOL    HW284589  11.165   5.569   4.220 -0.1720  0.4977  0.5795
24289SOL     OW84590   8.150   8.795   9.015  0.4000  0.6809 -0.2301
24289SOL    HW184591   8.086   8.818   9.083  0.5547 -1.1593  0.6019
24289SOL    HW284592   8.229   8.771   9.064  0.0229 -2.2832 -0.8448
24290SOL     OW84593   5.350   5.909   6.646  0.7258  0.3196  0.2885
24290SOL    HW184594   5.341   5.945   6.734 -1.3278  1.0275 -0.1511
24290SOL    HW284595   5.280   5.843   6.641  1.4477 -0.3986 -0.4994
24291SOL     OW84596   7.897   7.205   6.770  0.5414 -0.4744  0.5038
24291SOL    HW184597   7.852   7.287   6.750 -0.3197  0.0510  3.9332
24291SOL    HW284598   7.885   7.193   6.864 -0.2342 -5.0678  0.1050
24292SOL     OW84599   0.243   5.168   5.056 -0.1614 -0.0678  0.2174
24292SOL    HW184600   0.199   5.097   5.009  1.0064  0.2300 -1.3937
24292SOL    HW284601   0.306   5.203   4.993  0.5562  1.2131  1.5981
24293SOL     OW84602   1.014   9.559   7.560  0.3730  0.1336 -0.4153
24293SOL    HW184603   1.051   9.478   7.597 -2.5505 -0.8615  0.6046
24293SOL    HW284604   1.012   9.543   7.466 -0.0384 -0.9724 -0.2404
24294SOL     OW84605   3.300   6.013   2.071 -0.1010  0.2896  0.0649
24294SOL    HW184606   3.302   6.039   2.163 -0.1449  1.9726 -0.3736
24294SOL    HW284607   3.207   6.006   2.050 -0.1789  2.3338 -0.4500
24295SOL     OW84608   1.651   7.840   8.488 -0.3256 -0.2316 -0.2867
24295SOL    HW184609   1.652   7.915   8.549  0.3435  0.6107 -1.2938
24295SOL    HW284610   1.569   7.849   8.441 -0.5578 -0.5268  0.0586
24296SOL     OW84611   4.465   8.552   8.074 -0.0949 -0.6965 -0.3512
24296SOL    HW184612   4.393   8.615   8.072  1.0420  0.6632 -0.1817
24296SOL    HW284613   4.425   8.468   8.049 -1.4757  0.2652 -1.5107
24297SOL     OW84614   0.844   2.643  10.109 -0.0252 -0.1408  0.1069
24297SOL    HW184615   0.784   2.596  10.052 -1.1020  1.8286 -0.4735
24297SOL    HW284616   0.883   2.575  10.165 -0.0791 -1.9304 -1.9065
24298SOL     OW84617   3.555   7.513  10.323  0.7851  0.3398  0.3174
24298SOL    HW184618   3.577   7.555  10.240  0.2096 -1.1518 -0.6507
24298SOL    HW284619   3.640   7.493  10.363  1.0878  0.3391 -0.3147
24299SOL     OW84620   6.758  10.818   8.527 -0.1067  0.1510 -0.5043
24299SOL    HW184621   6.832  10.792   8.582 -0.6858 -0.6904 -0.0881
24299SOL    HW284622   6.681  10.788   8.576 -0.7453  1.3556 -0.7385
24300SOL     OW84623   7.258  10.848   7.438 -0.1493 -0.5500  0.0318
24300SOL    HW184624   7.331  10.787   7.429 -0.1555 -0.3965 -1.2033
24300SOL    HW284625   7.232  10.868   7.348 -0.1281  1.3100  0.4087
24301SOL     OW84626   8.637  10.808   8.439 -0.0863 -0.3512  0.2542
24301SOL    HW184627   8.628  10.761   8.356 -0.6424 -1.8076  1.1044
24301SOL    HW284628   8.700  10.756   8.489  0.6090  0.7742  0.5803
24302SOL     OW84629   4.948   4.570  11.063  0.1490 -0.3577  0.0035
24302SOL    HW184630   4.896   4.557  10.983  1.2293  3.1473 -1.4620
24302SOL    HW284631   4.903   4.641  11.109  0.1770 -1.5843  2.0015
24303SOL     OW84632   7.133  11.941  10.398 -0.2011 -0.7177  0.6865
24303SOL    HW184633   7.181  11.929  10.317  0.5835  0.8776  0.8799
24303SOL    HW284634   7.041  11.924  10.375 -0.1932  1.1386 -0.8936
24304SOL     OW84635  11.829   0.302   3.846  0.4871 -0.0267 -0.6463
24304SOL    HW184636  11.828   0.208   3.865 -1.0566  0.2807  1.1201
24304SOL    HW284637  11.908   0.315   3.795  0.9240 -2.2375 -0.6509
24305SOL     OW84638   4.613   5.597   0.501 -0.0995 -0.1395 -0.2287
24305SOL    HW184639   4.644   5.652   0.428  1.4052  1.5288  1.5564
24305SOL    HW284640   4.619   5.508   0.468  1.3450  0.5100 -1.8915
24306SOL     OW84641   3.770   3.933   7.175 -0.2249  0.3624 -0.3029
24306SOL    HW184642   3.837   3.993   7.140  0.6655 -0.0667  0.6120
24306SOL    HW284643   3.820   3.866   7.220 -1.2547 -0.6537 -0.6436
24307SOL     OW84644   6.263  11.927   6.267  0.2544  0.5772  0.3497
24307SOL    HW184645   6.215  11.845   6.272 -0.1452  0.8808  1.8250
24307SOL    HW284646   6.247  11.970   6.351  2.0398  1.2779  0.3814
24308SOL     OW84647   1.644   3.026   2.262 -0.0757 -0.0525 -0.3053
24308SOL    HW184648   1.632   2.958   2.196  1.2617 -0.2302 -0.4001
24308SOL    HW284649   1.599   2.994   2.339 -2.1762  0.4208 -1.2742
24309SOL     OW84650   6.729   3.026  11.782 -0.4132 -0.2619  0.1392
24309SOL    HW184651   6.761   2.944  11.819 -0.4513  0.7514  2.5911
24309SOL    HW284652   6.635   3.024  11.797 -0.7166 -0.5801 -1.5842
24310SOL     OW84653  10.352   8.831   4.585  0.0918 -0.5281  0.4327
24310SOL    HW184654  10.428   8.845   4.528 -0.1023  0.4629  0.4092
24310SOL    HW284655  10.384   8.848   4.673 -0.2464  0.5336  0.3648
24311SOL     OW84656   0.826   0.151   3.545 -0.3031  0.0472  0.3981
24311SOL    HW184657   0.810   0.223   3.484 -1.4870 -1.3873 -1.0866
24311SOL    HW284658   0.918   0.129   3.532 -0.9714 -1.5223 -2.4821
24312SOL     OW84659   6.139   8.089   5.827  0.6972  0.6777  0.1508
24312SOL    HW184660   6.188   8.012   5.857  1.8877  0.3998 -2.2508
24312SOL    HW284661   6.188   8.119   5.751  0.9512  4.5560  1.6404
24313SOL     OW84662   7.046  11.082   0.800  0.2864 -0.4456  0.4456
24313SOL    HW184663   6.952  11.072   0.790  0.3360 -0.7007  0.2466
24313SOL    HW284664   7.068  11.030   0.878  0.1353  0.3090  1.0125
24314SOL     OW84665   4.700   8.490  11.429  0.2845 -0.3067 -0.0854
24314SOL    HW184666   4.660   8.555  11.487 -0.0815  0.5967 -1.3297
24314SOL    HW284667   4.654   8.408  11.450  0.4674 -0.1087  1.1987
24315SOL     OW84668   4.425   3.974   0.656  0.1103 -0.5294 -0.0238
24315SOL    HW184669   4.410   3.880   0.641 -0.0867 -0.4215 -0.5052
24315SOL    HW284670   4.510   3.978   0.699  0.1309 -0.9283 -0.0249
24316SOL     OW84671  11.337   5.731   3.923 -0.5572 -0.4805 -0.4687
24316SOL    HW184672  11.360   5.783   4.000 -1.3884  1.0961 -1.2485
24316SOL    HW284673  11.254   5.767   3.894 -0.7918 -1.7803 -1.4813
24317SOL     OW84674   7.158   6.800   4.539  0.0584 -0.6327 -0.2531
24317SOL    HW184675   7.141   6.828   4.449 -0.1792 -2.7198 -0.9206
24317SOL    HW284676   7.253   6.788   4.543  0.0275 -0.9462 -0.3791
24318SOL     OW84677   9.246   9.391  11.248  0.1598  0.3711 -0.4737
24318SOL    HW184678   9.244   9.295  11.245 -1.2771  0.3855 -3.4257
24318SOL    HW284679   9.168   9.415  11.298 -0.0585 -0.0014 -0.6310
24319SOL     OW84680   8.797   4.046   2.618 -0.3160  0.3185 -0.6612
24319SOL    HW184681   8.809   4.133   2.579  1.1912 -0.2040 -1.4717
24319SOL    HW284682   8.835   4.054   2.706  0.6742  0.2651 -1.0667
24320SOL     OW84683   5.384   0.695   6.172  0.0769 -0.2189 -0.0414
24320SOL    HW184684   5.355   0.619   6.223  0.7049 -0.4491 -0.0179
24320SOL    HW284685   5.407   0.761   6.238 -2.8266  0.9656 -0.0355
24321SOL     OW84686   5.945  10.703   1.119 -0.0477  0.3388  0.0574
24321SOL    HW184687   5.977  10.722   1.207  0.7339  1.0644 -0.3715
24321SOL    HW284688   6.024  10.684   1.069 -0.6061 -1.8009 -0.0992
24322SOL     OW84689   7.990   5.812   0.025  0.6241 -0.1033  0.4335
24322SOL    HW184690   8.002   5.880   0.092  1.6552 -0.1826  0.3480
24322SOL    HW284691   8.047   5.839  -0.047 -1.1684  0.4713 -0.8235
24323SOL     OW84692   0.641  11.925   4.110  0.3195  0.1454 -0.7779
24323SOL    HW184693   0.667  11.914   4.201  0.6351  1.6005 -0.6707
24323SOL    HW284694   0.634  12.019   4.098  1.5113  0.0457 -2.6048
24324SOL     OW84695   7.266   7.166   9.514  0.0654 -0.0353 -0.4723
24324SOL    HW184696   7.285   7.259   9.530 -0.2443  0.2055 -1.3883
24324SOL    HW284697   7.342   7.134   9.467 -0.2084 -0.0025 -0.9495
24325SOL     OW84698  11.353   6.297   7.782  0.0597 -0.0129 -0.2548
24325SOL    HW184699  11.267   6.263   7.759 -0.0483  0.3702 -0.4221
24325SOL    HW284700  11.342   6.334   7.870  0.5608 -1.8073  0.6146
24326SOL     OW84701   6.367   1.174   9.549 -0.6290 -0.4742  0.4023
24326SOL    HW184702   6.443   1.142   9.500  0.2184 -0.1841  1.4894
24326SOL    HW284703   6.365   1.119   9.627 -0.9908  0.1160  0.8128
24327SOL     OW84704   1.288   7.220   8.623 -0.0934 -0.3557 -0.0131
24327SOL    HW184705   1.318   7.291   8.566 -0.8415  0.2956  0.3773
24327SOL    HW284706   1.219   7.176   8.572  0.0694 -0.5279 -0.0840
24328SOL     OW84707   4.124  11.501   3.804 -0.2379  0.5531 -0.5184
24328SOL    HW184708   4.077  11.430   3.761 -1.5982  0.4994  1.0016
24328SOL    HW284709   4.058  11.567   3.823  0.1720  0.3624  1.9224
24329SOL     OW84710   7.025   1.033   9.125  0.0713 -0.5660  0.2417
24329SOL    HW184711   7.046   0.968   9.191  2.9012  0.5132  0.5146
24329SOL    HW284712   7.054   1.116   9.162  0.2094  0.3006 -1.6724
24330SOL     OW84713   1.990  10.366   8.105 -0.4311 -0.0314  0.2903
24330SOL    HW184714   2.030  10.302   8.164  0.7062  0.1794 -0.2386
24330SOL    HW284715   1.896  10.361   8.125 -0.0742  0.1667  2.2428
24331SOL     OW84716   7.658   6.352   0.201  0.3430 -0.4139 -0.1054
24331SOL    HW184717   7.749   6.335   0.224  0.5517  0.0965 -0.5443
24331SOL    HW284718   7.612   6.272   0.226  0.4404  0.2954  2.6236
24332SOL     OW84719  11.666   4.861  11.619  0.7356 -0.2521  0.2853
24332SOL    HW184720  11.636   4.826  11.534 -0.7263  0.4921  0.4578
24332SOL    HW284721  11.757   4.886  11.604  0.9726 -1.5516 -0.6232
24333SOL     OW84722   5.792   9.565   8.047  0.2678  0.0288  0.3095
24333SOL    HW184723   5.874   9.531   8.013 -0.2018 -0.3101 -0.5220
24333SOL    HW284724   5.759   9.497   8.106  0.3217 -0.0777  0.2168
24334SOL     OW84725   1.942  11.846   2.709  0.3854 -0.1140 -0.2956
24334SOL    HW184726   1.925  11.759   2.744  0.3308 -0.6053 -1.4802
24334SOL    HW284727   2.020  11.835   2.654  1.5196  1.0038  1.0131
24335SOL     OW84728   2.677   0.019   8.760  0.1421 -0.6701 -0.4848
24335SOL    HW184729   2.720  -0.066   8.750 -1.0614 -1.1730 -1.6212
24335SOL    HW284730   2.676   0.057   8.672  0.8922  0.6692  0.0423
24336SOL     OW84731   3.599   0.501   0.695 -0.0835 -0.5105 -0.0046
24336SOL    HW184732   3.558   0.576   0.737  0.1861 -0.5773  0.3867
24336SOL    HW284733   3.570   0.426   0.746  0.4511 -0.5657  0.2264
24337SOL     OW84734   3.351   5.602   9.780 -0.1327  0.2459 -0.5611
24337SOL    HW184735   3.368   5.696   9.789  0.0289  0.0554  1.7375
24337SOL    HW284736   3.375   5.565   9.865 -0.0086 -1.9224 -1.4751
24338SOL     OW84737   4.956   6.464   4.422 -0.1805 -0.1894 -0.2578
24338SOL    HW184738   4.934   6.370   4.418 -1.5334  0.1415 -3.4203
24338SOL    HW284739   4.916   6.501   4.344  0.9160  2.9615  0.5410
24339SOL     OW84740   9.998   2.508   8.260  0.5393 -0.6412 -0.4995
24339SOL    HW184741   9.924   2.511   8.320  1.4077  0.8926  0.5779
24339SOL    HW284742   9.960   2.489   8.174 -1.1116  0.3189 -0.0098
24340SOL     OW84743   2.611   1.859   2.676 -0.0630 -0.0103  0.6198
24340SOL    HW184744   2.634   1.951   2.672 -1.1123  0.4268  2.9457
24340SOL    HW284745   2.614   1.837   2.769  0.8759 -2.5410  0.0902
24341SOL     OW84746  10.259   3.597  11.773 -0.2788 -0.8632 -0.5946
24341SOL    HW184747  10.236   3.518  11.823 -2.0258 -0.1381 -0.1832
24341SOL    HW284748  10.177   3.622  11.730  0.1573  0.9068 -0.4516
24342SOL     OW84749   9.078   3.041   5.613 -0.1896  0.0070 -0.3393
24342SOL    HW184750   9.130   3.118   5.592 -0.0375  0.0737  0.2444
24342SOL    HW284751   9.128   2.968   5.577  0.6768  0.0050  0.8057
24343SOL     OW84752   1.948   2.204   3.344 -0.0878  0.1394 -0.1327
24343SOL    HW184753   1.966   2.267   3.274  1.8683 -0.6142 -0.3607
24343SOL    HW284754   1.986   2.122   3.313 -1.9970 -1.0406  0.4479
24344SOL     OW84755   6.743   7.936   3.369  0.0200 -0.2998 -0.3293
24344SOL    HW184756   6.793   7.928   3.288  1.2636 -0.8701  0.4598
24344SOL    HW284757   6.691   8.016   3.358  0.1765 -0.3693 -1.6691
24345SOL     OW84758   3.199   3.705   5.719 -0.4326 -0.1943 -0.7654
24345SOL    HW184759   3.190   3.751   5.802 -2.0397  0.4377 -1.2639
24345SOL    HW284760   3.232   3.618   5.744  0.7867  0.5529  0.3480
24346SOL     OW84761   0.505   8.736   4.373 -0.1504  0.0136  0.2600
24346SOL    HW184762   0.541   8.821   4.398  0.0589  0.3026 -0.9378
24346SOL    HW284763   0.548   8.716   4.290 -0.0611 -1.3611  0.6147
24347SOL     OW84764   5.571  11.060   6.322  0.0465 -0.3445  0.2735
24347SOL    HW184765   5.584  10.965   6.324 -2.3618 -0.7379 -0.2852
24347SOL    HW284766   5.594  11.085   6.233  0.6788 -0.3914  0.4188
24348SOL     OW84767   4.199   3.911  10.321 -0.5696  0.5302 -0.0744
24348SOL    HW184768   4.112   3.938  10.292 -1.0396 -0.2438  0.5429
24348SOL    HW284769   4.227   3.847  10.256 -0.6491  0.4611 -0.0414
24349SOL     OW84770   1.270   0.867   3.799 -0.1247 -0.1953  0.1358
24349SOL    HW184771   1.232   0.903   3.719  1.5381  0.8643 -0.2144
24349SOL    HW284772   1.234   0.921   3.870  0.1258  0.3052 -0.1167
24350SOL     OW84773   0.113   3.937   4.264  0.5274  0.3287 -0.2230
24350SOL    HW184774   0.020   3.923   4.280  0.7286 -0.5308  0.2804
24350SOL    HW284775   0.144   3.852   4.232  1.2310  0.4623  0.0920
24351SOL     OW84776   4.115   5.065  10.917 -1.1811 -0.5098  0.9195
24351SOL    HW184777   4.091   5.101  10.832  0.7735 -1.4708 -0.0926
24351SOL    HW284778   4.068   5.121  10.980 -2.7314  0.1735 -0.7440
24352SOL     OW84779   3.507   2.030   9.423  0.3895 -0.6220 -0.4407
24352SOL    HW184780   3.578   1.986   9.469  0.6936 -0.3365 -0.6337
24352SOL    HW284781   3.549   2.072   9.348  0.0029 -0.5277 -0.6083
24353SOL     OW84782  10.703   0.111   1.243 -0.4668 -0.2241 -0.2504
24353SOL    HW184783  10.741   0.023   1.246 -0.7049 -0.3006  0.5937
24353SOL    HW284784  10.637   0.112   1.312 -0.5243  0.5921 -0.3054
24354SOL     OW84785  10.804   7.422   7.634  0.1368 -0.3230  0.2373
24354SOL    HW184786  10.862   7.490   7.601  1.2050 -1.2970  0.0631
24354SOL    HW284787  10.763   7.386   7.555  0.8496 -1.0085  0.1727
24355SOL     OW84788   4.255   1.182   1.054 -0.2149 -0.1682 -0.3366
24355SOL    HW184789   4.288   1.236   0.982 -0.5639  0.6778  0.1130
24355SOL    HW284790   4.195   1.240   1.101  2.6394  0.6256  2.7693
24356SOL     OW84791  11.238   2.850   5.288  0.0014 -0.1736  0.0156
24356SOL    HW184792  11.230   2.907   5.364  1.8014 -0.8888  0.8296
24356SOL    HW284793  11.297   2.896   5.229 -0.9818  0.1487 -0.7388
24357SOL     OW84794   5.767   0.521   4.383  0.1263  0.2051  0.0550
24357SOL    HW184795   5.806   0.588   4.438  1.0118 -1.0730  1.0241
24357SOL    HW284796   5.744   0.567   4.302 -2.7628  2.5428  1.9879
24358SOL     OW84797   5.896   8.403   3.354 -0.2493  0.0009 -0.1763
24358SOL    HW184798   5.851   8.319   3.344 -0.8137  0.4661 -1.9546
24358SOL    HW284799   5.832   8.468   3.325  0.3706  1.0096  0.6360
24359SOL     OW84800  11.081   6.432   9.087  0.3887 -0.7618  0.8120
24359SOL    HW184801  11.160   6.480   9.110  1.3590 -1.9311  0.0761
24359SOL    HW284802  11.049   6.397   9.170  0.2749  0.2274  1.1985
24360SOL     OW84803   9.163   6.748   9.153  0.0709 -0.1681 -0.5199
24360SOL    HW184804   9.187   6.834   9.119  0.0331 -0.5518 -1.5666
24360SOL    HW284805   9.205   6.742   9.239  1.2479  0.3339 -1.0516
24361SOL     OW84806   2.008   0.676   1.934 -0.3912 -0.9359 -0.3778
24361SOL    HW184807   2.014   0.703   2.026 -2.0547 -0.8483 -0.2770
24361SOL    HW284808   2.095   0.696   1.898  0.4881 -1.5439  1.3042
24362SOL     OW84809   6.343   2.735   8.317 -0.3347 -0.6545 -0.4357
24362SOL    HW184810   6.257   2.765   8.346 -0.4737 -1.5392  0.0932
24362SOL    HW284811   6.333   2.641   8.303  0.6460 -0.8523  0.0489
24363SOL     OW84812   1.491   6.746  10.425 -0.4930  0.4547  0.2044
24363SOL    HW184813   1.444   6.665  10.442  2.0090 -1.3790 -0.9852
24363SOL    HW284814   1.501   6.748  10.330  1.4861  0.9153  0.3849
24364SOL     OW84815   3.928   8.720   4.724 -0.2760  0.5937  0.7843
24364SOL    HW184816   3.849   8.749   4.770 -1.5791 -0.7791 -0.4914
24364SOL    HW284817   3.948   8.791   4.663 -1.1549  0.5098  0.3890
24365SOL     OW84818  10.119   0.601   4.457 -0.5843  0.0097 -0.3010
24365SOL    HW184819  10.149   0.522   4.502 -0.8880 -0.4917 -0.9616
24365SOL    HW284820  10.172   0.671   4.495 -1.3164 -0.2725  1.3481
24366SOL     OW84821   3.304   0.454   1.733  0.3789  0.2710 -0.2061
24366SOL    HW184822   3.306   0.408   1.817  0.3523 -1.6808 -1.2156
24366SOL    HW284823   3.237   0.522   1.744  0.1693 -0.1472  1.2423
24367SOL     OW84824   2.203   0.677   8.213  0.3962  0.4694 -0.2832
24367SOL    HW184825   2.162   0.732   8.280  1.5487  0.6447  0.2930
24367SOL    HW284826   2.193   0.587   8.246  1.6401  0.6098  0.5232
24368SOL     OW84827   2.868  11.642  11.871  0.9337 -0.1971  0.0861
24368SOL    HW184828   2.797  11.599  11.918 -0.0129  0.5280 -0.6498
24368SOL    HW284829   2.948  11.606  11.910  0.2027  0.4625  2.2969
24369SOL     OW84830   4.173   8.645   8.032 -0.3218  0.5896  0.4462
24369SOL    HW184831   4.115   8.572   8.008 -0.4604  1.2904 -1.5457
24369SOL    HW284832   4.122   8.695   8.096 -0.5840 -0.5442  1.1604
24370SOL     OW84833   0.512   4.531   3.925 -0.0844 -0.2378  0.1423
24370SOL    HW184834   0.517   4.615   3.970 -0.1029  0.1611 -0.5926
24370SOL    HW284835   0.548   4.547   3.838 -1.3111 -0.6527 -0.4810
24371SOL     OW84836   0.034   5.481   9.299 -0.0871 -0.0709 -0.3909
24371SOL    HW184837  -0.039   5.476   9.238 -2.0817 -3.1453  1.9434
24371SOL    HW284838   0.106   5.439   9.253 -0.7220  0.1010 -1.5774
24372SOL     OW84839   2.815   2.292  10.826 -0.3751 -0.4214  0.2950
24372SOL    HW184840   2.910   2.288  10.812 -0.3525  0.3054  0.1642
24372SOL    HW284841   2.806   2.313  10.919 -0.3522  1.0865 -0.0171
24373SOL     OW84842   0.416  11.905   4.341  0.8789  0.5224 -0.8631
24373SOL    HW184843   0.405  11.980   4.399  0.1047  0.4546 -0.9075
24373SOL    HW284844   0.510  11.902   4.323  1.0912  0.7537  0.1049
24374SOL     OW84845   9.735   2.328   6.260  0.3394 -0.5673  0.8906
24374SOL    HW184846   9.756   2.401   6.201 -1.4874  0.5881  1.5999
24374SOL    HW284847   9.761   2.358   6.347 -2.8474  0.4430  1.6147
24375SOL     OW84848  10.358   5.360   9.109  0.1479  0.7548  0.4790
24375SOL    HW184849  10.437   5.314   9.080  1.0143  0.7862  2.6516
24375SOL    HW284850  10.286   5.317   9.061  1.1345 -1.4993  0.9080
24376SOL     OW84851   4.012   0.964  11.255 -0.5108 -0.0390  0.0975
24376SOL    HW184852   4.072   0.910  11.307 -1.0968 -0.2336  0.5767
24376SOL    HW284853   3.927   0.922  11.263 -0.7745  0.3823 -0.3679
24377SOL     OW84854   2.756   8.644   0.155  0.5387  0.2829  0.2003
24377SOL    HW184855   2.661   8.635   0.146  0.5895 -0.2682  0.1706
24377SOL    HW284856   2.777   8.599   0.237  0.9584 -1.0026 -0.5782
24378SOL     OW84857   5.742   8.597   3.207 -0.4825  0.4933  0.3870
24378SOL    HW184858   5.652   8.603   3.174 -0.8431 -2.4188  0.5528
24378SOL    HW284859   5.796   8.591   3.128 -1.0334 -2.9850  0.0899
24379SOL     OW84860   3.748   7.385   7.839 -0.2439  0.0610 -0.2465
24379SOL    HW184861   3.760   7.360   7.747  0.1116 -1.8302  0.2616
24379SOL    HW284862   3.796   7.318   7.888  2.4427  2.8967  1.2649
24380SOL     OW84863   4.922   6.260   1.735 -0.4608 -0.5099 -0.4944
24380SOL    HW184864   4.877   6.225   1.813 -1.0282  2.9603  0.9390
24380SOL    HW284865   5.015   6.251   1.755 -0.5979 -0.4647  0.2131
24381SOL     OW84866   5.352   2.437   7.587  0.0748  0.2060 -0.2315
24381SOL    HW184867   5.259   2.457   7.585 -0.2294 -1.1564 -0.6455
24381SOL    HW284868   5.360   2.351   7.545  1.7326  1.0760 -1.8752
24382SOL     OW84869   3.504  11.419   5.423  0.3463 -0.0899 -0.0762
24382SOL    HW184870   3.427  11.418   5.480  0.9735 -0.6087  0.7839
24382SOL    HW284871   3.535  11.328   5.422  0.2932 -0.1063 -1.3293
24383SOL     OW84872  10.768  11.426   7.607  0.1873 -0.7648  0.1837
24383SOL    HW184873  10.686  11.377   7.596 -0.4240 -0.3139  2.3729
24383SOL    HW284874  10.746  11.497   7.667  2.1372 -0.4813  0.6134
24384SOL     OW84875   8.804   6.265   7.053 -0.6005 -0.6194 -0.7475
24384SOL    HW184876   8.872   6.333   7.058 -1.1750 -0.0038 -1.0662
24384SOL    HW284877   8.836   6.195   7.110 -0.0626 -0.0226 -0.2948
24385SOL     OW84878  11.283   4.094   8.496  0.3947  0.4863 -0.2374
24385SOL    HW184879  11.266   4.188   8.487  0.4922  0.4025 -1.4700
24385SOL    HW284880  11.213   4.052   8.447  0.2125 -0.0968  0.5143
24386SOL     OW84881   5.312   9.498  11.068  0.2812 -0.1091 -0.0349
24386SOL    HW184882   5.219   9.520  11.074  0.1996 -0.5028  0.1963
24386SOL    HW284883   5.332   9.458  11.153  0.4770 -0.7236 -0.3657
24387SOL     OW84884  11.367   0.290   4.161  0.4694 -0.3948  0.3740
24387SOL    HW184885  11.444   0.254   4.117  0.5925  1.4601 -1.0557
24387SOL    HW284886  11.398   0.317   4.247  1.2432 -0.2991  0.0674
24388SOL     OW84887   8.794   1.282   0.930  0.7695  0.4729  0.6366
24388SOL    HW184888   8.745   1.200   0.941  0.1276  0.3707 -2.2163
24388SOL    HW284889   8.884   1.260   0.951  0.8803 -1.4391 -1.5262
24389SOL     OW84890   0.063  11.577   9.833  0.4201  0.1287 -0.2612
24389SOL    HW184891   0.036  11.488   9.855  2.0731 -0.0984  0.9973
24389SOL    HW284892   0.145  11.566   9.784 -0.4144  0.9009 -1.9385
24390SOL     OW84893   9.074   4.854   1.199  0.3604  0.2963 -0.1229
24390SOL    HW184894   9.095   4.845   1.292  0.4448  1.4091 -0.0206
24390SOL    HW284895   9.019   4.778   1.179 -2.1368  1.5127  1.5853
24391SOL     OW84896   2.102   1.392   4.058  0.5764  0.2609 -0.0185
24391SOL    HW184897   2.041   1.332   4.100  0.4769  0.3822  0.0099
24391SOL    HW284898   2.050   1.469   4.038  0.9034  0.6868  0.7292
24392SOL     OW84899   1.165   3.583   3.168  0.7329 -0.1856  0.0692
24392SOL    HW184900   1.147   3.677   3.160 -1.3144 -0.5241  0.0835
24392SOL    HW284901   1.094   3.550   3.223 -1.0288 -2.3622 -3.1532
24393SOL     OW84902   6.633   1.272   7.639 -0.3375 -0.2768  0.4703
24393SOL    HW184903   6.547   1.307   7.665 -0.7247 -0.1160 -0.9509
24393SOL    HW284904   6.696   1.320   7.693 -1.0093  1.0999  0.0603
24394SOL     OW84905   8.532   8.958   7.219 -0.5243 -0.1070  0.1426
24394SOL    HW184906   8.531   8.931   7.311  0.5498  0.5906  0.3817
24394SOL    HW284907   8.481   9.039   7.216  0.2165  0.3796  0.3163
24395SOL     OW84908   1.239   9.821  10.135  0.1232 -0.0879 -0.5282
24395SOL    HW184909   1.147   9.796  10.142 -1.1461  3.4985 -2.4071
24395SOL    HW284910   1.287   9.739  10.150 -3.2275 -1.7961  2.1272
24396SOL     OW84911   4.309   6.625   3.229 -0.0962 -0.1716  0.1723
24396SOL    HW184912   4.366   6.555   3.198  2.7241  1.7207  0.6851
24396SOL    HW284913   4.230   6.581   3.259  0.5814 -2.8579 -1.6591
24397SOL     OW84914   4.552  10.712  11.312 -0.0865  0.3136  0.7776
24397SOL    HW184915   4.533  10.789  11.366  0.4883  0.7282  0.3887
24397SOL    HW284916   4.538  10.741  11.222  0.1965 -0.0173  0.6247
24398SOL     OW84917   3.695   5.692   5.091  0.2797 -0.2568 -0.1164
24398SOL    HW184918   3.753   5.768   5.086  1.5440 -1.2232 -1.0158
24398SOL    HW284919   3.614   5.719   5.049  0.7749  0.5447 -0.5718
24399SOL     OW84920   4.686  11.580   0.536 -0.5186 -0.6092  0.0090
24399SOL    HW184921   4.674  11.639   0.462  1.2013 -0.0088  0.1614
24399SOL    HW284922   4.748  11.626   0.593  1.2122 -2.7172 -0.0622
24400SOL     OW84923   5.475   2.858   2.434 -0.2024 -0.3333  0.4170
24400SOL    HW184924   5.564   2.845   2.465  0.7336  1.1611 -1.3981
24400SOL    HW284925   5.475   2.824   2.344 -0.9430  1.1789 -0.2055
24401SOL     OW84926   8.267   4.009   1.197 -0.1953  0.4344 -0.0141
24401SOL    HW184927   8.233   3.943   1.256  0.5919 -0.1389 -0.1799
24401SOL    HW284928   8.346   4.041   1.239  0.6730 -0.3620 -0.9686
24402SOL     OW84929   7.806  11.409   1.847 -0.1015  0.2126  0.3580
24402SOL    HW184930   7.726  11.359   1.864  0.0522  0.0742  0.6878
24402SOL    HW284931   7.829  11.388   1.757 -0.7459  0.6887  0.0715
24403SOL     OW84932   9.637   5.621   6.203 -0.3502  0.3680  0.2010
24403SOL    HW184933   9.696   5.547   6.188 -0.9163  0.0759 -0.6581
24403SOL    HW284934   9.667   5.688   6.141  0.5621  1.1265  1.4095
24404SOL     OW84935   9.976   6.700   5.969  0.4431  0.1826 -0.3180
24404SOL    HW184936  10.064   6.700   5.932  0.5963 -1.9961 -0.0804
24404SOL    HW284937   9.926   6.759   5.913  2.1086  1.8255 -0.1993
24405SOL     OW84938   4.053   6.447   0.907 -0.5481 -0.3413 -0.2525
24405SOL    HW184939   4.076   6.483   0.821 -1.6960  1.1916  0.0366
24405SOL    HW284940   4.105   6.498   0.969 -0.3874 -0.8294  0.0144
24406SOL     OW84941  10.812   5.349   1.888 -0.0981 -0.2483  0.5417
24406SOL    HW184942  10.889   5.353   1.945 -1.0882 -1.1441  2.0292
24406SOL    HW284943  10.808   5.257   1.860 -0.1906 -0.0318 -0.1747
24407SOL     OW84944   3.892   5.020   8.821  0.1371  0.2676 -0.3307
24407SOL    HW184945   3.842   5.085   8.870 -0.1531  1.5688 -2.2180
24407SOL    HW284946   3.981   5.028   8.855 -0.0229  1.2340 -0.0958
24408SOL     OW84947   7.805   8.268   0.849 -0.4455 -0.7262 -0.1314
24408SOL    HW184948   7.722   8.314   0.857  0.8520  1.4211  3.5962
24408SOL    HW284949   7.854   8.318   0.785 -0.8570  0.0735  0.1631
24409SOL     OW84950   2.157   6.161   5.069  0.3390 -0.4133  0.4281
24409SOL    HW184951   2.091   6.230   5.056  1.1888  0.9365  2.6353
24409SOL    HW284952   2.106   6.081   5.082 -0.8399  0.3652  0.8039
24410SOL     OW84953   8.821   9.720   0.744 -0.1104  0.3530  0.2562
24410SOL    HW184954   8.901   9.763   0.774 -0.5776  1.4445 -0.0465
24410SOL    HW284955   8.844   9.685   0.658  0.2918 -0.0904  0.5362
24411SOL     OW84956   0.800  10.909   7.102  0.4701 -0.5636  0.2159
24411SOL    HW184957   0.791  10.995   7.061  1.5290  0.0683  1.2496
24411SOL    HW284958   0.776  10.847   7.033 -0.1760  0.5488 -0.5897
24412SOL     OW84959   8.050   0.170   5.612 -0.2585 -0.0172  0.2285
24412SOL    HW184960   7.997   0.130   5.543  0.5976  0.0960 -0.5040
24412SOL    HW284961   8.022   0.125   5.692  0.9858 -2.4664 -0.6132
24413SOL     OW84962   3.517   7.621   4.816  0.1238  0.0557  0.1217
24413SOL    HW184963   3.425   7.636   4.792  0.0016 -1.0213 -0.1267
24413SOL    HW284964   3.566   7.643   4.738 -0.0444 -0.7337 -0.2112
24414SOL     OW84965   7.897   8.947   0.037  0.4137 -0.1095 -0.1278
24414SOL    HW184966   7.943   8.987  -0.036  0.8264  2.3718  1.3781
24414SOL    HW284967   7.958   8.952   0.111 -0.6728 -0.7377  0.8629
24415SOL     OW84968  11.798   9.113   5.424  0.4936  0.0575  0.7603
24415SOL    HW184969  11.860   9.075   5.361 -0.8061 -0.6524 -0.1292
24415SOL    HW284970  11.786   9.203   5.394 -0.3638 -0.3649 -0.2484
24416SOL     OW84971   2.813   0.061   7.675  0.1538  0.1062 -0.1889
24416SOL    HW184972   2.731   0.034   7.633  1.8695 -2.4258 -2.2031
24416SOL    HW284973   2.851  -0.020   7.708  1.5490  1.3150  1.3357
24417SOL     OW84974   6.896   3.387   5.340 -0.0349 -0.3111  0.0348
24417SOL    HW184975   6.893   3.341   5.256  1.3215  0.7017 -0.5867
24417SOL    HW284976   6.929   3.474   5.320 -0.2205  0.1479  1.5536
24418SOL     OW84977  10.667   6.492   6.364 -0.2205  0.5330 -0.4988
24418SOL    HW184978  10.708   6.511   6.280  0.0168  0.8070 -0.3234
24418SOL    HW284979  10.635   6.576   6.395 -0.5031  0.3970 -0.4157
24419SOL     OW84980   2.074  10.355  11.025  0.1571 -0.1270 -0.2033
24419SOL    HW184981   2.148  10.326  11.078  0.1239 -1.5223 -0.8718
24419SOL    HW284982   2.006  10.378  11.089  0.9210  0.5225  0.3961
24420SOL     OW84983   5.845   5.178  11.129 -0.2160 -0.0988  0.4911
24420SOL    HW184984   5.818   5.214  11.044 -0.6199 -2.0369 -0.2552
24420SOL    HW284985   5.921   5.231  11.154  0.6194 -0.1804 -1.6452
24421SOL     OW84986  10.578   6.390   2.790  0.4474 -0.5814 -0.7586
24421SOL    HW184987  10.652   6.426   2.839 -1.6009  1.4836  1.1158
24421SOL    HW284988  10.568   6.301   2.823  1.6854 -0.6768 -0.5897
24422SOL     OW84989  11.929   4.947  11.645 -0.3538 -0.0580  0.8572
24422SOL    HW184990  11.934   4.983  11.733 -0.9374 -0.4150  1.0420
24422SOL    HW284991  12.018   4.916  11.626 -0.5767 -1.4873  1.9741
24423SOL     OW84992   2.346   8.985   4.193 -0.2410  0.1910 -0.0529
24423SOL    HW184993   2.348   8.893   4.216 -0.9133 -0.1737 -1.3641
24423SOL    HW284994   2.424   8.999   4.139 -0.3351  0.3062 -0.1611
24424SOL     OW84995  11.278   2.845   8.677  1.1694  0.0748 -0.0747
24424SOL    HW184996  11.336   2.914   8.644  1.8805 -1.0395 -1.2627
24424SOL    HW284997  11.200   2.851   8.622  2.2312 -1.5870 -1.8720
24425SOL     OW84998   9.493   1.843   5.447  0.1167  0.3043 -0.3070
24425SOL    HW184999   9.490   1.749   5.465  0.2243  0.2878 -0.3722
24425SOL    HW285000   9.405   1.875   5.468  0.4406  0.4106  0.9154
24426SOL     OW85001   0.382   4.681   0.631 -0.2336  0.3689 -0.4839
24426SOL    HW185002   0.424   4.747   0.686  1.8664 -0.5093 -0.9593
24426SOL    HW285003   0.356   4.612   0.693  1.0711 -0.0902 -0.4316
24427SOL     OW85004   7.776  11.214   8.186  0.1979  0.6340  0.3248
24427SOL    HW185005   7.846  11.151   8.169  0.2649  0.8433 -0.2204
24427SOL    HW285006   7.823  11.297   8.202  0.1736  0.3198  2.2613
24428SOL     OW85007   8.986   5.902   9.461  0.2150 -0.2695  0.0541
24428SOL    HW185008   9.009   5.815   9.427 -0.0172 -0.9709  1.6290
24428SOL    HW285009   9.064   5.955   9.444  0.3030 -0.7275 -1.0696
24429SOL     OW85010   5.482   4.005  10.838 -0.0163 -0.4094 -0.2240
24429SOL    HW185011   5.480   4.082  10.896  0.5678 -0.1143 -0.5888
24429SOL    HW285012   5.496   4.041  10.751 -3.3762 -0.6267 -0.9890
24430SOL     OW85013   3.438   8.863   4.609 -0.9720  0.0964  0.2156
24430SOL    HW185014   3.444   8.959   4.601 -1.7410  0.4324  2.9588
24430SOL    HW285015   3.487   8.843   4.689 -1.5190 -1.7329  0.1197
24431SOL     OW85016   6.809  10.836   2.144  0.0563  0.2279  0.1207
24431SOL    HW185017   6.744  10.906   2.144  0.9361  1.0630  1.0114
24431SOL    HW285018   6.886  10.874   2.186 -0.4413 -2.1730  3.6930
24432SOL     OW85019   8.710   4.524   7.244  0.1697  0.8154 -0.1472
24432SOL    HW185020   8.670   4.586   7.183 -2.0989  0.2315  0.6406
24432SOL    HW285021   8.703   4.439   7.201 -0.7315  0.5122  0.5616
24433SOL     OW85022   2.125   1.528   7.681  0.2269 -0.0106 -0.0938
24433SOL    HW185023   2.132   1.589   7.754 -2.0304  0.1426  0.0588
24433SOL    HW285024   2.062   1.462   7.710 -0.9936  0.2506 -1.9788
24434SOL     OW85025   5.622   6.032   4.126 -0.1946 -0.0589 -0.0172
24434SOL    HW185026   5.649   6.115   4.166 -0.2750  0.1396 -0.3674
24434SOL    HW285027   5.652   6.038   4.036  2.2939 -1.5899  0.6248
24435SOL     OW85028   0.588   5.159   2.692 -0.2900 -0.4245 -0.2457
24435SOL    HW185029   0.509   5.213   2.701 -0.4617 -0.9445  2.0337
24435SOL    HW285030   0.561   5.072   2.721  1.0779 -0.6219  0.5212
24436SOL     OW85031  11.774   1.902   9.690 -0.4547  0.3970 -0.4780
24436SOL    HW185032  11.808   1.868   9.773  2.0163  0.4771 -1.3431
24436SOL    HW285033  11.690   1.858   9.678 -0.3871 -0.3792  1.5609
24437SOL     OW85034   1.672   6.080   4.804 -0.5000  0.8541 -0.0769
24437SOL    HW185035   1.633   6.015   4.862  0.4847 -0.2573 -0.6391
24437SOL    HW285036   1.634   6.062   4.718  0.3194  0.5527 -0.3812
24438SOL     OW85037   7.681  11.733   6.218  0.1559  0.7623  0.1759
24438SOL    HW185038   7.611  11.778   6.266 -0.4151  0.7529 -0.6217
24438SOL    HW285039   7.635  11.685   6.148  0.7983 -0.6489  0.6882
24439SOL     OW85040   8.736   1.660  10.851 -0.1585  0.5991 -0.4910
24439SOL    HW185041   8.758   1.708  10.931  1.8012 -1.1229  0.0752
24439SOL    HW285042   8.640   1.658  10.851 -0.2404  0.0100  2.2490
24440SOL     OW85043   5.950   0.956   9.196 -0.5945 -0.1920 -0.0502
24440SOL    HW185044   6.004   1.030   9.225 -2.0823  1.1131 -0.4731
24440SOL    HW285045   5.993   0.924   9.117  0.9941 -0.8964  1.0472
24441SOL     OW85046   5.775   9.302   9.251  0.2954 -0.1626  0.2088
24441SOL    HW185047   5.865   9.320   9.224  0.3120  1.5118  1.2083
24441SOL    HW285048   5.727   9.291   9.169  1.0009  1.2023 -0.4298
24442SOL     OW85049   6.338   6.691  11.517  0.4839 -0.0312  0.3637
24442SOL    HW185050   6.405   6.694  11.585  1.4845 -0.5556 -0.5612
24442SOL    HW285051   6.318   6.598  11.507  0.7656 -0.0081 -0.4567
24443SOL     OW85052   6.011  11.495   3.828  1.3374 -0.1259 -0.0958
24443SOL    HW185053   6.025  11.483   3.734 -0.0956 -0.3560 -0.3004
24443SOL    HW285054   6.098  11.488   3.866  2.0488  0.6907 -1.4805
24444SOL     OW85055  11.141   4.483   3.219  0.2666  0.2343 -0.0133
24444SOL    HW185056  11.161   4.394   3.192 -0.4220  0.0256  0.1421
24444SOL    HW285057  11.161   4.536   3.142 -0.3098 -0.1832 -0.4621
24445SOL     OW85058   3.234   0.328   1.960 -0.0860  0.2226 -0.2239
24445SOL    HW185059   3.171   0.360   2.024  0.1197  1.8346 -0.7750
24445SOL    HW285060   3.296   0.276   2.011 -0.6963  0.3429  0.6525
24446SOL     OW85061  10.513   0.766  11.882  0.5075 -0.1325 -0.0117
24446SOL    HW185062  10.587   0.808  11.838  0.2403 -0.4919 -0.8312
24446SOL    HW285063  10.437   0.792  11.830  0.0667  0.1399  0.7552
24447SOL     OW85064   9.506   2.086  11.097 -0.0642 -0.2670 -0.5537
24447SOL    HW185065   9.511   2.007  11.150 -0.6159 -0.2650 -0.4996
24447SOL    HW285066   9.523   2.157  11.159 -0.8332 -0.2559 -0.3509
24448SOL     OW85067  10.012   4.151   3.055 -0.3097 -1.4432 -0.5212
24448SOL    HW185068  10.093   4.201   3.054  0.8179 -3.1557 -2.5517
24448SOL    HW285069   9.944   4.215   3.078  1.0798  0.9245 -2.5584
24449SOL     OW85070   0.023   6.349   6.739 -0.1169  0.0142 -0.2750
24449SOL    HW185071  -0.002   6.363   6.648  0.0048 -1.8687 -0.6401
24449SOL    HW285072  -0.054   6.307   6.778  0.3892 -0.6177  0.0678
24450SOL     OW85073   2.034  11.582   7.031  0.0155 -0.3255 -0.1667
24450SOL    HW185074   2.028  11.667   7.075 -0.5133 -0.3897 -0.1111
24450SOL    HW285075   1.944  11.562   7.005 -0.5775 -2.5995  3.0848
24451SOL     OW85076   4.362  11.691   0.463  0.0523  0.4871 -0.4388
24451SOL    HW185077   4.446  11.721   0.427 -0.2010  0.0320 -1.4508
24451SOL    HW285078   4.321  11.644   0.391 -0.5840 -0.2719  0.3985
24452SOL     OW85079   7.651   7.572   7.908  0.3202  0.3552 -0.0067
24452SOL    HW185080   7.698   7.528   7.837  0.4619  0.0005  0.3007
24452SOL    HW285081   7.634   7.503   7.972 -0.4154  0.5250 -0.0047
24453SOL     OW85082   3.097   2.930   6.900 -0.1125 -0.1709 -0.2211
24453SOL    HW185083   3.122   3.014   6.938 -0.3029  0.0399 -0.5563
24453SOL    HW285084   3.176   2.876   6.905  0.3704  0.4212 -1.1007
24454SOL     OW85085   6.617  10.477   6.151 -0.7693  0.0628  0.7229
24454SOL    HW185086   6.694  10.492   6.097 -0.4446  0.3874  1.2561
24454SOL    HW285087   6.547  10.457   6.090 -0.4428  0.5600  0.1783
24455SOL     OW85088  10.030   3.680   9.494 -0.1166  0.2034  0.6454
24455SOL    HW185089  10.061   3.590   9.493  1.7659  0.8087  0.7492
24455SOL    HW285090   9.936   3.674   9.475  0.2685 -1.6517 -0.8935
24456SOL     OW85091   2.082   4.780  11.865  0.3779 -0.3326  0.3126
24456SOL    HW185092   2.132   4.716  11.815  0.6134 -0.5478  0.8208
24456SOL    HW285093   2.128   4.863  11.851  0.7010 -0.4748  0.5288
24457SOL     OW85094   6.611   1.055   1.517 -0.6877 -0.0351  0.2197
24457SOL    HW185095   6.574   0.995   1.453 -1.0913  0.4610 -0.0244
24457SOL    HW285096   6.584   1.142   1.486 -0.2494  0.2574  0.6500
24458SOL     OW85097   2.907   5.395   8.122  0.1100  0.1517  0.6982
24458SOL    HW185098   2.823   5.365   8.158 -0.2534  0.1636 -0.1314
24458SOL    HW285099   2.943   5.452   8.191 -1.1454  1.1491  0.5698
24459SOL     OW85100   3.779   4.295  11.566 -0.4955 -0.0324  0.1419
24459SOL    HW185101   3.686   4.306  11.546 -0.5530 -1.4368 -0.4844
24459SOL    HW285102   3.780   4.264  11.657 -0.7225 -0.9984 -0.1722
24460SOL     OW85103   3.489   5.292  11.249  0.1186 -0.6089 -0.4042
24460SOL    HW185104   3.411   5.336  11.283 -0.0307 -0.8661 -0.4103
24460SOL    HW285105   3.553   5.362  11.237 -0.5171 -0.1958 -1.5722
24461SOL     OW85106  11.290   5.221   4.877  0.1201 -0.2048 -0.8499
24461SOL    HW185107  11.243   5.301   4.899 -0.3385 -1.1913  2.2661
24461SOL    HW285108  11.381   5.249   4.866 -0.0933  0.8242 -0.1078
24462SOL     OW85109   8.932  10.814   3.762  0.2514 -0.2945 -0.7840
24462SOL    HW185110   8.954  10.903   3.734 -2.2859  0.6344 -0.0613
24462SOL    HW285111   8.882  10.778   3.690  1.3851 -1.2247 -1.1286
24463SOL     OW85112   0.574   0.648   6.805  0.1441 -0.5553  0.2945
24463SOL    HW185113   0.540   0.665   6.893 -1.5426 -1.1192 -0.2152
24463SOL    HW285114   0.667   0.630   6.819  0.2787  0.9775  1.7622
24464SOL     OW85115   9.388   1.567  11.791  0.0472  0.1700  0.1066
24464SOL    HW185116   9.463   1.512  11.814 -0.4626 -0.5000  0.2131
24464SOL    HW285117   9.333   1.567  11.869 -1.0729 -1.0735 -0.6241
24465SOL     OW85118   0.586  11.653   5.014  0.1512  0.3547  0.8258
24465SOL    HW185119   0.562  11.565   4.984  0.5544  0.4534  0.1921
24465SOL    HW285120   0.521  11.711   4.974  0.1605  0.3913  0.8642
24466SOL     OW85121   2.347   7.451   3.746 -0.1079  0.0335 -0.1139
24466SOL    HW185122   2.435   7.485   3.731 -0.1482  2.0665  3.3171
24466SOL    HW285123   2.357   7.385   3.814 -1.2391  0.3385  0.3818
24467SOL     OW85124   4.219   1.047   7.437 -0.2430 -0.0201  0.4460
24467SOL    HW185125   4.166   1.031   7.359 -0.5998  0.4639  0.5797
24467SOL    HW285126   4.246   0.960   7.466  0.9334 -0.1509 -0.9089
24468SOL     OW85127   0.078  10.480  10.415 -0.1066  0.2154 -0.1005
24468SOL    HW185128   0.149  10.526  10.370  0.8592  0.1590  1.2961
24468SOL    HW285129   0.088  10.506  10.507 -1.4428 -0.3882  0.2266
24469SOL     OW85130   5.341   0.118   4.234 -0.8885  0.0571 -0.0014
24469SOL    HW185131   5.364   0.094   4.144  0.4952 -1.1015  0.6042
24469SOL    HW285132   5.249   0.095   4.243 -0.8548 -0.4738 -0.9295
24470SOL     OW85133   7.263   2.863   1.341  0.8083  0.2545  0.0791
24470SOL    HW185134   7.246   2.952   1.311  1.1175  0.4350  0.4377
24470SOL    HW285135   7.176   2.829   1.364  0.5608  0.0934 -1.0665
24471SOL     OW85136   8.595   5.636   0.098 -0.1967  0.5067 -0.0357
24471SOL    HW185137   8.589   5.647   0.193 -0.2050  0.4990 -0.0354
24471SOL    HW285138   8.658   5.703   0.070 -0.8600  1.1054 -0.1340
24472SOL     OW85139   4.137   1.044  10.965 -0.4373 -0.4345 -0.3144
24472SOL    HW185140   4.219   0.998  10.977 -0.0209  0.0249 -1.3005
24472SOL    HW285141   4.117   1.080  11.051 -1.0514 -2.8357  0.6387
24473SOL     OW85142   9.161   2.707  11.657  0.9296 -0.0215 -0.5750
24473SOL    HW185143   9.108   2.629  11.674 -1.2901  1.8056  1.4773
24473SOL    HW285144   9.230   2.705  11.723  2.2279 -1.2478 -1.8717
24474SOL     OW85145   1.355   1.549   7.637 -0.0637 -0.1691  0.7266
24474SOL    HW185146   1.298   1.626   7.640  0.4732  0.2708  0.0644
24474SOL    HW285147   1.297   1.477   7.613  0.0135  0.7134 -2.5865
24475SOL     OW85148   4.291   0.868   7.204  0.3006  0.0429 -0.6785
24475SOL    HW185149   4.329   0.956   7.198 -0.5512  0.5174  0.4887
24475SOL    HW285150   4.366   0.810   7.215  0.7762  0.8489  0.5437
24476SOL     OW85151  11.262   8.099   9.246 -0.0650 -0.2801  0.0397
24476SOL    HW185152  11.215   8.178   9.274 -1.5092 -0.6043 -1.2914
24476SOL    HW285153  11.231   8.030   9.305 -1.3640 -0.4992 -0.8527
24477SOL     OW85154   0.159   0.405   7.934 -0.1499  0.5991  0.1591
24477SOL    HW185155   0.196   0.410   7.847  0.3997  0.2917  0.3690
24477SOL    HW285156   0.213   0.463   7.987  0.8440 -0.7846  0.7301
24478SOL     OW85157   6.300   5.915   2.790  0.5297 -0.3153  0.0422
24478SOL    HW185158   6.219   5.962   2.770  0.0888 -0.5606  1.1328
24478SOL    HW285159   6.272   5.846   2.850  1.4438 -0.8641 -0.1562
24479SOL     OW85160   8.512  10.432   4.136 -0.0854  0.5411 -0.8310
24479SOL    HW185161   8.421  10.401   4.132 -0.1206  0.7245 -2.2591
24479SOL    HW285162   8.539  10.417   4.226 -1.0388 -0.9222 -0.7527
24480SOL     OW85163   1.814   5.490   3.479  0.1449 -0.1787  0.3109
24480SOL    HW185164   1.725   5.519   3.498  0.5408  0.3567  1.4189
24480SOL    HW285165   1.825   5.410   3.530  0.4869  0.0775  0.6474
24481SOL     OW85166   2.655   8.533   1.486 -0.2954 -0.0857 -0.4065
24481SOL    HW185167   2.615   8.478   1.554  1.6068  0.7218  1.4599
24481SOL    HW285168   2.669   8.473   1.412 -2.4972 -0.9746 -0.1885
24482SOL     OW85169   7.369   0.535  10.884 -0.5725 -0.5889 -0.5598
24482SOL    HW185170   7.376   0.445  10.853 -1.1319 -1.5558  1.8575
24482SOL    HW285171   7.458   0.568  10.882 -0.6278 -0.4021 -3.4711
24483SOL     OW85172  11.219  11.891   5.385 -0.1462  0.1510 -0.3836
24483SOL    HW185173  11.295  11.918   5.436 -1.0722 -0.0124  1.1592
24483SOL    HW285174  11.168  11.971   5.373  1.0181  0.6223 -2.8936
24484SOL     OW85175  10.151   5.783   5.237 -0.4733  0.1283 -0.2496
24484SOL    HW185176  10.192   5.773   5.151  1.6760 -0.8399  0.8013
24484SOL    HW285177  10.060   5.757   5.224 -0.7278  1.8744 -2.6049
24485SOL     OW85178  10.743   7.511   0.312  0.1270  0.1624 -0.5364
24485SOL    HW185179  10.746   7.564   0.232  0.9787 -0.3894 -0.8827
24485SOL    HW285180  10.688   7.561   0.371  0.1378  0.9772 -1.1931
24486SOL     OW85181  10.571   1.228  10.706 -0.2609  0.1687  0.7103
24486SOL    HW185182  10.498   1.166  10.707  1.2191 -1.6925  0.6547
24486SOL    HW285183  10.572   1.262  10.617 -2.0295  1.5106  1.1571
24487SOL     OW85184   7.588   6.743   4.752 -0.0387  0.2197 -0.1866
24487SOL    HW185185   7.581   6.790   4.835 -1.1489  0.2269 -0.2712
24487SOL    HW285186   7.652   6.674   4.770  2.3235  2.2395 -0.3176
24488SOL     OW85187   8.619  10.987   6.440  0.1564  0.2177  0.6988
24488SOL    HW185188   8.697  10.999   6.494  0.6895 -0.4442  0.0971
24488SOL    HW285189   8.549  10.968   6.503  1.1045 -2.2516  1.1142
24489SOL     OW85190   7.460   8.254  11.778  0.2210 -0.0610 -0.5473
24489SOL    HW185191   7.427   8.326  11.833  0.7952 -1.0666  1.1986
24489SOL    HW285192   7.551   8.276  11.762  0.7613 -0.9645  1.0665
24490SOL     OW85193   8.469   5.490   8.512 -0.2469 -0.3289  0.9219
24490SOL    HW185194   8.460   5.475   8.606 -0.2684  0.0109  0.9738
24490SOL    HW285195   8.481   5.584   8.503 -2.5586 -0.0128  0.4418
24491SOL     OW85196   7.895   9.525   0.559 -0.3056 -0.1738  0.5241
24491SOL    HW185197   7.828   9.459   0.540  0.5427 -0.9668  0.2318
24491SOL    HW285198   7.978   9.478   0.551  0.3291  0.9873  0.1130
24492SOL     OW85199   4.646   5.624   6.274  0.1935 -0.0537 -0.3537
24492SOL    HW185200   4.682   5.538   6.251 -0.1552 -0.2768 -0.0681
24492SOL    HW285201   4.718   5.685   6.257  0.1408 -0.2766 -1.4976
24493SOL     OW85202   8.558   1.098   3.535 -0.4353  0.0084  0.4395
24493SOL    HW185203   8.600   1.054   3.462 -2.4830  1.4902 -1.7754
24493SOL    HW285204   8.618   1.168   3.559 -1.0430  1.5239 -2.0628
24494SOL     OW85205  11.768   3.448   2.292 -0.4788  0.4271 -0.0432
24494SOL    HW185206  11.771   3.543   2.280 -1.3084  0.5473  0.6507
24494SOL    HW285207  11.791   3.435   2.384  1.7196 -0.2072 -0.6143
24495SOL     OW85208   3.590  10.726  11.432  0.3217  0.2990  0.1132
24495SOL    HW185209   3.598  10.819  11.413 -0.3262  0.8276  2.1851
24495SOL    HW285210   3.587  10.721  11.528  0.6337 -1.8828  0.0638
24496SOL     OW85211   4.743   5.823   3.311  0.3124  0.2360  0.4540
24496SOL    HW185212   4.779   5.800   3.396  1.5808  0.5402  0.0246
24496SOL    HW285213   4.662   5.870   3.331  0.7335  0.5417  1.4953
24497SOL     OW85214  11.417   3.446   1.359 -0.0522  0.5732  0.0159
24497SOL    HW185215  11.475   3.518   1.384  1.2766  0.1658 -1.6732
24497SOL    HW285216  11.330   3.474   1.387  0.7784  1.7384  1.5578
24498SOL     OW85217   1.464   7.722   0.473 -0.1235 -0.0900 -0.2340
24498SOL    HW185218   1.413   7.720   0.554  1.3148  0.0134  0.7219
24498SOL    HW285219   1.477   7.630   0.451  0.3156 -0.1427  0.2222
24499SOL     OW85220  10.899   4.802   9.875  0.3874  0.1150 -0.2049
24499SOL    HW185221  10.951   4.723   9.862  1.3479  0.8111 -0.7814
24499SOL    HW285222  10.856   4.817   9.791  1.2595  0.9122 -0.5319
24500SOL     OW85223  11.260   4.230   3.159 -0.3139 -0.1690  0.5969
24500SOL    HW185224  11.251   4.209   3.253 -0.9082 -1.1301  0.3479
24500SOL    HW285225  11.351   4.257   3.149 -0.1616 -0.3491  1.4088
24501SOL     OW85226   3.486   5.334   9.022 -0.2393  0.2795 -0.3456
24501SOL    HW185227   3.398   5.303   9.041 -0.8790  1.2879 -1.5236
24501SOL    HW285228   3.485   5.426   9.049  0.2113  0.5086 -1.0909
24502SOL     OW85229   5.048   9.006   8.841  0.1688  0.1966  0.2250
24502SOL    HW185230   5.091   8.926   8.809 -0.2610 -0.8632  2.1298
24502SOL    HW285231   5.114   9.074   8.828  1.2269 -0.7917  0.1447
24503SOL     OW85232  10.458   6.557  11.829 -0.2076  0.0063 -0.1048
24503SOL    HW185233  10.366   6.584  11.834 -0.2792 -0.1508 -0.5885
24503SOL    HW285234  10.478   6.554  11.735 -0.0713 -1.2085 -0.0478
24504SOL     OW85235   5.264   1.598   7.901 -0.0967 -0.1294 -0.2131
24504SOL    HW185236   5.190   1.647   7.867 -0.6234 -0.1174  0.9318
24504SOL    HW285237   5.341   1.645   7.868 -0.5709 -0.1453 -1.4085
24505SOL     OW85238   2.326   1.395   8.992 -1.0320 -0.0679 -0.6520
24505SOL    HW185239   2.361   1.363   8.909 -1.2077  1.0538 -1.1738
24505SOL    HW285240   2.314   1.489   8.979 -2.3184 -0.0843  0.1877
24506SOL     OW85241   8.597   1.837   3.535 -0.6473  0.1609  0.2057
24506SOL    HW185242   8.530   1.799   3.478  0.2818 -1.6259  0.2194
24506SOL    HW285243   8.555   1.842   3.621 -0.5488 -1.7876  0.4198
24507SOL     OW85244   7.603   0.197   2.746 -0.0862  0.1722  0.3145
24507SOL    HW185245   7.663   0.270   2.731  0.3341 -0.4494 -1.3129
24507SOL    HW285246   7.524   0.221   2.697 -0.1318 -0.2472  0.1806
24508SOL     OW85247   3.483   4.870   1.106 -0.4784  0.5377  0.5733
24508SOL    HW185248   3.443   4.817   1.036 -0.2855  0.7658  0.2872
24508SOL    HW285249   3.421   4.941   1.120 -0.8107  0.1579  1.0636
24509SOL     OW85250  11.513   8.250   4.019  0.4202 -0.7947 -0.1826
24509SOL    HW185251  11.570   8.244   3.942 -0.3857 -0.7093 -0.8021
24509SOL    HW285252  11.427   8.273   3.983  0.6635  2.4257  0.9943
24510SOL     OW85253  10.270   2.360   3.666 -0.8218 -0.4576  0.3120
24510SOL    HW185254  10.218   2.440   3.673 -1.4283 -0.9036  1.0795
24510SOL    HW285255  10.210   2.297   3.627  0.4031  0.0981 -2.7444
24511SOL     OW85256   1.885   0.665   9.140  0.4182  0.0490 -0.0940
24511SOL    HW185257   1.907   0.593   9.081 -2.7346 -3.9104  2.9635
24511SOL    HW285258   1.797   0.692   9.113  0.3682  0.6258  0.6059
24512SOL     OW85259   0.739  11.712   3.985 -0.6510 -0.0705  0.2967
24512SOL    HW185260   0.790  11.735   3.907 -0.9809 -0.2537  0.0241
24512SOL    HW285261   0.703  11.796   4.015 -0.8982 -0.0626 -0.0167
24513SOL     OW85262   4.093  11.396  11.538  0.0819 -0.0064  0.4346
24513SOL    HW185263   4.075  11.303  11.527  1.5190 -0.0723 -1.9744
24513SOL    HW285264   4.012  11.440  11.511  0.1499 -0.5152 -0.6373
24514SOL     OW85265   6.362   0.709   8.731 -0.6634  0.0003 -0.0760
24514SOL    HW185266   6.290   0.744   8.680 -2.0063  0.3307  1.9369
24514SOL    HW285267   6.351   0.614   8.727 -0.1329 -0.0270 -1.2162
24515SOL     OW85268   4.330   2.916   0.338  0.3641 -0.5128  0.2317
24515SOL    HW185269   4.292   2.847   0.393 -0.7330 -0.8053 -0.8481
24515SOL    HW285270   4.335   2.992   0.396  1.4649 -1.4378  1.3985
24516SOL     OW85271   4.596   0.659  11.432  0.4898 -0.5115  0.1190
24516SOL    HW185272   4.501   0.662  11.423  0.5668 -0.2934 -0.6685
24516SOL    HW285273   4.627   0.738  11.388  1.0674 -0.8273 -0.0579
24517SOL     OW85274   8.300   8.127   5.228  0.2527 -0.4591 -0.0406
24517SOL    HW185275   8.293   8.222   5.239 -0.8250 -0.5164 -0.1414
24517SOL    HW285276   8.289   8.113   5.134  0.4754 -0.6876 -0.0337
24518SOL     OW85277   5.428   3.834   1.630  0.5590  0.1969 -0.2758
24518SOL    HW185278   5.358   3.885   1.590  0.2084  0.5882  0.8253
24518SOL    HW285279   5.504   3.892   1.627  0.5653  0.1792 -0.4801
24519SOL     OW85280   3.071   5.605   6.458  0.0556  0.1951 -0.0335
24519SOL    HW185281   3.166   5.606   6.473  0.0193  0.6091  0.2049
24519SOL    HW285282   3.033   5.599   6.546 -0.1462  0.9922 -0.0583
24520SOL     OW85283   6.926  11.939   3.277 -0.6008 -0.4886 -0.2184
24520SOL    HW185284   6.835  11.934   3.246  0.4108 -1.1282 -3.5310
24520SOL    HW285285   6.972  11.985   3.207  1.8684 -1.3388  0.7509
24521SOL     OW85286   0.919   2.676   4.227  0.8393  0.3005  0.1799
24521SOL    HW185287   0.857   2.713   4.164  1.9771  1.1199 -0.5172
24521SOL    HW285288   0.865   2.648   4.301 -0.1417  4.0140  1.0818
24522SOL     OW85289   5.325  10.573   4.450  0.2916  0.4840 -0.4257
24522SOL    HW185290   5.308  10.637   4.382 -0.3085 -0.3690 -1.1062
24522SOL    HW285291   5.419  10.577   4.464  0.4354  0.6051 -1.3786
24523SOL     OW85292   5.537   3.030   9.186  0.1044 -0.6979  0.2586
24523SOL    HW185293   5.614   3.076   9.217 -0.1861  1.1390 -1.5828
24523SOL    HW285294   5.570   2.968   9.121  0.0877 -0.1994 -0.2313
24524SOL     OW85295   1.437   6.485   8.391 -0.1242 -0.2189 -0.1534
24524SOL    HW185296   1.499   6.431   8.342  1.1905  0.5330  0.6249
24524SOL    HW285297   1.364   6.426   8.411  0.1007 -0.9942 -1.4980
24525SOL     OW85298   8.752   0.459   1.370 -0.5604  0.6622 -0.5490
24525SOL    HW185299   8.658   0.465   1.357 -0.4378  1.0667 -1.3373
24525SOL    HW285300   8.764   0.463   1.465 -1.3683  0.0379 -0.4148
24526SOL     OW85301   2.637   8.516   6.777 -0.0151  0.2219  0.1315
24526SOL    HW185302   2.658   8.539   6.867  0.5667 -1.3060  0.4244
24526SOL    HW285303   2.672   8.427   6.766 -0.2180  0.3127 -1.5490
24527SOL     OW85304   2.164   5.851   6.552 -0.2609  0.3684  0.5125
24527SOL    HW185305   2.189   5.834   6.461  0.3186  0.0493  0.7281
24527SOL    HW285306   2.244   5.883   6.593 -0.3092 -0.2322  1.0950
24528SOL     OW85307  11.573  10.517   8.988  0.3924  0.2469 -0.1411
24528SOL    HW185308  11.657  10.561   8.977 -0.0613  0.9514 -0.9482
24528SOL    HW285309  11.508  10.587   8.979 -0.3259 -0.5090 -1.0766
24529SOL     OW85310  10.929   3.228   0.472 -0.6245 -0.5662  0.3578
24529SOL    HW185311  10.920   3.277   0.390  0.3504  0.6613  0.9405
24529SOL    HW285312  10.904   3.138   0.450 -0.4883 -0.2330 -1.2495
24530SOL     OW85313   0.737   2.333   8.828  0.3511 -0.0358  0.6674
24530SOL    HW185314   0.737   2.363   8.737  0.9393  0.8181  0.9394
24530SOL    HW285315   0.745   2.238   8.822  1.8843  0.1141 -0.1459
24531SOL     OW85316   3.504  10.460   1.082  0.1229 -0.3717 -0.6474
24531SOL    HW185317   3.594  10.430   1.073  0.4752  0.8813 -1.5421
24531SOL    HW285318   3.451  10.385   1.053  0.7040 -2.0487  2.2357
24532SOL     OW85319   5.194   7.115   2.530 -0.2153  0.1370 -0.5646
24532SOL    HW185320   5.145   7.147   2.455 -2.0053  1.1909  0.9815
24532SOL    HW285321   5.182   7.020   2.527  0.8892  0.0060 -2.3252
24533SOL     OW85322   6.027   4.561   5.929  0.5316 -0.0812 -0.1674
24533SOL    HW185323   6.102   4.597   5.881  1.2280 -1.5088 -0.2235
24533SOL    HW285324   5.976   4.514   5.863 -0.7637  1.3745 -0.2371
24534SOL     OW85325   9.905   5.779   7.965  0.5694  0.3998  0.0851
24534SOL    HW185326   9.977   5.742   8.014  0.2885 -0.0069  0.1903
24534SOL    HW285327   9.832   5.783   8.027 -0.1435 -1.2186 -0.5811
24535SOL     OW85328   5.141   2.224   4.976 -0.1720  0.8866  0.5172
24535SOL    HW185329   5.126   2.135   4.944 -0.5854  0.8579  0.7749
24535SOL    HW285330   5.219   2.217   5.032  0.6851  0.9812 -0.6274
24536SOL     OW85331   2.013   2.645   7.187 -0.1544 -0.4234 -0.4131
24536SOL    HW185332   2.046   2.614   7.271 -1.5337 -0.8184  0.0119
24536SOL    HW285333   2.075   2.612   7.123  1.5435  0.8313  0.5236
24537SOL     OW85334   7.452   1.588   9.191 -0.2098 -0.8572  0.7205
24537SOL    HW185335   7.413   1.673   9.174  0.4438 -0.7088 -0.0963
24537SOL    HW285336   7.542   1.608   9.220  0.5428 -1.2947 -1.1702
24538SOL     OW85337   1.836   9.542   8.120  0.1481 -0.3693 -0.1483
24538SOL    HW185338   1.880   9.599   8.182 -0.4830  0.0586 -0.0803
24538SOL    HW285339   1.755   9.588   8.099 -1.2280 -2.0281  1.2275
24539SOL     OW85340   8.973   7.300   5.158  0.5966 -0.0894  0.5607
24539SOL    HW185341   8.994   7.348   5.238  1.7126 -1.7102  1.3072
24539SOL    HW285342   9.040   7.231   5.154 -0.9633 -1.6186 -0.3873
24540SOL     OW85343  10.055   1.685   0.730  0.2746 -0.2211 -0.0728
24540SOL    HW185344   9.983   1.694   0.668  0.5759  4.4591 -0.0783
24540SOL    HW285345  10.012   1.665   0.813 -0.9530  1.1645 -0.3320
24541SOL     OW85346   4.327   6.470   9.891 -0.4472 -0.0235  0.4041
24541SOL    HW185347   4.402   6.411   9.887  0.4881  1.1358  0.1789
24541SOL    HW285348   4.260   6.428   9.837  1.9202  1.4471 -4.2264
24542SOL     OW85349   2.732   1.772   6.994 -0.0513  0.1259  0.9483
24542SOL    HW185350   2.766   1.695   7.039 -0.7664 -0.4457  0.5437
24542SOL    HW285351   2.641   1.780   7.024 -0.3600  0.0733  0.0740
24543SOL     OW85352   6.224   4.765   1.368  0.5097  0.3236 -0.0034
24543SOL    HW185353   6.252   4.723   1.450  2.2877 -1.2158 -1.3140
24543SOL    HW285354   6.191   4.693   1.315 -0.0560  1.2152 -0.8881
24544SOL     OW85355   5.084   1.682   8.797  0.5165  0.0761 -0.7131
24544SOL    HW185356   5.018   1.622   8.763 -0.5838  0.7373  0.1872
24544SOL    HW285357   5.136   1.629   8.858 -2.3590  0.6004  2.4878
24545SOL     OW85358   3.823   0.525   8.188  0.1363  0.5972  0.0143
24545SOL    HW185359   3.747   0.580   8.206 -0.9436 -0.1645 -1.9360
24545SOL    HW285360   3.868   0.568   8.116  0.0023 -0.3642 -0.6641
24546SOL     OW85361   5.968  11.261   7.995  0.1885  0.3289 -0.3195
24546SOL    HW185362   6.008  11.331   7.944 -1.6877  1.4738 -0.3039
24546SOL    HW285363   5.898  11.226   7.939  0.8992 -1.3895 -0.2162
24547SOL     OW85364   2.157   4.267   1.601  0.3156  0.3214 -0.1698
24547SOL    HW185365   2.207   4.186   1.598 -0.0396  0.1241 -1.0029
24547SOL    HW285366   2.079   4.244   1.653  1.4981  0.8921  1.9842
24548SOL     OW85367   4.303   4.985   0.472  0.1068 -0.5422  0.1561
24548SOL    HW185368   4.353   4.905   0.487 -1.0691 -0.9144  2.6183
24548SOL    HW285369   4.220   4.970   0.518 -1.7171  0.6121 -2.5155
24549SOL     OW85370   0.064   9.312  10.018  0.1479 -0.4858  0.4837
24549SOL    HW185371   0.083   9.272   9.933  0.4924  1.1836 -0.2710
24549SOL    HW285372  -0.015   9.268  10.049 -0.1035 -0.9873 -0.8105
24550SOL     OW85373   5.491  10.882   7.252 -0.3541  0.8221 -0.4076
24550SOL    HW185374   5.415  10.940   7.254 -0.6994  0.3696  1.9861
24550SOL    HW285375   5.535  10.897   7.335  0.0937 -1.6219 -0.1219
24551SOL     OW85376   9.706   8.913   7.745 -0.1288  0.0652 -0.1756
24551SOL    HW185377   9.635   8.886   7.804  1.3356 -0.5057  1.4256
24551SOL    HW285378   9.781   8.860   7.773  0.7307  0.0395 -2.3655
24552SOL     OW85379  10.024   7.147  10.937  0.1742  0.3470 -0.8296
24552SOL    HW185380  10.067   7.061  10.934  0.8643  0.6839 -0.8276
24552SOL    HW285381   9.931   7.127  10.944  0.4434 -0.4389  1.5029
24553SOL     OW85382   6.299   6.419  11.461 -0.1632 -0.0043 -0.7139
24553SOL    HW185383   6.295   6.328  11.492 -0.0367  0.2021 -0.0859
24553SOL    HW285384   6.366   6.418  11.393 -0.2535 -0.4090 -0.8022
24554SOL     OW85385   1.384  11.165   3.068  0.1634  0.3626 -0.5975
24554SOL    HW185386   1.387  11.165   2.972  0.1571 -1.1875 -0.6217
24554SOL    HW285387   1.320  11.233   3.089 -0.3811  0.2269 -1.7232
24555SOL     OW85388   5.846   6.908   6.183 -0.2263  0.2494  0.0455
24555SOL    HW185389   5.861   6.857   6.263 -0.8198 -0.3183 -0.1922
24555SOL    HW285390   5.793   6.982   6.211 -1.2245 -0.4409  0.0381
24556SOL     OW85391   5.215   2.074   0.526 -0.5991 -0.4345 -0.1958
24556SOL    HW185392   5.176   2.129   0.594 -0.1247 -0.6373  0.2524
24556SOL    HW285393   5.178   2.107   0.444  1.0742  1.7724 -0.1457
24557SOL     OW85394   6.943   0.149  11.500 -0.2075 -0.3918  0.0863
24557SOL    HW185395   6.903   0.225  11.543  0.0251 -0.1466 -0.1246
24557SOL    HW285396   7.020   0.129  11.554  0.8585  0.7548 -0.9393
24558SOL     OW85397   2.833   6.117  10.899 -0.3910  0.3359  0.0714
24558SOL    HW185398   2.921   6.138  10.868 -0.1368 -1.3078 -0.3719
24558SOL    HW285399   2.777   6.182  10.856  0.3560  0.0995 -1.3175
24559SOL     OW85400   4.001   5.859   5.332 -0.1827 -0.1378 -0.2383
24559SOL    HW185401   4.080   5.816   5.299 -0.1172 -1.2410  1.2712
24559SOL    HW285402   3.971   5.803   5.403 -1.1930  1.3405  0.5462
24560SOL     OW85403   2.740   2.957   5.628  0.5837 -0.5644  0.0618
24560SOL    HW185404   2.647   2.940   5.609  0.6678 -0.8339 -0.1106
24560SOL    HW285405   2.752   2.926   5.718  0.7004 -1.3090 -0.1972
24561SOL     OW85406   5.520   8.663   1.932 -0.1423  0.0274  0.1592
24561SOL    HW185407   5.577   8.737   1.913 -0.1534  0.2597  0.9927
24561SOL    HW285408   5.472   8.689   2.011 -1.1829 -0.2821 -0.3487
24562SOL     OW85409   9.324  10.645  11.838 -0.5255  0.0166  0.0498
24562SOL    HW185410   9.260  10.588  11.880 -0.4448  0.8602  1.3710
24562SOL    HW285411   9.283  10.731  11.840 -0.4275  0.1176 -1.4602
24563SOL     OW85412   1.489   0.628   9.690  0.4733  0.1554  0.5701
24563SOL    HW185413   1.410   0.574   9.696  0.8397 -0.7218 -1.4770
24563SOL    HW285414   1.456   0.716   9.669  0.0154 -0.5617 -2.0678
24564SOL     OW85415   7.800  10.147   9.949  0.1249  0.2964 -0.2091
24564SOL    HW185416   7.855  10.206   9.897 -0.0317 -0.9078 -1.8144
24564SOL    HW285417   7.756  10.093   9.884 -0.4876 -0.9372  1.1903
24565SOL     OW85418   3.629   5.600   1.861  0.4968 -0.7202  0.3262
24565SOL    HW185419   3.624   5.617   1.955  1.4530  0.9123  0.1107
24565SOL    HW285420   3.722   5.609   1.839 -0.0021  1.8989 -1.2334
24566SOL     OW85421   6.401   7.071   0.036 -0.2542 -0.2606  0.0830
24566SOL    HW185422   6.381   7.122   0.114  0.2385  0.5464 -0.2999
24566SOL    HW285423   6.341   7.104  -0.031 -0.9229 -1.1972  0.2041
24567SOL     OW85424  11.724   0.060  11.871 -0.6309 -0.2291 -0.1464
24567SOL    HW185425  11.785   0.124  11.908  0.3696 -1.6992  0.8841
24567SOL    HW285426  11.780  -0.006  11.831 -1.5312 -1.5944  0.7711
24568SOL     OW85427   0.501   1.785   9.700 -0.1548 -0.2065  0.4478
24568SOL    HW185428   0.438   1.849   9.667  0.5535 -0.4796 -1.5407
24568SOL    HW285429   0.446   1.717   9.741 -1.0598  0.2763  0.0671
24569SOL     OW85430   9.254   1.274   7.307  0.4014 -0.4336  0.2690
24569SOL    HW185431   9.283   1.364   7.289  2.5915 -1.1175  0.0483
24569SOL    HW285432   9.175   1.284   7.359  0.5184  1.6272  0.1346
24570SOL     OW85433   2.360  11.460  10.619 -0.0247 -0.0730  0.0943
24570SOL    HW185434   2.312  11.423  10.545  0.8628  1.4436 -1.2895
24570SOL    HW285435   2.433  11.507  10.580  1.1441 -0.1751  2.0110
24571SOL     OW85436   3.348  10.434   6.631  0.1278 -0.0548  0.9753
24571SOL    HW185437   3.422  10.493   6.615 -1.5389  1.6375 -0.9113
24571SOL    HW285438   3.293  10.480   6.693 -0.2725 -0.5013  0.9564
24572SOL     OW85439   4.728   7.107  10.923  0.7141  0.4539  0.0846
24572SOL    HW185440   4.759   7.112  10.833  1.3204 -0.4528  0.2384
24572SOL    HW285441   4.655   7.046  10.921  1.8456 -0.9547  0.4913
24573SOL     OW85442   7.516   3.471   4.463 -0.0154 -0.2021  0.6068
24573SOL    HW185443   7.426   3.497   4.445 -0.4103 -2.1233 -0.4759
24573SOL    HW285444   7.514   3.375   4.462  2.3009 -0.3027 -0.9198
24574SOL     OW85445   5.955   8.234  10.751  0.0634 -0.5380  0.5280
24574SOL    HW185446   6.047   8.250  10.771 -0.0759 -0.3994  1.0963
24574SOL    HW285447   5.908   8.294  10.809 -0.3482  0.5594 -0.8799
24575SOL     OW85448   9.061   6.038   7.671  0.8022 -0.0589  0.3231
24575SOL    HW185449   9.133   5.977   7.687  0.1223 -0.2251  3.5309
24575SOL    HW285450   9.084   6.115   7.723  0.3171  1.3766 -1.4751
24576SOL     OW85451   3.383   4.394   3.242  0.2282  0.3506  0.5380
24576SOL    HW185452   3.408   4.345   3.320  2.3915  0.0383 -0.2667
24576SOL    HW285453   3.389   4.330   3.171  0.1915  1.0692 -0.1315
24577SOL     OW85454   6.523   8.989   1.630 -0.0579  0.3203  0.0296
24577SOL    HW185455   6.606   8.943   1.617  1.0968  1.2781  3.2505
24577SOL    HW285456   6.470   8.962   1.555  2.5092 -1.7075 -1.2458
24578SOL     OW85457   4.513   0.271   0.029  0.3445  0.0482  0.0576
24578SOL    HW185458   4.546   0.247  -0.057  1.2783 -0.6666  0.5834
24578SOL    HW285459   4.420   0.248   0.027  0.4683 -0.4197 -0.5960
24579SOL     OW85460  11.204   2.921  10.377 -0.7261  0.3360  0.0254
24579SOL    HW185461  11.187   2.985  10.308 -0.4082 -0.4484 -0.7984
24579SOL    HW285462  11.257   2.968  10.441 -0.3809  0.8585 -0.6361
24580SOL     OW85463   4.837   8.441   3.317 -0.3730  0.6270 -0.1573
24580SOL    HW185464   4.826   8.364   3.373 -1.6488  0.9990  0.1470
24580SOL    HW285465   4.891   8.501   3.368 -0.6131  0.5221  0.2254
24581SOL     OW85466   6.180   1.828   4.424 -0.0722 -0.4866 -0.0741
24581SOL    HW185467   6.095   1.831   4.381 -0.8445 -1.9698  1.2535
24581SOL    HW285468   6.233   1.893   4.377 -1.5112 -0.4782 -1.7743
24582SOL     OW85469   8.604   5.013  11.888 -1.1761  0.2284 -0.4617
24582SOL    HW185470   8.530   5.005  11.948  0.3315 -0.6733  1.4053
24582SOL    HW285471   8.574   5.074  11.821 -3.1722  0.8118  0.8656
24583SOL     OW85472   3.856  10.665  11.338 -0.3951  0.5240  0.0092
24583SOL    HW185473   3.869  10.613  11.418  1.3313  0.1905 -0.4489
24583SOL    HW285474   3.771  10.708  11.351 -0.1711  0.4687  2.0197
24584SOL     OW85475   8.204   5.284   5.138  0.2396 -0.3414 -0.3707
24584SOL    HW185476   8.174   5.268   5.049  1.6533 -0.8839 -0.7641
24584SOL    HW285477   8.289   5.242   5.143  0.7192  0.7104  0.8731
24585SOL     OW85478   1.507   0.486   9.960  0.0205 -0.2388 -0.3284
24585SOL    HW185479   1.462   0.498   9.876 -1.6259 -2.3723  0.1568
24585SOL    HW285480   1.448   0.523  10.025  0.8280  0.4983 -0.0002
24586SOL     OW85481   0.561   7.859   8.853  0.7063 -0.0318  0.0676
24586SOL    HW185482   0.513   7.789   8.897  2.6259 -1.9951 -0.7794
24586SOL    HW285483   0.582   7.921   8.922 -2.7969  0.8557  0.5013
24587SOL     OW85484  10.136   2.172  11.379 -0.3895  1.0677 -0.3904
24587SOL    HW185485  10.082   2.189  11.457 -0.8577  0.7188 -0.6391
24587SOL    HW285486  10.129   2.078  11.364  2.5756  0.4444  1.2564
24588SOL     OW85487   8.714   3.245   5.715  0.4043 -0.2288 -0.0851
24588SOL    HW185488   8.781   3.290   5.663  0.0945  0.4276  0.0765
24588SOL    HW285489   8.722   3.153   5.689  1.4333 -0.1762  0.0069
24589SOL     OW85490   2.945   2.816   9.200 -0.0344  0.6862 -0.1106
24589SOL    HW185491   3.028   2.853   9.170  1.0019  0.2332  2.0092
24589SOL    HW285492   2.949   2.724   9.173  0.7105  0.3816  0.9420
24590SOL     OW85493   6.944   1.429   3.387 -0.0371  0.3426  0.4191
24590SOL    HW185494   6.914   1.519   3.396  3.0364  1.5525 -0.2829
24590SOL    HW285495   6.974   1.423   3.296  2.4252 -0.4348  1.2070
24591SOL     OW85496   7.004   4.816   3.737  0.3393  0.2255 -0.3598
24591SOL    HW185497   7.045   4.892   3.693  1.2518  0.5265  0.9507
24591SOL    HW285498   6.916   4.846   3.759  0.5260  0.7363 -0.2940
24592SOL     OW85499  10.099   3.100   9.780 -0.2075  0.1114 -0.4301
24592SOL    HW185500  10.047   3.132   9.706  0.1651  0.8637 -0.3778
24592SOL    HW285501  10.146   3.024   9.745  0.1652  0.6159 -1.0397
24593SOL     OW85502   7.724   0.699   2.902 -0.0910 -0.2726 -0.2382
24593SOL    HW185503   7.680   0.775   2.864 -1.9572 -2.1825 -2.1507
24593SOL    HW285504   7.817   0.715   2.885 -0.5512  0.9187 -1.9788
24594SOL     OW85505   4.668   4.602  10.609 -0.2738  0.1411  0.1297
24594SOL    HW185506   4.625   4.665  10.552 -0.4565  0.6047  0.7757
24594SOL    HW285507   4.758   4.635  10.618  0.0263 -0.4220 -0.6056
24595SOL     OW85508   6.663  11.166  10.519  0.3341  0.0921 -0.9950
24595SOL    HW185509   6.591  11.111  10.550  1.3366 -0.9486 -0.4076
24595SOL    HW285510   6.674  11.232  10.587 -1.3177  1.4948 -2.0224
24596SOL     OW85511  10.908   3.908   3.811 -0.0311 -0.0201  0.3518
24596SOL    HW185512  10.960   3.989   3.815  0.8606 -0.2166 -3.4747
24596SOL    HW285513  10.818   3.939   3.806  0.1281  0.5985  0.9423
24597SOL     OW85514   5.212   9.056   4.452 -0.0103  0.4746  0.7337
24597SOL    HW185515   5.160   9.131   4.423  0.8866  0.9856  0.4187
24597SOL    HW285516   5.237   9.011   4.371  0.0989  0.2651  0.8819
24598SOL     OW85517   3.401   5.610   7.918  0.4260  0.0007 -0.4785
24598SOL    HW185518   3.342   5.686   7.923  2.8617  1.9574  0.4024
24598SOL    HW285519   3.367   5.550   7.984 -0.6394  1.0117 -0.0545
24599SOL     OW85520  11.418  11.886   9.254  0.0569 -0.2889 -0.0900
24599SOL    HW185521  11.420  11.893   9.350 -0.7825  2.2254 -0.1853
24599SOL    HW285522  11.327  11.905   9.231  0.0408 -1.7395 -1.3861
24600SOL     OW85523   3.322   7.436   6.345 -0.0962  0.1862 -0.4601
24600SOL    HW185524   3.375   7.386   6.283 -2.0104  0.1092 -2.1120
24600SOL    HW285525   3.274   7.370   6.395 -0.3210  0.3014 -0.5240
24601SOL     OW85526   9.021  10.983   5.454  0.0385 -0.7760  0.2748
24601SOL    HW185527   9.004  10.894   5.426  1.2957 -0.9402 -0.0090
24601SOL    HW285528   9.116  10.992   5.451  0.0210  0.1462  1.5998
24602SOL     OW85529   4.530   0.367   9.693 -0.2599  0.5275  0.0124
24602SOL    HW185530   4.565   0.412   9.770 -0.3214 -2.2053  1.7824
24602SOL    HW285531   4.593   0.297   9.676 -0.8361  0.4034 -1.7558
24603SOL     OW85532   9.283   6.372   0.479  0.1513 -0.1663  0.3399
24603SOL    HW185533   9.215   6.400   0.418  0.5523  0.5938  0.2322
24603SOL    HW285534   9.248   6.390   0.566 -0.0421 -0.3781  0.3064
24604SOL     OW85535   9.107   6.620   0.575 -0.7228 -0.1335  0.3303
24604SOL    HW185536   9.119   6.607   0.481  0.1673 -1.7079  0.6311
24604SOL    HW285537   9.023   6.580   0.595  0.0038 -1.6291  0.5125
24605SOL     OW85538   9.027   7.084   6.228 -0.1148 -0.7646 -0.1705
24605SOL    HW185539   9.027   7.002   6.277  1.0499 -0.8084 -0.2276
24605SOL    HW285540   8.960   7.071   6.160  1.9798 -2.8122 -2.0040
24606SOL     OW85541   5.463   4.984   7.494 -0.5924 -0.6328 -0.3016
24606SOL    HW185542   5.401   5.018   7.558  0.9809 -0.3965  1.1732
24606SOL    HW285543   5.466   5.051   7.425 -2.3359 -0.9073 -0.6849
24607SOL     OW85544   9.928   0.938   2.430 -0.0623 -0.3663 -0.0403
24607SOL    HW185545   9.973   1.006   2.380 -1.3060 -0.5842 -1.5442
24607SOL    HW285546   9.835   0.949   2.406 -0.4704 -1.6134  0.8908
24608SOL     OW85547   9.100  10.846   1.176  0.4244  0.6243 -0.0636
24608SOL    HW185548   9.030  10.898   1.137  0.8909  1.4085  0.1262
24608SOL    HW285549   9.180  10.879   1.135  0.7401  0.1476  0.1584
24609SOL     OW85550   8.802   2.000   1.633 -0.3899  0.3376 -0.1854
24609SOL    HW185551   8.869   1.977   1.697 -0.2554  2.1139  0.3574
24609SOL    HW285552   8.849   2.003   1.550 -0.2132 -0.3568 -0.1136
24610SOL     OW85553   1.040   4.390   8.024  0.7995  0.1305  0.1040
24610SOL    HW185554   1.041   4.303   8.065 -1.2946 -0.3354 -0.7153
24610SOL    HW285555   1.038   4.451   8.098 -0.5262 -0.6267  0.7330
24611SOL     OW85556   7.258  11.956   7.370 -0.4402  0.2043 -0.0273
24611SOL    HW185557   7.286  12.044   7.347 -0.3109  0.2522  0.3090
24611SOL    HW285558   7.201  11.967   7.446  1.1370 -0.1540  1.2668
24612SOL     OW85559   4.985   7.498   1.750 -0.3841  0.5359 -0.2024
24612SOL    HW185560   5.020   7.435   1.813 -2.5919 -1.2476 -0.6344
24612SOL    HW285561   5.032   7.580   1.769  1.5680 -0.8475  1.3303
24613SOL     OW85562   5.879   6.293   1.275 -0.1890 -0.5185 -0.0667
24613SOL    HW185563   5.791   6.276   1.240 -0.4889 -0.6708  0.7555
24613SOL    HW285564   5.910   6.367   1.223 -1.0188 -0.1128 -0.0056
24614SOL     OW85565  11.713   7.948   8.516 -0.2533 -0.2453 -0.3555
24614SOL    HW185566  11.642   7.920   8.574 -0.8496  0.8613 -0.5268
24614SOL    HW285567  11.793   7.925   8.563 -0.6742  2.1499  1.7477
24615SOL     OW85568   9.361   6.745  11.540 -0.1574 -0.0786  0.0043
24615SOL    HW185569   9.268   6.767  11.550 -0.3827 -1.4250  1.0903
24615SOL    HW285570   9.403   6.830  11.524 -1.8486  0.3211 -3.2319
24616SOL     OW85571   8.909  11.915   5.834 -0.3517  0.2306 -0.3097
24616SOL    HW185572   8.930  11.883   5.922  2.6441 -1.6756 -1.5434
24616SOL    HW285573   8.938  12.006   5.835  1.7235 -0.3800  0.1274
24617SOL     OW85574  10.397   7.799   9.424 -0.4094 -0.0899  0.1519
24617SOL    HW185575  10.476   7.766   9.467  0.0918  1.7124  0.7089
24617SOL    HW285576  10.397   7.756   9.338  0.8711 -0.5473  0.3556
24618SOL     OW85577   7.232   9.312   1.773  0.0463  0.2205 -0.2554
24618SOL    HW185578   7.291   9.270   1.836 -0.1790  0.5184  0.1612
24618SOL    HW285579   7.146   9.273   1.791  0.1024 -0.1752 -0.8263
24619SOL     OW85580  10.886   9.565   7.745 -0.1323 -0.0301  0.2095
24619SOL    HW185581  10.845   9.514   7.814  1.2356 -2.1937 -0.4783
24619SOL    HW285582  10.917   9.645   7.788 -1.3293 -0.2737  1.5660
24620SOL     OW85583   4.949  10.158   4.661 -0.6423  0.1502 -0.2367
24620SOL    HW185584   4.933  10.182   4.752 -0.3813 -0.6250  0.0155
24620SOL    HW285585   5.039  10.185   4.645 -0.8687  0.8150 -0.4490
24621SOL     OW85586   4.065   4.938   4.557 -0.2827 -0.0254 -0.1727
24621SOL    HW185587   4.049   5.018   4.506 -1.4018 -0.0764  0.0836
24621SOL    HW285588   4.009   4.946   4.634  1.3859  0.0426  1.0876
24622SOL     OW85589   3.092  11.497   1.471  0.1408 -0.7492 -0.2959
24622SOL    HW185590   3.131  11.449   1.545  0.2317 -3.5859 -2.0354
24622SOL    HW285591   3.161  11.557   1.443  1.6577 -2.5094 -0.5265
24623SOL     OW85592   2.899   2.186   2.820  0.0560 -0.0318 -0.7092
24623SOL    HW185593   2.860   2.265   2.857  1.0525  0.2138 -0.1352
24623SOL    HW285594   2.984   2.178   2.864  0.0858 -1.2804 -0.9458
24624SOL     OW85595   8.153   9.855   6.103  0.6789 -0.0945 -0.3669
24624SOL    HW185596   8.199   9.774   6.079 -0.8100 -0.8563 -0.7610
24624SOL    HW285597   8.104   9.879   6.024  0.6037  0.8436 -0.0472
24625SOL     OW85598  11.927   1.941   0.964  0.3796 -0.0327  0.1211
24625SOL    HW185599  11.907   1.933   0.871 -0.3928 -0.9906  0.3572
24625SOL    HW285600  11.973   2.025   0.971  0.3864  0.0882 -1.1050
24626SOL     OW85601   8.356   1.845   5.406  0.2387 -0.5957 -0.2016
24626SOL    HW185602   8.294   1.788   5.451 -1.7802  1.4860 -0.2133
24626SOL    HW285603   8.345   1.824   5.314 -1.2361  0.4629 -0.2885
24627SOL     OW85604  11.649   5.385   8.301  0.0985  0.1270 -0.2109
24627SOL    HW185605  11.718   5.320   8.295 -0.3874 -0.4272  0.1080
24627SOL    HW285606  11.650   5.412   8.393 -2.3346 -2.4137  0.7121
24628SOL     OW85607   0.296   7.038   9.216  0.1849  0.0965  0.2230
24628SOL    HW185608   0.329   7.034   9.306 -3.0358 -0.5371  1.5028
24628SOL    HW285609   0.251   6.954   9.204 -1.4804  1.1330 -1.1107
24629SOL     OW85610   9.037   2.615   5.632  0.1622 -0.0096 -0.1211
24629SOL    HW185611   8.947   2.633   5.605  0.0044  1.4411  1.2670
24629SOL    HW285612   9.061   2.537   5.581 -1.4123  0.3197 -1.4801
24630SOL     OW85613   2.192  10.081   1.775 -0.2737 -0.0214  0.0986
24630SOL    HW185614   2.185  10.048   1.865  3.9764 -0.5016  0.4707
24630SOL    HW285615   2.167  10.173   1.781 -2.5658 -0.6421  1.1506
24631SOL     OW85616   2.442  11.796   1.516  0.1275 -0.5576  0.0429
24631SOL    HW185617   2.511  11.794   1.449 -0.5450 -0.1014 -0.6843
24631SOL    HW285618   2.365  11.831   1.470 -0.2742  0.0415  1.1255
24632SOL     OW85619   2.123  10.020   4.223 -0.2744  0.1283  0.1454
24632SOL    HW185620   2.217  10.017   4.237 -0.0109 -0.4265 -1.5248
24632SOL    HW285621   2.109  10.092   4.162 -0.8056 -0.4021 -0.3792
24633SOL     OW85622   9.955   1.812   2.599 -0.7646  0.1467 -0.2459
24633SOL    HW185623   9.992   1.853   2.678 -0.6336  2.4383 -1.4112
24633SOL    HW285624  10.031   1.797   2.543 -0.5147 -3.6131  0.8130
24634SOL     OW85625   0.623   4.317   9.692 -0.4008 -0.2646 -0.0140
24634SOL    HW185626   0.557   4.351   9.632 -0.3238 -0.0066  0.0466
24634SOL    HW285627   0.644   4.391   9.749 -0.6706 -0.5802  0.5055
24635SOL     OW85628   4.356   0.104   4.876  0.8433  0.0369 -0.3996
24635SOL    HW185629   4.333   0.196   4.892 -1.2531  0.0061 -2.6371
24635SOL    HW285630   4.298   0.054   4.933 -1.0299  0.0858 -2.1611
24636SOL     OW85631   7.003   1.573   5.498  0.0078  0.0498  0.1938
24636SOL    HW185632   6.954   1.491   5.498  1.8026 -1.0775 -0.2350
24636SOL    HW285633   6.936   1.641   5.487 -1.3208 -1.5060 -2.5347
24637SOL     OW85634   2.573   4.873  11.224 -0.0790  0.3587  0.7088
24637SOL    HW185635   2.483   4.903  11.229 -0.3321 -0.1048 -0.7014
24637SOL    HW285636   2.568   4.787  11.181  1.1605  1.1187 -1.0585
24638SOL     OW85637   3.661   0.194   6.799  0.5581  0.0926 -0.1433
24638SOL    HW185638   3.612   0.155   6.726  1.6495  1.2982 -1.5938
24638SOL    HW285639   3.616   0.163   6.878 -3.0635  1.7404 -1.3387
24639SOL     OW85640   9.045   4.008   1.324  0.2200 -0.2485  0.4204
24639SOL    HW185641   9.132   4.015   1.363  0.0109  1.5426  0.6638
24639SOL    HW285642   9.005   4.094   1.339 -0.7806 -0.2941 -1.5596
24640SOL     OW85643  11.347   4.603   0.252  0.0723 -0.0161  0.3735
24640SOL    HW185644  11.282   4.545   0.212 -0.1422 -0.1643  0.9292
24640SOL    HW285645  11.412   4.544   0.289  0.4878  0.1308 -0.1031
24641SOL     OW85646   3.428   5.248   4.910 -0.0077 -0.5853 -0.1151
24641SOL    HW185647   3.484   5.185   4.955  2.1534  0.8602 -0.6530
24641SOL    HW285648   3.382   5.294   4.980  0.3517 -1.0032  0.4032
24642SOL     OW85649   5.539   5.271   4.666  0.0548  0.0312 -0.1859
24642SOL    HW185650   5.616   5.267   4.722  0.0829 -0.6577 -0.2655
24642SOL    HW285651   5.488   5.194   4.689  0.5061 -0.7808 -1.7106
24643SOL     OW85652   1.522   5.536   7.737 -0.9037 -0.4157 -0.6728
24643SOL    HW185653   1.505   5.616   7.686  0.9044 -0.4547 -1.4206
24643SOL    HW285654   1.450   5.477   7.714 -2.1912  0.9238 -0.2162
24644SOL     OW85655   2.733  11.045  10.008  0.3128 -0.2720 -0.2207
24644SOL    HW185656   2.736  10.968   9.951  0.6739  1.3466 -2.5616
24644SOL    HW285657   2.811  11.038  10.062  0.7109 -1.2060 -0.8871
24645SOL     OW85658   1.509   2.719   3.727  0.1312  0.2984 -0.2818
24645SOL    HW185659   1.526   2.633   3.766  0.8413 -0.0136 -1.2447
24645SOL    HW285660   1.585   2.735   3.672 -0.4156  1.1471 -0.8051
24646SOL     OW85661   5.244   3.334  11.758 -0.3479  0.2116  0.3703
24646SOL    HW185662   5.228   3.244  11.729  1.7970 -0.3387  0.6841
24646SOL    HW285663   5.254   3.383  11.676  1.5845 -0.5120  0.1095
24647SOL     OW85664   3.948   7.741   5.219 -0.0694 -0.5415 -0.7559
24647SOL    HW185665   4.013   7.716   5.284 -1.0733 -1.7755 -0.1819
24647SOL    HW285666   3.879   7.676   5.227 -1.7412  1.1198 -0.8440
24648SOL     OW85667   6.408   0.478   9.149  0.0788  0.7739  0.1912
24648SOL    HW185668   6.427   0.558   9.198  1.1772  1.8361 -1.8061
24648SOL    HW285669   6.494   0.437   9.136 -0.1336  0.6613 -0.9853
24649SOL     OW85670  11.748   5.604   1.394  0.6756  0.2318 -0.2017
24649SOL    HW185671  11.776   5.689   1.426 -0.5513  0.0123  1.6089
24649SOL    HW285672  11.770   5.543   1.465  0.5487 -0.7874 -1.0045
24650SOL     OW85673   8.342  10.777   7.358  0.3925 -0.1567  0.3000
24650SOL    HW185674   8.330  10.817   7.272  1.8884  1.9682  0.9875
24650SOL    HW285675   8.256  10.783   7.400  0.3233  1.4848 -0.0154
24651SOL     OW85676   2.605   9.736   6.783  0.2016 -0.2379  0.9277
24651SOL    HW185677   2.666   9.737   6.709 -0.9279  2.4002 -0.1193
24651SOL    HW285678   2.552   9.658   6.770  2.0557 -1.5488  0.8004
24652SOL     OW85679   1.117   1.106  11.609 -0.0173  0.4920  0.1436
24652SOL    HW185680   1.157   1.062  11.534 -0.2202  0.6534 -0.0590
24652SOL    HW285681   1.081   1.187  11.573 -2.9056 -0.8279 -0.2322
24653SOL     OW85682   8.618   5.079   1.448 -0.3964  0.1276  0.0735
24653SOL    HW185683   8.609   5.174   1.451 -2.3543 -0.0198  1.2611
24653SOL    HW285684   8.711   5.063   1.433  0.3085  2.2172  1.7574
24654SOL     OW85685   3.752  10.130   4.652 -0.2009 -0.7868 -0.2501
24654SOL    HW185686   3.710  10.169   4.729 -2.2967 -1.7332 -0.8324
24654SOL    HW285687   3.719  10.181   4.578  0.3823 -1.0077 -0.6670
24655SOL     OW85688   8.681   3.268   2.949 -0.2516 -0.0062  0.4820
24655SOL    HW185689   8.716   3.322   3.020 -1.5645 -1.1288  2.0461
24655SOL    HW285690   8.638   3.195   2.993  0.8431 -2.0019 -1.5528
24656SOL     OW85691   9.250   6.248   7.713 -0.2032 -0.6197 -0.0403
24656SOL    HW185692   9.321   6.292   7.760  0.4354 -0.9369 -0.6785
24656SOL    HW285693   9.283   6.160   7.696  0.2313 -0.0766 -2.3736
24657SOL     OW85694   2.453  10.036   6.090 -0.5817 -0.0619 -0.5077
24657SOL    HW185695   2.508  10.019   6.014  2.5449  1.1291  1.3002
24657SOL    HW285696   2.435  10.131   6.087 -0.8697 -0.0935 -0.0248
24658SOL     OW85697   2.683   7.114   7.137 -0.4579  0.1327  0.0218
24658SOL    HW185698   2.732   7.193   7.160 -0.0950 -0.2384  0.5413
24658SOL    HW285699   2.749   7.046   7.128 -0.9383 -0.7102  2.1200
24659SOL     OW85700   2.353   7.828   1.156  0.2768  0.3519 -0.1196
24659SOL    HW185701   2.360   7.922   1.140  0.6779  0.7395  2.0047
24659SOL    HW285702   2.437   7.805   1.196 -0.2076 -0.6901  0.3373
24660SOL     OW85703   8.615  11.172   8.218  0.3461  0.5016  0.4225
24660SOL    HW185704   8.598  11.266   8.211 -0.1102  0.3920  0.0570
24660SOL    HW285705   8.707  11.163   8.194  0.3573  0.8417  0.3355
24661SOL     OW85706   0.123  11.487   4.576  0.3076 -0.1026 -0.0275
24661SOL    HW185707   0.174  11.432   4.516  1.4370  0.1143  0.7048
24661SOL    HW285708   0.185  11.554   4.605 -0.1816 -0.2413  1.4255
24662SOL     OW85709   3.675   5.993   4.531  0.4577  0.0953 -0.9322
24662SOL    HW185710   3.603   5.998   4.594  0.7773 -0.6441 -0.4971
24662SOL    HW285711   3.739   6.057   4.562  0.5214 -0.1180 -0.6165
24663SOL     OW85712   9.576   5.893   9.167  1.0224 -0.2652 -0.2695
24663SOL    HW185713   9.524   5.953   9.221  1.4265 -2.0048  2.2770
24663SOL    HW285714   9.523   5.876   9.090 -0.8840  0.2388  0.8770
24664SOL     OW85715   4.377   7.135   2.906  0.3054  0.3516 -0.1504
24664SOL    HW185716   4.382   7.072   2.834  0.3872 -0.5689  0.6410
24664SOL    HW285717   4.405   7.086   2.983 -0.7446  1.0197  0.6909
24665SOL     OW85718   8.396   4.968   6.567  0.5181  0.4654 -0.7878
24665SOL    HW185719   8.490   4.953   6.563  0.7584  0.6874  2.1286
24665SOL    HW285720   8.361   4.887   6.605  0.0806  1.7839  1.8144
24666SOL     OW85721   3.887   1.571   9.120 -0.1376 -0.3988 -0.1684
24666SOL    HW185722   3.860   1.591   9.030 -1.1559  1.3071  0.4811
24666SOL    HW285723   3.980   1.548   9.113 -0.0854  0.1617 -1.5805
24667SOL     OW85724   3.476   6.353   4.717  0.4966 -0.4945  0.3195
24667SOL    HW185725   3.390   6.371   4.754  0.5977 -0.1064  0.3747
24667SOL    HW285726   3.514   6.288   4.776  0.0289 -1.0841 -0.0199
24668SOL     OW85727   8.229   7.281  10.955 -0.1924  0.0327 -0.4816
24668SOL    HW185728   8.281   7.201  10.946 -2.0962 -1.2656 -0.4700
24668SOL    HW285729   8.243   7.308  11.046 -0.1971 -0.7543 -0.2442
24669SOL     OW85730   9.818   9.340   3.447  0.2623  0.2575 -0.6191
24669SOL    HW185731   9.902   9.298   3.431  0.6364  1.3437 -1.7002
24669SOL    HW285732   9.762   9.310   3.375 -0.5839 -1.1596  0.5780
24670SOL     OW85733   7.286  11.681   9.999  0.3561  0.3523 -0.7175
24670SOL    HW185734   7.246  11.641  10.076  1.6025  3.2502  1.6340
24670SOL    HW285735   7.364  11.628   9.983 -0.2757 -0.6947 -0.4544
24671SOL     OW85736   8.576   3.203   9.999  0.2204 -0.0009 -0.0675
24671SOL    HW185737   8.626   3.280  10.028  0.4644 -0.0244 -0.4089
24671SOL    HW285738   8.542   3.229   9.913 -0.1360 -0.0830  0.0497
24672SOL     OW85739   7.941   9.875   9.717  0.4896 -0.0369  0.1253
24672SOL    HW185740   7.870   9.888   9.654  1.1866 -0.6375 -0.8020
24672SOL    HW285741   7.930   9.785   9.747 -0.2542  0.4485  1.4213
24673SOL     OW85742   2.776   5.623   0.477 -0.7243 -0.2095 -0.1413
24673SOL    HW185743   2.856   5.644   0.428 -0.2304  0.0883  0.7714
24673SOL    HW285744   2.708   5.619   0.410 -0.7311  3.4764 -0.6068
24674SOL     OW85745   0.557   6.667   8.572  0.3698 -0.3083  0.3236
24674SOL    HW185746   0.462   6.676   8.573  0.3414 -0.3652 -0.6722
24674SOL    HW285747   0.589   6.740   8.625 -0.2041  0.1094  0.1082
24675SOL     OW85748   7.589   4.881   0.475  0.2287 -0.4204 -0.2027
24675SOL    HW185749   7.595   4.891   0.570 -2.2727 -3.3968  0.4174
24675SOL    HW285750   7.513   4.935   0.450  0.0597 -0.6875 -0.2735
24676SOL     OW85751   8.602   5.515   2.941 -0.1199 -0.5409 -0.5654
24676SOL    HW185752   8.685   5.561   2.954  0.0812 -1.1101  0.2415
24676SOL    HW285753   8.598   5.452   3.013 -1.1682 -0.6537 -0.7084
24677SOL     OW85754   3.555  11.010   2.951 -0.4185 -0.2114 -0.5906
24677SOL    HW185755   3.507  10.927   2.948 -1.2752  0.1165  1.6304
24677SOL    HW285756   3.632  10.996   2.896 -0.7955 -2.3039 -0.6631
24678SOL     OW85757   1.199   8.354   7.621 -0.6865 -0.2839 -0.2291
24678SOL    HW185758   1.114   8.325   7.588 -0.4162 -1.4056  0.0495
24678SOL    HW285759   1.257   8.279   7.611  0.5200  0.7233 -1.2078
24679SOL     OW85760   2.616   8.999   5.592  0.2689 -0.4605 -0.2773
24679SOL    HW185761   2.555   8.925   5.602  1.3154 -1.8681 -3.0774
24679SOL    HW285762   2.568   9.063   5.540 -0.2360  0.4025  1.1845
24680SOL     OW85763   9.593  11.453   0.684  0.0788 -0.0863  0.2294
24680SOL    HW185764   9.678  11.473   0.724  0.0604  0.8719 -0.1793
24680SOL    HW285765   9.566  11.371   0.725  0.9521 -0.1240  0.7597
24681SOL     OW85766  11.090   1.714   0.729  0.3819  0.0821  0.3038
24681SOL    HW185767  11.015   1.745   0.679 -0.1737 -1.1543  0.3231
24681SOL    HW285768  11.067   1.733   0.820 -1.5596 -3.3171  0.6869
24682SOL     OW85769   8.094   7.868   4.920  0.6504  0.7416 -0.0806
24682SOL    HW185770   8.049   7.940   4.875 -1.7816 -0.7700 -0.2402
24682SOL    HW285771   8.026   7.826   4.973  2.7498  0.6084  2.7475
24683SOL     OW85772   1.029   4.235   0.433 -0.2721  0.0394  0.0364
24683SOL    HW185773   1.049   4.317   0.478  0.0705 -0.2701  0.4565
24683SOL    HW285774   1.107   4.216   0.382 -1.0590  0.9432 -1.5562
24684SOL     OW85775   4.087   8.573   3.622  0.0093  0.0781  0.1167
24684SOL    HW185776   4.075   8.506   3.689  1.8864  0.8330  1.3080
24684SOL    HW285777   4.085   8.655   3.671  0.7646  0.6832 -0.8393
24685SOL     OW85778   4.718   9.901  11.902 -0.0420 -0.3754 -0.4011
24685SOL    HW185779   4.692   9.900  11.994 -0.2165  0.2536 -0.4366
24685SOL    HW285780   4.652   9.955  11.859  1.1963  1.1102 -0.5177
24686SOL     OW85781   4.616   9.744  10.294 -0.3131 -0.3723 -0.2270
24686SOL    HW185782   4.620   9.708  10.206  0.3368  0.0822 -0.3905
24686SOL    HW285783   4.706   9.768  10.315 -0.7227  1.2523 -0.1685
24687SOL     OW85784   1.024   0.487   8.625  0.5237  0.1629  0.3578
24687SOL    HW185785   1.023   0.392   8.625 -0.2169  0.1557 -0.6705
24687SOL    HW285786   1.008   0.511   8.716  0.8423 -0.6882  0.6470
24688SOL     OW85787   6.449   9.239  11.866 -0.0817 -0.5349 -0.3541
24688SOL    HW185788   6.477   9.253  11.776 -0.3793  1.4059 -0.1935
24688SOL    HW285789   6.487   9.155  11.891  2.8464  0.4103 -1.2086
24689SOL     OW85790  11.455   4.715   9.545  0.6385 -0.0070 -0.5847
24689SOL    HW185791  11.412   4.782   9.598  2.4039  0.7289 -0.0187
24689SOL    HW285792  11.481   4.648   9.607  0.7355 -0.2100 -0.8418
24690SOL     OW85793   9.483   4.367   9.033  0.0747 -0.0445 -0.3312
24690SOL    HW185794   9.444   4.370   8.945 -0.0547  0.5172 -0.2591
24690SOL    HW285795   9.503   4.274   9.047  0.1607 -0.1310 -0.9810
24691SOL     OW85796   4.141   5.192  10.635 -0.2410  0.1347 -0.5861
24691SOL    HW185797   4.139   5.106  10.594 -0.1570 -0.9934  1.6366
24691SOL    HW285798   4.234   5.212  10.646 -0.2582 -0.2205  0.2858
24692SOL     OW85799  11.290   2.434   4.105  0.1126  0.0359 -0.3198
24692SOL    HW185800  11.195   2.432   4.088  0.2218  2.8756 -1.7339
24692SOL    HW285801  11.314   2.342   4.113 -2.7271 -0.7918 -0.0319
24693SOL     OW85802   3.669   8.578   5.309 -0.7483 -0.0987 -0.6930
24693SOL    HW185803   3.582   8.540   5.326 -0.9006  0.7246  0.5361
24693SOL    HW285804   3.683   8.639   5.382  0.1171  1.0864 -1.7941
24694SOL     OW85805   3.640   5.951   3.956 -0.2462 -0.5600  0.2601
24694SOL    HW185806   3.610   6.038   3.982 -1.4521 -1.3974  1.8505
24694SOL    HW285807   3.727   5.965   3.920 -0.6918  1.3767 -0.1802
24695SOL     OW85808   6.179   8.063   9.970 -0.4148 -0.2983 -0.4900
24695SOL    HW185809   6.145   8.008  10.040 -2.3112  0.7759 -0.4799
24695SOL    HW285810   6.274   8.058   9.979 -0.5861 -1.3561  1.2062
24696SOL     OW85811   1.412   0.408   8.577  0.3481 -0.0907 -0.5274
24696SOL    HW185812   1.453   0.327   8.547  0.8623  0.4777 -1.3932
24696SOL    HW285813   1.374   0.385   8.661  2.7233 -0.5646  0.4994
24697SOL     OW85814   9.474   1.899   0.309  0.7581  0.2768  0.0385
24697SOL    HW185815   9.538   1.929   0.373 -0.3549 -1.2262  1.9545
24697SOL    HW285816   9.402   1.864   0.361 -0.5310 -0.3647 -2.0439
24698SOL     OW85817   6.957   8.790  11.956  0.3023 -0.2373  0.0812
24698SOL    HW185818   6.949   8.760  12.046  2.0520  0.0048  0.3554
24698SOL    HW285819   6.883   8.749  11.910  0.1621 -1.4655  1.3389
24699SOL     OW85820   3.960   0.874   7.042 -0.6722  0.0119  0.1867
24699SOL    HW185821   4.038   0.825   7.015 -1.2731  0.3048 -2.3398
24699SOL    HW285822   3.892   0.807   7.050 -0.6294 -0.0019  0.4502
24700SOL     OW85823   9.803   8.229   7.131  0.3134  0.2615 -0.3545
24700SOL    HW185824   9.830   8.292   7.197  1.9783 -1.9831  1.2590
24700SOL    HW285825   9.719   8.195   7.163 -0.2304  1.0695 -0.8616
24701SOL     OW85826  10.510   2.481   9.091 -0.6781 -0.6257  0.6681
24701SOL    HW185827  10.550   2.420   9.029 -1.0940 -0.6975  0.4702
24701SOL    HW285828  10.584   2.519   9.138 -0.4095 -1.2432  0.7532
24702SOL     OW85829   4.929   1.091   5.671  0.1609 -0.4829 -0.1611
24702SOL    HW185830   4.865   1.019   5.677  0.2538 -0.5348  0.2133
24702SOL    HW285831   4.917   1.141   5.751 -1.5685  1.3356 -1.4435
24703SOL     OW85832   5.659   2.896   4.429  0.0784  0.0031 -0.2559
24703SOL    HW185833   5.748   2.870   4.455  0.2487 -0.3256 -1.1456
24703SOL    HW285834   5.644   2.979   4.476  0.3538 -0.5787  0.9107
24704SOL     OW85835   8.766   2.583   4.249  0.6154  0.6024  0.4297
24704SOL    HW185836   8.855   2.578   4.214  0.4758  0.0424  0.1386
24704SOL    HW285837   8.710   2.592   4.172  0.3133 -0.5625  0.4966
24705SOL     OW85838   9.322   7.369   0.737  0.4369 -0.4116  0.1901
24705SOL    HW185839   9.329   7.388   0.831 -0.1689  2.4669 -0.2452
24705SOL    HW285840   9.251   7.305   0.731 -1.6703  1.6247  1.5742
24706SOL     OW85841  10.033   5.531   2.614  0.6248  0.4200 -0.4721
24706SOL    HW185842   9.992   5.501   2.533  0.0611  0.4870 -0.2126
24706SOL    HW285843  10.119   5.489   2.614 -0.4481 -1.9262  0.3054
24707SOL     OW85844   2.615   6.480   2.920 -0.3057  0.0444  0.2052
24707SOL    HW185845   2.667   6.560   2.915 -1.4744  0.8264  0.1121
24707SOL    HW285846   2.532   6.508   2.960 -0.5771 -1.2037  0.5587
24708SOL     OW85847   6.172   3.312   2.781  0.4402  0.8141  0.0172
24708SOL    HW185848   6.094   3.366   2.793 -1.5951 -1.8027 -0.4529
24708SOL    HW285849   6.170   3.250   2.853  1.3767 -0.1076 -0.7185
24709SOL     OW85850   0.577   9.522   7.295  0.3556 -0.1311  0.8875
24709SOL    HW185851   0.571   9.434   7.258 -0.6361 -0.3178  1.4528
24709SOL    HW285852   0.488   9.557   7.288  0.1297 -0.1486  2.9892
24710SOL     OW85853   0.598  10.774   8.612 -0.0399 -0.0784 -0.3134
24710SOL    HW185854   0.668  10.827   8.649 -1.3714  3.7157 -2.7392
24710SOL    HW285855   0.539  10.757   8.686 -0.1784  3.0034  0.3855
24711SOL     OW85856   2.516   4.492   7.408  0.4187 -0.7486  0.5510
24711SOL    HW185857   2.525   4.398   7.422 -0.1645 -0.5644  2.5857
24711SOL    HW285858   2.423   4.505   7.388  0.7292 -0.6999 -0.9704
24712SOL     OW85859   8.319   0.406  11.587  0.2956 -0.0384  0.0289
24712SOL    HW185860   8.370   0.349  11.530 -2.9882 -0.5547 -2.7379
24712SOL    HW285861   8.333   0.494  11.551  0.8428  0.1070  0.5928
24713SOL     OW85862   4.584   0.055   2.409 -0.2060  0.1880  0.2901
24713SOL    HW185863   4.557  -0.032   2.437  0.5253  0.0765  0.6788
24713SOL    HW285864   4.639   0.087   2.481 -0.4272  0.9469  0.1289
24714SOL     OW85865   9.608   4.718   6.435 -0.4657  0.6591  0.1033
24714SOL    HW185866   9.674   4.710   6.504  0.0595 -0.2304 -0.4875
24714SOL    HW285867   9.644   4.783   6.374 -1.1970  1.8917  0.9359
24715SOL     OW85868   3.579   8.587   5.600 -0.0852 -0.0861  0.8951
24715SOL    HW185869   3.502   8.593   5.656  0.6328  0.9704  1.8303
24715SOL    HW285870   3.639   8.653   5.635  1.0590 -0.5554 -0.0947
24716SOL     OW85871   8.754   5.270   9.127  0.4018  0.3002 -0.4422
24716SOL    HW185872   8.730   5.269   9.034 -0.7842  1.5414 -0.1844
24716SOL    HW285873   8.837   5.317   9.130  0.7381 -0.2522 -0.9297
24717SOL     OW85874   7.496   0.644   9.176 -0.1083  0.1850 -0.2876
24717SOL    HW185875   7.570   0.590   9.203 -0.1066  0.6963  0.8140
24717SOL    HW285876   7.534   0.730   9.157  0.0056 -0.3614 -2.8246
24718SOL     OW85877   8.128   9.376   2.634 -0.0333  0.0155  0.2769
24718SOL    HW185878   8.167   9.395   2.548 -1.2818 -2.9478 -1.1099
24718SOL    HW285879   8.191   9.318   2.677 -0.5836 -0.6291  0.2227
24719SOL     OW85880   3.316   2.293   9.083 -0.0014 -0.0235  0.1641
24719SOL    HW185881   3.244   2.272   9.023 -0.9459  0.7464  0.9805
24719SOL    HW285882   3.310   2.388   9.096  2.1711  0.3265 -0.9594
24720SOL     OW85883   3.153   8.576   0.888 -0.0610 -0.3139 -0.4596
24720SOL    HW185884   3.110   8.607   0.808 -0.5606  0.7251  0.1821
24720SOL    HW285885   3.127   8.640   0.955  0.7063 -0.9133  0.4336
24721SOL     OW85886  11.109   4.646   0.836  0.3307  0.1226 -0.1339
24721SOL    HW185887  11.023   4.688   0.825  0.4725  0.4748  0.0952
24721SOL    HW285888  11.091   4.552   0.826 -0.0303  0.2195 -0.3897
24722SOL     OW85889   6.149   9.860   3.105  0.4927  0.5485 -0.2953
24722SOL    HW185890   6.103   9.846   3.188  0.4397 -0.5096 -0.4905
24722SOL    HW285891   6.237   9.827   3.121  0.8050  1.3428 -0.3350
24723SOL     OW85892   7.571   1.320   6.528  0.8400 -0.0840 -0.1930
24723SOL    HW185893   7.626   1.312   6.450  1.7670 -0.0984  0.4481
24723SOL    HW285894   7.522   1.238   6.531  1.8745 -0.7035  0.0352
24724SOL     OW85895   8.803   5.469   8.820  0.2786  0.5377 -0.0262
24724SOL    HW185896   8.823   5.517   8.740  1.7591  1.5093  0.8965
24724SOL    HW285897   8.888   5.448   8.858 -0.3863 -0.4815  0.9854
24725SOL     OW85898   9.185   9.255   9.077  0.1402  0.4296 -0.1345
24725SOL    HW185899   9.110   9.201   9.102  1.0405 -1.1181 -0.6270
24725SOL    HW285900   9.161   9.293   8.993  0.5711 -1.5347 -1.2000
24726SOL     OW85901   5.113  11.399   7.649 -0.2593 -0.2138  0.8301
24726SOL    HW185902   5.139  11.479   7.695  0.3776 -0.1246  0.3196
24726SOL    HW285903   5.073  11.431   7.568 -1.2255 -0.3770  1.2282
24727SOL     OW85904   8.132   2.154   6.743  0.2045 -0.1512  0.3484
24727SOL    HW185905   8.164   2.151   6.653  0.1915 -1.5124  0.3765
24727SOL    HW285906   8.204   2.196   6.792 -0.4740  2.2119 -0.5301
24728SOL     OW85907   3.162   5.501   2.777  0.5404 -0.5488 -0.1356
24728SOL    HW185908   3.076   5.538   2.795  0.3012 -0.8153 -0.7380
24728SOL    HW285909   3.162   5.416   2.821  0.8610 -0.1231  0.7081
24729SOL     OW85910   1.033   0.842  11.769  0.5696 -0.0583  0.0368
24729SOL    HW185911   1.097   0.811  11.705  0.0848  0.1638 -0.5631
24729SOL    HW285912   0.992   0.918  11.728 -0.5424 -0.5871  0.1289
24730SOL     OW85913   6.512   7.220   6.423  0.2349 -0.4124  0.3394
24730SOL    HW185914   6.427   7.237   6.465  0.1289 -0.3441  0.0963
24730SOL    HW285915   6.525   7.125   6.435  0.1357 -0.4193  0.3972
24731SOL     OW85916   6.682   8.439  11.117  0.1852  0.3156 -0.5154
24731SOL    HW185917   6.673   8.447  11.212 -1.9021  2.3891 -0.7955
24731SOL    HW285918   6.728   8.356  11.105  1.3319  0.4013  2.3029
24732SOL     OW85919   9.333   4.620   3.720  0.2855 -0.4832  0.2585
24732SOL    HW185920   9.301   4.674   3.647  0.6249  0.2591  0.6505
24732SOL    HW285921   9.311   4.671   3.798  0.2667 -1.0996  0.6608
24733SOL     OW85922  10.744   9.644   6.555  0.4028  0.3160  0.5164
24733SOL    HW185923  10.725   9.604   6.640 -0.0993  0.9105  0.6865
24733SOL    HW285924  10.835   9.672   6.562  0.2230  0.7900  1.0327
24734SOL     OW85925   6.602   7.346   8.330  0.1570 -0.2161  0.2839
24734SOL    HW185926   6.515   7.306   8.332  0.5068 -0.9656  0.9207
24734SOL    HW285927   6.591   7.430   8.375 -0.6290  0.5424 -1.2543
24735SOL     OW85928   1.625   9.230   2.071  0.4685 -0.2358 -0.4383
24735SOL    HW185929   1.591   9.319   2.077  0.1449 -0.2375 -1.9528
24735SOL    HW285930   1.686   9.232   1.998  0.6959 -1.1851 -0.2848
24736SOL     OW85931   0.471   5.472   1.136  0.0574 -0.1204 -0.3775
24736SOL    HW185932   0.406   5.505   1.198  0.0204  1.5309 -1.2263
24736SOL    HW285933   0.550   5.523   1.154  0.2007  0.0130 -1.3243
24737SOL     OW85934   7.439   0.180   9.818  0.2314 -0.0306 -0.2986
24737SOL    HW185935   7.357   0.161   9.864  0.6018 -0.0160  0.3926
24737SOL    HW285936   7.478   0.094   9.802  0.1433 -0.0313 -0.5082
24738SOL     OW85937   3.866   1.535   6.859  0.3545 -0.2042 -0.2876
24738SOL    HW185938   3.932   1.533   6.789  0.2105 -0.2323 -0.4252
24738SOL    HW285939   3.783   1.529   6.812  0.1994  1.0216 -0.1995
24739SOL     OW85940   6.217   7.348   3.261 -0.1288 -0.1244  0.3497
24739SOL    HW185941   6.289   7.372   3.202 -0.1622  1.0818  0.7777
24739SOL    HW285942   6.260   7.314   3.339  0.0167  1.1734  0.8543
24740SOL     OW85943   7.575  11.599   2.949  0.6196  0.4404  0.7138
24740SOL    HW185944   7.630  11.654   2.893  1.1322  0.5589  1.3205
24740SOL    HW285945   7.582  11.512   2.910  0.7398  0.5747  0.4247
24741SOL     OW85946   6.519   0.926   4.347  0.2348 -0.2057 -0.1881
24741SOL    HW185947   6.527   0.841   4.302 -0.6198  0.1420 -1.0317
24741SOL    HW285948   6.610   0.953   4.361  0.5272 -0.7204 -0.9719
24742SOL     OW85949   8.808   8.137  11.251  0.1496  0.0120 -0.2799
24742SOL    HW185950   8.765   8.052  11.258  0.3439 -0.1708 -1.1745
24742SOL    HW285951   8.736   8.199  11.235  0.1013 -0.1304 -0.6251
24743SOL     OW85952   4.076   4.187   2.393  0.7383  0.3636  0.2416
24743SOL    HW185953   3.998   4.214   2.441  1.3385  2.0319  0.3440
24743SOL    HW285954   4.102   4.265   2.344  1.0759 -0.8176 -1.5360
24744SOL     OW85955   3.530   8.173   5.360 -0.0796  0.4269 -0.0328
24744SOL    HW185956   3.493   8.114   5.426 -0.3411  0.3813 -0.2170
24744SOL    HW285957   3.603   8.216   5.405  1.2509 -1.3163 -0.4006
24745SOL     OW85958   1.487   9.526   5.140  0.0735 -0.0618  0.4673
24745SOL    HW185959   1.421   9.534   5.208  0.3546  0.5360  0.6842
24745SOL    HW285960   1.567   9.504   5.187  0.5751  1.6704  0.5211
24746SOL     OW85961  10.520   0.411   9.242  0.0937 -0.1311 -0.3900
24746SOL    HW185962  10.465   0.484   9.271  0.1099 -0.8802  1.6527
24746SOL    HW285963  10.609   0.445   9.250  0.0908 -0.2798  0.3188
24747SOL     OW85964  10.552   6.728   6.473 -0.0992  0.3921  0.2367
24747SOL    HW185965  10.465   6.741   6.510 -0.5206 -0.0603 -0.5733
24747SOL    HW285966  10.608   6.788   6.522 -1.1968  2.0908 -0.5288
24748SOL     OW85967   8.719   1.769   0.314  0.3728  0.1119  0.7543
24748SOL    HW185968   8.702   1.695   0.372  0.1030  0.6369  1.3573
24748SOL    HW285969   8.639   1.822   0.317  0.8460  0.8388  0.9654
24749SOL     OW85970   5.984   8.064   7.693  0.4244 -0.4254 -0.4271
24749SOL    HW185971   5.963   8.156   7.677 -0.2737  0.1118  2.7731
24749SOL    HW285972   5.935   8.015   7.627 -1.0908  1.4138 -0.7235
24750SOL     OW85973   6.038   1.400  10.873  0.1587 -0.4207 -0.7310
24750SOL    HW185974   6.129   1.419  10.896  0.5812 -0.7263 -2.1060
24750SOL    HW285975   6.001   1.486  10.849 -1.0931  0.4536  3.4485
24751SOL     OW85976   2.733   3.018   3.904 -0.9043 -0.4194 -0.1149
24751SOL    HW185977   2.755   3.108   3.879 -0.0802 -0.7784 -0.7100
24751SOL    HW285978   2.657   2.996   3.851 -1.9743  0.3723  1.0050
24752SOL     OW85979   7.226   4.155   4.401 -0.4483  0.3357  0.0319
24752SOL    HW185980   7.194   4.209   4.474 -4.0202  1.0790 -1.8507
24752SOL    HW285981   7.225   4.066   4.435 -1.4458  0.7133  1.0707
24753SOL     OW85982   8.129  11.477   7.510  0.0293 -0.1540 -0.5283
24753SOL    HW185983   8.206  11.434   7.547 -1.0321 -0.8987  0.9221
24753SOL    HW285984   8.119  11.557   7.561 -0.5927 -0.4496 -0.1742
24754SOL     OW85985   5.055   0.691   3.459  0.2058 -0.2042  0.3700
24754SOL    HW185986   5.042   0.649   3.375  0.4109  0.5806 -0.0714
24754SOL    HW285987   4.972   0.682   3.505  0.0384 -0.4758  0.0118
24755SOL     OW85988   4.714   1.298  10.586  0.6760 -0.1614 -0.2344
24755SOL    HW185989   4.734   1.333  10.673  2.1431  0.0904 -0.6494
24755SOL    HW285990   4.670   1.369  10.540  0.2263 -0.1710  0.1739
24756SOL     OW85991   8.097  10.930   4.811  0.2639 -0.1242  0.5526
24756SOL    HW185992   8.166  10.869   4.839  0.4043 -0.0906  0.2855
24756SOL    HW285993   8.088  10.914   4.717 -0.6212 -0.6575  0.7204
24757SOL     OW85994   8.917   7.194   0.885 -0.5630  0.6623  0.3299
24757SOL    HW185995   8.836   7.225   0.846 -0.7260 -1.4001 -1.1874
24757SOL    HW285996   8.979   7.191   0.812  0.3136  0.4323  1.0647
24758SOL     OW85997   0.286   6.878   7.975  0.5014 -0.0776  0.5271
24758SOL    HW185998   0.332   6.902   8.056  2.3680 -1.1300 -0.1458
24758SOL    HW285999   0.219   6.816   8.003  0.5348  0.2583  1.3746
24759SOL     OW86000   9.048   1.485   2.487 -0.2164 -0.8315 -0.0149
24759SOL    HW186001   9.048   1.581   2.486 -0.5697 -0.8126 -1.6076
24759SOL    HW286002   9.092   1.462   2.569 -1.2447  0.6724  1.0115
24760SOL     OW86003   7.276   5.877   2.392 -0.1602 -0.7175 -0.3364
24760SOL    HW186004   7.212   5.807   2.405  0.0046 -0.9824 -0.9204
24760SOL    HW286005   7.260   5.938   2.463 -1.6083 -0.3579 -0.9500
24761SOL     OW86006   7.983  10.699   8.953  0.0451  0.6359  0.0202
24761SOL    HW186007   7.893  10.718   8.979 -0.3859 -1.4447  0.2729
24761SOL    HW286008   8.038  10.753   9.009 -0.9755 -0.7982  2.5693
24762SOL     OW86009   0.255   2.525   8.007  0.5438  0.2292  0.3359
24762SOL    HW186010   0.283   2.439   7.975 -0.9556  0.4222 -1.7521
24762SOL    HW286011   0.219   2.507   8.094 -1.3770 -1.6765 -0.7194
24763SOL     OW86012   5.650  10.515   2.671 -0.4776 -0.0736 -0.0596
24763SOL    HW186013   5.692  10.431   2.689  1.0996  0.3997 -1.2195
24763SOL    HW286014   5.599  10.534   2.749  0.5122 -1.3035  0.9242
24764SOL     OW86015   3.945   6.854  11.515 -0.3712  0.4350 -0.9614
24764SOL    HW186016   3.909   6.941  11.531  0.9851  2.2125 -5.7810
24764SOL    HW286017   3.889   6.817  11.447  2.0849  0.0020 -2.9239
24765SOL     OW86018  10.250   5.604   9.810 -0.0237  0.6826 -0.1742
24765SOL    HW186019  10.277   5.690   9.842  0.7175  0.5998 -0.5405
24765SOL    HW286020  10.317   5.544   9.843 -0.9599  0.1116  0.7472
24766SOL     OW86021  10.724  11.003   8.454 -0.4185 -0.5493 -0.4280
24766SOL    HW186022  10.699  11.025   8.364  1.1807  0.3303 -0.6996
24766SOL    HW286023  10.704  10.910   8.463 -1.0560 -0.5340 -1.5308
24767SOL     OW86024   5.348   8.433  10.147 -0.0064 -0.3859 -0.3303
24767SOL    HW186025   5.269   8.412  10.097 -1.6947  0.7017  1.7103
24767SOL    HW286026   5.348   8.371  10.219  0.6613  0.0187  0.0327
24768SOL     OW86027   2.806   2.610   8.228  0.5786 -0.0984  0.2315
24768SOL    HW186028   2.773   2.522   8.246  2.0968 -0.8194 -0.3333
24768SOL    HW286029   2.755   2.667   8.284 -1.9886 -1.0517 -0.9811
24769SOL     OW86030   7.908   2.743  10.557 -0.1176 -0.0982  0.1263
24769SOL    HW186031   7.927   2.815  10.497 -1.8524 -1.2032 -1.9257
24769SOL    HW286032   7.960   2.670  10.523  0.5410 -0.1901  1.3130
24770SOL     OW86033   3.601   6.711  11.948 -0.3816  0.6402  0.1234
24770SOL    HW186034   3.581   6.701  11.855 -1.0862  0.8270  0.2491
24770SOL    HW286035   3.520   6.743  11.986 -0.3121 -0.0910  0.9193
24771SOL     OW86036   5.035   1.150   3.517  0.1353 -0.1593  0.3090
24771SOL    HW186037   5.077   1.171   3.433  0.0476  2.4170  0.8348
24771SOL    HW286038   4.944   1.130   3.493  0.3595 -0.4838 -0.3050
24772SOL     OW86039   2.525   7.258   0.931 -0.2196 -0.3694  0.2291
24772SOL    HW186040   2.583   7.183   0.915 -1.3437 -1.0462 -0.8397
24772SOL    HW286041   2.574   7.334   0.899  0.0972 -0.9196 -0.6163
24773SOL     OW86042   0.271   2.222   7.488  0.1456  0.0339  0.1562
24773SOL    HW186043   0.353   2.188   7.524 -1.5248 -2.1201  2.2436
24773SOL    HW286044   0.226   2.144   7.453 -1.1122  1.1243 -0.7782
24774SOL     OW86045   1.584   5.264   4.186  0.3998  0.2393 -0.1185
24774SOL    HW186046   1.501   5.247   4.231 -0.1561  1.5350 -0.5921
24774SOL    HW286047   1.585   5.359   4.173  2.4781  0.3868  0.8300
24775SOL     OW86048   2.190   0.565   5.218  0.0753  0.0657 -0.3276
24775SOL    HW186049   2.107   0.519   5.229 -0.1127  0.3866 -0.4235
24775SOL    HW286050   2.168   0.658   5.223  0.4760  0.1498  0.0126
24776SOL     OW86051   1.836   3.180   0.507 -0.6116 -0.0397  0.0423
24776SOL    HW186052   1.785   3.197   0.586 -1.7412 -3.1313  0.1115
24776SOL    HW286053   1.789   3.225   0.437 -1.4422  0.0527  0.6531
24777SOL     OW86054   3.868   9.170   4.232  0.4250 -0.3334 -0.2983
24777SOL    HW186055   3.892   9.078   4.221  1.1827 -0.3374  1.2122
24777SOL    HW286056   3.949   9.213   4.259 -0.5770  0.1760  2.1292
24778SOL     OW86057   5.955   4.996   3.453  0.2865 -0.3956 -0.4608
24778SOL    HW186058   5.918   4.953   3.530 -3.5005 -0.3793 -2.0513
24778SOL    HW286059   5.959   4.928   3.386  0.9074  0.1650 -1.0133
24779SOL     OW86060   7.617   5.488   9.481  0.1850 -0.2466 -0.5964
24779SOL    HW186061   7.709   5.471   9.460  0.1050 -0.0255 -1.1473
24779SOL    HW286062   7.612   5.583   9.494 -0.3823  0.0816 -2.8098
24780SOL     OW86063   9.682   8.507   7.126  0.1103 -0.0467  0.1942
24780SOL    HW186064   9.700   8.421   7.090  2.3250  0.1626  0.6502
24780SOL    HW286065   9.721   8.569   7.064 -0.5994  0.5893  0.3580
24781SOL     OW86066   7.686   0.786   2.286 -0.4985 -0.7877 -0.4275
24781SOL    HW186067   7.594   0.809   2.275 -0.3307  0.3913  0.4918
24781SOL    HW286068   7.717   0.767   2.197 -1.1353  0.7690 -0.9987
24782SOL     OW86069   8.982   3.623   2.834  0.2318 -0.2120 -0.1493
24782SOL    HW186070   9.017   3.592   2.917  1.2009  0.0565 -0.4471
24782SOL    HW286071   8.906   3.676   2.858  0.6325  0.0360  0.5765
24783SOL     OW86072   4.180   3.520   3.453 -0.1932 -0.0095 -0.2255
24783SOL    HW186073   4.190   3.577   3.529 -0.3150 -1.6618  1.0721
24783SOL    HW286074   4.086   3.519   3.436 -0.1566  0.4329 -0.4664
24784SOL     OW86075   1.843   0.338   4.583  0.6181 -0.3479 -0.0701
24784SOL    HW186076   1.817   0.287   4.660 -0.2113  1.6208  1.0385
24784SOL    HW286077   1.762   0.349   4.533  0.8973 -0.5565 -0.5746
24785SOL     OW86078   9.125   2.710   9.269  0.4391  0.0787  0.6687
24785SOL    HW186079   9.168   2.700   9.354  2.6433  1.6520 -0.1734
24785SOL    HW286080   9.138   2.626   9.225  1.4613  0.0547  0.9840
24786SOL     OW86081   9.107   5.820   5.114 -0.0129  0.1902  0.6892
24786SOL    HW186082   9.012   5.813   5.114 -0.0497  0.5134  1.7009
24786SOL    HW286083   9.133   5.794   5.026 -1.1397  1.5419 -0.0832
24787SOL     OW86084   2.482   4.679  11.055 -0.2414 -0.0396  0.1377
24787SOL    HW186085   2.494   4.591  11.090  0.6555 -0.0642 -0.1989
24787SOL    HW286086   2.429   4.667  10.976 -0.5452 -0.2152  0.3684
24788SOL     OW86087   4.014   3.016   4.534 -0.3652 -0.3817 -0.0449
24788SOL    HW186088   4.030   3.006   4.628 -0.0999  1.4156  0.1353
24788SOL    HW286089   4.101   3.028   4.496 -0.4144 -1.7277 -0.6297
24789SOL     OW86090   7.613   5.927   8.471 -0.0169 -0.6858  0.4345
24789SOL    HW186091   7.532   5.876   8.477 -0.2077 -0.3009  1.2295
24789SOL    HW286092   7.678   5.873   8.517  0.0461 -0.7088  0.3214
24790SOL     OW86093   3.869   9.361   5.207 -0.1552  0.3718 -0.5504
24790SOL    HW186094   3.954   9.388   5.242 -0.3355  2.0449 -1.3319
24790SOL    HW286095   3.890   9.314   5.127  0.0786 -0.4997  0.0013
24791SOL     OW86096   3.929   2.387   4.457  0.0297  0.1333  0.2908
24791SOL    HW186097   4.009   2.432   4.430 -0.5949  0.1079 -1.7439
24791SOL    HW286098   3.874   2.457   4.494 -0.5704  0.9750 -2.0086
24792SOL     OW86099   4.078   2.742   9.872  0.1625 -0.5824 -0.8399
24792SOL    HW186100   4.167   2.777   9.870  0.3690 -1.1061 -0.9716
24792SOL    HW286101   4.088   2.652   9.903 -0.4563 -0.2529  0.4048
24793SOL     OW86102   7.044   0.195   7.259 -0.4140 -0.1829  0.1707
24793SOL    HW186103   7.071   0.234   7.342 -1.3427  1.6156 -0.3107
24793SOL    HW286104   7.002   0.113   7.283  0.6298 -0.4125  1.3354
24794SOL     OW86105   4.991   8.705   4.041  0.0253 -0.1941 -0.2421
24794SOL    HW186106   5.040   8.785   4.022 -0.6415  0.5798  1.1508
24794SOL    HW286107   4.928   8.730   4.109 -0.2227 -1.8990  0.2207
24795SOL     OW86108   9.223   4.298  11.260  0.0681 -0.2472  0.1192
24795SOL    HW186109   9.167   4.295  11.338  0.3670 -3.3976  0.3273
24795SOL    HW286110   9.273   4.379  11.270 -1.1283  0.2996  2.3023
24796SOL     OW86111   5.240   8.083   6.248  0.0535 -0.1598 -0.3056
24796SOL    HW186112   5.206   8.066   6.335  0.6275  0.2340 -0.0002
24796SOL    HW286113   5.205   8.168   6.224 -0.4675 -0.4649 -0.6486
24797SOL     OW86114   2.397   7.793   5.592 -0.2843  0.5613  0.4485
24797SOL    HW186115   2.319   7.847   5.602 -0.2394  0.3522  2.1976
24797SOL    HW286116   2.427   7.778   5.682  0.3269 -1.4534 -0.0549
24798SOL     OW86117   0.118   1.681   0.392  0.2741  0.2895  0.1801
24798SOL    HW186118   0.129   1.594   0.431  1.7013 -0.3813 -1.5937
24798SOL    HW286119   0.205   1.703   0.357 -0.5625  1.5006 -1.2579
24799SOL     OW86120  11.133   4.283   1.140 -0.1269  0.7963  0.4720
24799SOL    HW186121  11.107   4.317   1.226  0.8026  1.2554  0.5928
24799SOL    HW286122  11.201   4.218   1.160 -2.7634 -2.2230  0.3428
24800SOL     OW86123   2.776   3.072   7.063  0.1529  0.2929  0.6934
24800SOL    HW186124   2.742   3.011   7.128  3.0324 -1.4833  0.7227
24800SOL    HW286125   2.716   3.063   6.988 -1.0718 -0.4363  1.7241
24801SOL     OW86126   5.159   4.552   8.692  0.3971  0.1477 -0.6075
24801SOL    HW186127   5.191   4.612   8.760 -1.2518  0.4033 -0.0121
24801SOL    HW286128   5.193   4.466   8.717 -1.4119 -0.0475  1.4616
24802SOL     OW86129   0.231   8.718   9.208 -0.6040 -0.0426  0.0958
24802SOL    HW186130   0.305   8.701   9.266  1.1376 -1.6087 -2.3613
24802SOL    HW286131   0.171   8.771   9.260  1.9219  0.7387  2.4596
24803SOL     OW86132   4.941   0.136   5.359 -0.8479 -0.4686  0.0233
24803SOL    HW186133   4.974   0.218   5.321 -0.8810 -0.2405  0.4858
24803SOL    HW286134   4.952   0.147   5.453 -0.4679 -1.1598  0.0722
24804SOL     OW86135   2.245   6.616   7.058 -0.6313  0.0204 -0.4066
24804SOL    HW186136   2.200   6.633   7.140  0.1936 -0.0105  0.0593
24804SOL    HW286137   2.201   6.539   7.022 -2.4190  1.2926 -1.0726
24805SOL     OW86138   6.372   9.944   7.497 -0.0372  0.3149 -0.0811
24805SOL    HW186139   6.356  10.039   7.498 -0.2455  0.2873 -0.8004
24805SOL    HW286140   6.467   9.936   7.502 -0.0519  0.5398  0.7667
24806SOL     OW86141   7.590  10.526  11.169 -0.0194  0.0711 -0.1494
24806SOL    HW186142   7.570  10.480  11.088 -0.8414  0.0233  0.0720
24806SOL    HW286143   7.686  10.523  11.175 -0.0512 -1.6037 -0.1309
24807SOL     OW86144   7.482  11.530   0.352 -0.0472 -0.7745  0.9622
24807SOL    HW186145   7.537  11.482   0.290  0.7441 -0.4322  1.3908
24807SOL    HW286146   7.441  11.462   0.405  1.3016 -0.9963  1.7615
24808SOL     OW86147  11.373   0.856   0.606 -0.1636  0.6460  0.0276
24808SOL    HW186148  11.456   0.903   0.611  0.6405 -0.8409  1.7993
24808SOL    HW286149  11.395   0.765   0.627 -2.2471  0.2283  0.6419
24809SOL     OW86150   2.699   6.265   6.268 -0.4939  0.2742  0.0864
24809SOL    HW186151   2.722   6.261   6.361 -1.8962  1.1943  0.5056
24809SOL    HW286152   2.688   6.173   6.243  0.0896  0.0038  0.7719
24810SOL     OW86153   8.282   7.834   6.142 -0.1186  0.1897  0.0571
24810SOL    HW186154   8.325   7.857   6.059  2.1363 -1.4097  0.6873
24810SOL    HW286155   8.343   7.865   6.210 -1.1237 -0.0394  1.0971
24811SOL     OW86156   4.065   1.272  10.810 -0.2172 -0.1366  0.3598
24811SOL    HW186157   4.112   1.204  10.857 -0.4571  1.4950  3.2033
24811SOL    HW286158   4.102   1.354  10.842 -0.5902  1.1625 -2.2029
24812SOL     OW86159   0.855  10.133   7.325  0.0637 -0.1628  0.4070
24812SOL    HW186160   0.830  10.046   7.356 -0.8845 -0.7187 -1.7378
24812SOL    HW286161   0.948  10.140   7.347  0.0227 -1.4691  1.1198
24813SOL     OW86162   4.335  11.097   8.847  0.4412 -0.0535  0.2959
24813SOL    HW186163   4.396  11.170   8.846 -1.1949  1.4356  2.0475
24813SOL    HW286164   4.291  11.101   8.763  0.5902  0.7700  0.2526
24814SOL     OW86165   7.045   1.235   9.338 -0.0704 -0.0725  0.3944
24814SOL    HW186166   7.017   1.320   9.371 -2.0463 -0.8281  0.8072
24814SOL    HW286167   7.104   1.201   9.406  2.2802  1.6622 -0.6107
24815SOL     OW86168   4.358   8.566   8.772  0.0020  0.1953  0.2035
24815SOL    HW186169   4.321   8.478   8.780 -0.7530  0.4411 -0.4898
24815SOL    HW286170   4.355   8.585   8.679  0.1204  0.9820  0.3512
24816SOL     OW86171   9.793   2.350   0.335 -0.3622  0.1627 -0.1004
24816SOL    HW186172   9.866   2.322   0.390 -0.0031  0.2666 -0.5158
24816SOL    HW286173   9.715   2.331   0.387 -0.1426 -1.6453 -0.3523
24817SOL     OW86174  11.151   4.393  10.042 -0.1032 -0.6750 -0.2502
24817SOL    HW186175  11.085   4.441   9.991  0.2465 -0.8820 -0.9041
24817SOL    HW286176  11.214   4.362   9.977  0.2058 -1.1783  0.2823
24818SOL     OW86177   4.912   8.342   7.385 -0.3956  0.2224 -0.1398
24818SOL    HW186178   4.891   8.251   7.405  1.9906 -0.1987  0.7904
24818SOL    HW286179   4.907   8.387   7.470  1.1168  0.3429 -0.0917
24819SOL     OW86180   4.772   6.773   9.134 -0.5596 -0.6451 -0.1024
24819SOL    HW186181   4.782   6.828   9.212 -1.1585  1.4242 -1.4046
24819SOL    HW286182   4.854   6.785   9.086 -0.5312 -1.2348 -0.2061
24820SOL     OW86183   9.498   4.366   9.818 -0.3022 -0.4890  0.1163
24820SOL    HW186184   9.542   4.281   9.812 -0.5160 -0.4985 -1.9546
24820SOL    HW286185   9.505   4.390   9.910  1.1237 -2.0358  0.4614
24821SOL     OW86186   2.787   5.453   2.419 -0.0574  0.1765 -0.2840
24821SOL    HW186187   2.725   5.500   2.476  1.0348  2.2410 -0.6925
24821SOL    HW286188   2.858   5.515   2.406  0.4010 -0.7807 -2.7597
24822SOL     OW86189   9.727  10.767  11.074  0.5768 -0.0904 -0.3528
24822SOL    HW186190   9.685  10.774  10.988  0.2194  0.3971 -0.1436
24822SOL    HW286191   9.815  10.735  11.055  0.8702  1.0413 -1.0024
24823SOL     OW86192   2.261   8.937   6.954 -0.3134  0.5057 -0.3476
24823SOL    HW186193   2.312   8.985   7.019  1.0733  1.6745 -2.1727
24823SOL    HW286194   2.204   9.004   6.914  0.4940  0.3568 -1.8335
24824SOL     OW86195   2.932   3.886   0.763  0.3741  1.0616 -0.2292
24824SOL    HW186196   2.972   3.922   0.684  1.6275 -0.7912 -0.4927
24824SOL    HW286197   2.977   3.930   0.835  2.4589 -0.4686 -0.5364
24825SOL     OW86198   6.045   1.163   2.316 -0.3824 -0.4415  0.1688
24825SOL    HW186199   6.115   1.103   2.289 -2.4782 -2.6113 -0.7655
24825SOL    HW286200   6.009   1.123   2.396 -0.5860  0.6447  0.6309
24826SOL     OW86201   1.105   7.593   6.215 -0.0831 -0.3737 -0.1266
24826SOL    HW186202   1.044   7.604   6.288  0.4630 -0.0043  0.2719
24826SOL    HW286203   1.163   7.522   6.243  1.0256  0.7055  0.4250
24827SOL     OW86204   0.864  10.318   9.157 -0.3447  0.2787  0.1561
24827SOL    HW186205   0.869  10.397   9.211 -0.7106  1.6486 -1.7313
24827SOL    HW286206   0.801  10.339   9.089 -0.0486 -1.4603 -0.7156
24828SOL     OW86207   3.755   3.728   2.365 -0.3231 -0.3039  0.0479
24828SOL    HW186208   3.814   3.719   2.290  0.9723 -3.6190  1.2840
24828SOL    HW286209   3.759   3.821   2.387  2.4997  0.0530 -1.4665
24829SOL     OW86210  10.701   4.053   3.004  0.0420 -0.2145 -0.3137
24829SOL    HW186211  10.764   4.020   2.940 -2.0245 -0.1459 -2.5114
24829SOL    HW286212  10.634   3.985   3.010 -1.4242  1.1246 -0.6835
24830SOL     OW86213   8.799   2.736   8.450  0.1335  0.2001  0.8530
24830SOL    HW186214   8.707   2.747   8.425  0.3303 -1.0603 -0.6102
24830SOL    HW286215   8.844   2.719   8.367  1.6851  0.7318  1.5517
24831SOL     OW86216   6.105   7.035   6.167 -0.6684  0.0059 -0.1076
24831SOL    HW186217   6.100   7.119   6.121 -0.3231 -0.4106 -0.9245
24831SOL    HW286218   6.030   6.985   6.135 -0.4048 -0.3034 -0.2446
24832SOL     OW86219   2.618   3.818  10.221 -0.1913 -0.2358  0.3008
24832SOL    HW186220   2.581   3.830  10.134  0.2610 -3.3661 -0.4412
24832SOL    HW286221   2.665   3.900  10.238 -2.4781  1.5322 -1.1825
24833SOL     OW86222  10.165   3.825  10.595 -0.2349  0.2052 -0.3512
24833SOL    HW186223  10.223   3.751  10.609 -0.5674 -0.6003 -2.7592
24833SOL    HW286224  10.223   3.901  10.588  0.5039 -0.4797 -2.0374
24834SOL     OW86225   5.206  10.825   1.791 -0.2486  0.1632  0.3580
24834SOL    HW186226   5.171  10.737   1.796  0.1338 -0.0844 -0.8778
24834SOL    HW286227   5.258  10.836   1.870  0.2076 -0.9499  0.2180
24835SOL     OW86228   1.811   1.636   6.868 -0.4445  0.7547  0.0294
24835SOL    HW186229   1.754   1.581   6.921 -0.8335  0.0408 -1.1075
24835SOL    HW286230   1.898   1.625   6.907 -0.3119 -1.4716 -0.7294
24836SOL     OW86231   4.672  10.551   6.390 -0.4085  0.4032  0.4296
24836SOL    HW186232   4.712  10.464   6.382  0.4645  0.5935  2.1405
24836SOL    HW286233   4.636  10.569   6.303 -1.4864 -2.0680  0.2776
24837SOL     OW86234   4.269   5.735   2.139  0.0936 -0.1551 -0.2151
24837SOL    HW186235   4.292   5.658   2.087 -0.3530 -1.9184  2.0138
24837SOL    HW286236   4.174   5.744   2.127 -0.1144 -0.9391  0.6899
24838SOL     OW86237   3.929   6.663   1.319 -0.3265  0.2042 -0.2407
24838SOL    HW186238   3.875   6.607   1.264  0.5354 -1.3827  0.4800
24838SOL    HW286239   3.884   6.748   1.318 -0.5800  0.1132 -2.9673
24839SOL     OW86240   6.963   6.549   1.735 -0.4225  0.6981  0.0814
24839SOL    HW186241   6.897   6.613   1.707 -0.5377  1.0216  1.0425
24839SOL    HW286242   6.930   6.515   1.819  1.1348  1.6883  1.1556
24840SOL     OW86243   6.132   7.986   6.329  0.3208  0.0029 -0.4079
24840SOL    HW186244   6.166   8.072   6.354 -0.0351  0.6520 -2.0431
24840SOL    HW286245   6.189   7.923   6.375 -0.6365  1.0654  2.4148
24841SOL     OW86246   5.166   4.402   9.635  0.0593 -0.2464 -0.4043
24841SOL    HW186247   5.162   4.399   9.731  0.2835  2.2847 -0.2650
24841SOL    HW286248   5.193   4.491   9.614  1.7956 -1.2270 -2.8213
24842SOL     OW86249   1.076  10.466   9.347 -0.0974 -0.3022  0.4110
24842SOL    HW186250   1.086  10.553   9.386 -1.0662 -0.0848  0.2141
24842SOL    HW286251   1.129  10.409   9.403 -1.5949 -0.0447  2.2246
24843SOL     OW86252   4.537   7.941   2.637 -0.1672 -0.0206 -0.3522
24843SOL    HW186253   4.534   7.878   2.709  2.5549  0.6881  0.4744
24843SOL    HW286254   4.593   8.012   2.668 -3.5160  3.2679 -0.9934
24844SOL     OW86255  11.001   9.364   6.464 -0.5353 -0.2331  0.2311
24844SOL    HW186256  11.015   9.373   6.558  1.9476  0.0375 -0.0951
24844SOL    HW286257  11.051   9.285   6.440 -1.2340 -0.3703 -0.8510
24845SOL     OW86258   4.573   8.034   8.846  0.3237  0.9942  0.9704
24845SOL    HW186259   4.614   8.118   8.824  0.0014  1.1309  0.8985
24845SOL    HW286260   4.556   8.040   8.940 -0.1890  1.2173  0.8624
24846SOL     OW86261   0.154   9.882   7.030 -0.4605 -0.1340 -0.7621
24846SOL    HW186262   0.075   9.839   6.995 -1.0568 -0.1302  0.5347
24846SOL    HW286263   0.198   9.917   6.952 -1.8335  0.0217 -1.5027
24847SOL     OW86264   8.122   4.873  11.223 -0.9450  0.0192 -0.2298
24847SOL    HW186265   8.211   4.880  11.190 -1.3739  0.1607 -1.4015
24847SOL    HW286266   8.069   4.923  11.161 -2.0345 -1.3156 -0.4243
24848SOL     OW86267   5.670   7.241   7.730 -0.0706 -0.2837 -0.1411
24848SOL    HW186268   5.691   7.334   7.716 -0.7422  0.0943  1.2243
24848SOL    HW286269   5.619   7.240   7.810 -3.1528 -1.4332 -1.9712
24849SOL     OW86270   5.932   0.594   8.096  0.4157  0.4603  0.1921
24849SOL    HW186271   6.001   0.661   8.097 -1.0171  2.0163 -1.0031
24849SOL    HW286272   5.850   0.643   8.099 -0.6851 -1.3112  0.4809
24850SOL     OW86273   6.957  10.104   1.894 -0.9475  0.0246 -0.0318
24850SOL    HW186274   6.863  10.090   1.882 -0.4250 -2.2409 -2.0997
24850SOL    HW286275   6.962  10.180   1.952 -4.0556 -0.6187  1.3158
24851SOL     OW86276   8.384   9.581   1.693  0.1187 -0.5506  0.4467
24851SOL    HW186277   8.303   9.546   1.655  0.8735 -0.3722 -1.4055
24851SOL    HW286278   8.361   9.669   1.721 -0.2586 -0.3750 -0.3805
24852SOL     OW86279  10.972   4.914  11.889  0.4585 -0.2803  0.1049
24852SOL    HW186280  11.034   4.846  11.862  0.6380  0.0319 -0.2806
24852SOL    HW286281  10.913   4.870  11.950 -0.1098 -1.0785 -0.9921
24853SOL     OW86282   7.294   6.829   3.544  0.2834  0.4306 -0.4752
24853SOL    HW186283   7.248   6.912   3.551  0.9055  0.7837 -0.4633
24853SOL    HW286284   7.242   6.768   3.597 -0.3577  0.7236 -0.7555
24854SOL     OW86285   8.329   7.314   0.851  0.5044 -0.0493 -0.2802
24854SOL    HW186286   8.261   7.304   0.917 -0.4712  2.3879 -0.8021
24854SOL    HW286287   8.408   7.336   0.901 -0.2204  1.7741  0.1544
24855SOL     OW86288   4.784   5.660  11.469 -0.2738 -0.4830 -0.1886
24855SOL    HW186289   4.839   5.582  11.463  0.3244 -0.0428 -0.5836
24855SOL    HW286290   4.810   5.701  11.552 -0.1656 -0.3916 -0.2681
24856SOL     OW86291   5.262  11.268  11.362 -0.6465  0.0629 -0.0438
24856SOL    HW186292   5.330  11.314  11.411 -0.5053 -0.5065  0.3065
24856SOL    HW286293   5.245  11.324  11.286 -0.7897  0.9118  0.5882
24857SOL     OW86294   6.358   4.954   7.266  0.0208 -1.2423  0.5505
24857SOL    HW186295   6.294   4.917   7.326  0.0073 -0.3508  1.0949
24857SOL    HW286296   6.394   4.878   7.220  0.4248 -2.0028  2.0556
24858SOL     OW86297   4.567   7.358   0.646 -0.0858  0.1381  0.0253
24858SOL    HW186298   4.473   7.352   0.628 -0.4046  1.2554  1.1966
24858SOL    HW286299   4.577   7.441   0.693  1.5999  0.4094 -0.7562
24859SOL     OW86300   4.998  10.425   7.831  0.0321  0.1831  0.0306
24859SOL    HW186301   5.093  10.428   7.820  0.1601 -0.0715  0.9776
24859SOL    HW286302   4.965  10.391   7.748  0.6981  1.0828 -0.6133
24860SOL     OW86303   9.930   8.357   7.349 -0.6904 -0.0472  0.7534
24860SOL    HW186304   9.943   8.326   7.438 -0.5829 -1.3146  0.3235
24860SOL    HW286305  10.017   8.384   7.320 -0.9207  1.5088  1.4075
24861SOL     OW86306   8.965   0.947  11.657 -0.2861 -0.1678  0.4209
24861SOL    HW186307   8.912   0.914  11.585  0.2262  0.8926 -0.4860
24861SOL    HW286308   8.933   0.901  11.734  0.3834 -2.7207 -0.7286
24862SOL     OW86309   2.904   3.952  10.217 -0.2927  0.2810 -0.0311
24862SOL    HW186310   2.920   3.895  10.142  0.7490 -0.1128  0.4639
24862SOL    HW286311   2.991   3.965  10.256 -0.7091  1.1002  0.6593
24863SOL     OW86312   9.891   5.703   7.670 -0.8729 -0.0416 -0.3542
24863SOL    HW186313   9.905   5.723   7.763 -1.1804 -0.2679 -0.2543
24863SOL    HW286314   9.978   5.688   7.635 -0.8120 -0.9247  0.1273
24864SOL     OW86315   4.613   3.422   4.422 -0.3364 -0.7721 -0.5675
24864SOL    HW186316   4.528   3.390   4.393 -1.2604 -0.0009  1.1437
24864SOL    HW286317   4.618   3.396   4.514  1.3085 -0.8407 -0.6558
24865SOL     OW86318   7.052   7.742   8.632 -0.3321 -0.4078 -0.0037
24865SOL    HW186319   7.012   7.695   8.559 -0.7006  0.0185 -0.0761
24865SOL    HW286320   7.146   7.742   8.612 -0.6122  1.8548 -1.7780
24866SOL     OW86321   0.522   3.789   3.896 -0.4071 -0.5933  0.0028
24866SOL    HW186322   0.576   3.710   3.885  2.6139  1.1424  1.0995
24866SOL    HW286323   0.514   3.825   3.808  3.5253  0.9637  0.0615
24867SOL     OW86324   3.258   9.381   1.950 -0.2671  0.1850  0.4024
24867SOL    HW186325   3.317   9.437   1.900  0.5438 -0.2971  0.8005
24867SOL    HW286326   3.312   9.307   1.977 -0.9873 -0.1354  1.0056
24868SOL     OW86327   9.110   6.151   0.843  0.0623  0.0191  0.1238
24868SOL    HW186328   9.153   6.121   0.923  0.6976 -0.1594 -0.2787
24868SOL    HW286329   9.120   6.079   0.781 -2.8117 -1.0124  0.6703
24869SOL     OW86330   6.313   1.333   3.216 -0.5566 -0.2768 -0.2593
24869SOL    HW186331   6.224   1.366   3.220 -0.4077  0.3021 -1.2546
24869SOL    HW286332   6.356   1.370   3.294 -1.1147 -0.3748  0.0997
24870SOL     OW86333   4.989   0.816   1.239  0.6428  0.2930 -0.0432
24870SOL    HW186334   4.933   0.893   1.227 -0.2402 -0.0297  1.6360
24870SOL    HW286335   5.072   0.851   1.271  0.8755  0.6633 -1.0317
24871SOL     OW86336   0.514   6.174   3.612  0.3355  0.0108  0.5328
24871SOL    HW186337   0.587   6.116   3.635 -0.8340 -1.3544  0.9908
24871SOL    HW286338   0.463   6.181   3.693  0.4883  1.8050  0.5153
24872SOL     OW86339   4.245   5.199   4.323  0.4755 -0.4261 -0.0475
24872SOL    HW186340   4.273   5.187   4.232  0.2642 -0.2966 -0.1301
24872SOL    HW286341   4.184   5.127   4.338 -0.7693  0.4832 -0.5341
24873SOL     OW86342   6.997  11.935  10.023  0.1299 -0.2665  0.6408
24873SOL    HW186343   6.963  11.913   9.936 -0.2413 -0.1743  0.7605
24873SOL    HW286344   7.061  12.004  10.006 -2.9346  2.8953  0.7591
24874SOL     OW86345   5.339   5.778   3.196  0.2050  0.2279  0.3570
24874SOL    HW186346   5.353   5.734   3.280  0.7955  0.2828  0.2938
24874SOL    HW286347   5.370   5.867   3.209 -0.8292  0.5796  0.4302
24875SOL     OW86348   2.411   5.646   0.048  0.0643  0.6630  0.2469
24875SOL    HW186349   2.345   5.591   0.007  0.0753  1.1878 -0.5012
24875SOL    HW286350   2.402   5.731   0.004  2.5441  0.2186 -1.3271
24876SOL     OW86351   1.923   9.383   6.507  0.0687  0.1308  0.3681
24876SOL    HW186352   1.838   9.338   6.507 -0.3540  0.8922 -0.6895
24876SOL    HW286353   1.932   9.416   6.597 -1.3175  1.0385  0.2048
24877SOL     OW86354   6.678   3.001  10.232 -0.3585 -0.1917  0.1287
24877SOL    HW186355   6.763   3.042  10.218 -0.2079 -0.3688  0.5252
24877SOL    HW286356   6.695   2.907  10.219 -0.1526 -0.4039  1.7267
24878SOL     OW86357   5.870   0.100   2.258 -0.4751 -0.0383 -0.1278
24878SOL    HW186358   5.855   0.072   2.348 -0.2043  0.1505 -0.0237
24878SOL    HW286359   5.815   0.042   2.205  0.4107 -1.0476  0.0432
24879SOL     OW86360   4.961   6.531   4.051  0.0270 -0.4397 -0.1112
24879SOL    HW186361   4.875   6.540   4.092 -0.9850  2.2797 -2.4911
24879SOL    HW286362   4.942   6.505   3.961  1.7350 -0.2220 -0.5693
24880SOL     OW86363   3.716   3.692   9.792  0.1547  0.0516 -0.5212
24880SOL    HW186364   3.629   3.657   9.812 -0.9524  1.8666 -1.8142
24880SOL    HW286365   3.748   3.726   9.875 -0.8161  0.2379 -0.2136
24881SOL     OW86366   1.610   9.154   7.948 -0.7458  0.5709  0.0345
24881SOL    HW186367   1.704   9.172   7.939 -0.5739 -0.4093 -0.2834
24881SOL    HW286368   1.579   9.145   7.858 -0.7366 -1.0002  0.1582
24882SOL     OW86369   9.353   3.871   3.350  0.6662  0.1542  0.1673
24882SOL    HW186370   9.356   3.920   3.433 -0.7546  0.1599  0.2380
24882SOL    HW286371   9.402   3.926   3.289  0.9629  0.5961  0.7853
24883SOL     OW86372   5.129   7.591   9.606  0.1332  0.2305  0.2398
24883SOL    HW186373   5.173   7.592   9.691  1.2919 -2.4826 -0.2038
24883SOL    HW286374   5.192   7.632   9.546 -1.0108  2.8859  0.7206
24884SOL     OW86375   2.584   2.807   3.802 -0.2039  0.4293 -0.2911
24884SOL    HW186376   2.533   2.764   3.871 -1.7877  1.9866 -0.4289
24884SOL    HW286377   2.520   2.829   3.735  0.9836  0.7735 -1.3629
24885SOL     OW86378  11.691   7.074  10.414  0.2147  0.2271 -0.4363
24885SOL    HW186379  11.693   7.098  10.506  0.2511 -1.0566 -0.0802
24885SOL    HW286380  11.687   7.157  10.367 -2.9307  0.8909  0.7891
24886SOL     OW86381   2.426   7.989   8.990  0.1351 -0.3119 -0.5794
24886SOL    HW186382   2.477   8.068   9.011  0.2013 -0.3001 -0.7887
24886SOL    HW286383   2.376   8.012   8.912 -0.6841 -0.1066 -0.0149
24887SOL     OW86384  10.182   9.594  11.750 -0.5181  0.1137  0.3173
24887SOL    HW186385  10.109   9.643  11.713  0.2400  1.3267  0.3875
24887SOL    HW286386  10.196   9.522  11.688 -0.3657  1.1361 -0.8644
24888SOL     OW86387   8.348   2.633  11.644 -0.0002 -0.3205 -0.7383
24888SOL    HW186388   8.266   2.666  11.681  0.0443  0.6654 -1.4746
24888SOL    HW286389   8.342   2.653  11.551  0.9674 -0.4735 -0.8449
24889SOL     OW86390   5.135   1.284  11.520 -0.0194 -0.4164 -0.4294
24889SOL    HW186391   5.164   1.357  11.575  0.3163 -1.0730  0.2936
24889SOL    HW286392   5.136   1.208  11.579  1.3882 -1.3607 -1.5992
24890SOL     OW86393   0.441   3.108  11.687  0.1872  0.0216 -0.3651
24890SOL    HW186394   0.401   3.064  11.611  0.1845 -1.5383  0.4877
24890SOL    HW286395   0.534   3.090  11.679  0.1264 -0.6330  0.2771
24891SOL     OW86396  10.983   6.911   7.155  0.1640 -0.3107 -0.2549
24891SOL    HW186397  10.892   6.897   7.130 -0.1998  1.1810  0.1076
24891SOL    HW286398  10.978   6.947   7.244  1.0486  0.5258 -0.5243
24892SOL     OW86399  11.062   4.513   5.672 -0.1613 -0.5252  0.0441
24892SOL    HW186400  11.002   4.468   5.613 -0.3444 -1.4040  0.8789
24892SOL    HW286401  11.139   4.534   5.617 -1.1351  0.4842 -0.9927
24893SOL     OW86402   0.308  11.057   8.711 -0.2225  0.1731 -0.4351
24893SOL    HW186403   0.268  11.080   8.795 -0.5165  1.0723 -0.8077
24893SOL    HW286404   0.256  11.106   8.646  1.3193  1.1606 -0.9642
24894SOL     OW86405   1.239   4.140  10.234 -0.1256 -0.1065  0.0567
24894SOL    HW186406   1.277   4.224  10.208 -0.8202  0.2659  0.2426
24894SOL    HW286407   1.159   4.133  10.182 -0.4624 -0.3076  0.6000
24895SOL     OW86408   6.951   2.786   0.630  0.6092  0.7153  0.1729
24895SOL    HW186409   6.880   2.722   0.625 -1.0946  2.5822 -1.2821
24895SOL    HW286410   6.960   2.804   0.724 -0.4810  0.0663  0.4195
24896SOL     OW86411   5.339   1.672  11.075 -0.4536 -0.2297 -0.1246
24896SOL    HW186412   5.394   1.670  10.997 -2.4545  1.4344 -1.6849
24896SOL    HW286413   5.318   1.580  11.092 -0.0290 -0.6200 -1.5919
24897SOL     OW86414  11.804   0.495   9.131  0.5453 -0.2422 -0.1833
24897SOL    HW186415  11.803   0.591   9.137 -0.9823 -0.2730  0.5066
24897SOL    HW286416  11.867   0.468   9.197 -1.0247  0.2306  1.5968
24898SOL     OW86417   5.973   1.471   6.575 -0.5707  0.2864 -0.1343
24898SOL    HW186418   6.022   1.447   6.653 -0.6047  1.1585  0.1635
24898SOL    HW286419   6.022   1.544   6.537 -0.4605 -0.2394 -1.0292
24899SOL     OW86420  10.078   2.687   9.463  0.8206  0.1818 -0.0714
24899SOL    HW186421  10.078   2.662   9.370  2.4869  1.3460 -0.4215
24899SOL    HW286422   9.994   2.655   9.496  0.8178 -1.5940 -1.6099
24900SOL     OW86423   7.286   9.728   4.377 -0.1938 -0.3121 -0.2210
24900SOL    HW186424   7.214   9.666   4.388 -0.5151  0.1672  0.4771
24900SOL    HW286425   7.365   9.674   4.385 -0.4362 -0.4435  2.0988
24901SOL     OW86426   0.941   5.632   7.201 -0.3431 -0.6686  0.7507
24901SOL    HW186427   0.966   5.631   7.108 -1.4832 -0.9260  0.4309
24901SOL    HW286428   0.981   5.554   7.238  0.3898 -0.3942  0.5598
24902SOL     OW86429   7.605   9.555   6.549  0.2532  0.1463  0.1457
24902SOL    HW186430   7.587   9.558   6.643  1.0612  0.4695  0.2947
24902SOL    HW286431   7.674   9.489   6.539  0.9092  0.8606 -0.0933
24903SOL     OW86432   1.755   6.330   3.676  0.0205  0.2444 -0.5672
24903SOL    HW186433   1.747   6.386   3.753  0.2939  0.2461 -0.5376
24903SOL    HW286434   1.704   6.374   3.609  0.7848  0.8964 -0.7452
24904SOL     OW86435   5.294   9.504   9.390 -0.2376 -0.3022  0.0184
24904SOL    HW186436   5.277   9.514   9.484 -1.1025 -0.5004 -0.1031
24904SOL    HW286437   5.389   9.505   9.382 -0.1645  0.6959  0.7926
24905SOL     OW86438   5.915   6.244   0.217  0.5405 -0.4250  0.1543
24905SOL    HW186439   5.936   6.338   0.212  2.5136 -0.8705 -1.7042
24905SOL    HW286440   5.823   6.239   0.194  0.4038  1.0549  0.2726
24906SOL     OW86441   2.490   4.764   5.501 -0.5986  0.3502 -0.9453
24906SOL    HW186442   2.571   4.731   5.540 -1.9019 -1.0899  0.7247
24906SOL    HW286443   2.509   4.854   5.478  1.4207  0.0987 -0.4057
24907SOL     OW86444   2.182   2.882   9.422  0.2348  0.0055 -0.1498
24907SOL    HW186445   2.141   2.817   9.365  0.0329 -0.0845  0.0948
24907SOL    HW286446   2.208   2.833   9.500 -0.3286  0.2981  0.2315
24908SOL     OW86447  11.499   5.230   9.211  0.4652  0.3339 -0.2173
24908SOL    HW186448  11.409   5.203   9.196  0.6914 -2.0418  1.9630
24908SOL    HW286449  11.493   5.296   9.279  0.4010 -1.1448  1.2736
24909SOL     OW86450   4.621  10.827  10.007  0.3682  0.3180 -0.1344
24909SOL    HW186451   4.667  10.754   9.964  1.0364  0.9190 -0.4790
24909SOL    HW286452   4.528  10.808   9.993  0.3867 -1.7491  1.9156
24910SOL     OW86453   5.746   9.547   1.832  0.1874  0.2193 -0.1725
24910SOL    HW186454   5.720   9.499   1.910 -0.6186 -0.9608 -1.1143
24910SOL    HW286455   5.742   9.482   1.762 -1.2817  1.6989 -1.5717
24911SOL     OW86456   9.031   3.196   4.122  0.4777 -0.1058  0.1616
24911SOL    HW186457   9.083   3.122   4.153  0.7831  0.1739  0.3325
24911SOL    HW286458   9.001   3.239   4.203  0.4663  0.0679  0.0657
24912SOL     OW86459   9.069   6.687  11.581 -0.0816 -0.1465  0.1886
24912SOL    HW186460   9.094   6.619  11.644  0.8407  1.6840  1.9236
24912SOL    HW286461   9.084   6.770  11.627 -0.0464  1.2973 -2.2086
24913SOL     OW86462   2.187   9.678   6.796  0.4586 -0.5186 -0.1317
24913SOL    HW186463   2.142   9.693   6.880  1.5832 -1.2334  0.6232
24913SOL    HW286464   2.242   9.755   6.785  0.7310 -0.6863  0.0644
24914SOL     OW86465   8.901   7.672   3.125  0.0965 -0.1794 -0.4362
24914SOL    HW186466   8.885   7.710   3.211 -1.0545  0.3475 -0.8595
24914SOL    HW286467   8.814   7.653   3.090  0.5035  0.2490 -1.7527
24915SOL     OW86468   2.901   2.924  11.862 -0.0596 -0.4212 -0.5500
24915SOL    HW186469   2.893   2.970  11.779 -1.7839  0.1204 -0.1382
24915SOL    HW286470   2.928   2.992  11.924 -2.0366  0.0073 -0.0600
24916SOL     OW86471   1.662   4.719   8.827  1.1417  0.4419  0.0242
24916SOL    HW186472   1.711   4.740   8.906  0.4364  0.2680  0.5165
24916SOL    HW286473   1.578   4.763   8.838  1.4205  1.2986 -1.1252
24917SOL     OW86474   3.855   2.080   8.689 -0.4993 -0.7705 -0.5554
24917SOL    HW186475   3.799   2.106   8.762  0.9285  0.4359  0.1693
24917SOL    HW286476   3.941   2.117   8.710  0.1371 -1.0060 -2.5051
24918SOL     OW86477   8.202   1.817   0.792 -0.5387 -0.1272  0.0622
24918SOL    HW186478   8.184   1.910   0.797 -1.8189 -0.3705  0.3735
24918SOL    HW286479   8.133   1.776   0.844  0.3996 -1.2129  0.5041
24919SOL     OW86480   2.225   6.563   5.006  0.3270  0.1422 -0.0678
24919SOL    HW186481   2.172   6.485   4.989 -0.1304  0.0164  1.7569
24919SOL    HW286482   2.171   6.635   4.974  1.1723 -0.3074 -2.6885
24920SOL     OW86483   6.122   9.897   6.095 -0.0985  0.2456  0.4943
24920SOL    HW186484   6.158   9.970   6.044 -0.3649  0.3862  0.5021
24920SOL    HW286485   6.067   9.850   6.032 -1.4779  1.1753  0.9652
24921SOL     OW86486  10.424   7.062   9.735  0.0747 -0.3490 -0.5366
24921SOL    HW186487  10.410   7.104   9.820 -1.9909 -0.1906 -0.9055
24921SOL    HW286488  10.476   6.985   9.755  2.1339  1.2141  0.4408
24922SOL     OW86489   8.711   6.174   3.782 -0.6067  0.3079 -0.0704
24922SOL    HW186490   8.717   6.173   3.878 -0.7063 -0.5183 -0.0659
24922SOL    HW286491   8.709   6.267   3.759  1.3070  0.5745  0.6100
24923SOL     OW86492   4.510   9.258   9.694  0.5870  0.2668 -0.1096
24923SOL    HW186493   4.450   9.210   9.637  0.0213  1.0212 -0.1528
24923SOL    HW286494   4.582   9.284   9.636 -0.4507  1.8795 -0.7419
24924SOL     OW86495   5.478   2.149   5.664 -0.0430 -0.0366  0.2772
24924SOL    HW186496   5.462   2.134   5.757  0.4617 -0.2896  0.3238
24924SOL    HW286497   5.391   2.166   5.627 -0.2184  0.2590  0.8263
24925SOL     OW86498   3.332   4.870   8.246 -0.4769 -0.0013 -0.1603
24925SOL    HW186499   3.362   4.960   8.259  1.2928 -0.6430  0.5766
24925SOL    HW286500   3.359   4.824   8.325 -0.8459 -1.3058 -0.7638
24926SOL     OW86501   2.999   4.053   6.863 -0.3197 -0.0441  0.3470
24926SOL    HW186502   3.063   3.987   6.837 -0.3897  0.4580 -1.1709
24926SOL    HW286503   3.028   4.133   6.819 -0.5010  0.8399  1.7705
24927SOL     OW86504   2.337   4.473   3.000  0.6497 -0.9398  0.4449
24927SOL    HW186505   2.426   4.438   3.002  0.1940 -2.6117 -2.3185
24927SOL    HW286506   2.336   4.531   2.923 -0.6523 -1.0301  0.3744
24928SOL     OW86507   2.466  11.830   2.719 -0.0169  0.5503 -0.3986
24928SOL    HW186508   2.497  11.919   2.737  4.0708 -0.9721  1.3131
24928SOL    HW286509   2.510  11.806   2.638  0.7485 -0.6186  0.3417
24929SOL     OW86510   4.920   1.866   2.272  0.6176  0.1642 -0.8482
24929SOL    HW186511   4.839   1.828   2.308  0.4752  0.7213 -0.5569
24929SOL    HW286512   4.922   1.836   2.182  0.1758 -0.0113 -0.8067
24930SOL     OW86513   1.494   2.398   0.809  0.1296 -0.1725  0.6393
24930SOL    HW186514   1.586   2.399   0.781 -0.1865  0.7896 -0.4206
24930SOL    HW286515   1.478   2.487   0.840 -1.3519  0.7000 -2.3374
24931SOL     OW86516  10.095   5.480   5.029 -0.0837 -0.1007 -0.3239
24931SOL    HW186517  10.162   5.430   4.983 -0.3868 -1.5032  0.7137
24931SOL    HW286518  10.125   5.571   5.023  0.9299 -0.4874 -1.4848
24932SOL     OW86519   0.769   2.387   2.071  0.0235 -0.2097 -0.3729
24932SOL    HW186520   0.690   2.377   2.017  0.5494  2.3353 -1.7307
24932SOL    HW286521   0.751   2.333   2.148 -3.0110  0.1681 -0.6764
24933SOL     OW86522   6.200  11.115   2.641  0.8548  0.0362  0.3894
24933SOL    HW186523   6.274  11.165   2.608  1.0732 -1.2212 -1.1682
24933SOL    HW286524   6.127  11.137   2.583  0.2385  0.5751  1.3497
24934SOL     OW86525  10.041   7.036   9.661 -0.0648  0.4771 -0.1004
24934SOL    HW186526  10.047   7.006   9.752  1.3602  1.6262  0.2300
24934SOL    HW286527  10.057   6.957   9.608 -0.5051 -0.1227  0.6449
24935SOL     OW86528  11.899   7.798   5.601 -0.4447  0.1020 -0.0316
24935SOL    HW186529  11.889   7.747   5.521 -0.5334 -0.3887  0.2915
24935SOL    HW286530  11.982   7.768   5.638 -0.7701 -0.2046  0.4446
24936SOL     OW86531   1.336   9.877   3.646 -0.6925  0.5036  0.4357
24936SOL    HW186532   1.342   9.884   3.551 -1.3673  1.9495  0.4604
24936SOL    HW286533   1.335   9.968   3.676  0.4232  0.0721  1.9043
24937SOL     OW86534   8.841   0.092  11.858 -0.1588  0.2811 -0.0893
24937SOL    HW186535   8.903   0.125  11.924  0.2082  0.8890 -0.7344
24937SOL    HW286536   8.896   0.046  11.794 -0.3646  0.8589 -0.6874
24938SOL     OW86537   9.859   4.781   3.242  0.8165 -0.3912  0.0524
24938SOL    HW186538   9.924   4.718   3.273  1.7777  1.3189  1.6372
24938SOL    HW286539   9.909   4.840   3.185  0.8746  1.3556  1.8409
24939SOL     OW86540  11.091   0.942   0.245  0.0486  0.2290  0.5540
24939SOL    HW186541  11.164   0.892   0.208 -1.7890 -2.1865 -0.1461
24939SOL    HW286542  11.088   1.022   0.193  0.3483 -1.0304 -1.5360
24940SOL     OW86543   1.003   1.649   7.139 -0.8515  0.0175  0.8399
24940SOL    HW186544   1.058   1.605   7.074  0.9270 -0.5413  2.5963
24940SOL    HW286545   0.936   1.695   7.088 -0.2885 -1.3812 -1.2766
24941SOL     OW86546   7.719   6.832  10.532 -0.3845 -0.0719  0.1827
24941SOL    HW186547   7.627   6.807  10.540 -0.6280  0.3800 -0.9973
24941SOL    HW286548   7.721   6.925  10.557  0.0953 -0.5456  2.0744
24942SOL     OW86549  10.401   3.587   5.963 -0.2762 -0.3129  0.0726
24942SOL    HW186550  10.489   3.554   5.948  0.5885  2.3678 -1.4016
24942SOL    HW286551  10.346   3.508   5.962  2.1258 -2.1990  2.1780
24943SOL     OW86552   2.754   1.241   8.385 -0.4092 -0.1276  0.1696
24943SOL    HW186553   2.707   1.219   8.304  0.1260 -0.9789  0.0793
24943SOL    HW286554   2.835   1.191   8.380  0.5893  1.4286  0.2654
24944SOL     OW86555  11.550   1.332  11.285 -0.5368 -0.0001 -0.1034
24944SOL    HW186556  11.562   1.247  11.241 -1.2227  0.5907 -1.5000
24944SOL    HW286557  11.511   1.310  11.369  0.8303 -1.1818  0.2714
24945SOL     OW86558   9.786   1.701   9.712  0.2479  0.7285  0.2121
24945SOL    HW186559   9.764   1.759   9.639  1.3557 -1.2828 -1.8449
24945SOL    HW286560   9.741   1.619   9.691 -0.0227  0.3108  2.2258
24946SOL     OW86561   9.482   1.365  11.581 -0.5487  0.3438  0.0581
24946SOL    HW186562   9.467   1.459  11.577 -0.3051  0.3426 -2.2927
24946SOL    HW286563   9.577   1.356  11.582 -0.5707  0.1117  0.7734
24947SOL     OW86564   4.162   0.096   7.485 -0.5507 -0.0277  0.4629
24947SOL    HW186565   4.196   0.008   7.472  1.1576  0.8422 -1.4553
24947SOL    HW286566   4.097   0.108   7.416  0.7006  0.8673 -0.6126
24948SOL     OW86567   1.596   4.548  11.939 -0.1942  0.1740  0.3894
24948SOL    HW186568   1.652   4.493  11.994  0.1734 -0.8523 -0.9450
24948SOL    HW286569   1.639   4.633  11.939  0.5672 -0.2001  0.5702
24949SOL     OW86570  11.311   3.331   0.905  0.0180  0.0682 -0.0536
24949SOL    HW186571  11.287   3.286   0.824  2.9936  0.7991 -1.4623
24949SOL    HW286572  11.293   3.268   0.974  0.1701 -1.6952 -1.5550
24950SOL     OW86573  10.974   9.278  11.080  0.1314  0.3233  0.3286
24950SOL    HW186574  11.043   9.341  11.102  1.1249 -0.8319  0.5637
24950SOL    HW286575  10.963   9.287  10.986  3.7654 -2.5001 -0.5863
24951SOL     OW86576   1.155   3.901   8.561  0.7740  0.1710  0.1038
24951SOL    HW186577   1.061   3.919   8.565  0.7221  0.4841 -1.6867
24951SOL    HW286578   1.196   3.980   8.595  0.4154 -0.4995  2.2520
24952SOL     OW86579   1.967   3.480  11.096  0.4829  0.0909 -0.7519
24952SOL    HW186580   1.937   3.519  11.177  1.3087 -0.0729 -0.3559
24952SOL    HW286581   1.909   3.406  11.082  1.5090 -1.0504  0.7243
24953SOL     OW86582   2.931   1.662  10.550  0.3758  0.0330 -0.1442
24953SOL    HW186583   2.961   1.687  10.462  0.0300 -1.4172 -0.7096
24953SOL    HW286584   2.989   1.709  10.610  1.7290 -0.2734 -1.1637
24954SOL     OW86585   5.161   8.784   6.444 -0.1436 -0.1797 -0.2053
24954SOL    HW186586   5.161   8.879   6.456  1.0326  0.1738 -2.4583
24954SOL    HW286587   5.073   8.764   6.413 -0.3029  0.2150 -0.0222
24955SOL     OW86588   8.127   4.632   7.397  0.1639  0.5785 -0.2412
24955SOL    HW186589   8.034   4.627   7.416 -0.1851  1.2213 -1.6895
24955SOL    HW286590   8.154   4.717   7.432  0.1839  0.4655  0.0249
24956SOL     OW86591   3.313   5.435  10.060 -0.0838  0.2614 -0.1031
24956SOL    HW186592   3.346   5.524  10.068  0.6216  0.1533 -1.4954
24956SOL    HW286593   3.289   5.410  10.149 -0.8634  2.0433  0.2318
24957SOL     OW86594   7.942   1.308   1.443 -0.0985  0.1169 -0.1213
24957SOL    HW186595   7.938   1.213   1.451 -1.5835 -0.0935 -2.2979
24957SOL    HW286596   8.021   1.334   1.490 -1.4371 -1.7587  3.4997
24958SOL     OW86597  11.678   1.406   7.486  0.0056  0.9218  0.3619
24958SOL    HW186598  11.674   1.500   7.505 -1.6484  0.5739  2.1234
24958SOL    HW286599  11.765   1.392   7.449 -0.5161  3.4804 -2.1166
24959SOL     OW86600   7.693   7.957  11.513 -0.1576 -0.0603 -0.3339
24959SOL    HW186601   7.718   7.986  11.425 -0.7246 -1.6549 -1.0505
24959SOL    HW286602   7.774   7.960  11.564  0.5753 -0.8845 -1.4209
24960SOL     OW86603   0.079   5.420   0.334 -0.0814  0.5496 -0.4680
24960SOL    HW186604   0.054   5.401   0.425  2.0875 -1.8168 -0.2292
24960SOL    HW286605   0.120   5.506   0.339  0.0624  0.4372  0.8304
24961SOL     OW86606   1.485   8.838   6.900 -0.2114  0.2920  0.3191
24961SOL    HW186607   1.477   8.855   6.994  0.4234  1.0911  0.2466
24961SOL    HW286608   1.406   8.876   6.862 -0.2338  0.4089  0.4792
24962SOL     OW86609   0.624   3.826   9.922 -0.2141  0.3139  0.8691
24962SOL    HW186610   0.705   3.865   9.890 -0.2270 -0.5400 -0.2405
24962SOL    HW286611   0.564   3.829   9.847 -1.1052  0.6088  1.5662
24963SOL     OW86612   9.723   8.888   3.718  0.5375 -0.2545  0.1111
24963SOL    HW186613   9.644   8.838   3.734  0.7964 -0.1128  2.1216
24963SOL    HW286614   9.692   8.972   3.684 -0.2417  0.0632  1.5500
24964SOL     OW86615   3.336  10.742   5.943 -0.0429 -0.4644  0.0110
24964SOL    HW186616   3.428  10.742   5.968 -0.2253  0.9261  0.7900
24964SOL    HW286617   3.289  10.737   6.026 -0.6699  0.3070 -0.2871
24965SOL     OW86618  10.395   6.061   8.049  0.2685  0.5823  0.2588
24965SOL    HW186619  10.422   6.097   7.964  3.3633  1.6054  1.5225
24965SOL    HW286620  10.446   5.981   8.058  1.3825  1.4055  1.8300
24966SOL     OW86621   7.556   0.421   1.944  0.2230 -0.2286 -0.6491
24966SOL    HW186622   7.601   0.493   1.901 -1.1850  2.0506  1.4656
24966SOL    HW286623   7.566   0.347   1.883  3.8464  0.9809 -1.7765
24967SOL     OW86624   0.182  10.221   5.181 -0.2521  0.2744  0.2996
24967SOL    HW186625   0.160  10.311   5.204 -0.2333  0.2232  0.5222
24967SOL    HW286626   0.271  10.209   5.214 -0.9287 -0.4248  2.0085
24968SOL     OW86627   5.787   1.028   0.848  0.5474  0.0212  0.3486
24968SOL    HW186628   5.802   1.062   0.760 -0.5505 -1.9820 -0.6867
24968SOL    HW286629   5.693   1.038   0.862  0.5194 -0.8018  0.7883
24969SOL     OW86630   4.968   0.393   9.099  0.1783 -0.0758 -0.7759
24969SOL    HW186631   4.966   0.417   9.192  0.6786  0.6408 -0.9341
24969SOL    HW286632   4.881   0.358   9.081 -0.6480  1.7188 -0.5266
24970SOL     OW86633  10.212   3.725   2.963  0.6556  0.7065 -0.4340
24970SOL    HW186634  10.190   3.755   3.051  0.8882  1.3144 -0.5760
24970SOL    HW286635  10.294   3.676   2.974 -0.9445 -2.0618  0.1878
24971SOL     OW86636   2.424   4.223   3.208  0.1593  0.7008  0.3052
24971SOL    HW186637   2.421   4.177   3.291  0.2033 -0.7188 -0.4527
24971SOL    HW286638   2.468   4.306   3.227  0.6019  0.1848  1.5819
24972SOL     OW86639   9.939   9.041   4.916 -0.4524  0.0958  0.0001
24972SOL    HW186640   9.939   9.134   4.894 -2.6719 -0.1559 -1.3336
24972SOL    HW286641  10.001   9.002   4.854  0.4943  0.6617  0.5713
24973SOL     OW86642   0.405   6.138   4.499  0.3522  0.0620  0.4272
24973SOL    HW186643   0.416   6.157   4.405 -1.2885 -0.5105  0.0829
24973SOL    HW286644   0.398   6.224   4.540  0.9058  0.3155  0.0053
24974SOL     OW86645   4.454   4.474   9.783  0.3451 -0.0333 -0.0628
24974SOL    HW186646   4.368   4.450   9.819 -0.4267  0.2358 -1.6076
24974SOL    HW286647   4.514   4.465   9.856 -0.8945 -0.8778  0.9034
24975SOL     OW86648   4.907  11.737   9.296  0.4804  0.1604 -0.6037
24975SOL    HW186649   4.940  11.648   9.284  1.7328  0.6706 -1.2425
24975SOL    HW286650   4.917  11.754   9.389 -1.7137 -1.0552 -0.0837
24976SOL     OW86651   4.560   1.879   1.908  0.0455  0.0751  0.2203
24976SOL    HW186652   4.583   1.972   1.908  0.8834 -0.1170  0.7210
24976SOL    HW286653   4.468   1.876   1.934 -0.3685  0.8341 -1.0855
24977SOL     OW86654   1.727   9.123   7.232  0.2224 -0.2684 -0.0669
24977SOL    HW186655   1.644   9.109   7.278 -1.2120 -0.2177 -2.4815
24977SOL    HW286656   1.739   9.044   7.179  2.0177 -0.5017  0.5972
24978SOL     OW86657   3.771  10.206   6.349 -0.4812  0.7731  0.6065
24978SOL    HW186658   3.723  10.217   6.267 -0.1136  0.8518  0.3959
24978SOL    HW286659   3.840  10.272   6.345  1.1784 -0.9221 -0.2492
24979SOL     OW86660   2.400   9.658   1.838  0.4335  0.2679  0.5451
24979SOL    HW186661   2.336   9.682   1.771 -0.2039 -1.2211  0.5959
24979SOL    HW286662   2.347   9.634   1.914  1.0576 -0.7000  0.6846
24980SOL     OW86663   4.502   7.083   9.043  1.0380  0.1383 -0.5958
24980SOL    HW186664   4.409   7.060   9.046  0.4831  2.1384  1.6871
24980SOL    HW286665   4.546   7.003   9.015 -1.2748 -1.2471 -0.5582
24981SOL     OW86666   3.583   3.320   3.301 -0.3881 -0.4160 -0.5673
24981SOL    HW186667   3.637   3.278   3.368  1.3890  0.9179 -1.0702
24981SOL    HW286668   3.511   3.361   3.349 -0.9761 -2.2020  0.1294
24982SOL     OW86669  10.239   4.445   7.538 -0.8384 -0.5518  0.4432
24982SOL    HW186670  10.275   4.428   7.451 -0.7749 -0.2216  0.4033
24982SOL    HW286671  10.261   4.536   7.555 -1.3515 -0.4484  0.5689
24983SOL     OW86672   9.229   9.158   9.796 -0.4873 -0.2568 -0.4671
24983SOL    HW186673   9.242   9.101   9.720  0.5695 -0.8453  0.1337
24983SOL    HW286674   9.282   9.235   9.777 -0.2034 -0.4146 -0.3182
24984SOL     OW86675   4.945   6.005   4.333  0.7877  0.0281 -0.0565
24984SOL    HW186676   5.027   6.000   4.284 -0.2449  0.3429 -1.8960
24984SOL    HW286677   4.907   5.917   4.327  0.0305  0.4013 -1.0010
24985SOL     OW86678   5.183  11.554   1.284  0.1519  0.2780 -0.4125
24985SOL    HW186679   5.238  11.492   1.237 -2.0768 -0.1940 -2.5806
24985SOL    HW286680   5.200  11.638   1.241  0.5278  0.5096  0.1702
24986SOL     OW86681  11.811   8.190   8.437 -0.4118 -0.3614 -0.0232
24986SOL    HW186682  11.778   8.111   8.481 -1.7838  0.1080 -0.1682
24986SOL    HW286683  11.737   8.221   8.385  1.2526 -1.1137 -3.0541
24987SOL     OW86684   0.556  11.871  10.202  0.3831 -0.5173  0.1009
24987SOL    HW186685   0.599  11.805  10.258  0.2875 -0.8142 -0.1704
24987SOL    HW286686   0.621  11.940  10.193  0.2601 -0.2840  0.8931
24988SOL     OW86687   8.767   2.912   8.098  0.4586  0.2940 -0.6001
24988SOL    HW186688   8.795   2.987   8.044 -1.5263  0.4400 -1.5179
24988SOL    HW286689   8.675   2.900   8.075  0.3698 -1.5647  0.5850
24989SOL     OW86690  11.437   3.955   4.942  0.3769 -0.0728  0.0392
24989SOL    HW186691  11.482   4.012   4.879 -0.1508  1.2007  0.7697
24989SOL    HW286692  11.485   3.968   5.024 -1.3851  1.4759  0.8913
24990SOL     OW86693   7.306   2.274   9.203  0.0775  0.1666 -0.5738
24990SOL    HW186694   7.365   2.226   9.262  0.2711  0.5157 -0.4773
24990SOL    HW286695   7.337   2.253   9.115  0.7769  0.8781 -0.5075
24991SOL     OW86696  11.232   3.263   4.113 -0.3691  0.1371 -0.2218
24991SOL    HW186697  11.156   3.320   4.105 -0.9541 -0.4968  0.6950
24991SOL    HW286698  11.244   3.252   4.207  0.6529 -0.0605 -0.3591
24992SOL     OW86699   3.007   8.458   5.984 -0.3704 -0.0073  0.5491
24992SOL    HW186700   2.963   8.451   6.068  1.9503 -2.2218  1.7145
24992SOL    HW286701   3.084   8.402   5.992  1.0669  1.3127 -2.3665
24993SOL     OW86702   2.029  10.017  11.440 -0.2121  0.0561  0.0599
24993SOL    HW186703   2.081  10.096  11.455 -1.5368  0.8918  0.4577
24993SOL    HW286704   2.027  10.008  11.345  0.1297  0.3691  0.0188
24994SOL     OW86705   8.444  10.604   5.074  0.2811  0.3389 -0.2432
24994SOL    HW186706   8.433  10.534   5.010 -1.3087  0.2700  0.0744
24994SOL    HW286707   8.530  10.641   5.054 -0.4448  0.7710 -2.8645
24995SOL     OW86708   1.400   0.620   3.210  0.4881 -0.1889  0.1481
24995SOL    HW186709   1.455   0.662   3.145  0.9666 -0.5182  0.3364
24995SOL    HW286710   1.449   0.626   3.292  0.7216 -1.3750  0.1201
24996SOL     OW86711   2.599   2.676   4.460 -0.0046  0.3472 -0.4357
24996SOL    HW186712   2.564   2.591   4.434  0.9488  0.1999 -1.3064
24996SOL    HW286713   2.539   2.707   4.528 -2.3023  0.5264 -2.4229
24997SOL     OW86714   2.607   6.897   3.331 -0.6492  0.2562 -0.3886
24997SOL    HW186715   2.669   6.876   3.401  0.0751  0.9034 -0.8225
24997SOL    HW286716   2.569   6.981   3.357  0.0345  0.7779 -1.0312
24998SOL     OW86717   5.142   2.276  10.162 -0.1287  0.6027  0.0880
24998SOL    HW186718   5.180   2.307  10.244  3.4605  0.8800 -1.4769
24998SOL    HW286719   5.052   2.310  10.163  1.1250  4.5356  1.9555
24999SOL     OW86720   4.565   3.642   2.353 -0.2412 -0.2394  0.1835
24999SOL    HW186721   4.549   3.637   2.259  1.8271 -1.5016 -0.1610
24999SOL    HW286722   4.525   3.726   2.379 -0.9657  0.0858 -1.7595
25000SOL     OW86723   0.962  11.779   4.607 -0.3495  0.0084 -0.0066
25000SOL    HW186724   0.888  11.723   4.582 -0.1621  0.1381 -0.8747
25000SOL    HW286725   0.931  11.868   4.590  0.2208  0.0364 -1.0229
25001SOL     OW86726   7.146   1.769   9.810  0.4015 -0.3228 -0.9037
25001SOL    HW186727   7.141   1.842   9.872 -2.6715 -0.9128 -0.3060
25001SOL    HW286728   7.240   1.757   9.795  1.2864  0.5728  2.8083
25002SOL     OW86729   0.003   9.378   4.831 -0.0117 -0.1118 -0.0228
25002SOL    HW186730  -0.081   9.412   4.800 -0.3776  0.2741  1.3303
25002SOL    HW286731   0.064   9.450   4.816 -0.5347  0.7482  1.6718
25003SOL     OW86732   3.200   0.339   8.432  0.2853  0.2357  0.3034
25003SOL    HW186733   3.112   0.366   8.458 -0.3039 -1.8585  0.6864
25003SOL    HW286734   3.232   0.288   8.506  0.1983 -2.3937 -1.3586
25004SOL     OW86735  10.405  10.941  10.420 -0.2521 -0.6990  0.5884
25004SOL    HW186736  10.323  10.896  10.440 -0.9566  0.6831  1.0028
25004SOL    HW286737  10.390  11.031  10.452  0.7619  0.0503 -0.9516
25005SOL     OW86738   1.821   9.781   7.859  0.0181 -0.4388 -0.1407
25005SOL    HW186739   1.886   9.758   7.925 -1.2790 -1.0761  0.9833
25005SOL    HW286740   1.800   9.698   7.816 -0.1304 -0.2568 -0.4253
25006SOL     OW86741   6.767  11.723   2.614  0.3237  0.0692 -0.1271
25006SOL    HW186742   6.696  11.786   2.599  1.9535  1.8307 -0.7295
25006SOL    HW286743   6.829  11.739   2.543  1.1743 -1.6994  0.1629
25007SOL     OW86744  10.290   4.282   7.740 -0.0869  0.5595 -0.2284
25007SOL    HW186745  10.240   4.319   7.813  0.9698  0.4808  0.5642
25007SOL    HW286746  10.289   4.351   7.673  1.2526  1.8004  0.9461
25008SOL     OW86747   6.029   6.636   3.389 -0.2835 -0.0962 -0.2781
25008SOL    HW186748   6.006   6.728   3.403 -1.1958 -0.5558  1.3854
25008SOL    HW286749   6.123   6.633   3.407 -0.4787  0.2873  0.8479
25009SOL     OW86750   0.090   1.292   3.151  0.2107  0.0550  0.3260
25009SOL    HW186751   0.058   1.382   3.158 -1.5785 -0.3910 -1.4408
25009SOL    HW286752   0.036   1.242   3.213 -0.4588 -0.1807 -0.4311
25010SOL     OW86753   3.174  10.058   2.768  0.6353 -0.0896 -0.4257
25010SOL    HW186754   3.113  10.034   2.838 -0.5261  2.1599 -0.5839
25010SOL    HW286755   3.207  10.144   2.793  1.0918  0.2533 -2.0707
25011SOL     OW86756   9.563   5.044  10.113  0.7541  0.4868  0.1075
25011SOL    HW186757   9.546   5.055  10.206 -1.7541 -1.1842 -0.0460
25011SOL    HW286758   9.599   4.956  10.106  0.4354  0.4058 -0.5492
25012SOL     OW86759   9.932   6.413   5.264 -0.4301  0.2652 -0.4725
25012SOL    HW186760   9.970   6.461   5.338  0.4246  0.1007 -0.7938
25012SOL    HW286761   9.943   6.321   5.287  0.6887  0.1951 -1.1953
25013SOL     OW86762   6.934  11.189   2.145  0.0191 -0.2306  0.8631
25013SOL    HW186763   6.860  11.150   2.099  1.0787 -1.2500 -0.0187
25013SOL    HW286764   6.921  11.283   2.135 -0.7291 -0.4060  0.0314
25014SOL     OW86765   4.090   4.346   1.150  0.0305  0.1458 -0.6232
25014SOL    HW186766   4.011   4.386   1.114  0.2898 -0.0132 -1.3840
25014SOL    HW286767   4.101   4.389   1.235 -0.5753  0.5499 -0.7381
25015SOL     OW86768   7.046   1.077   3.853  0.1973 -0.0535 -0.3592
25015SOL    HW186769   7.125   1.119   3.887 -0.8969  1.4224  0.4690
25015SOL    HW286770   7.026   1.126   3.773  0.2738 -0.6479 -0.7557
25016SOL     OW86771  11.598   0.371   6.242  0.1794 -0.0939  0.0108
25016SOL    HW186772  11.594   0.425   6.163  0.8520 -2.1016 -1.4702
25016SOL    HW286773  11.652   0.296   6.217  0.3487 -0.8333  2.3754
25017SOL     OW86774   2.730  11.311   7.087  0.2373  0.2043 -0.5053
25017SOL    HW186775   2.731  11.279   7.177 -0.8401  0.6814 -0.3061
25017SOL    HW286776   2.795  11.381   7.086  2.4063 -1.7017 -0.8784
25018SOL     OW86777   5.023   1.182   6.383  0.3800  0.0160  0.3705
25018SOL    HW186778   5.015   1.277   6.376  0.2291 -0.1181 -2.5833
25018SOL    HW286779   4.935   1.152   6.409 -0.1312  0.5963 -0.6185
25019SOL     OW86780   5.688   1.055   0.366  0.5019 -0.1169 -0.1300
25019SOL    HW186781   5.697   1.056   0.270 -0.2650 -0.3689 -0.2127
25019SOL    HW286782   5.601   1.017   0.381  0.1553  0.9427  0.6393
25020SOL     OW86783  10.397   3.586   7.959  0.1119  0.1054  0.1138
25020SOL    HW186784  10.375   3.539   7.879  0.0701 -0.6091  0.5357
25020SOL    HW286785  10.323   3.570   8.017 -0.3082  1.4143 -0.0280
25021SOL     OW86786   5.865   7.229   4.679  0.5962 -0.6569  0.6526
25021SOL    HW186787   5.951   7.188   4.677  0.5043 -0.9167  1.6294
25021SOL    HW286788   5.874   7.306   4.622  2.0556  0.3987  2.2215
25022SOL     OW86789   2.691   8.936   0.289  0.2136  0.3389  0.0799
25022SOL    HW186790   2.672   8.866   0.227  1.6049  1.0223 -1.2127
25022SOL    HW286791   2.696   8.893   0.374  0.3584 -1.0071 -0.5868
25023SOL     OW86792   5.898  11.336   9.049  0.1213  0.4962  0.5399
25023SOL    HW186793   5.986  11.340   9.085  0.1134  0.5286  0.5558
25023SOL    HW286794   5.844  11.384   9.112  0.1442  0.7448  0.3744
25024SOL     OW86795   0.956   7.281   6.785  0.1854 -0.2073  0.3275
25024SOL    HW186796   1.041   7.321   6.800  0.2224 -0.4588  0.8129
25024SOL    HW286797   0.970   7.188   6.802  0.4919 -0.7228 -2.3240
25025SOL     OW86798   8.822   0.193   5.047  0.3872  0.1037 -0.3807
25025SOL    HW186799   8.908   0.236   5.046 -0.1723  1.3125 -1.8565
25025SOL    HW286800   8.777   0.231   5.122 -0.1126  2.2523 -1.6813
25026SOL     OW86801   0.753   6.494  11.685  0.6254 -0.0533  0.5360
25026SOL    HW186802   0.662   6.474  11.709  0.7216 -1.1215  0.0388
25026SOL    HW286803   0.783   6.417  11.637  1.3505  0.8801 -0.5370
25027SOL     OW86804   5.335  10.962   6.004  0.1193 -0.1680 -0.2039
25027SOL    HW186805   5.361  11.054   6.013  0.9095 -0.4560  0.5850
25027SOL    HW286806   5.242  10.966   5.982 -0.1327  0.8052  0.9074
25028SOL     OW86807   7.636  11.741  10.930  0.3766 -0.0507 -0.0374
25028SOL    HW186808   7.593  11.797  10.995  0.8033  2.3027 -1.6887
25028SOL    HW286809   7.564  11.694  10.888  0.0076 -0.7476  1.3049
25029SOL     OW86810   8.725   0.292   5.494  0.1691 -0.2963  0.4693
25029SOL    HW186811   8.687   0.205   5.495  2.0054 -1.1556 -0.4117
25029SOL    HW286812   8.736   0.315   5.586  2.4769 -2.3445  0.8016
25030SOL     OW86813   0.830  11.736   7.808 -0.5869 -0.5736 -0.0037
25030SOL    HW186814   0.903  11.678   7.827  0.8873  1.2656  0.2145
25030SOL    HW286815   0.849  11.772   7.721 -1.4544 -0.3832 -0.1302
25031SOL     OW86816   8.710   6.308   4.957  0.0161  0.3978  0.1393
25031SOL    HW186817   8.701   6.375   5.025  0.6718  1.0385 -0.3832
25031SOL    HW286818   8.728   6.358   4.877  0.8695 -0.4295 -0.1973
25032SOL     OW86819   7.668   0.023  10.040  0.1171  0.4846  0.0934
25032SOL    HW186820   7.680  -0.072  10.037  0.2916  0.3637  2.7336
25032SOL    HW286821   7.583   0.035  10.082 -0.4282  1.5358 -1.2337
25033SOL     OW86822   5.300   8.853   8.867 -0.4425 -0.3542 -0.4303
25033SOL    HW186823   5.353   8.839   8.789 -1.8355 -1.2738 -1.2515
25033SOL    HW286824   5.299   8.948   8.878  0.1366 -0.2398 -1.2684
25034SOL     OW86825   5.660  10.080  10.239 -0.2683  1.2686 -0.1499
25034SOL    HW186826   5.736  10.137  10.248  0.8804  0.1597 -1.9954
25034SOL    HW286827   5.697   9.991  10.242 -1.5464  0.6970 -0.5532
25035SOL     OW86828   1.687   8.498   4.989  0.4749 -0.0363 -0.3649
25035SOL    HW186829   1.687   8.514   4.894 -3.3452  0.3332 -0.4717
25035SOL    HW286830   1.686   8.402   4.997  0.7923 -0.0690 -0.6997
25036SOL     OW86831   1.107   8.999   8.801 -0.2286 -0.2493  0.4617
25036SOL    HW186832   1.103   9.072   8.739 -2.3839  1.0347  1.9663
25036SOL    HW286833   1.018   8.965   8.805  0.6045 -2.6735  0.2382
25037SOL     OW86834   8.613   7.673   0.896 -0.1430  0.5141  0.4231
25037SOL    HW186835   8.675   7.605   0.921 -1.9390 -0.8915  1.2522
25037SOL    HW286836   8.599   7.724   0.976  0.2106  1.0716  0.1383
25038SOL     OW86837   1.739   9.876  10.023 -0.1337  0.3736 -0.2486
25038SOL    HW186838   1.786   9.959  10.026  0.2781  0.1584 -0.7400
25038SOL    HW286839   1.719   9.857  10.115  2.2216 -0.3674  0.1827
25039SOL     OW86840   1.478   0.133   8.465 -0.3407 -0.2691  0.0354
25039SOL    HW186841   1.569   0.126   8.437 -0.3176 -0.8248  0.2406
25039SOL    HW286842   1.478   0.101   8.555 -0.6841  0.0355  0.1495
25040SOL     OW86843   8.286   4.056   8.781  0.0767 -0.0589  0.0238
25040SOL    HW186844   8.292   4.018   8.693  2.8449  0.0340  0.0966
25040SOL    HW286845   8.329   4.141   8.773 -1.0800  0.6719  1.1482
25041SOL     OW86846   8.718   3.943   5.580  0.2470  0.0024  0.4136
25041SOL    HW186847   8.732   3.895   5.497 -1.0263  1.2948 -0.5929
25041SOL    HW286848   8.724   3.875   5.647  1.6860 -1.0371 -0.6757
25042SOL     OW86849  10.280  11.789   1.554 -0.5137 -0.1148  0.3953
25042SOL    HW186850  10.225  11.711   1.545 -0.7612  0.2551 -2.7291
25042SOL    HW286851  10.369  11.755   1.558 -0.6573 -0.6174 -0.3463
25043SOL     OW86852   8.182   8.885   0.722 -0.2868  0.0802 -1.0209
25043SOL    HW186853   8.147   8.969   0.752 -1.7238 -0.1839 -1.8599
25043SOL    HW286854   8.265   8.875   0.770 -0.5630  1.5064 -0.1803
25044SOL     OW86855  11.575  10.163   5.720 -0.0893 -0.7398  0.0587
25044SOL    HW186856  11.559  10.257   5.727  2.8670 -0.1822  0.6832
25044SOL    HW286857  11.543  10.140   5.633  1.2097  1.3867 -1.0833
25045SOL     OW86858   8.052   8.054   7.591  0.0546  1.1147  0.4630
25045SOL    HW186859   8.014   7.984   7.539 -1.5359  1.5363  1.0116
25045SOL    HW286860   8.142   8.062   7.558  0.2166 -1.0386  0.2918
25046SOL     OW86861   0.773   0.158   8.886  0.5169 -0.1048  0.1605
25046SOL    HW186862   0.833   0.207   8.943  0.2106  0.0518  0.3522
25046SOL    HW286863   0.697   0.140   8.942 -0.0406  0.5695 -0.3740
25047SOL     OW86864   6.210   8.303  10.815 -0.4169 -0.4512 -0.1088
25047SOL    HW186865   6.219   8.297  10.720 -0.8169 -0.7103 -0.1330
25047SOL    HW286866   6.287   8.352  10.843 -1.2577  1.3189 -0.7700
25048SOL     OW86867   3.835   3.119   7.367  0.2095 -0.5780  0.0918
25048SOL    HW186868   3.774   3.071   7.423  0.6590 -0.8795  0.3293
25048SOL    HW286869   3.915   3.126   7.419  0.0554  0.7041  0.1848
25049SOL     OW86870   6.759   0.397  11.319  0.3901 -0.0362  0.4532
25049SOL    HW186871   6.776   0.412  11.412  1.8646 -0.0154  0.2128
25049SOL    HW286872   6.744   0.485  11.283  0.6495  0.0408  0.5286
25050SOL     OW86873   6.405   9.339   1.294  0.9690 -0.3806 -0.6797
25050SOL    HW186874   6.331   9.322   1.352  0.6681  0.7323 -0.7242
25050SOL    HW286875   6.446   9.253   1.282  0.8565 -0.7007  0.9289
25051SOL     OW86876  10.511   1.125   9.048  0.1725  0.1197  0.3430
25051SOL    HW186877  10.495   1.192   9.114  1.2962 -0.6172  1.4182
25051SOL    HW286878  10.512   1.172   8.965  1.0849  1.4705  1.0825
25052SOL     OW86879  10.933  10.457   8.864 -0.0237 -0.2105 -0.2969
25052SOL    HW186880  10.891  10.543   8.867  0.9068  0.2856 -0.8571
25052SOL    HW286881  10.980  10.457   8.781 -1.1329 -1.8146 -0.9596
25053SOL     OW86882   6.177   6.648   8.538 -0.1867 -0.5606  0.4939
25053SOL    HW186883   6.183   6.635   8.633  0.1846 -0.0826  0.5350
25053SOL    HW286884   6.206   6.738   8.524  0.2823 -0.8048 -0.1299
25054SOL     OW86885   6.039   4.589   4.171 -0.2015 -0.5851  0.0914
25054SOL    HW186886   6.004   4.591   4.260  1.9885 -0.7646  1.0275
25054SOL    HW286887   5.999   4.664   4.127 -0.8594 -0.1308  1.4154
25055SOL     OW86888   4.391   6.271   4.008  0.1914  0.0379  0.2248
25055SOL    HW186889   4.427   6.194   4.054  0.7657 -0.0014 -0.2737
25055SOL    HW286890   4.432   6.268   3.922 -2.8016 -1.3425 -1.2994
25056SOL     OW86891  10.420  10.658  10.673  0.3460 -0.2416  0.0612
25056SOL    HW186892  10.484  10.727  10.657 -1.2771  1.5494  0.9476
25056SOL    HW286893  10.361  10.661  10.597 -1.3214  1.2900  1.3231
25057SOL     OW86894   6.875  11.663   0.209  0.0609 -0.1282 -0.4876
25057SOL    HW186895   6.830  11.626   0.284 -0.1793  2.0779  0.5400
25057SOL    HW286896   6.968  11.645   0.225 -0.1580 -2.1006 -1.1366
25058SOL     OW86897   3.094   1.107   0.379 -0.1025  0.0080 -0.3341
25058SOL    HW186898   3.086   1.108   0.284 -1.4518 -0.9044 -0.2620
25058SOL    HW286899   3.148   1.030   0.398  1.0774  0.8011 -0.3917
25059SOL     OW86900   0.188   1.068   6.817 -0.2841 -0.2339  0.1715
25059SOL    HW186901   0.268   1.061   6.869 -0.3673 -1.5049  0.1448
25059SOL    HW286902   0.219   1.070   6.726 -0.3040 -1.2329  0.1395
25060SOL     OW86903   5.913   3.456   2.856  0.0923  0.4782  0.1869
25060SOL    HW186904   5.832   3.428   2.814  0.2837  1.7942 -1.1296
25060SOL    HW286905   5.941   3.532   2.805  1.9698  0.2583  0.8330
25061SOL     OW86906   2.148   8.985  10.906  0.7090 -0.5816  0.0795
25061SOL    HW186907   2.069   9.031  10.935  0.9932  0.0082 -0.0540
25061SOL    HW286908   2.133   8.894  10.931 -0.9352 -0.9060 -1.7912
25062SOL     OW86909   8.503   7.749   7.615  0.1927  0.8845 -0.1322
25062SOL    HW186910   8.473   7.696   7.541 -2.4041  2.2282 -0.1409
25062SOL    HW286911   8.544   7.686   7.675  0.4959 -0.5295 -1.7479
25063SOL     OW86912  11.307   6.556  11.045 -0.3150 -0.5551  0.5775
25063SOL    HW186913  11.402   6.564  11.036 -0.3421 -0.7678  0.0193
25063SOL    HW286914  11.272   6.631  10.997 -0.4184 -0.1108  1.3353
25064SOL     OW86915   5.806   7.062   8.650 -0.0303  0.6694 -0.3180
25064SOL    HW186916   5.730   7.035   8.598  0.5005  1.9951 -1.8667
25064SOL    HW286917   5.832   7.146   8.612  1.6276  0.7122  0.8151
25065SOL     OW86918   1.177   6.712   2.449 -0.1735  0.4347 -0.0468
25065SOL    HW186919   1.265   6.692   2.481  0.0899 -2.3758 -2.0398
25065SOL    HW286920   1.190   6.737   2.357 -1.4046  0.5067 -0.2264
25066SOL     OW86921   9.667   6.512   3.563  0.3507 -0.0763  0.1004
25066SOL    HW186922   9.634   6.506   3.652 -3.2846 -0.4515 -1.1027
25066SOL    HW286923   9.599   6.560   3.515  2.9745  1.6809 -2.1541
25067SOL     OW86924   0.892   1.056   3.670 -0.2769 -0.0657 -0.2302
25067SOL    HW186925   0.832   1.130   3.663 -0.6503 -0.3976 -0.6051
25067SOL    HW286926   0.889   1.032   3.763  0.0417  0.5443 -0.0591
25068SOL     OW86927  11.532   0.620   0.192 -0.3275 -0.5692 -0.5370
25068SOL    HW186928  11.609   0.668   0.222  0.8523 -1.2068 -2.3705
25068SOL    HW286929  11.470   0.688   0.166 -0.3646 -0.0545  0.7996
25069SOL     OW86930   7.955   9.681   8.514 -0.0927  0.1976  0.4527
25069SOL    HW186931   7.878   9.641   8.474  0.7104 -1.0604  0.1039
25069SOL    HW286932   7.954   9.772   8.484  0.6758 -0.7514 -2.8082
25070SOL     OW86933   6.624   7.369   5.307  0.1716 -0.3916  0.3494
25070SOL    HW186934   6.638   7.463   5.298  1.5243 -0.6302 -0.2817
25070SOL    HW286935   6.579   7.343   5.227 -0.0333 -0.3029  0.4375
25071SOL     OW86936   5.584   6.564   4.253 -0.2024  0.3953 -0.0773
25071SOL    HW186937   5.551   6.475   4.244  1.3140 -0.1874 -0.2381
25071SOL    HW286938   5.607   6.591   4.164  0.0394  0.6573  0.0600
25072SOL     OW86939   4.495   0.113   8.593 -0.5859 -0.1699  0.0502
25072SOL    HW186940   4.463   0.203   8.596 -0.0904 -0.0180  1.7759
25072SOL    HW286941   4.475   0.078   8.679  0.0615 -1.4234 -0.2946
25073SOL     OW86942   4.566   8.766   7.348  0.2043 -0.4688  0.2653
25073SOL    HW186943   4.535   8.798   7.263 -1.9202 -0.3149  1.0251
25073SOL    HW286944   4.617   8.687   7.328 -1.0387 -0.9632 -1.1063
25074SOL     OW86945   8.480   3.479   5.919 -0.0785  0.0454 -0.4139
25074SOL    HW186946   8.447   3.475   5.829  0.1225 -2.2719 -0.4481
25074SOL    HW286947   8.405   3.458   5.973  0.2004 -0.3720 -0.1794
25075SOL     OW86948   7.495   3.915   3.934 -0.0304  0.3643  0.3008
25075SOL    HW186949   7.497   4.007   3.962 -0.2634  0.0565  1.3713
25075SOL    HW286950   7.524   3.917   3.843  1.1311  1.3822  0.6615
25076SOL     OW86951   2.920   5.839  10.288 -0.3646  0.8212 -0.0033
25076SOL    HW186952   2.991   5.849  10.351  1.5704 -1.2166 -1.6870
25076SOL    HW286953   2.848   5.802  10.339  0.8660 -0.0457  1.1924
25077SOL     OW86954   8.708   5.621   7.786  0.1088 -0.3306 -0.5516
25077SOL    HW186955   8.656   5.543   7.767 -1.0260  0.4950 -0.8984
25077SOL    HW286956   8.681   5.648   7.874 -1.2244  0.9905 -1.3342
25078SOL     OW86957   8.147   2.428   7.521 -0.0030  0.3444  0.8113
25078SOL    HW186958   8.058   2.447   7.553  0.5216 -0.2088  2.7625
25078SOL    HW286959   8.201   2.429   7.600  1.7904  0.8958 -0.3572
25079SOL     OW86960   7.784   5.714   8.595 -0.1516 -0.0217  0.1758
25079SOL    HW186961   7.824   5.754   8.672  0.9546 -0.3414 -0.2262
25079SOL    HW286962   7.759   5.626   8.624 -0.9116  0.2915  0.5232
25080SOL     OW86963   5.331   3.935   6.341 -1.0137  0.0331  0.2710
25080SOL    HW186964   5.379   3.864   6.298 -0.8957  0.5182 -0.4037
25080SOL    HW286965   5.398   3.998   6.367 -1.3162  1.1288 -1.4418
25081SOL     OW86966   9.605   7.073  10.208  0.1669 -0.6015  0.3807
25081SOL    HW186967   9.568   7.144  10.155  0.6589 -0.3677  0.3458
25081SOL    HW286968   9.699   7.087  10.205  0.1531  0.8750  3.3080
25082SOL     OW86969   0.982   8.611   6.620  0.0417 -0.0243  0.0261
25082SOL    HW186970   0.893   8.610   6.584  0.2039 -1.5429 -0.3936
25082SOL    HW286971   0.970   8.595   6.713 -0.2292  1.6965  0.3167
25083SOL     OW86972   3.001  11.793   9.868 -0.4420 -0.0382 -0.0060
25083SOL    HW186973   3.050  11.799   9.950 -0.1012 -0.3183 -0.1924
25083SOL    HW286974   2.912  11.772   9.896 -0.8515  2.0187  0.4511
25084SOL     OW86975  10.286   7.033  11.811  0.0847  0.9623 -0.1401
25084SOL    HW186976  10.281   7.048  11.716  1.8166 -2.7325 -0.9901
25084SOL    HW286977  10.363   7.083  11.838  0.0905  1.3507 -0.8344
25085SOL     OW86978   6.476   0.846   0.619 -0.2489 -0.2621  0.0470
25085SOL    HW186979   6.569   0.863   0.631 -0.0914 -1.2778  0.3928
25085SOL    HW286980   6.450   0.799   0.698 -0.5055 -2.0444 -1.0366
25086SOL     OW86981   2.115   3.514   4.272 -0.4254  0.0492 -0.6227
25086SOL    HW186982   2.149   3.603   4.285 -0.5969 -0.2124  1.9996
25086SOL    HW286983   2.082   3.515   4.182  2.7305  1.5552 -1.9437
25087SOL     OW86984   2.145   6.198   0.331  0.1962 -0.9696 -0.6176
25087SOL    HW186985   2.060   6.235   0.310  0.1380 -1.1728 -0.7405
25087SOL    HW286986   2.134   6.103   0.319  1.1054 -0.8386 -3.0045
25088SOL     OW86987  11.246   4.736   1.077  0.3694  0.1282 -0.3205
25088SOL    HW186988  11.201   4.707   0.998  0.2938 -1.2565  0.1949
25088SOL    HW286989  11.308   4.665   1.095 -1.3600 -0.8677  2.2650
25089SOL     OW86990   1.923   8.477   8.161  0.2627 -0.7686  0.2431
25089SOL    HW186991   1.954   8.435   8.241  0.5848  0.6153  0.8793
25089SOL    HW286992   1.935   8.411   8.092  1.9176 -1.2684  0.9684
25090SOL     OW86993   4.425  10.593   9.262  0.1957 -0.4929 -0.2498
25090SOL    HW186994   4.498  10.616   9.320  1.2521  0.6961 -1.9283
25090SOL    HW286995   4.360  10.553   9.319  0.8886  1.1921  1.8732
25091SOL     OW86996   7.818   5.207  11.466 -0.1113  0.1956  0.2104
25091SOL    HW186997   7.830   5.297  11.496 -0.3475  0.2739  0.0732
25091SOL    HW286998   7.775   5.163  11.540 -1.4846  0.6023 -0.3122
25092SOL     OW86999   4.897   7.496   4.503  0.0123 -0.8750 -0.6498
25092SOL    HW187000   4.823   7.543   4.463  0.0765 -0.9587 -0.8673
25092SOL    HW287001   4.951   7.565   4.542 -0.1973 -0.8160 -0.4641
25093SOL     OW87002  10.503  11.405  10.308  0.1333 -0.1360 -0.1486
25093SOL    HW187003  10.439  11.427  10.241 -1.2604 -0.1325  1.1256
25093SOL    HW287004  10.531  11.490  10.343 -1.5129 -0.1682  1.3755
25094SOL     OW87005   4.251  11.753   3.169  0.1137  0.1735 -0.6003
25094SOL    HW187006   4.252  11.831   3.225 -2.5302  0.2293 -0.5129
25094SOL    HW287007   4.223  11.785   3.083  0.6032 -0.4546 -1.0064
25095SOL     OW87008   4.405   8.247  11.938 -0.0609  0.0111 -0.0293
25095SOL    HW187009   4.366   8.177  11.991  0.6621 -0.3133  0.0814
25095SOL    HW287010   4.359   8.242  11.855 -1.1985  0.5116  0.5403
25096SOL     OW87011   0.855  11.398  10.689  0.1888 -0.3596 -0.2353
25096SOL    HW187012   0.774  11.449  10.686  0.9253  0.9617  1.1452
25096SOL    HW287013   0.868  11.369  10.599 -0.5952  1.3717 -0.9483
25097SOL     OW87014   2.908   7.597   7.236 -0.0108 -0.0130  0.8290
25097SOL    HW187015   2.971   7.634   7.298  0.9415 -0.5271  0.1882
25097SOL    HW287016   2.822   7.615   7.275  0.4282  2.2884  0.8607
25098SOL     OW87017   2.888   0.400  11.836  0.1629 -0.7664 -0.0671
25098SOL    HW187018   2.912   0.361  11.752  1.1603 -2.2026  0.8342
25098SOL    HW287019   2.952   0.469  11.850  1.5051 -2.0726  0.5518
25099SOL     OW87020   1.226   1.450   8.968  0.4346  0.2655 -0.1982
25099SOL    HW187021   1.299   1.414   9.019  0.7664 -0.6061 -1.2521
25099SOL    HW287022   1.219   1.393   8.891  0.2311  1.7758 -1.3613
25100SOL     OW87023   2.017   7.958   3.698 -0.1920  0.2009 -0.2648
25100SOL    HW187024   2.056   7.953   3.611  1.3682 -0.1868  0.4266
25100SOL    HW287025   2.009   7.867   3.726  1.6490  0.3529  0.9554
25101SOL     OW87026   1.119   2.864  10.180  0.1054 -0.5156  0.0101
25101SOL    HW187027   1.197   2.910  10.150  0.0290 -0.6705 -0.4351
25101SOL    HW287028   1.077   2.833  10.100 -0.3097 -0.6011  0.2564
25102SOL     OW87029   4.602   0.790   6.764  0.1531  1.0414 -0.3706
25102SOL    HW187030   4.511   0.790   6.735  0.5260 -0.0395 -1.6765
25102SOL    HW287031   4.625   0.882   6.772 -0.2926  1.4236 -2.6742
25103SOL     OW87032   3.587   3.364   2.621  0.0218 -0.6747  0.0889
25103SOL    HW187033   3.681   3.352   2.603 -0.1941 -0.8324 -0.9917
25103SOL    HW287034   3.571   3.311   2.698  1.0381  0.1738  0.9234
25104SOL     OW87035  10.169   6.573   5.044 -0.0988  0.5437 -0.1563
25104SOL    HW187036  10.154   6.495   5.097  0.6557  0.0237 -0.6731
25104SOL    HW287037  10.262   6.592   5.054  0.0735  0.4019 -1.3167
25105SOL     OW87038   6.336   5.020   6.355  0.0168 -0.2124 -0.2883
25105SOL    HW187039   6.291   4.962   6.294  1.7467 -0.6091 -1.2709
25105SOL    HW287040   6.420   5.039   6.312  0.3015  1.4455  0.9000
25106SOL     OW87041   6.787   1.355   7.873  0.0853  0.0644 -0.0152
25106SOL    HW187042   6.778   1.260   7.871 -0.9223  0.1512 -1.3927
25106SOL    HW287043   6.767   1.380   7.963  0.1080 -1.0061  0.2946
25107SOL     OW87044  10.796   6.112   4.606  1.0294 -0.0763 -0.5413
25107SOL    HW187045  10.824   6.167   4.679  0.1399 -0.2102 -0.0860
25107SOL    HW287046  10.842   6.029   4.619  1.9683  0.3635 -0.9394
25108SOL     OW87047   5.954  10.069   3.022 -0.1973  0.3375 -0.2980
25108SOL    HW187048   6.017   9.997   3.016 -1.7267 -1.0376 -0.3372
25108SOL    HW287049   5.884  10.045   2.962 -1.5458  1.0341  0.9354
25109SOL     OW87050   9.481   5.039   0.327 -0.3149 -0.3647 -0.3626
25109SOL    HW187051   9.562   4.989   0.338 -0.1355 -0.3530 -1.5204
25109SOL    HW287052   9.426   4.984   0.271 -0.3031  0.4926 -1.2565
25110SOL     OW87053   1.975   4.340   6.771 -0.2139  0.1789 -0.2360
25110SOL    HW187054   1.915   4.374   6.837 -0.6373 -1.7487  0.4307
25110SOL    HW287055   1.942   4.253   6.750  2.0962 -0.8090 -0.1425
25111SOL     OW87056   8.984   6.875   1.704  0.2217 -0.2800  0.4674
25111SOL    HW187057   9.029   6.798   1.669  0.5083 -0.1503  0.5458
25111SOL    HW287058   8.957   6.849   1.792  1.1376  0.0133  0.8521
25112SOL     OW87059   3.971  11.113   5.444  0.6898 -0.3045  0.5101
25112SOL    HW187060   3.954  11.207   5.431 -0.7452 -0.2830  2.2134
25112SOL    HW287061   3.911  11.070   5.383  0.4393 -0.1191  0.6221
25113SOL     OW87062   2.101  10.480  10.614  0.0963 -0.1631 -0.4394
25113SOL    HW187063   2.176  10.535  10.639 -0.2059 -0.7164  1.9159
25113SOL    HW287064   2.139  10.406  10.568  0.9257 -0.0300  0.0223
25114SOL     OW87065   2.804   5.732   5.012  0.0391  0.6204  0.5836
25114SOL    HW187066   2.877   5.755   4.955 -0.0099 -0.0282  0.2560
25114SOL    HW287067   2.813   5.792   5.087  0.3931  1.1313  0.1405
25115SOL     OW87068   6.438   5.823   7.494 -0.1680  0.4675 -0.2945
25115SOL    HW187069   6.422   5.853   7.405  1.8833 -2.0461 -1.6514
25115SOL    HW287070   6.494   5.890   7.533  1.5257  0.1349 -2.0426
25116SOL     OW87071   6.044   2.871   9.675  0.5762  0.6880 -0.1940
25116SOL    HW187072   5.998   2.950   9.649 -0.9188 -0.5213 -1.3734
25116SOL    HW287073   6.134   2.885   9.645  0.0809  1.4737 -1.3913
25117SOL     OW87074   8.361   1.058  10.560 -0.2976 -0.2101 -0.3797
25117SOL    HW187075   8.294   1.126  10.554 -0.4850 -0.4062 -0.5407
25117SOL    HW287076   8.410   1.067  10.478  0.4763  0.5518  0.1496
25118SOL     OW87077   0.028   4.653   0.189  0.7028 -0.3045 -0.2447
25118SOL    HW187078   0.060   4.619   0.272  0.3556  0.2756  0.1405
25118SOL    HW287079   0.069   4.740   0.182 -1.3024  0.7817  0.6322
25119SOL     OW87080   7.700  11.431  10.378 -0.2090 -0.1784  0.0490
25119SOL    HW187081   7.662  11.452  10.293 -0.5708 -1.0203 -0.0041
25119SOL    HW287082   7.628  11.438  10.440 -0.4651 -1.6440 -0.0328
25120SOL     OW87083  10.055   5.116   2.196  0.0185  0.4535 -0.0884
25120SOL    HW187084  10.009   5.046   2.242  0.0595  0.0437 -0.6611
25120SOL    HW287085  10.145   5.110   2.228  0.0431  0.1838 -0.2078
25121SOL     OW87086   2.062   1.355   3.294 -0.1816  0.1088  0.1970
25121SOL    HW187087   2.005   1.286   3.328 -0.4975  0.1899 -0.1672
25121SOL    HW287088   2.151   1.320   3.306 -0.3310 -0.2861  0.1810
25122SOL     OW87089   1.188   5.769   0.369 -0.2471  0.2527 -0.4306
25122SOL    HW187090   1.178   5.856   0.331 -0.6393  0.2756 -0.2836
25122SOL    HW287091   1.185   5.710   0.295  1.2356  0.4303 -0.6640
25123SOL     OW87092   7.107   5.979   8.740  0.1659 -0.3952 -0.3591
25123SOL    HW187093   7.129   6.061   8.784 -2.7205  0.8483 -1.0007
25123SOL    HW287094   7.018   5.992   8.707 -0.2252 -3.6222 -0.9490
25124SOL     OW87095   3.340   6.578   7.935  0.1005 -0.4345 -0.8116
25124SOL    HW187096   3.314   6.541   7.851 -1.3521 -1.4153  0.0240
25124SOL    HW287097   3.368   6.502   7.987 -0.1038  0.0111 -0.0404
25125SOL     OW87098   8.505  11.535   0.292 -0.4183 -0.7074  0.4695
25125SOL    HW187099   8.543  11.448   0.281 -0.5720 -0.5600 -1.5487
25125SOL    HW287100   8.576  11.596   0.272 -0.1373 -0.3212  2.4711
25126SOL     OW87101   8.560   6.508   8.082 -0.6152 -0.8261 -0.1145
25126SOL    HW187102   8.593   6.487   8.170 -0.0023 -0.7382 -0.3228
25126SOL    HW287103   8.513   6.430   8.055  0.4622 -1.4312 -0.3070
25127SOL     OW87104   3.708   9.673  10.217 -0.2639 -0.0294 -0.4028
25127SOL    HW187105   3.774   9.625  10.267 -0.3940  0.5196  0.3301
25127SOL    HW287106   3.745   9.682  10.130  0.2252 -0.5306 -0.2498
25128SOL     OW87107   6.133   0.675   9.100  0.2541 -0.1345 -0.0330
25128SOL    HW187108   6.074   0.694   9.173 -1.1106 -0.3678 -1.0241
25128SOL    HW287109   6.170   0.589   9.120 -0.2730 -0.2905  0.2949
25129SOL     OW87110   2.109   1.305   6.125  0.4081 -0.2392  0.4120
25129SOL    HW187111   2.084   1.364   6.197  0.8973  0.3847  0.0829
25129SOL    HW287112   2.156   1.234   6.168  1.2108  0.4209  0.6729
25130SOL     OW87113   6.183   8.885   4.813 -0.0874  0.1889 -0.7206
25130SOL    HW187114   6.269   8.919   4.787 -0.3514  0.5875 -1.0750
25130SOL    HW287115   6.136   8.961   4.846 -1.0345  0.3870 -2.4227
25131SOL     OW87116   6.671   0.059  10.597 -0.4400 -0.1048 -0.1336
25131SOL    HW187117   6.630  -0.027  10.589 -0.8339 -0.0906  1.4017
25131SOL    HW287118   6.603   0.115  10.635 -0.3573  1.0319 -1.5778
25132SOL     OW87119  10.365   4.572  11.930  0.0378 -0.4037 -0.2634
25132SOL    HW187120  10.460   4.585  11.932 -0.1893  1.4094  1.2604
25132SOL    HW287121  10.332   4.646  11.880 -0.7407  0.6253  1.6688
25133SOL     OW87122   9.591  10.330   5.669 -0.2148  0.2331  0.0107
25133SOL    HW187123   9.550  10.273   5.734 -0.3850  0.9230  0.5278
25133SOL    HW287124   9.518  10.376   5.628 -0.0030  1.0149  0.5001
25134SOL     OW87125   3.183   2.809   8.261 -0.3906 -0.5762 -0.1053
25134SOL    HW187126   3.115   2.822   8.195 -1.3506 -2.8484  0.3257
25134SOL    HW287127   3.161   2.725   8.301  1.3825 -0.2753  1.6533
25135SOL     OW87128  10.141   7.858   9.576  0.1222 -0.0130  0.0138
25135SOL    HW187129  10.218   7.836   9.524 -0.5033 -3.2392  0.2702
25135SOL    HW287130  10.076   7.887   9.512  0.6841  0.1392 -0.4976
25136SOL     OW87131   0.904   3.254   0.996 -0.0468 -0.0737 -0.5015
25136SOL    HW187132   0.889   3.349   1.003  2.3709  0.3499 -0.0737
25136SOL    HW287133   0.826   3.214   1.033 -1.1771  1.7492 -0.7978
25137SOL     OW87134   6.510   6.866   6.534  0.1065  0.2468 -0.2871
25137SOL    HW187135   6.436   6.835   6.484  0.5627 -0.1339 -0.7347
25137SOL    HW287136   6.587   6.838   6.485  0.5539  0.5340  0.2238
25138SOL     OW87137   3.961   8.050   9.656 -0.1410 -0.3439 -0.2682
25138SOL    HW187138   3.907   7.999   9.717  0.7085  0.8423  1.5831
25138SOL    HW287139   3.899   8.091   9.597 -1.1296 -0.5162  0.6181
25139SOL     OW87140   7.913   1.117   0.088 -0.0737 -0.2431  0.1936
25139SOL    HW187141   7.922   1.206   0.122 -0.6045  0.6258 -1.7792
25139SOL    HW287142   7.818   1.106   0.076 -0.0315 -1.1797  0.6724
25140SOL     OW87143  10.467   7.850   8.029  0.0506  0.2097  0.3785
25140SOL    HW187144  10.381   7.885   8.053  0.4009  0.6312  1.0351
25140SOL    HW287145  10.449   7.760   8.001 -0.5529  0.1501  0.9356
25141SOL     OW87146   5.538  10.767  10.118  0.4880 -0.3792 -0.0091
25141SOL    HW187147   5.562  10.838  10.059 -1.2723 -1.5872 -2.3885
25141SOL    HW287148   5.565  10.687  10.072 -2.0302 -1.4303  0.1487
25142SOL     OW87149  11.074   7.920   6.212  0.2490 -0.2433 -0.2280
25142SOL    HW187150  11.077   7.949   6.303 -3.4710 -0.8131  0.2250
25142SOL    HW287151  11.115   7.834   6.212  1.1402  0.1589  0.6559
25143SOL     OW87152   1.353   0.693   5.496 -0.2592  0.0229 -0.0714
25143SOL    HW187153   1.321   0.682   5.407  1.5284 -1.4975 -0.5912
25143SOL    HW287154   1.356   0.788   5.509 -0.9859  0.2589 -1.4552
25144SOL     OW87155  10.737  11.409   5.567  0.0081 -0.0745  0.1611
25144SOL    HW187156  10.712  11.355   5.492 -0.8337 -0.6895  0.8537
25144SOL    HW287157  10.669  11.476   5.573  1.1157  1.1776 -0.7665
25145SOL     OW87158   1.189   4.129   5.911 -0.3665 -0.3375  0.2824
25145SOL    HW187159   1.225   4.043   5.932  2.7226  0.7844  0.1447
25145SOL    HW287160   1.204   4.138   5.817  1.0877  1.0088  0.6016
25146SOL     OW87161   0.549   6.714   7.029 -0.3395 -0.0648  0.1629
25146SOL    HW187162   0.495   6.777   7.076 -1.2753  1.5093 -2.7452
25146SOL    HW287163   0.595   6.766   6.964  1.8967 -1.9131  0.1533
25147SOL     OW87164   6.896   7.324   8.418  0.1550  0.1183  0.0838
25147SOL    HW187165   6.872   7.251   8.475  1.1453 -0.1861  0.1333
25147SOL    HW287166   6.880   7.402   8.470 -2.2996  0.0520 -0.4701
25148SOL     OW87167   1.278   1.651   8.771 -0.0915  0.0517 -0.5308
25148SOL    HW187168   1.271   1.556   8.760 -2.0505  0.0779  0.0137
25148SOL    HW287169   1.218   1.687   8.706 -1.6994  0.7466  1.2297
25149SOL     OW87170   9.816   9.696   9.436 -0.6161  0.1624 -0.1185
25149SOL    HW187171   9.852   9.778   9.471  1.0560 -1.0017  1.0673
25149SOL    HW287172   9.888   9.660   9.384 -0.6490 -1.4049  0.8782
25150SOL     OW87173   3.079   7.600   1.608  0.0468 -0.0797  0.1834
25150SOL    HW187174   3.161   7.632   1.646 -0.7356  1.7439  0.4090
25150SOL    HW287175   3.098   7.590   1.515  0.8427 -0.7999  0.4112
25151SOL     OW87176   5.459  11.276   9.562  0.0684  0.0809 -0.0223
25151SOL    HW187177   5.425  11.266   9.473 -1.4028 -1.0412  0.6226
25151SOL    HW287178   5.473  11.370   9.573 -0.7579  0.3389 -1.0738
25152SOL     OW87179  10.234   3.024   4.024  0.0638 -0.2063  0.2094
25152SOL    HW187180  10.328   3.042   4.023 -0.0874  0.6256  0.4213
25152SOL    HW287181  10.194   3.105   4.054 -0.7654 -0.3703 -0.4155
25153SOL     OW87182   1.343   1.240   1.383  0.0269 -0.1735 -0.0870
25153SOL    HW187183   1.380   1.245   1.295 -1.2255 -1.2544 -0.7144
25153SOL    HW287184   1.385   1.311   1.431 -0.2294  1.2817 -1.9241
25154SOL     OW87185   7.199  10.891   7.144  0.1484 -0.3946  0.1797
25154SOL    HW187186   7.141  10.950   7.096  0.2165 -0.2955  0.2172
25154SOL    HW287187   7.162  10.804   7.130  0.1599 -0.3646 -0.0375
25155SOL     OW87188   4.660   9.479   2.954 -0.4257  0.0459 -0.3904
25155SOL    HW187189   4.655   9.456   3.047 -0.1430  0.5870 -0.2337
25155SOL    HW287190   4.717   9.556   2.952 -0.5378  0.1159 -0.9996
25156SOL     OW87191   1.624   5.328   8.065 -0.1752  0.0634  0.4958
25156SOL    HW187192   1.615   5.342   7.971 -0.7507  2.0918  0.7922
25156SOL    HW287193   1.536   5.342   8.099  0.0739 -0.4218  1.3650
25157SOL     OW87194   1.038  11.910   6.941 -0.2857 -0.3457  0.0994
25157SOL    HW187195   1.090  11.830   6.934  0.9093  0.4725 -0.6141
25157SOL    HW287196   1.026  11.938   6.851  0.4444  0.9957  0.4011
25158SOL     OW87197   2.838   9.901   7.674  0.2180  0.3836  0.1768
25158SOL    HW187198   2.752   9.885   7.637 -0.4507  1.4480  1.1908
25158SOL    HW287199   2.897   9.907   7.599 -0.4042 -1.3004 -0.4757
25159SOL     OW87200   9.258   1.722   5.253 -0.0322 -0.2577  0.5027
25159SOL    HW187201   9.168   1.734   5.224  0.0951  1.7997  0.8444
25159SOL    HW287202   9.311   1.759   5.184  0.4939 -0.1923  0.9343
25160SOL     OW87203   9.593   7.802   6.804  0.5131  0.2576 -0.2265
25160SOL    HW187204   9.635   7.820   6.888 -0.0559  0.2875  0.0606
25160SOL    HW287205   9.626   7.716   6.779  0.2404 -0.0202  0.3245
25161SOL     OW87206  11.254   4.800   0.445 -0.3959 -0.3331 -0.0943
25161SOL    HW187207  11.339   4.841   0.463 -0.6309 -0.7517  2.2992
25161SOL    HW287208  11.277   4.712   0.413  0.1463 -0.9912  1.9393
25162SOL     OW87209  11.538   2.143   0.056 -0.1320  0.5806 -0.3334
25162SOL    HW187210  11.480   2.111   0.126  0.5925  0.8103  0.3908
25162SOL    HW287211  11.512   2.235   0.045 -0.0939  0.6080 -0.2002
25163SOL     OW87212   6.583   8.269   4.544 -0.1193 -0.2027 -0.3170
25163SOL    HW187213   6.571   8.183   4.504 -0.6465 -0.6304  0.7001
25163SOL    HW287214   6.643   8.315   4.486 -1.7094 -0.3561 -2.2052
25164SOL     OW87215   1.329   5.119   2.906 -0.6430 -0.0698 -1.1478
25164SOL    HW187216   1.249   5.149   2.950  0.8539  1.9150  0.4384
25164SOL    HW287217   1.335   5.174   2.828 -0.0397  0.9197 -0.4235
25165SOL     OW87218   1.842   6.241   8.322 -0.3483  0.7286  0.1210
25165SOL    HW187219   1.822   6.304   8.391  0.0472  1.2197 -0.2097
25165SOL    HW287220   1.915   6.280   8.273  0.7129 -0.5334  0.6469
25166SOL     OW87221   2.591   9.861   0.044  0.1048 -0.2519 -0.0648
25166SOL    HW187222   2.631   9.811   0.115  1.1241 -1.1565 -1.2273
25166SOL    HW287223   2.498   9.841   0.050  0.1457 -0.1690  1.1086
25167SOL     OW87224   9.532  10.707   7.277  0.0431  0.1755  0.1342
25167SOL    HW187225   9.449  10.711   7.229 -0.5794  0.0797  1.1693
25167SOL    HW287226   9.579  10.786   7.250 -1.8947  2.1872  2.1278
25168SOL     OW87227   6.753   7.434  10.951  0.1784  0.3539  0.2013
25168SOL    HW187228   6.735   7.491  11.026 -0.0052  2.2845 -1.2251
25168SOL    HW287229   6.843   7.406  10.963  0.8047  2.2139  0.2174
25169SOL     OW87230  10.875   8.383   1.475  0.9172  0.8163 -0.8773
25169SOL    HW187231  10.920   8.325   1.536 -0.0875  0.1050 -0.7848
25169SOL    HW287232  10.827   8.445   1.530 -1.3014 -0.8178 -0.8240
25170SOL     OW87233   9.920   6.068   9.009 -0.3125  0.0416 -0.4663
25170SOL    HW187234   9.895   6.035   8.923 -1.4760  0.2724 -0.2216
25170SOL    HW287235   9.865   6.021   9.071 -0.3847  0.7868  0.0557
25171SOL     OW87236   4.388   1.006  10.589 -0.4614  0.2464 -0.0933
25171SOL    HW187237   4.391   0.957  10.507  0.5164 -1.5188  0.9206
25171SOL    HW287238   4.405   1.097  10.564  0.7074 -0.3823 -1.7476
25172SOL     OW87239   2.245   7.569   2.869 -0.4257 -0.0296  0.1414
25172SOL    HW187240   2.151   7.555   2.858 -0.3630 -2.1478  1.6802
25172SOL    HW287241   2.267   7.525   2.951  1.7988  1.0908  0.2445
25173SOL     OW87242   8.401  11.386   1.853 -0.1995 -0.0686 -0.5868
25173SOL    HW187243   8.355  11.467   1.829 -0.8796 -0.5114 -0.7867
25173SOL    HW287244   8.404  11.388   1.949  0.3329  0.4888 -0.6071
25174SOL     OW87245   4.258   3.687   5.592 -0.4319 -0.0693  0.4227
25174SOL    HW187246   4.219   3.744   5.526 -2.0592 -0.7540  0.7229
25174SOL    HW287247   4.352   3.699   5.583 -0.6960  2.6069  0.4311
25175SOL     OW87248   6.061   5.167  11.877  0.5024  0.5274  0.4642
25175SOL    HW187249   6.059   5.193  11.969  1.0426  1.7524  0.1424
25175SOL    HW287250   5.975   5.194  11.842 -0.7173 -2.1044  1.1231
25176SOL     OW87251  10.490   6.194   0.446 -0.0119  0.6319  0.4686
25176SOL    HW187252  10.398   6.182   0.425 -0.3088  2.2061  0.7152
25176SOL    HW287253  10.490   6.227   0.536  0.7012  1.4735  0.1825
25177SOL     OW87254   6.383   8.316   9.285  0.0445  0.5749  0.3193
25177SOL    HW187255   6.428   8.252   9.229  0.1790  0.5390  0.4696
25177SOL    HW287256   6.375   8.394   9.230 -0.5184  0.2871 -0.0241
25178SOL     OW87257   0.908   8.039   6.773 -0.2345  0.6553 -0.1820
25178SOL    HW187258   0.947   8.126   6.787 -2.4254  1.7682 -0.5898
25178SOL    HW287259   0.823   8.043   6.816 -0.0250 -1.6610  0.6102
25179SOL     OW87260   7.376   0.386   0.174 -0.0517 -0.5782 -0.2641
25179SOL    HW187261   7.436   0.428   0.113 -1.2060  0.5213 -0.6943
25179SOL    HW287262   7.304   0.449   0.183 -0.3323 -1.1115  1.5445
25180SOL     OW87263  11.631   1.857   4.372  0.2755  0.5154  0.0692
25180SOL    HW187264  11.702   1.904   4.328  0.6162  0.4849  0.5752
25180SOL    HW287265  11.640   1.767   4.342 -1.4188  1.0219 -2.2455
25181SOL     OW87266   5.799   7.817   6.468  0.0845  0.1040  0.5643
25181SOL    HW187267   5.753   7.748   6.420 -2.0075  0.8866  1.3574
25181SOL    HW287268   5.857   7.769   6.527 -0.1226 -0.9327 -0.0351
25182SOL     OW87269  11.331   2.458  10.932 -0.2922 -0.1289 -0.3171
25182SOL    HW187270  11.419   2.476  10.900 -0.1466 -1.2501 -0.6016
25182SOL    HW287271  11.331   2.364  10.952 -1.9065 -0.5305 -1.9438
25183SOL     OW87272   9.856   4.545  11.054  0.1386 -0.6746  0.3429
25183SOL    HW187273   9.906   4.626  11.068 -0.8989 -0.4071  3.2322
25183SOL    HW287274   9.786   4.570  10.994 -0.0935  0.5719  1.1005
25184SOL     OW87275   2.482   7.601   8.453  0.2682 -0.1352 -0.0820
25184SOL    HW187276   2.544   7.639   8.391  0.1786 -1.1419 -0.8245
25184SOL    HW287277   2.401   7.590   8.403 -0.2141  0.2632  0.5961
25185SOL     OW87278   6.361   3.592  10.779 -0.1908  0.6372 -0.3564
25185SOL    HW187279   6.428   3.619  10.717 -0.2980  3.5004  0.6342
25185SOL    HW287280   6.408   3.538  10.843  0.3696 -0.4290 -1.6178
25186SOL     OW87281   0.777   0.659   0.591 -0.5596  0.0726  0.0834
25186SOL    HW187282   0.859   0.622   0.557 -0.9608 -0.0861 -0.7197
25186SOL    HW287283   0.800   0.688   0.679  0.1001 -0.9043  0.2536
25187SOL     OW87284   2.223   3.210  11.086 -0.0038 -0.1144  0.0302
25187SOL    HW187285   2.229   3.244  10.997  0.5024 -1.3713 -0.4302
25187SOL    HW287286   2.187   3.283  11.137 -4.3879 -0.6273 -1.9076
25188SOL     OW87287   9.788   1.950   6.418  0.8126  0.0922  0.1316
25188SOL    HW187288   9.867   1.988   6.458  1.3057  0.3899 -1.0661
25188SOL    HW287289   9.820   1.874   6.370  0.4259  0.3926 -0.6138
25189SOL     OW87290   2.355   9.432   4.794  0.3030 -0.6252 -0.8171
25189SOL    HW187291   2.328   9.514   4.753  0.6666  0.3077  0.7657
25189SOL    HW287292   2.274   9.396   4.830  0.7812  1.8753  3.3918
25190SOL     OW87293   6.193   8.407  11.791  0.2007  0.1051 -0.1902
25190SOL    HW187294   6.251   8.368  11.725 -0.5552 -2.7059  0.6847
25190SOL    HW287295   6.251   8.427  11.864  0.2199 -2.5003  0.5980
25191SOL     OW87296   3.950   0.137   6.841 -1.0493  0.1513 -0.1056
25191SOL    HW187297   3.958   0.196   6.915 -0.3392 -0.3408  0.2216
25191SOL    HW287298   3.857   0.140   6.818 -1.2431  0.4539  0.6796
25192SOL     OW87299   1.926   8.686   6.326  0.3943  0.1283  0.2586
25192SOL    HW187300   1.858   8.651   6.269 -0.8509  0.8254  1.2624
25192SOL    HW287301   1.945   8.773   6.291 -0.3692  0.5559  0.8953
25193SOL     OW87302   6.205   5.266  10.733 -0.2753  0.2440 -0.5445
25193SOL    HW187303   6.235   5.176  10.751  1.8411  0.7888 -1.0066
25193SOL    HW287304   6.213   5.311  10.817  0.4405  0.4245 -0.6972
25194SOL     OW87305   5.871   6.242  10.898 -0.2163 -0.7997  0.1554
25194SOL    HW187306   5.961   6.222  10.921 -0.0188  0.1764  0.2624
25194SOL    HW287307   5.855   6.329  10.933 -1.1343 -0.8651 -0.0507
25195SOL     OW87308   8.246   0.411   5.304 -0.2762  0.2201 -0.3609
25195SOL    HW187309   8.156   0.381   5.289 -0.1491 -0.3075 -0.1153
25195SOL    HW287310   8.279   0.433   5.217 -0.7905  0.8470 -0.3998
25196SOL     OW87311   9.109   8.513  10.235  0.4855  0.2795  0.1590
25196SOL    HW187312   9.172   8.583  10.215  1.3638 -0.8069 -1.0933
25196SOL    HW287313   9.093   8.471  10.151 -2.0819  0.5811  0.4066
25197SOL     OW87314   3.781   7.335   7.551  0.0353  0.0363 -0.5484
25197SOL    HW187315   3.874   7.336   7.570  0.0431 -1.0567 -0.4599
25197SOL    HW287316   3.763   7.244   7.525 -1.3335 -0.2156  1.1281
25198SOL     OW87317   4.048   0.198  10.653 -0.4649  0.7557 -0.3808
25198SOL    HW187318   4.133   0.170  10.618 -0.8301 -1.6050  0.4804
25198SOL    HW287319   4.055   0.184  10.747 -1.4718  1.5818 -0.1645
25199SOL     OW87320   2.480   1.985   3.460  0.0509 -0.2724  0.2456
25199SOL    HW187321   2.417   1.915   3.474  0.6440 -0.5766  1.5048
25199SOL    HW287322   2.565   1.945   3.476  0.3174  1.2217  3.5101
25200SOL     OW87323   7.986   3.412   4.281 -0.1185  0.4207  0.8563
25200SOL    HW187324   7.965   3.362   4.202 -1.0342  1.4850  0.3882
25200SOL    HW287325   7.939   3.367   4.352  1.4689 -1.0876  0.9867
25201SOL     OW87326  10.920   9.253   3.806 -0.6133 -0.6086  0.0361
25201SOL    HW187327  10.974   9.177   3.789  0.2311  0.2899 -1.5082
25201SOL    HW287328  10.921   9.263   3.902  0.3937 -1.6978  0.1563
25202SOL     OW87329   2.003   4.787   7.132 -0.1636 -0.0514  0.3458
25202SOL    HW187330   1.999   4.835   7.049  0.0699 -2.2868 -1.0287
25202SOL    HW287331   1.992   4.855   7.199  0.6990  1.9813 -1.4424
25203SOL     OW87332   3.143   5.332   5.972  0.1713 -0.0955  0.5278
25203SOL    HW187333   3.126   5.300   6.060  0.7410 -0.0902  0.6480
25203SOL    HW287334   3.067   5.385   5.950  0.5029  0.8011  1.4452
25204SOL     OW87335  10.251   2.527   5.732  0.3564  0.4746 -0.0662
25204SOL    HW187336  10.308   2.513   5.657 -1.1770 -0.4926 -1.1109
25204SOL    HW287337  10.290   2.473   5.802  1.1276  0.4337 -0.5216
25205SOL     OW87338   5.410   3.602   6.648  0.3376  0.5327 -0.2876
25205SOL    HW187339   5.369   3.515   6.653 -0.1760  0.7382 -0.8390
25205SOL    HW287340   5.350   3.653   6.594 -0.3577  1.7809  1.5605
25206SOL     OW87341   6.373   6.544  10.047 -0.0143  0.0367  0.4212
25206SOL    HW187342   6.362   6.501  10.131  0.8575  0.7958  0.9440
25206SOL    HW287343   6.440   6.493  10.002 -1.8186 -1.5059 -0.6292
25207SOL     OW87344  11.680  11.365   6.519 -0.1870 -0.2479  0.0599
25207SOL    HW187345  11.704  11.282   6.559 -2.8574 -0.3949  1.6305
25207SOL    HW287346  11.761  11.397   6.479  0.8469 -3.7993 -1.1125
25208SOL     OW87347   0.777   1.896   3.221  0.2479  0.2535 -0.0250
25208SOL    HW187348   0.689   1.934   3.217  0.4551  0.6774 -0.7332
25208SOL    HW287349   0.780   1.835   3.147  0.1447 -0.6682  0.7182
25209SOL     OW87350   3.765  11.368   8.095 -0.2069  0.3672 -0.2743
25209SOL    HW187351   3.683  11.417   8.093  0.4947  1.6641  0.8879
25209SOL    HW287352   3.821  11.411   8.030 -0.4641 -0.5827 -1.1451
25210SOL     OW87353   6.099   3.623   0.556 -0.3389  0.4862  0.5185
25210SOL    HW187354   6.149   3.655   0.631 -2.2204  1.7510  1.2940
25210SOL    HW287355   6.052   3.546   0.589  1.0986 -0.8051 -0.2572
25211SOL     OW87356   9.374   9.475   5.197  0.6022 -0.1641 -0.1106
25211SOL    HW187357   9.402   9.483   5.289 -0.3167 -1.4323  0.3169
25211SOL    HW287358   9.329   9.558   5.178 -0.5313 -0.4507  1.1058
25212SOL     OW87359  11.124   0.591  10.650  0.0639 -0.0735  0.1434
25212SOL    HW187360  11.161   0.531  10.586 -0.2191 -0.5320  0.3909
25212SOL    HW287361  11.068   0.535  10.705  0.3640  0.2887  0.8343
25213SOL     OW87362   0.721   8.625   8.872  0.0064  0.4504 -0.0816
25213SOL    HW187363   0.663   8.680   8.819  0.1031  0.5661 -0.0668
25213SOL    HW287364   0.809   8.645   8.841 -0.0191 -0.3295 -0.6636
25214SOL     OW87365   2.730   5.268   6.807  1.2920 -0.2404  0.1669
25214SOL    HW187366   2.695   5.187   6.769 -0.5330  0.4805  0.2245
25214SOL    HW287367   2.808   5.287   6.754  1.5334 -1.7957 -0.1068
25215SOL     OW87368   9.073   7.207   6.998  0.1354 -0.3395  0.5112
25215SOL    HW187369   9.029   7.127   6.970  0.7336 -1.3365  2.2479
25215SOL    HW287370   9.012   7.249   7.058  0.2749 -0.0804  0.4750
25216SOL     OW87371   7.289   3.019  10.082 -0.1415 -0.3428 -0.4533
25216SOL    HW187372   7.215   2.986  10.031 -1.3044  1.1828  0.1639
25216SOL    HW287373   7.251   3.043  10.167  1.0555  0.5007 -0.1310
25217SOL     OW87374   3.207   4.656   3.628  0.1981 -0.3542 -0.2917
25217SOL    HW187375   3.246   4.723   3.684  0.9371 -1.4663  0.5654
25217SOL    HW287376   3.115   4.683   3.620  0.5089  0.8332 -0.1114
25218SOL     OW87377   2.420  11.318  11.554 -0.1446  0.2211  0.2399
25218SOL    HW187378   2.414  11.252  11.623 -0.3932  0.1058  0.1130
25218SOL    HW287379   2.458  11.271  11.479 -1.9965 -0.3022 -0.4527
25219SOL     OW87380   8.774   5.972   9.284 -0.3511  0.1770  0.2296
25219SOL    HW187381   8.850   5.968   9.342 -0.8278  1.5286  0.9983
25219SOL    HW287382   8.807   5.942   9.199  0.7975 -0.1743  0.7855
25220SOL     OW87383   0.511  10.645   9.511  0.0565 -0.1081 -0.7562
25220SOL    HW187384   0.525  10.739   9.519  1.1178 -0.3405  0.4822
25220SOL    HW287385   0.584  10.615   9.456  0.3443 -0.3391 -0.2577
25221SOL     OW87386   5.486  10.317   7.782 -0.3607 -0.0159 -0.6449
25221SOL    HW187387   5.470  10.223   7.771  2.4303 -0.4222 -2.3057
25221SOL    HW287388   5.494  10.350   7.693 -1.5691  1.8863 -0.0853
25222SOL     OW87389   4.968   9.203   7.205  0.2975  0.1959 -0.6544
25222SOL    HW187390   5.014   9.268   7.152  1.3475  0.5534  0.6304
25222SOL    HW287391   4.888   9.247   7.234 -0.1557  0.0863 -1.6847
25223SOL     OW87392  10.826   9.035   5.296  0.7534 -0.2787  0.4215
25223SOL    HW187393  10.856   9.100   5.233  0.8465 -0.7674 -0.0519
25223SOL    HW287394  10.762   9.081   5.349  0.6182  0.1275 -0.0813
25224SOL     OW87395   5.739   6.524   6.517  0.3522  0.3320 -0.2954
25224SOL    HW187396   5.662   6.551   6.466  1.0710  0.5599 -1.2880
25224SOL    HW287397   5.713   6.442   6.558  0.1022 -0.4605 -1.9395
25225SOL     OW87398   0.512   1.565  11.356  0.4102 -0.2867 -0.8876
25225SOL    HW187399   0.422   1.589  11.378  0.6510 -1.7278  2.1794
25225SOL    HW287400   0.566   1.633  11.398  0.8147 -2.0646  1.7419
25226SOL     OW87401   2.608   6.636   6.797 -0.2068 -0.1342  0.9333
25226SOL    HW187402   2.659   6.622   6.717 -1.2190  0.1313  0.2162
25226SOL    HW287403   2.612   6.731   6.812  0.4362 -0.2517  1.5125
25227SOL     OW87404   4.209   8.964   2.211 -0.0112  0.3856 -0.3890
25227SOL    HW187405   4.173   9.017   2.282 -0.8798  0.1571 -0.6437
25227SOL    HW287406   4.137   8.955   2.149  0.9002  1.0369 -1.5814
25228SOL     OW87407   5.285   3.884   5.826  0.0585  0.1506  0.2389
25228SOL    HW187408   5.332   3.811   5.866  0.0877 -0.4009 -0.7473
25228SOL    HW287409   5.313   3.961   5.874  0.3592 -0.4394  1.0225
25229SOL     OW87410   9.381   1.333  11.955 -0.6774 -0.0824 -0.7081
25229SOL    HW187411   9.425   1.300  12.033  0.2187 -2.3656 -2.0758
25229SOL    HW287412   9.355   1.422  11.978 -1.5874 -1.0341  2.6370
25230SOL     OW87413   9.647   1.390   1.821 -0.0814 -0.0179 -0.3399
25230SOL    HW187414   9.624   1.483   1.825  1.9005  0.5478 -0.6342
25230SOL    HW287415   9.719   1.387   1.758 -0.2878 -1.8067 -0.5207
25231SOL     OW87416   5.620   6.922   9.037 -0.3595  0.3558  0.8205
25231SOL    HW187417   5.631   6.840   8.989 -1.3898  0.9275 -0.4314
25231SOL    HW287418   5.696   6.974   9.013 -0.1077  0.0761  0.9982
25232SOL     OW87419   0.268   3.614   0.223 -0.3912  0.4220  0.1442
25232SOL    HW187420   0.328   3.539   0.231  0.9734  1.4727  0.1452
25232SOL    HW287421   0.276   3.660   0.306 -3.2774 -0.8203  1.2345
25233SOL     OW87422   6.969   7.470   5.239  0.0425  0.2068 -0.3251
25233SOL    HW187423   6.957   7.376   5.248 -0.3908  0.4501  2.7836
25233SOL    HW287424   6.891   7.509   5.280  0.6876  1.8995 -0.6049
25234SOL     OW87425  10.301   9.819   5.527  0.3303  0.0739 -0.5333
25234SOL    HW187426  10.274   9.906   5.557 -0.8253 -0.2507 -0.5656
25234SOL    HW287427  10.373   9.795   5.585 -0.7205  0.1783  0.8954
25235SOL     OW87428   8.293   2.365   4.172  0.7618 -0.3202  0.8501
25235SOL    HW187429   8.228   2.296   4.187 -0.7233  0.2892 -2.0990
25235SOL    HW287430   8.374   2.317   4.150 -0.2032 -1.2152 -1.0058
25236SOL     OW87431  10.835   6.088  11.340  0.1039  0.6077  0.1871
25236SOL    HW187432  10.831   6.168  11.392  0.5745  1.8105 -1.5498
25236SOL    HW287433  10.757   6.090  11.285  0.4021  0.1556 -0.2699
25237SOL     OW87434   1.056   8.816   8.180 -0.1491 -0.0847  0.8207
25237SOL    HW187435   1.129   8.757   8.162 -0.7379 -0.5385 -0.1462
25237SOL    HW287436   1.092   8.904   8.169 -0.3464 -0.2975 -2.3643
25238SOL     OW87437   3.552  11.273   5.744 -0.3775  0.3795 -0.3998
25238SOL    HW187438   3.490  11.265   5.672 -0.2460  2.3099 -0.7964
25238SOL    HW287439   3.625  11.216   5.720  0.1846  1.8484 -2.4443
25239SOL     OW87440  10.820  10.544   7.972  0.1933  0.1805  0.0885
25239SOL    HW187441  10.788  10.456   7.952  0.9263 -0.9772  3.4445
25239SOL    HW287442  10.890  10.559   7.909  0.7257 -2.0785  0.0676
25240SOL     OW87443   3.894   5.179  11.127  0.4616 -0.0139  0.2775
25240SOL    HW187444   3.884   5.202  11.219 -0.7040  0.8830 -0.0485
25240SOL    HW287445   3.887   5.084  11.125  0.1138 -0.0124  1.0814
25241SOL     OW87446   3.486  10.742   1.043  0.2446  0.0080 -0.3621
25241SOL    HW187447   3.581  10.744   1.028  0.8634  0.2148  2.8385
25241SOL    HW287448   3.467  10.650   1.060  0.4798  0.3088  1.7929
25242SOL     OW87449   1.212   1.095   7.623  0.4767 -0.3125 -0.2183
25242SOL    HW187450   1.192   1.132   7.709 -0.5052 -1.8683  0.2722
25242SOL    HW287451   1.300   1.059   7.632  2.0775  3.0144 -1.1459
25243SOL     OW87452   8.241   7.953   5.547  0.3928  1.0070 -0.6865
25243SOL    HW187453   8.302   8.018   5.581  0.1622  1.8006 -1.7493
25243SOL    HW287454   8.289   7.911   5.475  0.7760 -0.4619  0.3640
25244SOL     OW87455   3.881   2.206   7.561  0.5181  0.4905  0.5090
25244SOL    HW187456   3.905   2.275   7.498 -0.2541  1.9163  1.7171
25244SOL    HW287457   3.884   2.125   7.510  1.1319  1.4512 -1.0484
25245SOL     OW87458   1.218   4.435   6.282  0.5830  0.2870  0.1730
25245SOL    HW187459   1.204   4.357   6.335 -0.0336  0.8402  0.8401
25245SOL    HW287460   1.232   4.505   6.345 -1.4806  1.2196 -0.3231
25246SOL     OW87461   2.169   0.398   0.197  0.0398 -0.1250  0.1221
25246SOL    HW187462   2.110   0.415   0.124 -0.4095 -0.3040  0.4327
25246SOL    HW287463   2.144   0.463   0.263  0.6882  0.2724 -0.0204
25247SOL     OW87464   3.280   2.616   0.666 -0.4026 -0.3999 -0.5593
25247SOL    HW187465   3.262   2.523   0.653  1.5955 -0.8587 -0.3807
25247SOL    HW287466   3.294   2.651   0.579 -1.0077 -0.2815 -0.6149
25248SOL     OW87467   9.155   9.613   0.932 -0.1019  0.4709 -0.4773
25248SOL    HW187468   9.079   9.567   0.967  1.4032  0.8189  3.8501
25248SOL    HW287469   9.121   9.696   0.900 -1.6985  0.1360  0.2822
25249SOL     OW87470   8.841   0.765   0.218 -0.6322  0.2326 -0.0725
25249SOL    HW187471   8.763   0.822   0.217 -0.1919  0.8444  0.0141
25249SOL    HW287472   8.809   0.680   0.187 -1.6344  0.1024  1.1831
25250SOL     OW87473   3.519  10.055   9.066 -0.3347  0.5118  0.4101
25250SOL    HW187474   3.446  10.041   9.006 -0.1225 -2.2081  0.6934
25250SOL    HW287475   3.596  10.061   9.010 -0.4730  0.9441  0.2612
25251SOL     OW87476   3.223   9.375   5.994  0.3275  0.1315  0.8075
25251SOL    HW187477   3.315   9.397   5.978  0.3576  0.0720  0.8961
25251SOL    HW287478   3.202   9.308   5.929 -0.4007  1.9645 -0.9479
25252SOL     OW87479   5.122  10.410   6.372 -0.7450 -0.9858  0.2875
25252SOL    HW187480   5.114  10.319   6.400 -3.2085 -0.9598 -0.1373
25252SOL    HW287481   5.090  10.461   6.446 -0.9126 -0.5600 -0.0719
25253SOL     OW87482   3.892   9.187   8.507 -0.4423 -0.3460  0.4141
25253SOL    HW187483   3.836   9.110   8.517  1.5132 -2.2001 -1.6364
25253SOL    HW287484   3.853   9.235   8.434 -1.3247  0.3321  1.3080
25254SOL     OW87485   1.428  11.846   6.704 -0.2552  0.5011 -0.2169
25254SOL    HW187486   1.423  11.809   6.792 -0.2660 -0.6302 -0.6752
25254SOL    HW287487   1.344  11.892   6.692 -0.8832 -0.5941 -0.1628
25255SOL     OW87488   5.587   9.040  10.691  0.5249  0.2651 -0.1829
25255SOL    HW187489   5.581   8.954  10.650  2.6051 -0.8088  1.6107
25255SOL    HW287490   5.667   9.079  10.655  1.4290  0.0197  1.4951
25256SOL     OW87491   9.832   5.184   0.756 -0.3796  0.0568  0.4322
25256SOL    HW187492   9.898   5.225   0.812 -0.8414  1.7430 -0.2036
25256SOL    HW287493   9.762   5.159   0.816 -0.3578  0.7657  0.7590
25257SOL     OW87494   7.871   0.340  10.249  0.5160 -0.1358 -1.1746
25257SOL    HW187495   7.879   0.420  10.196  0.2046 -0.2830 -1.4435
25257SOL    HW287496   7.795   0.294  10.213  0.4047 -0.3219 -0.7108
25258SOL     OW87497   3.374   4.997   5.248 -0.1505  0.3687  0.0818
25258SOL    HW187498   3.301   5.003   5.187 -0.2213  0.6010  0.1857
25258SOL    HW287499   3.333   4.992   5.334 -0.0616  2.3525  0.3010
25259SOL     OW87500   4.975   5.300   2.548  0.1298 -0.0342  0.2094
25259SOL    HW187501   4.940   5.275   2.462  2.4535  0.6317 -1.0199
25259SOL    HW287502   5.026   5.225   2.577 -0.6583 -0.2625  1.0396
25260SOL     OW87503   6.771   8.924   5.777  0.1363  0.3511 -0.0544
25260SOL    HW187504   6.731   9.008   5.756 -0.6029  0.3477  1.2304
25260SOL    HW287505   6.701   8.860   5.765  0.7559 -0.1489 -1.2632
25261SOL     OW87506   1.253   3.949   3.681 -0.4403 -0.0226 -0.0324
25261SOL    HW187507   1.219   3.892   3.612 -2.3181  1.3481 -0.3450
25261SOL    HW287508   1.176   3.966   3.737  0.2698  1.4855  0.5215
25262SOL     OW87509   8.604   0.040   7.431 -0.7034 -0.2623 -0.2910
25262SOL    HW187510   8.590   0.096   7.507 -2.1484 -0.9510 -0.0099
25262SOL    HW287511   8.618   0.101   7.359 -2.7740  0.5342 -0.0983
25263SOL     OW87512   1.829   6.287   9.483 -0.2348 -0.1583  0.4062
25263SOL    HW187513   1.804   6.372   9.518 -0.5122 -0.2599  0.4606
25263SOL    HW287514   1.866   6.306   9.397 -1.9066 -0.1269 -0.3511
25264SOL     OW87515   1.924  10.289   3.766  0.1679 -0.1131 -0.0654
25264SOL    HW187516   1.855  10.319   3.825  0.3728  2.1038 -0.8773
25264SOL    HW287517   1.902  10.326   3.681  1.8485 -0.1493 -0.5635
25265SOL     OW87518  11.691  10.692   7.409 -0.0248 -0.4027  0.4181
25265SOL    HW187519  11.707  10.632   7.336 -0.7412  0.2099 -0.2547
25265SOL    HW287520  11.602  10.723   7.395  0.8490  2.0565 -0.1605
25266SOL     OW87521  11.444   2.349   8.674  0.0074  0.0948 -0.2153
25266SOL    HW187522  11.535   2.380   8.666 -0.2967  1.1969  0.3570
25266SOL    HW287523  11.443   2.300   8.756  0.2106 -0.4326 -0.5194
25267SOL     OW87524   8.543   1.968   9.669 -0.3759 -0.3043 -0.1801
25267SOL    HW187525   8.499   2.053   9.660 -1.5324 -0.8359  0.3091
25267SOL    HW287526   8.552   1.936   9.580  2.1481  1.3173 -0.6169
25268SOL     OW87527   1.835   7.064   4.674 -0.1737  0.1146 -0.7504
25268SOL    HW187528   1.782   7.048   4.752  0.4415  0.8752 -0.1605
25268SOL    HW287529   1.852   7.158   4.675  0.1269  0.0769 -1.6200
25269SOL     OW87530  10.095   8.504   9.899  0.4707  0.5603  0.4355
25269SOL    HW187531  10.059   8.532   9.814 -0.6149  1.5394  1.1835
25269SOL    HW287532  10.189   8.512   9.889  0.5469 -1.5166 -1.4139
25270SOL     OW87533   6.162   6.829  11.931 -0.4644 -0.0527  0.0774
25270SOL    HW187534   6.214   6.891  11.880 -0.6672  1.4254  1.5545
25270SOL    HW287535   6.144   6.875  12.013 -0.3464 -2.2210  1.3961
25271SOL     OW87536   6.209  11.744   3.699  0.2511  0.2145 -0.0736
25271SOL    HW187537   6.206  11.826   3.650 -0.1557 -0.7355 -1.7287
25271SOL    HW287538   6.229  11.677   3.633 -0.5436 -1.1680  1.0264
25272SOL     OW87539   0.459   2.686   7.717 -0.1976  0.3758 -0.1136
25272SOL    HW187540   0.547   2.719   7.698  0.3030 -0.3163  0.9267
25272SOL    HW287541   0.466   2.591   7.707 -0.4960  0.1949  1.1699
25273SOL     OW87542   6.705   0.331   5.249  0.6529 -0.1576 -0.3612
25273SOL    HW187543   6.657   0.292   5.175  1.9437 -1.1340 -0.7125
25273SOL    HW287544   6.748   0.257   5.291  3.2296  0.8210 -1.0626
25274SOL     OW87545   9.209   0.395   1.979  0.0193  0.4411 -0.1756
25274SOL    HW187546   9.152   0.412   1.904  0.3145 -1.1277 -0.7884
25274SOL    HW287547   9.221   0.300   1.980  0.2827  0.4442  1.6798
25275SOL     OW87548   0.305   1.271   9.959  0.5073  0.6903  0.1347
25275SOL    HW187549   0.281   1.308  10.044  0.8305 -1.4052  1.1966
25275SOL    HW287550   0.397   1.246   9.968  0.3097 -0.3427 -0.5138
25276SOL     OW87551   7.272   0.144   5.533 -0.4115 -0.0990  0.0211
25276SOL    HW187552   7.274   0.212   5.466  0.5405 -0.5802 -0.4715
25276SOL    HW287553   7.270   0.192   5.616 -2.6211  0.5020 -0.3239
25277SOL     OW87554  10.842   5.281   9.368 -0.2300  0.5514 -0.1281
25277SOL    HW187555  10.782   5.278   9.293 -0.2834 -0.1348 -0.0621
25277SOL    HW287556  10.867   5.373   9.374 -0.5181  0.6808 -0.7584
25278SOL     OW87557   9.515   6.939   6.690  0.2068  0.1971  0.1681
25278SOL    HW187558   9.504   7.030   6.715 -1.3817  0.0371  0.1654
25278SOL    HW287559   9.528   6.893   6.773  2.3792  0.5470  0.0830
25279SOL     OW87560   2.365   9.205   4.636  0.5998  0.6980  0.0468
25279SOL    HW187561   2.281   9.220   4.592  0.9054  1.5367 -0.2700
25279SOL    HW287562   2.376   9.280   4.693  0.5992  0.0170  0.9642
25280SOL     OW87563   8.903   7.603   5.315 -0.1648 -0.2152 -0.7908
25280SOL    HW187564   8.955   7.608   5.234  0.8205  0.3264 -0.1465
25280SOL    HW287565   8.965   7.623   5.385 -0.9846 -0.7639  0.1217
25281SOL     OW87566   6.830   3.364   9.752  0.2312 -0.4229  0.0640
25281SOL    HW187567   6.819   3.280   9.796  1.0571 -0.5698  0.0145
25281SOL    HW287568   6.879   3.418   9.814 -1.1300  0.3691  0.4930
25282SOL     OW87569   2.127   2.177  11.857  0.0469  0.6955 -0.2773
25282SOL    HW187570   2.119   2.268  11.827 -0.6197  0.2887 -1.4111
25282SOL    HW287571   2.221   2.159  11.854  0.6607  2.3879  3.3742
25283SOL     OW87572   6.724   5.371   0.847  0.1210  0.2716 -0.0401
25283SOL    HW187573   6.813   5.373   0.814  0.2911  1.0626  0.4189
25283SOL    HW287574   6.711   5.282   0.880  1.2858  0.5720  1.3180
25284SOL     OW87575   4.422   4.729   1.492  0.2199  0.3357  0.1487
25284SOL    HW187576   4.461   4.817   1.491 -0.4309  0.6999  2.1724
25284SOL    HW287577   4.497   4.669   1.489  0.6701  0.9105 -1.3529
25285SOL     OW87578   5.515   1.755   6.094 -0.3329  0.1161  0.2961
25285SOL    HW187579   5.493   1.732   6.184  0.3649  2.1580  1.0321
25285SOL    HW287580   5.604   1.791   6.099 -0.9661  1.9824 -0.8730
25286SOL     OW87581   0.537   0.570   7.456 -0.3838  0.7121  0.8225
25286SOL    HW187582   0.548   0.665   7.465  0.5628  0.5868  1.1324
25286SOL    HW287583   0.615   0.533   7.498 -0.8163 -0.2093  0.8349
25287SOL     OW87584   4.665   4.586   1.487 -0.7496  0.4270  0.4547
25287SOL    HW187585   4.697   4.496   1.493 -0.6127  0.5654  2.3552
25287SOL    HW287586   4.727   4.630   1.428  0.5276 -0.1668  1.3141
25288SOL     OW87587   5.355  10.799   1.477 -0.0128  0.3925  0.3835
25288SOL    HW187588   5.396  10.718   1.507  0.8798 -0.0530 -1.8741
25288SOL    HW287589   5.266  10.774   1.454 -0.6128  0.6773  2.1775
25289SOL     OW87590   7.870   5.939   7.701  0.3695 -0.3331  0.3089
25289SOL    HW187591   7.795   5.995   7.679  1.2938  0.3949 -1.1441
25289SOL    HW287592   7.944   5.999   7.709  1.2717 -1.2659 -0.6930
25290SOL     OW87593   3.375   7.715   0.937  0.3388  0.3114  0.1674
25290SOL    HW187594   3.446   7.777   0.954 -0.2828  1.1267 -0.1138
25290SOL    HW287595   3.324   7.756   0.867  0.3059 -0.8606 -0.5320
25291SOL     OW87596   4.768   8.098   2.721 -0.0073  0.3990  0.7565
25291SOL    HW187597   4.859   8.070   2.719 -0.2695 -0.4538 -0.8597
25291SOL    HW287598   4.771   8.191   2.697  0.2324 -0.4557 -3.0823
25292SOL     OW87599   7.903   4.862   3.866 -0.7044 -0.1822 -0.3567
25292SOL    HW187600   7.842   4.833   3.934 -0.1601  1.0222  0.6742
25292SOL    HW287601   7.974   4.904   3.914  0.1505 -0.1177 -1.6341
25293SOL     OW87602   3.455   2.898  10.293  0.1426  0.6027  0.4182
25293SOL    HW187603   3.540   2.928  10.326  0.1285  0.0261  0.9922
25293SOL    HW287604   3.471   2.878  10.201  0.8621 -0.3492  0.7329
25294SOL     OW87605   3.405   6.292  10.861 -0.1650  0.0963 -0.2396
25294SOL    HW187606   3.485   6.333  10.894  0.2412 -1.0358  0.2355
25294SOL    HW287607   3.336   6.354  10.884  0.3429  0.2085  1.0915
25295SOL     OW87608   3.309   7.987  10.275  0.1335 -0.0261  0.5373
25295SOL    HW187609   3.228   7.953  10.237 -0.0697  0.7036  0.3136
25295SOL    HW287610   3.377   7.967  10.210  0.1316 -0.5734  0.6932
25296SOL     OW87611   5.326  10.382  10.868 -0.4787  0.3051  0.3631
25296SOL    HW187612   5.344  10.307  10.811 -0.6875  0.5906 -0.0820
25296SOL    HW287613   5.233  10.373  10.890  0.0664 -0.9563  2.3511
25297SOL     OW87614   4.560  10.809   8.702 -0.1371 -0.7078  0.7891
25297SOL    HW187615   4.505  10.734   8.678 -0.2068 -0.6825  0.8723
25297SOL    HW287616   4.568  10.859   8.621  2.3165 -2.3038 -0.1061
25298SOL     OW87617   5.883   7.413   8.988 -0.3266 -0.0362 -0.2206
25298SOL    HW187618   5.796   7.436   9.019 -0.1244 -1.3033  1.4442
25298SOL    HW287619   5.876   7.322   8.960  0.4809 -0.2043  0.0738
25299SOL     OW87620   8.854   5.618   6.302 -0.2955 -0.2931  0.0427
25299SOL    HW187621   8.831   5.680   6.234  0.4433  1.4185  1.2861
25299SOL    HW287622   8.914   5.665   6.359  0.8388 -2.3715  0.6982
25300SOL     OW87623   7.249   1.381   2.374 -0.1523 -0.0476 -0.0753
25300SOL    HW187624   7.303   1.307   2.401 -1.0405 -0.3008  1.1169
25300SOL    HW287625   7.186   1.344   2.312 -0.8043 -0.3732  0.7710
25301SOL     OW87626   7.308   3.817   0.828 -0.0490  0.2510 -0.5049
25301SOL    HW187627   7.343   3.817   0.739 -1.0220 -1.3074 -0.9355
25301SOL    HW287628   7.383   3.792   0.883 -0.0688 -1.5737 -1.2351
25302SOL     OW87629   9.563   7.455   5.467 -0.0362  0.2797 -0.5851
25302SOL    HW187630   9.576   7.366   5.500 -0.8486  0.0365 -0.9013
25302SOL    HW287631   9.509   7.498   5.532 -1.7890 -0.2557 -1.6170
25303SOL     OW87632   8.670   9.833   6.575 -0.0626 -0.4653 -0.4701
25303SOL    HW187633   8.609   9.865   6.509  0.3299  0.2460 -0.5042
25303SOL    HW287634   8.725   9.909   6.596 -0.5146 -0.5330  1.0639
25304SOL     OW87635   5.646   6.595   7.171  0.0969  0.1559  0.0061
25304SOL    HW187636   5.655   6.555   7.258 -0.6797  0.3956  0.1999
25304SOL    HW287637   5.666   6.688   7.186 -1.2951  0.4373  0.1785
25305SOL     OW87638   3.071   3.589   2.770 -0.0885 -0.9714 -0.3226
25305SOL    HW187639   3.113   3.638   2.842 -1.6795  0.6055 -0.4054
25305SOL    HW287640   3.140   3.530   2.739  0.4303 -2.3172  3.0007
25306SOL     OW87641   2.830  10.700   4.508 -0.0722 -0.2161 -0.4082
25306SOL    HW187642   2.812  10.774   4.565 -2.4210  0.4061 -1.7891
25306SOL    HW287643   2.918  10.716   4.474  0.5368  0.4603  1.4128
25307SOL     OW87644  10.018  10.571   8.291  0.2317 -0.6597  0.2434
25307SOL    HW187645   9.933  10.527   8.293  0.3881 -0.9589  0.8826
25307SOL    HW287646  10.027  10.609   8.379 -1.4567  3.7409 -1.2502
25308SOL     OW87647   6.593   6.481   5.102 -0.4978  0.1960  0.1503
25308SOL    HW187648   6.636   6.410   5.149 -0.3396  2.1635  3.2187
25308SOL    HW287649   6.529   6.436   5.046  0.5342 -2.4072  0.9017
25309SOL     OW87650   9.520   2.129   5.085  0.2987 -0.0410 -0.9465
25309SOL    HW187651   9.562   2.051   5.121 -2.6556 -0.5338  1.9234
25309SOL    HW287652   9.488   2.101   4.999  1.5043 -1.1362 -1.0732
25310SOL     OW87653   0.105   1.478   2.192 -0.1754  0.5385 -0.3119
25310SOL    HW187654   0.108   1.542   2.121  1.8659 -1.5412 -2.2427
25310SOL    HW287655   0.196   1.452   2.205 -0.7295 -0.5593  1.7689
25311SOL     OW87656   3.802  11.097   8.002 -0.2404  0.1746  0.3295
25311SOL    HW187657   3.730  11.035   7.987  0.1011 -0.0212 -0.5846
25311SOL    HW287658   3.758  11.179   8.026 -0.7640  0.0216 -0.0703
25312SOL     OW87659   9.051   9.463  11.425  0.9390 -0.4390  0.1268
25312SOL    HW187660   9.009   9.534  11.475  1.2452  1.2459 -1.8799
25312SOL    HW287661   9.012   9.383  11.461  0.3589  0.7240  2.2866
25313SOL     OW87662   4.616   5.148   2.962  0.8138  0.2539  0.4409
25313SOL    HW187663   4.682   5.116   2.900  0.9495  0.5195  0.4496
25313SOL    HW287664   4.613   5.242   2.949  0.4542  0.2472  0.4628
25314SOL     OW87665   0.140  10.546   7.225  0.3067  0.1316 -0.4867
25314SOL    HW187666   0.204  10.610   7.257 -1.8378  2.2240 -0.0798
25314SOL    HW287667   0.110  10.501   7.304  0.5897 -0.1941 -0.5620
25315SOL     OW87668   5.135   4.367   8.148  0.5403 -0.7229 -0.0413
25315SOL    HW187669   5.176   4.452   8.166 -0.1403 -0.0070 -1.7249
25315SOL    HW287670   5.050   4.389   8.109  0.7116 -2.1745 -1.3001
25316SOL     OW87671  11.187   0.388   8.384 -0.2540 -0.5701 -0.1794
25316SOL    HW187672  11.093   0.397   8.374 -0.0503  0.5025 -1.4065
25316SOL    HW287673  11.199   0.357   8.473 -1.6669  1.2937  0.7154
25317SOL     OW87674   0.334   3.952   0.605  0.1187 -0.6866 -0.3652
25317SOL    HW187675   0.330   4.041   0.570 -1.9008 -0.5171  0.1615
25317SOL    HW287676   0.368   3.963   0.694  0.7738 -0.5665 -0.6257
25318SOL     OW87677   0.734  10.540   6.441  0.5845  0.5623  0.2210
25318SOL    HW187678   0.717  10.526   6.534 -0.2608 -0.0071 -0.0131
25318SOL    HW287679   0.754  10.633   6.434  0.3962  0.6588  0.9302
25319SOL     OW87680  10.406   9.466   1.250 -0.4849 -0.8166  0.0764
25319SOL    HW187681  10.362   9.445   1.167 -0.5324  0.3223 -0.1971
25319SOL    HW287682  10.498   9.446   1.234 -0.7506 -2.4514  0.3960
25320SOL     OW87683   7.023  10.724   9.672 -0.1309  0.3411 -0.1149
25320SOL    HW187684   6.964  10.755   9.604 -2.3251  0.0391  1.5370
25320SOL    HW287685   7.008  10.630   9.676  0.3378  0.2837  0.4556
25321SOL     OW87686  11.685   5.335   0.637  0.1495 -0.0611  0.4255
25321SOL    HW187687  11.600   5.338   0.592  0.3816  2.1226  0.0426
25321SOL    HW287688  11.668   5.373   0.723  1.2190  3.1581 -0.6529
25322SOL     OW87689   8.561  11.388  11.635  0.6173 -0.5283 -0.0263
25322SOL    HW187690   8.651  11.396  11.604  0.8693 -2.4316  0.0980
25322SOL    HW287691   8.507  11.407  11.559  1.1876 -1.9775 -0.8361
25323SOL     OW87692   2.048   7.210   2.606  0.0871 -0.6534 -0.2518
25323SOL    HW187693   2.074   7.120   2.586 -1.2636 -0.8686 -1.1131
25323SOL    HW287694   2.117   7.264   2.567  1.0958 -1.3088  0.5828
25324SOL     OW87695   2.723   8.658   5.409 -0.0220  0.6407  0.1946
25324SOL    HW187696   2.715   8.695   5.321  0.3170 -0.6085 -0.3802
25324SOL    HW287697   2.813   8.626   5.414 -0.0659  0.6024  0.9661
25325SOL     OW87698  10.313   5.913   2.839 -0.7488  0.3220 -0.6631
25325SOL    HW187699  10.318   5.921   2.743  0.9914  0.7915 -0.5687
25325SOL    HW287700  10.284   5.823   2.854  1.5981 -0.6648 -1.6435
25326SOL     OW87701   6.003   8.860   3.220 -0.5483  0.9371 -0.0861
25326SOL    HW187702   5.967   8.784   3.266 -1.4748  0.1320 -2.0399
25326SOL    HW287703   6.064   8.823   3.157  0.8448  2.0347  0.5704
25327SOL     OW87704   0.615   3.561   5.690 -0.0583 -0.4041  0.8257
25327SOL    HW187705   0.702   3.596   5.672  0.3520 -1.2062  1.1584
25327SOL    HW287706   0.594   3.593   5.778 -2.3799  4.1332 -1.0802
25328SOL     OW87707   3.097   8.132   7.186  0.1800  0.2507 -0.1544
25328SOL    HW187708   3.115   8.122   7.280  1.1014  0.6149 -0.2794
25328SOL    HW287709   3.072   8.223   7.176  3.1993  1.1043 -0.6975
25329SOL     OW87710   2.775  10.902   5.170 -0.2266  0.2871 -0.0554
25329SOL    HW187711   2.717  10.898   5.246 -1.2835  3.8211 -0.5384
25329SOL    HW287712   2.719  10.879   5.096 -0.5325  1.6829 -0.2817
25330SOL     OW87713  11.843  11.569   6.388 -0.7187  0.3372 -0.9060
25330SOL    HW187714  11.932  11.601   6.397 -0.5900 -0.4328  0.8501
25330SOL    HW287715  11.788  11.646   6.403 -0.3694  0.4780 -0.3245
25331SOL     OW87716   3.930   8.366   1.508 -0.0498  0.3621 -0.4493
25331SOL    HW187717   3.949   8.416   1.429 -0.1174 -0.7172 -1.1760
25331SOL    HW287718   3.965   8.278   1.490  1.4164  0.5225  1.3799
25332SOL     OW87719   4.393  11.464  10.133 -0.1058  0.5993  0.3630
25332SOL    HW187720   4.419  11.529  10.198 -1.7859  2.9203 -1.1613
25332SOL    HW287721   4.298  11.473  10.126 -0.1081 -0.4071 -1.5654
25333SOL     OW87722   2.624   8.760   0.491  0.3031  0.2712 -0.4622
25333SOL    HW187723   2.666   8.727   0.571 -0.0797 -1.3752 -0.9161
25333SOL    HW287724   2.602   8.682   0.441 -0.7948  1.2204 -1.5237
25334SOL     OW87725   5.891   5.967   0.884 -0.7557 -0.0194 -0.4022
25334SOL    HW187726   5.953   6.040   0.876  0.0402 -0.6588 -0.2008
25334SOL    HW287727   5.815   5.994   0.832  0.3946  0.0320 -2.1345
25335SOL     OW87728   5.972   2.846   2.581  0.2010  0.7151  0.3127
25335SOL    HW187729   5.939   2.851   2.491 -0.6079  2.5555  0.6756
25335SOL    HW287730   6.002   2.934   2.601  0.4293  0.3186  1.8503
25336SOL     OW87731   7.871   9.257   9.359 -0.2244 -0.9663 -0.5567
25336SOL    HW187732   7.950   9.219   9.397  0.9869 -0.5643 -2.5366
25336SOL    HW287733   7.829   9.303   9.432  2.0506 -0.0869  0.2852
25337SOL     OW87734   4.344  11.050  10.116  0.0974  0.0232  0.3530
25337SOL    HW187735   4.354  10.961  10.082 -0.0490  0.1536 -0.0347
25337SOL    HW287736   4.272  11.087  10.065 -0.8475 -0.1282  1.5240
25338SOL     OW87737   9.054   9.303   0.843 -0.1705 -0.1731  0.0235
25338SOL    HW187738   9.013   9.216   0.837 -0.7670  0.0573  0.5740
25338SOL    HW287739   8.980   9.364   0.840  0.0695  0.2287  1.5237
25339SOL     OW87740  10.595   8.558   6.950  0.2726  0.1218  0.2202
25339SOL    HW187741  10.562   8.474   6.981 -2.1422  0.9104 -0.0571
25339SOL    HW287742  10.540   8.624   6.992  2.0066  1.5913  0.3072
25340SOL     OW87743   3.995  11.358  10.784 -0.0552  0.3900  0.4701
25340SOL    HW187744   4.078  11.404  10.799  0.8647 -1.5435  1.6855
25340SOL    HW287745   4.008  11.311  10.702 -0.8915  1.9718 -0.6209
25341SOL     OW87746   3.578  11.453   5.928  0.4337  0.7995 -0.1311
25341SOL    HW187747   3.498  11.491   5.891  1.2954  2.4502 -0.3882
25341SOL    HW287748   3.586  11.369   5.883 -1.3839  0.3887  0.2335
25342SOL     OW87749   2.611   7.112  10.280  0.2579 -0.2863 -0.3340
25342SOL    HW187750   2.704   7.127  10.266  0.7356 -2.2207  0.4903
25342SOL    HW287751   2.579   7.078  10.197  0.3698 -0.0576 -0.4730
25343SOL     OW87752   4.655   1.553   6.965  0.2147  0.4982 -0.1090
25343SOL    HW187753   4.625   1.580   7.052 -0.0510 -1.5096  0.4645
25343SOL    HW287754   4.750   1.565   6.967  0.2449  0.1381  0.5685
25344SOL     OW87755  10.056   4.627   3.360  0.3052 -0.6208 -0.2871
25344SOL    HW187756  10.050   4.657   3.451 -2.0606  1.4051 -1.0158
25344SOL    HW287757  10.114   4.550   3.365 -0.6811 -1.3431  3.1016
25345SOL     OW87758   5.091   3.682   0.669 -0.0967  0.1933  0.4367
25345SOL    HW187759   5.025   3.744   0.636 -0.4513 -0.7777 -0.7402
25345SOL    HW287760   5.159   3.681   0.601  0.1659 -0.3047  0.7015
25346SOL     OW87761   3.630  11.488   4.775  0.3705  0.1369 -0.1055
25346SOL    HW187762   3.676  11.570   4.755  1.2961 -0.5637 -0.9358
25346SOL    HW287763   3.685  11.420   4.737 -1.0990 -0.7808 -0.6762
25347SOL     OW87764   2.549   0.114   5.492 -0.5471 -0.0981  0.3513
25347SOL    HW187765   2.619   0.049   5.496 -1.3684 -1.1138 -0.9805
25347SOL    HW287766   2.509   0.101   5.406 -1.5798  1.3010  0.5797
25348SOL     OW87767   4.202   6.326   2.123 -0.2937 -0.0071 -0.1306
25348SOL    HW187768   4.108   6.330   2.137 -0.3330  1.3132 -0.6341
25348SOL    HW287769   4.220   6.234   2.105 -1.7175 -0.0513 -1.5451
25349SOL     OW87770   2.123   0.224   2.566 -0.0215 -0.1857  0.4709
25349SOL    HW187771   2.030   0.203   2.568 -0.2729  0.8304  0.2675
25349SOL    HW287772   2.126   0.318   2.546  1.0649 -0.3719 -0.3890
25350SOL     OW87773   5.348   0.760   2.558  0.1977 -0.3281 -0.2376
25350SOL    HW187774   5.432   0.745   2.601 -0.0587  1.6263  1.0325
25350SOL    HW287775   5.371   0.802   2.475  0.4904  0.1185  0.0640
25351SOL     OW87776  11.106   4.900   7.795 -0.1312  0.1354  0.1636
25351SOL    HW187777  11.161   4.885   7.872 -0.9066 -1.4402  0.4693
25351SOL    HW287778  11.087   4.993   7.797  1.1932  0.4231  0.9522
25352SOL     OW87779   2.010   8.147   7.500 -0.4294  0.1390 -0.3135
25352SOL    HW187780   1.936   8.126   7.443 -0.0031  0.0757 -0.8586
25352SOL    HW287781   2.015   8.242   7.499 -0.7206  0.1590  0.0095
25353SOL     OW87782   1.098   6.474  10.480  0.0944 -0.5802 -0.1446
25353SOL    HW187783   1.060   6.542  10.535  1.4139 -0.3935  0.5856
25353SOL    HW287784   1.058   6.392  10.510 -1.1155 -0.2006 -0.6798
25354SOL     OW87785   1.776   0.828   5.338 -0.2558  0.3321  0.0339
25354SOL    HW187786   1.748   0.876   5.415 -3.0889 -2.1307  0.7173
25354SOL    HW287787   1.797   0.740   5.370  2.7133  0.3575 -1.4470
25355SOL     OW87788   5.844   7.717   9.118 -0.0319  0.3702 -0.7065
25355SOL    HW187789   5.843   7.767   9.200 -1.6480  0.9656 -1.0484
25355SOL    HW287790   5.873   7.780   9.053  1.4840 -0.1670 -0.5938
25356SOL     OW87791   3.952   4.310   9.008  0.1519  0.6590  0.0782
25356SOL    HW187792   3.906   4.226   9.008  1.4725 -0.1733 -2.0177
25356SOL    HW287793   3.968   4.330   9.100  1.3772 -2.3470  0.6371
25357SOL     OW87794   2.069   5.715   8.423  0.4024  0.3019  0.2377
25357SOL    HW187795   2.156   5.740   8.390 -0.3353  2.3523 -0.2442
25357SOL    HW287796   2.059   5.764   8.504  0.8289 -2.1828  1.9147
25358SOL     OW87797  11.016   3.643  11.641  0.5536 -0.1220 -0.2063
25358SOL    HW187798  11.056   3.726  11.616  1.0306 -0.3925 -0.3600
25358SOL    HW287799  10.956   3.623  11.569 -1.1815  1.1383  0.8354
25359SOL     OW87800   7.783   9.436   4.524 -0.0878  0.4680  0.6763
25359SOL    HW187801   7.759   9.405   4.612 -2.6564  1.0539  0.2689
25359SOL    HW287802   7.730   9.383   4.465  1.9886 -0.2763 -0.6276
25360SOL     OW87803   2.284   5.044   5.808 -0.0135 -0.4770 -0.1216
25360SOL    HW187804   2.211   5.083   5.856  0.2709  0.2952 -0.3019
25360SOL    HW287805   2.274   4.950   5.822 -0.9365 -0.3708  0.0028
25361SOL     OW87806   9.102   8.216   5.338 -0.0744  0.5241  0.0088
25361SOL    HW187807   9.154   8.199   5.416  1.0907 -0.9575 -1.0364
25361SOL    HW287808   9.154   8.279   5.288 -1.2421  2.1728  0.8014
25362SOL     OW87809   0.377   1.267   8.433 -0.1526  0.2126  0.0439
25362SOL    HW187810   0.356   1.284   8.341 -0.0047  1.3228  0.2016
25362SOL    HW287811   0.412   1.350   8.465  0.0092 -0.2327  1.0450
25363SOL     OW87812   4.138   7.009   2.176  0.6027 -0.0787  0.2444
25363SOL    HW187813   4.133   6.918   2.206  0.4670 -0.6031 -1.2921
25363SOL    HW287814   4.145   7.003   2.081  0.1665  1.5415  0.0795
25364SOL     OW87815   4.431   6.929  10.091  0.3091 -0.3361 -0.3891
25364SOL    HW187816   4.365   6.860  10.097  0.3721 -0.3248  0.9242
25364SOL    HW287817   4.487   6.914  10.167  0.6132  0.8745 -0.3487
25365SOL     OW87818   6.921   4.349   5.507  0.0859 -0.3981  0.2358
25365SOL    HW187819   7.015   4.329   5.509  0.4176  0.8236 -1.2824
25365SOL    HW287820   6.890   4.311   5.424  0.0998  2.4656 -1.1959
25366SOL     OW87821   9.017   0.087   2.398  0.6720  0.5318 -0.0952
25366SOL    HW187822   9.042   0.025   2.467 -1.4254 -1.0356 -0.6547
25366SOL    HW287823   9.049   0.171   2.430  2.0753 -0.5484  1.5400
25367SOL     OW87824   5.071   4.262  11.609 -0.3587  0.3879  0.1064
25367SOL    HW187825   5.084   4.167  11.611  0.2307  0.4507 -0.5451
25367SOL    HW287826   5.098   4.288  11.521 -1.5579  1.0180 -0.1043
25368SOL     OW87827   8.726   5.633  10.048 -0.4631  0.0112  0.1473
25368SOL    HW187828   8.704   5.659  10.137  1.6857 -1.0611  1.0793
25368SOL    HW287829   8.666   5.561  10.027 -0.7795  0.0690  0.8589
25369SOL     OW87830  11.691   6.195   5.535 -0.0916  0.3179  0.3102
25369SOL    HW187831  11.600   6.223   5.524 -0.1435 -0.1958 -0.5752
25369SOL    HW287832  11.703   6.192   5.630 -0.5856  1.6919  0.4461
25370SOL     OW87833   0.098   1.804   1.733  0.4362  0.7434 -0.6955
25370SOL    HW187834   0.178   1.768   1.693  0.4404  0.0844 -0.1229
25370SOL    HW287835   0.027   1.774   1.676  0.1944 -2.1548  0.9167
25371SOL     OW87836   5.086  10.018   6.007  0.1658 -0.3557 -0.0004
25371SOL    HW187837   5.163  10.030   5.950  1.9747 -1.7837  1.9857
25371SOL    HW287838   5.034   9.951   5.962  1.1842 -0.9284 -0.3805
25372SOL     OW87839   8.856   4.494   6.277  0.1546  0.1329  0.8662
25372SOL    HW187840   8.914   4.566   6.302 -0.3583  0.3222  1.5309
25372SOL    HW287841   8.900   4.416   6.311  0.7762  0.1084  0.0317
25373SOL     OW87842  10.672   6.480   1.978 -0.2804  0.4509  0.0319
25373SOL    HW187843  10.688   6.554   1.918 -0.8849  1.3657  0.9581
25373SOL    HW287844  10.757   6.437   1.987  0.3513  1.7127  0.3426
25374SOL     OW87845   5.415   3.224   0.011  0.3086  0.8252  0.0144
25374SOL    HW187846   5.432   3.134  -0.016 -1.5034 -0.3549  2.4361
25374SOL    HW287847   5.333   3.248  -0.034  1.3313  1.7408 -1.4691
25375SOL     OW87848   8.133  11.875  11.832  0.8657  0.3285  0.2324
25375SOL    HW187849   8.210  11.819  11.820  0.8944  0.3249  0.4286
25375SOL    HW287850   8.086  11.869  11.749  0.0988 -1.1598  0.7423
25376SOL     OW87851   6.245   8.652   1.445 -0.2628 -0.2841  0.0732
25376SOL    HW187852   6.239   8.586   1.514 -0.7737  1.3111  1.6268
25376SOL    HW287853   6.155   8.664   1.415 -0.1086 -0.6013 -0.5468
25377SOL     OW87854  10.512   4.876  10.241 -0.0868 -0.7659 -0.0444
25377SOL    HW187855  10.605   4.898  10.234  0.0281 -1.0469  0.5510
25377SOL    HW287856  10.503   4.795  10.191  0.1885 -1.2794  0.7265
25378SOL     OW87857   8.893   8.120  10.151  0.1419 -0.0629  0.3199
25378SOL    HW187858   8.899   8.139  10.244 -2.1800  1.4781  0.2260
25378SOL    HW287859   8.839   8.190  10.115 -0.9597 -1.8552 -1.7729
25379SOL     OW87860   6.536  10.156  10.218  0.8762 -0.1763 -0.0574
25379SOL    HW187861   6.569  10.246  10.224 -1.3218  0.7585 -1.0842
25379SOL    HW287862   6.530  10.138  10.125  0.5203 -1.1133  0.1299
25380SOL     OW87863   3.361   1.404  11.396  0.0362 -0.4331 -0.1274
25380SOL    HW187864   3.356   1.334  11.330 -1.1453 -0.3534 -0.1426
25380SOL    HW287865   3.271   1.415  11.425 -0.0560  2.1084 -1.1815
25381SOL     OW87866   4.378   5.036   2.877  0.2763  0.0081  0.0180
25381SOL    HW187867   4.456   5.019   2.824  0.9286 -0.0052  0.9572
25381SOL    HW287868   4.373   4.961   2.936 -0.7579 -0.2520 -0.3733
25382SOL     OW87869   5.212   5.148   7.588  0.3231 -0.1255 -0.5805
25382SOL    HW187870   5.124   5.185   7.598  0.3188  0.0968 -1.3822
25382SOL    HW287871   5.265   5.195   7.653 -0.2289 -0.5637  0.2034
25383SOL     OW87872   0.112  11.121   6.668 -0.1127  0.3260  0.1565
25383SOL    HW187873   0.181  11.065   6.703  1.0154  0.4328 -1.7422
25383SOL    HW287874   0.057  11.141   6.743  0.4555 -1.8542  1.2570
25384SOL     OW87875   0.465  11.729   5.459  0.0077 -0.7433 -0.8097
25384SOL    HW187876   0.538  11.688   5.412 -0.3811 -2.7457  0.2007
25384SOL    HW287877   0.442  11.665   5.526 -1.4190  0.7123  0.1495
25385SOL     OW87878   8.655   8.388   7.069 -0.4750 -0.1697 -0.5412
25385SOL    HW187879   8.679   8.296   7.078  0.7324  0.2393  0.9108
25385SOL    HW287880   8.576   8.397   7.124 -0.2343 -0.2178 -0.1835
25386SOL     OW87881   3.248  10.321   2.885 -0.1728 -0.1425 -0.0623
25386SOL    HW187882   3.227  10.361   2.800 -1.3607  1.5330  0.9512
25386SOL    HW287883   3.328  10.271   2.869 -1.4050 -1.4956 -2.6336
25387SOL     OW87884   4.305   9.095   5.094 -0.1673  0.2553  0.2080
25387SOL    HW187885   4.254   9.175   5.107  0.5012  0.5571  1.1287
25387SOL    HW287886   4.256   9.045   5.029  0.4217  2.2896 -1.9478
25388SOL     OW87887   4.811   7.070   8.724  0.5523  0.1423  0.2666
25388SOL    HW187888   4.777   6.991   8.766 -1.4119  0.5343 -0.4431
25388SOL    HW287889   4.777   7.142   8.777 -0.4219  0.5731 -0.8741
25389SOL     OW87890   4.508   7.016   7.377 -0.2955 -0.7160  0.1640
25389SOL    HW187891   4.572   6.976   7.317 -1.0287  1.3954 -2.1557
25389SOL    HW287892   4.424   6.978   7.351 -0.6715  0.5054 -0.4680
25390SOL     OW87893   7.514   1.437  10.665  0.1556  1.0383 -0.0095
25390SOL    HW187894   7.443   1.389  10.622 -0.3654  0.1441  1.7664
25390SOL    HW287895   7.473   1.476  10.742  0.7990  3.5705 -0.8635
25391SOL     OW87896   2.700   1.080   4.440  0.2798  0.1018 -0.1534
25391SOL    HW187897   2.747   0.997   4.433 -0.6953 -0.4736  0.0457
25391SOL    HW287898   2.679   1.102   4.349  1.0031  0.4211 -0.2561
25392SOL     OW87899   9.616   0.546  11.898 -0.1006  0.0470  0.0263
25392SOL    HW187900   9.538   0.518  11.851  0.8758 -0.6487 -1.2382
25392SOL    HW287901   9.591   0.544  11.990 -1.2388 -1.2207 -0.2899
25393SOL     OW87902   0.786   2.900   5.228 -0.2995  0.2578 -0.4014
25393SOL    HW187903   0.757   2.988   5.253 -1.1162 -0.1823  0.2848
25393SOL    HW287904   0.872   2.890   5.268 -0.6350  0.3921  0.3769
25394SOL     OW87905   7.493   9.406   0.296 -0.4268 -0.2259  0.1699
25394SOL    HW187906   7.523   9.350   0.224  1.4967  1.8171 -0.7244
25394SOL    HW287907   7.556   9.391   0.366  0.1631  0.8845 -0.1149
25395SOL     OW87908  11.282   1.198   7.468 -0.1703 -0.2414 -0.8403
25395SOL    HW187909  11.340   1.146   7.524  1.4427  2.0097 -0.3009
25395SOL    HW287910  11.340   1.245   7.408 -1.5763  0.6021 -1.6242
25396SOL     OW87911   5.386  10.018  11.100 -0.1026  0.2803 -0.3377
25396SOL    HW187912   5.296  10.032  11.069 -0.1011  0.5651 -0.2123
25396SOL    HW287913   5.406   9.928  11.073 -0.7736 -0.1338  0.4751
25397SOL     OW87914   6.067   6.151   8.584 -0.2046  0.0518 -0.4823
25397SOL    HW187915   6.086   6.063   8.617  2.1204 -0.0010 -1.7584
25397SOL    HW287916   6.147   6.201   8.600 -1.1764  1.7081 -0.5843
25398SOL     OW87917   7.551  11.149  11.064 -0.6003 -0.1613 -0.1880
25398SOL    HW187918   7.499  11.105  11.131  0.4971 -1.1313  0.0598
25398SOL    HW287919   7.590  11.078  11.014 -0.7308  0.5552 -1.3402
25399SOL     OW87920   8.870   0.522   8.330  0.5045  0.2608 -0.5506
25399SOL    HW187921   8.952   0.478   8.353 -0.5656 -1.6491 -0.2104
25399SOL    HW287922   8.875   0.606   8.375  0.8574 -1.1818  2.3111
25400SOL     OW87923   5.674   5.107   8.261 -0.2777 -0.0014  0.0974
25400SOL    HW187924   5.736   5.178   8.276  0.8036 -0.7935 -0.5120
25400SOL    HW287925   5.598   5.130   8.315  0.8310  0.6015  1.4645
25401SOL     OW87926   5.019  11.798   4.163  0.2201  0.2853  0.2498
25401SOL    HW187927   4.933  11.756   4.157  0.7606 -1.0328  1.2149
25401SOL    HW287928   5.013  11.853   4.241  0.1037  0.5813  0.0345
25402SOL     OW87929   8.808  10.706   1.512  0.1590  0.0944  0.1331
25402SOL    HW187930   8.894  10.723   1.550  1.5926  0.2620 -2.8524
25402SOL    HW287931   8.813  10.616   1.479 -1.7103 -0.7479  1.9011
25403SOL     OW87932   2.165   2.103   8.535  0.0896  0.5136  0.8106
25403SOL    HW187933   2.108   2.039   8.577  0.1307  0.5380  0.9049
25403SOL    HW287934   2.194   2.061   8.455  1.5517 -0.3073  1.7327
25404SOL     OW87935   4.833   1.158   9.304  0.1245  0.1299  0.1433
25404SOL    HW187936   4.785   1.204   9.373  0.2316  1.1409 -0.4241
25404SOL    HW287937   4.922   1.151   9.338 -0.0121 -0.1233  0.4516
25405SOL     OW87938   8.983   2.146   1.810  0.2667  0.6777 -0.2849
25405SOL    HW187939   9.007   2.220   1.866  0.5164  0.3234  0.0865
25405SOL    HW287940   8.940   2.185   1.735 -0.5427  1.1207  0.4025
25406SOL     OW87941   8.413   8.836   0.867 -0.7145  0.5524 -0.2105
25406SOL    HW187942   8.487   8.777   0.851 -0.0155  0.8684  1.6411
25406SOL    HW287943   8.379   8.809   0.953 -1.0051  2.2112  0.2236
25407SOL     OW87944  10.561   0.979   4.435  0.2587 -0.5098 -0.4807
25407SOL    HW187945  10.613   1.053   4.402 -1.3341  1.0253  0.2559
25407SOL    HW287946  10.603   0.956   4.518  1.6793 -1.4984 -1.4303
25408SOL     OW87947   3.334  11.058   1.853  0.4478  0.1121 -0.4358
25408SOL    HW187948   3.353  11.122   1.784 -1.0425  0.6551 -0.3942
25408SOL    HW287949   3.330  11.110   1.933  0.6621 -0.2709 -0.1748
25409SOL     OW87950   8.124   9.320   7.955  0.5263  0.4159 -0.1111
25409SOL    HW187951   8.094   9.234   7.983 -2.8948  1.1556 -1.0462
25409SOL    HW287952   8.044   9.370   7.940  2.3523  3.5760 -0.2976
25410SOL     OW87953   2.021   2.799   9.898 -0.1262  0.0974  0.3908
25410SOL    HW187954   2.115   2.808   9.879  0.7356 -0.5846  3.7715
25410SOL    HW287955   1.996   2.884   9.935 -0.7200  0.0809  0.0453
25411SOL     OW87956   7.143  10.366  11.052  0.3138 -0.3571 -0.5405
25411SOL    HW187957   7.076  10.430  11.028 -1.3351 -2.2183 -1.1503
25411SOL    HW287958   7.207  10.370  10.981  1.6555  2.3693  0.6835
25412SOL     OW87959   1.108   4.773   3.013 -0.0646 -0.6028  0.6928
25412SOL    HW187960   1.181   4.823   3.049 -1.4371  2.0652  0.0740
25412SOL    HW287961   1.130   4.762   2.921  0.1877 -1.0967  0.8067
25413SOL     OW87962  10.915  11.100   7.557 -0.1267 -0.0925 -0.1259
25413SOL    HW187963  10.834  11.088   7.507 -0.3236 -0.7356  0.3220
25413SOL    HW287964  10.961  11.171   7.513 -0.5871 -0.2238 -0.8357
25414SOL     OW87965   1.087   5.323  10.010 -0.5294  0.0241 -0.7082
25414SOL    HW187966   1.023   5.392  10.027 -2.4185 -1.2772 -2.0889
25414SOL    HW287967   1.084   5.312   9.915  1.6651 -0.2191 -0.7913
25415SOL     OW87968   9.783   3.390  11.219 -0.1637  0.5972 -0.2728
25415SOL    HW187969   9.707   3.418  11.168  0.2799  0.5362 -0.9738
25415SOL    HW287970   9.853   3.378  11.155  0.0004 -0.9472  0.1543
25416SOL     OW87971   3.353   6.764   1.939  0.0188  0.1629  0.1155
25416SOL    HW187972   3.437   6.791   1.903 -0.4086  0.7235 -0.4828
25416SOL    HW287973   3.375   6.692   1.999  0.8584 -0.0672 -0.4424
25417SOL     OW87974   6.641   5.616   5.716 -0.2841 -0.0196  0.0785
25417SOL    HW187975   6.672   5.707   5.712  3.4503 -1.1709 -1.6565
25417SOL    HW287976   6.609   5.606   5.805 -0.4161  2.8482  0.4602
25418SOL     OW87977   6.012   8.024   5.085 -0.3198  0.1013  0.7894
25418SOL    HW187978   6.048   7.937   5.100 -0.7511 -0.0410  1.0050
25418SOL    HW287979   6.069   8.063   5.019 -0.9858 -0.8763 -0.3861
25419SOL     OW87980   3.440  10.887  11.058 -0.5776 -0.2349 -0.0803
25419SOL    HW187981   3.388  10.966  11.041 -0.1611  0.3546  1.2200
25419SOL    HW287982   3.378  10.825  11.096 -1.1223 -0.9310 -1.9671
25420SOL     OW87983   5.384   6.158   4.617 -0.0992 -0.1549 -0.2837
25420SOL    HW187984   5.378   6.248   4.650 -1.0903 -0.2298 -0.2398
25420SOL    HW287985   5.432   6.111   4.685 -0.5852  0.0952  0.2432
25421SOL     OW87986   0.910   2.147   6.623 -0.0179  0.3463 -0.0186
25421SOL    HW187987   0.987   2.122   6.674  1.1433  1.1053 -1.3301
25421SOL    HW287988   0.864   2.211   6.679  0.3255 -0.0656  0.7464
25422SOL     OW87989   1.693  11.831  10.540 -0.1454  0.7219 -0.3919
25422SOL    HW187990   1.714  11.772  10.467  0.4368  0.1111  0.2555
25422SOL    HW287991   1.775  11.841  10.587 -0.6215  0.7257  0.4508
25423SOL     OW87992  10.605   0.105   5.493 -0.1363 -0.6562  0.0347
25423SOL    HW187993  10.632   0.083   5.404 -0.4608 -1.7957  0.2069
25423SOL    HW287994  10.514   0.135   5.483  0.1300  0.1286 -0.1279
25424SOL     OW87995   5.154   9.441   3.754 -0.0960 -0.9825 -0.3885
25424SOL    HW187996   5.127   9.465   3.842 -0.7006 -0.1591 -0.7753
25424SOL    HW287997   5.248   9.427   3.759  0.1718  0.7537  0.0499
25425SOL     OW87998   2.355  10.762   1.153 -0.4607  0.0390  0.5757
25425SOL    HW187999   2.381  10.813   1.230 -0.0509 -0.3284  0.6840
25425SOL    HW288000   2.380  10.672   1.174 -2.0120 -0.3821  0.7768
25426SOL     OW88001   7.919   0.404   1.456  0.0667  0.2774  0.2135
25426SOL    HW188002   7.872   0.472   1.504  0.8771  0.7921  0.2901
25426SOL    HW288003   7.918   0.329   1.515 -1.5860 -0.0858 -0.2180
25427SOL     OW88004   6.804  10.433   9.981 -0.2571 -0.1135  0.1095
25427SOL    HW188005   6.801  10.423  10.076 -0.1919 -2.4928 -0.0751
25427SOL    HW288006   6.723  10.479   9.960  0.1748  1.2914  1.3673
25428SOL     OW88007   9.851  11.689   0.003  0.0900 -0.0886 -0.3093
25428SOL    HW188008   9.806  11.606   0.019 -1.4157  0.8132  0.3365
25428SOL    HW288009   9.891  11.712   0.087  0.4718 -0.1222 -0.4759
25429SOL     OW88010   4.611   9.576   6.529  0.0721 -0.0851 -0.3620
25429SOL    HW188011   4.526   9.535   6.542 -0.6682  1.4245 -0.2382
25429SOL    HW288012   4.621   9.581   6.434 -0.2100  0.2026 -0.3770
25430SOL     OW88013   8.282   9.105   2.645 -0.6240 -0.0142 -0.0993
25430SOL    HW188014   8.284   9.064   2.731 -1.6446 -1.2791 -0.6420
25430SOL    HW288015   8.325   9.041   2.587  0.3588  0.9674 -0.4885
25431SOL     OW88016   2.353   4.443   4.597  0.5089  0.1505  0.1920
25431SOL    HW188017   2.434   4.453   4.546  0.8687  2.0898  1.0724
25431SOL    HW288018   2.293   4.507   4.560  0.2109  0.4210  1.1175
25432SOL     OW88019   0.855   4.578   3.969 -0.0328 -0.0429  0.3704
25432SOL    HW188020   0.820   4.580   4.058  0.8184  0.5206  0.7080
25432SOL    HW288021   0.930   4.637   3.972 -0.6255  0.8214 -1.0013
25433SOL     OW88022   2.530   7.756   2.603 -0.5883 -0.1549  0.7740
25433SOL    HW188023   2.493   7.844   2.617  0.0271  0.5690 -1.5651
25433SOL    HW288024   2.622   7.764   2.629 -0.1355  0.4042 -0.8498
25434SOL     OW88025  11.639   4.770   1.056 -0.0779  0.5976 -0.2939
25434SOL    HW188026  11.550   4.806   1.050 -0.2564  0.5128  1.3421
25434SOL    HW288027  11.678   4.815   1.131 -0.1272 -2.1361  1.4965
25435SOL     OW88028  10.525   3.422   9.192 -0.6534 -0.3975 -0.3005
25435SOL    HW188029  10.475   3.493   9.151 -2.0983 -1.4508 -0.4494
25435SOL    HW288030  10.596   3.404   9.130 -0.9725  0.1219 -0.8334
25436SOL     OW88031   6.723   3.420   0.039 -0.1747  0.2078 -0.2922
25436SOL    HW188032   6.806   3.454   0.074 -1.5745 -0.0910  3.9384
25436SOL    HW288033   6.746   3.335   0.001  1.8139  1.3234 -1.7232
25437SOL     OW88034   8.567   0.028   8.818 -0.2327 -0.3673 -0.3984
25437SOL    HW188035   8.626   0.071   8.879  1.8428 -1.4432 -1.5280
25437SOL    HW288036   8.494   0.089   8.807  1.8210  2.1804 -0.7690
25438SOL     OW88037   4.907   8.349   4.237 -0.0566  0.1929  0.0322
25438SOL    HW188038   4.873   8.410   4.303  1.6275  0.7017  0.4829
25438SOL    HW288039   4.965   8.402   4.183  1.4998 -0.9791  0.4704
25439SOL     OW88040   2.689   9.296   3.119 -0.4857  0.2752  0.3616
25439SOL    HW188041   2.625   9.244   3.070  0.3032 -0.2885 -0.0762
25439SOL    HW288042   2.761   9.236   3.137 -0.3314  0.7418  1.3809
25440SOL     OW88043   5.434   3.182  10.764 -0.0608  0.0085 -0.5753
25440SOL    HW188044   5.440   3.256  10.704  1.6522 -1.2661 -2.1038
25440SOL    HW288045   5.389   3.217  10.841 -2.3087  1.7324 -2.5266
25441SOL     OW88046   7.667   3.080  10.083 -0.5975 -0.0765 -0.2465
25441SOL    HW188047   7.647   3.139  10.156  1.2868  0.4998 -0.1424
25441SOL    HW288048   7.600   3.099  10.017 -0.8997  1.1143  0.3826
25442SOL     OW88049  11.787   3.596   3.057 -0.4168 -0.2902  0.1852
25442SOL    HW188050  11.750   3.679   3.086  1.6117  0.3410  1.1981
25442SOL    HW288051  11.831   3.618   2.974  1.5910  0.1550  1.2848
25443SOL     OW88052   1.684   1.167  11.871  0.7448 -0.0440 -0.1889
25443SOL    HW188053   1.656   1.201  11.787  1.1802 -0.5814 -0.5592
25443SOL    HW288054   1.744   1.234  11.905  0.4911  0.2184 -0.2522
25444SOL     OW88055   6.233   9.793   5.449 -0.4553  0.5542  0.1531
25444SOL    HW188056   6.326   9.801   5.470 -0.5356  0.5291  0.5234
25444SOL    HW288057   6.223   9.704   5.414 -0.0127  1.1717 -1.6191
25445SOL     OW88058   9.117   2.854   2.067  0.7179 -0.1241 -0.3155
25445SOL    HW188059   9.194   2.883   2.018  0.3021  0.5709 -0.5732
25445SOL    HW288060   9.058   2.929   2.066 -0.3023 -0.9087 -0.7853
25446SOL     OW88061   5.356   3.798  11.327 -0.1860  0.5406 -0.1056
25446SOL    HW188062   5.303   3.720  11.313 -1.0247  0.9047  0.9400
25446SOL    HW288063   5.293   3.869  11.333  0.6065  1.5168 -2.2128
25447SOL     OW88064  10.826   2.950   9.382  0.2506  0.0773  0.0568
25447SOL    HW188065  10.852   2.858   9.388  1.0445  0.3499  1.0555
25447SOL    HW288066  10.741   2.954   9.427 -0.0532 -0.2546 -0.4731
25448SOL     OW88067   7.521   9.275   0.049 -0.3804  0.1194  0.4602
25448SOL    HW188068   7.478   9.336  -0.011 -0.6630  0.0140  0.5558
25448SOL    HW288069   7.522   9.192   0.001 -1.2042 -0.1317  0.8563
25449SOL     OW88070   1.996   1.899   8.559 -0.4688 -0.3275  0.5299
25449SOL    HW188071   1.979   1.864   8.646  0.2129 -1.8207  0.0994
25449SOL    HW288072   1.926   1.862   8.504  0.4651 -1.3493 -0.0040
25450SOL     OW88073   8.612   4.541   0.692 -0.0395  0.1041 -0.5708
25450SOL    HW188074   8.599   4.636   0.682  0.4109  0.2004 -0.2810
25450SOL    HW288075   8.530   4.510   0.730  0.6561  0.7573  1.5780
25451SOL     OW88076   1.153   1.948   3.632  0.2322 -0.5724  0.3237
25451SOL    HW188077   1.117   1.960   3.544 -0.3749  2.3896  0.8759
25451SOL    HW288078   1.244   1.974   3.625  1.1973 -3.6539 -0.0685
25452SOL     OW88079  11.145   2.688  10.238 -0.0561  0.5651  0.3801
25452SOL    HW188080  11.071   2.717  10.184 -0.4525 -0.6971  0.2137
25452SOL    HW288081  11.167   2.764  10.292 -0.8044  1.2812 -0.3020
25453SOL     OW88082   0.250   9.801   5.686  0.1082 -0.3756 -0.3412
25453SOL    HW188083   0.238   9.765   5.598 -2.6092  0.8011 -0.5485
25453SOL    HW288084   0.315   9.870   5.674 -0.6361  0.1494 -1.5868
25454SOL     OW88085  11.845   0.796   6.206 -0.4672 -0.3241  0.2948
25454SOL    HW188086  11.774   0.855   6.229  0.7461  0.2513  2.9577
25454SOL    HW288087  11.901   0.847   6.147 -0.0019  0.8376  1.6948
25455SOL     OW88088   3.002   7.795   9.261 -0.4743  0.5432 -0.0934
25455SOL    HW188089   3.051   7.872   9.232 -0.4534 -0.0689 -1.7843
25455SOL    HW288090   2.916   7.830   9.286 -0.1926  1.2220 -0.0587
25456SOL     OW88091   0.875   0.342   2.936  0.2631 -0.2144  0.8418
25456SOL    HW188092   0.934   0.356   2.861  1.4942  0.5906  1.9224
25456SOL    HW288093   0.791   0.378   2.907  0.7791  0.2986 -0.0657
25457SOL     OW88094   6.975  11.579   5.145 -0.1626 -0.5117  0.1768
25457SOL    HW188095   7.068  11.598   5.130 -0.3457 -0.5583 -1.0563
25457SOL    HW288096   6.944  11.653   5.198  0.5627 -0.4870  0.5894
25458SOL     OW88097  11.317   1.826   7.862  0.3264  0.2718 -0.8887
25458SOL    HW188098  11.299   1.744   7.817  1.4701 -1.2287  1.1887
25458SOL    HW288099  11.248   1.832   7.928  0.2227  1.0171 -1.0613
25459SOL     OW88100   4.206  11.153   9.654 -0.4325 -0.3156 -0.6478
25459SOL    HW188101   4.299  11.133   9.664 -0.7039 -2.0116 -1.2303
25459SOL    HW288102   4.202  11.207   9.574  0.1567  0.8607  0.0855
25460SOL     OW88103   4.255   8.230  11.678 -0.1650  0.1313 -0.0575
25460SOL    HW188104   4.282   8.298  11.617 -0.9537  1.0443  0.5930
25460SOL    HW288105   4.192   8.177  11.629 -0.8454  0.9005 -0.0198
25461SOL     OW88106   0.024  11.818  10.182  0.2589 -0.1144  0.2842
25461SOL    HW188107   0.101  11.861  10.218  1.8179 -1.7298 -0.9441
25461SOL    HW288108   0.011  11.740  10.237  0.5071 -0.7066 -0.4777
25462SOL     OW88109   8.578   8.327   1.211  0.2460  0.1492 -0.5176
25462SOL    HW188110   8.524   8.284   1.144  0.5024  0.7692 -1.1395
25462SOL    HW288111   8.662   8.341   1.167  0.4659  0.4212 -0.0069
25463SOL     OW88112  10.369   4.177   1.001  0.8861 -0.0952  0.0901
25463SOL    HW188113  10.285   4.167   1.045  0.0961  0.1618 -1.2943
25463SOL    HW288114  10.404   4.089   0.994  0.2602 -0.3230 -0.2017
25464SOL     OW88115   0.287   6.643   5.291 -0.1492  0.5330 -0.0964
25464SOL    HW188116   0.221   6.631   5.222 -0.4575 -0.1911  0.3115
25464SOL    HW288117   0.367   6.668   5.244 -0.3918  0.1859 -0.7033
25465SOL     OW88118   6.543  10.638   5.029 -0.3960  0.0570  0.2389
25465SOL    HW188119   6.621  10.687   5.054 -0.1646 -0.0653 -0.2146
25465SOL    HW288120   6.565  10.547   5.047 -0.9216  0.1308  1.3266
25466SOL     OW88121   9.852   0.412   1.107  0.5491 -0.2044 -0.5689
25466SOL    HW188122   9.891   0.355   1.040 -0.1850 -0.3914 -0.8458
25466SOL    HW288123   9.896   0.496   1.095 -0.1269 -0.0043 -1.8236
25467SOL     OW88124   7.875   8.446   8.162  0.1005  0.0935  0.5972
25467SOL    HW188125   7.859   8.534   8.128 -1.1234  0.2982  1.6580
25467SOL    HW288126   7.793   8.421   8.205  0.7925 -1.1320  1.2563
25468SOL     OW88127   8.452   3.752   2.497  0.0162  0.4703 -0.1537
25468SOL    HW188128   8.437   3.678   2.438  1.1124 -0.2891  0.4907
25468SOL    HW288129   8.387   3.742   2.566  0.1988  0.0564 -0.0357
25469SOL     OW88130   7.455   0.913   7.478 -0.0735  0.4156 -0.3168
25469SOL    HW188131   7.491   0.858   7.408 -1.3353  0.0352 -0.6957
25469SOL    HW288132   7.466   1.003   7.445 -0.2887  0.2593 -0.8273
25470SOL     OW88133   2.841   9.291   9.062 -0.5334 -0.3778 -0.7531
25470SOL    HW188134   2.935   9.276   9.065 -0.8973 -3.8078 -2.1905
25470SOL    HW288135   2.830   9.367   9.006  1.3538  0.3336 -0.2195
25471SOL     OW88136   5.101   0.831  10.777 -0.0946 -0.0046 -0.0491
25471SOL    HW188137   5.075   0.815  10.687  2.9074 -2.7131 -0.6519
25471SOL    HW288138   5.145   0.916  10.775 -1.4286  0.6942 -0.7467
25472SOL     OW88139   5.963   7.164  11.174  0.2705 -0.6260 -0.6487
25472SOL    HW188140   5.944   7.148  11.081 -0.9609 -0.6716 -0.4120
25472SOL    HW288141   5.946   7.080  11.217  1.1490 -0.6928 -0.4130
25473SOL     OW88142   7.966   5.796  11.504  0.1829 -0.5794  0.2817
25473SOL    HW188143   7.882   5.819  11.543  0.1884 -0.9830  0.5451
25473SOL    HW288144   8.029   5.855  11.545  0.2117 -1.0983  1.0027
25474SOL     OW88145   2.842   3.685   2.871 -0.6132  0.2332 -0.3834
25474SOL    HW188146   2.922   3.643   2.840  0.2284  1.9051 -0.5889
25474SOL    HW288147   2.809   3.733   2.795 -1.5391 -0.0141 -0.1525
25475SOL     OW88148   3.190   0.774   3.550  0.6710  0.6772 -0.0893
25475SOL    HW188149   3.109   0.766   3.499  0.5840  1.3431 -0.0698
25475SOL    HW288150   3.209   0.685   3.578 -0.2361  0.5496  0.1744
25476SOL     OW88151   6.500   3.811   4.446  0.1373  0.1332 -0.2944
25476SOL    HW188152   6.420   3.805   4.394 -0.3175 -1.7490  0.5688
25476SOL    HW288153   6.469   3.821   4.536  0.7867 -2.1450  0.2373
25477SOL     OW88154   0.390   4.510  10.637  0.4524  0.2493 -0.2854
25477SOL    HW188155   0.452   4.482  10.705  0.1586  1.8014  0.6615
25477SOL    HW288156   0.349   4.589  10.672 -1.0287  0.0807 -1.5160
25478SOL     OW88157   0.951  11.666   8.650 -0.0331  0.1242  0.0116
25478SOL    HW188158   1.046  11.664   8.638  0.2666 -1.3973  2.0801
25478SOL    HW288159   0.933  11.754   8.684  0.5096  0.6516 -1.0146
25479SOL     OW88160   2.558   5.043   6.681  0.3991 -0.0341  0.2950
25479SOL    HW188161   2.467   5.069   6.667  0.9325  1.8283  0.0841
25479SOL    HW288162   2.580   4.989   6.606  0.4671  2.3417 -1.5075
25480SOL     OW88163   7.784  10.496   7.629  0.0603 -0.0614  0.6447
25480SOL    HW188164   7.738  10.540   7.700  0.3659  0.0860  0.7523
25480SOL    HW288165   7.761  10.403   7.640 -1.8172  0.2197 -0.4914
25481SOL     OW88166   9.821   7.095   9.389  0.1346  0.0691  0.3440
25481SOL    HW188167   9.789   7.181   9.416  1.1441  0.4141  0.5016
25481SOL    HW288168   9.789   7.035   9.456  0.1046  0.4519  0.6748
25482SOL     OW88169   2.252   4.186   4.545 -0.4189 -0.0069 -0.0029
25482SOL    HW188170   2.331   4.139   4.518 -1.1867 -0.3859 -1.7553
25482SOL    HW288171   2.270   4.277   4.522  0.4030  0.3252  1.8137
25483SOL     OW88172   3.271   3.097   7.500 -0.2165 -0.0240  0.0945
25483SOL    HW188173   3.190   3.050   7.482 -0.7581  0.1020  1.9821
25483SOL    HW288174   3.265   3.121   7.592  0.3953  3.0368 -0.5448
25484SOL     OW88175   9.572   9.899   6.386 -0.1964 -0.4883 -0.6208
25484SOL    HW188176   9.499   9.941   6.341  0.7004 -0.1493 -1.8211
25484SOL    HW288177   9.582   9.815   6.340 -0.3373 -0.8901  0.0709
25485SOL     OW88178   3.445   5.296   2.119 -0.0905  0.0700 -0.0676
25485SOL    HW188179   3.419   5.321   2.207  1.9720 -0.9849  0.9388
25485SOL    HW288180   3.477   5.376   2.079  0.8052  0.2134  0.8971
25486SOL     OW88181   8.840   2.547  10.691 -0.6707 -0.1486 -0.6117
25486SOL    HW188182   8.910   2.576  10.633 -0.4003  2.7669  1.0040
25486SOL    HW288183   8.885   2.500  10.761 -0.5490  0.0798 -0.5379
25487SOL     OW88184   9.801  11.270   4.292 -0.3658  0.0852 -0.1286
25487SOL    HW188185   9.785  11.268   4.387  0.7838  1.0161  0.1087
25487SOL    HW288186   9.810  11.178   4.268 -1.7463 -0.2372  0.4501
25488SOL     OW88187   2.809   5.183   9.577 -0.1200 -0.4299 -0.0716
25488SOL    HW188188   2.897   5.175   9.614 -0.3483 -0.8628  0.3863
25488SOL    HW288189   2.814   5.136   9.494 -0.5040 -2.4350  0.9867
25489SOL     OW88190  11.705   5.528   5.214  0.3631  0.1297  0.6009
25489SOL    HW188191  11.674   5.618   5.199  2.1944  0.5226 -1.2565
25489SOL    HW288192  11.626   5.475   5.206 -0.2460  1.2327 -2.3231
25490SOL     OW88193   4.310   2.959   1.292 -0.3253  0.2682  0.9593
25490SOL    HW188194   4.236   2.899   1.297 -0.1843 -0.0345 -0.2407
25490SOL    HW288195   4.275   3.038   1.251  0.0488  0.0515  0.2058
25491SOL     OW88196   1.584   5.694   7.389  0.4855 -0.3787  0.5081
25491SOL    HW188197   1.584   5.741   7.305 -1.5966 -1.3100 -0.0891
25491SOL    HW288198   1.575   5.763   7.455 -0.7742  0.2129 -0.2390
25492SOL     OW88199  10.398   2.168   4.237  0.6930  0.4012  0.2645
25492SOL    HW188200  10.479   2.136   4.275  1.3079  1.4109 -0.1449
25492SOL    HW288201  10.371   2.100   4.176 -0.4126 -1.3545  2.5560
25493SOL     OW88202   5.633   3.308   0.186  0.3445 -0.2949  0.5581
25493SOL    HW188203   5.640   3.395   0.147  1.7415  0.3218  2.0905
25493SOL    HW288204   5.576   3.260   0.126 -1.1566  1.8969  0.0778
25494SOL     OW88205   4.260  11.311   6.182  0.2373 -1.0808 -0.2205
25494SOL    HW188206   4.270  11.258   6.261 -0.9661 -1.6684 -0.4348
25494SOL    HW288207   4.344  11.303   6.136  0.6907 -1.3244  0.6379
25495SOL     OW88208  11.197   4.955   2.283 -0.0198  0.1493 -0.2977
25495SOL    HW188209  11.124   5.014   2.301 -0.2019 -0.4424  0.9627
25495SOL    HW288210  11.160   4.889   2.224 -0.0996  0.6492 -0.8278
25496SOL     OW88211   1.718   9.381   5.918  0.3139  0.2176  0.4489
25496SOL    HW188212   1.706   9.426   6.001 -1.0672  0.0482  0.3587
25496SOL    HW288213   1.806   9.405   5.890  0.2266  1.4894  1.2233
25497SOL     OW88214   3.720  11.201   3.777  0.2467  0.2778 -0.4723
25497SOL    HW188215   3.703  11.190   3.684 -0.2112 -0.2058 -0.3347
25497SOL    HW288216   3.815  11.211   3.784  0.2366  0.8016 -1.0364
25498SOL     OW88217   3.263  10.599  11.775 -1.1695  0.6472  0.2195
25498SOL    HW188218   3.169  10.586  11.769 -0.9892 -0.3395 -1.0604
25498SOL    HW288219   3.274  10.692  11.794 -2.4014  0.7586  0.4347
25499SOL     OW88220  11.303   3.380   9.135  0.0018  0.1065  0.3058
25499SOL    HW188221  11.220   3.411   9.100  0.0131  0.1788  0.3412
25499SOL    HW288222  11.353   3.352   9.059 -0.8175 -1.8353  0.4235
25500SOL     OW88223   3.848   4.698   3.749 -0.3410 -0.4111  0.1637
25500SOL    HW188224   3.768   4.689   3.800 -1.4573  0.8044 -1.2830
25500SOL    HW288225   3.883   4.784   3.775 -1.3733  0.6128 -1.6276
25501SOL     OW88226   1.991   4.632   0.792 -0.2662 -0.0644  0.0278
25501SOL    HW188227   1.981   4.537   0.784  0.8834 -0.2421  0.4677
25501SOL    HW288228   2.039   4.658   0.713  0.5278 -0.0467  0.5077
25502SOL     OW88229   8.062   5.955   5.775 -0.0802  0.9320 -0.3213
25502SOL    HW188230   8.078   5.881   5.717 -0.9958 -0.6180  1.2929
25502SOL    HW288231   7.974   5.940   5.810  0.1556  2.1634  0.9217
25503SOL     OW88232   7.880   1.818   9.057 -0.1345  0.4695  0.3047
25503SOL    HW188233   7.881   1.851   9.147 -0.8373  0.9612  0.1433
25503SOL    HW288234   7.970   1.826   9.028  0.1122  0.2479  0.9840
25504SOL     OW88235   7.658   8.103   3.321 -0.2871 -0.1649 -0.7894
25504SOL    HW188236   7.653   8.011   3.293  0.2552 -0.3361 -0.3238
25504SOL    HW288237   7.748   8.115   3.351 -0.9022 -0.0538  1.1185
25505SOL     OW88238   9.595   9.748   1.527 -0.1240  0.3476  0.0613
25505SOL    HW188239   9.601   9.716   1.437  1.5930  0.7550  0.0095
25505SOL    HW288240   9.684   9.744   1.560 -0.2740  2.6075  0.9133
25506SOL     OW88241   6.223   0.550   3.687  0.2941  0.1153 -0.2887
25506SOL    HW188242   6.128   0.564   3.687  0.1182 -0.9185  0.9375
25506SOL    HW288243   6.255   0.602   3.761  0.6910  0.4554 -0.6938
25507SOL     OW88244  11.235   2.092   3.555  0.0527  0.0548  0.5398
25507SOL    HW188245  11.154   2.067   3.509  0.2962  0.3029 -0.0349
25507SOL    HW288246  11.304   2.079   3.490  0.4610  0.0044  0.9766
25508SOL     OW88247   7.046  11.891   0.437 -0.0606  0.0225  0.1251
25508SOL    HW188248   6.961  11.849   0.427  0.5164 -1.7636  2.1025
25508SOL    HW288249   7.060  11.897   0.531  2.0179  0.2296 -0.1400
25509SOL     OW88250  11.535   1.601  11.517  0.2148 -0.4495 -0.2647
25509SOL    HW188251  11.588   1.679  11.499 -2.1731  1.2694 -0.2794
25509SOL    HW288252  11.533   1.553  11.435  1.0478 -0.1152 -0.4887
25510SOL     OW88253   7.798   7.244   6.108 -0.0189  0.0266 -0.9417
25510SOL    HW188254   7.843   7.320   6.143 -1.2811 -0.2533  1.5111
25510SOL    HW288255   7.716   7.240   6.157 -0.6678 -2.0314 -2.0839
25511SOL     OW88256  11.005   6.729  11.204  0.1996  0.1112  0.4877
25511SOL    HW188257  11.084   6.688  11.240  0.1884  0.7496  1.2674
25511SOL    HW288258  11.002   6.815  11.245  0.2148  0.9065 -1.1134
25512SOL     OW88259   6.042   7.036   9.859  0.0547  0.6256  0.0837
25512SOL    HW188260   6.108   6.999   9.916 -0.1290  1.4506  0.8594
25512SOL    HW288261   5.971   7.064   9.918 -0.8279  0.0846 -0.6918
25513SOL     OW88262   7.297   7.525   5.049 -0.2086  0.3089  0.1995
25513SOL    HW188263   7.316   7.434   5.025  0.6985  0.6415 -0.3675
25513SOL    HW288264   7.358   7.577   4.998 -2.0078  1.3838 -0.9805
25514SOL     OW88265   1.142   4.118   2.881 -0.1616 -0.1756  0.3093
25514SOL    HW188266   1.047   4.113   2.893 -0.1218 -2.3077  0.2046
25514SOL    HW288267   1.160   4.059   2.807  1.4078 -1.4223  1.6054
25515SOL     OW88268   7.884   3.764  10.559  0.1156 -0.0375  0.2367
25515SOL    HW188269   7.818   3.695  10.569  0.6321 -0.5616  0.0289
25515SOL    HW288270   7.919   3.776  10.648  0.0108 -0.0304  0.2774
25516SOL     OW88271   8.466   1.539   0.172 -0.1570 -0.5791 -0.0313
25516SOL    HW188272   8.504   1.471   0.227  1.6702  1.2956  1.2181
25516SOL    HW288273   8.518   1.536   0.091  0.0654 -0.5377  0.1091
25517SOL     OW88274   9.314   1.310   3.655 -0.4773 -0.2157 -0.4951
25517SOL    HW188275   9.361   1.365   3.718 -1.5934  0.4903 -0.2474
25517SOL    HW288276   9.323   1.221   3.688  1.4921 -0.2367 -0.9769
25518SOL     OW88277   1.441   9.079  11.656  0.1125  0.3861  0.1737
25518SOL    HW188278   1.408   9.081  11.746 -0.7775  2.2695 -0.1546
25518SOL    HW288279   1.466   9.169  11.637  0.1649  0.0530 -1.5227
25519SOL     OW88280   8.311   9.620   4.371 -0.0682 -0.4724 -0.0694
25519SOL    HW188281   8.291   9.682   4.301  0.9088 -2.5771 -2.3695
25519SOL    HW288282   8.393   9.651   4.408  0.0481 -0.0056 -0.7032
25520SOL     OW88283   2.348   1.003  11.392 -0.2925 -0.2326  0.3348
25520SOL    HW188284   2.300   1.073  11.348  1.5014 -0.3906 -2.0387
25520SOL    HW288285   2.407   1.049  11.452 -1.2491  0.0842  1.0722
25521SOL     OW88286   6.702   0.437   4.312  0.1677  0.0294  0.3283
25521SOL    HW188287   6.775   0.457   4.253  0.3094  1.8396  1.0586
25521SOL    HW288288   6.628   0.421   4.254  1.2500 -2.6300 -0.4719
25522SOL     OW88289   5.023   2.521   4.329 -0.1084  0.1534 -0.1132
25522SOL    HW188290   4.995   2.517   4.421 -0.6172  2.2534 -0.1095
25522SOL    HW288291   4.997   2.609   4.301  3.3008  0.9859 -1.1537
25523SOL     OW88292   9.954   4.280  11.311 -0.2693 -0.1319  0.6094
25523SOL    HW188293   9.931   4.199  11.266 -0.0573  0.2838 -0.2574
25523SOL    HW288294   9.912   4.272  11.397 -2.5477  0.0033 -0.4107
25524SOL     OW88295   5.113   5.781   1.800 -0.1581  0.1354  0.0384
25524SOL    HW188296   5.167   5.855   1.771 -0.1991  0.2682  0.2944
25524SOL    HW288297   5.032   5.822   1.832 -2.0467 -0.1874 -3.6861
25525SOL     OW88298   9.182  10.896   8.741 -0.2601  0.2821  0.4971
25525SOL    HW188299   9.143  10.981   8.726 -1.9391 -0.7690 -1.6879
25525SOL    HW288300   9.123  10.852   8.802  0.5233  0.6114  1.5077
25526SOL     OW88301   9.028  11.954   8.955 -0.3199  0.0294 -0.0616
25526SOL    HW188302   9.098  11.890   8.940  0.5355  0.8432  0.3343
25526SOL    HW288303   8.985  11.923   9.035  0.7989  0.5172  0.7657
25527SOL     OW88304   7.601   3.235  10.311  0.6274 -0.0314  0.0573
25527SOL    HW188305   7.665   3.286  10.361  0.0047 -0.0311  0.8794
25527SOL    HW288306   7.517   3.276  10.331  0.3755  0.0342 -1.0964
25528SOL     OW88307   1.816   1.042  10.293  0.5853 -0.0754  0.2610
25528SOL    HW188308   1.770   1.126  10.288  1.4269  0.4324  0.7878
25528SOL    HW288309   1.746   0.976  10.299 -0.0829  0.6838  1.1918
25529SOL     OW88310   7.112   5.926   9.766  0.0395  0.3369  0.0454
25529SOL    HW188311   7.103   5.831   9.775  0.1162  0.3030 -0.2114
25529SOL    HW288312   7.046   5.962   9.824  0.9690  0.1497  1.2633
25530SOL     OW88313   8.266   8.570   7.090  0.0710  0.4068 -0.2743
25530SOL    HW188314   8.267   8.643   7.028  1.4095 -0.7573 -1.7004
25530SOL    HW288315   8.182   8.527   7.074 -0.3859  1.1626  0.0256
25531SOL     OW88316   3.276   2.424   5.445  0.0525 -0.3189 -0.3352
25531SOL    HW188317   3.249   2.333   5.451 -0.6567 -0.0146  2.2293
25531SOL    HW288318   3.263   2.459   5.533 -0.6732  2.5464 -1.4671
25532SOL     OW88319   6.287   2.841   9.337 -0.0729  0.0135 -0.1581
25532SOL    HW188320   6.313   2.839   9.429  1.4893  0.3550 -0.5665
25532SOL    HW288321   6.318   2.759   9.301  0.0859  0.2566 -0.5793
25533SOL     OW88322   8.568  11.475   3.216 -0.5701  0.3301  0.1448
25533SOL    HW188323   8.651  11.501   3.255 -1.1096  2.1924  0.1536
25533SOL    HW288324   8.521  11.431   3.287 -0.0104  0.1875  0.4337
25534SOL     OW88325   1.520   0.243   4.633  0.1340  0.3263  0.1901
25534SOL    HW188326   1.528   0.314   4.569  0.3321 -0.7343 -1.0176
25534SOL    HW288327   1.431   0.251   4.667 -0.5255  0.0362 -1.3556
25535SOL     OW88328   7.956  10.112   9.584  0.7060  0.0105 -0.3124
25535SOL    HW188329   7.972  10.030   9.630  2.4963  0.6929  0.3804
25535SOL    HW288330   8.021  10.172   9.619  1.1963  0.9851 -2.6858
25536SOL     OW88331   7.447  10.877   5.472  0.3528  0.2458 -0.1509
25536SOL    HW188332   7.363  10.889   5.428  1.2589  1.1208 -1.7337
25536SOL    HW288333   7.502  10.832   5.407  1.6020  1.1420  0.2416
25537SOL     OW88334   8.735   7.822   5.859  0.0474 -0.6847 -0.0545
25537SOL    HW188335   8.694   7.741   5.829 -0.2883 -0.1762 -1.0332
25537SOL    HW288336   8.735   7.879   5.781 -0.9163  0.7412  0.9478
25538SOL     OW88337   8.884   9.003  10.317  0.4060  0.6190 -0.2603
25538SOL    HW188338   8.857   9.031  10.230  2.3899 -0.3383 -1.2568
25538SOL    HW288339   8.829   9.054  10.377 -0.2058  2.1611 -2.0332
25539SOL     OW88340  11.874   2.090   6.259 -0.1951 -0.0891  0.6258
25539SOL    HW188341  11.893   2.131   6.175  0.8563 -0.6738  0.5577
25539SOL    HW288342  11.919   2.144   6.324 -1.0604  0.4011  0.8396
25540SOL     OW88343   5.812   4.799   0.915 -0.0150  0.4109  0.0779
25540SOL    HW188344   5.908   4.799   0.926  0.1233 -0.9315 -0.9281
25540SOL    HW288345   5.779   4.790   1.005  0.8477 -0.5174  0.3297
25541SOL     OW88346   5.650   5.103   5.633 -0.8254 -0.2448 -0.2708
25541SOL    HW188347   5.720   5.039   5.648 -0.7576 -0.2710 -0.6809
25541SOL    HW288348   5.606   5.111   5.717 -0.0973  0.0490  0.0927
25542SOL     OW88349   7.293   6.440  11.380  0.2664 -0.1462 -0.2981
25542SOL    HW188350   7.315   6.429  11.473 -0.2097 -0.7932 -0.2500
25542SOL    HW288351   7.201   6.466  11.380  0.5627  0.9287 -0.5556
25543SOL     OW88352   0.520   2.651   9.109 -0.5144 -0.2296  0.6415
25543SOL    HW188353   0.470   2.660   9.028  1.4440 -0.7885 -0.7120
25543SOL    HW288354   0.454   2.635   9.177 -2.2479  0.8146 -0.7274
25544SOL     OW88355  10.350  10.067   7.107 -0.0608 -0.0517 -0.0286
25544SOL    HW188356  10.290  10.133   7.072 -0.5134 -0.7388 -0.6036
25544SOL    HW288357  10.314  10.044   7.192  1.1043  1.7120  1.0097
25545SOL     OW88358   7.876   1.038  10.358 -0.3499 -0.1083 -0.6303
25545SOL    HW188359   7.892   0.994  10.442 -0.3152 -1.5359 -1.3625
25545SOL    HW288360   7.864   0.966  10.295 -3.1778  0.8449 -1.3505
25546SOL     OW88361   8.492   9.146   0.682 -0.1403  0.1091 -0.3693
25546SOL    HW188362   8.466   9.077   0.743  1.9124 -0.5813 -0.1990
25546SOL    HW288363   8.531   9.214   0.737 -0.0785  0.3762 -0.7382
25547SOL     OW88364   4.798   4.108  10.820  0.6780  0.2191 -0.2746
25547SOL    HW188365   4.868   4.062  10.774  1.5681  0.1327  1.0837
25547SOL    HW288366   4.733   4.129  10.753  1.1816 -1.2659 -1.2565
25548SOL     OW88367   6.797  11.788   1.629  0.0762 -0.0660 -0.2328
25548SOL    HW188368   6.864  11.856   1.635  1.6182 -1.5472  0.2324
25548SOL    HW288369   6.788  11.757   1.719 -1.7041  0.5081 -0.1904
25549SOL     OW88370   6.589   7.171   3.957  0.0368 -0.2947  0.4249
25549SOL    HW188371   6.613   7.129   4.040  0.2873  2.2393  1.7327
25549SOL    HW288372   6.663   7.151   3.899  0.8851 -0.3556  1.4809
25550SOL     OW88373   4.773   2.374   9.075  0.0097  0.0931 -1.0447
25550SOL    HW188374   4.777   2.467   9.099 -2.0215  0.2048 -0.9578
25550SOL    HW288375   4.799   2.327   9.154 -2.0898  0.5559 -0.0160
25551SOL     OW88376   2.061   9.366   1.166  0.0316 -0.8020  0.2240
25551SOL    HW188377   2.011   9.347   1.246  0.1236 -3.0135 -0.1646
25551SOL    HW288378   2.003   9.343   1.094 -0.3077  1.8588 -0.4329
25552SOL     OW88379   2.254   9.340   9.396 -1.2060 -1.1337  0.0353
25552SOL    HW188380   2.297   9.256   9.414  0.3851 -0.6489 -1.2866
25552SOL    HW288381   2.210   9.327   9.312 -0.0393 -0.3677 -0.7291
25553SOL     OW88382  10.480   6.873   0.331 -0.1328  0.0349  0.2272
25553SOL    HW188383  10.504   6.817   0.257 -1.4781 -0.7492  0.3533
25553SOL    HW288384  10.423   6.939   0.293 -0.0034  0.2434  0.3961
25554SOL     OW88385   8.337   1.764   4.355 -0.1245 -0.1717  0.4559
25554SOL    HW188386   8.248   1.750   4.387  0.0722 -0.7220  0.7699
25554SOL    HW288387   8.328   1.769   4.260 -0.2647 -2.1890  0.3158
25555SOL     OW88388   7.101   4.839   1.492 -0.7134 -0.0829  0.1451
25555SOL    HW188389   7.096   4.826   1.587  0.9010 -1.6817  0.0604
25555SOL    HW288390   7.052   4.920   1.476 -0.8671  0.3125  2.3574
25556SOL     OW88391   7.780   0.822   6.921  0.3485 -0.2410  0.6615
25556SOL    HW188392   7.856   0.790   6.872 -0.0981 -2.4812  1.2903
25556SOL    HW288393   7.815   0.850   7.006  0.8524  1.7674 -0.1650
25557SOL     OW88394   4.573   7.147   0.866 -0.1057 -0.2858 -0.1317
25557SOL    HW188395   4.530   7.218   0.819  0.5283  0.6400  0.6454
25557SOL    HW288396   4.502   7.101   0.911 -0.4605  0.2267 -0.1629
25558SOL     OW88397   2.043   8.280   3.694  0.4006  0.4898  0.1018
25558SOL    HW188398   2.102   8.206   3.709  0.7940  0.3854 -1.7636
25558SOL    HW288399   1.992   8.254   3.617 -0.8671  1.3260  0.6333
25559SOL     OW88400  10.204   4.774   5.636  0.1007 -0.0082 -0.1079
25559SOL    HW188401  10.114   4.746   5.621  0.3056 -0.9375  0.2693
25559SOL    HW288402  10.202   4.869   5.629 -1.2461  0.1411  1.5599
25560SOL     OW88403   4.678   3.256   3.670 -0.0831  0.5992  0.1637
25560SOL    HW188404   4.607   3.302   3.713 -0.0029  2.4750 -1.5802
25560SOL    HW288405   4.635   3.187   3.620 -0.5854  1.1138 -0.1213
25561SOL     OW88406   0.435   2.494   0.832  0.0799  0.2697  0.7562
25561SOL    HW188407   0.435   2.575   0.781  1.9085 -0.1303  0.0267
25561SOL    HW288408   0.345   2.485   0.864 -1.4698  0.1460 -3.0640
25562SOL     OW88409  10.429   4.552  11.325  0.3144 -0.0757  0.9335
25562SOL    HW188410  10.419   4.644  11.303 -0.3680 -0.0284  1.3990
25562SOL    HW288411  10.340   4.517  11.323  0.6884 -1.0113 -0.4292
25563SOL     OW88412   5.216   1.680   2.805  0.3829  0.0771  0.4765
25563SOL    HW188413   5.180   1.727   2.730  2.6509 -0.5607 -1.1217
25563SOL    HW288414   5.202   1.738   2.879 -2.0607  0.6710 -0.3813
25564SOL     OW88415   8.540   7.305   8.029  0.4553  0.6846 -0.8076
25564SOL    HW188416   8.469   7.256   8.070  1.1674 -0.3995 -0.8217
25564SOL    HW288417   8.541   7.276   7.938 -1.1613  3.1333 -1.6963
25565SOL     OW88418   5.073   5.656  11.385 -0.1557 -0.3010  0.2038
25565SOL    HW188419   5.148   5.635  11.330 -0.5512  0.3073 -0.5993
25565SOL    HW288420   5.040   5.739  11.350 -0.3762  0.1508  1.4139
25566SOL     OW88421   0.031   6.481   8.782  0.1762  0.1380 -0.4217
25566SOL    HW188422  -0.029   6.460   8.710  0.1299  1.5738 -0.8483
25566SOL    HW288423   0.044   6.576   8.774  0.7175  0.2058  1.0498
25567SOL     OW88424   3.028   7.467   2.657 -0.0213 -0.4186 -0.9289
25567SOL    HW188425   3.098   7.485   2.593 -1.0655  0.2522 -1.9155
25567SOL    HW288426   3.001   7.554   2.687  1.1490 -0.7223  1.2722
25568SOL     OW88427   8.690   2.796   5.288  0.4444 -0.1355  0.1398
25568SOL    HW188428   8.609   2.759   5.323  0.2045 -0.1681 -0.4426
25568SOL    HW288429   8.672   2.890   5.281  0.3994 -0.1667 -0.1508
25569SOL     OW88430   1.793  11.799  10.907  0.3179  0.3299 -0.1370
25569SOL    HW188431   1.853  11.751  10.850 -0.9945 -0.9810 -0.4696
25569SOL    HW288432   1.773  11.737  10.977  0.6497  1.3567  0.8906
25570SOL     OW88433   8.539   3.586   1.079  0.8478  0.3268 -0.4331
25570SOL    HW188434   8.504   3.601   0.991  0.6194  1.5137 -0.1655
25570SOL    HW288435   8.462   3.570   1.133  1.0639 -1.4733 -0.6246
25571SOL     OW88436   1.940   0.761   3.988 -0.0783 -0.0633 -0.4118
25571SOL    HW188437   1.938   0.724   3.900  0.3032 -1.4438  0.1306
25571SOL    HW288438   1.889   0.700   4.041 -0.2176  0.6948  0.3510
25572SOL     OW88439   3.803   5.219   9.665 -0.4139  0.0139  0.3036
25572SOL    HW188440   3.804   5.209   9.570 -1.1310 -3.6607  0.5462
25572SOL    HW288441   3.894   5.238   9.688 -0.1629  0.5608 -1.0597
25573SOL     OW88442   1.989   4.504   9.519  0.3825  0.2055  0.0765
25573SOL    HW188443   1.904   4.526   9.557 -0.0510 -0.1209 -0.6830
25573SOL    HW288444   2.029   4.590   9.501 -0.1589  0.3712 -0.3700
25574SOL     OW88445   7.287   8.505   6.490 -0.5341  0.1552 -0.2968
25574SOL    HW188446   7.297   8.557   6.411  1.3564  0.1000 -0.1442
25574SOL    HW288447   7.287   8.568   6.561 -4.1729  0.3978 -0.3131
25575SOL     OW88448   5.302   6.798   2.684 -0.2669  0.6161  0.8805
25575SOL    HW188449   5.267   6.798   2.594  0.2640  0.4123  0.6697
25575SOL    HW288450   5.389   6.836   2.676  0.2774 -0.5361  1.1070
25576SOL     OW88451  10.362  10.122  10.856 -0.1274 -0.5944 -0.2883
25576SOL    HW188452  10.307  10.102  10.932  0.5339 -0.2679  0.2860
25576SOL    HW288453  10.369  10.040  10.808  0.2659 -1.0578  0.5448
25577SOL     OW88454   0.613   0.953   1.638 -0.2595 -0.1444 -0.1279
25577SOL    HW188455   0.687   1.002   1.672  0.0566 -0.5531 -0.2157
25577SOL    HW288456   0.649   0.899   1.568 -0.8043  0.2776 -0.7387
25578SOL     OW88457   6.192   7.698   7.621 -0.0063  0.3615  0.2969
25578SOL    HW188458   6.257   7.649   7.571 -0.5573 -0.2694  0.1816
25578SOL    HW288459   6.108   7.676   7.580 -0.4568 -0.0659  1.4038
25579SOL     OW88460   2.530   9.933   8.200  0.0235  0.0503  0.9915
25579SOL    HW188461   2.598   9.887   8.151  1.2639  1.0379  1.7281
25579SOL    HW288462   2.461   9.868   8.213 -0.2870 -0.3157 -1.8580
25580SOL     OW88463   7.584   3.308   2.980 -0.1948  0.0158 -0.3959
25580SOL    HW188464   7.570   3.281   2.889  2.9735  1.1437 -1.3464
25580SOL    HW288465   7.551   3.398   2.984 -1.4182 -0.4252 -0.0421
25581SOL     OW88466  11.269  11.020  10.611  0.0390  0.3498 -0.6750
25581SOL    HW188467  11.259  10.978  10.697 -0.3198  0.1468 -0.8159
25581SOL    HW288468  11.198  11.085  10.608  0.4356  0.7893 -0.5620
25582SOL     OW88469  11.148  11.318   0.097 -0.3098 -0.0765 -0.1508
25582SOL    HW188470  11.086  11.364   0.152 -1.8374 -1.1178 -0.9414
25582SOL    HW288471  11.097  11.289   0.021  0.7341 -2.3893 -0.0624
25583SOL     OW88472   6.054   5.484   2.622 -0.0616 -0.1377  0.5901
25583SOL    HW188473   6.070   5.412   2.682  1.1635 -1.2021 -0.9439
25583SOL    HW288474   6.122   5.548   2.642 -0.6814  0.2869  1.4267
25584SOL     OW88475   2.695   7.142   1.219 -0.4890 -0.2078 -0.5074
25584SOL    HW188476   2.700   7.165   1.311  0.3993 -1.1105 -0.3201
25584SOL    HW288477   2.683   7.226   1.174  2.5527  0.6808  0.1419
25585SOL     OW88478   4.824   4.340   0.121  0.0634  0.3666 -0.0369
25585SOL    HW188479   4.765   4.351   0.045  2.2218 -1.7980 -2.2039
25585SOL    HW288480   4.771   4.292   0.185 -1.8152  2.2136 -0.0836
25586SOL     OW88481   5.610  11.935   3.734  0.2849  0.0823  0.0328
25586SOL    HW188482   5.544  11.871   3.707  0.7163 -1.3268  2.0863
25586SOL    HW288483   5.657  11.957   3.653 -0.7835 -1.1173 -0.9593
25587SOL     OW88484   2.949   3.302   8.969  0.3464  0.3914 -0.3012
25587SOL    HW188485   2.998   3.363   9.024 -1.0948  1.3939 -0.0823
25587SOL    HW288486   2.992   3.307   8.883  1.0400  0.7308  0.0536
25588SOL     OW88487   3.421  10.959   2.621  0.1951 -0.4666  0.1223
25588SOL    HW188488   3.516  10.962   2.633  0.7461  1.3179 -3.2017
25588SOL    HW288489   3.402  10.870   2.592  1.5685  0.0274 -2.6539
25589SOL     OW88490  10.120   9.012   6.595 -0.5955 -0.6851  0.0353
25589SOL    HW188491  10.081   9.020   6.508 -1.7622  1.1023  0.6670
25589SOL    HW288492  10.063   8.950   6.641 -0.7951 -0.5784 -0.0664
25590SOL     OW88493  10.131   1.372   2.791 -0.2636 -0.1535  0.0305
25590SOL    HW188494  10.059   1.416   2.836  0.4304 -0.5624  1.5801
25590SOL    HW288495  10.158   1.303   2.850 -0.1386 -1.5579 -1.5748
25591SOL     OW88496   8.832  11.606   4.668 -0.1352  0.6094 -0.1766
25591SOL    HW188497   8.829  11.566   4.755 -1.0940  0.2479 -0.3637
25591SOL    HW288498   8.742  11.633   4.651 -0.1179 -0.0268 -1.3736
25592SOL     OW88499   0.845   8.978   6.845 -0.3197 -0.1253  0.2928
25592SOL    HW188500   0.905   8.920   6.799 -1.4311  0.5393 -2.2021
25592SOL    HW288501   0.785   8.920   6.892  0.6982 -0.8513  0.7255
25593SOL     OW88502   1.953   5.742   1.884  0.2734 -0.0152 -0.3469
25593SOL    HW188503   1.926   5.725   1.794 -1.8046 -0.8378  0.3811
25593SOL    HW288504   1.990   5.659   1.914  1.5540  0.4349 -0.5881
25594SOL     OW88505  10.539   1.604   8.691  0.5927 -0.0260  0.0949
25594SOL    HW188506  10.507   1.587   8.779 -0.4744  0.1051 -0.2562
25594SOL    HW288507  10.475   1.563   8.634  0.7135  0.7927 -0.6446
25595SOL     OW88508   6.345  11.121  11.298 -0.1831 -0.1269  0.1856
25595SOL    HW188509   6.412  11.188  11.291 -0.4550  0.0561 -0.8270
25595SOL    HW288510   6.273  11.152  11.243 -1.2503 -0.1607  1.4870
25596SOL     OW88511   7.638   5.778   5.551  0.2404 -0.2750  0.0582
25596SOL    HW188512   7.588   5.720   5.608  0.6979 -1.9866 -1.1830
25596SOL    HW288513   7.677   5.719   5.486  2.2365  1.2137 -0.1894
25597SOL     OW88514   4.531   2.133  11.787 -0.1758  0.3719 -0.4528
25597SOL    HW188515   4.568   2.083  11.714  0.0803 -0.6176  0.3379
25597SOL    HW288516   4.456   2.081  11.817  1.0969 -0.4847  1.4741
25598SOL     OW88517   6.872   9.531   5.394  0.2242 -0.6094 -0.3549
25598SOL    HW188518   6.898   9.568   5.479 -0.0638  2.0664 -1.3606
25598SOL    HW288519   6.954   9.502   5.355  1.2103  3.0372 -1.3205
25599SOL     OW88520   1.382   4.735   1.157 -0.4044 -0.1959 -0.3764
25599SOL    HW188521   1.286   4.738   1.155 -0.3859  0.5232 -0.4237
25599SOL    HW288522   1.402   4.657   1.209 -1.0279  0.2236  0.5306
25600SOL     OW88523   5.303   1.069   6.062  0.1571  0.0371 -0.3279
25600SOL    HW188524   5.366   1.126   6.020 -0.1622 -0.1938 -1.1323
25600SOL    HW288525   5.298   1.100   6.153  2.1276 -0.5302  0.0242
25601SOL     OW88526   4.946   0.579   6.206  0.1707 -0.2716 -0.1601
25601SOL    HW188527   4.879   0.543   6.147  0.2260 -0.7710  0.0837
25601SOL    HW288528   4.935   0.674   6.197  0.2550 -0.3332 -1.0707
25602SOL     OW88529   4.355   1.970   8.075 -0.5435 -0.2756  0.3170
25602SOL    HW188530   4.356   1.886   8.121 -0.3360 -0.0169  0.7917
25602SOL    HW288531   4.312   2.030   8.137 -0.5792 -0.0044  0.0300
25603SOL     OW88532   0.056   2.442   5.855  0.0600 -0.0854  0.1206
25603SOL    HW188533  -0.004   2.428   5.782 -0.7141 -0.5814  0.8280
25603SOL    HW288534   0.015   2.511   5.908  0.5137  0.1359  0.1928
25604SOL     OW88535  11.173   0.632   4.501  0.5160  0.1748  0.1974
25604SOL    HW188536  11.132   0.547   4.513  0.8541 -0.3326 -1.8486
25604SOL    HW288537  11.266   0.617   4.522  0.7681 -0.2460 -1.1476
25605SOL     OW88538   2.030  11.173   7.954 -0.4248 -0.0305 -0.0594
25605SOL    HW188539   1.963  11.159   8.022  1.4998 -1.5433  1.6613
25605SOL    HW288540   2.016  11.103   7.891 -1.4343  0.6301 -0.5978
25606SOL     OW88541   2.911   5.444   0.636 -0.4077 -0.0281  0.5909
25606SOL    HW188542   2.981   5.465   0.575 -0.4203 -1.8110 -0.1078
25606SOL    HW288543   2.836   5.496   0.607  0.7155  2.4133  1.7442
25607SOL     OW88544   6.728   7.558   6.180  0.0279 -0.0516  0.1849
25607SOL    HW188545   6.793   7.627   6.195  0.0780  0.0634 -0.5139
25607SOL    HW288546   6.739   7.498   6.254  1.3489 -0.3502 -0.2158
25608SOL     OW88547   9.583   1.680   9.255  0.0932  0.0772  0.1932
25608SOL    HW188548   9.560   1.686   9.163  1.8350  0.2014 -0.2732
25608SOL    HW288549   9.573   1.588   9.277 -0.3045  0.0460 -0.1280
25609SOL     OW88550  10.400   5.546   1.458 -0.1977 -0.1045  0.2035
25609SOL    HW188551  10.403   5.470   1.516 -0.1312 -0.0593  0.2597
25609SOL    HW288552  10.489   5.550   1.421 -1.0571 -2.0833 -2.4041
25610SOL     OW88553   2.486   9.639   8.951 -0.0761  0.0628 -0.1489
25610SOL    HW188554   2.450   9.581   8.884 -1.1471 -0.7534  1.0856
25610SOL    HW288555   2.463   9.727   8.921 -0.2705 -0.2617 -0.9846
25611SOL     OW88556  10.650   3.847   1.954 -0.2184  0.4144 -0.0777
25611SOL    HW188557  10.677   3.820   1.866  2.3124  0.5322  0.5913
25611SOL    HW288558  10.610   3.769   1.992 -0.2350  0.0109 -0.9070
25612SOL     OW88559   2.943   2.498   2.664  0.0446 -0.0336 -0.1449
25612SOL    HW188560   2.915   2.480   2.754  0.6220 -0.0229  0.0376
25612SOL    HW288561   2.958   2.592   2.661  0.0304 -0.0343 -0.2497
25613SOL     OW88562   7.672   7.777   9.252 -0.0262  0.2795 -0.9716
25613SOL    HW188563   7.767   7.770   9.238  0.5440  3.3768  0.5448
25613SOL    HW288564   7.643   7.841   9.188 -1.1570 -0.6799 -1.4501
25614SOL     OW88565   5.977   4.305  11.574 -0.2301 -0.3033  0.2246
25614SOL    HW188566   6.016   4.234  11.626  0.9933  1.0209  1.1972
25614SOL    HW288567   5.942   4.365  11.639  2.8300  2.2626 -0.2661
25615SOL     OW88568   9.805   8.885   8.413  0.1388 -0.1957 -0.0890
25615SOL    HW188569   9.772   8.945   8.481  0.7955  3.0056 -2.3618
25615SOL    HW288570   9.806   8.938   8.333  1.2379 -3.1908 -2.2318
25616SOL     OW88571   6.735   3.483   1.702 -0.0694 -0.4483  0.2393
25616SOL    HW188572   6.773   3.452   1.620 -2.4088  0.5648 -1.3490
25616SOL    HW288573   6.658   3.427   1.716  0.8945 -1.3393  2.4116
25617SOL     OW88574   9.133   3.408   6.295  0.3754  0.3565  0.0181
25617SOL    HW188575   9.120   3.454   6.212  1.3685 -0.8130 -0.8156
25617SOL    HW288576   9.228   3.398   6.302  0.1868 -1.8366 -0.0044
25618SOL     OW88577   2.829   8.798   1.444 -1.1534 -0.1732  0.3446
25618SOL    HW188578   2.753   8.833   1.490 -1.3374 -1.5876  1.1658
25618SOL    HW288579   2.793   8.737   1.380 -0.7428 -0.4029  0.3276
25619SOL     OW88580   2.175  10.091  10.020  0.3020 -0.0881 -0.0827
25619SOL    HW188581   2.208  10.129  10.102  0.6248  0.6887 -0.5587
25619SOL    HW288582   2.250  10.043   9.984  0.6234  0.8178 -0.6534
25620SOL     OW88583   3.195  11.245   9.195  0.1493 -0.0455  0.1118
25620SOL    HW188584   3.254  11.318   9.211  0.3349 -0.4300  1.3177
25620SOL    HW288585   3.253  11.169   9.189 -0.2150 -0.4984  1.7853
25621SOL     OW88586   8.895   0.056   7.770  0.5873 -0.1688 -0.2657
25621SOL    HW188587   8.918  -0.026   7.727 -1.5932 -0.7165 -0.4701
25621SOL    HW288588   8.937   0.124   7.716  2.4560 -1.0880 -0.0690
25622SOL     OW88589   8.406  10.897   3.996  0.7360  0.0124  0.0627
25622SOL    HW188590   8.467  10.931   4.061  1.5940  2.4201 -1.8485
25622SOL    HW288591   8.426  10.803   3.991  0.2596 -0.3930  3.5249
25623SOL     OW88592   9.188   0.958  11.106  0.5468  0.1741 -0.1263
25623SOL    HW188593   9.236   0.883  11.140  0.1544 -0.8584 -1.7478
25623SOL    HW288594   9.105   0.956  11.152  0.6139 -0.2796 -0.0219
25624SOL     OW88595   7.482   5.540   0.245 -0.7115 -0.3333  0.1264
25624SOL    HW188596   7.466   5.449   0.269  0.6998 -0.9227 -1.0219
25624SOL    HW288597   7.395   5.578   0.234 -1.3306 -1.3326  1.2953
25625SOL     OW88598   5.442   2.475   8.924  0.7875  0.0076 -0.3255
25625SOL    HW188599   5.442   2.529   8.845 -1.0246  0.9950  0.2928
25625SOL    HW288600   5.377   2.516   8.982 -0.1563 -2.3875  0.4630
25626SOL     OW88601   8.565   8.731   8.309  0.7166  0.0150 -0.2602
25626SOL    HW188602   8.525   8.816   8.288  0.2769 -0.3606 -0.9795
25626SOL    HW288603   8.652   8.753   8.341  1.5316  0.6472 -2.7064
25627SOL     OW88604   3.589   1.521   5.297 -0.1041 -0.3352 -0.2730
25627SOL    HW188605   3.519   1.566   5.344  0.1600 -0.2572  0.0465
25627SOL    HW288606   3.670   1.555   5.336  0.1096 -0.5176 -0.5546
25628SOL     OW88607   4.076   0.436   7.723  0.0128  0.1061  0.2816
25628SOL    HW188608   4.007   0.404   7.664  1.6193 -1.9172 -0.6259
25628SOL    HW288609   4.051   0.404   7.809 -0.4382 -0.1837  0.0475
25629SOL     OW88610  10.433   2.877   6.406  0.6970  0.2426 -0.0632
25629SOL    HW188611  10.364   2.942   6.409 -0.6873 -1.2078  1.0830
25629SOL    HW288612  10.468   2.874   6.495  0.1703 -1.1252  0.1259
25630SOL     OW88613   7.193   1.824   2.601  0.4170 -0.2481 -0.4543
25630SOL    HW188614   7.274   1.775   2.590 -0.5467 -1.7541 -1.2394
25630SOL    HW288615   7.125   1.757   2.602 -0.8617  1.0104 -0.3222
25631SOL     OW88616   7.148   3.289   4.362 -0.1776 -0.4911  0.1546
25631SOL    HW188617   7.238   3.262   4.381  0.3057  0.5841 -0.5123
25631SOL    HW288618   7.105   3.292   4.448  0.9567  0.7982  0.7132
25632SOL     OW88619   6.408  11.913   9.618 -0.3078 -0.4584 -0.1047
25632SOL    HW188620   6.476  11.864   9.573 -0.9420 -0.2626 -1.3294
25632SOL    HW288621   6.330  11.903   9.562 -1.0144  0.1433  0.7372
25633SOL     OW88622   8.386   2.870   6.325  0.0543  0.3942  0.0024
25633SOL    HW188623   8.434   2.892   6.245 -0.2755 -1.8719 -0.8922
25633SOL    HW288624   8.299   2.845   6.295 -0.3197  0.2631  1.1510
25634SOL     OW88625   4.685   0.493   0.477 -0.6572 -0.3432  0.2184
25634SOL    HW188626   4.722   0.406   0.488  1.2765  0.4465  0.3137
25634SOL    HW288627   4.640   0.489   0.392 -1.4833 -1.6812  0.6716
25635SOL     OW88628   7.725  11.808   7.391 -0.4017 -0.0495  0.4560
25635SOL    HW188629   7.705  11.714   7.393  1.2652 -0.4315  2.0882
25635SOL    HW288630   7.670  11.843   7.322 -1.7534 -2.0739  0.4303
25636SOL     OW88631   3.124   7.336   0.830 -0.1064  0.3750 -0.3147
25636SOL    HW188632   3.152   7.326   0.921  0.8803  0.0940 -0.6378
25636SOL    HW288633   3.118   7.430   0.817  1.7266  0.4846 -0.5300
25637SOL     OW88634   7.485   8.289   5.225 -0.5588  0.5888  0.0380
25637SOL    HW188635   7.552   8.221   5.213 -1.0403  0.1647 -0.2630
25637SOL    HW288636   7.438   8.262   5.305 -0.3089  0.9414  0.3072
25638SOL     OW88637  10.933  10.687   5.750 -0.6485 -0.2415  0.1529
25638SOL    HW188638  10.855  10.699   5.696 -0.1853  0.4343 -0.3853
25638SOL    HW288639  10.977  10.772   5.749  0.9236 -1.0010 -0.9093
25639SOL     OW88640   5.159   6.304   2.361 -0.0199 -0.5695 -0.4236
25639SOL    HW188641   5.146   6.218   2.401  2.7326 -0.5841  0.6847
25639SOL    HW288642   5.173   6.364   2.434  1.5099  0.1090 -1.2027
25640SOL     OW88643   4.748   4.900   0.099 -0.2596 -0.0594  0.4728
25640SOL    HW188644   4.741   4.865   0.010 -1.2685  2.1077 -0.3768
25640SOL    HW288645   4.758   4.823   0.154 -2.8920 -1.7466 -1.1835
25641SOL     OW88646   3.921  11.612   5.006 -0.2957  0.2118 -0.3527
25641SOL    HW188647   3.882  11.605   5.093 -0.0512  1.1648 -0.1458
25641SOL    HW288648   3.910  11.705   4.983 -2.7190 -0.4814 -2.4782
25642SOL     OW88649   1.534   9.411   5.446 -0.0032 -0.0363  0.0484
25642SOL    HW188650   1.571   9.350   5.383 -0.6100 -0.5636  0.1976
25642SOL    HW288651   1.451   9.371   5.474 -1.6175  1.9361 -1.6132
25643SOL     OW88652   3.708   7.591   4.989 -0.0910  0.0851 -0.2991
25643SOL    HW188653   3.670   7.614   5.074  0.0318  2.8637 -0.8823
25643SOL    HW288654   3.676   7.660   4.930 -0.4916 -1.9532 -2.6431
25644SOL     OW88655   8.729   1.169   5.737 -0.0587 -1.0278 -0.4245
25644SOL    HW188656   8.732   1.196   5.645 -0.2844 -1.2477 -0.4994
25644SOL    HW288657   8.664   1.227   5.776  0.7364 -0.2924 -0.1822
25645SOL     OW88658   9.962   3.420   1.137  0.0498  0.6513  0.3166
25645SOL    HW188659  10.052   3.436   1.166  0.1781 -1.1480  1.0960
25645SOL    HW288660   9.966   3.335   1.093 -1.4815 -0.1237  1.5625
25646SOL     OW88661   3.665   6.290  10.982  0.4328 -0.3701  0.4368
25646SOL    HW188662   3.698   6.378  11.003  1.1799 -0.8885  1.5871
25646SOL    HW288663   3.702   6.271  10.896 -1.1773  1.1046 -0.6585
25647SOL     OW88664   8.749  10.486   7.376 -0.7715 -0.0484  0.4466
25647SOL    HW188665   8.760  10.527   7.462 -1.4114  2.9448 -0.7621
25647SOL    HW288666   8.738  10.393   7.395 -1.0011  0.5088  3.5990
25648SOL     OW88667   0.108   5.020   9.786 -0.2650 -0.0784 -0.2358
25648SOL    HW188668   0.105   4.988   9.696 -1.4417  0.0341 -0.2622
25648SOL    HW288669   0.020   5.002   9.820  0.5853 -1.4321  1.3594
25649SOL     OW88670   7.512   2.253   1.559 -0.2614 -0.1076 -0.1585
25649SOL    HW188671   7.482   2.312   1.489 -0.2653 -0.7084 -0.6665
25649SOL    HW288672   7.566   2.188   1.514  2.2606  1.2144  0.7700
25650SOL     OW88673   7.717   6.601   1.006  0.0571  0.1163  0.0050
25650SOL    HW188674   7.804   6.564   1.020  0.2223 -0.2914 -1.9087
25650SOL    HW288675   7.728   6.695   1.019  0.2941 -0.1199  1.8342
25651SOL     OW88676   0.651   2.324   1.385  0.3922 -0.0078 -0.2625
25651SOL    HW188677   0.577   2.267   1.364  0.0816 -0.1441  1.0905
25651SOL    HW288678   0.722   2.264   1.407  1.1022  0.1144 -2.0671
25652SOL     OW88679  10.137   6.153   7.250 -0.0879 -0.1330 -0.1307
25652SOL    HW188680  10.155   6.075   7.302  0.1725  0.2399  0.3437
25652SOL    HW288681  10.049   6.180   7.274  0.0748  0.1041  0.2053
25653SOL     OW88682   3.434   8.218  11.413 -0.4279  0.0731 -0.1305
25653SOL    HW188683   3.524   8.183  11.411 -1.2596 -2.3588  0.7886
25653SOL    HW288684   3.380   8.145  11.382 -2.3216  0.5211  1.8826
25654SOL     OW88685   6.609   1.428   6.286 -0.3107  0.0283  0.3883
25654SOL    HW188686   6.608   1.353   6.226  0.5160 -1.3786  2.0523
25654SOL    HW288687   6.637   1.391   6.370  2.2646  2.5571  0.7843
25655SOL     OW88688   9.740   4.955   5.169 -0.0846 -0.3025 -0.4097
25655SOL    HW188689   9.735   5.050   5.162 -0.4937 -0.3483 -0.7717
25655SOL    HW288690   9.823   4.932   5.127  2.4514  0.2706  3.6864
25656SOL     OW88691   1.022  11.133  11.615  0.7161  0.2244 -1.1248
25656SOL    HW188692   0.936  11.172  11.603  1.1795  2.0435  0.7754
25656SOL    HW288693   1.027  11.112  11.708  1.5457 -1.9170 -1.5922
25657SOL     OW88694   8.690   7.145   0.459  0.8547  0.4509 -0.0905
25657SOL    HW188695   8.634   7.095   0.399  1.4533  0.3415 -0.5647
25657SOL    HW288696   8.691   7.092   0.539 -0.8656  1.1498  0.4543
25658SOL     OW88697   8.444   0.361   3.406 -0.7076 -0.3800 -0.1164
25658SOL    HW188698   8.537   0.342   3.424 -0.3949  0.4888 -0.7564
25658SOL    HW288699   8.408   0.277   3.378  0.4687 -0.2737 -2.1532
25659SOL     OW88700   6.755   3.828   0.698  0.6337  0.0517 -0.0433
25659SOL    HW188701   6.695   3.880   0.645  0.7810  1.8490  1.4607
25659SOL    HW288702   6.841   3.867   0.684  0.6064  0.9094  1.8135
25660SOL     OW88703   9.552   5.791   6.395 -0.0233  0.2984  0.0610
25660SOL    HW188704   9.595   5.733   6.333  0.8478  0.5101  0.4389
25660SOL    HW288705   9.482   5.739   6.433  0.7645 -0.5225  0.4206
25661SOL     OW88706   2.144   9.155   2.071 -0.0698 -0.1015 -0.3031
25661SOL    HW188707   2.103   9.152   1.984 -1.6464  2.5884  0.2250
25661SOL    HW288708   2.232   9.188   2.055  0.9413 -2.9011 -1.1341
25662SOL     OW88709   9.438   5.189   2.545  0.1321  0.5317 -0.0517
25662SOL    HW188710   9.351   5.225   2.527 -0.7034 -0.6412  1.4448
25662SOL    HW288711   9.443   5.182   2.640  0.9671 -1.4927 -0.1804
25663SOL     OW88712   4.556   3.372   0.593  0.0156  0.5559 -0.3628
25663SOL    HW188713   4.476   3.416   0.563 -1.6129  0.0375  2.8466
25663SOL    HW288714   4.584   3.423   0.669  0.3213 -1.6684  1.0762
25664SOL     OW88715   8.220  11.064   5.387 -1.0496  0.3138 -0.0008
25664SOL    HW188716   8.288  11.129   5.371 -0.6491 -0.1436 -0.1789
25664SOL    HW288717   8.155  11.110   5.441 -0.0411  0.4251  1.1532
25665SOL     OW88718   5.488   3.347   8.321 -0.0230 -0.2808 -0.3708
25665SOL    HW188719   5.554   3.408   8.356 -0.5835 -0.2318  0.6351
25665SOL    HW288720   5.539   3.280   8.275  0.6840  0.1699 -0.2525
25666SOL     OW88721   1.954   7.998   6.037 -1.0407  0.2965  0.6548
25666SOL    HW188722   2.034   7.947   6.047 -1.1796 -0.1788 -0.5281
25666SOL    HW288723   1.906   7.954   5.967 -2.4813  0.4011  1.5529
25667SOL     OW88724  10.432   5.798   0.019  0.1013  0.2658  0.0545
25667SOL    HW188725  10.410   5.714   0.059 -0.7312  0.2551 -0.4078
25667SOL    HW288726  10.397   5.864   0.080 -1.5317  0.2478 -0.8144
25668SOL     OW88727   7.121   4.925   4.787 -0.1939  0.0738  0.1116
25668SOL    HW188728   7.132   4.831   4.802 -1.8433  0.1354  2.3004
25668SOL    HW288729   7.043   4.931   4.732  0.2963  0.1616 -0.5853
25669SOL     OW88730   3.961   5.097   4.349 -0.3306  0.1995 -0.5269
25669SOL    HW188731   3.965   5.188   4.378 -2.1041 -0.2434  1.3244
25669SOL    HW288732   3.900   5.098   4.275 -1.8929  0.3005  0.7117
25670SOL     OW88733   6.335   1.145   4.358 -0.3249  0.6129 -0.0665
25670SOL    HW188734   6.368   1.060   4.331  0.6756  1.3609 -1.3178
25670SOL    HW288735   6.242   1.145   4.333  0.4099  1.0522 -3.1588
25671SOL     OW88736   0.553   9.156   6.762 -0.2824 -0.3502  0.1792
25671SOL    HW188737   0.561   9.154   6.857  0.0522 -0.7732  0.1424
25671SOL    HW288738   0.461   9.182   6.747 -0.1842  0.2941  0.6058
25672SOL     OW88739   7.892   5.825   4.385  0.0380 -0.1013  0.0970
25672SOL    HW188740   7.819   5.871   4.427  0.5911  0.1253  0.8342
25672SOL    HW288741   7.946   5.794   4.458  0.6363 -0.3383 -0.4384
25673SOL     OW88742   9.107   8.269   9.078 -0.1470 -0.9001 -0.1133
25673SOL    HW188743   9.088   8.236   9.166  0.1537  0.0704  0.3306
25673SOL    HW288744   9.020   8.289   9.042 -0.4612 -3.4102 -0.9360
25674SOL     OW88745   6.400   7.032   4.779  0.2243  0.3068  0.4273
25674SOL    HW188746   6.380   7.107   4.836  1.6197  1.0215  0.0200
25674SOL    HW288747   6.361   6.957   4.824 -0.2215  1.1045  1.4310
25675SOL     OW88748   4.186   2.218   6.090 -0.1104  0.5355 -0.0277
25675SOL    HW188749   4.149   2.134   6.062 -1.7286  1.2632 -0.1673
25675SOL    HW288750   4.188   2.271   6.010  0.8797  0.6441  0.0626
25676SOL     OW88751   5.187   1.468   8.446 -0.5019  0.5474  0.2406
25676SOL    HW188752   5.247   1.467   8.520 -0.5561 -0.5427  0.2857
25676SOL    HW288753   5.241   1.491   8.370  0.6169 -2.9762 -0.2026
25677SOL     OW88754   5.491   6.720   3.995  0.1642 -0.4160 -0.5147
25677SOL    HW188755   5.419   6.719   4.058 -0.6360 -0.7574 -1.4090
25677SOL    HW288756   5.499   6.813   3.971  0.2422 -0.3326 -0.1750
25678SOL     OW88757   1.962   7.726   2.612  0.1061  0.0020  0.4243
25678SOL    HW188758   1.926   7.704   2.526  0.7611 -1.6389  0.5290
25678SOL    HW288759   2.044   7.772   2.593 -0.5259  1.0836  0.2002
25679SOL     OW88760   8.587   2.255   6.620  0.0450  0.1136 -0.3755
25679SOL    HW188761   8.512   2.209   6.582  0.2704 -0.4226 -0.1835
25679SOL    HW288762   8.550   2.338   6.652 -0.3320  0.1422 -0.8748
25680SOL     OW88763   5.442   9.442   6.532  0.3803 -0.1874 -0.2749
25680SOL    HW188764   5.499   9.462   6.606  1.6542  0.0096 -1.2816
25680SOL    HW288765   5.419   9.528   6.495  0.8799 -0.3272 -0.9277
25681SOL     OW88766   4.558   8.152   5.863  0.1917 -0.3007  0.3332
25681SOL    HW188767   4.506   8.232   5.854 -0.0093 -0.6224 -1.7336
25681SOL    HW288768   4.509   8.099   5.926 -0.7645  0.3676  0.1797
25682SOL     OW88769   0.140   3.389   7.991  0.4806  0.3068  0.8450
25682SOL    HW188770   0.182   3.315   7.947  0.8628  0.6018  0.7098
25682SOL    HW288771   0.192   3.465   7.966 -0.1290  0.6785  0.6869
25683SOL     OW88772   1.611  10.482   8.732  0.9096  1.1470  0.5405
25683SOL    HW188773   1.672  10.472   8.805  1.5083  0.6527 -0.0082
25683SOL    HW288774   1.620  10.400   8.683 -0.8344  0.6960  0.9165
25684SOL     OW88775   0.593   1.247  10.734 -0.0388  0.0974 -0.1488
25684SOL    HW188776   0.631   1.314  10.676 -1.0582  0.8096 -0.0140
25684SOL    HW288777   0.613   1.278  10.822 -1.3637  0.7436 -0.0678
25685SOL     OW88778   6.395   7.035   5.299 -0.0944  0.2340 -0.0245
25685SOL    HW188779   6.320   7.080   5.260  0.0557  0.8405  0.3841
25685SOL    HW288780   6.426   6.976   5.229  0.6619  1.8779 -1.1287
25686SOL     OW88781   5.724   6.120   3.492  0.1009 -0.2137 -0.2649
25686SOL    HW188782   5.819   6.132   3.490  0.0656  0.0422 -1.8781
25686SOL    HW288783   5.703   6.108   3.585  1.3656  2.4159  0.4680
25687SOL     OW88784  11.598   3.215   9.447  0.0706  0.2583 -0.4062
25687SOL    HW188785  11.523   3.156   9.444  0.8534 -0.7250 -1.7760
25687SOL    HW288786  11.562   3.302   9.429 -1.1699  0.3392  2.1304
25688SOL     OW88787   7.348   7.496   2.625 -0.3393 -0.0882  0.3756
25688SOL    HW188788   7.338   7.541   2.708  1.2095  0.5127  0.2757
25688SOL    HW288789   7.429   7.532   2.588  0.0246 -1.7114 -0.5087
25689SOL     OW88790   2.457   8.798   2.913 -0.4743  0.8737  0.1020
25689SOL    HW188791   2.374   8.777   2.956 -0.7884 -0.5037 -1.1028
25689SOL    HW288792   2.507   8.844   2.980 -0.2886 -2.5666  2.6143
25690SOL     OW88793   6.329   2.871   9.647  0.0626  0.4329 -0.2256
25690SOL    HW188794   6.316   2.777   9.637 -0.2624  0.5614 -1.0681
25690SOL    HW288795   6.375   2.880   9.731  2.1762 -0.6601 -1.1755
25691SOL     OW88796  11.354   6.274   6.351  0.3745 -0.1018  0.2699
25691SOL    HW188797  11.429   6.333   6.347  0.2585 -0.0068 -1.1282
25691SOL    HW288798  11.336   6.251   6.260 -2.0391  0.8204  0.4186
25692SOL     OW88799   1.501   1.955   2.873  0.3181 -0.0424  0.3490
25692SOL    HW188800   1.451   2.023   2.827 -0.4875 -1.2924 -0.7036
25692SOL    HW288801   1.465   1.954   2.961  0.2637  0.8048  0.3456
25693SOL     OW88802   7.762  11.579   7.087  0.0871 -0.0860  0.3434
25693SOL    HW188803   7.691  11.632   7.124 -0.7587 -0.9364 -0.0222
25693SOL    HW288804   7.755  11.495   7.132  0.7694 -0.2321  0.1852
25694SOL     OW88805   4.574   6.910   6.112  0.4154  0.1680 -0.3532
25694SOL    HW188806   4.658   6.953   6.095  0.5593  0.0015 -0.0703
25694SOL    HW288807   4.565   6.912   6.207 -0.5567  1.4244 -0.4528
25695SOL     OW88808   7.013  11.774   2.009 -0.0719 -1.0065 -0.3762
25695SOL    HW188809   6.966  11.852   1.978 -0.1570 -1.5523 -1.6788
25695SOL    HW288810   7.090  11.769   1.953  1.4442 -0.3061  1.5292
25696SOL     OW88811   5.155   1.888   2.606  0.0607 -0.4078  0.1436
25696SOL    HW188812   5.148   1.976   2.570 -0.0962 -0.0485  1.0395
25696SOL    HW288813   5.065   1.860   2.620  0.0777  0.4723  2.6257
25697SOL     OW88814   8.810   4.259   9.417  0.0791 -0.8409  0.2364
25697SOL    HW188815   8.869   4.193   9.380  0.0353 -0.4975 -0.4748
25697SOL    HW288816   8.729   4.249   9.368  0.2352  0.0618 -0.2438
25698SOL     OW88817   8.285   6.944  11.890 -0.8316  0.2615 -0.0158
25698SOL    HW188818   8.301   7.032  11.924  0.4780  0.1523 -0.2938
25698SOL    HW288819   8.226   6.957  11.816 -0.5030  0.9343 -0.1682
25699SOL     OW88820   5.131   6.348   1.538  0.2473  0.4444 -0.3583
25699SOL    HW188821   5.147   6.362   1.444  0.2493  1.1321 -0.2607
25699SOL    HW288822   5.130   6.436   1.575  0.4523  0.1645  0.3240
25700SOL     OW88823   2.711   4.182   0.681  0.3802 -0.3445  0.7940
25700SOL    HW188824   2.679   4.217   0.764  0.2799 -1.5054  1.2655
25700SOL    HW288825   2.693   4.088   0.687 -1.1348 -0.2401 -1.2111
25701SOL     OW88826   8.678   2.947   9.798  0.2896  0.2511  0.0193
25701SOL    HW188827   8.610   2.919   9.860  0.8918  1.0839  1.1001
25701SOL    HW288828   8.694   3.039   9.821  0.8157  0.4562 -1.1262
25702SOL     OW88829   6.888   6.286   7.352 -0.0293 -0.0414 -0.3381
25702SOL    HW188830   6.872   6.356   7.414  1.9661  1.0042 -0.9346
25702SOL    HW288831   6.865   6.323   7.267  2.2697  0.4521 -0.8281
25703SOL     OW88832   3.044   9.822   9.092  0.0310  0.4813 -0.4335
25703SOL    HW188833   3.042   9.746   9.034  1.2803  1.4609 -1.8180
25703SOL    HW288834   2.977   9.881   9.056 -3.1026 -1.0345  2.3478
25704SOL     OW88835   3.219   7.413   2.467 -0.2865  0.5355  0.4409
25704SOL    HW188836   3.178   7.484   2.417 -2.0261  0.0454  1.0913
25704SOL    HW288837   3.277   7.369   2.405 -0.0940  1.7817 -0.2915
25705SOL     OW88838   7.362   9.226   8.096  0.2989  0.1040  0.5723
25705SOL    HW188839   7.320   9.150   8.136  0.3961 -0.6279 -0.6480
25705SOL    HW288840   7.361   9.293   8.164 -0.5016 -0.7339  1.4180
25706SOL     OW88841   2.132   2.368   6.379 -0.4261  0.3256 -0.6873
25706SOL    HW188842   2.101   2.277   6.381  0.2288  0.1068  0.5945
25706SOL    HW288843   2.198   2.370   6.310 -1.8184  0.3318 -2.0919
25707SOL     OW88844   4.163   1.630   3.273 -0.3703 -0.0595 -0.3018
25707SOL    HW188845   4.233   1.565   3.277  0.3677  0.7871  1.2472
25707SOL    HW288846   4.089   1.584   3.232  1.2861 -0.7358 -2.7542
25708SOL     OW88847  10.066   0.524   0.562 -0.1765  0.0739 -0.2144
25708SOL    HW188848  10.022   0.533   0.647 -0.5592  0.9165 -0.4874
25708SOL    HW288849  10.140   0.583   0.567 -0.3682  0.3476 -0.5713
25709SOL     OW88850   1.003   4.643   1.716  0.4315  0.5398  0.2922
25709SOL    HW188851   1.080   4.601   1.755  0.4675 -0.7726 -1.0798
25709SOL    HW288852   0.929   4.604   1.763  0.5474  0.9741  0.8520
25710SOL     OW88853   7.793   6.446  11.820  0.6780 -0.0145  0.3590
25710SOL    HW188854   7.764   6.355  11.829 -1.0719  0.6049  1.5557
25710SOL    HW288855   7.867   6.442  11.760 -1.2832 -1.8472 -2.1446
25711SOL     OW88856   7.969   1.811  11.952 -0.4122 -0.2586  0.4322
25711SOL    HW188857   7.991   1.851  11.868 -1.0193 -0.3456  0.2264
25711SOL    HW288858   8.025   1.733  11.957 -1.1187 -0.8311 -0.3691
25712SOL     OW88859   1.701   3.717   7.289  0.2231 -0.0293 -0.1381
25712SOL    HW188860   1.783   3.759   7.265 -0.2933  2.1552  1.6126
25712SOL    HW288861   1.661   3.776   7.352 -2.6322 -1.1095 -0.7777
25713SOL     OW88862   4.239   9.287   6.673  0.0485 -0.0697 -0.2903
25713SOL    HW188863   4.161   9.237   6.698  0.0075 -0.5186 -1.2751
25713SOL    HW288864   4.278   9.314   6.756 -1.1750  0.1952  0.2209
25714SOL     OW88865   8.884   3.171   7.305  0.2621 -0.2028  1.0095
25714SOL    HW188866   8.893   3.079   7.279 -1.0126 -0.0118 -0.1727
25714SOL    HW288867   8.950   3.217   7.253 -1.8338  0.0822 -1.6151
25715SOL     OW88868   8.581   2.893   7.601 -0.0417 -0.1764 -0.6860
25715SOL    HW188869   8.594   2.863   7.511 -1.2307 -0.4809 -0.7640
25715SOL    HW288870   8.596   2.814   7.654  1.5029  0.1839 -0.5204
25716SOL     OW88871   1.459   6.169   1.145  0.0057 -0.3225  0.0590
25716SOL    HW188872   1.364   6.177   1.144 -0.0973 -0.6973  2.0335
25716SOL    HW288873   1.476   6.080   1.114 -0.1626  0.2665 -1.7924
25717SOL     OW88874   9.436   4.667   1.068 -0.0145 -0.1912 -0.2024
25717SOL    HW188875   9.394   4.627   1.144  0.8662  0.3722  0.6098
25717SOL    HW288876   9.530   4.656   1.085  0.2994  2.4981  0.2486
25718SOL     OW88877   3.211   1.387   5.458  0.2962  0.4680  0.7975
25718SOL    HW188878   3.133   1.350   5.500  0.4599 -1.2382 -0.3076
25718SOL    HW288879   3.213   1.346   5.372  2.1586  0.8405  0.6345
25719SOL     OW88880   8.216   5.291   4.832 -0.4933 -0.5394  0.0626
25719SOL    HW188881   8.304   5.285   4.869 -0.6510 -0.3016  0.4922
25719SOL    HW288882   8.211   5.220   4.769  0.8364  0.8418 -1.7183
25720SOL     OW88883   1.312   2.575   8.146  0.3112  0.6343 -0.2928
25720SOL    HW188884   1.374   2.502   8.144  1.5949  1.7062 -0.4399
25720SOL    HW288885   1.367   2.653   8.149 -0.8801  1.8322 -4.0128
25721SOL     OW88886   0.977  10.997   5.477 -0.2590  0.0028  0.0313
25721SOL    HW188887   0.893  10.958   5.501 -1.1575  1.4442 -0.5877
25721SOL    HW288888   1.038  10.968   5.545 -1.4199 -0.5256  0.8781
25722SOL     OW88889   7.073   0.675  10.317 -0.5050  0.1039  0.2048
25722SOL    HW188890   7.136   0.636  10.378 -1.4932  0.1748  1.3337
25722SOL    HW288891   7.071   0.615  10.242  1.0635  0.2413  0.0291
25723SOL     OW88892   5.192   8.247   1.303 -0.4172 -0.0671 -0.2535
25723SOL    HW188893   5.238   8.256   1.387 -0.6907 -1.3913  0.0449
25723SOL    HW288894   5.100   8.265   1.324 -0.4731 -0.3141 -0.2951
25724SOL     OW88895   9.480   7.411  11.900 -0.4535  0.3509 -0.2709
25724SOL    HW188896   9.548   7.349  11.927  0.3994  0.7134 -1.5188
25724SOL    HW288897   9.419   7.413  11.974  1.1751  0.4606  1.1373
25725SOL     OW88898  10.649   3.342   6.851  0.4960  0.5288 -0.1591
25725SOL    HW188899  10.567   3.336   6.802  0.1787 -2.1929  0.5505
25725SOL    HW288900  10.716   3.350   6.783 -0.2072  0.8469 -0.8390
25726SOL     OW88901   5.759   6.392   0.777 -0.0680 -0.4200  0.3151
25726SOL    HW188902   5.776   6.458   0.710 -1.3996 -1.0440 -0.6894
25726SOL    HW288903   5.838   6.337   0.778  0.6747  0.6228  0.5276
25727SOL     OW88904   0.317   0.277   9.583  1.0164 -0.0281  0.1633
25727SOL    HW188905   0.296   0.248   9.494 -1.9639  0.6748  0.5342
25727SOL    HW288906   0.341   0.196   9.628 -0.4831 -0.9095 -0.5305
25728SOL     OW88907   3.304   3.668   8.018 -0.1548  0.2441 -0.4953
25728SOL    HW188908   3.209   3.655   8.020 -0.6930  3.0832  3.3311
25728SOL    HW288909   3.318   3.724   7.942 -1.3653 -0.9172 -1.6335
25729SOL     OW88910   1.769   3.957   9.211  0.4232  0.1657  0.1325
25729SOL    HW188911   1.845   3.943   9.267 -0.2274 -0.1453  0.9520
25729SOL    HW288912   1.708   4.008   9.265  0.2709  0.8852 -0.7036
25730SOL     OW88913   1.625  11.510   2.160  0.4552  1.1448 -0.3503
25730SOL    HW188914   1.605  11.451   2.088  1.9042  1.7402 -1.2944
25730SOL    HW288915   1.664  11.588   2.118  0.1866  2.0346  0.9744
25731SOL     OW88916   7.994   6.451  10.893 -0.0559  0.3599  0.4495
25731SOL    HW188917   8.003   6.502  10.813  0.6294  0.6833  0.7252
25731SOL    HW288918   7.979   6.361  10.863 -1.0369  0.6734 -0.0355
25732SOL     OW88919   6.415   3.856   8.634  0.1567  0.8782  0.5045
25732SOL    HW188920   6.430   3.799   8.709 -0.3967  2.1971  1.6666
25732SOL    HW288921   6.396   3.797   8.561  2.6268 -0.5330  0.9036
25733SOL     OW88922   6.030   8.827   8.521 -0.5974 -0.8106 -0.7500
25733SOL    HW188923   6.061   8.755   8.577 -0.8894 -1.7305 -1.7380
25733SOL    HW288924   5.974   8.784   8.456 -1.7852  0.4757 -0.6156
25734SOL     OW88925   8.356   7.809   8.365  0.1513 -0.1639  0.7125
25734SOL    HW188926   8.270   7.841   8.335  0.5442  0.6954  0.4702
25734SOL    HW288927   8.413   7.818   8.288  0.3856 -1.0552  0.7707
25735SOL     OW88928   4.452  11.521   3.607  0.1509 -0.0635 -0.1479
25735SOL    HW188929   4.520  11.464   3.571 -1.4854 -1.3268 -1.3518
25735SOL    HW288930   4.459  11.509   3.702  1.5458 -0.2285 -0.2537
25736SOL     OW88931   4.553   6.606   9.971  0.0178  0.0414 -0.6337
25736SOL    HW188932   4.529   6.688   9.928 -2.6330  0.6407  1.6657
25736SOL    HW288933   4.470   6.560   9.983  0.6333 -0.4236  2.9002
25737SOL     OW88934   1.265   7.263   6.680  0.6581  0.2707  0.2712
25737SOL    HW188935   1.248   7.181   6.634  0.1570 -0.2388  1.3356
25737SOL    HW288936   1.263   7.240   6.773  0.8557  1.4246  0.5828
25738SOL     OW88937   4.603   0.388   3.124 -0.2811 -0.0715 -0.1178
25738SOL    HW188938   4.543   0.447   3.169  0.1667  0.0399  0.3463
25738SOL    HW288939   4.680   0.443   3.105  0.5003 -0.7026  1.0863
25739SOL     OW88940   7.099   4.240   3.347  0.2698  0.1828 -0.6215
25739SOL    HW188941   7.007   4.242   3.320  0.3684 -2.0686 -1.3491
25739SOL    HW288942   7.098   4.193   3.430  0.6625  1.1668 -0.0535
25740SOL     OW88943   5.770   9.728   6.719  0.2815 -0.0110  0.8809
25740SOL    HW188944   5.825   9.650   6.726 -1.0839 -1.5190 -2.6859
25740SOL    HW288945   5.806   9.775   6.643 -1.2973  0.7172  0.5420
25741SOL     OW88946   0.720   9.211   7.928  0.2961  0.3691 -0.1045
25741SOL    HW188947   0.755   9.214   7.839 -0.2981  2.9240 -0.3423
25741SOL    HW288948   0.674   9.127   7.934  0.7151 -0.0351 -2.0527
25742SOL     OW88949   4.580   3.953   7.163  0.1909  0.0647  0.4530
25742SOL    HW188950   4.536   3.870   7.147  0.1534 -0.1106  1.4235
25742SOL    HW288951   4.673   3.934   7.148  0.1475 -0.0581  0.3316
25743SOL     OW88952   1.425  11.876   7.122 -0.3435  0.0285 -0.5271
25743SOL    HW188953   1.510  11.915   7.100  0.0949 -1.2479 -1.2392
25743SOL    HW288954   1.361  11.943   7.099  0.4152  0.5819 -1.0937
25744SOL     OW88955   5.480   3.943   9.792 -0.3663  0.1183  0.7070
25744SOL    HW188956   5.451   3.872   9.736  1.3645  0.4363 -0.7030
25744SOL    HW288957   5.435   4.020   9.759  0.8875  0.3616 -0.5342
25745SOL     OW88958   0.359  10.876   7.672  0.4991 -0.3705  0.1512
25745SOL    HW188959   0.307  10.892   7.750  1.1186  0.4141  0.4188
25745SOL    HW288960   0.313  10.805   7.626 -0.8138  0.3373  0.3425
25746SOL     OW88961   9.132  10.474  10.642 -0.3364  0.3478 -0.8878
25746SOL    HW188962   9.078  10.469  10.721  0.7524  0.5233 -0.1047
25746SOL    HW288963   9.073  10.507  10.575 -1.6419 -1.0196 -0.4823
25747SOL     OW88964   1.894   4.298  11.072  0.7503 -0.2309 -0.0106
25747SOL    HW188965   1.977   4.279  11.114  0.8709  0.4623  0.0703
25747SOL    HW288966   1.828   4.276  11.138  0.9388  0.8778  0.5645
25748SOL     OW88967   5.705  11.256   9.907 -0.2274 -0.6576 -0.0738
25748SOL    HW188968   5.795  11.282   9.887 -0.5848 -1.1381 -2.7899
25748SOL    HW288969   5.683  11.303   9.987  2.3713 -0.4266  0.5991
25749SOL     OW88970   6.642   9.158   7.566  0.3353  0.3393 -0.4450
25749SOL    HW188971   6.719   9.207   7.534  1.0619 -0.7792 -0.4735
25749SOL    HW288972   6.626   9.092   7.498 -0.1393  0.0283 -0.0339
25750SOL     OW88973   9.846   2.391  11.362 -0.5019  0.2468  0.2625
25750SOL    HW188974   9.925   2.429  11.400 -1.5997 -0.3624  3.4575
25750SOL    HW288975   9.805   2.463  11.315  0.2287  1.5589  1.5377
25751SOL     OW88976   3.754   0.554   9.217 -0.1128  0.2897  0.2539
25751SOL    HW188977   3.671   0.593   9.190  0.0645  1.2638  1.0406
25751SOL    HW288978   3.796   0.622   9.269  1.3321 -0.0757 -0.4067
25752SOL     OW88979   0.096   5.318   3.300  0.2468  0.4755  0.7064
25752SOL    HW188980   0.143   5.367   3.232 -0.4146  0.8969  0.5463
25752SOL    HW288981   0.161   5.307   3.370  0.1509  2.4298  1.1551
25753SOL     OW88982   3.019   1.859   6.928 -0.6449  0.1206 -0.1190
25753SOL    HW188983   2.926   1.842   6.914 -0.5474 -2.2739  1.4744
25753SOL    HW288984   3.025   1.887   7.019  0.2320 -0.3093 -0.0329
25754SOL     OW88985   1.383   9.343  10.281  0.6508  0.2313  0.0509
25754SOL    HW188986   1.444   9.327  10.353  2.0993  0.7944 -1.0060
25754SOL    HW288987   1.365   9.257  10.245  0.1113 -0.0286  0.9120
25755SOL     OW88988   9.360   4.664  10.064 -0.0951  0.6378 -0.2032
25755SOL    HW188989   9.431   4.715  10.027 -0.2923  0.2448 -1.1549
25755SOL    HW288990   9.288   4.674  10.002 -0.2194 -0.5815 -0.2963
25756SOL     OW88991   0.923   9.605   8.018 -0.1519  0.8543 -0.5770
25756SOL    HW188992   0.919   9.609   7.923  0.1555 -0.6271 -0.6811
25756SOL    HW288993   0.991   9.668   8.042  0.5535  0.4297 -1.4237
25757SOL     OW88994   4.314   2.953   6.671  0.7228 -0.6116  0.4532
25757SOL    HW188995   4.329   3.001   6.752 -2.6894  0.8368  0.4209
25757SOL    HW288996   4.366   2.873   6.681  3.0065  0.9678  2.5430
25758SOL     OW88997   5.109   3.987   6.125  0.3149  0.1806  0.5523
25758SOL    HW188998   5.099   4.050   6.053  0.5066 -0.3095  0.0935
25758SOL    HW288999   5.200   3.997   6.154  0.1408  0.6261  0.9695
25759SOL     OW89000   8.255   4.277   6.600 -0.1665 -0.4041  0.3602
25759SOL    HW189001   8.334   4.223   6.593 -0.1499 -0.3075 -0.2576
25759SOL    HW289002   8.266   4.326   6.681  0.4017 -0.4019  0.2846
25760SOL     OW89003   2.637   4.684   1.527 -0.1734  0.2415  0.3423
25760SOL    HW189004   2.672   4.770   1.552  0.3646  0.2648 -0.4730
25760SOL    HW289005   2.553   4.703   1.487  0.4086  0.4929 -0.7926
25761SOL     OW89006  10.747  10.195  11.288 -0.2860  0.5314 -0.4920
25761SOL    HW189007  10.664  10.237  11.266 -1.6317 -1.5499  0.3257
25761SOL    HW289008  10.733  10.102  11.268  2.6567  0.3904 -2.5837
25762SOL     OW89009   2.161   5.167   8.833  0.2578 -0.7557 -0.1402
25762SOL    HW189010   2.210   5.187   8.913 -2.6667 -0.5182  1.7049
25762SOL    HW289011   2.165   5.248   8.782 -2.3446  1.0893  2.3158
25763SOL     OW89012  10.441   4.393   8.994  0.1851  0.1365 -0.3614
25763SOL    HW189013  10.350   4.418   9.011  0.2193  0.2657 -0.3669
25763SOL    HW289014  10.492   4.444   9.057  0.0726 -1.7988  1.4110
25764SOL     OW89015   1.861   1.845   8.041  0.2787 -0.2702 -0.2858
25764SOL    HW189016   1.774   1.812   8.021  0.5097 -0.0203 -1.9209
25764SOL    HW289017   1.903   1.853   7.955  1.1854  1.5912  0.2746
25765SOL     OW89018  10.669   0.325   1.031  0.0852 -0.3864  0.3554
25765SOL    HW189019  10.740   0.380   1.064  0.3070 -0.9541  0.8467
25765SOL    HW289020  10.667   0.251   1.091 -1.6935  0.1836  1.0672
25766SOL     OW89021   0.108   8.295   7.277  0.0163 -0.4373  0.0926
25766SOL    HW189022   0.095   8.324   7.367 -0.8006 -0.2024 -0.0899
25766SOL    HW289023   0.085   8.371   7.224  1.8823 -0.0966 -0.3006
25767SOL     OW89024   9.686  11.634   8.695  0.3933 -0.1043  0.6395
25767SOL    HW189025   9.635  11.714   8.684  0.3905 -0.3186 -1.2834
25767SOL    HW289026   9.625  11.572   8.735  0.2942  0.7265  1.8156
25768SOL     OW89027   5.383   2.087   4.983  0.1947  0.4288 -0.2574
25768SOL    HW189028   5.458   2.115   4.930  0.0707 -2.3057 -2.0611
25768SOL    HW289029   5.421   2.036   5.054  0.0879 -1.8787 -1.7799
25769SOL     OW89030   8.792   0.449   8.916  0.1846 -0.1568  0.1907
25769SOL    HW189031   8.782   0.453   8.821  0.1330  0.4699  0.2179
25769SOL    HW289032   8.861   0.384   8.931  1.6166  1.1724 -0.3709
25770SOL     OW89033  10.697   3.230   7.643  0.7704  0.0098  0.1958
25770SOL    HW189034  10.643   3.233   7.721  0.4020 -1.6449  0.0346
25770SOL    HW289035  10.760   3.160   7.660 -1.0321 -2.3058 -2.0221
25771SOL     OW89036   8.232   9.885   3.294 -0.4051  0.1750  0.1991
25771SOL    HW189037   8.319   9.916   3.267 -0.6120 -0.2674 -0.9962
25771SOL    HW289038   8.177   9.963   3.290 -0.5816 -0.0124 -1.3225
25772SOL     OW89039   8.447   9.800   7.497  0.5454 -0.7995 -0.3019
25772SOL    HW189040   8.453   9.801   7.593  0.9856  1.4118 -0.3094
25772SOL    HW289041   8.534   9.828   7.468 -0.1292  0.3148 -1.2904
25773SOL     OW89042   4.088   0.058   6.499  0.2733  0.4405 -0.2775
25773SOL    HW189043   4.113   0.084   6.410 -0.1756  0.7824 -0.3091
25773SOL    HW289044   4.017   0.119   6.522  0.5004  0.4601  0.3744
25774SOL     OW89045   6.647   0.676   2.568  0.5272 -0.4605  0.2916
25774SOL    HW189046   6.740   0.685   2.589  0.5815  1.9830 -0.6576
25774SOL    HW289047   6.601   0.702   2.648  0.6454 -1.1605  0.5938
25775SOL     OW89048  11.212   4.926   5.501 -0.2535  0.4447  0.1652
25775SOL    HW189049  11.238   4.948   5.590  0.9603  0.6283 -0.2109
25775SOL    HW289050  11.275   4.973   5.446 -0.2285 -0.6297 -0.7495
25776SOL     OW89051   4.058   2.755  10.468  0.3349  0.4175  0.4199
25776SOL    HW189052   3.965   2.776  10.455  0.2450  0.0503  0.4631
25776SOL    HW289053   4.096   2.758  10.380  0.4329  1.2581  0.4788
25777SOL     OW89054   3.335   4.968   8.719  0.0675  0.1959  0.0572
25777SOL    HW189055   3.271   4.899   8.698 -1.5231  1.7013 -0.2699
25777SOL    HW289056   3.406   4.955   8.656 -0.6002 -0.6130 -0.5553
25778SOL     OW89057  11.882   6.400   6.501  0.6208  0.1318  0.5465
25778SOL    HW189058  11.912   6.341   6.432  1.8474  1.0411  0.2720
25778SOL    HW289059  11.810   6.448   6.460  0.5195 -0.2093  0.3151
25779SOL     OW89060   4.825   3.517   6.572  0.0384  0.1996  0.7418
25779SOL    HW189061   4.779   3.498   6.490  1.9430 -1.5945 -0.0153
25779SOL    HW289062   4.781   3.462   6.637 -0.4007  0.3243  0.5545
25780SOL     OW89063  11.537   4.208   5.339  0.0663 -0.0948  0.6142
25780SOL    HW189064  11.588   4.283   5.369 -1.3807  1.0252  0.3827
25780SOL    HW289065  11.460   4.207   5.395 -1.0103 -0.0451 -0.8150
25781SOL     OW89066   1.595   9.287   6.313 -0.7985 -0.6684 -0.6813
25781SOL    HW189067   1.646   9.270   6.393  0.7493  0.2208 -1.4265
25781SOL    HW289068   1.613   9.213   6.256 -3.6585 -2.4487  0.5328
25782SOL     OW89069   4.636   6.988   7.068 -0.0990  0.6958  0.3163
25782SOL    HW189070   4.714   6.963   7.118  0.5637  1.6478 -0.1874
25782SOL    HW289071   4.578   6.913   7.073  1.4222 -0.5782 -0.4276
25783SOL     OW89072   8.094  10.509   2.391 -0.2265  0.3646  0.0819
25783SOL    HW189073   8.113  10.600   2.366  1.2650  0.0528  0.0103
25783SOL    HW289074   8.171  10.460   2.362 -0.7646 -0.8334  0.6435
25784SOL     OW89075   9.623   9.365  10.649  0.1668  0.2716 -0.5269
25784SOL    HW189076   9.698   9.339  10.596 -0.5541 -0.9068 -1.0125
25784SOL    HW289077   9.577   9.430  10.596 -1.5651 -2.2174 -2.2563
25785SOL     OW89078   5.534   7.580   0.497 -0.0225  0.3242  0.1968
25785SOL    HW189079   5.490   7.598   0.580 -0.6241  0.9612 -0.2394
25785SOL    HW289080   5.484   7.509   0.458 -1.1814  1.5399 -0.6376
25786SOL     OW89081  10.577   0.143   6.781  0.0966 -0.0932 -0.0757
25786SOL    HW189082  10.508   0.205   6.757  1.5294  1.6576  0.1227
25786SOL    HW289083  10.565   0.070   6.720 -2.0914 -0.0158  0.1576
25787SOL     OW89084  10.214   4.862   5.998  0.4900  0.2317  0.0455
25787SOL    HW189085  10.142   4.800   6.009  0.3045  0.3041 -0.6935
25787SOL    HW289086  10.209   4.888   5.906  0.7488  1.1221  0.2769
25788SOL     OW89087   1.127   6.110   8.595  0.7652 -0.5032 -0.0142
25788SOL    HW189088   1.103   6.198   8.623 -1.7147 -1.0246 -0.2878
25788SOL    HW289089   1.044   6.063   8.590  2.0634 -3.0055  0.5613
25789SOL     OW89090   7.100   0.018  11.292 -0.0392  0.3888 -0.2863
25789SOL    HW189091   7.161   0.086  11.264  1.7505 -0.3894  1.4450
25789SOL    HW289092   7.030   0.065  11.338 -0.4864  1.2544 -1.8133
25790SOL     OW89093   5.141   7.387   2.943 -0.0018  0.3496  0.5950
25790SOL    HW189094   5.174   7.365   2.856 -2.5792 -0.7360 -0.1908
25790SOL    HW289095   5.046   7.387   2.934 -0.3439  0.8156  3.2846
25791SOL     OW89096   7.005   3.786  10.131  0.0722 -0.0351  0.3946
25791SOL    HW189097   7.039   3.875  10.136 -0.0913 -0.0333  1.8586
25791SOL    HW289098   7.068   3.739  10.078  0.3627  0.8586 -0.0720
25792SOL     OW89099   5.604   6.698   0.569  0.6798  0.5219  0.5916
25792SOL    HW189100   5.689   6.656   0.583 -0.4185 -1.8765  0.4167
25792SOL    HW289101   5.579   6.731   0.655  1.6184  1.0150  0.6987
25793SOL     OW89102   7.677   0.528   9.399 -0.4470  0.4362 -0.2492
25793SOL    HW189103   7.652   0.517   9.491 -1.3175  0.2222 -0.5000
25793SOL    HW289104   7.765   0.564   9.402  0.2246 -1.1712  0.6758
25794SOL     OW89105   0.971   7.261   4.062 -0.2398  0.0430 -0.3341
25794SOL    HW189106   0.917   7.191   4.100 -1.3754  1.0711  0.0151
25794SOL    HW289107   0.908   7.326   4.032  0.7511  0.4378 -1.6696
25795SOL     OW89108   9.485   1.093  10.272 -0.1945 -0.4282 -0.3598
25795SOL    HW189109   9.575   1.085  10.241 -0.5698 -0.0057 -1.6216
25795SOL    HW289110   9.490   1.153  10.346  0.8866 -2.3547  1.2352
25796SOL     OW89111   0.779   9.397   8.860 -0.2476  0.5904  0.2948
25796SOL    HW189112   0.867   9.434   8.852 -0.2781  0.4431 -0.9526
25796SOL    HW289113   0.782   9.316   8.809 -1.0450  0.4619  0.4312
25797SOL     OW89114  10.383   2.180   1.678  0.2592 -0.5998  0.0822
25797SOL    HW189115  10.363   2.131   1.599 -0.1332  0.0704 -0.2374
25797SOL    HW289116  10.299   2.215   1.707  0.6741  0.7716 -0.2949
25798SOL     OW89117   3.061  11.216   5.895  1.2925 -0.3047  0.0605
25798SOL    HW189118   3.105  11.221   5.810 -0.0068 -1.0594 -0.6941
25798SOL    HW289119   3.034  11.124   5.902  0.5291 -0.0316  0.8473
25799SOL     OW89120   6.743   6.519   6.269 -0.1806 -0.2996 -0.2233
25799SOL    HW189121   6.750   6.574   6.347 -0.9859 -1.0548  0.4050
25799SOL    HW289122   6.688   6.569   6.209  1.9840  1.1353 -1.1149
25800SOL     OW89123  11.899   1.119   5.084 -0.0525  0.0780  0.0529
25800SOL    HW189124  11.833   1.184   5.059 -0.8682 -0.7595 -0.0508
25800SOL    HW289125  11.884   1.046   5.024  1.2194  0.0094 -0.2016
25801SOL     OW89126   4.049   5.512   5.312  0.4381 -0.2708 -0.0819
25801SOL    HW189127   3.953   5.512   5.310  0.3534  1.5279  1.6733
25801SOL    HW289128   4.073   5.450   5.242 -1.9619 -0.4360 -0.8884
25802SOL     OW89129   9.564   3.500   5.364 -0.4048 -0.2334  0.2165
25802SOL    HW189130   9.609   3.497   5.448  0.7981  0.2189 -0.3963
25802SOL    HW289131   9.592   3.583   5.325 -0.6493 -0.6274 -0.8074
25803SOL     OW89132   3.989   7.644   4.956 -0.3084 -0.7029  0.2605
25803SOL    HW189133   3.976   7.670   5.047 -1.7066 -0.3921 -0.0084
25803SOL    HW289134   3.913   7.680   4.909  1.3582  0.8946 -1.4044
25804SOL     OW89135   6.448   9.074   4.669  0.2575 -0.1836  0.0630
25804SOL    HW189136   6.529   9.032   4.639 -0.0138 -1.0634  0.5420
25804SOL    HW289137   6.378   9.027   4.624 -0.0694 -0.4958  0.8727
25805SOL     OW89138  10.593  10.416   3.453  0.2330 -0.1549  0.2526
25805SOL    HW189139  10.569  10.506   3.428 -0.4194 -0.3700  0.0624
25805SOL    HW289140  10.582  10.366   3.372  0.8712 -0.3550  0.2896
25806SOL     OW89141   1.391   9.800  10.711  0.5870  0.0967  0.5746
25806SOL    HW189142   1.446   9.728  10.679  0.0709  0.0627 -0.2752
25806SOL    HW289143   1.450   9.855  10.763  1.5858  0.4210 -0.8601
25807SOL     OW89144   7.849   9.446   7.139  0.0149 -0.2477 -0.0059
25807SOL    HW189145   7.761   9.459   7.175 -0.5161 -2.4969 -0.3682
25807SOL    HW289146   7.897   9.401   7.209 -0.9484 -4.4257 -1.7293
25808SOL     OW89147   8.177   1.483   1.236 -0.0697 -0.4119 -0.4007
25808SOL    HW189148   8.154   1.567   1.275 -0.4917 -0.2162 -1.0519
25808SOL    HW289149   8.156   1.418   1.303 -0.4863 -0.0599 -0.1904
25809SOL     OW89150   1.364   6.729   6.823 -0.1149  0.4924  0.5883
25809SOL    HW189151   1.273   6.761   6.827 -0.2697  0.2321 -0.5081
25809SOL    HW289152   1.357   6.635   6.835 -0.0180  0.4324  0.1621
25810SOL     OW89153  11.551   8.575   8.423  0.1625 -0.4077  0.1671
25810SOL    HW189154  11.494   8.516   8.472  1.7098 -2.2705 -0.1493
25810SOL    HW289155  11.535   8.553   8.331 -1.4762  1.8794 -0.1880
25811SOL     OW89156   2.771   6.583  10.826 -0.1367 -0.1872  0.4916
25811SOL    HW189157   2.802   6.591  10.736 -0.0233 -0.8395  0.4666
25811SOL    HW289158   2.691   6.635  10.829 -0.1635 -0.1951  0.0020
25812SOL     OW89159   8.460   6.218   0.571 -0.0239  0.4848 -0.0334
25812SOL    HW189160   8.448   6.128   0.541  0.6329  0.6717 -0.9208
25812SOL    HW289161   8.554   6.223   0.592  0.5293  1.6358 -2.4588
25813SOL     OW89162  10.099   7.195   5.461  0.1607  0.1779 -0.1355
25813SOL    HW189163  10.036   7.267   5.458 -0.5872  0.0021  4.3057
25813SOL    HW289164  10.181   7.235   5.488  0.4701 -0.2915 -0.3622
25814SOL     OW89165   0.493   3.241  10.671 -0.2260 -0.3877 -0.5949
25814SOL    HW189166   0.553   3.174  10.639  0.3021  0.1387 -0.7378
25814SOL    HW289167   0.462   3.285  10.592 -0.7465 -0.6051 -0.5156
25815SOL     OW89168   5.041   8.001   9.228  0.0516  0.0832  0.3924
25815SOL    HW189169   5.088   7.923   9.257  1.2705  1.4170  2.1863
25815SOL    HW289170   4.978   8.019   9.298 -0.0726  0.8244  0.0977
25816SOL     OW89171  11.233   0.752   2.088  0.1547  0.0621 -0.1749
25816SOL    HW189172  11.233   0.657   2.087  2.7988 -0.0729  1.6685
25816SOL    HW289173  11.262   0.778   2.001 -0.1248 -0.8212 -0.5342
25817SOL     OW89174   9.327   5.145   0.524  0.6887  0.0371 -0.2287
25817SOL    HW189175   9.384   5.091   0.468  0.0381 -0.4948 -0.3962
25817SOL    HW289176   9.264   5.183   0.463  0.1812 -0.2754  0.0937
25818SOL     OW89177  10.812  11.522  10.794  0.3063  0.0550  0.8225
25818SOL    HW189178  10.766  11.489  10.870  1.4520  0.6971  1.8279
25818SOL    HW289179  10.899  11.546  10.826  0.6331  0.8711 -0.5531
25819SOL     OW89180   8.538   6.626   3.558 -0.3847 -0.1969  0.6028
25819SOL    HW189181   8.556   6.620   3.464  1.7361  0.7448  0.8975
25819SOL    HW289182   8.443   6.615   3.565 -0.5300 -0.8089 -1.5847
25820SOL     OW89183   1.456   6.051  10.074  0.2810  0.0096  0.5877
25820SOL    HW189184   1.487   6.142  10.078  0.5296 -0.1066  1.5915
25820SOL    HW289185   1.470   6.025   9.983 -1.8501  1.6669 -0.3079
25821SOL     OW89186  10.233  10.657   8.949 -0.3027 -0.5994  0.3117
25821SOL    HW189187  10.321  10.682   8.923 -1.1395  1.2750 -0.9284
25821SOL    HW289188  10.221  10.696   9.035 -0.8145  1.6175 -0.6777
25822SOL     OW89189   9.263   3.499   0.467 -0.2861  0.0583  0.2619
25822SOL    HW189190   9.263   3.554   0.390 -0.2290 -0.1681  0.0986
25822SOL    HW289191   9.334   3.437   0.453  0.9194  1.1522  1.3283
25823SOL     OW89192   9.871  10.151   5.268 -0.3894  0.4452 -0.1693
25823SOL    HW189193   9.870  10.139   5.363 -2.2895  0.5502 -0.1327
25823SOL    HW289194   9.814  10.227   5.254 -0.1756  0.3889 -1.4093
25824SOL     OW89195   1.403   6.758   8.492 -0.0760  0.1146  0.3399
25824SOL    HW189196   1.321   6.743   8.539  0.9768 -1.1425  1.8756
25824SOL    HW289197   1.411   6.682   8.435  0.3936 -0.1639  0.7719
25825SOL     OW89198   7.873   9.740   9.246 -0.3073  0.2354 -0.5294
25825SOL    HW189199   7.859   9.832   9.224 -1.6924  0.0893 -0.3583
25825SOL    HW289200   7.959   9.738   9.288  0.2005  1.2788 -1.4666
25826SOL     OW89201   5.195   1.064   9.277  0.1147  0.4660 -0.0204
25826SOL    HW189202   5.220   1.004   9.347  0.3443  1.1128  0.4611
25826SOL    HW289203   5.116   1.024   9.238  0.2939 -0.1655  0.2512
25827SOL     OW89204   4.177   5.730   5.186 -0.0898 -0.5698  0.8369
25827SOL    HW189205   4.169   5.647   5.233 -1.0067 -0.4548  0.9003
25827SOL    HW289206   4.152   5.709   5.096  2.3153 -0.9375  0.1955
25828SOL     OW89207   3.395   2.687  10.676  0.6483  0.0997 -0.4212
25828SOL    HW189208   3.368   2.649  10.593 -2.3768 -1.0608  0.9145
25828SOL    HW289209   3.381   2.782  10.665 -2.8582 -0.2654 -0.4067
25829SOL     OW89210   9.643   9.931  11.431 -0.0166 -0.3748  0.2097
25829SOL    HW189211   9.639   9.971  11.518 -1.6727  0.2625 -0.1280
25829SOL    HW289212   9.553   9.905  11.412  0.1071  0.4457 -1.7397
25830SOL     OW89213   3.287   8.320   6.798  0.2898  0.0060 -0.1511
25830SOL    HW189214   3.301   8.322   6.893  0.0769  1.3475 -0.1221
25830SOL    HW289215   3.374   8.309   6.761  0.1746 -2.6901  0.2047
25831SOL     OW89216   6.056   4.951   0.979 -0.4341 -0.7010  0.4535
25831SOL    HW189217   6.048   5.020   0.913  3.2497  0.3761  0.8948
25831SOL    HW289218   6.011   4.987   1.056 -1.7441 -0.4573 -0.3986
25832SOL     OW89219   7.999   4.071   8.856 -0.0077 -0.1410  0.5576
25832SOL    HW189220   8.087   4.083   8.821  0.2261  1.0769  1.5123
25832SOL    HW289221   7.971   3.986   8.821  1.1770 -0.1318 -0.4918
25833SOL     OW89222   1.260  11.056   6.050  0.8673 -0.5071  0.2163
25833SOL    HW189223   1.188  11.021   5.998  0.3613  1.1699 -0.2427
25833SOL    HW289224   1.245  11.021   6.138 -1.8762  1.6033  0.7228
25834SOL     OW89225  11.001   3.625   3.190 -0.0287 -0.0015  0.4956
25834SOL    HW189226  11.023   3.543   3.234 -0.8770 -0.9200 -0.7061
25834SOL    HW289227  10.938   3.600   3.123  0.3395  1.5195 -0.4745
25835SOL     OW89228  11.054  11.609   7.814 -0.6188 -0.0256  0.2084
25835SOL    HW189229  10.965  11.604   7.851 -0.9671  1.2276 -0.4155
25835SOL    HW289230  11.043  11.654   7.731  0.5465 -0.3554 -0.1432
25836SOL     OW89231   4.198   4.389   4.823 -0.3332 -0.6854 -0.2303
25836SOL    HW189232   4.244   4.313   4.858  0.6395  0.6821  1.6909
25836SOL    HW289233   4.107   4.361   4.815 -0.0388 -1.9746  0.6341
25837SOL     OW89234   2.478  10.597   3.189 -0.0895 -0.1953 -0.0817
25837SOL    HW189235   2.520  10.593   3.275  0.4910 -1.1325 -0.3893
25837SOL    HW289236   2.387  10.572   3.206  0.0524 -0.5046  0.2464
25838SOL     OW89237   4.721   0.155   6.529 -0.3737 -0.5023  0.1596
25838SOL    HW189238   4.779   0.098   6.478 -0.1117 -0.4583  0.4068
25838SOL    HW289239   4.633   0.125   6.506 -0.2500 -0.6896 -0.0795
25839SOL     OW89240   0.647   2.121   2.947 -0.0014  0.2971 -0.2708
25839SOL    HW189241   0.733   2.155   2.973  0.0895  1.9305 -2.4260
25839SOL    HW289242   0.665   2.064   2.872 -0.6856 -0.4984  0.1539
25840SOL     OW89243   7.791   6.312   3.159 -0.3326  0.1469  0.0301
25840SOL    HW189244   7.743   6.245   3.111 -0.1121 -0.2288  0.3259
25840SOL    HW289245   7.883   6.284   3.154  0.0176  1.4624 -1.5212
25841SOL     OW89246  11.728   9.036   5.837  0.0109  0.0428  0.0147
25841SOL    HW189247  11.811   9.033   5.884  0.7232 -0.2660 -1.2307
25841SOL    HW289248  11.663   9.007   5.901  0.6128  1.7060  1.4714
25842SOL     OW89249  10.268   0.340   1.783 -0.4372  0.2462 -0.0154
25842SOL    HW189250  10.185   0.292   1.793 -0.3151  0.3144  1.4035
25842SOL    HW289251  10.329   0.275   1.748 -0.6979 -0.2017  0.3561
25843SOL     OW89252  10.180   7.195   7.354 -0.3576  0.2286 -0.5875
25843SOL    HW189253  10.149   7.156   7.273 -0.5491 -0.8634 -0.0041
25843SOL    HW289254  10.108   7.251   7.383 -0.4898  0.2212 -0.9022
25844SOL     OW89255   7.960   0.840   2.854  0.1689 -0.3909 -0.1052
25844SOL    HW189256   8.039   0.803   2.893  1.4288  1.6401 -0.5640
25844SOL    HW289257   7.913   0.877   2.928  0.9144  0.5508 -0.0755
25845SOL     OW89258   0.381   4.598   2.286  0.3108  0.3671  0.3353
25845SOL    HW189259   0.287   4.592   2.273  0.3953 -2.2170  0.3059
25845SOL    HW289260   0.392   4.662   2.356 -1.7274 -1.3238  2.3572
25846SOL     OW89261   8.781   4.042   1.042  0.0299  0.1988 -0.0262
25846SOL    HW189262   8.836   4.011   0.970  1.4815  0.7753  0.7697
25846SOL    HW289263   8.692   4.019   1.017  0.5780 -0.2827 -1.6391
25847SOL     OW89264  11.476   4.122   7.947 -0.6410 -0.1985  0.2549
25847SOL    HW189265  11.398   4.177   7.956  0.4700  1.4933 -0.0682
25847SOL    HW289266  11.548   4.177   7.978  0.4098 -1.8319  0.8304
25848SOL     OW89267   8.245   8.010   4.292  0.4072  0.9138 -0.2100
25848SOL    HW189268   8.252   7.923   4.253  0.7274  0.1852  1.4138
25848SOL    HW289269   8.334   8.032   4.319  0.0029  0.8247  1.2732
25849SOL     OW89270   2.903  11.134   4.788  0.2442 -0.5416  0.3717
25849SOL    HW189271   2.977  11.194   4.777 -0.8584  0.7250 -0.3451
25849SOL    HW289272   2.893  11.127   4.883  1.1931 -0.6323  0.4789
25850SOL     OW89273   8.002   0.460   9.774  0.1118 -0.9682  0.3746
25850SOL    HW189274   7.990   0.426   9.686  0.8959  1.4851 -0.7611
25850SOL    HW289275   7.920   0.506   9.794  1.4402  2.2870 -0.9927
25851SOL     OW89276   8.899   9.556   8.421 -0.1540 -0.2103 -0.2358
25851SOL    HW189277   8.804   9.568   8.411 -0.1758 -0.9832 -1.1473
25851SOL    HW289278   8.937   9.623   8.364 -0.1758 -0.5040 -0.6011
25852SOL     OW89279   6.534   2.124  10.613 -0.0462 -0.0792  0.2995
25852SOL    HW189280   6.614   2.166  10.582 -0.9762  1.0574 -0.6399
25852SOL    HW289281   6.518   2.053  10.551 -0.1390  0.1214  0.0953
25853SOL     OW89282   5.582   6.510   0.015  0.6049 -0.0338 -0.3472
25853SOL    HW189283   5.597   6.599  -0.015 -2.1246  0.1178 -1.6182
25853SOL    HW289284   5.520   6.520   0.088 -0.9673 -0.8866 -1.4986
25854SOL     OW89285   3.853   8.184   7.159 -1.3003  0.0161 -0.1916
25854SOL    HW189286   3.777   8.131   7.133 -1.3070 -0.6159  1.0250
25854SOL    HW289287   3.824   8.229   7.238 -0.3137 -0.4781  0.4745
25855SOL     OW89288   0.109   4.877   5.118 -0.0684  0.0922  0.5803
25855SOL    HW189289   0.121   4.878   5.213 -2.0049  0.9493  0.8784
25855SOL    HW289290   0.016   4.897   5.105  0.1396  0.0106 -1.5035
25856SOL     OW89291   6.536  11.442   3.313  0.1824 -0.0359  0.1909
25856SOL    HW189292   6.547  11.464   3.220 -0.7358 -0.0512  0.0725
25856SOL    HW289293   6.496  11.355   3.312  1.7342 -0.7853  0.6331
25857SOL     OW89294   9.549   8.209   7.203  0.6257  0.0386 -0.2939
25857SOL    HW189295   9.472   8.195   7.148  1.1171  1.3903 -1.4222
25857SOL    HW289296   9.515   8.216   7.292 -0.3839 -0.6817 -0.6028
25858SOL     OW89297   0.240   4.171  11.871  0.5096 -0.1110 -0.2681
25858SOL    HW189298   0.195   4.187  11.788 -0.0874 -0.0268  0.0683
25858SOL    HW289299   0.233   4.253  11.918  0.5592 -0.2633  0.0056
25859SOL     OW89300   0.620  10.744   4.606 -0.0465  0.0381 -0.0786
25859SOL    HW189301   0.552  10.690   4.645 -0.1592 -1.2712 -1.9449
25859SOL    HW289302   0.680  10.682   4.565  0.7146  1.2664 -0.9082
25860SOL     OW89303   8.256   1.784   3.782 -0.1836  0.4992 -0.4046
25860SOL    HW189304   8.347   1.774   3.754 -0.4916  0.0400 -1.2776
25860SOL    HW289305   8.259   1.778   3.877  0.1843 -4.2281 -0.4723
25861SOL     OW89306   5.243  11.640   8.369  0.0011  0.3928  0.2167
25861SOL    HW189307   5.187  11.663   8.444 -1.8169 -0.9104 -0.6696
25861SOL    HW289308   5.186  11.650   8.293  0.6760 -1.8590 -0.6529
25862SOL     OW89309   4.604   8.058  11.332  0.1669 -0.4289 -0.1256
25862SOL    HW189310   4.649   8.027  11.253 -0.5255  0.0443 -0.7236
25862SOL    HW289311   4.533   7.995  11.345 -0.0505 -0.2007 -0.1992
25863SOL     OW89312   6.401   3.274  11.647  0.3011  0.3567  0.7733
25863SOL    HW189313   6.305   3.273  11.643  0.2340  2.5240  0.5775
25863SOL    HW289314   6.423   3.201  11.705 -1.3144 -1.5021 -0.8017
25864SOL     OW89315   6.708   8.762   4.393 -0.2228  0.1436 -0.3427
25864SOL    HW189316   6.770   8.805   4.334  0.1763  2.2585  1.4804
25864SOL    HW289317   6.658   8.704   4.337  0.7860  1.3189 -2.5881
25865SOL     OW89318   1.296   7.216   1.550 -0.4848 -0.0107  0.3017
25865SOL    HW189319   1.331   7.126   1.550 -2.3154 -0.7606 -0.0564
25865SOL    HW289320   1.331   7.254   1.631  0.2075 -1.0878  0.5381
25866SOL     OW89321   7.119   7.697   4.273  0.8230  0.1528 -0.4365
25866SOL    HW189322   7.140   7.640   4.347  2.1529 -0.5364 -1.3078
25866SOL    HW289323   7.031   7.728   4.291  0.6758 -0.9264  0.8511
25867SOL     OW89324   8.525  10.680   9.042  0.4061 -0.4724 -0.0925
25867SOL    HW189325   8.528  10.681   9.137  0.1783  1.2307 -0.0691
25867SOL    HW289326   8.608  10.720   9.015  0.2537 -0.4834 -0.5926
25868SOL     OW89327   7.000  11.642   3.396 -0.1806  0.1369 -0.3933
25868SOL    HW189328   6.968  11.727   3.366 -0.5962 -0.0079 -0.3654
25868SOL    HW289329   6.934  11.612   3.459 -0.7016 -0.7776 -1.3439
25869SOL     OW89330   5.277   6.577   5.592 -0.3470  0.2437  0.2208
25869SOL    HW189331   5.365   6.551   5.564  0.4038  0.0039  2.5926
25869SOL    HW289332   5.276   6.672   5.582 -1.2299 -0.0186 -3.4052
25870SOL     OW89333   2.175  10.511   4.861  0.1065  0.3155 -0.0404
25870SOL    HW189334   2.148  10.594   4.900 -2.2514  0.2533 -1.3918
25870SOL    HW289335   2.271  10.516   4.858  0.1396  2.0915  1.7532
25871SOL     OW89336   4.988  11.717   3.086  0.0238  0.2094 -0.0354
25871SOL    HW189337   4.944  11.771   3.020 -0.8720 -0.4015  0.0400
25871SOL    HW289338   4.954  11.749   3.170 -0.2126 -0.2029  0.0284
25872SOL     OW89339   0.673   0.809   3.671 -0.1743 -0.3572 -0.0745
25872SOL    HW189340   0.746   0.819   3.610 -1.6442  3.5220 -1.4707
25872SOL    HW289341   0.605   0.765   3.620 -0.7238  1.1323 -0.6628
25873SOL     OW89342   8.039  11.855   1.757  0.0963  0.0697 -0.4956
25873SOL    HW189343   8.035  11.763   1.728 -0.1972  0.2225 -0.9507
25873SOL    HW289344   7.947  11.880   1.766  0.1555 -0.1560  1.1905
25874SOL     OW89345   2.475   7.311   2.810 -0.7562 -0.1407  0.0448
25874SOL    HW189346   2.487   7.373   2.882 -1.9151 -0.2132  0.3084
25874SOL    HW289347   2.564   7.298   2.776 -0.2245  0.1047  1.2710
25875SOL     OW89348   0.453  11.750   9.089 -0.6803 -0.5439  0.1147
25875SOL    HW189349   0.440  11.841   9.063  0.9409 -0.1367  0.6549
25875SOL    HW289350   0.382  11.703   9.045 -0.8861  0.8043 -1.0851
25876SOL     OW89351   4.589   2.279  11.046  0.2818  0.6761 -0.1657
25876SOL    HW189352   4.653   2.346  11.071  0.2632  0.1004  1.4980
25876SOL    HW289353   4.532   2.271  11.122  0.3236 -1.2916 -0.3009
25877SOL     OW89354   8.342   8.339   2.556  0.0041 -0.7488  0.2938
25877SOL    HW189355   8.388   8.258   2.573 -0.1382 -0.9017 -0.0379
25877SOL    HW289356   8.359   8.358   2.463 -1.4140 -1.3397 -0.1152
25878SOL     OW89357  10.868  11.500   9.600 -0.2426  0.4526  0.3237
25878SOL    HW189358  10.873  11.595   9.614 -1.4532  0.4366  0.9583
25878SOL    HW289359  10.863  11.463   9.688  0.3965 -0.2216  0.0811
25879SOL     OW89360   5.114  10.540   5.852  0.0363  0.2710 -0.1147
25879SOL    HW189361   5.045  10.604   5.866  0.9594  1.1275  0.6773
25879SOL    HW289362   5.154  10.528   5.938  2.4948  1.7023 -0.9718
25880SOL     OW89363   8.070   4.351   2.865 -0.3322 -0.4081  0.3924
25880SOL    HW189364   7.984   4.388   2.845 -0.3620 -0.4164  0.5064
25880SOL    HW289365   8.059   4.308   2.949  0.0176  0.3859  0.8608
25881SOL     OW89366   9.634   7.400   8.385 -0.1550 -0.1937  0.1246
25881SOL    HW189367   9.708   7.408   8.325 -0.1685  1.8144  0.3268
25881SOL    HW289368   9.576   7.472   8.361 -0.9951 -0.4110  1.4226
25882SOL     OW89369  11.789   4.947   8.253  0.0423  0.1218 -0.8030
25882SOL    HW189370  11.829   4.865   8.282  0.5783  0.4183 -0.6958
25882SOL    HW289371  11.696   4.937   8.272  0.4073  0.4399  1.3198
25883SOL     OW89372   5.725   7.792   5.056  0.0878  0.1563  0.3822
25883SOL    HW189373   5.780   7.779   5.133  1.0916  1.6390 -0.0542
25883SOL    HW289374   5.645   7.832   5.091  0.4685  0.6681  0.6830
25884SOL     OW89375   1.475   2.279   5.142  0.1979  0.3992 -0.2807
25884SOL    HW189376   1.435   2.196   5.168  0.2060  0.3929 -0.2881
25884SOL    HW289377   1.532   2.302   5.216  0.6094  0.1256 -0.5108
25885SOL     OW89378   9.405   1.700   8.370  0.0654 -0.1353  0.3797
25885SOL    HW189379   9.374   1.785   8.400  0.3754  0.0283  0.2407
25885SOL    HW289380   9.499   1.713   8.354 -0.0761 -0.2532 -0.5667
25886SOL     OW89381   7.689   3.844   6.588 -0.0402  0.1268 -0.5354
25886SOL    HW189382   7.702   3.752   6.566  0.9131 -0.1434  1.0514
25886SOL    HW289383   7.594   3.852   6.600 -0.0487 -0.8351  0.1061
25887SOL     OW89384   0.621   3.080   8.595 -0.0302 -0.5366  0.0836
25887SOL    HW189385   0.644   3.015   8.661 -0.9032 -0.1753  0.7718
25887SOL    HW289386   0.702   3.128   8.579  0.0445 -0.1477  1.4752
25888SOL     OW89387   6.300  10.728  11.102  0.1769  0.1584  0.5192
25888SOL    HW189388   6.378  10.673  11.089 -0.5764 -1.0587  1.0100
25888SOL    HW289389   6.253  10.686  11.173 -0.7601  1.0989  0.4757
25889SOL     OW89390   5.360   9.317   9.129 -0.0256  0.3091  0.1105
25889SOL    HW189391   5.353   9.234   9.176  0.4359  0.2860  0.1486
25889SOL    HW289392   5.290   9.371   9.164 -0.0749  0.0741  0.3769
25890SOL     OW89393   4.268   0.816   7.595  0.4649  0.1825 -0.2755
25890SOL    HW189394   4.221   0.787   7.673  0.2524  1.3544  0.0420
25890SOL    HW289395   4.330   0.745   7.577  0.2207 -0.2922  0.6971
25891SOL     OW89396   4.617   0.914   8.469  0.0869 -0.2526 -0.1622
25891SOL    HW189397   4.657   0.862   8.539  0.2639  0.0196 -0.0623
25891SOL    HW289398   4.689   0.933   8.409  0.3714  1.2472  0.6211
25892SOL     OW89399   9.807   9.450   6.733 -0.7929 -0.3081 -0.3125
25892SOL    HW189400   9.841   9.378   6.680 -2.5522 -0.6467 -1.0487
25892SOL    HW289401   9.814   9.527   6.677  1.9412  0.3805  0.7909
25893SOL     OW89402   1.024   0.780   9.014 -0.5907  0.1519  0.6315
25893SOL    HW189403   0.971   0.747   8.942  0.2300 -0.4173  0.2773
25893SOL    HW289404   1.066   0.859   8.979 -1.0074  0.4599  0.8275
25894SOL     OW89405   0.740   7.239   3.718 -0.5625 -0.4222 -0.7566
25894SOL    HW189406   0.734   7.157   3.769  1.6996 -0.1515  0.0466
25894SOL    HW289407   0.653   7.248   3.679 -1.5708 -2.0626  0.8934
25895SOL     OW89408   9.256   0.443  11.184 -0.3561 -0.2740  0.1046
25895SOL    HW189409   9.241   0.351  11.202  3.4263 -0.5598  2.9562
25895SOL    HW289410   9.328   0.445  11.122  0.4201  0.7072  0.9951
25896SOL     OW89411  10.568   1.597   4.982  0.2231 -0.0441 -0.0449
25896SOL    HW189412  10.606   1.684   4.966  1.8616 -0.9446 -1.3793
25896SOL    HW289413  10.642   1.543   5.010 -1.1729 -0.5217  3.1354
25897SOL     OW89414   6.601   1.574   3.230 -0.4122 -0.6709  0.5356
25897SOL    HW189415   6.513   1.608   3.211 -0.5371 -0.9901  0.5309
25897SOL    HW289416   6.587   1.511   3.301 -0.5571 -2.4517 -0.9882
25898SOL     OW89417   7.890  11.537   2.567 -0.2343  0.1756  0.1144
25898SOL    HW189418   7.857  11.621   2.600 -1.2846 -1.3973  3.5319
25898SOL    HW289419   7.980  11.533   2.599  0.5727  0.8597 -1.9441
25899SOL     OW89420   9.464   4.922   4.456  0.0559  0.1236  0.4198
25899SOL    HW189421   9.373   4.949   4.471 -0.6974 -2.6471  1.4733
25899SOL    HW289422   9.482   4.858   4.525  2.4138 -0.3366 -0.5087
25900SOL     OW89423   1.571  11.002   8.401  1.0048  0.3043  0.1397
25900SOL    HW189424   1.560  11.038   8.313 -3.0281 -0.9157 -0.0682
25900SOL    HW289425   1.574  11.078   8.458  0.5222  1.0852 -0.8452
25901SOL     OW89426   2.359   1.012   8.393 -0.6715 -0.0099 -0.1767
25901SOL    HW189427   2.379   1.102   8.416  1.2091 -0.0910 -1.2406
25901SOL    HW289428   2.285   1.017   8.333  0.1287  0.9686 -1.1266
25902SOL     OW89429   7.269   5.813   2.990  0.0865 -0.6865 -0.2963
25902SOL    HW189430   7.229   5.734   3.026  2.5957 -1.7234  0.4623
25902SOL    HW289431   7.236   5.884   3.046 -0.8490 -1.4253  0.1212
25903SOL     OW89432   9.871   0.229   9.888  0.4390  0.0118 -0.1087
25903SOL    HW189433   9.895   0.145   9.848  0.1850  0.0409 -0.3208
25903SOL    HW289434   9.936   0.241   9.958  1.4269  0.3772 -1.0478
25904SOL     OW89435   2.002   4.798   1.003  0.2255  0.2488 -0.2280
25904SOL    HW189436   2.020   4.723   0.947  2.6728  1.2331 -0.8960
25904SOL    HW289437   2.056   4.784   1.081  3.0020  2.4779 -1.5387
25905SOL     OW89438   7.493   4.433   4.736 -0.0488  0.0099  0.1097
25905SOL    HW189439   7.475   4.342   4.715  2.1757 -0.5819  0.5196
25905SOL    HW289440   7.578   4.451   4.697 -0.1715  1.7517  0.5276
25906SOL     OW89441   2.478   5.368   7.239 -0.3025 -0.3408 -0.0123
25906SOL    HW189442   2.490   5.286   7.286 -0.5905  0.4492  1.5107
25906SOL    HW289443   2.509   5.350   7.150  4.2970 -0.8124  1.4223
25907SOL     OW89444   8.603   3.332   6.403  0.1959 -0.1340 -0.0199
25907SOL    HW189445   8.583   3.240   6.386 -1.0263  0.1913 -0.4106
25907SOL    HW289446   8.683   3.348   6.354  1.6459 -1.5167  1.7356
25908SOL     OW89447   2.828   4.492   1.585  0.0740 -0.5336  0.0780
25908SOL    HW189448   2.784   4.476   1.669  0.1687  1.4418  0.5621
25908SOL    HW289449   2.767   4.546   1.535  1.7555  2.2324  0.7383
25909SOL     OW89450   2.879   7.998   0.863 -0.2555 -0.5110 -0.4573
25909SOL    HW189451   2.800   8.035   0.902  0.4645  0.3033  0.2695
25909SOL    HW289452   2.925   8.073   0.827  0.0544 -1.0193 -1.1424
25910SOL     OW89453   5.996   9.992  11.758 -0.4613  0.1012 -0.4036
25910SOL    HW189454   5.910   9.949  11.755 -1.2282  1.5755 -1.0593
25910SOL    HW289455   6.030   9.984  11.670  0.5493 -1.3158  0.0853
25911SOL     OW89456   5.278   5.147   3.416  0.0447  0.7237 -0.3023
25911SOL    HW189457   5.197   5.151   3.365 -0.1622 -0.5741 -0.1000
25911SOL    HW289458   5.264   5.076   3.478  1.4858  0.2336 -0.5039
25912SOL     OW89459   9.192   4.021   2.781  0.8423  0.0430  0.7077
25912SOL    HW189460   9.134   4.056   2.848 -2.2660 -0.9547 -1.2192
25912SOL    HW289461   9.135   3.964   2.728  3.5252 -0.6780 -1.6436
25913SOL     OW89462   3.580   5.749   4.386  0.4253  0.3366  0.3424
25913SOL    HW189463   3.489   5.780   4.382  0.1660 -0.3832  0.5115
25913SOL    HW289464   3.627   5.819   4.431  0.3673  1.6160 -1.4793
25914SOL     OW89465   2.359   2.860   3.193 -0.0070 -0.1700  0.7064
25914SOL    HW189466   2.291   2.858   3.260 -0.1677  0.3499  0.5641
25914SOL    HW289467   2.439   2.835   3.239 -0.1641 -0.0767  1.0330
25915SOL     OW89468   9.442   6.162   5.827  0.1365 -0.1110  0.1359
25915SOL    HW189469   9.380   6.089   5.831  0.6272 -0.4891  1.4812
25915SOL    HW289470   9.389   6.238   5.804 -0.6205 -0.6445  0.0911
25916SOL     OW89471   5.849   4.932   8.839  0.3179  0.3499  0.1858
25916SOL    HW189472   5.889   4.855   8.880  0.7071  0.6755  0.4311
25916SOL    HW289473   5.886   5.006   8.888  2.8218  0.9430 -2.3731
25917SOL     OW89474   0.018   9.888   7.783 -0.0183  0.2768 -0.2663
25917SOL    HW189475   0.058   9.931   7.859 -0.4320 -0.3189  0.3037
25917SOL    HW289476   0.093   9.860   7.730  0.4159 -1.5364  1.1800
25918SOL     OW89477   3.290   4.700   6.604 -0.2005  0.1382  0.5547
25918SOL    HW189478   3.366   4.723   6.657 -0.3128  1.0489  0.3411
25918SOL    HW289479   3.233   4.778   6.608 -0.4605  0.0159 -0.4426
25919SOL     OW89480   6.336   0.628   5.234 -0.4203  0.3032  0.3505
25919SOL    HW189481   6.285   0.567   5.286 -0.5594  0.2436  0.1455
25919SOL    HW289482   6.305   0.615   5.144  0.4621 -0.2586  0.1109
25920SOL     OW89483  10.643   2.641   8.334 -0.3009  0.3673 -0.0126
25920SOL    HW189484  10.648   2.547   8.353 -0.1569 -0.2714 -2.7672
25920SOL    HW289485  10.733   2.672   8.342 -0.0953 -0.0781 -0.4906
25921SOL     OW89486   8.246   2.062   8.870 -0.5103  0.1227  0.3420
25921SOL    HW189487   8.289   1.988   8.825  1.9990  0.7074  1.6335
25921SOL    HW289488   8.191   2.020   8.936 -0.4513 -0.6293 -0.0642
25922SOL     OW89489   6.981   6.552   7.636  0.1248 -0.0270 -0.0516
25922SOL    HW189490   6.893   6.557   7.673  0.5419 -2.0601  1.3691
25922SOL    HW289491   6.968   6.551   7.541 -1.3253  0.3358  0.1265
25923SOL     OW89492   7.952   5.730   1.678  0.0019  0.0786 -0.3819
25923SOL    HW189493   7.985   5.809   1.722 -4.1293  0.8742  1.8194
25923SOL    HW289494   7.884   5.763   1.619 -0.6451 -1.7279 -0.6914
25924SOL     OW89495   1.055   4.648   3.267 -0.6529 -0.1727 -0.1073
25924SOL    HW189496   1.068   4.703   3.190 -0.2574  0.2829  0.2795
25924SOL    HW289497   1.140   4.609   3.284 -0.8730 -0.7213 -0.2316
25925SOL     OW89498   8.025  11.321   0.592 -0.1017 -0.1280 -0.3430
25925SOL    HW189499   8.063  11.402   0.558 -1.1450  0.5747  0.0982
25925SOL    HW289500   8.013  11.339   0.686 -1.2039 -0.4429 -0.4170
25926SOL     OW89501   3.933   1.997   1.694 -0.7029 -0.0615  0.0226
25926SOL    HW189502   3.874   1.941   1.643 -1.1357 -0.7634  1.2354
25926SOL    HW289503   4.011   1.943   1.706  0.7589  1.2991 -2.5912
25927SOL     OW89504   8.241   1.132   4.863 -0.4357 -1.1575 -0.4648
25927SOL    HW189505   8.199   1.058   4.821  0.1416 -3.3190  2.4400
25927SOL    HW289506   8.334   1.109   4.865  0.0561  0.6038 -1.2146
25928SOL     OW89507   5.054  10.820  10.182 -0.9564 -0.6339 -1.2344
25928SOL    HW189508   5.077  10.765  10.257 -1.5642  1.2997  0.4722
25928SOL    HW289509   4.966  10.853  10.203 -0.0650  2.1211 -1.4230
25929SOL     OW89510   7.449   8.339  10.522  0.7554  0.6890 -0.3842
25929SOL    HW189511   7.439   8.419  10.471  0.8432  2.0179  1.5856
25929SOL    HW289512   7.517   8.359  10.587 -0.5001 -0.3226  1.3425
25930SOL     OW89513   1.423   5.768   0.040  0.3221  0.1929  0.2699
25930SOL    HW189514   1.358   5.708   0.076  0.1324  0.3772  0.2408
25930SOL    HW289515   1.387   5.855   0.058 -0.9169  0.3226 -2.3201
25931SOL     OW89516   7.999   6.913   8.703  0.1257 -0.1500  0.1237
25931SOL    HW189517   7.989   6.947   8.614  0.1021 -0.2709  0.0818
25931SOL    HW289518   7.916   6.935   8.746  0.4348  0.6189  0.3491
25932SOL     OW89519  10.985  11.263   4.035 -0.2757 -0.2592  0.6844
25932SOL    HW189520  11.020  11.195   4.092  1.1888 -0.1784 -0.0538
25932SOL    HW289521  11.037  11.340   4.056 -0.9830  0.2583  0.5408
25933SOL     OW89522   6.299   3.952   7.782 -0.1551 -0.3467  0.3177
25933SOL    HW189523   6.320   3.873   7.833 -0.6323 -0.5297  0.2289
25933SOL    HW289524   6.318   3.927   7.692 -0.5542 -0.4440  0.2607
25934SOL     OW89525   6.846   4.384  10.045  0.5106 -0.5069  0.2668
25934SOL    HW189526   6.762   4.416  10.078  0.6548  1.6161 -1.2557
25934SOL    HW289527   6.823   4.307   9.993 -0.5688  0.3162 -0.5249
25935SOL     OW89528   7.441   8.436   8.001 -0.4318 -0.1023 -0.2482
25935SOL    HW189529   7.508   8.408   7.939 -0.7397  1.3874 -1.3040
25935SOL    HW289530   7.371   8.471   7.947  0.2451  3.3915  0.8576
25936SOL     OW89531   2.229  10.655   1.680  0.8773  0.0726  0.2775
25936SOL    HW189532   2.266  10.588   1.737 -1.6348 -1.5894  0.1041
25936SOL    HW289533   2.149  10.684   1.725  0.3031  0.7070 -1.0843
25937SOL     OW89534  10.669  11.737   9.515  0.1304  0.4141  0.0698
25937SOL    HW189535  10.585  11.730   9.469  0.1633 -3.0074  0.2459
25937SOL    HW289536  10.646  11.776   9.599 -1.1728  0.2854 -0.1898
25938SOL     OW89537   4.063  10.327   4.983  0.1867 -0.7357 -0.3624
25938SOL    HW189538   4.105  10.346   4.899 -0.3314 -0.3632 -0.5480
25938SOL    HW289539   3.972  10.357   4.971 -0.3113 -2.1299 -0.1969
25939SOL     OW89540   0.106   7.974   7.491 -0.2402 -0.7627 -0.5011
25939SOL    HW189541   0.137   7.995   7.403 -0.7016  1.8988 -0.0981
25939SOL    HW289542   0.175   8.007   7.549 -1.8192  1.4412  0.2426
25940SOL     OW89543   1.279   1.606   2.265 -0.0696  0.0000 -0.3256
25940SOL    HW189544   1.319   1.523   2.291 -2.3367 -0.5694  1.8037
25940SOL    HW289545   1.300   1.666   2.336 -1.5026  0.1422  0.0123
25941SOL     OW89546   6.791   2.633   2.121 -0.1820 -0.1067 -0.2936
25941SOL    HW189547   6.797   2.548   2.163  0.3356 -0.0716 -0.2799
25941SOL    HW289548   6.771   2.694   2.192  1.6277  0.0933  0.1063
25942SOL     OW89549   8.375   9.624   9.396  0.0769  0.5313 -0.0044
25942SOL    HW189550   8.370   9.529   9.384 -0.3317  0.2286  2.1025
25942SOL    HW289551   8.345   9.660   9.313 -0.5195 -1.1909 -0.5874
25943SOL     OW89552   2.746  11.225   1.778  0.5997 -0.0582  0.0937
25943SOL    HW189553   2.654  11.216   1.754  0.3715  0.3024  0.8110
25943SOL    HW289554   2.793  11.171   1.714 -0.1963 -1.0608  0.3298
25944SOL     OW89555   6.981   7.153   7.964 -0.1415 -0.1857 -0.8892
25944SOL    HW189556   7.009   7.213   8.032 -1.5397 -0.1334 -0.3192
25944SOL    HW289557   6.909   7.103   8.004 -0.4512 -0.7176 -2.0555
25945SOL     OW89558  10.774   4.376   9.921  0.1154  0.2058 -0.1196
25945SOL    HW189559  10.762   4.305   9.984  0.4949  0.2398 -0.0088
25945SOL    HW289560  10.687   4.389   9.883  0.1798 -0.7531 -0.6051
25946SOL     OW89561   7.257   4.113   0.728 -0.1032 -0.0208 -0.9113
25946SOL    HW189562   7.308   4.106   0.647 -1.0509  0.6489 -1.5831
25946SOL    HW289563   7.296   4.187   0.775  0.1704 -0.1385 -0.9491
25947SOL     OW89564   7.758   9.097   4.843 -0.2280 -0.2695  0.2672
25947SOL    HW189565   7.719   9.184   4.852 -1.3679 -0.9088  1.7545
25947SOL    HW289566   7.704   9.053   4.778  0.6237  0.2332 -0.8353
25948SOL     OW89567   2.622   5.545   7.778 -0.1352 -0.2385 -0.7423
25948SOL    HW189568   2.580   5.505   7.854 -1.7532 -1.0970 -2.0373
25948SOL    HW289569   2.703   5.495   7.766  0.3077  0.1114  0.5610
25949SOL     OW89570  11.549   3.761   4.163  0.8808 -0.1589 -0.0926
25949SOL    HW189571  11.507   3.716   4.237  0.3247 -0.1303 -0.3865
25949SOL    HW289572  11.537   3.854   4.182 -0.8094 -0.1288 -1.0499
25950SOL     OW89573   9.352   5.336   6.005  0.2091 -0.0406 -1.0713
25950SOL    HW189574   9.385   5.380   5.927 -0.4652  1.7053 -0.4075
25950SOL    HW289575   9.256   5.337   5.995  0.0129  1.7283  0.5227
25951SOL     OW89576   9.083  11.526   2.749  0.3302 -0.3729 -0.1299
25951SOL    HW189577   9.087  11.515   2.844  0.3772  1.6151  0.1302
25951SOL    HW289578   9.162  11.574   2.727 -0.4694  0.6076 -0.9480
25952SOL     OW89579   0.749   9.756   5.819 -0.4848 -0.2509 -0.5609
25952SOL    HW189580   0.809   9.733   5.891 -1.3983 -0.9139  0.0218
25952SOL    HW289581   0.748   9.851   5.818  1.9243 -0.1599 -1.7491
25953SOL     OW89582  10.983   9.979  11.020  0.5947 -0.1408 -0.1777
25953SOL    HW189583  10.905   9.925  11.004 -0.8634  1.9337 -0.5170
25953SOL    HW289584  11.055   9.917  11.019 -0.9866 -2.1002 -0.3642
25954SOL     OW89585   5.034  11.444  11.791  0.0799  0.3169  0.0198
25954SOL    HW189586   5.060  11.389  11.717 -1.2420  1.7446 -1.5979
25954SOL    HW289587   5.043  11.387  11.868  0.0357 -1.7178 -1.4003
25955SOL     OW89588   4.496   9.586   7.660  0.0922  0.5020 -0.4025
25955SOL    HW189589   4.506   9.499   7.698 -0.1860  0.0592 -1.3000
25955SOL    HW289590   4.487   9.644   7.735  1.6291 -0.0517  0.2617
25956SOL     OW89591   2.358  10.016  11.604 -0.3349 -0.2497  0.4736
25956SOL    HW189592   2.394  10.087  11.657 -2.3675  1.0231  0.2487
25956SOL    HW289593   2.316   9.958  11.667  0.7275 -0.9239  0.5889
25957SOL     OW89594   3.983   7.565   6.611  0.0250 -0.3164  0.3177
25957SOL    HW189595   3.960   7.597   6.524  1.7922 -2.7860 -1.2195
25957SOL    HW289596   3.901   7.532   6.647 -0.5311 -0.4820 -1.0263
25958SOL     OW89597   9.436   7.212  11.684  0.1221 -0.1975  0.3996
25958SOL    HW189598   9.343   7.215  11.661 -0.5466 -2.3755  2.3806
25958SOL    HW289599   9.444   7.275  11.756  0.0198 -0.4459  0.6322
25959SOL     OW89600   8.679   7.285   1.229 -0.2236  0.0329 -0.2449
25959SOL    HW189601   8.705   7.251   1.315 -0.2284 -0.5302 -0.4654
25959SOL    HW289602   8.719   7.371   1.225  0.2871 -0.1867  0.0728
25960SOL     OW89603   6.152  10.262   7.491 -0.1593  0.4482 -0.1239
25960SOL    HW189604   6.239  10.262   7.531 -0.1696  3.0483  0.0747
25960SOL    HW289605   6.101  10.201   7.545  1.4226 -0.8531 -0.0406
25961SOL     OW89606   3.616   0.641   5.592 -0.0383 -0.1891  0.2996
25961SOL    HW189607   3.577   0.660   5.507  1.0720  1.0450  0.0348
25961SOL    HW289608   3.541   0.620   5.649 -0.8304 -0.4835 -0.8198
25962SOL     OW89609   1.830  11.139   9.484 -0.7270  0.2274 -0.5260
25962SOL    HW189610   1.782  11.067   9.525 -1.3849  0.8065 -0.2597
25962SOL    HW289611   1.892  11.167   9.551  0.7229 -1.1823 -1.2259
25963SOL     OW89612   7.773   0.420   3.452 -0.3697  0.3932 -0.2905
25963SOL    HW189613   7.739   0.331   3.450 -0.7497  0.5456 -1.2047
25963SOL    HW289614   7.724   0.463   3.522  0.9473 -0.5375  1.2458
25964SOL     OW89615   4.002   5.982   8.033 -0.3536  0.6861 -0.0170
25964SOL    HW189616   4.020   6.036   7.957 -1.1136  2.6192  1.0958
25964SOL    HW289617   3.908   5.995   8.051  0.0575  1.3042  1.9523
25965SOL     OW89618   7.225   5.322  11.282  0.3049  0.3287 -0.5037
25965SOL    HW189619   7.254   5.260  11.214  2.4224  1.2499 -0.5178
25965SOL    HW289620   7.227   5.270  11.363  0.0006 -0.1695 -0.8073
25966SOL     OW89621   2.626   7.282   3.253 -0.1198  0.0217 -0.6990
25966SOL    HW189622   2.575   7.213   3.295 -1.5130  0.4157 -1.6822
25966SOL    HW289623   2.716   7.265   3.282 -0.9362  0.1695  2.2511
25967SOL     OW89624   3.049   4.275   6.691  0.1842 -0.0471  0.2790
25967SOL    HW189625   3.081   4.362   6.714 -2.5464  0.9863  0.4926
25967SOL    HW289626   2.998   4.288   6.611  0.0040 -1.5103  0.1265
25968SOL     OW89627   7.485   7.488   5.362  0.0762  0.2025 -0.3329
25968SOL    HW189628   7.512   7.529   5.280  1.0442  0.2295 -0.0191
25968SOL    HW289629   7.396   7.458   5.346  0.2065  0.3209 -1.3522
25969SOL     OW89630   0.733   7.534   8.891 -0.3308  0.5255  0.3613
25969SOL    HW189631   0.809   7.506   8.839 -0.1427 -0.2734  1.0479
25969SOL    HW289632   0.750   7.626   8.910  2.0505 -0.2927  3.0508
25970SOL     OW89633   0.595   4.983   9.989 -0.6335  0.0449 -0.1554
25970SOL    HW189634   0.652   5.058   9.968  1.5021 -1.7571 -1.2303
25970SOL    HW289635   0.571   4.947   9.903 -0.9624 -0.9676  0.3517
25971SOL     OW89636   7.816   2.917  10.899  0.2170 -0.0716  0.2839
25971SOL    HW189637   7.869   2.863  10.958 -0.7316 -0.6539  0.6259
25971SOL    HW289638   7.753   2.961  10.956 -0.0888  0.1124 -0.1852
25972SOL     OW89639   8.476   2.982   8.037 -0.1649  0.0153  0.2469
25972SOL    HW189640   8.389   3.005   8.005 -0.0325 -0.1205 -0.2179
25972SOL    HW289641   8.472   2.888   8.053 -1.0640  0.4736  3.2523
25973SOL     OW89642   1.635   3.659   8.645 -0.5501  0.2563 -0.1352
25973SOL    HW189643   1.593   3.744   8.630 -0.7104  0.0636 -0.8243
25973SOL    HW289644   1.725   3.671   8.617 -0.5127  0.2679 -0.0086
25974SOL     OW89645   9.138   2.289   1.169 -0.3595  0.4498 -0.1356
25974SOL    HW189646   9.188   2.230   1.112 -1.5773 -2.5199  1.6596
25974SOL    HW289647   9.108   2.358   1.110  1.8903 -0.1461 -2.1893
25975SOL     OW89648   4.997   7.610   5.011 -0.0485 -0.5251  0.5235
25975SOL    HW189649   5.056   7.668   5.059 -1.7405  1.5762  0.2193
25975SOL    HW289650   5.033   7.522   5.025  3.0527  0.5996  0.4211
25976SOL     OW89651   5.722   0.732   4.984  0.0962  0.3400 -0.0933
25976SOL    HW189652   5.736   0.660   4.922  1.7490 -0.2172  0.8706
25976SOL    HW289653   5.800   0.787   4.974 -0.7499  1.5398 -0.2008
25977SOL     OW89654   6.525   0.279  11.421  0.6710  0.0698  0.1662
25977SOL    HW189655   6.586   0.327  11.365 -0.1613 -1.4138 -2.1657
25977SOL    HW289656   6.581   0.220  11.472  1.4510  1.4917  1.0181
25978SOL     OW89657   7.134   0.046   8.833  0.2541 -0.0324  0.1767
25978SOL    HW189658   7.222   0.066   8.865 -0.1920  0.2286  1.2706
25978SOL    HW289659   7.139  -0.046   8.805  0.1659 -0.9916  2.9694
25979SOL     OW89660   9.308   1.221   7.796 -0.0598  0.5472 -0.0551
25979SOL    HW189661   9.366   1.169   7.852 -0.2751 -1.1602 -1.3393
25979SOL    HW289662   9.366   1.286   7.757  0.5529  0.2872  0.3950
25980SOL     OW89663   4.938   5.832   8.461  0.0931 -0.6320 -0.2969
25980SOL    HW189664   4.972   5.772   8.394 -1.5060 -1.7624 -0.1378
25980SOL    HW289665   4.997   5.820   8.535 -1.0477 -3.2334  0.2908
25981SOL     OW89666   0.427   6.693   3.852  0.3976  0.4894  0.4750
25981SOL    HW189667   0.387   6.607   3.860  0.8659  0.3391  1.3505
25981SOL    HW289668   0.458   6.697   3.762  0.3640 -0.2624  0.4244
25982SOL     OW89669   0.400   9.852   6.584 -0.0139 -0.3441  0.2757
25982SOL    HW189670   0.425   9.855   6.492  1.0503  0.1004  0.5651
25982SOL    HW289671   0.399   9.758   6.605  4.0319 -0.4231  0.8745
25983SOL     OW89672   2.352   6.325   8.579  0.2571  0.7078  0.5944
25983SOL    HW189673   2.300   6.353   8.655 -1.0302 -1.9066  0.8113
25983SOL    HW289674   2.301   6.354   8.503 -1.9469 -2.0648  0.7968
25984SOL     OW89675   3.410   7.346  10.026 -0.0150  0.1885  0.3620
25984SOL    HW189676   3.373   7.410  10.088 -0.0672  2.2672 -1.6870
25984SOL    HW289677   3.334   7.304   9.987 -0.0310  0.3023  0.2721
25985SOL     OW89678   1.554   2.227   2.735  0.3911  0.0824  0.5865
25985SOL    HW189679   1.631   2.274   2.767 -0.3312  1.2242  0.7202
25985SOL    HW289680   1.489   2.237   2.805  0.2195 -1.1537  0.6277
25986SOL     OW89681   5.042   6.922   1.391 -0.1792 -0.3504  0.4290
25986SOL    HW189682   5.020   6.858   1.323  0.5328 -0.2015  0.0481
25986SOL    HW289683   4.971   6.986   1.388  0.4308  0.2986 -0.9889
25987SOL     OW89684   3.907   9.534  10.382  0.0084 -0.4511 -0.2801
25987SOL    HW189685   4.001   9.529  10.365  0.2999  2.4073  0.0023
25987SOL    HW289686   3.901   9.549  10.477 -0.7404 -0.5213 -0.3138
25988SOL     OW89687   6.078   4.227   8.193  0.3347 -0.3121  0.1516
25988SOL    HW189688   6.128   4.157   8.151 -1.7062 -0.8678 -1.5190
25988SOL    HW289689   6.136   4.303   8.188  1.9114 -1.4303  0.4318
25989SOL     OW89690   4.684   1.303   9.504 -0.1674  0.2464 -1.2541
25989SOL    HW189691   4.619   1.366   9.472  0.4667 -0.2602 -3.7478
25989SOL    HW289692   4.632   1.233   9.544 -1.0280  0.8090 -1.3601
25990SOL     OW89693   1.057   1.189   1.408 -0.4152 -0.4355 -0.7432
25990SOL    HW189694   1.152   1.201   1.404 -0.3384  0.8774  2.1929
25990SOL    HW289695   1.021   1.278   1.405 -1.2409 -0.6166  1.6745
25991SOL     OW89696  10.519   2.863   8.245 -0.1556 -0.4252  0.2792
25991SOL    HW189697  10.436   2.849   8.199  0.2482 -0.5758 -0.4077
25991SOL    HW289698  10.544   2.777   8.276 -0.6081 -0.2721  1.1234
25992SOL     OW89699   3.065   9.060   4.742  0.2776  0.3288  0.1700
25992SOL    HW189700   3.108   9.058   4.657  0.5656  1.4382  0.2742
25992SOL    HW289701   3.094   8.979   4.785  1.4027  0.5217 -0.1793
25993SOL     OW89702   4.758   9.511   1.794 -0.1099 -0.2237  0.3267
25993SOL    HW189703   4.692   9.577   1.817 -2.0788 -1.9004 -0.2256
25993SOL    HW289704   4.711   9.448   1.739  1.6912 -2.0813  0.7949
25994SOL     OW89705   5.795  11.933   8.188 -0.2568  0.1345 -0.1721
25994SOL    HW189706   5.786  12.027   8.204  0.9402  0.2338  0.0028
25994SOL    HW289707   5.859  11.927   8.117 -1.9928 -0.4855 -1.7637
25995SOL     OW89708   9.952   2.366   9.284  0.1977 -0.2421  0.3868
25995SOL    HW189709   9.979   2.451   9.250 -0.3806  0.3200  1.2976
25995SOL    HW289710   9.857   2.369   9.286  0.1560  0.3350  3.3118
25996SOL     OW89711  11.014   5.623   6.059  0.1372  0.0523 -0.6708
25996SOL    HW189712  11.106   5.649   6.060 -0.5152  2.6436 -0.9142
25996SOL    HW289713  10.974   5.677   6.127 -1.2225 -1.0742 -0.5420
25997SOL     OW89714   9.429   3.421   6.231  0.0744  1.1043 -0.3912
25997SOL    HW189715   9.490   3.359   6.271  0.1819  0.1692 -1.9234
25997SOL    HW289716   9.417   3.489   6.297 -1.9525 -1.7034  2.4258
25998SOL     OW89717   4.849   6.070   3.233  0.3882 -0.0568 -0.4491
25998SOL    HW189718   4.824   5.979   3.245  0.7207  0.0499  1.3992
25998SOL    HW289719   4.863   6.079   3.139  0.9984 -2.0748 -0.5980
25999SOL     OW89720   7.062   6.034   3.329 -0.4551 -0.4503  0.9162
25999SOL    HW189721   7.148   6.036   3.370 -1.3240  0.0866  2.8389
25999SOL    HW289722   7.035   5.942   3.333  0.5676 -0.8700 -0.9763
26000SOL     OW89723   2.467  11.015  10.053 -0.8574 -0.0724  0.3580
26000SOL    HW189724   2.552  11.055  10.071 -0.2237 -1.1555 -0.1222
26000SOL    HW289725   2.469  10.994   9.960 -1.4080 -0.6670  0.4728
26001SOL     OW89726   6.582   2.612   3.821  0.1676  0.9419 -0.1458
26001SOL    HW189727   6.598   2.615   3.916  0.4186  0.3532 -0.1690
26001SOL    HW289728   6.489   2.634   3.812 -0.1206 -0.0382  0.3181
26002SOL     OW89729   2.440   3.421   8.546 -0.4004  0.3571 -0.1062
26002SOL    HW189730   2.530   3.440   8.521  0.1934 -1.1483  0.7743
26002SOL    HW289731   2.428   3.467   8.629  0.2996 -1.1934  0.8852
26003SOL     OW89732   2.772   7.941   9.393 -0.1737 -0.3628 -0.0428
26003SOL    HW189733   2.824   8.004   9.443  0.7897 -0.2173 -1.2016
26003SOL    HW289734   2.737   7.991   9.319 -2.1118 -0.4249  0.7615
26004SOL     OW89735   0.603   0.177   0.128 -0.0901 -0.2872  0.0872
26004SOL    HW189736   0.547   0.131   0.066  1.1487  1.1867 -2.2697
26004SOL    HW289737   0.541   0.224   0.185 -1.2797 -0.6544 -0.8560
26005SOL     OW89738   3.886   8.742   5.559 -0.1429  0.2381 -0.0141
26005SOL    HW189739   3.974   8.743   5.596 -0.4203  0.3824  0.6474
26005SOL    HW289740   3.827   8.749   5.634 -0.7518 -0.8023 -0.3589
26006SOL     OW89741   6.954   4.642   7.138 -0.7966  0.1095 -0.4283
26006SOL    HW189742   6.924   4.563   7.182  0.0986 -0.4083 -0.7226
26006SOL    HW289743   7.038   4.663   7.179 -0.5806  0.3679 -0.9885
26007SOL     OW89744   4.334   2.843   5.608  0.0031  0.1422 -0.4646
26007SOL    HW189745   4.419   2.800   5.607  0.8843  1.7949 -0.4256
26007SOL    HW289746   4.328   2.885   5.693  0.2866  2.1108 -1.3549
26008SOL     OW89747   2.445   2.218   7.370  0.2207 -0.2064 -0.2762
26008SOL    HW189748   2.447   2.256   7.282  0.6891  0.4330  0.0113
26008SOL    HW289749   2.352   2.198   7.385  0.0933 -0.0111 -0.7762
26009SOL     OW89750   9.657   7.911   9.776  0.4393 -0.3299  0.0651
26009SOL    HW189751   9.672   7.891   9.869  1.6558 -0.4682 -0.1458
26009SOL    HW289752   9.745   7.930   9.742  0.0262 -0.5095 -1.1157
26010SOL     OW89753   5.890   3.067  11.526  0.0480  0.2561 -0.5309
26010SOL    HW189754   5.804   3.109  11.535  0.4263  0.9879 -0.3338
26010SOL    HW289755   5.927   3.068  11.614 -1.1257 -3.1332  0.1552
26011SOL     OW89756  10.683   6.017  10.473 -0.0362  0.4133 -0.4265
26011SOL    HW189757  10.746   6.020  10.401 -0.3048  0.7150 -0.6525
26011SOL    HW289758  10.735   5.997  10.550  0.4901  1.6587 -0.4359
26012SOL     OW89759   4.526   5.183   0.377  0.6456 -0.4102  0.3898
26012SOL    HW189760   4.443   5.141   0.399 -0.9674  2.2451 -0.2338
26012SOL    HW289761   4.541   5.161   0.285  1.3611 -1.9246  0.8299
26013SOL     OW89762   4.781   5.779   0.636 -0.7001 -0.0945  0.1512
26013SOL    HW189763   4.717   5.710   0.616 -0.0514 -0.0755 -2.3644
26013SOL    HW289764   4.859   5.754   0.586  0.8062  0.6151  2.0501
26014SOL     OW89765   6.945   7.244   1.705 -0.3898  0.5017  0.0297
26014SOL    HW189766   6.859   7.286   1.712 -1.5447 -1.8681  1.2552
26014SOL    HW289767   6.930   7.167   1.649  1.2430  0.7261 -0.7705
26015SOL     OW89768   2.127   8.516   2.027  0.3124 -0.1378 -0.5289
26015SOL    HW189769   2.111   8.487   1.938 -0.7886  1.6049 -0.9269
26015SOL    HW289770   2.040   8.527   2.065  0.7638 -0.6689  0.7163
26016SOL     OW89771   4.615   8.081   4.850  0.6619 -0.4735  0.3035
26016SOL    HW189772   4.561   8.064   4.928 -0.9426 -1.2927 -0.9196
26016SOL    HW289773   4.580   8.022   4.784  3.3496 -1.3195 -0.5026
26017SOL     OW89774   4.270   5.119   9.582 -0.2789  0.2401 -0.3005
26017SOL    HW189775   4.230   5.090   9.664 -2.6374  1.2920 -1.0233
26017SOL    HW289776   4.252   5.049   9.520 -1.2859  0.8136 -0.6841
26018SOL     OW89777   4.538   6.197   1.780  0.1633  0.2880  0.1561
26018SOL    HW189778   4.608   6.159   1.727  0.1672 -0.8830  0.9468
26018SOL    HW289779   4.489   6.121   1.813 -1.8104  1.0627 -0.7782
26019SOL     OW89780   7.779   0.141   8.112 -0.4923  0.1191 -0.0670
26019SOL    HW189781   7.870   0.113   8.117 -0.5490 -0.0321  0.1215
26019SOL    HW289782   7.745   0.132   8.201 -0.6808  0.2121 -0.1272
26020SOL     OW89783  10.688   8.591   1.539  0.4456 -0.3011  0.3678
26020SOL    HW189784  10.719   8.632   1.620  1.2369 -0.9418  0.4027
26020SOL    HW289785  10.662   8.665   1.484 -1.0979  0.1190  1.5615
26021SOL     OW89786   8.362   0.765   0.485  0.2972  0.2609 -0.1708
26021SOL    HW189787   8.377   0.793   0.576  0.3749  0.0570 -0.1208
26021SOL    HW289788   8.389   0.841   0.433 -1.6623  1.1639  0.0340
26022SOL     OW89789   6.325   8.004   8.359 -0.0275 -0.2782 -0.0281
26022SOL    HW189790   6.341   7.909   8.353 -1.7257 -0.7966  2.2647
26022SOL    HW289791   6.270   8.024   8.283  0.9316 -0.9675 -0.9269
26023SOL     OW89792   6.891   7.404   3.350  0.2584 -0.0433  0.9417
26023SOL    HW189793   6.930   7.319   3.332  0.8201  0.1090  1.4311
26023SOL    HW289794   6.875   7.442   3.263  3.6352  1.0198  0.6456
26024SOL     OW89795   6.150   4.655   5.027  0.0324  0.0083 -0.2674
26024SOL    HW189796   6.087   4.677   4.958 -2.8960 -1.7696  1.5788
26024SOL    HW289797   6.154   4.733   5.082 -1.4461 -0.1740  0.1405
26025SOL     OW89798   8.408   6.583   4.096  0.0115  0.4476  0.3849
26025SOL    HW189799   8.423   6.516   4.030 -0.7590  0.5296  0.1183
26025SOL    HW289800   8.360   6.653   4.050 -1.9600 -0.1860  1.3616
26026SOL     OW89801   9.450   9.632   1.045 -0.3907 -0.2672  0.0777
26026SOL    HW189802   9.381   9.677   1.093 -0.6091 -0.4224 -0.0869
26026SOL    HW289803   9.405   9.588   0.973  0.0438  0.7153 -0.8177
26027SOL     OW89804   7.663  10.967   0.774  0.2430  0.4154  1.0136
26027SOL    HW189805   7.758  10.973   0.763  0.1437  2.3132  0.7777
26027SOL    HW289806   7.649  10.890   0.829  2.0704  1.3285  2.8712
26028SOL     OW89807   2.782   2.665   6.496  0.6129  0.3497  0.1304
26028SOL    HW189808   2.754   2.665   6.404  1.0431 -0.0832 -0.0067
26028SOL    HW289809   2.782   2.758   6.521 -1.5794  0.3337  0.3551
26029SOL     OW89810  10.122   9.534   0.881 -0.1249 -0.0893  0.3678
26029SOL    HW189811  10.176   9.479   0.938 -0.1345  0.2813  0.7371
26029SOL    HW289812  10.039   9.486   0.875  0.5132 -1.0854 -0.8871
26030SOL     OW89813   0.845   0.677  10.849 -0.2977  0.1832  0.4557
26030SOL    HW189814   0.837   0.618  10.924  0.7430 -0.1355  0.3427
26030SOL    HW289815   0.819   0.762  10.883 -0.9065 -0.1656  0.8792
26031SOL     OW89816   5.078   4.888   0.603 -0.0600  0.2355 -0.6554
26031SOL    HW189817   5.004   4.828   0.614  0.4230 -0.0584  1.4056
26031SOL    HW289818   5.041   4.975   0.617 -0.3188  0.2315 -1.2945
26032SOL     OW89819   9.239   1.040   1.982 -0.3228  0.0809  1.0396
26032SOL    HW189820   9.314   0.984   1.963 -0.4449  0.2801 -0.0974
26032SOL    HW289821   9.270   1.128   1.964 -0.8843  0.1445  0.3739
26033SOL     OW89822   4.220   6.521   4.828  0.6452 -0.3294  0.1156
26033SOL    HW189823   4.127   6.544   4.825  1.2903  2.5041 -0.9591
26033SOL    HW289824   4.222   6.427   4.809 -1.8799 -0.1274 -1.5860
26034SOL     OW89825  11.635   4.554   0.283 -0.4625 -0.1231  0.9089
26034SOL    HW189826  11.684   4.504   0.217 -0.2619  0.1207  0.8656
26034SOL    HW289827  11.627   4.642   0.244 -1.7855 -0.4077  0.4891
26035SOL     OW89828   3.721  11.016  11.903  0.3287  0.0845 -0.1652
26035SOL    HW189829   3.673  10.944  11.863  0.6040  0.0719 -0.4715
26035SOL    HW289830   3.717  11.087  11.839 -0.1662  0.4402  0.2423
26036SOL     OW89831   7.471   4.177   9.438  0.5411  0.0129 -0.2085
26036SOL    HW189832   7.502   4.268   9.437  0.2971  0.1171 -2.1187
26036SOL    HW289833   7.486   4.146   9.348 -3.6554 -0.3263 -0.9890
26037SOL     OW89834   7.762   8.765   3.546 -0.2139  0.5189  0.4067
26037SOL    HW189835   7.731   8.811   3.623 -0.0264 -1.1985  1.5681
26037SOL    HW289836   7.828   8.823   3.508 -0.7901  1.6840  1.1374
26038SOL     OW89837  11.248   6.629   9.185 -0.0443 -0.3617  0.3012
26038SOL    HW189838  11.165   6.670   9.210  0.2652  1.0222 -0.7928
26038SOL    HW289839  11.306   6.643   9.261  0.0853  1.3940 -0.0740
26039SOL     OW89840   5.317   3.189   4.843  0.1686  0.2800 -0.0693
26039SOL    HW189841   5.286   3.185   4.752  0.1183  0.2893 -0.0529
26039SOL    HW289842   5.242   3.221   4.892  0.1564  0.1539 -0.0057
26040SOL     OW89843   4.227   7.047  11.480 -0.0385 -0.0749  0.1386
26040SOL    HW189844   4.153   7.077  11.427 -0.3375 -1.6777 -0.4212
26040SOL    HW289845   4.196   7.054  11.570 -0.8548 -0.6502 -0.0851
26041SOL     OW89846   2.794   9.722   6.078 -0.3937 -0.2901 -0.1223
26041SOL    HW189847   2.852   9.646   6.074 -1.8277 -1.3844 -0.6089
26041SOL    HW289848   2.721   9.695   6.132 -1.2691  0.4955 -0.8707
26042SOL     OW89849   9.665   6.274   1.782 -0.4055 -0.8551 -0.0644
26042SOL    HW189850   9.729   6.345   1.776 -0.1516 -1.0254  0.5845
26042SOL    HW289851   9.596   6.299   1.721 -0.3214 -0.0454  0.1607
26043SOL     OW89852   0.425   6.138   5.009  0.4235 -0.3663  0.0425
26043SOL    HW189853   0.335   6.167   4.997  0.2826 -0.3891  1.0155
26043SOL    HW289854   0.436   6.067   4.946  0.0184  0.1590 -0.6411
26044SOL     OW89855  10.713   2.795   9.701  0.1667 -0.4396 -0.1579
26044SOL    HW189856  10.622   2.817   9.723  0.6439  2.2799 -0.5687
26044SOL    HW289857  10.719   2.700   9.715 -2.1340 -0.3680  1.9481
26045SOL     OW89858   0.277   1.062   3.939 -0.5206 -0.2230 -0.0294
26045SOL    HW189859   0.350   1.040   3.998 -0.0077  0.1245 -0.5220
26045SOL    HW289860   0.303   1.025   3.855  0.3620  2.1342 -0.8882
26046SOL     OW89861   2.373   1.879   4.486 -0.3638  0.3936 -0.0583
26046SOL    HW189862   2.431   1.847   4.417 -1.1104  0.8496 -0.9192
26046SOL    HW289863   2.309   1.809   4.497  0.0145  0.1298  0.4968
26047SOL     OW89864   8.670   2.336  10.685  0.3615  0.0238  0.1893
26047SOL    HW189865   8.720   2.418  10.681  1.7602 -0.7563  0.8328
26047SOL    HW289866   8.670   2.304  10.595  1.5382 -0.2446  0.2723
26048SOL     OW89867   0.265   4.871   6.720 -0.0264  0.3517 -0.6057
26048SOL    HW189868   0.246   4.956   6.682 -2.9009 -0.2254 -0.6651
26048SOL    HW289869   0.258   4.884   6.815 -0.8684  0.1521 -0.6263
26049SOL     OW89870   6.665   8.507   1.740 -0.0650  0.6428  0.1529
26049SOL    HW189871   6.702   8.538   1.823  0.5881  0.8530 -0.2043
26049SOL    HW289872   6.583   8.464   1.764  0.3615  0.2585  0.9605
26050SOL     OW89873   1.957   4.347   4.690  0.1556 -0.1211 -0.6959
26050SOL    HW189874   2.018   4.314   4.757 -0.5444 -0.1801 -0.0731
26050SOL    HW289875   1.997   4.323   4.607  0.9924 -0.1521 -0.2974
26051SOL     OW89876   9.869   7.478   8.665  0.2447  0.5311  0.0109
26051SOL    HW189877   9.782   7.452   8.696 -0.8648  3.6021 -0.1462
26051SOL    HW289878   9.920   7.493   8.744 -0.6382  2.4279  0.2583
26052SOL     OW89879  11.928   8.521   6.679 -0.2944  0.1377  0.0586
26052SOL    HW189880  11.897   8.574   6.605  2.2892  0.7444 -0.6914
26052SOL    HW289881  12.006   8.477   6.646 -0.3122 -1.3119  1.7993
26053SOL     OW89882   1.115   3.724  10.878  0.0022  0.4280 -0.5304
26053SOL    HW189883   1.075   3.768  10.953  0.6710 -1.6729  1.1719
26053SOL    HW289884   1.082   3.634  10.882  2.2166 -0.4812 -1.0384
26054SOL     OW89885  10.338   3.323   3.062  0.2618  0.0658  0.0537
26054SOL    HW189886  10.267   3.262   3.045  0.4490  0.4978 -2.7034
26054SOL    HW289887  10.355   3.365   2.978  3.0291  0.8103  0.8605
26055SOL     OW89888   7.175  10.855   8.146 -0.2405 -0.4496 -0.4523
26055SOL    HW189889   7.160  10.937   8.193 -0.3471  0.6377 -2.2867
26055SOL    HW289890   7.264  10.862   8.113 -0.5843 -0.6369 -1.4363
26056SOL     OW89891   1.486   7.170   1.924  0.0666  0.3876 -0.1367
26056SOL    HW189892   1.578   7.180   1.947  0.4508 -4.1023  1.3941
26056SOL    HW289893   1.438   7.214   1.994  0.9728  2.2932 -0.6549
26057SOL     OW89894   5.807   2.336  10.866 -0.5721 -0.5644  0.4514
26057SOL    HW189895   5.791   2.287  10.947 -1.5459 -0.9390  0.0515
26057SOL    HW289896   5.827   2.425  10.895 -2.1600 -0.3744  1.0789
26058SOL     OW89897   7.695   0.035  10.560  0.4301  0.0876  0.4040
26058SOL    HW189898   7.705   0.129  10.545 -0.6294  0.2210  0.4601
26058SOL    HW289899   7.605   0.015  10.534  0.2418 -0.6752  1.5291
26059SOL     OW89900   1.785   3.650   5.004 -0.3943 -0.3507  0.1270
26059SOL    HW189901   1.742   3.632   5.087 -1.1919 -0.4591 -0.2928
26059SOL    HW289902   1.757   3.579   4.946  1.4480 -1.1849  0.2036
26060SOL     OW89903  10.596   7.112   8.011  0.3842 -0.1532  0.7653
26060SOL    HW189904  10.575   7.204   8.031  1.7630  0.6872 -1.2283
26060SOL    HW289905  10.517   7.079   7.968 -0.1916  0.0183  1.6610
26061SOL     OW89906   7.176  10.703   5.192  0.7938  0.3016  0.4535
26061SOL    HW189907   7.204  10.752   5.269  1.0595  0.8461  0.0242
26061SOL    HW289908   7.140  10.622   5.226  1.8061  0.0997  1.0986
26062SOL     OW89909   9.481   7.629   8.326  0.3713 -0.3492  0.1755
26062SOL    HW189910   9.432   7.690   8.382  0.8811  1.3798 -1.1626
26062SOL    HW289911   9.416   7.597   8.264  0.7497  1.7743 -1.4570
26063SOL     OW89912  11.608   6.810  11.393 -0.1805 -0.1039 -0.6313
26063SOL    HW189913  11.649   6.736  11.348 -0.9375 -1.2795  0.5329
26063SOL    HW289914  11.518   6.781  11.408 -0.2585  0.7058  0.5992
26064SOL     OW89915   2.721   8.948  11.581 -0.1469  0.1756  0.4312
26064SOL    HW189916   2.627   8.954  11.596 -0.1694 -2.1817  1.8612
26064SOL    HW289917   2.730   8.893  11.503  0.0537  0.6231  0.1346
26065SOL     OW89918  10.737   2.461   9.411  0.1105 -0.2483 -0.0546
26065SOL    HW189919  10.662   2.415   9.448  1.3134 -2.6000 -0.3986
26065SOL    HW289920  10.701   2.542   9.376 -1.8140 -0.0567  2.1379
26066SOL     OW89921   1.081   6.585   3.157 -0.2061 -0.2851  0.5668
26066SOL    HW189922   1.024   6.508   3.162  0.5990 -0.9790 -0.5639
26066SOL    HW289923   1.146   6.572   3.226  0.1681 -0.8339  0.1190
26067SOL     OW89924   5.282   2.129   4.501 -0.8621 -0.2442  0.4483
26067SOL    HW189925   5.242   2.196   4.446 -2.9120 -0.2520  1.8076
26067SOL    HW289926   5.208   2.084   4.541  0.4570 -3.2657 -0.2878
26068SOL     OW89927   7.851  10.777  11.623  0.5321  0.1006 -0.1817
26068SOL    HW189928   7.779  10.774  11.686  1.0714  2.2064  0.6306
26068SOL    HW289929   7.820  10.833  11.552  1.1100  0.4916 -0.1386
26069SOL     OW89930  11.597   5.437   0.908  0.4104 -0.4906 -0.1696
26069SOL    HW189931  11.651   5.515   0.898  0.8378 -0.6979  0.4790
26069SOL    HW289932  11.608   5.411   0.999 -0.2873 -0.9054 -0.1920
26070SOL     OW89933   3.244   2.353   6.451 -0.5680  0.1822  0.6501
26070SOL    HW189934   3.158   2.394   6.456 -1.2530 -1.2762  1.6567
26070SOL    HW289935   3.248   2.297   6.529  0.1367 -1.9310 -0.8038
26071SOL     OW89936   9.545   0.824   5.704 -0.3238  0.0658 -0.2213
26071SOL    HW189937   9.460   0.862   5.724 -0.0352  0.8186 -0.3885
26071SOL    HW289938   9.601   0.848   5.778 -0.0249  0.3468 -0.5326
26072SOL     OW89939   8.530   3.997   3.328 -0.1696 -0.0681  0.1402
26072SOL    HW189940   8.562   3.911   3.356 -0.4032  0.2225  1.3661
26072SOL    HW289941   8.456   3.978   3.271 -0.2900 -0.6930  0.4899
26073SOL     OW89942   4.232   6.846   0.837  0.2176  0.2067 -0.5669
26073SOL    HW189943   4.292   6.809   0.771 -0.7622 -1.6341 -0.4891
26073SOL    HW289944   4.270   6.931   0.858  1.9010 -0.1985 -1.7186
26074SOL     OW89945   4.018   4.637   8.126  0.6488 -0.0726  0.3380
26074SOL    HW189946   4.044   4.631   8.035  1.0940  0.3730  0.4341
26074SOL    HW289947   3.944   4.699   8.126 -0.8577 -1.7798 -0.0159
26075SOL     OW89948   9.792   1.330   9.254  0.2480 -0.1436  0.2479
26075SOL    HW189949   9.718   1.295   9.304 -0.5181  1.8488  0.6081
26075SOL    HW289950   9.817   1.410   9.300 -0.3789  1.7074 -2.3834
26076SOL     OW89951   5.712   6.029   7.842 -0.2754 -0.3922 -0.0592
26076SOL    HW189952   5.708   6.080   7.923  0.0907  0.1659 -0.3862
26076SOL    HW289953   5.805   6.011   7.829 -0.4165 -1.4171  0.2090
26077SOL     OW89954   5.623   0.989   6.953 -0.0304 -0.0554  0.0263
26077SOL    HW189955   5.556   1.050   6.922 -0.6095  0.0186  1.3802
26077SOL    HW289956   5.603   0.976   7.045  2.9434  1.5082  1.0315
26078SOL     OW89957   2.074   5.222   0.161  0.3771  0.1139  0.2913
26078SOL    HW189958   2.033   5.138   0.140  0.8197 -0.1863  0.6200
26078SOL    HW289959   2.163   5.200   0.187  1.0285  0.8465 -1.2444
26079SOL     OW89960  10.779   2.393   6.313  0.2272 -0.0683 -0.1219
26079SOL    HW189961  10.836   2.335   6.362 -0.5032  1.1512  2.3092
26079SOL    HW289962  10.764   2.467   6.371 -1.2275  1.1857 -1.9652
26080SOL     OW89963   2.174   5.875   3.880  0.0046 -0.1925  0.1767
26080SOL    HW189964   2.192   5.781   3.873 -0.6911 -0.2606 -0.7735
26080SOL    HW289965   2.126   5.897   3.800 -1.6318  0.5521  1.3097
26081SOL     OW89966   6.829   3.888   2.160  0.2127  0.8810 -0.0322
26081SOL    HW189967   6.747   3.936   2.148 -0.8279 -0.8693 -0.3092
26081SOL    HW289968   6.841   3.885   2.255 -1.1923 -0.5972  0.1460
26082SOL     OW89969   8.138   3.922  10.517  0.3597 -0.7114  0.6051
26082SOL    HW189970   8.168   3.956  10.601  1.8267 -0.3642 -0.0274
26082SOL    HW289971   8.068   3.860  10.539  0.8661 -0.7905  2.0833
26083SOL     OW89972   0.529   4.290   0.523  0.1108 -0.1951  0.4826
26083SOL    HW189973   0.436   4.284   0.500 -0.4112 -0.6897  2.5369
26083SOL    HW289974   0.566   4.209   0.489 -0.4939 -0.6023  0.7626
26084SOL     OW89975   0.904   4.855   5.687  0.0174  0.8964 -0.5542
26084SOL    HW189976   0.810   4.838   5.695  0.2162  0.6726  1.9526
26084SOL    HW289977   0.923   4.920   5.755  1.8005  0.3708 -0.4906
26085SOL     OW89978   2.245   2.958   4.154  0.6233  0.1588  0.1095
26085SOL    HW189979   2.223   3.037   4.204  0.7629  0.8946 -0.9502
26085SOL    HW289980   2.330   2.977   4.115  2.0513 -1.6706  2.1345
26086SOL     OW89981   1.850   0.917   1.980 -0.7213 -0.2164 -0.2507
26086SOL    HW189982   1.886   0.834   1.949  1.3434  1.4500 -2.7334
26086SOL    HW289983   1.868   0.918   2.074  0.8377 -1.8183 -0.4928
26087SOL     OW89984   5.886   9.408   3.323 -0.1809 -0.4172 -0.8079
26087SOL    HW189985   5.824   9.471   3.288 -0.1982 -0.4895 -0.9087
26087SOL    HW289986   5.925   9.367   3.245  1.6363  1.1978 -0.8304
26088SOL     OW89987   3.605   8.547   4.763 -0.3269 -0.6275  0.1437
26088SOL    HW189988   3.567   8.635   4.764  0.1073 -0.4389 -0.0006
26088SOL    HW289989   3.616   8.525   4.856  0.8290  0.0180  0.1636
26089SOL     OW89990   0.657   8.181   1.999  0.3519 -0.7478  0.6451
26089SOL    HW189991   0.615   8.138   2.074  0.8296  0.2345  1.4914
26089SOL    HW289992   0.750   8.177   2.019  0.4719 -0.3633  0.1569
26090SOL     OW89993   1.680   6.272  10.892 -0.0484 -0.1562 -0.3518
26090SOL    HW189994   1.721   6.354  10.866  1.0217 -0.9877 -1.4266
26090SOL    HW289995   1.747   6.226  10.943 -0.6632 -0.3400  0.3093
26091SOL     OW89996  10.702   0.898  11.147 -0.0288 -0.1957 -0.2071
26091SOL    HW189997  10.762   0.911  11.220 -0.9798  0.0050  0.5627
26091SOL    HW289998  10.655   0.981  11.139 -0.9117 -0.6753 -0.1258
26092SOL     OW89999   9.117   6.946   4.204  0.2104  0.3430  0.4578
26092SOL    HW190000   9.198   6.904   4.178 -0.6040 -0.2949 -1.1789
26092SOL    HW290001   9.100   6.913   4.293 -0.2914 -2.7233 -0.6477
26093SOL     OW90002   1.799   5.902  10.269 -0.6038 -0.3496  0.0517
26093SOL    HW190003   1.844   5.916  10.352 -0.6930 -2.0400  0.4311
26093SOL    HW290004   1.856   5.940  10.203  0.6123 -1.0466  0.6777
26094SOL     OW90005   8.908   6.465   3.783  0.3516  0.0939 -0.2381
26094SOL    HW190006   8.917   6.555   3.815  2.2885  0.1961 -0.9491
26094SOL    HW290007   8.814   6.452   3.776 -0.0296  1.4417  1.5707
26095SOL     OW90008   6.611  11.536  11.610  0.6418  0.2229  0.2559
26095SOL    HW190009   6.534  11.480  11.603 -0.8630  1.6339  3.4709
26095SOL    HW290010   6.684  11.479  11.587 -1.0930 -2.0280 -0.0309
26096SOL     OW90011   4.089   6.200   4.372  0.3559 -0.1219 -0.6055
26096SOL    HW190012   4.072   6.226   4.281 -1.7163 -1.0409 -0.5404
26096SOL    HW290013   4.103   6.105   4.367  0.2998 -0.1680  0.0296
26097SOL     OW90014   8.338  11.138   1.297  0.2949 -0.6403  0.4892
26097SOL    HW190015   8.357  11.045   1.286 -0.6035 -1.0312  2.0167
26097SOL    HW290016   8.360  11.157   1.388  1.8684  1.0160 -0.1728
26098SOL     OW90017   9.813   5.511   7.436 -0.1313  0.0342  0.3654
26098SOL    HW190018   9.885   5.501   7.374 -1.4480 -1.8146 -0.9881
26098SOL    HW290019   9.846   5.572   7.502  1.6060  1.5455 -1.7471
26099SOL     OW90020  11.424   4.478   1.606  0.7479 -0.1531  0.2935
26099SOL    HW190021  11.356   4.429   1.560 -0.0084 -0.3767  1.6042
26099SOL    HW290022  11.413   4.569   1.577  1.1582 -0.4829 -0.9614
26100SOL     OW90023   2.991  11.636   5.826 -0.5080  0.0752 -0.2862
26100SOL    HW190024   2.987  11.706   5.892 -0.1498  1.9924 -2.1922
26100SOL    HW290025   3.014  11.681   5.745  1.2739 -2.5021 -1.3281
26101SOL     OW90026  11.447  10.596   7.995  0.0554 -0.9632  0.4410
26101SOL    HW190027  11.437  10.689   7.977 -0.0390 -0.6670  1.9010
26101SOL    HW290028  11.376  10.554   7.945 -0.6792 -0.1272  0.7618
26102SOL     OW90029  10.727   8.651   0.304 -0.6026  0.1413 -0.0013
26102SOL    HW190030  10.775   8.682   0.227 -1.5737 -0.6560 -0.9554
26102SOL    HW290031  10.781   8.580   0.340  0.0596  0.7969  0.3199
26103SOL     OW90032   6.190   1.692   1.320 -0.2185 -0.0037  0.6283
26103SOL    HW190033   6.181   1.787   1.331 -0.2760  0.0756 -0.0557
26103SOL    HW290034   6.101   1.659   1.320 -0.1672 -0.1825  1.8317
26104SOL     OW90035  11.012   8.433   7.826  0.1513 -0.3976  0.2898
26104SOL    HW190036  10.958   8.436   7.747 -0.0657 -1.0936  0.4052
26104SOL    HW290037  11.076   8.504   7.814  0.0215 -0.3922 -0.4319
26105SOL     OW90038  10.791   1.832   1.734 -0.5226 -0.0473  0.2655
26105SOL    HW190039  10.840   1.749   1.726 -0.2283  0.0711  0.7836
26105SOL    HW290040  10.828   1.874   1.812 -0.3680  0.7800 -0.2478
26106SOL     OW90041   7.647   2.637  11.227 -0.1808 -0.3682  0.1847
26106SOL    HW190042   7.552   2.631  11.225 -0.1477 -1.0364  0.6154
26106SOL    HW290043   7.675   2.605  11.142 -0.3898  0.9126 -0.3884
26107SOL     OW90044   1.624   0.513  10.267 -0.1568 -0.5445  0.5556
26107SOL    HW190045   1.619   0.452  10.193  2.3484 -1.6112  1.1637
26107SOL    HW290046   1.534   0.544  10.279 -0.7839 -0.9533 -2.3800
26108SOL     OW90047   4.197   7.826   0.944 -0.5834 -0.4819 -0.0752
26108SOL    HW190048   4.218   7.888   1.015 -2.3584 -0.0919  0.1622
26108SOL    HW290049   4.154   7.753   0.988 -0.6306 -0.7890 -0.6252
26109SOL     OW90050   6.539   8.719  10.263  0.1357 -0.5511  0.1399
26109SOL    HW190051   6.460   8.743  10.215 -0.5545 -0.9240  1.0581
26109SOL    HW290052   6.565   8.798  10.310 -1.0279 -1.0210  1.6409
26110SOL     OW90053  10.088  11.940  10.985  0.1014 -0.6861 -0.4118
26110SOL    HW190054  10.137  11.902  10.913  0.7937 -0.4582 -0.0684
26110SOL    HW290055  10.145  12.009  11.020 -0.7746  0.1020 -0.4798
26111SOL     OW90056   6.801   0.959   8.974  0.4881 -0.0947  0.1789
26111SOL    HW190057   6.824   0.876   8.932 -0.4282 -0.0963 -0.3510
26111SOL    HW290058   6.885   0.998   8.998  0.9854 -0.6092 -0.6746
26112SOL     OW90059   2.302   5.500   7.776 -0.5186  0.4943  0.0800
26112SOL    HW190060   2.358   5.426   7.797 -0.2173  1.0098  1.1747
26112SOL    HW290061   2.240   5.505   7.850 -1.4267  0.4838 -0.6639
26113SOL     OW90062   6.520  11.736   0.458 -0.0248  0.8067 -0.0437
26113SOL    HW190063   6.568  11.668   0.505 -1.1345 -1.2049 -1.6752
26113SOL    HW290064   6.452  11.764   0.520 -1.5104 -1.8334 -0.3222
26114SOL     OW90065   2.576   2.977   6.868  0.1873 -0.5911  0.4588
26114SOL    HW190066   2.520   3.042   6.825  0.2217 -0.3628  0.7559
26114SOL    HW290067   2.528   2.894   6.858  0.3353 -0.5961 -0.2788
26115SOL     OW90068   4.324   2.484   2.731 -0.2368 -0.2626  0.4520
26115SOL    HW190069   4.235   2.455   2.710  0.1964 -0.6389 -0.9506
26115SOL    HW290070   4.315   2.577   2.750 -0.7396  0.0157 -1.0603
26116SOL     OW90071   4.961   5.223   7.637 -0.4187  0.1861  0.4011
26116SOL    HW190072   4.905   5.229   7.560  0.5547  0.4609 -0.3010
26116SOL    HW290073   4.954   5.309   7.679 -1.1186 -0.0339  0.7564
26117SOL     OW90074  10.710   3.700   8.525  0.0431 -0.3733 -0.1139
26117SOL    HW190075  10.743   3.738   8.444 -0.6812  0.9400  0.1702
26117SOL    HW290076  10.772   3.631   8.546  1.6705  0.9061 -0.4729
26118SOL     OW90077   3.966   0.614   8.401 -0.2074  0.2700  0.2230
26118SOL    HW190078   3.973   0.706   8.374 -1.2579  0.0334 -0.9193
26118SOL    HW290079   3.921   0.571   8.329  0.2051 -1.1450  0.7772
26119SOL     OW90080   7.515   7.154   3.094 -0.0251 -0.3525  0.5615
26119SOL    HW190081   7.505   7.075   3.147 -2.1565 -0.9937 -0.6717
26119SOL    HW290082   7.472   7.223   3.146  0.0736 -0.4498  0.7695
26120SOL     OW90083   5.255   9.907   8.795  0.4935  0.8662  0.1321
26120SOL    HW190084   5.243   9.816   8.768  1.5913  1.1707 -1.5583
26120SOL    HW290085   5.248   9.905   8.890 -1.6035 -0.6284  0.0299
26121SOL     OW90086   6.537  10.746   6.991 -0.6838 -0.0360  0.0052
26121SOL    HW190087   6.622  10.777   6.961  0.2587 -1.1787  1.3285
26121SOL    HW290088   6.498  10.704   6.914  0.1404  0.1177 -0.5087
26122SOL     OW90089   4.785   9.505   6.983 -0.3023  0.2596  0.1401
26122SOL    HW190090   4.771   9.471   6.895 -1.5244 -0.3741  0.5513
26122SOL    HW290091   4.865   9.462   7.013  0.8125  1.3941 -1.0725
26123SOL     OW90092   7.511   2.349   1.285 -0.1081  0.1343  0.3726
26123SOL    HW190093   7.484   2.413   1.219  0.1369  0.9896  1.0855
26123SOL    HW290094   7.520   2.266   1.237  1.1827  0.9750 -0.9015
26124SOL     OW90095   6.430   5.031   2.817 -0.1860 -0.1535  0.2994
26124SOL    HW190096   6.357   5.041   2.878  0.2322 -0.3105  0.8377
26124SOL    HW290097   6.472   5.116   2.816  0.9973 -0.6756  1.7966
26125SOL     OW90098   5.926   7.771  11.492 -0.4906  0.8243 -0.2536
26125SOL    HW190099   5.994   7.780  11.425 -0.2326  0.0953 -0.0976
26125SOL    HW290100   5.849   7.814  11.454 -0.5576 -0.1728 -1.3168
26126SOL     OW90101   2.437   2.591   6.425  0.3946  0.0264 -0.0421
26126SOL    HW190102   2.425   2.590   6.330 -2.9916 -0.0813  0.2522
26126SOL    HW290103   2.455   2.499   6.448  1.0555  0.0263 -0.5284
26127SOL     OW90104   8.747   0.522  10.098 -0.2031  0.5202  0.2252
26127SOL    HW190105   8.787   0.439  10.125  0.7959  0.9538  0.1166
26127SOL    HW290106   8.717   0.562  10.179 -2.7317 -0.9350  0.1022
26128SOL     OW90107   8.774   2.235   7.911  0.1723 -0.2932 -0.4129
26128SOL    HW190108   8.824   2.260   7.989  0.0325 -1.0562 -0.0662
26128SOL    HW290109   8.767   2.315   7.860 -0.5382  0.4604  0.8039
26129SOL     OW90110   1.625   1.677   0.911 -0.0787 -0.3426 -0.3493
26129SOL    HW190111   1.712   1.714   0.924 -0.0688 -0.9598  1.6417
26129SOL    HW290112   1.594   1.656   0.999 -2.4728  0.3552 -0.9362
26130SOL     OW90113   2.928   9.775  10.319  0.2799  0.2778 -0.2323
26130SOL    HW190114   2.840   9.806  10.295 -0.5713 -1.3345  0.6185
26130SOL    HW290115   2.956   9.722  10.245 -0.2396 -0.6262  0.1910
26131SOL     OW90116   3.569   0.729  11.549 -0.1597  0.0075  0.4521
26131SOL    HW190117   3.613   0.646  11.527  0.7240  1.2158 -2.9573
26131SOL    HW290118   3.627   0.769  11.614  2.9799  0.6248 -2.4284
26132SOL     OW90119   7.249   1.889   8.128  0.2912  0.2016  0.1130
26132SOL    HW190120   7.290   1.866   8.045  0.9688 -1.2187  0.7988
26132SOL    HW290121   7.228   1.805   8.169 -0.2608  0.8686  1.2703
26133SOL     OW90122   4.458  11.306   8.503  0.6889 -0.6059 -0.4523
26133SOL    HW190123   4.466  11.310   8.408 -0.1256  2.3623 -0.4955
26133SOL    HW290124   4.369  11.276   8.519  0.1740  0.7339 -0.7045
26134SOL     OW90125   3.848  11.305   0.426  0.0923  0.1298 -0.2693
26134SOL    HW190126   3.849  11.270   0.337  0.5332  0.4486 -0.3898
26134SOL    HW290127   3.787  11.379   0.422 -1.7558 -1.2933  0.2533
26135SOL     OW90128   6.702   7.439   6.419 -0.4894  0.0641  0.4658
26135SOL    HW190129   6.781   7.435   6.473  0.2300  1.0733 -0.4616
26135SOL    HW290130   6.654   7.359   6.440  2.0725 -1.9744 -0.9344
26136SOL     OW90131   3.468   7.341   2.357 -0.2962 -0.6287  0.1876
26136SOL    HW190132   3.540   7.288   2.390  0.5847  0.7545  0.5716
26136SOL    HW290133   3.483   7.428   2.394 -1.0645  0.1736 -1.2809
26137SOL     OW90134   4.550   0.215  11.075 -0.2382 -0.0096 -0.1324
26137SOL    HW190135   4.531   0.262  11.156  1.6813 -1.3407  1.1673
26137SOL    HW290136   4.607   0.143  11.101 -1.1249 -1.6845 -2.3796
26138SOL     OW90137   7.472   4.233   8.037 -0.0946 -0.3074  0.3915
26138SOL    HW190138   7.383   4.268   8.033  0.1560  0.6941  2.3186
26138SOL    HW290139   7.463   4.153   8.089  0.0150 -0.6456 -0.1079
26139SOL     OW90140   8.607   0.592   1.111 -0.2309  0.0540  0.3641
26139SOL    HW190141   8.638   0.564   1.197 -1.3588 -0.6851  0.5485
26139SOL    HW290142   8.535   0.653   1.131 -2.2320 -2.0429  0.0230
26140SOL     OW90143   7.907   3.831   8.774 -0.3067 -0.1656 -0.2296
26140SOL    HW190144   7.927   3.794   8.688  1.0382 -1.0608  0.4461
26140SOL    HW290145   7.829   3.783   8.802 -1.7255  1.2157 -1.5672
26141SOL     OW90146   6.524   3.775   8.215  0.5984 -0.3884  0.2366
26141SOL    HW190147   6.531   3.869   8.200 -0.9639  0.0655  2.0444
26141SOL    HW290148   6.443   3.749   8.171  0.7046 -0.7909  0.2702
26142SOL     OW90149  11.739  11.457   8.373 -0.4060  0.4772  0.2659
26142SOL    HW190150  11.647  11.460   8.400 -1.2082 -1.4830 -1.9248
26142SOL    HW290151  11.740  11.501   8.288  0.7163  0.4949  0.2761
26143SOL     OW90152   4.259   6.147   9.587 -0.2911 -0.0286 -0.1321
26143SOL    HW190153   4.351   6.121   9.589 -0.5861 -1.0732  0.3963
26143SOL    HW290154   4.226   6.111   9.505 -0.9108 -2.1603  0.9914
26144SOL     OW90155   2.160   3.295   7.932  0.1580 -0.0373 -0.2054
26144SOL    HW190156   2.203   3.229   7.878  1.3131 -0.1856  0.8590
26144SOL    HW290157   2.101   3.245   7.989  0.2659 -0.0460 -0.1022
26145SOL     OW90158   9.061   5.446   5.186 -0.1175 -0.1839 -0.3142
26145SOL    HW190159   9.123   5.398   5.241  1.0905 -0.8144 -2.1312
26145SOL    HW290160   8.975   5.422   5.220  0.5801 -0.3737  1.4097
26146SOL     OW90161   6.288   0.044   2.402  0.1949  0.3569  0.0571
26146SOL    HW190162   6.280   0.099   2.480 -0.2332 -0.6876  0.7751
26146SOL    HW290163   6.381   0.049   2.378  0.1477  1.4307  0.0665
26147SOL     OW90164   1.009   0.370   7.564  0.2314  0.3935  0.0821
26147SOL    HW190165   0.979   0.457   7.538 -0.4095 -0.4423 -2.1845
26147SOL    HW290166   0.928   0.321   7.582  0.4240 -0.4886 -1.3346
26148SOL     OW90167   5.354   6.484   6.490  0.2989 -0.4009 -0.1634
26148SOL    HW190168   5.326   6.394   6.501  2.9737 -1.4440 -1.1148
26148SOL    HW290169   5.334   6.505   6.399 -0.7905  0.1953  0.1914
26149SOL     OW90170   3.312   0.567   7.848  0.1400  0.2856 -0.4793
26149SOL    HW190171   3.343   0.590   7.935  1.3201 -0.7757 -0.5903
26149SOL    HW290172   3.278   0.649   7.812  0.4076  0.9123  0.6615
26150SOL     OW90173   8.708   6.348   1.912 -0.4344  0.2522  0.6264
26150SOL    HW190174   8.734   6.382   1.827 -1.4430  1.5412  0.8149
26150SOL    HW290175   8.619   6.315   1.899 -0.8594  1.0856  1.3257
26151SOL     OW90176   6.195   8.091   8.619 -0.0131 -0.0522  0.5025
26151SOL    HW190177   6.203   8.187   8.618 -0.8039  0.0111 -0.2940
26151SOL    HW290178   6.250   8.062   8.547 -0.4983 -0.1328  0.1601
26152SOL     OW90179   2.304  11.503   0.759  0.4234  0.1009  0.2963
26152SOL    HW190180   2.233  11.443   0.781  0.5481  0.3181  1.3361
26152SOL    HW290181   2.370  11.488   0.826 -0.0005  2.1580  1.2889
26153SOL     OW90182   8.820   1.661   1.481 -0.4060 -0.3374 -0.0030
26153SOL    HW190183   8.857   1.610   1.410  0.0052  1.1871 -0.9388
26153SOL    HW290184   8.892   1.674   1.542 -0.3124 -0.2371 -0.1356
26154SOL     OW90185  10.324   2.894   5.956  0.1454 -0.6138  0.0469
26154SOL    HW190186  10.249   2.889   6.015  0.1857 -0.1459  0.1449
26154SOL    HW290187  10.288   2.881   5.869 -0.0939 -0.1043  0.0661
26155SOL     OW90188   5.495   1.322   0.952 -0.5380  0.4424 -0.6665
26155SOL    HW190189   5.507   1.241   1.002 -0.4025 -0.2213 -1.7512
26155SOL    HW290190   5.478   1.293   0.862  1.2423  1.6560 -1.4399
26156SOL     OW90191   9.768  10.916   6.087 -0.1733  0.7212 -0.3556
26156SOL    HW190192   9.779  10.821   6.093  1.2850  0.3271 -5.0508
26156SOL    HW290193   9.677  10.928   6.060 -0.9012  0.9277  1.9743
26157SOL     OW90194   6.069   0.872   8.039  0.6336  0.0684  0.3214
26157SOL    HW190195   6.053   0.907   8.127 -0.0716 -3.0262  1.5758
26157SOL    HW290196   6.164   0.876   8.029  0.7659  0.0809  1.4193
26158SOL     OW90197   7.279  10.884   1.244  1.0950 -0.6767 -0.5855
26158SOL    HW190198   7.316  10.972   1.252  0.2388 -0.3268 -0.4638
26158SOL    HW290199   7.228  10.886   1.163  0.7113 -0.9255 -0.3545
26159SOL     OW90200   9.618   4.798   9.483 -0.2316 -1.2350 -0.3617
26159SOL    HW190201   9.613   4.719   9.537  2.2900 -1.0689  0.2341
26159SOL    HW290202   9.617   4.870   9.545 -2.3920 -0.7491 -0.8984
26160SOL     OW90203   3.340   8.761   4.365 -0.0142 -0.5408 -0.3137
26160SOL    HW190204   3.376   8.679   4.399 -0.3213 -0.4774  0.1715
26160SOL    HW290205   3.369   8.828   4.426  0.8871 -0.1635 -1.1350
26161SOL     OW90206  10.945   7.309  10.337  0.1875 -0.4559 -0.0395
26161SOL    HW190207  10.894   7.246  10.285 -0.1310  0.5743 -1.0224
26161SOL    HW290208  11.031   7.268  10.346 -0.1394 -1.2289 -0.2872
26162SOL     OW90209   0.073   0.571  10.399 -0.1621 -0.0414 -0.2836
26162SOL    HW190210   0.104   0.531  10.318  0.1704 -0.5459  0.0899
26162SOL    HW290211   0.013   0.507  10.436  0.2600 -0.1448  0.2416
26163SOL     OW90212   0.294   9.579   0.565  0.0161  0.3151 -0.3692
26163SOL    HW190213   0.261   9.562   0.477 -2.0705  1.2799  0.1641
26163SOL    HW290214   0.260   9.507   0.618  0.0947  0.4820 -0.0871
26164SOL     OW90215   6.761   7.940   2.368 -0.3056 -0.6205  0.3444
26164SOL    HW190216   6.822   7.969   2.300 -1.8366 -0.0333 -0.8376
26164SOL    HW290217   6.724   8.022   2.403  0.1806 -0.9312  1.6575
26165SOL     OW90218   9.087  11.058  10.562 -0.3462 -0.3824  0.2918
26165SOL    HW190219   9.124  11.061  10.651  2.5016 -0.6475 -0.7834
26165SOL    HW290220   9.063  10.967  10.549 -2.0401 -0.1100  1.1960
26166SOL     OW90221   0.441   6.060   4.753  0.0627 -0.3848  0.0801
26166SOL    HW190222   0.478   5.972   4.743  0.4362 -0.3013  0.6731
26166SOL    HW290223   0.460   6.103   4.670 -0.9217 -1.1450 -0.5713
26167SOL     OW90224   0.993   0.418   8.912  0.2272 -0.1911  0.4343
26167SOL    HW190225   1.073   0.367   8.921  0.2174 -0.5825 -1.3375
26167SOL    HW290226   0.935   0.383   8.980  0.4517 -2.1382 -0.2895
26168SOL     OW90227  11.516  10.252   9.731  0.0226 -0.2248 -0.1389
26168SOL    HW190228  11.537  10.159   9.740 -0.5345 -0.3321  0.1509
26168SOL    HW290229  11.580  10.286   9.669  2.2888 -0.0811  2.1106
26169SOL     OW90230   1.609   6.244   9.011 -0.1933  0.4471  0.6495
26169SOL    HW190231   1.657   6.164   9.033 -1.1560 -0.1944  0.5269
26169SOL    HW290232   1.676   6.309   8.993  0.6211 -0.4981  0.1852
26170SOL     OW90233   9.274   5.760  10.504  0.2349 -0.1087  0.8753
26170SOL    HW190234   9.226   5.793  10.428  1.8219  2.6866  0.9369
26170SOL    HW290235   9.323   5.685  10.471 -0.1205  0.2449 -0.5207
26171SOL     OW90236   1.720   9.482   6.168 -0.0860  0.0977  0.2720
26171SOL    HW190237   1.659   9.557   6.174 -0.3000 -0.1894  2.3543
26171SOL    HW290238   1.685   9.418   6.229  1.2837 -0.8647  0.0901
26172SOL     OW90239  10.360   4.507   0.311 -0.0790  0.3709  0.0131
26172SOL    HW190240  10.325   4.528   0.225 -0.3011 -0.8020 -0.2014
26172SOL    HW290241  10.315   4.426   0.336  0.1629  0.5612  1.1175
26173SOL     OW90242   7.144   7.695   1.209  0.2401  0.0783  0.1229
26173SOL    HW190243   7.095   7.765   1.167 -0.6604 -1.7211 -2.0099
26173SOL    HW290244   7.200   7.660   1.140  0.7201 -1.2561  1.1368
26174SOL     OW90245   4.189  10.346   2.673 -0.3931  0.5912 -0.2154
26174SOL    HW190246   4.267  10.355   2.727 -2.9301  1.6448  3.7079
26174SOL    HW290247   4.170  10.252   2.673  0.2410  0.4572 -0.3058
26175SOL     OW90248   5.775   4.787   7.348 -0.3006 -0.1634  0.2589
26175SOL    HW190249   5.829   4.715   7.317 -1.0481  0.1816 -2.0652
26175SOL    HW290250   5.811   4.810   7.434  0.9732 -2.1929  0.3329
26176SOL     OW90251   5.389   0.923   5.843  0.3457  0.1185 -0.2429
26176SOL    HW190252   5.331   0.969   5.903 -1.5616 -2.3491 -0.0228
26176SOL    HW290253   5.334   0.905   5.766  2.4973  2.5274 -2.5300
26177SOL     OW90254   4.537   9.485   0.422  0.1752 -0.6407  0.0337
26177SOL    HW190255   4.540   9.457   0.513 -0.0350  0.4366  0.3942
26177SOL    HW290256   4.614   9.446   0.381  1.2072  0.2231  1.0960
26178SOL     OW90257   5.955   8.270   2.148  0.6147  0.2274  0.6681
26178SOL    HW190258   5.935   8.328   2.075 -0.1833  0.9909  1.4697
26178SOL    HW290259   5.975   8.329   2.221 -0.8372 -0.4782  1.6743
26179SOL     OW90260   6.715   6.843   1.883  0.2470 -0.0210  0.3463
26179SOL    HW190261   6.653   6.892   1.937  0.0292 -0.8971  0.8983
26179SOL    HW290262   6.665   6.770   1.848  0.3868  0.5070 -1.0460
26180SOL     OW90263   3.524   9.447   3.630 -0.1496 -0.0571 -0.5499
26180SOL    HW190264   3.472   9.372   3.603 -0.9113  0.8962 -1.8825
26180SOL    HW290265   3.464   9.499   3.683 -0.6019  0.9937 -2.0059
26181SOL     OW90266  10.885   6.569   5.552 -0.5462  0.1548 -0.2261
26181SOL    HW190267  10.912   6.601   5.466  0.0358  1.8295  0.5384
26181SOL    HW290268  10.828   6.638   5.586 -1.4251 -0.8554  0.4289
26182SOL     OW90269   9.254  11.142   6.633 -0.4590  0.1509 -0.8312
26182SOL    HW190270   9.275  11.135   6.540  0.6286  0.1763 -0.6004
26182SOL    HW290271   9.160  11.159   6.635 -0.4508  0.4126 -1.9392
26183SOL     OW90272   4.935   3.067   7.576 -0.3957  0.0842  0.0335
26183SOL    HW190273   4.841   3.054   7.585 -0.1409 -1.6172  0.6118
26183SOL    HW290274   4.960   3.120   7.652 -0.2100 -3.5734  2.7904
26184SOL     OW90275   9.122   4.861   5.736 -0.1322 -0.1794  0.5488
26184SOL    HW190276   9.104   4.935   5.793  0.8286  0.8062 -0.3710
26184SOL    HW290277   9.186   4.894   5.673 -0.4802 -1.4762 -0.5502
26185SOL     OW90278   2.922   6.437   0.535  0.5754 -0.2953  0.4512
26185SOL    HW190279   2.865   6.466   0.607  0.6636  1.3380 -0.1029
26185SOL    HW290280   2.896   6.490   0.460  1.4654 -0.9554 -0.3570
26186SOL     OW90281   3.723   7.892   3.837  0.2301  0.4145 -0.5350
26186SOL    HW190282   3.631   7.868   3.835  0.4712 -0.5339 -2.3745
26186SOL    HW290283   3.748   7.902   3.745  1.9042  0.9451 -0.0809
26187SOL     OW90284   9.204   9.733   9.335 -0.6774 -0.0901  0.7158
26187SOL    HW190285   9.165   9.658   9.380  0.1108 -1.5272 -0.8688
26187SOL    HW290286   9.242   9.695   9.255 -0.1010  1.9843 -0.0451
26188SOL     OW90287   4.016  11.821   4.681  0.1784 -0.4328  0.0791
26188SOL    HW190288   4.074  11.816   4.757  0.5533  1.0009 -0.0792
26188SOL    HW290289   4.052  11.757   4.620  1.6302  0.4382 -0.0155
26189SOL     OW90290   6.862   5.520   2.005  0.2426  0.4777 -0.0006
26189SOL    HW190291   6.774   5.489   2.027  0.5873  0.3582  1.2808
26189SOL    HW290292   6.858   5.615   2.021  0.2944  0.5013 -0.1287
26190SOL     OW90293   5.964   5.635   7.894  0.3201  0.4771 -0.0024
26190SOL    HW190294   5.877   5.660   7.923  0.3856  1.5436 -0.6441
26190SOL    HW290295   6.023   5.675   7.958  0.3350 -0.7365  0.7647
26191SOL     OW90296   3.292   2.156   6.658 -0.9309  0.3969  0.0531
26191SOL    HW190297   3.222   2.102   6.694 -1.2818  1.0143  0.3286
26191SOL    HW290298   3.337   2.100   6.596 -2.2420  0.2667 -0.8153
26192SOL     OW90299   6.578   1.047  11.944  0.5590  0.0291  0.0934
26192SOL    HW190300   6.597   1.091  11.862  0.8279  2.1697  1.2178
26192SOL    HW290301   6.482   1.051  11.952  0.4133 -1.3494 -0.6812
26193SOL     OW90302   4.517  10.212  10.881 -0.2745 -0.0937 -0.0565
26193SOL    HW190303   4.501  10.280  10.816  0.2708 -0.5432 -0.6783
26193SOL    HW290304   4.603  10.233  10.918 -0.4763  0.0243  0.3585
26194SOL     OW90305   7.991   7.180   7.068  0.3441 -0.6203 -0.0397
26194SOL    HW190306   8.046   7.144   7.137 -1.9600 -0.0722  2.2588
26194SOL    HW290307   7.909   7.130   7.075 -0.8879  1.2419 -0.5605
26195SOL     OW90308   1.889   8.847  11.740  0.0589  0.4927  0.6702
26195SOL    HW190309   1.887   8.940  11.760  2.6976  0.9501 -0.7272
26195SOL    HW290310   1.800   8.817  11.755 -1.2794  3.5745 -0.3705
26196SOL     OW90311   0.208   2.365  11.264  0.1160  0.1250  0.3314
26196SOL    HW190312   0.284   2.412  11.300 -0.3255  1.1689 -0.0555
26196SOL    HW290313   0.146   2.434  11.242 -0.9112 -0.7102  0.5399
26197SOL     OW90314   7.681   1.839   3.327 -0.3806  0.3371 -0.6935
26197SOL    HW190315   7.627   1.774   3.281 -0.1210 -0.9027  0.6894
26197SOL    HW290316   7.674   1.918   3.273 -0.9756 -0.7302 -2.2520
26198SOL     OW90317   2.792   2.709   1.299 -0.6889 -0.3438 -0.4538
26198SOL    HW190318   2.863   2.741   1.244 -1.1432  0.1623 -0.7562
26198SOL    HW290319   2.775   2.620   1.267 -0.9866 -0.0346 -1.1715
26199SOL     OW90320   4.481   6.216   1.436 -0.2890 -0.8848  0.0133
26199SOL    HW190321   4.552   6.218   1.499 -0.0589 -0.6761 -0.2527
26199SOL    HW290322   4.402   6.234   1.488 -0.0387 -0.1466  0.1530
26200SOL     OW90323  11.748   8.064   6.779  0.3597 -0.5329  0.0034
26200SOL    HW190324  11.729   8.142   6.727  0.3458 -0.8402 -0.4569
26200SOL    HW290325  11.666   8.043   6.823  0.6208  0.2853  0.9064
26201SOL     OW90326   7.316   5.539   9.175 -0.9846  0.4770 -0.4844
26201SOL    HW190327   7.340   5.614   9.229  0.1790 -0.5637  0.4952
26201SOL    HW290328   7.296   5.469   9.238 -2.1260 -0.0236 -1.3711
26202SOL     OW90329  10.115   4.174   1.483 -0.8141 -0.4179 -0.6623
26202SOL    HW190330  10.054   4.118   1.436 -0.6828 -0.7555 -0.4365
26202SOL    HW290331  10.070   4.196   1.565 -1.3332  0.7559 -1.2519
26203SOL     OW90332   0.248  10.870   1.561 -0.0692  0.1785  0.2075
26203SOL    HW190333   0.172  10.832   1.606  0.7529 -0.5060  1.0500
26203SOL    HW290334   0.305  10.900   1.632  0.9312 -0.2760 -0.3921
26204SOL     OW90335   1.673   7.713   6.058 -0.1896  0.0986  0.8422
26204SOL    HW190336   1.728   7.641   6.090  0.4398  0.3631  0.3717
26204SOL    HW290337   1.595   7.710   6.114 -0.5822 -1.5141  0.2498
26205SOL     OW90338   6.881   9.639   5.660 -0.3953  0.0474 -0.4638
26205SOL    HW190339   6.952   9.576   5.676 -2.5639 -2.3320  0.3851
26205SOL    HW290340   6.809   9.608   5.714 -0.9488  4.6833  1.8775
26206SOL     OW90341  10.006   9.977   5.114  0.5148  0.3063  0.2970
26206SOL    HW190342   9.954  10.044   5.159  0.1889 -0.0556  0.4635
26206SOL    HW290343  10.051   9.930   5.184 -1.4712 -1.5156  0.4592
26207SOL     OW90344   0.602   6.869   9.931 -0.3365 -0.4293  0.0751
26207SOL    HW190345   0.522   6.855   9.982 -0.8877 -0.3235 -0.7399
26207SOL    HW290346   0.673   6.841   9.989 -0.9689 -0.5904  0.7838
26208SOL     OW90347   2.308   3.269   9.587 -0.0930 -0.6456 -0.2095
26208SOL    HW190348   2.371   3.211   9.544  0.2309 -0.7545  0.4097
26208SOL    HW290349   2.224   3.248   9.546  0.4974  0.7303 -2.3373
26209SOL     OW90350   6.738   0.501   0.147 -0.1589 -0.0751 -0.3530
26209SOL    HW190351   6.774   0.589   0.156  2.0298 -0.8602 -0.7032
26209SOL    HW290352   6.710   0.495   0.056  2.3606 -0.5797 -1.1870
26210SOL     OW90353   6.570   2.945   8.067  0.7811 -0.3822  0.0592
26210SOL    HW190354   6.585   3.011   8.134  1.2759 -0.2947 -0.1286
26210SOL    HW290355   6.507   2.985   8.007 -1.1809 -1.1852  1.4732
26211SOL     OW90356   3.882   5.748   5.966  0.4885 -0.7932 -0.4654
26211SOL    HW190357   3.956   5.747   6.026 -0.9276  1.1424  1.4915
26211SOL    HW290358   3.855   5.656   5.959  1.8591 -1.2827  0.3087
26212SOL     OW90359   1.183   3.415   4.188 -0.5157 -0.4502 -0.0144
26212SOL    HW190360   1.106   3.374   4.151 -0.9463  0.8484 -0.6280
26212SOL    HW290361   1.154   3.450   4.272 -0.3810 -0.6352  0.1105
26213SOL     OW90362   4.954   7.036   7.460  0.3365  0.5368  0.8558
26213SOL    HW190363   5.022   7.090   7.420  1.5887  0.6783  3.0417
26213SOL    HW290364   4.992   7.006   7.542 -1.5888 -0.9103  1.2862
26214SOL     OW90365   6.738   0.208  11.831 -0.4659 -0.0601 -0.2669
26214SOL    HW190366   6.708   0.145  11.766 -1.0052  1.4038 -1.5058
26214SOL    HW290367   6.818   0.170  11.867 -0.6610 -1.3268 -1.1213
26215SOL     OW90368   3.353   8.285   2.498 -0.3978 -0.7415  0.3903
26215SOL    HW190369   3.299   8.364   2.493 -0.6954 -0.9887 -0.3027
26215SOL    HW290370   3.370   8.261   2.407  1.5404 -0.2248  0.5741
26216SOL     OW90371   9.749   1.461   6.693  0.2665  0.3296  0.2215
26216SOL    HW190372   9.828   1.474   6.745 -0.3845  0.2432  1.2460
26216SOL    HW290373   9.779   1.470   6.602  1.4051  0.5231  0.5996
26217SOL     OW90374  10.916   1.646  11.149 -0.5425  0.2215 -0.0440
26217SOL    HW190375  10.856   1.606  11.212 -0.2985 -0.9949 -0.5556
26217SOL    HW290376  10.971   1.704  11.202 -0.8611 -0.1783  0.7457
26218SOL     OW90377  10.091   0.542   3.972 -0.2690  0.3438 -0.3733
26218SOL    HW190378  10.180   0.569   3.949 -0.0914 -0.2857 -0.4534
26218SOL    HW290379  10.068   0.595   4.048  1.1217 -1.1606  1.2072
26219SOL     OW90380   1.040   4.400   9.138 -0.2197  0.5681 -0.7537
26219SOL    HW190381   1.037   4.480   9.191  1.2123  0.3988 -0.3737
26219SOL    HW290382   1.048   4.329   9.201  0.0431  0.2471 -1.1431
26220SOL     OW90383   8.412   3.812   9.165  0.3362 -0.3748 -0.4228
26220SOL    HW190384   8.360   3.733   9.150  1.7118 -1.4471  0.1677
26220SOL    HW290385   8.502   3.784   9.149  0.9734  0.7545  0.9961
26221SOL     OW90386   6.327   4.517  10.666  0.1674 -0.3522 -0.1690
26221SOL    HW190387   6.273   4.544  10.591  0.3311 -0.9638 -0.5069
26221SOL    HW290388   6.314   4.423  10.673  0.1915 -0.3111  0.5518
26222SOL     OW90389   9.009   1.951   0.793  0.4412  0.2313 -0.2944
26222SOL    HW190390   8.983   1.953   0.701 -0.4076 -4.0320 -0.3603
26222SOL    HW290391   9.101   1.925   0.792  0.6390  0.8867  0.0852
26223SOL     OW90392   1.618  11.406   3.659  0.0521  0.0440 -0.2147
26223SOL    HW190393   1.668  11.486   3.646  1.8351 -1.1064 -0.9016
26223SOL    HW290394   1.626  11.387   3.752  1.3648 -0.3677 -0.3897
26224SOL     OW90395   9.607   3.367   3.460 -0.2339 -0.2721 -0.1740
26224SOL    HW190396   9.679   3.427   3.481 -1.4583  1.2266 -0.1121
26224SOL    HW290397   9.640   3.317   3.385  0.7131  0.6931 -0.4409
26225SOL     OW90398   9.663  11.144   5.485  0.3313 -0.4385  0.3186
26225SOL    HW190399   9.688  11.082   5.553 -1.1120 -0.3112  1.0157
26225SOL    HW290400   9.614  11.091   5.421 -1.0688 -0.0425  1.0100
26226SOL     OW90401   2.273   9.071  11.455 -0.3707 -0.7341 -0.1874
26226SOL    HW190402   2.192   9.030  11.423 -0.7725  0.8351 -1.3624
26226SOL    HW290403   2.242   9.146  11.506  0.3254  0.1217 -0.9947
26227SOL     OW90404  11.670   3.807   3.623 -0.2291 -0.4260 -0.1196
26227SOL    HW190405  11.744   3.864   3.600 -0.2505 -0.3683 -0.0441
26227SOL    HW290406  11.711   3.731   3.664 -0.2514 -0.0795  0.5680
26228SOL     OW90407   3.659   0.696  11.929  0.0956 -0.6682 -0.2110
26228SOL    HW190408   3.720   0.627  11.957  0.6021 -0.4341 -0.7206
26228SOL    HW290409   3.697   0.730  11.849 -1.4448 -1.4823 -1.3445
26229SOL     OW90410   5.662   2.665   4.971 -0.1609 -0.5788  0.7904
26229SOL    HW190411   5.658   2.715   5.053  2.3470  3.0376 -1.0372
26229SOL    HW290412   5.622   2.723   4.906  2.5161 -0.9788 -1.3930
26230SOL     OW90413   6.414   6.538   8.310 -0.8469  0.4577  0.1109
26230SOL    HW190414   6.329   6.499   8.329 -0.7631  0.5934  0.7684
26230SOL    HW290415   6.399   6.591   8.232 -0.4210 -2.8690 -2.4695
26231SOL     OW90416   9.925   5.778   6.195  0.4286 -0.3425 -0.3079
26231SOL    HW190417   9.890   5.864   6.170 -1.4596 -0.9965 -0.0686
26231SOL    HW290418   9.882   5.757   6.278 -0.4615 -2.2266 -1.1736
26232SOL     OW90419  11.543   6.304  10.302  0.0773 -0.5120 -0.7288
26232SOL    HW190420  11.592   6.374  10.345 -0.5866 -0.8642  0.6494
26232SOL    HW290421  11.458   6.343  10.281 -0.6615 -1.1302  0.9323
26233SOL     OW90422   5.026   1.566   9.550  0.0376 -0.2239  0.0764
26233SOL    HW190423   5.089   1.638   9.557 -1.2671  1.0789 -1.0765
26233SOL    HW290424   5.072   1.498   9.501  1.3887 -0.3372  1.4276
26234SOL     OW90425   2.672   2.910   7.261  0.3345 -0.1056  0.5537
26234SOL    HW190426   2.579   2.898   7.281  0.1802  0.0144 -0.0721
26234SOL    HW290427   2.715   2.834   7.299 -0.1254 -0.5884  0.1153
26235SOL     OW90428   0.785   9.380   6.175 -0.3251  0.6077 -0.0978
26235SOL    HW190429   0.797   9.415   6.263 -1.4775  0.4540  0.1254
26235SOL    HW290430   0.695   9.400   6.153 -1.1811 -2.4860  0.1876
26236SOL     OW90431  10.527   1.982   4.583  0.1605 -0.3330 -0.2981
26236SOL    HW190432  10.493   1.892   4.585  0.4696 -0.4477  1.2312
26236SOL    HW290433  10.449   2.037   4.592 -0.0066 -0.4432 -1.0102
26237SOL     OW90434   5.279   3.071   3.250 -0.0658  0.2898  0.1837
26237SOL    HW190435   5.241   2.989   3.282  1.0268  0.2903  1.5655
26237SOL    HW290436   5.204   3.128   3.236 -1.0229 -1.4116 -2.3967
26238SOL     OW90437   8.236  11.682   8.927 -0.8727 -0.2118  0.2123
26238SOL    HW190438   8.272  11.602   8.890 -3.4092 -1.3939  0.1142
26238SOL    HW290439   8.227  11.663   9.021  0.5837  0.8447  0.6192
26239SOL     OW90440  10.303   4.064   8.624  0.2454  0.3333  0.2654
26239SOL    HW190441  10.346   4.086   8.707  0.0530  1.7674  0.0242
26239SOL    HW290442  10.269   4.148   8.593  0.7070 -0.0982 -1.4981
26240SOL     OW90443   0.511  10.330   6.617 -0.4023  0.1179  0.1259
26240SOL    HW190444   0.463  10.307   6.696 -0.4394 -0.8044 -0.1626
26240SOL    HW290445   0.566  10.405   6.643 -0.9047  0.2419  0.8386
26241SOL     OW90446  10.271   9.181   7.294 -0.1161 -0.3476  0.1419
26241SOL    HW190447  10.251   9.257   7.349 -1.0570 -0.9458  0.6528
26241SOL    HW290448  10.256   9.211   7.205  2.1520  0.8702  0.0984
26242SOL     OW90449   7.861   3.027   8.451  0.1676 -0.1397  0.4300
26242SOL    HW190450   7.851   2.951   8.394 -4.3350  1.6016 -1.5815
26242SOL    HW290451   7.927   3.082   8.407 -0.7125 -0.3939 -1.2746
26243SOL     OW90452   9.065  10.419   0.263  0.2119 -0.1672 -0.0500
26243SOL    HW190453   9.005  10.473   0.314 -1.6895  0.6091 -2.8356
26243SOL    HW290454   9.145  10.415   0.315 -0.9761  1.9075  2.1353
26244SOL     OW90455   1.794   4.673   9.870 -0.0978 -0.2705  0.4145
26244SOL    HW190456   1.757   4.695   9.956 -3.1797 -1.2817 -0.5303
26244SOL    HW290457   1.773   4.581   9.857  2.9739 -0.9874 -0.2618
26245SOL     OW90458   0.399   5.888   8.063 -0.1347  0.1580  0.3531
26245SOL    HW190459   0.456   5.830   8.112  1.7909  1.0195 -0.7248
26245SOL    HW290460   0.376   5.839   7.984  0.1279  0.2497  0.2185
26246SOL     OW90461   2.617   8.799  11.352 -0.4742  0.0688  0.1980
26246SOL    HW190462   2.547   8.781  11.289  0.5706 -1.0990 -0.6702
26246SOL    HW290463   2.646   8.712  11.380  0.3548  0.5532  0.8655
26247SOL     OW90464  11.950   2.998   3.144 -0.2330 -0.3675  0.0681
26247SOL    HW190465  11.989   3.011   3.231  0.2620  0.0593 -0.2113
26247SOL    HW290466  11.859   3.026   3.154  0.2266  1.2126  0.0635
26248SOL     OW90467   6.763   2.816   4.728 -0.6398 -0.0602  0.0486
26248SOL    HW190468   6.718   2.731   4.727 -0.4891 -0.1356 -0.3530
26248SOL    HW290469   6.795   2.825   4.818 -2.8605  0.7378  0.8286
26249SOL     OW90470  11.356   6.486  10.606  0.0307  0.4442 -0.3467
26249SOL    HW190471  11.272   6.531  10.602  0.0270  0.6289  1.2191
26249SOL    HW290472  11.411   6.542  10.660  0.6848 -0.4131 -0.0979
26250SOL     OW90473   0.477   5.698   9.293 -0.3671  0.0852  0.5306
26250SOL    HW190474   0.542   5.713   9.224 -1.7688  0.3007 -0.7984
26250SOL    HW290475   0.401   5.750   9.267 -1.0440 -0.0409  2.1183
26251SOL     OW90476   4.685   4.294  11.473  0.0978 -0.0872  0.5966
26251SOL    HW190477   4.749   4.355  11.436 -1.8474  0.5133 -2.1133
26251SOL    HW290478   4.602   4.340  11.465 -1.0215 -1.8564  1.5720
26252SOL     OW90479   3.109   5.337   7.115 -0.1852 -0.1203  0.1449
26252SOL    HW190480   3.050   5.262   7.109  0.4998 -0.7757  1.1646
26252SOL    HW290481   3.076   5.399   7.051 -2.2007 -0.3203  0.9106
26253SOL     OW90482   1.407   7.597   4.850 -0.5012  0.0827  0.0032
26253SOL    HW190483   1.437   7.623   4.763 -3.1303  0.0855 -0.9939
26253SOL    HW290484   1.361   7.515   4.837 -0.1434 -0.4153  1.5867
26254SOL     OW90485   7.383   2.197   7.706 -0.1961  0.3115  0.3812
26254SOL    HW190486   7.292   2.202   7.675 -0.5580 -2.9229  0.5845
26254SOL    HW290487   7.425   2.274   7.666 -2.5880  0.9761 -1.1400
26255SOL     OW90488  11.910   8.969   9.894  0.0475 -0.5623  0.5561
26255SOL    HW190489  11.964   8.970   9.973 -1.1037 -0.0643  1.3582
26255SOL    HW290490  11.922   9.057   9.857 -0.6083 -0.2774  1.0145
26256SOL     OW90491   7.469   1.781  10.318 -0.2227 -0.2371 -0.2074
26256SOL    HW190492   7.405   1.851  10.303 -0.0227  0.7581  2.8653
26256SOL    HW290493   7.416   1.707  10.347 -0.2935 -0.9040 -1.9396
26257SOL     OW90494   0.724   1.772   1.728  0.3374 -0.0014 -0.0053
26257SOL    HW190495   0.782   1.753   1.655 -0.5582 -2.0343 -0.2477
26257SOL    HW290496   0.677   1.691   1.743 -2.1651  1.4381  0.4547
26258SOL     OW90497  11.682   4.922   6.658  0.1122 -0.0208  0.0372
26258SOL    HW190498  11.742   4.904   6.730  0.6878 -0.2235 -0.4892
26258SOL    HW290499  11.630   4.841   6.650  0.1121 -0.0337  0.1554
26259SOL     OW90500   8.451  10.292   7.507  0.0956  0.1641 -0.0512
26259SOL    HW190501   8.473  10.381   7.536  0.9081  0.2661 -0.9315
26259SOL    HW290502   8.406  10.304   7.424 -1.3719 -0.1799  0.6557
26260SOL     OW90503   2.278   6.309  11.393 -0.2425 -0.4300 -0.1914
26260SOL    HW190504   2.305   6.236  11.338  0.9364 -1.1094  1.2110
26260SOL    HW290505   2.186   6.291  11.413  0.0015 -1.4996  0.0584
26261SOL     OW90506   8.673   7.736  11.023 -0.4320  0.7835  0.0527
26261SOL    HW190507   8.625   7.669  10.975 -0.2411 -0.4017  1.4252
26261SOL    HW290508   8.705   7.796  10.956 -0.0554 -0.8592 -1.3062
26262SOL     OW90509   1.719   2.097   8.413 -0.1297  0.6815  0.2681
26262SOL    HW190510   1.738   2.184   8.448  0.2011  0.4451  0.6843
26262SOL    HW290511   1.803   2.068   8.377  0.2914 -0.2880  1.9271
26263SOL     OW90512  10.843   3.509   3.015 -0.3090 -0.2723 -0.0315
26263SOL    HW190513  10.830   3.460   2.933 -0.0510 -0.5164  0.0719
26263SOL    HW290514  10.755   3.512   3.054 -0.4119 -0.2525 -0.2617
26264SOL     OW90515   1.345  10.487   6.845  0.3606  0.0581  0.3213
26264SOL    HW190516   1.314  10.414   6.900 -0.3619 -0.3515 -0.5922
26264SOL    HW290517   1.266  10.520   6.803  0.9272  0.1734 -0.6877
26265SOL     OW90518   2.782   4.172   4.047  0.2534  0.0384  0.2599
26265SOL    HW190519   2.804   4.078   4.047 -0.3102 -0.1374  2.2427
26265SOL    HW290520   2.865   4.216   4.028  1.0649 -0.8091  1.6705
26266SOL     OW90521   7.287   0.530  11.261 -0.0929 -0.2249 -0.2540
26266SOL    HW190522   7.381   0.549  11.264  0.0245 -0.9024  0.4140
26266SOL    HW290523   7.258   0.573  11.180  1.0362 -1.1009 -1.1653
26267SOL     OW90524   1.109  11.631   6.706 -0.2205  0.5799  0.2467
26267SOL    HW190525   1.073  11.708   6.661 -1.1516 -0.0142 -0.0616
26267SOL    HW290526   1.114  11.656   6.798  0.8322  1.4914 -0.0412
26268SOL     OW90527   7.171   9.585   2.315 -0.3322  0.5356  0.3126
26268SOL    HW190528   7.181   9.590   2.220 -0.4144 -0.8074  0.2138
26268SOL    HW290529   7.249   9.540   2.345 -0.6929  0.2266  0.7982
26269SOL     OW90530   4.808   2.302   7.634 -0.2442  0.5691  0.4322
26269SOL    HW190531   4.831   2.360   7.562  0.0423  1.0217  0.8813
26269SOL    HW290532   4.863   2.225   7.621 -0.8429  0.2577 -0.3352
26270SOL     OW90533   3.531   9.787   8.471 -0.1861  0.0427 -0.0180
26270SOL    HW190534   3.463   9.844   8.435 -1.1017 -0.9470  0.0957
26270SOL    HW290535   3.529   9.804   8.565 -0.1413  0.1669 -0.0404
26271SOL     OW90536   7.161   2.223  11.140 -0.4130 -0.0192  0.3878
26271SOL    HW190537   7.079   2.199  11.098 -0.9914 -0.9083  1.9161
26271SOL    HW290538   7.216   2.146  11.132 -1.0220 -0.7247  2.3304
26272SOL     OW90539   3.952   7.084   6.916 -0.0732 -0.3095 -0.0762
26272SOL    HW190540   3.922   7.096   6.826 -3.1457  0.1055  0.8656
26272SOL    HW290541   4.042   7.117   6.916  0.1355 -0.6206 -3.0233
26273SOL     OW90542  10.370   5.212   4.049  0.0357  0.2065  0.4988
26273SOL    HW190543  10.452   5.262   4.059  0.9195 -1.2155  0.6545
26273SOL    HW290544  10.366   5.193   3.956  0.1612 -0.1536  0.5643
26274SOL     OW90545   1.069   0.555   7.800  0.1084 -0.0224  0.4202
26274SOL    HW190546   1.141   0.596   7.753 -0.3668  0.3697  0.0215
26274SOL    HW290547   1.079   0.461   7.784  1.7965 -0.1962  2.1668
26275SOL     OW90548   0.924   4.643   8.701  0.1584  0.6611  0.5442
26275SOL    HW190549   0.864   4.660   8.629  0.6168  0.4375  0.1061
26275SOL    HW290550   0.972   4.725   8.713  1.3427  0.1711 -0.6041
26276SOL     OW90551   9.655  10.840   7.678  0.5986  0.1122  0.0465
26276SOL    HW190552   9.658  10.812   7.770 -1.1236  1.5021  0.5759
26276SOL    HW290553   9.602  10.920   7.679  1.2465  0.6271 -2.0595
26277SOL     OW90554   0.686   6.174   6.538  0.1404  0.1006  0.1739
26277SOL    HW190555   0.688   6.269   6.525 -0.2231  0.3439  1.6642
26277SOL    HW290556   0.719   6.138   6.456  1.6722  1.5711  0.0716
26278SOL     OW90557   4.044   4.557   7.592 -0.7491  0.2538  0.3624
26278SOL    HW190558   4.091   4.619   7.647  2.8418 -1.3595 -0.5754
26278SOL    HW290559   4.060   4.588   7.502 -1.6424 -0.2532  0.0205
26279SOL     OW90560   6.301   8.852   9.788 -0.1807 -0.2012 -0.2975
26279SOL    HW190561   6.358   8.853   9.711 -1.8145  1.8659 -1.6047
26279SOL    HW290562   6.248   8.932   9.779 -0.4336  0.1145  3.0041
26280SOL     OW90563   0.843   3.821   5.071 -0.2461  0.3800 -0.2735
26280SOL    HW190564   0.828   3.839   5.164 -0.3971 -1.6964  0.1592
26280SOL    HW290565   0.937   3.805   5.065 -0.4251 -0.8661 -0.1611
26281SOL     OW90566   3.126   8.552  10.061 -0.0098 -0.4604 -0.8507
26281SOL    HW190567   3.180   8.550   9.982  0.4249  1.0805 -0.6292
26281SOL    HW290568   3.101   8.644  10.071 -0.7728 -0.7671  0.3298
26282SOL     OW90569   8.320  11.732  11.214 -0.1980  0.0044  0.1810
26282SOL    HW190570   8.371  11.716  11.293  0.5552  0.8482 -0.1177
26282SOL    HW290571   8.269  11.810  11.233 -0.2485  0.0297 -0.0547
26283SOL     OW90572   9.404  10.084   4.589 -0.1754 -0.2654 -0.0826
26283SOL    HW190573   9.335  10.095   4.525  1.4356 -0.0427 -1.8548
26283SOL    HW290574   9.466  10.155   4.572  0.7150 -0.6999  1.1460
26284SOL     OW90575   3.741   1.649  11.294 -0.0487  0.0680  0.4811
26284SOL    HW190576   3.648   1.630  11.278  0.1010 -1.1212  0.9149
26284SOL    HW290577   3.741   1.736  11.334 -0.9945 -0.0167  0.6856
26285SOL     OW90578   6.967   0.285  10.015  0.0741 -0.3794  0.3145
26285SOL    HW190579   6.879   0.269  10.048  0.1727  0.6428  1.1230
26285SOL    HW290580   7.010   0.336  10.084  0.3538  1.6891 -1.2939
26286SOL     OW90581   3.212   4.747   0.108 -0.0177 -0.4626 -0.5216
26286SOL    HW190582   3.294   4.764   0.060 -1.0540  1.3647 -1.7891
26286SOL    HW290583   3.199   4.653   0.101  2.1058 -0.8356 -0.0510
26287SOL     OW90584  11.918   2.247   6.500  0.4456  0.4707  0.1641
26287SOL    HW190585  11.963   2.185   6.557  0.2204 -0.3982 -0.5800
26287SOL    HW290586  11.951   2.333   6.526 -0.6366  0.2622  2.5543
26288SOL     OW90587   7.857   8.182  10.179  0.1966 -1.1194 -0.3590
26288SOL    HW190588   7.926   8.248  10.186  0.0162 -1.0225  0.6680
26288SOL    HW290589   7.893   8.104  10.220 -1.4773 -0.0642  3.5384
26289SOL     OW90590   2.377   1.749   2.355 -0.2754 -0.1245  0.1817
26289SOL    HW190591   2.416   1.833   2.328 -1.1872  0.4710  0.6736
26289SOL    HW290592   2.425   1.684   2.303  3.7027  0.1523  3.0130
26290SOL     OW90593   6.452   8.552   2.953 -0.3842  0.0150 -0.0856
26290SOL    HW190594   6.545   8.572   2.958 -0.8996  2.7021  0.1174
26290SOL    HW290595   6.421   8.560   3.043 -0.8577 -0.7544 -0.1704
26291SOL     OW90596   2.554   7.764   7.238 -0.2690 -0.1353  0.3461
26291SOL    HW190597   2.534   7.670   7.233 -0.7904 -0.0380  0.6191
26291SOL    HW290598   2.648   7.767   7.259  0.1182 -0.5855 -1.1965
26292SOL     OW90599   3.970   5.382   1.503  0.3971 -0.4825  0.0803
26292SOL    HW190600   4.043   5.337   1.460  0.7318  1.1900 -1.1968
26292SOL    HW290601   3.892   5.336   1.473  0.7595 -0.5202 -0.8281
26293SOL     OW90602  11.150   6.851   0.066 -0.1691  0.0227 -0.3332
26293SOL    HW190603  11.192   6.810  -0.009 -2.0109 -1.2113 -0.7507
26293SOL    HW290604  11.220   6.901   0.108  1.5763 -1.5214 -1.2432
26294SOL     OW90605   4.559  10.412   5.911  0.2844 -0.2712  0.4865
26294SOL    HW190606   4.482  10.464   5.935  0.2339 -0.6105  1.0601
26294SOL    HW290607   4.525  10.346   5.850  0.0294 -0.7128  1.0958
26295SOL     OW90608   8.954   4.793   2.925  0.5116  0.2890 -0.9104
26295SOL    HW190609   8.906   4.832   2.851 -1.3602 -0.8031 -0.3451
26295SOL    HW290610   8.915   4.833   3.002  0.1787 -0.9459 -0.4157
26296SOL     OW90611   9.720   5.832   0.568  0.1430  0.3083 -0.1043
26296SOL    HW190612   9.694   5.923   0.554  1.2912  0.8598  1.0854
26296SOL    HW290613   9.654   5.780   0.522  0.3113  1.7702 -2.0833
26297SOL     OW90614  11.263   2.589   9.895  0.3584  0.9180  0.4514
26297SOL    HW190615  11.168   2.581   9.886  0.2728  2.1569  0.0766
26297SOL    HW290616  11.299   2.529   9.829 -0.1400 -0.0064  0.9971
26298SOL     OW90617   6.901   1.556   1.495 -0.2061 -0.1213 -0.2375
26298SOL    HW190618   6.983   1.510   1.476 -1.2026 -2.1647  0.0664
26298SOL    HW290619   6.834   1.488   1.487 -1.7379  1.2151  0.7209
26299SOL     OW90620   6.166  10.884   7.334  0.1121  0.3273  0.2058
26299SOL    HW190621   6.252  10.910   7.300  1.4145 -2.0254  1.4921
26299SOL    HW290622   6.113  10.872   7.255  0.9844  1.6079 -0.6256
26300SOL     OW90623   0.802   2.972   2.577  1.0021  0.0145 -0.4700
26300SOL    HW190624   0.879   2.916   2.568  0.5104 -0.9108  0.8371
26300SOL    HW290625   0.761   2.944   2.658 -1.0795  0.0416 -1.4344
26301SOL     OW90626   4.043  11.729   8.281 -0.3552 -0.0328 -0.0208
26301SOL    HW190627   3.989  11.790   8.230 -0.4363 -0.3319 -0.2921
26301SOL    HW290628   4.127  11.774   8.290 -0.3477  0.0314 -0.4006
26302SOL     OW90629   8.399   4.100   9.795 -0.3499 -0.0040 -0.3246
26302SOL    HW190630   8.460   4.041   9.840 -0.0693  0.1717 -0.4739
26302SOL    HW290631   8.451   4.140   9.726 -0.7348 -0.1447 -0.7015
26303SOL     OW90632   2.500   1.296   4.480 -0.0732  0.2947 -0.0552
26303SOL    HW190633   2.421   1.247   4.456 -0.5930  0.7135  0.7452
26303SOL    HW290634   2.558   1.231   4.520  0.7403 -0.3810 -2.2180
26304SOL     OW90635   6.076   1.928   7.125  0.0706 -0.1638  0.2205
26304SOL    HW190636   6.013   1.942   7.196 -0.1986 -1.4656  0.2770
26304SOL    HW290637   6.126   1.851   7.152  0.7081 -0.0149 -0.4945
26305SOL     OW90638  11.691   1.169   2.234  0.3843 -0.3543 -0.3548
26305SOL    HW190639  11.696   1.137   2.143 -2.1058 -1.7252 -0.1160
26305SOL    HW290640  11.756   1.239   2.239  1.7835 -1.3707 -2.7060
26306SOL     OW90641   8.408   5.073   8.955  0.5454  0.2332 -0.4804
26306SOL    HW190642   8.476   5.124   8.910  0.8056 -0.0362 -0.3994
26306SOL    HW290643   8.370   5.019   8.886  0.2211  0.5803 -0.5802
26307SOL     OW90644  11.855   8.475   8.232 -0.1063 -0.5345  0.1422
26307SOL    HW190645  11.936   8.504   8.190  1.1711 -2.9629  0.7676
26307SOL    HW290646  11.836   8.543   8.296  2.3650 -0.6169  1.0856
26308SOL     OW90647  11.072   2.792   4.511  0.0917 -0.2268 -0.3929
26308SOL    HW190648  11.105   2.716   4.560  2.9041  1.1013 -0.0519
26308SOL    HW290649  11.055   2.858   4.578 -0.8123 -0.0002 -0.8331
26309SOL     OW90650  11.347   0.821   3.431  0.1787  0.1928 -0.1318
26309SOL    HW190651  11.433   0.828   3.390  1.1649 -1.8997  1.4011
26309SOL    HW290652  11.302   0.753   3.381 -0.9092  1.7036 -1.3226
26310SOL     OW90653   8.318   3.340   6.152  0.5658  0.2879  0.4670
26310SOL    HW190654   8.256   3.393   6.101 -0.2789  0.6423  1.7887
26310SOL    HW290655   8.317   3.380   6.239 -0.7247 -2.3014  1.7786
26311SOL     OW90656   8.465   2.366  11.297  0.4171 -0.2808  0.1269
26311SOL    HW190657   8.492   2.282  11.334 -1.7863 -1.0093  0.2195
26311SOL    HW290658   8.429   2.344  11.211  0.1440  0.6397 -0.0078
26312SOL     OW90659  11.479   5.921   1.681  0.2589  0.0935  0.3482
26312SOL    HW190660  11.477   5.984   1.609 -0.8987 -0.1411  0.1471
26312SOL    HW290661  11.398   5.871   1.671  0.7323 -0.8436  1.0203
26313SOL     OW90662   8.702  11.673   0.161  0.1646  0.0556 -0.0047
26313SOL    HW190663   8.717  11.581   0.142 -0.8146  0.1150 -1.1943
26313SOL    HW290664   8.779  11.718   0.126 -0.2470 -0.1434 -1.2155
26314SOL     OW90665   4.005  10.822   2.257 -0.3719  0.4417 -0.1026
26314SOL    HW190666   3.946  10.755   2.223  0.5712 -0.8780  0.7612
26314SOL    HW290667   4.006  10.807   2.351  0.5250  1.1255  0.0055
26315SOL     OW90668   9.710   2.456   8.995  0.1660 -0.1499  0.0824
26315SOL    HW190669   9.778   2.513   8.960  1.2572 -0.2811  1.8516
26315SOL    HW290670   9.628   2.496   8.967  0.8826 -0.6167 -3.1073
26316SOL     OW90671   2.156   4.401   7.662  0.4520  0.4637 -0.0031
26316SOL    HW190672   2.071   4.401   7.618 -0.2432  0.0066  1.2891
26316SOL    HW290673   2.135   4.408   7.755  1.8033 -0.3479  0.3880
26317SOL     OW90674   7.232   8.746   5.222 -0.2175 -0.2842  0.3514
26317SOL    HW190675   7.189   8.777   5.142  0.0144  0.8946  0.6777
26317SOL    HW290676   7.321   8.723   5.195 -0.6988 -1.7429 -0.1090
26318SOL     OW90677   0.696   9.831   9.316  0.1924  0.6859  0.0772
26318SOL    HW190678   0.783   9.793   9.327 -0.0893 -0.0147 -0.0283
26318SOL    HW290679   0.703   9.884   9.237  0.3383  0.0455 -0.3539
26319SOL     OW90680   4.866   8.939   0.833  0.1806 -0.0280  0.0065
26319SOL    HW190681   4.866   8.902   0.745 -1.0458 -0.2287  0.0678
26319SOL    HW290682   4.907   8.872   0.887 -0.3878 -0.5493 -0.1867
26320SOL     OW90683   1.823   0.543   1.586 -0.5225  0.8394 -0.2105
26320SOL    HW190684   1.747   0.522   1.532  0.8790  0.2782 -2.0346
26320SOL    HW290685   1.888   0.478   1.563  1.4816  2.9247 -0.7325
26321SOL     OW90686   5.742   9.970  10.636 -0.7981  0.4796  0.1338
26321SOL    HW190687   5.736   9.932  10.724  0.5646 -0.9321 -0.3208
26321SOL    HW290688   5.800  10.045  10.647  0.0051 -0.1527  0.3371
26322SOL     OW90689   5.705   0.594   4.126 -0.3166 -0.0541  0.3685
26322SOL    HW190690   5.735   0.670   4.076 -1.2896  0.7937  1.0349
26322SOL    HW290691   5.615   0.580   4.097  0.9223 -3.4266 -2.6348
26323SOL     OW90692   1.781   7.406  11.097  0.5221  0.0056  0.2092
26323SOL    HW190693   1.773   7.457  11.177 -1.2349  0.0912  0.0215
26323SOL    HW290694   1.766   7.470  11.027  0.6520 -0.3272 -0.1239
26324SOL     OW90695   7.049   2.212   6.946 -0.5600 -0.5779 -0.4172
26324SOL    HW190696   6.988   2.140   6.961 -0.4677 -1.1374 -2.4451
26324SOL    HW290697   7.016   2.255   6.866 -0.5322  1.5601  0.6467
26325SOL     OW90698   3.500   0.281   4.696 -0.1107  0.0598  0.1920
26325SOL    HW190699   3.406   0.262   4.698 -0.1040 -0.1186 -0.6440
26325SOL    HW290700   3.506   0.370   4.662  0.0720 -0.6497 -1.8041
26326SOL     OW90701   2.204   5.699  10.272  0.1335  0.4248  0.8942
26326SOL    HW190702   2.293   5.663  10.273 -0.3504 -1.3566 -3.0588
26326SOL    HW290703   2.215   5.789  10.242  0.6289  0.0600 -0.0835
26327SOL     OW90704  10.020   5.834   0.063 -0.6383 -0.5576 -0.4116
26327SOL    HW190705   9.955   5.789   0.009 -0.3671 -0.7148 -0.6061
26327SOL    HW290706  10.053   5.767   0.123 -0.9592 -0.3775 -0.0250
26328SOL     OW90707   5.247   4.455   4.703 -0.2454 -0.0404 -0.1478
26328SOL    HW190708   5.311   4.391   4.734 -0.4048 -0.8200 -1.3541
26328SOL    HW290709   5.299   4.522   4.659 -0.0547  0.8525  1.3543
26329SOL     OW90710   3.103   6.165   4.027  0.2182 -0.3666 -0.2266
26329SOL    HW190711   3.062   6.103   3.966 -0.8259 -0.3757  0.4478
26329SOL    HW290712   3.098   6.121   4.112  1.8665 -0.4572 -0.1424
26330SOL     OW90713  11.726   8.163   9.817 -0.1751 -0.5527  0.1025
26330SOL    HW190714  11.822   8.166   9.809 -0.1862 -0.8700 -0.1349
26330SOL    HW290715  11.702   8.253   9.841  0.2580 -0.6762  1.0336
26331SOL     OW90716   6.416   5.180   8.533  0.0603  0.0267 -0.3290
26331SOL    HW190717   6.324   5.174   8.560 -0.3952 -3.5622 -2.1159
26331SOL    HW290718   6.462   5.118   8.591  1.6570  2.4299  1.1564
26332SOL     OW90719  10.178   1.454   6.550 -0.0535 -0.0745  0.1500
26332SOL    HW190720  10.222   1.511   6.612  0.4521 -1.3431  1.0041
26332SOL    HW290721  10.247   1.429   6.487 -0.2131  0.0864 -0.0885
26333SOL     OW90722  10.058   6.557   4.797  0.0494  0.2027 -0.0931
26333SOL    HW190723  10.126   6.574   4.861  1.8080 -1.2523 -1.4636
26333SOL    HW290724  10.009   6.640   4.791  2.0028  1.4720  0.5708
26334SOL     OW90725   8.739   3.460   8.483  0.4440 -0.0015 -0.3022
26334SOL    HW190726   8.714   3.368   8.471  0.1433 -0.0487  0.5968
26334SOL    HW290727   8.835   3.459   8.481  0.4392 -0.2908 -0.5461
26335SOL     OW90728   1.639   2.060   6.086 -0.8562  0.0256  0.3946
26335SOL    HW190729   1.640   2.023   5.998  1.0756 -0.0391  0.3910
26335SOL    HW290730   1.584   2.138   6.079 -0.6257  0.0843 -0.8957
26336SOL     OW90731   7.926   5.750   6.255  0.0051  0.3596 -0.0095
26336SOL    HW190732   7.950   5.835   6.219 -2.9868  0.4279 -2.1975
26336SOL    HW290733   7.873   5.770   6.331  1.0229  0.3536  0.7217
26337SOL     OW90734   7.665   0.672   4.973 -0.1286 -0.1637  0.4558
26337SOL    HW190735   7.597   0.607   4.990 -0.3137 -0.2843 -0.6381
26337SOL    HW290736   7.617   0.756   4.971  0.2734  0.2029  3.0076
26338SOL     OW90737   2.383   0.689   4.242  0.6541 -0.5953 -0.3887
26338SOL    HW190738   2.474   0.663   4.232  1.2798  1.0779  0.4776
26338SOL    HW290739   2.333   0.608   4.236  2.0248 -1.3506 -2.6877
26339SOL     OW90740   6.793   4.828   3.164 -0.2118  0.3900  0.2995
26339SOL    HW190741   6.881   4.818   3.126 -0.6381  0.1163 -0.6336
26339SOL    HW290742   6.804   4.800   3.255  0.6523  0.2751  0.1760
26340SOL     OW90743   7.355   8.511   2.615  0.0014 -0.0862  0.0334
26340SOL    HW190744   7.384   8.591   2.573  1.0615 -1.0653 -1.1662
26340SOL    HW290745   7.370   8.526   2.709  1.0715  0.7555 -0.2614
26341SOL     OW90746  10.196   6.699  11.497  0.3394  0.2737 -0.0995
26341SOL    HW190747  10.182   6.792  11.509  2.0967  0.8207 -1.8050
26341SOL    HW290748  10.157   6.658  11.575 -0.3261  2.4034  0.7431
26342SOL     OW90749   1.850   1.535   9.574 -0.2113  0.1980  0.1543
26342SOL    HW190750   1.839   1.505   9.484  2.2959 -0.6895  0.0527
26342SOL    HW290751   1.806   1.468   9.627 -0.1959 -0.2157 -0.3524
26343SOL     OW90752   2.595   8.753   3.218  0.2119  0.5333 -0.1091
26343SOL    HW190753   2.592   8.748   3.313  0.2767  0.7652 -0.0965
26343SOL    HW290754   2.520   8.807   3.194 -0.8690 -0.9717 -0.2907
26344SOL     OW90755   6.253   8.174   0.167 -0.0427  0.1448 -0.2406
26344SOL    HW190756   6.232   8.224   0.088 -3.5862 -0.2945  0.2648
26344SOL    HW290757   6.238   8.236   0.239 -0.1628 -0.4173  0.2187
26345SOL     OW90758   8.569  11.007   4.162 -0.4812  0.0437 -0.1122
26345SOL    HW190759   8.633  11.075   4.185 -0.2353 -0.1451 -0.2359
26345SOL    HW290760   8.606  10.926   4.197 -2.0547  0.3420  2.4574
26346SOL     OW90761   0.525  11.810   2.660 -0.0794  0.1898  0.5827
26346SOL    HW190762   0.546  11.823   2.568 -0.3206 -1.4856  0.2708
26346SOL    HW290763   0.571  11.730   2.685  0.2638  0.8003  2.0215
26347SOL     OW90764   8.667  10.377   1.481 -0.5167  0.0536 -0.1746
26347SOL    HW190765   8.728  10.446   1.454 -0.5217 -0.7443 -2.4578
26347SOL    HW290766   8.580  10.415   1.470 -0.5154 -0.2267 -1.3070
26348SOL     OW90767   6.342   7.227   5.504  0.1011  0.0250 -0.4811
26348SOL    HW190768   6.375   7.172   5.574  0.4991 -2.0394 -2.1931
26348SOL    HW290769   6.372   7.185   5.423 -2.3001  0.9593 -1.9829
26349SOL     OW90770   6.996   0.343   8.467 -0.5026  0.0409  0.2701
26349SOL    HW190771   7.045   0.293   8.402 -0.1034 -0.0965  0.6699
26349SOL    HW290772   7.062   0.396   8.511 -0.5709 -0.8176  1.4303
26350SOL     OW90773   4.888   4.987   7.321  0.3658  0.1160  0.2008
26350SOL    HW190774   4.888   4.970   7.227  0.5988 -0.4054  0.2936
26350SOL    HW290775   4.978   5.013   7.341 -0.3280  3.4133 -0.2636
26351SOL     OW90776   4.785   0.278   3.689  0.3698 -0.0810  0.4814
26351SOL    HW190777   4.825   0.320   3.612  0.6190  0.0003  0.6551
26351SOL    HW290778   4.723   0.344   3.721 -1.1629 -0.8356 -0.7725
26352SOL     OW90779   3.475   9.372   8.071  0.2405 -0.9870 -0.0483
26352SOL    HW190780   3.386   9.404   8.064  1.1635  1.5676 -1.0427
26352SOL    HW290781   3.520   9.407   7.995  2.3125 -1.4947  0.8655
26353SOL     OW90782   9.654   4.012   2.341 -0.0503 -0.1883 -0.0463
26353SOL    HW190783   9.683   4.065   2.267 -0.3923 -1.0518 -0.8281
26353SOL    HW290784   9.598   3.945   2.302  0.8047 -1.4684  0.8264
26354SOL     OW90785   2.630   2.523   7.964 -0.2339 -0.7761 -0.1812
26354SOL    HW190786   2.689   2.599   7.957 -0.6091 -0.3231  1.1247
26354SOL    HW290787   2.646   2.489   8.052 -1.6963 -0.8168  0.1026
26355SOL     OW90788   4.329   7.642   3.878 -0.5809  0.2938  0.0175
26355SOL    HW190789   4.363   7.685   3.800  0.5767 -0.7985 -0.1169
26355SOL    HW290790   4.385   7.672   3.949 -2.0448  1.8157  0.6116
26356SOL     OW90791   8.107  10.827   7.507  0.1426 -0.1520 -0.2610
26356SOL    HW190792   8.152  10.755   7.552 -0.2486  0.9128  1.9217
26356SOL    HW290793   8.040  10.856   7.568 -1.2945  0.5518 -2.0739
26357SOL     OW90794   4.667   0.745  10.235  0.1132  0.1075  0.4459
26357SOL    HW190795   4.721   0.702  10.169  1.2706 -0.3767  1.6554
26357SOL    HW290796   4.716   0.735  10.317 -1.8253 -0.3934  1.6240
26358SOL     OW90797  10.496  10.157   9.243 -0.0005 -0.0061  0.0142
26358SOL    HW190798  10.486  10.221   9.173 -3.5975 -0.1951  0.1368
26358SOL    HW290799  10.496  10.208   9.324  1.3748  0.0537 -0.0154
26359SOL     OW90800   4.091  10.919   5.121 -0.4094  0.2755 -0.0727
26359SOL    HW190801   4.025  10.987   5.136 -1.2076 -0.6601  0.8127
26359SOL    HW290802   4.128  10.902   5.207 -1.5156 -1.6679  0.0792
26360SOL     OW90803   7.787   8.483   2.575  0.2324 -0.4767 -0.0266
26360SOL    HW190804   7.853   8.549   2.554  1.4656 -1.7506 -0.2316
26360SOL    HW290805   7.713   8.504   2.517 -0.1551  1.7988  1.1633
26361SOL     OW90806   7.086   6.404  10.012 -0.4378 -0.5215 -0.4544
26361SOL    HW190807   7.021   6.371   9.951  1.4237 -0.3874 -2.6297
26361SOL    HW290808   7.169   6.394   9.967  0.7531  2.2840  0.8723
26362SOL     OW90809   5.208   3.840  10.556  0.0823 -0.5071  0.6420
26362SOL    HW190810   5.145   3.911  10.545  0.5078 -0.2949 -0.6251
26362SOL    HW290811   5.217   3.830  10.651  1.1705  2.2229  0.9305
26363SOL     OW90812   8.972   0.453   1.562 -0.0120  0.2798  0.2372
26363SOL    HW190813   9.019   0.522   1.515  0.6539  1.5610  2.6570
26363SOL    HW290814   8.945   0.494   1.644  0.3368 -2.3022  1.7372
26364SOL     OW90815   8.136   1.823   8.987 -0.4906 -0.2758  0.3992
26364SOL    HW190816   8.192   1.806   9.062  0.4840 -0.0420 -0.2531
26364SOL    HW290817   8.177   1.774   8.915  1.2086  2.9125 -1.0375
26365SOL     OW90818   4.219  11.565   0.265  0.1085  0.1319  0.0859
26365SOL    HW190819   4.135  11.590   0.228  0.5557 -1.0123 -1.8764
26365SOL    HW290820   4.203  11.481   0.309  0.1620  0.0023 -0.1359
26366SOL     OW90821   6.952   4.064   1.128  0.2464 -0.4427 -0.8195
26366SOL    HW190822   6.892   4.054   1.054  1.5645 -0.1044 -1.9608
26366SOL    HW290823   7.032   4.020   1.100  0.6142 -0.7417  0.6167
26367SOL     OW90824   3.078   1.701   1.296  0.1853 -0.4222  0.1134
26367SOL    HW190825   3.014   1.772   1.306  2.2394  1.4789  0.3782
26367SOL    HW290826   3.139   1.733   1.230 -0.9922 -3.6961 -2.8829
26368SOL     OW90827   8.269   0.832   4.459 -0.1950  0.2508  0.4446
26368SOL    HW190828   8.221   0.814   4.378  1.5906  0.0554 -0.6390
26368SOL    HW290829   8.297   0.746   4.490 -0.0244  0.4057  0.7219
26369SOL     OW90830   2.567   5.667   3.451  0.4390 -0.4582  0.0144
26369SOL    HW190831   2.514   5.672   3.531  0.4222  0.4334 -0.0340
26369SOL    HW290832   2.612   5.752   3.448 -0.6689  0.1336 -1.6703
26370SOL     OW90833   7.609   3.996   7.079 -0.2446  0.6523 -0.5740
26370SOL    HW190834   7.700   3.985   7.051  0.5748 -0.8619  2.1930
26370SOL    HW290835   7.595   4.090   7.080  1.8322  1.0136  0.2731
26371SOL     OW90836   9.731   7.924   5.692  0.4606 -0.3105 -0.5555
26371SOL    HW190837   9.820   7.959   5.688  0.5037 -0.4281 -0.6421
26371SOL    HW290838   9.732   7.862   5.765  0.6676 -0.9018 -1.0469
26372SOL     OW90839   5.292   9.966   5.785 -0.0677  0.1343 -0.0136
26372SOL    HW190840   5.238   9.904   5.736  1.0815  0.9293 -2.4552
26372SOL    HW290841   5.359   9.912   5.827 -0.5997 -0.5097  0.0259
26373SOL     OW90842   1.213   9.466   4.959  0.5036 -0.5778 -0.0897
26373SOL    HW190843   1.122   9.441   4.975  0.3805  0.9305  1.9329
26373SOL    HW290844   1.264   9.388   4.979 -0.2185 -0.8942  0.5387
26374SOL     OW90845   0.174   5.881  10.943  0.2083 -0.0061  0.6726
26374SOL    HW190846   0.267   5.873  10.923  0.1886  0.5484  0.3595
26374SOL    HW290847   0.146   5.960  10.898 -0.0533  0.7641  2.1342
26375SOL     OW90848   2.217   4.409   6.860 -0.0659 -0.1066  0.0773
26375SOL    HW190849   2.262   4.458   6.791 -1.4081  0.6516 -0.2928
26375SOL    HW290850   2.143   4.368   6.816 -0.9519  0.4011  1.0455
26376SOL     OW90851   6.778   9.857  10.491 -0.2857  0.0712 -0.1137
26376SOL    HW190852   6.839   9.826  10.558  0.3349  1.6707  0.0951
26376SOL    HW290853   6.834   9.896  10.424 -0.9073 -1.3852 -1.5449
26377SOL     OW90854   7.371  11.439   3.564 -0.5038  0.2406  0.4380
26377SOL    HW190855   7.302  11.503   3.579 -1.9350 -0.7052 -1.6813
26377SOL    HW290856   7.335  11.355   3.593 -0.0599 -0.1930 -0.2265
26378SOL     OW90857   1.578   6.414   6.109  0.1044  0.1305 -0.5545
26378SOL    HW190858   1.488   6.381   6.100 -0.1474  0.9587 -1.1947
26378SOL    HW290859   1.580   6.450   6.198 -0.2634  0.2902 -0.6069
26379SOL     OW90860   3.108  10.477   7.754  0.0500 -0.0963  0.5002
26379SOL    HW190861   3.139  10.397   7.796  0.9006  0.5242  1.0964
26379SOL    HW290862   3.134  10.469   7.663 -2.0251 -1.5744 -0.0393
26380SOL     OW90863   8.152   1.309   9.691 -0.2080  0.1053 -0.2496
26380SOL    HW190864   8.173   1.252   9.617  0.6730 -0.1269  0.1751
26380SOL    HW290865   8.056   1.310   9.693 -0.2402 -0.0173 -1.2879
26381SOL     OW90866   2.197  10.669   7.084 -0.1550  0.7010  0.1194
26381SOL    HW190867   2.219  10.686   6.992  0.4554  0.2979  0.1787
26381SOL    HW290868   2.111  10.708   7.097 -0.8447 -0.3688 -0.9825
26382SOL     OW90869   1.816   3.944   1.629 -0.8879 -0.3038 -0.2674
26382SOL    HW190870   1.870   3.894   1.568  0.2735 -0.1634  0.6031
26382SOL    HW290871   1.737   3.891   1.641 -0.1029 -1.4528 -0.1100
26383SOL     OW90872  10.759   3.209   3.856 -0.4913  0.3119  0.3536
26383SOL    HW190873  10.772   3.197   3.762 -1.0813 -1.3959  0.4445
26383SOL    HW290874  10.745   3.303   3.867  1.3163  0.7997 -1.0208
26384SOL     OW90875   8.890  10.798   6.132  0.5045  0.1495  0.0408
26384SOL    HW190876   8.920  10.797   6.223 -0.8313  0.1447  0.4972
26384SOL    HW290877   8.842  10.880   6.123 -0.0347 -0.2117 -0.4380
26385SOL     OW90878   8.246   0.357  10.720 -0.4269 -0.2392  0.1409
26385SOL    HW190879   8.282   0.274  10.751  1.9878  0.6928  0.0803
26385SOL    HW290880   8.231   0.407  10.800  2.6941  0.9463  0.1378
26386SOL     OW90881   2.493   4.264  10.461 -0.3137  0.0241  0.4395
26386SOL    HW190882   2.449   4.203  10.519 -2.1349  0.2151 -0.6558
26386SOL    HW290883   2.556   4.211  10.412 -0.4930 -0.5809  0.8637
26387SOL     OW90884   3.737   9.066  10.135  0.2151  0.1220  0.1472
26387SOL    HW190885   3.776   9.151  10.158 -1.6607  0.7711  1.2038
26387SOL    HW290886   3.646   9.073  10.166  0.0288 -2.3061  0.2956
26388SOL     OW90887   5.878   1.943   8.623  0.2221  0.1154 -0.1487
26388SOL    HW190888   5.792   1.944   8.582  0.4905 -0.0986 -0.7460
26388SOL    HW290889   5.880   2.021   8.679 -0.6407 -0.3152  0.4940
26389SOL     OW90890   8.355  10.902  11.165 -0.0033  0.1656  0.3720
26389SOL    HW190891   8.448  10.911  11.142  0.0122  2.3547  1.0889
26389SOL    HW290892   8.356  10.871  11.256  0.0625  1.3727  0.7952
26390SOL     OW90893   7.539   1.226   1.422  0.0424  0.1752 -0.7107
26390SOL    HW190894   7.523   1.204   1.331 -2.4794  0.7901 -0.4811
26390SOL    HW290895   7.551   1.321   1.422  0.5590  0.1159 -0.4455
26391SOL     OW90896   7.238   7.671   8.019  0.1385 -0.2969  0.3666
26391SOL    HW190897   7.317   7.724   8.029 -0.4224  0.5021  0.6695
26391SOL    HW290898   7.207   7.658   8.109 -0.5357  0.1118  0.1953
26392SOL     OW90899   7.559   7.162  11.890  0.4469 -0.0255 -0.2617
26392SOL    HW190900   7.555   7.072  11.858  1.7550  0.6448 -2.5200
26392SOL    HW290901   7.489   7.207  11.844 -0.0175  0.2170  0.6501
26393SOL     OW90902   6.046   4.171   4.044 -0.4961 -0.2884 -0.1907
26393SOL    HW190903   5.962   4.148   4.002 -0.6463  1.3887 -0.8977
26393SOL    HW290904   6.065   4.097   4.101 -1.0429 -2.0085 -2.1163
26394SOL     OW90905   6.346   0.612  10.365 -0.9120  0.1198  0.2374
26394SOL    HW190906   6.378   0.699  10.340 -2.0552  0.1864 -1.0871
26394SOL    HW290907   6.347   0.562  10.284  2.1437 -1.9727  1.4079
26395SOL     OW90908  10.155   7.652   3.833 -0.5364 -0.1115  0.2983
26395SOL    HW190909  10.172   7.623   3.923  0.5760 -0.2343  0.0640
26395SOL    HW290910  10.198   7.585   3.778  0.4606  0.9717 -0.2852
26396SOL     OW90911   9.574   5.738   1.556 -0.0614 -0.2129 -0.3589
26396SOL    HW190912   9.487   5.735   1.596 -0.1957 -0.4979 -0.6657
26396SOL    HW290913   9.576   5.662   1.497  0.0109  0.3825 -1.1400
26397SOL     OW90914  10.656   2.194   3.918  0.5724  0.9215  0.0593
26397SOL    HW190915  10.567   2.190   3.954  1.2493  1.3804  1.9158
26397SOL    HW290916  10.647   2.247   3.839 -0.9134  0.3799 -0.1698
26398SOL     OW90917   3.794   5.245   9.382  1.2189 -0.2418  0.1010
26398SOL    HW190918   3.883   5.213   9.397  1.6252  0.4501 -0.7111
26398SOL    HW290919   3.806   5.328   9.335  0.1395 -0.3442 -0.3939
26399SOL     OW90920   8.741   9.018   9.817 -0.3311 -0.0437 -0.4472
26399SOL    HW190921   8.672   8.963   9.854  0.6579 -0.0890  1.4218
26399SOL    HW290922   8.728   9.012   9.722 -2.7285 -0.2378 -0.1689
26400SOL     OW90923   5.276   1.136   3.080  0.0096  0.1405 -0.0659
26400SOL    HW190924   5.188   1.116   3.050 -0.5236  2.8613 -0.5256
26400SOL    HW290925   5.322   1.051   3.078 -2.3067 -1.1748 -0.6412
26401SOL     OW90926   2.210   7.292   0.168 -0.2223 -0.1448 -0.5865
26401SOL    HW190927   2.258   7.349   0.228 -2.4894  0.9402  0.3450
26401SOL    HW290928   2.252   7.305   0.084  0.7529  1.1526  0.0630
26402SOL     OW90929  11.786   0.309   9.956 -0.1877  0.2474  0.0364
26402SOL    HW190930  11.691   0.309   9.960 -0.1584  1.2316  2.7593
26402SOL    HW290931  11.810   0.402   9.952  0.6898  0.0296  0.0388
26403SOL     OW90932  11.274   8.684   3.050 -0.0952 -0.4633 -0.0158
26403SOL    HW190933  11.280   8.724   2.963 -1.7870 -1.6382 -0.7199
26403SOL    HW290934  11.362   8.649   3.066  1.5957  3.5900  0.7788
26404SOL     OW90935   9.796   5.570   4.622  0.2959  0.3861  0.3190
26404SOL    HW190936   9.741   5.613   4.687  0.8781  0.6811  0.6177
26404SOL    HW290937   9.737   5.555   4.548 -0.3657  0.0736  0.8904
26405SOL     OW90938   2.033   4.206   9.672 -0.0274 -0.0021 -0.3621
26405SOL    HW190939   2.103   4.172   9.616 -0.8106 -0.9615 -0.7939
26405SOL    HW290940   2.024   4.139   9.741 -2.3011 -1.3013 -1.7984
26406SOL     OW90941   0.023   6.107   0.767 -0.4359 -0.0524  0.3334
26406SOL    HW190942   0.091   6.072   0.824 -0.1450 -0.0806 -0.0287
26406SOL    HW290943   0.071   6.149   0.696 -0.7756 -2.3047 -1.3204
26407SOL     OW90944  10.051   3.070   2.131 -0.5518 -0.0168  0.0857
26407SOL    HW190945  10.052   3.138   2.063  0.4112  0.9882  1.0595
26407SOL    HW290946   9.987   3.102   2.194 -0.0017  0.0572  0.6109
26408SOL     OW90947   1.002   5.967   7.124  0.1070  0.4018  0.2652
26408SOL    HW190948   1.076   5.914   7.153  0.1753  0.5243  0.3100
26408SOL    HW290949   1.033   6.057   7.125 -0.8732  0.7989  3.0113
26409SOL     OW90950   3.735   4.281   5.255  0.4933  0.4963 -0.1231
26409SOL    HW190951   3.716   4.374   5.240 -0.0203  0.1454 -1.9171
26409SOL    HW290952   3.823   4.269   5.220  0.2220  0.1406 -0.6898
26410SOL     OW90953   9.066   0.231   8.222  0.3362  0.0441  0.4049
26410SOL    HW190954   9.151   0.190   8.208 -0.6639 -1.7121 -0.7218
26410SOL    HW290955   9.016   0.213   8.143 -1.2505  0.6730  1.2139
26411SOL     OW90956   4.975   1.406  11.202  0.0492 -0.0848  0.1973
26411SOL    HW190957   5.063   1.432  11.229 -0.2858  1.6345 -0.2867
26411SOL    HW290958   4.985   1.314  11.176  1.8932  0.3238 -0.7196
26412SOL     OW90959   3.443   4.139   5.834 -0.4150  0.0821 -0.2310
26412SOL    HW190960   3.392   4.105   5.908  0.3780  0.4437  0.4932
26412SOL    HW290961   3.432   4.073   5.766 -0.9006 -0.4159  0.3138
26413SOL     OW90962  10.439   4.120   6.158 -0.0684  0.3442 -0.3214
26413SOL    HW190963  10.493   4.083   6.087  0.1635 -0.3111  0.1888
26413SOL    HW290964  10.494   4.188   6.196  0.0489  0.2789 -0.3729
26414SOL     OW90965   5.092   2.979   9.094 -0.4443 -0.6730  0.3049
26414SOL    HW190966   5.127   2.952   9.009  0.8711  0.3260  0.4896
26414SOL    HW290967   4.997   2.981   9.082 -0.2524 -0.0365 -1.3148
26415SOL     OW90968   5.490   1.442   6.914 -0.0393  0.8256  0.1657
26415SOL    HW190969   5.497   1.528   6.957  1.6818  0.6059  0.4008
26415SOL    HW290970   5.566   1.394   6.945 -0.1185 -0.2324 -1.1994
26416SOL     OW90971   0.340   6.637   5.903  0.1253  0.4276  0.6187
26416SOL    HW190972   0.264   6.668   5.855 -0.6107 -0.0558  1.4363
26416SOL    HW290973   0.314   6.551   5.937  0.9335  0.3740  1.1390
26417SOL     OW90974   2.000   0.263  10.990 -0.6087  0.1415 -0.5179
26417SOL    HW190975   1.962   0.195  11.046 -0.8526  0.8758  0.2283
26417SOL    HW290976   1.993   0.343  11.041  1.9669  0.3319 -0.3433
26418SOL     OW90977   6.396   8.226   1.983  0.1460  0.3453 -0.0318
26418SOL    HW190978   6.341   8.149   1.974  0.9364 -0.1618 -0.7533
26418SOL    HW290979   6.342   8.289   2.030 -0.9552 -0.2065 -0.5162
26419SOL     OW90980   2.445   5.871  11.840  0.7878  0.2989  0.1449
26419SOL    HW190981   2.411   5.883  11.752  1.6386  0.9556 -0.1094
26419SOL    HW290982   2.477   5.958  11.865  3.7559 -0.5514 -0.2809
26420SOL     OW90983   8.281   0.017   4.125  0.2218 -0.0325 -0.0566
26420SOL    HW190984   8.303  -0.002   4.034  0.0664  1.0782 -0.3421
26420SOL    HW290985   8.223  -0.054   4.151  0.6296 -0.6041 -0.6800
26421SOL     OW90986   0.664   1.435   3.246  0.3032 -0.2702  0.2392
26421SOL    HW190987   0.729   1.423   3.315  0.3203 -0.7092  0.1497
26421SOL    HW290988   0.624   1.349   3.236  1.0911 -0.5027 -1.1005
26422SOL     OW90989   9.257   3.877   3.038 -0.6297 -0.3997  0.1100
26422SOL    HW190990   9.276   3.899   2.947 -0.6469 -0.4468  0.0950
26422SOL    HW290991   9.203   3.950   3.070 -0.4254 -0.2660  0.1530
26423SOL     OW90992  11.878   2.225   0.840 -0.1961 -0.4070  0.4713
26423SOL    HW190993  11.831   2.308   0.846  1.6871  1.2821 -3.8284
26423SOL    HW290994  11.809   2.159   0.839 -1.8386  1.0899  2.7479
26424SOL     OW90995   3.059   0.275  10.683  0.9291 -0.1600 -0.2499
26424SOL    HW190996   3.061   0.354  10.737  0.3589  0.3921 -1.0084
26424SOL    HW290997   3.143   0.232  10.699  1.4288  0.8348 -0.1487
26425SOL     OW90998   4.416   0.347  10.632 -0.4694 -0.3611  0.1044
26425SOL    HW190999   4.364   0.428  10.632 -0.3886 -0.2928  1.0621
26425SOL    HW291000   4.494   0.368  10.682  0.7558 -0.3282 -1.7339
26426SOL     OW91001   2.489  10.172   2.449 -0.3453  0.0786  0.1813
26426SOL    HW191002   2.426  10.107   2.478  0.6638 -1.0604 -0.0841
26426SOL    HW291003   2.530  10.133   2.372  1.0510  0.5353  0.6585
26427SOL     OW91004   9.946   4.217   7.681 -0.7375  0.1701  0.4874
26427SOL    HW191005   9.913   4.206   7.770  0.6454 -0.1652  0.9834
26427SOL    HW291006  10.023   4.160   7.676 -1.2969 -0.5230 -1.2186
26428SOL     OW91007   3.849   7.413   1.536  0.5151  0.3762  0.2101
26428SOL    HW191008   3.932   7.377   1.505  0.2452  0.3007 -0.4526
26428SOL    HW291009   3.874   7.480   1.600  1.0545 -0.2188  0.6394
26429SOL     OW91010   7.429   9.188   6.000 -0.0382  0.3971  0.2801
26429SOL    HW191011   7.475   9.203   6.082  0.3511  2.1901 -0.2287
26429SOL    HW291012   7.369   9.262   5.991 -0.6743 -0.2017 -0.6546
26430SOL     OW91013   5.980   0.606  11.691 -0.4935 -0.0797 -0.4125
26430SOL    HW191014   5.999   0.671  11.759 -0.1277 -0.4585 -0.1499
26430SOL    HW291015   6.017   0.525  11.724  0.8703 -0.0048 -1.6484
26431SOL     OW91016   7.877   4.987   7.477  0.1000 -0.0421 -0.3949
26431SOL    HW191017   7.825   5.057   7.518 -1.1283  0.0887 -2.0804
26431SOL    HW291018   7.915   4.939   7.551 -1.5095  0.5589  0.8773
26432SOL     OW91019   1.155  10.855   8.417 -0.1539  0.1617 -0.1867
26432SOL    HW191020   1.182  10.785   8.478 -0.4575  1.7242  1.8570
26432SOL    HW291021   1.078  10.893   8.459 -0.7940  0.8597 -1.9491
26433SOL     OW91022   7.123   9.451  11.487 -0.4062 -0.1767 -0.3331
26433SOL    HW191023   7.107   9.489  11.573  0.2176 -2.1289  0.6963
26433SOL    HW291024   7.200   9.397  11.499 -0.1731 -0.3137 -2.1986
26434SOL     OW91025   3.921   2.425   1.573  0.0985  0.0505 -0.1807
26434SOL    HW191026   4.012   2.398   1.586  0.3072  0.6607 -0.3673
26434SOL    HW291027   3.891   2.372   1.499 -0.0413 -0.9383  0.5630
26435SOL     OW91028   1.118   6.735   7.874 -0.4316 -0.0258 -0.2056
26435SOL    HW191029   1.027   6.757   7.858 -0.9695 -1.0234  1.2456
26435SOL    HW291030   1.166   6.774   7.801 -2.0790 -0.0096 -1.3202
26436SOL     OW91031   9.269   1.951   2.292  0.3348 -0.2219 -0.2882
26436SOL    HW191032   9.207   1.898   2.342 -0.1768 -0.2824 -0.9723
26436SOL    HW291033   9.347   1.956   2.348 -0.4505  0.2780  0.8050
26437SOL     OW91034   4.962   3.760   7.624  0.2238 -0.1505 -0.1737
26437SOL    HW191035   4.990   3.822   7.556 -0.1253 -0.3170 -0.4754
26437SOL    HW291036   4.877   3.728   7.593 -0.3081  0.3614  0.7440
26438SOL     OW91037   6.378   6.524   9.170 -0.3801 -0.3975  0.0256
26438SOL    HW191038   6.464   6.535   9.128 -0.2228  1.6466  0.7824
26438SOL    HW291039   6.392   6.452   9.232  1.0811  0.4768  0.7791
26439SOL     OW91040   3.773   9.146   2.228  0.0687 -0.1064  0.6018
26439SOL    HW191041   3.690   9.101   2.214  0.0479 -0.0640  0.5876
26439SOL    HW291042   3.788   9.193   2.146 -0.1152  0.2410  0.7631
26440SOL     OW91043   7.698   4.540   9.702  0.1199 -0.0016 -0.6292
26440SOL    HW191044   7.680   4.609   9.767 -2.0662 -0.4208 -0.6950
26440SOL    HW291045   7.671   4.459   9.746  1.9748 -0.7671 -0.8185
26441SOL     OW91046   2.850   2.347   3.263 -0.2289 -0.2189 -0.4087
26441SOL    HW191047   2.937   2.331   3.226 -0.1864 -1.6351  0.2079
26441SOL    HW291048   2.855   2.435   3.299  0.4010  0.3708 -1.8463
26442SOL     OW91049   4.982   8.781   1.021  0.4730  0.0255  0.2030
26442SOL    HW191050   5.022   8.774   1.108  2.8056  0.9655 -0.7155
26442SOL    HW291051   5.001   8.697   0.979  2.1746  0.6912 -0.4524
26443SOL     OW91052  10.684  10.968   4.053  0.5063 -0.2487 -0.3273
26443SOL    HW191053  10.731  10.949   4.134  0.4551  2.0382  0.3093
26443SOL    HW291054  10.606  10.913   4.057 -0.0280  0.5620  1.7310
26444SOL     OW91055   9.837   3.930   2.961  0.1223  0.3674  0.6112
26444SOL    HW191056   9.897   3.991   3.003 -0.7436 -0.5185  3.3663
26444SOL    HW291057   9.869   3.843   2.985 -2.6413 -0.1509  3.0581
26445SOL     OW91058   7.630  10.253   4.357 -0.2931 -0.1912  0.4147
26445SOL    HW191059   7.619  10.261   4.262 -2.5829  1.1586  0.7116
26445SOL    HW291060   7.654  10.161   4.371 -0.3766 -0.5282 -1.4147
26446SOL     OW91061   7.374   4.771   1.401  0.4817  0.3983  0.0548
26446SOL    HW191062   7.398   4.743   1.490 -0.0657  0.1371  0.1259
26446SOL    HW291063   7.290   4.817   1.413  0.8453  1.1531 -0.2069
26447SOL     OW91064   0.889   3.869   1.921  0.0776  0.3969  0.3094
26447SOL    HW191065   0.831   3.875   1.997 -1.8053 -0.9910 -0.9347
26447SOL    HW291066   0.894   3.959   1.888 -2.0612  0.4492  0.0022
26448SOL     OW91067  10.551   5.619   5.738 -0.0169  0.0412  0.2985
26448SOL    HW191068  10.476   5.653   5.786  0.3506  0.4958  0.5699
26448SOL    HW291069  10.601   5.697   5.713  0.8097 -0.2817  0.8746
26449SOL     OW91070   8.904   3.306   5.311 -0.2267  0.0878 -0.2976
26449SOL    HW191071   8.968   3.374   5.294  0.4871 -0.7564 -1.1240
26449SOL    HW291072   8.880   3.273   5.225 -1.1568 -0.1734  0.0437
26450SOL     OW91073   1.737   4.956   3.190  0.0050  0.1665 -0.0192
26450SOL    HW191074   1.723   4.910   3.107  1.3929 -1.3865  0.5592
26450SOL    HW291075   1.798   5.026   3.168  0.4759 -0.3212 -0.2992
26451SOL     OW91076   8.734   6.162   9.894 -0.1630 -0.2194 -0.4914
26451SOL    HW191077   8.732   6.082   9.946  0.1321 -0.8239 -1.3764
26451SOL    HW291078   8.700   6.135   9.808  0.4802  0.4671 -0.9765
26452SOL     OW91079   7.131   3.173  10.308 -0.3262 -0.3515 -0.5349
26452SOL    HW191080   7.084   3.097  10.275 -1.6800  0.3743 -0.3766
26452SOL    HW291081   7.062   3.232  10.338  0.7559 -0.0136  1.4703
26453SOL     OW91082   7.426   6.931   8.116  1.2879  0.2758 -0.0942
26453SOL    HW191083   7.456   6.842   8.098 -1.2009 -1.3488  2.7145
26453SOL    HW291084   7.419   6.972   8.030  0.1985 -3.0908 -1.8153
26454SOL     OW91085   8.561   4.174   0.276  0.4128 -0.6627 -0.2702
26454SOL    HW191086   8.552   4.079   0.274  0.6207 -0.6736 -0.8850
26454SOL    HW291087   8.472   4.207   0.262  0.3634 -0.7661 -0.1987
26455SOL     OW91088   4.305   2.950   7.338  0.4096  0.2793  0.5919
26455SOL    HW191089   4.254   2.976   7.262  1.5507 -0.2882 -0.4141
26455SOL    HW291090   4.246   2.895   7.389  0.2271 -1.0145 -0.9413
26456SOL     OW91091   2.760   4.086   1.064  0.3562 -0.2528  0.2845
26456SOL    HW191092   2.673   4.066   1.031  0.5909 -0.0375 -0.4986
26456SOL    HW291093   2.746   4.117   1.153 -0.5815  1.7314 -0.5013
26457SOL     OW91094   1.308   4.550  11.069 -0.4663  0.4797 -0.2555
26457SOL    HW191095   1.333   4.496  10.994 -1.0307  0.3640 -0.3667
26457SOL    HW291096   1.358   4.631  11.058 -0.3207  0.3475 -0.5948
26458SOL     OW91097   8.669   5.651   5.906  0.1171 -0.4061 -0.1767
26458SOL    HW191098   8.579   5.678   5.917 -0.0217 -0.3017 -1.4486
26458SOL    HW291099   8.721   5.721   5.947 -0.3517 -0.3281  0.2988
26459SOL     OW91100   5.968  10.932   7.571 -0.3933 -0.1899  0.1061
26459SOL    HW191101   6.004  11.007   7.524 -2.2521  0.0569 -1.0050
26459SOL    HW291102   6.031  10.862   7.557 -0.3477  0.1958 -1.8331
26460SOL     OW91103   7.305   9.689   1.503  0.0259  0.6260 -0.0201
26460SOL    HW191104   7.375   9.717   1.563 -0.7433  0.6728  0.8866
26460SOL    HW291105   7.338   9.710   1.416  0.5659  1.9563  0.4767
26461SOL     OW91106   1.472   8.676   6.279  0.1280 -0.0809  0.5147
26461SOL    HW191107   1.425   8.625   6.345 -1.2879  0.6429  0.1043
26461SOL    HW291108   1.405   8.700   6.215  1.2482  0.2056 -0.5910
26462SOL     OW91109   3.098  10.755   4.462  0.0751  0.5359  0.1944
26462SOL    HW191110   3.092  10.826   4.526 -1.7920 -0.2669  1.0065
26462SOL    HW291111   3.128  10.797   4.382  2.2205  1.6417  1.4621
26463SOL     OW91112   9.245  10.094   6.525 -0.5628  0.6103 -0.1026
26463SOL    HW191113   9.221  10.128   6.438 -2.1257  0.5559  0.2837
26463SOL    HW291114   9.195  10.012   6.533 -0.1382  0.4240  0.6942
26464SOL     OW91115   4.799  11.566   8.637 -0.0077 -0.3812  0.0448
26464SOL    HW191116   4.848  11.484   8.628 -0.0324 -0.3191 -0.7201
26464SOL    HW291117   4.753  11.576   8.553 -1.8606 -0.7704  0.9542
26465SOL     OW91118  10.036  11.669  10.027  0.5194  0.1818  0.1540
26465SOL    HW191119  10.034  11.759   9.996 -0.5783 -0.8357 -3.1364
26465SOL    HW291120  10.106  11.628   9.975 -0.6890 -1.3998 -0.2828
26466SOL     OW91121   7.148   8.983   2.781  0.2365 -0.2011  0.0242
26466SOL    HW191122   7.193   9.067   2.789  1.2204 -0.6691 -0.4671
26466SOL    HW291123   7.081   8.998   2.715 -1.0139  0.7643  1.4297
26467SOL     OW91124   2.023   4.876   4.318  0.1860 -0.5625 -0.0198
26467SOL    HW191125   2.098   4.820   4.298 -0.3924 -1.4566  0.2672
26467SOL    HW291126   1.972   4.826   4.381  0.0845  0.6464  0.9035
26468SOL     OW91127   3.269   4.006   8.371 -0.2235 -0.0732 -0.6794
26468SOL    HW191128   3.209   4.017   8.445 -1.1855  1.9359 -1.6905
26468SOL    HW291129   3.297   3.914   8.377 -1.6164 -0.4485  1.1379
26469SOL     OW91130   6.852   5.849   4.078  0.8733 -0.0713  0.4696
26469SOL    HW191131   6.771   5.809   4.047  1.3358 -1.8084  1.3288
26469SOL    HW291132   6.897   5.877   3.998  0.8292 -1.9794 -0.2849
26470SOL     OW91133   3.757   8.527   0.469  0.4523 -0.0521  0.7116
26470SOL    HW191134   3.681   8.474   0.493  0.0911  0.7094  1.2920
26470SOL    HW291135   3.733   8.566   0.385  0.8798 -1.1003  0.0886
26471SOL     OW91136   4.093   5.294   2.040  0.2563 -0.3427  0.1890
26471SOL    HW191137   4.143   5.350   2.100 -0.2035  2.1825 -1.6020
26471SOL    HW291138   4.134   5.208   2.047  1.4281  0.3255  2.6340
26472SOL     OW91139   7.477   8.606   9.208 -0.2135  0.3883  0.6400
26472SOL    HW191140   7.411   8.595   9.139  1.2905 -0.3983 -0.7518
26472SOL    HW291141   7.470   8.526   9.260 -0.6615  0.5062  0.7585
26473SOL     OW91142   3.829   7.733  10.248  0.4976  0.1470 -0.1340
26473SOL    HW191143   3.863   7.696  10.167  1.2692 -0.5317  0.4894
26473SOL    HW291144   3.840   7.828  10.236 -1.3218  0.2399 -1.6523
26474SOL     OW91145   1.821   3.052   9.404  0.5067  0.0219  0.2307
26474SOL    HW191146   1.802   2.976   9.458  1.0796  0.2462  0.7594
26474SOL    HW291147   1.740   3.102   9.402 -0.5230 -1.5900 -1.7834
26475SOL     OW91148   5.405   1.430  10.603  0.3206 -0.0402  0.3489
26475SOL    HW191149   5.310   1.439  10.608  0.3644  0.4822  0.2798
26475SOL    HW291150   5.437   1.520  10.597  0.7694 -0.2456 -0.4705
26476SOL     OW91151   2.505   6.275   1.904 -0.3387 -0.1861 -0.5181
26476SOL    HW191152   2.533   6.203   1.961 -1.9144 -2.6557 -2.6229
26476SOL    HW291153   2.575   6.282   1.839  0.5501  1.3362  0.5354
26477SOL     OW91154  10.408   8.381   8.458  0.6405  0.1900  0.1934
26477SOL    HW191155  10.426   8.474   8.449  3.7338 -0.3182  0.0921
26477SOL    HW291156  10.359   8.358   8.379 -0.4958  1.7340  0.3985
26478SOL     OW91157   9.679   5.292   2.533 -0.0648  0.3896  0.2857
26478SOL    HW191158   9.592   5.253   2.522 -0.2197  0.2101  1.8685
26478SOL    HW291159   9.671   5.347   2.610  1.4726 -0.3911  1.0452
26479SOL     OW91160  11.112   6.075   7.395 -0.0247 -0.3579  0.1748
26479SOL    HW191161  11.195   6.121   7.389  0.7754 -1.8297 -0.5178
26479SOL    HW291162  11.076   6.102   7.480  0.7333  0.9575  0.1001
26480SOL     OW91163   1.046  11.241   3.780  0.3617  0.0896  0.0099
26480SOL    HW191164   1.106  11.300   3.825  0.8084 -0.6603  0.4115
26480SOL    HW291165   1.103  11.174   3.741  0.0408  0.8923 -1.9892
26481SOL     OW91166  10.884   0.349  10.615  0.2299  0.0943 -0.5578
26481SOL    HW191167  10.851   0.438  10.628 -2.0612 -0.7273 -0.3002
26481SOL    HW291168  10.896   0.315  10.704  0.0582 -0.2034 -0.6489
26482SOL     OW91169  10.525   2.525   6.354 -0.2019  0.3548 -0.1856
26482SOL    HW191170  10.517   2.584   6.429  2.7218 -0.7827  1.2065
26482SOL    HW291171  10.535   2.583   6.279 -0.4415  1.5771  0.6862
26483SOL     OW91172   7.032   5.447  11.020  0.0213 -0.0688 -0.0273
26483SOL    HW191173   7.091   5.398  11.077 -1.9361 -2.5366  0.0345
26483SOL    HW291174   7.050   5.412  10.932  1.5705  2.2370 -0.7085
26484SOL     OW91175   7.882   9.213   3.799  0.4507  0.4900 -0.2530
26484SOL    HW191176   7.830   9.287   3.769  0.1297 -0.0337 -1.0071
26484SOL    HW291177   7.965   9.221   3.752  0.7641  0.8821  0.3570
26485SOL     OW91178   3.989   9.650   6.219 -0.2035  0.5765  0.2913
26485SOL    HW191179   3.954   9.561   6.222  0.3357  0.2711 -1.4443
26485SOL    HW291180   4.070   9.644   6.270  0.1210 -0.0722 -0.2821
26486SOL     OW91181   3.465  11.354   0.272 -0.1354  0.1315 -0.2761
26486SOL    HW191182   3.477  11.264   0.240 -1.9410 -0.1330 -0.3108
26486SOL    HW291183   3.494  11.409   0.200  3.9529 -0.2798  0.8106
26487SOL     OW91184   8.527   6.650   1.131 -0.0943  0.0551 -0.3900
26487SOL    HW191185   8.445   6.608   1.103  0.3101 -0.9057 -0.1744
26487SOL    HW291186   8.512   6.743   1.116 -0.6229 -0.2448 -1.9237
26488SOL     OW91187   1.959  10.616   9.789  0.3236  0.4088  0.6364
26488SOL    HW191188   1.978  10.529   9.755 -1.1368 -0.0629  0.9424
26488SOL    HW291189   2.045  10.656   9.804  1.0193 -1.1300  0.8870
26489SOL     OW91190   5.643   9.981   8.575 -0.0468 -0.5064  0.2051
26489SOL    HW191191   5.564  10.035   8.573  0.8498  0.9312  1.4565
26489SOL    HW291192   5.675   9.983   8.485 -0.0976  0.9779  0.1955
26490SOL     OW91193   9.267   0.824   4.485  0.0981  0.5962  0.1362
26490SOL    HW191194   9.277   0.826   4.580 -1.0670 -0.4241  0.3129
26490SOL    HW291195   9.316   0.746   4.457  2.5391  2.2260 -0.4485
26491SOL     OW91196   1.374   3.056   2.748  0.2020 -0.1955  0.3539
26491SOL    HW191197   1.380   3.005   2.667 -1.0529 -0.5347  0.4600
26491SOL    HW291198   1.298   3.113   2.736  1.0196  0.9838  0.6260
26492SOL     OW91199   1.762   5.345   3.205 -0.3267 -0.1166 -0.4108
26492SOL    HW191200   1.781   5.279   3.271  0.0923 -0.3358 -0.7440
26492SOL    HW291201   1.760   5.428   3.254 -0.8145 -0.3652 -0.0033
26493SOL     OW91202   8.515   0.250   9.864  0.4773 -0.5064 -0.0945
26493SOL    HW191203   8.428   0.234   9.829  0.2329 -0.2684  0.3872
26493SOL    HW291204   8.562   0.167   9.851  0.1793 -0.6356 -0.3503
26494SOL     OW91205  10.105  11.935   4.154 -0.2136  0.2806 -0.2399
26494SOL    HW191206  10.131  11.943   4.063  0.8902  2.2969  0.2088
26494SOL    HW291207  10.185  11.912   4.201 -0.4793  0.6223  0.4012
26495SOL     OW91208   1.154   2.332   6.326 -0.3073  0.1213  0.0774
26495SOL    HW191209   1.122   2.257   6.275  0.0831  0.5139 -0.7501
26495SOL    HW291210   1.076   2.386   6.340 -0.2942  0.3298 -0.6534
26496SOL     OW91211   8.798   3.513   9.851 -0.2713 -0.0116 -0.1732
26496SOL    HW191212   8.794   3.458   9.773  0.7774 -0.1492 -0.1386
26496SOL    HW291213   8.728   3.577   9.839 -0.9533 -0.8203 -0.6187
26497SOL     OW91214   1.497   5.411  11.381 -0.0518 -0.6898 -0.0472
26497SOL    HW191215   1.522   5.490  11.429 -1.9494 -0.6059  0.8728
26497SOL    HW291216   1.437   5.365  11.439 -0.7220 -1.7007 -1.4828
26498SOL     OW91217   8.610   6.000   0.109 -0.0091  0.8022  0.4298
26498SOL    HW191218   8.680   6.018   0.172  0.8200 -2.0259  0.4722
26498SOL    HW291219   8.647   6.023   0.024  0.8094 -0.1614  0.5105
26499SOL     OW91220   2.690   9.844   9.245 -0.3694  0.2747  0.2274
26499SOL    HW191221   2.756   9.913   9.238 -0.3505  0.0960 -2.3901
26499SOL    HW291222   2.738   9.763   9.234 -0.8748  0.0882 -0.7194
26500SOL     OW91223   9.290   6.907   2.882  0.7767 -0.0808 -0.3820
26500SOL    HW191224   9.345   6.966   2.830  0.1877  1.6822  0.9293
26500SOL    HW291225   9.337   6.896   2.964 -0.7054  1.3373  0.7008
26501SOL     OW91226   7.700  11.039   5.021  0.4491  0.4415  0.2611
26501SOL    HW191227   7.651  11.119   5.004 -0.2505  0.3068  1.5432
26501SOL    HW291228   7.697  11.028   5.116 -0.5676 -1.7853  0.0351
26502SOL     OW91229   9.539   2.662   7.666  0.4340  0.3005 -0.4213
26502SOL    HW191230   9.457   2.613   7.678 -0.2014  1.3513 -0.3871
26502SOL    HW291231   9.596   2.629   7.736 -0.9787  1.6214  1.4742
26503SOL     OW91232  11.554   1.546  10.948  0.4122 -0.1512  0.6495
26503SOL    HW191233  11.587   1.595  10.873 -0.5002 -2.1127 -1.1408
26503SOL    HW291234  11.463   1.572  10.956  0.9416  1.3976  2.3038
26504SOL     OW91235   5.631   2.009   3.177  0.0495  0.0207 -0.0963
26504SOL    HW191236   5.720   2.038   3.160 -0.2056  0.9741  0.1286
26504SOL    HW291237   5.593   1.997   3.090  0.6371 -1.1953 -0.1995
26505SOL     OW91238   3.211   2.348   0.572 -0.0172 -0.3484  0.4748
26505SOL    HW191239   3.120   2.347   0.540  0.1112  1.1758 -0.0290
26505SOL    HW291240   3.261   2.307   0.502 -0.1522  0.0941  0.1096
26506SOL     OW91241   3.056   8.209   6.720  0.3453  0.4897  0.8744
26506SOL    HW191242   3.141   8.241   6.752  1.3147  1.0778 -1.9796
26506SOL    HW291243   3.068   8.114   6.714  0.2816  0.4134  1.8089
26507SOL     OW91244   3.890   3.984   2.124  0.1999  0.2009 -0.3836
26507SOL    HW191245   3.850   3.910   2.078 -2.3193 -0.0823  2.0337
26507SOL    HW291246   3.932   3.945   2.200  1.1684  1.0258 -0.4745
26508SOL     OW91247   8.957   5.755   5.793 -0.1106 -0.2449  0.1445
26508SOL    HW191248   9.032   5.754   5.733 -1.6016 -0.5943 -1.7823
26508SOL    HW291249   8.970   5.677   5.847  1.4412  0.2623  0.5792
26509SOL     OW91250   7.143   1.995   2.296  0.0203  0.1767 -0.0221
26509SOL    HW191251   7.234   2.016   2.273  0.3406  1.8285  2.4122
26509SOL    HW291252   7.150   1.920   2.355  0.0589  1.5209  1.7684
26510SOL     OW91253   1.623  11.718   2.553  0.1212  0.3074  0.0529
26510SOL    HW191254   1.712  11.735   2.521 -0.0699 -0.9989 -1.2733
26510SOL    HW291255   1.601  11.797   2.604  2.4200  0.2184  1.3565
26511SOL     OW91256   3.623   5.518  11.432  0.6856  0.2548 -0.4496
26511SOL    HW191257   3.656   5.602  11.463  0.4073  0.5420 -0.9166
26511SOL    HW291258   3.570   5.484  11.504  0.9791  0.3722 -0.1757
26512SOL     OW91259   1.898   1.589   2.859  0.2446 -0.0759 -0.2318
26512SOL    HW191260   1.955   1.569   2.934 -0.0302  0.5314  0.1461
26512SOL    HW291261   1.848   1.666   2.887 -3.7045 -2.8326  1.0821
26513SOL     OW91262   8.270   1.258   4.415  0.9773  0.7057 -0.4399
26513SOL    HW191263   8.219   1.315   4.473  0.4368  1.1937 -1.3621
26513SOL    HW291264   8.324   1.206   4.474 -0.2981  0.4516  0.5571
26514SOL     OW91265   4.744   6.040   0.285  0.2603 -0.6037 -0.0413
26514SOL    HW191266   4.694   5.997   0.215  0.6989 -0.2963 -0.5570
26514SOL    HW291267   4.685   6.042   0.360  0.6897 -3.4044  0.4822
26515SOL     OW91268   6.229   5.436   4.074 -0.0229  0.1776 -0.3485
26515SOL    HW191269   6.274   5.354   4.052  0.8852  0.8591 -1.0920
26515SOL    HW291270   6.299   5.499   4.090 -0.6960  1.1861 -1.2304
26516SOL     OW91271   3.387   8.190  10.842 -0.6235  0.7095 -0.5259
26516SOL    HW191272   3.370   8.101  10.810  1.1379  0.5615 -1.1770
26516SOL    HW291273   3.382   8.182  10.937 -2.5408  0.4033 -0.6152
26517SOL     OW91274   9.594   4.405   6.987  0.0174 -0.2234 -0.1168
26517SOL    HW191275   9.639   4.409   6.903 -0.4528  0.9827 -0.3296
26517SOL    HW291276   9.535   4.480   6.987  2.2401  1.7712  2.5221
26518SOL     OW91277   4.108  10.222   0.113  0.0068 -0.0864 -0.2652
26518SOL    HW191278   4.028  10.227   0.165  0.1279 -1.5116  0.1047
26518SOL    HW291279   4.178  10.214   0.178  0.4764  1.1753 -0.5814
26519SOL     OW91280   7.160   5.774  11.074  0.4500  0.3493  0.3039
26519SOL    HW191281   7.202   5.719  11.140 -1.0968 -0.0821  0.9750
26519SOL    HW291282   7.122   5.846  11.123 -0.0155  0.4615 -0.2117
26520SOL     OW91283   5.105   5.085  11.059 -0.1112  0.0961 -0.2724
26520SOL    HW191284   5.142   5.153  11.115 -1.1903  0.3190  0.1928
26520SOL    HW291285   5.177   5.024  11.045  0.5782  0.7887  0.1669
26521SOL     OW91286   5.448  10.912  11.904  0.4730 -0.2941  0.5819
26521SOL    HW191287   5.394  10.836  11.926  0.6293 -0.5022  0.2409
26521SOL    HW291288   5.537  10.886  11.927  0.3143  0.4529  2.2304
26522SOL     OW91289   5.669   0.562   5.223 -0.8718 -0.6614  0.3185
26522SOL    HW191290   5.664   0.472   5.256 -0.3167 -0.4415  1.0292
26522SOL    HW291291   5.630   0.615   5.293  0.3764 -0.1785  0.6711
26523SOL     OW91292   8.372   9.417   1.161 -0.1909  0.1102 -0.1876
26523SOL    HW191293   8.361   9.507   1.192 -0.4479  0.3390 -0.9317
26523SOL    HW291294   8.466   9.400   1.170 -0.3200  0.0053  1.1466
26524SOL     OW91295   4.511   9.139   6.687 -0.4465 -0.3694 -0.0451
26524SOL    HW191296   4.586   9.081   6.688  0.2839  0.5610  1.0119
26524SOL    HW291297   4.439   9.087   6.722  0.5185 -0.2829  2.2596
26525SOL     OW91298   9.954   3.837   5.628  0.2165  0.0628 -0.6604
26525SOL    HW191299   9.923   3.919   5.665 -0.2881 -0.5146  0.2497
26525SOL    HW291300   9.991   3.861   5.543  0.8554  1.3434 -0.0419
26526SOL     OW91301  10.401   2.252   9.196  0.1183 -0.1856 -0.2741
26526SOL    HW191302  10.465   2.218   9.258  0.2501 -0.3692 -0.5094
26526SOL    HW291303  10.445   2.325   9.153 -0.6726  1.3077  1.2950
26527SOL     OW91304   1.802   5.310  11.670  0.3698  0.3254  0.4468
26527SOL    HW191305   1.758   5.279  11.591  0.7633 -0.1434  0.4102
26527SOL    HW291306   1.741   5.374  11.707 -0.6811 -0.8022  0.7684
26528SOL     OW91307   3.835   4.733   4.457  0.3799  0.3193  0.1053
26528SOL    HW191308   3.904   4.670   4.438 -0.1571  0.3277 -2.1881
26528SOL    HW291309   3.880   4.817   4.464  0.7423  0.1382 -0.0587
26529SOL     OW91310   3.008   2.352  10.494  0.1406  0.7114 -0.2169
26529SOL    HW191311   3.041   2.407  10.422  1.6116 -0.2245 -0.3004
26529SOL    HW291312   3.026   2.263  10.466 -1.7489  0.1817  0.1535
26530SOL     OW91313   6.217   6.625   5.618 -0.1226  0.2803  0.1517
26530SOL    HW191314   6.217   6.705   5.566 -3.3287  0.7975  0.7298
26530SOL    HW291315   6.137   6.631   5.671  0.8819 -2.1132  2.1433
26531SOL     OW91316   2.431   1.650   1.018  0.1345  0.0563 -0.8423
26531SOL    HW191317   2.443   1.743   1.034 -3.1965  0.5708 -0.5852
26531SOL    HW291318   2.458   1.608   1.100 -1.5601  1.1824  0.3743
26532SOL     OW91319   0.020   3.584   4.889  0.5461 -0.4661  0.0393
26532SOL    HW191320   0.032   3.525   4.963  0.9422  0.0584  0.3991
26532SOL    HW291321  -0.034   3.655   4.923 -0.1167 -0.7248 -0.4538
26533SOL     OW91322   1.538   7.507   5.856  0.2101 -0.0396  0.3452
26533SOL    HW191323   1.487   7.507   5.937  0.8149  1.5409  0.7745
26533SOL    HW291324   1.629   7.513   5.885  0.3613  2.4735 -0.3771
26534SOL     OW91325  11.541   2.613   2.829 -0.0831 -0.3957  0.4026
26534SOL    HW191326  11.461   2.564   2.813  0.2032 -0.1994 -2.1177
26534SOL    HW291327  11.534   2.643   2.919 -3.0079 -0.0780  0.1538
26535SOL     OW91328   6.157   1.428   9.123 -0.1848 -0.2409  0.2040
26535SOL    HW191329   6.194   1.368   9.187  0.9012  0.5248  0.3084
26535SOL    HW291330   6.147   1.511   9.170 -3.2438 -0.6939  0.5650
26536SOL     OW91331   2.891   7.642   7.756  0.0678  0.0622  0.2560
26536SOL    HW191332   2.963   7.579   7.751  1.1445  1.2220  0.6657
26536SOL    HW291333   2.814   7.589   7.777  1.2499 -0.9479  2.3180
26537SOL     OW91334   3.109   7.044   3.359 -0.2973 -1.1514  0.0473
26537SOL    HW191335   3.125   6.996   3.440  1.1724 -2.0716 -0.7420
26537SOL    HW291336   3.123   6.979   3.290  1.9767  0.3839 -1.0657
26538SOL     OW91337   2.757   3.471   5.936 -0.3062  0.4437  0.4300
26538SOL    HW191338   2.758   3.564   5.957  0.4878  0.5995 -0.2623
26538SOL    HW291339   2.674   3.439   5.970 -0.2574  1.2528  1.3264
26539SOL     OW91340  11.142   5.858   4.255  0.3551 -0.1754 -0.2047
26539SOL    HW191341  11.069   5.802   4.227 -1.1781  1.9353 -0.7265
26539SOL    HW291342  11.141   5.852   4.350 -0.5637 -0.1723 -0.1991
26540SOL     OW91343   6.880   2.707   2.512 -1.0136  0.3815 -0.6752
26540SOL    HW191344   6.882   2.664   2.597  0.0126 -0.8432 -1.2796
26540SOL    HW291345   6.869   2.635   2.449 -1.1108  1.1923 -1.6086
26541SOL     OW91346   6.846   3.411   4.072 -0.1938  0.0098 -0.5705
26541SOL    HW191347   6.876   3.321   4.086 -0.0789 -0.1147 -1.5561
26541SOL    HW291348   6.793   3.407   3.993 -0.7221  0.7046 -0.2698
26542SOL     OW91349   5.465   9.688   4.202 -0.0683 -0.4581 -0.4679
26542SOL    HW191350   5.509   9.764   4.240 -1.5131  0.8308 -1.2911
26542SOL    HW291351   5.430   9.719   4.119 -2.1633 -1.5117 -0.0533
26543SOL     OW91352   8.416  10.364   9.514 -0.2215  0.1278  0.0638
26543SOL    HW191353   8.387  10.448   9.549  0.0612  0.4917 -0.5460
26543SOL    HW291354   8.341  10.332   9.464  0.1288  0.7019 -0.8715
26544SOL     OW91355  10.904   4.274   6.591 -0.6052  0.9480 -0.1901
26544SOL    HW191356  10.923   4.197   6.645  0.8383  1.1980 -0.2787
26544SOL    HW291357  10.991   4.304   6.562 -1.1643  2.4072 -0.4284
26545SOL     OW91358   5.548   2.350  10.402 -0.1063  0.3872 -0.3868
26545SOL    HW191359   5.633   2.351  10.447  0.1704 -1.2741 -0.8069
26545SOL    HW291360   5.521   2.258  10.404 -1.4828  0.7535 -1.0409
26546SOL     OW91361   3.704   5.925  11.669  0.4422 -0.2498 -0.1828
26546SOL    HW191362   3.675   5.906  11.580  0.4983  0.0308 -0.2635
26546SOL    HW291363   3.632   5.896  11.725  0.7587 -1.2054 -0.2579
26547SOL     OW91364   4.459   6.859   9.840 -0.0414  0.0607  0.2975
26547SOL    HW191365   4.444   6.943   9.796 -1.4445 -0.4489 -0.2522
26547SOL    HW291366   4.448   6.879   9.933  0.3112  0.6178  0.2250
26548SOL     OW91367   3.782   0.740   2.170 -0.3755  0.0666 -0.5397
26548SOL    HW191368   3.815   0.829   2.158  2.1627 -0.6287  0.6742
26548SOL    HW291369   3.775   0.704   2.082  0.1993  0.9176 -0.9413
26549SOL     OW91370   3.929   0.011   3.974 -0.4687  0.1601  0.5031
26549SOL    HW191371   3.995   0.031   4.040  0.2943 -1.1695  0.1738
26549SOL    HW291372   3.846   0.038   4.014  0.2753  2.4476  0.6736
26550SOL     OW91373   5.476   3.952   4.143 -0.1767 -0.1383 -0.7503
26550SOL    HW191374   5.490   3.950   4.048  1.6749  0.2912 -0.5250
26550SOL    HW291375   5.452   3.862   4.165  0.4978 -0.5153 -1.4831
26551SOL     OW91376   7.294   9.266  11.556  0.0091  0.2799 -0.0440
26551SOL    HW191377   7.348   9.187  11.551 -1.9132 -1.1801  0.8090
26551SOL    HW291378   7.269   9.273  11.648 -0.9712  1.0919 -0.3513
26552SOL     OW91379   1.130   2.704   3.056  0.5723 -0.0648 -0.0601
26552SOL    HW191380   1.080   2.786   3.061 -0.6089 -0.8388  1.9179
26552SOL    HW291381   1.183   2.704   3.135  0.9822 -0.9596 -0.3277
26553SOL     OW91382   9.999   9.206   7.374  0.8439  0.0994 -0.1112
26553SOL    HW191383   9.948   9.210   7.455  0.6128  1.9430 -0.3103
26553SOL    HW291384  10.078   9.258   7.393  0.7956  0.5413 -1.0592
26554SOL     OW91385   6.356   2.856   1.935 -0.3398  0.1436 -0.6505
26554SOL    HW191386   6.438   2.817   1.966 -0.6437  0.6431  0.8251
26554SOL    HW291387   6.375   2.950   1.929 -0.9909  0.3547  0.3815
26555SOL     OW91388   9.870   8.788   5.336 -0.0658 -0.2049  0.0059
26555SOL    HW191389   9.857   8.746   5.421  3.2793 -0.2852  0.5991
26555SOL    HW291390   9.962   8.815   5.336  0.6400 -1.8555 -4.2950
26556SOL     OW91391   8.737  10.224   7.421  0.2584  0.1156  0.1192
26556SOL    HW191392   8.806  10.158   7.415  0.1576 -0.1356  1.3551
26556SOL    HW291393   8.656  10.176   7.403  0.2189 -0.0366  0.6822
26557SOL     OW91394   8.424   8.677   0.354 -0.2667 -0.8451 -0.2079
26557SOL    HW191395   8.340   8.669   0.399 -1.1871  0.0488 -1.6780
26557SOL    HW291396   8.468   8.750   0.398 -0.4754 -0.9878  0.2425
26558SOL     OW91397   1.842  11.043   9.217  0.1289 -0.6025 -0.0045
26558SOL    HW191398   1.841  11.073   9.308 -1.0403 -0.1107 -0.1712
26558SOL    HW291399   1.857  10.948   9.224 -0.4451 -0.6511  0.7231
26559SOL     OW91400   7.846   8.342   9.137  0.2243  0.2025 -0.4115
26559SOL    HW191401   7.760   8.386   9.136  0.3634  0.4830 -0.3089
26559SOL    HW291402   7.853   8.306   9.225 -0.8028 -1.8765 -1.1292
26560SOL     OW91403   6.276   8.376   2.154  0.5321 -0.6987  0.4061
26560SOL    HW191404   6.297   8.458   2.200 -0.0087 -0.4650  0.2453
26560SOL    HW291405   6.220   8.328   2.215  1.2964 -1.2030  0.7270
26561SOL     OW91406  11.914   0.900   3.779 -0.3592 -0.2918 -0.5338
26561SOL    HW191407  11.926   0.883   3.872  3.2302  0.7006 -0.6648
26561SOL    HW291408  11.869   0.985   3.776 -0.7311 -0.4500  0.2753
26562SOL     OW91409   4.363   7.135   5.996  0.1053 -0.2174  0.3110
26562SOL    HW191410   4.427   7.189   6.042 -0.4055  1.0359 -0.3973
26562SOL    HW291411   4.279   7.157   6.037 -0.2182  0.1631 -0.5471
26563SOL     OW91412   7.739   6.080   1.296 -0.0521 -0.6409  0.2445
26563SOL    HW191413   7.693   5.997   1.282  1.3903 -1.3553 -0.4274
26563SOL    HW291414   7.743   6.090   1.391 -1.5509 -0.5597  0.3294
26564SOL     OW91415   8.302   6.482   9.389  0.6436  0.3522 -0.2502
26564SOL    HW191416   8.308   6.423   9.314  0.1507 -0.4128  0.3004
26564SOL    HW291417   8.208   6.488   9.407  0.8062 -0.0069  0.7248
26565SOL     OW91418   2.866   0.578   2.651 -0.1889 -0.1919 -0.5351
26565SOL    HW191419   2.955   0.547   2.633 -0.4983 -3.4152  2.4473
26565SOL    HW291420   2.878   0.660   2.699  1.1458 -0.3267 -0.5844
26566SOL     OW91421   3.186   8.270   1.501  0.2676 -0.5716  0.4093
26566SOL    HW191422   3.104   8.234   1.535  1.1852 -2.0192  1.1955
26566SOL    HW291423   3.172   8.364   1.500 -0.7146 -0.6361  2.4691
26567SOL     OW91424  11.654   5.919  11.118 -0.4686 -0.2535 -0.5089
26567SOL    HW191425  11.700   5.995  11.083  0.2038 -0.3657  0.1075
26567SOL    HW291426  11.571   5.954  11.151  0.4216  0.4854  1.0628
26568SOL     OW91427   5.093   2.633   6.504 -0.5931  0.8769 -0.0251
26568SOL    HW191428   5.105   2.641   6.409 -1.4274 -0.5351 -0.2767
26568SOL    HW291429   5.180   2.612   6.537 -0.4526  0.5483 -0.5857
26569SOL     OW91430   6.308   5.242   0.304  0.0498 -0.3779  0.5653
26569SOL    HW191431   6.343   5.248   0.393  0.3256 -1.1758  0.5226
26569SOL    HW291432   6.252   5.318   0.294  1.9844  1.1114  0.5577
26570SOL     OW91433   7.391   3.088   2.150 -0.1790 -0.0404 -0.7360
26570SOL    HW191434   7.412   3.121   2.238  0.0659  0.6869 -1.0565
26570SOL    HW291435   7.388   2.993   2.160 -1.4203  0.0887  0.3319
26571SOL     OW91436   1.165   0.579   5.332  0.8052  0.0378 -0.1123
26571SOL    HW191437   1.150   0.644   5.400  3.2945  0.6605 -0.0656
26571SOL    HW291438   1.081   0.534   5.323 -0.2454  1.4947  1.6942
26572SOL     OW91439   6.343   8.154   3.982  0.5598  0.8645 -0.3557
26572SOL    HW191440   6.436   8.137   3.963  0.4852  1.1116 -0.9448
26572SOL    HW291441   6.299   8.143   3.898 -0.0136  0.2933  0.0144
26573SOL     OW91442   1.243   2.159   2.128 -0.8045 -0.1476  0.1246
26573SOL    HW191443   1.268   2.078   2.171 -0.1096 -0.3727 -0.6759
26573SOL    HW291444   1.181   2.133   2.061  0.9470 -0.3233 -1.4951
26574SOL     OW91445   3.598   4.900   6.411 -0.0555  0.6050 -0.0200
26574SOL    HW191446   3.621   4.812   6.381  1.5635  1.1163 -0.3800
26574SOL    HW291447   3.586   4.890   6.506  0.1791  0.0060 -0.0447
26575SOL     OW91448  11.308  10.263   7.623 -0.5376 -0.4358 -0.3038
26575SOL    HW191449  11.288  10.190   7.565 -0.6519 -0.2550 -0.4936
26575SOL    HW291450  11.252  10.334   7.592 -0.6555 -0.3613  0.0768
26576SOL     OW91451   3.976   9.736   1.436 -0.5793 -0.0317 -0.5177
26576SOL    HW191452   4.008   9.744   1.346 -0.2276 -0.2642 -0.4130
26576SOL    HW291453   3.998   9.819   1.477  1.0584 -0.6494 -0.0743
26577SOL     OW91454   6.429  11.635  10.072  0.5056 -0.3766  0.9512
26577SOL    HW191455   6.434  11.540  10.068 -0.7899 -0.4354 -0.0114
26577SOL    HW291456   6.467  11.665   9.989  1.2419 -0.0254  1.4042
26578SOL     OW91457   3.285   3.960   6.696 -0.2773 -0.0554 -0.1242
26578SOL    HW191458   3.298   4.008   6.614  1.9501  0.1233  0.2789
26578SOL    HW291459   3.308   4.022   6.765  0.7531 -1.0806  0.4963
26579SOL     OW91460   4.637   6.598   4.506  0.4540  0.0766 -0.1636
26579SOL    HW191461   4.542   6.595   4.519  0.4922  0.2066  0.1532
26579SOL    HW291462   4.649   6.586   4.412  0.1513 -0.5171 -0.1318
26580SOL     OW91463  10.785   4.814   5.883  0.8331  0.6800 -0.7464
26580SOL    HW191464  10.820   4.764   5.956 -1.0467  0.5439  0.1175
26580SOL    HW291465  10.833   4.897   5.886  1.2382  0.4244  0.2421
26581SOL     OW91466  11.231   3.223   2.717 -0.6253 -0.6691  0.0706
26581SOL    HW191467  11.266   3.139   2.748 -1.3073 -0.7507  0.6451
26581SOL    HW291468  11.281   3.242   2.638  1.2899 -0.3778  1.3008
26582SOL     OW91469  10.114   3.880   8.221  0.4889  0.1306  0.5246
26582SOL    HW191470  10.189   3.903   8.277 -0.3341  2.0592  0.8885
26582SOL    HW291471  10.116   3.945   8.151  1.7526 -2.4664 -2.0773
26583SOL     OW91472   2.051   6.487  10.524  0.0655 -0.3377  0.1766
26583SOL    HW191473   2.146   6.488  10.513  0.2171  0.0883  1.3327
26583SOL    HW291474   2.021   6.566  10.478  0.3076 -0.3178  0.0508
26584SOL     OW91475   5.272   3.903   6.825  0.4105  0.0146 -0.1513
26584SOL    HW191476   5.258   3.996   6.844  0.7726  0.2942 -1.1476
26584SOL    HW291477   5.354   3.881   6.870  1.5279  0.7927 -1.7199
26585SOL     OW91478   9.351   6.039   8.906 -0.1351  0.6245 -0.1417
26585SOL    HW191479   9.364   6.067   8.997  0.3502  0.4336 -0.1473
26585SOL    HW291480   9.368   5.945   8.907 -0.8227  0.4887 -0.3023
26586SOL     OW91481   1.911   7.123   1.376  0.1015  0.0658 -0.0297
26586SOL    HW191482   1.817   7.130   1.392  0.0267  0.8230 -0.7080
26586SOL    HW291483   1.951   7.136   1.462 -0.3294  2.3703 -0.1061
26587SOL     OW91484   5.968   2.966   3.511  0.2570 -0.0293  1.3016
26587SOL    HW191485   5.885   2.930   3.542 -1.3658  1.6949 -0.7384
26587SOL    HW291486   5.994   3.027   3.580 -1.6145  1.3688  0.8545
26588SOL     OW91487   0.536   4.565   7.883 -0.1439  0.3282 -0.2408
26588SOL    HW191488   0.475   4.494   7.902  0.7827 -0.0912  1.3662
26588SOL    HW291489   0.523   4.628   7.954  1.9199 -0.2220  0.6898
26589SOL     OW91490   7.285   6.832  11.464 -0.1459 -0.0537 -0.5541
26589SOL    HW191491   7.240   6.914  11.482  0.6641  0.4853 -0.9218
26589SOL    HW291492   7.214   6.770  11.444 -1.2803 -0.9982  4.9374
26590SOL     OW91493  11.247   6.262   9.355  0.0679  0.2069 -0.3435
26590SOL    HW191494  11.336   6.298   9.362  0.6024 -1.3305  1.7459
26590SOL    HW291495  11.252   6.199   9.283  0.9415 -0.4906  0.3029
26591SOL     OW91496   1.227   4.514   1.807  0.4809 -0.4300  0.0954
26591SOL    HW191497   1.169   4.451   1.850  1.6730 -0.6004  1.5222
26591SOL    HW291498   1.291   4.459   1.762  0.4673 -0.2392 -0.1560
26592SOL     OW91499   9.353  10.329   7.667 -0.3953 -0.2889 -0.0244
26592SOL    HW191500   9.391  10.382   7.737  0.7662 -2.1154  0.8111
26592SOL    HW291501   9.362  10.383   7.588  1.4029  0.4653  0.6510
26593SOL     OW91502   8.798  11.719   2.964  0.5950  0.5274  0.1421
26593SOL    HW191503   8.820  11.637   3.008 -0.6204 -0.0182 -0.2197
26593SOL    HW291504   8.706  11.734   2.986  0.0163  0.3665 -1.9557
26594SOL     OW91505   8.976   2.073   0.063 -0.0403  0.5716 -0.9622
26594SOL    HW191506   8.919   2.015   0.012  2.8179 -0.6956 -2.9732
26594SOL    HW291507   8.992   2.147   0.005 -2.3442  2.8042  0.9736
26595SOL     OW91508   3.580   8.464   2.875 -0.1140  0.3603  0.6195
26595SOL    HW191509   3.656   8.466   2.934  0.7466  1.5413 -0.4801
26595SOL    HW291510   3.533   8.384   2.899  2.4919 -1.4710  0.0742
26596SOL     OW91511   9.133   9.860  10.946  0.5757  0.0409 -0.5302
26596SOL    HW191512   9.081   9.940  10.941  0.9871  0.2777 -1.0606
26596SOL    HW291513   9.219   9.888  10.977  0.4836 -0.3084  0.0573
26597SOL     OW91514   7.188   0.199   5.784  0.0426  0.1911 -0.1872
26597SOL    HW191515   7.180   0.121   5.839  1.4841  0.6533  0.7464
26597SOL    HW291516   7.133   0.265   5.827  0.4265  0.2728  0.1898
26598SOL     OW91517  11.339  11.253   1.816 -0.3730 -0.1915 -0.4987
26598SOL    HW191518  11.307  11.201   1.742 -0.3676 -0.0712 -0.5863
26598SOL    HW291519  11.408  11.199   1.855  2.4745  1.3455 -2.9654
26599SOL     OW91520   9.213   2.724   7.014 -0.1032  0.2176  0.5861
26599SOL    HW191521   9.134   2.681   7.047  0.0406 -0.1137  0.4980
26599SOL    HW291522   9.197   2.735   6.921  0.8515 -1.8549  0.1218
26600SOL     OW91523  11.632   4.860   4.658  0.6977 -0.7243  0.0065
26600SOL    HW191524  11.553   4.807   4.662 -1.5991  2.4766  0.7627
26600SOL    HW291525  11.668   4.857   4.746  0.1449 -0.4403  0.2442
26601SOL     OW91526   3.256   0.817   7.751 -0.3580  0.1304 -0.3403
26601SOL    HW191527   3.331   0.871   7.776  0.0503 -0.2146 -0.8147
26601SOL    HW291528   3.217   0.863   7.677  1.1475 -1.2041 -2.0325
26602SOL     OW91529   8.337   7.699   9.163 -0.2760  0.3431  0.3790
26602SOL    HW191530   8.323   7.657   9.078  1.6872 -1.4293  0.8473
26602SOL    HW291531   8.430   7.718   9.166 -0.4177  0.9366  1.9099
26603SOL     OW91532   7.984   9.937   8.416  0.2235  0.6036  0.0009
26603SOL    HW191533   8.050   9.998   8.448 -1.3691  1.4114  2.0340
26603SOL    HW291534   7.914   9.994   8.382 -0.9742 -0.0364  1.2706
26604SOL     OW91535   8.505   5.393   3.331  0.5815  0.3672  0.3882
26604SOL    HW191536   8.496   5.327   3.400  1.3348 -0.9280 -0.6783
26604SOL    HW291537   8.416   5.417   3.308  0.1794 -1.5982 -0.3500
26605SOL     OW91538   3.000   3.924   9.514  0.7830  0.3619 -0.5117
26605SOL    HW191539   3.076   3.907   9.458  0.5496 -1.2239 -0.3862
26605SOL    HW291540   2.984   4.018   9.504  0.0847  0.0024 -3.9556
26606SOL     OW91541   7.533   1.147   7.347  0.1871 -0.0871 -0.1866
26606SOL    HW191542   7.518   1.238   7.371  0.5842 -0.3565  1.1421
26606SOL    HW291543   7.622   1.146   7.311 -0.1780  0.2044 -1.1339
26607SOL     OW91544   6.669   7.466   9.478  0.0436  0.0523  0.1259
26607SOL    HW191545   6.605   7.516   9.528  0.6962  0.8816  0.1524
26607SOL    HW291546   6.747   7.465   9.534 -0.4133 -2.3507  0.8413
26608SOL     OW91547  10.216  10.708   6.199  0.5810  0.0246  0.2973
26608SOL    HW191548  10.246  10.715   6.108 -1.6072 -0.8955 -0.5538
26608SOL    HW291549  10.276  10.764   6.248  1.9992  0.3312 -1.6530
26609SOL     OW91550   7.074   6.354   5.525  0.0075 -0.4240 -0.8225
26609SOL    HW191551   7.038   6.373   5.612 -0.5174 -2.0225 -0.6550
26609SOL    HW291552   7.020   6.406   5.465 -0.7846 -0.6530 -0.3250
26610SOL     OW91553  10.492  11.712   7.507  0.4705  0.3120 -0.2183
26610SOL    HW191554  10.475  11.724   7.413  0.4640  1.8322 -0.0486
26610SOL    HW291555  10.440  11.635   7.531  0.9957 -0.5127 -1.5905
26611SOL     OW91556   1.305   1.765   1.515  0.1191  0.1792  0.4261
26611SOL    HW191557   1.350   1.776   1.431 -0.7199 -2.0780 -0.3803
26611SOL    HW291558   1.374   1.778   1.581  0.9271  1.3140 -0.6068
26612SOL     OW91559   8.030   4.147   0.537  0.3503  0.0452 -0.3334
26612SOL    HW191560   7.952   4.133   0.590  0.8936 -0.1780  0.4374
26612SOL    HW291561   8.100   4.106   0.588  0.7639 -0.9228 -1.6195
26613SOL     OW91562   2.450  11.532   2.648  0.1792 -0.1398  0.0466
26613SOL    HW191563   2.490  11.617   2.665 -1.2382  0.4427  0.6082
26613SOL    HW291564   2.401  11.512   2.728 -1.2897 -0.4380 -0.9031
26614SOL     OW91565   5.735   6.336   3.715  0.5538 -0.3882  0.0701
26614SOL    HW191566   5.799   6.383   3.769  0.7904  0.7392 -1.1231
26614SOL    HW291567   5.753   6.366   3.626 -0.8967 -0.9317 -0.4370
26615SOL     OW91568   3.423   6.830   3.260 -0.2219 -1.0154 -0.0912
26615SOL    HW191569   3.443   6.854   3.351 -0.8518  1.7080 -0.5867
26615SOL    HW291570   3.507   6.840   3.215 -0.5411  0.7974 -0.3544
26616SOL     OW91571   2.437  10.978   3.131  0.0969 -0.1289  0.5897
26616SOL    HW191572   2.470  10.889   3.126 -1.4708 -0.7706  1.0624
26616SOL    HW291573   2.512  11.030   3.159  1.6360 -0.9043 -1.7768
26617SOL     OW91574   5.018  11.116  11.120 -0.4623  0.1568 -0.7029
26617SOL    HW191575   5.100  11.121  11.071 -0.5308  0.8495 -0.7580
26617SOL    HW291576   5.041  11.066  11.198 -0.1182 -0.1255 -0.9822
26618SOL     OW91577  11.053   7.980  10.918 -0.3938  0.0779 -0.5605
26618SOL    HW191578  11.054   7.980  11.014 -0.9252 -1.4245 -0.5137
26618SOL    HW291579  11.121   7.917  10.894 -0.6868 -0.0228 -1.1474
26619SOL     OW91580   0.391   2.288   1.242 -0.3644 -0.7335  0.0633
26619SOL    HW191581   0.406   2.198   1.212 -1.6513 -0.4486 -1.5912
26619SOL    HW291582   0.331   2.325   1.177  0.4235  1.4447  0.4942
26620SOL     OW91583   1.056   7.367   8.347  0.6416  0.7511 -0.3471
26620SOL    HW191584   1.068   7.311   8.424 -0.3492 -0.4267 -1.0149
26620SOL    HW291585   1.050   7.455   8.382 -0.2692  0.1951  0.9788
26621SOL     OW91586   3.960   4.664   0.969 -0.4194 -0.3979 -0.0094
26621SOL    HW191587   3.921   4.578   0.983  0.3996 -0.6036  1.1724
26621SOL    HW291588   3.960   4.705   1.055 -2.2602  1.4688 -0.8150
26622SOL     OW91589   2.400  11.510   3.342  0.1909  0.2876 -0.2095
26622SOL    HW191590   2.430  11.425   3.374  0.0590 -0.2996 -1.5543
26622SOL    HW291591   2.477  11.548   3.300  0.9731  2.0177  2.5835
26623SOL     OW91592   4.149   4.639   7.341  0.3583  0.2877  0.4050
26623SOL    HW191593   4.191   4.659   7.257  2.4399  1.4456  1.6396
26623SOL    HW291594   4.166   4.546   7.355 -0.3855 -0.0223 -0.6211
26624SOL     OW91595   4.454  11.735   4.775  0.0227 -0.1548  0.0386
26624SOL    HW191596   4.428  11.665   4.834 -3.2081  2.8091  2.5566
26624SOL    HW291597   4.493  11.801   4.832  0.1524  1.3459 -1.7045
26625SOL     OW91598   3.113  11.551  11.808 -0.1461 -0.5725  0.1326
26625SOL    HW191599   3.177  11.506  11.753  0.5738  0.0206  0.4714
26625SOL    HW291600   3.051  11.590  11.746 -0.2600 -1.2637 -0.1916
26626SOL     OW91601   2.109   2.412   7.669 -0.5970  0.2483 -0.4582
26626SOL    HW191602   2.045   2.359   7.621 -1.6458  2.0254 -1.1268
26626SOL    HW291603   2.126   2.487   7.612  2.1044 -0.1237 -0.2734
26627SOL     OW91604   6.796   0.236  10.416 -0.6833 -0.2619  0.1055
26627SOL    HW191605   6.743   0.182  10.475 -1.4494 -1.5936 -1.6979
26627SOL    HW291606   6.805   0.183  10.337  1.6580  0.7879 -0.4223
26628SOL     OW91607   2.045   8.240   9.318 -0.2294 -0.5912  0.4118
26628SOL    HW191608   1.980   8.252   9.249  0.5763  1.4311 -0.0608
26628SOL    HW291609   2.025   8.306   9.383  0.3155 -1.0827  1.1012
26629SOL     OW91610   3.144  10.632   6.176  0.2099 -0.0520 -0.1225
26629SOL    HW191611   3.158  10.637   6.270  1.6291  1.7919 -0.3809
26629SOL    HW291612   3.053  10.660   6.163  0.2175  0.3328  0.6452
26630SOL     OW91613   6.623  11.818   8.027 -0.3958  0.7546  0.4197
26630SOL    HW191614   6.694  11.757   8.007 -0.5518  1.0363 -1.1120
26630SOL    HW291615   6.608  11.807   8.121 -1.1256 -2.3526  0.0372
26631SOL     OW91616   3.513   2.743   4.939  0.1426  0.2622 -0.0966
26631SOL    HW191617   3.418   2.741   4.924 -0.1693  0.5158  1.6562
26631SOL    HW291618   3.544   2.810   4.878 -0.6507 -0.4789 -1.3698
26632SOL     OW91619   5.802  10.837   1.902  0.4573 -0.0982  0.1062
26632SOL    HW191620   5.795  10.932   1.896 -0.3366 -0.1558 -0.1119
26632SOL    HW291621   5.873  10.821   1.964 -0.0989  0.6471  0.9664
26633SOL     OW91622   6.919   8.258   2.594 -0.2060 -0.4231 -0.4890
26633SOL    HW191623   6.914   8.296   2.682  0.7480  2.5586 -1.5771
26633SOL    HW291624   7.010   8.230   2.585  0.6366  2.2976 -1.5117
26634SOL     OW91625   4.708   1.586   8.210  1.0256  0.4749 -0.0690
26634SOL    HW191626   4.796   1.622   8.200  1.1784 -0.2698 -1.7521
26634SOL    HW291627   4.704   1.515   8.146 -0.5450  0.0053  0.5135
26635SOL     OW91628  10.356   2.496   1.974 -0.0437 -0.7201 -0.3228
26635SOL    HW191629  10.313   2.505   2.059  2.3918 -1.7249  1.1075
26635SOL    HW291630  10.427   2.434   1.989  2.4956  1.4808 -2.2922
26636SOL     OW91631   5.908   3.067   7.339  0.8385  0.1580  0.1344
26636SOL    HW191632   5.938   3.053   7.429  0.5231  1.9484  0.5510
26636SOL    HW291633   5.932   3.157   7.319  0.1184  0.0714 -1.2748
26637SOL     OW91634   5.692   9.631   6.423  0.1582 -0.3314 -0.1727
26637SOL    HW191635   5.728   9.705   6.374  1.3905 -0.6787  0.1762
26637SOL    HW291636   5.599   9.652   6.433  0.6874  1.7635  0.9443
26638SOL     OW91637   6.566   8.202  10.801 -0.3887 -0.4920  0.7709
26638SOL    HW191638   6.529   8.284  10.835 -0.3582 -0.2821  0.3128
26638SOL    HW291639   6.585   8.150  10.879 -0.2566  0.0039  1.0773
26639SOL     OW91640   9.326   3.671   8.794  0.6787  0.4744 -0.1770
26639SOL    HW191641   9.415   3.654   8.825 -0.1428 -1.4088  1.3646
26639SOL    HW291642   9.282   3.586   8.797 -1.7171  1.6296  0.9791
26640SOL     OW91643   4.845   3.880   2.125 -0.0214 -0.1185  0.2156
26640SOL    HW191644   4.769   3.890   2.067  0.6959 -0.0776 -0.7311
26640SOL    HW291645   4.892   3.963   2.118  0.8479 -0.6452 -0.2761
26641SOL     OW91646  10.535   9.145   7.346  0.5153  0.1278  0.1649
26641SOL    HW191647  10.568   9.089   7.275  1.2476 -0.2855  0.8084
26641SOL    HW291648  10.441   9.154   7.328  0.5097 -0.7684 -0.3165
26642SOL     OW91649   4.856   0.813   3.910  0.8063  0.6363  0.0634
26642SOL    HW191650   4.907   0.734   3.893  0.6576  0.1680  1.6832
26642SOL    HW291651   4.900   0.881   3.859 -0.1316 -0.7883 -2.8645
26643SOL     OW91652   8.581  11.055   5.327  0.1237 -0.4551  0.0129
26643SOL    HW191653   8.655  11.115   5.328 -0.2596  0.0853 -1.2699
26643SOL    HW291654   8.510  11.104   5.368  0.3822 -0.8699  0.9859
26644SOL     OW91655   5.528   3.154   2.537  0.0660  0.1140  0.4359
26644SOL    HW191656   5.539   3.065   2.505 -2.2009  0.6605 -2.2418
26644SOL    HW291657   5.463   3.146   2.607  0.5596 -0.4074  0.8442
26645SOL     OW91658   6.663  10.382   8.725  0.1212 -0.1091 -0.0535
26645SOL    HW191659   6.571  10.401   8.740 -0.8043 -1.1793 -3.4761
26645SOL    HW291660   6.681  10.305   8.779 -1.4030 -0.6900 -0.3242
26646SOL     OW91661   0.397  11.209   7.314 -0.5680 -0.0027  0.4640
26646SOL    HW191662   0.317  11.231   7.362 -1.0190  0.0383 -0.3005
26646SOL    HW291663   0.416  11.119   7.339 -0.5840  0.1386  1.0087
26647SOL     OW91664   2.711  11.660   9.368  0.1275 -0.1097 -0.3835
26647SOL    HW191665   2.793  11.700   9.341 -0.5578  0.4099 -1.7719
26647SOL    HW291666   2.665  11.729   9.415  0.4680 -0.4071  0.4133
26648SOL     OW91667   5.615  10.122   1.697 -0.1311 -0.1032 -0.1288
26648SOL    HW191668   5.569  10.046   1.661  0.4636 -0.1208 -0.8742
26648SOL    HW291669   5.703  10.117   1.661 -0.3241  1.4199 -0.9148
26649SOL     OW91670   3.467   4.148   8.221  0.8387  0.4334  0.1387
26649SOL    HW191671   3.382   4.114   8.249  0.0206  1.2614 -1.2619
26649SOL    HW291672   3.516   4.070   8.195 -0.6219  0.1473 -1.9791
26650SOL     OW91673   3.689   9.495   3.401  0.7327  0.3890 -0.0435
26650SOL    HW191674   3.621   9.509   3.336  1.1882  0.8921 -0.4213
26650SOL    HW291675   3.642   9.477   3.482  0.1661 -0.6415 -0.5933
26651SOL     OW91676   5.243   4.631   2.699 -0.2826 -0.9131 -0.5239
26651SOL    HW191677   5.273   4.632   2.790 -0.6319  0.2763 -0.4030
26651SOL    HW291678   5.324   4.631   2.648 -0.0698 -2.7172 -0.2474
26652SOL     OW91679   4.865   2.696   5.050  0.4671  0.0635  0.5850
26652SOL    HW191680   4.915   2.734   5.123 -0.3908 -1.8034  2.2511
26652SOL    HW291681   4.932   2.655   4.995  1.0019 -0.7409  1.7602
26653SOL     OW91682   2.113  10.829  11.451 -0.3175  0.0309 -0.1692
26653SOL    HW191683   2.134  10.922  11.465 -0.0378 -0.2038  1.1439
26653SOL    HW291684   2.075  10.826  11.363  0.4237  1.2591 -0.5602
26654SOL     OW91685   9.013   1.391   8.326  0.3991  0.8198 -0.4784
26654SOL    HW191686   8.935   1.427   8.370  1.8458  1.0826  2.0929
26654SOL    HW291687   9.040   1.460   8.265  0.1791  1.9285  0.6318
26655SOL     OW91688   5.940   4.650   4.427 -0.3574  0.3239 -0.0245
26655SOL    HW191689   5.880   4.721   4.403 -0.9713 -1.3426 -4.4044
26655SOL    HW291690   6.023   4.694   4.445 -1.5846  2.3402  1.0263
26656SOL     OW91691   2.826   7.259   3.571 -0.2851 -0.4532  0.7113
26656SOL    HW191692   2.880   7.188   3.606  0.9813 -0.1943 -0.6176
26656SOL    HW291693   2.808   7.234   3.480 -1.8468 -0.1842  0.9140
26657SOL     OW91694   9.606   6.973   0.013  0.2562  0.4359 -0.2868
26657SOL    HW191695   9.701   6.958   0.017  0.1519 -0.2969 -0.4366
26657SOL    HW291696   9.570   6.887  -0.010 -0.4598  0.6643 -0.0108
26658SOL     OW91697   7.582   0.440   8.027 -0.4828  0.2440 -0.1556
26658SOL    HW191698   7.668   0.436   7.984  0.0627  0.0145  0.9024
26658SOL    HW291699   7.536   0.363   7.997  0.0597 -0.1491  0.0001
26659SOL     OW91700   7.548   3.345   4.940  0.6161 -0.2690  0.1197
26659SOL    HW191701   7.514   3.434   4.951  0.4797 -0.5352  2.3322
26659SOL    HW291702   7.552   3.332   4.845  1.5959  2.4412 -0.2873
26660SOL     OW91703   6.059   9.375   3.073  0.5044  0.1301  0.2281
26660SOL    HW191704   6.116   9.304   3.045  0.4167 -0.0053  0.3895
26660SOL    HW291705   6.117   9.449   3.085  0.5636  0.1482 -0.1622
26661SOL     OW91706  10.319   4.704   7.686  0.0926  0.1168  0.1251
26661SOL    HW191707  10.319   4.800   7.679  0.9819  0.0374 -1.2921
26661SOL    HW291708  10.403   4.677   7.650 -0.9193 -1.3028 -1.2909
26662SOL     OW91709  10.635  11.547   7.183  0.2560  0.2824  0.5061
26662SOL    HW191710  10.568  11.507   7.237  1.1684 -1.0241  0.7140
26662SOL    HW291711  10.648  11.485   7.111  0.1823  1.2384 -0.3567
26663SOL     OW91712   2.991   7.383   6.179 -0.5678  0.2488  0.0061
26663SOL    HW191713   2.955   7.412   6.262 -2.2742  0.5254 -0.7778
26663SOL    HW291714   2.924   7.323   6.143 -0.8419  1.6606 -2.0231
26664SOL     OW91715   5.830  10.619   7.177  0.3060 -0.4316  0.1897
26664SOL    HW191716   5.877  10.543   7.144 -0.7312 -0.3243 -1.6650
26664SOL    HW291717   5.739  10.603   7.152  0.2696  2.0538 -1.5624
26665SOL     OW91718   5.028   7.893   9.586  0.0734 -0.5775  0.2402
26665SOL    HW191719   5.050   7.820   9.529 -2.3241  1.1238 -3.1585
26665SOL    HW291720   5.012   7.967   9.527 -1.7905  1.5912  3.1556
26666SOL     OW91721   7.995   1.207   1.769 -0.4743  0.2769 -0.1098
26666SOL    HW191722   8.042   1.286   1.796 -3.0470  1.4680  1.2283
26666SOL    HW291723   8.022   1.193   1.679 -0.8418  3.4503 -0.8299
26667SOL     OW91724   1.653  11.207  11.360  0.1659  0.2256 -0.1537
26667SOL    HW191725   1.637  11.286  11.411  0.6669  1.1644 -1.3854
26667SOL    HW291726   1.746  11.186  11.376  0.4586  0.8085 -1.0339
26668SOL     OW91727   7.958  11.919   6.611 -0.6128  0.1089  0.2178
26668SOL    HW191728   7.928  11.828   6.607  0.9725 -0.4144 -2.7407
26668SOL    HW291729   7.916  11.961   6.536 -0.1500  1.4607  0.6816
26669SOL     OW91730   9.257   8.097  11.541  0.0368  0.2347 -0.0082
26669SOL    HW191731   9.211   8.015  11.557  1.1362 -0.2389  0.8466
26669SOL    HW291732   9.331   8.073  11.486  1.1688  0.3855  1.4094
26670SOL     OW91733  10.887  11.035   9.524  0.2816  0.3884  0.4116
26670SOL    HW191734  10.971  11.068   9.493 -0.3771  2.2378  0.4943
26670SOL    HW291735  10.882  11.064   9.615  0.3285 -1.3173  1.0057
26671SOL     OW91736   5.840   8.430   4.325  0.1976 -0.0379  0.7480
26671SOL    HW191737   5.893   8.444   4.404  0.5271 -0.1209  0.5448
26671SOL    HW291738   5.758   8.395   4.358  0.6070 -0.7811  1.0077
26672SOL     OW91739   8.318   8.556   7.869  1.1218 -0.6787  0.2148
26672SOL    HW191740   8.268   8.602   7.936  1.3315 -1.6869  1.0900
26672SOL    HW291741   8.281   8.467   7.868 -1.0949  0.0855 -3.2603
26673SOL     OW91742   9.913   8.503   5.170  0.0730 -0.9104 -0.1352
26673SOL    HW191743   9.974   8.577   5.168  1.0558 -1.6693  1.1051
26673SOL    HW291744   9.967   8.426   5.155 -0.7315 -1.5183  0.0290
26674SOL     OW91745   6.617  10.795   9.653  0.8217 -0.5180 -0.0541
26674SOL    HW191746   6.609  10.823   9.562 -0.3681  0.3024  0.2748
26674SOL    HW291747   6.568  10.713   9.658  3.1912 -2.0908 -0.7178
26675SOL     OW91748   1.214   5.265   6.293 -0.3531  0.1110 -0.0964
26675SOL    HW191749   1.216   5.331   6.223  2.1020  0.1045 -0.1157
26675SOL    HW291750   1.282   5.202   6.269 -0.5358 -0.7595  1.5164
26676SOL     OW91751   7.407   4.001   2.280 -0.2302  0.0058 -0.0837
26676SOL    HW191752   7.337   3.967   2.224 -1.6657  3.2737 -0.5082
26676SOL    HW291753   7.362   4.028   2.360  0.9636 -0.0448  0.6113
26677SOL     OW91754   1.227  11.641   8.642  0.0278  0.4593  0.2663
26677SOL    HW191755   1.286  11.665   8.571 -1.5965  1.2787 -0.8684
26677SOL    HW291756   1.285  11.619   8.715  1.7718 -0.6145 -1.3416
26678SOL     OW91757   2.127   7.666   5.351  0.5383  0.1761 -0.1461
26678SOL    HW191758   2.056   7.616   5.310  0.1786  0.4819  0.0979
26678SOL    HW291759   2.160   7.721   5.280  2.1467 -1.6547 -0.9271
26679SOL     OW91760   6.428   0.614   4.601  0.2637  0.4393  0.1511
26679SOL    HW191761   6.406   0.568   4.520  0.5002 -1.3823  1.0690
26679SOL    HW291762   6.524   0.619   4.599  0.4265 -1.3450  1.1546
26680SOL     OW91763  10.781   1.657   6.709 -0.2478  0.6605  0.4152
26680SOL    HW191764  10.863   1.679   6.753 -0.2283 -0.2258  0.8459
26680SOL    HW291765  10.792   1.565   6.682 -0.9686  0.6341  0.1835
26681SOL     OW91766  11.882   8.037  10.368 -0.9613  0.0375 -0.1800
26681SOL    HW191767  11.871   8.025  10.462  1.0180 -2.1352 -0.1587
26681SOL    HW291768  11.949   8.105  10.361 -0.6567 -0.2388  0.0066
26682SOL     OW91769   2.147   8.629  10.353  0.4889 -0.1077  0.1900
26682SOL    HW191770   2.137   8.654  10.261  1.4103  1.4886  0.4921
26682SOL    HW291771   2.222   8.569  10.353  0.3121 -0.3344 -0.1230
26683SOL     OW91772   9.906   1.463   2.897 -0.0229 -0.3086 -0.4929
26683SOL    HW191773   9.843   1.531   2.919 -1.0914 -1.4810  0.2061
26683SOL    HW291774   9.876   1.386   2.945  0.2673 -1.7123 -2.4612
26684SOL     OW91775   0.695   1.547   2.690 -1.2085 -0.0619  0.2093
26684SOL    HW191776   0.693   1.603   2.767  2.4210  1.9508 -0.9523
26684SOL    HW291777   0.635   1.588   2.628  0.2847  1.7794 -0.0828
26685SOL     OW91778   2.693   2.612   5.172  0.3638 -0.1125 -0.4230
26685SOL    HW191779   2.601   2.594   5.189  0.9401 -0.2183  3.3279
26685SOL    HW291780   2.696   2.703   5.144 -0.7164  0.8204  2.2511
26686SOL     OW91781   1.123  10.679  11.382 -0.2370  0.4124  0.1575
26686SOL    HW191782   1.037  10.647  11.356 -0.4733  0.2661  1.0991
26686SOL    HW291783   1.107  10.768  11.414 -0.1675  0.1048  1.0670
26687SOL     OW91784  10.020   0.575   1.388  0.5102  0.1476  0.1584
26687SOL    HW191785   9.932   0.587   1.351  0.2700 -1.1714  0.2591
26687SOL    HW291786  10.008   0.513   1.459  1.6175 -0.5395 -0.2330
26688SOL     OW91787   6.669   8.063   3.872  0.0887  0.5341 -0.0863
26688SOL    HW191788   6.641   8.086   3.783 -0.7449  1.8401  0.4905
26688SOL    HW291789   6.757   8.027   3.860  0.1096  0.9563 -1.4041
26689SOL     OW91790   1.562   6.006  11.248 -0.1357  0.1471 -0.1657
26689SOL    HW191791   1.655   6.028  11.244  0.1409 -0.9601 -0.2616
26689SOL    HW291792   1.561   5.910  11.246 -1.4051  0.1593 -2.7853
26690SOL     OW91793   7.916  11.177   0.110 -0.3365  0.1398  0.0844
26690SOL    HW191794   7.950  11.259   0.073  1.0514  0.1544  1.3383
26690SOL    HW291795   7.951  11.174   0.199 -1.4012 -1.2161  0.4923
26691SOL     OW91796   3.356   0.640   8.177 -0.2223  0.2847 -0.1864
26691SOL    HW191797   3.270   0.599   8.184 -0.6773  0.7710 -2.1098
26691SOL    HW291798   3.337   0.732   8.159  0.6308  0.2274 -1.5852
26692SOL     OW91799   8.539  11.289  10.833  0.2610 -0.3726  0.7562
26692SOL    HW191800   8.555  11.220  10.897 -0.8399 -0.8529  0.5272
26692SOL    HW291801   8.446  11.307  10.839  0.5166  1.0628  0.7643
26693SOL     OW91802  10.781   2.611   9.087  0.3362 -0.0551 -0.2211
26693SOL    HW191803  10.806   2.540   9.028 -0.4364  0.7064 -1.5390
26693SOL    HW291804  10.863   2.644   9.122  0.6981 -1.6087  0.4538
26694SOL     OW91805   7.113   4.065  11.894  0.2962 -0.1477  0.1656
26694SOL    HW191806   7.074   4.145  11.929  0.5818 -0.2718  0.7855
26694SOL    HW291807   7.069   3.994  11.941 -0.3191 -0.3807 -0.7463
26695SOL     OW91808   7.660   0.991   2.789  0.4895 -0.2169 -0.4301
26695SOL    HW191809   7.699   0.925   2.732 -1.8147  0.3029 -2.8230
26695SOL    HW291810   7.684   1.074   2.749  0.2533  0.2588  0.3966
26696SOL     OW91811   7.564   3.492  11.187 -0.9245  0.0281 -0.6497
26696SOL    HW191812   7.542   3.553  11.257  2.0920 -1.0411  1.3909
26696SOL    HW291813   7.480   3.456  11.159 -2.7036  3.9247 -0.9723
26697SOL     OW91814   7.661   9.998   3.700  0.0242  0.3092 -0.5308
26697SOL    HW191815   7.749  10.035   3.690  0.3725 -0.0106  1.0640
26697SOL    HW291816   7.653   9.981   3.794 -1.1852 -1.0560 -0.8469
26698SOL     OW91817   3.297   8.587   9.078 -0.0099 -0.5214  0.5564
26698SOL    HW191818   3.371   8.648   9.071  0.2483 -0.6949  1.6720
26698SOL    HW291819   3.277   8.564   8.987 -0.1282  1.2265  0.1107
26699SOL     OW91820  11.856  10.845   9.763 -0.4167  0.2403  0.1642
26699SOL    HW191821  11.893  10.833   9.675  2.2737  2.9059  0.7749
26699SOL    HW291822  11.828  10.757   9.789  1.2900 -1.1586 -2.2986
26700SOL     OW91823   4.308   2.543   0.361  0.1330 -0.0851 -0.6513
26700SOL    HW191824   4.234   2.495   0.396 -0.8537  0.3110 -2.1132
26700SOL    HW291825   4.383   2.486   0.376 -0.1551  0.1827  2.3032
26701SOL     OW91826   0.503   0.959   3.136  0.1176  0.1382 -0.3827
26701SOL    HW191827   0.488   1.052   3.118  0.0137  0.4147  0.9810
26701SOL    HW291828   0.453   0.942   3.216  2.0408 -0.4766  0.7610
26702SOL     OW91829   1.451   5.967   9.833  0.2489  0.1543  0.4864
26702SOL    HW191830   1.375   5.959   9.776  1.2255  0.8339 -0.9864
26702SOL    HW291831   1.469   5.878   9.863 -0.1982 -0.2468 -0.4146
26703SOL     OW91832   7.573   4.560   7.799  0.1406 -0.0265 -0.5465
26703SOL    HW191833   7.566   4.653   7.823 -0.1182 -0.2972  0.4499
26703SOL    HW291834   7.666   4.540   7.805 -0.0506 -0.4346  1.6249
26704SOL     OW91835  10.078   7.243  11.741  0.3094  0.3904  0.6016
26704SOL    HW191836  10.025   7.272  11.814 -0.0503 -2.2974  1.5054
26704SOL    HW291837  10.119   7.162  11.771  0.3196 -0.7102 -2.0641
26705SOL     OW91838   9.412   8.515  10.083  0.2393 -0.7301  0.4602
26705SOL    HW191839   9.379   8.598  10.050  0.3550 -0.8154  0.1223
26705SOL    HW291840   9.407   8.523  10.178 -0.0883 -0.4743  0.4255
26706SOL     OW91841  10.823   2.939   6.572  0.0685  0.1708 -0.2624
26706SOL    HW191842  10.768   2.995   6.518 -2.8541  0.2877  2.5978
26706SOL    HW291843  10.769   2.916   6.647  3.4667 -0.9885  2.0610
26707SOL     OW91844   7.524  10.118   3.275 -0.1302  0.1266 -0.3051
26707SOL    HW191845   7.599  10.088   3.326  0.4680  0.5816 -0.8982
26707SOL    HW291846   7.542  10.210   3.259 -1.5194  0.6062  0.7454
26708SOL     OW91847   4.969   2.956   8.498 -0.1616 -0.4483  0.4350
26708SOL    HW191848   5.007   2.869   8.487 -1.5874 -1.0525 -0.0525
26708SOL    HW291849   4.880   2.947   8.464  0.2272  1.6916 -1.3620
26709SOL     OW91850   9.534   2.970   3.658  0.1512  0.1686 -0.1531
26709SOL    HW191851   9.627   2.971   3.680  0.1210 -0.5574  0.0087
26709SOL    HW291852   9.496   3.037   3.715  0.7395  1.2647 -1.0137
26710SOL     OW91853   3.358   7.516   9.054  0.5001 -0.5229 -0.2666
26710SOL    HW191854   3.390   7.452   9.118  0.8680 -2.5189 -2.2915
26710SOL    HW291855   3.368   7.472   8.970 -1.7177  1.2516 -1.5701
26711SOL     OW91856   7.495  10.908   3.132  0.3461  0.3777 -0.2181
26711SOL    HW191857   7.414  10.907   3.184  0.6166  2.6397  0.3649
26711SOL    HW291858   7.505  10.818   3.102 -0.7611 -0.6616  2.2063
26712SOL     OW91859   9.590  11.373   8.117  0.2654  0.1677  0.8172
26712SOL    HW191860   9.625  11.329   8.040  0.0378  2.5331 -0.7418
26712SOL    HW291861   9.666  11.415   8.157  0.4969 -1.5646  2.3491
26713SOL     OW91862   9.850   2.080   4.096  0.2793  0.2274 -0.2176
26713SOL    HW191863   9.808   2.166   4.089  0.0054  0.1688  0.5955
26713SOL    HW291864   9.933   2.090   4.050  0.2971  0.9658 -0.0358
26714SOL     OW91865   1.095   2.131   3.110 -0.1130 -0.1373  0.1762
26714SOL    HW191866   1.042   2.081   3.172 -0.0737  1.1937  1.3181
26714SOL    HW291867   1.033   2.155   3.040 -0.4548 -0.5582  0.3296
26715SOL     OW91868   4.302   8.676   2.658  0.2110 -0.2207 -0.7369
26715SOL    HW191869   4.265   8.654   2.573 -1.5135  0.0708 -0.0961
26715SOL    HW291870   4.333   8.766   2.647 -1.5298  0.4263 -0.6125
26716SOL     OW91871  11.391   2.447  10.444 -0.0257 -0.2506 -0.4472
26716SOL    HW191872  11.325   2.467  10.511  0.0725  1.2085 -0.7594
26716SOL    HW291873  11.405   2.353  10.452 -0.6523 -0.2483  1.0057
26717SOL     OW91874   8.402   4.697   9.027  0.5398  0.2708  0.4331
26717SOL    HW191875   8.361   4.649   8.955  1.4431  1.0753 -0.6768
26717SOL    HW291876   8.443   4.630   9.081 -0.9647 -0.4266  0.7706
26718SOL     OW91877   6.838  11.672   8.020 -0.0965  0.3153  0.4376
26718SOL    HW191878   6.839  11.589   8.067 -2.1656 -1.3879 -2.1763
26718SOL    HW291879   6.929  11.688   7.998  0.2188 -2.4269 -0.6875
26719SOL     OW91880   3.649   1.362   1.345  0.0379  0.2390  0.2016
26719SOL    HW191881   3.554   1.353   1.357  0.2879 -1.7449  1.1590
26719SOL    HW291882   3.665   1.456   1.349 -1.6552  0.5228  2.1915
26720SOL     OW91883   4.748   1.570   6.490 -0.1603 -0.0264 -0.8981
26720SOL    HW191884   4.783   1.518   6.417 -1.6280 -0.0079 -1.6597
26720SOL    HW291885   4.669   1.610   6.454  1.3739  3.5404 -0.6809
26721SOL     OW91886  11.946   1.336  11.567 -0.0529 -0.6203 -0.8794
26721SOL    HW191887  11.950   1.280  11.490 -1.6485 -1.7512 -0.2047
26721SOL    HW291888  11.889   1.409  11.541 -1.0326 -1.2811 -0.6324
26722SOL     OW91889   9.084   8.636   5.962  0.2058  0.1008 -0.7406
26722SOL    HW191890   9.044   8.558   5.924 -0.2897  0.3961 -0.8319
26722SOL    HW291891   9.171   8.606   5.991  0.4706 -0.1979 -1.8054
26723SOL     OW91892   9.906   9.087   5.267  0.0940 -0.4807 -0.4431
26723SOL    HW191893   9.821   9.079   5.224  0.3899  0.5175 -1.2406
26723SOL    HW291894   9.920   9.001   5.307 -2.1592 -0.0577  1.4034
26724SOL     OW91895  11.854   5.715   4.494 -0.4175 -0.4681 -0.4748
26724SOL    HW191896  11.889   5.782   4.554 -0.5172 -2.7042  2.3019
26724SOL    HW291897  11.760   5.715   4.512 -0.7441  0.0747 -2.0596
26725SOL     OW91898   8.267   8.627   8.166  0.9414  0.4124 -0.0700
26725SOL    HW191899   8.362   8.636   8.177  0.9227  0.3250  0.1615
26725SOL    HW291900   8.230   8.688   8.229  0.8393  0.1568  0.1188
26726SOL     OW91901   6.212   6.891   8.474 -0.2496 -0.0242 -0.2122
26726SOL    HW191902   6.137   6.941   8.506  1.3225  2.0882  0.3991
26726SOL    HW291903   6.185   6.858   8.388 -1.9556  0.4014  0.1305
26727SOL     OW91904   4.557   1.070   6.816  0.3759 -0.1505 -0.6284
26727SOL    HW191905   4.484   1.087   6.876  0.6396  2.2070 -0.8798
26727SOL    HW291906   4.599   1.155   6.805  3.3979 -1.4654 -0.2500
26728SOL     OW91907  11.451   0.261   6.450  0.0270 -0.4545  0.2720
26728SOL    HW191908  11.518   0.301   6.395 -1.0287 -0.5200 -1.1218
26728SOL    HW291909  11.402   0.335   6.486  0.5881 -0.4178  0.9846
26729SOL     OW91910   7.769   6.980   6.035  0.0306  0.2143  0.6100
26729SOL    HW191911   7.765   7.076   6.044 -2.2692  0.3312 -0.7786
26729SOL    HW291912   7.714   6.947   6.106 -2.4668  0.2071 -1.1986
26730SOL     OW91913   1.371   4.312  11.205 -0.0290  0.4966 -1.0011
26730SOL    HW191914   1.309   4.312  11.279  1.2929  0.9042  0.1571
26730SOL    HW291915   1.363   4.399  11.168 -0.6822  0.2999 -1.3404
26731SOL     OW91916   7.018   9.382   3.544 -0.4270 -0.8923  0.2872
26731SOL    HW191917   7.000   9.448   3.610 -1.0556 -0.3839 -0.3758
26731SOL    HW291918   7.099   9.340   3.573  0.7957  1.1296 -0.0295
26732SOL     OW91919   1.699   8.304   4.364 -0.1864 -0.1759 -0.0220
26732SOL    HW191920   1.696   8.209   4.376 -0.7816 -0.1322  0.2191
26732SOL    HW291921   1.653   8.319   4.282 -1.1716 -0.0100  0.5343
26733SOL     OW91922   9.813   0.716  11.942 -0.1127 -0.5649 -0.1941
26733SOL    HW191923   9.845   0.672  12.021 -1.1528 -1.3022 -0.1694
26733SOL    HW291924   9.741   0.662  11.911 -0.5099  0.3713 -0.9780
26734SOL     OW91925   8.454   6.260   8.676  0.3392  0.3555  0.0843
26734SOL    HW191926   8.437   6.341   8.628  1.1167  0.2645 -0.3630
26734SOL    HW291927   8.383   6.201   8.650  1.1557  0.0406 -1.6002
26735SOL     OW91928   5.166   1.275   3.918  0.4602  0.0262 -0.6546
26735SOL    HW191929   5.072   1.254   3.914  0.3291  0.4954 -0.2631
26735SOL    HW291930   5.203   1.237   3.839  0.0224 -0.5863 -0.5704
26736SOL     OW91931   8.961   7.130   1.615 -0.0832  0.1290 -0.0297
26736SOL    HW191932   8.996   7.049   1.651 -0.0495  0.3020  0.3353
26736SOL    HW291933   9.013   7.199   1.658 -0.2376  0.3499 -0.1959
26737SOL     OW91934  10.866   4.349   9.456  0.2504  0.0903  0.4616
26737SOL    HW191935  10.892   4.305   9.536 -0.6841  2.5624  2.2363
26737SOL    HW291936  10.811   4.422   9.485 -1.3358  0.2400 -2.5260
26738SOL     OW91937   9.723   6.407   2.352 -0.0146 -0.1996 -0.6287
26738SOL    HW191938   9.663   6.379   2.422  0.2278 -0.7228 -0.6233
26738SOL    HW291939   9.667   6.450   2.288 -0.6742 -2.1618 -1.4337
26739SOL     OW91940   0.605   9.617   9.421 -0.3901  0.6049  0.1564
26739SOL    HW191941   0.653   9.614   9.503  0.7016  0.0144 -0.4717
26739SOL    HW291942   0.626   9.703   9.384  0.7510  0.1022 -0.4175
26740SOL     OW91943   9.842   3.517   1.358  0.1344 -0.2418  0.0821
26740SOL    HW191944   9.897   3.496   1.283 -0.4560 -0.7779 -0.2159
26740SOL    HW291945   9.830   3.433   1.403  1.8869  0.3598  1.7723
26741SOL     OW91946   5.632   7.253   4.804 -0.3525  0.1701 -0.4762
26741SOL    HW191947   5.719   7.232   4.772 -0.2634 -0.4108  0.1190
26741SOL    HW291948   5.638   7.344   4.833  0.3264 -0.1523  0.4367
26742SOL     OW91949  10.971   1.395   4.502  0.5497  0.1867  0.4461
26742SOL    HW191950  10.909   1.434   4.441  2.5208  2.2442 -0.3870
26742SOL    HW291951  10.966   1.451   4.579  1.2858  0.2967  0.4159
26743SOL     OW91952   0.444   3.560   8.198  0.3029 -0.0043 -0.3082
26743SOL    HW191953   0.510   3.501   8.235 -0.3153 -0.7153 -0.3176
26743SOL    HW291954   0.366   3.545   8.252 -0.2996 -0.2937 -1.2448
26744SOL     OW91955   0.263   5.279   9.840  0.8563  0.2619 -0.0985
26744SOL    HW191956   0.303   5.209   9.788  0.5417 -0.0157  0.0295
26744SOL    HW291957   0.175   5.290   9.803  1.0884  0.9649 -0.4678
26745SOL     OW91958   2.305   1.592   6.817  0.2185 -0.0172  0.0403
26745SOL    HW191959   2.373   1.543   6.864  0.0926  0.2676  0.5263
26745SOL    HW291960   2.333   1.591   6.725  0.0656 -1.2507 -0.0040
26746SOL     OW91961   1.104   8.247   4.592 -0.0818  0.1713 -0.9435
26746SOL    HW191962   1.046   8.313   4.629  1.2410  2.2116 -2.2838
26746SOL    HW291963   1.068   8.163   4.622 -1.6883  1.4790  1.0449
26747SOL     OW91964   8.104   6.008  11.823 -0.2396 -0.0251  0.0005
26747SOL    HW191965   8.146   6.067  11.761 -1.0130 -0.7965 -1.3035
26747SOL    HW291966   8.161   6.009  11.900  0.8708  0.7750 -0.8085
26748SOL     OW91967   5.246   1.039   8.147  0.1736 -0.1130  0.0812
26748SOL    HW191968   5.292   0.971   8.098  0.1940 -0.2696  0.3161
26748SOL    HW291969   5.311   1.069   8.211  0.1032 -0.0004  0.0988
26749SOL     OW91970   8.524  11.704   8.395  0.1261 -0.2552 -0.0157
26749SOL    HW191971   8.604  11.714   8.446  1.2413 -5.3534 -0.1767
26749SOL    HW291972   8.475  11.636   8.442 -1.4580 -1.1092 -2.7024
26750SOL     OW91973  10.735   2.034   4.777  0.3526 -0.5746 -0.0939
26750SOL    HW191974  10.671   2.038   4.705  0.9050  1.2202 -0.5282
26750SOL    HW291975  10.714   1.953   4.823 -0.2276 -1.6192 -2.0873
26751SOL     OW91976  11.036   3.092   8.119  0.1205  0.2961  0.1578
26751SOL    HW191977  11.001   3.155   8.055 -1.4697 -0.5920  0.1092
26751SOL    HW291978  11.042   3.010   8.070 -1.0139 -0.3715  1.0961
26752SOL     OW91979  10.937   8.527   2.565 -0.3903 -0.8947 -0.2877
26752SOL    HW191980  10.981   8.513   2.649 -0.8524 -0.1088  0.0934
26752SOL    HW291981  10.854   8.568   2.588 -0.1477  0.1264 -1.1896
26753SOL     OW91982   4.693   5.189   9.004 -0.2830 -0.8551 -0.1983
26753SOL    HW191983   4.778   5.220   8.972 -0.0548 -1.6510 -0.3773
26753SOL    HW291984   4.714   5.112   9.056 -0.7600 -0.1900  1.0026
26754SOL     OW91985   5.878   6.152  11.815 -0.1700  0.4429  0.0628
26754SOL    HW191986   5.789   6.184  11.833  0.4081  1.3940  1.3873
26754SOL    HW291987   5.915   6.134  11.902  0.2532 -1.9336 -0.5374
26755SOL     OW91988   9.443   9.611   5.442  0.3861 -0.3593 -0.3918
26755SOL    HW191989   9.532   9.612   5.405  1.0803  0.2849  1.2326
26755SOL    HW291990   9.443   9.681   5.507 -1.3859 -0.2417 -0.4750
26756SOL     OW91991   3.165   5.287   2.923  0.0199 -0.2676  0.0400
26756SOL    HW191992   3.175   5.222   2.854  1.4171  0.7656 -0.7907
26756SOL    HW291993   3.175   5.238   3.005 -2.1790 -1.5859 -0.4247
26757SOL     OW91994   5.715   7.638   7.940  0.2741  0.6234  0.1331
26757SOL    HW191995   5.709   7.560   7.995 -0.0559  0.8135  0.3701
26757SOL    HW291996   5.718   7.711   8.002 -0.0761  0.8374 -0.0950
26758SOL     OW91997  11.465  11.341   7.543  0.0430  0.2543  0.4141
26758SOL    HW191998  11.464  11.290   7.623  0.3918  2.3040  1.8225
26758SOL    HW291999  11.550  11.321   7.503  0.9353  0.9678  1.8485
26759SOL     OW92000   3.341   1.862   5.431 -0.3361  0.2990  0.1920
26759SOL    HW192001   3.424   1.899   5.400 -0.2697  0.9089  1.0580
26759SOL    HW292002   3.356   1.768   5.431 -0.6341  0.1822 -2.4230
26760SOL     OW92003   5.237   0.646  11.470 -0.1579  0.2015 -0.1558
26760SOL    HW192004   5.253   0.554  11.489 -0.5480 -0.1191 -1.2622
26760SOL    HW292005   5.299   0.667  11.400 -1.7498  0.0410 -1.6901
26761SOL     OW92006   1.373   1.591   5.694  0.0289 -0.0041  0.4208
26761SOL    HW192007   1.435   1.520   5.711  1.8614  1.4889  0.2469
26761SOL    HW292008   1.373   1.643   5.774 -1.0580 -0.0014  0.4306
26762SOL     OW92009  11.399   4.743   4.730 -0.4831  0.1507 -0.2811
26762SOL    HW192010  11.324   4.772   4.678 -1.1382 -0.6746  0.1791
26762SOL    HW292011  11.421   4.657   4.694 -0.5318 -0.1422  0.3739
26763SOL     OW92012   2.792   1.749   5.557 -0.1836 -0.3948 -0.2240
26763SOL    HW192013   2.705   1.784   5.580  0.3899  0.2818  1.0425
26763SOL    HW292014   2.815   1.693   5.631  0.6929 -0.1305 -0.2842
26764SOL     OW92015   5.866   0.614   2.911  0.2347  0.4800  0.2831
26764SOL    HW192016   5.928   0.679   2.878  1.1060 -0.1911  0.5658
26764SOL    HW292017   5.788   0.665   2.933  1.4090  1.6759  1.8996
26765SOL     OW92018   4.248  11.791   6.961 -0.5604 -0.4635 -0.3813
26765SOL    HW192019   4.255  11.715   7.019 -2.1258  1.0458  1.9608
26765SOL    HW292020   4.338  11.814   6.941  0.0612 -1.1225  1.4155
26766SOL     OW92021   9.354   6.452   6.911  0.0565 -0.2472 -0.4636
26766SOL    HW192022   9.297   6.470   6.986  0.2033 -0.5734 -0.2707
26766SOL    HW292023   9.301   6.476   6.835 -0.1394 -0.0339 -0.2603
26767SOL     OW92024   7.325   9.475   3.634 -0.4944  0.5832  0.2865
26767SOL    HW192025   7.252   9.529   3.605 -0.4917  0.1789 -0.4958
26767SOL    HW292026   7.375   9.532   3.693 -0.0131  1.7497 -1.1869
26768SOL     OW92027   2.852   1.277   3.481  0.4857 -0.1131 -0.2440
26768SOL    HW192028   2.853   1.331   3.560 -0.8365 -1.8126  1.0057
26768SOL    HW292029   2.941   1.240   3.476  0.4605 -0.3220  0.6899
26769SOL     OW92030   2.041   2.538   4.418  0.3578  0.0904  0.3259
26769SOL    HW192031   2.018   2.477   4.348 -1.2263  2.3091 -1.2064
26769SOL    HW292032   2.095   2.604   4.377  0.7617  0.5719  1.5830
26770SOL     OW92033   5.559   5.561   9.964 -0.6009 -0.0753 -0.1642
26770SOL    HW192034   5.615   5.495   9.922  0.3114 -0.3154  1.3210
26770SOL    HW292035   5.509   5.511  10.029 -0.6582  0.5270  0.2606
26771SOL     OW92036   5.071  11.802   9.005 -0.8070  0.2663  0.3641
26771SOL    HW192037   5.000  11.737   8.998 -1.8757  1.5325 -1.4052
26771SOL    HW292038   5.042  11.875   8.950  1.5046  1.2037  0.2875
26772SOL     OW92039   9.305   5.170  11.427 -0.0901 -0.3308 -0.3986
26772SOL    HW192040   9.270   5.235  11.365  1.5996  0.1328 -0.9131
26772SOL    HW292041   9.243   5.097  11.422  0.4623 -0.7434 -3.4215
26773SOL     OW92042  11.259  11.903   8.265  0.1492  0.0837  0.5933
26773SOL    HW192043  11.256  11.889   8.171 -1.7760  1.6180  0.3629
26773SOL    HW292044  11.347  11.936   8.282  0.8836 -1.2371 -0.4653
26774SOL     OW92045  11.762   6.127   8.054  0.0430  0.5495 -0.0811
26774SOL    HW192046  11.668   6.145   8.063  0.2193  0.8530  1.4674
26774SOL    HW292047  11.779   6.058   8.119  0.6699 -0.4080 -1.2270
26775SOL     OW92048   1.756   4.135   4.288  0.2530 -0.4946  0.1205
26775SOL    HW192049   1.749   4.107   4.196  4.3270 -1.0771 -0.1871
26775SOL    HW292050   1.739   4.056   4.339 -1.0851 -0.3853 -0.1169
26776SOL     OW92051   6.116   5.109   4.850 -0.3697 -0.0484 -0.1579
26776SOL    HW192052   6.106   5.088   4.758 -0.5238 -0.9737  0.0578
26776SOL    HW292053   6.205   5.144   4.858 -0.8308  1.3514 -0.8722
26777SOL     OW92054   8.149   0.939   3.234  0.0290 -0.2246  0.4678
26777SOL    HW192055   8.115   0.943   3.323 -1.7863 -0.2766 -0.1784
26777SOL    HW292056   8.071   0.930   3.179  0.9643  1.5055 -1.2492
26778SOL     OW92057  11.228   3.350   8.123  0.7608 -0.2030  0.1172
26778SOL    HW192058  11.141   3.351   8.164  0.2069  0.7987 -1.0256
26778SOL    HW292059  11.284   3.394   8.187  0.2516 -0.0972  0.5039
26779SOL     OW92060   9.442   2.967   5.014 -0.2506 -0.3472 -0.0333
26779SOL    HW192061   9.424   3.041   4.956 -0.3570  0.4402  0.9653
26779SOL    HW292062   9.401   2.991   5.097 -0.4616 -1.6284  0.2617
26780SOL     OW92063   9.529   4.912   3.742  0.2217 -0.0681 -0.3061
26780SOL    HW192064   9.524   4.898   3.837 -1.6145  0.0649 -0.3301
26780SOL    HW292065   9.577   4.994   3.732  2.5297 -1.2760  0.3472
26781SOL     OW92066   3.818   9.359   4.024  0.1802 -0.2125 -0.0643
26781SOL    HW192067   3.909   9.359   3.993  0.3122 -0.0574  0.3224
26781SOL    HW292068   3.817   9.296   4.095  0.0990  0.1544  0.2616
26782SOL     OW92069   3.181   8.015   7.443  0.2512 -0.1128 -0.0432
26782SOL    HW192070   3.131   7.933   7.443  0.2172 -0.1073  1.1337
26782SOL    HW292071   3.126   8.077   7.490 -0.7318  1.2731 -2.8221
26783SOL     OW92072   7.659   7.486   9.470  0.3349  0.2922  0.1349
26783SOL    HW192073   7.617   7.419   9.416  0.1472  0.5252 -0.0089
26783SOL    HW292074   7.750   7.487   9.440  0.0008  1.1481 -0.9111
26784SOL     OW92075   7.282  10.720  11.425  0.2055  0.3268 -0.0756
26784SOL    HW192076   7.271  10.759  11.338 -1.6464  0.3236  0.1164
26784SOL    HW292077   7.266  10.627  11.412  0.0128  0.3140  0.2436
26785SOL     OW92078   3.375   1.855   8.091  0.5213  0.2064  0.0620
26785SOL    HW192079   3.413   1.841   8.005 -0.5858  1.6387 -0.7200
26785SOL    HW292080   3.450   1.865   8.150  1.3266  0.7265 -1.0214
26786SOL     OW92081   8.558   7.015   2.074 -0.2878 -0.1092  0.5191
26786SOL    HW192082   8.475   6.969   2.087  0.3671 -1.8195 -0.9240
26786SOL    HW292083   8.567   7.070   2.152 -1.1423 -2.4172  2.3896
26787SOL     OW92084   8.852   7.841   8.094  1.0138  0.1476 -0.2967
26787SOL    HW192085   8.829   7.915   8.150 -0.3846 -0.3240 -0.2149
26787SOL    HW292086   8.866   7.769   8.156 -2.7653 -0.9859 -0.5197
26788SOL     OW92087   8.315   4.313   9.964  0.2217  0.2692 -0.3289
26788SOL    HW192088   8.348   4.224   9.948 -0.0725 -0.3093  1.8964
26788SOL    HW292089   8.283   4.342   9.879  2.1560 -0.9629 -1.5504
26789SOL     OW92090   3.370   0.965   4.166  0.3591 -0.1359  0.0536
26789SOL    HW192091   3.326   1.034   4.116  0.6582 -0.1928 -0.2892
26789SOL    HW292092   3.457   0.958   4.127  0.7785  0.1660  0.8968
26790SOL     OW92093   7.984   5.692   6.699  0.1586 -0.7200  0.0247
26790SOL    HW192094   7.971   5.683   6.793 -2.7262  0.8881 -0.1006
26790SOL    HW292095   8.077   5.711   6.688  0.1359  1.5190  2.7822
26791SOL     OW92096   0.536   3.303  11.910 -0.2368  0.2243  0.5321
26791SOL    HW192097   0.559   3.376  11.853  1.0547  0.5663  1.4352
26791SOL    HW292098   0.550   3.225  11.855 -0.5793  0.6010 -0.1037
26792SOL     OW92099  10.249   8.755   7.568  0.4905  0.4210 -0.2595
26792SOL    HW192100  10.209   8.842   7.563  0.6337  0.4289 -1.4848
26792SOL    HW292101  10.175   8.696   7.581  0.5911  0.9140  3.7567
26793SOL     OW92102   3.629   6.397   5.415 -0.2466 -0.1965  0.0906
26793SOL    HW192103   3.608   6.303   5.415  0.2781 -0.3256 -0.8696
26793SOL    HW292104   3.663   6.414   5.502 -1.3917 -0.6492  0.6519
26794SOL     OW92105   3.585   0.820   7.640 -0.3447 -0.2797  0.0040
26794SOL    HW192106   3.597   0.725   7.637  1.0278 -0.1302  0.3390
26794SOL    HW292107   3.561   0.844   7.551 -1.8563 -1.0702  0.1721
26795SOL     OW92108   1.069   0.367   2.717  0.7149 -0.2687 -0.2947
26795SOL    HW192109   1.165   0.374   2.711  0.5834  0.5534 -1.7312
26795SOL    HW292110   1.039   0.457   2.725  0.0714 -0.5546  0.6083
26796SOL     OW92111   0.222   1.518   0.797 -0.2760 -0.5011  0.3610
26796SOL    HW192112   0.278   1.464   0.853  0.4337 -2.2790 -1.8818
26796SOL    HW292113   0.239   1.608   0.825  3.1035 -1.0117  0.3584
26797SOL     OW92114   0.107   5.962   3.693  0.1237  0.2509  0.2379
26797SOL    HW192115   0.013   5.945   3.682  0.5766 -2.0701 -0.6212
26797SOL    HW292116   0.112   6.024   3.766 -2.0044 -0.6945  1.2777
26798SOL     OW92117   5.129   3.721  10.327  0.1719 -0.0579  0.8440
26798SOL    HW192118   5.049   3.767  10.301 -0.1407 -0.2406  1.4574
26798SOL    HW292119   5.151   3.758  10.412  0.2318 -0.6446  1.0901
26799SOL     OW92120   3.243   2.807   7.821  0.0844 -0.9940 -0.0167
26799SOL    HW192121   3.263   2.823   7.729  3.7363 -1.1332  0.5802
26799SOL    HW292122   3.292   2.874   7.868 -2.1381 -0.5666  1.8758
26800SOL     OW92123   9.109   2.916   0.932  0.6012  0.3069 -0.0557
26800SOL    HW192124   9.146   2.857   0.867 -1.3345 -1.0803  0.0430
26800SOL    HW292125   9.056   2.978   0.882 -2.2011 -1.7320  0.1881
26801SOL     OW92126   2.996   7.522   0.538  0.0724 -0.0577  0.0256
26801SOL    HW192127   3.016   7.615   0.547  0.4431 -0.2651  1.6564
26801SOL    HW292128   3.064   7.489   0.480  1.2294  0.3068  1.1251
26802SOL     OW92129   8.067   9.811   0.340  0.4055 -0.2321  0.0125
26802SOL    HW192130   7.985   9.798   0.388  0.0262 -0.1773 -0.5972
26802SOL    HW292131   8.051   9.889   0.287  1.2150  0.3624  0.6306
26803SOL     OW92132   1.801   6.209   6.074 -0.0269 -0.1488 -0.0892
26803SOL    HW192133   1.734   6.275   6.058  0.7161  0.6514 -0.0119
26803SOL    HW292134   1.865   6.253   6.130  0.2408 -1.0991  0.3801
26804SOL     OW92135   4.819   0.314   8.630 -0.1349  0.5874 -0.0374
26804SOL    HW192136   4.900   0.271   8.658 -0.8227 -0.8786 -0.1599
26804SOL    HW292137   4.847   0.396   8.591  1.3064  0.0384 -0.2315
26805SOL     OW92138   0.933   5.200   4.199  0.4550  0.3562  0.1379
26805SOL    HW192139   0.928   5.105   4.213 -1.6755  0.4132  0.1200
26805SOL    HW292140   0.895   5.213   4.112  1.2870  1.1859 -0.1061
26806SOL     OW92141   6.463   8.592   4.746  0.2631  0.0395  0.5094
26806SOL    HW192142   6.547   8.582   4.792  0.1166  1.6688  1.2056
26806SOL    HW292143   6.429   8.676   4.776 -1.4563 -0.4050 -0.0555
26807SOL     OW92144   2.542   1.920   0.020  0.3935 -0.6458 -0.3365
26807SOL    HW192145   2.619   1.925  -0.037  0.2512  0.3028 -0.4662
26807SOL    HW292146   2.532   1.827   0.038  1.3831 -0.8148 -0.5786
26808SOL     OW92147   5.898   3.835   0.362  0.0331  0.9280  0.1273
26808SOL    HW192148   5.869   3.897   0.295 -0.5593 -0.0851 -0.5802
26808SOL    HW292149   5.830   3.841   0.430  0.1154  1.2380  0.1851
26809SOL     OW92150  10.645   6.639   7.398 -0.4585  0.1490  0.2162
26809SOL    HW192151  10.739   6.633   7.378 -0.6068 -1.2646 -0.1561
26809SOL    HW292152  10.629   6.566   7.457 -1.0702  1.2084  1.3966
26810SOL     OW92153   6.579  10.613   9.980 -0.3601  0.3342 -0.4368
26810SOL    HW192154   6.618  10.699   9.993 -0.6360  0.5741 -1.1209
26810SOL    HW292155   6.501  10.630   9.927  0.0396 -0.4230 -1.3106
26811SOL     OW92156   1.409  11.427   8.768 -0.1252 -0.8703  0.1667
26811SOL    HW192157   1.389  11.404   8.678  0.2471 -0.9325  0.1011
26811SOL    HW292158   1.489  11.479   8.763  0.2079 -1.3416  0.5110
26812SOL     OW92159  10.637   2.352  10.306 -0.0195 -0.4476  0.2419
26812SOL    HW192160  10.613   2.371  10.216 -0.3911 -0.7517  0.2723
26812SOL    HW292161  10.733   2.345  10.305  0.0119  0.0042 -0.0330
26813SOL     OW92162   5.811   1.434   4.122 -0.7692  0.6230 -0.2285
26813SOL    HW192163   5.754   1.471   4.190 -0.8414 -0.3771  0.2683
26813SOL    HW292164   5.772   1.349   4.101  0.1076  0.2617 -0.4418
26814SOL     OW92165   3.791   4.869   5.697 -0.2610  0.1796  0.0239
26814SOL    HW192166   3.755   4.956   5.679  1.9355  1.5850  1.8827
26814SOL    HW292167   3.834   4.843   5.616 -1.0681  0.7511 -0.5954
26815SOL     OW92168  10.501   7.676   8.968  0.1667 -0.5425  0.2604
26815SOL    HW192169  10.493   7.620   8.890 -0.5727 -0.3234  0.1727
26815SOL    HW292170  10.465   7.760   8.940 -0.0905 -0.4613  0.8405
26816SOL     OW92171   9.541   9.726   9.769  0.1606 -0.4712 -0.2745
26816SOL    HW192172   9.567   9.635   9.785 -0.1986 -0.5591 -0.1971
26816SOL    HW292173   9.485   9.721   9.691 -1.5431 -0.5905  0.9177
26817SOL     OW92174   0.161   7.303   3.230  0.6130 -0.5063 -0.4121
26817SOL    HW192175   0.125   7.247   3.162 -1.7831  0.1030  0.2667
26817SOL    HW292176   0.167   7.390   3.190  0.7777 -0.4797 -0.3327
26818SOL     OW92177   1.776   6.767   5.724 -0.1357 -0.2652  0.4521
26818SOL    HW192178   1.740   6.851   5.752  0.8269 -0.4265  2.2942
26818SOL    HW292179   1.752   6.706   5.793 -0.3641 -1.4266 -0.6030
26819SOL     OW92180  11.710   6.638   0.101  0.1178 -0.4492 -0.3624
26819SOL    HW192181  11.766   6.575   0.147  0.5249 -0.1651 -0.4594
26819SOL    HW292182  11.759   6.720   0.103  0.6657 -0.6676 -2.2333
26820SOL     OW92183   5.895   7.203  11.818  0.0702 -0.1077 -0.0484
26820SOL    HW192184   5.941   7.156  11.748  0.5050 -0.3416  0.3896
26820SOL    HW292185   5.811   7.228  11.778  0.5633  0.3094 -0.8527
26821SOL     OW92186   5.668   9.040  11.841 -0.6386 -0.0370  0.2602
26821SOL    HW192187   5.741   9.100  11.823 -0.2256  0.3698  2.8747
26821SOL    HW292188   5.612   9.047  11.764  0.7012  1.7602 -0.6368
26822SOL     OW92189   6.392   0.352  11.694 -0.7993  0.2889  0.0407
26822SOL    HW192190   6.415   0.265  11.663 -1.5036 -0.3444  1.1931
26822SOL    HW292191   6.380   0.404  11.615 -1.3426 -0.9220 -0.6992
26823SOL     OW92192   4.210   0.725   3.809 -0.5610 -0.0488  0.3480
26823SOL    HW192193   4.178   0.726   3.899 -0.4145 -0.7014  0.4156
26823SOL    HW292194   4.167   0.799   3.767 -0.3749  0.4662  1.0399
26824SOL     OW92195   6.680   3.726   2.353  0.0982  0.2007  0.4614
26824SOL    HW192196   6.698   3.705   2.261  0.3016 -1.7430  0.9039
26824SOL    HW292197   6.766   3.744   2.390  0.2395 -0.8629  0.6775
26825SOL     OW92198   1.217   1.930  10.351 -0.4844 -0.4304 -0.2614
26825SOL    HW192199   1.198   1.855  10.294 -0.7666  1.9023 -3.5693
26825SOL    HW292200   1.133   1.950  10.392 -0.5064 -1.6061  0.3176
26826SOL     OW92201   4.203   2.787   8.968  0.4202 -0.2441  0.3476
26826SOL    HW192202   4.187   2.846   8.894 -1.0033  0.0600  0.8563
26826SOL    HW292203   4.289   2.812   9.000  0.3018  0.8267 -0.1162
26827SOL     OW92204   2.549   6.474   8.901 -0.2061  0.0514 -0.0830
26827SOL    HW192205   2.472   6.468   8.958 -1.2435 -0.4572 -1.4894
26827SOL    HW292206   2.544   6.397   8.845  1.2264  0.1240 -0.3405
26828SOL     OW92207   8.622   5.657   8.030  0.1098 -0.2086  0.0415
26828SOL    HW192208   8.563   5.590   8.066 -0.8691  0.3087 -0.5746
26828SOL    HW292209   8.615   5.730   8.091  1.2283 -0.6716  0.7477
26829SOL     OW92210   0.266  11.385  10.381 -0.0009  0.6379 -0.5270
26829SOL    HW192211   0.231  11.449  10.443 -2.4666 -0.1400 -0.9998
26829SOL    HW292212   0.242  11.300  10.418  1.4921  0.0322 -0.8804
26830SOL     OW92213   0.435  10.255   7.964  0.2810 -0.0191  0.4669
26830SOL    HW192214   0.507  10.292   7.912  0.3902  0.1988  0.7711
26830SOL    HW292215   0.466  10.168   7.989  0.4383  0.0733  0.5941
26831SOL     OW92216   8.553   6.772   4.792 -0.3252 -0.0318  0.6373
26831SOL    HW192217   8.614   6.759   4.864 -1.1237 -0.8188  1.1948
26831SOL    HW292218   8.499   6.847   4.819  0.5537  0.8518  0.0142
26832SOL     OW92219   2.722   2.058   3.027 -0.1752  0.3911  0.2818
26832SOL    HW192220   2.795   2.069   2.966 -0.6661 -1.8633 -0.8336
26832SOL    HW292221   2.762   2.056   3.113  0.8945  0.7073 -0.1928
26833SOL     OW92222   0.880   3.062   1.334 -0.2700  1.1476 -0.1159
26833SOL    HW192223   0.810   3.123   1.310 -0.5579  1.0931  0.5670
26833SOL    HW292224   0.957   3.118   1.345 -0.7096  1.5253  1.3049
26834SOL     OW92225   3.000   9.874   7.450 -0.2872 -0.1586 -0.1014
26834SOL    HW192226   2.944   9.896   7.375 -0.3785 -0.0866 -0.0122
26834SOL    HW292227   3.088   9.899   7.422 -0.5904  1.9253  0.6171
26835SOL     OW92228   1.646   9.966   8.086 -0.1634  0.1533 -0.2570
26835SOL    HW192229   1.718   9.984   8.026 -0.0743 -1.2007 -0.5889
26835SOL    HW292230   1.666  10.018   8.164  1.2360 -0.2712 -0.3030
26836SOL     OW92231   3.240   6.023   1.002 -1.1237 -0.2292  0.6953
26836SOL    HW192232   3.290   6.096   0.966 -1.0679 -1.4313 -1.9314
26836SOL    HW292233   3.306   5.965   1.040 -0.9124 -0.0126  0.6615
26837SOL     OW92234   9.918   2.574   1.732 -0.3949 -0.3278 -0.0995
26837SOL    HW192235   9.940   2.644   1.671  1.1253  0.4397  1.2715
26837SOL    HW292236  10.002   2.534   1.754 -1.0888 -1.6809  0.2368
26838SOL     OW92237   5.867   7.204   9.558  0.0975  0.7977  0.6370
26838SOL    HW192238   5.812   7.175   9.631  0.9359 -0.4013  0.8240
26838SOL    HW292239   5.932   7.135   9.549  0.4459  1.2853 -0.7887
26839SOL     OW92240   2.685   0.640   6.905  0.8408 -0.0746 -0.4403
26839SOL    HW192241   2.733   0.562   6.878  0.5957 -0.3907  0.0299
26839SOL    HW292242   2.603   0.636   6.857  0.8891 -0.0273 -0.5273
26840SOL     OW92243   2.112   2.105   2.292  0.2311 -0.3145 -0.8687
26840SOL    HW192244   2.121   2.009   2.293  2.5464 -0.1613 -0.0416
26840SOL    HW292245   2.130   2.131   2.383 -0.3083  0.9192 -1.1002
26841SOL     OW92246  10.393   2.862   7.456  0.8495 -0.1799  0.3216
26841SOL    HW192247  10.351   2.781   7.429  0.3373  0.3780 -0.5988
26841SOL    HW292248  10.332   2.931   7.429  2.3652  0.6637 -1.1129
26842SOL     OW92249   9.635   6.495  11.299 -0.2034 -0.1005 -0.3860
26842SOL    HW192250   9.667   6.477  11.211  1.9022 -2.4809  0.7105
26842SOL    HW292251   9.678   6.577  11.324  1.6990 -0.9907 -0.5561
26843SOL     OW92252  10.615   8.231   6.105  0.3490 -0.4507  0.9565
26843SOL    HW192253  10.527   8.242   6.071  0.5163  0.1907  0.7220
26843SOL    HW292254  10.627   8.304   6.166  0.8845 -0.2455  0.6198
26844SOL     OW92255   0.725   6.238   3.136  0.2030 -0.5996  0.1924
26844SOL    HW192256   0.805   6.205   3.096 -0.2180  0.3748 -1.5214
26844SOL    HW292257   0.740   6.228   3.230  1.6354 -1.9955 -0.1383
26845SOL     OW92258   9.457   4.740   8.129  0.0028  0.2052 -0.0473
26845SOL    HW192259   9.449   4.808   8.195  0.4962 -0.2371  0.4775
26845SOL    HW292260   9.388   4.677   8.150 -0.3024  0.4217 -0.3904
26846SOL     OW92261   4.711   8.811   8.177  0.4917  0.4462  0.3711
26846SOL    HW192262   4.733   8.739   8.117 -0.4540  0.6268 -0.2105
26846SOL    HW292263   4.793   8.858   8.187  0.3690  1.3203 -2.0563
26847SOL     OW92264   6.806   6.749   7.986 -0.4706  0.1466 -0.1044
26847SOL    HW192265   6.863   6.676   8.010  0.6256  0.8002 -0.6533
26847SOL    HW292266   6.796   6.741   7.891 -0.2401  0.7728 -0.1856
26848SOL     OW92267   2.795   2.156   1.950 -0.1964  0.2310  0.0577
26848SOL    HW192268   2.763   2.246   1.941  2.0564  1.1312  0.4387
26848SOL    HW292269   2.890   2.165   1.959  0.1286 -2.2247 -0.2465
26849SOL     OW92270   2.865   0.158   8.921 -0.0547  0.1057  0.8577
26849SOL    HW192271   2.845   0.122   9.007 -0.2933 -1.5302  0.1468
26849SOL    HW292272   2.799   0.120   8.863 -0.2588  1.6381  0.0298
26850SOL     OW92273   0.914  10.231   8.495  0.0721 -0.5376 -0.0382
26850SOL    HW192274   0.886  10.140   8.501  1.3486 -1.0071 -0.8382
26850SOL    HW292275   0.987  10.238   8.557 -0.6946  0.2342  0.8126
26851SOL     OW92276  11.404   5.085   6.226  0.1459  0.6974 -0.1670
26851SOL    HW192277  11.462   5.151   6.186 -1.0774  0.4056 -2.5865
26851SOL    HW292278  11.461   5.010   6.243  0.8530  1.1100 -0.6869
26852SOL     OW92279   8.960   4.784   8.273 -0.4331 -0.7107  0.6502
26852SOL    HW192280   8.868   4.760   8.279 -1.1247  1.4928 -0.1865
26852SOL    HW292281   8.981   4.777   8.180  0.4654 -1.8253  0.9113
26853SOL     OW92282   4.415   7.188  10.876  0.1911 -0.1638 -0.2107
26853SOL    HW192283   4.451   7.104  10.905  2.0317  1.3279  2.2338
26853SOL    HW292284   4.380   7.227  10.956  0.9667  2.1163 -0.9275
26854SOL     OW92285   7.643   3.435   0.388 -0.6792  0.1465 -0.5843
26854SOL    HW192286   7.652   3.523   0.352  0.3052  0.5382  0.5527
26854SOL    HW292287   7.637   3.378   0.311  0.7646  0.9966 -1.3729
26855SOL     OW92288   5.834   3.912   2.266  0.1398  0.0025  0.3368
26855SOL    HW192289   5.772   3.870   2.326  0.3106 -3.0581 -1.4094
26855SOL    HW292290   5.793   3.904   2.180  2.3728 -1.0181 -0.7074
26856SOL     OW92291  11.523   7.120   1.735 -0.6615 -0.2389  0.1956
26856SOL    HW192292  11.435   7.148   1.762 -0.7045  0.0906 -0.2665
26856SOL    HW292293  11.581   7.189   1.766 -0.7851  0.4874 -1.0806
26857SOL     OW92294   7.700   2.477  11.897  0.4539 -0.3947 -0.0129
26857SOL    HW192295   7.753   2.535  11.951 -0.8817  1.4736 -0.6082
26857SOL    HW292296   7.764   2.425  11.848  1.8200  1.8576 -0.8004
26858SOL     OW92297   7.207   0.366   5.038 -0.6986  0.4733 -0.2551
26858SOL    HW192298   7.115   0.341   5.029 -0.7258  0.6072 -0.3539
26858SOL    HW292299   7.246   0.297   5.092 -0.3100 -0.8831 -2.1550
26859SOL     OW92300  10.073   2.901   2.737 -0.0035 -0.0435  0.1348
26859SOL    HW192301  10.081   2.816   2.779  2.4799 -1.1449 -2.2352
26859SOL    HW292302  10.131   2.958   2.787 -0.0633 -0.3047  0.5017
26860SOL     OW92303   0.600   2.853   1.777  0.6673  0.4225  0.0333
26860SOL    HW192304   0.604   2.761   1.801  2.4355  0.5856  0.4774
26860SOL    HW292305   0.534   2.857   1.708  1.6415 -1.4234 -1.0628
26861SOL     OW92306  11.493   4.728   3.635 -0.1888 -0.1883 -0.4307
26861SOL    HW192307  11.469   4.686   3.552 -1.1131 -1.6404  0.5386
26861SOL    HW292308  11.425   4.701   3.697 -0.2053  1.8613  0.5387
26862SOL     OW92309   7.602  11.091   9.510  0.2144 -0.1856  0.0911
26862SOL    HW192310   7.631  11.139   9.433 -2.3519  0.1418 -0.7543
26862SOL    HW292311   7.538  11.148   9.551 -0.6378 -1.6011  0.8072
26863SOL     OW92312  11.506  10.003   3.296  0.5457  0.1255 -0.2675
26863SOL    HW192313  11.577  10.068   3.298  2.3603 -1.7240 -1.2164
26863SOL    HW292314  11.510   9.960   3.382 -1.6858  2.1397  1.0062
26864SOL     OW92315   8.750   7.890   6.656 -0.0794  0.1925 -0.0596
26864SOL    HW192316   8.827   7.835   6.666  0.0540  0.2169 -0.8612
26864SOL    HW292317   8.713   7.864   6.571  1.0417  2.5894 -1.3780
26865SOL     OW92318   3.509   2.514   5.639 -0.2208 -0.1565 -0.0606
26865SOL    HW192319   3.515   2.573   5.564  2.1522  0.4699  0.5234
26865SOL    HW292320   3.562   2.438   5.614 -0.4374 -0.4931  0.4874
26866SOL     OW92321   4.037   1.082   6.114  0.1129  0.7484  0.6412
26866SOL    HW192322   4.074   1.065   6.028 -1.3541 -0.1217  0.1430
26866SOL    HW292323   4.043   1.176   6.125  0.0476  0.9081 -0.5509
26867SOL     OW92324   1.348   6.136   8.100  0.1918  0.3984 -0.1432
26867SOL    HW192325   1.325   6.046   8.124  2.2524 -0.1490  0.0454
26867SOL    HW292326   1.393   6.170   8.178  1.1669  0.8842 -0.8877
26868SOL     OW92327  11.580   0.619   6.053  0.1007 -0.1721 -0.9916
26868SOL    HW192328  11.652   0.667   6.013 -0.2231  0.0620 -1.3038
26868SOL    HW292329  11.538   0.573   5.980  0.0745 -0.4922 -0.7784
26869SOL     OW92330   7.829   2.090  11.804 -0.3634 -0.3923  0.0304
26869SOL    HW192331   7.870   2.174  11.784  0.9392 -1.3305 -1.4682
26869SOL    HW292332   7.889   2.025  11.768 -1.6748 -1.9545  0.5553
26870SOL     OW92333   6.053   5.111   0.219  0.2729 -0.3061 -0.1159
26870SOL    HW192334   5.980   5.149   0.268 -0.0693 -1.5975  0.4119
26870SOL    HW292335   6.131   5.138   0.267 -0.0555 -1.4906  1.1302
26871SOL     OW92336   5.433   8.156   2.284 -0.0884  0.5592  0.7129
26871SOL    HW192337   5.390   8.148   2.370  0.8307 -0.9278  1.0806
26871SOL    HW292338   5.472   8.243   2.284 -0.1985  0.6236  1.7725
26872SOL     OW92339   9.371   0.015  10.103 -0.3090 -0.3037  0.3530
26872SOL    HW192340   9.452  -0.002  10.152  0.5554  0.9032 -0.5922
26872SOL    HW292341   9.302  -0.024  10.157  0.8850 -1.2617  1.2381
26873SOL     OW92342  10.713   0.758   5.546  0.2080  0.0922 -0.2520
26873SOL    HW192343  10.711   0.678   5.599  1.6897 -0.5428 -1.1178
26873SOL    HW292344  10.645   0.745   5.480 -1.5576  0.8267  1.3197
26874SOL     OW92345   3.767   6.485   3.655 -0.0627 -0.2221 -0.1420
26874SOL    HW192346   3.684   6.510   3.696 -0.5735 -0.8198 -0.7799
26874SOL    HW292347   3.761   6.521   3.566  0.6078  0.2131 -0.0148
26875SOL     OW92348   8.777   7.260   8.604 -0.0983 -0.3537 -0.4019
26875SOL    HW192349   8.782   7.201   8.679  1.2767 -0.6818 -0.7137
26875SOL    HW292350   8.698   7.233   8.557 -1.6865  0.6637  1.5472
26876SOL     OW92351   5.383   5.282  10.846  0.2658 -0.3234 -0.2685
26876SOL    HW192352   5.378   5.360  10.903 -0.0369 -1.4101  1.2569
26876SOL    HW292353   5.304   5.287  10.793 -0.8832 -0.6436  1.3105
26877SOL     OW92354   0.908   6.187   5.830 -0.2285 -0.1406 -0.1416
26877SOL    HW192355   0.849   6.253   5.793  0.9847 -0.2730 -2.4703
26877SOL    HW292356   0.904   6.202   5.924 -1.3990  2.0311 -0.4712
26878SOL     OW92357  11.941   6.359   6.222 -0.3316  0.4696  0.0607
26878SOL    HW192358  11.862   6.398   6.261 -0.5913  0.9987 -0.9604
26878SOL    HW292359  11.952   6.406   6.140  0.7978  0.0792 -0.0215
26879SOL     OW92360   3.003  10.884   8.116 -0.1745 -0.6555  0.1774
26879SOL    HW192361   3.062  10.809   8.109  1.3233  0.5186 -0.3307
26879SOL    HW292362   3.007  10.926   8.030 -0.4045  0.4061  0.6625
26880SOL     OW92363   7.381  10.712  10.122 -0.1691 -0.1146 -0.3622
26880SOL    HW192364   7.410  10.795  10.160 -1.5414  0.6725 -0.9623
26880SOL    HW292365   7.457  10.654  10.131  1.2591  1.5602 -1.0504
26881SOL     OW92366   4.937   8.382   3.948 -0.2619  0.1555  0.1847
26881SOL    HW192367   4.966   8.460   3.899 -0.9811  0.7493  0.6910
26881SOL    HW292368   4.847   8.401   3.972 -0.5772 -1.0189 -0.0288
26882SOL     OW92369   2.559   5.988  10.177  0.1395  0.6122  0.6387
26882SOL    HW192370   2.590   5.907  10.137 -0.5222 -1.0220  3.2634
26882SOL    HW292371   2.464   5.983  10.172  0.0849  2.0288 -0.5584
26883SOL     OW92372   1.732   1.949   2.673  0.0604 -0.0018  0.3077
26883SOL    HW192373   1.658   1.980   2.725 -0.0107 -1.3247  1.0445
26883SOL    HW292374   1.808   1.964   2.730  0.7556  3.4237 -1.2797
26884SOL     OW92375  10.909   1.123   8.252  0.1699  0.1311  0.3734
26884SOL    HW192376  10.997   1.112   8.218 -0.6919 -0.2043 -1.9176
26884SOL    HW292377  10.883   1.035   8.281  0.1740 -0.0191 -0.0698
26885SOL     OW92378  11.038  11.039   6.762 -0.0475 -0.4928 -0.1322
26885SOL    HW192379  11.013  10.952   6.792  0.5267 -0.0478  1.8390
26885SOL    HW292380  10.968  11.066   6.702 -0.5305 -2.0591 -0.3038
26886SOL     OW92381   1.550   0.724   2.785 -0.2659  0.2393  0.1869
26886SOL    HW192382   1.500   0.805   2.787 -1.3914 -0.4429  1.5413
26886SOL    HW292383   1.591   0.723   2.699 -1.7244  1.3606 -0.5563
26887SOL     OW92384   1.311   1.030   5.259 -0.0397  0.0720 -0.1724
26887SOL    HW192385   1.395   1.025   5.215  1.5554 -0.5849  2.6801
26887SOL    HW292386   1.256   0.965   5.214  0.9525  0.4724 -2.0436
26888SOL     OW92387   2.901  10.994   7.872 -0.1718 -0.2107 -0.0678
26888SOL    HW192388   2.833  11.001   7.939 -1.9617  0.1398 -1.8234
26888SOL    HW292389   2.890  10.906   7.836  2.3210 -1.3063  1.5665
26889SOL     OW92390   4.663  11.106   3.248  0.6526  0.1392 -0.5852
26889SOL    HW192391   4.720  11.158   3.192  0.3201  0.4067 -0.6805
26889SOL    HW292392   4.721  11.070   3.314  1.2194 -1.0011 -1.6735
26890SOL     OW92393   7.654   4.545   3.124  0.4973  0.0126 -0.3661
26890SOL    HW192394   7.706   4.602   3.180 -1.6809  0.7852  1.0470
26890SOL    HW292395   7.581   4.517   3.181 -0.2178 -1.6075 -1.9763
26891SOL     OW92396   1.851   3.224   4.926  0.2658  0.1487 -0.3674
26891SOL    HW192397   1.849   3.138   4.968 -0.1054  1.0281  1.5233
26891SOL    HW292398   1.931   3.265   4.957  0.6889  0.3223 -1.6431
26892SOL     OW92399   2.783   3.583  10.740  0.0562  0.5816 -0.4426
26892SOL    HW192400   2.799   3.676  10.757  0.5475  0.4457 -0.1373
26892SOL    HW292401   2.689   3.577  10.728  0.1279  1.2839 -1.4884
26893SOL     OW92402  10.730   9.581   5.532  0.1761 -0.4609  0.2447
26893SOL    HW192403  10.702   9.668   5.501  3.4388  0.3619 -0.8368
26893SOL    HW292404  10.725   9.587   5.627  1.4934  1.4481  0.2613
26894SOL     OW92405   4.658   3.427   8.698  0.8270  0.3641 -0.4435
26894SOL    HW192406   4.701   3.498   8.745 -1.1529 -0.8930  3.7779
26894SOL    HW292407   4.685   3.347   8.744 -1.1497 -1.0414 -1.5430
26895SOL     OW92408   0.741   7.279  10.738  0.0194 -0.0182 -0.0462
26895SOL    HW192409   0.750   7.185  10.724  0.2250 -0.2562  1.4595
26895SOL    HW292410   0.748   7.318  10.651 -0.5182 -1.4242 -0.7484
26896SOL     OW92411   0.039   2.923  10.342 -0.6026  0.1422 -0.5699
26896SOL    HW192412   0.066   2.982  10.272  1.3759  1.1137  0.8958
26896SOL    HW292413  -0.031   2.969  10.387 -0.8307  0.1944 -0.9699
26897SOL     OW92414   1.878   6.719   6.429 -0.1672 -0.4963  0.4150
26897SOL    HW192415   1.961   6.676   6.408 -0.4664 -1.0925  0.4224
26897SOL    HW292416   1.878   6.726   6.524 -0.5899 -1.4629  0.4926
26898SOL     OW92417   3.111   7.960   9.796 -0.3860  0.3452 -0.1167
26898SOL    HW192418   3.170   7.951   9.870  2.5044  1.5239 -2.1146
26898SOL    HW292419   3.071   8.046   9.806  1.1704  1.1670 -0.6217
26899SOL     OW92420  11.157   4.562  11.506  0.6203 -0.2295  0.1970
26899SOL    HW192421  11.171   4.483  11.454 -0.3120 -0.2609 -0.0118
26899SOL    HW292422  11.230   4.620  11.480  0.0277 -0.1336 -1.3761
26900SOL     OW92423   6.114   3.085   2.563  0.2250 -0.8152  0.4367
26900SOL    HW192424   6.113   3.181   2.556 -0.4822 -0.9066 -1.4133
26900SOL    HW292425   6.169   3.057   2.490  0.0592 -1.8371  0.6966
26901SOL     OW92426   1.367   8.782   8.764  0.0634  0.2243  0.1322
26901SOL    HW192427   1.291   8.818   8.811 -0.7378  0.4388 -1.2752
26901SOL    HW292428   1.332   8.710   8.712  1.1640 -0.8136  0.7764
26902SOL     OW92429   8.869   3.396   6.348  0.2696 -0.3716  0.3843
26902SOL    HW192430   8.822   3.479   6.357  1.1027  0.1302  0.1928
26902SOL    HW292431   8.935   3.413   6.281  1.7333 -0.5862  1.7195
26903SOL     OW92432   0.034  11.771   3.925 -0.6676 -0.1454 -0.4729
26903SOL    HW192433   0.123  11.784   3.959 -0.3719 -1.2016 -0.7984
26903SOL    HW292434   0.033  11.680   3.896 -1.2471  0.3655 -2.2252
26904SOL     OW92435   5.481   1.706   7.778  0.4564 -0.1069 -0.4556
26904SOL    HW192436   5.506   1.744   7.694  0.8324 -1.9709 -1.2394
26904SOL    HW292437   5.538   1.751   7.842  2.8208 -1.1751 -1.6726
26905SOL     OW92438  10.034   0.832  10.286 -0.1886  0.1247  0.3372
26905SOL    HW192439  10.073   0.810  10.370  0.3359  0.2483  0.1276
26905SOL    HW292440   9.965   0.896  10.308  1.0534  1.4670  0.5141
26906SOL     OW92441   5.418   4.624   2.450 -0.0080  0.3270 -0.3141
26906SOL    HW192442   5.513   4.640   2.449  0.1396 -0.4522 -1.8342
26906SOL    HW292443   5.394   4.617   2.357 -1.6914  1.1937  0.0206
26907SOL     OW92444   7.821   6.605   7.563 -0.5546 -0.4184  0.6090
26907SOL    HW192445   7.889   6.656   7.607  0.0638 -1.0438  0.3840
26907SOL    HW292446   7.760   6.671   7.530  0.1522  0.1729  0.4560
26908SOL     OW92447   4.458  10.179   4.133 -0.2446 -0.4713  0.9596
26908SOL    HW192448   4.410  10.211   4.057 -0.4242 -1.4664  0.6397
26908SOL    HW292449   4.401  10.199   4.207 -1.2167 -1.7066  0.5760
26909SOL     OW92450  11.924   1.967   1.351  0.0682  0.1498  0.0464
26909SOL    HW192451  11.928   1.925   1.437  1.0454  1.9397  0.9398
26909SOL    HW292452  11.987   1.918   1.297  1.4059  0.5868  1.1419
26910SOL     OW92453   0.089  11.914   9.909  0.1468 -0.0247 -0.3766
26910SOL    HW192454   0.062  11.884   9.996  1.3658 -0.9124 -0.2748
26910SOL    HW292455   0.008  11.943   9.867 -0.6854 -0.9854  0.5039
26911SOL     OW92456   5.028   3.340   6.317  0.0978 -0.0511  0.3063
26911SOL    HW192457   4.944   3.312   6.354 -0.2821 -1.1541 -1.3013
26911SOL    HW292458   5.005   3.400   6.247  0.7928  1.6145  1.4389
26912SOL     OW92459   5.772  11.255   9.645  0.2315  0.6315  0.0329
26912SOL    HW192460   5.724  11.311   9.584  1.5446  1.2918 -0.4275
26912SOL    HW292461   5.707  11.229   9.710 -0.6913  1.6735 -0.4507
26913SOL     OW92462   5.423  11.227   6.044 -0.3262  0.5009  0.0340
26913SOL    HW192463   5.469  11.257   5.966  0.1844  0.0413  0.1453
26913SOL    HW292464   5.371  11.302   6.073  2.0763  1.8304  1.1890
26914SOL     OW92465   8.516  10.389   1.150 -0.1113 -0.2031 -0.7748
26914SOL    HW192466   8.507  10.294   1.159  0.5930 -0.1689  0.5451
26914SOL    HW292467   8.443  10.424   1.202 -1.0390 -0.0003 -2.1574
26915SOL     OW92468   7.426   4.657   2.807 -0.2196  0.0157  0.1444
26915SOL    HW192469   7.419   4.734   2.750 -0.3863 -0.1878 -0.1066
26915SOL    HW292470   7.480   4.595   2.758 -0.4485 -0.2009  0.1684
26916SOL     OW92471   8.037   4.207   5.109 -0.1755 -0.3120 -0.0470
26916SOL    HW192472   8.046   4.114   5.085 -0.0371 -0.3077 -0.0150
26916SOL    HW292473   8.018   4.251   5.026 -2.1558 -0.6043  0.1919
26917SOL     OW92474   3.689   5.939   8.855 -0.0087 -0.3040  0.7427
26917SOL    HW192475   3.772   5.891   8.864  2.1077  3.0450  0.8168
26917SOL    HW292476   3.674   5.942   8.761 -0.4631 -1.4743  0.7581
26918SOL     OW92477   5.492   3.857   5.457 -0.1576  0.3730  0.3713
26918SOL    HW192478   5.498   3.949   5.431 -0.9513  0.2976 -0.0938
26918SOL    HW292479   5.399   3.843   5.476 -0.0389 -0.3210  0.4709
26919SOL     OW92480  10.042   5.836  10.761 -0.1626  0.1826 -0.7320
26919SOL    HW192481  10.113   5.863  10.820  1.0731  0.2346 -2.1831
26919SOL    HW292482   9.990   5.915  10.748  0.3711  0.5287 -0.7990
26920SOL     OW92483   2.962   0.561   5.819  0.0894  0.5349 -0.5262
26920SOL    HW192484   2.955   0.655   5.837 -0.2128  0.3739  0.2216
26920SOL    HW292485   2.891   0.522   5.870  1.4973 -0.3296  0.8600
26921SOL     OW92486   5.875   4.471  11.798 -0.1383  0.2562  0.3073
26921SOL    HW192487   5.803   4.408  11.807  0.0810  0.1649  1.5682
26921SOL    HW292488   5.939   4.443  11.863  1.6170 -0.3864 -1.5977
26922SOL     OW92489   2.610   9.513  10.337  0.1980 -0.1523  0.4156
26922SOL    HW192490   2.521   9.528  10.305  0.0578 -1.6814  0.0415
26922SOL    HW292491   2.599   9.496  10.431  0.4403  2.5650  1.0490
26923SOL     OW92492   4.092   0.781   0.104 -0.0609  0.2819  0.2668
26923SOL    HW192493   4.057   0.763   0.191  0.3366 -0.5266  0.2695
26923SOL    HW292494   4.156   0.852   0.119 -0.1234  0.2717  0.6047
26924SOL     OW92495   6.913   0.960   6.555 -0.3145 -0.1123  0.3157
26924SOL    HW192496   6.883   1.048   6.534  0.9746  0.3078  0.1201
26924SOL    HW292497   6.972   0.972   6.629 -2.5350 -1.2316  2.3919
26925SOL     OW92498   4.582   0.536   9.898 -0.0186 -0.4543  0.4180
26925SOL    HW192499   4.548   0.554   9.986 -0.0670  0.0459  0.2993
26925SOL    HW292500   4.598   0.622   9.860 -2.9618 -0.5004 -1.2136
26926SOL     OW92501   6.424  10.541   4.222  0.0494 -0.2814 -0.5831
26926SOL    HW192502   6.331  10.563   4.210  0.3239  0.3793 -1.5424
26926SOL    HW292503   6.452  10.595   4.295 -0.1720 -0.0469 -0.6688
26927SOL     OW92504   0.538   6.119   0.600  0.3614 -0.9370  0.1844
26927SOL    HW192505   0.545   6.066   0.520  5.6817  0.0748 -0.3816
26927SOL    HW292506   0.549   6.056   0.671 -2.5857 -1.5896  0.1879
26928SOL     OW92507   1.208   4.023   6.891 -0.3969  0.3877  0.0358
26928SOL    HW192508   1.155   4.074   6.953  0.4761 -1.0086  2.0230
26928SOL    HW292509   1.275   4.085   6.861 -1.1149  1.2237  0.0956
26929SOL     OW92510  11.792   4.362   8.954 -0.0642  0.0842  0.3058
26929SOL    HW192511  11.771   4.345   9.045  2.1669  3.1054  1.5431
26929SOL    HW292512  11.734   4.434   8.929  0.0308 -0.0594 -0.3480
26930SOL     OW92513   1.043   3.185   8.338 -0.1080 -0.2975 -0.1981
26930SOL    HW192514   1.045   3.101   8.291  0.1527  0.3058 -1.2940
26930SOL    HW292515   1.125   3.228   8.314 -1.2017  1.2049 -1.4099
26931SOL     OW92516   5.888   4.808   7.604 -0.5412 -0.3878 -0.0480
26931SOL    HW192517   5.834   4.887   7.612  0.9997  0.7029  0.0020
26931SOL    HW292518   5.921   4.792   7.693  1.1195  0.3885 -0.4855
26932SOL     OW92519   8.051   9.150   2.933  0.2493 -0.4234 -0.6665
26932SOL    HW192520   8.021   9.095   3.005 -0.9259 -0.3454 -1.0674
26932SOL    HW292521   7.973   9.201   2.908  0.7336 -0.1784 -1.7325
26933SOL     OW92522   5.672   1.111   3.300  0.2998 -0.1050 -0.0023
26933SOL    HW192523   5.651   1.204   3.304 -2.8900 -0.6455 -0.9717
26933SOL    HW292524   5.679   1.093   3.206  1.7155 -0.7331  0.2015
26934SOL     OW92525   8.976   4.456  11.388 -0.1155  0.5116  0.6797
26934SOL    HW192526   8.931   4.528  11.431 -0.6646  0.0126  0.9613
26934SOL    HW292527   9.044   4.429  11.449 -0.8551 -0.1567  1.2323
26935SOL     OW92528   0.873   2.712  10.696  0.3134 -0.0693 -0.2265
26935SOL    HW192529   0.857   2.718  10.602  3.5190  1.2105 -0.8279
26935SOL    HW292530   0.920   2.629  10.706  0.7833  0.2287  0.0685
26936SOL     OW92531   9.456   5.445   5.325 -0.0858  0.4695 -0.0233
26936SOL    HW192532   9.453   5.528   5.278  0.1006  1.0986  1.0466
26936SOL    HW292533   9.543   5.410   5.306  0.6927  1.6070  1.2994
26937SOL     OW92534   6.777   8.182  10.036  0.0417 -0.1137 -0.3498
26937SOL    HW192535   6.811   8.235  10.108  0.7115 -0.3042 -0.5126
26937SOL    HW292536   6.703   8.134  10.073 -0.8084  1.1977 -0.2966
26938SOL     OW92537   7.920   2.013   3.071 -0.5119  0.2573  0.4929
26938SOL    HW192538   8.002   1.977   3.038 -0.3759  1.7717 -0.9461
26938SOL    HW292539   7.853   1.950   3.044 -0.1260  0.3316 -0.6818
26939SOL     OW92540   0.712   5.056   0.291  0.9379 -0.1114 -0.1452
26939SOL    HW192541   0.739   5.005   0.368 -0.5582 -0.5606  0.0985
26939SOL    HW292542   0.763   5.137   0.298 -0.7325  0.8447  2.5864
26940SOL     OW92543   2.338   0.941   2.675 -0.5629 -0.0766  0.6564
26940SOL    HW192544   2.352   1.025   2.630  2.1366  0.4564  2.3087
26940SOL    HW292545   2.337   0.876   2.604  1.6298  0.9350 -0.3891
26941SOL     OW92546   0.944   5.480  10.401  0.8218  0.7251 -0.1785
26941SOL    HW192547   0.998   5.559  10.400  1.0030  0.6150  0.4539
26941SOL    HW292548   0.930   5.461  10.494  2.4377 -1.1220 -0.2423
26942SOL     OW92549   2.600   3.673   5.366 -0.0370  0.2985  0.4859
26942SOL    HW192550   2.618   3.750   5.311  0.0079  0.8269  1.2279
26942SOL    HW292551   2.676   3.617   5.355 -0.5079 -0.1383 -0.8655
26943SOL     OW92552   1.553   1.632   9.688 -0.5252  0.5567  0.1278
26943SOL    HW192553   1.595   1.693   9.750 -0.1212  0.7205 -0.2989
26943SOL    HW292554   1.604   1.642   9.608 -2.0913  1.6392 -0.7878
26944SOL     OW92555  11.467   1.302   3.091  0.1905  0.1748  0.1101
26944SOL    HW192556  11.481   1.377   3.149  0.6234 -1.8072  2.7584
26944SOL    HW292557  11.465   1.227   3.149  1.0938 -2.0742 -2.5269
26945SOL     OW92558   6.222   8.022  11.567  0.3902 -0.2186 -0.8417
26945SOL    HW192559   6.301   7.998  11.520 -0.3558 -3.3805 -0.7562
26945SOL    HW292560   6.156   8.036  11.499  0.7480  1.4365 -0.8781
26946SOL     OW92561   0.354   3.047   7.939  0.1813 -0.1284 -0.3910
26946SOL    HW192562   0.357   2.952   7.951  0.0050 -0.0318  0.4729
26946SOL    HW292563   0.263   3.070   7.957  0.3683  0.2795  0.0570
26947SOL     OW92564   0.432   8.321   8.574  1.2426  0.0112 -0.2743
26947SOL    HW192565   0.503   8.275   8.619  0.8871  0.4472  0.7750
26947SOL    HW292566   0.390   8.374   8.643 -0.1428 -0.2856 -0.8476
26948SOL     OW92567   3.117  11.265   6.936 -0.3269 -0.8371 -0.2831
26948SOL    HW192568   3.080  11.299   7.018  0.2056 -0.3157 -0.2494
26948SOL    HW292569   3.042  11.251   6.880 -0.7422 -1.6129  0.4436
26949SOL     OW92570   9.969   2.724   2.526 -0.4704 -0.2164  0.0598
26949SOL    HW192571   9.946   2.779   2.451 -0.8799 -0.6840 -0.1665
26949SOL    HW292572  10.027   2.778   2.579  0.1813 -0.0370 -0.8141
26950SOL     OW92573   2.489   4.979   0.586 -0.5750 -0.0259  0.1004
26950SOL    HW192574   2.558   4.980   0.519 -0.7186 -2.3679 -0.1503
26950SOL    HW292575   2.450   5.067   0.581  1.6954  1.0380 -0.4363
26951SOL     OW92576  10.878   7.664   0.093 -0.3443 -0.2602 -0.0473
26951SOL    HW192577  10.950   7.651   0.156 -0.3119 -2.0876 -0.3931
26951SOL    HW292578  10.921   7.661   0.008 -0.8068 -1.3532 -0.2549
26952SOL     OW92579   5.724   1.677   8.792 -0.5195  0.0434  0.1670
26952SOL    HW192580   5.784   1.636   8.855 -0.2002 -1.8133 -1.2725
26952SOL    HW292581   5.701   1.761   8.833  0.9132 -0.3832  2.0067
26953SOL     OW92582   5.519  10.793   2.556 -0.6765 -0.2821  0.3361
26953SOL    HW192583   5.562  10.759   2.478  1.2135 -0.6416  1.4630
26953SOL    HW292584   5.485  10.716   2.601  0.3714 -0.3646  1.0380
26954SOL     OW92585   0.782  10.689   9.367  0.0315 -0.2929  0.0455
26954SOL    HW192586   0.799  10.662   9.277 -2.9423 -1.4512 -0.2859
26954SOL    HW292587   0.768  10.783   9.361 -1.6452 -0.5633 -1.0503
26955SOL     OW92588   3.014   0.668   8.840  0.2037  0.2054  0.6596
26955SOL    HW192589   3.086   0.605   8.834 -1.7814 -2.1296 -0.3144
26955SOL    HW292590   2.942   0.617   8.878 -1.8444  1.5385 -1.2259
26956SOL     OW92591   4.886   7.314   9.810 -0.4211  0.4988  0.1699
26956SOL    HW192592   4.946   7.289   9.880 -0.5161 -1.1974 -0.2977
26956SOL    HW292593   4.939   7.314   9.731 -0.9162 -0.6788 -0.1941
26957SOL     OW92594   3.965   6.266   0.038  1.5782  0.2231 -0.2942
26957SOL    HW192595   3.892   6.211   0.010 -2.0731  3.5770  1.4299
26957SOL    HW292596   3.978   6.328  -0.034 -0.2118  2.0470  0.8242
26958SOL     OW92597   0.961   3.589   5.457 -0.0815  0.6624 -0.0134
26958SOL    HW192598   0.868   3.607   5.439  0.1213  1.1613 -0.5826
26958SOL    HW292599   0.974   3.623   5.546 -0.6278 -0.1188  0.3782
26959SOL     OW92600   5.388   0.944   0.052  0.1063 -0.2213 -0.3187
26959SOL    HW192601   5.364   0.904  -0.031  0.9413  1.9457 -1.7031
26959SOL    HW292602   5.477   0.914   0.069 -0.0470 -0.6273 -0.2285
26960SOL     OW92603   4.491   3.550  10.601  0.4688  0.8572  0.5542
26960SOL    HW192604   4.527   3.514  10.520  1.0262  1.9153  0.3143
26960SOL    HW292605   4.565   3.548  10.663  0.3620  1.1058  0.6914
26961SOL     OW92606   4.447   5.021   1.506  0.4089  0.0154  0.1892
26961SOL    HW192607   4.479   4.989   1.590  0.9948 -0.1700 -0.1024
26961SOL    HW292608   4.358   5.051   1.524  1.0726  1.4524  1.2226
26962SOL     OW92609   0.749   2.003  11.479  0.3909  0.0708 -0.1006
26962SOL    HW192610   0.825   1.966  11.435 -0.4939  0.0311 -1.6479
26962SOL    HW292611   0.715   1.931  11.532  0.5677 -0.3526 -0.5530
26963SOL     OW92612   2.580   3.384   6.425  0.4302 -0.1557  0.0963
26963SOL    HW192613   2.640   3.320   6.462 -0.3370  0.4562  2.6506
26963SOL    HW292614   2.493   3.346   6.440  0.0637  0.2948 -0.8250
26964SOL     OW92615   8.636  10.716   6.214 -0.3000 -0.2976 -0.2517
26964SOL    HW192616   8.699  10.772   6.169 -0.9587  0.6215 -0.0614
26964SOL    HW292617   8.553  10.763   6.209 -0.8867 -1.2735 -0.1001
26965SOL     OW92618   8.779   1.589   6.961  0.1662  0.0275 -0.0343
26965SOL    HW192619   8.867   1.586   6.922  0.1446  0.2303 -0.0964
26965SOL    HW292620   8.724   1.629   6.894 -0.3902 -1.8672 -0.7695
26966SOL     OW92621   6.268   6.932   5.825 -0.2849  0.8326 -0.4536
26966SOL    HW192622   6.179   6.921   5.790 -1.2329  0.6995  1.8374
26966SOL    HW292623   6.321   6.950   5.747 -1.9750 -0.8235 -2.1126
26967SOL     OW92624   5.502   5.739   0.496 -0.0560  0.5098 -0.3885
26967SOL    HW192625   5.585   5.717   0.539  0.9640  0.9219 -2.0779
26967SOL    HW292626   5.456   5.793   0.560  0.3989 -0.7769  1.0864
26968SOL     OW92627   5.787   4.444  10.365 -0.1711 -0.2867  0.0752
26968SOL    HW192628   5.826   4.517  10.413  0.0143 -0.6397  0.4603
26968SOL    HW292629   5.862   4.395  10.331 -0.2972 -0.0609 -0.5605
26969SOL     OW92630   5.857   7.531   4.640 -0.2819 -0.2683 -0.8378
26969SOL    HW192631   5.836   7.609   4.589 -0.9965 -0.9423 -1.5966
26969SOL    HW292632   5.899   7.565   4.719 -1.1130  0.9185 -0.8820
26970SOL     OW92633   5.823   0.319   3.573  0.2209  0.2843  0.2912
26970SOL    HW192634   5.761   0.279   3.511 -0.7407  0.9498  0.8016
26970SOL    HW292635   5.909   0.307   3.531 -0.4179  0.8874 -1.2684
26971SOL     OW92636  11.632   2.441   5.513 -0.3620 -0.0266 -0.2895
26971SOL    HW192637  11.631   2.384   5.590  2.5407 -0.9175 -0.8058
26971SOL    HW292638  11.540   2.467   5.502 -0.9698 -0.1980  3.1691
26972SOL     OW92639   6.546   7.879   4.681 -0.2871 -0.1198 -0.1052
26972SOL    HW192640   6.603   7.821   4.631 -1.4082 -0.7507 -0.6853
26972SOL    HW292641   6.499   7.822   4.741 -1.7029  0.0974 -0.9638
26973SOL     OW92642   6.594   9.491   1.575 -0.4927 -0.2218  0.0743
26973SOL    HW192643   6.685   9.484   1.546 -0.3865 -1.4112  0.6538
26973SOL    HW292644   6.542   9.464   1.499 -0.4297  1.3018 -0.5531
26974SOL     OW92645   4.836   4.582   4.635 -0.0895 -0.0718 -0.2778
26974SOL    HW192646   4.856   4.554   4.546  1.3781 -0.2020  0.0800
26974SOL    HW292647   4.842   4.502   4.687  1.9384  0.4667  0.3856
26975SOL     OW92648   6.238   4.540   6.554  0.0638  0.1713  0.3160
26975SOL    HW192649   6.154   4.524   6.597  1.5352 -2.0056  2.6556
26975SOL    HW292650   6.287   4.592   6.618  0.9562  0.3256 -0.4810
26976SOL     OW92651   3.031   2.485  11.728 -0.0174  0.2195  0.1246
26976SOL    HW192652   2.988   2.468  11.644  0.1110 -2.4443  0.4891
26976SOL    HW292653   2.966   2.533  11.778 -0.1043  1.8501 -1.4598
26977SOL     OW92654   6.458   4.463  11.062 -0.2321 -0.7908  0.2427
26977SOL    HW192655   6.417   4.420  10.987 -0.2555 -0.6471  0.1726
26977SOL    HW292656   6.428   4.413  11.138 -0.3029 -0.8646  0.1664
26978SOL     OW92657   2.506   7.189   1.564  0.4450 -0.0310  0.3040
26978SOL    HW192658   2.580   7.198   1.505  1.6031 -2.1410  1.3162
26978SOL    HW292659   2.467   7.277   1.567  1.8867  0.7470 -1.5157
26979SOL     OW92660   0.540  10.224   4.769  0.1328 -0.0375 -0.4199
26979SOL    HW192661   0.448  10.214   4.793  0.3515 -2.1218 -0.3033
26979SOL    HW292662   0.581  10.266   4.845 -0.5465  0.1375 -0.1471
26980SOL     OW92663   5.040   1.771   8.475  0.1560  0.1516 -0.1116
26980SOL    HW192664   5.052   1.686   8.515 -0.6899  0.5703  1.0765
26980SOL    HW292665   5.129   1.806   8.465  0.5220 -0.9165 -0.7870
26981SOL     OW92666   7.786   4.522   4.614 -0.2537 -0.1078 -0.3690
26981SOL    HW192667   7.771   4.524   4.519  0.0442 -0.1145 -0.4177
26981SOL    HW292668   7.802   4.430   4.634 -1.0555 -0.2138 -0.1911
26982SOL     OW92669   6.850  10.079  11.191 -0.3020 -0.0113 -0.0299
26982SOL    HW192670   6.807  10.112  11.270  0.1002  0.8971 -0.1776
26982SOL    HW292671   6.782  10.081  11.124 -0.7562 -1.1555  0.3583
26983SOL     OW92672   5.232   3.341   8.463 -0.2767 -0.2900 -0.2603
26983SOL    HW192673   5.226   3.288   8.543  1.0379 -1.1154 -0.6867
26983SOL    HW292674   5.324   3.337   8.438 -0.2712  1.6395 -0.7087
26984SOL     OW92675   4.165   5.915   2.939  0.0395  0.0578 -0.4432
26984SOL    HW192676   4.170   5.832   2.891 -2.1870 -0.7408  0.5828
26984SOL    HW292677   4.094   5.963   2.898  0.3056  0.8139 -0.0447
26985SOL     OW92678  11.612   4.349  10.624  0.3217  0.9706 -0.3943
26985SOL    HW192679  11.569   4.310  10.700  2.1133  0.3383  0.3630
26985SOL    HW292680  11.700   4.311  10.625  0.7347  1.7957 -2.1594
26986SOL     OW92681   7.622   9.807   7.585  0.0491  0.1877  0.1903
26986SOL    HW192682   7.697   9.863   7.608 -1.1992  1.6252  0.9255
26986SOL    HW292683   7.659   9.740   7.527  2.5631 -1.1820  3.1181
26987SOL     OW92684   4.805   8.183   3.800 -0.1483  0.2040  0.1675
26987SOL    HW192685   4.763   8.114   3.852  0.2113  0.6292  1.0579
26987SOL    HW292686   4.806   8.259   3.858  0.6612  0.5752 -0.3089
26988SOL     OW92687   2.543   5.281   7.889 -0.2228  0.1396  0.6221
26988SOL    HW192688   2.532   5.347   7.957  0.9913  0.8560  0.1646
26988SOL    HW292689   2.630   5.244   7.906 -0.3416 -0.4048  0.0829
26989SOL     OW92690  11.131   6.279   9.601  0.1260 -0.0691 -0.5318
26989SOL    HW192691  11.149   6.257   9.509  0.4082 -0.6938 -0.3347
26989SOL    HW292692  11.204   6.334   9.628  0.7363 -0.9637 -0.3106
26990SOL     OW92693   0.753   8.070   6.116 -0.0603 -0.3394  0.5488
26990SOL    HW192694   0.707   7.994   6.153  1.0253 -1.0387  0.4829
26990SOL    HW292695   0.798   8.109   6.191  1.5998 -1.3684  0.1270
26991SOL     OW92696  10.905   9.197   0.067 -0.3478 -0.2375 -0.4234
26991SOL    HW192697  10.968   9.259   0.104 -0.4384 -0.6062  0.3664
26991SOL    HW292698  10.819   9.235   0.087 -0.3926  0.6375 -2.1425
26992SOL     OW92699   4.834   8.440   9.954  0.0098 -0.2527 -0.2021
26992SOL    HW192700   4.848   8.352   9.989 -1.5932 -0.4126  0.0926
26992SOL    HW292701   4.920   8.466   9.920  0.6731 -1.6410  0.3366
26993SOL     OW92702   4.919   5.597   3.215 -0.5854 -0.1434 -0.1949
26993SOL    HW192703   4.881   5.515   3.185 -0.8013 -1.6105  3.4790
26993SOL    HW292704   4.845   5.656   3.227 -0.9404 -0.7249  0.6024
26994SOL     OW92705   5.932  10.771   4.305  0.2265  0.1689  0.4722
26994SOL    HW192706   5.962  10.686   4.336  0.7787  0.1830 -0.0137
26994SOL    HW292707   5.865  10.798   4.369  0.5142 -0.3240  0.9860
26995SOL     OW92708   6.675   7.629   4.538  0.4326 -0.0573 -0.5534
26995SOL    HW192709   6.619   7.565   4.494  1.2825 -1.0182 -0.2819
26995SOL    HW292710   6.682   7.597   4.628 -0.7762  1.5453  0.1648
26996SOL     OW92711   4.069  10.436   6.792 -0.2739  0.4000  0.1017
26996SOL    HW192712   4.142  10.490   6.763 -0.0972  0.2780  0.3200
26996SOL    HW292713   4.109  10.354   6.820 -0.3597  0.7644  1.3516
26997SOL     OW92714   9.812  10.167   8.148  0.3486 -0.1721  0.7512
26997SOL    HW192715   9.797  10.238   8.210  0.4662 -0.7514  1.4633
26997SOL    HW292716   9.785  10.088   8.195 -1.1419 -0.4666 -0.5258
26998SOL     OW92717   6.151   7.053   3.187 -0.1663 -0.3756 -0.4171
26998SOL    HW192718   6.071   7.089   3.146  1.2661  2.4587 -0.9790
26998SOL    HW292719   6.186   7.126   3.238  2.1737 -1.4946 -0.3219
26999SOL     OW92720  10.063   2.490   5.939 -0.7400  0.6022 -0.3720
26999SOL    HW192721  10.099   2.487   5.851 -1.2676  2.3027 -0.6821
26999SOL    HW292722  10.139   2.483   5.997 -0.4457 -1.1672 -0.9177
27000SOL     OW92723  11.238   1.942   6.068 -0.0064 -0.0178  0.7708
27000SOL    HW192724  11.258   2.035   6.076 -0.7219  0.1937  0.1546
27000SOL    HW292725  11.188   1.921   6.147 -0.9402  0.4238  0.3082
27001SOL     OW92726   3.232  10.705  11.399 -0.7394  0.0682 -0.5297
27001SOL    HW192727   3.293  10.639  11.430  1.5744  2.0797 -0.4891
27001SOL    HW292728   3.240  10.701  11.303 -0.8299  0.0972 -0.5386
27002SOL     OW92729   2.444   0.308   0.229 -0.6860 -0.0430 -0.1844
27002SOL    HW192730   2.368   0.363   0.208 -1.6196 -0.4544  1.8648
27002SOL    HW292731   2.424   0.223   0.189 -0.2983  0.4212 -1.4177
27003SOL     OW92732   8.505   4.564   2.923  0.1623  0.1162  0.4652
27003SOL    HW192733   8.597   4.543   2.937  0.4699  0.2072 -1.2373
27003SOL    HW292734   8.464   4.481   2.899 -0.5515 -0.2241  2.6161
27004SOL     OW92735   6.996   3.588   9.890  0.0087  0.1869 -0.3410
27004SOL    HW192736   7.088   3.602   9.869 -0.0558  0.7666 -0.2283
27004SOL    HW292737   6.949   3.653   9.838 -0.3732 -0.4199 -0.7676
27005SOL     OW92738   8.287   3.986   8.522 -0.0230  0.1604 -0.1950
27005SOL    HW192739   8.318   4.075   8.503 -2.6474  1.9394  2.8150
27005SOL    HW292740   8.205   3.978   8.473  0.8914 -1.2353 -1.5669
27006SOL     OW92741   1.364   2.000   7.142 -0.2981 -0.2731  0.3219
27006SOL    HW192742   1.315   2.043   7.212 -0.1531 -0.6894  0.6847
27006SOL    HW292743   1.398   2.072   7.089 -0.9265  0.0333  0.3185
27007SOL     OW92744   5.474   7.353   7.517  0.3603  0.0784  0.0281
27007SOL    HW192745   5.531   7.420   7.555  1.5937 -1.4875  1.0346
27007SOL    HW292746   5.396   7.402   7.490  0.7195  1.7659  1.7677
27008SOL     OW92747  10.232   6.071   5.536  0.4921  0.2681  0.3147
27008SOL    HW192748  10.319   6.032   5.527  0.1918 -0.1547 -0.8701
27008SOL    HW292749  10.207   6.096   5.447 -1.1990 -0.9491  0.3845
27009SOL     OW92750   6.064   5.552   0.515 -0.9914 -0.6535 -0.1177
27009SOL    HW192751   6.034   5.622   0.573 -0.6652  0.0839 -0.8113
27009SOL    HW292752   6.159   5.550   0.526 -0.9552 -0.6910 -0.4147
27010SOL     OW92753   5.727   1.053   8.947  0.1624 -0.4978 -0.3441
27010SOL    HW192754   5.706   0.984   9.010  0.7586 -1.0784 -0.7676
27010SOL    HW292755   5.803   1.020   8.899  1.1442  0.9015  0.1636
27011SOL     OW92756   0.322   3.079  10.796  0.0912  0.8320  0.0334
27011SOL    HW192757   0.243   3.088  10.743 -0.0953  0.3259  0.2237
27011SOL    HW292758   0.375   3.156  10.773 -0.3010  0.9906 -0.3517
27012SOL     OW92759   5.376   4.922   1.996 -0.2871  0.2239 -0.0384
27012SOL    HW192760   5.454   4.926   1.941  0.4003 -0.7400  0.8261
27012SOL    HW292761   5.394   4.982   2.068  0.2341 -0.9470  0.8400
27013SOL     OW92762  11.071   0.819  11.522 -0.0392 -0.0418  0.3037
27013SOL    HW192763  11.053   0.725  11.520 -0.0172 -0.0738  1.1907
27013SOL    HW292764  11.164   0.825  11.543  0.4000  0.1709 -1.4849
27014SOL     OW92765   0.248   2.336   7.098 -0.2523 -0.1212  0.1086
27014SOL    HW192766   0.316   2.344   7.164 -0.1352  0.3932 -0.0718
27014SOL    HW292767   0.173   2.300   7.145 -0.2878  0.5922  0.6089
27015SOL     OW92768  10.770   4.853   1.541 -0.1072  0.5106 -0.1778
27015SOL    HW192769  10.709   4.877   1.471 -1.3367 -0.8677  0.3612
27015SOL    HW292770  10.791   4.761   1.524  0.7826  0.6006  0.4038
27016SOL     OW92771   9.276   1.547   7.234  0.5206  0.0608  0.2130
27016SOL    HW192772   9.245   1.620   7.180 -0.5041 -0.4176  0.1442
27016SOL    HW292773   9.366   1.533   7.205  0.8493  1.5163  0.4589
27017SOL     OW92774   1.912   2.848   5.247 -0.3159  0.5507  0.3590
27017SOL    HW192775   1.953   2.896   5.318 -0.3955  0.6760  0.3202
27017SOL    HW292776   1.970   2.773   5.232 -0.9209 -0.1335  1.3542
27018SOL     OW92777   3.993  11.742   9.137  0.2070  0.2132 -0.3153
27018SOL    HW192778   3.926  11.700   9.084 -0.2639  1.4122 -0.7208
27018SOL    HW292779   3.944  11.799   9.197  0.8203  0.4800 -0.0508
27019SOL     OW92780   5.436   4.195  11.652  0.1898  0.2329 -0.5432
27019SOL    HW192781   5.421   4.124  11.714  0.0126 -0.4315 -1.3291
27019SOL    HW292782   5.367   4.259  11.672  0.5080  0.3191  0.3384
27020SOL     OW92783   0.300   3.262   6.169  0.6286 -0.3342  0.0329
27020SOL    HW192784   0.244   3.210   6.227  0.2662  1.6136  1.5417
27020SOL    HW292785   0.380   3.211   6.162 -0.4686 -2.1028 -0.3176
27021SOL     OW92786   0.018   6.202   3.993  0.1156  0.1925 -0.2475
27021SOL    HW192787   0.025   6.239   3.905  0.1733 -0.1472 -0.3874
27021SOL    HW292788  -0.035   6.265   4.041  0.0058  0.3341 -0.5507
27022SOL     OW92789   8.079   7.387  11.688  0.4487 -0.1493 -0.3503
27022SOL    HW192790   7.998   7.439  11.681  0.7549  0.6535  1.4650
27022SOL    HW292791   8.073   7.345  11.774  0.9257 -1.9647 -1.1523
27023SOL     OW92792   0.245   2.870   2.495  0.2797  0.3003  0.9070
27023SOL    HW192793   0.173   2.824   2.539 -0.6044  0.3207 -0.4308
27023SOL    HW292794   0.228   2.963   2.512 -1.7275  0.5394 -1.6819
27024SOL     OW92795   8.370   9.571   5.485 -0.3866  0.3954 -0.1168
27024SOL    HW192796   8.417   9.563   5.402  1.1841 -2.3065  0.9079
27024SOL    HW292797   8.436   9.604   5.547 -0.3226 -1.4713  0.8894
27025SOL     OW92798   9.557   7.986   8.152 -0.3114 -0.0610 -0.3434
27025SOL    HW192799   9.567   7.893   8.133  1.8325 -0.1792  1.0600
27025SOL    HW292800   9.646   8.018   8.165 -0.9795  2.2328 -0.8736
27026SOL     OW92801  10.621   1.000   2.425 -0.1586 -0.0237 -0.3354
27026SOL    HW192802  10.624   0.910   2.456  2.1201 -0.0154 -0.3346
27026SOL    HW292803  10.577   1.049   2.494  1.8047 -0.5631  1.3743
27027SOL     OW92804   7.211   2.975  11.625 -0.5048 -0.5357  0.4219
27027SOL    HW192805   7.299   2.949  11.598 -1.1435 -0.8568 -1.4914
27027SOL    HW292806   7.183   2.907  11.687  0.4712 -0.5683  0.8451
27028SOL     OW92807   3.064   4.125   5.849 -0.0853 -0.3558 -0.1788
27028SOL    HW192808   2.975   4.123   5.814  0.3126 -2.2530 -1.2379
27028SOL    HW292809   3.120   4.122   5.771  0.8690 -1.5196  0.5209
27029SOL     OW92810  10.348  11.363   5.397 -0.2553 -0.2952  0.3494
27029SOL    HW192811  10.278  11.300   5.414  1.6139 -2.9346 -1.0512
27029SOL    HW292812  10.424  11.309   5.374  1.3538  2.4937 -1.4785
27030SOL     OW92813   5.482   5.481   3.237 -0.4231 -0.3170  0.3045
27030SOL    HW192814   5.401   5.477   3.186 -0.4746 -0.6987  0.4101
27030SOL    HW292815   5.453   5.477   3.328 -0.3330  0.4104  0.3703
27031SOL     OW92816  10.986  11.255  11.831  0.0640 -0.0671  0.3087
27031SOL    HW192817  10.925  11.206  11.776  0.7514  0.2542 -0.7772
27031SOL    HW292818  10.939  11.334  11.855 -0.6722 -0.7522  1.2008
27032SOL     OW92819  11.213   5.082   0.331  0.7021  0.1534  0.1396
27032SOL    HW192820  11.184   5.046   0.248 -0.2017  0.9610  0.0813
27032SOL    HW292821  11.219   5.007   0.390  0.0387 -0.2451 -0.2944
27033SOL     OW92822   5.826   6.856  11.242 -0.3931  0.1750 -0.3836
27033SOL    HW192823   5.751   6.798  11.233 -0.7640  0.6598 -0.5184
27033SOL    HW292824   5.858   6.867  11.152 -1.5358  1.7135 -0.6593
27034SOL     OW92825   4.341   1.780   5.647 -0.1369 -0.5104 -1.1472
27034SOL    HW192826   4.266   1.836   5.668 -0.7661 -1.6304 -0.2775
27034SOL    HW292827   4.417   1.838   5.653 -0.7272  0.1732  0.1325
27035SOL     OW92828   5.788  10.620   9.424  0.5511 -0.2534 -0.3205
27035SOL    HW192829   5.784  10.646   9.516  1.0408 -0.9780 -0.0851
27035SOL    HW292830   5.710  10.566   9.411 -0.6115  1.4733 -0.8813
27036SOL     OW92831   1.233   7.831   9.207 -0.3596  0.1223 -0.1472
27036SOL    HW192832   1.171   7.777   9.157  0.7217  0.1314 -1.5532
27036SOL    HW292833   1.235   7.790   9.294  0.2858 -2.0715 -1.1112
27037SOL     OW92834   9.149   1.077   2.779 -0.0476  0.1631  0.1852
27037SOL    HW192835   9.082   1.017   2.746  0.5968  0.4231 -1.7600
27037SOL    HW292836   9.227   1.056   2.728 -0.1617  3.5630 -1.6933
27038SOL     OW92837   2.260   1.642   1.970 -0.1308 -0.4788  0.4558
27038SOL    HW192838   2.255   1.551   2.000  0.9032 -0.3230  1.1506
27038SOL    HW292839   2.353   1.657   1.952 -0.0553  0.8629  1.7643
27039SOL     OW92840   0.023   6.988   9.623 -0.6737 -0.0707  0.1922
27039SOL    HW192841   0.020   6.909   9.570 -1.6435  0.6075 -0.8195
27039SOL    HW292842   0.051   6.958   9.709  0.2485 -1.3112 -0.5046
27040SOL     OW92843   0.439   2.695   7.025 -0.3086  0.1251  0.5312
27040SOL    HW192844   0.491   2.745   6.962 -0.6557 -0.6193 -0.3718
27040SOL    HW292845   0.490   2.616   7.041 -1.0961 -0.5718 -0.2938
27041SOL     OW92846  11.932   5.646   6.930 -0.4632 -0.4028  0.0758
27041SOL    HW192847  11.919   5.570   6.874 -1.7143 -1.0935  1.2455
27041SOL    HW292848  11.982   5.612   7.004 -1.4769 -0.2363  0.8580
27042SOL     OW92849   8.114   5.654   0.924 -0.7652 -0.0738 -0.2413
27042SOL    HW192850   8.198   5.676   0.883 -1.6905 -0.2399 -2.3016
27042SOL    HW292851   8.048   5.679   0.861 -2.3180  0.1010  1.3693
27043SOL     OW92852   8.564   6.275   9.520  0.0181  0.1673 -0.9739
27043SOL    HW192853   8.543   6.367   9.540  1.5379  0.8890 -2.4668
27043SOL    HW292854   8.569   6.272   9.425  0.6264 -1.3291 -0.9124
27044SOL     OW92855   5.765   6.423  11.223  0.1880  0.1043 -0.2127
27044SOL    HW192856   5.805   6.339  11.244  2.0072  0.9646 -0.0314
27044SOL    HW292857   5.791   6.480  11.296 -1.1298  0.7903 -0.2626
27045SOL     OW92858   6.756  11.150   5.044  0.6682  0.3417 -0.2817
27045SOL    HW192859   6.806  11.209   4.987  0.8594 -0.5502 -1.0735
27045SOL    HW292860   6.682  11.122   4.990  0.6681 -0.2610  0.0233
27046SOL     OW92861   7.317   8.851   4.517  0.7629  0.1225  0.2699
27046SOL    HW192862   7.225   8.869   4.499  0.8668  0.5863  0.1874
27046SOL    HW292863   7.326   8.757   4.503  0.2035 -0.0017  0.7138
27047SOL     OW92864   1.854   6.926   9.496  0.4920 -0.4015  0.6622
27047SOL    HW192865   1.768   6.923   9.454  1.0809 -1.1145 -0.5588
27047SOL    HW292866   1.877   7.019   9.497  1.1891 -0.4221 -2.2962
27048SOL     OW92867   6.715   2.154   8.333  0.4633 -0.3992 -0.0899
27048SOL    HW192868   6.653   2.171   8.263  0.2939 -0.2188  0.1027
27048SOL    HW292869   6.660   2.135   8.410  0.6377  0.0827  0.1610
27049SOL     OW92870  11.483   3.043   6.599  0.4142 -0.1561 -0.1713
27049SOL    HW192871  11.537   3.024   6.522  1.3128  0.6632  0.2508
27049SOL    HW292872  11.509   2.977   6.663  0.4059 -0.1916 -0.2041
27050SOL     OW92873   6.722   0.825   9.308  0.4317  0.2385 -0.1653
27050SOL    HW192874   6.796   0.885   9.316  1.8482 -1.5054  0.5356
27050SOL    HW292875   6.757   0.750   9.259 -0.9255 -0.5429  0.0003
27051SOL     OW92876  11.070   1.953   5.299 -0.1546  0.5154 -0.4837
27051SOL    HW192877  11.014   1.877   5.317  0.0982  0.1979 -0.9924
27051SOL    HW292878  11.081   1.952   5.204  1.6021 -0.0709 -0.3102
27052SOL     OW92879   6.657   3.900   2.790 -0.4989 -0.7279  0.2189
27052SOL    HW192880   6.611   3.974   2.829 -0.9794 -0.3107 -1.0972
27052SOL    HW292881   6.588   3.849   2.747 -0.0441 -1.4397  0.3041
27053SOL     OW92882   7.412   8.542   5.537 -0.1982  0.6972 -0.2132
27053SOL    HW192883   7.441   8.555   5.627  1.7322  1.7110 -0.9316
27053SOL    HW292884   7.349   8.612   5.522  0.0491  0.9953  0.1218
27054SOL     OW92885   6.341   0.055   3.561 -0.4690 -0.0309  0.3251
27054SOL    HW192886   6.288   0.057   3.482  0.8034  0.0645 -0.5471
27054SOL    HW292887   6.329   0.142   3.600  0.5492  0.6835 -0.8980
27055SOL     OW92888   6.574   8.064  11.138  0.2184  0.8613  0.3109
27055SOL    HW192889   6.496   8.048  11.085  0.1564 -0.9599  0.8797
27055SOL    HW292890   6.647   8.053  11.078  0.2550 -3.1335  0.8271
27056SOL     OW92891   3.073   6.063   2.696 -0.4501  0.0290 -0.0598
27056SOL    HW192892   2.994   6.037   2.743 -0.3663 -1.1672 -0.5196
27056SOL    HW292893   3.045   6.070   2.605 -0.0404 -0.4054 -0.2246
27057SOL     OW92894   8.299   7.094   5.062  0.3446  0.7480 -0.6428
27057SOL    HW192895   8.300   7.138   5.146 -1.4069  0.5535 -0.4939
27057SOL    HW292896   8.212   7.112   5.025  0.6422 -0.1568 -1.8674
27058SOL     OW92897   7.785   5.232   3.824 -0.0529  0.1285  0.3209
27058SOL    HW192898   7.766   5.152   3.776  0.7783  1.5074 -2.5422
27058SOL    HW292899   7.877   5.224   3.850 -0.0666  0.0142  0.3304
27059SOL     OW92900   7.773   1.720   2.017  0.0559  0.1363  0.7211
27059SOL    HW192901   7.734   1.732   2.103  0.5018  1.7804  0.7326
27059SOL    HW292902   7.706   1.752   1.956  0.6614  1.2496  0.6254
27060SOL     OW92903   1.544   3.310   5.189 -0.0692  0.0163  0.0965
27060SOL    HW192904   1.601   3.385   5.206 -1.8108  1.3029  0.4180
27060SOL    HW292905   1.500   3.293   5.272  0.6857 -1.7526  0.1842
27061SOL     OW92906   3.748   0.529   8.864  0.4497  0.0309 -0.2371
27061SOL    HW192907   3.783   0.547   8.777 -1.0781  0.2725 -0.8234
27061SOL    HW292908   3.740   0.433   8.868 -0.1578  0.0589 -0.6509
27062SOL     OW92909   7.643   5.122  11.125 -0.5074 -0.2434 -0.2220
27062SOL    HW192910   7.615   5.210  11.101 -1.0387  0.1297  1.5785
27062SOL    HW292911   7.570   5.087  11.177  0.1589 -1.3097  0.0309
27063SOL     OW92912   6.038   8.420   9.258  0.4682  0.2560 -0.1572
27063SOL    HW192913   6.123   8.453   9.229  1.0711 -0.4729  0.7224
27063SOL    HW292914   6.033   8.332   9.221 -0.9273  1.0760 -2.1039
27064SOL     OW92915   3.666  11.596   2.131 -0.5395  0.2789  0.2324
27064SOL    HW192916   3.583  11.579   2.087 -0.6541  0.2395  0.4653
27064SOL    HW292917   3.729  11.607   2.060 -0.9554  1.4028  0.0136
27065SOL     OW92918   1.361  10.129   7.953 -0.2673  0.4331  0.2695
27065SOL    HW192919   1.290  10.136   7.889 -0.5598  0.2470  0.5722
27065SOL    HW292920   1.427  10.075   7.910 -0.3941  0.4436  0.0607
27066SOL     OW92921   0.683   1.700   5.579  0.2854 -0.1011  0.5873
27066SOL    HW192922   0.775   1.680   5.597  0.6325 -0.7561 -1.6089
27066SOL    HW292923   0.641   1.615   5.571 -0.3419  0.1901  0.7127
27067SOL     OW92924   4.741   3.072   7.006 -0.2777  0.1596  0.1196
27067SOL    HW192925   4.791   3.149   7.034 -0.0606 -0.2636  0.9046
27067SOL    HW292926   4.765   3.004   7.068  0.2313 -0.8065 -1.0958
27068SOL     OW92927   2.957   4.595   0.298 -0.5977 -0.1973  0.2584
27068SOL    HW192928   2.973   4.689   0.303 -2.1290  0.2476 -1.8312
27068SOL    HW292929   3.016   4.564   0.229  1.7144 -1.3193  2.5770
27069SOL     OW92930   8.118   6.104   6.791  0.2199 -0.0243  0.1016
27069SOL    HW192931   8.181   6.039   6.822  0.0153 -0.4349 -0.3224
27069SOL    HW292932   8.172   6.174   6.755  0.5520  1.4787  3.1831
27070SOL     OW92933  11.272   3.692   7.530  0.0872  0.7452 -0.1119
27070SOL    HW192934  11.323   3.729   7.457 -0.2577  0.8505 -0.3016
27070SOL    HW292935  11.205   3.639   7.487  1.2046 -0.9669  0.1653
27071SOL     OW92936   8.919  10.724   7.358 -0.0480  0.1160 -0.4620
27071SOL    HW192937   8.849  10.672   7.398 -0.9541 -0.2924 -2.4174
27071SOL    HW292938   8.991  10.663   7.347 -0.6730 -0.4550 -1.6271
27072SOL     OW92939   3.514   5.307   3.621  0.0661 -0.1933 -0.3623
27072SOL    HW192940   3.481   5.388   3.582  0.6712 -0.0071 -0.5001
27072SOL    HW292941   3.605   5.327   3.643 -0.1146 -0.4547  0.6824
27073SOL     OW92942  10.368   2.400  11.069 -0.1489 -0.1053  0.0407
27073SOL    HW192943  10.285   2.391  11.114  0.6522  0.1184  1.6466
27073SOL    HW292944  10.348   2.383  10.977 -1.5404 -2.3047  0.6869
27074SOL     OW92945  11.333  10.071   8.129  0.3101 -0.8520 -0.0390
27074SOL    HW192946  11.369  10.142   8.182 -3.0331  1.3698 -0.4553
27074SOL    HW292947  11.378  10.077   8.045  1.5336 -0.6509  0.6049
27075SOL     OW92948   0.030   9.426   5.707  0.3723  0.0093  0.4461
27075SOL    HW192949   0.104   9.453   5.762 -0.1861 -1.2355  1.8664
27075SOL    HW292950   0.051   9.336   5.681  1.3132  0.9843 -2.6572
27076SOL     OW92951   7.847  10.297   5.593 -0.1568  0.0010 -0.1845
27076SOL    HW192952   7.840  10.364   5.525 -0.6755 -0.6916 -0.8364
27076SOL    HW292953   7.935  10.306   5.627  0.1338  0.3274 -0.9956
27077SOL     OW92954   1.670   4.716   1.784 -0.3879  0.5576 -0.2936
27077SOL    HW192955   1.743   4.772   1.760  0.2848  0.3916  1.1995
27077SOL    HW292956   1.625   4.764   1.854 -0.3959 -0.2900  0.3061
27078SOL     OW92957   9.865  11.152   2.518  0.3354  0.0114  0.1698
27078SOL    HW192958   9.897  11.220   2.459  1.5340 -1.2128 -0.6547
27078SOL    HW292959   9.942  11.098   2.536 -0.7026 -1.5052  0.2537
27079SOL     OW92960   2.144   9.106   5.446 -0.1395  0.3469 -0.6064
27079SOL    HW192961   2.078   9.087   5.379 -0.7521 -0.5659  0.2308
27079SOL    HW292962   2.185   9.022   5.463  0.3109  0.6579 -0.1340
27080SOL     OW92963   7.827   6.217   6.136  0.1968 -0.7227 -0.0144
27080SOL    HW192964   7.805   6.205   6.043 -2.3406 -2.0263  0.6662
27080SOL    HW292965   7.827   6.312   6.148  0.8139 -0.5241 -1.3828
27081SOL     OW92966   5.007   1.003   2.353 -0.0990  0.2152 -0.2190
27081SOL    HW192967   5.021   0.916   2.317 -0.7305 -0.0857  0.2441
27081SOL    HW292968   4.921   1.029   2.320 -1.1136 -0.4381  1.7504
27082SOL     OW92969   2.438   3.644  11.442 -0.0319 -0.2182 -0.1783
27082SOL    HW192970   2.505   3.672  11.379  0.0057 -2.2108 -1.1223
27082SOL    HW292971   2.445   3.548  11.443 -2.0542 -0.4124  0.6127
27083SOL     OW92972   9.782   4.270   3.116  0.3146 -0.2477 -0.1153
27083SOL    HW192973   9.756   4.234   3.201  0.8719  0.7340  0.4923
27083SOL    HW292974   9.727   4.348   3.105 -0.3561 -0.8288 -1.0695
27084SOL     OW92975   7.940  10.099   8.901 -0.7259 -0.3210 -0.2985
27084SOL    HW192976   7.870  10.035   8.911 -2.3809  1.3156 -0.7400
27084SOL    HW292977   7.949  10.110   8.806 -0.7843  0.3985 -0.2297
27085SOL     OW92978  11.672   0.731   2.261  0.5481  0.8373  0.0964
27085SOL    HW192979  11.588   0.687   2.275  0.4312  0.9164 -0.3437
27085SOL    HW292980  11.701   0.755   2.349  1.2477 -1.2513  0.4935
27086SOL     OW92981   6.540   6.270   9.655  0.4395  0.0064  0.3545
27086SOL    HW192982   6.473   6.303   9.715  2.4101  0.2468  2.5833
27086SOL    HW292983   6.540   6.176   9.668  0.8740  0.0594  0.7880
27087SOL     OW92984  11.250   1.782  10.618  0.1619  0.2122 -0.3004
27087SOL    HW192985  11.288   1.801  10.704 -3.1401 -0.3315  1.4467
27087SOL    HW292986  11.234   1.688  10.619 -0.0339  0.2185 -1.5045
27088SOL     OW92987   9.837   3.196   8.374 -0.7798 -0.1682 -0.0487
27088SOL    HW192988   9.850   3.284   8.340 -0.1168 -0.2897 -0.1114
27088SOL    HW292989   9.781   3.153   8.309 -0.1860 -0.1430 -0.5816
27089SOL     OW92990   0.414   5.227  11.958 -0.3058  0.1971  0.2592
27089SOL    HW192991   0.501   5.194  11.979  0.2077  2.0697  1.3400
27089SOL    HW292992   0.365   5.219  12.040 -1.3964 -1.4455 -0.5086
27090SOL     OW92993  11.753   5.166   5.340 -0.3599  0.4516  0.2283
27090SOL    HW192994  11.782   5.203   5.424  1.4296 -1.0731  0.3614
27090SOL    HW292995  11.828   5.176   5.282 -0.3046 -1.5902 -0.1376
27091SOL     OW92996   3.631   1.353   6.771 -0.4856  0.1638  0.1622
27091SOL    HW192997   3.700   1.348   6.705  0.5856 -1.7767  1.3143
27091SOL    HW292998   3.580   1.273   6.759 -1.9122  1.0584  0.0285
27092SOL     OW92999   5.308  10.568   0.732  0.0672  0.0758  0.1077
27092SOL    HW193000   5.315  10.516   0.652 -3.1568 -0.1800 -0.1495
27092SOL    HW293001   5.281  10.504   0.799 -0.0563  0.7723  0.7349
27093SOL     OW93002   3.617   3.416   6.079 -0.1162  0.2699  0.3510
27093SOL    HW193003   3.682   3.429   6.010 -0.5399  1.5553  0.1655
27093SOL    HW293004   3.613   3.501   6.124 -1.1187 -0.0220  0.8261
27094SOL     OW93005  10.358   0.634   9.300 -0.5617  0.1349 -0.1151
27094SOL    HW193006  10.295   0.690   9.254 -1.7657 -0.8205  0.3050
27094SOL    HW293007  10.393   0.691   9.369 -0.1189  1.0098 -1.0253
27095SOL     OW93008  11.639   3.981   5.171  0.0549 -0.2098 -0.1064
27095SOL    HW193009  11.626   4.058   5.227 -0.2522  0.7220 -1.4008
27095SOL    HW293010  11.713   3.935   5.211  0.0705  0.6059  0.8575
27096SOL     OW93011   3.513   3.654   7.567 -0.1506  0.1366 -0.4330
27096SOL    HW193012   3.597   3.690   7.596 -0.4036  0.3304  0.0604
27096SOL    HW293013   3.473   3.725   7.517 -1.1886  1.0326  1.5478
27097SOL     OW93014  10.112   7.877   1.843 -0.1901  0.8141 -0.1945
27097SOL    HW193015  10.044   7.810   1.853 -1.5949  2.2285  0.1358
27097SOL    HW293016  10.143   7.894   1.931 -0.2790  1.0228 -0.2017
27098SOL     OW93017   6.003   4.142   9.674  0.3518  0.6560 -0.2331
27098SOL    HW193018   5.978   4.230   9.703 -1.5597  0.2459 -0.5251
27098SOL    HW293019   6.083   4.122   9.723  0.9533  2.6199 -0.3157
27099SOL     OW93020   9.495  11.258   5.169  0.4711  0.0510  0.3342
27099SOL    HW193021   9.434  11.309   5.223 -3.4157 -1.2291 -2.3582
27099SOL    HW293022   9.527  11.321   5.104  0.3176  0.3065  0.5020
27100SOL     OW93023   0.962   9.673   5.516  0.4396  0.1965  0.2915
27100SOL    HW193024   0.950   9.689   5.609  0.2708 -0.0104  0.3083
27100SOL    HW293025   1.055   9.683   5.500  0.4632  0.2602  0.4779
27101SOL     OW93026   6.489   4.971   9.151 -0.2145  0.2885  0.3617
27101SOL    HW193027   6.455   4.982   9.062 -1.4150  2.4089  0.9987
27101SOL    HW293028   6.427   4.910   9.192  0.5082 -0.9254 -0.3026
27102SOL     OW93029  11.830   2.384   3.029 -0.0957 -0.5843 -0.6476
27102SOL    HW193030  11.750   2.421   3.067 -0.2739 -0.4155 -1.1748
27102SOL    HW293031  11.889   2.459   3.021 -0.4663 -0.3980 -1.7448
27103SOL     OW93032   7.955   8.282  10.985  0.1811 -0.3655  0.0107
27103SOL    HW193033   7.973   8.319  10.898  0.9625  0.8366  0.6560
27103SOL    HW293034   7.860   8.266  10.984 -0.0667  0.9767 -0.5793
27104SOL     OW93035   3.152  11.908   9.049 -0.2012 -0.2579 -0.1587
27104SOL    HW193036   3.077  11.852   9.027 -1.2414  0.7681  0.7164
27104SOL    HW293037   3.115  11.995   9.062  0.7489 -0.1979  2.7508
27105SOL     OW93038   8.143   4.950  10.584 -0.0400  0.2468 -0.1320
27105SOL    HW193039   8.102   4.986  10.662 -0.5054 -0.1847 -0.1769
27105SOL    HW293040   8.232   4.986  10.585 -0.3300  0.9727  0.1026
27106SOL     OW93041   3.747   3.207   5.407 -0.3860  0.1754 -0.2839
27106SOL    HW193042   3.777   3.297   5.422 -0.9970  0.5581 -1.2736
27106SOL    HW293043   3.702   3.211   5.323 -0.9314 -0.9386 -0.0548
27107SOL     OW93044   3.405   2.567   3.229  0.3158 -0.4163  0.3244
27107SOL    HW193045   3.339   2.607   3.285 -0.0965 -1.1469  0.3826
27107SOL    HW293046   3.479   2.628   3.230 -0.8263  1.0554 -0.7659
27108SOL     OW93047   0.758   1.376   5.259 -0.2215 -0.2857 -0.7188
27108SOL    HW193048   0.841   1.354   5.216  0.1894 -1.2323  0.5177
27108SOL    HW293049   0.761   1.471   5.269  0.8884 -0.3410 -0.3559
27109SOL     OW93050   9.297   3.816   2.552 -0.3185 -0.1755 -0.4527
27109SOL    HW193051   9.217   3.816   2.605  1.4467 -0.8600  2.4526
27109SOL    HW293052   9.337   3.902   2.569  1.8574 -1.5264  2.2037
27110SOL     OW93053  10.792   3.569   4.713 -0.0864  0.2493  0.0638
27110SOL    HW193054  10.781   3.664   4.726 -0.1286  0.2219  0.2398
27110SOL    HW293055  10.704   3.538   4.693  0.2243  0.5212 -1.8976
27111SOL     OW93056   1.778   1.959   0.062 -0.0307  0.1234  0.9849
27111SOL    HW193057   1.799   1.875   0.101  1.2125 -0.3705 -0.6397
27111SOL    HW293058   1.857   2.011   0.072  0.9590 -0.5636 -2.1368
27112SOL     OW93059  11.328   8.395   8.550  0.2318  0.0040 -0.4400
27112SOL    HW193060  11.254   8.449   8.525  0.2875  0.5378  0.5331
27112SOL    HW293061  11.295   8.339   8.620  0.8498  0.5348  0.2887
27113SOL     OW93062   6.331   9.327   4.614 -0.5533 -0.0338 -0.1390
27113SOL    HW193063   6.287   9.365   4.690  0.2297  0.5808  0.0191
27113SOL    HW293064   6.374   9.249   4.648 -0.9968 -0.2901 -0.1602
27114SOL     OW93065   2.084   4.732  10.666 -0.6594  0.5834  0.3615
27114SOL    HW193066   2.080   4.810  10.611 -0.0908  2.2673  2.5849
27114SOL    HW293067   1.999   4.729  10.709 -0.0543  1.0462  1.6261
27115SOL     OW93068  11.336   0.463   8.890  0.5788 -0.5014 -0.0007
27115SOL    HW193069  11.424   0.468   8.927  0.2957 -1.2907  0.7812
27115SOL    HW293070  11.310   0.372   8.900  0.2041 -0.5863 -1.4894
27116SOL     OW93071  10.380   0.576   5.538 -0.3288  0.2402 -0.1818
27116SOL    HW193072  10.316   0.506   5.546  0.1464 -0.0406  1.7682
27116SOL    HW293073  10.465   0.531   5.533  0.1345  0.5700  2.7302
27117SOL     OW93074  10.977   8.988   8.952  0.8349 -0.0277 -0.5892
27117SOL    HW193075  10.950   8.919   9.013  0.8112  0.4438 -0.0525
27117SOL    HW293076  11.062   9.018   8.986  1.5793 -0.8247 -1.7019
27118SOL     OW93077   2.138   2.897   2.563  0.1067  0.7635 -0.0045
27118SOL    HW193078   2.106   2.856   2.483 -0.6304  0.9356  0.1958
27118SOL    HW293079   2.208   2.839   2.593 -1.2328 -0.6545  0.5333
27119SOL     OW93080   7.642   4.752   8.656 -0.5512 -0.0531 -0.5944
27119SOL    HW193081   7.600   4.834   8.632  1.2609  1.4329  0.9571
27119SOL    HW293082   7.574   4.686   8.647 -2.2103  1.6895 -1.4383
27120SOL     OW93083   3.679  11.889   4.526 -0.3075  0.0751  0.0869
27120SOL    HW193084   3.706  11.965   4.578  3.2460  0.6196 -2.2212
27120SOL    HW293085   3.700  11.814   4.582  0.9712  0.7158  0.5247
27121SOL     OW93086   1.053  10.409  10.756 -0.8414 -0.3316 -0.0305
27121SOL    HW193087   1.054  10.426  10.851 -0.6499 -0.3401 -0.0298
27121SOL    HW293088   1.066  10.495  10.716 -3.1216  0.0247 -0.1057
27122SOL     OW93089  10.185   3.472   1.670  0.2754  0.4868  0.3271
27122SOL    HW193090  10.273   3.507   1.684  0.6108 -0.0203 -0.4189
27122SOL    HW293091  10.128   3.532   1.716  0.9157  1.5087 -0.1789
27123SOL     OW93092   1.337   3.941   1.586  0.3294  0.6327 -0.1271
27123SOL    HW193093   1.263   3.895   1.545 -0.3727  0.7233  0.9855
27123SOL    HW293094   1.309   4.032   1.590  0.7847  0.7793 -0.3113
27124SOL     OW93095   2.526   7.134   3.474  0.5240  0.1587 -0.1480
27124SOL    HW193096   2.446   7.186   3.484 -0.3837 -1.2504  0.3474
27124SOL    HW293097   2.524   7.073   3.549  1.8116 -0.2278 -0.4006
27125SOL     OW93098   8.681   6.143   4.537 -0.4404  0.6703 -0.3477
27125SOL    HW193099   8.678   6.091   4.617 -0.1034  1.9284  0.5199
27125SOL    HW293100   8.652   6.083   4.468  1.0483 -1.0107  0.3958
27126SOL     OW93101   8.038  10.674  11.179  0.0306 -0.2756 -0.5470
27126SOL    HW193102   7.946  10.688  11.203 -0.7902 -0.0730 -3.4427
27126SOL    HW293103   8.043  10.698  11.086  3.0149 -0.3681 -0.5058
27127SOL     OW93104  11.706   9.132  10.625 -0.4904  0.2630  0.0671
27127SOL    HW193105  11.688   9.056  10.679 -1.1646 -0.9463 -1.7634
27127SOL    HW293106  11.625   9.184  10.628 -0.9664 -0.4177 -0.7163
27128SOL     OW93107   3.452   8.780   7.528  0.0886 -0.3402 -0.2345
27128SOL    HW193108   3.501   8.859   7.550 -1.4606 -0.0005  2.5007
27128SOL    HW293109   3.443   8.783   7.433  0.7079  2.3685 -0.2940
27129SOL     OW93110   9.019   7.308   5.426  0.5261  0.9175  0.4717
27129SOL    HW193111   9.033   7.386   5.480 -1.0407  0.0174  2.3051
27129SOL    HW293112   9.076   7.242   5.465 -0.9266  0.1413  1.3542
27130SOL     OW93113   3.599  11.427  10.591  0.0846 -0.2433 -0.3450
27130SOL    HW193114   3.647  11.411  10.672  1.9888  1.5131 -1.0390
27130SOL    HW293115   3.577  11.340  10.559  1.9935 -1.0985  0.5233
27131SOL     OW93116   4.759  10.297   6.329  0.4448 -0.3354  0.2381
27131SOL    HW193117   4.780  10.257   6.413 -1.4734 -0.1842  0.8239
27131SOL    HW293118   4.787  10.233   6.264 -0.8282 -1.8282  1.0981
27132SOL     OW93119   3.884   9.912   8.306 -0.1120  0.5785 -0.1018
27132SOL    HW193120   3.923   9.995   8.280  0.0715  0.7257  0.6326
27132SOL    HW293121   3.951   9.847   8.288 -1.1270  0.1878 -3.1294
27133SOL     OW93122  11.942  11.582  10.331  0.1821 -0.1200  0.5008
27133SOL    HW193123  12.019  11.602  10.385 -1.0749 -0.0289  2.3606
27133SOL    HW293124  11.933  11.487  10.338 -0.7391  0.0266  1.5846
27134SOL     OW93125   9.024   4.373   0.981 -0.3492 -0.2438 -0.1704
27134SOL    HW193126   8.931   4.383   1.000 -0.1432 -1.3460  1.6240
27134SOL    HW293127   9.030   4.292   0.931 -0.1348 -1.7042  2.1065
27135SOL     OW93128   9.306   7.305   0.145 -0.0199 -0.4299  0.0700
27135SOL    HW193129   9.288   7.213   0.126 -0.5829 -0.6789  1.6936
27135SOL    HW293130   9.379   7.303   0.207  0.6029  0.2718 -0.6133
27136SOL     OW93131   4.444   5.718   7.704 -0.3475 -0.0612 -0.4652
27136SOL    HW193132   4.353   5.704   7.733 -0.1595  1.3635  0.9207
27136SOL    HW293133   4.443   5.804   7.663  0.8429  1.1748  1.9016
27137SOL     OW93134   7.003   7.344   0.673 -0.0461 -1.0180  0.5580
27137SOL    HW193135   6.928   7.306   0.720 -0.8468  0.1475  0.2651
27137SOL    HW293136   6.979   7.338   0.580 -1.0925  1.8897  0.5555
27138SOL     OW93137   3.483  11.489   2.316  1.0685 -0.0528 -0.6232
27138SOL    HW193138   3.397  11.506   2.354 -0.3718  1.1775 -4.0604
27138SOL    HW293139   3.519  11.576   2.298  1.5090 -0.5422 -2.2598
27139SOL     OW93140   4.039  11.779   1.770 -0.8121 -0.5056 -0.4920
27139SOL    HW193141   4.046  11.684   1.759 -0.5385 -0.6036  0.4270
27139SOL    HW293142   3.951  11.800   1.739  0.2339 -0.5575 -3.8358
27140SOL     OW93143   3.454   9.614  10.194  0.0096 -0.2989 -0.4452
27140SOL    HW193144   3.547   9.634  10.206 -0.5388  1.3484  1.5533
27140SOL    HW293145   3.422   9.684  10.136 -0.2896  0.1287  0.2160
27141SOL     OW93146   3.036   3.303   2.267  0.3528 -0.0254 -0.2537
27141SOL    HW193147   2.993   3.388   2.262 -1.0095 -0.7067 -1.0353
27141SOL    HW293148   2.963   3.240   2.273  1.2846 -1.1799 -0.6220
27142SOL     OW93149  11.138   0.895   2.292 -0.8709 -0.2612  0.2536
27142SOL    HW193150  11.193   0.880   2.215 -0.3152 -0.8327  0.7564
27142SOL    HW293151  11.172   0.976   2.329 -1.6291  0.4333 -0.5085
27143SOL     OW93152   2.672   3.366   9.208 -0.1512 -0.4297 -0.0106
27143SOL    HW193153   2.579   3.390   9.209  0.1202  0.7024  1.1175
27143SOL    HW293154   2.699   3.374   9.299  1.0416 -0.8344 -0.3185
27144SOL     OW93155   7.885   0.208   7.872  0.7321  0.3080 -0.3038
27144SOL    HW193156   7.865   0.301   7.860  1.3425  0.2300 -2.4154
27144SOL    HW293157   7.820   0.177   7.935 -0.8891  1.7018 -1.2056
27145SOL     OW93158  10.222   7.778   0.001 -0.5832 -0.4919 -0.3781
27145SOL    HW193159  10.213   7.780  -0.094 -1.4025  0.5058 -0.2992
27145SOL    HW293160  10.315   7.793   0.017 -0.4019 -0.9028 -1.0188
27146SOL     OW93161   3.377   8.346   5.764 -0.2142  0.3621  0.0580
27146SOL    HW193162   3.406   8.334   5.673 -0.6092 -0.0610 -0.0143
27146SOL    HW293163   3.296   8.294   5.770  0.8268 -1.1873  1.1917
27147SOL     OW93164   5.295   6.008  11.051  0.1550  0.4298  0.6461
27147SOL    HW193165   5.243   6.046  10.981 -0.2375 -1.1874 -0.0003
27147SOL    HW293166   5.367   6.069  11.065  0.2259  0.8014 -1.1541
27148SOL     OW93167   8.217   5.343   7.842 -0.7148 -0.4315  0.3989
27148SOL    HW193168   8.293   5.296   7.875 -1.1760 -1.8346 -0.4601
27148SOL    HW293169   8.159   5.350   7.918 -0.4162 -0.7894  0.6680
27149SOL     OW93170   9.948   9.216  10.755 -0.0743 -0.2984 -0.1391
27149SOL    HW193171   9.998   9.285  10.798 -0.3192  0.2745 -0.7532
27149SOL    HW293172   9.930   9.251  10.668 -0.5157 -0.9940 -0.3312
27150SOL     OW93173   8.488   5.001   1.862  0.6941 -0.1947  0.3514
27150SOL    HW193174   8.519   4.932   1.921 -0.1155 -2.3115 -1.5091
27150SOL    HW293175   8.558   5.009   1.797 -0.2466 -1.1218 -0.8314
27151SOL     OW93176   0.101   2.084   1.833  0.3991  0.3559 -0.3433
27151SOL    HW193177   0.082   1.998   1.795  0.4720 -0.1304  0.6967
27151SOL    HW293178   0.016   2.128   1.837  0.2500  0.0575 -0.2172
27152SOL     OW93179  11.002  11.319   7.415  0.2032  0.5642 -0.1965
27152SOL    HW193180  10.937  11.381   7.449  1.7528  2.2532 -0.1694
27152SOL    HW293181  11.056  11.372   7.356  0.8682 -1.0659 -1.0940
27153SOL     OW93182   9.564  10.716  10.299  0.0401  0.0500 -0.2951
27153SOL    HW193183   9.537  10.792  10.248 -0.0334  1.6848  1.9953
27153SOL    HW293184   9.559  10.643  10.238 -2.1442  1.4797 -1.9983
27154SOL     OW93185   0.725   3.612   3.874 -0.5280 -0.0176  0.0165
27154SOL    HW193186   0.802   3.668   3.871 -1.3520  1.2396  1.0768
27154SOL    HW293187   0.760   3.523   3.886  0.7313  0.5430  0.6460
27155SOL     OW93188   1.508   7.115   8.375 -0.4821  0.3557 -0.9643
27155SOL    HW193189   1.557   7.127   8.294  1.4725  0.7096  0.1974
27155SOL    HW293190   1.499   7.203   8.411 -0.2722  0.0880 -0.2258
27156SOL     OW93191   2.878   1.597   9.889 -0.6844  0.3082  0.3045
27156SOL    HW193192   2.907   1.686   9.869  0.4633 -0.5092 -1.9567
27156SOL    HW293193   2.945   1.564   9.950 -0.2039  0.4532 -0.1374
27157SOL     OW93194   6.361   8.843   3.573 -0.0606  0.0613 -0.6249
27157SOL    HW193195   6.340   8.816   3.484 -0.3296 -0.2834 -0.4572
27157SOL    HW293196   6.435   8.903   3.563 -0.9012  1.0374 -1.1950
27158SOL     OW93197   3.415   5.209   2.697 -0.1092  0.1457  0.0785
27158SOL    HW193198   3.448   5.146   2.760 -0.0448 -0.3990 -0.4836
27158SOL    HW293199   3.321   5.214   2.713 -0.0885  0.0232  0.2312
27159SOL     OW93200   2.772   1.832   9.646  0.7419  0.3135 -0.1703
27159SOL    HW193201   2.752   1.738   9.647  0.9367  0.2646  0.7689
27159SOL    HW293202   2.687   1.874   9.633  0.4653  0.0282  0.6348
27160SOL     OW93203   2.957   5.039   9.902 -0.2987  0.1973  0.4386
27160SOL    HW193204   3.009   5.049   9.823 -0.3921  2.7468  0.6173
27160SOL    HW293205   2.872   5.009   9.871  0.8243 -3.0533  0.0608
27161SOL     OW93206   3.139   0.228   5.516 -0.4593 -0.6214 -0.2622
27161SOL    HW193207   3.206   0.294   5.533  1.3649 -2.5386  0.5442
27161SOL    HW293208   3.169   0.183   5.437 -1.1418 -1.0872 -0.2695
27162SOL     OW93209   0.232   9.649   8.730  0.4214 -0.2984 -0.7411
27162SOL    HW193210   0.282   9.731   8.728 -0.0261 -0.0284 -0.9157
27162SOL    HW293211   0.294   9.583   8.698  0.9598 -0.1299 -0.0833
27163SOL     OW93212   7.866  10.567   3.473  0.2587 -0.1835 -0.1609
27163SOL    HW193213   7.897  10.653   3.502 -0.7178 -0.8596  3.3955
27163SOL    HW293214   7.774  10.582   3.451  0.4919 -0.0718 -1.1284
27164SOL     OW93215   6.523  11.540   4.970  0.3239  0.0025  0.4227
27164SOL    HW193216   6.538  11.464   4.913  1.2175  0.2167  0.3649
27164SOL    HW293217   6.551  11.615   4.917  0.0741  0.3129  0.7295
27165SOL     OW93218   2.945   8.839   9.188 -0.1679 -0.8426 -0.3265
27165SOL    HW193219   2.878   8.772   9.202 -1.8720  1.3278  3.3588
27165SOL    HW293220   2.917   8.883   9.107 -1.1235 -2.1706 -0.7725
27166SOL     OW93221   2.435  10.269   4.209 -0.4340 -0.3401 -0.0599
27166SOL    HW193222   2.367  10.333   4.190  0.8293  0.6193 -1.6383
27166SOL    HW293223   2.515  10.307   4.172  1.0060 -1.3823  1.7907
27167SOL     OW93224   0.544   5.648   0.025  0.0676 -0.2306  0.4299
27167SOL    HW193225   0.595   5.709  -0.027 -1.3269  0.3453 -0.3275
27167SOL    HW293226   0.496   5.596  -0.040 -0.0360 -0.9909  1.1009
27168SOL     OW93227   0.945   6.101   8.240 -0.3602  0.2473  0.1494
27168SOL    HW193228   0.960   6.183   8.194  0.5562  0.0974  0.1635
27168SOL    HW293229   0.863   6.068   8.204 -0.7840  1.2042  0.2090
27169SOL     OW93230  10.273   2.561   4.773  0.1120  0.1183 -0.1734
27169SOL    HW193231  10.178   2.558   4.759 -0.0106  0.6031  0.5177
27169SOL    HW293232  10.310   2.530   4.691 -0.6027  1.5852 -1.0886
27170SOL     OW93233   8.565   8.275   5.530 -0.2948 -0.1090 -0.3473
27170SOL    HW193234   8.559   8.352   5.473  1.8607  0.0058 -0.5106
27170SOL    HW293235   8.630   8.299   5.596  1.7191 -2.2957 -1.3599
27171SOL     OW93236   0.429   5.293   4.643  0.1139 -0.3013  0.6504
27171SOL    HW193237   0.367   5.366   4.648 -0.8884 -1.1973  2.3576
27171SOL    HW293238   0.379   5.222   4.603  0.5928 -0.5217  0.4346
27172SOL     OW93239  11.184   6.360   5.545  0.1894 -0.0835  0.2397
27172SOL    HW193240  11.272   6.329   5.568  1.4576  1.3995 -2.1792
27172SOL    HW293241  11.171   6.438   5.598 -0.3116 -1.0883  1.6415
27173SOL     OW93242   3.160   6.322   4.426 -0.7227 -0.1374  0.1082
27173SOL    HW193243   3.190   6.370   4.349  0.6414 -0.1542  0.6012
27173SOL    HW293244   3.238   6.276   4.458 -1.7663 -1.9519  0.1979
27174SOL     OW93245  10.863   2.559   0.162 -0.4010  0.4480 -0.3548
27174SOL    HW193246  10.810   2.636   0.182  0.4022  1.3169 -1.4405
27174SOL    HW293247  10.951   2.594   0.146  0.9461 -1.0571  2.8147
27175SOL     OW93248   1.893   6.343   4.791 -0.6473 -0.7816 -0.0146
27175SOL    HW193249   1.918   6.420   4.740  0.7573 -0.8290  0.5565
27175SOL    HW293250   1.932   6.269   4.742 -1.3664 -1.0616 -0.1693
27176SOL     OW93251   1.280   8.614   4.805 -0.0288 -0.1497 -0.9477
27176SOL    HW193252   1.243   8.529   4.828  0.1393 -0.3027 -1.2293
27176SOL    HW293253   1.218   8.652   4.744 -0.6189  0.3818 -0.0406
27177SOL     OW93254   3.763   3.350   7.224  0.1437  0.0336 -0.0920
27177SOL    HW193255   3.678   3.393   7.236 -0.5715 -1.0925 -0.9465
27177SOL    HW293256   3.765   3.281   7.290 -0.0164 -0.5294 -0.6637
27178SOL     OW93257   1.173   5.018   6.452  0.0141 -0.7061 -0.5394
27178SOL    HW193258   1.095   5.057   6.492  0.9493  0.2663  0.3649
27178SOL    HW293259   1.175   5.055   6.363  0.1430  0.2677 -0.1416
27179SOL     OW93260   5.359   9.249   6.385 -1.1349  0.1927  0.2616
27179SOL    HW193261   5.441   9.233   6.337 -1.1532 -1.0050  0.5813
27179SOL    HW293262   5.380   9.319   6.446 -0.7452  0.8551 -0.6133
27180SOL     OW93263   3.082  10.971   1.889 -0.0629 -0.1116  0.1766
27180SOL    HW193264   3.068  10.892   1.837  1.5294 -1.1072  1.1782
27180SOL    HW293265   3.170  11.000   1.867  0.1819  0.1396  1.3871
27181SOL     OW93266   3.900   7.298   1.132  0.1158  0.0899  0.4211
27181SOL    HW193267   3.949   7.259   1.060  0.1142  0.9113 -0.0447
27181SOL    HW293268   3.834   7.353   1.088 -0.8951 -0.6109  1.0325
27182SOL     OW93269  11.467   9.527   6.467 -0.2333 -0.4453  0.1852
27182SOL    HW193270  11.448   9.521   6.561 -0.0813  0.0253  0.2517
27182SOL    HW293271  11.522   9.451   6.448 -0.1571 -0.4728  0.5091
27183SOL     OW93272   6.202  10.152   6.498 -0.5888 -0.4935 -0.0889
27183SOL    HW193273   6.167  10.136   6.586  0.3100 -0.9853  0.2028
27183SOL    HW293274   6.254  10.073   6.479 -1.1370 -0.5960 -1.2576
27184SOL     OW93275   9.273   3.395   7.698  0.2254  0.5492  0.1241
27184SOL    HW193276   9.316   3.314   7.727 -0.5137  0.5323  1.2219
27184SOL    HW293277   9.262   3.383   7.603  1.1268 -0.1523  0.0965
27185SOL     OW93278   0.708   3.873   0.607  0.3057  0.0299 -0.4262
27185SOL    HW193279   0.749   3.954   0.578  2.2743 -1.5236 -2.3430
27185SOL    HW293280   0.704   3.819   0.528  0.4187 -2.2597  1.0396
27186SOL     OW93281   3.114   7.208   7.108  0.2902  0.0375  0.0615
27186SOL    HW193282   3.111   7.249   7.022  0.8946 -0.2059 -0.0806
27186SOL    HW293283   3.149   7.120   7.092 -0.9725 -0.5343  0.3703
27187SOL     OW93284  11.822   2.214   1.806  0.1863  0.4499  0.3388
27187SOL    HW193285  11.788   2.177   1.724  2.0234 -0.2982 -0.1149
27187SOL    HW293286  11.837   2.307   1.786 -0.7945  0.6151  0.3115
27188SOL     OW93287   6.030   5.569   3.946  0.1803 -0.2820 -0.2033
27188SOL    HW193288   6.001   5.611   4.027 -0.6685 -1.3687  0.0761
27188SOL    HW293289   6.106   5.517   3.972  0.7139  0.3852 -0.3849
27189SOL     OW93290   7.459   5.194   1.727  0.0800 -0.0929 -0.5433
27189SOL    HW193291   7.493   5.282   1.736  0.0145  0.0770 -1.7946
27189SOL    HW293292   7.506   5.143   1.793 -0.0101  0.8929  0.3141
27190SOL     OW93293   3.620   9.174   5.738 -0.6522 -0.3970  0.1559
27190SOL    HW193294   3.630   9.269   5.747  0.0716 -0.2729 -1.5490
27190SOL    HW293295   3.698   9.138   5.779 -0.1132 -0.1463 -0.6134
27191SOL     OW93296   3.632   6.000  10.277  0.2182  0.7048 -0.2862
27191SOL    HW193297   3.550   5.973  10.318  0.7021  0.5065  0.5585
27191SOL    HW293298   3.689   5.924  10.284  0.6913  1.0544 -0.2940
27192SOL     OW93299  10.611   0.656   4.024  0.1076  0.5487 -0.5090
27192SOL    HW193300  10.706   0.662   4.033  0.0768  2.6150 -1.0165
27192SOL    HW293301  10.578   0.731   4.074 -1.1639  0.6772 -1.4872
27193SOL     OW93302   7.191   8.929   1.514  0.0514 -0.3306 -0.2382
27193SOL    HW193303   7.252   8.931   1.587  0.3043 -0.9617 -0.4280
27193SOL    HW293304   7.214   9.006   1.461  0.0385 -0.0210  0.1993
27194SOL     OW93305  10.969   0.235   7.082 -0.2281  0.2595 -0.1186
27194SOL    HW193306  10.990   0.263   6.994  1.5313  1.9881  0.7861
27194SOL    HW293307  10.918   0.155   7.070  1.3343 -0.4718 -2.6471
27195SOL     OW93308   8.783   2.536   5.930 -0.1707  0.2094 -0.0640
27195SOL    HW193309   8.697   2.515   5.967  0.1905  0.8392  1.2119
27195SOL    HW293310   8.808   2.458   5.881 -0.0403 -1.3418  2.2731
27196SOL     OW93311  10.217  11.695   4.750  0.2971  0.0221  0.3523
27196SOL    HW193312  10.262  11.621   4.710  1.2893  0.0603  1.3634
27196SOL    HW293313  10.203  11.668   4.841 -0.5459  0.5496  0.3912
27197SOL     OW93314   5.729   8.365   0.023 -0.2494  0.2614  0.8053
27197SOL    HW193315   5.791   8.316   0.077  0.5145  0.8753  0.5019
27197SOL    HW293316   5.754   8.457   0.035 -0.1469  0.4201 -0.4936
27198SOL     OW93317   5.817   9.387   8.515 -0.1116 -0.0793 -0.3310
27198SOL    HW193318   5.798   9.381   8.421  1.4421  3.1453 -1.0001
27198SOL    HW293319   5.904   9.347   8.524 -0.6917 -1.3263 -0.0126
27199SOL     OW93320   0.948   6.217  10.594 -0.0805 -0.1529  0.5807
27199SOL    HW193321   0.916   6.129  10.575  0.3095  0.0207 -1.0270
27199SOL    HW293322   0.890   6.250  10.662 -2.9760 -0.1037 -1.7192
27200SOL     OW93323   8.242   2.000   4.652  0.4038  0.3200 -0.0331
27200SOL    HW193324   8.281   2.012   4.565 -0.4969  0.5750 -0.4192
27200SOL    HW293325   8.150   1.983   4.634 -0.2116  2.2888  0.9248
27201SOL     OW93326   2.812   9.549   5.777 -0.6293 -0.4332 -0.3618
27201SOL    HW193327   2.893   9.561   5.826 -0.1407  1.6182 -1.5258
27201SOL    HW293328   2.840   9.535   5.687 -1.5263  0.4554 -0.8064
27202SOL     OW93329   8.878   3.271   5.949  0.0260  0.2276  0.0781
27202SOL    HW193330   8.842   3.189   5.983 -0.7811 -0.5432 -2.3802
27202SOL    HW293331   8.818   3.296   5.878  1.4555  1.7803 -0.6592
27203SOL     OW93332   5.091  10.095   2.714 -0.8416  0.5089  0.0851
27203SOL    HW193333   5.084  10.052   2.628  1.7071 -2.1534  1.0187
27203SOL    HW293334   5.156  10.164   2.701  4.1599 -3.4598  0.7092
27204SOL     OW93335   3.997   8.833   8.819 -0.3165 -0.7651  0.0555
27204SOL    HW193336   4.041   8.866   8.741 -0.7237 -2.7016 -1.0571
27204SOL    HW293337   4.064   8.784   8.867  0.1660  1.1359  1.4569
27205SOL     OW93338   4.699   0.218   8.235 -0.5018 -0.1799 -1.0413
27205SOL    HW193339   4.792   0.199   8.222 -0.2470  0.8656 -0.8095
27205SOL    HW293340   4.671   0.255   8.152 -0.2044  1.4031 -0.4576
27206SOL     OW93341   8.030   1.813   6.796 -0.4828 -0.3601  0.3294
27206SOL    HW193342   7.982   1.732   6.815  0.9303 -1.2593  0.2477
27206SOL    HW293343   8.043   1.853   6.882 -1.3925 -0.0855  0.3469
27207SOL     OW93344   4.259   4.870   8.012 -0.1320 -0.5423  0.1258
27207SOL    HW193345   4.222   4.782   8.023 -2.0652  0.2255  0.1119
27207SOL    HW293346   4.263   4.907   8.100 -0.1209 -0.3211  0.0342
27208SOL     OW93347   5.730   7.292   3.732  0.4595 -0.1781  0.5241
27208SOL    HW193348   5.744   7.356   3.663  1.2733 -1.3826 -0.4934
27208SOL    HW293349   5.721   7.343   3.812  1.5553  1.1689 -0.1793
27209SOL     OW93350  10.325   6.512   9.734 -0.2253 -0.3944  0.1555
27209SOL    HW193351  10.317   6.428   9.780  1.3885 -0.3034  0.6625
27209SOL    HW293352  10.343   6.487   9.643 -0.3668 -0.6010  0.1846
27210SOL     OW93353   2.773   8.556   2.217  0.4464  0.0094  0.0972
27210SOL    HW193354   2.698   8.526   2.164  1.0179 -0.9408 -0.1980
27210SOL    HW293355   2.751   8.646   2.240 -0.9910 -0.3728  0.3671
27211SOL     OW93356   0.424  11.612  11.504 -0.2303  0.5476 -0.3048
27211SOL    HW193357   0.498  11.604  11.445 -0.4034 -1.1157 -0.3624
27211SOL    HW293358   0.423  11.528  11.552 -0.4582  1.5890  1.6196
27212SOL     OW93359   3.788   5.162  11.621 -0.1183 -0.1892  0.4159
27212SOL    HW193360   3.781   5.068  11.604 -1.2935 -0.2250  0.9659
27212SOL    HW293361   3.863   5.170  11.680  0.4378 -0.6976 -0.2112
27213SOL     OW93362   1.622   5.021  11.175 -0.0626 -0.2406  0.0405
27213SOL    HW193363   1.655   4.981  11.255 -0.9111  0.5538  0.8137
27213SOL    HW293364   1.666   5.106  11.171 -0.3201 -0.1122 -0.1120
27214SOL     OW93365   7.690   2.770   4.830 -0.2550  0.2051 -0.3485
27214SOL    HW193366   7.701   2.836   4.898 -1.0675 -0.1502  0.1413
27214SOL    HW293367   7.616   2.800   4.778 -0.4130 -0.1452 -0.3306
27215SOL     OW93368   6.695   1.271   0.314  0.7418  0.3146  0.1209
27215SOL    HW193369   6.614   1.227   0.287  1.8128 -0.8008 -1.4781
27215SOL    HW293370   6.720   1.227   0.395  0.9431 -0.9529 -0.6053
27216SOL     OW93371   7.119   8.887   4.086 -0.3544 -0.1296 -0.1889
27216SOL    HW193372   7.154   8.955   4.028 -0.1107 -1.6515 -1.9491
27216SOL    HW293373   7.197   8.846   4.124 -0.4106 -0.5173 -0.4822
27217SOL     OW93374   0.840   3.096   6.611  0.8230 -0.7270 -0.0663
27217SOL    HW193375   0.839   3.165   6.677  1.0175  0.1826 -0.9984
27217SOL    HW293376   0.784   3.128   6.541  1.2663 -1.3177 -0.7034
27218SOL     OW93377   0.495   3.111   4.182  0.1887  0.5694 -0.0631
27218SOL    HW193378   0.553   3.085   4.254  2.1076  0.3529 -1.6138
27218SOL    HW293379   0.461   3.029   4.148 -0.9704  0.6881  0.7392
27219SOL     OW93380   8.267   0.817   5.000 -0.0113  0.6842  0.4154
27219SOL    HW193381   8.182   0.800   4.959 -1.1240  4.6315  0.6587
27219SOL    HW293382   8.246   0.839   5.091  1.5293  0.0052  0.9777
27220SOL     OW93383   3.056   0.000   4.402 -0.0736  0.1258 -0.1918
27220SOL    HW193384   3.097   0.085   4.386 -0.2063  0.0744 -0.8051
27220SOL    HW293385   2.966   0.011   4.374 -1.0557  0.8015  2.8263
27221SOL     OW93386   4.128   2.372  11.034 -0.3772  0.0639 -0.3572
27221SOL    HW193387   4.209   2.325  11.012 -0.4614  0.0752 -0.6957
27221SOL    HW293388   4.063   2.339  10.973 -0.5526  0.2861 -0.2947
27222SOL     OW93389   1.633   3.934   2.712 -0.8094 -0.4453  0.3519
27222SOL    HW193390   1.668   3.864   2.767 -0.1884  1.4698  2.5681
27222SOL    HW293391   1.711   3.982   2.682 -1.2460 -0.3258 -0.6372
27223SOL     OW93392   4.232   3.475   3.081  0.2276  0.4730 -0.2383
27223SOL    HW193393   4.256   3.449   3.170  0.2947  1.2092 -0.0378
27223SOL    HW293394   4.299   3.434   3.026  0.5359  0.5151  0.1038
27224SOL     OW93395   5.220   0.486   1.345 -0.0225  0.1805 -0.3615
27224SOL    HW193396   5.145   0.512   1.398 -0.3522  0.9942 -1.1984
27224SOL    HW293397   5.296   0.500   1.402 -0.4564 -0.0852  0.2862
27225SOL     OW93398  11.659   0.154   5.707 -0.4771 -0.1263 -0.9920
27225SOL    HW193399  11.644   0.205   5.627  1.1030  0.2115 -1.1106
27225SOL    HW293400  11.742   0.108   5.691 -0.1471 -0.0784  0.4255
27226SOL     OW93401   1.990   5.421   6.794 -0.1548 -0.2337  0.0745
27226SOL    HW193402   2.004   5.493   6.733  0.1486 -0.5208 -0.1991
27226SOL    HW293403   2.070   5.369   6.789 -0.8428 -1.2731 -0.6720
27227SOL     OW93404   2.139   9.516   0.344  0.0030  0.2675 -0.3732
27227SOL    HW193405   2.202   9.588   0.347 -0.3478  0.5336  0.6098
27227SOL    HW293406   2.194   9.438   0.334  0.4538  0.5541 -0.1852
27228SOL     OW93407   7.771   2.207  11.433  0.3521 -0.0376  0.0889
27228SOL    HW193408   7.683   2.187  11.465 -1.4442  1.9274 -3.1490
27228SOL    HW293409   7.789   2.295  11.466  0.8992 -0.2153  0.2807
27229SOL     OW93410   7.915   5.472  10.220  0.2407 -0.0093 -0.2741
27229SOL    HW193411   7.914   5.499  10.312 -1.5206  2.3176 -0.8869
27229SOL    HW293412   7.991   5.515  10.183  1.0779 -1.1240  0.0955
27230SOL     OW93413   3.924   6.228   2.220 -0.1452 -0.0915 -0.4392
27230SOL    HW193414   3.910   6.313   2.262  0.5798  0.5438 -1.4340
27230SOL    HW293415   3.952   6.170   2.291  0.4985  0.8020  0.0544
27231SOL     OW93416   3.668   3.524   9.531 -0.0835  0.0874  0.4076
27231SOL    HW193417   3.626   3.600   9.489 -0.7741 -0.2563  0.4611
27231SOL    HW293418   3.697   3.558   9.616 -0.0016  0.4038  0.2571
27232SOL     OW93419   7.113   5.533   2.320  0.3410 -0.3902 -0.1935
27232SOL    HW193420   7.055   5.468   2.360 -0.5048  1.5056  1.8796
27232SOL    HW293421   7.201   5.506   2.346  0.1465 -1.4828 -0.6131
27233SOL     OW93422   5.849  10.263   2.413  0.0853 -1.0115  0.5575
27233SOL    HW193423   5.820  10.238   2.500  2.4280 -0.1764  1.6882
27233SOL    HW293424   5.930  10.214   2.399  0.0417 -0.7264 -0.9187
27234SOL     OW93425  11.467   4.763   6.014  0.3492 -0.3949  0.0585
27234SOL    HW193426  11.414   4.730   5.941  1.2851 -1.7012 -0.0495
27234SOL    HW293427  11.553   4.724   6.002  0.1562 -1.8609  2.6878
27235SOL     OW93428   1.169  10.040   5.450  0.3184 -0.2776 -0.2899
27235SOL    HW193429   1.169  10.124   5.496  0.7731  1.0154 -2.4766
27235SOL    HW293430   1.256  10.004   5.464 -0.0462 -0.6672  1.0857
27236SOL     OW93431   2.017   1.537  10.141  0.5896 -0.0352  0.1619
27236SOL    HW193432   2.069   1.518  10.220  2.2250 -0.9736 -1.0820
27236SOL    HW293433   2.026   1.632  10.130  0.3850  0.1010  1.0604
27237SOL     OW93434   6.092   8.770   1.936 -0.2614  0.6053 -0.3116
27237SOL    HW193435   6.162   8.715   1.899 -0.5342  0.8763 -1.2572
27237SOL    HW293436   6.138   8.847   1.969 -0.0283  0.4449 -0.2557
27238SOL     OW93437   8.563   9.288   9.240  0.6714 -0.0237  0.0031
27238SOL    HW193438   8.599   9.234   9.310 -0.6449 -0.7465  0.1692
27238SOL    HW293439   8.482   9.324   9.277  0.4108  0.2896 -0.8487
27239SOL     OW93440   9.217   7.337   4.663 -0.1515 -0.4527  0.1250
27239SOL    HW193441   9.284   7.397   4.631 -1.4727  1.3455  0.6175
27239SOL    HW293442   9.264   7.254   4.677  1.1697 -0.4258 -3.2627
27240SOL     OW93443   9.409   9.116   7.010  0.0833 -0.4464 -0.1501
27240SOL    HW193444   9.383   9.186   7.071 -1.3548 -0.3509 -0.8269
27240SOL    HW293445   9.490   9.148   6.971 -0.8687  1.1943 -0.9219
27241SOL     OW93446   9.736   7.687   9.427 -0.7690  0.3655 -0.5386
27241SOL    HW193447   9.717   7.601   9.390  1.6435 -0.4228 -0.1223
27241SOL    HW293448   9.804   7.670   9.492  0.6755  2.7176 -1.3139
27242SOL     OW93449   7.019   5.515   8.616  0.5377 -0.8526 -0.3861
27242SOL    HW193450   6.951   5.450   8.630  0.6827 -0.9034  0.0887
27242SOL    HW293451   6.971   5.596   8.597  0.3496 -0.9437 -0.3001
27243SOL     OW93452   2.348   5.119   7.400  0.6222 -0.1728  0.1655
27243SOL    HW193453   2.260   5.140   7.431 -0.2717  0.1516 -2.3442
27243SOL    HW293454   2.355   5.024   7.412 -0.2565 -0.2704 -0.0201
27244SOL     OW93455   3.185  10.440   5.979  0.1337  0.4597 -0.4143
27244SOL    HW193456   3.186  10.504   6.051 -2.4048 -0.7804  0.8478
27244SOL    HW293457   3.278  10.426   5.958  0.8553  2.5228  1.0748
27245SOL     OW93458   2.899   6.214   8.878 -0.9950 -0.2911  0.1538
27245SOL    HW193459   2.980   6.233   8.831  0.6785 -0.7354  2.6338
27245SOL    HW293460   2.854   6.298   8.884 -0.5922  0.0254 -1.0157
27246SOL     OW93461   1.820   4.533   3.063  0.4732  0.3868  0.0445
27246SOL    HW193462   1.773   4.542   3.146  0.9427  1.9807  0.1570
27246SOL    HW293463   1.909   4.509   3.089  0.3990  0.0016 -0.0497
27247SOL     OW93464   5.475  10.142   0.879  0.1713 -0.1667  0.0248
27247SOL    HW193465   5.418  10.111   0.950 -0.4691  0.7257 -0.0731
27247SOL    HW293466   5.459  10.081   0.807  0.0276 -0.4637  0.3065
27248SOL     OW93467   9.425   1.709  11.530  0.3964 -0.7699  0.2890
27248SOL    HW193468   9.475   1.791  11.540  0.6500 -0.7922 -0.6676
27248SOL    HW293469   9.412   1.678  11.619 -0.0654  0.5318  0.7043
27249SOL     OW93470   4.184   3.667   3.663  0.1735  0.1628 -0.0266
27249SOL    HW193471   4.133   3.741   3.694  1.1657  1.3147 -1.0085
27249SOL    HW293472   4.270   3.705   3.642  0.8990 -1.3878  0.0217
27250SOL     OW93473   1.461   3.204   1.097 -0.2973  0.3941 -0.0597
27250SOL    HW193474   1.371   3.208   1.064 -0.1690  0.7647 -0.3861
27250SOL    HW293475   1.452   3.202   1.192 -0.6253  1.9419 -0.0253
27251SOL     OW93476  11.360  11.904   8.757  0.2608 -0.2458 -0.1628
27251SOL    HW193477  11.282  11.863   8.795  0.7356 -0.7982  0.2367
27251SOL    HW293478  11.367  11.865   8.670  0.0433 -0.1321 -0.2314
27252SOL     OW93479  11.653   0.940   5.964 -0.3263  0.0223 -0.2862
27252SOL    HW193480  11.574   0.962   5.915  0.0565  0.1273 -0.8618
27252SOL    HW293481  11.623   0.933   6.055 -0.8296  0.9305 -0.3733
27253SOL     OW93482   9.587  10.919   9.286  0.3577 -0.2717 -0.2788
27253SOL    HW193483   9.569  10.833   9.247 -0.3256  0.2077 -1.0706
27253SOL    HW293484   9.514  10.934   9.346  0.1137  0.0381 -0.6460
27254SOL     OW93485   8.604   1.878   8.554 -0.1733  0.2242  1.0202
27254SOL    HW193486   8.553   1.797   8.543  0.3354 -0.1111  1.0687
27254SOL    HW293487   8.660   1.860   8.630 -0.2074  0.7044  1.1587
27255SOL     OW93488   5.924   7.529   8.646 -0.3808 -0.0613 -0.5241
27255SOL    HW193489   5.938   7.503   8.737  1.6879 -0.1194 -0.8042
27255SOL    HW293490   6.011   7.553   8.615 -1.5154  3.2940 -1.4963
27256SOL     OW93491   5.220   3.301   5.817  0.3301  0.0135  0.5151
27256SOL    HW193492   5.169   3.229   5.854  0.4320  0.1481  0.9319
27256SOL    HW293493   5.255   3.267   5.735 -0.4651 -0.0684  0.1999
27257SOL     OW93494  11.613   1.018   4.506  0.0957  0.0698 -0.2511
27257SOL    HW193495  11.575   1.027   4.593  1.3324 -0.4555  0.3697
27257SOL    HW293496  11.669   1.095   4.496  1.8080 -1.0379  0.4190
27258SOL     OW93497   0.356  11.757   9.874  0.2138 -0.0667 -0.1693
27258SOL    HW193498   0.265  11.773   9.900  0.4915 -0.0025  0.8115
27258SOL    HW293499   0.354  11.671   9.832 -0.2770 -0.1362 -0.0140
27259SOL     OW93500   6.209   8.860   0.495  0.1350 -0.2097  0.4233
27259SOL    HW193501   6.253   8.842   0.578  0.4581  1.0262  0.5379
27259SOL    HW293502   6.278   8.890   0.436 -0.3575  0.7454  0.2970
27260SOL     OW93503   7.467   3.763  10.597  0.5676  0.4031  0.0037
27260SOL    HW193504   7.517   3.806  10.667  1.7055  1.0103 -1.1526
27260SOL    HW293505   7.531   3.708  10.552  0.2288  1.2125 -1.5311
27261SOL     OW93506   2.714   1.541   9.530 -0.4208 -0.1810 -0.1868
27261SOL    HW193507   2.724   1.458   9.483 -0.9353  0.1171 -0.8466
27261SOL    HW293508   2.746   1.523   9.618 -1.7611 -1.4543  0.0763
27262SOL     OW93509   1.424   5.214   7.278 -0.0939 -0.4112  0.1674
27262SOL    HW193510   1.431   5.126   7.240 -0.0708  0.6697 -2.6228
27262SOL    HW293511   1.514   5.238   7.301  0.3645 -0.1054 -1.7537
27263SOL     OW93512   3.686   2.604  11.170  0.2128 -0.7962 -0.3727
27263SOL    HW193513   3.778   2.630  11.174 -0.6923  3.1988 -1.2402
27263SOL    HW293514   3.644   2.656  11.239 -2.1667  2.2197 -3.7765
27264SOL     OW93515   8.650   7.742   7.019 -0.4538 -0.4996  0.3348
27264SOL    HW193516   8.576   7.688   7.045  0.1741 -1.3520  0.4194
27264SOL    HW293517   8.643   7.820   7.073 -0.4551 -1.2417  1.4449
27265SOL     OW93518   3.920   4.384   1.703  0.2992  0.0966 -0.3150
27265SOL    HW193519   3.829   4.414   1.700  0.8732  1.9199 -0.6855
27265SOL    HW293520   3.953   4.399   1.615  0.5790 -1.9906 -0.6278
27266SOL     OW93521   1.552   8.070   7.838 -0.4304 -0.7090  0.2444
27266SOL    HW193522   1.535   7.992   7.891  0.9270  0.6413  2.8676
27266SOL    HW293523   1.506   8.140   7.883  0.1721  0.4007 -0.8020
27267SOL     OW93524   6.561   3.856   5.811  0.0550  0.5530  0.1307
27267SOL    HW193525   6.474   3.834   5.777  0.6541 -0.3693 -0.8386
27267SOL    HW293526   6.586   3.781   5.865 -0.6421  1.7572  2.2602
27268SOL     OW93527   5.475   6.001   6.391  0.8233  0.4325 -0.2502
27268SOL    HW193528   5.427   5.948   6.455 -1.7621  2.1664 -0.5866
27268SOL    HW293529   5.567   5.991   6.416  0.4945 -3.7353 -0.0529
27269SOL     OW93530   8.301   3.978   5.363  0.0105  0.4014 -0.3937
27269SOL    HW193531   8.267   3.953   5.277 -1.3149  0.6300  0.0361
27269SOL    HW293532   8.261   4.063   5.380 -1.4777 -0.5632  1.3385
27270SOL     OW93533   1.716   0.543   7.068 -0.1940 -0.1572 -0.2389
27270SOL    HW193534   1.679   0.620   7.024 -2.0256 -0.9941 -0.2737
27270SOL    HW293535   1.809   0.562   7.076 -0.1654  1.0141 -2.4575
27271SOL     OW93536   0.290   6.462   2.608 -0.4475  0.5601 -0.2494
27271SOL    HW193537   0.209   6.508   2.630 -0.6118  0.4978 -0.7247
27271SOL    HW293538   0.324   6.432   2.693 -0.4714  1.3324  0.0341
27272SOL     OW93539   3.747  10.882   3.342  0.1578 -0.4763  0.0077
27272SOL    HW193540   3.733  10.788   3.345  1.7339 -0.7236  0.5860
27272SOL    HW293541   3.825  10.897   3.397 -0.1662  1.1749  0.0850
27273SOL     OW93542   7.077   7.478   9.272  0.3712 -0.0158 -0.4218
27273SOL    HW193543   7.138   7.458   9.201 -0.1772  1.4889 -1.3603
27273SOL    HW293544   7.014   7.406   9.270 -0.1533  0.4305 -2.0911
27274SOL     OW93545   6.241   3.527  10.303 -0.3678 -0.3990 -0.2814
27274SOL    HW193546   6.171   3.533  10.237 -0.9829 -0.2845  0.3614
27274SOL    HW293547   6.229   3.606  10.356  0.0829 -0.5217  0.0044
27275SOL     OW93548   4.137   2.204   5.030 -0.1191  0.5024 -0.2546
27275SOL    HW193549   4.082   2.162   4.964  1.1620  0.0902 -1.0787
27275SOL    HW293550   4.120   2.298   5.019 -1.0501  0.3632 -0.1301
27276SOL     OW93551   4.983   0.746   0.534 -0.6041  0.3692  0.6020
27276SOL    HW193552   4.959   0.663   0.575 -0.2418 -1.1301 -1.9740
27276SOL    HW293553   5.008   0.722   0.445 -0.0942  3.2308 -0.1285
27277SOL     OW93554   6.855   3.517  11.761  0.1138  0.6191  0.1720
27277SOL    HW193555   6.818   3.435  11.730  1.6959  0.7040 -2.1958
27277SOL    HW293556   6.838   3.517  11.856 -1.0627 -1.7879  0.0345
27278SOL     OW93557   0.300   7.494   9.322 -0.6703 -0.1551 -0.7246
27278SOL    HW193558   0.350   7.432   9.269 -0.1408 -0.3105 -0.0501
27278SOL    HW293559   0.362   7.564   9.342  0.1674 -1.6197  2.3654
27279SOL     OW93560  10.648   0.398   3.922  0.1710  0.0606  0.8152
27279SOL    HW193561  10.610   0.455   3.855  1.2398 -0.0431  0.0996
27279SOL    HW293562  10.573   0.363   3.970 -0.6274 -0.2186 -0.6169
27280SOL     OW93563   1.523   2.876  10.201 -1.1452  0.0441  0.3388
27280SOL    HW193564   1.451   2.918  10.155 -1.3370  0.7603  1.2556
27280SOL    HW293565   1.497   2.878  10.294 -2.0066 -3.7298  0.3321
27281SOL     OW93566   9.519   0.251  10.836 -0.2163 -0.2085 -0.6951
27281SOL    HW193567   9.499   0.327  10.780  1.4735  0.6287 -0.2403
27281SOL    HW293568   9.439   0.237  10.886  0.3698  3.5284  1.6991
27282SOL     OW93569   5.805   8.949   3.509  0.7986  0.0667 -0.3184
27282SOL    HW193570   5.860   8.976   3.583  1.3593  0.6431 -0.9352
27282SOL    HW293571   5.829   8.857   3.494 -0.2408 -0.4580  1.0102
27283SOL     OW93572   3.507   0.658   2.133 -0.0713  0.3787 -0.4550
27283SOL    HW193573   3.507   0.682   2.041 -0.1610  0.7383 -0.3619
27283SOL    HW293574   3.583   0.703   2.170 -1.1831  1.8964  0.0700
27284SOL     OW93575   2.495   8.348   5.282  0.6036 -0.0680  0.7782
27284SOL    HW193576   2.401   8.346   5.300  0.3818 -0.1486 -0.3230
27284SOL    HW293577   2.502   8.328   5.188  1.9103 -3.1059  1.4080
27285SOL     OW93578  11.412   9.611   7.085 -0.0411 -0.1193 -0.6556
27285SOL    HW193579  11.327   9.654   7.085  0.9905  2.2939  2.6739
27285SOL    HW293580  11.393   9.519   7.067 -3.5364  0.0818  1.2341
27286SOL     OW93581   7.973   6.146   0.193  0.1364  0.0358 -0.0305
27286SOL    HW193582   7.891   6.096   0.186 -0.0092  0.2860 -0.1380
27286SOL    HW293583   7.966   6.192   0.276 -1.1094  2.2703 -1.2771
27287SOL     OW93584   4.500   7.330  10.674  0.1009 -0.3344  0.1053
27287SOL    HW193585   4.578   7.345  10.728 -0.7384 -0.3533  1.3581
27287SOL    HW293586   4.434   7.298  10.735 -0.4129 -1.9156 -1.2163
27288SOL     OW93587   2.508   0.061   4.249  0.3722 -0.1277  0.2375
27288SOL    HW193588   2.488  -0.005   4.183 -2.5056  1.3299 -0.4967
27288SOL    HW293589   2.544   0.134   4.199 -0.2267  0.3457  0.4899
27289SOL     OW93590   5.952   2.183   1.647  0.7745  0.2185 -0.2621
27289SOL    HW193591   5.879   2.213   1.702  1.1159 -0.8116  0.7973
27289SOL    HW293592   5.968   2.256   1.587  1.9283  2.4401  2.5002
27290SOL     OW93593   4.298   7.226   7.200  0.1046  0.3772 -0.2273
27290SOL    HW193594   4.315   7.308   7.246 -1.0716  2.0109 -2.4966
27290SOL    HW293595   4.232   7.181   7.253 -1.2562  2.2307 -0.2523
27291SOL     OW93596  10.068   0.146   6.560  0.2617  0.1562 -0.7211
27291SOL    HW193597  10.055   0.108   6.647  2.1911 -2.3728 -1.4078
27291SOL    HW293598   9.996   0.110   6.507 -0.7281  1.4412 -0.2862
27292SOL     OW93599   4.069   6.501   3.953  0.7199 -0.3847 -0.4960
27292SOL    HW193600   4.003   6.558   3.992  0.3772  0.0311 -1.6496
27292SOL    HW293601   4.078   6.532   3.862  3.1622  0.1744 -0.1560
27293SOL     OW93602   8.162   1.421   6.755 -0.1583  0.4054  0.0694
27293SOL    HW193603   8.154   1.478   6.832 -0.0980  1.2408 -0.5241
27293SOL    HW293604   8.081   1.435   6.706 -0.6324 -0.8781  0.4644
27294SOL     OW93605   4.687   5.364   4.564 -0.7470 -0.3868  0.4060
27294SOL    HW193606   4.614   5.309   4.534 -1.3049 -0.3023  1.5740
27294SOL    HW293607   4.647   5.427   4.623  0.0363  0.7118 -0.2041
27295SOL     OW93608   9.178   5.530   7.207 -0.6855 -0.4201  0.0689
27295SOL    HW193609   9.173   5.619   7.240  0.8940 -0.4470  0.4682
27295SOL    HW293610   9.118   5.480   7.263 -0.7424  0.1848  0.5539
27296SOL     OW93611   9.984   1.914   6.083 -0.0667 -0.1301 -0.3167
27296SOL    HW193612  10.044   1.984   6.057  1.3706 -1.2886 -0.2453
27296SOL    HW293613  10.014   1.889   6.170 -1.9877  0.6516  0.6186
27297SOL     OW93614   3.555   6.652  10.712 -0.1392  0.5874  0.0599
27297SOL    HW193615   3.599   6.693  10.638  2.5007  0.8579  1.6858
27297SOL    HW293616   3.554   6.559  10.691  0.8678  0.6278 -0.1758
27298SOL     OW93617   7.262   7.165   2.473  0.6746  0.4267 -1.0187
27298SOL    HW193618   7.219   7.090   2.515 -1.0979  2.3229  0.7965
27298SOL    HW293619   7.333   7.189   2.533  0.8255  0.5829 -1.2568
27299SOL     OW93620   2.245   8.118   4.027  0.2737  0.3304 -0.4890
27299SOL    HW193621   2.234   8.037   4.076  1.2195 -0.4833 -1.5650
27299SOL    HW293622   2.292   8.092   3.948  1.1194  2.0223 -0.5889
27300SOL     OW93623  10.760   3.550   1.002  0.0484  0.4167  0.4301
27300SOL    HW193624  10.826   3.577   0.938  0.9979 -0.8878  0.8186
27300SOL    HW293625  10.710   3.481   0.959  0.1045  0.1576  0.7752
27301SOL     OW93626   5.140   0.476  11.057 -0.4304 -0.2046  0.0763
27301SOL    HW193627   5.103   0.434  10.980 -2.1029  1.7587 -0.2730
27301SOL    HW293628   5.234   0.480  11.040 -0.7080 -0.2985 -1.5954
27302SOL     OW93629   5.907   9.200  11.780  0.0661  0.0613  0.1043
27302SOL    HW193630   5.969   9.160  11.719  1.1211 -0.1676  1.2758
27302SOL    HW293631   5.962   9.249  11.841 -0.8123 -0.8902  1.7346
27303SOL     OW93632   1.535   5.742   7.124 -0.7321 -0.4282  0.3047
27303SOL    HW193633   1.521   5.836   7.139  1.4221 -0.0278  0.2244
27303SOL    HW293634   1.562   5.737   7.033 -0.1182 -1.0088  0.5099
27304SOL     OW93635   7.159   7.360   4.480  0.7992 -0.0854 -0.4731
27304SOL    HW193636   7.231   7.334   4.422  1.0191  0.4629 -0.4554
27304SOL    HW293637   7.200   7.365   4.567  0.6265 -0.2280 -0.3809
27305SOL     OW93638  11.369   1.739   5.922  0.3217 -0.0519 -0.4312
27305SOL    HW193639  11.383   1.666   5.982 -0.4582  0.6737  0.6822
27305SOL    HW293640  11.309   1.797   5.969 -0.4638  0.4643 -1.9965
27306SOL     OW93641   9.554   5.083  11.543 -0.2973  0.1694 -0.2077
27306SOL    HW193642   9.473   5.100  11.495  0.1284  0.2036 -0.9353
27306SOL    HW293643   9.532   5.099  11.634 -1.7957 -2.1784 -0.0557
27307SOL     OW93644   9.706   8.350  11.915 -0.3648 -0.8361 -0.2630
27307SOL    HW193645   9.634   8.297  11.949 -0.1547  0.9097  3.4326
27307SOL    HW293646   9.764   8.363  11.991  1.2371  1.9541 -1.7876
27308SOL     OW93647   6.094   3.661  11.617  0.4180 -0.1461 -0.0698
27308SOL    HW193648   6.102   3.629  11.706 -0.1537  1.8948  0.7855
27308SOL    HW293649   6.028   3.605  11.576 -0.5401 -0.0644  1.3299
27309SOL     OW93650   5.996  10.441   4.500 -0.5007 -0.3305  0.5015
27309SOL    HW193651   5.987  10.422   4.594 -0.0079  0.9357  0.8328
27309SOL    HW293652   5.940  10.377   4.457 -1.0677 -0.6672  1.6911
27310SOL     OW93653   0.989   4.695  11.058 -0.5529  0.4118  0.0566
27310SOL    HW193654   0.981   4.609  11.018  0.0564  0.4648 -0.1771
27310SOL    HW293655   1.002   4.755  10.985 -0.2958  0.6176  0.2688
27311SOL     OW93656   6.514   7.344   4.654 -0.2538  0.3782 -0.3649
27311SOL    HW193657   6.595   7.293   4.644 -1.3087 -1.1335 -1.7964
27311SOL    HW293658   6.515   7.373   4.745  1.4144 -0.4324 -0.0774
27312SOL     OW93659   3.072   3.183  11.392  0.5198  0.0052  0.2770
27312SOL    HW193660   3.106   3.164  11.305 -2.0475 -0.7105 -0.6848
27312SOL    HW293661   2.994   3.237  11.376  0.1751  0.1285  2.1454
27313SOL     OW93662   1.148   5.774   1.282 -0.3500 -0.2488 -0.1045
27313SOL    HW193663   1.233   5.756   1.240 -0.1577  1.4163 -0.5229
27313SOL    HW293664   1.095   5.697   1.263  0.8821 -1.0692 -0.3484
27314SOL     OW93665   8.378   5.854   2.266  0.1349 -0.4650  0.3558
27314SOL    HW193666   8.335   5.817   2.343  0.3141  0.2285  0.7918
27314SOL    HW293667   8.443   5.914   2.301  0.4457 -0.3927 -0.3332
27315SOL     OW93668   7.961   2.138  11.245  0.0998 -0.1624  0.4156
27315SOL    HW193669   7.908   2.143  11.325 -0.0855  0.3840  0.2633
27315SOL    HW293670   8.051   2.150  11.275 -0.0861  1.5061  0.3935
27316SOL     OW93671   6.154  11.614   7.035  0.0451  0.3804 -0.0303
27316SOL    HW193672   6.127  11.538   6.984  2.1120  0.6806 -1.7071
27316SOL    HW293673   6.241  11.636   7.001  0.0135  2.7591  1.2244
27317SOL     OW93674   7.680  10.396  11.661 -0.3685 -0.1537 -0.7655
27317SOL    HW193675   7.604  10.448  11.686 -1.4040 -1.0528 -1.9492
27317SOL    HW293676   7.669  10.313  11.706  0.0544 -0.1951 -0.7365
27318SOL     OW93677   8.870   4.738  10.906 -0.6057 -0.2418  0.0251
27318SOL    HW193678   8.821   4.795  10.966 -1.1254 -0.3589 -0.2769
27318SOL    HW293679   8.892   4.794  10.832 -0.3836 -0.2211  0.1055
27319SOL     OW93680   9.348  11.194   8.505  0.2017  0.6314 -0.3580
27319SOL    HW193681   9.339  11.207   8.599  1.2043 -4.0563  0.6118
27319SOL    HW293682   9.435  11.227   8.485  0.8043 -0.1964  0.8113
27320SOL     OW93683  10.551   1.496   7.096 -0.3898  0.1224  0.8158
27320SOL    HW193684  10.612   1.558   7.136 -0.4321  0.4033  0.4579
27320SOL    HW293685  10.471   1.547   7.084 -0.5134 -0.0832  0.7652
27321SOL     OW93686   4.399   7.584   4.861 -0.6667  0.4470 -0.2646
27321SOL    HW193687   4.321   7.580   4.805 -0.5995  0.3281 -0.3495
27321SOL    HW293688   4.473   7.578   4.800 -0.5842  0.8444 -0.2119
27322SOL     OW93689   2.097   3.127   9.477  0.3108 -0.0732  0.0407
27322SOL    HW193690   2.145   3.053   9.442  1.3058  0.4834  0.1795
27322SOL    HW293691   2.009   3.119   9.441  0.8372 -0.4545 -1.1883
27323SOL     OW93692   5.850   1.461   6.856 -0.0934  0.2324  0.1339
27323SOL    HW193693   5.939   1.437   6.830 -0.5431 -0.8622 -0.4786
27323SOL    HW293694   5.817   1.385   6.904 -0.9568  0.3029 -0.3205
27324SOL     OW93695   2.902  11.552   6.795 -0.5465  0.0138  0.5892
27324SOL    HW193696   2.992  11.570   6.822 -1.3100  0.5182  3.0874
27324SOL    HW293697   2.896  11.456   6.796  0.1190 -0.0500 -0.2562
27325SOL     OW93698   5.148   5.968   7.230  0.1691 -0.4903  0.2960
27325SOL    HW193699   5.214   5.934   7.169  0.1425  0.6209 -0.3740
27325SOL    HW293700   5.088   5.895   7.245  1.6153 -1.5780  1.0372
27326SOL     OW93701   6.195   7.378   5.892 -0.4219  0.2752 -0.4484
27326SOL    HW193702   6.290   7.366   5.883 -0.6779 -0.7408 -2.4820
27326SOL    HW293703   6.175   7.347   5.980  0.5820 -4.2320 -1.5509
27327SOL     OW93704   5.322   2.205   9.643  0.2462 -0.1974  0.0901
27327SOL    HW193705   5.231   2.184   9.661  0.2180  0.7056  1.0586
27327SOL    HW293706   5.319   2.271   9.573  0.1401  0.1376  0.4108
27328SOL     OW93707  11.506   8.547   4.825 -0.4198  0.4739  0.2081
27328SOL    HW193708  11.500   8.564   4.919  1.7878 -1.9882  0.9259
27328SOL    HW293709  11.597   8.568   4.803 -0.2629 -1.1636 -0.8437
27329SOL     OW93710   2.021   5.225   2.359 -0.0496  0.0120 -0.2175
27329SOL    HW193711   1.994   5.297   2.416 -1.1732 -0.0479 -0.6557
27329SOL    HW293712   1.953   5.220   2.292 -0.0069 -1.4695 -0.1806
27330SOL     OW93713   0.163  11.103   8.991  0.5372  0.5636  0.0022
27330SOL    HW193714   0.074  11.131   8.974  0.8262  1.2272 -0.4359
27330SOL    HW293715   0.188  11.149   9.071  0.0308 -0.6720  0.9123
27331SOL     OW93716   0.202   0.760   4.003 -0.7172 -0.2787 -0.8428
27331SOL    HW193717   0.265   0.737   3.934  1.6912 -2.4659  1.8199
27331SOL    HW293718   0.229   0.706   4.078 -3.2892  1.7892  1.7664
27332SOL     OW93719  11.294   9.906  10.013 -0.0186 -0.3241  0.5435
27332SOL    HW193720  11.286   9.990   9.968 -2.4680 -0.7861 -0.0523
27332SOL    HW293721  11.258   9.922  10.101  1.9594 -0.1715  1.3919
27333SOL     OW93722  11.472  10.945   8.319 -0.5469  0.2469 -0.2317
27333SOL    HW193723  11.403  11.011   8.314 -1.2001 -0.3733  0.3666
27333SOL    HW293724  11.425  10.861   8.322  0.2069 -0.1641  0.5262
27334SOL     OW93725   7.533   2.961   0.048 -0.0803  0.5200  0.1776
27334SOL    HW193726   7.549   2.968  -0.046 -3.2197 -0.9707 -0.6273
27334SOL    HW293727   7.494   3.045   0.073 -0.6845  0.3750 -0.2530
27335SOL     OW93728   4.397   8.046   5.078  0.1361 -0.0732 -0.8632
27335SOL    HW193729   4.434   7.963   5.049 -0.2586  0.1488 -2.0632
27335SOL    HW293730   4.424   8.054   5.170  0.6217 -1.2636 -0.8878
27336SOL     OW93731   2.425   9.455   8.374 -0.5509  0.0061  0.2807
27336SOL    HW193732   2.441   9.393   8.445 -1.3435  0.2762  0.7104
27336SOL    HW293733   2.419   9.540   8.417  2.5882  0.7604 -0.5021
27337SOL     OW93734   3.864   3.144   2.813 -0.2706 -0.5214  0.3620
27337SOL    HW193735   3.929   3.077   2.792  0.3252  0.6609 -1.9398
27337SOL    HW293736   3.913   3.210   2.862  0.2854  0.2104 -1.0868
27338SOL     OW93737   1.754   0.439   8.565 -0.1377  0.1748 -0.1363
27338SOL    HW193738   1.736   0.366   8.623  0.5221  1.4925  1.8406
27338SOL    HW293739   1.848   0.434   8.549 -0.3121 -0.1654 -1.1013
27339SOL     OW93740   5.801   6.149   2.954 -0.4358 -0.0302  0.5024
27339SOL    HW193741   5.871   6.086   2.933  0.1841  1.3365 -1.8271
27339SOL    HW293742   5.749   6.104   3.021  0.5717 -2.5961 -0.2910
27340SOL     OW93743   4.390   2.587  10.989 -0.4621  0.0047 -0.8032
27340SOL    HW193744   4.415   2.517  11.049 -0.5301 -1.1262 -2.0494
27340SOL    HW293745   4.418   2.556  10.903  1.0133  2.2350 -1.2134
27341SOL     OW93746   1.979   7.202   8.587  0.0420  0.1234  0.0743
27341SOL    HW193747   1.968   7.248   8.670 -1.0029 -1.7937  1.0867
27341SOL    HW293748   2.021   7.119   8.611  1.0505  0.1312 -1.5313
27342SOL     OW93749   1.483   9.804  10.386  0.2157  0.4170 -0.7966
27342SOL    HW193750   1.451   9.764  10.305 -1.8476  0.3973 -0.0172
27342SOL    HW293751   1.408   9.852  10.420  0.7995 -0.2511  1.5472
27343SOL     OW93752   5.659  10.995   4.130  0.1079  0.0058 -0.0852
27343SOL    HW193753   5.615  10.923   4.175  2.3308 -0.3563  1.7316
27343SOL    HW293754   5.637  11.073   4.181  0.1247  0.1233 -0.2561
27344SOL     OW93755  10.800   2.220   1.357 -0.3417 -0.1197  0.4626
27344SOL    HW193756  10.747   2.218   1.436 -1.1298 -1.1159 -0.0531
27344SOL    HW293757  10.831   2.310   1.350 -0.2420 -0.0317  1.9036
27345SOL     OW93758   0.482   6.003   5.268 -0.8469 -0.5037  0.4336
27345SOL    HW193759   0.471   6.083   5.216 -1.1319 -1.0708 -0.4012
27345SOL    HW293760   0.414   6.008   5.335 -1.4272 -0.4486 -0.1483
27346SOL     OW93761   8.242   4.448   6.813 -0.0946  0.2340 -0.1083
27346SOL    HW193762   8.165   4.419   6.861 -1.1096  0.7278 -1.3673
27346SOL    HW293763   8.212   4.524   6.763  0.8706 -0.2920 -1.5672
27347SOL     OW93764  11.248  10.053   6.555 -0.5960 -0.0334 -0.3935
27347SOL    HW193765  11.280   9.989   6.618 -0.7960  1.2341  1.0682
27347SOL    HW293766  11.328  10.091   6.518 -0.4526 -2.1171 -2.4255
27348SOL     OW93767   7.865   5.475   1.738  0.2156  0.0654 -0.7160
27348SOL    HW193768   7.940   5.527   1.708 -0.0609  1.2572  0.5197
27348SOL    HW293769   7.827   5.527   1.809 -0.8912 -1.2305 -0.3086
27349SOL     OW93770   8.897   0.188   1.349  0.0490  0.5215 -0.2147
27349SOL    HW193771   8.924   0.133   1.275 -0.7176  0.6757 -0.6273
27349SOL    HW293772   8.809   0.156   1.371 -0.1930  1.2332 -0.1250
27350SOL     OW93773   6.966   9.127   4.052  0.4250  0.4117  0.3038
27350SOL    HW193774   6.985   9.048   4.001 -0.7766 -1.2785  2.3373
27350SOL    HW293775   6.887   9.163   4.011 -0.5037 -0.9050  0.8766
27351SOL     OW93776   7.023   4.933   0.358  0.2054 -0.0952 -0.4211
27351SOL    HW193777   6.987   4.948   0.446 -2.4292  1.0017 -1.5531
27351SOL    HW293778   7.117   4.927   0.371 -0.1267 -0.4963  2.5252
27352SOL     OW93779   4.557   3.947   0.023  0.0835 -0.3177 -0.6300
27352SOL    HW193780   4.558   3.881   0.092 -0.3574 -1.3041 -1.5539
27352SOL    HW293781   4.538   3.899  -0.057 -1.9228  1.1324 -1.0985
27353SOL     OW93782   8.700   0.488   2.175 -0.4547  0.2553  0.0349
27353SOL    HW193783   8.635   0.531   2.120 -0.9104 -1.2161 -0.6417
27353SOL    HW293784   8.650   0.453   2.249  0.0367  1.5599  1.0196
27354SOL     OW93785   2.628   4.637  10.378  0.3892  0.1488  0.5938
27354SOL    HW193786   2.669   4.721  10.357 -1.0737  0.7341 -0.0939
27354SOL    HW293787   2.691   4.571  10.349 -0.2859  0.9465 -3.3813
27355SOL     OW93788   0.673   2.061   0.639 -0.2337  0.3397  0.2338
27355SOL    HW193789   0.611   2.126   0.671 -0.7629  1.1451 -2.2235
27355SOL    HW293790   0.758   2.092   0.670 -0.6420  1.4115  0.3307
27356SOL     OW93791   0.604   8.213   9.869  0.1257  0.2343 -0.0150
27356SOL    HW193792   0.678   8.212   9.807  0.6696  1.0753  0.5848
27356SOL    HW293793   0.644   8.236   9.953 -0.4763 -1.7221  0.8508
27357SOL     OW93794   2.210  11.540  10.077 -0.2968 -0.4231 -0.2357
27357SOL    HW193795   2.162  11.616  10.110 -1.8462 -1.5606  0.2639
27357SOL    HW293796   2.170  11.465  10.122 -1.0996 -1.8455 -3.0652
27358SOL     OW93797   0.442   5.535  10.807  0.2671 -0.2067 -0.0334
27358SOL    HW193798   0.405   5.577  10.729 -0.4014  0.5611  0.6708
27358SOL    HW293799   0.503   5.470  10.773 -1.0330 -0.8670 -1.2415
27359SOL     OW93800   8.868   6.716   7.157  0.3834  0.4837 -0.2961
27359SOL    HW193801   8.830   6.711   7.069  0.3848  1.1099 -0.3352
27359SOL    HW293802   8.793   6.715   7.216  0.4173 -1.5202 -0.2049
27360SOL     OW93803   3.968  11.288   3.672 -0.5005  0.0438 -0.0152
27360SOL    HW193804   3.961  11.257   3.582  0.6355 -2.2086  0.5939
27360SOL    HW293805   4.048  11.248   3.706 -0.2757  1.7522  1.6770
27361SOL     OW93806   4.524  10.605   4.720  0.2484 -0.0683 -0.0319
27361SOL    HW193807   4.556  10.695   4.731  0.3288 -0.1659  0.5396
27361SOL    HW293808   4.520  10.593   4.625 -0.5363  0.8154 -0.1233
27362SOL     OW93809   9.728   3.266   4.311  0.0057  0.5673  0.0674
27362SOL    HW193810   9.818   3.244   4.288  0.3946  0.6907  1.3529
27362SOL    HW293811   9.679   3.259   4.229  0.8606 -1.1193 -0.3405
27363SOL     OW93812   1.008   7.500  11.436 -0.1102 -0.1058 -0.2888
27363SOL    HW193813   0.946   7.473  11.368 -0.4083  0.3841 -0.2180
27363SOL    HW293814   1.048   7.580  11.400 -1.7301  1.3502  0.9387
27364SOL     OW93815   0.677   7.323   7.522 -0.2378  0.1669 -0.1203
27364SOL    HW193816   0.765   7.286   7.515 -0.7952 -1.0140 -1.4021
27364SOL    HW293817   0.628   7.281   7.451 -1.5598  1.6002 -0.0986
27365SOL     OW93818   1.101  11.214   7.853 -0.5273 -0.4285 -0.0812
27365SOL    HW193819   1.187  11.254   7.843 -0.7643 -0.2064 -1.3705
27365SOL    HW293820   1.116  11.120   7.846 -0.0207 -0.6305  2.5822
27366SOL     OW93821   2.318   2.836   7.334 -0.2188  0.5278  0.0347
27366SOL    HW193822   2.260   2.897   7.288  0.3565  0.5521 -0.6845
27366SOL    HW293823   2.350   2.777   7.266 -0.8869 -0.7026  0.7451
27367SOL     OW93824   7.521   9.837   8.566  0.8119 -0.5206  0.4991
27367SOL    HW193825   7.490   9.836   8.657  0.9979 -1.4259  0.5540
27367SOL    HW293826   7.512   9.929   8.540 -0.5338 -0.4782  0.9834
27368SOL     OW93827   5.012   4.163   7.065 -0.4644 -0.0546 -0.5130
27368SOL    HW193828   5.019   4.232   7.131  3.2378 -0.6722 -0.0464
27368SOL    HW293829   5.042   4.084   7.109  0.9832 -0.7219 -2.5476
27369SOL     OW93830   4.357   5.058   6.356  0.7067  0.1521  0.2998
27369SOL    HW193831   4.316   5.045   6.442 -1.1245  0.8231 -0.4330
27369SOL    HW293832   4.323   4.988   6.301  0.2505  0.9128 -0.4147
27370SOL     OW93833  10.775   4.756   2.105  0.0121 -0.2766 -0.2747
27370SOL    HW193834  10.749   4.833   2.054 -0.6324  0.5035  1.1803
27370SOL    HW293835  10.750   4.777   2.195 -0.4946 -2.3377  0.1108
27371SOL     OW93836   9.570   6.435   9.833 -0.0696  0.7047  0.2343
27371SOL    HW193837   9.525   6.402   9.755 -1.1898  2.3422  0.1336
27371SOL    HW293838   9.538   6.379   9.904  2.8164 -2.4435 -0.6967
27372SOL     OW93839   7.363   0.888   6.639 -0.3031 -0.5834  0.3816
27372SOL    HW193840   7.283   0.888   6.586 -1.2633 -0.4662  1.7724
27372SOL    HW293841   7.403   0.803   6.621 -1.6047 -1.3378  0.8647
27373SOL     OW93842   1.605   9.700   8.112 -0.0673  0.9283 -0.1031
27373SOL    HW193843   1.545   9.683   8.184  1.0339 -0.6963  0.4920
27373SOL    HW293844   1.611   9.795   8.108 -0.9808  1.0734  1.2471
27374SOL     OW93845   8.668   0.267   7.615  0.2277 -0.3430  0.2951
27374SOL    HW193846   8.750   0.247   7.570 -0.7667  0.7938 -2.2342
27374SOL    HW293847   8.637   0.348   7.574 -1.6366 -0.1448  1.9191
27375SOL     OW93848   8.566   4.400   1.423 -0.8764 -0.2961 -0.0832
27375SOL    HW193849   8.502   4.329   1.431 -2.3808  0.9631 -0.5064
27375SOL    HW293850   8.563   4.445   1.507  0.2232 -0.8003  0.2563
27376SOL     OW93851  11.080   4.914   7.042 -0.5382 -0.1012  0.4699
27376SOL    HW193852  10.991   4.928   7.074 -0.1734 -0.0159  1.5128
27376SOL    HW293853  11.125   4.997   7.059 -0.5464  0.2587 -1.1172
27377SOL     OW93854   7.034   1.082  11.228 -0.0214 -0.4732  0.3452
27377SOL    HW193855   7.034   1.115  11.318  1.4526 -0.6135  0.4158
27377SOL    HW293856   7.041   0.987  11.236 -0.3851 -0.5287  0.0744
27378SOL     OW93857   1.242  10.437   1.306  0.0094 -0.1941  0.0359
27378SOL    HW193858   1.242  10.532   1.295  1.1004 -0.0448  1.0583
27378SOL    HW293859   1.161  10.407   1.264 -0.5825  1.2276  0.1257
27379SOL     OW93860   9.216   6.218   6.624 -0.1919  0.3510 -0.2240
27379SOL    HW193861   9.229   6.145   6.685 -0.0852  0.4841 -0.0871
27379SOL    HW293862   9.178   6.287   6.677 -0.4600  0.3331 -0.3936
27380SOL     OW93863   7.470   7.817   7.982  0.1979  0.0982 -0.4420
27380SOL    HW193864   7.541   7.757   8.005 -0.8676 -0.7595  0.7309
27380SOL    HW293865   7.467   7.880   8.055 -0.2374  0.1202 -0.4744
27381SOL     OW93866   2.052   2.557   2.549 -0.1812 -0.5878 -0.0013
27381SOL    HW193867   1.997   2.625   2.510 -0.9464 -0.7488  0.7507
27381SOL    HW293868   2.048   2.484   2.487 -1.9725 -1.1132  0.6444
27382SOL     OW93869   9.474  10.568   6.294  0.3025  0.2653  0.1537
27382SOL    HW193870   9.532  10.641   6.316  0.0495 -0.0185  1.9248
27382SOL    HW293871   9.388  10.608   6.284  0.1377  0.2322  1.2591
27383SOL     OW93872  10.856   2.039   0.252 -0.1748  0.4665  0.0055
27383SOL    HW193873  10.870   2.133   0.262 -0.2580  0.5294 -0.4693
27383SOL    HW293874  10.779   2.021   0.306  1.1163  0.2797  1.8785
27384SOL     OW93875   2.220   6.001   6.992 -0.2021  0.1511 -0.3538
27384SOL    HW193876   2.299   5.970   7.035  0.1113  0.9967 -0.2854
27384SOL    HW293877   2.152   5.996   7.060 -0.5945 -2.0545 -0.8624
27385SOL     OW93878   7.184   2.530   0.332  0.0865  0.0498 -0.5696
27385SOL    HW193879   7.231   2.450   0.357  0.0209 -0.1565 -1.0922
27385SOL    HW293880   7.171   2.522   0.238 -1.3928 -0.1010 -0.3739
27386SOL     OW93881   1.900   4.636   1.554 -0.3252 -0.7628  0.7506
27386SOL    HW193882   1.932   4.663   1.639 -0.2307  0.0431  0.4657
27386SOL    HW293883   1.960   4.677   1.491  0.4346 -2.4476  0.3248
27387SOL     OW93884   3.579   9.241   9.863  0.2058  0.1483 -0.1325
27387SOL    HW193885   3.561   9.334   9.879  1.4484  0.1260  1.6526
27387SOL    HW293886   3.494   9.203   9.842 -0.4251  1.5492 -0.2344
27388SOL     OW93887  10.523   9.564   6.820 -0.3944 -0.0300  0.8940
27388SOL    HW193888  10.447   9.615   6.846  0.4226  2.3311 -0.9969
27388SOL    HW293889  10.592   9.591   6.880 -0.3809 -0.2675  0.9902
27389SOL     OW93890   1.566   3.507   8.365 -0.1587 -0.0348 -0.1622
27389SOL    HW193891   1.655   3.538   8.381 -0.3159  0.2922  0.0928
27389SOL    HW293892   1.537   3.471   8.448 -0.1363 -0.4728 -0.3415
27390SOL     OW93893   7.944   1.519   2.044 -0.5045 -0.0464  0.3176
27390SOL    HW193894   8.034   1.543   2.064 -0.6280  1.0034 -0.3090
27390SOL    HW293895   7.895   1.601   2.047 -0.9146 -0.1014 -2.1180
27391SOL     OW93896   6.671   5.952   3.042 -0.3368  0.5367  0.0257
27391SOL    HW193897   6.683   5.975   3.134  0.4560 -1.3067  0.4311
27391SOL    HW293898   6.587   5.906   3.040  0.2788 -0.6454  0.1232
27392SOL     OW93899   3.139  10.920   4.871 -0.0515  0.4161 -0.2298
27392SOL    HW193900   3.199  10.977   4.919 -0.7565  1.1688 -0.2246
27392SOL    HW293901   3.062  10.913   4.927  0.1816 -0.8918 -0.0413
27393SOL     OW93902   8.236   5.218   3.799  0.1602 -0.3803 -0.3558
27393SOL    HW193903   8.320   5.248   3.833  1.0983 -1.6880 -1.4035
27393SOL    HW293904   8.257   5.137   3.751 -1.7646 -1.0356 -0.1969
27394SOL     OW93905   7.984   5.486  10.781  0.3324 -0.3871 -0.4180
27394SOL    HW193906   8.062   5.501  10.727  0.7161 -0.3076  0.1526
27394SOL    HW293907   7.952   5.574  10.802  0.6564 -0.4057  0.1608
27395SOL     OW93908  10.102   1.546   8.807 -0.0986 -0.3038 -0.2735
27395SOL    HW193909  10.031   1.611   8.805  0.3121  0.1497 -0.4584
27395SOL    HW293910  10.074   1.478   8.746  0.2423  0.5470 -1.4163
27396SOL     OW93911   2.049   2.643   1.249 -0.3077  0.3292  0.4677
27396SOL    HW193912   2.117   2.591   1.207  0.8020  1.4971  0.7460
27396SOL    HW293913   1.988   2.579   1.285 -0.7112 -0.7208 -1.9159
27397SOL     OW93914   8.568   4.419   5.064 -0.3428  0.1911 -0.0535
27397SOL    HW193915   8.636   4.438   5.129 -0.2138  0.4171 -0.2534
27397SOL    HW293916   8.584   4.482   4.994 -1.0617  0.5720  0.1210
27398SOL     OW93917   4.762   1.593  11.095 -0.3690  0.7500 -0.6362
27398SOL    HW193918   4.813   1.514  11.117 -0.6467  1.5413  3.8593
27398SOL    HW293919   4.828   1.656  11.067  0.4383  0.1253 -0.2169
27399SOL     OW93920   9.429  11.918   2.560  0.0396 -0.4448 -0.5067
27399SOL    HW193921   9.338  11.908   2.532 -0.3409  2.0916 -0.3558
27399SOL    HW293922   9.424  11.918   2.656  0.3207 -1.0131 -0.4849
27400SOL     OW93923   8.050   2.232   5.369 -0.3727  0.3212  0.4962
27400SOL    HW193924   7.972   2.182   5.346 -0.8421  1.0220  0.5636
27400SOL    HW293925   8.108   2.220   5.294  0.4141 -2.0700  1.3810
27401SOL     OW93926   4.349  11.097   4.741 -0.1203  0.4050  0.1103
27401SOL    HW193927   4.357  11.069   4.650 -1.1402  0.9620 -0.1693
27401SOL    HW293928   4.326  11.017   4.788 -1.4499  0.4279 -0.4355
27402SOL     OW93929   9.425   0.808   2.484  0.5442  0.6134  0.4259
27402SOL    HW193930   9.411   0.788   2.391  0.6828  1.1523  0.2859
27402SOL    HW293931   9.352   0.765   2.529  1.3273 -0.9870  0.2392
27403SOL     OW93932   6.939   5.399   7.876  0.2117 -0.5913  0.6043
27403SOL    HW193933   6.850   5.406   7.909  0.3120  2.7306  0.4983
27403SOL    HW293934   6.993   5.387   7.954 -0.1296 -0.0078  0.9362
27404SOL     OW93935   6.616   1.673   8.194  0.2453 -0.3389  0.7329
27404SOL    HW193936   6.641   1.606   8.257  0.2133  0.9010  2.1198
27404SOL    HW293937   6.688   1.736   8.196 -0.8296  0.9172  1.3070
27405SOL     OW93938   3.134   3.616  10.785 -0.1016  0.4715  0.1720
27405SOL    HW193939   3.153   3.697  10.833  0.2452  0.0116  0.8315
27405SOL    HW293940   3.090   3.645  10.705 -0.0922  1.3018  0.4580
27406SOL     OW93941  10.118   1.026   6.317 -0.4587 -0.0014  0.2413
27406SOL    HW193942  10.066   1.088   6.267 -1.7953 -0.6890  0.7293
27406SOL    HW293943  10.101   1.047   6.408 -0.5362 -0.7583  0.4115
27407SOL     OW93944   7.652   5.406   7.068  0.2840  0.3951  0.4059
27407SOL    HW193945   7.592   5.424   7.140 -0.0657  0.8280  0.0088
27407SOL    HW293946   7.661   5.490   7.022  0.1229  0.0083 -0.3465
27408SOL     OW93947   8.092  11.573  10.306  0.0044  0.1412 -0.0519
27408SOL    HW193948   8.075  11.487  10.343 -0.6116  0.5802  0.7328
27408SOL    HW293949   8.011  11.622  10.321  0.7954  1.2646  0.7413
27409SOL     OW93950   8.037   3.773   5.673  0.5292  0.3166  0.5374
27409SOL    HW193951   8.004   3.822   5.749 -0.4384 -0.5113  0.6715
27409SOL    HW293952   8.026   3.681   5.697  1.9312  0.0163  0.1164
27410SOL     OW93953   6.041   1.028   4.535 -0.2049  0.3790  0.0351
27410SOL    HW193954   6.088   1.076   4.603 -1.7439  0.6741  0.9282
27410SOL    HW293955   6.097   0.952   4.517  0.3424  0.4132  1.4695
27411SOL     OW93956   6.365   1.325   1.971 -0.9303 -0.7803 -0.0172
27411SOL    HW193957   6.274   1.355   1.966  0.0570  2.4369 -1.0308
27411SOL    HW293958   6.403   1.376   2.042  0.3994 -1.2011 -0.4012
27412SOL     OW93959  10.163   1.789   2.429  0.0071  1.0106  0.1799
27412SOL    HW193960  10.225   1.770   2.359  0.9147  0.2996  1.1506
27412SOL    HW293961  10.159   1.709   2.481 -2.1641  0.8287 -0.1642
27413SOL     OW93962   9.125   6.237   8.374  0.1758 -0.0152  0.4823
27413SOL    HW193963   9.121   6.311   8.314  0.8133 -0.4722 -0.1451
27413SOL    HW293964   9.216   6.208   8.370 -0.2489 -1.3538  0.0751
27414SOL     OW93965  10.031   3.943   0.561  0.8098 -0.4712 -0.6303
27414SOL    HW193966  10.102   3.945   0.626  2.8185 -0.4215 -2.7299
27414SOL    HW293967  10.061   4.000   0.491 -1.6216  0.0358 -1.3503
27415SOL     OW93968   7.321  10.379   2.111 -0.0205 -0.1304  0.1526
27415SOL    HW193969   7.280  10.336   2.187 -1.5781  0.5015 -0.2960
27415SOL    HW293970   7.259  10.448   2.087  0.4758 -0.2843 -1.6545
27416SOL     OW93971   8.985   2.783   7.454 -0.7044 -0.1648 -0.0060
27416SOL    HW193972   9.067   2.736   7.466 -1.3038 -1.2153  0.0561
27416SOL    HW293973   8.956   2.804   7.543  0.3294  1.7419 -0.0588
27417SOL     OW93974   8.034   4.287   3.137  0.1018  0.0620  0.5919
27417SOL    HW193975   8.005   4.285   3.228  1.1656  1.6020  1.0021
27417SOL    HW293976   8.129   4.277   3.142  0.1228 -0.3086 -0.3966
27418SOL     OW93977   6.640   8.952   0.084  0.3567 -0.1550 -0.1629
27418SOL    HW193978   6.546   8.967   0.078  0.5722  1.4763 -0.1031
27418SOL    HW293979   6.675   8.985   0.001  1.0431  1.0901  0.5898
27419SOL     OW93980   0.547   3.757  11.098  0.2308 -0.4186  0.3486
27419SOL    HW193981   0.613   3.693  11.126  2.2785  1.5615  0.3680
27419SOL    HW293982   0.511   3.721  11.017  0.8282 -1.8815  0.6997
27420SOL     OW93983   0.485   2.258   2.699 -0.0649 -0.1765 -0.2054
27420SOL    HW193984   0.541   2.187   2.667  0.7148  0.2876  0.1055
27420SOL    HW293985   0.499   2.259   2.793 -1.4562 -0.7661  0.0345
27421SOL     OW93986   1.474   7.925   7.325 -0.3425 -0.2856  0.4304
27421SOL    HW193987   1.492   7.882   7.241  1.6342 -1.4814  1.4034
27421SOL    HW293988   1.432   8.008   7.300  1.0350 -0.1616 -1.8025
27422SOL     OW93989   1.784   5.348   0.457  0.0324 -0.0159  0.2647
27422SOL    HW193990   1.750   5.418   0.402 -0.3909 -0.1884  0.3070
27422SOL    HW293991   1.874   5.334   0.426 -0.7427 -1.3265 -1.5772
27423SOL     OW93992  11.927   8.168   5.444  0.1457 -0.1336  0.6042
27423SOL    HW193993  11.876   8.190   5.521  0.6494  0.6616  0.7212
27423SOL    HW293994  11.967   8.251   5.417 -0.5150 -0.2646 -0.8757
27424SOL     OW93995   3.652   5.505  11.149 -0.4475  0.1405 -0.2528
27424SOL    HW193996   3.604   5.569  11.096  1.9277  2.5391  0.2527
27424SOL    HW293997   3.662   5.547  11.234 -0.9211 -2.0267  0.9427
27425SOL     OW93998   9.498   7.385   5.036  0.6565 -0.3735  0.0038
27425SOL    HW193999   9.419   7.403   5.086  0.2614  0.5258 -0.9037
27425SOL    HW294000   9.479   7.419   4.948  2.1419  0.1201 -0.1610
27426SOL     OW94001   3.927   3.499   7.651 -0.2420  0.6494  0.4897
27426SOL    HW194002   3.898   3.428   7.709  0.5646 -0.8435 -0.8667
27426SOL    HW294003   4.021   3.506   7.667  0.0575 -0.0230 -0.8574
27427SOL     OW94004   2.253   1.371   1.987  0.1979  0.2655  0.1572
27427SOL    HW194005   2.327   1.315   1.965 -0.4506  0.1096 -1.7885
27427SOL    HW294006   2.182   1.341   1.930 -1.3364  0.5192  1.8567
27428SOL     OW94007  10.688  10.521   7.085  0.8876  0.0346  0.0238
27428SOL    HW194008  10.684  10.488   7.175 -1.8256 -0.7012 -0.2690
27428SOL    HW294009  10.657  10.448   7.032  1.6052  0.7545 -1.4336
27429SOL     OW94010  10.937   5.337   2.133  0.1158  0.2058  0.4134
27429SOL    HW194011  10.983   5.361   2.213  1.7539 -0.5278 -0.2614
27429SOL    HW294012  10.976   5.254   2.106  2.3882  2.0974 -3.0827
27430SOL     OW94013  10.897   8.313   7.599  0.1596  0.1290  0.0812
27430SOL    HW194014  10.958   8.256   7.646  0.3302 -0.9141 -1.3580
27430SOL    HW294015  10.811   8.278   7.621  0.1697  0.3643  0.5165
27431SOL     OW94016  10.102   6.829   1.050 -0.0271  0.1321 -0.0342
27431SOL    HW194017  10.021   6.864   1.086  0.6693  0.2351  1.5188
27431SOL    HW294018  10.075   6.777   0.975 -1.6271 -0.5475  0.9627
27432SOL     OW94019   0.501   2.882   3.538 -0.3622  0.1826 -0.6510
27432SOL    HW194020   0.595   2.886   3.552 -0.4102 -1.2769  0.3825
27432SOL    HW294021   0.476   2.971   3.515  0.9468  1.0986  1.1806
27433SOL     OW94022   6.162   3.652   9.550  0.0277 -0.0571 -0.0530
27433SOL    HW194023   6.149   3.688   9.637  1.9876  0.0327  0.2350
27433SOL    HW294024   6.106   3.574   9.547  0.1105 -0.1878  1.3574
27434SOL     OW94025   7.147   5.643   0.804  0.0628  0.0063 -0.0061
27434SOL    HW194026   7.119   5.553   0.822  1.2232 -0.2206  0.7491
27434SOL    HW294027   7.143   5.687   0.889  0.7814  0.3053 -0.1269
27435SOL     OW94028  10.454  11.344   8.136  0.3365  0.5244 -0.0830
27435SOL    HW194029  10.444  11.317   8.227  1.7202  0.5226  0.0910
27435SOL    HW294030  10.434  11.266   8.085 -0.5635  0.5584  0.2016
27436SOL     OW94031   2.627   7.808   1.033 -0.4379  0.3293  0.3070
27436SOL    HW194032   2.646   7.714   1.032  0.6827  0.5432  0.5701
27436SOL    HW294033   2.684   7.844   1.100 -1.4288  1.1059  0.7706
27437SOL     OW94034   7.628   5.798   8.954 -0.1273  0.1805 -0.2853
27437SOL    HW194035   7.547   5.849   8.958 -0.2857 -0.0409 -0.6546
27437SOL    HW294036   7.602   5.712   8.920  0.3483  0.2838 -0.9293
27438SOL     OW94037  10.314  11.393   6.692 -0.0340  0.0164  0.1767
27438SOL    HW194038  10.369  11.440   6.755  0.4593 -1.1669  0.6547
27438SOL    HW294039  10.235  11.447   6.685  0.3306  0.6965  1.0260
27439SOL     OW94040  10.937   2.629   6.056 -0.6311  0.4314  0.4561
27439SOL    HW194041  10.876   2.573   6.008  0.7414  0.2159 -1.1043
27439SOL    HW294042  10.925   2.716   6.019  0.8749  0.1495 -0.8353
27440SOL     OW94043   5.756  10.939   2.475 -0.0944 -0.0846  0.2076
27440SOL    HW194044   5.663  10.924   2.494 -0.5125  0.3442 -1.3261
27440SOL    HW294045   5.775  11.025   2.514 -0.2108 -0.3659  0.8986
27441SOL     OW94046   5.515   7.556   9.665  0.0877  0.6202 -0.2621
27441SOL    HW194047   5.543   7.648   9.656  0.2313  0.6860  0.7289
27441SOL    HW294048   5.508   7.525   9.575  2.2785  0.9379 -0.6071
27442SOL     OW94049  10.388   3.943   8.083 -0.0318 -0.6246 -0.2985
27442SOL    HW194050  10.409   3.854   8.054  1.6379 -0.5314  0.5145
27442SOL    HW294051  10.467   3.973   8.126 -0.2925  1.5723 -1.2338
27443SOL     OW94052  10.450   8.690   7.371 -0.0614  0.5856 -0.2144
27443SOL    HW194053  10.502   8.611   7.383 -0.0216  0.6697  0.1670
27443SOL    HW294054  10.385   8.687   7.441 -1.2827 -0.0834 -1.3316
27444SOL     OW94055  11.181   2.481  10.632 -0.3990  0.1759 -0.3179
27444SOL    HW194056  11.206   2.555  10.686 -1.0044  0.0950  0.0756
27444SOL    HW294057  11.201   2.404  10.685  1.2770 -0.0170 -1.1429
27445SOL     OW94058   1.980  11.883   0.359  0.1763  0.3732 -0.3060
27445SOL    HW194059   2.017  11.795   0.351  0.6274  0.6421 -1.3296
27445SOL    HW294060   2.048  11.934   0.403  0.2607  0.4200 -0.4921
27446SOL     OW94061  10.439   2.276   5.744  0.3579  0.7371 -0.5487
27446SOL    HW194062  10.407   2.209   5.684  2.1648 -0.9478  0.2572
27446SOL    HW294063  10.517   2.312   5.702  0.7595  0.6199  0.0687
27447SOL     OW94064   2.816   5.327   1.072  0.4040  0.4924  0.0106
27447SOL    HW194065   2.906   5.344   1.100  1.3227 -0.3360 -2.1866
27447SOL    HW294066   2.787   5.411   1.035  0.7548  0.4357 -0.4100
27448SOL     OW94067   1.936   6.181   3.819 -0.2338  0.2551  0.2402
27448SOL    HW194068   1.865   6.222   3.769 -2.1880 -1.7399  1.1797
27448SOL    HW294069   1.962   6.105   3.767 -0.9353 -0.7216  1.2517
27449SOL     OW94070   2.821   7.160   4.253 -0.0098  0.1141 -0.0736
27449SOL    HW194071   2.884   7.230   4.272 -2.2391  2.5286 -1.0204
27449SOL    HW294072   2.833   7.141   4.160 -0.6640  0.5688 -0.2522
27450SOL     OW94073   1.661   2.215   4.821  0.1628  0.3267 -0.6812
27450SOL    HW194074   1.673   2.168   4.903  0.1839  0.3265 -0.6845
27450SOL    HW294075   1.569   2.243   4.823 -0.5400 -1.7031 -1.7138
27451SOL     OW94076  10.646   1.422   0.521 -0.1800 -0.1976  0.9575
27451SOL    HW194077  10.611   1.503   0.559 -1.4453 -0.9053  1.3696
27451SOL    HW294078  10.631   1.432   0.427  1.2868  0.7764  0.7932
27452SOL     OW94079   9.118   6.978   8.526  0.2446  0.1935 -0.5216
27452SOL    HW194080   9.139   6.961   8.618 -0.4698 -0.1532 -0.4179
27452SOL    HW294081   9.026   6.952   8.517  0.5438 -0.6087 -1.5346
27453SOL     OW94082   5.939   0.098   6.331 -0.4474 -0.6938 -0.3469
27453SOL    HW194083   5.934   0.071   6.239  0.1861 -0.0095 -0.5891
27453SOL    HW294084   5.917   0.019   6.381  0.8927 -1.5349 -1.0431
27454SOL     OW94085   9.039   3.482   6.006 -0.0576  0.2624 -0.0217
27454SOL    HW194086   8.971   3.415   5.999 -0.2243  0.3736  0.4908
27454SOL    HW294087   9.053   3.512   5.916  0.0719 -0.5130 -0.2664
27455SOL     OW94088  10.169  11.184   4.877 -0.0844  0.2138 -0.0266
27455SOL    HW194089  10.157  11.107   4.932 -1.0420 -0.0878 -0.6396
27455SOL    HW294090  10.250  11.224   4.909  0.4267 -1.0384  0.3037
27456SOL     OW94091  10.668  11.221   7.908 -0.0553 -0.5276 -0.0750
27456SOL    HW194092  10.685  11.268   7.989 -0.7379 -1.3334  0.5487
27456SOL    HW294093  10.755  11.202   7.872  0.2872 -1.0452  0.9949
27457SOL     OW94094   6.406   7.426  10.865 -0.3401  0.0718 -0.3707
27457SOL    HW194095   6.381   7.339  10.895 -0.2844 -1.0536 -3.2236
27457SOL    HW294096   6.335   7.483  10.893 -1.7113 -1.4063 -0.6707
27458SOL     OW94097   1.736   6.747   1.470 -0.2550  0.2512  0.5184
27458SOL    HW194098   1.671   6.787   1.413  0.2495  0.9207  0.4074
27458SOL    HW294099   1.803   6.814   1.483  0.5803 -0.5270  0.3708
27459SOL     OW94100   3.578   3.832   7.969  0.2536  0.2456 -0.4105
27459SOL    HW194101   3.625   3.889   7.907 -0.8314  1.9503  0.2823
27459SOL    HW294102   3.576   3.881   8.051 -0.2788 -1.0256  0.3785
27460SOL     OW94103  11.775   3.106   6.531  0.1803 -0.2515 -0.1592
27460SOL    HW194104  11.801   3.084   6.620  0.2680 -2.9855 -0.7597
27460SOL    HW294105  11.720   3.033   6.503 -1.1322  1.2810 -1.8494
27461SOL     OW94106  11.517   0.254  10.139 -0.1626  0.2072  0.5287
27461SOL    HW194107  11.452   0.324  10.128  0.5267  0.7289 -0.2846
27461SOL    HW294108  11.527   0.216  10.052  0.3750 -0.1016  0.7187
27462SOL     OW94109  10.159   4.096   2.817 -0.1931  0.6909 -0.3481
27462SOL    HW194110  10.121   4.034   2.755 -0.0906 -0.5686  0.8155
27462SOL    HW294111  10.091   4.109   2.883 -0.5914  2.6047 -1.0527
27463SOL     OW94112   1.898   1.215   4.152 -0.0977  0.2897 -0.2566
27463SOL    HW194113   1.892   1.278   4.223  1.2707 -1.6872  1.7378
27463SOL    HW294114   1.814   1.170   4.151 -0.5157  1.0559 -0.6710
27464SOL     OW94115   6.132   4.762   3.331  0.6434 -0.1422  0.5168
27464SOL    HW194116   6.156   4.700   3.262  1.2387 -1.6341  1.9874
27464SOL    HW294117   6.215   4.782   3.374  0.1467 -0.1246  1.4829
27465SOL     OW94118   7.924   9.110   0.372 -0.3238  0.3910 -0.0049
27465SOL    HW194119   7.853   9.118   0.436 -1.4494 -0.0126 -1.1415
27465SOL    HW294120   7.950   9.018   0.375  0.5329  0.6502  0.7823
27466SOL     OW94121   5.337   8.002   4.219  0.4925 -0.2899 -0.3450
27466SOL    HW194122   5.388   8.081   4.201 -1.4206  1.0954  0.0662
27466SOL    HW294123   5.352   7.983   4.312  1.0817 -0.5371 -0.4838
27467SOL     OW94124   1.019   9.504   6.834  0.6039  0.2636  0.8831
27467SOL    HW194125   1.052   9.465   6.753 -0.7426  1.8429 -0.4923
27467SOL    HW294126   0.951   9.443   6.864  1.4169 -0.5553  1.1067
27468SOL     OW94127   6.426   4.734   7.088 -0.5038  0.1081  0.9213
27468SOL    HW194128   6.493   4.676   7.051  2.3372  3.1297  0.8372
27468SOL    HW294129   6.380   4.680   7.152  0.0867 -2.9036 -0.9725
27469SOL     OW94130   5.358  10.301   2.752  0.2289  0.4758 -0.0351
27469SOL    HW194131   5.382  10.235   2.688  3.3871  2.5706 -1.2675
27469SOL    HW294132   5.388  10.265   2.836  2.0982  0.3563 -0.7127
27470SOL     OW94133   1.563   6.575   9.493 -0.0885  0.0298  0.0870
27470SOL    HW194134   1.486   6.523   9.519 -1.5219  2.2575  0.5101
27470SOL    HW294135   1.527   6.659   9.466  2.2676  1.2552  0.5701
27471SOL     OW94136  11.234   9.564   6.742  0.1129 -0.2307 -0.0201
27471SOL    HW194137  11.183   9.484   6.752 -0.5478  0.1915  0.0950
27471SOL    HW294138  11.323   9.539   6.765  0.1436 -1.1910 -1.1017
27472SOL     OW94139   6.057   9.958   7.525 -0.1834  0.1219  0.0650
27472SOL    HW194140   6.152   9.949   7.523  0.1179  2.6777 -1.6428
27472SOL    HW294141   6.039  10.006   7.605 -0.2639 -1.7882  1.2449
27473SOL     OW94142   7.515   6.738   3.079  0.3766  0.1966  0.4960
27473SOL    HW194143   7.562   6.680   3.139  0.0831 -0.4146  0.1390
27473SOL    HW294144   7.547   6.714   2.993 -0.1977  0.1475  0.2955
27474SOL     OW94145  10.592  10.470   9.859 -0.1165 -0.0287  0.2485
27474SOL    HW194146  10.558  10.526   9.928 -0.8634  0.3982 -0.4404
27474SOL    HW294147  10.665  10.519   9.821 -0.5747  0.3655 -0.1505
27475SOL     OW94148   1.568   5.544   1.871  0.2925  0.0839 -0.3999
27475SOL    HW194149   1.662   5.524   1.880  0.6204  1.7433  0.2625
27475SOL    HW294150   1.536   5.549   1.961 -0.3797 -0.1944 -0.6202
27476SOL     OW94151  10.517   1.885   8.478 -0.4849 -0.4294  0.0330
27476SOL    HW194152  10.439   1.881   8.534 -1.0460 -1.7411 -0.7801
27476SOL    HW294153  10.496   1.827   8.405 -0.1785  1.9344 -2.0645
27477SOL     OW94154   4.993   7.648   6.342  0.3478 -0.1438 -0.0026
27477SOL    HW194155   4.962   7.564   6.376  0.1909 -0.2472 -0.4021
27477SOL    HW294156   5.026   7.628   6.255  0.4768  0.1769 -0.0261
27478SOL     OW94157   9.777  11.235  10.945 -0.0880  0.3353 -0.4758
27478SOL    HW194158   9.741  11.322  10.928 -0.0751  0.1989 -1.2351
27478SOL    HW294159   9.734  11.177  10.882  0.5753 -0.0439 -0.6039
27479SOL     OW94160   1.920   4.964   0.125 -0.4217  0.2080  0.2185
27479SOL    HW194161   1.910   5.009   0.209  0.1231  0.5435  0.1117
27479SOL    HW294162   1.852   5.001   0.070 -0.9983 -0.2560  0.6104
27480SOL     OW94163   2.859   4.225   9.605 -0.2631  0.0987 -0.4130
27480SOL    HW194164   2.869   4.173   9.685  0.5147 -0.4375 -0.8461
27480SOL    HW294165   2.925   4.294   9.613 -0.1827  0.0418 -0.5954
27481SOL     OW94166   9.179   7.163   6.004 -0.2655  0.2989 -0.1780
27481SOL    HW194167   9.152   7.242   5.958  0.5759  0.6574 -0.0784
27481SOL    HW294168   9.144   7.174   6.093  0.0369  0.6661 -0.1026
27482SOL     OW94169   7.091   1.638   7.080 -0.1395  0.1430 -0.6178
27482SOL    HW194170   6.995   1.646   7.084 -0.2193 -0.7095 -0.7269
27482SOL    HW294171   7.123   1.714   7.128 -0.8901 -0.9561  1.7530
27483SOL     OW94172   9.507   2.819   4.312 -0.1219 -0.1973 -0.3463
27483SOL    HW194173   9.565   2.888   4.344 -0.2954 -0.2807  0.1565
27483SOL    HW294174   9.448   2.802   4.385  0.1654 -1.1499 -0.3197
27484SOL     OW94175   3.901   4.830   5.425  0.0964 -0.0172  0.0067
27484SOL    HW194176   3.835   4.889   5.389 -1.2139 -0.8924  0.9007
27484SOL    HW294177   3.875   4.743   5.396  0.3434 -0.4702  1.0853
27485SOL     OW94178  11.807   5.034   6.271 -0.2612  0.6403 -0.0513
27485SOL    HW194179  11.726   5.035   6.322 -0.4169 -2.2112 -0.0538
27485SOL    HW294180  11.781   5.000   6.185  0.6501  1.5390 -0.7044
27486SOL     OW94181   2.874   2.813  11.382  0.2156  0.0268 -0.4162
27486SOL    HW194182   2.951   2.783  11.430 -0.6336 -0.8826  0.4197
27486SOL    HW294183   2.910   2.859  11.306  1.5865 -0.7250 -0.2649
27487SOL     OW94184   9.408  11.578   6.494  0.0618  0.2176 -0.3399
27487SOL    HW194185   9.313  11.563   6.500  0.4927 -3.2896 -0.0138
27487SOL    HW294186   9.433  11.540   6.410  1.5322 -2.1614  1.0411
27488SOL     OW94187  11.289   3.104   0.448  0.2757  0.4029  0.0817
27488SOL    HW194188  11.209   3.122   0.496  0.6883 -0.1122  1.0066
27488SOL    HW294189  11.262   3.045   0.377 -0.2615  0.7608 -0.0134
27489SOL     OW94190  10.801   5.063   6.756  0.1036 -0.0690  0.5134
27489SOL    HW194191  10.801   5.107   6.671  0.2286  0.7882  0.9520
27489SOL    HW294192  10.854   5.119   6.813  2.8392 -2.2570  0.3485
27490SOL     OW94193   2.975  11.527  10.564  0.0283 -0.0344 -0.0580
27490SOL    HW194194   2.891  11.570  10.584  0.0531 -1.2325  3.2663
27490SOL    HW294195   2.971  11.444  10.612  2.0991 -1.3503 -2.0081
27491SOL     OW94196   1.490   9.692   7.830  0.0177 -0.4137 -0.7466
27491SOL    HW194197   1.551   9.713   7.900 -0.3436 -2.0095  0.1110
27491SOL    HW294198   1.512   9.753   7.759  0.0833  1.5593  0.8861
27492SOL     OW94199   4.462  10.409   0.886  0.3471 -0.3333 -0.1225
27492SOL    HW194200   4.454  10.423   0.792  0.1274  0.4630  0.0072
27492SOL    HW294201   4.512  10.484   0.918  1.1704 -1.0244  0.2886
27493SOL     OW94202   6.778   2.863   5.800 -0.0696 -0.3011  0.0491
27493SOL    HW194203   6.691   2.901   5.813 -0.2393 -1.0400  1.2087
27493SOL    HW294204   6.763   2.785   5.747 -0.2226 -0.7948  0.7961
27494SOL     OW94205  10.365   1.199   4.131 -0.1244  0.0472 -0.4836
27494SOL    HW194206  10.338   1.156   4.212  1.1442  1.9510  1.0456
27494SOL    HW294207  10.290   1.253   4.107 -0.3987 -0.3083 -0.4463
27495SOL     OW94208   6.881   9.997   2.461 -0.0575  0.0557  0.2504
27495SOL    HW194209   6.935   9.920   2.446  1.0602  0.8627 -0.0447
27495SOL    HW294210   6.916  10.063   2.401  0.1739  1.3229  1.6918
27496SOL     OW94211   7.943   9.468   5.560  0.1441 -0.1573  0.0778
27496SOL    HW194212   8.018   9.412   5.580  0.3779 -0.2906 -1.0790
27496SOL    HW294213   7.870   9.407   5.547  0.0714 -0.0992  0.2122
27497SOL     OW94214   0.145   2.827   6.690 -0.3295 -0.1011 -0.1788
27497SOL    HW194215   0.240   2.839   6.691  0.1251 -3.0177 -0.8249
27497SOL    HW294216   0.119   2.854   6.601  0.0394 -0.2387 -0.3323
27498SOL     OW94217   8.121   8.601   0.698  0.0481 -0.4716 -0.2235
27498SOL    HW194218   8.124   8.697   0.700  0.5084 -0.4934  0.3324
27498SOL    HW294219   8.180   8.574   0.768  0.3426 -1.1728 -0.7429
27499SOL     OW94220   2.632   4.944   3.807 -0.2112  0.7207  0.2024
27499SOL    HW194221   2.557   4.898   3.768 -1.2398  2.5328 -0.0415
27499SOL    HW294222   2.598   4.978   3.890  0.3562  1.5410  0.0983
27500SOL     OW94223   2.462   8.858   1.451 -0.5550 -0.2006  0.3250
27500SOL    HW194224   2.372   8.876   1.479 -1.0415 -1.1095 -0.6053
27500SOL    HW294225   2.486   8.933   1.398 -1.1399 -0.3938 -0.2385
27501SOL     OW94226   6.135   2.315  11.338  0.0040  1.0934 -0.0520
27501SOL    HW194227   6.087   2.285  11.261 -1.7956  0.7796  1.1155
27501SOL    HW294228   6.083   2.389  11.371 -0.3660  0.0413  1.8846
27502SOL     OW94229  11.581   4.805  11.032 -0.0265 -0.1476  0.0854
27502SOL    HW194230  11.618   4.820  10.945  1.7377  1.9723  1.0859
27502SOL    HW294231  11.525   4.882  11.047 -0.9961 -0.9161  0.5323
27503SOL     OW94232   4.449  11.540  11.255 -0.3075  0.4948 -0.2878
27503SOL    HW194233   4.371  11.571  11.301  0.0833  0.8300  0.1624
27503SOL    HW294234   4.465  11.453  11.291 -0.1533  0.6521  0.0304
27504SOL     OW94235   4.509   7.830   4.995  0.4419 -0.0944  0.8405
27504SOL    HW194236   4.604   7.813   4.998  0.6211  0.2524 -1.4401
27504SOL    HW294237   4.471   7.749   4.963  0.1966  0.4035 -0.1632
27505SOL     OW94238   2.613   9.718   0.270 -0.0404  0.2914  0.4000
27505SOL    HW194239   2.664   9.682   0.343 -0.5922 -0.3485  0.4883
27505SOL    HW294240   2.525   9.729   0.307 -0.6798 -1.3228 -0.5160
27506SOL     OW94241   5.224   5.090   9.028 -0.0973  0.5270  0.0315
27506SOL    HW194242   5.222   5.063   8.936  0.3193  1.6738 -0.3236
27506SOL    HW294243   5.317   5.102   9.047 -0.1382 -0.2618  0.7782
27507SOL     OW94244   4.541   3.948   4.370  0.1816  0.2402 -0.5343
27507SOL    HW194245   4.516   3.857   4.388 -0.1094  0.4194 -0.0420
27507SOL    HW294246   4.473   3.980   4.310 -0.4147  0.5109  0.2610
27508SOL     OW94247   2.901   7.441   8.595  0.2308  0.2459  0.1548
27508SOL    HW194248   2.955   7.505   8.641 -0.9372  0.8433  0.7227
27508SOL    HW294249   2.941   7.356   8.616  3.3002  0.8222 -2.5499
27509SOL     OW94250   5.316   3.980   0.664  0.0725  0.3806  0.1584
27509SOL    HW194251   5.236   3.994   0.614  0.1537  0.1061 -0.0503
27509SOL    HW294252   5.286   3.964   0.753 -0.0219  2.0297  0.4588
27510SOL     OW94253  11.834   0.909   7.436 -0.1520  0.0770  0.1828
27510SOL    HW194254  11.827   0.959   7.517 -1.3661 -0.5607  0.5026
27510SOL    HW294255  11.879   0.967   7.375 -0.6623  1.1795  0.8371
27511SOL     OW94256   2.701   8.119   8.338  0.3032  0.0913  0.3149
27511SOL    HW194257   2.634   8.070   8.386 -1.0540  0.5884 -0.9891
27511SOL    HW294258   2.685   8.098   8.246  0.6796  1.7369 -0.1669
27512SOL     OW94259   8.089   8.651   1.044 -0.4968 -0.3534  0.3875
27512SOL    HW194260   8.123   8.562   1.053  0.8363  0.3285  2.7282
27512SOL    HW294261   8.159   8.708   1.075 -1.7776  1.4550  0.1440
27513SOL     OW94262   3.827   7.196   3.502 -0.2799  0.1073 -0.4552
27513SOL    HW194263   3.803   7.282   3.535  0.5629  0.2910 -0.3089
27513SOL    HW294264   3.873   7.213   3.419  1.0120 -0.1043  0.1932
27514SOL     OW94265   6.610   6.371   8.512  0.3397 -0.4097  0.5735
27514SOL    HW194266   6.681   6.312   8.485  0.1284 -0.1263 -0.6633
27514SOL    HW294267   6.614   6.443   8.450 -0.6213 -0.0648  0.8903
27515SOL     OW94268   4.834   1.052   4.901 -0.6879 -0.3112  0.3383
27515SOL    HW194269   4.790   1.004   4.972 -0.7106  0.5313  0.8985
27515SOL    HW294270   4.912   1.089   4.942 -0.0763 -0.7882 -0.3695
27516SOL     OW94271   2.632   0.842  10.979  0.3355  0.2799  0.2478
27516SOL    HW194272   2.571   0.850  11.052 -0.5602  0.0513 -0.4523
27516SOL    HW294273   2.658   0.750  10.979 -4.7606 -1.7064 -3.5120
27517SOL     OW94274  11.236   3.472   2.108  0.4275  0.3786  0.3403
27517SOL    HW194275  11.300   3.491   2.176  0.4040  0.6057  0.3013
27517SOL    HW294276  11.236   3.377   2.101 -1.4034  0.1209  2.4699
27518SOL     OW94277   5.181   1.741  11.825 -0.0377 -0.1100 -0.1742
27518SOL    HW194278   5.096   1.784  11.817 -0.5038 -1.0493 -0.4293
27518SOL    HW294279   5.205   1.719  11.735 -0.1539 -1.0231  0.0109
27519SOL     OW94280  11.687   2.799   8.200  0.1816  0.5009  0.0018
27519SOL    HW194281  11.608   2.768   8.155  0.5557 -1.2610  0.4709
27519SOL    HW294282  11.678   2.767   8.289  1.5427  0.0108 -0.0120
27520SOL     OW94283   7.464   0.774   5.140 -0.0948 -0.1633 -0.1913
27520SOL    HW194284   7.381   0.736   5.112  1.2587 -2.2024 -1.7143
27520SOL    HW294285   7.450   0.799   5.231 -3.0906  1.8853 -1.0896
27521SOL     OW94286   1.962   5.634   0.535 -0.2170 -0.4988 -0.1396
27521SOL    HW194287   1.967   5.679   0.450  1.9727 -1.9291 -0.8609
27521SOL    HW294288   1.994   5.546   0.517  0.0481 -0.9274  2.1431
27522SOL     OW94289   4.687   1.117   1.643 -0.0892 -0.6479  0.4057
27522SOL    HW194290   4.687   1.198   1.695 -0.9527  0.5101 -1.2797
27522SOL    HW294291   4.771   1.118   1.598 -0.4454 -0.2013 -0.2740
27523SOL     OW94292   2.468  10.862  11.174 -0.1709 -0.4080  0.1247
27523SOL    HW194293   2.525  10.792  11.204 -1.7195 -2.1520 -0.8262
27523SOL    HW294294   2.407  10.820  11.114 -3.2012  1.0637  1.9241
27524SOL     OW94295  10.502   6.687   7.654 -0.3432 -0.0164  0.5325
27524SOL    HW194296  10.569   6.727   7.600  0.2753  0.1722  1.4139
27524SOL    HW294297  10.510   6.593   7.636  1.2049 -0.1573  1.7462
27525SOL     OW94298   6.508   5.556  10.820 -0.4566  0.1600  0.1732
27525SOL    HW194299   6.441   5.612  10.782  1.7530  2.8636 -0.0466
27525SOL    HW294300   6.479   5.542  10.910 -1.2716  1.3895  0.1233
27526SOL     OW94301  10.557   0.720   5.206 -0.1465 -0.6223 -0.8067
27526SOL    HW194302  10.539   0.732   5.112 -0.8990 -0.4379 -0.6474
27526SOL    HW294303  10.471   0.729   5.248  0.4123  1.0208  0.0792
27527SOL     OW94304   3.779  11.489   0.896 -0.3279  0.4716  0.2841
27527SOL    HW194305   3.754  11.452   0.812 -1.6138  1.9000  0.0036
27527SOL    HW294306   3.717  11.452   0.959  0.8814 -0.9163  0.7357
27528SOL     OW94307   3.264   1.327   6.210  0.1205 -0.1056 -0.4975
27528SOL    HW194308   3.314   1.320   6.129 -0.2846 -1.0250 -0.6830
27528SOL    HW294309   3.294   1.253   6.263  0.8317  0.8471  0.4523
27529SOL     OW94310   5.832   8.333   5.310 -0.4699  0.4439  0.0075
27529SOL    HW194311   5.783   8.352   5.390 -0.5414  0.2250  0.0167
27529SOL    HW294312   5.917   8.301   5.341 -0.0507  1.5093 -0.0099
27530SOL     OW94313   4.406   5.009   1.114  0.0187  0.3387  0.2369
27530SOL    HW194314   4.366   4.972   1.192 -0.7849  1.6610  0.4939
27530SOL    HW294315   4.486   4.959   1.101 -0.4952 -0.7448  1.1540
27531SOL     OW94316  10.580   7.339   8.775  0.0429 -0.4929 -0.5639
27531SOL    HW194317  10.562   7.249   8.801  1.6646 -1.0952 -1.3820
27531SOL    HW294318  10.579   7.389   8.856  1.5756 -1.7004  0.2437
27532SOL     OW94319   8.568   3.342   7.784 -0.3506 -0.1989  0.8021
27532SOL    HW194320   8.579   3.266   7.727 -2.2032 -0.6172  0.9444
27532SOL    HW294321   8.476   3.366   7.774 -0.2866  0.7640  2.3172
27533SOL     OW94322   0.040  10.009   5.061 -0.0545 -0.3960  0.0209
27533SOL    HW194323   0.065  10.091   5.103 -0.2064  0.0525 -0.7459
27533SOL    HW294324  -0.034   9.976   5.113  0.1599 -0.1702  0.4696
27534SOL     OW94325   5.291   6.201   6.541  0.2243  0.0750  0.7721
27534SOL    HW194326   5.204   6.185   6.576  0.3877  2.2959  2.4205
27534SOL    HW294327   5.342   6.124   6.566 -0.6451 -0.0914  2.0772
27535SOL     OW94328   5.220   5.518   8.772 -0.2313 -0.0532 -0.5321
27535SOL    HW194329   5.238   5.439   8.721  0.8852  0.0323 -0.3066
27535SOL    HW294330   5.210   5.488   8.862 -2.2715 -0.2120 -0.7638
27536SOL     OW94331   5.974  11.439   3.244 -0.0312  0.1686 -0.4921
27536SOL    HW194332   6.048  11.453   3.184 -0.8351  0.3688 -1.4549
27536SOL    HW294333   6.013  11.392   3.318  0.6859 -1.6225 -1.9242
27537SOL     OW94334   0.875   1.087   3.958 -0.2676 -0.1854  0.2693
27537SOL    HW194335   0.863   1.040   4.041 -2.2948  0.7075  0.5478
27537SOL    HW294336   0.833   1.172   3.972  1.0805  0.7456 -1.0504
27538SOL     OW94337   2.274   6.777   7.706  0.5514 -0.1130  0.1368
27538SOL    HW194338   2.268   6.693   7.659 -0.3878 -0.3118  0.5827
27538SOL    HW294339   2.239   6.841   7.645 -0.4884 -0.3422  0.4696
27539SOL     OW94340   0.596   2.137   9.782  0.2877 -0.1377  0.4561
27539SOL    HW194341   0.671   2.095   9.822 -0.0166 -0.5042  0.6491
27539SOL    HW294342   0.544   2.170   9.855  0.0686 -0.2188  0.3392
27540SOL     OW94343   4.134   6.038   3.626  0.3475 -0.4800  0.0073
27540SOL    HW194344   4.159   6.117   3.576 -0.2535  0.1812  0.7305
27540SOL    HW294345   4.147   6.063   3.717 -1.8748 -0.4671  0.3746
27541SOL     OW94346   2.434   1.198   9.140  0.5369  0.6109  0.1515
27541SOL    HW194347   2.397   1.277   9.099 -1.3109 -0.5820 -0.6031
27541SOL    HW294348   2.407   1.204   9.231 -0.3352  0.4663 -0.0846
27542SOL     OW94349   9.362   2.659  11.826 -0.1000 -0.1205 -0.0701
27542SOL    HW194350   9.420   2.729  11.796  2.5773 -1.5654  1.3488
27542SOL    HW294351   9.327   2.690  11.910 -0.1745  0.1529 -0.2036
27543SOL     OW94352  10.696   4.585   2.321  0.7690  0.6242 -0.3139
27543SOL    HW194353  10.614   4.612   2.279  1.1248  1.3755 -0.5427
27543SOL    HW294354  10.757   4.574   2.248  0.7919 -0.2524 -0.1726
27544SOL     OW94355   0.055   2.481   7.428  0.2681 -0.0397  0.0844
27544SOL    HW194356   0.084   2.545   7.493 -1.4171  1.8841 -0.9521
27544SOL    HW294357   0.115   2.492   7.355 -0.1860  0.5319 -0.1981
27545SOL     OW94358   0.861   1.945  11.821 -0.3476 -0.0383 -0.6891
27545SOL    HW194359   0.850   1.932  11.916  1.0921 -4.1352 -0.8485
27545SOL    HW294360   0.954   1.968  11.811 -0.7087  1.3083 -1.1059
27546SOL     OW94361  11.520   9.339   1.941 -0.5414 -0.2778 -0.2953
27546SOL    HW194362  11.527   9.244   1.950  2.0494 -0.1086  0.3674
27546SOL    HW294363  11.598   9.364   1.891 -0.2401  1.6464  1.0296
27547SOL     OW94364   4.813   3.903   3.694  0.3565  0.2423 -0.1900
27547SOL    HW194365   4.785   3.913   3.785 -0.8348  1.1336 -0.6379
27547SOL    HW294366   4.853   3.816   3.692 -0.0727 -0.0193  1.0620
27548SOL     OW94367   5.826   6.974   7.520  0.2311  0.5046  0.1268
27548SOL    HW194368   5.856   7.025   7.445  0.3425  0.0559 -0.1356
27548SOL    HW294369   5.861   7.021   7.596  1.0937  0.3311 -0.1483
27549SOL     OW94370  10.237   6.862   8.916  0.2138 -0.5656 -0.2361
27549SOL    HW194371  10.329   6.852   8.940  0.5248 -1.1125 -1.5390
27549SOL    HW294372  10.191   6.874   8.999  0.8607 -4.8006  0.9859
27550SOL     OW94373   7.946  11.032  10.975 -0.5254  0.0708 -0.2806
27550SOL    HW194374   7.912  11.082  11.049  0.0907  1.2452 -0.7501
27550SOL    HW294375   8.041  11.030  10.989 -0.2258  1.5883 -1.7423
27551SOL     OW94376   1.956   7.311   6.681 -0.4657 -0.7707 -0.1317
27551SOL    HW194377   2.003   7.335   6.761 -0.7673 -1.0232  0.1267
27551SOL    HW294378   1.944   7.394   6.634 -1.6510 -0.3480  0.8313
27552SOL     OW94379   5.098   9.811   5.346 -0.1866  0.4464  0.0590
27552SOL    HW194380   5.184   9.820   5.388 -0.7534  1.3135  1.1065
27552SOL    HW294381   5.100   9.725   5.304  0.6807 -0.1763  1.3093
27553SOL     OW94382   0.093   5.323   8.399  0.1484  0.1072 -0.5556
27553SOL    HW194383   0.029   5.302   8.331 -0.2711 -0.1103 -0.1003
27553SOL    HW294384   0.104   5.241   8.448 -0.2673  0.5077  0.2232
27554SOL     OW94385   3.214   1.575   5.734  0.2836 -0.2956  0.4377
27554SOL    HW194386   3.136   1.631   5.737 -0.0010 -0.7196  1.7906
27554SOL    HW294387   3.200   1.518   5.659  1.2268  2.2808 -1.9085
27555SOL     OW94388  10.750   9.717   9.007 -0.2411 -0.0129 -0.1456
27555SOL    HW194389  10.725   9.642   9.061  0.4860 -0.6005 -0.6114
27555SOL    HW294390  10.757   9.789   9.069 -0.0854 -0.5221  0.4444
27556SOL     OW94391  10.829   8.305   1.937 -0.2529  0.1060  0.0045
27556SOL    HW194392  10.892   8.281   1.870 -0.3550  2.4034 -1.0050
27556SOL    HW294393  10.748   8.260   1.911  0.1881 -0.4942 -0.3541
27557SOL     OW94394   1.982   1.841  11.318 -0.2446 -0.3507 -0.2771
27557SOL    HW194395   1.944   1.813  11.235 -2.0019 -0.5488  0.5569
27557SOL    HW294396   1.973   1.936  11.318  1.8625 -0.0783 -1.2554
27558SOL     OW94397   2.163   4.925  11.550  0.2505  0.2039  0.6260
27558SOL    HW194398   2.072   4.943  11.525  0.1167  0.8347  1.5053
27558SOL    HW294399   2.200   4.881  11.474 -1.5063 -2.4109  1.1489
27559SOL     OW94400  10.933   7.640   5.713  0.5305 -0.2734  0.4906
27559SOL    HW194401  10.905   7.559   5.754 -0.8729  0.3645  0.8674
27559SOL    HW294402  11.029   7.635   5.711  0.5147 -3.2251 -2.1435
27560SOL     OW94403   6.504   8.299   2.859  0.5423  0.0846  0.0019
27560SOL    HW194404   6.564   8.266   2.926  0.3940  0.6425  0.4171
27560SOL    HW294405   6.481   8.387   2.888 -0.9710 -0.3309  0.1853
27561SOL     OW94406   7.130  11.265   4.586  0.7984  0.3077  0.0246
27561SOL    HW194407   7.136  11.335   4.650  0.4656  0.7536 -0.4242
27561SOL    HW294408   7.036  11.255   4.571  0.8474 -0.2004  0.0492
27562SOL     OW94409   7.755   9.127   4.059  0.1800 -0.0959  0.1199
27562SOL    HW194410   7.673   9.084   4.036  0.1736 -0.2627  0.4403
27562SOL    HW294411   7.810   9.119   3.981 -0.4113  0.7709 -0.4006
27563SOL     OW94412   1.005   8.308   5.826  0.7272  0.5534 -0.0271
27563SOL    HW194413   1.075   8.373   5.829  1.4425 -0.1858 -0.3082
27563SOL    HW294414   1.031   8.241   5.890 -0.7597  1.2651  1.3928
27564SOL     OW94415   9.687   9.696   7.542  0.4496  0.7306  0.3421
27564SOL    HW194416   9.609   9.750   7.552 -0.7605 -0.8329 -0.1141
27564SOL    HW294417   9.755   9.756   7.513 -0.3051  2.3312  1.7119
27565SOL     OW94418   5.687   3.298  10.466 -0.1856  0.1951  0.3031
27565SOL    HW194419   5.630   3.375  10.461  0.3669  0.5840 -0.3587
27565SOL    HW294420   5.720   3.288  10.377 -2.1555 -2.3295 -0.2360
27566SOL     OW94421   3.212   6.468  11.413 -0.2593 -0.0281 -0.5807
27566SOL    HW194422   3.143   6.521  11.373  0.2353  0.9728 -0.1338
27566SOL    HW294423   3.285   6.473  11.350 -0.3484 -0.5326 -0.7324
27567SOL     OW94424   4.839   0.087   7.937 -0.4210 -0.2112 -1.0128
27567SOL    HW194425   4.805   0.169   7.972 -1.2369 -1.3168  0.9334
27567SOL    HW294426   4.773   0.022   7.961  1.3817 -1.8513 -0.2774
27568SOL     OW94427   0.445   9.541   4.150  0.1633  0.7195  0.1791
27568SOL    HW194428   0.462   9.520   4.242  1.5357 -0.9731 -0.3959
27568SOL    HW294429   0.525   9.583   4.120  1.6052 -2.6482 -1.2554
27569SOL     OW94430   6.416   5.977   6.898 -1.0287  0.2630  0.3757
27569SOL    HW194431   6.508   5.971   6.924 -0.5396  2.5966 -0.5417
27569SOL    HW294432   6.367   5.959   6.978  0.3018  1.8107  1.5934
27570SOL     OW94433  10.493   8.103   8.481 -0.1848  0.4026  0.3640
27570SOL    HW194434  10.415   8.134   8.434 -0.7263  1.0622  1.6426
27570SOL    HW294435  10.555   8.175   8.476 -0.0541  0.2799  0.2249
27571SOL     OW94436   0.949  11.621   2.822  0.1896 -0.3156  0.1402
27571SOL    HW194437   0.968  11.598   2.731  2.1068  1.3634  0.0555
27571SOL    HW294438   1.028  11.596   2.870 -0.1472  0.3329  1.0602
27572SOL     OW94439   1.115   9.221   9.184  0.4472  0.1082 -0.3785
27572SOL    HW194440   1.202   9.259   9.172  0.3938  0.5374  0.4876
27572SOL    HW294441   1.114   9.144   9.127  0.6334  1.2644 -1.9829
27573SOL     OW94442   9.521   3.768   5.657 -0.3629  0.4850 -0.7310
27573SOL    HW194443   9.577   3.694   5.637  0.2322  1.1059 -1.4451
27573SOL    HW294444   9.559   3.841   5.608 -0.4886  1.4449  0.5537
27574SOL     OW94445  11.411  11.656   8.958 -0.1463  0.2615  0.5513
27574SOL    HW194446  11.488  11.644   8.902 -1.5888  0.5419 -1.6250
27574SOL    HW294447  11.423  11.743   8.996  0.0620  0.8151 -0.7241
27575SOL     OW94448   0.351   1.824   1.469  0.1255 -0.3500 -0.1972
27575SOL    HW194449   0.341   1.749   1.528 -0.7232  1.7478  2.5639
27575SOL    HW294450   0.270   1.826   1.419  0.1312 -1.2097 -0.2626
27576SOL     OW94451   9.659  10.955   5.185  0.2720 -0.5275 -0.0305
27576SOL    HW194452   9.592  10.957   5.117 -0.0158 -1.2999  0.2123
27576SOL    HW294453   9.696  11.043   5.185 -2.3947  0.7414  1.4465
27577SOL     OW94454   3.422  11.618   4.177 -0.0556 -0.3684  0.1380
27577SOL    HW194455   3.340  11.656   4.208  0.6064  0.2749  1.1657
27577SOL    HW294456   3.475  11.606   4.256  0.7794 -0.9324 -0.4800
27578SOL     OW94457   6.282   3.218   2.148 -0.4705  0.6618 -0.0076
27578SOL    HW194458   6.254   3.258   2.065 -2.3787  2.1594  1.2680
27578SOL    HW294459   6.243   3.273   2.215  0.1740 -1.0987  1.9042
27579SOL     OW94460  11.105   5.977   3.233 -0.4353 -0.4488  0.1765
27579SOL    HW194461  11.119   6.008   3.144  0.8510 -0.0896  0.4852
27579SOL    HW294462  11.015   6.003   3.254 -0.3209  0.5708 -0.5688
27580SOL     OW94463   0.731  10.741  10.574  0.4505 -0.2294 -0.7071
27580SOL    HW194464   0.645  10.771  10.546  1.1385  0.6786 -2.0305
27580SOL    HW294465   0.743  10.778  10.661 -0.5181 -0.4178 -0.4915
27581SOL     OW94466   9.386  11.927   6.798 -0.2281 -0.5618  0.0178
27581SOL    HW194467   9.310  11.893   6.751 -0.8471  0.3845  0.3139
27581SOL    HW294468   9.447  11.954   6.730 -1.1568  0.8890 -0.2814
27582SOL     OW94469   1.740   4.516   2.600 -0.1628 -0.4094  0.4214
27582SOL    HW194470   1.721   4.423   2.598  0.8074 -0.6454  1.4870
27582SOL    HW294471   1.663   4.556   2.639 -0.1882 -0.8704  0.8398
27583SOL     OW94472   3.320  10.139   1.922  0.6526 -0.0746 -0.0084
27583SOL    HW194473   3.311  10.163   2.015 -0.7955 -2.2184  0.4728
27583SOL    HW294474   3.414  10.145   1.905  0.9449  0.3927  1.6017
27584SOL     OW94475   7.182  10.957  10.600  0.3239 -0.3694  0.5849
27584SOL    HW194476   7.094  10.992  10.585 -0.2709 -1.4392  1.4840
27584SOL    HW294477   7.196  10.896  10.527  1.1338  1.2291 -0.6598
27585SOL     OW94478   7.224   0.392  11.712  0.0046  0.4746 -0.3631
27585SOL    HW194479   7.238   0.309  11.667  1.5399  1.0746 -1.1032
27585SOL    HW294480   7.200   0.453  11.642  0.4037  0.9699 -0.0792
27586SOL     OW94481   4.951  10.995   1.680 -0.4998 -0.0674 -0.0068
27586SOL    HW194482   4.996  10.921   1.721 -1.3340 -0.0037  1.0663
27586SOL    HW294483   5.014  11.067   1.686  0.2346 -0.6159 -0.8686
27587SOL     OW94484   3.498   6.457  10.169 -0.0582  0.3241  0.6203
27587SOL    HW194485   3.494   6.511  10.247  0.3605  1.1593  0.0783
27587SOL    HW294486   3.457   6.374  10.195 -0.4825  0.8035  1.5306
27588SOL     OW94487   1.831  11.583  10.286  0.0290 -0.6730 -0.5113
27588SOL    HW194488   1.852  11.525  10.359 -1.1840 -2.3243 -1.4070
27588SOL    HW294489   1.736  11.586  10.284  0.0488 -0.3565 -1.8061
27589SOL     OW94490   9.447   5.786   8.908  0.0559 -0.2888  0.5355
27589SOL    HW194491   9.382   5.718   8.922  0.2076 -0.2648  1.3852
27589SOL    HW294492   9.518   5.742   8.860 -0.9734 -0.0874 -1.2763
27590SOL     OW94493   5.435   1.083   7.722 -0.7008 -0.2310 -0.0221
27590SOL    HW194494   5.406   1.174   7.717 -2.2563 -0.7602 -2.0976
27590SOL    HW294495   5.531   1.089   7.717 -0.4929  1.3795  3.3132
27591SOL     OW94496   6.145   2.555   4.760 -0.2423 -0.1052  0.1339
27591SOL    HW194497   6.058   2.522   4.782 -0.4282 -0.2861 -0.8306
27591SOL    HW294498   6.169   2.612   4.833 -1.4364  0.4548  0.1038
27592SOL     OW94499  10.420   6.298  11.527 -0.0018  0.3570 -0.0054
27592SOL    HW194500  10.422   6.394  11.521 -1.0985  0.4465  0.6979
27592SOL    HW294501  10.413   6.268  11.437 -3.7457  1.1355 -0.1254
27593SOL     OW94502   3.552   8.097   8.320 -0.1645  0.4631  0.5731
27593SOL    HW194503   3.632   8.051   8.346 -0.1010  0.8650  1.0824
27593SOL    HW294504   3.511   8.037   8.257  0.5389  0.2609  0.2906
27594SOL     OW94505   3.436   2.011   2.671  0.1529  0.4221 -0.4713
27594SOL    HW194506   3.431   2.077   2.740 -3.0784 -0.2588  0.1133
27594SOL    HW294507   3.453   1.929   2.718  2.2435  0.4865 -1.0077
27595SOL     OW94508   8.584   8.010   5.997  0.1402 -0.2929  0.4571
27595SOL    HW194509   8.632   7.941   5.950  0.5100  0.0943  0.2642
27595SOL    HW294510   8.646   8.041   6.064 -0.1971 -0.4773  0.8578
27596SOL     OW94511   3.726   0.567   7.887 -0.0437  0.6339  0.1113
27596SOL    HW194512   3.640   0.597   7.918 -0.5592 -0.4938 -0.1621
27596SOL    HW294513   3.722   0.472   7.895  0.0044  0.2905 -2.8252
27597SOL     OW94514   2.771  11.472   2.604  0.3705 -0.0849 -0.1063
27597SOL    HW194515   2.778  11.382   2.572  0.0371  1.0604 -3.8109
27597SOL    HW294516   2.677  11.487   2.614  0.4317 -0.1351  0.6370
27598SOL     OW94517   4.011   1.931   4.368  0.0532 -0.2963 -0.5839
27598SOL    HW194518   3.939   1.888   4.321 -0.0595 -0.2981 -0.4108
27598SOL    HW294519   4.043   1.998   4.308 -0.5829  0.2078 -0.3734
27599SOL     OW94520  10.944   9.478   6.211 -0.5953  0.0496  1.4121
27599SOL    HW194521  10.959   9.422   6.287 -1.7861 -0.1861  1.4991
27599SOL    HW294522  10.940   9.567   6.248 -1.3529 -0.0814  1.6684
27600SOL     OW94523   0.209   4.421  10.113 -0.1936  0.4787  0.1489
27600SOL    HW194524   0.248   4.334  10.125  0.7296  0.9427  0.5891
27600SOL    HW294525   0.133   4.422  10.170  0.5121  0.3987  1.1039
27601SOL     OW94526   6.072  10.877  10.639 -0.5731 -0.3916  0.6130
27601SOL    HW194527   6.046  10.839  10.723 -0.2942 -3.0055 -0.4054
27601SOL    HW294528   5.990  10.885  10.591 -0.4434 -1.3945  0.2017
27602SOL     OW94529   9.762   9.750   0.495 -1.0658  0.1997 -0.1606
27602SOL    HW194530   9.725   9.833   0.465 -0.3122  1.5323  2.3091
27602SOL    HW294531   9.856   9.764   0.495 -0.9967  0.0332  1.9411
27603SOL     OW94532   0.286   5.405  11.373 -0.0509 -0.2056  0.2849
27603SOL    HW194533   0.206   5.355  11.388 -0.1426  0.5788  2.8082
27603SOL    HW294534   0.356   5.341  11.387 -0.2105 -0.2565  0.9002
27604SOL     OW94535   1.307  10.743   8.001 -0.1508 -0.3700 -0.3670
27604SOL    HW194536   1.324  10.799   7.925 -2.8301  0.5854 -0.3607
27604SOL    HW294537   1.296  10.805   8.073 -2.4948 -0.8814 -0.2205
27605SOL     OW94538   5.099   2.737  11.723  0.1151 -0.1450  0.3306
27605SOL    HW194539   5.137   2.650  11.707 -0.0221 -0.0304 -0.7213
27605SOL    HW294540   5.010   2.732  11.687  0.3402  0.6255 -0.3803
27606SOL     OW94541  10.798  10.209  10.122 -0.1508 -0.2200  0.3541
27606SOL    HW194542  10.856  10.249  10.056 -0.8643 -0.5465 -0.4833
27606SOL    HW294543  10.846  10.133  10.153  0.6601  0.5412  1.0146
27607SOL     OW94544   4.687   2.590   3.806  0.3909  0.0855  0.2441
27607SOL    HW194545   4.608   2.559   3.761  0.0579  0.6610  0.4242
27607SOL    HW294546   4.682   2.685   3.801  0.8875  0.1348  0.5816
27608SOL     OW94547  11.005   4.619   2.659  0.1141  0.5719  0.6482
27608SOL    HW194548  11.046   4.544   2.617 -0.0784  1.4182 -1.1260
27608SOL    HW294549  11.078   4.675   2.685  0.1795  1.3639 -1.1414
27609SOL     OW94550   6.497   8.950  10.453 -0.1754  0.2986 -0.8783
27609SOL    HW194551   6.426   8.925  10.512 -0.7971 -0.8277 -2.0658
27609SOL    HW294552   6.468   9.033  10.414  1.0051  2.0281  1.5754
27610SOL     OW94553   8.660   5.062  10.837 -0.1896  0.3578 -0.2918
27610SOL    HW194554   8.724   5.101  10.778 -1.4209  0.1023 -1.8388
27610SOL    HW294555   8.714   5.015  10.902  1.1889  0.0976 -1.5713
27611SOL     OW94556   2.753   8.638   7.597  0.0593 -0.1069 -0.4483
27611SOL    HW194557   2.816   8.587   7.647  0.0821 -0.0903 -0.4599
27611SOL    HW294558   2.674   8.584   7.595  0.0609 -0.1111 -0.4012
27612SOL     OW94559   2.242  11.592   3.915  0.7213  0.0853 -0.8060
27612SOL    HW194560   2.220  11.540   3.992  1.0426  0.3612 -0.5216
27612SOL    HW294561   2.251  11.528   3.844  1.5728 -0.3080 -0.3625
27613SOL     OW94562   9.063  10.319  11.400 -0.0303 -0.4939  0.3463
27613SOL    HW194563   8.990  10.292  11.344 -0.3777  2.2039 -0.6248
27613SOL    HW294564   9.135  10.260  11.375 -0.8431 -0.8409 -1.3079
27614SOL     OW94565   6.343   1.055   9.118  0.3456 -0.1923 -0.2034
27614SOL    HW194566   6.317   1.003   9.194  1.1996  0.3824  0.4978
27614SOL    HW294567   6.325   0.999   9.043 -0.1676 -0.9102  0.4454
27615SOL     OW94568   5.194   1.142   7.020 -0.0349 -0.3705 -0.6236
27615SOL    HW194569   5.101   1.163   7.009 -0.0998  0.5088  1.2334
27615SOL    HW294570   5.196   1.081   7.093  0.8746 -0.2290 -0.5228
27616SOL     OW94571   9.343   0.546   6.107  0.4360 -0.4117  0.0865
27616SOL    HW194572   9.434   0.516   6.103  0.1148 -1.4335  0.1799
27616SOL    HW294573   9.296   0.489   6.047 -0.0587  0.5022 -0.4222
27617SOL     OW94574   6.862   5.802   1.598  0.0992 -0.5732  0.7141
27617SOL    HW194575   6.954   5.817   1.575  0.5553 -2.1728  1.3829
27617SOL    HW294576   6.824   5.890   1.603  1.1092  0.0445 -1.4139
27618SOL     OW94577  10.451   7.296   1.742 -0.3740 -0.0602 -0.4819
27618SOL    HW194578  10.447   7.213   1.789  0.1892  1.3397  2.2577
27618SOL    HW294579  10.378   7.348   1.777  0.0697  1.0549 -1.1423
27619SOL     OW94580   8.106   4.128   9.692  0.0064  0.4323  0.0984
27619SOL    HW194581   8.193   4.088   9.696 -1.2998 -2.6084  1.0152
27619SOL    HW294582   8.098   4.174   9.776 -0.1971 -1.5835  1.2536
27620SOL     OW94583   3.780   9.847   6.175  0.1684 -0.6503  0.2627
27620SOL    HW194584   3.856   9.796   6.204  0.0269 -0.1993  1.4423
27620SOL    HW294585   3.818   9.922   6.130  0.3818 -1.7249 -1.4731
27621SOL     OW94586   7.618   6.643   3.697  0.0746 -0.6920  0.4465
27621SOL    HW194587   7.534   6.600   3.684 -0.2703 -0.1668  0.9333
27621SOL    HW294588   7.617   6.716   3.635  1.6344 -2.6940 -2.1452
27622SOL     OW94589   2.979   4.514   8.536 -0.1902 -0.3673 -0.0106
27622SOL    HW194590   3.032   4.448   8.581  0.3020  1.4862  2.2809
27622SOL    HW294591   3.039   4.555   8.475  0.4600  0.2328  1.0081
27623SOL     OW94592   7.475   0.046   2.930 -0.2250 -0.4253 -0.1683
27623SOL    HW194593   7.539   0.100   2.884 -0.2950 -2.2072 -2.5165
27623SOL    HW294594   7.527  -0.018   2.978 -0.1696 -1.2108 -1.2338
27624SOL     OW94595   2.896   9.243  10.071  0.5740 -0.2792 -0.0954
27624SOL    HW194596   2.801   9.248  10.071  0.5920  0.0787  0.0028
27624SOL    HW294597   2.922   9.263  10.161  0.7029 -1.2729  0.1021
27625SOL     OW94598   5.483   2.191   4.293  0.1854 -0.5039  0.0749
27625SOL    HW194599   5.409   2.195   4.354 -0.4886 -0.3739 -0.7341
27625SOL    HW294600   5.553   2.237   4.338 -0.6591  0.6354  0.2637
27626SOL     OW94601   3.043   5.737   7.525 -0.0281 -0.1544  0.5938
27626SOL    HW194602   2.995   5.813   7.557 -0.2262 -0.4956  1.1171
27626SOL    HW294603   3.131   5.771   7.506  0.0734  0.0650  1.4471
27627SOL     OW94604   7.782   4.588   2.545 -0.0763 -0.0840  0.0634
27627SOL    HW194605   7.753   4.527   2.614 -1.6670  1.2238  0.6146
27627SOL    HW294606   7.877   4.578   2.543 -0.1059 -1.0562  1.5827
27628SOL     OW94607   7.288   3.802   6.325  0.2609  0.5340  0.7785
27628SOL    HW194608   7.238   3.757   6.257 -0.2091 -0.3252  1.6688
27628SOL    HW294609   7.274   3.896   6.308  0.0118  0.3247 -0.1916
27629SOL     OW94610   7.414   9.284   6.876  0.2128 -0.1012 -0.4947
27629SOL    HW194611   7.336   9.280   6.931 -1.7830  0.1307 -3.1483
27629SOL    HW294612   7.472   9.217   6.914 -1.8563 -1.3537  0.6789
27630SOL     OW94613   3.647   3.091   9.231  0.3090  0.1953 -0.2367
27630SOL    HW194614   3.702   3.105   9.154  0.2904 -0.2757 -0.3413
27630SOL    HW294615   3.709   3.075   9.302  0.3089 -0.5322 -0.3949
27631SOL     OW94616   0.581   5.583   3.203 -0.1972 -0.3283  0.3853
27631SOL    HW194617   0.536   5.653   3.251  0.6939 -0.8771  2.1084
27631SOL    HW294618   0.531   5.504   3.222 -0.1533 -0.4747 -0.0771
27632SOL     OW94619   8.664   8.046   9.120  0.3767 -0.6927 -0.0266
27632SOL    HW194620   8.759   8.056   9.126  0.6241 -0.8393 -2.5790
27632SOL    HW294621   8.635   8.040   9.211  2.5583  1.4022  0.9312
27633SOL     OW94622  10.834   6.015  10.222  0.3059 -0.0818 -0.1651
27633SOL    HW194623  10.927   6.026  10.203  0.1455  1.2696 -0.2609
27633SOL    HW294624  10.789   6.058  10.150 -0.3653  0.6648  0.6722
27634SOL     OW94625   0.948   4.707  10.675 -0.1815  0.0349 -0.1048
27634SOL    HW194626   0.947   4.669  10.587 -1.1380 -0.0669 -0.0545
27634SOL    HW294627   0.886   4.655  10.725 -2.9858  2.7289 -0.5172
27635SOL     OW94628   3.356   3.469  10.663  0.3349 -0.0327  0.4428
27635SOL    HW194629   3.377   3.413  10.738  1.4314 -2.1385 -1.2915
27635SOL    HW294630   3.273   3.510  10.686  0.2540 -1.1843  2.4885
27636SOL     OW94631   7.881   5.589   0.181 -0.1816  0.1834 -0.3652
27636SOL    HW194632   7.855   5.508   0.138 -0.5666 -0.5126  1.1161
27636SOL    HW294633   7.973   5.600   0.159 -0.3316 -0.1984 -1.2380
27637SOL     OW94634  10.586   1.232  11.734 -0.3873  0.3331  0.2428
27637SOL    HW194635  10.512   1.275  11.691  0.6392  0.8835 -1.0248
27637SOL    HW294636  10.560   1.140  11.738 -2.0461  0.8046  1.7978
27638SOL     OW94637   4.311  10.427  11.828 -0.0388 -0.3125  0.0368
27638SOL    HW194638   4.308  10.337  11.859  0.1870  0.2308  1.7448
27638SOL    HW294639   4.301  10.480  11.907  0.4009  1.1638 -0.8568
27639SOL     OW94640   9.737   0.526   9.042  0.5254  0.1868  0.0052
27639SOL    HW194641   9.781   0.443   9.020  2.0751  0.9915 -0.0572
27639SOL    HW294642   9.742   0.531   9.137  1.2200  0.6126 -0.0488
27640SOL     OW94643   1.042   2.785   7.932  0.3515  0.2546 -0.0415
27640SOL    HW194644   1.104   2.755   7.998  1.2993  0.0537 -0.9959
27640SOL    HW294645   0.956   2.773   7.972  0.9069  0.0802  1.1218
27641SOL     OW94646   2.763   6.197   6.569 -0.1783 -0.2763  0.3074
27641SOL    HW194647   2.694   6.203   6.635 -2.1257 -1.0579 -1.5646
27641SOL    HW294648   2.833   6.147   6.612 -1.3094 -0.6132  1.8254
27642SOL     OW94649   6.387  11.870   7.313  0.0097 -0.0360  0.1312
27642SOL    HW194650   6.384  11.869   7.217  1.2344 -0.0086  0.0849
27642SOL    HW294651   6.442  11.795   7.335 -1.4385 -0.9149  0.8779
27643SOL     OW94652  11.071   2.837   6.569  0.2842 -0.4095  0.1665
27643SOL    HW194653  10.980   2.864   6.553 -0.2016 -2.7085 -1.4051
27643SOL    HW294654  11.120   2.873   6.496  0.0430 -1.7011 -0.6670
27644SOL     OW94655   6.206   3.471   2.252  0.0146 -0.3549  0.1980
27644SOL    HW194656   6.251   3.452   2.334  0.4690 -3.1406 -0.5827
27644SOL    HW294657   6.255   3.543   2.213  1.2951 -0.6292  1.2474
27645SOL     OW94658  11.479  11.123   6.357 -0.4579 -0.2031  0.0314
27645SOL    HW194659  11.501  11.084   6.442 -1.6542 -0.8632  0.0650
27645SOL    HW294660  11.386  11.103   6.346 -0.0567 -1.1961 -2.0003
27646SOL     OW94661  10.052   1.679   1.454  0.4566 -0.2442 -0.2809
27646SOL    HW194662  10.008   1.684   1.539  1.1473  0.8862  0.0313
27646SOL    HW294663  10.051   1.586   1.431 -0.0497 -0.5110  0.7977
27647SOL     OW94664   5.121   1.782  10.113 -0.4475  1.3441 -0.3521
27647SOL    HW194665   5.052   1.759  10.051 -1.7149  1.7764  0.8519
27647SOL    HW294666   5.168   1.855  10.072  0.1246  0.2542 -1.7374
27648SOL     OW94667   3.807   2.514   2.654  0.0004 -1.1240 -0.4005
27648SOL    HW194668   3.762   2.549   2.731 -1.9006 -1.3795 -1.3333
27648SOL    HW294669   3.877   2.576   2.636 -0.1351 -0.5581  0.9652
27649SOL     OW94670   8.940   3.519   1.301 -0.4080 -0.1048 -0.1613
27649SOL    HW194671   9.031   3.520   1.331 -0.2598  0.6379 -0.6082
27649SOL    HW294672   8.889   3.549   1.376 -0.0967  1.1822 -0.4331
27650SOL     OW94673   2.790   3.390   0.434 -0.0549 -0.2387 -0.6937
27650SOL    HW194674   2.698   3.390   0.405 -0.0484  0.3068 -0.7297
27650SOL    HW294675   2.823   3.304   0.409 -0.4541 -0.3009 -1.0169
27651SOL     OW94676   9.991   9.079   1.378 -0.6877  0.0563  0.2041
27651SOL    HW194677  10.035   9.046   1.300 -0.8228  0.7167 -0.1611
27651SOL    HW294678  10.061   9.092   1.442 -0.5134 -0.0301  0.0289
27652SOL     OW94679   6.788   2.248   6.556  0.0892  0.4344  0.8998
27652SOL    HW194680   6.797   2.153   6.544  2.0997  0.5944  0.7312
27652SOL    HW294681   6.875   2.276   6.586 -0.2974  2.3023  0.3869
27653SOL     OW94682   4.197   9.332  10.470  0.2336  0.5379  0.1676
27653SOL    HW194683   4.278   9.377  10.445  0.2941  0.2603 -0.1480
27653SOL    HW294684   4.201   9.249  10.423 -0.5341  0.7887 -0.3465
27654SOL     OW94685   1.732   7.307   1.936 -0.4630 -0.1301  0.3210
27654SOL    HW194686   1.774   7.340   1.856 -0.0035 -1.0472  0.1773
27654SOL    HW294687   1.773   7.222   1.952 -2.3277 -1.1396  0.0991
27655SOL     OW94688   6.919   0.976   5.732 -0.3087  0.0120  0.1568
27655SOL    HW194689   6.961   0.907   5.680  0.6692  0.7973 -0.1198
27655SOL    HW294690   6.916   0.940   5.821  2.1452  0.3868  0.4659
27656SOL     OW94691   1.864   5.050   0.383 -0.4709 -0.2601 -0.4111
27656SOL    HW194692   1.800   5.112   0.419 -0.1733  0.4475 -1.0702
27656SOL    HW294693   1.938   5.053   0.444  0.1696  1.1789 -1.2046
27657SOL     OW94694  11.518   1.786   9.619  0.0204 -0.3249 -0.2847
27657SOL    HW194695  11.477   1.748   9.542 -1.4241 -1.8164  1.1537
27657SOL    HW294696  11.448   1.793   9.683  1.1694  0.9226  0.9068
27658SOL     OW94697   5.606  11.362   0.457 -0.5873  0.9130 -0.4489
27658SOL    HW194698   5.692  11.357   0.416 -0.7706 -0.3428 -0.7329
27658SOL    HW294699   5.563  11.280   0.432 -1.3092  0.8450  0.9274
27659SOL     OW94700   1.186   1.490   3.569 -0.0622  0.5491 -0.1624
27659SOL    HW194701   1.220   1.488   3.658 -1.2287  1.3747  0.3278
27659SOL    HW294702   1.245   1.549   3.522 -0.4467  1.5222  0.5352
27660SOL     OW94703   1.365   3.551   3.959 -0.0304  0.0455 -0.0377
27660SOL    HW194704   1.370   3.492   4.034 -1.6513 -1.7203 -1.2102
27660SOL    HW294705   1.271   3.556   3.938  0.3196  0.9583 -1.5787
27661SOL     OW94706   6.995   6.044   7.899 -0.0214  0.0820 -0.1887
27661SOL    HW194707   7.090   6.052   7.888 -0.1627  0.4409 -1.2895
27661SOL    HW294708   6.965   6.131   7.922 -0.0698 -0.0673  0.3232
27662SOL     OW94709   3.913  10.079   3.164  0.3198 -0.2849 -0.1148
27662SOL    HW194710   3.950  10.153   3.115  1.8300 -0.1849  1.1100
27662SOL    HW294711   3.971  10.006   3.144 -0.8748 -1.0471 -0.9166
27663SOL     OW94712   7.562   7.744   0.968 -0.1054  0.2662  0.0079
27663SOL    HW194713   7.649   7.711   0.993 -0.2850 -1.6453 -1.6272
27663SOL    HW294714   7.562   7.835   0.997  1.8645 -0.1180  1.4352
27664SOL     OW94715  11.486   4.772   8.631 -0.2236  0.3087 -0.4317
27664SOL    HW194716  11.527   4.764   8.718 -2.5005 -0.9018  0.6056
27664SOL    HW294717  11.554   4.743   8.570  0.5091 -1.6596  1.1958
27665SOL     OW94718   8.470   1.875   7.124 -0.0121  0.4450 -0.3037
27665SOL    HW194719   8.499   1.785   7.108 -0.3490 -0.1478  2.0352
27665SOL    HW294720   8.374   1.869   7.127 -0.0920  1.1001 -1.1577
27666SOL     OW94721  10.959   1.964   1.391  0.2626  0.8893 -0.4681
27666SOL    HW194722  10.898   1.897   1.421 -0.3001  1.3276 -0.6196
27666SOL    HW294723  10.907   2.043   1.385  0.5590  1.0023 -1.8182
27667SOL     OW94724   8.372   8.767   2.682 -0.0337 -0.0554  0.0743
27667SOL    HW194725   8.426   8.827   2.630  0.4788 -0.1199  0.5208
27667SOL    HW294726   8.348   8.818   2.759  1.5210 -0.8124  1.1232
27668SOL     OW94727   0.382   4.398   4.674  0.1693  0.3884  0.4877
27668SOL    HW194728   0.382   4.367   4.584 -1.1737  1.6551  0.0033
27668SOL    HW294729   0.311   4.462   4.677 -0.0749  0.0929  2.5469
27669SOL     OW94730   4.074  10.803   4.412 -0.5059  0.6040  0.7791
27669SOL    HW194731   4.060  10.709   4.423 -0.6316  0.6334  0.8760
27669SOL    HW294732   4.065  10.839   4.501 -2.0716  0.9173  0.5143
27670SOL     OW94733   8.304   9.927  10.005 -0.4334 -0.6057  0.1312
27670SOL    HW194734   8.236   9.897  10.066  0.2961 -1.2633  0.6397
27670SOL    HW294735   8.274   9.898   9.919 -0.6396 -1.1887  0.3962
27671SOL     OW94736   2.775   5.237   0.416 -0.4225 -0.3028  0.0846
27671SOL    HW194737   2.754   5.306   0.479 -0.8931 -0.9577  0.6518
27671SOL    HW294738   2.712   5.167   0.434  1.3224 -1.7368  0.8836
27672SOL     OW94739   8.691   6.751   2.438 -0.0568  0.3308  0.4505
27672SOL    HW194740   8.637   6.728   2.514  1.8684 -3.1412  0.9531
27672SOL    HW294741   8.727   6.837   2.460  0.3790 -0.5133  3.5168
27673SOL     OW94742   5.318   6.973   2.206  0.6040  0.0402 -0.6972
27673SOL    HW194743   5.399   7.016   2.179  1.9250 -1.8016  0.1592
27673SOL    HW294744   5.313   6.895   2.151  1.0656 -1.4759  1.2986
27674SOL     OW94745   2.610   0.677   5.104 -0.2369  0.2119 -0.2113
27674SOL    HW194746   2.685   0.649   5.156 -0.2937 -0.1434 -0.3205
27674SOL    HW294747   2.564   0.739   5.161  0.4155  0.8374 -0.3390
27675SOL     OW94748   6.048  11.722   4.784 -0.0624  0.6554  0.5188
27675SOL    HW194749   5.983  11.755   4.722  1.4938  1.1804 -0.9304
27675SOL    HW294750   6.065  11.795   4.843 -1.2072  0.3042  1.3299
27676SOL     OW94751   4.966   2.953   0.200 -0.6869  0.4189 -0.3660
27676SOL    HW194752   5.001   2.908   0.124  1.0386  0.7338  0.1830
27676SOL    HW294753   5.002   3.042   0.193  0.1887  0.2286  1.1895
27677SOL     OW94754   0.717   4.132   0.081 -0.5144 -0.1430  0.1401
27677SOL    HW194755   0.665   4.061   0.042 -0.0563 -0.7065  0.5265
27677SOL    HW294756   0.653   4.197   0.109 -0.9109 -0.1925 -0.6470
27678SOL     OW94757   8.201   1.733   9.785 -0.3704 -0.0321  0.8151
27678SOL    HW194758   8.131   1.798   9.782 -1.5243 -1.2571 -1.3770
27678SOL    HW294759   8.204   1.696   9.696  0.4348 -2.7301  1.8523
27679SOL     OW94760   3.660   9.164   6.489 -0.1362 -0.7028 -0.0913
27679SOL    HW194761   3.569   9.176   6.461 -0.3295 -0.8378  0.4722
27679SOL    HW294762   3.709   9.159   6.407 -0.7959 -1.8524 -0.4434
27680SOL     OW94763   2.513   7.983   0.854  0.1552 -0.1297 -0.3351
27680SOL    HW194764   2.561   7.916   0.902  0.3334  0.1093 -0.1752
27680SOL    HW294765   2.422   7.969   0.878  0.1378 -0.6043 -0.6623
27681SOL     OW94766   2.383   9.949   9.887 -0.2053  0.3821  0.1589
27681SOL    HW194767   2.429   9.882   9.937 -1.2235 -0.1366  0.4232
27681SOL    HW294768   2.399   9.926   9.796  0.7303  0.6814  0.2457
27682SOL     OW94769   9.816   0.171   6.073 -0.1211 -0.1853 -0.3290
27682SOL    HW194770   9.853   0.256   6.097 -1.4059  0.3829 -0.2578
27682SOL    HW294771   9.790   0.181   5.982 -3.7373  0.8745  0.6359
27683SOL     OW94772   2.239   7.064  11.038  0.2786 -0.1500  0.3071
27683SOL    HW194773   2.279   6.992  11.086  1.1645 -0.2899 -0.6166
27683SOL    HW294774   2.190   7.021  10.968 -0.7775  0.0695  0.8751
27684SOL     OW94775   6.655   7.580  10.641  0.4254 -0.0339  0.0892
27684SOL    HW194776   6.661   7.669  10.677 -0.1832 -0.0944  0.3593
27684SOL    HW294777   6.718   7.579  10.568 -0.8091  1.1915 -1.0618
27685SOL     OW94778   9.020   5.627  10.008  0.2067 -0.5384 -0.0719
27685SOL    HW194779   8.927   5.633  10.026 -0.0530 -0.0040 -1.5231
27685SOL    HW294780   9.026   5.593   9.919  1.4123 -0.8387  0.0943
27686SOL     OW94781  10.322   0.202   6.256  0.1498 -0.5140  0.3705
27686SOL    HW194782  10.394   0.139   6.264  0.4123 -0.1012  1.3944
27686SOL    HW294783  10.243   0.149   6.268  0.1428 -1.2473 -2.2794
27687SOL     OW94784   4.737  10.264   9.255  0.0338 -0.1314 -0.4646
27687SOL    HW194785   4.764  10.182   9.213  0.6493 -0.2791  0.2047
27687SOL    HW294786   4.753  10.331   9.189  4.6865  0.2022  0.6685
27688SOL     OW94787   6.939   2.613   6.536  0.3964 -0.7029  0.2716
27688SOL    HW194788   7.027   2.624   6.573 -0.0156 -1.1127  1.4222
27688SOL    HW294789   6.886   2.583   6.610 -1.0352  0.9311 -0.0310
27689SOL     OW94790  10.701   9.817   9.673  0.1299 -0.0669  0.0466
27689SOL    HW194791  10.668   9.798   9.761 -0.7511  1.2504  0.0325
27689SOL    HW294792  10.625   9.853   9.627  1.0842  1.1284 -0.6328
27690SOL     OW94793   3.644   9.019  11.187 -0.5380 -0.2588 -0.0464
27690SOL    HW194794   3.703   8.973  11.127  1.0451  2.5044 -0.8323
27690SOL    HW294795   3.678   9.000  11.274  0.7229  0.1985 -0.4166
27691SOL     OW94796   8.922   3.049   9.506  0.1569  0.5988 -0.3121
27691SOL    HW194797   8.888   3.133   9.477 -2.8718 -0.5931 -0.6391
27691SOL    HW294798   8.879   2.984   9.450  1.8440 -1.2383  0.3646
27692SOL     OW94799   2.055   3.986   2.389  0.0032  0.5604  0.3889
27692SOL    HW194800   2.000   3.932   2.445  1.0740  1.0219  1.9555
27692SOL    HW294801   2.084   3.926   2.320 -1.1457 -0.0881  0.4371
27693SOL     OW94802   8.664   9.833   0.950  0.0906  0.5935 -0.4568
27693SOL    HW194803   8.730   9.898   0.975 -0.7135  0.9579  0.8238
27693SOL    HW294804   8.688   9.807   0.861  3.4431 -1.1030  0.7343
27694SOL     OW94805  10.969  10.047   7.644 -0.0476 -0.9148 -0.6085
27694SOL    HW194806  11.026   9.976   7.673 -0.8959 -1.7595 -0.9668
27694SOL    HW294807  10.883  10.006   7.634 -0.5775  0.1969 -0.6831
27695SOL     OW94808   6.980   2.524  10.666  0.0965  0.7077 -0.3196
27695SOL    HW194809   6.972   2.619  10.663 -0.2379  0.6608 -1.0030
27695SOL    HW294810   7.070   2.507  10.636 -0.0520  0.7798 -0.8213
27696SOL     OW94811   1.238   4.331   4.862 -0.2729  0.2552 -0.2232
27696SOL    HW194812   1.183   4.307   4.936 -3.1957  1.3016 -1.8556
27696SOL    HW294813   1.251   4.250   4.813  1.3567 -0.3641  1.1714
27697SOL     OW94814  11.890   3.867   7.411 -0.0174 -0.3065 -0.0137
27697SOL    HW194815  11.845   3.862   7.496  0.6565  1.1263  0.4668
27697SOL    HW294816  11.906   3.776   7.387 -0.0029 -0.7381  1.5232
27698SOL     OW94817   2.474  10.432   8.009  0.2909  0.1174 -0.1355
27698SOL    HW194818   2.564  10.457   7.990 -0.1494  0.7469 -1.5623
27698SOL    HW294819   2.467  10.342   7.978  0.5693 -0.1350  0.5136
27699SOL     OW94820   8.120   3.163  10.291 -0.0567  0.0025  0.4403
27699SOL    HW194821   8.206   3.193  10.261 -0.0534 -0.5140 -0.0896
27699SOL    HW294822   8.068   3.154  10.211 -0.2226 -0.8727  0.6278
27700SOL     OW94823   0.248   1.833  10.064 -0.3003  0.6586 -0.2019
27700SOL    HW194824   0.248   1.750  10.016 -0.7697  1.5410 -1.8153
27700SOL    HW294825   0.247   1.900   9.995 -1.1076  1.9941  1.0509
27701SOL     OW94826   4.076  10.586  10.928 -0.1813  0.1149 -0.7822
27701SOL    HW194827   4.096  10.496  10.901  1.8337  0.0469  0.7108
27701SOL    HW294828   4.005  10.576  10.991 -0.2424 -0.3923 -0.9226
27702SOL     OW94829  11.849  11.290   7.970 -0.2404 -0.9298  0.2983
27702SOL    HW194830  11.899  11.372   7.976  0.1165 -1.0628 -0.6336
27702SOL    HW294831  11.816  11.290   7.880 -0.0965 -1.8962  0.2448
27703SOL     OW94832  10.097   2.741   7.921 -0.2206  0.1733  0.1287
27703SOL    HW194833  10.153   2.687   7.865  1.4674  1.8393  0.0971
27703SOL    HW294834  10.062   2.808   7.863 -0.2433  0.6152  0.6468
27704SOL     OW94835   8.218   8.830  10.608  0.1217 -0.8613 -0.5203
27704SOL    HW194836   8.253   8.838  10.697  1.1826 -0.5632 -0.9511
27704SOL    HW294837   8.138   8.883  10.610 -0.5655 -1.8954  0.5958
27705SOL     OW94838   2.839   7.099  10.934 -0.3339  0.1384  0.5513
27705SOL    HW194839   2.853   7.007  10.955  0.8942  0.1663 -0.0303
27705SOL    HW294840   2.922   7.142  10.959 -0.7995  1.0432  0.5902
27706SOL     OW94841   3.822   8.193   3.855  0.4827 -0.0993  0.0181
27706SOL    HW194842   3.774   8.211   3.936  1.5443  0.8174  0.4524
27706SOL    HW294843   3.834   8.098   3.856  1.1834 -0.0250  1.3566
27707SOL     OW94844  10.059   1.579   4.222 -0.0508  0.0722 -0.6644
27707SOL    HW194845  10.012   1.654   4.258  0.7422 -0.2103  1.0730
27707SOL    HW294846  10.139   1.573   4.275  1.0092 -0.6290 -2.2541
27708SOL     OW94847   2.774   7.490   9.312 -0.2090  0.0006 -0.1280
27708SOL    HW194848   2.864   7.505   9.284 -0.1396 -0.0894  0.0501
27708SOL    HW294849   2.727   7.469   9.231 -0.0136 -0.2324 -0.1817
27709SOL     OW94850   7.547  10.856   9.299  0.0471  0.1066  0.1427
27709SOL    HW194851   7.576  10.814   9.218  1.0843 -0.1847  0.6439
27709SOL    HW294852   7.575  10.947   9.290 -0.5791  0.2739 -0.1697
27710SOL     OW94853   6.664   6.265   6.368  1.1610  0.4521  0.1722
27710SOL    HW194854   6.579   6.268   6.324  1.6598 -0.5977 -0.9298
27710SOL    HW294855   6.701   6.352   6.357  0.7507  0.5499 -0.4250
27711SOL     OW94856   0.684  11.464   1.530  0.1641  0.2774 -0.0779
27711SOL    HW194857   0.747  11.459   1.458 -0.9404 -0.1736 -1.0413
27711SOL    HW294858   0.682  11.557   1.554 -0.0235  0.5690 -1.1693
27712SOL     OW94859   5.544  11.219   7.340 -0.0176  0.3812  0.3231
27712SOL    HW194860   5.555  11.130   7.374  1.0490  0.1479 -0.5690
27712SOL    HW294861   5.599  11.273   7.397  0.4187  0.2455  0.0417
27713SOL     OW94862   5.902   7.355   2.648  0.1082  0.2442  0.3675
27713SOL    HW194863   5.993   7.381   2.633 -0.1118 -0.0130 -1.8947
27713SOL    HW294864   5.899   7.264   2.618 -1.3784  1.0186 -2.1655
27714SOL     OW94865   5.797   6.880   4.632 -0.3398 -0.6642  0.0808
27714SOL    HW194866   5.721   6.831   4.661 -3.4638  3.6193  0.1683
27714SOL    HW294867   5.841   6.908   4.713 -0.5579 -0.5124  0.1458
27715SOL     OW94868   5.307   9.085  11.383 -0.4968 -0.2108 -0.6588
27715SOL    HW194869   5.307   9.020  11.313 -0.7021 -0.9215 -0.0094
27715SOL    HW294870   5.348   9.162  11.344 -0.3956 -0.6732 -1.4866
27716SOL     OW94871   6.206   0.826   4.184  0.2836 -0.1457  0.5815
27716SOL    HW194872   6.226   0.824   4.278 -0.2031 -1.3908  0.6801
27716SOL    HW294873   6.111   0.842   4.181 -0.1291 -2.3013  0.4138
27717SOL     OW94874  11.705   5.800   5.535 -0.5742 -0.2087  0.1276
27717SOL    HW194875  11.787   5.786   5.583 -0.9261  0.9212  1.1170
27717SOL    HW294876  11.727   5.866   5.469 -0.5314 -0.3823 -0.0309
27718SOL     OW94877   9.416   5.003   7.747  0.3501 -0.0516 -0.4479
27718SOL    HW194878   9.379   5.091   7.751 -0.2153 -0.1118 -2.7455
27718SOL    HW294879   9.505   5.016   7.713  0.7690 -0.2774  0.5353
27719SOL     OW94880  10.222   0.883  10.078 -0.9228 -0.0279  0.0537
27719SOL    HW194881  10.306   0.929  10.079  0.0893 -1.7380 -0.7130
27719SOL    HW294882  10.202   0.867  10.170 -1.0365  1.4516  0.2985
27720SOL     OW94883   2.183   5.176   1.652 -0.5728 -0.2897 -0.4558
27720SOL    HW194884   2.192   5.080   1.653 -0.1042 -0.2549  0.4613
27720SOL    HW294885   2.252   5.206   1.593  0.4977 -0.4411  0.6739
27721SOL     OW94886  11.386   3.690   3.432  0.1264 -0.4167 -0.5029
27721SOL    HW194887  11.364   3.606   3.392  1.7758 -1.3795  0.4795
27721SOL    HW294888  11.322   3.699   3.503  0.6172 -1.4295  0.1017
27722SOL     OW94889   5.134  10.185   5.358  0.4465  0.4755  0.0740
27722SOL    HW194890   5.153  10.278   5.342  0.0005  0.5078 -0.2854
27722SOL    HW294891   5.211  10.153   5.405  1.7329  0.4539 -1.9273
27723SOL     OW94892   0.226   0.544  10.127 -0.0485  0.0040 -0.2055
27723SOL    HW194893   0.291   0.523  10.061 -0.4604 -1.2111 -0.2390
27723SOL    HW294894   0.142   0.521  10.087 -0.5304  1.6040 -0.1866
27724SOL     OW94895   0.886   1.336   0.873 -0.0101 -0.3016  0.3009
27724SOL    HW194896   0.924   1.391   0.805 -1.4892 -2.2626 -2.2789
27724SOL    HW294897   0.850   1.261   0.826 -3.4932 -0.5119  2.9435
27725SOL     OW94898   0.693   8.990   8.285  0.1990  0.6797  0.2423
27725SOL    HW194899   0.733   8.903   8.276 -0.0019  0.5928  0.1830
27725SOL    HW294900   0.710   9.015   8.376 -0.4228  0.2362  0.4907
27726SOL     OW94901   7.687   2.171   8.083  0.6244  0.9036 -0.1373
27726SOL    HW194902   7.673   2.112   8.009  1.2952  2.7807 -1.8519
27726SOL    HW294903   7.686   2.114   8.160  1.1520 -1.3216 -1.6843
27727SOL     OW94904   1.367   8.065   5.475 -0.0922 -0.2232  0.2627
27727SOL    HW194905   1.364   8.010   5.397  1.8672 -0.3032  0.1945
27727SOL    HW294906   1.283   8.110   5.476 -0.8044 -1.4438 -0.9781
27728SOL     OW94907   2.613   4.572   2.612  0.3352  0.2794 -0.3284
27728SOL    HW194908   2.530   4.607   2.579 -0.6526  0.5128  2.1808
27728SOL    HW294909   2.617   4.483   2.577 -0.8127  0.3940 -0.8022
27729SOL     OW94910   7.701   6.762   8.773  0.1997  0.1393  0.7632
27729SOL    HW194911   7.730   6.806   8.693  0.9429 -1.4197  0.1496
27729SOL    HW294912   7.608   6.784   8.780 -0.2921 -1.0037 -1.4109
27730SOL     OW94913  10.324   5.569   8.904  0.5078 -0.2980 -0.4464
27730SOL    HW194914  10.308   5.492   8.959 -2.4449  0.8816  0.5034
27730SOL    HW294915  10.419   5.584   8.912  0.5913 -1.6279  2.3817
27731SOL     OW94916   9.351   3.375   3.630  0.7248 -0.0597  0.0120
27731SOL    HW194917   9.315   3.423   3.556  0.7812  0.7281  0.4852
27731SOL    HW294918   9.442   3.357   3.606  0.4201 -0.8418 -0.5986
27732SOL     OW94919   5.275   1.318   8.972  0.3408 -0.1526 -0.1047
27732SOL    HW194920   5.338   1.389   8.985  0.2839 -0.1605  0.1995
27732SOL    HW294921   5.262   1.315   8.877  1.6314 -0.8644 -0.2809
27733SOL     OW94922   9.319  10.680   7.084 -0.3646  0.1157 -0.4308
27733SOL    HW194923   9.348  10.752   7.028  1.3282 -0.4274 -0.3011
27733SOL    HW294924   9.223  10.679   7.074 -0.2389  1.0113 -2.0910
27734SOL     OW94925  11.873   4.280   5.174  0.2591 -0.4108  0.4700
27734SOL    HW194926  11.802   4.256   5.115  1.4003 -0.6176 -0.8798
27734SOL    HW294927  11.843   4.359   5.219 -0.8228 -0.5279 -0.0416
27735SOL     OW94928   9.911   5.688  11.255  1.1009  0.0212  0.3119
27735SOL    HW194929   9.842   5.636  11.296  0.7041  0.2799 -0.0183
27735SOL    HW294930   9.901   5.775  11.293 -0.2048  0.6529 -1.3538
27736SOL     OW94931   3.465   7.703   3.606  0.0862 -0.1894 -0.3741
27736SOL    HW194932   3.398   7.678   3.542 -0.6354  0.9722 -0.0997
27736SOL    HW294933   3.417   7.718   3.687  0.8150 -0.2751  0.0906
27737SOL     OW94934   9.043   1.582   9.630  0.1913  0.0866  0.1691
27737SOL    HW194935   9.018   1.655   9.573  0.5375 -0.0816 -0.1986
27737SOL    HW294936   9.012   1.609   9.717 -0.5252  0.2536 -0.1263
27738SOL     OW94937   9.041   3.726   8.419 -0.6050  0.1123  0.1872
27738SOL    HW194938   9.012   3.636   8.434 -1.8638  0.4816  0.0598
27738SOL    HW294939   8.977   3.763   8.359  0.6327  0.7111 -0.8227
27739SOL     OW94940   2.696   0.056   2.449  0.3203 -0.8033 -0.3034
27739SOL    HW194941   2.743  -0.004   2.508  2.9894  0.9751 -0.3965
27739SOL    HW294942   2.631   0.001   2.405  1.4198 -3.2117  0.8584
27740SOL     OW94943   4.782   6.904   2.862 -0.9057  0.3488 -0.2449
27740SOL    HW194944   4.786   6.815   2.897 -1.6321 -0.1583 -1.3961
27740SOL    HW294945   4.864   6.914   2.812 -1.2398 -0.0107 -0.8714
27741SOL     OW94946   0.252   2.675   3.309  0.1302 -0.6706 -0.1833
27741SOL    HW194947   0.179   2.646   3.255 -0.3667  2.9142 -1.7597
27741SOL    HW294948   0.330   2.647   3.261 -0.3127  0.2811 -1.5349
27742SOL     OW94949   8.558   7.944   8.725  0.1755  0.0696 -0.0347
27742SOL    HW194950   8.511   7.897   8.656 -0.9033 -0.9619  1.3326
27742SOL    HW294951   8.626   7.882   8.753  0.5934  0.4761 -0.1338
27743SOL     OW94952  10.381   3.314  11.327  0.5458 -0.2157 -0.5243
27743SOL    HW194953  10.313   3.258  11.292 -0.3733  0.4011  0.2212
27743SOL    HW294954  10.350   3.403  11.311  1.0832  0.0779 -0.0074
27744SOL     OW94955   5.294   4.141   9.830 -0.0814  0.5946 -0.8984
27744SOL    HW194956   5.327   4.192   9.905 -0.7258  0.9086 -0.8180
27744SOL    HW294957   5.199   4.145   9.839 -0.1748  0.8505 -1.8766
27745SOL     OW94958  10.427   5.605   0.705  0.6545 -0.5830 -0.2004
27745SOL    HW194959  10.386   5.545   0.644 -0.2570 -0.3845  0.1829
27745SOL    HW294960  10.505   5.638   0.660 -0.0423 -0.3752 -1.2801
27746SOL     OW94961  10.060  11.685   8.591 -0.6113 -0.3461 -0.3032
27746SOL    HW194962  10.009  11.739   8.531 -1.2752  1.0114  1.3950
27746SOL    HW294963  10.003  11.674   8.667  0.9346 -0.2970  0.8996
27747SOL     OW94964   2.254   7.114  11.514  0.1790  0.2838 -0.3069
27747SOL    HW194965   2.249   7.021  11.490  4.0599  0.1159 -1.1100
27747SOL    HW294966   2.203   7.159  11.447  0.0477 -1.1150 -1.1917
27748SOL     OW94967   5.942   1.561   1.317 -0.8377 -0.1819  0.2514
27748SOL    HW194968   5.930   1.535   1.226 -1.2033 -0.6028  0.4166
27748SOL    HW294969   5.868   1.618   1.337  0.0658  1.1862 -0.1669
27749SOL     OW94970   5.961   1.089   0.400 -1.1379 -0.0853  0.1814
27749SOL    HW194971   5.981   1.044   0.482  1.7202 -0.4774 -0.6212
27749SOL    HW294972   5.868   1.111   0.407 -1.3104 -1.2481  2.9373
27750SOL     OW94973   6.202   8.496   5.187 -0.3748  0.0026 -0.3056
27750SOL    HW194974   6.145   8.439   5.238 -0.6551  1.1500  0.7409
27750SOL    HW294975   6.144   8.565   5.154  0.2843  0.9315  0.3876
27751SOL     OW94976   9.671  11.465  11.778  0.2328  0.2225 -0.6583
27751SOL    HW194977   9.686  11.448  11.871  0.5334 -0.1700 -0.7755
27751SOL    HW294978   9.743  11.420  11.734 -1.0142 -1.3269 -1.1989
27752SOL     OW94979   7.043   7.750   9.662 -0.0073  0.2470 -0.1243
27752SOL    HW194980   7.123   7.803   9.655  0.6054 -0.8481 -2.4555
27752SOL    HW294981   6.990   7.778   9.587 -1.4493  0.3267  0.9001
27753SOL     OW94982  11.654   5.769   1.839  1.0026 -0.3251  0.1076
27753SOL    HW194983  11.570   5.725   1.853  1.5239 -1.7074 -0.9139
27753SOL    HW294984  11.635   5.837   1.775 -0.0387  1.7589  2.4960
27754SOL     OW94985   3.590   9.920   5.959  0.8381 -0.2392  0.0889
27754SOL    HW194986   3.652   9.909   6.032 -1.8399  3.4276  3.2996
27754SOL    HW294987   3.513   9.870   5.985  0.4325 -0.2419 -1.0778
27755SOL     OW94988   6.218   9.290   0.235  0.4166  0.1244  0.0894
27755SOL    HW194989   6.196   9.235   0.310 -1.2201 -1.3436 -1.3691
27755SOL    HW294990   6.313   9.300   0.240  0.7605 -2.5941  0.6419
27756SOL     OW94991   0.692   6.301   7.240  0.1020  0.2194 -0.2356
27756SOL    HW194992   0.612   6.257   7.270  1.9517 -4.2912 -1.0220
27756SOL    HW294993   0.665   6.351   7.163 -1.8358 -2.5226 -1.5221
27757SOL     OW94994   1.934   5.117  11.390 -0.4431  0.1928  0.1435
27757SOL    HW194995   1.845   5.111  11.426 -0.2176 -1.8063  0.4564
27757SOL    HW294996   1.921   5.134  11.297 -1.1005  1.2916  0.4122
27758SOL     OW94997   6.618   2.561   4.719 -0.0371  0.0777 -0.0676
27758SOL    HW194998   6.658   2.475   4.723 -1.2022 -0.4331  1.3936
27758SOL    HW294999   6.584   2.568   4.630  1.2076 -0.4157 -0.6004
27759SOL     OW95000  11.778  11.204   3.850  0.6559 -0.7397 -0.0280
27759SOL    HW195001  11.704  11.143   3.856  0.4712 -0.4492  0.7736
27759SOL    HW295002  11.829  11.188   3.930  0.9603 -0.2999 -0.1299
27760SOL     OW95003   2.812   2.984   7.711 -0.0640  0.3182  0.0567
27760SOL    HW195004   2.797   3.052   7.645 -3.1801 -0.2851 -0.0219
27760SOL    HW295005   2.886   3.017   7.763  2.4433  0.9075 -3.5067
27761SOL     OW95006   9.091   6.883   8.776 -0.3886  0.3526  0.0605
27761SOL    HW195007   8.998   6.888   8.800  0.1281 -1.4206  2.9431
27761SOL    HW295008   9.132   6.953   8.826 -0.0100  0.3654 -0.2652
27762SOL     OW95009   5.550   4.460   0.403 -0.0475 -0.3747 -0.6331
27762SOL    HW195010   5.526   4.522   0.334 -0.4637 -0.5186 -0.6164
27762SOL    HW295011   5.646   4.452   0.396  0.2647  1.6490  0.5150
27763SOL     OW95012   9.253   3.119   1.121  0.6691 -0.1961 -0.3288
27763SOL    HW195013   9.217   3.207   1.128  2.9234  0.6964  1.4006
27763SOL    HW295014   9.237   3.093   1.031  0.3335  2.1524 -0.9996
27764SOL     OW95015   2.393   2.262   8.414 -0.3428 -0.4904 -0.7057
27764SOL    HW195016   2.446   2.202   8.361 -0.0114 -2.0575  1.2607
27764SOL    HW295017   2.346   2.204   8.475 -0.0366  1.2102  1.2618
27765SOL     OW95018   0.376   9.971   7.383  0.0625 -0.5152 -0.2432
27765SOL    HW195019   0.411  10.045   7.333  3.1095 -0.9349  1.0846
27765SOL    HW295020   0.286   9.962   7.353 -0.3293  3.4852 -0.7538
27766SOL     OW95021   3.866  11.607   7.925 -0.3204  0.0441  0.7938
27766SOL    HW195022   3.925  11.545   7.882  0.1576  0.1233  1.3279
27766SOL    HW295023   3.901  11.693   7.905 -0.4436  0.1068  0.8447
27767SOL     OW95024   9.625   1.424   6.158 -0.1587  0.0343 -0.2063
27767SOL    HW195025   9.633   1.511   6.196 -2.5373 -0.3610  1.4286
27767SOL    HW295026   9.635   1.438   6.063 -0.0609  1.9900  0.0567
27768SOL     OW95027   7.670   2.026   7.116 -0.2318 -0.6639 -0.0350
27768SOL    HW195028   7.600   2.019   7.180 -1.7577 -1.8114 -1.7213
27768SOL    HW295029   7.650   2.104   7.066  0.0549 -0.6477 -0.1284
27769SOL     OW95030   4.591   1.639   4.797 -0.1737  0.6852  0.2354
27769SOL    HW195031   4.633   1.617   4.880 -1.3427 -1.2580  0.3620
27769SOL    HW295032   4.510   1.684   4.822  0.2943  1.6638  0.0650
27770SOL     OW95033   8.226   1.244   2.635  0.0922 -0.2723 -0.4388
27770SOL    HW195034   8.147   1.204   2.600 -0.3338  0.8320 -0.7727
27770SOL    HW295035   8.298   1.204   2.586 -0.3380 -0.4472 -0.9295
27771SOL     OW95036   4.352   8.449   4.187  0.5348 -0.5246  0.0719
27771SOL    HW195037   4.337   8.533   4.229 -0.7943 -0.9364  0.4878
27771SOL    HW295038   4.424   8.409   4.236  0.4902 -0.0507  0.5249
27772SOL     OW95039   3.852   4.222  10.896 -0.0565  0.1549  0.5983
27772SOL    HW195040   3.877   4.284  10.964 -0.5652  0.6927  0.3018
27772SOL    HW295041   3.792   4.161  10.940  0.0295  0.1871  0.7602
27773SOL     OW95042   8.759  11.424   0.112 -0.2807 -0.1720 -0.2420
27773SOL    HW195043   8.829  11.365   0.081 -0.3127  0.8659 -2.4880
27773SOL    HW295044   8.680  11.391   0.068 -1.2107 -1.1029  1.9825
27774SOL     OW95045  10.493   2.238  10.730  0.1368  0.0151  0.2859
27774SOL    HW195046  10.551   2.181  10.679 -1.0049 -0.0421 -0.9993
27774SOL    HW295047  10.551   2.308  10.763  2.1305 -3.0127  4.0043
27775SOL     OW95048   1.054   0.336   1.570 -0.2058  0.0306 -0.0593
27775SOL    HW195049   1.004   0.285   1.633 -1.3734  0.3289 -0.7179
27775SOL    HW295050   0.994   0.406   1.543  0.6959  0.6106 -0.6050
27776SOL     OW95051   2.388   5.988   8.674  0.4228  0.3663 -0.2356
27776SOL    HW195052   2.422   5.908   8.634 -0.3001  0.2676 -0.6723
27776SOL    HW295053   2.463   6.025   8.721  0.6682 -0.7810  0.3327
27777SOL     OW95054  10.144  10.236   8.692 -0.3921 -0.3996  0.1300
27777SOL    HW195055  10.131  10.265   8.602  0.1716 -1.9912 -0.5013
27777SOL    HW295056  10.137  10.140   8.688 -2.5569 -0.4103  2.1648
27778SOL     OW95057   8.610   8.829   8.706  0.1254  0.4856  0.1591
27778SOL    HW195058   8.706   8.830   8.706  0.1330  0.1324  0.8049
27778SOL    HW295059   8.587   8.737   8.715 -0.3152  0.0827 -3.6194
27779SOL     OW95060   0.566   3.116   1.087  0.7031  0.0478  0.5951
27779SOL    HW195061   0.598   3.182   1.149  0.4494  0.9849 -0.2428
27779SOL    HW295062   0.491   3.076   1.131  0.4672  0.7647  0.8618
27780SOL     OW95063   4.619   9.486   9.181  0.5636 -0.0462 -0.0501
27780SOL    HW195064   4.595   9.417   9.242  2.4503 -1.0432 -0.3705
27780SOL    HW295065   4.563   9.472   9.104  0.2170 -0.5627  0.2954
27781SOL     OW95066   3.131   6.929   9.779  0.5699  0.4537 -0.2699
27781SOL    HW195067   3.088   6.853   9.819 -1.6807  1.8594  0.1795
27781SOL    HW295068   3.215   6.896   9.749 -0.1623 -2.1164  0.2547
27782SOL     OW95069   5.853   5.558   8.185  0.0645  0.3639  0.0595
27782SOL    HW195070   5.825   5.633   8.132 -0.9546  0.9225  1.3307
27782SOL    HW295071   5.932   5.588   8.230 -0.1891  0.5878  0.3590
27783SOL     OW95072   8.429   3.638   1.897  0.4539  0.1405 -0.3484
27783SOL    HW195073   8.371   3.695   1.947  1.2939  0.5899  0.1319
27783SOL    HW295074   8.509   3.635   1.949  0.6122 -1.0533 -0.6367
27784SOL     OW95075   0.717   4.822   1.053  0.0882  0.5822 -0.0167
27784SOL    HW195076   0.710   4.859   1.141  1.4078 -0.0868  0.3931
27784SOL    HW295077   0.756   4.892   1.001  0.7543  0.4466  0.2973
27785SOL     OW95078   4.245   3.038   5.137  0.3095 -0.4419  0.0488
27785SOL    HW195079   4.167   3.092   5.126  0.7868  0.1664 -0.4261
27785SOL    HW295080   4.227   2.985   5.214  0.0326  0.7537  0.8281
27786SOL     OW95081   7.215   4.104   8.407  0.1461  0.5643  0.3869
27786SOL    HW195082   7.136   4.155   8.420  0.7420  1.5140  0.4140
27786SOL    HW295083   7.212   4.037   8.476 -0.4164  0.8626  0.6551
27787SOL     OW95084   4.690  11.550   8.410  0.0919 -0.4264 -0.3816
27787SOL    HW195085   4.728  11.504   8.335  2.5232 -0.5233  0.8193
27787SOL    HW295086   4.596  11.544   8.397  0.4339 -1.1453 -2.9877
27788SOL     OW95087   9.651   9.484   7.375  0.0501  0.0481 -0.4122
27788SOL    HW195088   9.668   9.558   7.433 -0.2168 -1.2154  1.3669
27788SOL    HW295089   9.565   9.503   7.338 -0.6452  0.0299  1.0938
27789SOL     OW95090   1.300   4.679   3.471 -0.1296  0.5016 -0.1816
27789SOL    HW195091   1.300   4.750   3.535 -0.7538  0.0201  0.3679
27789SOL    HW295092   1.387   4.640   3.478 -0.0851  0.6567  0.1447
27790SOL     OW95093  10.874   3.721   9.766 -0.2250  0.0914 -0.4446
27790SOL    HW195094  10.793   3.751   9.808  1.2247  1.2651  1.6954
27790SOL    HW295095  10.861   3.627   9.754 -0.7225 -0.3654  2.8353
27791SOL     OW95096   3.376   6.562   3.237  0.4348  0.6864  0.2743
27791SOL    HW195097   3.371   6.657   3.246  0.8814  0.7088  0.3072
27791SOL    HW295098   3.458   6.538   3.280 -0.0960  0.1923  1.0481
27792SOL     OW95099   3.765   7.586   7.284  0.5616  0.2214 -0.2028
27792SOL    HW195100   3.704   7.561   7.353  0.5748 -0.1112 -0.3090
27792SOL    HW295101   3.782   7.679   7.299  0.2922  0.2333  0.0299
27793SOL     OW95102   3.915  10.442   3.628 -0.1488 -0.1512  0.7359
27793SOL    HW195103   3.929  10.363   3.576 -0.5640  0.2316  0.0348
27793SOL    HW295104   3.849  10.417   3.692  0.2086 -0.5611  0.9541
27794SOL     OW95105   5.945   7.937   6.146  0.3697 -0.1555  0.1368
27794SOL    HW195106   5.882   7.870   6.171 -2.0666  1.7583 -0.4406
27794SOL    HW295107   6.003   7.946   6.221 -0.7765 -1.2032  1.1746
27795SOL     OW95108   6.200   4.652   5.398  0.4497  0.0669  0.2373
27795SOL    HW195109   6.131   4.634   5.335 -0.5244 -0.6296  1.4540
27795SOL    HW295110   6.221   4.567   5.436  0.6290  0.5289  1.2241
27796SOL     OW95111   1.344   4.280   1.160  0.1299 -0.4660 -0.3848
27796SOL    HW195112   1.397   4.213   1.116  0.9508 -0.3899  0.4573
27796SOL    HW295113   1.408   4.343   1.194 -0.6022  0.5532 -0.8227
27797SOL     OW95114   4.222   5.565   5.530 -0.1135 -0.3483  0.1408
27797SOL    HW195115   4.156   5.555   5.461  0.2807  0.5377 -0.3878
27797SOL    HW295116   4.194   5.644   5.577  0.2448 -0.3071  0.2826
27798SOL     OW95117   6.698   9.053   8.612  0.1483  0.2327  0.0017
27798SOL    HW195118   6.708   8.989   8.541  1.8485  0.5721 -0.1157
27798SOL    HW295119   6.751   9.128   8.584 -1.0931  1.3436  0.5498
27799SOL     OW95120   7.624   2.305   7.091  0.8749  0.3089  0.0753
27799SOL    HW195121   7.546   2.347   7.056 -0.1327 -0.7071  1.0123
27799SOL    HW295122   7.678   2.377   7.124  0.4440  1.0330 -0.7849
27800SOL     OW95123   4.533  10.103  11.446 -0.1558 -0.1342 -0.1498
27800SOL    HW195124   4.489  10.180  11.409  0.1398 -0.5916 -1.5251
27800SOL    HW295125   4.552  10.127  11.536 -2.1837  0.4981  0.1499
27801SOL     OW95126   0.836   2.355   0.877 -0.1275  0.1447  0.3989
27801SOL    HW195127   0.854   2.435   0.926 -1.0528  1.1312 -0.7957
27801SOL    HW295128   0.745   2.335   0.896 -0.5425  0.6153 -0.9516
27802SOL     OW95129   9.001   8.432  11.270 -0.2829 -0.3446  0.0597
27802SOL    HW195130   9.049   8.407  11.191  2.8318  2.1068  0.9336
27802SOL    HW295131   9.061   8.410  11.341 -1.8086  0.0885  1.5300
27803SOL     OW95132   2.970  10.295   1.021  0.0261  0.2210  0.1480
27803SOL    HW195133   2.946  10.302   1.114 -0.5786 -3.1543  0.3547
27803SOL    HW295134   3.055  10.339   1.016 -0.6261  1.8762  1.9111
27804SOL     OW95135   8.221   9.532   9.898  0.7902  0.1196  0.2451
27804SOL    HW195136   8.238   9.440   9.879  3.2382  0.1987  1.6740
27804SOL    HW295137   8.176   9.531   9.983  3.5445  0.2545  1.8092
27805SOL     OW95138   2.233   3.249   0.844 -0.1738 -0.1277  0.4313
27805SOL    HW195139   2.261   3.158   0.843 -0.6860 -0.3071 -1.2920
27805SOL    HW295140   2.184   3.260   0.763  0.4510  1.8552  0.2605
27806SOL     OW95141   0.148   6.531   7.501  0.4858 -0.2491 -0.6056
27806SOL    HW195142   0.066   6.580   7.510  0.3793 -0.6872  1.2075
27806SOL    HW295143   0.151   6.506   7.409 -0.6759  1.0323 -1.0247
27807SOL     OW95144   3.040   2.168   2.514 -0.0394 -0.5277  0.2837
27807SOL    HW195145   3.058   2.087   2.561  0.2658 -1.5235 -1.4450
27807SOL    HW295146   3.066   2.237   2.574  1.7244 -1.7485  1.0216
27808SOL     OW95147   1.610  10.313   5.804  0.1728  0.0236  0.1489
27808SOL    HW195148   1.517  10.305   5.823  0.2106  1.6037  1.1243
27808SOL    HW295149   1.647  10.229   5.831 -0.8950 -0.4754  0.1076
27809SOL     OW95150   8.718   4.493   7.527  0.0985 -0.4512  0.4256
27809SOL    HW195151   8.740   4.417   7.580 -1.3664 -0.6783  0.7534
27809SOL    HW295152   8.719   4.461   7.437 -2.4997 -1.4749  0.6561
27810SOL     OW95153  11.121   3.388   4.366  0.1042 -0.1751 -0.0078
27810SOL    HW195154  11.212   3.366   4.383  0.1970  2.0563  3.4183
27810SOL    HW295155  11.121   3.482   4.347 -1.4882 -0.0631  0.3722
27811SOL     OW95156   0.599  10.129  10.042  0.0111 -0.7794  0.1620
27811SOL    HW195157   0.626  10.221  10.040 -0.4065 -0.6096  1.3979
27811SOL    HW295158   0.591  10.104   9.950  0.8792  0.1929 -0.2014
27812SOL     OW95159   2.781   5.402   4.912 -0.0966  0.0618 -0.1188
27812SOL    HW195160   2.720   5.469   4.882 -1.3065  0.8637  3.5415
27812SOL    HW295161   2.725   5.329   4.939  0.7985 -0.4404  0.4541
27813SOL     OW95162   6.531   6.043   4.227 -0.0960 -0.3276  0.3022
27813SOL    HW195163   6.568   6.059   4.140  1.6512 -1.1671  0.8313
27813SOL    HW295164   6.439   6.026   4.211 -0.1367  1.0512 -1.2046
27814SOL     OW95165   7.333   6.276   5.722  0.0951 -0.4708 -0.3366
27814SOL    HW195166   7.328   6.281   5.818 -0.5003 -0.1077 -0.3787
27814SOL    HW295167   7.333   6.367   5.693 -0.3754 -0.5824 -0.7023
27815SOL     OW95168  11.061   8.398   5.704  0.3972 -0.0729 -0.1429
27815SOL    HW195169  11.032   8.308   5.685  1.3964 -0.0859 -1.7915
27815SOL    HW295170  11.156   8.391   5.710  0.3764  0.5944  1.5667
27816SOL     OW95171   4.678   0.719   7.532 -0.0393  0.9699 -0.7552
27816SOL    HW195172   4.695   0.791   7.592  2.6115 -0.6365  0.5753
27816SOL    HW295173   4.701   0.754   7.446  1.1938  1.7551 -0.1422
27817SOL     OW95174   1.930   8.605   5.298  0.3509  0.1825  0.2252
27817SOL    HW195175   1.968   8.670   5.357 -0.7645  2.1184 -1.0943
27817SOL    HW295176   2.005   8.553   5.269  1.1580  0.3146  1.9233
27818SOL     OW95177   6.622   8.034   6.060  0.1760 -0.6708  0.8432
27818SOL    HW195178   6.714   8.036   6.034  0.8485  0.2423  3.0476
27818SOL    HW295179   6.602   7.941   6.071 -0.3335 -1.1959 -3.0960
27819SOL     OW95180   7.746   0.818   2.029 -0.2201  0.2682  0.0328
27819SOL    HW195181   7.840   0.806   2.036 -0.0988  1.8103  1.8836
27819SOL    HW295182   7.735   0.910   2.006 -1.2753  0.4965  1.3519
27820SOL     OW95183   4.531   6.713  11.200  0.3292 -0.2677  0.2879
27820SOL    HW195184   4.478   6.754  11.268  0.9711  2.1499 -0.5542
27820SOL    HW295185   4.606   6.676  11.247  0.6743  1.2195  0.9783
27821SOL     OW95186   3.942   0.290   6.562 -0.0517 -0.1620 -0.0199
27821SOL    HW195187   3.934   0.316   6.653  2.2746 -1.0729  0.5083
27821SOL    HW295188   3.852   0.271   6.535 -0.6379 -1.8699  2.7077
27822SOL     OW95189   9.079   0.334   6.384 -0.2551  0.0651 -0.2419
27822SOL    HW195190   9.014   0.347   6.453  0.5571 -1.3330  0.8506
27822SOL    HW295191   9.163   0.334   6.430  0.2695 -1.4275 -1.1069
27823SOL     OW95192   8.649   0.811  10.545 -0.3894 -0.1208  0.3747
27823SOL    HW195193   8.656   0.906  10.556 -1.2347 -0.0150  0.0710
27823SOL    HW295194   8.571   0.786  10.595  0.3836 -0.8139  1.2838
27824SOL     OW95195  11.654  11.019   5.156 -0.3674 -0.2714  0.0347
27824SOL    HW195196  11.703  11.052   5.081 -0.0149 -1.3872 -0.2288
27824SOL    HW295197  11.665  11.087   5.223  1.4435 -0.4509 -0.0471
27825SOL     OW95198   5.240   7.786  10.425  0.1783 -0.3306 -0.3465
27825SOL    HW195199   5.248   7.838  10.505 -1.5019  0.3259 -0.5508
27825SOL    HW295200   5.312   7.724  10.428  0.3479 -0.0767  1.4956
27826SOL     OW95201   7.978   6.491   1.034 -0.5013  0.3568 -0.5442
27826SOL    HW195202   7.982   6.479   0.939 -1.5748 -0.6986 -0.4876
27826SOL    HW295203   8.046   6.433   1.068  2.3422  3.3012 -0.7548
27827SOL     OW95204   4.577  10.051   6.814  0.0207  0.5439  0.1535
27827SOL    HW195205   4.532  10.017   6.892  0.1094 -0.4784 -0.2285
27827SOL    HW295206   4.667  10.021   6.823 -0.6411 -2.5962 -1.9577
27828SOL     OW95207  10.728   6.312   8.825 -0.0157 -0.6562 -0.3605
27828SOL    HW195208  10.661   6.308   8.758 -0.0765  2.7338 -0.6676
27828SOL    HW295209  10.807   6.340   8.779  0.4665 -0.2794  0.6574
27829SOL     OW95210  10.166  11.558   0.767 -0.2655 -0.1687  0.4990
27829SOL    HW195211  10.240  11.500   0.751  0.7236  0.9586  0.8807
27829SOL    HW295212  10.127  11.525   0.848 -0.5072 -1.0528  0.0478
27830SOL     OW95213   3.948   5.811  11.754 -0.3477 -0.0279  0.3435
27830SOL    HW195214   3.952   5.716  11.757 -0.7308 -0.0394  0.4494
27830SOL    HW295215   3.863   5.831  11.716 -0.1288  0.2687 -0.0041
27831SOL     OW95216  10.259   9.863   8.274 -0.4621 -0.3216  0.3281
27831SOL    HW195217  10.224   9.820   8.352 -4.5063  1.9973  0.0807
27831SOL    HW295218  10.291   9.948   8.306  0.5773 -0.5040 -0.1844
27832SOL     OW95219  11.526   1.765  10.730  0.1967 -0.0472  0.1664
27832SOL    HW195220  11.474   1.712  10.669  0.7240 -0.8683  0.4063
27832SOL    HW295221  11.616   1.759  10.695  0.7093 -1.4611  1.6006
27833SOL     OW95222   3.384   7.418   5.051 -0.2903 -0.3079 -0.2356
27833SOL    HW195223   3.439   7.423   4.974 -0.2981 -0.9867 -0.2914
27833SOL    HW295224   3.416   7.488   5.109  0.5014 -0.5817 -0.3413
27834SOL     OW95225   6.766   4.559   5.155  0.3254  0.1476  0.1171
27834SOL    HW195226   6.859   4.562   5.177  0.2365 -1.9732  1.0430
27834SOL    HW295227   6.763   4.529   5.064  0.5471  2.2651 -0.6335
27835SOL     OW95228   9.114   5.260   9.923  0.4807 -0.0694  0.6379
27835SOL    HW195229   9.020   5.278   9.911  0.5943  0.7920  0.9624
27835SOL    HW295230   9.116   5.176   9.970 -0.0433 -1.6567 -1.9706
27836SOL     OW95231   9.867  11.819  10.240 -0.1684 -0.3159  0.2345
27836SOL    HW195232   9.896  11.910  10.244 -2.1610  0.3701 -0.1581
27836SOL    HW295233   9.923  11.779  10.174 -1.5330  1.5537 -2.1848
27837SOL     OW95234   1.982   7.712  11.523 -0.3292 -0.4112  0.6851
27837SOL    HW195235   1.939   7.796  11.541  0.8461  0.6442 -1.0832
27837SOL    HW295236   2.012   7.681  11.608  1.6428  2.3915  1.1559
27838SOL     OW95237   2.682   7.319   6.584 -0.3882 -0.6604 -0.3519
27838SOL    HW195238   2.668   7.254   6.652 -0.0413 -0.2371  0.1261
27838SOL    HW295239   2.605   7.376   6.588  0.6316  0.6805  1.1738
27839SOL     OW95240   6.495   8.190   6.294 -0.1343 -0.0365  0.3918
27839SOL    HW195241   6.571   8.204   6.237  0.2810 -1.2583  0.6202
27839SOL    HW295242   6.437   8.133   6.242 -0.1446 -0.4456  0.8448
27840SOL     OW95243   6.489   5.594   7.089  0.0533 -0.0345 -0.2453
27840SOL    HW195244   6.542   5.557   7.018  0.8486 -0.1286  0.3836
27840SOL    HW295245   6.467   5.518   7.144 -2.3160 -0.3059 -1.4673
27841SOL     OW95246   9.374   0.853   4.789 -0.4528  0.2092  0.1465
27841SOL    HW195247   9.444   0.911   4.818 -1.8121  0.7811  2.6588
27841SOL    HW295248   9.351   0.803   4.868 -1.8354 -1.0446 -0.9968
27842SOL     OW95249   4.671   0.734   7.042 -0.2901  0.0601 -0.0485
27842SOL    HW195250   4.719   0.807   7.081 -0.0866 -0.4195  0.6180
27842SOL    HW295251   4.649   0.764   6.953 -0.1597  0.9020  0.1939
27843SOL     OW95252   0.229   2.302   9.187  0.5860  0.2980  0.4078
27843SOL    HW195253   0.147   2.255   9.203 -0.2749  0.1725 -3.4965
27843SOL    HW295254   0.277   2.247   9.125  2.2570  1.7971  0.2921
27844SOL     OW95255   7.667   6.436   2.029  0.4215 -0.2898 -0.0640
27844SOL    HW195256   7.656   6.346   2.058  0.5845 -0.0256  0.8442
27844SOL    HW295257   7.579   6.465   2.006 -0.1088  0.2008  2.3370
27845SOL     OW95258   1.200   0.064   1.894  0.3052  0.0648  0.3614
27845SOL    HW195259   1.192  -0.024   1.857  1.0107 -0.0653  0.5062
27845SOL    HW295260   1.249   0.052   1.975 -1.7763  0.2527  1.7246
27846SOL     OW95261   1.787   9.107   8.870  0.4745 -0.1581  0.4801
27846SOL    HW195262   1.810   9.015   8.869  1.0040 -0.0300  0.4498
27846SOL    HW295263   1.866   9.152   8.839  0.0494  0.2663 -0.0044
27847SOL     OW95264   9.616   2.867   9.457 -0.2031 -0.4575 -0.3205
27847SOL    HW195265   9.554   2.828   9.396 -0.0970  0.0599 -0.7704
27847SOL    HW295266   9.583   2.956   9.471 -0.5478 -0.7517  0.8280
27848SOL     OW95267  10.598   9.798  10.021  0.7584  0.3477  0.3660
27848SOL    HW195268  10.687   9.778  10.048  0.4590  0.4152  1.4669
27848SOL    HW295269  10.555   9.828  10.102 -0.3654 -0.0781 -0.0609
27849SOL     OW95270   1.857  10.457   2.917 -0.1828 -0.3559  0.4311
27849SOL    HW195271   1.767  10.452   2.949 -0.2857  0.4218  0.2759
27849SOL    HW295272   1.850  10.500   2.832  0.3655 -0.0362  0.5443
27850SOL     OW95273   8.340   2.091  10.358 -0.1548  0.9221  0.4479
27850SOL    HW195274   8.339   2.183  10.382 -1.6393  1.1346 -0.3198
27850SOL    HW295275   8.249   2.062  10.367  0.1711 -0.3041  0.0758
27851SOL     OW95276   4.763   5.887   9.469  0.1596  0.3397  0.2910
27851SOL    HW195277   4.828   5.847   9.411  0.0495  0.9489 -0.2636
27851SOL    HW295278   4.766   5.834   9.548 -0.1776 -0.9434 -0.5189
27852SOL     OW95279   6.219   7.914   5.509 -0.1359  0.2804 -0.1283
27852SOL    HW195280   6.262   7.887   5.428  3.0272  0.3665  1.3695
27852SOL    HW295281   6.229   7.838   5.567 -0.8343  0.8160  0.7088
27853SOL     OW95282   2.692   2.232  11.342 -0.3839 -0.1995  0.3711
27853SOL    HW195283   2.765   2.171  11.354 -1.3502 -1.0867  2.0379
27853SOL    HW295284   2.615   2.183  11.371 -1.0757  2.0756  2.7862
27854SOL     OW95285   8.646   3.490   5.536 -0.3147  0.5370 -0.2436
27854SOL    HW195286   8.624   3.485   5.629  2.7302 -0.0570  0.5442
27854SOL    HW295287   8.692   3.574   5.527  2.0798 -0.7236 -0.4859
27855SOL     OW95288   2.356   1.416   3.588  0.4316 -0.1766 -0.1281
27855SOL    HW195289   2.422   1.484   3.576  1.2512 -0.9986 -0.4258
27855SOL    HW295290   2.333   1.388   3.499 -1.9307  1.5530 -0.1493
27856SOL     OW95291   0.283   3.919   7.726  0.3931  0.4993 -0.2410
27856SOL    HW195292   0.290   3.974   7.647  0.6977 -0.3110 -0.7941
27856SOL    HW295293   0.301   3.831   7.695  1.0329  0.2308  0.8355
27857SOL     OW95294   3.136   7.382  10.279 -0.1380  0.0687  0.1879
27857SOL    HW195295   3.189   7.315  10.323 -0.6280 -0.4626 -0.0261
27857SOL    HW295296   3.086   7.422  10.350  0.1694  0.2251  0.3194
27858SOL     OW95297   8.654   1.032   0.915 -1.1168  0.1374  0.6795
27858SOL    HW195298   8.567   0.991   0.911 -0.7753 -0.6346  0.9703
27858SOL    HW295299   8.696   1.006   0.833 -1.0723  0.3248  0.6416
27859SOL     OW95300   8.746   3.429   2.138  1.1579 -0.1098  0.0989
27859SOL    HW195301   8.812   3.448   2.204  0.9284  1.1097 -0.0069
27859SOL    HW295302   8.705   3.513   2.119 -1.0632 -0.9407  0.8291
27860SOL     OW95303   5.355  10.555   2.680  0.4291  0.4346  0.2581
27860SOL    HW195304   5.327  10.606   2.756 -0.9756  0.6226 -0.3367
27860SOL    HW295305   5.324  10.466   2.698 -2.4113  1.0011 -1.2092
27861SOL     OW95306  11.495   5.599   0.200  0.4941  0.3094 -0.1728
27861SOL    HW195307  11.460   5.510   0.192  1.5203 -0.2386  0.9758
27861SOL    HW295308  11.521   5.623   0.112 -1.8863  0.3967 -0.9187
27862SOL     OW95309   0.649   0.324  10.985  0.6471 -0.5061 -0.2404
27862SOL    HW195310   0.611   0.359  10.904 -1.9866 -0.1326  1.0816
27862SOL    HW295311   0.713   0.391  11.011  0.5958 -0.0095 -1.3118
27863SOL     OW95312   3.275   6.202  10.073  0.4652  0.0471  0.3404
27863SOL    HW195313   3.205   6.213  10.008  0.9103  2.0101  0.1148
27863SOL    HW295314   3.355   6.196  10.021  0.7139  0.4496  0.6739
27864SOL     OW95315   6.952   6.883   0.321  0.5309  0.5678  0.3491
27864SOL    HW195316   6.932   6.912   0.232  0.3306  0.9029  0.5031
27864SOL    HW295317   7.047   6.893   0.329  0.4456  1.3275  0.4506
27865SOL     OW95318   0.646   3.021   7.692 -0.7669 -0.9414 -0.2245
27865SOL    HW195319   0.577   2.954   7.689 -1.1527 -0.5388 -0.3968
27865SOL    HW295320   0.723   2.976   7.657 -0.1762 -2.2618  2.4755
27866SOL     OW95321   9.065   2.545   1.085  0.3273  0.2926 -0.4680
27866SOL    HW195322   8.996   2.544   1.019 -1.3784 -0.7990  1.2149
27866SOL    HW295323   9.049   2.625   1.135 -0.0621 -0.2291  0.2510
27867SOL     OW95324   7.154  10.092   6.105  0.5315 -0.5092  0.3938
27867SOL    HW195325   7.207  10.163   6.141  0.6417 -0.1897 -0.3824
27867SOL    HW295326   7.216  10.035   6.060  0.1555  0.3081 -1.2354
27868SOL     OW95327   7.395   9.249   4.684 -0.0882 -0.3214  0.5020
27868SOL    HW195328   7.453   9.174   4.695  1.4929  0.8571  0.5253
27868SOL    HW295329   7.332   9.222   4.617 -0.3518 -2.0989  1.4238
27869SOL     OW95330   7.284   7.156  10.815 -0.0778 -0.0810  0.6000
27869SOL    HW195331   7.376   7.146  10.791 -0.3490  1.7690 -1.5451
27869SOL    HW295332   7.283   7.149  10.910  2.4968  1.1689  0.8048
27870SOL     OW95333   4.937   6.609  10.279  0.3618 -0.2193  0.1978
27870SOL    HW195334   5.025   6.598  10.244 -0.3342 -0.7341 -1.5149
27870SOL    HW295335   4.915   6.525  10.318  0.2346 -0.4300 -0.3286
27871SOL     OW95336   1.032  10.345  11.422 -0.2948  0.2592 -0.8819
27871SOL    HW195337   1.080  10.332  11.340 -0.5402  2.1188 -1.3681
27871SOL    HW295338   0.984  10.426  11.408  1.5508  2.0070  1.9659
27872SOL     OW95339   6.852   2.202   3.493 -0.5453 -0.4219 -0.1696
27872SOL    HW195340   6.903   2.249   3.427 -1.4468  0.5975 -0.1650
27872SOL    HW295341   6.838   2.265   3.563 -2.5523 -0.3504 -0.5628
27873SOL     OW95342   2.491   1.847   8.766 -0.0876 -0.1872 -0.0290
27873SOL    HW195343   2.534   1.777   8.816  0.9234  0.4169 -0.0238
27873SOL    HW295344   2.413   1.806   8.729 -0.4308 -0.8678  1.3860
27874SOL     OW95345   8.662   9.760  11.098 -0.0942 -0.0936 -0.1115
27874SOL    HW195346   8.578   9.801  11.122  0.2648  0.6872 -0.1617
27874SOL    HW295347   8.692   9.811  11.023  0.8683  0.2078  0.4704
27875SOL     OW95348   2.631   3.347   3.141  0.0653  0.1027  0.1151
27875SOL    HW195349   2.558   3.396   3.179  0.6402  1.0691  0.0220
27875SOL    HW295350   2.614   3.256   3.165 -1.2029  0.2930  0.0221
27876SOL     OW95351   5.597   2.564   3.700  0.8272 -0.1475 -0.4392
27876SOL    HW195352   5.525   2.626   3.699  1.4460  0.5859 -0.4321
27876SOL    HW295353   5.561   2.486   3.742  0.4930  0.7759  1.0586
27877SOL     OW95354   4.488   9.433   5.146  0.3147 -0.3063  0.4685
27877SOL    HW195355   4.476   9.471   5.233  0.3767  0.3675  0.1879
27877SOL    HW295356   4.582   9.429   5.134  0.3380 -1.6562  0.9661
27878SOL     OW95357   9.097   7.678  11.013  0.2245 -0.0223 -0.6764
27878SOL    HW195358   9.192   7.691  11.005  0.1957 -0.6670 -2.7990
27878SOL    HW295359   9.059   7.757  10.975 -0.0878 -0.0928 -0.5128
27879SOL     OW95360   2.198   2.268  10.818  0.4955 -0.4700  0.5808
27879SOL    HW195361   2.146   2.348  10.817  0.3107 -0.5817  0.9253
27879SOL    HW295362   2.276   2.290  10.869  0.4317 -0.5140  0.6994
27880SOL     OW95363   9.954   9.088   8.876 -0.2024 -0.3805 -0.4931
27880SOL    HW195364   9.947   9.018   8.942 -0.4703 -0.2285 -0.3549
27880SOL    HW295365  10.039   9.128   8.893 -1.1783  1.1265  1.2694
27881SOL     OW95366   4.584   5.612   0.792 -0.3698 -0.3111 -0.8739
27881SOL    HW195367   4.601   5.544   0.726 -0.2843  0.2309 -1.4169
27881SOL    HW295368   4.521   5.572   0.852 -0.1117 -0.9693 -1.0317
27882SOL     OW95369   7.295   5.481  10.684 -0.3239 -0.4125  0.1313
27882SOL    HW195370   7.313   5.416  10.616  0.9301 -0.8280  0.8396
27882SOL    HW295371   7.229   5.539  10.644 -1.4197 -2.0409 -0.5351
27883SOL     OW95372   0.338   5.535   7.950 -0.3567  0.3104  0.5444
27883SOL    HW195373   0.308   5.562   7.863  2.4231 -0.0071 -0.6243
27883SOL    HW295374   0.432   5.553   7.949  0.4308 -3.0048  2.1910
27884SOL     OW95375   2.414   6.006   2.084  0.4840 -0.1530 -0.3220
27884SOL    HW195376   2.322   6.021   2.064  0.7117  2.9293  0.4347
27884SOL    HW295377   2.415   5.922   2.132 -1.6939 -0.9112 -1.4646
27885SOL     OW95378   2.602   5.841  11.573 -0.3166 -0.4461 -0.3062
27885SOL    HW195379   2.586   5.747  11.564  2.0558 -0.8392 -0.9524
27885SOL    HW295380   2.658   5.848  11.650  2.6107 -0.0379 -2.3283
27886SOL     OW95381   4.364   3.772   7.929 -0.4080 -0.2880 -0.4789
27886SOL    HW195382   4.289   3.763   7.870 -0.4847 -0.7857 -0.3096
27886SOL    HW295383   4.345   3.712   8.001  0.6956 -1.3113 -0.9997
27887SOL     OW95384   6.709  11.871   8.380  0.7675 -0.1726  0.1945
27887SOL    HW195385   6.694  11.778   8.398 -0.9047  0.1547  0.6227
27887SOL    HW295386   6.745  11.906   8.462 -1.0466  0.0537  0.9438
27888SOL     OW95387   5.172   3.529   2.163 -0.1655 -0.1359  0.3486
27888SOL    HW195388   5.106   3.564   2.103  2.3536  0.1353 -2.4726
27888SOL    HW295389   5.154   3.435   2.167 -1.7646  0.1669  1.1128
27889SOL     OW95390   8.875   4.644   1.181 -0.6470  0.2455  0.1882
27889SOL    HW195391   8.873   4.651   1.086  2.1851 -1.3440 -0.0917
27889SOL    HW295392   8.784   4.625   1.205 -1.2224 -0.5549 -2.3106
27890SOL     OW95393   2.004   4.697  11.310 -0.0635  0.2678  0.5024
27890SOL    HW195394   1.933   4.648  11.352  0.5423  0.4494  1.7554
27890SOL    HW295395   2.084   4.650  11.334  0.3780  0.9123  0.3134
27891SOL     OW95396   9.433   0.603   4.393 -0.3943 -0.0527 -0.2594
27891SOL    HW195397   9.362   0.583   4.332 -0.5656 -1.0929  0.2653
27891SOL    HW295398   9.512   0.568   4.352 -0.0447  1.6571 -1.1393
27892SOL     OW95399   3.033   9.524   1.885  0.7542 -0.0989 -0.0503
27892SOL    HW195400   2.997   9.461   1.823  0.5884  0.0401 -0.0954
27892SOL    HW295401   3.109   9.479   1.923  0.9353 -0.1332 -0.4518
27893SOL     OW95402   7.006   6.697   0.708  0.2959  0.0199 -0.5261
27893SOL    HW195403   7.100   6.694   0.690  0.2905  2.7876 -1.5818
27893SOL    HW295404   6.999   6.746   0.790 -0.2062 -2.4722  1.0339
27894SOL     OW95405   2.976   8.434   7.288  0.1553  0.0537 -0.0684
27894SOL    HW195406   2.944   8.524   7.292 -2.4054 -0.7982  0.9708
27894SOL    HW295407   2.973   8.412   7.195  2.8780  1.6106 -0.6369
27895SOL     OW95408   9.854   6.147   5.901 -0.1802  0.5325  0.1812
27895SOL    HW195409   9.945   6.178   5.897  0.0327 -0.0517  0.3247
27895SOL    HW295410   9.811   6.187   5.826  0.3108  0.4606 -0.1395
27896SOL     OW95411   5.118  11.626  10.973 -0.7104 -0.0161  0.2880
27896SOL    HW195412   5.162  11.626  10.888  0.4020  0.6963  0.8490
27896SOL    HW295413   5.060  11.550  10.969  0.6777 -1.0932 -0.4303
27897SOL     OW95414   5.636   4.364   4.322  0.0254 -0.5197 -0.6949
27897SOL    HW195415   5.709   4.365   4.384  1.6669 -1.0229 -2.5324
27897SOL    HW295416   5.583   4.288   4.348 -0.5294  0.4660  1.3185
27898SOL     OW95417  10.863   5.948   7.091 -0.6112 -0.0759 -0.4491
27898SOL    HW195418  10.817   5.947   7.008 -1.2124 -0.3863 -0.1192
27898SOL    HW295419  10.885   6.040   7.105  1.6777 -0.3087 -2.1074
27899SOL     OW95420   0.796  11.396   3.844  0.6053 -0.5199  0.0744
27899SOL    HW195421   0.871  11.437   3.800 -0.9954  1.5025 -0.9946
27899SOL    HW295422   0.810  11.414   3.937  1.2838  0.1155 -0.1389
27900SOL     OW95423  11.251   8.867  10.916  0.5488 -0.1440 -0.1573
27900SOL    HW195424  11.220   8.944  10.964  0.2302  0.8636 -1.8840
27900SOL    HW295425  11.171   8.830  10.877  1.0136  0.3279 -1.6322
27901SOL     OW95426   0.390   5.163   7.550 -0.1728  0.0079  0.2023
27901SOL    HW195427   0.469   5.115   7.575 -0.2878 -0.3530 -0.1085
27901SOL    HW295428   0.345   5.181   7.633 -0.3435 -0.8039  0.2969
27902SOL     OW95429   6.189   9.431   8.233  0.1670 -0.2010  0.0409
27902SOL    HW195430   6.202   9.380   8.153 -0.5165 -0.8563  0.3337
27902SOL    HW295431   6.204   9.522   8.206 -2.4010 -0.1226 -1.4441
27903SOL     OW95432   7.957  10.718   0.010  0.0347  0.0893  0.2956
27903SOL    HW195433   8.049  10.696   0.025 -0.1409 -3.1083 -2.2727
27903SOL    HW295434   7.910  10.669   0.077  0.1026  0.4890  0.6402
27904SOL     OW95435   1.221   1.449  11.244 -0.9892  0.1557  0.2759
27904SOL    HW195436   1.218   1.541  11.216 -2.0369  0.1982  0.4811
27904SOL    HW295437   1.250   1.401  11.166  0.6895  0.7571  0.4772
27905SOL     OW95438   9.122   8.921  10.387 -0.1173 -0.0793 -0.4057
27905SOL    HW195439   9.033   8.954  10.372 -0.6929 -0.6834  1.4445
27905SOL    HW295440   9.177   8.974  10.329 -1.6616  0.3278 -1.5675
27906SOL     OW95441  10.898   2.090  11.118 -0.3551 -0.6206  0.3743
27906SOL    HW195442  10.820   2.096  11.173 -0.3765 -0.1766  0.2992
27906SOL    HW295443  10.864   2.085  11.029 -0.2776  2.2016  0.1162
27907SOL     OW95444   2.304  11.502   2.887 -0.2655 -0.0097 -0.2292
27907SOL    HW195445   2.270  11.571   2.944 -1.2512 -0.5909 -0.0869
27907SOL    HW295446   2.307  11.425   2.942  0.7990 -0.0954 -0.3997
27908SOL     OW95447   3.635   1.425   8.749  0.4424  0.2286 -0.2979
27908SOL    HW195448   3.692   1.474   8.808  0.7924  0.2895 -0.6813
27908SOL    HW295449   3.595   1.491   8.693 -0.9937  0.3175  0.7856
27909SOL     OW95450  11.185   5.147   7.054 -0.1159 -0.5155 -0.2596
27909SOL    HW195451  11.175   5.242   7.060 -0.1645 -0.6120  1.8303
27909SOL    HW295452  11.211   5.131   6.963  1.5183  1.6567 -0.2478
27910SOL     OW95453   4.435   4.434   2.956 -0.2033  0.4910  0.1103
27910SOL    HW195454   4.399   4.495   2.892  1.5043  1.0967 -0.3122
27910SOL    HW295455   4.519   4.406   2.919 -1.0372 -2.4233  0.1002
27911SOL     OW95456   0.465   3.239   7.326  0.5863 -0.2920 -0.2753
27911SOL    HW195457   0.463   3.146   7.350 -1.4671  0.1270  1.5248
27911SOL    HW295458   0.558   3.261   7.322  1.1412 -2.5637 -1.4548
27912SOL     OW95459   2.682   6.780   2.602 -0.5242 -0.3381 -0.1816
27912SOL    HW195460   2.664   6.874   2.595  0.7181 -0.1268 -0.8716
27912SOL    HW295461   2.602   6.743   2.638 -0.6735  1.1377  1.1580
27913SOL     OW95462  10.781  10.636  10.593  0.0654  0.0125  0.3693
27913SOL    HW195463  10.783  10.597  10.506 -1.1100  0.3874  0.1496
27913SOL    HW295464  10.735  10.719  10.581 -0.5665 -0.1589  1.4268
27914SOL     OW95465   9.546   6.486   3.195  0.3267 -0.1593  0.9706
27914SOL    HW195466   9.515   6.401   3.164  1.3934 -0.3004  0.1935
27914SOL    HW295467   9.634   6.493   3.157  0.6587  0.8302  1.8902
27915SOL     OW95468   2.630  10.740   1.758 -0.0325 -0.5418 -0.0146
27915SOL    HW195469   2.558  10.711   1.815 -0.3866  0.2670 -0.0329
27915SOL    HW295470   2.610  10.701   1.673  0.5927 -1.9063  0.4335
27916SOL     OW95471   9.968  11.009   6.439  0.4053  0.1848 -0.0820
27916SOL    HW195472   9.894  10.993   6.498  1.3416 -0.7047  0.8943
27916SOL    HW295473  10.039  11.036   6.497  0.3405  3.1003 -1.1799
27917SOL     OW95474  11.460   9.909   9.116  0.6994 -0.7848 -0.0715
27917SOL    HW195475  11.409   9.973   9.068  3.1052  2.1769  1.0326
27917SOL    HW295476  11.403   9.882   9.188  0.4148  2.0086  0.8413
27918SOL     OW95477   3.961   9.003   3.512 -0.0617 -0.6700  0.1724
27918SOL    HW195478   3.974   8.912   3.484 -1.8536 -0.9649  0.1654
27918SOL    HW295479   3.965   9.054   3.432 -2.0316 -1.1451 -0.2960
27919SOL     OW95480   3.686   4.432   1.559 -0.5686 -0.1222 -0.0106
27919SOL    HW195481   3.630   4.491   1.509 -3.9476 -2.5306  0.6125
27919SOL    HW295482   3.719   4.370   1.494 -2.1192 -1.1694  0.1516
27920SOL     OW95483   7.270   9.792   9.486 -0.3808 -0.2176  0.0883
27920SOL    HW195484   7.232   9.704   9.484 -0.4239 -0.1959 -0.1181
27920SOL    HW295485   7.205   9.845   9.531 -1.1484  0.0699 -1.2987
27921SOL     OW95486   4.026   6.557   9.566  0.1928 -0.0412 -0.4084
27921SOL    HW195487   4.049   6.650   9.569 -1.2185  0.3062  0.0858
27921SOL    HW295488   4.070   6.525   9.487  2.7327  0.4507  0.6737
27922SOL     OW95489   9.345   5.057   8.516 -0.6119 -0.6499  0.5285
27922SOL    HW195490   9.353   4.983   8.456 -2.7089 -0.4944 -0.0444
27922SOL    HW295491   9.287   5.026   8.585 -1.4283  0.3852  0.3465
27923SOL     OW95492   8.343   2.298  10.055  0.2964  0.2002 -0.1479
27923SOL    HW195493   8.316   2.361  10.123  0.4962 -0.9336  1.0285
27923SOL    HW295494   8.310   2.335   9.974 -1.4552  0.7766  0.7700
27924SOL     OW95495   5.140   1.621   7.554 -0.5065 -0.0652 -0.0915
27924SOL    HW195496   5.119   1.604   7.462  0.3181  0.6942 -0.4371
27924SOL    HW295497   5.069   1.580   7.603 -2.1334  1.3081 -1.1558
27925SOL     OW95498   5.723   7.593   6.972 -0.2670  0.2380 -0.2759
27925SOL    HW195499   5.740   7.682   7.003 -0.0014  0.1664 -0.2111
27925SOL    HW295500   5.701   7.604   6.880  2.3404  0.1581 -1.0029
27926SOL     OW95501   0.856   0.639   8.801 -0.0934 -1.0804 -0.0078
27926SOL    HW195502   0.764   0.643   8.824 -0.4146 -2.5441 -0.8778
27926SOL    HW295503   0.888   0.558   8.842  0.5414 -1.1158 -0.5415
27927SOL     OW95504   5.750  10.845   0.667 -0.5745 -0.0039  0.1026
27927SOL    HW195505   5.698  10.766   0.652  0.5931 -0.7453 -0.1959
27927SOL    HW295506   5.696  10.900   0.724 -2.6284  0.2639 -1.9643
27928SOL     OW95507   5.926   1.644  10.805  0.8790 -0.0509 -0.5967
27928SOL    HW195508   5.995   1.710  10.807  0.5476  0.3252 -1.3836
27928SOL    HW295509   5.864   1.672  10.873  0.2397  1.0142 -1.5825
27929SOL     OW95510   6.488   6.742   2.786 -0.0373 -0.2446  0.1889
27929SOL    HW195511   6.470   6.699   2.870 -2.4798 -0.7090 -0.4824
27929SOL    HW295512   6.413   6.799   2.772  1.0769  1.0032 -0.9929
27930SOL     OW95513   9.236   1.109   9.290 -0.0516 -0.0952  0.1615
27930SOL    HW195514   9.306   1.078   9.232  1.2514 -1.6848  2.4189
27930SOL    HW295515   9.210   1.032   9.340 -3.1545  0.5596 -0.2183
27931SOL     OW95516   6.817   4.278   3.356 -0.3882 -0.0578  0.3676
27931SOL    HW195517   6.845   4.367   3.337 -2.3846  0.3247 -1.1357
27931SOL    HW295518   6.770   4.286   3.440 -0.5861  0.3245  0.2247
27932SOL     OW95519  11.228   1.384   5.406 -0.0121  0.5367  0.2093
27932SOL    HW195520  11.151   1.330   5.391 -0.6056  1.2635  0.5684
27932SOL    HW295521  11.242   1.431   5.324  0.7856 -0.4945 -0.2603
27933SOL     OW95522   8.300  11.355   9.734 -0.1472  0.1643 -0.0248
27933SOL    HW195523   8.324  11.448   9.728 -0.2554  0.2180  0.3269
27933SOL    HW295524   8.213  11.351   9.695 -0.0101  0.1568 -0.3299
27934SOL     OW95525   3.691   1.561   5.834  0.1234  0.3804 -0.1753
27934SOL    HW195526   3.730   1.482   5.871  0.3864  1.0353  1.0225
27934SOL    HW295527   3.765   1.612   5.802  0.1382  0.8829  0.6067
27935SOL     OW95528   9.370   2.738   2.198  0.3777 -0.3955 -0.3488
27935SOL    HW195529   9.337   2.656   2.160 -0.5285 -1.0699  1.7495
27935SOL    HW295530   9.297   2.799   2.190 -0.6212 -1.1516  2.0208
27936SOL     OW95531  10.348   2.516   1.020 -0.3614  0.2670 -0.4563
27936SOL    HW195532  10.283   2.454   1.054  0.0217  0.3521  0.4702
27936SOL    HW295533  10.424   2.461   0.998 -0.4242  0.2749 -0.6946
27937SOL     OW95534   4.497   1.823  10.895  0.3534 -0.0531  0.0347
27937SOL    HW195535   4.470   1.886  10.963 -0.5714 -2.6144  2.2162
27937SOL    HW295536   4.575   1.781  10.930  1.0863 -0.0144 -1.4803
27938SOL     OW95537   3.417  11.037   9.400 -0.2849 -0.2167  0.0397
27938SOL    HW195538   3.409  11.103   9.468  1.0937 -0.3040  0.3321
27938SOL    HW295539   3.421  10.954   9.447 -1.9044 -0.5250 -0.3192
27939SOL     OW95540   5.196   6.390   1.248 -0.0673 -0.1374  0.0076
27939SOL    HW195541   5.261   6.367   1.181  0.9128  0.8640  0.5669
27939SOL    HW295542   5.220   6.479   1.274 -1.7921  0.3252  0.1190
27940SOL     OW95543   0.702   8.743   4.188 -0.1048 -0.7076  0.0334
27940SOL    HW195544   0.730   8.809   4.252 -0.9895  0.1198 -0.4113
27940SOL    HW295545   0.784   8.710   4.151  0.3686 -0.2333  0.6365
27941SOL     OW95546   5.506   7.118   1.419 -0.1416  0.8711  0.3009
27941SOL    HW195547   5.506   7.212   1.439 -0.3911  0.8983  0.1780
27941SOL    HW295548   5.555   7.078   1.490  0.4891  1.1654  0.0424
27942SOL     OW95549   3.471   3.738   2.311  0.2386  0.0582 -0.1139
27942SOL    HW195550   3.464   3.758   2.217 -1.4286 -0.3034 -0.0971
27942SOL    HW295551   3.565   3.735   2.328  0.5882  2.0732 -1.3551
27943SOL     OW95552  10.934   0.009   7.337  0.0554  0.0379  0.3685
27943SOL    HW195553  10.950  -0.082   7.315 -0.7037  0.0545 -0.3009
27943SOL    HW295554  11.016   0.039   7.377  0.4067 -0.8479  0.3395
27944SOL     OW95555   6.105  10.833   3.284  0.2404 -0.0321  0.4129
27944SOL    HW195556   6.184  10.851   3.335  0.4781  1.7530 -0.4786
27944SOL    HW295557   6.134  10.772   3.216  0.4399 -0.6877  1.0748
27945SOL     OW95558   4.883   6.771   2.529  0.0162  0.2724  0.1191
27945SOL    HW195559   4.824   6.841   2.502  0.8085  1.2799  0.8846
27945SOL    HW295560   4.935   6.810   2.600  2.0429 -0.3388 -0.9460
27946SOL     OW95561  11.219   7.702   5.802 -0.2160 -0.6638  0.4105
27946SOL    HW195562  11.260   7.721   5.886 -0.3002  0.0278  0.3066
27946SOL    HW295563  11.291   7.671   5.746 -0.1853 -1.2486  0.7754
27947SOL     OW95564   5.338   7.430  11.720  0.1410 -0.2371  0.0761
27947SOL    HW195565   5.296   7.499  11.771  2.4018  0.7800  0.6532
27947SOL    HW295566   5.328   7.351  11.775 -0.4950  0.0988  0.4554
27948SOL     OW95567   7.083   1.619  10.609  0.2574 -0.0071  0.1736
27948SOL    HW195568   7.070   1.529  10.639  0.0424 -0.0758 -0.1167
27948SOL    HW295569   7.010   1.635  10.549  1.4709 -0.3733 -1.4738
27949SOL     OW95570   0.409   8.594   6.501 -0.2030 -0.4856 -0.1549
27949SOL    HW195571   0.432   8.536   6.429 -0.4213  0.7534 -1.2629
27949SOL    HW295572   0.486   8.595   6.557 -0.1852 -1.7969 -0.1363
27950SOL     OW95573   2.233  11.196  11.307  0.1379 -0.3032 -0.6131
27950SOL    HW195574   2.283  11.227  11.232  1.3696  1.9057  0.9875
27950SOL    HW295575   2.285  11.125  11.343  0.5166 -0.0888 -0.7380
27951SOL     OW95576   0.774  11.882   8.724 -0.0203  0.0643 -0.6054
27951SOL    HW195577   0.785  11.973   8.752  2.5053  0.0476 -1.3105
27951SOL    HW295578   0.782  11.831   8.805 -1.9948  0.4200 -0.1204
27952SOL     OW95579   7.040   2.889   2.377 -0.2094  0.3108  0.5674
27952SOL    HW195580   7.012   2.827   2.444  0.4651  0.0072  0.5814
27952SOL    HW295581   7.123   2.854   2.346 -0.2967  0.6891 -0.1135
27953SOL     OW95582   9.411   1.742   5.009 -0.2977  0.1871  0.6622
27953SOL    HW195583   9.421   1.826   4.964 -1.5520  0.3710  0.6779
27953SOL    HW295584   9.470   1.748   5.084 -1.1177  1.4809  1.2454
27954SOL     OW95585   7.472   7.177   2.263  0.2176 -0.0123 -0.0013
27954SOL    HW195586   7.535   7.133   2.319  0.1086 -4.3703 -2.8103
27954SOL    HW295587   7.393   7.185   2.316  0.8008 -1.7678  1.1811
27955SOL     OW95588   7.263   4.455   6.725 -0.3998  0.3538  0.1786
27955SOL    HW195589   7.248   4.508   6.647  1.3514 -0.0046 -0.4452
27955SOL    HW295590   7.179   4.454   6.770 -0.6069  3.3536  0.0465
27956SOL     OW95591   5.001  11.517   9.746  0.7357  0.6019 -0.0987
27956SOL    HW195592   4.931  11.566   9.789  0.5432 -0.0330  0.3175
27956SOL    HW295593   5.039  11.579   9.684  0.0354  1.0609 -0.0771
27957SOL     OW95594   3.841   5.303   7.184  0.3217 -0.3775  0.2210
27957SOL    HW195595   3.766   5.255   7.218  0.0640  0.5155  0.9525
27957SOL    HW295596   3.917   5.251   7.210 -0.0482 -1.4374 -0.7808
27958SOL     OW95597   8.779   6.199   0.980 -0.5589 -0.3755 -0.1586
27958SOL    HW195598   8.733   6.210   1.063 -2.7774  1.2229 -1.4945
27958SOL    HW295599   8.812   6.287   0.960  1.9195 -1.1987  0.0497
27959SOL     OW95600   7.103  11.913   5.879  0.2322  0.3233 -0.1356
27959SOL    HW195601   7.015  11.906   5.917  0.2670 -0.1080 -0.1327
27959SOL    HW295602   7.090  11.901   5.785  0.3354 -0.1139 -0.0934
27960SOL     OW95603   7.545   7.199   1.559 -0.4110  0.3002  0.2490
27960SOL    HW195604   7.481   7.267   1.538 -0.5904 -0.0833 -0.4967
27960SOL    HW295605   7.540   7.189   1.654 -2.1233 -0.3438  0.1263
27961SOL     OW95606  11.808   9.071   4.899  0.5519 -0.1044 -0.5664
27961SOL    HW195607  11.886   9.080   4.954 -0.2413 -0.9820  0.7664
27961SOL    HW295608  11.796   8.977   4.890 -2.0340 -0.1157  1.8163
27962SOL     OW95609   6.272   7.421   7.926 -0.3459 -0.4739 -0.4084
27962SOL    HW195610   6.214   7.459   7.992 -0.4940 -0.7185 -0.3981
27962SOL    HW295611   6.220   7.351   7.885 -1.2025  1.3237 -2.5748
27963SOL     OW95612   8.545   4.647   1.618  0.3377 -0.1243  0.2901
27963SOL    HW195613   8.517   4.730   1.579 -0.7538  0.5370  2.2917
27963SOL    HW295614   8.585   4.672   1.702 -0.4104 -1.6222  1.1478
27964SOL     OW95615  11.373   6.763   8.742  0.3250 -0.2008  0.0443
27964SOL    HW195616  11.420   6.776   8.823  1.0029 -4.1090  0.4732
27964SOL    HW295617  11.281   6.773   8.766  0.5802  0.3834  0.8397
27965SOL     OW95618   7.037   8.561   8.388 -0.3665  0.1652  0.3164
27965SOL    HW195619   7.071   8.650   8.379  0.4465 -0.2693 -1.5180
27965SOL    HW295620   7.103   8.514   8.439  0.1671  0.1578 -0.3650
27966SOL     OW95621   7.347   3.333  10.282  0.6880 -0.2580  0.1692
27966SOL    HW195622   7.283   3.263  10.297 -0.0574  0.7144  1.8714
27966SOL    HW295623   7.301   3.413  10.306  1.9632  0.6798 -0.4096
27967SOL     OW95624   5.800   2.899  11.096 -0.7791 -0.1007  0.6216
27967SOL    HW195625   5.883   2.869  11.061 -1.1156  0.5153 -0.7975
27967SOL    HW295626   5.806   2.883  11.190  0.3537 -1.4058  0.3590
27968SOL     OW95627   2.147   0.847   4.149  0.6425 -0.5479 -0.2749
27968SOL    HW195628   2.079   0.816   4.088  0.7965  1.6799 -1.6942
27968SOL    HW295629   2.156   0.776   4.213 -1.3401 -1.9075 -1.3917
27969SOL     OW95630  10.286   5.820   6.868 -0.3782 -0.2919 -0.0987
27969SOL    HW195631  10.249   5.843   6.954  0.4674  0.4766  0.0812
27969SOL    HW295632  10.227   5.753   6.834 -1.3816  0.2096  0.5827
27970SOL     OW95633   3.693   8.919   7.981  0.0982 -0.0602 -0.8357
27970SOL    HW195634   3.638   8.941   8.056  1.3226  1.4406 -0.3163
27970SOL    HW295635   3.693   8.998   7.927  0.4283 -0.6075 -1.6519
27971SOL     OW95636   7.591   0.010  11.878  0.1631  0.5241  0.0376
27971SOL    HW195637   7.615   0.063  11.954  1.5452 -1.6298  1.1970
27971SOL    HW295638   7.606  -0.080  11.905 -2.1726 -0.5583 -1.8026
27972SOL     OW95639   7.290   6.338   2.229 -0.2864 -0.1090 -0.0460
27972SOL    HW195640   7.300   6.243   2.227 -0.5914 -0.1304 -1.5165
27972SOL    HW295641   7.230   6.357   2.157  0.1692  1.2390 -0.0960
27973SOL     OW95642   3.987   7.001   5.514 -0.0704  0.3926 -0.5172
27973SOL    HW195643   3.950   7.068   5.572 -1.4209  0.6463 -1.6111
27973SOL    HW295644   3.924   6.929   5.517  0.2994  0.0379 -0.9790
27974SOL     OW95645   2.392   2.134  11.860 -0.1767 -0.2866 -0.0114
27974SOL    HW195646   2.419   2.159  11.772 -1.1104 -1.0174 -0.5255
27974SOL    HW295647   2.436   2.051  11.876 -0.5512 -0.5011 -0.0732
27975SOL     OW95648  11.735   2.829   5.162  0.5283  0.1184 -0.4264
27975SOL    HW195649  11.661   2.790   5.115  0.7949  0.2521 -0.9664
27975SOL    HW295650  11.779   2.755   5.203  0.9029 -0.1357 -1.2621
27976SOL     OW95651   4.479   6.046   3.636  0.0232  0.3586  0.1192
27976SOL    HW195652   4.533   6.045   3.557  0.8337  2.3508  0.5799
27976SOL    HW295653   4.398   6.090   3.609  0.6621  1.8702  0.5587
27977SOL     OW95654   0.264   4.054   3.946 -0.5454  0.0070 -0.4749
27977SOL    HW195655   0.181   4.019   3.979  1.5332 -3.4128  1.7488
27977SOL    HW295656   0.274   4.138   3.990 -2.1770 -0.1948  0.3519
27978SOL     OW95657   4.557   2.970  10.456  0.3724  0.1818 -0.1169
27978SOL    HW195658   4.532   2.878  10.468  0.9327  0.1458  0.9156
27978SOL    HW295659   4.473   3.016  10.449  0.0685 -0.3281  0.0542
27979SOL     OW95660   2.132   4.875   3.280 -0.4462 -0.1427  0.0248
27979SOL    HW195661   2.119   4.851   3.188 -1.0292  1.7138 -0.4064
27979SOL    HW295662   2.046   4.861   3.321 -0.1799 -0.9973  0.3234
27980SOL     OW95663   3.730   1.264   4.115  0.0377 -0.3378 -0.1824
27980SOL    HW195664   3.694   1.303   4.194 -0.1283 -0.7345 -0.0590
27980SOL    HW295665   3.789   1.331   4.080  0.2988 -0.2513  0.4064
27981SOL     OW95666   2.557   4.645  10.643 -0.1918 -0.2060  0.3022
27981SOL    HW195667   2.627   4.630  10.578  1.5950  1.4657  1.7081
27981SOL    HW295668   2.503   4.714  10.604 -0.1386 -0.4031 -0.1283
27982SOL     OW95669   9.796   6.963   4.982  0.0600  0.0344  0.3731
27982SOL    HW195670   9.741   7.041   4.972  0.0516 -0.1605 -1.3557
27982SOL    HW295671   9.739   6.900   5.026 -1.0170 -0.0441 -1.0700
27983SOL     OW95672   2.938   2.977   8.286  0.0481  0.5115  0.0631
27983SOL    HW195673   2.991   3.050   8.254 -0.9782  0.6143 -1.4904
27983SOL    HW295674   2.960   2.904   8.228 -0.7308  0.2737  0.0544
27984SOL     OW95675   3.769   0.051   1.883  0.1893  0.7448  0.0484
27984SOL    HW195676   3.845   0.104   1.907  1.0600 -0.1918 -0.5319
27984SOL    HW295677   3.798   0.003   1.805  0.0271 -1.7577  1.4316
27985SOL     OW95678   9.065   9.442   4.959  0.3151 -0.2660 -0.2165
27985SOL    HW195679   9.121   9.517   4.940  0.0349 -0.2317 -0.9342
27985SOL    HW295680   8.990   9.452   4.900 -0.4798 -0.2821  0.7587
27986SOL     OW95681   5.943   9.830   7.951 -0.1800  0.2272 -0.2538
27986SOL    HW195682   5.862   9.853   7.996  0.8583 -1.9281  3.1779
27986SOL    HW295683   5.929   9.741   7.920  0.8427 -0.1957  0.4404
27987SOL     OW95684   9.024   3.166   6.216 -0.4359 -0.2373 -0.4616
27987SOL    HW195685   9.000   3.185   6.307 -0.0271 -0.7470 -0.2442
27987SOL    HW295686   9.110   3.206   6.205 -0.2348 -0.6686 -0.4557
27988SOL     OW95687   7.452   3.335   7.065 -0.0752 -0.2361  0.0662
27988SOL    HW195688   7.533   3.332   7.116  0.2157  0.8805 -0.2955
27988SOL    HW295689   7.452   3.422   7.025 -0.1958 -1.1142 -1.9810
27989SOL     OW95690   3.076  10.577   2.968 -0.2661 -0.2826  0.2032
27989SOL    HW195691   3.109  10.503   2.917 -0.9139 -0.1102 -0.5004
27989SOL    HW295692   3.022  10.626   2.905  0.2205  0.8293  0.6302
27990SOL     OW95693  10.787   1.717   6.277 -0.4110 -0.1146  0.5370
27990SOL    HW195694  10.818   1.661   6.206  0.0263 -0.1670  0.7626
27990SOL    HW295695  10.692   1.718   6.267 -0.3554 -0.1651 -0.0118
27991SOL     OW95696   4.924   2.911   5.820  0.4212 -0.0437 -0.3135
27991SOL    HW195697   4.849   2.968   5.837  0.7742  0.1393  0.7124
27991SOL    HW295698   4.893   2.848   5.755 -0.5128  0.2519 -0.1593
27992SOL     OW95699  10.432  10.026   9.657  0.3947 -0.3141 -0.5762
27992SOL    HW195700  10.513  10.048   9.703  0.3084  1.9560 -1.3713
27992SOL    HW295701  10.362  10.055   9.715  0.1168 -2.0357 -0.0047
27993SOL     OW95702  11.231   5.973   9.600 -0.4674  0.1342  0.3210
27993SOL    HW195703  11.292   6.036   9.638  2.4683 -2.9009  1.2018
27993SOL    HW295704  11.230   5.900   9.662 -1.2261 -1.9905 -2.0047
27994SOL     OW95705   7.497   2.106  11.490  0.2392 -0.1259 -0.2509
27994SOL    HW195706   7.453   2.132  11.570  1.5114 -1.0411  0.7807
27994SOL    HW295707   7.488   2.182  11.432 -1.4924  0.2015  0.3795
27995SOL     OW95708   5.116   9.847   5.615  0.5754 -0.5996  0.6147
27995SOL    HW195709   5.052   9.832   5.684 -0.9969  0.4977 -0.5552
27995SOL    HW295710   5.065   9.867   5.538  2.2981 -1.5184 -0.8530
27996SOL     OW95711   8.461   8.253   5.986 -0.5212 -0.5394 -0.4057
27996SOL    HW195712   8.530   8.312   6.014 -0.6829 -0.4020 -0.2974
27996SOL    HW295713   8.502   8.166   5.987 -0.7637 -0.6642  1.1166
27997SOL     OW95714   2.939   8.189   8.512  0.5756 -0.3044 -0.3809
27997SOL    HW195715   2.882   8.149   8.446 -0.6111  1.1771 -0.3232
27997SOL    HW295716   2.936   8.129   8.586 -1.1444 -0.1568 -0.2876
27998SOL     OW95717   6.738   1.408  10.795  0.1453  0.4208  0.2683
27998SOL    HW195718   6.743   1.315  10.817 -1.5190 -0.4968 -2.6562
27998SOL    HW295719   6.647   1.432  10.814  0.1780  1.0396 -0.3076
27999SOL     OW95720   7.214   3.201   8.157  0.9078  0.1692  0.3912
27999SOL    HW195721   7.300   3.198   8.115  2.1199 -4.4627  2.5104
27999SOL    HW295722   7.208   3.118   8.204 -4.1643  0.9285  1.6530
28000SOL     OW95723   8.516   3.725   1.547  0.3815 -0.4239  0.3283
28000SOL    HW195724   8.490   3.633   1.553  0.2342 -0.3298  1.1261
28000SOL    HW295725   8.580   3.727   1.475 -0.3593 -0.9746 -0.3601
28001SOL     OW95726   7.652   5.594   2.612 -0.0569 -0.1076 -0.4541
28001SOL    HW195727   7.570   5.570   2.655  0.3191  1.8159  1.5300
28001SOL    HW295728   7.709   5.518   2.626 -0.9868 -0.8190 -0.4403
28002SOL     OW95729   6.254   9.475  10.655 -0.0314  0.2058 -0.5040
28002SOL    HW195730   6.285   9.560  10.685  1.0624 -0.3025 -0.1261
28002SOL    HW295731   6.180   9.495  10.599 -0.7486  1.3238  0.7779
28003SOL     OW95732   3.049   6.833  11.295  0.7435 -0.1384  0.2165
28003SOL    HW195733   3.101   6.754  11.284 -1.1026 -1.4346  0.4019
28003SOL    HW295734   3.110   6.905  11.277  3.6246 -1.3346  3.9134
28004SOL     OW95735   3.413  10.397   5.843 -0.0346 -0.0703 -0.1870
28004SOL    HW195736   3.474  10.395   5.770  1.5937 -2.7581  1.0841
28004SOL    HW295737   3.447  10.464   5.902  0.7269 -0.3582 -0.2860
28005SOL     OW95738  11.503   7.062   5.608 -0.4233 -0.0645  0.1681
28005SOL    HW195739  11.587   7.069   5.563 -1.6982 -1.2014 -2.6303
28005SOL    HW295740  11.525   7.027   5.695  1.8923 -1.8755 -1.0337
28006SOL     OW95741   6.468   0.341   5.074  0.3804 -0.0089  0.4313
28006SOL    HW195742   6.381   0.332   5.113  0.6573  0.8016  1.2783
28006SOL    HW295743   6.469   0.429   5.036 -0.3990 -1.2743 -2.8379
28007SOL     OW95744   0.864   6.704   9.680  0.2319 -0.3248 -0.1464
28007SOL    HW195745   0.949   6.680   9.644 -0.8840 -0.6506 -2.7319
28007SOL    HW295746   0.800   6.666   9.620 -1.7613  0.5338  1.3072
28008SOL     OW95747  11.373   5.327   3.441  0.1570  0.1051 -0.4499
28008SOL    HW195748  11.339   5.412   3.413 -0.5841 -0.6550 -1.9727
28008SOL    HW295749  11.300   5.267   3.429  0.7755 -0.8246  0.2929
28009SOL     OW95750   1.081   4.188   8.298 -0.2070 -0.4341  0.1741
28009SOL    HW195751   1.010   4.178   8.361  1.0936 -1.9919  1.5016
28009SOL    HW295752   1.109   4.279   8.307 -0.9176 -0.2801  0.8873
28010SOL     OW95753   8.598   4.916   9.682  0.2766  0.1364 -0.2133
28010SOL    HW195754   8.527   4.911   9.618  1.0388 -0.7380 -1.0363
28010SOL    HW295755   8.584   4.841   9.740 -1.3532  1.8402  1.7305
28011SOL     OW95756   6.650   5.087   3.400 -0.0785 -0.3031 -0.3562
28011SOL    HW195757   6.696   5.004   3.413  1.5909  0.5792 -0.4100
28011SOL    HW295758   6.670   5.112   3.310 -0.6207  0.1318 -0.3648
28012SOL     OW95759   3.095   1.460   8.683 -0.0154  0.2662  0.6005
28012SOL    HW195760   3.033   1.525   8.649 -0.1536 -0.8160 -1.3855
28012SOL    HW295761   3.046   1.412   8.749 -1.0758 -0.0695 -0.4017
28013SOL     OW95762   3.644  10.185  11.351 -0.0500 -0.1627  0.1933
28013SOL    HW195763   3.589  10.127  11.297  2.0943 -0.6761 -1.5639
28013SOL    HW295764   3.612  10.273  11.331 -0.0330 -0.4278 -1.1103
28014SOL     OW95765   5.329   5.187   6.100 -0.1969 -0.2421 -0.2791
28014SOL    HW195766   5.251   5.221   6.057  0.6948  1.7974 -0.4197
28014SOL    HW295767   5.389   5.167   6.028 -0.5349 -1.7559 -0.1711
28015SOL     OW95768  11.901   5.055   2.072 -0.0431 -0.0136 -0.0719
28015SOL    HW195769  11.892   5.129   2.012  1.5362 -0.4886 -0.9703
28015SOL    HW295770  11.835   5.070   2.139  0.4584  2.4223 -0.0158
28016SOL     OW95771   2.638   2.522   0.409  0.2024 -0.0252  0.3728
28016SOL    HW195772   2.695   2.446   0.405 -0.4126 -0.4454 -0.8702
28016SOL    HW295773   2.615   2.540   0.318 -0.6736  0.8690  0.7488
28017SOL     OW95774   8.359   6.766   9.461 -0.2252  0.1294 -0.1909
28017SOL    HW195775   8.286   6.769   9.523 -0.1518  0.7764 -0.1260
28017SOL    HW295776   8.372   6.673   9.443 -0.1659 -0.0735  0.8588
28018SOL     OW95777  11.823   1.457   4.666  0.1007  0.3766 -0.3811
28018SOL    HW195778  11.742   1.508   4.668  0.3783  0.8405  1.7005
28018SOL    HW295779  11.818   1.408   4.584 -1.4107  1.7624 -1.1877
28019SOL     OW95780   4.526   5.054   9.941 -0.2222 -0.3747  0.0276
28019SOL    HW195781   4.522   4.964   9.909 -1.1233 -0.4930  0.4304
28019SOL    HW295782   4.455   5.060  10.005 -0.2755  0.6679 -0.1087
28020SOL     OW95783  11.671   6.109  10.029 -0.1915  0.4534 -0.1251
28020SOL    HW195784  11.753   6.107   9.980 -1.6317  0.1418 -2.7479
28020SOL    HW295785  11.696   6.094  10.120  2.6652  0.8364 -0.7553
28021SOL     OW95786  10.054   1.983   2.796  0.1696 -0.5016 -0.4374
28021SOL    HW195787  10.004   2.065   2.793  1.6778  0.6037  1.7481
28021SOL    HW295788  10.046   1.954   2.887  0.5136 -2.2567 -0.9385
28022SOL     OW95789   2.913   9.115   0.086  0.5266  0.5926 -0.1151
28022SOL    HW195790   2.846   9.119   0.154 -0.3663  1.5138 -1.0193
28022SOL    HW295791   2.917   9.022   0.063  0.9158  0.2491  1.2369
28023SOL     OW95792   8.249   6.327  10.327 -0.0937 -0.0173  0.3340
28023SOL    HW195793   8.291   6.245  10.353 -1.6204 -1.5127 -1.6531
28023SOL    HW295794   8.282   6.344  10.239 -1.8592 -0.0138 -0.3630
28024SOL     OW95795   8.028   9.770   0.699 -0.4364 -0.1370  0.0868
28024SOL    HW195796   7.958   9.717   0.662  0.4604  0.3212 -2.4279
28024SOL    HW295797   8.103   9.711   0.708 -0.4616 -0.0958  0.6501
28025SOL     OW95798   5.818   1.283   9.352  0.6442 -0.1788 -0.1126
28025SOL    HW195799   5.817   1.308   9.260 -0.1467 -3.0080 -0.9931
28025SOL    HW295800   5.727   1.261   9.371  1.2938 -2.9065  0.2553
28026SOL     OW95801   2.635   0.536   8.143 -0.2402  0.5914  0.0484
28026SOL    HW195802   2.727   0.521   8.120 -0.4124  1.6511 -1.4732
28026SOL    HW295803   2.595   0.449   8.138  0.0217  0.5435 -2.5690
28027SOL     OW95804   1.439   4.791   2.851 -0.1065 -0.1052  0.2448
28027SOL    HW195805   1.408   4.746   2.772 -1.2502 -0.5274  0.9161
28027SOL    HW295806   1.400   4.878   2.846 -2.1826 -0.8923  1.4885
28028SOL     OW95807  10.028   6.216   9.280  0.1394  0.1645  0.3406
28028SOL    HW195808   9.981   6.264   9.212  1.0656  0.5957 -0.0117
28028SOL    HW295809   9.961   6.198   9.347 -0.7390 -0.1151 -0.5911
28029SOL     OW95810   2.226   7.443   2.212 -0.3330  0.7183  0.7703
28029SOL    HW195811   2.245   7.401   2.296 -1.2010  0.1190  0.6757
28029SOL    HW295812   2.305   7.427   2.160 -0.3238 -0.0785  1.0204
28030SOL     OW95813   3.474   9.860  10.058  0.6641  0.2148 -0.0480
28030SOL    HW195814   3.539   9.906  10.006  0.3481 -0.0086 -0.6570
28030SOL    HW295815   3.458   9.917  10.133  1.6358  0.2193  0.1687
28031SOL     OW95816   4.742   8.636   6.521 -0.1616  0.1527  0.0073
28031SOL    HW195817   4.648   8.623   6.520 -0.3109  1.1253 -1.0005
28031SOL    HW295818   4.757   8.705   6.456  1.1362  0.7270  0.8767
28032SOL     OW95819   6.357   5.859   4.611  0.3025 -0.1090  0.2304
28032SOL    HW195820   6.409   5.826   4.538 -1.2564 -2.6889  0.1498
28032SOL    HW295821   6.352   5.953   4.597  2.1535 -0.2153 -1.5472
28033SOL     OW95822   3.919   0.861   2.431 -0.8834  0.1705 -0.1611
28033SOL    HW195823   3.888   0.931   2.373  2.5203  0.4086 -1.9158
28033SOL    HW295824   3.958   0.908   2.505  0.6256  0.1529 -0.9195
28034SOL     OW95825   4.227   1.639   4.610 -0.0656 -0.1347  0.0580
28034SOL    HW195826   4.280   1.655   4.688 -0.7969  2.3881  0.1279
28034SOL    HW295827   4.258   1.555   4.577  1.3652 -0.5146  2.1606
28035SOL     OW95828   7.726  11.594   9.570 -0.1147 -0.0786  0.6510
28035SOL    HW195829   7.776  11.659   9.521  1.0623 -2.0934 -0.9841
28035SOL    HW295830   7.759  11.600   9.659  1.8111 -0.1275 -0.0192
28036SOL     OW95831   4.915   6.671   4.627  0.1525 -0.1514  0.4352
28036SOL    HW195832   4.820   6.682   4.636 -0.0032 -0.5677 -0.5167
28036SOL    HW295833   4.925   6.579   4.602  0.6151  0.4683 -1.8168
28037SOL     OW95834  11.683   1.685   2.743  0.2517  0.0979  0.0843
28037SOL    HW195835  11.658   1.720   2.828 -0.0204 -1.9470  0.9025
28037SOL    HW295836  11.651   1.750   2.680  1.7247  2.3937  1.5447
28038SOL     OW95837   8.882  11.275   8.127 -0.6488 -0.6269 -0.0333
28038SOL    HW195838   8.954  11.318   8.081 -1.1129  2.6591  2.0183
28038SOL    HW295839   8.922  11.236   8.205 -0.6616 -1.5822 -0.4874
28039SOL     OW95840   2.638  10.675   3.725  0.1652 -0.5136 -0.1929
28039SOL    HW195841   2.558  10.713   3.690  0.8082 -0.7338 -2.0009
28039SOL    HW295842   2.709  10.723   3.682  1.0221 -0.5654  1.0961
28040SOL     OW95843   3.247   0.160   7.451 -0.1651  0.0985 -0.7369
28040SOL    HW195844   3.300   0.224   7.404  0.0964  0.2586 -0.2316
28040SOL    HW295845   3.194   0.212   7.511 -0.9481 -0.0557 -1.2808
28041SOL     OW95846   3.086   7.819   2.505 -0.0779  0.1711 -0.2398
28041SOL    HW195847   3.164   7.782   2.546 -0.0441 -0.4779 -0.8676
28041SOL    HW295848   3.109   7.911   2.489  0.5723 -0.0182 -0.4420
28042SOL     OW95849  10.696   4.607   1.289  0.5146 -0.2439  0.0380
28042SOL    HW195850  10.786   4.575   1.294  0.4157 -0.3673  1.5597
28042SOL    HW295851  10.703   4.695   1.251  1.5995  0.7937  2.4233
28043SOL     OW95852   2.895   5.302   3.813  0.0071  0.1032 -0.9106
28043SOL    HW195853   2.890   5.206   3.816 -0.0522  0.1213  0.2822
28043SOL    HW295854   2.988   5.322   3.819 -0.0760  0.1220  1.7494
28044SOL     OW95855   4.955   3.578   1.618 -0.4305  0.6168 -0.6030
28044SOL    HW195856   5.013   3.554   1.691  1.4894  2.0645 -1.5604
28044SOL    HW295857   4.958   3.502   1.559  1.9234  1.2785 -1.4398
28045SOL     OW95858   8.252   0.094  11.241 -0.0305 -0.5641 -1.0862
28045SOL    HW195859   8.260   0.104  11.146 -2.6935 -1.9602 -1.5554
28045SOL    HW295860   8.198   0.168  11.269  0.7963 -0.1227 -0.6143
28046SOL     OW95861   1.119  10.250   1.595  0.4174 -0.6313  0.1985
28046SOL    HW195862   1.192  10.250   1.657  0.4799  1.2172  0.1897
28046SOL    HW295863   1.159  10.276   1.512 -0.1927  0.0484  0.1148
28047SOL     OW95864  11.732   4.964   0.658  0.1190  0.3203  0.1300
28047SOL    HW195865  11.774   4.879   0.675 -0.8103 -0.5722 -1.7159
28047SOL    HW295866  11.794   5.011   0.603 -0.1891  0.0127 -0.4965
28048SOL     OW95867   3.788   1.759   5.499 -0.0328 -0.1155  0.1813
28048SOL    HW195868   3.796   1.726   5.588 -0.2451  0.0488  0.2605
28048SOL    HW295869   3.813   1.685   5.444 -1.9697 -0.9180  0.3104
28049SOL     OW95870   6.492  10.552   7.446 -0.2057  0.0212 -0.3683
28049SOL    HW195871   6.539  10.617   7.499  0.4372 -0.2761 -0.5653
28049SOL    HW295872   6.560  10.510   7.394 -0.5457 -1.1125  0.0740
28050SOL     OW95873   0.632   9.865   6.973  0.0475 -0.3318  0.1855
28050SOL    HW195874   0.722   9.890   6.992 -0.0743 -0.6560  1.2158
28050SOL    HW295875   0.592   9.851   7.058 -0.9580 -0.2808 -0.2666
28051SOL     OW95876   2.529   6.424   6.525 -0.1608 -0.2529  0.2379
28051SOL    HW195877   2.518   6.331   6.508  0.0220  0.1711 -2.8530
28051SOL    HW295878   2.620   6.433   6.554  0.8059 -0.8314 -2.3297
28052SOL     OW95879   1.729   2.387   8.282 -0.0831 -0.6798 -0.3251
28052SOL    HW195880   1.781   2.340   8.217  0.0047 -0.5299 -0.3658
28052SOL    HW295881   1.639   2.357   8.267  0.1919 -2.2141  0.8443
28053SOL     OW95882   6.932   0.982   9.404  0.2187 -0.4223  0.0632
28053SOL    HW195883   7.015   0.935   9.398  0.7112  0.2012  1.6278
28053SOL    HW295884   6.955   1.074   9.395 -0.4539 -0.3156 -0.6446
28054SOL     OW95885   2.142   9.841  10.172 -0.1235  0.2232 -0.0479
28054SOL    HW195886   2.110   9.841  10.082 -0.6740  2.2444  0.0954
28054SOL    HW295887   2.236   9.860  10.164  0.2165 -1.4089 -0.2506
28055SOL     OW95888   7.512  11.585  11.821 -0.3183  0.4390  0.6102
28055SOL    HW195889   7.476  11.612  11.905 -1.5702 -2.2456  1.0403
28055SOL    HW295890   7.595  11.543  11.843 -1.0019 -0.9431  0.6452
28056SOL     OW95891   5.155   9.227   0.630  0.4630  0.0394  0.2217
28056SOL    HW195892   5.078   9.283   0.629  1.1253  0.9511 -0.3039
28056SOL    HW295893   5.226   9.281   0.596  0.8233 -1.5475 -1.7686
28057SOL     OW95894   9.800  11.416   9.588 -0.1399  0.3235  0.1394
28057SOL    HW195895   9.835  11.505   9.582  2.0434 -0.5205 -0.5098
28057SOL    HW295896   9.718  11.420   9.539 -0.3326  2.0709  0.5186
28058SOL     OW95897   8.620  10.881  11.143 -0.1404  0.1770 -0.6533
28058SOL    HW195898   8.666  10.947  11.195  1.0515 -1.0876 -0.0170
28058SOL    HW295899   8.689  10.842  11.088 -1.2120  0.8751 -2.5577
28059SOL     OW95900   2.360   2.615  11.275 -0.3632  0.3907  0.4493
28059SOL    HW195901   2.408   2.565  11.341 -1.3097 -0.6568  0.3808
28059SOL    HW295902   2.426   2.639  11.210  0.2796  0.0122  0.9467
28060SOL     OW95903  10.552   1.081   1.335  0.1624  0.7746 -0.3245
28060SOL    HW195904  10.557   1.046   1.246  1.8227 -1.1671  0.4606
28060SOL    HW295905  10.580   1.172   1.327 -0.5224  0.8734 -1.8855
28061SOL     OW95906   4.030   7.542   9.140  0.1182 -0.2234 -0.2335
28061SOL    HW195907   4.014   7.631   9.172 -1.9100  0.0499 -1.8046
28061SOL    HW295908   4.106   7.512   9.190 -0.0598  1.8259  1.4172
28062SOL     OW95909   2.692  10.733   9.858 -0.5931 -0.1560  0.4380
28062SOL    HW195910   2.735  10.670   9.801  0.4471  1.7646 -1.0247
28062SOL    HW295911   2.688  10.690   9.943  1.0071 -1.7648 -0.2337
28063SOL     OW95912   6.926  10.280   2.734  0.1414  0.0144  0.1068
28063SOL    HW195913   6.956  10.198   2.773 -2.0885 -0.3146  1.2788
28063SOL    HW295914   6.955  10.347   2.797  0.0977 -0.0938  0.2436
28064SOL     OW95915   9.537  10.914  10.103 -0.4938  0.2602  0.1980
28064SOL    HW195916   9.569  10.851  10.039 -1.6457 -3.9146  3.2527
28064SOL    HW295917   9.449  10.938  10.072 -0.8314 -1.2890 -0.1224
28065SOL     OW95918   3.054   1.272  10.686  0.1858  0.2459  0.6950
28065SOL    HW195919   3.146   1.278  10.657  0.3764 -1.2658  0.8982
28065SOL    HW295920   3.010   1.226  10.615 -0.7249  2.0244  0.0381
28066SOL     OW95921   7.655   2.083   4.170  0.1030  0.2069 -0.5003
28066SOL    HW195922   7.731   2.042   4.128  0.7699 -0.2638  1.0910
28066SOL    HW295923   7.686   2.169   4.196  0.6581 -0.5380  1.5400
28067SOL     OW95924   2.265   8.696   0.250  0.2190 -0.0684 -0.1101
28067SOL    HW195925   2.353   8.729   0.230  0.3325 -0.9868 -1.2425
28067SOL    HW295926   2.280   8.607   0.282 -0.2263  0.1942  0.8701
28068SOL     OW95927   5.634   5.347   2.667 -0.1089 -0.1825 -0.4742
28068SOL    HW195928   5.610   5.283   2.735 -1.7447  0.1415 -0.6995
28068SOL    HW295929   5.644   5.429   2.715  1.1158 -0.4159 -0.3090
28069SOL     OW95930   0.396   1.210   0.752  0.4299 -0.2412  0.1445
28069SOL    HW195931   0.473   1.257   0.784  0.2911 -0.9157  1.5656
28069SOL    HW295932   0.409   1.205   0.657  2.2522 -0.5247  0.3630
28070SOL     OW95933  10.584   0.916   2.141  0.0788 -0.1168  0.4602
28070SOL    HW195934  10.600   0.958   2.225 -1.1778  2.9533 -0.6769
28070SOL    HW295935  10.669   0.881   2.115  0.6965 -0.2830  2.5185
28071SOL     OW95936   5.445  11.916   3.075  0.3957 -0.5013  0.7095
28071SOL    HW195937   5.462  11.822   3.077  2.9416 -0.1936 -1.3473
28071SOL    HW295938   5.406  11.931   2.989  0.7216  0.4128  0.7171
28072SOL     OW95939   5.145   0.822   6.084  0.2818  0.0622 -0.6349
28072SOL    HW195940   5.195   0.904   6.087  0.4708  0.0661 -2.5763
28072SOL    HW295941   5.211   0.754   6.100  0.3387  0.2155 -0.1875
28073SOL     OW95942   4.104   6.832   9.538  0.3248  0.0934  0.0148
28073SOL    HW195943   4.028   6.827   9.480  0.4398 -0.6823 -0.0810
28073SOL    HW295944   4.179   6.840   9.478  0.2313  2.6616  0.1306
28074SOL     OW95945  10.502  10.483   5.705 -0.4153 -0.5157  0.0825
28074SOL    HW195946  10.552  10.409   5.740  0.1414 -0.2355 -0.1084
28074SOL    HW295947  10.412  10.451   5.701 -0.0330 -1.5337 -0.9417
28075SOL     OW95948   0.351   8.248  10.034 -0.3488 -0.5712 -0.5131
28075SOL    HW195949   0.403   8.267   9.956 -0.2966 -0.8055 -0.5345
28075SOL    HW295950   0.266   8.288  10.016 -1.4048 -3.2432 -2.0418
28076SOL     OW95951   2.074   3.411   6.484 -0.0890  0.4603  0.2569
28076SOL    HW195952   2.020   3.379   6.412  1.3871 -0.7868 -0.3696
28076SOL    HW295953   2.082   3.505   6.469  1.7876 -0.0046 -2.4366
28077SOL     OW95954   6.343   0.107   2.706 -0.1487 -0.3520 -0.2314
28077SOL    HW195955   6.316   0.126   2.796 -0.4474  0.2861 -0.4472
28077SOL    HW295956   6.284   0.159   2.652  0.0660 -0.6887 -0.7966
28078SOL     OW95957   7.304   9.276   1.465 -0.1038 -0.5802  0.0804
28078SOL    HW195958   7.290   9.193   1.419 -0.9351 -0.9913  1.0491
28078SOL    HW295959   7.319   9.251   1.556 -1.8289  0.3954  0.6663
28079SOL     OW95960   6.051   2.148  11.104 -0.1892  0.6159 -0.3878
28079SOL    HW195961   6.079   2.203  11.031 -0.6911  0.5925 -0.6047
28079SOL    HW295962   5.957   2.166  11.113  0.1356  1.7612  1.2340
28080SOL     OW95963   3.369   1.849   7.149 -0.4032  0.1738  0.3908
28080SOL    HW195964   3.346   1.938   7.177 -3.6008 -0.3946  0.0531
28080SOL    HW295965   3.352   1.795   7.227  1.7203 -0.1716  0.6588
28081SOL     OW95966   0.691   3.377   7.800  0.7439  0.4493  0.1007
28081SOL    HW195967   0.667   3.464   7.832  0.0170 -0.2462  1.5326
28081SOL    HW295968   0.608   3.330   7.790  1.2279 -0.9324  1.9731
28082SOL     OW95969   2.189   0.822   7.474  0.5332  0.2595  0.0126
28082SOL    HW195970   2.167   0.889   7.539  1.1759  0.2778  0.2156
28082SOL    HW295971   2.281   0.800   7.492  0.5896 -0.0401 -0.6186
28083SOL     OW95972   4.325   9.960   4.319  0.3552  0.3546 -0.4959
28083SOL    HW195973   4.320   9.912   4.237  0.4102  0.9253 -0.8371
28083SOL    HW295974   4.308   9.894   4.386 -0.4265  0.0298 -0.9989
28084SOL     OW95975   6.529   0.858   9.706 -0.3413  0.2255 -0.1296
28084SOL    HW195976   6.488   0.778   9.674 -0.1678  0.0110  0.1764
28084SOL    HW295977   6.459   0.923   9.706 -1.0728 -0.4773  1.7108
28085SOL     OW95978   9.661   1.174   6.208  0.6071  0.0676 -0.5826
28085SOL    HW195979   9.585   1.128   6.242  1.2001  0.2753  1.1527
28085SOL    HW295980   9.635   1.266   6.206 -0.3021 -0.1700 -3.2809
28086SOL     OW95981   9.805   0.368  11.105  0.8310  0.5917 -0.1634
28086SOL    HW195982   9.814   0.358  11.010 -0.1772  0.1864 -0.2343
28086SOL    HW295983   9.862   0.300  11.141  1.5974  1.0615 -0.4565
28087SOL     OW95984   7.288  10.906  11.649  0.1635  0.0598 -0.4990
28087SOL    HW195985   7.281  10.849  11.572  1.5705 -1.6744  0.6049
28087SOL    HW295986   7.321  10.850  11.718 -0.1222  1.8241  1.1452
28088SOL     OW95987   6.802   6.904   5.948  0.1367 -0.0405  0.5559
28088SOL    HW195988   6.808   6.970   6.017 -1.3352  2.9695 -1.8950
28088SOL    HW295989   6.712   6.911   5.917  0.6169 -1.5566 -1.3800
28089SOL     OW95990   1.965   9.919   7.356 -0.2363 -0.3720 -0.1161
28089SOL    HW195991   2.004   9.996   7.314 -0.5938  0.4116  0.9512
28089SOL    HW295992   1.901   9.954   7.418 -1.1869 -1.5697 -0.3683
28090SOL     OW95993   9.492   7.779   2.315  0.2010 -0.1061  0.0021
28090SOL    HW195994   9.555   7.707   2.311  0.7518  0.3922 -0.4817
28090SOL    HW295995   9.518   7.837   2.244 -1.3580 -0.3329 -0.8027
28091SOL     OW95996   2.469  11.784   3.750 -0.6709 -0.2287  0.3245
28091SOL    HW195997   2.483  11.702   3.702 -0.7587  0.0108 -0.1105
28091SOL    HW295998   2.540  11.841   3.721 -1.0072  0.0835  0.1172
28092SOL     OW95999   7.325   8.745   4.184 -0.2045  0.2539  0.1425
28092SOL    HW196000   7.408   8.754   4.230  0.4289 -1.4679 -0.5715
28092SOL    HW296001   7.340   8.675   4.121 -1.8577  0.7019 -0.8161
28093SOL     OW96002   6.288   2.626   0.288 -0.3610 -0.2763 -0.1718
28093SOL    HW196003   6.297   2.625   0.383  1.2263  0.3238 -0.2792
28093SOL    HW296004   6.339   2.551   0.258  3.7951  2.4287 -0.7487
28094SOL     OW96005   7.428   1.876   0.921 -0.0148 -0.3408 -0.0906
28094SOL    HW196006   7.499   1.938   0.911  0.2181  0.0580  3.0242
28094SOL    HW296007   7.459   1.796   0.878  1.4062  0.4654 -0.6004
28095SOL     OW96008   8.145   6.146  10.632 -0.7308 -0.4653  0.1022
28095SOL    HW196009   8.157   6.141  10.537  0.0385 -1.7291  0.2432
28095SOL    HW296010   8.233   6.154  10.667 -1.1241  2.0538  0.6546
28096SOL     OW96011  10.187   3.037   0.860 -0.1241 -0.0304  0.0288
28096SOL    HW196012  10.137   2.957   0.843 -1.4018  1.1033 -2.0436
28096SOL    HW296013  10.239   3.050   0.781  1.0555  0.5071  0.8759
28097SOL     OW96014   7.961   6.351   6.834  0.1967 -0.0072  0.4383
28097SOL    HW196015   7.909   6.273   6.847  0.1105  0.2906  2.1315
28097SOL    HW296016   7.994   6.344   6.744 -1.7049 -0.8043 -0.2451
28098SOL     OW96017   3.577   3.940   7.359  0.0589  0.5419  0.5851
28098SOL    HW196018   3.590   3.966   7.267  1.3847 -0.4671  0.4578
28098SOL    HW296019   3.651   3.883   7.378 -0.9034 -0.3056  1.9064
28099SOL     OW96020   1.506   0.143   7.343 -0.2651 -0.5029  0.7110
28099SOL    HW196021   1.578   0.146   7.279 -0.0794  0.4971  0.9520
28099SOL    HW296022   1.485   0.050   7.351  1.1962 -0.8375  0.8468
28100SOL     OW96023   8.097   3.992   3.451  0.1600 -0.0721  0.5190
28100SOL    HW196024   8.054   3.940   3.383 -2.4053  1.2856  0.9789
28100SOL    HW296025   8.092   3.937   3.529 -2.6141  0.7233  1.0232
28101SOL     OW96026   6.203   0.685   9.720  0.3443  0.3645 -0.1903
28101SOL    HW196027   6.120   0.681   9.672  0.4802  0.2715 -0.4201
28101SOL    HW296028   6.243   0.599   9.705  0.7566  0.6218 -0.5759
28102SOL     OW96029   8.131  10.185   8.428 -0.1095  0.2800  0.2911
28102SOL    HW196030   8.198  10.254   8.428  0.8090 -0.5692 -1.2817
28102SOL    HW296031   8.115  10.167   8.336 -1.1766 -0.8295  0.6734
28103SOL     OW96032  10.916  10.322  10.547  0.8399  0.0616 -0.3175
28103SOL    HW196033  10.861  10.355  10.476 -0.7314  0.7136  1.1293
28103SOL    HW296034  11.001  10.307  10.507 -0.2960 -0.7235 -2.5972
28104SOL     OW96035   3.381   9.480   7.619  0.2669  0.3884  0.4003
28104SOL    HW196036   3.337   9.548   7.670  0.0674  0.1019  0.6114
28104SOL    HW296037   3.344   9.488   7.531 -0.8528 -0.4124  0.7791
28105SOL     OW96038   9.640   0.863   3.764  0.0735  0.1123 -0.0617
28105SOL    HW196039   9.650   0.949   3.804 -0.4865 -0.0553  0.4463
28105SOL    HW296040   9.730   0.829   3.759  0.8098  2.1586 -3.6194
28106SOL     OW96041   3.474   7.425  11.804  0.2781 -0.0719  0.3666
28106SOL    HW196042   3.496   7.352  11.863  0.1692 -1.6927 -1.4867
28106SOL    HW296043   3.558   7.457  11.773  0.3104 -0.8379 -0.4025
28107SOL     OW96044  11.954   9.051   8.203 -0.2303  0.2192  0.0549
28107SOL    HW196045  12.008   9.068   8.281 -0.0750  0.1671 -0.0401
28107SOL    HW296046  11.969   9.126   8.146 -0.8036  0.5447  0.3249
28108SOL     OW96047   7.052   5.294   9.294  0.3069  0.3068  1.0541
28108SOL    HW196048   6.996   5.230   9.338  0.8104 -0.1648  1.0158
28108SOL    HW296049   7.045   5.272   9.201  1.0776 -0.1931  1.1008
28109SOL     OW96050   2.678   3.216   8.938  0.2458 -0.2964 -0.6235
28109SOL    HW196051   2.773   3.214   8.930  0.3288  1.5228 -0.5107
28109SOL    HW296052   2.660   3.188   9.027  0.6884 -0.4978 -0.5963
28110SOL     OW96053  10.137   4.465   3.939 -0.0094  0.6707 -0.1186
28110SOL    HW196054  10.211   4.427   3.892  0.8982  2.3616 -0.1341
28110SOL    HW296055  10.178   4.514   4.011 -1.3057 -1.3051  2.1218
28111SOL     OW96056   8.924   6.805   4.755  0.6434  0.3034 -0.5684
28111SOL    HW196057   8.943   6.716   4.783 -1.2238 -0.3423 -1.2091
28111SOL    HW296058   9.000   6.832   4.704  1.8943 -0.3299  0.8683
28112SOL     OW96059   7.969   1.946   6.101 -0.8480  0.0056 -0.0035
28112SOL    HW196060   7.941   1.855   6.103 -0.3452 -0.1432  1.6490
28112SOL    HW296061   8.028   1.955   6.175 -0.8072  1.6554 -0.1887
28113SOL     OW96062   0.482   0.647   6.007  0.1329 -0.1608 -0.4315
28113SOL    HW196063   0.476   0.656   5.912  0.5864 -0.0321 -0.4491
28113SOL    HW296064   0.403   0.597   6.032 -0.1695  0.1150 -0.8289
28114SOL     OW96065   5.755   5.022   1.366 -0.4600 -0.2221  0.2554
28114SOL    HW196066   5.744   5.111   1.399 -0.5187 -0.6410  1.3804
28114SOL    HW296067   5.840   4.994   1.400 -0.7470 -0.8388  0.4793
28115SOL     OW96068   5.877   5.133   1.117  0.5115  0.6838 -0.4579
28115SOL    HW196069   5.822   5.094   1.186 -0.6500 -0.4155 -1.9506
28115SOL    HW296070   5.899   5.220   1.151  0.6842 -0.1234  1.6614
28116SOL     OW96071   6.440   7.355   0.105 -0.7109 -0.2918 -0.2718
28116SOL    HW196072   6.348   7.356   0.079 -0.9225 -0.0457  0.4540
28116SOL    HW296073   6.479   7.426   0.054 -1.0095 -0.1461 -0.3046
28117SOL     OW96074   9.029   3.984   6.734  0.2670 -0.5645 -0.4093
28117SOL    HW196075   9.103   4.013   6.788  1.0505 -0.3263 -1.5798
28117SOL    HW296076   9.063   3.983   6.645 -1.6801  1.6296 -1.3071
28118SOL     OW96077  11.201   6.157  11.540  0.0323 -0.0513 -0.3399
28118SOL    HW196078  11.181   6.163  11.447 -0.5253 -1.3181 -0.3096
28118SOL    HW296079  11.117   6.170  11.584 -0.3013 -2.5302 -0.1278
28119SOL     OW96080   8.343   6.342   6.512 -0.2125 -0.1458 -0.4480
28119SOL    HW196081   8.290   6.422   6.516 -2.5520 -1.6230  0.5932
28119SOL    HW296082   8.365   6.324   6.604  2.4689  0.6008 -0.8876
28120SOL     OW96083   2.771   5.108   7.921  0.0170 -0.0414  0.8440
28120SOL    HW196084   2.758   5.033   7.979  0.9072 -1.3279 -0.5799
28120SOL    HW296085   2.855   5.145   7.949 -0.0301 -0.0598  1.0129
28121SOL     OW96086   2.824   2.483   5.395  0.3616 -0.5128  0.3063
28121SOL    HW196087   2.789   2.542   5.328 -0.1428  0.5873  1.4967
28121SOL    HW296088   2.918   2.499   5.394  0.3347 -0.3601  0.0091
28122SOL     OW96089   1.597   5.689   2.944 -0.8577  0.7912 -0.9701
28122SOL    HW196090   1.571   5.598   2.928  1.1571  0.0807 -0.4541
28122SOL    HW296091   1.643   5.687   3.027 -0.5651  2.2611 -1.0692
28123SOL     OW96092   2.380  10.213   6.576 -0.4897  0.4619 -0.0529
28123SOL    HW196093   2.386  10.134   6.522 -1.9555  1.0067 -1.0608
28123SOL    HW296094   2.286  10.225   6.590 -0.2095  0.9843  1.7035
28124SOL     OW96095   2.878   1.273   3.047 -0.3531  0.0924 -0.1067
28124SOL    HW196096   2.927   1.211   3.101 -0.4029  0.2580  0.1298
28124SOL    HW296097   2.877   1.233   2.960 -1.0973 -0.6456  0.2220
28125SOL     OW96098   2.991  11.651   3.720 -0.5564  0.9980  0.8034
28125SOL    HW196099   2.992  11.584   3.652 -1.9377  0.9268  0.8269
28125SOL    HW296100   3.024  11.607   3.798  0.8777  1.0314  0.2512
28126SOL     OW96101   1.669   0.743   2.546 -0.2939  0.2077 -0.3880
28126SOL    HW196102   1.689   0.685   2.473  3.0182  0.8508 -0.1389
28126SOL    HW296103   1.674   0.831   2.509  0.2748  0.5049  0.3757
28127SOL     OW96104   3.217   3.588   7.324 -0.1953 -0.1377  0.1321
28127SOL    HW196105   3.275   3.558   7.254 -1.8625  0.3682 -1.5276
28127SOL    HW296106   3.250   3.676   7.346  1.4219 -0.9810  1.2974
28128SOL     OW96107   4.125  11.495   2.359  0.0029  0.6402 -0.1165
28128SOL    HW196108   4.033  11.492   2.384 -0.3367  3.2009 -0.8002
28128SOL    HW296109   4.126  11.480   2.265  0.0729  2.3122 -0.4031
28129SOL     OW96110   0.783   4.360   2.756  0.2623 -0.6302  0.5663
28129SOL    HW196111   0.870   4.380   2.792  0.5091  1.1762 -0.8816
28129SOL    HW296112   0.801   4.301   2.683  0.4442  0.6210 -0.4414
28130SOL     OW96113   7.253  11.542   2.255  0.1530  0.0206  0.3513
28130SOL    HW196114   7.275  11.633   2.232 -0.8016  0.3133  0.5308
28130SOL    HW296115   7.197  11.550   2.332  0.6966 -0.7786  0.8334
28131SOL     OW96116  11.628   7.598  11.665 -0.2365 -0.3302 -0.6445
28131SOL    HW196117  11.670   7.657  11.602  0.0707  0.1314 -0.0153
28131SOL    HW296118  11.591   7.656  11.732 -2.1071 -0.6937 -1.2930
28132SOL     OW96119   3.151   6.834   0.757 -0.3921  0.2388 -0.3129
28132SOL    HW196120   3.128   6.899   0.823  0.2062 -1.1945  1.4103
28132SOL    HW296121   3.099   6.857   0.680 -0.8707  2.1748  0.5443
28133SOL     OW96122   0.407   7.019   9.743 -0.1645 -0.0972  0.2829
28133SOL    HW196123   0.419   7.063   9.827 -2.2863  0.7133  0.2306
28133SOL    HW296124   0.323   6.973   9.753  0.7936 -2.1631 -0.5198
28134SOL     OW96125   2.800   0.617   0.246 -0.8386  0.0642  0.1387
28134SOL    HW196126   2.809   0.585   0.336 -0.8614  0.5839  0.3305
28134SOL    HW296127   2.789   0.538   0.193 -0.1457 -0.2953  0.5094
28135SOL     OW96128   3.279   6.919   5.802  0.1237 -0.5608 -0.2825
28135SOL    HW196129   3.207   6.957   5.851  0.2314 -1.0852  0.3030
28135SOL    HW296130   3.354   6.974   5.823  0.3163 -1.1656  0.6924
28136SOL     OW96131   9.531   8.862   8.233  0.6622 -0.5219 -0.0919
28136SOL    HW196132   9.481   8.848   8.313  1.9713  0.8773  1.0352
28136SOL    HW296133   9.622   8.849   8.259  1.4493  3.1732 -0.4401
28137SOL     OW96134   7.337   5.849   1.717 -0.2443  0.3020 -0.0510
28137SOL    HW196135   7.384   5.831   1.636 -0.7885  0.3316 -0.3787
28137SOL    HW296136   7.340   5.944   1.726 -2.7109  0.6089 -1.6191
28138SOL     OW96137   3.264   5.361   4.253 -0.1460 -0.2761 -0.2684
28138SOL    HW196138   3.273   5.403   4.338  0.7087  2.2034 -1.4835
28138SOL    HW296139   3.285   5.430   4.190 -1.3602 -1.8352 -2.5274
28139SOL     OW96140   3.985   3.259   5.109  0.0231  0.1539 -0.1441
28139SOL    HW196141   3.961   3.342   5.149  0.7382 -0.3737  1.4894
28139SOL    HW296142   3.983   3.196   5.182  1.3100 -0.8716 -0.9395
28140SOL     OW96143  10.667   5.162   3.471 -0.3365 -0.1553 -0.5960
28140SOL    HW196144  10.760   5.140   3.473 -0.7736 -2.2040 -0.7539
28140SOL    HW296145  10.645   5.183   3.562  0.6138  2.1046 -0.8224
28141SOL     OW96146   2.129   1.815   6.242  0.0112  0.4630  0.5302
28141SOL    HW196147   2.146   1.802   6.148  1.9726  0.2026  0.8825
28141SOL    HW296148   2.040   1.848   6.245 -0.6705 -0.9873 -1.3294
28142SOL     OW96149   7.398   5.329   9.397 -0.2044 -0.1332 -0.2594
28142SOL    HW196150   7.476   5.381   9.416 -0.3222  1.5912 -3.6339
28142SOL    HW296151   7.432   5.249   9.357 -0.0706  0.8275 -2.1771
28143SOL     OW96152   0.675  11.062  10.647 -0.1776  0.4181 -0.6942
28143SOL    HW196153   0.723  11.002  10.705  0.2034  0.8055 -0.5979
28143SOL    HW296154   0.733  11.073  10.572  0.1485  1.3193 -0.3302
28144SOL     OW96155   0.836   2.444   5.808  0.0695  0.1016  0.1225
28144SOL    HW196156   0.802   2.431   5.897  0.1835 -2.4312 -0.1193
28144SOL    HW296157   0.923   2.481   5.821  0.9244 -2.1133  1.2483
28145SOL     OW96158   6.248   0.300   4.610 -0.3031  0.8562  0.0578
28145SOL    HW196159   6.326   0.320   4.559 -0.5271 -0.0942 -0.7021
28145SOL    HW296160   6.281   0.267   4.694  0.0899  1.2947  0.0751
28146SOL     OW96161   8.943   4.646  11.611  0.2224  0.0238 -0.8701
28146SOL    HW196162   8.972   4.581  11.675 -0.0324  0.6742 -0.0679
28146SOL    HW296163   8.885   4.704  11.661 -1.6788 -0.6574 -2.1919
28147SOL     OW96164   1.154   0.069   9.239 -0.3254 -0.4855  0.6067
28147SOL    HW196165   1.060   0.051   9.232  0.0634 -2.1745 -1.4266
28147SOL    HW296166   1.185   0.008   9.306 -0.3140 -1.7958 -0.5485
28148SOL     OW96167   3.093   2.451   4.467  0.7056  0.0626  0.0635
28148SOL    HW196168   3.173   2.481   4.510  0.3468 -0.5310  1.1814
28148SOL    HW296169   3.037   2.420   4.539 -0.8705  1.2353 -0.6135
28149SOL     OW96170   0.569   2.286   6.973 -0.2387 -0.4745 -0.4912
28149SOL    HW196171   0.509   2.213   6.991  0.0289 -0.2996  1.2784
28149SOL    HW296172   0.525   2.337   6.906 -1.3293 -1.2205 -0.3737
28150SOL     OW96173   7.158   9.852   2.493 -0.0977 -0.0379  0.3319
28150SOL    HW196174   7.232   9.809   2.536 -0.7893 -1.9045 -0.2008
28150SOL    HW296175   7.190   9.873   2.405  0.0363 -0.1447  0.3546
28151SOL     OW96176   4.520   9.483   4.090 -0.0324  0.4190 -0.6111
28151SOL    HW196177   4.510   9.388   4.088  0.2939  0.3865 -0.9661
28151SOL    HW296178   4.613   9.498   4.072  0.4685  0.7268  1.9061
28152SOL     OW96179   5.594  11.680  10.151  0.4062  0.4350 -0.2419
28152SOL    HW196180   5.549  11.728  10.220  1.4573  0.2269  0.6168
28152SOL    HW296181   5.681  11.720  10.146  0.7453 -0.3254 -0.6116
28153SOL     OW96182  10.796   5.868   4.071  0.1188 -1.0245 -0.0757
28153SOL    HW196183  10.804   5.959   4.043 -1.6529 -0.8270 -0.0313
28153SOL    HW296184  10.755   5.824   3.996 -1.6571 -1.1697  0.9450
28154SOL     OW96185   2.057   3.379   7.508  0.7522  0.1021 -0.6526
28154SOL    HW196186   2.069   3.287   7.485  1.0916 -0.0908  0.2631
28154SOL    HW296187   1.997   3.378   7.582  0.4063  0.6505 -0.9183
28155SOL     OW96188   7.682   3.340  10.819 -0.4403  0.2040  0.2600
28155SOL    HW196189   7.634   3.332  10.737  0.4717  1.7431 -0.4699
28155SOL    HW296190   7.630   3.402  10.871 -0.9375 -0.6521  0.8093
28156SOL     OW96191   6.809   0.811  11.511 -0.5098 -0.2010 -0.2635
28156SOL    HW196192   6.896   0.840  11.537 -0.6355 -0.5591  0.6056
28156SOL    HW296193   6.758   0.813  11.592 -0.5892 -2.5536 -0.1842
28157SOL     OW96194   4.638   5.070   6.352  0.1644 -0.5875 -0.2483
28157SOL    HW196195   4.543   5.064   6.352  0.1485 -0.3380 -0.6789
28157SOL    HW296196   4.668   4.981   6.370 -0.1362 -0.9551 -1.4953
28158SOL     OW96197   8.052   0.312  11.532  0.3411  0.8338  0.2452
28158SOL    HW196198   8.115   0.363  11.583 -1.5319 -0.4770  4.3087
28158SOL    HW296199   8.095   0.227  11.520  1.0356  1.3381 -1.0767
28159SOL     OW96200   7.272   9.283   7.829  0.6943  0.2329  0.0866
28159SOL    HW196201   7.318   9.249   7.906  0.2836 -0.4789  0.0333
28159SOL    HW296202   7.285   9.378   7.833 -1.9423  0.6565  2.8609
28160SOL     OW96203   8.294   7.464   7.767 -0.2977  0.2652 -0.0965
28160SOL    HW196204   8.332   7.382   7.798 -0.2547 -0.0967 -1.0805
28160SOL    HW296205   8.366   7.508   7.722 -0.7972 -0.0127 -1.1905
28161SOL     OW96206   5.954   4.099   1.665 -0.1291  0.5220  0.2732
28161SOL    HW196207   5.951   4.012   1.624 -1.4501  0.7896 -0.2512
28161SOL    HW296208   5.915   4.157   1.601  0.6591  1.5109  0.6616
28162SOL     OW96209   7.543   1.221   3.985  0.0452 -0.4673 -0.1030
28162SOL    HW196210   7.624   1.204   3.937 -0.3907  0.8093 -1.3536
28162SOL    HW296211   7.570   1.271   4.062  0.4543  0.0072 -0.5505
28163SOL     OW96212   9.526   8.526   1.037  0.0542 -0.7892  0.1693
28163SOL    HW196213   9.448   8.566   1.074 -0.4876 -1.3263 -0.3720
28163SOL    HW296214   9.554   8.587   0.969  1.3901  0.4941  1.7721
28164SOL     OW96215   3.766   3.664   8.691 -0.3930 -0.1846  0.2609
28164SOL    HW196216   3.843   3.607   8.696 -1.0887 -1.1331  0.4580
28164SOL    HW296217   3.758   3.686   8.598 -0.4717 -0.9246  0.0844
28165SOL     OW96218  11.357   2.539   5.034 -0.0903 -0.5822  0.1401
28165SOL    HW196219  11.296   2.561   5.105 -0.7319 -0.4680 -0.4343
28165SOL    HW296220  11.303   2.493   4.970 -0.2011  1.7470 -1.5770
28166SOL     OW96221  11.405   7.615  10.372 -0.0954 -0.1718 -0.2086
28166SOL    HW196222  11.400   7.530  10.328  2.3971 -0.3082 -0.3338
28166SOL    HW296223  11.456   7.670  10.313 -0.6733  1.0711  0.4106
28167SOL     OW96224   4.320   1.842   7.832 -0.2732  0.2032 -0.3876
28167SOL    HW196225   4.314   1.882   7.919  1.0537  0.4073 -0.3681
28167SOL    HW296226   4.341   1.915   7.774 -2.8070  0.3799 -1.2019
28168SOL     OW96227  10.239   2.543   9.014 -0.3748 -0.5241  0.6189
28168SOL    HW196228  10.288   2.603   8.959 -1.3114  1.9634  2.3294
28168SOL    HW296229  10.305   2.492   9.061  0.5187  0.8268  0.8535
28169SOL     OW96230   4.343   0.024   3.294 -0.0879 -0.0816  0.0145
28169SOL    HW196231   4.411   0.092   3.299 -0.7297  0.5114  0.9514
28169SOL    HW296232   4.262   0.068   3.319 -0.1257 -1.7089  3.3047
28170SOL     OW96233   9.432   7.681   7.172 -0.0557 -0.0768  0.2014
28170SOL    HW196234   9.344   7.701   7.140  0.8143  2.8098 -0.6613
28170SOL    HW296235   9.465   7.616   7.110 -0.7296  0.6533 -0.9806
28171SOL     OW96236   8.784   0.016   0.741 -0.1189  0.0137  0.0017
28171SOL    HW196237   8.842   0.013   0.817 -0.3868 -0.3870  0.1903
28171SOL    HW296238   8.703   0.053   0.774 -0.4666 -0.7899  0.0638
28172SOL     OW96239   9.624   2.683   6.796  0.0432 -0.1978  0.0402
28172SOL    HW196240   9.652   2.592   6.800 -0.3733 -0.3729 -0.8426
28172SOL    HW296241   9.528   2.679   6.792 -0.2970  0.4101  3.8139
28173SOL     OW96242   0.597   0.493   0.411 -1.0615  0.4130  0.2729
28173SOL    HW196243   0.633   0.406   0.426 -1.1715  0.0617 -1.2942
28173SOL    HW296244   0.634   0.548   0.481  0.0885 -0.5862  0.4651
28174SOL     OW96245   7.835   9.925  11.186  0.5574 -0.4512 -0.1254
28174SOL    HW196246   7.795   9.932  11.273  1.3667  4.4463  0.1836
28174SOL    HW296247   7.929   9.919  11.204  0.6821 -0.0583 -0.6164
28175SOL     OW96248  10.082   6.275   2.639 -0.0277  0.1327 -0.3556
28175SOL    HW196249  10.044   6.188   2.646  0.4093 -0.1062 -0.8523
28175SOL    HW296250  10.007   6.335   2.647 -0.2207 -0.2497  0.8416
28176SOL     OW96251   0.801  10.134  10.258  0.0819  0.3224 -0.1151
28176SOL    HW196252   0.727  10.095  10.212  0.1284  0.5320 -0.3755
28176SOL    HW296253   0.846  10.185  10.190  1.5519 -1.3026 -0.4279
28177SOL     OW96254   9.597  11.005   8.994 -0.4683  0.1572 -0.1213
28177SOL    HW196255   9.531  11.068   9.022  0.4631  0.6684  1.0189
28177SOL    HW296256   9.638  10.976   9.076  1.1938  0.3998 -0.8245
28178SOL     OW96257  11.797   5.233   1.222 -0.3573  0.7621 -0.7457
28178SOL    HW196258  11.831   5.217   1.310 -0.8977 -0.3334 -0.7255
28178SOL    HW296259  11.789   5.147   1.182  0.5033  1.2813 -2.1316
28179SOL     OW96260   9.844   7.456   9.344 -0.3212 -0.0093 -0.3464
28179SOL    HW196261   9.771   7.416   9.296 -0.4273  0.7682 -0.8504
28179SOL    HW296262   9.919   7.400   9.324 -0.4822  0.0020 -0.9910
28180SOL     OW96263  11.337   4.804   1.494  0.5354 -0.1138  0.0836
28180SOL    HW196264  11.336   4.876   1.431  1.1101  1.6570  1.9980
28180SOL    HW296265  11.391   4.737   1.453  0.6220  0.8429 -1.4352
28181SOL     OW96266   4.406   4.245   9.256  0.1553 -0.1902  0.3865
28181SOL    HW196267   4.386   4.152   9.244  0.2072 -0.0257 -1.1362
28181SOL    HW296268   4.436   4.274   9.170 -2.0346  1.7857  0.1865
28182SOL     OW96269   8.994  11.194   6.574  0.2663 -0.1101  0.3169
28182SOL    HW196270   8.904  11.176   6.599  0.6016 -0.9629  0.9564
28182SOL    HW296271   8.988  11.266   6.512 -0.9032 -0.5179 -0.0701
28183SOL     OW96272   9.373   5.244   4.989  0.1481 -0.0280 -0.1555
28183SOL    HW196273   9.408   5.208   4.908  0.2631 -1.9657  0.7130
28183SOL    HW296274   9.291   5.286   4.964  0.1662 -0.6292 -1.2648
28184SOL     OW96275   7.427   0.878   0.550  0.3138  0.0101  0.4568
28184SOL    HW196276   7.408   0.785   0.567  0.1472 -0.2828 -1.1035
28184SOL    HW296277   7.515   0.877   0.510 -0.0655  0.4064 -0.4152
28185SOL     OW96278  10.880   7.421   6.421 -0.0219 -0.0399  0.3650
28185SOL    HW196279  10.819   7.422   6.348 -2.5455 -1.3137  2.3091
28185SOL    HW296280  10.920   7.334   6.418  1.6648  0.7235 -0.7887
28186SOL     OW96281   4.384   9.655   6.125 -0.1350 -0.4878 -0.7176
28186SOL    HW196282   4.347   9.693   6.205 -0.4051 -3.0184  0.4839
28186SOL    HW296283   4.476   9.641   6.146 -0.2503 -1.3431 -0.7416
28187SOL     OW96284   1.574   9.556   1.747 -0.7547 -0.3067 -0.0407
28187SOL    HW196285   1.589   9.574   1.840 -1.1263 -0.0773 -0.0241
28187SOL    HW296286   1.504   9.616   1.722 -1.9008 -1.6029 -0.0272
28188SOL     OW96287   1.203   2.422   3.480 -0.0744 -0.1324  0.1620
28188SOL    HW196288   1.141   2.401   3.551  1.3950 -1.8599  1.0098
28188SOL    HW296289   1.289   2.405   3.518  0.7350 -1.9744 -2.3039
28189SOL     OW96290   0.536   4.808   6.831 -0.0581  0.2622 -0.5278
28189SOL    HW196291   0.611   4.763   6.791  0.0620  1.0207 -1.2049
28189SOL    HW296292   0.494   4.852   6.757 -1.1594 -0.1238 -0.1453
28190SOL     OW96293   4.041   8.436   7.881 -0.2664  0.0678  0.2250
28190SOL    HW196294   4.026   8.420   7.788 -1.2724  0.1910  0.3613
28190SOL    HW296295   3.955   8.430   7.921  0.2667 -0.8314  1.2900
28191SOL     OW96296  10.740   5.299   5.455 -0.2355 -0.2553 -0.2203
28191SOL    HW196297  10.744   5.394   5.464 -1.0853 -0.2911  0.7728
28191SOL    HW296298  10.646   5.279   5.453 -0.0796 -1.1243  0.4630
28192SOL     OW96299   6.134   2.626   3.003  0.0227  0.6602  0.3575
28192SOL    HW196300   6.221   2.611   3.041 -0.4799 -2.5748  0.5391
28192SOL    HW296301   6.073   2.604   3.073 -0.9138 -0.9515 -0.8936
28193SOL     OW96302   7.845   3.040   0.251  0.5829 -0.5988 -0.0900
28193SOL    HW196303   7.813   3.034   0.341 -0.3002 -1.5365 -0.4513
28193SOL    HW296304   7.773   3.007   0.197  1.6742 -1.5369 -1.0276
28194SOL     OW96305   8.970   8.925   7.507  0.0162 -0.0426 -0.1971
28194SOL    HW196306   8.899   8.947   7.447  0.6134 -0.6507 -1.1723
28194SOL    HW296307   9.018   8.855   7.462  0.2441 -0.8152  1.1878
28195SOL     OW96308   3.906   2.816   2.277 -0.4652 -0.4668 -0.3229
28195SOL    HW196309   3.855   2.746   2.236 -1.0423  0.1512 -0.6738
28195SOL    HW296310   3.969   2.843   2.210 -0.5502 -0.3370 -0.3507
28196SOL     OW96311   3.059   9.670   6.609  0.5622 -0.7101  0.7594
28196SOL    HW196312   3.032   9.700   6.522  0.6360  0.6472  1.1841
28196SOL    HW296313   3.147   9.704   6.620  0.6500 -1.0967  1.2710
28197SOL     OW96314   8.133   5.749  11.128 -0.0463  0.0396  0.3679
28197SOL    HW196315   8.152   5.730  11.036 -2.0761  1.6685 -0.4906
28197SOL    HW296316   8.127   5.663  11.169  2.7612 -0.6893 -0.5411
28198SOL     OW96317   2.700   1.477   5.743  0.5243  0.4204 -0.2924
28198SOL    HW196318   2.628   1.539   5.736  0.4707  0.3272 -0.5798
28198SOL    HW296319   2.758   1.514   5.810  0.9686  1.2625 -1.1113
28199SOL     OW96320   8.729   4.430   3.005 -0.0010  0.2232  0.1814
28199SOL    HW196321   8.724   4.337   3.027 -0.6569  0.4007  0.8125
28199SOL    HW296322   8.819   4.455   3.022 -0.0109 -0.1197  0.7281
28200SOL     OW96323  10.157   2.482   1.780  0.8277  0.5616 -0.6633
28200SOL    HW196324  10.240   2.482   1.828  1.6393 -1.0262 -1.9760
28200SOL    HW296325  10.181   2.461   1.690 -1.0480 -0.4514 -0.9769
28201SOL     OW96326   1.564  11.447   9.016  0.1843  0.0747 -0.0773
28201SOL    HW196327   1.658  11.427   9.017  0.1553 -0.3894  3.1658
28201SOL    HW296328   1.529  11.393   8.944  1.7505 -3.4306  1.5496
28202SOL     OW96329   6.905   0.062   1.915 -0.1605  0.1724 -1.0642
28202SOL    HW196330   6.939   0.136   1.964 -0.9363  0.1446 -0.4601
28202SOL    HW296331   6.884   0.099   1.829 -2.9111  1.3301 -0.0210
28203SOL     OW96332   5.180   6.516  10.986  0.1000  0.2399  0.1772
28203SOL    HW196333   5.139   6.478  11.063 -0.5521 -0.1831 -0.3641
28203SOL    HW296334   5.233   6.588  11.020  2.6140 -2.0327  1.4539
28204SOL     OW96335   9.750   0.831   0.868  0.0980 -0.4223  0.2603
28204SOL    HW196336   9.804   0.896   0.823  0.9014 -2.7623 -2.4780
28204SOL    HW296337   9.689   0.800   0.801 -2.3813 -0.3681  2.3410
28205SOL     OW96338   1.014   7.873   4.329  0.1104 -0.2536 -0.1816
28205SOL    HW196339   0.988   7.873   4.422 -1.9471 -0.8042 -0.7071
28205SOL    HW296340   0.934   7.897   4.282  1.7721  2.9565 -1.7106
28206SOL     OW96341   3.810   4.218   6.839  0.2549  0.0315  0.4314
28206SOL    HW196342   3.770   4.273   6.906  0.6479  0.3860  0.3833
28206SOL    HW296343   3.738   4.192   6.782 -0.0101  0.0882  0.7423
28207SOL     OW96344   2.212   9.756   7.313  0.2590 -0.0967 -0.5991
28207SOL    HW196345   2.257   9.831   7.351 -0.9971  0.8422 -0.8990
28207SOL    HW296346   2.147   9.794   7.254 -1.4032 -1.3226  0.3321
28208SOL     OW96347   5.497  11.387   0.145 -0.3127  0.0813 -0.2913
28208SOL    HW196348   5.530  11.300   0.170 -0.1008  0.4630  0.8008
28208SOL    HW296349   5.455  11.373   0.060 -1.2287 -1.3161  0.3647
28209SOL     OW96350  10.702   2.575   5.524 -0.0590  0.0123  0.3572
28209SOL    HW196351  10.609   2.581   5.502  0.4501  0.0810 -2.0340
28209SOL    HW296352  10.717   2.646   5.586 -1.3752  0.6859 -0.0650
28210SOL     OW96353   4.889   5.805  10.274 -0.0166  0.3519  0.3803
28210SOL    HW196354   4.981   5.781  10.286 -0.4605 -1.4391  0.5792
28210SOL    HW296355   4.861   5.834  10.361  0.1613  0.1035  0.5232
28211SOL     OW96356   7.325   7.177   7.148  0.1886 -0.0714  0.4978
28211SOL    HW196357   7.348   7.270   7.156 -0.2108  0.4235 -2.6191
28211SOL    HW296358   7.230   7.177   7.143  0.1781 -0.6836  0.6584
28212SOL     OW96359   3.426  10.776   9.514  0.0803  0.1749  0.0194
28212SOL    HW196360   3.521  10.770   9.516  0.0010 -1.6798 -0.4418
28212SOL    HW296361   3.395  10.694   9.551 -1.3266 -0.0683 -1.5405
28213SOL     OW96362   3.574   2.138   5.536 -0.5400 -0.0856  0.2088
28213SOL    HW196363   3.562   2.226   5.500 -0.7197 -0.3444 -0.3720
28213SOL    HW296364   3.583   2.082   5.459  0.5516 -0.4422  0.5852
28214SOL     OW96365   4.658   5.305   5.724 -0.5155  0.0796 -0.5107
28214SOL    HW196366   4.663   5.363   5.648  0.2440  1.1526  0.3394
28214SOL    HW296367   4.601   5.351   5.786  0.0836 -0.0765  0.1684
28215SOL     OW96368   7.477   3.496   2.481 -0.2157  0.1194  0.1155
28215SOL    HW196369   7.449   3.580   2.518 -1.0362 -0.1109  0.0259
28215SOL    HW296370   7.402   3.438   2.492  0.8841 -1.1085  1.6901
28216SOL     OW96371   2.562   0.028   9.022  0.3875  0.4765 -0.2328
28216SOL    HW196372   2.644  -0.002   9.061 -1.0464 -2.7372  0.6847
28216SOL    HW296373   2.571   0.008   8.929  0.1453 -1.3753  0.0979
28217SOL     OW96374   6.452   1.192   1.297  0.2280 -0.0984  0.4916
28217SOL    HW196375   6.436   1.286   1.293  0.6533 -0.0551 -0.6389
28217SOL    HW296376   6.365   1.153   1.300  0.0573  0.3411  1.6775
28218SOL     OW96377   8.039   9.933   3.861  0.6648  0.1770 -0.2037
28218SOL    HW196378   7.974  10.003   3.849  1.0577  0.8117  1.1432
28218SOL    HW296379   8.061   9.937   3.954  2.2363 -0.3745 -0.5189
28219SOL     OW96380   1.508   9.356   4.565 -0.4312  0.3330  0.4924
28219SOL    HW196381   1.457   9.423   4.610 -1.1604  0.4927 -0.5307
28219SOL    HW296382   1.442   9.295   4.531  0.1520 -0.2331  0.3601
28220SOL     OW96383  11.260   4.535  10.900 -0.1301 -0.4349  0.7264
28220SOL    HW196384  11.168   4.530  10.927 -0.0176 -1.3357  0.9874
28220SOL    HW296385  11.266   4.478  10.824  0.3516 -0.9336  1.1325
28221SOL     OW96386   5.541   4.805   0.294 -0.5889 -0.7787  0.5898
28221SOL    HW196387   5.488   4.883   0.280  0.8045  0.3673  1.4800
28221SOL    HW296388   5.597   4.826   0.368  2.4117 -1.2227 -1.3788
28222SOL     OW96389   3.312   0.872  10.336  0.3625  0.0757 -0.2104
28222SOL    HW196390   3.331   0.819  10.259  0.4847  1.0185 -0.8352
28222SOL    HW296391   3.265   0.948  10.303  2.5613  1.7526  0.2728
28223SOL     OW96392   3.570   9.818   6.816 -0.2517 -0.1116  0.4929
28223SOL    HW196393   3.658   9.855   6.814  0.0353 -0.7335  1.1524
28223SOL    HW296394   3.520   9.870   6.753  0.6481  0.0937 -0.0591
28224SOL     OW96395   8.185   9.162  11.229  0.1749 -0.0671 -0.0252
28224SOL    HW196396   8.163   9.069  11.236 -0.4499  0.1131  0.4878
28224SOL    HW296397   8.109   9.207  11.265  0.6711  0.6301  0.1563
28225SOL     OW96398   3.121   6.569   6.400 -0.0009 -0.3965 -0.0099
28225SOL    HW196399   3.212   6.542   6.416  0.6404  1.7781  0.2578
28225SOL    HW296400   3.089   6.505   6.336  1.4711 -1.6382  0.4173
28226SOL     OW96401   3.349   4.400   0.556  0.0513 -0.8803  0.6018
28226SOL    HW196402   3.291   4.351   0.498 -0.9485 -0.3418  1.1153
28226SOL    HW296403   3.410   4.446   0.498 -1.4589  0.3206 -0.1001
28227SOL     OW96404   6.154   1.167  11.653 -0.1192  0.3326  0.5161
28227SOL    HW196405   6.230   1.119  11.686 -0.1695  1.4309  2.3417
28227SOL    HW296406   6.182   1.258  11.650 -0.4793  0.4368 -1.5727
28228SOL     OW96407   2.898   5.145   6.565 -0.2475  0.6829  0.6100
28228SOL    HW196408   2.855   5.100   6.493 -1.8201 -0.3152  2.0847
28228SOL    HW296409   2.985   5.168   6.531 -0.9379  0.2907 -1.5667
28229SOL     OW96410   0.470   4.813   1.632 -0.7726 -0.4861  0.1170
28229SOL    HW196411   0.552   4.855   1.657 -0.9355 -0.4308  0.5514
28229SOL    HW296412   0.402   4.870   1.666 -1.0159  0.2552 -1.4868
28230SOL     OW96413  11.696   7.386  11.851  0.9002 -0.0284  0.0507
28230SOL    HW196414  11.609   7.400  11.888  0.5129 -1.3248 -0.3180
28230SOL    HW296415  11.705   7.451  11.782 -0.3247 -0.7356 -0.8014
28231SOL     OW96416   8.881  11.358   7.237  0.4930 -0.1760  0.2500
28231SOL    HW196417   8.859  11.421   7.168  1.9873  1.9270  1.5371
28231SOL    HW296418   8.803  11.353   7.291 -0.4092 -1.2086 -1.1003
28232SOL     OW96419   1.177   3.452   7.943 -0.0649  0.2335  0.2778
28232SOL    HW196420   1.161   3.525   7.884  0.4565  0.3940  0.3350
28232SOL    HW296421   1.265   3.467   7.977 -0.2952  0.0460  0.9611
28233SOL     OW96422  11.590   7.882   7.522 -0.0100  1.1987  0.1494
28233SOL    HW196423  11.615   7.956   7.577  2.1402  1.6221 -1.2698
28233SOL    HW296424  11.494   7.883   7.521 -0.0656  2.3615  2.2143
28234SOL     OW96425  10.205   4.348  11.418  0.1860 -0.3486  0.1227
28234SOL    HW196426  10.189   4.339  11.512  0.6041 -0.3580  0.1945
28234SOL    HW296427  10.117   4.347  11.379  0.0446 -1.2460  0.4294
28235SOL     OW96428   4.003   3.515   3.831  0.2353  0.4103 -0.0770
28235SOL    HW196429   4.066   3.558   3.774 -1.6678  0.8621 -1.9798
28235SOL    HW296430   3.950   3.586   3.866  0.0738 -0.0442  0.6237
28236SOL     OW96431   5.224   7.743  11.547 -0.2138 -0.2279  0.2707
28236SOL    HW196432   5.285   7.809  11.580  0.7642 -1.8233  1.7749
28236SOL    HW296433   5.275   7.691  11.485 -0.5032 -0.5771  0.3221
28237SOL     OW96434   2.648   3.567   4.742  0.1134 -0.0368 -0.3375
28237SOL    HW196435   2.742   3.573   4.759  0.3646  1.5037 -1.9901
28237SOL    HW296436   2.641   3.560   4.647 -1.4763  1.5026 -0.3861
28238SOL     OW96437   1.952  10.782   7.069  0.2940  0.0789  0.1376
28238SOL    HW196438   1.885  10.806   7.005  0.1371 -0.1568  0.2126
28238SOL    HW296439   1.903  10.754   7.146  0.4385 -1.6864 -0.3604
28239SOL     OW96440   6.875   1.947   3.555 -0.4875  0.0812 -0.0035
28239SOL    HW196441   6.853   2.039   3.546  1.3719  0.4176 -1.9956
28239SOL    HW296442   6.970   1.944   3.546 -0.4463 -1.9992  0.4988
28240SOL     OW96443   8.126   5.223   8.101 -0.2362  0.3682  0.3114
28240SOL    HW196444   8.183   5.146   8.095 -2.3420 -1.4295  1.5791
28240SOL    HW296445   8.171   5.282   8.161  0.8760 -0.3918  0.2586
28241SOL     OW96446   2.038   3.769   5.344 -0.1736 -0.3028  0.3789
28241SOL    HW196447   2.107   3.704   5.328 -0.7196 -0.7155 -0.3974
28241SOL    HW296448   1.999   3.784   5.258 -1.5664 -0.6638  0.9223
28242SOL     OW96449   4.869  11.603   4.458 -0.0014  0.6798  0.0384
28242SOL    HW196450   4.837  11.675   4.513  1.9298  1.2138  0.5666
28242SOL    HW296451   4.860  11.635   4.369 -0.4057  1.0215  0.1963
28243SOL     OW96452   2.202  11.880   1.782  0.0523  0.6321  0.7211
28243SOL    HW196453   2.174  11.831   1.704 -0.3920 -1.5678  2.1532
28243SOL    HW296454   2.121  11.897   1.829  0.4421  0.6643  1.3867
28244SOL     OW96455   3.506   5.842   6.785 -0.7292 -0.4629 -0.3820
28244SOL    HW196456   3.509   5.747   6.773  0.6219 -0.2337 -2.3157
28244SOL    HW296457   3.573   5.860   6.850 -1.3377 -0.8591  0.3709
28245SOL     OW96458   4.167  11.146   3.797  0.3587 -0.1218 -0.0237
28245SOL    HW196459   4.118  11.125   3.876 -1.7654  2.2229 -0.5717
28245SOL    HW296460   4.202  11.062   3.767 -0.4915 -1.3758  2.2754
28246SOL     OW96461  10.715   9.862   8.546 -0.0120 -0.0343 -0.0539
28246SOL    HW196462  10.716   9.880   8.640 -0.8216 -1.9363  0.3516
28246SOL    HW296463  10.639   9.911   8.513 -1.3362 -1.4513  0.7735
28247SOL     OW96464   4.531   4.195   2.422  0.1447 -0.1154  0.0022
28247SOL    HW196465   4.482   4.277   2.431  1.1285  0.4034  0.7608
28247SOL    HW296466   4.463   4.127   2.423 -0.8767  0.7233 -2.3988
28248SOL     OW96467   2.669   8.728   8.122 -0.0573 -0.6880  0.4890
28248SOL    HW196468   2.642   8.659   8.062 -0.8790 -0.4373  0.5588
28248SOL    HW296469   2.669   8.687   8.209  1.8267 -1.2484  0.2776
28249SOL     OW96470   6.122   7.619   9.275  0.0089 -0.1289  0.2484
28249SOL    HW196471   6.100   7.640   9.366 -0.1660 -0.9173  0.3895
28249SOL    HW296472   6.041   7.637   9.227 -0.2210 -0.7076  0.4097
28250SOL     OW96473   9.663   0.397   5.038 -0.0026 -0.4337 -0.5911
28250SOL    HW196474   9.626   0.439   4.960 -0.2282 -0.5374 -0.5398
28250SOL    HW296475   9.614   0.435   5.111 -0.2390 -0.8186 -0.5459
28251SOL     OW96476   6.010   3.442   4.974  0.1289 -0.7247  0.0868
28251SOL    HW196477   5.984   3.529   4.942 -0.4888 -0.9237  0.0443
28251SOL    HW296478   6.097   3.455   5.010  0.2319 -0.1791 -0.3405
28252SOL     OW96479  10.459   4.819  11.304 -0.0838  0.1681 -0.1129
28252SOL    HW196480  10.511   4.809  11.225  0.7425  0.7890  0.3389
28252SOL    HW296481  10.418   4.906  11.295  0.5386  0.5220  0.4384
28253SOL     OW96482   7.801   4.867   0.308  0.8189 -0.1823 -0.4605
28253SOL    HW196483   7.766   4.893   0.222 -0.5065 -1.5556 -0.3641
28253SOL    HW296484   7.724   4.861   0.364  1.2292 -2.6279 -0.0613
28254SOL     OW96485  10.224   0.696  11.002 -0.1086 -0.3993  0.1400
28254SOL    HW196486  10.304   0.648  10.981  0.6725  1.0343 -0.3027
28254SOL    HW296487  10.217   0.691  11.098  0.7825 -0.1312  0.2221
28255SOL     OW96488   2.368   0.110   0.047  0.7128 -0.2946  0.0641
28255SOL    HW196489   2.323   0.162  -0.020  1.7693 -0.5246 -0.8543
28255SOL    HW296490   2.330   0.022   0.039  0.9495 -0.3612 -0.3555
28256SOL     OW96491   4.596   8.556   8.896  0.1961  0.2085 -0.3130
28256SOL    HW196492   4.609   8.644   8.932 -1.6141  0.2942  0.2549
28256SOL    HW296493   4.513   8.561   8.849  1.1545 -0.6503 -2.1896
28257SOL     OW96494  10.737   5.874   6.031 -0.6354 -0.0557  0.6754
28257SOL    HW196495  10.766   5.786   6.055  0.3992  0.3474  0.9337
28257SOL    HW296496  10.811   5.913   5.985 -1.6659  0.1198 -0.9159
28258SOL     OW96497   3.255   7.019  11.259  0.4395 -0.1442  0.5092
28258SOL    HW196498   3.209   7.100  11.237 -0.2893 -0.6326  0.1957
28258SOL    HW296499   3.332   7.019  11.202  0.2252  0.1268  0.2140
28259SOL     OW96500   2.243   8.033   4.348  0.4559  0.0538  0.4503
28259SOL    HW196501   2.237   7.941   4.325  1.7974 -0.0275  0.3510
28259SOL    HW296502   2.153   8.060   4.364 -0.2327 -0.6849 -1.7770
28260SOL     OW96503   2.196   9.325   6.491  0.7600 -0.5092 -0.0777
28260SOL    HW196504   2.226   9.345   6.580  1.4549 -2.7287  0.2562
28260SOL    HW296505   2.104   9.350   6.490  1.3190  1.7956  0.4677
28261SOL     OW96506   5.566   6.441   8.933  0.2782 -0.6598 -0.0201
28261SOL    HW196507   5.547   6.431   9.026 -0.8332 -1.2567 -0.2897
28261SOL    HW296508   5.599   6.356   8.906 -0.3181 -0.7844 -0.3671
28262SOL     OW96509  10.965   6.501   6.828 -0.3688  0.2339 -0.0171
28262SOL    HW196510  11.059   6.502   6.844 -0.7274  1.5099  2.4114
28262SOL    HW296511  10.956   6.460   6.742  2.4733  1.1656 -0.8657
28263SOL     OW96512   4.521   1.900   3.616 -0.5457  0.3320 -0.1517
28263SOL    HW196513   4.446   1.920   3.672 -0.0727  1.5000  0.0868
28263SOL    HW296514   4.502   1.813   3.582 -0.7053 -0.5884  2.0898
28264SOL     OW96515   7.236   0.468   8.513 -0.3889  0.0467  0.3516
28264SOL    HW196516   7.285   0.443   8.434  0.4093  0.5074  0.6978
28264SOL    HW296517   7.302   0.481   8.580 -0.8543  2.0613  0.4608
28265SOL     OW96518   2.440   5.764   2.231  0.4344  0.0810  0.1694
28265SOL    HW196519   2.409   5.673   2.229 -0.0865  0.2443 -2.1411
28265SOL    HW296520   2.530   5.759   2.198  0.5696  0.3683  0.4874
28266SOL     OW96521   8.040   0.526   1.213  0.5662  0.2680 -0.6082
28266SOL    HW196522   7.988   0.535   1.133 -1.3122 -0.1781  0.5123
28266SOL    HW296523   7.980   0.487   1.277  2.1797  0.0833  0.8712
28267SOL     OW96524   5.155   1.630   3.474 -0.2699  0.1194 -0.1275
28267SOL    HW196525   5.115   1.581   3.402  0.8255 -0.2525 -0.5130
28267SOL    HW296526   5.154   1.570   3.548 -2.4235  0.8903  0.5365
28268SOL     OW96527   9.464   9.921   6.655  0.2978 -0.1607  0.0161
28268SOL    HW196528   9.397   9.985   6.633  1.2550  0.5323 -1.0165
28268SOL    HW296529   9.515   9.911   6.574 -0.2075 -2.7207 -0.0502
28269SOL     OW96530   0.802   2.498   8.610  0.4888  0.1567 -0.3437
28269SOL    HW196531   0.803   2.538   8.523  2.1216 -0.5837 -0.7038
28269SOL    HW296532   0.877   2.536   8.655  0.3784 -0.3733  0.3026
28270SOL     OW96533   1.420  10.419   8.469  0.3762 -0.5678  0.6525
28270SOL    HW196534   1.413  10.470   8.389 -2.0444  0.4057  1.3961
28270SOL    HW296535   1.514  10.416   8.487  0.9587 -0.3920 -1.9008
28271SOL     OW96536   4.262   8.989   4.564 -0.6464  0.2094  0.4931
28271SOL    HW196537   4.205   9.031   4.628  1.3223  1.2483  1.6722
28271SOL    HW296538   4.318   8.931   4.615 -0.1700 -0.2511 -0.5117
28272SOL     OW96539   3.203   4.384   9.677 -0.3063 -0.2519  0.1352
28272SOL    HW196540   3.117   4.397   9.717 -0.5545  0.9841 -0.7420
28272SOL    HW296541   3.230   4.472   9.651  1.6077 -0.5028  1.1341
28273SOL     OW96542   2.871  11.630   5.273  0.0547  0.1279 -0.5728
28273SOL    HW196543   2.924  11.560   5.234  0.6491 -1.6871  3.0332
28273SOL    HW296544   2.934  11.682   5.323 -0.9161  0.8983 -0.1155
28274SOL     OW96545   9.768   6.877  11.593 -0.2705  0.2112  0.7208
28274SOL    HW196546   9.807   6.956  11.630 -1.2967  0.5925  1.0323
28274SOL    HW296547   9.676   6.900  11.579  0.1864  0.4347 -2.9505
28275SOL     OW96548  11.478   5.448   7.536 -0.5894  0.0777  0.7608
28275SOL    HW196549  11.492   5.522   7.477  0.3190 -0.8418 -0.2285
28275SOL    HW296550  11.484   5.485   7.623  0.0954  1.1344  0.2813
28276SOL     OW96551   4.923  10.265  11.625 -0.0020  0.1182  0.2644
28276SOL    HW196552   4.887  10.226  11.704  0.1773 -2.4067 -0.7971
28276SOL    HW296553   5.006  10.304  11.653 -0.2216 -0.2108  1.4177
28277SOL     OW96554   2.116  10.099   7.009  0.2937  0.2349 -0.0408
28277SOL    HW196555   2.096  10.124   7.099  2.1294 -0.7222  0.6999
28277SOL    HW296556   2.153  10.178   6.969 -1.0633  0.8291 -0.1677
28278SOL     OW96557  10.814   0.635   7.399 -0.1075  0.6094 -0.5088
28278SOL    HW196558  10.804   0.539   7.400  1.7651  0.3635 -1.4908
28278SOL    HW296559  10.856   0.654   7.315 -2.3676  2.5639 -1.3107
28279SOL     OW96560  10.583   1.365   1.340 -0.2455  0.1599  0.3185
28279SOL    HW196561  10.620   1.345   1.426 -0.9622 -0.5999  0.4605
28279SOL    HW296562  10.638   1.436   1.306  0.5405 -0.0783  1.0590
28280SOL     OW96563   6.349   8.436   5.648 -0.2408 -0.6511 -0.2571
28280SOL    HW196564   6.356   8.349   5.609 -1.0509 -0.0039 -1.9431
28280SOL    HW296565   6.281   8.480   5.597 -0.2614  0.7858  0.9341
28281SOL     OW96566   4.881   7.350   2.931  0.1639 -0.5657 -0.7087
28281SOL    HW196567   4.894   7.264   2.972  0.3976  0.7624  2.2452
28281SOL    HW296568   4.786   7.362   2.930 -0.0893 -1.9100 -3.7321
28282SOL     OW96569   7.799   9.993   9.219 -0.3223 -0.2150  0.8085
28282SOL    HW196570   7.859  10.065   9.200  0.5833 -1.0259  0.5033
28282SOL    HW296571   7.716  10.035   9.239  0.2525  0.9202  0.8667
28283SOL     OW96572   0.011  11.425   8.944 -0.4061  0.3328 -0.6166
28283SOL    HW196573  -0.040  11.479   9.005 -1.2980 -0.8555 -0.2738
28283SOL    HW296574   0.028  11.482   8.870  0.0273  1.5727  0.4035
28284SOL     OW96575   0.478   5.442   5.181 -0.0397  0.0202  0.8895
28284SOL    HW196576   0.395   5.488   5.190 -0.4380 -0.8269  1.7708
28284SOL    HW296577   0.454   5.350   5.168  0.7459 -0.0931  0.1789
28285SOL     OW96578  11.267   2.881  11.715 -0.2230 -0.4580  0.1656
28285SOL    HW196579  11.292   2.874  11.623  0.7253  0.1752  0.3639
28285SOL    HW296580  11.191   2.940  11.715  0.0543 -0.0965 -0.1721
28286SOL     OW96581   1.970  10.443   7.450  0.4791 -0.0493  0.0398
28286SOL    HW196582   1.886  10.477   7.481  0.9418  1.1998 -0.0271
28286SOL    HW296583   1.954  10.419   7.359  0.5041  1.3619 -0.3498
28287SOL     OW96584   7.989   0.557   4.283 -0.3798 -0.5891  0.0363
28287SOL    HW196585   7.978   0.462   4.291  1.3786 -0.9608 -1.1289
28287SOL    HW296586   8.077   0.567   4.246  1.1745  1.6488  3.8028
28288SOL     OW96587   3.443   7.172   5.820  0.1940 -0.7085  0.1273
28288SOL    HW196588   3.520   7.131   5.860  0.6850  0.5159  0.5051
28288SOL    HW296589   3.479   7.220   5.745 -0.3764 -1.0485 -0.3688
28289SOL     OW96590   9.438   1.659   6.904 -0.5754  0.1221  0.3718
28289SOL    HW196591   9.357   1.705   6.924 -0.2988  0.9785 -0.3918
28289SOL    HW296592   9.477   1.641   6.989 -0.1746  2.2671  0.7052
28290SOL     OW96593   9.593   9.933   9.393  0.2881  0.2331  0.0605
28290SOL    HW196594   9.642   9.995   9.447  1.9428  0.4694 -1.6097
28290SOL    HW296595   9.660   9.891   9.338 -0.5841 -3.7589  1.6894
28291SOL     OW96596   5.180   4.446   3.871 -0.4494 -0.0104  0.3838
28291SOL    HW196597   5.103   4.498   3.892  0.5816  1.0264  1.8430
28291SOL    HW296598   5.245   4.510   3.841  0.4196 -0.5961  0.9376
28292SOL     OW96599  10.198   9.415   6.573  0.5574 -0.3401 -0.2376
28292SOL    HW196600  10.182   9.496   6.621 -0.9308  0.5002 -2.0616
28292SOL    HW296601  10.127   9.357   6.600 -0.1072  0.0277 -1.1828
28293SOL     OW96602   6.917   4.769   0.205  0.0288  0.3690  0.2452
28293SOL    HW196603   6.937   4.690   0.255  0.9585  1.5320  1.7761
28293SOL    HW296604   6.972   4.837   0.243 -1.2891  1.9485 -0.5337
28294SOL     OW96605   3.665   0.345   1.306  0.8371  0.1797 -0.4364
28294SOL    HW196606   3.758   0.345   1.329  0.8707 -0.4468 -0.5591
28294SOL    HW296607   3.663   0.305   1.219  0.2904 -1.3957  0.2639
28295SOL     OW96608   3.174   3.448   6.746 -0.2637 -0.3717  0.1934
28295SOL    HW196609   3.152   3.417   6.658  0.1939 -0.4626  0.1096
28295SOL    HW296610   3.142   3.538   6.748 -1.1595 -0.6798  0.2732
28296SOL     OW96611   7.641   9.399  11.282 -0.1638 -0.1072  0.4609
28296SOL    HW196612   7.719   9.348  11.304  0.6842  0.6267 -0.7015
28296SOL    HW296613   7.588   9.340  11.228 -0.8720 -0.9098  1.9714
28297SOL     OW96614   4.112   5.345   0.015 -0.0294 -0.8167 -0.5157
28297SOL    HW196615   4.068   5.298   0.086 -0.9267  1.7355  0.7438
28297SOL    HW296616   4.185   5.390   0.058 -1.9373  2.6472 -0.5783
28298SOL     OW96617   3.039   5.432   8.876  0.1055 -0.3657 -0.0979
28298SOL    HW196618   3.021   5.339   8.890 -2.8239  0.4043  2.2480
28298SOL    HW296619   3.000   5.451   8.791  0.6440 -1.2147 -0.5502
28299SOL     OW96620   9.111   1.014   0.131 -0.0937  0.4148  0.1973
28299SOL    HW196621   9.015   1.021   0.126 -0.0935  1.0201  0.9061
28299SOL    HW296622   9.141   1.034   0.042 -0.7593 -2.7331 -0.8511
28300SOL     OW96623   3.357  10.905  11.588 -0.0780  0.1279 -0.1833
28300SOL    HW196624   3.282  10.937  11.639  0.4911  0.7944  0.2396
28300SOL    HW296625   3.320  10.835  11.534 -0.0980 -3.2612  3.7146
28301SOL     OW96626   7.730   1.431   3.829  0.3795 -0.1883  0.1642
28301SOL    HW196627   7.815   1.390   3.841  0.0993 -0.6504  0.6352
28301SOL    HW296628   7.749   1.512   3.782  0.8040 -1.4263 -1.9017
28302SOL     OW96629   0.906  10.118   6.339 -0.1035 -0.4656 -0.1865
28302SOL    HW196630   0.935  10.209   6.328  0.9386 -0.9302 -1.5648
28302SOL    HW296631   0.857  10.119   6.421 -0.4993  1.4267 -0.3896
28303SOL     OW96632  11.000   9.251   5.199  0.0834  1.1136 -0.0696
28303SOL    HW196633  10.940   9.315   5.160 -0.3061 -0.3899 -2.1241
28303SOL    HW296634  11.063   9.232   5.129 -0.5792 -1.6590 -0.0289
28304SOL     OW96635   6.695   4.595   1.650  0.2231  0.0522  0.0536
28304SOL    HW196636   6.684   4.530   1.581 -0.8866 -0.1855  0.4383
28304SOL    HW296637   6.781   4.576   1.687 -0.1894 -1.3895  0.3448
28305SOL     OW96638   3.127   2.971   8.828 -0.0672 -0.0563 -0.8490
28305SOL    HW196639   3.152   2.979   8.920 -3.5665  1.9474  0.0907
28305SOL    HW296640   3.116   2.877   8.815  4.2174 -0.8153 -0.5310
28306SOL     OW96641   4.388  11.766   6.083 -0.1539  0.1667 -0.4848
28306SOL    HW196642   4.473  11.730   6.111  0.2000  2.1767  1.2509
28306SOL    HW296643   4.333  11.759   6.161 -0.5486  1.8660 -0.5806
28307SOL     OW96644   4.301   3.585   5.210  0.0748  0.4233 -0.1172
28307SOL    HW196645   4.353   3.584   5.129  2.0499  2.3024  1.0318
28307SOL    HW296646   4.295   3.493   5.235 -0.4940 -0.1908 -2.3093
28308SOL     OW96647   4.677  11.091   1.526 -1.0745  0.1862  0.0677
28308SOL    HW196648   4.771  11.077   1.538 -0.3616 -0.2108 -4.2378
28308SOL    HW296649   4.664  11.185   1.540  0.0471  0.3279  0.2444
28309SOL     OW96650   0.815  10.069   5.575  0.3274 -0.5252 -0.2844
28309SOL    HW196651   0.748  10.021   5.525  0.3507 -0.1773 -0.6480
28309SOL    HW296652   0.861  10.000   5.624  0.5620 -0.9149 -1.0384
28310SOL     OW96653   6.695   7.534   1.568  0.0190 -0.0146  0.6327
28310SOL    HW196654   6.670   7.482   1.644 -1.9696  2.5904  1.9530
28310SOL    HW296655   6.787   7.558   1.584  0.0570 -0.6723  1.4609
28311SOL     OW96656   0.254   2.062   0.611  0.0041  0.7489  0.0265
28311SOL    HW196657   0.280   2.137   0.664  0.7679  0.2660  0.3513
28311SOL    HW296658   0.176   2.092   0.564  0.6100  1.9303 -0.2744
28312SOL     OW96659   9.903   1.413   0.306  0.1681  0.0986 -0.2467
28312SOL    HW196660   9.971   1.386   0.368  1.6088  0.8379 -1.4346
28312SOL    HW296661   9.885   1.504   0.327  0.5723  0.3155 -0.8029
28313SOL     OW96662   9.685   3.653  10.025  0.9157  0.8566 -0.5892
28313SOL    HW196663   9.702   3.702  10.105  0.4677  3.4926 -1.9620
28313SOL    HW296664   9.602   3.689   9.992  0.2841 -1.2310 -1.4848
28314SOL     OW96665  11.134  10.214  10.396  0.0687  0.1027 -0.0500
28314SOL    HW196666  11.113  10.272  10.323  0.3705 -0.0346 -0.2476
28314SOL    HW296667  11.182  10.270  10.458  0.0391  0.1564 -0.0760
28315SOL     OW96668   0.458   1.531  10.087 -0.6783  0.2029 -0.1688
28315SOL    HW196669   0.499   1.522  10.000 -1.5887  0.4133 -0.6261
28315SOL    HW296670   0.496   1.459  10.138  1.5306  1.3447 -0.0507
28316SOL     OW96671   8.541   6.802   6.846 -0.0023 -0.0755 -0.1384
28316SOL    HW196672   8.523   6.864   6.776  0.7289 -0.7408 -0.9387
28316SOL    HW296673   8.461   6.751   6.855 -0.0286 -0.1162 -0.6185
28317SOL     OW96674   6.937   7.813  10.599 -0.5598  0.1105  0.3028
28317SOL    HW196675   6.935   7.737  10.657  0.9104  0.1590  0.4405
28317SOL    HW296676   7.014   7.800  10.545 -0.1992  1.5843  0.4315
28318SOL     OW96677   2.451   6.767   1.448 -1.3248  0.3778 -0.1604
28318SOL    HW196678   2.417   6.680   1.426 -0.8140  0.3638 -0.9220
28318SOL    HW296679   2.503   6.793   1.372  2.3259 -0.5821  1.7825
28319SOL     OW96680   9.053   2.933   7.953 -0.6820  0.5767  0.1663
28319SOL    HW196681   8.988   3.001   7.969  0.3145  1.4084  0.7752
28319SOL    HW296682   9.127   2.957   8.008 -0.9000 -1.9127  1.7169
28320SOL     OW96683   2.499   7.203  10.687  0.2040  0.1027 -0.4906
28320SOL    HW196684   2.454   7.265  10.745  0.9314 -0.7312  1.0199
28320SOL    HW296685   2.563   7.257  10.640  1.6872  0.3990  1.6934
28321SOL     OW96686   4.134   3.797   2.459 -0.3523  0.3742 -0.6261
28321SOL    HW196687   4.193   3.872   2.472 -1.2349  1.2762 -1.5664
28321SOL    HW296688   4.172   3.750   2.385 -0.6776  0.8495 -1.1099
28322SOL     OW96689  11.712   6.651   2.682  0.1086 -0.6286  0.0522
28322SOL    HW196690  11.702   6.704   2.603  0.6323  1.0908  1.0837
28322SOL    HW296691  11.623   6.630   2.709 -0.0740 -1.1403 -0.9231
28323SOL     OW96692   6.735   8.283   7.345 -0.2985 -0.6094  0.0521
28323SOL    HW196693   6.740   8.366   7.392  0.2110 -0.6009 -0.0103
28323SOL    HW296694   6.646   8.282   7.308  0.4698  1.1127 -2.1135
28324SOL     OW96695   1.668   2.715   8.031 -0.5179 -0.1429  0.0658
28324SOL    HW196696   1.705   2.633   7.997  1.9674  0.1068  1.9183
28324SOL    HW296697   1.637   2.692   8.118 -1.3434  0.5504 -0.0368
28325SOL     OW96698   5.703   5.350   8.007  0.6994  0.0443  0.7139
28325SOL    HW196699   5.728   5.425   7.952 -0.4752  0.4605  0.7176
28325SOL    HW296700   5.719   5.274   7.951 -1.0468  0.4958 -0.4748
28326SOL     OW96701   5.101   2.068   2.909 -0.2102  0.0046  0.1571
28326SOL    HW196702   5.113   2.033   2.821 -0.0743  0.9728 -0.2229
28326SOL    HW296703   5.183   2.048   2.954  0.6565  1.5383 -0.6669
28327SOL     OW96704   0.612  11.358   7.321  0.5728  0.0684  0.1395
28327SOL    HW196705   0.577  11.448   7.319  2.4110  0.8446  0.7701
28327SOL    HW296706   0.535  11.302   7.309 -0.7151  1.7041  0.3960
28328SOL     OW96707   7.972   1.137   9.208 -0.2647  0.0458  0.3957
28328SOL    HW196708   7.953   1.045   9.195  1.2723 -0.4494  1.4037
28328SOL    HW296709   7.888   1.176   9.234 -1.3429 -0.6564 -1.7878
28329SOL     OW96710   9.056   4.958   1.952  0.1631 -0.1168  0.0857
28329SOL    HW196711   9.150   4.949   1.944  0.0216 -0.4113 -1.4023
28329SOL    HW296712   9.033   4.905   2.029  1.2136  0.1174  0.5710
28330SOL     OW96713  11.734   3.633  10.286 -0.3172  0.0524  0.1606
28330SOL    HW196714  11.734   3.617  10.380 -1.3684 -0.9403  0.0089
28330SOL    HW296715  11.649   3.673  10.268 -0.0856  0.3281 -0.3603
28331SOL     OW96716  10.985   2.847   9.698 -0.1550 -0.2264 -0.4950
28331SOL    HW196717  10.975   2.910   9.769 -1.1687 -0.5963 -0.2924
28331SOL    HW296718  10.899   2.846   9.655  0.1823 -0.6625 -1.1757
28332SOL     OW96719   1.716  11.006   6.629  0.4090  0.1312  0.1529
28332SOL    HW196720   1.796  10.956   6.638  0.7921 -0.1142 -3.2405
28332SOL    HW296721   1.733  11.088   6.676  1.6805 -0.8776  1.5189
28333SOL     OW96722   1.253   4.342  10.567 -0.0648  0.7903  0.4141
28333SOL    HW196723   1.159   4.328  10.560  0.2502 -0.8240 -1.5142
28333SOL    HW296724   1.270   4.421  10.515 -0.1066 -0.4060 -1.5386
28334SOL     OW96725   4.245   4.663   7.087 -0.2317  0.1747 -0.1470
28334SOL    HW196726   4.315   4.683   7.025 -0.4299  1.6816  0.0699
28334SOL    HW296727   4.167   4.655   7.033  0.0548 -1.3406 -0.3719
28335SOL     OW96728  10.091   5.242   4.152 -0.6637 -0.4836  0.3762
28335SOL    HW196729  10.092   5.327   4.108  0.9800 -1.6898 -2.1751
28335SOL    HW296730  10.180   5.233   4.187 -1.4411 -0.3249  2.4956
28336SOL     OW96731   1.689   2.508  10.419 -0.0760 -0.4203  0.2816
28336SOL    HW196732   1.621   2.441  10.428  0.9395 -1.8196 -1.7032
28336SOL    HW296733   1.650   2.587  10.455 -2.8796 -1.1050 -0.9700
28337SOL     OW96734   5.154   6.104   2.121  0.7697 -0.1496 -0.7521
28337SOL    HW196735   5.159   6.008   2.112  0.1956 -0.2134 -0.4722
28337SOL    HW296736   5.218   6.125   2.188  0.4317 -0.4215 -0.3353
28338SOL     OW96737   1.046   0.804   9.719  0.0836 -0.1964 -0.0621
28338SOL    HW196738   1.094   0.814   9.801  1.4254 -2.0642 -0.5627
28338SOL    HW296739   1.097   0.854   9.655  1.5355 -2.3171 -0.6289
28339SOL     OW96740   3.294   1.071   7.961  0.1611 -0.2908 -0.2183
28339SOL    HW196741   3.340   1.056   7.879  1.0669  2.6912 -0.3580
28339SOL    HW296742   3.359   1.109   8.020 -0.8629 -0.8516  1.3591
28340SOL     OW96743   0.522   8.655   3.957  0.3033  0.3856  0.0079
28340SOL    HW196744   0.549   8.708   3.882  0.5918  0.7386  0.3575
28340SOL    HW296745   0.596   8.660   4.018  0.0507  0.1408  0.3363
28341SOL     OW96746   0.191   2.198   8.446 -0.1823 -0.1799  0.6497
28341SOL    HW196747   0.255   2.127   8.447  2.8731  2.3451 -0.9216
28341SOL    HW296748   0.135   2.178   8.370  0.5649 -0.9477  0.2832
28342SOL     OW96749   8.403   9.813   3.840 -0.0009  0.3223  0.3295
28342SOL    HW196750   8.345   9.790   3.767  1.0652  0.0357 -0.4518
28342SOL    HW296751   8.361   9.888   3.881 -0.9618  0.0729 -0.1649
28343SOL     OW96752   0.873   2.354   0.273 -0.2779 -0.3384  0.4399
28343SOL    HW196753   0.935   2.307   0.328 -1.1689 -0.8307  1.0416
28343SOL    HW296754   0.904   2.339   0.183  0.4141 -0.6410  0.7215
28344SOL     OW96755   3.860   4.571   0.136 -0.1836 -0.7167  0.1913
28344SOL    HW196756   3.930   4.556   0.073  0.1420  0.9346  0.1256
28344SOL    HW296757   3.904   4.609   0.213 -1.0510  1.0614 -0.1373
28345SOL     OW96758   7.189   9.517   9.489 -0.0457  0.0471  0.3965
28345SOL    HW196759   7.263   9.468   9.451 -0.3850  1.5254 -2.4555
28345SOL    HW296760   7.193   9.498   9.583  1.2040 -3.5415 -0.2293
28346SOL     OW96761   9.513   9.449   5.961 -0.2729  0.2758  0.6286
28346SOL    HW196762   9.451   9.493   6.020 -0.1618  0.0540  0.9154
28346SOL    HW296763   9.492   9.356   5.970 -0.6648  0.2859 -0.1585
28347SOL     OW96764   0.149   5.277   1.047 -0.2794 -0.0489 -0.2982
28347SOL    HW196765   0.079   5.252   0.987  0.9210 -0.3823 -1.6098
28347SOL    HW296766   0.146   5.373   1.048 -0.2211 -0.0364 -1.0059
28348SOL     OW96767   3.111  11.919   9.394  0.0537  0.4802 -0.3010
28348SOL    HW196768   3.132  12.011   9.379  3.0357 -0.1996 -0.8605
28348SOL    HW296769   3.133  11.903   9.485  0.3507  0.1148 -0.4360
28349SOL     OW96770   6.160   7.479  10.983 -0.3572  0.5775 -0.1857
28349SOL    HW196771   6.138   7.397  10.940 -1.3083  1.0785 -0.6932
28349SOL    HW296772   6.218   7.454  11.055 -0.9267 -0.5696 -0.1087
28350SOL     OW96773   1.121   2.305   3.957 -0.0827  0.4747 -0.1381
28350SOL    HW196774   1.055   2.364   3.994  0.4795  0.5341  0.8077
28350SOL    HW296775   1.174   2.278   4.032  0.2036 -0.5620 -0.6938
28351SOL     OW96776   2.911   2.582   1.782  0.3920 -0.1272 -0.0860
28351SOL    HW196777   2.895   2.600   1.875  0.5020  0.4164 -0.1646
28351SOL    HW296778   2.870   2.498   1.766 -0.8139  0.3989  0.1439
28352SOL     OW96779   5.548   1.208   0.066 -0.0313  0.2539  0.1069
28352SOL    HW196780   5.549   1.292   0.112  0.4038  0.4038 -0.1751
28352SOL    HW296781   5.498   1.150   0.123 -0.1460  0.6468  0.4062
28353SOL     OW96782  10.030   3.991   5.409 -1.0645 -0.3203 -0.3657
28353SOL    HW196783  10.072   4.077   5.408  0.1687 -0.9102 -0.3908
28353SOL    HW296784  10.027   3.964   5.317  0.7937 -1.3494 -0.1601
28354SOL     OW96785   1.109   5.863   8.256 -0.3287 -0.8043  0.3810
28354SOL    HW196786   1.080   5.828   8.172  1.7264  2.3820 -1.8781
28354SOL    HW296787   1.065   5.947   8.264  1.9707  0.4362  0.8150
28355SOL     OW96788  10.150   0.828   1.554 -0.2416  0.4881  0.4980
28355SOL    HW196789  10.160   0.781   1.637 -1.3177 -0.2571  0.2272
28355SOL    HW296790  10.231   0.811   1.506  0.1714  0.5053  1.1913
28356SOL     OW96791   7.749   8.041  11.245  0.1583  0.2706  0.4368
28356SOL    HW196792   7.791   8.125  11.225  0.0247  0.3298  0.3955
28356SOL    HW296793   7.665   8.045  11.198  0.9541 -0.6592 -1.1509
28357SOL     OW96794   8.174   1.579   9.549  0.6610 -0.4538 -0.2021
28357SOL    HW196795   8.085   1.580   9.514  0.2951 -1.4461  0.6505
28357SOL    HW296796   8.171   1.515   9.621  1.5847  0.8566  1.0716
28358SOL     OW96797  11.859   5.201   8.228  0.5892  0.5526 -0.2703
28358SOL    HW196798  11.854   5.112   8.262 -0.2844  0.3725 -0.8321
28358SOL    HW296799  11.875   5.190   8.134 -0.8363  0.9506 -0.5734
28359SOL     OW96800   9.459   4.696   4.642 -0.5421 -0.3213 -0.0639
28359SOL    HW196801   9.394   4.689   4.712 -0.2521 -0.5673  0.1856
28359SOL    HW296802   9.536   4.650   4.676 -0.0927  0.3290 -0.1840
28360SOL     OW96803   5.053  10.562  11.507  0.2480 -0.7636  0.1941
28360SOL    HW196804   5.000  10.616  11.448 -1.3298 -1.1727  1.1616
28360SOL    HW296805   5.088  10.493  11.450 -2.2576 -1.8762 -0.1378
28361SOL     OW96806  10.572   7.348   7.022 -0.1432  0.1244 -0.2263
28361SOL    HW196807  10.486   7.374   7.057 -0.0496  1.1564 -0.7104
28361SOL    HW296808  10.556   7.265   6.979 -1.0801  0.6432 -0.9299
28362SOL     OW96809   0.028   3.332   6.458 -0.6583 -0.4411 -0.3107
28362SOL    HW196810   0.102   3.304   6.512 -0.6620  2.5054  1.4696
28362SOL    HW296811  -0.041   3.270   6.478 -0.0334 -0.5812  1.6649
28363SOL     OW96812   1.931   0.448  10.567  0.1208 -0.2986 -0.5107
28363SOL    HW196813   1.899   0.359  10.580  0.0093 -0.0178  1.5051
28363SOL    HW296814   1.854   0.497  10.539  0.1541 -0.7922 -1.5037
28364SOL     OW96815   3.441   4.821   0.806 -0.1293  0.2978  0.1271
28364SOL    HW196816   3.462   4.873   0.728 -0.8215  1.6486  0.7994
28364SOL    HW296817   3.480   4.735   0.789 -0.6899  0.4000 -1.9158
28365SOL     OW96818   8.976   8.946   8.978  0.0312  0.0509 -0.1153
28365SOL    HW196819   8.991   9.019   9.038 -0.4196 -0.7162  0.9738
28365SOL    HW296820   8.918   8.887   9.027 -0.6777 -0.4115 -1.4688
28366SOL     OW96821   2.055   0.776   3.214  0.1012  0.1941  0.0943
28366SOL    HW196822   2.094   0.690   3.203 -2.3101 -1.2563  1.7680
28366SOL    HW296823   1.960   0.760   3.212 -0.4459  2.8281  0.3148
28367SOL     OW96824   5.333   7.254   9.575 -0.0713 -0.1615  0.1056
28367SOL    HW196825   5.395   7.306   9.524 -0.3344  0.7186  0.6630
28367SOL    HW296826   5.377   7.171   9.589  0.4767  0.0105 -0.5523
28368SOL     OW96827   7.855   3.938   4.344 -0.3630  0.5061 -0.2221
28368SOL    HW196828   7.908   3.866   4.310  0.0753  0.8291 -0.2404
28368SOL    HW296829   7.822   3.906   4.428 -1.4175 -0.2788 -0.9092
28369SOL     OW96830   7.745   8.507  10.999  0.1192  0.1498 -0.1319
28369SOL    HW196831   7.733   8.413  10.985 -0.2226  0.1724 -0.0040
28369SOL    HW296832   7.823   8.514  11.054  0.3144 -0.0430 -0.3826
28370SOL     OW96833   4.601   1.656  11.536 -0.5454  0.5788  0.3334
28370SOL    HW196834   4.534   1.589  11.527 -0.1342  0.1752  0.2207
28370SOL    HW296835   4.559   1.736  11.506 -0.2380 -0.1179 -2.1799
28371SOL     OW96836   2.306   4.373   4.094  0.2237  0.0581 -0.3567
28371SOL    HW196837   2.327   4.329   4.177  0.7715  0.1079 -0.4700
28371SOL    HW296838   2.278   4.460   4.121 -0.3102 -0.1633 -0.1734
28372SOL     OW96839   7.082   9.277   0.341 -0.3497 -0.1716 -0.3119
28372SOL    HW196840   7.134   9.217   0.287 -0.5378 -0.7289  0.1219
28372SOL    HW296841   6.991   9.255   0.319 -0.4276 -0.4286  0.2583
28373SOL     OW96842   3.515   2.541   9.787  0.5462  0.0996 -0.0053
28373SOL    HW196843   3.450   2.509   9.724 -0.8412 -0.8224  1.7889
28373SOL    HW296844   3.545   2.624   9.750  0.4040 -0.7685 -2.2547
28374SOL     OW96845   0.926   7.293   4.952 -0.0956  0.1278  0.4216
28374SOL    HW196846   0.905   7.358   5.019 -1.1101  0.7098 -0.4319
28374SOL    HW296847   0.841   7.263   4.920  0.3477  0.5539 -1.2488
28375SOL     OW96848   1.666   6.923   5.251 -0.0734  0.0870 -0.7648
28375SOL    HW196849   1.759   6.946   5.256 -0.2544  0.5101  1.3712
28375SOL    HW296850   1.621   7.004   5.275 -0.8946 -0.8562  0.9875
28376SOL     OW96851   1.287   6.011   4.817  0.3992  0.2692 -0.2421
28376SOL    HW196852   1.368   5.973   4.852 -0.3345 -0.6237  0.5594
28376SOL    HW296853   1.217   5.955   4.853 -0.6250  1.4482 -0.3273
28377SOL     OW96854   1.966   6.377   5.378  0.3820 -0.2199  0.0725
28377SOL    HW196855   1.896   6.327   5.335  0.7624 -1.9558  1.3390
28377SOL    HW296856   1.982   6.451   5.320 -1.8965 -0.2476 -0.6902
28378SOL     OW96857   3.408   7.358   6.653  0.0880 -0.2282 -0.1942
28378SOL    HW196858   3.384   7.348   6.561 -0.6505 -2.1596  0.1694
28378SOL    HW296859   3.336   7.409   6.691 -0.0471 -0.1822 -0.5117
28379SOL     OW96860   7.702   7.646   3.463 -0.8032 -0.3674  0.5003
28379SOL    HW196861   7.628   7.688   3.420  0.2245 -0.1592 -1.1446
28379SOL    HW296862   7.739   7.713   3.521 -0.1728  0.4924 -0.8633
28380SOL     OW96863   0.751   6.035   3.683 -0.7783  0.5863  0.2012
28380SOL    HW196864   0.825   5.974   3.679 -3.0467 -2.3405 -2.4442
28380SOL    HW296865   0.743   6.057   3.776  0.5782 -2.8352  1.2969
28381SOL     OW96866   5.436   5.485   2.236 -0.0580 -0.4354 -0.3478
28381SOL    HW196867   5.526   5.456   2.222  0.3130  0.4054  0.2657
28381SOL    HW296868   5.442   5.580   2.246 -1.3798  0.0851 -3.3212
28382SOL     OW96869  10.881   6.563  10.920 -0.2271 -0.5441  0.3365
28382SOL    HW196870  10.851   6.623  10.989  1.2062 -1.0617  1.4527
28382SOL    HW296871  10.802   6.543  10.870 -1.5472 -0.9649  2.4694
28383SOL     OW96872   5.836  10.803   8.084 -0.0699  0.8424  0.2572
28383SOL    HW196873   5.742  10.788   8.088  0.1026 -0.2223  0.4612
28383SOL    HW296874   5.851  10.832   7.994 -0.4314 -0.1587 -0.1377
28384SOL     OW96875   2.871   3.161   3.330  0.3955  0.6461  0.1350
28384SOL    HW196876   2.883   3.090   3.267 -0.9688  0.1316  0.4205
28384SOL    HW296877   2.857   3.239   3.277  0.2148  0.3912 -0.1972
28385SOL     OW96878  10.738   4.387   8.743  0.3538  0.5564  0.4187
28385SOL    HW196879  10.703   4.465   8.700  2.8728  0.3998 -2.1675
28385SOL    HW296880  10.714   4.314   8.686  0.4414 -0.2223  1.3449
28386SOL     OW96881   4.901   8.687   9.703  0.0541  0.1787 -0.7999
28386SOL    HW196882   4.962   8.713   9.634 -0.4773  2.3776 -0.5135
28386SOL    HW296883   4.834   8.755   9.703 -1.7079 -1.4781 -0.2157
28387SOL     OW96884   7.292   6.215  10.953  0.7636 -0.1645 -0.0456
28387SOL    HW196885   7.259   6.192  10.866  1.2491  0.1869 -0.3250
28387SOL    HW296886   7.290   6.310  10.955  1.8774 -0.1256 -0.1193
28388SOL     OW96887   3.902   7.878   2.499 -0.0651  0.0588 -0.0451
28388SOL    HW196888   3.851   7.904   2.422 -1.4391  1.4017  1.2647
28388SOL    HW296889   3.960   7.953   2.515 -0.3462  0.1217  0.6884
28389SOL     OW96890   7.390   1.125   5.266 -0.5833  0.1386  0.1904
28389SOL    HW196891   7.447   1.196   5.237 -1.1342  0.5725  0.1586
28389SOL    HW296892   7.342   1.161   5.341 -0.7435 -0.2553  0.2798
28390SOL     OW96893   1.552   3.751   5.572 -0.3839 -0.3710 -0.1806
28390SOL    HW196894   1.534   3.682   5.508 -0.4911 -0.3722 -0.1490
28390SOL    HW296895   1.646   3.767   5.565  0.2062 -2.4930  1.8069
28391SOL     OW96896   3.553   0.628   4.836 -0.2595  0.4124 -0.5477
28391SOL    HW196897   3.470   0.672   4.820  0.2325  1.5763  0.0373
28391SOL    HW296898   3.599   0.634   4.752 -0.9936 -0.7945 -1.0651
28392SOL     OW96899   5.642  10.183   4.568 -0.1553  0.6198  0.2452
28392SOL    HW196900   5.641  10.253   4.634  1.6946  0.6650  0.2804
28392SOL    HW296901   5.565  10.200   4.514 -0.9572  1.3769  1.5756
28393SOL     OW96902   8.570   6.009   1.721 -0.2026  0.4637 -0.3117
28393SOL    HW196903   8.584   6.097   1.684  1.4799 -0.2691 -1.5656
28393SOL    HW296904   8.507   5.968   1.662 -0.3565  0.5540 -0.2099
28394SOL     OW96905   9.123  10.099   6.790 -0.2288 -0.5675  0.6859
28394SOL    HW196906   9.172  10.079   6.710  0.4499  0.3781  0.8458
28394SOL    HW296907   9.174  10.168   6.833 -0.7820 -0.7967  1.7502
28395SOL     OW96908  10.718   6.264   6.129 -0.2058  0.0002  0.3257
28395SOL    HW196909  10.637   6.314   6.142 -0.8995 -0.5149 -1.6239
28395SOL    HW296910  10.699   6.178   6.167 -0.0041  0.3359  1.2154
28396SOL     OW96911   2.683   9.455   2.553  0.4436  0.3069  0.5818
28396SOL    HW196912   2.628   9.523   2.514  1.1447  0.2862 -0.4700
28396SOL    HW296913   2.622   9.383   2.571  0.1272  0.2247 -0.7172
28397SOL     OW96914   1.273   0.799   8.122 -0.3024 -0.5013 -0.9092
28397SOL    HW196915   1.256   0.708   8.144 -0.9637 -0.2819 -0.4859
28397SOL    HW296916   1.226   0.814   8.040 -0.9848 -0.2889 -0.4864
28398SOL     OW96917  10.010  10.024   2.824  0.0497 -0.5594 -0.4099
28398SOL    HW196918  10.066   9.954   2.792  0.9822  0.1155 -0.3130
28398SOL    HW296919  10.071  10.091   2.856 -0.7736  0.6904 -1.3349
28399SOL     OW96920   6.662   2.136   7.459  0.0205  0.1677  0.1937
28399SOL    HW196921   6.725   2.204   7.484 -1.5908  1.3225  1.3710
28399SOL    HW296922   6.688   2.059   7.510  0.5791  0.5886  0.5574
28400SOL     OW96923   6.573   6.604   2.558  0.3160 -0.0805 -0.0100
28400SOL    HW196924   6.558   6.638   2.646 -0.6520 -1.1820  0.2776
28400SOL    HW296925   6.494   6.630   2.509  1.2584  1.3561 -0.8519
28401SOL     OW96926   0.958  10.357   5.871  0.3303 -0.1068 -0.1128
28401SOL    HW196927   0.987  10.332   5.783 -0.8367 -0.3597 -0.4421
28401SOL    HW296928   0.974  10.280   5.925  1.5747  0.2384  0.0369
28402SOL     OW96929   4.253   7.691   5.536 -0.5286 -0.4418 -0.5637
28402SOL    HW196930   4.243   7.786   5.531 -0.3993 -0.4304 -0.6095
28402SOL    HW296931   4.342   7.678   5.569 -0.7500 -0.5408 -0.0000
28403SOL     OW96932   0.797   1.951   1.262 -0.3224  0.2028 -0.1416
28403SOL    HW196933   0.758   1.987   1.342 -2.5957 -1.2299 -0.5286
28403SOL    HW296934   0.847   2.024   1.225  1.8182  0.5803  3.1243
28404SOL     OW96935   2.908  11.029   2.406  0.1257  0.1922 -0.3677
28404SOL    HW196936   2.958  11.007   2.328 -0.4879  0.0769 -0.7286
28404SOL    HW296937   2.968  11.085   2.457  0.0036  1.5306 -1.6183
28405SOL     OW96938   1.727   0.692   4.205 -0.3638 -0.4217  0.0893
28405SOL    HW196939   1.699   0.769   4.156 -1.9966 -1.0146  0.0080
28405SOL    HW296940   1.766   0.726   4.285 -0.2673  0.4885 -0.3364
28406SOL     OW96941   3.612   5.903   7.564 -0.3128 -0.4273  0.2284
28406SOL    HW196942   3.671   5.896   7.638  1.1797  0.4179 -0.8309
28406SOL    HW296943   3.599   5.813   7.534 -1.4115 -0.8323  1.8421
28407SOL     OW96944  10.021   5.836   3.205  0.2263 -0.3997  0.0670
28407SOL    HW196945  10.033   5.923   3.243  0.1560 -1.5365  2.9642
28407SOL    HW296946  10.110   5.803   3.193  0.2484 -0.5844  0.6971
28408SOL     OW96947  11.914   6.492   5.979  0.1647  0.2763  0.4766
28408SOL    HW196948  12.005   6.463   5.970 -0.3670 -1.3457 -0.0351
28408SOL    HW296949  11.903   6.559   5.911  0.5715 -0.5997 -0.4680
28409SOL     OW96950   9.772  11.576  10.352  0.2658 -0.0862  0.6426
28409SOL    HW196951   9.782  11.514  10.280 -2.4695  1.8015 -1.5634
28409SOL    HW296952   9.818  11.654  10.323 -0.9710  0.7368  0.8329
28410SOL     OW96953   1.481   8.446   5.532 -0.0593 -0.6869  0.4596
28410SOL    HW196954   1.533   8.366   5.537  0.8153 -0.1074  1.0437
28410SOL    HW296955   1.546   8.516   5.520 -0.8132 -0.0753 -0.2220
28411SOL     OW96956   0.794   1.620   4.356 -0.4095 -0.0255  0.3015
28411SOL    HW196957   0.796   1.699   4.409 -2.3995  0.4949 -0.3257
28411SOL    HW296958   0.827   1.648   4.270 -2.5904  0.5787 -0.3996
28412SOL     OW96959   0.718   3.482   4.216  0.2791 -0.0511 -0.0886
28412SOL    HW196960   0.806   3.515   4.198  0.0892  0.2960 -0.3967
28412SOL    HW296961   0.679   3.547   4.275  1.1491 -1.5460  2.2313
28413SOL     OW96962   8.741   9.925   6.203 -0.1071 -0.6164  0.1516
28413SOL    HW196963   8.803   9.958   6.268  0.5602  1.3191 -1.3742
28413SOL    HW296964   8.795   9.903   6.127 -0.9519 -2.1431 -0.0501
28414SOL     OW96965   3.908   1.858   2.063  0.1688  0.1662  0.0739
28414SOL    HW196966   3.892   1.912   2.141 -0.6625  1.0490 -0.6849
28414SOL    HW296967   3.968   1.910   2.010 -0.1065  0.0545 -0.3566
28415SOL     OW96968   9.995  11.036   7.571 -0.6634 -0.5746  0.1213
28415SOL    HW196969   9.930  11.001   7.509  0.0351 -0.0159 -0.9616
28415SOL    HW296970  10.037  11.108   7.524  0.5669 -0.7591  0.8887
28416SOL     OW96971   5.721   2.630   3.465  0.2371  0.3629 -0.6656
28416SOL    HW196972   5.671   2.589   3.395  1.2699 -0.0169 -1.2010
28416SOL    HW296973   5.676   2.603   3.545 -0.7850  0.5669 -1.1508
28417SOL     OW96974   8.599   7.019   6.599 -0.6654  0.0193  0.6864
28417SOL    HW196975   8.633   7.075   6.669  3.0608 -1.7338  0.4782
28417SOL    HW296976   8.639   7.054   6.519 -1.3662 -0.6354  0.0373
28418SOL     OW96977   3.487   8.051   0.211  0.1032  0.2066  0.4624
28418SOL    HW196978   3.465   7.986   0.279  0.0538  0.4912  0.7208
28418SOL    HW296979   3.408   8.104   0.202  0.5018  0.9279  1.0506
28419SOL     OW96980   7.368  10.519   3.142  0.1147 -0.1733  0.5820
28419SOL    HW196981   7.395  10.608   3.119  0.5838 -1.1278 -3.2221
28419SOL    HW296982   7.313  10.531   3.219 -2.0936  3.8151 -1.2466
28420SOL     OW96983   7.548   2.786   0.483  0.1457  0.1089  0.3113
28420SOL    HW196984   7.548   2.756   0.392  0.8259  0.5088  0.1740
28420SOL    HW296985   7.563   2.707   0.534  3.3228  0.3200 -0.1152
28421SOL     OW96986   8.246   5.756   9.718 -0.1506  0.1722 -0.3227
28421SOL    HW196987   8.281   5.750   9.629  0.8490 -1.7934  0.1397
28421SOL    HW296988   8.151   5.754   9.706 -0.0545 -2.5704 -1.3079
28422SOL     OW96989   8.736   8.906   5.031  0.4636  0.3709 -0.2064
28422SOL    HW196990   8.645   8.892   5.058  0.3266  2.6856  0.7077
28422SOL    HW296991   8.784   8.918   5.113  1.9428 -2.2649 -0.5805
28423SOL     OW96992   6.658   4.189   9.923 -0.3672  0.3076  0.2735
28423SOL    HW196993   6.668   4.114   9.982 -1.6342 -0.4912 -0.4802
28423SOL    HW296994   6.566   4.215   9.933 -0.2272  1.0453 -0.3201
28424SOL     OW96995   8.545   3.723   3.438  0.0116  0.5079  0.0179
28424SOL    HW196996   8.593   3.640   3.441 -0.5494  0.1979  2.0477
28424SOL    HW296997   8.461   3.701   3.398 -0.4393 -0.1130  1.2547
28425SOL     OW96998   8.653  11.133   3.912  0.0706  0.3796  0.1844
28425SOL    HW196999   8.596  11.083   3.970  1.2249  0.6060  1.5653
28425SOL    HW297000   8.640  11.224   3.938 -0.1335  0.5777 -0.5918
28426SOL     OW97001   4.787   6.239   5.952 -0.5277  0.0054 -0.0074
28426SOL    HW197002   4.829   6.285   5.879 -0.1323  1.0648  0.8625
28426SOL    HW297003   4.736   6.307   5.997  0.4025 -0.2919  1.5497
28427SOL     OW97004  11.891   4.878   9.972 -0.1762 -0.1684  0.0028
28427SOL    HW197005  11.814   4.869  10.028 -2.2547 -5.1977 -2.9572
28427SOL    HW297006  11.948   4.805   9.997  1.0513  0.2592 -1.3912
28428SOL     OW97007   0.460   1.889   4.609 -0.1535 -0.1908 -0.7068
28428SOL    HW197008   0.555   1.898   4.604  0.1373 -2.1016  0.1844
28428SOL    HW297009   0.436   1.839   4.531  0.0020 -2.0570  0.3675
28429SOL     OW97010   1.490   7.783   0.854 -0.2607  0.7076  0.2259
28429SOL    HW197011   1.552   7.790   0.782 -1.6772  0.0538 -1.0905
28429SOL    HW297012   1.411   7.745   0.816 -1.9339  2.5966  1.5627
28430SOL     OW97013   3.301   1.689   4.826 -0.4023  0.3800 -0.5924
28430SOL    HW197014   3.237   1.655   4.765 -0.7346  1.7860 -1.0452
28430SOL    HW297015   3.255   1.695   4.910 -0.3077 -0.3632 -0.4826
28431SOL     OW97016   7.159  11.015   9.406  0.4626 -0.1054  0.4792
28431SOL    HW197017   7.214  11.093   9.395  2.0703 -1.2651 -0.1010
28431SOL    HW297018   7.141  10.986   9.317 -0.6437 -0.0648  0.6803
28432SOL     OW97019   6.785   8.665  11.529 -0.0259  0.2328  0.3692
28432SOL    HW197020   6.713   8.609  11.559 -1.6301  1.5094 -0.9268
28432SOL    HW297021   6.860   8.637  11.582 -0.4165 -3.8174 -0.9000
28433SOL     OW97022   4.712   2.397   2.212 -0.3446  0.0699  0.9509
28433SOL    HW197023   4.722   2.469   2.275 -1.0736  1.5881 -0.5702
28433SOL    HW297024   4.669   2.438   2.136 -1.5605 -2.1728  0.3408
28434SOL     OW97025   3.737   0.810  10.185  0.3235  0.2552 -0.0471
28434SOL    HW197026   3.686   0.746  10.234 -1.5948  0.8254 -1.1466
28434SOL    HW297027   3.694   0.894  10.204  2.6698  1.2546  1.2366
28435SOL     OW97028   0.416   1.189  11.695  0.2451 -0.0095 -0.3441
28435SOL    HW197029   0.423   1.284  11.702 -0.5946 -0.0233  0.9968
28435SOL    HW297030   0.340   1.166  11.748 -0.4165 -1.3097 -1.7484
28436SOL     OW97031   4.295   5.838  11.777  0.5511  0.4291 -0.1906
28436SOL    HW197032   4.320   5.746  11.782 -0.8019 -0.0006 -0.7346
28436SOL    HW297033   4.327   5.876  11.859  2.3074 -0.1951 -0.5560
28437SOL     OW97034   8.721   7.174   4.305  0.2016  0.2637 -0.0737
28437SOL    HW197035   8.640   7.175   4.357  0.6150 -0.1875  0.5996
28437SOL    HW297036   8.718   7.091   4.257  0.5885 -0.0862  0.4932
28438SOL     OW97037   7.154   3.238   9.756 -0.5709 -0.1966 -0.1672
28438SOL    HW197038   7.217   3.292   9.707 -0.3178  0.2462  0.6335
28438SOL    HW297039   7.149   3.279   9.842 -1.8652 -0.2969 -0.1748
28439SOL     OW97040   3.230   3.100   4.689 -0.8989  0.0962  0.3561
28439SOL    HW197041   3.182   3.048   4.624 -1.4652  0.7949  0.2056
28439SOL    HW297042   3.322   3.086   4.668 -1.0748  0.1963 -0.5076
28440SOL     OW97043   8.163   3.820   0.508 -0.3440  0.1046 -0.1559
28440SOL    HW197044   8.089   3.871   0.542 -0.1238  1.3585 -1.5049
28440SOL    HW297045   8.168   3.843   0.416  1.1501 -0.6985 -0.3008
28441SOL     OW97046   8.248   3.591   7.960  0.4319  0.2732 -0.2955
28441SOL    HW197047   8.197   3.660   7.917 -0.6572  0.9952  1.9992
28441SOL    HW297048   8.327   3.635   7.990 -0.0811  0.4776  0.8170
28442SOL     OW97049   4.144   2.317   5.810  0.4719 -0.0351  0.3472
28442SOL    HW197050   4.150   2.405   5.773 -0.0506 -0.6139 -1.1737
28442SOL    HW297051   4.050   2.296   5.807  0.5940 -0.6564  0.6858
28443SOL     OW97052  11.128   1.633   0.305 -0.4933  0.7086  0.6770
28443SOL    HW197053  11.071   1.602   0.375 -0.6327  0.6233  0.5269
28443SOL    HW297054  11.126   1.564   0.239 -0.3663  0.7891  0.5865
28444SOL     OW97055   6.533   6.725  11.682  0.2707  0.4470 -0.0113
28444SOL    HW197056   6.516   6.730  11.776  0.5861  0.9539  0.0214
28444SOL    HW297057   6.584   6.804  11.662  0.1256  0.3944 -0.6242
28445SOL     OW97058   6.775   7.604   0.096 -0.0150 -0.0466 -0.1529
28445SOL    HW197059   6.824   7.550   0.035  0.1934 -1.5562  1.2942
28445SOL    HW297060   6.684   7.598   0.066 -0.0659 -1.6347  0.2547
28446SOL     OW97061   2.685   0.328   6.674  0.5507  0.3504 -0.6267
28446SOL    HW197062   2.689   0.287   6.587  0.8613 -0.3356 -0.2964
28446SOL    HW297063   2.596   0.363   6.679 -0.2894 -1.6630 -0.3254
28447SOL     OW97064   6.082   0.564   4.458  0.4109 -0.2384 -0.9015
28447SOL    HW197065   6.006   0.525   4.414  0.2507  0.3477 -1.1626
28447SOL    HW297066   6.157   0.514   4.425  0.3257  0.4117 -2.1199
28448SOL     OW97067   1.750   2.437   0.767  0.1432  0.2342 -0.0910
28448SOL    HW197068   1.815   2.368   0.758  0.3926  0.3423  0.8172
28448SOL    HW297069   1.801   2.519   0.764 -0.2225  0.4481 -1.9519
28449SOL     OW97070   3.944   3.108   1.100  0.3929 -0.7367  0.4154
28449SOL    HW197071   3.997   3.146   1.171  1.4013 -0.2701 -0.5657
28449SOL    HW297072   3.963   3.163   1.024 -1.2191 -0.7986 -0.0690
28450SOL     OW97073   6.844   7.462   3.093 -0.0708 -0.2451 -0.2069
28450SOL    HW197074   6.759   7.477   3.051  1.1085 -0.0830 -2.6678
28450SOL    HW297075   6.900   7.427   3.024  2.3313  1.1031  0.9265
28451SOL     OW97076   4.601  11.769   8.207  0.5139 -0.0260 -0.3550
28451SOL    HW197077   4.585  11.856   8.243 -0.8788 -0.1932 -0.5201
28451SOL    HW297078   4.655  11.726   8.273  0.5399  0.6853  0.1007
28452SOL     OW97079  10.950   8.602   5.459  0.1396  0.1146  0.0224
28452SOL    HW197080  10.856   8.597   5.474 -0.3982 -0.1745 -2.9319
28452SOL    HW297081  10.987   8.532   5.513 -1.3676 -0.0734  0.8506
28453SOL     OW97082   9.532   9.986   2.590  0.3874 -0.4336  0.7275
28453SOL    HW197083   9.453   9.997   2.642  1.0963  0.9604  1.5934
28453SOL    HW297084   9.604   9.999   2.653  1.2854  1.8777 -0.6455
28454SOL     OW97085   9.483   1.252   7.178 -0.1547  0.6830 -0.0316
28454SOL    HW197086   9.413   1.246   7.243  0.4764  1.1345  0.7175
28454SOL    HW297087   9.472   1.175   7.123 -0.4392  0.0475  0.8995
28455SOL     OW97088   2.970  10.181   3.666  0.3846  0.2285  0.0818
28455SOL    HW197089   3.013  10.117   3.724  0.7528 -0.7372 -1.2046
28455SOL    HW297090   3.040  10.209   3.607  0.2823  2.0446  0.7725
28456SOL     OW97091   4.129   3.910   0.771 -0.2408  0.2309 -0.1792
28456SOL    HW197092   4.147   3.917   0.865 -0.1071 -0.7029 -0.1250
28456SOL    HW297093   4.147   3.998   0.737  1.9304  0.0436  0.3010
28457SOL     OW97094   9.801   6.931   5.540  0.3190  0.1763  0.3215
28457SOL    HW197095   9.717   6.930   5.584  0.2961 -2.2301  0.3147
28457SOL    HW297096   9.783   6.897   5.452  1.0506  1.1149 -0.2129
28458SOL     OW97097  11.661   8.670  10.201  0.1681  0.8549  0.2144
28458SOL    HW197098  11.566   8.680  10.202  0.1012  0.3439  1.5304
28458SOL    HW297099  11.679   8.611  10.128 -0.5265  0.9149 -0.0089
28459SOL     OW97100   1.671   8.229   7.419 -0.1160 -0.3775  0.0563
28459SOL    HW197101   1.668   8.194   7.508 -2.2183 -0.9593 -0.1995
28459SOL    HW297102   1.719   8.163   7.369  0.0512 -0.6026  0.5094
28460SOL     OW97103   9.446   3.221  11.776  0.4505 -0.5464 -0.0569
28460SOL    HW197104   9.458   3.270  11.695  0.3899  0.3236  0.4459
28460SOL    HW297105   9.528   3.231  11.823  0.3910 -0.8242  0.1074
28461SOL     OW97106   1.264   3.929   3.326 -0.6441  0.2441 -0.0754
28461SOL    HW197107   1.265   4.021   3.302  1.1571  0.3022  0.0627
28461SOL    HW297108   1.355   3.901   3.319 -0.7032 -0.8573  2.3345
28462SOL     OW97109   0.604   6.442   7.004 -0.3336 -0.2667  0.0251
28462SOL    HW197110   0.535   6.429   6.939 -0.6131 -0.9727  0.4563
28462SOL    HW297111   0.604   6.536   7.020 -0.5926 -0.1477 -0.6321
28463SOL     OW97112   9.249   0.172  10.551  0.2152  0.6262 -0.6408
28463SOL    HW197113   9.230   0.219  10.470  0.3519  0.5530 -0.7151
28463SOL    HW297114   9.303   0.098  10.524 -0.8988 -0.2028 -0.6786
28464SOL     OW97115   1.866  11.504   9.585  0.1918  0.0255  0.3751
28464SOL    HW197116   1.896  11.492   9.676 -1.1075  0.7583  0.9297
28464SOL    HW297117   1.910  11.583   9.556  1.9372 -1.1198 -0.2557
28465SOL     OW97118   9.611   8.021   6.606  0.3005  0.0239  0.2031
28465SOL    HW197119   9.602   8.085   6.677 -2.2865 -0.1306  0.1085
28465SOL    HW297120   9.613   7.936   6.651  0.0626 -0.0058  0.1569
28466SOL     OW97121   5.904   8.184   8.215  0.3610 -0.6112 -0.4329
28466SOL    HW197122   5.862   8.146   8.137  1.9408 -1.0364 -1.1081
28466SOL    HW297123   5.927   8.273   8.188  0.2647 -0.5178 -0.2057
28467SOL     OW97124   9.746   1.516   3.327 -0.5755 -0.1100 -0.4636
28467SOL    HW197125   9.799   1.475   3.395  0.4937 -1.3345 -1.9713
28467SOL    HW297126   9.665   1.465   3.326 -0.6357 -0.0275 -0.0683
28468SOL     OW97127   9.131   7.546   3.321  0.3137 -0.2031  0.4872
28468SOL    HW197128   9.078   7.515   3.248  0.0527  1.1647  0.0626
28468SOL    HW297129   9.087   7.514   3.399  0.5220 -1.5745  0.0720
28469SOL     OW97130   3.540   9.835   1.028 -0.5174  0.1945 -0.3813
28469SOL    HW197131   3.605   9.894   1.067  1.0150 -0.6947 -1.4922
28469SOL    HW297132   3.549   9.754   1.077 -0.3039 -0.1589 -1.0062
28470SOL     OW97133  11.060   7.919  10.093  0.6133  0.1911  0.1136
28470SOL    HW197134  11.071   7.891  10.002 -0.7732 -0.6814  0.1880
28470SOL    HW297135  11.076   8.014  10.091  1.4716  0.0461 -0.8589
28471SOL     OW97136   8.354   0.081   2.415 -0.3549  0.2949 -0.6189
28471SOL    HW197137   8.344  -0.012   2.394  0.9519 -0.3485  1.2810
28471SOL    HW297138   8.363   0.124   2.330 -3.2064 -0.9614 -1.6635
28472SOL     OW97139  10.091   4.315  10.258 -0.5626 -0.9855  0.1206
28472SOL    HW197140  10.070   4.251  10.326 -1.7099 -0.1641  0.5594
28472SOL    HW297141  10.007   4.354  10.234 -0.3933 -2.0702 -2.6341
28473SOL     OW97142   3.308  11.166   2.111  0.0782 -0.1030  0.0829
28473SOL    HW197143   3.237  11.219   2.149 -1.1509  0.2235 -2.4504
28473SOL    HW297144   3.387  11.201   2.151 -1.0914 -0.0665  2.5745
28474SOL     OW97145   0.083   9.705   6.568  0.4248  0.1444 -0.6440
28474SOL    HW197146   0.049   9.739   6.485  0.5907  0.6382 -0.5133
28474SOL    HW297147   0.067   9.776   6.630  0.1679 -0.2812 -0.2225
28475SOL     OW97148   2.528   0.280   2.163  0.1672  0.0033  0.0861
28475SOL    HW197149   2.535   0.374   2.147  0.8696 -0.0376  0.1327
28475SOL    HW297150   2.503   0.273   2.255 -0.5824  0.1591 -0.1038
28476SOL     OW97151   5.303   5.314   6.410  0.2031 -0.2985  0.1327
28476SOL    HW197152   5.221   5.364   6.409  0.3444 -0.0643 -0.0848
28476SOL    HW297153   5.311   5.279   6.321  0.1279 -0.6713  0.2726
28477SOL     OW97154   5.957   5.154   8.943 -0.2915  0.1135 -0.1046
28477SOL    HW197155   6.006   5.214   8.888 -2.0731  0.2916 -1.5853
28477SOL    HW297156   6.013   5.139   9.019  0.6089  2.8466 -0.1574
28478SOL     OW97157   2.490   9.135   4.966 -0.0843 -0.2585  0.2633
28478SOL    HW197158   2.418   9.197   4.977  0.6195  1.1032 -2.1088
28478SOL    HW297159   2.452   9.050   4.988 -1.7018  0.7196  1.4467
28479SOL     OW97160   2.719   8.084   2.780  0.0009  0.1456  0.3805
28479SOL    HW197161   2.636   8.046   2.751  0.7641  0.1758 -2.0718
28479SOL    HW297162   2.705   8.178   2.777  0.5058  0.1950 -1.4546
28480SOL     OW97163   7.606   8.414   8.989  0.2004 -0.2546 -0.3138
28480SOL    HW197164   7.629   8.367   8.909 -0.4562  1.5205 -1.6032
28480SOL    HW297165   7.538   8.476   8.962 -0.0499  0.3851  1.6292
28481SOL     OW97166  11.294  10.070   8.963  0.0815  0.2644 -0.3690
28481SOL    HW197167  11.274  10.090   8.871 -0.2685  0.7367 -0.1930
28481SOL    HW297168  11.329  10.152   8.998  2.1582 -0.4651 -0.6045
28482SOL     OW97169   4.502   5.574   6.502 -0.4002 -0.3320 -0.3797
28482SOL    HW197170   4.561   5.525   6.560 -0.7626  0.5643  0.7660
28482SOL    HW297171   4.560   5.608   6.433  0.2352 -0.4347  0.0910
28483SOL     OW97172   0.158   4.149   1.672 -0.2518 -0.3611  0.6724
28483SOL    HW197173   0.165   4.172   1.579 -0.4826  1.2719  1.0281
28483SOL    HW297174   0.133   4.056   1.671 -0.0663 -0.4362 -0.8832
28484SOL     OW97175   3.951   2.060   6.471  0.1331  0.2999 -0.3174
28484SOL    HW197176   3.975   2.038   6.561  1.9634 -1.2120 -1.0874
28484SOL    HW297177   4.016   2.125   6.444  0.2386 -0.0192 -0.8504
28485SOL     OW97178   7.057   2.813   9.194  0.6391 -0.4193 -0.2022
28485SOL    HW197179   7.036   2.817   9.101  2.3326 -2.7698 -0.7843
28485SOL    HW297180   7.010   2.736   9.227  0.2363  0.2516  0.8542
28486SOL     OW97181   8.796   1.724   8.758 -0.0539  0.1822 -0.0438
28486SOL    HW197182   8.719   1.670   8.777 -2.1149  2.2020 -2.1307
28486SOL    HW297183   8.861   1.661   8.725 -1.6324 -1.3157 -0.4757
28487SOL     OW97184   1.319   7.537   1.553 -0.2393 -0.8290 -0.1595
28487SOL    HW197185   1.329   7.537   1.648  0.5576  1.5173 -0.1699
28487SOL    HW297186   1.405   7.512   1.519 -0.2137 -0.6071 -0.2592
28488SOL     OW97187   1.093   0.682   0.345 -0.2373  0.3028  0.0450
28488SOL    HW197188   1.113   0.635   0.426  0.5805  1.9187  0.8229
28488SOL    HW297189   1.137   0.767   0.354 -3.3203  2.0982 -0.3867
28489SOL     OW97190   5.361   4.305   1.380  0.1139  0.8485 -0.6016
28489SOL    HW197191   5.289   4.350   1.337 -0.1730  0.2258 -0.7907
28489SOL    HW297192   5.402   4.253   1.311 -0.6437 -0.5284 -0.0721
28490SOL     OW97193  11.611   5.073   5.026 -0.4665 -0.1654 -0.0303
28490SOL    HW197194  11.632   5.136   4.957  1.7609  0.2739  0.9365
28490SOL    HW297195  11.536   5.025   4.993 -0.9184  1.5816 -1.7233
28491SOL     OW97196   5.820  10.250   3.880 -1.0949 -0.1309  0.3802
28491SOL    HW197197   5.888  10.230   3.945 -1.0214  1.3201  0.7977
28491SOL    HW297198   5.861  10.230   3.796  0.5595  2.3545  0.4923
28492SOL     OW97199   1.764   7.097   1.654 -0.3459  0.6078 -0.4663
28492SOL    HW197200   1.819   7.173   1.673  0.2387  0.5108 -1.6340
28492SOL    HW297201   1.753   7.053   1.738  1.2518  0.7269 -0.1539
28493SOL     OW97202   6.431   4.471   7.557  0.1096 -0.2635  0.1409
28493SOL    HW197203   6.454   4.554   7.600 -0.7722  0.3509 -0.5158
28493SOL    HW297204   6.363   4.433   7.612  0.6598 -0.6635  0.5532
28494SOL     OW97205   4.113   5.346   5.092  0.6310  0.0425 -0.1345
28494SOL    HW197206   4.048   5.279   5.072  1.0301 -0.1433 -0.8617
28494SOL    HW297207   4.168   5.307   5.160  2.0591 -1.2032 -1.8941
28495SOL     OW97208   6.145   1.003  11.003 -0.7860 -0.4134 -0.1089
28495SOL    HW197209   6.105   1.086  11.032 -0.7899 -0.3944 -0.1681
28495SOL    HW297210   6.073   0.940  11.005 -0.7373 -0.4586  0.1236
28496SOL     OW97211   8.074   0.176   2.258 -0.4416  0.0872  0.0646
28496SOL    HW197212   8.114   0.204   2.340  0.9676 -1.3075 -0.1158
28496SOL    HW297213   8.128   0.216   2.190 -0.6004 -0.1218 -0.1867
28497SOL     OW97214   4.809   0.485  11.691  0.2235 -0.7673  0.4500
28497SOL    HW197215   4.811   0.580  11.679  1.3509 -0.6981  1.1033
28497SOL    HW297216   4.736   0.456  11.635 -0.4734  0.5206  0.6437
28498SOL     OW97217   9.879   9.431   6.039 -0.2168 -0.5380 -0.7172
28498SOL    HW197218   9.796   9.462   6.003  0.7230  1.5749 -1.2022
28498SOL    HW297219   9.887   9.341   6.007 -1.3065 -0.0541 -2.4838
28499SOL     OW97220   3.646   4.905   5.322 -0.0511 -0.0060  0.2036
28499SOL    HW197221   3.617   4.949   5.242  1.1520 -0.9459 -0.7773
28499SOL    HW297222   3.589   4.829   5.330  0.2402 -0.2676 -0.1390
28500SOL     OW97223   7.230   4.225   3.787  0.2491  0.1304  0.3878
28500SOL    HW197224   7.167   4.272   3.841  0.9180 -1.2965  2.5142
28500SOL    HW297225   7.177   4.166   3.734 -0.3322  0.5338  0.5150
28501SOL     OW97226   7.700   2.299   5.692 -0.3896  0.6118 -0.5147
28501SOL    HW197227   7.752   2.283   5.771  0.7785 -0.7041 -1.5072
28501SOL    HW297228   7.690   2.213   5.652 -3.9948  0.6536 -0.0435
28502SOL     OW97229   8.904   5.605   7.060  0.3088  0.2789 -0.6602
28502SOL    HW197230   8.904   5.509   7.065 -1.0915  0.2866 -0.1931
28502SOL    HW297231   8.915   5.634   7.150 -0.4707  0.5506 -0.6520
28503SOL     OW97232   7.569   4.889   9.149 -0.0339 -0.0187  0.1100
28503SOL    HW197233   7.582   4.928   9.062 -1.1565 -1.0112 -0.5397
28503SOL    HW297234   7.528   4.959   9.200 -0.6577  0.1456 -0.5926
28504SOL     OW97235   4.620   9.071   4.416  0.1610  0.0812  0.6903
28504SOL    HW197236   4.554   9.139   4.400  0.4227  0.3027  0.5630
28504SOL    HW297237   4.576   8.990   4.392  1.0924  0.4830 -2.9780
28505SOL     OW97238   1.606  11.190   8.594  0.0053 -1.1560  0.0889
28505SOL    HW197239   1.542  11.257   8.570  0.8083 -0.4482 -0.1210
28505SOL    HW297240   1.568  11.148   8.671 -0.2726 -0.0838  0.5639
28506SOL     OW97241  10.151   4.941   4.069 -0.2403 -0.2640 -0.4773
28506SOL    HW197242  10.146   5.034   4.090 -0.6372 -0.6692  1.3440
28506SOL    HW297243  10.060   4.916   4.052 -0.3557 -0.6651  0.6827
28507SOL     OW97244   8.780   7.927   2.584 -0.2259  0.5824  0.4943
28507SOL    HW197245   8.855   7.925   2.524 -0.3701  1.6457  0.2526
28507SOL    HW297246   8.813   7.887   2.664 -0.0033 -0.8041 -0.2472
28508SOL     OW97247   6.456   7.430   5.928 -0.8439 -0.1321 -0.3098
28508SOL    HW197248   6.468   7.422   6.023 -1.3264  0.0721 -0.2307
28508SOL    HW297249   6.541   7.459   5.896 -0.7807  0.1550  0.1057
28509SOL     OW97250   4.648  10.666   6.972  0.5604 -0.3112 -0.7823
28509SOL    HW197251   4.630  10.712   7.053 -0.2926  0.5952 -1.4716
28509SOL    HW297252   4.577  10.602   6.964  0.3899 -0.0866 -1.0497
28510SOL     OW97253   3.194   8.017   2.091 -0.3903 -0.4374 -0.3797
28510SOL    HW197254   3.241   8.088   2.047 -0.3588 -0.8135 -0.9675
28510SOL    HW297255   3.218   7.939   2.042  0.1298 -0.9692  0.6893
28511SOL     OW97256   8.317   0.147   7.631  0.3393 -0.0347 -0.6455
28511SOL    HW197257   8.233   0.112   7.662 -0.2601  2.0669  0.2229
28511SOL    HW297258   8.302   0.168   7.539  0.0533 -0.0390 -0.5996
28512SOL     OW97259   3.598   8.255   5.039 -0.0647  0.2185  0.0903
28512SOL    HW197260   3.650   8.181   5.070  1.7368  1.2221 -0.4341
28512SOL    HW297261   3.554   8.222   4.960  1.6691  0.0126 -0.8414
28513SOL     OW97262   0.270   6.153  11.586  0.4406  0.1409 -0.4616
28513SOL    HW197263   0.295   6.071  11.545 -1.0077  0.2912 -1.7413
28513SOL    HW297264   0.306   6.221  11.529  0.3159  0.3802 -0.2631
28514SOL     OW97265   0.008   4.863   1.788  0.0826 -0.1825  0.3001
28514SOL    HW197266  -0.073   4.909   1.808  1.1207  2.5099 -1.2301
28514SOL    HW297267  -0.012   4.810   1.711 -0.1415  0.8446 -0.3646
28515SOL     OW97268   9.160   5.325   5.764  0.0737 -0.2998 -0.1175
28515SOL    HW197269   9.068   5.321   5.740 -0.0450  2.3743 -0.4296
28515SOL    HW297270   9.201   5.378   5.695  1.1436  1.4289  1.7306
28516SOL     OW97271   1.816   6.665   8.208 -0.0200  0.2101 -0.2412
28516SOL    HW197272   1.745   6.639   8.149 -2.1351  2.8553  0.8667
28516SOL    HW297273   1.771   6.703   8.283  2.6008  1.7229  0.6990
28517SOL     OW97274   6.582   3.613   6.935  0.7209  0.5126 -0.0906
28517SOL    HW197275   6.640   3.657   6.996  1.5075  1.5689 -1.5546
28517SOL    HW297276   6.601   3.520   6.947 -0.2081  0.5513  2.2720
28518SOL     OW97277   9.246   6.200  11.657  0.0498 -0.2813  0.1696
28518SOL    HW197278   9.340   6.214  11.648 -0.3319  2.3032 -0.5587
28518SOL    HW297279   9.235   6.105  11.647  2.5132 -0.6161 -0.0243
28519SOL     OW97280   6.341   6.233   1.204  0.2510 -0.7589  0.2687
28519SOL    HW197281   6.253   6.195   1.209 -0.1544  0.2451  0.8966
28519SOL    HW297282   6.364   6.226   1.111 -1.1998  0.5074 -0.2258
28520SOL     OW97283   8.981   0.076   6.411  0.1236 -0.2636  0.1288
28520SOL    HW197284   8.985   0.056   6.504 -1.6117 -0.0883  0.2703
28520SOL    HW297285   9.040   0.150   6.400  0.9706 -0.8021  0.9270
28521SOL     OW97286  11.815   4.719   2.672  0.3211 -0.2142 -0.4356
28521SOL    HW197287  11.817   4.695   2.764  1.9442  0.6313 -0.2117
28521SOL    HW297288  11.871   4.655   2.628  1.9867  1.0902 -0.3300
28522SOL     OW97289   7.938   7.555   3.336 -0.2614 -0.1349 -0.3405
28522SOL    HW197290   7.852   7.559   3.376  0.5950 -0.5604  1.6578
28522SOL    HW297291   7.986   7.629   3.374 -0.4974  1.8258 -3.5105
28523SOL     OW97292   5.515  11.583  11.792  0.0300  0.2579  0.5297
28523SOL    HW197293   5.490  11.629  11.872  0.2349  0.8048  0.2839
28523SOL    HW297294   5.533  11.652  11.729  0.5002 -0.1547  0.2006
28524SOL     OW97295   0.632   2.267   7.245 -0.1247  0.4402  0.0200
28524SOL    HW197296   0.722   2.240   7.267 -0.9377 -2.2075  0.4805
28524SOL    HW297297   0.629   2.266   7.149  0.6463  1.8453 -0.0467
28525SOL     OW97298   6.453   5.805  11.946  0.3548 -0.5463  0.1784
28525SOL    HW197299   6.549   5.807  11.945  0.3991 -1.7859  0.2578
28525SOL    HW297300   6.431   5.723  11.901 -0.7059  0.4020 -1.1016
28526SOL     OW97301   2.723   0.445   8.625 -0.3551  0.9904  0.1932
28526SOL    HW197302   2.770   0.448   8.708 -0.4008 -2.5451  0.5119
28526SOL    HW297303   2.652   0.382   8.640 -0.6914  0.6514 -2.3556
28527SOL     OW97304   8.657   4.676   3.772 -0.5538 -0.1578  0.1028
28527SOL    HW197305   8.605   4.617   3.826  0.5446 -0.1225  1.2460
28527SOL    HW297306   8.596   4.708   3.706 -1.6492 -1.0876  0.6251
28528SOL     OW97307   8.064  11.654   9.151  0.3130 -0.3226 -0.4736
28528SOL    HW197308   8.102  11.589   9.210  0.3930 -0.1624 -0.3524
28528SOL    HW297309   7.991  11.691   9.200 -0.8638 -1.5731 -1.1782
28529SOL     OW97310   2.543   2.018  11.405 -0.4396  0.2189  0.1277
28529SOL    HW197311   2.466   2.001  11.460 -0.5802  0.6166  0.0568
28529SOL    HW297312   2.608   1.954  11.434 -0.0696  1.2355  1.6522
28530SOL     OW97313   5.969   4.515   0.742 -0.2544 -0.2983  0.9721
28530SOL    HW197314   5.912   4.458   0.794 -1.2108  1.3992  1.8777
28530SOL    HW297315   5.908   4.571   0.693  0.6438 -0.6396 -0.6079
28531SOL     OW97316   1.134   5.841   4.939  0.2666 -0.6358  0.0419
28531SOL    HW197317   1.144   5.754   4.978 -1.8156 -0.6323  0.7075
28531SOL    HW297318   1.051   5.874   4.973 -0.1791  0.6463 -2.0346
28532SOL     OW97319   6.285   5.579   7.534 -0.5341  0.2772  0.1195
28532SOL    HW197320   6.322   5.663   7.505  2.2871 -0.9603 -0.1336
28532SOL    HW297321   6.246   5.541   7.456 -0.3379  0.6158 -0.1454
28533SOL     OW97322   4.983   0.031  11.257 -0.3426  0.3231 -0.1376
28533SOL    HW197323   5.062   0.002  11.302 -0.2388  1.5150  0.4821
28533SOL    HW297324   5.000   0.123  11.236 -1.3427  0.4346 -0.5109
28534SOL     OW97325  11.402   2.156   5.095 -0.0316  0.1514  0.2606
28534SOL    HW197326  11.486   2.112   5.106 -0.0247  0.2060  0.4300
28534SOL    HW297327  11.422   2.233   5.041 -0.0346 -0.0260  0.0056
28535SOL     OW97328   9.199  10.584  11.174 -0.7494  0.1143  0.7034
28535SOL    HW197329   9.280  10.560  11.220  0.7811 -0.6364 -2.1660
28535SOL    HW297330   9.176  10.506  11.124  0.2713  2.0606 -3.2179
28536SOL     OW97331   7.610   5.581   1.233 -0.4362  0.0770 -0.0677
28536SOL    HW197332   7.578   5.491   1.226  0.6257 -0.3535  0.4313
28536SOL    HW297333   7.628   5.607   1.143 -0.3220 -0.3704 -0.1756
28537SOL     OW97334   1.301   0.061  10.267 -0.6232  0.1555 -0.3048
28537SOL    HW197335   1.215   0.051  10.225 -0.8418 -1.4157  0.4512
28537SOL    HW297336   1.362   0.020  10.205 -0.6173 -0.0028 -0.1947
28538SOL     OW97337   4.447  10.937   1.065 -0.2101  0.4812 -0.0263
28538SOL    HW197338   4.381  10.896   1.121  0.4005  0.3249  0.6046
28538SOL    HW297339   4.485  11.006   1.120 -0.7651  1.4688 -0.8442
28539SOL     OW97340   8.334   9.381   9.649  0.1041  0.1646 -0.3985
28539SOL    HW197341   8.429   9.369   9.645  0.1673  0.7053 -0.7323
28539SOL    HW297342   8.323   9.473   9.674 -0.3333 -0.6771  2.9146
28540SOL     OW97343   5.308   9.141   8.875  0.1146  0.2822  0.2693
28540SOL    HW197344   5.308   9.181   8.962  0.1183  0.0620  0.3713
28540SOL    HW297345   5.392   9.166   8.837 -0.9106  2.5197 -0.6689
28541SOL     OW97346   4.050   4.585   3.201  0.2010  0.1461  0.1250
28541SOL    HW197347   4.122   4.556   3.257  1.4288 -0.4774 -1.7003
28541SOL    HW297348   4.051   4.681   3.209  1.0724  0.1293  0.3315
28542SOL     OW97349   6.309   8.845   2.647 -0.4863 -0.2537 -0.2801
28542SOL    HW197350   6.224   8.884   2.625 -0.8760 -0.0215  1.4391
28542SOL    HW297351   6.325   8.873   2.737  1.5777 -0.0738 -0.6680
28543SOL     OW97352   8.160   2.490  11.143  0.0916 -0.1967  0.3670
28543SOL    HW197353   8.116   2.531  11.218 -1.0339 -0.5605 -0.0733
28543SOL    HW297354   8.195   2.563  11.092  0.0779  0.0941  0.7724
28544SOL     OW97355   1.446   0.444  10.761  0.3197  0.3195  0.1863
28544SOL    HW197356   1.408   0.446  10.849  0.8240  1.1216  0.3999
28544SOL    HW297357   1.523   0.388  10.769 -1.1576 -1.9279 -0.4184
28545SOL     OW97358   4.293   2.324   9.740  0.0819  0.2011  0.7011
28545SOL    HW197359   4.249   2.380   9.677  0.1632  1.3424  1.6220
28545SOL    HW297360   4.383   2.356   9.743  0.3654 -0.5622  0.5851
28546SOL     OW97361   9.267   2.586   4.417 -0.2220  0.0119 -0.1880
28546SOL    HW197362   9.213   2.530   4.473 -1.7812  0.5212 -1.1292
28546SOL    HW297363   9.302   2.528   4.350 -1.3349  0.0422 -0.8028
28547SOL     OW97364   4.507   6.378   2.075 -0.2341 -0.0201  0.2736
28547SOL    HW197365   4.516   6.311   2.007 -0.4159 -2.2245  2.2920
28547SOL    HW297366   4.418   6.366   2.109 -0.0196  0.7772  1.1625
28548SOL     OW97367   6.363   7.367   7.192  0.1978 -0.5050 -0.2550
28548SOL    HW197368   6.456   7.383   7.172 -0.0455  0.5508 -0.5945
28548SOL    HW297369   6.364   7.287   7.244  1.2496 -0.8462 -0.7575
28549SOL     OW97370  11.103   4.073   7.252 -0.0436  0.0630 -0.1860
28549SOL    HW197371  11.111   3.983   7.220  2.5061  0.4464 -0.8376
28549SOL    HW297372  11.112   4.065   7.347  4.0934 -0.2074 -0.4012
28550SOL     OW97373   9.449   4.526   2.202 -0.1959 -0.4314 -0.0048
28550SOL    HW197374   9.358   4.499   2.192 -0.8864  1.8704 -0.3801
28550SOL    HW297375   9.474   4.494   2.290 -1.8858  0.3031  0.7794
28551SOL     OW97376   0.454   2.662   9.474 -0.0954 -0.5680  0.1358
28551SOL    HW197377   0.408   2.617   9.404  0.6209 -0.8651 -0.1552
28551SOL    HW297378   0.392   2.729   9.505 -0.9575 -1.3752  0.2004
28552SOL     OW97379   7.410   8.716   0.096 -0.1236 -0.2720 -0.0480
28552SOL    HW197380   7.369   8.715   0.010 -0.7926 -0.4525  0.2682
28552SOL    HW297381   7.490   8.767   0.084 -0.8545  0.7987 -0.4841
28553SOL     OW97382   8.674   0.781   2.287 -0.0688  0.2700  0.1321
28553SOL    HW197383   8.660   0.752   2.197  1.3880  1.3791 -0.5043
28553SOL    HW297384   8.713   0.869   2.278  0.0047  0.4515  1.8383
28554SOL     OW97385   0.299   5.926   3.088  0.0526 -0.7346  0.2591
28554SOL    HW197386   0.354   5.979   3.145  0.0022  0.7847 -1.0142
28554SOL    HW297387   0.251   5.991   3.035 -1.2185 -2.0501 -0.2500
28555SOL     OW97388   0.885   1.519   6.646 -0.0339  0.1728  0.0485
28555SOL    HW197389   0.794   1.527   6.616  0.7263  1.8645 -1.9725
28555SOL    HW297390   0.908   1.428   6.628 -1.3066 -0.2917  0.6212
28556SOL     OW97391   7.325   9.573   1.781  0.0910 -0.1701 -0.0077
28556SOL    HW197392   7.385   9.590   1.708 -0.0445  0.4270  0.0147
28556SOL    HW297393   7.305   9.480   1.774 -0.0124 -0.0983 -0.8075
28557SOL     OW97394   1.340   4.471   3.757  0.0803 -0.4456  0.3183
28557SOL    HW197395   1.378   4.555   3.786  0.7097 -0.5621 -0.1671
28557SOL    HW297396   1.412   4.425   3.714 -0.5975 -0.6911 -0.5810
28558SOL     OW97397   2.910   8.228   1.485 -0.1790  0.1192 -0.0174
28558SOL    HW197398   2.847   8.171   1.528  0.9300 -1.1567 -0.0115
28558SOL    HW297399   2.860   8.272   1.416 -1.3776  0.2257  0.8903
28559SOL     OW97400   6.644   4.278   6.498 -0.5688  0.3219 -0.0549
28559SOL    HW197401   6.674   4.309   6.413  0.9997  3.0733  1.3721
28559SOL    HW297402   6.563   4.231   6.479  1.8003 -2.9266 -3.4977
28560SOL     OW97403   8.600   2.667  10.797  0.0241  0.2213  0.9162
28560SOL    HW197404   8.679   2.628  10.761 -0.5997 -0.5495  0.3534
28560SOL    HW297405   8.628   2.754  10.827  0.3294  1.6311 -2.8556
28561SOL     OW97406   4.769   1.077   2.257  1.0092 -0.2615 -0.2026
28561SOL    HW197407   4.809   1.051   2.174 -0.5042  0.5349 -1.2272
28561SOL    HW297408   4.681   1.106   2.233  0.2647 -0.7153  1.7820
28562SOL     OW97409   4.480   7.946   0.616 -0.0627 -0.0367 -0.4252
28562SOL    HW197410   4.435   7.873   0.658  1.0959 -1.6475 -1.8313
28562SOL    HW297411   4.513   7.910   0.534  1.5104  1.7746 -0.6696
28563SOL     OW97412  11.550  11.025   9.225  0.1159  0.0535  0.0182
28563SOL    HW197413  11.613  11.097   9.216  0.9011 -0.5627  0.5033
28563SOL    HW297414  11.488  11.039   9.154  0.6582  0.8165 -0.3190
28564SOL     OW97415   5.798   0.163   3.180 -0.2139 -0.2642  0.9050
28564SOL    HW197416   5.728   0.193   3.238 -2.0903  0.2454 -1.4351
28564SOL    HW297417   5.855   0.239   3.170  0.9582 -0.7705  3.0613
28565SOL     OW97418   3.780  11.955   8.831  0.0003 -0.3566  0.3218
28565SOL    HW197419   3.747  11.865   8.836 -2.3841  0.3539 -1.2803
28565SOL    HW297420   3.871  11.948   8.861  0.2713 -3.5002 -0.8227
28566SOL     OW97421   6.287   2.720   6.053  0.0873  0.4822  0.2023
28566SOL    HW197422   6.361   2.694   5.998 -0.0665  0.0006  0.2127
28566SOL    HW297423   6.251   2.797   6.011 -0.7677 -0.5689 -1.0779
28567SOL     OW97424  10.999  11.696   1.275  0.0012 -0.0545  0.4378
28567SOL    HW197425  11.019  11.621   1.331  2.1491  1.2296  1.5211
28567SOL    HW297426  10.906  11.714   1.290 -0.7526 -2.8004 -0.3112
28568SOL     OW97427   2.584   4.838   2.457 -0.5741  0.5426 -0.1774
28568SOL    HW197428   2.548   4.873   2.539 -0.6851 -0.0225  0.0233
28568SOL    HW297429   2.617   4.752   2.481  1.0118  1.0787 -0.3393
28569SOL     OW97430   1.989   0.648   5.846 -0.0673  0.4807  0.7108
28569SOL    HW197431   2.081   0.643   5.871 -0.1567  2.1680  1.5386
28569SOL    HW297432   1.948   0.699   5.916 -1.5731  0.0422  0.1886
28570SOL     OW97433   9.530   7.216   6.804  0.2305  0.4010 -0.5550
28570SOL    HW197434   9.580   7.148   6.850  0.3147  0.7374 -0.1478
28570SOL    HW297435   9.457   7.236   6.862 -0.4861 -0.1960 -1.2139
28571SOL     OW97436   1.869  11.306   7.159  0.1096  0.0588  0.2600
28571SOL    HW197437   1.800  11.358   7.118 -0.3779 -0.2673  0.6726
28571SOL    HW297438   1.942  11.312   7.097 -0.5718 -0.3223 -0.6052
28572SOL     OW97439   0.942   1.657   5.600 -0.5499  0.3711 -0.0102
28572SOL    HW197440   0.998   1.725   5.563 -0.4483  1.3468  1.8124
28572SOL    HW297441   1.003   1.599   5.647 -0.7108 -0.6491 -0.9993
28573SOL     OW97442   4.709  10.818   8.358  0.3114  0.9770  0.3288
28573SOL    HW197443   4.769  10.877   8.404 -0.4443  1.3918  0.7938
28573SOL    HW297444   4.706  10.739   8.412 -1.1780  1.7583  1.4394
28574SOL     OW97445   3.614  10.602   5.283 -0.2617  0.4867  0.3446
28574SOL    HW197446   3.534  10.551   5.274 -1.0457  1.7561 -0.1937
28574SOL    HW297447   3.683  10.547   5.244 -0.9436 -0.4299  0.4167
28575SOL     OW97448   2.002   8.388   9.712 -0.2121  0.7911 -0.0116
28575SOL    HW197449   2.010   8.478   9.681 -0.5518  0.2684 -1.7492
28575SOL    HW297450   2.076   8.342   9.670  0.4884  0.4244  1.5622
28576SOL     OW97451   3.552   8.299   0.968 -0.5664  0.1610  0.0051
28576SOL    HW197452   3.599   8.264   0.893 -0.9199 -1.3283  0.4371
28576SOL    HW297453   3.472   8.338   0.931 -0.1645  0.5156 -0.4926
28577SOL     OW97454   3.377   3.000   7.935  0.1073  0.8658 -0.9247
28577SOL    HW197455   3.391   3.004   8.030 -0.3680 -1.5890 -0.6862
28577SOL    HW297456   3.386   3.090   7.906  1.8761  1.4877  1.2282
28578SOL     OW97457   6.053   0.739  11.320  1.1235 -0.2765  0.0661
28578SOL    HW197458   5.975   0.724  11.374 -0.2380 -0.3017 -1.8079
28578SOL    HW297459   6.067   0.833  11.323 -0.4917  0.0609 -1.4960
28579SOL     OW97460   1.958   2.240   0.780  0.5884  0.1798  0.0772
28579SOL    HW197461   1.989   2.223   0.691  0.8354 -0.1386  0.2199
28579SOL    HW297462   2.010   2.314   0.811 -0.0585  0.8162 -0.3272
28580SOL     OW97463   2.510   0.572   2.111 -0.0597 -1.1917  0.6620
28580SOL    HW197464   2.527   0.608   2.024 -1.5642 -0.5314  0.6157
28580SOL    HW297465   2.591   0.588   2.160  0.3540 -0.4212 -0.2369
28581SOL     OW97466   1.675  10.659   9.959 -0.9298  0.2028  0.0783
28581SOL    HW197467   1.690  10.565   9.971 -0.6340  0.5722  3.2728
28581SOL    HW297468   1.763  10.697   9.957 -1.0071  0.4192 -2.0847
28582SOL     OW97469   7.963   9.584  10.761  0.4264  0.4146  0.6914
28582SOL    HW197470   7.899   9.634  10.812  0.2796 -0.7844  1.7482
28582SOL    HW297471   8.040   9.640  10.758  0.3904  0.5835  2.1440
28583SOL     OW97472   2.408   2.144   4.543 -0.1745 -0.0872 -0.2839
28583SOL    HW197473   2.425   2.055   4.514 -0.3306 -0.0488 -0.5010
28583SOL    HW297474   2.317   2.160   4.519 -0.5160 -0.2850  0.8547
28584SOL     OW97475   4.499   2.083   6.161 -0.2903  0.1862  0.1457
28584SOL    HW197476   4.507   2.160   6.104  0.5788 -0.1467 -0.2011
28584SOL    HW297477   4.500   2.009   6.100 -1.8175 -0.0980  0.4170
28585SOL     OW97478   0.073  11.791   5.063 -0.4077 -0.1980  0.2415
28585SOL    HW197479   0.057  11.820   4.973 -1.1927  1.1146  0.7679
28585SOL    HW297480   0.081  11.873   5.113 -0.2582 -0.9067  1.4123
28586SOL     OW97481   6.738   4.180   4.231  0.8477 -0.6843 -0.9959
28586SOL    HW197482   6.675   4.187   4.159 -1.5479 -2.3849  0.7702
28586SOL    HW297483   6.726   4.092   4.265  0.8760  0.4331  2.3060
28587SOL     OW97484   5.765   4.720  10.741  0.1891 -0.1725  0.2970
28587SOL    HW197485   5.789   4.696  10.652  0.2353 -0.3969  0.3691
28587SOL    HW297486   5.845   4.756  10.779 -0.1972  1.3454 -0.2232
28588SOL     OW97487   3.556   9.691   9.239 -0.1028  0.0764 -0.1403
28588SOL    HW197488   3.488   9.711   9.174  0.1314  1.8974  0.1478
28588SOL    HW297489   3.562   9.769   9.293  1.0374 -0.7103  0.9265
28589SOL     OW97490   9.452   5.182   8.086  0.1247  0.0792  0.1732
28589SOL    HW197491   9.433   5.260   8.033  0.0939 -0.8695 -1.2388
28589SOL    HW297492   9.371   5.168   8.136  0.1636  0.9947  0.5249
28590SOL     OW97493   3.324   9.936   8.349  0.0259  0.4081 -0.3174
28590SOL    HW197494   3.279   9.857   8.319 -1.7651  0.4829  1.8920
28590SOL    HW297495   3.292  10.005   8.291  1.0853 -0.3293 -1.8352
28591SOL     OW97496   3.269   4.844   5.459  0.0429 -0.5213 -0.5398
28591SOL    HW197497   3.331   4.772   5.447  0.9397  0.2468 -0.6003
28591SOL    HW297498   3.210   4.813   5.528  0.3417 -1.3547 -0.6443
28592SOL     OW97499   9.319   8.964   8.079 -0.1613 -0.0645  0.1610
28592SOL    HW197500   9.354   9.040   8.032  0.1476 -0.5463 -0.4071
28592SOL    HW297501   9.389   8.941   8.141 -0.8281  0.9608  1.3382
28593SOL     OW97502   6.191   2.998   2.853 -0.6258  0.0785  0.3785
28593SOL    HW197503   6.168   3.021   2.763 -0.6957 -2.0853 -0.2158
28593SOL    HW297504   6.120   2.941   2.882  0.7344 -1.4879  0.7924
28594SOL     OW97505   4.978   0.372   7.120  0.2853  0.3318 -0.0471
28594SOL    HW197506   4.893   0.409   7.096  0.4393  0.0113 -1.1089
28594SOL    HW297507   5.011   0.331   7.040  0.8044 -0.7918  0.7033
28595SOL     OW97508   8.058   2.629   5.687 -0.8782 -0.8266 -0.0583
28595SOL    HW197509   8.067   2.550   5.634  0.4837  0.1453 -1.3528
28595SOL    HW297510   8.100   2.607   5.770  1.2142 -0.8933 -1.0790
28596SOL     OW97511   8.093   5.428   2.099 -0.3889 -0.4120  0.8871
28596SOL    HW197512   8.086   5.523   2.083 -0.4060 -0.4049  0.9358
28596SOL    HW297513   8.174   5.419   2.148  1.1257 -0.7209 -1.5285
28597SOL     OW97514   2.165   4.128   7.848  0.1035  0.6454  0.5867
28597SOL    HW197515   2.075   4.151   7.872  0.0355 -0.4292  1.4319
28597SOL    HW297516   2.217   4.152   7.924  0.3699  0.2558  0.5290
28598SOL     OW97517   8.647   6.835  11.593 -0.1262 -0.3809  0.5576
28598SOL    HW197518   8.632   6.753  11.545  0.6246 -0.5864  0.6661
28598SOL    HW297519   8.574   6.891  11.567 -0.0813 -0.7163 -0.3371
28599SOL     OW97520   0.692   1.126   9.299 -0.0509 -0.3762  0.5386
28599SOL    HW197521   0.756   1.060   9.272 -2.1674 -2.2518 -0.2782
28599SOL    HW297522   0.674   1.175   9.219 -1.7603 -1.8527 -0.0544
28600SOL     OW97523   3.182   8.609   6.415 -0.1309  0.5942  0.0564
28600SOL    HW197524   3.248   8.657   6.365  0.2894  1.1937  1.1383
28600SOL    HW297525   3.233   8.556   6.477 -0.6243 -0.4975 -0.4617
28601SOL     OW97526   1.400   8.051   1.569  0.2641 -0.0579  0.0253
28601SOL    HW197527   1.427   7.960   1.581  0.1978 -0.2369 -1.0321
28601SOL    HW297528   1.356   8.051   1.484 -1.8921  0.4870  1.0749
28602SOL     OW97529   6.521   9.805   2.607  0.2464 -0.5255  0.0640
28602SOL    HW197530   6.557   9.818   2.695 -1.8593 -0.7169  1.0089
28602SOL    HW297531   6.443   9.751   2.621 -1.7746  1.7457 -1.5478
28603SOL     OW97532   9.469   2.188   1.165  0.7480 -0.2571 -0.1384
28603SOL    HW197533   9.492   2.109   1.213 -1.1066 -0.3377  0.7317
28603SOL    HW297534   9.394   2.162   1.111  0.4352  0.7753 -0.2315
28604SOL     OW97535   4.026   4.185  10.262  0.3931  0.1574 -0.3486
28604SOL    HW197536   3.943   4.143  10.285 -0.0173  0.3835 -1.3623
28604SOL    HW297537   4.077   4.183  10.343 -0.6050  0.0282  0.2973
28605SOL     OW97538  11.957   5.457   5.884 -0.3498  0.1510 -0.1955
28605SOL    HW197539  12.010   5.409   5.820  0.9501 -0.3196  1.1926
28605SOL    HW297540  12.010   5.533   5.907 -0.1737 -0.4211  1.3605
28606SOL     OW97541   5.469   6.036   3.424 -0.1492  0.1471 -0.0070
28606SOL    HW197542   5.550   6.062   3.381  0.6583 -0.5673  1.0486
28606SOL    HW297543   5.497   5.989   3.503 -1.5849  0.9189  1.0067
28607SOL     OW97544  10.529   3.118   2.122 -0.2590  1.0569 -0.2702
28607SOL    HW197545  10.493   3.167   2.196  1.2663 -0.3112  1.5059
28607SOL    HW297546  10.601   3.172   2.090  0.9024  0.4226  1.1574
28608SOL     OW97547   7.926   2.084   6.910  0.2699  0.6364  0.2422
28608SOL    HW197548   7.998   2.129   6.867  0.1573 -0.1767 -0.8310
28608SOL    HW297549   7.854   2.088   6.847  0.0698 -0.4957  0.3734
28609SOL     OW97550   5.852   0.872   5.836  0.3155  0.6607  0.1548
28609SOL    HW197551   5.770   0.919   5.818 -0.2021 -0.2185  0.1202
28609SOL    HW297552   5.834   0.822   5.915  0.7282  0.2440 -0.0105
28610SOL     OW97553   0.286   2.073   9.380 -0.2714  0.2402 -0.0238
28610SOL    HW197554   0.352   2.079   9.450  0.6229 -3.2996 -0.3770
28610SOL    HW297555   0.296   2.155   9.331  1.8015  1.1014  1.6403
28611SOL     OW97556   0.450   1.665   7.623 -0.4875 -0.0874 -0.4345
28611SOL    HW197557   0.517   1.650   7.557  0.5820  0.4875  0.4923
28611SOL    HW297558   0.394   1.587   7.619  0.2094 -0.5608 -1.2317
28612SOL     OW97559   7.243   7.920   4.161  0.3478  0.3510  0.1804
28612SOL    HW197560   7.239   7.875   4.076  0.8556  1.1867 -0.2980
28612SOL    HW297561   7.199   7.860   4.221 -0.0857 -0.2302 -0.6828
28613SOL     OW97562   7.440  10.191   3.570  0.5437 -0.1611  0.1713
28613SOL    HW197563   7.496  10.143   3.631  0.5625 -0.0995  0.2019
28613SOL    HW297564   7.486  10.187   3.486 -0.1604 -1.4838 -0.1835
28614SOL     OW97565   1.263   8.716   5.051  0.3048  0.1611 -0.3544
28614SOL    HW197566   1.355   8.694   5.066  0.3555  1.0342  0.7210
28614SOL    HW297567   1.248   8.692   4.959  0.4549 -3.8035  0.4813
28615SOL     OW97568   6.521  11.763   9.821 -0.2013  1.3181 -0.1430
28615SOL    HW197569   6.457  11.803   9.763 -0.1408  2.1251  0.3281
28615SOL    HW297570   6.576  11.835   9.850  0.5813  0.7214 -0.1034
28616SOL     OW97571   6.003  11.715   6.150  0.0289  0.9139 -0.1590
28616SOL    HW197572   6.068  11.773   6.109  1.8478  0.4487  1.8504
28616SOL    HW297573   5.974  11.762   6.228 -0.8164  0.4043 -0.1499
28617SOL     OW97574   6.020   4.727   9.031  0.3038  0.4250  0.1756
28617SOL    HW197575   6.007   4.639   9.065  1.6901  0.2502  0.2823
28617SOL    HW297576   6.044   4.779   9.108  1.2949  0.4980 -0.1776
28618SOL     OW97577   4.574   6.331  10.340  0.4396 -0.1422 -0.6271
28618SOL    HW197578   4.561   6.251  10.390 -2.4241  1.1521  0.9882
28618SOL    HW297579   4.630   6.385  10.396  2.0660 -0.7963 -1.5524
28619SOL     OW97580   7.851  11.370   9.442 -0.8154 -0.2887  0.4517
28619SOL    HW197581   7.794  11.443   9.465  0.7146  1.6544 -1.4093
28619SOL    HW297582   7.852  11.370   9.346  1.5410 -0.7981  0.4066
28620SOL     OW97583   9.276   8.591   2.406 -0.1070  0.1079 -0.0510
28620SOL    HW197584   9.339   8.617   2.473 -0.9207 -1.3861  1.3506
28620SOL    HW297585   9.191   8.611   2.444 -0.6047 -1.1071 -0.4761
28621SOL     OW97586  11.611   9.270   9.764  0.5266 -0.5605  0.2975
28621SOL    HW197587  11.677   9.335   9.787 -1.3126  2.2214 -1.6520
28621SOL    HW297588  11.555   9.263   9.841  1.3101 -0.6215  0.8733
28622SOL     OW97589   2.536   4.599   7.680 -0.3056 -1.2191 -0.3478
28622SOL    HW197590   2.587   4.543   7.621  0.1603 -0.2522 -0.9003
28622SOL    HW297591   2.507   4.672   7.624  1.9938  0.9043  1.0082
28623SOL     OW97592   2.767   0.550   9.892  0.1908 -0.1529  0.5273
28623SOL    HW197593   2.822   0.587   9.822  1.5933 -2.6430  0.1659
28623SOL    HW297594   2.768   0.616   9.961 -0.0350  1.7683 -1.2141
28624SOL     OW97595   2.840   8.859   3.171 -0.5076  0.9249 -0.4570
28624SOL    HW197596   2.852   8.822   3.084 -1.8150  1.4924 -0.9007
28624SOL    HW297597   2.753   8.830   3.199  1.0845 -1.9980  2.0865
28625SOL     OW97598  11.180   8.880   8.528 -0.4459  0.3125 -0.1878
28625SOL    HW197599  11.275   8.876   8.527 -0.4149  0.4491  1.2407
28625SOL    HW297600  11.158   8.937   8.454  0.4845 -0.9309 -1.4737
28626SOL     OW97601  10.985   4.957   3.401 -0.1204  0.4258 -0.0077
28626SOL    HW197602  11.011   4.899   3.330 -0.9169 -0.4405  0.3819
28626SOL    HW297603  10.932   4.902   3.458 -0.4017  1.3950  0.6888
28627SOL     OW97604  11.153   5.147   3.456  0.5455 -0.1801  0.0287
28627SOL    HW197605  11.080   5.091   3.430  0.0405  0.5862 -0.2201
28627SOL    HW297606  11.176   5.118   3.544 -1.0468  0.5562  0.7213
28628SOL     OW97607   6.560   2.102   5.880  0.3640 -0.0975 -0.1718
28628SOL    HW197608   6.624   2.141   5.939  0.8642 -2.5317  1.0209
28628SOL    HW297609   6.612   2.051   5.818 -0.3538 -1.7458  0.5274
28629SOL     OW97610   7.684   6.417   8.707 -0.2205 -0.4211 -0.1821
28629SOL    HW197611   7.739   6.374   8.643  0.5931 -1.1453  0.9659
28629SOL    HW297612   7.745   6.454   8.771 -0.9415  1.5164 -0.5254
28630SOL     OW97613   7.658   4.990   6.894 -0.2571 -0.0508 -0.4170
28630SOL    HW197614   7.721   4.947   6.951  0.2270 -1.2784 -1.8054
28630SOL    HW297615   7.694   5.078   6.879  0.5463 -0.3668 -0.3311
28631SOL     OW97616   5.693   3.518   8.197  0.4129 -0.4846 -0.1526
28631SOL    HW197617   5.684   3.557   8.111  0.7617  0.1398  0.0816
28631SOL    HW297618   5.785   3.533   8.221  0.4668 -1.1417  0.0973
28632SOL     OW97619   6.578   6.218   2.724 -0.0849 -0.5794  0.1371
28632SOL    HW197620   6.509   6.224   2.790 -0.2796  1.7448 -0.1936
28632SOL    HW297621   6.633   6.145   2.753 -0.6345 -0.1665  2.4056
28633SOL     OW97622   9.002  11.772   7.656 -0.2286  0.0078  0.1357
28633SOL    HW197623   9.096  11.768   7.643 -0.3631 -2.7845 -0.4959
28633SOL    HW297624   8.965  11.730   7.579 -1.9563  0.1263  0.8532
28634SOL     OW97625   7.067   2.843   0.897  0.2429  0.4814  0.0713
28634SOL    HW197626   7.158   2.839   0.865  0.2957  1.1696  0.1214
28634SOL    HW297627   7.067   2.916   0.959 -0.3437  0.4611  0.0943
28635SOL     OW97628   7.638   6.209   5.262 -0.3858 -0.1808  0.2713
28635SOL    HW197629   7.731   6.183   5.264 -0.2368  0.3906  1.3489
28635SOL    HW297630   7.596   6.150   5.325 -0.3457  1.0258  1.4558
28636SOL     OW97631   4.592   7.806  10.266  0.5313 -0.2537  0.5761
28636SOL    HW197632   4.579   7.758  10.185  0.5580  0.6327  0.0369
28636SOL    HW297633   4.673   7.769  10.302  0.7936 -0.3136 -0.0557
28637SOL     OW97634   7.572   0.521   6.063 -0.5710  0.1542  0.3391
28637SOL    HW197635   7.555   0.494   6.152  0.7626  0.8092  0.8320
28637SOL    HW297636   7.516   0.466   6.009 -1.5249 -0.1276  1.5811
28638SOL     OW97637   4.532   0.390  11.298 -0.0093  0.3776 -0.1980
28638SOL    HW197638   4.608   0.445  11.315 -0.4819  1.1934 -0.6942
28638SOL    HW297639   4.508   0.355  11.384  0.9348  0.0927 -0.0416
28639SOL     OW97640   3.835   4.334   5.874 -0.2575  0.0691 -0.2859
28639SOL    HW197641   3.884   4.304   5.798 -0.1256  0.8273 -0.5040
28639SOL    HW297642   3.817   4.427   5.857  0.1221  0.3550  0.7822
28640SOL     OW97643   3.830  11.460   2.324  0.4868 -0.5455  0.0492
28640SOL    HW197644   3.778  11.498   2.253 -1.1694 -0.6999  1.1403
28640SOL    HW297645   3.855  11.373   2.292 -0.3290 -0.6501 -0.3157
28641SOL     OW97646   4.046  11.422   7.802  0.1057 -0.0640 -0.2418
28641SOL    HW197647   3.994  11.352   7.762 -2.4824  0.6713  1.5856
28641SOL    HW297648   4.102  11.376   7.866  0.6506 -0.7261 -1.1732
28642SOL     OW97649   5.574   3.095   4.638 -0.1975 -0.2149 -0.1551
28642SOL    HW197650   5.583   3.050   4.722  1.5034  0.6038  0.1445
28642SOL    HW297651   5.480   3.102   4.625 -0.5054 -0.4931  1.6120
28643SOL     OW97652   6.431   8.765   0.615  0.2678  0.2048  0.2325
28643SOL    HW197653   6.454   8.849   0.576 -1.7528  0.6540 -0.1025
28643SOL    HW297654   6.514   8.720   0.626  1.3760  2.1060  0.1099
28644SOL     OW97655   4.681   1.355   8.061  0.0265 -0.3282  0.4202
28644SOL    HW197656   4.598   1.307   8.057 -0.8184  1.1486 -0.4395
28644SOL    HW297657   4.716   1.351   7.972 -0.2031  0.8629  0.2576
28645SOL     OW97658   8.262   6.622   1.080 -0.3123  0.0150 -0.4559
28645SOL    HW197659   8.205   6.672   1.138  2.6586  2.4669  0.6096
28645SOL    HW297660   8.262   6.672   0.998  2.3695  1.7936  0.4892
28646SOL     OW97661   8.619   4.671   1.239  0.0761 -0.1124 -0.2753
28646SOL    HW197662   8.614   4.586   1.282  0.0447 -0.3171 -0.6854
28646SOL    HW297663   8.565   4.728   1.294  1.3959  0.0428  0.9096
28647SOL     OW97664   6.960   1.519   2.871  0.0429 -0.1583  0.0282
28647SOL    HW197665   6.879   1.567   2.854  0.8340  1.0218 -0.6353
28647SOL    HW297666   6.933   1.440   2.917 -1.5664 -0.2145 -0.9478
28648SOL     OW97667   6.326   8.032   3.472  0.0246 -0.2084  0.3292
28648SOL    HW197668   6.336   8.125   3.455  0.6327 -0.1976  0.7141
28648SOL    HW297669   6.313   7.993   3.385  2.9800 -0.1497 -0.2415
28649SOL     OW97670   7.525   3.075   0.460 -0.0220 -0.4467 -0.4411
28649SOL    HW197671   7.535   2.981   0.477  0.6485 -0.5475 -1.3085
28649SOL    HW297672   7.615   3.108   0.453 -0.2530  0.2738 -0.0776
28650SOL     OW97673   8.894   4.527   1.882 -0.4130 -0.5535  0.5356
28650SOL    HW197674   8.853   4.440   1.887 -2.7572  0.4651  0.4842
28650SOL    HW297675   8.833   4.584   1.929  0.6556  1.2117 -0.1525
28651SOL     OW97676   6.878   5.696   9.139  0.0629 -0.0424 -0.1396
28651SOL    HW197677   6.812   5.753   9.177 -0.8677  0.1521 -1.9770
28651SOL    HW297678   6.913   5.745   9.064 -0.0952 -1.4774 -1.1961
28652SOL     OW97679   4.117   0.962   5.267  0.1843  0.2160 -0.4375
28652SOL    HW197680   4.045   0.898   5.270  2.8586 -3.1374 -0.8861
28652SOL    HW297681   4.138   0.970   5.174  0.9288  0.4946 -0.2475
28653SOL     OW97682   5.196   9.050   5.623  0.3551  0.0992  0.0797
28653SOL    HW197683   5.198   9.079   5.532 -0.3056  0.3238  0.1326
28653SOL    HW297684   5.182   8.955   5.617  1.0838 -0.0001 -0.0645
28654SOL     OW97685   1.499   4.541   5.684 -0.0335  0.2853 -0.0781
28654SOL    HW197686   1.589   4.534   5.715 -0.4049 -2.3815  0.6347
28654SOL    HW297687   1.449   4.568   5.761 -0.2167 -1.1280  0.3213
28655SOL     OW97688   7.180  10.419   7.880  0.3625 -0.0047 -0.0978
28655SOL    HW197689   7.179  10.334   7.925 -1.3426  0.3141  0.5316
28655SOL    HW297690   7.242  10.472   7.932  0.5232 -0.4895  0.2164
28656SOL     OW97691   2.597  10.511   2.289  0.7421  0.3740  0.5571
28656SOL    HW197692   2.609  10.476   2.377  0.9307 -0.1416  0.3289
28656SOL    HW297693   2.683  10.543   2.263  1.1539 -1.2615 -0.1961
28657SOL     OW97694   3.420   3.209   1.293 -0.5817 -0.3486  0.7407
28657SOL    HW197695   3.481   3.203   1.220  0.3523 -1.6217  1.5839
28657SOL    HW297696   3.334   3.219   1.252 -0.1535 -1.6561 -0.5561
28658SOL     OW97697   2.529   4.465  11.215  0.2393 -0.2235 -0.1798
28658SOL    HW197698   2.596   4.513  11.263 -0.3016  0.4567 -0.0878
28658SOL    HW297699   2.448   4.480  11.264 -0.2919  0.3547 -1.2113
28659SOL     OW97700   6.474   2.453   7.213  0.0780  0.2257 -0.3808
28659SOL    HW197701   6.402   2.392   7.231  1.0433 -1.3390 -1.6505
28659SOL    HW297702   6.521   2.459   7.297 -0.7150  0.1798  0.0799
28660SOL     OW97703   4.015   7.855   9.234 -0.1294 -0.1085  0.5079
28660SOL    HW197704   4.032   7.872   9.142 -0.7906  0.7993  0.5475
28660SOL    HW297705   4.099   7.824   9.268  0.9161  2.1843  0.2055
28661SOL     OW97706   0.387   6.517   7.232  0.4448 -0.2270  0.3596
28661SOL    HW197707   0.402   6.564   7.149 -0.0612 -1.0099 -0.1792
28661SOL    HW297708   0.295   6.532   7.252 -0.2567 -2.5081 -0.8103
28662SOL     OW97709   3.708   4.396   8.461 -0.0411  0.2097  0.0420
28662SOL    HW197710   3.718   4.399   8.556 -0.3555  1.0230  0.0549
28662SOL    HW297711   3.707   4.488   8.434  0.2390 -0.0171 -0.7709
28663SOL     OW97712  11.624   3.505   5.796  0.1151 -0.6623  0.5511
28663SOL    HW197713  11.714   3.534   5.786 -1.4101  5.4944  0.0567
28663SOL    HW297714  11.596   3.479   5.708  0.8428 -0.5031  0.2684
28664SOL     OW97715   3.766   7.037  11.421 -0.2802  0.2511  0.1566
28664SOL    HW197716   3.702   7.101  11.450  0.3573  1.0708 -0.1973
28664SOL    HW297717   3.721   6.987  11.353 -0.3529  1.2315 -0.5342
28665SOL     OW97718   6.721   3.396   7.177  0.1476 -0.0547 -0.1121
28665SOL    HW197719   6.771   3.407   7.258  0.4904 -0.6057 -0.2362
28665SOL    HW297720   6.752   3.312   7.141 -2.0199 -1.2521  0.6265
28666SOL     OW97721   8.688  11.445   5.237 -0.3696 -0.6005  0.0853
28666SOL    HW197722   8.774  11.478   5.210 -0.4926 -1.2924 -1.2684
28666SOL    HW297723   8.687  11.454   5.332  1.0798 -0.2935  0.0899
28667SOL     OW97724   6.435   0.017   8.690 -0.5445 -0.3745 -0.3500
28667SOL    HW197725   6.444   0.079   8.763 -0.7086 -1.5406  0.7027
28667SOL    HW297726   6.455  -0.069   8.729 -1.6132 -1.1564 -1.4500
28668SOL     OW97727   8.067   5.143   1.980  0.0384  0.3567  0.0651
28668SOL    HW197728   8.084   5.231   2.012  2.2021 -0.6120  1.8829
28668SOL    HW297729   7.993   5.112   2.032  0.5474  0.4273  0.8448
28669SOL     OW97730   7.897   8.330   3.923 -0.1705 -0.0146  0.1380
28669SOL    HW197731   7.955   8.290   3.988 -0.4331 -0.3993  0.1378
28669SOL    HW297732   7.939   8.414   3.903 -0.3233  0.3119  1.1328
28670SOL     OW97733   6.154   4.685   8.576  0.4255 -0.3586 -0.5333
28670SOL    HW197734   6.074   4.694   8.525  1.5639  0.3042 -2.2911
28670SOL    HW297735   6.178   4.592   8.567  0.9019 -0.1424 -1.7172
28671SOL     OW97736   6.207   0.766   1.204  0.2241  0.2240  0.4013
28671SOL    HW197737   6.245   0.736   1.286 -0.4237  0.5746  0.8295
28671SOL    HW297738   6.237   0.857   1.195  2.0274 -0.4250 -0.7995
28672SOL     OW97739   7.782   0.339   2.194 -0.1884  0.0763  0.2529
28672SOL    HW197740   7.803   0.402   2.126  2.4762 -2.9070 -2.0102
28672SOL    HW297741   7.856   0.344   2.255  0.1123 -0.8825 -0.0162
28673SOL     OW97742   7.463   5.714   0.765 -0.5554  0.4337  0.5509
28673SOL    HW197743   7.429   5.742   0.850 -1.4337  0.8954  0.0662
28673SOL    HW297744   7.411   5.637   0.742  0.2504 -0.2032  0.8008
28674SOL     OW97745   8.034  10.088  10.687 -0.7127  0.5775  0.5412
28674SOL    HW197746   7.965  10.032  10.722 -1.5729  0.5936 -1.0354
28674SOL    HW297747   7.992  10.174  10.676 -0.7033  0.4058 -1.1270
28675SOL     OW97748   9.799   6.015   0.902 -0.1786 -0.6445 -0.6133
28675SOL    HW197749   9.760   6.036   0.987 -0.2983 -0.3933 -0.7280
28675SOL    HW297750   9.836   5.927   0.913 -0.9735 -0.9836 -0.5644
28676SOL     OW97751   0.579  10.497   8.544  0.0008 -0.1519  0.0750
28676SOL    HW197752   0.638  10.475   8.472 -0.5986 -0.2440 -0.3961
28676SOL    HW297753   0.599  10.588   8.565 -1.1747  0.5338 -1.5600
28677SOL     OW97754   5.570   3.060   9.723  0.5872 -0.0737 -0.0987
28677SOL    HW197755   5.481   3.034   9.697  0.4703  0.9088 -0.7201
28677SOL    HW297756   5.623   2.982   9.709 -0.0916 -0.5283 -0.1681
28678SOL     OW97757   8.671   4.992   3.323  0.1906  0.2218 -0.4910
28678SOL    HW197758   8.746   4.987   3.382 -0.2402  3.7657  0.6418
28678SOL    HW297759   8.709   4.997   3.236  1.0926 -0.7273 -0.1742
28679SOL     OW97760   3.961   4.627  10.817 -0.5498 -0.5879  0.3349
28679SOL    HW197761   4.044   4.589  10.844 -1.0123 -0.2959  2.4102
28679SOL    HW297762   3.943   4.589  10.731  2.7987  1.1090 -1.2739
28680SOL     OW97763   4.906   2.497   0.744  0.2690 -0.0994 -0.6167
28680SOL    HW197764   4.837   2.562   0.739  0.8649  0.8659  2.0088
28680SOL    HW297765   4.960   2.512   0.666  0.4345  2.6731 -0.0729
28681SOL     OW97766   1.464   9.156   4.871  0.1189  0.2338 -0.5463
28681SOL    HW197767   1.433   9.102   4.798 -0.5053  1.1799 -1.0118
28681SOL    HW297768   1.415   9.126   4.947 -1.0922  0.8952 -1.0348
28682SOL     OW97769   9.177  11.920   7.196  0.0449 -0.1834 -0.7263
28682SOL    HW197770   9.158  11.999   7.145 -0.9306  0.3164  0.3808
28682SOL    HW297771   9.235  11.869   7.139  0.4131  1.1582 -1.6071
28683SOL     OW97772   9.054   0.178   0.072  0.2008 -0.6858  0.5216
28683SOL    HW197773   9.026   0.113   0.137 -3.4853  1.4163  1.2965
28683SOL    HW297774   9.075   0.256   0.123 -1.2743  0.5353 -0.6330
28684SOL     OW97775   2.826   4.665   6.374 -0.0700 -0.1682 -1.0894
28684SOL    HW197776   2.899   4.699   6.322  0.3606  0.4440 -0.1140
28684SOL    HW297777   2.864   4.593   6.424 -0.3993 -0.5356 -1.3638
28685SOL     OW97778   0.918   0.547   1.425 -0.0987  0.0782  0.8155
28685SOL    HW197779   0.847   0.609   1.407 -0.5305  0.0793  2.4515
28685SOL    HW297780   0.998   0.598   1.409 -0.4483  0.6760  0.9232
28686SOL     OW97781   9.472   7.029   0.894  0.7754 -0.4547  0.2105
28686SOL    HW197782   9.551   6.981   0.919  0.1789 -2.0236 -0.7911
28686SOL    HW297783   9.418   7.029   0.973  1.2588 -0.4349  0.5466
28687SOL     OW97784  11.697   0.347  11.529 -0.2622  0.5292 -0.3536
28687SOL    HW197785  11.627   0.307  11.581  0.8575 -0.4329  0.5087
28687SOL    HW297786  11.773   0.344  11.588  0.6982  0.7517 -1.5570
28688SOL     OW97787  11.156   5.802   4.523 -0.4125  0.1708 -0.2693
28688SOL    HW197788  11.063   5.781   4.525 -0.3259 -0.2261 -0.3574
28688SOL    HW297789  11.179   5.818   4.615 -1.1003  2.6954 -0.4675
28689SOL     OW97790   4.915   2.799  10.597  0.0409 -0.1294 -0.5041
28689SOL    HW197791   5.006   2.829  10.590 -0.0405  0.3009  0.2619
28689SOL    HW297792   4.916   2.712  10.556  0.5880  0.2710 -1.3790
28690SOL     OW97793   4.973   6.557   5.920  0.0608  0.1114 -0.1389
28690SOL    HW197794   4.894   6.547   5.973  0.2845  1.1535  0.4143
28690SOL    HW297795   4.941   6.590   5.836 -0.0542  1.2153  0.3180
28691SOL     OW97796   7.936   5.556   7.380 -0.2479  0.2194  0.4053
28691SOL    HW197797   7.972   5.610   7.451  1.3861  1.4492 -1.2520
28691SOL    HW297798   8.012   5.523   7.333 -1.2727 -0.9759 -0.5115
28692SOL     OW97799   6.729   6.377   4.590 -0.3556  0.1355 -0.0261
28692SOL    HW197800   6.693   6.318   4.523 -1.0100 -1.3298  1.5342
28692SOL    HW297801   6.662   6.445   4.599 -0.2049  0.4194 -0.9290
28693SOL     OW97802   3.441  11.724   0.034 -0.3394  0.2149 -0.5899
28693SOL    HW197803   3.513  11.786   0.019  0.0039 -0.1474 -0.4639
28693SOL    HW297804   3.482  11.638   0.026 -0.8047  0.0030 -0.7165
28694SOL     OW97805   6.515   1.834   4.171  0.0225  0.3114 -0.5615
28694SOL    HW197806   6.580   1.830   4.101  0.2870 -0.2570 -0.2831
28694SOL    HW297807   6.528   1.755   4.222 -1.7360 -0.4785 -1.2471
28695SOL     OW97808   0.966   5.499   2.151 -0.1054 -0.2303 -0.1438
28695SOL    HW197809   0.985   5.547   2.070 -0.7951 -1.9735 -1.3861
28695SOL    HW297810   0.935   5.567   2.211 -0.0278  1.0401 -1.4660
28696SOL     OW97811   1.400   9.412   4.289 -0.0246 -0.8975 -0.6288
28696SOL    HW197812   1.320   9.360   4.299 -0.0084 -1.0994 -1.4370
28696SOL    HW297813   1.456   9.358   4.234  0.4391 -0.5022 -0.5479
28697SOL     OW97814   0.736   9.820   0.590  0.6186 -0.0664 -0.0505
28697SOL    HW197815   0.742   9.755   0.519  0.7577 -1.0737  0.8557
28697SOL    HW297816   0.642   9.834   0.601  0.3253 -2.8015  2.0485
28698SOL     OW97817   6.912   1.063   1.808 -0.1792 -0.2112 -0.0221
28698SOL    HW197818   6.827   1.078   1.850 -0.5645 -0.9158 -0.5345
28698SOL    HW297819   6.952   0.993   1.858 -0.2751 -0.4730 -0.3096
28699SOL     OW97820   0.873  11.069   7.572 -0.3503 -0.1620 -0.1933
28699SOL    HW197821   0.958  11.110   7.588  0.2351 -1.2253 -0.4720
28699SOL    HW297822   0.835  11.059   7.659 -1.0211  1.9855 -0.2001
28700SOL     OW97823   5.794   9.355  10.229 -0.5437 -0.0884  0.2781
28700SOL    HW197824   5.864   9.290  10.240  0.3645  0.8554  0.2362
28700SOL    HW297825   5.833   9.423  10.174 -1.7753  0.0666 -0.4425
28701SOL     OW97826   1.905   4.557   7.020 -0.4061  0.1144 -0.3758
28701SOL    HW197827   1.961   4.613   7.074  0.0157 -0.3845 -0.2886
28701SOL    HW297828   1.816   4.574   7.053 -0.2028  0.1621  0.1583
28702SOL     OW97829   4.254   5.838   6.412  0.1878  0.2879  0.1605
28702SOL    HW197830   4.330   5.896   6.406  1.2503 -0.8015  2.1069
28702SOL    HW297831   4.276   5.763   6.357 -1.0223  1.4116 -2.0394
28703SOL     OW97832   6.693   2.302  10.950  0.6137 -0.3237 -0.2780
28703SOL    HW197833   6.711   2.357  10.874  0.3040  0.6981  0.3682
28703SOL    HW297834   6.604   2.269  10.937  1.4786 -2.3214 -1.6272
28704SOL     OW97835  11.244  10.838   9.147  0.4860 -0.2408 -0.0484
28704SOL    HW197836  11.194  10.757   9.141 -1.8314  1.2225 -2.5905
28704SOL    HW297837  11.305  10.835   9.074  2.3920 -0.8150  1.4719
28705SOL     OW97838   5.879   6.584   4.908 -0.2739  0.4897  0.8678
28705SOL    HW197839   5.822   6.661   4.907  1.3030  1.8288 -2.5398
28705SOL    HW297840   5.959   6.614   4.951 -0.1077  0.4031  0.6257
28706SOL     OW97841   2.735  10.365   5.500  0.0458  0.4209  0.1721
28706SOL    HW197842   2.707  10.345   5.410 -1.2931  0.6483  0.5166
28706SOL    HW297843   2.825  10.333   5.505 -0.1796 -0.4417 -0.9651
28707SOL     OW97844   4.396   6.631   6.039  0.3653  0.0753  0.2615
28707SOL    HW197845   4.362   6.580   5.966  0.4554 -1.5958  1.3241
28707SOL    HW297846   4.348   6.713   6.035  0.2128 -0.0672 -1.5270
28708SOL     OW97847  10.293   0.517   1.222  0.3106 -0.0882  0.1367
28708SOL    HW197848  10.308   0.587   1.287  0.1026  0.8446 -0.8038
28708SOL    HW297849  10.378   0.508   1.178 -0.3180  1.3589 -1.4556
28709SOL     OW97850   5.471  10.136   1.933 -0.3346 -0.0611  0.2848
28709SOL    HW197851   5.530  10.120   1.859 -0.7167 -1.2009  0.2065
28709SOL    HW297852   5.395  10.081   1.916 -1.4159  1.3271  0.4325
28710SOL     OW97853  10.823   1.906   3.042 -0.2957  0.3417  0.2424
28710SOL    HW197854  10.778   1.834   2.999 -3.3100  1.7573  0.7197
28710SOL    HW297855  10.912   1.874   3.057 -0.5758 -2.0537 -2.3399
28711SOL     OW97856   0.329   0.563   9.369 -0.2856 -0.1544  0.2126
28711SOL    HW197857   0.306   0.470   9.367  2.2877 -0.8664 -0.4761
28711SOL    HW297858   0.267   0.604   9.310  0.1072 -1.8830 -1.5117
28712SOL     OW97859   2.298   1.836   7.575  0.1195  0.4240  0.5610
28712SOL    HW197860   2.361   1.775   7.537 -1.2680  0.0061 -1.1619
28712SOL    HW297861   2.212   1.801   7.550 -0.7799  1.7586  1.6320
28713SOL     OW97862   0.708   3.101   3.315 -0.1779  0.4244  0.4802
28713SOL    HW197863   0.782   3.153   3.285 -0.5144  0.5806 -0.1053
28713SOL    HW297864   0.646   3.166   3.350 -1.4377  0.6955 -1.9837
28714SOL     OW97865   3.400   7.568  11.255 -0.3946  0.4053 -0.2692
28714SOL    HW197866   3.394   7.549  11.349  1.5038  2.4221  0.3725
28714SOL    HW297867   3.491   7.546  11.232 -0.3495  1.4432 -1.1983
28715SOL     OW97868   6.739   8.728  10.678 -0.2853  0.4521  0.1828
28715SOL    HW197869   6.778   8.665  10.740 -0.2197  0.5687  0.2608
28715SOL    HW297870   6.677   8.778  10.731 -0.3367  0.4543  0.1202
28716SOL     OW97871   6.625   8.587   4.179 -0.0243 -0.5576 -0.3138
28716SOL    HW197872   6.697   8.624   4.129  0.0770  0.1333  0.3217
28716SOL    HW297873   6.607   8.502   4.138  0.5655 -0.3435 -1.0157
28717SOL     OW97874   9.306  11.533   4.314  0.3225 -0.2283  0.0775
28717SOL    HW197875   9.287  11.485   4.394 -2.4553  1.5050  0.5961
28717SOL    HW297876   9.315  11.624   4.342 -1.3328  0.5093 -1.5742
28718SOL     OW97877   5.377   4.600  10.399 -0.2090 -0.7471 -0.4725
28718SOL    HW197878   5.453   4.644  10.358  0.1804 -1.0729 -0.1063
28718SOL    HW297879   5.402   4.591  10.491 -1.2307  0.2997 -0.0757
28719SOL     OW97880   2.533  11.871   8.383  0.3775 -0.3409 -0.7965
28719SOL    HW197881   2.603  11.934   8.367  0.1917 -0.2082 -1.0929
28719SOL    HW297882   2.563  11.791   8.341  0.8913 -0.6327  0.1045
28720SOL     OW97883   6.913   9.552  10.357  0.5010 -0.5230 -0.0337
28720SOL    HW197884   6.821   9.562  10.382  0.6129  0.0509  0.1667
28720SOL    HW297885   6.910   9.502  10.275  0.1048 -2.0691  0.8856
28721SOL     OW97886  11.311  10.819   5.400 -0.1906  0.4030 -0.0188
28721SOL    HW197887  11.398  10.801   5.364 -0.4891 -0.5961 -0.2924
28721SOL    HW297888  11.308  10.914   5.411  1.1424  0.4038  0.5333
28722SOL     OW97889   9.180   2.405  10.766 -0.5232 -0.3299 -0.3892
28722SOL    HW197890   9.275   2.412  10.778 -0.5982  0.3465 -0.1674
28722SOL    HW297891   9.167   2.316  10.733  0.2816 -0.1078 -1.3599
28723SOL     OW97892   2.197   0.893   5.859  0.9454 -0.1293  0.5634
28723SOL    HW197893   2.136   0.913   5.789  0.8144  0.4206  0.8275
28723SOL    HW297894   2.233   0.807   5.836  1.1523  0.1873 -0.3439
28724SOL     OW97895   0.941   1.542   2.397  0.1294 -0.1413 -0.3286
28724SOL    HW197896   0.995   1.467   2.374  0.8557 -0.2844  1.6229
28724SOL    HW297897   0.884   1.511   2.467  0.3396  1.0663  0.4194
28725SOL     OW97898   6.095   0.191  10.438  0.2927  0.7985  0.4056
28725SOL    HW197899   6.017   0.170  10.488  0.3976  0.8074  0.5720
28725SOL    HW297900   6.089   0.286  10.423  0.4745  0.8673  0.7630
28726SOL     OW97901   4.776   8.825   5.715 -0.6060  0.3732  0.0457
28726SOL    HW197902   4.724   8.882   5.658 -0.6909  0.1967 -0.0533
28726SOL    HW297903   4.719   8.751   5.733 -0.0039 -0.3597 -0.9493
28727SOL     OW97904   7.220   2.912   8.954 -0.2208  0.4789  0.3242
28727SOL    HW197905   7.241   2.936   9.044 -0.0128  1.1244  0.1128
28727SOL    HW297906   7.231   2.817   8.951  0.5713  0.5482  0.7677
28728SOL     OW97907   8.945   9.113   8.462  0.3383  0.1906  0.0529
28728SOL    HW197908   8.964   9.072   8.378 -0.0855  1.2770 -0.6042
28728SOL    HW297909   8.964   9.206   8.448  3.4683  0.0044  2.1499
28729SOL     OW97910   4.677   0.981   7.237 -0.3083  0.2399  0.3162
28729SOL    HW197911   4.591   1.021   7.224 -0.6240 -0.7484 -0.8183
28729SOL    HW297912   4.691   0.983   7.332 -1.2767  1.0108  0.4535
28730SOL     OW97913   6.470   3.278   0.094 -0.1645 -0.1646 -0.0293
28730SOL    HW197914   6.541   3.339   0.070 -0.7574  0.4901 -0.1609
28730SOL    HW297915   6.406   3.334   0.138  0.4374 -1.1441  2.2189
28731SOL     OW97916   9.659   4.289   4.347  0.3136  0.1476 -0.8962
28731SOL    HW197917   9.572   4.327   4.353 -0.0425 -0.8712  0.9893
28731SOL    HW297918   9.716   4.364   4.328 -0.5518  1.4007  1.1640
28732SOL     OW97919   3.368   9.689   8.978 -0.0819  0.1972  0.5563
28732SOL    HW197920   3.335   9.743   8.907  1.6088 -0.0302 -0.4681
28732SOL    HW297921   3.323   9.721   9.056  0.4364  2.7215 -0.0812
28733SOL     OW97922   9.698   2.787   7.493  0.8735 -0.5330  0.1075
28733SOL    HW197923   9.628   2.823   7.438  1.4177 -0.1305 -0.3388
28733SOL    HW297924   9.652   2.752   7.570  0.2312  0.2890  0.1252
28734SOL     OW97925   4.098   2.924   9.258  0.0243  0.1945  0.2880
28734SOL    HW197926   4.101   2.945   9.165  2.3966 -0.0270  0.2527
28734SOL    HW297927   4.019   2.967   9.290 -0.9817  0.0756 -1.8483
28735SOL     OW97928   4.246   4.684   5.164 -0.1952 -0.4215 -0.2864
28735SOL    HW197929   4.220   4.606   5.213 -3.1309  0.5182 -0.1547
28735SOL    HW297930   4.164   4.720   5.131  0.9752  2.9470  0.1240
28736SOL     OW97931   3.551   2.326   8.230 -0.7462  0.4648 -0.2496
28736SOL    HW197932   3.480   2.389   8.236 -0.2526  0.9530  0.6281
28736SOL    HW297933   3.581   2.332   8.139 -0.5691  1.6542 -0.1235
28737SOL     OW97934   9.100   8.515   6.968  0.1371 -0.0832 -0.0303
28737SOL    HW197935   9.145   8.463   7.035 -0.8193  1.5689  2.0251
28737SOL    HW297936   9.008   8.488   6.976 -0.1164  0.7391 -0.0447
28738SOL     OW97937   5.744   4.698   1.733 -0.2314  0.7134 -0.8052
28738SOL    HW197938   5.733   4.603   1.733 -0.3305  0.6260  2.3631
28738SOL    HW297939   5.838   4.712   1.742 -0.4294  0.8026  1.5280
28739SOL     OW97940   9.102  11.506   5.420 -0.1917  0.0528 -0.3471
28739SOL    HW197941   9.113  11.438   5.354 -0.1856  0.7755 -1.1183
28739SOL    HW297942   9.083  11.459   5.501 -0.5976 -0.8405 -0.9436
28740SOL     OW97943   3.316  10.461   3.256 -0.1703  0.6204  0.0854
28740SOL    HW197944   3.273  10.535   3.212 -1.2183  0.9218  1.5404
28740SOL    HW297945   3.279  10.383   3.214 -0.1447  0.8919 -0.4615
28741SOL     OW97946   2.252   5.081   3.971  0.0321 -0.3686 -0.1471
28741SOL    HW197947   2.214   4.996   3.952 -0.8572  0.0249 -0.2079
28741SOL    HW297948   2.240   5.093   4.065  0.6304 -0.5319 -0.0482
28742SOL     OW97949   7.759   7.964   6.074  0.2008  0.7460 -0.6446
28742SOL    HW197950   7.810   7.893   6.033  0.3173 -0.5999  1.6485
28742SOL    HW297951   7.670   7.950   6.044  0.2621 -0.2894 -0.3904
28743SOL     OW97952   5.974   9.850  10.408 -0.0524 -0.1942  0.4089
28743SOL    HW197953   5.984   9.936  10.450  1.1630 -0.5960  1.0054
28743SOL    HW297954   5.935   9.869  10.323  1.1446  1.0817  0.1103
28744SOL     OW97955  10.407   9.692   1.401 -0.2902 -0.5696  0.3386
28744SOL    HW197956  10.488   9.714   1.356 -0.4165 -0.4212  0.1831
28744SOL    HW297957  10.378   9.610   1.361 -0.2941 -0.5462  0.2938
28745SOL     OW97958   8.428   6.185   8.941 -0.6169  0.1656 -0.6707
28745SOL    HW197959   8.438   6.190   8.846 -1.7626 -1.0453 -0.8882
28745SOL    HW297960   8.395   6.096   8.957  1.4327 -0.3939  1.0491
28746SOL     OW97961   3.167   6.448   3.435  0.0883  0.5641 -0.3129
28746SOL    HW197962   3.171   6.354   3.418  1.8352  0.1885  1.7345
28746SOL    HW297963   3.258   6.473   3.453 -0.2709  2.7553 -1.2396
28747SOL     OW97964  11.191   6.454   6.100  0.4863 -0.2105  0.4170
28747SOL    HW197965  11.262   6.466   6.037 -1.2571 -0.2739 -1.6448
28747SOL    HW297966  11.225   6.492   6.181  2.4452  0.7444 -0.7770
28748SOL     OW97967  11.165   2.280  11.644 -0.6497  0.0307  0.0135
28748SOL    HW197968  11.075   2.297  11.614 -0.8344 -0.0536  0.5038
28748SOL    HW297969  11.191   2.199  11.600 -1.1479 -0.4338  0.5469
28749SOL     OW97970  10.862   6.670   1.482 -0.1556 -0.4988  0.3399
28749SOL    HW197971  10.800   6.684   1.410 -0.2828  0.9714  0.7039
28749SOL    HW297972  10.904   6.755   1.495  0.0696 -0.8025  1.8236
28750SOL     OW97973   8.556   7.217   2.271 -0.3762 -0.3302 -0.1325
28750SOL    HW197974   8.621   7.277   2.305  0.0524 -1.0416  0.3383
28750SOL    HW297975   8.472   7.253   2.298 -0.1985  0.6771 -0.8718
28751SOL     OW97976  11.830   1.762   9.954 -0.0039 -0.6621 -0.5930
28751SOL    HW197977  11.834   1.667   9.964 -0.3969 -0.6593 -0.3590
28751SOL    HW297978  11.810   1.794  10.043 -1.3580 -0.4658 -0.9474
28752SOL     OW97979  10.778   7.506   7.093  0.4808  0.6357  0.1217
28752SOL    HW197980  10.747   7.596   7.105  0.7654  0.8978 -0.9510
28752SOL    HW297981  10.698   7.454   7.084  0.3165  0.7960  0.6058
28753SOL     OW97982   2.056   3.021   8.595  0.0549  0.2246 -0.0172
28753SOL    HW197983   2.102   2.938   8.577 -0.1985  0.4761 -2.0598
28753SOL    HW297984   2.127   3.083   8.613  0.3581  0.0002 -0.4116
28754SOL     OW97985   0.819   1.661   5.227  0.7295 -0.5506  0.0693
28754SOL    HW197986   0.821   1.742   5.276  1.0856 -0.8846  0.6215
28754SOL    HW297987   0.910   1.631   5.226  1.0260  0.2075 -2.0953
28755SOL     OW97988   6.314   2.361   4.616  0.4192  0.3777 -0.0776
28755SOL    HW197989   6.396   2.393   4.655 -0.1245  0.6338  0.8998
28755SOL    HW297990   6.248   2.423   4.646 -0.1728  0.0363 -0.6616
28756SOL     OW97991   7.188   6.194   0.854 -0.7287  0.3651  0.0456
28756SOL    HW197992   7.191   6.214   0.761 -0.8557  1.0037  0.1750
28756SOL    HW297993   7.277   6.210   0.885 -1.1071  1.9733  0.3896
28757SOL     OW97994   1.547   6.514   3.247  0.1327  0.2742 -0.0736
28757SOL    HW197995   1.629   6.467   3.232  0.8478  1.3526  0.3327
28757SOL    HW297996   1.562   6.561   3.330 -1.3160 -0.4208  0.6053
28758SOL     OW97997   1.005   7.996   4.625 -0.1714  0.1983  0.0698
28758SOL    HW197998   1.049   7.911   4.631  0.4641  0.4246 -1.0181
28758SOL    HW297999   0.944   7.997   4.698 -0.1906 -1.2013  0.1025
28759SOL     OW98000   8.567   1.571   5.416  0.0671  0.5254  0.2525
28759SOL    HW198001   8.530   1.575   5.504  2.5414  0.5689  1.3596
28759SOL    HW298002   8.661   1.579   5.429  0.7694 -2.2950 -2.1925
28760SOL     OW98003   0.305  10.071   6.203 -0.3201  0.3492  0.1751
28760SOL    HW198004   0.280  10.036   6.117  0.9255  0.6369 -0.3280
28760SOL    HW298005   0.299  10.166   6.192  0.1109  0.3962  0.3072
28761SOL     OW98006   7.415  10.162   7.189  0.0074  0.3514 -0.6618
28761SOL    HW198007   7.497  10.150   7.141 -0.6215 -0.8371 -1.4722
28761SOL    HW298008   7.347  10.159   7.122 -0.7047  1.6479 -0.0411
28762SOL     OW98009   6.581   2.553   4.449  0.3031 -0.2690  0.2959
28762SOL    HW198010   6.546   2.487   4.389 -0.8977  0.6628 -0.0671
28762SOL    HW298011   6.504   2.602   4.479  1.0699  0.3999  1.2498
28763SOL     OW98012   7.084   3.227   4.098 -0.2971  0.4930  0.2694
28763SOL    HW198013   7.100   3.244   4.191 -1.0613  0.3715  0.4267
28763SOL    HW298014   7.092   3.132   4.090 -0.5996  0.4655  0.2852
28764SOL     OW98015   2.414   9.108   9.489 -0.2686 -0.1427  0.0909
28764SOL    HW198016   2.407   9.013   9.495 -2.7077  0.0217  1.3157
28764SOL    HW298017   2.507   9.127   9.503 -0.2330 -2.1502  3.8118
28765SOL     OW98018  11.751   3.201   9.689 -0.9790  0.8899 -0.0096
28765SOL    HW198019  11.679   3.194   9.627 -1.7733  0.8056  0.8937
28765SOL    HW298020  11.763   3.295   9.703 -0.4337  0.9275 -0.6914
28766SOL     OW98021   8.319   1.383   6.298 -0.3264  0.0008 -0.4015
28766SOL    HW198022   8.309   1.318   6.230  0.3084  0.1880 -0.6767
28766SOL    HW298023   8.275   1.345   6.374  0.6568 -1.0736 -0.3420
28767SOL     OW98024   7.344   3.603   7.315  0.6679  0.5847  0.6437
28767SOL    HW198025   7.402   3.671   7.280  1.6654 -0.0439  1.0339
28767SOL    HW298026   7.282   3.587   7.244  2.6428 -0.6626 -0.9277
28768SOL     OW98027   1.592   4.173   8.320 -0.1547  0.4588  0.0979
28768SOL    HW198028   1.596   4.260   8.359 -0.2500  0.1437  0.8356
28768SOL    HW298029   1.500   4.149   8.324 -0.1256  0.3164 -0.0763
28769SOL     OW98030   3.611   5.413   1.624 -0.4508  0.0946  0.1015
28769SOL    HW198031   3.652   5.465   1.693  0.5044 -1.7692  1.0123
28769SOL    HW298032   3.603   5.473   1.550  2.4232  1.0658  0.4376
28770SOL     OW98033   2.601   0.179   6.061  0.1590  0.6348  0.5473
28770SOL    HW198034   2.535   0.146   6.000  1.0859  1.1445 -0.7709
28770SOL    HW298035   2.643   0.251   6.014  3.8149 -1.6129  0.0014
28771SOL     OW98036   3.059  11.271   5.635 -0.3028 -0.3956  1.0321
28771SOL    HW198037   3.033  11.219   5.559 -1.1725 -1.8562  2.2710
28771SOL    HW298038   3.000  11.347   5.634  0.7806  0.4671 -0.6286
28772SOL     OW98039   8.786  11.170   9.292  0.0259 -0.2007 -0.0928
28772SOL    HW198040   8.745  11.239   9.344 -0.5497  1.9800 -3.1747
28772SOL    HW298041   8.713  11.126   9.249  0.5267 -1.6214  0.4382
28773SOL     OW98042   4.117   4.860   3.946  0.0517 -0.0786  0.0385
28773SOL    HW198043   4.080   4.911   3.874 -1.7926 -1.7692 -0.2950
28773SOL    HW298044   4.210   4.883   3.947  0.1798 -0.1014 -2.9674
28774SOL     OW98045   8.342   7.686   0.263  0.0358  0.3764  0.1179
28774SOL    HW198046   8.320   7.666   0.172  0.1379 -0.4603  0.2665
28774SOL    HW298047   8.347   7.782   0.266 -0.4946  0.4373 -0.6275
28775SOL     OW98048   7.090   1.467   3.153 -0.1003 -0.1012  0.0847
28775SOL    HW198049   7.039   1.532   3.105  0.8229  0.0636 -0.7060
28775SOL    HW298050   7.110   1.399   3.089  0.8414 -0.0601  0.3187
28776SOL     OW98051   8.603   4.278   1.833 -0.1318 -0.5702  0.0166
28776SOL    HW198052   8.674   4.276   1.898 -0.4763 -0.1704  0.4126
28776SOL    HW298053   8.627   4.211   1.770 -0.9258 -2.6274  1.7660
28777SOL     OW98054   3.008   3.354   5.971 -0.2256  0.0644  0.6621
28777SOL    HW198055   3.012   3.265   5.936 -0.1620 -0.7743  2.6352
28777SOL    HW298056   2.920   3.383   5.951 -0.1098 -0.2593 -0.3927
28778SOL     OW98057   2.418  10.686   2.141  0.0667  0.4515  0.7093
28778SOL    HW198058   2.465  10.640   2.210  0.1168  0.0557  0.4173
28778SOL    HW298059   2.337  10.716   2.183 -0.0718 -0.1026  0.8540
28779SOL     OW98060   1.059  11.898   2.286 -0.2075  0.3329  0.0409
28779SOL    HW198061   1.155  11.894   2.288 -0.1129  1.1772 -1.3831
28779SOL    HW298062   1.032  11.879   2.376  1.2356 -1.0789  0.2229
28780SOL     OW98063   2.634   9.802   4.770 -0.5952 -0.2930  0.1259
28780SOL    HW198064   2.615   9.715   4.804 -0.3972 -1.3697 -2.3549
28780SOL    HW298065   2.729   9.810   4.777 -0.7199  0.2674  1.4929
28781SOL     OW98066   8.293   6.552   5.149  0.0554 -0.1201 -0.1602
28781SOL    HW198067   8.253   6.540   5.236  1.6961  1.7484  0.9335
28781SOL    HW298068   8.219   6.556   5.089 -1.2041 -0.1100  1.3318
28782SOL     OW98069   7.147  10.996   9.681 -0.2167 -0.5268 -0.2120
28782SOL    HW198070   7.149  10.982   9.586 -0.4410 -0.2732 -0.2525
28782SOL    HW298071   7.227  11.046   9.699 -0.5645  0.0929 -0.3721
28783SOL     OW98072   1.554  10.978   2.375  0.2108  0.2692 -0.1729
28783SOL    HW198073   1.605  10.957   2.454  0.1746 -1.9806 -0.6988
28783SOL    HW298074   1.509  11.060   2.397  2.0538  0.9748  1.2458
28784SOL     OW98075   4.755   7.696   3.956  0.4646  0.4644 -0.0564
28784SOL    HW198076   4.831   7.668   3.905  0.2160  0.2031 -0.2885
28784SOL    HW298077   4.737   7.785   3.927  1.2301  0.8625  0.6475
28785SOL     OW98078   3.465   3.796   4.665  0.4158 -0.0210 -0.0346
28785SOL    HW198079   3.426   3.837   4.742 -0.6440  0.1591 -0.6413
28785SOL    HW298080   3.456   3.702   4.681 -0.1382  0.0166 -0.0873
28786SOL     OW98081   1.943   3.595   3.043  0.1544 -0.9949 -0.2402
28786SOL    HW198082   1.893   3.624   3.118  0.5621 -0.5926 -0.1239
28786SOL    HW298083   1.967   3.504   3.063  1.9209 -0.3116  1.0129
28787SOL     OW98084   8.721   9.481   5.831 -0.4936 -0.3031  0.0135
28787SOL    HW198085   8.675   9.429   5.765  0.7260 -0.7953 -0.4805
28787SOL    HW298086   8.720   9.426   5.909 -0.5167 -0.4191 -0.0680
28788SOL     OW98087  10.822   9.642   4.975  0.0941 -0.3798 -0.0971
28788SOL    HW198088  10.733   9.624   4.946 -0.4974 -0.4990  1.6525
28788SOL    HW298089  10.835   9.584   5.050  0.6044  1.6205  1.4573
28789SOL     OW98090   3.047   2.637   9.599 -0.0859 -0.2740  0.2956
28789SOL    HW198091   2.998   2.571   9.550  1.7254 -1.5881  0.1767
28789SOL    HW298092   3.017   2.720   9.562 -0.4838 -1.1291 -1.4327
28790SOL     OW98093  11.627   9.205   0.774  0.2080 -0.3716  0.0475
28790SOL    HW198094  11.552   9.150   0.796 -0.8140  1.1237  0.4433
28790SOL    HW298095  11.681   9.150   0.717 -0.8840 -1.6834  0.2261
28791SOL     OW98096   0.306   2.951   3.198  0.1803 -0.7992 -0.6621
28791SOL    HW198097   0.241   2.918   3.260  1.3343 -0.1624  0.9605
28791SOL    HW298098   0.383   2.896   3.212  0.7895 -0.0033 -0.7944
28792SOL     OW98099   6.577   1.368   4.073  0.7197  0.4231 -0.2065
28792SOL    HW198100   6.485   1.343   4.075  1.2723 -1.9556  2.4272
28792SOL    HW298101   6.605   1.350   3.984 -1.1029  0.2094 -0.7790
28793SOL     OW98102   6.573   3.442   8.915 -0.5290  0.2525  0.1465
28793SOL    HW198103   6.637   3.420   8.848 -0.4039 -1.3290  0.7420
28793SOL    HW298104   6.505   3.491   8.869 -0.8059 -1.4347 -1.2965
28794SOL     OW98105   9.879  11.653   9.198 -0.0481 -0.6510  0.3449
28794SOL    HW198106   9.832  11.605   9.131 -0.7576 -0.7575  0.9164
28794SOL    HW298107   9.813  11.709   9.238  0.8931  1.4066 -0.8176
28795SOL     OW98108  10.333  10.691   4.439  0.3634  0.6000  0.2106
28795SOL    HW198109  10.421  10.728   4.432 -0.0808  1.4916 -0.9091
28795SOL    HW298110  10.285  10.727   4.365 -1.1839  0.7697  1.2428
28796SOL     OW98111  11.225  11.784   1.144  0.3697  0.1224 -0.5864
28796SOL    HW198112  11.147  11.757   1.192  0.8986 -0.2022  0.1219
28796SOL    HW298113  11.235  11.719   1.075 -0.8464  1.0317 -1.6790
28797SOL     OW98114   7.709   1.218   9.292  0.3724 -0.3925 -0.0424
28797SOL    HW198115   7.725   1.312   9.300  1.6056 -0.6730  1.2654
28797SOL    HW298116   7.705   1.187   9.383  1.1786 -1.7873 -0.4571
28798SOL     OW98117   3.057   2.040   3.028  0.4421 -0.2777 -0.3096
28798SOL    HW198118   3.004   1.962   3.013 -0.7156 -0.0276  2.0264
28798SOL    HW298119   3.142   2.006   3.055  0.4523 -0.7146 -0.8747
28799SOL     OW98120  10.337  10.855   4.804 -0.1330 -0.2436  0.5765
28799SOL    HW198121  10.323  10.911   4.728 -0.2934  0.6365  1.2339
28799SOL    HW298122  10.295  10.902   4.876 -0.6159 -1.4103  1.0764
28800SOL     OW98123   2.035  11.713   9.476 -0.0253  0.0385  0.1283
28800SOL    HW198124   2.104  11.657   9.510  0.6477 -0.0108 -1.2425
28800SOL    HW298125   2.071  11.748   9.394 -1.4831  0.3016 -0.4296
28801SOL     OW98126   8.474  10.491   5.417  0.4256 -0.1844 -0.7491
28801SOL    HW198127   8.477  10.581   5.385 -0.3810  0.7905  1.6969
28801SOL    HW298128   8.555  10.481   5.467  0.8018 -1.0393 -1.5156
28802SOL     OW98129   0.704   5.474   9.241  0.3707 -0.3275  0.2232
28802SOL    HW198130   0.679   5.383   9.228  0.1102 -0.1370 -0.7080
28802SOL    HW298131   0.710   5.485   9.336  0.8547 -1.4338  0.3314
28803SOL     OW98132   0.017   1.501   3.550  0.1890  0.3273  0.9463
28803SOL    HW198133   0.049   1.497   3.640 -0.1530  2.5517  1.2199
28803SOL    HW298134   0.096   1.517   3.498  0.0490  2.0665  1.2160
28804SOL     OW98135   0.088   9.190  10.335  0.4605 -0.2110 -0.2514
28804SOL    HW198136   0.121   9.166  10.248  1.0752  0.6047 -0.2491
28804SOL    HW298137   0.133   9.271  10.357 -0.8412  0.4206  0.1780
28805SOL     OW98138   4.640   9.064  10.570  0.6828  0.2857  0.2517
28805SOL    HW198139   4.675   8.979  10.594 -0.6766 -0.1218  0.8582
28805SOL    HW298140   4.717   9.116  10.547  1.6168 -0.7648  0.9287
28806SOL     OW98141   3.797   7.874   7.299 -0.0865  0.0777 -0.2505
28806SOL    HW198142   3.735   7.909   7.235  0.2744  1.0214 -0.0909
28806SOL    HW298143   3.784   7.927   7.377  0.2827 -0.3249  0.0906
28807SOL     OW98144   5.899  10.144   8.905  0.0346 -0.4633 -0.3042
28807SOL    HW198145   5.827  10.163   8.845 -1.4120 -0.9967  1.1789
28807SOL    HW298146   5.905  10.223   8.960 -0.8355 -1.2010  0.8962
28808SOL     OW98147   2.855   0.659   4.195 -0.2960 -0.0848  0.1703
28808SOL    HW198148   2.867   0.705   4.112 -3.0139 -1.5181 -1.1551
28808SOL    HW298149   2.805   0.581   4.172 -1.8304 -0.1721  3.2578
28809SOL     OW98150   2.294   6.692   2.953 -0.3254  0.3280 -0.1187
28809SOL    HW198151   2.206   6.727   2.935 -0.7874  0.4458  2.0900
28809SOL    HW298152   2.335   6.760   3.007  0.1133 -0.8946  1.1211
28810SOL     OW98153  11.275   0.075   1.056  0.0193  0.6236 -0.0557
28810SOL    HW198154  11.236   0.010   1.115  0.5292  1.8133  1.6495
28810SOL    HW298155  11.209   0.088   0.988 -0.5985 -0.7579  0.2358
28811SOL     OW98156   1.300   4.360  10.847 -0.5518  0.0128 -0.7425
28811SOL    HW198157   1.288   4.370  10.752 -1.1610 -0.9630 -0.7774
28811SOL    HW298158   1.392   4.337  10.857  0.0415  2.0732 -0.9139
28812SOL     OW98159   3.530   1.530   6.121 -0.1055  0.4916 -0.0923
28812SOL    HW198160   3.584   1.599   6.084  1.1787 -0.1212  0.5536
28812SOL    HW298161   3.486   1.490   6.046  0.8812  0.5666 -0.7152
28813SOL     OW98162   2.895  11.247   4.324 -0.3800 -0.2916 -0.4895
28813SOL    HW198163   2.825  11.302   4.358 -0.1504  1.3582 -2.4326
28813SOL    HW298164   2.969  11.261   4.383 -0.5403  1.0201 -0.5752
28814SOL     OW98165  11.432   4.540   1.038  0.0803 -0.0035  0.2192
28814SOL    HW198166  11.440   4.517   0.945  0.5711 -1.7589  0.6429
28814SOL    HW298167  11.502   4.604   1.053  1.5205 -1.4028 -0.1717
28815SOL     OW98168   3.129  11.126  11.256 -0.7089  0.0274  0.7096
28815SOL    HW198169   3.142  11.109  11.163 -1.5586  0.6380  0.4657
28815SOL    HW298170   3.136  11.040  11.298  2.4670  0.0730  0.4694
28816SOL     OW98171   7.251   3.211   0.918 -0.1561 -0.0645 -0.3556
28816SOL    HW198172   7.260   3.127   0.873 -1.8567 -0.0539 -0.8003
28816SOL    HW298173   7.174   3.252   0.877  1.2277  2.1954 -0.8853
28817SOL     OW98174  10.342   4.558   5.446 -0.0649  0.3159 -0.2839
28817SOL    HW198175  10.255   4.564   5.406  0.1478 -0.4770 -0.8697
28817SOL    HW298176  10.356   4.465   5.461  1.6112  0.1964 -2.2727
28818SOL     OW98177   4.342  10.201   2.454 -0.2904 -0.2602 -0.4227
28818SOL    HW198178   4.365  10.237   2.539 -1.3807  0.9971 -0.6366
28818SOL    HW298179   4.336  10.277   2.396  1.8506 -1.1648 -2.0218
28819SOL     OW98180   8.160   4.163  10.102  0.3324 -0.0795  0.1274
28819SOL    HW198181   8.208   4.239  10.070  0.9648  0.1211  1.5209
28819SOL    HW298182   8.191   4.149  10.191  0.5293 -2.2197 -0.2179
28820SOL     OW98183   1.762   6.382   3.186 -0.1437  0.5843 -0.3081
28820SOL    HW198184   1.812   6.313   3.145 -0.3738 -0.4796  1.1156
28820SOL    HW298185   1.802   6.463   3.155  1.6363 -0.2108 -0.1850
28821SOL     OW98186   8.160   3.884   2.247  0.3779  0.5952 -0.4670
28821SOL    HW198187   8.069   3.860   2.269 -0.0793  2.1048 -0.6336
28821SOL    HW298188   8.162   3.979   2.253  1.4959  0.7161 -2.2567
28822SOL     OW98189   3.766  10.481   8.790  0.1478 -0.0418 -0.2997
28822SOL    HW198190   3.687  10.457   8.742  1.1283  0.9512 -2.5952
28822SOL    HW298191   3.822  10.404   8.783  0.4347  0.2249 -1.1814
28823SOL     OW98192   6.029  10.809   2.079 -0.0938 -0.0700  0.3418
28823SOL    HW198193   6.025  10.810   2.175  2.1435 -1.2291  0.5108
28823SOL    HW298194   6.114  10.847   2.058 -0.8710  0.8986 -1.2703
28824SOL     OW98195   1.519   4.429   4.595 -0.4797  0.1363 -0.0156
28824SOL    HW198196   1.428   4.452   4.613 -0.6957  0.8706 -1.8435
28824SOL    HW298197   1.525   4.427   4.500  1.2383 -0.6917  0.0664
28825SOL     OW98198  10.149   9.981  11.163  0.2806  0.3289 -0.0779
28825SOL    HW198199  10.199   9.926  11.224 -0.3106 -1.9740 -1.5474
28825SOL    HW298200  10.091  10.033  11.219  1.0465 -0.3575  1.3943
28826SOL     OW98201   2.661   8.485   6.370 -0.2793 -0.2400 -0.6008
28826SOL    HW198202   2.600   8.541   6.418 -0.3182  0.9774 -1.9803
28826SOL    HW298203   2.699   8.543   6.304  0.6044 -1.5633 -1.2941
28827SOL     OW98204  10.637   5.510   2.222 -0.0017  0.5205  0.3915
28827SOL    HW198205  10.563   5.449   2.225 -0.4210  0.8954 -1.2831
28827SOL    HW298206  10.683   5.496   2.305 -2.6995  1.2526  2.1271
28828SOL     OW98207   8.791   4.021  10.873  0.4960 -0.2179 -0.2346
28828SOL    HW198208   8.739   3.961  10.821  1.2286 -2.0012  0.9999
28828SOL    HW298209   8.727   4.065  10.930 -0.4732  2.5204 -3.1138
28829SOL     OW98210  10.482  11.040   4.437  0.4452 -0.0896 -0.4348
28829SOL    HW198211  10.505  10.949   4.419 -0.8754 -0.2068 -1.6952
28829SOL    HW298212  10.395  11.035   4.477 -0.4290  0.6719 -2.1445
28830SOL     OW98213   1.370   9.210   8.038 -0.4131  0.1506  0.0522
28830SOL    HW198214   1.464   9.190   8.035 -0.2289  1.0915 -0.7964
28830SOL    HW298215   1.365   9.298   8.076 -1.0167 -0.2083  0.8381
28831SOL     OW98216  11.412   1.277   2.019  0.2741 -0.5743  0.1212
28831SOL    HW198217  11.465   1.237   2.087 -1.7763 -1.8460  1.0607
28831SOL    HW298218  11.421   1.371   2.033  4.5057 -0.5013 -1.5974
28832SOL     OW98219   2.846   8.116   3.227 -0.7523  0.4047 -0.0112
28832SOL    HW198220   2.790   8.042   3.203 -1.0194  0.7689 -0.5250
28832SOL    HW298221   2.857   8.108   3.322 -0.1257 -0.7516 -0.1619
28833SOL     OW98222   7.653   9.245  10.819 -0.1679 -0.1260 -0.4697
28833SOL    HW198223   7.592   9.175  10.843 -0.7774 -0.9547 -3.9337
28833SOL    HW298224   7.606   9.326  10.840 -1.0741 -0.7566  0.0199
28834SOL     OW98225   1.701   3.546   4.630  0.0289  0.2906 -0.3102
28834SOL    HW198226   1.705   3.502   4.714  1.9830 -0.6561 -0.8524
28834SOL    HW298227   1.691   3.476   4.566 -1.9685  1.0220 -0.8946
28835SOL     OW98228   7.872   1.498  10.772 -0.3458 -0.2591  0.2551
28835SOL    HW198229   7.930   1.423  10.762  1.9617  1.3892  0.5957
28835SOL    HW298230   7.852   1.501  10.866  1.2951  0.7241  0.6031
28836SOL     OW98231   5.140   5.782   7.780 -0.2823 -0.1471  0.4410
28836SOL    HW198232   5.180   5.843   7.718  0.2103  0.0308  0.9299
28836SOL    HW298233   5.141   5.697   7.735 -1.3401  0.2529 -0.4138
28837SOL     OW98234  10.915   1.972   9.352  0.4776 -0.2950 -0.1098
28837SOL    HW198235  10.863   2.020   9.417 -0.6101  0.2034 -1.3057
28837SOL    HW298236  11.004   2.006   9.363  0.3368 -0.2784  1.1573
28838SOL     OW98237   7.171  10.016   3.505  0.6529  0.2220 -0.8880
28838SOL    HW198238   7.193  10.052   3.591  1.1247 -0.6416 -0.6362
28838SOL    HW298239   7.185  10.089   3.444  2.7234  0.1605 -0.5462
28839SOL     OW98240   4.941   0.260   2.356  0.0367  0.2007 -0.1205
28839SOL    HW198241   4.919   0.348   2.326  0.3268  0.1692 -0.4417
28839SOL    HW298242   4.914   0.203   2.284  0.2929  0.0765 -0.1188
28840SOL     OW98243   7.134   5.507   8.989  0.3566 -0.0814 -0.2375
28840SOL    HW198244   7.095   5.591   8.968 -1.3640 -0.8712 -0.3416
28840SOL    HW298245   7.193   5.525   9.062 -0.4405  1.1036  0.1297
28841SOL     OW98246   6.509  10.993   8.519 -0.6923 -0.2743 -0.5286
28841SOL    HW198247   6.550  10.907   8.525  0.2460  0.2639  1.9019
28841SOL    HW298248   6.541  11.030   8.436  1.8459 -0.8566  0.1069
28842SOL     OW98249   5.501  10.767   3.778 -0.1856 -0.0644  0.0018
28842SOL    HW198250   5.410  10.767   3.805 -0.8285  0.8661 -2.0029
28842SOL    HW298251   5.550  10.777   3.860 -1.8651 -0.3409  1.0827
28843SOL     OW98252   0.490   0.427   3.357  0.2418  0.1050 -0.1527
28843SOL    HW198253   0.427   0.498   3.352 -3.1277 -2.3199  2.5750
28843SOL    HW298254   0.479   0.379   3.275 -0.4268  0.4972 -0.2955
28844SOL     OW98255   8.375  11.704  11.769 -0.2881  0.5074  0.4161
28844SOL    HW198256   8.397  11.758  11.845  1.9071 -2.1179  1.7979
28844SOL    HW298257   8.459  11.683  11.728 -1.1466 -0.8608 -0.7652
28845SOL     OW98258   4.977   3.675   8.432 -0.2498 -0.3356 -0.0302
28845SOL    HW198259   5.057   3.658   8.382  0.3594 -1.0629  1.1382
28845SOL    HW298260   4.927   3.593   8.424 -0.3653 -0.2841  0.1704
28846SOL     OW98261  10.032   3.174   5.645 -0.1023 -0.0199 -0.3975
28846SOL    HW198262  10.038   3.270   5.645  1.4852 -0.0907 -1.0334
28846SOL    HW298263  10.122   3.144   5.656 -0.5249 -1.4466 -0.6151
28847SOL     OW98264   6.917   7.688   7.290 -0.1960  0.7513 -0.0510
28847SOL    HW198265   6.973   7.654   7.220  0.5537  0.6085  0.6092
28847SOL    HW298266   6.861   7.752   7.247 -1.7195 -1.3096 -1.3669
28848SOL     OW98267   1.136  10.339   4.245 -0.2862  0.5732 -0.2351
28848SOL    HW198268   1.231  10.337   4.238 -0.2767  0.4443 -0.0895
28848SOL    HW298269   1.119  10.389   4.325 -0.3261  0.2612 -0.0424
28849SOL     OW98270   2.586   1.522   3.902  0.4235  0.1504  0.2637
28849SOL    HW198271   2.507   1.518   3.957 -0.7071 -0.8096 -1.3324
28849SOL    HW298272   2.593   1.614   3.876 -0.7329  0.0992 -0.3080
28850SOL     OW98273   7.285  11.807   0.296 -0.3743 -0.0239 -0.4072
28850SOL    HW198274   7.206  11.859   0.314  0.4822  0.9236  0.7528
28850SOL    HW298275   7.256  11.716   0.300 -1.0482  0.2490  1.8953
28851SOL     OW98276   6.214   2.848  11.202  0.0559  0.3531 -0.4744
28851SOL    HW198277   6.295   2.811  11.238 -1.2716 -1.5180  0.7437
28851SOL    HW298278   6.185   2.910  11.269 -0.3799 -0.2171 -0.1332
28852SOL     OW98279   6.837   9.215   2.372  0.2491 -0.4275 -0.2001
28852SOL    HW198280   6.849   9.303   2.334  0.6377 -0.0736  0.7238
28852SOL    HW298281   6.747   9.192   2.350  0.1475  0.1941 -0.4741
28853SOL     OW98282   1.901  11.829   6.904  0.2735 -0.3796  0.2046
28853SOL    HW198283   1.984  11.870   6.879  1.0471 -1.9750  0.0246
28853SOL    HW298284   1.861  11.803   6.821 -0.1811 -0.0346  0.3147
28854SOL     OW98285   5.610   2.552   7.671  0.1315  0.4698 -0.6070
28854SOL    HW198286   5.531   2.549   7.617  0.2058 -0.8814 -0.6654
28854SOL    HW298287   5.586   2.506   7.751  0.2245  1.8988  0.2764
28855SOL     OW98288   2.056   5.665   1.355  0.2276  0.2068  0.2712
28855SOL    HW198289   2.075   5.757   1.337 -0.6455  0.6476  1.4688
28855SOL    HW298290   2.141   5.621   1.346  0.4179  0.8681 -1.6723
28856SOL     OW98291   8.813  11.272   1.005  0.0696  0.1583 -0.5393
28856SOL    HW198292   8.775  11.302   0.922 -0.2740 -0.6097 -0.6648
28856SOL    HW298293   8.817  11.177   0.997  1.8355  0.1856 -0.4343
28857SOL     OW98294   8.826   3.184   1.464 -0.1409  0.2133 -0.4870
28857SOL    HW198295   8.768   3.124   1.417 -0.5364  1.0216 -1.0420
28857SOL    HW298296   8.873   3.128   1.526  0.1934 -0.8237 -1.6435
28858SOL     OW98297   0.622   0.679   6.362  0.2703 -0.1112  0.0670
28858SOL    HW198298   0.562   0.666   6.436 -0.7902  0.8157 -0.5992
28858SOL    HW298299   0.573   0.735   6.301  1.6770  0.3357 -0.6847
28859SOL     OW98300   7.536   2.792   5.378 -0.1619  0.2907 -0.1581
28859SOL    HW198301   7.574   2.831   5.299  0.1664 -0.8521 -0.5917
28859SOL    HW298302   7.608   2.742   5.417 -0.4855  0.3593  0.5376
28860SOL     OW98303   7.442  11.903   5.931  0.6316  0.5657 -0.6242
28860SOL    HW198304   7.416  11.926   6.020 -1.3703  1.1149 -1.2969
28860SOL    HW298305   7.512  11.965   5.910 -0.0437  1.5630 -0.0289
28861SOL     OW98306   9.041   0.884   7.583  0.1584 -0.2726 -0.4091
28861SOL    HW198307   9.070   0.846   7.500  2.0457  0.1381  0.0238
28861SOL    HW298308   9.085   0.969   7.587  0.1159 -0.3072  1.0332
28862SOL     OW98309   1.976  11.045   6.145 -0.9902  0.3167  0.3215
28862SOL    HW198310   2.064  11.067   6.115 -0.4783 -0.3221  1.3176
28862SOL    HW298311   1.985  11.034   6.240 -2.1850  0.4465  0.4637
28863SOL     OW98312   3.141   2.758   4.377  0.3071 -0.5573 -0.1734
28863SOL    HW198313   3.073   2.705   4.419 -0.6446  2.0044  1.7681
28863SOL    HW298314   3.202   2.780   4.448  1.5885 -0.3954 -1.2814
28864SOL     OW98315  11.586   5.804  10.869  0.0606  0.0676 -0.2867
28864SOL    HW198316  11.563   5.893  10.894  1.5640  0.1992  0.6874
28864SOL    HW298317  11.622   5.764  10.948  0.5468 -1.0152 -1.0205
28865SOL     OW98318   3.551  10.337   8.691  0.0788 -0.1096  0.5418
28865SOL    HW198319   3.547  10.289   8.608  3.6476 -0.9647  0.6967
28865SOL    HW298320   3.468  10.317   8.734 -1.0521 -1.2509 -1.9431
28866SOL     OW98321   5.282   2.929   4.933  0.4750  0.3349 -0.1924
28866SOL    HW198322   5.310   3.008   4.887  1.9975 -0.3401 -0.4871
28866SOL    HW298323   5.323   2.858   4.885  1.7937 -0.4361  1.9254
28867SOL     OW98324   7.745   3.549   1.279  0.4645 -0.0099  0.5813
28867SOL    HW198325   7.718   3.497   1.354 -0.6723 -0.8065 -0.3455
28867SOL    HW298326   7.707   3.636   1.295 -1.8532 -0.8030 -0.1533
28868SOL     OW98327  11.586   1.802   2.981  0.5405 -0.3319 -0.5439
28868SOL    HW198328  11.553   1.780   3.068  1.3713 -0.8495 -0.3518
28868SOL    HW298329  11.540   1.883   2.957  0.4853 -0.0584  0.4725
28869SOL     OW98330  10.125   3.104   7.225  0.3190  0.1517  0.4003
28869SOL    HW198331  10.071   3.114   7.146  1.0241  0.0629 -0.1040
28869SOL    HW298332  10.062   3.105   7.297 -0.4512 -0.7586 -0.2230
28870SOL     OW98333   9.746   0.389   0.450 -0.4368  0.3958  0.6314
28870SOL    HW198334   9.793   0.365   0.529  0.1838  0.9144  0.4327
28870SOL    HW298335   9.741   0.309   0.399  1.7020  0.6481 -0.0817
28871SOL     OW98336  10.353   4.920   6.344 -0.7874 -0.1149 -0.0265
28871SOL    HW198337  10.437   4.905   6.388 -0.5258 -0.2756 -0.5798
28871SOL    HW298338  10.376   4.967   6.264 -1.1748 -0.5750 -0.4123
28872SOL     OW98339   9.103   0.273  11.757 -0.6181  0.1278  0.5745
28872SOL    HW198340   9.117   0.364  11.783  2.6857  0.0958 -0.6053
28872SOL    HW298341   9.107   0.224  11.839  0.5245  0.8103  0.9422
28873SOL     OW98342   0.130   5.044   4.078  0.0150 -0.4873  0.0779
28873SOL    HW198343   0.034   5.046   4.083 -0.0026 -0.8859 -0.0476
28873SOL    HW298344   0.158   5.061   4.168 -0.1542  0.5225 -0.0538
28874SOL     OW98345   6.620   1.775   3.731 -0.0835 -0.7723 -0.7582
28874SOL    HW198346   6.571   1.857   3.723 -1.0756 -1.1528  0.9522
28874SOL    HW298347   6.672   1.786   3.811  1.3588 -1.0528 -1.6201
28875SOL     OW98348   5.136   9.279  11.090 -0.1166 -0.1100  0.5652
28875SOL    HW198349   5.216   9.239  11.056  0.2859  0.3373  0.9690
28875SOL    HW298350   5.103   9.216  11.154  0.1327 -0.1119  0.6925
28876SOL     OW98351   5.942   1.016   3.509  0.4500  0.2130  0.1160
28876SOL    HW198352   5.882   1.039   3.438 -1.3311 -0.9497  1.1423
28876SOL    HW298353   5.997   1.093   3.521 -0.1242  0.9328 -1.5985
28877SOL     OW98354   6.096   4.979   7.836 -0.5123 -0.1826 -0.0821
28877SOL    HW198355   6.188   4.953   7.846 -0.4657  0.4985  1.7123
28877SOL    HW298356   6.047   4.909   7.879 -0.6377  0.6320  1.1687
28878SOL     OW98357   3.109   0.265   9.118  0.1533  0.3224  0.2529
28878SOL    HW198358   3.128   0.276   9.212  0.7681 -0.7339  0.2699
28878SOL    HW298359   3.181   0.310   9.074 -0.7560  1.8328  0.2624
28879SOL     OW98360   1.593   3.064   5.060 -0.2941 -0.0294 -0.0816
28879SOL    HW198361   1.590   3.156   5.089 -2.1900  0.9441 -2.9384
28879SOL    HW298362   1.676   3.057   5.012  0.2546 -0.0825  0.8555
28880SOL     OW98363   8.039   8.273  11.499  0.2117  0.3210  0.2872
28880SOL    HW198364   7.958   8.313  11.468  1.2642  0.7496 -2.1974
28880SOL    HW298365   8.093   8.346  11.528  0.0816  0.1304  1.0285
28881SOL     OW98366   0.089   3.722   1.063  0.1188  0.2411 -0.3467
28881SOL    HW198367   0.068   3.796   1.119  0.6477 -0.4244  0.7897
28881SOL    HW298368   0.006   3.695   1.025  0.0002  1.7040 -1.1722
28882SOL     OW98369  10.801   8.264   6.821  0.1800 -0.5012  0.3433
28882SOL    HW198370  10.759   8.335   6.772  1.0696 -1.0447 -1.2701
28882SOL    HW298371  10.743   8.189   6.810  0.9952 -0.9602 -0.9690
28883SOL     OW98372   2.761  10.944   4.666 -0.0706  0.3166  0.3163
28883SOL    HW198373   2.820  10.995   4.721  1.5888 -1.2043  0.0259
28883SOL    HW298374   2.688  10.922   4.723  0.3076  1.0417  1.1048
28884SOL     OW98375   6.822   5.439   8.939 -0.2974 -0.5645  0.4496
28884SOL    HW198376   6.907   5.401   8.961 -1.0699 -2.7580 -0.1498
28884SOL    HW298377   6.812   5.511   9.001  1.3287 -1.1978  1.5179
28885SOL     OW98378   8.618   6.061   5.011  0.1481  0.0038  0.6316
28885SOL    HW198379   8.524   6.077   5.019 -0.1219 -0.8053 -0.6190
28885SOL    HW298380   8.657   6.149   5.009 -0.9286  0.5204 -2.3221
28886SOL     OW98381   6.591   1.057   9.398  0.2176 -0.3186 -0.0968
28886SOL    HW198382   6.609   1.090   9.309  1.4281 -0.0548  0.2207
28886SOL    HW298383   6.592   0.962   9.389 -0.5122 -0.2954 -0.5106
28887SOL     OW98384  10.224  11.167  10.975  0.2355  0.1464  0.2588
28887SOL    HW198385  10.137  11.132  10.958  0.9207 -1.8323  0.5718
28887SOL    HW298386  10.263  11.177  10.888 -0.3575  1.3091  0.0986
28888SOL     OW98387   7.571  11.193   9.005 -0.2534 -0.1265  0.1939
28888SOL    HW198388   7.543  11.115   8.957 -2.1905  0.7981 -0.2808
28888SOL    HW298389   7.525  11.265   8.963  0.5933  1.1416  1.3546
28889SOL     OW98390   5.377   6.279  10.151 -0.0067 -0.7651  0.1563
28889SOL    HW198391   5.402   6.279  10.058  0.5064  0.9081  0.2634
28889SOL    HW298392   5.282   6.291  10.150  0.2822  2.0409 -0.1661
28890SOL     OW98393  11.312   1.089   9.958 -0.4818 -0.2741  0.4901
28890SOL    HW198394  11.330   1.183   9.955  0.7250 -0.5058 -0.9763
28890SOL    HW298395  11.345   1.060  10.043  1.6438  0.2217 -0.0929
28891SOL     OW98396   9.709   6.089   1.178  0.1283  0.6747 -0.3787
28891SOL    HW198397   9.720   6.183   1.193 -1.4850  0.9689 -0.8753
28891SOL    HW298398   9.709   6.050   1.266  0.2359  1.2082 -0.1404
28892SOL     OW98399   1.849   8.981   8.233  0.8114 -0.6544  0.5654
28892SOL    HW198400   1.772   8.971   8.178  1.1884 -0.7357  0.0525
28892SOL    HW298401   1.852   8.899   8.284  0.9123 -0.9195  0.1383
28893SOL     OW98402   7.345   1.844   5.004  0.1508  0.9461  0.2069
28893SOL    HW198403   7.299   1.798   5.075  2.3429 -0.3926  0.8422
28893SOL    HW298404   7.367   1.775   4.941  1.6828  1.4555  0.1526
28894SOL     OW98405   4.475   3.793   0.914 -0.0537 -0.0130 -0.0024
28894SOL    HW198406   4.504   3.702   0.902 -1.5707 -0.9364  2.5320
28894SOL    HW298407   4.555   3.841   0.933  0.4307 -1.6495  2.5536
28895SOL     OW98408  11.076  10.509   9.737 -0.1523  0.6735  0.2917
28895SOL    HW198409  11.094  10.502   9.643 -0.7314  1.7447  0.0870
28895SOL    HW298410  11.153  10.552   9.773  2.4663 -4.0361  1.2200
28896SOL     OW98411   6.816   4.239   2.071 -0.1270 -0.1259  0.4763
28896SOL    HW198412   6.902   4.247   2.111  0.0309 -0.1109  0.1364
28896SOL    HW298413   6.832   4.245   1.977 -0.5401  0.2989  0.4236
28897SOL     OW98414   9.871  11.451   8.578  0.0945  0.1122  0.0056
28897SOL    HW198415   9.815  11.514   8.623 -1.2074 -0.2498 -1.0332
28897SOL    HW298416   9.918  11.502   8.513  1.0030  0.4188  0.8807
28898SOL     OW98417   2.215  11.875  11.762  0.2779  0.2301  0.0788
28898SOL    HW198418   2.205  11.963  11.727 -2.0126  0.0202  0.0608
28898SOL    HW298419   2.238  11.821  11.686  2.0197  0.8006  0.1452
28899SOL     OW98420   4.979   8.957   2.585 -0.1054  0.1960  0.2933
28899SOL    HW198421   5.061   8.913   2.610  0.0840 -0.1641 -0.8877
28899SOL    HW298422   4.953   9.005   2.664  0.7456 -0.4327  0.9870
28900SOL     OW98423   4.748   2.600  10.466 -0.4756  0.1152 -0.6109
28900SOL    HW198424   4.744   2.571  10.557  1.3679 -2.4698 -1.2299
28900SOL    HW298425   4.688   2.541  10.420  1.4002 -1.1534 -1.5470
28901SOL     OW98426   0.943   8.105   2.364  0.1885  0.3771  0.1255
28901SOL    HW198427   0.876   8.169   2.386 -0.7288 -0.3573 -0.4280
28901SOL    HW298428   0.917   8.073   2.277  2.1831  1.2631 -0.8602
28902SOL     OW98429   2.990  10.552   1.640 -0.2786  0.3357 -0.4682
28902SOL    HW198430   3.026  10.516   1.722  0.7526 -1.4251 -1.6226
28902SOL    HW298431   2.947  10.633   1.666 -0.7007 -0.5915  1.9482
28903SOL     OW98432   2.792  11.306   1.482  0.0647  0.2240  0.0023
28903SOL    HW198433   2.881  11.326   1.511 -0.7200  0.3657  2.6199
28903SOL    HW298434   2.792  11.211   1.472  0.8072  0.3366 -1.2504
28904SOL     OW98435   9.755   2.607   4.637  0.0881  0.0326  0.1359
28904SOL    HW198436   9.752   2.676   4.703 -0.3109 -0.3031  0.4656
28904SOL    HW298437   9.794   2.650   4.560 -1.0837  0.8935  0.0070
28905SOL     OW98438   2.395   0.342   5.616 -0.0701 -0.2542  0.3508
28905SOL    HW198439   2.451   0.274   5.580  0.0924 -1.2031  2.2545
28905SOL    HW298440   2.414   0.420   5.564  2.2429 -0.8074  0.2900
28906SOL     OW98441   9.137   6.226   9.439  0.2455  0.6657  0.2561
28906SOL    HW198442   9.209   6.234   9.377 -0.0515  1.3101 -0.0222
28906SOL    HW298443   9.063   6.267   9.394  0.0678  1.2783  1.0935
28907SOL     OW98444   7.405   7.422   1.457  0.2597 -0.2389  0.5279
28907SOL    HW198445   7.314   7.401   1.477 -0.1440  1.0414  0.1438
28907SOL    HW298446   7.404   7.449   1.365  0.8254  0.7967  0.8054
28908SOL     OW98447   3.112  11.562   6.584 -0.0004  0.1297 -0.1474
28908SOL    HW198448   3.155  11.530   6.663  1.7704 -0.2787 -1.2241
28908SOL    HW298449   3.070  11.485   6.546  1.5084 -0.2974 -1.0282
28909SOL     OW98450   3.785   6.134   7.832 -0.0666  0.9634  0.3661
28909SOL    HW198451   3.733   6.165   7.758 -1.3374 -0.3937  0.6628
28909SOL    HW298452   3.876   6.147   7.804 -0.5192  0.7511 -1.3121
28910SOL     OW98453   5.958   9.737   5.948  0.3457 -0.6377  0.1489
28910SOL    HW198454   5.932   9.792   5.874 -2.3388 -1.1348  0.6117
28910SOL    HW298455   5.991   9.657   5.907 -0.2940 -0.5645 -0.5364
28911SOL     OW98456   9.173   4.851   9.419 -0.1946  0.4064  0.3332
28911SOL    HW198457   9.187   4.935   9.462 -2.1696  1.8542 -1.6413
28911SOL    HW298458   9.160   4.789   9.491 -3.3001  2.6988  1.9726
28912SOL     OW98459   7.609   1.351   9.920 -1.0882 -0.1860  0.1232
28912SOL    HW198460   7.662   1.275   9.945 -1.3740 -0.0878  1.0662
28912SOL    HW298461   7.531   1.345   9.976 -1.0289  0.9038  0.3449
28913SOL     OW98462   0.795   6.691   5.446 -0.0381 -0.3334 -0.2026
28913SOL    HW198463   0.760   6.758   5.388 -0.5197 -0.8302 -0.4975
28913SOL    HW298464   0.879   6.666   5.406 -1.0921 -1.8155 -1.6193
28914SOL     OW98465   0.984   2.629  11.947 -0.0582  0.0976 -0.0565
28914SOL    HW198466   1.024   2.669  12.023  0.3780 -1.9630  0.8512
28914SOL    HW298467   0.890   2.639  11.961  0.0314  0.2145  0.4547
28915SOL     OW98468   4.896  10.430  10.397 -0.4993 -0.2547 -0.2916
28915SOL    HW198469   4.803  10.413  10.412 -0.8898  0.7858 -1.3706
28915SOL    HW298470   4.926  10.471  10.478 -1.6856  1.9692 -0.8846
28916SOL     OW98471   7.685   4.380   8.953 -0.3966  0.1209 -0.1476
28916SOL    HW198472   7.623   4.319   8.914  0.1036 -0.0724 -0.6576
28916SOL    HW298473   7.631   4.447   8.994 -0.9337  0.0239 -0.6947
28917SOL     OW98474   6.925   5.989   2.518  0.2533  0.3577  0.0148
28917SOL    HW198475   6.951   5.988   2.610  0.5522  0.3461 -0.0685
28917SOL    HW298476   6.963   5.909   2.481  0.8379  0.7739 -0.3075
28918SOL     OW98477   6.068   1.848   8.393 -0.2926 -0.1036 -0.1139
28918SOL    HW198478   5.991   1.808   8.353  0.4891 -2.3379  0.4810
28918SOL    HW298479   6.032   1.907   8.460 -1.4978  0.5867 -1.3308
28919SOL     OW98480   7.199  10.496  10.415 -0.2914 -0.2078 -0.1178
28919SOL    HW198481   7.142  10.439  10.466  1.3270 -0.5381  1.4071
28919SOL    HW298482   7.287  10.468  10.437  0.5725  2.5580  0.3259
28920SOL     OW98483   3.040  10.847   8.460 -0.2382 -0.6636 -0.8942
28920SOL    HW198484   3.133  10.832   8.477 -0.2910 -1.6475 -1.4272
28920SOL    HW298485   3.032  10.942   8.452  0.8179 -0.6016 -1.3684
28921SOL     OW98486   1.239   4.808   7.405 -0.0322 -0.2230  0.2829
28921SOL    HW198487   1.307   4.850   7.459  1.6058  0.6594 -2.2834
28921SOL    HW298488   1.261   4.715   7.408  0.7443 -0.0555  0.2675
28922SOL     OW98489   3.890   3.087   0.212  0.0895 -0.0985  0.3948
28922SOL    HW198490   3.833   3.159   0.238  1.0951  1.4801 -1.5317
28922SOL    HW298491   3.830   3.016   0.188 -1.0085  0.8814  0.1520
28923SOL     OW98492   3.602   5.996   3.483 -0.0953  0.3689  0.7177
28923SOL    HW198493   3.668   5.928   3.495  1.4924  1.7261  0.0553
28923SOL    HW298494   3.634   6.070   3.535 -0.7529  1.2595 -0.1048
28924SOL     OW98495   9.040   0.193   5.843 -0.0169  0.1501 -0.1383
28924SOL    HW198496   9.121   0.227   5.805 -0.8250  0.7909 -1.3590
28924SOL    HW298497   8.995   0.270   5.876 -0.6460 -0.0535 -0.5086
28925SOL     OW98498   0.836   2.856   0.458  0.4392  0.1646  0.2396
28925SOL    HW198499   0.802   2.772   0.427  2.2350  0.2312 -2.2239
28925SOL    HW298500   0.923   2.835   0.493  0.0046  0.7182  1.7268
28926SOL     OW98501   2.481   4.287   9.925  0.3402 -0.3591 -0.4698
28926SOL    HW198502   2.428   4.211   9.903  0.8575 -0.5815 -0.9450
28926SOL    HW298503   2.436   4.326  10.001 -0.7970 -0.2457 -1.1720
28927SOL     OW98504   9.217   4.422   9.739 -0.3823  0.7658 -0.0467
28927SOL    HW198505   9.203   4.343   9.687 -1.4363  0.5207  0.5616
28927SOL    HW298506   9.293   4.401   9.794 -1.3490 -0.3305  0.9580
28928SOL     OW98507   3.778   7.008  11.836 -0.4888  0.1697  0.0309
28928SOL    HW198508   3.795   7.089  11.883 -0.1988 -0.1558  0.4895
28928SOL    HW298509   3.699   7.026  11.784  0.1264  1.0596 -0.6210
28929SOL     OW98510  10.511   2.038   8.137  0.8118  0.4210 -0.0528
28929SOL    HW198511  10.508   1.950   8.175  2.0268 -0.5890 -2.1195
28929SOL    HW298512  10.446   2.036   8.066 -0.7575  1.9598  1.2561
28930SOL     OW98513   2.778   9.968   3.590 -0.5473  0.1897  0.0226
28930SOL    HW198514   2.699  10.016   3.616 -0.8567 -1.2545  1.9032
28930SOL    HW298515   2.850  10.029   3.606 -1.0753  0.6358  0.7424
28931SOL     OW98516   4.654   1.054   0.662 -0.0970  0.1466  0.3410
28931SOL    HW198517   4.614   1.055   0.749 -0.4965  1.5551  0.1728
28931SOL    HW298518   4.589   1.012   0.606  0.0389 -0.4986  0.6539
28932SOL     OW98519   2.799   0.135  10.692 -0.1169 -0.2682 -0.2481
28932SOL    HW198520   2.768   0.171  10.774 -1.1483  2.5358 -1.7469
28932SOL    HW298521   2.894   0.149  10.693 -0.0898 -0.5052  0.5587
28933SOL     OW98522   8.311   0.395   6.324 -0.0462 -0.0782 -0.3019
28933SOL    HW198523   8.274   0.330   6.265 -1.5140 -1.3779  1.9008
28933SOL    HW298524   8.405   0.378   6.323 -0.5124 -3.5942  1.5683
28934SOL     OW98525   9.587  10.417   6.505 -0.6941  0.4748 -0.3230
28934SOL    HW198526   9.671  10.417   6.458 -0.5510 -1.1955 -0.1220
28934SOL    HW298527   9.527  10.464   6.447  0.1750  0.9673 -0.8425
28935SOL     OW98528   6.660   2.805  11.155 -0.3936  0.1846  0.0479
28935SOL    HW198529   6.716   2.876  11.125 -0.7695  0.2555 -0.4889
28935SOL    HW298530   6.681   2.732  11.097 -0.1548 -0.0918  0.4701
28936SOL     OW98531   1.747   0.052   0.372 -0.0940  0.1347 -0.1141
28936SOL    HW198532   1.754   0.115   0.300  1.9213  0.2647  0.1207
28936SOL    HW298533   1.831   0.006   0.371 -0.9351 -1.5128  0.6838
28937SOL     OW98534   7.842   7.165   5.318  0.0333  0.5260 -0.1111
28937SOL    HW198535   7.753   7.188   5.347  0.3514  0.9165  0.5863
28937SOL    HW298536   7.845   7.070   5.325 -0.4251  0.4872 -0.4060
28938SOL     OW98537   4.345   2.400   6.286 -0.1531  0.4133 -0.6408
28938SOL    HW198538   4.303   2.345   6.219 -0.6319 -0.5198  0.4013
28938SOL    HW298539   4.317   2.489   6.264  0.3338  0.2219 -2.1407
28939SOL     OW98540   4.545   3.059   1.658 -0.2097 -0.3892  0.1791
28939SOL    HW198541   4.493   3.004   1.600 -1.9001 -0.0621  1.3050
28939SOL    HW298542   4.536   3.148   1.623  1.1264 -0.5586 -0.6618
28940SOL     OW98543   7.411   0.072   1.952  0.3462  0.8344 -0.5238
28940SOL    HW198544   7.484   0.133   1.966  0.9987 -0.0802  0.2401
28940SOL    HW298545   7.439   0.019   1.877  1.3642 -0.7315  0.8798
28941SOL     OW98546   4.512   8.886   6.819  0.5487 -0.6184  0.1177
28941SOL    HW198547   4.607   8.899   6.825  0.4604 -0.3149  0.9971
28941SOL    HW298548   4.501   8.822   6.749  1.3657 -0.2200 -0.3987
28942SOL     OW98549   5.952   3.892  10.325  0.0486  0.0668 -0.1495
28942SOL    HW198550   5.949   3.897  10.420 -1.5927  0.1659 -0.1770
28942SOL    HW298551   5.895   3.818  10.303  1.6437 -0.9549 -1.0039
28943SOL     OW98552   4.143   7.035   8.357 -0.0463 -0.0530 -0.4514
28943SOL    HW198553   4.181   6.988   8.431 -1.0373 -2.0113 -1.1182
28943SOL    HW298554   4.201   7.016   8.284 -0.0837  0.3247 -0.5793
28944SOL     OW98555  11.591  11.684   1.124 -0.7123  0.0665  0.1689
28944SOL    HW198556  11.685  11.670   1.133 -0.6121 -0.9863 -1.8766
28944SOL    HW298557  11.551  11.620   1.182 -0.1386 -1.2184 -0.7869
28945SOL     OW98558   2.011   1.511   1.590 -0.2967 -0.1485  0.1724
28945SOL    HW198559   1.948   1.579   1.613 -1.1099 -1.1366  0.9475
28945SOL    HW298560   2.013   1.453   1.666  0.2813 -1.0759 -0.5237
28946SOL     OW98561   3.815   4.668   0.525  0.6224 -0.5021  0.0753
28946SOL    HW198562   3.812   4.700   0.615 -2.9073 -1.4133  0.4637
28946SOL    HW298563   3.770   4.736   0.475  1.5473 -0.5253 -0.7935
28947SOL     OW98564   2.787   4.563   3.280  0.3150  0.0466  0.0313
28947SOL    HW198565   2.852   4.632   3.274  1.3303 -0.8315  0.5624
28947SOL    HW298566   2.832   4.484   3.250 -0.7117 -0.4626 -0.2493
28948SOL     OW98567   9.555   3.990   5.500  0.1658 -0.0821 -0.2576
28948SOL    HW198568   9.599   3.971   5.417 -1.2778 -2.8126 -0.4875
28948SOL    HW298569   9.467   4.017   5.474  0.7172  2.6076  0.3304
28949SOL     OW98570   9.853  11.330   3.284 -0.3880 -0.1402 -0.1360
28949SOL    HW198571   9.798  11.354   3.359 -0.9920 -0.8587 -0.3435
28949SOL    HW298572   9.942  11.333   3.319 -0.7273 -1.5797  0.9398
28950SOL     OW98573   6.872   6.099   9.099 -0.5637 -0.1476 -0.1411
28950SOL    HW198574   6.889   6.014   9.141  1.4293 -0.3355 -1.2249
28950SOL    HW298575   6.900   6.087   9.009  0.2451  1.8264 -0.1897
28951SOL     OW98576  11.679   1.056   4.101  0.6580  0.6897  0.3635
28951SOL    HW198577  11.642   0.975   4.067  0.2017  0.5212  1.2276
28951SOL    HW298578  11.633   1.070   4.184  1.1077  1.5509  0.4780
28952SOL     OW98579  11.918   3.886  11.034 -0.0344 -0.1715 -0.1530
28952SOL    HW198580  11.836   3.838  11.026 -1.0862  1.3897  0.7485
28952SOL    HW298581  11.953   3.860  11.119  0.2282 -0.5243 -0.3616
28953SOL     OW98582   1.344   2.046   2.629  0.0514 -0.1012 -0.5297
28953SOL    HW198583   1.392   2.079   2.552 -0.1724  1.5591 -0.0056
28953SOL    HW298584   1.330   2.124   2.683  0.5633 -1.2849  1.4042
28954SOL     OW98585   9.097  11.930  10.186  0.6029  0.3972 -0.1081
28954SOL    HW198586   9.113  12.022  10.166 -1.9623  0.6336 -1.6009
28954SOL    HW298587   9.002  11.920  10.181  0.6021 -1.8965  2.2271
28955SOL     OW98588   3.819   6.497   5.083 -0.1955  0.1504 -0.7318
28955SOL    HW198589   3.728   6.518   5.105 -0.3927 -1.3642  0.0416
28955SOL    HW298590   3.870   6.564   5.129 -0.8122 -0.7042  1.3221
28956SOL     OW98591   5.253  10.642   9.916  0.6956  0.1376 -0.5327
28956SOL    HW198592   5.182  10.628   9.978  1.3324 -0.7635  0.0223
28956SOL    HW298593   5.252  10.737   9.899 -1.0281  0.0565 -1.0472
28957SOL     OW98594   9.695  10.478   7.703 -0.2753 -0.5422  0.4633
28957SOL    HW198595   9.665  10.438   7.621 -2.7282 -1.7728  1.8335
28957SOL    HW298596   9.686  10.572   7.689 -0.4463 -0.7201 -0.7492
28958SOL     OW98597   7.271   9.816   8.391 -0.0522 -0.3823  0.0228
28958SOL    HW198598   7.324   9.848   8.464 -1.1094 -2.9008  2.0505
28958SOL    HW298599   7.331   9.762   8.339  0.7204  1.4792 -1.1201
28959SOL     OW98600   2.371   6.916   6.259  0.0301  0.0204 -0.0313
28959SOL    HW198601   2.408   6.829   6.244  2.8200  1.3549 -1.8690
28959SOL    HW298602   2.433   6.959   6.318  0.1697  1.5694 -1.2202
28960SOL     OW98603   7.007   0.211   6.486 -0.1460 -0.6290 -0.0616
28960SOL    HW198604   6.966   0.250   6.564 -2.4816  1.2393 -2.0283
28960SOL    HW298605   6.940   0.220   6.418  2.1709 -1.1508 -2.5601
28961SOL     OW98606   6.952   3.713  11.359  0.1297 -0.0589 -0.3301
28961SOL    HW198607   6.978   3.644  11.421  1.3687 -0.5070 -1.3051
28961SOL    HW298608   6.857   3.709  11.358 -0.1393  1.4064  3.1422
28962SOL     OW98609   7.398   5.972  11.311  0.1117  0.2449  0.3495
28962SOL    HW198610   7.381   6.058  11.273 -0.2605 -0.0389 -0.1361
28962SOL    HW298611   7.463   5.932  11.252 -1.0360 -0.5018 -0.4653
28963SOL     OW98612   3.020   6.111   4.300 -0.4532  0.1037 -0.1638
28963SOL    HW198613   2.981   6.080   4.382 -0.9794  0.5377 -0.2416
28963SOL    HW298614   3.102   6.153   4.326  0.1741 -1.1477 -0.0348
28964SOL     OW98615  11.863   0.191   9.390  0.3617 -0.3095  0.4392
28964SOL    HW198616  11.940   0.168   9.442  0.5758 -0.2399  0.1530
28964SOL    HW298617  11.857   0.122   9.324 -0.1941 -0.6644  0.8607
28965SOL     OW98618  10.327   2.013   7.069 -0.1458  0.3292 -0.1784
28965SOL    HW198619  10.279   1.980   7.146  0.0353 -0.6461 -0.4676
28965SOL    HW298620  10.270   2.081   7.033  0.3548  1.7320  1.5579
28966SOL     OW98621  10.391   6.961   1.613  0.2844  0.3910 -0.3239
28966SOL    HW198622  10.305   7.002   1.624  1.0440  2.3654 -1.2868
28966SOL    HW298623  10.442   6.991   1.689  0.1309 -0.8637  0.3044
28967SOL     OW98624   4.177   4.717   1.351 -0.0982 -0.2917 -0.1700
28967SOL    HW198625   4.125   4.643   1.381 -0.8389  0.3533  0.1802
28967SOL    HW298626   4.256   4.715   1.405 -0.2598 -0.6318  0.0552
28968SOL     OW98627   5.511   3.867   2.629 -0.3744 -0.4866 -0.0260
28968SOL    HW198628   5.510   3.962   2.616  2.5852 -0.3464  0.1566
28968SOL    HW298629   5.432   3.850   2.680 -1.1783  1.8100 -0.3673
28969SOL     OW98630   2.785   5.170   7.199  0.2559 -0.1865 -0.4322
28969SOL    HW198631   2.831   5.198   7.278 -0.6841 -0.5892  0.2626
28969SOL    HW298632   2.756   5.252   7.158  2.1284  0.1304 -1.2517
28970SOL     OW98633   9.185   6.846   6.715 -0.2466  0.1740 -0.0464
28970SOL    HW198634   9.217   6.847   6.805 -0.7575  2.7878  0.1745
28970SOL    HW298635   9.186   6.938   6.688  0.1000 -0.5632 -2.7975
28971SOL     OW98636   5.051   6.877   6.371 -0.3607 -0.1410 -0.1076
28971SOL    HW198637   5.017   6.819   6.303  0.8610  0.5565 -1.3516
28971SOL    HW298638   5.130   6.833   6.402 -0.1648  0.2000 -0.1170
28972SOL     OW98639   0.943   8.065  10.246 -0.0048  0.3248 -0.0034
28972SOL    HW198640   0.964   8.002  10.316 -0.2799 -0.7837 -0.8839
28972SOL    HW298641   1.012   8.052  10.181  0.9512  2.2098  0.5568
28973SOL     OW98642   8.778   4.749   7.615 -0.2309 -0.3076 -0.1768
28973SOL    HW198643   8.766   4.784   7.527 -0.6883 -1.0866 -0.4411
28973SOL    HW298644   8.744   4.659   7.610 -1.3077 -0.0030  1.0663
28974SOL     OW98645   8.578   8.006   4.208 -0.0537  0.3067  0.6499
28974SOL    HW198646   8.620   8.017   4.293 -0.4314 -3.2361  1.4826
28974SOL    HW298647   8.520   8.082   4.198  1.4271  1.7783  2.6168
28975SOL     OW98648   0.826   3.396   2.868  0.1248 -1.2481 -0.5292
28975SOL    HW198649   0.861   3.344   2.797  2.5014 -0.7817  0.2142
28975SOL    HW298650   0.848   3.486   2.846 -4.4068 -0.2558 -2.0840
28976SOL     OW98651   4.397   7.576   7.751 -0.1258  0.2498 -0.1270
28976SOL    HW198652   4.306   7.573   7.722  0.1244 -0.8482 -0.8109
28976SOL    HW298653   4.434   7.652   7.707 -0.4994  0.2404 -0.4550
28977SOL     OW98654  10.519   2.694   7.032  0.1801  0.3043 -0.1925
28977SOL    HW198655  10.574   2.759   6.986  0.0211  1.8041  1.6048
28977SOL    HW298656  10.436   2.696   6.984  1.0716 -0.7196 -1.8880
28978SOL     OW98657   9.830  11.403   6.104 -0.9491  0.2278 -0.5832
28978SOL    HW198658   9.789  11.370   6.184 -1.5967 -0.6676 -1.2557
28978SOL    HW298659   9.823  11.330   6.042 -1.8856  1.4274 -1.9551
28979SOL     OW98660   6.012   7.626  10.625  0.4183  0.0920  0.0731
28979SOL    HW198661   6.006   7.533  10.603 -2.3090  0.2151 -0.0354
28979SOL    HW298662   5.997   7.629  10.720 -1.0439  0.4630 -0.1345
28980SOL     OW98663  11.071  10.154   8.254  0.1675 -0.0344 -0.4048
28980SOL    HW198664  11.156  10.139   8.214  0.7023  2.3361 -0.2921
28980SOL    HW298665  11.057  10.078   8.311  1.4984 -1.1793 -1.5362
28981SOL     OW98666   0.234   6.134   4.126  0.1449  0.3718 -0.0890
28981SOL    HW198667   0.260   6.042   4.119  1.8596  0.6531  1.7235
28981SOL    HW298668   0.152   6.139   4.077  0.5325 -1.8841 -1.1245
28982SOL     OW98669  11.074  11.860   0.125 -0.4010  0.0567 -0.2782
28982SOL    HW198670  11.032  11.927   0.178  0.8226 -0.4295  1.3777
28982SOL    HW298671  11.092  11.788   0.185  1.5221 -0.3011 -1.1817
28983SOL     OW98672   1.245  10.308   9.547 -0.4776  0.6268  0.2281
28983SOL    HW198673   1.188  10.243   9.587  1.5333 -0.7585  1.0236
28983SOL    HW298674   1.250  10.379   9.612 -1.4509  0.8916  0.0326
28984SOL     OW98675   2.781   0.294  11.305  0.4107 -0.9266 -0.4498
28984SOL    HW198676   2.728   0.318  11.381 -1.0576 -1.3980 -1.2918
28984SOL    HW298677   2.723   0.309  11.230  2.3720  1.1961 -1.6601
28985SOL     OW98678   6.111   4.643   9.650  0.0092  0.3262 -0.3585
28985SOL    HW198679   6.137   4.719   9.598 -0.1040  0.3365 -0.4005
28985SOL    HW298680   6.028   4.669   9.691  0.2555  0.4301  0.0740
28986SOL     OW98681   0.253   0.795   0.778  0.2829 -0.4400  0.3043
28986SOL    HW198682   0.186   0.735   0.744  0.0844 -0.0525  0.0028
28986SOL    HW298683   0.242   0.874   0.726  0.1838  0.0476  1.0673
28987SOL     OW98684   9.650   3.477   1.870  0.0219 -0.4827 -0.0680
28987SOL    HW198685   9.580   3.479   1.806  0.6964  0.0299 -0.8052
28987SOL    HW298686   9.606   3.483   1.955 -0.8471 -0.7643 -0.4931
28988SOL     OW98687   1.041   5.609   7.806  0.2389 -0.1499  0.3189
28988SOL    HW198688   1.033   5.529   7.754  0.2745  1.3445 -2.1371
28988SOL    HW298689   0.951   5.636   7.822  0.1657  0.7149 -1.2731
28989SOL     OW98690   1.141  11.785   5.509 -0.2904  0.2718  0.2874
28989SOL    HW198691   1.141  11.812   5.417 -1.9855  0.2813  0.2695
28989SOL    HW298692   1.062  11.732   5.519 -0.4461  0.7571  1.8802
28990SOL     OW98693   7.620   6.598   2.346  0.0053 -0.3871  0.1756
28990SOL    HW198694   7.602   6.692   2.333  3.5075  0.2142 -1.4226
28990SOL    HW298695   7.533   6.557   2.346 -1.7221  2.8794  1.6767
28991SOL     OW98696  10.257   4.411   2.569  0.9079 -0.0632 -0.4011
28991SOL    HW198697  10.202   4.446   2.498  1.3044  0.8611 -0.2719
28991SOL    HW298698  10.345   4.443   2.549  1.3112 -1.0873 -0.3172
28992SOL     OW98699   9.431  10.073   8.162  0.3596 -0.4165 -0.1051
28992SOL    HW198700   9.515  10.072   8.208  2.0814 -1.8085 -3.0082
28992SOL    HW298701   9.372  10.025   8.220  2.6661 -3.0005  0.3104
28993SOL     OW98702   7.553  11.321   7.293 -0.2647 -0.0475 -0.4400
28993SOL    HW198703   7.485  11.305   7.228 -1.3811 -0.0537  0.6918
28993SOL    HW298704   7.543  11.251   7.357 -0.7448  1.2336  0.9639
28994SOL     OW98705   3.603   2.428  11.950  0.3219  0.4751  0.5460
28994SOL    HW198706   3.621   2.511  11.906 -1.1221  0.8115  0.5252
28994SOL    HW298707   3.507   2.419  11.946  0.4187 -1.0182  0.8605
28995SOL     OW98708   9.139   7.971  11.189 -0.7740  0.4494  0.4013
28995SOL    HW198709   9.074   7.950  11.256  0.1234 -0.2504  1.0760
28995SOL    HW298710   9.089   8.012  11.118 -1.9177  0.0312  0.9570
28996SOL     OW98711   4.841   3.576   4.948  0.1566  0.0967  0.1901
28996SOL    HW198712   4.764   3.558   4.894 -0.9664 -0.0050  1.7622
28996SOL    HW298713   4.844   3.504   5.010  1.7966 -0.1297 -0.1244
28997SOL     OW98714   8.199   7.367   2.686 -0.4176 -0.6086  0.0439
28997SOL    HW198715   8.184   7.448   2.735 -0.1750  0.0952 -1.0178
28997SOL    HW298716   8.112   7.337   2.662 -0.4650 -0.0764 -0.4733
28998SOL     OW98717   9.898   1.776   8.755 -0.0509 -0.1490 -0.0338
28998SOL    HW198718   9.928   1.809   8.840 -0.2773 -0.6633  0.2573
28998SOL    HW298719   9.888   1.854   8.701  1.0321  0.1105  0.1026
28999SOL     OW98720   7.481  10.140   1.772  0.4629  0.2376  0.4074
28999SOL    HW198721   7.387  10.154   1.777  0.6227  1.9110 -0.5551
28999SOL    HW298722   7.518  10.205   1.831  1.0201 -0.7944  1.2326
29000SOL     OW98723   5.053   0.361   5.303 -0.0653 -0.1599  0.3173
29000SOL    HW198724   5.127   0.363   5.242  1.2232 -0.6950  1.8126
29000SOL    HW298725   4.982   0.404   5.255  1.3980  1.0165 -0.8919
29001SOL     OW98726   6.028   5.949   5.541 -0.2497  0.3143  0.2586
29001SOL    HW198727   5.938   5.918   5.545  0.0435 -0.5730  0.2593
29001SOL    HW298728   6.071   5.906   5.615  0.0970  0.9820  0.4480
29002SOL     OW98729  11.520   5.402  10.247 -0.4536  0.5002  0.4251
29002SOL    HW198730  11.512   5.413  10.342 -1.0947  0.3705  0.3928
29002SOL    HW298731  11.527   5.307  10.235  1.9792  0.6166  0.4919
29003SOL     OW98732   8.950   7.577  10.317  0.8451  0.4860  0.5454
29003SOL    HW198733   8.888   7.637  10.276  0.5937  1.2639  1.9982
29003SOL    HW298734   9.032   7.591  10.270  0.1427  0.0199 -0.8744
29004SOL     OW98735   4.259   4.053   3.713 -0.0128 -0.1661  0.2661
29004SOL    HW198736   4.341   4.015   3.747  0.2506 -0.5418 -0.7252
29004SOL    HW298737   4.262   4.144   3.740  0.2333 -0.4243  1.1396
29005SOL     OW98738   5.488   6.594   8.484 -0.3085  0.4610 -0.3051
29005SOL    HW198739   5.546   6.520   8.468  0.7588  1.3600 -0.6923
29005SOL    HW298740   5.407   6.572   8.437  0.3154 -0.0666 -1.1582
29006SOL     OW98741   2.106   3.116   6.423  0.1399  0.2806  0.2664
29006SOL    HW198742   2.046   3.169   6.370 -1.1704 -0.8946  0.5195
29006SOL    HW298743   2.052   3.082   6.494  1.5633  0.7298  1.6133
29007SOL     OW98744   6.010   6.142   4.118  0.3001 -0.1080 -0.1700
29007SOL    HW198745   5.920   6.151   4.149  0.1472  1.0545 -0.8970
29007SOL    HW298746   6.064   6.162   4.194 -0.0706  2.7063 -0.5186
29008SOL     OW98747   6.871   5.401   4.553  0.5652 -0.2818  0.1489
29008SOL    HW198748   6.896   5.445   4.634  1.4358 -0.2705 -0.1102
29008SOL    HW298749   6.954   5.378   4.512  0.1402 -1.9303  0.1487
29009SOL     OW98750   0.918   5.308   9.466 -0.1078  0.2237 -0.0776
29009SOL    HW198751   0.856   5.380   9.473 -0.5300 -0.2722  1.8369
29009SOL    HW298752   0.983   5.325   9.534  1.1137 -0.0030 -1.1392
29010SOL     OW98753  10.235   4.699   9.904  0.4092  0.2898  0.0134
29010SOL    HW198754  10.327   4.673   9.900  0.5297  0.7624 -0.4970
29010SOL    HW298755  10.187   4.617   9.889  0.7196 -0.1067  1.1009
29011SOL     OW98756   2.291  10.104   1.169 -0.0612  0.5793 -0.2412
29011SOL    HW198757   2.216  10.057   1.205 -0.2337  0.1663 -1.1154
29011SOL    HW298758   2.269  10.197   1.181  0.5435  0.4996  2.0321
29012SOL     OW98759   4.323   9.323   8.237  0.5554  0.0630 -0.5267
29012SOL    HW198760   4.369   9.298   8.318 -0.2077  0.3963  0.0197
29012SOL    HW298761   4.239   9.358   8.267 -0.6735 -1.8230 -1.5825
29013SOL     OW98762   7.788   2.163   6.139  0.2355  0.0084 -0.0462
29013SOL    HW198763   7.833   2.079   6.137  0.6136  0.2018  0.1980
29013SOL    HW298764   7.743   2.169   6.055 -0.1356 -0.6222  0.1013
29014SOL     OW98765   0.678   3.008  10.637 -0.3755 -0.5145  0.3398
29014SOL    HW198766   0.672   2.967  10.723 -2.0731 -1.8705 -0.3654
29014SOL    HW298767   0.740   2.954  10.588  0.7469  0.3768  0.7576
29015SOL     OW98768   6.286   8.875  10.672 -0.5336  0.0513  0.1356
29015SOL    HW198769   6.225   8.806  10.645 -0.4876  0.5194 -1.2775
29015SOL    HW298770   6.230   8.938  10.718 -0.6733 -0.6423  0.9468
29016SOL     OW98771   4.016   6.516   6.891  0.5947 -0.1231 -0.1339
29016SOL    HW198772   4.012   6.439   6.947  3.4093 -1.1995 -1.2495
29016SOL    HW298773   4.006   6.590   6.952 -1.1408 -1.2596  1.0818
29017SOL     OW98774   2.589   9.432   7.829  0.1081 -0.2030  0.0764
29017SOL    HW198775   2.548   9.475   7.754 -0.8735 -0.1658  0.6149
29017SOL    HW298776   2.670   9.394   7.794 -0.9358 -1.2689 -1.3168
29018SOL     OW98777   4.597   0.630   5.050  0.4329  0.2094  0.6440
29018SOL    HW198778   4.690   0.611   5.064  0.3595 -0.6436  0.0278
29018SOL    HW298779   4.569   0.669   5.133  1.2412  0.0871  0.9916
29019SOL     OW98780  11.556   6.349   9.397  0.8854 -0.2530 -0.2833
29019SOL    HW198781  11.530   6.290   9.467 -2.9902 -0.2705 -1.4807
29019SOL    HW298782  11.559   6.436   9.437 -1.3481 -0.2564 -0.0194
29020SOL     OW98783   7.584   7.720   3.043 -0.3671 -0.4469 -0.1720
29020SOL    HW198784   7.522   7.786   3.011 -0.6496 -0.6007  0.0544
29020SOL    HW298785   7.660   7.728   2.984 -0.0834  0.5950  0.3015
29021SOL     OW98786   6.003   0.147   4.665  0.3087 -0.0239  0.3938
29021SOL    HW198787   5.939   0.202   4.621  1.0214  0.8370  0.4017
29021SOL    HW298788   6.085   0.196   4.660  0.5966 -0.2928  1.9057
29022SOL     OW98789   8.821   1.819   2.474  0.4891  0.0006  0.6052
29022SOL    HW198790   8.799   1.840   2.384  2.0185 -0.6488  0.0514
29022SOL    HW298791   8.804   1.900   2.522 -1.1379  0.1181 -0.0734
29023SOL     OW98792   4.481   6.491   3.678  0.5579 -0.3971  0.1217
29023SOL    HW198793   4.445   6.571   3.717 -1.6576 -1.1974 -0.1647
29023SOL    HW298794   4.482   6.508   3.584 -0.6565 -0.9515 -0.0090
29024SOL     OW98795   8.592  11.244  11.306  0.2617 -0.5520  0.2417
29024SOL    HW198796   8.637  11.195  11.374 -0.7380 -0.6363  0.8604
29024SOL    HW298797   8.621  11.334  11.317 -1.1831 -0.2502  1.9050
29025SOL     OW98798   0.611   9.238   7.560  0.1725  0.1385 -0.0696
29025SOL    HW198799   0.704   9.217   7.570 -0.0286 -1.5263 -1.3591
29025SOL    HW298800   0.605   9.278   7.473 -0.3445  0.1281 -0.0384
29026SOL     OW98801   4.960   8.812   9.172 -0.1592  0.7972  0.0706
29026SOL    HW198802   4.900   8.784   9.242  0.0865 -0.9096 -0.3427
29026SOL    HW298803   4.918   8.890   9.135 -1.1024  0.8057  1.0884
29027SOL     OW98804   8.948  11.455  10.151  0.0470  0.2192 -0.7527
29027SOL    HW198805   8.938  11.365  10.183  0.1838  1.1023  2.0030
29027SOL    HW298806   9.030  11.485  10.189 -0.5013  1.8485 -0.7693
29028SOL     OW98807   6.627  10.895   2.809  0.2557 -0.3038  0.2288
29028SOL    HW198808   6.565  10.845   2.862 -2.1205  2.4506  0.2987
29028SOL    HW298809   6.677  10.946   2.873  0.3115 -0.0982  0.0227
29029SOL     OW98810   9.190   5.143  10.809 -0.1593 -0.1466 -0.3613
29029SOL    HW198811   9.145   5.061  10.825  0.0361 -0.5074 -1.5783
29029SOL    HW298812   9.134   5.190  10.748  0.3349  0.0874 -0.6415
29030SOL     OW98813   5.818   0.909   8.384 -0.4856  0.0877  0.1940
29030SOL    HW198814   5.898   0.940   8.342  1.2559 -2.2894  1.5341
29030SOL    HW298815   5.765   0.875   8.312 -0.8977  2.7299 -0.8535
29031SOL     OW98816   4.531   5.506   5.092 -0.2778 -0.2094 -0.4431
29031SOL    HW198817   4.487   5.537   5.171 -0.9445  2.4243 -1.7583
29031SOL    HW298818   4.617   5.547   5.095 -0.1315 -0.4833 -0.8774
29032SOL     OW98819   8.489   9.870   1.245  0.0402  0.1548  0.1442
29032SOL    HW198820   8.508   9.881   1.338  1.8584  1.3403 -0.3142
29032SOL    HW298821   8.563   9.820   1.210  0.0332  0.8160 -0.8784
29033SOL     OW98822  10.019   6.125   3.644  0.1364  0.1130 -0.5925
29033SOL    HW198823  10.091   6.170   3.600 -0.7391  1.9431 -0.2197
29033SOL    HW298824   9.941   6.175   3.621 -0.8442 -1.0275  0.1177
29034SOL     OW98825   7.062   8.293   1.116 -0.2290 -0.0361  0.0738
29034SOL    HW198826   7.123   8.227   1.083  0.2763  1.0696 -1.2838
29034SOL    HW298827   7.107   8.333   1.190  0.5548  0.5336 -0.7029
29035SOL     OW98828   2.396   5.501  10.585  0.0751  0.0691  0.4425
29035SOL    HW198829   2.458   5.497  10.658  0.4964  1.3267  0.1694
29035SOL    HW298830   2.316   5.538  10.623 -1.0735 -2.8031  1.1239
29036SOL     OW98831   1.225   5.522   6.752  0.3077  0.1283 -0.0679
29036SOL    HW198832   1.290   5.577   6.707 -3.0761  3.3735 -1.4442
29036SOL    HW298833   1.178   5.478   6.681 -0.2397 -0.7073  0.7953
29037SOL     OW98834  10.791   1.644   4.672 -0.1620  0.1554  0.7054
29037SOL    HW198835  10.723   1.578   4.684 -0.1093  0.0193  0.2654
29037SOL    HW298836  10.865   1.612   4.724 -0.2670  0.0596  0.7968
29038SOL     OW98837  10.677   0.855   3.744 -0.2007  0.0542 -0.2272
29038SOL    HW198838  10.692   0.948   3.731  0.5708 -0.0856 -0.3701
29038SOL    HW298839  10.638   0.825   3.662  0.9358 -0.0363 -0.7508
29039SOL     OW98840   0.642   1.719   4.780 -0.3878  0.3393 -0.4078
29039SOL    HW198841   0.551   1.724   4.808  0.5249 -0.0205  3.1225
29039SOL    HW298842   0.691   1.767   4.848  2.0697  0.4805 -2.1405
29040SOL     OW98843   7.401   6.688   6.401 -0.5236 -0.4020  0.0914
29040SOL    HW198844   7.486   6.644   6.400  0.9532  2.2069 -0.7610
29040SOL    HW298845   7.379   6.697   6.494  0.0346 -1.2447  0.3132
29041SOL     OW98846   7.880  11.726   8.329 -0.0153  0.9674  0.1443
29041SOL    HW198847   7.959  11.774   8.354 -1.1535  2.1044  1.7275
29041SOL    HW298848   7.859  11.758   8.241 -0.0087  2.3987  0.6440
29042SOL     OW98849   0.157   6.726   5.740  0.3136 -0.8376 -0.5239
29042SOL    HW198850   0.165   6.817   5.710  0.9081 -1.2352 -1.6043
29042SOL    HW298851   0.075   6.725   5.791  0.3169  0.3027 -0.4662
29043SOL     OW98852   7.647  10.351   4.045 -0.2045 -0.3886 -0.1502
29043SOL    HW198853   7.610  10.425   3.998  0.0659 -0.5953 -0.6940
29043SOL    HW298854   7.733  10.381   4.074 -0.8329  0.1530  1.2636
29044SOL     OW98855   2.639   1.785   9.938 -0.0927  0.0509 -0.2571
29044SOL    HW198856   2.672   1.768  10.026 -2.0693 -1.1717  0.3230
29044SOL    HW298857   2.717   1.806   9.887  1.1813  0.1811  1.6332
29045SOL     OW98858   9.158   2.550   3.488 -0.0175 -0.2393 -0.1642
29045SOL    HW198859   9.143   2.473   3.542  1.4001  0.2170  0.9663
29045SOL    HW298860   9.086   2.609   3.508 -0.6585 -0.9268 -0.4150
29046SOL     OW98861   7.635   2.932   6.922 -0.1564 -0.3983 -0.2787
29046SOL    HW198862   7.602   2.906   7.008 -1.8837 -2.3540 -1.4234
29046SOL    HW298863   7.727   2.907   6.923 -0.0793 -0.1034  1.0975
29047SOL     OW98864   9.739   2.977   1.819  0.2428 -0.2614 -0.7696
29047SOL    HW198865   9.814   2.997   1.764 -0.0672 -0.5470 -1.3099
29047SOL    HW298866   9.712   3.062   1.855  0.5917 -0.1038 -0.8789
29048SOL     OW98867   2.270   9.676   1.602 -0.7548  0.3767  0.1180
29048SOL    HW198868   2.210   9.731   1.553 -2.1313  0.7264  2.1008
29048SOL    HW298869   2.223   9.593   1.613  0.3090 -0.3687 -0.7366
29049SOL     OW98870   3.141   6.386   5.113 -0.2962 -0.2290 -0.0061
29049SOL    HW198871   3.057   6.349   5.140 -0.5662 -0.3338 -0.9576
29049SOL    HW298872   3.205   6.319   5.136 -0.6160 -0.6817 -0.4139
29050SOL     OW98873   2.802   5.574   6.389 -0.4562 -0.0774 -0.2577
29050SOL    HW198874   2.883   5.583   6.438 -0.6432  1.7180 -0.2208
29050SOL    HW298875   2.819   5.503   6.327  0.8898 -0.1838  0.2028
29051SOL     OW98876   0.310   8.237   6.670 -0.6300  0.0609 -0.4354
29051SOL    HW198877   0.252   8.222   6.745 -0.3792 -1.6825 -0.5664
29051SOL    HW298878   0.289   8.327   6.642 -2.1658  0.0232  0.4620
29052SOL     OW98879   5.117  10.652  10.393 -0.5342 -0.1283  0.7867
29052SOL    HW198880   5.129  10.722  10.457 -1.6686  1.3701 -0.5512
29052SOL    HW298881   5.114  10.572  10.446 -0.2757  0.9152  2.4815
29053SOL     OW98882   3.896   6.177   1.944  0.3065 -0.1545 -0.4603
29053SOL    HW198883   3.857   6.091   1.928 -0.1618  0.0270 -0.3182
29053SOL    HW298884   3.900   6.184   2.040 -1.4659  0.7647 -0.4101
29054SOL     OW98885  10.313   1.919  11.913  0.1562  0.3272  0.8290
29054SOL    HW198886  10.222   1.903  11.888 -0.6198 -0.5283  3.7499
29054SOL    HW298887  10.365   1.881  11.843 -1.7197  0.0616 -0.4972
29055SOL     OW98888   8.753   6.285   1.602  0.0958  0.0259  0.1571
29055SOL    HW198889   8.719   6.232   1.529 -1.0522 -0.0074  0.6854
29055SOL    HW298890   8.836   6.244   1.625  0.3896 -0.0727 -1.0047
29056SOL     OW98891   3.730   2.187   8.903 -0.2588 -0.1702 -0.4610
29056SOL    HW198892   3.801   2.240   8.938  0.1463 -0.8260 -0.2824
29056SOL    HW298893   3.659   2.198   8.966 -0.1029 -0.0193 -0.3088
29057SOL     OW98894   4.975   3.930   8.541  0.0694 -0.1782  0.3573
29057SOL    HW198895   4.945   3.966   8.457  1.0690  0.3011  0.1861
29057SOL    HW298896   5.008   3.843   8.519  1.5275  0.4400 -0.0047
29058SOL     OW98897   7.424   4.137   7.360  0.5127 -0.0942  0.2673
29058SOL    HW198898   7.457   4.209   7.308 -0.8055 -0.7581 -1.6006
29058SOL    HW298899   7.334   4.162   7.381  0.4359 -0.6577  0.6374
29059SOL     OW98900   1.654   7.804   6.839  0.3948 -0.4695  0.1438
29059SOL    HW198901   1.708   7.791   6.761 -0.2147 -0.7614 -0.2354
29059SOL    HW298902   1.618   7.717   6.858 -0.3948 -0.1718  0.0453
29060SOL     OW98903   7.121   8.090   3.243  0.2158  0.4657  0.5023
29060SOL    HW198904   7.149   8.025   3.307 -0.4557  1.0222  1.3838
29060SOL    HW298905   7.202   8.136   3.219  0.4870  0.1768  0.8582
29061SOL     OW98906   4.457   6.618   0.309  0.6066 -0.0439 -0.4725
29061SOL    HW198907   4.397   6.666   0.252 -0.4822  0.0377  0.6908
29061SOL    HW298908   4.400   6.560   0.359  1.4689  0.2744  0.9200
29062SOL     OW98909   6.605   6.806   6.283  0.3084 -0.3820  0.3488
29062SOL    HW198910   6.532   6.867   6.277  0.0129 -0.7819 -0.1652
29062SOL    HW298911   6.611   6.766   6.196 -0.4553 -2.1830  1.0784
29063SOL     OW98912   1.853  10.391   7.213  0.1695 -0.5905 -0.0179
29063SOL    HW198913   1.783  10.449   7.184  0.7522  0.4127  0.5282
29063SOL    HW298914   1.916  10.391   7.141  1.0102  0.8999  0.6508
29064SOL     OW98915  10.576   6.700   5.411 -0.5253 -0.3337  0.0290
29064SOL    HW198916  10.552   6.648   5.488 -0.9452 -0.4640 -0.1891
29064SOL    HW298917  10.499   6.754   5.393 -0.0396  0.4711  0.3359
29065SOL     OW98918   7.409  11.616   1.115  0.4832  0.2852 -0.0190
29065SOL    HW198919   7.491  11.642   1.073  0.1052 -0.4012 -1.2286
29065SOL    HW298920   7.437  11.569   1.194  1.2431  0.4987 -0.1482
29066SOL     OW98921   9.998   7.178   0.259  0.0974 -0.2270  0.3202
29066SOL    HW198922   9.998   7.239   0.333  1.4721  0.5262 -0.2784
29066SOL    HW298923  10.044   7.101   0.292  2.1758  0.7349 -0.2066
29067SOL     OW98924   1.651  10.669   4.217  0.2788  0.1990 -0.4118
29067SOL    HW198925   1.613  10.756   4.215  1.4352  0.7043 -1.1558
29067SOL    HW298926   1.587  10.616   4.264 -0.6668  1.3296 -0.3928
29068SOL     OW98927   5.772   5.092   4.209 -0.2839  0.3208 -0.0269
29068SOL    HW198928   5.755   5.178   4.247 -0.2904  0.1976  0.2477
29068SOL    HW298929   5.706   5.083   4.140 -0.8803  0.1511  0.5547
29069SOL     OW98930   0.469   4.992   6.153 -0.7851 -0.2161  0.0550
29069SOL    HW198931   0.483   4.901   6.178 -0.6609 -0.4019 -0.6665
29069SOL    HW298932   0.406   4.988   6.081  0.2623  0.1520 -0.9187
29070SOL     OW98933  11.285   0.368   9.546  0.0447  0.2040  0.1111
29070SOL    HW198934  11.370   0.358   9.589  0.1402 -1.0037 -0.3269
29070SOL    HW298935  11.305   0.373   9.453 -0.3868 -0.6107 -0.0388
29071SOL     OW98936   8.572   0.081  10.271  0.2049  0.1191  0.4370
29071SOL    HW198937   8.525   0.128  10.202  2.4191  0.2712 -1.0662
29071SOL    HW298938   8.546  -0.010  10.261  0.1983  0.2015 -0.3702
29072SOL     OW98939   4.215   4.844   0.206 -0.3811  0.2446  0.3910
29072SOL    HW198940   4.214   4.932   0.244 -2.0113 -0.3630  1.9252
29072SOL    HW298941   4.158   4.793   0.264  0.6481 -1.8693 -0.3633
29073SOL     OW98942   3.330   2.770   4.577  0.2579 -0.3146 -0.2734
29073SOL    HW198943   3.381   2.851   4.570  0.7060 -0.7065 -2.2465
29073SOL    HW298944   3.393   2.700   4.560 -0.5348 -0.9314 -0.7564
29074SOL     OW98945   9.751   3.901   6.204 -0.1639 -0.0701 -0.3363
29074SOL    HW198946   9.716   3.960   6.270  0.2973 -0.1571 -0.0104
29074SOL    HW298947   9.810   3.843   6.252 -0.2560 -0.4968 -0.7278
29075SOL     OW98948   2.277   5.786   0.453 -0.2578 -0.6622  0.1153
29075SOL    HW198949   2.217   5.853   0.420 -0.5597 -1.1821 -0.4162
29075SOL    HW298950   2.363   5.827   0.447 -0.4588 -0.2491 -0.0119
29076SOL     OW98951   8.356   3.647   6.681 -0.0590 -0.1231  0.8096
29076SOL    HW198952   8.337   3.566   6.728  1.3528 -0.9047  0.0951
29076SOL    HW298953   8.441   3.675   6.715 -0.5187  1.0748  1.0318
29077SOL     OW98954   7.756   0.869   7.758 -0.4425 -0.3002 -0.0844
29077SOL    HW198955   7.807   0.850   7.837 -1.4461  0.0254  0.6552
29077SOL    HW298956   7.711   0.787   7.738  0.6880 -0.7214 -0.9994
29078SOL     OW98957  11.587   9.634   5.249  0.2909  0.1464 -0.3763
29078SOL    HW198958  11.597   9.678   5.334  1.1240 -0.1557 -0.3071
29078SOL    HW298959  11.492   9.628   5.237  0.0984 -1.3547  1.3716
29079SOL     OW98960   6.410   4.143   6.482  0.0990 -0.5684  0.7672
29079SOL    HW198961   6.408   4.048   6.471  1.3454 -0.4977 -0.3223
29079SOL    HW298962   6.386   4.177   6.395  1.1370  0.0934  0.7290
29080SOL     OW98963   6.587   5.941   0.630  0.0794  0.0419 -0.0173
29080SOL    HW198964   6.614   6.022   0.675  1.4764 -1.7555  2.7126
29080SOL    HW298965   6.669   5.892   0.618 -1.0029 -2.2580  1.2961
29081SOL     OW98966   8.134   7.706  10.087  0.1241 -0.2073  0.0335
29081SOL    HW198967   8.174   7.774  10.141 -0.0059 -1.5086  1.8605
29081SOL    HW298968   8.171   7.720  10.000  1.7940  0.8331  0.8546
29082SOL     OW98969   3.813   7.040   7.499  0.0591  0.1984  0.2556
29082SOL    HW198970   3.848   6.981   7.431 -2.2377  0.1952 -1.0691
29082SOL    HW298971   3.830   6.995   7.581  1.4095 -0.6556 -0.4611
29083SOL     OW98972   7.437   9.462  10.884 -0.2620  0.2728 -0.0912
29083SOL    HW198973   7.476   9.547  10.902 -1.2056  0.4507  1.3096
29083SOL    HW298974   7.350   9.482  10.848 -0.2091 -0.1069 -0.4428
29084SOL     OW98975  11.344   1.681   4.337  0.4934  0.0348  0.4775
29084SOL    HW198976  11.348   1.587   4.318  0.2401 -0.1605  1.3220
29084SOL    HW298977  11.399   1.692   4.415 -0.1363  0.4411  0.8735
29085SOL     OW98978   0.852  11.468   4.096 -0.4277  0.5091  0.0309
29085SOL    HW198979   0.925  11.460   4.156 -0.4356 -0.0659 -0.0315
29085SOL    HW298980   0.844  11.563   4.080  1.0512  0.5040 -0.8968
29086SOL     OW98981   2.919   6.968   5.707  0.9091  0.0734 -0.3677
29086SOL    HW198982   2.878   7.054   5.697 -1.3255 -0.7760  0.7203
29086SOL    HW298983   2.983   6.980   5.777  1.4339  1.0815 -0.9912
29087SOL     OW98984   6.779   6.247   1.810  0.0534  0.1842  0.4262
29087SOL    HW198985   6.714   6.313   1.783 -0.6170  0.2100  2.0109
29087SOL    HW298986   6.815   6.281   1.892  0.1008 -1.1437  0.9803
29088SOL     OW98987   7.448   4.096   6.783 -0.8393  0.1561  0.2544
29088SOL    HW198988   7.430   4.052   6.700  0.6192 -0.1828  0.0880
29088SOL    HW298989   7.426   4.032   6.850 -1.6735  0.3037  0.1373
29089SOL     OW98990  11.206   0.818   8.969  0.6529 -0.4318  0.0178
29089SOL    HW198991  11.204   0.745   8.906 -0.3735 -0.9340  0.6100
29089SOL    HW298992  11.284   0.802   9.022  1.0919 -0.4382 -0.6199
29090SOL     OW98993   3.375   6.531   0.866  0.3530 -0.4149 -0.4740
29090SOL    HW198994   3.378   6.437   0.885  0.7018 -0.2051  0.6017
29090SOL    HW298995   3.311   6.565   0.929 -0.0712  0.0170 -1.1259
29091SOL     OW98996   0.494   2.605   3.966 -0.0264 -0.0242 -0.2274
29091SOL    HW198997   0.421   2.556   4.003  0.7223 -1.0506 -0.0558
29091SOL    HW298998   0.454   2.663   3.901 -0.9849 -0.5811 -0.1532
29092SOL     OW98999   0.098   3.866   6.780 -0.7601  0.3610 -0.1821
29092SOL    HW199000   0.028   3.850   6.718 -1.3979  0.1119  0.5852
29092SOL    HW299001   0.096   3.961   6.795 -1.4474  0.2658  0.4090
29093SOL     OW99002   4.715   4.672   6.006  0.1928  0.1583  0.2179
29093SOL    HW199003   4.628   4.634   6.018  0.5926 -0.4667  1.2925
29093SOL    HW299004   4.747   4.688   6.095  2.7511 -3.2748  0.1166
29094SOL     OW99005  11.946   1.873   5.895  0.3386 -0.3118 -0.7060
29094SOL    HW199006  11.917   1.959   5.923 -1.3089 -0.6247 -1.3229
29094SOL    HW299007  11.990   1.836   5.972 -2.2605 -0.3725  0.8726
29095SOL     OW99008   4.715  10.473   5.564  0.1160 -0.1062 -0.1523
29095SOL    HW199009   4.784  10.480   5.498 -0.4412 -0.9393 -0.8558
29095SOL    HW299010   4.761  10.473   5.648  0.7657  2.1779 -0.4347
29096SOL     OW99011  10.925   2.721   3.867  0.0081  0.1009 -0.4967
29096SOL    HW199012  11.013   2.714   3.905 -0.2490  0.0366  0.1095
29096SOL    HW299013  10.901   2.813   3.878 -0.8477 -0.2919  1.3391
29097SOL     OW99014   3.977   8.649   4.331 -0.3311 -0.1991 -0.1805
29097SOL    HW199015   3.904   8.624   4.388 -0.5196 -0.9882 -0.7564
29097SOL    HW299016   3.989   8.574   4.273 -0.5414  0.8213 -1.5974
29098SOL     OW99017   6.810   4.905   6.922  0.2533 -0.4513  0.0503
29098SOL    HW199018   6.736   4.960   6.946 -1.3322 -1.6792 -1.7115
29098SOL    HW299019   6.872   4.914   6.995 -0.7574  2.1034  0.6844
29099SOL     OW99020   9.287   6.785   5.320 -0.3224 -0.1897  0.4388
29099SOL    HW199021   9.259   6.765   5.231 -0.4670  2.2613 -0.1548
29099SOL    HW299022   9.375   6.823   5.308 -0.2467 -0.0637  1.3705
29100SOL     OW99023   3.636   1.867  11.860 -0.0450  0.2960 -0.0381
29100SOL    HW199024   3.633   1.772  11.849  0.9395  0.4344 -1.9603
29100SOL    HW299025   3.584   1.884  11.939 -0.5531 -1.7834  0.1321
29101SOL     OW99026   3.294   0.547   2.760  0.2537  0.4308 -0.3060
29101SOL    HW199027   3.308   0.474   2.821 -0.2676  1.5901  1.2391
29101SOL    HW299028   3.228   0.514   2.699  0.5837 -0.6595 -0.1054
29102SOL     OW99029   2.607   1.323   0.221 -0.0692 -0.1689 -0.7489
29102SOL    HW199030   2.534   1.261   0.215 -0.3313  0.0112  0.2873
29102SOL    HW299031   2.628   1.345   0.130 -0.5101 -1.1447 -1.0996
29103SOL     OW99032   5.537   3.410   4.305  0.1406  0.2272  0.3085
29103SOL    HW199033   5.586   3.453   4.375  1.0334  1.3277 -0.9404
29103SOL    HW299034   5.480   3.479   4.270 -0.5152 -0.3905  0.1368
29104SOL     OW99035   7.130   8.457   6.909  1.1295 -0.3418  0.7637
29104SOL    HW199036   7.088   8.372   6.922  2.4374 -0.9342  1.2667
29104SOL    HW299037   7.142   8.491   6.997 -0.4486  0.9411  0.5363
29105SOL     OW99038   5.920   2.851   4.479  0.1796  0.0567 -0.0599
29105SOL    HW199039   5.948   2.902   4.555 -1.7421 -0.9723  1.4281
29105SOL    HW299040   5.961   2.766   4.491  0.7077  0.1868 -0.7912
29106SOL     OW99041   1.476  10.374  10.145  0.0054 -0.0229 -0.3351
29106SOL    HW199042   1.386  10.404  10.128  0.6007  1.6082 -0.7490
29106SOL    HW299043   1.464  10.290  10.190 -1.7792  1.1927  1.6520
29107SOL     OW99044   1.686   2.520  11.766 -0.0483  0.6023 -0.7604
29107SOL    HW199045   1.721   2.488  11.684  0.0873  0.0448 -0.4866
29107SOL    HW299046   1.708   2.452  11.830 -0.7014  0.7377 -0.3849
29108SOL     OW99047   3.021   9.158   4.254  0.3090 -0.3992  0.4999
29108SOL    HW199048   2.951   9.223   4.266  0.3507 -0.2546  0.0095
29108SOL    HW299049   3.086   9.204   4.200 -0.3057 -1.2955 -1.0881
29109SOL     OW99050   3.953   2.648   1.808 -0.0716 -0.6939 -0.4859
29109SOL    HW199051   3.881   2.586   1.797 -1.1112 -0.0249  1.8744
29109SOL    HW299052   4.006   2.611   1.879  1.0920 -0.4203 -1.1853
29110SOL     OW99053   8.063   8.026  10.815  0.0941 -0.8669 -0.2325
29110SOL    HW199054   8.134   7.964  10.829  0.8639  0.4259  2.1115
29110SOL    HW299055   8.105   8.112  10.826 -1.3415  0.0293 -1.3842
29111SOL     OW99056   7.246   1.054  11.032  0.1238  1.1016  0.0997
29111SOL    HW199057   7.299   1.134  11.030  0.2881  1.0706 -3.4112
29111SOL    HW299058   7.159   1.084  11.061  0.3754  2.4440 -0.4406
29112SOL     OW99059   3.887   0.563   5.277  0.2830 -0.1689  0.7017
29112SOL    HW199060   3.853   0.504   5.344 -1.6531 -1.3489 -1.2034
29112SOL    HW299061   3.886   0.511   5.197 -0.2005  2.0489 -0.8078
29113SOL     OW99062   4.858   7.879   8.634  0.1875  0.7035  0.5188
29113SOL    HW199063   4.936   7.893   8.687  1.3064 -0.3085 -0.7745
29113SOL    HW299064   4.869   7.791   8.598 -0.7763  1.1355 -0.9378
29114SOL     OW99065   0.661   2.450  11.004 -0.2918 -0.0169 -0.0731
29114SOL    HW199066   0.590   2.481  10.948 -1.6648 -3.1060 -0.2418
29114SOL    HW299067   0.735   2.440  10.945 -0.9558 -0.7177 -0.8164
29115SOL     OW99068   2.648   7.685  10.890 -0.1057  0.6360  1.2992
29115SOL    HW199069   2.730   7.663  10.933  1.3298  2.7554 -0.1771
29115SOL    HW299070   2.613   7.759  10.941 -0.8925  0.0467  1.6387
29116SOL     OW99071   5.846   1.743  10.481 -0.0308 -0.1323 -0.1683
29116SOL    HW199072   5.887   1.744  10.567  1.4688  3.9439 -0.6911
29116SOL    HW299073   5.909   1.699  10.425  0.9659  0.8624  0.1307
29117SOL     OW99074   5.469   7.889   8.216  0.4572 -0.1765  0.2209
29117SOL    HW199075   5.463   7.984   8.207  1.5857 -0.2604 -1.8245
29117SOL    HW299076   5.548   7.864   8.169 -1.1403 -2.3860 -1.5317
29118SOL     OW99077   1.334   3.768   9.808 -0.4788 -0.6489 -0.2730
29118SOL    HW199078   1.310   3.768   9.901  0.0359 -1.7152 -0.1299
29118SOL    HW299079   1.309   3.855   9.777 -1.8623 -0.7248  0.5507
29119SOL     OW99080   0.950  11.562   9.780  0.0304  0.0034  0.1974
29119SOL    HW199081   0.930  11.636   9.838 -1.0543 -0.0245 -0.1224
29119SOL    HW299082   1.042  11.574   9.757 -0.4284  1.9698 -0.8512
29120SOL     OW99083   2.160   6.241  10.077 -0.5581 -0.0125 -0.4457
29120SOL    HW199084   2.137   6.277  10.162  2.2794 -0.6303  0.6831
29120SOL    HW299085   2.163   6.317  10.019 -1.6623  0.5231  0.1683
29121SOL     OW99086   2.565   7.898  11.018 -0.3110 -0.1373 -0.4381
29121SOL    HW199087   2.630   7.951  10.972  0.3828  0.4852  1.1789
29121SOL    HW299088   2.481   7.938  10.995  0.0740  0.5780 -0.6335
29122SOL     OW99089  11.642  10.760   8.703  0.3126 -0.0031  0.3290
29122SOL    HW199090  11.585  10.707   8.648  1.4284  0.5030 -1.3802
29122SOL    HW299091  11.723  10.710   8.711  0.6336  0.5143  0.4053
29123SOL     OW99092   4.351   6.592  10.966 -0.6165 -0.3603 -0.0959
29123SOL    HW199093   4.416   6.523  10.962  0.0798  0.3064 -0.5322
29123SOL    HW299094   4.374   6.643  11.043 -0.9134 -0.3978  0.0209
29124SOL     OW99095  10.229  10.741   3.257 -0.0756 -0.2020  0.3241
29124SOL    HW199096  10.183  10.682   3.318 -0.5718  2.2297  2.4717
29124SOL    HW299097  10.188  10.826   3.271  0.4664  0.6942 -2.8200
29125SOL     OW99098   0.192  11.272   6.347 -0.2398  0.0506  0.2926
29125SOL    HW199099   0.243  11.287   6.426  0.7230  0.9623 -0.4645
29125SOL    HW299100   0.252  11.226   6.288 -0.6148  0.2381 -0.2470
29126SOL     OW99101   6.890   9.256   7.490 -0.1846 -0.4389 -0.6251
29126SOL    HW199102   6.933   9.218   7.414  2.0812 -0.6159  0.6577
29126SOL    HW299103   6.923   9.206   7.564 -0.1835  1.4596  0.7391
29127SOL     OW99104   8.318   9.667   1.243  0.2041  0.2701  0.2718
29127SOL    HW199105   8.381   9.737   1.262  1.0093 -0.2284 -0.4348
29127SOL    HW299106   8.253   9.707   1.186  1.6300  0.0471 -1.5938
29128SOL     OW99107  11.419   9.294  10.369 -0.1007 -0.2791 -0.2223
29128SOL    HW199108  11.400   9.326  10.457  2.8894  0.1680  0.3587
29128SOL    HW299109  11.350   9.229  10.351 -3.2808  2.6037  0.6477
29129SOL     OW99110   8.931   0.529   3.235  0.2197  0.8777  0.3811
29129SOL    HW199111   8.857   0.581   3.266 -1.4260 -0.5473 -0.9885
29129SOL    HW299112   8.966   0.579   3.161  1.1934  1.9349  1.4954
29130SOL     OW99113  10.905   9.370  10.778 -0.4133  0.5106  0.1873
29130SOL    HW199114  10.952   9.453  10.768 -1.2842  1.1304  1.0535
29130SOL    HW299115  10.813   9.394  10.767 -0.6899 -0.2980  0.6859
29131SOL     OW99116   5.988   7.335   1.178  0.2283 -0.4993  0.0370
29131SOL    HW199117   5.905   7.292   1.196 -0.1826  0.1546 -0.2483
29131SOL    HW299118   5.968   7.397   1.108  0.5898  0.8005  1.0507
29132SOL     OW99119   1.219   1.410   5.556 -0.7138 -0.3318 -0.8544
29132SOL    HW199120   1.260   1.495   5.568 -1.0332  0.1339 -2.7224
29132SOL    HW299121   1.164   1.398   5.634  2.4614 -0.7568  1.4874
29133SOL     OW99122   9.479   4.508   4.357  0.1000  0.2037 -0.4902
29133SOL    HW199123   9.549   4.537   4.416  0.4476  0.7756 -1.1799
29133SOL    HW299124   9.430   4.588   4.338 -0.1232 -0.0160 -0.8359
29134SOL     OW99125   6.666   0.152   0.597 -1.2105  0.1754 -0.5125
29134SOL    HW199126   6.658   0.089   0.525 -1.3882  1.7038 -1.8809
29134SOL    HW299127   6.741   0.122   0.647 -1.8296 -1.6309 -0.5893
29135SOL     OW99128   7.650   5.238   6.448 -0.6083  0.5462 -0.6017
29135SOL    HW199129   7.713   5.236   6.376 -1.6229 -0.0092 -1.4908
29135SOL    HW299130   7.676   5.164   6.504 -0.5845  0.1910 -1.0725
29136SOL     OW99131  10.877   9.051  10.599  0.5325 -0.3769  0.0295
29136SOL    HW199132  10.792   9.071  10.560  0.0037 -2.1725  0.1566
29136SOL    HW299133  10.940   9.100  10.546 -0.6641  2.4769  1.0733
29137SOL     OW99134   8.538   5.696   2.689  0.8094 -0.1743  0.6853
29137SOL    HW199135   8.464   5.727   2.636 -0.4984 -2.8822  0.7686
29137SOL    HW299136   8.613   5.744   2.654 -0.1907 -0.8458 -2.8358
29138SOL     OW99137   4.867   1.644   3.513 -0.4852 -0.0732  0.0338
29138SOL    HW199138   4.871   1.657   3.608 -0.1906  1.5293 -0.1643
29138SOL    HW299139   4.958   1.631   3.487 -0.6065 -0.9480  0.0001
29139SOL     OW99140  10.956   5.785  11.328 -0.2768  0.5390  0.0921
29139SOL    HW199141  10.867   5.752  11.321 -0.2887  0.6826 -0.4388
29139SOL    HW299142  10.965   5.846  11.255  0.7649 -0.6522 -0.8055
29140SOL     OW99143   6.815   7.563   9.690 -0.0090 -0.1674 -0.2717
29140SOL    HW199144   6.775   7.610   9.763 -0.6958  0.2621 -0.9104
29140SOL    HW299145   6.900   7.604   9.678  0.6449 -1.0812  1.0967
29141SOL     OW99146   4.690   6.133   5.274  0.0235  0.3555  0.0895
29141SOL    HW199147   4.672   6.204   5.336  2.1013  0.9299  0.1227
29141SOL    HW299148   4.672   6.172   5.188 -3.0128 -0.4906  0.2407
29142SOL     OW99149  10.869   4.327  10.794  0.4871  0.2134 -0.3310
29142SOL    HW199150  10.844   4.413  10.759  0.4454  0.1560 -0.4407
29142SOL    HW299151  10.834   4.264  10.731  0.4088  0.1100 -0.1857
29143SOL     OW99152   4.918   1.735   0.510 -0.4264  0.5426 -0.0648
29143SOL    HW199153   4.950   1.811   0.559  1.2244 -1.1942  1.7382
29143SOL    HW299154   4.832   1.716   0.549 -1.1468  1.8039 -0.9692
29144SOL     OW99155  11.527   7.831  11.389  0.2225 -0.7284  0.0745
29144SOL    HW199156  11.621   7.818  11.399  0.5313  1.5986  0.8615
29144SOL    HW299157  11.519   7.891  11.315 -0.6803 -1.1431 -0.1783
29145SOL     OW99158   0.459   7.789   8.397 -0.0003 -0.0285  0.2031
29145SOL    HW199159   0.387   7.804   8.459  0.5138  0.4377  0.6967
29145SOL    HW299160   0.521   7.735   8.445 -0.3123 -0.9975 -0.4525
29146SOL     OW99161   7.110   8.704   3.599  0.6297 -0.3194  0.0269
29146SOL    HW199162   7.081   8.620   3.564 -2.8601 -1.2923  4.3168
29146SOL    HW299163   7.066   8.770   3.545 -0.4519 -1.4666 -0.5319
29147SOL     OW99164   6.971   4.696  11.078 -0.4944 -0.3663  0.5192
29147SOL    HW199165   7.041   4.660  11.024  1.1041 -0.2498  2.3899
29147SOL    HW299166   6.974   4.644  11.158 -1.2849  0.8716  1.3842
29148SOL     OW99167   7.792   2.912   7.883 -0.6365  0.5044  0.0949
29148SOL    HW199168   7.886   2.897   7.876 -0.7651  0.5549 -2.6863
29148SOL    HW299169   7.784   2.984   7.946  1.0203 -0.6627  1.7305
29149SOL     OW99170   1.179   0.056   1.182  0.4495 -0.2540 -0.0340
29149SOL    HW199171   1.118   0.077   1.252  0.4393  0.2140 -0.1791
29149SOL    HW299172   1.123   0.029   1.109  0.3695  0.7867 -0.3768
29150SOL     OW99173   2.010   5.528   9.102  0.1018 -0.0784  0.4969
29150SOL    HW199174   2.080   5.533   9.037 -1.0220 -2.0926 -0.9879
29150SOL    HW299175   2.039   5.460   9.164 -0.7374 -1.3607 -0.4672
29151SOL     OW99176   1.371  11.833  10.771 -0.3116 -0.0954 -0.2684
29151SOL    HW199177   1.421  11.904  10.813  0.6245 -0.0751 -1.3422
29151SOL    HW299178   1.359  11.864  10.681 -0.0364 -1.2142 -0.7066
29152SOL     OW99179   7.185   0.145   7.788  0.5149 -0.5863  0.1628
29152SOL    HW199180   7.171   0.069   7.731 -1.4147 -1.3695  1.5564
29152SOL    HW299181   7.126   0.130   7.863  1.8124  1.1415  1.6229
29153SOL     OW99182   7.428   7.530   6.342 -0.0001 -0.2131 -0.1534
29153SOL    HW199183   7.366   7.510   6.273  1.1222 -2.0490 -0.7207
29153SOL    HW299184   7.422   7.625   6.354 -1.8129 -0.1548 -1.1888
29154SOL     OW99185   0.476   9.227   5.892 -0.1086 -0.4739 -0.0980
29154SOL    HW199186   0.553   9.283   5.884 -0.3273  0.0651  1.3602
29154SOL    HW299187   0.492   9.173   5.969 -0.9445 -0.7562 -0.1026
29155SOL     OW99188   5.730   7.924   3.888  0.4039  0.1151  0.2440
29155SOL    HW199189   5.780   7.872   3.951  0.1064 -0.1730  0.2463
29155SOL    HW299190   5.655   7.869   3.866 -0.4348  0.9079  0.9832
29156SOL     OW99191   6.065   5.429   1.260 -0.3232 -0.2165 -0.3064
29156SOL    HW199192   5.984   5.383   1.281 -0.7339  1.5886  2.6378
29156SOL    HW299193   6.037   5.503   1.206 -0.4045 -0.5126 -0.6694
29157SOL     OW99194   2.850  10.621   8.132 -0.1804 -0.2414 -0.3007
29157SOL    HW199195   2.942  10.644   8.149 -0.3572  0.7211 -0.5687
29157SOL    HW299196   2.854  10.548   8.071  0.4275 -1.7189  1.3926
29158SOL     OW99197  10.602   4.600   0.396  0.2993 -0.1515  0.1134
29158SOL    HW199198  10.523   4.546   0.388  0.4561 -0.3186 -0.3762
29158SOL    HW299199  10.665   4.560   0.335  0.8514 -0.1790  0.6890
29159SOL     OW99200   8.728   0.220   0.512  0.2355  0.1815 -0.0922
29159SOL    HW199201   8.644   0.177   0.499  0.2838 -0.7389  2.1941
29159SOL    HW299202   8.779   0.158   0.565  1.3508  1.8536  0.8886
29160SOL     OW99203   7.202   3.275   2.355  0.3243 -0.0216 -0.2486
29160SOL    HW199204   7.265   3.260   2.426 -0.0483  0.9163  0.2921
29160SOL    HW299205   7.159   3.357   2.378  0.0909  0.2207 -1.4973
29161SOL     OW99206   1.865   3.526   8.371  0.0392 -0.4705 -0.3860
29161SOL    HW199207   1.908   3.530   8.286  0.5214 -1.7948 -0.2261
29161SOL    HW299208   1.903   3.449   8.414 -0.8436 -0.3452  0.6696
29162SOL     OW99209   8.680   0.587   4.930  0.0946  0.5776  0.2948
29162SOL    HW199210   8.610   0.650   4.914 -0.5544  0.0039  0.8563
29162SOL    HW299211   8.720   0.615   5.012 -0.5958 -0.0957  0.8675
29163SOL     OW99212   8.577   3.482  11.879  0.3987 -0.0903 -0.6632
29163SOL    HW199213   8.658   3.532  11.887 -0.1837  0.9006 -0.8609
29163SOL    HW299214   8.592   3.405  11.934  0.6954  1.0864  0.9744
29164SOL     OW99215   2.936   3.654   6.632  0.1290 -0.2892 -0.6990
29164SOL    HW199216   2.989   3.695   6.700  0.0661  0.7249 -1.2447
29164SOL    HW299217   2.927   3.563   6.660 -0.7046  0.3213  1.1464
29165SOL     OW99218   4.013   9.866  10.139  0.2550  0.1785  0.5412
29165SOL    HW199219   3.969   9.818  10.069 -0.1043  0.2210  0.7332
29165SOL    HW299220   4.057   9.939  10.095 -0.6070  0.6568  0.4420
29166SOL     OW99221   9.225   6.678   5.727  0.0606  0.5664  0.0130
29166SOL    HW199222   9.216   6.719   5.813  0.4233  2.1637 -0.6576
29166SOL    HW299223   9.136   6.659   5.699 -0.0345 -0.3028  0.8864
29167SOL     OW99224   9.972  10.438   3.993 -0.0113 -0.3207  0.3745
29167SOL    HW199225  10.043  10.470   4.049  0.6862 -1.0615 -0.0501
29167SOL    HW299226   9.911  10.395   4.053  0.6024 -0.8780  0.6136
29168SOL     OW99227   6.066   0.632   5.820 -0.5949  0.3360  0.2289
29168SOL    HW199228   5.977   0.652   5.849 -0.9756  1.2497 -1.4875
29168SOL    HW299229   6.112   0.608   5.901 -2.3293  0.0036  1.1722
29169SOL     OW99230   0.905   8.256   4.131  0.2291  0.9210  0.0819
29169SOL    HW199231   0.966   8.254   4.204  2.1374  1.0237 -1.4073
29169SOL    HW299232   0.901   8.349   4.106 -1.1135  1.0175  0.5872
29170SOL     OW99233   8.883   6.419  11.439 -0.0541 -0.5669 -0.5420
29170SOL    HW199234   8.965   6.410  11.390  0.7621  0.2931  0.5951
29170SOL    HW299235   8.882   6.343  11.497  0.5151 -0.0116  0.2177
29171SOL     OW99236   5.552   4.566   7.279 -0.5222  0.1659  0.3544
29171SOL    HW199237   5.548   4.656   7.311 -0.9922  0.4361 -0.4418
29171SOL    HW299238   5.644   4.541   7.289 -0.7225  0.0954  2.2732
29172SOL     OW99239  10.403   1.266   4.714 -0.0771  0.3160 -0.0523
29172SOL    HW199240  10.318   1.256   4.758 -0.8726 -0.4129 -1.6652
29172SOL    HW299241  10.462   1.208   4.761 -1.1376 -1.1603 -0.4795
29173SOL     OW99242   6.593   9.436   9.508 -0.1052  0.1986  0.2457
29173SOL    HW199243   6.680   9.475   9.509 -1.0279  2.5427 -1.4118
29173SOL    HW299244   6.599   9.363   9.569  2.4666  1.4170  1.6255
29174SOL     OW99245   9.186   6.384   3.092  0.2777 -0.2514 -0.2303
29174SOL    HW199246   9.141   6.451   3.143  0.1876 -2.1230  2.3115
29174SOL    HW299247   9.149   6.394   3.004 -2.5327  0.6115  0.9074
29175SOL     OW99248  10.270   0.539   7.638  0.0323  0.1496  0.4421
29175SOL    HW199249  10.349   0.558   7.688  1.6577 -3.2670 -0.5226
29175SOL    HW299250  10.289   0.571   7.550 -0.0742  0.1695  0.4254
29176SOL     OW99251   6.009   7.599   3.132  0.5311  0.1946 -0.5148
29176SOL    HW199252   6.039   7.620   3.221  0.6681 -0.0410 -0.5075
29176SOL    HW299253   6.089   7.586   3.081  0.4524 -1.2316 -0.3106
29177SOL     OW99254   7.842   8.693   8.083  0.2328  0.0236  1.0230
29177SOL    HW199255   7.771   8.758   8.074  0.5593  0.4919  1.7549
29177SOL    HW299256   7.902   8.713   8.012 -0.2074 -0.1720  0.5904
29178SOL     OW99257  11.260   0.936  11.892 -0.5862 -0.8010  0.1076
29178SOL    HW199258  11.346   0.909  11.860 -0.3000  0.5230 -0.3018
29178SOL    HW299259  11.235   1.007  11.834 -0.6469  0.7740  1.9863
29179SOL     OW99260   0.712   5.555   6.567  0.4547 -0.0760  0.5472
29179SOL    HW199261   0.705   5.563   6.662 -2.5592  0.9958  0.3668
29179SOL    HW299262   0.624   5.578   6.535  1.1357 -1.1818 -2.4532
29180SOL     OW99263   6.130   5.469   0.869  0.2464 -0.1287 -0.2972
29180SOL    HW199264   6.191   5.492   0.800  2.0998  1.1767  1.6361
29180SOL    HW299265   6.185   5.438   0.941 -1.5274 -0.8697  0.8144
29181SOL     OW99266   4.660   3.155   6.122 -0.5318 -0.3281 -0.2049
29181SOL    HW199267   4.573   3.126   6.149 -0.0591  0.6699  2.7229
29181SOL    HW299268   4.655   3.158   6.026 -3.5462 -0.7721 -0.1730
29182SOL     OW99269   4.532   6.796   9.555 -0.0662  0.0697  0.3050
29182SOL    HW199270   4.626   6.800   9.573 -0.1772  0.5526  0.7954
29182SOL    HW299271   4.492   6.789   9.641 -0.4618 -0.7208  0.0694
29183SOL     OW99272  10.340   3.335  11.914  0.1517 -0.5587  0.3182
29183SOL    HW199273  10.384   3.332  11.829  1.5028  0.2810  0.9653
29183SOL    HW299274  10.247   3.344  11.892  0.5681  0.7438 -1.0887
29184SOL     OW99275   7.944  10.087   7.939  0.5163  0.2477 -0.2604
29184SOL    HW199276   7.923   9.995   7.953  1.3029  0.0692 -0.2261
29184SOL    HW299277   7.859  10.130   7.928  0.1416 -0.4534 -0.1150
29185SOL     OW99278   5.928  11.073   0.723 -0.0339  0.2242 -0.1207
29185SOL    HW199279   5.836  11.051   0.712  0.4444 -1.7881 -0.4251
29185SOL    HW299280   5.936  11.097   0.815 -0.6715 -0.5885  0.1529
29186SOL     OW99281   6.570   4.534   7.267 -0.1045  0.0741 -0.0249
29186SOL    HW199282   6.527   4.451   7.245  1.0512 -0.6212  0.2823
29186SOL    HW299283   6.589   4.574   7.182 -0.5842 -0.0057 -0.1756
29187SOL     OW99284   6.780  11.898   0.084 -0.3223 -0.0053 -0.4462
29187SOL    HW199285   6.859  11.952   0.073 -0.5570  1.1101  2.5011
29187SOL    HW299286   6.813  11.813   0.115 -0.1878 -0.3745 -1.5425
29188SOL     OW99287   3.802   5.934   0.894  0.2720 -0.3245  0.2165
29188SOL    HW199288   3.834   5.970   0.977 -0.9584 -0.0820  0.6027
29188SOL    HW299289   3.817   5.839   0.902  0.8821 -0.2244  0.3729
29189SOL     OW99290   1.616   6.689   7.126  0.2076 -0.3335  0.5738
29189SOL    HW199291   1.578   6.609   7.163 -0.0680 -0.8068 -0.6576
29189SOL    HW299292   1.610   6.754   7.196 -0.2380 -1.1941  1.3540
29190SOL     OW99293   7.516   6.491   4.559 -0.0183  0.0444 -0.5629
29190SOL    HW199294   7.582   6.477   4.627  2.0592  2.4653 -1.8749
29190SOL    HW299295   7.557   6.456   4.480 -1.1740 -0.2049 -1.0591
29191SOL     OW99296   7.594   1.049   9.778 -0.1823 -0.2067  0.0563
29191SOL    HW199297   7.524   1.073   9.839  0.8951  0.5402  1.0470
29191SOL    HW299298   7.655   0.998   9.831  0.1668 -0.6172 -0.7241
29192SOL     OW99299  11.935   5.048   8.797  0.4300  0.4745  0.3747
29192SOL    HW199300  11.899   5.107   8.863 -0.1411 -0.3872  0.8554
29192SOL    HW299301  11.859   5.020   8.745  0.4922 -0.7283  0.8918
29193SOL     OW99302   3.083   9.552  10.751 -0.1054 -0.2665  0.0057
29193SOL    HW199303   3.061   9.475  10.802 -0.2618 -0.1233  0.1566
29193SOL    HW299304   3.178   9.546  10.737 -0.5801 -2.5540 -3.3375
29194SOL     OW99305   7.566   7.229  11.534  0.3426  0.2773 -0.2615
29194SOL    HW199306   7.622   7.263  11.604  2.3862 -2.6804 -0.2323
29194SOL    HW299307   7.628   7.198  11.468 -1.4186 -0.2550 -1.7207
29195SOL     OW99308   1.605   9.801   4.788  0.3157  0.4107  0.1114
29195SOL    HW199309   1.633   9.890   4.767  0.3653  0.4037  0.1500
29195SOL    HW299310   1.633   9.787   4.878  0.7473  0.1769 -0.0575
29196SOL     OW99311   2.807   6.561   6.160 -0.2059 -0.0886  0.0073
29196SOL    HW199312   2.726   6.605   6.135  0.2136 -0.3624 -1.9934
29196SOL    HW299313   2.779   6.482   6.206 -1.0226  0.4167  0.3936
29197SOL     OW99314  11.605   7.738   6.128  0.2447 -0.3356 -0.5722
29197SOL    HW199315  11.658   7.744   6.049  0.5131  1.4827 -0.3100
29197SOL    HW299316  11.664   7.767   6.198 -1.0621  1.8349 -0.2821
29198SOL     OW99317  10.686   8.465   8.820 -0.1841  0.8977 -0.3151
29198SOL    HW199318  10.763   8.507   8.857  1.1536 -2.4422  1.1632
29198SOL    HW299319  10.702   8.464   8.726  0.6409  1.9214 -0.2032
29199SOL     OW99320   4.726   8.079   9.391 -0.3340  0.5879 -0.1751
29199SOL    HW199321   4.796   8.141   9.413 -0.9216  0.3771  2.6644
29199SOL    HW299322   4.656   8.133   9.356 -0.9374  1.6968  2.4917
29200SOL     OW99323   4.805   0.056   9.907 -0.2789  0.3596  0.1367
29200SOL    HW199324   4.814   0.060   9.812 -0.2167 -0.3660  0.1085
29200SOL    HW299325   4.746   0.128   9.928 -0.5389  0.3385 -0.4848
29201SOL     OW99326   2.121   0.821   5.282  0.2461  0.3087  0.3633
29201SOL    HW199327   2.153   0.909   5.301 -2.2173  1.3464  0.1768
29201SOL    HW299328   2.079   0.793   5.364 -1.3101  0.4783 -0.3294
29202SOL     OW99329   7.871   9.417  10.502 -0.3805  0.0739  0.6817
29202SOL    HW199330   7.911   9.384  10.422 -0.1546  0.1972  0.7424
29202SOL    HW299331   7.943   9.457  10.550 -0.2599 -1.0699  1.5035
29203SOL     OW99332   8.470   9.489   1.957  0.2716 -0.7609 -0.1856
29203SOL    HW199333   8.417   9.556   2.000 -0.4259 -1.5004  0.1346
29203SOL    HW299334   8.451   9.500   1.864  0.3064 -0.3977 -0.1519
29204SOL     OW99335   2.900   5.596   9.503 -0.1581 -0.2363  0.5537
29204SOL    HW199336   2.995   5.606   9.494 -0.2158  0.0025  0.1972
29204SOL    HW299337   2.889   5.559   9.591  0.2565 -0.1109  0.6661
29205SOL     OW99338  11.727   3.054  10.909  0.2339  0.3343 -0.5676
29205SOL    HW199339  11.768   2.988  10.964  1.1755  0.9208 -0.5528
29205SOL    HW299340  11.697   3.121  10.970 -2.9439 -1.1422 -0.2972
29206SOL     OW99341   8.788   4.935   3.780 -0.4519  0.0186  0.5763
29206SOL    HW199342   8.728   4.868   3.812  0.9284 -0.3920  2.4839
29206SOL    HW299343   8.802   4.993   3.855  1.5487  0.0493  0.2262
29207SOL     OW99344  11.657   3.955  11.706  0.2987  0.2243  0.3545
29207SOL    HW199345  11.578   3.946  11.759 -0.9284  0.6382 -1.3101
29207SOL    HW299346  11.631   4.012  11.634  1.9143 -0.2290 -0.6388
29208SOL     OW99347   4.768  11.334  10.228 -0.1735 -0.0608  0.0064
29208SOL    HW199348   4.842  11.292  10.183  1.1721  0.1754  1.9056
29208SOL    HW299349   4.696  11.272  10.218  1.5954 -2.6651  2.2293
29209SOL     OW99350   6.829   0.581   0.485 -0.5874  0.0185 -0.1929
29209SOL    HW199351   6.878   0.528   0.423  0.4554  0.9518 -0.2058
29209SOL    HW299352   6.745   0.537   0.493 -1.2347  0.5185 -3.1864
29210SOL     OW99353   8.863   8.254   4.872  0.2344  0.4425  0.6926
29210SOL    HW199354   8.890   8.191   4.939  2.7310  0.3292 -0.3019
29210SOL    HW299355   8.908   8.335   4.896 -0.0526  0.8234 -0.0263
29211SOL     OW99356   9.070  10.890   9.766  0.4774 -0.0926 -0.8176
29211SOL    HW199357   9.050  10.797   9.751 -0.3272 -0.2204  0.8013
29211SOL    HW299358   9.007  10.917   9.833  0.3899  1.7692 -1.5922
29212SOL     OW99359   9.140   2.136   7.835 -0.2536  0.9541  0.1903
29212SOL    HW199360   9.053   2.174   7.821 -0.4318  0.5030  0.0890
29212SOL    HW299361   9.154   2.078   7.761 -0.0345  0.7099  0.4223
29213SOL     OW99362   2.136  10.777   5.310 -0.2572 -0.5291 -0.5458
29213SOL    HW199363   2.198  10.848   5.331  1.5319 -1.8304 -1.2184
29213SOL    HW299364   2.156  10.709   5.374 -1.0215 -0.9814 -0.7820
29214SOL     OW99365   4.142  11.735   9.924  0.0568 -0.1808  0.0200
29214SOL    HW199366   4.089  11.754   9.847  2.5531 -0.4454 -1.9062
29214SOL    HW299367   4.178  11.648   9.908  1.5808  0.2422  0.8806
29215SOL     OW99368   1.688   0.076   9.295 -0.3775  0.6985 -0.1505
29215SOL    HW199369   1.722   0.125   9.219 -0.1578  2.4822  1.0462
29215SOL    HW299370   1.757   0.085   9.361 -0.3828 -1.2024  0.1579
29216SOL     OW99371   4.759   0.218   5.762  0.3274  0.3644  0.0197
29216SOL    HW199372   4.722   0.238   5.676  0.4624  0.8590  0.0764
29216SOL    HW299373   4.852   0.238   5.754  1.0242 -2.6736 -0.7051
29217SOL     OW99374   0.844   9.523   1.738  0.1487 -0.0282 -0.1374
29217SOL    HW199375   0.755   9.530   1.772  0.8084  0.3450  1.6297
29217SOL    HW299376   0.866   9.430   1.744 -0.0704 -0.0978 -0.4316
29218SOL     OW99377   3.334   4.186   1.821 -0.2674 -0.0441 -0.0141
29218SOL    HW199378   3.416   4.234   1.808 -0.1510 -0.1467  0.3222
29218SOL    HW299379   3.303   4.215   1.907 -1.4887  1.3000 -0.8690
29219SOL     OW99380   3.628   1.231   0.781 -0.1316 -0.2993 -0.2273
29219SOL    HW199381   3.632   1.255   0.688 -0.5146 -0.4483 -0.2873
29219SOL    HW299382   3.691   1.288   0.824 -0.8572  0.6465 -0.3980
29220SOL     OW99383   8.534   7.313   4.066 -0.2633 -0.0149 -0.8483
29220SOL    HW199384   8.529   7.294   3.972 -2.2116 -0.4498 -0.6957
29220SOL    HW299385   8.576   7.235   4.103 -0.4337 -0.2954 -1.2303
29221SOL     OW99386   3.069   2.573   8.314  0.2529 -0.0122  0.0192
29221SOL    HW199387   3.004   2.572   8.243  1.0888 -0.4443 -0.7516
29221SOL    HW299388   3.020   2.544   8.391 -0.7171  0.6407 -0.3181
29222SOL     OW99389   5.013   2.346   1.861  0.1385 -0.3415 -0.9395
29222SOL    HW199390   4.929   2.302   1.846  0.2796 -0.7987 -0.4467
29222SOL    HW299391   5.078   2.276   1.858  0.2840 -0.3255  0.6514
29223SOL     OW99392   4.839   2.908  11.112  0.3259 -0.2695  0.2440
29223SOL    HW199393   4.759   2.859  11.131  0.1748  0.1942  0.8385
29223SOL    HW299394   4.827   2.941  11.023  1.0662 -2.5220 -0.7628
29224SOL     OW99395   4.626   1.316  10.247  0.3571  0.5346 -0.0700
29224SOL    HW199396   4.719   1.309  10.268  0.6396  0.1628 -1.3692
29224SOL    HW299397   4.616   1.271  10.163 -0.8564  1.2664 -0.3546
29225SOL     OW99398  11.803  11.574   4.036  0.2806 -0.0854  0.4777
29225SOL    HW199399  11.820  11.498   4.091 -0.7273  0.0716  1.0258
29225SOL    HW299400  11.889  11.599   4.002  0.7230 -0.9903  0.9148
29226SOL     OW99401   1.467   2.587   0.002  0.1260  0.0072  0.0444
29226SOL    HW199402   1.456   2.600   0.097  0.1861 -0.2880  0.0918
29226SOL    HW299403   1.409   2.514  -0.019 -1.1695  1.1426 -0.4488
29227SOL     OW99404  11.424  11.326   4.832  0.4238 -0.0146  0.5068
29227SOL    HW199405  11.383  11.285   4.908  1.6994  0.6157  1.5869
29227SOL    HW299406  11.503  11.368   4.867  1.0359  0.3263 -1.1658
29228SOL     OW99407   2.732   4.564  11.366  0.0889 -0.5352  0.7697
29228SOL    HW199408   2.794   4.634  11.343  0.1772 -0.1628  2.0850
29228SOL    HW299409   2.788   4.490  11.389 -0.0031 -1.0058 -0.4432
29229SOL     OW99410   9.896   3.022   1.314  0.2640 -0.2176 -0.4025
29229SOL    HW199411   9.864   2.995   1.228 -0.8598 -1.3794  0.3450
29229SOL    HW299412   9.990   3.004   1.312  0.0454 -1.3350 -0.9801
29230SOL     OW99413   4.981   1.175   6.740 -0.1987  0.3480 -0.1140
29230SOL    HW199414   4.983   1.244   6.674 -1.5626  0.9034  0.3789
29230SOL    HW299415   4.945   1.218   6.818 -1.9635 -1.1125 -0.0549
29231SOL     OW99416  10.624   1.320  10.024 -0.2797 -0.3169  0.1207
29231SOL    HW199417  10.572   1.373   9.963 -0.0128 -1.5631 -1.2460
29231SOL    HW299418  10.662   1.383  10.085  0.0054  1.0592 -1.4237
29232SOL     OW99419   5.731   6.604   5.977  0.0384 -0.1577  0.3944
29232SOL    HW199420   5.673   6.660   5.925  0.2505  0.2533  0.5884
29232SOL    HW299421   5.817   6.647   5.970  0.2337 -0.5462  0.4242
29233SOL     OW99422   5.969   7.173   0.774 -0.0216  0.0105 -0.6644
29233SOL    HW199423   5.998   7.252   0.729 -1.1022  0.8870  0.1192
29233SOL    HW299424   5.910   7.205   0.842  1.2201 -1.2943  1.1127
29234SOL     OW99425   3.865   4.064   1.767 -0.3440  0.1954 -0.3438
29234SOL    HW199426   3.928   4.127   1.800  0.0180  0.2028 -1.0262
29234SOL    HW299427   3.894   3.980   1.802 -0.6518  0.3624  0.3182
29235SOL     OW99428   1.477   9.457   2.139  0.5742 -0.4460  0.1218
29235SOL    HW199429   1.480   9.439   2.233  0.5440  0.9046  0.3947
29235SOL    HW299430   1.411   9.396   2.106 -0.5307  0.1012  1.2386
29236SOL     OW99431   1.034  11.011  10.920  0.3627 -0.1547 -0.0513
29236SOL    HW199432   1.034  11.000  10.825 -1.2309  0.2035 -0.1198
29236SOL    HW299433   0.997  11.098  10.934 -0.1884 -0.5293  0.9195
29237SOL     OW99434   9.838   7.168  11.341  1.0794  0.5625 -0.0335
29237SOL    HW199435   9.830   7.198  11.431  1.4911  0.6067 -0.0098
29237SOL    HW299436   9.927   7.134  11.335  0.5671 -0.8731  0.0030
29238SOL     OW99437  11.410   0.053  11.194  0.4676  0.7340  0.1584
29238SOL    HW199438  11.403   0.085  11.283  0.4786 -1.5782  1.0499
29238SOL    HW299439  11.431  -0.040  11.203 -1.0633  0.0572 -2.2195
29239SOL     OW99440   6.175   5.966  11.768 -0.0858  0.4606  0.1864
29239SOL    HW199441   6.088   6.002  11.785  0.0260  0.7023  0.2452
29239SOL    HW299442   6.160   5.872  11.756 -0.4645  0.6064 -0.5689
29240SOL     OW99443   5.126   3.103   8.640 -0.1802  0.0366 -0.2515
29240SOL    HW199444   5.054   3.074   8.584 -0.9127 -0.4242  0.8990
29240SOL    HW299445   5.198   3.043   8.619 -0.8973 -1.0416  0.3197
29241SOL     OW99446  11.753  10.291   9.923 -0.1574 -0.0634 -0.0940
29241SOL    HW199447  11.684  10.277   9.859 -1.9902 -1.0936  2.0077
29241SOL    HW299448  11.794  10.205   9.935  2.4749  0.7480 -2.2354
29242SOL     OW99449   5.577   7.633   1.789 -0.3393  0.2505 -0.1344
29242SOL    HW199450   5.595   7.540   1.798 -3.0471 -0.4467 -0.9810
29242SOL    HW299451   5.551   7.662   1.876  1.3037  0.4804  0.3209
29243SOL     OW99452   7.479  10.578   2.177 -0.2731  0.8264 -0.5004
29243SOL    HW199453   7.414  10.648   2.170 -2.8608 -1.4320 -0.8953
29243SOL    HW299454   7.434  10.501   2.142  2.2937 -1.1208  0.2285
29244SOL     OW99455  10.448   0.735   0.418 -0.7775  0.1525  0.0202
29244SOL    HW199456  10.526   0.680   0.419 -1.0448 -0.2757 -1.1193
29244SOL    HW299457  10.460   0.793   0.343 -1.7639 -0.2520 -0.4701
29245SOL     OW99458   0.386   1.951   0.396 -0.3615 -0.2624 -0.4153
29245SOL    HW199459   0.318   1.970   0.331  0.2140  2.1938 -0.3961
29245SOL    HW299460   0.354   1.992   0.477  0.8354  0.4226 -0.2570
29246SOL     OW99461   3.856  10.466   5.248 -0.6878  0.3015 -0.3597
29246SOL    HW199462   3.912  10.482   5.324 -1.3559 -0.1903  0.2499
29246SOL    HW299463   3.876  10.538   5.189  1.5325 -0.5430 -0.7418
29247SOL     OW99464   3.101   1.914   5.576  0.4823  0.2457 -0.3971
29247SOL    HW199465   3.064   1.861   5.647  1.0588 -0.6848 -0.7805
29247SOL    HW299466   3.193   1.891   5.574  0.3797 -0.1364 -1.7799
29248SOL     OW99467   4.616   3.459   1.778 -0.6608  0.4772  0.3581
29248SOL    HW199468   4.546   3.505   1.825 -2.2682 -1.1859 -0.2612
29248SOL    HW299469   4.687   3.522   1.771 -1.2915  1.5617  2.8720
29249SOL     OW99470   3.577   8.875   6.885  0.0307 -0.2998  0.0952
29249SOL    HW199471   3.535   8.959   6.864 -1.4636 -1.1558 -0.4514
29249SOL    HW299472   3.660   8.878   6.836  1.7263  2.2631  2.7834
29250SOL     OW99473   4.415   6.218   1.107 -0.6091 -0.2807  0.3351
29250SOL    HW199474   4.472   6.144   1.084 -2.4642 -1.8377  0.4799
29250SOL    HW299475   4.452   6.252   1.189  0.9721 -0.2555 -0.3563
29251SOL     OW99476   9.465   4.242  10.760 -0.6727 -0.3021  0.1320
29251SOL    HW199477   9.416   4.210  10.836  0.9209 -0.1587  1.2639
29251SOL    HW299478   9.554   4.256  10.792 -0.1103  0.4360 -1.5996
29252SOL     OW99479   0.770  11.140   5.658 -0.3849 -0.2951  0.0290
29252SOL    HW199480   0.738  11.225   5.689  0.5163  1.1321 -2.6748
29252SOL    HW299481   0.836  11.162   5.592 -2.1203 -3.0329 -2.8909
29253SOL     OW99482   4.280   9.137   9.578 -0.2787  0.4614 -0.2068
29253SOL    HW199483   4.224   9.144   9.500  0.3816 -1.1253 -0.8739
29253SOL    HW299484   4.320   9.050   9.571  0.0634  0.4154  1.7494
29254SOL     OW99485   3.314   9.975   0.932  0.4868 -0.2629  0.2173
29254SOL    HW199486   3.380   9.926   0.981 -0.0339 -1.1554  0.0590
29254SOL    HW299487   3.233   9.925   0.945 -0.3833  1.3328  1.2170
29255SOL     OW99488   8.712   8.622   6.628  1.0326 -1.0867  0.3224
29255SOL    HW199489   8.747   8.585   6.709 -0.6579 -1.4264  0.9335
29255SOL    HW299490   8.622   8.647   6.650 -0.4706 -3.7203 -2.1154
29256SOL     OW99491   6.643  11.033   4.241  0.0552  0.3678 -0.0030
29256SOL    HW199492   6.666  11.055   4.151  1.5640  0.9482  0.4966
29256SOL    HW299493   6.573  11.094   4.264  1.3949  1.9559  0.0228
29257SOL     OW99494   8.410   6.940   3.312 -0.0286 -0.4788 -0.4527
29257SOL    HW199495   8.430   6.949   3.219 -1.8106 -0.4720 -0.8702
29257SOL    HW299496   8.356   7.017   3.332  0.4184 -0.4295  0.6259
29258SOL     OW99497   9.133   7.600  10.116 -0.8242 -0.1004  0.1808
29258SOL    HW199498   9.120   7.663  10.045 -2.0550  1.8907  2.0646
29258SOL    HW299499   9.219   7.623  10.152 -1.2050  0.4310  0.7683
29259SOL     OW99500   3.079   6.353   7.118  0.0862 -0.1759 -0.2379
29259SOL    HW199501   3.012   6.372   7.051 -0.2922 -3.4219 -0.9191
29259SOL    HW299502   3.159   6.340   7.068  0.3701 -0.1376  0.2054
29260SOL     OW99503   3.602   8.711   3.293 -0.0954 -0.3139  0.8585
29260SOL    HW199504   3.671   8.713   3.359 -0.3910 -1.5453  1.2334
29260SOL    HW299505   3.584   8.618   3.280  0.8546 -0.2013 -1.9272
29261SOL     OW99506   7.829   9.254   9.784  0.4129 -0.4968 -0.4416
29261SOL    HW199507   7.924   9.251   9.772  0.5818  1.1287  0.2581
29261SOL    HW299508   7.817   9.241   9.878 -0.0352 -0.2949 -0.4720
29262SOL     OW99509   1.664   5.083   4.000  0.1404  0.3281 -0.6144
29262SOL    HW199510   1.655   5.164   4.051  1.6083  0.3048 -0.2772
29262SOL    HW299511   1.753   5.054   4.017 -0.8015 -2.1839  0.4600
29263SOL     OW99512   9.839   0.918   6.522 -0.0350 -0.4414 -0.0983
29263SOL    HW199513   9.846   1.011   6.501  3.5854 -0.8412 -1.2563
29263SOL    HW299514   9.813   0.877   6.440  0.0301 -0.6169 -0.0306
29264SOL     OW99515   6.566   3.899   1.117  0.1526 -0.0308  0.2282
29264SOL    HW199516   6.550   3.941   1.201 -2.5313  0.5496 -0.4851
29264SOL    HW299517   6.551   3.968   1.052  0.8292 -0.8087 -0.7973
29265SOL     OW99518   3.597   4.504   0.037 -0.6848 -0.2147  0.4346
29265SOL    HW199519   3.608   4.588  -0.007 -0.4799  0.1420  1.1576
29265SOL    HW299520   3.658   4.507   0.111  1.5867 -2.1873 -1.2050
29266SOL     OW99521   7.694   4.197   4.047 -0.0699  0.2151  0.2412
29266SOL    HW199522   7.745   4.231   3.973  1.6615 -1.4983  0.5650
29266SOL    HW299523   7.608   4.177   4.010  0.4434  0.3353 -1.0803
29267SOL     OW99524   0.671  10.854   8.028  0.3871  0.4583 -0.2700
29267SOL    HW199525   0.653  10.760   8.036  0.8368  0.3383 -0.6112
29267SOL    HW299526   0.585  10.895   8.028 -0.0842 -0.2336 -3.9630
29268SOL     OW99527   8.643   4.871  11.582  0.0636 -0.1262  0.1031
29268SOL    HW199528   8.571   4.830  11.629  0.6485 -0.7680  0.4530
29268SOL    HW299529   8.716   4.870  11.644  0.1744  1.1971  0.0250
29269SOL     OW99530   4.556   9.797   9.271  0.1156 -0.4046  0.5566
29269SOL    HW199531   4.629   9.856   9.256  0.7436 -1.3606 -0.2591
29269SOL    HW299532   4.583   9.714   9.231 -0.5780 -1.3724  2.0007
29270SOL     OW99533   4.939   8.165  11.483  0.4423 -0.1445 -0.2769
29270SOL    HW199534   4.983   8.079  11.479 -0.4550 -0.5865 -0.9515
29270SOL    HW299535   4.920   8.186  11.391  2.3277  1.6943 -0.3343
29271SOL     OW99536   7.525   9.471   8.972 -0.0577  0.0406 -0.3375
29271SOL    HW199537   7.551   9.537   9.036 -1.2306  0.7492 -0.5695
29271SOL    HW299538   7.444   9.435   9.006  0.8955 -1.7817  0.1215
29272SOL     OW99539   2.956   3.141   0.350 -0.9622 -0.0428 -0.5948
29272SOL    HW199540   2.979   3.145   0.257 -0.7894  1.3726 -0.5153
29272SOL    HW299541   3.041   3.138   0.395 -0.8725  2.9047 -0.3869
29273SOL     OW99542   8.416   7.533   9.851 -0.2683 -0.2183 -0.8984
29273SOL    HW199543   8.457   7.517   9.936  0.2907  3.2845 -0.3551
29273SOL    HW299544   8.417   7.448   9.808  1.0492 -1.7655  1.8799
29274SOL     OW99545   7.738   5.780   1.534  0.2722 -0.2019  0.1998
29274SOL    HW199546   7.680   5.786   1.458 -0.7306  2.0394  1.0449
29274SOL    HW299547   7.680   5.798   1.608  1.2631 -2.1306  1.5168
29275SOL     OW99548   8.770  10.686   8.877  0.4132  0.2477 -0.1884
29275SOL    HW199549   8.768  10.595   8.907 -0.7937  0.9360  2.0048
29275SOL    HW299550   8.850  10.722   8.914  0.8827  0.1181 -1.0454
29276SOL     OW99551   5.970   1.197   2.010 -0.4887  0.0045  0.6779
29276SOL    HW199552   5.911   1.137   1.964 -1.4026  0.7532  0.8234
29276SOL    HW299553   5.961   1.174   2.102  0.7660 -0.9951  0.5784
29277SOL     OW99554   1.762   6.056   8.067  0.1321 -0.0378 -0.8498
29277SOL    HW199555   1.757   5.982   8.007  1.3148  0.0394 -1.0655
29277SOL    HW299556   1.732   6.021   8.151  1.3453 -0.9731 -0.7762
29278SOL     OW99557   4.720  11.401   8.949  0.0335  0.1783  0.9872
29278SOL    HW199558   4.653  11.358   8.896  0.2832  1.4860 -0.4253
29278SOL    HW299559   4.672  11.433   9.026 -0.5780 -0.6011  0.9407
29279SOL     OW99560   9.526   2.875  11.476 -0.3683 -0.2363 -0.2455
29279SOL    HW199561   9.477   2.897  11.556  0.8924 -0.8603  0.7239
29279SOL    HW299562   9.516   2.953  11.421 -1.4349  0.1306  0.4264
29280SOL     OW99563   0.683  11.778   8.470 -0.0947  0.0804 -0.3435
29280SOL    HW199564   0.603  11.724   8.476  0.1083 -0.2623 -0.6656
29280SOL    HW299565   0.730  11.760   8.552  0.3117 -0.7862 -0.7554
29281SOL     OW99566  10.709   7.100   6.029 -0.1268  0.4561  0.1458
29281SOL    HW199567  10.661   7.159   6.087 -0.1671  0.5827 -0.0185
29281SOL    HW299568  10.753   7.039   6.089  0.0497  0.7515  0.3208
29282SOL     OW99569   4.270   9.979   3.864 -0.3070 -0.3929  0.2182
29282SOL    HW199570   4.306   9.994   3.777  1.0923 -2.0973  0.4599
29282SOL    HW299571   4.183  10.020   3.861  0.0852  0.4018 -1.6498
29283SOL     OW99572   6.244   0.183   1.896 -0.4189 -0.0862  0.5300
29283SOL    HW199573   6.163   0.136   1.917 -1.0379  0.9299  0.4807
29283SOL    HW299574   6.299   0.172   1.973 -1.2239  0.5042  1.2026
29284SOL     OW99575   8.311   1.762   5.148 -0.0385 -0.0531 -0.2461
29284SOL    HW199576   8.357   1.680   5.164  0.7011  0.4877  0.4770
29284SOL    HW299577   8.324   1.779   5.055 -0.1785 -0.7485 -0.3919
29285SOL     OW99578   1.037   1.485   9.509 -0.0699  0.2508  0.0679
29285SOL    HW199579   1.066   1.402   9.470  0.6419 -1.1032  3.1441
29285SOL    HW299580   1.117   1.531   9.530 -0.3729  0.3456  1.0457
29286SOL     OW99581   4.537   8.900   7.121  0.1516  0.0361 -0.6318
29286SOL    HW199582   4.617   8.950   7.139  0.1382  0.0343 -0.5687
29286SOL    HW299583   4.521   8.914   7.028 -0.5260  1.1541 -0.3659
29287SOL     OW99584   9.981   6.321   1.269  0.2537  0.4405  0.1960
29287SOL    HW199585  10.019   6.240   1.236  0.6906 -0.1544  2.0453
29287SOL    HW299586   9.903   6.293   1.318 -0.8217  1.3586 -0.9072
29288SOL     OW99587   7.751   3.670   5.359  0.4698 -0.0650 -0.4849
29288SOL    HW199588   7.839   3.638   5.336 -0.0690 -1.1639 -1.0759
29288SOL    HW299589   7.692   3.603   5.327 -0.5972  0.6089  0.0221
29289SOL     OW99590   1.012   7.894   7.172  0.7100  0.7204 -0.2963
29289SOL    HW199591   1.082   7.846   7.128 -0.0076 -0.8508  0.2137
29289SOL    HW299592   0.952   7.826   7.202 -0.8638  2.0131 -0.4202
29290SOL     OW99593   1.582   8.793  10.640  0.3063 -0.2699  0.2430
29290SOL    HW199594   1.626   8.787  10.555  0.1674  1.1836  0.0571
29290SOL    HW299595   1.492   8.766  10.621  0.6869 -1.6636  0.3020
29291SOL     OW99596   9.679   0.483  11.345  0.6658 -0.0353 -0.0846
29291SOL    HW199597   9.711   0.571  11.362 -1.3332  0.8831 -0.8503
29291SOL    HW299598   9.731   0.453  11.270 -0.0089  1.2937 -1.1116
29292SOL     OW99599   3.539   4.472   1.080  0.1917  0.1042  0.2358
29292SOL    HW199600   3.506   4.383   1.096  1.6940 -0.2139  1.8503
29292SOL    HW299601   3.466   4.529   1.103  0.0063 -0.6469  1.6044
29293SOL     OW99602   1.827   5.152   5.757  0.0388 -0.0936  0.4525
29293SOL    HW199603   1.891   5.082   5.745 -2.4667 -2.6123  0.6381
29293SOL    HW299604   1.814   5.188   5.669  1.9843  0.8148  0.4918
29294SOL     OW99605   2.960   2.668   0.494  0.5245 -0.0716  0.4516
29294SOL    HW199606   2.949   2.698   0.404  0.0073 -0.2676  0.4388
29294SOL    HW299607   2.951   2.572   0.488  1.3989 -0.1682  0.5881
29295SOL     OW99608   2.670   6.061   9.246  0.0182 -0.1636  0.1603
29295SOL    HW199609   2.728   6.077   9.171 -0.3438 -0.5024 -0.2009
29295SOL    HW299610   2.644   5.969   9.236  0.4266 -0.3859  1.0296
29296SOL     OW99611   8.730  10.757   9.880  0.4864 -0.0383  0.0646
29296SOL    HW199612   8.668  10.829   9.870 -0.3875 -0.9065 -0.9765
29296SOL    HW299613   8.769  10.746   9.793 -0.5331 -1.8004 -0.2215
29297SOL     OW99614   4.867   3.828   5.553  0.0339 -0.3189  0.0353
29297SOL    HW199615   4.882   3.922   5.540  0.7610 -0.4479 -0.1110
29297SOL    HW299616   4.876   3.815   5.647 -1.3072 -0.0432  0.2206
29298SOL     OW99617   8.850   8.021   0.689 -0.0139 -0.2511 -0.0464
29298SOL    HW199618   8.943   8.000   0.678  0.2256  0.3301  0.7458
29298SOL    HW299619   8.805   7.937   0.679  0.7626 -0.8576  1.2060
29299SOL     OW99620   3.225   0.594   5.407 -0.0474 -0.2855 -0.2947
29299SOL    HW199621   3.142   0.641   5.411  0.6017  0.8344  1.1193
29299SOL    HW299622   3.236   0.556   5.495  0.2606 -1.6575 -0.9007
29300SOL     OW99623   7.433   9.849   5.438 -0.2750  0.2434  0.0045
29300SOL    HW199624   7.389   9.932   5.454  2.1702  1.5254  0.5709
29300SOL    HW299625   7.447   9.811   5.525  1.8668  1.0977  0.0988
29301SOL     OW99626   1.880   7.195   9.870 -0.0159 -0.0138 -0.0691
29301SOL    HW199627   1.808   7.134   9.858 -0.4315  0.5690 -0.5651
29301SOL    HW299628   1.957   7.139   9.881 -0.7103 -0.6791  1.7741
29302SOL     OW99629   6.286   0.680   3.976  0.4044  0.1620  0.8977
29302SOL    HW199630   6.256   0.739   4.046  2.5013  0.4145  1.6389
29302SOL    HW299631   6.237   0.599   3.991 -0.5618  0.8348  1.4851
29303SOL     OW99632   5.773   4.700   0.669  0.2424  0.0508  0.1215
29303SOL    HW199633   5.813   4.771   0.619  0.2271  0.3918  0.5854
29303SOL    HW299634   5.784   4.725   0.760  1.1331 -1.0316  0.3300
29304SOL     OW99635   2.295   4.153  11.718 -0.0319 -0.1192 -0.0677
29304SOL    HW199636   2.310   4.157  11.812 -0.6892  0.8742  0.0089
29304SOL    HW299637   2.377   4.183  11.679  0.3314 -0.7801  0.1700
29305SOL     OW99638   6.015   7.813   2.797  0.3107 -0.4813 -1.2037
29305SOL    HW199639   6.071   7.822   2.874  0.5215 -0.8929 -1.3071
29305SOL    HW299640   6.043   7.884   2.739 -2.0326  1.9525  0.4002
29306SOL     OW99641   3.131   9.370   2.871 -0.1120  0.3562 -0.5668
29306SOL    HW199642   3.215   9.394   2.910 -0.2248 -0.9625  0.5742
29306SOL    HW299643   3.067   9.421   2.919 -0.1283 -0.1980  0.0100
29307SOL     OW99644  11.481   9.121   8.003  0.6681 -0.1035 -0.0976
29307SOL    HW199645  11.532   9.157   7.930 -1.5337  1.0675 -1.1815
29307SOL    HW299646  11.486   9.188   8.071  0.3905  0.1239 -0.2977
29308SOL     OW99647   9.808  10.682   0.339 -0.2401 -0.0154 -0.5679
29308SOL    HW199648   9.859  10.602   0.327 -0.2108 -0.2353  0.9125
29308SOL    HW299649   9.759  10.668   0.420 -1.0136  1.0642 -0.8254
29309SOL     OW99650   9.872   2.614   1.109  0.0228 -0.2021 -0.0034
29309SOL    HW199651   9.916   2.599   1.193  0.9651  0.9862 -0.2596
29309SOL    HW299652   9.900   2.541   1.054  1.2020  0.2002  0.0362
29310SOL     OW99653   2.596   5.774  11.148 -0.4241  0.3686 -0.4075
29310SOL    HW199654   2.659   5.797  11.080  1.1836 -1.4944  0.3556
29310SOL    HW299655   2.625   5.689  11.179 -4.9250 -2.0659 -1.9330
29311SOL     OW99656   1.802   7.695   6.646  0.2146  0.0934  0.6458
29311SOL    HW199657   1.885   7.655   6.620  0.8095  1.1381  0.8627
29311SOL    HW299658   1.745   7.621   6.665 -0.3675 -0.8718 -3.6462
29312SOL     OW99659   1.636   3.424   6.880  0.1766 -0.0055 -0.1163
29312SOL    HW199660   1.617   3.459   6.967  0.4951 -0.4132  0.1218
29312SOL    HW299661   1.713   3.368   6.893 -0.4296 -0.9424 -0.4436
29313SOL     OW99662   9.718   0.474   2.455 -0.0982  0.2663 -0.3820
29313SOL    HW199663   9.659   0.495   2.527  1.4422  0.2777  0.9308
29313SOL    HW299664   9.794   0.530   2.469  0.0036  0.7062 -2.3887
29314SOL     OW99665   4.128  10.903   6.387 -0.1597  0.4671  0.1033
29314SOL    HW199666   4.133  10.810   6.364 -0.0032  0.5704 -0.2812
29314SOL    HW299667   4.180  10.947   6.320  0.0465  0.8003  0.4776
29315SOL     OW99668  10.738   0.983   0.085  0.2644  0.5244  0.3741
29315SOL    HW199669  10.688   1.061   0.060  1.6684  0.9850 -1.2171
29315SOL    HW299670  10.747   0.933   0.004  1.6453  0.0669  0.7705
29316SOL     OW99671   9.888   6.447   8.775  0.0826 -0.8398 -0.4415
29316SOL    HW199672   9.867   6.393   8.852  0.0405 -1.1162 -0.6456
29316SOL    HW299673   9.976   6.479   8.792 -0.3454  0.0428  0.2616
29317SOL     OW99674   8.070   6.022   9.435 -0.5423  0.2913 -0.1166
29317SOL    HW199675   8.038   5.967   9.507 -2.0624  0.8667 -0.3117
29317SOL    HW299676   8.158   6.049   9.462  0.0086 -1.7006  0.2590
29318SOL     OW99677  11.541   0.877   5.018 -0.1520 -0.1983  0.1930
29318SOL    HW199678  11.632   0.865   4.992  0.2030 -0.5230  1.5080
29318SOL    HW299679  11.514   0.792   5.052 -1.1254 -0.2544 -0.6645
29319SOL     OW99680   3.358   1.600   7.317  1.0253  0.4572  0.0608
29319SOL    HW199681   3.311   1.560   7.390  2.3992  1.5403  1.6095
29319SOL    HW299682   3.293   1.607   7.247 -0.3845 -0.4572  1.2294
29320SOL     OW99683   5.346  10.101   1.383 -0.5044 -0.3150  0.7072
29320SOL    HW199684   5.430  10.064   1.355  0.2132  1.6588  0.0621
29320SOL    HW299685   5.288  10.091   1.308  0.3879  1.8564 -0.3529
29321SOL     OW99686   7.783   7.667   8.754  0.0126 -0.2528  0.4430
29321SOL    HW199687   7.773   7.616   8.674 -3.3213 -2.2772  1.9614
29321SOL    HW299688   7.718   7.737   8.747  2.6615  2.3542 -0.3720
29322SOL     OW99689   2.454   4.057   6.327 -0.1538  0.3654 -0.1778
29322SOL    HW199690   2.418   3.985   6.276 -2.6591  0.9479  0.6027
29322SOL    HW299691   2.549   4.041   6.329 -0.6061 -3.0389  0.1760
29323SOL     OW99692   7.213   2.409   0.945  0.0174 -0.2386 -0.0735
29323SOL    HW199693   7.172   2.341   0.999  0.1486 -1.6054 -1.6095
29323SOL    HW299694   7.146   2.476   0.936 -0.7364 -0.9516  0.0937
29324SOL     OW99695   8.517   4.428   5.869 -0.4754  0.6980  0.2975
29324SOL    HW199696   8.566   4.493   5.919 -1.0355 -0.0304  1.8508
29324SOL    HW299697   8.446   4.477   5.828  0.7675  1.5369 -0.9258
29325SOL     OW99698   4.804  10.437   9.020  0.0856 -0.6540 -0.2056
29325SOL    HW199699   4.861  10.487   9.078 -0.7431  0.3392 -0.2183
29325SOL    HW299700   4.770  10.501   8.958  1.7864 -1.8558 -2.5416
29326SOL     OW99701   0.342   2.602   2.543 -0.9757  0.1131 -0.3392
29326SOL    HW199702   0.276   2.540   2.574  0.1317 -1.2528 -0.6000
29326SOL    HW299703   0.299   2.651   2.473 -1.9745 -0.1309  0.0897
29327SOL     OW99704  10.350   0.451   4.062 -0.1109 -0.8559 -0.1980
29327SOL    HW199705  10.340   0.423   3.971 -1.4881 -0.2620 -0.2554
29327SOL    HW299706  10.260   0.458   4.095  0.3710 -1.1564  1.2398
29328SOL     OW99707   8.175  10.307   8.870  0.0855 -0.0336 -0.2089
29328SOL    HW199708   8.097  10.251   8.874 -0.3904  0.6449  0.2261
29328SOL    HW299709   8.182  10.331   8.777 -1.3229  1.3906  0.0147
29329SOL     OW99710   0.662   2.461   5.313 -0.1602  0.0473 -0.0234
29329SOL    HW199711   0.741   2.476   5.261 -1.0206  2.0401 -0.8601
29329SOL    HW299712   0.651   2.541   5.364 -1.1860 -0.5447  0.7302
29330SOL     OW99713   4.564   0.896   1.274 -0.4201 -0.3661  0.1701
29330SOL    HW199714   4.485   0.866   1.318 -1.2962  1.8955  0.2485
29330SOL    HW299715   4.554   0.991   1.268  0.4880 -0.3638 -3.3319
29331SOL     OW99716  10.760   0.064   6.958 -0.4668 -0.3270  0.0910
29331SOL    HW199717  10.766  -0.026   6.925 -0.7461 -0.8914  1.5157
29331SOL    HW299718  10.688   0.102   6.907 -0.1643 -0.8186 -0.7262
29332SOL     OW99719   3.878   0.016   5.209 -0.0010 -0.3688  0.2450
29332SOL    HW199720   3.803  -0.009   5.263  1.0077  0.5487  2.1693
29332SOL    HW299721   3.926   0.079   5.262  1.0207  0.6933 -1.8005
29333SOL     OW99722   5.203  10.277   8.813 -0.1017  0.6022  0.4786
29333SOL    HW199723   5.193  10.373   8.814 -0.8914  0.5371  1.9726
29333SOL    HW299724   5.122  10.244   8.853  0.2571 -0.6789  0.1856
29334SOL     OW99725   1.893   1.792   9.565 -0.1431 -0.1508 -0.0695
29334SOL    HW199726   1.827   1.831   9.623 -2.6894 -0.2927 -2.6522
29334SOL    HW299727   1.865   1.701   9.554  0.1693 -0.0942 -1.5795
29335SOL     OW99728  11.389  11.594  10.445  0.0595 -0.1987 -0.0931
29335SOL    HW199729  11.301  11.622  10.419 -1.3200 -1.4345  2.7575
29335SOL    HW299730  11.447  11.661  10.408 -2.1915  1.4200 -0.9520
29336SOL     OW99731   3.320   5.644   6.110  0.2805  0.5803 -0.7934
29336SOL    HW199732   3.304   5.734   6.138 -1.7031  0.7839 -2.3474
29336SOL    HW299733   3.384   5.652   6.039 -1.1785  0.9975 -2.1073
29337SOL     OW99734  10.739  10.972   7.379 -0.1075  0.5926  0.8274
29337SOL    HW199735  10.768  10.883   7.399 -0.7584  0.1419 -0.1451
29337SOL    HW299736  10.654  10.980   7.423 -1.5277 -0.3911 -1.5391
29338SOL     OW99737   2.667  10.884   2.731  0.2515 -0.3071  0.2592
29338SOL    HW199738   2.638  10.792   2.731  0.3269 -0.3640 -1.3328
29338SOL    HW299739   2.615  10.925   2.662 -1.2770  1.3964  2.2844
29339SOL     OW99740   2.740   5.210  11.244  0.2733 -0.7428  0.8478
29339SOL    HW199741   2.650   5.178  11.246  0.2370 -0.9785 -1.5921
29339SOL    HW299742   2.793   5.131  11.229  0.5917 -0.2778 -0.6079
29340SOL     OW99743   1.557   3.908   4.358  0.0985  0.0651  0.4392
29340SOL    HW199744   1.573   3.816   4.380 -3.4932 -0.7547  0.2497
29340SOL    HW299745   1.528   3.947   4.441  3.7574  1.7767  1.1006
29341SOL     OW99746   5.781   6.774   6.702  0.0351  0.1142  0.0489
29341SOL    HW199747   5.755   6.765   6.794  2.9046  0.3685  0.9706
29341SOL    HW299748   5.749   6.693   6.661 -0.6459 -0.3517  1.4121
29342SOL     OW99749   9.584   6.653   1.111  0.5071  0.3288  0.5194
29342SOL    HW199750   9.611   6.735   1.069 -0.4742  0.6064  0.3946
29342SOL    HW299751   9.531   6.609   1.045  2.2138 -1.1277  0.0472
29343SOL     OW99752   4.771   4.028   4.200 -0.0806  0.1478 -0.1625
29343SOL    HW199753   4.699   3.997   4.254 -0.3853  0.5021 -0.3556
29343SOL    HW299754   4.835   4.063   4.262 -0.5572  0.8258 -0.0325
29344SOL     OW99755   8.952  10.150   9.747 -0.1057 -0.1990 -0.8278
29344SOL    HW199756   9.032  10.111   9.782  0.0116 -0.0654 -0.9492
29344SOL    HW299757   8.911  10.194   9.822 -1.0155 -1.8246 -0.3116
29345SOL     OW99758   6.541   4.092  10.611 -0.4472  0.5897 -0.1975
29345SOL    HW199759   6.578   4.085  10.698 -2.4267  0.0937  0.6561
29345SOL    HW299760   6.617   4.103  10.553  1.2761 -3.2189  1.0578
29346SOL     OW99761   2.413   0.413   9.192  0.1603  0.2491 -0.4858
29346SOL    HW199762   2.439   0.502   9.214 -1.6500  1.0664 -1.4355
29346SOL    HW299763   2.400   0.371   9.277 -0.6203  1.4268  0.0126
29347SOL     OW99764   4.736   8.715   5.269 -0.1265 -0.2330 -0.0031
29347SOL    HW199765   4.808   8.771   5.240  0.2379  0.1416  1.5464
29347SOL    HW299766   4.772   8.664   5.341 -1.6294  0.6161  1.4221
29348SOL     OW99767   1.180   1.704  11.456 -0.3818 -0.9019 -0.3863
29348SOL    HW199768   1.257   1.697  11.513 -1.2782 -0.7554  0.8833
29348SOL    HW299769   1.212   1.678  11.370  0.6016 -2.8892  0.5156
29349SOL     OW99770   3.749  11.822   0.246  0.1845 -0.1071 -0.1092
29349SOL    HW199771   3.759  11.880   0.322  1.1984 -0.4377  0.0271
29349SOL    HW299772   3.776  11.876   0.172  3.9169 -1.1001  0.2922
29350SOL     OW99773   6.850   7.866   1.166  0.3205  0.2995  0.5074
29350SOL    HW199774   6.853   7.956   1.197  0.9306  0.1417  0.9351
29350SOL    HW299775   6.928   7.857   1.112 -0.2228  0.2882 -0.2843
29351SOL     OW99776   8.240   4.059  10.753  0.3935 -0.2286 -0.5005
29351SOL    HW199777   8.273   4.135  10.801  0.8372 -0.4280 -0.4929
29351SOL    HW299778   8.232   3.990  10.819 -1.7008  0.2992 -0.1290
29352SOL     OW99779   1.466   6.780   5.142 -0.0012  0.3920  0.3319
29352SOL    HW199780   1.393   6.838   5.120  2.1974  2.1589 -3.3251
29352SOL    HW299781   1.533   6.838   5.177 -0.4783 -1.3633  4.7969
29353SOL     OW99782   3.392   3.351   2.432  0.2714  0.4241  0.0301
29353SOL    HW199783   3.467   3.299   2.463 -0.3866 -0.7582 -0.2766
29353SOL    HW299784   3.361   3.396   2.510  1.0036  0.5476  0.2616
29354SOL     OW99785   3.730   0.419   1.839  0.2359  0.2317  0.1713
29354SOL    HW199786   3.778   0.389   1.762  1.2576  1.1962  0.4134
29354SOL    HW299787   3.701   0.339   1.883  2.5947 -0.4303  0.6216
29355SOL     OW99788   8.162   4.181  11.443 -0.5089 -0.2390  0.5335
29355SOL    HW199789   8.234   4.117  11.438 -1.1492 -0.9865  0.6242
29355SOL    HW299790   8.203   4.265  11.421  0.4623 -0.5946  0.9071
29356SOL     OW99791   5.449   6.606   7.592 -0.3645 -0.0420  0.6607
29356SOL    HW199792   5.540   6.582   7.574 -0.8873 -1.6787 -0.0634
29356SOL    HW299793   5.454   6.680   7.652  1.4551  1.2266 -0.9289
29357SOL     OW99794   1.769  10.169   9.057  0.5119 -0.2154 -0.5258
29357SOL    HW199795   1.861  10.160   9.082  1.4353  0.5484 -3.2887
29357SOL    HW299796   1.730  10.220   9.127  2.2717 -0.2480  0.5344
29358SOL     OW99797   9.639   4.450  10.451 -0.4890 -0.2697 -0.3292
29358SOL    HW199798   9.706   4.474  10.387 -0.3201  2.1418  0.6348
29358SOL    HW299799   9.668   4.366  10.487  1.4144  0.1603 -0.7625
29359SOL     OW99800   6.881   2.818  10.863  0.1004 -0.0475 -0.5715
29359SOL    HW199801   6.793   2.808  10.825 -0.3798  1.3604  0.0948
29359SOL    HW299802   6.920   2.889  10.814 -0.0882  1.0059  0.7482
29360SOL     OW99803   9.180   1.321  10.435  0.2039  0.0633  0.6272
29360SOL    HW199804   9.092   1.303  10.468  0.0617  1.0180  0.7829
29360SOL    HW299805   9.166   1.348  10.344  0.4344 -0.7937  0.3292
29361SOL     OW99806   3.387  10.625   2.641  0.1776  0.0788 -0.4106
29361SOL    HW199807   3.383  10.661   2.553 -0.2577  0.3152 -0.3004
29361SOL    HW299808   3.408  10.533   2.629  1.5316  0.4066 -0.6868
29362SOL     OW99809   6.532  10.005   0.880  0.5825 -0.2279 -0.1230
29362SOL    HW199810   6.529  10.076   0.945 -0.9040  0.2246 -0.6492
29362SOL    HW299811   6.583  10.042   0.808  0.9695 -0.1927  0.1656
29363SOL     OW99812  10.866   2.318   3.701  0.4619  0.5217 -0.0141
29363SOL    HW199813  10.896   2.276   3.781  1.1106  1.3317  0.1768
29363SOL    HW299814  10.864   2.412   3.722 -2.5027  0.5471  0.0964
29364SOL     OW99815   6.345   7.089   2.267  0.0726  0.0290 -0.3127
29364SOL    HW199816   6.427   7.040   2.272  0.3998  0.5303 -0.6051
29364SOL    HW299817   6.371   7.181   2.278 -0.4611  0.1860 -0.3050
29365SOL     OW99818  10.146   8.877   5.735  0.5341  0.2567  0.2184
29365SOL    HW199819  10.088   8.847   5.805  0.2539 -1.2539 -0.5952
29365SOL    HW299820  10.233   8.876   5.774  0.3305 -0.1397  0.6781
29366SOL     OW99821   8.650   2.498   8.884  0.1610 -0.5584 -0.2182
29366SOL    HW199822   8.581   2.557   8.915 -0.0897 -0.8331 -0.2535
29366SOL    HW299823   8.704   2.552   8.826  1.1733  0.2259  1.3724
29367SOL     OW99824   1.625   4.493  11.069  0.0652 -0.3752 -0.0732
29367SOL    HW199825   1.619   4.403  11.102  1.2050  0.0177  1.2813
29367SOL    HW299826   1.585   4.546  11.138 -0.4202  0.1808 -0.7762
29368SOL     OW99827   4.499   0.094   0.357 -0.1549 -0.5411 -0.5024
29368SOL    HW199828   4.568   0.056   0.301  0.9166  1.1222 -0.3786
29368SOL    HW299829   4.529   0.078   0.446 -0.4217 -0.6667 -0.4349
29369SOL     OW99830  10.514   2.719   3.316 -0.2918 -0.3578 -0.1162
29369SOL    HW199831  10.440   2.755   3.365  0.4981  0.9590  0.1432
29369SOL    HW299832  10.481   2.710   3.227 -1.4113 -1.7936  0.4025
29370SOL     OW99833  11.886   4.220   5.857 -0.2366 -0.2502 -0.3612
29370SOL    HW199834  11.905   4.229   5.950 -0.4853 -1.3515 -0.1927
29370SOL    HW299835  11.973   4.219   5.815 -0.1130 -0.1370 -0.1068
29371SOL     OW99836   8.345   4.358   8.201  0.4750 -0.3449  0.4555
29371SOL    HW199837   8.328   4.448   8.174  1.7472  0.5658  2.4713
29371SOL    HW299838   8.336   4.307   8.121  1.2645  1.7753 -1.0766
29372SOL     OW99839   7.223  10.626   1.961 -0.7339 -0.5871 -0.0259
29372SOL    HW199840   7.297  10.671   2.002 -1.1026 -1.9028  2.2041
29372SOL    HW299841   7.162  10.697   1.939  0.7367  0.4244 -1.0667
29373SOL     OW99842   3.627   4.662   3.953  0.2218 -0.2893  0.8498
29373SOL    HW199843   3.563   4.597   3.923  0.2466  0.6346 -1.3595
29373SOL    HW299844   3.575   4.740   3.973  0.3724 -0.4418  1.8877
29374SOL     OW99845   6.647   5.967   3.325  0.0209  0.2855 -0.3029
29374SOL    HW199846   6.669   5.874   3.333 -0.6262  0.1450 -0.0606
29374SOL    HW299847   6.551   5.968   3.321  0.0639  0.8448 -1.6691
29375SOL     OW99848   9.153   1.109  10.173 -0.5224 -0.1153  0.0308
29375SOL    HW199849   9.192   1.192  10.202 -0.9566 -0.5706  2.1397
29375SOL    HW299850   9.085   1.091  10.238  0.0156 -2.4369  0.0528
29376SOL     OW99851  11.504   3.696  10.997  0.3045  0.2989  0.1252
29376SOL    HW199852  11.582   3.752  10.998  1.4404 -1.1234 -1.8486
29376SOL    HW299853  11.454   3.726  10.921 -0.3427  0.2589  0.5325
29377SOL     OW99854   6.732  10.072   6.089  0.0996  0.9187  0.0402
29377SOL    HW199855   6.768  10.082   6.177  0.7622  2.1777 -0.3518
29377SOL    HW299856   6.638  10.090   6.099  0.5727  3.6873  0.0909
29378SOL     OW99857   5.738   2.293   1.746 -0.4697  0.0227  0.5272
29378SOL    HW199858   5.714   2.313   1.836 -0.1648 -1.1531  0.8891
29378SOL    HW299859   5.709   2.369   1.696 -2.9014 -0.3517  1.2489
29379SOL     OW99860   3.650   9.644   9.664  0.0497 -0.3746  0.3147
29379SOL    HW199861   3.710   9.694   9.720 -0.9203  1.0316  0.1562
29379SOL    HW299862   3.617   9.574   9.720  4.1958 -3.2824 -0.4378
29380SOL     OW99863   6.750   3.630   4.208  0.3884 -0.4410  0.1166
29380SOL    HW199864   6.777   3.562   4.146 -0.5922 -0.3196 -0.4620
29380SOL    HW299865   6.756   3.588   4.293  1.8410 -0.5883 -0.0232
29381SOL     OW99866   2.172   2.368   1.108  0.4114 -0.7576 -0.0072
29381SOL    HW199867   2.177   2.379   1.203 -0.3316  0.4994 -0.0926
29381SOL    HW299868   2.144   2.277   1.096 -2.0207 -0.2330  1.0924
29382SOL     OW99869   1.489   3.693   8.127  0.3678  0.1871  0.0856
29382SOL    HW199870   1.434   3.768   8.149  0.0599  0.1323 -0.4760
29382SOL    HW299871   1.509   3.652   8.211 -1.0391 -0.1985  0.2540
29383SOL     OW99872   4.758   6.611   4.240 -0.0367 -0.1289  0.1783
29383SOL    HW199873   4.815   6.687   4.242 -0.4504  0.1764  1.6034
29383SOL    HW299874   4.682   6.639   4.189  0.1194  0.1763  0.1138
29384SOL     OW99875   4.361   9.149   0.269  1.0249 -0.6455 -0.3789
29384SOL    HW199876   4.308   9.088   0.217 -0.0461  0.3224 -0.4732
29384SOL    HW299877   4.327   9.141   0.358 -0.0146  0.7127 -0.6241
29385SOL     OW99878  10.881  11.832  10.582 -0.1036 -0.0244 -0.0673
29385SOL    HW199879  10.839  11.918  10.589 -0.2304 -0.2066  2.0425
29385SOL    HW299880  10.974  11.851  10.573 -0.2228  0.3434 -0.5432
29386SOL     OW99881   3.565   7.480   3.806  0.6634 -0.0697 -0.2656
29386SOL    HW199882   3.645   7.509   3.849  0.2183  0.3208  0.3151
29386SOL    HW299883   3.584   7.486   3.712  1.8774 -1.5697 -0.1571
29387SOL     OW99884   6.994   1.939   1.540  0.0587 -0.5880  0.8550
29387SOL    HW199885   6.980   1.900   1.626 -0.8053  0.7043  1.3205
29387SOL    HW299886   6.938   1.887   1.481 -1.3350  0.0834  1.5274
29388SOL     OW99887   5.266   7.301   9.852  0.3477 -0.5450  0.0559
29388SOL    HW199888   5.274   7.211   9.822  1.6192 -0.4583  0.0743
29388SOL    HW299889   5.288   7.354   9.775  1.2168 -0.2938  0.4564
29389SOL     OW99890   2.980   2.231   8.193  0.1746  0.2518 -0.5752
29389SOL    HW199891   2.983   2.224   8.289  2.0121  0.3205 -0.5996
29389SOL    HW299892   3.053   2.178   8.163 -0.8819 -0.4484 -2.0144
29390SOL     OW99893   5.438   9.708   6.475  0.4813  0.6723 -0.7245
29390SOL    HW199894   5.439   9.755   6.392  1.1329 -0.0116 -1.1114
29390SOL    HW299895   5.376   9.757   6.529  0.7863  1.7026 -1.2733
29391SOL     OW99896  10.951   6.040   2.522 -0.1823  0.3533  0.1674
29391SOL    HW199897  11.041   6.044   2.490 -0.0698  1.1683  0.5665
29391SOL    HW299898  10.899   6.083   2.454 -0.2911 -0.1743 -0.0939
29392SOL     OW99899   4.970   0.144   8.193 -0.2118  0.2524  0.8798
29392SOL    HW199900   5.058   0.181   8.196 -0.4336  0.7085  1.9702
29392SOL    HW299901   4.949   0.142   8.100  0.5299  1.1393  0.6776
29393SOL     OW99902   5.192  11.790   1.145 -0.5881 -0.2679 -0.5943
29393SOL    HW199903   5.133  11.849   1.099 -1.1675 -1.2879 -1.1798
29393SOL    HW299904   5.277  11.834   1.140 -1.4898  2.0139  1.6451
29394SOL     OW99905   2.006   8.665   7.935 -0.4813  0.3100  0.1731
29394SOL    HW199906   1.965   8.610   8.002 -0.1437  1.8361  1.7135
29394SOL    HW299907   2.060   8.605   7.884 -1.9191 -1.1611  0.2850
29395SOL     OW99908   4.985  11.470   3.226 -0.4370 -0.2795 -0.2630
29395SOL    HW199909   4.957  11.526   3.154  0.2183  2.0326  1.1773
29395SOL    HW299910   5.053  11.520   3.271 -0.5496 -1.7872  1.7616
29396SOL     OW99911   8.053   7.168   0.697  0.3423  0.6391 -0.1487
29396SOL    HW199912   8.111   7.220   0.641  0.8348  0.9776  0.6675
29396SOL    HW299913   8.004   7.233   0.747 -0.5198  0.3474 -0.5994
29397SOL     OW99914   1.583   0.002   8.724  0.4479  0.1342 -0.4675
29397SOL    HW199915   1.655   0.058   8.752  0.6597  0.0756 -0.8890
29397SOL    HW299916   1.552  -0.039   8.805 -0.0205  1.2082 -0.0878
29398SOL     OW99917   3.489   4.341   2.139  0.5604  0.3410 -0.0900
29398SOL    HW199918   3.526   4.375   2.221  3.2987  0.1598 -1.1677
29398SOL    HW299919   3.412   4.292   2.166  1.2626  0.4758  2.3687
29399SOL     OW99920   7.454   7.692   7.005  0.4079  0.3183  0.2335
29399SOL    HW199921   7.541   7.680   6.967  1.5577  1.0420  2.4666
29399SOL    HW299922   7.452   7.783   7.032 -0.2582 -0.1889  2.0090
29400SOL     OW99923   5.160   6.735  11.643 -0.3857 -0.4795 -0.5110
29400SOL    HW199924   5.221   6.756  11.573  0.5241 -0.7017  0.1833
29400SOL    HW299925   5.121   6.818  11.668 -0.2014 -0.2988 -0.8275
29401SOL     OW99926  11.622   4.269   5.005  0.4166  0.2256  0.0158
29401SOL    HW199927  11.616   4.220   4.923  2.0373 -0.3747  0.2122
29401SOL    HW299928  11.560   4.226   5.064 -1.0349  0.8898 -0.9732
29402SOL     OW99929  10.826  10.879  10.836 -0.2397  0.3400  0.0644
29402SOL    HW199930  10.821  10.966  10.795  2.0698  0.6385  0.3302
29402SOL    HW299931  10.850  10.821  10.764 -1.1341 -0.0125  0.0283
29403SOL     OW99932   7.528   7.717   1.410 -0.1180  0.4050  0.4286
29403SOL    HW199933   7.524   7.673   1.495  1.0093 -0.2226  0.1807
29403SOL    HW299934   7.618   7.749   1.404 -0.0865  0.1354 -0.6782
29404SOL     OW99935   7.899   9.780   0.064  0.4672 -0.8574 -0.2245
29404SOL    HW199936   7.890   9.722  -0.012  1.7547 -2.0686  0.4972
29404SOL    HW299937   7.969   9.740   0.116 -1.0185 -0.6390  2.1031
29405SOL     OW99938   1.643   5.515   0.289 -0.3116 -0.4238 -0.5544
29405SOL    HW199939   1.582   5.589   0.301 -0.2649 -0.3688 -0.6537
29405SOL    HW299940   1.655   5.509   0.194  0.5511  0.1501 -0.4953
29406SOL     OW99941   3.714   4.420   2.710 -0.2274 -0.3387  0.1890
29406SOL    HW199942   3.730   4.351   2.774 -0.5091 -2.0106 -1.4256
29406SOL    HW299943   3.651   4.479   2.751  1.0926 -0.2346  2.1512
29407SOL     OW99944  10.336   2.121  10.477  0.3720 -0.3056  0.2496
29407SOL    HW199945  10.343   2.201  10.530 -0.7885 -0.5434  0.8029
29407SOL    HW299946  10.246   2.092  10.490  0.1342 -0.5466 -1.6507
29408SOL     OW99947   6.697   1.861   6.617  0.4889  0.1256 -0.0383
29408SOL    HW199948   6.624   1.921   6.601 -2.2307 -2.1200  2.7248
29408SOL    HW299949   6.696   1.801   6.542 -0.2499  0.4089 -0.2620
29409SOL     OW99950   4.232   1.042  11.720 -0.4339  0.3599  0.0176
29409SOL    HW199951   4.284   1.018  11.797 -1.6677  0.2983  0.8507
29409SOL    HW299952   4.285   1.013  11.646 -0.6068 -2.4528  0.8891
29410SOL     OW99953   4.251   9.879   4.813  0.5414 -0.2591  0.2865
29410SOL    HW199954   4.323   9.844   4.865  2.0927 -1.2532 -2.3130
29410SOL    HW299955   4.207   9.802   4.777 -1.4263  0.3537  1.2237
29411SOL     OW99956  10.605   3.902   3.360 -0.0432 -0.2148 -0.3101
29411SOL    HW199957  10.672   3.849   3.402  0.6522  0.1232 -0.9714
29411SOL    HW299958  10.654   3.969   3.312 -0.8856  0.9923  0.4412
29412SOL     OW99959   6.798   2.461   1.661  0.1414  0.7810  0.0882
29412SOL    HW199960   6.884   2.491   1.689  1.0490 -0.9779 -0.6583
29412SOL    HW299961   6.782   2.508   1.578  1.5122 -0.6270 -1.0397
29413SOL     OW99962   2.175   3.720   3.948 -0.7328 -0.3666 -1.2584
29413SOL    HW199963   2.126   3.638   3.948 -1.2035 -0.0882 -1.7065
29413SOL    HW299964   2.200   3.733   3.857  0.8672 -0.9008 -0.9428
29414SOL     OW99965  11.827   3.639   7.640  0.2243 -0.4156  0.1507
29414SOL    HW199966  11.824   3.673   7.729  0.2666 -1.9612  0.7698
29414SOL    HW299967  11.737   3.613   7.621  0.2820 -0.4039 -0.1430
29415SOL     OW99968   9.087   9.458   2.660 -0.0661 -0.2940 -0.0642
29415SOL    HW199969   9.025   9.529   2.641  0.8822  1.3616  2.4734
29415SOL    HW299970   9.039   9.399   2.718  0.0782 -0.1378  0.2128
29416SOL     OW99971   0.024   1.053   4.110  0.3244 -0.1380 -0.0010
29416SOL    HW199972   0.092   1.043   4.045  0.6545 -0.4537  0.3887
29416SOL    HW299973  -0.034   0.978   4.096  0.2450 -0.0571 -0.1074
29417SOL     OW99974   5.351   9.861   0.780 -1.0437  0.2204 -0.2532
29417SOL    HW199975   5.348   9.822   0.867 -0.6856 -1.9395 -1.1395
29417SOL    HW299976   5.270   9.832   0.738  0.4660 -2.0712 -1.8635
29418SOL     OW99977   0.177   4.320  10.520 -0.0688  0.1153 -0.2030
29418SOL    HW199978   0.135   4.338  10.436  0.1981 -1.8997 -0.8122
29418SOL    HW299979   0.201   4.406  10.553 -0.2343  0.9684 -2.1576
29419SOL     OW99980   6.057  10.793  10.005 -0.5645 -0.4289  0.7340
29419SOL    HW199981   6.115  10.816   9.933  0.5343  2.1858  2.2863
29419SOL    HW299982   6.008  10.717   9.974  0.4069  0.0913 -2.4168
29420SOL     OW99983   6.147   4.939  11.113 -0.0655 -0.8883  0.1380
29420SOL    HW199984   6.166   4.861  11.166 -0.0068  1.1822  3.3978
29420SOL    HW299985   6.233   4.969  11.083  0.2459 -0.4844  1.3711
29421SOL     OW99986   3.104   3.428   7.078  0.3349  0.0113  1.2507
29421SOL    HW199987   3.175   3.491   7.066  0.6758 -0.4188  1.0261
29421SOL    HW299988   3.028   3.483   7.100  0.1652  0.6640 -0.8069
29422SOL     OW99989   9.296   4.784   7.608  0.2576  0.3934 -0.3605
29422SOL    HW199990   9.347   4.863   7.622  2.0035 -0.9123  1.1506
29422SOL    HW299991   9.359   4.712   7.618 -1.1274 -1.2124 -2.2628
29423SOL     OW99992   8.472   1.182   8.216 -0.6074  0.3751 -0.1157
29423SOL    HW199993   8.534   1.238   8.169 -0.3941 -0.7815 -1.2784
29423SOL    HW299994   8.528   1.117   8.260 -0.9273  0.1618 -0.0238
29424SOL     OW99995   9.016   5.551   6.584 -0.0550 -0.1648 -0.5309
29424SOL    HW199996   9.081   5.595   6.640 -0.5880  1.0928 -0.8750
29424SOL    HW299997   8.952   5.515   6.646  0.3488 -0.4057 -0.2471
29425SOL     OW99998   0.208   2.550   1.429  0.1206  0.1514  0.3810
29425SOL    HW199999   0.209   2.606   1.352  2.4555  0.7417  0.7558
29425SOL    HW2    0   0.181   2.464   1.397 -0.5461  0.7689 -0.7609
29426SOL     OW    1   1.796   1.634   2.456  0.5384  0.2982 -0.7505
29426SOL    HW1    2   1.865   1.701   2.462 -1.1683  2.0632  2.4762
29426SOL    HW2    3   1.745   1.658   2.379  2.0056  0.5151 -1.6890
29427SOL     OW    4   3.266   9.407   2.277 -0.4167  0.1135 -0.0321
29427SOL    HW1    5   3.172   9.394   2.285 -0.3164 -0.3604  0.4508
29427SOL    HW2    6   3.294   9.337   2.217 -0.3595  0.2051 -0.1129
29428SOL     OW    7   2.099   4.269   4.913  0.0395  0.4168 -0.2085
29428SOL    HW1    8   2.008   4.260   4.942  0.0866  1.1898  0.2185
29428SOL    HW2    9   2.136   4.182   4.924 -0.5114  0.2146  0.1096
29429SOL     OW   10   3.340   6.495   8.425  0.1458  0.6927 -0.0144
29429SOL    HW1   11   3.383   6.534   8.350  0.2712 -0.7184 -0.7011
29429SOL    HW2   12   3.248   6.490   8.400  0.1889  0.2142 -0.0761
29430SOL     OW   13   7.097   9.873   0.710  0.2473 -0.2414  0.3537
29430SOL    HW1   14   7.125   9.942   0.771 -0.3939  0.4110 -0.0713
29430SOL    HW2   15   7.111   9.911   0.623 -0.6346 -0.4314  0.1225
29431SOL     OW   16   9.085   4.711   8.511  0.6993 -0.2858  0.1995
29431SOL    HW1   17   9.039   4.711   8.427  2.5968 -1.3424 -0.9126
29431SOL    HW2   18   9.017   4.689   8.575 -0.4835 -1.1881 -1.2799
29432SOL     OW   19   2.117  10.329   1.801  0.2231  0.0467  0.2534
29432SOL    HW1   20   2.180  10.393   1.834 -0.6037 -0.5177  3.2832
29432SOL    HW2   21   2.037  10.348   1.851 -0.7920 -1.7450 -0.6235
29433SOL     OW   22  10.323  11.869   0.338 -0.0452 -0.2754  0.4453
29433SOL    HW1   23  10.260  11.799   0.355 -0.2304 -0.5373 -1.2102
29433SOL    HW2   24  10.303  11.898   0.249  2.8774 -1.0929 -0.5656
29434SOL     OW   25   3.252   1.439  10.419  0.3787  0.5398  0.3070
29434SOL    HW1   26   3.164   1.400  10.427  1.7670 -2.7980  1.3049
29434SOL    HW2   27   3.264   1.452  10.325 -0.7489 -0.1664  0.0428
29435SOL     OW   28   0.952   0.478  10.461 -0.4053 -0.0790  0.2796
29435SOL    HW1   29   0.987   0.458  10.374 -1.8668  2.1366 -0.9198
29435SOL    HW2   30   1.022   0.527  10.503 -0.9646  2.0910 -1.1344
29436SOL     OW   31   2.353  10.876   1.405 -0.2438 -0.4551 -0.0880
29436SOL    HW1   32   2.379  10.918   1.487 -0.5937 -0.1708 -0.1249
29436SOL    HW2   33   2.288  10.810   1.431 -1.6474  0.7916 -0.3188
29437SOL     OW   34   7.948   8.787   9.242  0.1978  0.3131  0.4969
29437SOL    HW1   35   7.864   8.749   9.270 -0.4096  1.2628  0.0104
29437SOL    HW2   36   8.014   8.729   9.280 -0.6333  0.3198  2.0272
29438SOL     OW   37   2.170   0.396   7.933  0.5314  0.1005 -0.0241
29438SOL    HW1   38   2.212   0.392   7.847  1.3829  1.9109  0.2545
29438SOL    HW2   39   2.089   0.444   7.918  1.0039  1.0091  0.2793
29439SOL     OW   40   6.986  11.078   6.174  0.8401 -0.3096  0.3504
29439SOL    HW1   41   6.938  11.157   6.149 -0.0117 -0.8504  0.2412
29439SOL    HW2   42   6.971  11.017   6.103 -0.9829 -1.6004  1.7655
29440SOL     OW   43   1.889   0.503   7.633  0.0195 -0.0874 -0.0981
29440SOL    HW1   44   1.866   0.525   7.723  0.8975  1.2719 -0.1760
29440SOL    HW2   45   1.810   0.464   7.596 -0.2836 -0.8571  1.3124
29441SOL     OW   46   1.110   5.659  10.932 -0.1148 -0.0472 -0.0940
29441SOL    HW1   47   1.098   5.650  11.026  1.1611 -1.2749 -0.0123
29441SOL    HW2   48   1.067   5.742  10.909  0.4889  0.8081  1.7316
29442SOL     OW   49   1.681   8.985  10.809  0.0362  0.5187  0.1503
29442SOL    HW1   50   1.606   8.989  10.868  0.6563  1.0232  0.9233
29442SOL    HW2   51   1.657   8.919  10.744 -0.2139 -0.8999  1.6124
29443SOL     OW   52   4.570   4.620   8.196  0.0346 -0.0819  0.0127
29443SOL    HW1   53   4.477   4.605   8.182  0.0713  0.8881 -1.4297
29443SOL    HW2   54   4.574   4.682   8.268 -0.3603 -1.1664  1.0038
29444SOL     OW   55  10.784   5.024   0.898  0.4863  0.0390  0.0870
29444SOL    HW1   56  10.739   4.984   0.824  0.0181 -0.6207  0.7140
29444SOL    HW2   57  10.798   5.115   0.873  1.2315 -0.4112 -1.2229
29445SOL     OW   58  10.266   4.737   8.286 -0.5011 -0.4873 -0.0303
29445SOL    HW1   59  10.308   4.661   8.325 -1.5811 -0.1443  1.9248
29445SOL    HW2   60  10.213   4.701   8.214  0.3616 -1.3356 -0.2592
29446SOL     OW   61   8.628   9.466   2.802  0.3742  0.1126 -0.6936
29446SOL    HW1   62   8.546   9.417   2.799  1.0360 -1.1722  0.5170
29446SOL    HW2   63   8.604   9.551   2.839 -0.3616 -0.3748 -0.0107
29447SOL     OW   64  10.186   5.575   9.318  0.1631  0.4445  0.3102
29447SOL    HW1   65  10.137   5.631   9.257 -0.0896  0.0811  0.1762
29447SOL    HW2   66  10.249   5.634   9.359 -0.0996  0.8304  0.1682
29448SOL     OW   67  10.614   6.906   7.499  0.2455 -0.4945  0.0056
29448SOL    HW1   68  10.609   6.837   7.433 -0.8768  0.0625 -0.5251
29448SOL    HW2   69  10.533   6.956   7.487  0.8026  0.6088  0.7081
29449SOL     OW   70   0.007  11.822   6.214 -0.6060 -0.2325 -0.1015
29449SOL    HW1   71  -0.051  11.796   6.143  0.0797  1.0160 -1.1514
29449SOL    HW2   72   0.049  11.740   6.242 -0.8676 -0.7312 -1.1306
29450SOL     OW   73   3.640   7.740   6.553 -0.0203 -0.1491 -0.4160
29450SOL    HW1   74   3.551   7.771   6.568 -0.6289 -2.2461  0.8811
29450SOL    HW2   75   3.693   7.783   6.620 -0.4380 -0.3131  0.0239
29451SOL     OW   76   3.210   0.806   2.732 -0.1792 -0.9192  0.4107
29451SOL    HW1   77   3.237   0.717   2.753  0.4548 -0.8091  0.1132
29451SOL    HW2   78   3.186   0.802   2.639 -0.2933 -0.8173  0.4364
29452SOL     OW   79   0.057   8.931   5.272  0.2114  0.1068 -0.1952
29452SOL    HW1   80   0.150   8.949   5.287 -0.1854  1.2724  1.1745
29452SOL    HW2   81   0.055   8.867   5.201  2.0799 -0.5522  0.3009
29453SOL     OW   82   8.251   3.219   0.926  0.6973  0.2572  0.3823
29453SOL    HW1   83   8.249   3.252   0.837  2.1939 -0.7793 -0.0797
29453SOL    HW2   84   8.167   3.245   0.964  1.1975  3.3013 -0.3392
29454SOL     OW   85  10.250   5.861   2.590  0.1126 -0.0319  0.3199
29454SOL    HW1   86  10.288   5.879   2.504 -0.2124  1.1653  0.4204
29454SOL    HW2   87  10.158   5.842   2.572  0.3817 -1.3736  0.2486
29455SOL     OW   88   6.331   6.115   4.635  0.3301  0.7623  0.1287
29455SOL    HW1   89   6.308   6.192   4.687  0.0138  1.1621 -0.5845
29455SOL    HW2   90   6.424   6.103   4.649  0.7951  2.3916 -1.1748
29456SOL     OW   91   6.765   2.561  11.543  0.5109  0.5059 -0.3848
29456SOL    HW1   92   6.674   2.540  11.522 -0.1364  2.2147  0.5384
29456SOL    HW2   93   6.787   2.635  11.487  1.3089  0.1684 -0.5312
29457SOL     OW   94   8.130   5.847   0.273 -0.0408  0.6472 -0.7618
29457SOL    HW1   95   8.223   5.859   0.253 -0.2368 -0.6539 -2.6702
29457SOL    HW2   96   8.125   5.761   0.314 -0.4592  0.4672 -1.1783
29458SOL     OW   97   9.616   5.831   8.538 -0.0581  0.1304  0.1469
29458SOL    HW1   98   9.537   5.778   8.532  0.9052 -1.3485  0.0635
29458SOL    HW2   99   9.603   5.902   8.474 -0.8385 -0.7112 -0.6470
29459SOL     OW  100   9.029   2.337   5.522 -0.1740  0.4210 -0.2703
29459SOL    HW1  101   9.070   2.275   5.583 -1.9926  0.5399  1.1621
29459SOL    HW2  102   9.069   2.317   5.438  0.9672 -1.1296  0.5806
29460SOL     OW  103   1.280   3.640   2.308 -0.7797 -0.5786  0.4071
29460SOL    HW1  104   1.309   3.579   2.241  0.4497 -0.6432  0.9727
29460SOL    HW2  105   1.209   3.690   2.267  1.2025  0.7337 -1.6231
29461SOL     OW  106   2.348   4.447   3.577 -0.3025 -0.3011  0.1388
29461SOL    HW1  107   2.356   4.536   3.543  2.9545 -0.5172  0.0402
29461SOL    HW2  108   2.373   4.391   3.503  2.0491 -1.0185  1.4002
29462SOL     OW  109   0.517  11.788  11.265  0.2661  0.4094  0.3318
29462SOL    HW1  110   0.466  11.869  11.256  0.4129  0.3652 -1.1551
29462SOL    HW2  111   0.591  11.813  11.320 -0.6573  0.7996  1.4489
29463SOL     OW  112   6.684  10.530   9.489  0.1501  0.1070 -0.1075
29463SOL    HW1  113   6.733  10.608   9.462  0.6497 -0.6992 -1.6881
29463SOL    HW2  114   6.721  10.507   9.574  1.9735  0.0130 -0.8738
29464SOL     OW  115   4.105   7.165   6.138  0.1937  0.7300 -0.5527
29464SOL    HW1  116   4.115   7.260   6.134  0.9525  0.7156  0.5012
29464SOL    HW2  117   4.108   7.144   6.232 -2.3104 -0.1244 -0.5990
29465SOL     OW  118   9.809   4.046   5.932 -0.4168 -0.0159  0.1057
29465SOL    HW1  119   9.848   4.021   6.015 -1.0025 -1.1308  0.0616
29465SOL    HW2  120   9.784   4.137   5.943  1.6565  0.5866  0.3265
29466SOL     OW  121   3.704   6.431   6.849 -0.5680  0.4707 -0.6179
29466SOL    HW1  122   3.708   6.348   6.897 -2.1779  1.3706  1.2578
29466SOL    HW2  123   3.792   6.468   6.858  0.2973 -1.1570 -1.8466
29467SOL     OW  124   9.112  10.595   9.759  0.4743 -0.1309 -0.1421
29467SOL    HW1  125   9.201  10.581   9.792  0.4431  1.8066  0.9111
29467SOL    HW2  126   9.055  10.562   9.829  0.4146  2.6532  1.2539
29468SOL     OW  127   2.304   4.669   0.818 -0.2184 -0.1993  0.0871
29468SOL    HW1  128   2.215   4.644   0.844 -0.9614  1.6733 -0.4781
29468SOL    HW2  129   2.319   4.623   0.736 -0.1579 -1.5037  0.8047
29469SOL     OW  130   3.766  11.719   4.743  0.0248 -0.0626 -0.0355
29469SOL    HW1  131   3.753  11.764   4.827  0.3627  1.5721 -0.8218
29469SOL    HW2  132   3.861  11.717   4.731 -0.0488  0.5796 -0.8090
29470SOL     OW  133   9.485  10.537   8.639  0.2163  0.5938 -0.6834
29470SOL    HW1  134   9.512  10.446   8.636 -1.2558  0.1285 -0.6774
29470SOL    HW2  135   9.566  10.586   8.649  0.9815 -0.7428 -0.1211
29471SOL     OW  136   0.272   9.845   2.777 -0.1568 -0.2869  0.3480
29471SOL    HW1  137   0.193   9.894   2.754  0.2667  0.4842  0.4981
29471SOL    HW2  138   0.338   9.912   2.794  0.3145 -0.9019  1.0170
29472SOL     OW  139   5.511   9.908   4.391 -0.8331  0.1703 -0.1138
29472SOL    HW1  140   5.568   9.928   4.466  0.3345  0.3764 -1.0218
29472SOL    HW2  141   5.487   9.994   4.356 -2.0576  0.0931  0.4992
29473SOL     OW  142  11.567   4.069   3.947  0.3151 -0.2992  0.2163
29473SOL    HW1  143  11.601   4.121   4.020  1.0282  0.7310 -0.8042
29473SOL    HW2  144  11.630   4.082   3.877 -0.7738 -0.5826 -0.8589
29474SOL     OW  145   1.868   3.990   2.043  0.2272  0.7028  0.1271
29474SOL    HW1  146   1.813   4.056   2.087 -0.4582  1.4957 -1.8121
29474SOL    HW2  147   1.809   3.917   2.025  0.0336  1.1164 -1.0103
29475SOL     OW  148   0.390   9.819  10.360 -0.5698  0.1611 -0.2454
29475SOL    HW1  149   0.455   9.765  10.315 -0.2699 -1.1934  1.6988
29475SOL    HW2  150   0.336   9.757  10.409 -2.4124  1.3844 -0.6320
29476SOL     OW  151   5.522   9.205   0.558 -0.5753  0.2699 -0.0755
29476SOL    HW1  152   5.448   9.262   0.534  0.9347  2.9366  1.1001
29476SOL    HW2  153   5.578   9.206   0.480 -0.4728  0.5698 -0.0015
29477SOL     OW  154   6.498   1.676   4.626 -0.0268 -0.3716 -0.1470
29477SOL    HW1  155   6.405   1.697   4.637  0.5653  1.8391  1.2766
29477SOL    HW2  156   6.540   1.760   4.607  1.8227 -1.1584  0.1941
29478SOL     OW  157   4.041   5.344   3.992  0.0895 -0.3322  0.0634
29478SOL    HW1  158   4.033   5.401   4.068  1.9595  1.4682 -0.9889
29478SOL    HW2  159   4.125   5.299   4.003  0.3498 -0.1014 -0.8721
29479SOL     OW  160   8.527   5.952   0.849  0.1829  0.1282 -0.0678
29479SOL    HW1  161   8.484   6.020   0.901  0.0228  0.8204 -1.0788
29479SOL    HW2  162   8.615   5.986   0.834  0.8592 -0.9146  1.2929
29480SOL     OW  163   7.028  10.479   9.136  0.2781  0.3298  0.3429
29480SOL    HW1  164   6.963  10.540   9.101 -1.0535 -0.9079  0.5440
29480SOL    HW2  165   6.981  10.430   9.203  0.5297 -2.5584 -1.4069
29481SOL     OW  166   7.710   7.626   2.312 -0.3241 -0.3421  0.0888
29481SOL    HW1  167   7.648   7.575   2.261 -1.1551  0.5944  0.1386
29481SOL    HW2  168   7.709   7.713   2.272  1.1050 -0.3638 -0.0278
29482SOL     OW  169   9.048   2.235   6.755 -0.2599 -0.1616 -0.0919
29482SOL    HW1  170   9.028   2.186   6.675  1.7273 -2.0682  0.4607
29482SOL    HW2  171   8.966   2.278   6.778 -1.9364 -2.5674 -1.1469
29483SOL     OW  172   2.217   4.236   6.253 -0.1860 -0.0056 -0.1791
29483SOL    HW1  173   2.164   4.253   6.330 -0.9906  0.7701 -0.8810
29483SOL    HW2  174   2.308   4.244   6.284 -0.5051  1.0303  0.5280
29484SOL     OW  175   5.732   5.747  10.810 -0.2907 -0.3155  0.1677
29484SOL    HW1  176   5.706   5.839  10.807  0.4611 -0.1244 -1.6114
29484SOL    HW2  177   5.768   5.735  10.898 -1.1394  0.8705  0.6984
29485SOL     OW  178   6.483   3.315   1.762  0.1033  0.0132  0.0329
29485SOL    HW1  179   6.554   3.256   1.786  2.3921  3.0568  1.3526
29485SOL    HW2  180   6.433   3.327   1.843  1.0870  1.5862  0.4625
29486SOL     OW  181   7.881   6.100   9.274  0.3297  0.1268 -0.4020
29486SOL    HW1  182   7.828   6.172   9.307 -0.8350 -0.5508 -0.7385
29486SOL    HW2  183   7.946   6.084   9.342 -0.3981  0.4574  0.3835
29487SOL     OW  184  10.515  11.589   4.193 -0.0242 -0.2987 -0.4007
29487SOL    HW1  185  10.495  11.504   4.156  0.1877  0.7134 -3.0299
29487SOL    HW2  186  10.608  11.604   4.172 -0.1131  0.6613 -0.1827
29488SOL     OW  187   0.633   7.089   8.496  0.0437 -0.5967  0.3596
29488SOL    HW1  188   0.688   7.143   8.553  0.5121 -0.6077 -0.0740
29488SOL    HW2  189   0.673   7.002   8.498 -1.0310 -1.0864  1.4879
29489SOL     OW  190   0.949   6.895   7.539 -0.6202 -0.4048  0.1546
29489SOL    HW1  191   0.883   6.884   7.471  0.1831  0.0063 -0.7258
29489SOL    HW2  192   1.022   6.840   7.510 -0.4978 -0.6926  1.0003
29490SOL     OW  193   2.114   2.455  11.168 -0.0950 -0.7524 -0.1194
29490SOL    HW1  194   2.188   2.513  11.150 -0.3053 -0.5035 -0.1851
29490SOL    HW2  195   2.139   2.372  11.127  0.8562 -1.1706  1.2405
29491SOL     OW  196   2.452   8.959   4.605  0.4636  0.1724  0.4977
29491SOL    HW1  197   2.381   8.907   4.642  1.1718 -0.2404  1.3310
29491SOL    HW2  198   2.416   9.047   4.595 -1.1464 -0.6740 -2.0458
29492SOL     OW  199   3.843   9.765   6.784 -0.1522 -0.1259 -0.2943
29492SOL    HW1  200   3.868   9.820   6.858 -2.2067  0.9013 -0.2892
29492SOL    HW2  201   3.871   9.677   6.809 -1.7576 -0.0208  2.2471
29493SOL     OW  202   9.189   8.798   9.318 -0.2178  0.0654  0.4460
29493SOL    HW1  203   9.165   8.705   9.314  1.0252 -0.3020  1.0592
29493SOL    HW2  204   9.267   8.804   9.262  0.2702  0.5458  1.1743
29494SOL     OW  205   3.443   1.696   3.889 -0.0020 -0.7775  0.2055
29494SOL    HW1  206   3.401   1.686   3.803 -0.5933 -0.4577  0.4508
29494SOL    HW2  207   3.534   1.669   3.874  0.4332  1.1484 -1.0136
29495SOL     OW  208   7.169   0.422   0.606 -0.4449  0.4533 -0.2202
29495SOL    HW1  209   7.197   0.370   0.681 -0.9768  0.1425 -0.2412
29495SOL    HW2  210   7.139   0.358   0.541 -3.6426  0.8294  0.7379
29496SOL     OW  211   3.248   2.405   8.073  0.1559 -0.4694 -0.2578
29496SOL    HW1  212   3.202   2.325   8.047  0.6064 -0.9477  0.3713
29496SOL    HW2  213   3.283   2.385   8.160  1.9446 -0.3057 -0.8964
29497SOL     OW  214   8.594   4.885   8.783 -0.0185 -0.4696 -0.4700
29497SOL    HW1  215   8.533   4.949   8.745 -0.3718 -1.1337 -1.0438
29497SOL    HW2  216   8.550   4.853   8.862  0.3313  0.2674  0.0402
29498SOL     OW  217   0.849   4.813   0.417 -0.0613 -0.0215 -0.6990
29498SOL    HW1  218   0.765   4.784   0.381 -0.2858  0.6889 -0.7500
29498SOL    HW2  219   0.872   4.745   0.481  0.3310 -1.2936 -2.1363
29499SOL     OW  220  11.743   7.721   8.846 -0.2586  0.0794 -0.2529
29499SOL    HW1  221  11.837   7.738   8.843 -0.0014 -0.8136  1.2527
29499SOL    HW2  222  11.736   7.634   8.886 -1.7483  0.8903  1.4131
29500SOL     OW  223   7.675   2.761   1.961 -0.3499 -0.3230 -0.4694
29500SOL    HW1  224   7.692   2.671   1.935 -0.0465 -1.0932  2.1116
29500SOL    HW2  225   7.591   2.758   2.006  0.0442  0.5035  0.3648
29501SOL     OW  226   7.674   2.633   7.028  0.1295 -0.3736 -0.1810
29501SOL    HW1  227   7.721   2.690   6.967 -0.4385  0.3271  0.0227
29501SOL    HW2  228   7.741   2.575   7.064  0.8089  0.4922 -0.0261
29502SOL     OW  229  10.105   4.116   1.021  0.3597 -0.0111 -0.4041
29502SOL    HW1  230  10.024   4.088   1.062  0.7159  0.7951  0.9145
29502SOL    HW2  231  10.081   4.192   0.969  0.2267  0.0929 -0.1920
29503SOL     OW  232   0.939   6.943   3.575 -0.1613  0.4740  0.1468
29503SOL    HW1  233   0.855   6.936   3.620 -0.0390 -0.9674  0.2124
29503SOL    HW2  234   0.966   6.852   3.563  1.6229  0.9237  0.5597
29504SOL     OW  235   2.101   4.016   8.761  0.3324  0.0584 -0.3586
29504SOL    HW1  236   2.019   4.037   8.806  0.2446 -0.7951 -0.0929
29504SOL    HW2  237   2.073   3.974   8.680  0.5017  0.8692 -0.8449
29505SOL     OW  238  10.573   0.242   8.345  0.0639 -0.1962 -0.5696
29505SOL    HW1  239  10.644   0.205   8.398  1.1451  2.3799 -0.0513
29505SOL    HW2  240  10.609   0.246   8.256  0.5999  1.0855 -0.3116
29506SOL     OW  241   4.418   2.481   2.065 -0.6264  0.0490  0.0572
29506SOL    HW1  242   4.376   2.406   2.023 -1.9244  1.0970 -0.6113
29506SOL    HW2  243   4.502   2.490   2.021 -0.4169 -1.0572  0.2076
29507SOL     OW  244   2.550   6.040   3.027 -0.9409  0.2374  0.7563
29507SOL    HW1  245   2.508   6.066   2.946  0.4644 -1.8803 -0.7738
29507SOL    HW2  246   2.488   5.979   3.068  0.0852 -2.2836 -1.1170
29508SOL     OW  247   2.627   8.205   2.333 -0.0576 -0.1646 -0.4865
29508SOL    HW1  248   2.567   8.265   2.377  0.0475 -0.5837  0.2394
29508SOL    HW2  249   2.571   8.152   2.277 -0.2347  0.1592 -0.6137
29509SOL     OW  250   7.588  11.655   5.969  0.4259 -0.1776 -0.0418
29509SOL    HW1  251   7.543  11.733   5.938  1.0182  0.1845 -0.0093
29509SOL    HW2  252   7.542  11.582   5.928 -2.8928 -0.1727  3.0909
29510SOL     OW  253   1.328  11.553   1.098 -0.7556 -0.5161 -0.0199
29510SOL    HW1  254   1.273  11.579   1.024 -1.1727 -0.8992  0.1499
29510SOL    HW2  255   1.401  11.615   1.096 -1.4325  0.2977  0.0290
29511SOL     OW  256   3.980   1.476   4.946  0.0490 -0.4710 -0.2205
29511SOL    HW1  257   4.034   1.551   4.971 -1.6661  0.6463  0.2716
29511SOL    HW2  258   3.896   1.491   4.988 -0.2745 -2.8341  0.1144
29512SOL     OW  259   3.180   4.591  10.713 -0.0690 -0.2800 -0.3519
29512SOL    HW1  260   3.154   4.566  10.802  0.3843  0.5439  0.0214
29512SOL    HW2  261   3.243   4.524  10.687 -0.5018 -0.7504 -0.2129
29513SOL     OW  262   8.587   6.957  10.806 -0.7302 -0.4283 -0.7552
29513SOL    HW1  263   8.578   7.030  10.745  0.7345 -0.3360 -0.8886
29513SOL    HW2  264   8.665   6.978  10.857 -0.2484 -1.9361 -0.8290
29514SOL     OW  265   5.049   4.623   0.416  0.0916  0.1015  0.9594
29514SOL    HW1  266   5.140   4.642   0.393 -0.6893  0.7401 -2.0810
29514SOL    HW2  267   5.045   4.528   0.424  1.0764  0.0989  1.5648
29515SOL     OW  268   7.251   7.332   3.879  0.3820  0.2489 -0.1850
29515SOL    HW1  269   7.308   7.259   3.903 -0.3160 -0.4597 -0.6127
29515SOL    HW2  270   7.229   7.374   3.961  1.2049  0.2838  0.0182
29516SOL     OW  271   9.563   7.251   8.162 -0.0769  0.0593  0.0882
29516SOL    HW1  272   9.572   7.297   8.245  0.8386 -1.0120  0.6003
29516SOL    HW2  273   9.594   7.162   8.179 -1.2682 -0.6090 -1.0275
29517SOL     OW  274   4.973   1.415   0.974 -0.0812  0.2596  0.5368
29517SOL    HW1  275   4.971   1.324   0.945  0.2866  0.1964  0.7002
29517SOL    HW2  276   4.883   1.445   0.966 -0.0262  0.1904 -0.5172
29518SOL     OW  277  10.750   6.374   0.420  0.0080  0.0031 -0.3875
29518SOL    HW1  278  10.697   6.309   0.374 -1.4991 -0.4787  1.8402
29518SOL    HW2  279  10.688   6.418   0.478  1.2226  2.6735 -0.9677
29519SOL     OW  280   7.018   0.411   5.885  0.4856  0.7443  0.5271
29519SOL    HW1  281   7.097   0.461   5.906  1.2077 -0.1567  0.0408
29519SOL    HW2  282   6.958   0.476   5.849  1.5222  1.2354 -0.4014
29520SOL     OW  283   7.759  10.070   6.380 -0.0536 -0.4929 -0.1618
29520SOL    HW1  284   7.724   9.985   6.404 -0.2752 -0.4998 -0.5022
29520SOL    HW2  285   7.788  10.060   6.289 -0.8424  0.0209 -0.4808
29521SOL     OW  286   2.604   9.687  11.740 -0.2337  0.3359  0.2199
29521SOL    HW1  287   2.613   9.677  11.835  0.4958  1.9891  0.3487
29521SOL    HW2  288   2.510   9.684  11.724 -0.3224 -1.2310  0.8076
29522SOL     OW  289   3.114   7.392   3.175  0.4929  0.2389 -0.2619
29522SOL    HW1  290   3.083   7.451   3.106  0.2914 -1.0169 -1.2628
29522SOL    HW2  291   3.096   7.304   3.142  1.2855 -0.4111  0.9790
29523SOL     OW  292  10.763   4.467   9.009 -0.3273  0.3200 -0.7196
29523SOL    HW1  293  10.759   4.399   9.077 -0.2501  2.1850  1.2439
29523SOL    HW2  294  10.778   4.418   8.928  3.4520 -1.8135  1.0144
29524SOL     OW  295   5.227  10.203   0.578  0.5445  0.0097 -0.7181
29524SOL    HW1  296   5.227  10.131   0.514  0.8643 -0.5529 -0.0919
29524SOL    HW2  297   5.272  10.274   0.533  1.1147 -0.5085 -0.9855
29525SOL     OW  298  10.408   4.678  11.572 -0.1399  0.0860  0.7081
29525SOL    HW1  299  10.423   4.750  11.511 -0.6115 -0.3491  0.0674
29525SOL    HW2  300  10.414   4.600  11.518 -1.5567 -0.2596  1.0209
29526SOL     OW  301   9.271   9.942   1.159 -0.3532 -0.1643 -0.1853
29526SOL    HW1  302   9.250  10.032   1.184 -2.4901 -0.5992 -0.1828
29526SOL    HW2  303   9.215   9.924   1.084 -0.1966 -1.5794 -0.0066
29527SOL     OW  304   6.409   8.271   8.008  0.0797  0.0479  0.3249
29527SOL    HW1  305   6.433   8.327   7.935 -1.5171  0.7280  0.2750
29527SOL    HW2  306   6.323   8.235   7.984  1.1368 -2.6523  0.2437
29528SOL     OW  307   4.270   8.004  10.801 -0.1235  0.0448  0.9626
29528SOL    HW1  308   4.188   8.052  10.795  0.2687  0.7743  1.3357
29528SOL    HW2  309   4.320   8.048  10.869  1.3388  0.7886 -0.5154
29529SOL     OW  310   8.145  11.546   5.528 -0.1729 -0.2206 -0.0110
29529SOL    HW1  311   8.226  11.597   5.535  0.2586 -0.5969 -1.9119
29529SOL    HW2  312   8.081  11.598   5.578  0.8451  0.8882  0.1968
29530SOL     OW  313   0.347   8.290   5.076 -0.8651  0.3192 -0.0798
29530SOL    HW1  314   0.434   8.281   5.037 -1.2279 -0.7461 -0.6644
29530SOL    HW2  315   0.357   8.363   5.138  0.3036  0.5555 -0.5095
29531SOL     OW  316   8.188  11.681   8.586  0.7591  0.5810  0.0465
29531SOL    HW1  317   8.134  11.741   8.534  1.4315  1.5765  0.4681
29531SOL    HW2  318   8.244  11.738   8.638  1.7799 -0.4282  0.0911
29532SOL     OW  319   8.659  11.485   5.521  0.0711  0.7330  0.3896
29532SOL    HW1  320   8.724  11.541   5.563 -0.0483  1.9240 -0.9518
29532SOL    HW2  321   8.579  11.538   5.519 -0.1413  0.3896 -0.5747
29533SOL     OW  322  11.289   1.679   5.179 -0.2824 -0.4337 -0.0249
29533SOL    HW1  323  11.300   1.590   5.148  3.0291  0.0429 -0.6023
29533SOL    HW2  324  11.345   1.732   5.122 -1.8642  2.0023  0.5111
29534SOL     OW  325   7.890   6.852   3.912 -0.4465  0.1750 -0.0912
29534SOL    HW1  326   7.834   6.922   3.878  0.2903 -0.7537 -3.6451
29534SOL    HW2  327   7.830   6.791   3.954 -1.2991  1.9654  1.4453
29535SOL     OW  328   8.410   4.420   1.177  0.0149 -0.5297  0.1217
29535SOL    HW1  329   8.360   4.338   1.180  0.5100 -0.8178  2.9196
29535SOL    HW2  330   8.482   4.407   1.239  1.4697  1.2190 -1.0722
29536SOL     OW  331   9.769   8.957   0.994 -0.4021 -0.1116  0.0506
29536SOL    HW1  332   9.823   8.958   0.915  0.1218 -2.2369  0.3033
29536SOL    HW2  333   9.812   8.893   1.051 -1.1682  0.8414  1.7817
29537SOL     OW  334   8.866   2.346   1.619 -0.0523  0.1986 -0.0551
29537SOL    HW1  335   8.905   2.426   1.654 -0.3771 -0.2953  1.5303
29537SOL    HW2  336   8.919   2.324   1.543 -0.0046  1.9517 -0.5861
29538SOL     OW  337   6.050   0.062   2.030  0.1770 -0.2710  0.1575
29538SOL    HW1  338   5.998   0.080   2.109 -1.1061 -0.4886 -0.6078
29538SOL    HW2  339   6.073  -0.031   2.037  1.9526  0.2120  1.3236
29539SOL     OW  340   2.390   8.906   3.180  0.0891  0.0831  0.2298
29539SOL    HW1  341   2.309   8.876   3.221 -0.3163 -1.6667 -1.6721
29539SOL    HW2  342   2.366   8.988   3.137 -0.5495 -0.1187  0.1830
29540SOL     OW  343   4.932   6.761   8.174  0.5539 -0.4913  0.3689
29540SOL    HW1  344   5.019   6.788   8.203 -0.4722  0.4712  2.8241
29540SOL    HW2  345   4.889   6.732   8.254 -1.9597  0.7378 -0.4492
29541SOL     OW  346   8.269   9.114   5.649 -0.2378 -0.1461 -1.0084
29541SOL    HW1  347   8.214   9.056   5.597  1.8687 -1.7174 -1.5898
29541SOL    HW2  348   8.336   9.058   5.687  0.7688  1.6191 -0.0051
29542SOL     OW  349   3.651   0.097   9.800 -0.2457  0.3638  0.1607
29542SOL    HW1  350   3.596   0.072   9.726 -0.2649 -1.6620  0.7748
29542SOL    HW2  351   3.610   0.052   9.875 -0.1219  2.1870  1.3796
29543SOL     OW  352   4.064   4.759  11.321 -0.0896 -0.0563  0.3884
29543SOL    HW1  353   4.141   4.803  11.287  0.4850 -0.0320  1.6404
29543SOL    HW2  354   4.097   4.675  11.355 -0.8400 -0.6256 -0.2498
29544SOL     OW  355   9.842   0.275   9.052  0.1119  0.5749  0.0347
29544SOL    HW1  356   9.806   0.240   9.133 -1.0463  0.0044 -0.6951
29544SOL    HW2  357   9.937   0.269   9.064 -0.0361  0.4343  1.3065
29545SOL     OW  358   9.270   6.516  10.670  0.7340  0.5728 -0.1707
29545SOL    HW1  359   9.285   6.421  10.677  1.5272  0.6367 -0.8741
29545SOL    HW2  360   9.222   6.538  10.750 -1.9038 -0.8689 -1.2420
29546SOL     OW  361  10.458   7.636  11.740 -0.3186 -0.3144  0.2199
29546SOL    HW1  362  10.442   7.554  11.693  0.3765 -0.8391  0.8798
29546SOL    HW2  363  10.379   7.688  11.725 -0.6488 -0.9877 -0.4413
29547SOL     OW  364   4.867   5.127  11.439  0.3030  0.4932  0.4970
29547SOL    HW1  365   4.797   5.093  11.496 -1.2549  0.8374 -1.1097
29547SOL    HW2  366   4.864   5.222  11.451  1.7109  0.4190  1.7093
29548SOL     OW  367   3.275   4.678   1.409 -0.4219  0.0449  0.0155
29548SOL    HW1  368   3.287   4.704   1.500 -0.5488 -0.5054  0.1953
29548SOL    HW2  369   3.187   4.641   1.407  0.7025 -2.9381  0.4150
29549SOL     OW  370   1.979   6.534   4.622 -0.2336  0.2432  0.6694
29549SOL    HW1  371   1.972   6.554   4.529  0.4994  0.1351  0.5841
29549SOL    HW2  372   2.073   6.534   4.640 -0.3157 -0.7231  1.1850
29550SOL     OW  373   2.676  11.892   6.408 -0.0652  0.1876  0.2093
29550SOL    HW1  374   2.590  11.863   6.440  0.4147 -1.8303 -0.2011
29550SOL    HW2  375   2.708  11.818   6.357  0.6807  2.0169 -2.1115
29551SOL     OW  376   1.686   1.741   2.951 -0.2317  0.7843 -0.4853
29551SOL    HW1  377   1.632   1.807   2.908  1.7828  2.9547  0.1165
29551SOL    HW2  378   1.713   1.782   3.034  0.3623 -1.1694  0.3556
29552SOL     OW  379   2.125   0.369  10.085  0.3423 -0.2860  0.4553
29552SOL    HW1  380   2.091   0.348  10.173 -0.8741  0.8561  0.2824
29552SOL    HW2  381   2.158   0.458  10.093  0.0809 -0.1183 -0.2779
29553SOL     OW  382   6.873   2.237   3.137 -0.6049  0.1040 -0.2516
29553SOL    HW1  383   6.891   2.148   3.165 -0.0157  0.5446  0.8151
29553SOL    HW2  384   6.778   2.245   3.142 -0.8301 -0.9622 -1.9675
29554SOL     OW  385  11.711   4.688  11.844 -0.3110 -0.0712 -0.4743
29554SOL    HW1  386  11.701   4.760  11.781  0.3936  0.8052  0.3752
29554SOL    HW2  387  11.641   4.703  11.908  1.0855  1.1594  0.8716
29555SOL     OW  388   1.951  10.424  10.071  0.4602  0.1143 -0.0323
29555SOL    HW1  389   1.869  10.421  10.021 -0.2082 -1.4037  1.0988
29555SOL    HW2  390   2.018  10.401  10.007 -0.5389 -3.2851 -0.0658
29556SOL     OW  391   2.351  10.961   8.413  0.0372  0.1913  0.1155
29556SOL    HW1  392   2.380  10.877   8.380 -0.6618  0.0121 -0.0612
29556SOL    HW2  393   2.322  10.943   8.503  0.4181  0.3566  0.2735
29557SOL     OW  394   8.437  11.191  10.491 -0.5630 -0.4416  0.1192
29557SOL    HW1  395   8.373  11.232  10.549 -0.8877  0.1901 -0.6570
29557SOL    HW2  396   8.415  11.098  10.493  0.3615 -0.6532  2.1225
29558SOL     OW  397   0.509   4.495   2.939 -0.4177  0.6542  0.2194
29558SOL    HW1  398   0.442   4.467   2.877  0.3427 -1.0912  0.1397
29558SOL    HW2  399   0.475   4.471   3.025 -0.8750  1.8404  0.3833
29559SOL     OW  400   9.890   7.907  11.683 -0.0925 -0.6894 -0.7451
29559SOL    HW1  401   9.869   8.000  11.694 -1.8732 -0.9889 -1.2134
29559SOL    HW2  402   9.950   7.905  11.609  0.1286  0.1101 -0.5997
29560SOL     OW  403   4.271  10.004   7.602 -0.1149 -0.3389  0.0037
29560SOL    HW1  404   4.255   9.917   7.640  0.4050  0.0166  1.0702
29560SOL    HW2  405   4.365  10.006   7.586 -0.3630 -0.6123 -1.7053
29561SOL     OW  406   6.792   7.725   0.828 -0.8830  0.0628 -0.3781
29561SOL    HW1  407   6.859   7.740   0.762 -0.5252 -0.6083 -0.1654
29561SOL    HW2  408   6.754   7.812   0.843  0.8511  0.7102  0.4919
29562SOL     OW  409   9.714   7.578   6.107  0.3723 -0.6549 -0.3229
29562SOL    HW1  410   9.701   7.569   6.202 -1.1973 -1.7261 -0.6055
29562SOL    HW2  411   9.639   7.534   6.068 -0.0196  1.3699 -2.0756
29563SOL     OW  412   4.071  11.821   6.692  0.3446 -0.1826 -0.0483
29563SOL    HW1  413   4.084  11.885   6.622 -0.5258  1.8039  1.5113
29563SOL    HW2  414   4.079  11.736   6.648 -1.8393  0.9308 -2.9123
29564SOL     OW  415  11.860   4.876   9.188 -0.1685  0.1253 -0.1066
29564SOL    HW1  416  11.862   4.892   9.282  0.1667 -0.1923 -0.0593
29564SOL    HW2  417  11.782   4.922   9.158  0.6364  1.6935  0.0591
29565SOL     OW  418   1.084   8.643  10.493  0.0870  0.5425 -0.9051
29565SOL    HW1  419   1.013   8.606  10.546  1.3648  0.2117  0.6583
29565SOL    HW2  420   1.139   8.568  10.470  0.9538  1.0143 -0.4520
29566SOL     OW  421   7.255  10.738   9.890  0.3724  0.0831 -0.1121
29566SOL    HW1  422   7.304  10.707   9.966 -0.1524 -1.1266 -0.2582
29566SOL    HW2  423   7.227  10.659   9.845 -0.3878  0.7763 -0.8908
29567SOL     OW  424   1.702  11.703   4.327 -0.3627  0.1015  0.0570
29567SOL    HW1  425   1.766  11.675   4.392 -0.0945  1.1462  0.2546
29567SOL    HW2  426   1.745  11.773   4.279 -0.7148 -0.3648 -0.9705
29568SOL     OW  427   1.445   7.284   3.441 -0.3624 -0.3266  0.1768
29568SOL    HW1  428   1.404   7.338   3.374 -1.7538 -0.4527  0.8746
29568SOL    HW2  429   1.380   7.281   3.512  1.0415 -0.2141  1.5187
29569SOL     OW  430   6.830  11.156   7.258 -0.3607  0.4363 -0.4009
29569SOL    HW1  431   6.835  11.063   7.237  0.9532 -0.0831  1.8476
29569SOL    HW2  432   6.740  11.170   7.286 -0.1783 -0.5719  0.7750
29570SOL     OW  433   6.433   3.826   1.672 -0.7720  0.8797  0.6038
29570SOL    HW1  434   6.403   3.791   1.588 -0.1275  0.9450  0.3479
29570SOL    HW2  435   6.417   3.754   1.734  1.2471 -0.2132 -0.0442
29571SOL     OW  436   4.119   1.359   3.577 -0.3366  0.6612  0.3285
29571SOL    HW1  437   4.039   1.344   3.526  0.6575  0.3589 -1.2248
29571SOL    HW2  438   4.110   1.448   3.611 -2.1451 -0.0187  1.7878
29572SOL     OW  439   2.740   4.886   7.186  0.4912 -0.4853  0.0443
29572SOL    HW1  440   2.697   4.870   7.102 -0.7484 -0.2047  0.6001
29572SOL    HW2  441   2.772   4.976   7.179 -0.1726 -0.2363  0.0907
29573SOL     OW  442  11.605   9.534   4.805 -0.2061  0.2018  0.3112
29573SOL    HW1  443  11.601   9.533   4.709  0.3308  0.7392  0.2765
29573SOL    HW2  444  11.649   9.617   4.826  0.7924 -0.4705  0.9749
29574SOL     OW  445   4.897  11.750   9.593 -0.1841  0.0849  0.6170
29574SOL    HW1  446   4.834  11.733   9.663 -0.1495 -1.1194  0.3803
29574SOL    HW2  447   4.982  11.752   9.637 -0.2696  0.4373  0.7646
29575SOL     OW  448   8.149   7.109   9.362  0.1436 -0.1057  0.4918
29575SOL    HW1  449   8.182   7.140   9.446  0.0313  0.7700  0.2261
29575SOL    HW2  450   8.098   7.031   9.383  0.8632 -0.4109  1.1221
29576SOL     OW  451   3.248  11.052   5.194 -0.1015  0.5780 -0.2669
29576SOL    HW1  452   3.279  10.965   5.168  0.7249  0.4625  1.0083
29576SOL    HW2  453   3.155  11.052   5.171 -0.7342 -1.5445  1.7977
29577SOL     OW  454  10.586   4.129   1.636 -0.0749 -0.2780 -0.3335
29577SOL    HW1  455  10.568   4.152   1.727 -0.3758 -1.8362  0.0173
29577SOL    HW2  456  10.632   4.206   1.601 -0.0507  0.3877  1.0870
29578SOL     OW  457   2.801  11.689   7.792 -0.1546 -0.2233  0.0201
29578SOL    HW1  458   2.768  11.599   7.785 -0.8082  0.0694 -0.6799
29578SOL    HW2  459   2.877  11.681   7.851 -1.7105 -0.8434  2.0606
29579SOL     OW  460   7.346   6.337  10.449 -0.0818  0.7367 -0.2966
29579SOL    HW1  461   7.314   6.286  10.375  0.6702  0.5004 -0.4652
29579SOL    HW2  462   7.407   6.399  10.411  1.3498 -0.2687  0.2610
29580SOL     OW  463   4.859  10.471   3.580 -0.0166 -0.0681  0.2024
29580SOL    HW1  464   4.952  10.468   3.603 -0.0590  1.7975  0.7805
29580SOL    HW2  465   4.814  10.476   3.664 -0.8264 -2.9817  0.0428
29581SOL     OW  466   4.683   3.472   6.310  0.3175 -0.0253  0.2314
29581SOL    HW1  467   4.601   3.462   6.262 -0.2509  1.0210  0.9319
29581SOL    HW2  468   4.751   3.475   6.243 -0.2213 -0.8344 -0.3623
29582SOL     OW  469  10.717   0.928   8.809 -0.0331  0.1228  0.2399
29582SOL    HW1  470  10.802   0.884   8.814 -0.1684 -0.1343  0.2646
29582SOL    HW2  471  10.737   1.013   8.770  0.2676  0.1486  0.4511
29583SOL     OW  472   7.015   8.982   9.104  0.0420 -0.1422 -0.0896
29583SOL    HW1  473   7.014   8.897   9.149  0.5278  0.1432  0.4593
29583SOL    HW2  474   6.989   9.045   9.170 -0.2963  0.1526 -0.4937
29584SOL     OW  475   4.005  10.896  11.140 -0.5678 -0.1027  0.2200
29584SOL    HW1  476   4.092  10.919  11.173 -1.2362  1.1393  1.1970
29584SOL    HW2  477   3.985  10.813  11.182  0.2068 -0.4897 -0.1488
29585SOL     OW  478   8.790   3.523   1.028 -0.1203  0.3358  0.0503
29585SOL    HW1  479   8.815   3.496   1.116  0.0954  1.0177  0.2103
29585SOL    HW2  480   8.695   3.537   1.034 -0.2478 -0.4470 -0.0595
29586SOL     OW  481   1.348   4.986   9.996  0.2319 -0.0613  0.0639
29586SOL    HW1  482   1.351   4.892  10.013  1.9003 -0.0897 -0.2819
29586SOL    HW2  483   1.438   5.016  10.007 -0.4730  1.7504  1.4117
29587SOL     OW  484   6.327   0.484   3.214  0.2059  0.0085  0.1566
29587SOL    HW1  485   6.346   0.406   3.163  0.2337 -0.3987  0.7910
29587SOL    HW2  486   6.233   0.477   3.234  0.5180 -0.6227  1.4786
29588SOL     OW  487   3.389   1.296   7.570 -0.3134  0.1172  0.2004
29588SOL    HW1  488   3.333   1.369   7.545  1.6556  0.7228 -2.9679
29588SOL    HW2  489   3.441   1.329   7.643  0.7471  2.0562 -1.3601
29589SOL     OW  490   1.485   0.681   2.022  0.5739  0.3051 -0.2676
29589SOL    HW1  491   1.543   0.607   2.005  2.1740  1.6246 -0.8945
29589SOL    HW2  492   1.439   0.695   1.939 -0.3293 -0.4714  0.0959
29590SOL     OW  493   0.941  10.349   4.959  0.0220 -0.6014 -0.8568
29590SOL    HW1  494   0.884  10.276   4.983 -1.3275  0.8315  0.6702
29590SOL    HW2  495   0.894  10.393   4.888  0.4390 -0.7760 -1.2420
29591SOL     OW  496   6.110   9.275   5.688 -0.0726 -0.0043 -0.2462
29591SOL    HW1  497   6.042   9.231   5.638  0.5623 -0.4126 -0.7721
29591SOL    HW2  498   6.063   9.340   5.741 -0.7646  0.4498 -1.3728
29592SOL     OW  499   9.124   4.040  11.465  0.8025  0.1858  0.1048
29592SOL    HW1  500   9.081   3.993  11.536  0.8085 -2.0879 -1.3069
29592SOL    HW2  501   9.091   4.130  11.472 -2.2833 -0.8762  0.5893
29593SOL     OW  502   4.253   7.420   5.982 -0.2781  0.1195  0.5181
29593SOL    HW1  503   4.206   7.471   5.915  0.0590  2.0671  1.7013
29593SOL    HW2  504   4.344   7.445   5.971 -0.2491  0.6343  1.8523
29594SOL     OW  505   3.210   5.401  10.504 -0.3753  0.0451 -0.2006
29594SOL    HW1  506   3.280   5.359  10.454 -1.1941 -1.0470 -0.4707
29594SOL    HW2  507   3.170   5.463  10.443 -0.7218 -0.5512 -0.5846
29595SOL     OW  508   0.105   1.812   4.231  0.3614 -0.3227  0.1520
29595SOL    HW1  509   0.028   1.869   4.232  0.8541  0.4257 -1.4544
29595SOL    HW2  510   0.139   1.817   4.320 -1.4185 -0.6606  0.8995
29596SOL     OW  511  10.484   6.684   4.808 -0.2785  0.3110  0.0379
29596SOL    HW1  512  10.531   6.767   4.804  1.5623 -0.6134  1.2416
29596SOL    HW2  513  10.392   6.708   4.799  0.2420  2.4247 -0.1024
29597SOL     OW  514   7.350   8.792   2.742 -0.3349 -0.6795  0.5651
29597SOL    HW1  515   7.302   8.874   2.753 -0.6695 -0.8895  0.7209
29597SOL    HW2  516   7.396   8.801   2.659 -0.0056 -0.1519  0.8038
29598SOL     OW  517   0.767   0.842   3.139  0.8118  0.1785  0.0940
29598SOL    HW1  518   0.692   0.880   3.094  0.4026 -0.3065  0.3516
29598SOL    HW2  519   0.768   0.884   3.224  1.2196  0.6508 -0.1406
29599SOL     OW  520  11.692   0.690  10.604 -0.4456  0.3044  0.0136
29599SOL    HW1  521  11.774   0.733  10.579 -0.5973  0.5210 -0.1087
29599SOL    HW2  522  11.657   0.745  10.675 -0.7951  0.5562 -0.3520
29600SOL     OW  523   7.776   6.975   6.431 -0.4814  0.0157 -0.4784
29600SOL    HW1  524   7.818   6.891   6.412  0.7149  0.0350  1.7672
29600SOL    HW2  525   7.747   6.967   6.522  0.3428  2.2727  0.0448
29601SOL     OW  526  11.239   4.464   8.753  0.3242 -0.2018 -0.1050
29601SOL    HW1  527  11.298   4.446   8.680 -1.1507 -0.5725 -1.2765
29601SOL    HW2  528  11.164   4.406   8.737  0.3460 -0.9876  2.2460
29602SOL     OW  529   8.816   5.902   8.516  0.2720 -0.2819 -0.4768
29602SOL    HW1  530   8.751   5.924   8.583  0.1708 -1.7551 -0.0435
29602SOL    HW2  531   8.892   5.957   8.538 -0.2653  0.2984 -0.0327
29603SOL     OW  532   0.970   9.544   2.932  0.4893  0.1352 -0.3968
29603SOL    HW1  533   0.892   9.596   2.911 -0.2677 -0.7454  0.1636
29603SOL    HW2  534   1.026   9.553   2.854 -0.2232  0.6774 -0.8615
29604SOL     OW  535   6.839   2.247   8.987  0.0217 -0.1276 -0.2897
29604SOL    HW1  536   6.811   2.198   8.910  0.5232 -1.3797  0.2977
29604SOL    HW2  537   6.906   2.192   9.027 -0.5536  0.2670  1.2894
29605SOL     OW  538   2.629   8.713   5.953  0.5808 -0.6760 -0.0536
29605SOL    HW1  539   2.696   8.778   5.972  1.4242 -0.8955 -1.9697
29605SOL    HW2  540   2.678   8.640   5.914 -0.8431 -0.3370 -2.6956
29606SOL     OW  541   9.368   6.707  10.353 -0.0065 -0.2586 -0.1888
29606SOL    HW1  542   9.304   6.636  10.351  1.3763 -1.5568 -2.0914
29606SOL    HW2  543   9.318   6.784  10.381 -2.1392 -1.4337 -0.5524
29607SOL     OW  544  10.577   5.645   6.946 -0.9264 -0.3536  0.2347
29607SOL    HW1  545  10.595   5.727   6.900  2.9497 -1.9388 -1.5644
29607SOL    HW2  546  10.501   5.609   6.902 -1.1536  1.0813 -0.6225
29608SOL     OW  547   2.793   5.586   0.090 -0.0692 -0.0010 -0.8641
29608SOL    HW1  548   2.746   5.579   0.006 -0.0460  0.8007 -0.9496
29608SOL    HW2  549   2.844   5.667   0.082  0.4796 -0.2906 -0.3421
29609SOL     OW  550   3.784   9.264   4.759  0.1163 -0.6046  0.0731
29609SOL    HW1  551   3.859   9.306   4.718  0.9394 -2.7118 -0.7622
29609SOL    HW2  552   3.707   9.311   4.725  1.0009  0.8088 -0.0132
29610SOL     OW  553   0.836   5.753   9.351  0.1974 -0.8271  0.4617
29610SOL    HW1  554   0.790   5.752   9.267  2.6978  1.3077 -1.0596
29610SOL    HW2  555   0.923   5.719   9.331  1.1105  0.4822  2.0144
29611SOL     OW  556   4.302   6.056   0.178  0.0665 -0.2083 -0.6694
29611SOL    HW1  557   4.280   5.977   0.128 -0.6882 -0.0509 -0.6062
29611SOL    HW2  558   4.298   6.029   0.269 -1.0291  0.0852 -0.6126
29612SOL     OW  559   3.690   0.255   8.865 -0.3045  0.0234  0.4104
29612SOL    HW1  560   3.594   0.249   8.864 -0.2977 -0.6578  1.7769
29612SOL    HW2  561   3.719   0.165   8.848  0.1676  0.6030 -2.3253
29613SOL     OW  562   7.746   1.967  10.841 -0.1670 -0.7586 -0.7253
29613SOL    HW1  563   7.656   1.936  10.851 -0.0075 -1.0157  0.0604
29613SOL    HW2  564   7.781   1.966  10.931 -0.0231  1.3403 -0.7026
29614SOL     OW  565   6.896   5.017   1.373 -0.0789 -0.0557 -0.1717
29614SOL    HW1  566   6.825   4.957   1.394  0.4485 -0.8175 -0.5341
29614SOL    HW2  567   6.853   5.102   1.364 -0.6732 -0.1513  1.4558
29615SOL     OW  568   3.280   6.466   9.616  0.0241 -0.0656  0.3117
29615SOL    HW1  569   3.200   6.470   9.563 -0.6269 -2.4657  0.9630
29615SOL    HW2  570   3.251   6.490   9.704  0.2559  0.0990  0.3431
29616SOL     OW  571   8.165   9.420   9.068 -0.6440 -0.1109 -0.0294
29616SOL    HW1  572   8.197   9.367   8.996 -0.8142  0.0008 -0.1867
29616SOL    HW2  573   8.221   9.396   9.142 -0.3812 -0.1232 -0.2321
29617SOL     OW  574   6.534   2.451   4.982 -0.1703 -0.1071  0.5221
29617SOL    HW1  575   6.560   2.365   4.948 -2.1595 -0.9778  1.0544
29617SOL    HW2  576   6.521   2.505   4.904  0.2745 -0.5232  0.1495
29618SOL     OW  577   5.614   3.786   2.385 -0.1543 -0.0306 -0.2193
29618SOL    HW1  578   5.566   3.704   2.374 -1.5151  0.6800  0.2049
29618SOL    HW2  579   5.582   3.822   2.468 -0.2331  1.3450 -0.8208
29619SOL     OW  580  10.498   0.136  11.745  0.5586 -0.4610 -0.4355
29619SOL    HW1  581  10.535   0.209  11.794  1.3157  0.5815 -2.4466
29619SOL    HW2  582  10.417   0.115  11.791  0.6435  1.2363  0.5730
29620SOL     OW  583   1.534   6.470   4.299 -0.0321 -0.6573 -0.3914
29620SOL    HW1  584   1.562   6.538   4.237 -0.7009  1.0780  1.0989
29620SOL    HW2  585   1.508   6.519   4.377 -1.2050 -2.6215  0.5127
29621SOL     OW  586  11.101  10.323   7.964  0.4459  0.5276 -0.4121
29621SOL    HW1  587  11.055  10.241   7.980 -0.0421  0.7515 -0.6560
29621SOL    HW2  588  11.074  10.380   8.036 -0.2803  0.9183 -0.9889
29622SOL     OW  589   3.405   3.256   7.817 -0.6683 -0.0882  0.0334
29622SOL    HW1  590   3.449   3.253   7.732 -2.3035 -0.8474 -0.8300
29622SOL    HW2  591   3.450   3.325   7.865  0.6350 -0.0005 -1.2400
29623SOL     OW  592   1.756   4.234   8.844  0.1813  0.3064  0.1943
29623SOL    HW1  593   1.678   4.198   8.802 -0.2012  1.7599 -0.4117
29623SOL    HW2  594   1.754   4.197   8.933 -2.0704  1.4579  0.7091
29624SOL     OW  595   1.864   6.396   8.555 -0.2104 -0.2964  0.4497
29624SOL    HW1  596   1.903   6.480   8.533 -0.4237 -0.5735 -1.0921
29624SOL    HW2  597   1.781   6.418   8.597  1.0876  0.2821  2.8884
29625SOL     OW  598   9.994   7.100   4.331 -0.9526  0.0371  0.3359
29625SOL    HW1  599   9.939   7.053   4.395 -0.6364  0.2158  0.7441
29625SOL    HW2  600  10.054   7.151   4.385 -1.1063  0.6896 -0.1114
29626SOL     OW  601   4.661   3.792  10.123 -0.1594  0.4376  0.2273
29626SOL    HW1  602   4.625   3.881  10.123  0.4308  0.7121  1.5996
29626SOL    HW2  603   4.724   3.791  10.051 -0.2430  1.0931  0.1419
29627SOL     OW  604   9.333   2.824   8.080  0.3714  0.1227 -0.3149
29627SOL    HW1  605   9.255   2.813   8.134 -0.5275  0.4287 -1.5149
29627SOL    HW2  606   9.357   2.735   8.054 -1.1611  0.1363 -2.0590
29628SOL     OW  607  10.468   7.638  11.238 -0.1083  0.3919 -0.2862
29628SOL    HW1  608  10.405   7.569  11.222  1.1751 -0.4929 -1.8238
29628SOL    HW2  609  10.478   7.682  11.154 -0.9142  2.5021  0.6629
29629SOL     OW  610   2.697  11.177   1.111 -0.2331 -0.3522 -0.4504
29629SOL    HW1  611   2.630  11.179   1.179 -0.6118  1.0339 -0.8293
29629SOL    HW2  612   2.664  11.236   1.043  1.9538  1.4634 -0.0616
29630SOL     OW  613   7.904   9.295   2.727 -0.2776 -0.1004  0.1578
29630SOL    HW1  614   7.907   9.386   2.756  0.8531 -0.3460  0.9185
29630SOL    HW2  615   7.990   9.280   2.686  0.0594 -1.1525  1.1864
29631SOL     OW  616   6.041  11.296   9.680  0.4182 -0.3121  0.4195
29631SOL    HW1  617   6.024  11.382   9.719  2.1783  0.1722  0.1823
29631SOL    HW2  618   5.955  11.266   9.650 -0.1178  1.6807 -0.1621
29632SOL     OW  619   6.669  11.451   6.338 -0.2455 -0.4862  0.5952
29632SOL    HW1  620   6.654  11.476   6.430  0.9959  0.4696  0.5723
29632SOL    HW2  621   6.611  11.508   6.288  1.5181  1.4565  0.6317
29633SOL     OW  622   9.161   5.763  10.989 -0.4066  0.0865 -0.3472
29633SOL    HW1  623   9.128   5.809  10.912  1.0210 -0.7444 -1.4909
29633SOL    HW2  624   9.217   5.827  11.033 -0.8423  0.4086 -0.2552
29634SOL     OW  625  11.110  11.481   4.845 -0.5607 -0.8430  0.1649
29634SOL    HW1  626  11.140  11.451   4.931 -2.6697 -1.4061  0.7642
29634SOL    HW2  627  11.021  11.513   4.861 -0.6876 -0.1884 -1.6666
29635SOL     OW  628   4.046   2.322   6.606 -0.5625  0.2333  0.2710
29635SOL    HW1  629   4.013   2.316   6.696 -0.6736  0.6731  0.2608
29635SOL    HW2  630   3.985   2.382   6.563 -1.3175 -1.0308 -0.4597
29636SOL     OW  631   4.309   3.979   9.226 -0.3286 -0.1538  1.0938
29636SOL    HW1  632   4.315   3.887   9.203  1.2925  0.2214 -0.1938
29636SOL    HW2  633   4.240   4.014   9.169 -0.7290 -0.5014  1.3640
29637SOL     OW  634   9.452   7.048   8.629 -0.3476 -0.6460 -0.4574
29637SOL    HW1  635   9.468   7.100   8.708  0.3615 -1.0452 -0.3268
29637SOL    HW2  636   9.435   6.960   8.661 -0.9507 -0.6272 -0.7117
29638SOL     OW  637   7.494  11.468   1.314 -0.2625 -0.0076  0.3525
29638SOL    HW1  638   7.576  11.485   1.360  1.0428 -2.1642 -1.0046
29638SOL    HW2  639   7.446  11.409   1.373  0.0108 -0.2506  0.3368
29639SOL     OW  640   0.042   0.414  11.924 -0.2557 -0.5154 -0.0732
29639SOL    HW1  641  -0.051   0.423  11.941 -0.1767 -1.3105  0.8959
29639SOL    HW2  642   0.081   0.396  12.010  1.0222  1.3724 -0.1952
29640SOL     OW  643   6.237   4.595  10.937 -0.0581 -0.4089  0.0784
29640SOL    HW1  644   6.313   4.600  10.995  0.7570 -0.7677 -0.9263
29640SOL    HW2  645   6.274   4.585  10.850 -1.2717 -1.1031 -0.3845
29641SOL     OW  646   7.654   6.717  11.819 -0.2756  0.4453  0.2338
29641SOL    HW1  647   7.646   6.628  11.852 -0.3849 -0.5070 -2.1356
29641SOL    HW2  648   7.747   6.728  11.800 -0.4274  0.3621 -0.6130
29642SOL     OW  649   9.043   5.634   8.329 -0.2260  0.3232  0.1185
29642SOL    HW1  650   9.036   5.724   8.296  0.4038  0.3838  0.1376
29642SOL    HW2  651   8.988   5.582   8.271 -0.2778  0.6568 -0.1328
29643SOL     OW  652   7.001   7.642   2.390  0.1479 -0.4911  0.2847
29643SOL    HW1  653   6.908   7.649   2.413  0.3425  0.1512  0.8839
29643SOL    HW2  654   7.024   7.552   2.413  0.5549  0.3284  3.5346
29644SOL     OW  655   0.405   3.616   5.286 -0.1152 -0.3621  0.4566
29644SOL    HW1  656   0.481   3.631   5.230  0.7816  1.2916  2.0110
29644SOL    HW2  657   0.332   3.652   5.236  0.1385 -1.5997 -0.8791
29645SOL     OW  658   0.801  11.710   7.509  0.2156 -0.2340  0.0190
29645SOL    HW1  659   0.862  11.639   7.526 -0.5143 -1.1590 -1.0950
29645SOL    HW2  660   0.776  11.699   7.417 -0.5587  0.9535  0.0663
29646SOL     OW  661   7.523   3.589   7.005 -0.0369 -0.0492 -0.6376
29646SOL    HW1  662   7.506   3.654   7.073 -0.7333 -0.4146 -0.4515
29646SOL    HW2  663   7.472   3.619   6.930  0.8165  0.4121 -1.0513
29647SOL     OW  664   7.038  11.519   5.898 -0.7450  0.4811  0.1347
29647SOL    HW1  665   7.027  11.450   5.963 -2.4273 -0.4790 -1.0981
29647SOL    HW2  666   7.099  11.482   5.834  2.1727  2.0032  1.8166
29648SOL     OW  667   2.955   1.580   7.749  0.1671  0.4761  0.0715
29648SOL    HW1  668   2.943   1.629   7.667  0.2632  0.2900 -0.0571
29648SOL    HW2  669   3.048   1.558   7.749  0.0849  0.1273  0.0328
29649SOL     OW  670   7.246   1.647   2.297  0.7959  0.0150 -0.3300
29649SOL    HW1  671   7.162   1.667   2.257  0.3459  0.2143  0.6938
29649SOL    HW2  672   7.232   1.564   2.343  1.3444 -0.2817 -0.6824
29650SOL     OW  673   6.554   9.761   7.169 -0.3939 -0.2988 -0.6792
29650SOL    HW1  674   6.502   9.837   7.143  0.8758 -0.2406 -3.4195
29650SOL    HW2  675   6.501   9.686   7.145 -0.4018 -0.2609 -0.7794
29651SOL     OW  676   4.837  10.902   2.864 -0.2541  0.1291  0.2937
29651SOL    HW1  677   4.857  10.975   2.806  2.1051 -0.9629 -0.3852
29651SOL    HW2  678   4.757  10.863   2.827 -1.2195  1.9658  0.3463
29652SOL     OW  679   8.539   8.261   3.004 -0.2065 -0.2617 -0.1760
29652SOL    HW1  680   8.485   8.298   2.934  0.4832 -1.2651 -1.2770
29652SOL    HW2  681   8.629   8.277   2.976  0.0798 -0.3551  0.6727
29653SOL     OW  682   5.242   8.307   5.445 -0.5019  0.0622 -0.2754
29653SOL    HW1  683   5.182   8.313   5.520  0.9051  0.0405  0.9162
29653SOL    HW2  684   5.274   8.396   5.432  1.7621 -0.4131  1.3780
29654SOL     OW  685   4.717   3.616   9.782  0.1811  0.3179 -0.3497
29654SOL    HW1  686   4.677   3.690   9.735 -1.8691  0.3693  1.3533
29654SOL    HW2  687   4.782   3.657   9.839 -0.8911  0.8326  0.5321
29655SOL     OW  688  11.531  10.276   3.046 -0.1450 -0.8028 -0.2034
29655SOL    HW1  689  11.461  10.338   3.022 -0.7600 -1.5846 -0.4977
29655SOL    HW2  690  11.553  10.233   2.964  0.9656 -0.3006 -0.1786
29656SOL     OW  691   1.557   4.333   7.021 -0.4676  0.3982 -0.3100
29656SOL    HW1  692   1.552   4.247   7.062  0.2987 -0.1544 -1.3241
29656SOL    HW2  693   1.516   4.392   7.084 -2.6982 -0.9654 -0.3681
29657SOL     OW  694   8.995   6.274   5.656 -0.0382  0.0811 -0.1468
29657SOL    HW1  695   8.909   6.314   5.671 -0.0041  0.0243  0.2113
29657SOL    HW2  696   8.990   6.239   5.567 -0.5134 -0.2410  0.0009
29658SOL     OW  697   9.844   7.322   5.593 -0.0895  0.7926  0.1275
29658SOL    HW1  698   9.920   7.274   5.625 -0.0819  0.0279 -0.9838
29658SOL    HW2  699   9.878   7.373   5.519 -0.4161  1.3655  0.3653
29659SOL     OW  700   5.176   2.740   3.048 -0.1339 -0.1311 -0.0616
29659SOL    HW1  701   5.154   2.732   3.141  1.9176 -0.3440  0.4438
29659SOL    HW2  702   5.201   2.651   3.022  2.6152  0.5236  0.1204
29660SOL     OW  703   6.882  10.916   7.682  0.4529  0.1567  0.4487
29660SOL    HW1  704   6.838  10.832   7.672  2.0233 -0.6158 -0.4658
29660SOL    HW2  705   6.915  10.915   7.772 -1.9185  1.0750  1.4113
29661SOL     OW  706  11.002   3.468   7.545 -0.2097 -0.5052  0.3599
29661SOL    HW1  707  10.962   3.554   7.557  0.6366  0.0070 -0.4128
29661SOL    HW2  708  10.930   3.406   7.557 -1.2080  0.3922 -0.7495
29662SOL     OW  709   4.242   9.449   8.795  0.1861 -1.1256  0.0769
29662SOL    HW1  710   4.279   9.369   8.758  0.1471 -1.2472  0.2993
29662SOL    HW2  711   4.148   9.441   8.780 -0.0897 -2.1415  1.9985
29663SOL     OW  712  10.768   3.775   8.053  0.6912  0.2155 -0.2304
29663SOL    HW1  713  10.733   3.693   8.088 -2.7443  1.1159 -1.0907
29663SOL    HW2  714  10.788   3.828   8.130 -0.5961 -0.1363  0.3735
29664SOL     OW  715   5.596   6.091   5.962 -0.0700 -0.1976  0.1708
29664SOL    HW1  716   5.593   6.178   5.921  0.5575 -0.1758  0.1624
29664SOL    HW2  717   5.544   6.101   6.041 -0.3466  0.0760 -0.0432
29665SOL     OW  718   2.161   3.012   7.046  0.1112  0.1837 -0.5041
29665SOL    HW1  719   2.097   2.941   7.042  1.8805 -1.4837 -1.0574
29665SOL    HW2  720   2.161   3.050   6.958 -0.9140  0.9836 -0.1786
29666SOL     OW  721   9.066   9.859   4.743 -0.2276 -0.1161 -0.3585
29666SOL    HW1  722   9.151   9.837   4.782 -0.7490 -2.9219 -0.5341
29666SOL    HW2  723   9.012   9.888   4.816 -0.3530 -2.6034  0.6642
29667SOL     OW  724   0.504  10.065  10.311  0.6195  0.2286 -0.0025
29667SOL    HW1  725   0.469   9.977  10.302  1.8771 -0.4026  0.9570
29667SOL    HW2  726   0.517  10.095  10.221 -0.5491 -0.2422 -0.3410
29668SOL     OW  727   2.993   5.173   7.662  0.0476 -0.2510  0.4562
29668SOL    HW1  728   3.087   5.165   7.677  0.3858 -1.2059 -1.8089
29668SOL    HW2  729   2.957   5.090   7.693  0.1593 -0.4805 -0.0222
29669SOL     OW  730   3.436   9.111   6.845  0.5871  0.6074  0.4418
29669SOL    HW1  731   3.511   9.168   6.859  0.0437  1.4551 -0.0267
29669SOL    HW2  732   3.383   9.157   6.780  0.0168 -0.3191  0.2353
29670SOL     OW  733  10.399   0.531  10.921 -0.1204 -0.6893 -0.0471
29670SOL    HW1  734  10.352   0.448  10.924  0.7305 -1.1813  0.2289
29670SOL    HW2  735  10.480   0.514  10.969  0.5699 -0.0282 -0.9338
29671SOL     OW  736   3.086  11.433   2.582 -0.1326 -0.5231 -0.0674
29671SOL    HW1  737   3.050  11.352   2.617  0.9428 -0.4132  1.4034
29671SOL    HW2  738   3.044  11.502   2.633 -2.6041  0.0732 -2.6831
29672SOL     OW  739   3.054   7.146  10.705 -0.0619  0.0743 -0.3636
29672SOL    HW1  740   3.079   7.116  10.617 -1.1786  2.5732 -1.6301
29672SOL    HW2  741   2.961   7.165  10.698 -0.0506  0.8470  1.2331
29673SOL     OW  742   1.149   4.656   9.169 -0.0338 -0.3260 -0.1406
29673SOL    HW1  743   1.117   4.711   9.098  1.7781 -1.6198 -2.0742
29673SOL    HW2  744   1.241   4.641   9.148 -0.6786 -5.3140 -0.7049
29674SOL     OW  745   7.369   3.346  11.091  0.1915 -0.1418 -0.2575
29674SOL    HW1  746   7.357   3.277  11.025  1.2378 -1.4779  0.8867
29674SOL    HW2  747   7.294   3.336  11.150 -0.2234  0.4075 -0.6891
29675SOL     OW  748   1.959  10.594   6.324  0.0533 -0.0730  0.1344
29675SOL    HW1  749   1.902  10.659   6.365  2.3647  2.4692 -0.4204
29675SOL    HW2  750   2.009  10.556   6.396 -0.5893 -0.5823  0.3345
29676SOL     OW  751   1.080   4.562   3.686  0.4903 -0.5096 -0.0734
29676SOL    HW1  752   1.158   4.506   3.691  0.9585  0.2250  1.2667
29676SOL    HW2  753   1.106   4.634   3.629 -0.3637 -1.9605 -2.4494
29677SOL     OW  754   5.055   7.158   3.267  0.0730 -0.4416 -0.4207
29677SOL    HW1  755   5.133   7.214   3.268 -1.4228  1.8023 -0.6256
29677SOL    HW2  756   5.010   7.178   3.349 -0.7147 -1.0348 -0.6951
29678SOL     OW  757   3.558   1.624   1.838 -0.1201 -0.1102 -0.3286
29678SOL    HW1  758   3.469   1.655   1.820 -0.7212 -0.4423  1.8195
29678SOL    HW2  759   3.551   1.529   1.832 -0.3568 -0.2404  1.4735
29679SOL     OW  760   2.701   1.014  10.549 -0.3311 -0.4446 -0.9654
29679SOL    HW1  761   2.672   1.084  10.607  1.1689 -0.3929 -0.2501
29679SOL    HW2  762   2.750   1.058  10.480  0.9688 -0.7891 -0.2922
29680SOL     OW  763   9.218  11.376   0.102 -0.1700  0.6833 -0.3688
29680SOL    HW1  764   9.174  11.461   0.109 -0.8434  0.4884 -1.7893
29680SOL    HW2  765   9.156  11.322   0.053  0.0791 -0.7642  0.8696
29681SOL     OW  766   6.326  10.790  10.555  0.0405  0.0862  0.0936
29681SOL    HW1  767   6.340  10.714  10.500 -1.5165  0.3219 -0.6966
29681SOL    HW2  768   6.236  10.818  10.535 -0.1562  0.9056  1.8626
29682SOL     OW  769   9.712   4.331   9.494 -0.1379 -0.0701  0.0994
29682SOL    HW1  770   9.631   4.382   9.487 -0.6756 -0.9541 -0.4282
29682SOL    HW2  771   9.750   4.334   9.406 -1.4615 -2.5605 -0.6648
29683SOL     OW  772   6.375   8.651   8.315 -0.1665 -0.3427  0.7967
29683SOL    HW1  773   6.437   8.631   8.245  0.4015 -0.5880  1.3519
29683SOL    HW2  774   6.431   8.677   8.388 -0.7850  0.8020  0.8783
29684SOL     OW  775   4.805   6.041   2.350  0.7453  0.0509 -0.2415
29684SOL    HW1  776   4.880   6.012   2.299  0.3402 -1.7863  0.1306
29684SOL    HW2  777   4.784   5.966   2.407 -1.3802  0.4836 -0.3709
29685SOL     OW  778   8.585   3.138   1.803  0.4235  0.2733 -0.4146
29685SOL    HW1  779   8.553   3.226   1.783  1.3097  0.9618  1.1162
29685SOL    HW2  780   8.671   3.151   1.843  0.6120 -1.2983 -0.2370
29686SOL     OW  781   9.915   3.430   8.240  0.0254 -0.4521  0.1119
29686SOL    HW1  782   9.941   3.519   8.218 -1.4654 -0.2745 -1.1969
29686SOL    HW2  783   9.992   3.391   8.280  0.4185  1.6958  1.6259
29687SOL     OW  784   4.995   4.794  11.704  0.3934 -0.5299  0.3403
29687SOL    HW1  785   5.001   4.709  11.660  1.1805 -0.1003 -0.3952
29687SOL    HW2  786   4.977   4.771  11.796  0.2505 -1.4776  0.0876
29688SOL     OW  787   9.000   9.247   9.955 -0.8720 -0.0876 -0.1295
29688SOL    HW1  788   9.065   9.230   9.886 -0.2943  1.5847 -0.0302
29688SOL    HW2  789   9.035   9.204  10.032 -0.0727  0.4477 -0.1831
29689SOL     OW  790   5.003   7.252   6.665 -0.1412  0.1235  0.1377
29689SOL    HW1  791   5.002   7.267   6.759  1.0120 -0.6095  0.2785
29689SOL    HW2  792   4.985   7.158   6.655  3.2263 -0.6057 -0.1348
29690SOL     OW  793   6.444   6.773   3.888 -0.4251 -0.1395  0.0188
29690SOL    HW1  794   6.360   6.793   3.930 -0.3540 -1.9887  1.1693
29690SOL    HW2  795   6.422   6.716   3.815 -0.1070 -1.9656  1.2859
29691SOL     OW  796   6.121  11.477   5.504 -0.0834  0.5547  0.0592
29691SOL    HW1  797   6.120  11.557   5.452 -1.1662  0.6814  0.2529
29691SOL    HW2  798   6.097  11.408   5.442  1.9986  0.1656 -0.3901
29692SOL     OW  799   6.129   3.331   5.352 -0.0880 -0.0160  0.1645
29692SOL    HW1  800   6.104   3.307   5.442  0.3349 -0.6973  0.1071
29692SOL    HW2  801   6.100   3.422   5.343 -0.6657 -0.1264  0.7912
29693SOL     OW  802  10.000   4.356   7.409  0.0614  0.0260 -0.3721
29693SOL    HW1  803   9.973   4.339   7.499 -2.2793 -0.7007 -1.1369
29693SOL    HW2  804  10.083   4.404   7.417 -0.4850  0.6815  2.1601
29694SOL     OW  805   2.091  11.449   8.392 -0.1377 -0.4161 -0.1906
29694SOL    HW1  806   2.123  11.359   8.395  1.2763  0.0735  0.6203
29694SOL    HW2  807   2.026  11.454   8.463 -0.7250 -0.9598 -0.6838
29695SOL     OW  808   2.370   9.737   9.627 -0.2380 -0.0706  0.0200
29695SOL    HW1  809   2.408   9.818   9.592  2.9063 -1.3400  0.1059
29695SOL    HW2  810   2.363   9.680   9.551  0.7262 -0.7695  0.4327
29696SOL     OW  811   1.422   1.649  11.574 -0.0165  0.1574 -0.6074
29696SOL    HW1  812   1.383   1.625  11.658  0.8884 -0.2483 -0.2910
29696SOL    HW2  813   1.507   1.606  11.574  0.4570  1.0643 -1.2627
29697SOL     OW  814   0.274   2.970   8.269  0.1939  0.2227 -0.0257
29697SOL    HW1  815   0.288   3.033   8.340  1.4225  0.5706 -0.5449
29697SOL    HW2  816   0.192   2.926   8.292  1.5166 -1.1160  2.7037
29698SOL     OW  817   8.145   2.319   0.961  0.8515 -0.1944  0.2426
29698SOL    HW1  818   8.090   2.270   1.022 -1.5824 -0.0472 -1.6284
29698SOL    HW2  819   8.178   2.393   1.012 -0.7783 -0.2724  1.5006
29699SOL     OW  820   7.987   6.965   0.855  0.2104 -1.0140  0.3054
29699SOL    HW1  821   8.021   7.031   0.796 -1.5847  0.4395  0.8149
29699SOL    HW2  822   8.064   6.915   0.882  1.4357  0.0679 -1.0567
29700SOL     OW  823   1.633   0.930   7.541 -0.3579  0.1252  0.3007
29700SOL    HW1  824   1.705   0.948   7.601 -0.8250 -0.3555  1.0202
29700SOL    HW2  825   1.673   0.932   7.454  0.2762  1.0587  0.6073
29701SOL     OW  826   9.318   3.287  11.344 -0.3529  0.0008  0.6550
29701SOL    HW1  827   9.356   3.367  11.309  0.5687 -0.3350  0.8474
29701SOL    HW2  828   9.229   3.311  11.370 -1.4856  0.0736 -2.7507
29702SOL     OW  829   6.319   7.919   5.926 -0.0172  0.0687 -0.0704
29702SOL    HW1  830   6.315   7.824   5.940 -1.4808  0.0656 -0.4330
29702SOL    HW2  831   6.313   7.955   6.014  3.6751 -0.1554  0.4603
29703SOL     OW  832   5.456  11.722   3.357  0.2411  0.5108 -0.0312
29703SOL    HW1  833   5.471  11.629   3.338  0.1494  0.7552 -1.3845
29703SOL    HW2  834   5.532  11.767   3.319 -0.6307  1.1494 -1.0551
29704SOL     OW  835  11.531   9.110   8.857  0.5153 -0.5375  0.2812
29704SOL    HW1  836  11.480   9.030   8.841  2.8174 -2.4173  1.6141
29704SOL    HW2  837  11.623   9.080   8.852  1.4575  2.0392  0.8900
29705SOL     OW  838  10.062   6.742   1.984  0.2517  0.3727  0.2994
29705SOL    HW1  839  10.044   6.746   2.078 -1.5065  1.5446 -0.0404
29705SOL    HW2  840  10.096   6.654   1.970 -1.2063 -0.4779  1.7688
29706SOL     OW  841   0.895   4.147   2.624 -0.3351  0.6289  0.5179
29706SOL    HW1  842   0.942   4.084   2.570 -0.5594  0.1673  0.8567
29706SOL    HW2  843   0.871   4.098   2.703 -1.2530  0.8965  0.4186
29707SOL     OW  844  10.354   6.866   5.659  0.3898 -0.1063  0.2746
29707SOL    HW1  845  10.264   6.874   5.627  0.4318 -3.6355 -1.2445
29707SOL    HW2  846  10.407   6.913   5.595 -0.2318  0.1679 -0.0407
29708SOL     OW  847   1.482   0.624   7.293 -0.0625 -0.3034 -0.3826
29708SOL    HW1  848   1.403   0.653   7.338 -0.3036  0.0639 -1.0179
29708SOL    HW2  849   1.473   0.660   7.204  1.0879  0.2232 -0.2970
29709SOL     OW  850   8.758   1.656   4.006  0.3830 -0.3813  0.1453
29709SOL    HW1  851   8.778   1.610   3.925  1.5572  0.2043  0.0857
29709SOL    HW2  852   8.786   1.597   4.076  0.7608 -0.2588  0.0954
29710SOL     OW  853  10.233   4.947   3.182  0.2283 -0.6415 -0.7358
29710SOL    HW1  854  10.271   4.953   3.270  0.9185 -1.8965 -0.9248
29710SOL    HW2  855  10.282   4.876   3.140 -1.2354 -1.1966 -1.5560
29711SOL     OW  856   5.697  10.248   2.650  0.6634  0.0072 -0.2568
29711SOL    HW1  857   5.612  10.207   2.634  0.0208  1.5177 -0.9486
29711SOL    HW2  858   5.736  10.197   2.721 -0.8496 -0.6773  0.1182
29712SOL     OW  859   1.326   5.689   2.138  0.4953 -0.4659 -0.4023
29712SOL    HW1  860   1.402   5.745   2.124 -0.8873  1.3427 -1.1634
29712SOL    HW2  861   1.317   5.640   2.057  0.6323 -0.3876 -0.4648
29713SOL     OW  862   6.197  10.935   0.718  0.5784  0.5253 -0.3781
29713SOL    HW1  863   6.186  10.899   0.806  0.9822  2.4654  0.5260
29713SOL    HW2  864   6.109  10.958   0.690  0.4187 -0.3382 -0.5956
29714SOL     OW  865   3.728   3.217   1.478  0.3093 -0.0041  0.3749
29714SOL    HW1  866   3.654   3.175   1.433 -0.9903  0.6182  1.8364
29714SOL    HW2  867   3.772   3.145   1.524 -0.3939 -0.1392  0.8459
29715SOL     OW  868   2.405  10.530   8.869  0.6856 -0.0114  0.5657
29715SOL    HW1  869   2.423  10.612   8.822  1.5798  0.3761  1.5653
29715SOL    HW2  870   2.374  10.471   8.800 -0.6619  1.3441 -0.0804
29716SOL     OW  871   9.808   6.838  10.335 -0.4462  0.8092  0.5314
29716SOL    HW1  872   9.717   6.814  10.352 -0.0038 -0.1274  1.6535
29716SOL    HW2  873   9.816   6.928  10.368 -1.1693  1.2274 -0.3803
29717SOL     OW  874   6.306   9.109   5.566  0.2903  0.2573 -0.4413
29717SOL    HW1  875   6.248   9.171   5.611  0.6146 -0.1083  0.5119
29717SOL    HW2  876   6.266   9.024   5.581  0.4714  0.1218 -0.7363
29718SOL     OW  877   4.570   9.952   3.855 -0.3528  0.1179 -0.1088
29718SOL    HW1  878   4.477   9.936   3.869 -0.6501 -0.6627 -2.5489
29718SOL    HW2  879   4.613   9.907   3.928 -1.8403  0.6800  1.1859
29719SOL     OW  880   5.924   5.114   3.845  0.1572 -0.1068 -0.1064
29719SOL    HW1  881   5.847   5.092   3.793 -0.3450  1.0713  0.1095
29719SOL    HW2  882   5.891   5.172   3.914  1.2588  0.5196 -0.0828
29720SOL     OW  883   8.052  10.011   5.567  0.1680 -0.2395 -0.1061
29720SOL    HW1  884   8.085  10.086   5.517  1.1112 -1.4115 -1.3198
29720SOL    HW2  885   7.962  10.001   5.538  0.3964 -0.2859 -0.8059
29721SOL     OW  886   1.684   4.006   2.273 -0.1970 -0.0062  0.2068
29721SOL    HW1  887   1.609   3.956   2.240 -0.0196  0.6468 -1.2686
29721SOL    HW2  888   1.748   3.939   2.298 -0.8661 -0.5505  0.4947
29722SOL     OW  889   7.408   9.735   1.246 -0.0457 -0.0801  0.7294
29722SOL    HW1  890   7.390   9.828   1.260 -0.3757 -0.2371  1.4054
29722SOL    HW2  891   7.379   9.718   1.157  1.5254  0.8296 -0.0125
29723SOL     OW  892  11.126   4.998   6.133 -0.0505  0.7661 -0.1553
29723SOL    HW1  893  11.213   5.008   6.170  0.8661 -0.4432 -1.8251
29723SOL    HW2  894  11.142   4.974   6.041 -2.1540  1.7396 -0.8308
29724SOL     OW  895   4.895   5.156   3.452 -0.2498 -0.2772  0.0024
29724SOL    HW1  896   4.834   5.101   3.402 -1.7683  0.9074  0.4610
29724SOL    HW2  897   4.865   5.245   3.436 -0.6980  0.1717  2.8082
29725SOL     OW  898   1.698   9.620   0.074  0.3087  0.1811 -0.5249
29725SOL    HW1  899   1.650   9.593   0.152  0.0678  0.4575 -0.5762
29725SOL    HW2  900   1.785   9.582   0.084  0.0256 -0.4818 -0.5142
29726SOL     OW  901  10.798  10.255   6.412 -0.6443  0.4698  0.6224
29726SOL    HW1  902  10.768  10.215   6.330 -0.4652  0.9570  0.3109
29726SOL    HW2  903  10.891  10.235   6.416 -0.7769 -0.0764  1.0183
29727SOL     OW  904   4.673   8.025   5.221 -0.4862 -0.1909 -0.7764
29727SOL    HW1  905   4.721   7.958   5.270  0.7690  0.0979 -1.5640
29727SOL    HW2  906   4.600   8.049   5.278  1.5436  0.9562  1.5404
29728SOL     OW  907  11.071   7.361   9.309 -0.5936  0.4187 -0.0652
29728SOL    HW1  908  11.101   7.294   9.248 -2.6166 -0.1908 -0.4630
29728SOL    HW2  909  11.145   7.373   9.370 -0.0594 -1.9271 -0.1673
29729SOL     OW  910   3.989   5.096   1.697 -0.6920 -0.0314  0.0817
29729SOL    HW1  911   3.975   5.126   1.787  0.8324  1.9354 -0.2680
29729SOL    HW2  912   3.921   5.140   1.646 -0.0176  0.8543 -0.0677
29730SOL     OW  913   5.302  10.948   2.262 -0.2001 -0.6430  0.1052
29730SOL    HW1  914   5.262  10.954   2.176  2.0236 -1.1960 -1.0213
29730SOL    HW2  915   5.316  10.854   2.277  0.1989 -0.4989  0.6994
29731SOL     OW  916   5.411   4.580   3.468 -0.5393  0.2015  0.2674
29731SOL    HW1  917   5.317   4.568   3.480 -0.8468 -0.2710 -2.1599
29731SOL    HW2  918   5.445   4.492   3.451  0.7790  0.0185  3.2694
29732SOL     OW  919   9.310   1.918  10.382 -0.6138 -0.3144  0.0544
29732SOL    HW1  920   9.341   1.948  10.468 -0.1992 -0.9821  0.1455
29732SOL    HW2  921   9.341   1.828  10.375 -1.5259 -0.6112 -0.3675
29733SOL     OW  922  10.644   9.505   0.396  1.0089 -0.1107 -0.6515
29733SOL    HW1  923  10.554   9.491   0.425  1.0625 -0.1659 -0.5084
29733SOL    HW2  924  10.662   9.432   0.337  0.8371  0.1010 -0.9720
29734SOL     OW  925   5.854   2.675   7.574  0.6175 -0.0286  0.4294
29734SOL    HW1  926   5.831   2.768   7.578  0.6127  0.0753 -1.3292
29734SOL    HW2  927   5.773   2.630   7.598  0.7324  0.4085  1.6908
29735SOL     OW  928   1.357   3.235   2.414  0.3595 -0.4538 -0.0232
29735SOL    HW1  929   1.436   3.183   2.396 -1.4297 -3.0930 -0.8195
29735SOL    HW2  930   1.326   3.262   2.328 -0.7231 -1.2210  0.1168
29736SOL     OW  931   8.064   5.514   3.926  0.4676 -0.6786  0.0940
29736SOL    HW1  932   8.142   5.559   3.894  0.1657 -0.5263 -0.4341
29736SOL    HW2  933   8.004   5.515   3.852  0.1120 -1.1419  0.3761
29737SOL     OW  934   4.785   4.430   6.590  0.5428 -0.0285 -0.6584
29737SOL    HW1  935   4.852   4.490   6.624  0.5971  0.2770 -1.2825
29737SOL    HW2  936   4.729   4.412   6.665 -0.1722  1.7660 -0.6869
29738SOL     OW  937   7.414   2.470   5.476 -0.5575 -0.0793 -0.4056
29738SOL    HW1  938   7.372   2.524   5.543 -0.7545 -0.2962 -0.3520
29738SOL    HW2  939   7.507   2.469   5.500 -0.3595  1.1671 -1.0472
29739SOL     OW  940   4.726   0.782   8.689 -0.2179  0.6263 -0.0402
29739SOL    HW1  941   4.816   0.773   8.721 -0.2639 -0.3035 -0.1485
29739SOL    HW2  942   4.671   0.777   8.767 -0.4053 -2.7817 -0.2633
29740SOL     OW  943   8.081   0.688   8.365  0.3780  1.1008  0.1184
29740SOL    HW1  944   8.054   0.651   8.449 -1.0083  0.7228 -0.4747
29740SOL    HW2  945   8.039   0.633   8.299  1.5283  1.3279 -0.8456
29741SOL     OW  946   3.254   1.187   0.607 -0.1939  0.1731  0.1734
29741SOL    HW1  947   3.324   1.130   0.638 -0.0646  0.5052  0.4991
29741SOL    HW2  948   3.228   1.150   0.522 -0.0987 -0.3499  0.3741
29742SOL     OW  949  11.072   2.430   6.900  0.5175 -0.3059 -0.2360
29742SOL    HW1  950  11.148   2.376   6.879 -0.3674 -1.6285 -0.1915
29742SOL    HW2  951  11.000   2.367   6.907 -0.7003  0.9671 -0.8688
29743SOL     OW  952   4.366   6.063   2.851 -0.2506  0.3689 -0.2038
29743SOL    HW1  953   4.292   6.010   2.883  1.5937 -2.1450  0.1797
29743SOL    HW2  954   4.336   6.096   2.767 -2.3307  0.6196  0.5645
29744SOL     OW  955   6.820   4.619   6.464 -0.0714  0.0135  0.4383
29744SOL    HW1  956   6.864   4.679   6.524 -0.2354 -2.1360  2.8887
29744SOL    HW2  957   6.886   4.553   6.444  0.2495  1.0644 -2.5777
29745SOL     OW  958   0.493   7.258   9.541 -0.4257 -0.2463  0.4744
29745SOL    HW1  959   0.528   7.260   9.630  0.3775  1.2951  0.1643
29745SOL    HW2  960   0.398   7.264   9.553 -0.3113  0.2960  1.2283
29746SOL     OW  961   8.026   7.001  11.135  0.5175  0.4308 -0.1324
29746SOL    HW1  962   8.065   7.017  11.220  0.0865 -0.1075  0.1701
29746SOL    HW2  963   8.017   7.088  11.096 -0.6014  0.8267  0.9541
29747SOL     OW  964   8.891   3.098   8.563  0.0360  0.0641 -0.0316
29747SOL    HW1  965   8.957   3.149   8.610  0.9570 -1.8789  0.8802
29747SOL    HW2  966   8.839   3.057   8.632 -1.4149  0.6305 -0.7505
29748SOL     OW  967   5.785  11.223   3.764  0.4609  0.0962  0.2130
29748SOL    HW1  968   5.861  11.167   3.779 -1.1699 -1.6095  2.7979
29748SOL    HW2  969   5.710  11.163   3.761 -0.9172  1.7323 -1.9971
29749SOL     OW  970   3.596   6.831   1.813 -0.5821  0.7660 -0.0322
29749SOL    HW1  971   3.685   6.812   1.786 -1.3309 -1.6170 -1.0830
29749SOL    HW2  972   3.557   6.874   1.737 -0.8530  0.0049 -0.3360
29750SOL     OW  973   1.107   5.227   4.437 -0.0916 -0.1678  0.3772
29750SOL    HW1  974   1.064   5.232   4.522 -1.3008 -1.5116 -0.1081
29750SOL    HW2  975   1.074   5.303   4.389  1.4223  1.2174  1.4010
29751SOL     OW  976  11.000   6.277   8.057  0.0536  0.2241  0.2280
29751SOL    HW1  977  11.046   6.228   8.126  1.0417  2.2766  1.1122
29751SOL    HW2  978  11.031   6.367   8.067 -1.6318  1.0449 -1.3723
29752SOL     OW  979   7.695   7.925   0.082 -0.3806 -0.4877  0.0791
29752SOL    HW1  980   7.774   7.960   0.124 -0.6582  0.6753 -0.3475
29752SOL    HW2  981   7.649   7.880   0.153 -0.1074  0.1762  0.6967
29753SOL     OW  982   3.338  11.677   3.915 -0.1708  0.4339  0.4915
29753SOL    HW1  983   3.262  11.620   3.898 -1.5362  2.5666 -1.1346
29753SOL    HW2  984   3.375  11.644   3.997 -2.8636 -0.7152  1.3701
29754SOL     OW  985   7.230   4.492   0.656 -0.1208 -0.5897 -0.5516
29754SOL    HW1  986   7.255   4.432   0.727 -3.5133 -3.0270 -1.1448
29754SOL    HW2  987   7.296   4.477   0.588  1.6705 -0.2019  1.0373
29755SOL     OW  988   2.994   6.522  11.232 -0.0538  0.1862 -0.0952
29755SOL    HW1  989   2.943   6.452  11.190 -1.0425  0.0506  1.2404
29755SOL    HW2  990   3.023   6.578  11.160 -1.1268 -0.3973 -1.0076
29756SOL     OW  991   8.119   4.184   7.340 -0.2911  0.3792  0.0180
29756SOL    HW1  992   8.194   4.243   7.332 -1.2093  1.4044 -1.3775
29756SOL    HW2  993   8.046   4.232   7.302 -1.3162 -1.2394 -0.1557
29757SOL     OW  994  10.454   5.946   8.833 -0.4155  0.2910 -0.3537
29757SOL    HW1  995  10.506   5.933   8.912 -0.5657 -0.3575 -0.3540
29757SOL    HW2  996  10.365   5.961   8.865 -1.0007 -2.4851 -0.4141
29758SOL     OW  997  11.056   6.899   5.601  0.3047  0.4954 -0.0502
29758SOL    HW1  998  11.139   6.940   5.577  1.1622 -1.4876 -0.7212
29758SOL    HW2  999  11.041   6.833   5.533 -0.1579 -1.3514  1.7315
29759SOL     OW 1000  10.122  10.615   7.456  1.1531 -0.3477  0.5215
29759SOL    HW1 1001  10.103  10.550   7.387  0.5996  0.1877  0.1634
29759SOL    HW2 1002  10.100  10.699   7.416 -1.9426 -0.1971  2.2562
29760SOL     OW 1003   7.177   3.348  11.395  0.2353  0.0407 -0.1322
29760SOL    HW1 1004   7.096   3.312  11.359  0.1682  0.0078  0.0490
29760SOL    HW2 1005   7.147   3.415  11.457  0.3875  2.3397 -2.4053
29761SOL     OW 1006   1.690   1.553   9.144 -0.2390 -0.9593  0.1714
29761SOL    HW1 1007   1.711   1.581   9.055  1.4297 -1.0583  0.4991
29761SOL    HW2 1008   1.645   1.469   9.133 -0.3661 -0.7936 -0.5986
29762SOL     OW 1009  10.588   1.312   5.865  0.1118  0.0655  0.2353
29762SOL    HW1 1010  10.627   1.269   5.789  0.0210  0.6413 -0.1408
29762SOL    HW2 1011  10.496   1.325   5.841 -0.3127 -1.1723  1.0681
29763SOL     OW 1012   3.515  10.374   2.653 -0.0912  0.3912 -0.3744
29763SOL    HW1 1013   3.544  10.417   2.733 -0.2886  2.7732 -1.5081
29763SOL    HW2 1014   3.473  10.293   2.683 -0.4742  1.3846  1.9580
29764SOL     OW 1015   3.722   4.853   4.214  0.4673 -0.0025 -0.3683
29764SOL    HW1 1016   3.678   4.888   4.292  1.5151 -0.3461  0.3879
29764SOL    HW2 1017   3.809   4.827   4.244  1.5223  1.4142 -1.9946
29765SOL     OW 1018   3.959  10.285   8.777  0.3240 -0.4489 -0.0158
29765SOL    HW1 1019   3.929  10.216   8.837  0.7117 -0.0642  0.6297
29765SOL    HW2 1020   4.021  10.336   8.829  0.3156  0.1701 -0.6089
29766SOL     OW 1021   8.035   5.292   5.362  0.0392  0.0321  0.3005
29766SOL    HW1 1022   8.079   5.309   5.279 -0.5731  1.5342  0.2523
29766SOL    HW2 1023   7.967   5.228   5.340  0.9513 -0.8614  0.0052
29767SOL     OW 1024   3.588  10.692   7.555  0.1921 -0.1903 -0.1781
29767SOL    HW1 1025   3.660  10.628   7.558  1.6115  1.2545 -1.4104
29767SOL    HW2 1026   3.534  10.664   7.482  0.2457 -0.5477 -0.0836
29768SOL     OW 1027  11.754   7.764   7.978 -0.0470  0.3911  0.1239
29768SOL    HW1 1028  11.752   7.860   7.984  2.5080  0.6385 -1.2368
29768SOL    HW2 1029  11.690   7.743   7.910 -2.9793  0.7234  2.5619
29769SOL     OW 1030  10.017   0.491   0.181 -0.1825 -0.3092  0.2234
29769SOL    HW1 1031   9.963   0.435   0.126  0.5007 -0.4167 -0.3455
29769SOL    HW2 1032  10.072   0.430   0.230  0.9251 -0.1387 -0.7723
29770SOL     OW 1033  10.765   5.655  11.896 -0.9323 -0.0164 -0.6432
29770SOL    HW1 1034  10.854   5.634  11.869  0.1630  0.7986  2.0231
29770SOL    HW2 1035  10.736   5.724  11.835  0.0599 -0.6028 -1.8020
29771SOL     OW 1036   4.294  10.111   6.430  0.3927 -0.0672 -0.3032
29771SOL    HW1 1037   4.344  10.029   6.431 -1.1674 -1.0718  1.6672
29771SOL    HW2 1038   4.225  10.096   6.365  0.7982  0.1654 -0.7994
29772SOL     OW 1039   6.475   6.103  11.197  0.5314 -0.3161 -0.7312
29772SOL    HW1 1040   6.381   6.084  11.205  0.7760 -1.0370  0.8120
29772SOL    HW2 1041   6.508   6.035  11.137  0.1171 -0.1810 -1.1216
29773SOL     OW 1042   9.998   8.529   6.931  0.0314 -0.3878  0.7230
29773SOL    HW1 1043   9.967   8.471   6.861  0.0202 -0.4033  0.7409
29773SOL    HW2 1044  10.077   8.569   6.895  1.3468 -2.1134  1.5296
29774SOL     OW 1045   2.244   1.359   0.047 -0.2657 -0.3893  0.5333
29774SOL    HW1 1046   2.173   1.348  -0.016 -2.2567 -1.7367  2.8472
29774SOL    HW2 1047   2.232   1.448   0.081  0.0395 -0.1125 -0.0721
29775SOL     OW 1048   0.967   6.679   2.856 -0.0569  0.7527 -0.2987
29775SOL    HW1 1049   0.954   6.699   2.949  0.9527  0.0609  0.0172
29775SOL    HW2 1050   0.970   6.764   2.813 -0.2599  1.0942  0.3519
29776SOL     OW 1051   2.006   1.724   5.028 -0.0241  0.3335  0.0417
29776SOL    HW1 1052   1.913   1.710   5.013 -0.1404  1.8125 -0.8653
29776SOL    HW2 1053   2.025   1.808   4.984  1.6241  0.2948  0.6050
29777SOL     OW 1054  10.926   2.210   1.750 -0.3822 -0.1070  0.1973
29777SOL    HW1 1055  11.009   2.169   1.773  0.5026  2.0419  1.1813
29777SOL    HW2 1056  10.869   2.193   1.825 -0.7770 -1.3924 -0.3797
29778SOL     OW 1057   7.258   5.370   4.867  0.2533  0.4528  0.0938
29778SOL    HW1 1058   7.217   5.415   4.941  1.5436  1.2928  0.3150
29778SOL    HW2 1059   7.245   5.429   4.793  1.5793  1.0416  0.2981
29779SOL     OW 1060  11.819  11.282   8.594 -0.6446  0.0286  0.1488
29779SOL    HW1 1061  11.743  11.225   8.576  0.1973 -0.9376 -0.4614
29779SOL    HW2 1062  11.813  11.350   8.528 -1.0001 -0.0224  0.1216
29780SOL     OW 1063   2.959   8.498   5.342  0.4165 -0.0636  0.2038
29780SOL    HW1 1064   3.033   8.501   5.281  2.3802 -1.1796  2.4197
29780SOL    HW2 1065   2.961   8.411   5.379 -1.1803  0.3519  1.3712
29781SOL     OW 1066   2.434   0.739   8.085  0.0598  0.7369 -0.6820
29781SOL    HW1 1067   2.357   0.710   8.135  0.9262 -1.5938 -0.5518
29781SOL    HW2 1068   2.502   0.676   8.108  1.2151  1.0586 -2.9216
29782SOL     OW 1069   4.922  10.458   7.245 -0.2140 -0.2225 -0.0262
29782SOL    HW1 1070   4.841  10.485   7.289 -0.3559 -2.6057  1.3475
29782SOL    HW2 1071   4.893  10.399   7.176  0.3186 -1.1573  0.5329
29783SOL     OW 1072   0.766   5.004   3.499  0.5386 -0.0149 -0.5285
29783SOL    HW1 1073   0.744   4.993   3.591  0.7404 -0.3248 -0.5173
29783SOL    HW2 1074   0.686   4.979   3.452  0.0535  1.2247 -0.4083
29784SOL     OW 1075   0.135   5.721  11.164 -0.0809  0.0002  0.6216
29784SOL    HW1 1076   0.063   5.663  11.140 -1.1505  1.2713  0.6460
29784SOL    HW2 1077   0.147   5.778  11.088 -1.5929  2.1805  1.9025
29785SOL     OW 1078   2.742   5.281  10.908  0.6829 -0.3072 -0.3114
29785SOL    HW1 1079   2.677   5.239  10.853 -0.6384 -0.2581  1.1272
29785SOL    HW2 1080   2.732   5.239  10.994 -0.6050  2.6907  1.1689
29786SOL     OW 1081   2.687   5.051   9.842 -0.1590  0.0153  0.0138
29786SOL    HW1 1082   2.661   5.082   9.755 -1.1176  0.0889  0.3140
29786SOL    HW2 1083   2.604   5.039   9.889  0.3675  0.9936  1.2734
29787SOL     OW 1084   6.734   8.719   3.441  0.3821 -0.0829 -0.3238
29787SOL    HW1 1085   6.676   8.793   3.423 -0.2578 -0.3624  0.5616
29787SOL    HW2 1086   6.812   8.737   3.387  0.3862  1.4026  0.1341
29788SOL     OW 1087  11.769   9.870   5.747  0.0194  0.0285 -0.0004
29788SOL    HW1 1088  11.818   9.805   5.798  0.0696  0.1935  0.1640
29788SOL    HW2 1089  11.677   9.847   5.762  0.0377 -0.0402  0.0076
29789SOL     OW 1090   3.803   1.912   8.956 -0.3928 -0.0307 -0.5440
29789SOL    HW1 1091   3.783   2.005   8.967 -0.3850  0.4052 -3.4482
29789SOL    HW2 1092   3.898   1.907   8.962 -0.4140  0.0723 -0.0700
29790SOL     OW 1093  11.927   3.690   8.811  0.3518  0.4297 -0.3088
29790SOL    HW1 1094  11.872   3.677   8.734 -0.6667 -0.3924  0.5388
29790SOL    HW2 1095  12.017   3.688   8.777 -0.0609 -0.6037 -1.3729
29791SOL     OW 1096   5.825   0.481   6.902 -0.5987  0.2889  0.0066
29791SOL    HW1 1097   5.805   0.426   6.978 -0.2142  0.7182  0.4257
29791SOL    HW2 1098   5.778   0.563   6.918  0.3158  0.7738  0.3076
29792SOL     OW 1099   6.932   0.404   9.405 -0.1588  0.5805  0.4084
29792SOL    HW1 1100   7.016   0.388   9.447 -0.7400 -0.7090  1.1560
29792SOL    HW2 1101   6.945   0.483   9.353  2.0964 -0.7261 -1.1418
29793SOL     OW 1102   4.765  10.200   7.367 -0.0912 -0.1803 -0.3122
29793SOL    HW1 1103   4.799  10.111   7.357 -1.3827 -0.7131 -0.0915
29793SOL    HW2 1104   4.756  10.233   7.277 -0.4140 -0.5918 -0.4342
29794SOL     OW 1105  10.782   7.232   3.146  0.3264  0.2560  0.3957
29794SOL    HW1 1106  10.841   7.306   3.137  0.7669  0.0379  1.3792
29794SOL    HW2 1107  10.818   7.181   3.219 -1.9133  0.9284  2.0897
29795SOL     OW 1108   0.796   3.286   8.083  0.7211 -0.0728  0.2327
29795SOL    HW1 1109   0.777   3.365   8.032 -0.8306  1.2188  2.6662
29795SOL    HW2 1110   0.755   3.215   8.034  0.4538  0.8942 -0.9919
29796SOL     OW 1111   7.299   2.655   8.966 -0.4154  0.3898 -0.3432
29796SOL    HW1 1112   7.393   2.670   8.970 -0.5346  1.4533 -1.0726
29796SOL    HW2 1113   7.287   2.599   8.889 -0.2825 -0.6813  0.4063
29797SOL     OW 1114  11.050   0.701   5.544 -0.0459  0.9117  0.5352
29797SOL    HW1 1115  11.027   0.783   5.500 -0.4898  0.9625  0.8585
29797SOL    HW2 1116  11.012   0.709   5.631 -0.6112  0.1150  0.3710
29798SOL     OW 1117   5.071   6.493   7.725 -0.4023 -0.1347  0.2753
29798SOL    HW1 1118   5.155   6.449   7.714 -1.1880 -1.7196  0.3231
29798SOL    HW2 1119   5.078   6.573   7.671  0.4031 -1.2560 -1.3687
29799SOL     OW 1120   6.648   4.957   4.604 -0.0504  0.2654  0.0000
29799SOL    HW1 1121   6.634   4.866   4.631 -0.9720 -0.2113 -1.9091
29799SOL    HW2 1122   6.560   4.993   4.597  0.2366  0.8429 -0.7329
29800SOL     OW 1123   4.162  11.903   2.236  0.1218  0.4749 -0.1521
29800SOL    HW1 1124   4.155  11.976   2.297  1.0478 -1.6471  2.6555
29800SOL    HW2 1125   4.072  11.888   2.206 -0.0015  3.1406 -1.4456
29801SOL     OW 1126   4.124   1.468   6.528  0.4950  0.0286 -0.2993
29801SOL    HW1 1127   4.134   1.533   6.597 -0.8994  0.7038 -0.7004
29801SOL    HW2 1128   4.173   1.392   6.559  0.7921  0.6993  0.9238
29802SOL     OW 1129  10.698   6.952   7.114 -0.4109  0.5995 -0.1422
29802SOL    HW1 1130  10.644   7.029   7.097  0.0363  0.8109 -0.6666
29802SOL    HW2 1131  10.658   6.883   7.062 -0.5953  0.5752  0.0330
29803SOL     OW 1132   3.580   6.102   4.934  0.2459 -0.1799 -0.1001
29803SOL    HW1 1133   3.649   6.169   4.939 -0.4750  0.6180 -0.6899
29803SOL    HW2 1134   3.572   6.069   5.024  1.0036  0.1123  0.0819
29804SOL     OW 1135   3.313  10.289   1.004 -0.4929 -0.5412  0.0488
29804SOL    HW1 1136   3.261  10.209   1.011  0.2679 -0.9578  1.1565
29804SOL    HW2 1137   3.269  10.352   1.062 -0.3933 -0.5525  0.1380
29805SOL     OW 1138  10.558   6.479   8.977  0.3100 -0.1739  0.2780
29805SOL    HW1 1139  10.585   6.567   8.952  0.6033 -0.4463 -0.4027
29805SOL    HW2 1140  10.589   6.423   8.905 -0.9905 -0.6546  0.0602
29806SOL     OW 1141   5.709   8.612   1.052  0.4556  0.4517 -0.3858
29806SOL    HW1 1142   5.751   8.667   0.987  0.9195  1.1477  0.4786
29806SOL    HW2 1143   5.682   8.673   1.121 -0.3262 -0.2195 -0.0760
29807SOL     OW 1144   2.093   7.905   6.809  0.4201  0.2658 -0.1476
29807SOL    HW1 1145   2.038   7.870   6.879 -0.7666  0.2145 -1.0751
29807SOL    HW2 1146   2.128   7.987   6.845 -1.3082  0.9639  0.0099
29808SOL     OW 1147   9.628  11.602   4.320 -0.2058  0.1537  0.0468
29808SOL    HW1 1148   9.578  11.650   4.254 -0.8699 -1.5552 -0.7530
29808SOL    HW2 1149   9.711  11.583   4.277 -0.3510 -0.3114 -0.0350
29809SOL     OW 1150  10.350   3.474  10.064 -0.1775  0.3971  0.3171
29809SOL    HW1 1151  10.303   3.398  10.029  0.2134 -0.1363  0.9101
29809SOL    HW2 1152  10.388   3.516   9.988  0.3895 -0.5527  0.0579
29810SOL     OW 1153  10.051  11.560  11.779 -0.2699  0.5846 -0.5242
29810SOL    HW1 1154  10.129  11.613  11.793  0.4798 -0.3657 -1.0091
29810SOL    HW2 1155   9.984  11.602  11.833  0.8026  0.8962  0.6128
29811SOL     OW 1156   7.246   9.443   9.737 -0.2353  0.5073  0.2435
29811SOL    HW1 1157   7.276   9.364   9.780  0.6830  0.6494 -0.1182
29811SOL    HW2 1158   7.273   9.514   9.795  0.0117  0.6320 -0.0248
29812SOL     OW 1159   0.712   4.670   6.665  0.2290  0.2990  0.0440
29812SOL    HW1 1160   0.766   4.604   6.709  0.6705  0.3037 -0.4866
29812SOL    HW2 1161   0.652   4.620   6.610 -0.6885  0.2688  1.0399
29813SOL     OW 1162   1.555   2.017   8.744 -0.0871  0.5131  0.2930
29813SOL    HW1 1163   1.547   1.961   8.667 -1.1051  2.4977 -1.1675
29813SOL    HW2 1164   1.464   2.032   8.772  0.1867  0.9663  0.9552
29814SOL     OW 1165   3.675  10.994   1.289 -0.1529  0.7773 -0.6632
29814SOL    HW1 1166   3.738  11.008   1.218 -0.6448  2.0498 -0.8846
29814SOL    HW2 1167   3.591  10.983   1.244 -0.1511 -0.5820 -0.3558
29815SOL     OW 1168   9.643  11.937   7.615 -0.0859  0.6228  0.0071
29815SOL    HW1 1169   9.736  11.918   7.626 -0.3656 -0.9666 -0.0547
29815SOL    HW2 1170   9.631  11.936   7.520 -0.1494  0.8929  0.0138
29816SOL     OW 1171   6.262   8.411   9.816 -0.2122  0.2970  0.1032
29816SOL    HW1 1172   6.254   8.396   9.722 -0.6775 -0.4069  0.2477
29816SOL    HW2 1173   6.210   8.490   9.831 -1.7074 -0.6350  0.0366
29817SOL     OW 1174   9.322   4.454   9.247  0.3018 -0.1255 -0.1773
29817SOL    HW1 1175   9.245   4.497   9.209  0.1501 -0.0623  0.1939
29817SOL    HW2 1176   9.376   4.429   9.172 -0.0518 -0.1114 -0.4379
29818SOL     OW 1177   8.907   9.909   8.548  0.1527  0.3128 -0.2950
29818SOL    HW1 1178   8.988   9.945   8.583 -1.0107  1.1335  1.7007
29818SOL    HW2 1179   8.930   9.882   8.458  2.7699 -0.1078  0.4111
29819SOL     OW 1180   5.671   5.753   2.312  0.1085 -0.1236  0.0754
29819SOL    HW1 1181   5.735   5.703   2.362  0.4902 -1.1596 -1.3804
29819SOL    HW2 1182   5.719   5.827   2.276  0.8444 -1.4688 -1.8996
29820SOL     OW 1183   8.183   6.131   8.234  0.0889 -0.3724 -0.3367
29820SOL    HW1 1184   8.154   6.187   8.306  0.5722 -2.0680  1.2459
29820SOL    HW2 1185   8.152   6.043   8.257 -1.6218 -0.6697 -3.3012
29821SOL     OW 1186   6.385   5.863   3.314 -0.0090  0.3116  0.5254
29821SOL    HW1 1187   6.394   5.799   3.243  0.7654 -0.5710  1.3858
29821SOL    HW2 1188   6.344   5.814   3.385  1.2854  0.5430  1.4663
29822SOL     OW 1189   0.443   3.996   1.650  0.0501  0.1137  0.4859
29822SOL    HW1 1190   0.493   4.067   1.610 -0.3501 -0.3326 -0.8317
29822SOL    HW2 1191   0.367   4.039   1.689  1.1373  0.7278  2.0451
29823SOL     OW 1192   2.154   0.550   3.093 -0.5459  0.0290 -0.2002
29823SOL    HW1 1193   2.157   0.600   3.012 -0.3812  0.7026  0.2132
29823SOL    HW2 1194   2.246   0.536   3.115 -0.4497  2.8353  1.6580
29824SOL     OW 1195   4.226   8.451   1.319 -0.4293  0.4208 -0.6090
29824SOL    HW1 1196   4.299   8.507   1.346  2.2889 -2.3274 -1.5999
29824SOL    HW2 1197   4.162   8.511   1.281  1.3456  2.9863  0.1737
29825SOL     OW 1198  11.693   2.448   9.029 -0.4550 -0.6082  0.1061
29825SOL    HW1 1199  11.622   2.464   9.091 -0.8545  0.6752 -0.6438
29825SOL    HW2 1200  11.769   2.492   9.068 -0.3927 -0.8736  0.2841
29826SOL     OW 1201   4.050   0.953   9.747  0.0784 -0.1899  0.2189
29826SOL    HW1 1202   4.012   0.866   9.750  0.3438 -0.3221 -0.1475
29826SOL    HW2 1203   4.019   0.996   9.827  0.1005 -0.6814  0.4966
29827SOL     OW 1204   0.568   1.166   8.206 -0.1290 -0.3629 -0.0481
29827SOL    HW1 1205   0.553   1.074   8.185 -3.1198  0.1080 -0.4731
29827SOL    HW2 1206   0.586   1.208   8.122  0.5542 -0.4544  0.0529
29828SOL     OW 1207   3.884   1.672   0.269 -0.0592  0.3540 -0.0227
29828SOL    HW1 1208   3.811   1.611   0.258 -0.1254  0.2438  0.9350
29828SOL    HW2 1209   3.893   1.714   0.184  0.3176 -1.3350 -0.8577
29829SOL     OW 1210   3.151   0.472   9.821  0.4027 -0.1171  0.1705
29829SOL    HW1 1211   3.072   0.424   9.798 -1.2030  2.2103  0.5039
29829SOL    HW2 1212   3.222   0.423   9.779 -1.3233 -1.5507 -1.2228
29830SOL     OW 1213  11.223   5.680   7.293  0.5601 -0.2792 -0.0782
29830SOL    HW1 1214  11.300   5.651   7.342  0.4609 -2.1445 -0.9349
29830SOL    HW2 1215  11.152   5.677   7.357  1.2006  1.8388  0.8240
29831SOL     OW 1216   5.189   1.222   7.613  0.0494 -0.4177 -0.1570
29831SOL    HW1 1217   5.236   1.277   7.677 -0.0892 -0.0956 -0.3302
29831SOL    HW2 1218   5.241   1.231   7.533 -0.2885 -0.0795 -0.3429
29832SOL     OW 1219   0.986   5.970   5.677  0.2778 -0.1897 -0.1428
29832SOL    HW1 1220   1.070   6.013   5.661  1.4077 -1.1075  2.6981
29832SOL    HW2 1221   0.932   6.037   5.717 -0.1162  0.2002 -1.3002
29833SOL     OW 1222   7.367   3.263   9.194 -0.3187 -0.1888  0.0737
29833SOL    HW1 1223   7.433   3.329   9.214 -1.4734  1.1935 -0.4336
29833SOL    HW2 1224   7.320   3.250   9.277  0.6848 -1.3339  0.4909
29834SOL     OW 1225   7.570   1.064   8.250  0.2607  0.5002  0.6805
29834SOL    HW1 1226   7.599   1.129   8.313  2.0042 -1.3927  1.9590
29834SOL    HW2 1227   7.622   0.986   8.270 -0.6727 -0.8483 -1.7214
29835SOL     OW 1228   8.685  10.443   8.113  0.2690  0.4916 -0.0160
29835SOL    HW1 1229   8.624  10.445   8.039  1.8066 -1.3075 -1.3948
29835SOL    HW2 1230   8.652  10.373   8.169  0.6333  0.0339 -0.3737
29836SOL     OW 1231   5.828   5.352   1.845  0.1854  0.1633 -0.3569
29836SOL    HW1 1232   5.800   5.357   1.937  1.1310 -0.7565 -0.0020
29836SOL    HW2 1233   5.877   5.433   1.831  0.1888  0.2276  0.0050
29837SOL     OW 1234  10.364   5.524  10.635 -0.2704  0.1080  0.0459
29837SOL    HW1 1235  10.337   5.509  10.725  0.1890  2.7444  0.6995
29837SOL    HW2 1236  10.429   5.455  10.617 -1.2635 -1.2068  1.2405
29838SOL     OW 1237   0.207   4.007   7.334  0.4651 -0.2023  0.5975
29838SOL    HW1 1238   0.198   3.939   7.267  0.8529 -0.7371  1.0785
29838SOL    HW2 1239   0.132   3.993   7.393  0.0393  0.3624  0.1973
29839SOL     OW 1240  10.805   2.713   1.015 -0.2162  0.4850 -0.3794
29839SOL    HW1 1241  10.724   2.762   1.002 -1.5895 -1.2989  0.9490
29839SOL    HW2 1242  10.823   2.721   1.109  1.2342  0.9280 -0.6694
29840SOL     OW 1243   3.426   8.827   2.549  0.3097 -0.2650  0.4845
29840SOL    HW1 1244   3.519   8.849   2.558  0.3825 -0.6803  0.7659
29840SOL    HW2 1245   3.408   8.769   2.622  0.2922 -1.6996 -0.6175
29841SOL     OW 1246   2.886  11.007   6.936 -0.6500  0.0093 -0.6564
29841SOL    HW1 1247   2.894  11.070   6.864 -1.0903 -0.4825 -1.1496
29841SOL    HW2 1248   2.913  10.924   6.898  0.8141  0.0400  0.2426
29842SOL     OW 1249   2.398   6.222   3.214  0.3013  0.3607 -0.0890
29842SOL    HW1 1250   2.432   6.299   3.260  1.1289 -0.8811  1.4934
29842SOL    HW2 1251   2.364   6.256   3.131  0.5122  2.4290  0.6229
29843SOL     OW 1252   2.517   2.292   8.988  0.3641  0.0583 -0.3898
29843SOL    HW1 1253   2.450   2.248   9.041  1.8170 -1.5540  0.2017
29843SOL    HW2 1254   2.528   2.236   8.912 -0.0060  1.1180 -1.2481
29844SOL     OW 1255   6.252   1.730   0.935  0.4852  0.3357 -0.1107
29844SOL    HW1 1256   6.200   1.797   0.980 -1.9533 -0.5311 -1.4593
29844SOL    HW2 1257   6.257   1.760   0.844  2.2641  0.2882 -0.0726
29845SOL     OW 1258   3.453  10.551   6.909 -0.1505  0.1272 -0.1010
29845SOL    HW1 1259   3.367  10.592   6.899 -1.4715 -2.6432 -1.1000
29845SOL    HW2 1260   3.447  10.501   6.991 -0.4184 -1.9826 -1.3422
29846SOL     OW 1261   9.225   3.151   3.112 -0.1601 -0.4557 -0.2969
29846SOL    HW1 1262   9.172   3.082   3.074 -2.3211  1.0682 -0.2135
29846SOL    HW2 1263   9.244   3.122   3.201  0.0578 -1.4734 -0.6649
29847SOL     OW 1264   7.941   2.482   0.807 -0.2782 -0.3529  0.2073
29847SOL    HW1 1265   7.956   2.550   0.741 -0.5309 -0.3765  0.1241
29847SOL    HW2 1266   8.027   2.444   0.823 -0.0808  0.2214  0.5108
29848SOL     OW 1267   5.316   7.964   3.329 -0.1161 -0.1403  0.3780
29848SOL    HW1 1268   5.233   7.963   3.376 -0.5366 -1.1936 -0.3631
29848SOL    HW2 1269   5.378   8.001   3.392 -1.0023  0.0424  1.1681
29849SOL     OW 1270   6.524   1.473  10.143  0.3716 -0.2757 -0.7214
29849SOL    HW1 1271   6.487   1.385  10.150 -1.5670  0.5578  0.5224
29849SOL    HW2 1272   6.476   1.513  10.070  0.9215 -0.0931 -0.9893
29850SOL     OW 1273   0.436   0.970   1.865  0.9039  0.1012  0.5925
29850SOL    HW1 1274   0.408   1.049   1.818 -1.5149 -1.4803 -0.7967
29850SOL    HW2 1275   0.497   0.928   1.804 -1.2415 -1.2857 -0.7324
29851SOL     OW 1276   2.581   1.266   0.618  0.2814  0.0544  0.7852
29851SOL    HW1 1277   2.645   1.336   0.628  1.1517 -0.4505 -0.9433
29851SOL    HW2 1278   2.617   1.194   0.670  1.2485 -0.2865 -0.3172
29852SOL     OW 1279   0.411   5.805   8.964  0.2531  0.1758  0.4828
29852SOL    HW1 1280   0.341   5.806   8.899  0.3940 -0.7601  0.2916
29852SOL    HW2 1281   0.468   5.733   8.936  0.3519 -0.2030  1.5899
29853SOL     OW 1282  11.438   5.964   7.845  0.4178 -0.1360  0.1241
29853SOL    HW1 1283  11.460   5.908   7.920 -0.3776 -1.7594 -0.7947
29853SOL    HW2 1284  11.343   5.966   7.844  0.4256  0.2640 -0.5602
29854SOL     OW 1285   5.337   4.968   5.494 -0.1541  0.4771  0.1491
29854SOL    HW1 1286   5.287   4.891   5.469 -2.9344  2.3195 -0.4148
29854SOL    HW2 1287   5.352   4.957   5.588 -0.7870 -0.5706  0.1431
29855SOL     OW 1288   2.172  11.951  10.612  0.1053 -0.6086  0.9148
29855SOL    HW1 1289   2.156  12.024  10.673 -0.6465 -0.3741  0.4476
29855SOL    HW2 1290   2.085  11.917  10.592  0.4456 -1.5997  1.0721
29856SOL     OW 1291  10.961   7.209  11.267  0.5206  0.4928  0.4495
29856SOL    HW1 1292  11.044   7.237  11.306 -0.2244  0.6598  2.0400
29856SOL    HW2 1293  10.929   7.286  11.220  0.3655  1.0773  1.4769
29857SOL     OW 1294   8.900   7.314   4.730  0.2467  0.4750  0.1734
29857SOL    HW1 1295   8.984   7.314   4.684 -0.5493 -0.8526 -1.3971
29857SOL    HW2 1296   8.877   7.221   4.738 -1.4556  0.8297 -0.2105
29858SOL     OW 1297   9.995   3.188   0.982  0.2123  0.2558  0.7479
29858SOL    HW1 1298  10.078   3.160   0.941  0.7146 -0.0029  1.9002
29858SOL    HW2 1299   9.955   3.107   1.013 -1.0491  0.2519 -0.7848
29859SOL     OW 1300   7.246   6.506   0.821 -0.7624 -0.3820  0.7456
29859SOL    HW1 1301   7.161   6.464   0.827 -0.3761 -1.0053  2.3570
29859SOL    HW2 1302   7.304   6.451   0.873  0.0952  1.2925  1.6636
29860SOL     OW 1303   5.307   2.421   7.190  0.3475 -0.8106 -0.1030
29860SOL    HW1 1304   5.215   2.436   7.211  0.5837  0.2777  0.1822
29860SOL    HW2 1305   5.327   2.336   7.230 -0.3705 -0.7766  0.3441
29861SOL     OW 1306   7.301   8.643   7.526 -0.1216 -0.4705  0.5766
29861SOL    HW1 1307   7.206   8.643   7.542  0.0471  1.2603  1.7661
29861SOL    HW2 1308   7.313   8.701   7.451  0.0162 -0.5831  0.5112
29862SOL     OW 1309   8.920   8.005   2.898 -0.1883  0.1234  0.3424
29862SOL    HW1 1310   8.924   7.994   2.993  1.3150 -0.4628  0.2329
29862SOL    HW2 1311   8.865   7.932   2.868 -1.4221  0.8236  0.8101
29863SOL     OW 1312   2.728  10.046   2.732  0.0398  0.0802 -0.0279
29863SOL    HW1 1313   2.661   9.981   2.710 -0.8724  1.5024 -1.6395
29863SOL    HW2 1314   2.781  10.055   2.653  1.3974 -0.0766  0.8108
29864SOL     OW 1315   3.187   7.164   3.790  0.3008  0.2693  0.5888
29864SOL    HW1 1316   3.206   7.177   3.697 -2.4718  0.9149  0.0082
29864SOL    HW2 1317   3.271   7.175   3.834  1.6576  0.1728 -1.8020
29865SOL     OW 1318   8.121   2.990   5.401  0.5854  0.8149  0.1273
29865SOL    HW1 1319   8.076   2.914   5.438 -0.8428  1.4140 -0.3339
29865SOL    HW2 1320   8.154   2.960   5.316 -0.6266  0.9098 -0.3891
29866SOL     OW 1321   6.282   0.357   1.067  0.6088  0.5544  0.0138
29866SOL    HW1 1322   6.316   0.337   1.154 -0.7763  1.3344  0.7716
29866SOL    HW2 1323   6.283   0.452   1.061  0.2661  0.5291 -0.6424
29867SOL     OW 1324   7.289   1.453   3.327  0.3535 -0.4485  0.4266
29867SOL    HW1 1325   7.216   1.452   3.265 -0.2410 -1.3453  1.1037
29867SOL    HW2 1326   7.362   1.413   3.279 -0.1041 -1.1402  0.2922
29868SOL     OW 1327   2.793   3.590   9.057 -0.6068 -0.1734 -0.1822
29868SOL    HW1 1328   2.879   3.578   9.097 -1.6690  1.9774  3.1462
29868SOL    HW2 1329   2.737   3.525   9.100 -1.1665  0.0944 -0.4953
29869SOL     OW 1330  10.635  10.094   7.946  0.3701 -0.0488 -0.2448
29869SOL    HW1 1331  10.666  10.011   7.983 -1.5561 -0.2700  1.0059
29869SOL    HW2 1332  10.549  10.073   7.910 -0.0268  1.3439 -0.1640
29870SOL     OW 1333   7.188   1.108  11.950 -0.0013  0.1393 -0.3388
29870SOL    HW1 1334   7.262   1.111  11.889  1.3351  0.9709  1.2351
29870SOL    HW2 1335   7.216   1.162  12.024 -1.3080 -1.2673  1.2715
29871SOL     OW 1336   7.994   8.842   3.392 -0.3937 -0.4597  0.2372
29871SOL    HW1 1337   8.056   8.872   3.458  0.1949  0.2436 -0.6157
29871SOL    HW2 1338   8.041   8.849   3.309 -0.5482 -2.8287 -0.1484
29872SOL     OW 1339   2.941   1.091   4.210 -0.0946 -0.0378 -0.6580
29872SOL    HW1 1340   2.923   1.023   4.275 -0.4529  0.2577 -0.4477
29872SOL    HW2 1341   2.984   1.044   4.139 -1.2302 -0.6759 -0.9544
29873SOL     OW 1342   2.126   4.229   9.041 -0.2047 -0.2612 -0.2110
29873SOL    HW1 1343   2.042   4.185   9.024 -0.6788  1.0841 -1.6841
29873SOL    HW2 1344   2.100   4.312   9.081  0.3994  0.2290 -0.8210
29874SOL     OW 1345   0.252   1.343  10.252  0.5101  0.4886 -0.6045
29874SOL    HW1 1346   0.179   1.286  10.277 -1.1165  2.3844 -0.7943
29874SOL    HW2 1347   0.226   1.430  10.283  1.6975  1.6054 -2.5678
29875SOL     OW 1348   3.160   5.799   9.065  0.8375 -0.0447  0.5933
29875SOL    HW1 1349   3.222   5.830   9.131  0.3816  2.7507 -0.1547
29875SOL    HW2 1350   3.137   5.877   9.015  1.4774 -2.0555 -3.2218
29876SOL     OW 1351   6.447   2.644  10.784  0.7531  0.1173 -0.3222
29876SOL    HW1 1352   6.464   2.725  10.832  0.3481 -0.2121  0.3995
29876SOL    HW2 1353   6.519   2.586  10.808  0.4472 -0.1144  0.0472
29877SOL     OW 1354   2.763   0.453  10.349  0.8409 -0.4452 -0.3012
29877SOL    HW1 1355   2.819   0.381  10.378  0.8131 -1.4549 -2.5171
29877SOL    HW2 1356   2.729   0.424  10.265  1.2223  2.3555 -1.5509
29878SOL     OW 1357   4.594   7.528   1.818 -0.0742  1.0343 -0.2424
29878SOL    HW1 1358   4.516   7.570   1.782 -0.5357  0.2496 -0.1815
29878SOL    HW2 1359   4.598   7.559   1.909 -0.9318  0.2754  0.0822
29879SOL     OW 1360   3.481   0.581   8.931 -0.3755 -0.1453 -0.3968
29879SOL    HW1 1361   3.568   0.567   8.895  1.1408  1.4593  2.2758
29879SOL    HW2 1362   3.451   0.493   8.956  1.2418 -0.5810  0.1632
29880SOL     OW 1363   4.444   7.040   9.651 -0.0772  0.1034  0.4524
29880SOL    HW1 1364   4.507   6.986   9.603  2.4765  1.5223  1.9564
29880SOL    HW2 1365   4.398   7.089   9.584 -0.6639 -2.0346 -0.7862
29881SOL     OW 1366  10.522   6.190   8.264 -0.1167  0.1254 -0.0855
29881SOL    HW1 1367  10.441   6.181   8.214 -0.4717 -0.1279  0.5304
29881SOL    HW2 1368  10.591   6.176   8.199 -0.5847 -1.3627 -0.2924
29882SOL     OW 1369   4.826   3.266   0.087  0.1449  0.0540 -0.0765
29882SOL    HW1 1370   4.851   3.283   0.178 -1.9893  1.2791  0.3463
29882SOL    HW2 1371   4.897   3.305   0.035  1.0404 -0.0474  1.0409
29883SOL     OW 1372   0.319   9.591   7.291 -0.0092 -0.2022  0.0679
29883SOL    HW1 1373   0.332   9.686   7.292  0.0219 -0.1780 -1.1697
29883SOL    HW2 1374   0.281   9.573   7.205  1.3210 -1.4857 -0.2909
29884SOL     OW 1375   8.263   3.256   2.927 -0.0488  0.2797  0.1446
29884SOL    HW1 1376   8.175   3.248   2.889  0.1534  2.1307 -0.8517
29884SOL    HW2 1377   8.320   3.207   2.867 -0.1783  0.4403 -0.1104
29885SOL     OW 1378   3.610  11.141  10.571  0.1969 -0.0356  0.5797
29885SOL    HW1 1379   3.542  11.093  10.524  0.6957  0.5927 -0.8458
29885SOL    HW2 1380   3.677  11.076  10.588  1.9918  0.4161 -3.4784
29886SOL     OW 1381   3.810   1.944   3.217  0.2905 -0.5162  0.9228
29886SOL    HW1 1382   3.855   1.943   3.302 -0.5919 -0.0633  1.4000
29886SOL    HW2 1383   3.718   1.960   3.238  0.1246  0.0289 -0.1477
29887SOL     OW 1384   6.634   7.597   3.717  0.3583  0.3369 -0.2823
29887SOL    HW1 1385   6.586   7.663   3.768  2.8312  2.3485 -0.3433
29887SOL    HW2 1386   6.640   7.521   3.776 -2.1781  0.2260 -0.0409
29888SOL     OW 1387  11.146   8.098   1.833  0.2394  0.0194  0.0668
29888SOL    HW1 1388  11.158   8.066   1.922 -0.5515 -0.6610 -0.0634
29888SOL    HW2 1389  11.229   8.077   1.789  0.8837  0.9459  0.7936
29889SOL     OW 1390   8.441   8.075   6.534 -0.0888 -0.0548 -0.4579
29889SOL    HW1 1391   8.534   8.085   6.553 -0.0446 -0.6210 -0.3587
29889SOL    HW2 1392   8.438   8.023   6.453 -0.3060  0.7859 -0.9978
29890SOL     OW 1393   1.909  11.637   7.989 -0.1950  0.1461 -0.6830
29890SOL    HW1 1394   1.845  11.696   7.951  1.9805  1.7890 -2.0323
29890SOL    HW2 1395   1.910  11.660   8.082 -0.4425  1.2056 -0.9287
29891SOL     OW 1396   3.218   6.292   9.025  0.4283  0.0363  0.2909
29891SOL    HW1 1397   3.230   6.381   9.058  1.9324 -0.8153  2.2518
29891SOL    HW2 1398   3.185   6.304   8.936 -3.6642  2.4910  1.8609
29892SOL     OW 1399  11.776   3.850   5.839  0.2864  0.0757  0.4853
29892SOL    HW1 1400  11.750   3.835   5.748 -1.6199  0.0323  1.0142
29892SOL    HW2 1401  11.710   3.805   5.891  0.4325  1.4507  1.9240
29893SOL     OW 1402   2.567   4.767   7.381  0.1393 -0.0703  0.5130
29893SOL    HW1 1403   2.495   4.797   7.325  1.4671 -0.9342 -1.7812
29893SOL    HW2 1404   2.539   4.682   7.414 -0.3934  0.1556  0.6502
29894SOL     OW 1405   3.564   3.751  10.395  0.5646  0.4343 -0.8639
29894SOL    HW1 1406   3.574   3.693  10.470 -1.1067  1.4504  0.2373
29894SOL    HW2 1407   3.560   3.693  10.319 -0.4175 -0.8598  0.1319
29895SOL     OW 1408   1.467   0.049   9.727 -0.2866  0.2824 -0.1553
29895SOL    HW1 1409   1.530  -0.019   9.749 -0.6514  0.4285  1.5098
29895SOL    HW2 1410   1.473   0.112   9.800 -2.6626  0.0512  0.3372
29896SOL     OW 1411   5.571  10.803   4.790 -0.3868 -0.1952  0.3510
29896SOL    HW1 1412   5.610  10.877   4.837 -0.7386 -0.1207  0.5233
29896SOL    HW2 1413   5.590  10.821   4.698  1.6037 -1.0763  0.5206
29897SOL     OW 1414   0.674   3.241   3.687 -0.5879 -0.3666 -0.4039
29897SOL    HW1 1415   0.739   3.282   3.744  0.6479  0.0933 -2.0803
29897SOL    HW2 1416   0.667   3.151   3.719 -0.1248 -0.0499  0.6231
29898SOL     OW 1417   4.046   8.132   2.515 -0.1879  0.3572  0.3449
29898SOL    HW1 1418   4.109   8.100   2.580  1.8871  0.4684 -1.5091
29898SOL    HW2 1419   4.003   8.205   2.558 -1.0570 -1.3718  2.6506
29899SOL     OW 1420   4.287   5.787   0.100  0.6332 -0.3233 -0.2135
29899SOL    HW1 1421   4.306   5.700   0.066  1.9173 -0.2732  0.3295
29899SOL    HW2 1422   4.198   5.781   0.134  1.5786 -2.1767  2.1588
29900SOL     OW 1423   1.987   4.762   2.459 -0.0234 -0.5501 -0.1263
29900SOL    HW1 1424   2.041   4.803   2.391  0.7816  0.6402  1.1701
29900SOL    HW2 1425   1.978   4.671   2.430  0.5295 -0.1594 -1.6661
29901SOL     OW 1426  10.254  11.224   7.795 -0.0985 -0.1713 -0.3858
29901SOL    HW1 1427  10.265  11.194   7.885 -0.4944  0.9428  0.0421
29901SOL    HW2 1428  10.255  11.143   7.743  1.3356 -0.7448  0.4806
29902SOL     OW 1429  10.297   2.090   7.990  0.7889 -0.4846 -0.1284
29902SOL    HW1 1430  10.234   2.036   8.038  0.8899  1.2141  2.0595
29902SOL    HW2 1431  10.252   2.173   7.976  1.5619 -0.2054 -1.0527
29903SOL     OW 1432   2.842   5.362   1.726  0.4812  0.1209  0.4082
29903SOL    HW1 1433   2.780   5.430   1.697 -0.2267 -0.4211  0.6113
29903SOL    HW2 1434   2.903   5.353   1.654  0.6223  1.0131  0.3993
29904SOL     OW 1435   8.253   7.400   0.209 -0.1905  0.2305 -0.1765
29904SOL    HW1 1436   8.266   7.490   0.238 -1.1036  0.1759  0.4215
29904SOL    HW2 1437   8.337   7.357   0.228 -0.4278  0.4504  1.4545
29905SOL     OW 1438   1.279   9.581   5.316  0.2080  0.1208 -0.2350
29905SOL    HW1 1439   1.200   9.538   5.285  1.7743 -0.7628 -3.4115
29905SOL    HW2 1440   1.264   9.594   5.410 -2.5055 -2.5062 -0.1612
29906SOL     OW 1441   5.474   1.224  10.782  0.2064  0.4709  0.4271
29906SOL    HW1 1442   5.564   1.194  10.779 -0.4086 -1.4473 -0.1842
29906SOL    HW2 1443   5.473   1.304  10.729  0.9098 -1.3940 -2.6066
29907SOL     OW 1444   8.934   2.693   8.129  0.0017  0.2962 -0.6684
29907SOL    HW1 1445   9.020   2.709   8.167  0.1568 -0.0295 -0.8736
29907SOL    HW2 1446   8.878   2.761   8.166  0.6777  1.4461 -1.6621
29908SOL     OW 1447   7.652   3.927  10.037 -0.8216 -0.1644  0.1657
29908SOL    HW1 1448   7.612   4.010  10.009 -0.1374 -0.1561 -0.8805
29908SOL    HW2 1449   7.729   3.919   9.980 -0.5443 -1.2202  0.6814
29909SOL     OW 1450   5.773   7.352   0.956 -0.2274  0.1053 -0.1675
29909SOL    HW1 1451   5.742   7.266   0.984 -0.1685 -0.1636 -0.9262
29909SOL    HW2 1452   5.729   7.413   1.016  0.4545 -0.5000  0.9780
29910SOL     OW 1453   6.978   2.100   5.949 -0.6827  0.7604 -0.1009
29910SOL    HW1 1454   7.060   2.137   5.982  0.4362 -0.1875 -1.7239
29910SOL    HW2 1455   6.977   2.010   5.982  1.7368 -1.1251 -4.3644
29911SOL     OW 1456   3.277   9.372   5.230  0.2672 -0.1662 -0.0822
29911SOL    HW1 1457   3.300   9.301   5.291  0.8412  0.1679  0.1022
29911SOL    HW2 1458   3.226   9.329   5.162  0.9409 -0.8467 -0.1807
29912SOL     OW 1459   4.733   8.771   3.558  0.5272 -0.2070  0.0340
29912SOL    HW1 1460   4.782   8.751   3.478  0.7340  0.6963 -0.0745
29912SOL    HW2 1461   4.770   8.853   3.589 -0.6280  0.2801  0.1840
29913SOL     OW 1462   9.265   4.844  11.496 -0.2560  0.3746  0.1208
29913SOL    HW1 1463   9.269   4.772  11.559 -1.0400 -0.4747 -0.7816
29913SOL    HW2 1464   9.190   4.824  11.441 -0.2264  1.6682 -0.4246
29914SOL     OW 1465   7.651   8.548  10.292  0.1946  0.1123 -0.3043
29914SOL    HW1 1466   7.590   8.599  10.346  1.7042  0.1302  1.4728
29914SOL    HW2 1467   7.663   8.601  10.213 -0.3179  1.2173  0.3364
29915SOL     OW 1468   9.214   4.601  11.935  0.1684 -0.0412 -0.3779
29915SOL    HW1 1469   9.203   4.545  12.012  0.7975  0.3343  0.0016
29915SOL    HW2 1470   9.298   4.645  11.950  0.9216 -0.8983 -1.8937
29916SOL     OW 1471   3.670   6.635   2.558 -0.1029 -0.1268 -0.3283
29916SOL    HW1 1472   3.584   6.640   2.598  0.0536 -0.4566  0.0596
29916SOL    HW2 1473   3.686   6.723   2.523 -0.9342 -0.2832 -1.1309
29917SOL     OW 1474   5.255   7.627   0.322  0.1968  0.3313 -0.1944
29917SOL    HW1 1475   5.240   7.599   0.412 -1.0319  0.7989 -0.2315
29917SOL    HW2 1476   5.204   7.565   0.268  0.2756  0.5333 -0.5052
29918SOL     OW 1477   8.886   8.131   9.383  0.4505 -0.0409  0.4696
29918SOL    HW1 1478   8.944   8.089   9.447 -1.6833 -3.1906  0.5081
29918SOL    HW2 1479   8.910   8.092   9.299  1.6079  2.3346 -0.4299
29919SOL     OW 1480   0.181   6.847   9.815 -0.2175  0.5700 -0.2752
29919SOL    HW1 1481   0.132   6.879   9.891  0.3112 -0.1424  0.3814
29919SOL    HW2 1482   0.190   6.753   9.831 -1.5903  0.0703 -2.0558
29920SOL     OW 1483   5.497   9.633   0.643 -0.4240 -0.2930 -0.4247
29920SOL    HW1 1484   5.497   9.725   0.668  0.8411 -0.2537 -0.4662
29920SOL    HW2 1485   5.576   9.623   0.589  0.3407 -1.7258  0.8668
29921SOL     OW 1486   4.099   6.735   5.445  0.2016 -0.4646 -0.4456
29921SOL    HW1 1487   4.006   6.755   5.436  0.0866 -0.6678  0.2466
29921SOL    HW2 1488   4.117   6.743   5.539  1.5494  2.4972 -0.8383
29922SOL     OW 1489  11.488   1.123   2.419  0.4182  0.9794  0.0356
29922SOL    HW1 1490  11.487   1.027   2.422  1.6831  0.9397  2.9026
29922SOL    HW2 1491  11.565   1.145   2.367 -0.3537  0.5190 -1.3675
29923SOL     OW 1492   7.385  11.183  11.643  0.3200  0.1780 -0.2014
29923SOL    HW1 1493   7.389  11.140  11.728  0.3959 -0.4259 -0.5037
29923SOL    HW2 1494   7.422  11.119  11.582 -0.9012  0.0856 -0.8921
29924SOL     OW 1495  11.324  11.344  10.317  0.0071 -0.9897  0.5175
29924SOL    HW1 1496  11.316  11.422  10.371  0.6638 -0.7540  0.2879
29924SOL    HW2 1497  11.263  11.281  10.356 -0.7077 -0.2844  0.5498
29925SOL     OW 1498   9.243   4.868   6.448  0.5179 -0.2862  0.2661
29925SOL    HW1 1499   9.316   4.926   6.424  0.6304 -0.2596  0.6628
29925SOL    HW2 1500   9.259   4.847   6.540 -0.6632  0.7366  0.7287
29926SOL     OW 1501   1.760  10.576   3.755  0.5606 -0.8342  0.0935
29926SOL    HW1 1502   1.725  10.511   3.816 -1.5092  0.0911 -0.0227
29926SOL    HW2 1503   1.683  10.622   3.722  1.8332  0.4944 -1.1752
29927SOL     OW 1504   8.363  10.471  11.891  0.3320 -0.4757  0.2543
29927SOL    HW1 1505   8.357  10.448  11.799  0.1737 -0.6440  0.3055
29927SOL    HW2 1506   8.454  10.454  11.915  0.6542  0.5944 -0.1381
29928SOL     OW 1507   7.465   9.870   8.157 -0.1420  0.6540 -0.3290
29928SOL    HW1 1508   7.473   9.965   8.145 -1.3265  0.7036 -0.8793
29928SOL    HW2 1509   7.451   9.835   8.069 -1.5877  0.1997  0.0486
29929SOL     OW 1510   8.394   9.949   6.135  0.2188  0.1515 -0.0495
29929SOL    HW1 1511   8.302   9.925   6.146  0.4033 -0.8802 -0.6187
29929SOL    HW2 1512   8.408   9.947   6.041  1.2496 -1.5004  0.0843
29930SOL     OW 1513   4.661   2.523   1.962  0.2063 -0.0481  0.1943
29930SOL    HW1 1514   4.691   2.521   1.871 -0.3460 -2.5228 -0.0113
29930SOL    HW2 1515   4.708   2.597   2.002  0.3951  1.1554 -2.0840
29931SOL     OW 1516   0.236   8.313   1.360 -0.3720  0.4136 -0.3539
29931SOL    HW1 1517   0.191   8.234   1.332 -0.8613  0.0903  1.2450
29931SOL    HW2 1518   0.296   8.334   1.288 -0.6839 -1.0417 -1.0612
29932SOL     OW 1519   4.887   9.702   8.692  0.3865 -0.0201 -0.7184
29932SOL    HW1 1520   4.938   9.782   8.681  2.2065 -0.7331  1.6142
29932SOL    HW2 1521   4.869   9.697   8.786 -2.2179 -0.9196 -1.1789
29933SOL     OW 1522   7.968   1.569  11.577 -0.0104  0.1315  0.8680
29933SOL    HW1 1523   7.955   1.651  11.529  2.0703 -1.0195 -1.8996
29933SOL    HW2 1524   8.061   1.568  11.599 -0.0533 -1.3683  1.0927
29934SOL     OW 1525   8.426   4.973   8.593 -0.3869  0.1939 -0.0004
29934SOL    HW1 1526   8.490   4.989   8.523 -0.4629  0.9544  0.1041
29934SOL    HW2 1527   8.373   4.901   8.559  0.3195 -0.2362 -0.2218
29935SOL     OW 1528   3.351  10.497  11.540  0.0979  0.3405 -0.5359
29935SOL    HW1 1529   3.324  10.531  11.625  0.1690  0.7355 -0.6701
29935SOL    HW2 1530   3.443  10.473  11.552 -0.4344 -1.5648  0.0923
29936SOL     OW 1531   9.711   0.579  10.383  0.1900  0.0950  0.2959
29936SOL    HW1 1532   9.666   0.658  10.410  0.4340  0.1389  0.5800
29936SOL    HW2 1533   9.756   0.549  10.462 -0.6169 -0.8203  0.4330
29937SOL     OW 1534  10.413   1.480  11.781  0.4978 -0.1937 -0.8363
29937SOL    HW1 1535  10.485   1.532  11.744  0.1582  0.0562 -1.1560
29937SOL    HW2 1536  10.375   1.436  11.705 -0.8264  1.0819 -0.9595
29938SOL     OW 1537   1.903   6.260   6.725 -0.0383  0.2712 -0.2029
29938SOL    HW1 1538   1.838   6.194   6.701 -0.4107  1.0864 -1.5332
29938SOL    HW2 1539   1.957   6.218   6.792 -2.1730 -0.2793  1.2578
29939SOL     OW 1540   1.055   1.910   0.440  0.4386 -0.0567  0.3745
29939SOL    HW1 1541   1.126   1.900   0.502 -0.6278 -1.7691  1.4115
29939SOL    HW2 1542   0.987   1.850   0.471 -0.9992  0.6419 -1.2226
29940SOL     OW 1543   5.843   8.754  10.768  0.7691  0.6085 -0.4939
29940SOL    HW1 1544   5.838   8.717  10.680  2.2492  0.9407 -0.7470
29940SOL    HW2 1545   5.823   8.846  10.756 -0.0044  0.4672 -0.3197
29941SOL     OW 1546   5.237   8.258   9.661  0.2093  0.6734 -0.3117
29941SOL    HW1 1547   5.329   8.231   9.664 -0.5176 -2.2428 -0.8161
29941SOL    HW2 1548   5.209   8.258   9.752  0.5150  0.7732 -0.2171
29942SOL     OW 1549  11.872   2.873   2.034 -0.4393 -0.0257 -0.3492
29942SOL    HW1 1550  11.818   2.794   2.030 -0.2373 -0.1487 -0.6732
29942SOL    HW2 1551  11.842   2.926   1.961 -0.1265 -0.0917 -0.5255
29943SOL     OW 1552   0.798   4.562  10.403  0.5989 -0.2355 -0.4660
29943SOL    HW1 1553   0.767   4.480  10.442  0.1378  0.7329  1.3321
29943SOL    HW2 1554   0.892   4.549  10.392  0.9083 -0.2892  1.8317
29944SOL     OW 1555   2.403   5.509   5.443  0.1806  0.3609  0.4127
29944SOL    HW1 1556   2.365   5.544   5.523 -0.3908 -1.1694  0.8442
29944SOL    HW2 1557   2.496   5.498   5.463 -0.3763 -2.5726  1.9049
29945SOL     OW 1558  11.253   7.747  11.439 -0.1099 -0.2114 -0.3436
29945SOL    HW1 1559  11.175   7.788  11.402  0.0748  0.0234 -0.4765
29945SOL    HW2 1560  11.324   7.769  11.378  0.3491  0.8507  0.5357
29946SOL     OW 1561   6.131   4.905   5.134  0.0240 -0.5611 -0.3024
29946SOL    HW1 1562   6.114   4.917   5.227 -0.3211 -2.3247 -0.1058
29946SOL    HW2 1563   6.133   4.994   5.098  1.2388  0.2262  1.5454
29947SOL     OW 1564   1.645   2.284  11.413 -0.3034 -0.3054  0.6094
29947SOL    HW1 1565   1.659   2.273  11.507 -2.4120 -2.4959  0.7598
29947SOL    HW2 1566   1.610   2.373  11.404  1.5725  0.5998  1.6053
29948SOL     OW 1567   7.461   6.644  11.616  0.0986 -0.1467  0.3009
29948SOL    HW1 1568   7.515   6.653  11.694  0.3313 -2.7026  0.5057
29948SOL    HW2 1569   7.454   6.733  11.581  1.4104  0.7822  2.2618
29949SOL     OW 1570   3.593   2.093  10.189  0.2709 -0.9616  0.0523
29949SOL    HW1 1571   3.554   2.091  10.102 -2.5451  0.4559  1.1236
29949SOL    HW2 1572   3.641   2.176  10.193  0.7535 -1.2233 -0.2637
29950SOL     OW 1573   9.977   8.197   5.937 -0.1727  0.2139  0.0426
29950SOL    HW1 1574  10.052   8.229   5.987 -0.7449  0.3306  0.8433
29950SOL    HW2 1575   9.977   8.103   5.953 -0.8463  0.3508  0.9837
29951SOL     OW 1576   8.741   2.360   9.277 -0.1559  0.3171 -0.0783
29951SOL    HW1 1577   8.820   2.402   9.310 -1.1150  1.0812  1.3291
29951SOL    HW2 1578   8.671   2.392   9.334 -0.9689 -3.1969  1.1856
29952SOL     OW 1579   4.654   4.583   8.567 -0.1169 -0.0358 -0.0224
29952SOL    HW1 1580   4.666   4.671   8.529  0.7912 -0.5227 -0.9055
29952SOL    HW2 1581   4.586   4.595   8.633 -0.2213  1.2791 -0.3355
29953SOL     OW 1582   9.460  10.135   5.448 -0.0146  0.6329  0.8698
29953SOL    HW1 1583   9.457  10.062   5.511 -4.6785 -0.0179  0.2288
29953SOL    HW2 1584   9.438  10.095   5.364 -2.1811  2.5795  0.4132
29954SOL     OW 1585   7.000   8.213   4.062 -0.0060  0.0135 -0.2969
29954SOL    HW1 1586   6.990   8.304   4.034  1.8882  0.9266  1.7161
29954SOL    HW2 1587   6.915   8.189   4.099 -0.3416  1.1620 -0.2889
29955SOL     OW 1588   9.788   4.231  10.570 -0.1992 -0.8273  0.4350
29955SOL    HW1 1589   9.807   4.279  10.651 -1.7531  0.7902 -0.0963
29955SOL    HW2 1590   9.874   4.219  10.530  0.6000 -1.6051  2.2490
29956SOL     OW 1591   5.502   0.101   9.395 -0.3941  0.7532  0.4213
29956SOL    HW1 1592   5.587   0.062   9.418  0.3556  2.3904  0.5288
29956SOL    HW2 1593   5.491   0.080   9.302  0.3950  0.9990  0.2626
29957SOL     OW 1594   6.366  11.151   0.360 -0.5942  0.0908  0.2420
29957SOL    HW1 1595   6.279  11.180   0.389 -0.9198 -0.9443  0.3143
29957SOL    HW2 1596   6.349  11.080   0.299  0.1478  1.2397 -1.3745
29958SOL     OW 1597   9.596  10.832  10.804 -0.6710 -0.3533 -0.1420
29958SOL    HW1 1598   9.652  10.836  10.726  1.7475  0.3421  1.5253
29958SOL    HW2 1599   9.518  10.882  10.780  0.6131  1.0304 -1.6618
29959SOL     OW 1600   6.527   7.838   2.788 -0.0389 -0.3104  0.1232
29959SOL    HW1 1601   6.617   7.811   2.772  0.5713  1.2035  0.7775
29959SOL    HW2 1602   6.474   7.763   2.762  1.2217 -0.3740 -2.6585
29960SOL     OW 1603  11.390   3.235  10.287 -1.0226  0.1581 -0.0538
29960SOL    HW1 1604  11.389   3.174  10.361  0.4065 -0.4475 -0.5080
29960SOL    HW2 1605  11.344   3.187  10.217  0.5669 -0.6575 -0.5773
29961SOL     OW 1606   3.207  10.980   3.245  0.0736  0.1730  0.0362
29961SOL    HW1 1607   3.237  10.897   3.283 -0.4945 -0.1198 -0.1513
29961SOL    HW2 1608   3.288  11.023   3.218  0.3139 -0.9448 -1.1517
29962SOL     OW 1609   4.528   8.914   6.405 -0.4574  0.1645 -0.2205
29962SOL    HW1 1610   4.603   8.939   6.352 -1.0304  1.4732 -0.4592
29962SOL    HW2 1611   4.522   8.819   6.396 -0.4243  0.3345 -2.3640
29963SOL     OW 1612   2.381   8.114   1.180  0.1436 -0.3219  0.0907
29963SOL    HW1 1613   2.388   8.156   1.266  1.1749 -0.5250  0.1182
29963SOL    HW2 1614   2.449   8.156   1.128  0.3881 -1.1268 -0.2387
29964SOL     OW 1615   9.346   9.373   7.169  0.1506  0.1671 -0.3234
29964SOL    HW1 1616   9.256   9.378   7.135 -0.6844  0.8686  1.8044
29964SOL    HW2 1617   9.383   9.459   7.151  0.9798 -0.6078 -2.5721
29965SOL     OW 1618   9.520   5.311   7.494  0.8091 -0.2146 -0.1414
29965SOL    HW1 1619   9.486   5.352   7.574  1.2155  0.5543 -0.3499
29965SOL    HW2 1620   9.543   5.385   7.437  2.5550 -0.6840 -0.1028
29966SOL     OW 1621  11.375   3.640  11.787 -0.3985 -0.1932  0.6373
29966SOL    HW1 1622  11.456   3.640  11.735 -0.1015 -0.3275  1.0880
29966SOL    HW2 1623  11.306   3.617  11.725 -0.3079  1.3185 -0.0691
29967SOL     OW 1624   4.806   7.732   0.845  0.0425  0.1317  0.6027
29967SOL    HW1 1625   4.790   7.822   0.872  0.7484  0.3782  0.2287
29967SOL    HW2 1626   4.790   7.680   0.924 -2.3699  0.3316  0.3239
29968SOL     OW 1627   9.273   0.534   4.144  0.3283 -0.5943 -0.1174
29968SOL    HW1 1628   9.258   0.443   4.119  0.4032 -0.1549 -1.8670
29968SOL    HW2 1629   9.212   0.584   4.090  1.2581  0.4922 -0.1968
29969SOL     OW 1630  10.943  11.292   8.946 -0.1047 -0.3188 -0.6907
29969SOL    HW1 1631  11.015  11.233   8.923  0.1385  0.3009 -1.5832
29969SOL    HW2 1632  10.951  11.303   9.041  1.1438 -0.0713 -0.7973
29970SOL     OW 1633   8.785   0.189   4.649  0.4129  0.6199 -0.4562
29970SOL    HW1 1634   8.723   0.241   4.700 -0.0575  0.2794 -0.6701
29970SOL    HW2 1635   8.749   0.189   4.560  0.7723  0.4998 -0.6054
29971SOL     OW 1636   7.884   1.984   8.757  0.6713  0.3479 -0.0266
29971SOL    HW1 1637   7.954   1.924   8.786 -0.3688 -0.0980  1.6819
29971SOL    HW2 1638   7.912   2.011   8.669  0.4301 -3.9092 -1.6829
29972SOL     OW 1639  10.035   1.851   4.725 -0.4320 -0.2848  0.1698
29972SOL    HW1 1640  10.108   1.816   4.775  0.5578  2.8215  1.1091
29972SOL    HW2 1641   9.996   1.917   4.782 -2.9308 -0.6375 -0.9865
29973SOL     OW 1642   9.197   4.142   6.880  0.1897 -0.0864  0.0917
29973SOL    HW1 1643   9.271   4.190   6.842  0.8823 -0.5541  0.8126
29973SOL    HW2 1644   9.236   4.089   6.949 -0.6401 -1.2540 -0.2997
29974SOL     OW 1645   6.898   7.960   9.886  0.3109  0.2120  0.1625
29974SOL    HW1 1646   6.991   7.946   9.898 -0.2336 -3.9785  0.8460
29974SOL    HW2 1647   6.875   8.030   9.947  2.6518 -0.1042  1.4850
29975SOL     OW 1648   9.396   0.258   0.570  0.0880  0.2182 -0.3953
29975SOL    HW1 1649   9.403   0.165   0.547 -1.4259 -0.0196  0.0206
29975SOL    HW2 1650   9.450   0.267   0.649  1.6573  0.0938 -1.4047
29976SOL     OW 1651   7.285   9.858   6.005  0.1503  0.3508  1.1010
29976SOL    HW1 1652   7.342   9.912   5.951 -2.1395  2.1482  0.3211
29976SOL    HW2 1653   7.260   9.785   5.949  0.4044  0.4192  0.8955
29977SOL     OW 1654   3.754  11.235   6.481  0.3235  0.0553 -0.1134
29977SOL    HW1 1655   3.767  11.228   6.387  1.0229  2.7344 -0.2845
29977SOL    HW2 1656   3.719  11.149   6.506  0.0899 -0.7324 -2.7799
29978SOL     OW 1657  10.457   5.497   4.339 -0.2962  0.4602 -0.1969
29978SOL    HW1 1658  10.527   5.549   4.299  1.4696 -0.2265  1.8184
29978SOL    HW2 1659  10.483   5.406   4.324 -1.1166  0.1859  0.0039
29979SOL     OW 1660   1.234   7.748   7.123 -0.4055  0.1148 -0.2074
29979SOL    HW1 1661   1.327   7.727   7.135 -0.5873  0.4479  2.3057
29979SOL    HW2 1662   1.190   7.664   7.127 -0.5015  0.2255  2.6065
29980SOL     OW 1663   3.229   2.504   1.984 -0.6218  0.1316 -0.3185
29980SOL    HW1 1664   3.210   2.576   1.924  0.2240  1.7422  1.2487
29980SOL    HW2 1665   3.167   2.516   2.057  1.1277  0.8134  1.1318
29981SOL     OW 1666   7.428   1.468   3.050  0.2865 -0.0107 -0.2049
29981SOL    HW1 1667   7.371   1.392   3.057  1.7449 -1.1930 -0.4562
29981SOL    HW2 1668   7.508   1.433   3.009  1.6937  1.2590  1.3109
29982SOL     OW 1669   8.647   8.720  10.754 -0.4627 -0.5680 -0.1700
29982SOL    HW1 1670   8.712   8.763  10.809  1.1734 -1.2974 -1.4200
29982SOL    HW2 1671   8.663   8.755  10.666 -1.4776 -1.0856 -0.5795
29983SOL     OW 1672   8.412   4.174   6.176 -0.4812 -0.0482 -0.0663
29983SOL    HW1 1673   8.327   4.179   6.221  0.2022  0.5961  1.2142
29983SOL    HW2 1674   8.464   4.243   6.217  1.3035 -1.6997  0.5544
29984SOL     OW 1675   4.596   7.474   5.676 -0.5396  0.1316  0.3273
29984SOL    HW1 1676   4.553   7.427   5.604 -1.5539  1.7521 -0.1883
29984SOL    HW2 1677   4.539   7.459   5.751 -0.3261 -0.2798  0.4067
29985SOL     OW 1678   4.866  10.681  11.303  0.1597 -0.1056  0.5203
29985SOL    HW1 1679   4.862  10.636  11.218 -0.7107  0.6787  0.1207
29985SOL    HW2 1680   4.776  10.679  11.335 -0.1555  2.2631 -0.0326
29986SOL     OW 1681   4.457   4.396   8.366  0.1624 -0.3585  0.1464
29986SOL    HW1 1682   4.362   4.403   8.379  0.1494 -0.6941  0.2428
29986SOL    HW2 1683   4.476   4.460   8.297 -0.5484 -2.1075 -1.7716
29987SOL     OW 1684   6.600   4.355   8.854  0.5028 -0.2322 -0.6608
29987SOL    HW1 1685   6.544   4.375   8.929  1.3020 -0.3547 -0.0092
29987SOL    HW2 1686   6.593   4.260   8.844  2.7784 -0.7131  1.2851
29988SOL     OW 1687   4.800   2.223   4.813 -0.2148 -0.7489  0.9512
29988SOL    HW1 1688   4.738   2.151   4.797  0.4366 -1.0393 -0.3198
29988SOL    HW2 1689   4.745   2.300   4.822 -0.8175 -1.1381  0.6693
29989SOL     OW 1690   3.142   1.611   3.423 -0.0263  0.4825  0.5644
29989SOL    HW1 1691   3.104   1.553   3.489 -1.4924  0.4287 -0.2805
29989SOL    HW2 1692   3.066   1.653   3.382  0.9308  1.7416  0.0219
29990SOL     OW 1693   0.190   2.872   6.123 -0.5803  0.3851 -0.0125
29990SOL    HW1 1694   0.135   2.880   6.045 -0.1744  0.6355 -0.2700
29990SOL    HW2 1695   0.279   2.866   6.090 -0.2999  1.6058  0.4630
29991SOL     OW 1696   0.390   4.776   0.904 -0.2658 -0.1735 -0.4503
29991SOL    HW1 1697   0.481   4.808   0.906 -0.3607  0.0861  1.0642
29991SOL    HW2 1698   0.338   4.853   0.882 -0.3074  0.3008  1.1492
29992SOL     OW 1699   9.941   6.167   8.625  0.0982  0.2701 -0.0176
29992SOL    HW1 1700  10.030   6.149   8.657  0.2213 -0.6353 -0.7932
29992SOL    HW2 1701   9.903   6.080   8.612 -1.3744  0.6567  1.5002
29993SOL     OW 1702   4.097  10.610   7.202  0.3002 -0.0503 -0.3117
29993SOL    HW1 1703   4.055  10.526   7.183 -1.0198  0.5627 -0.1959
29993SOL    HW2 1704   4.036  10.675   7.167  2.0616  0.8542 -1.8895
29994SOL     OW 1705   6.788   6.976   0.549  0.3584  0.4688 -0.3596
29994SOL    HW1 1706   6.750   7.059   0.520  2.0603  1.6070  0.4802
29994SOL    HW2 1707   6.829   6.940   0.470 -1.7123 -0.4047 -1.0929
29995SOL     OW 1708  11.073  11.206  10.637  0.7685  0.7242 -0.3644
29995SOL    HW1 1709  11.041  11.180  10.724  0.0701  0.1251 -0.7920
29995SOL    HW2 1710  11.084  11.301  10.644  1.5654  0.5708  0.6393
29996SOL     OW 1711   6.545   9.228   5.107  0.8623  0.1345 -0.3735
29996SOL    HW1 1712   6.614   9.181   5.155  1.0324  2.1975  1.5618
29996SOL    HW2 1713   6.574   9.226   5.016  2.8187 -0.1934  0.2121
29997SOL     OW 1714  11.175   6.692   9.637 -0.1958  0.3115  0.2688
29997SOL    HW1 1715  11.198   6.636   9.711 -0.2307  0.5945  0.4934
29997SOL    HW2 1716  11.252   6.691   9.581 -0.3470 -0.2980  0.0627
29998SOL     OW 1717   3.249   6.872   8.241 -0.0407 -0.0482  0.0910
29998SOL    HW1 1718   3.178   6.835   8.188 -0.5455  1.7732 -0.5899
29998SOL    HW2 1719   3.221   6.962   8.258  2.2898  0.8784 -0.5734
29999SOL     OW 1720   2.276   4.438   0.127 -0.1514  0.1086 -0.1788
29999SOL    HW1 1721   2.302   4.360   0.078 -0.5582  0.1422 -0.4573
29999SOL    HW2 1722   2.181   4.442   0.115 -0.3668 -0.2795  1.1766
30000SOL     OW 1723   7.606   9.986   2.460 -0.5745 -0.0150  0.2178
30000SOL    HW1 1724   7.590  10.033   2.542 -2.5553 -1.4085  0.7111
30000SOL    HW2 1725   7.538  10.018   2.401 -1.5542 -1.6566  0.3660
30001SOL     OW 1726   9.962   1.004   2.726  0.3060  0.4290 -0.6474
30001SOL    HW1 1727  10.057   1.018   2.728  0.7357 -1.8724 -1.8665
30001SOL    HW2 1728   9.944   0.974   2.637 -0.8107 -3.5546  0.7373
30002SOL     OW 1729  11.648   1.414   9.414 -0.0622 -0.7320  0.0168
30002SOL    HW1 1730  11.559   1.431   9.444  0.5624 -0.1280  1.5846
30002SOL    HW2 1731  11.664   1.322   9.436 -0.4669 -0.9978 -0.7583
30003SOL     OW 1732   4.549   7.746   9.992  0.4889  0.6283 -0.4204
30003SOL    HW1 1733   4.597   7.670   9.958  3.1193  2.9155 -2.2273
30003SOL    HW2 1734   4.546   7.807   9.919 -2.4390  1.9561  0.6744
30004SOL     OW 1735   2.891   9.366   1.710  0.8270 -0.7386  0.1904
30004SOL    HW1 1736   2.810   9.392   1.665  0.8442 -3.3219 -1.6093
30004SOL    HW2 1737   2.865   9.289   1.762  2.1940 -2.0559 -0.9797
30005SOL     OW 1738  10.180   0.113   5.920 -0.2173  0.4543 -0.2740
30005SOL    HW1 1739  10.154   0.041   5.978  1.8469  0.8296  1.2186
30005SOL    HW2 1740  10.129   0.098   5.840 -1.6793 -1.2355  0.8765
30006SOL     OW 1741   9.783   3.835   4.108  0.2346  0.0831  0.2457
30006SOL    HW1 1742   9.736   3.763   4.067  0.9504 -0.4019  0.2572
30006SOL    HW2 1743   9.715   3.889   4.148 -0.4959  0.5115 -1.4544
30007SOL     OW 1744   6.034   4.554   7.514 -0.1476 -0.2980  0.1718
30007SOL    HW1 1745   5.988   4.476   7.544 -0.4383 -0.5980 -1.0323
30007SOL    HW2 1746   5.979   4.627   7.542 -0.4541 -0.5768  0.2949
30008SOL     OW 1747  11.465   1.162   5.077  0.0919  0.0678 -0.4286
30008SOL    HW1 1748  11.489   1.209   4.997  1.8162  1.5643  0.8762
30008SOL    HW2 1749  11.499   1.074   5.063  1.1915  0.5567 -1.0166
30009SOL     OW 1750  11.826   4.828   7.376  0.1982 -0.5790  0.0711
30009SOL    HW1 1751  11.825   4.827   7.280 -0.2791 -0.7559  0.0740
30009SOL    HW2 1752  11.738   4.800   7.401  0.2264 -0.2403  0.5613
30010SOL     OW 1753   2.117   4.792   1.479 -0.0591 -0.0354 -0.1444
30010SOL    HW1 1754   2.162   4.709   1.493  1.3755  0.3864 -1.8692
30010SOL    HW2 1755   2.171   4.856   1.525 -0.7976  0.0441  0.6256
30011SOL     OW 1756   8.562   5.262   2.806  0.4135 -0.1890 -0.3473
30011SOL    HW1 1757   8.536   5.176   2.771 -0.1801 -0.0068 -0.3665
30011SOL    HW2 1758   8.537   5.259   2.898 -0.8589  0.4338 -0.6414
30012SOL     OW 1759   5.623   6.565   2.321 -0.2553  0.5434 -0.4048
30012SOL    HW1 1760   5.712   6.588   2.296 -0.4094  0.9258 -0.6211
30012SOL    HW2 1761   5.601   6.490   2.267  0.7991 -1.1508  1.3981
30013SOL     OW 1762   6.620   1.263   3.768  0.2567 -0.0131  0.1233
30013SOL    HW1 1763   6.568   1.184   3.783  1.5241 -0.9912 -0.5365
30013SOL    HW2 1764   6.642   1.261   3.675  1.1870  0.5587  0.3143
30014SOL     OW 1765   6.228   7.199   7.567  0.1685 -0.2552  0.2397
30014SOL    HW1 1766   6.146   7.218   7.520  1.1264 -0.2925 -1.5219
30014SOL    HW2 1767   6.296   7.203   7.500  1.8559  1.3037  1.9295
30015SOL     OW 1768   3.403   3.694   9.359 -0.5739 -0.2108 -0.1092
30015SOL    HW1 1769   3.392   3.632   9.286 -1.5958  2.1850 -2.1514
30015SOL    HW2 1770   3.461   3.761   9.324 -1.3459  1.1757  1.1909
30016SOL     OW 1771   1.052   3.103   7.314 -0.6776  0.0330 -0.0504
30016SOL    HW1 1772   1.079   3.096   7.222  1.0200  0.3260  0.3968
30016SOL    HW2 1773   1.031   3.195   7.326  2.4845  0.7586  0.6785
30017SOL     OW 1774  11.337   9.590   5.182 -0.1119  0.0220 -0.6794
30017SOL    HW1 1775  11.354   9.499   5.203  0.7409  0.5635  1.1577
30017SOL    HW2 1776  11.274   9.587   5.110 -0.0090 -1.9912 -0.7329
30018SOL     OW 1777   9.469   1.189   5.253 -0.0735  0.6599  0.9912
30018SOL    HW1 1778   9.389   1.214   5.208  0.4007 -0.2376 -0.3794
30018SOL    HW2 1779   9.439   1.138   5.328 -0.7815  0.2178  0.4187
30019SOL     OW 1780   2.637   4.434   9.763 -0.0682  0.4346  0.1932
30019SOL    HW1 1781   2.601   4.381   9.834 -0.9338  0.3509 -0.2993
30019SOL    HW2 1782   2.616   4.386   9.684 -1.4946  1.8360 -0.3265
30020SOL     OW 1783   1.425   4.561   4.900  1.0985  0.4794 -0.6421
30020SOL    HW1 1784   1.499   4.514   4.939  0.2266 -0.1246  0.3309
30020SOL    HW2 1785   1.353   4.499   4.903  0.7584  0.7406 -2.4334
30021SOL     OW 1786   9.428   3.898   2.216  0.6346 -0.2418  0.2087
30021SOL    HW1 1787   9.430   3.825   2.154  0.8806  0.2658 -0.3990
30021SOL    HW2 1788   9.343   3.890   2.260  0.5295 -0.7102 -0.0749
30022SOL     OW 1789   5.190  10.641   7.552 -0.2052  0.4290 -0.4150
30022SOL    HW1 1790   5.106  10.684   7.573 -1.0579 -1.5906  0.5993
30022SOL    HW2 1791   5.256  10.697   7.594 -1.2694  0.6904  1.0221
30023SOL     OW 1792  10.368  10.527   3.104 -0.7070  0.2361  0.1599
30023SOL    HW1 1793  10.360  10.479   3.186  0.7105  1.0797  0.8224
30023SOL    HW2 1794  10.285  10.573   3.094 -1.0913 -0.3032  0.8256
30024SOL     OW 1795  10.474   9.257   5.991 -0.1040  0.0826 -0.4291
30024SOL    HW1 1796  10.431   9.298   5.916  1.1209  2.3576  0.0324
30024SOL    HW2 1797  10.448   9.310   6.066 -1.4319 -2.2442  0.8448
30025SOL     OW 1798   6.397   7.284   1.231  0.1810  0.5065 -0.4457
30025SOL    HW1 1799   6.328   7.238   1.278  1.4169 -0.2722  0.6699
30025SOL    HW2 1800   6.363   7.373   1.220  0.1332  0.9833  2.6704
30026SOL     OW 1801   2.107   4.972  10.515  0.9673  0.0541 -0.1423
30026SOL    HW1 1802   2.179   4.934  10.465  0.2266 -1.2298 -0.2918
30026SOL    HW2 1803   2.050   5.011  10.449  1.7807  1.5863  0.0196
30027SOL     OW 1804   3.507   7.967   4.145 -0.3035 -0.2916  0.0589
30027SOL    HW1 1805   3.432   7.958   4.085  0.5904  2.0034 -1.5257
30027SOL    HW2 1806   3.545   7.880   4.148 -3.2695 -1.7015  1.3478
30028SOL     OW 1807   6.584   2.431   3.616  0.3325 -0.4168  0.2258
30028SOL    HW1 1808   6.594   2.507   3.673  0.6803 -1.3583  1.4866
30028SOL    HW2 1809   6.587   2.356   3.676 -0.3192 -1.4087 -0.9391
30029SOL     OW 1810   6.246  11.374   6.798  0.3302  0.0169  0.1037
30029SOL    HW1 1811   6.223  11.347   6.709  1.4616  1.5294 -0.6857
30029SOL    HW2 1812   6.302  11.451   6.786 -0.2487  0.8090  2.1519
30030SOL     OW 1813   6.776   2.335   7.273  0.4376  0.1122  0.0878
30030SOL    HW1 1814   6.693   2.349   7.318 -0.0245 -2.5987  0.2933
30030SOL    HW2 1815   6.776   2.400   7.203 -2.8157 -0.9410 -1.1159
30031SOL     OW 1816   4.883   9.701   9.418  0.1017 -0.0281 -0.3165
30031SOL    HW1 1817   4.815   9.743   9.471 -1.1935  1.0746 -2.7147
30031SOL    HW2 1818   4.892   9.614   9.456 -0.6632  0.7222  1.7483
30032SOL     OW 1819   6.152   9.901  10.975 -0.8347 -0.4084 -0.4658
30032SOL    HW1 1820   6.106   9.827  10.935 -1.2893 -1.1744  1.3537
30032SOL    HW2 1821   6.129   9.896  11.068 -0.0566  1.4368 -0.1240
30033SOL     OW 1822   2.788  11.315   5.369 -0.2603  0.3084  0.1602
30033SOL    HW1 1823   2.813  11.371   5.443  0.9478  0.0910 -0.0594
30033SOL    HW2 1824   2.840  11.236   5.380 -0.7584 -0.1110 -0.4216
30034SOL     OW 1825   3.823   3.507  10.797  0.3120 -0.4827  0.3843
30034SOL    HW1 1826   3.809   3.602  10.789  0.7727 -0.5054 -0.8757
30034SOL    HW2 1827   3.786   3.485  10.883 -1.2666  0.5522  0.0165
30035SOL     OW 1828   2.372   2.807  11.685  0.2874  0.2196  0.4355
30035SOL    HW1 1829   2.448   2.757  11.657  0.0571  0.4202 -0.5691
30035SOL    HW2 1830   2.362   2.876  11.619  0.5573  1.5624  1.7439
30036SOL     OW 1831   7.756   9.510   8.430  1.0427  0.0195 -0.4788
30036SOL    HW1 1832   7.680   9.537   8.378  1.2158 -0.5450 -1.0427
30036SOL    HW2 1833   7.738   9.419   8.453  1.0122  0.2376  0.3819
30037SOL     OW 1834   5.111   0.767   7.779 -0.1423  0.3551  0.0024
30037SOL    HW1 1835   5.064   0.696   7.734 -1.7076  1.5408 -0.3191
30037SOL    HW2 1836   5.149   0.818   7.708  0.0487  0.4595  0.1809
30038SOL     OW 1837   2.875   4.420  10.402  0.0463 -0.1989 -0.0946
30038SOL    HW1 1838   2.958   4.374  10.402  0.6721  0.8455  1.4328
30038SOL    HW2 1839   2.893   4.502  10.448 -1.0684  1.5068 -2.4356
30039SOL     OW 1840  10.383   7.142   9.990  0.5078  0.5594 -0.5776
30039SOL    HW1 1841  10.464   7.158  10.039 -1.2621  1.5374  2.3133
30039SOL    HW2 1842  10.345   7.064  10.031 -1.2199  1.6318 -0.0155
30040SOL     OW 1843   0.786   0.140   2.324 -0.3932  0.5929  0.5834
30040SOL    HW1 1844   0.778   0.144   2.229  0.6699  1.0397  0.4967
30040SOL    HW2 1845   0.872   0.179   2.342 -0.5158  0.3650  1.7108
30041SOL     OW 1846   2.515   6.625   3.759 -0.0293 -0.1659 -0.5622
30041SOL    HW1 1847   2.472   6.618   3.845 -0.0841  0.1096 -0.5682
30041SOL    HW2 1848   2.453   6.585   3.698  0.5552 -1.5451 -0.2977
30042SOL     OW 1849   5.850   7.892   7.537  0.5901  0.5628 -0.0688
30042SOL    HW1 1850   5.901   7.841   7.474  0.3366 -1.6436  1.3800
30042SOL    HW2 1851   5.761   7.892   7.502  0.4223 -0.7774  0.2993
30043SOL     OW 1852   6.813  11.627   9.706 -0.5225  0.1759 -0.1463
30043SOL    HW1 1853   6.742  11.586   9.755  0.1196 -1.9275 -0.8492
30043SOL    HW2 1854   6.891  11.577   9.730  0.5642  1.8227 -0.1149
30044SOL     OW 1855   4.023   2.838   3.401  0.0823  0.4492  0.5253
30044SOL    HW1 1856   4.089   2.907   3.405  1.1946 -0.5848  0.7234
30044SOL    HW2 1857   3.948   2.873   3.448  0.7276  1.4136  0.8634
30045SOL     OW 1858   1.750  10.730  10.563 -0.7098 -0.1514 -0.3155
30045SOL    HW1 1859   1.784  10.675  10.492 -0.7853 -0.3804 -0.1741
30045SOL    HW2 1860   1.656  10.733  10.547 -0.4450  2.1728 -1.9227
30046SOL     OW 1861   1.674  11.516  11.381 -0.8472  0.7157  0.7012
30046SOL    HW1 1862   1.607  11.473  11.435 -1.7241  2.1767  0.8353
30046SOL    HW2 1863   1.630  11.594  11.346  0.6365  1.4254  0.3425
30047SOL     OW 1864   3.696   7.249   9.146 -0.6172 -0.0680  0.6938
30047SOL    HW1 1865   3.716   7.157   9.164 -0.4874  0.0183  1.0020
30047SOL    HW2 1866   3.648   7.247   9.063  1.0891 -0.2421 -0.3405
30048SOL     OW 1867   9.044   1.216  11.026  0.1455 -0.0322 -0.2554
30048SOL    HW1 1868   9.023   1.173  11.109 -0.6232  0.1038 -0.3650
30048SOL    HW2 1869   8.958   1.233  10.986  0.5191 -1.5903 -1.8394
30049SOL     OW 1870   0.289   9.133   8.620  0.1668  0.0871 -0.5333
30049SOL    HW1 1871   0.261   9.135   8.529 -0.5892  0.1853 -0.3033
30049SOL    HW2 1872   0.371   9.184   8.621  0.6177 -0.6019 -1.2889
30050SOL     OW 1873   2.788   7.238  10.690 -0.7398  0.0762  0.1208
30050SOL    HW1 1874   2.779   7.187  10.771  1.1333  0.6194  0.7375
30050SOL    HW2 1875   2.785   7.172  10.620 -0.5914 -0.6263  0.7617
30051SOL     OW 1876   2.784   8.213   1.080  0.4285 -0.2393  0.1520
30051SOL    HW1 1877   2.870   8.173   1.088  0.8195  0.3607 -0.8104
30051SOL    HW2 1878   2.795   8.279   1.012 -0.8580 -0.3196 -0.1598
30052SOL     OW 1879   6.136  11.843   3.961  0.4091 -0.0811 -0.1139
30052SOL    HW1 1880   6.163  11.820   3.872 -0.1058 -1.8497  0.1509
30052SOL    HW2 1881   6.044  11.816   3.966  0.5116 -0.2616  1.0449
30053SOL     OW 1882   2.137   7.712   1.587 -0.1384  0.3544  0.0574
30053SOL    HW1 1883   2.111   7.777   1.521  0.6286  1.5262  0.8778
30053SOL    HW2 1884   2.232   7.725   1.597 -0.0739 -0.5156  0.6423
30054SOL     OW 1885   4.512   0.963   2.695  0.1087  0.0788  0.8933
30054SOL    HW1 1886   4.580   1.010   2.647  0.1071  0.9747  1.7443
30054SOL    HW2 1887   4.531   0.980   2.787  1.3103 -3.2509  1.3888
30055SOL     OW 1888   3.295   3.433   4.919 -0.6218  0.4034 -0.6928
30055SOL    HW1 1889   3.267   3.494   4.987 -0.8052 -2.1248  1.7209
30055SOL    HW2 1890   3.390   3.426   4.929 -0.7631 -0.7373  0.0814
30056SOL     OW 1891   1.359   3.375   1.307  0.1806 -0.1529 -0.2173
30056SOL    HW1 1892   1.314   3.410   1.384 -0.7689  0.3075 -0.9693
30056SOL    HW2 1893   1.349   3.442   1.240  2.5414  0.2412 -0.2517
30057SOL     OW 1894   2.955   5.826   8.788  0.3218 -0.1191 -0.3327
30057SOL    HW1 1895   3.013   5.900   8.806  1.2098 -0.8556 -0.0880
30057SOL    HW2 1896   2.888   5.832   8.856  0.5808  0.2716 -0.1033
30058SOL     OW 1897   4.680   5.501   5.449 -0.2472 -0.2081 -0.1252
30058SOL    HW1 1898   4.706   5.555   5.524 -1.4128 -0.7283  0.6718
30058SOL    HW2 1899   4.599   5.540   5.418 -0.3458 -0.6526 -0.4393
30059SOL     OW 1900   3.487   0.842   3.321 -0.8625 -0.1212 -0.0165
30059SOL    HW1 1901   3.522   0.883   3.400  0.9866 -0.1928 -0.7498
30059SOL    HW2 1902   3.515   0.751   3.327  0.4518  0.1570 -1.3429
30060SOL     OW 1903   1.103   3.843   3.113 -0.1630 -0.1502 -0.2793
30060SOL    HW1 1904   1.168   3.892   3.164 -1.2575 -0.1746  1.2035
30060SOL    HW2 1905   1.023   3.895   3.118 -0.7580 -1.0061 -0.5117
30061SOL     OW 1906   1.901   2.920   8.381 -0.2180  0.5041 -0.1454
30061SOL    HW1 1907   1.977   2.976   8.365 -2.0733  3.1593 -0.2695
30061SOL    HW2 1908   1.879   2.884   8.295 -0.7734  2.0731 -0.6943
30062SOL     OW 1909   5.927   3.317   1.727  0.6353  0.1051  0.3177
30062SOL    HW1 1910   5.981   3.396   1.720 -2.5903  2.5029  0.1704
30062SOL    HW2 1911   5.841   3.349   1.754 -1.1518 -3.2495 -0.8096
30063SOL     OW 1912   0.679   5.627   7.249 -0.6904  0.0607 -0.7324
30063SOL    HW1 1913   0.748   5.689   7.225  0.3341  0.0740  1.9625
30063SOL    HW2 1914   0.704   5.545   7.205  0.3735  0.3872 -0.7617
30064SOL     OW 1915   7.699   5.054  10.754  0.0590 -0.8256 -0.0189
30064SOL    HW1 1916   7.656   5.123  10.703 -0.0622 -0.9961 -0.1476
30064SOL    HW2 1917   7.779   5.095  10.787  0.3111 -0.8195 -0.6326
30065SOL     OW 1918   8.976  10.638   4.764  0.3664 -0.4348 -0.2609
30065SOL    HW1 1919   8.968  10.712   4.824  0.1364 -0.8455  0.2245
30065SOL    HW2 1920   9.070  10.624   4.754  0.4144  0.1889 -0.6905
30066SOL     OW 1921   6.688   7.057   2.096 -0.0059  0.0387  0.5607
30066SOL    HW1 1922   6.698   7.119   2.168 -2.3342  2.0916 -0.7637
30066SOL    HW2 1923   6.766   7.068   2.043  0.3856  0.5843  1.2402
30067SOL     OW 1924   9.828   3.866   2.511  0.1461 -0.3461  0.0855
30067SOL    HW1 1925   9.815   3.935   2.447  2.2314  0.6140  0.6248
30067SOL    HW2 1926   9.776   3.892   2.587 -0.1569 -0.0853 -0.2124
30068SOL     OW 1927   9.969  10.700   0.708 -0.3299 -0.8384 -0.0810
30068SOL    HW1 1928   9.881  10.670   0.731 -0.6473 -0.8775 -1.2774
30068SOL    HW2 1929   9.954  10.773   0.647  0.4361  1.2278  2.0576
30069SOL     OW 1930   2.080   0.562   3.452  0.5584  0.1176  0.6076
30069SOL    HW1 1931   2.130   0.629   3.498  0.6531 -0.5154  1.4466
30069SOL    HW2 1932   2.143   0.524   3.390  1.2175 -0.8283  1.8103
30070SOL     OW 1933   0.780   6.592   8.436 -0.5007  0.3627 -0.6973
30070SOL    HW1 1934   0.699   6.627   8.474 -0.2488  0.8892 -0.6276
30070SOL    HW2 1935   0.751   6.534   8.366 -0.9677 -0.4230  0.1297
30071SOL     OW 1936   9.690   2.194   6.788  0.3593 -0.0784 -0.3522
30071SOL    HW1 1937   9.615   2.150   6.829 -0.4687  1.5322 -0.0569
30071SOL    HW2 1938   9.765   2.138   6.810 -0.1058  0.3780  2.9867
30072SOL     OW 1939  10.571   7.005   5.542 -0.2085 -0.2576  0.3777
30072SOL    HW1 1940  10.615   7.067   5.601 -0.8407 -1.0548  1.7620
30072SOL    HW2 1941  10.633   6.933   5.532  1.5294  1.5145 -3.1527
30073SOL     OW 1942   2.664   9.032   2.022 -0.7345 -0.1374 -0.9079
30073SOL    HW1 1943   2.752   8.997   2.007 -0.3589 -0.1519  1.0657
30073SOL    HW2 1944   2.605   8.967   1.984  0.0331 -1.6313  0.3504
30074SOL     OW 1945   8.247   9.793   4.185  0.1416 -0.0426  0.1992
30074SOL    HW1 1946   8.178   9.851   4.216 -1.5691 -2.1160  0.4844
30074SOL    HW2 1947   8.301   9.848   4.128 -1.3214  1.8129  0.5153
30075SOL     OW 1948   9.101   4.177  10.116 -0.5299  0.3952 -0.4831
30075SOL    HW1 1949   9.156   4.255  10.110  0.8605 -0.5499 -0.6081
30075SOL    HW2 1950   9.080   4.156  10.025 -1.9828  1.3344 -0.3826
30076SOL     OW 1951   9.324  10.134   4.834  0.2607  0.0135  0.1433
30076SOL    HW1 1952   9.346  10.128   4.741 -0.3344  2.0045 -0.1918
30076SOL    HW2 1953   9.409  10.134   4.878  0.7231  1.5308 -0.6410
30077SOL     OW 1954   5.556   0.685  11.343 -0.3065 -0.3607 -0.4373
30077SOL    HW1 1955   5.616   0.653  11.276 -0.2302 -0.5704 -0.2693
30077SOL    HW2 1956   5.580   0.777  11.355  1.9109 -1.1048  1.6693
30078SOL     OW 1957   8.511   8.424   0.390 -0.0766  0.0932  0.1506
30078SOL    HW1 1958   8.491   8.511   0.354 -3.8797 -0.2486  1.0451
30078SOL    HW2 1959   8.481   8.428   0.481  2.0233 -1.4638  0.9982
30079SOL     OW 1960   6.386   1.529   8.707  0.1827 -0.0110  0.0895
30079SOL    HW1 1961   6.462   1.483   8.743 -0.4802 -2.6764 -1.6547
30079SOL    HW2 1962   6.350   1.577   8.781  2.2558 -0.4714  1.4939
30080SOL     OW 1963   1.821   4.073   3.564 -0.1406 -0.5517 -0.5794
30080SOL    HW1 1964   1.775   3.990   3.580  2.0032 -1.7338 -0.0947
30080SOL    HW2 1965   1.863   4.061   3.479  1.2204 -0.4848  0.0700
30081SOL     OW 1966   8.291   0.201   7.364 -0.1592  0.1605 -0.7368
30081SOL    HW1 1967   8.280   0.109   7.340  0.4724 -0.0482 -0.2709
30081SOL    HW2 1968   8.270   0.250   7.285  1.0796 -0.4695 -1.4816
30082SOL     OW 1969   2.623   7.298   4.728 -0.0920  0.0893 -0.1176
30082SOL    HW1 1970   2.633   7.327   4.819 -1.1638  0.4804 -0.1075
30082SOL    HW2 1971   2.616   7.380   4.678 -0.2174 -0.1299 -0.4574
30083SOL     OW 1972   1.792   5.682   3.131  0.1517  0.9282 -0.0670
30083SOL    HW1 1973   1.840   5.704   3.210  2.0037  0.5372 -1.0334
30083SOL    HW2 1974   1.852   5.628   3.080 -1.1012  0.8971 -1.5959
30084SOL     OW 1975   1.992   7.328   0.351  0.0800 -0.5054 -0.0832
30084SOL    HW1 1976   2.069   7.305   0.299  0.6752  0.6217  0.2732
30084SOL    HW2 1977   2.019   7.311   0.442  0.0034  0.1339  0.0625
30085SOL     OW 1978   3.608   1.192   3.862 -0.0109 -0.0393  0.4071
30085SOL    HW1 1979   3.664   1.236   3.926  2.1837 -2.6240  0.4416
30085SOL    HW2 1980   3.651   1.108   3.847 -2.3457 -0.9409 -1.8803
30086SOL     OW 1981   6.108   1.475   8.139  0.2275  0.1335 -0.4563
30086SOL    HW1 1982   6.049   1.530   8.088  0.3556 -0.7610 -1.6219
30086SOL    HW2 1983   6.133   1.405   8.079 -0.6366 -1.7321  1.2292
30087SOL     OW 1984   2.551   1.383   2.019 -0.5438  0.1965  0.0693
30087SOL    HW1 1985   2.529   1.408   1.929 -2.3407 -1.9785 -0.1852
30087SOL    HW2 1986   2.577   1.291   2.012  0.6202  0.3566  1.6329
30088SOL     OW 1987   2.509  10.210   3.915  0.5110  0.3339  0.2864
30088SOL    HW1 1988   2.577  10.157   3.956  1.8515  0.8372 -1.2088
30088SOL    HW2 1989   2.524  10.200   3.821 -2.0740 -0.2881 -0.1451
30089SOL     OW 1990   6.006  10.442   9.325 -0.4995  0.1880  0.0916
30089SOL    HW1 1991   5.961  10.509   9.377 -1.4546  0.6855 -1.3049
30089SOL    HW2 1992   5.955  10.363   9.339  1.4167 -0.7276  2.8564
30090SOL     OW 1993   3.542   4.119   1.548 -0.3180 -0.1422  0.3178
30090SOL    HW1 1994   3.486   4.182   1.502 -0.3351  0.7004  1.4378
30090SOL    HW2 1995   3.577   4.168   1.622  2.4013 -0.4533 -0.6462
30091SOL     OW 1996   0.313   2.386   4.012  0.4846 -0.4581  0.6482
30091SOL    HW1 1997   0.334   2.294   3.998  0.8862 -0.6762  2.4283
30091SOL    HW2 1998   0.228   2.385   4.056  1.0048 -0.0693  1.7026
30092SOL     OW 1999   1.928   7.618  10.751  0.3542 -0.3003  0.3140
30092SOL    HW1 2000   1.895   7.617  10.661  2.7013  2.1807 -0.7085
30092SOL    HW2 2001   1.966   7.531  10.764 -0.9990 -1.0789 -0.6500
30093SOL     OW 2002   6.756  10.085   1.620  0.0755 -0.3314  0.2501
30093SOL    HW1 2003   6.783   9.997   1.646  0.0066 -0.1964  0.7995
30093SOL    HW2 2004   6.711  10.120   1.697 -1.3036 -0.3982 -0.5053
30094SOL     OW 2005  11.152   6.635   5.695 -0.4951  0.5164 -0.3266
30094SOL    HW1 2006  11.111   6.677   5.620 -0.4507  0.8721 -0.1498
30094SOL    HW2 2007  11.104   6.667   5.770 -1.4834 -0.9378 -0.2969
30095SOL     OW 2008   7.104   9.159   7.635  0.2275 -0.3533  0.7059
30095SOL    HW1 2009   7.135   9.211   7.709 -1.6179 -0.4927  1.6303
30095SOL    HW2 2010   7.111   9.068   7.664 -0.6517 -0.4019  0.7908
30096SOL     OW 2011   5.353  10.853   7.700  0.3878 -0.0439  0.0344
30096SOL    HW1 2012   5.315  10.894   7.777  0.4144 -2.8930  1.7188
30096SOL    HW2 2013   5.439  10.823   7.729  0.5916 -0.7620 -1.2456
30097SOL     OW 2014   1.925   3.158   6.014  0.5401 -0.9353  0.0979
30097SOL    HW1 2015   1.875   3.162   5.933 -2.7173 -1.1248  1.8934
30097SOL    HW2 2016   1.955   3.067   6.020  1.0423 -0.8466 -0.9981
30098SOL     OW 2017   9.610   2.020   8.332 -0.4917 -0.3781  0.1489
30098SOL    HW1 2018   9.612   1.937   8.285 -0.8989 -0.2169 -0.1644
30098SOL    HW2 2019   9.700   2.036   8.358 -0.1085 -0.0712 -1.2848
30099SOL     OW 2020   0.080   5.716   6.513  0.0317 -0.0918  0.4270
30099SOL    HW1 2021   0.151   5.758   6.464 -0.3875  0.3263  0.1694
30099SOL    HW2 2022   0.065   5.633   6.468 -0.1057  0.1287  0.0588
30100SOL     OW 2023   5.246   4.639   6.493 -0.0727 -0.1530  0.4107
30100SOL    HW1 2024   5.340   4.646   6.510 -0.0631  2.0846 -0.1720
30100SOL    HW2 2025   5.210   4.720   6.529 -1.6079 -0.4548 -0.3860
30101SOL     OW 2026   2.017   6.590  11.062 -0.0400 -0.2777 -0.4936
30101SOL    HW1 2027   2.051   6.657  11.121 -1.7631 -0.8298  1.2156
30101SOL    HW2 2028   1.925   6.611  11.051 -0.4499 -1.9234 -0.5094
30102SOL     OW 2029   9.568   1.857  10.535  0.2710  0.1247 -0.6639
30102SOL    HW1 2030   9.663   1.862  10.528  0.2391  0.6103 -0.7425
30102SOL    HW2 2031   9.552   1.830  10.626  0.5379 -1.9720 -1.1842
30103SOL     OW 2032   1.369   1.640   9.239 -0.1221 -0.6338 -0.1953
30103SOL    HW1 2033   1.301   1.572   9.232  0.1704 -0.9536  0.0220
30103SOL    HW2 2034   1.413   1.621   9.322  0.5709 -0.7432 -0.5850
30104SOL     OW 2035  10.969   7.618   6.244 -0.3856  0.1450 -0.1485
30104SOL    HW1 2036  11.034   7.579   6.186  0.0226  0.1053  0.3244
30104SOL    HW2 2037  10.964   7.557   6.318 -1.3044 -0.0931 -0.3933
30105SOL     OW 2038   5.763   9.920   4.536 -0.2530  0.2206 -0.1175
30105SOL    HW1 2039   5.852   9.943   4.564  0.3546  0.4372 -2.0449
30105SOL    HW2 2040   5.715  10.002   4.538 -0.7248 -0.0550  1.8412
30106SOL     OW 2041   3.468   8.453   0.746 -0.1646 -0.6788 -0.1775
30106SOL    HW1 2042   3.539   8.391   0.727  0.0204 -0.7713  0.7802
30106SOL    HW2 2043   3.390   8.398   0.754  0.1533 -0.9321  1.5895
30107SOL     OW 2044   7.992   4.750   5.430 -0.9379  0.0284 -0.0806
30107SOL    HW1 2045   7.991   4.760   5.525 -0.5831 -0.2779 -0.0423
30107SOL    HW2 2046   7.900   4.742   5.405 -1.0272  0.0525  0.2457
30108SOL     OW 2047   0.398  11.672   3.734  0.3438 -0.2443  0.0820
30108SOL    HW1 2048   0.425  11.761   3.711 -2.2569  0.4438 -0.5792
30108SOL    HW2 2049   0.416  11.620   3.655  1.2860 -0.2102  0.2586
30109SOL     OW 2050   1.431   1.262   5.381 -0.2141  0.0552  0.7891
30109SOL    HW1 2051   1.382   1.315   5.444 -1.4664 -0.6942  0.4881
30109SOL    HW2 2052   1.370   1.192   5.357  1.0521 -0.9579  0.4455
30110SOL     OW 2053   4.994   9.123   1.081 -0.0961 -0.2407  0.2729
30110SOL    HW1 2054   5.044   9.192   1.038 -2.2797  0.7614 -0.8473
30110SOL    HW2 2055   4.957   9.072   1.009 -2.2106  0.2499  0.9221
30111SOL     OW 2056   5.315   6.641   1.247  0.0854  0.3031  0.3027
30111SOL    HW1 2057   5.346   6.641   1.156  2.1420  2.4846  0.8805
30111SOL    HW2 2058   5.277   6.728   1.259 -0.4765 -0.0829  1.4389
30112SOL     OW 2059   4.336   8.978   1.288  0.8242 -0.1854 -0.0036
30112SOL    HW1 2060   4.292   8.958   1.370 -1.9494 -0.3683 -1.4025
30112SOL    HW2 2061   4.319   8.902   1.232  1.8374  0.3214 -1.0500
30113SOL     OW 2062   4.507  10.276   4.766 -0.1220 -0.2553  0.1004
30113SOL    HW1 2063   4.474  10.314   4.685  1.2575  0.8925  0.0392
30113SOL    HW2 2064   4.445  10.304   4.833  0.0896  0.9266 -0.1782
30114SOL     OW 2065   2.789   7.010   8.543  0.1853 -0.2448 -0.1779
30114SOL    HW1 2066   2.724   7.022   8.473  1.4280 -0.4772 -1.4212
30114SOL    HW2 2067   2.790   6.916   8.559  0.7587 -0.3403 -0.7280
30115SOL     OW 2068   8.259   9.629   7.385 -0.1445 -0.0838  0.0122
30115SOL    HW1 2069   8.185   9.687   7.370 -0.1590 -0.4636 -1.5356
30115SOL    HW2 2070   8.335   9.687   7.393 -0.2799  0.1999 -0.7089
30116SOL     OW 2071   9.436   8.514   9.207  0.3577 -0.0912 -0.3824
30116SOL    HW1 2072   9.478   8.473   9.132 -0.3825 -0.7782 -0.4397
30116SOL    HW2 2073   9.461   8.606   9.202  3.4263 -0.7619  0.6682
30117SOL     OW 2074   6.268  11.333  11.865  0.0691 -0.2373 -0.0703
30117SOL    HW1 2075   6.319  11.362  11.941  0.3856  0.1351 -0.4267
30117SOL    HW2 2076   6.230  11.413  11.830 -0.3803 -0.4546 -0.0910
30118SOL     OW 2077   0.307   1.920   5.258 -0.3809 -0.1441  0.1969
30118SOL    HW1 2078   0.255   1.943   5.181 -1.1937 -0.6320  0.5739
30118SOL    HW2 2079   0.396   1.949   5.237 -1.0882  2.2997  0.1979
30119SOL     OW 2080   7.264   5.350  10.439 -0.1705  0.4782 -0.7544
30119SOL    HW1 2081   7.200   5.415  10.411 -1.1551  0.3891  1.1219
30119SOL    HW2 2082   7.338   5.362  10.380 -0.6351  2.7690 -0.9506
30120SOL     OW 2083  11.389   2.048   0.837 -0.1487 -0.0706 -0.5617
30120SOL    HW1 2084  11.370   2.054   0.743 -0.6409 -1.0476 -0.5490
30120SOL    HW2 2085  11.364   1.958   0.860 -0.3119  0.2458  0.5659
30121SOL     OW 2086   1.650   4.462   1.894 -0.0145  0.0615  0.1143
30121SOL    HW1 2087   1.646   4.477   1.988 -0.8449  0.5766  0.0092
30121SOL    HW2 2088   1.649   4.549   1.855  0.4466 -0.1421 -0.3693
30122SOL     OW 2089   6.658   6.960   6.750 -0.4218  0.2920  0.1295
30122SOL    HW1 2090   6.592   7.020   6.783 -2.2201 -2.1194  1.1674
30122SOL    HW2 2091   6.620   6.923   6.670  0.3850  0.0774 -0.1688
30123SOL     OW 2092   3.258   0.455   0.563 -0.0199  0.2101 -0.6367
30123SOL    HW1 2093   3.206   0.395   0.509 -0.0804 -0.2861 -0.0400
30123SOL    HW2 2094   3.348   0.443   0.532  0.0699 -0.7079 -0.0768
30124SOL     OW 2095   2.452  10.812   7.488 -0.2101  0.4812  0.2264
30124SOL    HW1 2096   2.535  10.807   7.440 -0.2961 -0.2785  0.1451
30124SOL    HW2 2097   2.439  10.906   7.503 -0.0554  0.7246 -1.0145
30125SOL     OW 2098  10.564   3.350   2.524 -0.0346  0.0055 -0.1263
30125SOL    HW1 2099  10.532   3.353   2.614 -1.4449  2.1714 -0.6158
30125SOL    HW2 2100  10.497   3.302   2.476 -0.7918  1.3438 -0.4811
30126SOL     OW 2101   7.672   1.442   2.491 -0.4773  0.0393  0.5436
30126SOL    HW1 2102   7.746   1.382   2.491  0.0503  0.5652  3.3776
30126SOL    HW2 2103   7.709   1.527   2.467 -0.0720  0.3358  2.1217
30127SOL     OW 2104   9.872   6.045   1.603 -0.2276 -0.6673  0.3741
30127SOL    HW1 2105   9.943   6.028   1.541 -0.6618 -0.2687 -0.2444
30127SOL    HW2 2106   9.911   6.032   1.689  0.6248 -0.3409  0.0451
30128SOL     OW 2107   9.883  10.588  11.620 -0.2242  0.2480 -0.0091
30128SOL    HW1 2108   9.803  10.634  11.646 -0.4160 -0.6014  1.0237
30128SOL    HW2 2109   9.855  10.529  11.550 -0.2517  0.7546 -0.4322
30129SOL     OW 2110   9.061   9.008   8.210 -0.1906 -0.2128  0.5083
30129SOL    HW1 2111   9.150   8.986   8.182 -0.2116 -0.0162  0.2847
30129SOL    HW2 2112   9.022   9.051   8.134 -0.3629  0.0160  0.7273
30130SOL     OW 2113   6.683   8.893   8.198 -0.5901 -0.7708  0.1402
30130SOL    HW1 2114   6.732   8.909   8.117  1.1386 -2.2040  0.8375
30130SOL    HW2 2115   6.619   8.964   8.201  1.8045  1.5862 -0.5548
30131SOL     OW 2116   1.311   8.347   9.169  0.5426 -0.6054 -0.7217
30131SOL    HW1 2117   1.224   8.381   9.148  1.4112  1.2410 -1.5381
30131SOL    HW2 2118   1.317   8.355   9.264  0.3562  0.7258 -0.7958
30132SOL     OW 2119   9.245   4.474   0.221 -0.3381 -0.1112 -0.5374
30132SOL    HW1 2120   9.233   4.544   0.285 -0.1855 -0.0157 -0.6108
30132SOL    HW2 2121   9.338   4.479   0.198  0.4806 -2.4076  1.8642
30133SOL     OW 2122   5.529   8.452   6.056  0.3949  0.7736  0.1004
30133SOL    HW1 2123   5.582   8.512   6.002  0.4256  1.1311  0.5248
30133SOL    HW2 2124   5.570   8.366   6.043  1.5748  1.1722  1.0362
30134SOL     OW 2125   3.370   1.057   0.126 -0.2068 -0.6439  0.0902
30134SOL    HW1 2126   3.436   1.064   0.195 -1.4219  3.0157  1.1435
30134SOL    HW2 2127   3.309   0.991   0.158  0.4629 -0.6609  1.4061
30135SOL     OW 2128   7.185   4.934   9.464  0.4526 -0.8044 -0.7447
30135SOL    HW1 2129   7.104   4.916   9.512  0.8200 -4.2082 -1.1590
30135SOL    HW2 2130   7.245   4.969   9.531 -0.6262 -0.4281  0.0621
30136SOL     OW 2131   5.720   8.242  11.016  0.4062  0.0420  0.0048
30136SOL    HW1 2132   5.703   8.195  10.934 -0.3058 -0.6834  0.5584
30136SOL    HW2 2133   5.650   8.306  11.021 -0.7445 -1.2371  1.0085
30137SOL     OW 2134   8.414   3.884   4.283  0.2421  0.1068 -0.4180
30137SOL    HW1 2135   8.485   3.821   4.295 -0.9754 -1.2011  0.3091
30137SOL    HW2 2136   8.366   3.851   4.207  0.0048  0.5573 -0.4656
30138SOL     OW 2137   7.695   5.539   8.356 -0.1351  0.0015  0.2194
30138SOL    HW1 2138   7.741   5.607   8.405  0.4158  0.0620 -0.3714
30138SOL    HW2 2139   7.750   5.461   8.366 -0.5506 -0.2540  0.5467
30139SOL     OW 2140   7.006   2.018  11.760 -0.0240  0.1096 -0.2196
30139SOL    HW1 2141   6.970   1.967  11.832  0.3966 -2.2904 -1.5950
30139SOL    HW2 2142   6.981   1.969  11.681 -1.5031  3.2043 -1.8678
30140SOL     OW 2143  10.371   1.692   9.185 -0.6196  0.7704  0.7647
30140SOL    HW1 2144  10.365   1.624   9.117  1.0786  0.9664  0.3726
30140SOL    HW2 2145  10.304   1.757   9.159 -0.6335  0.3951 -0.1997
30141SOL     OW 2146   6.709   7.638   5.655 -0.3725  0.1215 -0.2378
30141SOL    HW1 2147   6.705   7.542   5.664  0.8358  0.2565  2.9489
30141SOL    HW2 2148   6.619   7.667   5.667 -0.5434 -0.5591  0.2416
30142SOL     OW 2149   8.222   7.004   1.779  0.4217  0.7318  0.0281
30142SOL    HW1 2150   8.294   6.947   1.809  0.3010  1.3349  1.5570
30142SOL    HW2 2151   8.149   6.982   1.837  0.9817  3.8942  2.1932
30143SOL     OW 2152   3.672  10.153   0.504 -0.4114 -0.2960 -0.7503
30143SOL    HW1 2153   3.710  10.159   0.417  3.2669  0.4233  0.7143
30143SOL    HW2 2154   3.628  10.069   0.506  1.1030 -1.2027 -2.7089
30144SOL     OW 2155   5.654   9.185   4.190 -0.1333 -0.3761 -0.2098
30144SOL    HW1 2156   5.658   9.160   4.097 -0.5425 -1.2405 -0.0076
30144SOL    HW2 2157   5.638   9.279   4.189 -0.6865 -0.4668 -1.0231
30145SOL     OW 2158   3.050   5.683   3.668  0.0624 -0.2639 -0.3061
30145SOL    HW1 2159   3.122   5.714   3.613 -0.3934 -0.3974 -1.0019
30145SOL    HW2 2160   3.003   5.622   3.612 -1.3187  0.7575 -0.3113
30146SOL     OW 2161  10.795   0.327   6.708  0.2126  0.0506  0.0846
30146SOL    HW1 2162  10.706   0.303   6.733  0.1041  0.7982  0.4564
30146SOL    HW2 2163  10.846   0.248   6.722 -0.3533 -0.3290  0.0595
30147SOL     OW 2164   3.997   4.472   6.341  0.4211  0.1950 -0.2078
30147SOL    HW1 2165   3.949   4.538   6.391 -1.1699  0.1398 -1.5854
30147SOL    HW2 2166   4.089   4.497   6.351  0.0966  0.7862  1.8231
30148SOL     OW 2167   9.845   1.788  10.420 -0.2439  0.3468 -0.0202
30148SOL    HW1 2168   9.904   1.772  10.494 -2.2815 -0.5521  1.5252
30148SOL    HW2 2169   9.865   1.717  10.358  0.6831  0.4110  0.1891
30149SOL     OW 2170   4.070   3.674   3.052 -0.0457  0.3231  0.0250
30149SOL    HW1 2171   4.134   3.603   3.046  1.2085  1.0207  3.2318
30149SOL    HW2 2172   4.038   3.685   2.962  1.8757 -2.2730 -1.1026
30150SOL     OW 2173   9.937   6.022  10.189 -0.3145 -0.2123  0.0981
30150SOL    HW1 2174  10.011   5.963  10.177  1.6311  2.3861 -1.6406
30150SOL    HW2 2175   9.862   5.973  10.156  0.9913 -2.0894 -0.2308
30151SOL     OW 2176   4.604   0.639   6.370  0.1311 -0.0389  0.3565
30151SOL    HW1 2177   4.613   0.562   6.426  0.3239  0.5067  1.0818
30151SOL    HW2 2178   4.519   0.677   6.395  0.0929  0.0551  0.0864
30152SOL     OW 2179   0.211  10.328   5.503  0.4492  0.2396  0.1394
30152SOL    HW1 2180   0.232  10.381   5.426  1.0671  0.2139  0.2799
30152SOL    HW2 2181   0.195  10.392   5.573  2.5006  0.2741  0.6465
30153SOL     OW 2182   7.086   1.566   9.301 -0.5946 -0.3400  0.6463
30153SOL    HW1 2183   7.005   1.589   9.347 -0.6279 -0.8941  0.8778
30153SOL    HW2 2184   7.146   1.539   9.371 -0.1542  0.2313  0.4886
30154SOL     OW 2185   4.243   2.722   3.079 -0.0851  0.3410 -0.2788
30154SOL    HW1 2186   4.301   2.771   3.136 -1.2935  0.8561  0.5639
30154SOL    HW2 2187   4.229   2.639   3.125 -0.5760  0.5117 -0.1099
30155SOL     OW 2188   7.271   3.891   5.704  0.0408  0.4077 -0.4195
30155SOL    HW1 2189   7.282   3.851   5.617 -1.7714  1.1594 -1.0414
30155SOL    HW2 2190   7.350   3.944   5.716 -0.2890  1.4127 -2.2732
30156SOL     OW 2191   5.355   0.228   5.416 -0.0695  0.0041  0.3105
30156SOL    HW1 2192   5.325   0.281   5.490 -1.5596 -0.9998  0.4715
30156SOL    HW2 2193   5.307   0.146   5.425 -0.8505  0.1084 -2.1552
30157SOL     OW 2194   4.693   5.243   2.108  0.0965 -0.1697  0.4394
30157SOL    HW1 2195   4.699   5.323   2.056  1.4034  0.3615  1.3453
30157SOL    HW2 2196   4.704   5.172   2.044  1.1686  0.4517 -0.0986
30158SOL     OW 2197   3.598  10.832   3.859  0.1160  0.4629  0.1678
30158SOL    HW1 2198   3.664  10.780   3.814  0.1055  0.5018  0.1068
30158SOL    HW2 2199   3.647  10.904   3.899  0.0996  0.5454  0.0430
30159SOL     OW 2200   0.400   6.833  10.075  0.3617 -0.0167 -0.0853
30159SOL    HW1 2201   0.443   6.795  10.152 -0.1230  0.8991  0.6636
30159SOL    HW2 2202   0.332   6.771  10.051  0.4695 -0.2732  0.2716
30160SOL     OW 2203   7.339   9.319   9.063  0.0412 -0.3557  0.1556
30160SOL    HW1 2204   7.249   9.345   9.043 -0.1630 -0.4549  0.8968
30160SOL    HW2 2205   7.337   9.223   9.062  0.0708 -0.3600  0.4502
30161SOL     OW 2206   2.992   2.995   6.576  0.1147 -0.3315 -0.2982
30161SOL    HW1 2207   3.065   3.029   6.627  1.3240 -0.6736 -1.7587
30161SOL    HW2 2208   3.015   3.012   6.485 -1.5014 -0.7003 -0.8124
30162SOL     OW 2209   2.683   2.219   1.142 -0.0413  0.0647 -0.6284
30162SOL    HW1 2210   2.709   2.208   1.234 -1.6978  0.2512 -0.0925
30162SOL    HW2 2211   2.698   2.134   1.102 -2.5019 -1.1204  0.7186
30163SOL     OW 2212   5.398   7.319   4.365 -0.6144  0.2296 -0.1294
30163SOL    HW1 2213   5.404   7.337   4.271  0.1090 -0.7725 -0.2862
30163SOL    HW2 2214   5.486   7.334   4.398 -0.6020 -0.5118  0.1866
30164SOL     OW 2215   7.657   0.096   8.351  0.0904  0.0942  0.3188
30164SOL    HW1 2216   7.706   0.070   8.430  1.0431  1.2297  0.1327
30164SOL    HW2 2217   7.578   0.137   8.385  0.9222  1.4113  0.7443
30165SOL     OW 2218   7.505  11.080   9.950 -0.4597  0.4623 -0.2702
30165SOL    HW1 2219   7.454  11.035  10.017  0.2794 -0.3721 -0.2374
30165SOL    HW2 2220   7.482  11.036   9.869 -0.3337  0.5614 -0.3602
30166SOL     OW 2221   5.868   2.349   5.387  0.1030  0.0055  0.4644
30166SOL    HW1 2222   5.779   2.354   5.421  0.0627 -2.3577  0.8897
30166SOL    HW2 2223   5.862   2.387   5.299 -1.4270 -0.4747  0.3270
30167SOL     OW 2224  10.393   8.199  10.203  0.5968 -0.2695 -0.1344
30167SOL    HW1 2225  10.408   8.286  10.167  0.1844  0.7223  1.9667
30167SOL    HW2 2226  10.350   8.214  10.287  0.9416 -2.4741  0.5113
30168SOL     OW 2227  11.920  11.101   6.132  0.5862 -0.0509 -0.4877
30168SOL    HW1 2228  11.844  11.055   6.167 -0.6526  1.4343 -1.1246
30168SOL    HW2 2229  11.934  11.174   6.192  0.1554  0.9229 -1.5380
30169SOL     OW 2230  11.604  10.850  10.685  0.1905  0.5272 -0.1186
30169SOL    HW1 2231  11.535  10.845  10.751 -0.9159  2.3704 -1.0442
30169SOL    HW2 2232  11.584  10.780  10.624 -0.3613  0.5082  0.0765
30170SOL     OW 2233   1.477   9.136   7.672  0.8549 -0.1844 -0.4212
30170SOL    HW1 2234   1.464   9.229   7.693 -1.0362 -0.4109 -0.3665
30170SOL    HW2 2235   1.397   9.093   7.703  1.2442 -1.6806 -1.3587
30171SOL     OW 2236   5.148   7.469   1.502 -0.8689  0.3066  0.4470
30171SOL    HW1 2237   5.078   7.507   1.554 -2.3466 -1.7716  0.0786
30171SOL    HW2 2238   5.192   7.408   1.561  0.3316  1.1705  0.5067
30172SOL     OW 2239   7.242   9.824   1.856 -0.4803  0.7644  0.3118
30172SOL    HW1 2240   7.300   9.748   1.844  0.7212  1.5629  0.8953
30172SOL    HW2 2241   7.283   9.874   1.927  0.4593  3.5227 -1.9763
30173SOL     OW 2242   7.984   8.092   2.335 -0.0384  0.2009 -0.1170
30173SOL    HW1 2243   7.894   8.125   2.335 -0.5345 -1.0610  1.0709
30173SOL    HW2 2244   8.035   8.163   2.376 -0.6103  0.6038 -0.0953
30174SOL     OW 2245   2.692   9.154   5.148 -0.0930  0.3860 -0.0900
30174SOL    HW1 2246   2.761   9.131   5.086 -0.2837  1.2330 -0.6355
30174SOL    HW2 2247   2.618   9.180   5.093 -0.5499  0.3415  0.4920
30175SOL     OW 2248   5.071   6.895   2.775 -0.3673 -0.5319  0.2025
30175SOL    HW1 2249   5.152   6.849   2.751  0.2208  0.0123  1.0654
30175SOL    HW2 2250   5.099   6.962   2.838 -1.3933  0.1477 -0.0357
30176SOL     OW 2251   3.552   4.020  10.376 -0.0822  0.1420 -0.0976
30176SOL    HW1 2252   3.624   4.014  10.438  2.8816  0.6587 -3.2162
30176SOL    HW2 2253   3.536   3.929  10.348 -1.9334 -0.1875  1.7944
30177SOL     OW 2254   6.263   4.779   3.625 -0.4850 -0.0671 -0.0656
30177SOL    HW1 2255   6.212   4.701   3.601 -1.7660  0.9678 -0.7941
30177SOL    HW2 2256   6.205   4.828   3.684  0.6038 -0.0048  0.9983
30178SOL     OW 2257   2.804  11.871   5.927 -0.1757 -0.2030 -0.0553
30178SOL    HW1 2258   2.839  11.941   5.872 -0.7254  0.7955  0.8238
30178SOL    HW2 2259   2.721  11.848   5.886  0.3565 -0.8989 -0.7797
30179SOL     OW 2260  10.114   2.021   5.335  0.3567  0.6943  0.0946
30179SOL    HW1 2261  10.044   2.085   5.345 -2.0079 -1.7342 -0.0073
30179SOL    HW2 2262  10.145   2.005   5.425  1.3078  2.2650  0.0749
30180SOL     OW 2263   4.720   0.782  10.504  0.7282  0.0026  0.1485
30180SOL    HW1 2264   4.625   0.766  10.507  0.9601 -1.6619 -0.3715
30180SOL    HW2 2265   4.731   0.866  10.547 -1.0832  0.6562 -0.5536
30181SOL     OW 2266   4.152   4.834   2.417  0.0230  0.0411 -0.0516
30181SOL    HW1 2267   4.177   4.753   2.371  1.8409 -0.9212  2.3892
30181SOL    HW2 2268   4.063   4.852   2.387  0.9787 -0.4949 -3.8066
30182SOL     OW 2269   3.283   6.138   2.862 -0.5245  0.5089  0.9672
30182SOL    HW1 2270   3.233   6.181   2.931 -1.2906  0.8352  0.2324
30182SOL    HW2 2271   3.217   6.101   2.803  0.0916  0.7016  0.1213
30183SOL     OW 2272   2.904   4.781   4.849 -0.0757  0.0236 -0.1330
30183SOL    HW1 2273   2.890   4.726   4.926 -0.8147  1.0427  0.4931
30183SOL    HW2 2274   2.992   4.759   4.819  0.0058 -0.7887  0.6681
30184SOL     OW 2275  10.592   0.873   9.986 -0.1579  0.0699 -0.2172
30184SOL    HW1 2276  10.606   0.959   9.947 -0.7964  0.0224 -0.5716
30184SOL    HW2 2277  10.680   0.842  10.009 -0.0731  1.8406  2.1667
30185SOL     OW 2278   2.165   5.986   1.955 -0.0305 -0.6166 -0.4754
30185SOL    HW1 2279   2.212   5.949   1.880 -0.6680 -0.4040 -0.9891
30185SOL    HW2 2280   2.087   5.932   1.964 -0.6876  0.2367 -0.8886
30186SOL     OW 2281   9.472   7.145   2.985 -0.1020  0.0830  0.0480
30186SOL    HW1 2282   9.428   7.230   2.980  1.8019  1.1007 -0.1034
30186SOL    HW2 2283   9.468   7.110   2.896 -1.8268 -0.5289  0.3233
30187SOL     OW 2284   5.513  10.324   2.120 -0.3480 -0.0070  0.3904
30187SOL    HW1 2285   5.435  10.292   2.165 -1.7918  1.5891 -0.8581
30187SOL    HW2 2286   5.519  10.270   2.041  0.2670 -0.5855  0.8090
30188SOL     OW 2287   4.079   8.243   1.292 -0.2056  0.6048  0.2911
30188SOL    HW1 2288   4.054   8.242   1.199 -0.5908  1.2883  0.3774
30188SOL    HW2 2289   4.134   8.320   1.301 -0.0059  0.4266  0.5897
30189SOL     OW 2290   3.328   5.619   4.159 -0.0499 -0.0213 -0.2352
30189SOL    HW1 2291   3.247   5.670   4.155 -0.7427 -1.1541 -1.0907
30189SOL    HW2 2292   3.367   5.629   4.072  1.4588  1.6054  0.5573
30190SOL     OW 2293   1.395   9.205   3.958  0.1014  0.4668 -0.2774
30190SOL    HW1 2294   1.300   9.196   3.948  0.0139  1.2114 -0.1539
30190SOL    HW2 2295   1.431   9.175   3.875 -0.4307  3.4549 -1.7299
30191SOL     OW 2296   9.844   3.338   6.745  0.6850  0.3158  0.0309
30191SOL    HW1 2297   9.903   3.329   6.670 -0.6732 -1.9398 -0.8700
30191SOL    HW2 2298   9.756   3.343   6.706  0.1749  3.6817  1.3223
30192SOL     OW 2299   4.047  11.759   7.218  0.2927  0.0410 -0.2409
30192SOL    HW1 2300   4.035  11.781   7.126  0.1118 -0.0438 -0.2398
30192SOL    HW2 2301   4.043  11.663   7.220 -0.0409  0.0557 -0.1020
30193SOL     OW 2302  10.528   4.425   1.965  0.2960  0.0670 -0.4389
30193SOL    HW1 2303  10.512   4.345   2.015 -1.4835  0.3458 -0.5082
30193SOL    HW2 2304  10.615   4.413   1.928  0.8881 -0.9654  1.1732
30194SOL     OW 2305  11.278   6.845   6.812  0.8041  0.8401 -0.1522
30194SOL    HW1 2306  11.373   6.861   6.814  0.8909  0.7052 -1.7623
30194SOL    HW2 2307  11.255   6.853   6.719 -0.4833 -0.7020 -0.0041
30195SOL     OW 2308   8.716   9.481   9.359  0.9689 -0.1893  0.2700
30195SOL    HW1 2309   8.780   9.501   9.291  0.4227 -0.4977 -0.3400
30195SOL    HW2 2310   8.645   9.436   9.314  0.1404  0.4722  0.8753
30196SOL     OW 2311   5.286  11.790   7.994 -0.5485 -0.0056 -0.2405
30196SOL    HW1 2312   5.375  11.792   8.031 -0.0676 -1.4038 -1.2412
30196SOL    HW2 2313   5.281  11.870   7.941  0.8181 -0.8097 -1.6699
30197SOL     OW 2314   4.470   2.974   6.966  0.0850 -0.0075  0.4792
30197SOL    HW1 2315   4.434   3.063   6.968 -0.8702 -0.2245 -2.5463
30197SOL    HW2 2316   4.565   2.987   6.962 -0.0040  0.8406  0.8421
30198SOL     OW 2317  10.004   6.572   7.079 -0.5620  0.9029 -0.1152
30198SOL    HW1 2318   9.927   6.576   7.023 -1.1383  2.2160  0.7212
30198SOL    HW2 2319  10.050   6.493   7.051 -2.2604  0.0233 -0.5700
30199SOL     OW 2320   5.656   2.364   3.080 -0.5331 -0.0142 -0.1514
30199SOL    HW1 2321   5.690   2.286   3.037  0.1596  0.5847 -0.7132
30199SOL    HW2 2322   5.716   2.434   3.054 -2.2558  1.1195 -1.3287
30200SOL     OW 2323   3.435   0.884   1.120  0.4187  0.0946  0.1636
30200SOL    HW1 2324   3.471   0.796   1.107 -0.3585 -0.4377  1.4597
30200SOL    HW2 2325   3.506   0.932   1.162  1.1643  0.3751 -1.3479
30201SOL     OW 2326   4.991   0.337   0.402 -0.3613 -0.2420 -0.0058
30201SOL    HW1 2327   4.933   0.282   0.454 -0.0777 -0.4773  0.0654
30201SOL    HW2 2328   4.953   0.337   0.314 -0.3989 -0.4919  0.0122
30202SOL     OW 2329   4.055   5.715   6.616 -0.1789  0.1229  0.3698
30202SOL    HW1 2330   4.022   5.632   6.650 -0.9358  0.2841  0.0401
30202SOL    HW2 2331   4.139   5.728   6.661  1.9306 -2.7133 -2.2999
30203SOL     OW 2332   0.680  10.144   6.492 -0.7706  0.2122  0.1029
30203SOL    HW1 2333   0.629  10.084   6.437 -0.5355 -0.5160  0.6592
30203SOL    HW2 2334   0.618  10.212   6.518 -1.1363  0.0156 -0.2465
30204SOL     OW 2335   8.727   9.200   9.457 -0.2811  0.0428  0.5349
30204SOL    HW1 2336   8.776   9.268   9.504 -0.9018  0.3918  0.6828
30204SOL    HW2 2337   8.753   9.118   9.500 -2.5410  0.5049  3.1019
30205SOL     OW 2338   9.468   7.202  11.338 -0.1879 -0.2258  1.0107
30205SOL    HW1 2339   9.375   7.182  11.352 -0.1320 -1.2321  0.1029
30205SOL    HW2 2340   9.467   7.267  11.268 -0.2007 -0.9435  0.3195
30206SOL     OW 2341   4.897  11.070   0.246 -0.1551  0.0251  0.2199
30206SOL    HW1 2342   4.863  11.155   0.274 -1.9779 -0.6093  0.0610
30206SOL    HW2 2343   4.819  11.018   0.226  0.8721 -1.8654  0.8244
30207SOL     OW 2344   5.886   1.641   0.344 -0.6880 -0.4072  0.4757
30207SOL    HW1 2345   5.878   1.710   0.278  0.3202 -0.5383  0.1976
30207SOL    HW2 2346   5.832   1.569   0.310 -1.8815  0.2887  0.8500
30208SOL     OW 2347  11.182   9.738   9.828  0.0134 -0.3229 -0.5217
30208SOL    HW1 2348  11.230   9.787   9.895  0.0141  0.4922 -1.0981
30208SOL    HW2 2349  11.250   9.704   9.770 -0.0641  0.6654 -1.2261
30209SOL     OW 2350   7.467   3.297   1.310  0.3204  0.5971 -0.0214
30209SOL    HW1 2351   7.491   3.260   1.395 -0.3094  0.8701  0.2814
30209SOL    HW2 2352   7.493   3.389   1.315  3.5947 -0.1106 -1.4329
30210SOL     OW 2353   5.756   0.325   7.134 -0.1195  0.1717 -1.0505
30210SOL    HW1 2354   5.747   0.245   7.082 -0.7546 -0.0969 -0.5330
30210SOL    HW2 2355   5.666   0.353   7.151  0.0990  0.8461 -0.9972
30211SOL     OW 2356   3.801   2.399  10.861 -0.0172 -0.2887 -0.3835
30211SOL    HW1 2357   3.733   2.385  10.795 -0.8848 -1.4805  0.7369
30211SOL    HW2 2358   3.841   2.312  10.872  0.5203  0.0334  0.2352
30212SOL     OW 2359   5.105   8.363   0.510  1.0373 -0.0790  0.3301
30212SOL    HW1 2360   5.141   8.297   0.570  0.0099  0.3433  1.4409
30212SOL    HW2 2361   5.154   8.442   0.530  1.0772 -0.0729  0.2120
30213SOL     OW 2362   6.910   6.036  10.314  0.2694 -0.3170  0.5942
30213SOL    HW1 2363   6.912   5.999  10.226 -1.1643  1.5688 -0.3156
30213SOL    HW2 2364   6.942   6.126  10.303  1.4730 -0.4854  2.2941
30214SOL     OW 2365   7.235   6.308   2.831  0.3863  0.3701 -0.0352
30214SOL    HW1 2366   7.292   6.354   2.893  1.5782 -2.6159  1.3073
30214SOL    HW2 2367   7.154   6.292   2.880  1.4529 -2.2953  1.1096
30215SOL     OW 2368   9.928   7.437   5.333 -0.1832  0.2964 -0.5262
30215SOL    HW1 2369   9.843   7.422   5.293  0.2092  0.6574 -1.5295
30215SOL    HW2 2370   9.984   7.467   5.261  0.5914  0.8027  0.2590
30216SOL     OW 2371   2.729   3.859   1.640  0.2100  0.5247  0.0066
30216SOL    HW1 2372   2.660   3.820   1.694 -0.4483  0.3800 -0.9186
30216SOL    HW2 2373   2.797   3.791   1.635 -0.3886 -0.0330 -0.5827
30217SOL     OW 2374   9.601   9.963   7.935  0.1018 -0.1032  0.6126
30217SOL    HW1 2375   9.577  10.007   7.853 -0.4721  0.7699  1.2337
30217SOL    HW2 2376   9.539   9.996   8.000  0.7065 -0.5851  1.4640
30218SOL     OW 2377   1.364   0.697   2.528 -0.3674 -0.4323 -0.3966
30218SOL    HW1 2378   1.389   0.642   2.454  0.9961  0.9568 -1.0300
30218SOL    HW2 2379   1.406   0.657   2.604 -0.0840 -0.7344 -0.7113
30219SOL     OW 2380   8.625  10.211   9.627  0.2361 -0.1574  0.2136
30219SOL    HW1 2381   8.544  10.235   9.582  0.4901 -0.0616 -0.1902
30219SOL    HW2 2382   8.654  10.293   9.668 -1.0744 -0.6459  2.2990
30220SOL     OW 2383   6.379   0.577   7.534 -0.0197 -0.0012  0.2916
30220SOL    HW1 2384   6.312   0.638   7.505 -0.2917  0.1226  1.1545
30220SOL    HW2 2385   6.365   0.568   7.629 -0.7605 -2.3008  0.0372
30221SOL     OW 2386   6.371   1.221   6.784  0.1671 -0.3531  0.3905
30221SOL    HW1 2387   6.417   1.288   6.836  0.8200 -1.5866  1.4708
30221SOL    HW2 2388   6.287   1.260   6.764  1.3023  1.6282 -0.8548
30222SOL     OW 2389   6.096   6.575   9.698  0.4806 -0.2907 -0.6716
30222SOL    HW1 2390   6.071   6.666   9.706  0.5300 -0.3564  0.2548
30222SOL    HW2 2391   6.026   6.526   9.741 -0.0954 -0.7817 -2.0791
30223SOL     OW 2392   0.355  10.752   8.195 -0.1915 -0.8577  0.0431
30223SOL    HW1 2393   0.421  10.685   8.177  2.3681  1.2594  0.8838
30223SOL    HW2 2394   0.387  10.830   8.150 -2.2233  0.2637  0.4158
30224SOL     OW 2395   6.025  11.117   6.430  0.0941  0.2089 -0.3219
30224SOL    HW1 2396   6.057  11.067   6.505 -1.1659  1.4062  1.0950
30224SOL    HW2 2397   6.071  11.201   6.436 -0.3349  0.4705 -0.6306
30225SOL     OW 2398   2.649   4.195   1.304  0.0257  0.2371  0.3057
30225SOL    HW1 2399   2.562   4.235   1.306 -0.5319 -0.8584 -1.0506
30225SOL    HW2 2400   2.651   4.136   1.379 -0.5076  0.0433  0.1641
30226SOL     OW 2401   3.513   1.954   3.878  0.1701 -0.0038 -0.0774
30226SOL    HW1 2402   3.553   2.000   3.952  0.6237  0.2518 -0.4712
30226SOL    HW2 2403   3.519   1.862   3.901 -1.1710  0.1376  0.9376
30227SOL     OW 2404   0.008   0.272   4.720 -0.2561 -0.1267  0.4510
30227SOL    HW1 2405   0.070   0.345   4.723 -1.8345  1.2836 -0.0159
30227SOL    HW2 2406  -0.078   0.313   4.724 -1.2142 -1.9285 -0.5379
30228SOL     OW 2407   9.843   5.917   0.328  0.1841  0.3975 -0.1267
30228SOL    HW1 2408   9.756   5.879   0.319  0.1649  0.0667  1.3336
30228SOL    HW2 2409   9.830   5.995   0.382  0.6932  0.7447 -0.4945
30229SOL     OW 2410   5.254   6.193   3.422  0.4188  0.2485  0.2610
30229SOL    HW1 2411   5.283   6.277   3.388 -1.2501  0.9373  0.4562
30229SOL    HW2 2412   5.323   6.132   3.397  1.1252  1.4562 -0.8558
30230SOL     OW 2413   2.163  10.205   4.810  0.0641  0.1429 -0.0195
30230SOL    HW1 2414   2.214  10.218   4.730 -1.6106  0.6607 -1.0678
30230SOL    HW2 2415   2.164  10.290   4.854 -0.5562  0.3998 -0.4791
30231SOL     OW 2416   1.306  10.226   5.734  0.0900  0.5409  0.1834
30231SOL    HW1 2417   1.219  10.262   5.720 -0.3666 -0.5932  0.0088
30231SOL    HW2 2418   1.318  10.230   5.829 -0.1421  0.7220  0.2055
30232SOL     OW 2419   4.302   8.783   3.078 -0.4006 -1.0338 -0.5716
30232SOL    HW1 2420   4.285   8.865   3.032 -0.7038 -0.9092 -0.2512
30232SOL    HW2 2421   4.384   8.798   3.125 -1.3365 -0.2396  0.9278
30233SOL     OW 2422   1.054   5.837   2.764 -0.0278  0.0375 -0.3370
30233SOL    HW1 2423   1.079   5.882   2.845  2.5041 -0.1919 -0.9014
30233SOL    HW2 2424   1.091   5.749   2.774  0.5603  0.0892 -1.8244
30234SOL     OW 2425   1.028   9.154   6.094  0.5844  0.0008 -0.1260
30234SOL    HW1 2426   0.984   9.197   6.168 -1.0388 -0.4778 -0.7513
30234SOL    HW2 2427   1.119   9.148   6.120  0.0185 -0.3769  1.9838
30235SOL     OW 2428   2.946   6.085   9.120  0.4188 -0.1859 -0.6074
30235SOL    HW1 2429   2.943   6.126   9.034  1.9715 -1.1148 -1.1606
30235SOL    HW2 2430   2.916   5.995   9.105  1.3271 -0.5485 -0.3321
30236SOL     OW 2431  10.219   9.404   7.788  1.0178 -0.2304 -0.3555
30236SOL    HW1 2432  10.232   9.382   7.880  1.2854 -3.3437 -1.0077
30236SOL    HW2 2433  10.128   9.382   7.770  0.4898  1.8881 -0.5334
30237SOL     OW 2434   8.765   5.119   5.982 -0.2866 -0.0589  0.3783
30237SOL    HW1 2435   8.856   5.095   5.965  0.1405  1.1355  0.8750
30237SOL    HW2 2436   8.761   5.212   5.960 -1.5533 -0.2368 -0.2312
30238SOL     OW 2437   4.410   0.128   4.604  0.9652 -0.1881  0.0875
30238SOL    HW1 2438   4.348   0.201   4.611  0.3774 -0.7347  0.7764
30238SOL    HW2 2439   4.410   0.088   4.692  3.9128  1.0807  0.7913
30239SOL     OW 2440   2.172   4.150   3.425 -0.7122 -0.5312 -0.1976
30239SOL    HW1 2441   2.268   4.146   3.433 -0.7118  1.3242  1.4831
30239SOL    HW2 2442   2.140   4.085   3.487 -0.6241 -2.5443 -2.1092
30240SOL     OW 2443   5.511   8.223   9.563  0.2090  0.6843 -0.1646
30240SOL    HW1 2444   5.560   8.152   9.522 -1.2535 -0.6624  0.3188
30240SOL    HW2 2445   5.577   8.272   9.612  1.5093  0.6208 -1.7491
30241SOL     OW 2446   6.796   8.561   2.403  0.4689 -0.0978 -0.4617
30241SOL    HW1 2447   6.851   8.583   2.478 -0.2732 -0.0146  0.0663
30241SOL    HW2 2448   6.787   8.466   2.408 -0.1590 -0.0255 -0.0184
30242SOL     OW 2449   5.382   6.527   5.846  0.8187 -0.3694 -0.0382
30242SOL    HW1 2450   5.405   6.599   5.787 -0.7660  0.0922 -0.1530
30242SOL    HW2 2451   5.303   6.489   5.808 -1.2983  1.0268  2.5687
30243SOL     OW 2452  10.732   6.449  10.133 -0.6268 -0.1624 -0.6906
30243SOL    HW1 2453  10.757   6.466  10.042 -4.0451 -0.3849 -1.8170
30243SOL    HW2 2454  10.744   6.355  10.145  1.2856  0.0782 -0.3146
30244SOL     OW 2455   0.260   7.393  10.168  0.4000 -0.6228 -0.2602
30244SOL    HW1 2456   0.189   7.331  10.155  0.1855 -0.2817 -0.7575
30244SOL    HW2 2457   0.256   7.450  10.091 -0.9400  1.5082  1.2725
30245SOL     OW 2458   3.370   3.563   3.113 -0.2751 -0.4170  0.1838
30245SOL    HW1 2459   3.460   3.582   3.141 -1.4435  2.0952  2.7605
30245SOL    HW2 2460   3.371   3.470   3.089  3.0136 -0.4142 -0.1012
30246SOL     OW 2461   1.817  11.279   3.496  0.2126  0.0819  0.2514
30246SOL    HW1 2462   1.772  11.195   3.500 -0.3132  0.3818  0.9409
30246SOL    HW2 2463   1.757  11.340   3.539  1.2835  0.4807  1.2421
30247SOL     OW 2464  10.772   6.804   5.698 -0.2042  0.2166  0.4433
30247SOL    HW1 2465  10.700   6.799   5.761 -0.6807  0.3301 -0.0824
30247SOL    HW2 2466  10.848   6.828   5.750 -0.3116 -0.9381  1.1821
30248SOL     OW 2467   3.841   5.386   0.415 -0.0330 -0.2780  0.2020
30248SOL    HW1 2468   3.770   5.366   0.476  1.0313  3.2707  2.9349
30248SOL    HW2 2469   3.817   5.471   0.377  1.7486  0.0314 -0.3438
30249SOL     OW 2470   5.689   5.131   6.672  0.0139  0.1154 -0.6913
30249SOL    HW1 2471   5.630   5.188   6.623 -0.8058 -0.4301 -0.3621
30249SOL    HW2 2472   5.670   5.150   6.764 -0.8068 -1.1931 -0.5640
30250SOL     OW 2473  10.372   7.288   5.600  0.0681  0.0023 -0.4104
30250SOL    HW1 2474  10.388   7.241   5.518 -2.7444 -0.6887 -0.6788
30250SOL    HW2 2475  10.457   7.324   5.624  1.3472 -1.2303 -2.7112
30251SOL     OW 2476   1.091   3.477   5.242  0.2657  0.5306  0.3529
30251SOL    HW1 2477   1.037   3.500   5.318  0.0667 -0.2796  0.4715
30251SOL    HW2 2478   1.043   3.514   5.167  0.0809  0.7015  0.5532
30252SOL     OW 2479   9.407  11.246  10.810  0.1082 -0.3677 -0.3312
30252SOL    HW1 2480   9.385  11.173  10.868 -1.3600  0.4999  0.2502
30252SOL    HW2 2481   9.325  11.270  10.769  0.1644  2.0617  0.8079
30253SOL     OW 2482   7.174   1.676   9.066 -0.2798  0.1653 -0.7160
30253SOL    HW1 2483   7.228   1.602   9.037  1.6769  0.3532  2.0404
30253SOL    HW2 2484   7.131   1.645   9.146 -1.9582  1.0188 -1.2438
30254SOL     OW 2485   7.305   1.514   7.430 -0.2093  0.2980  0.1648
30254SOL    HW1 2486   7.296   1.488   7.522  0.4665  1.1181  0.4706
30254SOL    HW2 2487   7.230   1.473   7.386 -0.1834 -0.6388  0.9571
30255SOL     OW 2488   8.014   0.247   3.234  0.1437 -0.5049 -0.4173
30255SOL    HW1 2489   7.929   0.271   3.198  0.2327  0.5656  0.0449
30255SOL    HW2 2490   8.004   0.157   3.263 -1.4689  0.2263  1.5165
30256SOL     OW 2491   9.183   0.935   6.489 -0.1542 -0.1705 -0.0446
30256SOL    HW1 2492   9.122   0.960   6.420 -0.1982 -0.1430  0.0045
30256SOL    HW2 2493   9.243   0.873   6.447 -1.1106 -1.3522  0.2825
30257SOL     OW 2494   4.505  11.717   3.091 -0.6062  0.0257  0.2216
30257SOL    HW1 2495   4.410  11.721   3.099 -0.5625 -0.4829  1.1372
30257SOL    HW2 2496   4.535  11.690   3.177  0.4431  1.1184  0.2184
30258SOL     OW 2497   4.124   8.925   4.963  0.2244 -0.3323  0.0650
30258SOL    HW1 2498   4.108   8.830   4.964 -1.2284 -0.1134  0.3571
30258SOL    HW2 2499   4.082   8.955   4.882 -0.5896  0.2386  0.6783
30259SOL     OW 2500   2.150   8.659   4.421 -0.0796 -0.1366 -0.5293
30259SOL    HW1 2501   2.099   8.585   4.390 -3.5845  1.3027  1.2768
30259SOL    HW2 2502   2.151   8.720   4.347  0.4094 -0.8114 -1.0883
30260SOL     OW 2503   1.476   0.734   1.476  0.5859  0.0397 -0.1228
30260SOL    HW1 2504   1.496   0.643   1.497 -1.0288 -0.4914 -0.7251
30260SOL    HW2 2505   1.531   0.785   1.535  0.6207 -1.3334  1.0775
30261SOL     OW 2506   6.749   9.003   0.819  0.1577  0.3402  0.7344
30261SOL    HW1 2507   6.656   9.007   0.840  0.0320 -2.1407  0.9912
30261SOL    HW2 2508   6.753   9.016   0.724 -0.5681 -0.4523  0.5830
30262SOL     OW 2509   2.283  11.440   4.184 -0.0457  0.0301 -0.0539
30262SOL    HW1 2510   2.276  11.519   4.237 -0.4337  1.3275 -1.9207
30262SOL    HW2 2511   2.377  11.426   4.174  0.0310 -0.4044  1.1934
30263SOL     OW 2512   4.891   3.569   4.427  0.3362  0.5469 -0.7001
30263SOL    HW1 2513   4.802   3.537   4.415  0.5098 -1.0198  1.5509
30263SOL    HW2 2514   4.943   3.490   4.440  1.8606  1.4972 -0.8081
30264SOL     OW 2515   6.851   9.183  10.438 -0.2371  0.5978 -0.5725
30264SOL    HW1 2516   6.910   9.232  10.494  0.7280  0.1403 -1.1726
30264SOL    HW2 2517   6.804   9.125  10.499  0.0552  0.8358 -0.1144
30265SOL     OW 2518   6.360   0.528   6.852 -0.0961 -0.0756 -0.1434
30265SOL    HW1 2519   6.381   0.437   6.827  0.9789  0.4773 -1.3910
30265SOL    HW2 2520   6.325   0.567   6.773  1.6727  1.2333 -0.3418
30266SOL     OW 2521   8.749  10.108   1.502 -0.0456  0.0157  0.7550
30266SOL    HW1 2522   8.678  10.172   1.507  0.3154  0.4029  1.0491
30266SOL    HW2 2523   8.804  10.128   1.578  2.0977  1.7786 -1.1340
30267SOL     OW 2524   9.991   3.030   1.727 -0.0188  0.0364 -0.1220
30267SOL    HW1 2525  10.059   3.014   1.792 -1.2079 -1.0182  0.9286
30267SOL    HW2 2526   9.979   3.125   1.727  1.6391  0.2715 -0.5627
30268SOL     OW 2527   6.596   5.717   1.889 -0.0780 -0.1852  0.4926
30268SOL    HW1 2528   6.576   5.732   1.982 -1.1512  2.1258 -0.0149
30268SOL    HW2 2529   6.643   5.796   1.862 -0.0210 -0.7027 -0.9952
30269SOL     OW 2530  10.907   4.818  10.891 -0.0857 -0.3384 -0.1092
30269SOL    HW1 2531  10.897   4.913  10.886  0.8468 -0.2438 -0.3543
30269SOL    HW2 2532  10.967   4.796  10.820  1.6094 -0.8062  1.3926
30270SOL     OW 2533   9.784   0.849   7.722  0.2393 -0.0277  0.2306
30270SOL    HW1 2534   9.793   0.781   7.788  0.4115  0.8180  1.1035
30270SOL    HW2 2535   9.699   0.890   7.740 -0.1349 -0.3781 -0.6566
30271SOL     OW 2536   1.988   2.833   1.437 -0.3194  0.1561  0.0282
30271SOL    HW1 2537   2.018   2.792   1.356  0.1120  1.9613 -0.7828
30271SOL    HW2 2538   1.900   2.866   1.415 -0.3727  0.2787  0.4244
30272SOL     OW 2539   1.313   8.515  11.943 -0.2171 -0.6546  0.0717
30272SOL    HW1 2540   1.386   8.460  11.971 -0.9107 -2.5388 -1.6418
30272SOL    HW2 2541   1.235   8.466  11.969 -0.8844  0.5114  0.3299
30273SOL     OW 2542   5.544   8.371   7.426 -0.3272  0.3143 -0.2848
30273SOL    HW1 2543   5.566   8.460   7.454 -0.4100 -0.4264  2.4495
30273SOL    HW2 2544   5.450   8.364   7.439 -0.1236 -0.5593  0.8977
30274SOL     OW 2545   8.688   4.411   2.336 -0.4200 -0.2740 -0.1563
30274SOL    HW1 2546   8.679   4.473   2.263 -0.1049  0.6581  0.5666
30274SOL    HW2 2547   8.598   4.390   2.360 -0.5370 -1.4982 -1.5302
30275SOL     OW 2548   8.322   2.468   8.498 -0.0453 -0.4285 -0.3103
30275SOL    HW1 2549   8.284   2.447   8.584  0.3520 -1.1453 -0.3014
30275SOL    HW2 2550   8.411   2.433   8.502 -0.1809 -0.8980 -1.1876
30276SOL     OW 2551  11.353   1.674  11.739 -0.1334  0.1282  0.3736
30276SOL    HW1 2552  11.405   1.679  11.659 -0.6391 -1.1345 -0.0545
30276SOL    HW2 2553  11.279   1.618  11.716 -1.2130  1.1572  1.2369
30277SOL     OW 2554   0.541   2.592   8.676 -0.2970  0.1077  0.0820
30277SOL    HW1 2555   0.635   2.578   8.672 -0.2738 -0.4404  1.8105
30277SOL    HW2 2556   0.502   2.506   8.664 -0.4948  0.0384  1.1055
30278SOL     OW 2557   2.437   2.719   4.898  0.1519  0.1448 -0.3898
30278SOL    HW1 2558   2.400   2.710   4.986 -0.1849  0.0514 -0.5389
30278SOL    HW2 2559   2.528   2.692   4.908 -0.5911 -2.8657 -0.6364
30279SOL     OW 2560   6.640   0.750   1.214 -0.1653 -0.6486  0.0061
30279SOL    HW1 2561   6.588   0.739   1.294  0.4462 -1.4814  0.3055
30279SOL    HW2 2562   6.603   0.827   1.172 -1.0800 -0.7273  0.6401
30280SOL     OW 2563   9.584   1.715  10.261 -0.0912 -0.2662 -0.0604
30280SOL    HW1 2564   9.504   1.663  10.271 -0.4856  0.2100 -0.6842
30280SOL    HW2 2565   9.604   1.744  10.350 -1.8234  1.3543 -0.1322
30281SOL     OW 2566   3.067   0.741   9.851 -0.4857  0.4959  0.3067
30281SOL    HW1 2567   2.979   0.753   9.816 -0.4670  1.5537  0.6006
30281SOL    HW2 2568   3.075   0.646   9.863 -0.9541  0.2147 -1.3479
30282SOL     OW 2569   2.722  11.543   3.727  0.7841 -0.2829 -0.0312
30282SOL    HW1 2570   2.637  11.531   3.685  0.5093 -0.1735  0.4855
30282SOL    HW2 2571   2.767  11.607   3.672 -0.2120  1.1412  0.7545
30283SOL     OW 2572   7.197   9.186   2.184  0.2795  0.1769 -0.1225
30283SOL    HW1 2573   7.171   9.262   2.236 -1.2556  0.1784 -0.8345
30283SOL    HW2 2574   7.204   9.115   2.248 -0.1079  0.5075  0.2945
30284SOL     OW 2575   7.345  11.336   6.742 -0.5527  0.6246  0.2497
30284SOL    HW1 2576   7.399  11.367   6.815  1.0289  0.0106 -0.6265
30284SOL    HW2 2577   7.258  11.370   6.761  0.1957  1.9124  1.5449
30285SOL     OW 2578   7.412   7.603  10.484 -0.5615  0.4541  0.0347
30285SOL    HW1 2579   7.403   7.694  10.513 -0.9014  0.2232  0.6857
30285SOL    HW2 2580   7.427   7.554  10.565  1.6565  0.1649 -0.4785
30286SOL     OW 2581   0.156  10.918   5.820  0.1146 -0.6884 -0.6467
30286SOL    HW1 2582   0.179  10.994   5.766 -2.8375  1.1539  0.4475
30286SOL    HW2 2583   0.206  10.929   5.900 -0.4213  0.2241 -0.4299
30287SOL     OW 2584  10.698   6.209  10.955  0.3319  0.1027 -0.2801
30287SOL    HW1 2585  10.778   6.157  10.957 -0.8830 -1.8658 -0.2193
30287SOL    HW2 2586  10.677   6.217  10.862 -0.7821 -1.6899 -0.2175
30288SOL     OW 2587   4.542   7.523   5.382 -0.0596 -0.3627 -0.2683
30288SOL    HW1 2588   4.503   7.444   5.420  0.0589 -0.1616  0.2902
30288SOL    HW2 2589   4.470   7.566   5.336 -0.6243  0.2174  1.0970
30289SOL     OW 2590  11.217   6.078   8.798  0.4614 -0.3250 -0.2102
30289SOL    HW1 2591  11.157   6.014   8.759 -0.0643 -1.0322  1.6704
30289SOL    HW2 2592  11.266   6.113   8.724 -1.3274 -0.7153 -1.6519
30290SOL     OW 2593   8.021   3.871   2.913  0.3052 -0.1004  0.2791
30290SOL    HW1 2594   8.034   3.779   2.934  0.5070 -0.2390 -0.4441
30290SOL    HW2 2595   8.052   3.918   2.991  0.0262 -0.6407  0.7275
30291SOL     OW 2596   1.547   3.198   9.273  0.0444 -0.3846 -0.1054
30291SOL    HW1 2597   1.578   3.169   9.187  1.3641  2.5536 -0.7540
30291SOL    HW2 2598   1.479   3.135   9.296  0.3605 -1.8883 -2.8075
30292SOL     OW 2599   2.325   5.249   0.971 -0.0187  0.0189  0.5357
30292SOL    HW1 2600   2.262   5.180   0.994  0.4051 -0.5616 -0.0197
30292SOL    HW2 2601   2.284   5.296   0.899  0.3757 -0.6715 -0.1621
30293SOL     OW 2602   8.066   5.505   1.309 -0.2777 -0.1101  0.3393
30293SOL    HW1 2603   8.025   5.588   1.285 -1.0819 -0.7458 -0.5708
30293SOL    HW2 2604   7.994   5.447   1.331  0.3083 -0.4162  1.5411
30294SOL     OW 2605   5.249  10.681   3.876 -0.7450  0.3465 -0.2188
30294SOL    HW1 2606   5.161  10.678   3.838 -1.0317  0.2352  0.4261
30294SOL    HW2 2607   5.276  10.590   3.880 -0.4968  0.4003 -0.6447
30295SOL     OW 2608   0.274   8.319   9.460  0.1893 -0.4646  0.3872
30295SOL    HW1 2609   0.314   8.259   9.397  2.2537 -0.1321  1.2974
30295SOL    HW2 2610   0.327   8.310   9.539  0.3380  2.2140  0.7045
30296SOL     OW 2611   0.872   7.103  11.405  0.1037 -0.7545  0.6612
30296SOL    HW1 2612   0.850   7.106  11.498  0.6009  1.5747  0.7444
30296SOL    HW2 2613   0.798   7.145  11.361  0.1280 -1.3390  0.0424
30297SOL     OW 2614   8.632   1.891   0.947 -0.0522 -0.5486 -0.0703
30297SOL    HW1 2615   8.582   1.830   1.000 -0.6725  0.0507  0.0487
30297SOL    HW2 2616   8.582   1.899   0.865 -0.3077  0.2506  0.1507
30298SOL     OW 2617  10.377   9.280  11.333  0.4552 -0.3173 -0.0016
30298SOL    HW1 2618  10.315   9.208  11.318  0.7700 -0.6879  0.4302
30298SOL    HW2 2619  10.463   9.239  11.321  0.6202  0.1264 -0.3192
30299SOL     OW 2620   2.680   4.784   5.994 -0.0855  0.1688 -0.0845
30299SOL    HW1 2621   2.654   4.872   6.022  0.6848  0.3307  0.1418
30299SOL    HW2 2622   2.705   4.795   5.902 -0.8785 -0.0060 -0.3310
30300SOL     OW 2623   8.932   7.840   6.049 -0.4128 -0.0545 -0.3447
30300SOL    HW1 2624   8.984   7.919   6.036  0.5629 -0.2171  2.1715
30300SOL    HW2 2625   8.872   7.838   5.973  0.5589  2.2387 -1.2481
30301SOL     OW 2626   8.029   6.420   9.768 -0.1752 -0.3839  0.5792
30301SOL    HW1 2627   7.954   6.404   9.710  0.3834 -0.8714 -0.0224
30301SOL    HW2 2628   8.077   6.338   9.769  0.6292  0.0744  0.5508
30302SOL     OW 2629   6.929   6.986   1.552 -0.1508 -0.0693 -0.5741
30302SOL    HW1 2630   6.933   6.916   1.616 -0.2791  0.1711 -0.2994
30302SOL    HW2 2631   6.839   6.982   1.518 -0.5724  0.7783  0.3816
30303SOL     OW 2632  10.611   0.992   7.373  0.2983  0.1923  0.5511
30303SOL    HW1 2633  10.609   1.084   7.348 -0.1173  0.3039  0.9774
30303SOL    HW2 2634  10.548   0.950   7.314  2.1445 -0.2478 -1.2211
30304SOL     OW 2635  10.024   8.533  10.767 -0.3137 -0.3417  0.4152
30304SOL    HW1 2636   9.944   8.563  10.725 -1.1518 -1.6994  0.9932
30304SOL    HW2 2637  10.035   8.591  10.842 -0.6114 -0.0034  0.2003
30305SOL     OW 2638   1.091   9.273   4.738 -0.0590 -0.6356  0.2931
30305SOL    HW1 2639   1.086   9.281   4.833  0.3176 -2.9089  0.5733
30305SOL    HW2 2640   1.119   9.359   4.708  0.3015  0.0041  2.2843
30306SOL     OW 2641   2.759   4.510   5.994 -0.0213  0.1501  0.0346
30306SOL    HW1 2642   2.709   4.591   5.980  0.9923  0.8963  0.6543
30306SOL    HW2 2643   2.698   4.453   6.041 -0.5460  0.7776  0.1320
30307SOL     OW 2644  11.261   1.623   4.708  0.0437  0.7095  0.1336
30307SOL    HW1 2645  11.169   1.602   4.695  0.4578 -1.1553  0.0044
30307SOL    HW2 2646  11.274   1.704   4.658 -1.0089 -0.2062 -1.7160
30308SOL     OW 2647   4.789   1.288   7.429 -0.9703 -0.5245 -0.1221
30308SOL    HW1 2648   4.762   1.357   7.490  2.5376  1.2083 -0.2867
30308SOL    HW2 2649   4.826   1.220   7.485 -0.5532 -0.3353 -0.1680
30309SOL     OW 2650   9.633  10.960  11.242  0.1515 -0.5521  0.3057
30309SOL    HW1 2651   9.641  10.874  11.201 -1.5654 -0.7649  0.3309
30309SOL    HW2 2652   9.593  10.942  11.327  1.0369  0.1602  0.8932
30310SOL     OW 2653   3.386   1.860   6.157 -0.0564  0.0198  0.1621
30310SOL    HW1 2654   3.332   1.898   6.226  0.3480  1.4282 -0.2750
30310SOL    HW2 2655   3.379   1.921   6.083 -0.4436 -1.4282 -1.0501
30311SOL     OW 2656   4.014  10.335   0.514 -0.2096 -0.0462 -0.3306
30311SOL    HW1 2657   4.055  10.416   0.484 -1.3858  0.6446 -0.1277
30311SOL    HW2 2658   4.040  10.326   0.606  2.0600 -1.3139 -0.9946
30312SOL     OW 2659   0.176   6.655   8.163 -0.4063 -0.0910 -0.3053
30312SOL    HW1 2660   0.212   6.599   8.095 -0.5007 -0.7995  0.2148
30312SOL    HW2 2661   0.083   6.662   8.142 -1.1670 -2.9968  1.4804
30313SOL     OW 2662   0.161   3.781  11.322 -0.6531  0.6290 -0.3738
30313SOL    HW1 2663   0.102   3.753  11.391  0.0477  2.2396  0.9531
30313SOL    HW2 2664   0.245   3.793  11.365 -0.0352  1.0321 -1.6392
30314SOL     OW 2665   7.040   6.612   1.190  0.5860  0.3840  0.1205
30314SOL    HW1 2666   7.079   6.572   1.112 -0.1632 -2.4208  1.0806
30314SOL    HW2 2667   7.093   6.690   1.206  1.4308  0.4388 -2.5328
30315SOL     OW 2668   3.513   8.787   3.029  0.7651  0.1170 -0.1670
30315SOL    HW1 2669   3.543   8.797   3.120  1.0656  0.5429 -0.3083
30315SOL    HW2 2670   3.588   8.815   2.976  0.3916  0.4239 -0.5364
30316SOL     OW 2671  11.904   5.551   2.140  0.4454  0.5087 -0.0250
30316SOL    HW1 2672  11.831   5.612   2.148 -0.1807 -0.3856  1.3850
30316SOL    HW2 2673  11.927   5.554   2.047 -3.2433 -1.2384 -1.1875
30317SOL     OW 2674   1.680   4.978  10.842 -0.2669 -0.0220  0.3920
30317SOL    HW1 2675   1.601   4.989  10.790 -0.0945 -0.5978 -0.0028
30317SOL    HW2 2676   1.665   5.031  10.920 -0.0179  1.8621 -0.7760
30318SOL     OW 2677   6.528   2.975   0.397  0.0744 -0.3685 -0.2669
30318SOL    HW1 2678   6.582   2.913   0.445 -0.8369 -0.5031  0.6193
30318SOL    HW2 2679   6.575   3.058   0.403  0.3771 -0.5690  0.1534
30319SOL     OW 2680   4.140  11.193   1.684  0.3694 -0.1445 -0.0832
30319SOL    HW1 2681   4.089  11.130   1.736 -1.9887 -0.5155 -2.6221
30319SOL    HW2 2682   4.204  11.139   1.637 -0.1981 -0.3880 -0.5935
30320SOL     OW 2683   3.919   7.229   8.238  0.0483  0.0240  0.2562
30320SOL    HW1 2684   3.969   7.285   8.179  1.3170  0.8155  1.9959
30320SOL    HW2 2685   3.841   7.280   8.259  1.4048  1.4858  2.1934
30321SOL     OW 2686   0.352   5.541   6.164 -0.2302 -0.2148  0.9648
30321SOL    HW1 2687   0.429   5.553   6.109 -0.7051  0.1369  0.3701
30321SOL    HW2 2688   0.304   5.469   6.124 -1.2309  0.8640  0.1436
30322SOL     OW 2689  10.051   4.847   7.479 -0.0213  0.4365 -0.3115
30322SOL    HW1 2690   9.977   4.818   7.425 -0.8236 -0.7150  1.3507
30322SOL    HW2 2691  10.125   4.793   7.449 -0.3843  0.0253 -0.4719
30323SOL     OW 2692   9.185   3.678  10.817 -0.5740 -0.4367  0.7463
30323SOL    HW1 2693   9.209   3.739  10.747  0.2181 -0.7372  0.7485
30323SOL    HW2 2694   9.168   3.735  10.892  0.7805 -0.2285  0.9262
30324SOL     OW 2695   5.478   5.905   8.813 -0.1709  0.5410  0.1251
30324SOL    HW1 2696   5.557   5.881   8.862  0.0118  0.2537 -0.2967
30324SOL    HW2 2697   5.511   5.935   8.728 -0.5605 -0.5323 -0.4218
30325SOL     OW 2698   8.024   7.819   6.019  0.2782 -0.3426 -0.0003
30325SOL    HW1 2699   8.108   7.818   6.064  0.7556 -1.4460 -0.8506
30325SOL    HW2 2700   8.039   7.875   5.942  0.1973 -0.4283 -0.0787
30326SOL     OW 2701   4.242   3.894   3.135 -0.2183 -0.2515 -0.4189
30326SOL    HW1 2702   4.311   3.858   3.190 -0.2377  1.7270  0.9844
30326SOL    HW2 2703   4.192   3.817   3.107  1.5787 -1.5763 -0.1760
30327SOL     OW 2704   1.385   3.337   4.471 -0.6416 -0.2215  0.1409
30327SOL    HW1 2705   1.391   3.287   4.390  0.8230 -1.2955  0.8689
30327SOL    HW2 2706   1.432   3.284   4.536  0.8230  1.9619  1.0072
30328SOL     OW 2707   8.474   7.641   8.537 -0.3874 -0.0864 -0.0465
30328SOL    HW1 2708   8.464   7.697   8.460  1.0886  0.5280  0.1624
30328SOL    HW2 2709   8.563   7.607   8.530 -1.0655 -1.9946  0.1337
30329SOL     OW 2710   2.028   5.313   1.407 -0.0549  0.2658 -0.1604
30329SOL    HW1 2711   1.966   5.241   1.397  0.0854  0.0886  0.2201
30329SOL    HW2 2712   2.021   5.337   1.500  1.8495 -1.0445  0.3725
30330SOL     OW 2713   4.800   2.072   5.859  0.0885 -0.5360 -0.4139
30330SOL    HW1 2714   4.722   2.122   5.886  1.8981  2.2689  0.0227
30330SOL    HW2 2715   4.818   2.015   5.933 -0.4322  0.2599  0.3518
30331SOL     OW 2716   9.320   6.391   2.547  0.3189  0.8991  0.7721
30331SOL    HW1 2717   9.228   6.364   2.543  0.4639  0.4330  0.4419
30331SOL    HW2 2718   9.319   6.484   2.525 -0.1567  1.0959  1.5538
30332SOL     OW 2719   2.056   3.796   9.106  0.3163 -0.3093 -0.6866
30332SOL    HW1 2720   2.043   3.744   9.027  0.8473 -0.1872 -0.8586
30332SOL    HW2 2721   2.031   3.738   9.178 -3.0978  0.4877 -1.0209
30333SOL     OW 2722   2.468   4.453   1.573  0.0070 -0.2332  0.8296
30333SOL    HW1 2723   2.438   4.441   1.663 -0.7890 -0.9838  0.4786
30333SOL    HW2 2724   2.562   4.471   1.581 -0.3484  1.2229  1.8905
30334SOL     OW 2725   3.804   3.446   5.569  0.3998  0.2182  0.0980
30334SOL    HW1 2726   3.775   3.416   5.655  0.6443  1.7606  0.7627
30334SOL    HW2 2727   3.752   3.525   5.553  0.7284  0.2377 -0.9438
30335SOL     OW 2728   2.742  10.048  10.134  0.2381 -0.5009 -0.2832
30335SOL    HW1 2729   2.801  10.122  10.149 -0.4525 -0.1794  0.9791
30335SOL    HW2 2730   2.664  10.069  10.185 -0.7566 -1.1863 -1.4672
30336SOL     OW 2731  11.456  10.100  10.419 -0.0674  0.6220  0.2623
30336SOL    HW1 2732  11.381  10.079  10.364 -1.2861  2.4140  1.1369
30336SOL    HW2 2733  11.465  10.024  10.478 -0.2450 -0.2410 -0.7962
30337SOL     OW 2734   5.106   7.694  11.231  0.5931  0.5042 -0.3235
30337SOL    HW1 2735   5.187   7.643  11.230 -0.0955 -0.6395 -1.4717
30337SOL    HW2 2736   5.042   7.638  11.187 -0.4622  1.9558 -0.7245
30338SOL     OW 2737   1.942   4.043  11.287 -0.1428 -0.5863 -0.3334
30338SOL    HW1 2738   1.966   3.972  11.347  0.3998  0.4024  0.6423
30338SOL    HW2 2739   2.026   4.079  11.258 -0.4155 -0.1607 -0.6079
30339SOL     OW 2740  10.068   2.800   4.840  0.2752  0.0722  0.0920
30339SOL    HW1 2741  10.092   2.717   4.798  0.6501 -0.2930  0.9745
30339SOL    HW2 2742  10.055   2.776   4.932  0.8616  1.0759  0.4523
30340SOL     OW 2743   3.015   5.127  11.433 -0.0853  0.4482  0.2695
30340SOL    HW1 2744   2.967   5.082  11.502  0.6503 -1.0136 -0.1297
30340SOL    HW2 2745   2.984   5.087  11.352  1.1487  0.0862 -0.0488
30341SOL     OW 2746   1.755   9.015   3.996  0.1811  0.2921  0.7313
30341SOL    HW1 2747   1.748   9.078   4.067 -3.2383  0.0434  0.7878
30341SOL    HW2 2748   1.814   9.056   3.932  0.5886  2.0540  2.1658
30342SOL     OW 2749   9.776   7.435   4.587 -0.4028  0.1574  0.1242
30342SOL    HW1 2750   9.821   7.492   4.524 -0.8558  0.5500  0.1552
30342SOL    HW2 2751   9.707   7.393   4.537  1.5514 -2.4475 -0.5856
30343SOL     OW 2752  10.223   4.303   5.093  0.3994  0.0643 -0.2137
30343SOL    HW1 2753  10.296   4.291   5.155 -0.9296 -1.7942  1.1307
30343SOL    HW2 2754  10.245   4.246   5.019  0.7313  0.1810 -0.2037
30344SOL     OW 2755   8.252   6.359   4.688  0.4209 -0.3516 -0.7956
30344SOL    HW1 2756   8.207   6.357   4.772  0.5048  0.5762 -0.7216
30344SOL    HW2 2757   8.340   6.325   4.707  0.3350 -0.4493 -0.5758
30345SOL     OW 2758   5.662   0.962   6.119  0.1117  0.0622  0.0193
30345SOL    HW1 2759   5.739   0.906   6.114  0.9686  1.2000  0.0431
30345SOL    HW2 2760   5.647   0.991   6.029 -0.3213 -0.1820  0.0088
30346SOL     OW 2761   2.331   6.074  11.263 -0.2740 -0.4867  0.0722
30346SOL    HW1 2762   2.413   6.067  11.213 -0.6725 -1.5893 -0.4448
30346SOL    HW2 2763   2.305   5.984  11.280 -1.0527 -0.1394  0.8103
30347SOL     OW 2764   8.065   2.873   7.918 -0.0821 -0.1030 -0.4413
30347SOL    HW1 2765   8.071   2.799   7.978 -1.1491 -0.3016 -0.5606
30347SOL    HW2 2766   8.151   2.915   7.924 -0.1659 -0.0787  1.2780
30348SOL     OW 2767   9.652   3.413   3.818  0.5793  0.5060  0.2169
30348SOL    HW1 2768   9.565   3.380   3.843  1.0408  0.2611  1.5857
30348SOL    HW2 2769   9.634   3.477   3.750 -0.4671 -1.4315 -1.4266
30349SOL     OW 2770   8.339   7.183   9.161 -0.3015 -0.0129  0.1645
30349SOL    HW1 2771   8.254   7.170   9.202 -0.4240  0.2957  0.0070
30349SOL    HW2 2772   8.371   7.266   9.196  0.3184 -0.5358  0.8801
30350SOL     OW 2773   6.663   0.471   3.918 -0.0353  0.2310 -0.0567
30350SOL    HW1 2774   6.667   0.404   3.850  2.8527  0.3572 -0.1035
30350SOL    HW2 2775   6.618   0.428   3.991 -4.5047  0.5009 -2.2890
30351SOL     OW 2776   9.452  10.690   5.067  0.1385 -0.2893  0.0585
30351SOL    HW1 2777   9.371  10.739   5.085  0.7737  0.8492 -0.0473
30351SOL    HW2 2778   9.432  10.637   4.990  0.8176  3.5934 -3.1584
30352SOL     OW 2779   5.204   1.569   0.108  0.3300 -0.2515  0.2002
30352SOL    HW1 2780   5.166   1.614   0.032 -0.2867  0.0253  0.6563
30352SOL    HW2 2781   5.153   1.489   0.117  0.5306 -0.3793  0.2029
30353SOL     OW 2782   8.518  11.786   9.819 -0.1245  0.6811 -0.2072
30353SOL    HW1 2783   8.483  11.804   9.906  0.4728  0.4662  0.0886
30353SOL    HW2 2784   8.455  11.725   9.780  0.1279 -0.0597  0.4824
30354SOL     OW 2785   7.809   1.244   6.775  0.1948 -0.1280 -0.4300
30354SOL    HW1 2786   7.845   1.178   6.717  2.3715 -2.0940  2.8004
30354SOL    HW2 2787   7.877   1.258   6.841 -0.9494  3.9789  0.2070
30355SOL     OW 2788   8.959   4.542   9.116 -0.3181 -0.2600 -0.4573
30355SOL    HW1 2789   9.014   4.501   9.182 -0.1867 -0.4577 -0.6897
30355SOL    HW2 2790   8.939   4.628   9.152  0.3138 -0.1087 -0.4703
30356SOL     OW 2791   8.862   1.870  10.667 -0.0664 -0.1922 -0.6180
30356SOL    HW1 2792   8.903   1.936  10.724 -1.2706  1.9868 -2.1430
30356SOL    HW2 2793   8.770   1.870  10.693  0.2207 -2.9072  0.7792
30357SOL     OW 2794   7.172  11.318   5.758 -0.2442 -0.4514  0.7823
30357SOL    HW1 2795   7.201  11.240   5.805 -1.2945 -0.5504  1.2942
30357SOL    HW2 2796   7.093  11.290   5.711 -0.4839  0.2305  0.7664
30358SOL     OW 2797   4.640   8.601  10.273 -0.1560 -0.3072  0.3934
30358SOL    HW1 2798   4.715   8.603  10.214 -1.3672 -1.9361 -1.3015
30358SOL    HW2 2799   4.570   8.647  10.226 -0.4076  0.7669  1.7414
30359SOL     OW 2800   2.615   0.484  11.851 -0.1351  0.2837  0.1000
30359SOL    HW1 2801   2.537   0.428  11.855 -0.5479  0.9066  2.0558
30359SOL    HW2 2802   2.683   0.434  11.895  0.1735  0.3005 -0.3630
30360SOL     OW 2803   7.878   3.536   3.854  0.3730  0.0872  0.0584
30360SOL    HW1 2804   7.818   3.585   3.910  0.7495  0.9252 -0.2434
30360SOL    HW2 2805   7.848   3.446   3.858 -1.1661  0.5544 -0.4135
30361SOL     OW 2806   4.797  10.838   1.506 -0.0741  0.3284  0.1423
30361SOL    HW1 2807   4.724  10.900   1.499 -0.2143  0.0653 -0.8921
30361SOL    HW2 2808   4.859  10.881   1.566 -0.8291  0.7916  0.6134
30362SOL     OW 2809   8.809   2.404   5.273  0.1564 -1.1763 -0.8485
30362SOL    HW1 2810   8.756   2.332   5.309  0.2642 -1.1766 -0.6888
30362SOL    HW2 2811   8.795   2.400   5.179 -0.9161 -0.5604 -0.7299
30363SOL     OW 2812   1.389   9.053   8.606 -0.1863 -0.4826  0.1716
30363SOL    HW1 2813   1.326   8.993   8.648 -1.3411  0.3995 -0.2320
30363SOL    HW2 2814   1.347   9.076   8.524 -0.8988  2.6758  1.2968
30364SOL     OW 2815   4.075   6.132   2.611  0.1116  0.5003 -0.6167
30364SOL    HW1 2816   4.128   6.194   2.561  0.0737  0.4775 -0.6853
30364SOL    HW2 2817   4.028   6.081   2.544  1.5568 -0.8708 -0.6451
30365SOL     OW 2818   6.155  11.761   2.190  0.3414 -0.1464  0.2578
30365SOL    HW1 2819   6.245  11.783   2.217  0.5320  1.1112 -1.2749
30365SOL    HW2 2820   6.109  11.746   2.273  1.1538  2.5104  1.3191
30366SOL     OW 2821   4.849   7.863  11.863  0.6582  0.0946 -0.9800
30366SOL    HW1 2822   4.780   7.874  11.797  0.8798  0.9861 -1.0787
30366SOL    HW2 2823   4.802   7.839  11.943  0.1907  0.9760 -0.9723
30367SOL     OW 2824   6.415   3.009   0.142 -0.2905  0.0481 -0.0052
30367SOL    HW1 2825   6.432   3.012   0.236  0.0558 -0.2449 -0.0572
30367SOL    HW2 2826   6.442   3.096   0.111 -3.1025  1.2662  0.5846
30368SOL     OW 2827   8.051  10.125   3.317 -0.1347 -0.6234  0.1689
30368SOL    HW1 2828   8.008  10.195   3.365  1.2894 -0.1897  0.8600
30368SOL    HW2 2829   8.011  10.128   3.230 -2.0594 -0.7893  0.9881
30369SOL     OW 2830   4.604   0.025   1.431 -0.2974  0.2999 -0.3660
30369SOL    HW1 2831   4.699   0.022   1.424 -0.3602  1.1837 -2.5199
30369SOL    HW2 2832   4.587   0.041   1.523  1.6505  0.4257  0.0179
30370SOL     OW 2833   2.112   6.394   5.931 -0.2108  0.4168 -0.2611
30370SOL    HW1 2834   2.101   6.391   6.026 -0.5423  0.5212 -0.2963
30370SOL    HW2 2835   2.125   6.303   5.906 -1.7434  0.1796 -0.3073
30371SOL     OW 2836  10.141   5.298  10.830 -0.0414 -0.0423  0.0073
30371SOL    HW1 2837  10.202   5.335  10.894 -0.5666 -1.2025  1.2433
30371SOL    HW2 2838  10.085   5.371  10.805 -0.5476  0.2215  1.7743
30372SOL     OW 2839   5.261   6.676   8.013 -0.2727 -0.2753  0.2208
30372SOL    HW1 2840   5.180   6.635   8.042  0.1256  0.1698  2.0920
30372SOL    HW2 2841   5.233   6.758   7.971 -0.8355 -0.6398 -0.1304
30373SOL     OW 2842  10.759   1.686   9.511  0.0304  0.0117  0.0878
30373SOL    HW1 2843  10.810   1.766   9.502  0.4403 -0.2551 -0.0041
30373SOL    HW2 2844  10.794   1.627   9.444  0.1872 -0.4779  0.5888
30374SOL     OW 2845   5.504   1.695   8.354 -0.6769 -0.3572 -0.3891
30374SOL    HW1 2846   5.494   1.599   8.355  0.1724 -0.5033 -2.3270
30374SOL    HW2 2847   5.495   1.720   8.446  0.1177 -2.4184  0.3221
30375SOL     OW 2848   9.471  11.175  11.167  0.0632 -0.2791 -0.0360
30375SOL    HW1 2849   9.417  11.162  11.089 -0.5736  0.3945  0.2787
30375SOL    HW2 2850   9.525  11.096  11.172  3.1510  1.2685 -3.4949
30376SOL     OW 2851  11.190   9.448  11.029  0.3253  0.5039 -0.0981
30376SOL    HW1 2852  11.246   9.423  10.955 -0.3566 -0.6213 -0.2547
30376SOL    HW2 2853  11.153   9.532  11.004  0.5437  0.3992 -0.7905
30377SOL     OW 2854   8.691   1.049   4.932  0.6561 -0.2918 -0.0645
30377SOL    HW1 2855   8.779   1.014   4.920  0.5123 -0.4779 -0.5910
30377SOL    HW2 2856   8.635   0.973   4.947  0.5984 -0.1668  0.3762
30378SOL     OW 2857   9.614  11.492   6.960  0.3471  0.8305  0.1178
30378SOL    HW1 2858   9.537  11.479   6.905 -0.8044 -1.1085  2.0151
30378SOL    HW2 2859   9.687  11.459   6.908 -0.6718 -0.7648 -0.3714
30379SOL     OW 2860   9.224   0.560   2.590 -0.0018  0.4743 -0.3054
30379SOL    HW1 2861   9.191   0.565   2.500  1.2018 -1.5582 -0.9226
30379SOL    HW2 2862   9.151   0.525   2.641 -0.8160  1.9917 -0.3745
30380SOL     OW 2863   1.520  11.874   0.293 -0.4867 -0.2198 -0.1229
30380SOL    HW1 2864   1.574  11.946   0.326  1.0106 -0.9099 -0.9461
30380SOL    HW2 2865   1.583  11.813   0.254 -1.8352 -1.3185 -0.6652
30381SOL     OW 2866   0.617   6.071   5.664  0.8278 -0.6430  0.3357
30381SOL    HW1 2867   0.601   6.092   5.756  1.1293  1.2990 -0.0111
30381SOL    HW2 2868   0.616   5.976   5.661 -1.0922 -0.7570  2.0018
30382SOL     OW 2869   7.463   7.671   0.001 -0.2747  0.0390 -0.2024
30382SOL    HW1 2870   7.430   7.605   0.061  0.6006  0.3606  0.6660
30382SOL    HW2 2871   7.413   7.750   0.022 -1.5071 -0.3963 -1.4217
30383SOL     OW 2872   2.522   8.560   9.013  0.0749 -0.0284 -0.2126
30383SOL    HW1 2873   2.572   8.478   9.014 -0.5960 -0.4520  1.4097
30383SOL    HW2 2874   2.519   8.584   8.921  0.3365 -1.8105 -0.7392
30384SOL     OW 2875  11.548   3.104   4.191  0.1079 -0.3916 -0.4145
30384SOL    HW1 2876  11.542   3.108   4.096 -0.7092  1.1835 -0.3387
30384SOL    HW2 2877  11.495   3.028   4.216 -2.5747  1.1367 -1.0668
30385SOL     OW 2878  11.158   1.971   2.711  0.8624  0.6019 -0.4915
30385SOL    HW1 2879  11.089   2.033   2.687  1.7501  2.0604  0.5476
30385SOL    HW2 2880  11.225   1.981   2.644 -0.3303 -1.6396 -2.1514
30386SOL     OW 2881   3.263   1.564   1.483  0.0574  0.3985 -0.4020
30386SOL    HW1 2882   3.217   1.615   1.416 -0.7439  0.9844  0.5675
30386SOL    HW2 2883   3.294   1.629   1.546  2.9811  0.1315 -1.3925
30387SOL     OW 2884   0.843   5.663   1.936 -0.0246  0.0854  0.2169
30387SOL    HW1 2885   0.935   5.664   1.913 -0.1338  2.8476 -0.5347
30387SOL    HW2 2886   0.800   5.714   1.867 -1.8325  0.3802  1.4748
30388SOL     OW 2887   8.620   5.769   9.424  0.1103  0.0767  0.5820
30388SOL    HW1 2888   8.673   5.838   9.383 -0.9852  1.0292  0.7099
30388SOL    HW2 2889   8.681   5.696   9.437  1.2520  0.9409  0.2420
30389SOL     OW 2890   1.038   1.523   4.552  0.1328 -0.0955  0.1974
30389SOL    HW1 2891   1.008   1.593   4.609 -0.5915  0.4883 -0.8803
30389SOL    HW2 2892   1.010   1.549   4.464  0.0201 -1.6280 -0.2549
30390SOL     OW 2893   3.421   2.134   8.356  0.2003 -0.5128 -0.0519
30390SOL    HW1 2894   3.448   2.046   8.329  1.0745 -0.6283  1.1102
30390SOL    HW2 2895   3.485   2.192   8.315 -0.2103 -0.4315 -0.5889
30391SOL     OW 2896   0.845  11.665   6.499 -0.3099 -0.6547 -0.2986
30391SOL    HW1 2897   0.909  11.733   6.519  0.3274 -1.2674 -0.1991
30391SOL    HW2 2898   0.898  11.592   6.467 -0.9041 -1.3922  0.3695
30392SOL     OW 2899   6.181   4.541  11.397  0.4321  0.3233  0.2648
30392SOL    HW1 2900   6.257   4.553  11.455  0.4227 -0.3312  0.4158
30392SOL    HW2 2901   6.106   4.541  11.456  0.2651  1.3727  0.0778
30393SOL     OW 2902   7.245  11.755   9.328  0.4178  0.1789 -0.1656
30393SOL    HW1 2903   7.271  11.669   9.297  1.8089  0.5485 -0.0911
30393SOL    HW2 2904   7.200  11.795   9.254  0.7943 -0.1704 -0.5835
30394SOL     OW 2905  10.923   6.043  11.911  0.0580  0.1673 -0.1388
30394SOL    HW1 2906  10.889   6.077  11.828 -1.1806 -1.1101 -0.1803
30394SOL    HW2 2907  10.930   6.120  11.967  1.8966  1.2359 -1.7145
30395SOL     OW 2908   7.078   5.046   8.398 -0.2848  0.6842 -0.3571
30395SOL    HW1 2909   7.058   5.018   8.487  0.3776  3.4999  0.7997
30395SOL    HW2 2910   7.155   5.103   8.408  2.1092 -1.6917 -3.2605
30396SOL     OW 2911   9.256  10.267   7.058 -0.1013  0.0033 -0.3536
30396SOL    HW1 2912   9.296  10.325   7.123 -0.1259  0.1754 -0.4906
30396SOL    HW2 2913   9.270  10.311   6.975  0.8684 -0.7247 -0.5980
30397SOL     OW 2914   4.774   4.957   4.269  0.1396  0.0633  0.0851
30397SOL    HW1 2915   4.850   4.997   4.311  0.1024  0.0555  0.1590
30397SOL    HW2 2916   4.699   4.983   4.323  0.2310 -0.9134  0.7085
30398SOL     OW 2917   4.851  10.974   8.549  0.3720 -0.2896  0.2324
30398SOL    HW1 2918   4.941  10.978   8.516 -0.0605  0.3781 -0.9368
30398SOL    HW2 2919   4.815  11.061   8.530 -1.0438 -1.0850 -0.9442
30399SOL     OW 2920   1.179   5.188   5.337 -0.0196 -0.4501  0.1990
30399SOL    HW1 2921   1.179   5.181   5.432  3.7219 -0.4055  0.3485
30399SOL    HW2 2922   1.170   5.282   5.319  2.3319 -0.0869  0.7145
30400SOL     OW 2923  11.324   6.240   2.333  0.4426  0.4740 -0.0834
30400SOL    HW1 2924  11.383   6.218   2.405  1.2045  1.4975 -0.3783
30400SOL    HW2 2925  11.366   6.202   2.255 -0.6405 -1.0905  0.0411
30401SOL     OW 2926   8.111   5.236   2.954  0.2880  0.0681  0.5364
30401SOL    HW1 2927   8.085   5.194   3.035  1.6311  1.8085  1.9549
30401SOL    HW2 2928   8.112   5.330   2.975  3.4118  0.4068 -0.5986
30402SOL     OW 2929   2.682   8.928   7.911 -0.0585  0.2534 -0.5169
30402SOL    HW1 2930   2.665   9.019   7.935  2.2243  0.4950  0.5245
30402SOL    HW2 2931   2.686   8.882   7.995 -1.6607 -0.9316 -1.0611
30403SOL     OW 2932   8.751   4.402   3.343  0.2163 -0.0777 -0.3384
30403SOL    HW1 2933   8.666   4.442   3.362  0.5333  1.0400 -1.1947
30403SOL    HW2 2934   8.798   4.405   3.426 -0.1936  0.2751 -0.1142
30404SOL     OW 2935   7.628   7.184   7.247  0.2672  0.0076 -0.1766
30404SOL    HW1 2936   7.653   7.240   7.320 -1.8799  1.3592 -0.4130
30404SOL    HW2 2937   7.562   7.124   7.284 -0.2193  0.1487 -0.7995
30405SOL     OW 2938   2.305   9.989   7.911 -0.3900 -0.2274 -0.3364
30405SOL    HW1 2939   2.355   9.907   7.905 -1.8463 -1.1009 -0.8005
30405SOL    HW2 2940   2.217   9.965   7.884 -1.4375  0.9769  1.8445
30406SOL     OW 2941   7.489   8.330   1.291  0.0447 -0.3901 -0.3747
30406SOL    HW1 2942   7.566   8.379   1.321  0.0936 -0.5889 -0.1726
30406SOL    HW2 2943   7.525   8.254   1.246 -0.0302 -0.1383 -0.8760
30407SOL     OW 2944  10.477   3.739   0.947  0.2423  0.4658 -0.2997
30407SOL    HW1 2945  10.481   3.651   0.984  1.0588  0.4821 -0.3264
30407SOL    HW2 2946  10.387   3.767   0.961 -0.6249 -1.1455 -2.0823
30408SOL     OW 2947  11.078  11.683   0.324  0.4383 -0.0066  0.1991
30408SOL    HW1 2948  11.033  11.598   0.315 -0.0677  0.0276  2.0206
30408SOL    HW2 2949  11.156  11.664   0.375 -0.2134  0.7390  1.5524
30409SOL     OW 2950   0.952   0.552   5.686  0.1550  0.8193  0.4938
30409SOL    HW1 2951   0.919   0.592   5.767 -0.9918  3.3931 -1.1189
30409SOL    HW2 2952   1.041   0.526   5.707 -0.5115  0.2526  2.9293
30410SOL     OW 2953   6.374   9.408   9.794 -0.0821 -0.2930  0.4794
30410SOL    HW1 2954   6.463   9.375   9.806 -0.3329 -0.5620  1.7700
30410SOL    HW2 2955   6.382   9.475   9.727  1.0175 -0.6338  0.2484
30411SOL     OW 2956  10.690   3.385   0.010  0.0093 -0.1807  0.3448
30411SOL    HW1 2957  10.705   3.379   0.104  0.0808 -0.9446  0.2867
30411SOL    HW2 2958  10.665   3.476  -0.004 -1.7536 -0.4696  1.3528
30412SOL     OW 2959   8.857  10.294   0.045  0.5620 -0.0215 -0.4555
30412SOL    HW1 2960   8.928  10.230   0.045  1.9256  1.3912  0.4213
30412SOL    HW2 2961   8.867  10.340   0.128 -0.6750  0.9906 -0.8356
30413SOL     OW 2962   9.638   2.540   3.117  0.1038  0.3414 -0.3138
30413SOL    HW1 2963   9.692   2.579   3.049 -1.7478  4.3731  0.2562
30413SOL    HW2 2964   9.663   2.585   3.197 -2.6751  0.9786  0.2930
30414SOL     OW 2965   2.156   3.155   7.276 -0.3571  0.4895 -0.5829
30414SOL    HW1 2966   2.148   3.109   7.192  0.4255  1.4944 -1.2320
30414SOL    HW2 2967   2.222   3.223   7.260 -3.7686  4.1506 -0.7158
30415SOL     OW 2968   7.235   4.314   3.135  0.1083 -0.1472  0.2183
30415SOL    HW1 2969   7.180   4.284   3.208 -1.5814  0.6311 -0.6746
30415SOL    HW2 2970   7.214   4.407   3.126  3.1355  0.7316  1.1164
30416SOL     OW 2971   0.512   0.489  10.781  0.3698  0.1839 -0.4093
30416SOL    HW1 2972   0.571   0.533  10.721  1.8579 -0.1765  0.7169
30416SOL    HW2 2973   0.510   0.545  10.859 -0.0222 -0.2750 -0.0792
30417SOL     OW 2974   7.030   6.025   5.670 -0.4236  0.5843 -0.0906
30417SOL    HW1 2975   7.111   6.029   5.620  0.2316  0.7395  0.9503
30417SOL    HW2 2976   6.965   5.991   5.609  0.4491  0.3748 -0.9155
30418SOL     OW 2977   8.265   7.863  10.243 -0.1896  0.4915 -0.2336
30418SOL    HW1 2978   8.284   7.952  10.213  1.4087 -0.4544 -2.2780
30418SOL    HW2 2979   8.351   7.820  10.244 -0.8196 -0.8233  1.5601
30419SOL     OW 2980   0.608   2.872   7.197  0.0510  0.6898 -0.1282
30419SOL    HW1 2981   0.539   2.854   7.261 -0.4039  0.3322 -0.7129
30419SOL    HW2 2982   0.599   2.802   7.132 -0.0463  1.5387 -1.0427
30420SOL     OW 2983   2.977   7.481   5.784  0.1904  0.5216 -0.1684
30420SOL    HW1 2984   2.963   7.575   5.792 -0.3451  0.3871  0.6974
30420SOL    HW2 2985   3.053   7.464   5.840 -0.4994  0.2788  0.7363
30421SOL     OW 2986   4.246   5.842   7.961 -0.2836 -0.2135  0.4718
30421SOL    HW1 2987   4.167   5.890   7.985  0.4742  0.5132  1.5655
30421SOL    HW2 2988   4.215   5.754   7.940 -1.4674  0.2569  0.1807
30422SOL     OW 2989   9.861   5.060   1.990 -0.0264 -0.1356 -0.1659
30422SOL    HW1 2990   9.949   5.060   2.028  0.8061 -3.8361 -1.6536
30422SOL    HW2 2991   9.803   5.033   2.062  0.5319 -0.6189  0.1074
30423SOL     OW 2992   1.477   5.724   3.685  0.2139 -0.3058  0.1070
30423SOL    HW1 2993   1.498   5.705   3.594  1.6824 -1.9862  0.7526
30423SOL    HW2 2994   1.544   5.679   3.735  0.9230  2.5698  1.9940
30424SOL     OW 2995   7.748   1.731  10.369 -0.3981  0.2934  0.1396
30424SOL    HW1 2996   7.656   1.755  10.361 -0.8646 -1.4411 -0.1054
30424SOL    HW2 2997   7.757   1.698  10.459 -0.7890 -2.3340 -0.6871
30425SOL     OW 2998  10.458   4.959   2.189 -0.4675 -0.3483 -0.4509
30425SOL    HW1 2999  10.465   4.864   2.185  1.1027 -0.3030  0.4786
30425SOL    HW2 3000  10.384   4.976   2.247 -0.7686 -0.9879 -0.6408
30426SOL     OW 3001   5.639  10.674   0.059 -0.5331 -0.3580  0.1689
30426SOL    HW1 3002   5.585  10.736   0.110 -0.5139 -0.6842  0.5890
30426SOL    HW2 3003   5.598  10.589   0.074 -0.8628 -0.3877 -0.8148
30427SOL     OW 3004   0.465   7.290   4.575  0.0911 -0.3566 -0.4197
30427SOL    HW1 3005   0.423   7.350   4.636  1.8074 -0.3714  0.8554
30427SOL    HW2 3006   0.448   7.203   4.612  1.5673 -0.3354  0.3659
30428SOL     OW 3007   9.182   4.387   3.534 -0.1834  1.0193  0.4659
30428SOL    HW1 3008   9.098   4.342   3.546  0.4351 -0.3274  0.0039
30428SOL    HW2 3009   9.226   4.378   3.619 -0.5884  1.9339  0.7819
30429SOL     OW 3010   7.784   5.551   5.402 -0.2514  0.0350  0.0392
30429SOL    HW1 3011   7.741   5.474   5.439 -0.0523 -0.4220 -0.6507
30429SOL    HW2 3012   7.876   5.527   5.397  0.6028  1.8061  3.6030
30430SOL     OW 3013   8.957   3.787   0.185 -0.5339  0.3984  0.6570
30430SOL    HW1 3014   8.931   3.771   0.275 -1.4862  0.6446  0.4355
30430SOL    HW2 3015   9.021   3.718   0.166 -1.1594 -0.3373  1.1635
30431SOL     OW 3016   8.047   8.265   7.277  0.2432  0.5912 -0.4176
30431SOL    HW1 3017   8.100   8.319   7.336 -0.5260  0.6170  0.2555
30431SOL    HW2 3018   7.967   8.247   7.326  0.1163 -0.4223 -0.9775
30432SOL     OW 3019   3.985  11.835  11.068  0.4208 -0.3541 -0.0678
30432SOL    HW1 3020   3.922  11.806  11.003 -2.2044  1.8518  1.2964
30432SOL    HW2 3021   3.932  11.872  11.139  3.2147  0.7651  1.6290
30433SOL     OW 3022   1.815   9.691   7.424  0.0975  0.5994 -0.2977
30433SOL    HW1 3023   1.864   9.631   7.366  2.8916 -0.1977  2.6187
30433SOL    HW2 3024   1.823   9.776   7.382 -0.5035 -0.3609 -2.5172
30434SOL     OW 3025   8.180   0.665   2.927 -0.1181 -0.5573  0.0047
30434SOL    HW1 3026   8.264   0.621   2.936  0.3615  0.6369  2.2176
30434SOL    HW2 3027   8.120   0.615   2.982 -0.1879  0.0866  0.5255
30435SOL     OW 3028  11.367   9.910   8.431  0.5899  0.2691  0.2012
30435SOL    HW1 3029  11.379   9.992   8.478  0.7276  1.1918 -1.3784
30435SOL    HW2 3030  11.451   9.895   8.387  0.5062 -0.6285  0.3183
30436SOL     OW 3031   8.641  11.453   7.324 -0.1400 -0.3718  0.3765
30436SOL    HW1 3032   8.677  11.541   7.335  0.5374 -0.7121  1.0838
30436SOL    HW2 3033   8.652  11.412   7.411 -2.2244 -0.5167  0.6083
30437SOL     OW 3034   1.604   5.614  11.514 -1.0955 -0.3813 -0.1379
30437SOL    HW1 3035   1.679   5.647  11.463 -1.0480  1.5102  1.0645
30437SOL    HW2 3036   1.643   5.584  11.596 -1.5888  0.2976  0.3578
30438SOL     OW 3037   0.624  10.346   5.014 -0.2421 -0.2640 -0.1917
30438SOL    HW1 3038   0.631  10.327   5.108  0.4176 -0.5645 -0.2986
30438SOL    HW2 3039   0.539  10.390   5.005 -0.5438 -0.6972  0.4665
30439SOL     OW 3040   1.423   6.000  10.536  0.1010  0.0019 -0.6045
30439SOL    HW1 3041   1.463   5.948  10.467 -0.5184 -0.3950 -0.6685
30439SOL    HW2 3042   1.336   6.022  10.503 -0.2569 -0.3104  0.1043
30440SOL     OW 3043   9.410   8.539  10.811  0.0719  0.3518 -0.1258
30440SOL    HW1 3044   9.434   8.623  10.771  0.2409  0.2105 -0.3216
30440SOL    HW2 3045   9.432   8.474  10.744 -0.1706  0.1615 -0.0205
30441SOL     OW 3046   6.161   6.144   1.562  0.4565 -0.1831  0.5266
30441SOL    HW1 3047   6.166   6.135   1.467 -1.2436 -1.2163  0.4964
30441SOL    HW2 3048   6.216   6.073   1.595 -0.8415 -1.3422  0.2805
30442SOL     OW 3049   9.604  11.021   4.010  0.0267  0.0294  0.3298
30442SOL    HW1 3050   9.567  10.958   3.948  1.9559 -0.3426 -0.5424
30442SOL    HW2 3051   9.653  10.967   4.072  2.7575  0.5952 -1.1516
30443SOL     OW 3052   2.495   8.039   1.651 -0.2716 -0.3391  0.2449
30443SOL    HW1 3053   2.449   8.104   1.703  0.1864  0.3225 -0.1651
30443SOL    HW2 3054   2.450   8.041   1.566  0.2952  0.0744 -0.0501
30444SOL     OW 3055   8.468   8.695   2.975  0.0661  0.9739 -0.1108
30444SOL    HW1 3056   8.517   8.710   3.056  0.0806 -0.3818  0.1618
30444SOL    HW2 3057   8.525   8.728   2.906 -0.0315  2.3365  0.4163
30445SOL     OW 3058   4.099   8.393   0.031 -0.1571  0.5645 -0.3361
30445SOL    HW1 3059   4.144   8.353   0.106  1.7335 -0.1313 -1.7746
30445SOL    HW2 3060   4.062   8.320  -0.018  1.7546  0.6128 -1.9902
30446SOL     OW 3061  10.736   8.833  10.754  0.1182  0.1041 -0.0776
30446SOL    HW1 3062  10.796   8.905  10.735 -0.6406  0.7479 -0.0744
30446SOL    HW2 3063  10.661   8.848  10.697 -0.8069  0.2969  1.1390
30447SOL     OW 3064   7.134   9.889   1.493  0.9244  0.0281 -0.2798
30447SOL    HW1 3065   7.179   9.810   1.524 -0.2903 -1.3546 -1.8369
30447SOL    HW2 3066   7.159   9.896   1.400 -0.4396  0.3684 -0.6484
30448SOL     OW 3067   1.290  10.451   8.961 -0.4846  0.3294  0.2076
30448SOL    HW1 3068   1.251  10.373   9.001  0.1353  0.4397  1.0488
30448SOL    HW2 3069   1.292  10.431   8.867 -1.4399 -0.1634  0.2742
30449SOL     OW 3070   9.426   4.766  11.271 -0.1892 -0.4165  0.1155
30449SOL    HW1 3071   9.354   4.811  11.228 -0.6546 -1.2487 -0.0032
30449SOL    HW2 3072   9.420   4.793  11.363 -0.7617 -0.5933  0.1383
30450SOL     OW 3073   7.519   8.621   2.174  0.4221  0.0445  0.0727
30450SOL    HW1 3074   7.432   8.583   2.165  0.7634 -0.5034 -1.1491
30450SOL    HW2 3075   7.541   8.611   2.266 -1.8430  2.5133  1.0223
30451SOL     OW 3076   8.710   2.094   7.656 -0.4674  0.3696  0.2911
30451SOL    HW1 3077   8.669   2.043   7.587 -1.0178  0.5152  0.5105
30451SOL    HW2 3078   8.779   2.037   7.690  1.0262  0.9650 -1.5844
30452SOL     OW 3079   9.059   7.036   9.842  0.3986  0.0279 -0.2319
30452SOL    HW1 3080   8.970   7.002   9.833  0.6794 -1.4818  2.0841
30452SOL    HW2 3081   9.105   7.004   9.764 -0.5352 -1.0215 -0.3782
30453SOL     OW 3082   6.369   0.153   4.304  0.1384  0.0572  0.0651
30453SOL    HW1 3083   6.427   0.156   4.380 -2.9620  0.6901  2.5839
30453SOL    HW2 3084   6.285   0.122   4.338 -1.5858  0.9380 -2.9880
30454SOL     OW 3085   3.767   1.365   2.595 -0.0398  0.1692 -0.1555
30454SOL    HW1 3086   3.734   1.423   2.527 -0.8993  0.7286  0.7093
30454SOL    HW2 3087   3.834   1.416   2.640 -0.6487  0.4433  0.4704
30455SOL     OW 3088   2.904   5.230   2.574 -0.3108  0.0960 -0.3651
30455SOL    HW1 3089   2.954   5.176   2.513 -0.4537  0.6957 -1.0226
30455SOL    HW2 3090   2.853   5.288   2.519 -1.5795 -0.3527  0.2979
30456SOL     OW 3091   4.004  11.504  11.164  0.2585 -0.4171 -0.0958
30456SOL    HW1 3092   3.997  11.582  11.219  0.2534 -0.1605 -0.4582
30456SOL    HW2 3093   3.921  11.499  11.117  0.4320 -0.3897 -0.4049
30457SOL     OW 3094   5.480   1.407   8.399 -0.1749  0.4792 -0.1379
30457SOL    HW1 3095   5.480   1.320   8.439 -1.8250  1.0893  1.3529
30457SOL    HW2 3096   5.510   1.393   8.309  1.6241 -1.2879  0.6592
30458SOL     OW 3097   3.856   5.342   5.881  0.2062  0.4763 -0.1237
30458SOL    HW1 3098   3.828   5.413   5.938 -0.3861  1.3801 -1.4977
30458SOL    HW2 3099   3.808   5.265   5.914 -0.2408  1.0007  0.4815
30459SOL     OW 3100   4.241   1.214   6.610 -0.5215  0.2803  0.3095
30459SOL    HW1 3101   4.335   1.199   6.615 -0.5888  0.2529  2.4606
30459SOL    HW2 3102   4.204   1.159   6.680 -1.8615  2.1601  1.1576
30460SOL     OW 3103   3.598   0.008   5.845  0.2785  0.4357 -0.7831
30460SOL    HW1 3104   3.640  -0.073   5.872  0.3379  0.5244 -0.6099
30460SOL    HW2 3105   3.642   0.032   5.763  0.0904  0.1624 -0.9702
30461SOL     OW 3106   0.631   4.964   4.427  0.1342  0.0404  0.1427
30461SOL    HW1 3107   0.569   4.975   4.355  0.6051  1.9549 -0.0118
30461SOL    HW2 3108   0.717   4.980   4.388  0.3071  2.4392  1.3069
30462SOL     OW 3109   3.549  11.868   9.973 -0.4070  0.4711  0.1136
30462SOL    HW1 3110   3.635  11.831   9.990 -0.3131  0.9614  0.7656
30462SOL    HW2 3111   3.494  11.793   9.953  0.1608  0.1524 -0.2691
30463SOL     OW 3112   6.573   3.579   2.116 -0.0529 -0.6259 -0.6033
30463SOL    HW1 3113   6.586   3.518   2.189  0.9443  0.6924  0.3634
30463SOL    HW2 3114   6.606   3.532   2.039  0.3595 -1.4366  0.0544
30464SOL     OW 3115  11.513   2.835   0.256 -0.5827 -0.5686 -0.3482
30464SOL    HW1 3116  11.424   2.868   0.239  0.0472  1.1881 -0.5041
30464SOL    HW2 3117  11.558   2.844   0.173  0.3643  0.7797  0.2687
30465SOL     OW 3118   4.145   5.986   7.186 -0.0927  0.0428 -0.6020
30465SOL    HW1 3119   4.217   5.924   7.192  0.6703  1.0100  4.2121
30465SOL    HW2 3120   4.184   6.066   7.152  0.5507 -0.1198 -0.2563
30466SOL     OW 3121   7.555   7.781  10.689 -0.7163 -0.2019 -0.4824
30466SOL    HW1 3122   7.547   7.786  10.784 -0.0675  0.8282 -0.4610
30466SOL    HW2 3123   7.649   7.775  10.673 -0.8431 -0.8994 -1.0526
30467SOL     OW 3124   8.937   6.344   9.305 -0.0462  0.0542  0.2561
30467SOL    HW1 3125   8.849   6.306   9.304 -0.7332  1.4902  1.8663
30467SOL    HW2 3126   8.937   6.405   9.231  0.5497 -1.8162 -1.3829
30468SOL     OW 3127   3.340   4.661   1.680 -0.0509 -0.4723 -0.2003
30468SOL    HW1 3128   3.430   4.643   1.707  0.3253 -0.9678 -1.7013
30468SOL    HW2 3129   3.301   4.706   1.755  1.2811 -0.7246  0.6765
30469SOL     OW 3130   2.637   6.922   8.880  0.0823  0.2995 -0.4907
30469SOL    HW1 3131   2.660   6.987   8.814  1.2946 -0.7891 -1.2023
30469SOL    HW2 3132   2.623   6.841   8.830 -0.0763 -0.2928  0.4840
30470SOL     OW 3133   9.740   9.886   9.180  0.5592  0.3559 -0.1819
30470SOL    HW1 3134   9.681   9.820   9.145 -1.3348  2.1712 -0.5954
30470SOL    HW2 3135   9.827   9.847   9.172 -0.3098 -1.3787 -1.9931
30471SOL     OW 3136   2.740   1.056   1.079  0.3775  0.6528 -0.6859
30471SOL    HW1 3137   2.686   1.034   1.155  1.8435 -1.9864 -0.2987
30471SOL    HW2 3138   2.827   1.072   1.116  0.9027  0.2349 -1.7211
30472SOL     OW 3139   9.028   0.666   9.363 -1.0782 -0.0306 -0.4543
30472SOL    HW1 3140   9.045   0.720   9.286 -1.5480 -0.0807 -0.5983
30472SOL    HW2 3141   9.108   0.614   9.374  0.0610  1.8437  0.6748
30473SOL     OW 3142   4.499   9.446   1.128 -0.4782  0.3071  0.2408
30473SOL    HW1 3143   4.446   9.444   1.048  0.8402 -1.1913 -0.6525
30473SOL    HW2 3144   4.456   9.383   1.186 -0.2858 -0.1102 -0.0676
30474SOL     OW 3145   7.438   0.215   8.496 -0.1041 -0.2770  0.2635
30474SOL    HW1 3146   7.491   0.286   8.460  0.6962 -0.4865  1.0091
30474SOL    HW2 3147   7.448   0.222   8.591 -2.9197  0.8454  0.5872
30475SOL     OW 3148   9.744   0.898   2.063  0.6782 -0.0023 -0.3132
30475SOL    HW1 3149   9.677   0.953   2.103 -0.5616 -0.6603 -1.4199
30475SOL    HW2 3150   9.750   0.821   2.120  1.0933  0.4162  0.2243
30476SOL     OW 3151   5.536   8.840   6.847  0.3906  0.1825 -0.6122
30476SOL    HW1 3152   5.603   8.826   6.780 -1.3374 -0.1203 -2.3273
30476SOL    HW2 3153   5.533   8.757   6.895  2.1768  0.6534  0.4355
30477SOL     OW 3154   7.759  10.635   4.620 -0.2659  0.0802 -0.8375
30477SOL    HW1 3155   7.821  10.643   4.692  0.4688  0.8053 -1.5221
30477SOL    HW2 3156   7.696  10.706   4.634 -0.9673 -0.6546 -0.1437
30478SOL     OW 3157   1.974   6.364   2.001 -0.3286  0.0067 -0.2314
30478SOL    HW1 3158   1.934   6.451   1.988  1.9867  1.2894  0.6316
30478SOL    HW2 3159   1.941   6.312   1.928  0.0383  2.3204 -2.2057
30479SOL     OW 3160   2.591   2.292   3.274 -0.0537  0.6062  0.0511
30479SOL    HW1 3161   2.685   2.312   3.278  0.5117 -1.8133  0.4003
30479SOL    HW2 3162   2.585   2.201   3.302 -2.5869  0.8459  0.4842
30480SOL     OW 3163   1.645   4.619   7.092  0.2119  0.5086 -0.0234
30480SOL    HW1 3164   1.586   4.593   7.163 -1.1133  0.0964 -1.2245
30480SOL    HW2 3165   1.587   4.632   7.017  1.6604  0.0677 -1.2631
30481SOL     OW 3166   3.181   1.987   0.368  0.3290 -0.7170  0.4892
30481SOL    HW1 3167   3.109   1.999   0.430  0.0976 -0.4649  0.1774
30481SOL    HW2 3168   3.138   1.974   0.284  0.6501 -0.1167  0.2259
30482SOL     OW 3169  11.690   3.026   8.575  0.1645  0.1821 -0.5604
30482SOL    HW1 3170  11.769   3.026   8.628 -1.3691  1.9558  1.9745
30482SOL    HW2 3171  11.667   2.933   8.565  2.0779 -0.3192 -0.6990
30483SOL     OW 3172   1.625  11.259   9.866 -0.0927  0.3267 -0.1711
30483SOL    HW1 3173   1.559  11.291   9.804 -0.4747  1.2461  0.6975
30483SOL    HW2 3174   1.574  11.217   9.935  0.3270 -0.5591 -0.3873
30484SOL     OW 3175   9.473   7.325   7.603 -0.0754  0.1541  0.4123
30484SOL    HW1 3176   9.558   7.355   7.636 -0.2980 -0.5357  1.7050
30484SOL    HW2 3177   9.440   7.398   7.551  1.9592 -0.1189 -1.4102
30485SOL     OW 3178  11.195   4.699   5.829 -0.4182 -0.2211  0.3257
30485SOL    HW1 3179  11.120   4.662   5.783 -1.0012 -0.1067  1.1785
30485SOL    HW2 3180  11.271   4.658   5.786 -1.0294 -2.1382  0.9925
30486SOL     OW 3181   7.866  10.672   5.203  0.1915 -0.2125  0.2593
30486SOL    HW1 3182   7.894  10.594   5.155 -0.5424 -0.7011  0.6101
30486SOL    HW2 3183   7.920  10.742   5.168  1.3267 -0.9872  0.3947
30487SOL     OW 3184   8.467   2.512   3.052 -0.8434  0.4637 -0.4123
30487SOL    HW1 3185   8.556   2.537   3.025 -0.3525  0.0995  0.8330
30487SOL    HW2 3186   8.479   2.459   3.130 -2.1149 -0.4020 -0.7681
30488SOL     OW 3187   8.821   4.939   7.971 -0.3572 -0.1527 -0.2330
30488SOL    HW1 3188   8.897   4.880   7.964 -0.6037 -0.4922 -0.0653
30488SOL    HW2 3189   8.745   4.882   7.957 -0.7435 -0.3405  2.1833
30489SOL     OW 3190   8.113   7.137   5.352  0.2412  0.4655  0.2221
30489SOL    HW1 3191   8.102   7.151   5.446  0.4737 -3.3940  0.9907
30489SOL    HW2 3192   8.027   7.156   5.315 -0.5173 -0.1670  1.5926
30490SOL     OW 3193   6.444   0.552   4.891  0.4653  0.4574  0.6426
30490SOL    HW1 3194   6.442   0.587   4.801  4.2598 -1.6905 -0.4600
30490SOL    HW2 3195   6.431   0.629   4.946 -1.4690  1.9410 -1.6504
30491SOL     OW 3196   1.107   4.182   7.110  0.1842 -0.2529 -0.0722
30491SOL    HW1 3197   1.077   4.254   7.055  0.1546  0.7795  1.2250
30491SOL    HW2 3198   1.028   4.132   7.129  0.4014 -1.3738 -1.9765
30492SOL     OW 3199   9.328   5.671   9.626 -0.4342  0.1337 -0.3335
30492SOL    HW1 3200   9.400   5.637   9.679 -0.2347 -0.8195 -1.1674
30492SOL    HW2 3201   9.361   5.752   9.589 -0.2438  0.3358  0.2773
30493SOL     OW 3202   2.743  11.624   0.796 -0.3534  0.0243 -0.6071
30493SOL    HW1 3203   2.747  11.580   0.881 -2.4522 -0.2175 -0.5887
30493SOL    HW2 3204   2.832  11.617   0.762  0.6757  0.5557  1.7558
30494SOL     OW 3205   0.935   3.486  10.417 -0.5671 -0.0461  0.0611
30494SOL    HW1 3206   0.917   3.520  10.505  0.4510 -0.1622  0.3225
30494SOL    HW2 3207   0.939   3.564  10.361 -0.0934  0.1215  0.3246
30495SOL     OW 3208   1.139   6.142   9.823  0.2318 -0.2944 -0.5550
30495SOL    HW1 3209   1.114   6.073   9.885  0.8073 -0.1439 -0.1504
30495SOL    HW2 3210   1.143   6.097   9.738  0.4704 -0.7314 -0.3178
30496SOL     OW 3211   1.871   6.006   1.654  0.9483  0.7867 -0.1216
30496SOL    HW1 3212   1.885   6.031   1.745  2.4455 -0.0173 -0.1075
30496SOL    HW2 3213   1.838   5.916   1.659 -0.4168  1.2548 -0.3345
30497SOL     OW 3214   3.211  10.515   9.272  0.1616  0.6324 -0.2231
30497SOL    HW1 3215   3.196  10.598   9.318 -0.9162  0.1779  0.2879
30497SOL    HW2 3216   3.173  10.449   9.330 -0.9191  0.0039 -1.5934
30498SOL     OW 3217   3.288   1.002  10.762  0.1246 -0.2171  0.3489
30498SOL    HW1 3218   3.204   0.978  10.723  0.4003 -1.9661  0.7038
30498SOL    HW2 3219   3.331   1.055  10.696  0.3596 -2.6282 -1.5882
30499SOL     OW 3220   5.462  11.449  11.419 -0.1936  0.3443 -0.3385
30499SOL    HW1 3221   5.533  11.465  11.355  1.7403  0.6538  1.7498
30499SOL    HW2 3222   5.419  11.534  11.427  1.2951  1.0610  0.6631
30500SOL     OW 3223   8.289   4.315  10.880  0.0469 -0.1995  0.7294
30500SOL    HW1 3224   8.230   4.387  10.904 -0.5419 -0.0150 -1.1083
30500SOL    HW2 3225   8.345   4.303  10.957  0.5191  2.5895  0.9392
30501SOL     OW 3226  11.227   8.561   6.593 -0.3194  0.5174 -0.1707
30501SOL    HW1 3227  11.138   8.539   6.619  0.0219  0.4032  0.9782
30501SOL    HW2 3228  11.218   8.605   6.509 -1.3844 -0.2029 -0.4532
30502SOL     OW 3229   9.149   3.181   5.904  0.1391 -0.1764  0.2151
30502SOL    HW1 3230   9.134   3.129   5.825 -0.7315 -0.2612  0.4259
30502SOL    HW2 3231   9.071   3.236   5.912  0.6834  0.5785  0.4513
30503SOL     OW 3232   6.038   0.533   7.184  0.6241 -0.3517  0.0470
30503SOL    HW1 3233   5.943   0.524   7.190  0.7988 -1.9320  0.8966
30503SOL    HW2 3234   6.053   0.565   7.095 -0.6349 -1.4581 -0.6099
30504SOL     OW 3235  11.703   2.428   6.697 -0.5351 -0.1207 -0.0527
30504SOL    HW1 3236  11.798   2.427   6.683 -0.5517 -0.3724 -0.1513
30504SOL    HW2 3237  11.687   2.355   6.757 -0.7225 -0.3632 -0.3971
30505SOL     OW 3238   6.188  10.575  11.704  0.1421 -0.4920 -0.2823
30505SOL    HW1 3239   6.204  10.658  11.748  0.4899 -1.2066  0.9612
30505SOL    HW2 3240   6.120  10.596  11.639  0.7435  0.9113 -0.4971
30506SOL     OW 3241   6.505   0.347   4.131  0.4115  0.6366  0.3675
30506SOL    HW1 3242   6.427   0.362   4.076  1.1207 -1.2379 -1.2673
30506SOL    HW2 3243   6.485   0.268   4.180  1.3989 -0.0870 -0.3562
30507SOL     OW 3244   2.290   0.865   6.144 -0.7136 -0.4250 -0.7717
30507SOL    HW1 3245   2.373   0.832   6.109 -0.3888  0.0465 -0.4618
30507SOL    HW2 3246   2.231   0.866   6.068 -0.7017 -1.5903 -0.8101
30508SOL     OW 3247   9.113  11.363   7.472  0.5007  1.0082  0.0736
30508SOL    HW1 3248   9.043  11.415   7.513  1.0747  1.1032  0.9557
30508SOL    HW2 3249   9.166  11.427   7.425  0.1303  0.9617 -0.4251
30509SOL     OW 3250   9.230   7.629   3.959  0.2324 -0.2009  0.0389
30509SOL    HW1 3251   9.282   7.653   4.036  0.6178 -2.7126  0.6649
30509SOL    HW2 3252   9.141   7.622   3.992 -0.0507  1.2503 -0.3686
30510SOL     OW 3253   3.171   3.284   9.489  0.3321 -0.1292 -0.0466
30510SOL    HW1 3254   3.096   3.240   9.449  0.0769 -0.6246  0.9352
30510SOL    HW2 3255   3.233   3.214   9.508 -0.3895 -0.2476  2.2248
30511SOL     OW 3256   4.947   3.655  11.809 -0.2210 -0.4611  0.0992
30511SOL    HW1 3257   4.941   3.728  11.871 -1.9202 -0.7174  0.2851
30511SOL    HW2 3258   4.961   3.578  11.864 -0.4920 -0.5263  0.0809
30512SOL     OW 3259   2.165   8.610   6.463 -0.2600  0.5549 -0.3177
30512SOL    HW1 3260   2.087   8.603   6.409 -0.2808  2.1175 -0.5418
30512SOL    HW2 3261   2.132   8.614   6.553 -0.4469  1.2766 -0.4173
30513SOL     OW 3262  11.161   8.522   0.815  0.3634 -0.5436  0.2591
30513SOL    HW1 3263  11.109   8.537   0.737  0.4282 -0.6264  0.2003
30513SOL    HW2 3264  11.098   8.520   0.887  0.4917  2.0218  0.5566
30514SOL     OW 3265   8.813   0.403   4.153  0.0846 -0.2658 -0.0507
30514SOL    HW1 3266   8.841   0.463   4.221 -3.2010 -0.1340  1.3616
30514SOL    HW2 3267   8.860   0.322   4.171 -1.8663 -0.7910  3.5716
30515SOL     OW 3268   7.442   0.145  10.175 -0.0131 -0.2832  0.2089
30515SOL    HW1 3269   7.369   0.208  10.173  0.6919  0.5419 -0.2740
30515SOL    HW2 3270   7.501   0.180  10.242 -0.6284 -1.6383  1.5332
30516SOL     OW 3271   9.555   3.677   9.632 -0.4650  0.0201  0.4362
30516SOL    HW1 3272   9.541   3.615   9.703 -1.6442 -0.8838 -0.5308
30516SOL    HW2 3273   9.467   3.707   9.609 -0.0084  1.1747  0.1071
30517SOL     OW 3274   8.759   2.133  11.300  0.1856  0.1361 -0.2396
30517SOL    HW1 3275   8.841   2.155  11.256 -0.5309  0.2619 -1.5871
30517SOL    HW2 3276   8.713   2.078  11.236 -1.5913  1.6504 -0.3304
30518SOL     OW 3277   8.785   6.639   4.411 -0.2416 -0.0728  0.0313
30518SOL    HW1 3278   8.705   6.663   4.459 -0.5097  1.3644 -1.0460
30518SOL    HW2 3279   8.776   6.546   4.393 -0.9250 -0.2681  1.2977
30519SOL     OW 3280   1.649   2.302   7.162 -0.4772  0.0561  0.2396
30519SOL    HW1 3281   1.703   2.359   7.107  1.7704 -1.8677  0.2602
30519SOL    HW2 3282   1.587   2.261   7.101 -0.3968  0.6041 -0.2183
30520SOL     OW 3283   4.212   0.057   5.465 -0.0908  0.2178  0.4679
30520SOL    HW1 3284   4.164   0.093   5.389 -2.3718 -1.4365  1.0268
30520SOL    HW2 3285   4.226   0.133   5.522  3.0981  1.8581 -2.1474
30521SOL     OW 3286  10.496   2.733  10.869  0.3855  0.1326 -0.7191
30521SOL    HW1 3287  10.409   2.770  10.882  1.0876  0.9961  2.3292
30521SOL    HW2 3288  10.546   2.803  10.828  0.1791  0.4255 -0.4810
30522SOL     OW 3289   3.019   7.322  11.861 -0.0744 -0.3599  0.7889
30522SOL    HW1 3290   2.945   7.292  11.913 -0.4661 -1.3093 -0.2604
30522SOL    HW2 3291   3.024   7.416  11.877 -0.4416 -0.5580  2.1834
30523SOL     OW 3292   4.340   3.904   1.349  0.0515  0.4502 -0.1146
30523SOL    HW1 3293   4.305   3.823   1.314  1.2577 -0.6391  1.0764
30523SOL    HW2 3294   4.263   3.956   1.374 -0.7254 -0.6657 -0.1502
30524SOL     OW 3295   5.539   3.204   1.164 -0.1150  0.3272 -0.5654
30524SOL    HW1 3296   5.592   3.284   1.168 -0.0078  0.2227  0.4136
30524SOL    HW2 3297   5.594   3.137   1.205 -1.2450  0.3706  1.1145
30525SOL     OW 3298   3.189   5.699   5.760 -0.1582 -0.5371  0.4313
30525SOL    HW1 3299   3.216   5.608   5.765  2.0113 -0.0598 -1.0883
30525SOL    HW2 3300   3.144   5.706   5.676 -1.0308 -0.3645  0.9057
30526SOL     OW 3301   4.383  11.497   5.404  0.4676  0.5218  0.1855
30526SOL    HW1 3302   4.386  11.574   5.461 -0.5708 -0.9395  2.3714
30526SOL    HW2 3303   4.312  11.516   5.343 -0.6981  0.8097  1.5647
30527SOL     OW 3304   3.864   4.876   2.817 -0.0952  0.2507 -0.1098
30527SOL    HW1 3305   3.800   4.805   2.818 -0.8893  0.9029  2.3747
30527SOL    HW2 3306   3.936   4.842   2.764 -0.7516 -2.1528  0.4172
30528SOL     OW 3307  10.474   9.959   8.829  0.5780 -0.6373 -0.0342
30528SOL    HW1 3308  10.449   9.962   8.921  1.6672  0.1240  0.2640
30528SOL    HW2 3309  10.561   9.999   8.826 -0.1424  1.0026 -1.6284
30529SOL     OW 3310   4.254   2.822   7.602 -0.1776 -0.5858  0.0475
30529SOL    HW1 3311   4.316   2.895   7.608  1.8873 -2.0407 -1.9416
30529SOL    HW2 3312   4.261   2.777   7.687 -1.6900  1.5390  1.4167
30530SOL     OW 3313   9.382   8.796   9.984  0.0001  0.4827 -0.0101
30530SOL    HW1 3314   9.303   8.789  10.038  0.2687  0.7488  0.4240
30530SOL    HW2 3315   9.354   8.771   9.896 -0.5455  0.4885  0.1622
30531SOL     OW 3316   9.861   4.475   7.084  0.7129  0.3087 -0.4083
30531SOL    HW1 3317   9.831   4.412   7.149  0.0314  0.1217 -0.8946
30531SOL    HW2 3318   9.794   4.474   7.016 -0.4020  3.0202  0.5030
30532SOL     OW 3319   9.265   7.985   5.216 -0.0521  0.2848  0.4564
30532SOL    HW1 3320   9.232   8.065   5.258 -0.8200  0.0747  0.2715
30532SOL    HW2 3321   9.246   7.998   5.123  0.6894  0.2936  0.3031
30533SOL     OW 3322   1.069   0.093   4.051  0.3271  0.2336  0.3046
30533SOL    HW1 3323   0.988   0.143   4.060  0.9493  1.2132  0.7864
30533SOL    HW2 3324   1.106   0.122   3.968  0.2356 -0.1346  0.1339
30534SOL     OW 3325   4.103   3.377  10.951 -0.5128  0.2761 -0.1383
30534SOL    HW1 3326   4.198   3.379  10.940 -0.3677 -0.5931  0.8859
30534SOL    HW2 3327   4.070   3.420  10.872  0.6525 -1.1007 -1.4377
30535SOL     OW 3328   8.880   3.346   9.335  0.1616  0.0301  0.3500
30535SOL    HW1 3329   8.791   3.370   9.311  0.7222  1.4779 -0.4015
30535SOL    HW2 3330   8.922   3.321   9.253  0.1839 -1.6596  0.8400
30536SOL     OW 3331   8.028   0.157  10.641  0.3907 -0.0753 -0.1618
30536SOL    HW1 3332   7.982   0.224  10.591  0.9133 -0.3976 -1.0835
30536SOL    HW2 3333   8.116   0.191  10.652  1.2679 -1.4387 -2.3767
30537SOL     OW 3334   2.482   8.512  10.638  0.3995  0.1022 -0.6409
30537SOL    HW1 3335   2.432   8.519  10.557  0.9451  1.6671 -0.8891
30537SOL    HW2 3336   2.505   8.603  10.660  0.2810 -0.2790  1.2626
30538SOL     OW 3337   5.634   1.938   4.673  0.0243 -0.5994 -0.2884
30538SOL    HW1 3338   5.718   1.983   4.660 -0.7618  0.6573 -1.3715
30538SOL    HW2 3339   5.594   1.982   4.748 -0.8417  0.7746 -1.4823
30539SOL     OW 3340   3.765   7.836   4.838  0.0384  0.2512  0.2724
30539SOL    HW1 3341   3.827   7.909   4.834 -0.0124  0.4003  1.6939
30539SOL    HW2 3342   3.765   7.800   4.749  1.2111  1.0290 -0.0734
30540SOL     OW 3343  10.863   1.659   5.673 -0.4767  0.2008  0.3817
30540SOL    HW1 3344  10.915   1.581   5.653 -0.7910  0.4297 -1.4874
30540SOL    HW2 3345  10.796   1.629   5.734  1.3719 -0.2548  2.3024
30541SOL     OW 3346   2.865   0.435   8.009  0.1802  0.2844  0.7500
30541SOL    HW1 3347   2.899   0.521   7.984 -1.0702  0.0739 -1.9905
30541SOL    HW2 3348   2.890   0.377   7.937  0.8820 -1.6804  2.4624
30542SOL     OW 3349   8.733  11.038   6.188 -0.1767  0.1018  0.0639
30542SOL    HW1 3350   8.695  11.015   6.273  1.1529  0.7425  0.8664
30542SOL    HW2 3351   8.723  11.133   6.183  2.2502  0.4688  0.8303
30543SOL     OW 3352   0.542   0.560   8.767  0.1230 -0.4656 -0.0536
30543SOL    HW1 3353   0.469   0.514   8.726 -0.1229 -2.0897  2.0300
30543SOL    HW2 3354   0.598   0.587   8.694 -1.1300 -1.7019 -1.5284
30544SOL     OW 3355   1.925  10.722   4.380  0.3834 -0.2262 -0.8261
30544SOL    HW1 3356   1.862  10.655   4.407 -0.7667  1.0796 -0.1052
30544SOL    HW2 3357   1.919  10.723   4.284  0.6227 -1.3346 -0.8592
30545SOL     OW 3358   5.829   9.884   5.265 -0.3105  0.2362  0.3883
30545SOL    HW1 3359   5.800   9.855   5.179 -0.2060 -1.7940  0.9755
30545SOL    HW2 3360   5.832   9.980   5.259 -1.4313  0.1981 -1.4780
30546SOL     OW 3361   9.840   6.016   4.951 -0.3260  0.5216 -0.1880
30546SOL    HW1 3362   9.884   5.969   5.022 -0.1744  1.6138  0.4738
30546SOL    HW2 3363   9.758   6.046   4.990 -1.2946 -0.7871 -1.1655
30547SOL     OW 3364   8.743   3.041   0.955  0.4164  0.1855 -0.9939
30547SOL    HW1 3365   8.655   3.056   0.921  0.2210 -1.0082 -1.0579
30547SOL    HW2 3366   8.729   3.003   1.041  0.8832  0.4434 -0.8000
30548SOL     OW 3367   2.552   8.520   8.399  0.3506  0.0112  0.3168
30548SOL    HW1 3368   2.459   8.538   8.393  0.4887  1.0776  1.0273
30548SOL    HW2 3369   2.592   8.605   8.422  1.4209 -0.5330  0.5592
30549SOL     OW 3370  11.343   3.225  11.712  0.7478 -0.1534  0.0275
30549SOL    HW1 3371  11.389   3.283  11.773  0.9180  0.1158 -0.3478
30549SOL    HW2 3372  11.409   3.205  11.645  0.2060  0.5589 -0.7310
30550SOL     OW 3373   9.304   1.550   4.586  0.0055  0.5502  0.2926
30550SOL    HW1 3374   9.332   1.464   4.556 -0.7369  0.7859 -1.1406
30550SOL    HW2 3375   9.371   1.576   4.650  1.9702  0.2460 -1.5348
30551SOL     OW 3376   9.571   7.387   0.579  0.6525  0.2841 -0.3449
30551SOL    HW1 3377   9.609   7.315   0.629  0.0495 -1.2933 -2.0209
30551SOL    HW2 3378   9.478   7.387   0.604  0.0495 -1.3903 -2.2979
30552SOL     OW 3379   5.983  11.934   3.629  0.2688  0.3101  0.4021
30552SOL    HW1 3380   5.961  11.999   3.696 -0.0413  0.9143 -0.2774
30552SOL    HW2 3381   5.935  11.856   3.656 -1.7718  1.2251 -0.3536
30553SOL     OW 3382   4.062   1.221   0.262  0.2901 -0.4127  0.1929
30553SOL    HW1 3383   4.077   1.209   0.169  0.0271  2.3712 -0.3077
30553SOL    HW2 3384   3.968   1.204   0.274  0.1721 -0.0421 -0.2051
30554SOL     OW 3385  11.171   2.966   2.464 -0.1538 -0.5032  0.0233
30554SOL    HW1 3386  11.162   3.060   2.450  0.2588 -0.3469  0.7120
30554SOL    HW2 3387  11.248   2.941   2.415 -0.8489 -0.6896 -1.0002
30555SOL     OW 3388   9.806   5.828   2.244  0.5565  0.0540  0.3199
30555SOL    HW1 3389   9.845   5.773   2.176  1.2156  0.7654  0.1098
30555SOL    HW2 3390   9.845   5.795   2.326  1.9105  0.9630  0.0868
30556SOL     OW 3391   2.531   4.101   5.260  0.6332  0.0289  0.5284
30556SOL    HW1 3392   2.509   4.180   5.309  0.2467  0.4733 -0.3316
30556SOL    HW2 3393   2.447   4.059   5.243  0.9222 -1.1583  1.9075
30557SOL     OW 3394   3.395   6.915   7.570 -0.0076 -0.4893 -0.5054
30557SOL    HW1 3395   3.417   6.884   7.658  1.2227 -0.0235 -0.6407
30557SOL    HW2 3396   3.479   6.928   7.526 -0.5907 -0.2816 -1.6079
30558SOL     OW 3397   5.605   3.076   4.043  0.3524 -1.1797  0.1501
30558SOL    HW1 3398   5.599   3.048   3.951 -2.5392 -1.1609  0.2325
30558SOL    HW2 3399   5.615   2.995   4.092 -0.1870 -1.4037 -0.0908
30559SOL     OW 3400   4.648   5.870   4.242 -1.0491  0.2257 -0.2454
30559SOL    HW1 3401   4.704   5.802   4.278 -1.8236  0.2215  1.0206
30559SOL    HW2 3402   4.617   5.835   4.159 -2.1372 -1.3879  0.7803
30560SOL     OW 3403   7.660   7.549  10.355  0.4305  0.3096  0.4109
30560SOL    HW1 3404   7.572   7.566  10.387  0.7229  2.0926  0.3512
30560SOL    HW2 3405   7.711   7.626  10.381  1.4445  0.3495 -1.4991
30561SOL     OW 3406   2.416   9.723  11.100 -0.0599 -0.0946  0.2430
30561SOL    HW1 3407   2.476   9.750  11.170  0.6060  0.1376 -0.3987
30561SOL    HW2 3408   2.348   9.791  11.099  0.1801  0.1514  0.3643
30562SOL     OW 3409   2.634   4.705   8.341 -0.0517  0.5797  0.2394
30562SOL    HW1 3410   2.701   4.637   8.333  0.2360  1.0575 -2.7147
30562SOL    HW2 3411   2.584   4.680   8.419  1.5924 -1.5648  0.7267
30563SOL     OW 3412  11.447   5.624   1.366  0.0236 -0.0527 -0.5479
30563SOL    HW1 3413  11.362   5.587   1.341  0.4066 -0.7567 -0.8190
30563SOL    HW2 3414  11.428   5.716   1.382 -0.9453 -0.3470  0.1275
30564SOL     OW 3415  10.794  10.951   1.321 -0.0579  0.6930  0.2259
30564SOL    HW1 3416  10.805  10.885   1.390 -2.7429  0.5888  0.6731
30564SOL    HW2 3417  10.841  11.027   1.354 -1.1654  0.6144  2.1985
30565SOL     OW 3418  11.678  11.907   1.399 -0.2235 -0.5821  0.0486
30565SOL    HW1 3419  11.605  11.951   1.355  0.2224  1.0311  0.8644
30565SOL    HW2 3420  11.734  11.877   1.327  0.1745  1.4398 -0.5380
30566SOL     OW 3421   7.390   9.220   5.331 -0.0262  0.0827  0.3297
30566SOL    HW1 3422   7.330   9.229   5.257 -2.8947  0.3578  2.5393
30566SOL    HW2 3423   7.456   9.157   5.301 -0.7792  0.5275 -2.5653
30567SOL     OW 3424   9.694   6.767   3.048 -0.1600  0.3280 -0.2755
30567SOL    HW1 3425   9.732   6.834   2.991 -0.4477 -1.3453 -2.5250
30567SOL    HW2 3426   9.770   6.721   3.085  0.0077  0.8032 -0.0018
30568SOL     OW 3427   3.798   8.615   9.178  0.5753 -0.0442 -0.7387
30568SOL    HW1 3428   3.839   8.665   9.249  0.3581 -1.6711  0.6182
30568SOL    HW2 3429   3.871   8.578   9.129  0.7339 -0.0651 -0.4883
30569SOL     OW 3430   9.932   2.383   2.076 -0.4015 -0.6466 -0.4111
30569SOL    HW1 3431  10.001   2.449   2.066  0.2060 -1.2649 -0.4194
30569SOL    HW2 3432   9.851   2.433   2.081 -0.0408  0.0583 -1.3211
30570SOL     OW 3433  10.450   9.878   7.917  0.4073  0.3987 -0.3805
30570SOL    HW1 3434  10.531   9.827   7.916 -0.1364 -0.5422  1.0493
30570SOL    HW2 3435  10.384   9.819   7.954 -0.2609  2.1168  1.3267
30571SOL     OW 3436   5.884   7.046  10.594 -0.2771 -0.0852  0.3366
30571SOL    HW1 3437   5.882   7.045  10.499  1.1939 -2.1083  0.2508
30571SOL    HW2 3438   5.818   6.982  10.620 -1.8923  1.6803  0.7970
30572SOL     OW 3439   5.162   2.682   2.641 -0.2768  0.2223 -0.2656
30572SOL    HW1 3440   5.224   2.613   2.665  0.1413  0.7158  0.0981
30572SOL    HW2 3441   5.100   2.685   2.713 -0.4874  0.0030 -0.4377
30573SOL     OW 3442   1.821   7.208   9.502  0.7594  0.3957  0.1285
30573SOL    HW1 3443   1.818   7.217   9.406  0.6482 -0.8733  0.0015
30573SOL    HW2 3444   1.754   7.269   9.533 -0.0067 -0.0019 -0.6778
30574SOL     OW 3445   8.726   6.124  11.353  0.0843  0.6895 -0.3719
30574SOL    HW1 3446   8.660   6.186  11.383 -1.3369  0.5984 -2.9960
30574SOL    HW2 3447   8.799   6.178  11.324  0.1753  0.9251  0.2723
30575SOL     OW 3448   4.181   8.846   1.835  0.3882  0.5437 -0.4489
30575SOL    HW1 3449   4.177   8.940   1.856  0.8051  0.8540 -1.6582
30575SOL    HW2 3450   4.089   8.818   1.837  0.1456  1.2396 -1.1172
30576SOL     OW 3451   0.256   7.892   6.577 -0.2176  0.5265  0.0227
30576SOL    HW1 3452   0.165   7.922   6.582  0.2306  1.8315  0.5418
30576SOL    HW2 3453   0.265   7.832   6.651 -0.4754  0.8933  0.3575
30577SOL     OW 3454   3.829   6.608   9.221  0.3025 -0.6548 -0.4042
30577SOL    HW1 3455   3.828   6.519   9.256 -1.4287  0.0551  1.5982
30577SOL    HW2 3456   3.790   6.600   9.133  0.6438 -1.9235 -0.4544
30578SOL     OW 3457   4.476   3.221  10.564  0.5238  0.1869  0.3505
30578SOL    HW1 3458   4.426   3.229  10.646 -0.6913  2.3166 -0.5222
30578SOL    HW2 3459   4.560   3.263  10.584 -0.7217  3.1576 -0.1366
30579SOL     OW 3460  10.515   4.953   7.525  0.2828  0.5579 -0.2487
30579SOL    HW1 3461  10.483   4.948   7.435  1.9411 -1.9987 -0.8271
30579SOL    HW2 3462  10.585   5.018   7.522  1.6293 -0.8707 -1.3482
30580SOL     OW 3463   5.493   9.225   9.681  0.2533  0.1414  0.8331
30580SOL    HW1 3464   5.554   9.286   9.640  0.1998  0.8989  1.8465
30580SOL    HW2 3465   5.542   9.144   9.692  0.0780 -0.3058 -1.2925
30581SOL     OW 3466   8.435   4.880   4.835  0.8301 -0.4216 -0.3355
30581SOL    HW1 3467   8.402   4.826   4.907  0.3030 -0.3716 -0.5297
30581SOL    HW2 3468   8.438   4.969   4.871 -0.4015 -0.2269 -0.6609
30582SOL     OW 3469   5.784   6.491   5.181 -0.2884  0.2258 -0.1452
30582SOL    HW1 3470   5.779   6.396   5.184  0.5866  0.2003  1.7067
30582SOL    HW2 3471   5.835   6.510   5.102  1.2333 -0.9438  0.5053
30583SOL     OW 3472   6.689  11.746  10.188 -0.2912 -0.4111  0.0419
30583SOL    HW1 3473   6.611  11.708  10.147  0.1173 -1.4119  0.1588
30583SOL    HW2 3474   6.672  11.739  10.282  0.8909 -2.8518  0.1615
30584SOL     OW 3475   8.899   1.883   1.037  0.0873  0.1689  0.4051
30584SOL    HW1 3476   8.942   1.908   0.955  2.3887  0.4103  1.6229
30584SOL    HW2 3477   8.808   1.910   1.025  0.8277  2.1983 -1.2569
30585SOL     OW 3478   3.249  11.418  11.609  0.1491  0.8482  0.1488
30585SOL    HW1 3479   3.325  11.359  11.614  1.5141  1.8531 -4.2294
30585SOL    HW2 3480   3.184  11.369  11.559 -0.5902  1.4199  0.5232
30586SOL     OW 3481   6.189   9.771   3.732 -0.7535  0.2233 -0.9608
30586SOL    HW1 3482   6.096   9.791   3.739 -0.7848 -0.0388 -0.5543
30586SOL    HW2 3483   6.227   9.845   3.685 -1.4678 -0.5675 -2.8457
30587SOL     OW 3484   0.646   3.260   1.329 -0.0197  0.2617  0.3306
30587SOL    HW1 3485   0.605   3.338   1.365  0.6514  0.4119  0.7903
30587SOL    HW2 3486   0.651   3.199   1.403  2.2816  0.9408  0.8013
30588SOL     OW 3487   4.681   9.392  10.451 -0.4856 -0.1545 -0.4986
30588SOL    HW1 3488   4.669   9.369  10.359 -1.0388 -0.5298 -0.3408
30588SOL    HW2 3489   4.734   9.471  10.450  0.9147 -1.0676 -1.0823
30589SOL     OW 3490   1.647   4.239   7.942 -0.6849  0.8932 -0.3226
30589SOL    HW1 3491   1.638   4.302   8.013 -1.3429 -0.7870  1.1749
30589SOL    HW2 3492   1.562   4.242   7.897 -0.7090  1.0854 -0.2651
30590SOL     OW 3493   8.549   4.468   9.809 -0.1309  0.2693  0.2345
30590SOL    HW1 3494   8.559   4.424   9.893 -2.1556  0.5003  0.6626
30590SOL    HW2 3495   8.627   4.522   9.800  1.1774 -1.4203  0.8944
30591SOL     OW 3496   9.617   9.638   6.549 -0.2719 -0.6974  0.0903
30591SOL    HW1 3497   9.535   9.605   6.512  0.1450  1.1827 -2.8482
30591SOL    HW2 3498   9.590   9.705   6.611 -0.9839 -0.4261 -0.4976
30592SOL     OW 3499   7.226   5.557   9.543  0.8393 -0.2293 -0.2573
30592SOL    HW1 3500   7.173   5.587   9.469 -0.3434 -0.7453  0.3365
30592SOL    HW2 3501   7.244   5.465   9.523 -0.1859 -0.6046  0.4518
30593SOL     OW 3502   8.525  11.515   6.005  0.3311 -0.0624 -0.2335
30593SOL    HW1 3503   8.611  11.519   5.963 -0.2987 -0.8604 -1.6401
30593SOL    HW2 3504   8.468  11.565   5.947 -0.3382 -0.2476  0.2616
30594SOL     OW 3505   3.171   3.191   6.170 -0.1357 -0.0862  0.2976
30594SOL    HW1 3506   3.245   3.239   6.134  0.3217 -0.5587  0.5810
30594SOL    HW2 3507   3.132   3.251   6.233 -1.3948  1.0286 -1.4742
30595SOL     OW 3508   1.408   4.534   8.262  0.1900  0.3876  0.5172
30595SOL    HW1 3509   1.337   4.558   8.202 -0.0682 -3.5159 -1.0308
30595SOL    HW2 3510   1.363   4.498   8.338  0.4417 -0.8611  0.0992
30596SOL     OW 3511   9.721   0.458   3.658 -0.0299 -0.3899  0.2753
30596SOL    HW1 3512   9.669   0.379   3.639  0.2095 -0.8164  1.3226
30596SOL    HW2 3513   9.669   0.505   3.723  0.0522  0.0806 -0.0004
30597SOL     OW 3514   3.296   4.601   1.141  0.0005 -1.1054  0.1424
30597SOL    HW1 3515   3.267   4.679   1.093 -0.3238 -0.8220  0.7845
30597SOL    HW2 3516   3.291   4.626   1.233  0.4824 -1.6887  0.3325
30598SOL     OW 3517  10.700  11.174   2.845  0.1519 -0.5019  0.1995
30598SOL    HW1 3518  10.727  11.201   2.933  1.9814  0.0699 -0.4842
30598SOL    HW2 3519  10.746  11.092   2.830 -0.4846 -0.8125 -0.0605
30599SOL     OW 3520   3.772  10.053   2.115 -0.4854  0.2461 -0.3794
30599SOL    HW1 3521   3.771  10.058   2.210 -1.4009  0.4273 -0.3890
30599SOL    HW2 3522   3.690  10.094   2.088 -0.1111  0.4267 -1.2590
30600SOL     OW 3523   6.344   0.206   0.215 -0.3455 -0.0588 -0.5300
30600SOL    HW1 3524   6.393   0.284   0.240  0.3339 -0.8157  0.6104
30600SOL    HW2 3525   6.405   0.156   0.161 -1.1073  0.6154 -2.0587
30601SOL     OW 3526   3.205  11.196   7.774  0.4292  0.1186 -0.2727
30601SOL    HW1 3527   3.156  11.243   7.842 -1.3960  0.6989 -1.8909
30601SOL    HW2 3528   3.292  11.185   7.811 -0.6796 -0.3375  2.4981
30602SOL     OW 3529   7.120  11.102   3.201  0.5028 -0.0943  0.1125
30602SOL    HW1 3530   7.166  11.186   3.190  1.9503 -0.9118 -0.3000
30602SOL    HW2 3531   7.187  11.042   3.235 -0.6458 -0.9649  0.9378
30603SOL     OW 3532  11.508   2.673   5.734 -0.2468 -0.3612 -0.1996
30603SOL    HW1 3533  11.433   2.621   5.703 -0.6616 -0.1363  0.4069
30603SOL    HW2 3534  11.468   2.750   5.774  0.2754 -0.6100  0.8229
30604SOL     OW 3535   8.435   1.605   5.655  0.4231 -0.1417  0.1665
30604SOL    HW1 3536   8.345   1.613   5.623  0.8903  0.8569 -0.9635
30604SOL    HW2 3537   8.442   1.514   5.684 -0.8365 -0.3331 -0.0739
30605SOL     OW 3538   5.641   3.244  11.533  0.1491 -0.4980  0.3800
30605SOL    HW1 3539   5.559   3.214  11.494 -0.1033 -0.3519  0.7962
30605SOL    HW2 3540   5.618   3.327  11.575  1.0192  0.8232 -1.5630
30606SOL     OW 3541  11.944   7.476   8.720  0.1302  0.1646  0.3674
30606SOL    HW1 3542  11.852   7.500   8.717  0.3140  0.8647  0.0660
30606SOL    HW2 3543  11.976   7.492   8.631  0.6875  0.5608  0.6280
30607SOL     OW 3544   4.784   9.019  11.412 -0.2765 -0.2601 -0.6675
30607SOL    HW1 3545   4.868   9.006  11.455 -1.2112 -0.7315  1.1018
30607SOL    HW2 3546   4.790   8.967  11.332  1.2951  0.1481 -0.8499
30608SOL     OW 3547   9.379   7.885   8.356 -0.0152  0.0596  0.2124
30608SOL    HW1 3548   9.450   7.903   8.294 -1.5833 -0.6298 -1.8943
30608SOL    HW2 3549   9.382   7.958   8.418  1.5266  0.8622 -0.7481
30609SOL     OW 3550   9.380   7.484   3.111  0.1054  0.6731  0.2608
30609SOL    HW1 3551   9.377   7.577   3.134  1.5819  0.9638 -0.5548
30609SOL    HW2 3552   9.391   7.438   3.194  0.7373  1.3461  0.5574
30610SOL     OW 3553  10.939   4.274   5.553 -0.4110  0.5021  0.1431
30610SOL    HW1 3554  10.942   4.252   5.460 -1.6493  0.4229  0.1025
30610SOL    HW2 3555  10.989   4.205   5.596  1.7973  1.5441 -0.5898
30611SOL     OW 3556   7.196   8.644   2.923 -0.5062  0.4075 -0.4659
30611SOL    HW1 3557   7.247   8.693   2.858  1.4583  0.5998  1.1295
30611SOL    HW2 3558   7.161   8.710   2.982 -0.7265  0.1177 -0.2650
30612SOL     OW 3559   2.666   1.330   6.116 -0.2600 -0.2855 -0.3630
30612SOL    HW1 3560   2.647   1.418   6.150  0.8323  0.8274 -2.4840
30612SOL    HW2 3561   2.642   1.271   6.188 -0.1328  1.7849  1.4707
30613SOL     OW 3562   3.870   9.315  10.206  0.0028 -0.3296 -0.2607
30613SOL    HW1 3563   3.837   9.384  10.264 -1.3610 -2.0599  1.0892
30613SOL    HW2 3564   3.933   9.267  10.259  0.1588 -0.7816 -0.8422
30614SOL     OW 3565   2.258   4.825  10.327  0.2781 -0.2564 -0.6889
30614SOL    HW1 3566   2.329   4.761  10.328  0.2382 -0.3999 -2.7535
30614SOL    HW2 3567   2.245   4.845  10.234 -0.8209  1.5218 -0.2028
30615SOL     OW 3568   9.455  11.715   9.566  0.2088 -0.2990 -0.0875
30615SOL    HW1 3569   9.382  11.755   9.615 -1.1209 -1.5659 -0.9356
30615SOL    HW2 3570   9.510  11.675   9.634  0.1701  0.7630  0.5818
30616SOL     OW 3571   5.847  11.417   4.658  0.7296  0.4043 -0.3711
30616SOL    HW1 3572   5.754  11.396   4.644  0.9390  0.0046 -1.2736
30616SOL    HW2 3573   5.852  11.448   4.748 -0.1324 -0.4315 -0.0172
30617SOL     OW 3574   3.787   8.441   8.047  0.0684 -0.0394  0.6230
30617SOL    HW1 3575   3.704   8.400   8.074 -0.1217 -0.0096  0.1025
30617SOL    HW2 3576   3.776   8.533   8.068 -0.9308  0.3811 -1.4587
30618SOL     OW 3577   4.509   8.636   9.483 -0.4905 -0.0756 -0.8554
30618SOL    HW1 3578   4.557   8.618   9.564 -1.0370 -1.3736 -0.7851
30618SOL    HW2 3579   4.445   8.565   9.477 -2.4005  1.5697 -0.9520
30619SOL     OW 3580  10.195   7.602   7.396  0.3477 -0.2829  0.0159
30619SOL    HW1 3581  10.124   7.547   7.365  0.0631  1.7778 -3.6290
30619SOL    HW2 3582  10.169   7.627   7.485 -1.9338 -1.9861 -0.0762
30620SOL     OW 3583   6.303   1.934   5.958  0.2422 -0.2341  0.0901
30620SOL    HW1 3584   6.380   1.954   5.905  1.7903 -2.1643  1.4267
30620SOL    HW2 3585   6.232   1.983   5.917  1.5550 -0.6602 -2.9870
30621SOL     OW 3586   4.217   7.385   2.500  0.1587 -0.5088  0.0116
30621SOL    HW1 3587   4.253   7.369   2.587 -0.8745 -0.2818  0.4895
30621SOL    HW2 3588   4.252   7.470   2.475  2.1327 -1.4650 -0.6959
30622SOL     OW 3589   6.246   9.232   2.778  0.0506 -0.6423  0.2743
30622SOL    HW1 3590   6.277   9.200   2.862 -0.4246 -0.7214  0.4197
30622SOL    HW2 3591   6.324   9.230   2.722  0.4699 -0.1657  0.8295
30623SOL     OW 3592   9.679   9.082   5.081  0.2039  0.7585  0.1582
30623SOL    HW1 3593   9.729   9.074   4.999  0.7332  1.5971  0.3889
30623SOL    HW2 3594   9.608   9.018   5.071  1.5380 -0.7697 -0.0094
30624SOL     OW 3595   3.528   8.010   5.800 -0.1904 -0.0851 -0.4981
30624SOL    HW1 3596   3.502   7.999   5.892 -1.3821  0.9139 -0.7018
30624SOL    HW2 3597   3.615   8.050   5.805  0.9659 -2.4877  0.1780
30625SOL     OW 3598   4.727   7.532   9.854  0.0012  0.0533 -0.0219
30625SOL    HW1 3599   4.664   7.546   9.782  0.4544 -1.8379 -0.8514
30625SOL    HW2 3600   4.779   7.457   9.825  0.7737 -0.2039  1.9254
30626SOL     OW 3601   8.351   3.675   0.618  0.3957 -0.6861 -0.2343
30626SOL    HW1 3602   8.273   3.721   0.588  0.0756 -1.4308 -0.5639
30626SOL    HW2 3603   8.385   3.631   0.539  0.6347 -1.0922  0.0887
30627SOL     OW 3604   6.628   0.034   3.973 -0.3501  0.1067  0.4957
30627SOL    HW1 3605   6.549   0.004   4.020 -0.7242 -0.5228 -0.4953
30627SOL    HW2 3606   6.604   0.029   3.881  0.8451 -0.0542  0.1768
30628SOL     OW 3607   4.158  10.281   9.759  0.1692  0.5580  0.7253
30628SOL    HW1 3608   4.147  10.311   9.849  0.2749 -1.0526  1.3196
30628SOL    HW2 3609   4.203  10.197   9.768 -0.6869 -0.0993 -0.7593
30629SOL     OW 3610   5.582   0.842  10.940  0.2260  0.1922 -0.0546
30629SOL    HW1 3611   5.644   0.905  10.976 -1.1987 -0.1625  3.3586
30629SOL    HW2 3612   5.496   0.876  10.966 -0.8230 -1.1341 -1.6124
30630SOL     OW 3613   1.694   7.350   8.628 -0.0083  0.0320 -0.3115
30630SOL    HW1 3614   1.641   7.308   8.695  0.0163  0.7637  0.1773
30630SOL    HW2 3615   1.697   7.442   8.654  0.0887  0.3097 -1.2572
30631SOL     OW 3616   2.818   9.462   8.634 -0.3410  0.1532  0.5253
30631SOL    HW1 3617   2.865   9.378   8.634 -0.8744 -0.1531 -0.1300
30631SOL    HW2 3618   2.851   9.507   8.557  1.1057  1.2334  1.7084
30632SOL     OW 3619   8.921   8.631   9.507  0.2053  0.3776 -0.6337
30632SOL    HW1 3620   8.938   8.614   9.600 -2.9317  1.7099  0.3166
30632SOL    HW2 3621   8.974   8.566   9.461 -0.1685 -2.1612  2.1928
30633SOL     OW 3622  11.074   3.194  11.647 -0.1363 -0.2535 -0.6015
30633SOL    HW1 3623  11.157   3.237  11.669 -0.4869 -0.6118  1.6691
30633SOL    HW2 3624  11.018   3.210  11.723 -1.4273 -1.8759 -1.1552
30634SOL     OW 3625   5.846   8.821   7.774 -0.3640  0.5347  0.4181
30634SOL    HW1 3626   5.914   8.888   7.779 -0.9514  1.2963 -1.2342
30634SOL    HW2 3627   5.893   8.738   7.784  0.4683  1.1340  1.7039
30635SOL     OW 3628   9.228   8.309   8.615 -0.3834 -0.2756  0.4991
30635SOL    HW1 3629   9.227   8.395   8.656 -1.7944 -0.7136  1.4701
30635SOL    HW2 3630   9.218   8.326   8.521 -0.0251  0.6208  0.6162
30636SOL     OW 3631   9.061   0.361   9.919 -0.0789  0.0315  0.1338
30636SOL    HW1 3632   9.064   0.413   9.999 -0.5558 -0.9834  0.8425
30636SOL    HW2 3633   8.969   0.336   9.911  0.1773 -0.8802 -0.0564
30637SOL     OW 3634   8.950   7.461   8.075 -0.6785 -0.3430  0.6533
30637SOL    HW1 3635   9.017   7.493   8.015  0.4335 -1.7237  1.1007
30637SOL    HW2 3636   8.996   7.449   8.159 -1.5299 -1.0676  1.0414
30638SOL     OW 3637  10.157   7.209   0.783 -0.4449  0.7380  0.0841
30638SOL    HW1 3638  10.228   7.234   0.842 -1.9162  2.0085  1.4111
30638SOL    HW2 3639  10.085   7.268   0.806 -1.3111  0.8534 -2.5631
30639SOL     OW 3640   3.592   8.748   1.424  0.2912  0.3585 -0.0893
30639SOL    HW1 3641   3.501   8.734   1.448  0.1034  0.6138 -0.6557
30639SOL    HW2 3642   3.627   8.660   1.410  0.0788  0.2740 -0.0824
30640SOL     OW 3643  10.968   6.165   6.462 -0.2503  0.0839  0.1927
30640SOL    HW1 3644  10.982   6.243   6.408 -1.1758  0.2842  0.2233
30640SOL    HW2 3645  10.982   6.092   6.402 -0.1751  0.2914 -0.0456
30641SOL     OW 3646   5.044  10.501   2.906  0.2792  0.1788  0.1370
30641SOL    HW1 3647   4.956  10.490   2.943  0.6261  2.4153  1.8529
30641SOL    HW2 3648   5.047  10.592   2.877  1.6961 -0.1612 -0.8898
30642SOL     OW 3649  11.236   2.905   0.230 -0.3140  0.1505  0.5021
30642SOL    HW1 3650  11.264   2.952   0.151  0.8446  0.2265  0.9405
30642SOL    HW2 3651  11.173   2.841   0.198  0.8556 -0.4878 -0.6475
30643SOL     OW 3652   1.888  11.750   9.035 -0.7688  0.2677 -0.1832
30643SOL    HW1 3653   1.891  11.680   8.970 -2.1316 -0.0830  0.0998
30643SOL    HW2 3654   1.959  11.730   9.096 -1.0440 -0.8027 -0.1890
30644SOL     OW 3655   6.306  11.147   8.910  0.2319 -0.1224  0.4676
30644SOL    HW1 3656   6.270  11.133   8.997  1.4884  1.7544  1.3412
30644SOL    HW2 3657   6.237  11.193   8.862 -0.4025 -1.0274  0.4862
30645SOL     OW 3658   6.281   3.472   4.144 -0.1673  0.7424  0.2086
30645SOL    HW1 3659   6.371   3.444   4.129 -0.3509  0.7006 -0.9047
30645SOL    HW2 3660   6.237   3.394   4.180 -0.2377  0.1188 -1.1695
30646SOL     OW 3661   9.595   3.623   8.850  0.4864  0.0363  0.2765
30646SOL    HW1 3662   9.631   3.698   8.897  1.3493 -1.2900  1.8580
30646SOL    HW2 3663   9.667   3.591   8.796  0.4756 -0.2903  0.4498
30647SOL     OW 3664   6.319   5.354   8.948 -0.0393 -0.0461 -0.1612
30647SOL    HW1 3665   6.403   5.311   8.931 -0.4105 -0.3711 -1.2923
30647SOL    HW2 3666   6.296   5.395   8.864  0.8710  3.4651  1.1412
30648SOL     OW 3667   6.757   4.714   9.047 -0.1107  0.1347  0.1649
30648SOL    HW1 3668   6.733   4.672   8.964 -0.9840  1.4804 -0.2897
30648SOL    HW2 3669   6.721   4.655   9.114  1.3868 -1.4453 -0.3334
30649SOL     OW 3670   7.399   1.901   1.669 -0.1996  0.2080 -0.5769
30649SOL    HW1 3671   7.338   1.958   1.718  1.1505  0.7145  0.5874
30649SOL    HW2 3672   7.361   1.814   1.675 -0.4942  0.4101  0.6785
30650SOL     OW 3673   2.676   4.716  11.591 -0.3249  0.1535 -0.2199
30650SOL    HW1 3674   2.669   4.636  11.539 -1.6173 -0.8354  1.3364
30650SOL    HW2 3675   2.592   4.761  11.578 -0.6197 -0.0477  0.8406
30651SOL     OW 3676   0.735   2.332   6.057 -0.0654  0.0293 -0.1365
30651SOL    HW1 3677   0.724   2.239   6.077  1.3038 -0.3546 -0.9984
30651SOL    HW2 3678   0.653   2.372   6.084 -0.9049 -1.5212 -0.2524
30652SOL     OW 3679   2.570  11.735   2.960  0.1978  0.8520 -0.1903
30652SOL    HW1 3680   2.497  11.703   3.014  1.6323 -2.1157  0.2070
30652SOL    HW2 3681   2.528  11.777   2.885 -1.9217 -0.2721  0.2889
30653SOL     OW 3682  10.023   1.189   6.893 -0.9947  0.1386 -0.1770
30653SOL    HW1 3683  10.014   1.224   6.982 -2.0697 -2.0301  0.6318
30653SOL    HW2 3684   9.934   1.186   6.859 -0.4385  2.8968 -2.2166
30654SOL     OW 3685   2.885   8.653   3.688 -0.4618  0.1739 -0.4528
30654SOL    HW1 3686   2.899   8.708   3.766 -0.0450  0.2595 -0.5857
30654SOL    HW2 3687   2.804   8.686   3.650 -0.8320 -0.0615  0.1064
30655SOL     OW 3688   1.501  10.194   0.734 -0.1222 -0.2021  0.5509
30655SOL    HW1 3689   1.584  10.189   0.685 -0.1286 -2.5404  0.6673
30655SOL    HW2 3690   1.467  10.105   0.732 -2.3793  0.5878  1.0222
30656SOL     OW 3691   3.798   9.632   0.963  0.0293  0.5484  0.1420
30656SOL    HW1 3692   3.719   9.626   1.017 -1.4185  0.0987 -1.9055
30656SOL    HW2 3693   3.818   9.725   0.961 -1.5219  0.9077 -0.7024
30657SOL     OW 3694   5.608  10.111   2.370  0.0638 -0.2945 -0.4742
30657SOL    HW1 3695   5.556  10.191   2.366  0.3203  0.0871  1.9996
30657SOL    HW2 3696   5.694  10.137   2.335  0.1064  0.5086  0.1852
30658SOL     OW 3697   3.027   6.239   7.439 -0.0043  0.7430  0.1053
30658SOL    HW1 3698   2.965   6.182   7.394 -1.6862  3.3242 -1.1243
30658SOL    HW2 3699   3.076   6.181   7.497 -1.6740 -1.8576 -0.9091
30659SOL     OW 3700   7.342   7.239  11.743  0.2849 -0.1063 -0.4373
30659SOL    HW1 3701   7.297   7.207  11.665  0.1728 -0.2595 -0.3105
30659SOL    HW2 3702   7.290   7.313  11.772 -0.7323 -1.1646  0.5500
30660SOL     OW 3703   0.329   0.103   7.126 -0.2771 -0.4409 -0.3162
30660SOL    HW1 3704   0.353   0.088   7.218  0.5671  1.1070 -0.2443
30660SOL    HW2 3705   0.392   0.168   7.095 -1.1909 -0.1589 -1.6922
30661SOL     OW 3706   0.663   5.836   5.376  0.6607  0.2072 -0.1036
30661SOL    HW1 3707   0.753   5.847   5.346  0.0836  0.0267 -2.0442
30661SOL    HW2 3708   0.620   5.919   5.354  0.4717  0.5509  1.4111
30662SOL     OW 3709   0.502   3.059   2.982 -0.0779  0.2593  0.2196
30662SOL    HW1 3710   0.498   3.047   3.077 -2.2361 -1.4244  0.0027
30662SOL    HW2 3711   0.419   3.101   2.960 -0.2528 -0.7106 -1.0579
30663SOL     OW 3712   7.687   5.575   5.152  0.0794  0.3206 -0.1223
30663SOL    HW1 3713   7.691   5.577   5.248 -2.8008  1.2898  0.0606
30663SOL    HW2 3714   7.623   5.506   5.132 -1.1630  1.7438 -1.2213
30664SOL     OW 3715   5.353   8.220  10.964 -0.4718 -0.0770  0.2302
30664SOL    HW1 3716   5.414   8.206  10.892 -0.5495  0.6562  0.0073
30664SOL    HW2 3717   5.387   8.297  11.010 -2.5940  2.0209 -1.4453
30665SOL     OW 3718   5.368   5.966   2.599  0.5392  0.2503  0.2912
30665SOL    HW1 3719   5.360   6.039   2.660  0.1952  0.2363  0.2641
30665SOL    HW2 3720   5.456   5.975   2.561  0.1148  1.2621 -0.5001
30666SOL     OW 3721   5.478   0.956   7.175  0.4869 -0.8374  0.0498
30666SOL    HW1 3722   5.514   0.980   7.260 -0.3448  1.4708 -0.1953
30666SOL    HW2 3723   5.383   0.963   7.186  0.3858  0.0771 -1.2157
30667SOL     OW 3724   6.967   9.542  11.021  0.3756  0.3531 -0.2508
30667SOL    HW1 3725   7.017   9.546  11.103  0.1322  0.5531 -0.1100
30667SOL    HW2 3726   6.922   9.626  11.016 -1.0779 -0.3366  0.3634
30668SOL     OW 3727   6.578   3.548   7.901 -0.1082  0.2517 -0.4535
30668SOL    HW1 3728   6.505   3.570   7.959  0.2387  1.3066 -0.3819
30668SOL    HW2 3729   6.550   3.580   7.815 -2.0540 -4.1767 -1.7723
30669SOL     OW 3730   8.954   0.068  10.481 -0.0136  0.2813  0.0147
30669SOL    HW1 3731   8.916   0.155  10.472 -1.8753 -0.4661  0.2125
30669SOL    HW2 3732   9.034   0.072  10.429 -0.3312  1.9411 -0.4153
30670SOL     OW 3733  11.246   2.290   2.612  0.9330 -0.1300  0.1608
30670SOL    HW1 3734  11.153   2.276   2.633  0.6128  1.6073  0.0418
30670SOL    HW2 3735  11.275   2.206   2.577 -0.2815 -1.0558  1.2850
30671SOL     OW 3736   9.473   4.217   3.012 -0.3903  0.3588  0.1738
30671SOL    HW1 3737   9.534   4.285   3.041 -0.9317 -0.4534  3.5963
30671SOL    HW2 3738   9.395   4.231   3.064 -1.9020 -0.7509 -1.6593
30672SOL     OW 3739   4.983   7.623  11.660  0.0842 -0.2136  0.1139
30672SOL    HW1 3740   5.059   7.664  11.621 -0.0698  0.6090  0.6475
30672SOL    HW2 3741   4.908   7.656  11.610 -0.0113 -0.1109  0.3207
30673SOL     OW 3742   8.723   3.788  11.020  0.1433 -0.1446  0.3023
30673SOL    HW1 3743   8.672   3.811  11.097 -1.5807  1.2502 -1.1607
30673SOL    HW2 3744   8.788   3.858  11.013 -0.9456  0.8409 -0.5178
30674SOL     OW 3745   7.411  10.646   7.676  0.3954  0.5413  0.0920
30674SOL    HW1 3746   7.421  10.605   7.590 -1.3076 -0.3703  0.2671
30674SOL    HW2 3747   7.472  10.599   7.733 -0.7636 -1.1013  0.0532
30675SOL     OW 3748   8.594   2.006   8.840 -0.6610  0.1029  0.6320
30675SOL    HW1 3749   8.549   2.043   8.765 -0.3746  0.9368  0.8604
30675SOL    HW2 3750   8.684   2.039   8.834 -0.6281  0.1672  1.3225
30676SOL     OW 3751   5.660   0.330  10.571 -0.3231 -0.1317 -0.2199
30676SOL    HW1 3752   5.600   0.337  10.496  0.1971 -0.6193 -0.6876
30676SOL    HW2 3753   5.603   0.324  10.647 -0.8639  1.0230 -0.5112
30677SOL     OW 3754  10.221  10.794   7.789 -0.7018 -0.8837 -0.3605
30677SOL    HW1 3755  10.203  10.867   7.847 -0.4690 -0.5251 -0.7340
30677SOL    HW2 3756  10.264  10.729   7.844 -1.0725 -0.8141  0.0132
30678SOL     OW 3757   3.601   7.065   1.987  0.2974 -0.1949 -0.2085
30678SOL    HW1 3758   3.559   6.994   1.939 -0.6781  0.5780 -0.5294
30678SOL    HW2 3759   3.531   7.103   2.039  1.2274 -0.7150  1.5003
30679SOL     OW 3760  11.498   1.530   2.046  0.3999  0.7055 -0.3389
30679SOL    HW1 3761  11.543   1.558   2.126 -1.0896  0.7736  0.5033
30679SOL    HW2 3762  11.448   1.607   2.018 -0.5793  0.1142 -0.2549
30680SOL     OW 3763   1.726   1.517  10.792  0.3874 -0.2346 -0.0386
30680SOL    HW1 3764   1.657   1.522  10.859 -0.2632  0.1062 -0.7287
30680SOL    HW2 3765   1.726   1.603  10.751 -0.6125 -1.0383 -1.8312
30681SOL     OW 3766   5.932   9.977   1.033 -0.1209  0.1638  0.6730
30681SOL    HW1 3767   5.856  10.032   1.056 -0.0343  0.2178  0.8330
30681SOL    HW2 3768   5.933   9.909   1.101 -1.0159 -0.8236 -0.2736
30682SOL     OW 3769   1.337  11.767   5.132  0.7089 -0.3520  0.4058
30682SOL    HW1 3770   1.274  11.815   5.186  1.8909  1.2926  0.3917
30682SOL    HW2 3771   1.391  11.718   5.195  1.1040  0.3487  0.6191
30683SOL     OW 3772   0.984   0.602   4.328  0.3524 -0.1654  0.4819
30683SOL    HW1 3773   0.962   0.567   4.242 -0.9239 -0.9609  1.1070
30683SOL    HW2 3774   1.073   0.571   4.344 -0.0900 -1.6112  0.2460
30684SOL     OW 3775   4.636  11.728   2.439  0.0068 -0.2464 -0.1271
30684SOL    HW1 3776   4.612  11.659   2.501  2.6200 -2.0013 -0.9190
30684SOL    HW2 3777   4.570  11.723   2.370 -1.3674 -0.0913  1.1262
30685SOL     OW 3778   6.896   2.788   8.942  0.0227 -0.1806  0.3827
30685SOL    HW1 3779   6.916   2.818   8.853  1.5569  0.7312  1.0042
30685SOL    HW2 3780   6.905   2.693   8.938 -1.3485 -0.2950 -0.7610
30686SOL     OW 3781   4.982   7.160   1.776  0.8797 -0.2936 -0.2040
30686SOL    HW1 3782   4.978   7.195   1.687  1.3604 -1.1940 -0.5872
30686SOL    HW2 3783   4.898   7.115   1.787  0.7220  0.0152 -0.1052
30687SOL     OW 3784   5.054  10.766   2.786  0.3805  0.0634 -0.1370
30687SOL    HW1 3785   5.063  10.789   2.693 -1.6130 -0.6368 -0.5668
30687SOL    HW2 3786   5.002  10.837   2.823  0.5227 -0.0351  0.2518
30688SOL     OW 3787   6.007   4.968   4.091 -0.2999 -0.0748  0.5023
30688SOL    HW1 3788   5.952   4.890   4.084  1.4734 -1.3702  0.5192
30688SOL    HW2 3789   5.946   5.037   4.119 -1.6130 -1.7983  2.1999
30689SOL     OW 3790   3.324   5.363   0.771  0.1753  0.3154  0.4767
30689SOL    HW1 3791   3.305   5.399   0.684  0.1300  0.9247  0.7293
30689SOL    HW2 3792   3.252   5.303   0.788 -0.1477  0.6633  0.3520
30690SOL     OW 3793   1.302   5.426   2.749  0.0801  0.1164  0.0186
30690SOL    HW1 3794   1.239   5.456   2.814  0.6415  1.1435  0.1093
30690SOL    HW2 3795   1.371   5.383   2.799  0.3758  0.6671  0.1022
30691SOL     OW 3796  10.204  10.933  10.642  0.2840 -0.3488  0.2211
30691SOL    HW1 3797  10.191  10.895  10.729 -0.4161 -2.7195 -0.8414
30691SOL    HW2 3798  10.123  10.913  10.595  0.0194  2.2225 -0.5835
30692SOL     OW 3799   5.570   6.934   2.657 -0.1700 -0.0120 -0.4465
30692SOL    HW1 3800   5.548   7.005   2.718  0.4340 -1.3438  1.4236
30692SOL    HW2 3801   5.610   6.978   2.582  2.2905  1.5287  1.6104
30693SOL     OW 3802   2.717   7.290   1.425 -0.2113 -0.0480  0.6778
30693SOL    HW1 3803   2.756   7.330   1.503  1.6972 -0.4133 -0.0283
30693SOL    HW2 3804   2.685   7.363   1.373 -0.7557  0.2461  1.4096
30694SOL     OW 3805  10.294  10.573   7.143  0.1531  0.3130  0.4720
30694SOL    HW1 3806  10.231  10.645   7.145  1.4190  1.4505  1.3418
30694SOL    HW2 3807  10.245  10.498   7.177 -1.3559  0.5826 -0.9871
30695SOL     OW 3808   7.418   2.418   3.614 -0.5469  0.1217  0.0903
30695SOL    HW1 3809   7.338   2.377   3.582 -0.7625  2.0113 -1.9918
30695SOL    HW2 3810   7.390   2.502   3.651  0.4482  0.8735 -0.7917
30696SOL     OW 3811   8.895   4.913   3.502 -0.2919  0.1920 -0.0983
30696SOL    HW1 3812   8.913   4.820   3.490  1.6268  0.5132 -0.0498
30696SOL    HW2 3813   8.870   4.921   3.594 -0.9837 -0.3375 -0.2343
30697SOL     OW 3814   4.533   4.828  11.450  0.2887  0.6660  0.0407
30697SOL    HW1 3815   4.588   4.891  11.497  1.5181  0.2010 -0.7374
30697SOL    HW2 3816   4.490   4.879  11.382  0.5847  0.8423 -0.0165
30698SOL     OW 3817   0.964   3.285  11.182 -0.9383 -0.0832 -0.1570
30698SOL    HW1 3818   1.009   3.276  11.266  1.1245 -0.4351 -1.2315
30698SOL    HW2 3819   0.967   3.379  11.163  0.4504 -0.2251 -0.7555
30699SOL     OW 3820   4.214  10.459   4.139 -0.4185 -0.0900  0.0705
30699SOL    HW1 3821   4.284  10.465   4.073 -1.2041 -0.3320 -0.8154
30699SOL    HW2 3822   4.260  10.448   4.222  0.6002 -1.5239 -0.6315
30700SOL     OW 3823   0.959   2.217  10.381 -0.2007 -0.4670 -0.4033
30700SOL    HW1 3824   0.883   2.273  10.397  0.7805  0.6435  0.4625
30700SOL    HW2 3825   0.921   2.137  10.342 -1.7227  0.3538 -0.6971
30701SOL     OW 3826   8.847  11.919   2.662 -0.2298 -0.4239 -0.2747
30701SOL    HW1 3827   8.776  11.964   2.615  0.5976  0.3233 -0.8618
30701SOL    HW2 3828   8.807  11.839   2.696 -2.1587  1.3927  2.0683
30702SOL     OW 3829   1.878   1.356   4.402 -0.1319  0.0307 -0.1050
30702SOL    HW1 3830   1.970   1.345   4.426  0.2635 -0.0540 -1.5615
30702SOL    HW2 3831   1.849   1.433   4.450  0.8478  0.3642 -0.0429
30703SOL     OW 3832   7.215  11.696   3.618  0.8554 -0.2108 -0.3061
30703SOL    HW1 3833   7.272  11.769   3.641  2.2104 -0.7581 -1.6789
30703SOL    HW2 3834   7.147  11.735   3.562  1.0296  0.1425 -0.2746
30704SOL     OW 3835   7.811   7.738  11.267  0.3860 -0.6099  0.1559
30704SOL    HW1 3836   7.734   7.692  11.234 -0.2973  0.0786  0.7572
30704SOL    HW2 3837   7.792   7.831  11.249  1.2292 -0.4595  0.0030
30705SOL     OW 3838   1.911   4.956  10.071  0.2514  0.2629  0.2486
30705SOL    HW1 3839   1.896   4.867  10.102 -0.7147 -0.1836 -1.3381
30705SOL    HW2 3840   1.930   4.945   9.978 -0.1856  1.7277 -0.0402
30706SOL     OW 3841   3.073   4.774   8.270 -0.4361  0.5611 -0.1645
30706SOL    HW1 3842   3.088   4.680   8.263  1.5575  0.8494 -0.6309
30706SOL    HW2 3843   3.161   4.812   8.263 -1.1018  2.4150  0.8101
30707SOL     OW 3844   3.350  10.730   9.909  0.4749 -0.0721 -0.0298
30707SOL    HW1 3845   3.322  10.808   9.861  1.8611  1.8707  2.1311
30707SOL    HW2 3846   3.306  10.736   9.993  1.1697 -1.2560  0.4414
30708SOL     OW 3847   8.974   5.323   7.096  0.1250  0.0036  0.7555
30708SOL    HW1 3848   9.008   5.348   7.182 -1.2691  1.7162  0.8823
30708SOL    HW2 3849   9.023   5.245   7.072  0.4116 -0.6457  3.1931
30709SOL     OW 3850  11.482   3.821   4.425 -0.1509  0.2256 -0.0851
30709SOL    HW1 3851  11.560   3.768   4.447 -0.5127  0.4070  1.7863
30709SOL    HW2 3852  11.409   3.770   4.459 -0.7202  0.8054 -0.4268
30710SOL     OW 3853   8.265  11.461  11.074  0.0860  0.6841  0.0916
30710SOL    HW1 3854   8.301  11.399  11.137  1.9599  0.9899 -0.6209
30710SOL    HW2 3855   8.276  11.547  11.114  2.3115  0.9831 -1.0435
30711SOL     OW 3856  10.739   7.778   1.650  0.3521 -0.2206 -0.0234
30711SOL    HW1 3857  10.724   7.701   1.705 -1.0621  0.3189  0.4011
30711SOL    HW2 3858  10.677   7.768   1.577 -0.3916  0.8455  0.4261
30712SOL     OW 3859  11.489   9.742   2.397  0.6686 -0.1317  0.4758
30712SOL    HW1 3860  11.468   9.650   2.385 -0.6772 -0.0557  1.8512
30712SOL    HW2 3861  11.578   9.752   2.363  0.5760 -1.7745 -0.3142
30713SOL     OW 3862   3.818  11.254   8.337  0.0324 -0.2074  0.0382
30713SOL    HW1 3863   3.829  11.331   8.393  0.2068 -0.7662  0.7878
30713SOL    HW2 3864   3.792  11.290   8.252  2.0390  0.8197 -0.1936
30714SOL     OW 3865   0.998   4.483   1.474 -0.9313 -0.2705  0.2339
30714SOL    HW1 3866   0.971   4.559   1.526  1.0078  1.0760 -0.6249
30714SOL    HW2 3867   1.080   4.455   1.514 -1.0683 -1.2238 -0.1499
30715SOL     OW 3868   3.376   3.967   0.654  0.3138  0.1548  0.2864
30715SOL    HW1 3869   3.455   4.021   0.652 -0.6994  1.9060 -3.9458
30715SOL    HW2 3870   3.305   4.028   0.674 -0.4944 -0.1739 -1.3862
30716SOL     OW 3871   5.523  11.468   3.281  0.3435  0.0910 -0.0894
30716SOL    HW1 3872   5.461  11.399   3.263  0.1126  0.4847 -0.8230
30716SOL    HW2 3873   5.589  11.427   3.338  0.4265 -0.8301 -0.8326
30717SOL     OW 3874   5.279   2.741   8.173  0.0684 -0.2164 -0.4168
30717SOL    HW1 3875   5.296   2.807   8.240  0.8446  0.1510 -0.9609
30717SOL    HW2 3876   5.184   2.739   8.164  0.0028  0.2970  0.1245
30718SOL     OW 3877   2.853   0.183   1.366 -0.6427 -0.0182  0.5689
30718SOL    HW1 3878   2.900   0.122   1.309 -0.6750 -0.7429  1.2889
30718SOL    HW2 3879   2.764   0.185   1.330 -0.8298 -0.9625  0.9472
30719SOL     OW 3880   6.148  11.661   1.925 -0.5477 -0.5453 -0.0435
30719SOL    HW1 3881   6.193  11.723   1.982 -1.3621  0.4474 -0.4460
30719SOL    HW2 3882   6.173  11.575   1.957 -1.3042 -0.0276  2.0592
30720SOL     OW 3883  10.599  10.440  10.677  0.1156  0.0597  0.5033
30720SOL    HW1 3884  10.688  10.473  10.664  0.5173 -0.2419  2.2468
30720SOL    HW2 3885  10.548  10.517  10.699  0.7461 -0.1954  3.1172
30721SOL     OW 3886  11.801   6.423   0.914 -0.5954  0.3171 -0.1190
30721SOL    HW1 3887  11.867   6.492   0.904 -0.3438  0.0464 -0.3528
30721SOL    HW2 3888  11.798   6.380   0.829 -2.0850  1.2063 -0.5582
30722SOL     OW 3889   6.345   7.242   8.331 -0.1354  0.0025 -0.8358
30722SOL    HW1 3890   6.291   7.182   8.382  2.7924 -0.0999  2.5104
30722SOL    HW2 3891   6.308   7.328   8.348 -1.9023 -0.3881 -2.3737
30723SOL     OW 3892   9.672   2.445   8.480  0.0344 -0.1612 -0.0931
30723SOL    HW1 3893   9.588   2.400   8.473 -0.0557  0.1018 -0.8159
30723SOL    HW2 3894   9.699   2.459   8.390  0.5563  0.3089  0.1297
30724SOL     OW 3895   7.919   9.113   5.425  0.3027  0.2135 -0.7767
30724SOL    HW1 3896   7.882   9.176   5.487 -1.8497  0.3564 -2.1206
30724SOL    HW2 3897   7.889   9.143   5.339  0.4383 -1.8101 -1.5910
30725SOL     OW 3898   6.517  11.642   8.719  0.1113 -0.2461 -0.3906
30725SOL    HW1 3899   6.543  11.620   8.630 -1.1415 -1.4015 -0.5063
30725SOL    HW2 3900   6.436  11.593   8.733 -0.4592  0.9873  0.9081
30726SOL     OW 3901   5.959   5.635  10.669  0.1262 -0.3833 -0.1054
30726SOL    HW1 3902   5.878   5.656  10.716  0.2401 -1.1014  0.4149
30726SOL    HW2 3903   5.954   5.688  10.589  0.8666  2.4063  1.5644
30727SOL     OW 3904  11.359   7.276   8.944 -0.5291  0.5269 -0.1203
30727SOL    HW1 3905  11.311   7.341   8.892  0.6246  1.8455  0.3826
30727SOL    HW2 3906  11.424   7.328   8.991 -1.4781 -0.6002  2.6231
30728SOL     OW 3907   8.448   1.247   1.357 -0.5237  0.2553  0.4799
30728SOL    HW1 3908   8.383   1.180   1.336  0.3738 -0.0829 -1.4068
30728SOL    HW2 3909   8.463   1.237   1.451 -2.1863 -0.5563  0.6990
30729SOL     OW 3910   5.788   2.036   0.168  0.2752 -0.2065  0.5487
30729SOL    HW1 3911   5.803   2.070   0.079 -2.3626  1.3068  0.5786
30729SOL    HW2 3912   5.748   1.950   0.155  1.7335 -0.8926  0.3685
30730SOL     OW 3913   2.921   7.686  11.408 -0.7806  0.3212  0.3991
30730SOL    HW1 3914   2.932   7.700  11.314 -3.7044 -0.5166 -0.1781
30730SOL    HW2 3915   2.970   7.757  11.449  0.4349  0.8072 -1.7250
30731SOL     OW 3916   7.706  10.164   9.631 -0.2928 -0.9110 -0.1673
30731SOL    HW1 3917   7.800  10.160   9.617 -0.0683 -1.8176  1.4551
30731SOL    HW2 3918   7.677  10.236   9.575  1.5432  0.2668  0.3067
30732SOL     OW 3919   7.315   5.091   8.042  0.2839 -0.0856 -0.3244
30732SOL    HW1 3920   7.371   5.030   8.091  1.6117  0.3700 -1.2178
30732SOL    HW2 3921   7.288   5.042   7.965 -1.1567 -0.5382  0.4434
30733SOL     OW 3922   5.860   7.767   9.438  0.3567 -0.0880  0.0417
30733SOL    HW1 3923   5.813   7.692   9.401  0.5095 -0.7832  1.2021
30733SOL    HW2 3924   5.877   7.742   9.529  1.6973  0.7577  0.0494
30734SOL     OW 3925   9.346   6.200   4.250 -0.1715  0.2870 -0.7740
30734SOL    HW1 3926   9.318   6.109   4.253 -1.8132  0.7711 -0.1069
30734SOL    HW2 3927   9.350   6.222   4.157 -0.7954 -0.1792 -0.9146
30735SOL     OW 3928   3.425   1.466   4.049 -0.0275  0.7264 -0.5544
30735SOL    HW1 3929   3.357   1.531   4.068 -0.1661 -0.0207  1.7597
30735SOL    HW2 3930   3.378   1.394   4.007 -0.3366  0.9734 -0.6376
30736SOL     OW 3931   1.974   8.233   6.623 -0.4194 -0.0768 -0.6970
30736SOL    HW1 3932   1.887   8.201   6.646 -0.6650  1.6988  1.0707
30736SOL    HW2 3933   2.029   8.208   6.698  0.1501  0.5236 -0.9091
30737SOL     OW 3934   9.557   5.354   4.214 -0.0379 -0.3501 -0.5816
30737SOL    HW1 3935   9.628   5.362   4.150 -0.6139  0.7285 -1.1147
30737SOL    HW2 3936   9.601   5.360   4.299  0.6826 -1.3464 -0.8575
30738SOL     OW 3937   2.178   6.956   6.937 -0.1907 -0.1425 -0.2681
30738SOL    HW1 3938   2.135   6.974   6.854  0.3868  1.2076 -0.3007
30738SOL    HW2 3939   2.263   6.918   6.913 -0.4982 -0.8608 -0.2506
30739SOL     OW 3940   9.523   9.057   9.055  0.0457 -0.5464  0.1276
30739SOL    HW1 3941   9.600   9.044   9.000  0.4969 -1.1043  0.8667
30739SOL    HW2 3942   9.507   9.152   9.053  1.1452 -0.3461  0.4844
30740SOL     OW 3943   2.261  10.532   0.091  0.3174 -0.4035 -0.5621
30740SOL    HW1 3944   2.175  10.537   0.133  0.5090 -1.2876 -0.0333
30740SOL    HW2 3945   2.294  10.445   0.115  1.3982 -0.0413 -0.6844
30741SOL     OW 3946   2.574   1.600   8.915 -0.3650 -0.1644 -0.3163
30741SOL    HW1 3947   2.479   1.603   8.917 -0.4349 -1.7983  0.6190
30741SOL    HW2 3948   2.595   1.532   8.851  0.0564 -1.5226  1.1843
30742SOL     OW 3949   6.542   8.890  11.771 -0.2878  0.4622 -0.1755
30742SOL    HW1 3950   6.572   8.910  11.683 -3.0253  1.3221 -1.0055
30742SOL    HW2 3951   6.470   8.827  11.759  0.3097 -0.6582  1.5935
30743SOL     OW 3952   8.168   7.065   1.514 -0.1018 -0.4167  0.5575
30743SOL    HW1 3953   8.238   7.073   1.450 -0.7502 -2.1818 -0.4627
30743SOL    HW2 3954   8.213   7.048   1.597  0.7023  0.2032  0.2633
30744SOL     OW 3955  11.096   9.662   5.385 -0.8386 -0.8000  0.3783
30744SOL    HW1 3956  11.117   9.748   5.421 -1.7918 -0.5405  0.3535
30744SOL    HW2 3957  11.180   9.626   5.358 -0.3639 -0.0971  0.8698
30745SOL     OW 3958   8.208   0.717   7.989  0.4515 -0.2764 -0.2692
30745SOL    HW1 3959   8.252   0.644   8.032  1.5528  0.7268  0.3521
30745SOL    HW2 3960   8.209   0.788   8.054 -1.5090  0.0132 -0.4679
30746SOL     OW 3961  10.888   6.729   0.563  0.4556 -0.5262 -0.7108
30746SOL    HW1 3962  10.911   6.648   0.517  0.9190 -0.3994 -0.7013
30746SOL    HW2 3963  10.890   6.797   0.495  2.6188 -0.0698 -0.2522
30747SOL     OW 3964   0.875   9.794   8.345 -0.0819  0.4536  0.6330
30747SOL    HW1 3965   0.833   9.864   8.296  1.1805  0.8093  0.0176
30747SOL    HW2 3966   0.892   9.832   8.432 -0.9289  0.3368  0.8523
30748SOL     OW 3967   4.305   0.479   0.202  0.0797  0.1176  0.1356
30748SOL    HW1 3968   4.397   0.489   0.225 -0.3082  1.2936  1.3344
30748SOL    HW2 3969   4.296   0.524   0.118  0.6118 -0.0066  0.0145
30749SOL     OW 3970  11.528   0.319  10.701  0.4616  0.0942 -0.2432
30749SOL    HW1 3971  11.548   0.344  10.791  1.3339 -1.5041  0.0321
30749SOL    HW2 3972  11.607   0.343  10.652 -0.3157  1.7129 -0.7660
30750SOL     OW 3973   2.498   0.588   5.546 -0.1137 -0.0325  0.5132
30750SOL    HW1 3974   2.543   0.520   5.496 -0.4783 -0.2515  0.4836
30750SOL    HW2 3975   2.545   0.592   5.629  0.6141  0.4574  0.0980
30751SOL     OW 3976   1.148   3.784  11.632 -0.3052  0.0560  0.0522
30751SOL    HW1 3977   1.130   3.782  11.538  1.1942 -0.5334 -0.2443
30751SOL    HW2 3978   1.210   3.713  11.647 -1.0800 -0.3355  1.6328
30752SOL     OW 3979   1.937   4.589   5.603 -0.3731 -0.3367 -0.0447
30752SOL    HW1 3980   2.026   4.612   5.576 -0.7933  1.2627 -0.2033
30752SOL    HW2 3981   1.886   4.668   5.585 -1.4862 -0.6097  1.6731
30753SOL     OW 3982  11.414   5.887  10.625  0.0812  0.3208 -0.5135
30753SOL    HW1 3983  11.457   5.875  10.709 -0.9832 -0.7929 -0.1021
30753SOL    HW2 3984  11.437   5.809  10.574 -0.4213  0.3123 -0.7405
30754SOL     OW 3985   6.473  11.696   1.960  0.0174 -0.8085  0.2402
30754SOL    HW1 3986   6.458  11.766   2.025 -0.6861 -0.0385 -0.7298
30754SOL    HW2 3987   6.550  11.725   1.912  0.2120 -1.1124  0.3657
30755SOL     OW 3988   3.616  11.638   5.360 -0.1435 -0.8984 -0.2515
30755SOL    HW1 3989   3.530  11.680   5.364  0.3282  0.4664 -2.7542
30755SOL    HW2 3990   3.597  11.545   5.368 -1.8506 -0.6246 -0.6804
30756SOL     OW 3991   4.255  10.898   3.420 -0.0588  0.8129 -0.0743
30756SOL    HW1 3992   4.299  10.961   3.363 -0.7784  1.2076 -0.2101
30756SOL    HW2 3993   4.166  10.893   3.385 -0.1309  0.0397  0.1992
30757SOL     OW 3994  10.591  10.717   5.366  0.4776  0.0449  0.0359
30757SOL    HW1 3995  10.550  10.663   5.298  1.3141 -3.1828  1.8638
30757SOL    HW2 3996  10.683  10.723   5.340  0.4230  0.4298 -0.0693
30758SOL     OW 3997   6.149   9.872   1.429 -0.5966  0.1196  0.1651
30758SOL    HW1 3998   6.205   9.947   1.452 -1.6866  1.0699 -0.1677
30758SOL    HW2 3999   6.075   9.878   1.489 -1.3820  0.1359 -0.7769
30759SOL     OW 4000   8.835  11.931   8.715  0.3196 -0.2200 -0.3991
30759SOL    HW1 4001   8.890  11.930   8.793  0.4712  0.8810 -0.4779
30759SOL    HW2 4002   8.771  12.001   8.732  0.1508 -0.1938 -1.1204
30760SOL     OW 4003   3.689  11.798   2.326  1.0779  0.1647  0.2422
30760SOL    HW1 4004   3.688  11.739   2.251  2.1073 -1.4272  1.4149
30760SOL    HW2 4005   3.716  11.883   2.290  3.3297 -0.9690 -0.9732
30761SOL     OW 4006  10.511  11.414   6.270 -0.1351  0.5167 -0.4048
30761SOL    HW1 4007  10.589  11.404   6.324 -0.2430  1.4981 -0.0409
30761SOL    HW2 4008  10.454  11.471   6.322 -0.5034  0.9533 -1.2826
30762SOL     OW 4009   4.171   1.691   4.297 -0.4228 -0.0990 -0.0166
30762SOL    HW1 4010   4.159   1.721   4.207  0.1309  0.3234  0.0483
30762SOL    HW2 4011   4.199   1.600   4.288 -0.1814  0.0008 -0.2755
30763SOL     OW 4012   8.606   3.262   1.170  0.0405 -0.3923 -0.3170
30763SOL    HW1 4013   8.621   3.168   1.178 -1.9347 -0.6362  1.5848
30763SOL    HW2 4014   8.693   3.301   1.180  0.7428 -1.9612 -0.0137
30764SOL     OW 4015   9.094   0.397   8.460  0.0197 -0.3795  0.2257
30764SOL    HW1 4016   9.032   0.359   8.522  0.0548 -1.0547 -0.1474
30764SOL    HW2 4017   9.142   0.322   8.425 -0.0020 -0.0062 -0.6184
30765SOL     OW 4018  10.820   0.010   9.126 -0.1040  0.0946  0.3233
30765SOL    HW1 4019  10.738  -0.019   9.085 -1.0827  1.5703  1.1321
30765SOL    HW2 4020  10.869   0.051   9.055 -0.1067 -0.6867 -0.1428
30766SOL     OW 4021   0.113   6.049  11.166  0.2967 -0.3141 -0.1204
30766SOL    HW1 4022   0.027   6.090  11.156  0.3860  0.6124  2.1433
30766SOL    HW2 4023   0.115   5.980  11.100 -1.8503  0.1701 -0.7808
30767SOL     OW 4024   6.093   5.951   9.324  0.5910  0.2070 -0.0964
30767SOL    HW1 4025   6.036   6.027   9.332  1.6844  1.0923 -0.3741
30767SOL    HW2 4026   6.168   5.983   9.274  0.3465 -1.4739 -1.6453
30768SOL     OW 4027   7.308   7.836   9.617 -0.0272 -0.2053  0.3955
30768SOL    HW1 4028   7.342   7.875   9.697 -0.5236 -1.7924  1.4273
30768SOL    HW2 4029   7.384   7.825   9.561  0.2805  1.1948  0.4981
30769SOL     OW 4030   2.080   8.328   0.267 -0.4277 -0.2491  0.2185
30769SOL    HW1 4031   2.051   8.276   0.342 -2.2105  0.4656  0.0758
30769SOL    HW2 4032   2.019   8.401   0.264  0.4093  0.4334 -1.1761
30770SOL     OW 4033   4.571  11.489   5.758 -0.2754  0.4502  0.2451
30770SOL    HW1 4034   4.615  11.434   5.823  0.2333  0.8522  0.2458
30770SOL    HW2 4035   4.630  11.490   5.683 -1.2977 -0.7973 -0.6206
30771SOL     OW 4036   6.367   8.965   0.058  0.2615 -0.0875  0.2466
30771SOL    HW1 4037   6.280   9.004   0.061  1.3875  2.6847  0.0193
30771SOL    HW2 4038   6.352   8.870   0.063 -2.6887  0.3299  0.7587
30772SOL     OW 4039   5.004   1.846   4.788  0.2444 -0.1976  0.1033
30772SOL    HW1 4040   5.091   1.882   4.801  0.0545  0.4191 -0.3185
30772SOL    HW2 4041   5.020   1.755   4.760  0.7205 -0.3888  0.9595
30773SOL     OW 4042  10.317   3.716   4.098 -0.1526 -0.1027  0.7761
30773SOL    HW1 4043  10.328   3.788   4.161 -0.0823  1.3394 -0.7938
30773SOL    HW2 4044  10.223   3.704   4.091 -0.4581  2.5414 -1.7012
30774SOL     OW 4045   7.658   3.888  11.455 -0.0653  0.0456 -0.4465
30774SOL    HW1 4046   7.733   3.832  11.476  0.5156 -0.2957 -3.1103
30774SOL    HW2 4047   7.677   3.970  11.501  0.4674 -0.9435  1.2330
30775SOL     OW 4048   3.639   7.953   8.688 -0.5637  0.0287 -0.2999
30775SOL    HW1 4049   3.606   7.903   8.613 -1.0394  0.3515 -0.3080
30775SOL    HW2 4050   3.613   7.901   8.764 -1.2203  0.3536 -0.2996
30776SOL     OW 4051   0.653   1.785   1.110 -0.5018 -0.2374  0.5145
30776SOL    HW1 4052   0.717   1.839   1.156 -0.0326  0.7375 -1.1699
30776SOL    HW2 4053   0.584   1.769   1.174  0.1777  0.9266  1.5845
30777SOL     OW 4054   7.037   2.201   8.135 -0.1021 -0.6515  0.2586
30777SOL    HW1 4055   6.984   2.266   8.089 -0.4401 -1.4407 -0.4884
30777SOL    HW2 4056   7.019   2.118   8.090  1.1123 -1.0908  0.5259
30778SOL     OW 4057   8.250  10.057   1.482 -0.0704  0.4799 -0.2729
30778SOL    HW1 4058   8.217  10.029   1.396  3.2013 -2.5649 -0.7681
30778SOL    HW2 4059   8.173  10.058   1.538 -1.6873 -2.0259 -2.2084
30779SOL     OW 4060   5.408   5.685   2.616  0.2711  0.0244 -0.5055
30779SOL    HW1 4061   5.343   5.625   2.653  0.8909  0.0589  0.6852
30779SOL    HW2 4062   5.372   5.772   2.634  0.5496  0.0403  0.0037
30780SOL     OW 4063   0.306   0.488   8.625  0.6956 -0.3730  0.0455
30780SOL    HW1 4064   0.241   0.506   8.556  0.7823  1.9556  0.4937
30780SOL    HW2 4065   0.270   0.413   8.673 -0.4347 -0.6611 -1.1886
30781SOL     OW 4066   6.773   2.117   6.996  0.1838 -0.3213  0.2925
30781SOL    HW1 4067   6.710   2.110   7.067 -1.5390 -0.1882 -1.1731
30781SOL    HW2 4068   6.774   2.210   6.974 -0.2480 -0.5440 -0.6866
30782SOL     OW 4069  11.930   7.188   3.111  0.2992 -0.2663  0.0795
30782SOL    HW1 4070  11.874   7.204   3.187 -0.1005 -2.4655  0.3101
30782SOL    HW2 4071  11.869   7.169   3.040  0.6988 -0.1889 -0.2858
30783SOL     OW 4072   9.155   1.081   5.626  0.2245  0.2345 -1.0053
30783SOL    HW1 4073   9.103   1.160   5.631  0.2264  0.1983 -0.2273
30783SOL    HW2 4074   9.244   1.109   5.649  0.0377 -0.1505  0.2881
30784SOL     OW 4075   8.601   4.190   9.266 -0.3884  0.0672 -0.1680
30784SOL    HW1 4076   8.526   4.135   9.286 -1.1859  0.6784 -1.4005
30784SOL    HW2 4077   8.598   4.203   9.171  2.6886 -1.9094 -0.7030
30785SOL     OW 4078   8.543   3.879   0.259  0.1316  0.0762 -0.8238
30785SOL    HW1 4079   8.467   3.822   0.270 -1.5280  2.0591 -1.5934
30785SOL    HW2 4080   8.596   3.862   0.337 -1.7771 -0.3372  0.4565
30786SOL     OW 4081   2.581  11.410   9.135  0.3450 -0.2450  0.7119
30786SOL    HW1 4082   2.636  11.352   9.187 -0.6176 -2.7941 -0.8852
30786SOL    HW2 4083   2.504  11.426   9.189  1.8002  1.9367  2.2709
30787SOL     OW 4084   3.147  10.685   8.012 -0.4887 -0.1943 -0.3342
30787SOL    HW1 4085   3.233  10.649   8.031 -0.7595 -1.0598 -0.7412
30787SOL    HW2 4086   3.109  10.626   7.947 -2.2889 -1.1468  1.4681
30788SOL     OW 4087   0.552   7.921   6.250 -0.5422 -0.7575  0.1659
30788SOL    HW1 4088   0.608   7.847   6.271 -1.0552 -0.9816  0.7478
30788SOL    HW2 4089   0.519   7.952   6.334  0.5759  0.8784  0.0718
30789SOL     OW 4090   0.054   6.070   5.288  0.2447 -0.0270  0.4997
30789SOL    HW1 4091   0.120   6.055   5.220  1.9764  0.5528  1.9500
30789SOL    HW2 4092   0.084   6.018   5.363 -0.8156  0.4444  1.2839
30790SOL     OW 4093   8.746   9.629   1.265  1.2106  0.5886  0.2848
30790SOL    HW1 4094   8.682   9.599   1.330  1.8227  0.2027  0.7205
30790SOL    HW2 4095   8.785   9.707   1.305  1.7176  0.2453  0.4672
30791SOL     OW 4096   4.715   7.129   3.616 -0.1339  0.4683  0.1969
30791SOL    HW1 4097   4.671   7.117   3.532 -0.4711 -0.2422  0.4671
30791SOL    HW2 4098   4.801   7.163   3.594  0.0292 -0.3804 -0.4728
30792SOL     OW 4099   0.714   3.596   0.166 -0.6033 -0.0522  0.1895
30792SOL    HW1 4100   0.803   3.600   0.132 -1.4655 -2.0050 -2.6741
30792SOL    HW2 4101   0.699   3.503   0.184 -1.8979  0.3136  1.2166
30793SOL     OW 4102   7.422   0.741   2.216  0.1075 -0.4964 -0.1723
30793SOL    HW1 4103   7.395   0.832   2.229  1.7895 -0.2849  2.6586
30793SOL    HW2 4104   7.392   0.719   2.128 -1.8702  2.2201 -0.2887
30794SOL     OW 4105  10.934  10.160   3.208 -0.1711 -0.3040 -0.1033
30794SOL    HW1 4106  11.017  10.194   3.175  0.3487 -0.7392  0.7100
30794SOL    HW2 4107  10.904  10.226   3.271 -1.8250  1.1791 -2.2994
30795SOL     OW 4108   8.223   9.397  10.810 -0.2704  0.3515 -0.3331
30795SOL    HW1 4109   8.234   9.356  10.724 -1.3321 -0.4817 -0.0909
30795SOL    HW2 4110   8.131   9.380  10.833  0.3131 -0.5074  1.5130
30796SOL     OW 4111   8.575   2.366   8.643  0.3614 -0.6401  0.2346
30796SOL    HW1 4112   8.546   2.276   8.656  0.2064 -0.4255  1.4433
30796SOL    HW2 4113   8.591   2.400   8.731  2.0632 -0.0046 -0.2773
30797SOL     OW 4114  11.221   2.839   3.609  0.2081  0.2772  0.2367
30797SOL    HW1 4115  11.261   2.864   3.692 -0.5572 -2.0950  1.4156
30797SOL    HW2 4116  11.223   2.743   3.610 -1.2624  0.1721 -1.7641
30798SOL     OW 4117   1.723   1.251   9.091  0.2719  0.0540 -0.5083
30798SOL    HW1 4118   1.752   1.178   9.145 -0.4516 -0.9059 -1.3663
30798SOL    HW2 4119   1.630   1.260   9.111  0.3131  0.6110 -0.5571
30799SOL     OW 4120   9.699   4.349   8.201 -0.6311 -0.3126 -0.3314
30799SOL    HW1 4121   9.653   4.363   8.283 -2.2447  0.8912 -1.3639
30799SOL    HW2 4122   9.788   4.378   8.218 -1.0576  0.3687  0.8518
30800SOL     OW 4123   0.790   6.404  11.311  0.3989 -0.0125  0.1576
30800SOL    HW1 4124   0.737   6.371  11.238 -0.6728 -0.4438  1.0913
30800SOL    HW2 4125   0.756   6.358  11.388  1.4605  0.4717  0.9466
30801SOL     OW 4126  11.460   5.422  11.316 -0.1808 -0.7158  0.0873
30801SOL    HW1 4127  11.419   5.338  11.297 -1.0280 -0.0447 -1.1397
30801SOL    HW2 4128  11.405   5.486  11.273  0.5498  0.4694  0.8656
30802SOL     OW 4129   2.705   7.695   0.449 -0.1835  0.5192 -0.9356
30802SOL    HW1 4130   2.682   7.772   0.501  1.8154  0.1895  0.5371
30802SOL    HW2 4131   2.669   7.621   0.498  0.1399  0.3211 -0.9975
30803SOL     OW 4132   3.693   2.617   6.270 -0.2775  0.6889 -0.2923
30803SOL    HW1 4133   3.666   2.676   6.200 -1.5698  1.9442  1.1992
30803SOL    HW2 4134   3.715   2.674   6.343 -0.9081 -0.6311  0.9814
30804SOL     OW 4135   1.134   8.950   8.525 -0.1031  0.7131  0.3956
30804SOL    HW1 4136   1.199   8.970   8.458 -0.4809  0.3942 -0.0775
30804SOL    HW2 4137   1.124   9.031   8.574 -1.6960  1.8112 -1.5672
30805SOL     OW 4138   2.819   5.141   5.464 -0.0546 -0.1825  0.5762
30805SOL    HW1 4139   2.888   5.199   5.495  1.8730 -1.9108 -0.2074
30805SOL    HW2 4140   2.806   5.078   5.535  0.7139 -1.0993 -0.0695
30806SOL     OW 4141  10.875   7.318   6.153  0.0858 -0.1798 -0.0310
30806SOL    HW1 4142  10.953   7.279   6.113  0.7022 -1.5013  2.3193
30806SOL    HW2 4143  10.825   7.244   6.186 -1.2183  0.7735  0.2286
30807SOL     OW 4144   4.154   5.633   0.384  0.1407 -0.2038 -0.4808
30807SOL    HW1 4145   4.179   5.571   0.452  0.8926  0.6660  0.0666
30807SOL    HW2 4146   4.194   5.716   0.411 -0.3190  0.3787 -1.5064
30808SOL     OW 4147   2.827   8.032   7.351  0.4388 -0.0395  0.2850
30808SOL    HW1 4148   2.886   8.050   7.424  0.7102 -1.4187  0.4188
30808SOL    HW2 4149   2.878   7.978   7.291 -0.2178 -0.0246 -0.2969
30809SOL     OW 4150   2.306   0.241  11.391 -0.4197  0.7097 -0.4628
30809SOL    HW1 4151   2.280   0.318  11.442  0.3013  2.4116 -2.4972
30809SOL    HW2 4152   2.223   0.202  11.363 -0.8033  1.6547 -0.6697
30810SOL     OW 4153   3.817   7.973  11.887 -0.3521 -0.2235  0.6510
30810SOL    HW1 4154   3.844   7.913  11.957 -0.8424 -1.4468 -0.1780
30810SOL    HW2 4155   3.762   7.919  11.829 -0.3352  0.8813 -0.4263
30811SOL     OW 4156   3.112  11.763   2.552 -0.1917  0.3658  0.4221
30811SOL    HW1 4157   3.158  11.846   2.537  0.2142  0.2314  0.9017
30811SOL    HW2 4158   3.167  11.697   2.510 -2.0814  0.6339 -2.8442
30812SOL     OW 4159   9.484   5.408   6.740 -0.2632 -0.2380  0.0642
30812SOL    HW1 4160   9.514   5.438   6.826  0.6658  1.0940 -0.6739
30812SOL    HW2 4161   9.430   5.331   6.758 -1.0887  0.7174  1.9342
30813SOL     OW 4162   7.521   4.445   0.000 -0.5000  0.0309  0.1339
30813SOL    HW1 4163   7.549   4.536   0.007 -2.7104  0.6988  1.1846
30813SOL    HW2 4164   7.483   4.438  -0.087 -1.3576  0.4761  0.4538
30814SOL     OW 4165  10.626   7.255   0.437 -0.0708  0.5071  0.3547
30814SOL    HW1 4166  10.634   7.350   0.440  0.2033  0.5317 -0.8125
30814SOL    HW2 4167  10.537   7.237   0.468  0.3276  1.0320  1.9174
30815SOL     OW 4168   5.805   6.969   4.186  0.7206 -0.0024 -0.1317
30815SOL    HW1 4169   5.725   6.992   4.139 -0.0403 -0.6491  0.8328
30815SOL    HW2 4170   5.787   6.989   4.277  0.7214 -2.4945  0.4835
30816SOL     OW 4171   2.783   4.254   6.279  0.4816 -0.5032 -0.2223
30816SOL    HW1 4172   2.786   4.188   6.349  1.6360  0.3826  0.6012
30816SOL    HW2 4173   2.853   4.229   6.219  1.7469  0.6439  0.7412
30817SOL     OW 4174   4.786   1.674   0.939  0.2358  0.2969  0.1127
30817SOL    HW1 4175   4.730   1.666   0.862  1.0200  1.7725 -0.6490
30817SOL    HW2 4176   4.865   1.716   0.906  0.3671  1.4710  1.8337
30818SOL     OW 4177   1.055   2.699   4.520  0.8370  0.0901  0.3144
30818SOL    HW1 4178   1.034   2.769   4.458 -0.2865 -0.0620  0.4872
30818SOL    HW2 4179   1.139   2.664   4.491  0.2017 -0.1813 -1.3200
30819SOL     OW 4180   8.226   6.667   0.751  0.6699  0.1467 -0.4225
30819SOL    HW1 4181   8.137   6.632   0.748  1.2455 -1.3615 -0.4678
30819SOL    HW2 4182   8.272   6.622   0.680  1.4632  0.9649 -0.4440
30820SOL     OW 4183   5.323   0.652   9.279 -0.2536 -0.3902 -0.1341
30820SOL    HW1 4184   5.288   0.565   9.297 -1.1701 -0.0203 -0.0727
30820SOL    HW2 4185   5.262   0.690   9.215 -1.5630  1.2900  1.9533
30821SOL     OW 4186  10.643   0.983   0.773  0.5062  0.2769 -0.0080
30821SOL    HW1 4187  10.628   1.062   0.721 -2.4743 -1.0396 -1.4037
30821SOL    HW2 4188  10.607   1.004   0.859 -0.2761  0.4458 -0.3722
30822SOL     OW 4189   6.766   7.004   0.816  0.5610  0.3730 -0.5916
30822SOL    HW1 4190   6.707   7.071   0.851  0.3360  0.0197 -0.2923
30822SOL    HW2 4191   6.736   6.991   0.726 -0.6118 -0.6809 -0.0770
30823SOL     OW 4192   6.648   5.589   9.720 -0.4180  0.1293 -0.5307
30823SOL    HW1 4193   6.712   5.608   9.651  0.0333 -1.5524 -0.6078
30823SOL    HW2 4194   6.592   5.667   9.722  1.6599  1.7242 -0.3860
30824SOL     OW 4195   2.030   2.379   4.196  0.2414  0.0082  0.6151
30824SOL    HW1 4196   2.035   2.430   4.115  0.5168  1.0403  1.2587
30824SOL    HW2 4197   1.966   2.311   4.177 -0.3080  0.7234 -0.2192
30825SOL     OW 4198   6.635   3.565   0.943 -0.2717  0.1053  0.2744
30825SOL    HW1 4199   6.549   3.582   0.982 -0.4036 -2.1186  1.0586
30825SOL    HW2 4200   6.627   3.479   0.902  1.5054 -0.0203  0.1117
30826SOL     OW 4201   3.690   5.115   6.620  0.4275  0.1778 -0.0335
30826SOL    HW1 4202   3.683   5.062   6.700  0.5290 -0.5306 -0.4830
30826SOL    HW2 4203   3.740   5.060   6.560 -0.6956  0.1784 -1.0054
30827SOL     OW 4204   1.775   1.204   2.441 -0.2388  0.3164 -0.0072
30827SOL    HW1 4205   1.734   1.263   2.378  0.7084  1.5984  0.5363
30827SOL    HW2 4206   1.793   1.259   2.517 -0.4422 -0.9738  1.0024
30828SOL     OW 4207  11.485   6.038  10.395 -0.3153  0.2951 -0.3859
30828SOL    HW1 4208  11.501   5.964  10.335 -1.3596  0.4057 -0.8337
30828SOL    HW2 4209  11.512   6.115  10.345 -0.1673  0.2952 -0.3053
30829SOL     OW 4210   2.901   1.819   4.308  0.1312 -0.1450  0.0783
30829SOL    HW1 4211   2.993   1.820   4.336  0.2429 -0.0878 -0.2876
30829SOL    HW2 4212   2.858   1.762   4.372  0.1201  1.0373  1.1564
30830SOL     OW 4213   7.872   2.783   6.858  0.5839  0.1164 -0.1716
30830SOL    HW1 4214   7.930   2.836   6.803  0.7873 -0.9531 -1.0168
30830SOL    HW2 4215   7.865   2.700   6.812 -2.3547  0.4904 -0.5973
30831SOL     OW 4216   8.685   9.473  11.058 -0.2642 -0.1370 -0.7811
30831SOL    HW1 4217   8.758   9.444  11.112 -2.0404 -1.1276  1.2038
30831SOL    HW2 4218   8.692   9.569  11.058 -0.6146 -0.0460  1.8774
30832SOL     OW 4219   3.455   1.946   6.907 -0.1947 -0.1310  0.1290
30832SOL    HW1 4220   3.393   1.938   6.978  0.5853 -1.5819  0.6855
30832SOL    HW2 4221   3.415   1.898   6.834 -1.6741  2.5534 -0.9941
30833SOL     OW 4222   3.150   7.672   6.969 -0.1727 -0.2137  0.1173
30833SOL    HW1 4223   3.114   7.746   7.018 -0.1037  0.0337 -0.2016
30833SOL    HW2 4224   3.213   7.632   7.029 -0.5995 -0.3374  0.4889
30834SOL     OW 4225   6.072   4.377   2.280 -0.3975 -0.4516  0.5351
30834SOL    HW1 4226   6.167   4.371   2.266 -0.2449  2.2919 -0.3182
30834SOL    HW2 4227   6.047   4.291   2.313  2.3174 -1.3944  0.4170
30835SOL     OW 4228   4.719   9.223   9.483 -0.3537  0.1678  0.5120
30835SOL    HW1 4229   4.649   9.241   9.420  0.4304 -0.9095 -0.6962
30835SOL    HW2 4230   4.716   9.128   9.496  0.5457  0.1819  0.8578
30836SOL     OW 4231   4.585   3.681   6.516  0.1804 -0.0184  0.1576
30836SOL    HW1 4232   4.608   3.652   6.427  1.2899  0.5038  0.2698
30836SOL    HW2 4233   4.656   3.739   6.542  0.0149 -0.3979  1.5174
30837SOL     OW 4234   6.253  11.295   1.649 -0.2866 -0.5490  0.1161
30837SOL    HW1 4235   6.296  11.277   1.566 -0.5606 -0.2940 -0.0830
30837SOL    HW2 4236   6.244  11.390   1.651  1.5493 -0.3365  1.3499
30838SOL     OW 4237   4.903   9.166  11.833  0.2184 -0.0217  0.3135
30838SOL    HW1 4238   4.965   9.146  11.903 -1.5830 -0.7927  1.7615
30838SOL    HW2 4239   4.869   9.080  11.806 -0.5784  0.4166 -0.1023
30839SOL     OW 4240   5.066   2.329   4.700 -0.2323  0.1350 -0.0579
30839SOL    HW1 4241   5.067   2.290   4.613  0.7030 -0.7783  0.3439
30839SOL    HW2 4242   4.987   2.295   4.742  0.2907 -0.9345  0.0975
30840SOL     OW 4243   0.825   3.435   2.118 -0.1090 -0.9162  0.5924
30840SOL    HW1 4244   0.762   3.452   2.188 -0.0931  0.0894  0.3826
30840SOL    HW2 4245   0.777   3.452   2.037  0.8183  1.5122  0.4513
30841SOL     OW 4246   9.867   5.556   5.400  0.0112  0.2390 -0.6900
30841SOL    HW1 4247   9.822   5.641   5.392  2.1346  1.5478  0.2897
30841SOL    HW2 4248   9.808   5.494   5.358 -1.8234  2.1266 -1.1072
30842SOL     OW 4249   6.539   4.308   5.151 -0.9959 -0.4800  0.1929
30842SOL    HW1 4250   6.558   4.264   5.068 -0.1947  0.7179 -0.2932
30842SOL    HW2 4251   6.460   4.359   5.133 -1.7412 -1.4338  0.6614
30843SOL     OW 4252  11.284   4.307  11.127  0.0215  0.6515 -0.3989
30843SOL    HW1 4253  11.196   4.285  11.097  0.2108 -0.1844 -0.3652
30843SOL    HW2 4254  11.342   4.257  11.070  0.3699 -1.8069  1.9041
30844SOL     OW 4255   4.392   4.440   6.726 -0.2466  0.3674  0.0775
30844SOL    HW1 4256   4.483   4.409   6.723 -0.0387  0.5514  2.3783
30844SOL    HW2 4257   4.384   4.499   6.651  1.7618  0.8703  0.1991
30845SOL     OW 4258   4.672  10.690  10.763 -0.6510 -0.1497  0.1011
30845SOL    HW1 4259   4.694  10.697  10.670  0.7888 -0.8708  0.3452
30845SOL    HW2 4260   4.755  10.664  10.805 -1.4930 -0.7706  1.4555
30846SOL     OW 4261   6.177  11.873   0.879  0.6129 -0.0008  0.2584
30846SOL    HW1 4262   6.248  11.841   0.823  0.1918 -4.5829  1.8991
30846SOL    HW2 4263   6.222  11.926   0.945  1.6754  1.7022 -1.7338
30847SOL     OW 4264   5.467   2.625   5.769  0.5905 -0.3537 -0.5828
30847SOL    HW1 4265   5.519   2.557   5.811  0.1456 -0.1594  0.3139
30847SOL    HW2 4266   5.449   2.592   5.681 -1.3088 -2.3471  0.4495
30848SOL     OW 4267   0.702  10.723  11.277 -0.0663 -0.5561  0.5436
30848SOL    HW1 4268   0.686  10.770  11.359  0.4568  2.5025 -0.9737
30848SOL    HW2 4269   0.619  10.678  11.259 -0.6881 -0.0436  1.9858
30849SOL     OW 4270  11.898   5.607   2.423  0.6164 -0.1683 -0.0117
30849SOL    HW1 4271  11.917   5.521   2.461  1.9856 -0.4189 -1.1862
30849SOL    HW2 4272  11.868   5.588   2.334 -1.3493  0.4731  0.4591
30850SOL     OW 4273   4.980   0.875  11.499  0.7385 -0.2755 -0.1665
30850SOL    HW1 4274   4.910   0.888  11.563  1.6812 -1.1932  1.0820
30850SOL    HW2 4275   5.041   0.946  11.515 -0.2942  1.0855 -1.8815
30851SOL     OW 4276   7.625   0.121   5.857  0.3081  0.2807 -0.5669
30851SOL    HW1 4277   7.655   0.097   5.769  2.2492 -1.4579  0.4859
30851SOL    HW2 4278   7.655   0.211   5.868  1.8743 -0.1497 -0.9872
30852SOL     OW 4279   4.989  11.340   9.479  0.1750 -0.4396  0.2232
30852SOL    HW1 4280   5.050  11.331   9.406 -1.1899  1.6645 -1.3139
30852SOL    HW2 4281   5.044  11.366   9.553  1.8205 -4.2119  0.5551
30853SOL     OW 4282   5.561   0.718   5.458 -0.0194 -0.1292 -0.4784
30853SOL    HW1 4283   5.583   0.809   5.441 -1.3276  0.2602 -0.1885
30853SOL    HW2 4284   5.471   0.709   5.427 -0.5663 -0.8129  1.1999
30854SOL     OW 4285  10.234  11.480  11.352 -0.6414 -0.0403 -0.2360
30854SOL    HW1 4286  10.223  11.400  11.300 -1.0838 -0.4236  0.4315
30854SOL    HW2 4287  10.155  11.485  11.405 -0.4464  0.6448 -0.0046
30855SOL     OW 4288   7.850   3.674   3.617 -0.4740  0.0061 -0.3835
30855SOL    HW1 4289   7.881   3.639   3.700 -0.6350  1.6838  0.4267
30855SOL    HW2 4290   7.925   3.668   3.559 -0.0109 -0.1410  0.2230
30856SOL     OW 4291  11.306   0.152  10.768 -0.4157  0.4865  0.3498
30856SOL    HW1 4292  11.269   0.230  10.811  0.1536  0.4502  0.9132
30856SOL    HW2 4293  11.401   0.166  10.770 -0.2272 -0.7584  1.5116
30857SOL     OW 4294   4.665   3.667   3.393  0.0700 -0.3666  0.3021
30857SOL    HW1 4295   4.680   3.759   3.415 -1.0487 -0.6042  2.3877
30857SOL    HW2 4296   4.750   3.633   3.366  0.4040  1.3623 -0.9681
30858SOL     OW 4297   6.350   4.758   6.059  0.4741 -0.4013 -0.0708
30858SOL    HW1 4298   6.367   4.680   6.111  1.6471  0.3268  0.6927
30858SOL    HW2 4299   6.414   4.822   6.090 -0.3099  0.7975 -0.8300
30859SOL     OW 4300   6.364  10.765   5.883  0.1326  0.0315  0.2284
30859SOL    HW1 4301   6.448  10.773   5.928 -0.3749  2.5858  0.8965
30859SOL    HW2 4302   6.385  10.773   5.790  0.5990  1.6580  0.4386
30860SOL     OW 4303   5.986   2.922   9.001 -0.3012  0.5873  0.2051
30860SOL    HW1 4304   6.052   2.852   8.997  0.5545  1.3551  0.6144
30860SOL    HW2 4305   5.961   2.925   9.093 -2.4358 -1.0518 -0.2444
30861SOL     OW 4306   9.831   3.687   1.781  0.4787  0.4918 -0.1122
30861SOL    HW1 4307   9.794   3.702   1.694  1.8268  0.1076 -0.7770
30861SOL    HW2 4308   9.800   3.600   1.805  0.9392  0.1617 -0.6723
30862SOL     OW 4309  11.324   2.637   3.810 -0.4909 -0.3602  0.0549
30862SOL    HW1 4310  11.262   2.679   3.870 -1.3578 -0.4853 -0.7313
30862SOL    HW2 4311  11.291   2.548   3.802 -0.2964 -0.3818 -0.4902
30863SOL     OW 4312   0.833   0.945  11.609 -0.7507 -0.6088  0.2239
30863SOL    HW1 4313   0.867   0.945  11.520  0.6554 -0.9235  0.7333
30863SOL    HW2 4314   0.774   1.021  11.612 -0.5525 -0.3915 -0.8701
30864SOL     OW 4315   4.937   2.489   9.977 -0.1697  0.0158  0.1342
30864SOL    HW1 4316   5.033   2.487   9.981 -0.1799  0.1133  0.4840
30864SOL    HW2 4317   4.913   2.567  10.028 -0.4241  0.1507 -0.1887
30865SOL     OW 4318  11.791  10.288   5.869  0.3020  0.3913 -0.0034
30865SOL    HW1 4319  11.864  10.273   5.808 -0.6497  1.5493 -1.4884
30865SOL    HW2 4320  11.714  10.259   5.821 -0.3676  0.3150  1.0930
30866SOL     OW 4321   4.309  10.204   4.415  0.1786  0.0561 -0.0464
30866SOL    HW1 4322   4.309  10.120   4.369 -0.0054 -0.5317  1.0148
30866SOL    HW2 4323   4.280  10.183   4.503 -1.4085  1.4703 -0.1890
30867SOL     OW 4324  10.646   8.826   4.820  0.7859 -0.2346  0.5015
30867SOL    HW1 4325  10.688   8.751   4.777 -0.7767 -0.5777 -0.4957
30867SOL    HW2 4326  10.690   8.902   4.783  0.6988 -0.5914 -0.3568
30868SOL     OW 4327   0.885   1.756   4.152  0.5221 -0.1276 -0.8445
30868SOL    HW1 4328   0.833   1.746   4.072  3.7924 -2.6310 -2.9115
30868SOL    HW2 4329   0.926   1.842   4.143 -1.9870  1.2890  0.1691
30869SOL     OW 4330   2.561   3.164   0.598  0.6710  0.2276  0.5507
30869SOL    HW1 4331   2.496   3.095   0.602  0.3670  0.4871  0.1753
30869SOL    HW2 4332   2.622   3.135   0.531  0.6919  0.1983  0.5823
30870SOL     OW 4333   5.381   1.273   9.550  1.0443  0.4469  0.5029
30870SOL    HW1 4334   5.429   1.265   9.468  1.3482 -1.8278  0.8436
30870SOL    HW2 4335   5.378   1.184   9.585 -2.2923  0.6741  1.1448
30871SOL     OW 4336   2.751   6.857   9.655 -1.0904  0.2343  0.1710
30871SOL    HW1 4337   2.794   6.888   9.574 -0.7290 -1.5146 -0.3402
30871SOL    HW2 4338   2.658   6.869   9.638 -0.9565  2.0940  0.4683
30872SOL     OW 4339   9.525   2.457   0.396 -0.0957  0.6351 -0.3223
30872SOL    HW1 4340   9.583   2.502   0.457 -1.9379  2.4308  0.1930
30872SOL    HW2 4341   9.552   2.488   0.309  0.6283  0.3298 -0.2146
30873SOL     OW 4342   1.546   0.555   6.102 -0.3320  0.5474 -0.2534
30873SOL    HW1 4343   1.557   0.646   6.072  1.4708  1.0909  1.8128
30873SOL    HW2 4344   1.476   0.560   6.167 -0.8002  0.2963 -0.7359
30874SOL     OW 4345   3.367   5.095   4.308 -0.8493 -0.6854 -0.0290
30874SOL    HW1 4346   3.417   5.098   4.226 -0.1283 -0.8087  0.3968
30874SOL    HW2 4347   3.318   5.177   4.309  1.1964  0.6215  0.6707
30875SOL     OW 4348  11.847   8.105   7.263  0.4161  0.0814  0.5231
30875SOL    HW1 4349  11.921   8.144   7.217  0.4884 -1.3061 -0.6182
30875SOL    HW2 4350  11.864   8.011   7.261 -1.8912 -0.4039 -0.8036
30876SOL     OW 4351   4.972   1.617   1.373 -0.1363 -0.1332  0.4976
30876SOL    HW1 4352   5.045   1.620   1.311  0.2960 -2.5074  0.8095
30876SOL    HW2 4353   4.909   1.680   1.338  0.7495 -0.2704 -1.5086
30877SOL     OW 4354   5.354  11.372   8.370 -0.1467 -0.5240 -0.5889
30877SOL    HW1 4355   5.327  11.463   8.382 -0.2486 -0.7520  1.0684
30877SOL    HW2 4356   5.275  11.321   8.383 -0.0642 -0.8776 -1.3949
30878SOL     OW 4357  10.831   6.244   7.130  0.0484  0.1644  0.1525
30878SOL    HW1 4358  10.834   6.340   7.132  0.8087  0.1444  0.3681
30878SOL    HW2 4359  10.803   6.219   7.218 -1.6407  0.2144 -0.3364
30879SOL     OW 4360   7.513   9.490   6.019 -0.3482 -0.5612 -0.0456
30879SOL    HW1 4361   7.512   9.516   6.111  0.3340 -0.1731 -0.1431
30879SOL    HW2 4362   7.422   9.467   6.000 -0.7002  0.3752  0.4389
30880SOL     OW 4363   4.226   8.317   0.317  0.0772 -0.0675 -0.0644
30880SOL    HW1 4364   4.278   8.283   0.389  0.5842  0.2525 -0.2731
30880SOL    HW2 4365   4.148   8.354   0.359  0.7392  0.8433  0.4078
30881SOL     OW 4366  11.394  11.542  11.156 -0.1485  0.4158 -0.2264
30881SOL    HW1 4367  11.393  11.573  11.066 -0.6389  1.7185  0.1973
30881SOL    HW2 4368  11.354  11.455  11.152  0.0821  0.3452 -1.2909
30882SOL     OW 4369   2.720   5.977  11.356 -0.5031 -0.3515  0.2088
30882SOL    HW1 4370   2.690   5.973  11.447 -0.1636 -0.6866  0.3089
30882SOL    HW2 4371   2.711   5.887  11.324  0.5200 -0.4937  0.2886
30883SOL     OW 4372   4.982   6.974  11.369  0.0584 -0.0653 -0.0516
30883SOL    HW1 4373   4.928   6.994  11.445 -0.2949  1.2951 -0.6339
30883SOL    HW2 4374   5.004   7.060  11.331 -3.3272 -0.6085 -3.9728
30884SOL     OW 4375   6.650   1.535   1.328  0.2438 -0.5617  0.1619
30884SOL    HW1 4376   6.586   1.485   1.378  1.0842 -1.1250  0.6801
30884SOL    HW2 4377   6.632   1.626   1.352  0.6097 -0.8172  1.4712
30885SOL     OW 4378  11.113  11.939   9.599 -0.4635 -0.1967  0.3349
30885SOL    HW1 4379  11.089  11.857   9.642 -1.4116  0.6729  1.5649
30885SOL    HW2 4380  11.208  11.939   9.597 -0.4534 -1.2592  0.4373
30886SOL     OW 4381   2.101   8.069   9.039 -0.0857  0.6147 -0.0216
30886SOL    HW1 4382   2.167   8.071   9.108 -1.4897  0.3620  1.4043
30886SOL    HW2 4383   2.070   7.978   9.039  0.1296  0.5275 -1.2456
30887SOL     OW 4384   4.140  10.201   6.075  0.2121 -0.2058 -0.1947
30887SOL    HW1 4385   4.136  10.255   5.996 -0.3037 -0.5873 -0.4367
30887SOL    HW2 4386   4.204  10.133   6.055 -0.2392 -0.5595 -0.4534
30888SOL     OW 4387   7.798   6.608   9.553 -0.0789 -0.3218  1.0637
30888SOL    HW1 4388   7.775   6.694   9.587 -0.9735  0.8885 -2.1926
30888SOL    HW2 4389   7.719   6.556   9.562 -0.0363 -0.2952  1.5936
30889SOL     OW 4390   3.466   2.903   7.214 -0.4265 -0.3769 -0.3593
30889SOL    HW1 4391   3.441   2.900   7.121 -0.9980  0.5376 -0.2451
30889SOL    HW2 4392   3.519   2.824   7.226  0.9624  0.2814 -1.8185
30890SOL     OW 4393   4.397   9.378   6.898  0.3045  0.2381 -0.2838
30890SOL    HW1 4394   4.452   9.317   6.946 -2.6495 -2.9777 -0.5559
30890SOL    HW2 4395   4.340   9.418   6.965  1.2396  1.6884 -0.2996
30891SOL     OW 4396   8.600   7.281   3.304 -0.1077 -0.1199 -0.4257
30891SOL    HW1 4397   8.652   7.296   3.383 -0.4323  0.0982 -0.2497
30891SOL    HW2 4398   8.663   7.284   3.233 -0.2694  4.0424 -0.6498
30892SOL     OW 4399  10.475   5.230   8.243  0.2846 -0.0971 -0.4784
30892SOL    HW1 4400  10.397   5.221   8.298  0.1202 -0.3274 -0.7479
30892SOL    HW2 4401  10.512   5.315   8.269  0.1063 -0.1185 -0.1451
30893SOL     OW 4402   0.879   2.616   2.133  0.3682  0.6009  0.1973
30893SOL    HW1 4403   0.876   2.662   2.049  2.5303 -1.1653 -0.9467
30893SOL    HW2 4404   0.829   2.536   2.117 -0.5660  0.9644  1.1521
30894SOL     OW 4405   6.256   6.078   3.225  0.2572  0.4191 -0.8540
30894SOL    HW1 4406   6.301   6.006   3.269  0.9949 -0.9593 -3.6208
30894SOL    HW2 4407   6.205   6.121   3.294 -0.1590 -2.7014  0.9609
30895SOL     OW 4408   1.765  11.938   4.178  0.1672 -0.4979 -0.1410
30895SOL    HW1 4409   1.833  11.953   4.113 -0.1263  0.4283 -0.2373
30895SOL    HW2 4410   1.698  12.003   4.160 -1.2391 -2.0185 -0.6732
30896SOL     OW 4411   2.877  11.134   6.125 -0.1240  0.0552  0.7220
30896SOL    HW1 4412   2.941  11.183   6.074 -0.5020  0.6550  0.8064
30896SOL    HW2 4413   2.808  11.112   6.063  0.2525 -0.7709  0.5841
30897SOL     OW 4414   2.040  10.208   8.990  0.0382  0.4554  0.3061
30897SOL    HW1 4415   2.123  10.163   8.974  0.0042  0.9326 -1.3340
30897SOL    HW2 4416   2.064  10.279   9.050  0.3977 -0.6768  1.5545
30898SOL     OW 4417   6.130  10.074   4.361 -0.2813 -0.1160  0.1428
30898SOL    HW1 4418   6.194  10.137   4.327 -0.9168 -0.2864 -1.4730
30898SOL    HW2 4419   6.065  10.066   4.291 -1.0403 -1.4146  0.9539
30899SOL     OW 4420  11.909   0.806   4.066 -0.7173  0.2506  0.0468
30899SOL    HW1 4421  11.866   0.731   4.108 -0.3856  1.4743  2.8275
30899SOL    HW2 4422  11.996   0.775   4.044 -0.2209  0.0105  2.1184
30900SOL     OW 4423   5.365   4.037   2.038 -0.5043  0.0767  0.2721
30900SOL    HW1 4424   5.276   4.063   2.059  0.0462  1.6573  0.7781
30900SOL    HW2 4425   5.386   4.083   1.957 -0.0244 -0.0036  0.3448
30901SOL     OW 4426  11.560   0.370   3.902 -0.2010 -0.0340 -0.0052
30901SOL    HW1 4427  11.574   0.327   3.986 -0.2259 -0.6876 -0.3307
30901SOL    HW2 4428  11.642   0.357   3.854  0.6310  2.1941  0.7037
30902SOL     OW 4429   6.435   7.690   9.105 -0.2661 -0.1226  0.2723
30902SOL    HW1 4430   6.507   7.653   9.156 -2.0910  0.3472  3.4277
30902SOL    HW2 4431   6.378   7.616   9.086 -0.5949  0.0084  0.7288
30903SOL     OW 4432   3.243   0.003   1.087 -0.9673 -0.3705  0.0776
30903SOL    HW1 4433   3.181   0.075   1.077  0.0012  0.4580 -0.1509
30903SOL    HW2 4434   3.271  -0.017   0.997  0.3684  0.4403  0.2774
30904SOL     OW 4435  11.614   4.638   1.754 -0.3321 -0.0944  0.2217
30904SOL    HW1 4436  11.550   4.588   1.704 -0.5243 -0.5733  0.9248
30904SOL    HW2 4437  11.636   4.581   1.828 -0.8058  0.9847  1.2235
30905SOL     OW 4438   3.534   4.915   0.060  0.4718  0.0169  0.1819
30905SOL    HW1 4439   3.499   4.890  -0.025  1.6159  0.6336 -0.4862
30905SOL    HW2 4440   3.628   4.928   0.045  0.4966  1.3232  1.2486
30906SOL     OW 4441   8.724   2.655   3.187  0.0445 -0.4416  0.8222
30906SOL    HW1 4442   8.719   2.671   3.093 -1.8451 -1.0733  0.7605
30906SOL    HW2 4443   8.784   2.581   3.196 -0.3857 -0.9025  0.0175
30907SOL     OW 4444   7.283   3.725   1.430 -0.2418 -1.1348 -0.0996
30907SOL    HW1 4445   7.234   3.741   1.350 -2.3127 -0.5277  1.2092
30907SOL    HW2 4446   7.249   3.642   1.463 -0.7923 -0.4890  1.0535
30908SOL     OW 4447   4.462   0.390   7.255 -0.6170 -0.3552  0.0404
30908SOL    HW1 4448   4.483   0.381   7.163  0.1433 -0.8148  0.2522
30908SOL    HW2 4449   4.489   0.308   7.295 -0.4235  0.0456  0.7647
30909SOL     OW 4450   7.013   7.049   4.640  0.0124 -0.5068  0.5108
30909SOL    HW1 4451   7.018   6.971   4.584  1.0375  0.2738 -0.5423
30909SOL    HW2 4452   7.100   7.057   4.678  0.3588  0.8994 -0.5074
30910SOL     OW 4453   2.993   3.089   1.028 -0.0384  0.7685  0.1645
30910SOL    HW1 4454   2.906   3.051   1.016 -0.0635  0.4697  1.2279
30910SOL    HW2 4455   3.045   3.019   1.067  0.1839  1.4900  1.2210
30911SOL     OW 4456   8.986   3.861   5.056  0.0563  0.2045  0.0984
30911SOL    HW1 4457   8.992   3.768   5.078  1.9406  0.4300  0.7438
30911SOL    HW2 4458   9.049   3.872   4.985 -0.3205  0.9574 -0.1264
30912SOL     OW 4459   7.219   1.820   8.615 -0.7076  0.0704 -0.0393
30912SOL    HW1 4460   7.184   1.743   8.570  0.2429  0.4213 -1.4356
30912SOL    HW2 4461   7.262   1.870   8.547  0.7476  0.6705  1.2625
30913SOL     OW 4462  11.144   4.481   2.899 -0.1685  0.3348  0.1989
30913SOL    HW1 4463  11.205   4.538   2.946  0.8700 -1.6449  1.3820
30913SOL    HW2 4464  11.058   4.514   2.923  0.2960  3.6737 -2.1061
30914SOL     OW 4465   1.247   2.156  11.244  0.4071 -0.4183  0.2956
30914SOL    HW1 4466   1.318   2.180  11.185  1.0205 -2.2379  0.2448
30914SOL    HW2 4467   1.282   2.084  11.297 -0.1570  1.0601  2.8439
30915SOL     OW 4468   6.594   4.028   3.773  0.1427 -1.3144  0.1789
30915SOL    HW1 4469   6.625   3.949   3.817 -0.6863 -2.4659 -1.2149
30915SOL    HW2 4470   6.540   3.996   3.701 -0.5832  0.5419 -0.1674
30916SOL     OW 4471   4.017   8.270   9.134  0.3153  0.3230 -0.0794
30916SOL    HW1 4472   4.096   8.230   9.099 -0.2482  0.0877 -1.1481
30916SOL    HW2 4473   3.989   8.331   9.066 -0.9189 -0.2814 -0.1546
30917SOL     OW 4474   6.642   1.832   6.065  0.3891 -0.7238  0.4018
30917SOL    HW1 4475   6.651   1.753   6.010  1.7788 -1.0797  1.1164
30917SOL    HW2 4476   6.547   1.846   6.069  0.1109 -2.2697  0.1249
30918SOL     OW 4477   8.450   2.967  10.057  0.3464  0.0282 -0.0446
30918SOL    HW1 4478   8.526   2.936  10.107 -0.0467 -1.3956 -0.2873
30918SOL    HW2 4479   8.451   3.062  10.069  2.0635  0.0269  0.0855
30919SOL     OW 4480   4.243   0.504   1.742 -0.1230 -0.5312 -0.2391
30919SOL    HW1 4481   4.285   0.518   1.657  0.3709  0.6787  0.1787
30919SOL    HW2 4482   4.294   0.433   1.781  0.6987  0.0020 -0.3017
30920SOL     OW 4483   1.189   9.484   7.046 -0.2608 -0.4178  0.4151
30920SOL    HW1 4484   1.118   9.489   7.109 -2.1200 -0.1961 -1.5591
30920SOL    HW2 4485   1.145   9.477   6.961  2.0644  1.1500 -1.0414
30921SOL     OW 4486   2.850   8.753   3.967  0.5607 -0.2135  0.1319
30921SOL    HW1 4487   2.876   8.826   4.024 -1.3503 -0.3204  1.2397
30921SOL    HW2 4488   2.759   8.772   3.946  1.1159 -0.3594 -2.7208
30922SOL     OW 4489  11.683   0.105   6.021 -0.0821  0.1757  0.1048
30922SOL    HW1 4490  11.746   0.173   5.996  1.0042 -1.9469 -3.6903
30922SOL    HW2 4491  11.709   0.082   6.111  3.4048  0.7522 -0.5823
30923SOL     OW 4492   8.388   3.616   7.525 -0.0725  0.1000  0.1987
30923SOL    HW1 4493   8.473   3.639   7.487  1.1008 -0.7107  2.1966
30923SOL    HW2 4494   8.409   3.557   7.597 -2.3949 -0.5500  0.4144
30924SOL     OW 4495  11.934   9.907   8.844  0.1582 -0.2922  0.1290
30924SOL    HW1 4496  11.952   9.825   8.891  0.3399 -0.8101 -0.8159
30924SOL    HW2 4497  11.879   9.880   8.771 -0.4766  0.5692  0.2824
30925SOL     OW 4498   5.281  11.262   1.407 -0.2950 -0.1742 -0.5305
30925SOL    HW1 4499   5.342  11.326   1.443  0.1481  0.7597 -2.7347
30925SOL    HW2 4500   5.333  11.183   1.393 -0.3489 -0.3708  0.3552
30926SOL     OW 4501   2.325   7.476   1.763  0.2271 -0.2429 -0.3822
30926SOL    HW1 4502   2.371   7.559   1.747 -1.2410  0.5742 -0.5680
30926SOL    HW2 4503   2.286   7.454   1.679  0.0369 -0.7710 -0.1561
30927SOL     OW 4504  11.609   4.002  10.342  0.0449 -0.4289 -0.2889
30927SOL    HW1 4505  11.606   3.942  10.268  1.0816 -0.2610 -0.4801
30927SOL    HW2 4506  11.702   4.020  10.355  0.0113 -1.4280  1.8510
30928SOL     OW 4507  10.123   1.020   4.990  0.5975  0.6338  1.0116
30928SOL    HW1 4508  10.119   1.097   4.933  1.2018 -0.3498 -0.4065
30928SOL    HW2 4509  10.210   1.024   5.029  0.9905  0.1977  0.2119
30929SOL     OW 4510   3.435   1.258   4.327  0.4650  0.3314 -0.4800
30929SOL    HW1 4511   3.473   1.331   4.279  0.4062 -0.5569 -1.9153
30929SOL    HW2 4512   3.418   1.191   4.261 -0.0971 -0.7386  0.7003
30930SOL     OW 4513   1.570  11.653  10.354 -0.2650 -0.2064  0.2187
30930SOL    HW1 4514   1.516  11.596  10.299 -1.2197  0.2206  0.7019
30930SOL    HW2 4515   1.507  11.706  10.402  0.5886  2.5136 -1.4834
30931SOL     OW 4516   6.230   8.989  11.006  0.2837 -0.4710 -0.0164
30931SOL    HW1 4517   6.192   9.031  10.929  0.7645 -2.4811 -1.4304
30931SOL    HW2 4518   6.323   9.012  11.003 -0.1371  1.6615  1.5389
30932SOL     OW 4519  10.552   6.964   8.624  0.1852 -0.1704 -0.2675
30932SOL    HW1 4520  10.497   6.986   8.549 -0.3789 -1.5461 -0.2986
30932SOL    HW2 4521  10.594   6.882   8.599  1.4163  0.2916  0.2056
30933SOL     OW 4522   7.193   0.171   9.907  0.1796  0.1734  0.2382
30933SOL    HW1 4523   7.189   0.229   9.831 -1.2988 -0.3376 -0.1123
30933SOL    HW2 4524   7.119   0.199   9.962 -1.3401 -2.0805 -0.5090
30934SOL     OW 4525   9.499  10.691   9.177  0.4250 -0.9956  0.1269
30934SOL    HW1 4526   9.434  10.678   9.246  0.5089 -0.6806  0.2633
30934SOL    HW2 4527   9.537  10.604   9.164  1.2189 -0.8383  1.2732
30935SOL     OW 4528   4.548   0.095   7.977  0.7470 -0.0067 -0.3657
30935SOL    HW1 4529   4.485   0.131   8.040 -0.3845 -1.5797 -0.5250
30935SOL    HW2 4530   4.549   0.158   7.905 -1.7272 -0.5256 -0.9718
30936SOL     OW 4531   7.771   6.800   8.140 -0.7628  0.0078 -0.2836
30936SOL    HW1 4532   7.754   6.762   8.054  1.0812  1.8533 -1.5676
30936SOL    HW2 4533   7.832   6.738   8.181 -1.8976 -1.0455 -0.1153
30937SOL     OW 4534   1.908   8.712   5.051  0.0949 -0.5066 -0.4949
30937SOL    HW1 4535   1.910   8.671   5.137  1.4295 -0.7840 -0.6301
30937SOL    HW2 4536   1.818   8.702   5.022 -0.6685  0.6085  1.3279
30938SOL     OW 4537   3.579   9.950   3.457 -0.2243 -0.0628  0.6388
30938SOL    HW1 4538   3.570   9.891   3.382 -0.6539 -0.2114  0.8055
30938SOL    HW2 4539   3.641  10.016   3.428 -2.1784  1.2687 -0.7264
30939SOL     OW 4540   5.380  11.596   6.829 -0.0256  0.1200  0.0623
30939SOL    HW1 4541   5.386  11.547   6.747 -0.2371 -0.0339  0.1381
30939SOL    HW2 4542   5.285  11.605   6.844  0.0073 -0.5500  0.7100
30940SOL     OW 4543   9.056   6.326   2.555 -0.2628  0.4059  0.1384
30940SOL    HW1 4544   9.027   6.235   2.564 -0.4676  0.6033  1.7863
30940SOL    HW2 4545   8.983   6.370   2.510 -0.0748 -0.2661 -0.8529
30941SOL     OW 4546   5.828   2.317   8.431  0.0503  0.1017  0.7398
30941SOL    HW1 4547   5.765   2.246   8.441 -0.8645  0.9460  1.0711
30941SOL    HW2 4548   5.799   2.365   8.353  1.5677 -0.7754 -0.4276
30942SOL     OW 4549   3.039   3.235  11.796  0.1161  0.1374  0.1444
30942SOL    HW1 4550   3.080   3.185  11.725 -2.7527 -0.1382 -1.4712
30942SOL    HW2 4551   3.025   3.322  11.759 -0.2344  0.4003  0.8771
30943SOL     OW 4552   2.223  10.478   3.270 -0.6227 -0.6911  0.1364
30943SOL    HW1 4553   2.186  10.463   3.184  1.6297  0.6484 -1.1765
30943SOL    HW2 4554   2.148  10.495   3.326 -2.0758  1.2446 -2.2005
30944SOL     OW 4555   1.015   4.885  10.879  0.1512 -0.1657  0.4450
30944SOL    HW1 4556   0.990   4.975  10.897 -0.3665 -0.5060  1.5052
30944SOL    HW2 4557   0.962   4.860  10.803  0.6195  0.5466 -0.1278
30945SOL     OW 4558   0.335   9.703   6.226  0.1503  0.0511  0.1289
30945SOL    HW1 4559   0.392   9.773   6.257 -0.1435  0.3577 -0.0100
30945SOL    HW2 4560   0.271   9.747   6.169  0.1151 -0.3656 -0.1611
30946SOL     OW 4561   4.391   0.541   7.609 -0.7182  0.1778 -0.0008
30946SOL    HW1 4562   4.423   0.520   7.521 -2.1365 -0.0515 -0.4827
30946SOL    HW2 4563   4.349   0.461   7.639  0.4503 -0.0108  1.2458
30947SOL     OW 4564   8.647   5.607   1.609 -0.3207  0.2540 -0.2754
30947SOL    HW1 4565   8.559   5.635   1.584  0.2848  2.6195 -0.0081
30947SOL    HW2 4566   8.651   5.625   1.703  0.3454 -0.1720 -0.2212
30948SOL     OW 4567  11.297  11.426   8.773  0.2012  0.2686 -0.3104
30948SOL    HW1 4568  11.235  11.447   8.703  1.0966  1.4873 -0.7775
30948SOL    HW2 4569  11.313  11.332   8.764 -1.4536 -0.0414 -0.2579
30949SOL     OW 4570   4.381  11.412  10.776 -0.3953  0.1461 -0.1193
30949SOL    HW1 4571   4.402  11.395  10.684 -1.3001  0.6841 -0.4414
30949SOL    HW2 4572   4.312  11.479  10.773 -0.2062  0.4073  0.9603
30950SOL     OW 4573   8.878   3.619   7.256  0.4144  0.2274  0.2140
30950SOL    HW1 4574   8.791   3.589   7.284  1.4351 -1.1217  2.0718
30950SOL    HW2 4575   8.897   3.568   7.177  0.6260 -1.4839  1.3296
30951SOL     OW 4576   3.823   1.347   5.958 -0.0294  0.1972  0.2130
30951SOL    HW1 4577   3.786   1.304   6.035 -0.2289 -1.1454 -0.5957
30951SOL    HW2 4578   3.837   1.276   5.895 -0.5948  1.3489 -1.2823
30952SOL     OW 4579  10.468   9.301   8.036  0.0516 -0.3848 -0.6399
30952SOL    HW1 4580  10.472   9.304   7.940  0.1564 -0.7355 -0.6471
30952SOL    HW2 4581  10.442   9.211   8.056  0.0402 -0.3142 -0.3386
30953SOL     OW 4582   4.439   0.690   4.199  0.3603  0.2793  0.1859
30953SOL    HW1 4583   4.495   0.708   4.123  2.7009 -0.8299  1.5402
30953SOL    HW2 4584   4.402   0.604   4.182 -2.3893  1.6398 -1.4412
30954SOL     OW 4585   8.046   5.583   9.490 -0.4811 -0.0485  0.1857
30954SOL    HW1 4586   8.079   5.611   9.404 -0.2069 -1.7227 -0.2915
30954SOL    HW2 4587   8.008   5.662   9.528  2.1488  1.4696 -0.1451
30955SOL     OW 4588   6.664   4.604   7.014  0.3855 -0.2102  0.8885
30955SOL    HW1 4589   6.737   4.542   7.014 -0.5829 -1.3828  1.7779
30955SOL    HW2 4590   6.673   4.651   6.931  0.7174 -2.0540 -0.1602
30956SOL     OW 4591   9.181   2.440   2.970  0.2259  0.7960 -0.0209
30956SOL    HW1 4592   9.219   2.368   3.021  0.8556  0.5396 -0.8155
30956SOL    HW2 4593   9.236   2.515   2.989 -1.0934  1.3887  1.6747
30957SOL     OW 4594   5.860   0.477   9.394 -0.1261 -0.0347 -0.1551
30957SOL    HW1 4595   5.886   0.567   9.376 -1.6356  0.4821  0.1207
30957SOL    HW2 4596   5.795   0.484   9.464 -0.1835 -1.3408 -0.0560
30958SOL     OW 4597   1.451   4.818   5.383  0.1592 -0.1331  0.0165
30958SOL    HW1 4598   1.463   4.729   5.417 -0.5768 -0.4991 -0.6345
30958SOL    HW2 4599   1.432   4.806   5.290 -0.0626  0.7010 -0.0565
30959SOL     OW 4600   8.568   2.398   9.467 -0.0671 -0.0161  0.2757
30959SOL    HW1 4601   8.570   2.489   9.497 -1.4517  0.0301  0.2829
30959SOL    HW2 4602   8.566   2.347   9.548 -2.4376  0.0678  0.3213
30960SOL     OW 4603   9.310   2.985   1.942 -0.1805 -0.0598 -0.3736
30960SOL    HW1 4604   9.322   3.073   1.978 -0.7796 -0.0940 -0.0715
30960SOL    HW2 4605   9.399   2.955   1.922  0.7087 -1.3041  4.1334
30961SOL     OW 4606   6.327   3.225   6.720  0.0375 -0.8447 -0.2743
30961SOL    HW1 4607   6.421   3.220   6.698 -0.2586  2.0888 -2.8823
30961SOL    HW2 4608   6.285   3.173   6.652 -0.3938  1.0894 -1.5430
30962SOL     OW 4609   0.050   9.059   6.360 -0.3800 -0.0707  0.5105
30962SOL    HW1 4610  -0.007   9.135   6.350  0.2209  0.5279  1.4405
30962SOL    HW2 4611   0.133   9.086   6.321 -0.0104 -0.0436  1.2896
30963SOL     OW 4612   0.407   6.039  11.230 -0.4841  0.0999 -0.1721
30963SOL    HW1 4613   0.378   6.007  11.315 -1.5203  0.9358 -0.1767
30963SOL    HW2 4614   0.329   6.031  11.174 -0.0771  0.3968 -0.7968
30964SOL     OW 4615   2.862  11.172   6.522 -0.1438  0.0215  0.6026
30964SOL    HW1 4616   2.915  11.096   6.494  1.0194  1.5022 -1.5389
30964SOL    HW2 4617   2.772  11.144   6.509  0.2835 -0.4835 -1.9233
30965SOL     OW 4618   6.135   8.655   4.056  0.5594  0.1706 -0.7383
30965SOL    HW1 4619   6.072   8.677   4.125  1.1861 -0.6710  0.1207
30965SOL    HW2 4620   6.136   8.559   4.055 -1.3431  0.0525 -3.6888
30966SOL     OW 4621   3.323   0.005   0.386  0.0564 -0.3620  0.1314
30966SOL    HW1 4622   3.292   0.043   0.469  2.3660 -1.0222  1.3880
30966SOL    HW2 4623   3.371  -0.074   0.412  2.7236  0.5454 -1.5474
30967SOL     OW 4624   9.709   7.636   1.251 -0.1650  0.1472 -0.3673
30967SOL    HW1 4625   9.626   7.675   1.225 -0.2141  0.1224 -0.2454
30967SOL    HW2 4626   9.774   7.702   1.228 -0.2085  0.1308 -0.5441
30968SOL     OW 4627   5.089   8.226  10.291 -0.0739 -0.2220  0.0135
30968SOL    HW1 4628   5.011   8.201  10.242 -0.6272 -0.7576  1.1363
30968SOL    HW2 4629   5.158   8.168  10.258 -0.2083  0.0458 -0.7610
30969SOL     OW 4630   2.765  10.354   4.578  0.2448 -1.2807 -0.4639
30969SOL    HW1 4631   2.841  10.355   4.636 -1.3477 -0.3550  1.7377
30969SOL    HW2 4632   2.772  10.435   4.527 -1.2358  0.9476  2.6021
30970SOL     OW 4633   2.520   8.635   4.746  0.2822 -0.9808 -0.5447
30970SOL    HW1 4634   2.475   8.654   4.664  0.8080 -1.2483 -0.8944
30970SOL    HW2 4635   2.591   8.575   4.722  2.4570  1.3801 -0.4492
30971SOL     OW 4636   3.931   9.384   7.089  0.5679 -0.4570 -0.3882
30971SOL    HW1 4637   4.003   9.342   7.137 -0.5244 -0.8066  1.0242
30971SOL    HW2 4638   3.859   9.321   7.094  0.3728 -0.4709 -2.4836
30972SOL     OW 4639   9.870   3.253   9.684 -0.6670 -0.3386  0.3276
30972SOL    HW1 4640   9.883   3.171   9.636 -2.5653 -0.1294 -0.6317
30972SOL    HW2 4641   9.947   3.305   9.663 -1.2263 -0.4269 -2.2220
30973SOL     OW 4642   2.449   3.192   3.398 -0.0367  0.2792  0.2537
30973SOL    HW1 4643   2.443   3.279   3.438  0.8287 -0.0530  1.1424
30973SOL    HW2 4644   2.511   3.144   3.453  0.3934 -0.5339 -0.8931
30974SOL     OW 4645  10.229   3.373   6.009 -0.4483  0.3448 -0.0023
30974SOL    HW1 4646  10.274   3.289   6.020 -0.7440 -0.2029 -2.5269
30974SOL    HW2 4647  10.136   3.351   6.007 -0.4832  0.5140 -1.9174
30975SOL     OW 4648  11.576   5.800   9.829  0.2751 -0.0455 -0.7437
30975SOL    HW1 4649  11.595   5.894   9.838  1.4822 -0.1637 -1.6787
30975SOL    HW2 4650  11.627   5.758   9.898  0.9230 -0.1062 -1.2417
30976SOL     OW 4651  10.305   0.766   6.974 -0.4301  0.1125  0.5490
30976SOL    HW1 4652  10.330   0.750   6.884 -0.6814 -1.4509  0.7345
30976SOL    HW2 4653  10.215   0.798   6.969 -1.1440 -1.8349  0.3327
30977SOL     OW 4654   4.307   3.500   6.839  0.3292  0.2659  0.0179
30977SOL    HW1 4655   4.261   3.503   6.755 -0.0376  0.3938  0.2179
30977SOL    HW2 4656   4.391   3.542   6.822  0.6644 -0.6113 -0.5285
30978SOL     OW 4657  10.576   8.773   5.598  0.0352 -0.1770 -0.1584
30978SOL    HW1 4658  10.518   8.849   5.588 -0.1554 -0.5579 -2.3323
30978SOL    HW2 4659  10.633   8.777   5.522  1.5918 -0.9352  0.9274
30979SOL     OW 4660   2.696  10.308   5.768 -0.0901  0.9844  0.3569
30979SOL    HW1 4661   2.775  10.344   5.728  0.1585  0.0197 -0.0498
30979SOL    HW2 4662   2.632  10.306   5.697 -0.0028  0.3477  0.2896
30980SOL     OW 4663  10.850   0.918  11.364  0.7392 -0.0821 -0.7429
30980SOL    HW1 4664  10.917   0.883  11.423 -1.4625 -0.9871  1.4452
30980SOL    HW2 4665  10.812   0.992  11.412  0.1918  0.4290 -1.9236
30981SOL     OW 4666   6.688  10.510   1.752 -0.0550 -0.3433  0.3700
30981SOL    HW1 4667   6.650  10.595   1.777 -1.0399 -0.8667  0.6953
30981SOL    HW2 4668   6.659  10.450   1.821  1.9109 -0.6531  0.9948
30982SOL     OW 4669   1.749   4.670   9.593 -0.0436  0.0932 -0.3703
30982SOL    HW1 4670   1.775   4.686   9.684  3.2030 -0.1827 -1.1465
30982SOL    HW2 4671   1.662   4.709   9.587 -0.8776 -0.8505  3.1131
30983SOL     OW 4672   0.571   8.769   5.995 -0.3723 -0.1995  0.2642
30983SOL    HW1 4673   0.556   8.793   5.903 -1.4520 -0.2717  0.4137
30983SOL    HW2 4674   0.548   8.676   5.999 -1.0987 -0.0026  0.7735
30984SOL     OW 4675   5.306  11.249   6.782  0.1050  0.7087  0.8478
30984SOL    HW1 4676   5.338  11.315   6.721  1.3228  0.8542  1.6092
30984SOL    HW2 4677   5.385  11.208   6.817 -0.6015 -1.6566 -0.1256
30985SOL     OW 4678   5.721   7.103   1.025 -0.2707 -0.1605 -0.3650
30985SOL    HW1 4679   5.627   7.114   1.006 -0.5577  0.0281  1.0278
30985SOL    HW2 4680   5.723   7.059   1.110  0.8848  0.9873  0.2448
30986SOL     OW 4681   5.230   3.311   9.650 -0.3404  0.5368 -0.3477
30986SOL    HW1 4682   5.221   3.295   9.744  2.0294  0.4486 -0.0820
30986SOL    HW2 4683   5.208   3.227   9.609 -1.9121  0.7229  0.0497
30987SOL     OW 4684   2.142   5.690   4.502  0.3021  0.2817  0.3688
30987SOL    HW1 4685   2.199   5.757   4.464  1.5683 -0.7039  0.4800
30987SOL    HW2 4686   2.085   5.664   4.430 -0.4875  1.7542  0.4303
30988SOL     OW 4687   2.719   2.954   1.056 -0.6096  0.1850  0.1439
30988SOL    HW1 4688   2.640   2.915   1.018 -1.3230  1.1341  0.5869
30988SOL    HW2 4689   2.707   2.946   1.150  0.9169 -1.7024  0.2440
30989SOL     OW 4690   0.933   6.818   6.028  0.6069  0.2106 -0.8440
30989SOL    HW1 4691   0.885   6.806   5.946  2.0546  0.0423 -1.7028
30989SOL    HW2 4692   0.880   6.881   6.077 -2.0171 -2.0995 -0.4330
30990SOL     OW 4693  10.809   3.042   2.128  0.0489  0.4414  0.2102
30990SOL    HW1 4694  10.869   2.999   2.189 -0.2281  1.4402  1.2502
30990SOL    HW2 4695  10.758   2.971   2.089  0.9473 -0.3018  0.3651
30991SOL     OW 4696  10.595   4.533   5.040 -0.1402  0.3399 -0.0900
30991SOL    HW1 4697  10.501   4.543   5.054 -0.0677 -0.6413  1.3420
30991SOL    HW2 4698  10.634   4.564   5.122  0.8300  1.1329 -0.8223
30992SOL     OW 4699   1.983   8.336  11.311 -0.4015  0.0323 -0.0765
30992SOL    HW1 4700   2.039   8.276  11.361  0.6648  2.8845  2.4613
30992SOL    HW2 4701   1.909   8.353  11.370  0.1716  2.4203  0.0436
30993SOL     OW 4702   6.615   9.936   2.341 -0.2834  0.1878  0.2947
30993SOL    HW1 4703   6.697   9.981   2.359  1.0228 -1.8182 -0.3239
30993SOL    HW2 4704   6.591   9.895   2.425 -0.5192  0.5334  0.4003
30994SOL     OW 4705   6.295   3.867   5.740  0.0023  0.1390  0.3752
30994SOL    HW1 4706   6.200   3.857   5.750 -0.6019  2.1088 -2.1839
30994SOL    HW2 4707   6.307   3.962   5.730  2.3496 -0.0098  1.3142
30995SOL     OW 4708   6.206   4.019   9.359  0.2883 -0.3365  0.1050
30995SOL    HW1 4709   6.184   4.046   9.269 -0.7024  0.7711  0.6600
30995SOL    HW2 4710   6.123   3.996   9.398  0.9499 -3.0468  0.0902
30996SOL     OW 4711  11.150   2.072  11.231 -0.2409 -0.0588 -0.0951
30996SOL    HW1 4712  11.064   2.085  11.192 -0.0693 -0.7241 -0.7223
30996SOL    HW2 4713  11.132   2.055  11.324 -0.8357 -0.7713 -0.3295
30997SOL     OW 4714   5.258   5.760   5.106  0.1940  0.2585 -0.1144
30997SOL    HW1 4715   5.234   5.728   5.019 -1.0925  0.1091  0.2889
30997SOL    HW2 4716   5.208   5.841   5.116 -1.9543 -1.2050  1.6327
30998SOL     OW 4717   0.098  11.425   6.698 -0.0717  0.4420 -0.4375
30998SOL    HW1 4718   0.138  11.482   6.632  0.7411  1.6864  1.0616
30998SOL    HW2 4719   0.156  11.349   6.703 -0.1986  0.2815 -1.1963
30999SOL     OW 4720   3.460   0.207   9.286  0.1163 -0.1242 -0.7836
30999SOL    HW1 4721   3.502   0.121   9.278 -0.2471 -0.3901  0.0858
30999SOL    HW2 4722   3.457   0.240   9.196 -0.0331 -1.1600 -1.1709
31000SOL     OW 4723  11.745  11.276   7.453  0.3343  0.2757 -0.2314
31000SOL    HW1 4724  11.778  11.366   7.443  2.1216 -0.4316 -1.2135
31000SOL    HW2 4725  11.805  11.223   7.400 -0.2046 -1.6059  0.9507
31001SOL     OW 4726   4.967   0.699   7.449 -0.4196 -0.0262 -0.3256
31001SOL    HW1 4727   4.930   0.687   7.537 -0.7748  0.2606 -0.4332
31001SOL    HW2 4728   4.916   0.641   7.393 -1.0197  0.7121 -0.5539
31002SOL     OW 4729   0.769   4.514  11.298  0.1584 -0.3145  0.0294
31002SOL    HW1 4730   0.733   4.433  11.264  0.3345 -0.1686 -0.5063
31002SOL    HW2 4731   0.764   4.504  11.393  0.8791 -1.2671 -0.0245
31003SOL     OW 4732  11.562   0.626  10.070 -0.7911 -0.4026  0.1811
31003SOL    HW1 4733  11.497   0.566  10.107 -0.4735 -0.2124  1.0862
31003SOL    HW2 4734  11.618   0.649  10.144 -0.0638 -0.0783 -0.4519
31004SOL     OW 4735   4.954   3.163   2.991 -0.0134  0.1426 -0.0575
31004SOL    HW1 4736   5.003   3.159   2.909 -0.6108  0.6500 -0.4476
31004SOL    HW2 4737   4.925   3.072   3.006  1.0655 -0.1660  0.1978
31005SOL     OW 4738   8.174   4.108   7.591 -0.1748  0.4012 -0.1236
31005SOL    HW1 4739   8.145   4.119   7.500  1.1624  0.2466 -0.5985
31005SOL    HW2 4740   8.185   4.013   7.601  1.8015  0.5417 -0.5390
31006SOL     OW 4741   8.733   5.942   9.001  0.1224 -0.8692 -0.0124
31006SOL    HW1 4742   8.748   6.025   8.955 -0.3547 -1.1050 -0.6080
31006SOL    HW2 4743   8.761   5.875   8.938 -1.9909 -1.2638 -0.5902
31007SOL     OW 4744   6.356   1.451   1.724 -0.1270 -0.3719  0.2360
31007SOL    HW1 4745   6.281   1.485   1.773  0.3123  0.8987  0.0565
31007SOL    HW2 4746   6.407   1.404   1.789 -0.1963  0.2296  0.7338
31008SOL     OW 4747   5.374  11.311   8.107  0.6245  1.0270  0.2146
31008SOL    HW1 4748   5.363  11.291   8.200  2.3229  1.8406  0.6240
31008SOL    HW2 4749   5.286  11.304   8.071  0.1875 -1.1048  1.4988
31009SOL     OW 4750   2.670   0.482   3.343 -0.3500  0.0885  0.2616
31009SOL    HW1 4751   2.714   0.518   3.420 -1.4331  0.0359  0.9180
31009SOL    HW2 4752   2.702   0.535   3.271 -0.2307  0.9117  0.9068
31010SOL     OW 4753   4.324   6.400   7.731  0.0958  1.0246 -0.2718
31010SOL    HW1 4754   4.299   6.315   7.695  0.0223  0.0299  1.9415
31010SOL    HW2 4755   4.263   6.462   7.691 -0.5163 -0.1129 -1.1590
31011SOL     OW 4756   0.537   4.157   9.121 -0.8232  0.0752 -0.0676
31011SOL    HW1 4757   0.464   4.187   9.066 -1.2404  1.7765  1.3266
31011SOL    HW2 4758   0.498   4.144   9.207  0.2795 -0.3116  0.3882
31012SOL     OW 4759  10.024   0.275   8.673  0.2513 -0.2098  0.1373
31012SOL    HW1 4760  10.070   0.342   8.623 -0.4331 -1.1768 -1.8879
31012SOL    HW2 4761   9.935   0.309   8.684  0.5807  0.3212  1.4193
31013SOL     OW 4762   2.945   8.318   4.773  0.3277  0.6159  0.0491
31013SOL    HW1 4763   3.004   8.263   4.824  0.0250 -2.0724 -2.2482
31013SOL    HW2 4764   2.994   8.399   4.759  1.5276  0.3167  2.1119
31014SOL     OW 4765   9.759   1.072   5.667 -0.3858  0.0680  0.0085
31014SOL    HW1 4766   9.720   1.083   5.754  1.3591  0.0459  0.8340
31014SOL    HW2 4767   9.685   1.048   5.611 -1.6651  0.7216  1.3345
31015SOL     OW 4768   3.453  10.555   6.125  0.1640  0.3115  0.2140
31015SOL    HW1 4769   3.402  10.480   6.155  1.9235 -2.0456 -2.2072
31015SOL    HW2 4770   3.491  10.592   6.204  1.4628 -3.1336  1.3507
31016SOL     OW 4771   2.693  10.272   5.261  0.0072  0.1778  0.2146
31016SOL    HW1 4772   2.754  10.334   5.221  1.4228 -1.2073  0.1294
31016SOL    HW2 4773   2.641  10.239   5.187  1.0288 -0.6451 -0.1542
31017SOL     OW 4774   4.489   3.888  10.714  0.6091  0.2215  0.1576
31017SOL    HW1 4775   4.499   3.894  10.809 -0.1478  1.2392  0.1856
31017SOL    HW2 4776   4.401   3.853  10.702 -0.8157  3.5709 -0.1546
31018SOL     OW 4777   7.977   4.564   4.150  0.3090  0.0062  0.1748
31018SOL    HW1 4778   8.006   4.518   4.072  0.1234 -2.4456  1.4361
31018SOL    HW2 4779   7.993   4.502   4.222 -0.4327  1.7561  1.9585
31019SOL     OW 4780   8.562   7.982   4.859  0.2571 -0.2757 -0.0930
31019SOL    HW1 4781   8.584   7.902   4.907 -0.1721  0.1718  0.8838
31019SOL    HW2 4782   8.481   8.013   4.900 -0.0971  0.1540 -1.0861
31020SOL     OW 4783   6.821   5.644   2.611 -0.0966 -0.4507  0.2420
31020SOL    HW1 4784   6.896   5.646   2.670  0.5873 -1.2618 -0.5658
31020SOL    HW2 4785   6.753   5.598   2.660 -0.5772  1.5093  1.5149
31021SOL     OW 4786   9.280  11.091   5.104 -0.0619  0.2042  0.4978
31021SOL    HW1 4787   9.361  11.139   5.090  0.3047 -0.4199  0.4617
31021SOL    HW2 4788   9.219  11.127   5.039  0.9485 -1.1097 -1.2700
31022SOL     OW 4789   7.164   8.687  11.414  0.2614 -0.2971  0.0198
31022SOL    HW1 4790   7.192   8.638  11.491  1.7330  1.7093  0.8583
31022SOL    HW2 4791   7.144   8.775  11.447  1.0704  0.6580 -1.8829
31023SOL     OW 4792   6.918   0.825   5.954 -0.3321  0.4465  0.1189
31023SOL    HW1 4793   6.886   0.809   6.043  2.2759 -0.2392  1.0228
31023SOL    HW2 4794   6.890   0.748   5.904 -0.5998  0.1493  0.7210
31024SOL     OW 4795   2.225   4.470   7.341  0.3196  0.4076  0.3049
31024SOL    HW1 4796   2.221   4.509   7.254  0.4341 -0.2038  0.0142
31024SOL    HW2 4797   2.138   4.429   7.353 -0.7374  2.8433  1.6443
31025SOL     OW 4798  11.625   0.284   0.485 -0.0970 -0.2632  0.2609
31025SOL    HW1 4799  11.698   0.258   0.540 -1.1682  0.5532  2.1716
31025SOL    HW2 4800  11.632   0.228   0.407  1.7753 -1.0932  0.9767
31026SOL     OW 4801   7.507   0.182   8.760 -0.3735  0.3570 -0.2684
31026SOL    HW1 4802   7.496   0.249   8.828 -0.8353  0.6245 -0.5995
31026SOL    HW2 4803   7.514   0.099   8.809  1.3463  0.7458  0.2011
31027SOL     OW 4804   8.905   8.696   1.190 -0.3242 -0.1331  0.6812
31027SOL    HW1 4805   8.908   8.751   1.112 -0.4084 -0.3790  0.5013
31027SOL    HW2 4806   8.869   8.613   1.159  0.3209 -0.4798  0.8297
31028SOL     OW 4807   7.110   5.440   3.852  0.0197  0.0709  0.2995
31028SOL    HW1 4808   7.163   5.517   3.876  2.5283 -1.2986 -0.4546
31028SOL    HW2 4809   7.093   5.451   3.759 -0.5635  0.2327  0.4238
31029SOL     OW 4810   1.156   6.567  11.908  0.4121  0.1114  0.3572
31029SOL    HW1 4811   1.149   6.546  11.815  1.0599 -0.1010  0.3521
31029SOL    HW2 4812   1.219   6.640  11.911 -1.2437  1.5939  0.4344
31030SOL     OW 4813  10.375   2.736   1.815 -0.6406 -0.0627  0.0144
31030SOL    HW1 4814  10.309   2.788   1.860  0.4607 -0.3979  2.1345
31030SOL    HW2 4815  10.389   2.660   1.872  1.6333  0.0547 -0.2695
31031SOL     OW 4816   1.945  10.226   7.703  0.2896 -0.0241 -0.1196
31031SOL    HW1 4817   1.907  10.160   7.761 -1.7178 -0.4671 -1.8237
31031SOL    HW2 4818   1.949  10.306   7.756 -1.2996 -0.4545  0.6976
31032SOL     OW 4819   1.955   3.955   9.484 -0.2356 -0.1803 -0.0363
31032SOL    HW1 4820   1.877   3.955   9.539  0.6046 -0.2472  1.2101
31032SOL    HW2 4821   2.016   3.896   9.529  1.7648  2.3653  0.9070
31033SOL     OW 4822   5.742   1.945   5.498 -0.2215 -0.2171  0.7599
31033SOL    HW1 4823   5.705   1.874   5.551  1.7713 -1.8152  0.1369
31033SOL    HW2 4824   5.783   2.003   5.563 -0.3110 -0.5942  1.1623
31034SOL     OW 4825   3.168   2.203   5.555 -0.3844  0.3699 -0.1613
31034SOL    HW1 4826   3.139   2.112   5.554  1.7632 -0.3679 -0.1216
31034SOL    HW2 4827   3.146   2.234   5.643  0.8411 -0.8279  0.6091
31035SOL     OW 4828   1.807   5.828  10.630 -0.1467 -0.5798  0.4257
31035SOL    HW1 4829   1.855   5.886  10.570 -2.4561  0.4911 -0.5092
31035SOL    HW2 4830   1.758   5.770  10.573 -0.0165 -1.6333  1.3565
31036SOL     OW 4831   5.765   4.379   6.078 -0.3159  0.2504 -0.2679
31036SOL    HW1 4832   5.697   4.436   6.042  0.2309  0.5334 -0.8735
31036SOL    HW2 4833   5.746   4.376   6.172 -2.9250 -2.0274 -0.7211
31037SOL     OW 4834  10.378  11.698  10.582  0.1633 -0.3175 -0.3055
31037SOL    HW1 4835  10.369  11.647  10.501  2.6185 -0.8709 -0.3053
31037SOL    HW2 4836  10.450  11.758  10.564  0.3226 -0.0025  1.2602
31038SOL     OW 4837   1.727   5.543   9.369  0.0692 -0.1773 -0.3774
31038SOL    HW1 4838   1.807   5.522   9.415  0.2626 -0.5537 -0.8785
31038SOL    HW2 4839   1.694   5.622   9.413  0.3904 -0.3682  0.2131
31039SOL     OW 4840  10.031   6.996   9.244  0.3896 -0.4503 -0.0178
31039SOL    HW1 4841  10.110   7.045   9.270  2.0760 -3.8223  1.8005
31039SOL    HW2 4842   9.964   7.023   9.307  0.4508  1.3456 -0.6618
31040SOL     OW 4843   3.095   2.033  10.637 -0.8460 -0.5863 -0.6196
31040SOL    HW1 4844   3.118   2.083  10.559  1.8742  1.1127  1.1063
31040SOL    HW2 4845   3.144   1.952  10.629  0.6743  0.2410 -0.0246
31041SOL     OW 4846   7.215   8.848   1.975  0.0888  0.9961 -0.1878
31041SOL    HW1 4847   7.206   8.807   1.888  0.9272  0.4313 -0.0201
31041SOL    HW2 4848   7.259   8.931   1.958  0.3043  0.8605 -0.2995
31042SOL     OW 4849   5.949  11.041  11.160 -0.2973 -0.6904 -0.0950
31042SOL    HW1 4850   5.957  11.137  11.158 -0.2563 -0.6420  1.1725
31042SOL    HW2 4851   6.031  11.009  11.122 -0.6101 -0.2404 -1.1949
31043SOL     OW 4852  11.647   0.763   6.917 -0.8642 -0.3689  0.6660
31043SOL    HW1 4853  11.668   0.848   6.956 -1.0342 -0.8320  1.8231
31043SOL    HW2 4854  11.729   0.713   6.922 -0.9587 -0.5238  0.6922
31044SOL     OW 4855   7.447   7.152   0.775  0.4078 -0.3670 -0.5065
31044SOL    HW1 4856   7.392   7.230   0.774  1.8261  0.7109  0.3794
31044SOL    HW2 4857   7.536   7.186   0.788  0.9444 -2.1762  1.1108
31045SOL     OW 4858   8.955   0.979   9.572  0.2874  0.3036 -0.3968
31045SOL    HW1 4859   8.879   0.927   9.598  0.7973 -0.4241 -0.3207
31045SOL    HW2 4860   8.934   1.012   9.485 -0.9199  1.7297  0.3883
31046SOL     OW 4861   2.054   9.143  11.864  0.3805 -0.0215 -0.0534
31046SOL    HW1 4862   2.088   9.056  11.884  1.1673  0.5861  1.3305
31046SOL    HW2 4863   1.995   9.163  11.937 -1.2522 -0.1153 -1.2767
31047SOL     OW 4864  10.285  10.426   5.839 -0.2664  0.0634 -0.2929
31047SOL    HW1 4865  10.312  10.412   5.930 -1.0674  0.1401 -0.0339
31047SOL    HW2 4866  10.189  10.421   5.842 -0.2988 -3.5649 -1.6867
31048SOL     OW 4867  11.746   1.733   4.034 -0.0577 -0.4017  0.4971
31048SOL    HW1 4868  11.824   1.763   3.988 -0.2489 -0.3139  0.2289
31048SOL    HW2 4869  11.673   1.763   3.980 -0.3430  0.9868  1.5892
31049SOL     OW 4870  11.869   3.463   9.794 -0.0414  0.6065  0.0185
31049SOL    HW1 4871  11.902   3.514   9.868  1.5253 -0.5738  0.2035
31049SOL    HW2 4872  11.873   3.523   9.720  1.2522  0.9468  0.3327
31050SOL     OW 4873  11.110   2.388   7.258  0.0049  0.2436  0.5252
31050SOL    HW1 4874  11.016   2.392   7.244 -0.3877 -0.8734  2.4868
31050SOL    HW2 4875  11.120   2.361   7.350  2.2233 -0.0582  0.2594
31051SOL     OW 4876   2.966  11.021   9.003  0.2667 -0.3261  0.4129
31051SOL    HW1 4877   3.014  10.975   9.071 -0.8577 -1.8391  0.2054
31051SOL    HW2 4878   2.878  11.032   9.038  0.5450  1.9541  0.5634
31052SOL     OW 4879   5.531   5.803   7.729  0.1269 -0.2668 -0.1620
31052SOL    HW1 4880   5.614   5.848   7.746  0.1039 -0.7875  1.4715
31052SOL    HW2 4881   5.464   5.869   7.751  0.0935 -0.1207 -0.6846
31053SOL     OW 4882   4.057   2.451   5.099 -0.7827 -0.3405  0.1244
31053SOL    HW1 4883   4.063   2.537   5.058  0.5238 -0.1446  0.6839
31053SOL    HW2 4884   3.963   2.441   5.118 -0.8923  1.2213  0.5970
31054SOL     OW 4885   7.070   9.198   9.369 -0.2480 -0.5233 -0.2789
31054SOL    HW1 4886   7.161   9.225   9.352 -0.2775  0.3084  0.7715
31054SOL    HW2 4887   7.031   9.273   9.413 -1.6323 -0.6528 -1.2174
31055SOL     OW 4888   3.623  11.094   6.052  0.2551 -0.0302  0.1852
31055SOL    HW1 4889   3.546  11.067   6.002 -0.0930  0.9092  0.1938
31055SOL    HW2 4890   3.695  11.045   6.014 -0.1379  0.0651 -0.7080
31056SOL     OW 4891   2.137   4.130   5.931  0.3722  0.3111 -0.0238
31056SOL    HW1 4892   2.170   4.216   5.956  3.3941 -0.6254 -0.4279
31056SOL    HW2 4893   2.121   4.085   6.014 -0.2556  0.8906  0.1797
31057SOL     OW 4894   3.602  11.822   8.357  0.0870  0.6410  0.3043
31057SOL    HW1 4895   3.621  11.800   8.266  1.6975 -0.3894  0.8486
31057SOL    HW2 4896   3.507  11.833   8.359 -0.1333 -0.4940 -1.2531
31058SOL     OW 4897   7.755   3.228   9.700 -0.2828 -0.2596 -0.2152
31058SOL    HW1 4898   7.676   3.262   9.658 -0.8473 -0.7612  0.4128
31058SOL    HW2 4899   7.783   3.299   9.758  0.2055  0.2342 -1.0363
31059SOL     OW 4900   4.433  11.123   8.173 -0.3466  0.5342 -0.0577
31059SOL    HW1 4901   4.383  11.169   8.105  1.0782  0.9389 -0.8626
31059SOL    HW2 4902   4.366  11.094   8.236 -1.7665 -0.2708 -1.8431
31060SOL     OW 4903   7.018  11.897   4.549 -0.5377 -0.6066 -0.4312
31060SOL    HW1 4904   7.012  11.881   4.644  1.6344 -1.3092 -0.3485
31060SOL    HW2 4905   6.987  11.815   4.509  0.3049 -1.0297 -0.2519
31061SOL     OW 4906   5.992  11.942   9.935 -0.4677 -0.0602 -0.8470
31061SOL    HW1 4907   5.961  12.021   9.891  1.1287 -0.2469 -2.4380
31061SOL    HW2 4908   6.080  11.964   9.966 -1.5225  0.0809  2.4793
31062SOL     OW 4909   5.849  11.651   0.462 -0.2862 -0.2127  0.3358
31062SOL    HW1 4910   5.879  11.645   0.553  0.2900 -1.5440  0.0900
31062SOL    HW2 4911   5.874  11.567   0.424  2.4330  1.4550 -1.9352
31063SOL     OW 4912  10.360   5.946   4.946 -0.6534 -0.0727 -0.2425
31063SOL    HW1 4913  10.453   5.961   4.959 -0.3214 -2.0251 -0.0136
31063SOL    HW2 4914  10.349   5.939   4.851  0.0166 -2.7205 -0.2002
31064SOL     OW 4915   6.515   8.862   3.097  0.6625  0.2166  0.0354
31064SOL    HW1 4916   6.563   8.941   3.121  0.7089 -0.6469  3.1934
31064SOL    HW2 4917   6.583   8.798   3.076  0.7347  0.2564  0.1500
31065SOL     OW 4918   1.064   3.469  10.786  0.5126  0.8030  0.2223
31065SOL    HW1 4919   1.035   3.377  10.786  0.8259  0.6862 -1.1678
31065SOL    HW2 4920   0.988   3.518  10.755  0.3135  1.0358  1.0607
31066SOL     OW 4921   4.325   1.767   9.503  0.0070  0.5284 -0.5809
31066SOL    HW1 4922   4.340   1.686   9.551 -0.0956  0.2607 -0.9986
31066SOL    HW2 4923   4.399   1.774   9.443 -0.1606  0.5731 -0.7823
31067SOL     OW 4924   3.313   3.073   3.271  0.3154  0.1989  0.5533
31067SOL    HW1 4925   3.280   2.989   3.241 -0.4526  0.5268  0.4619
31067SOL    HW2 4926   3.357   3.053   3.353 -1.2349 -0.0723  1.3611
31068SOL     OW 4927   5.947   3.533   5.613 -0.1353  0.2052 -0.5774
31068SOL    HW1 4928   5.994   3.613   5.588 -1.4379  0.3634 -2.7499
31068SOL    HW2 4929   5.863   3.540   5.569  0.1280 -2.9094 -1.8155
31069SOL     OW 4930   0.494   5.291   6.771 -0.5050 -0.0312 -0.4960
31069SOL    HW1 4931   0.489   5.239   6.851  0.6794 -0.4237 -0.6651
31069SOL    HW2 4932   0.473   5.380   6.800  0.8677  0.0200  0.4702
31070SOL     OW 4933   0.988   2.778  11.177  0.7197 -0.0080  0.3310
31070SOL    HW1 4934   0.903   2.736  11.163  1.4018 -0.9456 -1.2612
31070SOL    HW2 4935   1.020   2.797  11.089  2.1194  0.4512  0.9128
31071SOL     OW 4936   3.007   5.486   5.061  0.3663 -0.3170  0.1354
31071SOL    HW1 4937   2.998   5.569   5.013  2.5105 -0.5408 -0.7599
31071SOL    HW2 4938   2.921   5.445   5.052 -0.3245  1.1734 -0.5937
31072SOL     OW 4939   1.710   3.240  10.020 -0.0707 -0.3122  0.1737
31072SOL    HW1 4940   1.712   3.181   9.945  0.0766 -1.1097  0.7921
31072SOL    HW2 4941   1.747   3.189  10.091 -0.6958  0.2560  0.9232
31073SOL     OW 4942   2.465   7.266   7.495 -0.0559  0.6499 -0.1046
31073SOL    HW1 4943   2.523   7.199   7.531 -0.0671  1.2511  1.1129
31073SOL    HW2 4944   2.494   7.347   7.538 -0.4657  1.3104 -1.0469
31074SOL     OW 4945   7.638   1.215   4.598 -0.2558  0.3671 -0.1753
31074SOL    HW1 4946   7.619   1.219   4.504  0.3545  1.8149 -0.2680
31074SOL    HW2 4947   7.733   1.207   4.602 -0.2912  0.1709  0.3340
31075SOL     OW 4948  10.950   0.343   6.298  0.6880 -0.4502 -0.3003
31075SOL    HW1 4949  10.925   0.430   6.329  0.7795 -0.7834  0.7497
31075SOL    HW2 4950  11.018   0.314   6.359  0.6705 -1.2580 -0.6466
31076SOL     OW 4951   1.084   1.487   1.296 -0.2046 -0.0012 -0.0507
31076SOL    HW1 4952   1.157   1.447   1.249  0.9982  0.8244  1.0612
31076SOL    HW2 4953   1.006   1.451   1.253  0.8235 -1.7265 -0.5906
31077SOL     OW 4954   3.072   6.994   8.025  0.0179  0.0602  0.4289
31077SOL    HW1 4955   3.043   7.083   8.009 -3.1284 -1.0808 -1.0030
31077SOL    HW2 4956   3.079   6.954   7.938  0.4177 -1.3663  1.0697
31078SOL     OW 4957   4.338   7.256   2.286 -0.3442  0.2038 -0.2302
31078SOL    HW1 4958   4.260   7.232   2.236 -0.6275 -1.0604  0.7422
31078SOL    HW2 4959   4.304   7.277   2.373  0.4750 -1.7737  0.6420
31079SOL     OW 4960   7.431   8.709   7.180  0.4699 -0.3130 -0.0371
31079SOL    HW1 4961   7.494   8.637   7.171  0.9888  0.0377  0.7097
31079SOL    HW2 4962   7.354   8.669   7.220  0.6451 -0.5201  0.0973
31080SOL     OW 4963   8.038  11.371   8.950  0.6424  0.1837 -0.4923
31080SOL    HW1 4964   8.003  11.313   8.881  1.5154  0.9862 -1.6555
31080SOL    HW2 4965   8.065  11.450   8.903  1.6750  0.5805  0.7307
31081SOL     OW 4966   3.305   9.220   6.634  0.1670 -0.1461  0.3648
31081SOL    HW1 4967   3.229   9.269   6.601 -0.1845 -1.2680 -0.5787
31081SOL    HW2 4968   3.323   9.156   6.566 -0.1895 -2.1809  2.0999
31082SOL     OW 4969  11.108   0.045  10.601 -0.2675  0.6039  0.0176
31082SOL    HW1 4970  11.159   0.041  10.520 -0.6832 -1.1928 -0.2044
31082SOL    HW2 4971  11.167   0.083  10.666  0.6318  0.5069 -0.7300
31083SOL     OW 4972  10.727   7.550   5.286  0.4008 -0.5590  0.4753
31083SOL    HW1 4973  10.650   7.494   5.277 -1.8877  2.2794  0.8487
31083SOL    HW2 4974  10.733   7.566   5.381  1.2430 -0.4773  0.4129
31084SOL     OW 4975   2.637   1.167   9.339 -0.3006 -0.0509  0.2690
31084SOL    HW1 4976   2.575   1.096   9.355  2.0111 -2.5981 -1.1017
31084SOL    HW2 4977   2.621   1.193   9.248  1.5163 -1.8372 -0.6392
31085SOL     OW 4978   2.599   0.252   2.612  0.6399 -0.2828 -0.3940
31085SOL    HW1 4979   2.602   0.213   2.699 -0.2993  0.6182  0.0658
31085SOL    HW2 4980   2.615   0.179   2.552 -1.7735 -1.5653  0.4006
31086SOL     OW 4981   6.761  10.657   9.229 -0.4826 -0.2233  0.4064
31086SOL    HW1 4982   6.669  10.631   9.242 -0.8839  0.7057 -0.4248
31086SOL    HW2 4983   6.756  10.734   9.172  0.7589  0.4111  1.0998
31087SOL     OW 4984   8.092  10.302   1.332 -0.3204  0.3971 -0.0090
31087SOL    HW1 4985   8.149  10.311   1.409  0.1517  1.1776 -0.4342
31087SOL    HW2 4986   8.092  10.208   1.313 -3.0189 -0.3351  2.8483
31088SOL     OW 4987   5.467   8.607   6.492 -0.3430 -0.0338 -0.0361
31088SOL    HW1 4988   5.522   8.610   6.570 -1.1870 -2.1565  0.7145
31088SOL    HW2 4989   5.429   8.694   6.486  2.6323  1.3690 -0.3072
31089SOL     OW 4990   7.131   8.189  11.069  0.1557  0.2714  0.0669
31089SOL    HW1 4991   7.157   8.103  11.034 -0.2731  0.1687 -0.0033
31089SOL    HW2 4992   7.143   8.249  10.996 -0.0905  0.1710 -0.0588
31090SOL     OW 4993   1.847   6.753   1.818  0.7077 -0.4137 -0.3536
31090SOL    HW1 4994   1.862   6.693   1.745  0.7945 -1.2306  0.3365
31090SOL    HW2 4995   1.821   6.698   1.891 -0.4774  0.4925 -0.0484
31091SOL     OW 4996   2.351  10.256  11.742 -0.0559 -0.4931  0.0398
31091SOL    HW1 4997   2.435  10.300  11.752 -0.0286 -0.2325 -1.1424
31091SOL    HW2 4998   2.317  10.248  11.831  1.2910 -0.7533  0.5524
31092SOL     OW 4999   3.643  11.654   7.235  0.3805  0.0362 -0.5495
31092SOL    HW1 5000   3.715  11.594   7.218  1.0667  0.6982 -0.0016
31092SOL    HW2 5001   3.660  11.730   7.179  0.3275  0.3632 -0.1338
31093SOL     OW 5002  11.431   3.908  11.842  0.2237  0.4727  0.4385
31093SOL    HW1 5003  11.369   3.946  11.905  0.7272  1.5007  0.3280
31093SOL    HW2 5004  11.394   3.822  11.822 -1.1687  1.0385  0.4107
31094SOL     OW 5005  10.503   4.453   2.496 -0.0792 -0.3968 -0.9196
31094SOL    HW1 5006  10.552   4.479   2.574 -1.8477 -2.7497  1.1573
31094SOL    HW2 5007  10.554   4.379   2.460 -0.5605 -0.9568 -0.4686
31095SOL     OW 5008   8.392   0.090   5.790 -0.2462 -0.5432  0.3481
31095SOL    HW1 5009   8.479   0.054   5.774  0.0099 -0.4450  1.4231
31095SOL    HW2 5010   8.381   0.158   5.723  0.0496 -1.2825 -0.4714
31096SOL     OW 5011   5.886   7.183   9.255  0.9519 -0.7553  0.0286
31096SOL    HW1 5012   5.942   7.176   9.178  1.3916  0.0378  0.2623
31096SOL    HW2 5013   5.941   7.225   9.322 -0.3308  1.5576 -0.2293
31097SOL     OW 5014   9.121  10.739   5.343  0.2082 -0.1054  0.6277
31097SOL    HW1 5015   9.200  10.722   5.394 -0.0142  2.4123  1.9581
31097SOL    HW2 5016   9.153  10.760   5.255  1.0757  0.8422  1.1411
31098SOL     OW 5017   8.643  10.724   8.170 -0.1744 -0.0686 -0.5580
31098SOL    HW1 5018   8.728  10.739   8.129  0.9142  0.2643  1.6782
31098SOL    HW2 5019   8.631  10.629   8.167 -0.0877 -0.0599 -1.5123
31099SOL     OW 5020   1.608   4.817  10.237 -0.5847 -0.1779  0.8512
31099SOL    HW1 5021   1.620   4.863  10.320  0.3495 -0.1980  0.7376
31099SOL    HW2 5022   1.632   4.727  10.256  0.1207 -0.0830  0.4487
31100SOL     OW 5023   9.291   4.379  10.152  0.1814  0.5107 -0.7115
31100SOL    HW1 5024   9.306   4.472  10.139 -1.8028  0.9152 -0.4867
31100SOL    HW2 5025   9.329   4.359  10.237  0.5236  1.1272 -0.7191
31101SOL     OW 5026   5.713   7.859   8.103  0.0218  0.8153  0.4092
31101SOL    HW1 5027   5.786   7.837   8.161  0.0797  1.0377  0.4194
31101SOL    HW2 5028   5.726   7.951   8.081 -0.1070  0.7832  0.1963
31102SOL     OW 5029   0.226   4.181   5.846  0.0351 -0.2484  0.2158
31102SOL    HW1 5030   0.299   4.232   5.882  0.7185 -0.6158 -0.6240
31102SOL    HW2 5031   0.232   4.097   5.892  0.7338 -0.6161 -0.5249
31103SOL     OW 5032   2.211   3.369   3.196 -0.0227  0.4801 -0.4485
31103SOL    HW1 5033   2.221   3.275   3.189  0.5465  0.4196  0.9018
31103SOL    HW2 5034   2.125   3.381   3.237  0.5643  0.4597  0.8487
31104SOL     OW 5035   2.993   1.133   0.755 -0.0998  0.0250 -0.0023
31104SOL    HW1 5036   3.076   1.150   0.711 -0.1221 -0.6193 -0.3090
31104SOL    HW2 5037   2.975   1.213   0.805  0.6123  0.2379 -0.0759
31105SOL     OW 5038   7.687   5.790   6.731  0.6772 -0.0750  0.1648
31105SOL    HW1 5039   7.771   5.826   6.703  0.0462 -0.1475 -2.0383
31105SOL    HW2 5040   7.656   5.739   6.656 -2.8529  2.6697 -0.5153
31106SOL     OW 5041  10.267   4.804   8.666  0.0053 -1.0191 -0.3362
31106SOL    HW1 5042  10.204   4.745   8.709 -0.7522  0.8298  1.2421
31106SOL    HW2 5043  10.341   4.807   8.727 -0.1583 -0.0362 -0.1719
31107SOL     OW 5044  10.862   0.955   9.229  0.1558  0.9013  0.1086
31107SOL    HW1 5045  10.858   1.044   9.263  1.4001  0.1385  2.4418
31107SOL    HW2 5046  10.882   0.901   9.305 -0.6489 -1.4066 -1.2218
31108SOL     OW 5047   6.680  11.764   6.528  0.6544  0.8030 -0.0691
31108SOL    HW1 5048   6.620  11.806   6.467  0.7774  2.9382  1.1528
31108SOL    HW2 5049   6.727  11.837   6.569  0.5588 -0.4921  2.5678
31109SOL     OW 5050   6.993   2.764  10.034  0.0996 -0.4807 -0.8985
31109SOL    HW1 5051   6.981   2.807   9.950  2.3845  1.4869 -0.3106
31109SOL    HW2 5052   7.057   2.695  10.017  0.5101 -0.1266 -0.8191
31110SOL     OW 5053   8.210   0.634   5.850  0.0916 -0.3265 -0.0378
31110SOL    HW1 5054   8.268   0.691   5.902 -0.1012 -0.4212  0.2849
31110SOL    HW2 5055   8.197   0.682   5.768 -0.8880  0.5882  0.6272
31111SOL     OW 5056   5.445   7.619   9.198  0.1327 -0.4656  0.4607
31111SOL    HW1 5057   5.369   7.654   9.152 -0.1171 -1.5584  0.0198
31111SOL    HW2 5058   5.474   7.691   9.254  0.4716  0.8971 -1.4003
31112SOL     OW 5059   9.190   3.991   5.665 -0.3721 -0.0070  0.4417
31112SOL    HW1 5060   9.254   4.053   5.701 -0.3820 -0.0496  0.5317
31112SOL    HW2 5061   9.154   4.036   5.589  0.1686 -0.2006  0.0592
31113SOL     OW 5062   6.511   3.860   0.251  0.1527  0.3429  0.2075
31113SOL    HW1 5063   6.548   3.852   0.163  0.7356 -0.6712  0.5243
31113SOL    HW2 5064   6.444   3.928   0.243 -0.7861 -0.6902 -1.3639
31114SOL     OW 5065   5.229   2.842   8.906 -0.0184  0.1187  0.0505
31114SOL    HW1 5066   5.318   2.806   8.899  0.2015  0.8983 -1.7611
31114SOL    HW2 5067   5.201   2.854   8.815 -2.1517 -0.4678  0.5791
31115SOL     OW 5068   3.333   7.503   0.284 -0.0175  0.2449 -0.2111
31115SOL    HW1 5069   3.352   7.546   0.200  0.7695  0.5004  0.0924
31115SOL    HW2 5070   3.276   7.429   0.261 -1.6146  1.5651 -0.7196
31116SOL     OW 5071   5.930   0.878   3.747  0.1937  0.0423  0.3934
31116SOL    HW1 5072   5.935   0.960   3.796  2.0460  0.2176 -0.0155
31116SOL    HW2 5073   5.925   0.904   3.655 -1.7668 -0.3079  0.3558
31117SOL     OW 5074   4.218   6.186   0.588 -0.5398 -0.4229 -0.0111
31117SOL    HW1 5075   4.255   6.234   0.662 -1.2192  2.0215 -1.1801
31117SOL    HW2 5076   4.131   6.161   0.618 -0.3533 -0.5517  0.4408
31118SOL     OW 5077   9.505   2.751   3.482  0.0600  0.1010 -0.0532
31118SOL    HW1 5078   9.506   2.808   3.559  1.4982  0.1173 -0.0639
31118SOL    HW2 5079   9.437   2.788   3.425  0.2336  1.1567  0.4147
31119SOL     OW 5080   7.670   1.461   8.422 -0.0327  0.7644  0.4336
31119SOL    HW1 5081   7.668   1.527   8.492 -0.5265  0.7175  0.4677
31119SOL    HW2 5082   7.579   1.456   8.392  0.2706  1.2082 -0.6095
31120SOL     OW 5083   0.073   5.348   0.734 -0.4798  0.5112 -0.2176
31120SOL    HW1 5084   0.020   5.419   0.697 -2.1684  0.0540  1.1619
31120SOL    HW2 5085   0.010   5.295   0.783  1.1694 -0.4815  0.9197
31121SOL     OW 5086  10.984   4.407   0.443  0.0904 -0.4540  0.1958
31121SOL    HW1 5087  10.914   4.402   0.378 -0.3422 -1.0425  0.6831
31121SOL    HW2 5088  11.065   4.410   0.392 -0.0585 -3.4469 -0.4203
31122SOL     OW 5089   5.158   0.592  10.460  0.0185  0.9673  0.5848
31122SOL    HW1 5090   5.202   0.586  10.375 -0.8713 -1.1643  0.2084
31122SOL    HW2 5091   5.198   0.523  10.513  0.4788  2.1902  1.8970
31123SOL     OW 5092   8.358  10.343   6.937 -0.1300 -0.1961  0.1008
31123SOL    HW1 5093   8.311  10.336   6.854  0.2620  0.4454 -0.1796
31123SOL    HW2 5094   8.298  10.390   6.995 -0.7233 -1.3225  0.4390
31124SOL     OW 5095   6.099   6.744   7.591 -0.3308  0.6187 -0.4429
31124SOL    HW1 5096   6.012   6.706   7.602  0.5844 -1.2763  0.7558
31124SOL    HW2 5097   6.095   6.829   7.635 -1.5845  0.6007 -0.5088
31125SOL     OW 5098   0.210  11.029   4.504  0.1252  0.1839 -0.0416
31125SOL    HW1 5099   0.300  11.016   4.531  0.1270 -1.3470 -0.6742
31125SOL    HW2 5100   0.158  10.981   4.568 -0.1239 -0.2077 -0.5239
31126SOL     OW 5101  11.599   2.718   9.810  0.4878 -0.1659 -0.0381
31126SOL    HW1 5102  11.658   2.698   9.738 -0.8126  0.6427 -1.4072
31126SOL    HW2 5103  11.655   2.756   9.877  1.5793  0.2342 -1.1374
31127SOL     OW 5104   0.140   0.556  10.824  0.3555  0.0166  0.6322
31127SOL    HW1 5105   0.155   0.499  10.899 -1.0272 -0.6368  0.4416
31127SOL    HW2 5106   0.223   0.554  10.776 -0.4109 -4.2131 -0.9215
31128SOL     OW 5107   3.202   0.332   1.514  0.4823 -0.7981  0.5385
31128SOL    HW1 5108   3.260   0.365   1.582 -0.2903  1.9240  0.0303
31128SOL    HW2 5109   3.114   0.345   1.549  0.1192 -2.6647  0.3776
31129SOL     OW 5110   3.861   3.353   3.646  0.4357  0.3629  0.1898
31129SOL    HW1 5111   3.865   3.329   3.739 -0.2130  1.2416  0.4616
31129SOL    HW2 5112   3.824   3.441   3.646 -0.5093 -0.0107 -0.9588
31130SOL     OW 5113   8.873   2.911   7.238  0.2689  0.2338 -0.4615
31130SOL    HW1 5114   8.919   2.865   7.308 -0.4106  1.1632  0.6300
31130SOL    HW2 5115   8.810   2.847   7.205  0.6790 -0.2527 -0.3181
31131SOL     OW 5116   7.167   6.740   7.948  0.1972  0.6815  0.2304
31131SOL    HW1 5117   7.188   6.825   7.908  1.8125  1.1542  1.9426
31131SOL    HW2 5118   7.227   6.678   7.905 -0.3957  0.5388 -0.4143
31132SOL     OW 5119   5.712   3.232   6.597  0.1783  0.0193 -0.0625
31132SOL    HW1 5120   5.665   3.149   6.588 -0.1759  0.2708 -0.5848
31132SOL    HW2 5121   5.696   3.278   6.514  2.0512 -0.2446 -0.6080
31133SOL     OW 5122   3.702   0.903  11.717  0.0512  0.2199  0.5436
31133SOL    HW1 5123   3.653   0.985  11.726  0.6756  0.5221  1.2987
31133SOL    HW2 5124   3.793   0.927  11.733  0.5977 -0.1825 -1.6209
31134SOL     OW 5125   8.169   2.090   9.469  0.6654 -0.6897 -0.3137
31134SOL    HW1 5126   8.255   2.113   9.432  0.8140 -0.3639  0.2179
31134SOL    HW2 5127   8.109   2.154   9.431  1.2132  1.2126  1.7836
31135SOL     OW 5128   6.173  11.272   2.896 -0.7726 -0.0641  0.0636
31135SOL    HW1 5129   6.153  11.353   2.849 -1.9732 -0.1157  0.4495
31135SOL    HW2 5130   6.211  11.215   2.830 -1.2743  0.3120 -0.5639
31136SOL     OW 5131   1.743   8.678   6.063  0.0015  0.2804  0.4142
31136SOL    HW1 5132   1.654   8.692   6.095 -0.2260  0.8301 -0.4175
31136SOL    HW2 5133   1.746   8.725   5.980  0.5915 -1.0195 -0.3254
31137SOL     OW 5134   8.482   8.908   9.062  0.3963  0.0319 -0.0225
31137SOL    HW1 5135   8.514   8.970   8.996  0.0909 -0.6006 -0.7855
31137SOL    HW2 5136   8.541   8.833   9.055 -0.0587 -0.3252 -0.0689
31138SOL     OW 5137   8.850   6.431   0.544  0.1465 -0.3572 -0.4930
31138SOL    HW1 5138   8.804   6.364   0.594 -0.8802  1.7375  1.5509
31138SOL    HW2 5139   8.782   6.471   0.490 -0.0092  1.1091  0.7108
31139SOL     OW 5140  11.356   1.447   9.449  0.2804  0.2210  0.2664
31139SOL    HW1 5141  11.345   1.389   9.524 -1.0523 -1.3145 -1.0584
31139SOL    HW2 5142  11.294   1.415   9.384  2.0972  0.8354 -1.9014
31140SOL     OW 5143   7.016   5.123   3.820  0.2335  0.1577 -0.2100
31140SOL    HW1 5144   6.948   5.178   3.859 -0.4699  0.4911 -1.8444
31140SOL    HW2 5145   7.097   5.171   3.836 -0.0414  0.3395  0.7075
31141SOL     OW 5146  10.860   7.423   9.162  0.0923 -0.2282 -0.1495
31141SOL    HW1 5147  10.939   7.381   9.194 -0.1080 -1.0959 -0.7535
31141SOL    HW2 5148  10.890   7.504   9.121  0.5635 -0.1360  0.3635
31142SOL     OW 5149   7.406   2.099   4.626  0.2052 -0.2474  0.2881
31142SOL    HW1 5150   7.360   2.172   4.585 -2.3446 -1.5580  0.6022
31142SOL    HW2 5151   7.407   2.121   4.719  2.5518  0.8982  0.0956
31143SOL     OW 5152   8.974   2.479  11.674 -0.2771  0.3323 -0.1298
31143SOL    HW1 5153   8.889   2.496  11.634  0.0009  0.7839 -0.5290
31143SOL    HW2 5154   9.018   2.419  11.614  0.0809  0.8944 -0.4367
31144SOL     OW 5155  11.100   3.906  11.614  0.4576  0.4451 -0.1521
31144SOL    HW1 5156  11.088   3.937  11.704  1.1142 -1.4830  0.6347
31144SOL    HW2 5157  11.163   3.967  11.576 -0.1377  1.5290  0.5287
31145SOL     OW 5158   8.065   4.831   8.515  0.2332 -0.3965  0.5748
31145SOL    HW1 5159   8.019   4.875   8.586  2.1734  0.7974  1.1768
31145SOL    HW2 5160   8.101   4.752   8.555  0.4296 -0.2650  0.6637
31146SOL     OW 5161   7.432  11.207   9.276 -0.2678 -0.0004 -0.2451
31146SOL    HW1 5162   7.409  11.136   9.216 -1.7050 -0.1057  0.3791
31146SOL    HW2 5163   7.515  11.240   9.244  0.1206 -1.5504 -0.9282
31147SOL     OW 5164   2.973   3.265   2.965 -0.1420 -0.6890 -0.4512
31147SOL    HW1 5165   2.918   3.324   2.913 -0.1638 -0.3729 -0.0693
31147SOL    HW2 5166   2.965   3.297   3.055  0.9395 -0.4302 -0.4399
31148SOL     OW 5167  10.096   9.021   7.136 -0.4431 -0.3310 -0.0714
31148SOL    HW1 5168  10.058   8.934   7.148 -0.8013  0.0867  2.4862
31148SOL    HW2 5169  10.128   9.045   7.223  0.8219  1.5775 -0.9995
31149SOL     OW 5170   6.045   8.982   7.810  0.1786  0.2800 -0.3050
31149SOL    HW1 5171   6.076   9.062   7.768 -0.7851  0.9930  0.2754
31149SOL    HW2 5172   6.064   8.994   7.903 -1.7317  0.7600  0.0837
31150SOL     OW 5173   3.966   8.185  11.590 -0.1482 -0.1338 -0.2062
31150SOL    HW1 5174   3.962   8.237  11.510 -0.7078 -2.0033 -1.4512
31150SOL    HW2 5175   3.963   8.094  11.561  0.3166 -0.9025  1.9111
31151SOL     OW 5176  10.520   4.252   3.102 -0.4368 -0.4295 -0.0924
31151SOL    HW1 5177  10.505   4.309   3.026  1.2634 -0.5564 -0.5744
31151SOL    HW2 5178  10.603   4.208   3.083 -0.9305 -1.9116  0.9905
31152SOL     OW 5179  10.049   1.068   2.197 -0.3992  0.2779  0.4552
31152SOL    HW1 5180  10.025   1.153   2.234 -0.2071  0.0832  1.0348
31152SOL    HW2 5181   9.976   1.045   2.139 -1.4987 -0.1702  1.9608
31153SOL     OW 5182   6.682   5.835   6.124  0.6846  0.0776 -0.2585
31153SOL    HW1 5183   6.696   5.916   6.174  1.0639 -1.4763  2.3096
31153SOL    HW2 5184   6.764   5.787   6.133 -0.6434 -2.0699  1.1908
31154SOL     OW 5185   2.857   6.324   2.033 -0.3602  0.3510 -0.2748
31154SOL    HW1 5186   2.801   6.309   2.109 -0.2376  2.5247  0.3246
31154SOL    HW2 5187   2.840   6.415   2.008  1.9123  0.6910 -0.8610
31155SOL     OW 5188   3.083   3.331   4.778  0.4342  0.4332  0.6627
31155SOL    HW1 5189   3.112   3.244   4.752 -0.9397  0.0463  0.3254
31155SOL    HW2 5190   3.145   3.358   4.845  3.1712  0.7818 -1.8020
31156SOL     OW 5191   0.189   8.268   4.835 -0.4252 -0.3176 -0.2271
31156SOL    HW1 5192   0.258   8.272   4.902 -0.0170 -0.9845 -0.5877
31156SOL    HW2 5193   0.234   8.286   4.753 -0.6684 -0.7677 -0.4671
31157SOL     OW 5194   8.478   7.674   0.670 -0.1055 -0.6315  0.2834
31157SOL    HW1 5195   8.535   7.650   0.598 -0.0239 -1.5587  0.6477
31157SOL    HW2 5196   8.530   7.658   0.749  0.3658  1.7931  0.5635
31158SOL     OW 5197   6.766   2.964   2.726  0.2331 -0.2212  0.5844
31158SOL    HW1 5198   6.672   2.976   2.740  0.2810 -1.0703  1.8253
31158SOL    HW2 5199   6.774   2.938   2.635 -0.9310 -1.8084  0.8911
31159SOL     OW 5200   8.346  11.308   4.087 -0.3807 -0.4963  0.6533
31159SOL    HW1 5201   8.273  11.309   4.025 -0.2488  1.5899  0.4744
31159SOL    HW2 5202   8.304  11.311   4.173 -0.5310 -1.9464  0.6507
31160SOL     OW 5203   1.209   6.463   2.936  0.2269  0.5041 -0.3146
31160SOL    HW1 5204   1.160   6.501   3.008  0.6465  0.9927 -0.2796
31160SOL    HW2 5205   1.285   6.423   2.977  0.2825  0.4725 -0.4472
31161SOL     OW 5206  10.467   8.498  11.304 -0.0663  0.0880 -0.2931
31161SOL    HW1 5207  10.413   8.572  11.275 -0.7049 -0.6966 -1.1838
31161SOL    HW2 5208  10.443   8.427  11.245 -0.4996 -1.2465  1.4117
31162SOL     OW 5209   7.203   8.417   5.692  0.0398  0.3913  0.5585
31162SOL    HW1 5210   7.252   8.358   5.749 -1.0622 -1.3219 -0.1790
31162SOL    HW2 5211   7.249   8.412   5.608 -1.0865 -0.8956 -0.0177
31163SOL     OW 5212   8.992   0.655   6.290  0.6036  1.1857  0.1121
31163SOL    HW1 5213   8.946   0.617   6.365  2.0844 -0.3892  0.2831
31163SOL    HW2 5214   8.958   0.744   6.284 -0.1046  1.1117  2.1891
31164SOL     OW 5215   1.148  11.211   8.667  0.1183  0.5441 -0.4980
31164SOL    HW1 5216   1.165  11.233   8.576  0.7838  1.1605 -0.2402
31164SOL    HW2 5217   1.100  11.286   8.702  1.1676  0.9996  0.0273
31165SOL     OW 5218   8.138   3.296   4.518  0.2267  0.3059  0.3371
31165SOL    HW1 5219   8.097   3.345   4.589  1.2284 -0.6935  1.6608
31165SOL    HW2 5220   8.104   3.207   4.528  0.5433  0.1047 -0.3190
31166SOL     OW 5221   7.807   2.475   9.725 -0.5403 -0.6138 -0.4060
31166SOL    HW1 5222   7.828   2.447   9.636  0.9248  0.6941 -0.5130
31166SOL    HW2 5223   7.859   2.554   9.738  0.0113 -1.2967  1.9586
31167SOL     OW 5224   1.279   6.302   5.592  0.0344 -0.6936 -0.1623
31167SOL    HW1 5225   1.251   6.212   5.573 -1.0052 -0.2742 -0.6984
31167SOL    HW2 5226   1.276   6.308   5.687  2.0844 -1.8194  0.0311
31168SOL     OW 5227   8.545   4.654   6.833 -0.2459 -0.3500 -0.5894
31168SOL    HW1 5228   8.465   4.697   6.865  0.6371  0.9661 -0.0540
31168SOL    HW2 5229   8.522   4.626   6.744 -1.9261 -1.8052  0.2360
31169SOL     OW 5230   0.351   9.021   1.632 -0.1880 -0.6918  0.6914
31169SOL    HW1 5231   0.268   8.974   1.640 -0.9816 -0.1785 -2.7070
31169SOL    HW2 5232   0.417   8.952   1.622 -0.8459 -1.1548 -0.7179
31170SOL     OW 5233   5.261   1.253   1.533  0.1306  0.1242 -0.0947
31170SOL    HW1 5234   5.288   1.236   1.442 -0.8399 -1.6985 -0.0907
31170SOL    HW2 5235   5.173   1.214   1.539  0.1750  0.2356  1.6243
31171SOL     OW 5236   9.790   2.491   5.127  0.3967 -0.3120 -0.0662
31171SOL    HW1 5237   9.779   2.575   5.172  0.9035 -0.7312  0.8903
31171SOL    HW2 5238   9.701   2.456   5.118  0.0995  0.6907 -1.2373
31172SOL     OW 5239   7.609   9.320   4.823 -0.1004  0.6209 -0.3129
31172SOL    HW1 5240   7.538   9.297   4.764  1.4137  0.1867 -2.0506
31172SOL    HW2 5241   7.596   9.413   4.842 -2.0437  0.1869  0.7914
31173SOL     OW 5242   1.670  10.554  11.103 -0.0056  0.3220  0.0606
31173SOL    HW1 5243   1.727  10.598  11.039  0.5571  2.3710  1.8566
31173SOL    HW2 5244   1.583  10.590  11.086 -0.0254  0.2098 -0.0841
31174SOL     OW 5245   6.401   6.375  10.256 -0.0654  0.2294 -0.4671
31174SOL    HW1 5246   6.411   6.280  10.261 -0.7673  0.0964 -1.2809
31174SOL    HW2 5247   6.485   6.410  10.285 -0.0077 -0.6235  0.4467
31175SOL     OW 5248   9.662   2.348   7.343  0.0677 -0.3836  0.0008
31175SOL    HW1 5249   9.696   2.264   7.313 -0.8552 -0.4921 -0.7979
31175SOL    HW2 5250   9.570   2.330   7.365 -0.5563  0.7123 -1.5488
31176SOL     OW 5251   1.134   0.838   1.880 -0.2798 -0.7496 -0.5214
31176SOL    HW1 5252   1.117   0.867   1.790  0.9181 -0.0428 -0.5317
31176SOL    HW2 5253   1.131   0.743   1.875 -0.2090 -0.7186 -1.3185
31177SOL     OW 5254  11.760   2.918  11.547  0.2731  0.2861 -0.2878
31177SOL    HW1 5255  11.740   2.866  11.469 -0.0697  1.6357 -1.1431
31177SOL    HW2 5256  11.674   2.943  11.581  0.3939  2.0490 -1.1503
31178SOL     OW 5257  11.081   4.027   5.623 -0.3039  0.2164  0.3385
31178SOL    HW1 5258  11.121   3.989   5.701  0.0735  0.6847  0.3797
31178SOL    HW2 5259  11.059   3.952   5.568 -1.6871 -0.1884  1.4135
31179SOL     OW 5260   7.709   4.410   8.385 -0.5545  0.2695  0.4190
31179SOL    HW1 5261   7.662   4.388   8.465 -0.8541  0.3536  0.2706
31179SOL    HW2 5262   7.756   4.491   8.406 -1.8964  1.1942  0.0471
31180SOL     OW 5263   3.152   1.128   9.965 -0.0701  0.6075 -0.5549
31180SOL    HW1 5264   3.148   1.080   9.883  1.2848  0.2602 -0.4501
31180SOL    HW2 5265   3.063   1.160   9.979 -0.5911 -0.3425 -1.5390
31181SOL     OW 5266   6.801   2.513   0.789  0.1889 -0.3342  0.5367
31181SOL    HW1 5267   6.852   2.474   0.719  1.0110  1.0626  0.3330
31181SOL    HW2 5268   6.718   2.537   0.748 -0.4777 -2.1308  0.7484
31182SOL     OW 5269  11.282   3.923   5.860 -0.4441  0.2261  0.3870
31182SOL    HW1 5270  11.357   3.983   5.868 -0.3478  0.3322 -1.0254
31182SOL    HW2 5271  11.316   3.839   5.891  1.1098 -0.3400 -2.4400
31183SOL     OW 5272   4.256   2.298  10.600  0.2855  0.1896 -0.1552
31183SOL    HW1 5273   4.231   2.224  10.544  0.2481  0.3625 -0.3715
31183SOL    HW2 5274   4.186   2.363  10.585  0.4945  0.3996 -0.2255
31184SOL     OW 5275   0.520   5.805   4.684  0.7184  0.5136  0.3903
31184SOL    HW1 5276   0.579   5.855   4.629  0.4350  0.0825 -0.3152
31184SOL    HW2 5277   0.550   5.714   4.675 -0.2400  0.2506 -0.2228
31185SOL     OW 5278   9.911   6.576   8.198  0.0690 -0.0396 -0.6976
31185SOL    HW1 5279   9.949   6.631   8.267 -3.1224  1.0948  0.3535
31185SOL    HW2 5280   9.884   6.496   8.243 -0.1108 -0.1819 -1.0545
31186SOL     OW 5281   9.798   1.658   3.058  0.0758 -0.0822  0.8094
31186SOL    HW1 5282   9.805   1.597   3.132 -0.5612 -0.9371  0.1883
31186SOL    HW2 5283   9.717   1.706   3.074 -1.1731 -1.6837 -0.3110
31187SOL     OW 5284   3.138   6.528   9.316  0.0694 -0.0399  0.1178
31187SOL    HW1 5285   3.084   6.586   9.263 -1.0216 -0.7662  0.3976
31187SOL    HW2 5286   3.090   6.445   9.317  2.1708 -1.3920 -1.3126
31188SOL     OW 5287   0.983   1.941   3.371 -0.3159  0.2480  0.8498
31188SOL    HW1 5288   0.911   1.900   3.322  1.1742 -0.0617 -1.1752
31188SOL    HW2 5289   1.062   1.897   3.339  1.1661  3.2203  0.0857
31189SOL     OW 5290  10.072   4.022   9.878  0.4552 -0.2149 -0.1196
31189SOL    HW1 5291  10.053   3.935   9.914  0.3003 -1.1457 -2.2885
31189SOL    HW2 5292  10.156   4.012   9.834  1.3585  1.2841  1.1174
31190SOL     OW 5293   8.483   7.950   6.303 -0.3203  0.1203  0.1192
31190SOL    HW1 5294   8.525   7.868   6.327 -3.3259 -1.4207  0.6819
31190SOL    HW2 5295   8.546   7.994   6.246  1.1051 -2.9666 -0.8990
31191SOL     OW 5296  10.537   9.929  10.499  0.1609  0.0879  0.3137
31191SOL    HW1 5297  10.469   9.921  10.566  1.2512 -0.5937  1.4002
31191SOL    HW2 5298  10.581  10.012  10.519  0.5469 -0.1604  0.5186
31192SOL     OW 5299   8.796   0.958   6.177 -0.1869  0.1383 -0.1492
31192SOL    HW1 5300   8.729   1.024   6.197 -1.2758 -1.0924  0.4773
31192SOL    HW2 5301   8.745   0.881   6.151  1.0420 -0.5153 -0.6598
31193SOL     OW 5302   5.659  10.967   3.685  0.2967  0.1816 -0.5831
31193SOL    HW1 5303   5.595  10.898   3.702 -0.1200  0.6590 -0.1615
31193SOL    HW2 5304   5.696  10.946   3.599  0.8722 -1.0873 -0.0486
31194SOL     OW 5305   7.939  10.637   4.805 -0.3343 -0.0963  0.1623
31194SOL    HW1 5306   7.938  10.628   4.900 -1.2261  1.4340  0.3260
31194SOL    HW2 5307   8.029  10.618   4.780 -0.2475 -1.2157  1.2200
31195SOL     OW 5308   9.539   9.507   6.821  0.0203  0.4387  0.4346
31195SOL    HW1 5309   9.601   9.467   6.760  0.1310  1.5174 -0.1835
31195SOL    HW2 5310   9.579   9.591   6.843 -1.0374  0.9682  0.3455
31196SOL     OW 5311   2.714   9.580   0.483  0.4279 -0.1666  1.1441
31196SOL    HW1 5312   2.790   9.606   0.536 -0.7440  1.9388  1.9041
31196SOL    HW2 5313   2.747   9.508   0.429  3.1599  1.0387  0.9972
31197SOL     OW 5314   5.577   5.263   5.399 -1.1593  0.3242  0.2255
31197SOL    HW1 5315   5.631   5.195   5.359 -1.7320 -0.4713  0.7840
31197SOL    HW2 5316   5.580   5.243   5.493  0.1950  2.1681  0.6430
31198SOL     OW 5317   8.807   1.990   1.986 -0.3163 -0.2273 -0.5226
31198SOL    HW1 5318   8.718   2.005   1.956  0.0281 -0.5593 -1.7767
31198SOL    HW2 5319   8.850   2.075   1.977 -0.6115  0.0510  0.5350
31199SOL     OW 5320   1.323   0.524   7.962 -0.0727 -0.2939 -0.0256
31199SOL    HW1 5321   1.342   0.440   8.004 -1.9788  0.0321  1.6673
31199SOL    HW2 5322   1.234   0.513   7.927 -0.0252  0.7374 -0.4933
31200SOL     OW 5323   0.584   0.064  11.438 -0.1047  0.6006  0.3052
31200SOL    HW1 5324   0.566   0.069  11.532 -1.1276  0.4555  0.1309
31200SOL    HW2 5325   0.498   0.059  11.398  0.3436 -1.1312 -0.5321
31201SOL     OW 5326   6.597   4.386   2.202  0.0443  0.4818 -0.3331
31201SOL    HW1 5327   6.628   4.453   2.141 -0.4201  0.4545 -0.6061
31201SOL    HW2 5328   6.659   4.314   2.191  0.6003  0.8982  0.0294
31202SOL     OW 5329   6.068   4.513   3.157  0.5153 -0.1709 -0.3453
31202SOL    HW1 5330   6.014   4.463   3.218  0.9867 -0.5087 -0.2069
31202SOL    HW2 5331   6.156   4.509   3.193  0.9412 -0.9767 -1.4212
31203SOL     OW 5332   5.559   3.571   9.510  0.1184 -0.0016 -0.3953
31203SOL    HW1 5333   5.529   3.489   9.550  0.2159  0.5069  0.7797
31203SOL    HW2 5334   5.487   3.599   9.454 -1.2622  0.6754  1.5935
31204SOL     OW 5335  11.564  11.719   4.977  0.2490 -0.2372  1.3703
31204SOL    HW1 5336  11.577  11.625   4.984 -1.9735 -0.7080 -0.1071
31204SOL    HW2 5337  11.536  11.746   5.064  2.2924 -0.6241  2.2097
31205SOL     OW 5338   9.200   4.865   3.639  0.1295 -0.8808 -0.2363
31205SOL    HW1 5339   9.105   4.863   3.637 -0.0842  2.5061 -2.7152
31205SOL    HW2 5340   9.221   4.944   3.689  1.6846 -1.6504  0.4056
31206SOL     OW 5341  11.515   1.627   8.977 -0.0304  0.0071 -0.4780
31206SOL    HW1 5342  11.518   1.639   8.882  0.2060  2.3436 -0.2182
31206SOL    HW2 5343  11.424   1.648   9.000  0.2033  0.5455 -0.0562
31207SOL     OW 5344  11.050   7.050   8.074 -0.1218  0.1309  0.1029
31207SOL    HW1 5345  11.040   7.090   7.988 -1.6920 -1.0537 -0.3135
31207SOL    HW2 5346  11.044   7.123   8.136  1.1187  1.0053 -0.7664
31208SOL     OW 5347   6.908   1.840   6.091 -0.2383  0.5114  0.0394
31208SOL    HW1 5348   6.925   1.806   6.179 -1.8396  0.4685  0.3658
31208SOL    HW2 5349   6.813   1.845   6.085 -0.3065 -1.5512 -2.4733
31209SOL     OW 5350   4.611   5.648   1.178 -0.1929  0.0892  0.5041
31209SOL    HW1 5351   4.655   5.653   1.262  0.2693  1.0675  0.2163
31209SOL    HW2 5352   4.519   5.636   1.200 -0.1510  0.9014  1.1660
31210SOL     OW 5353   9.008   2.581   1.651  0.4897 -0.2374  0.1731
31210SOL    HW1 5354   9.059   2.657   1.680 -0.7664  0.9380 -0.5814
31210SOL    HW2 5355   9.056   2.548   1.575 -0.0285  1.0796 -0.7534
31211SOL     OW 5356   4.741   9.793   5.615 -0.8260 -0.6174  0.4764
31211SOL    HW1 5357   4.714   9.748   5.695 -0.6508 -2.4580 -0.4499
31211SOL    HW2 5358   4.799   9.732   5.571  0.6462  1.1339 -0.1567
31212SOL     OW 5359  11.077   3.396   1.743 -0.5766  0.5814  0.2077
31212SOL    HW1 5360  11.087   3.488   1.767  0.0581  0.6671 -0.3465
31212SOL    HW2 5361  10.987   3.388   1.712 -0.6205  1.0289  0.2236
31213SOL     OW 5362  10.671   3.125  10.534 -0.4688  0.1821  0.4029
31213SOL    HW1 5363  10.626   3.123  10.449  3.1018 -0.6222 -1.6674
31213SOL    HW2 5364  10.673   3.218  10.557  0.3033  0.6954 -1.5183
31214SOL     OW 5365   5.660   5.166   2.401  0.1239 -0.1095 -0.2755
31214SOL    HW1 5366   5.739   5.171   2.348 -0.0882  0.3457 -0.5597
31214SOL    HW2 5367   5.671   5.234   2.468 -0.8733  1.3294 -1.5081
31215SOL     OW 5368   5.323   2.305   0.029  0.0868 -0.9775  0.0278
31215SOL    HW1 5369   5.327   2.395   0.063  0.3870 -0.7955 -0.4825
31215SOL    HW2 5370   5.360   2.251   0.099  0.8976 -0.5838 -0.0840
31216SOL     OW 5371   1.781   3.238   7.518 -0.2713  0.6592  0.5879
31216SOL    HW1 5372   1.699   3.266   7.556 -0.5030  0.7076  0.0646
31216SOL    HW2 5373   1.806   3.161   7.569 -0.8969  0.3473  0.4337
31217SOL     OW 5374   9.918   1.913   3.568 -0.5881 -0.0841  0.2497
31217SOL    HW1 5375   9.855   1.909   3.496  0.1592 -1.2510 -0.3677
31217SOL    HW2 5376  10.003   1.925   3.525  0.0214 -2.0036  0.8194
31218SOL     OW 5377   0.944   4.641   6.445 -0.3384  0.0379 -0.2032
31218SOL    HW1 5378   1.028   4.656   6.401  0.0298  0.6307  0.6868
31218SOL    HW2 5379   0.884   4.703   6.404  0.0602  0.7512  0.2684
31219SOL     OW 5380   1.133   3.222  11.402 -0.2565 -0.1003  0.5887
31219SOL    HW1 5381   1.113   3.218  11.496  1.9873 -2.3385  1.0660
31219SOL    HW2 5382   1.134   3.131  11.374 -1.7014  0.5570 -1.8780
31220SOL     OW 5383   8.930   0.202   2.785  0.1809 -0.5228  0.0862
31220SOL    HW1 5384   8.990   0.154   2.842  2.8521  1.0451 -1.1992
31220SOL    HW2 5385   8.920   0.148   2.707 -0.0983 -0.7892  0.3053
31221SOL     OW 5386   3.569   3.720  11.279  0.3358  0.2166  0.1996
31221SOL    HW1 5387   3.658   3.730  11.244  0.7098 -0.3539  0.9507
31221SOL    HW2 5388   3.550   3.805  11.319  0.2373  0.5904 -0.6009
31222SOL     OW 5389   2.061   8.194  11.817 -0.3300  0.0251  0.3143
31222SOL    HW1 5390   2.067   8.284  11.786  1.9229  0.7382  2.5231
31222SOL    HW2 5391   2.146   8.155  11.796 -1.1389 -1.5131 -0.2799
31223SOL     OW 5392   8.576   1.968  11.171 -0.2693  0.3244  0.1622
31223SOL    HW1 5393   8.484   1.981  11.153 -0.4695 -0.0136  0.8866
31223SOL    HW2 5394   8.579   1.894  11.232  0.5615 -0.4689 -0.7955
31224SOL     OW 5395   3.222   0.802   9.086  0.3057 -0.2517 -0.1088
31224SOL    HW1 5396   3.241   0.837   9.173  0.6867 -0.1445 -0.2361
31224SOL    HW2 5397   3.187   0.877   9.037  0.5445 -0.1965 -0.1947
31225SOL     OW 5398   9.701   3.009   9.834  0.8761 -0.4037  0.1386
31225SOL    HW1 5399   9.618   3.010   9.786  0.6154  0.8825  0.5642
31225SOL    HW2 5400   9.754   3.077   9.791  1.5061 -0.8345  0.2220
31226SOL     OW 5401   6.453   4.072   8.483  0.3163  0.0015  0.2865
31226SOL    HW1 5402   6.413   3.992   8.516 -0.3733  0.8223  1.5292
31226SOL    HW2 5403   6.547   4.058   8.493  0.2958 -1.2568 -1.0165
31227SOL     OW 5404   9.767   0.832   9.323 -0.3295 -0.3002 -0.0639
31227SOL    HW1 5405   9.816   0.914   9.317 -0.2829 -0.3364 -0.1809
31227SOL    HW2 5406   9.779   0.791   9.237  0.7283 -1.0517  0.4189
31228SOL     OW 5407   2.802   7.361   7.809  0.1466  0.0023 -0.4273
31228SOL    HW1 5408   2.716   7.324   7.788 -0.2100  0.6344 -0.1046
31228SOL    HW2 5409   2.838   7.389   7.726 -0.4895  0.8613 -0.4191
31229SOL     OW 5410   4.540   6.820   1.088 -0.6397  0.6426  0.3315
31229SOL    HW1 5411   4.626   6.861   1.092 -1.4017  2.3007  0.7198
31229SOL    HW2 5412   4.550   6.749   1.025  1.7560 -1.1455  2.5018
31230SOL     OW 5413   8.123   0.975   6.372  0.5056 -0.0514 -0.1707
31230SOL    HW1 5414   8.055   0.908   6.380  0.4172  0.0666  0.0836
31230SOL    HW2 5415   8.141   0.980   6.279  1.9943 -1.9090 -0.0566
31231SOL     OW 5416   8.685   9.765   7.867 -0.1051  0.4483  0.8485
31231SOL    HW1 5417   8.734   9.779   7.786 -2.4126  0.8220 -0.5767
31231SOL    HW2 5418   8.753   9.751   7.933  1.9084  1.0775 -0.9332
31232SOL     OW 5419   0.861   9.136   7.691  0.1120 -0.0724 -0.1384
31232SOL    HW1 5420   0.926   9.134   7.620 -0.4335 -1.9376 -0.6479
31232SOL    HW2 5421   0.858   9.045   7.722 -2.2837 -0.0438 -0.1603
31233SOL     OW 5422   9.824   2.855   9.228 -0.2411  0.2128  0.3686
31233SOL    HW1 5423   9.739   2.851   9.185 -0.5398 -0.8937  1.0102
31233SOL    HW2 5424   9.806   2.833   9.319  0.7845 -0.5639  0.4149
31234SOL     OW 5425   3.904   7.034   0.253 -0.7101  0.1727  0.0690
31234SOL    HW1 5426   3.877   7.083   0.175 -2.6976  0.7547  1.0606
31234SOL    HW2 5427   3.864   6.948   0.243  2.6031 -1.3786 -1.5622
31235SOL     OW 5428   7.800   8.664   4.691  0.6102  0.5751  0.3761
31235SOL    HW1 5429   7.794   8.656   4.596 -0.5304 -0.5285  0.5275
31235SOL    HW2 5430   7.716   8.699   4.718  0.9301  0.8860  0.9989
31236SOL     OW 5431  10.749   8.342   7.099  0.3023  0.2284  0.1537
31236SOL    HW1 5432  10.765   8.300   7.014  0.0451 -1.4709  0.8911
31236SOL    HW2 5433  10.836   8.359   7.134  0.4129  0.6337 -0.3098
31237SOL     OW 5434   3.005   2.289   9.059 -0.0611 -0.2840  0.3349
31237SOL    HW1 5435   3.000   2.250   8.972 -0.3607 -2.1350  1.1358
31237SOL    HW2 5436   2.914   2.290   9.089  0.0236  0.4791  0.5739
31238SOL     OW 5437   3.663   9.027   9.020  0.0182 -0.1120 -0.7241
31238SOL    HW1 5438   3.603   9.059   9.087  3.5147  1.0768  2.1680
31238SOL    HW2 5439   3.627   9.060   8.938 -2.6348  1.4633  0.9325
31239SOL     OW 5440   2.930   5.602  11.037 -0.4249 -0.1680  0.3816
31239SOL    HW1 5441   2.972   5.658  10.972 -2.7024 -0.9461 -1.9355
31239SOL    HW2 5442   2.967   5.515  11.023 -1.0891 -0.3852 -0.0521
31240SOL     OW 5443   5.525   6.131  10.444 -0.0156  0.0900  0.2774
31240SOL    HW1 5444   5.464   6.132  10.518  0.2208 -1.2262  0.5008
31240SOL    HW2 5445   5.600   6.081  10.475  0.4188  0.1807 -0.6054
31241SOL     OW 5446   5.026   2.201   3.860  0.4389 -0.2598  0.3724
31241SOL    HW1 5447   4.964   2.142   3.816 -0.4480  0.5233  0.5573
31241SOL    HW2 5448   4.979   2.283   3.869  2.4329  1.3004 -2.0488
31242SOL     OW 5449   0.099   3.826   0.072  0.1269 -0.3184 -0.7252
31242SOL    HW1 5450   0.193   3.833   0.086  0.0026  0.2601 -0.1157
31242SOL    HW2 5451   0.070   3.917   0.063 -0.6278 -0.3762  0.8817
31243SOL     OW 5452   4.653   8.973   7.503 -0.2878 -0.0469 -0.6564
31243SOL    HW1 5453   4.612   8.892   7.475  1.9363 -1.2444 -0.6806
31243SOL    HW2 5454   4.741   8.947   7.529  0.0755  2.1771  0.5483
31244SOL     OW 5455   4.674   6.459   4.819  0.6838  0.2245  0.1968
31244SOL    HW1 5456   4.738   6.389   4.806 -2.3256 -2.6215 -0.5867
31244SOL    HW2 5457   4.638   6.475   4.732 -0.4822  0.8980  0.7804
31245SOL     OW 5458   4.076   5.806   8.219 -0.1463  0.6904  0.3129
31245SOL    HW1 5459   4.076   5.839   8.309  0.2190  0.8827  0.2433
31245SOL    HW2 5460   4.057   5.883   8.166 -2.6069  0.1926  0.3586
31246SOL     OW 5461   2.235   6.509   4.673 -0.4223 -0.4496  0.0842
31246SOL    HW1 5462   2.289   6.437   4.707 -0.1549  0.1559  0.9818
31246SOL    HW2 5463   2.283   6.540   4.596 -0.0872 -0.6608  0.2043
31247SOL     OW 5464   1.347  11.462   6.717 -0.0410  0.4334  0.2663
31247SOL    HW1 5465   1.416  11.521   6.689  1.2271 -1.5905 -1.1243
31247SOL    HW2 5466   1.266  11.508   6.697  0.8579  0.8709 -2.9248
31248SOL     OW 5467   8.376   4.665   0.505 -0.6613 -0.1932  0.5101
31248SOL    HW1 5468   8.444   4.598   0.502 -1.4971 -1.0571  0.3139
31248SOL    HW2 5469   8.410   4.737   0.452  0.2049 -0.4938  0.6464
31249SOL     OW 5470   8.575   8.046   3.882  0.1452  0.0938  0.7402
31249SOL    HW1 5471   8.668   8.028   3.874  0.3400  1.4100 -0.5498
31249SOL    HW2 5472   8.571   8.131   3.927 -0.1168  2.2401 -2.8953
31250SOL     OW 5473   7.477   0.499   6.787 -0.1860  0.6069  0.5022
31250SOL    HW1 5474   7.568   0.470   6.777 -1.0745 -2.3361 -0.1710
31250SOL    HW2 5475   7.460   0.551   6.709  0.8376  0.9594  0.4983
31251SOL     OW 5476   3.731   1.282   4.428  0.3617 -0.0117  0.3096
31251SOL    HW1 5477   3.674   1.206   4.436  0.4484 -0.2161 -0.7520
31251SOL    HW2 5478   3.693   1.348   4.485 -0.6453 -0.3249  0.0153
31252SOL     OW 5479   6.633  11.767   9.498 -0.2164 -0.7181 -0.0341
31252SOL    HW1 5480   6.722  11.734   9.503  0.0509  0.0691  0.6172
31252SOL    HW2 5481   6.637  11.838   9.434 -0.8433 -2.0437 -1.6298
31253SOL     OW 5482   5.160   4.449  11.136  0.0996  0.5084 -0.0308
31253SOL    HW1 5483   5.072   4.462  11.100 -0.8797 -1.3276  1.5093
31253SOL    HW2 5484   5.210   4.524  11.105 -1.7216  1.0677 -1.8218
31254SOL     OW 5485  10.520   1.268   8.831 -0.2021  0.3479 -0.3230
31254SOL    HW1 5486  10.614   1.263   8.815 -0.0566  1.4597  0.1322
31254SOL    HW2 5487  10.484   1.314   8.756 -0.5318 -0.8608 -0.9416
31255SOL     OW 5488   8.153   4.372   4.286  0.6552 -0.1470  0.1461
31255SOL    HW1 5489   8.150   4.277   4.281 -1.8343 -0.0667 -2.4492
31255SOL    HW2 5490   8.116   4.393   4.372  4.5946 -1.4150  2.3872
31256SOL     OW 5491   8.413   0.933  10.116  0.0866  0.1578  0.7930
31256SOL    HW1 5492   8.359   0.996  10.068  0.3768  0.9853  1.5182
31256SOL    HW2 5493   8.410   0.853  10.064  1.1284  1.2862 -1.1144
31257SOL     OW 5494   8.006   1.805   0.315 -0.3073 -0.0515 -0.3221
31257SOL    HW1 5495   7.970   1.719   0.338  1.6179 -0.9396 -0.4122
31257SOL    HW2 5496   8.018   1.800   0.220  0.6253 -0.0203 -0.2076
31258SOL     OW 5497  11.877   6.203   7.799  0.5172  0.3018 -0.1487
31258SOL    HW1 5498  11.859   6.165   7.885 -3.2052  0.8034 -0.5283
31258SOL    HW2 5499  11.926   6.283   7.818  3.2719 -1.5057  1.0745
31259SOL     OW 5500  11.679  11.238  10.627 -0.6164 -0.1969 -0.5956
31259SOL    HW1 5501  11.620  11.206  10.559 -0.0310 -0.5774 -0.9409
31259SOL    HW2 5502  11.705  11.159  10.675 -0.6899  0.0168 -0.2029
31260SOL     OW 5503   5.014   0.309   6.839 -0.1785  0.3550 -0.6363
31260SOL    HW1 5504   5.010   0.387   6.784  2.8580 -0.1331 -1.7834
31260SOL    HW2 5505   4.938   0.257   6.814  0.4178  0.7356 -3.5443
31261SOL     OW 5506   6.178  10.016   3.622 -0.4214 -0.1160  0.4728
31261SOL    HW1 5507   6.120   9.950   3.585 -0.5539  0.9484 -1.3196
31261SOL    HW2 5508   6.234  10.043   3.549  0.0839  1.2530  1.3216
31262SOL     OW 5509   9.637   7.702   4.096  0.2427 -0.3394  0.5242
31262SOL    HW1 5510   9.567   7.767   4.108 -1.0346 -1.6117  0.3069
31262SOL    HW2 5511   9.696   7.741   4.032 -0.6776  0.4702  0.1419
31263SOL     OW 5512   3.234   0.102   2.771  0.0526 -0.1820 -0.7582
31263SOL    HW1 5513   3.262   0.132   2.685  1.4683 -0.1565 -0.3074
31263SOL    HW2 5514   3.294   0.031   2.793  1.4452  1.5133  1.3165
31264SOL     OW 5515   6.330   1.823  10.660 -0.2536 -0.4597 -0.0657
31264SOL    HW1 5516   6.309   1.892  10.596  1.1277 -0.1577 -0.2169
31264SOL    HW2 5517   6.258   1.827  10.723 -0.3734  0.9223 -0.2500
31265SOL     OW 5518   7.151   6.828   6.241  0.2153  0.0201  0.3383
31265SOL    HW1 5519   7.099   6.843   6.162 -0.4839 -1.3059  0.5154
31265SOL    HW2 5520   7.148   6.911   6.288 -1.6417  0.0251  0.2713
31266SOL     OW 5521   2.505   9.448   5.594 -0.6840 -0.0470  0.0951
31266SOL    HW1 5522   2.515   9.356   5.569 -0.4619 -0.0801  0.3014
31266SOL    HW2 5523   2.591   9.473   5.627 -0.4024  0.5723 -1.0391
31267SOL     OW 5524   8.278  10.795  10.123 -0.2300 -0.2736 -0.6914
31267SOL    HW1 5525   8.189  10.764  10.104 -1.1486 -0.0670  2.6567
31267SOL    HW2 5526   8.270  10.890  10.124  0.2644 -0.2199 -1.2226
31268SOL     OW 5527   0.313   4.086   4.522 -0.6042 -0.9096 -0.4725
31268SOL    HW1 5528   0.335   3.995   4.502  0.7993 -0.5767 -0.5415
31268SOL    HW2 5529   0.265   4.082   4.604 -1.3104 -1.7797 -0.9115
31269SOL     OW 5530   2.953   6.813   2.169  0.0315 -0.5153  0.0551
31269SOL    HW1 5531   2.956   6.792   2.262 -0.3783  0.0027  0.1880
31269SOL    HW2 5532   2.860   6.823   2.149  0.1498 -0.0255 -0.2736
31270SOL     OW 5533   6.845   0.630   9.957 -0.4824 -0.2683  0.0215
31270SOL    HW1 5534   6.776   0.693   9.978 -1.6603 -1.0793 -1.2952
31270SOL    HW2 5535   6.799   0.549   9.938  0.8549 -0.8982 -0.6544
31271SOL     OW 5536   8.441   6.023   4.159  0.2282  0.0839 -0.0877
31271SOL    HW1 5537   8.389   6.048   4.234  0.7983  0.1403  0.2968
31271SOL    HW2 5538   8.423   5.930   4.146 -1.0619  0.4105 -0.8506
31272SOL     OW 5539   9.528  11.674   0.102 -0.0735  0.1218  0.3734
31272SOL    HW1 5540   9.519  11.606   0.036 -1.3576 -0.5254  1.1674
31272SOL    HW2 5541   9.539  11.626   0.184  0.0963  0.8838  0.8062
31273SOL     OW 5542   1.467   7.267  11.056  0.1324  0.1634  0.3226
31273SOL    HW1 5543   1.520   7.241  11.132  0.2871  0.1366  0.2054
31273SOL    HW2 5544   1.447   7.360  11.072  1.9868  0.7786 -0.6601
31274SOL     OW 5545   6.781   0.534   8.757 -0.1703 -0.7368 -0.3079
31274SOL    HW1 5546   6.840   0.473   8.802 -0.1731 -1.7077 -1.5775
31274SOL    HW2 5547   6.726   0.478   8.702  0.1453  0.4352 -1.8848
31275SOL     OW 5548   0.743   2.996  11.089  0.1057  0.6499 -0.5719
31275SOL    HW1 5549   0.746   2.920  11.031 -1.2361  0.1642 -0.0380
31275SOL    HW2 5550   0.654   3.030  11.080 -0.5366 -0.1209  2.0241
31276SOL     OW 5551   4.115   7.851   1.969 -0.3597  0.1567  0.0596
31276SOL    HW1 5552   4.051   7.808   2.025  0.6774 -1.1498  0.2857
31276SOL    HW2 5553   4.200   7.829   2.008  0.3000  0.5852 -1.0912
31277SOL     OW 5554   0.884  11.669  10.900 -0.4684 -0.4928 -0.2231
31277SOL    HW1 5555   0.938  11.620  10.837 -0.6699 -0.6377 -0.2837
31277SOL    HW2 5556   0.809  11.699  10.849  0.8460  2.0120 -0.8091
31278SOL     OW 5557   5.832   0.257   4.453  0.0370  0.4395  0.8893
31278SOL    HW1 5558   5.805   0.338   4.410 -0.8460 -0.1929  0.2149
31278SOL    HW2 5559   5.752   0.204   4.457  0.9780 -1.1845 -0.4580
31279SOL     OW 5560   4.066  11.014   8.082  0.0474 -0.2800  0.0802
31279SOL    HW1 5561   4.100  11.086   8.030  1.2081 -0.4558  0.5646
31279SOL    HW2 5562   3.972  11.028   8.085  0.3145  1.6667  0.8293
31280SOL     OW 5563   3.123   0.639   1.783 -0.2750 -0.2465 -0.2602
31280SOL    HW1 5564   3.114   0.732   1.801  2.0705 -0.2234  1.2435
31280SOL    HW2 5565   3.033   0.609   1.767 -1.2614  1.9696  0.6498
31281SOL     OW 5566   8.977  10.756   9.249 -0.7346  0.3241 -0.2464
31281SOL    HW1 5567   8.954  10.664   9.257 -2.1636  0.7560  1.0778
31281SOL    HW2 5568   9.007  10.781   9.336  1.5972  0.6530 -1.0828
31282SOL     OW 5569   8.333   3.774   6.212 -0.3678  0.2015 -0.1337
31282SOL    HW1 5570   8.385   3.778   6.292  0.5760 -0.6077 -0.6832
31282SOL    HW2 5571   8.285   3.691   6.219 -0.1202  0.0270 -0.5062
31283SOL     OW 5572   6.263   6.434  11.816  0.3178 -0.3141 -0.2635
31283SOL    HW1 5573   6.202   6.362  11.830 -0.7938  0.9361  1.6791
31283SOL    HW2 5574   6.212   6.513  11.831  2.0717  0.8302 -0.0037
31284SOL     OW 5575   6.599  10.363   2.049  0.0369  0.1856  0.2449
31284SOL    HW1 5576   6.522  10.394   2.095  0.9753  1.6604  0.8996
31284SOL    HW2 5577   6.673  10.396   2.100  1.1024 -0.0007 -1.1022
31285SOL     OW 5578   3.839   5.655   1.206 -0.6137  0.1925 -0.0588
31285SOL    HW1 5579   3.932   5.678   1.200 -0.9037  1.1689 -1.1570
31285SOL    HW2 5580   3.836   5.562   1.184 -0.0120  0.4494 -1.3344
31286SOL     OW 5581   4.939   9.215   5.468  0.2058 -0.0913  0.1806
31286SOL    HW1 5582   4.962   9.128   5.437  1.5293  0.7103 -1.2529
31286SOL    HW2 5583   4.882   9.200   5.543 -0.7690 -2.1786 -0.8960
31287SOL     OW 5584   6.165   8.758   5.128  0.2436 -0.7812 -0.0604
31287SOL    HW1 5585   6.241   8.748   5.185 -0.4551 -2.7963  0.6026
31287SOL    HW2 5586   6.200   8.796   5.048  2.1113 -2.3193 -0.0604
31288SOL     OW 5587   1.928  11.440   4.113  0.1267 -0.0582 -0.2709
31288SOL    HW1 5588   1.977  11.375   4.163 -1.0780 -0.4679  0.4122
31288SOL    HW2 5589   1.987  11.516   4.107  1.1162 -0.7982 -0.1276
31289SOL     OW 5590   1.135   9.204  10.421  0.5613  0.9257  0.5583
31289SOL    HW1 5591   1.227   9.185  10.441  0.2377 -0.0989  1.1940
31289SOL    HW2 5592   1.087   9.134  10.466 -0.4179  0.3716 -1.2634
31290SOL     OW 5593   4.335   0.012   7.225 -0.0560 -0.0572  0.1196
31290SOL    HW1 5594   4.247   0.026   7.192 -0.8834  1.0968  2.6408
31290SOL    HW2 5595   4.325  -0.053   7.295  0.6974  1.5752  1.8301
31291SOL     OW 5596  11.036   4.995  11.321  0.4231  0.4950  0.0544
31291SOL    HW1 5597  11.131   5.006  11.329  0.5027  0.6014 -0.9584
31291SOL    HW2 5598  11.024   4.900  11.321  0.5526  0.4780 -0.0459
31292SOL     OW 5599   9.475   3.809   9.944 -0.0702 -0.5203  0.1390
31292SOL    HW1 5600   9.465   3.863  10.023 -0.2416 -0.1580 -0.1319
31292SOL    HW2 5601   9.485   3.871   9.873  0.4250 -0.8537 -0.0871
31293SOL     OW 5602   5.774   0.505   0.917 -0.6771  0.1215 -0.6273
31293SOL    HW1 5603   5.803   0.486   1.006 -1.2373 -1.0277 -0.6722
31293SOL    HW2 5604   5.834   0.455   0.861  1.1782  2.6540 -1.0723
31294SOL     OW 5605   6.282  10.489   0.764  0.2442 -0.3207 -0.1711
31294SOL    HW1 5606   6.229  10.418   0.726 -0.0659 -0.0573 -0.2319
31294SOL    HW2 5607   6.302  10.459   0.853 -0.2249 -0.3089 -0.0597
31295SOL     OW 5608   2.403   4.727   4.440 -0.1505 -0.1969  0.0499
31295SOL    HW1 5609   2.484   4.743   4.489 -1.5344 -1.3930  2.9911
31295SOL    HW2 5610   2.409   4.784   4.364  3.4220 -0.2536  0.1379
31296SOL     OW 5611   8.655   7.011   0.698  0.2652  0.2675  0.0083
31296SOL    HW1 5612   8.583   6.949   0.686  0.1516  0.1726  1.0123
31296SOL    HW2 5613   8.732   6.956   0.712  0.4071  0.3645 -0.3868
31297SOL     OW 5614   1.819   3.249  11.091 -0.2929 -0.0442 -0.1661
31297SOL    HW1 5615   1.768   3.259  11.171 -0.3225  0.0984 -0.2017
31297SOL    HW2 5616   1.817   3.155  11.073 -1.0744  0.0236 -0.5001
31298SOL     OW 5617   3.542   1.376   9.995  0.8431 -0.0054  0.1193
31298SOL    HW1 5618   3.588   1.393   9.912  0.3027 -1.1808 -0.4367
31298SOL    HW2 5619   3.588   1.431  10.059  1.2600  0.9461 -0.9515
31299SOL     OW 5620   0.281   6.266  10.009 -0.0028 -0.0683 -0.3406
31299SOL    HW1 5621   0.186   6.271  10.007 -0.0108  0.6188  0.9028
31299SOL    HW2 5622   0.305   6.225   9.926 -1.2974  0.8981 -1.2210
31300SOL     OW 5623   9.213   6.581   6.088 -0.4169  0.2006  0.1016
31300SOL    HW1 5624   9.295   6.532   6.100 -0.9009 -0.3557  1.3380
31300SOL    HW2 5625   9.215   6.647   6.157 -1.4018 -0.3907  0.7189
31301SOL     OW 5626   6.221   6.124   2.187 -0.3174 -0.0319 -0.0535
31301SOL    HW1 5627   6.187   6.095   2.272  1.9344 -0.1875  0.8816
31301SOL    HW2 5628   6.228   6.043   2.136  0.0676 -0.2419  0.3156
31302SOL     OW 5629  10.256   1.749  11.190  0.0557 -0.0470  0.2415
31302SOL    HW1 5630  10.341   1.723  11.155 -0.5460 -1.1108 -0.4936
31302SOL    HW2 5631  10.235   1.830  11.143  0.4014 -0.1013 -0.0099
31303SOL     OW 5632   2.851   3.981   5.213  0.3663 -0.2534  0.1283
31303SOL    HW1 5633   2.782   3.925   5.178  0.7057 -1.1293  0.8099
31303SOL    HW2 5634   2.807   4.037   5.277  0.1684 -0.2887  0.0255
31304SOL     OW 5635   9.075   0.178   4.616  0.7865 -0.1268  0.3826
31304SOL    HW1 5636   9.117   0.131   4.688 -0.2847 -1.0487  0.4260
31304SOL    HW2 5637   8.982   0.163   4.628  0.3811  2.0178  0.3730
31305SOL     OW 5638  10.964   6.191   5.970  0.0383 -0.1710 -0.4407
31305SOL    HW1 5639  10.887   6.214   6.021  0.1491 -1.8036  0.5263
31305SOL    HW2 5640  10.962   6.251   5.895 -1.3198  0.8141  0.3425
31306SOL     OW 5641   3.868   8.856   7.633  0.2805  0.1528  0.2598
31306SOL    HW1 5642   3.794   8.910   7.664  1.0069  0.7662  0.9768
31306SOL    HW2 5643   3.896   8.808   7.711 -0.4505 -1.4329 -0.4026
31307SOL     OW 5644   6.510   4.299   3.313 -0.0335  0.1438 -0.1712
31307SOL    HW1 5645   6.510   4.284   3.407 -0.0252 -1.3931 -0.3830
31307SOL    HW2 5646   6.603   4.304   3.289 -0.0222 -0.1699 -0.1936
31308SOL     OW 5647   2.076   6.631   7.288  0.2335  0.1578  0.0461
31308SOL    HW1 5648   1.997   6.645   7.236 -0.1654  0.2858  0.6818
31308SOL    HW2 5649   2.055   6.667   7.374  1.4565  1.4549 -0.1607
31309SOL     OW 5650   2.550   9.687   4.422  0.2900 -0.5057  0.1881
31309SOL    HW1 5651   2.588   9.726   4.500  1.1747 -0.5867 -0.1956
31309SOL    HW2 5652   2.479   9.747   4.397  0.4554 -0.1156  0.6412
31310SOL     OW 5653   5.657   0.319   5.351  0.1484 -0.2505  0.9321
31310SOL    HW1 5654   5.579   0.345   5.400 -0.8189 -1.6563  0.2238
31310SOL    HW2 5655   5.711   0.271   5.413 -0.5588 -1.0898  0.9110
31311SOL     OW 5656   4.800   8.046   5.759  0.1869 -0.6794 -0.0328
31311SOL    HW1 5657   4.826   7.983   5.826 -1.1006 -0.2388  0.9375
31311SOL    HW2 5658   4.723   8.089   5.796  0.8943  1.3326 -0.7303
31312SOL     OW 5659   5.026   0.837  10.475  0.1791 -0.2030  0.0146
31312SOL    HW1 5660   4.934   0.813  10.481  0.2991 -1.0477 -1.1497
31312SOL    HW2 5661   5.071   0.754  10.460  0.9332  0.4012 -1.2540
31313SOL     OW 5662   6.994   0.178   5.594  0.4090 -0.6636 -0.1751
31313SOL    HW1 5663   6.935   0.111   5.629  1.4841 -1.2882  0.4940
31313SOL    HW2 5664   7.041   0.211   5.670  0.3794  0.3968 -0.5892
31314SOL     OW 5665  11.354   2.015   0.208 -0.1876 -0.1962  0.0421
31314SOL    HW1 5666  11.385   1.940   0.157  1.2180 -1.5669  2.7074
31314SOL    HW2 5667  11.266   1.991   0.235  0.0606 -0.6774  0.4394
31315SOL     OW 5668   4.615   7.295   7.777 -0.0855 -0.0213 -0.3542
31315SOL    HW1 5669   4.687   7.323   7.719  1.6978 -0.3122  1.5953
31315SOL    HW2 5670   4.544   7.272   7.717  0.6308  2.3667 -2.3027
31316SOL     OW 5671   6.288  11.414   5.717 -0.1189 -0.4819 -0.2683
31316SOL    HW1 5672   6.232  11.421   5.640 -1.2825 -0.9455  0.5068
31316SOL    HW2 5673   6.371  11.381   5.683 -0.3799 -0.0115 -1.4111
31317SOL     OW 5674   6.372   6.783   9.236 -0.2813  0.4230 -0.3422
31317SOL    HW1 5675   6.360   6.688   9.238  0.3314  0.3529  0.9655
31317SOL    HW2 5676   6.465   6.796   9.254 -0.5018  1.2816  0.2611
31318SOL     OW 5677   7.741  11.663   9.850  0.0896 -0.2261 -0.2082
31318SOL    HW1 5678   7.741  11.656   9.945  1.9120 -0.8245 -0.2135
31318SOL    HW2 5679   7.772  11.751   9.831 -0.4931 -0.0263 -0.2650
31319SOL     OW 5680   8.761   4.056   7.745 -0.4112 -0.0430  0.2529
31319SOL    HW1 5681   8.688   4.081   7.802  1.0989  2.7923  1.1603
31319SOL    HW2 5682   8.746   4.104   7.663  0.0916  0.0787  0.2232
31320SOL     OW 5683   6.144   7.389   2.506  0.3261  0.0409  0.2904
31320SOL    HW1 5684   6.179   7.402   2.594 -3.4598  2.2839  1.7181
31320SOL    HW2 5685   6.178   7.463   2.456  1.6028 -0.6239  0.1505
31321SOL     OW 5686   3.410   5.590   2.869  0.6467 -0.2417  0.2354
31321SOL    HW1 5687   3.321   5.567   2.844  0.2671  0.9972  0.3986
31321SOL    HW2 5688   3.465   5.528   2.821 -0.3165 -1.4179  0.6122
31322SOL     OW 5689  10.171   5.018   0.501 -0.0816  0.1038  0.3898
31322SOL    HW1 5690  10.228   5.086   0.536 -0.1369  0.7884 -0.8150
31322SOL    HW2 5691  10.186   5.020   0.406  0.4843 -2.0743  0.3728
31323SOL     OW 5692   9.304  10.235   8.532 -0.3611  0.3015 -0.2704
31323SOL    HW1 5693   9.286  10.264   8.443 -1.2465  0.4360 -0.0609
31323SOL    HW2 5694   9.382  10.180   8.525 -1.0265 -0.5393 -1.2885
31324SOL     OW 5695   6.008   0.080   8.021  0.3438 -0.1723 -0.1405
31324SOL    HW1 5696   5.971   0.049   7.938 -1.3106 -0.8718  0.8026
31324SOL    HW2 5697   5.988   0.174   8.022 -1.1853 -0.4746  0.1930
31325SOL     OW 5698  11.900   0.915  11.067  0.3693 -0.1573  0.1310
31325SOL    HW1 5699  11.938   0.838  11.109 -0.7933 -0.2243  1.1256
31325SOL    HW2 5700  11.927   0.988  11.122 -1.1674 -0.2458  1.0667
31326SOL     OW 5701   2.118   5.112   7.546 -0.3758 -0.1115 -0.4870
31326SOL    HW1 5702   2.093   5.196   7.586 -2.3221 -0.6594 -0.4528
31326SOL    HW2 5703   2.117   5.050   7.619  2.3078 -0.0158 -0.2564
31327SOL     OW 5704   6.681   6.880  10.682  0.5163 -0.4060  0.5376
31327SOL    HW1 5705   6.683   6.821  10.607  0.6336  1.3833 -0.9153
31327SOL    HW2 5706   6.621   6.837  10.744  1.6898 -2.7270  0.1899
31328SOL     OW 5707  10.374   2.788   7.761 -0.5563 -0.9208  0.2589
31328SOL    HW1 5708  10.459   2.768   7.722 -2.0984 -0.2803 -3.9973
31328SOL    HW2 5709  10.388   2.869   7.809  1.3404 -1.1099  0.0918
31329SOL     OW 5710   2.518   6.393   0.344 -0.0930 -0.0245 -0.2015
31329SOL    HW1 5711   2.428   6.422   0.328 -0.1845 -1.4838 -3.0349
31329SOL    HW2 5712   2.516   6.356   0.432 -2.3164 -0.1676 -0.2611
31330SOL     OW 5713   8.779   6.958   2.201  0.4102 -0.2520 -0.4160
31330SOL    HW1 5714   8.844   6.926   2.138  0.3508  1.9479 -1.6667
31330SOL    HW2 5715   8.696   6.954   2.154 -0.0908 -1.1599  0.4988
31331SOL     OW 5716   0.403  10.887   9.174  0.2606  0.2057  0.1586
31331SOL    HW1 5717   0.329  10.872   9.115  1.0378  1.6572 -1.2591
31331SOL    HW2 5718   0.474  10.916   9.117  1.3194  0.8248  1.7245
31332SOL     OW 5719   9.160   6.718   3.773  0.1794  0.3384 -0.3674
31332SOL    HW1 5720   9.131   6.649   3.712  2.0988 -0.0928 -0.8851
31332SOL    HW2 5721   9.220   6.673   3.832 -1.0592  0.9257  1.4096
31333SOL     OW 5722   7.718   0.368   6.735 -0.3475  0.3708 -0.4059
31333SOL    HW1 5723   7.792   0.343   6.792 -1.6725 -1.2247  0.7119
31333SOL    HW2 5724   7.756   0.369   6.647  1.0419 -0.3486  0.1413
31334SOL     OW 5725   4.509   3.555   5.389 -0.3923 -0.3511 -0.0692
31334SOL    HW1 5726   4.414   3.559   5.380 -0.3434  0.5251 -0.3359
31334SOL    HW2 5727   4.538   3.646   5.375  0.3857 -0.4098  1.0162
31335SOL     OW 5728   6.054   1.181   0.161 -0.6219  0.1640  0.1364
31335SOL    HW1 5729   6.036   1.158   0.252  1.6607 -0.7661  0.4131
31335SOL    HW2 5730   6.144   1.153   0.146 -0.1878  2.2628 -1.7890
31336SOL     OW 5731   0.252  10.091   9.956 -0.2771 -0.2294 -0.0343
31336SOL    HW1 5732   0.286  10.172   9.996  0.0307  0.0471 -0.8470
31336SOL    HW2 5733   0.198  10.121   9.883 -1.2898 -0.7146  0.4947
31337SOL     OW 5734   6.566   7.255   2.710  0.2628  0.0702 -0.0720
31337SOL    HW1 5735   6.503   7.246   2.781  0.9096  0.1290  0.5150
31337SOL    HW2 5736   6.630   7.186   2.726  0.6370  0.3441 -0.3655
31338SOL     OW 5737  10.173   7.620  10.387  0.3718 -0.2225  0.3131
31338SOL    HW1 5738  10.208   7.645  10.472  0.2836 -0.1160  0.3187
31338SOL    HW2 5739  10.199   7.692  10.329  0.0728 -0.0915  0.3408
31339SOL     OW 5740   5.169   7.747   9.347  0.3709  0.5602 -0.2316
31339SOL    HW1 5741   5.105   7.684   9.314  1.0916  0.4234 -1.4216
31339SOL    HW2 5742   5.229   7.760   9.274  2.2727 -0.0479  1.1646
31340SOL     OW 5743   2.724   6.229   1.733 -0.0667  0.0207  0.2347
31340SOL    HW1 5744   2.744   6.323   1.725  1.9287 -0.2448  1.4003
31340SOL    HW2 5745   2.755   6.191   1.651 -0.0159  0.2337  0.1535
31341SOL     OW 5746   8.629   4.906   0.440 -0.1997 -0.4179 -0.0950
31341SOL    HW1 5747   8.682   4.948   0.372  2.3711 -0.6514  1.6083
31341SOL    HW2 5748   8.604   4.822   0.401  2.6561 -1.3060 -0.2929
31342SOL     OW 5749   1.002   4.557   2.080  0.3027  0.1466  0.2107
31342SOL    HW1 5750   0.978   4.644   2.050  0.5334 -0.2913 -1.3336
31342SOL    HW2 5751   1.023   4.568   2.173  2.9333  2.2844 -0.5079
31343SOL     OW 5752  11.480   3.715   9.351 -0.2964 -0.2577  0.0987
31343SOL    HW1 5753  11.554   3.654   9.344 -0.3056 -0.2783  0.1780
31343SOL    HW2 5754  11.427   3.681   9.423 -0.0581  0.1012  0.4467
31344SOL     OW 5755  10.271   0.135   1.106 -0.0189  0.4637  0.1607
31344SOL    HW1 5756  10.206   0.188   1.151 -0.2750  0.2334  0.0661
31344SOL    HW2 5757  10.314   0.195   1.046  1.2888  1.1279  1.6712
31345SOL     OW 5758   5.239  10.035  10.222  0.3896 -0.0279 -0.1593
31345SOL    HW1 5759   5.169  10.084  10.264  0.7707 -0.5899  1.1751
31345SOL    HW2 5760   5.256   9.962  10.281  1.1675 -0.6625 -1.1420
31346SOL     OW 5761   3.205   7.485   6.783 -0.0208 -0.0238 -0.1246
31346SOL    HW1 5762   3.121   7.507   6.743  0.3624  0.4837 -0.6723
31346SOL    HW2 5763   3.222   7.556   6.844 -0.0487 -0.1882  0.0745
31347SOL     OW 5764   9.583   8.230   5.141 -0.2212 -0.4803 -0.9919
31347SOL    HW1 5765   9.645   8.242   5.069  0.6759  1.6197  0.0505
31347SOL    HW2 5766   9.611   8.292   5.208 -2.8691 -0.1361 -0.0658
31348SOL     OW 5767   9.579  11.927   3.701 -0.9017 -0.0494  0.2416
31348SOL    HW1 5768   9.605  11.952   3.790 -2.6273 -0.1552  0.7982
31348SOL    HW2 5769   9.484  11.928   3.702 -0.9576 -0.5493 -1.4820
31349SOL     OW 5770   9.423   6.326   7.950 -0.3608 -0.2468 -0.3134
31349SOL    HW1 5771   9.408   6.421   7.950 -0.4666 -0.2545  0.5083
31349SOL    HW2 5772   9.513   6.316   7.979 -0.5494 -0.4148  0.2327
31350SOL     OW 5773   4.559   9.223   4.079 -0.5309  0.5641  0.0441
31350SOL    HW1 5774   4.592   9.149   4.029  0.1136  0.4946  0.5480
31350SOL    HW2 5775   4.636   9.258   4.124 -0.9799  0.9936  0.5045
31351SOL     OW 5776   7.844   0.020   1.432  0.9673 -0.9259  0.1202
31351SOL    HW1 5777   7.809   0.096   1.387  2.6686 -0.1759 -0.0074
31351SOL    HW2 5778   7.897   0.057   1.503 -0.7163 -2.0540  2.0978
31352SOL     OW 5779   0.349   5.713   0.843 -0.1035 -0.3956 -0.2468
31352SOL    HW1 5780   0.337   5.718   0.938  2.2863  1.1643  0.0454
31352SOL    HW2 5781   0.403   5.635   0.830 -0.4628 -0.6313 -0.3473
31353SOL     OW 5782   9.059   2.184   6.351 -0.2819 -0.1368  0.4353
31353SOL    HW1 5783   9.054   2.129   6.273  0.8520 -1.9062  1.5206
31353SOL    HW2 5784   8.969   2.193   6.380 -0.7818  0.9914 -1.3332
31354SOL     OW 5785   1.809  11.606   5.450  0.5237  0.1335  0.0535
31354SOL    HW1 5786   1.807  11.567   5.363 -0.5131  1.0649 -0.3620
31354SOL    HW2 5787   1.750  11.552   5.502  0.6284 -0.0277  0.0056
31355SOL     OW 5788   2.421   6.864   3.091  0.2033  0.2100  0.0522
31355SOL    HW1 5789   2.502   6.874   3.141 -0.7763 -0.0446  1.7692
31355SOL    HW2 5790   2.416   6.941   3.036  1.4547  0.3828  0.1665
31356SOL     OW 5791   4.044   3.962   4.111 -0.0967 -0.2237  0.8640
31356SOL    HW1 5792   4.004   4.014   4.181  0.6299  2.1887 -0.4166
31356SOL    HW2 5793   4.137   3.961   4.132 -0.2008 -2.0458  1.4535
31357SOL     OW 5794   4.831  10.815   7.192 -0.3475 -0.6119 -0.3593
31357SOL    HW1 5795   4.774  10.748   7.232 -1.3374 -0.0060 -0.7042
31357SOL    HW2 5796   4.812  10.894   7.243  1.4008 -0.7555  0.5611
31358SOL     OW 5797   2.864   9.417  11.749  0.2241 -0.1973  0.1431
31358SOL    HW1 5798   2.780   9.391  11.787  0.2262 -1.6216 -0.7333
31358SOL    HW2 5799   2.892   9.340  11.699  0.5437  1.3439 -2.1881
31359SOL     OW 5800   9.437   5.599   6.561 -0.2266 -0.1252 -0.5351
31359SOL    HW1 5801   9.368   5.639   6.614 -0.3158  2.2056 -2.2325
31359SOL    HW2 5802   9.452   5.514   6.601 -3.3149 -0.2908  0.5612
31360SOL     OW 5803   4.807   9.701   0.542 -0.3441 -0.8830 -0.0011
31360SOL    HW1 5804   4.843   9.643   0.609  1.8361  0.0606 -0.2758
31360SOL    HW2 5805   4.819   9.789   0.578 -1.3408 -0.4705 -0.6300
31361SOL     OW 5806   5.640   4.620   5.966 -0.4040  0.2738 -0.8093
31361SOL    HW1 5807   5.617   4.648   5.878 -0.4191  0.4829 -0.7375
31361SOL    HW2 5808   5.671   4.699   6.010 -0.6758  0.2299 -0.5352
31362SOL     OW 5809   7.116  11.259   7.228  0.7487 -0.3976 -0.0244
31362SOL    HW1 5810   7.086  11.225   7.144  0.2861  0.5438 -0.2556
31362SOL    HW2 5811   7.059  11.217   7.293  0.4969 -0.4256 -0.2626
31363SOL     OW 5812   4.648   1.684   9.136 -0.0311  0.4913 -0.7363
31363SOL    HW1 5813   4.699   1.615   9.179 -1.6297 -0.8289 -0.8698
31363SOL    HW2 5814   4.660   1.668   9.043 -0.8339  0.0493 -0.7682
31364SOL     OW 5815   7.179   4.615   6.504 -0.3398  0.6590 -0.1615
31364SOL    HW1 5816   7.133   4.556   6.445 -1.3318 -0.2423  1.4503
31364SOL    HW2 5817   7.133   4.699   6.495 -1.6269  0.0559  0.6146
31365SOL     OW 5818   0.581   5.853   0.200 -0.8404  0.1535  0.3343
31365SOL    HW1 5819   0.496   5.897   0.208 -0.6713  0.6106 -0.3403
31365SOL    HW2 5820   0.559   5.764   0.171 -1.1076  0.1595  0.5104
31366SOL     OW 5821   7.886   3.214   1.617  0.1842 -0.4403 -0.2555
31366SOL    HW1 5822   7.975   3.182   1.607  0.8608  1.6673 -1.5532
31366SOL    HW2 5823   7.869   3.206   1.711  2.0320 -0.1596  0.1420
31367SOL     OW 5824   0.395   3.583   9.258  0.0374 -0.4441 -0.3950
31367SOL    HW1 5825   0.474   3.623   9.295 -0.3435 -1.3393  1.5031
31367SOL    HW2 5826   0.427   3.513   9.203  0.5994 -0.8200  0.3882
31368SOL     OW 5827   8.583   5.726   9.714  0.0034  0.3769 -0.0767
31368SOL    HW1 5828   8.559   5.645   9.669 -0.2369  1.1289 -1.3380
31368SOL    HW2 5829   8.679   5.728   9.708  0.0751 -0.2075  0.6862
31369SOL     OW 5830  10.839  11.787   5.879  0.7442 -0.6818  0.3375
31369SOL    HW1 5831  10.858  11.850   5.947  3.3589 -0.7283 -0.2391
31369SOL    HW2 5832  10.855  11.702   5.920 -1.7457 -0.9947  0.8067
31370SOL     OW 5833   5.864   6.302   8.711 -0.0431  0.2955  0.3437
31370SOL    HW1 5834   5.913   6.247   8.649  0.2439  0.4972  0.3904
31370SOL    HW2 5835   5.856   6.386   8.667 -1.3406 -0.0594 -0.1492
31371SOL     OW 5836   9.677   6.994   8.493  0.2730 -0.1621  0.0067
31371SOL    HW1 5837   9.720   7.065   8.541  2.6677 -2.2864  1.2254
31371SOL    HW2 5838   9.589   6.988   8.531  0.4819  1.2581  0.7863
31372SOL     OW 5839   6.162  10.079   8.832  0.1642 -0.1224  0.3448
31372SOL    HW1 5840   6.076  10.114   8.853  0.1029  0.0231 -0.1447
31372SOL    HW2 5841   6.202  10.061   8.917  0.3672  1.5493  0.6537
31373SOL     OW 5842  11.700   8.781   0.568 -0.3610 -0.1527  1.0707
31373SOL    HW1 5843  11.729   8.736   0.488  1.4587  1.7378  0.5945
31373SOL    HW2 5844  11.605   8.787   0.559 -0.2158 -0.1099 -0.9043
31374SOL     OW 5845   6.093   8.177   9.151 -0.0811  0.8594  0.0748
31374SOL    HW1 5846   6.184   8.155   9.170  0.5023  0.7848 -2.4676
31374SOL    HW2 5847   6.044   8.096   9.170  0.6269  0.4035 -0.0257
31375SOL     OW 5848   0.258   1.654  11.373 -0.0738 -0.3575  0.6963
31375SOL    HW1 5849   0.217   1.613  11.449 -2.6191  2.4962  1.0779
31375SOL    HW2 5850   0.232   1.746  11.379  2.7903  0.7741 -1.6335
31376SOL     OW 5851   2.109   7.952   3.427  0.1486  0.9144 -0.0755
31376SOL    HW1 5852   2.032   7.935   3.374 -0.3711  0.4600  0.7909
31376SOL    HW2 5853   2.154   8.024   3.383  0.1232  0.0836 -1.4956
31377SOL     OW 5854   7.955   9.193   0.927 -0.1122 -0.1142  0.3262
31377SOL    HW1 5855   7.909   9.260   0.977 -0.1475  0.7156 -0.7690
31377SOL    HW2 5856   7.905   9.184   0.846  1.9046  1.2737 -1.1955
31378SOL     OW 5857  11.286   1.020  10.802 -0.5448  0.6809 -0.6665
31378SOL    HW1 5858  11.298   1.115  10.802  0.3976  0.5716 -0.7806
31378SOL    HW2 5859  11.210   1.006  10.745 -0.8777  1.3825 -0.4090
31379SOL     OW 5860  10.019   8.466   6.137  0.3066 -0.6864 -0.2554
31379SOL    HW1 5861  10.011   8.478   6.042  0.5362  0.4634 -0.1407
31379SOL    HW2 5862  10.110   8.484   6.156  0.1973 -0.6366  0.2264
31380SOL     OW 5863   0.353   2.231   4.717  0.4971 -0.0046 -0.3125
31380SOL    HW1 5864   0.446   2.222   4.737  0.5971 -1.0576 -1.1433
31380SOL    HW2 5865   0.338   2.169   4.645 -0.3322  1.8080 -1.8054
31381SOL     OW 5866   7.006   8.127   8.202 -0.2660  0.0645 -0.1615
31381SOL    HW1 5867   7.077   8.181   8.238  0.0322 -0.3253 -0.1556
31381SOL    HW2 5868   6.999   8.053   8.262 -2.1420  1.1589  1.0818
31382SOL     OW 5869   0.076   5.853   7.926 -0.0741 -0.0203  0.0044
31382SOL    HW1 5870   0.094   5.925   7.986 -1.1234  0.8803 -0.7216
31382SOL    HW2 5871   0.162   5.831   7.888  0.6106 -0.6160  1.7773
31383SOL     OW 5872   3.816   1.438   7.609 -0.6433  0.8150 -0.2172
31383SOL    HW1 5873   3.832   1.497   7.534  1.0701  0.3999 -0.2205
31383SOL    HW2 5874   3.849   1.487   7.685  1.8425 -0.4804 -0.3547
31384SOL     OW 5875   9.500   1.631   4.782  0.2135 -0.0812 -0.3602
31384SOL    HW1 5876   9.450   1.672   4.853 -0.7725  1.2902 -1.7781
31384SOL    HW2 5877   9.592   1.641   4.809 -0.1120  0.9925  0.4302
31385SOL     OW 5878   2.997   9.613   7.981  0.0553  0.8511 -0.3668
31385SOL    HW1 5879   3.058   9.648   7.917 -0.9730  0.1879 -1.7531
31385SOL    HW2 5880   2.913   9.652   7.958 -0.3061  0.7209  0.6788
31386SOL     OW 5881   8.841   9.365   5.575 -0.6200  0.0436  0.2552
31386SOL    HW1 5882   8.773   9.301   5.595  0.1904 -1.9928 -2.9588
31386SOL    HW2 5883   8.817   9.401   5.490  1.2282  0.8352  0.0083
31387SOL     OW 5884   7.801   8.316   6.911  0.1843  0.0885 -0.4688
31387SOL    HW1 5885   7.739   8.341   6.842 -1.2888 -0.5943  0.5639
31387SOL    HW2 5886   7.781   8.224   6.929  0.4524  0.2888  0.9507
31388SOL     OW 5887   3.509   2.349  11.519  0.2377  0.0228 -0.0185
31388SOL    HW1 5888   3.469   2.312  11.441  0.5835 -0.2838 -0.0510
31388SOL    HW2 5889   3.484   2.289  11.590 -0.0469  0.2807  0.1012
31389SOL     OW 5890   0.621   7.537   0.626 -0.2669  0.8460 -0.1668
31389SOL    HW1 5891   0.704   7.519   0.670 -0.2231 -1.3021 -1.0055
31389SOL    HW2 5892   0.600   7.627   0.650  1.3508  0.8102  1.5867
31390SOL     OW 5893   6.504   1.195  10.217 -0.1833 -0.2820 -0.5393
31390SOL    HW1 5894   6.476   1.124  10.275 -0.8541  1.4863  1.3916
31390SOL    HW2 5895   6.598   1.180  10.206  0.2085 -0.0729  1.9480
31391SOL     OW 5896   1.909  10.962   7.736 -0.1991 -0.1341 -0.5504
31391SOL    HW1 5897   1.894  10.868   7.735  0.3186 -0.2291 -0.0081
31391SOL    HW2 5898   1.824  11.000   7.759  0.2436 -0.6441  2.2840
31392SOL     OW 5899   8.087   3.936   9.218  0.9298  0.4966 -0.3189
31392SOL    HW1 5900   8.085   3.957   9.311  2.4653  0.5278 -0.2726
31392SOL    HW2 5901   8.030   4.001   9.177  1.2545  1.2743  0.4480
31393SOL     OW 5902   4.038   8.639  10.645 -0.1248 -0.2113 -0.2269
31393SOL    HW1 5903   4.055   8.719  10.595  1.1485 -0.2824  0.0526
31393SOL    HW2 5904   4.065   8.660  10.734 -1.5562 -0.3707  0.2641
31394SOL     OW 5905   0.568  10.383   7.195  0.0810  0.5377 -0.1394
31394SOL    HW1 5906   0.605  10.440   7.263  1.6183 -0.3026 -0.2346
31394SOL    HW2 5907   0.631  10.388   7.124 -0.7801  0.2491 -0.9340
31395SOL     OW 5908   6.012   7.901  11.713 -1.4660 -0.4467 -0.4082
31395SOL    HW1 5909   5.977   7.841  11.648  0.4155 -0.9433 -1.0263
31395SOL    HW2 5910   6.102   7.918  11.685 -0.7502 -0.2710  1.7548
31396SOL     OW 5911   9.329   4.120   4.790  0.2020  0.2806  0.6687
31396SOL    HW1 5912   9.340   4.034   4.830 -0.1261 -0.2144 -0.2818
31396SOL    HW2 5913   9.411   4.166   4.809  0.7323 -0.5497  0.4396
31397SOL     OW 5914   5.483   4.417   1.914 -0.2107  0.3194  0.1943
31397SOL    HW1 5915   5.426   4.493   1.907 -0.1635  0.2670 -1.1454
31397SOL    HW2 5916   5.444   4.352   1.855  0.5478 -0.1662  0.2068
31398SOL     OW 5917   9.062   8.280   5.766 -0.0006  0.4137 -0.2639
31398SOL    HW1 5918   9.023   8.355   5.720 -1.4839  0.2244  0.6203
31398SOL    HW2 5919   9.140   8.258   5.714  1.0224  3.1274 -0.0658
31399SOL     OW 5920   8.398   4.957  10.212 -0.0516  0.2586 -0.1511
31399SOL    HW1 5921   8.391   4.874  10.260 -1.3416  0.6413  0.3916
31399SOL    HW2 5922   8.490   4.981  10.218  0.2669 -0.9405  0.0134
31400SOL     OW 5923  10.423   3.569  10.318  0.1642  0.5384 -0.5526
31400SOL    HW1 5924  10.408   3.663  10.310 -0.6794  0.5658  1.0060
31400SOL    HW2 5925  10.382   3.531  10.239 -0.6590  1.3695 -0.5412
31401SOL     OW 5926   1.207   4.667   8.131 -0.2730 -0.7928  0.3556
31401SOL    HW1 5927   1.228   4.758   8.153 -0.0989 -0.2885 -1.6724
31401SOL    HW2 5928   1.119   4.654   8.165  0.6942 -0.7761  3.0739
31402SOL     OW 5929  10.718   1.169   2.741  0.3536 -0.7153 -0.4861
31402SOL    HW1 5930  10.631   1.136   2.720  0.1509 -0.1883 -0.4828
31402SOL    HW2 5931  10.703   1.236   2.807  0.8095 -0.9776 -0.1139
31403SOL     OW 5932   9.570   9.778   8.369 -0.1851  0.0164  0.6155
31403SOL    HW1 5933   9.548   9.738   8.284  3.2914  0.7913 -0.7998
31403SOL    HW2 5934   9.577   9.704   8.429 -2.3327 -0.5804  0.2420
31404SOL     OW 5935   1.745   2.528   1.935 -0.0247  0.3816 -0.6303
31404SOL    HW1 5936   1.809   2.522   2.007 -2.0955  0.3066  1.3204
31404SOL    HW2 5937   1.726   2.622   1.928 -1.8011  0.1966  0.8677
31405SOL     OW 5938   1.200  10.587   7.789  0.6273 -0.1323  0.6133
31405SOL    HW1 5939   1.121  10.537   7.805  0.6731 -0.1320  0.8428
31405SOL    HW2 5940   1.193  10.663   7.846  0.9413 -0.2925  0.8691
31406SOL     OW 5941   4.985   5.729   3.943 -0.0658 -0.3382 -0.1570
31406SOL    HW1 5942   4.936   5.737   3.861 -0.1838 -1.6253 -0.2383
31406SOL    HW2 5943   5.065   5.779   3.929 -1.7121  2.6573  0.3209
31407SOL     OW 5944   5.545   2.970   8.457 -0.4889 -0.5842 -0.2279
31407SOL    HW1 5945   5.476   2.968   8.390 -0.2488 -0.0614 -0.4985
31407SOL    HW2 5946   5.625   2.948   8.410 -0.5381 -1.7270  0.1933
31408SOL     OW 5947   8.345   4.256   8.470 -0.2953  0.3970  0.4523
31408SOL    HW1 5948   8.268   4.311   8.486 -1.0699 -0.5435  0.0754
31408SOL    HW2 5949   8.389   4.297   8.396 -1.5102 -0.1007 -0.5890
31409SOL     OW 5950   9.692   5.489  11.376 -0.5202 -0.8006 -0.0549
31409SOL    HW1 5951   9.656   5.554  11.436  0.2983 -1.2472  0.9608
31409SOL    HW2 5952   9.616   5.453  11.330 -1.0995 -0.0377  0.2952
31410SOL     OW 5953   4.470  10.424   8.822 -0.2044 -0.0295  0.0887
31410SOL    HW1 5954   4.549  10.420   8.769 -1.4502  1.3981 -2.0004
31410SOL    HW2 5955   4.491  10.484   8.893  0.8511 -0.3840  0.0889
31411SOL     OW 5956   0.809  10.911   8.747  0.4474 -0.7977 -0.2298
31411SOL    HW1 5957   0.900  10.924   8.721 -0.7605 -0.5137 -5.2894
31411SOL    HW2 5958   0.769  10.998   8.743 -0.3491 -1.0951  0.7034
31412SOL     OW 5959   3.561   9.864   0.517 -0.3498  0.0263  0.2943
31412SOL    HW1 5960   3.512   9.784   0.495 -0.0713 -0.4156  1.2143
31412SOL    HW2 5961   3.649   9.833   0.538 -0.4072  0.5019  1.2791
31413SOL     OW 5962   8.702  11.332   7.920  0.5826 -0.3016 -0.3452
31413SOL    HW1 5963   8.742  11.411   7.884 -0.4912 -0.4602 -2.0282
31413SOL    HW2 5964   8.743  11.320   8.005  1.4160  1.5520 -0.4513
31414SOL     OW 5965   6.136   5.413  10.976 -0.5798 -0.3916 -0.1651
31414SOL    HW1 5966   6.147   5.330  11.022  0.1386 -0.3622 -0.2766
31414SOL    HW2 5967   6.044   5.436  10.989 -0.9157 -1.4541 -0.5587
31415SOL     OW 5968   9.204   9.118  11.241  0.1089 -0.1540 -0.2665
31415SOL    HW1 5969   9.269   9.113  11.171  0.2966  1.2409 -0.2196
31415SOL    HW2 5970   9.120   9.110  11.195  0.0417  3.7972 -1.1908
31416SOL     OW 5971   2.987   4.647   1.427 -0.4902 -0.4004  0.0553
31416SOL    HW1 5972   2.931   4.594   1.484 -1.4099  0.3274 -0.1481
31416SOL    HW2 5973   2.941   4.731   1.419  1.2193  0.6817  0.8656
31417SOL     OW 5974   3.799   8.389   3.441 -0.0685  0.5397  0.2710
31417SOL    HW1 5975   3.882   8.364   3.401  0.5262 -0.2529  1.9224
31417SOL    HW2 5976   3.807   8.484   3.455  0.0503  0.6777 -0.6528
31418SOL     OW 5977   9.189   1.383   2.684  0.6439  0.3889  0.3862
31418SOL    HW1 5978   9.153   1.320   2.746  0.9559 -0.5036 -0.3211
31418SOL    HW2 5979   9.231   1.449   2.739  0.9797 -0.4200  1.1291
31419SOL     OW 5980   0.470   9.374   7.713  0.0088 -0.6237 -0.5454
31419SOL    HW1 5981   0.535   9.323   7.665  0.9467 -2.2864  2.2742
31419SOL    HW2 5982   0.504   9.463   7.713  1.7487 -1.2570 -0.0565
31420SOL     OW 5983   5.699  10.203   8.155 -0.1219 -0.1627  0.1120
31420SOL    HW1 5984   5.741  10.231   8.236  0.3071  1.3217 -0.5818
31420SOL    HW2 5985   5.606  10.221   8.167  0.0703  1.0382 -0.0835
31421SOL     OW 5986   0.101   0.040  11.305  0.1366  0.0097  0.0263
31421SOL    HW1 5987   0.196   0.024  11.301 -0.0684 -1.0833 -1.2425
31421SOL    HW2 5988   0.090   0.126  11.265  0.6388  0.3759  0.6630
31422SOL     OW 5989  10.629   3.578   8.212  0.2976 -0.6427 -0.3395
31422SOL    HW1 5990  10.546   3.606   8.250  0.1237  0.9450 -1.7577
31422SOL    HW2 5991  10.663   3.513   8.273 -1.8809 -1.1737  0.3809
31423SOL     OW 5992  10.138   5.875   7.069  0.3132 -0.3866  0.2372
31423SOL    HW1 5993  10.134   5.951   7.127  1.1090  0.0586 -0.2689
31423SOL    HW2 5994  10.049   5.866   7.034  0.1399  0.1186  0.5457
31424SOL     OW 5995   1.095   4.441   0.724 -0.3957  0.2894 -0.1615
31424SOL    HW1 5996   1.138   4.455   0.808  0.1451  1.6526 -0.6254
31424SOL    HW2 5997   1.166   4.447   0.659 -0.9469  0.2680 -0.7826
31425SOL     OW 5998  11.330   4.336   9.791 -0.2326  0.0748  0.0587
31425SOL    HW1 5999  11.382   4.268   9.834  0.8127  0.6307 -0.2788
31425SOL    HW2 6000  11.255   4.290   9.753  1.3878 -1.2336 -1.7738
31426SOL     OW 6001  11.219   2.609   3.143  0.0583 -0.8770  0.5184
31426SOL    HW1 6002  11.237   2.668   3.217 -2.2650 -1.9888  2.0811
31426SOL    HW2 6003  11.242   2.661   3.066 -1.1326  1.8330  1.8363
31427SOL     OW 6004   7.030   8.138   0.191  0.1186  0.8254 -0.5898
31427SOL    HW1 6005   7.101   8.200   0.208 -0.2676  1.2371 -0.4557
31427SOL    HW2 6006   7.066   8.053   0.216 -0.3824  1.3622  2.2896
31428SOL     OW 6007   2.721  11.339   3.939 -0.2430  0.1457  0.2757
31428SOL    HW1 6008   2.726  11.391   3.858 -3.4843  1.3228  0.6726
31428SOL    HW2 6009   2.795  11.369   3.991  0.4235  1.2566 -1.2392
31429SOL     OW 6010   5.004   5.625   0.592 -0.2705 -0.2825  0.4354
31429SOL    HW1 6011   5.059   5.623   0.670  0.1494 -0.8820  0.1316
31429SOL    HW2 6012   5.018   5.540   0.551 -1.0039 -0.2294  0.0621
31430SOL     OW 6013   0.005   2.807   0.274  0.2686  0.4853  0.1737
31430SOL    HW1 6014  -0.047   2.732   0.245  0.0963  0.4023  0.7029
31430SOL    HW2 6015  -0.046   2.847   0.344 -0.2427  1.8283 -0.9107
31431SOL     OW 6016   3.145  11.709   7.452  0.2516 -0.0211  0.5264
31431SOL    HW1 6017   3.234  11.683   7.476 -0.4663  1.2293  5.7440
31431SOL    HW2 6018   3.091  11.635   7.480 -0.5498 -0.2723 -1.5178
31432SOL     OW 6019   6.908   9.938   3.595  0.2579  0.1510  0.4696
31432SOL    HW1 6020   6.994   9.979   3.591  0.2501  0.2025  0.8098
31432SOL    HW2 6021   6.867   9.975   3.673 -0.9209  1.7533 -0.8364
31433SOL     OW 6022   5.585   3.900   6.950 -0.3068 -0.0437 -0.2500
31433SOL    HW1 6023   5.569   3.890   7.044 -0.5457 -1.0377 -0.3761
31433SOL    HW2 6024   5.627   3.985   6.941 -0.1772  0.0115  0.7701
31434SOL     OW 6025   6.375   7.935   2.035  0.1301  0.2134  0.1894
31434SOL    HW1 6026   6.386   7.883   1.956 -1.2603  0.3328 -0.1157
31434SOL    HW2 6027   6.332   7.875   2.097 -1.1458  0.8536 -0.0425
31435SOL     OW 6028   8.910   7.011   5.358  0.9445  0.1846  0.2110
31435SOL    HW1 6029   8.904   7.106   5.364  1.3514  0.2091  0.2408
31435SOL    HW2 6030   8.930   6.982   5.447  2.4346  0.2033 -0.0905
31436SOL     OW 6031   7.638   5.673   8.144 -0.3891 -0.4768  0.1405
31436SOL    HW1 6032   7.669   5.610   8.209 -0.7432  0.4562  1.2639
31436SOL    HW2 6033   7.584   5.734   8.195  1.9670  2.2354 -0.3812
31437SOL     OW 6034   9.332   0.944  10.459  0.9593 -0.0691  0.4256
31437SOL    HW1 6035   9.314   0.853  10.435  0.3773 -0.2033  1.3281
31437SOL    HW2 6036   9.363   0.984  10.378 -0.5363 -0.6097 -0.4598
31438SOL     OW 6037   4.721   5.362   9.744 -0.4365 -0.3855 -0.6531
31438SOL    HW1 6038   4.765   5.418   9.680 -1.9079 -0.2850 -1.6113
31438SOL    HW2 6039   4.663   5.307   9.692 -1.5361 -0.4251  0.5732
31439SOL     OW 6040   3.609   7.226   2.869  0.1279 -0.1599  0.0876
31439SOL    HW1 6041   3.698   7.255   2.892  0.7163 -1.4589 -0.4280
31439SOL    HW2 6042   3.551   7.290   2.910  1.2376 -0.4931  2.2822
31440SOL     OW 6043   8.258   6.324   2.450 -0.2385  0.9546  0.0915
31440SOL    HW1 6044   8.306   6.252   2.490 -2.9440  0.3754  2.7150
31440SOL    HW2 6045   8.228   6.289   2.366 -3.0746 -1.9499  2.0445
31441SOL     OW 6046   7.599   4.240   9.992 -0.3650  0.5265 -0.1172
31441SOL    HW1 6047   7.686   4.249   9.953 -1.0373 -0.3770 -1.9035
31441SOL    HW2 6048   7.579   4.327  10.025  1.0572  0.8366  0.0313
31442SOL     OW 6049   9.097   4.299  11.581 -0.1861 -0.7987  0.3698
31442SOL    HW1 6050   9.049   4.338  11.654 -0.3045  0.6987 -0.4636
31442SOL    HW2 6051   9.187   4.289  11.613 -0.3651 -0.7013  0.9106
31443SOL     OW 6052   7.341  11.799   8.782  0.2438  0.5050  0.9507
31443SOL    HW1 6053   7.337  11.765   8.871  0.4215  0.4426  0.9359
31443SOL    HW2 6054   7.434  11.810   8.764  0.2113  0.4859  0.7608
31444SOL     OW 6055   2.678  11.282   9.865  0.0362  0.3864  0.1469
31444SOL    HW1 6056   2.699  11.213   9.928 -0.7165  0.0292  0.0063
31444SOL    HW2 6057   2.756  11.288   9.810  0.1840 -0.2106  0.2866
31445SOL     OW 6058  10.302   3.617   7.402  0.4280  0.5126 -0.1286
31445SOL    HW1 6059  10.372   3.619   7.467  1.0672 -0.3551 -0.7769
31445SOL    HW2 6060  10.238   3.555   7.437  0.8559 -0.0897 -0.3994
31446SOL     OW 6061   8.055   0.958   4.584 -0.1327  0.2768  0.1764
31446SOL    HW1 6062   8.140   0.922   4.560  0.9007  3.2332 -1.0758
31446SOL    HW2 6063   8.031   0.912   4.664  2.4022 -0.9638  0.3287
31447SOL     OW 6064  10.199   6.721  10.652  0.7868  0.4180  0.4546
31447SOL    HW1 6065  10.168   6.659  10.585 -2.5753 -0.0901  2.2622
31447SOL    HW2 6066  10.217   6.801  10.603  2.8179 -1.1496 -1.5972
31448SOL     OW 6067   9.477   1.532   1.098 -0.3216 -0.8844 -0.2893
31448SOL    HW1 6068   9.515   1.531   1.186 -0.7459  1.2950 -0.0280
31448SOL    HW2 6069   9.382   1.534   1.112 -0.3798  0.9023 -0.7106
31449SOL     OW 6070   1.397   9.638   4.656  0.4462  0.5843 -1.0202
31449SOL    HW1 6071   1.424   9.638   4.748 -1.0686  0.4002 -0.5600
31449SOL    HW2 6072   1.474   9.671   4.609  2.1162 -1.5941  0.0299
31450SOL     OW 6073   2.429   1.256   4.163  0.2370 -0.0847  0.1230
31450SOL    HW1 6074   2.518   1.224   4.172  0.6719  0.8692 -0.6714
31450SOL    HW2 6075   2.381   1.183   4.123  0.7161 -0.5120  0.3275
31451SOL     OW 6076   3.071   5.181   4.077  0.0438 -0.4059  0.3797
31451SOL    HW1 6077   3.101   5.091   4.088 -0.2472 -0.3343  2.0157
31451SOL    HW2 6078   3.135   5.234   4.124 -0.5259  0.1123  0.5827
31452SOL     OW 6079  10.263   7.118   9.356 -0.7298 -0.0611 -0.0952
31452SOL    HW1 6080  10.342   7.140   9.307  0.5642 -0.3019  1.7768
31452SOL    HW2 6081  10.294   7.069   9.432 -2.5336  1.0215  1.4469
31453SOL     OW 6082   6.699   5.800   2.388 -0.1565  0.2554 -0.5029
31453SOL    HW1 6083   6.665   5.882   2.426  0.5481  0.7333 -0.8864
31453SOL    HW2 6084   6.724   5.747   2.464 -0.8375  0.2876 -0.2438
31454SOL     OW 6085   0.992   0.217   8.589 -0.0557  0.7263 -0.8261
31454SOL    HW1 6086   0.908   0.173   8.599 -0.2212  1.1512 -0.3034
31454SOL    HW2 6087   1.052   0.148   8.561  0.2589 -0.4277  2.2698
31455SOL     OW 6088   9.033   1.431   5.401  0.1984  0.3245 -0.0182
31455SOL    HW1 6089   9.099   1.437   5.332  0.5920 -0.5565  0.2666
31455SOL    HW2 6090   8.958   1.478   5.366  1.4124  2.5616  0.2145
31456SOL     OW 6091   9.950   1.258   5.839 -0.1410  0.4172 -0.3287
31456SOL    HW1 6092   9.966   1.167   5.864 -1.2949  0.1384 -0.5136
31456SOL    HW2 6093   9.948   1.257   5.743 -0.1587  0.6269 -0.3312
31457SOL     OW 6094   8.793   2.076   2.622  0.2515 -0.9150  0.1728
31457SOL    HW1 6095   8.829   2.162   2.603 -0.3004 -1.0129 -1.4344
31457SOL    HW2 6096   8.787   2.073   2.718  2.2615 -0.0030  0.3734
31458SOL     OW 6097  11.672   7.917  10.696  0.5074  0.4367  0.2858
31458SOL    HW1 6098  11.665   7.848  10.763  2.1285  0.4214  0.4792
31458SOL    HW2 6099  11.587   7.916  10.652  0.7273 -2.1917 -0.2124
31459SOL     OW 6100   0.691   3.077  10.018 -0.1877  0.1488  0.3395
31459SOL    HW1 6101   0.675   3.125   9.937  0.7695 -1.4813 -0.8787
31459SOL    HW2 6102   0.731   2.995   9.989  0.3525 -0.3925  2.4880
31460SOL     OW 6103   4.464   3.881  11.706 -0.6425 -0.3648  0.5058
31460SOL    HW1 6104   4.559   3.872  11.707 -0.6450 -0.5206  1.7359
31460SOL    HW2 6105   4.444   3.920  11.621  0.5828  0.2940  0.4925
31461SOL     OW 6106   1.317  10.971   4.854 -0.3639  0.1221  0.2734
31461SOL    HW1 6107   1.315  10.943   4.946 -2.0404  1.0114  0.5506
31461SOL    HW2 6108   1.231  11.011   4.840  0.0481  0.4247 -1.5603
31462SOL     OW 6109   8.130   4.602  11.614  0.3158 -0.4970 -0.6611
31462SOL    HW1 6110   8.170   4.521  11.645 -0.5970 -1.2996 -1.5178
31462SOL    HW2 6111   8.204   4.657  11.588  0.9551 -0.9546  0.1162
31463SOL     OW 6112   7.717   6.360   9.019 -0.2246  1.0115  0.1879
31463SOL    HW1 6113   7.742   6.369   9.111  1.2345 -0.6112  0.0135
31463SOL    HW2 6114   7.763   6.431   8.975  0.9971  0.4008  0.4291
31464SOL     OW 6115   8.112   4.931   6.113 -0.3637  0.1175  0.3655
31464SOL    HW1 6116   8.159   5.006   6.150 -2.4555  0.8430  1.7268
31464SOL    HW2 6117   8.053   4.903   6.183 -4.0242  1.0620 -2.0959
31465SOL     OW 6118  10.389   8.321  11.131  0.3417  0.4493  0.0335
31465SOL    HW1 6119  10.427   8.366  11.056  2.2065 -0.5109  0.3539
31465SOL    HW2 6120  10.296   8.344  11.128  0.5522  1.2193 -1.9739
31466SOL     OW 6121  11.143   0.838  11.194  0.3029  0.0213  0.3296
31466SOL    HW1 6122  11.223   0.886  11.211  0.8994 -0.9256  0.2847
31466SOL    HW2 6123  11.075   0.905  11.187  1.0864  0.8322  0.3650
31467SOL     OW 6124   2.359  11.655   4.380  0.3104  0.0071 -0.2367
31467SOL    HW1 6125   2.355  11.589   4.449  1.8018  1.0160  0.8789
31467SOL    HW2 6126   2.440  11.636   4.333  1.0348  1.2890  0.4266
31468SOL     OW 6127   1.995   6.129   6.927  0.1208  0.1621 -0.0101
31468SOL    HW1 6128   1.970   6.149   7.017 -0.8162 -1.3887  0.1087
31468SOL    HW2 6129   2.086   6.098   6.934 -1.0893 -3.7229  1.0796
31469SOL     OW 6130   8.637   6.208   9.242  0.5050 -0.5858  0.1124
31469SOL    HW1 6131   8.655   6.122   9.203 -0.7604 -0.1011 -1.6635
31469SOL    HW2 6132   8.632   6.267   9.167  0.2091  0.8219  1.2209
31470SOL     OW 6133   8.593   6.618   0.159  0.2214 -0.0149  0.3827
31470SOL    HW1 6134   8.627   6.676   0.090  0.7217 -1.1742 -0.3781
31470SOL    HW2 6135   8.502   6.604   0.136  0.0315  0.6503  0.7072
31471SOL     OW 6136   7.962   5.417   8.379 -0.7453  0.2142  0.5258
31471SOL    HW1 6137   7.932   5.330   8.402 -1.2143  0.0396 -0.6682
31471SOL    HW2 6138   7.979   5.460   8.463  0.5797 -1.3732  1.1258
31472SOL     OW 6139   7.269   6.641   8.236 -0.1486 -0.3046  0.3163
31472SOL    HW1 6140   7.337   6.675   8.178  0.1107 -1.4939 -0.1092
31472SOL    HW2 6141   7.248   6.714   8.294  1.4948  0.0987  0.4565
31473SOL     OW 6142   0.674   5.726   8.162  0.1455 -0.1615 -0.0088
31473SOL    HW1 6143   0.629   5.726   8.247  0.6328  0.1454  0.2468
31473SOL    HW2 6144   0.655   5.639   8.126  0.8766 -0.7251  0.9133
31474SOL     OW 6145   2.813   2.536   9.809  0.2514  0.2219 -0.0362
31474SOL    HW1 6146   2.880   2.574   9.753  0.7358 -1.0181 -0.3335
31474SOL    HW2 6147   2.858   2.464   9.854 -0.8251 -0.5052 -0.0966
31475SOL     OW 6148  10.708   8.467   8.255 -0.0947  0.5070 -0.1743
31475SOL    HW1 6149  10.664   8.552   8.249  0.7678  1.0062  0.4197
31475SOL    HW2 6150  10.765   8.464   8.178 -1.4525 -0.3308 -1.1895
31476SOL     OW 6151   0.697   9.935   8.916  0.2187 -0.0792 -0.4400
31476SOL    HW1 6152   0.762   9.866   8.907  1.4402  0.7752  1.3545
31476SOL    HW2 6153   0.743  10.015   8.894 -0.9948  0.2968 -1.7940
31477SOL     OW 6154  11.548   5.381   1.516 -0.3021  0.1509 -0.2385
31477SOL    HW1 6155  11.538   5.470   1.481  2.0269  0.3739 -0.5161
31477SOL    HW2 6156  11.558   5.393   1.610  0.4901  0.2437 -0.3300
31478SOL     OW 6157   6.105   2.629   2.230 -0.2146 -0.0031 -0.1158
31478SOL    HW1 6158   6.135   2.649   2.319 -1.3339 -0.4558  0.3983
31478SOL    HW2 6159   6.138   2.541   2.213  0.0365  0.1007 -0.1693
31479SOL     OW 6160   6.670   8.624   8.721 -0.6573 -0.3561 -0.0567
31479SOL    HW1 6161   6.719   8.703   8.699 -0.1657 -0.9406 -1.1450
31479SOL    HW2 6162   6.612   8.650   8.792  0.1922  0.7250  0.2513
31480SOL     OW 6163   0.492   3.963   2.087 -0.1549 -0.1959  0.0551
31480SOL    HW1 6164   0.529   3.966   1.999 -0.6598  0.7673 -0.1306
31480SOL    HW2 6165   0.553   3.908   2.136  0.9831  0.5391 -0.4934
31481SOL     OW 6166   9.407   7.563   3.557  0.2896 -0.2936 -0.1363
31481SOL    HW1 6167   9.490   7.575   3.603 -0.9566 -3.0247  3.2035
31481SOL    HW2 6168   9.396   7.468   3.551 -2.0874 -0.0104 -1.5340
31482SOL     OW 6169   0.994   6.909   4.151 -0.3958  0.3577  0.6627
31482SOL    HW1 6170   0.915   6.898   4.097  0.6331  0.5284 -0.9373
31482SOL    HW2 6171   1.011   7.003   4.148  1.1565  0.0774 -0.9782
31483SOL     OW 6172   6.217   8.962   0.801 -0.2539 -0.3029  0.2996
31483SOL    HW1 6173   6.179   8.875   0.792 -1.1927  0.1164  0.0612
31483SOL    HW2 6174   6.143   9.022   0.788  0.8480  0.6223 -2.4616
31484SOL     OW 6175   9.977  10.606   7.699 -0.5377  0.0244  0.0176
31484SOL    HW1 6176  10.059  10.638   7.736  0.0323 -1.9849  0.6472
31484SOL    HW2 6177   9.991  10.608   7.605 -1.0906  2.8879 -0.0880
31485SOL     OW 6178   7.770  11.486   1.361 -0.2042  0.3134 -0.1698
31485SOL    HW1 6179   7.815  11.444   1.288  0.4502  1.1372 -0.2563
31485SOL    HW2 6180   7.808  11.447   1.439 -0.8243 -0.4872 -0.2610
31486SOL     OW 6181   0.285  11.386   7.054  0.1040  0.1854  0.4025
31486SOL    HW1 6182   0.216  11.345   7.105  0.0240 -0.3149 -0.1010
31486SOL    HW2 6183   0.302  11.469   7.099 -2.2049  1.2803 -0.5351
31487SOL     OW 6184   0.819   7.567   5.997  0.3733  0.1034  0.4634
31487SOL    HW1 6185   0.831   7.633   5.928 -0.6448 -1.4643 -1.2953
31487SOL    HW2 6186   0.908   7.541   6.020  0.7406  0.5944 -0.3392
31488SOL     OW 6187   8.422   5.211   2.164 -0.2760 -0.1660 -0.3798
31488SOL    HW1 6188   8.380   5.126   2.174  1.5197 -1.1463 -0.8158
31488SOL    HW2 6189   8.501   5.193   2.113  0.9674  1.4919  0.8520
31489SOL     OW 6190  11.697   4.648   9.048  0.4775  0.3856 -0.0242
31489SOL    HW1 6191  11.616   4.597   9.058  1.3810 -1.0862  0.0787
31489SOL    HW2 6192  11.733   4.653   9.137  1.9500 -1.5070 -0.4556
31490SOL     OW 6193   1.805   8.988   9.814 -0.3446  0.2932  0.0043
31490SOL    HW1 6194   1.812   8.898   9.846  0.7053  1.0529  2.0849
31490SOL    HW2 6195   1.889   9.028   9.837 -0.7167  1.7657 -1.0687
31491SOL     OW 6196   4.915   3.583  11.152 -0.7665  0.8174 -0.2433
31491SOL    HW1 6197   4.824   3.589  11.183 -0.8354 -0.3959 -0.1562
31491SOL    HW2 6198   4.921   3.648  11.082 -0.9815  2.7080  1.3926
31492SOL     OW 6199   0.803  10.208  11.849  0.8559  0.1983  0.3118
31492SOL    HW1 6200   0.820  10.173  11.937  1.5250  0.8672  0.4616
31492SOL    HW2 6201   0.754  10.288  11.864  1.3519  0.5460  0.1061
31493SOL     OW 6202   7.569   8.844   0.897  0.1568 -0.2435 -0.5251
31493SOL    HW1 6203   7.649   8.895   0.885 -0.2096 -0.0185 -2.4445
31493SOL    HW2 6204   7.593   8.774   0.957  1.5606  0.2888 -0.4443
31494SOL     OW 6205   5.522   3.170   3.277  0.0832 -0.0458  0.3147
31494SOL    HW1 6206   5.443   3.123   3.249  0.8843 -0.3742 -1.5000
31494SOL    HW2 6207   5.565   3.196   3.196  1.9036  0.0564  1.2583
31495SOL     OW 6208   6.364   3.424   9.286  0.0113 -0.0634  0.0435
31495SOL    HW1 6209   6.398   3.359   9.225 -0.6499  0.3127 -0.7311
31495SOL    HW2 6210   6.437   3.485   9.299  0.3258 -0.4419  0.0436
31496SOL     OW 6211  10.481   1.996   5.195  0.2949 -0.4633  0.0012
31496SOL    HW1 6212  10.573   1.991   5.169  0.4528  0.7212  0.2685
31496SOL    HW2 6213  10.483   2.028   5.286 -0.3358 -2.0872  0.6171
31497SOL     OW 6214   3.590   2.702   1.910  0.4552  0.0888 -0.3150
31497SOL    HW1 6215   3.602   2.612   1.939  1.4907  1.1137  2.7515
31497SOL    HW2 6216   3.506   2.728   1.947  1.8138  1.4373  2.0156
31498SOL     OW 6217   5.450   3.616   1.024 -0.6012  0.0773  0.5515
31498SOL    HW1 6218   5.458   3.541   0.965  0.6841  2.2419 -2.3227
31498SOL    HW2 6219   5.362   3.650   1.008 -1.0154 -0.5263  1.5028
31499SOL     OW 6220   1.690   3.052  11.937  1.0607 -0.1960 -0.1681
31499SOL    HW1 6221   1.676   2.958  11.923  2.8322 -0.3517 -1.1462
31499SOL    HW2 6222   1.646   3.093  11.862  2.2730 -0.4310 -1.0466
31500SOL     OW 6223   3.003   0.919  11.272  0.5383  0.3216 -0.0580
31500SOL    HW1 6224   3.016   0.957  11.185  1.2914  1.7351  0.6353
31500SOL    HW2 6225   3.048   0.834  11.268 -1.6137 -0.8399 -1.8016
31501SOL     OW 6226   4.458   6.072  11.838  0.5698  0.0728 -0.2248
31501SOL    HW1 6227   4.433   6.164  11.842  0.9494  0.1694 -0.1276
31501SOL    HW2 6228   4.448   6.049  11.745  1.5133  0.4979 -0.4403
31502SOL     OW 6229   6.578   4.583   4.027  0.2473  0.2872  0.4428
31502SOL    HW1 6230   6.485   4.587   4.005  0.3932 -1.2528 -0.6379
31502SOL    HW2 6231   6.610   4.672   4.014 -0.2417  0.0574 -3.2556
31503SOL     OW 6232   3.908   2.708   1.475 -0.4745 -0.6747  0.0685
31503SOL    HW1 6233   3.840   2.708   1.543  0.1057 -1.3694  0.6679
31503SOL    HW2 6234   3.954   2.625   1.487  0.0288 -0.5397 -0.7975
31504SOL     OW 6235   7.131  11.843   6.705  0.2683 -0.4753 -0.1864
31504SOL    HW1 6236   7.179  11.762   6.719  1.4005  0.0626 -0.8287
31504SOL    HW2 6237   7.123  11.881   6.793  0.3067 -0.9574  0.0276
31505SOL     OW 6238   6.535   4.336   4.648 -0.0044  0.5538 -0.4033
31505SOL    HW1 6239   6.462   4.308   4.593  0.1656 -1.4395  0.2710
31505SOL    HW2 6240   6.611   4.334   4.590  0.0548 -0.8196 -0.3172
31506SOL     OW 6241   9.749   4.595  11.781 -0.5096  0.1035 -0.0084
31506SOL    HW1 6242   9.794   4.603  11.696 -1.0279 -0.1310 -0.3069
31506SOL    HW2 6243   9.723   4.685  11.801  0.8527  0.3910  0.5983
31507SOL     OW 6244   7.854  10.913   2.600  0.0064 -0.2584 -0.1749
31507SOL    HW1 6245   7.775  10.934   2.650 -0.6581  0.9472 -1.6570
31507SOL    HW2 6246   7.871  10.820   2.619 -0.8547 -0.1242  1.3726
31508SOL     OW 6247   8.520   9.408   6.978  0.3747 -0.8529  0.6225
31508SOL    HW1 6248   8.577   9.484   6.988  1.4390 -1.5456  0.0443
31508SOL    HW2 6249   8.433   9.445   6.963  0.6230  0.2281  1.6836
31509SOL     OW 6250   5.833   1.274   7.304 -0.5629  0.5193  0.3180
31509SOL    HW1 6251   5.859   1.230   7.385 -1.0389  1.3109  0.9207
31509SOL    HW2 6252   5.750   1.317   7.326 -1.5809 -0.6510 -1.0993
31510SOL     OW 6253   8.766   6.940   3.555 -0.0752 -0.1787  0.3898
31510SOL    HW1 6254   8.849   6.924   3.512 -0.9647  0.2656 -1.5884
31510SOL    HW2 6255   8.778   7.023   3.602  0.7051 -0.3185  0.4430
31511SOL     OW 6256   4.052   0.592   3.389 -0.6279  0.6077  0.1586
31511SOL    HW1 6257   3.979   0.562   3.444  0.8967 -0.6669  1.6078
31511SOL    HW2 6258   4.052   0.531   3.316 -1.4258  1.0579 -0.2355
31512SOL     OW 6259   4.894   2.846   5.324 -0.4919 -0.4838  0.3152
31512SOL    HW1 6260   4.875   2.904   5.251 -0.0298 -0.9029 -0.1491
31512SOL    HW2 6261   4.988   2.827   5.316 -0.2935 -0.0327  1.3924
31513SOL     OW 6262   3.798   6.134  11.179  0.1523  0.0290  0.5073
31513SOL    HW1 6263   3.782   6.041  11.166  0.5049 -0.0032  0.2607
31513SOL    HW2 6264   3.731   6.178  11.126 -1.4799 -0.0453  2.4185
31514SOL     OW 6265   3.592  10.086   0.892 -0.2164  0.0501 -0.1188
31514SOL    HW1 6266   3.574  10.000   0.930 -1.4945  0.7629  0.9481
31514SOL    HW2 6267   3.506  10.127   0.883  0.4026  1.3677 -0.2609
31515SOL     OW 6268   1.912   9.746   5.319 -0.1781  0.1853 -0.1397
31515SOL    HW1 6269   1.965   9.752   5.398 -0.2392  0.0830 -0.0914
31515SOL    HW2 6270   1.856   9.824   5.322 -1.4536 -0.7378  0.8395
31516SOL     OW 6271   7.830   0.191   0.486 -0.1260 -0.2051 -0.2368
31516SOL    HW1 6272   7.736   0.199   0.469 -0.0434 -0.3728 -0.7666
31516SOL    HW2 6273   7.869   0.269   0.447 -0.0289 -0.1984 -0.1279
31517SOL     OW 6274   5.380  11.846   3.601  0.0912 -0.2669  0.2411
31517SOL    HW1 6275   5.418  11.807   3.523  2.0189  0.8564  0.5482
31517SOL    HW2 6276   5.297  11.883   3.572 -0.5011 -2.1902 -0.6396
31518SOL     OW 6277   9.774   9.449  11.322 -0.1138 -0.5682  0.0856
31518SOL    HW1 6278   9.737   9.445  11.234 -1.8477  0.1945  0.7336
31518SOL    HW2 6279   9.736   9.528  11.361  2.8256  0.7176  0.6063
31519SOL     OW 6280   0.376   6.018   8.478 -0.3420  0.1496  0.4421
31519SOL    HW1 6281   0.392   6.065   8.396 -0.2812  2.2149  1.5792
31519SOL    HW2 6282   0.321   6.077   8.529 -1.2189 -1.5311  1.5261
31520SOL     OW 6283  11.104   9.884   7.346 -0.8045 -0.5367 -0.3769
31520SOL    HW1 6284  11.009   9.892   7.359 -0.4997 -1.1354  2.9935
31520SOL    HW2 6285  11.115   9.797   7.307 -1.5539 -1.3634  1.1765
31521SOL     OW 6286   8.464   6.905   4.364  0.0950  0.1972 -0.4435
31521SOL    HW1 6287   8.398   6.843   4.395 -0.6138  1.3267  0.3968
31521SOL    HW2 6288   8.544   6.881   4.411  0.0281 -0.5444 -0.6994
31522SOL     OW 6289   7.594   8.411   6.740 -0.3610 -0.2232 -0.2810
31522SOL    HW1 6290   7.551   8.372   6.664 -1.7708  0.5152  0.1133
31522SOL    HW2 6291   7.597   8.504   6.721 -1.4030  0.0664  0.8701
31523SOL     OW 6292  11.555   2.602   4.012 -0.0292 -0.9072 -0.2734
31523SOL    HW1 6293  11.467   2.566   4.020 -0.4077  0.2244  1.1393
31523SOL    HW2 6294  11.552   2.657   3.933 -0.2130 -1.8392 -0.9264
31524SOL     OW 6295   7.214  10.160   8.024 -0.2241 -0.2919 -0.0641
31524SOL    HW1 6296   7.151  10.089   8.017 -1.0480  0.4648 -0.6048
31524SOL    HW2 6297   7.279  10.143   7.955 -0.1896 -0.7355  0.0803
31525SOL     OW 6298  10.844   3.591   5.584 -0.1610 -0.6236  0.2197
31525SOL    HW1 6299  10.899   3.649   5.530  0.3844 -1.6690 -0.3669
31525SOL    HW2 6300  10.906   3.543   5.638 -0.5988 -0.8277  0.5442
31526SOL     OW 6301   8.062   7.454   5.169 -0.2963 -0.0039  0.1784
31526SOL    HW1 6302   8.115   7.516   5.119  1.7594 -0.6915  1.3340
31526SOL    HW2 6303   8.110   7.443   5.252 -1.5049 -1.7947  0.7124
31527SOL     OW 6304   8.905  11.516   3.117 -0.3713  0.0047 -0.3365
31527SOL    HW1 6305   8.937  11.454   3.052 -1.6421  1.1605 -2.1317
31527SOL    HW2 6306   8.984  11.558   3.151  0.2554  0.8014 -2.6109
31528SOL     OW 6307   7.504   6.604  10.591  0.0025 -0.2104  0.1186
31528SOL    HW1 6308   7.476   6.696  10.584  0.8825  0.3629  2.8136
31528SOL    HW2 6309   7.422   6.555  10.597 -0.4811  0.4947 -0.5157
31529SOL     OW 6310   1.017   3.105  11.718 -0.6519  0.3255  0.3263
31529SOL    HW1 6311   1.029   3.111  11.813  0.5084  0.8729  0.1608
31529SOL    HW2 6312   0.953   3.035  11.707  2.1029 -2.6134  1.3709
31530SOL     OW 6313   3.175   9.816  10.890  0.1039  0.1114  0.5156
31530SOL    HW1 6314   3.090   9.772  10.889  1.0846 -1.9184  1.3253
31530SOL    HW2 6315   3.172   9.872  10.968 -0.6853  0.4851  0.2240
31531SOL     OW 6316   6.931   7.166   0.997 -0.0115 -0.3784 -0.3203
31531SOL    HW1 6317   6.913   7.237   1.059  1.2696  0.4147 -0.8169
31531SOL    HW2 6318   6.856   7.108   1.005 -2.2881  2.1725 -1.5631
31532SOL     OW 6319   2.116   1.435   2.418 -0.2638  0.3788  0.6319
31532SOL    HW1 6320   2.156   1.522   2.425  1.7754 -0.3118 -1.1495
31532SOL    HW2 6321   2.058   1.441   2.342 -0.8976  0.4244  1.1098
31533SOL     OW 6322   7.219   8.175  10.536 -0.4809  0.7361 -0.2768
31533SOL    HW1 6323   7.219   8.127  10.453  0.2687 -1.7586  1.0481
31533SOL    HW2 6324   7.288   8.240  10.526  1.4431 -1.2522 -0.7720
31534SOL     OW 6325   0.258  11.817  10.830 -0.2850 -0.2342  0.7101
31534SOL    HW1 6326   0.237  11.885  10.895  0.5770  0.0587  0.6869
31534SOL    HW2 6327   0.324  11.763  10.873  0.5663  0.1819 -0.0648
31535SOL     OW 6328   0.552   3.908   6.383 -0.5862  0.1022 -0.5259
31535SOL    HW1 6329   0.536   3.998   6.412 -0.5988 -0.1646  0.3052
31535SOL    HW2 6330   0.584   3.863   6.461 -0.8910 -0.6959 -0.8566
31536SOL     OW 6331   0.378   7.435   0.536 -0.0303 -0.0326 -0.4808
31536SOL    HW1 6332   0.471   7.449   0.519  0.1360 -0.3496  0.1277
31536SOL    HW2 6333   0.376   7.390   0.620 -0.7934  1.2503  0.2155
31537SOL     OW 6334   6.312   6.207   5.176  0.1823  0.0071 -0.0652
31537SOL    HW1 6335   6.246   6.155   5.221  0.1386  0.8219  0.8415
31537SOL    HW2 6336   6.341   6.152   5.103 -2.5347  0.1900 -1.3979
31538SOL     OW 6337   5.164  11.739   9.696  0.4236  0.1454 -0.0964
31538SOL    HW1 6338   5.232  11.771   9.637  0.2660  0.5221 -0.0778
31538SOL    HW2 6339   5.210  11.726   9.779  0.2032  1.7951  0.3303
31539SOL     OW 6340   5.503   3.502  10.246  0.3913  0.0604 -0.3031
31539SOL    HW1 6341   5.568   3.524  10.313  0.4000  1.0526 -0.6202
31539SOL    HW2 6342   5.553   3.495  10.165  0.2685 -0.3548 -0.3458
31540SOL     OW 6343   8.944   6.661   1.883 -0.0445 -0.3453 -0.1812
31540SOL    HW1 6344   8.986   6.580   1.852 -0.1052 -0.3565 -0.2335
31540SOL    HW2 6345   8.966   6.664   1.976  0.8922  0.1536 -0.4098
31541SOL     OW 6346  10.750   2.643   6.806 -0.0392 -0.4866 -0.4377
31541SOL    HW1 6347  10.684   2.609   6.866 -0.7639 -0.1695 -1.0446
31541SOL    HW2 6348  10.814   2.687   6.863 -0.3260 -0.8252  0.1523
31542SOL     OW 6349   4.852   1.074   8.802  0.4678 -1.0321 -0.2842
31542SOL    HW1 6350   4.804   0.995   8.776  0.0091 -1.0130  0.4783
31542SOL    HW2 6351   4.800   1.146   8.766 -0.2352 -1.0000  0.7550
31543SOL     OW 6352   8.723   5.860  11.338 -0.3997 -0.5099 -0.1778
31543SOL    HW1 6353   8.657   5.827  11.276 -0.6086 -2.4749  0.9942
31543SOL    HW2 6354   8.720   5.955  11.329 -2.4437 -0.6215 -1.1096
31544SOL     OW 6355   3.132   5.063   3.376  0.3441  0.6161 -0.3974
31544SOL    HW1 6356   3.100   5.051   3.465  0.8759  0.0538 -0.2759
31544SOL    HW2 6357   3.212   5.114   3.386  1.0328 -0.4188 -0.4348
31545SOL     OW 6358   3.826   6.206   4.650 -0.2704 -0.0202 -0.1111
31545SOL    HW1 6359   3.896   6.260   4.687 -1.0978  0.6729  0.4975
31545SOL    HW2 6360   3.788   6.260   4.580 -1.8976  0.7610  1.2931
31546SOL     OW 6361   3.366   3.316   6.047 -0.2439 -0.7088  0.3622
31546SOL    HW1 6362   3.459   3.338   6.057 -0.4393 -0.4761  1.9967
31546SOL    HW2 6363   3.357   3.290   5.956  1.4421 -0.7826  0.1842
31547SOL     OW 6364   1.340   9.680   8.796 -0.0714  0.1909  0.2248
31547SOL    HW1 6365   1.312   9.699   8.885 -0.1008 -0.3906  0.3473
31547SOL    HW2 6366   1.435   9.690   8.797 -0.1429  0.9114  0.1318
31548SOL     OW 6367   0.896   2.390  10.868 -0.3109 -0.2672 -0.0628
31548SOL    HW1 6368   0.970   2.350  10.915 -0.6725 -0.6708  0.1652
31548SOL    HW2 6369   0.938   2.445  10.802  0.2000 -0.3383  0.1912
31549SOL     OW 6370   0.195   0.847   1.270  0.0484 -0.3830 -0.0085
31549SOL    HW1 6371   0.242   0.824   1.190  0.9431 -0.3079  0.4775
31549SOL    HW2 6372   0.125   0.905   1.240 -0.1079 -0.9774 -0.8241
31550SOL     OW 6373   6.970   9.274   0.707 -0.0676  0.2376 -0.4087
31550SOL    HW1 6374   7.032   9.312   0.644 -0.4065  0.5186 -0.5812
31550SOL    HW2 6375   6.920   9.350   0.738 -1.0681 -0.1118 -1.0969
31551SOL     OW 6376   6.349   1.603  11.848 -0.1363  0.3195  0.6457
31551SOL    HW1 6377   6.416   1.657  11.890  0.3984  1.2902 -1.3647
31551SOL    HW2 6378   6.266   1.645  11.871 -0.2044 -1.1517  3.5361
31552SOL     OW 6379  10.665   7.338   1.372  0.0877  0.6947  0.5067
31552SOL    HW1 6380  10.742   7.358   1.425  0.0578 -0.6092  1.0964
31552SOL    HW2 6381  10.665   7.242   1.366 -0.4004  0.7738 -1.1370
31553SOL     OW 6382   6.654  11.412   5.912  0.1027 -0.5839 -0.5621
31553SOL    HW1 6383   6.622  11.485   5.859  0.9692  1.2758  1.3306
31553SOL    HW2 6384   6.597  11.413   5.989  0.6875 -1.3792 -0.1102
31554SOL     OW 6385   5.506   5.818   2.893 -0.3897 -0.1232  0.2184
31554SOL    HW1 6386   5.502   5.899   2.842  1.1131  1.7223  2.7748
31554SOL    HW2 6387   5.433   5.825   2.954 -0.3742 -0.8239  0.3258
31555SOL     OW 6388   4.149  10.170   1.702 -0.2766 -0.4207  0.3572
31555SOL    HW1 6389   4.222  10.229   1.679  0.0700  0.4717  3.3316
31555SOL    HW2 6390   4.075  10.228   1.714 -1.2497 -1.2085 -1.4429
31556SOL     OW 6391   7.163  10.652   2.454  0.5387  0.0634  0.2433
31556SOL    HW1 6392   7.095  10.602   2.499  2.1813 -2.0395  0.5461
31556SOL    HW2 6393   7.243  10.633   2.503  2.0945 -0.9166 -2.4651
31557SOL     OW 6394   1.956   4.584   9.022  0.0557  0.5242 -0.7395
31557SOL    HW1 6395   1.957   4.643   9.098  1.8263 -1.5685  1.0246
31557SOL    HW2 6396   2.031   4.612   8.969  0.7846  0.0388  0.0027
31558SOL     OW 6397   1.079   4.359   2.504 -0.0145 -0.3102  0.1015
31558SOL    HW1 6398   1.074   4.445   2.546  1.7817 -0.4026  0.5735
31558SOL    HW2 6399   1.060   4.297   2.575  0.7053 -0.3676  0.2538
31559SOL     OW 6400   2.990  10.010   1.368 -0.4702 -0.3190  0.5247
31559SOL    HW1 6401   3.024  10.091   1.332  0.2390 -0.2190  1.3836
31559SOL    HW2 6402   3.044   9.993   1.445  1.7531 -3.4186 -1.4715
31560SOL     OW 6403   3.090   6.004   0.790 -0.1089 -0.3864  0.3148
31560SOL    HW1 6404   3.007   6.026   0.832  1.1001  1.5448  1.8505
31560SOL    HW2 6405   3.154   6.007   0.861  1.8480  1.7511 -1.3919
31561SOL     OW 6406   3.707   1.481   9.787  0.0647 -0.0574 -0.0584
31561SOL    HW1 6407   3.773   1.548   9.805 -0.5361  1.0831 -1.9110
31561SOL    HW2 6408   3.756   1.406   9.754  0.5882  0.0694  0.4224
31562SOL     OW 6409   1.671  10.732   8.943  0.3309 -0.4793 -0.2783
31562SOL    HW1 6410   1.736  10.761   8.878  1.0356 -3.1654 -0.9281
31562SOL    HW2 6411   1.613  10.674   8.893 -1.7670  0.7793  0.6156
31563SOL     OW 6412  10.797   1.495   7.729  0.1719 -0.1185  0.2631
31563SOL    HW1 6413  10.721   1.538   7.688  0.8119  1.0825  0.2769
31563SOL    HW2 6414  10.820   1.552   7.803  0.6232 -0.8750  0.7206
31564SOL     OW 6415   7.657   2.792   2.289  0.9311 -0.0628  0.1604
31564SOL    HW1 6416   7.647   2.830   2.201 -2.6998  2.8519  1.5688
31564SOL    HW2 6417   7.738   2.831   2.322  3.1269 -2.2403 -2.1674
31565SOL     OW 6418   5.311   1.371   7.125  0.5595 -0.0715  0.8106
31565SOL    HW1 6419   5.282   1.290   7.084 -3.3050  1.5708 -0.1074
31565SOL    HW2 6420   5.361   1.417   7.058 -1.7066  0.5056 -0.5725
31566SOL     OW 6421   7.130   5.746   4.120 -0.0156  0.3748 -0.1169
31566SOL    HW1 6422   7.144   5.802   4.197  0.1354  0.7675 -0.4243
31566SOL    HW2 6423   7.038   5.759   4.098  0.2955  1.4186 -0.8825
31567SOL     OW 6424   6.579   7.858  10.109 -0.5376  0.0816 -0.2719
31567SOL    HW1 6425   6.572   7.953  10.109  1.5864  0.3037 -0.2493
31567SOL    HW2 6426   6.512   7.828  10.171 -0.7116  1.6112  0.3189
31568SOL     OW 6427   4.694   3.283  11.305  0.2821 -0.6516  0.0480
31568SOL    HW1 6428   4.788   3.287  11.318  0.1667 -0.6052  0.9782
31568SOL    HW2 6429   4.682   3.273  11.211  1.2732 -2.7513  0.0908
31569SOL     OW 6430   5.254   6.355   0.781  0.4317  0.2483  0.4856
31569SOL    HW1 6431   5.300   6.358   0.697  0.2876  0.8780  0.4200
31569SOL    HW2 6432   5.220   6.266   0.787  1.0656 -0.0181  0.2158
31570SOL     OW 6433   3.356   5.539   0.003 -0.4036  0.1478 -0.1988
31570SOL    HW1 6434   3.288   5.489  -0.043 -0.1828 -0.2446 -0.1031
31570SOL    HW2 6435   3.308   5.592   0.066 -0.7304  0.8562 -1.0239
31571SOL     OW 6436   1.801   8.753   0.256 -0.3784  0.7552 -0.0442
31571SOL    HW1 6437   1.883   8.706   0.275 -0.0542  1.4914  0.4571
31571SOL    HW2 6438   1.740   8.685   0.230  0.1621  0.0842  0.3860
31572SOL     OW 6439  10.524   6.376   1.699  0.3143  0.2805 -0.4028
31572SOL    HW1 6440  10.480   6.378   1.784 -0.6959 -0.0683 -0.9097
31572SOL    HW2 6441  10.596   6.438   1.708 -0.2030  0.7683  0.4853
31573SOL     OW 6442   4.305   3.999   5.768  0.4055 -0.1515  0.4949
31573SOL    HW1 6443   4.385   4.017   5.718  1.7468 -1.9108  1.8255
31573SOL    HW2 6444   4.267   4.085   5.785  1.3895  0.6563 -1.1613
31574SOL     OW 6445   3.960   9.389   3.700  0.3301 -0.6883 -0.4940
31574SOL    HW1 6446   3.999   9.358   3.618  0.4653 -1.8490 -0.0098
31574SOL    HW2 6447   4.014   9.350   3.769  0.0169 -0.0018  0.1580
31575SOL     OW 6448   9.932   4.164   6.327 -0.0677  0.3754  0.6097
31575SOL    HW1 6449  10.014   4.210   6.347 -0.6539  1.6615  0.1307
31575SOL    HW2 6450   9.874   4.232   6.293 -1.6162 -0.3712  1.6976
31576SOL     OW 6451   7.948   3.261  11.046 -0.6503 -0.1383  0.0938
31576SOL    HW1 6452   7.945   3.272  10.951 -0.5502 -1.9207 -0.1501
31576SOL    HW2 6453   7.896   3.334  11.080 -1.5235 -0.0243 -1.3830
31577SOL     OW 6454   7.596  11.497   9.262 -0.0797  0.2274 -0.0388
31577SOL    HW1 6455   7.646  11.446   9.198  0.7218  1.7547 -0.6961
31577SOL    HW2 6456   7.659  11.563   9.294  0.0111 -1.3417  3.4371
31578SOL     OW 6457  11.415   1.697   1.614  0.0451 -0.1113  0.0418
31578SOL    HW1 6458  11.422   1.718   1.707  1.5728 -0.2300 -0.0320
31578SOL    HW2 6459  11.424   1.782   1.570  1.0947 -0.2709 -0.0597
31579SOL     OW 6460  11.437   9.547   8.451  0.1925  0.4795 -0.2785
31579SOL    HW1 6461  11.508   9.582   8.505  1.0300 -0.3217 -0.8388
31579SOL    HW2 6462  11.478   9.528   8.367 -0.5681 -0.4785 -0.4470
31580SOL     OW 6463   8.851   6.013   7.161 -0.2686 -0.0983  0.1161
31580SOL    HW1 6464   8.797   6.014   7.240  0.0682  0.6479  0.3527
31580SOL    HW2 6465   8.805   5.956   7.100 -1.6805  1.0484  0.0543
31581SOL     OW 6466   9.331   6.977   0.670 -0.0627 -0.2470  0.3309
31581SOL    HW1 6467   9.368   6.993   0.757 -0.9666 -0.1498  0.7076
31581SOL    HW2 6468   9.371   7.044   0.614  2.7287 -2.0146 -0.0107
31582SOL     OW 6469  11.573   1.250  10.694 -0.3800  0.1621 -0.0714
31582SOL    HW1 6470  11.604   1.202  10.771 -1.1323  0.7616  0.6309
31582SOL    HW2 6471  11.651   1.294  10.659 -0.4537  2.1365  2.0060
31583SOL     OW 6472   9.968  11.332   7.950 -0.7275  0.2622  0.5344
31583SOL    HW1 6473   9.994  11.272   8.019 -0.0981 -2.2408 -1.7124
31583SOL    HW2 6474   9.879  11.304   7.927 -1.7197  2.3601  1.5673
31584SOL     OW 6475   2.701  11.649   9.070 -0.4125  1.1014 -0.2597
31584SOL    HW1 6476   2.683  11.555   9.061  0.1761  0.8986  0.5121
31584SOL    HW2 6477   2.715  11.662   9.164 -0.2522  1.9201 -0.3852
31585SOL     OW 6478   3.164   5.627   7.123 -0.5948  0.3199 -0.6977
31585SOL    HW1 6479   3.202   5.594   7.041  0.9923 -0.9560  0.4733
31585SOL    HW2 6480   3.230   5.687   7.157 -0.3014 -0.7050  0.6023
31586SOL     OW 6481   6.724   5.515   7.622  0.4281 -0.3440  0.4699
31586SOL    HW1 6482   6.648   5.539   7.568  1.1667 -0.7744 -0.8060
31586SOL    HW2 6483   6.768   5.446   7.572  1.8546  0.1363  0.9990
31587SOL     OW 6484   1.212   5.472   3.877 -0.0009  0.0693 -0.4277
31587SOL    HW1 6485   1.191   5.383   3.905 -1.6583  0.1931 -1.1683
31587SOL    HW2 6486   1.289   5.463   3.821 -0.0018 -0.8558 -0.2863
31588SOL     OW 6487  10.079   7.986  10.065 -0.3353 -0.3996 -0.1076
31588SOL    HW1 6488  10.082   8.031  10.149 -1.2633  0.6228 -0.5951
31588SOL    HW2 6489  10.069   8.056  10.001  0.2446 -1.1718 -1.0675
31589SOL     OW 6490  10.030  11.254   3.501 -0.3849 -0.3162  0.0678
31589SOL    HW1 6491  10.060  11.163   3.497  0.1451 -0.2261  1.3199
31589SOL    HW2 6492  10.019  11.271   3.595  0.9130  1.3453 -0.0306
31590SOL     OW 6493   1.894   6.288   1.099 -0.1202  0.1155  0.6502
31590SOL    HW1 6494   1.862   6.205   1.134 -3.0051  1.0429  0.4293
31590SOL    HW2 6495   1.900   6.346   1.175  1.4031 -0.0991  0.7285
31591SOL     OW 6496   6.914   7.911   5.070  0.0007 -0.7352  0.0774
31591SOL    HW1 6497   7.010   7.906   5.070  0.2525  1.7914 -2.0309
31591SOL    HW2 6498   6.894   7.973   5.140  0.0948  0.2167 -0.7175
31592SOL     OW 6499   8.526   9.713   5.676 -1.0879 -0.5390 -0.2761
31592SOL    HW1 6500   8.568   9.675   5.753  0.0263  1.1486 -0.0019
31592SOL    HW2 6501   8.585   9.693   5.603 -0.9431 -0.1036 -0.2814
31593SOL     OW 6502   9.929   0.518   7.601  0.1855  0.0543  0.0858
31593SOL    HW1 6503   9.968   0.436   7.630  1.4204  0.2262 -0.9857
31593SOL    HW2 6504   9.905   0.502   7.510 -0.0971  0.6949  0.0436
31594SOL     OW 6505   4.493   1.169   1.234 -0.2489 -0.3625  0.0224
31594SOL    HW1 6506   4.401   1.163   1.208  0.3909 -2.0704 -2.2200
31594SOL    HW2 6507   4.519   1.258   1.211 -1.4834  0.3639  1.3365
31595SOL     OW 6508   1.700   4.169   0.587 -0.5440  0.0818  0.3221
31595SOL    HW1 6509   1.607   4.152   0.574 -0.8892  1.4693  0.8738
31595SOL    HW2 6510   1.704   4.255   0.628  0.9400 -0.3565  1.1876
31596SOL     OW 6511  10.386  10.500   4.038  0.1081  0.2278 -0.4495
31596SOL    HW1 6512  10.352  10.411   4.042 -2.6073  1.1934 -0.4017
31596SOL    HW2 6513  10.478  10.489   4.012  0.2829 -2.6316  0.9722
31597SOL     OW 6514   3.544   1.034   7.122 -0.1761 -0.1494 -0.3614
31597SOL    HW1 6515   3.604   1.075   7.060 -0.3991 -0.6867 -0.9437
31597SOL    HW2 6516   3.465   1.088   7.119  0.1518  0.3747  0.1704
31598SOL     OW 6517   2.082   8.508  11.874 -0.2520  0.3518 -0.1807
31598SOL    HW1 6518   1.987   8.494  11.875 -0.4567  1.4782 -1.0145
31598SOL    HW2 6519   2.110   8.477  11.788  0.3668 -1.1859  0.5451
31599SOL     OW 6520   2.337   5.899   1.101 -0.0771 -0.7023 -0.2275
31599SOL    HW1 6521   2.319   5.982   1.058 -2.2165 -0.8538  0.2602
31599SOL    HW2 6522   2.421   5.871   1.065 -0.0237  0.9461 -1.4942
31600SOL     OW 6523   1.143   1.179   3.154  0.0398 -0.6440  0.2821
31600SOL    HW1 6524   1.172   1.257   3.107  1.2558 -1.4860 -0.4141
31600SOL    HW2 6525   1.105   1.123   3.087  0.8144 -1.4038  0.4566
31601SOL     OW 6526  11.178   6.534  11.297  0.4917 -0.0465 -0.5175
31601SOL    HW1 6527  11.220   6.560  11.215 -0.0769  0.0152 -0.7924
31601SOL    HW2 6528  11.103   6.481  11.270  0.3182 -0.0511 -0.0339
31602SOL     OW 6529   4.923   9.203   5.012 -0.8034 -0.3575 -0.1322
31602SOL    HW1 6530   4.869   9.244   5.079  0.1489  1.7017 -0.5422
31602SOL    HW2 6531   5.004   9.179   5.057 -0.3545  0.5836 -0.4139
31603SOL     OW 6532   8.409   2.264  10.808  0.3469 -0.4169  0.2239
31603SOL    HW1 6533   8.365   2.217  10.736  1.0032 -1.4324  0.4561
31603SOL    HW2 6534   8.493   2.290  10.770 -0.4257  1.6024 -0.2504
31604SOL     OW 6535   8.236  10.982   1.595  0.1852  0.6829  0.0364
31604SOL    HW1 6536   8.224  11.040   1.671 -2.1533  0.5378 -0.1298
31604SOL    HW2 6537   8.148  10.950   1.577  1.1882 -1.8267 -0.7672
31605SOL     OW 6538   0.918   5.191   0.482 -0.2838 -0.3905 -0.6746
31605SOL    HW1 6539   0.879   5.244   0.412  1.7946  0.6444 -1.1336
31605SOL    HW2 6540   0.910   5.246   0.560  0.7938  0.1207 -0.9064
31606SOL     OW 6541   4.301   4.751   9.595 -0.2855  0.4811  0.5590
31606SOL    HW1 6542   4.360   4.702   9.652  0.4644 -0.3726 -0.9179
31606SOL    HW2 6543   4.225   4.694   9.583 -0.1743  0.4034  0.2182
31607SOL     OW 6544   8.089   1.793   8.086 -0.4288 -0.1905  0.9087
31607SOL    HW1 6545   8.041   1.827   8.010  1.9291  0.6980 -0.2724
31607SOL    HW2 6546   8.145   1.725   8.049  0.2291 -0.2477  1.9912
31608SOL     OW 6547   5.098   5.163   5.391 -0.3013 -0.1419 -0.2663
31608SOL    HW1 6548   5.171   5.119   5.347  0.1002  1.5410 -1.3739
31608SOL    HW2 6549   5.129   5.177   5.481  0.7389  0.5001 -0.7017
31609SOL     OW 6550   1.766   5.691   8.421  0.5759 -0.1028 -0.4782
31609SOL    HW1 6551   1.673   5.673   8.409 -0.1043  0.0762  3.3589
31609SOL    HW2 6552   1.770   5.783   8.448  1.4835 -0.7831  1.9848
31610SOL     OW 6553   6.220   9.412  11.377 -0.6279 -0.7429 -0.5348
31610SOL    HW1 6554   6.236   9.388  11.469 -1.4836  0.8511  0.0885
31610SOL    HW2 6555   6.211   9.329  11.331 -1.3490 -1.5998  1.0683
31611SOL     OW 6556   1.829   5.177   7.901 -0.7922 -0.3343 -0.1862
31611SOL    HW1 6557   1.800   5.104   7.847  0.3613  0.0826 -1.4145
31611SOL    HW2 6558   1.769   5.176   7.976 -2.0928 -1.2643 -1.1857
31612SOL     OW 6559  11.452   8.654   8.899 -0.5974 -0.3347 -0.0489
31612SOL    HW1 6560  11.491   8.574   8.864 -1.9794 -1.6053  1.1844
31612SOL    HW2 6561  11.359   8.632   8.911 -0.9835  1.4150  0.4513
31613SOL     OW 6562   5.981   8.660  11.271 -0.0684  0.2049  0.0341
31613SOL    HW1 6563   5.942   8.597  11.210 -0.8853  0.5146  0.2259
31613SOL    HW2 6564   6.075   8.653  11.256 -0.1178 -1.3375  0.3216
31614SOL     OW 6565   3.811  10.320   1.957  0.3503  0.3887 -0.3191
31614SOL    HW1 6566   3.760  10.373   2.019  2.0403  1.4048  0.2683
31614SOL    HW2 6567   3.817  10.234   1.999  0.5069  0.7436  0.4118
31615SOL     OW 6568   6.373   3.781   2.402 -0.3028 -0.4813  0.0706
31615SOL    HW1 6569   6.465   3.756   2.394 -0.2008 -0.2553  0.4981
31615SOL    HW2 6570   6.340   3.781   2.312  0.4720  0.8027 -0.2314
31616SOL     OW 6571   0.060   5.254  10.680 -0.4415 -0.3576  0.0351
31616SOL    HW1 6572   0.012   5.281  10.758  1.3194  1.1956  0.6578
31616SOL    HW2 6573   0.139   5.212  10.713  0.4678  0.5638 -0.8909
31617SOL     OW 6574   5.129   5.894   8.656 -0.2878  0.0249  0.0233
31617SOL    HW1 6575   5.187   5.866   8.727 -0.9885  0.1306  0.6557
31617SOL    HW2 6576   5.096   5.980   8.684 -0.1719  0.2965 -0.6724
31618SOL     OW 6577   2.036   8.602   3.546 -0.1089 -0.0656 -0.3067
31618SOL    HW1 6578   1.957   8.549   3.557 -0.6354  0.7589 -0.0570
31618SOL    HW2 6579   2.004   8.689   3.522  0.7560  0.0720 -1.0168
31619SOL     OW 6580   7.905   7.969   3.833  0.5133 -0.2163  0.1762
31619SOL    HW1 6581   7.881   7.999   3.921  0.8417 -0.9846  0.5337
31619SOL    HW2 6582   7.893   8.047   3.777  0.0056  0.1950  0.8406
31620SOL     OW 6583   8.936   2.173   4.125  0.1209  0.0520 -0.2343
31620SOL    HW1 6584   8.959   2.082   4.143 -0.5754  0.0358  0.6611
31620SOL    HW2 6585   8.886   2.201   4.202  1.2496  1.5353  0.0343
31621SOL     OW 6586   0.006   7.556   7.438 -0.1678 -0.0852  0.2459
31621SOL    HW1 6587  -0.031   7.608   7.509 -0.0197  0.2508  0.0794
31621SOL    HW2 6588  -0.068   7.536   7.381  0.2053  2.4611 -1.2783
31622SOL     OW 6589  11.199   5.115   5.138 -0.0390  0.1242 -0.1006
31622SOL    HW1 6590  11.242   5.137   5.055  1.6055 -0.4555  0.5434
31622SOL    HW2 6591  11.171   5.024   5.127  1.3966 -0.4143  0.4040
31623SOL     OW 6592   6.871   2.167   0.796  0.1292  0.8465 -0.3886
31623SOL    HW1 6593   6.940   2.229   0.770  0.8620  0.9860  1.7398
31623SOL    HW2 6594   6.885   2.153   0.889  0.3692 -3.0320 -0.8670
31624SOL     OW 6595   6.791   2.378   6.823  0.0890  0.0080 -0.0740
31624SOL    HW1 6596   6.781   2.296   6.775  0.6245  0.4950 -1.0457
31624SOL    HW2 6597   6.726   2.437   6.784 -0.0809  0.1434  0.4065
31625SOL     OW 6598   5.118  11.884   3.363 -0.5744  0.0296  0.2194
31625SOL    HW1 6599   5.135  11.790   3.361  0.2815  0.1287  1.6042
31625SOL    HW2 6600   5.091  11.901   3.453  0.4541  1.2929  0.3117
31626SOL     OW 6601   6.998  10.046   6.985 -0.5013 -0.0467  0.1252
31626SOL    HW1 6602   6.960   9.999   6.911  0.9333 -0.2912 -0.4882
31626SOL    HW2 6603   7.092  10.033   6.977 -0.2115  1.0882  1.2119
31627SOL     OW 6604   5.655  10.942   0.981 -0.4319  0.2418 -0.3417
31627SOL    HW1 6605   5.658  10.983   0.895 -2.0419 -0.0894 -0.5817
31627SOL    HW2 6606   5.562  10.934   1.001 -0.0945 -0.1010  1.2388
31628SOL     OW 6607   2.765   2.354  11.090  0.1216 -0.2443  0.3978
31628SOL    HW1 6608   2.746   2.295  11.163 -2.4609 -1.2460 -0.9540
31628SOL    HW2 6609   2.796   2.435  11.131 -1.2389 -0.7762  2.5959
31629SOL     OW 6610   4.422   3.981  10.031 -0.4632  0.1918  0.0517
31629SOL    HW1 6611   4.409   4.032  10.111 -0.9407  1.1977 -0.6426
31629SOL    HW2 6612   4.373   3.901  10.047  0.3891 -0.1294  1.2076
31630SOL     OW 6613   5.156  10.288  11.770  0.3123  0.8079 -0.0597
31630SOL    HW1 6614   5.236  10.249  11.806 -0.5926  0.7781  2.0689
31630SOL    HW2 6615   5.180  10.380  11.754  2.0040 -0.0860 -3.6825
31631SOL     OW 6616   8.492   4.820   7.935  0.0711  0.4197  0.1135
31631SOL    HW1 6617   8.529   4.765   7.867  1.2891 -0.4412  1.4290
31631SOL    HW2 6618   8.435   4.881   7.888  2.6161  1.3885 -1.9456
31632SOL     OW 6619   9.419   7.675   3.318 -0.4520  0.6952  0.1790
31632SOL    HW1 6620   9.442   7.632   3.401  3.1827  2.1404  0.0979
31632SOL    HW2 6621   9.323   7.679   3.319 -0.6769 -1.7038  3.0296
31633SOL     OW 6622   2.566  10.266   9.007 -0.2609 -0.0418 -0.2817
31633SOL    HW1 6623   2.582  10.286   9.100  0.0637 -0.6131 -0.2143
31633SOL    HW2 6624   2.611  10.336   8.960 -1.5420  1.0301 -0.0005
31634SOL     OW 6625   9.955   3.931   7.892  0.0893  0.2753 -0.3013
31634SOL    HW1 6626  10.016   3.988   7.939 -0.9524  1.0494  0.1298
31634SOL    HW2 6627   9.878   3.985   7.876  0.3657  0.0561 -2.8899
31635SOL     OW 6628   7.742   6.024   2.737 -0.3641 -0.3130  0.0110
31635SOL    HW1 6629   7.707   5.949   2.784 -0.5095 -0.1089  0.2246
31635SOL    HW2 6630   7.783   6.079   2.804  1.4887 -1.1567 -0.3609
31636SOL     OW 6631   5.338   4.698   6.076  0.0187  0.1930  0.0044
31636SOL    HW1 6632   5.427   4.687   6.108 -0.0869 -0.9934 -0.0625
31636SOL    HW2 6633   5.340   4.661   5.988 -0.5888 -0.0274  0.0794
31637SOL     OW 6634   5.546   8.644   0.066 -0.3785 -0.2634 -0.4103
31637SOL    HW1 6635   5.451   8.654   0.066 -0.3484  0.0422 -0.0282
31637SOL    HW2 6636   5.562   8.564   0.015 -0.9247 -1.1495  0.7635
31638SOL     OW 6637   0.335  11.877  11.521  0.3216  0.1213 -0.4590
31638SOL    HW1 6638   0.293  11.870  11.607  0.7043  0.6064 -0.2327
31638SOL    HW2 6639   0.373  11.790  11.506  0.3471  0.0666 -0.0871
31639SOL     OW 6640   2.131  11.716   4.610 -0.0791 -0.0591  0.3029
31639SOL    HW1 6641   2.152  11.657   4.538 -0.8626  0.8288 -0.6713
31639SOL    HW2 6642   2.063  11.773   4.576 -0.5954  0.2744  1.8100
31640SOL     OW 6643  10.809   4.020   2.405  0.0128 -0.0701 -0.4493
31640SOL    HW1 6644  10.809   3.932   2.443  0.8679 -0.7347 -1.8814
31640SOL    HW2 6645  10.855   4.010   2.321  1.4827  2.0351  0.0205
31641SOL     OW 6646   0.354  11.116   5.882  0.0617  0.4286  0.2057
31641SOL    HW1 6647   0.402  11.192   5.915  1.9595 -1.3853  1.8868
31641SOL    HW2 6648   0.420  11.048   5.873 -0.9483 -0.3299 -4.1947
31642SOL     OW 6649   0.667   5.479   3.590 -0.3650  0.8147 -0.1149
31642SOL    HW1 6650   0.581   5.479   3.547 -0.5648  2.4524  0.1923
31642SOL    HW2 6651   0.666   5.558   3.644  0.7266 -0.0271  1.1894
31643SOL     OW 6652   9.235   0.778   3.556  0.0979  0.1890 -0.1488
31643SOL    HW1 6653   9.320   0.778   3.512 -0.9799 -1.0982 -2.4135
31643SOL    HW2 6654   9.190   0.701   3.522 -1.0575 -0.6581  2.9559
31644SOL     OW 6655   0.436   2.878  10.640 -0.2013  0.0990 -0.5784
31644SOL    HW1 6656   0.519   2.905  10.602  1.5016 -0.7136  2.2944
31644SOL    HW2 6657   0.398   2.959  10.675 -0.4537  0.4125 -1.5617
31645SOL     OW 6658   7.375   3.324   7.342  0.4284 -0.2818  0.2131
31645SOL    HW1 6659   7.345   3.341   7.252  1.4876 -0.8532 -0.2645
31645SOL    HW2 6660   7.380   3.410   7.382  0.4425  0.0296 -0.4411
31646SOL     OW 6661   5.398   9.718   1.787 -0.3387 -0.1500  0.4065
31646SOL    HW1 6662   5.403   9.628   1.754 -1.8295 -0.1223  0.0368
31646SOL    HW2 6663   5.455   9.719   1.864  1.7130 -0.7209 -1.0168
31647SOL     OW 6664   2.275   8.031   8.777  0.0321  0.1478 -0.3628
31647SOL    HW1 6665   2.181   8.025   8.797 -0.4473  1.7462 -1.9239
31647SOL    HW2 6666   2.280   8.017   8.683  1.4187 -0.0996 -0.2695
31648SOL     OW 6667   3.085   3.212   8.725 -0.8244  0.3416 -0.0496
31648SOL    HW1 6668   3.093   3.127   8.769 -0.0954 -0.0402 -0.8789
31648SOL    HW2 6669   3.157   3.213   8.662 -1.0974  1.3923 -0.3634
31649SOL     OW 6670   7.879   6.666   0.046  0.2352 -0.7776 -0.8752
31649SOL    HW1 6671   7.914   6.710  -0.031 -0.9553  0.3608 -0.8027
31649SOL    HW2 6672   7.882   6.573   0.024  3.3229 -0.7941 -0.8241
31650SOL     OW 6673   8.830   4.166  10.197  0.7128 -0.1277 -0.0911
31650SOL    HW1 6674   8.920   4.150  10.169  0.9727  2.6616 -1.1643
31650SOL    HW2 6675   8.837   4.186  10.290  1.0740 -0.6146 -0.0089
31651SOL     OW 6676   5.044   8.116   4.403  0.2445 -0.0266 -0.0497
31651SOL    HW1 6677   5.066   8.188   4.344  2.4482 -1.6998 -1.4230
31651SOL    HW2 6678   5.071   8.147   4.489 -0.7202  1.5056 -0.2566
31652SOL     OW 6679   5.141  11.153   3.214 -0.1993 -0.8093  0.0614
31652SOL    HW1 6680   5.089  11.229   3.240  0.7081  0.3746 -1.3652
31652SOL    HW2 6681   5.079  11.094   3.172 -0.5118  0.3658 -1.1927
31653SOL     OW 6682   4.696   8.504   8.593  0.3723  0.0908 -0.1302
31653SOL    HW1 6683   4.679   8.582   8.646 -1.5309  1.0813 -2.0388
31653SOL    HW2 6684   4.647   8.519   8.512 -1.5294 -3.8655  0.0844
31654SOL     OW 6685   0.372   3.125   8.486 -0.1493  0.1655 -0.4282
31654SOL    HW1 6686   0.319   3.158   8.558  0.3731  1.7241 -0.7170
31654SOL    HW2 6687   0.456   3.104   8.526 -0.7755 -1.8739 -0.0571
31655SOL     OW 6688   5.486   1.861   5.853  0.0841 -0.1197 -0.2408
31655SOL    HW1 6689   5.503   1.835   5.944 -1.2923  1.4157  0.4988
31655SOL    HW2 6690   5.560   1.826   5.804  1.0870 -0.6017  1.5385
31656SOL     OW 6691   7.180   3.753   1.876  0.3612 -0.0700  0.4181
31656SOL    HW1 6692   7.159   3.822   1.814 -0.1026  1.3797  2.1223
31656SOL    HW2 6693   7.096   3.708   1.891  0.5558 -0.6917 -0.2795
31657SOL     OW 6694  10.877   2.813   1.516 -0.8155 -0.3454  0.1681
31657SOL    HW1 6695  10.832   2.897   1.523 -0.6757 -0.2634  0.0842
31657SOL    HW2 6696  10.866   2.772   1.602  0.4596  0.4293  0.7302
31658SOL     OW 6697   4.026   4.467   2.366  0.0881  0.5683  0.2157
31658SOL    HW1 6698   3.985   4.540   2.411  1.0178  0.5660  1.1211
31658SOL    HW2 6699   3.956   4.427   2.315 -1.0058  0.6030  1.6420
31659SOL     OW 6700   8.528   3.512  11.595 -0.1906  0.7940 -0.3405
31659SOL    HW1 6701   8.549   3.528  11.687 -0.3870  1.2412 -0.3688
31659SOL    HW2 6702   8.518   3.417  11.588  0.3123  0.7196 -0.0090
31660SOL     OW 6703   4.675  10.897   0.259  0.1044 -0.2249 -0.1925
31660SOL    HW1 6704   4.606  10.831   0.273  1.5490 -2.0725 -1.2681
31660SOL    HW2 6705   4.655  10.967   0.321 -3.3424 -0.1547 -1.1595
31661SOL     OW 6706  10.281   7.716   6.574 -0.0986 -0.5083  0.0817
31661SOL    HW1 6707  10.291   7.786   6.639 -0.1371  0.4420 -0.9226
31661SOL    HW2 6708  10.313   7.637   6.620  2.0778  0.5371  0.5260
31662SOL     OW 6709   7.924   8.835   0.419 -0.1695 -0.4191 -0.1022
31662SOL    HW1 6710   7.919   8.748   0.379 -1.1189  0.5229 -2.2040
31662SOL    HW2 6711   7.860   8.832   0.491  0.3684 -1.6655  0.3525
31663SOL     OW 6712  11.629   3.001   1.075 -0.4263 -0.0593  0.5964
31663SOL    HW1 6713  11.623   3.018   0.981  0.4338  1.3756  0.7677
31663SOL    HW2 6714  11.565   3.060   1.114 -1.0959 -0.9724  0.8836
31664SOL     OW 6715   9.195   9.098  11.880  0.9294  0.1436 -0.6757
31664SOL    HW1 6716   9.183   9.180  11.831 -0.7288  0.2937 -0.1095
31664SOL    HW2 6717   9.241   9.040  11.820 -1.8653 -0.0212 -2.8803
31665SOL     OW 6718   5.956   0.562   0.379 -0.0833 -0.4702 -0.3177
31665SOL    HW1 6719   5.895   0.490   0.397 -0.3202 -0.1416  0.2373
31665SOL    HW2 6720   6.043   0.523   0.392 -0.0614 -1.4037 -2.7970
31666SOL     OW 6721   4.228   8.569   6.729 -0.0343 -0.4472  0.1718
31666SOL    HW1 6722   4.240   8.505   6.799 -1.6010 -1.5470 -0.5164
31666SOL    HW2 6723   4.168   8.527   6.667 -1.6499  1.9179  0.0008
31667SOL     OW 6724   0.411   0.821   2.350 -0.0402  0.5926  0.0724
31667SOL    HW1 6725   0.323   0.807   2.386  0.4383  0.2133  1.1349
31667SOL    HW2 6726   0.445   0.733   2.335  1.0150  0.6366  1.8798
31668SOL     OW 6727   2.734   2.823  10.924  0.1672  0.0787 -0.0757
31668SOL    HW1 6728   2.711   2.758  10.857 -0.2522 -0.9070  0.9988
31668SOL    HW2 6729   2.688   2.903  10.897  0.1940 -0.2275 -1.0841
31669SOL     OW 6730   5.827  10.256   9.373  0.2441  0.1245  0.1783
31669SOL    HW1 6731   5.882  10.182   9.347  2.2436  1.2361  1.0687
31669SOL    HW2 6732   5.790  10.229   9.457 -1.0094 -0.8108 -0.6331
31670SOL     OW 6733   7.171   7.909   3.609  0.1747 -0.3591 -0.7112
31670SOL    HW1 6734   7.243   7.863   3.564 -0.1220 -1.2440 -0.3081
31670SOL    HW2 6735   7.093   7.861   3.583 -0.5247  1.5635 -2.4406
31671SOL     OW 6736   6.708   5.887  11.357 -0.1957  0.4341  0.3172
31671SOL    HW1 6737   6.619   5.896  11.321 -1.1936  0.2924  2.5974
31671SOL    HW2 6738   6.698   5.827  11.431  1.8560  0.2854  0.5191
31672SOL     OW 6739   3.191  11.136   2.489  0.7489  0.0951  0.1451
31672SOL    HW1 6740   3.266  11.194   2.476  0.7019  0.4207  1.2434
31672SOL    HW2 6741   3.225  11.067   2.546  0.1973  0.2905  0.7188
31673SOL     OW 6742  10.831   0.786  10.063  0.5550 -0.8459 -0.5817
31673SOL    HW1 6743  10.903   0.786  10.000  2.0379 -0.8913  1.0126
31673SOL    HW2 6744  10.871   0.754  10.144 -1.0830 -0.1417  0.5643
31674SOL     OW 6745   2.524   5.248  10.744  0.4515 -0.5011  0.5242
31674SOL    HW1 6746   2.468   5.171  10.738 -0.7387 -0.1073  4.0009
31674SOL    HW2 6747   2.560   5.259  10.656 -2.0551 -2.9422 -0.9701
31675SOL     OW 6748   2.485   1.360   6.951 -0.1988 -0.1650  0.2655
31675SOL    HW1 6749   2.535   1.408   6.885 -1.9570  2.1898  0.4920
31675SOL    HW2 6750   2.550   1.311   7.001  1.6383  1.3258 -0.5666
31676SOL     OW 6751  11.139   1.537  11.779 -0.3296 -0.1920 -0.0418
31676SOL    HW1 6752  11.070   1.603  11.778 -0.3682 -0.1678  1.5312
31676SOL    HW2 6753  11.143   1.508  11.871  1.4342 -0.5317 -0.1969
31677SOL     OW 6754   8.237  10.338   1.557  0.2795  0.0502  0.0779
31677SOL    HW1 6755   8.328  10.353   1.583  0.6115 -1.5805  0.0071
31677SOL    HW2 6756   8.216  10.252   1.593 -1.5892  0.8180  0.9462
31678SOL     OW 6757   2.274   6.015   9.220  0.0920  0.1219 -0.2784
31678SOL    HW1 6758   2.265   5.968   9.302 -1.4499  1.4192  0.3638
31678SOL    HW2 6759   2.292   6.106   9.246  0.3918  0.4032 -1.3850
31679SOL     OW 6760   1.364   6.756   6.362 -0.0431 -0.3494 -0.0248
31679SOL    HW1 6761   1.408   6.805   6.432  0.7717  0.2938 -0.9630
31679SOL    HW2 6762   1.278   6.734   6.398  0.0063  0.7891  0.8375
31680SOL     OW 6763   3.910   8.497   4.882 -0.2793 -0.3982  0.3566
31680SOL    HW1 6764   3.929   8.575   4.831 -0.7020 -0.4306  0.1419
31680SOL    HW2 6765   3.867   8.438   4.821  0.2668 -0.9041  0.4514
31681SOL     OW 6766   7.213   2.238   6.004  0.3942  0.4955  0.4846
31681SOL    HW1 6767   7.205   2.301   6.076 -1.1451  1.8940 -0.8227
31681SOL    HW2 6768   7.265   2.283   5.938 -0.0164  0.0814 -0.1347
31682SOL     OW 6769   0.850   1.252   7.216 -0.0625 -0.4870 -0.1838
31682SOL    HW1 6770   0.787   1.281   7.150  1.1365  1.5230 -0.5217
31682SOL    HW2 6771   0.904   1.187   7.171  1.0509  1.2064 -1.4252
31683SOL     OW 6772   3.825   0.199   9.586 -0.2977  0.2533  0.3136
31683SOL    HW1 6773   3.764   0.272   9.595  0.4169  0.8306  0.6303
31683SOL    HW2 6774   3.908   0.240   9.562 -0.2067 -0.5767 -0.8853
31684SOL     OW 6775   4.947   4.534   3.948 -0.2464 -0.3875  0.6882
31684SOL    HW1 6776   4.932   4.570   4.035 -1.0289  1.1941 -0.0525
31684SOL    HW2 6777   4.868   4.482   3.930 -1.1105  1.0503  0.1179
31685SOL     OW 6778   0.675   5.766   4.962 -0.3221  0.3324  0.5414
31685SOL    HW1 6779   0.664   5.734   4.873 -0.6890  1.8955 -0.0069
31685SOL    HW2 6780   0.593   5.811   4.982 -0.0492  0.4317  1.4788
31686SOL     OW 6781   6.426   3.844   9.771  0.1317 -0.0428  0.5314
31686SOL    HW1 6782   6.520   3.832   9.756 -0.3298 -1.4826 -1.5564
31686SOL    HW2 6783   6.390   3.756   9.773 -1.2336  0.4949  1.0819
31687SOL     OW 6784   8.624   9.135   8.051 -0.0987  0.3003 -0.1214
31687SOL    HW1 6785   8.673   9.136   8.133  3.0462 -2.0445 -1.7549
31687SOL    HW2 6786   8.611   9.228   8.030  2.7967  1.0753  0.9753
31688SOL     OW 6787   0.495   9.014   6.119 -0.7895 -0.2250  0.5357
31688SOL    HW1 6788   0.567   9.021   6.181  0.1800  1.2534 -0.6668
31688SOL    HW2 6789   0.513   8.935   6.069 -1.9539 -1.8214  2.5076
31689SOL     OW 6790   5.789   8.825   1.850  0.2548 -0.3873 -0.0320
31689SOL    HW1 6791   5.866   8.785   1.889  1.0240 -0.0592 -1.1543
31689SOL    HW2 6792   5.815   8.845   1.760 -0.1432  2.4112  0.3785
31690SOL     OW 6793   5.487   8.844  10.100  0.2834 -0.0968  0.0239
31690SOL    HW1 6794   5.466   8.882  10.015  1.1099  1.3606  0.4372
31690SOL    HW2 6795   5.488   8.750  10.084 -2.2374 -0.0355 -0.9403
31691SOL     OW 6796   7.024  10.500   8.733  0.1599 -0.1607  0.6757
31691SOL    HW1 6797   7.025  10.507   8.638  0.0644  1.4919  0.7624
31691SOL    HW2 6798   7.111  10.470   8.757  0.7561  1.0720  0.1373
31692SOL     OW 6799   2.438   9.187   5.445  0.7677  0.0403  0.3544
31692SOL    HW1 6800   2.352   9.146   5.440 -0.0471  1.6949  0.2228
31692SOL    HW2 6801   2.447   9.234   5.362  1.0684  1.2429  1.0533
31693SOL     OW 6802   8.827   3.151  10.620 -0.0655  0.0525  0.0570
31693SOL    HW1 6803   8.793   3.081  10.565 -0.9031 -0.5829  1.3270
31693SOL    HW2 6804   8.768   3.225  10.603  0.6663  0.3931 -1.0922
31694SOL     OW 6805  11.345   1.435   0.581  0.3329  0.3934  0.6757
31694SOL    HW1 6806  11.404   1.394   0.519 -0.2843  1.2015 -0.4966
31694SOL    HW2 6807  11.279   1.368   0.599 -0.5124  0.7210 -1.0001
31695SOL     OW 6808  10.243   8.063   3.129 -0.3566 -0.0155  0.0101
31695SOL    HW1 6809  10.291   7.998   3.079 -1.5435  0.7740 -2.2862
31695SOL    HW2 6810  10.182   8.102   3.066 -1.5775  1.4138  1.9579
31696SOL     OW 6811   2.492   9.050   8.724  0.3953  0.5321  0.0591
31696SOL    HW1 6812   2.507   8.959   8.752 -0.2938  1.3199  3.3469
31696SOL    HW2 6813   2.487   9.044   8.628  0.4961 -2.8703  0.1219
31697SOL     OW 6814   1.232   2.177  11.720 -0.1610 -0.3740  0.3792
31697SOL    HW1 6815   1.285   2.158  11.643 -0.8969  2.7326 -1.0253
31697SOL    HW2 6816   1.149   2.208  11.685 -1.6149 -1.6423  2.5078
31698SOL     OW 6817   3.489   2.975   6.136  0.3138  0.5676 -1.1781
31698SOL    HW1 6818   3.443   2.915   6.195  0.0661 -2.2544 -3.9581
31698SOL    HW2 6819   3.579   2.941   6.132  1.1060  2.4200 -0.3769
31699SOL     OW 6820   2.976  10.550   5.598  0.2146  0.8027  0.3144
31699SOL    HW1 6821   2.954  10.498   5.675  0.9882 -1.3930 -0.8460
31699SOL    HW2 6822   2.907  10.529   5.534  0.5966  1.1137 -0.2125
31700SOL     OW 6823   9.021   5.520  11.654  0.5216  0.2091 -0.0699
31700SOL    HW1 6824   9.116   5.522  11.638  0.3645  0.5498 -1.0669
31700SOL    HW2 6825   8.984   5.563  11.577 -0.4916 -0.5836 -0.0415
31701SOL     OW 6826  10.641   2.062   4.344 -0.6129  0.3386  0.2779
31701SOL    HW1 6827  10.634   2.005   4.267  0.3492  0.4015  0.1369
31701SOL    HW2 6828  10.615   2.005   4.417 -0.0054 -0.1869  0.0959
31702SOL     OW 6829   2.816   8.931   8.714  0.0686 -0.3030 -0.2776
31702SOL    HW1 6830   2.862   8.882   8.645  1.6186  0.7952 -0.0631
31702SOL    HW2 6831   2.782   9.009   8.670  2.1759  1.0694  0.3651
31703SOL     OW 6832   8.539   4.202   7.838 -0.6386 -0.5102  0.2141
31703SOL    HW1 6833   8.515   4.243   7.754 -0.5073  0.0480  0.4418
31703SOL    HW2 6834   8.590   4.269   7.883 -0.4031 -0.9424  0.5930
31704SOL     OW 6835   3.354   8.870  10.059  0.3711 -0.0749 -0.6203
31704SOL    HW1 6836   3.421   8.802  10.047  0.1445 -0.3564 -0.3158
31704SOL    HW2 6837   3.309   8.845  10.140 -0.1700  0.0487 -0.8774
31705SOL     OW 6838   9.738   3.621   4.616  0.0040  0.9223  0.0622
31705SOL    HW1 6839   9.815   3.564   4.615  0.6796  1.7478  1.7276
31705SOL    HW2 6840   9.704   3.616   4.527  0.7578 -1.0831 -0.1774
31706SOL     OW 6841   7.464  10.096   0.191 -0.6210  0.2411 -0.1698
31706SOL    HW1 6842   7.495  10.009   0.166 -2.5843 -0.2575 -1.0671
31706SOL    HW2 6843   7.531  10.156   0.158  0.2058 -0.8525 -0.5479
31707SOL     OW 6844   7.471   6.012   6.819 -0.3558 -0.5802 -0.1758
31707SOL    HW1 6845   7.407   6.027   6.750  0.9071  2.1069 -0.9177
31707SOL    HW2 6846   7.527   5.941   6.786 -0.5919 -0.2602 -1.3044
31708SOL     OW 6847   6.583   4.269   4.887 -0.4946 -0.4818  0.0635
31708SOL    HW1 6848   6.674   4.295   4.901  0.1621 -1.9823 -1.0777
31708SOL    HW2 6849   6.569   4.284   4.794 -1.2964 -0.6417  0.1562
31709SOL     OW 6850  11.903   2.631   2.992 -0.0414 -0.2179  0.2522
31709SOL    HW1 6851  11.987   2.634   3.038 -0.6800 -2.8833  1.7853
31709SOL    HW2 6852  11.887   2.722   2.966  2.8128  0.5433  0.7662
31710SOL     OW 6853   2.135   2.867  10.699 -0.3816  0.0719 -0.2978
31710SOL    HW1 6854   2.046   2.830  10.698 -0.5765  0.5057  0.4021
31710SOL    HW2 6855   2.191   2.794  10.672 -1.0053 -0.0469 -1.3426
31711SOL     OW 6856   2.513   6.118   7.352  0.0844  0.4373 -0.4263
31711SOL    HW1 6857   2.476   6.055   7.290  0.9468  1.4822 -2.0737
31711SOL    HW2 6858   2.457   6.195   7.345 -0.7405  0.0336  1.2936
31712SOL     OW 6859  11.330   3.380   6.455 -0.0123  0.4885  0.2308
31712SOL    HW1 6860  11.372   3.400   6.538  1.9105  0.6526 -0.7451
31712SOL    HW2 6861  11.347   3.456   6.399  1.9204 -1.0747 -1.4721
31713SOL     OW 6862   6.159   7.356  11.714 -0.0654  0.5657 -0.0906
31713SOL    HW1 6863   6.116   7.274  11.691 -1.6372  1.3086  0.0895
31713SOL    HW2 6864   6.167   7.403  11.631 -0.3567  0.7617 -0.0114
31714SOL     OW 6865  10.208   5.476   6.562 -0.2705 -0.1084  0.2266
31714SOL    HW1 6866  10.202   5.571   6.547  1.1577  0.4362  2.6014
31714SOL    HW2 6867  10.117   5.447   6.568 -0.7382  1.0518 -0.7549
31715SOL     OW 6868   0.273   5.614   5.207 -0.3215  0.4314  0.4158
31715SOL    HW1 6869   0.181   5.607   5.234 -0.7563  1.9619 -0.5712
31715SOL    HW2 6870   0.318   5.652   5.282 -0.3879 -0.7132  1.0596
31716SOL     OW 6871   5.667  10.821   6.031  0.0695  0.7088 -0.7915
31716SOL    HW1 6872   5.705  10.738   6.060 -1.5438  1.1980  3.2826
31716SOL    HW2 6873   5.595  10.795   5.973 -0.5196 -0.7909  0.5527
31717SOL     OW 6874   5.325   6.012   9.604  0.1478  0.2616  0.1410
31717SOL    HW1 6875   5.358   6.094   9.567 -1.6334  0.7405 -0.4711
31717SOL    HW2 6876   5.298   5.960   9.529  1.5668 -1.0549  0.5080
31718SOL     OW 6877   3.894   0.680  10.938 -0.2296  0.0367 -0.2372
31718SOL    HW1 6878   3.831   0.653  10.871 -1.3405 -0.1361  0.8232
31718SOL    HW2 6879   3.909   0.601  10.990 -0.4579  0.4737  0.5230
31719SOL     OW 6880   4.667   9.940  11.111  0.2309  0.4699 -0.5176
31719SOL    HW1 6881   4.611  10.012  11.139  0.4900  0.5212 -0.1281
31719SOL    HW2 6882   4.673   9.883  11.189  0.1972  0.1384 -0.7560
31720SOL     OW 6883   7.307   0.851   9.812  0.1849  0.4588  0.2487
31720SOL    HW1 6884   7.219   0.859   9.848  1.1431  0.5176  2.7643
31720SOL    HW2 6885   7.311   0.918   9.743 -1.5887  0.6804  0.3012
31721SOL     OW 6886   1.304   1.105   0.663 -0.9663 -0.4604 -0.2236
31721SOL    HW1 6887   1.258   1.164   0.724  0.9083 -0.6244  1.4525
31721SOL    HW2 6888   1.382   1.154   0.637  1.3418 -2.5193  2.2449
31722SOL     OW 6889   5.342   3.548  10.900 -0.5069  0.0690 -0.1612
31722SOL    HW1 6890   5.368   3.525  10.810  0.7923  3.4104 -0.8165
31722SOL    HW2 6891   5.424   3.543  10.950 -0.7327  0.5640  0.2613
31723SOL     OW 6892   2.930   2.452  11.464 -0.1633 -0.0958 -0.0712
31723SOL    HW1 6893   2.897   2.485  11.381 -4.1546 -2.3432  0.3876
31723SOL    HW2 6894   2.981   2.374  11.440  0.0356  0.1649 -0.4950
31724SOL     OW 6895   1.473  11.316   5.340  0.0690  0.4574  0.5013
31724SOL    HW1 6896   1.503  11.240   5.290  0.2257  0.7355  0.1679
31724SOL    HW2 6897   1.500  11.298   5.430  0.2716  0.2087  0.3910
31725SOL     OW 6898   4.062   9.836   9.387  0.3304  0.3816  0.1235
31725SOL    HW1 6899   3.990   9.777   9.408  0.7051 -0.1402 -0.0170
31725SOL    HW2 6900   4.054   9.908   9.450 -0.4643  0.4656 -0.0633
31726SOL     OW 6901  10.679   5.529   1.412  0.3898  0.2558  0.3104
31726SOL    HW1 6902  10.663   5.453   1.357 -2.1018  0.8489  0.1026
31726SOL    HW2 6903  10.729   5.496   1.486 -2.3866 -2.0637  1.2965
31727SOL     OW 6904   9.833   3.266   5.473 -0.0939 -0.5656 -0.3054
31727SOL    HW1 6905   9.768   3.300   5.533  0.1190 -1.1557  0.2702
31727SOL    HW2 6906   9.901   3.228   5.529  0.6911 -0.0625 -0.8963
31728SOL     OW 6907   8.012  11.295   7.272  0.3352 -0.4626 -0.5250
31728SOL    HW1 6908   8.037  11.344   7.350 -2.7321 -0.8434  0.8437
31728SOL    HW2 6909   8.038  11.205   7.292  1.5765 -0.2176 -0.9542
31729SOL     OW 6910   6.645   0.180   5.538  0.0440 -0.1101 -0.6859
31729SOL    HW1 6911   6.565   0.225   5.511 -1.5886 -1.4801  1.5261
31729SOL    HW2 6912   6.633   0.165   5.632  1.6757 -2.7103 -0.7961
31730SOL     OW 6913   4.864   5.088   0.370 -0.1002  0.2626 -0.0409
31730SOL    HW1 6914   4.807   5.051   0.302 -0.2780  1.8905 -0.8499
31730SOL    HW2 6915   4.942   5.116   0.323  1.7154 -2.4535  1.1545
31731SOL     OW 6916   8.712   4.546  11.782 -0.7509 -0.2437  0.5815
31731SOL    HW1 6917   8.738   4.462  11.743 -0.0948 -0.1159  0.7409
31731SOL    HW2 6918   8.688   4.600  11.707  1.3728  0.3066  0.2419
31732SOL     OW 6919   4.656   9.630   0.209 -0.0226  0.0184 -0.4773
31732SOL    HW1 6920   4.748   9.603   0.216 -0.0736 -0.2232 -0.7414
31732SOL    HW2 6921   4.607   9.561   0.253  0.0373  0.9302  1.0818
31733SOL     OW 6922  10.811   4.278   7.513  0.0828  0.2190  0.0552
31733SOL    HW1 6923  10.822   4.250   7.422  0.4701  0.5113  0.0097
31733SOL    HW2 6924  10.722   4.252   7.535  0.8999 -2.4185  0.4957
31734SOL     OW 6925   7.416  11.923   6.544  0.1500 -0.6338  0.1222
31734SOL    HW1 6926   7.438  11.986   6.612  1.4521 -0.3519 -0.5439
31734SOL    HW2 6927   7.349  11.867   6.585 -0.6316  0.8002  0.9103
31735SOL     OW 6928   5.583   0.556  11.603  0.0720  0.7528 -0.0811
31735SOL    HW1 6929   5.553   0.645  11.618  2.8027  1.8011 -0.3957
31735SOL    HW2 6930   5.550   0.535  11.515 -0.8538  1.3117  0.1189
31736SOL     OW 6931   2.933   0.380   1.976 -0.2627 -0.3569  0.2329
31736SOL    HW1 6932   2.923   0.301   1.923  0.8017 -0.7541  0.6015
31736SOL    HW2 6933   2.930   0.452   1.914 -1.6279 -0.6411 -0.0729
31737SOL     OW 6934  11.062  11.682   5.482  0.1277 -0.0335  0.1408
31737SOL    HW1 6935  10.987  11.725   5.522 -1.2009 -0.9080 -1.2979
31737SOL    HW2 6936  11.105  11.752   5.432  1.4993  0.9355  2.5446
31738SOL     OW 6937   8.347   7.382   5.713  0.4851  0.4457 -0.1369
31738SOL    HW1 6938   8.429   7.380   5.665  0.2707  0.5241 -0.5148
31738SOL    HW2 6939   8.346   7.468   5.756  0.6099  0.4349 -0.1137
31739SOL     OW 6940   4.998   6.543   2.460 -0.0505 -0.5115  0.0360
31739SOL    HW1 6941   5.051   6.606   2.411  1.1949 -0.2472  1.6180
31739SOL    HW2 6942   4.931   6.596   2.502 -0.6670 -0.6363 -0.7758
31740SOL     OW 6943  10.933   0.626   1.869  0.6119 -0.3523  0.1156
31740SOL    HW1 6944  10.942   0.538   1.904  0.0967 -0.4659 -0.0300
31740SOL    HW2 6945  11.023   0.655   1.852  1.0604  0.4344  3.2602
31741SOL     OW 6946   4.359  10.041   5.990  0.1704  0.3654 -0.1118
31741SOL    HW1 6947   4.413  10.084   6.056 -2.3452  2.8109  0.5882
31741SOL    HW2 6948   4.329   9.960   6.032  0.4262  0.7784  0.8859
31742SOL     OW 6949   1.775   4.730   0.595  0.1343  0.4929 -0.3580
31742SOL    HW1 6950   1.750   4.741   0.503  1.0387 -0.1874 -0.6961
31742SOL    HW2 6951   1.749   4.640   0.616  0.2838  0.5197 -0.0624
31743SOL     OW 6952   2.960   8.214   8.871  0.3643 -0.1289  0.0893
31743SOL    HW1 6953   3.029   8.161   8.911 -1.1261 -0.7897  1.8968
31743SOL    HW2 6954   2.913   8.153   8.815  0.1275 -0.1240  0.2834
31744SOL     OW 6955   5.724  11.710   4.433  0.1067 -0.4242 -0.2054
31744SOL    HW1 6956   5.754  11.745   4.349 -2.7455 -0.0168 -1.1687
31744SOL    HW2 6957   5.783  11.749   4.498  1.3895  0.5390 -1.8816
31745SOL     OW 6958   0.780   5.332   7.206  0.3097 -0.3255 -0.5318
31745SOL    HW1 6959   0.745   5.342   7.294 -0.3438  1.5699 -0.9512
31745SOL    HW2 6960   0.867   5.371   7.210 -0.7463  2.3562 -1.2739
31746SOL     OW 6961  10.522  11.104  10.919  0.0281 -0.3630  0.5071
31746SOL    HW1 6962  10.468  11.052  10.978  0.3696 -1.1617  0.1271
31746SOL    HW2 6963  10.460  11.138  10.854 -0.5214  1.3690  1.8701
31747SOL     OW 6964  10.299   4.177   5.737 -0.2362 -0.0029  0.0888
31747SOL    HW1 6965  10.216   4.139   5.766 -0.3899  0.2526 -0.0117
31747SOL    HW2 6966  10.314   4.140   5.650 -3.0852  4.0676 -2.4898
31748SOL     OW 6967   2.697   2.347   8.223  0.2015  0.2222 -0.1055
31748SOL    HW1 6968   2.772   2.288   8.217 -0.3502 -0.3738 -2.0922
31748SOL    HW2 6969   2.634   2.299   8.277  1.4447  1.0406  2.2031
31749SOL     OW 6970   6.885  10.437   9.685  0.1656  0.0530 -0.4704
31749SOL    HW1 6971   6.974  10.409   9.663 -0.1093 -1.3461  0.1237
31749SOL    HW2 6972   6.887  10.451   9.780 -0.7540 -2.1096 -0.0688
31750SOL     OW 6973   7.791   9.863   5.499 -0.1930 -0.1359 -0.1708
31750SOL    HW1 6974   7.752   9.776   5.493 -0.4748 -0.2063  1.8513
31750SOL    HW2 6975   7.718   9.923   5.484 -0.9860 -0.2788  2.5072
31751SOL     OW 6976   3.295   1.332  10.112 -0.3027  0.1409 -0.5518
31751SOL    HW1 6977   3.245   1.292  10.041  1.4493  0.0077 -1.7795
31751SOL    HW2 6978   3.382   1.345  10.075  0.3497  1.1390  1.2251
31752SOL     OW 6979   6.781   9.102  10.714 -0.2116  0.2671  0.3018
31752SOL    HW1 6980   6.752   9.185  10.752  1.5759  0.1709  2.0764
31752SOL    HW2 6981   6.715   9.038  10.742 -1.1620  0.9353 -0.3857
31753SOL     OW 6982   6.830   3.622  10.970  0.2483 -0.1645  0.5463
31753SOL    HW1 6983   6.905   3.643  11.026 -1.0677 -0.4895  2.5451
31753SOL    HW2 6984   6.756   3.663  11.014 -1.0443 -1.5232 -0.2945
31754SOL     OW 6985   2.886   1.228   3.932  0.0219  0.5769  0.1717
31754SOL    HW1 6986   2.871   1.265   4.019 -1.8892  0.0017  0.1269
31754SOL    HW2 6987   2.932   1.145   3.949 -1.2470 -0.0371  0.7337
31755SOL     OW 6988   4.816   4.936   8.475 -0.1509 -0.2197  0.4976
31755SOL    HW1 6989   4.721   4.932   8.463  0.0598 -0.2797 -1.5164
31755SOL    HW2 6990   4.846   4.850   8.445  0.6395  0.2538 -0.0700
31756SOL     OW 6991   3.306   9.425   9.862 -0.2651 -0.2797 -0.2664
31756SOL    HW1 6992   3.218   9.452   9.834 -0.0693  1.0621  0.3265
31756SOL    HW2 6993   3.353   9.408   9.781 -0.4380  1.1566 -0.7036
31757SOL     OW 6994  10.662   0.671  11.015  0.1777  0.1524 -0.1880
31757SOL    HW1 6995  10.653   0.759  11.051  0.9550  0.4136 -0.6125
31757SOL    HW2 6996  10.716   0.682  10.937 -1.1989 -0.4480 -1.2767
31758SOL     OW 6997   7.153   4.992   3.064 -0.4945  0.2707  0.3350
31758SOL    HW1 6998   7.212   4.994   3.139 -0.6343  0.5555  0.4422
31758SOL    HW2 6999   7.164   5.078   3.023  0.6201 -0.3849 -0.7944
31759SOL     OW 7000   1.168   7.775   4.601  0.2717 -0.5511 -0.7445
31759SOL    HW1 7001   1.230   7.813   4.540  0.5300  0.1563 -0.0460
31759SOL    HW2 7002   1.131   7.700   4.554 -0.7977  0.9515 -2.4346
31760SOL     OW 7003   2.698   8.626   7.039 -0.5589 -0.1292  0.3501
31760SOL    HW1 7004   2.740   8.712   7.037 -0.5826 -0.1142 -1.5021
31760SOL    HW2 7005   2.768   8.566   7.065 -0.2223  0.3005  0.4450
31761SOL     OW 7006   8.547   3.109   4.395  0.1658  0.4034  0.3232
31761SOL    HW1 7007   8.475   3.154   4.351 -0.1380  0.4060  0.8184
31761SOL    HW2 7008   8.536   3.016   4.372  0.6025  0.5336 -0.4327
31762SOL     OW 7009   4.228  11.779   7.411  0.1519 -0.2438  0.1737
31762SOL    HW1 7010   4.158  11.784   7.345 -0.5531  1.1236  0.9981
31762SOL    HW2 7011   4.197  11.712   7.472  0.1555 -0.5191 -0.1190
31763SOL     OW 7012   4.298   7.446   8.249  0.2255  0.7742 -0.1500
31763SOL    HW1 7013   4.384   7.485   8.233  0.7741  0.5592  1.9797
31763SOL    HW2 7014   4.317   7.364   8.295 -1.0681 -0.2039 -1.2945
31764SOL     OW 7015   9.739   3.380   5.734 -0.4077  0.3485  0.2485
31764SOL    HW1 7016   9.739   3.473   5.713  1.8289  0.1309 -0.9687
31764SOL    HW2 7017   9.820   3.366   5.784  0.3531 -1.2642 -1.3174
31765SOL     OW 7018   6.805  11.739   0.642 -0.0475  0.5422 -0.4210
31765SOL    HW1 7019   6.721  11.697   0.662 -0.0805 -0.3490 -2.2330
31765SOL    HW2 7020   6.862  11.667   0.614  2.0227  0.8144  2.6606
31766SOL     OW 7021   3.498   8.569   4.501  0.2604 -0.3781  0.4471
31766SOL    HW1 7022   3.450   8.510   4.442 -0.6968  1.3419 -0.5887
31766SOL    HW2 7023   3.500   8.523   4.585 -1.0740 -1.5784 -0.1345
31767SOL     OW 7024  10.186   6.605   7.717  0.1441 -0.1288  0.3874
31767SOL    HW1 7025  10.249   6.640   7.655 -1.0324  0.3288 -0.5905
31767SOL    HW2 7026  10.218   6.634   7.803 -0.4155  2.8750 -0.3049
31768SOL     OW 7027   4.978  11.241  10.079 -0.5369 -0.4297 -0.1548
31768SOL    HW1 7028   4.999  11.269   9.990  2.5986  1.1900  0.9499
31768SOL    HW2 7029   5.037  11.168  10.095  1.2888  1.3059  1.5542
31769SOL     OW 7030   0.920   2.684   6.140 -0.2097  0.2849 -0.1550
31769SOL    HW1 7031   0.982   2.696   6.069 -0.8426  0.8733 -0.6212
31769SOL    HW2 7032   0.950   2.743   6.209  1.7135 -1.8989  1.0057
31770SOL     OW 7033   5.433   0.102  10.688 -0.3252  0.4341  0.2493
31770SOL    HW1 7034   5.444   0.066  10.600 -0.6936  0.7192  0.0833
31770SOL    HW2 7035   5.371   0.043  10.730 -1.2519  1.0814 -0.1597
31771SOL     OW 7036  11.698   8.862   4.596 -0.4594 -0.7922  0.3715
31771SOL    HW1 7037  11.621   8.877   4.541  0.3241 -0.1520 -0.5740
31771SOL    HW2 7038  11.721   8.770   4.580 -0.9038 -0.9286  0.5047
31772SOL     OW 7039   8.934   3.333   5.581  0.0022  0.0916 -0.1851
31772SOL    HW1 7040   9.022   3.301   5.601  0.5935  1.8604  0.2427
31772SOL    HW2 7041   8.920   3.308   5.490  0.3801 -1.3843  0.1275
31773SOL     OW 7042   8.245   2.291   2.977  0.3068 -0.1868  0.2033
31773SOL    HW1 7043   8.277   2.233   3.046 -0.5723 -1.5868 -0.5239
31773SOL    HW2 7044   8.200   2.361   3.024  0.7932 -0.4475  1.0791
31774SOL     OW 7045   6.377   5.829   5.396 -0.3206 -0.1782  0.4316
31774SOL    HW1 7046   6.387   5.770   5.322  0.5482 -0.2478  0.5966
31774SOL    HW2 7047   6.368   5.772   5.472 -1.5452 -0.1140  0.3668
31775SOL     OW 7048   5.067  11.502  11.308  0.2709 -0.1883  0.4246
31775SOL    HW1 7049   5.021  11.516  11.225  0.9375  1.7147  0.3174
31775SOL    HW2 7050   5.007  11.450  11.361 -0.8579 -0.0341 -0.6728
31776SOL     OW 7051   5.377  11.865   1.847  0.3825 -0.4745 -0.4435
31776SOL    HW1 7052   5.346  11.779   1.821  1.4142 -2.1374  3.1376
31776SOL    HW2 7053   5.466  11.870   1.814 -0.4356  0.3350 -2.7010
31777SOL     OW 7054   3.530   5.112  11.466  0.2223  0.4813  0.1438
31777SOL    HW1 7055   3.504   5.185  11.409  0.0419  0.1111 -0.2497
31777SOL    HW2 7056   3.606   5.145  11.514  0.1091  0.9490  0.0048
31778SOL     OW 7057   8.371  11.632   0.482  0.1989 -0.4854 -0.9261
31778SOL    HW1 7058   8.436  11.668   0.543 -2.3756  4.0227 -0.3692
31778SOL    HW2 7059   8.423  11.603   0.407  3.0204  2.3660 -0.3261
31779SOL     OW 7060   8.168   0.442   8.890  0.3388  0.3919  0.2230
31779SOL    HW1 7061   8.090   0.470   8.843  0.3082 -0.7697 -0.4672
31779SOL    HW2 7062   8.146   0.354   8.922  1.5219 -0.1571 -0.4075
31780SOL     OW 7063   6.980   8.137   8.946  0.5688  0.1845  0.2860
31780SOL    HW1 7064   6.985   8.044   8.923 -1.3863  0.8527 -3.7482
31780SOL    HW2 7065   6.886   8.156   8.951  0.8277  2.3710 -1.5162
31781SOL     OW 7066   3.188   3.670   2.377  0.4056  0.4127  0.1190
31781SOL    HW1 7067   3.192   3.658   2.282  0.8281  1.9156 -0.0780
31781SOL    HW2 7068   3.276   3.700   2.400  0.2306  0.2892  0.9567
31782SOL     OW 7069   5.398   9.377   3.910  0.1455  0.1566 -0.4714
31782SOL    HW1 7070   5.401   9.438   3.836 -0.9010 -0.4447 -1.0351
31782SOL    HW2 7071   5.467   9.313   3.891 -0.2292 -0.0913 -1.0276
31783SOL     OW 7072   5.256   9.822  11.947  0.1322 -1.0810 -0.2415
31783SOL    HW1 7073   5.238   9.873  11.868  0.3955 -0.6964 -0.0552
31783SOL    HW2 7074   5.296   9.741  11.915 -0.1137 -1.0947 -0.5236
31784SOL     OW 7075  10.286   2.325   3.291 -0.2202 -0.1855 -0.1650
31784SOL    HW1 7076  10.256   2.416   3.290 -0.6505 -0.3284 -0.6543
31784SOL    HW2 7077  10.355   2.320   3.225  0.4161 -0.0193  0.4729
31785SOL     OW 7078   2.297   4.846   7.348  0.6880 -0.3056  0.1923
31785SOL    HW1 7079   2.237   4.793   7.400  0.7683  0.5312  1.1700
31785SOL    HW2 7080   2.281   4.819   7.257 -0.4304 -0.8086  0.5260
31786SOL     OW 7081   4.217  11.669  10.347  0.2760 -0.2100 -0.1027
31786SOL    HW1 7082   4.207  11.574  10.359  1.2426 -0.2068  0.9135
31786SOL    HW2 7083   4.232  11.702  10.436  1.8614  0.6385 -0.6598
31787SOL     OW 7084   0.775   3.331   7.094 -0.3973  0.0448 -0.0865
31787SOL    HW1 7085   0.741   3.273   7.162 -0.0433 -1.4272 -1.0988
31787SOL    HW2 7086   0.777   3.418   7.134 -1.1078 -0.6107  1.4371
31788SOL     OW 7087   0.836   2.121   6.322  0.2662 -0.4462  0.3053
31788SOL    HW1 7088   0.916   2.135   6.273  0.5092 -1.7945  0.2752
31788SOL    HW2 7089   0.865   2.090   6.408 -0.2103 -1.5130  0.1019
31789SOL     OW 7090   0.858   5.067   2.301  0.4795 -0.0955 -0.2534
31789SOL    HW1 7091   0.804   4.990   2.317 -0.6663  0.5492 -0.8429
31789SOL    HW2 7092   0.821   5.135   2.358  0.3879  0.4760 -0.9779
31790SOL     OW 7093   6.887   7.182   6.035  0.1067 -0.6472 -0.5892
31790SOL    HW1 7094   6.799   7.188   6.072  0.6673 -0.2195  0.7512
31790SOL    HW2 7095   6.926   7.268   6.051  0.7860 -0.8459 -1.1162
31791SOL     OW 7096   8.656  11.801   3.277 -0.0077 -0.1538 -0.2305
31791SOL    HW1 7097   8.621  11.802   3.366 -0.5000 -0.5857 -0.4208
31791SOL    HW2 7098   8.706  11.720   3.271 -0.9197 -0.6864 -0.7120
31792SOL     OW 7099   0.246   9.613   3.531  0.0272  0.1022 -0.7503
31792SOL    HW1 7100   0.193   9.567   3.465 -1.0557 -2.0591  1.4910
31792SOL    HW2 7101   0.336   9.594   3.506 -0.3723 -2.2589 -0.6504
31793SOL     OW 7102   4.894   2.078   0.975 -0.4215  0.2058  0.3239
31793SOL    HW1 7103   4.983   2.099   1.003  0.3180 -1.8107 -0.3838
31793SOL    HW2 7104   4.902   2.051   0.884 -1.7342 -0.2554  0.3185
31794SOL     OW 7105   6.152   5.784   8.926 -0.0144  0.5259 -1.0121
31794SOL    HW1 7106   6.101   5.720   8.976 -1.5508  0.3173 -2.7168
31794SOL    HW2 7107   6.229   5.802   8.980 -0.0078 -2.0337 -0.0404
31795SOL     OW 7108   8.016   2.387   4.445 -0.5210 -0.3316  0.2152
31795SOL    HW1 7109   8.036   2.374   4.537 -0.9165 -0.0772  0.3399
31795SOL    HW2 7110   8.047   2.308   4.402  0.2655 -0.1715  0.4766
31796SOL     OW 7111  11.493   2.226   1.230 -0.0350 -0.7027  0.2097
31796SOL    HW1 7112  11.543   2.150   1.201  3.2352  2.4008 -3.2570
31796SOL    HW2 7113  11.419   2.231   1.169  0.6139 -0.3030 -0.5576
31797SOL     OW 7114   8.153   8.890  11.276  0.2056  0.1070  0.8966
31797SOL    HW1 7115   8.127   8.862  11.188 -3.1519  1.2765  1.3683
31797SOL    HW2 7116   8.149   8.810  11.328 -0.4034 -0.1356  0.4872
31798SOL     OW 7117   3.896   1.334   2.152 -0.0237  0.4807  0.5166
31798SOL    HW1 7118   3.937   1.420   2.142  0.3748  0.1420 -1.0681
31798SOL    HW2 7119   3.960   1.283   2.203 -0.6993  1.3666  2.3469
31799SOL     OW 7120   5.628   0.239   2.701 -0.2833 -0.4555  0.3616
31799SOL    HW1 7121   5.665   0.182   2.768 -0.1523 -0.2317  0.4798
31799SOL    HW2 7122   5.555   0.283   2.745  1.0351  1.1958  0.9605
31800SOL     OW 7123   3.581   0.661  11.135 -0.1408 -0.0774 -0.2717
31800SOL    HW1 7124   3.604   0.632  11.047  0.9725  1.9572 -0.7142
31800SOL    HW2 7125   3.487   0.679  11.130  0.4453  3.4383 -2.2341
31801SOL     OW 7126  11.448   6.012  11.272 -0.1782 -0.0805 -0.1393
31801SOL    HW1 7127  11.398   6.089  11.245 -0.3679 -0.1759 -0.0600
31801SOL    HW2 7128  11.397   5.974  11.344  0.7065  0.6042  0.8827
31802SOL     OW 7129   2.394   7.556   6.118 -0.0888 -0.0779 -0.1270
31802SOL    HW1 7130   2.301   7.578   6.118 -0.1550 -0.3390  0.1639
31802SOL    HW2 7131   2.433   7.613   6.052 -0.6168 -0.6525 -0.9452
31803SOL     OW 7132   7.689   5.673   6.986  0.3779  0.0940  0.7828
31803SOL    HW1 7133   7.691   5.695   6.893 -0.4391  1.0790  0.9840
31803SOL    HW2 7134   7.781   5.674   7.014  0.7237 -1.1427 -0.2010
31804SOL     OW 7135  10.497  11.188   8.378 -0.1186 -0.3332  0.4562
31804SOL    HW1 7136  10.574  11.159   8.329 -1.4461  0.4603 -2.3281
31804SOL    HW2 7137  10.527  11.264   8.428  1.1231 -0.6569  0.2257
31805SOL     OW 7138  11.298   3.680   5.557  0.1688 -0.2861 -0.3324
31805SOL    HW1 7139  11.298   3.599   5.507  2.1820  0.0318 -0.9422
31805SOL    HW2 7140  11.327   3.654   5.645 -1.5935 -0.5632  0.2040
31806SOL     OW 7141   1.054   0.263   3.807 -0.4878 -0.1497  0.0084
31806SOL    HW1 7142   1.137   0.271   3.853 -0.4938  1.9707 -0.2738
31806SOL    HW2 7143   1.073   0.206   3.732  0.3676 -0.7529  0.6683
31807SOL     OW 7144  10.921   7.611   9.388  0.1190 -0.5099 -0.1223
31807SOL    HW1 7145  10.884   7.689   9.345 -0.5319 -1.4718 -1.3601
31807SOL    HW2 7146  10.962   7.562   9.318  0.5699 -1.2761  0.6590
31808SOL     OW 7147   9.950  10.775   7.299  0.6555  0.7793  0.0349
31808SOL    HW1 7148   9.873  10.816   7.341  1.4818  4.1429 -1.4186
31808SOL    HW2 7149   9.914  10.699   7.253 -1.0487 -0.1957  2.7045
31809SOL     OW 7150   2.608   0.668   8.499 -0.6573  0.3212 -0.1918
31809SOL    HW1 7151   2.625   0.657   8.405  3.5977  0.9554  0.3086
31809SOL    HW2 7152   2.632   0.584   8.537 -0.6270  0.6295  0.4751
31810SOL     OW 7153   0.882   5.564  10.025  0.4884 -0.4982  0.0878
31810SOL    HW1 7154   0.839   5.637  10.071 -0.4931 -1.7124  1.1794
31810SOL    HW2 7155   0.853   5.486  10.072  0.5837 -1.7093 -1.7595
31811SOL     OW 7156  10.780  10.846   6.302 -0.0887 -0.2733  0.0312
31811SOL    HW1 7157  10.728  10.911   6.255 -0.8655 -0.7096  0.2619
31811SOL    HW2 7158  10.756  10.857   6.394  1.1894  0.3664  0.3107
31812SOL     OW 7159   1.393   2.444   3.858  0.8398  0.7414 -0.0481
31812SOL    HW1 7160   1.358   2.369   3.905 -2.7822  2.5119  0.4147
31812SOL    HW2 7161   1.400   2.513   3.924  1.5283  1.5572 -0.9400
31813SOL     OW 7162   0.727   1.984   8.957 -0.2723  0.4332 -0.0295
31813SOL    HW1 7163   0.741   1.930   9.035  0.6914  1.6377  0.6683
31813SOL    HW2 7164   0.815   1.995   8.921 -0.5728  0.8377 -0.6381
31814SOL     OW 7165   0.388  11.620  10.141  0.4787 -0.4615  0.2983
31814SOL    HW1 7166   0.329  11.644  10.212 -0.8820 -0.8687 -0.6345
31814SOL    HW2 7167   0.402  11.702  10.093  2.4049  0.0867  1.6774
31815SOL     OW 7168   8.394  11.786   2.349  0.0117  0.1727  0.3553
31815SOL    HW1 7169   8.405  11.694   2.369 -2.1322 -0.1479  0.3664
31815SOL    HW2 7170   8.381  11.788   2.254 -0.7297  0.3270  0.4468
31816SOL     OW 7171  11.200   4.342   4.780  0.0099 -0.2371 -0.2751
31816SOL    HW1 7172  11.248   4.262   4.758 -0.9636 -0.8563 -0.1912
31816SOL    HW2 7173  11.218   4.356   4.873 -1.7872 -1.7885  0.3806
31817SOL     OW 7174   6.973   1.830   4.166  0.1215 -0.2328  0.2470
31817SOL    HW1 7175   7.068   1.827   4.170  0.0708 -1.1876  1.0485
31817SOL    HW2 7176   6.944   1.802   4.253 -0.9125 -2.0991 -0.6551
31818SOL     OW 7177   6.476  11.371  11.130 -0.3857 -0.2101  0.5692
31818SOL    HW1 7178   6.546  11.402  11.189  1.1106  2.2942 -2.2207
31818SOL    HW2 7179   6.519  11.305  11.076 -0.4606  0.5333 -0.4184
31819SOL     OW 7180   4.763   1.573   5.852 -0.5930 -0.3190  0.1126
31819SOL    HW1 7181   4.681   1.603   5.892 -1.5758  0.7634 -2.4971
31819SOL    HW2 7182   4.787   1.642   5.791  2.5091 -0.4535  0.9973
31820SOL     OW 7183   6.947   3.160   2.339 -0.6616 -0.0222  0.3458
31820SOL    HW1 7184   6.968   3.074   2.376 -0.8739 -0.2799 -0.1267
31820SOL    HW2 7185   7.031   3.206   2.335 -0.2335 -0.8923 -1.1471
31821SOL     OW 7186   9.377   8.263   4.891  0.1209 -0.0059  0.6659
31821SOL    HW1 7187   9.345   8.313   4.966 -2.4762 -2.4588  1.3576
31821SOL    HW2 7188   9.451   8.213   4.924 -1.5049 -1.7044  1.9664
31822SOL     OW 7189   0.463   5.169   3.731 -0.2119  0.0183 -0.6775
31822SOL    HW1 7190   0.549   5.199   3.758 -0.9013  0.1860  1.5569
31822SOL    HW2 7191   0.435   5.109   3.801 -1.5621 -0.6723 -1.7540
31823SOL     OW 7192   6.970   3.738   4.916  0.5162  0.3117  0.4954
31823SOL    HW1 7193   6.976   3.741   4.820 -2.0097  0.5498  0.2946
31823SOL    HW2 7194   6.937   3.651   4.936  0.3074  0.5280  1.1076
31824SOL     OW 7195   3.330   3.713   9.610 -0.1346  0.5055  0.2236
31824SOL    HW1 7196   3.365   3.686   9.525  0.1352  1.2566  0.0865
31824SOL    HW2 7197   3.265   3.646   9.632  0.1578  0.0324 -0.3332
31825SOL     OW 7198   5.321   4.599   5.801  0.5900 -0.7334 -0.2622
31825SOL    HW1 7199   5.391   4.628   5.742  0.4429  0.6139  0.2011
31825SOL    HW2 7200   5.270   4.537   5.748  0.9504 -0.1992 -1.2673
31826SOL     OW 7201   9.886   7.234   8.052  0.1090 -0.3223  0.4245
31826SOL    HW1 7202   9.800   7.241   8.010 -1.0353  0.8859  2.7293
31826SOL    HW2 7203   9.884   7.150   8.098 -0.0331 -0.1045  0.8237
31827SOL     OW 7204   3.812  11.387   4.561  0.1459  0.1786 -0.4375
31827SOL    HW1 7205   3.824  11.419   4.471 -0.7667  0.6411 -0.3996
31827SOL    HW2 7206   3.810  11.292   4.553  1.9965  0.1188 -0.6620
31828SOL     OW 7207   3.255   6.454   0.097 -0.2372  0.5058 -0.1589
31828SOL    HW1 7208   3.270   6.518   0.167  0.1152  0.9912 -0.6759
31828SOL    HW2 7209   3.180   6.489   0.049  0.7261  1.1974 -1.2018
31829SOL     OW 7210   6.554   3.673  10.576 -0.2386 -0.6343  0.0245
31829SOL    HW1 7211   6.588   3.710  10.495 -1.6255  0.4524 -0.0960
31829SOL    HW2 7212   6.632   3.637  10.620  0.8494  0.5539 -0.8412
31830SOL     OW 7213   1.011   2.378   1.938 -0.0179 -0.3802 -0.1192
31830SOL    HW1 7214   0.931   2.398   1.985  0.8111  0.6260  0.9292
31830SOL    HW2 7215   1.074   2.443   1.968  1.1419 -1.0036 -1.0737
31831SOL     OW 7216   0.915   1.486  11.014 -0.1645 -0.3573 -0.0838
31831SOL    HW1 7217   0.832   1.533  11.004 -0.9486 -1.6142  0.2052
31831SOL    HW2 7218   0.921   1.468  11.108  1.0430  0.7517  0.0699
31832SOL     OW 7219   3.591  10.693  10.467 -0.6283 -0.1095  0.6189
31832SOL    HW1 7220   3.526  10.639  10.422  0.1636 -1.2593  0.8144
31832SOL    HW2 7221   3.675  10.651  10.447  0.4918  3.0645 -2.2271
31833SOL     OW 7222   1.599   6.878   1.299 -0.1006  0.4816  0.1842
31833SOL    HW1 7223   1.576   6.957   1.348  0.6095  0.3163  0.7956
31833SOL    HW2 7224   1.617   6.909   1.210 -0.1993  0.9509  0.3256
31834SOL     OW 7225   0.149   5.915   5.005 -0.4631 -0.0881  0.2677
31834SOL    HW1 7226   0.133   5.981   4.937 -0.6319 -1.5780 -1.1944
31834SOL    HW2 7227   0.244   5.907   5.009 -0.3058  1.8139  2.0821
31835SOL     OW 7228  11.851   3.835   4.416  0.2817 -0.1282  0.0533
31835SOL    HW1 7229  11.788   3.891   4.371  0.8290 -0.1151 -0.7068
31835SOL    HW2 7230  11.806   3.750   4.423 -0.0108  0.0180 -0.0433
31836SOL     OW 7231   1.085  11.210   6.904  0.0421  0.0365  0.4115
31836SOL    HW1 7232   1.171  11.250   6.914  0.7271 -1.6887  1.9341
31836SOL    HW2 7233   1.102  11.116   6.902 -1.5978 -0.2934 -2.0104
31837SOL     OW 7234   7.916   5.146   4.224 -0.5379  0.1908  0.0449
31837SOL    HW1 7235   7.841   5.089   4.242  0.9651 -1.6628  0.8933
31837SOL    HW2 7236   7.925   5.144   4.129 -0.9889 -0.3740  0.0038
31838SOL     OW 7237   3.647   3.018   6.599 -0.4720 -0.4332  0.0786
31838SOL    HW1 7238   3.642   2.929   6.564 -0.8046 -0.2380 -0.3743
31838SOL    HW2 7239   3.698   3.067   6.534  0.2459 -0.4373  0.6303
31839SOL     OW 7240   3.685   5.477   8.687 -0.4637  0.0906  0.1562
31839SOL    HW1 7241   3.604   5.527   8.692 -1.6440 -1.8186  1.6337
31839SOL    HW2 7242   3.662   5.399   8.637  1.2337  0.7398 -1.7866
31840SOL     OW 7243   1.955   7.463   9.721  0.0511  0.0427 -0.4280
31840SOL    HW1 7244   1.942   7.423   9.807 -1.9503 -2.1714 -1.6609
31840SOL    HW2 7245   2.039   7.427   9.690 -0.5376 -1.3427 -0.4844
31841SOL     OW 7246  11.350   3.072   5.580 -0.4333 -0.1318 -0.0925
31841SOL    HW1 7247  11.256   3.093   5.576 -0.0765  2.6462  2.2777
31841SOL    HW2 7248  11.356   3.006   5.650 -0.5985 -0.2234 -0.1625
31842SOL     OW 7249  10.311   8.308   7.614 -0.0704  0.1353  0.0537
31842SOL    HW1 7250  10.328   8.247   7.542  0.4307  1.5867 -1.1047
31842SOL    HW2 7251  10.394   8.354   7.627 -0.7359  1.3643  0.1025
31843SOL     OW 7252   0.473   3.270   2.111 -0.0019  0.1026 -0.8285
31843SOL    HW1 7253   0.470   3.176   2.128  2.1463 -0.2649 -2.1615
31843SOL    HW2 7254   0.386   3.290   2.075  0.0028 -1.7131 -2.0023
31844SOL     OW 7255  11.651   2.227   9.612  0.0055  0.1207 -0.5965
31844SOL    HW1 7256  11.678   2.136   9.603  0.4890  0.2267 -0.2617
31844SOL    HW2 7257  11.656   2.262   9.522 -0.6500 -0.3021 -0.8018
31845SOL     OW 7258   9.617   4.289   3.623 -0.1071 -0.0256  0.6525
31845SOL    HW1 7259   9.617   4.382   3.599 -2.1275 -0.4275 -1.2219
31845SOL    HW2 7260   9.702   4.257   3.594 -0.7592  0.5196 -2.1539
31846SOL     OW 7261   6.617   2.625   0.003 -0.4610  0.5262  0.1395
31846SOL    HW1 7262   6.641   2.545  -0.043  0.3729  0.5831  0.4531
31846SOL    HW2 7263   6.687   2.686  -0.018 -1.1474  1.2209 -0.1887
31847SOL     OW 7264   0.313   1.638   1.661 -0.6397  0.4641  0.0097
31847SOL    HW1 7265   0.251   1.575   1.699  0.7627 -2.3982 -2.0350
31847SOL    HW2 7266   0.395   1.620   1.707 -0.2972  1.0611 -0.3687
31848SOL     OW 7267   3.159  11.398   5.073 -0.0205 -0.5787 -0.2643
31848SOL    HW1 7268   3.239  11.376   5.025  0.1120 -1.6364  0.4053
31848SOL    HW2 7269   3.188  11.454   5.145  0.3530 -2.0126  0.7558
31849SOL     OW 7270   6.376   8.737  10.048  0.1467 -0.0146 -0.7006
31849SOL    HW1 7271   6.333   8.795   9.985  0.0458 -1.0521 -1.6205
31849SOL    HW2 7272   6.442   8.691   9.997  0.2744 -0.6581  0.0232
31850SOL     OW 7273   9.121   2.250   3.223 -0.2720  0.2156 -0.3420
31850SOL    HW1 7274   9.072   2.332   3.231 -2.4667 -1.1369  1.2674
31850SOL    HW2 7275   9.069   2.197   3.161  0.1897 -0.5664 -0.0744
31851SOL     OW 7276  11.303   3.972  10.268  0.0424  0.3342  0.5328
31851SOL    HW1 7277  11.296   3.987  10.362  0.3633 -1.9638  0.9828
31851SOL    HW2 7278  11.232   3.912  10.248  0.9107 -0.4175 -0.3850
31852SOL     OW 7279   1.517   2.070   8.193  0.4807  0.2046  0.3908
31852SOL    HW1 7280   1.452   1.999   8.199  1.2675 -0.5389  0.3310
31852SOL    HW2 7281   1.564   2.066   8.277  1.2612 -0.0761 -0.0486
31853SOL     OW 7282   8.190   8.838   8.337  0.0602 -0.0181  0.2393
31853SOL    HW1 7283   8.255   8.903   8.311  0.6295 -0.0492  1.5435
31853SOL    HW2 7284   8.120   8.889   8.378 -0.1300 -0.1113  0.0363
31854SOL     OW 7285   7.111   3.777   1.247  0.3570  0.1034 -0.2362
31854SOL    HW1 7286   7.072   3.692   1.230 -2.1038  0.9173  0.9458
31854SOL    HW2 7287   7.119   3.817   1.160 -1.2443 -0.2187 -0.5612
31855SOL     OW 7288   3.568   9.512   9.898 -0.1757  0.1673 -0.2798
31855SOL    HW1 7289   3.473   9.510   9.885 -0.2253 -0.7103  0.1441
31855SOL    HW2 7290   3.582   9.586   9.957 -0.5608  0.5200 -0.6252
31856SOL     OW 7291   5.495   6.219   8.238 -0.2675 -0.3052  0.5669
31856SOL    HW1 7292   5.428   6.287   8.229 -1.4157 -1.5120 -0.3311
31856SOL    HW2 7293   5.455   6.153   8.295 -0.0767 -1.2906 -0.4090
31857SOL     OW 7294   9.545   1.115   1.185 -0.3044  0.0898 -0.2418
31857SOL    HW1 7295   9.635   1.135   1.161  0.2208 -0.6877  0.9825
31857SOL    HW2 7296   9.538   1.139   1.278 -0.8745 -1.3129  0.1074
31858SOL     OW 7297   7.924   7.800   7.534 -0.1488  0.0653  0.2558
31858SOL    HW1 7298   7.972   7.769   7.610  1.7796  1.4682 -0.3142
31858SOL    HW2 7299   7.940   7.735   7.466  0.0452 -0.0231  0.3867
31859SOL     OW 7300   3.371   6.161   4.492 -0.1312  0.1492  0.0611
31859SOL    HW1 7301   3.387   6.068   4.476 -1.4748  0.0208 -0.6704
31859SOL    HW2 7302   3.396   6.174   4.583 -0.0757 -0.9606  0.2198
31860SOL     OW 7303  11.141   1.904   8.337 -0.2738  0.4176  0.6577
31860SOL    HW1 7304  11.234   1.901   8.362 -0.5812 -2.4722  1.8782
31860SOL    HW2 7305  11.134   1.982   8.281  2.6783  1.2359  1.2198
31861SOL     OW 7306   5.792   5.140   7.858  0.1693 -0.1620  0.1256
31861SOL    HW1 7307   5.746   5.103   7.783 -0.2376 -0.3353  0.4547
31861SOL    HW2 7308   5.879   5.163   7.825 -0.0911 -0.0106 -0.4527
31862SOL     OW 7309   4.134   0.195   3.804 -0.7788 -0.4309 -0.4298
31862SOL    HW1 7310   4.200   0.152   3.750 -0.3732  0.5130 -0.7068
31862SOL    HW2 7311   4.059   0.135   3.803 -0.7428 -0.4943 -1.9456
31863SOL     OW 7312  10.148   4.555   3.639 -0.5335  0.0932 -0.3831
31863SOL    HW1 7313  10.180   4.466   3.655 -0.2706  0.3104  0.3292
31863SOL    HW2 7314  10.055   4.551   3.658 -0.5109 -0.0151 -0.2937
31864SOL     OW 7315   8.091   1.459   5.788 -0.3432 -0.7551 -0.3489
31864SOL    HW1 7316   8.172   1.420   5.821 -1.6213  0.5446  5.4487
31864SOL    HW2 7317   8.057   1.394   5.727  4.1259 -2.0730 -1.8668
31865SOL     OW 7318   5.154   2.129   4.083 -0.5767 -0.0240 -0.0571
31865SOL    HW1 7319   5.100   2.159   4.010  0.0450  0.9268 -0.1575
31865SOL    HW2 7320   5.129   2.186   4.156 -0.0432  0.1168  0.0196
31866SOL     OW 7321  11.686  10.072   9.286 -0.4114 -0.1058 -0.0310
31866SOL    HW1 7322  11.645  10.085   9.372 -0.5480 -0.4394 -0.0455
31866SOL    HW2 7323  11.633  10.004   9.244  0.0726 -0.4321 -0.1115
31867SOL     OW 7324   7.749   0.638   8.193  0.1413 -0.0732  0.0928
31867SOL    HW1 7325   7.817   0.571   8.195  0.3227  0.1300  1.3010
31867SOL    HW2 7326   7.690   0.610   8.123  1.3412 -0.3692 -0.8409
31868SOL     OW 7327   2.742   9.752   3.846  0.1948 -0.3168 -0.3103
31868SOL    HW1 7328   2.735   9.752   3.942  0.7473  0.2022 -0.2675
31868SOL    HW2 7329   2.741   9.845   3.822 -0.2561 -0.4538 -0.8344
31869SOL     OW 7330   5.670  11.264   2.782  0.1125  0.6039 -0.4109
31869SOL    HW1 7331   5.722  11.238   2.857  2.1489  0.8554 -1.6542
31869SOL    HW2 7332   5.611  11.190   2.766  1.4034 -0.5168 -0.0876
31870SOL     OW 7333   9.469   5.289  10.902  0.0905 -0.3026 -0.4698
31870SOL    HW1 7334   9.381   5.310  10.934 -0.1434 -0.6923 -0.8409
31870SOL    HW2 7335   9.454   5.252  10.814  0.6775  0.2334 -0.7989
31871SOL     OW 7336   2.548   2.497  11.419  0.6054  0.2486  0.2558
31871SOL    HW1 7337   2.593   2.522  11.500  0.3982 -1.6089  0.9793
31871SOL    HW2 7338   2.604   2.429  11.381  1.2021  1.7352 -1.6981
31872SOL     OW 7339   7.270  10.288   0.320  0.7629 -0.1657 -0.1944
31872SOL    HW1 7340   7.253  10.357   0.256  1.0973 -0.4142 -0.5539
31872SOL    HW2 7341   7.331  10.228   0.276  1.3583 -0.0984  0.5179
31873SOL     OW 7342   0.863   8.962   8.536 -0.1037 -0.5249  0.5186
31873SOL    HW1 7343   0.949   8.938   8.502 -0.2113 -1.3533  0.8208
31873SOL    HW2 7344   0.849   8.905   8.612 -0.2680  0.6557  1.4102
31874SOL     OW 7345  11.239  10.403  10.882 -0.0157  0.5375 -0.3203
31874SOL    HW1 7346  11.162  10.411  10.938 -0.5765  0.5069 -1.0640
31874SOL    HW2 7347  11.258  10.309  10.879  1.5477  0.7132  1.7974
31875SOL     OW 7348   4.217   7.030   6.454  0.0225 -0.6921  0.1669
31875SOL    HW1 7349   4.312   7.038   6.445 -0.1342 -0.1453 -1.3740
31875SOL    HW2 7350   4.188   7.117   6.481 -0.0386 -0.8520  0.6126
31876SOL     OW 7351   6.834   2.929   0.340 -0.5630 -0.2693 -0.0285
31876SOL    HW1 7352   6.898   2.869   0.303  0.8511 -0.0996  1.9555
31876SOL    HW2 7353   6.756   2.876   0.355 -0.0941 -1.0600 -0.3555
31877SOL     OW 7354   0.989   0.425   8.247 -0.0185  0.1456 -0.3532
31877SOL    HW1 7355   1.057   0.420   8.313 -0.2470 -1.0680 -0.1854
31877SOL    HW2 7356   0.910   0.394   8.291 -0.5214  0.8035 -0.7602
31878SOL     OW 7357  10.818   0.629  11.853 -0.1463  0.2471 -0.2415
31878SOL    HW1 7358  10.872   0.706  11.871  0.3413 -0.3548  1.0289
31878SOL    HW2 7359  10.730   0.664  11.839 -0.6076  0.9079  3.3414
31879SOL     OW 7360   9.078   4.462   1.230 -0.5286 -0.1177 -0.1026
31879SOL    HW1 7361   9.070   4.406   1.153  0.8190 -0.2543 -0.1689
31879SOL    HW2 7362   9.007   4.525   1.222 -1.0479 -0.7891 -0.8956
31880SOL     OW 7363   1.447   0.662   4.269 -0.2213  0.4604 -0.4214
31880SOL    HW1 7364   1.530   0.674   4.221 -0.7424  2.1965 -0.9708
31880SOL    HW2 7365   1.379   0.680   4.204 -1.1452 -2.2931 -0.3513
31881SOL     OW 7366  10.749   3.487   3.619  0.4170 -1.0159  0.1473
31881SOL    HW1 7367  10.760   3.497   3.714  2.0841  0.0419 -0.1169
31881SOL    HW2 7368  10.801   3.409   3.597  1.5880 -0.1895 -0.1187
31882SOL     OW 7369  10.944   5.274  11.329  0.6409  0.3315 -0.4397
31882SOL    HW1 7370  10.989   5.189  11.323 -0.1829 -0.1307 -0.2220
31882SOL    HW2 7371  10.899   5.272  11.413 -2.2320 -0.5010 -1.8513
31883SOL     OW 7372   2.995   2.611  10.696 -0.4444  0.2738  0.1348
31883SOL    HW1 7373   2.998   2.521  10.663  0.7684  0.5568 -0.6248
31883SOL    HW2 7374   3.079   2.649  10.668 -0.6407  1.4332  1.0388
31884SOL     OW 7375   5.609  10.305   5.034  0.1256 -0.5532  0.2414
31884SOL    HW1 7376   5.622  10.397   5.012  2.1028 -0.4485  1.5603
31884SOL    HW2 7377   5.653  10.257   4.964 -2.7155 -0.6634 -1.6209
31885SOL     OW 7378  11.466   0.839  11.746  0.0442 -0.0647  0.1379
31885SOL    HW1 7379  11.555   0.856  11.777  0.2382  0.3628 -0.6403
31885SOL    HW2 7380  11.472   0.758  11.697  0.3796  0.8564 -1.4063
31886SOL     OW 7381  10.883   3.572  10.218  0.5560 -0.2876  0.3382
31886SOL    HW1 7382  10.887   3.548  10.311 -0.1844  0.9156  0.7079
31886SOL    HW2 7383  10.874   3.667  10.219 -2.7607 -0.4354 -0.8237
31887SOL     OW 7384   4.597   8.078   4.272 -0.1150  0.1034  0.2561
31887SOL    HW1 7385   4.621   8.055   4.361  1.1232 -1.4751 -0.4504
31887SOL    HW2 7386   4.550   8.001   4.238  0.5135  0.1771 -0.8424
31888SOL     OW 7387   9.147   0.030  11.341  0.0980 -0.5621  0.1093
31888SOL    HW1 7388   9.053   0.049  11.346  0.0082 -0.2631 -1.9528
31888SOL    HW2 7389   9.188   0.104  11.385 -0.5593  0.8895 -1.5822
31889SOL     OW 7390   4.346   4.828   4.815 -0.8293  0.8613 -0.1421
31889SOL    HW1 7391   4.257   4.812   4.846 -0.0637  1.5899  2.7028
31889SOL    HW2 7392   4.395   4.853   4.894  2.1224 -0.3563 -1.4563
31890SOL     OW 7393   6.403   2.872   2.529  0.1433  0.0673 -0.1009
31890SOL    HW1 7394   6.335   2.930   2.493 -0.1966  0.3141  0.8972
31890SOL    HW2 7395   6.436   2.920   2.605 -0.3416 -1.1784  0.9137
31891SOL     OW 7396   7.593   2.036   6.321  0.3253 -0.2523 -0.7353
31891SOL    HW1 7397   7.523   2.063   6.262 -0.1362 -0.9834 -0.5415
31891SOL    HW2 7398   7.609   2.113   6.376 -1.1621 -0.4341  0.0047
31892SOL     OW 7399   7.295  10.848   6.363  0.2613  0.2268 -0.5524
31892SOL    HW1 7400   7.234  10.894   6.421  0.7609  0.4354 -0.1908
31892SOL    HW2 7401   7.343  10.789   6.421  1.5502  1.2403 -0.5573
31893SOL     OW 7402   5.051   9.636   0.910 -0.0056 -0.5822 -0.8201
31893SOL    HW1 7403   5.064   9.601   0.998  0.4507  1.4970 -0.0026
31893SOL    HW2 7404   4.992   9.573   0.868 -0.9912 -1.1605  1.2689
31894SOL     OW 7405   9.613   6.603  10.845  0.0219 -0.7636 -0.3437
31894SOL    HW1 7406   9.578   6.614  10.757 -1.8921  1.8169  0.6222
31894SOL    HW2 7407   9.675   6.675  10.856 -2.0809  0.9170  1.3720
31895SOL     OW 7408   8.788   5.867   6.157 -0.5596  0.4171  0.1031
31895SOL    HW1 7409   8.845   5.933   6.117 -1.1709  0.6384 -0.4272
31895SOL    HW2 7410   8.738   5.916   6.223 -0.3743  0.2950  0.3335
31896SOL     OW 7411   8.069   1.809   8.365 -0.0419 -0.1363  0.2420
31896SOL    HW1 7412   8.036   1.725   8.398 -1.6554  0.5910  0.5316
31896SOL    HW2 7413   8.068   1.799   8.270 -1.7328  0.0759  0.2129
31897SOL     OW 7414   5.950   2.168   8.739 -0.2852 -0.0441 -0.0767
31897SOL    HW1 7415   5.967   2.182   8.832 -0.4517  1.8265 -0.3022
31897SOL    HW2 7416   6.036   2.167   8.698  0.0424 -3.6760  0.3577
31898SOL     OW 7417  11.696  11.515   8.077  0.2740 -0.0209 -0.3850
31898SOL    HW1 7418  11.755  11.547   8.009 -0.5810  1.2557 -0.5657
31898SOL    HW2 7419  11.707  11.420   8.076  0.5239 -0.0045 -2.0746
31899SOL     OW 7420   9.356   6.719  10.008  0.0451  0.2392 -0.0236
31899SOL    HW1 7421   9.447   6.730  10.035  0.0876 -0.7489  0.2584
31899SOL    HW2 7422   9.332   6.631  10.037 -1.3910  0.9297  1.0144
31900SOL     OW 7423   4.824   2.903   3.280 -0.1991 -0.2263  0.3661
31900SOL    HW1 7424   4.799   2.919   3.189  0.0482  0.9593  0.4908
31900SOL    HW2 7425   4.747   2.860   3.318 -1.1770  1.2123  0.1364
31901SOL     OW 7426   6.865   9.950   8.375  0.7319 -0.8533  0.0232
31901SOL    HW1 7427   6.835   9.903   8.298  1.5579 -1.5584  0.1217
31901SOL    HW2 7428   6.784   9.977   8.419  0.2506 -1.4641 -0.4650
31902SOL     OW 7429   1.133   8.017   7.393 -0.1873 -0.1686 -0.0363
31902SOL    HW1 7430   1.072   7.966   7.340 -1.1749 -0.6105  1.4746
31902SOL    HW2 7431   1.200   8.046   7.331 -3.0085  2.2187 -2.2624
31903SOL     OW 7432   3.320   8.125   9.871 -0.2461 -0.3473 -0.1698
31903SOL    HW1 7433   3.363   8.114   9.786 -0.7687  1.5426 -0.7209
31903SOL    HW2 7434   3.288   8.215   9.870  0.4255 -0.0107  2.3653
31904SOL     OW 7435   7.503   3.538   6.018  0.3797 -0.4311 -0.1288
31904SOL    HW1 7436   7.535   3.620   5.983  0.5568 -0.8101 -0.8706
31904SOL    HW2 7437   7.439   3.507   5.954 -1.0558  0.0111  1.0251
31905SOL     OW 7438   9.133   7.678   7.193  0.1243  0.2997 -0.1475
31905SOL    HW1 7439   9.075   7.692   7.118 -0.4969 -0.7964  0.0987
31905SOL    HW2 7440   9.100   7.737   7.260 -0.9815 -0.5758  0.1147
31906SOL     OW 7441  10.577   9.923   9.424  0.1509 -0.1351 -0.3144
31906SOL    HW1 7442  10.546   9.973   9.348  0.3983  0.8938  0.2405
31906SOL    HW2 7443  10.540   9.969   9.500  2.4709  0.7839  0.3384
31907SOL     OW 7444  11.695  11.959   7.548  0.0440 -0.4359 -0.0977
31907SOL    HW1 7445  11.602  11.938   7.538 -0.1502  0.6756 -0.7678
31907SOL    HW2 7446  11.699  12.011   7.628  0.1316 -0.7322  0.0905
31908SOL     OW 7447   3.793  11.867   7.412 -0.1912 -0.2411  0.0715
31908SOL    HW1 7448   3.797  11.788   7.358  1.8338 -0.9334  1.1397
31908SOL    HW2 7449   3.723  11.848   7.475 -0.4840 -0.7051 -0.3812
31909SOL     OW 7450   2.258   0.666   9.986 -0.3861 -0.1971 -0.1007
31909SOL    HW1 7451   2.241   0.685   9.894 -0.8270 -1.9731 -0.4177
31909SOL    HW2 7452   2.179   0.697  10.032 -0.4547  0.0713 -0.3982
31910SOL     OW 7453   4.296   4.915   6.593  0.9007 -0.0830  0.2391
31910SOL    HW1 7454   4.379   4.910   6.641  1.0916  0.5416 -0.0045
31910SOL    HW2 7455   4.229   4.889   6.657  1.0860  1.2871  1.0341
31911SOL     OW 7456   1.342   3.455   8.969  0.4114  0.3834  0.5699
31911SOL    HW1 7457   1.263   3.467   9.022  1.0411 -1.0748  1.9067
31911SOL    HW2 7458   1.387   3.539   8.975 -0.6615  0.9928  0.3956
31912SOL     OW 7459   7.051   4.593   8.489  0.0336 -0.3461  0.0552
31912SOL    HW1 7460   6.979   4.638   8.446 -0.1544 -1.6870 -1.1130
31912SOL    HW2 7461   7.112   4.571   8.419 -0.0989 -2.2788  0.4696
31913SOL     OW 7462   7.242   9.671   9.902  0.4392 -0.8246 -0.6362
31913SOL    HW1 7463   7.334   9.691   9.885 -0.5952  2.9474 -3.1318
31913SOL    HW2 7464   7.235   9.666   9.997  2.9958 -0.0654 -0.3422
31914SOL     OW 7465   5.156  11.694   5.088  0.4726  0.4825 -0.0503
31914SOL    HW1 7466   5.120  11.765   5.143  0.3085 -0.5197  1.1725
31914SOL    HW2 7467   5.233  11.733   5.047 -1.1828  2.2897 -1.7162
31915SOL     OW 7468   2.185   1.705   1.521  0.5362  0.4035  0.0641
31915SOL    HW1 7469   2.154   1.785   1.563  0.0587  0.6067 -0.6652
31915SOL    HW2 7470   2.124   1.637   1.550  0.5255  0.4383  0.1220
31916SOL     OW 7471   4.115   5.406   7.335 -0.0070 -0.1627 -0.3967
31916SOL    HW1 7472   4.052   5.469   7.369 -2.5582 -2.2761 -0.8925
31916SOL    HW2 7473   4.073   5.321   7.347  2.5547 -1.6615 -1.2737
31917SOL     OW 7474   5.389   5.197   0.417  0.0316 -0.6600 -0.8018
31917SOL    HW1 7475   5.348   5.111   0.408 -0.9528 -0.2649 -0.1687
31917SOL    HW2 7476   5.362   5.244   0.338  0.0693 -0.7232 -0.8529
31918SOL     OW 7477   0.209   1.853   7.825  0.2032 -0.1506  0.0998
31918SOL    HW1 7478   0.170   1.794   7.761 -1.7574  0.6033  0.5197
31918SOL    HW2 7479   0.291   1.881   7.785 -0.4178 -0.6023 -1.5738
31919SOL     OW 7480   2.109  10.687   3.947 -0.1318 -0.3508  0.4332
31919SOL    HW1 7481   2.097  10.738   3.867 -1.8879 -1.5487 -0.1135
31919SOL    HW2 7482   2.023  10.689   3.990 -0.4663 -3.3631  0.0566
31920SOL     OW 7483   9.903   3.775  11.713 -0.4279  0.1638  0.5450
31920SOL    HW1 7484   9.927   3.852  11.660  0.5706 -0.5300 -0.0462
31920SOL    HW2 7485   9.852   3.720  11.654 -0.6499  0.1074  0.7891
31921SOL     OW 7486   3.489   4.423   8.054 -0.4533  0.3581 -0.2805
31921SOL    HW1 7487   3.426   4.358   8.023  1.0102 -0.2228 -2.2869
31921SOL    HW2 7488   3.463   4.442   8.144 -1.7540 -1.9684 -0.1056
31922SOL     OW 7489   3.421   4.352   6.676 -0.3529 -0.3871  0.0348
31922SOL    HW1 7490   3.343   4.406   6.694 -1.0572 -0.1147 -3.3011
31922SOL    HW2 7491   3.394   4.263   6.699 -0.6169  0.0520  1.5743
31923SOL     OW 7492   6.316   3.910   1.319 -0.8961  0.1340  0.0188
31923SOL    HW1 7493   6.295   3.835   1.373  0.9259 -1.2215 -1.0448
31923SOL    HW2 7494   6.303   3.880   1.229 -1.9268  1.7029 -0.4140
31924SOL     OW 7495   8.224   2.765   3.469  0.6071 -0.0621 -0.3565
31924SOL    HW1 7496   8.285   2.747   3.398 -1.5610  0.1871 -2.4147
31924SOL    HW2 7497   8.235   2.693   3.531  1.2641 -1.3039 -1.8782
31925SOL     OW 7498  10.553   1.891  11.259 -0.3317 -0.2470 -0.4042
31925SOL    HW1 7499  10.554   1.884  11.354 -0.1314  1.1973 -0.2781
31925SOL    HW2 7500  10.610   1.966  11.240 -1.5423  0.4185 -1.5668
31926SOL     OW 7501  10.612  11.096   4.765  0.0553 -0.1779  0.3146
31926SOL    HW1 7502  10.674  11.166   4.749  0.6070 -0.5851  0.6231
31926SOL    HW2 7503  10.571  11.080   4.680 -0.7677  1.1478  0.4419
31927SOL     OW 7504   9.400   3.239   4.278 -0.1416 -0.5511 -0.5684
31927SOL    HW1 7505   9.458   3.167   4.252 -0.5358 -1.0083 -0.1862
31927SOL    HW2 7506   9.424   3.311   4.218 -0.0596 -1.1378 -1.2582
31928SOL     OW 7507   2.378   6.456   3.601  0.0015  0.0067 -0.4657
31928SOL    HW1 7508   2.408   6.371   3.636  0.5968  1.6350  3.4436
31928SOL    HW2 7509   2.285   6.459   3.621 -0.3868 -0.3263 -2.1021
31929SOL     OW 7510   8.996   6.823   6.395 -0.4670  0.6069  0.3717
31929SOL    HW1 7511   8.928   6.833   6.462 -0.7519 -0.3909  0.2455
31929SOL    HW2 7512   8.952   6.778   6.323  0.2528  0.2046  0.1712
31930SOL     OW 7513   3.081   6.203   0.083  0.0580 -0.4911 -0.1731
31930SOL    HW1 7514   3.108   6.201  -0.009 -1.5914  1.5069 -0.7673
31930SOL    HW2 7515   3.143   6.264   0.125  0.8315 -1.4286  0.0957
31931SOL     OW 7516   2.637   8.522   0.377  0.0145 -0.0092 -0.1376
31931SOL    HW1 7517   2.590   8.495   0.298  1.9992 -0.2249 -1.3076
31931SOL    HW2 7518   2.610   8.459   0.444 -0.2973 -0.9713 -1.1424
31932SOL     OW 7519   4.444   2.897   9.031 -0.2361 -0.4881  0.0725
31932SOL    HW1 7520   4.485   2.859   9.109  0.2145  0.3608  0.2539
31932SOL    HW2 7521   4.505   2.963   9.001 -1.9239  1.6353  1.0000
31933SOL     OW 7522   5.285   3.276   4.337  0.4858  0.5730 -0.0343
31933SOL    HW1 7523   5.373   3.313   4.342 -0.5555  3.7593 -1.9660
31933SOL    HW2 7524   5.283   3.228   4.254 -0.2253  2.8856 -1.4706
31934SOL     OW 7525   6.947   8.660   9.917  0.1781 -0.7313  0.3445
31934SOL    HW1 7526   6.953   8.720   9.843 -0.8459 -0.8005  0.1962
31934SOL    HW2 7527   6.947   8.573   9.876 -2.8902 -0.7457  0.1876
31935SOL     OW 7528   7.988   0.016   5.044  0.1761 -0.2424 -0.0740
31935SOL    HW1 7529   7.962  -0.068   5.007  0.4251 -0.5091  0.3558
31935SOL    HW2 7530   8.084   0.013   5.049  0.2624  0.4709 -1.0153
31936SOL     OW 7531   0.977   6.287   2.432  0.6810 -0.6044 -0.0008
31936SOL    HW1 7532   1.062   6.273   2.390  1.2157 -0.3117  0.9430
31936SOL    HW2 7533   0.913   6.255   2.369  1.4434  0.0219 -1.1142
31937SOL     OW 7534  11.858   4.666   4.532 -0.2898  0.3381 -0.6920
31937SOL    HW1 7535  11.770   4.680   4.567  0.2530  1.5501  0.2391
31937SOL    HW2 7536  11.849   4.590   4.474 -1.6267 -0.4935  0.5578
31938SOL     OW 7537  10.830   1.643   8.573 -0.0915 -0.2716  0.2995
31938SOL    HW1 7538  10.737   1.634   8.594 -0.1071 -1.0229 -0.0594
31938SOL    HW2 7539  10.864   1.553   8.575  1.0358  0.1382  2.1840
31939SOL     OW 7540   5.450  11.826   8.360 -0.8402 -0.2381  0.5511
31939SOL    HW1 7541   5.380  11.767   8.388 -0.8576 -0.8041 -0.6068
31939SOL    HW2 7542   5.473  11.796   8.272 -0.6649  1.3347  0.0289
31940SOL     OW 7543   9.178   7.167   5.580 -0.1259  0.2720 -0.0202
31940SOL    HW1 7544   9.184   7.072   5.567  2.0493  0.5312 -1.2502
31940SOL    HW2 7545   9.214   7.181   5.667  2.1090  0.1769 -0.8812
31941SOL     OW 7546  11.337   5.506   5.543 -0.0028 -0.1360 -0.5244
31941SOL    HW1 7547  11.354   5.494   5.636 -1.4963  0.9706 -0.0805
31941SOL    HW2 7548  11.401   5.449   5.500  1.1121 -0.2132  1.1411
31942SOL     OW 7549   2.760   5.089   1.257 -0.3675 -0.0734 -0.3476
31942SOL    HW1 7550   2.796   5.178   1.252 -0.1543 -0.1786 -0.7378
31942SOL    HW2 7551   2.689   5.088   1.192  0.0366 -0.3738 -0.7852
31943SOL     OW 7552   8.914  10.033   7.360 -0.0140  0.4060  0.2864
31943SOL    HW1 7553   8.998  10.006   7.397 -0.5745  0.1563  1.4111
31943SOL    HW2 7554   8.937  10.082   7.281  1.1108 -1.2337 -0.4569
31944SOL     OW 7555   1.843  11.849   2.357  0.2335 -0.1015 -0.9177
31944SOL    HW1 7556   1.846  11.754   2.358 -0.8116 -0.1475  0.4392
31944SOL    HW2 7557   1.927  11.875   2.319  0.8210 -1.5413 -0.6643
31945SOL     OW 7558   0.187   2.320  10.600  0.0317 -0.1692  0.1315
31945SOL    HW1 7559   0.094   2.306  10.615 -0.0215 -0.5870 -0.5968
31945SOL    HW2 7560   0.192   2.377  10.523  0.3902 -0.7686 -0.2990
31946SOL     OW 7561   7.728   2.972   9.739 -0.2745  0.0521  0.3037
31946SOL    HW1 7562   7.647   2.968   9.790 -1.0276 -1.9672 -0.9133
31946SOL    HW2 7563   7.741   3.065   9.723 -1.5138  0.5398  1.7925
31947SOL     OW 7564   7.334  10.002  10.199 -0.2916 -0.4064 -0.0326
31947SOL    HW1 7565   7.368  10.029  10.284 -1.0134 -0.8915  0.4163
31947SOL    HW2 7566   7.348  10.078  10.143 -1.4585  0.6019  0.9863
31948SOL     OW 7567   9.113  11.831   9.327 -0.2761 -0.9214  0.5269
31948SOL    HW1 7568   9.131  11.903   9.388  0.0485  0.0190 -0.6394
31948SOL    HW2 7569   9.019  11.814   9.338 -0.8305  1.1007 -0.6334
31949SOL     OW 7570   7.482   3.840   3.486  0.2733 -0.1029 -0.0886
31949SOL    HW1 7571   7.456   3.837   3.394 -0.5253 -1.0442  0.1442
31949SOL    HW2 7572   7.492   3.748   3.511  0.8456  0.1571  0.6624
31950SOL     OW 7573   8.883   5.960  10.229  0.3236 -0.2692  0.1172
31950SOL    HW1 7574   8.818   6.027  10.249  0.6838  0.0583  0.2103
31950SOL    HW2 7575   8.864   5.934  10.139  1.3421  1.3287 -0.6218
31951SOL     OW 7576   6.231   6.849   1.805 -0.3666 -0.0097 -0.3004
31951SOL    HW1 7577   6.136   6.848   1.814 -0.2767 -0.6708  0.7705
31951SOL    HW2 7578   6.264   6.864   1.894  0.5483 -2.5340 -0.1324
31952SOL     OW 7579   6.891   5.911   4.809 -0.1206 -0.4351  0.0753
31952SOL    HW1 7580   6.919   5.953   4.727 -0.8086  0.9400  0.5147
31952SOL    HW2 7581   6.796   5.916   4.807 -0.1206  0.4747  1.3856
31953SOL     OW 7582  11.914   7.741   6.956  0.5379  0.4116  0.3197
31953SOL    HW1 7583  11.820   7.759   6.966 -0.1705 -1.9107 -1.2861
31953SOL    HW2 7584  11.949   7.748   7.045 -1.5651 -0.5785  1.3040
31954SOL     OW 7585   5.028   1.408   3.634  0.2422 -0.1098 -0.1601
31954SOL    HW1 7586   5.012   1.317   3.606 -0.8245  0.5035 -1.7090
31954SOL    HW2 7587   4.944   1.436   3.670 -0.2957  1.0531 -2.1565
31955SOL     OW 7588   3.685   3.549   0.584  0.6471 -0.3842 -0.5337
31955SOL    HW1 7589   3.643   3.619   0.633 -1.8642 -1.8207 -0.4590
31955SOL    HW2 7590   3.739   3.502   0.648  0.0184 -0.2588  0.0943
31956SOL     OW 7591   1.898   7.245  10.499  0.6334  0.3765  0.2987
31956SOL    HW1 7592   1.869   7.196  10.576  1.5496 -2.4760 -1.0463
31956SOL    HW2 7593   1.980   7.203  10.474  0.1502  0.9368 -2.4826
31957SOL     OW 7594   5.556  10.156  10.495  0.7831 -0.0963  0.4004
31957SOL    HW1 7595   5.557  10.097  10.419  0.7037 -0.0884  0.3924
31957SOL    HW2 7596   5.640  10.142  10.537  1.7653  1.4734 -0.9101
31958SOL     OW 7597   5.976   7.654  10.897  0.6609  0.3803 -0.2474
31958SOL    HW1 7598   6.047   7.613  10.946 -0.5641 -0.2544  1.0561
31958SOL    HW2 7599   5.898   7.642  10.952  0.0256  3.5323 -0.2731
31959SOL     OW 7600   2.164  10.765   6.231 -0.0666 -0.2339 -0.1766
31959SOL    HW1 7601   2.096  10.706   6.200  0.9422 -0.9810 -1.0561
31959SOL    HW2 7602   2.153  10.768   6.326 -0.9041 -0.8633 -0.2449
31960SOL     OW 7603   0.936   6.310   7.610 -0.2617 -0.0639  0.1238
31960SOL    HW1 7604   0.866   6.366   7.645 -1.7344 -1.3473 -0.6410
31960SOL    HW2 7605   0.925   6.313   7.515  0.1108 -1.0134  0.0328
31961SOL     OW 7606   1.427   8.762   7.497  0.4418 -1.0455 -0.2501
31961SOL    HW1 7607   1.420   8.674   7.534 -0.0242 -0.4762  1.1099
31961SOL    HW2 7608   1.490   8.807   7.554  0.9454 -0.5988 -1.1371
31962SOL     OW 7609   1.944   4.554   2.787  0.3493 -0.4346 -0.0824
31962SOL    HW1 7610   1.905   4.573   2.873  0.7750  0.4325 -0.0626
31962SOL    HW2 7611   1.871   4.559   2.726  0.3114  0.6206  0.0243
31963SOL     OW 7612   0.591   0.861   5.280  0.0083  0.1560  0.0190
31963SOL    HW1 7613   0.524   0.868   5.212 -1.3361  0.0003  1.2926
31963SOL    HW2 7614   0.648   0.936   5.265 -0.8691  0.7157 -0.6502
31964SOL     OW 7615   3.163   3.500   9.646 -0.4735  0.0791  0.5784
31964SOL    HW1 7616   3.151   3.433   9.578 -1.2063 -0.6667  1.4239
31964SOL    HW2 7617   3.104   3.473   9.717  0.6914  0.5297  1.7473
31965SOL     OW 7618   6.227   1.787  11.579  0.2028  0.2637  0.5280
31965SOL    HW1 7619   6.257   1.828  11.498 -0.2943  0.0540  0.2334
31965SOL    HW2 7620   6.203   1.698  11.553 -3.3410  1.1778  0.1349
31966SOL     OW 7621  11.191   6.146   6.144 -0.1742 -0.2521  0.4416
31966SOL    HW1 7622  11.135   6.217   6.114  1.2148  0.5516 -0.3099
31966SOL    HW2 7623  11.146   6.066   6.116  0.2031  0.4211 -2.3044
31967SOL     OW 7624   0.618  11.656   9.273  0.0982  0.2683  0.1431
31967SOL    HW1 7625   0.554  11.676   9.205 -0.1414 -1.3960 -0.1472
31967SOL    HW2 7626   0.588  11.574   9.312  3.1607 -1.8579 -1.5024
31968SOL     OW 7627   7.198   3.127   4.658  0.6714 -0.5473  0.4530
31968SOL    HW1 7628   7.182   3.035   4.638  1.5337 -0.8372  1.0553
31968SOL    HW2 7629   7.279   3.148   4.611 -0.1207  0.2425 -0.6268
31969SOL     OW 7630   4.122  11.476   3.282 -0.0345  0.0017 -0.0384
31969SOL    HW1 7631   4.121  11.560   3.238 -1.1937  0.4567  0.8028
31969SOL    HW2 7632   4.215  11.459   3.301  0.2602  0.7906 -0.7415
31970SOL     OW 7633   5.588   0.363   1.236 -0.1722  0.1853  0.3462
31970SOL    HW1 7634   5.530   0.368   1.312  1.0963  0.6948  1.3013
31970SOL    HW2 7635   5.652   0.295   1.259  0.2188  0.3390 -0.2681
31971SOL     OW 7636  10.034  10.955   8.483 -0.6031 -0.2385  0.3003
31971SOL    HW1 7637  10.100  11.023   8.468 -1.2152  0.4044  0.4705
31971SOL    HW2 7638   9.951  11.002   8.483 -0.9749 -0.8733  1.1969
31972SOL     OW 7639   4.269   0.817   6.920  0.2045  1.1911  0.2692
31972SOL    HW1 7640   4.290   0.852   7.006  1.0131  0.7014  0.2837
31972SOL    HW2 7641   4.221   0.736   6.938 -0.6412  1.6805  0.2450
31973SOL     OW 7642  11.460   5.696   1.091  0.2126 -0.8466 -0.4810
31973SOL    HW1 7643  11.365   5.692   1.103  0.1361 -0.1965 -0.7777
31973SOL    HW2 7644  11.471   5.754   1.015  0.9200  1.3492  1.1775
31974SOL     OW 7645   7.635   0.678   1.831 -0.1551  0.2175 -0.3701
31974SOL    HW1 7646   7.560   0.720   1.790  0.1599 -0.0057 -1.1947
31974SOL    HW2 7647   7.658   0.736   1.904 -0.4072  0.8928 -0.8184
31975SOL     OW 7648   8.111   8.012   4.644  0.2919 -0.2452  0.1389
31975SOL    HW1 7649   8.063   7.977   4.569  0.3859  1.0635 -0.5647
31975SOL    HW2 7650   8.047   8.066   4.691  0.4518 -0.4105  0.5573
31976SOL     OW 7651   8.071  10.108   4.790  0.0839 -0.1102 -0.0844
31976SOL    HW1 7652   8.068  10.051   4.866  0.7066  2.2460  1.8414
31976SOL    HW2 7653   7.980  10.131   4.773  0.0931  2.0225  2.2232
31977SOL     OW 7654   8.447  10.381   1.728  0.5177 -0.2373 -0.4691
31977SOL    HW1 7655   8.499  10.320   1.676  0.6107  0.6045 -1.3871
31977SOL    HW2 7656   8.414  10.328   1.800  1.4431 -1.1273 -0.6741
31978SOL     OW 7657   1.327   3.023   9.303 -0.2632 -0.3475  0.5097
31978SOL    HW1 7658   1.375   2.950   9.342  0.1227  0.4310  1.5363
31978SOL    HW2 7659   1.254   3.038   9.362 -1.5155 -1.1910 -0.7745
31979SOL     OW 7660   9.173   8.430   9.908 -0.0822  0.0193  0.7140
31979SOL    HW1 7661   9.179   8.342   9.869  1.1646 -0.2568  1.4706
31979SOL    HW2 7662   9.249   8.476   9.874  0.0146  0.3610  1.3855
31980SOL     OW 7663   3.356  11.933   5.407 -0.4809  0.2827  0.4660
31980SOL    HW1 7664   3.348  12.020   5.370  1.2308  0.4268  0.3642
31980SOL    HW2 7665   3.285  11.883   5.367 -0.5801  1.2451 -0.6003
31981SOL     OW 7666   0.298   3.469   3.954 -0.4449 -0.3121 -0.3572
31981SOL    HW1 7667   0.216   3.442   3.994 -0.0662  1.3217  1.6979
31981SOL    HW2 7668   0.366   3.438   4.013  0.3529 -0.4867 -1.3300
31982SOL     OW 7669   0.187   7.005  10.906  0.4041 -0.0846 -0.3004
31982SOL    HW1 7670   0.122   6.962  10.851 -0.1308 -0.1535  0.3775
31982SOL    HW2 7671   0.159   7.097  10.908 -1.5769 -0.6119  2.5491
31983SOL     OW 7672   3.693   4.392   3.032 -0.4098 -0.2690 -0.8225
31983SOL    HW1 7673   3.767   4.352   2.987  0.2716 -0.3839  0.3791
31983SOL    HW2 7674   3.732   4.449   3.098 -1.3854  0.1604 -0.5982
31984SOL     OW 7675   9.603  11.954   0.939 -0.2040 -0.0274 -0.2919
31984SOL    HW1 7676   9.650  11.952   1.023 -0.3301  0.5433 -0.2017
31984SOL    HW2 7677   9.669  11.981   0.875 -0.5470  1.4350 -0.0569
31985SOL     OW 7678   4.844   3.804   2.573  0.5691 -0.3170  0.5022
31985SOL    HW1 7679   4.904   3.762   2.512  1.4206  2.1697 -0.4772
31985SOL    HW2 7680   4.796   3.868   2.520  1.3213  1.9100  2.3265
31986SOL     OW 7681   7.926  10.858   6.221  0.3885 -0.6013  0.1153
31986SOL    HW1 7682   8.001  10.917   6.224  0.0693 -0.2127  2.6548
31986SOL    HW2 7683   7.888  10.873   6.134  1.7456  1.1075 -0.2472
31987SOL     OW 7684   5.425   0.103   8.074 -0.0962 -0.4392 -0.3361
31987SOL    HW1 7685   5.495   0.047   8.108 -0.3532 -1.0785 -0.8255
31987SOL    HW2 7686   5.416   0.077   7.983 -1.3872 -0.8180 -0.1279
31988SOL     OW 7687  10.542   0.562   1.112 -0.7189  0.1423 -0.3069
31988SOL    HW1 7688  10.614   0.623   1.127 -0.5806  0.0106 -0.4199
31988SOL    HW2 7689  10.586   0.480   1.088 -0.8588 -0.3330  0.9941
31989SOL     OW 7690  11.092   9.921   8.393  0.6862  0.3138  0.3954
31989SOL    HW1 7691  11.080   9.845   8.336  2.4415  0.8496 -0.7438
31989SOL    HW2 7692  11.185   9.920   8.416  0.6278  1.8349  0.7800
31990SOL     OW 7693   7.160   9.862  10.347 -0.4573  0.1348  0.3734
31990SOL    HW1 7694   7.230   9.907  10.300 -0.3972  0.8025  1.0890
31990SOL    HW2 7695   7.100   9.833  10.278  0.6617 -0.7303 -0.2876
31991SOL     OW 7696   3.834  10.981   5.240  0.0941  0.0003 -0.0534
31991SOL    HW1 7697   3.786  11.021   5.168  2.0395  1.2056 -0.7698
31991SOL    HW2 7698   3.767  10.941   5.295 -1.6333  1.0306 -1.3256
31992SOL     OW 7699   1.516   3.523   9.818 -0.0775 -0.2401 -0.2207
31992SOL    HW1 7700   1.609   3.503   9.811  0.2023  0.9849 -0.2114
31992SOL    HW2 7701   1.511   3.618   9.813 -1.3871 -0.3140 -0.7778
31993SOL     OW 7702   4.943   9.403   0.547 -0.4026  0.1933 -0.8996
31993SOL    HW1 7703   4.873   9.407   0.482  0.1474 -1.3638 -1.6494
31993SOL    HW2 7704   5.020   9.437   0.501 -0.3376  0.4881 -0.5744
31994SOL     OW 7705   4.486   6.304   6.863  0.0797  0.1459 -0.0715
31994SOL    HW1 7706   4.488   6.359   6.785 -0.9434  0.3615  0.0418
31994SOL    HW2 7707   4.507   6.364   6.935  1.4769 -0.1418 -0.1990
31995SOL     OW 7708   6.460   6.438   9.416  0.0921  0.3389  0.2348
31995SOL    HW1 7709   6.496   6.356   9.450  0.1099  0.8188  1.4145
31995SOL    HW2 7710   6.530   6.502   9.428  0.6839  0.2424 -2.1503
31996SOL     OW 7711   9.477   0.912   7.684 -0.9861  0.0925  0.3071
31996SOL    HW1 7712   9.433   0.960   7.754 -0.3746 -0.6500  1.2313
31996SOL    HW2 7713   9.488   0.976   7.614  0.1226  1.4458  1.6337
31997SOL     OW 7714   8.440   6.409   3.883 -0.9247 -0.3590  0.4772
31997SOL    HW1 7715   8.399   6.324   3.900 -0.1505 -0.4549  2.0841
31997SOL    HW2 7716   8.368   6.466   3.856 -1.7972 -0.9941  1.4001
31998SOL     OW 7717   7.466   7.186   1.826 -0.7961 -0.0570  0.5773
31998SOL    HW1 7718   7.427   7.271   1.845 -4.0048 -1.0177 -0.9601
31998SOL    HW2 7719   7.426   7.127   1.890 -2.1132 -1.1189 -1.1523
31999SOL     OW 7720   2.946   7.314   9.108  0.3193  0.0132  0.2185
31999SOL    HW1 7721   3.013   7.256   9.145  0.6130  0.0964 -0.1773
31999SOL    HW2 7722   2.989   7.399   9.101  0.5784 -0.2034 -1.1661
32000SOL     OW 7723   7.433  10.453   8.427 -0.7972 -0.2147  0.4194
32000SOL    HW1 7724   7.522  10.485   8.416 -2.1593  3.9397 -0.4826
32000SOL    HW2 7725   7.436  10.361   8.400  2.9296  0.1123 -0.7867
32001SOL     OW 7726  10.870   6.278   4.800 -0.4697 -0.0303  0.7108
32001SOL    HW1 7727  10.828   6.357   4.765 -1.9903 -1.4297 -0.8406
32001SOL    HW2 7728  10.850   6.280   4.893 -0.3070  1.4915  0.7491
32002SOL     OW 7729  11.128   7.222   6.053 -0.1624  0.3074 -0.4202
32002SOL    HW1 7730  11.194   7.191   5.991  1.4681 -2.0894  2.2154
32002SOL    HW2 7731  11.152   7.313   6.070  1.5327 -0.0334 -0.7640
32003SOL     OW 7732   4.575  11.882   5.004  0.1000 -0.2018  0.0140
32003SOL    HW1 7733   4.630  11.865   5.081 -0.3429  0.5816  0.5145
32003SOL    HW2 7734   4.504  11.938   5.037  0.5877  1.1911 -1.2156
32004SOL     OW 7735   3.636   6.291   7.615  0.2452 -0.1846  0.5037
32004SOL    HW1 7736   3.643   6.330   7.527  1.2357  0.4523  0.8371
32004SOL    HW2 7737   3.682   6.353   7.672 -0.8684 -0.3091  1.5740
32005SOL     OW 7738   3.615   0.194   4.160  0.2714  0.0741 -0.2156
32005SOL    HW1 7739   3.541   0.254   4.167  0.8315  0.6107  1.4568
32005SOL    HW2 7740   3.580   0.109   4.185  0.3233  0.4324  1.1321
32006SOL     OW 7741   2.517   5.799   1.671  0.2234  0.2345  0.5898
32006SOL    HW1 7742   2.423   5.806   1.682  0.0897 -0.5513  0.0256
32006SOL    HW2 7743   2.533   5.818   1.579  0.5580 -0.1321  0.5667
32007SOL     OW 7744   1.592  11.035   8.134  0.0010  0.1701 -0.2206
32007SOL    HW1 7745   1.571  11.109   8.077 -0.8077 -0.2614 -0.4970
32007SOL    HW2 7746   1.569  10.957   8.083 -1.1539 -0.2157  0.8316
32008SOL     OW 7747  11.922   7.115   3.818 -0.4425 -0.5100 -0.4641
32008SOL    HW1 7748  11.926   7.024   3.847  1.6275 -0.5750 -0.7634
32008SOL    HW2 7749  11.905   7.165   3.898 -1.3679 -1.1276 -0.2631
32009SOL     OW 7750   5.137   3.976  11.701 -0.2809 -0.2718  0.0667
32009SOL    HW1 7751   5.231   3.977  11.719 -0.0860  1.0290 -0.8548
32009SOL    HW2 7752   5.121   3.893  11.656 -0.0152 -1.5432  2.1677
32010SOL     OW 7753   4.150   7.938   5.919 -0.8581  0.0835  0.1157
32010SOL    HW1 7754   4.226   7.929   5.976 -0.6929 -1.4426 -0.2967
32010SOL    HW2 7755   4.185   7.934   5.830 -1.4018 -0.7020 -0.0796
32011SOL     OW 7756   0.554   1.504   3.647 -0.4115 -0.2439 -0.3625
32011SOL    HW1 7757   0.498   1.535   3.719 -1.2149 -0.9325 -0.6731
32011SOL    HW2 7758   0.548   1.574   3.581  0.2444  0.3424  0.1841
32012SOL     OW 7759   0.015   2.791   7.281  0.4781 -0.4520  0.8348
32012SOL    HW1 7760   0.086   2.736   7.248  0.5180  0.4016 -0.5766
32012SOL    HW2 7761   0.035   2.879   7.248 -1.4226 -0.2537  0.0808
32013SOL     OW 7762   1.233   3.867   5.976 -0.2907 -0.2676 -0.2304
32013SOL    HW1 7763   1.259   3.786   5.931 -1.0366 -0.3616 -0.4936
32013SOL    HW2 7764   1.289   3.869   6.054  0.7808 -0.2753 -0.9705
32014SOL     OW 7765   0.571   7.268   8.296  0.2294 -0.4354  0.1203
32014SOL    HW1 7766   0.559   7.213   8.373  1.6420 -0.2964  0.4696
32014SOL    HW2 7767   0.618   7.345   8.329 -1.2387  0.7655 -0.4490
32015SOL     OW 7768   7.549   4.678  10.869  0.5100  0.2077 -0.1443
32015SOL    HW1 7769   7.466   4.660  10.825  0.1889  0.8585  0.1791
32015SOL    HW2 7770   7.526   4.681  10.962  1.1661 -1.0683  0.0809
32016SOL     OW 7771   6.562   3.306  10.601  0.2930  0.0854  0.0313
32016SOL    HW1 7772   6.614   3.230  10.626 -0.9468 -0.4044  1.2656
32016SOL    HW2 7773   6.623   3.379  10.604  0.9749 -0.5013  1.2151
32017SOL     OW 7774   1.463  11.874  10.062 -0.5815  0.1331 -0.3684
32017SOL    HW1 7775   1.474  11.780  10.080  2.8816  0.5045  0.0463
32017SOL    HW2 7776   1.480  11.882   9.969  0.6145  0.4734 -0.1382
32018SOL     OW 7777   7.901   6.958   2.565 -0.0824  0.2021 -0.1187
32018SOL    HW1 7778   7.955   6.988   2.492  0.2559  0.0341  0.0590
32018SOL    HW2 7779   7.963   6.947   2.637 -0.2974 -0.3354 -0.0123
32019SOL     OW 7780   3.892  10.064   6.039 -0.4774  0.7291 -0.0591
32019SOL    HW1 7781   3.973  10.105   6.071  0.7923 -1.8402  0.2883
32019SOL    HW2 7782   3.883  10.096   5.950  1.1869  0.7548 -0.2496
32020SOL     OW 7783   0.407   0.775   0.366 -0.0997 -0.0003  0.2450
32020SOL    HW1 7784   0.438   0.685   0.354 -0.9341 -0.2967  0.2543
32020SOL    HW2 7785   0.476   0.818   0.418 -0.4190 -1.0861  1.6400
32021SOL     OW 7786   0.400   5.504   9.738 -0.3890 -0.3776 -0.0988
32021SOL    HW1 7787   0.416   5.489   9.644 -0.4814 -0.7937 -0.0530
32021SOL    HW2 7788   0.341   5.433   9.763 -2.0611  0.9293 -0.1848
32022SOL     OW 7789   8.358   5.127   7.520 -0.4434  0.0031  0.0595
32022SOL    HW1 7790   8.411   5.108   7.597 -1.6613 -0.9557  0.6891
32022SOL    HW2 7791   8.293   5.190   7.550 -2.1297 -1.7815  0.3853
32023SOL     OW 7792   8.590   4.685   5.974  0.0560  0.1204  0.6533
32023SOL    HW1 7793   8.539   4.735   6.038 -1.0426  1.1383 -0.9429
32023SOL    HW2 7794   8.674   4.731   5.971  0.1784 -0.0277  1.4498
32024SOL     OW 7795  10.403   5.908   6.658 -0.7141  0.0062 -0.4498
32024SOL    HW1 7796  10.439   5.830   6.616 -1.6148 -0.0926 -1.0639
32024SOL    HW2 7797  10.352   5.873   6.732  1.3683  0.2074  1.1945
32025SOL     OW 7798   5.996   1.318  10.270  0.4956  0.0875 -0.1974
32025SOL    HW1 7799   6.028   1.284  10.186 -0.8853  1.6548 -1.4193
32025SOL    HW2 7800   6.059   1.285  10.334  2.1178 -0.4397 -1.9506
32026SOL     OW 7801   2.755   1.054  11.059  0.2181  0.0047 -0.4003
32026SOL    HW1 7802   2.710   0.979  11.018  0.1549 -0.3272  0.2647
32026SOL    HW2 7803   2.843   1.052  11.022  0.9312 -1.7578  1.2544
32027SOL     OW 7804  10.885   0.444   1.090 -0.5218  0.3845  0.2666
32027SOL    HW1 7805  10.914   0.440   0.999  1.6559  0.7474  0.8911
32027SOL    HW2 7806  10.951   0.395   1.139 -0.6670  1.6701  1.8513
32028SOL     OW 7807   8.438   0.255   8.507 -0.4197 -0.6788 -0.2414
32028SOL    HW1 7808   8.421   0.345   8.479  2.5472  0.1061  0.1535
32028SOL    HW2 7809   8.532   0.251   8.519 -0.3183 -4.1422 -1.0988
32029SOL     OW 7810   4.350   3.734   3.366  0.0751 -0.0582 -0.4539
32029SOL    HW1 7811   4.418   3.732   3.433  1.0875  0.3773 -1.4468
32029SOL    HW2 7812   4.319   3.644   3.360  0.4669 -0.2328  0.0909
32030SOL     OW 7813  10.537   4.211   3.620 -0.1202  0.3643  0.2876
32030SOL    HW1 7814  10.599   4.201   3.548 -1.9477 -1.5864 -1.1539
32030SOL    HW2 7815  10.504   4.301   3.610  1.1416  0.8107 -0.0169
32031SOL     OW 7816  11.245   5.241   9.018  0.4781  0.4604 -0.0965
32031SOL    HW1 7817  11.165   5.207   8.979 -0.2396  2.0666 -0.1231
32031SOL    HW2 7818  11.223   5.330   9.044  2.3043  1.0098 -0.2423
32032SOL     OW 7819   7.882   3.972   1.678 -0.4726 -0.3863  0.6476
32032SOL    HW1 7820   7.893   3.887   1.635 -0.8715 -0.8355  1.4027
32032SOL    HW2 7821   7.924   3.961   1.764 -0.1125  0.3318  0.5670
32033SOL     OW 7822   1.540   2.961   4.460 -0.2393 -0.1493  0.0911
32033SOL    HW1 7823   1.479   2.905   4.509 -0.6436 -0.1684 -0.4250
32033SOL    HW2 7824   1.483   3.020   4.410  0.1752  1.1456  1.0807
32034SOL     OW 7825   1.813   4.148   0.333  0.2238  0.2956 -0.6372
32034SOL    HW1 7826   1.822   4.144   0.428  0.2476  0.9010 -0.6112
32034SOL    HW2 7827   1.719   4.159   0.318  0.2351  0.3425 -0.6757
32035SOL     OW 7828   0.240   8.895   8.454 -0.0423 -0.1858 -0.2207
32035SOL    HW1 7829   0.149   8.875   8.434 -0.0914  0.3925 -0.6226
32035SOL    HW2 7830   0.251   8.870   8.545 -0.4539 -0.7613 -0.3250
32036SOL     OW 7831   7.357  11.219  10.321  0.1032  0.1269 -0.3569
32036SOL    HW1 7832   7.431  11.266  10.283  0.3079 -1.1078 -1.5605
32036SOL    HW2 7833   7.356  11.246  10.413  2.6628 -0.5553 -0.0623
32037SOL     OW 7834   1.704  11.940   7.602 -0.6246  0.2721  0.0822
32037SOL    HW1 7835   1.739  12.028   7.618  0.1818  0.1914 -1.0871
32037SOL    HW2 7836   1.616  11.941   7.639 -1.7218  2.4789 -2.3216
32038SOL     OW 7837   2.874   9.892   1.170 -0.6926 -0.5076  0.1914
32038SOL    HW1 7838   2.923   9.925   1.246 -0.9377  1.9978 -0.6345
32038SOL    HW2 7839   2.784   9.920   1.186 -1.2405 -2.1464  0.1158
32039SOL     OW 7840   5.998   3.157   2.299 -0.0362  0.1397  0.5144
32039SOL    HW1 7841   5.975   3.099   2.371  1.4437  0.6284  1.4189
32039SOL    HW2 7842   6.071   3.113   2.256  0.7167  1.0465  0.8530
32040SOL     OW 7843   3.590  11.882   9.217  0.6594 -0.2293  0.0439
32040SOL    HW1 7844   3.541  11.852   9.140 -0.4126  1.6580 -0.0701
32040SOL    HW2 7845   3.539  11.851   9.291  0.9542 -0.8563 -0.0022
32041SOL     OW 7846   8.402   7.443   6.262  0.4155  0.2750 -0.1851
32041SOL    HW1 7847   8.412   7.356   6.301 -1.4590 -0.1762 -0.6280
32041SOL    HW2 7848   8.458   7.442   6.185  1.1946 -0.1552  0.3715
32042SOL     OW 7849   5.033   9.614   2.604 -0.4439 -0.0168  0.1925
32042SOL    HW1 7850   5.016   9.600   2.510 -2.1372  0.7641  0.3263
32042SOL    HW2 7851   5.009   9.532   2.645  0.8464 -0.5545 -0.0953
32043SOL     OW 7852   1.744   6.074   6.619  0.0722  0.1717  0.2103
32043SOL    HW1 7853   1.753   6.141   6.551 -0.5284 -0.4503 -0.4976
32043SOL    HW2 7854   1.753   5.991   6.572  1.9273 -0.2592  1.2393
32044SOL     OW 7855   9.353   4.485  10.970  0.6756 -0.5221 -0.2824
32044SOL    HW1 7856   9.365   4.571  11.010 -1.3236 -0.7573  0.9761
32044SOL    HW2 7857   9.390   4.494  10.882  0.8185  1.5131 -0.0577
32045SOL     OW 7858  10.201   9.621   8.726 -0.4972 -0.1183 -0.4518
32045SOL    HW1 7859  10.291   9.644   8.703 -0.0321  0.4129  1.7001
32045SOL    HW2 7860  10.190   9.532   8.694 -0.0910  0.6465 -2.9896
32046SOL     OW 7861  10.665   6.363   4.298 -0.5166  0.0097 -0.1094
32046SOL    HW1 7862  10.629   6.286   4.341 -0.8993 -0.3111 -0.9767
32046SOL    HW2 7863  10.592   6.397   4.246 -0.3439  0.9452  0.2328
32047SOL     OW 7864   8.541   0.864  11.782  0.3974  0.0107 -0.3872
32047SOL    HW1 7865   8.532   0.897  11.693  1.1807  1.6881  0.1093
32047SOL    HW2 7866   8.583   0.936  11.830  0.8847 -1.2168  1.1106
32048SOL     OW 7867   9.157   1.299  11.358  0.3327 -0.5730 -0.5188
32048SOL    HW1 7868   9.167   1.294  11.453 -0.2533  0.4952 -0.3895
32048SOL    HW2 7869   9.247   1.305  11.325  0.4742  1.1100  0.1091
32049SOL     OW 7870   7.667   9.480   1.838  0.2052  0.4333 -0.3358
32049SOL    HW1 7871   7.614   9.525   1.904  0.4384 -1.9559  1.6414
32049SOL    HW2 7872   7.616   9.486   1.758 -0.8682  2.0444  0.4113
32050SOL     OW 7873   0.046   5.431   2.609 -0.5511  0.0566  0.1865
32050SOL    HW1 7874  -0.019   5.416   2.677 -0.3700  1.9772  0.8388
32050SOL    HW2 7875   0.073   5.343   2.582 -2.9905 -0.8163  0.2566
32051SOL     OW 7876  11.424  10.860   7.929 -0.2789  0.5100 -0.2368
32051SOL    HW1 7877  11.436  10.830   7.838  1.5937  0.5019 -0.0302
32051SOL    HW2 7878  11.348  10.917   7.925 -0.3454  0.3709 -1.7941
32052SOL     OW 7879   3.061   6.479   8.376  0.1296 -0.3457  0.6203
32052SOL    HW1 7880   2.999   6.504   8.308  2.0817 -0.1103 -1.2047
32052SOL    HW2 7881   3.049   6.385   8.388  1.1704 -0.8492 -1.7093
32053SOL     OW 7882   2.756   7.328   3.996  0.2703 -0.6407  0.1892
32053SOL    HW1 7883   2.826   7.393   3.996  1.4748 -1.8868 -1.4780
32053SOL    HW2 7884   2.679   7.377   4.026  1.0695  1.6427 -1.2402
32054SOL     OW 7885   3.855   8.874  10.607  0.4281 -0.8080  0.4275
32054SOL    HW1 7886   3.795   8.876  10.533 -0.1651  0.2386  0.9253
32054SOL    HW2 7887   3.937   8.911  10.573 -0.0617  0.3529  0.4549
32055SOL     OW 7888   5.868  11.350   2.631 -1.0203  0.8849  0.0289
32055SOL    HW1 7889   5.799  11.317   2.689 -0.6647 -0.8146 -0.4872
32055SOL    HW2 7890   5.869  11.290   2.557  1.0987  0.7773  0.0842
32056SOL     OW 7891   3.846  10.886   6.026  0.4892  0.1398 -0.7372
32056SOL    HW1 7892   3.929  10.871   6.072 -0.1591 -1.3114  0.0308
32056SOL    HW2 7893   3.870  10.936   5.949  2.2028 -0.9105 -0.9361
32057SOL     OW 7894   1.776  11.745   2.046 -0.2046  0.2174 -0.2788
32057SOL    HW1 7895   1.691  11.786   2.063  0.1548  0.7403  0.2913
32057SOL    HW2 7896   1.816  11.737   2.133  0.1408 -0.4448 -0.4946
32058SOL     OW 7897   4.480   5.272   7.337  0.6169  0.5073 -0.0114
32058SOL    HW1 7898   4.396   5.236   7.306  0.0919  1.8946 -0.2817
32058SOL    HW2 7899   4.511   5.208   7.401  0.0147 -0.6950 -0.8802
32059SOL     OW 7900   1.188  10.163   1.870  0.3469 -0.9198  0.7104
32059SOL    HW1 7901   1.246  10.144   1.943  0.0262  1.5747  1.7133
32059SOL    HW2 7902   1.100  10.163   1.909  0.2416  1.2049  0.5535
32060SOL     OW 7903   8.743  10.296   5.030  0.0992 -0.2912 -0.3205
32060SOL    HW1 7904   8.751  10.390   5.009 -1.9997  0.3606  1.4846
32060SOL    HW2 7905   8.823  10.276   5.078 -0.4160  1.2100  1.2811
32061SOL     OW 7906   2.281   9.804  11.765 -0.3258 -0.7306 -0.6244
32061SOL    HW1 7907   2.206   9.747  11.783 -1.0351  0.7147  1.3679
32061SOL    HW2 7908   2.308   9.837  11.851  0.4117  1.4493 -1.5962
32062SOL     OW 7909   6.252   9.116   8.427  0.5678  0.8272 -0.7244
32062SOL    HW1 7910   6.285   9.052   8.364 -0.4745  0.0603 -0.5372
32062SOL    HW2 7911   6.328   9.170   8.449  2.1292 -1.7779  0.8408
32063SOL     OW 7912   4.269   0.146  11.104 -0.5775  0.4833  0.1106
32063SOL    HW1 7913   4.356   0.182  11.090 -0.4979  0.3652  0.2990
32063SOL    HW2 7914   4.235   0.192  11.180 -2.5194  3.9172 -2.5377
32064SOL     OW 7915  10.128   4.825   6.963  0.1898 -0.7366 -0.1269
32064SOL    HW1 7916  10.089   4.816   7.050  0.6604 -0.1556  0.1489
32064SOL    HW2 7917  10.195   4.893   6.973  0.4523 -0.8738 -0.8740
32065SOL     OW 7918   7.222   1.845   6.244  0.4569 -0.2135  0.0422
32065SOL    HW1 7919   7.160   1.917   6.233 -0.6616 -1.2394 -0.7288
32065SOL    HW2 7920   7.221   1.826   6.338 -0.5503 -0.3300  0.0156
32066SOL     OW 7921   4.948   4.904  10.511 -0.8353 -0.5448  0.3994
32066SOL    HW1 7922   4.946   4.815  10.547  0.3031 -0.0203  1.8545
32066SOL    HW2 7923   4.904   4.957  10.578 -0.8456  0.0962 -0.1141
32067SOL     OW 7924   6.673   0.131   7.228  0.5847 -1.1843  0.0184
32067SOL    HW1 7925   6.634   0.167   7.307  0.7463  1.0529 -0.8422
32067SOL    HW2 7926   6.726   0.057   7.258  2.0218  0.6368  2.2300
32068SOL     OW 7927   3.082   9.093   0.799 -0.2617 -0.6265 -0.0918
32068SOL    HW1 7928   3.012   9.159   0.797 -0.7625 -1.1203  0.6150
32068SOL    HW2 7929   3.055   9.027   0.735  0.9402  0.5090 -1.8519
32069SOL     OW 7930   4.350   3.963   6.533  0.1722 -0.2860 -0.0613
32069SOL    HW1 7931   4.389   3.998   6.613 -0.6604  0.0709  0.2104
32069SOL    HW2 7932   4.409   3.991   6.463  0.4322  0.1868  0.3362
32070SOL     OW 7933   5.867   4.132  11.911  0.1045  0.0418  0.3599
32070SOL    HW1 7934   5.805   4.160  11.844  1.8557  0.8592 -0.9931
32070SOL    HW2 7935   5.919   4.210  11.931  2.0247 -1.0544 -0.0474
32071SOL     OW 7936   3.067   5.498   0.398  0.2173  0.0537 -0.4154
32071SOL    HW1 7937   3.052   5.586   0.362  0.9719  0.3911  0.0634
32071SOL    HW2 7938   3.041   5.439   0.328 -3.2086  0.5365  0.2968
32072SOL     OW 7939   8.004   7.607   0.716  0.2298 -0.1972 -0.1917
32072SOL    HW1 7940   8.084   7.626   0.667  0.5720 -0.2547  0.3278
32072SOL    HW2 7941   8.002   7.674   0.784 -1.2155  1.0269 -1.3783
32073SOL     OW 7942   3.260  10.952   3.554  0.7525 -0.6275 -0.6004
32073SOL    HW1 7943   3.339  10.968   3.606  0.0786  0.7454  0.0693
32073SOL    HW2 7944   3.203  10.902   3.612  0.6630 -0.5672 -0.6356
32074SOL     OW 7945   1.310   5.252   7.543 -0.2623  0.0067 -0.0421
32074SOL    HW1 7946   1.391   5.268   7.591 -1.1816  1.8938  0.9976
32074SOL    HW2 7947   1.335   5.258   7.451  0.7579  0.7423  0.2626
32075SOL     OW 7948   9.953   8.111   9.187 -0.6157 -0.2566 -0.1409
32075SOL    HW1 7949  10.009   8.085   9.114  1.2092  0.3306  0.9946
32075SOL    HW2 7950   9.971   8.047   9.256  1.0836  1.6837  1.3359
32076SOL     OW 7951   1.810   7.520  10.485  0.0991  0.2877  0.2958
32076SOL    HW1 7952   1.857   7.546  10.406  3.4840  1.3416  2.4585
32076SOL    HW2 7953   1.836   7.429  10.500 -1.0197 -0.1084 -0.0873
32077SOL     OW 7954  11.353   4.621  10.601 -0.7802 -0.1637 -0.1991
32077SOL    HW1 7955  11.348   4.528  10.622  1.9609 -0.2268  0.4994
32077SOL    HW2 7956  11.328   4.666  10.681 -2.1177 -0.2391 -0.5406
32078SOL     OW 7957   7.020   6.245   1.255  0.0525  0.5309 -0.3841
32078SOL    HW1 7958   6.999   6.278   1.343  0.5731  0.0435 -0.0674
32078SOL    HW2 7959   7.054   6.321   1.208  0.9487  0.5333  0.2364
32079SOL     OW 7960   6.891   7.086   6.877  0.6047  0.4930 -0.0632
32079SOL    HW1 7961   6.965   7.047   6.830  0.4006 -0.0915  0.0807
32079SOL    HW2 7962   6.815   7.067   6.823  0.4795  0.5460  0.0933
32080SOL     OW 7963   6.010   0.237   7.222 -0.7013 -0.5237  0.1150
32080SOL    HW1 7964   5.969   0.313   7.181  0.6146  0.9652  1.4333
32080SOL    HW2 7965   6.075   0.206   7.158 -0.4859  0.1505  0.0042
32081SOL     OW 7966   5.827   4.553   8.605 -0.1353  0.7107 -0.1701
32081SOL    HW1 7967   5.785   4.516   8.528  0.0373  0.3547 -0.0967
32081SOL    HW2 7968   5.822   4.647   8.593 -1.2314  0.6770 -0.0120
32082SOL     OW 7969   4.218  11.335   2.094 -0.0800 -0.2367 -0.1115
32082SOL    HW1 7970   4.182  11.424   2.083  0.6758  0.2555  1.1624
32082SOL    HW2 7971   4.297  11.334   2.041  0.7184  0.3666  1.0414
32083SOL     OW 7972  10.664  10.691   5.632 -0.2294  0.1808  0.2913
32083SOL    HW1 7973  10.607  10.620   5.664  0.5349 -0.9345 -0.7560
32083SOL    HW2 7974  10.619  10.724   5.554 -0.7933  1.1797  1.0011
32084SOL     OW 7975  11.144   4.311  11.369  0.1891 -0.5401 -0.1388
32084SOL    HW1 7976  11.049   4.318  11.361  0.3018  0.1191 -1.0760
32084SOL    HW2 7977  11.177   4.323  11.280  1.1412 -0.9784  0.1380
32085SOL     OW 7978   5.718   1.748   5.684 -0.0761 -0.0355 -0.6735
32085SOL    HW1 7979   5.800   1.743   5.733 -1.3475  0.2769  1.6113
32085SOL    HW2 7980   5.668   1.672   5.712 -1.3410  0.8196 -0.5293
32086SOL     OW 7981   1.918   2.620   9.678  0.3250  0.4342 -0.1101
32086SOL    HW1 7982   1.827   2.591   9.680  1.2888 -2.9857  1.9253
32086SOL    HW2 7983   1.932   2.662   9.763  0.6122  1.2374 -0.5424
32087SOL     OW 7984   8.513   8.444   9.247  0.1248  0.1764 -0.3281
32087SOL    HW1 7985   8.536   8.431   9.155  0.6600  0.6154 -0.2615
32087SOL    HW2 7986   8.586   8.406   9.296  0.8814  1.8010 -0.1209
32088SOL     OW 7987   1.618   5.754  11.164 -0.4576  0.0091  0.2188
32088SOL    HW1 7988   1.556   5.682  11.154  0.2038 -0.2247 -3.1594
32088SOL    HW2 7989   1.637   5.783  11.075  4.1428  0.1677  0.9724
32089SOL     OW 7990   9.211   3.959   6.513  0.0491  0.2651 -0.1876
32089SOL    HW1 7991   9.232   4.050   6.533 -1.0583  0.5912 -0.4481
32089SOL    HW2 7992   9.259   3.941   6.432  1.4177  0.1514  0.6198
32090SOL     OW 7993   4.040   9.608   1.933  0.5348 -0.7171 -0.4609
32090SOL    HW1 7994   3.996   9.680   1.979  1.7380 -0.6733  0.6943
32090SOL    HW2 7995   4.040   9.536   1.996  1.5208 -0.9124 -0.6607
32091SOL     OW 7996   5.611   3.004   6.923 -0.3774  0.3726 -0.5690
32091SOL    HW1 7997   5.550   3.058   6.872 -1.8873 -1.7289 -1.1137
32091SOL    HW2 7998   5.557   2.965   6.992  0.8107  0.0810  0.2230
32092SOL     OW 7999   7.386  10.781   1.769  0.0718  0.5726 -0.2319
32092SOL    HW1 8000   7.333  10.761   1.692 -1.3770  0.6475  0.7178
32092SOL    HW2 8001   7.366  10.710   1.830  1.9717 -0.0413 -0.2603
32093SOL     OW 8002   4.345   8.831   9.201 -0.0260 -0.0798  0.5523
32093SOL    HW1 8003   4.353   8.920   9.168 -0.0906 -0.1325  0.3898
32093SOL    HW2 8004   4.435   8.803   9.219  0.0061 -0.0379  0.4551
32094SOL     OW 8005  11.473   8.246   9.085  0.3486 -0.1392 -0.1401
32094SOL    HW1 8006  11.564   8.275   9.095 -0.2548  1.2693  2.2310
32094SOL    HW2 8007  11.446   8.222   9.174 -1.6617 -0.2873 -0.7434
32095SOL     OW 8008   6.355   1.850   3.468 -0.1235 -0.0617  0.3618
32095SOL    HW1 8009   6.379   1.875   3.557 -1.6191 -0.6359  0.9699
32095SOL    HW2 8010   6.283   1.909   3.446 -1.4143 -1.4843  0.5197
32096SOL     OW 8011   4.540   1.610   2.910 -0.1090 -0.1210  0.8397
32096SOL    HW1 8012   4.458   1.658   2.910 -0.0306  0.0319 -0.0678
32096SOL    HW2 8013   4.604   1.671   2.947  0.2917  1.0783 -1.5911
32097SOL     OW 8014  10.006   1.323   7.137  0.3635  0.0959  0.8222
32097SOL    HW1 8015   9.952   1.277   7.202  0.9284  0.1650  1.3511
32097SOL    HW2 8016   9.988   1.416   7.152 -1.9877  0.0731 -1.2865
32098SOL     OW 8017  10.462   4.314   9.571  0.1327 -0.3347 -0.0571
32098SOL    HW1 8018  10.374   4.301   9.536 -0.0853  0.3885  0.1966
32098SOL    HW2 8019  10.519   4.309   9.494 -0.0499 -1.4401 -0.1409
32099SOL     OW 8020   0.177   0.019   7.716  0.3388  0.1551  0.1617
32099SOL    HW1 8021   0.106  -0.042   7.695  0.3740 -0.0927  0.7348
32099SOL    HW2 8022   0.256  -0.025   7.684  0.3108  0.1098  0.1545
32100SOL     OW 8023   2.156   6.993   8.659  0.9116  0.5033 -0.0100
32100SOL    HW1 8024   2.250   6.984   8.643  1.2217 -1.9899  2.4174
32100SOL    HW2 8025   2.148   7.001   8.754 -1.3483  0.9736 -0.1682
32101SOL     OW 8026   3.124   1.038   6.717 -0.0918 -0.9518  0.2117
32101SOL    HW1 8027   3.201   0.986   6.738 -0.4947 -1.5764  0.1666
32101SOL    HW2 8028   3.062   0.976   6.679  0.4690  0.0198 -2.5376
32102SOL     OW 8029  10.238  11.204   4.342 -0.0851  0.8111 -0.2847
32102SOL    HW1 8030  10.195  11.175   4.261 -1.4246 -2.4501  1.4376
32102SOL    HW2 8031  10.325  11.163   4.339 -0.7641 -0.7897  0.6243
32103SOL     OW 8032   4.194   2.004   1.134  0.0035  0.1964 -0.0095
32103SOL    HW1 8033   4.255   2.061   1.086 -0.1912  1.8897  1.6421
32103SOL    HW2 8034   4.112   2.009   1.084  0.6535 -0.6269 -1.2171
32104SOL     OW 8035   9.488   8.812   9.482 -0.5837 -0.6653 -0.1433
32104SOL    HW1 8036   9.436   8.831   9.404 -1.9870  0.8490  1.1050
32104SOL    HW2 8037   9.461   8.723   9.507 -1.2927 -0.5579 -0.4927
32105SOL     OW 8038   3.578  11.886   4.124  0.3063 -0.3624 -0.1976
32105SOL    HW1 8039   3.574  11.791   4.112 -0.6281 -0.3396 -0.1332
32105SOL    HW2 8040   3.591  11.921   4.036 -0.8976 -0.4753 -0.4291
32106SOL     OW 8041   0.417   2.851   5.322 -0.3612 -0.0149  0.1325
32106SOL    HW1 8042   0.449   2.923   5.376 -0.3099  0.4520 -0.5191
32106SOL    HW2 8043   0.373   2.792   5.384 -0.3198  0.5265  0.6788
32107SOL     OW 8044   7.385   4.178   2.662  0.2682 -0.1015 -0.1575
32107SOL    HW1 8045   7.342   4.111   2.608  1.0673 -0.9222  0.2184
32107SOL    HW2 8046   7.401   4.135   2.745  0.4088  0.7021  0.2360
32108SOL     OW 8047   7.823   3.512  11.186 -0.3846 -0.4751  0.1019
32108SOL    HW1 8048   7.838   3.545  11.275  1.0732  0.3826 -0.4246
32108SOL    HW2 8049   7.728   3.500  11.181 -0.4564 -1.0339  1.9281
32109SOL     OW 8050   3.335   0.866   6.809 -0.0865  0.0930 -0.1875
32109SOL    HW1 8051   3.298   0.856   6.896 -0.1717 -0.6691 -0.3056
32109SOL    HW2 8052   3.418   0.817   6.812 -1.2576 -2.0872 -1.2405
32110SOL     OW 8053   2.663   6.176   5.728  0.8024 -0.5083 -0.1127
32110SOL    HW1 8054   2.744   6.227   5.730  0.7778 -0.4144 -1.1476
32110SOL    HW2 8055   2.626   6.192   5.641 -0.3038 -0.5931  0.3236
32111SOL     OW 8056   6.122   0.379   0.535 -0.1190  0.3027 -0.6673
32111SOL    HW1 8057   6.146   0.298   0.490  0.5606  0.4520 -0.5908
32111SOL    HW2 8058   6.201   0.432   0.531 -0.4192  0.7819 -0.3157
32112SOL     OW 8059   6.907   8.268   3.294  0.5164  0.4196 -0.1238
32112SOL    HW1 8060   6.960   8.195   3.264  0.3408  0.2968 -0.1382
32112SOL    HW2 8061   6.969   8.340   3.306  0.5329  0.5923 -1.1468
32113SOL     OW 8062   2.709  11.904   1.999 -0.7017  0.5540  0.1949
32113SOL    HW1 8063   2.684  11.828   2.051 -0.5419  1.3753  1.5282
32113SOL    HW2 8064   2.626  11.946   1.977 -0.8578 -0.4976 -1.3876
32114SOL     OW 8065   1.553   1.892   2.431  0.1036  0.0693  0.0600
32114SOL    HW1 8066   1.484   1.855   2.485  0.2353  0.6196  0.6217
32114SOL    HW2 8067   1.632   1.887   2.485  0.7037 -1.3033 -0.8684
32115SOL     OW 8068  10.204   9.491   9.631  0.0809  0.2805  0.0614
32115SOL    HW1 8069  10.207   9.398   9.654  0.8942  0.1671 -0.4775
32115SOL    HW2 8070  10.163   9.493   9.545  1.6463  0.2376 -0.7317
32116SOL     OW 8071  11.307   4.267   7.661  0.0958  0.8420 -0.0007
32116SOL    HW1 8072  11.290   4.272   7.755  1.0756  0.7562  0.1947
32116SOL    HW2 8073  11.224   4.291   7.620 -0.1332  1.6296  0.8898
32117SOL     OW 8074   0.780  10.823  10.256  0.8297  0.1694  0.0876
32117SOL    HW1 8075   0.709  10.759  10.257  0.9818 -0.0380  1.8807
32117SOL    HW2 8076   0.751  10.891  10.196  0.8595 -1.7624 -2.2492
32118SOL     OW 8077   5.740   8.080   6.947 -0.0517 -0.3155  0.4441
32118SOL    HW1 8078   5.681   8.151   6.922  0.9367 -0.0219 -1.2004
32118SOL    HW2 8079   5.817   8.124   6.981 -0.5926 -0.6890  2.2262
32119SOL     OW 8080   4.782  10.233   1.118  0.3277 -0.1790  0.0514
32119SOL    HW1 8081   4.748  10.182   1.045 -0.0768  1.2569 -0.8115
32119SOL    HW2 8082   4.864  10.269   1.084  0.3128  0.2081  0.4304
32120SOL     OW 8083   5.081   4.553   4.995 -0.4952  0.0289  0.3399
32120SOL    HW1 8084   5.066   4.625   4.933  1.9585 -0.1450 -0.5648
32120SOL    HW2 8085   5.064   4.474   4.945  1.4592 -0.1108 -0.2202
32121SOL     OW 8086  10.409   7.109   5.353 -0.3099 -0.0639 -0.0846
32121SOL    HW1 8087  10.396   7.064   5.269 -1.3160  1.1711 -0.6230
32121SOL    HW2 8088  10.455   7.045   5.407  1.0479 -0.6250 -1.8057
32122SOL     OW 8089   5.562  11.783   8.111  0.7657  0.0361  0.3219
32122SOL    HW1 8090   5.577  11.689   8.096 -1.5345 -0.0962 -1.9424
32122SOL    HW2 8091   5.647  11.823   8.099  1.2704 -1.4938 -1.8272
32123SOL     OW 8092   8.200   7.188   8.369 -0.1716 -0.1657  0.0492
32123SOL    HW1 8093   8.225   7.265   8.421 -0.6768  0.0356 -0.0004
32123SOL    HW2 8094   8.267   7.123   8.389  0.2671  0.2926  0.0833
32124SOL     OW 8095   8.210   6.644   2.871  0.3455 -0.7911  0.2940
32124SOL    HW1 8096   8.294   6.681   2.842  0.6661 -2.0878 -0.5018
32124SOL    HW2 8097   8.203   6.561   2.825 -0.8877 -1.2106  1.1823
32125SOL     OW 8098   9.493   0.708   4.103 -0.2186  0.5318  0.4427
32125SOL    HW1 8099   9.576   0.688   4.147 -0.1115  0.0493  0.0194
32125SOL    HW2 8100   9.441   0.629   4.112 -0.6833  0.8743  0.8080
32126SOL     OW 8101   4.868   8.333   0.752 -0.3105 -0.9355 -0.1482
32126SOL    HW1 8102   4.783   8.337   0.709  0.7216  1.9431 -2.2041
32126SOL    HW2 8103   4.926   8.290   0.689  0.3881 -0.1119 -0.1025
32127SOL     OW 8104   0.638   3.823  11.680  0.0135 -0.3800 -0.9009
32127SOL    HW1 8105   0.727   3.858  11.673 -0.1997  0.1850 -0.8683
32127SOL    HW2 8106   0.596   3.879  11.745 -0.0344 -1.3427 -0.0782
32128SOL     OW 8107   1.527   6.941   9.241 -0.6658 -0.2939  0.0031
32128SOL    HW1 8108   1.572   6.857   9.251 -1.1632 -0.2647  3.4864
32128SOL    HW2 8109   1.439   6.926   9.275 -1.1533  1.3738 -0.4323
32129SOL     OW 8110  11.936   4.327   9.894  0.0720 -0.1048 -0.3111
32129SOL    HW1 8111  11.867   4.323   9.961  1.2031  2.9728  1.2436
32129SOL    HW2 8112  11.889   4.350   9.814 -0.9867 -0.5427  0.1600
32130SOL     OW 8113  10.630   8.656  10.064  0.0049 -0.7555 -0.1246
32130SOL    HW1 8114  10.581   8.662  10.146  1.6697  2.9228  0.8037
32130SOL    HW2 8115  10.706   8.602  10.085  0.9669  1.0113  1.1556
32131SOL     OW 8116   1.169   1.275   2.558  0.1183  0.7345  0.2828
32131SOL    HW1 8117   1.227   1.335   2.511 -1.2520  2.2709  0.4238
32131SOL    HW2 8118   1.085   1.322   2.561 -0.3737 -0.1577  2.5235
32132SOL     OW 8119   4.565   3.917   4.902 -0.2568  0.1442 -0.5301
32132SOL    HW1 8120   4.550   4.012   4.908 -0.3649  0.0447  1.7595
32132SOL    HW2 8121   4.647   3.908   4.854 -1.0114  1.2864 -2.1420
32133SOL     OW 8122  10.942   1.460  10.591  0.4141  0.6140 -0.1552
32133SOL    HW1 8123  10.906   1.389  10.645  1.5693 -0.2397 -0.4482
32133SOL    HW2 8124  10.913   1.540  10.634  0.4516 -0.0492  1.1691
32134SOL     OW 8125   6.752  10.805   3.618 -0.2107 -0.2393  0.1917
32134SOL    HW1 8126   6.747  10.899   3.601 -0.4762 -0.1002  1.0029
32134SOL    HW2 8127   6.844  10.789   3.639 -0.2892 -0.0402  0.7028
32135SOL     OW 8128   2.215  11.069   9.524  0.0204  0.4855  0.3307
32135SOL    HW1 8129   2.214  11.071   9.429 -1.9213  0.0763  0.3141
32135SOL    HW2 8130   2.286  11.009   9.547 -1.0996 -1.3665 -0.9109
32136SOL     OW 8131   4.729  10.570   7.451 -0.2249 -0.1788  0.1831
32136SOL    HW1 8132   4.727  10.645   7.510  1.3730 -0.7091  0.9764
32136SOL    HW2 8133   4.755  10.496   7.507  0.8554 -0.7958 -1.0719
32137SOL     OW 8134   9.554   7.418   3.994  0.2783  0.6764 -0.0369
32137SOL    HW1 8135   9.464   7.391   3.975  0.5408 -0.5582  0.3722
32137SOL    HW2 8136   9.554   7.513   3.983 -0.6409  0.5076 -1.8137
32138SOL     OW 8137   7.060   1.222   1.207 -0.2060  0.4526  0.0871
32138SOL    HW1 8138   7.131   1.182   1.157 -0.2460  2.3010 -1.5786
32138SOL    HW2 8139   7.103   1.287   1.262 -0.3098 -0.7018  1.6045
32139SOL     OW 8140   9.144   9.355   8.307 -0.2644  0.5337 -0.6648
32139SOL    HW1 8141   9.215   9.402   8.263  0.8619 -1.3245 -0.8994
32139SOL    HW2 8142   9.066   9.376   8.255  0.0794  2.4669 -0.5030
32140SOL     OW 8143   7.222   4.102   4.098 -0.4173 -0.7831 -0.1575
32140SOL    HW1 8144   7.274   4.174   4.062 -1.0261 -1.1157 -1.7854
32140SOL    HW2 8145   7.251   4.095   4.189  2.1796 -0.7679 -0.8990
32141SOL     OW 8146   9.060  10.248   0.791 -0.0126  0.5698  0.2145
32141SOL    HW1 8147   9.040  10.330   0.836  0.0550 -0.0492  1.4354
32141SOL    HW2 8148   9.130  10.208   0.844 -1.4182 -1.2070  0.8604
32142SOL     OW 8149   1.641   0.990   9.425  0.0645  0.3027 -0.3543
32142SOL    HW1 8150   1.722   0.984   9.373  1.5995 -0.1647  1.9470
32142SOL    HW2 8151   1.637   0.907   9.472 -1.1077  0.8192  0.4930
32143SOL     OW 8152  10.210   5.517   2.278 -0.2346  0.2389  0.0593
32143SOL    HW1 8153  10.161   5.478   2.351  0.4633  0.0288  0.4278
32143SOL    HW2 8154  10.294   5.470   2.279  0.0651  0.7643 -0.4048
32144SOL     OW 8155   0.006   0.527   4.398 -0.1690 -0.8558 -0.1960
32144SOL    HW1 8156   0.094   0.489   4.397  0.2402  0.0413  0.2034
32144SOL    HW2 8157   0.018   0.612   4.441 -0.9937 -0.1383 -1.3419
32145SOL     OW 8158   0.376   2.108   8.835 -0.0635  0.7407 -0.2928
32145SOL    HW1 8159   0.311   2.043   8.860  0.0747  0.2440 -1.1869
32145SOL    HW2 8160   0.431   2.119   8.913  0.2218 -0.5939 -0.2805
32146SOL     OW 8161   7.648   4.215   7.828 -0.2093 -0.0961 -0.4693
32146SOL    HW1 8162   7.592   4.227   7.905  4.2912 -1.1233  3.4160
32146SOL    HW2 8163   7.647   4.299   7.784 -0.2311  1.8638  2.9191
32147SOL     OW 8164   0.070   9.700  10.039 -0.9921  0.2646  0.2341
32147SOL    HW1 8165   0.052   9.768   9.975 -0.1291 -0.5480 -0.8956
32147SOL    HW2 8166   0.161   9.676  10.025 -1.5079 -1.7539 -0.0346
32148SOL     OW 8167   2.164   2.072   7.521  0.1167 -0.6028  0.1366
32148SOL    HW1 8168   2.165   2.117   7.606  1.9919 -0.0731 -0.1295
32148SOL    HW2 8169   2.200   1.985   7.539 -1.7087 -1.3728  0.2864
32149SOL     OW 8170   8.150  11.281   7.030 -0.2733 -0.4034 -0.0705
32149SOL    HW1 8171   8.229  11.312   7.074 -0.3898  1.3680 -1.0446
32149SOL    HW2 8172   8.082  11.286   7.098  0.3113 -1.4335  0.6206
32150SOL     OW 8173   0.293   0.683   6.959  0.2870  0.1761 -0.1339
32150SOL    HW1 8174   0.295   0.733   6.878  1.8751 -0.1652 -0.3424
32150SOL    HW2 8175   0.338   0.738   7.023  0.3361 -0.1704  0.1367
32151SOL     OW 8176   7.439   5.724   4.027 -0.4468 -0.1829  0.1429
32151SOL    HW1 8177   7.346   5.712   4.005 -0.6294 -1.4721  1.4804
32151SOL    HW2 8178   7.444   5.812   4.063 -1.4899 -0.6683  1.5597
32152SOL     OW 8179   8.181   4.675   4.960 -0.3322 -0.6722  0.0158
32152SOL    HW1 8180   8.154   4.654   5.049 -0.2354 -0.2056  0.1571
32152SOL    HW2 8181   8.136   4.610   4.905 -0.0819 -1.2032  0.4363
32153SOL     OW 8182   5.613   8.193   3.680 -0.6144 -0.5088  0.2863
32153SOL    HW1 8183   5.612   8.216   3.773  1.6761  1.4477 -0.0835
32153SOL    HW2 8184   5.705   8.179   3.660 -0.9085  0.3714 -1.9648
32154SOL     OW 8185   6.635   1.016   8.505 -0.8940  0.1190  0.0361
32154SOL    HW1 8186   6.543   1.002   8.528 -0.6905 -1.0437  0.2321
32154SOL    HW2 8187   6.683   0.963   8.568 -0.1883 -0.9131 -1.3129
32155SOL     OW 8188   7.785  11.572   8.566 -0.0632 -0.3644 -0.3920
32155SOL    HW1 8189   7.800  11.617   8.482  0.6935 -0.2146 -0.1771
32155SOL    HW2 8190   7.872  11.558   8.602 -0.4294  0.6028  0.9175
32156SOL     OW 8191   3.163   1.909   9.050 -0.2611 -0.7918  0.0263
32156SOL    HW1 8192   3.257   1.892   9.048 -0.0632 -0.1184  1.7973
32156SOL    HW2 8193   3.123   1.823   9.035  0.5741 -0.8170 -2.4566
32157SOL     OW 8194   1.074   7.393  11.111 -0.0793  0.1630  0.0671
32157SOL    HW1 8195   1.163   7.429  11.113 -0.5716  1.3685  1.4716
32157SOL    HW2 8196   1.058   7.374  11.018  1.4858  0.2715 -0.2585
32158SOL     OW 8197  10.090   0.498   9.135 -0.0274  0.3857 -0.0182
32158SOL    HW1 8198  10.135   0.493   9.051  1.2516  1.7456  0.5324
32158SOL    HW2 8199  10.086   0.592   9.154 -0.7563  0.1255  1.1901
32159SOL     OW 8200   1.477   3.572   5.393 -0.0074  0.2598  0.0720
32159SOL    HW1 8201   1.437   3.487   5.414  1.7994 -0.5804  0.3333
32159SOL    HW2 8202   1.417   3.612   5.331 -2.4893  0.1692  2.2632
32160SOL     OW 8203  11.147   0.511   0.157 -0.1557 -0.2970 -0.6939
32160SOL    HW1 8204  11.139   0.449   0.084 -2.1242 -1.0566  0.1056
32160SOL    HW2 8205  11.173   0.456   0.231 -2.3180 -0.3283  0.1177
32161SOL     OW 8206   8.502   4.152   5.929 -0.0040 -0.9998  0.1014
32161SOL    HW1 8207   8.489   4.141   6.023 -0.9170 -0.0483  0.1030
32161SOL    HW2 8208   8.485   4.245   5.913  1.6383 -0.8039 -0.7793
32162SOL     OW 8209  10.141   0.608  10.740 -0.5720  0.1625  0.1518
32162SOL    HW1 8210  10.145   0.619  10.835  0.3519 -0.5847  0.2182
32162SOL    HW2 8211  10.190   0.527  10.723 -1.6247 -0.2905 -0.8711
32163SOL     OW 8212   1.626   9.009  10.414 -0.5864  0.4879 -0.5807
32163SOL    HW1 8213   1.535   9.037  10.427 -0.7657  0.6644 -2.0171
32163SOL    HW2 8214   1.678   9.072  10.463 -1.2366  0.2937  0.3920
32164SOL     OW 8215   5.821   3.918   8.130  0.0990 -0.2804 -0.2708
32164SOL    HW1 8216   5.866   3.953   8.208 -0.4953 -0.4236  0.1446
32164SOL    HW2 8217   5.882   3.855   8.093  0.1812 -0.5986  0.3858
32165SOL     OW 8218   2.128   9.538  11.284  0.2581 -0.0756 -0.0379
32165SOL    HW1 8219   2.138   9.630  11.259  1.9672  0.1387  1.1810
32165SOL    HW2 8220   2.214   9.514  11.320 -0.4846 -1.8273  0.6861
32166SOL     OW 8221   3.982  11.895   6.018  0.3275 -0.1941  0.2748
32166SOL    HW1 8222   4.019  11.970   5.972  0.1582 -1.2023 -1.6223
32166SOL    HW2 8223   4.024  11.819   5.978 -2.3488 -1.2885 -0.7036
32167SOL     OW 8224  11.134   4.400   5.323 -0.0295 -0.7057  0.6799
32167SOL    HW1 8225  11.200   4.371   5.386  0.4845  0.7963  0.8882
32167SOL    HW2 8226  11.103   4.320   5.281  2.7608 -1.4042 -0.2458
32168SOL     OW 8227  11.709   8.311   8.089  0.0548 -0.2012 -0.4273
32168SOL    HW1 8228  11.648   8.376   8.054 -0.1345  0.6012  1.3241
32168SOL    HW2 8229  11.764   8.359   8.150 -0.0675 -1.6582  0.9131
32169SOL     OW 8230   1.905   3.858   5.780 -0.4339 -0.7427 -0.3410
32169SOL    HW1 8231   1.997   3.873   5.802 -0.4518 -0.5934 -0.3686
32169SOL    HW2 8232   1.884   3.774   5.822 -0.5814 -0.2609  0.5706
32170SOL     OW 8233   3.326   0.310   9.712 -0.7026  0.4759  0.1128
32170SOL    HW1 8234   3.373   0.229   9.734 -1.5823 -0.3977 -1.1278
32170SOL    HW2 8235   3.244   0.281   9.673 -2.1348  1.9828  1.8554
32171SOL     OW 8236   1.788  10.330  10.461 -0.3191 -0.4651  0.1142
32171SOL    HW1 8237   1.705  10.295  10.493  0.0720 -0.0811  1.6331
32171SOL    HW2 8238   1.764  10.411  10.417 -0.9491 -1.3535 -1.2344
32172SOL     OW 8239   0.545   3.073   7.047 -0.0052 -0.5295 -0.4185
32172SOL    HW1 8240   0.458   3.033   7.038  0.7081 -2.5070  0.7655
32172SOL    HW2 8241   0.584   3.027   7.121  2.2966 -0.1185 -1.3118
32173SOL     OW 8242  10.629   3.659   6.379 -0.0302 -0.1501 -0.5555
32173SOL    HW1 8243  10.649   3.738   6.329 -0.2060 -0.2334 -0.7585
32173SOL    HW2 8244  10.545   3.678   6.422  0.7453  0.4196  0.7552
32174SOL     OW 8245   2.531   9.147   2.231 -0.1437  0.0634  0.1448
32174SOL    HW1 8246   2.596   9.145   2.301  0.0290 -0.0127 -0.0166
32174SOL    HW2 8247   2.577   9.110   2.155 -0.8139 -1.3427  0.4045
32175SOL     OW 8248   0.207   3.982   2.189 -0.1007  0.6991 -0.2346
32175SOL    HW1 8249   0.160   3.962   2.108 -0.9638  0.5210  0.2971
32175SOL    HW2 8250   0.300   3.970   2.167 -0.3799 -0.2666 -0.9421
32176SOL     OW 8251   7.891   4.248   9.074 -0.3433 -0.7226  0.3548
32176SOL    HW1 8252   7.832   4.315   9.040  2.7795  3.0011  1.5328
32176SOL    HW2 8253   7.929   4.208   8.995 -3.2650 -2.3783 -0.3897
32177SOL     OW 8254   2.663   4.874   4.761  1.1801  0.4429 -0.0970
32177SOL    HW1 8255   2.755   4.862   4.784  0.8695 -0.5331  0.7232
32177SOL    HW2 8256   2.615   4.826   4.829  0.0201  1.9237  0.1970
32178SOL     OW 8257   5.504   3.697   3.218  0.1682 -0.1416 -0.5757
32178SOL    HW1 8258   5.484   3.619   3.166  0.8446  0.0048 -1.0705
32178SOL    HW2 8259   5.591   3.680   3.253  0.5539  0.6238 -1.1429
32179SOL     OW 8260   3.358   9.787   8.014 -0.3687  0.4345 -0.1605
32179SOL    HW1 8261   3.442   9.831   8.031 -1.4447  2.8738 -0.7154
32179SOL    HW2 8262   3.324   9.766   8.101 -0.3220  1.7864  0.2082
32180SOL     OW 8263   1.628   9.193  10.635  0.0366  0.1579  0.1461
32180SOL    HW1 8264   1.671   9.120  10.680 -0.7145 -0.8395 -0.7031
32180SOL    HW2 8265   1.637   9.267  10.695  2.5154 -0.0990  0.2174
32181SOL     OW 8266   9.244   3.424   7.442  0.0784 -0.1487 -1.1601
32181SOL    HW1 8267   9.249   3.515   7.469 -1.5937 -0.8192  1.8335
32181SOL    HW2 8268   9.334   3.401   7.420  0.6981  1.9241 -1.0327
32182SOL     OW 8269   6.164   9.721   6.595 -0.2926 -0.0074  0.0626
32182SOL    HW1 8270   6.180   9.771   6.675  1.6632 -0.3066 -0.1002
32182SOL    HW2 8271   6.142   9.633   6.625 -0.6366  0.1442  0.2692
32183SOL     OW 8272   6.884   5.181   9.708  0.0338 -0.1883 -0.4085
32183SOL    HW1 8273   6.917   5.107   9.759 -2.6295 -0.8901  0.4812
32183SOL    HW2 8274   6.850   5.242   9.773 -1.5636 -0.1385 -1.2266
32184SOL     OW 8275   5.709   2.649   1.273 -0.2830 -0.3328  0.1341
32184SOL    HW1 8276   5.623   2.661   1.313 -0.2591 -1.9788  0.7529
32184SOL    HW2 8277   5.741   2.567   1.309  0.3295 -1.2279 -2.2341
32185SOL     OW 8278   4.580   3.370  10.365  0.2510 -0.2327 -0.3025
32185SOL    HW1 8279   4.585   3.327  10.280 -1.1385 -1.2900  0.1152
32185SOL    HW2 8280   4.537   3.306  10.422 -2.1569  1.7793  0.2853
32186SOL     OW 8281   8.745   4.491   5.265 -0.1595  0.1421 -0.0111
32186SOL    HW1 8282   8.828   4.531   5.239  0.8205 -1.4242  0.5943
32186SOL    HW2 8283   8.712   4.547   5.335 -0.2506  1.4588 -1.0599
32187SOL     OW 8284   8.079   8.455  10.010 -0.4997  0.4080  0.1359
32187SOL    HW1 8285   8.039   8.535   9.975 -1.4880 -0.3547 -0.5492
32187SOL    HW2 8286   8.037   8.442  10.095 -2.0541 -0.5919 -0.7421
32188SOL     OW 8287   6.358   9.093   7.524  1.0713  0.4992 -0.2508
32188SOL    HW1 8288   6.408   9.169   7.553  1.2101  1.1010 -1.9762
32188SOL    HW2 8289   6.314   9.121   7.444 -0.0109 -0.8074 -0.1585
32189SOL     OW 8290   2.010   2.694   8.872  0.3957 -0.1507  0.6780
32189SOL    HW1 8291   2.035   2.701   8.780  1.8372 -2.1697  0.8578
32189SOL    HW2 8292   1.963   2.611   8.878  0.1511  0.0528  1.7247
32190SOL     OW 8293   9.862   8.773   4.988  0.2508 -0.1121  0.2760
32190SOL    HW1 8294   9.854   8.749   5.080 -0.6361  1.4635  0.6387
32190SOL    HW2 8295   9.896   8.863   4.989  0.9101 -0.3182 -0.9634
32191SOL     OW 8296  11.419   8.035  11.158  0.4858 -0.1769  0.3903
32191SOL    HW1 8297  11.355   8.100  11.189 -0.4906  0.3488 -2.4380
32191SOL    HW2 8298  11.496   8.087  11.134 -0.0298 -0.0936 -1.1887
32192SOL     OW 8299   5.157   2.118   1.832 -0.1918 -0.3150  0.6186
32192SOL    HW1 8300   5.146   2.034   1.788  2.2578  0.4342 -1.6735
32192SOL    HW2 8301   5.252   2.130   1.838 -0.4327  2.5786  0.2253
32193SOL     OW 8302   1.616   0.170   3.180 -0.2780  0.2959  0.2017
32193SOL    HW1 8303   1.534   0.199   3.221 -0.7988  0.2949 -0.8292
32193SOL    HW2 8304   1.606   0.193   3.088  0.0975 -1.4046 -0.2902
32194SOL     OW 8305  10.809  10.510   5.932 -0.4054 -0.5273  0.2514
32194SOL    HW1 8306  10.852  10.585   5.891  1.7086 -1.1012  1.2235
32194SOL    HW2 8307  10.801  10.535   6.024 -0.5560 -1.1091  0.3987
32195SOL     OW 8308   9.931   5.076   3.728 -0.3478 -0.3272  0.3993
32195SOL    HW1 8309   9.880   5.094   3.807 -1.4814 -0.6039 -0.2585
32195SOL    HW2 8310   9.882   5.117   3.657  0.4756 -0.3775 -0.2270
32196SOL     OW 8311   1.749   4.008   9.651 -0.2995 -0.0529 -0.4114
32196SOL    HW1 8312   1.669   4.057   9.673  0.3839  1.9055 -1.9306
32196SOL    HW2 8313   1.801   4.010   9.731 -1.2845 -0.3561  0.2586
32197SOL     OW 8314   4.569   2.128   1.277 -0.0220  0.2539 -0.1339
32197SOL    HW1 8315   4.614   2.048   1.250 -1.6099 -1.5751  2.1962
32197SOL    HW2 8316   4.494   2.134   1.219  0.4166  0.4180 -0.6958
32198SOL     OW 8317   0.733   1.073  10.315 -0.3670  0.5543 -0.0457
32198SOL    HW1 8318   0.743   1.167  10.301 -0.0029  0.4654 -0.4099
32198SOL    HW2 8319   0.651   1.051  10.271 -0.1530  0.6026 -0.4797
32199SOL     OW 8320  10.720   5.100   1.758 -0.1201 -0.3992  0.2363
32199SOL    HW1 8321  10.651   5.108   1.692 -0.2381 -0.6795  0.3250
32199SOL    HW2 8322  10.793   5.059   1.711 -0.5754 -1.6040  0.5348
32200SOL     OW 8323   5.303   2.436  11.221  0.3198  0.1175  0.9765
32200SOL    HW1 8324   5.266   2.378  11.155 -0.2277  1.1778  0.3289
32200SOL    HW2 8325   5.368   2.382  11.266 -0.1526 -0.9863  0.3863
32201SOL     OW 8326   3.957   9.025   8.225  0.2928  0.1795 -0.4880
32201SOL    HW1 8327   3.981   9.096   8.166 -0.7273  0.0319 -1.1190
32201SOL    HW2 8328   3.904   9.067   8.292  1.9135  0.4407  0.6773
32202SOL     OW 8329  10.235   2.331   4.433  0.3872  0.2668 -0.0185
32202SOL    HW1 8330  10.161   2.279   4.464 -0.3146  1.1336 -0.1844
32202SOL    HW2 8331  10.268   2.283   4.356 -0.8667  0.5484 -0.7649
32203SOL     OW 8332   4.528   7.346   8.685 -0.1883 -0.0920  0.3930
32203SOL    HW1 8333   4.524   7.252   8.668  1.7281 -0.2101  0.4501
32203SOL    HW2 8334   4.455   7.382   8.635 -1.1625 -1.6312  0.6370
32204SOL     OW 8335   3.935   8.031   3.576  0.0943 -0.4587 -0.1033
32204SOL    HW1 8336   3.976   8.042   3.490  0.5171  1.1042  0.2622
32204SOL    HW2 8337   3.857   7.980   3.558 -0.8655  1.4059 -1.7758
32205SOL     OW 8338  11.267   5.329   6.105  0.9656 -0.1647  0.1156
32205SOL    HW1 8339  11.202   5.351   6.172  1.7285  0.8794  0.5399
32205SOL    HW2 8340  11.312   5.253   6.141 -1.8410 -2.8078 -1.4628
32206SOL     OW 8341   5.981   6.397  11.798  0.1136 -0.3819  0.6368
32206SOL    HW1 8342   5.949   6.308  11.788  0.7231 -0.6166  0.7151
32206SOL    HW2 8343   5.959   6.440  11.715  0.7236 -0.9002  0.1921
32207SOL     OW 8344  10.323   6.897  10.481  0.6166 -0.3118  0.0025
32207SOL    HW1 8345  10.292   6.958  10.414  0.0296  0.5161  1.0067
32207SOL    HW2 8346  10.379   6.835  10.433 -0.2230 -0.0669 -1.3336
32208SOL     OW 8347   0.014   0.959   6.995  0.4030 -0.2106  0.9094
32208SOL    HW1 8348  -0.005   0.873   6.957 -1.7120 -0.0152  1.4116
32208SOL    HW2 8349   0.068   1.003   6.929  1.1333 -1.7468  0.4431
32209SOL     OW 8350   2.156   9.369   8.542  0.3788 -0.3359 -0.3027
32209SOL    HW1 8351   2.124   9.373   8.452  0.6566 -0.4980 -0.4106
32209SOL    HW2 8352   2.167   9.275   8.559 -3.1080 -0.6210  1.1260
32210SOL     OW 8353   4.763   1.403   3.340  0.7442 -0.4377  0.3924
32210SOL    HW1 8354   4.795   1.471   3.400  2.6909 -0.6958 -0.2663
32210SOL    HW2 8355   4.732   1.452   3.264  0.0089 -0.1970  0.8384
32211SOL     OW 8356  10.653  11.224  11.677 -0.1079  0.2020 -0.2109
32211SOL    HW1 8357  10.657  11.279  11.599 -1.1624 -0.2719 -0.6194
32211SOL    HW2 8358  10.723  11.160  11.664  0.5348  0.8740 -0.1610
32212SOL     OW 8359   8.041   8.409  10.268 -1.0536  0.0335 -0.8681
32212SOL    HW1 8360   8.128   8.399  10.307 -1.1016 -0.1882 -0.8142
32212SOL    HW2 8361   7.982   8.414  10.344 -1.2147 -1.0115 -0.9055
32213SOL     OW 8362   4.261   9.042  11.201 -0.9261  0.5278  0.1738
32213SOL    HW1 8363   4.244   9.066  11.292  1.5927  1.0073  0.5954
32213SOL    HW2 8364   4.276   8.948  11.204 -2.1325  0.3137  0.0004
32214SOL     OW 8365   8.192   2.101   0.790  0.0805  0.6255  0.5332
32214SOL    HW1 8366   8.249   2.139   0.723 -2.3024  2.3674 -0.6383
32214SOL    HW2 8367   8.198   2.163   0.864  1.4096 -0.4158  1.3462
32215SOL     OW 8368   9.364   1.269   4.571  0.1241 -0.0393 -0.2114
32215SOL    HW1 8369   9.304   1.215   4.519  2.0265 -1.0140 -1.4934
32215SOL    HW2 8370   9.448   1.225   4.564  1.0815  1.4563  1.2898
32216SOL     OW 8371  11.411   7.833   1.590 -0.0691 -0.2530 -0.3904
32216SOL    HW1 8372  11.402   7.926   1.611 -3.1291 -0.1828 -1.5009
32216SOL    HW2 8373  11.447   7.832   1.501 -0.3167 -0.0887 -0.4958
32217SOL     OW 8374   7.634   0.899   9.319  0.4464  0.2602 -0.0465
32217SOL    HW1 8375   7.712   0.914   9.373  0.7679  0.5554 -0.5837
32217SOL    HW2 8376   7.635   0.971   9.256  0.7317 -0.7174 -1.2040
32218SOL     OW 8377   2.775   6.555   6.583  0.0922  0.2780 -0.3212
32218SOL    HW1 8378   2.790   6.627   6.522 -0.1173 -0.2190 -0.9784
32218SOL    HW2 8379   2.862   6.524   6.606  0.2596  1.6709  1.1454
32219SOL     OW 8380   5.078   9.617  10.826  0.0543 -0.0009  0.0822
32219SOL    HW1 8381   5.094   9.696  10.775 -1.3135  0.1685 -0.1392
32219SOL    HW2 8382   5.085   9.645  10.917 -0.7022  0.4525  0.0088
32220SOL     OW 8383   9.911   6.588  10.367 -0.2540 -0.2259  0.4831
32220SOL    HW1 8384   9.866   6.673  10.367  0.9303  0.4500  1.9760
32220SOL    HW2 8385   9.873   6.541  10.442 -2.7101 -2.1063 -1.7695
32221SOL     OW 8386   5.809   2.121   5.726 -0.3035 -0.1326 -0.3794
32221SOL    HW1 8387   5.830   2.133   5.819  0.5365 -0.0775 -0.5735
32221SOL    HW2 8388   5.717   2.093   5.726  0.6342 -3.7012  0.7114
32222SOL     OW 8389   5.413   7.518  10.740  0.0285  0.1097  0.6055
32222SOL    HW1 8390   5.449   7.561  10.662  1.6676 -1.5107  0.3940
32222SOL    HW2 8391   5.386   7.590  10.797  0.0108  1.3492 -0.9096
32223SOL     OW 8392   1.108   4.835   0.015 -0.2670 -0.0805 -0.1785
32223SOL    HW1 8393   1.161   4.758  -0.006  0.1987  0.0089  0.6233
32223SOL    HW2 8394   1.113   4.842   0.111  1.1262  1.9268 -0.3220
32224SOL     OW 8395   4.081  11.586   2.116  0.0556  0.0289  0.2626
32224SOL    HW1 8396   4.142  11.659   2.118  1.9852 -1.4544 -0.6678
32224SOL    HW2 8397   4.008  11.616   2.061  0.9552  1.1447 -0.3522
32225SOL     OW 8398   7.402   9.887   7.198  0.2567  0.4462  0.0787
32225SOL    HW1 8399   7.369   9.871   7.286  1.0019 -0.3401  0.2318
32225SOL    HW2 8400   7.428   9.979   7.198  1.6527  0.0975  1.1801
32226SOL     OW 8401   9.937   1.009   1.920  0.4708  0.2260 -0.1710
32226SOL    HW1 8402   9.871   0.960   1.970  0.3333  0.1074 -0.4659
32226SOL    HW2 8403  10.014   0.951   1.919  0.8606  0.7065  0.8656
32227SOL     OW 8404   4.627   8.818   8.939 -0.2151  0.0863 -0.1802
32227SOL    HW1 8405   4.592   8.905   8.920 -1.3444 -0.2143  0.4283
32227SOL    HW2 8406   4.635   8.816   9.034 -1.7044 -0.9943 -0.0324
32228SOL     OW 8407   1.160   0.698  10.418  0.0066 -0.0340 -0.4530
32228SOL    HW1 8408   1.229   0.662  10.473  0.3336 -0.3386 -1.0601
32228SOL    HW2 8409   1.106   0.749  10.478 -0.0619 -0.9635  0.2777
32229SOL     OW 8410  11.051   1.279   3.060  0.0264 -0.6872 -0.0736
32229SOL    HW1 8411  11.135   1.305   3.021  0.2810  0.4801  1.1683
32229SOL    HW2 8412  11.065   1.286   3.154 -1.5953  0.0253  0.1551
32230SOL     OW 8413   9.805   2.190  10.253 -0.6051  0.3605  0.3922
32230SOL    HW1 8414   9.716   2.175  10.282 -0.7305  2.8869  1.4651
32230SOL    HW2 8415   9.859   2.140  10.314 -1.1608  0.7894  1.2378
32231SOL     OW 8416  11.879  10.199   7.312  0.0855 -0.4107 -0.0950
32231SOL    HW1 8417  11.869  10.127   7.374  0.8534  0.3618  0.9804
32231SOL    HW2 8418  11.790  10.219   7.284 -0.1557 -1.6184 -0.2377
32232SOL     OW 8419   2.015   9.728  11.801  0.4073 -0.6621  0.3721
32232SOL    HW1 8420   2.003   9.725  11.706  0.7864  0.4686  0.2825
32232SOL    HW2 8421   1.930   9.756  11.835 -0.0686 -2.1173  0.4731
32233SOL     OW 8422   5.943   6.226  11.301  0.1193 -0.1846 -0.4241
32233SOL    HW1 8423   6.029   6.184  11.289  0.3016 -0.3194  1.2256
32233SOL    HW2 8424   5.914   6.197  11.387 -1.2569  0.4690 -0.6523
32234SOL     OW 8425   2.346  10.133  11.007  0.1160  0.0590 -0.1082
32234SOL    HW1 8426   2.379  10.207  10.956  0.5874  0.2048  0.3975
32234SOL    HW2 8427   2.413  10.065  10.997  0.3036  0.1547  0.4619
32235SOL     OW 8428  11.266   2.187   3.256  0.2863  0.4434  0.3318
32235SOL    HW1 8429  11.356   2.216   3.266  0.5566 -0.3594  0.2548
32235SOL    HW2 8430  11.256   2.173   3.162  0.1035  0.4463  0.3501
32236SOL     OW 8431   7.904  10.406   4.099 -0.1210 -0.1083 -0.1383
32236SOL    HW1 8432   7.958  10.474   4.060  0.5140 -1.4715 -1.7642
32236SOL    HW2 8433   7.909  10.422   4.193  0.9085  1.4002 -0.4248
32237SOL     OW 8434   4.167   5.116   3.448 -0.0253  0.4060  0.0788
32237SOL    HW1 8435   4.220   5.153   3.519 -1.0745  1.3520  0.3963
32237SOL    HW2 8436   4.188   5.023   3.449  0.6897  0.5582  1.0072
32238SOL     OW 8437   1.924   4.720   2.166 -0.0429 -0.7139  0.0495
32238SOL    HW1 8438   1.847   4.718   2.222  0.0739  1.5796  0.3730
32238SOL    HW2 8439   1.980   4.649   2.199 -1.5692 -1.7763  0.4229
32239SOL     OW 8440   5.980   7.179   3.934  0.6655  0.0985  0.4969
32239SOL    HW1 8441   5.925   7.192   3.856  0.6017 -1.1119  0.3186
32239SOL    HW2 8442   5.991   7.084   3.939  0.9962  0.1931  1.7471
32240SOL     OW 8443   2.379   0.052   7.996 -0.0431 -0.0291 -0.1963
32240SOL    HW1 8444   2.348   0.056   7.906  1.1433  0.0655 -0.6230
32240SOL    HW2 8445   2.462   0.003   7.990  0.0924  0.0553  0.8236
32241SOL     OW 8446   4.757   3.339   3.255 -0.0460  0.3462  0.1234
32241SOL    HW1 8447   4.805   3.422   3.253 -0.2274  0.5154  1.6148
32241SOL    HW2 8448   4.823   3.273   3.231  0.5543  0.7443  0.6278
32242SOL     OW 8449   9.610   0.344   7.383  0.5188  0.1271 -0.2375
32242SOL    HW1 8450   9.551   0.412   7.415  1.7492  1.4255 -0.6053
32242SOL    HW2 8451   9.572   0.262   7.414 -0.6072  1.0306  0.8628
32243SOL     OW 8452  10.587   7.447   9.042 -0.3678 -0.3139 -0.1302
32243SOL    HW1 8453  10.562   7.539   9.051  2.2202  0.2811  2.6736
32243SOL    HW2 8454  10.674   7.442   9.081  0.2283 -3.7203 -1.5505
32244SOL     OW 8455   4.160   5.775   7.537  0.0569 -0.3531 -0.1070
32244SOL    HW1 8456   4.171   5.870   7.540 -0.2723 -0.2918 -0.7157
32244SOL    HW2 8457   4.243   5.742   7.503  0.6945 -0.4064  1.4155
32245SOL     OW 8458   6.744   4.612   5.693  0.4174 -0.5319 -0.3061
32245SOL    HW1 8459   6.733   4.704   5.719 -1.5924 -0.9892  0.6577
32245SOL    HW2 8460   6.724   4.611   5.599  1.1542  0.0995 -0.4832
32246SOL     OW 8461   7.584   3.492   1.999  0.0918  0.3992  0.3563
32246SOL    HW1 8462   7.543   3.503   1.914 -1.5254 -1.5999  0.7942
32246SOL    HW2 8463   7.552   3.566   2.051 -0.6933  0.3933 -0.1168
32247SOL     OW 8464   3.675   2.577   1.304  0.4172 -0.2242 -0.1257
32247SOL    HW1 8465   3.605   2.638   1.285  0.5434 -0.1885 -0.4933
32247SOL    HW2 8466   3.744   2.630   1.343 -0.0632 -0.3930  0.9676
32248SOL     OW 8467   7.619   5.897  10.038  0.1230 -0.3882  0.0473
32248SOL    HW1 8468   7.677   5.960  10.080  1.6195 -3.2310  2.5010
32248SOL    HW2 8469   7.604   5.829  10.103 -2.0277 -2.2753 -2.1950
32249SOL     OW 8470   4.996   9.488   4.639 -0.3701 -0.2452 -0.1734
32249SOL    HW1 8471   4.968   9.402   4.670  0.7845 -0.5632  0.0516
32249SOL    HW2 8472   5.091   9.479   4.627 -0.0169  1.3610  1.0655
32250SOL     OW 8473   6.708   0.696  10.923 -0.1708  0.1378  0.0356
32250SOL    HW1 8474   6.775   0.641  10.964  0.0101  0.4403  0.1476
32250SOL    HW2 8475   6.756   0.771  10.890 -0.3788  0.1021 -0.3553
32251SOL     OW 8476   8.090   5.710   8.376 -0.4796  0.4683  0.3419
32251SOL    HW1 8477   8.116   5.630   8.423  2.1671  0.0711 -1.5226
32251SOL    HW2 8478   8.014   5.684   8.325  0.0968 -0.7789  0.0791
32252SOL     OW 8479   2.543   9.405   1.084 -0.4849  0.0317  0.5005
32252SOL    HW1 8480   2.483   9.463   1.132  0.0110  1.1795 -0.2376
32252SOL    HW2 8481   2.544   9.440   0.995 -0.1792 -1.1323  0.0321
32253SOL     OW 8482   2.522  11.746   8.891  0.7382  0.3230 -0.0080
32253SOL    HW1 8483   2.451  11.687   8.915 -0.3630  0.7073 -2.0848
32253SOL    HW2 8484   2.591  11.728   8.955 -0.3033 -1.7619  0.6139
32254SOL     OW 8485  11.054   4.059  11.282  0.3504 -0.0830  0.0541
32254SOL    HW1 8486  11.071   4.130  11.345 -0.6760  1.8367 -1.6995
32254SOL    HW2 8487  11.136   4.052  11.232  0.4678 -0.1571  0.2563
32255SOL     OW 8488   3.218   0.882   0.251  0.8614 -0.4585  0.5108
32255SOL    HW1 8489   3.188   0.796   0.221 -0.0148  0.0804 -0.2003
32255SOL    HW2 8490   3.219   0.875   0.346 -0.6845 -0.7918  0.5245
32256SOL     OW 8491   9.199   8.555   6.702 -0.1551 -0.3734 -0.5177
32256SOL    HW1 8492   9.277   8.500   6.701 -1.2132 -2.1197  1.9546
32256SOL    HW2 8493   9.181   8.569   6.795 -1.2834  2.2730 -1.0513
32257SOL     OW 8494   5.292   0.130   8.816  0.3763  0.4653  0.2947
32257SOL    HW1 8495   5.205   0.143   8.854  0.3344  0.3685  0.2331
32257SOL    HW2 8496   5.311   0.038   8.832  0.2236  0.3473 -0.1988
32258SOL     OW 8497   9.037   6.750  10.125 -0.1437  0.3712  0.3206
32258SOL    HW1 8498   8.955   6.728  10.082  0.1165  0.6385 -0.3249
32258SOL    HW2 8499   9.098   6.683  10.096  0.1037  0.7077  0.0495
32259SOL     OW 8500   9.746   5.232   3.541 -0.2265  0.2310 -0.2109
32259SOL    HW1 8501   9.680   5.271   3.599  0.5559  0.6310  0.4430
32259SOL    HW2 8502   9.784   5.306   3.494  0.5615  0.1602  0.2862
32260SOL     OW 8503   7.036  10.230   3.117  0.2856 -0.1469 -0.2450
32260SOL    HW1 8504   6.945  10.211   3.140  0.4370 -1.7492 -0.8519
32260SOL    HW2 8505   7.031  10.313   3.069 -0.8378 -0.1679 -0.2046
32261SOL     OW 8506   9.895   2.217   0.716 -0.1709  0.0095 -0.5410
32261SOL    HW1 8507   9.949   2.166   0.657 -2.1563  0.2781 -2.7480
32261SOL    HW2 8508   9.810   2.222   0.672 -1.1581  1.9567  1.4006
32262SOL     OW 8509   2.591   3.291   6.739 -0.0080 -0.1038  0.0169
32262SOL    HW1 8510   2.545   3.214   6.706  0.8947 -1.0386  0.8945
32262SOL    HW2 8511   2.523   3.341   6.784 -0.2483 -1.3644  1.1149
32263SOL     OW 8512   3.155   2.552   0.141  0.4962 -0.2526 -0.1705
32263SOL    HW1 8513   3.082   2.490   0.145 -1.5009  1.9253 -0.4666
32263SOL    HW2 8514   3.209   2.520   0.069  0.3660 -2.4085  0.5959
32264SOL     OW 8515   7.129  11.762  11.477  0.3996 -0.1096 -0.0913
32264SOL    HW1 8516   7.223  11.749  11.469  0.0997 -1.7034 -1.5577
32264SOL    HW2 8517   7.103  11.801  11.394 -0.0442  1.9627  0.9476
32265SOL     OW 8518   8.370   3.677  11.955 -0.4979  0.0413  0.7646
32265SOL    HW1 8519   8.386   3.584  11.939  0.6348  0.4825 -1.0365
32265SOL    HW2 8520   8.368   3.685  12.050  1.1297 -1.5840  1.0045
32266SOL     OW 8521   1.679   3.496  10.123 -0.2098 -0.2756 -0.4550
32266SOL    HW1 8522   1.699   3.410  10.086 -0.5327 -0.5252 -0.0588
32266SOL    HW2 8523   1.751   3.552  10.094  1.6632 -1.3846  1.8146
32267SOL     OW 8524   6.029  11.843   7.091  0.2927 -0.3684  0.3671
32267SOL    HW1 8525   5.950  11.830   7.144  2.0220  0.7406  3.4898
32267SOL    HW2 8526   6.070  11.757   7.088  0.2556 -0.4138  0.9969
32268SOL     OW 8527  10.878   1.075   9.616 -0.5103  0.1333  0.2685
32268SOL    HW1 8528  10.955   1.068   9.559 -1.3414 -0.2865 -0.8543
32268SOL    HW2 8529  10.879   1.165   9.648 -0.6435  0.7548 -1.3782
32269SOL     OW 8530   5.785  10.383   9.023 -0.0619 -0.4218  0.1195
32269SOL    HW1 8531   5.787  10.360   9.115  1.1480 -0.0066  0.2180
32269SOL    HW2 8532   5.790  10.478   9.022  1.8984 -0.4764 -0.3701
32270SOL     OW 8533   0.208   4.000   8.218 -0.4081 -0.2961  0.3623
32270SOL    HW1 8534   0.172   3.911   8.225 -1.2258  0.1012  1.8595
32270SOL    HW2 8535   0.228   4.024   8.309 -2.6180  1.9807  0.3470
32271SOL     OW 8536   4.784   6.682   0.996 -0.3621  0.5543  0.3126
32271SOL    HW1 8537   4.715   6.639   0.945  0.3963  0.3647 -0.5823
32271SOL    HW2 8538   4.798   6.623   1.070  0.3799 -0.5827 -0.6849
32272SOL     OW 8539   4.045   5.479   0.613  0.3914 -0.2405 -0.1072
32272SOL    HW1 8540   3.996   5.469   0.532 -1.0791  1.0837  0.5629
32272SOL    HW2 8541   3.981   5.460   0.682  1.0256  0.7205  0.7814
32273SOL     OW 8542   3.264   6.852   6.803  0.1602  0.0393  0.2968
32273SOL    HW1 8543   3.327   6.869   6.873 -0.5315  0.8049  0.7491
32273SOL    HW2 8544   3.193   6.805   6.846  0.1015 -0.2009 -0.0631
32274SOL     OW 8545  10.402   3.201   8.440 -0.0696 -0.2219  0.1466
32274SOL    HW1 8546  10.453   3.275   8.407  0.6003 -0.1646  1.2858
32274SOL    HW2 8547  10.464   3.129   8.444 -0.1879 -0.2784  1.0859
32275SOL     OW 8548   5.449   4.778   5.175 -0.0299  0.1084 -0.0689
32275SOL    HW1 8549   5.427   4.706   5.116 -0.5620  0.5271 -0.3820
32275SOL    HW2 8550   5.386   4.769   5.247 -0.6213  0.7291 -0.4962
32276SOL     OW 8551   9.751   1.930   3.316  0.4367 -0.0753  0.0144
32276SOL    HW1 8552   9.658   1.906   3.322  0.4644  0.1365  1.4057
32276SOL    HW2 8553   9.754   1.995   3.245 -0.5075  0.0921  0.1170
32277SOL     OW 8554   3.784   6.946   1.501 -0.0957  0.2492  0.6226
32277SOL    HW1 8555   3.694   6.976   1.513 -0.4377  0.5820 -2.0879
32277SOL    HW2 8556   3.797   6.880   1.569 -1.3778  2.1664  2.8959
32278SOL     OW 8557   2.277   9.503   7.438 -0.5269 -0.3146  0.0087
32278SOL    HW1 8558   2.263   9.581   7.385 -2.8075 -0.2022  0.7071
32278SOL    HW2 8559   2.190   9.465   7.450  0.2015 -1.5698  1.8029
32279SOL     OW 8560   6.125   2.577   3.586 -0.1059  0.3135 -0.3351
32279SOL    HW1 8561   6.134   2.648   3.650 -0.1619 -0.4129  0.4836
32279SOL    HW2 8562   6.197   2.517   3.606  0.1728  0.3233 -1.2730
32280SOL     OW 8563   0.561   2.952   5.817 -0.3866  0.0656 -0.2877
32280SOL    HW1 8564   0.610   2.948   5.736  0.5314  0.8233  0.2155
32280SOL    HW2 8565   0.585   3.036   5.856  1.8458 -1.6476  2.4018
32281SOL     OW 8566   7.285   6.140   8.376 -0.2826 -0.1614  0.6223
32281SOL    HW1 8567   7.248   6.223   8.344  0.0247 -0.7382 -1.3259
32281SOL    HW2 8568   7.343   6.166   8.448  2.6212  1.7972 -2.1854
32282SOL     OW 8569   1.446   5.902   8.851 -0.0149  0.1922 -0.0435
32282SOL    HW1 8570   1.432   5.890   8.945 -0.2686 -3.3455 -0.3901
32282SOL    HW2 8571   1.358   5.908   8.814 -0.0760 -1.4435 -0.2603
32283SOL     OW 8572  10.345  11.569   6.428  0.8077 -0.4778 -0.0743
32283SOL    HW1 8573  10.269  11.514   6.408  1.7908 -0.9162 -3.2007
32283SOL    HW2 8574  10.312  11.659   6.420 -0.0242 -0.5965  1.6585
32284SOL     OW 8575   6.652  10.268   7.874 -0.4033  0.1807  0.3661
32284SOL    HW1 8576   6.680  10.235   7.788 -0.1567 -1.4754  1.0581
32284SOL    HW2 8577   6.732  10.270   7.926 -0.5214  1.3514  0.5485
32285SOL     OW 8578   2.969  10.993   9.712 -0.3185  0.2263  0.5118
32285SOL    HW1 8579   3.013  10.922   9.665 -2.1029 -0.1406 -0.7137
32285SOL    HW2 8580   3.017  11.001   9.794  1.6193 -0.5368 -0.4871
32286SOL     OW 8581   2.141   3.827   0.244 -0.8110 -0.0810  0.4696
32286SOL    HW1 8582   2.159   3.735   0.226  1.3081  0.2173  0.8269
32286SOL    HW2 8583   2.098   3.827   0.330  0.2489 -0.6659  1.0084
32287SOL     OW 8584   9.173   2.438   0.162 -0.2363  0.3571  0.0910
32287SOL    HW1 8585   9.114   2.425   0.087 -0.4556  0.4164  0.2531
32287SOL    HW2 8586   9.239   2.498   0.129 -0.0514 -0.0019 -0.2079
32288SOL     OW 8587   0.675  11.593   5.919  0.3606  0.4707 -0.5298
32288SOL    HW1 8588   0.628  11.675   5.905  0.4895  0.4330 -1.2457
32288SOL    HW2 8589   0.609  11.525   5.908  0.8062  0.3471 -2.9390
32289SOL     OW 8590   4.739   1.041   2.532 -0.3617 -0.1074 -0.1269
32289SOL    HW1 8591   4.771   1.118   2.579 -1.4751  0.4321 -0.2190
32289SOL    HW2 8592   4.764   1.057   2.441 -1.1027  0.4488 -0.2454
32290SOL     OW 8593   5.392  10.088   8.662 -0.0139  0.2458 -0.0478
32290SOL    HW1 8594   5.349  10.019   8.713 -0.0015  0.2181 -0.0747
32290SOL    HW2 8595   5.331  10.161   8.664  0.9443  1.0524  1.8980
32291SOL     OW 8596   2.110  11.697   3.014 -0.5946  0.5246  0.2482
32291SOL    HW1 8597   2.099  11.717   3.107 -3.2852 -1.1266  0.3755
32291SOL    HW2 8598   2.113  11.783   2.972 -0.4538  1.2904  1.7354
32292SOL     OW 8599   5.846   7.811   0.064 -0.2475 -0.1449 -0.2778
32292SOL    HW1 8600   5.783   7.814  -0.007  1.2568  1.9395 -1.6401
32292SOL    HW2 8601   5.922   7.859   0.031  0.9308 -0.0258  2.3432
32293SOL     OW 8602   5.805   5.214  11.797  0.3596  0.1189 -0.2067
32293SOL    HW1 8603   5.783   5.256  11.880  1.6364  1.0117 -0.2819
32293SOL    HW2 8604   5.730   5.233  11.740 -0.5137 -0.4870  0.7262
32294SOL     OW 8605   1.954   0.391   1.965  0.1979 -0.3866  0.1369
32294SOL    HW1 8606   1.980   0.481   1.944  0.2800 -0.3776  0.2734
32294SOL    HW2 8607   2.022   0.337   1.926 -0.1462 -0.4229 -0.4311
32295SOL     OW 8608  11.902   1.979  11.741 -0.2547 -0.0125  0.0087
32295SOL    HW1 8609  11.888   2.044  11.672  1.7356 -0.7900 -1.2078
32295SOL    HW2 8610  11.995   1.987  11.763 -0.2228 -1.6890  0.6179
32296SOL     OW 8611   2.137   8.644  11.473 -0.2137  0.1995 -0.5474
32296SOL    HW1 8612   2.118   8.642  11.379 -0.5487 -0.2861 -0.4731
32296SOL    HW2 8613   2.053   8.623  11.514  0.4941 -2.2243 -0.2173
32297SOL     OW 8614   7.023   8.278   2.175  0.0814  0.1845 -0.5900
32297SOL    HW1 8615   6.991   8.309   2.090  0.5526  1.3105 -0.3696
32297SOL    HW2 8616   7.090   8.341   2.200 -1.7985  1.3489  1.8070
32298SOL     OW 8617  11.137   1.461   7.440 -0.6517  0.1056 -0.6857
32298SOL    HW1 8618  11.095   1.434   7.522 -1.4345  1.5288 -0.5880
32298SOL    HW2 8619  11.200   1.391   7.421  1.3934  0.8987  2.4567
32299SOL     OW 8620   3.422   3.148   8.958 -0.6135  0.2331  0.1717
32299SOL    HW1 8621   3.515   3.135   8.976 -0.5670  2.0498  1.5434
32299SOL    HW2 8622   3.377   3.099   9.027 -0.6394  0.2271  0.1503
32300SOL     OW 8623   2.128  10.204   4.040  0.4197  0.4466  0.0839
32300SOL    HW1 8624   2.057  10.265   4.058 -0.7467 -1.1914  1.2301
32300SOL    HW2 8625   2.199  10.260   4.007 -0.5811  2.4034  1.0704
32301SOL     OW 8626  10.999   9.817  10.713  0.6863 -0.6582  0.5326
32301SOL    HW1 8627  10.954   9.849  10.791 -1.0054 -0.4717 -0.4676
32301SOL    HW2 8628  11.050   9.892  10.681 -0.8942  0.1936 -0.1171
32302SOL     OW 8629   4.704   3.408   5.484  0.3430 -0.2448 -0.3399
32302SOL    HW1 8630   4.686   3.315   5.498 -2.2499  0.4287  1.7701
32302SOL    HW2 8631   4.621   3.444   5.453  0.1444  1.8581  2.2054
32303SOL     OW 8632  11.916  11.264   9.357 -0.1632  0.2467 -0.1404
32303SOL    HW1 8633  11.850  11.236   9.293 -0.7050  1.0744  0.0416
32303SOL    HW2 8634  11.998  11.227   9.325 -0.3987  0.7970 -1.4057
32304SOL     OW 8635   5.434   0.670  10.693  0.6596  0.1789 -0.1092
32304SOL    HW1 8636   5.350   0.684  10.650  0.2595 -0.2534  0.5040
32304SOL    HW2 8637   5.410   0.645  10.783  1.4648  1.6972  0.5670
32305SOL     OW 8638   9.598   6.858  10.508 -0.6082 -0.6330  0.0142
32305SOL    HW1 8639   9.668   6.912  10.544  0.1744 -1.4525 -0.2310
32305SOL    HW2 8640   9.522   6.916  10.505 -0.2464 -0.0533  1.3418
32306SOL     OW 8641  11.033   2.281   6.385  0.3058  0.0171 -0.0465
32306SOL    HW1 8642  11.100   2.320   6.441 -0.4474  1.1576  0.1047
32306SOL    HW2 8643  11.026   2.341   6.310 -3.1588  2.2068  1.7248
32307SOL     OW 8644   1.184   8.029  10.076  0.4632 -0.3585  0.4824
32307SOL    HW1 8645   1.254   7.978  10.034  0.5678 -0.1012  0.3398
32307SOL    HW2 8646   1.208   8.031  10.169  0.1834 -1.0078  0.5749
32308SOL     OW 8647   6.257   9.250   8.034 -0.5688  0.4516 -0.2284
32308SOL    HW1 8648   6.218   9.163   8.030 -1.7569  0.9753 -0.2948
32308SOL    HW2 8649   6.281   9.270   7.943  0.8578 -0.2881 -0.0505
32309SOL     OW 8650   8.074   4.422   9.746  0.1481 -0.2907  0.0438
32309SOL    HW1 8651   8.020   4.382   9.677 -2.3193  1.8460  0.6035
32309SOL    HW2 8652   8.129   4.486   9.700 -0.8920  0.5407 -0.0604
32310SOL     OW 8653   4.328   3.092   2.349 -0.8364 -0.0754  0.2765
32310SOL    HW1 8654   4.338   3.180   2.385 -0.6353 -0.7318  1.8915
32310SOL    HW2 8655   4.406   3.045   2.379 -0.5117 -0.5841 -1.2942
32311SOL     OW 8656   3.443   1.035   7.735 -0.2546  0.5535  0.2468
32311SOL    HW1 8657   3.506   1.106   7.748 -0.3539  0.9708 -1.4498
32311SOL    HW2 8658   3.496   0.959   7.712 -0.2588  0.4709  0.5058
32312SOL     OW 8659   9.682  11.395   3.490 -0.2512  0.3301 -0.1288
32312SOL    HW1 8660   9.700  11.347   3.571 -0.5053 -1.9370 -1.3257
32312SOL    HW2 8661   9.620  11.463   3.516 -1.2999 -1.1192  1.3941
32313SOL     OW 8662   7.239   6.933   1.187  0.3220 -0.1186  0.0983
32313SOL    HW1 8663   7.230   6.865   1.119 -0.1718 -0.0576  0.0926
32313SOL    HW2 8664   7.176   6.906   1.255 -0.4854  0.7641 -0.2772
32314SOL     OW 8665   7.346   8.352  10.117 -0.5992 -0.0977 -0.3127
32314SOL    HW1 8666   7.432   8.312  10.128 -1.1798 -0.9367  1.5570
32314SOL    HW2 8667   7.343   8.421  10.183 -0.8992  0.7811 -1.2224
32315SOL     OW 8668   6.176  10.192   7.067 -0.6424  0.0130  0.6161
32315SOL    HW1 8669   6.118  10.125   7.103  0.1826 -0.9694  0.1651
32315SOL    HW2 8670   6.241  10.207   7.135 -1.1455  0.7927  0.9435
32316SOL     OW 8671   4.553  11.197  10.167 -0.0909 -0.5808 -0.3883
32316SOL    HW1 8672   4.496  11.270  10.144 -0.6515 -0.9368 -0.1719
32316SOL    HW2 8673   4.494  11.121  10.171  0.3475 -0.9044  0.1178
32317SOL     OW 8674   8.160  11.078   0.646 -0.4143  0.6109 -0.6682
32317SOL    HW1 8675   8.118  11.163   0.662 -2.3152 -0.6615  1.8551
32317SOL    HW2 8676   8.092  11.026   0.602 -0.8249 -0.7884  1.4463
32318SOL     OW 8677   9.928   3.078   7.446  0.0611  0.1616  0.0023
32318SOL    HW1 8678   9.894   3.077   7.535  0.3237  0.4283  0.1060
32318SOL    HW2 8679   9.852   3.098   7.391 -0.1359 -0.1853  0.1479
32319SOL     OW 8680   7.929   0.655   3.404  0.2677 -0.3440  0.2250
32319SOL    HW1 8681   7.895   0.565   3.407  0.6808 -0.4873  0.8487
32319SOL    HW2 8682   7.978   0.664   3.486  0.6025  0.3037 -0.0461
32320SOL     OW 8683   5.017   0.139   7.741 -0.3758  0.3847 -0.0544
32320SOL    HW1 8684   4.965   0.143   7.822 -0.6149  0.3521 -0.2052
32320SOL    HW2 8685   4.998   0.053   7.705 -1.3536  0.9171 -0.8572
32321SOL     OW 8686   6.280  10.050   1.832 -0.2982  0.4832  0.4673
32321SOL    HW1 8687   6.351   9.987   1.820 -0.4150 -0.0565  2.3651
32321SOL    HW2 8688   6.201  10.003   1.808 -0.1576  0.7241 -0.5266
32322SOL     OW 8689   9.102  11.490   4.135  0.7290 -0.1731  0.3949
32322SOL    HW1 8690   9.048  11.568   4.148  0.6168 -0.4574  1.8358
32322SOL    HW2 8691   9.184  11.509   4.181  0.5576 -1.0326  1.0898
32323SOL     OW 8692   7.223   2.966   7.461  0.3672 -0.0101  0.1250
32323SOL    HW1 8693   7.248   3.000   7.375 -0.4550  0.9269  0.2347
32323SOL    HW2 8694   7.245   2.873   7.458  1.8017  0.3304 -0.5344
32324SOL     OW 8695  11.182   9.072  11.108  0.6774 -0.2650  0.1094
32324SOL    HW1 8696  11.252   9.127  11.145  0.6348 -0.1694  0.0496
32324SOL    HW2 8697  11.105   9.128  11.110  0.4921 -0.5377  0.6318
32325SOL     OW 8698   3.416  10.978   7.149 -0.1470 -0.3189  0.5657
32325SOL    HW1 8699   3.411  11.027   7.232  1.9967  0.2779  0.3998
32325SOL    HW2 8700   3.352  10.908   7.159 -1.4524  0.9887  1.8640
32326SOL     OW 8701   3.459   3.327   9.472  0.1724  0.1217 -0.1187
32326SOL    HW1 8702   3.514   3.405   9.465  0.6951 -0.2698 -0.4178
32326SOL    HW2 8703   3.379   3.349   9.425  1.1002 -0.2202 -1.9250
32327SOL     OW 8704   8.370   9.736   0.334  0.0279 -0.6343  0.2809
32327SOL    HW1 8705   8.340   9.646   0.339 -1.5985 -0.4752 -3.5910
32327SOL    HW2 8706   8.290   9.788   0.323  1.1067  0.9188 -0.6809
32328SOL     OW 8707   2.821   6.955   4.763  0.0632  0.3272  0.0478
32328SOL    HW1 8708   2.742   6.926   4.717 -0.6587  1.1134  0.7469
32328SOL    HW2 8709   2.829   7.048   4.740  0.0892  0.5515  0.9130
32329SOL     OW 8710   0.943   5.275   1.845 -0.0010  0.4380 -0.2003
32329SOL    HW1 8711   1.014   5.214   1.823 -0.2499  0.8917 -2.5785
32329SOL    HW2 8712   0.978   5.362   1.822 -1.5353  0.5904 -2.3163
32330SOL     OW 8713   9.586   5.612   5.605 -0.1973  0.0536  0.1225
32330SOL    HW1 8714   9.652   5.657   5.659 -1.3609  0.7948  0.9943
32330SOL    HW2 8715   9.606   5.638   5.515  0.5291  0.4984  0.4059
32331SOL     OW 8716  10.989   3.024   1.267  0.1306 -0.2395 -0.1147
32331SOL    HW1 8717  11.046   3.101   1.264 -0.0955 -0.0855 -0.5150
32331SOL    HW2 8718  11.001   2.989   1.356 -1.1978  1.3486  0.7387
32332SOL     OW 8719   4.222  10.832   9.382 -0.5477  0.5133 -0.0305
32332SOL    HW1 8720   4.207  10.795   9.295  0.5032 -1.4150  0.5436
32332SOL    HW2 8721   4.155  10.792   9.438 -0.1318  0.3703  0.3776
32333SOL     OW 8722  11.535   8.911   7.595 -0.4191 -0.2134  0.2416
32333SOL    HW1 8723  11.616   8.897   7.547  0.1330  0.6727  0.8697
32333SOL    HW2 8724  11.470   8.858   7.550  1.0892 -3.3420  1.4438
32334SOL     OW 8725   7.302  10.240   2.662  0.2530 -0.2209  0.2758
32334SOL    HW1 8726   7.236  10.190   2.709  0.9336 -0.8154  0.6106
32334SOL    HW2 8727   7.314  10.320   2.714 -2.9810  1.8193 -1.7612
32335SOL     OW 8728   4.559   4.358   5.291 -0.0133 -0.3000 -0.3400
32335SOL    HW1 8729   4.594   4.445   5.271 -0.1415 -0.6101 -2.1252
32335SOL    HW2 8730   4.464   4.370   5.291 -0.0348  0.0411  2.0424
32336SOL     OW 8731   5.522   5.657   8.692 -0.0023  0.0570 -0.3985
32336SOL    HW1 8732   5.532   5.577   8.743  3.1585 -0.0116 -0.9250
32336SOL    HW2 8733   5.530   5.727   8.757  1.4407 -0.0725 -0.3843
32337SOL     OW 8734   5.948  11.866   5.751 -0.0808 -0.1081  1.0818
32337SOL    HW1 8735   5.887  11.934   5.781 -0.7538 -0.2248  0.0135
32337SOL    HW2 8736   5.898  11.785   5.757  0.2824 -0.3371  1.0584
32338SOL     OW 8737   4.695   6.587  11.914  0.0365  0.1859  0.3668
32338SOL    HW1 8738   4.722   6.661  11.860  2.1888 -1.6412 -1.2770
32338SOL    HW2 8739   4.704   6.619  12.004 -1.2604  2.5503 -0.2672
32339SOL     OW 8740   3.414   2.425   4.746  0.2401 -0.6888 -0.6984
32339SOL    HW1 8741   3.447   2.474   4.671 -1.9153  0.1383 -1.1680
32339SOL    HW2 8742   3.478   2.441   4.816  0.8156  0.8275 -1.5396
32340SOL     OW 8743   9.886   2.204   9.040  0.1675  0.0512  0.3256
32340SOL    HW1 8744   9.895   2.272   9.107 -3.3955  1.6296 -0.5763
32340SOL    HW2 8745   9.905   2.248   8.958  0.0128 -0.6450 -0.0890
32341SOL     OW 8746   1.040   0.823   5.556  0.0526  0.6546  0.3140
32341SOL    HW1 8747   1.107   0.875   5.600  1.0337 -0.4840  0.2258
32341SOL    HW2 8748   1.001   0.769   5.625 -0.4380  0.9544  0.2777
32342SOL     OW 8749   4.532   6.543  10.627 -0.1633 -0.6488 -0.4381
32342SOL    HW1 8750   4.593   6.470  10.624 -0.1938 -0.6607 -0.7801
32342SOL    HW2 8751   4.545   6.588  10.544  1.0441  0.6961  0.4168
32343SOL     OW 8752   5.935   4.015   8.395 -0.1481 -0.4784 -0.1969
32343SOL    HW1 8753   6.008   3.979   8.445 -0.0420 -0.9584 -0.6767
32343SOL    HW2 8754   5.975   4.079   8.336 -0.2014 -0.3025 -0.0449
32344SOL     OW 8755   1.543   1.521  10.559 -0.0156  0.0226  0.1418
32344SOL    HW1 8756   1.548   1.577  10.637 -2.8467 -0.2244  0.6297
32344SOL    HW2 8757   1.528   1.433  10.595  0.3462 -0.3749 -0.6678
32345SOL     OW 8758   4.920   3.651   3.677 -0.0176  0.2651  0.4201
32345SOL    HW1 8759   4.971   3.612   3.606 -0.5475 -2.3371  1.3398
32345SOL    HW2 8760   4.855   3.584   3.698  1.3272 -0.0064  4.6055
32346SOL     OW 8761   3.502   9.575  11.425 -0.0279  0.1345 -0.0105
32346SOL    HW1 8762   3.458   9.654  11.392  1.4119  1.1320  0.3313
32346SOL    HW2 8763   3.569   9.609  11.484  1.6424 -1.2431 -1.0113
32347SOL     OW 8764   6.697   9.938   6.348 -0.2766  0.2073  0.2203
32347SOL    HW1 8765   6.660   9.885   6.418 -1.0592 -1.9261 -1.6855
32347SOL    HW2 8766   6.786   9.903   6.337 -0.2240  0.4106 -0.0051
32348SOL     OW 8767   8.985   0.885   6.939  0.1356  0.1055 -0.0489
32348SOL    HW1 8768   8.969   0.859   6.848 -0.2863 -0.8859  0.2907
32348SOL    HW2 8769   9.068   0.932   6.936  0.8965 -1.2089 -0.7360
32349SOL     OW 8770  10.413   1.542  10.337 -0.1491  0.0281  0.0341
32349SOL    HW1 8771  10.500   1.561  10.372 -0.1283  0.4691 -0.2550
32349SOL    HW2 8772  10.413   1.581  10.250 -0.0065 -1.5385 -0.7034
32350SOL     OW 8773   4.949   3.339   1.481 -0.5252  0.1137  0.1643
32350SOL    HW1 8774   5.038   3.305   1.495 -0.9334 -1.1080 -0.1051
32350SOL    HW2 8775   4.892   3.275   1.523 -1.2903  0.9422  0.4210
32351SOL     OW 8776   4.572   7.294   6.173  0.7104 -0.2707  0.2228
32351SOL    HW1 8777   4.636   7.236   6.130  0.5160 -0.2682 -0.0767
32351SOL    HW2 8778   4.624   7.363   6.214  0.9008 -0.2862  0.0043
32352SOL     OW 8779   0.667   7.272   4.395 -0.3638  0.4688  0.5565
32352SOL    HW1 8780   0.669   7.366   4.376  0.3289  0.3955  0.2359
32352SOL    HW2 8781   0.607   7.264   4.468 -0.8777  1.0964  0.2172
32353SOL     OW 8782   8.176   8.227   9.891  0.3965  0.4161 -0.2008
32353SOL    HW1 8783   8.196   8.243   9.799 -1.6456  0.2659 -0.7163
32353SOL    HW2 8784   8.140   8.309   9.923 -2.7219 -0.6306 -0.7130
32354SOL     OW 8785   1.842   0.003   3.129 -0.2557 -0.5208  0.5643
32354SOL    HW1 8786   1.786   0.080   3.139 -0.3061 -0.3354 -0.9377
32354SOL    HW2 8787   1.838  -0.041   3.214 -1.5529  0.2416  0.9245
32355SOL     OW 8788  11.556   4.912   6.960  0.2397 -0.9173 -0.6279
32355SOL    HW1 8789  11.572   4.965   6.881  5.6270 -0.2580  0.4735
32355SOL    HW2 8790  11.549   4.976   7.031 -0.0970 -1.5907 -0.0376
32356SOL     OW 8791   8.385  10.725   5.604  0.1968  0.3701 -0.0932
32356SOL    HW1 8792   8.293  10.730   5.580 -0.0852 -1.1386  0.5977
32356SOL    HW2 8793   8.432  10.735   5.521 -0.6586 -1.2129 -0.8113
32357SOL     OW 8794   5.772   1.865  11.197 -0.2985 -0.8234  0.3006
32357SOL    HW1 8795   5.779   1.953  11.158 -1.5339 -0.4657  0.8328
32357SOL    HW2 8796   5.744   1.881  11.287  1.9387 -1.6712  1.2299
32358SOL     OW 8797   3.191   3.005   5.380  0.7844 -0.0096 -0.0222
32358SOL    HW1 8798   3.279   2.967   5.373  0.9590  0.6018 -1.5436
32358SOL    HW2 8799   3.170   3.034   5.291  0.2840  2.5819  0.8503
32359SOL     OW 8800   8.371   5.482   2.161  0.0385  0.1192  0.3221
32359SOL    HW1 8801   8.398   5.399   2.122 -1.3193 -0.8006  1.2630
32359SOL    HW2 8802   8.338   5.458   2.248  0.6467  1.7890  1.0595
32360SOL     OW 8803   1.266   4.845  11.342  0.1294  0.2658 -0.4541
32360SOL    HW1 8804   1.210   4.767  11.338  0.2807  0.1901 -1.2805
32360SOL    HW2 8805   1.312   4.837  11.425 -1.1502  0.3759  0.2947
32361SOL     OW 8806   6.223   8.156   2.582  0.4574 -0.1521  0.0699
32361SOL    HW1 8807   6.283   8.087   2.556 -1.2246 -0.6586 -3.0286
32361SOL    HW2 8808   6.141   8.111   2.604 -0.8591  0.7101 -2.5847
32362SOL     OW 8809   9.712  11.908   0.399 -0.5068 -0.2523 -0.2328
32362SOL    HW1 8810   9.676  11.915   0.311 -0.3974 -0.0491 -0.2635
32362SOL    HW2 8811   9.804  11.932   0.389 -0.7773  1.0441  0.1389
32363SOL     OW 8812   4.304  11.777   2.014 -0.1399 -0.4858 -0.0752
32363SOL    HW1 8813   4.363  11.833   1.964  0.0332 -1.1849 -0.6822
32363SOL    HW2 8814   4.235  11.836   2.044  0.2318  0.1178 -0.3760
32364SOL     OW 8815   9.957  10.651  11.209 -0.3123  0.1124  0.2014
32364SOL    HW1 8816  10.025  10.690  11.153 -0.5867 -1.4484 -1.3071
32364SOL    HW2 8817   9.975  10.686  11.296  1.4500  0.9835 -0.4524
32365SOL     OW 8818   2.172   6.864  11.411  0.0663 -0.3740  0.6046
32365SOL    HW1 8819   2.198   6.800  11.477 -0.9480 -1.4154  0.0449
32365SOL    HW2 8820   2.236   6.853  11.341  1.1091  0.6933  1.3465
32366SOL     OW 8821   6.400   2.177  10.842  0.0136  0.2390 -0.3724
32366SOL    HW1 8822   6.407   2.102  10.902 -1.9262  0.8598  0.7114
32366SOL    HW2 8823   6.451   2.151  10.765 -1.5936 -2.7701 -0.5709
32367SOL     OW 8824  11.452   7.668   4.536 -0.0364  0.1086  0.0501
32367SOL    HW1 8825  11.459   7.744   4.594 -0.0719 -0.2083  0.4770
32367SOL    HW2 8826  11.446   7.705   4.448  1.1459  0.5670  0.1479
32368SOL     OW 8827   6.421   2.585   0.550  0.0552  0.0438  0.8349
32368SOL    HW1 8828   6.388   2.603   0.638 -2.2594  1.0695 -0.1476
32368SOL    HW2 8829   6.431   2.490   0.546  3.3253  0.1107  3.1368
32369SOL     OW 8830   6.257   6.321   3.130  0.1871  0.2273 -0.0985
32369SOL    HW1 8831   6.276   6.228   3.145 -0.6041  0.2573  1.1881
32369SOL    HW2 8832   6.313   6.368   3.191  0.4995  0.6042 -0.6634
32370SOL     OW 8833   6.232   2.063   8.266 -0.1515  0.0546 -0.1044
32370SOL    HW1 8834   6.187   2.142   8.294 -2.6158 -1.3388  0.1061
32370SOL    HW2 8835   6.178   1.991   8.298  1.2605 -1.7272 -1.4659
32371SOL     OW 8836   7.168   0.839  10.607 -0.1395 -0.4118 -0.5224
32371SOL    HW1 8837   7.212   0.848  10.692  1.6719  0.2487 -1.4824
32371SOL    HW2 8838   7.192   0.751  10.577 -0.6322 -0.5759 -0.4485
32372SOL     OW 8839  10.913   5.980   9.002 -0.6194  0.2981 -0.2021
32372SOL    HW1 8840  10.925   5.919   8.929  0.2393  0.0236  0.1622
32372SOL    HW2 8841  10.946   6.064   8.969 -0.7322  0.3022 -0.3065
32373SOL     OW 8842   8.508   3.514   8.939  0.3187  0.7195  0.7840
32373SOL    HW1 8843   8.563   3.530   8.863  0.0270  0.5666  0.5405
32373SOL    HW2 8844   8.532   3.583   9.001  0.7011  0.7225  0.6366
32374SOL     OW 8845   6.737   4.337   4.441  0.7719  0.1981 -0.0586
32374SOL    HW1 8846   6.734   4.284   4.362 -1.4589 -2.6873  1.7569
32374SOL    HW2 8847   6.667   4.401   4.430  0.1410 -0.5135 -0.2618
32375SOL     OW 8848   7.207  11.644   0.890  0.3407 -0.1952  0.3418
32375SOL    HW1 8849   7.269  11.621   0.959  1.1063 -1.2902 -0.6621
32375SOL    HW2 8850   7.122  11.618   0.925  0.1905  2.4735  2.2443
32376SOL     OW 8851   6.778   3.029   3.028  0.1385 -0.1812 -0.0568
32376SOL    HW1 8852   6.782   3.124   3.038  0.1643 -0.2912  1.2051
32376SOL    HW2 8853   6.753   2.997   3.115 -1.2535 -1.2474 -0.8170
32377SOL     OW 8854   3.989  10.578   5.488 -0.1410  0.4096 -0.1359
32377SOL    HW1 8855   3.948  10.575   5.574  0.9468  2.3628  0.5321
32377SOL    HW2 8856   4.054  10.508   5.490 -0.1887  0.3738  0.6104
32378SOL     OW 8857   4.862   7.724   5.451  0.2030 -0.2612  0.1664
32378SOL    HW1 8858   4.820   7.744   5.367  1.9083  2.2596 -0.2095
32378SOL    HW2 8859   4.932   7.662   5.428  1.1497  0.9905 -0.4899
32379SOL     OW 8860   8.042   9.483   0.108 -0.2373  0.2371 -0.3785
32379SOL    HW1 8861   7.962   9.437   0.081 -0.0730 -0.5774  0.4805
32379SOL    HW2 8862   8.079   9.428   0.177  0.4486  1.2114  0.0456
32380SOL     OW 8863   1.707   8.908  11.531  0.4493  0.3092 -0.5971
32380SOL    HW1 8864   1.737   8.974  11.469  0.9336 -0.6416 -1.4167
32380SOL    HW2 8865   1.713   8.950  11.617  0.4967  1.3971 -1.1240
32381SOL     OW 8866   3.692   7.127   0.686 -0.2616 -0.1507 -0.3770
32381SOL    HW1 8867   3.712   7.218   0.709 -0.9992  0.4210 -1.8443
32381SOL    HW2 8868   3.775   7.081   0.696 -0.5403 -0.1294  3.7229
32382SOL     OW 8869   7.893  10.468   1.415 -0.0136  0.2432  0.2003
32382SOL    HW1 8870   7.935  10.512   1.489 -0.5513 -1.4412  1.6084
32382SOL    HW2 8871   7.955  10.400   1.389 -0.1958  0.2711 -0.3106
32383SOL     OW 8872   0.799   4.767  11.886 -0.4763 -0.1108 -0.1165
32383SOL    HW1 8873   0.843   4.852  11.880 -0.1367 -0.3402 -1.0455
32383SOL    HW2 8874   0.731   4.770  11.820 -0.8364 -0.3554  0.2403
32384SOL     OW 8875   9.420   1.161  11.750 -0.2178 -0.3750 -0.1157
32384SOL    HW1 8876   9.400   1.206  11.832  0.3115 -0.7928  0.2506
32384SOL    HW2 8877   9.435   1.232  11.686  2.6671  0.1058  0.9209
32385SOL     OW 8878   4.787   9.646   9.019 -0.1263 -0.0713 -0.5537
32385SOL    HW1 8879   4.727   9.684   8.955  0.1876  0.6517 -0.4213
32385SOL    HW2 8880   4.731   9.592   9.075 -0.9367  1.8064  0.5300
32386SOL     OW 8881  10.953  11.914   7.786  0.0900 -0.2776  0.2158
32386SOL    HW1 8882  11.022  11.894   7.849 -0.1312  0.1176  0.5902
32386SOL    HW2 8883  10.972  11.858   7.711  0.1719 -1.0037  0.7612
32387SOL     OW 8884   1.875   5.395   2.522 -0.4819 -0.0129 -0.8445
32387SOL    HW1 8885   1.882   5.354   2.608  0.5538 -2.4236 -1.9775
32387SOL    HW2 8886   1.786   5.431   2.519 -0.8858 -0.8047  0.8278
32388SOL     OW 8887  10.948   6.387   5.764 -0.0783  0.0419 -0.0909
32388SOL    HW1 8888  10.982   6.457   5.820 -0.7678  0.3540 -0.0439
32388SOL    HW2 8889  10.929   6.431   5.681  0.6413 -0.3539 -0.4690
32389SOL     OW 8890   4.197   9.240   4.856  0.0813 -0.3232 -0.4599
32389SOL    HW1 8891   4.286   9.276   4.859  0.6771 -1.7513  1.1282
32389SOL    HW2 8892   4.195   9.189   4.775  0.4729  0.2511 -0.8410
32390SOL     OW 8893   5.531  10.623   2.217  0.3049 -0.0207  0.3668
32390SOL    HW1 8894   5.541  10.546   2.274 -1.3688 -0.5125  0.0377
32390SOL    HW2 8895   5.437  10.640   2.215 -0.1060 -1.4420 -4.0285
32391SOL     OW 8896  11.358   7.035   8.825 -0.0326  0.1242 -0.2525
32391SOL    HW1 8897  11.310   6.975   8.882 -0.5852  1.9109  1.2925
32391SOL    HW2 8898  11.340   7.122   8.862  1.1066  1.2042 -2.0919
32392SOL     OW 8899   1.756   8.549   3.665  0.0883  0.0912  0.2896
32392SOL    HW1 8900   1.752   8.543   3.760  1.1284 -0.2326  0.3291
32392SOL    HW2 8901   1.724   8.637   3.645  0.5267  0.4208  0.9972
32393SOL     OW 8902  10.832  10.269   7.804  0.5995 -0.1543  0.8170
32393SOL    HW1 8903  10.884  10.210   7.750 -0.6974 -1.8492  1.3362
32393SOL    HW2 8904  10.771  10.212   7.851 -0.0254  1.5019  2.1459
32394SOL     OW 8905   2.863   4.902   0.098  0.9942  0.6396  0.0124
32394SOL    HW1 8906   2.852   4.822   0.046 -0.8458 -0.2120  1.5828
32394SOL    HW2 8907   2.789   4.957   0.074  0.7556  0.7168  0.8854
32395SOL     OW 8908   6.926   1.952   3.202  0.7727 -0.6528  0.1161
32395SOL    HW1 8909   6.871   1.880   3.172 -0.0197 -0.3359  0.7696
32395SOL    HW2 8910   6.991   1.911   3.259 -1.3661 -0.6105  2.7940
32396SOL     OW 8911   5.067   6.314   9.749  0.3114  0.3206 -0.0347
32396SOL    HW1 8912   4.998   6.372   9.781 -1.0959 -1.2665 -0.0486
32396SOL    HW2 8913   5.036   6.286   9.663  0.5423 -1.0604  0.3128
32397SOL     OW 8914   4.497   9.756  10.938 -0.5611  0.3534  0.4485
32397SOL    HW1 8915   4.509   9.717  10.851 -0.9687 -0.6361  0.8108
32397SOL    HW2 8916   4.579   9.800  10.956 -0.5245  0.7069 -0.5015
32398SOL     OW 8917  11.475   9.844   3.542 -0.4655 -0.0856 -0.3747
32398SOL    HW1 8918  11.560   9.802   3.553  0.0175  0.4775 -1.7159
32398SOL    HW2 8919  11.442   9.855   3.631  0.7042 -0.6451  0.1477
32399SOL     OW 8920   6.036  10.645   1.365  0.0945 -0.2634 -0.5090
32399SOL    HW1 8921   6.050  10.631   1.459  0.3923 -0.7925 -0.6324
32399SOL    HW2 8922   6.103  10.592   1.322 -0.9424 -1.1725 -1.0609
32400SOL     OW 8923   8.929   9.701  10.866 -0.7883  0.0124 -0.5301
32400SOL    HW1 8924   8.919   9.751  10.784 -1.7892  0.9739  0.1431
32400SOL    HW2 8925   8.984   9.757  10.921 -0.7266 -0.2891 -0.2841
32401SOL     OW 8926   7.894  11.304   1.574  0.3919  0.1555 -0.1953
32401SOL    HW1 8927   7.946  11.270   1.501  1.0566 -1.2363  0.8908
32401SOL    HW2 8928   7.817  11.247   1.578 -0.0552  0.7374 -0.3005
32402SOL     OW 8929   9.872  11.026   7.797 -0.1240  0.4403 -0.5020
32402SOL    HW1 8930   9.931  11.043   7.724 -0.8452  1.0469 -0.9518
32402SOL    HW2 8931   9.833  10.941   7.778  1.6267 -0.6658  0.5083
32403SOL     OW 8932   8.353  11.672   7.448 -0.1896 -0.1506 -0.0620
32403SOL    HW1 8933   8.294  11.723   7.504 -0.8142  0.6666 -1.3983
32403SOL    HW2 8934   8.346  11.583   7.480 -1.8004  0.0180  0.1441
32404SOL     OW 8935   3.939  10.772  10.268 -0.0677 -0.1606 -0.3593
32404SOL    HW1 8936   3.929  10.724  10.186  0.1250 -1.3793  0.3043
32404SOL    HW2 8937   3.876  10.845  10.261 -0.1355 -0.3119 -1.5249
32405SOL     OW 8938   1.718   2.092   3.629 -0.4460 -0.6129 -0.1672
32405SOL    HW1 8939   1.677   2.106   3.715  0.2032  0.5038 -0.0157
32405SOL    HW2 8940   1.644   2.085   3.569 -0.9014  0.7729  0.1919
32406SOL     OW 8941   3.125   5.849   2.963 -0.4086  0.9075  0.2587
32406SOL    HW1 8942   3.058   5.834   3.030 -0.7120 -2.4149 -0.6084
32406SOL    HW2 8943   3.076   5.858   2.882  0.1027  0.1921 -0.1396
32407SOL     OW 8944   4.964  11.959   4.365  1.0558 -0.2096 -0.2393
32407SOL    HW1 8945   4.984  12.048   4.394 -1.9485  0.9459 -1.2944
32407SOL    HW2 8946   4.922  11.919   4.442  3.3012 -1.1825  0.5797
32408SOL     OW 8947   9.457   5.562  10.908 -0.1514  0.0030  0.5989
32408SOL    HW1 8948   9.379   5.576  10.961  0.9715  1.3048  1.9817
32408SOL    HW2 8949   9.477   5.648  10.871 -1.6906 -1.0731 -3.2324
32409SOL     OW 8950  11.467   8.016   1.011 -0.2779  0.1211 -0.3491
32409SOL    HW1 8951  11.477   8.033   1.105 -1.1940 -0.5554 -0.1198
32409SOL    HW2 8952  11.459   8.104   0.973  1.1138  0.4510  0.0646
32410SOL     OW 8953   2.058   7.383  10.794  0.0827  0.4041  0.6357
32410SOL    HW1 8954   2.141   7.383  10.745 -0.5313 -0.0300 -0.4314
32410SOL    HW2 8955   2.019   7.298  10.774  0.6943 -0.6331  3.4530
32411SOL     OW 8956  10.483   1.682  11.071 -0.3535  0.3075  0.4719
32411SOL    HW1 8957  10.556   1.673  11.010 -0.5781 -0.9531  0.3600
32411SOL    HW2 8958  10.497   1.767  11.113  0.2554  0.8283 -0.7338
32412SOL     OW 8959   6.504   2.768   1.428  0.3624 -0.3803 -0.1535
32412SOL    HW1 8960   6.441   2.837   1.445  1.0226 -0.0349  0.9988
32412SOL    HW2 8961   6.451   2.690   1.410 -0.3758  0.2051 -0.5189
32413SOL     OW 8962   8.050   8.494   5.088 -0.3311 -0.3435 -0.1478
32413SOL    HW1 8963   8.044   8.399   5.080 -1.5445 -0.3918  1.0694
32413SOL    HW2 8964   8.143   8.511   5.104  0.3525 -1.0744 -2.8288
32414SOL     OW 8965   8.906  10.210   8.328 -0.0936 -0.0564  0.1628
32414SOL    HW1 8966   8.867  10.279   8.380  1.2755  0.6296  0.3398
32414SOL    HW2 8967   8.990  10.247   8.299  0.6241 -1.5950  0.1744
32415SOL     OW 8968   9.493  11.725   0.699  0.2267 -0.2562  0.3003
32415SOL    HW1 8969   9.523  11.639   0.670  2.7800  0.7995 -0.5272
32415SOL    HW2 8970   9.508  11.724   0.793  0.1634 -0.7466  0.3106
32416SOL     OW 8971   1.591   3.159   7.139  0.3408  0.3004  0.2334
32416SOL    HW1 8972   1.542   3.120   7.212  1.4101  0.9262  1.3226
32416SOL    HW2 8973   1.634   3.085   7.097  0.2387 -0.0007  0.6526
32417SOL     OW 8974  11.712   2.209   1.532  0.2662 -0.2594 -0.2518
32417SOL    HW1 8975  11.723   2.302   1.512  1.5208 -0.0282  1.3268
32417SOL    HW2 8976  11.636   2.183   1.480 -0.0571  1.6103 -0.8166
32418SOL     OW 8977  10.521   5.616   9.702 -0.2569  0.1063 -0.5637
32418SOL    HW1 8978  10.513   5.681   9.772 -0.8378 -1.3136  0.7397
32418SOL    HW2 8979  10.614   5.591   9.703 -0.4634 -0.7247  0.5163
32419SOL     OW 8980   5.284   8.081   1.670 -0.0079  0.4456  0.1795
32419SOL    HW1 8981   5.198   8.111   1.642 -0.5165 -1.4757 -0.4570
32419SOL    HW2 8982   5.269   8.040   1.756  0.0091 -0.9615 -0.4634
32420SOL     OW 8983   0.319   8.310   6.159  0.1000  0.3303 -0.0897
32420SOL    HW1 8984   0.340   8.397   6.192 -1.3115  0.8407 -0.4874
32420SOL    HW2 8985   0.395   8.286   6.104 -0.1797  1.9831 -1.2569
32421SOL     OW 8986   1.970   1.978   4.888 -0.7122 -0.3115  0.1475
32421SOL    HW1 8987   1.957   1.973   4.793 -1.7639 -1.9957  0.3428
32421SOL    HW2 8988   2.052   2.027   4.898  0.2762 -1.4535 -1.7008
32422SOL     OW 8989   8.209  10.107  10.453 -0.0414 -0.3435  0.2535
32422SOL    HW1 8990   8.237  10.016  10.447 -1.9724 -0.9022 -3.1121
32422SOL    HW2 8991   8.131  10.105  10.508 -0.9697 -1.0750 -1.0318
32423SOL     OW 8992   0.972   6.234   4.886 -0.3113  0.8097  0.2949
32423SOL    HW1 8993   1.014   6.264   4.967  0.3656  1.1900 -0.1834
32423SOL    HW2 8994   1.045   6.210   4.829 -0.7561  1.0969 -0.4101
32424SOL     OW 8995   1.335   6.283   3.434  0.1828  0.1421 -0.3445
32424SOL    HW1 8996   1.305   6.222   3.367  0.4505 -1.1817  0.6968
32424SOL    HW2 8997   1.275   6.358   3.427  0.8103  0.4898 -2.6738
32425SOL     OW 8998   3.865   8.087   4.811 -0.5622 -0.0801  0.3335
32425SOL    HW1 8999   3.946   8.134   4.832 -1.0410 -0.4957  3.6546
32425SOL    HW2 9000   3.812   8.151   4.763  0.4328  1.3345  1.0618
32426SOL     OW 9001  11.388   0.506   2.829  0.5730  0.3164  0.1657
32426SOL    HW1 9002  11.326   0.522   2.758 -2.3965  1.9861  2.8805
32426SOL    HW2 9003  11.420   0.417   2.813 -0.6461  0.2621 -2.6724
32427SOL     OW 9004   4.375   3.254   0.788  0.1437  0.8121 -0.0858
32427SOL    HW1 9005   4.423   3.280   0.709  0.9359 -0.7098 -0.1589
32427SOL    HW2 9006   4.418   3.173   0.816 -1.5175  0.1395  0.6604
32428SOL     OW 9007   7.084   3.784   3.896  0.0225  0.3650  1.0790
32428SOL    HW1 9008   7.036   3.797   3.814  1.8112  0.0852 -0.0795
32428SOL    HW2 9009   7.043   3.845   3.957 -2.0199 -0.1382  0.3016
32429SOL     OW 9010   0.304   4.724   2.672  0.5061 -0.0575  0.1280
32429SOL    HW1 9011   0.274   4.714   2.582  0.1379  0.0388  0.2420
32429SOL    HW2 9012   0.291   4.637   2.711  0.6926 -0.1071  0.0852
32430SOL     OW 9013   0.782   2.657   7.863  0.4037 -0.1760  0.5659
32430SOL    HW1 9014   0.726   2.580   7.865  0.2154 -0.0327  0.8894
32430SOL    HW2 9015   0.766   2.696   7.777  1.1273 -0.9538  0.0684
32431SOL     OW 9016   0.172   7.212   4.108 -0.4264  0.4154  1.1047
32431SOL    HW1 9017   0.148   7.119   4.110  2.1415 -0.3470  0.2698
32431SOL    HW2 9018   0.256   7.217   4.153  0.5424  1.9443 -0.7069
32432SOL     OW 9019  11.835   3.228   5.466 -0.1799 -0.1024 -0.7983
32432SOL    HW1 9020  11.799   3.144   5.436  1.2859 -0.9984 -0.1488
32432SOL    HW2 9021  11.831   3.223   5.561  1.6975 -0.2771 -0.6945
32433SOL     OW 9022   6.212   5.973   7.768 -0.2385  0.3238 -0.0613
32433SOL    HW1 9023   6.264   6.040   7.724 -2.4219  2.0584 -0.1668
32433SOL    HW2 9024   6.276   5.925   7.822  1.7548  0.9846 -1.7045
32434SOL     OW 9025   8.916  10.210   1.682  0.1947 -0.4083 -0.3428
32434SOL    HW1 9026   8.865  10.186   1.760 -0.2970  0.5498 -0.3520
32434SOL    HW2 9027   8.917  10.305   1.683 -0.4437 -0.3524 -1.9005
32435SOL     OW 9028   3.031   1.509   3.657  0.0227  0.4078 -0.1430
32435SOL    HW1 9029   3.047   1.591   3.704 -3.7368  2.4112 -1.8290
32435SOL    HW2 9030   2.957   1.469   3.703 -1.8504  0.9717 -2.4298
32436SOL     OW 9031   9.095   6.838   2.663  0.1427 -0.1989  0.3604
32436SOL    HW1 9032   9.128   6.848   2.752 -1.7976  0.2495  1.0742
32436SOL    HW2 9033   9.029   6.769   2.669  0.0611 -0.2485 -0.7635
32437SOL     OW 9034   7.866   3.469   9.551  0.2660 -0.5544  0.0994
32437SOL    HW1 9035   7.898   3.389   9.509  1.8363 -0.5670  1.2378
32437SOL    HW2 9036   7.936   3.494   9.611 -0.8954  0.7861  0.9498
32438SOL     OW 9037  10.376   7.511   6.745 -0.0894  0.0662  0.1218
32438SOL    HW1 9038  10.398   7.425   6.710 -0.3867 -0.5885  1.4835
32438SOL    HW2 9039  10.457   7.543   6.785 -0.4450 -0.4121  1.2531
32439SOL     OW 9040   6.843   8.163   1.227  0.7972  0.0640 -0.2365
32439SOL    HW1 9041   6.752   8.181   1.203  0.1813  0.1281  1.9335
32439SOL    HW2 9042   6.894   8.221   1.171 -0.5602  0.8334 -0.7417
32440SOL     OW 9043   6.633  10.254   9.144 -0.5283  0.1796  0.0320
32440SOL    HW1 9044   6.588  10.185   9.194 -0.0911  0.7899  1.3256
32440SOL    HW2 9045   6.644  10.217   9.057 -1.2508 -0.9732  0.4017
32441SOL     OW 9046  10.187   0.412   4.664 -0.0941  0.2689 -0.0204
32441SOL    HW1 9047  10.137   0.363   4.729 -0.3120  0.4457 -0.0544
32441SOL    HW2 9048  10.271   0.429   4.706  0.2979 -0.8560 -0.3129
32442SOL     OW 9049   4.902   3.882   0.598 -0.0362  0.5615  0.4919
32442SOL    HW1 9050   4.963   3.925   0.538 -0.0259 -0.7577 -0.5057
32442SOL    HW2 9051   4.852   3.954   0.637  1.6931  1.6288  0.8613
32443SOL     OW 9052   9.218   5.509  10.210 -0.3259 -0.2826  0.0067
32443SOL    HW1 9053   9.188   5.585  10.161  1.0433  1.4148  1.6730
32443SOL    HW2 9054   9.138   5.472  10.248 -0.8870  1.2199  0.3613
32444SOL     OW 9055   7.758   4.957   5.659  0.4357 -0.1866 -0.5610
32444SOL    HW1 9056   7.838   4.993   5.621 -0.3452 -0.1990 -2.3072
32444SOL    HW2 9057   7.731   4.888   5.598 -1.1852  0.1839 -0.3144
32445SOL     OW 9058  11.508   5.424   9.405  0.2400  0.3060 -0.4697
32445SOL    HW1 9059  11.555   5.480   9.343  1.9055 -1.6351 -1.0689
32445SOL    HW2 9060  11.569   5.413   9.478  0.4832 -1.6725 -0.9205
32446SOL     OW 9061   4.776   5.512   8.762  0.0501  0.6463  0.2410
32446SOL    HW1 9062   4.859   5.548   8.733  0.2506 -0.3147 -0.4562
32446SOL    HW2 9063   4.797   5.462   8.841  0.3392 -0.3904 -0.4653
32447SOL     OW 9064   6.113  10.688   5.341 -0.0089 -0.0668 -0.3073
32447SOL    HW1 9065   6.199  10.696   5.299 -0.0758 -1.1171 -0.6781
32447SOL    HW2 9066   6.059  10.642   5.276 -0.3265 -1.0478  0.6193
32448SOL     OW 9067   5.486   7.831   9.365  0.1568  0.4579  0.0107
32448SOL    HW1 9068   5.538   7.911   9.371  1.0748 -0.1599  0.5889
32448SOL    HW2 9069   5.423   7.838   9.437 -0.8227  1.3731 -0.9100
32449SOL     OW 9070   2.753   2.313   5.599  0.0146  0.6823  0.4371
32449SOL    HW1 9071   2.815   2.244   5.574 -2.5842 -1.2777 -1.1236
32449SOL    HW2 9072   2.759   2.377   5.528 -0.3226  0.0600 -0.1694
32450SOL     OW 9073   7.943   2.800   6.058 -0.3581 -0.4240  0.2196
32450SOL    HW1 9074   7.869   2.799   6.119 -1.2320  0.2341 -0.7903
32450SOL    HW2 9075   7.951   2.892   6.031  1.2886 -0.3626  0.8415
32451SOL     OW 9076   6.657   4.369   9.215 -0.4683  0.6838  0.6579
32451SOL    HW1 9077   6.643   4.277   9.192  1.1839  0.4410  0.5092
32451SOL    HW2 9078   6.595   4.417   9.160 -0.4409 -0.2618 -0.2287
32452SOL     OW 9079   4.614   2.482  10.095  0.4407 -0.0226  0.1745
32452SOL    HW1 9080   4.680   2.424  10.057  1.4003  1.6662 -0.9210
32452SOL    HW2 9081   4.630   2.566  10.052 -1.3125  0.8820  1.1967
32453SOL     OW 9082   6.577  11.631  10.993 -0.2461  0.1272 -0.3971
32453SOL    HW1 9083   6.641  11.560  10.980  1.5451  1.9085 -1.8331
32453SOL    HW2 9084   6.609  11.678  11.070  0.1749  0.9862 -1.0822
32454SOL     OW 9085   7.659   2.661   2.560  0.4188  0.4114 -0.0741
32454SOL    HW1 9086   7.600   2.608   2.614  0.9755  0.4664  0.6141
32454SOL    HW2 9087   7.616   2.668   2.475 -2.0631  2.9462  1.2196
32455SOL     OW 9088   8.311   0.480   4.773  0.3764  0.3395 -0.8295
32455SOL    HW1 9089   8.305   0.540   4.700 -0.9901  1.9474  0.5151
32455SOL    HW2 9090   8.220   0.464   4.799  0.7602 -1.3108 -0.3338
32456SOL     OW 9091   3.225   4.309   3.700  1.1933  0.0599 -0.0306
32456SOL    HW1 9092   3.249   4.246   3.632 -0.2081 -0.9601  0.3441
32456SOL    HW2 9093   3.165   4.369   3.656  0.1774 -0.6820  0.2878
32457SOL     OW 9094   4.848   4.585   1.908  0.1849  0.3231 -0.0826
32457SOL    HW1 9095   4.938   4.561   1.929  2.2075  3.5646 -3.6565
32457SOL    HW2 9096   4.814   4.510   1.860  1.1235 -0.7695  0.9028
32458SOL     OW 9097   4.627  10.381  10.499  0.2103 -0.3511 -0.1778
32458SOL    HW1 9098   4.555  10.393  10.438 -0.0624 -1.5943 -0.1293
32458SOL    HW2 9099   4.595  10.416  10.582  0.6327  1.4748 -0.7368
32459SOL     OW 9100   1.118   3.491   7.302  0.4541  0.1831 -0.3188
32459SOL    HW1 9101   1.201   3.538   7.309  0.0454  1.0017 -0.8577
32459SOL    HW2 9102   1.112   3.440   7.383  2.1882 -1.0736 -0.9190
32460SOL     OW 9103   8.209   1.864   6.602 -0.1956 -0.5171 -0.7076
32460SOL    HW1 9104   8.130   1.860   6.656  0.3366 -2.1249  0.0120
32460SOL    HW2 9105   8.217   1.776   6.564  2.2406 -1.0289  0.7543
32461SOL     OW 9106   8.592   1.217   6.613 -0.0503 -0.1443  0.6441
32461SOL    HW1 9107   8.565   1.139   6.565 -2.1845  0.0823  1.3656
32461SOL    HW2 9108   8.642   1.269   6.550 -1.5030 -0.5354 -0.8799
32462SOL     OW 9109   5.843   3.712   6.966 -0.1082  0.2423 -0.5612
32462SOL    HW1 9110   5.891   3.741   7.043 -0.9021  0.0610  0.0154
32462SOL    HW2 9111   5.786   3.786   6.943  0.0125  0.2387 -0.8783
32463SOL     OW 9112   6.505   9.880   7.942 -0.0391  0.4441  0.0581
32463SOL    HW1 9113   6.540   9.965   7.967  1.5037  0.2047 -1.1596
32463SOL    HW2 9114   6.410   9.889   7.950  0.1543  1.9563  0.8769
32464SOL     OW 9115   1.239   7.045   6.519 -0.0755  0.3213  0.5416
32464SOL    HW1 9116   1.314   6.988   6.537 -0.4570 -0.8573 -1.3582
32464SOL    HW2 9117   1.168   6.986   6.497 -1.1073  1.4828  0.6243
32465SOL     OW 9118   7.831   9.693  11.001 -0.2027 -0.3443 -0.4807
32465SOL    HW1 9119   7.814   9.774  11.050  0.0810  0.1463 -1.1813
32465SOL    HW2 9120   7.887   9.641  11.059  0.0889  0.2095 -0.2630
32466SOL     OW 9121   6.097   4.345   4.329  0.1765  0.4499 -0.2721
32466SOL    HW1 9122   6.097   4.434   4.295  0.8280  1.0994  1.3893
32466SOL    HW2 9123   6.078   4.291   4.252  0.5203  1.9460 -1.4518
32467SOL     OW 9124   7.448   3.904   9.150 -0.0428 -0.0232  0.6765
32467SOL    HW1 9125   7.440   3.819   9.194 -0.2144 -0.8779 -0.9575
32467SOL    HW2 9126   7.526   3.944   9.190  0.6568 -1.3835  0.7382
32468SOL     OW 9127   0.728   6.231   5.472  0.3067 -0.2599 -0.2108
32468SOL    HW1 9128   0.699   6.176   5.544  1.7170  0.8385  1.2887
32468SOL    HW2 9129   0.702   6.320   5.498 -0.5271 -0.0002 -1.8162
32469SOL     OW 9130  11.865   4.074  10.366 -0.1171 -0.0191  0.3273
32469SOL    HW1 9131  11.864   4.122  10.449  1.5843  0.4433  0.1112
32469SOL    HW2 9132  11.909   3.992  10.386 -3.1123 -1.6864  0.7241
32470SOL     OW 9133   3.524   9.634   2.844 -0.2750 -0.2983  0.5805
32470SOL    HW1 9134   3.429   9.640   2.832 -0.6326 -1.9757  2.1664
32470SOL    HW2 9135   3.548   9.556   2.794  0.4287  0.5646 -0.4662
32471SOL     OW 9136   5.067   5.997  10.534  0.4599  0.4157  0.2051
32471SOL    HW1 9137   5.134   6.057  10.568 -0.7317  1.1748  1.2891
32471SOL    HW2 9138   5.061   5.928  10.601 -0.0448  0.5022  0.2469
32472SOL     OW 9139   1.234  10.457  10.462 -0.0592 -0.2199 -0.2858
32472SOL    HW1 9140   1.218  10.426  10.373 -0.8226  1.6885 -0.8683
32472SOL    HW2 9141   1.326  10.482  10.463  0.3504 -1.6238 -0.0463
32473SOL     OW 9142   6.347   9.209  11.248  0.0064 -0.2882 -0.4011
32473SOL    HW1 9143   6.333   9.273  11.178  0.9516 -0.4422 -0.7493
32473SOL    HW2 9144   6.441   9.191  11.245 -0.1751 -1.3664 -0.0179
32474SOL     OW 9145   2.827   9.360   7.685 -0.1467  0.4448  0.3159
32474SOL    HW1 9146   2.873   9.429   7.639 -0.9416 -0.6693 -2.3540
32474SOL    HW2 9147   2.886   9.284   7.681 -0.9005 -0.1337 -0.4616
32475SOL     OW 9148  11.024   5.168   8.175  0.7824 -0.1467 -0.0399
32475SOL    HW1 9149  11.002   5.076   8.156 -1.1339  0.6109 -1.8120
32475SOL    HW2 9150  11.112   5.179   8.138  1.3709 -1.4441  0.8911
32476SOL     OW 9151   4.702   1.137   4.631 -0.2622  0.2377  0.1000
32476SOL    HW1 9152   4.669   1.226   4.631 -2.0351 -0.3732  0.2557
32476SOL    HW2 9153   4.736   1.124   4.720  2.1900  1.4650 -0.5986
32477SOL     OW 9154   1.625   7.017   3.199  0.0172 -0.6816  0.2413
32477SOL    HW1 9155   1.565   6.945   3.178 -2.3942  1.1578  0.4672
32477SOL    HW2 9156   1.614   7.079   3.127 -0.8365  1.1659  1.8964
32478SOL     OW 9157   9.325  11.658   4.869 -0.2699 -0.5482  0.0751
32478SOL    HW1 9158   9.328  11.620   4.957 -1.6147 -0.1253  0.3280
32478SOL    HW2 9159   9.416  11.659   4.840 -0.0886 -3.2124  0.3571
32479SOL     OW 9160   6.837   8.844   1.298  0.0690  0.7036  0.0513
32479SOL    HW1 9161   6.859   8.882   1.383  0.5121 -0.2013  0.3529
32479SOL    HW2 9162   6.920   8.844   1.249 -0.2030  1.3051 -0.4163
32480SOL     OW 9163   7.781  11.457   6.080 -0.0682  0.1737 -0.3376
32480SOL    HW1 9164   7.865  11.473   6.037  0.6528  1.4762  1.3969
32480SOL    HW2 9165   7.723  11.524   6.044  0.0723  0.2379 -0.4491
32481SOL     OW 9166   4.465  11.009   6.625  0.7815 -0.0875  0.1507
32481SOL    HW1 9167   4.488  10.920   6.653 -0.0405  0.0558  1.3792
32481SOL    HW2 9168   4.532  11.065   6.666  0.0699  0.0399  1.1869
32482SOL     OW 9169   7.248   7.785   3.298 -0.2239  0.3567  0.6865
32482SOL    HW1 9170   7.232   7.742   3.381  0.6407 -0.0536  0.6580
32482SOL    HW2 9171   7.184   7.746   3.238 -3.2095  3.0491  1.8410
32483SOL     OW 9172   3.662   2.023   1.220 -0.9801 -0.1360  0.0489
32483SOL    HW1 9173   3.598   2.087   1.250 -1.1661 -0.2390 -0.1210
32483SOL    HW2 9174   3.640   1.943   1.268  0.8118  0.5543  2.1686
32484SOL     OW 9175   9.140   0.321   1.300 -0.1281  0.7002  0.1502
32484SOL    HW1 9176   9.170   0.262   1.231 -0.5263 -2.2268  2.2896
32484SOL    HW2 9177   9.219   0.346   1.347  0.0032  1.6704 -0.5535
32485SOL     OW 9178   5.983   5.691   7.596 -0.3418  0.2441  0.0085
32485SOL    HW1 9179   5.958   5.645   7.675 -0.1273 -0.0129 -0.0731
32485SOL    HW2 9180   6.075   5.669   7.583 -0.7019 -0.7255 -1.0067
32486SOL     OW 9181  10.350   0.448   3.520  0.1225  0.2836 -0.2086
32486SOL    HW1 9182  10.356   0.484   3.432 -0.1369 -0.0630 -0.3720
32486SOL    HW2 9183  10.424   0.485   3.567 -0.1399  1.0283 -0.3708
32487SOL     OW 9184  10.657   0.258   1.664 -0.3432 -0.3563 -0.0197
32487SOL    HW1 9185  10.724   0.284   1.601 -1.2845  1.4704 -0.3372
32487SOL    HW2 9186  10.676   0.309   1.743 -2.5845  1.9872 -0.8543
32488SOL     OW 9187   7.089   1.250  10.508 -0.1669 -0.1842  0.3100
32488SOL    HW1 9188   7.061   1.289  10.591  2.6876  0.3049  1.1523
32488SOL    HW2 9189   7.070   1.316  10.442 -0.9350  0.0942  0.7970
32489SOL     OW 9190   4.635   1.121   3.998  0.0735 -0.1058  0.5804
32489SOL    HW1 9191   4.563   1.077   3.953  0.6940 -0.1381 -0.4046
32489SOL    HW2 9192   4.611   1.213   3.999  2.2152  0.8627 -4.4518
32490SOL     OW 9193   2.034   6.327   6.477 -0.5663 -0.0880  0.3789
32490SOL    HW1 9194   1.999   6.329   6.566  0.5088 -0.9276  0.8345
32490SOL    HW2 9195   2.090   6.405   6.470 -2.1675  1.0739 -0.2441
32491SOL     OW 9196   8.558   0.261  10.469  0.0232  0.8595 -0.3028
32491SOL    HW1 9197   8.505   0.214  10.533  1.0653  0.9504  0.6370
32491SOL    HW2 9198   8.571   0.198  10.398  2.2252 -0.7076  1.3531
32492SOL     OW 9199   9.021   9.558  10.463 -0.4989  0.7626 -0.0091
32492SOL    HW1 9200   9.002   9.477  10.511  1.7493  0.3277  0.2492
32492SOL    HW2 9201   8.983   9.627  10.517 -0.5963  0.0450  0.8620
32493SOL     OW 9202   0.236   5.311   8.732  0.2985 -0.5478 -0.2556
32493SOL    HW1 9203   0.183   5.378   8.775  0.3608  0.6418 -1.9390
32493SOL    HW2 9204   0.174   5.258   8.683  0.2675 -1.6717  0.9538
32494SOL     OW 9205   7.117   4.566   3.202  0.1847 -0.2467  0.0446
32494SOL    HW1 9206   7.073   4.628   3.143  0.0729 -0.6686 -0.3194
32494SOL    HW2 9207   7.061   4.564   3.280  1.3624  1.8199  1.0217
32495SOL     OW 9208   1.733  11.780   0.753  0.8484  0.1020 -0.2722
32495SOL    HW1 9209   1.704  11.793   0.843  0.7150  0.9691 -0.4352
32495SOL    HW2 9210   1.714  11.687   0.735  0.2849  0.0845  0.3775
32496SOL     OW 9211   4.610  11.117   2.652 -0.5040  0.0648 -0.0634
32496SOL    HW1 9212   4.609  11.109   2.557 -0.0899 -0.7199 -0.0097
32496SOL    HW2 9213   4.699  11.091   2.677 -0.5803  0.3623  0.5297
32497SOL     OW 9214   5.367   0.734   9.557 -0.1795 -0.0007 -0.0621
32497SOL    HW1 9215   5.345   0.711   9.466 -0.4968  0.1360 -0.0194
32497SOL    HW2 9216   5.440   0.795   9.549 -0.8793  0.8298 -0.2719
32498SOL     OW 9217   8.601   7.831  11.490 -0.3615 -0.3131 -0.2515
32498SOL    HW1 9218   8.536   7.856  11.557 -0.0670  0.4378 -0.2322
32498SOL    HW2 9219   8.583   7.739  11.472 -1.3045 -0.1729 -0.0926
32499SOL     OW 9220   8.943   3.117   8.280 -0.4702 -0.3150 -0.0707
32499SOL    HW1 9221   8.885   3.062   8.227 -1.6484 -0.4808  1.3193
32499SOL    HW2 9222   8.912   3.105   8.370  1.1971  0.2768  0.6256
32500SOL     OW 9223   1.888   4.319   8.383 -0.1555 -0.1504  0.2078
32500SOL    HW1 9224   1.917   4.365   8.461  1.4447  1.1459 -1.0730
32500SOL    HW2 9225   1.819   4.376   8.346  0.5076  0.3069 -0.3664
32501SOL     OW 9226   0.653   5.715   3.696  0.6083  0.2459  0.0406
32501SOL    HW1 9227   0.695   5.800   3.707  0.1331  0.6403 -1.0371
32501SOL    HW2 9228   0.566   5.725   3.736  0.7031  0.1405  0.2726
32502SOL     OW 9229   0.871  10.827   5.729 -0.2902  0.2830 -0.2483
32502SOL    HW1 9230   0.929  10.761   5.693 -0.6265  0.2315 -0.7058
32502SOL    HW2 9231   0.797  10.829   5.669 -1.4665 -0.6925  1.0976
32503SOL     OW 9232   7.857   3.423   3.048 -0.0018 -0.0878 -0.0214
32503SOL    HW1 9233   7.788   3.356   3.049 -0.8180  0.7442  0.8012
32503SOL    HW2 9234   7.855   3.457   2.959 -2.3437  1.5792  0.5651
32504SOL     OW 9235   0.547   5.618   1.597 -0.1802 -0.3822 -0.2754
32504SOL    HW1 9236   0.453   5.609   1.613  0.0513  0.7750  2.1755
32504SOL    HW2 9237   0.585   5.538   1.631 -0.1747 -0.3806 -0.2776
32505SOL     OW 9238   6.473   8.432   9.537 -0.4859 -0.0457 -0.5169
32505SOL    HW1 9239   6.415   8.506   9.554 -0.2772  0.4024 -1.7212
32505SOL    HW2 9240   6.436   8.390   9.459 -1.3665 -2.0000  0.8666
32506SOL     OW 9241   9.545   0.364  10.365  0.4441 -0.4308  0.2449
32506SOL    HW1 9242   9.499   0.390  10.285 -0.6690  0.7257  1.2163
32506SOL    HW2 9243   9.614   0.430  10.376  2.3460 -2.0857 -1.1370
32507SOL     OW 9244   9.359  10.229   9.443  0.4904  0.4139  0.3562
32507SOL    HW1 9245   9.302  10.152   9.451  1.3170 -0.4280 -1.2686
32507SOL    HW2 9246   9.298  10.303   9.441 -0.9403 -0.5781 -3.7588
32508SOL     OW 9247   7.268   7.178   6.786 -0.3157  0.2059 -0.2572
32508SOL    HW1 9248   7.252   7.178   6.691 -1.6378 -0.6349 -0.0641
32508SOL    HW2 9249   7.233   7.094   6.816  2.3662 -0.6814  0.6415
32509SOL     OW 9250   1.301   6.616  11.399  0.3141  0.0660  0.3792
32509SOL    HW1 9251   1.336   6.648  11.316 -1.0788 -0.3692 -0.4117
32509SOL    HW2 9252   1.206   6.612  11.386  0.1190 -0.6804  1.7543
32510SOL     OW 9253   6.577   5.016   6.219 -0.1136  0.1782  0.0034
32510SOL    HW1 9254   6.563   5.065   6.138 -0.0862  1.2172  0.6083
32510SOL    HW2 9255   6.672   5.003   6.223 -0.3429 -3.2566 -2.0219
32511SOL     OW 9256   4.048  10.128   6.680 -0.7673  0.1169 -0.5440
32511SOL    HW1 9257   4.074  10.042   6.649  0.0521 -0.1608  0.8384
32511SOL    HW2 9258   4.077  10.189   6.612 -0.4949 -0.6095 -1.0815
32512SOL     OW 9259   7.426  10.089   5.186  0.0113 -0.0144  0.2251
32512SOL    HW1 9260   7.450  10.038   5.263 -1.9120 -1.7164 -0.1955
32512SOL    HW2 9261   7.367  10.156   5.219 -2.0436 -1.6785  0.1511
32513SOL     OW 9262   3.022   2.947   2.436  0.7863 -0.3682  0.2343
32513SOL    HW1 9263   3.055   2.901   2.358  0.4850 -0.4998  0.1848
32513SOL    HW2 9264   3.093   3.007   2.459  1.3696 -1.1382  0.5416
32514SOL     OW 9265   4.208  11.883   9.256  0.0605  0.0236 -0.2237
32514SOL    HW1 9266   4.230  11.845   9.170  0.3461  0.0939 -0.1838
32514SOL    HW2 9267   4.125  11.843   9.280  0.8812 -1.4107  0.3179
32515SOL     OW 9268   2.304   2.668   2.553 -0.0413  0.2626  0.1411
32515SOL    HW1 9269   2.360   2.608   2.604  1.9891  2.1330  0.2878
32515SOL    HW2 9270   2.220   2.624   2.548  0.9819 -2.0053  1.3219
32516SOL     OW 9271   5.685   3.852   7.351 -0.1180  0.3488 -0.2903
32516SOL    HW1 9272   5.610   3.893   7.308 -1.1491 -0.9642  0.1981
32516SOL    HW2 9273   5.748   3.924   7.363 -1.1146  1.3916 -1.0735
32517SOL     OW 9274   7.399  10.625   3.706  0.3345  0.5669  0.0442
32517SOL    HW1 9275   7.451  10.630   3.786  0.0199  1.3461  0.2021
32517SOL    HW2 9276   7.352  10.543   3.713  0.0178  0.8092  0.8371
32518SOL     OW 9277   4.610   1.552   2.157  0.6441 -0.2995  0.1152
32518SOL    HW1 9278   4.677   1.493   2.191  1.9876  1.0996 -0.0040
32518SOL    HW2 9279   4.632   1.563   2.065 -1.1611 -1.6304 -0.5530
32519SOL     OW 9280   8.660   1.183   0.385 -0.1571  0.3998  0.2081
32519SOL    HW1 9281   8.755   1.176   0.387 -0.0888 -0.1349 -2.0883
32519SOL    HW2 9282   8.632   1.153   0.471  1.5638 -4.4562 -0.6062
32520SOL     OW 9283   4.588   1.941   6.710 -0.2731  0.3801 -0.2661
32520SOL    HW1 9284   4.643   2.004   6.757  0.2133  1.7622 -2.5431
32520SOL    HW2 9285   4.626   1.936   6.623 -1.6721 -1.3856 -0.8375
32521SOL     OW 9286   8.958   3.486   2.300  0.2863  0.1712  0.1996
32521SOL    HW1 9287   8.970   3.580   2.294 -1.1418  0.5147  1.7877
32521SOL    HW2 9288   8.999   3.462   2.384  2.1552 -0.9411 -0.9628
32522SOL     OW 9289   6.776   4.323   8.088  0.3263 -0.2017  0.0136
32522SOL    HW1 9290   6.724   4.387   8.136  2.5492  1.8124 -0.0945
32522SOL    HW2 9291   6.762   4.344   7.996 -0.0718 -0.8557 -0.0826
32523SOL     OW 9292   8.693   5.113   0.854 -0.0040  0.1755 -0.9155
32523SOL    HW1 9293   8.620   5.134   0.795  0.2185  0.7843 -0.9821
32523SOL    HW2 9294   8.698   5.188   0.913 -0.6384 -0.7038  0.3090
32524SOL     OW 9295   2.733   1.776   7.378 -0.6879  0.6355 -0.8565
32524SOL    HW1 9296   2.745   1.725   7.298  0.5415  0.2695 -0.4513
32524SOL    HW2 9297   2.726   1.867   7.348 -0.3650  0.4878 -1.3880
32525SOL     OW 9298   7.288   5.033   3.598 -0.0298 -0.6523 -0.0401
32525SOL    HW1 9299   7.336   5.045   3.680 -0.5428 -0.1669  0.1915
32525SOL    HW2 9300   7.299   5.115   3.551  1.1557 -1.2964 -0.9464
32526SOL     OW 9301  11.701   9.252   7.088  0.2615 -0.9160 -0.4134
32526SOL    HW1 9302  11.787   9.232   7.126 -0.6508 -2.0411  1.1630
32526SOL    HW2 9303  11.641   9.191   7.130 -1.7343  1.3561  0.2968
32527SOL     OW 9304   8.370   4.082   9.075 -0.4659  0.3318  0.0501
32527SOL    HW1 9305   8.279   4.069   9.048 -0.7482 -0.0059  1.0877
32527SOL    HW2 9306   8.401   3.993   9.094  0.0880  0.4459 -0.3207
32528SOL     OW 9307   4.986   7.153  11.152 -0.7132  0.3498 -0.0804
32528SOL    HW1 9308   4.897   7.189  11.144 -1.1134 -0.3848  0.8049
32528SOL    HW2 9309   4.992   7.088  11.083 -1.0061  0.1348  0.0944
32529SOL     OW 9310   0.162   4.137   6.846 -0.0033  0.4138  0.2335
32529SOL    HW1 9311   0.180   4.161   6.937  1.0905 -0.8576  0.3757
32529SOL    HW2 9312   0.249   4.127   6.806 -0.4631  0.0787 -0.7123
32530SOL     OW 9313   2.348   4.934   9.730  0.3475  0.0995 -0.2075
32530SOL    HW1 9314   2.387   4.900   9.650 -1.6915  0.1387 -1.2790
32530SOL    HW2 9315   2.363   4.865   9.795 -1.2748 -1.7276 -1.6291
32531SOL     OW 9316   5.004   7.126   9.401  0.0934  0.2821  0.1171
32531SOL    HW1 9317   5.029   7.204   9.452 -0.0044 -0.2615  1.0212
32531SOL    HW2 9318   5.044   7.140   9.315 -1.4779  2.2316 -0.3964
32532SOL     OW 9319   6.156   1.739   9.601  0.2518 -0.2922 -0.5500
32532SOL    HW1 9320   6.063   1.716   9.612  0.0584 -1.0500 -3.2331
32532SOL    HW2 9321   6.156   1.835   9.591 -0.0730 -0.1510  0.6526
32533SOL     OW 9322   8.800   3.198   3.970  0.5117 -0.1730 -0.1312
32533SOL    HW1 9323   8.749   3.120   3.991  1.4938 -0.5240  1.0699
32533SOL    HW2 9324   8.872   3.197   4.033  1.4080  0.8707 -1.1036
32534SOL     OW 9325   6.962   6.170  10.590 -0.0209  0.0890  0.6415
32534SOL    HW1 9326   6.902   6.145  10.520 -0.6577 -0.1873  1.2655
32534SOL    HW2 9327   6.986   6.087  10.632  0.0329  0.2843  1.0045
32535SOL     OW 9328   4.428  11.772  10.783  0.0140  0.1796 -0.3650
32535SOL    HW1 9329   4.396  11.820  10.859 -1.1163 -1.2057  0.0880
32535SOL    HW2 9330   4.433  11.681  10.813  0.2716 -0.2746 -1.7306
32536SOL     OW 9331   6.274   3.143   5.650  0.0158  0.3573  0.3815
32536SOL    HW1 9332   6.197   3.198   5.635  0.2832  0.5314 -0.4271
32536SOL    HW2 9333   6.240   3.063   5.688 -0.4703  0.7638  0.8152
32537SOL     OW 9334   1.692  11.402   0.812  0.5628 -0.2693  0.8740
32537SOL    HW1 9335   1.602  11.426   0.836 -0.1841 -1.1402 -0.8905
32537SOL    HW2 9336   1.685  11.311   0.781  1.9972 -0.2481  0.4116
32538SOL     OW 9337  11.882   4.414   9.387 -1.0954  0.1312  0.5243
32538SOL    HW1 9338  11.954   4.461   9.428 -0.7236  1.9303 -1.9175
32538SOL    HW2 9339  11.925   4.353   9.327 -1.4176  2.0815 -1.8802
32539SOL     OW 9340   9.697   0.870  11.573 -0.2268 -0.5565  0.2005
32539SOL    HW1 9341   9.650   0.889  11.491 -1.1938 -1.0472  0.6194
32539SOL    HW2 9342   9.714   0.776  11.568 -3.0997 -1.3048  1.9052
32540SOL     OW 9343   9.372   0.389  11.956  0.0059 -0.1097  0.0730
32540SOL    HW1 9344   9.396   0.329  11.885  0.6681  0.6466 -0.3669
32540SOL    HW2 9345   9.280   0.410  11.940  0.2469  0.3353 -0.7887
32541SOL     OW 9346   0.861   4.164   3.643  0.2360 -0.1955  0.0611
32541SOL    HW1 9347   0.868   4.158   3.547  0.2517 -1.1997  0.1205
32541SOL    HW2 9348   0.807   4.242   3.657 -1.1824 -0.9694 -0.8306
32542SOL     OW 9349   0.495   3.057   6.226  0.5139  0.0331  0.8019
32542SOL    HW1 9350   0.513   2.967   6.200  2.1863  0.4956  0.1924
32542SOL    HW2 9351   0.422   3.051   6.287  1.0267 -1.7993  1.2836
32543SOL     OW 9352   7.730   8.025   7.556 -0.2340  0.0893 -0.3421
32543SOL    HW1 9353   7.794   7.954   7.553  0.3758  0.6490 -1.5090
32543SOL    HW2 9354   7.710   8.036   7.649  0.6315 -0.7547 -0.0416
32544SOL     OW 9355   4.818   6.104   1.935 -0.1636 -0.2177  0.4025
32544SOL    HW1 9356   4.803   6.150   2.017  0.3862 -1.1465  1.0442
32544SOL    HW2 9357   4.814   6.011   1.958  2.4203 -0.5446 -0.0945
32545SOL     OW 9358   9.306  10.289  10.913  0.3190  0.0159 -0.4295
32545SOL    HW1 9359   9.388  10.328  10.943 -0.3016  0.4046  0.8093
32545SOL    HW2 9360   9.241  10.317  10.977 -0.5650 -1.2517 -0.7372
32546SOL     OW 9361   5.040   3.987   1.525 -0.2970 -0.2760 -0.1182
32546SOL    HW1 9362   4.974   4.048   1.493 -1.4126 -0.5678  1.5051
32546SOL    HW2 9363   5.010   3.901   1.496  0.5617 -0.2209 -1.2457
32547SOL     OW 9364   9.091  11.388   9.352  0.0158 -0.0114  0.4689
32547SOL    HW1 9365   9.099  11.479   9.380 -2.2161  1.4384 -2.8878
32547SOL    HW2 9366   9.025  11.350   9.410 -1.8857  1.7813 -0.3847
32548SOL     OW 9367   3.928   1.572   7.796 -0.3226 -0.2219  0.5490
32548SOL    HW1 9368   3.956   1.557   7.887 -1.3220 -0.0522  0.8949
32548SOL    HW2 9369   3.982   1.645   7.766  2.4386 -2.3705 -0.1318
32549SOL     OW 9370   2.765   0.534   7.606 -0.0608 -0.0006  0.7520
32549SOL    HW1 9371   2.700   0.465   7.617  0.3197 -0.5465 -0.2337
32549SOL    HW2 9372   2.720   0.602   7.556 -0.4357  0.4876  1.7225
32550SOL     OW 9373  11.207   4.688  10.376  0.3003  0.3916  0.0499
32550SOL    HW1 9374  11.261   4.625  10.329  0.5687  1.5028 -1.2099
32550SOL    HW2 9375  11.245   4.692  10.464  0.8898 -0.4558 -0.1570
32551SOL     OW 9376   5.720   0.321  11.869 -0.2760  0.1396  0.6980
32551SOL    HW1 9377   5.722   0.400  11.924  1.2628  0.9969 -0.5185
32551SOL    HW2 9378   5.786   0.263  11.907  0.1703  0.3754  0.2982
32552SOL     OW 9379   0.275   5.601   3.532  0.3631  0.1098 -0.1044
32552SOL    HW1 9380   0.322   5.608   3.449 -0.2570  1.3176 -0.3833
32552SOL    HW2 9381   0.182   5.604   3.508  0.1793  0.6160  0.6289
32553SOL     OW 9382   0.861   9.261   6.821 -0.2944  0.1130 -0.7750
32553SOL    HW1 9383   0.840   9.167   6.820 -1.3923  0.2991  0.7534
32553SOL    HW2 9384   0.814   9.297   6.746 -0.0354 -0.5061 -1.2507
32554SOL     OW 9385   5.684   4.775   2.135 -0.5136  0.3355  1.1276
32554SOL    HW1 9386   5.767   4.739   2.104  1.7527  6.3215 -1.2915
32554SOL    HW2 9387   5.624   4.764   2.062 -0.6504 -0.5600  1.3657
32555SOL     OW 9388   4.768   7.630   6.809 -0.3852 -0.2580 -0.3646
32555SOL    HW1 9389   4.673   7.620   6.808 -0.4828  0.7118 -0.9784
32555SOL    HW2 9390   4.783   7.710   6.860 -0.0123  0.6802 -1.9028
32556SOL     OW 9391   1.799   5.835   0.832  0.3746  0.3771  0.6213
32556SOL    HW1 9392   1.892   5.830   0.808 -0.2023  1.2967 -2.1984
32556SOL    HW2 9393   1.768   5.745   0.825  1.2029 -0.1438  2.6959
32557SOL     OW 9394  11.680   1.441   7.013  0.2407 -0.5179 -0.0783
32557SOL    HW1 9395  11.668   1.362   7.066  0.7096 -0.3472  0.2880
32557SOL    HW2 9396  11.617   1.503   7.048  1.0847 -0.1475  0.7977
32558SOL     OW 9397  10.591   5.269   7.421 -0.1714 -0.4699 -0.3485
32558SOL    HW1 9398  10.560   5.318   7.497  0.5437 -0.8314  0.1797
32558SOL    HW2 9399  10.520   5.278   7.357 -1.0222 -0.6419  0.5516
32559SOL     OW 9400   4.232   0.784   2.650 -0.4720 -0.5119  0.2000
32559SOL    HW1 9401   4.289   0.810   2.577 -0.6673 -1.2288 -0.2209
32559SOL    HW2 9402   4.195   0.700   2.623 -2.2053  0.2014  0.1854
32560SOL     OW 9403   5.861   7.686  10.184  0.0572 -0.2243  0.2362
32560SOL    HW1 9404   5.766   7.691  10.189  0.0746  0.4864 -0.1105
32560SOL    HW2 9405   5.884   7.610  10.239 -0.6788 -0.2216  0.5549
32561SOL     OW 9406  11.904   4.184   6.570 -0.1055 -0.6117  0.2114
32561SOL    HW1 9407  11.858   4.185   6.486  0.9484  1.7533 -0.4279
32561SOL    HW2 9408  11.997   4.186   6.547  0.1997  0.8768  1.3740
32562SOL     OW 9409   9.853  11.254   7.249 -0.2936  0.0899 -0.3827
32562SOL    HW1 9410   9.888  11.320   7.308 -0.9157 -0.7669  1.0199
32562SOL    HW2 9411   9.758  11.265   7.255 -0.3710  0.9358 -2.3980
32563SOL     OW 9412   2.984   6.159   4.971  0.2345 -0.2674  0.9264
32563SOL    HW1 9413   2.932   6.222   5.022 -2.3697 -1.0260 -0.6076
32563SOL    HW2 9414   2.999   6.202   4.887  1.1285 -0.5429  0.9302
32564SOL     OW 9415   9.909   5.407   0.617  0.2606 -0.2684 -0.3385
32564SOL    HW1 9416   9.861   5.334   0.655  0.9316 -0.1330  0.8342
32564SOL    HW2 9417   9.881   5.483   0.667  0.6556  0.0342 -0.5729
32565SOL     OW 9418   3.587  10.143   1.850 -0.5301  0.1194 -0.1850
32565SOL    HW1 9419   3.619  10.107   1.767  0.5283  2.0135 -0.6704
32565SOL    HW2 9420   3.633  10.227   1.859 -2.4464  1.1161  1.1166
32566SOL     OW 9421   9.271   0.059   4.772 -0.3511 -0.6184 -0.3681
32566SOL    HW1 9422   9.313   0.141   4.798 -0.0941 -0.9054  0.1606
32566SOL    HW2 9423   9.336   0.015   4.717 -0.1160 -0.8744  0.1055
32567SOL     OW 9424   8.851   8.401   8.073 -0.5773  0.5993  0.4648
32567SOL    HW1 9425   8.861   8.435   8.162  0.8602  0.4874  0.3754
32567SOL    HW2 9426   8.808   8.472   8.025  0.1452  1.3269  0.8619
32568SOL     OW 9427  11.914   3.926   1.288  0.5006  0.0832  0.1381
32568SOL    HW1 9428  11.958   4.012   1.288 -0.0293  0.3582 -0.3880
32568SOL    HW2 9429  11.821   3.947   1.293  0.4015 -0.4904  0.8332
32569SOL     OW 9430   8.391   4.953  11.170  0.2903 -0.1368  0.6897
32569SOL    HW1 9431   8.448   4.901  11.227  1.0948 -0.7087 -0.5669
32569SOL    HW2 9432   8.424   4.935  11.082 -1.0777  0.5009  0.0197
32570SOL     OW 9433   4.086  11.372   9.801  0.7176  0.4618 -0.1926
32570SOL    HW1 9434   4.145  11.434   9.758 -0.9050  0.6253 -2.3195
32570SOL    HW2 9435   4.121  11.286   9.778  2.3356  0.4830  1.8602
32571SOL     OW 9436   8.606   6.730  10.957  0.4432 -0.2524 -0.7811
32571SOL    HW1 9437   8.594   6.798  10.890  2.1533  0.4081 -0.4613
32571SOL    HW2 9438   8.613   6.779  11.039  1.8036 -0.8035 -0.5568
32572SOL     OW 9439   4.608   9.625   0.845 -0.0581 -0.1959 -0.0177
32572SOL    HW1 9440   4.590   9.682   0.920  1.4394  0.4544 -0.1037
32572SOL    HW2 9441   4.675   9.565   0.877  0.9182  0.3711 -0.9228
32573SOL     OW 9442   4.686   4.234   7.417  0.8635 -0.1308  0.0610
32573SOL    HW1 9443   4.658   4.268   7.332  0.5383  0.6558  0.4747
32573SOL    HW2 9444   4.689   4.139   7.405  1.5015  0.0159 -1.0249
32574SOL     OW 9445   2.585   5.327   1.497  0.0952 -0.2643  0.3447
32574SOL    HW1 9446   2.585   5.266   1.571 -1.8205  0.6399  1.1464
32574SOL    HW2 9447   2.505   5.306   1.449 -0.0697  0.9175  0.0663
32575SOL     OW 9448   7.982   7.386   8.469 -0.2301 -0.6232  0.0376
32575SOL    HW1 9449   8.015   7.466   8.428  1.5612 -0.0082  2.4524
32575SOL    HW2 9450   7.887   7.392   8.461 -0.2784  2.6980  1.7029
32576SOL     OW 9451   1.232  10.088  10.148  0.0338  0.7016  0.1368
32576SOL    HW1 9452   1.196  10.121  10.066 -0.9569  0.0354  0.2821
32576SOL    HW2 9453   1.249   9.995  10.132  0.4179  0.7058  0.4964
32577SOL     OW 9454   3.202   5.076  11.223  0.3966  0.4377  0.6093
32577SOL    HW1 9455   3.162   5.098  11.307 -0.5631  0.0717  0.2664
32577SOL    HW2 9456   3.231   4.985  11.234  1.4574  0.8083  0.9675
32578SOL     OW 9457   8.612  11.949   5.546  0.1302 -0.3542 -0.1979
32578SOL    HW1 9458   8.670  11.893   5.495  0.1057 -1.0617  0.5305
32578SOL    HW2 9459   8.608  11.907   5.632 -1.4691 -0.3341 -0.2351
32579SOL     OW 9460   2.979   0.896   1.381 -0.2407  0.3391 -0.2985
32579SOL    HW1 9461   3.052   0.947   1.416 -0.9483 -0.5021  2.7329
32579SOL    HW2 9462   3.020   0.829   1.327  1.1988  0.2727  0.8246
32580SOL     OW 9463   1.087   1.274   9.223 -0.2759 -0.4013  0.5504
32580SOL    HW1 9464   1.009   1.321   9.194  0.4634  0.0512 -0.7668
32580SOL    HW2 9465   1.094   1.200   9.163  1.5304  0.7995 -0.8171
32581SOL     OW 9466   4.417   5.981   1.938  0.5066  0.1914  0.8940
32581SOL    HW1 9467   4.344   6.015   1.990 -0.8503  1.1188 -1.4780
32581SOL    HW2 9468   4.469   5.931   2.001 -2.0503 -0.3894  2.7271
32582SOL     OW 9469   0.031   2.673  11.349 -0.4010 -0.4401  0.8111
32582SOL    HW1 9470   0.082   2.752  11.364  0.9051 -1.1760  0.4413
32582SOL    HW2 9471  -0.059   2.698  11.367 -0.0526  1.2083  0.3653
32583SOL     OW 9472   7.252   9.515   2.047 -0.1751 -0.0186 -0.1603
32583SOL    HW1 9473   7.263   9.536   1.954 -0.7909  0.5063 -0.1235
32583SOL    HW2 9474   7.340   9.512   2.082  0.0061  1.0508 -0.4900
32584SOL     OW 9475   9.202   5.769   3.531  0.0088 -0.1491  0.2129
32584SOL    HW1 9476   9.145   5.827   3.480 -1.8683 -1.9568  0.1337
32584SOL    HW2 9477   9.283   5.764   3.480 -1.2227 -0.6283 -1.8116
32585SOL     OW 9478   8.083   2.926   4.381 -0.2848 -0.3352 -0.2911
32585SOL    HW1 9479   8.146   2.861   4.413  1.2183  1.6962  1.1432
32585SOL    HW2 9480   8.020   2.936   4.452 -0.4039 -0.1071 -0.4261
32586SOL     OW 9481   8.200   8.926   0.445 -0.0370  0.0969 -0.0871
32586SOL    HW1 9482   8.180   8.923   0.538 -0.3629 -0.1654 -0.1607
32586SOL    HW2 9483   8.139   8.863   0.406 -0.8500  1.1930 -0.6479
32587SOL     OW 9484   4.484  10.211   1.149 -0.5451 -0.0624  0.1867
32587SOL    HW1 9485   4.558  10.266   1.174 -0.8736 -0.4858  2.3054
32587SOL    HW2 9486   4.432  10.266   1.090  0.0163  1.2796  0.8980
32588SOL     OW 9487   3.267  11.094   2.816  0.4722 -0.1853  0.1077
32588SOL    HW1 9488   3.327  11.038   2.766  0.2870 -0.0072 -0.3219
32588SOL    HW2 9489   3.323  11.141   2.877  0.5151 -1.6178  1.2311
32589SOL     OW 9490   8.743   4.675   4.262 -0.0908  0.2091 -0.0101
32589SOL    HW1 9491   8.703   4.611   4.320  1.0002 -0.8545 -0.3932
32589SOL    HW2 9492   8.686   4.675   4.185  1.1430 -2.1349 -1.0371
32590SOL     OW 9493   3.408   9.314   8.496  0.4493 -0.1201  0.5313
32590SOL    HW1 9494   3.449   9.272   8.572 -0.7815 -2.0926  0.1709
32590SOL    HW2 9495   3.317   9.283   8.498 -0.4566  2.2499 -0.0329
32591SOL     OW 9496   0.054   0.738   9.366 -0.3312  0.1016  0.7565
32591SOL    HW1 9497   0.047   0.659   9.420  1.8218 -0.5826  0.1508
32591SOL    HW2 9498   0.083   0.706   9.281  0.2667  1.5092  0.4080
32592SOL     OW 9499   9.835   7.505   0.580 -0.3022  0.2355  0.4826
32592SOL    HW1 9500   9.848   7.589   0.535 -1.4894 -0.7258 -1.8117
32592SOL    HW2 9501   9.741   7.499   0.592 -0.1225 -0.2522  1.7530
32593SOL     OW 9502  10.055   4.430   1.346 -0.1672 -0.2677  0.2872
32593SOL    HW1 9503  10.087   4.512   1.309 -0.1766 -0.5141 -0.2756
32593SOL    HW2 9504  10.123   4.404   1.408 -1.1836  1.2898  2.1608
32594SOL     OW 9505   6.650   9.982  10.895 -0.6576  0.1072  0.0089
32594SOL    HW1 9506   6.609   9.952  10.814 -1.0603 -0.8226  0.5487
32594SOL    HW2 9507   6.590  10.047  10.931  0.0199  1.3109 -0.9500
32595SOL     OW 9508   8.593   4.801   5.287 -0.1732 -0.7955 -0.7651
32595SOL    HW1 9509   8.538   4.724   5.300  1.9144 -2.2598 -0.0906
32595SOL    HW2 9510   8.619   4.827   5.376  1.6759 -1.2713 -1.1479
32596SOL     OW 9511   9.808   1.798   7.214 -0.3722 -0.0487 -0.2789
32596SOL    HW1 9512   9.816   1.893   7.218 -1.3444  0.2136 -3.0282
32596SOL    HW2 9513   9.716   1.782   7.196 -0.9858 -1.7630  3.3384
32597SOL     OW 9514   1.090   0.182   6.160 -0.1598  0.1741  0.1475
32597SOL    HW1 9515   1.013   0.156   6.210 -1.1202  0.6721 -1.0116
32597SOL    HW2 9516   1.158   0.196   6.225 -1.1446  0.0501  1.2268
32598SOL     OW 9517   1.002   4.611  11.768 -0.3800 -0.2583  0.4716
32598SOL    HW1 9518   0.930   4.673  11.764 -0.9868 -0.8832  1.3002
32598SOL    HW2 9519   0.963   4.530  11.801  0.0115 -1.6529 -2.1909
32599SOL     OW 9520   7.609   6.191  10.923  0.5149 -0.3370  0.1427
32599SOL    HW1 9521   7.516   6.171  10.936  0.6963 -0.6465  0.9886
32599SOL    HW2 9522   7.645   6.198  11.011  0.6749  2.8028 -0.0633
32600SOL     OW 9523   5.525   9.180   2.051  0.3528 -0.0388 -0.5688
32600SOL    HW1 9524   5.484   9.156   2.135  2.7276  0.0443  0.6955
32600SOL    HW2 9525   5.466   9.247   2.015 -1.0865 -0.5459  0.6990
32601SOL     OW 9526   1.029  10.424   5.417  0.3738  0.7683  0.3469
32601SOL    HW1 9527   0.953  10.476   5.389  0.5698  0.7399 -0.2539
32601SOL    HW2 9528   1.101  10.457   5.363  1.0143  1.4634  1.5934
32602SOL     OW 9529   2.804   4.377   4.953 -0.3129 -0.3120  0.0256
32602SOL    HW1 9530   2.797   4.463   4.994 -3.1333 -0.6157  0.3924
32602SOL    HW2 9531   2.826   4.317   5.025 -1.4432 -0.3074  0.3886
32603SOL     OW 9532   4.277   4.885   8.287  0.0630  0.5451  0.6186
32603SOL    HW1 9533   4.246   4.966   8.328 -1.8084 -0.3965  1.1523
32603SOL    HW2 9534   4.266   4.818   8.354 -0.4499 -0.5340 -0.5068
32604SOL     OW 9535   0.613   7.049   9.345 -0.4777 -0.3394 -0.1339
32604SOL    HW1 9536   0.570   7.128   9.378 -1.1585 -0.1495 -1.4247
32604SOL    HW2 9537   0.603   7.054   9.250  2.6816 -0.1513 -0.5323
32605SOL     OW 9538   7.182   8.241   9.771  0.2727  0.0723  0.5089
32605SOL    HW1 9539   7.187   8.155   9.812  0.5224 -0.4066 -0.4850
32605SOL    HW2 9540   7.113   8.233   9.706  0.9763  0.3010 -0.2910
32606SOL     OW 9541   4.443   4.961   5.039 -0.0866 -0.3534  0.4980
32606SOL    HW1 9542   4.468   5.054   5.035  1.3151 -0.6961  0.7676
32606SOL    HW2 9543   4.400   4.952   5.124 -0.8550  0.1787  0.1803
32607SOL     OW 9544   3.645   7.276   1.839 -0.0135  0.0031 -0.2817
32607SOL    HW1 9545   3.740   7.293   1.842 -0.0694  0.2707  0.0525
32607SOL    HW2 9546   3.631   7.209   1.906 -0.0111 -0.2932 -0.5752
32608SOL     OW 9547   9.784   5.372   5.194  0.1714 -0.3638 -1.0070
32608SOL    HW1 9548   9.870   5.364   5.154  0.4265  0.8335 -0.7266
32608SOL    HW2 9549   9.732   5.302   5.154  1.8133 -2.4907  0.3469
32609SOL     OW 9550   9.735   1.350  11.555 -0.1638  0.2455  0.5870
32609SOL    HW1 9551   9.773   1.276  11.602  1.0853  0.9179  0.6855
32609SOL    HW2 9552   9.788   1.356  11.475 -2.5320 -1.1728 -1.2198
32610SOL     OW 9553   8.222  11.834   5.801  0.2157  0.7701 -0.0368
32610SOL    HW1 9554   8.298  11.885   5.830  0.6795  0.2447 -0.3100
32610SOL    HW2 9555   8.149  11.897   5.802  1.0955  1.8967 -1.9951
32611SOL     OW 9556   7.672   1.460   5.774 -0.5652  0.4334 -0.2820
32611SOL    HW1 9557   7.767   1.451   5.762 -0.9760 -1.1620 -3.1245
32611SOL    HW2 9558   7.657   1.426   5.862  1.3146 -1.1470 -0.4946
32612SOL     OW 9559   8.802   2.191  11.671 -0.1483  0.3841 -0.1806
32612SOL    HW1 9560   8.886   2.183  11.626  0.0793 -1.0399  0.4466
32612SOL    HW2 9561   8.780   2.102  11.697 -1.2296  0.9114  0.7916
32613SOL     OW 9562   2.276  11.750   0.961  0.5488  0.2768  0.1318
32613SOL    HW1 9563   2.370  11.732   0.958  0.2599 -1.3629  0.0921
32613SOL    HW2 9564   2.240  11.704   0.884 -0.3412  0.5075  0.3965
32614SOL     OW 9565   7.336   0.728   0.958  0.5136 -0.1892  0.5774
32614SOL    HW1 9566   7.429   0.749   0.965  0.4389  0.2976  0.1666
32614SOL    HW2 9567   7.302   0.792   0.896  0.0984 -0.9966 -0.0425
32615SOL     OW 9568   1.871   1.764   3.580  0.4667  0.1595 -0.0615
32615SOL    HW1 9569   1.792   1.742   3.631  1.4432  2.0765  2.5285
32615SOL    HW2 9570   1.907   1.680   3.554 -0.0965 -1.0236  2.6047
32616SOL     OW 9571   6.725   5.237   1.395 -1.1472 -0.2339  0.4110
32616SOL    HW1 9572   6.791   5.300   1.423 -0.4964 -1.2082  1.1885
32616SOL    HW2 9573   6.672   5.283   1.330  1.6574 -0.0695 -1.9677
32617SOL     OW 9574   3.468  11.536   1.968 -0.3448  0.4366  0.5463
32617SOL    HW1 9575   3.484  11.446   1.939 -0.8284 -0.0846  1.8108
32617SOL    HW2 9576   3.379  11.534   2.003  0.3410  0.8920  2.4331
32618SOL     OW 9577   4.936   8.582   6.177 -0.0626 -0.1475  0.1134
32618SOL    HW1 9578   4.948   8.523   6.103  1.4956  0.2636 -0.0118
32618SOL    HW2 9579   4.868   8.542   6.230 -1.1520 -0.4940 -1.4873
32619SOL     OW 9580   4.049   4.665   0.328 -0.5081 -0.5954 -0.0792
32619SOL    HW1 9581   4.084   4.590   0.376 -0.5716 -0.6804 -0.1673
32619SOL    HW2 9582   3.994   4.711   0.392 -0.8363 -0.8767 -0.1594
32620SOL     OW 9583   1.709   8.654   8.265 -0.3319  0.3400  0.1615
32620SOL    HW1 9584   1.764   8.693   8.333 -1.1701  0.6160  0.7003
32620SOL    HW2 9585   1.766   8.591   8.221  0.0708 -0.2694  1.4897
32621SOL     OW 9586   2.580   0.687   7.395  0.3055  0.5222  0.1281
32621SOL    HW1 9587   2.606   0.750   7.328 -1.6465  0.9151 -0.3315
32621SOL    HW2 9588   2.511   0.732   7.444  1.6779  0.2319  2.4290
32622SOL     OW 9589   3.232   1.275   5.153 -0.1437  0.0781  0.4015
32622SOL    HW1 9590   3.173   1.225   5.097 -0.0989 -0.8701  1.1793
32622SOL    HW2 9591   3.317   1.270   5.109  0.0809 -1.3735  0.9320
32623SOL     OW 9592   3.661   6.017   6.602 -0.1367  0.4142  0.0671
32623SOL    HW1 9593   3.744   6.055   6.575  0.4370 -0.9451 -0.1634
32623SOL    HW2 9594   3.633   6.069   6.677  0.9542  0.8385  0.1874
32624SOL     OW 9595   6.039   1.119  10.716 -0.2666  0.5435 -0.3691
32624SOL    HW1 9596   6.077   1.180  10.780 -0.5762 -0.6632  1.0229
32624SOL    HW2 9597   6.095   1.042  10.720 -1.7366 -0.5514  0.3928
32625SOL     OW 9598   6.756   3.855   7.575 -0.2807  0.0058  0.4094
32625SOL    HW1 9599   6.753   3.831   7.668  2.4990  4.4434  1.9560
32625SOL    HW2 9600   6.777   3.773   7.530  0.8480 -1.8945  3.9850
32626SOL     OW 9601   1.996   5.429   2.793  0.4787  0.6842 -0.1857
32626SOL    HW1 9602   2.088   5.425   2.768  0.3512 -0.0087 -0.5740
32626SOL    HW2 9603   1.994   5.490   2.867  1.2306  0.7946 -0.2468
32627SOL     OW 9604   6.337  10.052   4.019 -0.5586  0.8026 -0.0711
32627SOL    HW1 9605   6.368   9.969   4.055  1.2141  1.3526 -0.1987
32627SOL    HW2 9606   6.242  10.049   4.028 -0.4720 -0.9278  0.5767
32628SOL     OW 9607   6.605   3.268   9.410  0.8588 -0.3712  0.0676
32628SOL    HW1 9608   6.666   3.197   9.389  1.6951 -0.2987  2.0099
32628SOL    HW2 9609   6.554   3.234   9.484  0.3610  0.5543  0.1643
32629SOL     OW 9610   9.694   8.987   5.507 -0.1902 -0.3140 -0.3812
32629SOL    HW1 9611   9.627   8.991   5.575  1.4211  1.8645  1.2060
32629SOL    HW2 9612   9.715   8.893   5.499 -1.3271 -0.7330  1.1940
32630SOL     OW 9613   3.675   8.918  10.812 -0.1263  0.3514 -0.0120
32630SOL    HW1 9614   3.728   8.943  10.888 -1.9166  0.8752  1.1283
32630SOL    HW2 9615   3.739   8.884  10.749  1.5235  0.7115  1.3683
32631SOL     OW 9616   9.340   1.491   5.398 -0.0443  0.3952  0.5175
32631SOL    HW1 9617   9.427   1.489   5.438 -0.3234  0.8801  1.1599
32631SOL    HW2 9618   9.314   1.583   5.402 -0.3763  0.3348 -0.1428
32632SOL     OW 9619  11.343   5.820   2.475  0.2742 -0.9741 -0.1639
32632SOL    HW1 9620  11.376   5.787   2.391  1.3546 -1.4920  0.4400
32632SOL    HW2 9621  11.417   5.811   2.535 -0.8593 -1.8015  1.1737
32633SOL     OW 9622   3.527   1.407   3.691  0.0555  0.0543  0.4502
32633SOL    HW1 9623   3.620   1.420   3.672  0.0688  0.6557  0.9205
32633SOL    HW2 9624   3.526   1.363   3.776 -0.0961  0.3087  0.5820
32634SOL     OW 9625   9.602  11.866  11.105  0.4026 -0.0580  0.1115
32634SOL    HW1 9626   9.561  11.944  11.142  0.6064 -1.0162  2.5410
32634SOL    HW2 9627   9.558  11.792  11.148  0.4808 -1.2898 -1.8188
32635SOL     OW 9628   8.882   9.123   2.940  0.7431  0.3137 -0.2051
32635SOL    HW1 9629   8.952   9.131   3.005  2.1316  0.2213 -1.6286
32635SOL    HW2 9630   8.831   9.047   2.967  1.9400 -0.3549  0.2010
32636SOL     OW 9631   5.217   0.121   1.858 -0.0407  0.0006 -0.2288
32636SOL    HW1 9632   5.161   0.114   1.781 -2.1842 -2.3777  1.3974
32636SOL    HW2 9633   5.269   0.041   1.858 -0.8639 -0.5847  1.3084
32637SOL     OW 9634   8.392   0.796   5.967  0.1245  0.1420 -0.0582
32637SOL    HW1 9635   8.482   0.766   5.969  0.0468 -0.2532 -1.4661
32637SOL    HW2 9636   8.399   0.891   5.956  0.3478  0.3638  1.6894
32638SOL     OW 9637   6.430   7.720   3.988  0.2437 -0.2758 -0.5926
32638SOL    HW1 9638   6.470   7.787   4.044 -0.6985  0.8159 -1.1956
32638SOL    HW2 9639   6.412   7.765   3.906 -2.3701 -0.6400 -0.2994
32639SOL     OW 9640   0.655   2.166   5.762  0.3873  0.1133  0.2742
32639SOL    HW1 9641   0.701   2.154   5.679  0.0452  0.0677  0.0862
32639SOL    HW2 9642   0.579   2.108   5.755 -0.6482  1.4579 -0.1438
32640SOL     OW 9643   3.895   3.485   0.278 -0.1454 -0.4078  0.0749
32640SOL    HW1 9644   3.980   3.459   0.243  0.2452 -2.2084  2.1638
32640SOL    HW2 9645   3.915   3.549   0.346 -0.6484  0.5807 -0.6737
32641SOL     OW 9646   3.172   5.858   6.759  0.1893 -0.1362 -0.0169
32641SOL    HW1 9647   3.243   5.898   6.709  0.0446 -0.2468 -0.3144
32641SOL    HW2 9648   3.200   5.864   6.850 -0.1884  1.3757  0.0189
32642SOL     OW 9649  11.255   2.517   5.845  0.0743  0.2205  0.1912
32642SOL    HW1 9650  11.328   2.498   5.903  1.4862 -0.4473 -1.7092
32642SOL    HW2 9651  11.187   2.454   5.871  0.4452  0.3206  1.4561
32643SOL     OW 9652   3.349   3.829   0.430  0.1598 -0.1228  0.1324
32643SOL    HW1 9653   3.377   3.848   0.519 -0.5327 -0.0692  0.3474
32643SOL    HW2 9654   3.342   3.915   0.388 -0.1907 -0.0987  0.2385
32644SOL     OW 9655   0.391   9.640   7.605  0.3796 -0.0219 -0.0037
32644SOL    HW1 9656   0.434   9.688   7.676  0.7968  1.0571 -0.9423
32644SOL    HW2 9657   0.307   9.684   7.593 -0.0950 -0.7924  0.4255
32645SOL     OW 9658   7.961   1.927   3.370  0.5221  0.7027  0.0036
32645SOL    HW1 9659   7.923   1.969   3.293  0.3438 -0.1197 -0.3668
32645SOL    HW2 9660   7.894   1.866   3.400  0.6361  0.9303  0.7492
32646SOL     OW 9661  10.360  10.603  10.963 -0.7802  0.3975 -0.4211
32646SOL    HW1 9662  10.363  10.632  10.872  0.5030  1.2435 -0.1430
32646SOL    HW2 9663  10.432  10.540  10.970  1.1380  2.5648  0.6768
32647SOL     OW 9664   1.315   8.810  11.909  0.1599  0.0003 -0.6619
32647SOL    HW1 9665   1.316   8.811  12.004  0.1658  0.2338 -0.6645
32647SOL    HW2 9666   1.321   8.718  11.886  0.7061 -0.0197 -0.4439
32648SOL     OW 9667   1.082   4.666   5.598  0.2647 -0.5664 -0.0137
32648SOL    HW1 9668   1.025   4.738   5.624 -0.6478 -1.3368  0.1533
32648SOL    HW2 9669   1.117   4.632   5.680  2.4800  1.0717 -0.1955
32649SOL     OW 9670   2.433   6.596  11.078  0.2347  0.7980  0.1270
32649SOL    HW1 9671   2.366   6.576  11.012 -1.3203  0.5483  1.7280
32649SOL    HW2 9672   2.486   6.516  11.084 -1.0530 -0.0374  0.8094
32650SOL     OW 9673   2.761   7.146   6.092 -0.0121 -0.1148  0.0347
32650SOL    HW1 9674   2.727   7.077   6.036  0.0190 -0.4082  0.3730
32650SOL    HW2 9675   2.823   7.101   6.150 -0.1415  0.1622  0.3875
32651SOL     OW 9676   0.465   4.305   2.452  0.7599 -0.1233 -0.0543
32651SOL    HW1 9677   0.374   4.332   2.445  0.7958  0.0285  0.0445
32651SOL    HW2 9678   0.484   4.309   2.546  1.1293  0.7224 -0.1570
32652SOL     OW 9679   4.281   8.743   1.177  0.0750  0.6632 -0.5123
32652SOL    HW1 9680   4.341   8.671   1.198 -0.7822 -0.9588 -3.1184
32652SOL    HW2 9681   4.204   8.727   1.232  1.0722  1.4749  1.2108
32653SOL     OW 9682   0.271  10.343   6.085  0.6932 -0.0117 -0.0946
32653SOL    HW1 9683   0.359  10.333   6.049  0.0523 -1.3890 -1.3722
32653SOL    HW2 9684   0.231  10.411   6.031  1.4548  1.8557  1.5548
32654SOL     OW 9685   4.522   1.199   5.893 -0.0961 -0.0299  0.2218
32654SOL    HW1 9686   4.453   1.247   5.939 -2.2220 -0.9861 -1.7835
32654SOL    HW2 9687   4.533   1.119   5.944  0.3080  0.5879  1.1271
32655SOL     OW 9688   9.459   2.537   9.410 -0.3716  0.7968  0.8928
32655SOL    HW1 9689   9.394   2.494   9.355  1.4694 -1.2373  0.1645
32655SOL    HW2 9690   9.408   2.593   9.468 -2.6556  0.1612 -0.3817
32656SOL     OW 9691   6.938   6.294   9.809  0.1747 -0.3242  0.0951
32656SOL    HW1 9692   6.920   6.306   9.716  0.1500 -0.1745  0.1196
32656SOL    HW2 9693   6.900   6.209   9.829 -2.0058  0.6903  0.5246
32657SOL     OW 9694   9.334   8.102   7.043 -0.0015 -0.2417 -0.5658
32657SOL    HW1 9695   9.254   8.137   7.005 -0.4659 -1.4118 -0.6965
32657SOL    HW2 9696   9.355   8.025   6.989  0.5024 -0.6862  0.2421
32658SOL     OW 9697   9.704   3.125   0.396  0.2999 -0.1069 -0.3893
32658SOL    HW1 9698   9.727   3.195   0.456  2.1175 -1.7729  0.9948
32658SOL    HW2 9699   9.752   3.146   0.315  3.7573 -1.3739  1.1220
32659SOL     OW 9700   0.851   0.846  11.348  0.1382 -0.2835 -0.3300
32659SOL    HW1 9701   0.880   0.910  11.283  1.1213  0.3414  0.6995
32659SOL    HW2 9702   0.876   0.761  11.311  0.7346  0.0678 -0.7532
32660SOL     OW 9703   4.418   2.413   0.790 -0.0230  0.3697  0.5100
32660SOL    HW1 9704   4.511   2.392   0.800  0.4749  1.4057 -1.4898
32660SOL    HW2 9705   4.416   2.489   0.733 -2.1496 -0.1231 -0.1797
32661SOL     OW 9706   6.173  10.059   5.365 -0.1629 -0.2114 -0.9714
32661SOL    HW1 9707   6.148  10.059   5.273  0.1655  0.6344 -1.0778
32661SOL    HW2 9708   6.185   9.967   5.387 -2.2449 -0.5750 -1.2044
32662SOL     OW 9709   8.398   5.465   3.995 -0.2213  0.5424  0.7140
32662SOL    HW1 9710   8.372   5.538   4.052  0.8608  1.6864 -0.1958
32662SOL    HW2 9711   8.364   5.490   3.909 -1.5993 -1.0357  0.7492
32663SOL     OW 9712   4.429   5.474   2.580  0.7396  0.3078  0.2766
32663SOL    HW1 9713   4.514   5.430   2.581  0.9179  0.6548  0.6920
32663SOL    HW2 9714   4.367   5.408   2.550  1.1332  0.0099  0.1210
32664SOL     OW 9715  11.716   7.205   7.565 -0.0650 -0.0323  0.1310
32664SOL    HW1 9716  11.757   7.174   7.646 -0.1566 -0.5578 -0.0234
32664SOL    HW2 9717  11.734   7.299   7.564  2.2987 -0.4461 -0.6025
32665SOL     OW 9718   9.321   2.764   0.118 -0.3486 -0.2517 -0.2037
32665SOL    HW1 9719   9.351   2.855   0.126 -3.0110  0.8349 -1.2048
32665SOL    HW2 9720   9.231   2.766   0.151 -0.2793 -2.7143  0.3399
32666SOL     OW 9721   2.226   6.704   8.118  0.2148  0.3371 -0.0384
32666SOL    HW1 9722   2.261   6.774   8.062 -0.4863  1.9458  1.4343
32666SOL    HW2 9723   2.296   6.686   8.180 -0.4949  1.6485  1.2156
32667SOL     OW 9724   5.086  11.781   8.197 -0.8641 -0.7358 -0.1545
32667SOL    HW1 9725   5.017  11.843   8.173 -0.9934 -0.5360  0.7214
32667SOL    HW2 9726   5.154  11.795   8.131 -1.5828 -0.8380 -0.9477
32668SOL     OW 9727   3.043   4.094  11.806  0.3673 -0.6697 -0.1501
32668SOL    HW1 9728   3.019   4.119  11.895 -1.6898  0.9527 -1.0693
32668SOL    HW2 9729   3.103   4.020  11.817  0.0803 -0.5948  2.5548
32669SOL     OW 9730   5.985  10.632  11.483 -0.3748  0.0006 -0.1193
32669SOL    HW1 9731   5.955  10.674  11.563  0.4614 -0.0608  0.2325
32669SOL    HW2 9732   5.936  10.550  11.480 -1.4491  0.6419 -0.4147
32670SOL     OW 9733   7.345   6.658   6.669  0.0974 -0.1528 -0.5531
32670SOL    HW1 9734   7.403   6.687   6.739 -1.1700 -0.4226  0.6620
32670SOL    HW2 9735   7.267   6.626   6.715 -2.7979  3.8149 -2.1284
32671SOL     OW 9736   8.850   3.926   7.244  0.5819 -0.7279  0.1618
32671SOL    HW1 9737   8.789   3.889   7.180 -0.6215  0.2220  0.7183
32671SOL    HW2 9738   8.812   4.011   7.267  2.5564  0.2851 -0.0854
32672SOL     OW 9739   0.958  11.731   9.384  0.2102  0.3584 -0.0861
32672SOL    HW1 9740   0.887  11.721   9.448  1.0320  1.3532  1.0237
32672SOL    HW2 9741   1.007  11.807   9.415 -0.2410  1.8758 -2.7543
32673SOL     OW 9742   5.754   6.255   5.619 -0.3734 -0.2741 -0.7331
32673SOL    HW1 9743   5.801   6.184   5.663  2.0231  1.5319 -0.1948
32673SOL    HW2 9744   5.823   6.312   5.585 -2.1822  2.0969 -0.6683
32674SOL     OW 9745   8.449   2.107   5.167 -0.5792 -0.3128  0.1163
32674SOL    HW1 9746   8.487   2.035   5.116 -0.2564 -0.2153  0.2166
32674SOL    HW2 9747   8.458   2.078   5.258 -1.4009 -0.6088  0.1156
32675SOL     OW 9748  11.342   4.787   0.745  0.3023  0.1158 -0.5097
32675SOL    HW1 9749  11.251   4.758   0.735 -0.8047  1.8505  2.9143
32675SOL    HW2 9750  11.393   4.706   0.741 -1.3795 -0.9816 -1.9110
32676SOL     OW 9751   0.123   3.132   4.734 -0.6966 -0.0419  0.1119
32676SOL    HW1 9752   0.158   3.218   4.757 -0.9054 -0.2653  1.3174
32676SOL    HW2 9753   0.156   3.073   4.801 -0.8335 -0.8458 -0.5110
32677SOL     OW 9754   0.173   5.389  11.743 -0.1655 -0.5696 -0.6199
32677SOL    HW1 9755   0.092   5.353  11.777 -0.8153  0.1232 -1.3835
32677SOL    HW2 9756   0.146   5.446  11.671  0.7140  1.9790  0.9283
32678SOL     OW 9757   2.016   7.618   2.159  0.3768  0.0870 -0.0367
32678SOL    HW1 9758   1.994   7.641   2.250 -0.0559  1.8972 -0.5580
32678SOL    HW2 9759   2.089   7.558   2.167  1.3711  1.4042  1.5016
32679SOL     OW 9760  11.435   5.507   6.260  0.4007  0.1317  0.4694
32679SOL    HW1 9761  11.345   5.474   6.262  1.2219 -2.4347 -0.7128
32679SOL    HW2 9762  11.429   5.595   6.297 -2.1954 -0.8434  2.7145
32680SOL     OW 9763  10.072   6.852   7.153 -0.1213  0.2939 -0.2225
32680SOL    HW1 9764  10.043   6.762   7.140 -0.2067  0.2229  0.4066
32680SOL    HW2 9765  10.019   6.904   7.093  0.6639 -0.1851 -1.3539
32681SOL     OW 9766   6.720   8.139   9.408  0.8422  0.0974 -0.7938
32681SOL    HW1 9767   6.659   8.130   9.335 -0.7201 -0.6976  0.5407
32681SOL    HW2 9768   6.669   8.181   9.477  2.0846  0.2327  0.0844
32682SOL     OW 9769   4.741   1.025  10.103 -0.7316  0.3698  0.0604
32682SOL    HW1 9770   4.683   0.955  10.133  0.2128 -0.7894 -0.7059
32682SOL    HW2 9771   4.790   1.050  10.182  0.1965 -1.1266  0.0070
32683SOL     OW 9772   3.843   6.856   7.708  0.0422 -0.3490  0.1997
32683SOL    HW1 9773   3.935   6.860   7.734 -0.3647  0.1561  1.7326
32683SOL    HW2 9774   3.831   6.767   7.675  0.6515 -1.0888  1.8441
32684SOL     OW 9775   2.301  11.125   6.330  0.1430  0.0277  0.5689
32684SOL    HW1 9776   2.391  11.147   6.309  1.1852 -1.1692  3.3240
32684SOL    HW2 9777   2.261  11.207   6.358  0.0528  0.7264 -1.4442
32685SOL     OW 9778   2.285   4.232   8.458 -0.0965 -0.1970 -0.2017
32685SOL    HW1 9779   2.276   4.170   8.385 -0.6480 -1.0235  0.5508
32685SOL    HW2 9780   2.316   4.313   8.417  0.0414 -0.7848 -1.2874
32686SOL     OW 9781   9.858   0.389  11.650 -0.7381 -0.0195 -0.1986
32686SOL    HW1 9782   9.891   0.324  11.587  0.7329  0.6484 -0.1435
32686SOL    HW2 9783   9.794   0.340  11.703 -0.0420 -1.2913 -0.4889
32687SOL     OW 9784   9.814   7.161   6.587 -0.0947  0.1198 -0.0766
32687SOL    HW1 9785   9.778   7.137   6.502 -1.7065  2.0293  0.0082
32687SOL    HW2 9786   9.781   7.094   6.647 -0.6733 -0.0728 -0.6031
32688SOL     OW 9787   9.012   8.313   8.403 -0.4467 -0.8096  0.0127
32688SOL    HW1 9788   8.947   8.295   8.471  1.5202 -0.6223  2.0653
32688SOL    HW2 9789   9.019   8.230   8.354 -0.2674 -1.7188  1.5154
32689SOL     OW 9790   2.725   7.424  11.209 -0.1748  0.3855  0.1399
32689SOL    HW1 9791   2.722   7.426  11.305 -0.7607 -1.8729  0.2116
32689SOL    HW2 9792   2.806   7.471  11.187  0.3183  0.3626  1.7682
32690SOL     OW 9793   7.254  11.517  10.243 -0.3905 -0.2165 -0.2010
32690SOL    HW1 9794   7.286  11.513  10.333  0.5430  0.7887 -0.4668
32690SOL    HW2 9795   7.166  11.479  10.247  0.5661 -2.4986  0.6633
32691SOL     OW 9796   2.189   6.049   3.160 -0.0893  0.4763 -0.4154
32691SOL    HW1 9797   2.250   6.115   3.192  0.8636 -0.7487  0.3783
32691SOL    HW2 9798   2.226   5.966   3.189 -0.8990 -0.4731 -1.9437
32692SOL     OW 9799   6.171   7.783   8.895  0.2873  0.0160 -0.4674
32692SOL    HW1 9800   6.076   7.777   8.901  0.2136 -0.2124 -1.5413
32692SOL    HW2 9801   6.200   7.805   8.983 -0.7759  0.3219 -0.1813
32693SOL     OW 9802   7.962   7.396  10.724  0.3869  0.6084  0.6088
32693SOL    HW1 9803   8.000   7.463  10.780 -1.0951  0.2713  2.0861
32693SOL    HW2 9804   7.875   7.429  10.702  1.1534  1.0734 -2.1876
32694SOL     OW 9805   1.670   4.758   4.091 -0.4925  0.3140 -0.3937
32694SOL    HW1 9806   1.650   4.741   4.183  0.5970  0.6592 -0.0775
32694SOL    HW2 9807   1.721   4.839   4.092  1.0555 -0.5891 -1.1093
32695SOL     OW 9808   0.225   1.585  10.404 -0.0957  0.4544  0.1200
32695SOL    HW1 9809   0.179   1.601  10.487  0.7489 -0.3490  0.7616
32695SOL    HW2 9810   0.306   1.635  10.412  0.2504 -0.0925  0.0203
32696SOL     OW 9811   3.219   3.055  10.844 -0.3363  0.4681  0.2094
32696SOL    HW1 9812   3.207   3.129  10.785  0.3552 -0.3572 -1.0113
32696SOL    HW2 9813   3.134   3.011  10.846 -0.6179  1.0206  0.5724
32697SOL     OW 9814   1.664   6.063   0.028 -0.0825  0.1244  0.6084
32697SOL    HW1 9815   1.655   6.054   0.123 -0.1411 -1.7938  0.4700
32697SOL    HW2 9816   1.756   6.041   0.011 -0.4782 -1.2217  0.0893
32698SOL     OW 9817  10.530   5.357   1.918 -0.5595 -0.2175  0.1609
32698SOL    HW1 9818  10.485   5.362   2.003 -0.2742 -0.0217  0.3051
32698SOL    HW2 9819  10.623   5.356   1.941 -0.4578  0.6266 -0.1805
32699SOL     OW 9820   8.803   3.871   8.682  0.3887 -0.2346  0.0563
32699SOL    HW1 9821   8.869   3.925   8.638  0.7649 -0.4913  0.2913
32699SOL    HW2 9822   8.830   3.870   8.774  0.7813 -1.3529 -0.0515
32700SOL     OW 9823   2.007   0.386   8.469 -0.1492  0.1383  0.5574
32700SOL    HW1 9824   2.079   0.375   8.408  0.2643 -0.0807  1.0691
32700SOL    HW2 9825   2.046   0.370   8.555 -0.8652 -0.2850  0.8202
32701SOL     OW 9826   0.673   6.605   4.408 -0.4369  0.5780  0.3726
32701SOL    HW1 9827   0.724   6.686   4.406  0.6029 -0.0389  1.0768
32701SOL    HW2 9828   0.712   6.550   4.340 -0.9023  0.5215  0.1467
32702SOL     OW 9829   5.879   9.483   5.623  0.5209 -0.7622 -0.2456
32702SOL    HW1 9830   5.889   9.512   5.532  4.0290 -0.8599 -0.0309
32702SOL    HW2 9831   5.796   9.435   5.624 -0.3473  0.4698 -3.0022
32703SOL     OW 9832   0.140   0.472   9.631  0.5790  0.1552  0.1736
32703SOL    HW1 9833   0.166   0.382   9.653  1.2347  0.3599  0.2620
32703SOL    HW2 9834   0.222   0.516   9.610  0.5084  1.2120  1.8775
32704SOL     OW 9835   1.124   2.172   8.066 -0.8961  0.1258  0.1743
32704SOL    HW1 9836   1.143   2.228   7.990 -0.5096 -0.1846  0.0370
32704SOL    HW2 9837   1.147   2.225   8.142 -0.4485  0.1274  0.0407
32705SOL     OW 9838   7.485   8.163   2.834 -0.1777 -0.0083 -0.5075
32705SOL    HW1 9839   7.444   8.166   2.748  0.9681 -0.3154 -1.0783
32705SOL    HW2 9840   7.485   8.254   2.864  1.2219  0.4259 -1.7273
32706SOL     OW 9841   1.570   2.601   8.618  0.3654  0.3772 -0.8270
32706SOL    HW1 9842   1.507   2.638   8.680  1.8043  1.0060  0.3214
32706SOL    HW2 9843   1.555   2.507   8.622  1.7808  0.1651  2.1242
32707SOL     OW 9844  11.151   0.147   7.417 -0.7208  0.9359 -0.0143
32707SOL    HW1 9845  11.191   0.130   7.502 -0.1287 -0.7186 -0.5855
32707SOL    HW2 9846  11.177   0.237   7.396  0.7482  0.7057  0.6936
32708SOL     OW 9847   3.421   1.313   0.956  0.0130  0.1552 -0.5415
32708SOL    HW1 9848   3.425   1.403   0.924 -1.7245  0.8107  0.9629
32708SOL    HW2 9849   3.496   1.270   0.915  0.7750  2.2271 -1.4382
32709SOL     OW 9850   6.621   8.358   8.242 -0.4934  0.1494 -0.2536
32709SOL    HW1 9851   6.583   8.434   8.198  1.6769  1.0370 -0.7201
32709SOL    HW2 9852   6.670   8.312   8.174  1.3583  0.4860  0.7863
32710SOL     OW 9853  10.251   3.227   3.440 -0.1879  0.0406 -0.1019
32710SOL    HW1 9854  10.203   3.193   3.365  0.4091 -0.0660 -0.4378
32710SOL    HW2 9855  10.309   3.294   3.403 -1.3394  1.4597  0.5336
32711SOL     OW 9856   6.873   9.855   2.739 -0.4361 -0.8411 -0.2475
32711SOL    HW1 9857   6.896   9.767   2.710 -0.2335 -0.2592 -1.9576
32711SOL    HW2 9858   6.820   9.891   2.668 -0.7507  0.3343  0.5377
32712SOL     OW 9859   3.059   7.672  10.835  0.7776  0.2519  0.2952
32712SOL    HW1 9860   3.138   7.620  10.846 -1.0319 -2.5809  1.2980
32712SOL    HW2 9861   2.998   7.613  10.790 -1.4128  1.5586  1.3754
32713SOL     OW 9862   1.672   8.548  11.689 -0.0700  0.0398 -0.1612
32713SOL    HW1 9863   1.722   8.515  11.764  0.8234  0.4382 -0.5702
32713SOL    HW2 9864   1.618   8.618  11.726  0.9612  0.7872 -0.0109
32714SOL     OW 9865   5.629   6.675  11.179  0.2661 -0.5277  0.0880
32714SOL    HW1 9866   5.681   6.594  11.181  1.5240  0.2306 -0.3812
32714SOL    HW2 9867   5.545   6.651  11.218  1.6954 -1.3222  2.9842
32715SOL     OW 9868   8.540   7.671  11.924 -0.0616  0.0487 -0.1517
32715SOL    HW1 9869   8.459   7.628  11.953  0.2170  0.0347  0.6368
32715SOL    HW2 9870   8.520   7.764  11.926 -1.1329 -0.0105 -3.2523
32716SOL     OW 9871   4.538   6.291   9.881 -0.5670  0.9096  0.2525
32716SOL    HW1 9872   4.610   6.280   9.819 -0.6402  2.4925 -0.1499
32716SOL    HW2 9873   4.579   6.329   9.959 -1.0868  3.0794 -0.4477
32717SOL     OW 9874   8.451   8.188   7.295  0.0910 -0.4837  0.1880
32717SOL    HW1 9875   8.470   8.282   7.290  0.2551 -0.4734  0.8632
32717SOL    HW2 9876   8.523   8.146   7.248  0.1430 -0.2824  0.0893
32718SOL     OW 9877   8.760   1.563   1.993 -0.7696  0.7184 -0.2027
32718SOL    HW1 9878   8.794   1.544   2.080 -2.8053  2.1481  0.9982
32718SOL    HW2 9879   8.810   1.640   1.965 -0.5538  0.6530 -0.0049
32719SOL     OW 9880   1.437   5.079   1.597  0.3377  0.2608  0.2780
32719SOL    HW1 9881   1.446   5.098   1.690 -0.7569  0.6087  0.3327
32719SOL    HW2 9882   1.409   4.987   1.593 -0.1075  0.3909  0.3275
32720SOL     OW 9883   7.559   5.357   5.786 -0.2927  0.1695  0.2214
32720SOL    HW1 9884   7.540   5.446   5.757 -0.0978  0.5904  1.3299
32720SOL    HW2 9885   7.615   5.368   5.863 -0.5913 -0.8990  0.6112
32721SOL     OW 9886   3.252   3.367   3.662  0.3535  0.5414 -0.4926
32721SOL    HW1 9887   3.274   3.457   3.687 -0.6926  0.8187 -0.5359
32721SOL    HW2 9888   3.202   3.375   3.581 -1.4533  0.0915  0.5270
32722SOL     OW 9889   4.833   5.130  11.803 -0.3122  0.2271 -0.1815
32722SOL    HW1 9890   4.927   5.113  11.805 -0.4478 -0.5759  1.3289
32722SOL    HW2 9891   4.804   5.113  11.893 -2.0254 -0.3597 -0.7962
32723SOL     OW 9892   3.836  10.630   6.601 -0.3331  0.7892 -0.1289
32723SOL    HW1 9893   3.911  10.597   6.650 -0.8696  0.5182  0.5263
32723SOL    HW2 9894   3.844  10.590   6.515  0.2891  0.7925 -0.0788
32724SOL     OW 9895  10.467   7.655   7.400  0.0777 -0.0576  0.2413
32724SOL    HW1 9896  10.371   7.661   7.396  0.0602 -0.6619 -0.5241
32724SOL    HW2 9897  10.484   7.565   7.425  0.4449  0.3816  1.6317
32725SOL     OW 9898   1.374   9.624   3.578  0.1437  0.2847 -0.8466
32725SOL    HW1 9899   1.345   9.707   3.614 -0.8799 -0.2413 -0.4065
32725SOL    HW2 9900   1.396   9.571   3.654 -2.5594 -1.0250 -0.8511
32726SOL     OW 9901  11.601   0.877   0.367  0.2811  0.4985  0.0165
32726SOL    HW1 9902  11.688   0.898   0.334 -0.5222  1.9576 -1.3446
32726SOL    HW2 9903  11.543   0.941   0.324 -1.4887 -0.5793  0.6723
32727SOL     OW 9904   6.077   4.942  10.302  0.4202  0.2530 -0.6054
32727SOL    HW1 9905   6.142   5.009  10.283  1.4739 -0.2851  0.9299
32727SOL    HW2 9906   6.054   4.956  10.394 -0.3535 -0.6422 -0.6509
32728SOL     OW 9907   3.217   1.797   1.091 -0.1448  0.2621 -0.4094
32728SOL    HW1 9908   3.190   1.720   1.041  0.0886  0.6298 -1.1109
32728SOL    HW2 9909   3.246   1.860   1.025  2.0184  0.0513  0.2721
32729SOL     OW 9910   6.113   0.400   7.421  0.0916 -0.6238 -0.6219
32729SOL    HW1 9911   6.196   0.443   7.444 -0.0723  0.3767 -1.8037
32729SOL    HW2 9912   6.073   0.457   7.356 -1.8827 -0.7118  0.4155
32730SOL     OW 9913   1.592   9.495   7.537 -0.2391 -0.0533  0.5333
32730SOL    HW1 9914   1.612   9.457   7.622  0.4956  1.0456  0.8637
32730SOL    HW2 9915   1.665   9.554   7.519 -0.8395  0.4139 -0.4441
32731SOL     OW 9916   9.515   0.266   1.800 -0.3112  0.0489 -0.4231
32731SOL    HW1 9917   9.447   0.207   1.768  0.6120  0.0464 -2.5454
32731SOL    HW2 9918   9.523   0.334   1.733  1.5933  0.1746 -0.1524
32732SOL     OW 9919   1.081   0.950   8.623 -0.4552 -0.3868  0.5383
32732SOL    HW1 9920   1.117   0.904   8.698 -0.3012  1.5321  1.7131
32732SOL    HW2 9921   1.113   1.040   8.632 -0.7621 -0.0001 -1.6216
32733SOL     OW 9922   0.776   9.694  10.012 -0.1850 -0.1326 -0.0986
32733SOL    HW1 9923   0.764   9.785   9.986  1.3876  0.2547  0.4605
32733SOL    HW2 9924   0.844   9.660   9.953  1.9383  0.1689  2.0371
32734SOL     OW 9925   5.730  10.239   9.632 -0.5358 -0.3776  0.5069
32734SOL    HW1 9926   5.772  10.237   9.718 -0.5338 -1.2567  0.4938
32734SOL    HW2 9927   5.638  10.259   9.652 -0.0460  2.1977  0.4858
32735SOL     OW 9928   7.657   4.959   3.386  0.2028  0.5073 -0.1855
32735SOL    HW1 9929   7.672   4.967   3.480  0.4755 -0.5652 -0.1228
32735SOL    HW2 9930   7.567   4.930   3.379  0.8841 -1.8292 -0.0993
32736SOL     OW 9931   5.009   3.888   9.275 -0.0420  0.2036  0.1951
32736SOL    HW1 9932   4.924   3.847   9.259 -0.5245  1.2594 -0.0271
32736SOL    HW2 9933   5.069   3.815   9.288 -1.0156 -0.5554  0.5078
32737SOL     OW 9934  11.040   3.779   6.675 -0.9409 -0.1639  0.0893
32737SOL    HW1 9935  11.095   3.839   6.623 -0.4767  0.2604  1.0421
32737SOL    HW2 9936  10.967   3.834   6.704 -0.5905 -0.0801  0.8410
32738SOL     OW 9937   0.429   8.899   7.182  0.0260 -0.4778  0.2648
32738SOL    HW1 9938   0.513   8.903   7.227 -0.2904  1.9450  0.8130
32738SOL    HW2 9939   0.400   8.990   7.178 -1.9626 -1.0985 -1.0894
32739SOL     OW 9940   9.746   6.424   7.879 -0.3475  0.0036  0.5151
32739SOL    HW1 9941   9.750   6.335   7.912 -0.5372 -0.2293 -0.0880
32739SOL    HW2 9942   9.784   6.420   7.791  1.9204  0.9522  1.3522
32740SOL     OW 9943   7.641   9.207   8.060  0.2374  0.2326  0.4356
32740SOL    HW1 9944   7.675   9.144   8.122 -0.3068  0.0654  0.5693
32740SOL    HW2 9945   7.546   9.194   8.062  0.1379  0.9048  0.3064
32741SOL     OW 9946   8.047   6.631   9.088  0.7795  0.0695 -0.2483
32741SOL    HW1 9947   8.059   6.557   9.146  0.4937 -0.1623 -0.4830
32741SOL    HW2 9948   8.113   6.695   9.116  0.0604  0.3307  0.9213
32742SOL     OW 9949   3.768   5.592  10.826  0.4395 -0.0855 -0.5702
32742SOL    HW1 9950   3.778   5.685  10.845  0.2761 -0.0923 -0.4512
32742SOL    HW2 9951   3.819   5.578  10.747  0.4052  0.1214 -0.6293
32743SOL     OW 9952   6.735   1.816   0.265  0.0910  0.1892  0.4082
32743SOL    HW1 9953   6.667   1.878   0.291 -0.7745 -0.3383 -0.5516
32743SOL    HW2 9954   6.690   1.750   0.212  1.7041  1.2870 -2.5985
32744SOL     OW 9955   3.687   9.555   5.070 -0.0584  0.1144  0.6057
32744SOL    HW1 9956   3.759   9.508   5.113 -0.6924 -0.2154  1.3446
32744SOL    HW2 9957   3.730   9.616   5.011  0.8314 -0.0343  1.0750
32745SOL     OW 9958   7.810   8.081   5.636 -0.6217 -0.4613 -0.2137
32745SOL    HW1 9959   7.856   8.146   5.582 -1.6251  0.7111  0.3086
32745SOL    HW2 9960   7.843   8.096   5.724 -3.7880  2.2348  0.7017
32746SOL     OW 9961  11.118   1.191   2.114 -0.5533 -0.0143  0.1594
32746SOL    HW1 9962  11.169   1.263   2.076 -0.8527 -0.6775 -1.6180
32746SOL    HW2 9963  11.156   1.176   2.200  2.0268 -0.2583 -0.9514
32747SOL     OW 9964   4.585   2.652   9.084  0.0507  0.0911 -0.6649
32747SOL    HW1 9965   4.563   2.677   9.174 -0.0178  0.2340 -0.7220
32747SOL    HW2 9966   4.673   2.687   9.070  1.1472 -2.1114  0.2228
32748SOL     OW 9967   5.268   6.887  10.644  0.1899  1.1951 -0.1027
32748SOL    HW1 9968   5.196   6.938  10.681 -2.6351 -0.5082 -2.7455
32748SOL    HW2 9969   5.225   6.822  10.589  3.7870  1.5764 -3.8830
32749SOL     OW 9970   5.892  11.647  11.560  0.3419 -0.5132 -0.3733
32749SOL    HW1 9971   5.908  11.589  11.485  0.2492 -0.1749 -0.6543
32749SOL    HW2 9972   5.977  11.688  11.576  0.7391 -1.6699  0.6319
32750SOL     OW 9973   7.279   1.609  10.813  0.3018 -0.7045 -0.2423
32750SOL    HW1 9974   7.233   1.544  10.866 -0.7886  0.4414  0.2771
32750SOL    HW2 9975   7.232   1.610  10.729  0.3584 -0.6327 -0.2735
32751SOL     OW 9976   9.706   1.526  11.781  0.3810 -0.3591 -0.4305
32751SOL    HW1 9977   9.699   1.474  11.700 -1.2961  0.5839 -0.9441
32751SOL    HW2 9978   9.706   1.617  11.751  2.5610  0.0110  0.5049
32752SOL     OW 9979  11.943  11.530   5.998  0.3035 -0.5238  0.5151
32752SOL    HW1 9980  12.019  11.537   6.056 -0.6251  0.4711  1.6880
32752SOL    HW2 9981  11.915  11.439   6.007  0.6536 -0.5875  1.0262
32753SOL     OW 9982   9.906   1.474   7.471  0.3663 -0.2285  0.4441
32753SOL    HW1 9983   9.946   1.392   7.442 -1.4886 -0.8112 -0.6894
32753SOL    HW2 9984   9.824   1.479   7.422  0.5531  2.4841  0.2649
32754SOL     OW 9985   3.368   6.835   8.471  0.3408  0.3179  0.0641
32754SOL    HW1 9986   3.338   6.839   8.380 -0.7648  0.4776  0.4207
32754SOL    HW2 9987   3.288   6.822   8.522  0.7567  1.6592  1.1318
32755SOL     OW 9988   4.381   1.483   1.435  0.4139  0.3138  0.9861
32755SOL    HW1 9989   4.369   1.522   1.349 -0.6845 -1.4658  0.2798
32755SOL    HW2 9990   4.424   1.399   1.418 -0.8424 -0.5895  2.0106
32756SOL     OW 9991  11.800   7.116  10.985  0.2850 -0.5186 -0.2973
32756SOL    HW1 9992  11.747   7.065  11.046 -1.5167 -0.4968 -1.7657
32756SOL    HW2 9993  11.740   7.140  10.915  1.6938  1.4856 -0.9164
32757SOL     OW 9994  11.758   5.535  10.245  0.7824  0.0641 -0.1261
32757SOL    HW1 9995  11.683   5.475  10.245  0.2104  0.7357 -1.1257
32757SOL    HW2 9996  11.817   5.500  10.312 -0.7838 -0.0297  1.2828
32758SOL     OW 9997   7.492   2.322   3.271  0.2727  0.0685 -0.1793
32758SOL    HW1 9998   7.523   2.408   3.301 -0.0439  0.1388 -0.0483
32758SOL    HW2 9999   7.470   2.336   3.179 -1.2197  0.5304  0.2178
32759SOL     OW10000  10.977   0.203  10.400 -0.1514  0.2301 -0.3049
32759SOL    HW110001  10.945   0.275  10.455 -0.5335 -0.4647  0.3925
32759SOL    HW210002  11.033   0.152  10.458 -1.3679 -1.0905 -0.2404
32760SOL     OW10003   7.814   4.737   1.087 -0.0919  0.4202  0.7526
32760SOL    HW110004   7.759   4.664   1.116  2.2471 -0.9817  1.8644
32760SOL    HW210005   7.793   4.808   1.147 -0.3571 -0.2537  1.4781
32761SOL     OW10006   8.304   7.588   5.048  0.0083  0.3920  0.2341
32761SOL    HW110007   8.332   7.644   5.120  2.2537  0.1592 -0.3994
32761SOL    HW210008   8.300   7.647   4.972 -0.0812  0.1746  0.0695
32762SOL     OW10009   7.252   4.268   8.673 -0.0781  0.6797 -0.0792
32762SOL    HW110010   7.306   4.302   8.601  1.0281 -0.0585  0.3783
32762SOL    HW210011   7.193   4.340   8.694  0.2224  1.2497 -1.0894
32763SOL     OW10012   6.433  10.262   8.279 -0.0190 -0.0069 -0.0187
32763SOL    HW110013   6.518  10.276   8.321 -0.6960 -1.6988  2.1144
32763SOL    HW210014   6.433  10.169   8.257 -1.0701  0.1181 -0.5729
32764SOL     OW10015   7.915   1.258   2.506 -0.6909  0.2400  0.0396
32764SOL    HW110016   7.939   1.245   2.414 -0.6194 -0.5641  0.1652
32764SOL    HW210017   7.949   1.181   2.551  1.3504  1.6747  1.1398
32765SOL     OW10018   0.631   6.017   5.950  0.2366 -0.4596  0.1876
32765SOL    HW110019   0.616   6.110   5.965  1.9007 -0.2552  0.8358
32765SOL    HW210020   0.697   5.993   6.015  0.6195 -1.8416 -0.6736
32766SOL     OW10021   3.179   6.817   1.079 -0.1379  0.1085 -0.3620
32766SOL    HW110022   3.261   6.851   1.044 -0.2267 -1.1912 -1.9294
32766SOL    HW210023   3.179   6.845   1.171  2.5537 -0.7061 -0.0089
32767SOL     OW10024   9.663   6.317   0.823  0.3536  0.4079  0.6165
32767SOL    HW110025   9.685   6.281   0.909 -1.6167 -0.6314  0.7564
32767SOL    HW210026   9.631   6.405   0.842  1.2275  0.6926  0.7793
32768SOL     OW10027   6.049   3.157   1.174  0.1956 -1.0759 -0.2615
32768SOL    HW110028   5.967   3.165   1.126  1.8279  1.2054 -2.9564
32768SOL    HW210029   6.091   3.079   1.137  1.3044  0.4924 -2.5207
32769SOL     OW10030   5.383   0.823   2.080  0.2481 -0.1290 -0.1608
32769SOL    HW110031   5.422   0.769   2.011 -0.2410  0.9555 -1.3102
32769SOL    HW210032   5.458   0.855   2.130  0.6069 -0.9498 -0.1615
32770SOL     OW10033   3.406   4.588   6.096  0.1620 -0.1874 -0.4484
32770SOL    HW110034   3.317   4.621   6.104 -0.2763 -1.7951  2.7000
32770SOL    HW210035   3.395   4.495   6.074  0.9465 -0.6761  1.0595
32771SOL     OW10036   6.796   1.830   9.105 -0.0900 -0.6024  0.0508
32771SOL    HW110037   6.796   1.736   9.125  1.5164 -0.3283  1.4755
32771SOL    HW210038   6.857   1.838   9.031  0.4754 -0.5728  0.5181
32772SOL     OW10039   2.818   6.462   8.946 -0.1617 -0.5628 -0.1829
32772SOL    HW110040   2.726   6.466   8.922 -0.4445  0.1453  0.9529
32772SOL    HW210041   2.818   6.430   9.036  0.6870 -0.3517 -0.0998
32773SOL     OW10042   5.004   4.259   5.518  0.4150  0.0388  0.9137
32773SOL    HW110043   4.987   4.291   5.429  1.6980  0.3626  0.7711
32773SOL    HW210044   5.070   4.190   5.506 -0.3764 -0.8455  1.4887
32774SOL     OW10045   9.462  10.389  11.185 -0.0130  0.8977  0.5273
32774SOL    HW110046   9.459  10.447  11.261  0.2299  0.0234  1.2223
32774SOL    HW210047   9.550  10.400  11.149  0.5383 -0.1007  1.5238
32775SOL     OW10048   9.858   0.278   0.668  0.1114 -0.4339 -0.4733
32775SOL    HW110049   9.892   0.200   0.713 -0.2421 -0.1523  0.2986
32775SOL    HW210050   9.882   0.351   0.725 -1.7340 -0.2186  0.0791
32776SOL     OW10051   4.546   8.476   7.586  0.4277 -0.0523  0.0082
32776SOL    HW110052   4.570   8.498   7.496  0.2371 -1.2821 -0.3636
32776SOL    HW210053   4.569   8.554   7.637  0.4385  0.7010 -1.1155
32777SOL     OW10054   9.760   7.802   5.108  0.1530  0.4552 -0.2328
32777SOL    HW110055   9.836   7.802   5.166 -0.3628 -1.5354  0.5070
32777SOL    HW210056   9.685   7.820   5.165 -0.5690 -3.1472  0.1657
32778SOL     OW10057   7.914   8.895   6.402  0.8757 -0.5327  0.0885
32778SOL    HW110058   7.944   8.805   6.414  0.5129 -0.4462  1.9320
32778SOL    HW210059   7.821   8.886   6.381  0.6947 -0.5939  0.8676
32779SOL     OW10060  11.216   4.445   7.316  0.4008 -0.2461  0.1569
32779SOL    HW110061  11.135   4.426   7.270  1.0315 -2.6333 -0.1512
32779SOL    HW210062  11.196   4.428   7.408 -0.3382  2.6421  0.6096
32780SOL     OW10063   9.532  11.680  10.727  0.0672  0.5612  0.4504
32780SOL    HW110064   9.519  11.772  10.706  1.2230  1.4105  3.0472
32780SOL    HW210065   9.446  11.640  10.718 -1.0317  2.4983  1.7837
32781SOL     OW10066   5.702   4.616   3.093 -0.5556 -0.2399 -0.0831
32781SOL    HW110067   5.670   4.571   3.015 -1.5422  1.6640 -0.8702
32781SOL    HW210068   5.628   4.670   3.120  1.0632  2.3006 -0.3481
32782SOL     OW10069   0.869   1.448  11.307  0.0831  0.0054  0.2140
32782SOL    HW110070   0.862   1.519  11.371 -0.2824 -0.4414  0.6731
32782SOL    HW210071   0.937   1.391  11.342 -0.8683 -0.8121  0.7708
32783SOL     OW10072   3.747   9.608  10.833 -0.5684 -0.0421 -0.3317
32783SOL    HW110073   3.836   9.624  10.865 -0.8281  0.2588  0.2524
32783SOL    HW210074   3.743   9.513  10.820 -0.9448 -0.4236  2.0924
32784SOL     OW10075  11.794   1.566   0.647  0.6860  0.7889 -0.1660
32784SOL    HW110076  11.880   1.573   0.605  1.6201 -0.2747  1.4867
32784SOL    HW210077  11.733   1.556   0.574  2.0057  1.0458 -1.3516
32785SOL     OW10078   8.351   8.054   2.395  0.1077  0.2636 -0.0107
32785SOL    HW110079   8.330   8.037   2.487 -0.5500 -0.0432 -0.2135
32785SOL    HW210080   8.428   7.999   2.379  1.1825  1.4742  0.7594
32786SOL     OW10081  10.725   5.209   2.227 -0.5839 -0.4440  0.1579
32786SOL    HW110082  10.715   5.128   2.176 -1.1881  0.6646 -1.5698
32786SOL    HW210083  10.800   5.253   2.187 -0.8052  0.2477  0.5074
32787SOL     OW10084   4.724   5.329   0.473  0.4083 -0.2238  0.0430
32787SOL    HW110085   4.789   5.258   0.477  0.0786 -0.7208 -2.1802
32787SOL    HW210086   4.647   5.288   0.435 -0.8274  0.6640  1.4984
32788SOL     OW10087   7.990   8.787   4.215 -0.0541  0.4192  0.2259
32788SOL    HW110088   7.918   8.753   4.163 -0.7055  0.8659  0.8113
32788SOL    HW210089   8.049   8.826   4.151 -0.3607  0.1068 -0.2562
32789SOL     OW10090  11.297   6.438   5.795 -0.4053  0.1025 -0.7363
32789SOL    HW110091  11.266   6.529   5.790 -0.6604  0.2228  1.6786
32789SOL    HW210092  11.217   6.386   5.795 -0.4535  0.1170  0.8060
32790SOL     OW10093   7.674   4.417   0.269  0.3565 -0.3757 -0.0044
32790SOL    HW110094   7.648   4.393   0.180  0.4566  0.5738 -0.3015
32790SOL    HW210095   7.752   4.472   0.257  0.5696 -0.5221  0.6855
32791SOL     OW10096   3.298   8.699   8.083 -0.3545  0.0442 -0.8092
32791SOL    HW110097   3.284   8.675   7.992  0.4291 -0.0185 -0.9202
32791SOL    HW210098   3.366   8.766   8.081 -1.2038  0.9448 -0.3520
32792SOL     OW10099  10.927   5.569   6.471  0.0700 -0.6433  0.0346
32792SOL    HW110100  10.949   5.506   6.540  2.2196  0.0370  0.0290
32792SOL    HW210101  10.915   5.652   6.518  0.9958 -0.2923 -0.3358
32793SOL     OW10102   2.495  11.815   7.277 -0.2900  0.5243  0.0288
32793SOL    HW110103   2.504  11.761   7.199 -2.3943 -0.0210  0.1133
32793SOL    HW210104   2.544  11.895   7.256  1.0613 -0.5125 -0.9299
32794SOL     OW10105   0.121   8.760   3.560  0.1433 -0.0598 -0.5351
32794SOL    HW110106   0.083   8.708   3.630 -0.9769 -0.4551 -1.4077
32794SOL    HW210107   0.181   8.700   3.515  3.4111  1.0457  1.9469
32795SOL     OW10108   6.671   5.888  10.607  0.5086 -0.4242  0.4603
32795SOL    HW110109   6.694   5.804  10.647 -0.0288 -0.3798  0.8670
32795SOL    HW210110   6.756   5.929  10.588  0.7964 -0.0697  2.3351
32796SOL     OW10111   2.998   8.073   2.977  0.3561  0.3947  0.0627
32796SOL    HW110112   3.089   8.090   3.001  0.8830  0.4687 -1.8079
32796SOL    HW210113   2.947   8.116   3.045  1.7068  0.4082  1.1189
32797SOL     OW10114   0.500   2.715  11.552  0.3133  0.2748  0.0039
32797SOL    HW110115   0.421   2.661  11.558  0.6315 -0.2470 -0.4196
32797SOL    HW210116   0.572   2.652  11.559  0.7179  0.8979  1.8726
32798SOL     OW10117   8.869   4.548   3.991  0.0155 -0.2384  0.5499
32798SOL    HW110118   8.928   4.612   4.029 -0.3734 -0.6881  1.9565
32798SOL    HW210119   8.825   4.595   3.920 -0.0628  0.9648  1.3793
32799SOL     OW10120  10.782   7.813  10.121  0.6130 -0.1722  0.2325
32799SOL    HW110121  10.868   7.851  10.141  0.4220  0.0960  0.5435
32799SOL    HW210122  10.802   7.736  10.067  0.9786  0.6038 -0.7754
32800SOL     OW10123  11.455   7.439  11.523  0.4738  0.1247 -0.9220
32800SOL    HW110124  11.530   7.491  11.550  1.5222 -2.0238  0.4974
32800SOL    HW210125  11.428   7.479  11.440  2.1228  1.9650 -0.6548
32801SOL     OW10126   5.349   4.372   5.972  0.6571  0.3257  0.0212
32801SOL    HW110127   5.335   4.398   6.063 -0.0210 -0.3277  0.1128
32801SOL    HW210128   5.312   4.443   5.921 -2.3465 -0.9075  0.2629
32802SOL     OW10129   3.207   4.264   0.364  0.1172  0.2710 -0.9157
32802SOL    HW110130   3.279   4.206   0.339  0.0576 -1.0011  1.5575
32802SOL    HW210131   3.128   4.211   0.355 -0.3768  1.1449 -2.0361
32803SOL     OW10132   9.998  10.421  10.528  0.1622  0.4862  0.1673
32803SOL    HW110133   9.911  10.389  10.503 -0.0211 -0.2488  1.6546
32803SOL    HW210134  10.059  10.365  10.480 -0.1450  1.3030 -1.2516
32804SOL     OW10135  10.872   9.378   8.809 -0.1739  0.3610 -0.1060
32804SOL    HW110136  10.880   9.358   8.902  2.2708  0.3667 -0.2480
32804SOL    HW210137  10.796   9.435   8.803 -0.3941  0.3266  1.8878
32805SOL     OW10138   0.704   2.551  11.547 -0.2009 -0.4945  0.4103
32805SOL    HW110139   0.705   2.456  11.532 -0.1125 -0.5419  0.7087
32805SOL    HW210140   0.789   2.581  11.517  0.6546 -0.8335  2.3393
32806SOL     OW10141   1.956   1.641  11.543 -0.2994 -0.5222 -0.1542
32806SOL    HW110142   1.930   1.701  11.613  1.5656 -0.2403  0.3343
32806SOL    HW210143   1.941   1.691  11.462 -2.1837 -0.7428  0.0194
32807SOL     OW10144   3.428   7.699   4.438  0.3981  0.4455  0.0998
32807SOL    HW110145   3.514   7.733   4.460 -0.2265  0.7213  2.4773
32807SOL    HW210146   3.407   7.737   4.353  2.7297  0.0901 -0.6761
32808SOL     OW10147   2.924   1.576   4.932 -0.0028  0.0361 -0.1424
32808SOL    HW110148   2.945   1.534   5.016  0.7871  0.7519  0.0274
32808SOL    HW210149   2.989   1.645   4.923 -0.6399  0.5417 -0.9316
32809SOL     OW10150   3.105   5.788   1.104  0.2421  0.2865 -0.4381
32809SOL    HW110151   3.097   5.830   1.019 -3.5595 -0.2922 -0.5485
32809SOL    HW210152   3.133   5.699   1.085  0.2487  0.4062 -0.9976
32810SOL     OW10153   3.668   5.825  11.379  0.4307  0.2198  0.3388
32810SOL    HW110154   3.749   5.779  11.401 -0.2663 -0.8789  0.6850
32810SOL    HW210155   3.662   5.819  11.284  0.2142 -0.6438  0.4022
32811SOL     OW10156  10.559  11.372   0.282 -0.3619 -0.8945 -0.5122
32811SOL    HW110157  10.507  11.318   0.223 -0.6146 -1.8373  0.5579
32811SOL    HW210158  10.647  11.369   0.245 -1.1503  1.4817 -2.8804
32812SOL     OW10159   5.648   6.095   4.777  0.5452 -0.2667 -0.0889
32812SOL    HW110160   5.653   6.189   4.796  1.0206 -0.2228 -0.4156
32812SOL    HW210161   5.677   6.088   4.686 -0.9423 -0.5582 -0.5650
32813SOL     OW10162   7.555   5.009   4.058 -0.4761  0.0152  0.4568
32813SOL    HW110163   7.638   4.965   4.075 -1.4809 -2.1816 -0.0197
32813SOL    HW210164   7.490   4.939   4.061 -2.1946  1.5303 -0.1250
32814SOL     OW10165   8.426   9.202   7.509  0.4266  0.2011 -0.4036
32814SOL    HW110166   8.516   9.179   7.532 -0.0704 -0.2100  1.2857
32814SOL    HW210167   8.419   9.295   7.531 -0.1965 -0.3115  1.7743
32815SOL     OW10168  10.310   4.085   6.406  0.1840 -0.0092  0.2700
32815SOL    HW110169  10.369   4.093   6.332  2.4662 -0.8083  1.8896
32815SOL    HW210170  10.253   4.011   6.383  0.2794  0.2981 -1.0137
32816SOL     OW10171  10.485   0.167  10.965 -0.6785  0.7969  0.8608
32816SOL    HW110172  10.488   0.078  11.000  1.8021  1.0885  1.5794
32816SOL    HW210173  10.394   0.193  10.976 -1.4332 -1.5525  0.8440
32817SOL     OW10174   6.488   2.371   9.263 -0.0316 -0.5587 -0.3199
32817SOL    HW110175   6.404   2.342   9.297 -0.4203  1.4493  0.5477
32817SOL    HW210176   6.549   2.361   9.336 -0.0478  0.2136 -0.1895
32818SOL     OW10177   3.358   5.710   8.461 -0.0190  0.4011 -0.8936
32818SOL    HW110178   3.395   5.644   8.403  0.9008  0.0259  0.0824
32818SOL    HW210179   3.336   5.663   8.541  0.4108  1.2128 -0.2742
32819SOL     OW10180   8.059   1.763   2.484 -1.1467  0.2814  0.1729
32819SOL    HW110181   8.019   1.678   2.498 -1.4814 -0.0368 -2.2968
32819SOL    HW210182   8.002   1.807   2.421  1.5175  0.3623 -2.4111
32820SOL     OW10183  11.554   3.695   6.129  0.4188 -0.6041  1.0332
32820SOL    HW110184  11.471   3.650   6.142  0.5545 -0.9368  0.7596
32820SOL    HW210185  11.587   3.713   6.217 -0.5968  0.7547  1.1750
32821SOL     OW10186   8.057   0.094   5.904  0.2972  0.2333  0.0724
32821SOL    HW110187   7.987   0.053   5.955  1.2831  0.4617  1.6782
32821SOL    HW210188   8.055   0.186   5.930 -0.4656  0.8086 -1.8495
32822SOL     OW10189   6.763   4.062   1.344  0.3570 -0.2717 -0.0649
32822SOL    HW110190   6.725   4.149   1.348 -1.5371 -1.0179 -0.7323
32822SOL    HW210191   6.825   4.066   1.272  0.2080  0.4927 -0.1594
32823SOL     OW10192   4.899   8.053   8.416 -0.1044 -0.4140 -0.7892
32823SOL    HW110193   4.853   8.011   8.343 -1.7513 -0.2082  0.0935
32823SOL    HW210194   4.884   7.995   8.491 -0.4487  0.5533 -0.0870
32824SOL     OW10195   7.677   6.466  10.784  0.4311 -0.0899  0.5347
32824SOL    HW110196   7.619   6.530  10.741  0.0978 -1.4746 -1.1568
32824SOL    HW210197   7.713   6.514  10.859 -1.7055  1.3169  0.7585
32825SOL     OW10198   3.199   1.439   0.747  0.7023 -0.0826 -1.0993
32825SOL    HW110199   3.275   1.433   0.805 -0.2051 -2.6867 -0.0183
32825SOL    HW210200   3.207   1.363   0.689 -1.3556 -0.8000 -0.5274
32826SOL     OW10201   7.886   6.110   1.083 -0.0263  0.2295  0.1867
32826SOL    HW110202   7.827   6.101   1.159  0.1727  1.6149  0.5403
32826SOL    HW210203   7.964   6.152   1.119  0.3177  0.3369 -0.6765
32827SOL     OW10204   6.152   8.119   6.839  0.3518  0.2991 -0.5089
32827SOL    HW110205   6.091   8.157   6.901 -0.4810  1.2094 -1.8498
32827SOL    HW210206   6.220   8.185   6.827  1.3472 -0.4884  0.5609
32828SOL     OW10207   3.501   6.156  11.300 -0.0788  0.2951  0.4914
32828SOL    HW110208   3.524   6.140  11.391  0.0106  0.0663  0.4300
32828SOL    HW210209   3.477   6.249  11.297  3.7169  1.4242 -0.0075
32829SOL     OW10210   6.767   5.955   4.322 -0.6727  0.1126  0.0374
32829SOL    HW110211   6.800   5.912   4.243  0.9035 -1.1692  1.3136
32829SOL    HW210212   6.690   6.005   4.292 -0.4512 -0.7443 -2.1712
32830SOL     OW10213   5.745  11.074   6.604 -0.1508 -0.5414  0.0999
32830SOL    HW110214   5.809  11.094   6.673  1.0048 -0.5323 -0.9494
32830SOL    HW210215   5.798  11.046   6.529 -1.3173  0.4019 -1.1232
32831SOL     OW10216   3.611  11.779   3.543  0.3514 -0.0233  0.1917
32831SOL    HW110217   3.535  11.797   3.599  0.4915  0.4008  0.2477
32831SOL    HW210218   3.609  11.684   3.530  0.7469 -0.2298  1.5230
32832SOL     OW10219   2.142   2.375   5.832  0.0697 -0.1467  0.1890
32832SOL    HW110220   2.224   2.326   5.830 -1.2163 -2.4589  0.4166
32832SOL    HW210221   2.119   2.379   5.925 -0.3707 -0.0189  0.0768
32833SOL     OW10222   1.108   2.770   7.119 -0.1099  0.9844  0.2080
32833SOL    HW110223   1.083   2.820   7.041 -0.7534  0.5335  0.1221
32833SOL    HW210224   1.030   2.771   7.174 -0.6979 -1.2926 -0.4972
32834SOL     OW10225  10.457  10.585   7.360 -0.6136 -0.3878 -0.1673
32834SOL    HW110226  10.523  10.516   7.356 -1.1194 -0.8750 -0.3230
32834SOL    HW210227  10.408  10.576   7.278  0.2872  1.1614 -0.9039
32835SOL     OW10228   7.971   8.960   5.059 -0.5066  0.0261 -0.2016
32835SOL    HW110229   7.940   8.959   4.968 -0.2978 -1.9992 -0.2936
32835SOL    HW210230   7.943   8.876   5.095 -0.6304  0.8081  1.6520
32836SOL     OW10231   3.157   6.210  11.516 -0.0652  0.1594 -0.1501
32836SOL    HW110232   3.082   6.167  11.474 -1.2255  1.2627  0.6985
32836SOL    HW210233   3.176   6.284  11.458  1.1005 -0.7143 -0.9302
32837SOL     OW10234   6.418  11.644   6.879  0.6235 -0.3797  0.1203
32837SOL    HW110235   6.435  11.714   6.815  0.6428 -1.1169 -0.7029
32837SOL    HW210236   6.498  11.591   6.878  1.1568  0.3400  1.7523
32838SOL     OW10237   5.164   5.497   2.681  0.2154  0.0721 -0.0669
32838SOL    HW110238   5.166   5.410   2.720  0.1424  0.2096  0.2530
32838SOL    HW210239   5.126   5.484   2.594 -0.4501 -0.1159  0.2466
32839SOL     OW10240   9.690  11.855   4.506 -0.5769  0.0844  0.0641
32839SOL    HW110241   9.683  11.771   4.462 -0.4797 -0.8752  1.7779
32839SOL    HW210242   9.763  11.899   4.462 -0.4194 -0.8624 -0.6547
32840SOL     OW10243   2.759   1.254  10.381 -0.4188  0.0042 -0.0697
32840SOL    HW110244   2.664   1.246  10.376 -0.5748  1.3363  0.3383
32840SOL    HW210245   2.774   1.317  10.451  0.7757 -0.2711 -0.0564
32841SOL     OW10246   6.521   1.482  11.624  0.1131  0.1204 -0.2843
32841SOL    HW110247   6.488   1.418  11.687  1.3646  0.4257  0.7302
32841SOL    HW210248   6.486   1.566  11.655 -1.8837 -0.0545 -1.8569
32842SOL     OW10249   4.387  11.638   7.609  0.1438 -0.0601 -0.1298
32842SOL    HW110250   4.381  11.575   7.537  0.5407  1.2042 -1.3092
32842SOL    HW210251   4.301  11.680   7.611 -0.1348 -0.6362  0.6837
32843SOL     OW10252   0.021   7.146   9.415  0.1065 -0.3988 -0.1161
32843SOL    HW110253  -0.060   7.110   9.380 -0.1996 -0.1152  0.2903
32843SOL    HW210254   0.032   7.100   9.499 -0.3689  0.5577  0.4795
32844SOL     OW10255   6.115   1.444   2.507 -0.0996 -0.1823 -0.2692
32844SOL    HW110256   6.043   1.507   2.505  0.3730  0.3867  0.1861
32844SOL    HW210257   6.083   1.372   2.561 -0.1702  0.2655  0.2858
32845SOL     OW10258   9.432   1.489   3.254  0.4902 -0.1462  0.2889
32845SOL    HW110259   9.397   1.514   3.169 -0.2205 -0.1051  0.5877
32845SOL    HW210260   9.478   1.407   3.238  2.0967  0.8690 -0.5220
32846SOL     OW10261   8.551   9.229  11.010  0.3341  0.8864  0.3190
32846SOL    HW110262   8.574   9.320  11.027  1.2234  0.5956  0.7053
32846SOL    HW210263   8.615   9.177  11.059 -0.3676  0.0490  0.3860
32847SOL     OW10264   6.024   3.092   3.969  0.3071  0.6020  0.1761
32847SOL    HW110265   5.986   3.124   3.887  1.0174 -0.1637 -0.4688
32847SOL    HW210266   5.963   3.026   4.001  0.3178  0.4870 -0.0409
32848SOL     OW10267   3.832   8.159   3.029  0.5437 -0.1318 -0.2088
32848SOL    HW110268   3.821   8.217   3.104 -0.3008 -0.0883 -0.3571
32848SOL    HW210269   3.752   8.105   3.028 -0.0879  0.7583 -1.8312
32849SOL     OW10270   1.740  11.050   7.486 -0.0935  0.5046 -0.2824
32849SOL    HW110271   1.688  11.004   7.551  0.5869  2.0836  1.4589
32849SOL    HW210272   1.818  10.996   7.473 -0.4527 -0.0476 -0.1576
32850SOL     OW10273   9.061  10.444   7.393 -0.2249 -0.5266  0.1338
32850SOL    HW110274   9.042  10.374   7.455  1.8146  0.8942  2.5548
32850SOL    HW210275   9.156  10.456   7.398 -0.1879  0.7715 -2.1174
32851SOL     OW10276   3.853   4.876   2.348 -0.2030 -0.2188 -0.3486
32851SOL    HW110277   3.784   4.932   2.384  0.8013  0.7790  0.0843
32851SOL    HW210278   3.806   4.804   2.308 -1.4450 -0.7840  1.9302
32852SOL     OW10279   6.600   9.203   3.544 -0.0545  0.4096  0.0071
32852SOL    HW110280   6.575   9.219   3.635  1.9451  0.7479  0.5500
32852SOL    HW210281   6.581   9.286   3.500  1.0121  1.0078  0.6297
32853SOL     OW10282   7.899   5.082   2.195  0.3803  0.2928 -0.2575
32853SOL    HW110283   7.817   5.053   2.234 -0.7626  0.2924 -2.5447
32853SOL    HW210284   7.887   5.175   2.179  1.1392  0.4570  0.0781
32854SOL     OW10285  10.962   3.023   9.901 -0.2842 -0.5336  0.2901
32854SOL    HW110286  10.954   2.972   9.981 -1.6150  0.5943  0.9288
32854SOL    HW210287  10.884   3.079   9.900  1.4355  2.0590  0.0783
32855SOL     OW10288   8.207  11.145   1.798 -0.2803  0.0330  0.0886
32855SOL    HW110289   8.184  11.195   1.876  0.2542  0.3461  0.0498
32855SOL    HW210290   8.302  11.135   1.803 -0.3288 -0.5801 -0.1433
32856SOL     OW10291   4.538   8.862   3.204 -0.2293 -0.0148 -0.5620
32856SOL    HW110292   4.587   8.920   3.145  1.8602  0.5229  1.5286
32856SOL    HW210293   4.593   8.784   3.211  0.3086  0.4920  1.6529
32857SOL     OW10294   9.229   9.912  10.191  0.4579 -0.1876  0.0951
32857SOL    HW110295   9.292   9.913  10.118 -1.2938  2.1970 -1.5444
32857SOL    HW210296   9.148   9.879  10.152 -0.1532 -0.2236  1.3529
32858SOL     OW10297   6.995   0.087  11.883 -0.0548 -0.3095 -0.1566
32858SOL    HW110298   7.087   0.087  11.910 -0.4280 -0.7985  1.1442
32858SOL    HW210299   6.993   0.028  11.807  0.6545 -0.5294 -0.0148
32859SOL     OW10300   7.423   2.509   7.031 -0.3205 -0.0432 -0.3714
32859SOL    HW110301   7.352   2.573   7.032 -1.2017 -0.9783 -1.1143
32859SOL    HW210302   7.503   2.562   7.036 -1.0538  1.0507 -0.0020
32860SOL     OW10303  10.849   5.505   7.039  0.1196 -0.4320 -0.0013
32860SOL    HW110304  10.849   5.532   7.131  1.7678 -0.6027  0.0675
32860SOL    HW210305  10.768   5.541   7.004 -1.3749 -1.7239  1.8970
32861SOL     OW10306   7.956   8.280   0.275 -0.0193  0.0326  0.4913
32861SOL    HW110307   8.024   8.260   0.211  0.7530  0.7581  1.0542
32861SOL    HW210308   7.994   8.254   0.359 -0.0976  1.2022  0.9105
32862SOL     OW10309   4.564   8.946   0.134  0.2171  0.1687  0.6238
32862SOL    HW110310   4.528   8.867   0.094  1.0217  0.5022 -0.8738
32862SOL    HW210311   4.520   9.018   0.089  0.4310  0.5710  1.0503
32863SOL     OW10312   3.997  10.484   9.155  0.2890 -0.4823 -0.2052
32863SOL    HW110313   3.988  10.578   9.141 -1.0181 -0.4568  0.5841
32863SOL    HW210314   4.089  10.470   9.175  0.2949  0.7742  0.6911
32864SOL     OW10315  11.205  10.619   2.717  0.3476  0.2633  0.5482
32864SOL    HW110316  11.180  10.546   2.662 -2.3490  0.8884  0.7845
32864SOL    HW210317  11.295  10.601   2.743  1.0134 -1.0508 -2.3674
32865SOL     OW10318  11.922   8.408   4.996  0.5602  0.0316  0.4191
32865SOL    HW110319  11.874   8.380   5.074  0.3880 -0.5818  0.0972
32865SOL    HW210320  11.993   8.345   4.988 -0.6039 -1.1538 -1.0662
32866SOL     OW10321   1.135   8.129   1.472 -0.4738 -0.0212 -0.4730
32866SOL    HW110322   1.174   8.216   1.478 -0.8994  0.0943  1.3778
32866SOL    HW210323   1.041   8.145   1.467 -0.5049 -0.3615 -1.0050
32867SOL     OW10324   3.339  10.611   5.075 -0.4439 -0.4670 -0.1199
32867SOL    HW110325   3.367  10.558   5.150 -0.5735  0.6241  0.7322
32867SOL    HW210326   3.248  10.586   5.060 -0.6891 -0.0707  0.6613
32868SOL     OW10327  11.479   9.855  10.974  0.0059 -0.1079  0.2525
32868SOL    HW110328  11.432   9.798  10.913 -1.2973  0.5486  0.6029
32868SOL    HW210329  11.540   9.904  10.919 -1.5066  0.8478 -0.6505
32869SOL     OW10330   7.553   2.734   7.460 -0.5060 -0.6495  0.3398
32869SOL    HW110331   7.614   2.795   7.418 -0.4471 -0.9696 -0.0416
32869SOL    HW210332   7.469   2.751   7.416 -0.6781 -0.2771  0.7981
32870SOL     OW10333   0.790   1.779  10.905 -0.3796 -0.4640  0.5570
32870SOL    HW110334   0.716   1.830  10.871 -0.4869 -1.9477 -1.6141
32870SOL    HW210335   0.750   1.710  10.957 -0.2413  1.4050  3.3337
32871SOL     OW10336   7.616   9.242   1.990 -0.1399 -0.3668 -0.2511
32871SOL    HW110337   7.694   9.187   1.992  0.8967  0.9335  3.3129
32871SOL    HW210338   7.643   9.319   1.938  0.5718 -0.4232  0.0215
32872SOL     OW10339   0.805   4.739   9.603  0.1091 -0.4401  0.4490
32872SOL    HW110340   0.768   4.679   9.668  1.2968 -1.6818  0.0298
32872SOL    HW210341   0.866   4.793   9.652 -0.3788 -0.0958  0.6862
32873SOL     OW10342   5.720   2.501   9.363  0.0042 -0.0005  0.8544
32873SOL    HW110343   5.648   2.524   9.304  0.6317 -1.3561 -0.4878
32873SOL    HW210344   5.690   2.532   9.449 -1.3006  1.2524 -0.0025
32874SOL     OW10345   8.006   5.525   4.489  0.1351  0.4716 -0.3908
32874SOL    HW110346   7.917   5.499   4.511  0.4752  0.1644  0.6907
32874SOL    HW210347   8.007   5.530   4.393 -0.4948 -1.5359 -0.5367
32875SOL     OW10348   5.690   6.478   7.428 -0.1428  0.1977 -0.1182
32875SOL    HW110349   5.733   6.521   7.502  0.6778 -0.3581 -0.2702
32875SOL    HW210350   5.719   6.387   7.432 -0.9545 -0.0879 -0.4869
32876SOL     OW10351   1.687   3.058   9.793 -0.7817  0.9307  0.2420
32876SOL    HW110352   1.596   3.074   9.766 -0.9381 -0.1417  0.0606
32876SOL    HW210353   1.694   2.962   9.794  0.7528  1.0017 -1.1179
32877SOL     OW10354   6.862   2.295  11.645  0.6866  0.8583  0.0577
32877SOL    HW110355   6.845   2.384  11.612  3.4059  1.5835  0.3801
32877SOL    HW210356   6.895   2.247  11.570 -1.8736 -0.3401 -0.4175
32878SOL     OW10357  11.643   1.892   5.985 -0.7724  0.4787  0.3407
32878SOL    HW110358  11.596   1.811   6.007 -1.6117  0.5107 -1.1955
32878SOL    HW210359  11.711   1.865   5.924 -0.3688  0.7916  0.6459
32879SOL     OW10360   0.523   2.014   1.706 -0.2276 -0.3505  0.3856
32879SOL    HW110361   0.444   1.991   1.756 -0.3306  0.1798  0.4667
32879SOL    HW210362   0.583   1.941   1.722 -0.8631 -0.9819 -0.0402
32880SOL     OW10363   0.457   5.076   6.948  0.1864  0.0518  0.3959
32880SOL    HW110364   0.492   4.990   6.923 -0.2065  0.0223 -0.0546
32880SOL    HW210365   0.365   5.060   6.967 -0.4910  0.7744 -1.9670
32881SOL     OW10366  10.236   5.090  10.645 -0.6381 -0.1703 -0.4706
32881SOL    HW110367  10.202   5.130  10.726 -1.7034 -2.1005  0.1133
32881SOL    HW210368  10.322   5.131  10.632 -0.9314  1.0166  0.9967
32882SOL     OW10369   9.980  10.419   6.930 -0.1616  0.2133 -0.2922
32882SOL    HW110370   9.910  10.380   6.878  0.4288 -1.0605 -0.1604
32882SOL    HW210371  10.025  10.345   6.969  0.1691  1.0854  1.0589
32883SOL     OW10372   5.220   1.616   9.192  0.3230 -0.0128 -0.0322
32883SOL    HW110373   5.282   1.637   9.122  0.8031 -0.3380  0.2878
32883SOL    HW210374   5.150   1.568   9.148  0.0847  0.7076 -0.4662
32884SOL     OW10375   4.589   1.933   8.905  0.2892  0.5866 -0.2759
32884SOL    HW110376   4.632   1.968   8.983  0.9588  0.6909 -0.6855
32884SOL    HW210377   4.637   1.853   8.885  0.0229  0.4817 -0.5033
32885SOL     OW10378   0.275   3.270   1.283 -0.1026  0.2258  0.2158
32885SOL    HW110379   0.329   3.195   1.259 -0.4412 -0.1729  0.6591
32885SOL    HW210380   0.187   3.247   1.253 -0.5052 -0.2225  1.6514
32886SOL     OW10381   4.787   6.793   8.416 -0.3504  0.1593  0.1633
32886SOL    HW110382   4.816   6.800   8.507  0.1465 -0.0035  0.0232
32886SOL    HW210383   4.793   6.882   8.382 -1.3399  0.3680  0.5231
32887SOL     OW10384   3.268   0.757   6.553 -0.6626  1.0379  0.1477
32887SOL    HW110385   3.197   0.710   6.596  0.6044 -0.2086  0.9839
32887SOL    HW210386   3.307   0.809   6.624  0.1460  0.5882  0.0383
32888SOL     OW10387   9.858   2.943   8.723 -0.3754  0.4851  0.3361
32888SOL    HW110388   9.946   2.938   8.684  0.4454  1.2475  1.9824
32888SOL    HW210389   9.874   2.959   8.816 -2.2776  1.2540  0.5754
32889SOL     OW10390  11.918   7.388   4.001 -0.0520  0.1749  0.1515
32889SOL    HW110391  11.899   7.434   4.082 -0.8301 -1.3638  0.8817
32889SOL    HW210392  12.000   7.341   4.019  0.0877  0.2928 -0.1681
32890SOL     OW10393  10.396   2.713   3.082 -0.3701  0.3916  0.0450
32890SOL    HW110394  10.301   2.706   3.093 -0.6205  2.7078 -0.1016
32890SOL    HW210395  10.410   2.699   2.988 -0.6775  0.7226 -0.0555
32891SOL     OW10396   5.651  11.202  10.996  0.0915  0.3949  0.5123
32891SOL    HW110397   5.568  11.250  11.001  0.1164  0.4312  0.5883
32891SOL    HW210398   5.636  11.135  10.930 -0.0602  0.2854  0.6564
32892SOL     OW10399   4.307   0.667  11.369 -0.1128  0.9700 -0.6494
32892SOL    HW110400   4.264   0.703  11.291 -1.1293 -2.1455 -1.6921
32892SOL    HW210401   4.250   0.596  11.397  1.7072  0.1456  1.1995
32893SOL     OW10402   5.406   1.584   7.432 -0.3027  0.0073 -0.1509
32893SOL    HW110403   5.463   1.661   7.425 -0.9157  0.4904  0.0572
32893SOL    HW210404   5.341   1.608   7.499 -1.1100 -0.2896 -0.8025
32894SOL     OW10405   3.521   4.470   2.415 -0.1999 -0.0775 -0.7240
32894SOL    HW110406   3.431   4.437   2.414  0.1000 -1.1031  1.1293
32894SOL    HW210407   3.518   4.543   2.478  0.5509 -1.1632  0.6255
32895SOL     OW10408   7.109   9.376   4.737  0.2685  0.3223  0.0622
32895SOL    HW110409   7.203   9.393   4.731  0.4777 -0.8787 -0.1695
32895SOL    HW210410   7.091   9.312   4.668 -0.1259 -1.8759  2.1001
32896SOL     OW10411   8.425   1.754   3.308  0.0637  0.3344  0.4714
32896SOL    HW110412   8.379   1.672   3.327  1.1538 -0.1091  1.3647
32896SOL    HW210413   8.357   1.814   3.278 -0.8918 -0.6428  0.6088
32897SOL     OW10414   3.951   9.074   0.081 -0.2995 -0.0994 -0.2487
32897SOL    HW110415   3.997   9.042   0.004 -0.0703  0.4065 -0.3238
32897SOL    HW210416   3.956   9.169   0.074 -0.2982 -0.0518  0.3796
32898SOL     OW10417   5.531   5.778   5.181 -0.0486  0.0881  0.1263
32898SOL    HW110418   5.559   5.703   5.232 -0.8618  0.2869  0.8970
32898SOL    HW210419   5.438   5.761   5.163 -0.2697  0.9460  0.4028
32899SOL     OW10420   3.737   1.643   6.370 -0.8045 -0.5677  0.9159
32899SOL    HW110421   3.717   1.665   6.280 -1.9107  2.2866  1.7439
32899SOL    HW210422   3.728   1.548   6.375 -1.0059 -0.7493 -1.8690
32900SOL     OW10423   2.293   6.782   3.550 -0.2009 -0.7749 -0.0323
32900SOL    HW110424   2.383   6.803   3.575  0.2468  0.8473 -2.6672
32900SOL    HW210425   2.242   6.796   3.630  1.5100  0.9947  0.8311
32901SOL     OW10426   0.804   2.286   5.014 -0.0277  0.3732  0.1063
32901SOL    HW110427   0.880   2.253   5.061 -1.1275 -1.0084  1.0062
32901SOL    HW210428   0.840   2.337   4.942  1.7231  0.7556  1.1972
32902SOL     OW10429  10.357   0.471   9.817 -0.8051  0.1812  0.0101
32902SOL    HW110430  10.427   0.534   9.798 -1.4784  0.4487 -1.7663
32902SOL    HW210431  10.383   0.391   9.772 -1.3471  0.1057 -0.1858
32903SOL     OW10432   7.105   8.623   4.579 -0.0599 -0.0309  0.0617
32903SOL    HW110433   7.014   8.608   4.607 -0.3594  1.8050  0.2237
32903SOL    HW210434   7.098   8.634   4.484 -0.0001  0.0322  0.0647
32904SOL     OW10435   5.172   0.277   4.804 -0.5342 -0.2655 -0.1095
32904SOL    HW110436   5.123   0.247   4.727  1.8407 -1.2547 -1.3607
32904SOL    HW210437   5.114   0.339   4.847 -1.8256  0.6926 -2.9609
32905SOL     OW10438   0.295   1.245   1.331  0.6238 -0.0611 -0.1548
32905SOL    HW110439   0.355   1.198   1.390  1.2870  0.2052 -0.6076
32905SOL    HW210440   0.242   1.299   1.389  1.8063  0.8056  0.1553
32906SOL     OW10441   5.972   0.143   8.386  0.5891 -0.6866 -0.1558
32906SOL    HW110442   5.892   0.173   8.344 -0.1415 -1.3773  0.7040
32906SOL    HW210443   6.032   0.124   8.314 -0.2160 -0.7135 -0.8298
32907SOL     OW10444   0.040   0.855   4.854  0.2647 -0.4842 -0.3633
32907SOL    HW110445   0.114   0.804   4.822  0.2539  0.2173 -1.5874
32907SOL    HW210446   0.001   0.892   4.774 -1.4101 -0.8535  0.2575
32908SOL     OW10447  10.321   3.187   3.739  0.0716 -0.3105  0.4173
32908SOL    HW110448  10.245   3.135   3.711  0.3710  0.7403 -2.6830
32908SOL    HW210449  10.390   3.165   3.677  1.7727  0.1335  2.0631
32909SOL     OW10450   4.418   6.900   4.517  0.1288  0.1555 -0.0317
32909SOL    HW110451   4.424   6.915   4.423  0.6557  0.7718  0.0935
32909SOL    HW210452   4.372   6.816   4.525 -0.4303  0.3754 -0.8233
32910SOL     OW10453   4.837   3.381   2.836  0.1104 -0.2444  0.0493
32910SOL    HW110454   4.848   3.303   2.892  2.1245 -1.3023 -1.6840
32910SOL    HW210455   4.881   3.451   2.885  2.3807 -1.2843 -0.3616
32911SOL     OW10456   1.732   6.643   8.722  0.0742  0.1581 -0.2481
32911SOL    HW110457   1.728   6.707   8.793 -0.5770  0.3025 -0.4057
32911SOL    HW210458   1.724   6.558   8.766  0.4263  0.2082 -0.0848
32912SOL     OW10459   7.415   5.249   9.057  0.1190 -0.5291 -0.9019
32912SOL    HW110460   7.351   5.179   9.072 -1.5258  1.0201 -0.4043
32912SOL    HW210461   7.364   5.329   9.058  2.0315  0.7558 -0.9433
32913SOL     OW10462   6.711   7.308   9.717 -0.1113  0.4682 -0.2518
32913SOL    HW110463   6.750   7.394   9.730  0.8046  0.0727 -0.2813
32913SOL    HW210464   6.647   7.321   9.647 -1.6245  1.5910  1.2668
32914SOL     OW10465  10.018   4.841   1.129 -0.4040 -0.3293  0.1922
32914SOL    HW110466   9.939   4.867   1.081 -1.3234 -0.4854  1.5508
32914SOL    HW210467  10.083   4.907   1.107 -1.6357  1.1829  0.8666
32915SOL     OW10468   1.397   2.086   3.603  0.4867 -0.5807 -0.2374
32915SOL    HW110469   1.423   2.072   3.512 -0.9143  1.5823 -1.0533
32915SOL    HW210470   1.422   2.176   3.621 -0.2653 -0.6297  1.1699
32916SOL     OW10471   7.222   7.879   5.675 -0.0457 -0.2462  0.1287
32916SOL    HW110472   7.279   7.902   5.601  0.4827  0.8102  0.8406
32916SOL    HW210473   7.138   7.919   5.654 -0.1144 -0.5773 -0.2413
32917SOL     OW10474   4.478   7.390  10.139  0.3135  0.0294 -0.1477
32917SOL    HW110475   4.432   7.306  10.138  1.7333 -0.8832  2.4677
32917SOL    HW210476   4.558   7.374  10.090  0.4359 -0.0822  0.0833
32918SOL     OW10477   0.099   4.557   6.255 -0.0873 -0.4875  0.1257
32918SOL    HW110478   0.178   4.513   6.285  1.2256  1.6639  0.0938
32918SOL    HW210479   0.050   4.576   6.334  0.6313  0.2667  0.4049
32919SOL     OW10480  11.692   1.625   2.290 -0.0285 -0.4840  0.0223
32919SOL    HW110481  11.759   1.693   2.303 -0.2016  0.1075 -1.8537
32919SOL    HW210482  11.732   1.545   2.324  0.5793  0.3607  1.3542
32920SOL     OW10483   8.652   1.316   1.732 -0.1699 -0.5907  0.5143
32920SOL    HW110484   8.574   1.341   1.684 -0.3911 -0.2698  1.0260
32920SOL    HW210485   8.691   1.400   1.759  0.8015 -0.7237 -0.4425
32921SOL     OW10486   0.539   9.926   9.507  0.1689  0.4513 -0.0130
32921SOL    HW110487   0.534  10.022   9.500  1.3497  0.4618 -1.2842
32921SOL    HW210488   0.604   9.901   9.441 -0.9683 -1.3431 -0.5302
32922SOL     OW10489   4.081   3.867   6.508  0.3104 -0.3289  0.1265
32922SOL    HW110490   4.079   3.929   6.435  0.2259  1.6598  1.7299
32922SOL    HW210491   4.153   3.898   6.564 -1.5308  0.1257  2.4096
32923SOL     OW10492   3.629   8.701   9.441  0.9068 -0.3351  0.0047
32923SOL    HW110493   3.715   8.730   9.411  0.6651 -0.8173 -1.2047
32923SOL    HW210494   3.569   8.769   9.410  1.0505  1.3212  2.9421
32924SOL     OW10495   9.934   1.243   0.841 -0.0220  0.7797 -0.3769
32924SOL    HW110496   9.918   1.164   0.789 -0.8891  1.0960 -0.5965
32924SOL    HW210497   9.942   1.211   0.931 -1.2816  0.5287 -0.3361
32925SOL     OW10498   8.221   6.099   0.081 -0.1386  0.1649 -0.6898
32925SOL    HW110499   8.276   6.086   0.158 -1.1403 -4.8759 -0.4893
32925SOL    HW210500   8.132   6.104   0.115 -0.4571 -0.4440 -1.4006
32926SOL     OW10501   2.016   8.371   9.975 -0.6987  0.0413 -0.4932
32926SOL    HW110502   1.937   8.412  10.008 -1.2253 -0.8570 -0.5881
32926SOL    HW210503   2.003   8.365   9.880 -0.9513 -0.9467 -0.4139
32927SOL     OW10504   0.180   1.280   5.152 -0.7715 -0.4658 -0.3010
32927SOL    HW110505   0.149   1.365   5.183 -1.9721 -0.3498 -1.7197
32927SOL    HW210506   0.107   1.221   5.170 -0.6140 -0.8389 -0.8774
32928SOL     OW10507   6.561   4.029   8.156 -0.3913  0.3450  0.5352
32928SOL    HW110508   6.526   4.073   8.078  0.4015 -1.1264 -0.6982
32928SOL    HW210509   6.651   4.007   8.132 -0.4124 -0.9045  1.5355
32929SOL     OW10510   6.818  10.226   7.100 -0.8121 -0.2385  0.0587
32929SOL    HW110511   6.888  10.190   7.045 -1.0201 -0.5820  0.0149
32929SOL    HW210512   6.864  10.268   7.173 -0.5895 -2.3714  1.2209
32930SOL     OW10513   7.784   5.560   0.786  0.1348  0.3078 -0.0099
32930SOL    HW110514   7.723   5.533   0.716 -0.6051  0.5450  0.5332
32930SOL    HW210515   7.849   5.614   0.741  0.9807 -1.3749 -0.9234
32931SOL     OW10516   9.771   3.142   2.174  0.2662 -0.2951 -0.6376
32931SOL    HW110517   9.761   3.161   2.081 -0.0083  1.9927 -0.1940
32931SOL    HW210518   9.712   3.069   2.190  0.2954 -0.7057 -2.2281
32932SOL     OW10519   7.499   0.202   2.330 -0.4759  0.4300 -0.2336
32932SOL    HW110520   7.512   0.287   2.288 -0.8006 -0.6548 -2.7344
32932SOL    HW210521   7.406   0.184   2.319 -0.7444  0.4332  1.7555
32933SOL     OW10522   6.155   3.345  10.851  0.0642  0.1048  0.2705
32933SOL    HW110523   6.168   3.256  10.886 -2.3239 -0.3776  0.1574
32933SOL    HW210524   6.194   3.343  10.764 -0.8954 -1.2304 -0.1705
32934SOL     OW10525   8.177   6.126   6.483 -0.2186  0.2977  0.0921
32934SOL    HW110526   8.238   6.193   6.512 -1.3429  0.8937  1.2054
32934SOL    HW210527   8.230   6.065   6.431  1.3509  0.6472  1.2241
32935SOL     OW10528   3.728   6.752   6.825  0.3074  0.1622 -0.2812
32935SOL    HW110529   3.708   6.802   6.905 -0.6312 -1.2515  0.4035
32935SOL    HW210530   3.678   6.671   6.835  0.0754  0.0091 -2.3825
32936SOL     OW10531   4.138  11.122  10.702  0.5595 -0.6215  0.3128
32936SOL    HW110532   4.162  11.146  10.791  0.7310 -0.4692  0.2257
32936SOL    HW210533   4.221  11.103  10.658  0.5224 -0.1268  0.0212
32937SOL     OW10534   6.652   5.328   2.391  0.0108 -0.6325 -0.4359
32937SOL    HW110535   6.691   5.244   2.417 -1.2428 -0.8164  0.9581
32937SOL    HW210536   6.687   5.392   2.453 -1.0939 -0.6248  0.2046
32938SOL     OW10537  11.437   7.833   6.764 -0.2845 -0.0667 -0.4899
32938SOL    HW110538  11.366   7.869   6.711  0.2485  0.4556 -0.8522
32938SOL    HW210539  11.409   7.743   6.784 -1.5692  0.4800  0.3130
32939SOL     OW10540  11.832  11.455   6.864  0.2173 -0.7507  0.0659
32939SOL    HW110541  11.875  11.422   6.785  2.3913 -0.8832  1.2357
32939SOL    HW210542  11.751  11.495   6.832  1.4650  0.0521 -2.3621
32940SOL     OW10543   7.203   8.314   2.675  0.1797  0.3175 -0.1918
32940SOL    HW110544   7.238   8.305   2.764 -1.0167  1.5452  0.4329
32940SOL    HW210545   7.243   8.395   2.642 -1.0366  1.0335  0.0521
32941SOL     OW10546   6.353  11.472   8.162 -0.3239  0.2190  0.2752
32941SOL    HW110547   6.325  11.434   8.079 -0.6847 -0.8244  0.8657
32941SOL    HW210548   6.441  11.436   8.176  0.2642  1.3788 -0.2487
32942SOL     OW10549   7.487   2.141   0.688  0.1732  0.1607  0.8172
32942SOL    HW110550   7.444   2.226   0.683 -0.3366 -0.0996  0.6285
32942SOL    HW210551   7.416   2.078   0.674  0.8856 -0.2497 -1.1743
32943SOL     OW10552   2.056   1.321   9.030 -0.1287  0.3433  0.3874
32943SOL    HW110553   2.149   1.343   9.041  0.4579 -2.2029  0.9584
32943SOL    HW210554   2.036   1.262   9.102 -1.2763 -1.8081 -1.5835
32944SOL     OW10555   4.950  11.027   3.416  0.4794  0.5274  0.0493
32944SOL    HW110556   4.959  11.117   3.446  2.7142 -0.1907  1.8032
32944SOL    HW210557   4.914  10.980   3.491 -0.1932 -0.1604 -0.6762
32945SOL     OW10558   0.318   5.500   5.466 -0.2853  0.2979 -0.2717
32945SOL    HW110559   0.382   5.571   5.460 -0.5804  0.5584 -0.3752
32945SOL    HW210560   0.294   5.497   5.559  1.8355 -1.5591  0.3207
32946SOL     OW10561   4.745   3.085  11.843  0.0396  0.9435 -0.1525
32946SOL    HW110562   4.686   3.028  11.892 -0.1108  1.1823 -0.0508
32946SOL    HW210563   4.768   3.154  11.906  1.9311 -0.1427  0.4382
32947SOL     OW10564  10.311   4.499  10.529 -0.1398 -0.1216  0.3660
32947SOL    HW110565  10.376   4.445  10.574 -1.3450 -1.8485  0.1405
32947SOL    HW210566  10.361   4.572  10.493  1.5453 -1.0154  0.7855
32948SOL     OW10567   1.591   3.795   1.699  0.5356 -0.4664  0.2802
32948SOL    HW110568   1.519   3.858   1.686 -0.7343 -1.3893  2.2984
32948SOL    HW210569   1.560   3.715   1.657  0.9598 -0.4942  0.0261
32949SOL     OW10570   3.283   1.881   9.966  0.5165 -0.5222  0.1345
32949SOL    HW110571   3.212   1.934  10.003  1.3298  1.0296 -0.4165
32949SOL    HW210572   3.257   1.791   9.981 -1.4795  0.0126  0.0983
32950SOL     OW10573   6.422   3.340  10.308  0.1964 -0.1610 -0.0453
32950SOL    HW110574   6.374   3.421  10.323  1.0707  0.4809 -0.5893
32950SOL    HW210575   6.467   3.322  10.391  0.7579  0.4449 -0.2100
32951SOL     OW10576   0.630   3.183   0.839 -0.1875  0.0172  0.6593
32951SOL    HW110577   0.658   3.117   0.776 -0.5412  0.3815  0.1145
32951SOL    HW210578   0.622   3.136   0.922 -0.4570 -0.6260  0.2726
32952SOL     OW10579   3.650   7.549   0.729  0.0165 -0.2800  0.1799
32952SOL    HW110580   3.632   7.619   0.666 -0.2340 -0.0194  0.5381
32952SOL    HW210581   3.578   7.487   0.717 -1.0291  0.6316  1.4268
32953SOL     OW10582   0.252   1.186   0.055  0.3021 -0.3094 -0.8201
32953SOL    HW110583   0.313   1.127   0.098  0.1120 -0.0458 -0.1820
32953SOL    HW210584   0.190   1.128   0.011 -0.4630 -0.6161  0.6088
32954SOL     OW10585   1.791   8.279   9.792  0.2016  0.2919  0.3838
32954SOL    HW110586   1.836   8.228   9.859 -0.4153  0.1305  0.6855
32954SOL    HW210587   1.860   8.326   9.746  0.9740 -2.0267 -0.9609
32955SOL     OW10588   2.227   7.044   9.866  0.3295 -0.3517  0.1855
32955SOL    HW110589   2.166   7.069   9.797  1.2829  0.7226 -0.3111
32955SOL    HW210590   2.247   6.952   9.848  1.1369  0.1076 -1.4623
32956SOL     OW10591  10.974   4.743   7.610  0.4587 -0.2176 -0.3359
32956SOL    HW110592  11.046   4.710   7.555  1.2756  0.5653  0.2433
32956SOL    HW210593  11.015   4.765   7.693 -0.7213 -1.1289  0.5241
32957SOL     OW10594  11.257   3.250   7.160  0.2826  0.7427  0.3500
32957SOL    HW110595  11.246   3.305   7.083  0.8072  0.9461  0.4128
32957SOL    HW210596  11.333   3.195   7.139 -1.5789 -1.6159 -0.6706
32958SOL     OW10597   8.206   6.418   0.362  0.2779  0.0496  0.8685
32958SOL    HW110598   8.130   6.407   0.419 -0.0593 -1.5376  0.1659
32958SOL    HW210599   8.178   6.481   0.296 -0.2482 -0.1232  0.9234
32959SOL     OW10600   1.971   1.154   7.051 -0.8331  0.4863  0.1689
32959SOL    HW110601   1.928   1.205   7.119 -0.1630 -0.4720  1.3488
32959SOL    HW210602   2.057   1.196   7.040 -0.4673 -0.0767  0.8021
32960SOL     OW10603   4.628   6.041   6.848  0.3295 -0.5553 -0.0380
32960SOL    HW110604   4.582   6.118   6.879 -2.1507 -1.6346 -0.7789
32960SOL    HW210605   4.601   6.032   6.757  2.8691 -0.7154 -0.8650
32961SOL     OW10606   9.364   7.182   9.194  0.3377  0.7109 -0.8053
32961SOL    HW110607   9.456   7.166   9.212 -0.1857 -0.9503  0.6058
32961SOL    HW210608   9.332   7.099   9.158 -0.9759  0.7037  0.3229
32962SOL     OW10609   2.894  11.692   1.421  0.5866  0.1124  0.6123
32962SOL    HW110610   2.943  11.616   1.453  0.9558 -0.9027 -2.0345
32962SOL    HW210611   2.961  11.756   1.398  0.4897  0.0162  0.0346
32963SOL     OW10612   4.744   7.684   5.036  0.5754  0.7401  0.2873
32963SOL    HW110613   4.730   7.629   5.113  0.8122  1.8175  1.1199
32963SOL    HW210614   4.822   7.647   4.994 -1.4224 -1.9325 -1.3760
32964SOL     OW10615  10.558   6.718   7.914 -0.2468 -0.0845 -0.5961
32964SOL    HW110616  10.647   6.684   7.913 -0.5809 -0.9882 -0.8631
32964SOL    HW210617  10.539   6.737   7.822 -0.4757 -0.3160 -0.5990
32965SOL     OW10618  10.325   6.349   1.902  0.1767  0.2240  0.0285
32965SOL    HW110619  10.292   6.438   1.887  2.2727  1.2023  0.8674
32965SOL    HW210620  10.337   6.344   1.997  1.9107 -0.2360 -0.1896
32966SOL     OW10621  11.518   4.226   8.430 -0.4299 -0.0838 -0.2043
32966SOL    HW110622  11.592   4.166   8.431 -0.4603 -0.1205 -0.1405
32966SOL    HW210623  11.441   4.170   8.439 -0.4341 -0.0009  0.3317
32967SOL     OW10624   1.311   3.032   8.543  0.2488 -0.4195  0.2153
32967SOL    HW110625   1.243   3.089   8.577  0.3958 -0.3480  0.3919
32967SOL    HW210626   1.389   3.087   8.540 -0.2361  0.2494 -2.3689
32968SOL     OW10627   4.967   8.726   7.382  0.1801 -0.0149 -0.4332
32968SOL    HW110628   4.944   8.791   7.315 -0.0413  0.5925  0.2225
32968SOL    HW210629   4.916   8.752   7.459  2.3284  0.8105  0.7705
32969SOL     OW10630   7.876   4.767   4.738 -0.1474 -0.1904  0.4496
32969SOL    HW110631   7.840   4.683   4.708  1.1907 -0.2429 -1.0790
32969SOL    HW210632   7.950   4.784   4.681 -1.1238  2.6870 -0.1237
32970SOL     OW10633   1.596  11.052   4.821  0.1359 -0.3368  0.0730
32970SOL    HW110634   1.616  11.133   4.866 -0.6844  0.6877 -1.3174
32970SOL    HW210635   1.500  11.048   4.819  0.1560 -0.6207 -1.0676
32971SOL     OW10636   6.688   4.924   9.326  0.0231 -0.0031 -0.1627
32971SOL    HW110637   6.632   4.942   9.249  1.8165  0.7364 -1.3652
32971SOL    HW210638   6.741   4.850   9.300  2.4864  1.8364 -0.7544
32972SOL     OW10639   3.089   2.537   6.848 -0.1549  0.2217 -0.2543
32972SOL    HW110640   3.081   2.574   6.936 -0.1291  1.6276 -0.8012
32972SOL    HW210641   3.057   2.607   6.791  2.1131  0.3328 -1.5093
32973SOL     OW10642   5.112   5.327   9.423 -0.0941  0.0616  0.3754
32973SOL    HW110643   5.099   5.400   9.362 -1.6012 -0.0819  0.4864
32973SOL    HW210644   5.102   5.367   9.509 -0.3979 -0.1859  0.4539
32974SOL     OW10645   1.135   3.748   3.494  0.1836 -0.1347  0.0342
32974SOL    HW110646   1.176   3.815   3.439 -0.0808  0.8183  0.9644
32974SOL    HW210647   1.183   3.668   3.474 -0.4419 -0.0106 -2.1896
32975SOL     OW10648   7.456   1.474  11.832  0.2436 -0.5152  0.2681
32975SOL    HW110649   7.515   1.534  11.786 -0.6447  0.4309  0.3336
32975SOL    HW210650   7.426   1.414  11.764 -0.4454  0.3909 -0.2609
32976SOL     OW10651   9.603   1.048   4.843  0.1505 -0.1004 -0.2885
32976SOL    HW110652   9.613   1.140   4.866 -0.4736 -0.2306  0.5751
32976SOL    HW210653   9.549   1.012   4.913  1.7507 -1.5054  0.2889
32977SOL     OW10654   6.866   4.028  10.319  0.4815  0.0323 -0.1001
32977SOL    HW110655   6.794   4.036  10.257  0.8420 -0.6842 -0.6167
32977SOL    HW210656   6.940   3.999  10.266  1.3923  1.5737  0.2607
32978SOL     OW10657   6.624   0.849   4.659 -0.3348  0.0688  0.2172
32978SOL    HW110658   6.682   0.882   4.591 -0.1612  0.6294  0.6300
32978SOL    HW210659   6.536   0.859   4.622 -0.1460 -1.6613 -0.7851
32979SOL     OW10660   8.571   8.790   2.317 -0.1541  1.0715 -0.0664
32979SOL    HW110661   8.540   8.861   2.375 -0.8794  0.2497  0.5808
32979SOL    HW210662   8.529   8.711   2.351  0.4555  0.3549 -0.9246
32980SOL     OW10663   8.095   8.557   9.384 -0.2638 -0.4482 -0.0737
32980SOL    HW110664   8.084   8.464   9.364  0.7174 -0.7192  0.5741
32980SOL    HW210665   8.116   8.559   9.478 -2.4764  0.5966  0.4783
32981SOL     OW10666   8.515   7.042   5.777  0.1938  0.4586 -0.1944
32981SOL    HW110667   8.543   6.970   5.834  1.8619  2.1527  1.2797
32981SOL    HW210668   8.422   7.026   5.763  0.0216 -0.8047  1.8988
32982SOL     OW10669   2.385   3.422   2.699 -0.0519  0.1384 -0.1272
32982SOL    HW110670   2.393   3.421   2.604  0.9677 -2.2969 -0.0849
32982SOL    HW210671   2.462   3.469   2.729  0.9847 -1.2481 -0.4923
32983SOL     OW10672   1.362  11.346   3.540 -0.1364  0.5552 -0.0387
32983SOL    HW110673   1.454  11.366   3.559  0.3408 -1.4517  0.0655
32983SOL    HW210674   1.361  11.328   3.446 -0.2108 -0.3467  0.1285
32984SOL     OW10675   9.939   7.160   0.609  0.0378 -0.5078 -0.1757
32984SOL    HW110676   9.891   7.242   0.612 -1.4577 -1.3752  1.1887
32984SOL    HW210677  10.018   7.176   0.661  1.3198  0.9238 -2.4193
32985SOL     OW10678   3.535   6.552   2.942 -0.0039  0.1339  0.1409
32985SOL    HW110679   3.511   6.564   2.849 -2.1551 -1.4050  0.4166
32985SOL    HW210680   3.554   6.641   2.972 -0.5944  0.8598 -1.4535
32986SOL     OW10681   0.989   1.748   3.094  0.5410  0.5533  0.0374
32986SOL    HW110682   0.911   1.748   3.039  1.5088  0.3018 -1.3925
32986SOL    HW210683   0.986   1.665   3.141 -1.2064  1.5100  1.7904
32987SOL     OW10684   8.629   2.579  11.621  0.0360 -0.1433 -1.0780
32987SOL    HW110685   8.535   2.582  11.606 -0.1030  0.1758 -0.2076
32987SOL    HW210686   8.644   2.641  11.692  0.6720 -1.4086 -0.0608
32988SOL     OW10687   6.955  11.844   5.255  0.1816 -0.4595 -0.1385
32988SOL    HW110688   6.902  11.918   5.285 -0.0601 -0.3959 -0.7166
32988SOL    HW210689   7.041  11.860   5.293 -0.7357 -1.7668  2.7371
32989SOL     OW10690   6.394   4.922   8.313  0.4866  0.0855 -0.0828
32989SOL    HW110691   6.452   4.968   8.374  0.0454 -1.0689  1.2529
32989SOL    HW210692   6.451   4.898   8.240  1.1793  0.9107  0.1696
32990SOL     OW10693   8.993   4.905  10.385 -0.5867 -0.4054  0.9437
32990SOL    HW110694   9.075   4.866  10.353 -1.0228 -1.3441  0.9336
32990SOL    HW210695   8.991   4.992  10.346 -0.3000 -0.9160 -0.2621
32991SOL     OW10696   9.360   7.878  10.620 -0.0220 -0.1953  0.3087
32991SOL    HW110697   9.340   7.946  10.683 -0.8165 -1.2767  1.2807
32991SOL    HW210698   9.432   7.829  10.659 -0.1967 -0.5835  0.1527
32992SOL     OW10699   5.367   5.071   4.730 -0.7724 -0.3888 -0.1819
32992SOL    HW110700   5.373   5.044   4.822  0.5274 -1.5874 -0.5842
32992SOL    HW210701   5.281   5.112   4.723 -1.0146 -0.5221  1.5030
32993SOL     OW10702   0.923   0.605   9.558  0.6145 -0.0520  0.2765
32993SOL    HW110703   0.964   0.661   9.623  1.4665 -0.1093 -0.2007
32993SOL    HW210704   0.868   0.545   9.609  1.0918  0.0533  0.9193
32994SOL     OW10705   7.153   7.301   3.133  0.4537  0.2129  0.1669
32994SOL    HW110706   7.185   7.390   3.116  1.3794 -0.3339 -1.0704
32994SOL    HW210707   7.186   7.249   3.060  0.1719 -1.2232  1.0217
32995SOL     OW10708   7.575  10.918   8.824 -0.0534 -0.0448 -0.5779
32995SOL    HW110709   7.496  10.883   8.784 -0.0114 -1.3520  0.4492
32995SOL    HW210710   7.643  10.905   8.757 -0.4990  0.2058 -1.0900
32996SOL     OW10711   0.704   7.957   4.703 -0.1076  0.2812 -0.2581
32996SOL    HW110712   0.738   7.874   4.737 -0.4752  0.4012  0.4227
32996SOL    HW210713   0.710   7.948   4.608  3.6088  1.0080 -0.2425
32997SOL     OW10714   9.052   5.213   1.918 -0.1622 -0.5477 -0.2642
32997SOL    HW110715   9.031   5.121   1.929 -0.2754 -0.7329 -1.7637
32997SOL    HW210716   9.002   5.240   1.840  0.9541  0.4000 -0.6978
32998SOL     OW10717   2.031   7.765   4.350  0.4933 -0.3086  0.2011
32998SOL    HW110718   1.996   7.723   4.271  0.1557  0.8156 -0.2767
32998SOL    HW210719   2.124   7.745   4.349  0.3050 -1.2536  0.1405
32999SOL     OW10720   7.189   5.320   9.895 -0.1436  0.4433  0.2653
32999SOL    HW110721   7.218   5.410   9.880 -0.5807  0.4648 -0.5077
32999SOL    HW210722   7.197   5.278   9.809  0.1208 -0.2762  0.6357
33000SOL     OW10723  10.656   3.157   4.399  0.1695  0.5711 -0.3209
33000SOL    HW110724  10.636   3.182   4.309  0.1681 -1.3201 -0.8913
33000SOL    HW210725  10.752   3.146   4.400  0.4157  2.4220  0.4461
33001SOL     OW10726   0.414   5.824   5.060 -0.0329  0.0601  0.5362
33001SOL    HW110727   0.448   5.887   5.123  0.6113  1.4794 -1.1529
33001SOL    HW210728   0.382   5.752   5.114  1.1921  0.8464  2.4291
33002SOL     OW10729   1.996   7.881  10.243  0.2695 -0.1179  0.1190
33002SOL    HW110730   1.925   7.945  10.231  0.3873 -0.4299 -2.7680
33002SOL    HW210731   2.073   7.923  10.206  0.8473 -1.0779  0.1982
33003SOL     OW10732  11.614  10.424   7.614 -0.2181  0.3021 -0.6674
33003SOL    HW110733  11.612  10.367   7.537 -0.9759  0.9889 -1.1707
33003SOL    HW210734  11.596  10.512   7.579 -0.3736  0.6528  0.2702
33004SOL     OW10735   4.375   8.873   0.593  0.1503 -0.7575  0.1939
33004SOL    HW110736   4.304   8.935   0.610 -0.5486 -1.5064  0.0684
33004SOL    HW210737   4.388   8.829   0.677  1.0268 -0.0738  0.4345
33005SOL     OW10738   3.774   8.889  11.405  0.3034 -0.0619  0.1074
33005SOL    HW110739   3.843   8.955  11.398  0.8098 -0.6640 -0.6688
33005SOL    HW210740   3.820   8.807  11.422 -0.1858 -0.5381 -0.8037
33006SOL     OW10741   9.882   5.555  10.458 -0.1057 -0.4912 -0.1158
33006SOL    HW110742   9.908   5.507  10.537  3.1782  2.2870  0.7248
33006SOL    HW210743   9.806   5.607  10.486 -0.9886 -1.8735  0.1838
33007SOL     OW10744  11.725   0.133   7.108 -0.1850 -0.4908 -0.4264
33007SOL    HW110745  11.760   0.218   7.082  0.0328 -1.0454 -2.0694
33007SOL    HW210746  11.699   0.144   7.199  1.1664  0.9144 -0.1739
33008SOL     OW10747  10.877   3.147  11.187  0.2435  0.4226  0.0897
33008SOL    HW110748  10.849   3.157  11.096  0.8816  2.0364  0.0452
33008SOL    HW210749  10.922   3.062  11.189  0.7199  0.6247 -1.2374
33009SOL     OW10750   1.927  11.651   8.276 -0.1883  0.0309  0.3781
33009SOL    HW110751   1.844  11.621   8.311 -0.4336  1.7003  1.3590
33009SOL    HW210752   1.992  11.593   8.316 -0.7975 -0.7011  0.3318
33010SOL     OW10753   5.748   7.165   5.630  0.2183 -0.0813  0.6020
33010SOL    HW110754   5.690   7.199   5.698 -0.3803  1.7553 -0.7459
33010SOL    HW210755   5.703   7.183   5.548  1.1246 -1.8365 -0.3499
33011SOL     OW10756   9.778   2.322   6.543 -0.6406  0.6193  0.2453
33011SOL    HW110757   9.707   2.279   6.494 -0.1099 -1.6473  1.3208
33011SOL    HW210758   9.761   2.299   6.634  2.1067 -1.1464  0.4263
33012SOL     OW10759   6.646   0.059  11.488 -0.3998  0.1432  0.0022
33012SOL    HW110760   6.588  -0.016  11.473 -2.3000  1.2437  1.3842
33012SOL    HW210761   6.706   0.031  11.557 -0.8052 -0.2658  0.1891
33013SOL     OW10762   5.756   9.899   2.071  0.0963  0.0147 -0.2770
33013SOL    HW110763   5.759   9.993   2.085 -1.4875 -0.0293  0.5569
33013SOL    HW210764   5.813   9.862   2.139  1.7603  0.3908 -1.4017
33014SOL     OW10765   5.061  11.432   2.198 -0.0514  0.0803 -0.3042
33014SOL    HW110766   4.972  11.419   2.231 -0.4190 -0.2541 -1.3952
33014SOL    HW210767   5.109  11.467   2.273 -0.7232 -1.1675  0.7626
33015SOL     OW10768   2.812   6.871  10.246  0.5034 -0.2159  0.0268
33015SOL    HW110769   2.727   6.835  10.221  0.3332  0.9378 -1.1534
33015SOL    HW210770   2.862   6.874  10.164  0.5260  2.0855  0.0438
33016SOL     OW10771  10.619   8.906   7.213  0.0271  0.3327  0.9046
33016SOL    HW110772  10.556   8.845   7.251  0.4556 -0.3214  0.5915
33016SOL    HW210773  10.575   8.944   7.137  0.6041 -1.4653 -0.3977
33017SOL     OW10774   2.102   1.820   2.332  0.8037  0.1255 -0.1493
33017SOL    HW110775   2.191   1.784   2.325  0.0886 -1.6413 -0.8726
33017SOL    HW210776   2.103   1.870   2.413  2.2019 -0.6586  0.3629
33018SOL     OW10777   3.425   2.568  11.696  0.1859 -0.2416  0.4609
33018SOL    HW110778   3.439   2.512  11.620  0.5484  0.6118 -0.1202
33018SOL    HW210779   3.378   2.513  11.758  1.2841 -1.4487  0.2507
33019SOL     OW10780  11.230   4.177   6.228 -0.4848  0.8350 -0.1757
33019SOL    HW110781  11.310   4.131   6.204  0.0268  1.6511 -0.0763
33019SOL    HW210782  11.168   4.108   6.252  0.3586  0.2224  0.2627
33020SOL     OW10783  11.784   1.718  10.596 -0.1219 -0.3606 -0.4107
33020SOL    HW110784  11.761   1.774  10.522 -2.1909  2.2245  1.9615
33020SOL    HW210785  11.877   1.735  10.611  0.1249 -0.2842 -1.8384
33021SOL     OW10786   7.661  10.839   8.166  0.0518 -0.0279 -0.4092
33021SOL    HW110787   7.753  10.837   8.140  0.6094 -0.9961  1.4343
33021SOL    HW210788   7.658  10.902   8.238 -0.2586 -1.5238  0.9511
33022SOL     OW10789   2.682   4.569   9.430  0.0474  0.2527 -0.0941
33022SOL    HW110790   2.675   4.590   9.524  3.1151 -1.2471  0.6040
33022SOL    HW210791   2.661   4.476   9.425  0.6693  0.1465 -0.7777
33023SOL     OW10792   4.388   9.854  10.224  0.6024  0.2304  0.0930
33023SOL    HW110793   4.473   9.823  10.254  0.0587 -0.1263  1.3517
33023SOL    HW210794   4.326   9.786  10.250 -0.0014  0.1668 -1.4059
33024SOL     OW10795   0.990   4.011   3.794 -0.3243  0.5409  0.6772
33024SOL    HW110796   0.933   4.068   3.742  0.8517  1.0347 -0.1094
33024SOL    HW210797   0.994   4.052   3.880 -0.6370  0.8425  0.5508
33025SOL     OW10798  10.649   7.484   6.675 -0.0723 -0.0806 -0.3724
33025SOL    HW110799  10.713   7.479   6.604  1.7515 -1.3697  1.2814
33025SOL    HW210800  10.648   7.397   6.713  2.3016  1.5049  3.9248
33026SOL     OW10801   9.786   9.959   8.790  0.4119  0.0966  0.5611
33026SOL    HW110802   9.738   9.988   8.867  0.0986  0.3008  0.2915
33026SOL    HW210803   9.718   9.937   8.726  0.6202 -1.5965  0.8804
33027SOL     OW10804   9.054  11.693   7.341 -0.0578  0.0461 -0.2365
33027SOL    HW110805   9.120  11.627   7.321  0.8279  0.3727  1.4326
33027SOL    HW210806   9.072  11.765   7.281 -0.3861 -0.7725 -1.3682
33028SOL     OW10807   4.768   0.744   9.790 -0.5201  0.2371 -0.1400
33028SOL    HW110808   4.813   0.661   9.807  1.9609  1.9587  2.6444
33028SOL    HW210809   4.837   0.803   9.762 -1.9876  1.7611 -0.6918
33029SOL     OW10810   2.328   7.134   3.220  0.1187  0.2668 -0.2515
33029SOL    HW110811   2.352   7.137   3.127  0.3725  0.8103 -0.1734
33029SOL    HW210812   2.291   7.221   3.238 -1.5664 -0.4161 -0.2701
33030SOL     OW10813   5.688   5.052   0.942  0.6695  0.0669  0.4648
33030SOL    HW110814   5.692   4.956   0.946 -0.1878  0.0667  3.5086
33030SOL    HW210815   5.763   5.081   0.994  0.9234  1.0870 -0.4302
33031SOL     OW10816   9.852  11.441   0.815 -0.6396  0.1238  0.2553
33031SOL    HW110817   9.813  11.455   0.902 -0.1315  0.7141  0.3936
33031SOL    HW210818   9.856  11.529   0.777 -0.6754 -0.1103 -0.2876
33032SOL     OW10819   6.450  11.751   5.160  0.5651 -0.0765  0.0218
33032SOL    HW110820   6.526  11.809   5.168  0.0753  0.4553  0.9751
33032SOL    HW210821   6.478  11.685   5.096  1.8374  0.0795  0.3742
33033SOL     OW10822   5.502   5.790   5.589  0.1152  0.6150  0.7927
33033SOL    HW110823   5.433   5.780   5.523  0.4258 -2.0420  0.7708
33033SOL    HW210824   5.468   5.857   5.649 -0.7371  2.1687 -1.2924
33034SOL     OW10825   2.183   2.491   3.521 -0.9563  0.0252  0.1039
33034SOL    HW110826   2.193   2.410   3.572 -4.3898 -0.2694  0.5870
33034SOL    HW210827   2.248   2.551   3.558  2.0599 -2.5629 -0.5997
33035SOL     OW10828  10.542   5.533   4.948  0.6256  0.8768 -0.5387
33035SOL    HW110829  10.613   5.596   4.962 -0.9415  2.7245 -0.4853
33035SOL    HW210830  10.551   5.505   4.857  1.8999  0.4318 -0.2910
33036SOL     OW10831   0.261   4.375   9.848 -0.1547  0.1240 -0.2005
33036SOL    HW110832   0.167   4.358   9.855  0.0082 -0.6374  0.1323
33036SOL    HW210833   0.287   4.401   9.936  0.1499 -0.6907 -0.0479
33037SOL     OW10834  11.343   5.450   3.953  0.7878 -0.0514 -0.3257
33037SOL    HW110835  11.348   5.430   3.859  3.6929 -0.7157 -0.1185
33037SOL    HW210836  11.375   5.540   3.959  0.6866 -0.0411  0.0370
33038SOL     OW10837   5.151  10.516   5.586  0.0456 -0.5262  0.3033
33038SOL    HW110838   5.145  10.537   5.679  0.6920  0.1258  0.2091
33038SOL    HW210839   5.156  10.421   5.583 -0.5308 -0.5869  0.8948
33039SOL     OW10840   4.148   3.317   9.964  0.1053 -0.1898  0.6724
33039SOL    HW110841   4.194   3.310  10.048 -1.2010 -2.0447  1.2913
33039SOL    HW210842   4.156   3.410   9.940  0.8961  0.2932  2.6016
33040SOL     OW10843   6.734   6.463   5.877  0.0954 -0.0094 -0.5136
33040SOL    HW110844   6.717   6.377   5.838 -0.5273  0.2399 -0.8117
33040SOL    HW210845   6.734   6.523   5.803  1.2130  0.1666 -0.3878
33041SOL     OW10846   6.023   1.942  11.727  0.6466  0.1500  0.1514
33041SOL    HW110847   6.100   1.896  11.761  0.8296 -0.2255 -0.7173
33041SOL    HW210848   6.042   2.035  11.741  0.4287 -0.0029  1.6199
33042SOL     OW10849   4.357   3.622   9.054 -0.1750  0.0893  0.0072
33042SOL    HW110850   4.314   3.702   9.021  0.0385 -0.4497 -1.6857
33042SOL    HW210851   4.298   3.590   9.122 -0.1258  1.8306  0.9309
33043SOL     OW10852   6.634   5.573   2.783 -0.2813  0.1204 -0.2148
33043SOL    HW110853   6.586   5.654   2.764  1.4896  1.3066  0.0910
33043SOL    HW210854   6.606   5.550   2.872 -1.2595  0.0295 -0.5310
33044SOL     OW10855   5.484   2.424  11.510 -0.2097 -0.3273  0.4505
33044SOL    HW110856   5.510   2.372  11.434  0.5126 -1.0078  1.1531
33044SOL    HW210857   5.392   2.401  11.524 -0.1883 -0.6240  0.1191
33045SOL     OW10858   8.061   0.928   3.525 -0.0238 -0.8201  0.0915
33045SOL    HW110859   8.055   1.011   3.573  1.9540 -0.9442  0.6638
33045SOL    HW210860   8.006   0.867   3.573 -0.0084 -0.3028  0.7750
33046SOL     OW10861   6.452   2.125   8.690 -0.0361 -0.2610 -0.0147
33046SOL    HW110862   6.460   2.046   8.742 -0.2956 -0.3471 -0.1009
33046SOL    HW210863   6.470   2.197   8.750  0.9875 -0.4233 -0.1224
33047SOL     OW10864   2.983   8.370   8.146  0.3735  0.5794  0.3988
33047SOL    HW110865   2.966   8.291   8.093  0.7643  0.5734  0.2778
33047SOL    HW210866   2.911   8.372   8.209 -0.8946  1.3317 -0.9885
33048SOL     OW10867   4.125  11.777   4.195  0.1982 -0.3586 -0.5589
33048SOL    HW110868   4.066  11.852   4.201  0.2630 -0.4058  1.5326
33048SOL    HW210869   4.212  11.816   4.184  0.1350 -0.1569 -0.3577
33049SOL     OW10870  11.598   7.434   7.775  0.0270 -0.3383 -0.5155
33049SOL    HW110871  11.656   7.368   7.812 -0.5256 -0.8678 -0.5901
33049SOL    HW210872  11.636   7.517   7.804 -0.2949 -0.7262  1.1039
33050SOL     OW10873   1.153   5.182   8.825  0.2055 -0.2601 -0.3878
33050SOL    HW110874   1.178   5.112   8.886  0.5625 -0.1362 -0.3901
33050SOL    HW210875   1.209   5.256   8.848 -1.3877  0.6460  0.8133
33051SOL     OW10876   9.716   6.077   2.150 -0.4527  0.4055  0.4399
33051SOL    HW110877   9.734   5.990   2.186  0.3171  0.4951  0.2832
33051SOL    HW210878   9.786   6.133   2.185 -1.2986  1.1082  1.0506
33052SOL     OW10879   5.255   2.404   5.725  0.5507 -0.3337 -0.1802
33052SOL    HW110880   5.277   2.339   5.792 -0.8788 -1.4093 -0.7263
33052SOL    HW210881   5.216   2.354   5.654 -1.6036  1.2068 -0.1705
33053SOL     OW10882   0.795   8.903   9.748 -0.5138  0.4976  0.4346
33053SOL    HW110883   0.724   8.913   9.685  0.7100  0.5686 -0.9777
33053SOL    HW210884   0.823   8.812   9.740 -0.5287  0.4224  1.1039
33054SOL     OW10885   7.551   6.149  11.729  0.1663 -0.4543  0.5829
33054SOL    HW110886   7.547   6.214  11.659 -0.4766 -0.9336  0.1655
33054SOL    HW210887   7.644   6.136  11.745  0.4234 -1.8227 -1.6042
33055SOL     OW10888   8.283   1.166   3.112  0.2695  0.4290 -0.0349
33055SOL    HW110889   8.276   1.226   3.186  3.0061  0.3813  0.3797
33055SOL    HW210890   8.235   1.088   3.139 -0.0610  0.9842  1.0350
33056SOL     OW10891   5.291   6.762   3.625 -0.4964  0.1609 -0.3789
33056SOL    HW110892   5.255   6.681   3.662 -1.2960  0.9670  0.6661
33056SOL    HW210893   5.322   6.811   3.701 -1.0096  1.3010 -0.8891
33057SOL     OW10894  11.112   3.680   9.897  0.0739 -0.2376 -0.6070
33057SOL    HW110895  11.040   3.696   9.835 -0.3205 -0.8339 -0.3097
33057SOL    HW210896  11.088   3.599   9.941  1.7289 -1.3655 -1.6518
33058SOL     OW10897  11.236   2.814   6.025  0.2069  0.4216  0.3193
33058SOL    HW110898  11.186   2.810   6.107 -1.1772  0.4472 -0.5129
33058SOL    HW210899  11.175   2.848   5.960  1.8713  2.4758 -0.3051
33059SOL     OW10900  10.319   6.995  11.502  0.2891  0.2122  0.6620
33059SOL    HW110901  10.367   7.074  11.474 -0.3448  1.2859  2.4429
33059SOL    HW210902  10.384   6.943  11.549  0.7298 -0.4064 -0.5856
33060SOL     OW10903  10.065   5.489   3.231  0.0690 -0.0980 -0.2160
33060SOL    HW110904  10.037   5.399   3.243 -1.0390  0.0848 -1.2205
33060SOL    HW210905   9.984   5.538   3.222  0.5427  1.3312  2.1815
33061SOL     OW10906   3.123   8.565   4.286  0.3505  0.2888  0.2308
33061SOL    HW110907   3.132   8.642   4.229  1.8596 -0.7970 -1.0636
33061SOL    HW210908   3.054   8.513   4.245  0.4405  0.1893  0.2061
33062SOL     OW10909   9.045   0.709   5.905 -0.0965  0.1851 -0.6448
33062SOL    HW110910   9.109   0.686   5.837  0.4102  0.3999 -0.2443
33062SOL    HW210911   8.994   0.780   5.866  1.8809  2.1497  0.1231
33063SOL     OW10912   0.535   8.119   4.062  0.8903  0.2556  0.0220
33063SOL    HW110913   0.577   8.200   4.091  1.6803 -0.8848  2.3674
33063SOL    HW210914   0.528   8.066   4.142  0.2398 -1.9116 -1.3753
33064SOL     OW10915   1.181   1.311   4.328  0.1776  0.2842 -0.2158
33064SOL    HW110916   1.228   1.320   4.411 -0.7932  0.1028  0.3634
33064SOL    HW210917   1.150   1.400   4.309 -0.5091  0.1264  0.1628
33065SOL     OW10918   9.388   9.514   8.269  0.2995 -0.3854 -0.1286
33065SOL    HW110919   9.465   9.500   8.214 -0.3893 -0.3147 -1.1550
33065SOL    HW210920   9.406   9.465   8.349  1.6910  0.2060 -0.0694
33066SOL     OW10921   5.573   7.714  10.558  0.0739  0.1243  0.0120
33066SOL    HW110922   5.647   7.733  10.501  1.0096  0.0237  1.1432
33066SOL    HW210923   5.609   7.721  10.647 -1.0897 -0.6851  0.5766
33067SOL     OW10924   9.406   8.032   9.875 -0.0748  0.2883 -0.0848
33067SOL    HW110925   9.480   8.006   9.821  0.7894  0.2481  1.0934
33067SOL    HW210926   9.405   7.969   9.948  0.4879  1.9533  1.4272
33068SOL     OW10927   8.191   4.357   9.033  0.1677  0.2143 -0.2995
33068SOL    HW110928   8.123   4.294   9.058 -0.1406  0.8665  0.5534
33068SOL    HW210929   8.250   4.359   9.109  0.9604 -0.0799 -0.8882
33069SOL     OW10930  11.597  11.703   9.914 -0.2505  0.0232 -0.1037
33069SOL    HW110931  11.660  11.765   9.952 -0.0666  0.3656 -0.9464
33069SOL    HW210932  11.641  11.619   9.917  0.2701  0.2703 -0.7336
33070SOL     OW10933   5.453   8.203   0.630 -0.1046  0.0356  0.4215
33070SOL    HW110934   5.424   8.124   0.585 -2.3337 -0.2511  2.1716
33070SOL    HW210935   5.444   8.182   0.723  0.0738  2.0611  0.9369
33071SOL     OW10936   2.469   5.434   8.988 -0.0533 -0.3951  0.6860
33071SOL    HW110937   2.469   5.353   8.937  0.9705  0.3862 -0.6186
33071SOL    HW210938   2.417   5.496   8.936 -0.5937 -0.1176  1.5337
33072SOL     OW10939   3.795   8.309   8.961 -0.2272 -0.2972  0.8817
33072SOL    HW110940   3.803   8.344   9.050  0.4049  2.8305 -0.2629
33072SOL    HW210941   3.706   8.332   8.934  0.5500  1.6632 -0.2750
33073SOL     OW10942   7.685  11.465  11.202  0.1437 -0.2100  0.2782
33073SOL    HW110943   7.779  11.457  11.218  0.3770 -1.0150 -1.3080
33073SOL    HW210944   7.645  11.400  11.260  0.5707 -0.0286  0.7850
33074SOL     OW10945   0.523   7.137   8.787 -0.1980  0.0300  0.1233
33074SOL    HW110946   0.429   7.137   8.772 -0.0281  0.3205 -1.0997
33074SOL    HW210947   0.556   7.207   8.730  0.6299  0.7445  1.4310
33075SOL     OW10948   1.634  11.761   8.331 -0.3177 -0.0017  0.3883
33075SOL    HW110949   1.602  11.835   8.280 -0.3041 -1.2707 -1.6183
33075SOL    HW210950   1.707  11.796   8.382 -0.9858  1.5721  0.2983
33076SOL     OW10951   2.739  11.066   3.865 -0.1376 -1.1412 -0.4060
33076SOL    HW110952   2.830  11.065   3.836 -0.4910 -1.5197 -1.5580
33076SOL    HW210953   2.720  11.159   3.879  0.2891 -1.0220 -0.6028
33077SOL     OW10954   0.951   5.371   9.762 -0.2281  0.0115  0.2721
33077SOL    HW110955   0.912   5.458   9.755 -1.0729 -0.5281 -3.5659
33077SOL    HW210956   0.876   5.313   9.780  0.0667 -0.1623  0.9836
33078SOL     OW10957   4.721   5.549  10.276 -0.1707  0.0154  0.3282
33078SOL    HW110958   4.783   5.621  10.287 -0.9134  0.5812  0.9515
33078SOL    HW210959   4.654   5.565  10.342 -0.5043 -1.0967  0.2804
33079SOL     OW10960  10.730   3.094   9.152 -0.2318 -0.1918  0.2083
33079SOL    HW110961  10.772   3.064   9.232  0.5230 -1.2629 -0.5488
33079SOL    HW210962  10.654   3.037   9.143 -0.2370 -0.1677  0.0969
33080SOL     OW10963   3.273   6.578  11.673  0.1152  0.3623 -0.4600
33080SOL    HW110964   3.195   6.554  11.724 -0.8917 -0.6650 -2.3516
33080SOL    HW210965   3.252   6.550  11.584  2.2532  1.0380 -1.2302
33081SOL     OW10966   8.005   1.049   2.631 -0.2547  0.0907  0.0729
33081SOL    HW110967   8.034   0.976   2.576 -1.3948  0.7945 -1.5420
33081SOL    HW210968   7.960   1.007   2.705 -1.5923 -0.8728 -1.2310
33082SOL     OW10969   8.603   4.598   4.834 -0.2693 -0.6172 -0.0730
33082SOL    HW110970   8.575   4.689   4.844  0.9750 -0.4670  3.7433
33082SOL    HW210971   8.674   4.601   4.770 -0.8862  0.8925 -0.7298
33083SOL     OW10972   5.877   8.459   8.120  0.0740  0.1569  0.4066
33083SOL    HW110973   5.835   8.498   8.043  0.9752  1.8268  0.7279
33083SOL    HW210974   5.971   8.458   8.098  0.3771  0.9489  1.5800
33084SOL     OW10975   3.662  10.117  11.626 -0.2848 -0.2712 -0.0959
33084SOL    HW110976   3.757  10.121  11.640 -0.3809  0.5583  0.3510
33084SOL    HW210977   3.650  10.148  11.536 -0.2713  1.3973  0.4489
33085SOL     OW10978   5.134   1.467   2.665 -0.1207 -0.2125  0.2781
33085SOL    HW110979   5.049   1.478   2.709  0.8786 -0.7787  2.4820
33085SOL    HW210980   5.194   1.522   2.715  1.1463 -1.1805 -0.1437
33086SOL     OW10981  11.585   4.736  10.337 -0.6621 -0.0741 -0.7551
33086SOL    HW110982  11.543   4.803  10.390  0.5306  2.1810 -2.4493
33086SOL    HW210983  11.527   4.661  10.341 -2.1050  1.0713  1.2159
33087SOL     OW10984   4.134   2.350  11.827 -0.4417 -0.8863  0.0746
33087SOL    HW110985   4.049   2.381  11.799 -0.1248  0.2506  0.3396
33087SOL    HW210986   4.160   2.410  11.897  0.6677 -1.0796 -0.1484
33088SOL     OW10987   7.821   2.824   7.376 -0.1499 -0.0446 -0.0169
33088SOL    HW110988   7.867   2.824   7.292  0.0294  1.0335  0.0714
33088SOL    HW210989   7.891   2.832   7.442 -0.1714 -2.1720  0.3362
33089SOL     OW10990   5.004   6.361   0.452 -0.2523 -0.0404  0.5315
33089SOL    HW110991   4.919   6.378   0.412 -0.6118 -1.4327  0.6560
33089SOL    HW210992   4.984   6.333   0.541  0.4168  0.8729  0.9761
33090SOL     OW10993   1.854   0.797   8.150  0.1089  0.5131 -0.0528
33090SOL    HW110994   1.873   0.858   8.222 -0.7186  0.9944 -0.2291
33090SOL    HW210995   1.797   0.730   8.189  1.8838 -0.7953  0.4164
33091SOL     OW10996   5.360   4.567   5.019  0.4981  0.4991 -0.1608
33091SOL    HW110997   5.266   4.577   5.004  0.3632  0.2041  0.4871
33091SOL    HW210998   5.367   4.509   5.095  1.2186 -0.3032 -0.8186
33092SOL     OW10999   9.661   3.347   7.087 -0.2098  0.0141  0.5309
33092SOL    HW111000   9.595   3.278   7.085  0.6040 -0.7897 -0.6797
33092SOL    HW211001   9.745   3.299   7.086  0.3904  0.9599 -1.4981
33093SOL     OW11002  10.599   4.693   7.344  0.0450 -0.1339 -0.3519
33093SOL    HW111003  10.597   4.694   7.248 -0.2968 -0.6581 -0.3591
33093SOL    HW211004  10.688   4.718   7.367  1.0804 -2.9596 -0.8951
33094SOL     OW11005   4.316   1.361   3.010 -0.1273 -0.2791  0.0276
33094SOL    HW111006   4.397   1.363   3.062  0.2774 -1.1438 -0.5337
33094SOL    HW211007   4.280   1.274   3.026  0.3989 -0.8547 -1.6866
33095SOL     OW11008   1.648   7.783   3.569 -0.3201  0.0439 -0.1356
33095SOL    HW111009   1.674   7.691   3.580  0.8664  0.5235  1.5641
33095SOL    HW211010   1.620   7.790   3.478 -1.0916 -2.1516 -0.1199
33096SOL     OW11011  10.236   9.711   8.065 -0.5729  0.5551  0.0139
33096SOL    HW111012  10.166   9.755   8.018 -1.2026 -0.4229  0.0173
33096SOL    HW211013  10.246   9.762   8.146 -1.1576  0.8014 -0.0636
33097SOL     OW11014   7.370   1.041   9.163 -0.1772  0.2335  0.0536
33097SOL    HW111015   7.351   1.041   9.069 -2.8598  1.8355  0.5096
33097SOL    HW211016   7.367   1.133   9.188 -0.6301 -0.2605  1.9220
33098SOL     OW11017   8.593   3.366   5.299  0.4869 -0.1647 -0.2026
33098SOL    HW111018   8.526   3.429   5.271 -1.2253 -1.6415  0.3314
33098SOL    HW211019   8.631   3.405   5.378  0.3278  0.7537 -0.5723
33099SOL     OW11020   2.048   8.358  10.659 -0.2951  0.4000 -0.3984
33099SOL    HW111021   1.990   8.282  10.664  0.5330 -0.2230  0.1989
33099SOL    HW211022   1.999   8.423  10.610 -1.7886  0.1604  0.6950
33100SOL     OW11023   5.368  10.231   5.868 -0.1616 -0.0762 -0.3308
33100SOL    HW111024   5.345  10.145   5.834 -2.5330  1.6694 -3.7159
33100SOL    HW211025   5.302  10.249   5.935 -1.4272  0.1700 -1.6084
33101SOL     OW11026   3.260   1.763   2.754 -0.3476  0.6720  0.1473
33101SOL    HW111027   3.322   1.781   2.825 -2.1707  1.0029  1.7772
33101SOL    HW211028   3.263   1.669   2.742 -0.9768  0.4181  1.6937
33102SOL     OW11029   1.495   3.607  10.325 -0.0369  0.0754 -0.5884
33102SOL    HW111030   1.535   3.580  10.242  0.4801 -0.4420 -0.1748
33102SOL    HW211031   1.407   3.636  10.300 -0.0322 -0.4618 -1.2679
33103SOL     OW11032   6.524   5.571   1.003  0.1059 -0.6103 -0.3074
33103SOL    HW111033   6.517   5.587   0.909  0.5373 -4.0303 -1.0577
33103SOL    HW211034   6.443   5.523   1.025  0.7315 -1.2535  0.6762
33104SOL     OW11035   1.671   4.249   1.279 -0.2598  0.1255  0.1297
33104SOL    HW111036   1.714   4.287   1.202  0.4121  0.0658  0.4762
33104SOL    HW211037   1.739   4.245   1.345  0.0080 -2.7690 -0.2278
33105SOL     OW11038   0.698   2.999   0.665  0.0400  0.1234  0.1801
33105SOL    HW111039   0.788   2.979   0.640  0.4180 -0.0844  1.5993
33105SOL    HW211040   0.650   3.002   0.582  0.9668 -1.6580 -0.4878
33106SOL     OW11041  11.899   9.031   6.047 -0.6279 -0.2201 -0.0735
33106SOL    HW111042  11.991   9.004   6.048 -0.9177 -1.2469  1.1635
33106SOL    HW211043  11.895   9.103   6.111 -0.5324  0.4465 -0.7970
33107SOL     OW11044  10.373   8.012   4.755 -0.1674  0.0658 -0.1164
33107SOL    HW111045  10.422   7.984   4.833  0.0081 -0.5026 -0.4209
33107SOL    HW211046  10.352   8.103   4.771  0.7399  0.2382  0.1626
33108SOL     OW11047   7.960   7.809   5.432  0.8002  0.8312  0.0210
33108SOL    HW111048   7.925   7.849   5.512  3.9256  0.9362  1.4793
33108SOL    HW211049   7.934   7.717   5.438  2.9444  0.2536  2.5288
33109SOL     OW11050   3.787   7.818   5.839  0.0310  0.0103 -0.1859
33109SOL    HW111051   3.776   7.855   5.752 -0.6903 -0.5075 -0.3256
33109SOL    HW211052   3.709   7.764   5.852  1.3151 -1.9863 -0.2683
33110SOL     OW11053   9.641   3.451   7.948  0.3517  0.2158  0.2231
33110SOL    HW111054   9.720   3.403   7.975  1.0605  1.2307  0.0388
33110SOL    HW211055   9.613   3.497   8.028 -0.5047 -0.7315  0.4794
33111SOL     OW11056   6.883   6.103   7.095  0.4660  0.1757 -0.3212
33111SOL    HW111057   6.862   6.196   7.080 -1.0297 -0.0432  0.2457
33111SOL    HW211058   6.798   6.059   7.091  1.3117 -1.3969 -2.0403
33112SOL     OW11059   5.638  11.243   8.990  0.4302 -0.5899  0.8851
33112SOL    HW111060   5.595  11.326   9.009 -1.0062 -0.5793 -1.8248
33112SOL    HW211061   5.729  11.266   8.970  0.5143  0.0520  1.9465
33113SOL     OW11062   5.518   2.819   3.130  0.0200 -1.0523  0.6532
33113SOL    HW111063   5.540   2.732   3.163  0.1864 -1.7857 -1.2758
33113SOL    HW211064   5.461   2.856   3.197 -0.1373 -2.6771  1.4652
33114SOL     OW11065   4.932   0.512   5.794 -0.4872 -0.1715 -0.1513
33114SOL    HW111066   4.896   0.517   5.883 -1.1953 -1.4341 -0.3318
33114SOL    HW211067   4.863   0.548   5.738 -0.9796 -1.3987 -0.3740
33115SOL     OW11068   5.957   3.341   7.334 -0.2492 -0.5709  0.3363
33115SOL    HW111069   5.939   3.401   7.261  1.5721 -1.4148 -0.8828
33115SOL    HW211070   6.029   3.383   7.382  1.0124 -1.7090 -0.5030
33116SOL     OW11071   8.932  11.493   3.621 -0.0296  0.4978  0.1871
33116SOL    HW111072   8.946  11.436   3.697  3.1605  0.5705 -0.1964
33116SOL    HW211073   8.937  11.582   3.656  0.3777  0.5312  0.0444
33117SOL     OW11074   9.250   9.594  11.816  0.0854 -0.0862  0.2289
33117SOL    HW111075   9.319   9.650  11.854  1.0357  0.2840 -1.8998
33117SOL    HW211076   9.209   9.649  11.750  0.6811 -1.6967 -1.5516
33118SOL     OW11077  11.958   6.010  11.757  0.5437  0.0898  0.2574
33118SOL    HW111078  12.030   5.953  11.731  1.2987  0.5814  1.1989
33118SOL    HW211079  11.953   6.077  11.688  1.1267  0.1715  0.2955
33119SOL     OW11080   8.287   5.213   8.686 -0.0763  0.4847  0.0586
33119SOL    HW111081   8.352   5.157   8.642 -0.4166  0.0264  0.1266
33119SOL    HW211082   8.205   5.166   8.676  0.0915 -0.5302  2.6772
33120SOL     OW11083   7.977  11.295   7.670  0.3940  0.4812  0.8104
33120SOL    HW111084   7.996  11.358   7.601  0.6398  0.0851  0.5184
33120SOL    HW211085   7.956  11.350   7.746 -0.1475  0.9166  0.3569
33121SOL     OW11086  11.278   4.517   5.064  0.8573  0.3669  0.0137
33121SOL    HW111087  11.243   4.483   5.147  1.0562 -0.9004 -0.4090
33121SOL    HW211088  11.373   4.502   5.070  0.7121 -1.3080 -1.1082
33122SOL     OW11089   8.991   9.740   7.723 -0.3995 -0.1943 -0.0122
33122SOL    HW111090   9.031   9.801   7.662 -0.7354  0.2124  0.1717
33122SOL    HW211091   8.998   9.781   7.809 -3.0514  0.9109 -0.2133
33123SOL     OW11092   7.731   0.790   2.603 -0.5075 -0.0356  0.1260
33123SOL    HW111093   7.738   0.704   2.564  1.0000  0.1243  0.0014
33123SOL    HW211094   7.653   0.828   2.564  2.0240  1.0068 -4.5637
33124SOL     OW11095  10.502   7.971  10.292  0.9046  0.0501 -0.5864
33124SOL    HW111096  10.477   8.061  10.271 -0.3871  0.0369  0.6935
33124SOL    HW211097  10.582   7.956  10.242  0.3109  1.3786 -2.0359
33125SOL     OW11098   4.490   4.930   1.742  0.0309 -0.0535 -0.3350
33125SOL    HW111099   4.424   4.862   1.760 -0.7866  0.5990 -0.8402
33125SOL    HW211100   4.573   4.881   1.737 -0.4371 -0.9197  0.0385
33126SOL     OW11101   7.983   9.539   9.698 -0.2378 -0.5093  0.0767
33126SOL    HW111102   8.012   9.463   9.747 -1.8759 -0.9793  0.3912
33126SOL    HW211103   7.904   9.509   9.652 -1.7120  1.3218  1.2663
33127SOL     OW11104   0.863   3.485   8.976  0.0246  0.6147  0.1928
33127SOL    HW111105   0.779   3.500   9.020  1.1659  2.7207  1.8639
33127SOL    HW211106   0.849   3.515   8.886 -1.1183  0.5730  0.3494
33128SOL     OW11107   8.994   9.202   5.988  0.0018  0.0872 -0.3263
33128SOL    HW111108   9.072   9.148   5.970  0.1923  0.5033 -0.7736
33128SOL    HW211109   9.029   9.287   6.015 -0.2917  0.4893 -1.1822
33129SOL     OW11110   9.997   4.129   2.389 -0.2273  0.0742 -0.0898
33129SOL    HW111111  10.089   4.112   2.407  0.2173  1.7102 -0.6685
33129SOL    HW211112   9.969   4.055   2.335  0.6478 -0.6135  0.3787
33130SOL     OW11113   7.367   6.507   2.958 -0.3718  0.0219 -0.8347
33130SOL    HW111114   7.441   6.540   2.906 -1.2659  0.8791 -1.5916
33130SOL    HW211115   7.322   6.586   2.989 -0.4882 -0.4860  0.3507
33131SOL     OW11116   5.661  10.565   5.549 -0.3069  0.7539 -0.1593
33131SOL    HW111117   5.713  10.487   5.532 -0.9671  0.4221 -0.7052
33131SOL    HW211118   5.595  10.537   5.613  1.5761  1.7551  2.4060
33132SOL     OW11119   6.311   4.830   9.263  0.3707  0.1465  0.1082
33132SOL    HW111120   6.215   4.829   9.259  0.2367  1.7684  1.5975
33132SOL    HW211121   6.334   4.749   9.309 -0.3892  0.3926  0.9469
33133SOL     OW11122   5.776  11.398   2.048 -0.1081  0.0373 -0.6019
33133SOL    HW111123   5.712  11.439   1.990 -2.1703 -0.1454  1.4072
33133SOL    HW211124   5.724  11.347   2.109  1.8737  0.6416  1.7592
33134SOL     OW11125   5.661   3.554  10.006  0.2463 -0.3352  0.1422
33134SOL    HW111126   5.682   3.641  10.039  1.8333 -1.1693  1.5023
33134SOL    HW211127   5.737   3.530   9.952 -1.0913 -0.1060 -1.9625
33135SOL     OW11128   3.964   8.666   3.959  1.0291  1.2360  0.6514
33135SOL    HW111129   4.020   8.721   4.014  2.1575  1.1769 -0.3922
33135SOL    HW211130   3.977   8.699   3.870  2.8258 -1.4790 -0.2198
33136SOL     OW11131   8.768  10.734   5.357 -0.3404 -0.2255  0.0631
33136SOL    HW111132   8.813  10.658   5.322 -0.1768 -1.0535  1.9271
33136SOL    HW211133   8.818  10.757   5.436 -0.9861  1.1784  0.0918
33137SOL     OW11134  11.443   6.884   8.482  0.0514  0.0706  0.3361
33137SOL    HW111135  11.400   6.829   8.416  1.1057 -0.8312  0.3756
33137SOL    HW211136  11.435   6.835   8.563  1.5400 -0.3396  0.2567
33138SOL     OW11137   5.992   4.719  11.680  0.4023  0.4402  0.2930
33138SOL    HW111138   6.062   4.756  11.734  0.3660  0.3312  0.4172
33138SOL    HW211139   5.961   4.643  11.730  0.2328  0.4556  0.2140
33139SOL     OW11140   7.895   4.274   4.860  0.6663 -0.5475 -0.6703
33139SOL    HW111141   7.972   4.221   4.842 -0.4009 -2.7719  0.8379
33139SOL    HW211142   7.821   4.218   4.837 -0.5222  0.2084  1.0943
33140SOL     OW11143  10.221   5.472   3.008 -0.4227 -0.0833  0.3678
33140SOL    HW111144  10.177   5.487   3.092  2.9570  0.9711  2.1241
33140SOL    HW211145  10.254   5.383   3.013 -1.2578 -0.4584 -0.4406
33141SOL     OW11146   8.840   4.071   2.196  0.6163 -0.2697  0.0077
33141SOL    HW111147   8.876   3.999   2.145 -1.3941 -2.0682  0.9646
33141SOL    HW211148   8.784   4.029   2.262  0.6487  2.0898  1.6955
33142SOL     OW11149   0.926   7.844   4.919 -0.7287  0.6681  0.0696
33142SOL    HW111150   1.021   7.843   4.925 -0.7307  1.9445  0.5181
33142SOL    HW211151   0.906   7.793   4.839  0.2319 -0.7705  0.7074
33143SOL     OW11152   6.723   4.616   2.108  0.6710  0.0999  0.2785
33143SOL    HW111153   6.819   4.610   2.101  0.6308  0.5056 -0.7599
33143SOL    HW211154   6.701   4.699   2.066 -0.2513 -0.6491 -0.7823
33144SOL     OW11155  10.573   7.494  10.517 -0.3468 -0.5296  0.1457
33144SOL    HW111156  10.595   7.503  10.424  0.8629 -2.0950  0.2485
33144SOL    HW211157  10.609   7.573  10.557  2.0475 -1.3127 -0.2673
33145SOL     OW11158   7.305   1.554   5.610  0.1762  0.3711 -0.8049
33145SOL    HW111159   7.225   1.558   5.557 -1.6283 -0.1714  1.7025
33145SOL    HW211160   7.303   1.634   5.663  1.1270  0.1833 -0.4682
33146SOL     OW11161   0.157   0.635   9.149 -0.5898 -0.2830 -0.1105
33146SOL    HW111162   0.207   0.594   9.079  1.5074  0.6744  0.7583
33146SOL    HW211163   0.108   0.705   9.107 -1.7356 -1.5976 -1.0673
33147SOL     OW11164   8.716   9.756  11.368 -0.1229  0.3587  0.8912
33147SOL    HW111165   8.734   9.752  11.274 -0.6389 -0.6402  0.8188
33147SOL    HW211166   8.648   9.823  11.377  0.2876  0.8135  0.6147
33148SOL     OW11167   1.447   4.211  11.516  0.0620 -0.2315 -0.6647
33148SOL    HW111168   1.355   4.195  11.498  0.4967 -0.3192 -3.1608
33148SOL    HW211169   1.481   4.127  11.546 -0.7420 -0.0528  0.8576
33149SOL     OW11170   7.613   6.391   4.328  0.2783  0.1865 -0.1901
33149SOL    HW111171   7.540   6.336   4.298 -0.0069 -0.0496  0.9205
33149SOL    HW211172   7.624   6.455   4.258  0.1429 -0.8240 -1.1756
33150SOL     OW11173   2.990   2.003   0.559  0.3029  0.0272 -0.3466
33150SOL    HW111174   2.985   1.928   0.618  0.3097 -0.5741 -1.0869
33150SOL    HW211175   2.901   2.014   0.526  0.1622  0.7660  0.2507
33151SOL     OW11176   2.017   8.596   0.184  0.1878 -0.2931  0.6369
33151SOL    HW111177   2.043   8.575   0.095  0.4468 -2.5393  1.1786
33151SOL    HW211178   2.093   8.638   0.223 -0.2980  1.7527 -0.4609
33152SOL     OW11179   2.120   4.826   2.689 -0.7057  0.0904  0.3563
33152SOL    HW111180   2.043   4.812   2.744 -0.3974  0.1723  0.8159
33152SOL    HW211181   2.088   4.814   2.599 -1.5832  1.5976  0.4393
33153SOL     OW11182   5.823   1.816   6.035  0.6481 -0.0046  0.3934
33153SOL    HW111183   5.877   1.771   6.099  0.2535  0.6275  1.1927
33153SOL    HW211184   5.878   1.823   5.957  0.7359 -1.8076  0.2501
33154SOL     OW11185   6.699   8.409  11.914 -0.5792 -0.1887  0.5745
33154SOL    HW111186   6.752   8.340  11.874 -0.2407  0.4979 -0.1928
33154SOL    HW211187   6.676   8.375  12.000  1.2340 -0.4523  0.9833
33155SOL     OW11188   2.315  11.430   4.536 -0.0305  0.3568  0.1197
33155SOL    HW111189   2.277  11.387   4.612  1.1528  1.3813  1.3441
33155SOL    HW211190   2.392  11.378   4.515  0.3008  0.7270  0.3826
33156SOL     OW11191   8.430  11.536   5.209 -0.5430  0.0873  0.5381
33156SOL    HW111192   8.522  11.525   5.182 -1.0518 -1.3778 -0.7837
33156SOL    HW211193   8.381  11.533   5.127 -1.6963  2.4752  1.0783
33157SOL     OW11194   2.152   9.233   9.147 -0.3294 -0.5865 -0.0826
33157SOL    HW111195   2.198   9.275   9.075  2.3308 -0.6373  1.4656
33157SOL    HW211196   2.125   9.148   9.112 -0.0908 -0.1758 -1.3189
33158SOL     OW11197   4.717   2.047   2.355  0.0400 -0.4670 -0.5349
33158SOL    HW111198   4.702   1.954   2.337  0.2206 -0.2717 -1.7978
33158SOL    HW211199   4.708   2.089   2.270  0.9264  0.5529 -0.1366
33159SOL     OW11200   2.882   8.000   8.697 -0.1962 -0.8195  0.0002
33159SOL    HW111201   2.880   7.908   8.670 -0.5355 -1.3383  1.6557
33159SOL    HW211202   2.794   8.016   8.732  0.1092 -0.1084  0.4608
33160SOL     OW11203   6.758   4.339   5.717  0.4206  0.3325 -0.4728
33160SOL    HW111204   6.744   4.433   5.725 -0.0921  0.3911 -1.8657
33160SOL    HW211205   6.794   4.328   5.629 -1.7138 -0.9962 -1.2382
33161SOL     OW11206  11.362   0.371   5.318  0.8625  0.3983  0.0519
33161SOL    HW111207  11.357   0.465   5.336 -1.5603  0.7776 -2.0463
33161SOL    HW211208  11.387   0.366   5.225  0.5419 -1.0285  0.0324
33162SOL     OW11209   6.714   0.541   2.957  0.7722 -0.3075  0.0252
33162SOL    HW111210   6.750   0.562   3.043  1.1074 -0.4930 -0.0684
33162SOL    HW211211   6.791   0.526   2.901  0.6059  1.1271 -0.6532
33163SOL     OW11212   9.164   2.114   1.405 -0.6220  0.4145 -0.3735
33163SOL    HW111213   9.187   2.183   1.341 -1.1782 -0.5715 -1.6888
33163SOL    HW211214   9.119   2.047   1.353 -1.3341 -0.3225  1.1218
33164SOL     OW11215   0.346   2.283   6.046  0.4797  0.3517 -0.0441
33164SOL    HW111216   0.407   2.325   6.106 -0.3195  3.2894 -1.0762
33164SOL    HW211217   0.378   2.193   6.037  3.5893  1.2604  0.7689
33165SOL     OW11218   7.016   6.046   6.316  0.5048 -0.3172  0.1460
33165SOL    HW111219   7.066   6.128   6.307 -0.2657  0.6583  3.4220
33165SOL    HW211220   7.001   6.038   6.410 -0.4155 -3.7122 -0.1847
33166SOL     OW11221   6.014  10.614   5.097  0.3737  0.1088 -0.5255
33166SOL    HW111222   5.967  10.692   5.069 -2.5089 -1.6780 -1.1126
33166SOL    HW211223   6.074  10.595   5.026 -0.2090  0.7971 -1.2246
33167SOL     OW11224   9.064   4.899   7.709  0.0209 -0.4375 -0.0331
33167SOL    HW111225   9.152   4.866   7.691 -0.4631 -0.1038 -3.6438
33167SOL    HW211226   9.006   4.828   7.679 -0.9415  0.3794 -0.1369
33168SOL     OW11227   9.522  11.674   0.954 -0.6900 -0.1753 -0.4137
33168SOL    HW111228   9.605  11.645   0.991 -0.9395  0.5852  0.7729
33168SOL    HW211229   9.522  11.769   0.966 -2.7642 -0.3745  1.8279
33169SOL     OW11230   5.189   5.840   9.942  0.2267 -0.8375  0.0330
33169SOL    HW111231   5.235   5.799   9.869 -0.5924 -1.0597 -0.3660
33169SOL    HW211232   5.187   5.773  10.010 -1.8091 -1.8152 -0.8972
33170SOL     OW11233   8.129   3.903   7.010  0.2084  0.1397 -0.1275
33170SOL    HW111234   8.168   3.886   6.924  0.8082  1.3824 -0.1286
33170SOL    HW211235   8.082   3.986   6.999 -0.3516 -0.0806  0.5457
33171SOL     OW11236   7.533  10.452   5.689  0.2353  0.7949  0.0435
33171SOL    HW111237   7.579  10.369   5.684 -1.0171  0.1446 -1.8287
33171SOL    HW211238   7.441  10.429   5.675 -0.1527  2.4855 -0.4258
33172SOL     OW11239   5.319   1.895   8.292 -0.2994 -0.0609 -0.7546
33172SOL    HW111240   5.384   1.828   8.312 -0.9530 -0.0432  1.6927
33172SOL    HW211241   5.347   1.931   8.208  0.5694 -2.7436 -1.7113
33173SOL     OW11242   5.897   8.599  11.878  0.2655 -0.1155 -0.7714
33173SOL    HW111243   5.952   8.639  11.810 -0.6035  0.7443 -0.9795
33173SOL    HW211244   5.944   8.615  11.959  0.6112  0.0938 -1.0091
33174SOL     OW11245   0.529   0.644  11.013 -0.2624 -0.3553  0.3761
33174SOL    HW111246   0.543   0.621  11.105 -1.7343  0.6906  0.8969
33174SOL    HW211247   0.471   0.720  11.016  0.4090  0.2582 -1.4119
33175SOL     OW11248   2.386   0.820   4.478  0.7760  0.0359 -0.2068
33175SOL    HW111249   2.364   0.752   4.542 -1.9930  0.9175 -0.0931
33175SOL    HW211250   2.386   0.775   4.394  2.3929 -0.7253  0.1641
33176SOL     OW11251   8.892  11.000   4.009 -0.2806 -0.0954  0.5366
33176SOL    HW111252   8.891  10.919   3.958  0.2994  0.1493  0.1302
33176SOL    HW211253   8.807  11.041   3.989  0.3187  0.4831 -1.0565
33177SOL     OW11254   7.855  10.295   3.363 -0.4224  0.2718 -0.1731
33177SOL    HW111255   7.780  10.308   3.304 -0.0256  1.6047 -0.3976
33177SOL    HW211256   7.870  10.380   3.404  0.4203 -0.1996  0.5461
33178SOL     OW11257   6.152   3.850   4.506 -0.0958 -0.2488  0.1242
33178SOL    HW111258   6.172   3.826   4.416 -1.7881 -1.0704 -0.0645
33178SOL    HW211259   6.137   3.766   4.551  0.3075  0.1683  1.0808
33179SOL     OW11260   6.608   9.203  11.248  0.3888 -0.3471 -0.6812
33179SOL    HW111261   6.663   9.128  11.226  1.8015  0.1963  0.8174
33179SOL    HW211262   6.667   9.278  11.245  0.1153  0.0944  2.1885
33180SOL     OW11263  11.283   5.129   6.486 -0.1063 -0.1707  0.6798
33180SOL    HW111264  11.318   5.106   6.400  0.1748 -0.3397  0.8375
33180SOL    HW211265  11.342   5.198   6.518 -0.1231 -0.2131  0.8009
33181SOL     OW11266   4.172  11.710   4.884  0.3432  0.3182  0.1323
33181SOL    HW111267   4.117  11.637   4.858  0.8563 -0.4845  1.2467
33181SOL    HW211268   4.248  11.670   4.926 -0.5549  1.4457  3.1877
33182SOL     OW11269  10.705  10.312   8.827 -0.2627 -0.1101  0.2828
33182SOL    HW111270  10.792  10.348   8.845  0.6105 -1.8093 -0.2705
33182SOL    HW211271  10.651  10.341   8.900  0.7698  0.9805  0.6466
33183SOL     OW11272   2.580   5.932   7.574  0.2441  0.3811 -1.1043
33183SOL    HW111273   2.545   6.015   7.541 -1.3748 -0.0096 -0.4613
33183SOL    HW211274   2.509   5.894   7.626  1.9042 -0.0735  1.0173
33184SOL     OW11275   3.319   6.022  11.614  0.5070 -0.1194 -0.1269
33184SOL    HW111276   3.252   6.087  11.591 -0.1331 -0.7261 -0.0079
33184SOL    HW211277   3.338   5.978  11.531  0.1696 -0.4832 -0.0150
33185SOL     OW11278   6.044   3.806   5.797  0.3985  0.2411 -0.3182
33185SOL    HW111279   5.949   3.804   5.811 -0.1035  0.9954 -2.9508
33185SOL    HW211280   6.076   3.723   5.831 -1.6079 -1.1311 -1.5740
33186SOL     OW11281   0.348  11.567   8.250  0.1892 -0.2022  0.6461
33186SOL    HW111282   0.396  11.600   8.326  0.2132 -1.5769  1.2663
33186SOL    HW211283   0.287  11.503   8.287  0.1510 -0.8480 -0.4840
33187SOL     OW11284   3.349   3.807   4.919  0.5866  0.5421 -0.4973
33187SOL    HW111285   3.286   3.866   4.961  0.2026 -0.7636  0.8341
33187SOL    HW211286   3.426   3.810   4.976  1.3091  1.2071 -1.4751
33188SOL     OW11287   9.726   4.835  10.190  0.3882 -0.0822  0.5945
33188SOL    HW111288   9.650   4.782  10.213 -0.5829  1.0331  0.0431
33188SOL    HW211289   9.757   4.870  10.274  1.2043 -1.6776  1.0022
33189SOL     OW11290   0.599   0.831   7.573  0.5874  0.4835 -0.2304
33189SOL    HW111291   0.534   0.902   7.568 -0.9832 -0.9110 -0.6888
33189SOL    HW211292   0.657   0.845   7.499  1.1396  2.0342  0.4563
33190SOL     OW11293   3.900   0.882   4.465  0.4910 -0.4242  0.0986
33190SOL    HW111294   3.941   0.874   4.551 -1.1549  1.7513  1.2019
33190SOL    HW211295   3.930   0.967   4.433 -0.5489 -0.2822 -0.5272
33191SOL     OW11296   7.340   2.569   9.239  0.0350  0.0557  0.1615
33191SOL    HW111297   7.339   2.473   9.238  1.8867 -0.0165  1.2640
33191SOL    HW211298   7.312   2.594   9.151 -0.3141 -1.4931 -0.2003
33192SOL     OW11299   5.117  11.540   4.203 -0.3358  0.3866 -0.1685
33192SOL    HW111300   5.141  11.539   4.296 -1.5529  0.8358  0.1729
33192SOL    HW211301   5.098  11.632   4.184  0.0751  0.3278 -0.9215
33193SOL     OW11302   8.520   1.470   3.863 -0.2332 -0.3348 -0.1588
33193SOL    HW111303   8.615   1.467   3.853  0.1752  1.3960  2.2314
33193SOL    HW211304   8.493   1.378   3.862  1.1094 -0.7928 -3.0352
33194SOL     OW11305   3.957   7.280   8.971  0.6439 -0.1464 -0.3627
33194SOL    HW111306   3.985   7.193   8.999 -1.4506 -1.4170 -1.9654
33194SOL    HW211307   4.006   7.296   8.890 -0.9844 -1.1353 -1.6096
33195SOL     OW11308   3.004   3.019   7.398 -0.3761 -0.1828 -0.6636
33195SOL    HW111309   3.004   3.086   7.330  0.7943  0.3917 -0.1335
33195SOL    HW211310   2.917   3.024   7.436  0.0413  1.9273  0.1766
33196SOL     OW11311   5.109   2.261   2.343 -0.0658  0.1132 -0.2250
33196SOL    HW111312   5.049   2.309   2.286 -1.2012 -1.8898 -0.8237
33196SOL    HW211313   5.139   2.187   2.290  2.1960  0.4938  0.4083
33197SOL     OW11314   8.495   7.657   4.666 -0.0610 -0.3785 -0.2544
33197SOL    HW111315   8.535   7.596   4.727 -0.9104 -1.4970 -0.7906
33197SOL    HW211316   8.406   7.671   4.700 -1.3471 -2.7681 -2.3558
33198SOL     OW11317   9.338   7.116   7.014  0.3679 -0.4849 -0.3083
33198SOL    HW111318   9.247   7.136   6.992  1.1232  1.4461 -1.9974
33198SOL    HW211319   9.347   7.023   6.994 -1.1009 -0.5838 -0.6235
33199SOL     OW11320   6.165   6.298   3.949  0.0486  1.0137 -0.2509
33199SOL    HW111321   6.090   6.349   3.917 -1.2251 -0.6905 -0.1344
33199SOL    HW211322   6.127   6.237   4.012  1.0555 -1.7128 -2.1172
33200SOL     OW11323   1.828   8.550   7.535 -0.3981 -0.2914  0.3929
33200SOL    HW111324   1.803   8.499   7.612  1.2674 -1.6845  0.0745
33200SOL    HW211325   1.920   8.528   7.521 -0.7467 -0.3749 -2.2198
33201SOL     OW11326   3.494   5.489  11.662  0.1561 -0.1413 -0.2855
33201SOL    HW111327   3.446   5.423  11.712 -0.8874  1.6189  1.1518
33201SOL    HW211328   3.431   5.559  11.646  1.4871  0.9950 -0.8461
33202SOL     OW11329   7.440   6.099   3.155  0.1926 -0.0595  0.3680
33202SOL    HW111330   7.385   6.173   3.182  0.9016  0.2478  1.0131
33202SOL    HW211331   7.410   6.078   3.066 -1.1267 -0.0628  0.7917
33203SOL     OW11332   0.990   4.015   0.834  0.4752 -0.1415  0.5283
33203SOL    HW111333   1.042   3.982   0.761 -1.1226 -1.6106 -0.0280
33203SOL    HW211334   0.938   4.086   0.797 -1.0778 -1.5379 -0.1102
33204SOL     OW11335   1.055   6.021   2.983  0.2633  0.0427  0.2015
33204SOL    HW111336   1.141   6.060   2.964  0.3001  0.0157  0.3122
33204SOL    HW211337   0.994   6.068   2.925  0.5758 -0.9945 -1.0293
33205SOL     OW11338   0.449  11.886   2.214  0.0614 -0.2968  0.9954
33205SOL    HW111339   0.475  11.922   2.299 -1.5849 -2.0154  2.3178
33205SOL    HW211340   0.491  11.800   2.211 -0.0726 -0.3389  0.1702
33206SOL     OW11341   9.311  11.455   8.085 -0.5990 -0.3395  0.4018
33206SOL    HW111342   9.293  11.478   8.176 -0.6175 -0.3701  0.4061
33206SOL    HW211343   9.401  11.423   8.085 -0.4221  0.1471  0.3244
33207SOL     OW11344   5.734   1.873   0.432  0.2447 -0.3730  0.0007
33207SOL    HW111345   5.717   1.868   0.337  0.7974  0.5062 -0.1591
33207SOL    HW211346   5.665   1.930   0.465  0.7792  0.3422 -0.0863
33208SOL     OW11347   7.665   3.592  10.517  0.2494  0.0732 -0.3862
33208SOL    HW111348   7.676   3.593  10.422 -3.7040  1.5253 -1.0055
33208SOL    HW211349   7.607   3.518  10.533 -0.4180  0.8046  0.6937
33209SOL     OW11350   8.781   9.468   8.921 -0.0139 -0.0031  0.3052
33209SOL    HW111351   8.808   9.483   9.011  0.2418 -0.5512  0.3198
33209SOL    HW211352   8.807   9.547   8.874 -0.2952  0.3505  0.7451
33210SOL     OW11353   7.993   7.329   8.163 -0.5258 -0.2142  0.3779
33210SOL    HW111354   8.016   7.293   8.248  0.0543  0.0908  0.3506
33210SOL    HW211355   8.038   7.413   8.159  1.3206 -1.2169 -1.1597
33211SOL     OW11356   8.722   4.989   4.646  0.7681 -0.4078 -0.0853
33211SOL    HW111357   8.678   4.985   4.731  0.9003  1.9493  0.1728
33211SOL    HW211358   8.652   4.984   4.581  0.7216 -3.0475  0.0415
33212SOL     OW11359   1.073   1.565   4.201  0.1545 -0.0651  0.2880
33212SOL    HW111360   1.068   1.517   4.119 -0.1423 -0.6695  0.6524
33212SOL    HW211361   0.999   1.626   4.198 -0.5628 -0.8924  0.6003
33213SOL     OW11362   5.582   2.498   2.663 -0.2616  0.0379 -0.2912
33213SOL    HW111363   5.583   2.592   2.680  0.5565  0.2379 -1.3352
33213SOL    HW211364   5.664   2.481   2.616  0.0566 -1.3637  0.7078
33214SOL     OW11365   6.493   5.765   3.069  0.3756 -0.0494  0.2153
33214SOL    HW111366   6.516   5.672   3.080 -0.7858 -0.2956  0.7385
33214SOL    HW211367   6.423   5.764   3.003 -0.1568  0.3858  0.7715
33215SOL     OW11368  10.745   8.284   9.138 -0.1809  0.2372 -0.0631
33215SOL    HW111369  10.805   8.275   9.065  0.9169  0.5088  0.7869
33215SOL    HW211370  10.778   8.225   9.205  0.3326  1.8181  1.1553
33216SOL     OW11371   2.728   8.731   9.580 -0.0162 -0.0557  0.0028
33216SOL    HW111372   2.736   8.654   9.636  1.5770  0.0042 -0.0885
33216SOL    HW211373   2.817   8.767   9.575 -0.2483  0.4039 -1.9002
33217SOL     OW11374   1.071   1.464  10.276 -0.1224  0.6671 -0.1700
33217SOL    HW111375   1.162   1.444  10.300 -0.6564 -1.2485  0.4584
33217SOL    HW211376   1.020   1.397  10.320 -2.0981  3.0118  1.3242
33218SOL     OW11377   1.009   6.332  10.978 -0.2996 -0.1809  0.1627
33218SOL    HW111378   1.053   6.351  11.061 -0.2789  0.9085 -0.0850
33218SOL    HW211379   1.080   6.330  10.914 -0.3962 -0.2945  0.0591
33219SOL     OW11380  10.778   6.192   3.135 -0.3021 -0.0297  0.1680
33219SOL    HW111381  10.839   6.264   3.121 -0.4734 -0.4040 -3.3063
33219SOL    HW211382  10.695   6.223   3.097 -0.7755 -1.4959 -0.0615
33220SOL     OW11383   8.081   9.869   1.978 -0.1310  0.1631  0.2147
33220SOL    HW111384   8.146   9.886   1.909  0.1576 -0.9333  0.1922
33220SOL    HW211385   8.027   9.947   1.980  0.0491  0.3391 -1.0493
33221SOL     OW11386   4.883   2.360   7.161  0.2593  0.1661  0.1651
33221SOL    HW111387   4.878   2.366   7.257  2.2824 -2.1081  0.5003
33221SOL    HW211388   4.884   2.451   7.132 -0.4373  0.9155  2.2778
33222SOL     OW11389   7.302   6.385   6.554  0.6560 -0.1150  0.3842
33222SOL    HW111390   7.290   6.480   6.565  0.8890  0.4510 -3.0037
33222SOL    HW211391   7.397   6.372   6.563  0.7504  0.1805 -0.1040
33223SOL     OW11392   2.399   2.159   7.732 -0.1428  0.2422  0.0027
33223SOL    HW111393   2.410   2.150   7.637  1.4949 -0.1162  0.1821
33223SOL    HW211394   2.386   2.252   7.746  0.3350  0.4011 -0.5325
33224SOL     OW11395   1.437   0.309   6.635  0.3013 -0.4965 -0.6003
33224SOL    HW111396   1.425   0.388   6.688 -0.4304 -0.0444 -1.4312
33224SOL    HW211397   1.348   0.279   6.616  0.5713 -1.1220 -0.8885
33225SOL     OW11398  10.995  10.609  10.761 -0.0497 -0.4880 -0.1307
33225SOL    HW111399  10.997  10.571  10.848  0.0667  0.6782  0.3912
33225SOL    HW211400  10.906  10.593  10.729  0.1054 -1.5022 -0.0770
33226SOL     OW11401   2.535   5.302   6.999 -0.4702 -0.1013 -0.4282
33226SOL    HW111402   2.478   5.231   6.968  0.1066 -0.9687  0.4263
33226SOL    HW211403   2.620   5.283   6.960  0.1929 -1.0455  1.3695
33227SOL     OW11404   2.250   1.654   2.614 -0.4959  0.1048 -0.4025
33227SOL    HW111405   2.290   1.708   2.546  0.1577 -0.7541 -0.7286
33227SOL    HW211406   2.164   1.692   2.629 -0.3179  0.8023 -1.1166
33228SOL     OW11407   0.037   1.058   7.239 -0.1421  0.3454 -0.6092
33228SOL    HW111408   0.046   1.039   7.146  0.6096 -1.0481 -0.2640
33228SOL    HW211409   0.126   1.063   7.272 -0.4056 -0.5662  0.2964
33229SOL     OW11410   0.191   8.035   9.593  0.2489  0.9268  0.0021
33229SOL    HW111411   0.283   8.060   9.592  0.1694  1.3622  1.4613
33229SOL    HW211412   0.192   7.941   9.612  0.3953  0.8627 -0.3167
33230SOL     OW11413   5.627   5.721   8.352 -0.3162  0.2928 -0.0355
33230SOL    HW111414   5.566   5.673   8.409 -1.1374 -0.3059 -1.3638
33230SOL    HW211415   5.649   5.659   8.282  0.4323  1.0975 -0.5416
33231SOL     OW11416   7.605   1.981   8.349  0.6986  0.0313 -0.0115
33231SOL    HW111417   7.549   1.936   8.287  0.8795  0.9026 -0.8367
33231SOL    HW211418   7.545   2.013   8.416  0.3182  0.2039 -0.4258
33232SOL     OW11419   7.564   9.187   8.841  0.6003  0.5252 -0.8468
33232SOL    HW111420   7.573   9.269   8.891  0.4223 -0.4160  0.7780
33232SOL    HW211421   7.560   9.119   8.907 -2.5245 -0.5714 -2.0152
33233SOL     OW11422   6.087   1.904   1.508  0.1675 -0.3043 -0.4078
33233SOL    HW111423   6.047   1.818   1.524 -1.3969  0.5393  0.4553
33233SOL    HW211424   6.028   1.966   1.550  1.2477  1.2188 -1.0477
33234SOL     OW11425  10.156  11.648   5.818 -0.5367 -0.0634  0.3235
33234SOL    HW111426  10.238  11.606   5.842 -0.2816  1.1231  1.6442
33234SOL    HW211427  10.095  11.576   5.803  0.2180 -0.9194  1.2954
33235SOL     OW11428  10.716   9.254   5.135 -0.1529 -0.0970 -0.3643
33235SOL    HW111429  10.697   9.262   5.228  1.1428 -0.4537 -0.0534
33235SOL    HW211430  10.645   9.201   5.100  0.4258 -1.7197  0.8124
33236SOL     OW11431   8.934   0.128   4.242 -0.2537 -0.5128  0.0610
33236SOL    HW111432   8.982   0.152   4.321 -1.3404  0.6049  0.4121
33236SOL    HW211433   8.850   0.094   4.274 -0.6066 -0.2795 -0.5958
33237SOL     OW11434   3.068   3.606   8.349 -0.2085  0.2432 -0.6387
33237SOL    HW111435   3.001   3.561   8.298 -1.5125 -0.3053  1.4356
33237SOL    HW211436   3.076   3.555   8.429  2.6905  0.3297 -0.7533
33238SOL     OW11437   3.582   4.647   1.776 -0.6687 -0.1919 -0.5924
33238SOL    HW111438   3.638   4.573   1.752  1.8402  1.2659  0.5003
33238SOL    HW211439   3.549   4.625   1.863  0.2527  0.0361 -0.1738
33239SOL     OW11440   3.179   5.106   4.930  0.1444 -0.5687  0.4552
33239SOL    HW111441   3.251   5.169   4.929 -0.0786 -0.2241  2.4068
33239SOL    HW211442   3.223   5.021   4.938  0.3699 -0.4449  0.5623
33240SOL     OW11443   4.881   9.205   1.302  0.8010 -0.9967 -0.6660
33240SOL    HW111444   4.924   9.164   1.227 -0.2594 -2.2802 -0.6112
33240SOL    HW211445   4.788   9.183   1.292 -0.1094  2.4709 -1.2947
33241SOL     OW11446   5.581  11.109  11.777 -0.3467 -0.2800  0.1609
33241SOL    HW111447   5.534  11.028  11.800  1.4700 -1.3894  0.1919
33241SOL    HW211448   5.519  11.158  11.724 -1.0576 -2.3385 -1.0559
33242SOL     OW11449   6.700   0.812   1.781 -0.5981  0.9744  0.1458
33242SOL    HW111450   6.668   0.830   1.870  0.9256  1.2346  0.6812
33242SOL    HW211451   6.706   0.898   1.740  0.5501  1.0759  0.4850
33243SOL     OW11452   2.710   5.676   9.729  0.5240  0.0610  0.4397
33243SOL    HW111453   2.738   5.590   9.697  2.0330  0.7857 -0.2527
33243SOL    HW211454   2.653   5.656   9.804  0.5213 -1.5428  0.0436
33244SOL     OW11455   4.712   1.381   5.234  0.0192  0.1245 -0.0861
33244SOL    HW111456   4.640   1.421   5.283  0.9320  0.2572  1.1946
33244SOL    HW211457   4.704   1.287   5.252  1.1439  0.2902  1.4848
33245SOL     OW11458   8.724   0.966  10.848 -0.1516  0.1622 -0.2771
33245SOL    HW111459   8.811   0.996  10.821  0.9196  0.1205  2.7865
33245SOL    HW211460   8.730   0.871  10.846 -0.0963  0.1596  0.0575
33246SOL     OW11461   4.595   6.728   5.909 -0.5060  1.2629  0.5034
33246SOL    HW111462   4.541   6.664   5.956 -1.3731  1.2962 -0.4174
33246SOL    HW211463   4.614   6.795   5.974 -1.7151  1.3280  0.8239
33247SOL     OW11464   9.814   2.345   4.411  0.0909 -0.1472 -0.3581
33247SOL    HW111465   9.888   2.329   4.470  0.9982  2.1977 -0.7577
33247SOL    HW211466   9.853   2.383   4.333 -1.5598  1.5498 -0.4242
33248SOL     OW11467   5.478   5.763  11.774  0.5615 -0.3275  0.2610
33248SOL    HW111468   5.398   5.815  11.784  0.3520 -0.6386  0.2071
33248SOL    HW211469   5.548   5.821  11.804  0.4116  0.2440 -0.4911
33249SOL     OW11470  10.776   1.637   0.358  0.0754 -0.3387 -0.1368
33249SOL    HW111471  10.842   1.606   0.419 -0.7490 -1.3771  0.2770
33249SOL    HW211472  10.738   1.557   0.321 -0.6519  0.2340 -0.6838
33250SOL     OW11473   3.346  10.151  11.285 -0.0456 -0.0728  0.0153
33250SOL    HW111474   3.322  10.243  11.298  0.9078  0.0028  1.3039
33250SOL    HW211475   3.296  10.103  11.351 -0.2687 -0.4607 -0.4229
33251SOL     OW11476   6.679   2.574   2.712 -0.2132 -0.2828 -0.4050
33251SOL    HW111477   6.682   2.545   2.621  0.8729 -1.0960 -0.1384
33251SOL    HW211478   6.716   2.501   2.761 -1.0112  0.0412  0.7243
33252SOL     OW11479  10.575   4.316   6.316 -0.0358  0.2275  0.0355
33252SOL    HW111480  10.588   4.369   6.395 -2.1495 -0.7863  1.1387
33252SOL    HW211481  10.594   4.377   6.244 -0.0552  1.7896  1.2766
33253SOL     OW11482   7.771   0.777   0.081  0.2498  0.4586  0.1148
33253SOL    HW111483   7.752   0.871   0.072  0.5625  0.3188 -3.4014
33253SOL    HW211484   7.686   0.735   0.076  0.2643  0.4805 -0.3462
33254SOL     OW11485   8.571   0.095   2.584 -0.1239 -0.0278  0.0576
33254SOL    HW111486   8.491   0.121   2.538 -0.3057  0.4579  0.6363
33254SOL    HW211487   8.541   0.061   2.668  0.1480 -1.7562 -0.5003
33255SOL     OW11488   9.459   4.931  10.653  0.2825  0.2233 -0.0279
33255SOL    HW111489   9.402   4.961  10.724  1.1639  0.3359  0.6562
33255SOL    HW211490   9.404   4.872  10.602 -0.2675 -0.1570  0.9643
33256SOL     OW11491   1.911  11.892   9.797 -0.3809  0.8772 -0.3135
33256SOL    HW111492   1.957  11.926   9.875 -0.9908 -0.4279  0.6551
33256SOL    HW211493   1.855  11.823   9.831 -1.0004  0.5745 -1.8796
33257SOL     OW11494   6.543   4.534   1.876 -0.2515  0.1708 -0.1573
33257SOL    HW111495   6.580   4.564   1.959  0.4354 -0.2649 -0.2997
33257SOL    HW211496   6.600   4.572   1.809  1.1161 -2.0279 -0.3222
33258SOL     OW11497   0.048   1.422   4.909 -0.0762 -0.4774 -0.4994
33258SOL    HW111498   0.057   1.339   4.956 -2.5307 -0.4291  0.1694
33258SOL    HW211499   0.031   1.397   4.818  1.4101 -0.6274 -0.7575
33259SOL     OW11500   2.472   7.116   9.184 -0.2753  0.1138  0.2388
33259SOL    HW111501   2.448   7.162   9.265 -0.3277 -1.5267  1.1848
33259SOL    HW211502   2.566   7.132   9.175 -0.6329  2.1832 -0.6634
33260SOL     OW11503   9.886   0.236   5.104 -0.3029  0.1478 -0.2483
33260SOL    HW111504   9.859   0.145   5.094  1.2841 -0.5077  1.0286
33260SOL    HW211505   9.806   0.287   5.090 -1.0601 -1.3629 -1.7585
33261SOL     OW11506   4.582   3.481   9.055  0.0927 -0.0092  0.2455
33261SOL    HW111507   4.499   3.524   9.073  1.0007  1.6430  0.7053
33261SOL    HW211508   4.619   3.529   8.981  0.1626 -1.4454 -0.7026
33262SOL     OW11509   5.076   3.189   1.722  0.0521 -0.4206  0.1545
33262SOL    HW111510   5.055   3.131   1.649 -0.0536  0.6900 -0.7389
33262SOL    HW211511   5.147   3.245   1.689  0.0490  0.0558  0.9197
33263SOL     OW11512   1.625   8.762   4.016  0.3658  0.0537  0.4034
33263SOL    HW111513   1.707   8.742   4.061 -0.3656  1.1268  2.3200
33263SOL    HW211514   1.634   8.854   3.990  0.1616 -0.1215 -0.3226
33264SOL     OW11515   6.449  10.565  11.569  0.4810  0.4023  0.3576
33264SOL    HW111516   6.470  10.659  11.572 -2.5982  1.1767  1.4053
33264SOL    HW211517   6.354  10.562  11.570  0.4704 -2.7826 -0.3483
33265SOL     OW11518   3.040   6.753   4.181  0.5162 -0.1288  0.1543
33265SOL    HW111519   3.085   6.838   4.178 -2.8921  1.8454 -0.9047
33265SOL    HW211520   3.002   6.749   4.268 -0.4256  0.1010 -0.2356
33266SOL     OW11521   6.847   4.910   6.353 -0.1770 -0.0645 -0.4474
33266SOL    HW111522   6.787   4.917   6.428  0.4925  0.3959  0.0584
33266SOL    HW211523   6.809   4.841   6.299 -0.4555 -0.6901  0.5203
33267SOL     OW11524   3.517   1.847   2.884  0.0688  0.2219  0.0984
33267SOL    HW111525   3.562   1.930   2.897  0.6911  0.3059 -2.1035
33267SOL    HW211526   3.458   1.839   2.958  0.5916  2.2310  0.7843
33268SOL     OW11527   9.814   2.061   5.306  0.2185  0.5019 -0.3287
33268SOL    HW111528   9.748   2.000   5.273  0.1498  0.2169  0.3339
33268SOL    HW211529   9.860   2.013   5.375  1.6848  0.4057 -1.3300
33269SOL     OW11530   9.156  11.095   9.444 -0.0429 -0.0711 -0.3138
33269SOL    HW111531   9.136  11.071   9.353  0.7995 -0.8104 -0.3159
33269SOL    HW211532   9.115  11.181   9.456  1.7420  1.0991 -2.0955
33270SOL     OW11533   6.110   4.615   1.000  0.2912  0.2606  0.1534
33270SOL    HW111534   6.199   4.649   0.994  0.0645  0.8363  0.0081
33270SOL    HW211535   6.081   4.609   0.909  0.2652 -0.1535  0.1876
33271SOL     OW11536  10.689   7.435   9.406 -0.1829 -0.3733  0.1843
33271SOL    HW111537  10.732   7.520   9.411 -1.6917  0.4066  0.5282
33271SOL    HW211538  10.741   7.385   9.344  1.6517  0.2389  1.1490
33272SOL     OW11539   3.101   6.620   0.912  0.1445  0.4372 -0.2048
33272SOL    HW111540   3.114   6.692   0.974  0.4215 -0.7825  1.1932
33272SOL    HW211541   3.094   6.664   0.827  0.4498  2.1063  0.5793
33273SOL     OW11542   8.535   1.736   1.121  0.1712 -0.5618  0.5671
33273SOL    HW111543   8.548   1.643   1.137 -1.2019 -0.6204  1.4384
33273SOL    HW211544   8.467   1.763   1.183 -0.2318  0.7803 -0.4027
33274SOL     OW11545   9.893   9.699   7.077  0.1189 -0.5874 -0.6428
33274SOL    HW111546   9.930   9.781   7.044 -3.0585 -0.0748 -3.4714
33274SOL    HW211547   9.916   9.634   7.011 -0.1984 -1.2264 -0.1301
33275SOL     OW11548   6.474   3.834   0.827  0.1739 -0.0422 -0.1167
33275SOL    HW111549   6.565   3.819   0.799  0.2393 -0.2333  0.1835
33275SOL    HW211550   6.422   3.822   0.748  0.3454 -0.6531 -0.1479
33276SOL     OW11551   8.869  10.495   1.336 -0.0467 -0.0101 -0.0966
33276SOL    HW111552   8.959  10.510   1.306  0.1142 -0.7420  0.0008
33276SOL    HW211553   8.828  10.445   1.266 -0.6860  1.1557 -0.5790
33277SOL     OW11554   2.095   7.857   5.567 -0.1129  0.0178  0.4230
33277SOL    HW111555   2.138   7.790   5.513  0.7587  0.8582  0.0328
33277SOL    HW211556   2.002   7.847   5.548 -0.0961 -1.7193  1.1267
33278SOL     OW11557   6.175  10.943  10.987  0.4758  0.4991  0.1117
33278SOL    HW111558   6.216  10.868  11.029  0.4698  0.5161  0.1481
33278SOL    HW211559   6.100  10.907  10.940 -1.7895  0.9330  3.0891
33279SOL     OW11560   3.842  11.453   9.681 -0.4265  0.1005 -0.3749
33279SOL    HW111561   3.883  11.410   9.605 -0.6107  1.8251 -1.5034
33279SOL    HW211562   3.899  11.430   9.754 -0.4906 -1.9935 -0.9090
33280SOL     OW11563   6.950   4.982   7.150  0.2768  0.0017  0.6813
33280SOL    HW111564   7.008   4.938   7.212 -0.0929  0.7739  1.5997
33280SOL    HW211565   6.886   5.028   7.205 -1.1339 -0.7075 -0.2933
33281SOL     OW11566  10.921   3.795  10.424 -0.7338 -0.1302 -0.7431
33281SOL    HW111567  10.870   3.750  10.491  0.2386 -0.7508 -0.3904
33281SOL    HW211568  11.007   3.809  10.465 -1.1189  2.4871 -0.6719
33282SOL     OW11569   5.386   3.125  11.469  0.1013  0.2421 -0.3955
33282SOL    HW111570   5.423   3.127  11.380 -0.5802 -0.2146 -0.6963
33282SOL    HW211571   5.311   3.067  11.462  0.3534 -0.2124  0.6111
33283SOL     OW11572  10.990   9.659  10.466 -0.7608 -0.7709 -0.4273
33283SOL    HW111573  10.952   9.571  10.468 -1.8228 -0.3235  1.0914
33283SOL    HW211574  11.004   9.681  10.558  0.7137  0.1661 -0.8358
33284SOL     OW11575   5.017   9.797   1.736  0.4401  0.4048  0.0831
33284SOL    HW111576   5.030   9.709   1.772  3.5285  0.4523 -0.6298
33284SOL    HW211577   5.104   9.837   1.740 -0.5661  2.8809 -1.0610
33285SOL     OW11578  11.876   1.752   8.471 -0.2276 -0.0425  0.0599
33285SOL    HW111579  11.939   1.726   8.404 -0.1055  1.3083 -0.3650
33285SOL    HW211580  11.904   1.704   8.549 -0.2889 -1.5098 -0.7934
33286SOL     OW11581   1.100   6.589   4.447  0.3573  0.5625 -0.0791
33286SOL    HW111582   1.102   6.671   4.498  0.7140  0.8404 -0.5313
33286SOL    HW211583   1.173   6.538   4.481  0.5870  0.7421 -0.2999
33287SOL     OW11584   2.753   3.394   1.510 -0.2089 -0.0001  0.0913
33287SOL    HW111585   2.807   3.355   1.579 -1.2580 -0.4413  0.6853
33287SOL    HW211586   2.668   3.352   1.519 -0.2800 -0.3498 -1.7261
33288SOL     OW11587   7.283   1.067   1.486  0.4810 -0.1487  0.1639
33288SOL    HW111588   7.237   1.064   1.569 -0.8034 -0.2461 -0.5228
33288SOL    HW211589   7.323   1.154   1.483  1.0265 -0.3588  1.1211
33289SOL     OW11590   0.442   6.469   4.305 -0.2856 -0.2559 -0.2551
33289SOL    HW111591   0.440   6.374   4.293  0.3719 -0.2972 -0.0773
33289SOL    HW211592   0.517   6.484   4.362  0.3165  0.4663 -1.1962
33290SOL     OW11593   3.723   3.770  10.060 -0.3242 -0.0600  0.7067
33290SOL    HW111594   3.766   3.690  10.090 -0.9400 -0.5644  0.2797
33290SOL    HW211595   3.645   3.778  10.116 -0.1390  0.3684  0.9027
33291SOL     OW11596   9.971   2.753  10.791  0.3076  0.6985 -0.2927
33291SOL    HW111597   9.955   2.685  10.725  1.4985  1.2993 -1.2379
33291SOL    HW211598   9.885   2.767  10.832 -0.1223 -0.7858 -0.6396
33292SOL     OW11599   0.227   0.525   3.645 -0.5196  0.1316 -0.2654
33292SOL    HW111600   0.181   0.442   3.634  0.9498 -0.8862  0.8932
33292SOL    HW211601   0.162   0.592   3.624 -1.2013 -1.2986 -3.3129
33293SOL     OW11602   6.472   3.310   5.424 -0.2065 -0.8195 -0.3113
33293SOL    HW111603   6.386   3.317   5.467  0.5319 -0.3893  1.1623
33293SOL    HW211604   6.525   3.378   5.465  0.8762 -1.1248 -1.1556
33294SOL     OW11605   4.011   0.164   1.935  0.7052  0.9916  0.2882
33294SOL    HW111606   4.097   0.123   1.931 -0.0984 -0.8385  0.6402
33294SOL    HW211607   4.028   0.255   1.959  2.5902  0.9605 -0.7762
33295SOL     OW11608   6.239   7.797  10.989 -0.4625  0.2104  1.0640
33295SOL    HW111609   6.152   7.767  10.962 -0.3842 -0.3140  1.3753
33295SOL    HW211610   6.254   7.754  11.074 -0.7579  1.9059  2.0223
33296SOL     OW11611  10.334   8.243   9.581  0.1641 -0.1606 -0.0264
33296SOL    HW111612  10.375   8.330   9.582 -0.2796  0.0620  1.2919
33296SOL    HW211613  10.341   8.213   9.671 -0.3347 -1.1954 -0.3220
33297SOL     OW11614   0.475   4.952  11.418  0.1838  0.3172 -0.3014
33297SOL    HW111615   0.552   4.959  11.475  0.0985 -0.4304 -0.0849
33297SOL    HW211616   0.504   4.988  11.334  0.9933 -0.5970 -0.4313
33298SOL     OW11617   0.506   6.907   5.100 -0.0035  0.2844 -0.1693
33298SOL    HW111618   0.473   6.842   5.163  0.4272 -0.0716 -0.3078
33298SOL    HW211619   0.590   6.872   5.072  0.0678  0.7324 -0.5128
33299SOL     OW11620  10.030   9.855   6.596  0.2771 -0.0069  0.0108
33299SOL    HW111621  10.088   9.797   6.645  1.8167  1.3713 -0.1328
33299SOL    HW211622   9.972   9.795   6.548  0.6538 -1.3905  1.2209
33300SOL     OW11623   2.732   2.893   5.107 -0.4294  0.1033 -0.1466
33300SOL    HW111624   2.642   2.913   5.134  0.0139  0.7442  0.9063
33300SOL    HW211625   2.746   2.947   5.029 -0.4158  1.3227  0.6670
33301SOL     OW11626   6.233   9.916   4.643  0.0291  0.6193 -0.0817
33301SOL    HW111627   6.270   9.886   4.560 -0.1943  0.1085 -0.0028
33301SOL    HW211628   6.170   9.984   4.618  0.8813  1.3668 -0.2260
33302SOL     OW11629   6.714   4.722   8.657  0.2089  0.1414  0.0445
33302SOL    HW111630   6.664   4.645   8.631 -0.3891  0.1480  1.1056
33302SOL    HW211631   6.781   4.689   8.716  0.5006  0.3286 -0.1793
33303SOL     OW11632   2.514   0.269   1.752  0.0764 -0.3869 -0.0779
33303SOL    HW111633   2.478   0.223   1.828 -0.4545 -1.4658 -0.9344
33303SOL    HW211634   2.547   0.199   1.695  0.1982  0.3630 -0.9619
33304SOL     OW11635   8.193   6.890   6.907 -0.1586 -0.5412  0.3421
33304SOL    HW111636   8.199   6.982   6.879  1.0957 -1.2659 -2.1084
33304SOL    HW211637   8.114   6.886   6.961 -1.4103  1.5750 -1.1819
33305SOL     OW11638   4.500   0.749   0.372 -0.4441 -0.0277  0.4290
33305SOL    HW111639   4.558   0.681   0.339 -0.7053  0.0418 -0.1986
33305SOL    HW211640   4.489   0.809   0.298 -2.8190 -1.0399 -0.1045
33306SOL     OW11641   8.517  10.380   4.401  0.1974  0.1411 -0.7573
33306SOL    HW111642   8.533  10.413   4.489  0.0227 -0.8239 -0.3451
33306SOL    HW211643   8.437  10.329   4.409 -0.3682  0.8587 -1.7061
33307SOL     OW11644   5.184   7.257   0.876 -0.3852 -0.0447  0.3560
33307SOL    HW111645   5.109   7.309   0.905 -1.8075 -1.4498 -0.6081
33307SOL    HW211646   5.151   7.167   0.872  1.6519 -0.8742  0.8240
33308SOL     OW11647   5.290  10.698  10.747 -0.4559 -0.2826 -0.2570
33308SOL    HW111648   5.276  10.724  10.838 -1.1244  0.9101 -0.6774
33308SOL    HW211649   5.322  10.608  10.752 -2.4600 -0.9709  1.0607
33309SOL     OW11650   8.280  10.175  10.175  0.2969 -0.0685 -0.1590
33309SOL    HW111651   8.209  10.182  10.112  1.3117  1.0269 -1.2356
33309SOL    HW211652   8.237  10.153  10.257 -1.2963  0.6445 -0.7595
33310SOL     OW11653   0.930  11.599   5.498 -0.2542  0.3062  0.1177
33310SOL    HW111654   0.990  11.560   5.433  0.0258 -0.4844  0.8297
33310SOL    HW211655   0.940  11.543   5.575 -2.3013 -0.1417  0.0927
33311SOL     OW11656   5.210   3.580   8.302  0.1392  0.2236  0.0959
33311SOL    HW111657   5.300   3.598   8.273  0.3767 -2.0803 -0.8807
33311SOL    HW211658   5.221   3.517   8.373 -0.7004  0.0138  0.0422
33312SOL     OW11659  10.666   8.952   9.700  0.1180 -0.4772  0.0685
33312SOL    HW111660  10.602   8.941   9.630 -1.2439 -1.3204  1.3829
33312SOL    HW211661  10.733   9.009   9.662 -2.2768  1.9886 -0.8204
33313SOL     OW11662   5.843   2.224   2.875 -0.3654  0.7769  0.7126
33313SOL    HW111663   5.778   2.195   2.811 -0.3138 -0.0613  1.0202
33313SOL    HW211664   5.832   2.319   2.879 -1.1437  0.7152  0.3053
33314SOL     OW11665   6.661   3.214   1.091 -0.2258  0.2914  0.3733
33314SOL    HW111666   6.599   3.246   1.157 -0.2142 -2.5743  1.9198
33314SOL    HW211667   6.606   3.167   1.028  0.0948  0.1233  0.2156
33315SOL     OW11668   3.496   5.654   8.751 -0.4964 -0.2487 -0.0727
33315SOL    HW111669   3.527   5.738   8.717  0.5419 -0.2199  0.8901
33315SOL    HW211670   3.405   5.669   8.774 -0.8751  0.0748 -1.6268
33316SOL     OW11671   7.158   6.506   6.313  0.0730 -0.8436 -0.0218
33316SOL    HW111672   7.100   6.519   6.388  0.4442 -1.7768  0.4428
33316SOL    HW211673   7.163   6.411   6.302  1.7767 -0.8056  0.1626
33317SOL     OW11674   5.658   0.252   0.260 -0.5411  0.0523 -0.0947
33317SOL    HW111675   5.604   0.179   0.230  2.8049 -2.3678 -0.8235
33317SOL    HW211676   5.685   0.297   0.179 -2.2226  1.9486  0.3250
33318SOL     OW11677   8.207  10.734   2.599 -0.3228 -0.3243  0.1931
33318SOL    HW111678   8.167  10.818   2.623 -1.8708 -0.9665 -0.0379
33318SOL    HW211679   8.210  10.736   2.503 -0.5029 -0.5891  0.1813
33319SOL     OW11680   4.410  11.273   0.661  0.1001 -0.3449  0.0606
33319SOL    HW111681   4.375  11.190   0.630 -1.6847  0.1634  0.5950
33319SOL    HW211682   4.417  11.262   0.756  2.2339 -0.6946 -0.0810
33320SOL     OW11683   1.509   7.161   6.306 -0.1888  0.5235 -0.0667
33320SOL    HW111684   1.449   7.099   6.265  0.5921 -0.0005 -0.4579
33320SOL    HW211685   1.584   7.165   6.246  0.2083  1.0898  0.4492
33321SOL     OW11686   4.316   2.611   0.642 -0.1415  0.0587  0.2701
33321SOL    HW111687   4.260   2.669   0.590  0.2831 -0.1975 -0.5042
33321SOL    HW211688   4.282   2.524   0.626 -0.2978  0.0185  0.8097
33322SOL     OW11689   4.271   0.195   7.879 -0.1163  0.1307  0.6048
33322SOL    HW111690   4.257   0.117   7.932  0.3492 -0.7108 -0.4652
33322SOL    HW211691   4.241   0.267   7.934 -2.9770 -0.9920  0.7005
33323SOL     OW11692   3.107   7.953   8.217  0.1873 -0.2761  0.2864
33323SOL    HW111693   3.086   7.864   8.246 -0.5901 -0.2420 -0.1577
33323SOL    HW211694   3.137   7.942   8.127  0.3990 -0.1182  0.3375
33324SOL     OW11695   9.554   0.598   3.820 -0.1048  0.2665 -0.3467
33324SOL    HW111696   9.560   0.691   3.798  2.1385  0.8260  2.0746
33324SOL    HW211697   9.521   0.597   3.910  2.1125 -1.0824  0.5215
33325SOL     OW11698   2.018   5.567   6.363 -0.1756 -0.0542 -0.3959
33325SOL    HW111699   1.949   5.552   6.299 -2.9715 -1.4209  2.6951
33325SOL    HW211700   2.092   5.515   6.330 -2.3883 -2.9823 -1.2240
33326SOL     OW11701  10.642   1.062   0.345 -0.1544 -0.1315  0.0130
33326SOL    HW111702  10.693   1.024   0.273  0.1271 -0.0578  0.1721
33326SOL    HW211703  10.551   1.044   0.322 -0.1121  0.5866 -0.7634
33327SOL     OW11704   1.620   6.460   6.685  0.5955 -0.0884  0.1883
33327SOL    HW111705   1.610   6.538   6.739  0.7290  0.1724 -0.1568
33327SOL    HW211706   1.710   6.431   6.701  0.6992  0.1005 -0.0319
33328SOL     OW11707   0.960   3.305   5.971  0.4870  0.0119 -0.7692
33328SOL    HW111708   0.984   3.303   5.879 -1.3521  3.2847 -1.4396
33328SOL    HW211709   0.894   3.236   5.980  1.5461 -1.1522 -1.5377
33329SOL     OW11710   2.330  10.470  10.950 -0.1112 -0.1507  0.2458
33329SOL    HW111711   2.241  10.437  10.946 -0.6423  0.3431  3.9460
33329SOL    HW211712   2.335  10.536  10.881 -2.1621 -1.1088 -0.8803
33330SOL     OW11713   6.335   6.035   9.885 -0.1031 -0.0310 -0.3982
33330SOL    HW111714   6.258   6.071   9.840 -1.5547 -1.2418  1.0017
33330SOL    HW211715   6.323   6.062   9.976  1.3221  0.0267 -0.2163
33331SOL     OW11716   2.179   9.051   4.874  0.3232  0.0212  0.2497
33331SOL    HW111717   2.163   9.128   4.928 -0.2168  0.5290 -0.6029
33331SOL    HW211718   2.232   8.993   4.929  0.7658  1.0102  0.8846
33332SOL     OW11719   0.211   6.277   9.225  0.2417  0.3167 -0.0631
33332SOL    HW111720   0.267   6.202   9.206 -0.3143 -1.0566  3.1813
33332SOL    HW211721   0.175   6.301   9.139  0.1052 -3.3860 -1.2263
33333SOL     OW11722   3.655   0.277  11.862 -0.2796 -0.1326  0.5807
33333SOL    HW111723   3.611   0.335  11.925 -1.7356 -1.4898  0.9033
33333SOL    HW211724   3.645   0.321  11.778 -0.8711  0.3686  0.9017
33334SOL     OW11725   3.126   9.840  10.491 -0.5645  0.2703 -0.1149
33334SOL    HW111726   3.150   9.923  10.450 -1.4118  0.7458  0.3111
33334SOL    HW211727   3.067   9.798  10.428  2.0120 -1.3464 -1.6057
33335SOL     OW11728   9.222   6.161   3.268 -1.3838  0.0101  0.0832
33335SOL    HW111729   9.203   6.237   3.213 -2.4256 -1.9883 -2.5277
33335SOL    HW211730   9.263   6.098   3.209  1.7136 -0.6847  2.6919
33336SOL     OW11731  10.244   0.227   2.936 -0.1537 -0.0650  0.6541
33336SOL    HW111732  10.227   0.307   2.887 -0.1339  1.4431  2.9632
33336SOL    HW211733  10.173   0.168   2.911  0.2418  0.3620 -1.6350
33337SOL     OW11734   0.285   0.845   8.317 -0.1760  0.1171  0.6727
33337SOL    HW111735   0.199   0.805   8.324 -1.1630  2.3736  2.5430
33337SOL    HW211736   0.288   0.910   8.387  1.5417  2.8222 -1.6567
33338SOL     OW11737   7.404   4.383   3.659 -0.1290  0.0881  0.4817
33338SOL    HW111738   7.344   4.319   3.696 -1.2738  0.1942 -1.0734
33338SOL    HW211739   7.484   4.334   3.641 -0.0031 -0.2447  1.8312
33339SOL     OW11740   0.068   1.324   8.928  0.0381 -0.8618 -0.0548
33339SOL    HW111741   0.132   1.349   8.995  0.3371 -1.6600 -0.0291
33339SOL    HW211742   0.095   1.236   8.901 -1.2863 -1.3929  0.2646
33340SOL     OW11743   4.522   9.930   8.239 -0.0946 -0.1485  0.3453
33340SOL    HW111744   4.559   9.999   8.184  1.5252  0.0621  1.6364
33340SOL    HW211745   4.467   9.879   8.179  0.1952  1.1060 -1.0519
33341SOL     OW11746   6.022   4.203  10.825  0.4838 -0.1737 -0.0056
33341SOL    HW111747   5.981   4.172  10.905  0.2356  2.6450  1.0941
33341SOL    HW211748   5.993   4.294  10.817  1.1453 -0.1124 -2.8991
33342SOL     OW11749   7.218   4.975   4.124  0.1630  0.0718 -0.4168
33342SOL    HW111750   7.148   4.917   4.094 -0.6735  0.1411  1.2906
33342SOL    HW211751   7.287   4.917   4.155  0.0356  0.0027 -0.2651
33343SOL     OW11752   3.199  10.642   0.538 -0.0780 -0.3757  0.1221
33343SOL    HW111753   3.220  10.675   0.625 -0.5794 -0.2125  0.1793
33343SOL    HW211754   3.285  10.633   0.495  0.0921  0.6656  0.2201
33344SOL     OW11755   9.136  11.694   2.396 -0.5355 -0.4393 -0.0371
33344SOL    HW111756   9.101  11.767   2.448  0.2890  1.0680 -1.5025
33344SOL    HW211757   9.213  11.665   2.444 -1.4512 -1.0707  1.0954
33345SOL     OW11758   8.711   9.177   7.511  0.0690 -0.3643  0.1491
33345SOL    HW111759   8.790   9.206   7.465  0.3918 -0.4116  0.6599
33345SOL    HW211760   8.725   9.204   7.602 -1.7208  2.1316 -0.1986
33346SOL     OW11761  11.066  10.494   8.617 -0.3293  0.0582 -1.0626
33346SOL    HW111762  11.154  10.474   8.649 -0.1516 -1.3301 -2.3383
33346SOL    HW211763  11.068  10.588   8.600  0.8952  0.0534 -1.0491
33347SOL     OW11764   5.175   9.971  11.726 -0.0384 -0.3048  0.0526
33347SOL    HW111765   5.099   9.982  11.668  0.4008 -1.3279 -0.7420
33347SOL    HW211766   5.249  10.006  11.675 -0.0315  1.2079  1.0417
33348SOL     OW11767  10.255   4.666   4.127  0.3154  0.4285  0.4985
33348SOL    HW111768  10.332   4.654   4.182  0.9382  0.0521 -0.4526
33348SOL    HW211769  10.257   4.759   4.103  1.3622  0.0858 -0.8149
33349SOL     OW11770   2.939   7.106   7.371  0.1066 -0.3597 -0.2834
33349SOL    HW111771   2.971   7.145   7.290  0.4697 -0.1880 -0.0596
33349SOL    HW211772   3.018   7.081   7.419 -0.0176  1.2658  0.8638
33350SOL     OW11773  10.448   6.333   6.178 -0.2773 -0.1118  0.1735
33350SOL    HW111774  10.405   6.400   6.231 -0.9359  0.7850 -1.4249
33350SOL    HW211775  10.385   6.261   6.176 -0.0586 -0.3377  0.9407
33351SOL     OW11776   4.241   5.105   0.904  0.0081  0.4199 -0.0529
33351SOL    HW111777   4.319   5.095   0.960  0.3631  2.6643 -0.0635
33351SOL    HW211778   4.273   5.150   0.826 -1.3719  1.8302  0.1572
33352SOL     OW11779  11.037   0.155   9.375 -0.1470  0.1571  0.0381
33352SOL    HW111780  11.048   0.079   9.432  0.2904  1.1639  1.3552
33352SOL    HW211781  11.110   0.149   9.313 -0.9212 -1.2282 -0.7903
33353SOL     OW11782   6.549   3.082   3.907 -0.0524 -0.4609 -0.7521
33353SOL    HW111783   6.467   3.100   3.954 -0.6126 -2.4466 -0.8525
33353SOL    HW211784   6.617   3.103   3.970 -0.7110 -0.3711 -0.0473
33354SOL     OW11785   5.221  11.012   6.334 -0.1483 -0.0962  0.3138
33354SOL    HW111786   5.266  10.998   6.418  0.3116  2.4178  0.5755
33354SOL    HW211787   5.264  10.952   6.273  0.9636 -0.4609  1.4130
33355SOL     OW11788   2.679   6.212   8.162 -0.1468  0.0910  0.0154
33355SOL    HW111789   2.766   6.173   8.156 -0.6436 -0.9911 -0.4906
33355SOL    HW211790   2.683   6.270   8.238  1.3231  0.9170 -0.6633
33356SOL     OW11791   8.155   4.357   7.069  0.3918  0.0427 -0.1724
33356SOL    HW111792   8.206   4.431   7.101  0.3591  0.4281 -0.9926
33356SOL    HW211793   8.073   4.360   7.118  0.4816  0.4163 -0.0498
33357SOL     OW11794   6.173   3.149   8.933 -0.5111 -0.4593  0.0487
33357SOL    HW111795   6.185   3.128   9.026 -2.9186  2.5774  1.2391
33357SOL    HW211796   6.089   3.110   8.910  0.0525 -1.1595 -0.9040
33358SOL     OW11797   2.776   0.006   9.186 -0.4924 -0.1579 -0.5085
33358SOL    HW111798   2.862  -0.013   9.224  0.3323  0.0506 -2.1986
33358SOL    HW211799   2.770   0.101   9.186 -0.1114 -0.1183 -1.6370
33359SOL     OW11800   9.171   5.443   8.150 -0.6021 -0.0567  0.1283
33359SOL    HW111801   9.156   5.348   8.149 -0.3788 -0.1822  2.3105
33359SOL    HW211802   9.249   5.456   8.097  0.6725 -1.4217  1.5521
33360SOL     OW11803   7.151   2.322   4.040 -0.0914  0.0678  0.0218
33360SOL    HW111804   7.130   2.239   3.998  0.7435 -0.0062 -0.2594
33360SOL    HW211805   7.182   2.378   3.969  2.1564 -0.3276  0.6313
33361SOL     OW11806  11.220   5.923   0.448 -0.0469  0.0849  0.0234
33361SOL    HW111807  11.266   5.857   0.396 -0.3415 -0.3842  0.3460
33361SOL    HW211808  11.131   5.923   0.412 -0.3455 -0.4926  0.7577
33362SOL     OW11809   1.821   2.089   8.808 -0.5413 -0.3346  0.7083
33362SOL    HW111810   1.736   2.051   8.787 -0.9388  0.0082  1.6745
33362SOL    HW211811   1.802   2.178   8.836  0.2039 -0.0393  0.3155
33363SOL     OW11812   1.964  11.146  11.346 -0.1290 -0.4102 -0.1631
33363SOL    HW111813   1.928  11.234  11.358  0.5697 -0.0598 -0.5593
33363SOL    HW211814   2.057  11.160  11.333 -0.3512 -0.9513 -2.9290
33364SOL     OW11815  10.595   1.876   9.690  0.4254  0.1212 -0.5217
33364SOL    HW111816  10.562   1.915   9.772 -1.5384  1.4716 -1.8544
33364SOL    HW211817  10.582   1.782   9.701 -1.6597  0.4193  0.0180
33365SOL     OW11818   5.629   6.411   2.104 -0.3971 -0.3204  0.2632
33365SOL    HW111819   5.670   6.325   2.101 -0.0081 -0.1998  1.3297
33365SOL    HW211820   5.656   6.454   2.023  0.7254 -0.6318  0.4620
33366SOL     OW11821   5.258   3.497  10.421 -0.7000  0.3701  0.5820
33366SOL    HW111822   5.296   3.431  10.362 -0.0199  0.2823  1.0994
33366SOL    HW211823   5.209   3.556  10.364  1.6681  1.5213 -0.3978
33367SOL     OW11824   7.294   7.861   0.055 -0.2233 -0.0032 -0.1507
33367SOL    HW111825   7.250   7.875   0.139  1.0273 -0.5458  0.6163
33367SOL    HW211826   7.319   7.948   0.026 -0.6144  0.1829  0.0644
33368SOL     OW11827   0.757   5.855   6.753  0.2027 -0.1777 -0.2860
33368SOL    HW111828   0.833   5.841   6.695  1.4597 -1.9455  1.6268
33368SOL    HW211829   0.694   5.789   6.725 -0.5364  1.0345 -1.6204
33369SOL     OW11830   7.603   0.293  10.441 -0.1323 -0.6915  0.0059
33369SOL    HW111831   7.627   0.313  10.532  1.8161 -0.8497 -0.4361
33369SOL    HW211832   7.554   0.370  10.413  0.7707  0.1496  0.6587
33370SOL     OW11833   9.126  11.922   1.729 -0.2091  0.0441 -0.1246
33370SOL    HW111834   9.211  11.963   1.710 -0.8325  0.7121 -1.5788
33370SOL    HW211835   9.061  11.982   1.692 -1.2969 -0.7883  0.3831
33371SOL     OW11836   2.388   8.195   2.873  0.2657 -0.1906  0.0576
33371SOL    HW111837   2.349   8.282   2.863 -0.0192 -0.2488  0.5944
33371SOL    HW211838   2.450   8.205   2.946  2.0657  0.1582 -1.4444
33372SOL     OW11839   8.279   4.456   7.697  0.3492 -0.0341  0.1771
33372SOL    HW111840   8.196   4.442   7.653  0.7656 -1.3676 -0.2314
33372SOL    HW211841   8.274   4.546   7.730 -1.3329 -0.1717  0.3764
33373SOL     OW11842   1.993   2.101   0.133  0.0909  0.5409 -0.2618
33373SOL    HW111843   2.072   2.080   0.183  1.0802  2.5753 -0.8827
33373SOL    HW211844   2.025   2.141   0.052 -1.4038 -3.0871 -2.9631
33374SOL     OW11845   6.066   2.876   6.983  0.1015  0.1401 -0.1882
33374SOL    HW111846   6.124   2.934   6.934 -1.2923  2.3315  0.6238
33374SOL    HW211847   6.090   2.888   7.074  0.6302 -1.5815 -0.0721
33375SOL     OW11848   3.915   1.848   2.580  0.1263 -0.0660  0.2150
33375SOL    HW111849   3.957   1.900   2.648 -1.0671  1.2838 -0.0379
33375SOL    HW211850   3.828   1.886   2.570  0.2458 -0.2146 -2.0570
33376SOL     OW11851   3.640   1.770   7.033  0.7690 -0.0733  0.1263
33376SOL    HW111852   3.609   1.688   7.072  0.1264  0.4676  0.7980
33376SOL    HW211853   3.559   1.815   7.007  0.9235  1.4873  2.1423
33377SOL     OW11854   1.435   2.367   2.136 -0.4404  0.1178  0.6771
33377SOL    HW111855   1.445   2.397   2.046 -2.7671  0.5929  0.5183
33377SOL    HW211856   1.371   2.295   2.131 -1.2023  0.6570  1.9967
33378SOL     OW11857   0.669   0.190  10.153 -0.4686  0.0480 -0.6129
33378SOL    HW111858   0.716   0.272  10.134  1.1281 -0.6836 -0.0209
33378SOL    HW211859   0.614   0.176  10.076 -0.4352  1.4366 -0.9248
33379SOL     OW11860   5.684   6.912   6.925  0.7723  0.4736  0.5659
33379SOL    HW111861   5.695   6.985   6.863  0.5614  0.2401  0.2540
33379SOL    HW211862   5.714   6.948   7.008 -0.3343  1.2620  0.6438
33380SOL     OW11863   4.755   5.084   2.550  0.3781  0.2069  0.1472
33380SOL    HW111864   4.691   5.014   2.536 -1.3990  2.1648 -2.3538
33380SOL    HW211865   4.825   5.066   2.487  0.9915 -0.3833  0.9584
33381SOL     OW11866  11.375   0.976  11.170  0.0224  0.4179  0.0453
33381SOL    HW111867  11.342   1.064  11.152 -0.8170  0.3396  1.1153
33381SOL    HW211868  11.467   0.990  11.193 -0.7816  1.4274  3.0701
33382SOL     OW11869   7.227   5.334   6.035 -0.0977 -0.3714  0.6217
33382SOL    HW111870   7.187   5.264   6.086  0.2598 -1.2329 -0.2301
33382SOL    HW211871   7.287   5.377   6.095 -0.4038 -0.7334  1.1914
33383SOL     OW11872  11.646   6.712  10.207  0.0527 -0.0059  0.4280
33383SOL    HW111873  11.581   6.714  10.277 -1.9718  1.2421 -1.3701
33383SOL    HW211874  11.722   6.757  10.244 -0.6023 -0.1868  2.0966
33384SOL     OW11875   8.330  11.875   5.551  0.5287 -0.2753  0.3946
33384SOL    HW111876   8.306  11.941   5.616  0.2251 -0.8849  0.9239
33384SOL    HW211877   8.422  11.893   5.531  0.5198  0.1462  0.7195
33385SOL     OW11878  10.360   8.864   5.895 -0.7355 -0.2782  0.2626
33385SOL    HW111879  10.382   8.797   5.959  1.7304  1.0001  0.8873
33385SOL    HW211880  10.347   8.943   5.946  1.3947  0.7939 -0.7265
33386SOL     OW11881   6.480  10.639   9.345 -0.5589 -0.5218 -0.1785
33386SOL    HW111882   6.526  10.573   9.397 -1.5325 -1.4215 -0.4236
33386SOL    HW211883   6.449  10.703   9.409 -0.3514 -0.7575  0.1577
33387SOL     OW11884   2.552  11.610  10.515  0.3398 -0.5641 -0.2778
33387SOL    HW111885   2.593  11.578  10.436  0.1257  1.1936 -1.1653
33387SOL    HW211886   2.611  11.679  10.547  0.3222 -1.1098  0.9807
33388SOL     OW11887   7.523   3.718   0.971  0.1202 -0.0905  0.0112
33388SOL    HW111888   7.580   3.647   0.999  0.7229  0.2295 -0.3908
33388SOL    HW211889   7.542   3.790   1.032 -1.0319 -0.5081  0.8904
33389SOL     OW11890   2.958   9.720   2.711 -0.0991  0.0303  0.3936
33389SOL    HW111891   2.927   9.777   2.640  0.4004 -0.7904 -0.5104
33389SOL    HW211892   2.882   9.665   2.732  0.2015 -0.8635 -0.6960
33390SOL     OW11893   0.077   4.676  11.281 -0.2610  0.0745  0.1374
33390SOL    HW111894   0.164   4.711  11.263 -0.1088 -0.2222  0.3027
33390SOL    HW211895   0.018   4.748  11.258 -0.0281 -0.0045 -0.7726
33391SOL     OW11896   5.565   2.120   6.578 -0.1440  0.4613  0.2762
33391SOL    HW111897   5.606   2.155   6.499 -0.5776  3.1602  1.1594
33391SOL    HW211898   5.633   2.126   6.645  0.0119 -1.1924  0.3105
33392SOL     OW11899   8.883   6.099   0.030 -0.5322  0.0336  0.4236
33392SOL    HW111900   8.953   6.158   0.003 -0.3257 -0.8359 -1.0182
33392SOL    HW211901   8.923   6.012   0.029 -1.0520 -0.2428  1.7353
33393SOL     OW11902   2.188   4.169   9.370  0.6909 -0.8114  0.0643
33393SOL    HW111903   2.211   4.079   9.345  1.4612 -0.5182 -0.3094
33393SOL    HW211904   2.252   4.193   9.437  0.5193 -0.5215  0.1254
33394SOL     OW11905   8.909   4.451   0.104 -0.3973  0.5478  0.2876
33394SOL    HW111906   8.866   4.426   0.186  2.4245 -0.7743  1.5050
33394SOL    HW211907   8.954   4.533   0.126 -0.0308  0.4490 -0.0915
33395SOL     OW11908  10.941   2.663   5.372  0.4403  0.2176  0.3041
33395SOL    HW111909  10.902   2.750   5.384 -0.8087 -0.3247  0.3216
33395SOL    HW211910  10.896   2.608   5.436  1.0204 -0.5119  0.0903
33396SOL     OW11911   8.623   9.361  10.206 -0.2447 -0.4915  0.0472
33396SOL    HW111912   8.683   9.375  10.134 -2.3319  1.0153 -1.5415
33396SOL    HW211913   8.637   9.270  10.232  2.8906 -0.1184  0.0526
33397SOL     OW11914   5.501   4.279   0.074 -0.1527 -0.1288  0.3486
33397SOL    HW111915   5.542   4.263   0.159 -0.5842 -1.0419  0.4066
33397SOL    HW211916   5.514   4.372   0.057 -2.1231  0.6621  2.5434
33398SOL     OW11917   8.815  11.071   1.632  0.7324 -0.6225  0.2192
33398SOL    HW111918   8.861  11.023   1.563  0.5477  0.9363 -1.0436
33398SOL    HW211919   8.869  11.148   1.648 -0.7198  0.5689 -0.3607
33399SOL     OW11920   7.595   8.349   7.817 -0.3032 -0.1110  0.3962
33399SOL    HW111921   7.547   8.298   7.751 -1.4072  0.7978  0.4778
33399SOL    HW211922   7.659   8.399   7.766  1.4571 -2.2276  0.3955
33400SOL     OW11923   5.071   0.297   7.374  0.2698 -1.0104 -0.0483
33400SOL    HW111924   5.042   0.300   7.283 -0.6932  0.6407  0.2476
33400SOL    HW211925   4.990   0.284   7.424  0.6772 -1.0656  0.6082
33401SOL     OW11926   5.147   7.684   2.631  0.3166  0.3899  0.1930
33401SOL    HW111927   5.189   7.721   2.553  0.2449 -0.2660 -0.1653
33401SOL    HW211928   5.207   7.616   2.661  0.7529  1.2024  1.2253
33402SOL     OW11929   6.996   1.217   3.596 -0.0095 -0.3746 -0.0623
33402SOL    HW111930   6.983   1.275   3.521  0.8240 -0.2766 -0.1401
33402SOL    HW211931   7.088   1.190   3.590 -0.2101 -1.1806  0.3465
33403SOL     OW11932   3.668   9.287   3.089  0.4223  0.2172 -0.7338
33403SOL    HW111933   3.573   9.297   3.085  0.4814  1.3417  0.1195
33403SOL    HW211934   3.702   9.359   3.037  0.8236 -0.7157 -1.8129
33404SOL     OW11935   3.930  11.882   2.100  0.6936  0.1662 -0.2302
33404SOL    HW111936   3.890  11.816   2.044  3.5109 -0.9511 -1.1112
33404SOL    HW211937   3.949  11.955   2.041  0.8849  0.2602 -0.0530
33405SOL     OW11938   9.455   4.357   5.156  0.1925 -0.7642  0.1869
33405SOL    HW111939   9.364   4.359   5.126 -0.6209 -2.5844  2.3081
33405SOL    HW211940   9.474   4.448   5.180 -0.5448 -0.1008 -1.5968
33406SOL     OW11941   3.809   5.971  10.706  0.1730  0.0561  0.3424
33406SOL    HW111942   3.840   5.983  10.796  0.7843  0.5652  0.0701
33406SOL    HW211943   3.850   5.890  10.677  0.3342  0.1260  0.3730
33407SOL     OW11944   8.299   7.177   6.471  0.2328  0.4221  0.2737
33407SOL    HW111945   8.376   7.166   6.527  0.9754 -0.9781 -0.9353
33407SOL    HW211946   8.335   7.176   6.382 -0.8711  2.8525 -0.2808
33408SOL     OW11947   0.228   7.671   7.548 -0.0958  0.6759 -0.0059
33408SOL    HW111948   0.159   7.621   7.504  0.5411 -2.1334  1.9022
33408SOL    HW211949   0.206   7.762   7.531 -2.8651 -0.1536 -1.5279
33409SOL     OW11950   4.218   2.045   9.797  0.0088 -0.2452  0.6242
33409SOL    HW111951   4.133   2.048   9.842  0.9024 -0.8844  2.4686
33409SOL    HW211952   4.250   2.135   9.800  0.0990 -0.2900  1.4414
33410SOL     OW11953   6.729   0.297   3.721 -0.4674 -0.0580 -0.6049
33410SOL    HW111954   6.788   0.241   3.772  0.3326  1.9727  0.8724
33410SOL    HW211955   6.679   0.237   3.666  1.6386 -2.0243 -0.5065
33411SOL     OW11956   6.792  11.404   1.351 -0.2160  0.0779 -0.7627
33411SOL    HW111957   6.738  11.404   1.429  0.6291 -0.9889 -0.1434
33411SOL    HW211958   6.786  11.493   1.317 -2.1954  0.0404 -0.6242
33412SOL     OW11959   3.231   0.099   6.711 -0.5496 -0.3710  0.6015
33412SOL    HW111960   3.190   0.032   6.657  1.0462 -0.3853 -0.6583
33412SOL    HW211961   3.244   0.056   6.796  0.4473 -1.7045 -0.1802
33413SOL     OW11962   0.613   1.395   9.267  0.6695 -0.1801  0.2310
33413SOL    HW111963   0.611   1.302   9.291 -1.2379 -0.9188 -2.3335
33413SOL    HW211964   0.585   1.396   9.175 -2.1041  3.1234  0.9069
33414SOL     OW11965   3.304   6.428   4.213 -0.1832 -0.1687 -0.6629
33414SOL    HW111966   3.376   6.474   4.257 -0.0388  0.7179 -1.7758
33414SOL    HW211967   3.278   6.486   4.142 -1.1672 -1.0514 -1.0564
33415SOL     OW11968   0.633   9.581   7.535 -0.5980 -0.4449  0.3535
33415SOL    HW111969   0.631   9.541   7.448 -0.7042 -0.3822  0.3272
33415SOL    HW211970   0.541   9.581   7.563 -0.9411  1.7342 -0.5300
33416SOL     OW11971  11.623  10.325   7.341  0.1489  0.1129 -0.4092
33416SOL    HW111972  11.534  10.306   7.310  0.2313 -0.0876 -0.5268
33416SOL    HW211973  11.656  10.390   7.280 -0.0742  0.5129 -0.1054
33417SOL     OW11974   7.220   2.328   2.715 -0.3590 -0.6040 -0.4785
33417SOL    HW111975   7.272   2.253   2.685 -0.4457 -1.0381  0.4384
33417SOL    HW211976   7.153   2.290   2.771 -0.5342  0.1436 -0.1713
33418SOL     OW11977   8.993   1.086  11.287 -0.4861 -0.4736 -0.1634
33418SOL    HW111978   9.026   1.020  11.349  1.4106 -0.0544 -0.6651
33418SOL    HW211979   9.058   1.157  11.291 -1.1562  0.2478 -1.4845
33419SOL     OW11980   9.544   5.977  11.510  0.0996  0.4466 -0.3905
33419SOL    HW111981   9.564   6.067  11.537  0.1422 -0.0991  1.5217
33419SOL    HW211982   9.456   5.983  11.472 -0.1729  1.2101  0.3172
33420SOL     OW11983   4.199   2.705   3.558 -0.0070  0.9320 -0.2778
33420SOL    HW111984   4.134   2.726   3.492  0.6899 -1.0996 -1.7087
33420SOL    HW211985   4.177   2.761   3.632 -1.9611  1.9373 -1.5404
33421SOL     OW11986   6.999   0.256   2.068  0.2903  0.1205 -0.6506
33421SOL    HW111987   6.938   0.329   2.078 -0.0354 -0.0813 -1.1423
33421SOL    HW211988   7.066   0.289   2.009  1.0234  0.5638  0.3967
33422SOL     OW11989   8.260   5.820   6.646  0.2217  0.1518 -0.4596
33422SOL    HW111990   8.351   5.790   6.642  0.7233  1.1396  1.8932
33422SOL    HW211991   8.264   5.912   6.619 -0.3883 -0.1961 -1.8756
33423SOL     OW11992  11.439   2.354   8.366 -0.3538  0.3467  0.2185
33423SOL    HW111993  11.534   2.347   8.351 -0.6053 -2.9941 -0.5090
33423SOL    HW211994  11.428   2.342   8.460 -0.1315 -1.6579  0.0281
33424SOL     OW11995   8.823   7.744   2.848  0.5189 -0.3688  0.4138
33424SOL    HW111996   8.776   7.777   2.925  1.2707 -0.4255  0.9050
33424SOL    HW211997   8.814   7.649   2.853 -1.4258 -0.3142 -0.8623
33425SOL     OW11998   2.463   3.472   6.921 -0.0539 -0.1295 -0.5488
33425SOL    HW111999   2.424   3.424   6.994  2.1938 -1.0115  0.1585
33425SOL    HW212000   2.498   3.551   6.960  0.7352 -0.3728 -0.7419
33426SOL     OW12001   8.786  11.099   8.499 -0.3367 -0.0607  0.4502
33426SOL    HW112002   8.801  11.015   8.541  0.1532  0.1690  0.7399
33426SOL    HW212003   8.692  11.101   8.483 -0.1741 -1.2743 -0.8584
33427SOL     OW12004   6.285   7.582   0.253 -0.4379 -0.0422 -0.0759
33427SOL    HW112005   6.346   7.557   0.323  0.8001  0.8969 -0.7720
33427SOL    HW212006   6.199   7.557   0.286  0.0609  0.6652  1.9167
33428SOL     OW12007   6.828   5.335   8.670 -0.1180 -1.0753 -0.3369
33428SOL    HW112008   6.734   5.317   8.662  0.1434 -2.8511  0.0416
33428SOL    HW212009   6.841   5.352   8.763 -0.0370 -1.0445 -0.3544
33429SOL     OW12010   4.389   8.832   3.431  0.1992  0.7892  0.7568
33429SOL    HW112011   4.359   8.921   3.446 -0.1859  0.8004 -0.0388
33429SOL    HW212012   4.458   8.840   3.366 -1.2836  0.3356 -0.9568
33430SOL     OW12013   9.599   4.578   3.684  0.0137 -0.7852  0.1746
33430SOL    HW112014   9.514   4.553   3.723 -0.4420 -1.3707 -1.1498
33430SOL    HW212015   9.598   4.674   3.684 -1.8679 -0.7182 -2.2874
33431SOL     OW12016   8.639   6.688   7.323 -0.1445  0.0999  0.0693
33431SOL    HW112017   8.592   6.626   7.267 -1.0533 -0.3808  1.3088
33431SOL    HW212018   8.617   6.660   7.412  1.3096  0.8023  0.6736
33432SOL     OW12019   0.590   5.568   0.811  0.1695  0.0215  0.0505
33432SOL    HW112020   0.676   5.609   0.810  0.9335 -1.4120  1.7686
33432SOL    HW212021   0.569   5.552   0.718  2.3357 -0.7630 -0.3459
33433SOL     OW12022  10.438   5.736   5.306  0.5798 -0.6087  0.3042
33433SOL    HW112023  10.373   5.759   5.238  1.0032 -2.4278 -0.7850
33433SOL    HW212024  10.398   5.663   5.352  0.5078  0.3209  1.7870
33434SOL     OW12025  10.851   1.402   5.451 -0.0867 -0.2972 -0.3736
33434SOL    HW112026  10.858   1.353   5.533 -0.9261 -0.6036 -0.4636
33434SOL    HW212027  10.897   1.348   5.387  2.2132  0.8339  0.2116
33435SOL     OW12028   6.792   4.441  11.899  0.2250 -0.0553  0.1712
33435SOL    HW112029   6.763   4.533  11.901 -2.1182 -0.7279 -0.0089
33435SOL    HW212030   6.819   4.423  11.989  2.5385  1.2695 -0.1593
33436SOL     OW12031   6.003   4.168   7.075 -0.1084 -0.8265  0.0028
33436SOL    HW112032   6.050   4.251   7.065 -0.4434 -0.4461  1.3541
33436SOL    HW212033   6.072   4.102   7.081  0.1494 -0.8661 -2.4346
33437SOL     OW12034   3.065   9.368  10.980 -0.6455  0.1618  0.7521
33437SOL    HW112035   3.133   9.392  11.043 -1.6613 -0.6313  2.2088
33437SOL    HW212036   3.070   9.272  10.975 -0.2272  0.2236 -0.8449
33438SOL     OW12037   9.710   0.510   1.336  0.4874  0.6510 -0.4077
33438SOL    HW112038   9.674   0.581   1.284  0.5197  0.9787  0.0152
33438SOL    HW212039   9.732   0.442   1.272 -0.2079  0.7346 -0.7417
33439SOL     OW12040   8.536   2.820  11.269 -0.1987 -0.3120 -0.1255
33439SOL    HW112041   8.580   2.905  11.264 -2.2963  0.8878  0.4650
33439SOL    HW212042   8.499   2.807  11.182  2.0168 -1.7726 -0.9073
33440SOL     OW12043  11.658   1.623   8.113  0.1747  0.1082  0.9655
33440SOL    HW112044  11.726   1.565   8.077 -0.0387 -0.9357  2.1732
33440SOL    HW212045  11.625   1.576   8.190 -0.7848  1.3504  1.3391
33441SOL     OW12046   7.093   2.528   2.151  0.2362  0.2590  0.3755
33441SOL    HW112047   7.012   2.576   2.132 -0.5221 -1.3859 -0.7094
33441SOL    HW212048   7.080   2.493   2.239 -0.0064  0.4444  0.4140
33442SOL     OW12049   1.071   7.734  11.304 -0.1700 -0.1800 -0.2197
33442SOL    HW112050   0.998   7.794  11.289 -0.5571 -0.7410 -0.5853
33442SOL    HW212051   1.148   7.782  11.274 -0.6074 -0.2767 -1.5631
33443SOL     OW12052   0.035   6.310  10.536 -0.2014 -0.1068  0.0636
33443SOL    HW112053   0.080   6.379  10.486 -0.5273  0.1527  0.1253
33443SOL    HW212054   0.098   6.238  10.539  1.3597  1.1882  2.4551
33444SOL     OW12055  10.122   7.013   5.934  0.5348 -0.3541  0.3177
33444SOL    HW112056  10.093   6.942   5.991  0.6422 -0.2289  0.5308
33444SOL    HW212057  10.209   7.036   5.967  0.2026  0.3692  0.7170
33445SOL     OW12058   8.990   8.887   6.654 -0.0239 -0.1048  0.4339
33445SOL    HW112059   9.002   8.809   6.599  1.9451  0.5936 -0.2199
33445SOL    HW212060   9.006   8.855   6.743  1.7337 -0.3099  0.0827
33446SOL     OW12061  10.608   9.149  10.675 -0.7476 -0.0179 -0.1706
33446SOL    HW112062  10.549   9.127  10.747 -0.8771 -0.3643 -0.3764
33446SOL    HW212063  10.566   9.111  10.598 -1.6641  2.0848 -0.7754
33447SOL     OW12064   8.039   4.792   2.182  0.4119  0.6303 -0.4053
33447SOL    HW112065   7.998   4.830   2.260 -1.3132 -0.0806 -0.9050
33447SOL    HW212066   8.051   4.699   2.204 -0.1719  0.4059 -0.9902
33448SOL     OW12067   7.673   4.342   1.828  0.5570 -0.0653  0.0478
33448SOL    HW112068   7.720   4.344   1.745  0.6042  2.0517  0.0681
33448SOL    HW212069   7.699   4.423   1.873  1.4322 -1.6650  2.6767
33449SOL     OW12070   7.361   5.164   6.375  0.6756  0.2335 -0.0286
33449SOL    HW112071   7.363   5.123   6.289  0.8265  0.7650 -0.2775
33449SOL    HW212072   7.423   5.113   6.427  2.3991  1.3872 -0.8971
33450SOL     OW12073   9.472   1.070   0.533 -0.3551 -0.2565 -0.2908
33450SOL    HW112074   9.412   1.059   0.460 -2.1350  0.0793  1.0578
33450SOL    HW212075   9.552   1.025   0.505 -1.0236 -0.2531 -2.3552
33451SOL     OW12076  11.543   1.490   4.570 -0.0482  0.2697 -0.1169
33451SOL    HW112077  11.517   1.479   4.479  0.8495 -0.5101 -0.3087
33451SOL    HW212078  11.475   1.445   4.620 -0.4710  0.5781 -0.4090
33452SOL     OW12079   4.000   7.116  11.310 -0.3134  0.0285 -0.8892
33452SOL    HW112080   4.001   7.211  11.317 -1.4372  0.1399 -1.8894
33452SOL    HW212081   3.914   7.090  11.345  0.1833 -0.6757 -0.1442
33453SOL     OW12082  10.719  11.089  10.661 -0.0105  0.0785 -0.0708
33453SOL    HW112083  10.686  11.128  10.742  0.0959 -0.6204  0.3141
33453SOL    HW212084  10.722  11.162  10.599 -1.5642  0.3325  0.0974
33454SOL     OW12085   9.026   7.487  10.568  0.5945 -0.3521 -0.4190
33454SOL    HW112086   8.990   7.479  10.480  2.9121 -0.4765 -1.4305
33454SOL    HW212087   9.091   7.558  10.561  0.4952 -0.0317  1.3196
33455SOL     OW12088   0.600   6.049   7.934  0.4153 -0.2642 -0.6361
33455SOL    HW112089   0.531   6.008   7.986  0.1182 -0.5592 -1.2523
33455SOL    HW212090   0.681   6.028   7.980 -0.0180  1.8716  1.2961
33456SOL     OW12091   2.083   0.497   2.492  0.1041 -0.4002  0.1097
33456SOL    HW112092   2.163   0.501   2.438 -1.2408  0.8528 -1.9468
33456SOL    HW212093   2.104   0.548   2.570  1.2138  0.1987 -0.5550
33457SOL     OW12094   9.152   5.857   3.885  0.0681  0.2155 -0.1290
33457SOL    HW112095   9.118   5.870   3.974  0.2975  1.0216 -0.1569
33457SOL    HW212096   9.080   5.814   3.839 -0.9185  1.8070 -0.1517
33458SOL     OW12097   4.114   1.875   0.379  0.3228  0.0953 -0.8874
33458SOL    HW112098   4.094   1.808   0.313  1.6930 -0.0875 -1.1609
33458SOL    HW212099   4.209   1.885   0.374  0.2473  1.3813 -0.1774
33459SOL     OW12100   3.723   6.907   7.063 -0.3410 -0.8511 -0.1168
33459SOL    HW112101   3.815   6.936   7.063 -0.5549 -0.1640  0.0550
33459SOL    HW212102   3.673   6.986   7.043 -0.8137 -1.5321 -1.7724
33460SOL     OW12103   1.491   4.909   1.945  0.3047 -0.2190  0.2357
33460SOL    HW112104   1.400   4.883   1.961  0.7467 -2.0515 -0.1079
33460SOL    HW212105   1.513   4.965   2.020 -1.4312  1.2292 -0.2508
33461SOL     OW12106  11.455   5.837   4.135 -0.4132  0.1928 -0.0933
33461SOL    HW112107  11.401   5.874   4.205 -0.6474  0.6835 -0.5238
33461SOL    HW212108  11.507   5.911   4.103 -2.1294  0.6458 -2.1319
33462SOL     OW12109   9.089   5.439  11.366  0.4506  0.5006  0.3015
33462SOL    HW112110   9.022   5.374  11.342  0.1683  0.4577  1.1667
33462SOL    HW212111   9.040   5.521  11.375  0.2710  0.2414  2.1033
33463SOL     OW12112   6.520   5.092   9.929 -0.0685 -0.3051  0.2617
33463SOL    HW112113   6.544   5.148   9.855  0.3484  0.7398  1.1593
33463SOL    HW212114   6.579   5.118   9.999 -1.0465 -0.6388  1.2355
33464SOL     OW12115   1.357   7.253  10.384  0.2792 -0.1677  0.1542
33464SOL    HW112116   1.380   7.233  10.474 -1.6256  0.0492  0.7440
33464SOL    HW212117   1.275   7.206  10.369 -0.9946  2.0933 -0.4616
33465SOL     OW12118   5.612   9.635   2.835  0.1493 -0.6420  0.1835
33465SOL    HW112119   5.623   9.623   2.741  1.3735 -0.3561  0.2728
33465SOL    HW212120   5.553   9.564   2.862 -0.8468 -0.2707 -0.9049
33466SOL     OW12121   7.591  10.199  10.141 -0.4335  0.2880 -0.4275
33466SOL    HW112122   7.677  10.169  10.110 -0.0427 -0.2795  1.0937
33466SOL    HW212123   7.586  10.168  10.232 -2.4718 -0.1377 -0.6370
33467SOL     OW12124  10.281  11.407   3.524 -0.6010 -0.2362  0.1590
33467SOL    HW112125  10.205  11.349   3.513 -1.2009  0.5910 -0.1580
33467SOL    HW212126  10.302  11.401   3.617 -0.5969 -1.0270  0.1181
33468SOL     OW12127   9.625   5.027   8.620 -0.8384  0.0434 -0.9900
33468SOL    HW112128   9.573   5.075   8.556 -2.6777 -2.4277 -1.5034
33468SOL    HW212129   9.673   4.962   8.569  2.2988  1.6905 -0.4254
33469SOL     OW12130   9.911   1.480  10.864 -0.1931  0.4202  0.4290
33469SOL    HW112131   9.913   1.497  10.770  0.7921  3.5988  0.8955
33469SOL    HW212132  10.003   1.476  10.890 -0.4550 -0.2954  1.3025
33470SOL     OW12133   9.300   2.032   0.743  0.1418 -0.2151  0.5248
33470SOL    HW112134   9.304   2.125   0.722 -2.0956 -0.0281  0.7598
33470SOL    HW212135   9.369   1.992   0.689 -0.5941  1.2249 -1.5928
33471SOL     OW12136  11.091   0.448   5.934 -0.2068 -0.2121 -0.2373
33471SOL    HW112137  11.035   0.370   5.930 -1.4227  0.6640 -0.9606
33471SOL    HW212138  11.138   0.440   6.017 -1.3857 -0.9931  0.3723
33472SOL     OW12139   2.280   6.259   5.687  0.1656 -0.3292  0.5436
33472SOL    HW112140   2.224   6.331   5.657  2.0653  0.3940 -1.4963
33472SOL    HW212141   2.219   6.199   5.732 -1.9404  1.1934 -0.1143
33473SOL     OW12142   9.140   9.670   7.345 -0.3645 -0.6405 -0.1560
33473SOL    HW112143   9.079   9.606   7.382 -1.0630  0.7940  1.2920
33473SOL    HW212144   9.221   9.655   7.393 -0.6250 -0.2468  0.4245
33474SOL     OW12145   3.721   1.818  11.531 -0.3647 -0.2484  0.4132
33474SOL    HW112146   3.687   1.883  11.592 -0.3742 -0.7242  0.9188
33474SOL    HW212147   3.810   1.848  11.511 -0.3996 -0.0335  0.5780
33475SOL     OW12148   3.312   5.674  11.616 -0.0996 -0.5145 -0.6593
33475SOL    HW112149   3.336   5.760  11.581 -0.0062 -0.0854  0.4273
33475SOL    HW212150   3.228   5.689  11.660  0.6909 -0.5957  0.9356
33476SOL     OW12151  10.523   7.365   8.066  0.2528 -0.7352 -0.3944
33476SOL    HW112152  10.428   7.373   8.069  0.3368  0.1767 -0.0186
33476SOL    HW212153  10.554   7.402   8.149  0.9979  0.0041 -0.9798
33477SOL     OW12154   0.308   4.625   6.638  0.1383 -0.4622  0.1796
33477SOL    HW112155   0.286   4.715   6.664  0.2207 -0.0764 -1.0384
33477SOL    HW212156   0.225   4.578   6.644 -0.1166 -0.0607 -0.1509
33478SOL     OW12157   1.078  11.002   9.426 -0.5173 -0.1370 -0.3208
33478SOL    HW112158   1.071  11.080   9.482 -2.2071 -0.0851 -0.5436
33478SOL    HW212159   1.110  11.036   9.343  2.3242 -0.2583  0.6219
33479SOL     OW12160   3.817   8.662   3.473 -0.7608  0.1037  0.0198
33479SOL    HW112161   3.747   8.687   3.534 -0.0859 -0.4343  1.0471
33479SOL    HW212162   3.889   8.720   3.495 -0.9703  0.8728 -1.2532
33480SOL     OW12163   9.706   5.955   5.600 -0.8241 -0.4727  0.0260
33480SOL    HW112164   9.737   5.888   5.660 -0.4077 -1.1407 -0.8999
33480SOL    HW212165   9.667   5.907   5.527 -1.9258  0.3292  0.0612
33481SOL     OW12166  10.173   4.691   2.480  0.0469  0.1647 -0.1721
33481SOL    HW112167  10.190   4.684   2.386  1.9096 -2.0820  0.2402
33481SOL    HW212168  10.097   4.633   2.494  0.2114 -0.0589 -0.1979
33482SOL     OW12169  11.767   9.064   0.582  0.3491 -0.0983 -0.2271
33482SOL    HW112170  11.797   9.055   0.492  1.0190 -0.9504  0.0643
33482SOL    HW212171  11.727   8.980   0.603 -0.9227  0.5187 -0.1150
33483SOL     OW12172   1.570   7.058   6.887  0.1204  0.3231  0.5851
33483SOL    HW112173   1.618   6.982   6.921 -0.4530 -1.7519 -2.7583
33483SOL    HW212174   1.623   7.090   6.815 -1.3903  0.7217 -0.4068
33484SOL     OW12175  11.673   0.382   1.251 -0.2098  0.1081  0.0519
33484SOL    HW112176  11.734   0.422   1.313  0.8019  3.7499 -2.9156
33484SOL    HW212177  11.723   0.311   1.209  0.1763 -0.2778  1.1459
33485SOL     OW12178   9.885   3.334   0.747  0.2373 -0.8599  0.1708
33485SOL    HW112179   9.915   3.292   0.828  1.7111  1.3720  0.8945
33485SOL    HW212180   9.948   3.405   0.733 -2.5665  1.7072 -0.4183
33486SOL     OW12181   6.864   2.234   4.272 -0.1163  0.4786 -0.6153
33486SOL    HW112182   6.811   2.297   4.223 -0.6071 -1.0913 -2.2274
33486SOL    HW212183   6.908   2.182   4.204  0.5650 -0.6573  0.6552
33487SOL     OW12184   0.092   0.726   5.598 -0.7258 -0.5807 -0.0769
33487SOL    HW112185   0.169   0.696   5.646 -0.8942 -2.4818 -0.9159
33487SOL    HW212186   0.121   0.804   5.552  0.1292 -0.1521  1.1347
33488SOL     OW12187  11.209   9.016   7.163  0.1016 -0.5429 -0.3903
33488SOL    HW112188  11.148   8.997   7.091 -1.0918  0.7817  0.2130
33488SOL    HW212189  11.295   9.018   7.122 -0.7711  3.2101 -2.5217
33489SOL     OW12190  11.208   1.022   5.549  0.0225  0.0492 -0.1592
33489SOL    HW112191  11.121   0.992   5.526 -0.9540  0.7112  2.3146
33489SOL    HW212192  11.244   1.057   5.468 -1.7743 -0.7701 -1.3645
33490SOL     OW12193   8.840   1.967   3.842  0.3333  0.1466  0.0286
33490SOL    HW112194   8.921   1.930   3.807  1.2370  2.0876 -0.0729
33490SOL    HW212195   8.843   1.946   3.936  0.7975 -0.0718 -0.0320
33491SOL     OW12196   9.654  11.705  11.427 -0.2216 -0.0797  0.5254
33491SOL    HW112197   9.713  11.778  11.447 -0.0956 -0.4291  1.4999
33491SOL    HW212198   9.699  11.657  11.357  1.3166 -1.0640  2.1170
33492SOL     OW12199  10.714   4.286   7.089  0.3840 -0.4929  0.0993
33492SOL    HW112200  10.683   4.239   7.011 -0.8759 -1.0933  0.9131
33492SOL    HW212201  10.732   4.375   7.059  0.1344 -0.7793 -0.9207
33493SOL     OW12202   8.641   0.807   6.403 -0.5844  0.5503 -0.6497
33493SOL    HW112203   8.650   0.888   6.352 -2.8024  0.8987 -0.5735
33493SOL    HW212204   8.635   0.738   6.338 -0.2238  0.6151 -0.7552
33494SOL     OW12205   7.496   9.051   4.371  0.2891 -0.4916 -0.1740
33494SOL    HW112206   7.581   9.006   4.377 -0.0979 -1.1314  0.7889
33494SOL    HW212207   7.444   9.013   4.442 -0.2184  1.1777  0.3861
33495SOL     OW12208   3.248   9.179   5.820  0.0851  0.5325  0.3435
33495SOL    HW112209   3.273   9.093   5.785 -1.2069 -0.6635  2.1299
33495SOL    HW212210   3.216   9.227   5.745  0.7285 -0.6063 -0.6929
33496SOL     OW12211   0.237   4.297   6.425 -0.2948  0.0190  0.2538
33496SOL    HW112212   0.320   4.326   6.388 -0.4666 -0.8989 -0.9200
33496SOL    HW212213   0.224   4.209   6.389  0.1537 -1.5605  3.5502
33497SOL     OW12214  11.351   3.257   4.391 -0.6291 -0.0760 -0.3800
33497SOL    HW112215  11.322   3.190   4.453  0.5588  1.4583  1.9858
33497SOL    HW212216  11.439   3.230   4.365 -1.0574 -0.6230 -1.3339
33498SOL     OW12217   2.282   9.568   2.339  0.1570 -0.1260  0.0029
33498SOL    HW112218   2.311   9.493   2.286  1.1377  0.4947 -0.3604
33498SOL    HW212219   2.224   9.530   2.405  0.4254 -1.1685 -0.3461
33499SOL     OW12220   5.560   2.180   9.754  0.2605 -0.0117  0.0813
33499SOL    HW112221   5.482   2.194   9.701 -0.0657 -0.0850  0.5284
33499SOL    HW212222   5.533   2.113   9.817  0.6173  0.1183  0.3735
33500SOL     OW12223   4.405   1.385  11.597  0.2134 -0.0319  0.1804
33500SOL    HW112224   4.476   1.341  11.643  0.9420  0.9965  0.0960
33500SOL    HW212225   4.411   1.353  11.507  2.8321  2.4711 -0.7309
33501SOL     OW12226   3.287   2.861   2.344 -0.2266  0.1625 -0.0952
33501SOL    HW112227   3.299   2.955   2.350 -0.8967  0.3200 -1.0047
33501SOL    HW212228   3.371   2.827   2.314 -0.4808  0.6754 -1.4438
33502SOL     OW12229   3.746   5.699   4.160 -0.9122  0.1589 -0.0530
33502SOL    HW112230   3.708   5.738   4.080  0.3785  2.2879  0.2852
33502SOL    HW212231   3.686   5.725   4.230  0.7977  3.2273  0.4301
33503SOL     OW12232   4.973   8.391   2.866  0.5726 -0.0020 -0.3977
33503SOL    HW112233   4.953   8.482   2.843 -0.6415 -0.8999 -3.3222
33503SOL    HW212234   5.060   8.395   2.906  0.2344  2.4968  0.2819
33504SOL     OW12235   2.122   1.692  11.835  0.5784  0.5642  0.4454
33504SOL    HW112236   2.048   1.753  11.837  0.6665  0.7330 -0.7208
33504SOL    HW212237   2.160   1.696  11.923 -1.4320 -0.3372  1.4037
33505SOL     OW12238   4.751   6.674  11.013 -0.1229  0.3381 -0.7996
33505SOL    HW112239   4.664   6.686  11.049  0.7583  1.5727  1.0293
33505SOL    HW212240   4.753   6.582  10.985 -1.1462 -0.4519  1.5489
33506SOL     OW12241   1.544   5.423   6.104  0.3121  0.2084 -0.0232
33506SOL    HW112242   1.632   5.435   6.140  0.2358 -2.8848  1.5405
33506SOL    HW212243   1.559   5.388   6.016  0.5814  1.1779 -0.3798
33507SOL     OW12244   3.814   7.786   1.011 -0.4094  0.2806  0.2686
33507SOL    HW112245   3.822   7.858   1.073 -0.0609  1.1837 -0.7873
33507SOL    HW212246   3.899   7.782   0.968 -0.8193  0.0515 -0.5415
33508SOL     OW12247   1.974  10.024   5.040  0.2877 -0.4200  0.4033
33508SOL    HW112248   2.015  10.077   5.108 -1.6170  2.2325 -0.3742
33508SOL    HW212249   2.038  10.022   4.969  0.9427 -0.3701  0.9821
33509SOL     OW12250   9.657   7.544   6.746 -0.1480  0.0990  0.0184
33509SOL    HW112251   9.742   7.513   6.776 -0.7085 -1.4724  0.0786
33509SOL    HW212252   9.656   7.522   6.652 -0.1790  0.8554 -0.1648
33510SOL     OW12253  11.421   1.395   3.384 -0.3349  0.0322  0.0611
33510SOL    HW112254  11.356   1.450   3.430 -2.5010 -0.2347 -2.4107
33510SOL    HW212255  11.426   1.315   3.436 -2.7683 -0.3131 -0.1207
33511SOL     OW12256   9.482   6.875   4.434 -0.0859  0.1583 -0.4359
33511SOL    HW112257   9.504   6.851   4.344 -0.1805  0.5432 -0.5630
33511SOL    HW212258   9.446   6.794   4.472  1.2596 -0.4111 -0.3072
33512SOL     OW12259   7.523   6.043   3.916  0.3084 -0.5386 -0.0648
33512SOL    HW112260   7.443   6.076   3.876  1.0356  0.6821 -0.5715
33512SOL    HW212261   7.564   6.120   3.956  0.0679 -1.5487  2.2967
33513SOL     OW12262  10.623   1.875   8.757  0.0347 -0.0443 -0.5552
33513SOL    HW112263  10.554   1.941   8.768  0.9104  1.8299 -4.3840
33513SOL    HW212264  10.581   1.804   8.709 -0.1343 -0.8402  0.7296
33514SOL     OW12265   4.553   5.856   2.897  0.2629 -0.3960 -0.0444
33514SOL    HW112266   4.494   5.926   2.870  1.3948  0.1282 -1.3019
33514SOL    HW212267   4.536   5.845   2.990 -1.2959  0.2172 -0.2191
33515SOL     OW12268   0.574   0.981   9.890 -0.5842  0.1674 -0.3620
33515SOL    HW112269   0.665   0.983   9.861 -0.8040 -1.7569 -1.4260
33515SOL    HW212270   0.524   0.986   9.808 -1.4041  0.3082  0.1433
33516SOL     OW12271   1.212   3.534   2.552  0.4067 -0.1284  0.3086
33516SOL    HW112272   1.133   3.492   2.519 -0.2077 -0.4678  2.1210
33516SOL    HW212273   1.254   3.571   2.474 -0.0755 -2.3136 -1.0596
33517SOL     OW12274   8.405   4.891   0.925  0.4219  0.1183  0.2377
33517SOL    HW112275   8.461   4.910   0.850 -0.3217  1.9210  0.0995
33517SOL    HW212276   8.418   4.797   0.940 -0.9833 -0.8537 -3.4539
33518SOL     OW12277   8.865  11.524   2.480 -0.1177  0.1718 -0.5623
33518SOL    HW112278   8.837  11.562   2.563 -0.2581 -0.4350 -0.3233
33518SOL    HW212279   8.938  11.579   2.451 -0.8031  1.0778 -0.6179
33519SOL     OW12280   7.323  10.395   4.007  0.1359 -0.0439 -0.0456
33519SOL    HW112281   7.399  10.446   4.033  1.2732 -2.7922  2.5906
33519SOL    HW212282   7.255  10.460   3.990  2.0506  2.3831  1.0294
33520SOL     OW12283   6.260   7.866   9.240  0.5012  0.3347  0.1964
33520SOL    HW112284   6.256   7.834   9.330 -3.3703  0.3613  0.1701
33520SOL    HW212285   6.307   7.796   9.193  0.5735 -0.7669  1.8074
33521SOL     OW12286   6.742   8.417   9.361  0.0597 -0.0707  0.2905
33521SOL    HW112287   6.763   8.324   9.356  0.8800  0.0848  0.6844
33521SOL    HW212288   6.827   8.461   9.363 -0.2422  0.5543  2.3300
33522SOL     OW12289   0.104   0.690  11.192  0.3621  0.1872 -0.1863
33522SOL    HW112290   0.087   0.716  11.283  1.1795  1.1283 -0.2817
33522SOL    HW212291   0.045   0.617  11.177  0.3705 -0.1389  1.1770
33523SOL     OW12292   5.427   0.891   3.051 -0.0661  0.4318  0.2914
33523SOL    HW112293   5.442   0.904   2.957  0.0359  3.1624  0.6255
33523SOL    HW212294   5.514   0.879   3.088 -0.0517  0.0501  0.1377
33524SOL     OW12295   9.209  10.936  10.249 -0.0016 -0.0196  0.5914
33524SOL    HW112296   9.209  10.842  10.233 -0.8794  0.0372  0.1763
33524SOL    HW212297   9.204  10.975  10.161 -0.2264  0.4021  0.7899
33525SOL     OW12298   5.703   2.607   6.273  0.1181 -0.5585 -0.3785
33525SOL    HW112299   5.662   2.563   6.347 -0.3204  0.9033  0.2944
33525SOL    HW212300   5.651   2.686   6.260  2.0893  0.8897 -0.1027
33526SOL     OW12301   3.908   3.811   9.622 -0.5499  0.5287 -0.7929
33526SOL    HW112302   3.885   3.903   9.611  0.7806  1.4830  2.9935
33526SOL    HW212303   3.840   3.776   9.678  0.8927  0.2710  0.8708
33527SOL     OW12304   3.403   3.201   3.971 -0.2956 -0.0796 -0.1851
33527SOL    HW112305   3.323   3.228   3.926 -0.5900 -0.4840  0.0901
33527SOL    HW212306   3.472   3.253   3.930 -0.5444 -0.4764 -1.1479
33528SOL     OW12307  11.157   4.859   6.746  0.2715  0.7635 -0.1893
33528SOL    HW112308  11.139   4.871   6.839 -1.0695 -1.1701 -0.1281
33528SOL    HW212309  11.186   4.768   6.739 -1.1298  0.4009 -1.8180
33529SOL     OW12310   2.211   3.713   4.751 -0.5521 -0.0201  0.0754
33529SOL    HW112311   2.231   3.793   4.703 -0.6747 -0.5122 -0.8117
33529SOL    HW212312   2.116   3.703   4.744 -0.6128  0.0795  0.7040
33530SOL     OW12313   4.727  11.472   7.971  0.0748  0.1419 -0.4513
33530SOL    HW112314   4.678  11.546   7.935  1.1857  0.6856 -0.8565
33530SOL    HW212315   4.753  11.421   7.895 -0.0116 -0.2597 -0.2184
33531SOL     OW12316   0.111   2.557  10.084 -0.1433 -1.0634 -0.0752
33531SOL    HW112317   0.042   2.507  10.040  0.2865 -0.4400 -1.4925
33531SOL    HW212318   0.081   2.563  10.175 -2.4139 -0.0565 -0.8098
33532SOL     OW12319   2.417   8.073   9.649  0.1442 -0.4642  0.2539
33532SOL    HW112320   2.445   8.098   9.737 -0.2026 -0.7547  0.4519
33532SOL    HW212321   2.379   7.986   9.660 -1.0670  0.0266  0.0401
33533SOL     OW12322   4.393   1.306   8.830  0.0943  0.4858  0.5883
33533SOL    HW112323   4.318   1.265   8.873  1.1787 -1.2003  0.9748
33533SOL    HW212324   4.459   1.312   8.900  0.4457  1.6405  0.1760
33534SOL     OW12325   9.071  10.387  11.030  0.2634 -0.1662  0.1702
33534SOL    HW112326   8.992  10.376  11.084  0.0217  0.1676 -0.1132
33534SOL    HW212327   9.040  10.377  10.940  0.6480 -0.6214  0.0864
33535SOL     OW12328   7.882   8.685   1.990 -0.6382  0.6652  0.5848
33535SOL    HW112329   7.936   8.676   1.912 -1.2315 -0.0074  0.2355
33535SOL    HW212330   7.807   8.736   1.962 -2.2920 -1.9384 -0.1026
33536SOL     OW12331  10.521   4.312   7.298 -0.3174  0.5905 -0.4502
33536SOL    HW112332  10.564   4.293   7.381 -0.4296  0.8403 -0.3352
33536SOL    HW212333  10.589   4.294   7.232 -0.5394 -0.6015 -0.3829
33537SOL     OW12334   8.882  10.912   4.435 -0.8737  0.3381  0.6430
33537SOL    HW112335   8.818  10.854   4.392 -0.1918 -0.8499  1.1626
33537SOL    HW212336   8.957  10.913   4.376 -0.9254  0.7750  0.5882
33538SOL     OW12337   5.307   7.726   4.353 -0.3933  0.0916  0.3204
33538SOL    HW112338   5.400   7.747   4.348 -0.3574 -0.3183 -0.9190
33538SOL    HW212339   5.268   7.770   4.278 -0.9114 -1.2016 -0.1904
33539SOL     OW12340   7.601   8.014   2.066  0.2442 -0.2279 -0.0807
33539SOL    HW112341   7.518   8.033   2.023  0.2604 -1.9084 -0.9207
33539SOL    HW212342   7.656   7.977   1.997  0.8047 -1.5434  1.0350
33540SOL     OW12343   5.829   4.995   9.426 -0.5378 -0.0087  0.1334
33540SOL    HW112344   5.801   4.920   9.479 -1.1961  0.1315 -0.0059
33540SOL    HW212345   5.873   5.054   9.488  0.0982 -0.5590  0.2203
33541SOL     OW12346   6.244   4.564   7.326 -0.0838 -0.5589 -0.7300
33541SOL    HW112347   6.324   4.557   7.378 -0.4269 -0.7137 -0.2174
33541SOL    HW212348   6.173   4.564   7.390 -0.4024  2.3262 -0.9526
33542SOL     OW12349   4.065   7.661   1.133  0.0845 -0.0553  0.1954
33542SOL    HW112350   4.000   7.646   1.201  0.8363  0.7744  1.1195
33542SOL    HW212351   4.150   7.651   1.177  0.5839  1.2861 -0.4036
33543SOL     OW12352   1.879   8.693   4.085  0.2620  0.4429  0.1349
33543SOL    HW112353   1.968   8.724   4.098  0.4272  0.7166 -1.4352
33543SOL    HW212354   1.889   8.607   4.043 -0.1913  0.8881 -0.9178
33544SOL     OW12355   9.443   7.665   5.311  0.5903  0.6047 -0.6265
33544SOL    HW112356   9.512   7.647   5.375  1.1681 -0.9086 -1.6156
33544SOL    HW212357   9.469   7.749   5.271  1.2050  0.6425 -0.1637
33545SOL     OW12358   9.583   6.307   0.147  0.3025  0.4499  0.0338
33545SOL    HW112359   9.601   6.215   0.125 -0.5443  0.6626 -1.7105
33545SOL    HW212360   9.617   6.357   0.073 -0.8643  1.4001  0.1147
33546SOL     OW12361  11.861   1.502   7.965 -0.3497  0.3049 -0.3410
33546SOL    HW112362  11.945   1.529   8.002 -0.3296 -0.6601  0.3536
33546SOL    HW212363  11.883   1.436   7.900 -0.6266 -1.0681  0.8997
33547SOL     OW12364   3.395   5.290  10.991  0.8363  0.3853  0.6727
33547SOL    HW112365   3.301   5.274  11.001  0.5626  0.8451 -0.9411
33547SOL    HW212366   3.432   5.265  11.076 -0.5477 -1.1542  0.8809
33548SOL     OW12367   5.965   2.726   5.094  0.2331 -0.2117 -0.9805
33548SOL    HW112368   5.965   2.765   5.182 -0.0588 -0.1558 -1.0052
33548SOL    HW212369   5.873   2.709   5.075  0.4176 -1.8313 -0.5610
33549SOL     OW12370   0.877   0.492   6.119 -0.0658 -0.2000 -0.1315
33549SOL    HW112371   0.834   0.447   6.192 -0.0029 -0.7340 -0.4236
33549SOL    HW212372   0.900   0.423   6.058 -0.1220  0.2495 -0.6661
33550SOL     OW12373  10.968  10.603   5.025  0.4384  0.6470 -0.3374
33550SOL    HW112374  10.930  10.689   5.010 -0.1409  0.9224  2.2195
33550SOL    HW212375  11.025  10.615   5.102  0.0727 -1.3071  0.2891
33551SOL     OW12376   8.003  10.343   7.566 -0.3626  0.3103  0.3436
33551SOL    HW112377   7.961  10.423   7.598 -0.7929  0.6240 -0.9695
33551SOL    HW212378   8.051  10.309   7.642 -1.8187  0.7104  1.4861
33552SOL     OW12379   9.066   3.623   1.021  0.1348 -0.8387  0.1222
33552SOL    HW112380   9.017   3.587   0.947 -0.5982 -0.6217  0.4865
33552SOL    HW212381   9.000   3.670   1.072  1.0056  0.8632 -0.2300
33553SOL     OW12382   0.753   8.473   0.057  0.3640  0.2596 -0.0329
33553SOL    HW112383   0.715   8.390   0.027  0.9919  0.4222 -1.3468
33553SOL    HW212384   0.680   8.520   0.097 -0.0693 -0.7903  0.4419
33554SOL     OW12385   1.891   0.739   3.709 -0.0130  0.2534  0.2891
33554SOL    HW112386   1.838   0.662   3.687  0.9535 -0.6369  0.9502
33554SOL    HW212387   1.859   0.808   3.651 -1.4104 -0.4418  0.1916
33555SOL     OW12388   2.238  11.945   8.922 -0.0923  0.4696 -0.0066
33555SOL    HW112389   2.294  11.970   8.996 -1.0943  2.2919  0.1980
33555SOL    HW212390   2.245  11.850   8.918  0.6330  0.3880  1.9283
33556SOL     OW12391   3.965   4.536   4.301 -0.0536  0.5338  0.3174
33556SOL    HW112392   3.893   4.501   4.248  0.0988 -0.0761  0.5123
33556SOL    HW212393   3.989   4.618   4.258 -0.9589  0.8175  0.3278
33557SOL     OW12394   5.187   8.704   6.769  0.0617  0.1335 -0.1497
33557SOL    HW112395   5.194   8.704   6.674  0.5247 -0.6067 -0.1199
33557SOL    HW212396   5.095   8.722   6.787 -0.3010 -1.0874 -0.7605
33558SOL     OW12397   9.500   9.551  10.481  0.0788 -0.0427  0.6342
33558SOL    HW112398   9.575   9.610  10.477 -0.8489  1.1238 -0.4572
33558SOL    HW212399   9.428   9.601  10.443 -1.3738 -0.9787  2.0311
33559SOL     OW12400   3.811   4.250  10.601  0.9667  0.8873  0.4857
33559SOL    HW112401   3.840   4.221  10.688  1.8612 -0.2580 -0.1692
33559SOL    HW212402   3.848   4.338  10.592  0.6559  1.1129  1.3640
33560SOL     OW12403   4.185   3.909   6.841 -0.8724  0.1614 -0.0859
33560SOL    HW112404   4.211   3.817   6.838  0.8485  0.3731  3.2459
33560SOL    HW212405   4.154   3.922   6.931 -1.2261  2.7939 -0.5071
33561SOL     OW12406   1.432  10.998   0.110 -0.4680 -0.5136 -0.0395
33561SOL    HW112407   1.403  11.086   0.086  0.2595 -0.0422  0.7503
33561SOL    HW212408   1.452  10.955   0.027 -0.5326  0.1707 -0.4077
33562SOL     OW12409   4.226   2.549   6.802  0.4547 -0.6804 -0.2561
33562SOL    HW112410   4.271   2.501   6.733  0.1023  1.1489 -1.8484
33562SOL    HW212411   4.146   2.582   6.761  0.3595  0.6770  0.9339
33563SOL     OW12412   9.941   8.499   3.352  0.6717 -0.3385  0.5007
33563SOL    HW112413   9.922   8.412   3.316 -1.5084  0.5860 -0.8138
33563SOL    HW212414   9.857   8.531   3.384  1.1001  1.7953 -0.2817
33564SOL     OW12415   2.217   5.687   6.875  0.6041 -0.0313 -0.1607
33564SOL    HW112416   2.196   5.618   6.812 -0.6907 -1.5672  1.8291
33564SOL    HW212417   2.307   5.669   6.902  0.1680 -1.2003  0.5857
33565SOL     OW12418  11.630   3.061   4.999  0.4473  0.3951  0.2789
33565SOL    HW112419  11.695   3.052   5.069  1.7768  0.6355 -0.8908
33565SOL    HW212420  11.675   3.108   4.929 -1.6848  2.6337  0.2717
33566SOL     OW12421   7.896   1.405   5.174 -0.4178 -0.1977  0.0363
33566SOL    HW112422   7.972   1.375   5.124 -1.4478 -0.4241 -1.4934
33566SOL    HW212423   7.844   1.326   5.189 -2.7405  0.4738 -3.2932
33567SOL     OW12424  10.289  11.726   4.239  0.0127 -0.4773  0.7753
33567SOL    HW112425  10.362  11.666   4.224  0.6049 -0.1131  2.0616
33567SOL    HW212426  10.223  11.673   4.284  0.0522 -0.4676  0.8454
33568SOL     OW12427  11.393   5.764   8.317  0.2408 -0.7903 -0.2648
33568SOL    HW112428  11.314   5.746   8.266 -0.6735  0.7517  0.5212
33568SOL    HW212429  11.459   5.704   8.282 -1.0695 -1.5974 -1.4474
33569SOL     OW12430   5.110   3.546   3.521  0.3653 -0.3564 -0.1373
33569SOL    HW112431   5.155   3.627   3.545 -0.2273  0.0992 -0.5485
33569SOL    HW212432   5.179   3.479   3.524  0.5785 -0.1052  1.5352
33570SOL     OW12433   8.518  11.470  10.017  0.1053 -0.1906  0.0418
33570SOL    HW112434   8.582  11.471  10.088  0.4521  1.1276 -0.2647
33570SOL    HW212435   8.434  11.485  10.060 -0.0189 -1.8062  0.4312
33571SOL     OW12436   8.401  10.036   8.128 -0.2529 -0.3290  0.1193
33571SOL    HW112437   8.373  10.025   8.037 -2.6094  1.5849  0.4994
33571SOL    HW212438   8.337   9.986   8.179  1.5023 -2.0400  0.7765
33572SOL     OW12439   7.632   9.835   5.230 -0.1647  0.0312 -0.2746
33572SOL    HW112440   7.697   9.782   5.275 -0.6199 -0.3388 -0.0570
33572SOL    HW212441   7.567   9.857   5.297 -0.0020  0.8300 -0.3688
33573SOL     OW12442   8.397   0.266   6.956 -0.1199  0.4523 -0.5052
33573SOL    HW112443   8.371   0.263   6.864  0.9978 -0.6586 -0.8114
33573SOL    HW212444   8.320   0.300   7.001 -0.7138  0.9664 -1.8315
33574SOL     OW12445   1.741   7.112   0.891 -0.2165  0.2306 -0.0981
33574SOL    HW112446   1.832   7.088   0.907 -0.2537 -0.7914 -1.2563
33574SOL    HW212447   1.738   7.206   0.909  0.7172  0.0199  1.3242
33575SOL     OW12448   4.939   3.768   1.372 -0.5681 -0.0985 -0.1843
33575SOL    HW112449   4.968   3.689   1.418  1.8602 -0.2185 -1.7152
33575SOL    HW212450   4.891   3.736   1.296 -2.2285  0.0353  0.7613
33576SOL     OW12451   6.540   3.135   2.404  0.4716 -0.0592 -0.3869
33576SOL    HW112452   6.586   3.193   2.466 -0.0682 -0.4221  0.3613
33576SOL    HW212453   6.589   3.053   2.408  0.0225 -0.3099  0.0959
33577SOL     OW12454   3.250   6.674  11.175  0.5130 -0.3363  0.3530
33577SOL    HW112455   3.278   6.605  11.115 -0.7111  1.4147 -2.4638
33577SOL    HW212456   3.317   6.742  11.166  0.4440 -0.1477  1.1872
33578SOL     OW12457  10.452   5.510  11.521 -0.0776  0.6453 -0.5745
33578SOL    HW112458  10.386   5.474  11.460 -0.1542 -0.0198 -0.1092
33578SOL    HW212459  10.404   5.573  11.574 -1.0625 -1.7357  1.5884
33579SOL     OW12460   2.202  11.319   1.154 -0.1016  0.2891  0.2643
33579SOL    HW112461   2.234  11.235   1.121 -1.0505 -0.2730  0.7178
33579SOL    HW212462   2.106  11.311   1.150 -0.2046  1.2541  0.5489
33580SOL     OW12463   1.645   8.702   4.591 -0.4636 -0.0194 -0.4671
33580SOL    HW112464   1.727   8.752   4.590  0.8388 -2.0263 -0.0102
33580SOL    HW212465   1.640   8.662   4.504  0.0728 -1.4075  0.1092
33581SOL     OW12466   3.031   0.315   6.214  0.5734 -0.1068 -0.1587
33581SOL    HW112467   3.098   0.256   6.248  0.9984 -1.0937 -2.5097
33581SOL    HW212468   2.950   0.264   6.220 -0.2326  1.3431  3.3553
33582SOL     OW12469   5.325   7.156   4.951 -0.1029  0.3081  0.3863
33582SOL    HW112470   5.341   7.183   5.042 -0.5774  0.6101  0.3876
33582SOL    HW212471   5.281   7.232   4.912  1.5933  0.8489 -0.5745
33583SOL     OW12472  10.480   5.689   1.990  0.3821 -0.3707 -0.0368
33583SOL    HW112473  10.518   5.681   1.903 -0.8382 -0.0860 -0.6063
33583SOL    HW212474  10.549   5.657   2.049  1.0172 -1.0710 -1.1285
33584SOL     OW12475   3.117   8.851   5.715  0.3731 -0.0185 -0.7849
33584SOL    HW112476   3.108   8.800   5.635  1.4586  1.0794 -1.6419
33584SOL    HW212477   3.202   8.894   5.707  0.5157  0.0979  0.9794
33585SOL     OW12478   8.949   8.115   5.072  0.2123  0.0196 -0.1910
33585SOL    HW112479   9.006   8.166   5.130  1.3865 -0.3101 -1.0076
33585SOL    HW212480   8.911   8.048   5.129 -1.3811  1.7653  0.9079
33586SOL     OW12481   1.486   4.879  11.561 -0.1471 -0.1671 -0.4720
33586SOL    HW112482   1.483   4.871  11.656  1.6410 -1.0595 -0.4499
33586SOL    HW212483   1.481   4.973  11.544 -0.9076 -0.0193  0.4493
33587SOL     OW12484   3.704   7.867   8.972 -0.1602 -0.1036  0.1466
33587SOL    HW112485   3.671   7.925   9.040  0.5115 -1.6867  1.9297
33587SOL    HW212486   3.795   7.895   8.957  0.5167 -1.2587  1.7791
33588SOL     OW12487   9.267   3.888   7.271  0.3599 -0.2421  0.0466
33588SOL    HW112488   9.288   3.966   7.323 -1.4324  1.2698 -1.3218
33588SOL    HW212489   9.333   3.886   7.202  0.6731 -0.1834  0.3448
33589SOL     OW12490   7.839   8.464  10.459  0.7718  0.4486 -0.1086
33589SOL    HW112491   7.807   8.418  10.537  1.0259 -0.3679 -0.4746
33589SOL    HW212492   7.761   8.476  10.404  1.0687 -1.8147 -1.1400
33590SOL     OW12493  11.736   0.736  11.384  0.3916  0.1373 -0.1599
33590SOL    HW112494  11.809   0.797  11.387  0.2135  0.3429  0.1425
33590SOL    HW212495  11.734   0.703  11.294  0.9133  0.0550 -0.1403
33591SOL     OW12496   2.009   0.485  11.144 -0.3571 -0.1154  0.3550
33591SOL    HW112497   1.992   0.482  11.238 -1.6938 -0.3674  0.1253
33591SOL    HW212498   2.000   0.578  11.121 -0.9247 -0.1734  0.3300
33592SOL     OW12499   1.784   2.262   4.110 -0.5335 -0.0645 -0.5280
33592SOL    HW112500   1.799   2.168   4.104 -1.7866 -0.3266  0.0349
33592SOL    HW212501   1.741   2.274   4.194 -0.0197  1.0756 -0.4078
33593SOL     OW12502   0.118   7.146   8.229  0.3152 -0.3260  0.0953
33593SOL    HW112503   0.032   7.134   8.188  0.9014  0.6635 -1.5006
33593SOL    HW212504   0.180   7.115   8.163  1.3221  1.8547 -0.0507
33594SOL     OW12505   4.384   8.099   5.349  0.2730  0.3633 -0.1652
33594SOL    HW112506   4.411   8.107   5.441  0.1766  0.2868 -0.1292
33594SOL    HW212507   4.325   8.173   5.335  1.1240  1.0045 -0.4766
33595SOL     OW12508   3.348  10.329   8.893  0.1482  0.0842 -0.1884
33595SOL    HW112509   3.292  10.374   8.830  0.9259  0.7574 -0.4047
33595SOL    HW212510   3.377  10.397   8.953 -0.0627 -0.4384  0.5289
33596SOL     OW12511   2.304  11.002   5.322  0.1330 -0.0136 -0.4111
33596SOL    HW112512   2.385  10.989   5.273 -0.0121 -2.5904 -0.0702
33596SOL    HW212513   2.329  10.989   5.414 -0.5757 -0.4255 -0.2694
33597SOL     OW12514   7.119  10.565   2.205  0.0044  0.3900 -0.7885
33597SOL    HW112515   7.154  10.639   2.155  0.0045  1.3760  0.6449
33597SOL    HW212516   7.124  10.592   2.296 -1.4882 -0.7392 -0.3249
33598SOL     OW12517   2.295   8.456   0.397  0.1399 -0.5621 -0.0091
33598SOL    HW112518   2.235   8.391   0.361 -1.0708 -0.7127  2.1416
33598SOL    HW212519   2.369   8.404   0.430 -0.0044 -0.6587  0.1577
33599SOL     OW12520  10.130   1.250  11.159  0.4777  0.0444 -0.1923
33599SOL    HW112521  10.198   1.182  11.160 -0.3398 -0.8283  1.2257
33599SOL    HW212522  10.165   1.319  11.103  1.9938 -0.9055 -0.4801
33600SOL     OW12523  11.057   7.679   8.373  0.2889  0.3262  0.0496
33600SOL    HW112524  11.008   7.643   8.446  0.4045  0.8928  0.4141
33600SOL    HW212525  10.997   7.741   8.332  0.4353  0.4611  0.0367
33601SOL     OW12526   0.113   4.328   3.868  0.0467  0.1304  0.4824
33601SOL    HW112527   0.063   4.403   3.900  1.3806  1.2705 -0.0238
33601SOL    HW212528   0.135   4.350   3.778  0.8693 -0.6412  0.4768
33602SOL     OW12529   5.377   0.119  11.850 -0.0013  0.4088  0.2014
33602SOL    HW112530   5.309   0.101  11.785  0.5572  2.3615 -0.9872
33602SOL    HW212531   5.433   0.185  11.809  1.0563  0.8380  2.2170
33603SOL     OW12532   1.849   4.325   5.533 -0.3438  0.0033  0.3897
33603SOL    HW112533   1.896   4.407   5.546  0.3587 -0.1995 -0.7664
33603SOL    HW212534   1.851   4.282   5.619  1.6405 -0.0178  0.3736
33604SOL     OW12535   0.865   6.042  10.145  0.2661 -0.3013 -0.1147
33604SOL    HW112536   0.828   6.126  10.116  0.9675  0.2613  0.6067
33604SOL    HW212537   0.937   6.026  10.085 -1.6200 -1.8806 -2.1572
33605SOL     OW12538   4.240   7.748   9.379  0.3561 -0.2850 -0.3329
33605SOL    HW112539   4.197   7.743   9.464 -0.5799 -0.8215 -0.8069
33605SOL    HW212540   4.307   7.816   9.389  0.1469 -0.2206  0.7683
33606SOL     OW12541   4.634   3.441   7.297  0.3718 -0.6108 -0.5599
33606SOL    HW112542   4.547   3.481   7.307  1.1261  1.0366 -0.2597
33606SOL    HW212543   4.650   3.397   7.381  0.1196 -0.3136 -0.3532
33607SOL     OW12544  11.453   4.214   0.836 -0.0793  0.6418 -0.0503
33607SOL    HW112545  11.423   4.294   0.793  1.3576  0.2681 -1.8370
33607SOL    HW212546  11.487   4.159   0.766 -1.6898 -1.9088  1.0202
33608SOL     OW12547   6.725  10.283  11.030 -0.3870 -0.1614  0.1684
33608SOL    HW112548   6.666  10.306  10.959  1.5258  0.2801 -1.3860
33608SOL    HW212549   6.769  10.365  11.052  1.1760 -0.8385 -0.2564
33609SOL     OW12550  11.810  10.907  10.100  0.4219  0.1221  0.0985
33609SOL    HW112551  11.774  10.965  10.033 -1.7676  0.8291  1.7489
33609SOL    HW212552  11.781  10.819  10.073  0.3869  0.2783 -0.3851
33610SOL     OW12553  10.106   5.651   7.545  0.4803  0.2733  0.3547
33610SOL    HW112554  10.123   5.559   7.526 -0.4632  0.5038 -1.8914
33610SOL    HW212555  10.191   5.694   7.532  0.8623 -0.2293  1.1519
33611SOL     OW12556   5.722   3.003   2.099  0.0449  1.1598  0.0279
33611SOL    HW112557   5.656   2.941   2.066  0.5072  1.5218 -1.6651
33611SOL    HW212558   5.698   3.087   2.060  1.9418  1.1365 -1.3017
33612SOL     OW12559   0.780   9.208   8.649  0.4244 -0.0379 -0.2142
33612SOL    HW112560   0.797   9.114   8.641  1.6589  0.1780 -0.2568
33612SOL    HW212561   0.832   9.248   8.580 -1.2886  0.5833 -1.1989
33613SOL     OW12562   6.774  11.453   0.395  0.4011 -0.6434  0.0181
33613SOL    HW112563   6.678  11.455   0.399  0.4425  0.2370  0.8795
33613SOL    HW212564   6.793  11.378   0.338 -0.7828 -1.0740  0.1400
33614SOL     OW12565   4.505   1.085   3.492  0.1417  0.0079  0.0576
33614SOL    HW112566   4.437   1.098   3.427 -1.2342  2.3425  1.7785
33614SOL    HW212567   4.466   1.029   3.559  0.1579  0.6841  0.6543
33615SOL     OW12568   8.184   3.636   0.960  0.4232 -0.2518 -0.0153
33615SOL    HW112569   8.265   3.603   0.922  1.9400  1.4701  1.5186
33615SOL    HW212570   8.195   3.623   1.054 -0.0062  2.1617  0.4197
33616SOL     OW12571   9.011   3.545  10.486  0.3283 -0.1077 -0.3243
33616SOL    HW112572   8.967   3.579  10.564 -0.9277  1.0993 -1.4938
33616SOL    HW212573   9.080   3.609  10.467  0.9973 -0.6983  0.1195
33617SOL     OW12574   5.828   3.680   9.327 -0.3564 -0.3317  0.1013
33617SOL    HW112575   5.817   3.732   9.406 -1.2533 -0.7115  0.2298
33617SOL    HW212576   5.862   3.596   9.357 -0.1674 -0.2815  0.0287
33618SOL     OW12577  10.095   7.587   9.930 -0.4693 -0.2019  0.5253
33618SOL    HW112578  10.027   7.623   9.987 -2.1169 -1.4755 -0.5529
33618SOL    HW212579  10.048   7.551   9.855  1.1476 -3.2988  0.8208
33619SOL     OW12580   6.290   1.214   8.257 -0.1890  0.0752 -0.3216
33619SOL    HW112581   6.331   1.281   8.313 -0.9218  0.6988 -0.5078
33619SOL    HW212582   6.200   1.210   8.287 -0.0592 -1.1388 -0.0507
33620SOL     OW12583   9.697   3.868   2.750 -0.1928  0.3500  0.3808
33620SOL    HW112584   9.616   3.914   2.775 -0.4889 -0.4979  1.0004
33620SOL    HW212585   9.757   3.885   2.822 -0.2686 -0.1442  0.5610
33621SOL     OW12586   8.491   8.272   7.680  0.5704 -0.0437 -0.2941
33621SOL    HW112587   8.436   8.221   7.740 -1.9622  0.0763 -2.3554
33621SOL    HW212588   8.468   8.363   7.698  1.7178  0.1617  0.2478
33622SOL     OW12589   9.272  11.382   6.206 -0.5996 -0.0488 -0.6231
33622SOL    HW112590   9.219  11.453   6.171 -1.6852 -0.5456 -0.0393
33622SOL    HW212591   9.360  11.420   6.215 -1.1920  1.2749 -0.1403
33623SOL     OW12592   8.244   6.942   2.375  0.1209  0.5605 -0.0173
33623SOL    HW112593   8.319   6.978   2.424 -0.9473  0.5293  1.7352
33623SOL    HW212594   8.199   6.885   2.438 -0.6801 -0.4408 -1.4219
33624SOL     OW12595   1.073   5.698   8.795 -0.0324 -0.3749  0.0423
33624SOL    HW112596   1.156   5.651   8.783 -1.0380 -2.3417  0.3641
33624SOL    HW212597   1.092   5.763   8.863  1.5180 -0.0018 -0.7025
33625SOL     OW12598   6.670   0.264   2.225 -0.3466  0.3726 -0.4700
33625SOL    HW112599   6.625   0.280   2.308  1.4082  1.3583  0.3399
33625SOL    HW212600   6.688   0.351   2.190 -0.0790 -0.0174 -1.3381
33626SOL     OW12601   3.654   3.608   3.163 -0.6831 -0.2554  0.3382
33626SOL    HW112602   3.700   3.537   3.208 -0.4046  0.5974  1.4628
33626SOL    HW212603   3.724   3.658   3.121 -0.6776  0.3885  1.0912
33627SOL     OW12604   2.962  10.442   5.295  0.4098  0.0239 -0.2951
33627SOL    HW112605   2.994  10.360   5.258  0.3413 -0.8021  1.3839
33627SOL    HW212606   2.995  10.509   5.236 -0.0468 -1.2398 -2.0506
33628SOL     OW12607   8.262   3.350   3.777  0.5397 -0.3537  0.3444
33628SOL    HW112608   8.291   3.361   3.686  0.7867 -1.6310  0.2522
33628SOL    HW212609   8.186   3.408   3.785  1.9486  1.6553  0.0610
33629SOL     OW12610   7.247   1.241   6.528  0.2436  0.0408 -0.0182
33629SOL    HW112611   7.232   1.309   6.463 -1.0744 -1.0699 -0.9227
33629SOL    HW212612   7.192   1.168   6.500  0.5693 -0.9100  1.6796
33630SOL     OW12613   0.429   7.361   3.319  0.0180  0.2274  0.3083
33630SOL    HW112614   0.338   7.333   3.320  0.6164 -2.3569 -2.2609
33630SOL    HW212615   0.427   7.451   3.288 -1.6699  0.5905  1.3691
33631SOL     OW12616  10.357   5.456   6.904  0.5586 -0.0267 -0.5541
33631SOL    HW112617  10.279   5.400   6.911  0.5871  0.0707  0.8418
33631SOL    HW212618  10.421   5.402   6.859  0.7859 -1.4041  1.2884
33632SOL     OW12619   9.752   2.471   7.777  0.1653  0.1114 -0.8935
33632SOL    HW112620   9.761   2.485   7.683 -0.5646 -0.0442 -0.9911
33632SOL    HW212621   9.731   2.378   7.786 -2.3574  0.6034 -0.7916
33633SOL     OW12622  10.278   3.406   0.413  0.0091  0.1512  0.1941
33633SOL    HW112623  10.349   3.422   0.350  2.2177  0.2238  2.5234
33633SOL    HW212624  10.199   3.434   0.367  1.5526  0.8465 -2.2769
33634SOL     OW12625   9.812   1.799   8.022  0.1233 -0.3236 -0.2849
33634SOL    HW112626   9.811   1.895   8.032 -1.1623 -0.3783  0.2445
33634SOL    HW212627   9.798   1.784   7.929  3.4443  0.0218 -0.9743
33635SOL     OW12628  11.565   7.804   9.993  0.6690 -0.3640  0.2788
33635SOL    HW112629  11.535   7.870  10.055  1.3310 -1.3723  1.7187
33635SOL    HW212630  11.537   7.837   9.907 -0.5698  0.8860  1.1270
33636SOL     OW12631  11.645   5.782   5.201 -0.0044  0.2142 -0.2223
33636SOL    HW112632  11.725   5.818   5.163  0.7563  1.3721  2.3379
33636SOL    HW212633  11.609   5.852   5.254 -1.0867 -1.2710  1.1006
33637SOL     OW12634  10.175   5.355  11.278 -0.6954 -0.4355 -0.5926
33637SOL    HW112635  10.191   5.441  11.238  2.6937 -0.0218  1.2552
33637SOL    HW212636  10.149   5.375  11.368  3.2419 -1.1252  0.8789
33638SOL     OW12637   4.793   0.120   1.709  0.0975 -0.3086  0.0380
33638SOL    HW112638   4.701   0.104   1.733  0.2602  1.0603  1.7867
33638SOL    HW212639   4.839   0.041   1.740 -0.5979 -1.5861 -1.9976
33639SOL     OW12640   2.777   3.172   6.433  0.1870  0.4162  0.2803
33639SOL    HW112641   2.834   3.171   6.357  0.1642  1.5541  0.2296
33639SOL    HW212642   2.772   3.081   6.461  3.3687  0.4015  1.2831
33640SOL     OW12643   1.015  10.392   7.903  0.5887  0.0218  0.1402
33640SOL    HW112644   1.018  10.390   7.999 -0.2258 -2.5436  0.1874
33640SOL    HW212645   0.923  10.403   7.882  0.8322  1.2033 -0.3951
33641SOL     OW12646   7.580   7.636  11.146 -0.0128 -0.1612 -0.3323
33641SOL    HW112647   7.523   7.649  11.221 -0.4497 -1.6890 -0.3455
33641SOL    HW212648   7.538   7.684  11.075  0.1025  0.8256  0.2600
33642SOL     OW12649   8.283   4.740  10.321  0.2313  0.3714  0.4009
33642SOL    HW112650   8.290   4.667  10.261  0.7092  1.7372 -1.2811
33642SOL    HW212651   8.190   4.744  10.344  0.4023 -1.5259  1.5736
33643SOL     OW12652   3.914  10.852   2.839  0.5754 -0.5745  0.0917
33643SOL    HW112653   3.857  10.835   2.913  0.6510  0.5213  0.4228
33643SOL    HW212654   3.994  10.888   2.878  1.0196 -0.9558 -0.4514
33644SOL     OW12655   1.302   3.248   7.682  0.1139  0.3335  0.2725
33644SOL    HW112656   1.360   3.183   7.723  3.4086 -0.4966 -4.7689
33644SOL    HW212657   1.360   3.322   7.662 -0.8844  0.3720 -3.1345
33645SOL     OW12658   5.424   0.996  10.393 -0.4420 -0.1270 -0.0429
33645SOL    HW112659   5.488   0.931  10.424 -0.5350  0.4089  1.3275
33645SOL    HW212660   5.468   1.080  10.403 -0.9012  0.1495 -0.3139
33646SOL     OW12661   7.761   1.497   9.255  0.2237  0.1382 -0.6442
33646SOL    HW112662   7.811   1.504   9.174 -0.0993  0.6625 -0.8048
33646SOL    HW212663   7.718   1.582   9.264  0.5338  0.2083  0.2609
33647SOL     OW12664   0.285   5.140  11.720 -0.6744 -0.2118 -0.5689
33647SOL    HW112665   0.305   5.170  11.808  0.3498  0.9557 -1.1673
33647SOL    HW212666   0.242   5.214  11.678  1.0899  0.1938 -1.8023
33648SOL     OW12667   1.300   2.744   1.872 -0.4335 -0.2067  0.1999
33648SOL    HW112668   1.268   2.673   1.927 -2.3588  1.9652  2.0644
33648SOL    HW212669   1.222   2.790   1.844  0.7066  0.6622 -1.7965
33649SOL     OW12670   1.077   0.387  10.246 -0.1639  0.3218  0.0021
33649SOL    HW112671   1.088   0.316  10.309 -1.2310 -0.7987 -1.0228
33649SOL    HW212672   1.107   0.351  10.163 -1.7518  0.6741 -0.7571
33650SOL     OW12673  10.637   0.327  11.874  0.0893  0.1564  0.2530
33650SOL    HW112674  10.588   0.324  11.956 -0.9542 -0.3979 -0.3675
33650SOL    HW212675  10.714   0.380  11.894 -0.4720  0.5765  1.4127
33651SOL     OW12676   8.846   6.116   6.757 -0.1078 -0.0270  0.2443
33651SOL    HW112677   8.812   6.145   6.842  0.3581  0.7411  0.1797
33651SOL    HW212678   8.938   6.144   6.758 -0.4721  1.3272 -1.1014
33652SOL     OW12679   0.796   0.924   4.396  0.4900  0.1009  0.3567
33652SOL    HW112680   0.826   0.887   4.312 -2.2798 -1.4933 -0.0854
33652SOL    HW212681   0.834   0.866   4.462  0.4397 -0.3530 -0.0019
33653SOL     OW12682   6.393   1.140   5.814  0.2667  0.0260 -0.0324
33653SOL    HW112683   6.438   1.110   5.893  3.0632  1.3940 -0.9748
33653SOL    HW212684   6.456   1.126   5.744 -2.3435 -1.7759 -2.2530
33654SOL     OW12685   9.441  11.810   1.496 -0.6366  0.0008  1.0741
33654SOL    HW112686   9.388  11.731   1.506 -1.3508  0.3262  0.0041
33654SOL    HW212687   9.518  11.781   1.446 -0.5083 -0.1715  1.3672
33655SOL     OW12688   8.346   7.202   3.340  0.1915 -0.6130 -0.2659
33655SOL    HW112689   8.296   7.277   3.308 -0.0569 -1.4253 -1.8512
33655SOL    HW212690   8.438   7.225   3.323  0.1863 -0.2991  0.1025
33656SOL     OW12691   9.733   1.260   2.121 -0.0726  0.7173  0.4489
33656SOL    HW112692   9.709   1.351   2.105 -1.3112  0.3760  0.2308
33656SOL    HW212693   9.649   1.215   2.135  0.5180 -0.3769  0.5977
33657SOL     OW12694   2.128   5.582   6.046  0.1485 -0.2332 -0.7772
33657SOL    HW112695   2.135   5.628   5.963  0.6780 -0.7520 -1.0267
33657SOL    HW212696   2.055   5.521   6.035  0.3853 -0.4879 -0.9596
33658SOL     OW12697   6.960   6.364   0.955 -0.0233 -0.3306  0.0642
33658SOL    HW112698   7.043   6.324   0.932  0.3066 -0.5420  1.5600
33658SOL    HW212699   6.905   6.291   0.983 -0.2845 -0.0364  0.3255
33659SOL     OW12700  10.825   1.194   7.994 -0.5810 -0.3881  0.0604
33659SOL    HW112701  10.911   1.182   7.953 -1.0788 -2.2991 -0.5358
33659SOL    HW212702  10.834   1.156   8.081 -1.1606 -1.9464 -0.5138
33660SOL     OW12703   3.394   3.952   5.635 -0.2448 -0.2304  0.4177
33660SOL    HW112704   3.363   3.880   5.580  0.9029 -0.3554 -0.0904
33660SOL    HW212705   3.489   3.949   5.628 -0.1504  0.9828  0.8512
33661SOL     OW12706   9.321   8.710   1.053  0.6117 -0.3890  0.1562
33661SOL    HW112707   9.320   8.756   1.137  1.6400 -0.4323  0.2037
33661SOL    HW212708   9.268   8.765   0.995  1.7076  0.8072  0.2465
33662SOL     OW12709   6.632   4.565   8.266  0.2409  0.4701 -0.6708
33662SOL    HW112710   6.601   4.600   8.182 -0.1827 -2.1503 -1.6971
33662SOL    HW212711   6.555   4.526   8.305  0.9426 -0.4909 -0.2160
33663SOL     OW12712   4.726   3.933   7.432 -0.3655  0.4843  0.3084
33663SOL    HW112713   4.819   3.938   7.456 -0.5164 -0.0748  1.0422
33663SOL    HW212714   4.701   3.843   7.452 -0.7341  0.2354 -1.1556
33664SOL     OW12715   0.353   4.766   3.673 -0.6874 -0.1140 -0.2748
33664SOL    HW112716   0.343   4.709   3.596 -0.4514 -1.4334  0.6451
33664SOL    HW212717   0.431   4.733   3.718  0.3281  1.8477 -0.4458
33665SOL     OW12718   7.056   6.191   1.778 -1.0988 -0.4742  0.3664
33665SOL    HW112719   7.103   6.119   1.821  0.7110  1.5299  2.0115
33665SOL    HW212720   6.993   6.222   1.843 -0.9187  0.2587  0.2073
33666SOL     OW12721   8.611   0.669   7.394 -0.2410 -0.2993  0.9352
33666SOL    HW112722   8.606   0.605   7.323 -0.4792  1.2157 -0.4910
33666SOL    HW212723   8.670   0.629   7.458 -0.4864 -1.9755  0.1721
33667SOL     OW12724   2.683   3.303   9.944  0.3845  0.2511  0.1392
33667SOL    HW112725   2.708   3.294   9.852 -0.3264 -1.2051  0.0588
33667SOL    HW212726   2.599   3.351   9.941  0.7112  0.8333  0.0932
33668SOL     OW12727   1.520   4.839  11.870  0.3754  0.7194 -0.6491
33668SOL    HW112728   1.609   4.805  11.867 -0.0567 -0.4183 -1.2676
33668SOL    HW212729   1.521   4.904  11.941  1.2504 -0.5644  0.5737
33669SOL     OW12730   3.294   4.224   9.458  0.2075  0.2322  0.0417
33669SOL    HW112731   3.279   4.266   9.542 -0.5169 -1.2087  0.6638
33669SOL    HW212732   3.311   4.132   9.479  1.0840  0.0513 -1.3154
33670SOL     OW12733   3.432   0.324   0.871  0.2866  0.5512 -0.2528
33670SOL    HW112734   3.358   0.385   0.876  1.2131  1.7327 -0.5794
33670SOL    HW212735   3.466   0.320   0.961  0.5647  0.9433 -0.3415
33671SOL     OW12736   0.643   9.716   2.177 -0.7504  0.0818 -0.2672
33671SOL    HW112737   0.598   9.636   2.205 -0.0097  0.1633  1.2341
33671SOL    HW212738   0.729   9.686   2.148  0.0421  0.4557  1.6061
33672SOL     OW12739   5.577   0.091   4.385 -0.2629  0.0511  0.1701
33672SOL    HW112740   5.629   0.058   4.311 -0.9668 -0.1161 -0.2657
33672SOL    HW212741   5.494   0.118   4.345 -0.1503  1.2402  0.7018
33673SOL     OW12742   5.133   9.193   3.579  0.3503  0.2173 -1.0632
33673SOL    HW112743   5.126   9.288   3.583 -1.5284  0.0910  0.8023
33673SOL    HW212744   5.210   9.172   3.632  0.1917  0.6660 -0.6523
33674SOL     OW12745  11.433   8.371  10.004  0.6359 -0.1198  0.0114
33674SOL    HW112746  11.480   8.385   9.921  1.4423 -1.6958  0.1448
33674SOL    HW212747  11.475   8.293  10.041 -1.5942 -1.1412  0.5338
33675SOL     OW12748   4.849   6.422   6.658  0.2080  0.1982  0.2645
33675SOL    HW112749   4.835   6.392   6.748 -0.1798  1.3681  0.6117
33675SOL    HW212750   4.766   6.405   6.614  0.7848 -1.5600 -0.2651
33676SOL     OW12751   1.957   3.718   4.717 -0.0853  0.3077 -0.2452
33676SOL    HW112752   1.865   3.704   4.741  0.5694  0.6944  3.0938
33676SOL    HW212753   1.956   3.798   4.665 -1.5523  1.1508  0.9792
33677SOL     OW12754   7.567   4.431   5.746  0.4680 -0.4438 -0.2283
33677SOL    HW112755   7.500   4.399   5.686 -0.1159 -0.2241  0.2924
33677SOL    HW212756   7.524   4.501   5.794  1.5384  0.7107 -0.9167
33678SOL     OW12757   6.606  11.495   6.583 -0.9538  0.5956 -0.0628
33678SOL    HW112758   6.613  11.468   6.675 -0.9904 -0.4158 -0.3478
33678SOL    HW212759   6.637  11.586   6.583 -0.7447  0.5411  0.9101
33679SOL     OW12760  10.827   6.100   5.677 -0.3576  0.1744  0.1498
33679SOL    HW112761  10.915   6.108   5.641 -0.2351  1.1701  0.6196
33679SOL    HW212762  10.806   6.188   5.708 -2.0391  0.2660 -1.1111
33680SOL     OW12763  11.721   4.349   1.980  0.2182 -0.0395  0.4015
33680SOL    HW112764  11.809   4.365   1.945 -0.4279  0.6050 -1.0036
33680SOL    HW212765  11.675   4.305   1.908 -1.1711  1.3677  0.3751
33681SOL     OW12766   3.545   4.927   2.577 -0.7214 -0.4685 -0.4005
33681SOL    HW112767   3.453   4.942   2.554 -0.6472  1.3447  0.3250
33681SOL    HW212768   3.592   4.994   2.528  0.1096 -0.7085  0.0638
33682SOL     OW12769   2.044   9.356   5.432 -0.3943 -0.2844 -0.1051
33682SOL    HW112770   2.053   9.390   5.343  2.0847 -0.8817 -0.1496
33682SOL    HW212771   2.095   9.275   5.433 -2.7428 -1.8893  1.1294
33683SOL     OW12772   6.901   8.078   5.309  0.1411 -0.1110  0.2482
33683SOL    HW112773   6.818   8.119   5.333 -0.5568 -0.8850 -0.7699
33683SOL    HW212774   6.912   8.007   5.371 -0.0369 -0.1128  0.2769
33684SOL     OW12775   5.708   0.069   0.984 -0.4471  0.0466  0.2663
33684SOL    HW112776   5.690  -0.007   0.929 -3.0010 -0.0385  1.0913
33684SOL    HW212777   5.756   0.130   0.927  1.5206 -2.0379 -0.4498
33685SOL     OW12778   4.894   7.842   5.198 -0.1327 -0.0966  0.1023
33685SOL    HW112779   4.852   7.781   5.137  0.2780 -0.1219 -0.1631
33685SOL    HW212780   4.984   7.849   5.167 -0.1704  0.6489  0.1326
33686SOL     OW12781   9.250  11.779   9.114 -0.1270  0.4731  0.0886
33686SOL    HW112782   9.280  11.691   9.137 -1.3371  0.0551  0.1205
33686SOL    HW212783   9.205  11.811   9.192  0.4831  1.2158  0.1484
33687SOL     OW12784   1.503   0.796   9.134 -1.0247  0.1800  0.4786
33687SOL    HW112785   1.443   0.730   9.100 -0.1708 -0.7187  0.6553
33687SOL    HW212786   1.569   0.807   9.065  0.4135 -1.2601  1.5635
33688SOL     OW12787   5.315  11.612   1.689 -0.8318  0.0121  0.3610
33688SOL    HW112788   5.357  11.529   1.709  0.6962  0.6780  0.0083
33688SOL    HW212789   5.331  11.625   1.595  0.0737  1.3065  0.6757
33689SOL     OW12790   3.938  11.489   6.950  0.3176 -0.4475 -0.1708
33689SOL    HW112791   3.986  11.457   7.027  0.3175  2.0951  0.9723
33689SOL    HW212792   3.985  11.453   6.876 -0.1388 -3.6752  0.9151
33690SOL     OW12793   1.214   3.387   7.037  0.3612 -0.4692 -0.7033
33690SOL    HW112794   1.165   3.390   6.955  0.7165  1.5385 -0.8836
33690SOL    HW212795   1.164   3.441   7.098  1.1835 -0.2143 -0.2324
33691SOL     OW12796   4.372  11.357   1.703  0.1126  0.5158  0.3532
33691SOL    HW112797   4.379  11.445   1.738  0.0576  0.0781  1.4927
33691SOL    HW212798   4.280  11.333   1.715  0.5509 -0.4664  1.9914
33692SOL     OW12799  11.284  10.096  10.849  0.3721 -0.6819 -0.2620
33692SOL    HW112800  11.376  10.122  10.858  0.3631 -0.5439 -0.5848
33692SOL    HW212801  11.266  10.048  10.930  0.1933  0.9033  0.6922
33693SOL     OW12802   5.003   6.113   6.580  0.1864 -0.8028  0.2868
33693SOL    HW112803   4.928   6.172   6.575 -0.1782 -1.2881  0.0076
33693SOL    HW212804   4.991   6.066   6.662  0.6490 -0.2691  0.6704
33694SOL     OW12805   1.234   7.267   9.710  0.3677  0.1627  1.1123
33694SOL    HW112806   1.317   7.221   9.720  1.7270  2.4427  0.9924
33694SOL    HW212807   1.247   7.324   9.635 -2.2356 -1.1846 -0.5269
33695SOL     OW12808   2.122   0.174   8.154  0.0145  0.0777 -0.0512
33695SOL    HW112809   2.053   0.113   8.177  1.1225 -2.0069 -1.8767
33695SOL    HW212810   2.170   0.131   8.083  3.6167  1.0431  1.5512
33696SOL     OW12811   9.880   8.666   8.943  1.0558 -0.6513 -0.1806
33696SOL    HW112812   9.904   8.576   8.920  0.1016 -0.6053 -1.5372
33696SOL    HW212813   9.947   8.720   8.900  0.4893 -0.6597 -1.1191
33697SOL     OW12814   9.874   2.590   7.998  0.6718  0.1648 -0.0833
33697SOL    HW112815   9.852   2.534   7.924  1.2816  0.7778 -0.7455
33697SOL    HW212816   9.947   2.644   7.966 -0.1162  1.5724  0.4179
33698SOL     OW12817   9.501   6.979   5.891 -0.0377 -0.5630 -0.3944
33698SOL    HW112818   9.467   6.898   5.927 -2.6871  1.1050  1.2085
33698SOL    HW212819   9.570   7.007   5.952 -0.6049 -0.5641  0.2543
33699SOL     OW12820   3.820   6.329   9.971 -0.1726  0.6755 -0.3708
33699SOL    HW112821   3.812   6.392   9.900 -1.1377  0.4788 -0.4493
33699SOL    HW212822   3.799   6.379  10.050 -0.5717  0.5465 -0.3928
33700SOL     OW12823   9.679   8.728   9.158  0.3944 -0.3484 -0.2336
33700SOL    HW112824   9.722   8.664   9.215  0.0501 -0.2276  0.1663
33700SOL    HW212825   9.723   8.718   9.074 -1.7020 -3.3148 -1.1081
33701SOL     OW12826   8.161   1.086   9.464 -0.1246 -0.6939  0.0247
33701SOL    HW112827   8.115   1.150   9.411  0.3537  0.9118  1.4708
33701SOL    HW212828   8.120   1.002   9.442 -2.4329  0.4081 -0.1275
33702SOL     OW12829   1.494   7.435   0.458 -0.1695 -0.3371  0.0923
33702SOL    HW112830   1.449   7.369   0.405 -0.8435 -1.0243  1.4382
33702SOL    HW212831   1.477   7.407   0.548  1.5865  0.3396  0.6584
33703SOL     OW12832   2.132   1.905   5.519  0.1821  0.1710 -0.0439
33703SOL    HW112833   2.118   1.981   5.463  0.0240  0.8168  0.8446
33703SOL    HW212834   2.120   1.830   5.461  1.5834  0.8047 -1.2452
33704SOL     OW12835   6.462   6.796   7.457 -0.2562 -0.2090 -0.1809
33704SOL    HW112836   6.550   6.786   7.493 -0.0820  1.2111 -0.1632
33704SOL    HW212837   6.410   6.832   7.529 -0.5229  0.2289 -0.5858
33705SOL     OW12838  10.789   9.087   8.778  0.4081 -0.1794  0.1204
33705SOL    HW112839  10.850   9.151   8.742 -0.5144  1.5257  1.4269
33705SOL    HW212840  10.837   9.046   8.850  0.0182  1.2907  1.2668
33706SOL     OW12841   7.304   7.033   7.551 -0.1500 -0.2645 -0.7653
33706SOL    HW112842   7.217   7.000   7.574 -0.0916 -3.2128 -3.9867
33706SOL    HW212843   7.287   7.117   7.508 -1.4676 -0.8165 -1.3917
33707SOL     OW12844   2.415   8.468   5.739 -0.6314 -0.2928 -0.0103
33707SOL    HW112845   2.358   8.392   5.728  0.4976 -1.2223  0.2784
33707SOL    HW212846   2.503   8.431   5.746  0.0091  1.0847 -0.3694
33708SOL     OW12847   0.962   0.315   4.662  0.0415 -0.0210  0.5750
33708SOL    HW112848   0.892   0.380   4.666  1.0110  1.1742 -0.8510
33708SOL    HW212849   1.032   0.357   4.612  0.3913 -2.4355 -1.1789
33709SOL     OW12850   0.096   2.256  10.988  0.1188  0.1929 -0.3014
33709SOL    HW112851   0.099   2.351  10.978  0.6888  0.1733 -0.3367
33709SOL    HW212852   0.002   2.235  10.985 -0.2183  1.0067  2.0325
33710SOL     OW12853   1.801   0.114   5.410  0.4623 -0.0383 -0.1478
33710SOL    HW112854   1.716   0.106   5.368 -0.1728 -0.0541  1.0892
33710SOL    HW212855   1.840   0.027   5.404 -0.7421 -0.7564  1.5471
33711SOL     OW12856   1.985   7.905   8.716 -0.0085  0.1702  0.2049
33711SOL    HW112857   2.000   7.864   8.631  3.1813  1.1045  0.1793
33711SOL    HW212858   1.958   7.833   8.773  0.9561 -1.1230 -0.8810
33712SOL     OW12859  10.232   4.570   5.855  0.4212  0.6057  0.2539
33712SOL    HW112860  10.276   4.546   5.936 -0.3488 -0.1297  0.4603
33712SOL    HW212861  10.147   4.526   5.859 -0.3311  1.9625 -0.1601
33713SOL     OW12862   7.097   0.310   8.754  0.2998 -0.1145  1.1344
33713SOL    HW112863   7.091   0.226   8.799  1.6485 -1.3081 -0.8134
33713SOL    HW212864   7.179   0.306   8.705  0.8427  2.6959  1.6347
33714SOL     OW12865   9.025   6.546   4.744  0.7945 -0.0950  0.7377
33714SOL    HW112866   9.060   6.515   4.828 -0.9312  0.7246  1.8047
33714SOL    HW212867   9.086   6.511   4.679  1.7554 -1.4081  2.2592
33715SOL     OW12868   6.237   0.950   7.620  0.0426 -0.0296 -0.1063
33715SOL    HW112869   6.329   0.938   7.644  0.4894 -0.4909 -1.8600
33715SOL    HW212870   6.218   0.878   7.560 -0.4268  1.8600 -2.4011
33716SOL     OW12871   4.582  10.231  11.683  0.2971  0.0309 -0.0192
33716SOL    HW112872   4.659  10.201  11.732 -0.7425  0.5736  2.0363
33716SOL    HW212873   4.514  10.242  11.749 -1.4595 -0.0333 -1.7246
33717SOL     OW12874   0.018   2.925   8.359 -0.3411  0.2000 -0.3635
33717SOL    HW112875   0.002   2.943   8.452  0.3160 -1.6749  0.1550
33717SOL    HW212876  -0.048   2.977   8.313 -0.8797  0.9241  1.1554
33718SOL     OW12877  10.576   4.845   0.511  0.0210 -0.0561 -0.2719
33718SOL    HW112878  10.563   4.761   0.468  0.1838 -0.3125  0.1782
33718SOL    HW212879  10.613   4.901   0.443  0.5949 -0.5532 -0.3751
33719SOL     OW12880   8.135   7.956   2.097 -0.9796 -0.1314 -0.5088
33719SOL    HW112881   8.218   7.980   2.057 -0.6421 -1.5849 -0.7527
33719SOL    HW212882   8.111   8.031   2.151  1.4572 -0.3964  1.0914
33720SOL     OW12883   6.966   0.889   1.550 -0.0493 -0.0844  0.2716
33720SOL    HW112884   7.029   0.833   1.596  1.5340  0.7760 -0.7326
33720SOL    HW212885   6.934   0.949   1.617  0.1604 -0.5754  0.8169
33721SOL     OW12886   6.411   4.815  10.711 -0.4884  0.2754  0.4510
33721SOL    HW112887   6.480   4.749  10.700  0.5724  1.5952 -1.2044
33721SOL    HW212888   6.376   4.828  10.624  0.1857  2.7691  0.4853
33722SOL     OW12889   7.458   9.541   9.411  0.7727 -0.4310  0.0632
33722SOL    HW112890   7.394   9.609   9.390  0.0710 -0.4494  1.9585
33722SOL    HW212891   7.503   9.574   9.489  0.7693 -1.8998  0.7199
33723SOL     OW12892   9.380   2.695   4.661 -0.3263  0.2500 -0.0517
33723SOL    HW112893   9.458   2.641   4.646 -0.2717  0.5622 -0.9510
33723SOL    HW212894   9.325   2.678   4.585  0.1296  2.2028 -0.8679
33724SOL     OW12895   8.907  11.660   1.918 -0.0810 -0.6848 -0.6851
33724SOL    HW112896   8.976  11.653   1.984  0.5109 -0.4132 -1.2640
33724SOL    HW212897   8.832  11.695   1.966  0.4348 -0.2023 -0.2087
33725SOL     OW12898   4.305  10.180   8.082  0.2097 -0.5591  0.0759
33725SOL    HW112899   4.243  10.210   8.017 -1.7642  0.6746  2.3565
33725SOL    HW212900   4.293  10.085   8.085 -0.6344 -0.4756 -0.4128
33726SOL     OW12901   7.584   7.629   5.107  0.1491 -0.1195 -0.1365
33726SOL    HW112902   7.631   7.556   5.067 -0.0550 -0.3731  0.0872
33726SOL    HW212903   7.523   7.658   5.039  1.0250  0.5920 -0.6471
33727SOL     OW12904   3.764   3.864   3.713 -0.5757  0.2849 -0.0831
33727SOL    HW112905   3.734   3.953   3.731 -0.9837 -0.4261  3.4250
33727SOL    HW212906   3.856   3.875   3.687 -0.9249  1.7760 -0.7827
33728SOL     OW12907  11.814   3.713   9.379  0.8545 -0.8493  0.0977
33728SOL    HW112908  11.824   3.627   9.421  2.4614 -0.6175  0.2435
33728SOL    HW212909  11.854   3.775   9.440  0.3945 -0.0875 -0.3536
33729SOL     OW12910   7.289   2.977   4.142 -0.5238  0.0571 -0.0764
33729SOL    HW112911   7.339   2.980   4.224  0.8947 -0.0912 -0.8885
33729SOL    HW212912   7.336   3.037   4.084 -2.0025  0.8121 -0.5310
33730SOL     OW12913   7.596   5.826   4.479 -0.1736 -0.0914 -0.5347
33730SOL    HW112914   7.635   5.780   4.553 -0.2662 -0.3262 -0.6312
33730SOL    HW212915   7.534   5.764   4.441 -0.9461  0.4333 -0.1380
33731SOL     OW12916   4.183   6.930   4.676  0.2041 -0.0131  0.0932
33731SOL    HW112917   4.267   6.958   4.641 -0.7800  1.4910 -1.1876
33731SOL    HW212918   4.167   6.988   4.750  0.6002 -0.7717  0.7871
33732SOL     OW12919   1.533   6.712   4.801  0.1770  0.1333 -0.0887
33732SOL    HW112920   1.458   6.653   4.796  0.7802 -0.7534  0.8389
33732SOL    HW212921   1.505   6.782   4.859  0.1562 -0.3590  0.5076
33733SOL     OW12922   2.502   1.504   7.791  0.4652 -0.2014  0.2305
33733SOL    HW112923   2.570   1.443   7.760  1.1399  0.4314  0.4333
33733SOL    HW212924   2.485   1.560   7.715  0.1847 -0.3400  0.1902
33734SOL     OW12925   8.600  11.915   5.230  0.1413  0.0156 -0.0635
33734SOL    HW112926   8.608  11.870   5.146  0.0942  0.2733 -0.2072
33734SOL    HW212927   8.691  11.933   5.256  0.1352  0.5594 -0.4000
33735SOL     OW12928   3.077  10.132   0.580  0.1374  0.3150  0.0404
33735SOL    HW112929   3.014  10.166   0.642  1.8022 -1.0318  2.6443
33735SOL    HW212930   3.028  10.065   0.531 -0.2292 -1.9332  3.1433
33736SOL     OW12931   7.555   6.926   5.505  0.0543 -0.1699  0.3292
33736SOL    HW112932   7.597   6.959   5.426 -0.6500  1.6186  0.6599
33736SOL    HW212933   7.593   6.839   5.518  1.5691  0.2696 -0.9099
33737SOL     OW12934   3.985   0.196   1.423  0.1535  0.0278 -0.6977
33737SOL    HW112935   3.919   0.160   1.364  0.3110  0.1902 -0.9719
33737SOL    HW212936   4.067   0.157   1.393 -0.1805 -3.0457  1.8039
33738SOL     OW12937   6.755  10.222   3.509 -0.3695  0.1967 -0.2167
33738SOL    HW112938   6.813  10.276   3.456  1.2252 -1.7141 -0.5203
33738SOL    HW212939   6.770  10.252   3.599  0.8470 -0.0078 -0.3314
33739SOL     OW12940   9.519   2.397   5.098 -0.3935 -0.0352 -0.6329
33739SOL    HW112941   9.518   2.305   5.074 -0.0504  0.0965 -1.1845
33739SOL    HW212942   9.465   2.440   5.032 -1.4242  0.0352  0.2202
33740SOL     OW12943   9.712   3.720   5.993  0.2874 -0.4749  0.2813
33740SOL    HW112944   9.795   3.694   5.952  0.6768  2.2097 -0.8512
33740SOL    HW212945   9.737   3.784   6.059 -0.8672  0.9675 -0.6003
33741SOL     OW12946   3.135   4.989   4.499 -0.0536 -0.0791 -0.1517
33741SOL    HW112947   3.061   5.036   4.538  1.7537  0.2457  3.3357
33741SOL    HW212948   3.193   5.059   4.469  0.1280 -0.2532 -0.2044
33742SOL     OW12949   9.676   0.513   0.724 -0.1448  0.6475 -0.1134
33742SOL    HW112950   9.688   0.420   0.702 -0.3731  0.6108 -0.0844
33742SOL    HW212951   9.655   0.513   0.817  0.6992  0.7939  0.0866
33743SOL     OW12952   9.809   0.625   9.697 -0.6522 -0.3363  0.6188
33743SOL    HW112953   9.737   0.569   9.726  0.1149 -1.0859  1.1286
33743SOL    HW212954   9.851   0.576   9.627 -0.8033  0.2283  0.1260
33744SOL     OW12955   8.669   6.365   4.401  0.1926 -0.3314  0.5019
33744SOL    HW112956   8.675   6.297   4.467 -0.3914 -0.7876  0.0952
33744SOL    HW212957   8.580   6.401   4.411  1.1415  1.7974  2.0760
33745SOL     OW12958   2.473   1.033   3.674  0.3214 -0.3594 -0.1963
33745SOL    HW112959   2.432   1.080   3.747 -1.4227 -1.8590 -0.1536
33745SOL    HW212960   2.567   1.037   3.694  0.1328  1.7770  0.5622
33746SOL     OW12961  11.402   2.251   8.098  0.3666 -0.3020  0.2987
33746SOL    HW112962  11.459   2.180   8.068  1.0384  0.7024 -0.8890
33746SOL    HW212963  11.399   2.240   8.193  1.2418 -1.3465  0.2301
33747SOL     OW12964   0.516   4.194   8.530 -0.1417 -0.6880 -0.4197
33747SOL    HW112965   0.469   4.166   8.609  0.4739 -0.3742  0.0655
33747SOL    HW212966   0.495   4.287   8.521 -0.5240 -0.8102 -0.8575
33748SOL     OW12967   9.010   8.086  11.874 -0.3036  0.8117 -0.5413
33748SOL    HW112968   9.014   8.010  11.816  1.3028  0.7948 -0.4726
33748SOL    HW212969   9.053   8.156  11.825  0.5120  0.9605  0.3414
33749SOL     OW12970   9.283   6.059   2.396  0.2055 -0.0955  0.1060
33749SOL    HW112971   9.196   6.100   2.390  0.4799  1.0829  2.8311
33749SOL    HW212972   9.342   6.121   2.353  0.0177  0.2680  0.3696
33750SOL     OW12973   0.940   2.261   8.454 -0.1054  0.4857  0.3172
33750SOL    HW112974   0.926   2.286   8.362 -0.2667  0.3074  0.2919
33750SOL    HW212975   0.902   2.333   8.504 -0.5516  0.3086  0.2447
33751SOL     OW12976   8.650   7.273   0.798  0.0362 -0.1195  0.2065
33751SOL    HW112977   8.612   7.328   0.730 -0.4827 -1.7058 -0.8242
33751SOL    HW212978   8.656   7.186   0.759  1.6506 -0.6451  1.4823
33752SOL     OW12979  10.154   7.826   8.747 -0.5462  0.4257  0.0454
33752SOL    HW112980  10.080   7.847   8.690 -0.5222  1.1103  0.2575
33752SOL    HW212981  10.229   7.819   8.689 -0.7697 -0.2388 -0.1680
33753SOL     OW12982   0.595   9.249   7.249  0.0347 -0.4038  0.3753
33753SOL    HW112983   0.518   9.214   7.205 -0.1714 -0.3425  0.6819
33753SOL    HW212984   0.666   9.191   7.222  0.1510  0.3258 -0.9797
33754SOL     OW12985   7.056   7.916   1.849  0.1241  0.4635 -0.3123
33754SOL    HW112986   6.972   7.943   1.886  0.7279  1.8931  0.0764
33754SOL    HW212987   7.096   7.997   1.818  1.0737 -0.2859 -1.1066
33755SOL     OW12988   8.694   5.349   0.988  0.0367  0.5941  0.4372
33755SOL    HW112989   8.726   5.387   1.069 -1.0933 -0.0236  1.2024
33755SOL    HW212990   8.599   5.347   0.998 -0.1346  0.6190 -0.9548
33756SOL     OW12991  10.088   3.443  11.511 -0.4329  0.7253 -0.3350
33756SOL    HW112992  10.018   3.380  11.529 -0.0638  0.7034  1.1395
33756SOL    HW212993  10.165   3.406  11.553  0.6518  0.4674 -2.4221
33757SOL     OW12994  10.052  11.888   3.111  0.5897  0.5012 -0.3001
33757SOL    HW112995  10.117  11.846   3.168 -0.3056 -1.4596 -0.6276
33757SOL    HW212996  10.045  11.978   3.144  0.8089 -0.2812  2.0878
33758SOL     OW12997   1.583   7.112   4.896  0.0251  0.1250 -0.1314
33758SOL    HW112998   1.523   7.119   4.970 -0.7572 -0.9559 -0.6261
33758SOL    HW212999   1.664   7.152   4.926 -0.7056  0.9241  0.8257
33759SOL     OW13000  11.423   0.090   0.773 -0.4407 -0.1222 -0.8505
33759SOL    HW113001  11.448   0.046   0.854 -1.0878 -1.2415 -1.2290
33759SOL    HW213002  11.337   0.128   0.792 -1.0881 -1.2905 -1.2938
33760SOL     OW13003  11.423   3.853  11.440  0.1971 -0.4703 -0.5521
33760SOL    HW113004  11.391   3.937  11.472 -0.0710 -0.4220 -0.9458
33760SOL    HW213005  11.477   3.874  11.364  1.7255 -0.4950  0.4811
33761SOL     OW13006   2.668   4.399   3.678  0.3259 -0.9123  0.1748
33761SOL    HW113007   2.749   4.433   3.718  0.3991 -1.5793  0.6316
33761SOL    HW213008   2.606   4.394   3.751  0.8210 -3.2699  0.5460
33762SOL     OW13009  11.129   0.654   9.307  0.1122 -0.0219 -0.3130
33762SOL    HW113010  11.196   0.717   9.282 -0.3246  0.0215 -1.4157
33762SOL    HW213011  11.064   0.706   9.354  1.0804 -0.1577  1.2530
33763SOL     OW13012   0.266   3.683   1.501  0.1982 -0.3200  0.4551
33763SOL    HW113013   0.289   3.769   1.466  2.9804 -1.3976 -0.6250
33763SOL    HW213014   0.289   3.687   1.594  3.9731 -0.9088 -0.2967
33764SOL     OW13015   4.553   3.868  10.994  0.4012 -0.4805 -0.1675
33764SOL    HW113016   4.564   3.957  11.027  1.1449 -0.6134 -0.0439
33764SOL    HW213017   4.483   3.831  11.048  0.0287  0.0532 -0.2779
33765SOL     OW13018   7.421   0.462   7.752 -0.1825 -0.0025  0.0189
33765SOL    HW113019   7.435   0.378   7.796  0.8327  0.0347 -0.2176
33765SOL    HW213020   7.338   0.494   7.788 -0.4671 -0.9915  0.2828
33766SOL     OW13021   4.945   1.609   6.932  0.5594  0.3479 -0.1638
33766SOL    HW113022   5.012   1.669   6.964 -1.0560  1.7418  0.7877
33766SOL    HW213023   4.918   1.647   6.848 -0.7829  1.2940  0.6492
33767SOL     OW13024   5.531   7.064  10.827 -0.7407  0.1998 -0.6675
33767SOL    HW113025   5.553   7.066  10.734  1.7603  0.7387 -0.1187
33767SOL    HW213026   5.572   6.985  10.860 -2.3328 -0.4469 -0.1281
33768SOL     OW13027   3.371   2.764   5.747  0.0082  0.6894 -0.3080
33768SOL    HW113028   3.328   2.734   5.667 -0.6922  1.3639 -0.1995
33768SOL    HW213029   3.465   2.760   5.728 -0.1098 -0.3876 -0.7026
33769SOL     OW13030   8.643   3.322   6.967 -0.0432  0.5526 -0.3933
33769SOL    HW113031   8.653   3.256   6.898  1.9771  1.3122 -0.9083
33769SOL    HW213032   8.552   3.350   6.960 -0.2015 -0.2157 -2.0053
33770SOL     OW13033   3.186  11.365   4.177  0.0453 -0.1493 -0.3343
33770SOL    HW113034   3.280  11.353   4.165  0.0205  0.7719 -1.8162
33770SOL    HW213035   3.176  11.458   4.201 -0.5209 -0.0518 -0.9013
33771SOL     OW13036   4.076   8.767   5.759 -0.1022  0.0634  0.2698
33771SOL    HW113037   4.136   8.834   5.726 -1.9089  1.4216 -0.3713
33771SOL    HW213038   4.073   8.783   5.854  1.0827 -0.4942  0.4181
33772SOL     OW13039   2.305   5.120   5.503  0.1424 -0.3416 -0.0207
33772SOL    HW113040   2.400   5.116   5.501  0.1267 -1.1142  0.3222
33772SOL    HW213041   2.281   5.098   5.593 -0.3839 -1.1333 -0.3309
33773SOL     OW13042   6.912  11.823   2.385 -0.0340 -0.0769 -0.3670
33773SOL    HW113043   6.890  11.894   2.324 -0.8276 -0.9945 -1.1879
33773SOL    HW213044   7.008  11.821   2.385 -0.0116  0.3069 -1.1524
33774SOL     OW13045   6.104   1.605   5.028  0.0090  0.0579 -0.1014
33774SOL    HW113046   6.052   1.647   5.097 -0.1364  2.5637 -1.6139
33774SOL    HW213047   6.047   1.537   4.992 -0.3045 -0.5649  1.4735
33775SOL     OW13048  10.136   6.303   0.893 -0.9081 -0.1508 -0.4461
33775SOL    HW113049  10.161   6.364   0.823 -0.3535  1.2332  0.9048
33775SOL    HW213050  10.100   6.228   0.847  3.5156 -1.3458 -2.5160
33776SOL     OW13051   3.592  11.096   0.186 -0.0619  0.2480 -0.4381
33776SOL    HW113052   3.622  11.047   0.109  1.2148 -0.6968  0.6391
33776SOL    HW213053   3.538  11.034   0.235  1.6577 -0.1767  0.9941
33777SOL     OW13054   4.034   1.176   3.033  0.3356  0.4152 -0.4529
33777SOL    HW113055   3.985   1.222   2.966  0.1053 -0.0540 -0.6116
33777SOL    HW213056   3.969   1.151   3.099  0.0213 -1.6673 -1.4576
33778SOL     OW13057   6.858  10.278   5.622 -0.2092 -0.0915 -0.0287
33778SOL    HW113058   6.801  10.354   5.629  0.4574  0.3576  0.6302
33778SOL    HW213059   6.831  10.220   5.693 -1.3127 -0.8978 -1.0665
33779SOL     OW13060   6.116   3.592   8.661 -0.4892  0.6248 -0.6698
33779SOL    HW113061   6.082   3.535   8.730  2.0601 -0.4459 -0.1713
33779SOL    HW213062   6.046   3.654   8.644 -1.6684  0.1657  2.0151
33780SOL     OW13063   8.660   3.213   8.438  0.7581 -0.4024 -0.5278
33780SOL    HW113064   8.710   3.141   8.477 -1.1062 -0.2466  2.4582
33780SOL    HW213065   8.601   3.169   8.376  3.0151 -0.7875 -2.5452
33781SOL     OW13066  10.818   2.782   3.007 -0.2168 -0.5248 -0.0136
33781SOL    HW113067  10.833   2.820   2.920 -0.7600  0.4206  0.2861
33781SOL    HW213068  10.902   2.791   3.052 -0.2856  0.2237 -0.0064
33782SOL     OW13069   1.469   8.837   5.714  0.1498 -0.0645  0.1034
33782SOL    HW113070   1.492   8.814   5.625  1.0323  0.3593  0.2085
33782SOL    HW213071   1.504   8.766   5.767  0.0649 -0.0690  0.1538
33783SOL     OW13072   8.151   1.407   8.901 -0.4635 -0.4662 -0.3383
33783SOL    HW113073   8.117   1.448   8.981 -0.0848  0.3625 -0.5865
33783SOL    HW213074   8.218   1.468   8.871 -0.0545 -1.1661 -0.8613
33784SOL     OW13075   2.812   7.467   0.151  0.0146  0.2491  0.6477
33784SOL    HW113076   2.721   7.444   0.131  0.4129 -0.5433 -0.4170
33784SOL    HW213077   2.843   7.394   0.205  0.7594 -0.9491 -1.2465
33785SOL     OW13078   9.773   0.839   1.380  0.1263 -0.5604 -0.0688
33785SOL    HW113079   9.850   0.890   1.356  1.4026 -1.6772  1.4326
33785SOL    HW213080   9.729   0.822   1.297  2.4372 -1.3409 -1.2289
33786SOL     OW13081   7.609   2.829   8.964 -0.1310 -0.3569 -0.0555
33786SOL    HW113082   7.687   2.800   9.011  0.7854  2.4632  0.3757
33786SOL    HW213083   7.569   2.894   9.022 -0.1191  1.7338 -2.2096
33787SOL     OW13084   7.801   9.885   8.956  0.2225  0.3441 -0.2669
33787SOL    HW113085   7.755   9.910   9.036  1.3479  1.3802  0.0912
33787SOL    HW213086   7.756   9.806   8.926 -0.7989  0.4573  0.8832
33788SOL     OW13087   1.043  11.433   7.430 -0.4600  0.0829 -0.1895
33788SOL    HW113088   1.067  11.340   7.424  0.5412  0.3664 -0.8579
33788SOL    HW213089   1.005  11.442   7.517 -2.2468 -1.3082 -0.7492
33789SOL     OW13090   0.513   5.794   6.634 -0.1150 -0.0736  0.5684
33789SOL    HW113091   0.428   5.826   6.664  0.8263  1.2777  1.9365
33789SOL    HW213092   0.535   5.850   6.559 -0.7591 -0.9465 -0.2936
33790SOL     OW13093  11.546   5.941   6.023 -0.2979 -0.6313  0.2722
33790SOL    HW113094  11.528   5.967   6.114  2.7748 -0.7889  1.0417
33790SOL    HW213095  11.527   6.019   5.971  2.1604  1.0601  1.6914
33791SOL     OW13096   8.051  10.598   9.728 -0.4335 -0.0477  0.1829
33791SOL    HW113097   8.108  10.591   9.805 -0.9952 -1.3793  0.5114
33791SOL    HW213098   7.992  10.671   9.748 -0.7706 -0.5739  1.1573
33792SOL     OW13099   9.256   7.623   6.854 -0.4503 -0.6837  0.0998
33792SOL    HW113100   9.205   7.703   6.842  0.5328  0.0236  0.4637
33792SOL    HW213101   9.194   7.552   6.837 -1.5690  0.1380  0.6145
33793SOL     OW13102   1.153   5.886   8.990  0.3301  0.3715  0.6879
33793SOL    HW113103   1.236   5.861   9.030  0.0740 -0.2796  0.8312
33793SOL    HW213104   1.097   5.911   9.064  0.8516  2.3021  0.4992
33794SOL     OW13105   6.867  10.738  11.283 -0.4954 -0.0897  0.4907
33794SOL    HW113106   6.818  10.816  11.306  1.5633  1.6961 -0.7807
33794SOL    HW213107   6.933  10.730  11.352 -1.7075 -1.7621  1.5343
33795SOL     OW13108   4.161   9.430   7.424  0.6899  0.3392  0.4038
33795SOL    HW113109   4.155   9.354   7.482 -1.4919  1.5438  1.9118
33795SOL    HW213110   4.253   9.454   7.426  1.2985 -1.7669  0.4968
33796SOL     OW13111   6.641   3.500   6.675 -0.0882  0.0294 -0.1347
33796SOL    HW113112   6.612   3.412   6.701  0.8908 -0.3869 -0.4183
33796SOL    HW213113   6.607   3.558   6.743  0.4662 -0.7531  0.8311
33797SOL     OW13114   3.635   7.958  10.432 -0.0860 -0.1410  0.1035
33797SOL    HW113115   3.678   7.942  10.348  0.4807 -1.5990  0.6448
33797SOL    HW213116   3.599   7.874  10.457 -0.6856  0.3968  1.0925
33798SOL     OW13117   9.204   7.535   9.294  0.0682 -0.2752  0.3054
33798SOL    HW113118   9.292   7.519   9.330 -0.0310 -1.0535  0.2271
33798SOL    HW213119   9.169   7.447   9.277  0.1159  0.0365 -1.7107
33799SOL     OW13120   6.386   9.438   5.124  0.0836 -0.1196  0.3067
33799SOL    HW113121   6.452   9.504   5.102  0.2530 -0.0282  1.0674
33799SOL    HW213122   6.437   9.357   5.134 -0.2497 -0.6634 -1.7740
33800SOL     OW13123   5.524   4.488  11.246  0.1519 -0.8904  0.3323
33800SOL    HW113124   5.590   4.553  11.271 -1.2231  0.0948  1.5854
33800SOL    HW213125   5.555   4.406  11.284  2.3926 -1.3084 -2.0412
33801SOL     OW13126   6.288   3.427   9.978  0.3159 -0.1436 -0.2291
33801SOL    HW113127   6.337   3.481   9.916 -0.2200  0.2551 -0.3136
33801SOL    HW213128   6.352   3.363  10.009  0.2448 -1.3376 -2.3204
33802SOL     OW13129   3.470   9.528   1.811 -0.4761  0.0396  0.2255
33802SOL    HW113130   3.516   9.512   1.728 -1.8364 -1.1298 -0.3407
33802SOL    HW213131   3.540   9.538   1.875  0.6192 -2.4284 -0.4696
33803SOL     OW13132   6.404   4.213  10.388  0.3765 -0.1809 -0.1342
33803SOL    HW113133   6.463   4.288  10.387  1.8679 -1.2990 -1.4944
33803SOL    HW213134   6.415   4.174  10.475  1.3679 -0.1437 -0.2336
33804SOL     OW13135   6.965   9.728   1.907 -0.3754 -0.0616 -0.2302
33804SOL    HW113136   6.918   9.734   1.824  0.6882  0.0372 -0.8430
33804SOL    HW213137   7.050   9.768   1.889 -0.4608  0.8092  1.1623
33805SOL     OW13138   1.149   9.421   6.602  0.0666 -0.0764  0.0700
33805SOL    HW113139   1.242   9.404   6.619 -0.1583 -0.6425  0.7747
33805SOL    HW213140   1.149   9.482   6.529  1.0086  0.3224  0.3913
33806SOL     OW13141  11.169   8.787   5.817 -0.3481 -0.0343 -0.1446
33806SOL    HW113142  11.235   8.854   5.799 -1.4836  0.9176 -0.9097
33806SOL    HW213143  11.102   8.801   5.750 -1.3534 -0.9528  0.6387
33807SOL     OW13144   4.247   5.181   3.059 -0.5205 -0.6781  0.2215
33807SOL    HW113145   4.164   5.212   3.024 -1.2128 -0.3577  2.0056
33807SOL    HW213146   4.295   5.147   2.984 -1.9608 -0.1846 -0.9517
33808SOL     OW13147   6.332   3.278  11.176  0.2434  0.2397  0.2681
33808SOL    HW113148   6.273   3.305  11.247  0.0513 -0.7572  0.4932
33808SOL    HW213149   6.277   3.229  11.116  0.6408  0.1448 -0.0213
33809SOL     OW13150   6.351   0.093   4.769 -0.1689  0.0745 -0.5140
33809SOL    HW113151   6.354   0.090   4.864  0.3283 -0.2006 -0.5307
33809SOL    HW213152   6.443   0.083   4.742 -0.2672  0.4887 -1.0117
33810SOL     OW13153   2.934   1.105   7.654 -0.2781 -0.2396  0.5844
33810SOL    HW113154   2.887   1.033   7.696 -0.5722 -0.7688 -0.6136
33810SOL    HW213155   2.982   1.064   7.582  0.0126  0.6719  0.2433
33811SOL     OW13156   3.893  11.464   7.271  0.5427  0.1269 -0.1632
33811SOL    HW113157   3.865  11.373   7.281  1.8446 -0.1494  1.1903
33811SOL    HW213158   3.986  11.459   7.251  0.7355  1.1816  0.4186
33812SOL     OW13159   4.432  11.268   7.864 -0.3126  0.0910  0.4686
33812SOL    HW113160   4.511  11.214   7.868  0.5732  1.2402 -0.6476
33812SOL    HW213161   4.401  11.260   7.774 -0.6994  0.7017  0.5405
33813SOL     OW13162  10.583   5.927   9.073  0.1108 -0.5137  0.0853
33813SOL    HW113163  10.637   5.853   9.100 -0.4224 -0.8965  0.1012
33813SOL    HW213164  10.494   5.901   9.094 -0.1944 -0.3338 -0.9530
33814SOL     OW13165   7.046   8.986   0.756  0.4013 -0.1114  0.6356
33814SOL    HW113166   7.017   9.077   0.742 -0.3930 -0.4806 -0.1969
33814SOL    HW213167   6.966   8.940   0.782  0.8080 -0.5760  1.0625
33815SOL     OW13168  10.495   4.343   5.244 -0.2696  0.1413 -0.0014
33815SOL    HW113169  10.517   4.250   5.237  1.0221  0.5134 -1.6461
33815SOL    HW213170  10.573   4.383   5.282  0.3947  0.9142 -2.0241
33816SOL     OW13171   8.684   7.851   9.790  0.3445 -0.6514 -0.0116
33816SOL    HW113172   8.749   7.805   9.842  0.5051 -0.7221 -0.2750
33816SOL    HW213173   8.700   7.822   9.700  1.5151  1.1540 -0.4323
33817SOL     OW13174   9.755   5.109   8.329 -0.2319 -0.3738 -0.2539
33817SOL    HW113175   9.783   5.018   8.327  0.7416 -0.2198  2.1331
33817SOL    HW213176   9.816   5.155   8.271  2.5346 -0.5821  2.2484
33818SOL     OW13177   4.959  11.383   1.383  0.2129 -0.2937 -0.1013
33818SOL    HW113178   5.032  11.423   1.335 -0.0817 -1.8008 -1.8878
33818SOL    HW213179   4.884  11.391   1.325 -0.2932 -1.6510  0.3189
33819SOL     OW13180   4.317   5.449  11.561 -0.0897 -0.2674  0.2971
33819SOL    HW113181   4.246   5.385  11.570 -0.7102  0.1544 -1.2769
33819SOL    HW213182   4.359   5.450  11.647 -0.6177 -2.1255  0.6255
33820SOL     OW13183   8.039   0.961   8.361 -0.1013 -0.1513  0.0845
33820SOL    HW113184   8.030   0.870   8.334 -1.7561 -0.5384  1.7399
33820SOL    HW213185   8.108   0.960   8.427  0.1998 -0.1236 -0.2293
33821SOL     OW13186   8.853   5.274   2.303  0.0433 -0.1653  0.3286
33821SOL    HW113187   8.883   5.184   2.300  3.6504  0.8486  1.4347
33821SOL    HW213188   8.901   5.318   2.233 -1.5988  0.9695 -0.1575
33822SOL     OW13189   7.464   1.001   0.266 -0.3967 -0.1362  0.1029
33822SOL    HW113190   7.455   0.925   0.208  0.3227 -1.3524  1.5211
33822SOL    HW213191   7.383   1.003   0.317 -0.3306 -0.0576  0.2056
33823SOL     OW13192   6.507   1.034   3.870  0.1681 -0.5445 -0.9510
33823SOL    HW113193   6.429   1.031   3.925  0.6997  1.7849  0.0695
33823SOL    HW213194   6.523   0.943   3.845 -1.2516 -1.4354  1.1260
33824SOL     OW13195   8.285   0.718   2.603  0.8357  0.1286  0.5732
33824SOL    HW113196   8.210   0.710   2.545  0.2223  1.6864  1.0892
33824SOL    HW213197   8.250   0.699   2.690  0.6705  2.1574  1.0025
33825SOL     OW13198   6.394   8.380   8.893  0.0187 -0.1428  0.1286
33825SOL    HW113199   6.452   8.453   8.911  0.3401 -0.5554  0.8156
33825SOL    HW213200   6.394   8.372   8.797 -0.7435  1.3220 -0.0219
33826SOL     OW13201   7.237   0.157  11.564  0.1037  0.2568 -0.0755
33826SOL    HW113202   7.273   0.164  11.475 -0.2953  0.2153 -0.2391
33826SOL    HW213203   7.286   0.085  11.604 -0.1224 -0.1079 -0.4544
33827SOL     OW13204   9.295   5.739   8.247 -0.2794 -0.3214  0.1452
33827SOL    HW113205   9.228   5.690   8.294 -0.4498  0.8118  1.1376
33827SOL    HW213206   9.376   5.692   8.266 -0.4058 -0.1284  1.2486
33828SOL     OW13207   0.040  10.923   5.027  0.2069  0.1017 -0.0415
33828SOL    HW113208  -0.017  10.884   4.961  0.2650  1.2798 -0.8059
33828SOL    HW213209   0.129  10.900   4.999  0.2579  1.0440 -0.6776
33829SOL     OW13210   7.921  11.186   0.870  0.0552  0.3855  0.1735
33829SOL    HW113211   7.901  11.093   0.885  0.4180  0.4222  1.0091
33829SOL    HW213212   7.849  11.219   0.817  0.1661 -0.4901 -0.5422
33830SOL     OW13213  11.439   8.823   8.474  0.5062 -0.2013  0.3120
33830SOL    HW113214  11.474   8.736   8.457  0.3636 -0.2025  0.0261
33830SOL    HW213215  11.474   8.878   8.403 -2.3656 -0.7892 -1.7111
33831SOL     OW13216   0.236   4.772   8.342 -0.0434 -0.2361  0.0881
33831SOL    HW113217   0.154   4.806   8.376 -0.2162  0.8680 -1.3734
33831SOL    HW213218   0.302   4.835   8.372  0.0235 -0.1392 -0.2640
33832SOL     OW13219   5.348   5.590   0.919 -0.1180  0.4892  0.6886
33832SOL    HW113220   5.427   5.575   0.867  0.2066  3.6410  0.1075
33832SOL    HW213221   5.374   5.652   0.986 -1.4930 -0.5315  2.2355
33833SOL     OW13222   2.155   6.279  11.693 -0.3848  0.1867 -0.4013
33833SOL    HW113223   2.089   6.303  11.757 -0.0627 -0.7065  0.2858
33833SOL    HW213224   2.235   6.321  11.724  0.2756 -1.9376  1.0242
33834SOL     OW13225   4.517   8.660  11.217 -0.2341  0.2602 -0.3397
33834SOL    HW113226   4.585   8.627  11.277 -0.2532  1.5253  0.4279
33834SOL    HW213227   4.561   8.664  11.132  0.9327  1.6764  0.2595
33835SOL     OW13228   2.470   8.592   1.165  0.1195 -0.2872  0.2939
33835SOL    HW113229   2.400   8.631   1.219 -1.8760  0.3736 -2.5285
33835SOL    HW213230   2.477   8.650   1.090  2.6798 -1.2263 -0.2685
33836SOL     OW13231   3.469   8.681   3.963  0.5125  0.0967 -0.1874
33836SOL    HW113232   3.544   8.726   4.002  0.1811  0.5955 -0.1220
33836SOL    HW213233   3.399   8.690   4.028  0.8758 -1.8764  0.5520
33837SOL     OW13234   6.839   0.629   9.100  0.1254  0.4827  0.2094
33837SOL    HW113235   6.921   0.599   9.059  0.5984  1.8715  0.0638
33837SOL    HW213236   6.774   0.564   9.075  0.8721  0.1559 -0.9744
33838SOL     OW13237   7.868   1.951   6.620 -0.2114  0.4951 -0.5701
33838SOL    HW113238   7.928   1.930   6.692 -0.0918  0.5987 -0.6376
33838SOL    HW213239   7.811   2.019   6.656 -0.0296  0.6831 -0.6309
33839SOL     OW13240   5.495  11.223   7.002 -0.0403  0.3175  0.1434
33839SOL    HW113241   5.513  11.280   7.076 -2.2844  0.2219  0.8428
33839SOL    HW213242   5.555  11.149   7.013  1.6266  1.6247  0.2363
33840SOL     OW13243   1.088   8.236   4.314 -0.2652 -0.3287 -0.2598
33840SOL    HW113244   1.149   8.162   4.316 -0.2917 -0.4065 -1.4686
33840SOL    HW213245   1.090   8.272   4.402  1.5845 -0.2878 -0.2936
33841SOL     OW13246   3.783   9.289   8.268 -0.1812 -0.2977  0.1397
33841SOL    HW113247   3.689   9.295   8.284  0.3177  1.2830  3.3019
33841SOL    HW213248   3.803   9.366   8.215 -0.4092  0.6651  1.4001
33842SOL     OW13249  11.190   1.196  11.793 -0.0253  0.5513  0.1363
33842SOL    HW113250  11.180   1.166  11.703 -0.8002  0.2472  0.3169
33842SOL    HW213251  11.133   1.273  11.799  1.8344  2.0536 -0.2859
33843SOL     OW13252   4.891   6.308   4.794 -0.2738 -0.0699  0.0750
33843SOL    HW113253   4.965   6.363   4.820  0.4674 -0.9026 -0.2217
33843SOL    HW213254   4.910   6.286   4.703 -1.7956  1.1421 -0.5849
33844SOL     OW13255   7.261   7.936   5.957  0.5252 -0.3807  0.2460
33844SOL    HW113256   7.237   7.923   5.865  0.2040  1.4249  0.0443
33844SOL    HW213257   7.179   7.958   6.000  1.2009  3.0974  0.0800
33845SOL     OW13258   0.917   5.944   1.341 -0.6802 -0.1263 -0.0212
33845SOL    HW113259   0.880   5.882   1.404  0.0356 -1.9954 -1.3629
33845SOL    HW213260   1.011   5.924   1.341 -0.2705  1.6699  0.2395
33846SOL     OW13261  10.227   7.385  10.063 -0.8077  0.3187  0.2427
33846SOL    HW113262  10.170   7.421   9.994 -0.7843  0.9810  0.5638
33846SOL    HW213263  10.262   7.304  10.025 -0.2407  1.0344 -0.8095
33847SOL     OW13264   4.321  10.117   9.521  0.2721  0.3925  0.6137
33847SOL    HW113265   4.347  10.121   9.429 -2.4491 -1.9009 -0.4179
33847SOL    HW213266   4.404  10.123   9.569  2.1350 -0.9790 -2.0941
33848SOL     OW13267   9.639   4.163  10.011  0.3328  0.2198  0.0790
33848SOL    HW113268   9.632   4.230  10.080  0.2090 -0.8673  1.1492
33848SOL    HW213269   9.572   4.098  10.034  1.1005 -0.7585 -0.3988
33849SOL     OW13270  11.490   4.808   5.176 -0.7791 -0.1309  0.7490
33849SOL    HW113271  11.509   4.734   5.119 -2.6960 -0.1726  0.0895
33849SOL    HW213272  11.444   4.870   5.120 -0.7053  0.8249  1.7067
33850SOL     OW13273   4.799   8.491   4.933 -0.1303 -0.4401 -0.4680
33850SOL    HW113274   4.712   8.451   4.932 -0.5232 -0.0155  3.0483
33850SOL    HW213275   4.782   8.585   4.938  0.3753 -0.3979  1.5788
33851SOL     OW13276   5.664   1.080   3.670  0.0514 -0.0635 -0.2388
33851SOL    HW113277   5.622   1.163   3.692 -0.9929 -0.2525 -1.4219
33851SOL    HW213278   5.755   1.104   3.651  0.3397  0.4566  1.5986
33852SOL     OW13279   2.048   0.897  11.810  0.3939  0.6196 -0.2000
33852SOL    HW113280   2.143   0.910  11.807  0.5538 -0.1313  0.8601
33852SOL    HW213281   2.034   0.850  11.893 -0.8595  0.3712 -0.5449
33853SOL     OW13282  11.099   4.246  10.544 -0.0110 -0.3719 -0.2979
33853SOL    HW113283  11.043   4.172  10.567 -2.2201  0.7537 -1.7123
33853SOL    HW213284  11.091   4.253  10.449 -1.9865  3.2026 -0.0022
33854SOL     OW13285   4.868   6.074  10.182 -0.0567 -0.2607 -0.0900
33854SOL    HW113286   4.878   5.984  10.211 -0.3946 -0.0652  0.6567
33854SOL    HW213287   4.891   6.072  10.090  2.5012 -0.6590  0.4787
33855SOL     OW13288  10.119   2.348   1.085 -0.2212  0.2273 -0.2282
33855SOL    HW113289  10.131   2.254   1.070 -1.4542 -0.1775  1.0648
33855SOL    HW213290  10.060   2.376   1.015  2.3793  0.7189 -2.3587
33856SOL     OW13291   7.011  11.321  11.837 -1.1124 -0.6039  0.6696
33856SOL    HW113292   6.962  11.399  11.865 -0.1509 -0.2080  1.3227
33856SOL    HW213293   6.957  11.247  11.866 -1.9734 -0.1952  0.1580
33857SOL     OW13294   4.596   3.493   0.078 -0.0791  0.1656  0.0881
33857SOL    HW113295   4.683   3.455   0.071 -0.0950  0.1288  0.0907
33857SOL    HW213296   4.561   3.490  -0.011 -0.3375 -0.4382  0.2039
33858SOL     OW13297   5.954   3.824  10.888  0.5928 -0.4414  0.3895
33858SOL    HW113298   6.046   3.824  10.860  0.3256 -1.0874 -0.5545
33858SOL    HW213299   5.908   3.870  10.817  0.2325  0.2364  1.0491
33859SOL     OW13300   0.498   6.110   8.216  0.2849  0.4266  0.3020
33859SOL    HW113301   0.477   6.197   8.183 -0.0219  0.3956  0.4198
33859SOL    HW213302   0.448   6.050   8.161  0.5536  0.3197  0.1717
33860SOL     OW13303   0.848   8.525   9.223 -0.2163  0.4012  0.0566
33860SOL    HW113304   0.924   8.469   9.210 -0.0319 -0.3577  3.4050
33860SOL    HW213305   0.773   8.469   9.205 -0.1320  1.1336 -3.1919
33861SOL     OW13306   4.061   5.686   6.984  0.8148  0.1150 -0.5994
33861SOL    HW113307   3.987   5.701   7.044  1.4456 -0.0385  0.2312
33861SOL    HW213308   4.022   5.637   6.911  0.2357 -0.6672  0.1953
33862SOL     OW13309   4.509   3.214   5.424 -0.6116 -0.5043 -0.5433
33862SOL    HW113310   4.422   3.227   5.462  0.2637 -0.3529  1.5251
33862SOL    HW213311   4.548   3.144   5.477  0.0292 -1.6026 -2.3595
33863SOL     OW13312   1.945   1.717   2.157  0.3042  0.1623  0.2110
33863SOL    HW113313   1.990   1.779   2.215 -0.6783  0.4906  0.6304
33863SOL    HW213314   1.953   1.633   2.201  1.4231  0.0224 -0.2350
33864SOL     OW13315   5.531  10.316   1.230  0.3200 -0.0576 -0.2737
33864SOL    HW113316   5.557  10.318   1.138  0.3332  0.1239 -0.2659
33864SOL    HW213317   5.556  10.228   1.260  0.4693 -0.0572 -0.3975
33865SOL     OW13318   8.353   1.724   8.514  0.5260 -0.2559  0.9079
33865SOL    HW113319   8.286   1.788   8.540 -1.9132 -2.2288 -0.0681
33865SOL    HW213320   8.355   1.731   8.418  1.3882 -0.5519  0.9021
33866SOL     OW13321   3.617  10.283   6.130  0.9492  0.5902 -0.0369
33866SOL    HW113322   3.531  10.308   6.161  1.3006  2.8068 -0.7232
33866SOL    HW213323   3.654  10.363   6.093  2.6205 -0.7050 -1.3285
33867SOL     OW13324   8.254   2.236   3.815  0.2175 -0.1476 -0.7863
33867SOL    HW113325   8.290   2.157   3.855  2.4300 -0.4700 -3.1120
33867SOL    HW213326   8.250   2.215   3.722 -1.1803  1.7682 -1.2042
33868SOL     OW13327   1.898   4.033   3.307 -0.0120  0.2601 -0.3379
33868SOL    HW113328   1.967   4.010   3.245 -0.9829  0.3412 -1.4718
33868SOL    HW213329   1.817   3.999   3.268 -0.4348 -1.4700  1.8399
33869SOL     OW13330   2.647   3.596   4.476 -0.7736  0.4975  0.3881
33869SOL    HW113331   2.731   3.574   4.437 -0.0437  1.9392  1.0590
33869SOL    HW213332   2.619   3.675   4.430 -1.8090 -0.0099  0.1259
33870SOL     OW13333   9.875   9.329   1.388 -0.4423 -0.6130  0.6530
33870SOL    HW113334   9.820   9.300   1.315 -0.3437  0.3371  0.1972
33870SOL    HW213335   9.944   9.263   1.393  0.1112 -0.1863 -0.7526
33871SOL     OW13336   5.706   2.111   2.363 -0.6822 -0.1243  0.3263
33871SOL    HW113337   5.705   2.126   2.268  0.1440  1.4088  0.5208
33871SOL    HW213338   5.786   2.062   2.378 -1.7126 -1.9848  0.0679
33872SOL     OW13339  11.854   3.128   4.526 -0.9269 -0.2987  0.6309
33872SOL    HW113340  11.871   3.078   4.606  2.2834 -0.2303  0.1222
33872SOL    HW213341  11.903   3.210   4.538 -0.9104 -0.0123 -1.1303
33873SOL     OW13342  10.449   5.900   5.521  0.4443  0.9995 -0.3089
33873SOL    HW113343  10.454   5.838   5.448  0.4503 -1.2807  1.4795
33873SOL    HW213344  10.537   5.900   5.559 -0.0635  0.3925  0.9593
33874SOL     OW13345  10.028   5.378   7.252 -0.5192  0.8245 -0.1750
33874SOL    HW113346  10.078   5.427   7.187 -0.1541  1.1300  0.3305
33874SOL    HW213347  10.094   5.330   7.303 -0.8452  0.1011 -0.4228
33875SOL     OW13348   3.295   3.941   0.955  0.3873 -0.0341 -0.2274
33875SOL    HW113349   3.230   3.873   0.976  0.8051 -0.0785  0.9897
33875SOL    HW213350   3.244   4.009   0.911 -0.4089 -0.2721  0.2908
33876SOL     OW13351   4.527   2.805   6.679  0.5485  0.8140 -0.2623
33876SOL    HW113352   4.610   2.838   6.715 -0.1616  1.3220  0.9424
33876SOL    HW213353   4.535   2.821   6.584  1.7631  0.9718 -0.1557
33877SOL     OW13354   9.532   1.470   4.294 -0.1554 -0.1019 -0.2961
33877SOL    HW113355   9.559   1.379   4.309  0.1890  0.1403  0.5991
33877SOL    HW213356   9.605   1.522   4.326 -0.9908  0.5249  0.6365
33878SOL     OW13357   6.460   5.970   7.895 -0.2563  0.2285  0.1337
33878SOL    HW113358   6.474   5.889   7.944 -1.1043  0.4532  0.7743
33878SOL    HW213359   6.548   5.999   7.869  0.2303  0.1867  1.6690
33879SOL     OW13360   4.171  10.390   4.729 -0.0609  0.6354 -0.0008
33879SOL    HW113361   4.181  10.299   4.700 -1.0007  0.3911  0.4088
33879SOL    HW213362   4.109  10.428   4.666  1.7199  1.5482 -1.2980
33880SOL     OW13363   0.573   6.062   1.014  0.0090 -0.5592 -0.7720
33880SOL    HW113364   0.622   5.995   1.063  0.6353  0.1964 -0.3311
33880SOL    HW213365   0.560   6.024   0.928  0.1560 -1.3447 -0.4593
33881SOL     OW13366   5.170   9.041   8.535  0.3592  0.1024  0.3888
33881SOL    HW113367   5.227   8.965   8.535 -0.2148 -0.4807 -3.3324
33881SOL    HW213368   5.215   9.106   8.482 -1.1224  0.6762 -0.2308
33882SOL     OW13369   3.220   5.000   9.436  0.1307 -0.1125  0.3773
33882SOL    HW113370   3.240   4.920   9.485  0.4589  0.5452  1.3656
33882SOL    HW213371   3.302   5.023   9.392  0.3764  0.2711  1.0053
33883SOL     OW13372   9.616   5.099  10.377 -0.3108  0.3810 -0.3402
33883SOL    HW113373   9.633   5.183  10.421  1.2238  0.1438 -0.4409
33883SOL    HW213374   9.700   5.054  10.378 -1.2440 -1.4269  0.2383
33884SOL     OW13375   6.382  11.203   1.857  0.1026 -0.5700 -0.2839
33884SOL    HW113376   6.316  11.225   1.792  0.2135 -0.6681 -0.4288
33884SOL    HW213377   6.442  11.277   1.856 -0.6467  0.0791  0.6900
33885SOL     OW13378  11.848   5.006   9.475 -0.0350  0.2064  0.0179
33885SOL    HW113379  11.829   5.090   9.433  0.6058  2.0011  2.9911
33885SOL    HW213380  11.835   5.023   9.569  0.9084 -2.8155  0.7985
33886SOL     OW13381   8.101   3.442  10.480 -0.3284  0.7028  0.1479
33886SOL    HW113382   8.076   3.474  10.566 -0.2980 -0.4509  0.6019
33886SOL    HW213383   8.196   3.428  10.486 -0.3561  0.4317 -0.0068
33887SOL     OW13384  10.827   0.143   8.488 -0.0862  0.0558  0.4243
33887SOL    HW113385  10.883   0.081   8.535 -0.7076 -0.7598  0.1084
33887SOL    HW213386  10.876   0.166   8.410  0.4327  0.4816  0.8680
33888SOL     OW13387   6.373   7.695   0.770  0.3877  0.1173  0.2917
33888SOL    HW113388   6.290   7.673   0.812  0.4625  2.7236  2.0016
33888SOL    HW213389   6.438   7.644   0.817  0.0783  0.3763  1.0096
33889SOL     OW13390   8.701   8.752   0.924  0.6092  0.0722 -0.0954
33889SOL    HW113391   8.796   8.765   0.928  0.8768 -1.7528  0.3653
33889SOL    HW213392   8.667   8.835   0.892  2.4125  0.5839 -0.8066
33890SOL     OW13393   2.391   6.218   4.732 -0.8646  0.4403 -0.6410
33890SOL    HW113394   2.374   6.246   4.822 -1.2986  1.2159 -0.9532
33890SOL    HW213395   2.328   6.147   4.718  0.0144 -0.5000  0.0467
33891SOL     OW13396   6.805   0.954   3.942  0.3978 -0.1903  0.3315
33891SOL    HW113397   6.871   1.016   3.911 -0.2173  0.0743 -0.5085
33891SOL    HW213398   6.725   1.007   3.950 -0.2055 -0.9201 -0.6721
33892SOL     OW13399   3.777   1.604   2.021  0.8202  0.5053 -0.4400
33892SOL    HW113400   3.825   1.683   2.046  0.2018  0.5032  0.8482
33892SOL    HW213401   3.800   1.590   1.930  0.6294  2.3956 -0.8231
33893SOL     OW13402   2.932   7.997   2.084 -0.1014  0.0410  0.4923
33893SOL    HW113403   2.920   8.080   2.129 -0.7031  1.4630 -2.1064
33893SOL    HW213404   3.027   7.986   2.079 -0.0128 -0.3595  2.3421
33894SOL     OW13405   1.944   9.160   9.427 -0.2427  0.5219 -0.6747
33894SOL    HW113406   2.009   9.202   9.370  0.6597  0.2338  0.1170
33894SOL    HW213407   1.919   9.229   9.489  0.8870  0.0664  0.3285
33895SOL     OW13408  11.041  10.473   5.441 -0.0499  0.6817 -0.2013
33895SOL    HW113409  10.957  10.446   5.478  0.2369  0.0603  0.0191
33895SOL    HW213410  11.106  10.421   5.489  0.3340 -0.1666 -1.5869
33896SOL     OW13411   6.502   8.343   9.907  0.4744 -0.2938  0.0006
33896SOL    HW113412   6.411   8.366   9.889  1.3876  1.4081 -3.4348
33896SOL    HW213413   6.534   8.416   9.961 -0.1128 -0.8603  1.1564
33897SOL     OW13414   0.981   8.261   5.018  0.4069  0.1310 -0.1638
33897SOL    HW113415   0.910   8.316   4.985  1.8508  3.2350  1.4318
33897SOL    HW213416   0.969   8.260   5.113  1.1918 -1.2346 -0.0551
33898SOL     OW13417   5.680   9.448   9.637 -0.8428  0.1847  0.1666
33898SOL    HW113418   5.757   9.404   9.601 -0.4882 -0.6173  1.8069
33898SOL    HW213419   5.667   9.524   9.580 -0.1358 -0.8240 -1.4131
33899SOL     OW13420   4.801   7.543   1.362 -0.4847 -0.8490  0.0820
33899SOL    HW113421   4.782   7.507   1.449  1.6483 -1.4032  0.3942
33899SOL    HW213422   4.877   7.600   1.377 -0.0246 -1.0315 -1.4235
33900SOL     OW13423  10.297   3.965   9.096  0.7050  0.1102  0.2408
33900SOL    HW113424  10.332   3.882   9.131 -1.7119 -0.3031  1.9797
33900SOL    HW213425  10.312   3.960   9.002  2.5007 -1.3318  0.5408
33901SOL     OW13426   1.163   3.541   9.782  0.3942 -0.3927 -0.3436
33901SOL    HW113427   1.194   3.452   9.801  0.2284 -0.2619  0.6321
33901SOL    HW213428   1.241   3.595   9.791  0.2451 -0.2843  0.3650
33902SOL     OW13429   0.516   3.407   8.690  0.5184  0.3398 -0.1002
33902SOL    HW113430   0.460   3.349   8.741 -0.2099  1.7210  0.7172
33902SOL    HW213431   0.494   3.388   8.599  0.5219 -0.8610  0.1271
33903SOL     OW13432   7.076   2.086   8.759 -0.1105 -0.0719  0.6144
33903SOL    HW113433   7.056   2.052   8.672  0.8538  0.8435  0.0046
33903SOL    HW213434   7.149   2.032   8.790 -0.7974 -0.7417  1.0922
33904SOL     OW13435  10.066  10.764  10.830 -0.1770 -0.1776  0.5459
33904SOL    HW113436  10.090  10.679  10.868  1.4169  0.0055  0.0450
33904SOL    HW213437  10.037  10.743  10.741  0.6788 -0.1672  0.2566
33905SOL     OW13438   7.540   7.855   9.481 -0.4914  0.4356 -0.2090
33905SOL    HW113439   7.624   7.878   9.522 -0.6667 -1.4436  1.3819
33905SOL    HW213440   7.564   7.804   9.404 -0.0808 -1.6531  1.2135
33906SOL     OW13441   5.746   1.747   1.459 -0.6292 -0.4072 -0.8963
33906SOL    HW113442   5.652   1.742   1.475 -0.8272  1.1553 -1.4137
33906SOL    HW213443   5.785   1.764   1.545 -0.8894 -0.3877 -0.7836
33907SOL     OW13444   5.250   9.115   5.371  0.2613  0.0912 -0.3086
33907SOL    HW113445   5.222   9.114   5.279  2.0110  1.2136 -0.9195
33907SOL    HW213446   5.346   9.118   5.366  0.3718  0.5968  1.5551
33908SOL     OW13447   8.573   0.909   6.863 -0.0292  0.2481 -0.3057
33908SOL    HW113448   8.618   0.828   6.836 -0.0775  0.3813 -0.8009
33908SOL    HW213449   8.538   0.945   6.781 -0.3329  0.5742 -0.0351
33909SOL     OW13450   9.717   3.007   0.826 -0.3941  0.4530  0.4761
33909SOL    HW113451   9.670   3.088   0.808  1.2130  1.1903 -0.7279
33909SOL    HW213452   9.655   2.938   0.805 -1.2964  1.3741  0.0248
33910SOL     OW13453   4.447   6.224   5.762 -0.4878  0.1345 -0.7444
33910SOL    HW113454   4.432   6.313   5.792  0.5903 -0.2360  1.0269
33910SOL    HW213455   4.429   6.169   5.838  0.5986 -1.0103 -1.2688
33911SOL     OW13456   2.566   8.237   0.761  0.2582 -0.0339  0.3153
33911SOL    HW113457   2.554   8.147   0.791 -0.6282  0.7001  2.3496
33911SOL    HW213458   2.523   8.291   0.828  0.2034  1.8817 -1.1681
33912SOL     OW13459   6.573   9.654   8.160  0.3575 -0.5992  0.3864
33912SOL    HW113460   6.609   9.565   8.152  1.6630 -0.2550  1.9477
33912SOL    HW213461   6.552   9.663   8.252 -0.6743  0.4123  0.0732
33913SOL     OW13462   3.628   0.288   5.237  0.4741  0.0709 -0.2243
33913SOL    HW113463   3.689   0.303   5.165  0.6801  0.5340  0.0374
33913SOL    HW213464   3.675   0.321   5.315  0.0940 -0.0406  0.0543
33914SOL     OW13465  10.242   7.672   7.113 -0.2392 -0.2467 -0.7003
33914SOL    HW113466  10.244   7.648   7.206 -0.4713 -0.6792 -0.8040
33914SOL    HW213467  10.334   7.670   7.086 -0.2173 -0.5931 -0.5999
33915SOL     OW13468   9.532   0.067   4.990 -0.3227 -0.5494 -0.2283
33915SOL    HW113469   9.487   0.148   4.965  1.2222  0.3820 -0.0754
33915SOL    HW213470   9.583   0.042   4.913 -1.2705 -1.7586 -0.4989
33916SOL     OW13471  11.685   3.247   9.018 -0.6579  0.0565 -0.7662
33916SOL    HW113472  11.620   3.316   9.005 -2.0298 -1.1846 -0.7846
33916SOL    HW213473  11.655   3.175   8.964 -0.1450 -1.1287  0.4667
33917SOL     OW13474   4.635  11.373   7.360  0.8068  0.6092 -0.1885
33917SOL    HW113475   4.709  11.364   7.300  1.2631 -0.2609  0.4918
33917SOL    HW213476   4.673  11.414   7.438  0.2724  1.4788 -0.3716
33918SOL     OW13477   6.486   2.020  10.211  0.2179  0.2109  0.1672
33918SOL    HW113478   6.522   2.107  10.194  2.5375 -0.6504  0.2466
33918SOL    HW213479   6.525   1.994  10.295 -1.6305 -0.3246  0.8983
33919SOL     OW13480   7.391   7.949   8.229 -0.3998  0.1987 -0.8065
33919SOL    HW113481   7.407   8.027   8.176  1.1284  0.5112  0.0441
33919SOL    HW213482   7.326   7.976   8.294  1.6500  1.4968  0.8452
33920SOL     OW13483   6.664   4.618   7.732  0.2814  0.5912 -0.1993
33920SOL    HW113484   6.741   4.646   7.682  0.0369 -0.5538 -1.2822
33920SOL    HW213485   6.594   4.674   7.701 -0.4536 -1.7123 -3.1679
33921SOL     OW13486   6.426   1.356   0.760 -0.0630 -0.0716  0.4540
33921SOL    HW113487   6.402   1.407   0.683 -3.7771 -0.1566  1.3962
33921SOL    HW213488   6.480   1.285   0.727 -0.5541  0.5761 -1.8731
33922SOL     OW13489   6.675   2.350  11.836  0.1127 -0.7873  0.2693
33922SOL    HW113490   6.701   2.316  11.922  0.9152 -0.6412  0.0931
33922SOL    HW213491   6.757   2.358  11.787 -0.1730  0.4000 -0.0597
33923SOL     OW13492  10.546   5.165   9.094 -0.3281  0.3771  0.1845
33923SOL    HW113493  10.529   5.081   9.051 -1.3835  0.5977  0.1411
33923SOL    HW213494  10.604   5.143   9.167 -0.0934 -0.2968 -0.2005
33924SOL     OW13495  11.220   4.038   8.211  0.6795 -0.2203  0.6164
33924SOL    HW113496  11.205   4.088   8.131 -2.6088 -1.0642  0.5813
33924SOL    HW213497  11.305   3.996   8.197  0.8359  0.7160 -1.8215
33925SOL     OW13498  11.733   3.588   4.487 -0.8270  0.0334 -0.6256
33925SOL    HW113499  11.817   3.557   4.451 -0.3454 -1.5241  1.6394
33925SOL    HW213500  11.667   3.550   4.428 -0.0747 -2.4331 -0.0260
33926SOL     OW13501   6.339  10.171   2.139 -0.7837  0.2199  0.3550
33926SOL    HW113502   6.339  10.266   2.131 -2.0416  0.1009 -1.6420
33926SOL    HW213503   6.338  10.138   2.049 -1.9453 -1.6580  0.9846
33927SOL     OW13504   6.587   9.169   2.264  0.2692 -0.0239 -0.1844
33927SOL    HW113505   6.497   9.171   2.296 -0.5626 -1.0261 -2.2580
33927SOL    HW213506   6.579   9.172   2.168  2.4437 -0.2179 -0.4434
33928SOL     OW13507   2.828   6.068   8.542  0.5908  0.0798  0.4632
33928SOL    HW113508   2.802   6.147   8.591  0.7889  1.1877 -1.1417
33928SOL    HW213509   2.911   6.092   8.501 -0.7816  0.1834 -2.5063
33929SOL     OW13510   1.096   4.871   0.280 -0.2369  0.5156  0.4471
33929SOL    HW113511   1.019   4.861   0.335 -0.1090 -0.9223  0.3976
33929SOL    HW213512   1.168   4.838   0.333 -0.0027 -0.2269 -0.3136
33930SOL     OW13513   6.960   5.836   6.132 -0.6270 -0.3027  0.0912
33930SOL    HW113514   7.017   5.880   6.069  0.5257 -0.7725  0.7495
33930SOL    HW213515   6.982   5.877   6.216 -0.8338 -0.8832  0.4390
33931SOL     OW13516   2.663   8.809   9.956 -0.4368  0.4064  0.0585
33931SOL    HW113517   2.618   8.829  10.038  0.3891  2.3562  0.0978
33931SOL    HW213518   2.670   8.894   9.912 -0.4232 -0.5239 -1.8184
33932SOL     OW13519   8.929   5.215   8.448 -0.4875  0.3420 -0.4062
33932SOL    HW113520   9.006   5.266   8.472 -1.0626  0.8781  0.3377
33932SOL    HW213521   8.875   5.275   8.397 -0.1920 -0.1834 -1.3594
33933SOL     OW13522   0.862   6.190   9.623  0.3358 -0.0722  0.3225
33933SOL    HW113523   0.782   6.237   9.599  0.7783  0.5411  0.0084
33933SOL    HW213524   0.909   6.250   9.680  1.5578  0.4855 -1.1785
33934SOL     OW13525   7.343   2.650  11.273 -0.8615 -0.1112 -0.7561
33934SOL    HW113526   7.308   2.665  11.361  1.6643  1.0208  0.1259
33934SOL    HW213527   7.285   2.702  11.216 -1.9524 -0.0787  0.3244
33935SOL     OW13528   4.712   1.118   4.284  0.0957  0.6219  0.5404
33935SOL    HW113529   4.752   1.031   4.291  1.6293  1.1316 -1.1936
33935SOL    HW213530   4.667   1.117   4.199 -0.1465  1.4086  0.6536
33936SOL     OW13531   5.458   1.652   9.348 -0.0643  0.3708  0.6952
33936SOL    HW113532   5.369   1.684   9.340  0.1356  1.2334  1.6927
33936SOL    HW213533   5.511   1.717   9.302 -0.0141 -0.7015 -0.8640
33937SOL     OW13534  10.291   3.632   0.664  0.2332  0.3988 -0.1329
33937SOL    HW113535  10.331   3.545   0.660 -1.2917 -0.4080  1.0989
33937SOL    HW213536  10.364   3.691   0.684  1.0025 -0.8404  0.8424
33938SOL     OW13537   0.966   0.340  11.675  0.5144  0.6193  0.5471
33938SOL    HW113538   1.012   0.381  11.601  1.1609  1.1516  1.2260
33938SOL    HW213539   0.970   0.406  11.745  0.8119 -0.2733  1.3903
33939SOL     OW13540   0.161   0.343   4.182 -0.0698 -0.6623 -0.3402
33939SOL    HW113541   0.105   0.419   4.166  1.9374  0.5261 -2.3038
33939SOL    HW213542   0.198   0.359   4.269 -2.1922 -1.1776  0.7417
33940SOL     OW13543   6.220   0.466   2.708 -0.0716  0.4432  0.0627
33940SOL    HW113544   6.152   0.429   2.765  0.9013 -1.0800  0.2958
33940SOL    HW213545   6.290   0.491   2.768  0.0043  1.0383 -0.2674
33941SOL     OW13546   7.646  11.105   2.660 -0.3826 -0.8732  0.5345
33941SOL    HW113547   7.666  11.195   2.634  0.6813 -0.6372  2.0394
33941SOL    HW213548   7.597  11.069   2.585  0.6415  0.4044 -0.8206
33942SOL     OW13549  11.729   7.401   6.270 -0.3021  0.1203 -0.0588
33942SOL    HW113550  11.757   7.477   6.220  0.6376 -0.0234  0.2353
33942SOL    HW213551  11.681   7.437   6.344  1.5723  0.5430  1.0094
33943SOL     OW13552   6.109   0.217  10.147  0.5523  0.0987 -0.1617
33943SOL    HW113553   6.151   0.136  10.118  1.9863  0.4804  0.7665
33943SOL    HW213554   6.091   0.203  10.240 -0.8845  0.1825 -0.3980
33944SOL     OW13555   8.424   4.620  10.933  0.1890  0.3326  0.0636
33944SOL    HW113556   8.495   4.563  10.902  0.3794 -0.0702  1.2028
33944SOL    HW213557   8.446   4.707  10.899  0.1110 -0.1719 -1.3550
33945SOL     OW13558   1.234   0.261   6.374 -0.2833  0.4051  0.5298
33945SOL    HW113559   1.192   0.247   6.459 -1.5564 -2.1482 -0.4147
33945SOL    HW213560   1.305   0.197   6.372  0.1625  0.9163 -0.0564
33946SOL     OW13561   4.402   5.178   8.285 -0.5127 -0.1827 -0.5680
33946SOL    HW113562   4.440   5.110   8.229  0.0163 -0.2759 -0.1138
33946SOL    HW213563   4.409   5.258   8.234  1.2796 -0.0032 -0.1262
33947SOL     OW13564   9.609   1.506   2.605  0.0774  0.4327 -0.1821
33947SOL    HW113565   9.599   1.533   2.696 -2.0651 -1.0815  0.1204
33947SOL    HW213566   9.519   1.502   2.571  0.7850  0.4096 -2.1980
33948SOL     OW13567   0.502  11.597   7.385  0.2127  0.2752  0.2989
33948SOL    HW113568   0.433  11.653   7.351 -0.7694 -1.3335 -0.4688
33948SOL    HW213569   0.522  11.633   7.472 -1.3260  0.9958  0.3843
33949SOL     OW13570   0.800   6.522   5.143  0.5890 -0.2892  0.0858
33949SOL    HW113571   0.859   6.450   5.162  1.0180 -0.3608 -1.3946
33949SOL    HW213572   0.780   6.513   5.050 -1.8495 -0.3202  0.5425
33950SOL     OW13573   4.213   9.890   6.891 -0.3672 -0.1031  0.2198
33950SOL    HW113574   4.173   9.803   6.890 -1.7603  0.5162 -0.9752
33950SOL    HW213575   4.275   9.886   6.964 -0.4129 -2.0743  0.2162
33951SOL     OW13576  10.139   5.025   0.932 -0.0875  0.4378 -0.0628
33951SOL    HW113577  10.228   5.051   0.908 -0.2291  0.8614 -0.1261
33951SOL    HW213578  10.124   4.943   0.884  0.4974  0.0225  0.4449
33952SOL     OW13579   5.237  10.877   3.095  0.2339  0.1474 -0.1550
33952SOL    HW113580   5.253  10.971   3.106 -2.9005  1.0314 -1.9853
33952SOL    HW213581   5.164  10.858   3.155 -0.0375 -0.8121 -0.7655
33953SOL     OW13582   2.604   6.692   9.110  0.9015 -0.4747 -0.4267
33953SOL    HW113583   2.543   6.715   9.179  1.2336 -0.1558 -0.2405
33953SOL    HW213584   2.672   6.759   9.113  1.7639 -1.3381 -0.0203
33954SOL     OW13585  10.266   5.396   2.609 -0.1127 -0.0654 -0.5193
33954SOL    HW113586  10.285   5.335   2.681 -0.4019  0.0566 -0.3356
33954SOL    HW213587  10.351   5.411   2.567  0.2235  0.5747  0.3647
33955SOL     OW13588   7.950   8.770  10.997  0.6505 -0.0749  0.0855
33955SOL    HW113589   7.869   8.814  10.972  0.9578  0.1150 -0.6152
33955SOL    HW213590   7.928   8.720  11.075  0.0693  0.6461  0.3986
33956SOL     OW13591   7.331   0.951   8.143 -0.4579  0.5969  0.5507
33956SOL    HW113592   7.399   1.005   8.184  0.7068 -1.5587  1.6141
33956SOL    HW213593   7.380   0.885   8.093 -1.8329  1.0697 -1.5777
33957SOL     OW13594   2.099   4.550   3.070  0.3480 -0.6577 -0.4947
33957SOL    HW113595   2.189   4.549   3.037  0.8806 -1.7099  0.9012
33957SOL    HW213596   2.099   4.486   3.141 -1.1353  0.4189  0.5215
33958SOL     OW13597   4.988  11.300   1.636 -0.3974 -0.1127  0.0316
33958SOL    HW113598   5.077  11.271   1.657 -0.5993 -0.0960  0.9670
33958SOL    HW213599   4.997  11.344   1.552  0.8382  1.4847  0.9181
33959SOL     OW13600   4.338   4.982   3.910 -0.1221  0.4103 -0.2848
33959SOL    HW113601   4.407   4.936   3.958 -1.2599 -1.3174 -0.2062
33959SOL    HW213602   4.373   4.994   3.822  1.1376  1.6519  0.3429
33960SOL     OW13603   2.616   5.620   1.299 -0.1967  0.1853  0.2527
33960SOL    HW113604   2.580   5.547   1.249 -0.6195  0.9857 -0.6270
33960SOL    HW213605   2.695   5.646   1.251  1.5908 -1.4606  2.0779
33961SOL     OW13606   2.343   3.869   8.867  0.3823 -0.6870  0.2468
33961SOL    HW113607   2.264   3.922   8.872  2.8748  3.3781  1.8844
33961SOL    HW213608   2.395   3.897   8.943  4.3284 -1.3669 -1.9302
33962SOL     OW13609   6.269  10.119   5.988  0.2165 -0.5011  0.2833
33962SOL    HW113610   6.232  10.205   6.010 -0.1994 -0.4676 -0.4972
33962SOL    HW213611   6.262  10.114   5.893 -0.6018 -1.7898  0.3942
33963SOL     OW13612   3.498   2.965  10.727 -0.0662  0.2031  0.1742
33963SOL    HW113613   3.568   2.989  10.787 -0.0738  2.1594 -0.5100
33963SOL    HW213614   3.420   3.009  10.762 -0.4056  0.0613 -0.3868
33964SOL     OW13615   2.752   5.871  10.934  0.0849 -0.1957  0.2698
33964SOL    HW113616   2.785   5.960  10.922  1.7346 -0.7826  0.1811
33964SOL    HW213617   2.696   5.856  10.858  0.4760  0.4640 -0.1612
33965SOL     OW13618   4.370   3.462  11.822 -0.0503 -0.4105  0.3168
33965SOL    HW113619   4.417   3.486  11.742  1.3204 -0.3432  1.1154
33965SOL    HW213620   4.282   3.437  11.791 -0.1578  1.3699 -1.0078
33966SOL     OW13621   2.371   8.678   5.961 -0.3101  0.0211  0.1255
33966SOL    HW113622   2.366   8.642   5.873 -0.8285  1.5953 -0.5217
33966SOL    HW213623   2.464   8.672   5.984 -0.2741 -1.0049 -0.2564
33967SOL     OW13624  11.457   7.328   8.161 -0.3506 -0.5312  0.2282
33967SOL    HW113625  11.417   7.357   8.079 -1.6910 -0.6474  0.8175
33967SOL    HW213626  11.423   7.387   8.228  1.2436 -0.0213  0.6428
33968SOL     OW13627   7.834   3.189   6.466  0.2311  0.5939  0.1739
33968SOL    HW113628   7.856   3.258   6.404 -0.1199  0.6099  0.0686
33968SOL    HW213629   7.871   3.219   6.550  4.7707 -1.4053 -0.7935
33969SOL     OW13630  10.179   2.205   6.342  0.7763  0.3445 -0.2703
33969SOL    HW113631  10.192   2.300   6.332  1.5029  0.2655 -0.0846
33969SOL    HW213632  10.115   2.197   6.413 -0.4453  0.7382 -1.2884
33970SOL     OW13633   3.402  10.660   3.866 -0.0089 -0.1251  0.5781
33970SOL    HW113634   3.408  10.609   3.786 -0.1928 -0.3556  0.7104
33970SOL    HW213635   3.472  10.725   3.859 -0.3460  0.1817 -0.0018
33971SOL     OW13636  11.703   5.991   8.783  0.3636 -0.0035 -0.2769
33971SOL    HW113637  11.688   6.085   8.790 -0.9874 -0.3161  3.8001
33971SOL    HW213638  11.623   5.951   8.816  0.9674 -2.6398 -1.6759
33972SOL     OW13639   5.894   1.784   1.699  0.7290 -0.0699  0.7030
33972SOL    HW113640   5.877   1.876   1.717  0.4439 -0.1333  0.7626
33972SOL    HW213641   5.863   1.738   1.778 -0.3974 -0.3403  0.1249
33973SOL     OW13642   3.674   0.556   7.326  0.7857 -0.6279 -0.9050
33973SOL    HW113643   3.618   0.514   7.261 -0.6623  0.8424 -0.6840
33973SOL    HW213644   3.648   0.517   7.409 -0.2629  0.3321 -0.7521
33974SOL     OW13645   7.501   2.718   0.197  0.2751 -0.5312 -0.6260
33974SOL    HW113646   7.426   2.669   0.163 -0.8889  1.2021 -0.7193
33974SOL    HW213647   7.503   2.797   0.143  1.6132 -0.1169 -0.0046
33975SOL     OW13648   4.375   3.420   2.184  0.5250 -0.0891 -0.0895
33975SOL    HW113649   4.471   3.421   2.192  0.6471  1.2621 -1.2219
33975SOL    HW213650   4.354   3.336   2.145  1.3435 -0.0395 -0.6543
33976SOL     OW13651   2.908  10.132  10.456 -0.5561 -0.0114 -0.0096
33976SOL    HW113652   2.997  10.136  10.421  0.6641  0.9134  2.9305
33976SOL    HW213653   2.919  10.123  10.550 -3.6320 -1.1253  0.3534
33977SOL     OW13654   2.301   0.737   3.892 -0.8544 -0.1881 -0.2476
33977SOL    HW113655   2.268   0.763   3.979 -1.1851 -4.8941  1.3014
33977SOL    HW213656   2.383   0.785   3.883 -1.9743  2.3265  1.4584
33978SOL     OW13657  10.740   1.678   2.896 -0.0166  0.3673  0.0785
33978SOL    HW113658  10.776   1.589   2.895  0.0883  0.4136 -0.3966
33978SOL    HW213659  10.794   1.726   2.834 -1.6419  0.1370 -1.6283
33979SOL     OW13660   3.251   4.010   3.101 -0.6626 -0.1012  0.6615
33979SOL    HW113661   3.319   4.076   3.092  1.1359 -1.8800  0.3352
33979SOL    HW213662   3.173   4.050   3.064  0.2782  1.8942  0.7128
33980SOL     OW13663   1.114   6.146   2.008  0.3242 -0.5980 -0.0304
33980SOL    HW113664   1.203   6.139   1.973  0.2498 -0.8063 -0.1846
33980SOL    HW213665   1.105   6.069   2.064  0.3023 -0.4809  0.1283
33981SOL     OW13666   9.967   8.141   7.557  0.0100  0.1815  0.1704
33981SOL    HW113667  10.046   8.088   7.547 -0.7044 -1.0526  0.7887
33981SOL    HW213668   9.897   8.085   7.523 -1.0088 -0.0007  2.3873
33982SOL     OW13669   1.511   7.389  10.152 -0.4317 -0.1722  0.2445
33982SOL    HW113670   1.475   7.359  10.236  0.2437 -2.1813 -0.1227
33982SOL    HW213671   1.449   7.355  10.087  0.0429 -0.2548 -0.1634
33983SOL     OW13672   8.687  11.814   4.237  0.3348 -0.2862 -0.2925
33983SOL    HW113673   8.645  11.891   4.277  0.0292 -0.3251 -0.5297
33983SOL    HW213674   8.635  11.798   4.158  0.4380 -0.6999 -0.2749
33984SOL     OW13675  10.239   7.820   6.077  0.2338  0.2060  1.0124
33984SOL    HW113676  10.256   7.768   5.998  0.0538  0.3182  0.8987
33984SOL    HW213677  10.153   7.860   6.061  0.1252  0.1044  1.3315
33985SOL     OW13678   1.455   1.544   6.810 -0.1492  0.4513 -0.3955
33985SOL    HW113679   1.393   1.538   6.737 -0.8227 -0.2618  0.2160
33985SOL    HW213680   1.412   1.603   6.872 -0.3316 -0.2173  0.1258
33986SOL     OW13681   5.627   2.415   6.786 -0.1981 -0.5455  0.3241
33986SOL    HW113682   5.612   2.401   6.879 -2.1517 -0.9190 -0.0113
33986SOL    HW213683   5.691   2.487   6.782 -0.4107 -0.2497  1.9248
33987SOL     OW13684   7.257   0.226   6.648  0.3497 -0.1429 -0.9209
33987SOL    HW113685   7.295   0.253   6.565  1.8130  1.0575  0.0763
33987SOL    HW213686   7.178   0.177   6.624  2.2881 -2.4613 -3.0930
33988SOL     OW13687  11.218  11.766  10.339  0.2706  0.2972  0.1912
33988SOL    HW113688  11.123  11.773  10.351  0.1682 -1.4249  0.5283
33988SOL    HW213689  11.237  11.832  10.271 -1.8133 -2.0940 -3.0494
33989SOL     OW13690  10.172   6.004  11.840  0.0352  0.3097 -0.4814
33989SOL    HW113691  10.202   6.095  11.842  0.0962  0.3201 -1.3839
33989SOL    HW213692  10.141   5.987  11.929 -0.1454  1.2683 -0.3499
33990SOL     OW13693   8.978   1.396   3.253  0.5104  0.2641 -0.0007
33990SOL    HW113694   9.041   1.424   3.320 -1.0733 -0.6237  1.9541
33990SOL    HW213695   8.942   1.478   3.220  0.4610  0.7021  1.1000
33991SOL     OW13696   6.351   1.030   1.966 -0.1771  1.0284 -0.5253
33991SOL    HW113697   6.301   1.107   1.994  1.3398  1.6555  0.6406
33991SOL    HW213698   6.423   1.066   1.915  0.4043  0.3564 -0.1927
33992SOL     OW13699   6.813   2.382   6.285 -0.0045  0.2388  0.1803
33992SOL    HW113700   6.750   2.346   6.348  0.1848 -0.5480 -0.0606
33992SOL    HW213701   6.774   2.463   6.255 -0.4235  0.2742  0.8003
33993SOL     OW13702   7.491   2.605  10.080  0.5994 -0.5830 -0.0018
33993SOL    HW113703   7.493   2.692  10.119 -2.2858  0.2498 -1.4481
33993SOL    HW213704   7.504   2.620   9.986 -0.6222 -1.6000 -0.3596
33994SOL     OW13705   4.098   8.142   3.023  0.1371  0.2149  0.1135
33994SOL    HW113706   4.003   8.157   3.031  0.3523  1.0995  1.2763
33994SOL    HW213707   4.105   8.052   2.991 -1.1078  0.3905 -0.7483
33995SOL     OW13708   5.030   3.206   3.242 -0.8668  0.0853  0.5124
33995SOL    HW113709   5.020   3.194   3.147 -0.9225 -0.9767  0.6371
33995SOL    HW213710   5.102   3.268   3.251 -2.0010  1.5962 -0.2427
33996SOL     OW13711   4.196   2.621  10.257 -0.1082 -0.0384  0.0008
33996SOL    HW113712   4.228   2.531  10.247 -0.0435 -0.1105  0.7967
33996SOL    HW213713   4.197   2.657  10.168  0.5556 -0.5949 -0.2290
33997SOL     OW13714  11.819   3.063   4.249 -0.0324 -0.3829  0.1631
33997SOL    HW113715  11.724   3.056   4.239 -0.0591 -0.0826  0.2027
33997SOL    HW213716  11.831   3.103   4.335  0.0284  2.3892 -1.0234
33998SOL     OW13717   4.152   5.591   7.927 -0.2901  0.3876  0.1431
33998SOL    HW113718   4.061   5.572   7.950  0.2507  0.2629  2.4026
33998SOL    HW213719   4.203   5.558   8.001  1.5801  0.7844 -0.9079
33999SOL     OW13720   2.158  10.790   0.418  0.2305  0.5958  0.1626
33999SOL    HW113721   2.137  10.882   0.400  1.2875  0.7320 -0.4653
33999SOL    HW213722   2.122  10.774   0.505  0.4619  1.7544  0.4924
34000SOL     OW13723   3.888   6.651   4.350 -0.4950 -0.7172  0.0766
34000SOL    HW113724   3.861   6.560   4.358  0.2520 -0.8276  1.8855
34000SOL    HW213725   3.925   6.673   4.436  1.8080  0.4981 -1.1202
34001SOL     OW13726   2.699  10.532  10.582  0.3380 -0.3581 -0.2995
34001SOL    HW113727   2.689  10.617  10.624  1.1063  0.0740 -0.9808
34001SOL    HW213728   2.722  10.473  10.654 -2.8050 -0.6221  0.6838
34002SOL     OW13729   8.207   3.013   3.282  0.2478  0.5166 -0.1457
34002SOL    HW113730   8.203   2.917   3.273 -0.1962  0.6131 -1.0295
34002SOL    HW213731   8.135   3.035   3.341  0.0933  0.3476 -0.2709
34003SOL     OW13732   9.221   4.680   0.456  0.0115 -0.4438 -0.7770
34003SOL    HW113733   9.183   4.616   0.517  0.5792 -0.7628 -0.7589
34003SOL    HW213734   9.153   4.748   0.449  0.0102 -0.2943  0.3762
34004SOL     OW13735   6.570  11.512   1.029  0.1213 -0.2748 -0.0478
34004SOL    HW113736   6.569  11.464   1.112 -0.3518 -1.1571 -0.5433
34004SOL    HW213737   6.552  11.445   0.963  0.2769  0.4537 -0.8415
34005SOL     OW13738   0.233   9.222   8.347  0.0428  0.2101  0.4277
34005SOL    HW113739   0.168   9.287   8.320 -0.1943 -0.7273 -1.4153
34005SOL    HW213740   0.312   9.244   8.298 -0.0286 -0.8508 -0.1918
34006SOL     OW13741   5.911   5.680   6.506  0.1050  0.3074  0.3608
34006SOL    HW113742   5.881   5.641   6.589  0.5072  2.3206  1.5267
34006SOL    HW213743   6.006   5.672   6.510  0.0916 -0.3106 -0.3202
34007SOL     OW13744   2.305   1.650   8.939 -0.2715  0.2231 -0.3735
34007SOL    HW113745   2.272   1.727   8.987  0.7113  0.8463 -0.6700
34007SOL    HW213746   2.278   1.665   8.849  0.4524  0.5378 -0.5447
34008SOL     OW13747   6.879   7.926  11.191  0.3964 -0.5839 -0.5993
34008SOL    HW113748   6.973   7.944  11.189  0.0757  1.3926 -0.7694
34008SOL    HW213749   6.850   7.939  11.100 -0.2856  0.6376 -0.2427
34009SOL     OW13750   1.670   1.822   4.280  0.1648  0.5506 -0.5614
34009SOL    HW113751   1.733   1.866   4.223 -0.0370 -0.6091 -1.7110
34009SOL    HW213752   1.595   1.803   4.224 -0.6036  0.5644  0.4227
34010SOL     OW13753  11.877   3.576   0.933  0.7946 -0.0327  0.1938
34010SOL    HW113754  11.869   3.582   0.838  0.6323  0.1297  0.2158
34010SOL    HW213755  11.794   3.540   0.963  0.7345  0.1858  0.2970
34011SOL     OW13756   5.271   7.769   9.057 -0.2181 -0.5320  0.1555
34011SOL    HW113757   5.275   7.720   8.975  3.9410 -1.2818  0.5750
34011SOL    HW213758   5.282   7.860   9.032  0.1129 -0.6625 -0.1763
34012SOL     OW13759   7.314   2.121   9.579 -0.0653  0.2084 -0.5381
34012SOL    HW113760   7.376   2.088   9.643 -0.6110  0.5499  0.1777
34012SOL    HW213761   7.315   2.056   9.509 -1.2843 -1.4868  0.9303
34013SOL     OW13762  11.770   1.824   7.507 -0.3308 -0.1845 -0.3608
34013SOL    HW113763  11.790   1.917   7.517  0.8379 -0.3813 -0.7110
34013SOL    HW213764  11.765   1.791   7.597  0.9665 -0.1095 -0.2375
34014SOL     OW13765   8.576  11.321   8.561  0.3704  0.2990  0.0334
34014SOL    HW113766   8.513  11.372   8.510  0.0196 -1.5035 -1.4318
34014SOL    HW213767   8.661  11.359   8.539  0.0037  1.3254  0.3121
34015SOL     OW13768  10.853   3.559   2.001  0.1366 -0.4557 -0.3361
34015SOL    HW113769  10.763   3.587   2.015  0.2573 -0.4512  0.4693
34015SOL    HW213770  10.845   3.470   1.966 -0.1796 -0.4326 -0.3220
34016SOL     OW13771   3.803   1.578  11.611 -0.7496 -0.1497  0.1836
34016SOL    HW113772   3.788   1.486  11.590 -2.6201 -0.1234  1.1956
34016SOL    HW213773   3.777   1.625  11.532 -1.9951 -0.3864  0.4308
34017SOL     OW13774   2.721   3.123   4.643  0.5194 -0.5592  0.9439
34017SOL    HW113775   2.644   3.180   4.650  2.2453  2.0288  0.3682
34017SOL    HW213776   2.714   3.084   4.556 -0.0516 -0.2180  0.8328
34018SOL     OW13777   7.883   6.836   1.262 -0.5320 -0.0382 -0.2126
34018SOL    HW113778   7.826   6.824   1.186 -0.9915  0.3618  0.0660
34018SOL    HW213779   7.849   6.774   1.327  1.1133 -1.8832 -1.0035
34019SOL     OW13780   2.982   0.808   7.799  0.1718 -0.1795  0.2343
34019SOL    HW113781   3.078   0.812   7.794  0.0962  0.4756 -1.5423
34019SOL    HW213782   2.964   0.757   7.878  1.9704  0.3289  1.0389
34020SOL     OW13783   0.564  10.790   6.585  0.2693  0.0784  0.1667
34020SOL    HW113784   0.605  10.849   6.522 -0.6491  3.2163  2.2731
34020SOL    HW213785   0.470  10.809   6.579 -0.0313 -1.0010  1.0759
34021SOL     OW13786  11.713   2.365   7.361  0.2365  0.0199  0.2583
34021SOL    HW113787  11.666   2.423   7.301 -0.9508 -2.0334 -0.9157
34021SOL    HW213788  11.794   2.343   7.314  0.4788  0.3595  0.5110
34022SOL     OW13789   8.935   2.242   2.311  0.0887  0.3826 -0.0965
34022SOL    HW113790   8.871   2.172   2.327  0.3958  0.0493 -0.3096
34022SOL    HW213791   8.968   2.266   2.397  0.6765 -0.3932 -0.1031
34023SOL     OW13792   1.481   3.897  11.555  0.0874  0.1927 -0.0953
34023SOL    HW113793   1.410   3.929  11.499  0.3365  0.7302 -0.1086
34023SOL    HW213794   1.500   3.809  11.522 -0.9013 -0.1528  0.2224
34024SOL     OW13795   4.675   2.348   0.855 -0.2686 -0.2850 -0.1383
34024SOL    HW113796   4.680   2.265   0.809  0.9400 -1.3489  1.7591
34024SOL    HW213797   4.743   2.402   0.815  1.1049 -1.3613  0.6313
34025SOL     OW13798   6.850   7.131   8.654 -0.1181 -0.2225 -0.0059
34025SOL    HW113799   6.898   7.058   8.615 -0.5472  0.1893 -1.3885
34025SOL    HW213800   6.917   7.184   8.696  0.6463  0.1570 -1.6086
34026SOL     OW13801   4.585   6.449   2.521  1.0050 -0.1454  0.2616
34026SOL    HW113802   4.651   6.380   2.520  0.0431 -1.0853  0.1520
34026SOL    HW213803   4.616   6.512   2.456  1.7651 -0.5887  0.1764
34027SOL     OW13804   8.505   3.217  10.861  0.1811 -0.2665 -0.1261
34027SOL    HW113805   8.438   3.242  10.924 -1.1250  0.7526 -1.8504
34027SOL    HW213806   8.462   3.157  10.801  0.7019  0.5911 -1.4095
34028SOL     OW13807   7.832   8.103   9.351 -0.0161 -0.5436  0.0837
34028SOL    HW113808   7.766   8.065   9.409  2.2505 -1.8140  1.9994
34028SOL    HW213809   7.840   8.194   9.381 -1.2812 -0.1839 -0.5915
34029SOL     OW13810   1.691   3.087  11.607  0.0899  0.7460  0.0420
34029SOL    HW113811   1.739   3.032  11.545 -0.4618 -1.2516  1.2775
34029SOL    HW213812   1.671   3.167  11.558  3.2021  1.0103 -1.0128
34030SOL     OW13813   6.143   5.886   8.665 -0.2857  0.5131 -0.0466
34030SOL    HW113814   6.153   5.851   8.754 -1.8067  0.4677  0.1310
34030SOL    HW213815   6.084   5.824   8.621 -0.3932  1.1111 -0.7589
34031SOL     OW13816   7.830   3.346   2.044  0.1858 -0.0241  0.5151
34031SOL    HW113817   7.908   3.398   2.022  0.3866 -0.1661  0.8885
34031SOL    HW213818   7.759   3.410   2.047  0.4039  0.2076  0.8061
34032SOL     OW13819   9.018   3.453   8.403  0.0911 -0.4546 -0.0373
34032SOL    HW113820   9.089   3.392   8.422  1.9677  1.5028 -0.4002
34032SOL    HW213821   9.001   3.442   8.310 -0.9592 -1.7349  0.2650
34033SOL     OW13822   6.041   8.344   5.651 -0.3101 -0.5247  0.4478
34033SOL    HW113823   6.092   8.272   5.614 -0.3336 -0.3323  0.0396
34033SOL    HW213824   6.035   8.322   5.744 -0.3943 -1.0984  0.3157
34034SOL     OW13825   3.333   8.163   3.306 -0.3586  0.3924 -0.0482
34034SOL    HW113826   3.271   8.105   3.350  0.5541 -0.2633  0.4144
34034SOL    HW213827   3.333   8.135   3.214 -0.5618  0.2308  0.0030
34035SOL     OW13828   2.122   0.949   1.653 -0.3001  0.8303  0.1886
34035SOL    HW113829   2.079   0.865   1.638  0.3976  0.5911 -0.5336
34035SOL    HW213830   2.054   1.015   1.640 -0.8745  0.3770  0.8680
34036SOL     OW13831   7.305   6.463   4.382  0.1418 -0.3208  0.5623
34036SOL    HW113832   7.368   6.510   4.328  0.7263 -2.0222 -0.3320
34036SOL    HW213833   7.357   6.395   4.425 -0.7428 -0.5069  1.3571
34037SOL     OW13834  11.214   1.358  10.235  0.0887 -0.2472 -0.0693
34037SOL    HW113835  11.259   1.333  10.316  1.5940 -0.4752 -0.9359
34037SOL    HW213836  11.282   1.399  10.181 -1.0647  0.6152 -0.9127
34038SOL     OW13837  11.113  10.196   3.484 -0.1987 -0.3416  0.1172
34038SOL    HW113838  11.095  10.221   3.394  2.6672 -1.2621 -0.8093
34038SOL    HW213839  11.053  10.122   3.500 -1.5639  0.5705 -0.5629
34039SOL     OW13840  11.398   3.899   3.807  0.5454  0.2560  0.1128
34039SOL    HW113841  11.452   3.944   3.871 -0.6500  0.1961  1.1943
34039SOL    HW213842  11.442   3.916   3.723  2.7359 -0.5619  1.0065
34040SOL     OW13843   3.556   1.983  11.260  0.4200  0.3571 -0.5044
34040SOL    HW113844   3.519   1.958  11.344  1.2013  3.2841  0.8245
34040SOL    HW213845   3.525   1.916  11.199 -2.7046 -0.1735  1.4811
34041SOL     OW13846   6.190   9.908   8.249 -0.5501 -1.0589 -0.1864
34041SOL    HW113847   6.282   9.932   8.237 -0.4361 -0.1866  1.9421
34041SOL    HW213848   6.184   9.818   8.218  0.9395 -1.0188 -0.6671
34042SOL     OW13849   1.690   2.582   6.375  0.4489 -0.5671  0.2981
34042SOL    HW113850   1.596   2.575   6.386  0.4265 -0.2842  0.2825
34042SOL    HW213851   1.702   2.636   6.297  0.6165 -1.4973 -0.3362
34043SOL     OW13852  10.308   0.329   3.822  0.9150 -0.0332  0.9073
34043SOL    HW113853  10.327   0.364   3.735 -1.4206 -1.5894 -0.3599
34043SOL    HW213854  10.319   0.234   3.813  1.4359 -0.1755  2.5827
34044SOL     OW13855  10.199  10.624   5.140  0.0623 -0.3204  0.4665
34044SOL    HW113856  10.137  10.648   5.071  0.3981  0.1060  0.3070
34044SOL    HW213857  10.145  10.581   5.207 -0.3997  0.0147  0.3154
34045SOL     OW13858   7.902   4.013   6.621 -0.3614  0.2635  0.4971
34045SOL    HW113859   7.952   3.991   6.542 -1.8652  2.6781 -1.2761
34045SOL    HW213860   7.832   3.948   6.624 -1.1058  0.9304 -1.0359
34046SOL     OW13861  11.240   6.240   0.296 -0.1870 -0.0830  0.1417
34046SOL    HW113862  11.312   6.188   0.259 -0.3614 -0.3204  0.1305
34046SOL    HW213863  11.228   6.312   0.235  0.9789  0.7586  0.8602
34047SOL     OW13864   5.195   1.599   5.273  0.2663  0.0404  0.3704
34047SOL    HW113865   5.128   1.664   5.291  0.4222  0.1952  0.3997
34047SOL    HW213866   5.147   1.517   5.261  0.1172  0.0390  0.9419
34048SOL     OW13867   5.878   2.441   0.284 -0.1795 -0.3121  0.3910
34048SOL    HW113868   5.963   2.400   0.268 -0.7459 -1.2675 -0.3190
34048SOL    HW213869   5.898   2.529   0.313  1.0531 -0.4641  0.0387
34049SOL     OW13870   6.141   8.348   3.953 -0.9603  0.0894 -0.1401
34049SOL    HW113871   6.156   8.384   3.866  0.0386  0.6514  0.2518
34049SOL    HW213872   6.218   8.294   3.971 -0.5656  0.9369  0.8590
34050SOL     OW13873   2.910   2.057  11.328 -0.0831 -0.1446 -0.0434
34050SOL    HW113874   2.947   2.030  11.412  1.7446  3.1747  0.3956
34050SOL    HW213875   2.972   2.024  11.263 -0.0151 -0.3741  0.1364
34051SOL     OW13876  11.100   2.759  11.125 -0.8751 -0.0155 -0.0985
34051SOL    HW113877  11.137   2.804  11.049  0.0811 -0.0585  0.3209
34051SOL    HW213878  11.075   2.673  11.091 -0.8372  0.1131 -0.4568
34052SOL     OW13879   4.702   9.554  11.262 -0.8244 -0.1062  0.5777
34052SOL    HW113880   4.655   9.543  11.180 -1.1098 -0.3419  0.7699
34052SOL    HW213881   4.788   9.516  11.246 -0.9122 -0.2348  0.4162
34053SOL     OW13882   7.254   6.715   7.492 -0.9558 -0.7676 -0.0502
34053SOL    HW113883   7.306   6.794   7.506 -1.8989 -0.0149 -0.6995
34053SOL    HW213884   7.286   6.680   7.409 -0.2621 -1.3075  0.4323
34054SOL     OW13885   3.610   6.096   5.225  0.1572 -0.5741 -0.2790
34054SOL    HW113886   3.633   6.080   5.317 -1.9298  0.1701  0.4471
34054SOL    HW213887   3.634   6.187   5.210  0.3596 -0.6514 -0.4228
34055SOL     OW13888   6.319   7.647   5.980 -0.5645  0.1098  0.1604
34055SOL    HW113889   6.266   7.668   5.904 -0.3389 -0.9511 -0.3014
34055SOL    HW213890   6.349   7.558   5.965 -0.2891 -0.0166  1.3626
34056SOL     OW13891   1.964   1.255   5.891 -0.5517  0.4820  0.0043
34056SOL    HW113892   1.915   1.193   5.944  0.3813 -0.4272 -0.1698
34056SOL    HW213893   2.023   1.299   5.952 -0.2698  0.2313 -0.0816
34057SOL     OW13894   3.754   5.190   1.574 -0.4753  0.5403  0.2575
34057SOL    HW113895   3.707   5.118   1.618  1.3443  0.1006  1.6005
34057SOL    HW213896   3.705   5.269   1.598 -0.5745  0.0984  1.5848
34058SOL     OW13897   3.478   8.675  10.352 -0.1974 -0.4460  0.2463
34058SOL    HW113898   3.483   8.668  10.448 -0.0324 -0.5122  0.2341
34058SOL    HW213899   3.396   8.722  10.336 -0.2752 -0.5188  0.4173
34059SOL     OW13900   9.289   8.710   9.732 -0.2292 -0.3481 -0.0753
34059SOL    HW113901   9.195   8.692   9.727 -0.2061 -0.4737 -0.0741
34059SOL    HW213902   9.328   8.655   9.664 -0.1541 -0.3149 -0.0604
34060SOL     OW13903   3.698   9.155  10.622  0.4757 -0.1281  0.0691
34060SOL    HW113904   3.702   9.072  10.671  1.2359  0.2170  0.6082
34060SOL    HW213905   3.689   9.222  10.689  2.0995  0.4001 -0.2098
34061SOL     OW13906   0.406   2.561   1.190  0.4074 -0.4146  0.3332
34061SOL    HW113907   0.419   2.517   1.274  0.9756  1.0228  1.0339
34061SOL    HW213908   0.489   2.607   1.174 -0.0346  0.0997 -0.5470
34062SOL     OW13909   7.718  11.098   6.940 -0.4696  0.1879  0.1375
34062SOL    HW113910   7.802  11.094   6.894 -1.2506  1.2467 -1.5046
34062SOL    HW213911   7.732  11.160   7.011 -0.2597  1.6802 -1.1407
34063SOL     OW13912   4.759  10.336  11.394  0.5259 -0.4918 -0.0440
34063SOL    HW113913   4.807  10.338  11.476  2.1326 -0.7607 -0.9342
34063SOL    HW213914   4.671  10.366  11.416  1.5849  1.8312  1.3337
34064SOL     OW13915   4.919   4.139   9.228  0.1863  0.1949 -0.5047
34064SOL    HW113916   4.850   4.077   9.254 -0.2738  0.2760 -1.4739
34064SOL    HW213917   5.001   4.094   9.250 -0.1488 -0.5767 -0.7652
34065SOL     OW13918   0.011   9.087   8.550 -0.2799 -0.1580 -0.0454
34065SOL    HW113919  -0.043   9.014   8.522  2.4446 -1.8100 -1.4308
34065SOL    HW213920   0.093   9.047   8.580  1.3098  2.2770 -0.8227
34066SOL     OW13921   9.679   3.400   9.520 -0.2407  0.4621  0.5607
34066SOL    HW113922   9.610   3.403   9.586  0.9843  0.8628  1.8634
34066SOL    HW213923   9.754   3.362   9.565  0.2536 -0.4619 -0.9799
34067SOL     OW13924   9.889   4.544   9.143  0.3482  0.3789  0.2694
34067SOL    HW113925   9.891   4.460   9.189 -0.1885 -0.2443 -0.8130
34067SOL    HW213926   9.844   4.603   9.203  0.8423 -0.0650  1.0959
34068SOL     OW13927  11.564   0.773   5.556 -0.6827  0.4618 -0.6417
34068SOL    HW113928  11.534   0.858   5.588  1.5362  0.4009  1.9500
34068SOL    HW213929  11.659   0.782   5.548 -0.0712 -2.2853  1.7924
34069SOL     OW13930   8.532   4.224  10.699  0.1059  0.0614  0.2394
34069SOL    HW113931   8.601   4.165  10.668  0.8014  0.6347  0.6585
34069SOL    HW213932   8.465   4.166  10.735  1.9523 -0.4943  3.1435
34070SOL     OW13933   2.266   0.169   2.838  0.7390 -0.7356 -0.1462
34070SOL    HW113934   2.282   0.166   2.743  1.0461  0.6163 -0.1640
34070SOL    HW213935   2.182   0.124   2.849  0.5639 -0.6738 -1.1016
34071SOL     OW13936   7.493  11.320   6.204  0.6430  0.3705  0.1253
34071SOL    HW113937   7.554  11.338   6.133  0.8615 -2.3322 -0.4752
34071SOL    HW213938   7.423  11.269   6.163  0.4194 -0.6497  1.6851
34072SOL     OW13939   9.444   9.567  11.192  0.0437 -0.0517  0.0715
34072SOL    HW113940   9.501   9.532  11.123  1.2044  0.7811  0.5879
34072SOL    HW213941   9.380   9.497  11.206 -1.1801  0.3250 -2.8765
34073SOL     OW13942   0.081  10.503   5.699  0.5016 -0.7375 -0.5450
34073SOL    HW113943   0.123  10.522   5.783 -0.1715 -1.0160 -0.1383
34073SOL    HW213944   0.064  10.589   5.661 -1.8598 -0.4565  0.9534
34074SOL     OW13945   9.086   2.839  10.982  1.2395 -0.2580 -0.3989
34074SOL    HW113946   9.062   2.919  11.028  3.7031 -1.4673  3.4390
34074SOL    HW213947   9.119   2.869  10.897 -2.4253  2.2365 -1.1934
34075SOL     OW13948   9.231   5.187   8.300 -0.4503  0.2608  0.4033
34075SOL    HW113949   9.275   5.187   8.384 -0.0256 -0.2602  0.1873
34075SOL    HW213950   9.185   5.103   8.297 -0.1840  0.1258 -0.0196
34076SOL     OW13951  11.750   6.825   8.557 -0.2779  0.8659 -0.5278
34076SOL    HW113952  11.810   6.880   8.505  2.0637  0.0440  1.1445
34076SOL    HW213953  11.706   6.887   8.616  1.4163  1.1647  0.4871
34077SOL     OW13954   4.510   6.385  10.946 -0.2339  0.0782 -0.2393
34077SOL    HW113955   4.473   6.319  11.004  1.6948 -1.8252 -1.0507
34077SOL    HW213956   4.512   6.343  10.860  1.7742  0.8453 -0.6196
34078SOL     OW13957   0.124   9.811   6.073  0.2093 -0.0151 -0.2747
34078SOL    HW113958   0.153   9.885   6.020  0.3890 -1.5051 -2.3786
34078SOL    HW213959   0.072   9.757   6.013  0.0578 -1.5809  1.1795
34079SOL     OW13960   3.793   8.827   7.380  0.2265  0.0329 -0.1134
34079SOL    HW113961   3.825   8.823   7.471 -0.1469 -0.1993  0.0080
34079SOL    HW213962   3.704   8.859   7.388 -0.6141 -2.1167 -0.2058
34080SOL     OW13963  11.440   1.751   8.715  0.2687 -0.4519 -0.0715
34080SOL    HW113964  11.459   1.700   8.636  1.4675 -1.4702  0.8330
34080SOL    HW213965  11.512   1.815   8.721 -0.5949  0.5990 -0.5588
34081SOL     OW13966   4.209   9.945   2.942  0.3792  0.3540 -0.1915
34081SOL    HW113967   4.188   9.990   2.860 -0.1120  1.1522  0.3696
34081SOL    HW213968   4.142   9.878   2.951  0.2114  0.5142 -0.2490
34082SOL     OW13969   3.454   0.443   8.584  0.2159 -0.2798 -0.2214
34082SOL    HW113970   3.373   0.478   8.548  1.0480  1.9296 -0.0637
34082SOL    HW213971   3.428   0.360   8.625 -1.3350 -1.3463 -3.0719
34083SOL     OW13972   7.244  10.585   8.534 -0.3847 -0.4705  0.1419
34083SOL    HW113973   7.241  10.624   8.446 -1.6714  0.4152  0.5600
34083SOL    HW213974   7.308  10.514   8.526  1.3793  1.1388 -0.8795
34084SOL     OW13975   6.236   5.633   5.206 -0.6586 -0.0320  0.0648
34084SOL    HW113976   6.278   5.626   5.121  0.5007  0.3282  0.5916
34084SOL    HW213977   6.286   5.576   5.263  0.2720  1.7418  1.1167
34085SOL     OW13978   5.144   1.865   1.157  0.2072 -0.1284  0.2624
34085SOL    HW113979   5.143   1.770   1.170 -2.4642 -0.2559 -0.3242
34085SOL    HW213980   5.085   1.880   1.083  1.2191  1.9528 -0.2049
34086SOL     OW13981  10.440   3.145   4.555  0.0296 -0.1917 -0.3845
34086SOL    HW113982  10.388   3.078   4.511  0.4748 -0.5148 -0.4232
34086SOL    HW213983  10.516   3.159   4.498 -0.0320  0.3133 -0.3528
34087SOL     OW13984   8.895   4.901   8.743 -0.7451  0.2392 -0.8039
34087SOL    HW113985   8.901   4.917   8.837  0.3606  3.3777 -1.2982
34087SOL    HW213986   8.801   4.901   8.725 -0.9367  1.0253  0.1093
34088SOL     OW13987   2.167  10.399   0.374  0.3537 -0.0160  1.1217
34088SOL    HW113988   2.158  10.310   0.340  2.5361  0.2127 -0.2958
34088SOL    HW213989   2.077  10.431   0.383 -0.4428 -2.0523  0.8190
34089SOL     OW13990   3.563   8.932   9.728 -0.2301  0.2479  0.1920
34089SOL    HW113991   3.486   8.986   9.749 -0.8120  0.0825 -1.3777
34089SOL    HW213992   3.635   8.994   9.723 -0.4614  0.5594  0.6125
34090SOL     OW13993   5.234   4.984  10.508 -0.2548 -0.1420 -0.0071
34090SOL    HW113994   5.249   5.002  10.601 -1.3139  0.3174  0.0849
34090SOL    HW213995   5.148   4.942  10.505  0.2218 -1.1300 -0.6858
34091SOL     OW13996   8.217   2.161  11.771 -0.5089  0.5499 -0.1811
34091SOL    HW113997   8.206   2.248  11.731 -0.4505  0.6667  0.0576
34091SOL    HW213998   8.229   2.179  11.864  0.7808  0.3655 -0.3022
34092SOL     OW13999   6.326  10.388  10.067  0.1590  0.3396 -0.6961
34092SOL    HW114000   6.361  10.387   9.978  0.6205 -2.3580 -0.5699
34092SOL    HW214001   6.397  10.420  10.121  0.5222  0.1850 -1.0782
34093SOL     OW14002   3.069   7.277   4.345 -0.2157  0.0427 -0.0078
34093SOL    HW114003   3.128   7.213   4.386  0.0981  0.3073 -0.0387
34093SOL    HW214004   3.124   7.323   4.281 -0.6819 -0.3011 -0.6594
34094SOL     OW14005   0.445  11.894   9.335 -0.4656  0.2462 -0.3656
34094SOL    HW114006   0.493  11.975   9.321  0.4229 -0.2405 -0.2408
34094SOL    HW214007   0.453  11.847   9.251  0.2573 -0.3243  0.0093
34095SOL     OW14008   2.128   6.419   7.873 -0.1783 -0.4189 -0.3270
34095SOL    HW114009   2.060   6.352   7.877  0.2161 -0.9526 -1.7497
34095SOL    HW214010   2.191   6.394   7.941 -0.9007 -0.4782  0.3291
34096SOL     OW14011   1.682   3.592  11.728  0.0634  0.2310  0.0976
34096SOL    HW114012   1.719   3.675  11.760  0.2933  0.3543 -0.4705
34096SOL    HW214013   1.645   3.614  11.642  0.9860 -0.4514 -0.4995
34097SOL     OW14014   6.447   2.628   0.833 -0.0137  0.1735  0.0497
34097SOL    HW114015   6.445   2.571   0.909  0.4450 -1.6925 -1.2669
34097SOL    HW214016   6.393   2.703   0.857 -1.5343 -1.3174  1.4627
34098SOL     OW14017   0.704   0.298   5.357  0.0718  0.2957 -0.2749
34098SOL    HW114018   0.615   0.332   5.355 -0.5137 -1.1823 -0.7224
34098SOL    HW214019   0.703   0.223   5.297  0.7026 -1.7686  2.0781
34099SOL     OW14020  10.111   6.098   2.884  0.2984  0.0115 -0.0791
34099SOL    HW114021  10.118   6.090   2.980 -1.7321 -1.2498  0.0128
34099SOL    HW214022  10.174   6.033   2.851 -1.0486 -1.6438  0.4756
34100SOL     OW14023   2.636   8.348   8.648  0.4918  0.1954  0.3110
34100SOL    HW114024   2.615   8.413   8.714  2.4557  1.8558 -0.5990
34100SOL    HW214025   2.591   8.378   8.569 -1.9440 -1.8380  0.7934
34101SOL     OW14026   3.817  10.369   1.290  0.3677  0.0718 -0.8544
34101SOL    HW114027   3.906  10.386   1.319  0.0313  1.3424 -0.4626
34101SOL    HW214028   3.824  10.356   1.196  1.0972 -1.0185 -0.6657
34102SOL     OW14029   1.951   7.661   3.084 -0.7455 -0.0888  0.2049
34102SOL    HW114030   2.030   7.641   3.133 -1.2188 -2.8583  0.0425
34102SOL    HW214031   1.909   7.733   3.131  0.0678 -0.9819  2.3980
34103SOL     OW14032  10.222   9.539  11.370  0.6427  0.0999  0.0041
34103SOL    HW114033  10.293   9.503  11.317 -0.2465 -1.6188 -0.0636
34103SOL    HW214034  10.219   9.483  11.448 -0.9076 -0.1544 -0.1981
34104SOL     OW14035   4.846  11.201   2.151 -0.1221 -0.4140 -0.7061
34104SOL    HW114036   4.918  11.138   2.142 -0.2493 -0.6066 -0.3627
34104SOL    HW214037   4.839  11.241   2.064  0.5078 -0.2776 -0.7015
34105SOL     OW14038   5.031   0.494   0.663  0.2659 -0.1706  0.3189
34105SOL    HW114039   5.038   0.459   0.574 -0.7368  0.4273 -0.0137
34105SOL    HW214040   5.031   0.416   0.719  1.8938 -0.5203 -0.1033
34106SOL     OW14041   3.614   0.986   1.693  0.3436  0.3300  0.4874
34106SOL    HW114042   3.573   0.983   1.607 -0.1280  1.2104  0.6688
34106SOL    HW214043   3.702   0.951   1.679 -0.1196 -0.6419 -0.1058
34107SOL     OW14044   3.685   7.502  10.962 -0.1408  0.6652 -0.2015
34107SOL    HW114045   3.610   7.466  10.914  1.8848 -3.3105 -0.8081
34107SOL    HW214046   3.661   7.494  11.054 -0.4168 -0.7299 -0.3822
34108SOL     OW14047   1.170   0.764  11.557 -0.0811  0.3080  0.1866
34108SOL    HW114048   1.265   0.750  11.555  0.1390  1.6254  0.2672
34108SOL    HW214049   1.153   0.827  11.487 -0.9901 -0.3375 -0.1973
34109SOL     OW14050   4.213   2.101   7.407  0.8343  0.4260 -0.0455
34109SOL    HW114051   4.279   2.115   7.339 -0.4411 -0.2139 -1.4791
34109SOL    HW214052   4.130   2.104   7.360 -0.0688 -0.4455  1.4405
34110SOL     OW14053   3.307  11.439   4.448  0.8987 -0.1194 -0.5163
34110SOL    HW114054   3.251  11.516   4.461 -0.2258 -0.8941 -0.6632
34110SOL    HW214055   3.386  11.474   4.407 -0.1855  0.7963 -1.9494
34111SOL     OW14056   1.003   2.459   5.317 -0.7771  0.7344  0.2414
34111SOL    HW114057   1.020   2.549   5.289 -0.9351  0.7445  0.1802
34111SOL    HW214058   1.048   2.405   5.252  2.1035  0.7900  2.0206
34112SOL     OW14059   4.608   8.946   0.423  0.0521 -0.2579 -0.1890
34112SOL    HW114060   4.526   8.918   0.464 -0.5883 -0.8828 -1.8331
34112SOL    HW214061   4.586   8.957   0.331  1.4539  1.1026 -0.4035
34113SOL     OW14062   8.118  11.900   3.665 -0.0007 -0.0678 -0.2666
34113SOL    HW114063   8.031  11.921   3.699  0.6566 -0.1136  1.5385
34113SOL    HW214064   8.147  11.981   3.622 -0.5172  0.2923  0.0510
34114SOL     OW14065   9.915  10.900   9.907 -0.1147  0.3676 -0.4274
34114SOL    HW114066   9.942  10.956   9.835  0.0125  0.9041  0.0336
34114SOL    HW214067   9.897  10.960   9.980 -1.4310 -0.0715 -0.3701
34115SOL     OW14068   6.292   6.596   3.277 -0.0135 -0.0415 -0.4775
34115SOL    HW114069   6.229   6.597   3.205 -0.8530 -0.2154  0.2520
34115SOL    HW214070   6.315   6.687   3.291  1.0303 -0.0736 -1.7032
34116SOL     OW14071   1.963  11.835  11.541 -0.4929  0.3504  0.2493
34116SOL    HW114072   1.992  11.890  11.468  0.3896 -0.5191 -0.0691
34116SOL    HW214073   2.032  11.770  11.552 -0.9157  0.0765  1.4564
34117SOL     OW14074   2.048   8.483   8.563 -0.0266  0.2123 -0.1627
34117SOL    HW114075   1.963   8.526   8.558 -0.1873 -0.1631 -0.8822
34117SOL    HW214076   2.027   8.391   8.579  0.2056 -0.0085 -1.0779
34118SOL     OW14077   5.131   5.678  10.155  0.5107 -0.5047  0.3400
34118SOL    HW114078   5.172   5.728  10.225 -0.8973  1.0724  0.1039
34118SOL    HW214079   5.134   5.587  10.185  3.3224 -0.3560  0.6909
34119SOL     OW14080   6.000   5.600   1.454  0.1940  0.5615 -0.3992
34119SOL    HW114081   6.034   5.681   1.416  1.7698 -0.7695 -1.9733
34119SOL    HW214082   6.046   5.530   1.408 -1.1624 -1.2633  0.8613
34120SOL     OW14083   0.006   7.901   6.712 -0.3585 -0.0418  0.3825
34120SOL    HW114084  -0.082   7.940   6.718 -0.7231 -0.8015  0.0294
34120SOL    HW214085   0.008   7.836   6.782 -0.6514 -1.1352 -0.5974
34121SOL     OW14086  11.387   1.909   4.160 -0.0556 -0.1137 -0.1851
34121SOL    HW114087  11.367   1.983   4.218 -0.2438 -0.9792  0.8743
34121SOL    HW214088  11.406   1.837   4.219 -0.6786 -1.1372 -1.2000
34122SOL     OW14089   0.125   8.976  10.123 -0.7565 -0.5658  0.5364
34122SOL    HW114090   0.210   8.969  10.166 -0.6064 -0.0865  0.3301
34122SOL    HW214091   0.071   8.908  10.163 -0.5393 -0.3100  1.2799
34123SOL     OW14092  10.918   3.376  10.620 -0.0648  0.6052 -0.4757
34123SOL    HW114093  10.856   3.319  10.575  0.1043  0.4326 -0.4892
34123SOL    HW214094  10.865   3.449  10.652 -0.2317  0.5818 -0.7040
34124SOL     OW14095   7.411  11.669  10.802  0.4141  0.0408 -0.1176
34124SOL    HW114096   7.332  11.697  10.758  0.8673  0.5984 -0.5827
34124SOL    HW214097   7.381  11.602  10.864 -0.3533 -0.0684 -0.5917
34125SOL     OW14098   0.191   7.579   8.841  0.1747 -0.2389  0.0380
34125SOL    HW114099   0.127   7.533   8.788  1.3858 -1.1733 -0.6702
34125SOL    HW214100   0.146   7.597   8.924 -0.5604 -2.0930  0.0847
34126SOL     OW14101   3.952   5.734   6.353 -0.1189  0.5075  0.4738
34126SOL    HW114102   4.000   5.749   6.434 -1.1216 -2.1124  1.6252
34126SOL    HW214103   3.860   5.733   6.379 -0.5525  1.0045 -0.9505
34127SOL     OW14104   5.320   6.107   0.017 -0.3426 -0.4453  0.7103
34127SOL    HW114105   5.321   6.056   0.098 -1.8477  0.5494  1.4065
34127SOL    HW214106   5.341   6.196   0.044 -1.2226 -0.0302  0.0750
34128SOL     OW14107   4.171   2.422   4.246 -0.1199 -0.1277 -0.0399
34128SOL    HW114108   4.086   2.436   4.204  0.6943  1.7131 -1.1903
34128SOL    HW214109   4.190   2.504   4.291  0.2847 -1.1337  1.7232
34129SOL     OW14110   4.904   5.474   5.292 -0.0831  0.8016 -0.2968
34129SOL    HW114111   4.818   5.462   5.332  0.1462 -0.9419 -0.2690
34129SOL    HW214112   4.931   5.386   5.266  0.6687  1.5886 -2.4491
34130SOL     OW14113   8.621   6.156   4.022  0.7619 -0.1870 -1.0202
34130SOL    HW114114   8.669   6.213   4.081 -1.0086  1.2989 -0.9212
34130SOL    HW214115   8.574   6.096   4.080  0.8363 -0.2461 -1.0212
34131SOL     OW14116   9.912  11.123   5.232  0.2011 -0.6398 -0.1824
34131SOL    HW114117  10.000  11.162   5.237  0.7132 -1.6216 -1.3410
34131SOL    HW214118   9.927  11.029   5.233 -0.7693 -0.8285 -1.3164
34132SOL     OW14119   9.907   1.079   7.871 -0.0976 -0.6938  0.0511
34132SOL    HW114120   9.979   1.073   7.808 -1.0570 -0.8342 -1.0702
34132SOL    HW214121   9.832   1.043   7.825 -0.7542 -1.1462  1.4271
34133SOL     OW14122   9.218   4.777   9.109  0.1166  0.4031 -0.4109
34133SOL    HW114123   9.142   4.810   9.157  1.4931  1.4832  1.1883
34133SOL    HW214124   9.289   4.779   9.174  1.6560  0.0878 -2.0188
34134SOL     OW14125   2.019   1.657  10.464 -0.4267 -0.1655  0.2347
34134SOL    HW114126   1.947   1.611  10.508 -1.1643 -0.7451 -1.4928
34134SOL    HW214127   2.086   1.589  10.452 -0.3805 -0.1050  0.1531
34135SOL     OW14128   3.183  11.919   7.258  0.1782  0.7959 -0.8429
34135SOL    HW114129   3.212  11.845   7.312  0.7027  1.4397 -0.2165
34135SOL    HW214130   3.199  11.996   7.313 -1.6979  1.2820 -0.9142
34136SOL     OW14131  11.886   7.006   5.654 -0.4831  0.0734  0.0641
34136SOL    HW114132  11.806   6.956   5.634  0.4567 -1.4558 -0.0258
34136SOL    HW214133  11.868   7.045   5.740 -0.9792 -1.0240  0.4769
34137SOL     OW14134  10.544   7.596   4.510 -0.0335 -0.3543  0.0169
34137SOL    HW114135  10.548   7.632   4.599 -1.8550  1.0764 -0.4269
34137SOL    HW214136  10.538   7.673   4.453 -2.4581 -1.2822 -1.0954
34138SOL     OW14137   2.650   0.557  10.681  0.5706  0.1821  0.0613
34138SOL    HW114138   2.617   0.529  10.766 -0.7362  1.1197 -0.1133
34138SOL    HW214139   2.604   0.639  10.663  2.1416  0.9247 -0.7592
34139SOL     OW14140   0.583   8.721   5.115 -0.6002  0.5097  0.2366
34139SOL    HW114141   0.661   8.703   5.168  0.8626 -1.1651 -2.2222
34139SOL    HW214142   0.583   8.816   5.105 -0.7657  0.8500  2.8618
34140SOL     OW14143   6.498  10.475   3.638  0.2030 -0.1005  0.2406
34140SOL    HW114144   6.523  10.519   3.556  0.6319 -0.4238  0.1948
34140SOL    HW214145   6.535  10.529   3.707 -0.9647  0.6996  0.2727
34141SOL     OW14146   8.980   5.483  10.290  0.0788 -0.3922  0.2218
34141SOL    HW114147   8.942   5.511  10.374  0.1575  0.9801 -0.1721
34141SOL    HW214148   8.931   5.532  10.224 -0.3607 -1.8808 -0.5933
34142SOL     OW14149   5.546   5.892  11.066  0.1931  0.4482 -0.4933
34142SOL    HW114150   5.581   5.923  11.149 -0.1590 -0.2976 -0.0551
34142SOL    HW214151   5.456   5.923  11.065 -0.4688 -1.3083  0.3925
34143SOL     OW14152   5.869   7.106   2.548  0.1606 -0.2161  0.0428
34143SOL    HW114153   5.807   7.076   2.481 -0.4256 -0.7527  0.8078
34143SOL    HW214154   5.951   7.118   2.501 -0.3188 -0.2708 -0.8358
34144SOL     OW14155  11.189  10.245   3.173  0.5479  0.2710  0.7553
34144SOL    HW114156  11.230  10.323   3.135  0.9449 -0.1953  0.1906
34144SOL    HW214157  11.252  10.174   3.155  0.2018 -0.1771  1.2654
34145SOL     OW14158   4.900   9.845   5.985  0.1170 -0.1881  0.2843
34145SOL    HW114159   4.814   9.867   6.022 -0.0192 -0.1435 -0.0502
34145SOL    HW214160   4.881   9.823   5.894  0.6180  0.9707 -0.1149
34146SOL     OW14161   2.465   3.720   6.555  0.0724  0.2816  0.4654
34146SOL    HW114162   2.482   3.626   6.565  1.9480  0.4882 -0.4540
34146SOL    HW214163   2.373   3.725   6.528  0.2196 -1.3431 -0.4390
34147SOL     OW14164   7.470   4.926   8.179 -0.6248  0.0754  0.8165
34147SOL    HW114165   7.430   4.867   8.243 -0.7678  2.5642  3.2299
34147SOL    HW214166   7.562   4.930   8.203 -0.3248 -0.1411 -0.2064
34148SOL     OW14167   4.324   3.306   1.282 -0.6376 -0.3049 -0.0098
34148SOL    HW114168   4.311   3.243   1.353  1.6897 -1.9325 -0.8996
34148SOL    HW214169   4.404   3.353   1.307 -0.5832  0.0798 -0.8853
34149SOL     OW14170   4.172   7.885   2.668 -0.3115 -0.1116 -0.7840
34149SOL    HW114171   4.245   7.922   2.720 -0.0783 -1.7564  0.1268
34149SOL    HW214172   4.133   7.820   2.726 -0.2340 -1.8257 -2.5759
34150SOL     OW14173   1.668   0.648   3.545 -0.5014 -0.3348 -0.2944
34150SOL    HW114174   1.594   0.689   3.590 -3.3637 -3.4140 -1.7433
34150SOL    HW214175   1.670   0.691   3.459  0.0972  0.4248  0.0865
34151SOL     OW14176  10.366   3.991   5.215  0.0047  0.2268  0.2724
34151SOL    HW114177  10.457   4.017   5.198  0.0421  1.2543  1.8201
34151SOL    HW214178  10.373   3.904   5.255  0.2388 -0.0661 -0.3962
34152SOL     OW14179   1.363  11.193   9.343 -0.1157  0.1728 -0.1819
34152SOL    HW114180   1.431  11.126   9.351 -2.4812 -2.1943  1.7990
34152SOL    HW214181   1.299  11.155   9.283 -2.2059 -0.0959  2.0829
34153SOL     OW14182   2.053  10.607   0.228  0.5076  0.2175  0.0376
34153SOL    HW114183   2.114  10.652   0.287  1.2724 -0.1256 -0.4763
34153SOL    HW214184   1.972  10.602   0.278  0.9575  0.4964  0.8271
34154SOL     OW14185   7.445   5.322   3.795 -0.2513 -0.0966  0.0987
34154SOL    HW114186   7.458   5.372   3.876 -0.0642 -2.1425  1.4294
34154SOL    HW214187   7.456   5.386   3.725  0.8978  1.5233  1.6510
34155SOL     OW14188   3.367   5.872   9.791  0.1419 -0.1724  0.5401
34155SOL    HW114189   3.396   5.961   9.808  0.7158 -0.2571  0.0254
34155SOL    HW214190   3.273   5.874   9.809 -0.4018  1.2300 -2.0042
34156SOL     OW14191   3.024   6.159   9.646  0.0809 -0.2755 -0.2811
34156SOL    HW114192   2.970   6.082   9.661  0.4075 -0.4350  0.0802
34156SOL    HW214193   3.072   6.139   9.566 -1.0609  0.2432 -1.1388
34157SOL     OW14194   4.808   7.860   6.970 -0.6050  0.1466  0.2408
34157SOL    HW114195   4.807   7.895   7.059 -2.4083  0.7721  0.0099
34157SOL    HW214196   4.757   7.923   6.918  1.7189  0.6551 -1.6097
34158SOL     OW14197   7.238   8.775   3.198 -0.0366 -0.6961 -0.5935
34158SOL    HW114198   7.289   8.703   3.235 -0.9200 -0.3627  1.4154
34158SOL    HW214199   7.300   8.848   3.192  0.3047 -0.9700 -0.4643
34159SOL     OW14200  10.797   5.436   1.648 -0.0871  0.2302  0.0692
34159SOL    HW114201  10.871   5.389   1.610 -0.1554 -0.0996  0.3419
34159SOL    HW214202  10.800   5.416   1.742  0.1000  1.0618  0.2526
34160SOL     OW14203   2.393  10.495   5.186  0.4347  0.5379 -0.0873
34160SOL    HW114204   2.448  10.418   5.169  0.6942  0.7591 -0.2455
34160SOL    HW214205   2.310  10.458   5.216  0.4729  0.1844 -0.4048
34161SOL     OW14206   8.628   2.278   8.368  0.3980 -0.2750 -0.0986
34161SOL    HW114207   8.644   2.190   8.403  0.2789 -0.2462  0.0300
34161SOL    HW214208   8.618   2.333   8.446 -1.3671 -0.4757 -0.1343
34162SOL     OW14209   4.958   9.025   2.314 -0.6218 -0.1267  0.0618
34162SOL    HW114210   4.951   8.997   2.405 -0.7796  0.0982  0.1193
34162SOL    HW214211   4.870   9.056   2.291 -0.5841 -0.1864 -0.1668
34163SOL     OW14212   1.375   9.308   1.254  0.1182  0.1769 -0.0118
34163SOL    HW114213   1.461   9.344   1.235  0.3226  0.8771  2.0357
34163SOL    HW214214   1.347   9.268   1.171  1.6420  1.4413 -1.2043
34164SOL     OW14215   4.392   7.740   3.610  0.2668  0.7216  0.2574
34164SOL    HW114216   4.464   7.804   3.612 -0.0599  1.0834  0.4591
34164SOL    HW214217   4.314   7.792   3.592  0.0467  0.3315  0.0754
34165SOL     OW14218   7.516   5.325   1.191 -0.2144  0.1548  0.3377
34165SOL    HW114219   7.563   5.277   1.123 -1.4145  0.8592 -1.0414
34165SOL    HW214220   7.553   5.292   1.273  0.3855 -1.6583 -0.5984
34166SOL     OW14221   8.407   1.236   9.413 -0.2420  0.0480 -0.4394
34166SOL    HW114222   8.399   1.156   9.465 -2.1370  0.4923  0.0109
34166SOL    HW214223   8.353   1.221   9.336 -1.5381  1.2755  0.1854
34167SOL     OW14224   1.612   5.501  11.764  0.3611  0.1811  0.6921
34167SOL    HW114225   1.589   5.424  11.817  3.0826 -0.7931  0.6162
34167SOL    HW214226   1.620   5.572  11.827 -0.6858  0.0804  0.9658
34168SOL     OW14227   6.658   0.260   2.772 -0.0060  0.4454 -0.7832
34168SOL    HW114228   6.665   0.164   2.774 -1.8026  0.2936  0.3876
34168SOL    HW214229   6.707   0.285   2.694  2.9865 -1.1485  0.4090
34169SOL     OW14230  11.575   7.803   2.288 -0.3611  0.7336 -0.1003
34169SOL    HW114231  11.592   7.728   2.231 -2.3204  1.1524 -1.3129
34169SOL    HW214232  11.535   7.766   2.366 -0.2309  0.4244 -0.1767
34170SOL     OW14233   4.878   2.623  11.529  0.0233 -0.1591 -0.3441
34170SOL    HW114234   4.867   2.698  11.471  1.4462  0.0074 -0.4230
34170SOL    HW214235   4.957   2.579  11.497  0.0276 -0.8644  0.5948
34171SOL     OW14236   1.324  10.497   3.960 -0.3822  0.5484 -0.1305
34171SOL    HW114237   1.331  10.460   4.048 -1.9764  1.8716  0.6187
34171SOL    HW214238   1.248  10.454   3.922 -0.2347  0.6345 -0.5242
34172SOL     OW14239   3.813   5.610   9.401 -0.7071 -0.1216 -0.1277
34172SOL    HW114240   3.736   5.617   9.345  0.1326 -1.1976 -1.4985
34172SOL    HW214241   3.885   5.644   9.348 -0.0950  0.1297  0.8249
34173SOL     OW14242  11.105   7.828   6.961 -0.2352  0.1312  0.4661
34173SOL    HW114243  11.125   7.917   6.990  0.5384  0.0360  0.2369
34173SOL    HW214244  11.009   7.823   6.963 -0.3720  1.4416 -0.8866
34174SOL     OW14245   6.527   2.591   4.118 -0.1850 -0.1399  0.4405
34174SOL    HW114246   6.548   2.676   4.157  0.7283  0.5181 -1.3555
34174SOL    HW214247   6.438   2.572   4.147 -0.9793  2.1494 -0.2453
34175SOL     OW14248   2.745   1.400   9.786  0.8570  0.0226 -0.2481
34175SOL    HW114249   2.815   1.457   9.817  0.5510 -0.5887  1.7667
34175SOL    HW214250   2.671   1.419   9.844  0.7352 -2.3247  0.4744
34176SOL     OW14251   4.219   4.772   4.398  0.2701 -0.3121  0.0898
34176SOL    HW114252   4.176   4.816   4.471 -1.0097 -1.5023  0.1056
34176SOL    HW214253   4.306   4.750   4.430 -0.3023 -0.8981  1.3175
34177SOL     OW14254   9.143   0.530  11.892  0.1422 -0.0508  0.3489
34177SOL    HW114255   9.149   0.616  11.933  0.1455 -0.6891  1.7437
34177SOL    HW214256   9.073   0.538  11.827  0.2235  1.0224  0.3865
34178SOL     OW14257   0.295   7.437   3.840 -0.5245  0.0639 -0.9766
34178SOL    HW114258   0.232   7.504   3.866 -0.8360 -1.1155  1.5195
34178SOL    HW214259   0.244   7.372   3.792 -0.3164  1.2601 -2.9283
34179SOL     OW14260   2.999   1.990   8.649  0.2730  0.4200  0.0209
34179SOL    HW114261   2.931   1.928   8.676 -0.2623 -0.1412 -2.3260
34179SOL    HW214262   3.070   1.935   8.615  1.6305  1.0244  1.6949
34180SOL     OW14263   5.440   5.565   3.926  0.0234  0.3527 -0.0741
34180SOL    HW114264   5.360   5.557   3.874  0.2461  0.8824 -0.5123
34180SOL    HW214265   5.430   5.501   3.997 -0.0805 -0.6975 -1.0250
34181SOL     OW14266   6.283   4.663   4.044  0.3954 -0.1937 -0.1624
34181SOL    HW114267   6.212   4.624   4.095 -0.6893 -0.6118 -1.9090
34181SOL    HW214268   6.288   4.609   3.965  2.5907 -0.0881 -0.1429
34182SOL     OW14269   8.870   3.430   6.870 -0.0511 -0.4819  0.2072
34182SOL    HW114270   8.840   3.469   6.788 -0.2350  1.9101  1.3449
34182SOL    HW214271   8.790   3.413   6.919  0.1304 -0.6029  0.4632
34183SOL     OW14272   7.116   1.891   7.481 -0.5735 -0.4712 -0.9688
34183SOL    HW114273   7.203   1.930   7.487 -0.9479  0.3025  3.8577
34183SOL    HW214274   7.056   1.965   7.483 -1.4592 -1.0129 -3.7695
34184SOL     OW14275   9.675   3.338   6.053  0.6056 -0.2579 -0.6641
34184SOL    HW114276   9.653   3.412   5.997  0.3851  0.3683  0.2278
34184SOL    HW214277   9.594   3.287   6.058 -0.5463  1.5784  1.9036
34185SOL     OW14278   6.994   5.991   6.588 -0.8296  0.1856 -0.1207
34185SOL    HW114279   7.052   5.917   6.605 -0.2199  1.0449  1.7059
34185SOL    HW214280   6.925   5.983   6.653 -1.8882  0.1364 -1.2007
34186SOL     OW14281   5.754   8.623  11.036 -0.1714  0.1422 -0.5137
34186SOL    HW114282   5.767   8.655  10.946 -0.7016 -1.4372 -1.2051
34186SOL    HW214283   5.735   8.701  11.087  2.1251  1.3436 -1.3480
34187SOL     OW14284  11.048  11.299   8.031 -0.6925  0.3306  0.3506
34187SOL    HW114285  11.001  11.216   8.030 -1.3441  0.6429 -2.3937
34187SOL    HW214286  11.050  11.327   7.940  0.0896  3.0275  1.0963
34188SOL     OW14287   6.072   0.417   7.764  0.3629 -0.3187 -0.6372
34188SOL    HW114288   6.143   0.478   7.739 -1.3955  1.6450 -1.1391
34188SOL    HW214289   5.999   0.474   7.788 -0.6285 -2.2690  1.2993
34189SOL     OW14290   4.207   0.836  10.698  0.0914  0.4620 -0.0960
34189SOL    HW114291   4.276   0.893  10.662  1.9592 -1.4096  0.2973
34189SOL    HW214292   4.208   0.853  10.792  0.3040  0.1532 -0.0406
34190SOL     OW14293   1.523   5.496   9.210 -0.0400 -0.3293 -0.2430
34190SOL    HW114294   1.593   5.518   9.272 -1.1725  0.0890  0.9273
34190SOL    HW214295   1.566   5.494   9.125  1.0412  1.8397  0.1902
34191SOL     OW14296   3.080   1.955   7.165  0.0090  0.2089 -0.3825
34191SOL    HW114297   3.065   1.985   7.255  2.3129  0.2387  0.0623
34191SOL    HW214298   3.128   2.027   7.124  1.1445 -0.7687 -0.8428
34192SOL     OW14299   7.141  10.345   9.642 -0.2269 -0.2681  0.8469
34192SOL    HW114300   7.225  10.353   9.687  0.4615 -0.9432 -0.2786
34192SOL    HW214301   7.148  10.404   9.567 -1.3413  0.7963  1.5466
34193SOL     OW14302   3.161   5.409   3.396  0.4512  0.3351 -0.4365
34193SOL    HW114303   3.197   5.323   3.378 -0.1553 -0.2537  0.9918
34193SOL    HW214304   3.214   5.443   3.468 -0.2459  0.5057  0.0133
34194SOL     OW14305   8.912   1.533   4.863  0.5290  0.0108 -0.1029
34194SOL    HW114306   8.880   1.450   4.827  0.8494 -0.2872  0.2853
34194SOL    HW214307   9.000   1.513   4.893 -0.0011  0.0332  1.5619
34195SOL     OW14308   3.580   6.273   2.875 -0.1755  0.9698 -0.7388
34195SOL    HW114309   3.660   6.315   2.844  1.1388  0.3394  1.5090
34195SOL    HW214310   3.537   6.340   2.928 -0.2439  0.7950 -0.5716
34196SOL     OW14311   0.493   5.277   2.298 -0.2972 -0.5300 -0.2353
34196SOL    HW114312   0.578   5.263   2.340 -0.4049 -1.6998 -0.3656
34196SOL    HW214313   0.501   5.232   2.213 -0.0849  1.7406 -1.5048
34197SOL     OW14314   7.695   1.674   2.346 -0.2091 -0.5767  0.5765
34197SOL    HW114315   7.765   1.738   2.335  0.4395 -1.5234 -1.2973
34197SOL    HW214316   7.623   1.723   2.386 -0.2743  1.7502 -2.0808
34198SOL     OW14317   0.217   0.394  11.034 -0.1858 -0.4597  0.6355
34198SOL    HW114318   0.292   0.452  11.043 -0.2365 -0.3373  0.2846
34198SOL    HW214319   0.191   0.374  11.124 -1.2858  1.5077  0.8004
34199SOL     OW14320   0.009   4.584  11.874 -0.1845  0.8821  0.0399
34199SOL    HW114321   0.029   4.615  11.962 -0.0885  2.0069 -0.3610
34199SOL    HW214322  -0.074   4.627  11.851 -0.0591  0.8343 -0.5236
34200SOL     OW14323   4.885   1.648   3.038 -0.1544  0.3193  0.0086
34200SOL    HW114324   4.902   1.740   3.056 -1.0867  0.7804 -1.2880
34200SOL    HW214325   4.804   1.629   3.086 -0.3975  0.4144 -0.3546
34201SOL     OW14326   8.115   9.489   6.255  0.3239 -0.2697  0.0735
34201SOL    HW114327   8.079   9.407   6.288 -3.7276  0.8080 -1.1128
34201SOL    HW214328   8.039   9.546   6.243  2.6767  2.8959 -1.3449
34202SOL     OW14329   3.925   5.621   8.572 -0.7572  0.0216  0.2876
34202SOL    HW114330   3.983   5.696   8.559 -0.6607 -0.0743  0.1637
34202SOL    HW214331   3.872   5.644   8.648  0.4647 -0.5105  1.3507
34203SOL     OW14332   6.691   0.596   7.151 -0.2062 -0.9720  0.0613
34203SOL    HW114333   6.760   0.561   7.207  0.0007 -0.4938  0.1100
34203SOL    HW214334   6.636   0.649   7.210  0.5393  0.2971 -0.3350
34204SOL     OW14335   7.267   6.141  11.752 -0.3579 -0.5891  0.0913
34204SOL    HW114336   7.356   6.129  11.785  0.8924  1.2467 -2.2436
34204SOL    HW214337   7.270   6.225  11.706 -2.7177 -1.4948 -1.9438
34205SOL     OW14338   6.658   3.790   7.823 -0.4188  0.6487 -0.1643
34205SOL    HW114339   6.631   3.737   7.897  0.0723  0.7847  0.1148
34205SOL    HW214340   6.718   3.855   7.860  0.6129  0.1043 -0.8179
34206SOL     OW14341   8.718   4.150   5.749  0.2229 -0.0848 -0.2512
34206SOL    HW114342   8.670   4.140   5.831  2.5124 -3.3541  0.9058
34206SOL    HW214343   8.700   4.070   5.700  1.0894  0.5505 -1.6860
34207SOL     OW14344   1.329   5.775   2.579 -0.1491  0.8662 -0.1714
34207SOL    HW114345   1.382   5.712   2.531 -1.3587 -0.1444 -0.2331
34207SOL    HW214346   1.254   5.725   2.611 -0.3292  1.9249  1.1746
34208SOL     OW14347   2.362   3.890   6.088 -0.3683  0.3413  0.6763
34208SOL    HW114348   2.278   3.935   6.097 -0.3211  0.6960 -0.5014
34208SOL    HW214349   2.351   3.833   6.012  1.0452  1.8460 -0.7389
34209SOL     OW14350   0.015   3.254   1.000 -0.4455 -0.4446  0.9604
34209SOL    HW114351  -0.014   3.325   1.057  0.3555 -0.0848  0.9300
34209SOL    HW214352   0.017   3.177   1.057 -0.2126 -0.2047  1.2784
34210SOL     OW14353   1.242   3.791   8.209 -0.4397  0.5168 -0.0469
34210SOL    HW114354   1.284   3.869   8.246  0.9732  0.2353 -0.9600
34210SOL    HW214355   1.153   3.792   8.245  0.5309  0.7454  2.5595
34211SOL     OW14356   5.841  11.706   3.730  0.2112 -0.0807  0.1186
34211SOL    HW114357   5.785  11.679   3.656 -0.5495 -0.0181  0.6593
34211SOL    HW214358   5.888  11.627   3.755 -0.4654 -0.4089  0.3683
34212SOL     OW14359   9.688   2.320   5.743 -0.2554  0.2816  0.0878
34212SOL    HW114360   9.712   2.331   5.650 -3.0382 -2.6784 -1.1755
34212SOL    HW214361   9.741   2.246   5.772  0.4460  1.0633  0.8671
34213SOL     OW14362   5.620   9.151   2.894 -0.2082  0.3220 -0.0750
34213SOL    HW114363   5.715   9.144   2.900 -0.2268 -0.3970 -0.5285
34213SOL    HW214364   5.587   9.094   2.965 -0.3032 -0.4161 -0.6929
34214SOL     OW14365   4.039   9.246   8.091  0.8172 -0.2063 -0.3339
34214SOL    HW114366   3.984   9.323   8.100  0.5322 -0.4531  0.0159
34214SOL    HW214367   4.118   9.267   8.141  0.7228 -0.1607 -0.2035
34215SOL     OW14368   7.211   4.685  11.694 -0.4136 -0.0967 -0.5532
34215SOL    HW114369   7.158   4.715  11.768 -0.1896  0.7537 -0.7246
34215SOL    HW214370   7.253   4.606  11.725 -1.8518 -0.8489 -0.4466
34216SOL     OW14371   7.555   3.868  11.810  0.4212  0.1749 -0.5484
34216SOL    HW114372   7.601   3.832  11.735 -0.9027  1.9705 -2.3348
34216SOL    HW214373   7.580   3.960  11.812 -1.1402  0.6220 -0.0729
34217SOL     OW14374   1.284   6.098   7.769  0.1839 -0.1544 -0.2297
34217SOL    HW114375   1.326   6.075   7.852  0.4257  0.2595 -0.2357
34217SOL    HW214376   1.190   6.100   7.788  0.3549  2.5662  0.7150
34218SOL     OW14377   0.330   1.981   8.573  0.4176 -0.6734 -0.2684
34218SOL    HW114378   0.339   2.047   8.642 -0.7725 -0.7149 -0.0589
34218SOL    HW214379   0.320   1.898   8.619  0.1481 -0.7701 -0.4972
34219SOL     OW14380   1.070   1.121  11.141  0.1384  0.3269  0.0901
34219SOL    HW114381   1.077   1.177  11.064  0.3672 -0.4408 -0.4596
34219SOL    HW214382   0.991   1.070  11.126  0.0133  0.3878  0.5175
34220SOL     OW14383   1.943   6.892   2.167 -0.3933 -0.2807  0.2462
34220SOL    HW114384   1.983   6.931   2.244 -3.8812  2.2379  1.0574
34220SOL    HW214385   1.885   6.824   2.202 -0.4693 -0.5267 -0.3448
34221SOL     OW14386  11.824   2.459  10.953  0.1355 -0.0247  0.4176
34221SOL    HW114387  11.886   2.503  11.011 -0.5808  0.3933  0.8768
34221SOL    HW214388  11.846   2.492  10.865  2.3901 -1.9893  0.1433
34222SOL     OW14389   1.062   2.722   7.450 -0.1568  0.2042  0.4957
34222SOL    HW114390   1.013   2.744   7.371  0.3174  1.3238  0.4937
34222SOL    HW214391   1.002   2.668   7.501 -0.5738 -0.2898 -0.4896
34223SOL     OW14392   3.542   5.471   3.222 -0.7040 -0.0908 -0.0175
34223SOL    HW114393   3.631   5.439   3.204 -0.3521  1.5575 -1.5606
34223SOL    HW214394   3.486   5.422   3.163 -0.6269 -0.1637 -0.0307
34224SOL     OW14395   2.831  11.854   0.224  0.3428  0.7332 -0.3512
34224SOL    HW114396   2.744  11.827   0.196 -0.8223  1.1026  2.5685
34224SOL    HW214397   2.851  11.798   0.300  1.6179  2.1941  0.4564
34225SOL     OW14398   2.456   0.901  11.173  0.0227 -0.3647 -0.5054
34225SOL    HW114399   2.421   0.928  11.258  0.5251 -1.1929 -0.0098
34225SOL    HW214400   2.389   0.843  11.137  0.4234 -1.1828  0.0097
34226SOL     OW14401  10.155   5.037   5.521 -0.3499 -0.2224  0.5327
34226SOL    HW114402  10.081   5.070   5.471  0.6516  1.0128 -0.1801
34226SOL    HW214403  10.187   5.112   5.571 -0.3216 -1.0421  1.8160
34227SOL     OW14404   3.523   6.021   6.091  0.3479 -0.2984 -0.5650
34227SOL    HW114405   3.460   5.971   6.143  0.0927 -0.6222 -1.1734
34227SOL    HW214406   3.509   5.991   6.001  2.5015 -1.6454 -0.5398
34228SOL     OW14407   3.211   0.247   3.160  0.0425 -0.1721 -0.0661
34228SOL    HW114408   3.261   0.171   3.131 -1.0915 -1.9058  2.2333
34228SOL    HW214409   3.131   0.245   3.106  1.4851  1.5954 -2.5097
34229SOL     OW14410  11.745   1.628   7.721 -0.6615 -0.1522  0.4461
34229SOL    HW114411  11.714   1.673   7.800 -0.9705 -1.8609  1.3487
34229SOL    HW214412  11.838   1.615   7.735  0.0926  2.6338 -1.1018
34230SOL     OW14413   2.953   4.110  10.686 -0.0994 -0.0560  0.2185
34230SOL    HW114414   2.886   4.065  10.634  0.3569 -1.4136  0.7791
34230SOL    HW214415   2.904   4.176  10.735 -0.7662  0.1547 -0.6934
34231SOL     OW14416   5.277   1.143   3.715 -0.4222  0.3064  0.6549
34231SOL    HW114417   5.371   1.160   3.715 -0.6068  1.9349  3.6389
34231SOL    HW214418   5.261   1.099   3.631  3.1695 -1.3532  0.6440
34232SOL     OW14419   8.375   4.022   3.797  0.4782 -0.0147 -0.3046
34232SOL    HW114420   8.429   4.022   3.876  0.4421 -0.5429 -0.2728
34232SOL    HW214421   8.418   3.959   3.739  0.2851  0.0804 -0.5520
34233SOL     OW14422   4.725   8.668   3.212  0.1593 -0.0428  0.4638
34233SOL    HW114423   4.807   8.626   3.238  0.8891  0.5981 -0.7226
34233SOL    HW214424   4.671   8.597   3.179  0.4788 -0.3809  0.6667
34234SOL     OW14425   5.857   7.964   0.941  0.1310  0.5597 -0.6291
34234SOL    HW114426   5.879   8.003   1.025  2.2854 -0.9303 -0.3985
34234SOL    HW214427   5.810   8.032   0.894  0.3533  2.0182  1.1403
34235SOL     OW14428   7.682   5.480   0.522 -0.0314 -0.0383 -0.1140
34235SOL    HW114429   7.702   5.400   0.474  0.5966  0.6028 -0.9721
34235SOL    HW214430   7.615   5.523   0.469 -0.4051 -0.0218  0.3702
34236SOL     OW14431   5.749   2.385   3.937 -0.1727  0.1088  0.0653
34236SOL    HW114432   5.839   2.415   3.925  0.5789 -1.1029  2.0852
34236SOL    HW214433   5.712   2.382   3.849  1.6665  0.8712 -0.7824
34237SOL     OW14434   0.336   3.654   8.505 -0.5995  0.1788  0.2754
34237SOL    HW114435   0.350   3.560   8.493  0.4964  0.6263 -3.1827
34237SOL    HW214436   0.416   3.684   8.548  0.1287 -0.1758 -0.7875
34238SOL     OW14437   8.741   0.620   9.859 -0.1974 -0.0509  0.2832
34238SOL    HW114438   8.759   0.575   9.941  3.0482  0.6430  0.0832
34238SOL    HW214439   8.718   0.710   9.885  0.7859  0.1570  0.4668
34239SOL     OW14440   5.639   3.543   6.305 -0.0482  0.2913 -0.3650
34239SOL    HW114441   5.687   3.574   6.382 -1.2527  0.8775  0.1818
34239SOL    HW214442   5.595   3.622   6.272 -2.1757 -0.5480  0.3039
34240SOL     OW14443   5.058   2.998   1.526 -0.1505  0.0290 -0.1151
34240SOL    HW114444   5.061   3.028   1.435 -0.9970  2.5126  0.5829
34240SOL    HW214445   5.126   2.931   1.532  0.8785  0.7900 -2.2448
34241SOL     OW14446   5.727   8.437  10.670  0.1674 -0.4210  0.4474
34241SOL    HW114447   5.679   8.459  10.750  0.6012 -2.4200  1.3175
34241SOL    HW214448   5.675   8.368  10.629  0.4577 -0.0875 -0.5080
34242SOL     OW14449   6.293   4.728  10.277 -0.1107 -0.0716 -0.1022
34242SOL    HW114450   6.389   4.738  10.280 -0.0317 -0.5505 -0.7914
34242SOL    HW214451   6.273   4.718  10.184 -0.4701 -3.0226  0.1805
34243SOL     OW14452   3.727  10.724   8.412  0.2480  0.1404  0.0420
34243SOL    HW114453   3.788  10.719   8.486  0.8696  1.6795 -0.3311
34243SOL    HW214454   3.782  10.707   8.335  0.7346  3.4814 -0.4911
34244SOL     OW14455  11.608   4.767   2.149  0.8448  0.3091  0.4761
34244SOL    HW114456  11.555   4.806   2.080 -1.2409 -2.6109  0.2210
34244SOL    HW214457  11.686   4.733   2.104  1.0661  1.2173  0.1612
34245SOL     OW14458   0.623   0.419  11.732  0.1910  0.3829  0.4102
34245SOL    HW114459   0.603   0.489  11.795  0.2423  1.1637 -0.4209
34245SOL    HW214460   0.580   0.447  11.651  1.5664  0.2551 -0.3791
34246SOL     OW14461   1.016   6.364   3.472  0.3410  0.2654  0.1409
34246SOL    HW114462   1.068   6.443   3.456  0.9141 -0.3796 -1.4879
34246SOL    HW214463   0.955   6.360   3.397 -0.3253 -0.3390  0.6964
34247SOL     OW14464   2.739  10.601   0.167 -1.0260  0.2599  0.4551
34247SOL    HW114465   2.717  10.668   0.232 -0.6245 -0.2437  1.1332
34247SOL    HW214466   2.833  10.614   0.151 -1.1554  0.4708 -0.1299
34248SOL     OW14467   1.810   1.423   2.651  0.4514  0.4273 -0.1058
34248SOL    HW114468   1.833   1.472   2.573 -1.8750  1.2289 -0.3711
34248SOL    HW214469   1.841   1.477   2.724 -0.4390  1.4207 -0.4366
34249SOL     OW14470   8.680  10.090   0.225 -0.1305  0.3504 -0.0785
34249SOL    HW114471   8.702  10.004   0.261  2.0772  1.3532  1.1526
34249SOL    HW214472   8.625  10.070   0.149 -1.4487 -2.0263  1.3771
34250SOL     OW14473   8.680   8.428   9.717 -0.2206  0.2826  0.7539
34250SOL    HW114474   8.642   8.374   9.787 -2.6278  0.6024 -0.2279
34250SOL    HW214475   8.688   8.515   9.756 -4.1957  1.1713 -0.0436
34251SOL     OW14476   5.135  11.100   3.799  0.3943 -0.0350  0.0523
34251SOL    HW114477   5.194  11.079   3.726  1.6013 -1.6600  1.4110
34251SOL    HW214478   5.054  11.054   3.777  0.1263  0.9127 -1.0658
34252SOL     OW14479   6.039   9.081   1.786 -0.1887 -0.0972  0.2223
34252SOL    HW114480   5.967   9.130   1.826 -0.8507 -0.5987 -0.3359
34252SOL    HW214481   6.094   9.055   1.860 -0.9216 -0.2585  0.7212
34253SOL     OW14482   1.362  11.549   7.506 -0.0844  0.7015 -0.2849
34253SOL    HW114483   1.288  11.608   7.518  0.3504  1.2143 -0.0686
34253SOL    HW214484   1.439  11.605   7.516  0.3387  0.0791  0.0566
34254SOL     OW14485   8.683   1.916  11.598 -0.0934  0.1497 -0.3740
34254SOL    HW114486   8.674   1.847  11.531 -0.9526 -0.4332  0.3185
34254SOL    HW214487   8.647   1.994  11.556  2.6498  0.7408 -1.8912
34255SOL     OW14488   2.507  11.935   6.737 -0.5510  0.0638 -0.2148
34255SOL    HW114489   2.598  11.962   6.723 -0.5421  0.4162  0.4657
34255SOL    HW214490   2.513  11.844   6.764 -0.3537  0.2459  0.3706
34256SOL     OW14491   8.659   2.156   0.058 -0.3736 -0.9430 -0.0206
34256SOL    HW114492   8.659   2.151   0.154 -5.5983  0.5840  0.3641
34256SOL    HW214493   8.684   2.246   0.039 -1.0557 -0.7266  0.0782
34257SOL     OW14494   6.887   4.346   7.099  0.1845 -0.6050  0.0936
34257SOL    HW114495   6.867   4.307   7.184 -2.1195  1.4129  0.5790
34257SOL    HW214496   6.805   4.342   7.051 -0.0702  3.0274 -0.0154
34258SOL     OW14497   0.788   4.114   1.711 -0.0981  0.1895  0.0512
34258SOL    HW114498   0.883   4.106   1.718 -0.2219 -0.8705  0.8649
34258SOL    HW214499   0.772   4.130   1.618  0.7616 -2.0874 -0.5679
34259SOL     OW14500  10.035   5.786   1.894  0.4952  0.1165  0.8124
34259SOL    HW114501   9.952   5.763   1.853 -0.6416  2.2129  1.7823
34259SOL    HW214502  10.074   5.702   1.919 -0.2708 -1.0385 -1.5689
34260SOL     OW14503   0.213   3.704   3.840  0.2530 -0.5085  0.2003
34260SOL    HW114504   0.261   3.772   3.888 -0.4156 -0.6275  1.0611
34260SOL    HW214505   0.246   3.622   3.876  2.3332 -0.7725 -2.0327
34261SOL     OW14506   5.545  10.125   3.289  0.5552 -0.1990  0.0196
34261SOL    HW114507   5.475  10.183   3.317  1.7172  0.6465  1.2925
34261SOL    HW214508   5.575  10.083   3.370 -0.8307 -3.3341 -0.9307
34262SOL     OW14509   3.530   1.523   4.875 -0.0218 -0.1210  0.2243
34262SOL    HW114510   3.465   1.593   4.874  1.4459  1.3183  0.8526
34262SOL    HW214511   3.565   1.521   4.785  1.0341  1.0790  0.5794
34263SOL     OW14512   4.828  10.954  10.249 -0.6400  0.3186 -0.0339
34263SOL    HW114513   4.837  11.016  10.321  0.6687  0.3223 -0.1795
34263SOL    HW214514   4.745  10.978  10.207 -0.0154  2.1838 -0.2926
34264SOL     OW14515   5.352   4.546  11.688 -0.0974 -0.9117  0.2322
34264SOL    HW114516   5.411   4.621  11.700 -0.0662 -0.8302 -0.4029
34264SOL    HW214517   5.321   4.554  11.598 -2.6437  0.1919  1.0920
34265SOL     OW14518   3.204   2.906   9.098 -0.2052 -0.2698 -0.2743
34265SOL    HW114519   3.251   2.931   9.177  0.8370 -1.6043 -0.4326
34265SOL    HW214520   3.234   2.817   9.079 -1.3784 -0.4525 -1.4709
34266SOL     OW14521  11.611   1.282  10.969 -0.0003 -0.2724  0.3727
34266SOL    HW114522  11.597   1.376  10.957  0.9307 -0.3055 -1.4088
34266SOL    HW214523  11.698   1.266  10.933 -1.3437 -2.2730 -2.4124
34267SOL     OW14524   6.658   3.115   1.820  0.5103  0.4542 -0.0301
34267SOL    HW114525   6.669   3.043   1.757  1.6829  0.6836 -0.1071
34267SOL    HW214526   6.595   3.081   1.883  0.6328 -0.4454 -0.3710
34268SOL     OW14527   9.469   6.296  10.023 -0.4387  0.3436 -0.0427
34268SOL    HW114528   9.402   6.229  10.008  2.3495 -2.6423 -0.2373
34268SOL    HW214529   9.459   6.320  10.115 -1.9758  0.2228 -0.1632
34269SOL     OW14530   1.237   9.676   5.559 -0.1363  0.3990 -0.6207
34269SOL    HW114531   1.215   9.611   5.625 -0.0042  0.6724 -0.2998
34269SOL    HW214532   1.264   9.753   5.610  2.8782 -0.3049 -0.9314
34270SOL     OW14533  10.627   2.557   2.987  0.0759 -0.5889 -0.2754
34270SOL    HW114534  10.689   2.626   3.009 -0.4605 -0.2631  0.2454
34270SOL    HW214535  10.553   2.571   3.046 -0.6440 -0.7651 -1.1103
34271SOL     OW14536   7.517   6.237   9.543  0.0592  0.0383  0.2743
34271SOL    HW114537   7.583   6.169   9.556  0.7776  0.5226 -0.6980
34271SOL    HW214538   7.434   6.192   9.557  0.5498 -0.8502  0.4371
34272SOL     OW14539   0.933   2.491   0.626 -0.1074 -0.0296  0.1995
34272SOL    HW114540   0.868   2.471   0.693 -0.6971 -3.9322 -1.2910
34272SOL    HW214541   0.881   2.518   0.550  0.3262  0.8909  0.2177
34273SOL     OW14542   1.477   8.437   8.736  0.3664 -0.1983 -0.1504
34273SOL    HW114543   1.473   8.486   8.654 -2.4602  0.1914  0.1106
34273SOL    HW214544   1.431   8.355   8.716 -0.5334 -0.0148  1.0634
34274SOL     OW14545   6.513   7.822   8.557 -0.0313 -0.7307 -0.0986
34274SOL    HW114546   6.462   7.802   8.636 -1.1755  1.1736 -0.2858
34274SOL    HW214547   6.601   7.842   8.589 -0.5298  0.2273  0.7593
34275SOL     OW14548   9.094   5.369   2.147  0.2176  0.1021 -0.1603
34275SOL    HW114549   9.062   5.329   2.066  0.1140 -0.9063  0.3652
34275SOL    HW214550   9.190   5.362   2.141  0.1922 -0.4214  0.0244
34276SOL     OW14551   9.182   3.587   1.748 -0.6715  1.2654  0.6491
34276SOL    HW114552   9.131   3.582   1.668  0.2824 -2.2428  0.0969
34276SOL    HW214553   9.269   3.614   1.720 -0.6532  1.2495  0.6893
34277SOL     OW14554   6.332   6.247   1.917  0.4792 -0.2444 -0.4659
34277SOL    HW114555   6.277   6.217   1.990  1.2606 -0.9009 -0.1256
34277SOL    HW214556   6.280   6.314   1.874  0.1088  0.3631  0.8736
34278SOL     OW14557   2.049   0.706   2.886 -0.0843  0.2734 -0.0528
34278SOL    HW114558   2.052   0.796   2.853  0.1217 -0.0209 -0.8619
34278SOL    HW214559   1.960   0.677   2.868  0.2427 -0.1423 -1.0772
34279SOL     OW14560   8.626   9.607   1.555  0.8565  0.4578 -0.1507
34279SOL    HW114561   8.691   9.559   1.607  0.9959  0.1645 -0.5956
34279SOL    HW214562   8.556   9.628   1.618  0.4663 -0.9277 -0.0999
34280SOL     OW14563   4.453   8.825   2.492  0.0083  0.2644  0.1529
34280SOL    HW114564   4.519   8.893   2.501 -0.2457  0.5503 -0.0979
34280SOL    HW214565   4.433   8.824   2.398 -1.0103  0.8201  0.3493
34281SOL     OW14566   3.098   6.445   1.771  0.6023 -0.2084  0.3029
34281SOL    HW114567   3.008   6.476   1.773  0.9579  0.8508  0.5265
34281SOL    HW214568   3.136   6.477   1.853  0.9945 -1.2667  0.5557
34282SOL     OW14569  11.604   4.243   4.320 -0.4575  0.1404  0.1344
34282SOL    HW114570  11.579   4.255   4.412 -0.3077 -1.5346  0.4190
34282SOL    HW214571  11.527   4.272   4.271 -0.1644  2.0562  0.7079
34283SOL     OW14572   2.006   3.210   3.930  0.2847 -0.4960  0.0267
34283SOL    HW114573   1.993   3.177   3.841  1.2533  0.5489 -0.5216
34283SOL    HW214574   1.922   3.194   3.973 -1.0687  1.2179 -1.7993
34284SOL     OW14575   3.324   1.665   8.709 -0.6169  0.1266 -0.1907
34284SOL    HW114576   3.281   1.716   8.777 -0.4595 -0.2431  0.1935
34284SOL    HW214577   3.305   1.574   8.732  0.5838 -0.0610  0.1522
34285SOL     OW14578   8.463   9.903   8.900  0.6071 -0.4587 -0.5099
34285SOL    HW114579   8.453   9.998   8.893 -0.3878 -0.6292 -1.7064
34285SOL    HW214580   8.535   9.891   8.963  0.8377  1.0774 -0.4422
34286SOL     OW14581   2.269  10.065   3.492  0.1906  0.1851  0.7876
34286SOL    HW114582   2.252  10.108   3.408 -0.7003 -1.7444 -0.0748
34286SOL    HW214583   2.249  10.132   3.558  3.9450  2.8775 -0.4133
34287SOL     OW14584   6.457   6.232   7.047 -0.1595  0.5281 -0.6075
34287SOL    HW114585   6.406   6.153   7.030 -0.4439  0.8564 -1.3245
34287SOL    HW214586   6.399   6.304   7.022  0.1954  0.9580 -0.2230
34288SOL     OW14587   4.120  10.011   5.065 -0.2151  0.6262  0.5182
34288SOL    HW114588   4.143  10.004   4.972  0.5905  1.3812  0.6362
34288SOL    HW214589   4.028  10.035   5.065 -0.4096 -0.1091 -0.0677
34289SOL     OW14590   6.603   5.632   3.370 -0.0864 -0.2581 -0.5755
34289SOL    HW114591   6.692   5.597   3.369  0.5619  1.2748  0.3929
34289SOL    HW214592   6.574   5.629   3.279  1.0821 -0.4646 -0.9508
34290SOL     OW14593  10.699   6.226   9.586 -0.0939  0.5479  0.1914
34290SOL    HW114594  10.719   6.171   9.662  0.5997 -0.2501 -0.5462
34290SOL    HW214595  10.714   6.169   9.511  0.5077  1.7064 -0.5896
34291SOL     OW14596   8.060   9.960   2.348 -0.2832 -0.6182 -0.4397
34291SOL    HW114597   7.991  10.019   2.377 -1.0330 -0.8830 -1.6157
34291SOL    HW214598   8.121  10.016   2.300  0.1965 -0.4271  0.3838
34292SOL     OW14599   1.413   5.089  11.367 -0.0739 -0.0492  0.1384
34292SOL    HW114600   1.324   5.054  11.370 -0.8909  1.8562 -0.0352
34292SOL    HW214601   1.440   5.077  11.276 -0.3756 -0.1530  0.0616
34293SOL     OW14602   6.632  10.614   8.287 -0.1018 -0.4031  0.0929
34293SOL    HW114603   6.701  10.668   8.248  2.2604 -2.2047  1.5093
34293SOL    HW214604   6.603  10.663   8.363  2.1387 -1.0492  1.4641
34294SOL     OW14605   1.289   2.781   2.273 -0.1653  0.0401 -0.1251
34294SOL    HW114606   1.247   2.839   2.210 -0.3836 -0.5177 -0.5068
34294SOL    HW214607   1.347   2.838   2.324 -0.0695  0.5204 -0.7549
34295SOL     OW14608  11.164   3.799   7.243 -0.1027 -0.4040 -0.4556
34295SOL    HW114609  11.251   3.805   7.282 -0.7434  1.2537  0.8432
34295SOL    HW214610  11.140   3.706   7.250  0.4888 -0.4424  1.6318
34296SOL     OW14611   7.493   6.022   7.170  0.5050 -0.2390 -0.2553
34296SOL    HW114612   7.555   6.056   7.106  0.2688  1.1290  0.2020
34296SOL    HW214613   7.538   5.947   7.209  1.8051  0.5818 -0.0914
34297SOL     OW14614  10.823   1.470   5.078 -0.4585  0.0497  0.4462
34297SOL    HW114615  10.884   1.538   5.107 -0.6530  0.9631 -1.2300
34297SOL    HW214616  10.880   1.395   5.060  0.0780  0.6049 -0.2343
34298SOL     OW14617   0.779   6.868   5.034  0.7106  0.0540 -0.1185
34298SOL    HW114618   0.857   6.820   5.008  1.2727  1.0272 -0.2504
34298SOL    HW214619   0.812   6.947   5.077 -0.2006  0.0106  0.7040
34299SOL     OW14620   3.177  10.938   6.106 -0.3415  0.0893  0.0057
34299SOL    HW114621   3.242  10.967   6.042  0.9637  0.8651  1.6296
34299SOL    HW214622   3.124  10.874   6.058  1.6352 -0.6267 -1.3557
34300SOL     OW14623   3.112   7.756   0.355  0.0168 -0.2735 -0.3207
34300SOL    HW114624   3.027   7.739   0.315  0.4545  0.4588 -1.6171
34300SOL    HW214625   3.137   7.843   0.322  1.7346 -0.9177 -0.8221
34301SOL     OW14626   8.540  10.061  10.002 -0.3437  0.1165 -0.0021
34301SOL    HW114627   8.541  10.148  10.043  0.3389 -0.7397  1.8745
34301SOL    HW214628   8.447  10.040   9.993 -0.6488 -0.8235  3.7970
34302SOL     OW14629   7.321   6.311   7.489  0.2458  0.2051 -0.6989
34302SOL    HW114630   7.405   6.272   7.463  0.3216 -0.5347  0.6040
34302SOL    HW214631   7.337   6.406   7.484  1.2689  0.0771 -0.1316
34303SOL     OW14632   4.046   6.170   7.836 -0.4197  0.2070  0.0370
34303SOL    HW114633   4.098   6.157   7.756  0.2714 -0.0046  0.5037
34303SOL    HW214634   4.099   6.229   7.889  0.2614 -1.4335  1.2963
34304SOL     OW14635   2.851   3.505  11.618 -0.1056  0.7719 -0.1455
34304SOL    HW114636   2.787   3.567  11.653 -0.8816  0.1270 -0.4007
34304SOL    HW214637   2.935   3.550  11.627 -0.5160  1.3736  0.7743
34305SOL     OW14638   3.103   3.441   6.335 -0.3808 -0.7242  0.4191
34305SOL    HW114639   3.196   3.420   6.351 -0.4487 -0.1715  1.7139
34305SOL    HW214640   3.059   3.411   6.414 -1.1427  0.0391  0.2913
34306SOL     OW14641  11.173   5.863   0.072  0.1401 -0.2436  0.2735
34306SOL    HW114642  11.078   5.870   0.071  0.0326  1.2147  4.2050
34306SOL    HW214643  11.192   5.799   0.141  1.9872  0.6503  0.6709
34307SOL     OW14644   5.270  11.440   6.092 -0.4326 -0.0241  0.1884
34307SOL    HW114645   5.243  11.505   6.028  2.1949  0.1360 -0.9065
34307SOL    HW214646   5.273  11.488   6.175 -0.7797  0.6158 -0.1582
34308SOL     OW14647   3.848   3.620  10.498  0.2357  0.9248  0.0519
34308SOL    HW114648   3.787   3.652  10.432 -0.1750  0.2265  0.0826
34308SOL    HW214649   3.792   3.592  10.571  0.6268  0.8064  0.3113
34309SOL     OW14650   5.991   5.209   7.696 -0.5839 -0.1872  0.0658
34309SOL    HW114651   6.030   5.124   7.712  2.4633  0.4342 -2.9791
34309SOL    HW214652   6.057   5.272   7.725 -1.4035  1.0828 -0.7170
34310SOL     OW14653   8.459  11.554   7.142 -0.2807  0.0044  0.3015
34310SOL    HW114654   8.435  11.643   7.167  2.5455  0.5829  1.3079
34310SOL    HW214655   8.521  11.526   7.209 -2.6657 -3.6483  1.3022
34311SOL     OW14656   7.449   4.936  11.411 -0.1451 -0.3435  0.0448
34311SOL    HW114657   7.446   4.951  11.316 -0.4110  2.1836  0.3947
34311SOL    HW214658   7.371   4.882  11.429  0.0393 -1.0580 -1.1812
34312SOL     OW14659   1.180   9.836   7.637 -0.2134  0.1696  0.4406
34312SOL    HW114660   1.187   9.746   7.672  2.1799 -0.0760 -0.4795
34312SOL    HW214661   1.264   9.876   7.659  0.4188  0.8107 -2.7612
34313SOL     OW14662   8.979   6.101   2.012  0.0456  0.5185  0.0494
34313SOL    HW114663   9.056   6.069   1.966 -0.6349  1.0460 -1.5290
34313SOL    HW214664   8.906   6.050   1.977 -0.4501  0.6072  0.8956
34314SOL     OW14665   3.634   6.698   6.510  0.2349  0.1088 -0.4083
34314SOL    HW114666   3.559   6.657   6.466  0.1802  1.5012 -1.6637
34314SOL    HW214667   3.708   6.642   6.488  0.5131  1.5456 -3.6749
34315SOL     OW14668   1.241   5.442   5.626  0.1552  1.1075 -0.6398
34315SOL    HW114669   1.177   5.418   5.693  1.3179  0.2329  0.2018
34315SOL    HW214670   1.235   5.537   5.620  0.7454  1.3243  1.4715
34316SOL     OW14671   8.835   8.738   9.089 -0.4750 -0.4823 -0.1286
34316SOL    HW114672   8.896   8.675   9.049 -0.5787  0.4853 -1.9121
34316SOL    HW214673   8.766   8.749   9.023 -0.8967  0.8502  0.5049
34317SOL     OW14674   7.968   6.839   3.477  0.1967 -0.2369  0.6888
34317SOL    HW114675   7.992   6.816   3.567 -1.3268 -0.3546  1.0817
34317SOL    HW214676   7.973   6.935   3.475  0.7717 -0.2607  0.7275
34318SOL     OW14677   5.312  10.712   8.086 -0.4539 -0.8676 -0.2667
34318SOL    HW114678   5.349  10.752   8.165  0.2845 -2.2926  0.1433
34318SOL    HW214679   5.387  10.698   8.028 -0.4529 -2.7366  0.1101
34319SOL     OW14680   9.366   4.982   9.711 -0.0358 -0.4378 -0.0479
34319SOL    HW114681   9.293   5.019   9.661  0.2025  0.1189  0.0046
34319SOL    HW214682   9.370   5.035   9.791 -1.6719 -2.5577  1.5439
34320SOL     OW14683   6.871   5.210   0.278 -0.4157  0.0036  0.0748
34320SOL    HW114684   6.907   5.125   0.303 -0.2681 -0.2249 -0.8900
34320SOL    HW214685   6.908   5.228   0.192 -1.7958  0.2298 -0.5028
34321SOL     OW14686   4.267   4.244   5.528  0.0486  0.5026  0.1662
34321SOL    HW114687   4.221   4.300   5.590 -0.2550 -0.4751  0.8437
34321SOL    HW214688   4.330   4.196   5.582 -0.6616 -0.8341 -0.1706
34322SOL     OW14689   5.266   7.650   8.819  0.2942 -0.0829  0.1641
34322SOL    HW114690   5.269   7.699   8.737  0.8460 -0.0386  0.2066
34322SOL    HW214691   5.181   7.605   8.817  1.1762 -1.7973 -1.4204
34323SOL     OW14692   4.622  11.774   5.699 -0.9020  0.0652 -0.0776
34323SOL    HW114693   4.591  11.846   5.645 -0.0024 -0.0198 -0.7353
34323SOL    HW214694   4.562  11.702   5.679 -0.5325  0.0049 -1.0638
34324SOL     OW14695   1.688   6.215   0.627 -0.4989 -0.5744  0.0714
34324SOL    HW114696   1.630   6.283   0.592 -0.7460 -1.0712 -0.5125
34324SOL    HW214697   1.642   6.133   0.607  0.0695 -0.9386  0.2521
34325SOL     OW14698   4.023   3.915   3.649  0.3211 -0.1745 -0.2710
34325SOL    HW114699   4.111   3.946   3.671 -0.4890  1.6205  0.6734
34325SOL    HW214700   3.989   3.979   3.587 -0.6183 -0.3631  0.0305
34326SOL     OW14701   2.642   8.199   6.193  1.0199  0.0646 -0.1154
34326SOL    HW114702   2.652   8.269   6.129 -1.8957  0.8019  0.0802
34326SOL    HW214703   2.657   8.243   6.278  0.8605  0.0533 -0.0819
34327SOL     OW14704   1.223   8.512   6.805 -0.3688 -0.5328 -0.0166
34327SOL    HW114705   1.227   8.606   6.820 -0.6035 -0.4515 -0.4250
34327SOL    HW214706   1.279   8.474   6.872 -0.5583 -0.1251  0.3763
34328SOL     OW14707   3.933   9.096   1.243 -0.0007  0.1495  0.5366
34328SOL    HW114708   3.933   9.161   1.313 -1.2905  0.2162  0.4980
34328SOL    HW214709   4.012   9.115   1.193 -0.1499  1.4519  0.7541
34329SOL     OW14710  11.708   5.325   5.875 -0.6530  0.3296  0.3871
34329SOL    HW114711  11.662   5.378   5.810 -1.3628  0.1222  0.7071
34329SOL    HW214712  11.791   5.370   5.889 -0.3397  0.1905 -0.9127
34330SOL     OW14713  10.555   6.845   5.865 -0.2684  0.0099 -0.3423
34330SOL    HW114714  10.553   6.906   5.938  1.0741 -0.0965 -0.1844
34330SOL    HW214715  10.476   6.864   5.815  0.2146  2.0734 -0.4358
34331SOL     OW14716   7.458   7.156  10.486 -0.1737 -0.4023 -0.9932
34331SOL    HW114717   7.384   7.159  10.425 -0.1013  1.3843 -1.0610
34331SOL    HW214718   7.535   7.168  10.430 -0.0369  0.2995 -0.6659
34332SOL     OW14719   1.288   6.144   2.869 -0.3405  0.1597 -0.0908
34332SOL    HW114720   1.322   6.068   2.821  0.4861  0.7009 -0.3953
34332SOL    HW214721   1.358   6.166   2.930 -1.2661 -0.3469  1.2022
34333SOL     OW14722  10.242   7.012   7.556 -0.2739 -0.5019  0.5843
34333SOL    HW114723  10.218   7.068   7.482  0.3397 -1.9396 -0.7708
34333SOL    HW214724  10.235   6.923   7.521  0.2809 -1.2047  2.1986
34334SOL     OW14725   5.250   2.254  11.041 -0.1238 -0.2929  0.2637
34334SOL    HW114726   5.332   2.206  11.024 -0.7397 -1.1202 -0.5034
34334SOL    HW214727   5.219   2.279  10.954  0.1712  1.5256  0.6540
34335SOL     OW14728   6.089   4.570   2.477  0.1660  0.2832  0.0240
34335SOL    HW114729   6.076   4.522   2.396  1.0239  1.4697 -0.8630
34335SOL    HW214730   6.136   4.509   2.534 -0.3096 -0.5094 -0.4167
34336SOL     OW14731   8.855   5.231  11.406  0.0699 -0.1006  1.2094
34336SOL    HW114732   8.923   5.174  11.442  0.2701  0.2800  1.4368
34336SOL    HW214733   8.774   5.181  11.417  0.5204 -1.3831 -0.8057
34337SOL     OW14734  11.394   3.223   1.163 -0.7323  0.4043  0.2746
34337SOL    HW114735  11.378   3.302   1.216  1.8116  0.1442  1.5788
34337SOL    HW214736  11.425   3.158   1.226  0.9820 -0.3879 -1.3003
34338SOL     OW14737  10.220   8.708   4.884 -0.4663 -0.2296 -0.0794
34338SOL    HW114738  10.176   8.648   4.823  1.0363 -2.0245  0.5082
34338SOL    HW214739  10.233   8.788   4.833 -2.3060 -0.4496 -0.9856
34339SOL     OW14740   5.116   7.205   7.325 -0.2443  0.0740  0.1485
34339SOL    HW114741   5.065   7.277   7.363 -2.2102 -1.0121 -0.2669
34339SOL    HW214742   5.057   7.167   7.260  0.7867 -1.8270  0.2693
34340SOL     OW14743  10.713   0.009  11.653  0.3522  0.3853  0.3460
34340SOL    HW114744  10.625   0.046  11.663  0.9570  1.7044  0.9868
34340SOL    HW214745  10.761   0.041  11.729  1.3685 -0.4033  0.0531
34341SOL     OW14746   9.608   9.682   6.180 -0.5549  0.8264 -0.3406
34341SOL    HW114747   9.590   9.600   6.227  1.0888 -1.6075 -3.5590
34341SOL    HW214748   9.703   9.692   6.185 -0.1915  0.0621 -3.4176
34342SOL     OW14749   9.280   6.659   4.565  0.1190  0.5065 -0.4839
34342SOL    HW114750   9.290   6.644   4.471 -0.6939  0.6574 -0.6019
34342SOL    HW214751   9.258   6.752   4.572 -0.2761  0.3924 -0.1803
34343SOL     OW14752   3.405   0.373   4.209 -0.5618 -0.0189  0.5200
34343SOL    HW114753   3.312   0.393   4.195 -0.0213  2.6770  0.3324
34343SOL    HW214754   3.452   0.449   4.175  1.7355 -1.1665  0.9040
34344SOL     OW14755   5.153   1.798   9.597 -0.3634  0.0105 -0.2375
34344SOL    HW114756   5.240   1.796   9.637 -0.7877 -0.6032  0.6962
34344SOL    HW214757   5.101   1.852   9.657 -0.5542  0.6156 -0.9431
34345SOL     OW14758   5.416   7.948  11.614 -0.2727 -0.6515 -0.2491
34345SOL    HW114759   5.412   8.004  11.536 -0.5441 -0.7839 -0.3310
34345SOL    HW214760   5.473   7.995  11.675  0.5821 -0.9150 -0.8267
34346SOL     OW14761   9.116  10.826  10.809 -0.2849 -0.4295 -0.2998
34346SOL    HW114762   9.025  10.800  10.797 -0.4054  0.1617 -0.7452
34346SOL    HW214763   9.117  10.869  10.895 -0.2603 -1.1105  0.0481
34347SOL     OW14764   9.035  10.037   1.484 -0.5635  0.5049 -0.7688
34347SOL    HW114765   9.097  10.092   1.436  1.2664  0.5701  1.5011
34347SOL    HW214766   8.964  10.096   1.507  0.9038  1.7637  0.7811
34348SOL     OW14767  11.360  10.201   8.549  0.0810 -0.0083 -0.4148
34348SOL    HW114768  11.291  10.222   8.612  1.3340  0.0728  0.9804
34348SOL    HW214769  11.438  10.241   8.585  0.9194 -0.2860 -1.8556
34349SOL     OW14770   5.694   7.594   6.382 -0.1996  0.2276 -0.0880
34349SOL    HW114771   5.626   7.564   6.321  0.2308  0.8924 -0.9174
34349SOL    HW214772   5.690   7.532   6.455 -0.2228 -1.0487 -1.1353
34350SOL     OW14773   5.792   5.982   9.990 -0.2923  0.1483  0.4389
34350SOL    HW114774   5.766   5.954   9.902 -0.2227 -0.9408  0.7414
34350SOL    HW214775   5.718   5.957  10.046 -0.1112  0.3432  0.7710
34351SOL     OW14776  11.855   9.539  10.479 -0.0683  0.0262 -0.0767
34351SOL    HW114777  11.858   9.551  10.384  2.3445  1.1187  0.0709
34351SOL    HW214778  11.811   9.617  10.512  3.1439  1.9690 -0.0683
34352SOL     OW14779  11.074  10.025   4.294  0.5112  0.2883 -0.9524
34352SOL    HW114780  11.155   9.989   4.330 -0.4707 -3.1167 -1.7739
34352SOL    HW214781  11.005   9.990   4.349 -0.5667  1.5161 -1.4574
34353SOL     OW14782   1.968   1.769   2.675  0.0953  0.4577 -0.0535
34353SOL    HW114783   1.936   1.696   2.728 -0.4973  0.5417 -0.2783
34353SOL    HW214784   1.889   1.822   2.658  0.3906  0.7655 -0.4805
34354SOL     OW14785   6.275   0.675   0.940  0.2579  0.2916 -0.4049
34354SOL    HW114786   6.230   0.735   0.882  0.6757  1.9683  0.9240
34354SOL    HW214787   6.238   0.693   1.027  0.7719 -0.9958  0.1078
34355SOL     OW14788   7.119   7.609  10.368  0.0285 -0.2463 -0.5286
34355SOL    HW114789   7.198   7.590  10.418  0.6050  0.1630 -1.2600
34355SOL    HW214790   7.138   7.575  10.280 -0.6642 -0.2674 -0.6729
34356SOL     OW14791   3.011   6.501   4.008 -0.1575  0.6270  0.1388
34356SOL    HW114792   2.933   6.445   4.002  0.3947 -0.1975  0.4429
34356SOL    HW214793   3.017   6.524   4.100  1.0149 -0.9051  0.4946
34357SOL     OW14794   8.631   6.604   9.593 -0.5614 -0.3973  0.2108
34357SOL    HW114795   8.652   6.655   9.671 -1.9448  0.3591  0.1255
34357SOL    HW214796   8.550   6.557   9.616  1.5484 -4.0953  0.9464
34358SOL     OW14797   6.181   5.718  11.635  0.6857  0.3313  0.3172
34358SOL    HW114798   6.120   5.644  11.630  2.4072 -1.1948  0.7347
34358SOL    HW214799   6.262   5.680  11.667  2.2620  2.0483 -1.3885
34359SOL     OW14800   5.519   1.037   0.835  0.8401  0.4324  0.5035
34359SOL    HW114801   5.483   1.101   0.774  0.0225 -0.8735 -0.4588
34359SOL    HW214802   5.509   0.953   0.790  4.0586 -0.1849  0.6917
34360SOL     OW14803   5.345   5.594   1.958  0.3170  0.4039 -0.4042
34360SOL    HW114804   5.438   5.596   1.983  0.1006  1.2197  0.4205
34360SOL    HW214805   5.344   5.625   1.867  0.7674  1.4814 -0.0617
34361SOL     OW14806   2.704   1.728   7.771  0.4182 -0.2362 -0.0429
34361SOL    HW114807   2.770   1.659   7.776 -1.5907 -2.3767 -0.9991
34361SOL    HW214808   2.658   1.724   7.854 -1.2883 -1.8630 -0.9864
34362SOL     OW14809   0.306  10.800  11.602  0.2463  0.1905  0.3503
34362SOL    HW114810   0.236  10.793  11.668  0.9623  0.3507  1.1394
34362SOL    HW214811   0.281  10.876  11.549 -0.9607 -0.6533 -0.3371
34363SOL     OW14812   0.290   5.039   0.886  0.5048  0.1592 -0.0588
34363SOL    HW114813   0.258   5.086   0.809 -0.2587 -1.2283 -0.6438
34363SOL    HW214814   0.259   5.090   0.961  0.9351  1.3260 -0.6579
34364SOL     OW14815   4.451   5.950   1.321 -0.0809  0.3404 -0.0061
34364SOL    HW114816   4.437   6.026   1.377 -2.6398  0.4916 -0.7430
34364SOL    HW214817   4.419   5.876   1.372  0.3325  0.0616 -0.1446
34365SOL     OW14818   5.507   4.985  11.826  0.1223 -0.3195 -0.7035
34365SOL    HW114819   5.445   5.051  11.858  0.4276 -0.5693  0.4548
34365SOL    HW214820   5.588   5.005  11.872  0.7201 -0.4288 -1.6830
34366SOL     OW14821   1.300  10.688  11.597  0.4760  0.0168 -0.3975
34366SOL    HW114822   1.222  10.640  11.623 -1.3200  3.0154  0.2977
34366SOL    HW214823   1.290  10.702  11.503  0.0829  0.4734 -0.2937
34367SOL     OW14824   9.489   6.106   9.655 -0.0674  0.0015  0.3642
34367SOL    HW114825   9.501   6.114   9.749 -0.3953  0.1055  0.3988
34367SOL    HW214826   9.394   6.113   9.642 -0.1190 -1.0066  0.1236
34368SOL     OW14827   0.579   4.319  10.152 -0.2722  0.1394 -0.4677
34368SOL    HW114828   0.582   4.248  10.089  2.2534 -0.7844  0.5723
34368SOL    HW214829   0.543   4.279  10.232  0.6230  0.1436 -0.0502
34369SOL     OW14830   2.071   2.139   5.358 -0.1308  0.4253  0.4072
34369SOL    HW114831   2.140   2.169   5.299  0.2320 -1.6415 -0.3054
34369SOL    HW214832   2.073   2.201   5.431  1.1767  1.5175 -0.5070
34370SOL     OW14833   3.712   1.681   0.957 -0.1486 -0.0263 -0.4735
34370SOL    HW114834   3.777   1.722   0.900  1.3877 -0.8157  0.6355
34370SOL    HW214835   3.760   1.613   1.003 -2.4842 -2.8269 -1.8635
34371SOL     OW14836   3.677   3.236   4.409 -0.0059 -0.1088  0.1722
34371SOL    HW114837   3.613   3.287   4.360  1.4916  1.4409 -0.2735
34371SOL    HW214838   3.682   3.278   4.495  0.8420  0.1869 -0.0110
34372SOL     OW14839   5.623   3.086  10.989 -0.4092  0.0373 -0.1338
34372SOL    HW114840   5.692   3.019  10.990 -0.4951 -0.1406 -2.0371
34372SOL    HW214841   5.572   3.067  10.910 -1.3758  1.4263  0.1143
34373SOL     OW14842   7.864  11.586   7.729 -0.4992 -0.3371  0.0522
34373SOL    HW114843   7.769  11.594   7.741 -0.3278  1.1170  0.7602
34373SOL    HW214844   7.886  11.653   7.665  0.0415 -0.7595 -0.2150
34374SOL     OW14845   0.205   2.256   5.245 -0.5858 -0.1798 -0.0889
34374SOL    HW114846   0.266   2.208   5.301  1.2158  0.5393 -1.3469
34374SOL    HW214847   0.241   2.344   5.240 -0.8694 -0.1286 -2.0817
34375SOL     OW14848   8.931  10.444   7.153 -0.4221  0.6510 -0.3730
34375SOL    HW114849   9.002  10.436   7.217 -0.0916  0.6996 -0.7360
34375SOL    HW214850   8.852  10.456   7.207 -0.0241  1.6141  0.0048
34376SOL     OW14851   9.343   3.715   3.600  0.2700  0.2965 -0.8771
34376SOL    HW114852   9.429   3.674   3.613 -0.1424 -0.0201  1.3728
34376SOL    HW214853   9.312   3.733   3.689 -0.4835  3.6782 -1.6736
34377SOL     OW14854   2.262   1.552   5.332  0.0581 -0.7084  0.4126
34377SOL    HW114855   2.193   1.618   5.323  0.5219 -0.3727 -0.8810
34377SOL    HW214856   2.238   1.503   5.411 -2.2459 -1.2595 -0.5402
34378SOL     OW14857   9.094   0.269   5.070 -0.4002  0.6370  0.0929
34378SOL    HW114858   9.111   0.343   5.012  0.8976 -0.6721 -1.3356
34378SOL    HW214859   9.105   0.304   5.158 -0.2425  2.2302 -0.5222
34379SOL     OW14860   1.392   1.402   2.404  0.0303  0.1295  0.1538
34379SOL    HW114861   1.422   1.389   2.493  0.6782  0.4113 -0.0194
34379SOL    HW214862   1.472   1.402   2.351 -0.1423  2.0236 -0.1845
34380SOL     OW14863  11.158   4.106   0.277 -0.4300 -0.0751  0.3356
34380SOL    HW114864  11.080   4.068   0.317  1.2003 -2.5426  1.4187
34380SOL    HW214865  11.160   4.069   0.188 -0.0610 -0.7311  0.6089
34381SOL     OW14866   4.625   7.510   2.976  0.1453 -0.1899 -0.2671
34381SOL    HW114867   4.676   7.533   3.054  0.5496 -1.2297 -0.2014
34381SOL    HW214868   4.541   7.480   3.011  0.6646 -1.5932 -0.1209
34382SOL     OW14869  10.796   1.466   4.276 -0.0764 -0.9882 -0.6497
34382SOL    HW114870  10.705   1.482   4.302  0.7340  0.8778  1.4454
34382SOL    HW214871  10.818   1.539   4.218  0.5350 -0.4672  0.2090
34383SOL     OW14872  10.662   3.343   8.373  0.4518  0.5327 -0.3407
34383SOL    HW114873  10.677   3.381   8.459  0.0441  1.9203 -0.8428
34383SOL    HW214874  10.737   3.285   8.358  0.2304 -0.1944  1.1646
34384SOL     OW14875   6.412   0.211   8.898 -0.0654 -0.2199  0.4254
34384SOL    HW114876   6.450   0.284   8.850 -1.5911  0.1475 -0.3069
34384SOL    HW214877   6.318   0.229   8.898 -0.4609 -2.0646  0.4019
34385SOL     OW14878   6.794  11.736   6.852  0.8160 -1.0411  0.8305
34385SOL    HW114879   6.755  11.809   6.901 -0.9337  1.0465 -3.1464
34385SOL    HW214880   6.873  11.774   6.812  1.1061 -2.0015  0.4755
34386SOL     OW14881   2.937   3.888   8.334 -0.4254  0.3252 -0.1362
34386SOL    HW114882   2.875   3.880   8.407  1.2344  0.2107  1.3399
34386SOL    HW214883   3.013   3.837   8.362  0.6595  1.1090 -1.5269
34387SOL     OW14884   7.080   9.144   6.530 -0.7192  0.0086 -0.5904
34387SOL    HW114885   7.157   9.199   6.548 -0.9490  0.5986 -1.3523
34387SOL    HW214886   7.105   9.057   6.559 -0.1475  0.4047  0.1576
34388SOL     OW14887   3.920   3.763   0.697  0.0019 -0.5709 -0.4119
34388SOL    HW114888   3.881   3.717   0.771 -0.5778  1.1620  0.4030
34388SOL    HW214889   3.995   3.809   0.735  0.6974 -0.9884 -1.2515
34389SOL     OW14890   5.954   7.737   9.939 -0.6677 -0.3846 -0.4080
34389SOL    HW114891   5.930   7.705  10.026 -0.0964  1.6436  0.5766
34389SOL    HW214892   5.959   7.832   9.950 -0.8999 -0.0498 -2.7663
34390SOL     OW14893   4.628   7.984   1.156 -0.4166  0.1216 -0.2197
34390SOL    HW114894   4.602   7.899   1.118 -1.3460  0.6357 -0.7805
34390SOL    HW214895   4.671   7.961   1.238 -0.3519 -0.9143 -0.5202
34391SOL     OW14896   9.631   4.927   7.363 -0.1525 -0.1260 -0.7795
34391SOL    HW114897   9.653   4.930   7.456  0.4106  0.1912 -0.9183
34391SOL    HW214898   9.674   5.005   7.326 -1.5565  0.5536 -1.0501
34392SOL     OW14899   4.188   0.610   4.741  0.1217 -0.1679  0.1595
34392SOL    HW114900   4.147   0.528   4.766  2.1099 -0.7598  1.6809
34392SOL    HW214901   4.282   0.593   4.747  0.6213  1.6294 -1.5082
34393SOL     OW14902   3.400   3.844   2.555  0.1472 -0.3421 -0.2001
34393SOL    HW114903   3.457   3.777   2.594  1.2823  1.1774  0.8547
34393SOL    HW214904   3.393   3.818   2.463  2.1210 -0.8777 -0.2453
34394SOL     OW14905   8.589   0.576   2.922 -0.0200 -0.2800 -0.2547
34394SOL    HW114906   8.559   0.546   3.008  0.9488 -0.6788 -0.0452
34394SOL    HW214907   8.573   0.671   2.924 -0.2612 -0.3222  0.2520
34395SOL     OW14908   6.822   0.441   6.942  0.2263 -0.4499  0.2760
34395SOL    HW114909   6.893   0.401   6.992  0.0528 -1.7999 -0.5100
34395SOL    HW214910   6.794   0.516   6.994  0.0595 -1.7854  2.1936
34396SOL     OW14911  11.811   3.634   6.917 -0.4019  0.1483 -0.2026
34396SOL    HW114912  11.867   3.614   6.841  0.3700 -1.7954  0.7932
34396SOL    HW214913  11.824   3.727   6.932  1.1517  0.1276 -1.1475
34397SOL     OW14914   1.024   2.233   9.957 -0.1124 -0.0239 -0.2921
34397SOL    HW114915   1.085   2.170   9.994  1.5296  1.3897 -0.4829
34397SOL    HW214916   1.027   2.217   9.863  1.0662  0.9301 -0.4437
34398SOL     OW14917  10.499  10.379   9.094  0.8753  0.1850  0.6349
34398SOL    HW114918  10.424  10.385   9.035  0.4235  0.0069  1.1809
34398SOL    HW214919  10.530  10.469   9.104 -0.5184  0.5688  1.9806
34399SOL     OW14920   4.613   9.151   5.865  0.3140 -0.0962 -0.2024
34399SOL    HW114921   4.645   9.105   5.788 -2.8162 -0.4370 -1.4564
34399SOL    HW214922   4.642   9.098   5.939 -0.3466 -2.2972 -1.4367
34400SOL     OW14923   5.136   4.449   1.293 -0.1072  0.3054 -0.5626
34400SOL    HW114924   5.157   4.511   1.364 -0.7852  1.5618 -1.4250
34400SOL    HW214925   5.185   4.482   1.218 -0.1459 -0.4619 -0.9271
34401SOL     OW14926   1.284   0.656   0.914  0.1106 -0.4416  0.1147
34401SOL    HW114927   1.218   0.587   0.913  0.9362 -1.2430 -0.4981
34401SOL    HW214928   1.305   0.671   0.822  0.1276  0.4546  0.2541
34402SOL     OW14929   5.843   5.306   1.385  0.4926 -0.4379 -0.1655
34402SOL    HW114930   5.799   5.391   1.380 -0.4668 -0.9522 -0.9244
34402SOL    HW214931   5.868   5.297   1.477 -0.7468  0.0136  0.2378
34403SOL     OW14932   8.700   7.496   8.180 -0.1108 -0.0368 -0.1263
34403SOL    HW114933   8.658   7.429   8.127 -1.5969  1.1325 -0.5059
34403SOL    HW214934   8.787   7.507   8.141 -0.0492 -1.3354 -0.3850
34404SOL     OW14935   5.179  10.549   8.438  0.5386 -0.1241 -0.3443
34404SOL    HW114936   5.274  10.546   8.426  0.4630 -1.3975 -0.7967
34404SOL    HW214937   5.144  10.573   8.353  0.4516  0.1787 -0.2213
34405SOL     OW14938   2.252  11.664   8.929 -0.3431 -0.3509 -0.3129
34405SOL    HW114939   2.210  11.586   8.891 -2.5562  0.6614 -0.1212
34405SOL    HW214940   2.305  11.630   9.000  1.3742 -1.9798 -2.2396
34406SOL     OW14941  10.974   4.502   2.221 -0.0681 -0.1334 -0.2238
34406SOL    HW114942  11.036   4.545   2.280 -0.5683  0.0178  0.2019
34406SOL    HW214943  10.999   4.410   2.224  1.6735  0.2246 -1.9516
34407SOL     OW14944   1.078   0.298   5.921 -0.8101 -0.4419 -0.6117
34407SOL    HW114945   1.078   0.258   6.008  0.6259 -0.5626 -0.6375
34407SOL    HW214946   1.124   0.381   5.934 -1.4578 -0.0120 -1.0666
34408SOL     OW14947   3.886  10.014  10.338 -0.2336  0.1911  0.0293
34408SOL    HW114948   3.808   9.958  10.342  0.3714 -0.6299  0.4980
34408SOL    HW214949   3.943   9.971  10.273 -0.7711  1.5919 -1.4414
34409SOL     OW14950   1.565   1.926   9.287 -0.0333  0.0499 -0.1193
34409SOL    HW114951   1.482   1.901   9.247  0.0312 -1.6386  0.6991
34409SOL    HW214952   1.625   1.939   9.214 -0.6913  0.0280 -0.6647
34410SOL     OW14953   7.450  10.675   7.366  0.0164  0.2383 -0.3188
34410SOL    HW114954   7.533  10.687   7.319 -0.0265 -1.5345 -0.9223
34410SOL    HW214955   7.391  10.638   7.301 -1.1187  1.0111  0.2454
34411SOL     OW14956   8.477   5.370   3.628 -0.2569  0.2399 -0.3078
34411SOL    HW114957   8.461   5.295   3.571  0.9316  0.3429 -0.8248
34411SOL    HW214958   8.538   5.338   3.694  0.7169  0.8472 -0.8645
34412SOL     OW14959   9.071   9.058   7.726 -0.3908 -0.6109 -0.8324
34412SOL    HW114960   9.046   9.026   7.640 -2.2761 -0.9941 -0.1900
34412SOL    HW214961   9.138   8.996   7.757 -0.6290 -1.2101 -1.4966
34413SOL     OW14962   8.146   8.603  11.327  0.3999  0.3782  0.1619
34413SOL    HW114963   8.163   8.554  11.407 -0.1022  1.5440  1.0096
34413SOL    HW214964   8.163   8.541  11.256 -1.3998 -1.4069  1.2073
34414SOL     OW14965   5.459   7.210   2.757 -0.6412 -0.1521 -0.2040
34414SOL    HW114966   5.512   7.235   2.832 -1.5686  2.1830 -0.2642
34414SOL    HW214967   5.376   7.179   2.795 -0.9461  0.6148 -0.2277
34415SOL     OW14968   4.356   4.049   2.712 -0.1974 -0.5847 -0.0474
34415SOL    HW114969   4.443   4.011   2.723  0.3390  0.6681  0.1296
34415SOL    HW214970   4.351   4.119   2.776 -1.4280 -0.7662  0.0894
34416SOL     OW14971   3.298   6.287   2.104  0.8792 -0.3814  0.0614
34416SOL    HW114972   3.370   6.311   2.162  0.0433 -1.4604  1.6077
34416SOL    HW214973   3.327   6.206   2.062  0.3647 -1.1092  1.0921
34417SOL     OW14974   2.745   3.414   7.240  0.1622 -0.2290 -0.1103
34417SOL    HW114975   2.796   3.337   7.214 -1.2373 -0.8066 -1.3170
34417SOL    HW214976   2.798   3.489   7.212  0.9366 -0.7699 -0.1317
34418SOL     OW14977   9.349  10.259   8.979  0.3961  0.4714 -0.4389
34418SOL    HW114978   9.417  10.234   9.041  0.2536  0.9599 -0.0763
34418SOL    HW214979   9.267  10.242   9.025  0.1073 -3.1147 -1.9865
34419SOL     OW14980  10.396   0.777   0.847  0.3391  0.0409 -0.0484
34419SOL    HW114981  10.472   0.770   0.789 -0.5039 -0.0107 -1.1764
34419SOL    HW214982  10.414   0.854   0.901  0.8396  0.4819 -0.8350
34420SOL     OW14983   2.138   2.951   0.060  0.0688  0.0128 -0.0026
34420SOL    HW114984   2.145   3.046   0.048  0.1823  0.1508  1.0322
34420SOL    HW214985   2.063   2.940   0.118 -0.4321 -0.5973 -0.7419
34421SOL     OW14986   7.466   0.263   3.244 -0.1397  0.0622 -0.4625
34421SOL    HW114987   7.504   0.201   3.183  2.2357  1.1526 -0.1998
34421SOL    HW214988   7.501   0.237   3.329 -0.6226  0.6373 -0.0804
34422SOL     OW14989   7.004   2.447  11.220 -0.4736  0.1793  0.2583
34422SOL    HW114990   6.958   2.379  11.269  0.2639  0.0966  0.8523
34422SOL    HW214991   7.074   2.400  11.174 -0.7330  0.3588 -0.3355
34423SOL     OW14992   3.893   5.663   4.802 -0.0100  0.2894  0.4028
34423SOL    HW114993   3.899   5.669   4.707 -0.9205  0.3106  0.3425
34423SOL    HW214994   3.857   5.748   4.830  1.6882  0.8899  0.9188
34424SOL     OW14995   8.701   9.181   6.249 -0.2706  0.5425 -0.1232
34424SOL    HW114996   8.687   9.088   6.265 -0.9503  0.6840  0.1596
34424SOL    HW214997   8.689   9.222   6.335  2.6748  0.6451  0.3424
34425SOL     OW14998   3.079   8.854   3.313  0.3374  0.0127 -0.0902
34425SOL    HW114999   2.995   8.850   3.267  0.3380  0.2203 -0.1118
34425SOL    HW215000   3.144   8.851   3.243  0.3586 -0.5978 -0.0472
34426SOL     OW15001   8.508   7.184  11.669  0.5249  0.0280 -0.1476
34426SOL    HW115002   8.603   7.176  11.673  0.5859 -0.4170 -1.8007
34426SOL    HW215003   8.478   7.100  11.634 -0.4074  0.4398 -0.3751
34427SOL     OW15004  10.279   6.006   4.345 -0.5983 -0.6228  0.0218
34427SOL    HW115005  10.263   5.941   4.413 -0.9986  0.8483  1.3923
34427SOL    HW215006  10.303   5.955   4.268 -3.4295 -2.5471  0.2848
34428SOL     OW15007   9.704  10.670   0.600  0.0269  0.1770  0.1338
34428SOL    HW115008   9.699  10.764   0.581 -0.9810  0.5409  1.8968
34428SOL    HW215009   9.616  10.647   0.632  0.8201 -0.8507  1.7479
34429SOL     OW15010   2.422   0.220   3.061 -0.0477 -0.0660 -0.6858
34429SOL    HW115011   2.380   0.283   3.120  0.2653 -0.7965  0.3357
34429SOL    HW215012   2.365   0.219   2.984 -1.3447 -0.2559  0.2344
34430SOL     OW15013   0.518   2.650   3.153  0.1784  0.3844  1.2182
34430SOL    HW115014   0.508   2.618   3.063 -3.6759 -1.0513  1.9551
34430SOL    HW215015   0.561   2.735   3.144  0.7845 -0.1274 -1.8508
34431SOL     OW15016   6.526   9.413  10.611 -0.5357 -0.3339  0.2436
34431SOL    HW115017   6.586   9.456  10.550 -0.0258 -1.3681 -0.0020
34431SOL    HW215018   6.452   9.473  10.618 -0.0676  0.3491 -0.4713
34432SOL     OW15019   0.074   9.679   8.055  0.0582 -0.0822 -0.6991
34432SOL    HW115020   0.115   9.764   8.042 -0.1009 -0.2835 -3.0022
34432SOL    HW215021   0.147   9.617   8.062  0.1764 -0.0638 -1.6899
34433SOL     OW15022   4.484   4.918  11.811 -0.2771  0.3174  0.2106
34433SOL    HW115023   4.478   4.899  11.718 -0.7137 -0.1127  0.3204
34433SOL    HW215024   4.490   5.014  11.817 -0.2607  0.3436 -0.2530
34434SOL     OW15025   9.433   0.715   8.644  0.5973  0.6184 -0.1401
34434SOL    HW115026   9.404   0.650   8.580  1.1373 -0.3419  0.5764
34434SOL    HW215027   9.503   0.671   8.693  2.0119  2.2320 -0.6018
34435SOL     OW15028   1.580   8.129   0.804  0.1489  0.1563 -1.0608
34435SOL    HW115029   1.556   8.108   0.894  1.5244 -2.1468 -1.1574
34435SOL    HW215030   1.663   8.175   0.810  0.7425 -0.8701 -1.1575
34436SOL     OW15031  11.386   0.558   9.808  0.2795  0.0291 -0.4115
34436SOL    HW115032  11.368   0.643   9.767  0.8266  0.7800  0.8216
34436SOL    HW215033  11.455   0.577   9.872  1.6255 -1.6774 -1.2574
34437SOL     OW15034   6.494  11.104  11.590  0.1710 -0.2713 -0.1642
34437SOL    HW115035   6.460  11.190  11.564  1.8972  0.3244 -0.5580
34437SOL    HW215036   6.549  11.121  11.666 -0.5654 -1.2564  0.6213
34438SOL     OW15037   0.024   5.091   3.017  0.0716  0.5831  0.5367
34438SOL    HW115038  -0.005   5.090   2.926 -1.6451  0.7812  1.0421
34438SOL    HW215039   0.120   5.089   3.012 -0.0005 -0.9335 -1.2208
34439SOL     OW15040   3.789   0.110   8.483  0.3068  0.3683 -0.2688
34439SOL    HW115041   3.695   0.089   8.489  0.4779 -0.2864  0.2981
34439SOL    HW215042   3.802   0.135   8.392 -0.5686  1.2045 -0.1746
34440SOL     OW15043   3.851  10.920   9.841 -0.3710  0.3628 -0.0256
34440SOL    HW115044   3.930  10.950   9.887  1.2980 -0.4120 -2.1995
34440SOL    HW215045   3.832  10.835   9.880  0.6503 -0.0130 -0.3153
34441SOL     OW15046   2.898   9.010   6.759  0.1596 -0.3010  0.0854
34441SOL    HW115047   2.950   8.932   6.740  0.5781  0.6266 -3.0542
34441SOL    HW215048   2.808   8.978   6.761  0.3912 -1.0182 -0.2705
34442SOL     OW15049   2.037   9.235   8.773 -0.2609  0.2409  0.1779
34442SOL    HW115050   2.032   9.279   8.687 -0.8662 -1.3278 -0.6300
34442SOL    HW215051   2.037   9.307   8.836  2.4424  1.5643 -1.1518
34443SOL     OW15052   2.307   1.069   4.424  0.5389  0.4206 -0.2869
34443SOL    HW115053   2.356   1.058   4.342 -2.2606 -0.8672 -1.9342
34443SOL    HW215054   2.312   0.983   4.466  0.7294  0.6477  0.1562
34444SOL     OW15055  10.971   1.462  11.511 -0.1683  0.4225  0.1051
34444SOL    HW115056  10.959   1.471  11.606  2.8131  1.0166  0.5574
34444SOL    HW215057  11.054   1.508  11.494 -1.1278  1.2462 -2.9850
34445SOL     OW15058   0.679   5.270   6.523 -0.5422  0.0757 -0.6677
34445SOL    HW115059   0.690   5.365   6.534 -0.4572 -0.0803  0.9555
34445SOL    HW215060   0.612   5.247   6.588  2.0770 -1.4666  1.7406
34446SOL     OW15061   5.636  10.500   9.979 -0.4874  0.0620 -0.3724
34446SOL    HW115062   5.552  10.486   9.935 -0.6224  1.6474 -0.6830
34446SOL    HW215063   5.691  10.427   9.950 -1.5940 -0.7060 -0.5745
34447SOL     OW15064   0.243   8.539   7.721 -0.3866 -0.3044 -0.1841
34447SOL    HW115065   0.186   8.614   7.739 -0.3602 -0.3305  0.0121
34447SOL    HW215066   0.331   8.576   7.720 -0.1580 -0.6635  2.0496
34448SOL     OW15067   6.889   7.818   4.748  0.2346  0.3726  0.5641
34448SOL    HW115068   6.888   7.814   4.843 -0.8814 -2.2217  0.5190
34448SOL    HW215069   6.919   7.732   4.720 -2.1747  0.0388 -1.3861
34449SOL     OW15070   2.916   2.747   1.573  0.0701  0.0432  0.0374
34449SOL    HW115071   2.868   2.701   1.505  1.5749 -1.0360 -0.3480
34449SOL    HW215072   2.918   2.686   1.647  0.4910  0.2323  0.1883
34450SOL     OW15073   7.423   5.005  10.834 -0.3018  0.2708 -0.2801
34450SOL    HW115074   7.514   5.031  10.818 -0.2304 -0.4146 -1.0600
34450SOL    HW215075   7.373   5.052  10.767 -0.0099 -2.5801 -2.7273
34451SOL     OW15076   9.174   6.379  11.350  0.0787  0.0958  0.0421
34451SOL    HW115077   9.207   6.468  11.353 -0.5932  0.4121 -1.2813
34451SOL    HW215078   9.247   6.325  11.379  0.7820  1.0058 -0.0193
34452SOL     OW15079   1.417   4.769   5.103  0.3207  0.0740 -0.2947
34452SOL    HW115080   1.440   4.684   5.066 -1.3719 -0.0789 -1.0954
34452SOL    HW215081   1.425   4.830   5.030 -1.1969  0.0959 -0.4755
34453SOL     OW15082   9.850  10.369   6.448  0.4110 -0.0575  0.8513
34453SOL    HW115083   9.893  10.284   6.453 -0.4844 -0.5758  0.1223
34453SOL    HW215084   9.909  10.424   6.396  0.9525 -0.2521  1.2575
34454SOL     OW15085   7.448   7.379   3.590 -0.4930 -0.1325  0.0005
34454SOL    HW115086   7.482   7.355   3.504 -1.0633 -2.0878  0.2727
34454SOL    HW215087   7.354   7.391   3.576 -0.7522 -1.4447  0.5169
34455SOL     OW15088   8.201   5.609   1.675  0.2232 -0.3269 -0.2060
34455SOL    HW115089   8.232   5.655   1.753 -2.7340 -1.0781  1.5554
34455SOL    HW215090   8.109   5.634   1.667 -0.8555 -3.9025 -0.5897
34456SOL     OW15091   0.788   6.173   3.392 -0.0176 -0.2213 -0.2182
34456SOL    HW115092   0.832   6.099   3.350  0.6759 -0.1307  0.3455
34456SOL    HW215093   0.754   6.137   3.474  1.3661  0.3508  0.6440
34457SOL     OW15094   3.296  11.659   5.161 -0.6757  0.6041  0.6283
34457SOL    HW115095   3.259  11.676   5.074 -0.4945  1.8065  0.7756
34457SOL    HW215096   3.376  11.608   5.143 -0.5038  1.0594  0.0737
34458SOL     OW15097   4.041   3.639   1.001  0.5099 -0.4406 -0.1789
34458SOL    HW115098   4.082   3.644   0.915  1.4960  0.8733  0.3399
34458SOL    HW215099   4.075   3.714   1.049 -0.9301 -0.4633  0.9770
34459SOL     OW15100   2.166   9.806   5.832  0.5029  0.1372 -1.0026
34459SOL    HW115101   2.218   9.739   5.787  1.0819  1.7729 -2.9695
34459SOL    HW215102   2.212   9.888   5.811 -0.9042  1.2794  0.2195
34460SOL     OW15103   7.730  10.289   5.104  0.1459  0.1002  0.3260
34460SOL    HW115104   7.711  10.334   5.021  1.5307  0.7460  0.3288
34460SOL    HW215105   7.735  10.196   5.080 -0.2908  0.1970 -0.1553
34461SOL     OW15106   1.404   6.653  11.756 -0.1217  0.1985  0.0508
34461SOL    HW115107   1.489   6.607  11.751 -0.2533  0.0070 -0.5103
34461SOL    HW215108   1.342   6.592  11.716 -0.6960 -0.0389  1.2622
34462SOL     OW15109  11.747  11.858  10.064 -0.2524  0.3868  0.4998
34462SOL    HW115110  11.694  11.894  10.136  0.8113  2.9682  0.1211
34462SOL    HW215111  11.836  11.856  10.099 -0.1857 -1.4465  0.2826
34463SOL     OW15112   7.621   8.794   2.006  0.2260  0.0909 -0.3560
34463SOL    HW115113   7.578   8.737   2.070 -0.4605  0.0105 -0.8713
34463SOL    HW215114   7.658   8.866   2.058 -0.7255  0.2741  0.0863
34464SOL     OW15115  11.475   5.693   5.014  0.0015 -0.1007  0.2895
34464SOL    HW115116  11.545   5.709   5.078  1.1665  0.8085 -1.1550
34464SOL    HW215117  11.436   5.779   4.998  1.1246  0.0914 -1.7315
34465SOL     OW15118   8.220  11.002  11.629  0.8476  0.7293  0.4050
34465SOL    HW115119   8.206  10.925  11.684  0.6164  1.6798  1.7044
34465SOL    HW215120   8.231  10.966  11.541 -2.7171 -0.6433  0.3502
34466SOL     OW15121  11.553   8.668   5.729 -0.2634 -0.0706  0.7731
34466SOL    HW115122  11.474   8.678   5.677 -0.2505  0.0996  0.7873
34466SOL    HW215123  11.577   8.757   5.753  0.7209 -0.0021 -0.3932
34467SOL     OW15124   3.113   7.643   7.437 -0.2709 -0.3117 -0.4026
34467SOL    HW115125   3.205   7.670   7.440 -0.7977  1.7154 -0.6031
34467SOL    HW215126   3.115   7.548   7.440  1.7876 -0.2841  0.6707
34468SOL     OW15127   4.959   6.379   0.057 -0.0549  0.6461 -0.4879
34468SOL    HW115128   4.960   6.448   0.122 -0.4850  1.2232 -1.0850
34468SOL    HW215129   4.976   6.423  -0.026 -0.9138  0.1234 -0.9523
34469SOL     OW15130  11.237   5.082  11.613 -0.4586 -0.0135 -0.2477
34469SOL    HW115131  11.320   5.121  11.641  0.0588 -1.1916 -0.0871
34469SOL    HW215132  11.174   5.154  11.616  0.2983  0.6267  0.8003
34470SOL     OW15133   5.597   6.105   2.078 -0.3199 -0.2363 -0.3177
34470SOL    HW115134   5.521   6.093   2.134  0.0906  1.2989  0.6206
34470SOL    HW215135   5.672   6.082   2.134 -0.0265 -0.5916 -0.8520
34471SOL     OW15136   2.246   4.019  10.431 -0.5766  0.1880 -0.0922
34471SOL    HW115137   2.288   4.054  10.353 -1.8306 -0.5363 -1.1452
34471SOL    HW215138   2.208   4.095  10.474  0.8921  0.7143  0.3330
34472SOL     OW15139   9.750  10.894   3.516 -0.0753 -0.2200 -0.2796
34472SOL    HW115140   9.665  10.936   3.500 -0.1412  0.5164  1.7147
34472SOL    HW215141   9.789  10.886   3.430 -1.2605  1.4242 -1.0271
34473SOL     OW15142   1.565  11.211   7.726  0.2803  0.1401  0.1807
34473SOL    HW115143   1.641  11.232   7.671  0.3590 -1.7322 -0.4972
34473SOL    HW215144   1.571  11.116   7.739 -3.3967 -0.5904 -2.1612
34474SOL     OW15145   8.095   1.024   1.972  0.1395  0.9902 -0.3366
34474SOL    HW115146   8.046   1.090   1.924 -0.3784  2.1926  1.7328
34474SOL    HW215147   8.045   1.009   2.052  0.8776 -1.0513 -0.1881
34475SOL     OW15148   6.200   1.076   2.822  0.0358  0.0771  0.4145
34475SOL    HW115149   6.252   1.147   2.859  0.7162 -1.0979  1.8317
34475SOL    HW215150   6.262   1.026   2.769 -0.3035  0.2171 -0.1197
34476SOL     OW15151   2.412   0.411   6.996  0.1170 -0.3002 -0.1361
34476SOL    HW115152   2.470   0.415   7.072 -0.9022 -0.0462  0.6464
34476SOL    HW215153   2.339   0.469   7.019 -1.0182 -1.5108 -0.6101
34477SOL     OW15154   6.900  10.255  10.426  0.3467  0.2313 -0.1512
34477SOL    HW115155   6.982  10.261  10.475  0.5427  1.4594 -0.5721
34477SOL    HW215156   6.834  10.232  10.491  0.3672  3.0450  1.0336
34478SOL     OW15157   6.538   1.690   6.825  0.4336 -0.6911 -0.1718
34478SOL    HW115158   6.565   1.606   6.863  1.8984 -0.0526  0.2786
34478SOL    HW215159   6.609   1.713   6.765  1.3159  1.4034  1.5775
34479SOL     OW15160   8.274   7.154   2.837 -0.2770 -0.1651  0.0762
34479SOL    HW115161   8.333   7.198   2.899 -0.5728  0.2060  0.1044
34479SOL    HW215162   8.237   7.226   2.786  1.0755 -0.5727 -1.5497
34480SOL     OW15163   7.510   8.215   9.814 -0.1586 -0.0893  0.7962
34480SOL    HW115164   7.466   8.153   9.873 -1.3796 -0.1397 -0.1151
34480SOL    HW215165   7.496   8.300   9.854  0.1727 -0.2493  1.2586
34481SOL     OW15166   3.175   6.432   1.506  0.6165  0.3582 -0.3613
34481SOL    HW115167   3.164   6.449   1.600  0.8630  2.4797 -0.6859
34481SOL    HW215168   3.087   6.445   1.469  1.1668  2.9502 -0.8812
34482SOL     OW15169   2.918   4.408  11.794 -0.1256  0.4337  0.2287
34482SOL    HW115170   2.965   4.331  11.824  0.4739 -0.0242 -1.7743
34482SOL    HW215171   2.850   4.375  11.736  1.9591  1.4283 -3.0553
34483SOL     OW15172   1.769   1.124  11.323  0.3482  0.3743 -0.7689
34483SOL    HW115173   1.757   1.131  11.418  1.0869 -0.2997 -0.6167
34483SOL    HW215174   1.784   1.214  11.295  2.0833  0.3865  0.0476
34484SOL     OW15175  10.879   1.049   0.927 -0.6070  0.8096 -0.6182
34484SOL    HW115176  10.791   1.057   0.965 -0.0887 -0.2534  0.9042
34484SOL    HW215177  10.932   1.110   0.977  0.4001 -1.6483  1.5128
34485SOL     OW15178  11.464   0.274   1.780 -0.4313 -0.1511  0.0562
34485SOL    HW115179  11.484   0.253   1.689  0.0590 -0.5170  0.2465
34485SOL    HW215180  11.485   0.367   1.788 -1.5184  0.1619 -0.4811
34486SOL     OW15181   2.997   0.572   7.075  0.5643  0.6968 -0.2955
34486SOL    HW115182   2.941   0.541   7.005 -1.1096  0.9121  0.8969
34486SOL    HW215183   3.014   0.494   7.129  0.2375  0.9077  0.1191
34487SOL     OW15184   4.603  10.859   3.760  0.3414 -0.3604 -0.0463
34487SOL    HW115185   4.591  10.929   3.825  0.2151 -1.7602  1.4976
34487SOL    HW215186   4.517  10.847   3.721  0.0146 -0.6471  0.7447
34488SOL     OW15187   4.858  10.554   1.093  0.3681  0.2278 -0.0045
34488SOL    HW115188   4.939  10.536   1.140  0.4047 -1.7809 -0.7103
34488SOL    HW215189   4.882  10.547   1.001 -0.3800  0.8074 -0.2581
34489SOL     OW15190   9.730   5.917   8.857  0.4605  0.1713  0.0193
34489SOL    HW115191   9.661   5.892   8.795 -0.7945  1.8161  0.6709
34489SOL    HW215192   9.716   5.862   8.933  1.2901 -1.0493 -0.6789
34490SOL     OW15193   8.757   3.455   4.010  0.2697  0.1419  0.5448
34490SOL    HW115194   8.665   3.465   4.034  0.3162  0.4256  0.6047
34490SOL    HW215195   8.766   3.362   3.987 -0.4491  0.4540 -1.2068
34491SOL     OW15196   7.365   9.997   4.322 -0.0280  0.0980  0.0167
34491SOL    HW115197   7.451   9.990   4.281 -0.2624  0.4398 -0.5373
34491SOL    HW215198   7.334   9.907   4.329  0.4005 -0.0324  0.2836
34492SOL     OW15199   7.640   2.458   2.059 -0.3347  0.0193  0.4144
34492SOL    HW115200   7.635   2.416   2.145 -1.2755  1.1420  0.9470
34492SOL    HW215201   7.557   2.436   2.017 -0.5521  0.7584  0.4344
34493SOL     OW15202   4.904  10.029  10.993 -0.0460  0.7273 -0.0846
34493SOL    HW115203   4.839   9.983  11.046  0.4241 -1.7482 -1.5189
34493SOL    HW215204   4.855  10.063  10.918 -0.0318  0.7132 -0.1000
34494SOL     OW15205   5.340   4.188   1.813  0.3145 -0.7426  0.0589
34494SOL    HW115206   5.247   4.167   1.821 -0.0112  0.7118  0.3061
34494SOL    HW215207   5.358   4.182   1.719 -0.4278  0.4835 -0.1864
34495SOL     OW15208   0.880   2.739   1.875  0.2248  0.7016 -0.1129
34495SOL    HW115209   0.799   2.787   1.889 -0.0944  0.2421 -0.3277
34495SOL    HW215210   0.944   2.806   1.850 -1.2590  0.7224 -5.0239
34496SOL     OW15211   8.972   9.956   8.276  0.1489 -0.6082 -0.5090
34496SOL    HW115212   8.887   9.927   8.244 -1.3923  1.3386  1.5564
34496SOL    HW215213   8.962  10.051   8.289  2.6953 -0.2849 -0.3655
34497SOL     OW15214   3.721  10.862  10.978 -0.0946 -0.3302 -0.2303
34497SOL    HW115215   3.756  10.780  10.942 -0.2263 -0.6246  0.3000
34497SOL    HW215216   3.628  10.845  10.992 -0.4056  0.3604 -1.3674
34498SOL     OW15217   1.465   3.385   7.212 -0.2689 -0.2028  0.0656
34498SOL    HW115218   1.504   3.299   7.199  0.8705  0.1177  1.1471
34498SOL    HW215219   1.397   3.392   7.145 -0.2043 -1.8282 -0.1933
34499SOL     OW15220   2.430   1.894   3.855 -0.2801 -0.4174 -0.1090
34499SOL    HW115221   2.407   1.967   3.912  0.3314  0.8532 -1.4281
34499SOL    HW215222   2.522   1.875   3.875  0.0179  0.2164 -0.8513
34500SOL     OW15223   5.516  11.384   4.618  0.0705 -0.0679  0.2194
34500SOL    HW115224   5.437  11.342   4.652  1.6231 -0.9531  3.1001
34500SOL    HW215225   5.524  11.465   4.669  1.7275 -0.7226  1.1085
34501SOL     OW15226   1.878   9.283   3.200  0.2992 -0.1876 -0.2340
34501SOL    HW115227   1.918   9.359   3.243 -0.6375 -0.4233  1.0988
34501SOL    HW215228   1.788   9.281   3.232  0.4372 -2.1640  0.1584
34502SOL     OW15229   2.994   5.718   3.959 -0.8317 -0.0968 -0.0427
34502SOL    HW115230   2.961   5.638   4.000  0.8284 -0.1874  1.2370
34502SOL    HW215231   3.034   5.689   3.877 -0.0692 -0.6495  0.5030
34503SOL     OW15232   4.689   7.953   3.067 -0.1437 -0.4217 -0.2831
34503SOL    HW115233   4.765   7.896   3.079  0.2148  0.3429  1.4744
34503SOL    HW215234   4.721   8.041   3.088 -1.3745 -0.0023 -0.0596
34504SOL     OW15235  11.143   1.070   7.035 -0.2261  0.1800 -0.2433
34504SOL    HW115236  11.097   1.146   7.071  0.3429  1.1516 -1.5034
34504SOL    HW215237  11.073   1.010   7.008 -0.6899  0.5461  0.1415
34505SOL     OW15238  11.836  10.251   7.584  0.4721  0.2558  0.2567
34505SOL    HW115239  11.895  10.264   7.510  1.0400 -0.5268  0.5604
34505SOL    HW215240  11.789  10.334   7.592  0.3289  0.3075 -1.0358
34506SOL     OW15241   9.792   8.644   6.197 -0.0967 -0.3700  0.0800
34506SOL    HW115242   9.821   8.698   6.271 -1.6993 -1.3347  1.5007
34506SOL    HW215243   9.866   8.586   6.179 -0.5958 -2.0803  2.9137
34507SOL     OW15244  10.045  10.916   1.026 -0.1377  0.0473  0.3265
34507SOL    HW115245   9.968  10.931   1.081 -1.0662  2.5095 -1.4749
34507SOL    HW215246  10.069  11.003   0.993  2.6960 -0.8066 -0.1762
34508SOL     OW15247   6.590  11.942   2.685 -0.3084 -0.4893  0.1929
34508SOL    HW115248   6.622  11.908   2.769  1.9480  0.1321 -0.3462
34508SOL    HW215249   6.513  11.995   2.708  1.3081  1.1805  2.1610
34509SOL     OW15250   4.056   8.839   3.722  0.2238  0.6110  0.1245
34509SOL    HW115251   4.099   8.878   3.798  0.2750  1.6256 -0.4161
34509SOL    HW215252   4.012   8.912   3.678 -0.3644 -0.0744 -0.4537
34510SOL     OW15253   9.994   3.803   6.985  0.4912 -0.3847 -0.5916
34510SOL    HW115254  10.020   3.730   7.042  0.7108 -0.5167 -0.8524
34510SOL    HW215255   9.979   3.761   6.900 -0.8252 -0.3497 -0.3934
34511SOL     OW15256   8.836   5.071   1.191  0.2146 -0.1710  0.1183
34511SOL    HW115257   8.745   5.049   1.172 -0.3544  1.0934  1.1733
34511SOL    HW215258   8.843   5.066   1.287  1.0638  0.3776  0.1036
34512SOL     OW15259   1.837   2.800   2.916 -0.1456 -0.0602  1.2657
34512SOL    HW115260   1.898   2.792   2.989  0.2118  1.9700  1.2472
34512SOL    HW215261   1.778   2.725   2.926  1.6350 -1.4398  1.9356
34513SOL     OW15262   4.460   4.271   8.942 -0.1545 -0.3084  0.1186
34513SOL    HW115263   4.517   4.333   8.896 -2.0344  0.3959 -1.3914
34513SOL    HW215264   4.476   4.187   8.898 -2.4897  0.5005 -2.5413
34514SOL     OW15265   9.813   7.598   7.185 -0.4260  0.2013 -0.5008
34514SOL    HW115266   9.787   7.683   7.219 -0.4755  0.3743 -0.9634
34514SOL    HW215267   9.755   7.536   7.230  1.0965  0.1507  1.5302
34515SOL     OW15268   5.369  10.764   6.189  0.3587  0.0058 -0.1273
34515SOL    HW115269   5.363  10.829   6.119  0.4642 -0.1559 -0.2879
34515SOL    HW215270   5.451  10.784   6.233  0.6739 -0.3613 -0.5278
34516SOL     OW15271  11.315   9.104   9.211 -0.0906  0.7740 -0.1360
34516SOL    HW115272  11.373   9.099   9.287 -2.4101 -1.6792  1.6654
34516SOL    HW215273  11.227   9.097   9.248 -1.3893  0.8974 -2.9697
34517SOL     OW15274   0.731   7.659   7.917 -0.3786  0.0571  0.1561
34517SOL    HW115275   0.709   7.572   7.883 -0.3507 -0.1480  0.6597
34517SOL    HW215276   0.817   7.678   7.880  1.3622 -1.7209  2.9281
34518SOL     OW15277   6.110   1.015  11.405  0.1992 -0.3134  0.2906
34518SOL    HW115278   6.116   1.043  11.313 -1.1690 -0.6529  0.0720
34518SOL    HW215279   6.140   1.091  11.455  2.2869 -0.5960 -0.4504
34519SOL     OW15280   2.854   2.417   2.954  0.1043 -0.2009  0.0030
34519SOL    HW115281   2.782   2.388   3.010 -0.0349 -1.5719 -0.8633
34519SOL    HW215282   2.891   2.493   3.000 -0.2551 -1.0442  1.7540
34520SOL     OW15283   6.909   6.414   6.055  0.4593 -0.0582  0.0882
34520SOL    HW115284   6.886   6.462   6.135  1.5134  0.1421  0.2886
34520SOL    HW215285   6.834   6.428   5.997 -0.5858 -0.6720  1.2310
34521SOL     OW15286  10.886   3.038  10.908 -0.2995  0.1825  0.7200
34521SOL    HW115287  10.952   2.971  10.893 -0.5781 -0.0048  0.3077
34521SOL    HW215288  10.810   3.008  10.858 -0.9964 -0.0570  1.8804
34522SOL     OW15289   6.668  10.578   5.862  0.1347  0.5034 -0.4324
34522SOL    HW115290   6.752  10.622   5.864  1.9443 -2.6550 -0.1947
34522SOL    HW215291   6.685  10.494   5.819 -1.9359 -1.9354  2.9395
34523SOL     OW15292   9.813   6.670   4.530  0.1979 -0.5301  0.2293
34523SOL    HW115293   9.724   6.638   4.518  0.8478 -1.9132 -1.4627
34523SOL    HW215294   9.861   6.595   4.566  0.4563  0.5784  2.3181
34524SOL     OW15295   6.646   4.874   5.553  0.5466 -0.5045  0.0016
34524SOL    HW115296   6.583   4.873   5.626  0.3947  0.7802 -0.0986
34524SOL    HW215297   6.594   4.900   5.477  1.1462  0.2981 -0.1362
34525SOL     OW15298   7.218   4.848  11.493 -0.3298  0.3761 -0.2589
34525SOL    HW115299   7.127   4.877  11.483 -0.0652  1.4193  0.1779
34525SOL    HW215300   7.213   4.774  11.554 -0.9946 -0.3073 -1.1110
34526SOL     OW15301   9.050   3.547   5.743  0.3683  0.5115 -0.5395
34526SOL    HW115302   9.011   3.476   5.691  0.6054 -0.5092  0.6314
34526SOL    HW215303   9.139   3.555   5.710  0.5253 -0.1507 -0.2891
34527SOL     OW15304  11.426   0.374   1.118  0.1605 -0.0254 -0.4861
34527SOL    HW115305  11.464   0.390   1.032 -0.6019  1.0491 -0.6312
34527SOL    HW215306  11.494   0.401   1.180 -0.3138  1.8733 -0.7463
34528SOL     OW15307   4.576   7.143  11.654  0.5135 -0.3533 -0.6023
34528SOL    HW115308   4.482   7.156  11.669  0.9168  1.5715  0.7363
34528SOL    HW215309   4.614   7.146  11.742  2.0145  0.9642 -1.2448
34529SOL     OW15310   3.774   6.485  10.209 -0.3232 -0.1423 -0.1529
34529SOL    HW115311   3.804   6.576  10.202 -0.6791  0.1146  1.1902
34529SOL    HW215312   3.681   6.489  10.186 -0.1082 -0.3450 -1.0630
34530SOL     OW15313   9.758   0.868   9.585 -0.3386 -0.5203 -0.0308
34530SOL    HW115314   9.767   0.825   9.499  3.2439  0.4586 -0.2931
34530SOL    HW215315   9.756   0.795   9.648  1.1145 -1.2201 -0.7373
34531SOL     OW15316   3.210   2.893   2.788  0.2349 -0.4534 -0.0202
34531SOL    HW115317   3.164   2.974   2.768  0.2793 -0.3320  0.3603
34531SOL    HW215318   3.292   2.900   2.739  0.6251  0.1313  0.6926
34532SOL     OW15319   7.643   5.513   7.342  0.7460 -0.7148  0.6003
34532SOL    HW115320   7.675   5.591   7.297 -0.1535  0.3306  1.6935
34532SOL    HW215321   7.719   5.478   7.388  0.9746 -0.0175  0.7567
34533SOL     OW15322   3.883   7.195   7.175  0.0682  0.3158 -0.4043
34533SOL    HW115323   3.892   7.146   7.094 -1.5877  0.1721 -0.5418
34533SOL    HW215324   3.916   7.283   7.155  2.4321 -0.4995 -0.3447
34534SOL     OW15325  11.266   6.470   0.170  0.1873  0.1669 -0.2127
34534SOL    HW115326  11.331   6.521   0.122  0.1584 -0.6859 -1.1917
34534SOL    HW215327  11.264   6.509   0.257  2.5375 -0.2050  0.0796
34535SOL     OW15328   7.562   1.966  11.793 -0.5323  0.0013  0.0975
34535SOL    HW115329   7.561   1.961  11.888 -0.4122 -1.2598  0.0387
34535SOL    HW215330   7.637   2.023  11.773 -0.5378  0.2403  0.7508
34536SOL     OW15331  10.829   6.585   7.974  0.2484  0.1126  0.7035
34536SOL    HW115332  10.894   6.655   7.985  1.4109 -0.7813 -0.1554
34536SOL    HW215333  10.823   6.545   8.061 -0.2545  1.1203  1.1451
34537SOL     OW15334   2.270   6.940   7.448 -0.5134  0.4191 -0.3274
34537SOL    HW115335   2.346   6.896   7.485 -0.2904  1.1615  0.1308
34537SOL    HW215336   2.304   6.989   7.373 -0.3802  1.3321  0.3061
34538SOL     OW15337   5.910   6.411   9.822 -0.5266 -0.3529  0.2320
34538SOL    HW115338   5.846   6.340   9.817  0.1021 -1.0214  1.2829
34538SOL    HW215339   5.960   6.393   9.901  1.1193  0.0306 -0.6725
34539SOL     OW15340   9.416   0.975   9.479 -0.0899 -0.3863 -0.1199
34539SOL    HW115341   9.452   0.887   9.467  0.7817 -0.2216  1.1778
34539SOL    HW215342   9.422   0.991   9.573 -1.9975  0.3406 -0.0837
34540SOL     OW15343   7.706   7.403   1.108 -0.2951 -0.1522 -0.0232
34540SOL    HW115344   7.639   7.412   1.177  0.0475 -0.7935  0.4090
34540SOL    HW215345   7.748   7.319   1.127 -0.5938 -0.6381 -1.3776
34541SOL     OW15346   9.577  11.932  10.832  0.5165 -0.6722  0.0404
34541SOL    HW115347   9.600  11.903  10.920 -3.0074 -0.0342  1.3621
34541SOL    HW215348   9.579  12.028  10.836 -0.6114 -0.6170 -0.2165
34542SOL     OW15349  11.586  10.629   8.471 -0.5266 -0.0263  0.0606
34542SOL    HW115350  11.526  10.639   8.397 -1.5311  2.1854  1.0761
34542SOL    HW215351  11.673  10.644   8.434 -0.8460 -0.5780 -0.9441
34543SOL     OW15352   9.142   8.284   6.146  0.4169 -0.3210  0.0501
34543SOL    HW115353   9.122   8.225   6.219 -1.1889 -1.5617 -1.3217
34543SOL    HW215354   9.219   8.246   6.105 -0.7449 -1.6783 -0.9675
34544SOL     OW15355   7.164   6.198   8.851  0.2605 -0.4148  0.5613
34544SOL    HW115356   7.247   6.210   8.897  1.3597  1.2426 -1.6308
34544SOL    HW215357   7.109   6.269   8.883 -0.5610 -1.8209  2.3985
34545SOL     OW15358   2.755   1.253   2.451 -0.2899  0.2430 -0.0579
34545SOL    HW115359   2.728   1.189   2.385 -1.0228  0.8460 -0.3591
34545SOL    HW215360   2.848   1.235   2.466  0.6232  1.6555 -3.1172
34546SOL     OW15361   4.868   9.107  10.210  0.0034 -0.2571 -0.7783
34546SOL    HW115362   4.926   9.064  10.273 -0.7118 -0.4632 -0.2546
34546SOL    HW215363   4.780   9.083  10.237 -0.9754  5.2328  2.5977
34547SOL     OW15364   7.935   2.769   1.288  0.0121  0.7731  0.3159
34547SOL    HW115365   7.933   2.841   1.351 -0.4564  1.7476 -0.7575
34547SOL    HW215366   8.028   2.749   1.276  0.5474  3.9006 -2.2163
34548SOL     OW15367   6.724   0.682   2.297 -0.3858  0.2597 -0.5786
34548SOL    HW115368   6.683   0.658   2.380  0.9134  0.0649  0.0352
34548SOL    HW215369   6.653   0.679   2.233 -1.2520 -0.3525  0.3841
34549SOL     OW15370   1.525   6.955   7.288 -0.5935 -0.1475  0.1827
34549SOL    HW115371   1.496   6.919   7.372 -2.7326  0.9985  0.0030
34549SOL    HW215372   1.477   7.037   7.279  2.2961  1.6016 -0.5462
34550SOL     OW15373   2.532   2.665  11.072 -0.7096 -0.0538 -0.0019
34550SOL    HW115374   2.611   2.620  11.043  0.0822  0.5555  1.1045
34550SOL    HW215375   2.559   2.757  11.082 -1.4922  0.1281  0.5928
34551SOL     OW15376   5.210  11.278   4.678  0.2413 -0.5186  0.6199
34551SOL    HW115377   5.229  11.219   4.605 -0.7316 -2.2197  1.6667
34551SOL    HW215378   5.131  11.242   4.719 -0.1975  1.3308  1.5423
34552SOL     OW15379   5.705   7.599  11.019  0.1958  0.1926 -0.4080
34552SOL    HW115380   5.650   7.658  11.070  1.0566  0.1326  0.6377
34552SOL    HW215381   5.733   7.532  11.082 -1.4220 -1.8506 -1.7438
34553SOL     OW15382   6.164   2.560   0.947 -0.4343  0.0918  0.1364
34553SOL    HW115383   6.246   2.524   0.981  0.9613 -0.3393 -3.2165
34553SOL    HW215384   6.118   2.485   0.911 -1.1044  0.6731 -0.2539
34554SOL     OW15385  10.138   5.948  11.332 -0.6367 -0.0937 -0.0554
34554SOL    HW115386  10.050   5.913  11.343  0.0476 -1.8446  0.1866
34554SOL    HW215387  10.127   6.043  11.334 -2.5664 -0.2721 -0.5081
34555SOL     OW15388   7.908   6.210  10.799 -0.5111  0.0988  0.5114
34555SOL    HW115389   7.896   6.129  10.847  2.5447  0.3908  2.0124
34555SOL    HW215390   7.986   6.196  10.746 -0.7989  1.5648 -0.3844
34556SOL     OW15391   7.573   7.286   3.363 -0.3165 -0.2254  0.4049
34556SOL    HW115392   7.552   7.338   3.285  0.6122 -1.9070 -1.0299
34556SOL    HW215393   7.618   7.209   3.329 -1.1920 -1.7487  2.4834
34557SOL     OW15394  11.451   0.862   9.841  0.3785 -0.4197 -0.2676
34557SOL    HW115395  11.425   0.922   9.909 -0.5181  0.0191 -0.9819
34557SOL    HW215396  11.543   0.842   9.860  0.2097 -0.1178  0.9033
34558SOL     OW15397   4.765   7.448   1.602 -0.1327  0.2716 -0.1492
34558SOL    HW115398   4.848   7.471   1.645  0.1372  2.8835 -1.8493
34558SOL    HW215399   4.698   7.478   1.663  0.1996  0.7986 -0.0373
34559SOL     OW15400  11.424   6.310   8.946  0.4129 -0.9919  0.1625
34559SOL    HW115401  11.365   6.255   8.894  0.9410 -0.2440 -1.2815
34559SOL    HW215402  11.470   6.249   9.003 -0.5248 -1.7883  0.0812
34560SOL     OW15403   4.290   9.533   3.746  0.1035  0.2228  0.4619
34560SOL    HW115404   4.229   9.473   3.703 -0.0836  0.8366 -0.1666
34560SOL    HW215405   4.376   9.498   3.727  0.0137  0.3580 -0.2489
34561SOL     OW15406  10.810   2.385   7.230 -0.1324 -0.2761 -0.2721
34561SOL    HW115407  10.754   2.347   7.161 -1.3881  1.2576 -0.1554
34561SOL    HW215408  10.754   2.389   7.307  1.0580 -1.3425  0.6794
34562SOL     OW15409   1.061   4.517  10.402 -0.3965 -0.6094 -0.1953
34562SOL    HW115410   1.126   4.482  10.342 -0.6178 -0.9356 -0.2436
34562SOL    HW215411   1.110   4.580  10.455 -0.2435 -0.1509 -0.8579
34563SOL     OW15412   2.749   4.419   7.592 -0.5172  0.2417  0.2736
34563SOL    HW115413   2.797   4.396   7.672 -2.0855 -1.7080  0.7495
34563SOL    HW215414   2.775   4.352   7.529 -0.8373  0.5575 -0.1999
34564SOL     OW15415  11.507   8.872   7.869  0.6622 -0.3769 -0.1181
34564SOL    HW115416  11.529   8.899   7.780  2.2327  1.0010  0.6380
34564SOL    HW215417  11.500   8.954   7.918 -0.5833 -1.0931  0.9699
34565SOL     OW15418  10.618   6.167  11.222  0.5966 -0.0367  0.2869
34565SOL    HW115419  10.629   6.190  11.130 -0.9152 -1.3289 -0.2631
34565SOL    HW215420  10.525   6.182  11.240  0.7934 -0.1450  1.5078
34566SOL     OW15421   1.967   9.099  11.133  0.8855  0.1700 -0.1853
34566SOL    HW115422   2.025   9.173  11.150  1.2014  0.4673 -2.2022
34566SOL    HW215423   2.020   9.022  11.151  0.7713  0.4131  1.2822
34567SOL     OW15424   5.092   6.196   0.238  0.4428  0.1416 -0.0341
34567SOL    HW115425   5.059   6.229   0.321  2.8176  0.6116  0.7866
34567SOL    HW215426   5.074   6.267   0.175  0.5519  0.6881  0.5429
34568SOL     OW15427   0.132   7.394   6.026  0.0592  0.0595  0.1634
34568SOL    HW115428   0.077   7.323   6.060  0.3808 -1.1181 -1.6131
34568SOL    HW215429   0.083   7.474   6.045 -1.5520 -0.8416 -0.0207
34569SOL     OW15430   3.600   7.390   6.859  0.7087 -0.1878  0.7720
34569SOL    HW115431   3.536   7.395   6.787  1.6034  2.3421  0.0446
34569SOL    HW215432   3.680   7.359   6.817  1.3667  1.7576  0.5056
34570SOL     OW15433   7.237   6.271   3.225 -0.2974  0.3346  0.1083
34570SOL    HW115434   7.189   6.258   3.306  1.0885  1.0921  1.0780
34570SOL    HW215435   7.247   6.366   3.217 -3.2140  0.5930 -2.6727
34571SOL     OW15436   3.285   1.453  11.032  0.3532  0.6545  0.3943
34571SOL    HW115437   3.328   1.438  10.947  0.4642  0.0335  0.5542
34571SOL    HW215438   3.304   1.374  11.082  0.7501  1.2536  1.1986
34572SOL     OW15439   1.358   7.089  10.888 -0.3335 -0.3916 -0.2786
34572SOL    HW115440   1.316   7.022  10.941  0.6579 -0.5459  0.3436
34572SOL    HW215441   1.401   7.147  10.951  0.4576 -0.3016 -0.8798
34573SOL     OW15442   8.948  10.062  10.906 -0.0076  0.2125 -0.0906
34573SOL    HW115443   8.943  10.103  10.821  2.4837 -1.2008 -1.0313
34573SOL    HW215444   8.858  10.035  10.925 -0.6317  0.5937 -2.2421
34574SOL     OW15445   5.159   9.111   7.590 -0.0029  0.2165  0.0041
34574SOL    HW115446   5.093   9.096   7.522  0.1546 -1.5810  0.2034
34574SOL    HW215447   5.224   9.043   7.575  1.1916  1.2030  0.5770
34575SOL     OW15448   6.727   3.011   7.817 -0.2970 -0.0357  0.4989
34575SOL    HW115449   6.666   3.084   7.821 -1.2912 -0.8601  0.6798
34575SOL    HW215450   6.752   2.994   7.908  2.5161  2.1421  0.2750
34576SOL     OW15451   0.882   2.471   7.098  0.1825  0.1187  0.2956
34576SOL    HW115452   0.822   2.410   7.143 -1.1339 -0.8738 -2.5619
34576SOL    HW215453   0.969   2.434   7.113 -0.3512 -1.0126  0.7549
34577SOL     OW15454   0.126   2.768   1.230  0.8072 -0.3181 -0.3990
34577SOL    HW115455   0.046   2.820   1.234  1.9838  1.5589  0.5819
34577SOL    HW215456   0.148   2.764   1.137  0.7727  1.1526 -0.4945
34578SOL     OW15457   2.281   0.644   0.635  0.4739 -0.1723  0.7001
34578SOL    HW115458   2.342   0.621   0.566 -0.0018  2.9449 -0.9402
34578SOL    HW215459   2.312   0.729   0.668 -1.5926  0.3577  1.4674
34579SOL     OW15460   2.748   8.421   9.136 -0.1161 -0.2498 -0.0020
34579SOL    HW115461   2.739   8.365   9.213  0.0746  0.1243  0.2958
34579SOL    HW215462   2.717   8.507   9.164  0.6246  0.0683 -0.1200
34580SOL     OW15463   7.470   6.542   3.362 -0.0149  0.4257 -0.5823
34580SOL    HW115464   7.541   6.570   3.304 -0.4647 -2.3889 -2.7173
34580SOL    HW215465   7.507   6.468   3.410 -0.7265  0.5732  0.2029
34581SOL     OW15466   9.643   0.213   7.771  0.1038  0.0471  0.1655
34581SOL    HW115467   9.635   0.155   7.694 -0.4566  0.9890 -0.5003
34581SOL    HW215468   9.666   0.298   7.734 -0.1739  0.5140  1.0579
34582SOL     OW15469   3.952   6.601   4.856  0.0554  0.1614  0.2704
34582SOL    HW115470   3.950   6.583   4.950  0.3963  0.5368  0.3506
34582SOL    HW215471   3.873   6.559   4.822  0.6323 -1.1427  0.5036
34583SOL     OW15472   4.454   0.508   6.747  0.0433  0.8298  0.2872
34583SOL    HW115473   4.522   0.499   6.680 -1.3318 -0.4157 -1.0157
34583SOL    HW215474   4.436   0.602   6.749  2.5075  1.3694  1.4669
34584SOL     OW15475  10.119   6.480   2.228 -0.0863  0.3665 -0.4845
34584SOL    HW115476  10.188   6.431   2.273  0.9673  1.9405 -0.3103
34584SOL    HW215477  10.083   6.418   2.164  0.0131 -1.1531  0.8711
34585SOL     OW15478   3.739  10.299   4.423 -0.2059  0.0865 -0.2990
34585SOL    HW115479   3.695  10.382   4.437  0.5981  0.4849 -0.1054
34585SOL    HW215480   3.798  10.314   4.349 -0.7272 -0.5769 -0.8713
34586SOL     OW15481  10.764   2.084   2.761 -0.2465 -0.1531 -0.7718
34586SOL    HW115482  10.749   2.081   2.855 -2.3891  1.1995 -1.0192
34586SOL    HW215483  10.713   2.011   2.726 -0.4395  0.0908 -0.9987
34587SOL     OW15484   7.048   6.054  11.630  0.2967 -0.3693  0.1699
34587SOL    HW115485   7.020   6.143  11.608  1.9456 -0.0408 -0.7129
34587SOL    HW215486   7.136   6.064  11.665  1.0394 -1.7716 -1.2014
34588SOL     OW15487   5.458   2.825  11.271  0.6509 -0.0303 -0.0305
34588SOL    HW115488   5.507   2.813  11.352  1.2387 -1.4386 -0.5549
34588SOL    HW215489   5.381   2.770  11.280 -0.3618  1.3978  0.3742
34589SOL     OW15490   6.233   0.443   8.072 -0.0346  0.4835  0.1665
34589SOL    HW115491   6.294   0.496   8.123  1.0470  0.2856 -0.8549
34589SOL    HW215492   6.259   0.352   8.091 -1.0547  0.3390  0.9375
34590SOL     OW15493  11.906   2.514   3.882 -0.1084  0.0566  0.0938
34590SOL    HW115494  11.937   2.477   3.965 -3.0993 -0.3307  1.1635
34590SOL    HW215495  11.949   2.462   3.815  1.2823 -0.5885  1.4324
34591SOL     OW15496   5.696   5.004   3.131  0.0476 -0.0284  0.6665
34591SOL    HW115497   5.713   5.059   3.055  0.9146 -0.2967  0.6561
34591SOL    HW215498   5.642   5.058   3.188 -1.9851 -0.3786 -0.8168
34592SOL     OW15499   1.277   3.760   6.954  0.4763  0.0148 -0.6620
34592SOL    HW115500   1.186   3.731   6.960 -0.1825  1.6556 -1.9287
34592SOL    HW215501   1.272   3.855   6.947  2.2803  0.1393 -0.9071
34593SOL     OW15502   4.322   2.862  10.185  0.2109 -0.4614  0.0767
34593SOL    HW115503   4.410   2.897  10.201  0.1041  0.6039 -1.4298
34593SOL    HW215504   4.263   2.925  10.227  0.1004  0.0027 -0.7567
34594SOL     OW15505   7.871  10.995  11.863 -0.0794 -0.7154 -0.1485
34594SOL    HW115506   7.885  11.061  11.931 -0.4747 -0.5207 -0.2510
34594SOL    HW215507   7.917  10.917  11.895  1.0925 -0.1399 -0.4224
34595SOL     OW15508   1.102   7.929   1.719  0.2754  0.5024  0.2547
34595SOL    HW115509   1.163   7.961   1.652  0.5998  0.3882  0.4901
34595SOL    HW215510   1.061   8.008   1.755  2.4385  0.8764  2.1467
34596SOL     OW15511   1.915  11.513   0.702  0.1544 -0.3967 -0.1412
34596SOL    HW115512   1.854  11.452   0.743  0.1459  1.3217  2.6647
34596SOL    HW215513   1.986  11.522   0.765  1.0693  1.1134 -1.3049
34597SOL     OW15514   1.201   3.273   9.498 -0.4799 -0.4713  0.6160
34597SOL    HW115515   1.292   3.263   9.525  0.0922 -0.4509 -1.1565
34597SOL    HW215516   1.190   3.367   9.485 -0.4288 -0.5584 -0.1308
34598SOL     OW15517   2.533  10.895  11.831 -0.1953 -0.2294 -0.7661
34598SOL    HW115518   2.575  10.813  11.803  0.4466  0.0027 -0.5026
34598SOL    HW215519   2.467  10.867  11.895 -0.9513 -0.6614 -1.7066
34599SOL     OW15520   4.976  11.198  11.640  0.2744 -0.1428  0.5022
34599SOL    HW115521   4.898  11.201  11.585  0.5573 -0.0702  0.0994
34599SOL    HW215522   5.031  11.131  11.600  0.9331  0.6321  0.0807
34600SOL     OW15523   6.305   8.039   5.225  0.6969  0.5048  0.7302
34600SOL    HW115524   6.382   8.050   5.170  0.5699  0.8906  0.6243
34600SOL    HW215525   6.281   7.946   5.216 -0.5302  0.9713 -1.4960
34601SOL     OW15526   0.597   0.771  11.643 -0.0284 -0.1819 -0.3382
34601SOL    HW115527   0.561   0.800  11.559 -1.6113  0.0537  0.3870
34601SOL    HW215528   0.687   0.804  11.643 -0.5460  1.3521 -1.1969
34602SOL     OW15529   2.328   2.942   2.820  0.4458 -0.4039  0.1085
34602SOL    HW115530   2.350   3.007   2.886 -0.7096 -0.0605  0.1888
34602SOL    HW215531   2.292   2.993   2.747 -1.1139 -0.9541  0.4437
34603SOL     OW15532   8.807   6.693   8.022 -0.2990  0.1422 -0.0334
34603SOL    HW115533   8.831   6.719   7.933 -1.3189 -1.5730 -0.8735
34603SOL    HW215534   8.722   6.734   8.038 -1.3357 -1.5555 -0.8937
34604SOL     OW15535   0.080   3.746   2.644 -0.1316 -0.3365 -0.1937
34604SOL    HW115536   0.085   3.742   2.549  0.1701 -0.6677 -0.1678
34604SOL    HW215537   0.154   3.801   2.670  0.3106 -0.9516 -0.1073
34605SOL     OW15538   1.595   3.344   7.728  0.1873  0.2372 -0.5194
34605SOL    HW115539   1.566   3.372   7.815  0.9842  0.9926 -0.4897
34605SOL    HW215540   1.618   3.252   7.739  0.0537  0.2661  0.0145
34606SOL     OW15541   0.632   3.670   6.854  0.0976 -0.8636  0.5522
34606SOL    HW115542   0.579   3.658   6.933 -1.4976 -2.4955 -0.6656
34606SOL    HW215543   0.664   3.582   6.833  2.2767 -0.1096  0.5287
34607SOL     OW15544   0.426   0.194   5.704  0.0435 -0.1993  0.5285
34607SOL    HW115545   0.422   0.260   5.773  0.1746  0.6468 -0.2561
34607SOL    HW215546   0.347   0.141   5.716 -2.1654  2.4749 -1.1381
34608SOL     OW15547   2.641   3.442   1.059  0.1930  0.0271  0.2465
34608SOL    HW115548   2.597   3.368   1.018  1.5194  0.1440 -1.5504
34608SOL    HW215549   2.571   3.495   1.097 -1.0080 -0.8002 -0.7466
34609SOL     OW15550   1.329   6.791  10.651 -0.3025  0.3688  0.1849
34609SOL    HW115551   1.351   6.819  10.563  2.1481 -0.1911  0.5567
34609SOL    HW215552   1.390   6.837  10.708 -1.1158 -0.1068  1.5018
34610SOL     OW15553   2.848   0.274   0.399 -0.0509  0.7058 -0.0630
34610SOL    HW115554   2.887   0.272   0.312  0.4447  1.3252  0.1349
34610SOL    HW215555   2.802   0.358   0.403  0.4563  0.9614  0.4879
34611SOL     OW15556   4.976   2.371   2.153  0.5715 -0.4786 -0.1507
34611SOL    HW115557   4.958   2.367   2.059  0.0835  0.8800 -0.1292
34611SOL    HW215558   4.889   2.376   2.194  0.8293  0.8354  0.2593
34612SOL     OW15559  11.581   1.923  11.148 -0.0532  0.4308  0.7481
34612SOL    HW115560  11.655   1.866  11.128  0.7403  1.3731  0.9092
34612SOL    HW215561  11.544   1.945  11.063  1.1751  1.6391  0.4763
34613SOL     OW15562   0.178   4.995   6.968 -0.6817 -0.0719  0.0624
34613SOL    HW115563   0.099   4.979   6.915 -2.1556  0.2927  2.0097
34613SOL    HW215564   0.156   5.072   7.020  1.1195  0.2316  0.4311
34614SOL     OW15565   0.549   4.591  10.072  0.2204  0.1022 -0.6823
34614SOL    HW115566   0.469   4.629  10.108  0.5635  0.6406 -0.4814
34614SOL    HW215567   0.561   4.510  10.122  0.5291  0.6944  0.2303
34615SOL     OW15568   6.844   6.482   1.970  0.5368 -0.3717  0.6479
34615SOL    HW115569   6.882   6.416   2.028  0.5761 -0.2092  0.8089
34615SOL    HW215570   6.797   6.542   2.029  0.4639 -0.2802  0.4995
34616SOL     OW15571   5.925   9.362   2.840 -0.0059 -0.1074 -0.2225
34616SOL    HW115572   5.907   9.443   2.792 -0.1840 -1.5957 -2.8262
34616SOL    HW215573   5.960   9.392   2.924 -3.4113  2.7211  0.3962
34617SOL     OW15574   6.940  11.895   6.254  0.3127  0.7380  0.1523
34617SOL    HW115575   6.929  11.882   6.349 -1.9776 -1.0880 -0.2819
34617SOL    HW215576   6.851  11.887   6.219  0.9474  2.5413 -2.0632
34618SOL     OW15577   7.124   4.265   0.493  0.2378  0.4304  0.8804
34618SOL    HW115578   7.111   4.205   0.567 -0.7284  1.6126  1.7153
34618SOL    HW215579   7.160   4.344   0.533  1.0552  0.5818 -0.1316
34619SOL     OW15580   2.825  10.055  11.878 -0.3420  0.4152 -0.0782
34619SOL    HW115581   2.833  10.131  11.935 -2.7948 -0.1721  1.1486
34619SOL    HW215582   2.745  10.011  11.906  1.5205 -3.3208  0.0585
34620SOL     OW15583   3.369   2.074   1.506 -0.3585 -0.0628 -0.4621
34620SOL    HW115584   3.449   2.127   1.514 -1.1516  1.3334 -1.3629
34620SOL    HW215585   3.388   2.013   1.434 -0.0274  0.1291 -0.5386
34621SOL     OW15586   1.428   5.935   2.355  0.3618  0.3622 -0.3058
34621SOL    HW115587   1.423   5.947   2.261  0.2772  1.2700 -0.2002
34621SOL    HW215588   1.401   5.845   2.370  1.7948 -0.2719 -1.2715
34622SOL     OW15589  10.617   9.434   2.382 -0.0458 -0.1417 -0.0162
34622SOL    HW115590  10.589   9.473   2.465 -0.2228  0.0393 -0.1584
34622SOL    HW215591  10.564   9.355   2.374 -1.7814  1.0338 -1.0733
34623SOL     OW15592   4.483   7.706   9.119 -0.3602 -0.0924 -0.3995
34623SOL    HW115593   4.497   7.683   9.211 -1.4676  0.4927 -0.0686
34623SOL    HW215594   4.507   7.627   9.071  1.7040  0.0735  0.2468
34624SOL     OW15595   1.670   5.837  10.888 -0.4031 -0.2258 -0.4905
34624SOL    HW115596   1.718   5.859  10.808 -0.3024 -1.2192 -0.7177
34624SOL    HW215597   1.618   5.915  10.907  1.6248  1.0768  0.0326
34625SOL     OW15598   5.822   0.294  11.300 -0.1651  0.1269 -0.0805
34625SOL    HW115599   5.899   0.324  11.252 -0.5999  0.8270 -0.3627
34625SOL    HW215600   5.854   0.275  11.388  0.3730  0.1792 -0.2580
34626SOL     OW15601   7.764   6.884   9.337 -0.3900 -0.1195 -0.4941
34626SOL    HW115602   7.685   6.834   9.358 -2.3337  3.1404  0.7759
34626SOL    HW215603   7.775   6.873   9.242 -1.7466 -1.4269 -0.5394
34627SOL     OW15604   8.759   3.731  11.301 -0.3155  0.3127  0.2525
34627SOL    HW115605   8.689   3.795  11.287 -0.1637  0.8299  1.6472
34627SOL    HW215606   8.839   3.778  11.277 -0.3847 -0.1631 -1.0013
34628SOL     OW15607   2.335   3.575   4.984  0.0459 -0.6596 -0.2648
34628SOL    HW115608   2.298   3.651   4.940 -0.3154  0.1928  1.4006
34628SOL    HW215609   2.308   3.500   4.931 -3.0746  0.0235  0.1940
34629SOL     OW15610   0.530  11.493   9.966 -0.0728 -0.4305  0.0638
34629SOL    HW115611   0.486  11.415   9.933  0.8196 -0.5507 -0.8805
34629SOL    HW215612   0.471  11.527  10.034 -2.4667  0.3483 -2.2466
34630SOL     OW15613   8.424   2.258   8.200 -0.7882 -0.0983 -0.2599
34630SOL    HW115614   8.497   2.260   8.262 -0.3202 -0.3762 -0.7894
34630SOL    HW215615   8.435   2.175   8.153 -3.0158 -1.4822  1.4909
34631SOL     OW15616   8.137   0.086  10.059 -0.0305 -0.3584  0.4465
34631SOL    HW115617   8.060   0.104  10.004  0.8413  2.4911 -0.0261
34631SOL    HW215618   8.109   0.108  10.147  0.1352  0.4109  0.3144
34632SOL     OW15619   2.987   4.697   1.786  0.1834 -0.3100 -0.0412
34632SOL    HW115620   3.000   4.603   1.793  1.5932 -0.0511  1.5279
34632SOL    HW215621   3.057   4.735   1.840  0.0078  1.6508 -1.0902
34633SOL     OW15622  10.043   5.619   3.501 -0.1002 -0.2849 -0.4916
34633SOL    HW115623   9.978   5.597   3.435  1.6154 -0.4916 -2.2065
34633SOL    HW215624  10.117   5.562   3.482  0.1922 -0.9346  2.1469
34634SOL     OW15625   4.930  10.270   8.032  0.3186  0.1417  0.0986
34634SOL    HW115626   4.940  10.312   7.947 -1.1943 -0.3784 -0.3612
34634SOL    HW215627   4.996  10.200   8.032 -0.8202 -1.0020 -1.4094
34635SOL     OW15628  10.973   1.891   5.782  0.1340 -0.4209 -0.0885
34635SOL    HW115629  10.935   1.822   5.727  0.5524 -2.0468  1.5817
34635SOL    HW215630  10.921   1.889   5.862  1.5318 -0.2953  0.8449
34636SOL     OW15631   7.246   6.445   3.494 -0.1765 -0.1588 -0.1071
34636SOL    HW115632   7.311   6.510   3.465 -1.0632  0.6195 -0.4074
34636SOL    HW215633   7.192   6.492   3.557  0.4512 -1.2396  1.2839
34637SOL     OW15634  10.863   0.385   8.084  0.2449  0.4251 -0.7157
34637SOL    HW115635  10.846   0.296   8.113  1.1904  0.4912  0.0791
34637SOL    HW215636  10.854   0.381   7.989  0.7288 -0.6161 -0.7306
34638SOL     OW15637   1.937  11.041   1.640  0.2724  0.2482  0.1214
34638SOL    HW115638   2.027  11.072   1.638  0.0727  0.8278 -0.1077
34638SOL    HW215639   1.920  11.011   1.551  1.4911 -3.6145  1.0117
34639SOL     OW15640   4.600  10.940   2.336  0.1279  0.0839 -0.0487
34639SOL    HW115641   4.555  10.947   2.252 -1.0788 -0.0631  0.5558
34639SOL    HW215642   4.675  10.999   2.329 -0.5633  0.8819 -0.8470
34640SOL     OW15643   7.682   0.753   6.631  0.2676 -0.6475  0.0134
34640SOL    HW115644   7.701   0.830   6.577  0.7598 -0.1731  0.8294
34640SOL    HW215645   7.743   0.761   6.705 -1.2135 -0.6067  1.2733
34641SOL     OW15646   3.923   9.419   9.962  0.4585  0.5354 -0.0334
34641SOL    HW115647   3.956   9.341   9.917 -0.7158  1.0843 -1.9587
34641SOL    HW215648   3.885   9.384  10.043  0.8268 -0.7668 -0.3869
34642SOL     OW15649   2.819   9.181   4.556  0.3430  0.0504 -0.4846
34642SOL    HW115650   2.760   9.250   4.588  0.2421  0.1949 -0.9756
34642SOL    HW215651   2.867   9.153   4.634 -1.7069 -1.3998  0.3346
34643SOL     OW15652   7.983   3.593   5.250  0.7703 -0.4666  0.5397
34643SOL    HW115653   8.050   3.650   5.288 -0.9407  1.4423  0.8647
34643SOL    HW215654   8.012   3.578   5.160  0.1723  2.9145 -0.3381
34644SOL     OW15655   7.015   7.307  10.985  0.1960  0.5805  0.5299
34644SOL    HW115656   7.069   7.322  10.908 -1.8573  0.2289 -1.0376
34644SOL    HW215657   7.076   7.269  11.049  1.5224 -1.2443 -1.6582
34645SOL     OW15658   1.830   5.814   4.656 -0.1016  0.1674  0.1732
34645SOL    HW115659   1.869   5.732   4.626 -0.4089  0.1901 -0.3040
34645SOL    HW215660   1.856   5.878   4.589  0.6888  0.6071  0.8808
34646SOL     OW15661   7.621  11.697   6.545  0.5759  0.5025 -0.1722
34646SOL    HW115662   7.548  11.644   6.514  0.6188  0.5915 -0.4301
34646SOL    HW215663   7.596  11.787   6.524  0.7234  0.5400 -0.1868
34647SOL     OW15664  11.477   0.116   1.302 -0.6781 -0.1378 -0.1234
34647SOL    HW115665  11.455   0.190   1.244 -1.2139 -1.2693 -1.4249
34647SOL    HW215666  11.395   0.097   1.348 -0.9492 -0.8146 -0.8598
34648SOL     OW15667   2.216   6.758   1.217 -0.2906 -0.2786 -0.5464
34648SOL    HW115668   2.220   6.769   1.312 -0.3326 -3.1240 -0.1165
34648SOL    HW215669   2.291   6.702   1.196 -1.9127 -2.1727 -1.6676
34649SOL     OW15670   9.382   1.079   4.997 -0.3476 -0.0722  0.0124
34649SOL    HW115671   9.289   1.087   5.015 -0.3631  3.1735 -0.9892
34649SOL    HW215672   9.425   1.127   5.068  0.4686 -0.2059 -0.3733
34650SOL     OW15673   1.764   1.243   6.623 -0.4236  0.3616  0.3549
34650SOL    HW115674   1.855   1.223   6.602 -0.8910 -1.3043 -0.1587
34650SOL    HW215675   1.755   1.216   6.715 -0.1484  1.5066  0.7397
34651SOL     OW15676   4.944   8.434  11.516  0.2127  0.1902  0.0527
34651SOL    HW115677   4.935   8.339  11.521  1.9429  0.0230  0.5256
34651SOL    HW215678   4.860   8.464  11.481 -2.4327 -1.0221  4.5862
34652SOL     OW15679   0.915   3.674   0.385  0.1869 -0.0196 -0.2197
34652SOL    HW115680   0.917   3.769   0.380 -3.8467  0.2281 -0.8049
34652SOL    HW215681   0.968   3.645   0.311 -0.5318  1.8827 -1.5636
34653SOL     OW15682   9.254   5.374  11.052  0.5480 -0.0922  0.8726
34653SOL    HW115683   9.187   5.442  11.047  1.0110  0.2862 -0.8348
34653SOL    HW215684   9.205   5.293  11.061 -0.0320  0.3828  2.2941
34654SOL     OW15685   7.658   4.686  10.495  0.0120  0.5287  0.3513
34654SOL    HW115686   7.685   4.751  10.430  0.4388  1.3376  1.3009
34654SOL    HW215687   7.739   4.646  10.525 -0.2808 -0.8008 -0.5487
34655SOL     OW15688  10.970   2.865   0.823  0.3353 -0.0731  0.1090
34655SOL    HW115689  10.964   2.859   0.728 -0.7825 -1.3442  0.2313
34655SOL    HW215690  11.007   2.781   0.851  0.7503  0.3261  0.7886
34656SOL     OW15691   5.823   5.979   4.958  0.1949 -0.0172 -0.3648
34656SOL    HW115692   5.775   6.023   4.888  0.3023  0.5656 -0.0786
34656SOL    HW215693   5.863   5.903   4.916  0.9210  0.7625 -1.1233
34657SOL     OW15694  11.220   5.494   4.761  0.2104 -0.2934 -0.1740
34657SOL    HW115695  11.128   5.468   4.761  0.2749 -0.5483  0.7787
34657SOL    HW215696  11.238   5.522   4.850  0.5950  1.5063 -0.7659
34658SOL     OW15697   8.862   8.010   0.286  0.4068 -0.1449  0.4048
34658SOL    HW115698   8.817   7.998   0.202 -0.6259  0.1567  0.8931
34658SOL    HW215699   8.818   8.086   0.326  2.2223  1.0108  0.3448
34659SOL     OW15700   2.789  11.634   3.057  0.1476  0.2122  0.1793
34659SOL    HW115701   2.752  11.575   3.123  1.3532  0.8522  1.4772
34659SOL    HW215702   2.714  11.663   3.006 -0.4257 -3.1653 -1.1971
34660SOL     OW15703  11.351  10.458   9.779 -0.3090 -0.2787 -0.0143
34660SOL    HW115704  11.400  10.382   9.747 -1.2288 -0.3476 -1.3492
34660SOL    HW215705  11.399  10.486   9.856  1.8948 -0.2903 -1.2841
34661SOL     OW15706   1.943   3.463  10.408  0.6285  0.4123  0.1741
34661SOL    HW115707   1.849   3.480  10.409  0.2849 -1.0523 -1.3513
34661SOL    HW215708   1.961   3.428  10.495 -0.8804 -1.9850 -0.3641
34662SOL     OW15709  11.007   5.342   2.691 -0.7395  0.2508 -0.2260
34662SOL    HW115710  10.969   5.366   2.776  0.9852  0.7809  0.4438
34662SOL    HW215711  10.933   5.344   2.630 -2.2308 -1.2229  1.4348
34663SOL     OW15712   3.613   0.018   3.284 -0.5821 -0.5282 -0.0544
34663SOL    HW115713   3.643  -0.072   3.279 -2.0438 -1.0085 -0.7681
34663SOL    HW215714   3.662   0.056   3.357  2.9812 -0.7152 -2.1170
34664SOL     OW15715   8.300   6.225   5.373  0.1791  0.3240  0.1161
34664SOL    HW115716   8.274   6.311   5.407  0.1683  0.4022 -0.0878
34664SOL    HW215717   8.356   6.189   5.441 -1.2328 -0.2651  1.0062
34665SOL     OW15718   4.987   8.384   2.353 -0.0980  0.4412 -0.2597
34665SOL    HW115719   5.072   8.427   2.346 -0.5333  1.2154 -0.8841
34665SOL    HW215720   4.976   8.367   2.447  0.5226  0.7708 -0.1237
34666SOL     OW15721  11.781   5.919   0.793  0.0764  0.6483 -0.3459
34666SOL    HW115722  11.771   5.853   0.724 -0.3020  0.2983  0.0310
34666SOL    HW215723  11.856   5.972   0.766  0.0490  0.3961 -0.9254
34667SOL     OW15724   6.253   3.236   4.937  0.0330  0.1625 -0.2196
34667SOL    HW115725   6.242   3.180   5.013  1.0198  0.3743  0.0995
34667SOL    HW215726   6.244   3.325   4.972  0.2948  0.2531 -0.3803
34668SOL     OW15727   3.981   1.900   3.814  0.5614  0.6040 -0.1251
34668SOL    HW115728   3.957   1.983   3.856  0.7846  0.6456 -0.0799
34668SOL    HW215729   3.942   1.906   3.726  1.0843  1.0165 -0.3371
34669SOL     OW15730   7.620   7.853   5.639  0.2747  0.1390  0.0448
34669SOL    HW115731   7.697   7.908   5.630 -1.3047  2.5717  0.5528
34669SOL    HW215732   7.567   7.873   5.562 -0.4479 -0.5393  0.3492
34670SOL     OW15733  11.022   4.502  10.610  0.2636  0.2763  0.5083
34670SOL    HW115734  10.975   4.493  10.527 -0.5068 -2.7890  1.1530
34670SOL    HW215735  11.056   4.414  10.628  4.2068  1.7705  1.3307
34671SOL     OW15736   1.298   0.423   9.128 -0.1567  0.2659  0.3396
34671SOL    HW115737   1.261   0.340   9.098  1.8752 -0.2163 -1.0186
34671SOL    HW215738   1.332   0.404   9.216 -1.6472  0.3076  0.9552
34672SOL     OW15739   6.351   5.406   3.681  0.3974 -0.4242  0.3286
34672SOL    HW115740   6.272   5.382   3.731  0.8386  0.4181  1.4938
34672SOL    HW215741   6.399   5.324   3.672  0.0207 -0.7049  0.7930
34673SOL     OW15742   0.373   3.882   9.033 -0.5887 -0.0794  0.1363
34673SOL    HW115743   0.428   3.929   9.095  1.1324 -2.5113  0.5944
34673SOL    HW215744   0.298   3.852   9.085 -1.2697  1.3588  0.0271
34674SOL     OW15745   6.971   9.097   2.617 -0.2041 -0.0785 -0.2561
34674SOL    HW115746   6.932   9.159   2.678  0.9793  1.3429 -0.8624
34674SOL    HW215747   6.953   9.134   2.530  1.2690 -0.0850 -0.5942
34675SOL     OW15748   6.092   3.606   4.578 -0.2486 -0.4959 -0.1762
34675SOL    HW115749   6.013   3.610   4.523 -0.6351 -0.3675  0.3780
34675SOL    HW215750   6.072   3.538   4.643  0.8999 -1.9251 -1.2374
34676SOL     OW15751   5.317   1.030   4.569 -0.0329  0.0559  0.0263
34676SOL    HW115752   5.364   1.077   4.637 -1.0518 -0.6370  1.2531
34676SOL    HW215753   5.283   1.099   4.512  0.1257  0.6999  0.6944
34677SOL     OW15754  10.868   1.989   8.812  0.0222  0.0961  0.0622
34677SOL    HW115755  10.884   1.990   8.906  0.6564 -0.1496 -0.0382
34677SOL    HW215756  10.786   1.942   8.802  0.8991 -1.5587  0.3690
34678SOL     OW15757   8.864   4.721   3.256 -0.1333  0.2807  0.0125
34678SOL    HW115758   8.888   4.661   3.326 -0.8344  0.6399  0.5625
34678SOL    HW215759   8.872   4.668   3.176  1.1022 -0.0094  0.2960
34679SOL     OW15760   6.797   0.471   2.088  0.0523 -0.1775 -0.9802
34679SOL    HW115761   6.835   0.516   2.013  2.0086 -0.2690 -0.1165
34679SOL    HW215762   6.792   0.538   2.156 -0.1750 -0.4787 -0.6977
34680SOL     OW15763   0.044   6.242   3.719 -0.6839 -0.2304 -0.4466
34680SOL    HW115764   0.050   6.323   3.668 -1.1778  0.5843  0.7256
34680SOL    HW215765  -0.049   6.220   3.717 -0.6316 -0.4609 -0.3017
34681SOL     OW15766  10.514   2.907  10.369 -0.3964 -0.3775  0.0946
34681SOL    HW115767  10.484   2.869  10.452 -0.8909 -2.1641 -0.8387
34681SOL    HW215768  10.459   2.984  10.357  0.3608  0.5073  1.8842
34682SOL     OW15769   5.910   7.127   7.774  0.3330 -0.0708 -0.3628
34682SOL    HW115770   5.947   7.195   7.831  1.4599  0.8321 -2.0865
34682SOL    HW215771   5.831   7.166   7.738  0.1833 -0.2384 -0.2156
34683SOL     OW15772   6.026  10.034   0.732  0.7155 -0.0879 -0.4782
34683SOL    HW115773   5.969   9.989   0.794  1.5367 -0.5675 -0.0604
34683SOL    HW215774   6.112   9.993   0.743  0.4414 -1.7298 -3.4785
34684SOL     OW15775   2.151   8.484   7.788 -0.4207  0.2768  0.3750
34684SOL    HW115776   2.117   8.467   7.700 -0.8520 -2.1875  0.9420
34684SOL    HW215777   2.191   8.401   7.814  1.5712  1.5795  1.7214
34685SOL     OW15778   9.501   4.282   6.394 -0.6843  0.0083  0.1238
34685SOL    HW115779   9.543   4.366   6.376  0.5970 -0.7418 -0.4557
34685SOL    HW215780   9.431   4.276   6.329 -0.4407  0.3724 -0.1752
34686SOL     OW15781   3.377   9.546   6.496 -0.2433 -0.2778 -0.2255
34686SOL    HW115782   3.317   9.471   6.505 -2.0171  1.2385  1.6569
34686SOL    HW215783   3.445   9.530   6.561 -0.9133 -0.0111  0.5487
34687SOL     OW15784   9.512   2.908   7.302 -0.2363 -0.4533  0.4819
34687SOL    HW115785   9.428   2.894   7.344 -0.2098  0.6600  0.9482
34687SOL    HW215786   9.492   2.917   7.209 -0.6379 -0.2261  0.5891
34688SOL     OW15787   1.362   8.954   2.309 -0.0860  0.0093 -0.1099
34688SOL    HW115788   1.338   8.941   2.217  0.2248  0.2678 -0.2286
34688SOL    HW215789   1.431   8.890   2.325  0.8760  0.9421 -0.4666
34689SOL     OW15790   4.152   5.723   4.183 -0.2834  0.9419  0.2875
34689SOL    HW115791   4.166   5.790   4.250  1.4924 -0.4736  1.4516
34689SOL    HW215792   4.106   5.768   4.112  0.2840  3.2094  1.2754
34690SOL     OW15793   0.418   4.151   3.088 -0.2349  0.0430  0.0958
34690SOL    HW115794   0.501   4.198   3.087 -0.2010 -0.0101  0.6423
34690SOL    HW215795   0.422   4.095   3.165 -0.3626 -0.7107 -0.4332
34691SOL     OW15796   0.324   8.118   6.426 -0.6319 -0.5963  0.1662
34691SOL    HW115797   0.324   8.024   6.446  2.5829 -0.9545 -1.0069
34691SOL    HW215798   0.340   8.160   6.511  1.1583 -1.3646  0.2587
34692SOL     OW15799   4.975   3.289   5.568  0.4507 -0.1338  0.2057
34692SOL    HW115800   5.011   3.229   5.502  1.5228  1.1535 -0.4299
34692SOL    HW215801   4.899   3.329   5.525  0.5197 -0.0712  0.1415
34693SOL     OW15802   6.606  11.746   8.952 -0.1806  0.0246 -0.0467
34693SOL    HW115803   6.572  11.697   8.878  0.8133  0.5173 -0.8487
34693SOL    HW215804   6.638  11.679   9.013 -1.0041 -0.3792 -0.0391
34694SOL     OW15805   2.018   7.856   8.388  0.5002 -0.0278 -0.1479
34694SOL    HW115806   2.009   7.934   8.333 -1.1421  1.3170  1.8653
34694SOL    HW215807   1.967   7.789   8.344 -2.2521  1.5244  0.4895
34695SOL     OW15808   7.308   8.887   2.246  0.4996 -0.0927 -0.0105
34695SOL    HW115809   7.242   8.831   2.287  0.9240  0.0948  0.9443
34695SOL    HW215810   7.298   8.870   2.152 -0.6945 -0.2981  0.1327
34696SOL     OW15811   1.936   2.249   8.130  0.2325  0.2445 -0.3244
34696SOL    HW115812   1.961   2.248   8.038  1.5108  1.9566 -0.0541
34696SOL    HW215813   2.019   2.263   8.177 -0.5278  0.4263  1.0162
34697SOL     OW15814   8.961   5.740   8.833 -0.3970 -0.3601  0.0018
34697SOL    HW115815   8.920   5.720   8.749 -0.9120  0.0651  0.1465
34697SOL    HW215816   9.041   5.687   8.834 -0.3979 -0.3844 -0.7415
34698SOL     OW15817   0.688  10.355   7.864 -0.3864 -0.0454 -0.4362
34698SOL    HW115818   0.722  10.413   7.796 -1.1599  0.5015 -0.3679
34698SOL    HW215819   0.703  10.267   7.830 -1.6325  0.2198 -1.7857
34699SOL     OW15820   4.921   7.922   2.379  0.0582  0.2882  0.0522
34699SOL    HW115821   4.988   7.943   2.313 -0.1460  1.2854  0.1466
34699SOL    HW215822   4.855   7.991   2.368 -0.8528 -0.5561  0.1067
34700SOL     OW15823   9.198   5.748   6.044  0.0911  0.0135 -0.3718
34700SOL    HW115824   9.243   5.681   6.096  0.7806  0.2763 -0.6193
34700SOL    HW215825   9.123   5.703   6.007 -0.6496 -0.0882  1.1700
34701SOL     OW15826   0.636   1.220   9.025  0.2517 -0.0161  0.4433
34701SOL    HW115827   0.571   1.228   8.955 -1.4680 -0.3983  1.9265
34701SOL    HW215828   0.685   1.141   9.003  0.9054  0.8001 -1.2064
34702SOL     OW15829   6.492   6.386  11.247  0.5750  0.2122 -0.0540
34702SOL    HW115830   6.517   6.295  11.264 -0.9928 -0.2163  0.0505
34702SOL    HW215831   6.451   6.384  11.161 -0.1942  0.6645  0.2900
34703SOL     OW15832   4.187   7.245   9.381 -0.1784 -0.9471  0.3778
34703SOL    HW115833   4.236   7.324   9.358 -1.8977 -0.1775 -0.9023
34703SOL    HW215834   4.242   7.173   9.350  0.5578 -0.1650 -0.1835
34704SOL     OW15835   3.423  11.269   4.035  0.2650  0.0133  0.2217
34704SOL    HW115836   3.505  11.285   4.081 -0.6990  1.5728  1.5080
34704SOL    HW215837   3.418  11.173   4.027  1.6120 -0.1668  1.1984
34705SOL     OW15838   6.843   0.540   4.991 -0.1812 -0.1402 -0.5229
34705SOL    HW115839   6.892   0.598   4.934 -1.1913  0.8528 -0.4170
34705SOL    HW215840   6.784   0.597   5.040  1.2663 -0.8274  2.2350
34706SOL     OW15841  10.243  11.540  10.232  0.2190 -0.2446 -0.2630
34706SOL    HW115842  10.217  11.531  10.324  2.0019 -1.6478  0.1549
34706SOL    HW215843  10.196  11.469  10.187 -1.4073  1.0241 -0.6654
34707SOL     OW15844   4.600   0.146   0.920  0.5495  0.4742 -0.7337
34707SOL    HW115845   4.629   0.060   0.952 -0.8863  0.0666 -0.4705
34707SOL    HW215846   4.508   0.152   0.946  0.3566  1.6824 -1.6087
34708SOL     OW15847   3.329   8.426   4.341 -0.1651  0.0939 -0.3776
34708SOL    HW115848   3.248   8.467   4.313 -0.4790 -0.7284 -0.7057
34708SOL    HW215849   3.301   8.351   4.394  0.3145 -1.2338 -1.9249
34709SOL     OW15850   6.107   0.319   8.591 -0.3748  0.0821  0.4398
34709SOL    HW115851   6.033   0.346   8.645 -0.7705 -0.1438  0.0195
34709SOL    HW215852   6.068   0.266   8.521 -0.4719  3.7047 -2.5267
34710SOL     OW15853   2.028   0.230   9.403 -0.5601 -0.9232  0.9845
34710SOL    HW115854   2.007   0.310   9.451 -0.4457  0.2073 -0.7460
34710SOL    HW215855   1.997   0.159   9.459 -1.0260  0.3518  2.3911
34711SOL     OW15856   2.971   1.457   4.360 -0.6806  0.4039  0.3818
34711SOL    HW115857   2.992   1.365   4.344  0.6874  0.5767  1.0208
34711SOL    HW215858   2.976   1.497   4.273 -0.9028 -0.0485  0.1544
34712SOL     OW15859  10.990  11.480   1.471  0.1588 -0.4874  0.5365
34712SOL    HW115860  10.904  11.464   1.510 -0.8314 -0.9257 -1.7183
34712SOL    HW215861  11.037  11.398   1.484 -0.4580 -0.9243  0.0763
34713SOL     OW15862   0.264   9.445   5.878 -0.5589 -0.3399 -0.5716
34713SOL    HW115863   0.311   9.528   5.881 -0.2686 -0.5324  1.3798
34713SOL    HW215864   0.330   9.379   5.901 -1.1773 -0.9087 -0.3850
34714SOL     OW15865   9.036   7.417   8.681  0.2386  0.1342 -0.4238
34714SOL    HW115866   9.032   7.504   8.641 -0.9892 -0.0149 -0.6585
34714SOL    HW215867   8.969   7.366   8.635 -0.2411 -0.4476  0.8585
34715SOL     OW15868   3.545   6.126   9.607 -0.0345 -0.2564  0.4537
34715SOL    HW115869   3.628   6.107   9.650  0.4207 -2.0630 -1.1015
34715SOL    HW215870   3.525   6.047   9.557 -1.8057  0.8013 -0.6090
34716SOL     OW15871   9.883   3.153   3.463  0.4023 -0.5377 -0.0646
34716SOL    HW115872   9.889   3.236   3.510 -1.1301  0.1188 -0.9657
34716SOL    HW215873   9.826   3.171   3.388  0.8222 -2.1645 -0.8235
34717SOL     OW15874   9.460   6.019   5.269  0.5157 -0.1666 -0.3467
34717SOL    HW115875   9.500   5.940   5.305 -0.2735  0.1126  1.2123
34717SOL    HW215876   9.479   6.015   5.175  1.4343 -1.6367 -0.1221
34718SOL     OW15877   4.603   9.902   4.148  0.3585  0.1022 -0.0510
34718SOL    HW115878   4.512   9.884   4.124  0.1208  0.6625  0.3889
34718SOL    HW215879   4.597   9.981   4.202  1.2595  1.0050 -1.2386
34719SOL     OW15880   2.472   5.145  11.135 -0.2550 -0.4828  0.2564
34719SOL    HW115881   2.434   5.083  11.073  1.7678 -0.6347 -0.9162
34719SOL    HW215882   2.468   5.230  11.090 -0.1572 -0.3224  0.5449
34720SOL     OW15883   1.188   8.350   6.596  0.1631  0.1858 -0.2044
34720SOL    HW115884   1.242   8.303   6.660 -0.3809 -0.3792 -0.1549
34720SOL    HW215885   1.164   8.431   6.640  0.8895  0.4003 -0.1895
34721SOL     OW15886   5.985   7.940   9.240 -0.0910  0.0543 -0.4981
34721SOL    HW115887   6.079   7.928   9.231  0.0043 -0.0919  0.5808
34721SOL    HW215888   5.966   7.920   9.331 -0.9703  1.3247 -0.3658
34722SOL     OW15889  10.682   9.498   9.181  0.0964  0.6933 -0.3263
34722SOL    HW115890  10.660   9.531   9.268  1.5341  1.2958 -0.1576
34722SOL    HW215891  10.619   9.428   9.165 -0.1111  0.4849  1.2481
34723SOL     OW15892   9.276   2.907   1.275  0.1871  0.2348 -0.0642
34723SOL    HW115893   9.356   2.933   1.320  1.0744 -2.3709  0.0238
34723SOL    HW215894   9.247   2.986   1.230  1.0942  2.0539  2.3417
34724SOL     OW15895   0.206   4.110  10.888  0.4963  0.6829 -0.3207
34724SOL    HW115896   0.255   4.072  10.961  0.3252 -0.5271 -0.8047
34724SOL    HW215897   0.125   4.058  10.884  0.0373  1.4116 -0.7261
34725SOL     OW15898   7.727   0.509   1.267 -0.7725 -0.0769 -0.0278
34725SOL    HW115899   7.743   0.596   1.305  2.1695 -0.5455  0.0558
34725SOL    HW215900   7.691   0.528   1.180  2.1271  1.4398 -1.0496
34726SOL     OW15901   5.010   8.098   5.305 -0.2210 -0.1082 -0.0902
34726SOL    HW115902   4.975   8.133   5.387 -2.3719  1.3670 -1.5170
34726SOL    HW215903   4.953   8.023   5.284 -0.2363  0.0462 -0.6283
34727SOL     OW15904  10.209  11.100   9.779 -0.3926 -0.0100  0.1462
34727SOL    HW115905  10.278  11.034   9.789 -1.0875 -0.8752 -0.5274
34727SOL    HW215906  10.189  11.099   9.685 -2.0744 -0.5974  0.4639
34728SOL     OW15907   9.131  11.613   0.228 -0.0887 -0.0291 -0.1701
34728SOL    HW115908   9.085  11.628   0.311 -2.7381  1.7272 -1.7928
34728SOL    HW215909   9.204  11.674   0.230 -1.8641  2.2066 -0.2787
34729SOL     OW15910   3.063   5.781  11.676 -0.0923 -0.2182  0.4144
34729SOL    HW115911   3.069   5.867  11.716 -1.9590  0.5858 -0.8735
34729SOL    HW215912   2.977   5.780  11.633  1.0998 -1.5627 -2.1796
34730SOL     OW15913   2.928   9.130   7.833 -0.2727 -0.0644 -0.0526
34730SOL    HW115914   2.926   9.195   7.903  1.5026  0.7103 -0.6556
34730SOL    HW215915   2.912   9.047   7.877 -1.5355  0.6415  0.8900
34731SOL     OW15916   8.911   1.445   1.240 -0.5862 -0.0860 -0.2885
34731SOL    HW115917   8.868   1.512   1.187  0.1113  0.3829 -0.2781
34731SOL    HW215918   8.866   1.364   1.218 -0.6893  0.2011 -1.1590
34732SOL     OW15919   1.718  10.367   8.467 -0.5132  0.2915 -0.1073
34732SOL    HW115920   1.752  10.296   8.412 -1.2585 -0.4088  0.3123
34732SOL    HW215921   1.793  10.422   8.485  0.1238 -0.5105 -0.2686
34733SOL     OW15922   9.332   7.241   9.812 -0.6139 -0.3136 -0.5109
34733SOL    HW115923   9.389   7.268   9.884 -0.5865 -1.0982 -0.2277
34733SOL    HW215924   9.352   7.148   9.799 -0.7186 -0.2135 -1.4472
34734SOL     OW15925  10.749   5.228   2.736  0.0834  0.2178  0.3039
34734SOL    HW115926  10.770   5.281   2.812  0.7230 -0.6976  0.7864
34734SOL    HW215927  10.757   5.138   2.766 -0.5864 -0.1616 -0.6010
34735SOL     OW15928   6.029   8.371   6.579 -0.2019 -0.0244  0.6794
34735SOL    HW115929   6.079   8.317   6.518 -0.6390 -0.2547  0.5229
34735SOL    HW215930   6.048   8.461   6.553  0.1019 -0.1092  0.5990
34736SOL     OW15931   1.842   7.623   2.384 -0.3191 -0.1047 -0.0342
34736SOL    HW115932   1.761   7.656   2.345 -0.7356 -0.2213  0.7155
34736SOL    HW215933   1.816   7.545   2.432  0.6218 -1.4393 -1.6013
34737SOL     OW15934   7.772   7.382   3.119 -0.2643 -0.2915  0.1795
34737SOL    HW115935   7.801   7.404   3.207 -0.0035 -0.6511  0.1844
34737SOL    HW215936   7.683   7.417   3.113 -0.5023 -0.7776  0.7838
34738SOL     OW15937   2.941  11.464   4.055 -0.0758  0.0958  0.1152
34738SOL    HW115938   2.978  11.453   4.143  0.8882  0.7053 -0.2034
34738SOL    HW215939   3.014  11.448   3.996 -0.9651 -1.4621 -0.6407
34739SOL     OW15940  10.803  10.872   4.268 -0.5140 -0.1622  0.1206
34739SOL    HW115941  10.818  10.922   4.348  1.5969  0.7063 -0.7248
34739SOL    HW215942  10.888  10.832   4.249 -1.0420 -0.5711 -1.5254
34740SOL     OW15943  11.902   5.471   6.739 -0.2594  0.5300 -0.2763
34740SOL    HW115944  11.866   5.510   6.660  0.6140  0.7626 -0.5738
34740SOL    HW215945  11.849   5.393   6.754 -2.0779  1.8240  0.3644
34741SOL     OW15946   3.540   3.347   0.461 -0.8292 -0.4463  0.5478
34741SOL    HW115947   3.520   3.277   0.523  0.2862 -0.2682  1.1301
34741SOL    HW215948   3.596   3.408   0.510  2.5206 -1.7277 -1.3758
34742SOL     OW15949   4.769  11.698   4.167 -0.4830 -0.4625  0.1122
34742SOL    HW115950   4.730  11.783   4.190  0.4192 -0.1080  0.3555
34742SOL    HW215951   4.700  11.653   4.117 -0.7897  0.6210 -0.4787
34743SOL     OW15952   5.637   1.184   8.560 -0.0314  0.3190 -0.2047
34743SOL    HW115953   5.606   1.206   8.648  0.1089 -0.4443  0.0458
34743SOL    HW215954   5.664   1.093   8.566  2.6061  0.9819 -0.2751
34744SOL     OW15955   9.462   2.209   3.427 -0.0815 -0.0982 -0.4284
34744SOL    HW115956   9.530   2.232   3.363  0.9287 -1.8276 -0.0600
34744SOL    HW215957   9.402   2.153   3.378 -0.3740  0.1548 -0.3564
34745SOL     OW15958   6.416  10.162  10.613 -0.1473  0.0201 -0.1804
34745SOL    HW115959   6.443  10.077  10.578  1.9667  0.5362  0.0783
34745SOL    HW215960   6.372  10.142  10.696  1.5982 -0.7599  0.5855
34746SOL     OW15961   5.760   7.454   3.483 -0.4479 -0.1284 -0.1940
34746SOL    HW115962   5.760   7.458   3.387 -1.6276 -1.0912 -0.2431
34746SOL    HW215963   5.852   7.468   3.507 -0.1397  0.1235 -1.4623
34747SOL     OW15964   0.248   5.084   4.558  0.1801  0.4313 -0.5085
34747SOL    HW115965   0.215   5.038   4.481  1.1541 -0.6095 -0.3281
34747SOL    HW215966   0.174   5.084   4.620  0.0635 -0.6301 -0.6295
34748SOL     OW15967   0.559   1.667   5.823 -0.9299 -0.5426  0.0725
34748SOL    HW115968   0.619   1.688   5.751 -0.9875  0.7703  0.3929
34748SOL    HW215969   0.523   1.581   5.798 -0.4164 -0.4493 -1.1037
34749SOL     OW15970   7.138   2.260  10.236  0.1096 -0.3437 -0.4333
34749SOL    HW115971   7.117   2.261  10.329 -1.5823  1.1273 -0.7908
34749SOL    HW215972   7.211   2.321  10.227 -1.1982  1.3148 -0.3289
34750SOL     OW15973   8.116   4.074   3.890 -0.2301 -0.1823  0.6296
34750SOL    HW115974   8.201   4.030   3.887  0.2743  0.7776  0.3402
34750SOL    HW215975   8.067   4.036   3.817  0.9324  1.1504 -0.9171
34751SOL     OW15976   1.434   7.517   9.703  0.0082 -0.0384  0.1097
34751SOL    HW115977   1.429   7.479   9.791 -0.6421 -1.7191 -0.6006
34751SOL    HW215978   1.425   7.611   9.716  0.1757 -0.2335  1.8514
34752SOL     OW15979   5.657   5.848   9.205 -0.1765 -0.1265 -0.5618
34752SOL    HW115980   5.639   5.758   9.176 -1.5921 -0.2336  0.5678
34752SOL    HW215981   5.705   5.887   9.132 -2.2017 -0.8723 -2.3933
34753SOL     OW15982  10.684   5.918   2.796  0.2124  0.6694  0.0778
34753SOL    HW115983  10.762   5.912   2.852  0.9328  0.4239 -0.9154
34753SOL    HW215984  10.681   5.834   2.750  0.4867  1.3738 -1.3033
34754SOL     OW15985   1.332   7.014   4.497  0.5570  0.4046 -0.6354
34754SOL    HW115986   1.315   7.012   4.591  0.3897  0.2298 -0.6685
34754SOL    HW215987   1.382   7.094   4.483 -0.2280  0.9164 -0.5363
34755SOL     OW15988   8.972   3.943  11.672  0.2757 -0.0748  0.0648
34755SOL    HW115989   8.951   3.872  11.733 -3.0517  1.3389  0.7631
34755SOL    HW215990   8.999   4.016  11.729  0.5400  0.2054 -0.4165
34756SOL     OW15991   9.009   7.817   4.550  0.1804  0.0447 -0.1973
34756SOL    HW115992   8.952   7.840   4.476  0.4896  0.1622 -0.3989
34756SOL    HW215993   8.948   7.793   4.620 -0.1052 -0.6275 -0.6660
34757SOL     OW15994   3.247   3.128   2.373  0.2444 -0.0009 -0.3283
34757SOL    HW115995   3.187   3.185   2.324  1.8637  1.7020 -0.4817
34757SOL    HW215996   3.297   3.189   2.427  0.2484 -1.5985  1.5675
34758SOL     OW15997   2.155   3.575   2.392  0.3121  0.0866  0.2723
34758SOL    HW115998   2.248   3.571   2.370  0.5499 -1.7731  1.3881
34758SOL    HW215999   2.153   3.587   2.487 -0.6540  3.1269 -0.0260
34759SOL     OW16000   2.171   4.012   4.969 -0.1433  0.1637  0.0162
34759SOL    HW116001   2.218   4.015   5.053 -1.6741  1.9958  0.8709
34759SOL    HW216002   2.085   3.976   4.991 -0.5577  0.6608 -0.7614
34760SOL     OW16003   5.636   5.606   2.746  0.0357  0.2758 -0.0690
34760SOL    HW116004   5.571   5.625   2.679  0.8794  0.4446 -0.8511
34760SOL    HW216005   5.618   5.669   2.816 -0.7098  0.2441 -0.2315
34761SOL     OW16006   0.732   1.358  10.381  0.0993 -0.0658  0.0652
34761SOL    HW116007   0.771   1.441  10.355  1.0665 -0.3228  0.6122
34761SOL    HW216008   0.651   1.382  10.425 -0.3524  0.4954 -1.0257
34762SOL     OW16009   3.914   3.791   1.847 -0.2069  0.5603 -0.3107
34762SOL    HW116010   3.985   3.732   1.871 -0.9616  0.2007  1.1362
34762SOL    HW216011   3.851   3.735   1.802 -0.2926  0.5505 -0.1786
34763SOL     OW16012   3.996   4.069   1.241  0.0219  0.2314 -0.1885
34763SOL    HW116013   4.028   4.150   1.201  1.0865 -0.9918 -1.8905
34763SOL    HW216014   3.901   4.071   1.225 -0.3127  2.0118  1.5048
34764SOL     OW16015   4.221   6.365  10.611 -0.0576 -0.2884 -0.0855
34764SOL    HW116016   4.215   6.270  10.602 -0.4538 -0.2443 -0.3140
34764SOL    HW216017   4.312   6.381  10.639 -0.4027 -0.8324  1.4271
34765SOL     OW16018   4.386   5.624   4.875 -0.3514 -0.1834  0.2159
34765SOL    HW116019   4.297   5.589   4.879  0.0902 -1.3109  0.6769
34765SOL    HW216020   4.422   5.607   4.962 -0.7169  3.1857  1.1319
34766SOL     OW16021   2.548  11.258   5.496  0.1414  0.1483  0.1653
34766SOL    HW116022   2.600  11.244   5.416 -0.9145  0.3386 -0.5745
34766SOL    HW216023   2.613  11.262   5.566  1.1128  0.2093 -0.7095
34767SOL     OW16024   6.394   8.039  10.962 -0.1195 -0.2924  0.4171
34767SOL    HW116025   6.358   8.072  10.880  0.5476  0.0100  0.2385
34767SOL    HW216026   6.345   7.958  10.979 -0.0125 -0.5508 -0.4572
34768SOL     OW16027   3.427  11.226   6.992 -0.9653  0.3638  0.4968
34768SOL    HW116028   3.334  11.246   6.984 -1.0862 -0.4606 -0.3440
34768SOL    HW216029   3.430  11.150   7.051 -0.8384  0.3137  0.4274
34769SOL     OW16030   3.246   5.597   2.524 -0.5598 -0.0497 -0.8829
34769SOL    HW116031   3.236   5.562   2.613  0.0373  1.0212 -0.3715
34769SOL    HW216032   3.289   5.682   2.537 -1.9423  0.8671 -2.0718
34770SOL     OW16033   0.463   3.098   5.468 -0.6481 -0.3706  0.0280
34770SOL    HW116034   0.554   3.123   5.453 -0.5743 -1.6228 -1.7993
34770SOL    HW216035   0.433   3.159   5.536  1.2482  0.6992 -0.0297
34771SOL     OW16036   9.224   6.752   1.282  0.1133 -0.1274  0.1513
34771SOL    HW116037   9.253   6.796   1.362 -0.5791 -1.0006  0.8967
34771SOL    HW216038   9.135   6.784   1.268  0.4261  0.4419 -0.5892
34772SOL     OW16039   5.845   2.122   6.636 -0.0531 -0.3918  0.4491
34772SOL    HW116040   5.861   2.148   6.727  1.8860  0.0058  0.0426
34772SOL    HW216041   5.885   2.035   6.629 -0.0477 -0.3528 -0.0541
34773SOL     OW16042   2.682   2.175   1.430 -0.2596 -0.2486  0.0952
34773SOL    HW116043   2.619   2.122   1.380 -0.6441  1.3329 -1.1809
34773SOL    HW216044   2.634   2.199   1.510 -1.2801  0.8696 -0.8270
34774SOL     OW16045   6.040   0.772   7.503  0.0910  0.3741 -0.7179
34774SOL    HW116046   6.044   0.747   7.595 -0.1057  2.1757 -0.1884
34774SOL    HW216047   5.952   0.807   7.491 -0.2869 -0.8953 -1.9053
34775SOL     OW16048   8.125   3.698   4.604 -0.1621  0.7979 -0.0954
34775SOL    HW116049   8.217   3.692   4.580  0.7161  1.5007  2.7255
34775SOL    HW216050   8.098   3.607   4.618  1.3363  0.6810  2.8591
34776SOL     OW16051   8.801   4.856  11.785  0.0013  0.1415  0.3185
34776SOL    HW116052   8.884   4.901  11.803  0.5587 -0.8984  0.4335
34776SOL    HW216053   8.740   4.892  11.849  0.5090  0.5250  0.5986
34777SOL     OW16054  11.006   3.308  11.369  0.0306  0.3323 -0.0266
34777SOL    HW116055  11.004   3.261  11.452 -0.9587  1.1962  0.4589
34777SOL    HW216056  10.958   3.252  11.309 -2.5530  1.3459  0.9394
34778SOL     OW16057   0.809   4.876   3.770  0.0171  0.0263 -0.1994
34778SOL    HW116058   0.807   4.798   3.825  2.9436  0.9827  1.4713
34778SOL    HW216059   0.857   4.849   3.691 -2.3085 -0.7688 -1.4351
34779SOL     OW16060   7.578  11.108  11.871  0.0276 -0.4861 -0.3429
34779SOL    HW116061   7.666  11.105  11.835 -1.0101 -3.8095 -3.1449
34779SOL    HW216062   7.569  11.027  11.920 -0.8876  0.7863  1.7297
34780SOL     OW16063   4.115   7.665   1.758 -0.2196 -0.4890 -0.1965
34780SOL    HW116064   4.027   7.666   1.721 -0.8324  1.1278  1.1576
34780SOL    HW216065   4.120   7.747   1.808  2.8021  0.5527 -1.9455
34781SOL     OW16066  10.613   3.603   0.671  0.3404 -0.3991 -0.3469
34781SOL    HW116067  10.616   3.563   0.758  0.5400 -0.7568 -0.5161
34781SOL    HW216068  10.662   3.685   0.680 -0.7085  0.1794  0.1877
34782SOL     OW16069   7.189   0.844  11.201  0.4425 -0.4482 -0.4502
34782SOL    HW116070   7.173   0.760  11.158  0.1604 -1.9875  2.4146
34782SOL    HW216071   7.207   0.905  11.130 -0.0859 -2.7583 -2.6862
34783SOL     OW16072   2.384   6.193   3.923  0.4170  0.0127 -0.6713
34783SOL    HW116073   2.460   6.180   3.867  0.2342  0.9138 -1.1492
34783SOL    HW216074   2.310   6.164   3.870  0.3624 -0.3024 -0.4268
34784SOL     OW16075   4.233   6.316   6.082  0.2084 -0.3305  0.1698
34784SOL    HW116076   4.225   6.350   5.993  1.3014 -0.0978  0.1497
34784SOL    HW216077   4.255   6.224   6.071 -0.5339 -0.5263  0.2202
34785SOL     OW16078   8.232  10.335   6.667 -0.3469 -0.0487 -0.0089
34785SOL    HW116079   8.282  10.314   6.587  3.3208  1.7678  1.5581
34785SOL    HW216080   8.214  10.428   6.659 -1.4442 -0.2069  0.5641
34786SOL     OW16081   9.566  10.914   3.761 -0.2270 -0.2468  0.1750
34786SOL    HW116082   9.631  10.847   3.784  0.2818 -0.0925 -0.7359
34786SOL    HW216083   9.580  10.929   3.667 -2.6265 -1.3631 -0.4524
34787SOL     OW16084   4.447   1.888   9.922  0.0970  0.3281  0.1231
34787SOL    HW116085   4.435   1.858   9.832 -1.7925 -0.2263  0.5164
34787SOL    HW216086   4.395   1.968   9.928 -0.2276  0.0711  0.8559
34788SOL     OW16087   3.897   3.996   8.069  0.1223 -0.2013  0.6699
34788SOL    HW116088   3.906   3.929   8.000 -0.7879 -1.2266  1.5121
34788SOL    HW216089   3.804   4.016   8.070  0.4567  1.5588  0.0360
34789SOL     OW16090   7.054   8.921   4.550  0.3312  0.1192 -0.1274
34789SOL    HW116091   7.012   8.914   4.465  0.8018 -0.3652 -0.3194
34789SOL    HW216092   6.981   8.928   4.612 -0.0126  1.6203 -0.6532
34790SOL     OW16093   6.781   0.251   6.318  0.0779 -0.1651 -0.5718
34790SOL    HW116094   6.793   0.268   6.224  0.1654  1.9090 -0.2459
34790SOL    HW216095   6.687   0.249   6.331  0.0650 -0.9350 -0.7740
34791SOL     OW16096   3.988   7.388   5.227 -0.0590 -0.4168 -0.1210
34791SOL    HW116097   3.912   7.439   5.254  1.2031  1.9345 -0.7191
34791SOL    HW216098   3.966   7.357   5.139 -0.4742 -0.0956 -0.1342
34792SOL     OW16099   4.009   0.229   0.135 -0.0073 -0.2301  0.0645
34792SOL    HW116100   4.069   0.156   0.145  1.2698  0.8773  0.8759
34792SOL    HW216101   4.029   0.287   0.209 -1.7413  0.4164  0.0744
34793SOL     OW16102   4.314   5.749   0.562  0.1382 -0.0614 -0.2793
34793SOL    HW116103   4.377   5.743   0.634 -0.6806  0.0908  0.4617
34793SOL    HW216104   4.331   5.835   0.524  0.8439 -0.3028 -0.5401
34794SOL     OW16105   8.205   6.726   5.572  0.2195  0.5077  0.0482
34794SOL    HW116106   8.118   6.700   5.542 -0.1400  0.8151  0.8012
34794SOL    HW216107   8.235   6.789   5.507  0.1138 -0.0083 -0.5086
34795SOL     OW16108   1.396   0.237   8.145  0.4242 -0.3685  0.0662
34795SOL    HW116109   1.487   0.221   8.170  1.7857  0.7011 -3.5839
34795SOL    HW216110   1.389   0.202   8.056 -2.9666 -0.9369  0.4312
34796SOL     OW16111   7.595   5.241   3.354 -0.5324 -1.0368  0.4476
34796SOL    HW116112   7.623   5.151   3.373  1.2854 -0.1798  2.3071
34796SOL    HW216113   7.624   5.291   3.431  1.0976  1.6464 -1.7481
34797SOL     OW16114   0.281   9.512   6.692  0.6787 -0.3774 -0.2682
34797SOL    HW116115   0.226   9.584   6.660 -0.1075 -1.6455 -1.9379
34797SOL    HW216116   0.241   9.485   6.774  0.3558  0.3958 -0.1613
34798SOL     OW16117   6.915  10.137   9.808  0.0017 -0.2503 -0.0175
34798SOL    HW116118   6.919  10.209   9.746  0.1306 -0.7246 -0.5666
34798SOL    HW216119   6.972  10.164   9.880  3.4865 -1.5222 -2.0670
34799SOL     OW16120   9.080   1.617   3.044 -0.5238  0.4356  0.4825
34799SOL    HW116121   9.004   1.585   2.995 -0.2404 -0.9554  0.9038
34799SOL    HW216122   9.155   1.597   2.988 -0.4236  1.6278  0.1554
34800SOL     OW16123   9.966   8.794   6.372 -0.3053  0.6109  0.1686
34800SOL    HW116124   9.952   8.888   6.369  0.3310  0.7138  0.2519
34800SOL    HW216125  10.040   8.779   6.313 -1.2407 -0.0074 -0.8768
34801SOL     OW16126   5.982   5.999   7.916 -0.3114  0.1507 -0.0254
34801SOL    HW116127   5.999   5.961   8.002  0.5589  0.8745  0.1364
34801SOL    HW216128   6.060   5.979   7.864 -0.9735 -0.5869 -0.7767
34802SOL     OW16129   1.647   4.052   5.443 -0.0346 -0.5524  0.0455
34802SOL    HW116130   1.735   4.026   5.468  0.7590  1.3426 -0.5999
34802SOL    HW216131   1.590   4.015   5.511  1.5632  0.6870  2.1799
34803SOL     OW16132   8.604  10.247   2.271 -0.1617  0.1795 -0.0216
34803SOL    HW116133   8.682  10.295   2.243 -0.9952  2.1931  0.9298
34803SOL    HW216134   8.595  10.267   2.364 -1.5269 -0.4307  0.0016
34804SOL     OW16135   5.665  10.527   5.851  0.4353  0.2712 -0.2164
34804SOL    HW116136   5.582  10.573   5.851 -0.0808 -0.6320 -0.6841
34804SOL    HW216137   5.644  10.439   5.819  1.8292  0.4854 -1.8609
34805SOL     OW16138  10.730   2.873   5.104 -0.0853  0.2077  0.0096
34805SOL    HW116139  10.826   2.874   5.103  0.0784 -2.5451 -2.6578
34805SOL    HW216140  10.707   2.813   5.175  0.2492 -0.0784 -0.1175
34806SOL     OW16141   5.389   9.275   6.051 -0.1063 -0.0955  0.1964
34806SOL    HW116142   5.434   9.192   6.064  0.7665  0.4490  0.7781
34806SOL    HW216143   5.298   9.251   6.039  0.2403 -1.1904 -0.4205
34807SOL     OW16144  10.972   5.983   8.310  0.6048  0.3917 -0.3850
34807SOL    HW116145  11.019   5.948   8.234 -0.2668  1.4181 -1.4180
34807SOL    HW216146  10.880   5.972   8.288  0.3253 -0.2028  0.9726
34808SOL     OW16147   2.145  11.881   5.785  0.3480 -0.5176 -0.3865
34808SOL    HW116148   2.193  11.918   5.858 -0.0936 -1.4415  0.4000
34808SOL    HW216149   2.055  11.912   5.797  0.4435  0.0344 -1.0382
34809SOL     OW16150   2.580   8.411  11.183 -0.0673  0.0516  0.3500
34809SOL    HW116151   2.502   8.422  11.129  0.6705 -0.4525 -0.8519
34809SOL    HW216152   2.602   8.318  11.174  1.0871  0.3388  0.0626
34810SOL     OW16153   9.654   4.105   1.948  0.2987 -0.3063 -0.4391
34810SOL    HW116154   9.724   4.094   2.012  0.8768  0.8295 -0.8483
34810SOL    HW216155   9.621   4.194   1.962  1.6172  0.6476 -2.8045
34811SOL     OW16156   3.411   3.996   8.970 -0.3798 -0.0922  0.2720
34811SOL    HW116157   3.418   3.929   8.901 -0.6152 -0.3445  0.4897
34811SOL    HW216158   3.473   3.967   9.037  0.7017  0.7680 -0.3252
34812SOL     OW16159   5.813   2.253   4.896 -0.1902 -0.2818  0.0346
34812SOL    HW116160   5.898   2.216   4.871 -0.3914 -2.6696  2.4812
34812SOL    HW216161   5.750   2.182   4.881 -1.3681  0.6163  0.5637
34813SOL     OW16162   1.246   1.821   9.419 -0.1606  0.3550 -0.4108
34813SOL    HW116163   1.153   1.839   9.433  0.1132  1.6703 -0.1217
34813SOL    HW216164   1.259   1.838   9.325 -0.3388 -0.4510 -0.5818
34814SOL     OW16165   6.254   3.106   5.176  0.2990 -0.7924  0.2275
34814SOL    HW116166   6.216   3.190   5.204 -2.1991 -0.9962 -2.1071
34814SOL    HW216167   6.178   3.050   5.160  1.6317 -1.9704 -2.6770
34815SOL     OW16168   9.681   8.494  10.937 -0.0543 -0.5559 -0.4910
34815SOL    HW116169   9.701   8.457  10.851 -0.6285  2.0661 -1.8809
34815SOL    HW216170   9.585   8.495  10.940 -0.0694  0.8513 -0.5917
34816SOL     OW16171   3.380  10.366  10.465 -0.0208  0.6795  0.2168
34816SOL    HW116172   3.378  10.273  10.487  0.0342  0.4241 -0.7829
34816SOL    HW216173   3.343  10.410  10.541 -0.7333 -0.2231  0.4096
34817SOL     OW16174   6.566   2.304   5.261  0.2000 -0.1261 -0.2758
34817SOL    HW116175   6.530   2.362   5.195  2.0550  0.2849 -0.9881
34817SOL    HW216176   6.642   2.351   5.295  0.8680 -1.5028  0.2046
34818SOL     OW16177   9.270   5.448   5.571  0.1521 -0.0864  0.1278
34818SOL    HW116178   9.353   5.474   5.609  0.0949  1.2769 -0.6043
34818SOL    HW216179   9.283   5.455   5.477 -1.3233  2.0940  0.0069
34819SOL     OW16180   1.096   5.635   1.832  0.0708 -0.3358 -0.1550
34819SOL    HW116181   1.100   5.580   1.753  0.0907 -2.1422  1.0271
34819SOL    HW216182   1.185   5.666   1.844 -0.0280  0.3362 -1.0902
34820SOL     OW16183  10.393  11.801  11.498 -0.1431 -0.3093 -0.7018
34820SOL    HW116184  10.419  11.732  11.437  1.0278 -1.4721  1.0387
34820SOL    HW216185  10.451  11.874  11.479  1.4763 -1.3127  0.1745
34821SOL     OW16186   4.943   0.770   8.852 -0.5568 -0.1528 -0.4392
34821SOL    HW116187   4.972   0.680   8.864 -1.0892 -0.3470 -0.5758
34821SOL    HW216188   5.024   0.821   8.843 -0.2648 -0.8164 -1.8421
34822SOL     OW16189   4.903   1.821   5.764  0.1048 -0.3923 -0.5698
34822SOL    HW116190   4.857   1.905   5.772  2.1267  0.8991 -1.7234
34822SOL    HW216191   4.933   1.801   5.852 -0.5630 -0.0331 -0.2527
34823SOL     OW16192   4.840   8.794   7.628  0.1949  0.3619 -0.0825
34823SOL    HW116193   4.923   8.773   7.670  0.6763  1.9541 -0.1745
34823SOL    HW216194   4.774   8.752   7.684  0.9623  0.5286  0.9904
34824SOL     OW16195   6.741   9.867   8.143 -0.5359 -0.1166 -0.5931
34824SOL    HW116196   6.709   9.780   8.120 -0.6550 -0.0959 -0.5084
34824SOL    HW216197   6.812   9.884   8.082  1.4371 -1.4688  1.1798
34825SOL     OW16198   0.900   4.784   2.677 -0.1038  0.7273  0.2477
34825SOL    HW116199   0.871   4.814   2.591 -0.8237  0.0711  0.2496
34825SOL    HW216200   0.842   4.712   2.698  0.5914  0.3500  0.9325
34826SOL     OW16201   9.860   4.757   4.023 -0.7450 -0.3090  0.4664
34826SOL    HW116202   9.923   4.750   3.951 -3.5247 -0.2656 -2.1449
34826SOL    HW216203   9.845   4.667   4.050  0.0903 -0.3489  0.8319
34827SOL     OW16204   6.368   6.044   8.747 -0.0125  0.4565  0.0014
34827SOL    HW116205   6.398   6.102   8.677 -1.0420  0.9088 -0.0804
34827SOL    HW216206   6.309   5.983   8.704 -0.1768  0.3532  0.3709
34828SOL     OW16207   9.662   5.961   1.418  0.7314 -0.3996 -0.5207
34828SOL    HW116208   9.733   5.990   1.476  1.7716 -1.5093 -1.1757
34828SOL    HW216209   9.624   5.886   1.462 -0.2807  0.3855 -0.0206
34829SOL     OW16210   3.687   1.887   8.540 -0.2695  0.0821 -0.4304
34829SOL    HW116211   3.740   1.945   8.596 -1.9115  0.6941  0.5618
34829SOL    HW216212   3.739   1.807   8.533  0.7100  0.5911  0.6336
34830SOL     OW16213   9.906   3.140  11.275  0.1045 -0.8887  0.7499
34830SOL    HW116214   9.871   3.092  11.350 -1.4594  0.4448  0.9172
34830SOL    HW216215   9.867   3.226  11.280  0.5739 -0.5029 -1.1788
34831SOL     OW16216   5.171   8.496   3.802 -0.1689 -0.5120  0.9392
34831SOL    HW116217   5.245   8.462   3.852 -0.5974  0.7778  2.5391
34831SOL    HW216218   5.197   8.585   3.779  0.3483 -1.3211 -1.9273
34832SOL     OW16219   3.354   9.434   0.387 -0.6710 -0.3107 -0.1060
34832SOL    HW116220   3.372   9.392   0.303 -0.1152 -2.1566  0.8710
34832SOL    HW216221   3.269   9.476   0.376 -0.3306  0.0050 -1.7570
34833SOL     OW16222   4.271   5.861   9.995 -0.6085 -0.5417  0.5111
34833SOL    HW116223   4.352   5.907  10.013 -1.7248  1.6634  0.1747
34833SOL    HW216224   4.247   5.887   9.906 -0.9081 -2.4102 -0.0005
34834SOL     OW16225   3.967  10.718   4.829 -0.1899 -0.1120 -0.1161
34834SOL    HW116226   3.976  10.759   4.743 -2.5192 -0.0158 -0.4025
34834SOL    HW216227   3.938  10.629   4.809  1.8685 -0.9972  0.5651
34835SOL     OW16228   5.914  10.692   0.025  0.0163  0.3165  0.3197
34835SOL    HW116229   5.832  10.646   0.045  1.3365 -1.9641  0.8953
34835SOL    HW216230   5.901  10.728  -0.062 -2.1373  1.3889  1.0128
34836SOL     OW16231  10.647   3.471  11.460  0.3354 -0.3365 -0.1333
34836SOL    HW116232  10.722   3.527  11.481  1.1525 -1.5854  0.3685
34836SOL    HW216233  10.621   3.432  11.544 -1.9211  1.2580  0.0187
34837SOL     OW16234   8.746   1.892   2.231 -0.2263  0.4436 -0.3760
34837SOL    HW116235   8.779   1.936   2.152 -1.1709  0.4764 -0.7619
34837SOL    HW216236   8.659   1.862   2.207 -0.8855  1.2151  0.9394
34838SOL     OW16237   0.394   3.021   9.168 -0.0727 -0.3230  0.0649
34838SOL    HW116238   0.356   3.039   9.255 -0.1495 -0.2657  0.0191
34838SOL    HW216239   0.322   2.985   9.117 -0.0331 -0.3344  0.0172
34839SOL     OW16240   7.862   6.358   4.424  0.2564 -0.2122  0.0166
34839SOL    HW116241   7.891   6.448   4.409 -0.3103  0.0489  0.4632
34839SOL    HW216242   7.774   6.355   4.388 -0.2933 -0.1748  1.2900
34840SOL     OW16243   9.814   4.714   1.423  0.5221  0.2359  0.0608
34840SOL    HW116244   9.750   4.674   1.482 -0.5818  1.3730 -0.3313
34840SOL    HW216245   9.888   4.736   1.480 -0.3479  0.9088  0.9665
34841SOL     OW16246   5.952   4.186  10.550 -0.6610 -0.0629  0.2097
34841SOL    HW116247   6.004   4.213  10.626 -0.3181 -0.1369  0.0036
34841SOL    HW216248   5.995   4.228  10.476 -1.0425  0.0724  0.0666
34842SOL     OW16249   4.749   5.542   1.674 -0.2434 -0.0880 -0.6591
34842SOL    HW116250   4.741   5.498   1.758 -0.7228 -0.4916 -0.9136
34842SOL    HW216251   4.680   5.608   1.674  1.8574  2.2839  0.6669
34843SOL     OW16252   5.771   5.479   3.141 -0.0691  0.3282 -0.4464
34843SOL    HW116253   5.683   5.495   3.176  0.1068 -1.3249  0.8780
34843SOL    HW216254   5.829   5.533   3.195 -0.1805  1.0217 -0.9904
34844SOL     OW16255   7.924  10.245   1.000  0.1503  0.3824  0.2742
34844SOL    HW116256   7.907  10.181   0.931  0.3896  0.7246 -0.1083
34844SOL    HW216257   7.871  10.216   1.074 -1.0057  0.6579 -0.4269
34845SOL     OW16258   5.629   1.907   4.202  0.1609  0.1928  0.1227
34845SOL    HW116259   5.695   1.975   4.187  0.4500 -0.0564  0.2774
34845SOL    HW216260   5.546   1.949   4.176  0.7377 -0.5629 -3.4078
34846SOL     OW16261   8.580   3.848   4.687 -0.1770 -0.2781 -0.4996
34846SOL    HW116262   8.651   3.785   4.697 -1.2553 -1.9991 -2.7878
34846SOL    HW216263   8.617   3.917   4.632 -0.0260 -0.7836 -1.0441
34847SOL     OW16264   0.664   0.145   3.180 -0.6577  0.0259  0.2342
34847SOL    HW116265   0.717   0.066   3.178  1.7122  1.4950  0.6567
34847SOL    HW216266   0.637   0.154   3.271 -2.5682 -1.2208 -0.1448
34848SOL     OW16267   3.910   4.146   3.913  0.3591  0.6010  0.2000
34848SOL    HW116268   3.851   4.217   3.938  1.2335  1.0477  1.0186
34848SOL    HW216269   3.937   4.107   3.996 -0.0201 -0.6393 -0.2303
34849SOL     OW16270   9.343   3.873   8.612  0.2386 -0.2265  0.1416
34849SOL    HW116271   9.329   3.815   8.686  1.9585 -0.4076  0.3721
34849SOL    HW216272   9.356   3.960   8.651 -1.6334  0.2401 -0.1604
34850SOL     OW16273   7.417   4.834   2.623 -0.5534 -0.1407 -0.4179
34850SOL    HW116274   7.359   4.907   2.644 -1.4106 -1.0582  0.5203
34850SOL    HW216275   7.399   4.814   2.531 -0.8694  0.3347 -0.4601
34851SOL     OW16276   9.567   3.030   3.111 -0.0420  0.3905 -0.5670
34851SOL    HW116277   9.592   3.113   3.070  0.8317  0.5050  0.1521
34851SOL    HW216278   9.651   2.987   3.130 -0.4775 -1.4220 -2.4016
34852SOL     OW16279   5.522  10.410   0.086 -0.1549 -0.0684  0.2772
34852SOL    HW116280   5.454  10.434   0.148  0.0794 -3.3490  2.0333
34852SOL    HW216281   5.494  10.326   0.050  1.0816  0.4115 -2.0308
34853SOL     OW16282   9.117   8.352   7.936 -0.2463 -0.3119  0.0819
34853SOL    HW116283   9.088   8.397   7.856 -0.3728 -2.2022 -1.0058
34853SOL    HW216284   9.039   8.350   7.992 -0.0394  1.4226  0.4929
34854SOL     OW16285   2.036   3.048   0.952 -0.2423 -0.5456 -0.4534
34854SOL    HW116286   1.984   3.058   1.032  0.4544 -2.6308  0.3360
34854SOL    HW216287   1.971   3.045   0.882 -1.0008 -0.6303  0.2288
34855SOL     OW16288  10.449   2.458   5.974  0.0041  0.4605  0.5444
34855SOL    HW116289  10.428   2.392   5.908 -0.8674 -0.9221  2.1217
34855SOL    HW216290  10.532   2.430   6.011  1.2384  2.0273 -0.8547
34856SOL     OW16291   6.430   9.322   8.439  0.4481 -0.7024  0.2076
34856SOL    HW116292   6.444   9.336   8.533  1.1186 -1.3163  0.2076
34856SOL    HW216293   6.422   9.410   8.402  2.5788 -0.3354  0.4878
34857SOL     OW16294  11.012   1.545  10.326 -0.2449 -0.4832  0.2174
34857SOL    HW116295  11.005   1.527  10.420  1.1203  2.9260  1.1070
34857SOL    HW216296  11.081   1.486  10.296 -0.6781 -1.6037  1.3298
34858SOL     OW16297   4.198   4.266   5.831 -0.4339  0.1364 -0.0850
34858SOL    HW116298   4.117   4.314   5.816 -0.1421  1.2929  1.7650
34858SOL    HW216299   4.200   4.250   5.925  1.1373 -0.5093 -0.1974
34859SOL     OW16300   1.181   2.513   1.285 -0.1185  0.1865  0.1258
34859SOL    HW116301   1.201   2.459   1.361 -1.2809 -0.6390 -0.1336
34859SOL    HW216302   1.086   2.509   1.276 -0.2530  2.3116  0.0957
34860SOL     OW16303  11.380   2.637   9.621  0.4964  0.2010  0.5966
34860SOL    HW116304  11.448   2.698   9.650  2.1301 -1.1453 -0.1695
34860SOL    HW216305  11.409   2.552   9.655 -0.1451 -0.5955 -0.7738
34861SOL     OW16306   5.479   2.262   0.992 -0.0158  0.1441  0.0499
34861SOL    HW116307   5.436   2.325   1.050  0.1398  0.3016 -0.0045
34861SOL    HW216308   5.572   2.270   1.013  0.1788  1.0979 -1.0833
34862SOL     OW16309   8.177   4.665  11.912  0.0331  0.5832 -0.3113
34862SOL    HW116310   8.223   4.608  11.973  0.6930  0.3691 -1.0024
34862SOL    HW216311   8.164   4.611  11.834 -1.9386  0.4282  0.0750
34863SOL     OW16312   6.209   3.460   0.761 -0.2789 -0.1836 -0.4519
34863SOL    HW116313   6.140   3.394   0.771  0.7009 -1.0214  1.4451
34863SOL    HW216314   6.290   3.409   0.757  0.4736  0.8635  0.6282
34864SOL     OW16315   9.491   4.751   3.297  0.1258 -0.1100 -0.2542
34864SOL    HW116316   9.568   4.709   3.336  0.1572 -0.0593 -0.2617
34864SOL    HW216317   9.499   4.733   3.203 -0.9727 -1.9322 -0.0501
34865SOL     OW16318   7.994   0.739   7.535  0.0141  0.5730 -0.6279
34865SOL    HW116319   8.007   0.676   7.607  1.1238  0.9731 -0.4649
34865SOL    HW216320   8.083   0.764   7.508 -0.3585  0.1309 -2.4226
34866SOL     OW16321   0.546   4.740   2.068  0.0618  0.1273 -0.8374
34866SOL    HW116322   0.502   4.677   2.012 -2.0530  0.2426  0.5952
34866SOL    HW216323   0.477   4.798   2.099  0.6969 -1.0371  3.3561
34867SOL     OW16324   0.524   0.988  10.155 -0.0938  0.0452 -0.4666
34867SOL    HW116325   0.548   0.979  10.062 -2.2603  0.3837 -1.1308
34867SOL    HW216326   0.461   0.918  10.169  0.1850  0.0311  0.7627
34868SOL     OW16327   4.779   6.576   9.686  0.2142 -1.0863  0.3630
34868SOL    HW116328   4.776   6.585   9.591 -0.4468 -0.0778  0.4673
34868SOL    HW216329   4.808   6.662   9.718 -0.0558 -1.2559  1.0972
34869SOL     OW16330   9.779   6.248   1.453 -0.7837 -0.3129 -0.5029
34869SOL    HW116331   9.698   6.274   1.497  1.4452  1.9197  2.7619
34869SOL    HW216332   9.830   6.202   1.520  1.1997 -0.4545 -1.9870
34870SOL     OW16333   2.130   1.830   9.086  0.1473  0.1783  0.4138
34870SOL    HW116334   2.069   1.788   9.147  1.6183 -2.1414  0.4128
34870SOL    HW216335   2.200   1.863   9.142  1.2541 -1.5132  0.0910
34871SOL     OW16336   6.400   1.860   7.367 -0.4088  0.1012 -0.3251
34871SOL    HW116337   6.394   1.946   7.410  0.5784 -0.2233  0.5067
34871SOL    HW216338   6.400   1.797   7.439 -0.7409 -0.5818 -0.9114
34872SOL     OW16339   6.718   2.408   4.136 -0.1151 -0.3245  0.2951
34872SOL    HW116340   6.769   2.423   4.056 -0.0105 -1.9471  0.0265
34872SOL    HW216341   6.648   2.473   4.132  0.5005  0.3154 -0.5751
34873SOL     OW16342   4.025  10.710   7.933 -1.1374 -0.1442  0.1214
34873SOL    HW116343   4.115  10.707   7.902 -1.0952  0.9522  0.1245
34873SOL    HW216344   3.985  10.783   7.886 -2.3734 -1.3284 -0.7752
34874SOL     OW16345   4.808   9.750   3.502  0.4360 -0.1457 -0.1269
34874SOL    HW116346   4.810   9.795   3.587  0.8260  0.0287 -0.2273
34874SOL    HW216347   4.824   9.819   3.438 -2.2994  0.2162 -0.5652
34875SOL     OW16348   2.300   8.787   5.298  0.3190 -0.2597 -0.6238
34875SOL    HW116349   2.376   8.781   5.356 -0.3501  1.0878  0.4553
34875SOL    HW216350   2.225   8.766   5.354 -0.3705  1.3157 -0.8794
34876SOL     OW16351   7.304  10.334   8.860 -0.3733  0.1009 -0.0564
34876SOL    HW116352   7.322  10.240   8.868  0.1678  0.3215  1.9716
34876SOL    HW216353   7.382  10.370   8.818 -0.9023 -0.4195 -1.5572
34877SOL     OW16354   6.367  11.123   5.884 -0.1826  0.2171  0.1442
34877SOL    HW116355   6.387  11.049   5.941 -0.3704  0.0908  0.0460
34877SOL    HW216356   6.366  11.086   5.795  1.0587  0.5919 -0.0487
34878SOL     OW16357  10.717   4.031   7.326 -0.2438  0.0625 -0.0060
34878SOL    HW116358  10.714   4.035   7.230  1.0336 -1.4223 -0.1414
34878SOL    HW216359  10.720   3.937   7.346 -1.8901  0.2883  1.5674
34879SOL     OW16360   5.922   7.768   5.265 -0.3706  0.1564 -0.5757
34879SOL    HW116361   5.921   7.755   5.360 -0.7225 -1.3378 -0.7561
34879SOL    HW216362   6.014   7.759   5.241 -0.3037  0.3502 -0.3905
34880SOL     OW16363   6.035   2.572  11.381  0.0570  0.0594  0.0271
34880SOL    HW116364   5.946   2.550  11.354  0.5925 -0.3972 -1.4804
34880SOL    HW216365   6.042   2.666  11.367 -0.3096  0.1622  0.5288
34881SOL     OW16366   8.442   5.107   7.267 -0.3767  0.0994 -0.0978
34881SOL    HW116367   8.421   5.189   7.221  0.3178  0.6439  0.5325
34881SOL    HW216368   8.431   5.128   7.359  0.2422 -0.3843  0.0942
34882SOL     OW16369   9.406   0.184   7.445  0.2733 -0.3051 -0.3779
34882SOL    HW116370   9.327   0.135   7.470  0.0328  0.9096  1.4963
34882SOL    HW216371   9.403   0.262   7.500  2.0629  0.4703 -1.3112
34883SOL     OW16372  10.788  10.750   6.607  0.2457 -0.1009  0.0370
34883SOL    HW116373  10.848  10.680   6.631  0.2120 -0.2348 -0.2585
34883SOL    HW216374  10.745  10.775   6.689  1.4616  0.7283  0.4535
34884SOL     OW16375   6.135  10.588   3.108 -0.1080  0.2836  0.3451
34884SOL    HW116376   6.199  10.534   3.154  0.3886 -0.8593 -1.5709
34884SOL    HW216377   6.070  10.526   3.075 -2.6401  1.4617  2.7351
34885SOL     OW16378  10.823  10.852  10.135  0.0727 -0.2789  0.6040
34885SOL    HW116379  10.845  10.778  10.078  1.4104 -0.0492  0.7874
34885SOL    HW216380  10.876  10.924  10.102  2.3154 -0.5788  3.1773
34886SOL     OW16381  11.535   2.806   6.741  0.9962 -0.1615  0.3244
34886SOL    HW116382  11.547   2.716   6.712  3.2313  0.1912  0.0163
34886SOL    HW216383  11.458   2.803   6.799 -1.2185 -1.5710 -2.4684
34887SOL     OW16384   2.478   7.013  10.883  0.2675  0.1579 -0.2739
34887SOL    HW116385   2.483   7.079  10.814 -0.3606  0.8188  0.2977
34887SOL    HW216386   2.414   7.048  10.945 -0.6770 -1.3543 -0.3553
34888SOL     OW16387   8.217   4.314   9.311 -0.2123  0.1724 -0.2730
34888SOL    HW116388   8.141   4.372   9.317 -1.8294 -1.8712  0.1543
34888SOL    HW216389   8.256   4.317   9.399 -1.0630 -0.3214  0.1436
34889SOL     OW16390   5.806   9.383   1.632 -0.3421 -0.2397 -0.5556
34889SOL    HW116391   5.790   9.428   1.549 -1.6116  0.9556  0.2873
34889SOL    HW216392   5.846   9.300   1.607 -0.4207  0.2145 -2.3377
34890SOL     OW16393   7.955   2.734  11.083  0.2447  0.2811  0.1714
34890SOL    HW116394   7.901   2.660  11.058 -0.2206  0.9246 -0.7775
34890SOL    HW216395   7.979   2.717  11.174 -0.6371 -0.5580  0.2585
34891SOL     OW16396   3.436  10.867   5.085 -0.2105  0.5201  0.6647
34891SOL    HW116397   3.388  10.785   5.098  1.0526 -0.2195  0.8925
34891SOL    HW216398   3.496  10.849   5.013  1.7717  0.4087  2.2381
34892SOL     OW16399   1.203   4.441   0.985  0.3507  0.0825 -0.5775
34892SOL    HW116400   1.126   4.477   1.030  1.7500  1.6558  0.6868
34892SOL    HW216401   1.227   4.364   1.036  0.5279  0.5030 -0.0130
34893SOL     OW16402  10.927   5.858   0.616 -0.5384 -0.3970  0.7560
34893SOL    HW116403  10.928   5.831   0.524 -0.5487 -0.1737  0.6893
34893SOL    HW216404  10.876   5.939   0.616 -1.3205 -0.8794  1.1000
34894SOL     OW16405   8.518   5.758   8.469  0.0598 -0.8990 -0.0661
34894SOL    HW116406   8.489   5.806   8.392 -1.5619 -3.5275 -1.2226
34894SOL    HW216407   8.574   5.821   8.517 -1.3609  1.8296 -1.7399
34895SOL     OW16408   8.894   1.092   6.570  0.2032 -0.5377 -0.0816
34895SOL    HW116409   8.965   1.154   6.588 -1.2091  0.5447  2.1904
34895SOL    HW216410   8.836   1.138   6.510  0.2522 -0.5300 -0.1238
34896SOL     OW16411   4.628   6.581   5.051  0.2702 -0.1096  1.0370
34896SOL    HW116412   4.642   6.540   4.966  0.0877  1.0128  0.4411
34896SOL    HW216413   4.539   6.555   5.075  0.4615 -0.7438  1.0742
34897SOL     OW16414  10.175  11.789  11.687  0.0718 -0.5986 -0.3513
34897SOL    HW116415  10.091  11.778  11.641  0.0386 -2.4795  0.0784
34897SOL    HW216416  10.238  11.803  11.617 -0.5977  1.0470 -0.6722
34898SOL     OW16417   0.537   4.457  10.858  0.0920  0.0543 -0.2162
34898SOL    HW116418   0.495   4.494  10.936  0.3670  0.8114 -0.4211
34898SOL    HW216419   0.594   4.388  10.892 -0.7760 -0.5132  0.1276
34899SOL     OW16420   6.115   8.706  10.512  0.5507 -0.1720  0.3965
34899SOL    HW116421   6.153   8.624  10.479  2.6162  1.2584 -0.9555
34899SOL    HW216422   6.060   8.737  10.440  2.6005  1.3867 -0.5589
34900SOL     OW16423   2.139  10.741   0.690  0.5918  0.0779  0.4247
34900SOL    HW116424   2.207  10.694   0.739 -0.8243 -1.8244  0.7020
34900SOL    HW216425   2.093  10.792   0.757 -0.8400 -1.9078  1.0670
34901SOL     OW16426   8.210   5.407   6.770  0.1027 -0.3139  0.2974
34901SOL    HW116427   8.286   5.349   6.775  0.3022 -0.0856 -0.0094
34901SOL    HW216428   8.136   5.352   6.795  0.3854 -0.5049  0.7324
34902SOL     OW16429  10.237   9.961   0.467  0.1712 -0.1525  0.4085
34902SOL    HW116430  10.247  10.040   0.520  0.8058 -0.7132  1.1488
34902SOL    HW216431  10.316   9.958   0.413  0.0693 -0.1905  0.2601
34903SOL     OW16432   4.503   3.728   2.857  0.1615 -0.3207  0.2406
34903SOL    HW116433   4.524   3.650   2.807 -0.5057 -2.2252  2.7327
34903SOL    HW216434   4.558   3.722   2.936  0.2206  1.8334  0.4193
34904SOL     OW16435   7.360   4.428   6.197 -0.6954 -0.0339  0.0252
34904SOL    HW116436   7.358   4.351   6.254 -1.4297  0.7290  1.0508
34904SOL    HW216437   7.281   4.421   6.144 -1.1463  0.3722  0.6268
34905SOL     OW16438   2.965  11.104   5.401 -0.3302  0.2483  0.5486
34905SOL    HW116439   2.965  11.053   5.320 -0.9739  0.1175  0.6306
34905SOL    HW216440   3.046  11.078   5.445 -0.8820 -1.0890  0.8220
34906SOL     OW16441   0.040   5.437   8.913  0.4913 -0.1324 -0.1576
34906SOL    HW116442   0.092   5.470   8.985  1.1531 -0.5109 -0.4521
34906SOL    HW216443   0.016   5.515   8.862  0.6591  0.0545  0.0516
34907SOL     OW16444   2.192   2.467  10.122  0.2819  0.3944  0.0396
34907SOL    HW116445   2.110   2.506  10.091 -0.7346 -1.7837 -0.2669
34907SOL    HW216446   2.184   2.468  10.218 -0.4474 -0.4087  0.0018
34908SOL     OW16447   5.294  10.287   9.186  0.2346 -0.0084  0.0681
34908SOL    HW116448   5.336  10.201   9.178  1.7140  0.6200  0.8540
34908SOL    HW216449   5.363  10.350   9.167 -0.9526  1.0286 -0.9590
34909SOL     OW16450   6.249   7.219   4.920 -0.4244 -0.0738  0.2949
34909SOL    HW116451   6.273   7.310   4.936  0.5705 -0.5564  1.7292
34909SOL    HW216452   6.236   7.181   5.007  2.2011 -2.0675 -0.0373
34910SOL     OW16453   7.783  10.281   6.558  0.0972 -0.1447 -1.0820
34910SOL    HW116454   7.754  10.210   6.501 -1.7094  0.4400 -0.9655
34910SOL    HW216455   7.702  10.315   6.597  1.1192  0.5926  0.5034
34911SOL     OW16456   1.232   5.236   5.917  0.0370  0.8544  0.0854
34911SOL    HW116457   1.157   5.190   5.878 -0.1979  0.2658  1.1875
34911SOL    HW216458   1.309   5.191   5.882 -0.0884  1.4621 -1.0553
34912SOL     OW16459   4.999   3.542  10.151 -0.0102 -0.0678 -0.0666
34912SOL    HW116460   5.037   3.610  10.207 -0.2505  0.7651 -0.8839
34912SOL    HW216461   4.966   3.476  10.212  2.1440 -0.5080  0.6862
34913SOL     OW16462   4.797  10.145  10.763  0.0582 -0.0281  0.1533
34913SOL    HW116463   4.881  10.126  10.720 -0.6333  0.1039 -1.3045
34913SOL    HW216464   4.781  10.237  10.744 -0.5688 -0.1315  0.1612
34914SOL     OW16465   6.034   6.087   4.719  0.1487 -0.1793 -0.3297
34914SOL    HW116466   6.098   6.154   4.695  1.0020 -1.0360 -0.5226
34914SOL    HW216467   6.026   6.094   4.814  0.4212  0.0199 -0.3213
34915SOL     OW16468   6.604   6.842   2.272  0.5979  0.1379 -0.0209
34915SOL    HW116469   6.647   6.919   2.236 -1.0006  1.8972  1.5842
34915SOL    HW216470   6.580   6.867   2.362 -1.0179 -1.7803  0.1702
34916SOL     OW16471   3.287   6.243   0.328  0.0855  0.6012  0.8441
34916SOL    HW116472   3.268   6.264   0.419 -1.4133  1.0611  0.4637
34916SOL    HW216473   3.382   6.247   0.321  0.2121  0.6617  2.3520
34917SOL     OW16474   3.163   7.832   4.329  0.1804  0.5583  0.0699
34917SOL    HW116475   3.117   7.846   4.411  0.9479 -0.3573  0.6677
34917SOL    HW216476   3.116   7.760   4.287  1.1130 -0.4681  0.7423
34918SOL     OW16477   7.380  11.194   7.082 -0.4576  0.3125 -0.1415
34918SOL    HW116478   7.307  11.156   7.130 -1.6145  1.6439 -0.7916
34918SOL    HW216479   7.346  11.275   7.044  0.8913  0.1886 -1.7819
34919SOL     OW16480   7.749   2.519   4.555  0.0188  1.2417 -0.7200
34919SOL    HW116481   7.655   2.516   4.570  0.1904  3.3319  1.1633
34919SOL    HW216482   7.776   2.427   4.549 -1.9090  0.5868  0.1693
34920SOL     OW16483   0.670   5.343   9.663  0.3489  0.3035 -0.0395
34920SOL    HW116484   0.630   5.395   9.732  0.1671  0.5073 -0.2945
34920SOL    HW216485   0.684   5.405   9.591  2.3210  0.5381  0.4907
34921SOL     OW16486   1.985   2.119   9.313 -0.3095  0.3894  0.0060
34921SOL    HW116487   2.002   2.199   9.264 -0.8278  1.4755  1.5329
34921SOL    HW216488   1.890   2.110   9.312 -0.1990 -0.8260 -1.0798
34922SOL     OW16489   8.358   8.820   1.132  0.6145 -0.6546  0.3563
34922SOL    HW116490   8.320   8.799   1.217  1.2495 -0.8512  0.5954
34922SOL    HW216491   8.443   8.858   1.152  1.6085 -2.4534 -0.2321
34923SOL     OW16492   4.650   5.333   2.633 -0.4418  0.1014  0.4511
34923SOL    HW116493   4.713   5.266   2.605 -0.3614  0.3757 -0.0501
34923SOL    HW216494   4.678   5.357   2.721 -0.9231 -1.0517  0.9203
34924SOL     OW16495   4.676   7.035   4.485 -0.3823  0.3864  0.4079
34924SOL    HW116496   4.591   7.028   4.529  0.7556  0.7719  2.8741
34924SOL    HW216497   4.712   7.119   4.516  1.4184 -0.3628  0.4627
34925SOL     OW16498   2.729   4.087   0.291 -0.3872  0.3063 -0.0937
34925SOL    HW116499   2.647   4.136   0.297 -0.3891  0.2809  0.1173
34925SOL    HW216500   2.720   4.033   0.213 -0.9421 -0.3692  0.4331
34926SOL     OW16501   7.401   5.062   2.039  0.5303  0.2707  0.2601
34926SOL    HW116502   7.306   5.048   2.031  0.3807  1.0842  0.5083
34926SOL    HW216503   7.412   5.103   2.125  1.1621 -0.2263  0.4224
34927SOL     OW16504   7.794  11.271   7.132 -0.7789  0.1166 -0.8634
34927SOL    HW116505   7.874  11.266   7.184 -0.5678 -1.2976 -1.3019
34927SOL    HW216506   7.724  11.286   7.197 -0.3465 -0.1501 -0.3295
34928SOL     OW16507   5.901   7.825   8.872 -0.0555  0.7021  0.4842
34928SOL    HW116508   5.819   7.779   8.854 -0.0309  0.6824  0.4208
34928SOL    HW216509   5.923   7.868   8.789  1.2233 -1.2184 -0.2371
34929SOL     OW16510   0.513   6.468  10.044 -0.1105 -0.3180  0.2850
34929SOL    HW116511   0.500   6.531  10.115 -1.1817 -1.2057  0.9228
34929SOL    HW216512   0.430   6.419  10.040  0.3912 -1.1292 -0.7293
34930SOL     OW16513   6.915   3.858  10.665  0.2389  1.1012 -0.2242
34930SOL    HW116514   7.000   3.823  10.691 -0.7719 -0.6727  0.9254
34930SOL    HW216515   6.897   3.927  10.728 -0.2522 -0.2351  1.1665
34931SOL     OW16516   0.365   6.009   9.153  0.1652  0.1309 -0.5058
34931SOL    HW116517   0.456   6.000   9.181 -0.2732 -1.3724  0.5610
34931SOL    HW216518   0.355   5.945   9.082 -0.2214 -0.2206 -0.1445
34932SOL     OW16519   4.412  11.568   8.907 -0.0941 -1.2749  0.1060
34932SOL    HW116520   4.394  11.592   8.997 -1.2662 -1.9585  0.0695
34932SOL    HW216521   4.446  11.648   8.867 -1.8385 -0.2872  0.5302
34933SOL     OW16522   3.735   6.248   4.057 -0.1196  0.1670 -0.3745
34933SOL    HW116523   3.708   6.242   4.148  1.6989 -0.8670  0.1482
34933SOL    HW216524   3.654   6.238   4.007 -1.4120  2.5006  1.0881
34934SOL     OW16525   4.540   1.132   5.532 -0.5208  0.0251 -0.0044
34934SOL    HW116526   4.582   1.208   5.572 -0.2232 -0.3250  0.3543
34934SOL    HW216527   4.599   1.059   5.550 -0.9015 -0.3299 -0.1709
34935SOL     OW16528   5.359   1.581   8.931 -0.2316 -0.2860  0.4102
34935SOL    HW116529   5.385   1.564   8.840  1.3970 -1.8706  1.1040
34935SOL    HW216530   5.440   1.570   8.981 -1.0683  0.6765  2.0519
34936SOL     OW16531   6.172   5.098   9.107 -0.2683  0.3918  0.8816
34936SOL    HW116532   6.187   5.162   9.177  0.3506  1.5842 -0.3094
34936SOL    HW216533   6.260   5.077   9.075 -0.5017 -0.6761  0.9042
34937SOL     OW16534   3.465  10.077  11.819  0.2376 -0.1290 -0.1675
34937SOL    HW116535   3.401  10.148  11.816  1.1707  0.7355  0.2554
34937SOL    HW216536   3.529  10.099  11.751  1.0155 -0.0795  0.5618
34938SOL     OW16537   5.990   5.807   2.565  0.0676  0.2317 -0.1069
34938SOL    HW116538   5.936   5.732   2.539  1.0118  0.0913 -1.8269
34938SOL    HW216539   6.069   5.769   2.601 -0.3741  0.4356  1.1149
34939SOL     OW16540   8.907  10.025   6.923 -0.7542 -0.3307 -0.1326
34939SOL    HW116541   8.873   9.945   6.883  0.5848 -0.6799 -0.6057
34939SOL    HW216542   8.972  10.058   6.861 -0.2713  0.3657  0.7086
34940SOL     OW16543   1.615   0.146   4.886  0.2067  0.4769 -0.3603
34940SOL    HW116544   1.603   0.172   4.794  1.2872  0.7948 -0.4268
34940SOL    HW216545   1.542   0.087   4.903  0.6509 -0.5616 -1.8078
34941SOL     OW16546   2.346   1.193   4.771  0.1896  0.0840  0.4349
34941SOL    HW116547   2.291   1.115   4.782  1.3971 -0.6771  1.4527
34941SOL    HW216548   2.419   1.162   4.717 -0.7991  1.3253 -1.7419
34942SOL     OW16549  11.736   7.306  10.301  0.8829 -0.6103 -0.4756
34942SOL    HW116550  11.723   7.390  10.344 -0.8561 -1.0595 -0.0507
34942SOL    HW216551  11.831   7.297  10.295  1.1811  0.1495  1.9344
34943SOL     OW16552  10.752   1.814   7.565 -0.3916 -0.2493  0.2845
34943SOL    HW116553  10.728   1.886   7.623 -2.3499  0.1327 -0.9171
34943SOL    HW216554  10.842   1.793   7.589 -0.6149  0.9081  2.3745
34944SOL     OW16555   5.581   1.794  10.205  0.0328  0.4398 -0.0494
34944SOL    HW116556   5.651   1.728  10.211  0.5429  1.0740  3.1033
34944SOL    HW216557   5.511   1.758  10.259 -1.4468  0.6114 -1.7824
34945SOL     OW16558   1.975   8.867   3.480  0.3903 -0.0186  0.0151
34945SOL    HW116559   1.889   8.875   3.521  0.1922 -1.5545 -0.0176
34945SOL    HW216560   2.026   8.939   3.518 -0.5405  0.1634  0.9942
34946SOL     OW16561   8.517   0.635   2.498 -0.1567 -0.6356 -0.3349
34946SOL    HW116562   8.432   0.649   2.539  0.0050  1.8632 -0.6838
34946SOL    HW216563   8.505   0.662   2.407  0.6581 -1.6445 -0.7646
34947SOL     OW16564   0.962   1.556  11.725  0.0007 -0.0957  0.1543
34947SOL    HW116565   0.912   1.598  11.655  0.2639  1.5478  0.8996
34947SOL    HW216566   1.041   1.523  11.682 -0.8306 -1.0461 -0.6919
34948SOL     OW16567   1.872  11.585   2.335  0.1378  0.0071  0.3950
34948SOL    HW116568   1.879  11.552   2.424 -0.2434  0.7584  0.7113
34948SOL    HW216569   1.920  11.521   2.282  0.8862 -0.1331  1.2096
34949SOL     OW16570   9.800   8.603  10.624  0.7067 -0.2448 -0.2430
34949SOL    HW116571   9.724   8.646  10.662  1.0026 -1.4476  1.8152
34949SOL    HW216572   9.784   8.606  10.529 -1.9603 -0.5633  0.1136
34950SOL     OW16573   1.285   0.516   5.082  0.3344  0.2259  0.3231
34950SOL    HW116574   1.254   0.528   5.172 -0.6552  0.0936  0.0192
34950SOL    HW216575   1.370   0.474   5.091 -0.7181 -1.8962  1.1844
34951SOL     OW16576   2.114   8.003   7.162 -0.3398  0.2931  0.3402
34951SOL    HW116577   2.044   7.964   7.109  0.1248 -0.3114  0.1598
34951SOL    HW216578   2.071   8.031   7.242 -0.6656 -0.7120  0.5288
34952SOL     OW16579   0.235   7.460   7.931  0.4662  0.0552 -0.3727
34952SOL    HW116580   0.186   7.412   7.864 -0.5029  0.6433 -0.1015
34952SOL    HW216581   0.208   7.419   8.014 -0.4948  1.1533 -0.1244
34953SOL     OW16582   6.538   0.760   6.661 -0.3856 -0.0467  0.2778
34953SOL    HW116583   6.580   0.675   6.674  0.3928  0.3120  0.1942
34953SOL    HW216584   6.528   0.795   6.750  0.6071  0.3733  0.2457
34954SOL     OW16585   1.346   1.378  10.995 -0.7334 -0.1527 -0.3160
34954SOL    HW116586   1.288   1.425  10.935 -0.3566 -2.7971 -2.9596
34954SOL    HW216587   1.429   1.425  10.990 -1.9401  2.7198  2.3115
34955SOL     OW16588   9.411   6.523  11.711  0.7664  0.3566  0.0087
34955SOL    HW116589   9.458   6.439  11.711 -1.3180 -0.8893 -0.1186
34955SOL    HW216590   9.440   6.566  11.630  0.3243 -1.2234 -1.0495
34956SOL     OW16591   9.064   3.339   7.169  0.7069  0.1379  0.0347
34956SOL    HW116592   9.125   3.351   7.241  0.7605  1.0032 -0.1457
34956SOL    HW216593   9.069   3.420   7.119  1.9276 -1.0664 -1.9422
34957SOL     OW16594   1.231   1.904   6.224 -0.3827 -0.0064 -0.1549
34957SOL    HW116595   1.299   1.949   6.274 -1.0683  0.8979 -0.0094
34957SOL    HW216596   1.269   1.819   6.201  0.7392  0.4365  0.0358
34958SOL     OW16597   5.164   1.195   4.899 -0.5671  0.5947 -0.1699
34958SOL    HW116598   5.233   1.229   4.842 -0.3577 -0.8858 -0.8728
34958SOL    HW216599   5.183   1.231   4.985  0.8565  0.5329 -0.4392
34959SOL     OW16600   5.138   1.541   5.928  0.2965 -0.4336 -0.2853
34959SOL    HW116601   5.233   1.543   5.936  0.2805  1.0078 -0.1763
34959SOL    HW216602   5.121   1.474   5.862  1.4567  0.0098 -1.0743
34960SOL     OW16603   7.960  10.901   5.098  0.4530 -0.0987  0.6647
34960SOL    HW116604   7.929  10.891   5.008  0.1318  1.1057  0.6183
34960SOL    HW216605   8.039  10.847   5.103 -0.6216 -1.7640  0.2476
34961SOL     OW16606   5.160   3.100   3.861  0.3502 -0.3780 -0.1528
34961SOL    HW116607   5.137   3.192   3.848 -0.7361 -0.3400  1.6672
34961SOL    HW216608   5.225   3.102   3.931  0.0592 -1.0045  0.1430
34962SOL     OW16609  10.398   1.814  11.661  0.3713  0.1138  0.0546
34962SOL    HW116610  10.431   1.730  11.631  0.3935  0.5564 -1.2108
34962SOL    HW216611  10.319   1.830  11.610 -0.1693  0.4428  0.9506
34963SOL     OW16612  11.101   6.687  10.690  0.8346  0.4542 -0.3056
34963SOL    HW116613  11.035   6.626  10.657  2.5837 -2.6101  1.3247
34963SOL    HW216614  11.074   6.704  10.781  0.5688  1.8794 -0.6347
34964SOL     OW16615   1.593  10.977  10.774  0.4165  0.5133 -0.0357
34964SOL    HW116616   1.571  10.940  10.860  0.3797  2.0569  0.6586
34964SOL    HW216617   1.626  11.065  10.794  1.1119  0.6262 -1.5561
34965SOL     OW16618   0.954   9.939   7.754 -0.5470 -0.8012  0.3926
34965SOL    HW116619   1.044   9.918   7.726 -0.3314  0.3484  0.1787
34965SOL    HW216620   0.903   9.861   7.732  0.0099 -0.6958 -1.3768
34966SOL     OW16621   6.488  11.395   0.075  0.0260  0.0070 -0.1447
34966SOL    HW116622   6.482  11.453   0.150 -0.2445 -0.3331  0.1031
34966SOL    HW216623   6.535  11.318   0.107 -2.5151 -1.4034  0.5228
34967SOL     OW16624   7.314   6.336   5.402  0.3804 -0.2226 -0.1380
34967SOL    HW116625   7.263   6.364   5.478  1.0615  3.0510 -0.7478
34967SOL    HW216626   7.248   6.308   5.338 -0.4458  0.4373  0.4041
34968SOL     OW16627   3.647   1.885  10.609  0.4496  0.7464  0.3232
34968SOL    HW116628   3.613   1.974  10.594 -1.9859 -0.0959  0.2931
34968SOL    HW216629   3.614   1.835  10.534 -0.2143 -0.6511  1.5111
34969SOL     OW16630  11.837   8.667   0.933  0.3226 -0.5344 -0.1529
34969SOL    HW116631  11.803   8.719   0.860  0.2067 -0.9142 -0.3779
34969SOL    HW216632  11.877   8.591   0.890  0.6424 -0.5426  0.1608
34970SOL     OW16633   0.158   1.163   2.299  0.3262  0.1650  0.2038
34970SOL    HW116634   0.072   1.201   2.320 -0.2194 -1.0823  0.3043
34970SOL    HW216635   0.218   1.237   2.302 -0.4497  0.7680  1.8734
34971SOL     OW16636   3.636   8.124   3.310  0.2424 -0.5555 -0.3761
34971SOL    HW116637   3.658   8.104   3.401  1.0237  2.0191  0.0828
34971SOL    HW216638   3.541   8.139   3.311 -0.0533 -2.2478 -0.3896
34972SOL     OW16639   4.722   4.724  11.855  0.0499 -0.3414 -0.1656
34972SOL    HW116640   4.750   4.689  11.770 -0.5304 -2.3901  0.4051
34972SOL    HW216641   4.635   4.760  11.838 -0.0832 -0.7839 -0.4489
34973SOL     OW16642   6.041   5.763   6.291 -0.0661 -0.0990 -0.0431
34973SOL    HW116643   6.094   5.687   6.266 -0.7674 -0.8503  0.7249
34973SOL    HW216644   5.979   5.729   6.356 -0.4294  1.1179  0.2597
34974SOL     OW16645  11.611   4.607   0.570 -0.7197  0.4371  0.9323
34974SOL    HW116646  11.615   4.602   0.475 -0.2148 -0.1740  0.9753
34974SOL    HW216647  11.698   4.638   0.596  0.6138 -3.2060  1.3752
34975SOL     OW16648   8.415  11.179   7.407 -0.5843  0.7200 -0.1984
34975SOL    HW116649   8.320  11.168   7.410 -0.7418  1.9627 -0.4070
34975SOL    HW216650   8.448  11.094   7.377 -1.5841  0.1195  0.3428
34976SOL     OW16651   2.179   6.040   2.655 -0.6055 -0.2335 -0.0066
34976SOL    HW116652   2.207   6.024   2.566  4.0262  0.1883  1.1406
34976SOL    HW216653   2.181   6.135   2.664  3.5628 -0.2808  1.5529
34977SOL     OW16654  11.609   9.539   9.219 -0.5342  0.3150  0.2620
34977SOL    HW116655  11.640   9.628   9.240 -0.4048 -0.0299  1.6367
34977SOL    HW216656  11.594   9.540   9.125  0.0534  1.6220  0.1664
34978SOL     OW16657   2.835   4.281   2.620 -0.2029 -0.6384  0.2398
34978SOL    HW116658   2.746   4.291   2.585  0.4176 -1.0717 -1.5793
34978SOL    HW216659   2.877   4.218   2.562  1.3688 -0.2924  0.9338
34979SOL     OW16660   5.286   7.034  11.672 -0.2481  0.1350  0.4261
34979SOL    HW116661   5.363   7.077  11.635  0.5471 -2.1596 -0.8007
34979SOL    HW216662   5.320   6.978  11.742 -1.2951  1.6629  2.2263
34980SOL     OW16663   4.063   6.950   1.044  0.0373 -0.2104 -0.4398
34980SOL    HW116664   4.126   6.895   0.998 -1.6318 -2.9193  0.2368
34980SOL    HW216665   3.985   6.895   1.052 -1.7757  2.3040  0.3780
34981SOL     OW16666   6.658   6.930   3.564 -0.1387 -0.1748 -0.4348
34981SOL    HW116667   6.617   6.846   3.544  0.6484 -0.8526  0.6908
34981SOL    HW216668   6.630   6.988   3.493 -1.1539 -1.2251 -0.9253
34982SOL     OW16669   2.898   2.262   5.006  0.0405 -0.8825 -0.0799
34982SOL    HW116670   2.925   2.322   4.938  2.3686 -1.0940  0.5635
34982SOL    HW216671   2.811   2.232   4.979  0.5454 -0.3578 -2.5060
34983SOL     OW16672   7.005  10.521   1.164  0.0137  0.0060 -0.0036
34983SOL    HW116673   6.940  10.482   1.223 -1.0277 -1.7459 -2.1731
34983SOL    HW216674   6.980  10.614   1.160 -0.3772  0.0149  1.6110
34984SOL     OW16675   0.163   9.468   5.116 -0.2674  0.5584 -0.3482
34984SOL    HW116676   0.072   9.470   5.088  0.0215 -0.4661 -1.4046
34984SOL    HW216677   0.195   9.381   5.091  0.8602  0.7128  0.4585
34985SOL     OW16678   6.416   4.611   0.769  0.1647 -0.3424 -0.5588
34985SOL    HW116679   6.449   4.602   0.858 -2.4156  0.9469  0.6460
34985SOL    HW216680   6.393   4.703   0.761  1.5008 -0.1489 -3.0687
34986SOL     OW16681   8.695   9.809   9.602 -0.3943  0.1822 -0.1093
34986SOL    HW116682   8.658   9.793   9.515  0.1463 -0.6482 -0.1981
34986SOL    HW216683   8.622   9.841   9.654 -1.2427 -1.3744 -0.2924
34987SOL     OW16684   1.508   1.252   5.693  0.0907 -0.0840 -0.4881
34987SOL    HW116685   1.420   1.247   5.731  0.8448  0.4102  1.4486
34987SOL    HW216686   1.537   1.161   5.686 -0.2781 -0.2065 -0.4203
34988SOL     OW16687   1.601   6.913   2.338  0.6645  0.4514  0.7384
34988SOL    HW116688   1.646   6.945   2.260  1.5763 -0.3582  0.9145
34988SOL    HW216689   1.663   6.930   2.409  1.4614 -2.1655  0.7783
34989SOL     OW16690   9.034  10.693   7.026 -0.3810 -0.6704  0.3512
34989SOL    HW116691   8.966  10.739   6.976  0.3513 -0.6613 -0.6620
34989SOL    HW216692   8.986  10.650   7.097 -1.5302 -1.1175 -0.6637
34990SOL     OW16693   2.935   1.441   8.987 -0.1471  0.1204 -0.6092
34990SOL    HW116694   2.985   1.393   9.053 -0.8455  0.4326  0.1580
34990SOL    HW216695   2.914   1.376   8.920 -0.0180 -0.3468 -0.1958
34991SOL     OW16696   3.974   6.723   4.070 -0.0487  0.3504  0.2190
34991SOL    HW116697   3.993   6.811   4.102 -2.4211  0.4960  1.5035
34991SOL    HW216698   3.959   6.672   4.149  1.0746 -1.1997 -0.5190
34992SOL     OW16699   4.464   5.390  11.040  0.3706 -0.0894 -0.4284
34992SOL    HW116700   4.516   5.469  11.023  0.5430 -0.0433  0.2745
34992SOL    HW216701   4.520   5.338  11.098 -1.1291  0.8559  2.0486
34993SOL     OW16702   2.060   6.174   9.111  0.0372  0.1288 -0.1579
34993SOL    HW116703   2.063   6.270   9.115 -1.5748  0.1748  1.4021
34993SOL    HW216704   2.130   6.150   9.050  0.0296  2.3222 -1.1313
34994SOL     OW16705   0.397   7.919   5.590  0.1190  0.4153 -0.0369
34994SOL    HW116706   0.317   7.965   5.566  0.3471  0.6572 -0.3443
34994SOL    HW216707   0.460   7.944   5.523  0.4180  0.1296  0.1344
34995SOL     OW16708   0.813   3.947   3.174 -0.0295  0.1401 -0.2322
34995SOL    HW116709   0.743   3.925   3.113  0.8487  1.1941 -1.6848
34995SOL    HW216710   0.828   3.867   3.225  0.6976 -1.5434 -2.9141
34996SOL     OW16711   7.022   4.643   5.652 -0.4455 -0.2179 -1.0464
34996SOL    HW116712   7.016   4.682   5.739  0.5541 -0.3051 -0.9178
34996SOL    HW216713   6.941   4.594   5.641 -1.2162  0.9568 -0.7476
34997SOL     OW16714  10.541   0.787   5.973  0.4873  0.2231  0.1817
34997SOL    HW116715  10.557   0.838   6.052  1.1069 -0.0050  0.2079
34997SOL    HW216716  10.506   0.849   5.910 -0.3558  0.3388  0.7476
34998SOL     OW16717   7.662   7.477   8.562  0.6472  0.7380  0.5335
34998SOL    HW116718   7.631   7.458   8.473  2.7002  1.7256 -0.4539
34998SOL    HW216719   7.584   7.464   8.617 -0.1302 -2.1861 -1.0359
34999SOL     OW16720   6.822  10.262   2.305 -0.2473  0.3788  0.8695
34999SOL    HW116721   6.727  10.268   2.316 -0.0924  2.0522  1.6310
34999SOL    HW216722   6.848  10.349   2.275  1.0814  0.0196  0.9226
35000SOL     OW16723  11.360   9.869  11.492  0.3301 -0.4840 -0.1114
35000SOL    HW116724  11.417   9.890  11.566 -2.1295  0.6388  1.6275
35000SOL    HW216725  11.370   9.944  11.433  1.0812 -0.5933 -0.1344
35001SOL     OW16726   2.111   7.779   9.441  0.0855 -0.8665  0.5288
35001SOL    HW116727   2.069   7.694   9.452  1.4106 -1.6042  0.0707
35001SOL    HW216728   2.188   7.761   9.386 -1.1906  1.0930 -2.1084
35002SOL     OW16729   4.432   2.191   4.575 -0.1324 -0.0075  0.4590
35002SOL    HW116730   4.518   2.231   4.569  0.1334 -0.6462 -0.0499
35002SOL    HW216731   4.409   2.168   4.485 -0.0574 -1.4569  0.7873
35003SOL     OW16732   2.770   6.562   1.047 -0.1080 -0.6586 -0.2460
35003SOL    HW116733   2.800   6.633   1.104 -1.8885 -0.8278  1.0006
35003SOL    HW216734   2.676   6.580   1.035 -0.0539 -1.3818 -2.0618
35004SOL     OW16735   5.002   5.030   1.414 -0.1092 -0.0566  0.2692
35004SOL    HW116736   5.086   4.989   1.434 -1.1504 -1.5757  1.8592
35004SOL    HW216737   5.006   5.051   1.321  1.9905 -0.1476  0.3083
35005SOL     OW16738   7.342   8.987  11.121 -0.0338 -0.8242 -0.4858
35005SOL    HW116739   7.289   9.040  11.181  1.7603  0.5000  0.0428
35005SOL    HW216740   7.309   8.898  11.132 -1.1341 -0.2822  0.9281
35006SOL     OW16741   8.735   2.467   7.799  0.0218  0.0246  0.0482
35006SOL    HW116742   8.803   2.528   7.828 -1.4548  0.9466  1.7458
35006SOL    HW216743   8.707   2.501   7.714 -0.6079  1.6107  0.8614
35007SOL     OW16744   3.825   4.250   1.415  0.1562 -0.0516  0.2683
35007SOL    HW116745   3.888   4.322   1.409 -0.7273  0.6995 -0.4039
35007SOL    HW216746   3.875   4.177   1.451  0.6774  1.3650  2.6159
35008SOL     OW16747   3.482  11.309   3.768 -0.1028 -0.3408  0.6115
35008SOL    HW116748   3.576  11.293   3.760 -0.7145 -5.4620  0.5578
35008SOL    HW216749   3.467  11.320   3.862  0.4496 -0.0525  0.6705
35009SOL     OW16750   3.927   7.068   5.031 -1.2846  0.6491 -0.0590
35009SOL    HW116751   3.982   7.012   5.087 -1.0656 -1.0462 -1.8478
35009SOL    HW216752   3.975   7.150   5.025 -1.7044  1.2048  2.8187
35010SOL     OW16753  11.371   2.064   2.557  0.3145 -0.3036  0.2853
35010SOL    HW116754  11.462   2.095   2.562  0.7937 -1.7606  0.9655
35010SOL    HW216755  11.369   2.010   2.477 -0.7178  1.9794 -1.3461
35011SOL     OW16756   1.563   6.798   3.870  0.8345  0.2896  0.3568
35011SOL    HW116757   1.592   6.707   3.861 -1.0778 -0.1258 -3.8508
35011SOL    HW216758   1.604   6.843   3.796 -3.4693  1.1529 -1.7959
35012SOL     OW16759   7.831   4.368   0.690 -0.6146  0.0072  0.0687
35012SOL    HW116760   7.896   4.438   0.685 -1.3361  0.6887 -0.0715
35012SOL    HW216761   7.872   4.299   0.741  0.3318  0.2983 -0.2921
35013SOL     OW16762   1.116   9.198   6.761  0.0432 -0.1111  0.3016
35013SOL    HW116763   1.110   9.277   6.708 -0.5217 -0.4674 -0.1893
35013SOL    HW216764   1.028   9.186   6.797 -0.0960 -0.9407 -0.2803
35014SOL     OW16765   5.273   2.406  10.414  0.2011 -0.0278  0.0147
35014SOL    HW116766   5.368   2.397  10.402  0.3408 -0.8614  1.4600
35014SOL    HW216767   5.264   2.470  10.485 -0.4147  1.5133 -1.3916
35015SOL     OW16768   1.516   1.933   4.471 -0.5476  0.1476  0.5800
35015SOL    HW116769   1.528   1.842   4.501  0.1429  0.3083  0.8148
35015SOL    HW216770   1.563   1.936   4.388 -1.5166 -0.0008  0.0185
35016SOL     OW16771   7.486   0.843   9.537  0.1006 -0.2608  0.0615
35016SOL    HW116772   7.442   0.928   9.534 -0.9646 -0.8143 -0.6252
35016SOL    HW216773   7.549   0.847   9.466  0.9043  0.3884  0.7916
35017SOL     OW16774   1.632   8.300   6.938  0.6702 -0.1686 -0.4341
35017SOL    HW116775   1.716   8.310   6.894  2.1383 -1.0479  1.9573
35017SOL    HW216776   1.637   8.359   7.014 -0.9881 -0.0328 -0.3933
35018SOL     OW16777   8.632  11.121   5.687  0.2555 -0.2533  0.3748
35018SOL    HW116778   8.555  11.089   5.640  0.7316 -0.3061 -0.4068
35018SOL    HW216779   8.605  11.204   5.726 -0.1838 -0.2466  0.0574
35019SOL     OW16780  11.165  11.663   4.488  0.0395  0.1281 -0.4491
35019SOL    HW116781  11.224  11.601   4.530  1.2866  1.5550  0.0234
35019SOL    HW216782  11.114  11.699   4.560 -0.1424  0.1940 -0.6104
35020SOL     OW16783   2.672   9.491   3.631  0.0466 -0.0503 -0.5453
35020SOL    HW116784   2.623   9.498   3.713 -1.0170 -2.4408 -0.8610
35020SOL    HW216785   2.678   9.580   3.598 -1.6593  0.6647  0.9288
35021SOL     OW16786   5.393  11.452   6.593  0.7266  0.0597  0.1158
35021SOL    HW116787   5.379  11.537   6.552 -0.6706 -0.0523  0.3209
35021SOL    HW216788   5.400  11.391   6.519 -0.2473  0.0784 -0.0024
35022SOL     OW16789   0.567   4.513   6.501 -0.3280 -0.0924  0.4163
35022SOL    HW116790   0.474   4.518   6.479 -0.2712 -0.2099  0.1456
35022SOL    HW216791   0.574   4.436   6.558 -0.4236  0.0208  0.5822
35023SOL     OW16792  10.137   4.612  11.210 -0.1637  0.0743 -0.0936
35023SOL    HW116793  10.121   4.704  11.231 -1.7772  0.0503 -1.0287
35023SOL    HW216794  10.061   4.566  11.245 -0.0138 -0.7231 -0.7811
35024SOL     OW16795   6.921   7.942   3.141  0.6473  0.4094  0.1540
35024SOL    HW116796   6.996   7.997   3.166 -0.2378  3.1417 -2.5332
35024SOL    HW216797   6.913   7.955   3.046 -2.5278 -0.6795  0.1706
35025SOL     OW16798   5.215   5.828   2.107  0.0356  0.4379 -0.6483
35025SOL    HW116799   5.277   5.805   2.176  2.1541 -0.7592 -2.7970
35025SOL    HW216800   5.249   5.784   2.029 -2.0184  2.0376 -2.5650
35026SOL     OW16801   4.893   2.292   5.072 -0.0058 -0.0659  0.5485
35026SOL    HW116802   4.834   2.289   4.997 -0.1847  0.2961  0.6765
35026SOL    HW216803   4.980   2.277   5.034 -0.2585 -1.4481  0.4625
35027SOL     OW16804   1.770   0.353   6.768  0.2405 -0.1260 -0.2591
35027SOL    HW116805   1.767   0.267   6.810  0.3437  0.0849  0.1861
35027SOL    HW216806   1.863   0.373   6.761  0.2295 -0.2768 -0.8312
35028SOL     OW16807   3.643   4.751   7.614  0.1039 -0.5718 -0.2422
35028SOL    HW116808   3.712   4.774   7.677 -0.5217 -0.2125  0.3251
35028SOL    HW216809   3.605   4.671   7.649 -0.4806 -0.1801  0.0457
35029SOL     OW16810   4.009   8.111  10.792  0.3859  0.6327 -0.2500
35029SOL    HW116811   3.929   8.059  10.792  1.7028 -1.7574 -3.6955
35029SOL    HW216812   3.987   8.191  10.744  0.2400 -0.5452 -2.2435
35030SOL     OW16813   6.320   7.947  11.898  0.4377 -0.0649 -0.5760
35030SOL    HW116814   6.326   7.906  11.812  0.9359 -3.0362  0.7663
35030SOL    HW216815   6.406   7.932  11.938  0.5213  2.0595  0.1607
35031SOL     OW16816   3.509   8.207   2.893 -0.2239 -0.1429 -0.0302
35031SOL    HW116817   3.573   8.157   2.842  0.0872  0.0230  0.2026
35031SOL    HW216818   3.430   8.152   2.892 -0.8692  0.7226 -2.3441
35032SOL     OW16819   9.752   7.050   6.079  0.7736 -0.1728 -0.1104
35032SOL    HW116820   9.704   7.130   6.058  0.2093 -0.3459  0.4602
35032SOL    HW216821   9.804   7.031   6.001  1.1292  0.9021 -0.1478
35033SOL     OW16822   5.658   9.710   7.224  0.0929 -0.1503  0.1636
35033SOL    HW116823   5.694   9.635   7.176  1.5567 -0.0217  1.0090
35033SOL    HW216824   5.700   9.706   7.310  0.9123  2.1250 -0.0590
35034SOL     OW16825   1.885   6.757   6.732  0.2143 -0.3862  0.0699
35034SOL    HW116826   1.816   6.737   6.796 -0.2339 -0.5372 -0.4547
35034SOL    HW216827   1.964   6.717   6.770 -0.0606 -0.5388  0.4962
35035SOL     OW16828  11.228   0.989   4.527  0.2242  0.4831  0.0622
35035SOL    HW116829  11.258   0.900   4.508  2.2924  0.9714  0.7494
35035SOL    HW216830  11.216   0.991   4.622  3.2319  1.6932  0.5310
35036SOL     OW16831   1.422   6.346   3.051  0.0381  0.1772 -0.3872
35036SOL    HW116832   1.453   6.393   3.128 -0.2429 -1.7654  0.9748
35036SOL    HW216833   1.496   6.292   3.025  0.0747  0.6946 -1.4136
35037SOL     OW16834  11.382   6.808   9.032  0.0005 -0.3715  0.1401
35037SOL    HW116835  11.398   6.866   9.106 -0.9244  0.9895 -0.6727
35037SOL    HW216836  11.341   6.731   9.070  1.0005 -0.3953  1.2236
35038SOL     OW16837  11.115   9.310   6.758  0.1393  0.0381  0.4631
35038SOL    HW116838  11.178   9.271   6.698 -1.7078 -1.7634 -0.4442
35038SOL    HW216839  11.077   9.236   6.805 -1.0655  1.0628  1.1856
35039SOL     OW16840   9.511   6.707   5.950  0.7317  0.4717  0.0606
35039SOL    HW116841   9.549   6.672   6.031 -0.1376 -1.7254 -0.4018
35039SOL    HW216842   9.430   6.658   5.939  0.2717  1.5292 -1.5603
35040SOL     OW16843  10.328  11.177   7.233 -0.0545  0.1125  0.4299
35040SOL    HW116844  10.258  11.122   7.268 -0.1823  0.0629  0.0995
35040SOL    HW216845  10.389  11.115   7.192  0.5916  0.0864  1.4088
35041SOL     OW16846   2.694   1.701   1.423  0.3173 -0.0642  0.0207
35041SOL    HW116847   2.607   1.740   1.426  0.0434 -0.5909 -0.8204
35041SOL    HW216848   2.730   1.715   1.511 -1.6631 -2.3069  1.2995
35042SOL     OW16849   7.770   9.549   5.982  0.2353 -0.1598  0.2152
35042SOL    HW116850   7.793   9.558   5.890 -0.0686  0.4630  0.1900
35042SOL    HW216851   7.677   9.526   5.981  0.8487 -2.9445  0.3032
35043SOL     OW16852   9.871   0.041   5.553  0.6783  0.1789 -0.5912
35043SOL    HW116853   9.876  -0.052   5.573 -0.0361  0.5808  1.8351
35043SOL    HW216854   9.951   0.078   5.590 -0.2217  0.8425  0.7654
35044SOL     OW16855   4.454  11.756   2.245  0.1138 -0.4622  0.4445
35044SOL    HW116856   4.364  11.787   2.243 -0.2169 -1.2816  1.5871
35044SOL    HW216857   4.471  11.727   2.155 -0.1730  1.2448 -0.1950
35045SOL     OW16858   5.538  11.850   6.859  0.2463  0.1237  0.0186
35045SOL    HW116859   5.604  11.882   6.797 -0.7535 -1.0152 -1.7361
35045SOL    HW216860   5.531  11.756   6.838 -2.0281  0.2557  0.0128
35046SOL     OW16861  11.899   1.555  11.395  0.2435  0.0447 -0.2544
35046SOL    HW116862  11.819   1.579  11.348 -0.9186 -0.5986  1.3117
35046SOL    HW216863  11.903   1.616  11.469  1.7449  0.6882 -0.8156
35047SOL     OW16864   0.514   4.110   5.632  0.3611  0.7825  0.3428
35047SOL    HW116865   0.492   4.150   5.717  0.5414  1.2260  0.1841
35047SOL    HW216866   0.431   4.105   5.586  0.1892  0.1428  0.7086
35048SOL     OW16867   6.261   8.329  10.566 -0.3767 -0.3452  0.0549
35048SOL    HW116868   6.183   8.312  10.513 -0.0999 -2.4204  0.2242
35048SOL    HW216869   6.331   8.340  10.502 -0.7962  1.7586 -0.1064
35049SOL     OW16870   9.555   7.603  10.610 -0.3930 -0.0123 -0.7354
35049SOL    HW116871   9.579   7.678  10.663  1.8845 -0.7530 -0.6256
35049SOL    HW216872   9.514   7.542  10.672 -0.8420  0.4872 -0.5332
35050SOL     OW16873   1.842   8.837   6.552  0.4104  0.1837 -0.2878
35050SOL    HW116874   1.812   8.753   6.586  0.5350  0.0581 -0.4858
35050SOL    HW216875   1.866   8.819   6.461  0.8526  0.3392 -0.2049
35051SOL     OW16876   5.694   5.749   6.280  0.2383  0.1898 -0.2321
35051SOL    HW116877   5.739   5.733   6.363 -0.8472  0.9786  0.5268
35051SOL    HW216878   5.721   5.838   6.255 -0.3488  0.3958 -0.1326
35052SOL     OW16879   9.616   3.022   4.447 -0.3459 -0.4823 -0.0737
35052SOL    HW116880   9.605   3.091   4.512 -0.7259 -0.1931 -0.4407
35052SOL    HW216881   9.690   3.049   4.394  0.0677 -0.7975  0.3304
35053SOL     OW16882   3.999   6.744   0.091  0.1770  0.2351 -0.5108
35053SOL    HW116883   3.966   6.731   0.002 -0.0321 -1.0307 -0.2642
35053SOL    HW216884   3.920   6.749   0.145  0.2821 -2.5617  0.0487
35054SOL     OW16885   0.504   1.559   5.394  0.1552 -1.0202  0.0463
35054SOL    HW116886   0.599   1.544   5.399  0.5804 -0.0276 -2.9740
35054SOL    HW216887   0.475   1.503   5.322 -1.3798 -0.4857  0.2222
35055SOL     OW16888   2.187   4.819   8.007 -0.0278  0.1199  0.1518
35055SOL    HW116889   2.140   4.812   8.090 -2.4907  1.6740 -0.9584
35055SOL    HW216890   2.241   4.898   8.016 -0.0213  0.0816  0.4244
35056SOL     OW16891   2.764   5.906   0.295  0.0018 -0.5405 -0.2682
35056SOL    HW116892   2.815   5.987   0.297 -0.6853 -0.1152  0.1331
35056SOL    HW216893   2.682   5.930   0.251  0.2796 -1.3020 -1.2276
35057SOL     OW16894   2.296   6.911   7.950 -0.1046 -0.1018 -0.6425
35057SOL    HW116895   2.383   6.946   7.965  0.0552 -0.4187 -0.8273
35057SOL    HW216896   2.307   6.847   7.880 -0.1304 -1.5661  0.6364
35058SOL     OW16897   2.706   7.064   0.690 -0.4258 -0.6828 -0.8552
35058SOL    HW116898   2.616   7.068   0.657 -0.5912  0.2363 -0.3546
35058SOL    HW216899   2.759   7.101   0.620 -0.6307  0.1566 -0.5836
35059SOL     OW16900  10.000   3.290   1.706 -0.4020  0.1192 -0.1887
35059SOL    HW116901  10.057   3.363   1.680  0.7644 -1.0291 -0.9860
35059SOL    HW216902   9.985   3.303   1.800  1.2119  0.4520  0.0494
35060SOL     OW16903   4.841   3.798  10.886  0.3716 -0.3122  0.0744
35060SOL    HW116904   4.796   3.769  10.806 -1.1124  1.0379  0.3700
35060SOL    HW216905   4.773   3.843  10.936  2.1908  2.4709  0.2234
35061SOL     OW16906   5.440   6.121   4.357 -0.3325  0.4284  0.1078
35061SOL    HW116907   5.533   6.145   4.356 -0.0768 -0.4995 -1.4405
35061SOL    HW216908   5.408   6.153   4.441  0.7961  3.0002 -0.3285
35062SOL     OW16909   4.878   9.000   4.382 -0.1483  0.4341 -0.4266
35062SOL    HW116910   4.786   9.021   4.399  0.4377  3.2096 -0.2537
35062SOL    HW216911   4.925   9.082   4.397  2.7728 -1.4709  2.1867
35063SOL     OW16912   5.190   4.094   9.078  0.3492  0.2838 -0.3174
35063SOL    HW116913   5.257   4.119   9.142 -0.1379 -0.9944  0.7535
35063SOL    HW216914   5.162   4.176   9.038  1.6806  0.9625  0.0870
35064SOL     OW16915   9.357   7.546   7.424  0.0482 -0.1640  0.3738
35064SOL    HW116916   9.314   7.462   7.409 -1.0729  0.2692  1.0154
35064SOL    HW216917   9.389   7.572   7.338 -0.4390 -0.7944 -0.0129
35065SOL     OW16918   4.249   6.042   2.116  0.2569  0.2018 -0.1123
35065SOL    HW116919   4.175   5.982   2.117  0.4036 -0.0039  1.3753
35065SOL    HW216920   4.294   6.026   2.199  0.4050  2.2285  0.2613
35066SOL     OW16921   9.221   1.917   6.359 -0.7572  0.5909 -0.4150
35066SOL    HW116922   9.290   1.953   6.303  0.4098  1.6336  1.5731
35066SOL    HW216923   9.141   1.957   6.326  0.0723  2.2609 -0.5292
35067SOL     OW16924   8.509   1.063   6.230 -0.4522 -0.2372 -0.4498
35067SOL    HW116925   8.445   1.108   6.174 -0.9615  0.4248  0.6333
35067SOL    HW216926   8.468   1.062   6.317  1.2075  0.6660  0.3874
35068SOL     OW16927  11.256   1.269   6.824 -0.6403 -0.1993  0.1650
35068SOL    HW116928  11.343   1.231   6.816 -0.6541 -0.0638 -0.7159
35068SOL    HW216929  11.226   1.242   6.911 -0.5904 -2.1165 -0.3499
35069SOL     OW16930   3.451  10.594   7.327  0.3177 -0.1315 -0.2079
35069SOL    HW116931   3.412  10.666   7.278  0.9279 -0.0175 -0.5346
35069SOL    HW216932   3.432  10.516   7.275 -0.9260 -0.3166  0.4792
35070SOL     OW16933   9.599   5.939   4.078 -0.2415 -0.1882  0.5839
35070SOL    HW116934   9.576   5.846   4.077  0.5588 -0.4067  1.1573
35070SOL    HW216935   9.634   5.954   4.166  1.0591  0.2805  0.0122
35071SOL     OW16936   2.859   7.138   3.330  0.3653  0.3058 -0.0863
35071SOL    HW116937   2.951   7.115   3.344  0.0890 -0.9735 -0.2451
35071SOL    HW216938   2.812   7.055   3.336 -0.6358  0.7441 -1.3240
35072SOL     OW16939   7.032  10.995   2.690  0.1300 -0.2119  0.1961
35072SOL    HW116940   7.025  10.915   2.639 -0.1109  0.3302 -0.6431
35072SOL    HW216941   7.125  11.003   2.710  0.1631 -0.6622  0.2278
35073SOL     OW16942   8.261   9.957   6.686 -0.0467 -0.3319  0.1058
35073SOL    HW116943   8.354   9.938   6.677 -0.1613 -0.3943 -1.0777
35073SOL    HW216944   8.253  10.001   6.771  1.1865  0.5285 -0.2167
35074SOL     OW16945   6.653   4.198  11.818  0.3653 -0.0544 -0.7305
35074SOL    HW116946   6.692   4.284  11.833  0.6567 -0.2995 -0.0190
35074SOL    HW216947   6.690   4.143  11.887  0.0452 -0.7088 -1.0693
35075SOL     OW16948   0.434   0.294   3.123 -0.6611 -0.1466  0.0033
35075SOL    HW116949   0.372   0.238   3.076 -1.9266  0.4398  0.9479
35075SOL    HW216950   0.514   0.241   3.126 -0.6320 -0.3907 -2.3917
35076SOL     OW16951   3.204   8.251   5.994 -1.1718 -0.5590  0.6299
35076SOL    HW116952   3.249   8.291   6.067  2.4347 -2.1798 -0.4835
35076SOL    HW216953   3.189   8.160   6.021  1.0158 -1.4358 -0.8033
35077SOL     OW16954   8.125   5.546   0.016 -0.2424 -0.3281 -0.2538
35077SOL    HW116955   8.186   5.572   0.085  0.6957 -2.7089 -0.0684
35077SOL    HW216956   8.074   5.625  -0.003  2.3879  1.5793  0.0860
35078SOL     OW16957   4.336   1.993   4.983 -0.1925 -0.2025 -0.6225
35078SOL    HW116958   4.411   2.052   4.972  1.0524 -1.4368  0.8077
35078SOL    HW216959   4.260   2.051   4.987  1.0755  1.4277  1.7068
35079SOL     OW16960   7.603   4.596   0.896 -0.5662 -0.2573  0.1079
35079SOL    HW116961   7.589   4.556   0.810 -2.3083 -0.7220  0.5812
35079SOL    HW216962   7.658   4.533   0.943  0.8414  0.2365 -0.7920
35080SOL     OW16963   9.847   9.081   7.572  0.1272 -0.1089 -0.0411
35080SOL    HW116964   9.782   9.148   7.551  0.0862 -0.6558 -1.8040
35080SOL    HW216965   9.797   9.010   7.612 -0.0256  0.3403  0.5803
35081SOL     OW16966   0.223  10.438   9.216 -0.1845 -0.0139  0.1004
35081SOL    HW116967   0.263  10.525   9.213  0.2384 -0.2396 -1.0008
35081SOL    HW216968   0.195  10.421   9.126 -1.2569 -0.5692  0.5176
35082SOL     OW16969   8.897   3.105  11.762 -0.4023 -0.2836  0.4254
35082SOL    HW116970   8.905   3.196  11.731  2.9096 -0.4440  0.4804
35082SOL    HW216971   8.884   3.054  11.682  2.1877 -0.1121 -0.1937
35083SOL     OW16972   6.564  11.953   4.622 -0.4730 -0.1957  0.4222
35083SOL    HW116973   6.559  11.890   4.550 -0.3532 -0.4032  0.5934
35083SOL    HW216974   6.643  12.004   4.605 -0.3814 -0.3224  0.4703
35084SOL     OW16975   4.465   8.683   5.250  0.8601  0.6087 -0.1107
35084SOL    HW116976   4.444   8.627   5.325  0.6743  0.9966  0.1281
35084SOL    HW216977   4.558   8.666   5.232  0.5581 -0.5504 -0.6916
35085SOL     OW16978   8.009   6.840   9.447 -0.6993  0.3941  0.1735
35085SOL    HW116979   8.027   6.775   9.515  1.1267 -0.3448 -0.9371
35085SOL    HW216980   7.916   6.830   9.428 -0.6640 -1.2440  0.7070
35086SOL     OW16981   0.457   4.004   1.103  0.3021 -0.5303  0.3629
35086SOL    HW116982   0.426   3.922   1.142 -1.4926 -0.2460 -0.3876
35086SOL    HW216983   0.446   3.992   1.009  2.5392 -0.3801  0.0062
35087SOL     OW16984   2.192   2.920   4.522  0.0466  0.4126 -0.3461
35087SOL    HW116985   2.173   2.840   4.571  1.1868  0.6071  0.4552
35087SOL    HW216986   2.159   2.902   4.433  0.1846 -0.8944 -0.1533
35088SOL     OW16987   4.537   5.192   9.575  0.1091 -0.6383 -0.0725
35088SOL    HW116988   4.446   5.168   9.589  0.3630 -0.5411  1.9778
35088SOL    HW216989   4.555   5.164   9.485 -2.6521  1.7072 -1.5078
35089SOL     OW16990   7.970   0.644   9.487  0.1361 -0.3216 -0.3482
35089SOL    HW116991   8.038   0.650   9.554 -0.5615  0.1178  0.3319
35089SOL    HW216992   7.951   0.550   9.481 -1.8387 -0.1914  2.2076
35090SOL     OW16993   8.486   5.417   7.507 -0.0954 -0.5420  0.7483
35090SOL    HW116994   8.525   5.429   7.594  1.5673  0.4740 -0.0857
35090SOL    HW216995   8.534   5.343   7.469  0.0123 -0.2168  0.2459
35091SOL     OW16996   8.977   5.439   9.086 -0.5203  0.2534  0.7827
35091SOL    HW116997   8.940   5.523   9.113 -0.1464 -0.0577  2.3328
35091SOL    HW216998   9.070   5.445   9.109  0.0593  0.3418 -1.3941
35092SOL     OW16999   9.946   9.915  11.468  0.0404  0.0402  0.1568
35092SOL    HW117000  10.037   9.891  11.486  0.1607  0.8160  0.6407
35092SOL    HW217001   9.914   9.845  11.412  0.5816 -0.8698  0.9416
35093SOL     OW17002   6.535   0.671   7.822 -0.4999 -0.4678  0.0421
35093SOL    HW117003   6.570   0.589   7.787  1.3820  0.5965 -0.6932
35093SOL    HW217004   6.539   0.661   7.917 -2.0617 -1.9051  0.0125
35094SOL     OW17005   8.139  10.863  11.369  0.1262  0.0997  0.2031
35094SOL    HW117006   8.110  10.801  11.302  0.0469  0.6381 -0.2683
35094SOL    HW217007   8.057  10.898  11.406  0.1681 -0.2363  0.6279
35095SOL     OW17008   6.795   4.306   3.647  0.1244 -0.3769  0.4204
35095SOL    HW117009   6.732   4.280   3.714  1.2037 -2.1635  0.8118
35095SOL    HW217010   6.841   4.381   3.685 -0.8627  0.1266  0.6611
35096SOL     OW17011   2.243  11.487  11.807 -0.1376  0.2212 -0.4646
35096SOL    HW117012   2.204  11.511  11.723 -0.1738 -0.6801 -0.7239
35096SOL    HW217013   2.170  11.451  11.857 -0.0707  0.5537 -0.1277
35097SOL     OW17014   4.552   6.465   7.065 -0.3425  0.1834  0.3634
35097SOL    HW117015   4.603   6.542   7.041  2.3139 -1.5545  0.0795
35097SOL    HW217016   4.535   6.475   7.158 -2.1191  2.1699 -0.0830
35098SOL     OW17017   3.947   5.624   7.401 -0.0427  0.4781 -0.2844
35098SOL    HW117018   4.005   5.675   7.457  0.5965  0.0229 -0.5210
35098SOL    HW217019   3.875   5.599   7.459 -0.0833  1.1693 -0.0262
35099SOL     OW17020   5.114   0.194   1.590  0.1791  0.5800  0.0160
35099SOL    HW117021   5.028   0.175   1.627  0.0620 -0.3140 -0.6730
35099SOL    HW217022   5.117   0.143   1.509  1.1307  1.0644 -0.2716
35100SOL     OW17023   1.461   2.289   2.475  0.3894 -0.0217 -0.1980
35100SOL    HW117024   1.530   2.247   2.526  0.6479  2.1651  1.4354
35100SOL    HW217025   1.498   2.374   2.451 -0.8160  0.1502 -1.5535
35101SOL     OW17026   4.568   7.845   7.910 -0.1146 -0.2476 -0.3737
35101SOL    HW117027   4.569   7.830   7.816  0.4678 -0.4565 -0.3389
35101SOL    HW217028   4.628   7.779   7.946 -1.4680 -1.1650  0.2945
35102SOL     OW17029   7.276   9.072   9.077  0.0629 -0.6223 -0.1055
35102SOL    HW117030   7.324   9.010   9.133 -1.5576 -1.6738  0.1862
35102SOL    HW217031   7.185   9.064   9.105 -0.2644  1.5566 -0.4195
35103SOL     OW17032   6.992   7.673   6.140  0.6822 -0.3698 -0.3459
35103SOL    HW117033   7.072   7.725   6.148 -0.6815  1.6487  0.9631
35103SOL    HW217034   6.935   7.725   6.084 -1.2095  0.2632  2.0387
35104SOL     OW17035   3.472   5.716  10.073 -0.4421  0.3811 -0.1579
35104SOL    HW117036   3.395   5.768  10.094 -0.8190 -0.5249  0.7913
35104SOL    HW217037   3.515   5.701  10.157  0.9082  1.0456 -0.6865
35105SOL     OW17038   3.189   7.276   9.876  0.1025 -0.3267 -0.1960
35105SOL    HW117039   3.255   7.208   9.860 -0.0991 -0.5664 -0.0305
35105SOL    HW217040   3.124   7.263   9.807  0.8236  0.6856 -1.0937
35106SOL     OW17041   0.411   5.884   6.048 -0.2079 -0.2964 -0.6162
35106SOL    HW117042   0.438   5.870   5.957  1.1083 -0.1251 -0.2836
35106SOL    HW217043   0.479   5.841   6.100  0.8723  2.2815  0.3154
35107SOL     OW17044   2.811   5.942   9.665  0.0112  0.1072  0.0691
35107SOL    HW117045   2.771   5.865   9.705  0.9863  0.4906  1.8987
35107SOL    HW217046   2.836   5.913   9.577  0.3672 -1.6766  0.7267
35108SOL     OW17047  10.455   0.613   8.859 -0.3202  0.1208  0.2452
35108SOL    HW117048  10.445   0.707   8.843  1.0682  0.2911  0.3176
35108SOL    HW217049  10.531   0.606   8.917  0.1439 -1.1064 -0.4805
35109SOL     OW17050   6.447   1.876  11.761 -0.5824  0.2115 -0.4653
35109SOL    HW117051   6.535   1.853  11.731  0.5832  3.6388 -0.1699
35109SOL    HW217052   6.388   1.828  11.703  1.5292  0.3191 -2.9030
35110SOL     OW17053   6.030   2.511   9.414 -0.3315  0.2083  0.3993
35110SOL    HW117054   6.014   2.567   9.490 -0.0369  0.0455  0.5791
35110SOL    HW217055   5.942   2.486   9.385 -0.4328 -0.1761  1.0200
35111SOL     OW17056   2.065   4.197   0.203  0.0987  0.0638 -0.0665
35111SOL    HW117057   1.975   4.192   0.234  0.1339 -0.8450 -0.0949
35111SOL    HW217058   2.117   4.152   0.269  0.5862  0.8845  0.1241
35112SOL     OW17059  11.847   4.683   0.672 -0.0319 -0.1172  0.9791
35112SOL    HW117060  11.843   4.681   0.768  1.5126 -0.3030  1.0639
35112SOL    HW217061  11.932   4.721   0.652 -0.6483  0.6221 -0.3429
35113SOL     OW17062   9.952   1.225   6.198  0.2055  0.2917 -0.7377
35113SOL    HW117063   9.861   1.202   6.217 -0.1196  0.8857 -1.5214
35113SOL    HW217064   9.947   1.286   6.125  1.2335  0.4207 -0.7216
35114SOL     OW17065   5.969   0.069   1.398 -0.4971 -0.3590  0.4133
35114SOL    HW117066   6.030  -0.003   1.381 -0.4588 -0.2662  0.1559
35114SOL    HW217067   6.013   0.122   1.465  0.5986  0.7712 -1.1365
35115SOL     OW17068   9.303   6.148   6.335 -0.2191  0.6071 -0.3111
35115SOL    HW117069   9.293   6.169   6.428 -0.8132 -0.8272 -0.0155
35115SOL    HW217070   9.213   6.131   6.306 -0.0756  1.4227 -1.2557
35116SOL     OW17071   5.074   5.440   5.898 -0.3679 -0.5283  0.3220
35116SOL    HW117072   4.993   5.490   5.885  1.0331  1.6780 -0.4108
35116SOL    HW217073   5.050   5.372   5.961 -2.6880  0.2657  0.4013
35117SOL     OW17074   4.534   0.045   1.958 -0.0981 -0.2810 -0.2175
35117SOL    HW117075   4.593  -0.028   1.976 -3.3802 -3.0145  0.7433
35117SOL    HW217076   4.525   0.090   2.041  1.3393  0.7907 -0.6188
35118SOL     OW17077   5.833   4.766   4.091  0.1776 -0.5642 -0.2232
35118SOL    HW117078   5.803   4.774   4.182 -0.1551 -0.5124 -0.3351
35118SOL    HW217079   5.776   4.699   4.053 -0.4915  0.2684 -0.7232
35119SOL     OW17080   6.545   8.076   3.635  0.2743  0.3219  0.0129
35119SOL    HW117081   6.479   8.012   3.610 -1.4603  1.7853  0.5856
35119SOL    HW217082   6.564   8.124   3.554 -1.7732  1.9198  0.3736
35120SOL     OW17083   4.772   7.431   2.386 -0.2407  0.0879  0.3369
35120SOL    HW117084   4.813   7.516   2.404 -0.9081  0.4136  0.3478
35120SOL    HW217085   4.774   7.385   2.470  0.2087  0.0519  0.3091
35121SOL     OW17086   7.047   4.837   8.236 -0.3541 -0.1068  0.5309
35121SOL    HW117087   6.975   4.794   8.283 -1.8919  1.9052  0.1651
35121SOL    HW217088   7.061   4.919   8.284  0.7880  0.1357 -0.1903
35122SOL     OW17089  11.183   3.848  10.538 -0.0817  0.0834  0.1101
35122SOL    HW117090  11.228   3.919  10.583 -1.0993  0.7998  0.0221
35122SOL    HW217091  11.158   3.787  10.607  2.2777 -1.0886  0.0239
35123SOL     OW17092   3.335   5.549   4.438 -0.0606  0.1225 -0.4874
35123SOL    HW117093   3.339   5.608   4.362 -0.2255 -0.3188 -0.8432
35123SOL    HW217094   3.392   5.590   4.503 -0.8884  1.1723 -0.3791
35124SOL     OW17095  11.361   7.644   9.570  0.0846  0.2901 -0.1287
35124SOL    HW117096  11.297   7.601   9.628 -0.1660  0.6520 -0.1314
35124SOL    HW217097  11.364   7.734   9.601  0.3949  0.3414 -0.3050
35125SOL     OW17098   2.643   2.496   4.889  0.2932  0.5695 -0.1803
35125SOL    HW117099   2.665   2.480   4.981  0.2083 -0.9688 -0.4124
35125SOL    HW217100   2.728   2.509   4.846  0.3691  0.6473 -0.0085
35126SOL     OW17101   9.314   5.759   9.936 -0.0541  0.2913 -0.2528
35126SOL    HW117102   9.242   5.741   9.875 -0.6479  0.4760  0.3877
35126SOL    HW217103   9.372   5.684   9.926 -1.3782 -0.9405  0.7358
35127SOL     OW17104   2.555   5.087   5.428 -0.3844 -0.1375  0.3431
35127SOL    HW117105   2.541   5.124   5.341  1.6645 -0.7681 -0.3183
35127SOL    HW217106   2.649   5.098   5.443 -0.5669 -0.7959  2.1332
35128SOL     OW17107   0.833  10.750   6.326  0.1877 -0.3629 -0.1059
35128SOL    HW117108   0.844  10.697   6.247  0.5199 -0.2521 -0.1373
35128SOL    HW217109   0.911  10.806   6.328  0.1200 -0.2777  0.2333
35129SOL     OW17110   2.630   7.282  11.885 -0.8757  0.1886  0.0704
35129SOL    HW117111   2.684   7.358  11.863 -0.4213 -0.3413 -0.6501
35129SOL    HW217112   2.682   7.233  11.948 -0.0583 -0.8256 -1.3341
35130SOL     OW17113   7.641   9.901   3.987  0.3388  0.1301 -0.0436
35130SOL    HW117114   7.636   9.908   4.083  2.7637  0.0142  0.1588
35130SOL    HW217115   7.560   9.856   3.962 -0.3504  0.1562  1.9503
35131SOL     OW17116  11.909   2.877   5.911 -0.0364 -0.1078 -0.8796
35131SOL    HW117117  11.852   2.811   5.949  0.6256  0.7960  1.8859
35131SOL    HW217118  11.985   2.827   5.879  0.5255 -0.7384  1.2950
35132SOL     OW17119   0.771   1.034   2.057 -0.4508 -0.2566  0.6851
35132SOL    HW117120   0.817   1.009   2.138  0.4823 -0.7693  0.0160
35132SOL    HW217121   0.700   0.971   2.050  0.1542 -0.9284  0.5161
35133SOL     OW17122  11.679   3.458   6.575  0.4072  0.0985  0.6364
35133SOL    HW117123  11.679   3.413   6.491  0.8560  0.5554  0.3877
35133SOL    HW217124  11.624   3.403   6.631  0.5006 -0.4660  0.1879
35134SOL     OW17125   5.687   0.839   6.706 -0.0910  0.2490 -0.4241
35134SOL    HW117126   5.699   0.868   6.797 -1.6000 -1.0716  0.2366
35134SOL    HW217127   5.602   0.874   6.681 -1.3884 -2.3761 -0.0321
35135SOL     OW17128   3.701   7.395   9.963  0.2599  0.6667  0.1436
35135SOL    HW117129   3.662   7.482   9.972  1.0771  0.9304  1.3736
35135SOL    HW217130   3.631   7.335   9.987  0.3300  1.1044  1.5662
35136SOL     OW17131   1.163   0.026   8.480  0.7264 -0.1603 -0.4639
35136SOL    HW117132   1.169   0.004   8.573  1.8866  0.2507 -0.4249
35136SOL    HW217133   1.254   0.034   8.451  0.4047  2.0632 -1.0631
35137SOL     OW17134   9.830   4.224  11.775  0.1086  0.0609 -0.6694
35137SOL    HW117135   9.837   4.305  11.826  1.3198 -0.8715  0.7463
35137SOL    HW217136   9.913   4.179  11.791  0.3978 -0.4484 -3.2547
35138SOL     OW17137  10.810  11.578  10.528 -0.3205  0.3962 -0.6524
35138SOL    HW117138  10.846  11.663  10.554  1.1641 -0.2090 -0.6252
35138SOL    HW217139  10.763  11.548  10.606  1.5260 -0.0375  0.3723
35139SOL     OW17140   0.184   5.193   9.481 -0.0636 -0.7044 -0.5497
35139SOL    HW117141   0.235   5.240   9.415  0.3689 -0.4703 -0.0614
35139SOL    HW217142   0.248   5.139   9.527 -0.5042 -1.5076 -0.8731
35140SOL     OW17143  10.759   9.141  10.318  0.2546 -0.3322 -0.3411
35140SOL    HW117144  10.835   9.102  10.276  0.3247  0.7426 -1.2626
35140SOL    HW217145  10.758   9.232  10.287 -1.5818 -0.4024 -0.6535
35141SOL     OW17146   2.739   7.803   2.223  0.1544  0.6566 -0.0930
35141SOL    HW117147   2.822   7.851   2.223 -0.4323  1.6898 -0.2126
35141SOL    HW217148   2.718   7.792   2.316 -0.2413  1.5776 -0.0678
35142SOL     OW17149  11.068   7.789   7.708 -0.1713 -0.2268  0.3917
35142SOL    HW117150  11.160   7.812   7.695 -0.2656  0.4339  0.8711
35142SOL    HW217151  11.065   7.748   7.794 -0.1924 -1.0346  0.0161
35143SOL     OW17152   1.348   5.640  11.130  0.1726 -0.6639  0.0036
35143SOL    HW117153   1.293   5.605  11.200  0.6878 -0.5443  0.4756
35143SOL    HW217154   1.288   5.688  11.073 -0.2779 -0.9207  0.2591
35144SOL     OW17155   9.502   5.976   2.853  0.2047 -0.1969  0.3152
35144SOL    HW117156   9.593   6.002   2.861  0.2167  0.2865 -1.0740
35144SOL    HW217157   9.473   6.015   2.770 -0.6700 -2.0057 -0.2990
35145SOL     OW17158   5.566   7.473   7.153  0.2686  0.2685  0.0520
35145SOL    HW117159   5.631   7.504   7.090  1.8270  0.5200  1.6963
35145SOL    HW217160   5.500   7.543   7.156  2.0120  1.9631  1.2542
35146SOL     OW17161   5.777   6.499   3.478 -0.0305  0.0419 -0.6780
35146SOL    HW117162   5.791   6.569   3.543  2.1475  0.9885 -2.0650
35146SOL    HW217163   5.713   6.535   3.417 -1.5149 -0.5628  0.4602
35147SOL     OW17164   0.196   1.017   1.506  0.2382 -0.0524 -0.0090
35147SOL    HW117165   0.109   1.049   1.482  0.1049  0.4187  1.0316
35147SOL    HW217166   0.216   0.950   1.441 -0.6104  0.3098 -0.6635
35148SOL     OW17167  11.857   4.974   1.462 -0.1047 -0.1690 -0.1410
35148SOL    HW117168  11.840   4.886   1.497 -0.4828 -0.3166 -0.6788
35148SOL    HW217169  11.933   4.963   1.405  1.6567  0.4115  1.9381
35149SOL     OW17170   1.839   2.975   4.992  0.2021  0.2399  0.0065
35149SOL    HW117171   1.835   2.931   5.077 -1.2135  0.9169  0.3181
35149SOL    HW217172   1.932   2.971   4.968  0.6857  0.2617  1.6942
35150SOL     OW17173   8.768   9.118   5.288  0.4687  0.1059 -0.6098
35150SOL    HW117174   8.737   9.030   5.309 -0.9606  0.5095 -0.9620
35150SOL    HW217175   8.863   9.113   5.299  0.3580 -1.3426 -0.1477
35151SOL     OW17176   9.374  10.682   8.085  0.4237 -0.0011 -0.0223
35151SOL    HW117177   9.455  10.641   8.115 -0.2405 -1.2849  0.0927
35151SOL    HW217178   9.403  10.756   8.032  1.6336  1.1796  2.1789
35152SOL     OW17179   3.597   0.888   8.864  0.0030  0.4607  0.0547
35152SOL    HW117180   3.602   0.946   8.789 -0.2429  0.8016  0.2993
35152SOL    HW217181   3.513   0.842   8.853  1.2965 -1.6834 -1.4565
35153SOL     OW17182   9.333   6.291   1.770 -0.3413 -0.2565 -0.0135
35153SOL    HW117183   9.360   6.206   1.735 -0.2826  0.3835 -1.5609
35153SOL    HW217184   9.409   6.322   1.820 -0.8034 -1.6526  1.6748
35154SOL     OW17185   2.484   9.051   8.133  0.4079  0.2049 -0.3411
35154SOL    HW117186   2.480   9.138   8.093  0.0742  0.8961  1.1175
35154SOL    HW217187   2.455   8.991   8.064 -0.5569  1.3869 -0.9935
35155SOL     OW17188   2.708   4.289  11.639 -0.0086  1.0042 -0.4143
35155SOL    HW117189   2.629   4.307  11.588  0.4028  0.0624 -1.4187
35155SOL    HW217190   2.684   4.215  11.695 -0.2573  1.6166  0.2997
35156SOL     OW17191   7.496   0.965   4.643  0.1928  0.4894  0.2798
35156SOL    HW117192   7.461   0.972   4.554 -0.7015  1.6023  0.7072
35156SOL    HW217193   7.548   1.045   4.654 -0.5286  0.8571  1.1058
35157SOL     OW17194   0.504   1.215   7.913 -0.5691  0.6501 -0.7069
35157SOL    HW117195   0.422   1.175   7.882 -0.7253 -0.2293  0.7413
35157SOL    HW217196   0.570   1.146   7.902 -0.3551  0.7988 -0.3663
35158SOL     OW17197   3.006   4.664   3.951  0.2914 -0.2059  0.2090
35158SOL    HW117198   2.991   4.722   4.026 -0.5429  1.1639 -0.9630
35158SOL    HW217199   3.094   4.628   3.965  1.0644  1.7753  0.7095
35159SOL     OW17200   5.815   9.201   1.953  0.2026  0.2947  0.1319
35159SOL    HW117201   5.720   9.204   1.965  0.3516 -0.2376  1.5774
35159SOL    HW217202   5.849   9.272   2.007  0.7423 -0.6493  1.0579
35160SOL     OW17203  11.055   5.648   9.644  0.7638 -0.0684 -0.7988
35160SOL    HW117204  11.096   5.678   9.563  1.6762  1.6592  0.2459
35160SOL    HW217205  11.124   5.656   9.710 -0.4825  0.3388  0.4970
35161SOL     OW17206   7.859   2.380   7.969  0.1032  0.3275  0.1491
35161SOL    HW117207   7.808   2.309   8.008  0.0444  0.1105 -0.3288
35161SOL    HW217208   7.947   2.369   8.006 -0.1161  0.5321  0.7535
35162SOL     OW17209   1.623   9.876   7.641  0.3131  0.6830 -0.0773
35162SOL    HW117210   1.702   9.929   7.656 -0.5999  2.3886 -1.0423
35162SOL    HW217211   1.626   9.856   7.547  0.9226 -1.5258  0.3580
35163SOL     OW17212   6.249  11.646  11.003  0.3935 -0.5816  0.4055
35163SOL    HW117213   6.339  11.677  10.996  0.8108 -1.4268  1.7376
35163SOL    HW217214   6.246  11.569  10.946  0.0983  0.2709 -0.7662
35164SOL     OW17215   6.504   8.860   2.451  0.8391  0.2697  0.0225
35164SOL    HW117216   6.590   8.850   2.492  1.2380 -2.6244 -1.2120
35164SOL    HW217217   6.442   8.835   2.519  0.9017  2.4828  0.9558
35165SOL     OW17218   5.246   7.233   5.858  0.3566  0.3825 -0.2862
35165SOL    HW117219   5.204   7.282   5.787  0.4644  1.9151  0.6459
35165SOL    HW217220   5.332   7.210   5.824 -0.5306 -1.2250 -1.5697
35166SOL     OW17221  11.025   8.352   8.324 -0.1206  0.0420  0.4766
35166SOL    HW117222  10.982   8.403   8.255 -1.4716  0.6728  1.7207
35166SOL    HW217223  11.056   8.417   8.386 -0.5900 -0.5729  1.3787
35167SOL     OW17224   4.221   2.500   7.150  0.4048  0.5450 -0.1544
35167SOL    HW117225   4.185   2.501   7.238 -0.7408 -1.0117 -0.5544
35167SOL    HW217226   4.254   2.589   7.136 -0.3583  1.1107  1.4405
35168SOL     OW17227   1.309  10.491   7.560  0.3806 -0.6104 -0.3237
35168SOL    HW117228   1.256  10.516   7.635  1.5187 -0.1039  0.3381
35168SOL    HW217229   1.262  10.526   7.484  0.2670  0.7160  0.3308
35169SOL     OW17230   6.414   4.678   2.197  0.0378  0.9347 -0.0918
35169SOL    HW117231   6.483   4.696   2.261 -0.2426  0.8189  0.2463
35169SOL    HW217232   6.411   4.582   2.192 -0.5587  0.9228  0.4018
35170SOL     OW17233   3.767   5.588   2.847  0.0162 -0.5307 -0.1003
35170SOL    HW117234   3.801   5.577   2.936  0.2493 -1.1559 -0.2612
35170SOL    HW217235   3.789   5.506   2.802  1.6317  0.4971 -1.3101
35171SOL     OW17236   0.709   3.136   2.361 -0.2031 -0.0315  0.5652
35171SOL    HW117237   0.614   3.151   2.358  0.0037  1.4468  0.7929
35171SOL    HW217238   0.722   3.078   2.436 -0.6532  2.3796  2.6404
35172SOL     OW17239   8.122   0.041   7.761 -0.0919  0.0441 -0.0742
35172SOL    HW117240   8.179   0.054   7.836  2.0556 -1.5560 -1.3240
35172SOL    HW217241   8.034   0.058   7.795  0.9373  1.0731  2.3230
35173SOL     OW17242   6.655   0.841   2.045  0.2256  0.0804 -0.2930
35173SOL    HW117243   6.582   0.799   2.090 -0.1890  0.5139 -0.5564
35173SOL    HW217244   6.728   0.832   2.106 -0.3182  0.6309  0.4582
35174SOL     OW17245   7.165   1.776   3.209 -0.1925 -0.0568 -0.0979
35174SOL    HW117246   7.103   1.704   3.204 -0.0102 -0.1816 -0.6403
35174SOL    HW217247   7.251   1.733   3.214 -0.0826  0.1226 -0.4333
35175SOL     OW17248   7.800   9.334   0.096 -0.6797 -0.9291 -0.1671
35175SOL    HW117249   7.838   9.250   0.069 -2.4789 -1.2880 -1.7512
35175SOL    HW217250   7.706   9.325   0.081 -0.8033  1.8512 -1.9060
35176SOL     OW17251   7.727   4.427  10.313  0.1165 -0.0795  0.0184
35176SOL    HW117252   7.786   4.352  10.314  2.1235  1.3918  1.7882
35176SOL    HW217253   7.731   4.462  10.401 -3.0321  0.4898  0.0613
35177SOL     OW17254   7.886   5.760   3.896 -0.1994  0.0793  0.5252
35177SOL    HW117255   7.887   5.779   3.990  0.4165  1.3134  0.2982
35177SOL    HW217256   7.914   5.842   3.855  1.3189 -0.9624 -0.6475
35178SOL     OW17257   5.917   4.638  10.519 -0.2737  0.1911  0.2373
35178SOL    HW117258   5.899   4.719  10.471  0.0292  1.7805  2.6788
35178SOL    HW217259   6.004   4.612  10.490 -0.0932  1.1115 -0.0730
35179SOL     OW17260   6.378   6.907   2.017 -0.0625  0.1276  0.2848
35179SOL    HW117261   6.411   6.962   2.088 -0.5542 -0.6327  1.1106
35179SOL    HW217262   6.431   6.933   1.941  4.1910 -2.5804  1.9578
35180SOL     OW17263   3.606   6.407  10.604  0.0893 -0.2179  1.2139
35180SOL    HW117264   3.557   6.346  10.550 -0.5482 -1.1128  2.7515
35180SOL    HW217265   3.677   6.354  10.642  1.7965  0.8521 -0.2843
35181SOL     OW17266   5.405   1.928   0.656 -0.3365  0.5586 -0.2644
35181SOL    HW117267   5.359   1.981   0.591 -1.8408  1.6065  1.5725
35181SOL    HW217268   5.355   1.846   0.659 -0.1882  0.4568 -0.4875
35182SOL     OW17269   1.253  10.778  10.371  0.2105 -0.0258  0.1304
35182SOL    HW117270   1.165  10.751  10.346  0.1362  1.2541 -1.1520
35182SOL    HW217271   1.306  10.762  10.293  0.8215  0.4739  0.4314
35183SOL     OW17272  10.445  11.110   2.938 -0.3775 -0.5643 -0.0800
35183SOL    HW117273  10.453  11.019   2.966  0.2279  0.3616  3.1755
35183SOL    HW217274  10.535  11.140   2.929 -0.4500  0.5129  2.1301
35184SOL     OW17275   3.743   1.319   3.271  0.2922 -0.1438 -0.0410
35184SOL    HW117276   3.665   1.370   3.250  0.6063  0.6090  0.5620
35184SOL    HW217277   3.729   1.235   3.228 -0.2750  0.4178 -1.0037
35185SOL     OW17278   2.141   1.684   3.324  0.0059 -0.9506  0.2001
35185SOL    HW117279   2.174   1.713   3.409 -0.0118  1.0778 -0.4352
35185SOL    HW217280   2.211   1.629   3.289  1.2428  0.4607  0.3674
35186SOL     OW17281   7.070   5.144  10.789 -0.1563  0.2524 -0.0928
35186SOL    HW117282   7.129   5.136  10.714 -0.6412 -2.6841 -0.2518
35186SOL    HW217283   7.005   5.075  10.777 -1.2513  0.7641  2.2041
35187SOL     OW17284  11.890   3.843   6.317  0.8008 -0.3662 -0.0806
35187SOL    HW117285  11.843   3.914   6.273  0.0853 -0.2992  0.7744
35187SOL    HW217286  11.834   3.766   6.304  1.6441 -0.8353 -1.1326
35188SOL     OW17287  10.215   4.709   7.277 -0.3907 -0.4256 -0.0195
35188SOL    HW117288  10.256   4.624   7.260 -0.4116 -1.3540  3.6836
35188SOL    HW217289  10.128   4.703   7.238  0.8009 -0.5949 -2.9597
35189SOL     OW17290  11.932  10.782   9.499  0.4198 -0.0702 -0.3015
35189SOL    HW117291  11.844  10.759   9.469 -0.0287 -1.8983  2.1183
35189SOL    HW217292  11.989  10.715   9.461  0.3058 -0.5871  0.4176
35190SOL     OW17293   8.078  11.169   3.073 -0.2294 -0.2211 -0.0847
35190SOL    HW117294   8.102  11.212   3.155 -1.8468 -1.3158  1.0239
35190SOL    HW217295   7.998  11.214   3.046  0.7654  0.7407 -1.6060
35191SOL     OW17296  11.471   3.098   7.057  0.4115  0.3060 -0.1210
35191SOL    HW117297  11.557   3.078   7.020  1.6471  2.4539  1.3751
35191SOL    HW217298  11.421   3.017   7.046  2.1667 -0.5958 -2.2051
35192SOL     OW17299   8.309   0.783  10.601  0.3426 -0.5157 -0.3506
35192SOL    HW117300   8.302   0.747  10.512  0.1865 -1.0784 -0.1142
35192SOL    HW217301   8.314   0.877  10.588  1.7487 -0.6554 -1.0441
35193SOL     OW17302   6.599  10.378  11.328  0.1667  0.2285 -0.5712
35193SOL    HW117303   6.658  10.304  11.338  1.0323  0.7681 -1.4869
35193SOL    HW217304   6.602  10.423  11.412 -0.8579 -1.0866  0.2151
35194SOL     OW17305   4.747   1.731   8.799  0.2156 -0.0605 -0.0155
35194SOL    HW117306   4.793   1.739   8.716  0.6925  0.8208  0.3124
35194SOL    HW217307   4.756   1.639   8.824  2.2313  0.1795  0.2744
35195SOL     OW17308   9.232   7.912   5.830  0.3672  0.4803 -0.1156
35195SOL    HW117309   9.148   7.914   5.784 -0.1231  0.0803  0.7511
35195SOL    HW217310   9.296   7.932   5.762 -0.3441 -0.0918 -0.9870
35196SOL     OW17311   6.643  11.749  10.510 -0.5570  0.2630 -0.3441
35196SOL    HW117312   6.558  11.717  10.481 -1.0434  0.9746  0.2458
35196SOL    HW217313   6.700  11.673  10.505 -0.6691  0.2541 -2.7872
35197SOL     OW17314   6.822   1.704   5.809  0.3987  0.0400 -0.3405
35197SOL    HW117315   6.739   1.672   5.844  1.1711 -1.9840 -0.2109
35197SOL    HW217316   6.801   1.789   5.771 -1.5223  0.0070  0.5372
35198SOL     OW17317   4.038   2.757  11.758  0.3940 -0.0611  0.1547
35198SOL    HW117318   4.107   2.823  11.749  0.1249  0.3476  0.9160
35198SOL    HW217319   3.971   2.784  11.695  0.7726 -0.2600 -0.3384
35199SOL     OW17320   7.351   7.699   3.567 -0.2269 -0.3438 -0.3400
35199SOL    HW117321   7.435   7.726   3.602 -0.6981  0.8631 -0.0913
35199SOL    HW217322   7.352   7.604   3.571  0.5795 -0.2927  0.9333
35200SOL     OW17323   3.618   3.557   9.154 -0.3734  0.1525 -0.4858
35200SOL    HW117324   3.630   3.624   9.087 -0.2530 -0.1984 -0.8228
35200SOL    HW217325   3.667   3.590   9.230 -0.7394  0.6804 -0.4775
35201SOL     OW17326  11.769   3.575   3.726 -0.3480 -0.2040  0.0173
35201SOL    HW117327  11.781   3.513   3.798 -1.3096 -0.5612 -0.1184
35201SOL    HW217328  11.737   3.522   3.654 -0.0838  0.2735 -0.4587
35202SOL     OW17329   0.323   5.948   0.229  0.1586  0.0475 -0.5570
35202SOL    HW117330   0.291   6.033   0.259  1.5464  1.2256 -2.2594
35202SOL    HW217331   0.264   5.924   0.158  1.7343  1.2717 -2.3599
35203SOL     OW17332   3.801   5.259   8.087  0.2498  0.3053 -0.0855
35203SOL    HW117333   3.840   5.347   8.086  1.0155 -0.0362 -0.2724
35203SOL    HW217334   3.796   5.234   7.995 -1.6818  0.8811 -0.2008
35204SOL     OW17335   7.830   8.593   5.429 -0.3152  0.5225  0.4318
35204SOL    HW117336   7.798   8.620   5.515  1.3516 -0.8025  1.5290
35204SOL    HW217337   7.762   8.535   5.395 -0.6773  0.5069  1.1643
35205SOL     OW17338   5.847   2.833   5.710 -0.3427 -0.0479  0.2144
35205SOL    HW117339   5.931   2.875   5.696  0.8597 -2.1257  0.7477
35205SOL    HW217340   5.842   2.819   5.805 -1.6329  0.6846  0.2818
35206SOL     OW17341   3.801  10.034  11.095  0.3577 -0.2321 -0.1553
35206SOL    HW117342   3.827  10.106  11.153 -1.0593  1.3482 -1.3994
35206SOL    HW217343   3.780   9.962  11.155  0.0102  0.9915  1.2444
35207SOL     OW17344   4.639   0.179  11.734  0.4143  0.1648 -0.1510
35207SOL    HW117345   4.681   0.094  11.723 -1.1840 -0.9227  1.4695
35207SOL    HW217346   4.704   0.233  11.779  1.5028 -0.1011 -1.3444
35208SOL     OW17347   2.668   7.998   3.049  0.5945 -1.1343  0.1505
35208SOL    HW117348   2.592   8.043   3.084  0.7954 -1.6931  1.3737
35208SOL    HW217349   2.681   8.035   2.962 -0.5216 -0.3907  0.2881
35209SOL     OW17350   2.641   2.753   9.470  0.4479  0.6258 -0.6426
35209SOL    HW117351   2.578   2.776   9.538  1.2025  2.3762 -0.4860
35209SOL    HW217352   2.671   2.666   9.494  1.2841  1.4938  1.7404
35210SOL     OW17353  11.675   3.119   6.270 -0.2531  0.1536 -0.2248
35210SOL    HW117354  11.688   3.161   6.355 -1.3284  0.8119 -0.3691
35210SOL    HW217355  11.587   3.146   6.243 -0.1472 -0.5104 -1.2852
35211SOL     OW17356   2.870   5.701   1.221  0.3060 -0.3874 -0.2442
35211SOL    HW117357   2.940   5.767   1.215  1.4168 -1.6286 -1.7503
35211SOL    HW217358   2.865   5.664   1.133 -0.5897 -2.0135  0.4575
35212SOL     OW17359   3.888  10.977   3.563  0.8169  0.4678 -0.1783
35212SOL    HW117360   3.952  11.006   3.498  0.7873 -2.3574 -1.6258
35212SOL    HW217361   3.940  10.925   3.625  0.2788  0.0438 -0.0798
35213SOL     OW17362   8.141  11.614   4.448 -0.0339  0.3293  0.4996
35213SOL    HW117363   8.191  11.689   4.481  1.1044  1.9263 -4.0902
35213SOL    HW217364   8.057  11.620   4.494  0.9085  2.8903  2.1379
35214SOL     OW17365   3.347   0.326   2.912  0.2408  0.2546 -0.2597
35214SOL    HW117366   3.299   0.250   2.877  0.6460 -0.5042  0.7753
35214SOL    HW217367   3.388   0.293   2.992  0.4525  1.5741  0.1921
35215SOL     OW17368   1.919   9.139   8.477 -0.1250 -0.6101 -0.1388
35215SOL    HW117369   1.825   9.127   8.483 -0.0438 -0.7152  1.1816
35215SOL    HW217370   1.938   9.131   8.384 -1.3384 -1.1486 -0.3616
35216SOL     OW17371   5.958   1.837   5.815 -0.3372  0.0079  0.4231
35216SOL    HW117372   6.005   1.920   5.806  0.4519 -0.3141  1.3173
35216SOL    HW217373   5.999   1.780   5.750  0.4361 -0.2199  1.0813
35217SOL     OW17374  10.093   2.438   6.799 -0.1071  0.0527 -0.4389
35217SOL    HW117375  10.014   2.419   6.850 -0.5600  2.5272 -0.1112
35217SOL    HW217376  10.074   2.403   6.712 -0.8092 -0.9647  0.1012
35218SOL     OW17377   7.281   9.083  10.448  0.3125  0.0408 -0.3769
35218SOL    HW117378   7.289   9.057  10.540 -1.4292 -0.5897 -0.3696
35218SOL    HW217379   7.295   9.003  10.398 -0.6831 -0.0503 -0.5463
35219SOL     OW17380   5.621   2.073   8.226 -0.1574  0.2086  0.2570
35219SOL    HW117381   5.698   2.069   8.168 -0.6475  1.0998 -0.4783
35219SOL    HW217382   5.548   2.047   8.169 -0.2451 -2.0379  1.3064
35220SOL     OW17383   0.857   5.356   4.408 -1.0171 -0.0865 -0.1678
35220SOL    HW117384   0.855   5.301   4.330 -1.3835 -0.6985  0.2631
35220SOL    HW217385   0.804   5.308   4.472 -0.2173  0.1034  0.6533
35221SOL     OW17386   3.999   9.629  11.278  0.3885 -0.0915  0.4318
35221SOL    HW117387   4.023   9.538  11.261 -0.4829 -0.2456 -0.0065
35221SOL    HW217388   3.904   9.630  11.277  0.3721  0.7023  1.1360
35222SOL     OW17389  11.839  10.340   8.341 -0.3677  0.3491  0.5580
35222SOL    HW117390  11.774  10.409   8.338 -2.9564 -1.9161  0.5908
35222SOL    HW217391  11.848  10.312   8.250 -2.9869 -2.2674  0.9517
35223SOL     OW17392   5.392   7.263   8.440  0.5606  0.4865  0.2961
35223SOL    HW117393   5.395   7.272   8.345 -1.0164 -0.7760  0.0932
35223SOL    HW217394   5.371   7.171   8.455  0.3451  0.7625  1.8681
35224SOL     OW17395   0.039   2.227   6.050  0.0982 -0.3437 -0.6955
35224SOL    HW117396   0.036   2.241   5.955 -1.2691 -0.6451 -0.7082
35224SOL    HW217397   0.123   2.265   6.077 -0.0167  0.7815 -1.8536
35225SOL     OW17398   4.196   4.801   0.952 -0.0342 -0.1597 -0.5257
35225SOL    HW117399   4.104   4.774   0.957 -0.0377 -0.3688 -1.4544
35225SOL    HW217400   4.193   4.896   0.950 -0.0742 -0.0398  1.8762
35226SOL     OW17401   2.182   3.485   2.904  0.2932 -0.0478  0.3586
35226SOL    HW117402   2.269   3.493   2.942  0.1162  0.2501  0.7139
35226SOL    HW217403   2.128   3.547   2.955  0.1549  0.7163 -0.6858
35227SOL     OW17404   7.404   4.969   4.780 -0.0972  0.2722 -0.0688
35227SOL    HW117405   7.429   4.879   4.759  0.4902  0.5875 -0.7975
35227SOL    HW217406   7.322   4.961   4.828 -0.2835 -0.6298 -0.5074
35228SOL     OW17407   6.610   3.238   5.181 -0.4004 -0.1731  0.0148
35228SOL    HW117408   6.575   3.276   5.262  2.3457  1.5795  0.5147
35228SOL    HW217409   6.577   3.148   5.180  0.8523 -0.8938  4.1065
35229SOL     OW17410  10.700   7.953   4.745  0.2563  0.6133 -0.0189
35229SOL    HW117411  10.678   8.009   4.820  0.1572  0.1562  0.3000
35229SOL    HW217412  10.643   7.877   4.756  0.8218  0.1776 -0.1132
35230SOL     OW17413   0.287   0.587  11.783 -0.5937 -0.2999  0.3277
35230SOL    HW117414   0.198   0.595  11.817 -0.9669  2.7116 -1.0241
35230SOL    HW217415   0.326   0.674  11.795  0.6271 -0.2270 -3.0038
35231SOL     OW17416   2.045   6.586   2.820 -0.1738 -0.6778  0.2178
35231SOL    HW117417   2.087   6.501   2.807 -0.1338 -0.6964  0.4596
35231SOL    HW217418   2.029   6.619   2.732 -1.2780 -1.4620  0.1004
35232SOL     OW17419   5.039   0.244   4.079  0.1505 -0.0920  1.1033
35232SOL    HW117420   5.065   0.196   4.001 -0.7347  1.6660 -0.3450
35232SOL    HW217421   5.109   0.308   4.093 -0.4567  0.6675  0.7606
35233SOL     OW17422   9.181   4.408   4.989 -0.7952  0.6397  0.1054
35233SOL    HW117423   9.108   4.355   4.958 -2.2645  2.8723 -0.5186
35233SOL    HW217424   9.240   4.416   4.914 -0.0024 -0.9406  0.5275
35234SOL     OW17425  10.236   6.424   7.492  0.2383  0.1047  0.1373
35234SOL    HW117426  10.292   6.409   7.416  0.4637 -1.2484  0.5358
35234SOL    HW217427  10.294   6.417   7.567 -0.0518  1.0555  0.4615
35235SOL     OW17428   1.558   0.721  11.269  0.1607  0.0250 -0.1912
35235SOL    HW117429   1.571   0.630  11.245 -0.3269 -0.7165  2.1602
35235SOL    HW217430   1.639   0.765  11.240  1.0273 -1.4154 -0.0442
35236SOL     OW17431   2.159   2.839   3.382 -0.2958  0.2444 -0.0875
35236SOL    HW117432   2.147   2.760   3.434  1.6936 -0.9977 -1.3778
35236SOL    HW217433   2.079   2.891   3.398 -0.4269 -0.7014  2.9535
35237SOL     OW17434   6.473   4.254   1.170 -0.2683 -0.3044 -0.0450
35237SOL    HW117435   6.379   4.256   1.155 -0.4520  0.2955  1.1006
35237SOL    HW217436   6.510   4.308   1.100 -0.6535 -1.4995 -1.2066
35238SOL     OW17437   6.928   4.432   9.166 -0.8045 -0.3271 -0.3024
35238SOL    HW117438   6.962   4.493   9.232  1.3463 -2.2309  0.4658
35238SOL    HW217439   6.837   4.418   9.191 -0.4601  0.1722  1.3732
35239SOL     OW17440   9.674  11.729   7.078 -0.6223 -0.4344 -0.4336
35239SOL    HW117441   9.584  11.761   7.070  0.2396  2.3880 -0.0152
35239SOL    HW217442   9.667  11.635   7.063 -3.5567 -0.2527 -0.9073
35240SOL     OW17443   4.844   0.462   9.513  0.2398  0.1819  0.5348
35240SOL    HW117444   4.817   0.420   9.595  0.8186 -1.5144 -0.0900
35240SOL    HW217445   4.772   0.446   9.452  0.4459  0.1164  0.3040
35241SOL     OW17446   1.678   5.770   1.650 -0.2270  0.1004 -0.3428
35241SOL    HW117447   1.729   5.749   1.572  0.4034  3.0701 -0.8437
35241SOL    HW217448   1.587   5.771   1.619 -0.0679  0.3495 -0.8073
35242SOL     OW17449   6.240   9.663  11.837  0.0701 -0.1732 -0.3823
35242SOL    HW117450   6.305   9.600  11.867 -1.2062 -1.1467  0.4356
35242SOL    HW217451   6.289   9.723  11.781  1.5146 -1.3094 -0.3989
35243SOL     OW17452   1.983   1.041   3.790  0.7533  0.1989  0.5196
35243SOL    HW117453   2.009   0.992   3.712  1.5703  0.6982  0.4749
35243SOL    HW217454   2.015   0.989   3.863 -0.3922 -0.4943  0.5589
35244SOL     OW17455   1.165   0.207   6.648  0.1325 -0.4158  0.2915
35244SOL    HW117456   1.152   0.117   6.619  0.3970 -0.4611  0.3097
35244SOL    HW217457   1.100   0.221   6.716 -0.4152 -0.3531 -0.2298
35245SOL     OW17458   8.288   9.322   2.125 -0.7859 -0.5040 -0.2959
35245SOL    HW117459   8.355   9.376   2.083 -0.8276 -1.6778 -1.9252
35245SOL    HW217460   8.232   9.292   2.054 -1.7907 -1.2936  0.7898
35246SOL     OW17461  11.908   0.516   4.044  0.5620 -0.3213  0.1626
35246SOL    HW117462  11.893   0.429   4.008 -1.4820  0.5747 -1.3262
35246SOL    HW217463  11.895   0.576   3.970  0.8061  1.3365  1.3936
35247SOL     OW17464   3.016  11.764   0.850  0.3133  0.3365  0.4828
35247SOL    HW117465   3.023  11.714   0.931  2.6380  0.5790  0.4826
35247SOL    HW217466   2.960  11.838   0.873  0.6942  0.2509  1.7927
35248SOL     OW17467  10.069  10.689   8.517 -0.4992  0.4548 -1.1313
35248SOL    HW117468  10.068  10.693   8.613  2.4077  2.2323 -1.0316
35248SOL    HW217469  10.049  10.779   8.489 -1.8602 -0.1680 -2.2346
35249SOL     OW17470  11.633   3.644   7.242 -0.6533  0.0395  0.2858
35249SOL    HW117471  11.592   3.584   7.179 -0.3836 -1.0865  1.1659
35249SOL    HW217472  11.723   3.615   7.248 -0.5791  0.3869  0.9125
35250SOL     OW17473  10.902   5.138   3.992 -0.2561  0.7115 -0.1631
35250SOL    HW117474  10.897   5.088   3.910 -1.1966 -2.7769  1.8634
35250SOL    HW217475  10.984   5.109   4.032 -0.3766  1.5190  0.6879
35251SOL     OW17476   9.233   4.402   2.815  0.3904  0.3502  0.0410
35251SOL    HW117477   9.238   4.495   2.839  2.3090  0.2845 -0.0118
35251SOL    HW217478   9.215   4.357   2.898  1.3161  0.6160  0.3969
35252SOL     OW17479   0.409   4.911   2.408  0.3472 -0.4114  0.8646
35252SOL    HW117480   0.337   4.953   2.455  0.9119  0.2550  1.1419
35252SOL    HW217481   0.380   4.912   2.316  0.6718  1.3258  0.7385
35253SOL     OW17482   9.258   2.710   3.273 -0.0396 -0.0493  0.0545
35253SOL    HW117483   9.226   2.672   3.355  1.0420  0.1902  0.6071
35253SOL    HW217484   9.182   2.706   3.214 -0.7854 -0.3903  0.9991
35254SOL     OW17485   0.723   7.398   7.793 -0.7889  0.3439 -0.5880
35254SOL    HW117486   0.707   7.314   7.836  0.3790  0.6815  0.5535
35254SOL    HW217487   0.694   7.384   7.702 -1.2492 -1.0693 -0.2525
35255SOL     OW17488   8.632   1.740   1.700  0.4937  0.2484 -0.0149
35255SOL    HW117489   8.570   1.713   1.632 -0.5852  1.6492  0.3630
35255SOL    HW217490   8.706   1.777   1.652 -0.2908  1.2933 -0.4390
35256SOL     OW17491   5.115   7.193   8.238 -0.1518  0.1086 -0.3741
35256SOL    HW117492   5.069   7.252   8.298 -1.4216 -0.0318 -1.1714
35256SOL    HW217493   5.046   7.138   8.200  0.9814 -1.8415  0.2537
35257SOL     OW17494  11.649   3.150   2.403 -0.0204  0.1317  0.2486
35257SOL    HW117495  11.728   3.107   2.371  0.0641  0.3871  0.1107
35257SOL    HW217496  11.579   3.088   2.384  0.2016 -0.2888  0.7796
35258SOL     OW17497   1.793  10.860   0.355  0.3525  0.0024 -0.2184
35258SOL    HW117498   1.797  10.770   0.387 -0.0146  0.3681  0.8909
35258SOL    HW217499   1.842  10.858   0.272  1.4477 -0.9485  0.4183
35259SOL     OW17500   2.988   3.570   0.516 -0.3351 -0.3883  0.5739
35259SOL    HW117501   3.005   3.553   0.608 -1.4970 -0.5941  0.7587
35259SOL    HW217502   2.908   3.522   0.496 -0.1308 -0.3064 -0.5299
35260SOL     OW17503  10.527   5.849   1.214 -0.0885  0.7199 -0.3067
35260SOL    HW117504  10.600   5.789   1.199 -1.1851 -0.2607 -1.9671
35260SOL    HW217505  10.543   5.884   1.302  0.7921 -1.7036  0.5782
35261SOL     OW17506  11.757   3.849   0.712 -0.5497 -0.1706  0.1147
35261SOL    HW117507  11.846   3.818   0.699 -0.3750 -0.2415  1.3897
35261SOL    HW217508  11.709   3.817   0.636  0.5813  0.1875 -0.7801
35262SOL     OW17509   4.305   6.512   4.089  0.2889 -0.7271 -0.7268
35262SOL    HW117510   4.216   6.528   4.057  0.7273  1.1333 -1.1375
35262SOL    HW217511   4.327   6.425   4.056 -1.0744 -0.8793 -1.3151
35263SOL     OW17512   7.040   7.170   2.790 -0.1087  0.4403 -0.2640
35263SOL    HW117513   7.033   7.085   2.834 -0.8844  0.5110 -0.2446
35263SOL    HW217514   7.059   7.148   2.699 -0.4629  0.2397 -0.2909
35264SOL     OW17515   3.482   9.024   7.349 -0.0025  0.0500  0.4031
35264SOL    HW117516   3.476   8.982   7.264 -0.7849  0.8180  0.0673
35264SOL    HW217517   3.392   9.028   7.381  0.2837 -0.2763  1.2968
35265SOL     OW17518  10.808   3.655   7.215 -0.4373  0.3710  0.0472
35265SOL    HW117519  10.732   3.634   7.160  0.5138  0.3204 -1.3081
35265SOL    HW217520  10.840   3.570   7.245 -1.8022  0.4675  1.9352
35266SOL     OW17521   5.060   0.820   9.411 -0.5539 -0.0634 -0.2835
35266SOL    HW117522   5.065   0.745   9.469 -0.6982 -0.3632 -0.6559
35266SOL    HW217523   5.091   0.787   9.326 -1.1269  0.1551 -0.5825
35267SOL     OW17524   1.461   7.893  10.046 -0.1951  0.2542 -0.1118
35267SOL    HW117525   1.481   7.866   9.957  0.1225  0.1450 -0.0115
35267SOL    HW217526   1.542   7.933  10.077  0.4926 -1.7709  0.9109
35268SOL     OW17527   1.110  11.491   4.168 -0.0621 -0.1283 -0.1192
35268SOL    HW117528   1.127  11.539   4.248 -2.2492  0.5885 -0.0350
35268SOL    HW217529   1.192  11.498   4.118  1.0155  0.1972  1.6131
35269SOL     OW17530   3.045   3.677   5.271 -0.2103  0.1152  0.4215
35269SOL    HW117531   3.033   3.587   5.301  1.4469 -0.4969 -0.6087
35269SOL    HW217532   2.956   3.712   5.265 -0.8431 -1.2100  1.5087
35270SOL     OW17533   2.975  11.845   6.903 -0.1113 -0.2977  0.0151
35270SOL    HW117534   2.969  11.899   6.981 -2.6559  0.3710 -0.5462
35270SOL    HW217535   3.068  11.827   6.892  0.5540  1.8677  1.6406
35271SOL     OW17536   5.564   0.423   8.034  0.3892 -0.4163 -0.1677
35271SOL    HW117537   5.534   0.347   7.985  0.6445 -0.7704  0.2072
35271SOL    HW217538   5.490   0.447   8.090 -0.1776  0.4710 -1.2694
35272SOL     OW17539   5.265   2.809  10.694 -0.1073 -0.1177  0.3748
35272SOL    HW117540   5.296   2.891  10.656 -0.0155  0.0306  0.7657
35272SOL    HW217541   5.239   2.832  10.783  0.2230 -0.5748  0.5934
35273SOL     OW17542   2.449   9.439   0.332 -0.3153 -0.1506  0.8869
35273SOL    HW117543   2.418   9.529   0.319 -1.8395 -0.6997  0.5568
35273SOL    HW217544   2.527   9.432   0.277 -0.4999  0.8013  0.4882
35274SOL     OW17545   6.305  10.796  11.801  0.1602 -0.0978  0.3041
35274SOL    HW117546   6.258  10.878  11.786  1.0757  0.3495 -0.2102
35274SOL    HW217547   6.372  10.794  11.733 -0.8787 -2.0745 -0.7704
35275SOL     OW17548   4.561   8.113   8.249  0.0276 -0.2350 -0.4100
35275SOL    HW117549   4.481   8.163   8.263  0.2806  0.1417 -0.2888
35275SOL    HW217550   4.533   8.021   8.251 -0.5044 -0.0964 -1.0318
35276SOL     OW17551   2.210  11.267   6.710 -0.2165 -0.6131 -0.1515
35276SOL    HW117552   2.247  11.336   6.765 -0.0083  0.6293 -1.7913
35276SOL    HW217553   2.130  11.305   6.674 -0.2928 -1.3645 -0.8020
35277SOL     OW17554   8.916   5.687   2.780  0.6206  0.6771  0.3477
35277SOL    HW117555   8.831   5.715   2.815 -1.5123 -3.4974 -0.7927
35277SOL    HW217556   8.910   5.704   2.686 -0.0734 -1.6469 -0.1105
35278SOL     OW17557   6.079   1.235   4.151  0.0997 -0.6858  0.1924
35278SOL    HW117558   5.992   1.201   4.132 -1.3044  3.6363 -2.5511
35278SOL    HW217559   6.069   1.286   4.232  0.5127 -1.3869  0.6968
35279SOL     OW17560   3.092   8.639   3.508  0.0696 -0.2638  0.3047
35279SOL    HW117561   3.016   8.631   3.565 -1.0730  0.2502 -1.0762
35279SOL    HW217562   3.069   8.709   3.447  1.1485 -0.9025 -0.8980
35280SOL     OW17563   7.411   4.756   4.350  0.3390  0.1036 -0.5528
35280SOL    HW117564   7.336   4.746   4.408 -0.7659 -0.4417 -2.0244
35280SOL    HW217565   7.474   4.806   4.401  0.4111 -2.3599  1.9968
35281SOL     OW17566   6.693   9.977   4.009 -0.0793  0.2238  0.3857
35281SOL    HW117567   6.772   9.981   3.956  0.3616  0.5163  1.0578
35281SOL    HW217568   6.633  10.039   3.967  1.3066  2.7751  1.8880
35282SOL     OW17569   7.166   2.120   4.867  0.7293 -0.0735  0.0268
35282SOL    HW117570   7.177   2.038   4.915  0.5624 -1.0202 -1.4779
35282SOL    HW217571   7.251   2.164   4.874  1.3301 -1.1270 -0.4496
35283SOL     OW17572   6.332   2.025   4.267  0.1330 -0.5440  1.0025
35283SOL    HW117573   6.376   2.108   4.287 -0.9001  0.2707 -0.0197
35283SOL    HW217574   6.404   1.962   4.258  1.0206  0.5068  0.5033
35284SOL     OW17575   7.249  11.740  11.864 -0.4169 -0.5141  0.1722
35284SOL    HW117576   7.256  11.653  11.904  2.5664 -0.6932 -0.5444
35284SOL    HW217577   7.276  11.801  11.932  1.7498 -0.5764 -0.5594
35285SOL     OW17578   5.656   8.811  11.232 -0.3418 -0.3014 -0.2822
35285SOL    HW117579   5.682   8.873  11.299 -1.6297  0.0533 -0.0840
35285SOL    HW217580   5.561   8.820  11.227 -0.4692 -1.7200 -0.7779
35286SOL     OW17581   5.641   8.571   6.704  0.4111  0.0006 -0.5271
35286SOL    HW117582   5.677   8.486   6.678  2.0040 -0.1171  1.7689
35286SOL    HW217583   5.608   8.557   6.793 -2.3113  1.0147 -1.2965
35287SOL     OW17584   3.834   9.033   5.831  0.3161  0.2268  0.6909
35287SOL    HW117585   3.848   8.940   5.813  2.4609  0.7438 -0.5592
35287SOL    HW217586   3.920   9.066   5.857 -0.0128  2.2120 -0.5735
35288SOL     OW17587   5.177   8.659   4.672  0.1471 -0.0961 -0.1071
35288SOL    HW117588   5.100   8.703   4.710  0.0360  1.4166 -1.9090
35288SOL    HW217589   5.160   8.658   4.578  1.5742 -1.3144 -0.3887
35289SOL     OW17590   3.957  11.232  10.056 -0.1861  0.0454 -0.4393
35289SOL    HW117591   3.929  11.318  10.085 -0.1331 -0.1046  0.0546
35289SOL    HW217592   3.919  11.223   9.968 -0.5115  0.4115 -0.3383
35290SOL     OW17593   6.950   1.297   4.923  0.1375 -0.1469  0.6267
35290SOL    HW117594   6.928   1.204   4.921 -0.5549 -0.0429 -2.8626
35290SOL    HW217595   6.884   1.338   4.867  0.8591  2.3654  1.5054
35291SOL     OW17596   0.140   0.819   6.412  0.2414 -0.4057  0.4348
35291SOL    HW117597   0.218   0.865   6.382 -0.0970  0.5102  0.9086
35291SOL    HW217598   0.068   0.866   6.370 -0.0762 -0.9385  0.3805
35292SOL     OW17599  11.124   1.503   6.731  0.0023 -0.3781  0.0379
35292SOL    HW117600  11.046   1.454   6.704  0.5774 -1.2573 -0.0926
35292SOL    HW217601  11.189   1.435   6.747  0.7854  0.3567  0.0034
35293SOL     OW17602   6.596  11.489   4.067  0.3301 -0.5479 -0.1344
35293SOL    HW117603   6.611  11.461   4.158 -1.3173 -1.4046 -0.0936
35293SOL    HW217604   6.533  11.561   4.075  1.0249  0.1300 -0.5590
35294SOL     OW17605  10.271   3.619   6.218  0.1641 -0.0774 -0.1007
35294SOL    HW117606  10.307   3.642   6.133  0.4259 -1.2485 -0.3199
35294SOL    HW217607  10.176   3.612   6.204  0.3005 -1.2728 -0.5596
35295SOL     OW17608   3.643   9.267   6.928 -0.4230  0.1883  0.1882
35295SOL    HW117609   3.695   9.225   6.996  0.5754  1.2046  0.0818
35295SOL    HW217610   3.607   9.345   6.971 -2.0451 -0.5814  0.3138
35296SOL     OW17611  10.661  10.350   6.624  0.2082  0.2594  0.7324
35296SOL    HW117612  10.697  10.289   6.560 -1.0344  1.0197 -0.7742
35296SOL    HW217613  10.733  10.409   6.645  0.6852 -0.1183  0.1809
35297SOL     OW17614   3.794   7.784   3.027 -0.0708  0.5900  0.3123
35297SOL    HW117615   3.773   7.691   3.026 -0.4863  0.6853 -1.1856
35297SOL    HW217616   3.710   7.828   3.020  0.0138  1.1313  2.1715
35298SOL     OW17617   5.704   8.977   9.065 -0.1475 -0.5929 -0.1480
35298SOL    HW117618   5.689   8.973   9.160  0.1786 -3.1301 -0.1490
35298SOL    HW217619   5.731   9.068   9.049  2.4385 -0.7088  2.6288
35299SOL     OW17620   2.750   4.831   8.934 -0.2379  0.1811 -0.5342
35299SOL    HW117621   2.842   4.848   8.914 -0.4682 -0.6518 -2.5512
35299SOL    HW217622   2.750   4.800   9.025  1.2929  1.4190 -0.0599
35300SOL     OW17623   6.971   6.915   8.545  0.7038 -0.3518  0.1487
35300SOL    HW117624   7.029   6.849   8.582  1.4490  0.7406  0.9915
35300SOL    HW217625   6.915   6.866   8.484  0.3482 -1.9680  1.6807
35301SOL     OW17626   9.632   9.785   6.853  0.3784  0.0051 -0.2421
35301SOL    HW117627   9.574   9.838   6.800  1.1683 -1.2872 -2.5464
35301SOL    HW217628   9.719   9.824   6.841  0.6826 -0.7356 -0.5229
35302SOL     OW17629   0.432   1.214   7.101 -0.5778  0.3372  0.2107
35302SOL    HW117630   0.397   1.143   7.047 -1.4925  0.1253  1.0639
35302SOL    HW217631   0.377   1.290   7.080  0.0022  0.6453 -0.2361
35303SOL     OW17632   3.662   3.749   1.735  0.3845  0.1813 -0.6426
35303SOL    HW117633   3.644   3.825   1.791  0.7673 -1.9828  2.7694
35303SOL    HW217634   3.578   3.704   1.727  0.4985  0.0542 -1.1399
35304SOL     OW17635   0.091   2.278   4.395 -0.3039 -0.2651 -0.0838
35304SOL    HW117636   0.159   2.216   4.421  0.4969  0.4339 -0.4556
35304SOL    HW217637   0.135   2.363   4.395 -1.0423  0.1335 -0.8670
35305SOL     OW17638   8.536   0.127   7.169 -0.1859 -0.2128 -0.3464
35305SOL    HW117639   8.540   0.217   7.138  0.6025 -0.3578 -0.6957
35305SOL    HW217640   8.442   0.106   7.172 -0.4568  1.0440  1.0400
35306SOL     OW17641   3.740   1.192  11.321  0.4463 -0.0888 -0.2239
35306SOL    HW117642   3.719   1.106  11.285 -1.3180 -0.2846  1.1230
35306SOL    HW217643   3.696   1.254  11.263  0.9371 -0.1408 -0.6577
35307SOL     OW17644   8.415   7.449   3.496 -0.0939 -0.2463  0.2162
35307SOL    HW117645   8.387   7.452   3.587 -1.9648 -0.7053 -0.3058
35307SOL    HW217646   8.510   7.437   3.500 -0.2150 -0.7888  2.0994
35308SOL     OW17647  11.070  10.781   4.547 -0.6767 -0.4276  0.1119
35308SOL    HW117648  11.083  10.706   4.605 -0.1881 -0.6880 -0.3319
35308SOL    HW217649  11.091  10.749   4.460  0.6743  0.5181  0.0511
35309SOL     OW17650   9.739   8.775  11.042  0.0014 -0.9237 -0.4312
35309SOL    HW117651   9.800   8.782  11.116  0.0203 -0.6561 -0.4712
35309SOL    HW217652   9.722   8.681  11.034 -0.3273 -0.9241  0.1793
35310SOL     OW17653  11.768   0.765   4.906  0.2694 -0.4542  0.0889
35310SOL    HW117654  11.758   0.749   4.812 -0.5769  2.0098 -0.3063
35310SOL    HW217655  11.856   0.801   4.914  0.2782 -0.5075  0.2333
35311SOL     OW17656   3.514   4.340  11.564  0.0101  0.4546  0.7415
35311SOL    HW117657   3.426   4.303  11.575 -0.4676  1.6133  0.8963
35311SOL    HW217658   3.500   4.424  11.522  1.0597  0.6265  0.7050
35312SOL     OW17659   9.836   5.864   7.011 -0.3472  0.5619 -1.0212
35312SOL    HW117660   9.814   5.919   7.086  0.4703 -0.3212 -0.1014
35312SOL    HW217661   9.764   5.801   7.006  0.4229 -0.4391  0.1029
35313SOL     OW17662   4.431   6.736   2.228 -0.0215 -0.0505 -0.1049
35313SOL    HW117663   4.506   6.716   2.283 -0.5128 -0.4873  0.4192
35313SOL    HW217664   4.438   6.831   2.211  1.2946 -0.2933 -1.0734
35314SOL     OW17665   8.415   6.331   3.071  0.3415  0.1931 -0.7972
35314SOL    HW117666   8.436   6.319   3.163 -0.1652  0.2759 -0.6649
35314SOL    HW217667   8.319   6.337   3.069  0.3380  0.0460 -1.3434
35315SOL     OW17668   0.068   7.242  11.114 -0.8819  0.5527 -0.3359
35315SOL    HW117669   0.009   7.212  11.044 -0.7396 -0.4526 -0.0464
35315SOL    HW217670   0.068   7.170  11.177 -2.9907  2.3960  1.9851
35316SOL     OW17671   8.773  11.166   4.268  0.1019 -0.1298 -0.0609
35316SOL    HW117672   8.804  11.217   4.193  0.9038 -1.6172 -0.7843
35316SOL    HW217673   8.843  11.174   4.333  0.8043 -1.2440 -0.6421
35317SOL     OW17674   3.403   3.312  10.421  0.3088  0.4746  0.1974
35317SOL    HW117675   3.406   3.326  10.516  0.7053  0.6406  0.1592
35317SOL    HW217676   3.373   3.395  10.385 -1.4688 -0.0621  0.2890
35318SOL     OW17677   3.135   4.356   2.943  0.2574  0.0759 -0.0801
35318SOL    HW117678   3.172   4.351   2.855  0.2003 -0.8879 -0.0645
35318SOL    HW217679   3.071   4.285   2.945 -0.0341  0.3553  0.6063
35319SOL     OW17680   1.339   9.085  10.209  0.1632  0.0263  0.0539
35319SOL    HW117681   1.408   9.081  10.143 -0.4594  0.8216 -0.6580
35319SOL    HW217682   1.307   8.995  10.216 -0.4223  0.0883 -1.4433
35320SOL     OW17683  10.967   5.221   0.086  0.4821 -0.7900 -0.4173
35320SOL    HW117684  10.899   5.212   0.153 -1.2954  0.4535 -1.9159
35320SOL    HW217685  10.974   5.134   0.047  0.3428 -1.1258  0.3043
35321SOL     OW17686   9.810  11.619   7.750  0.1683 -0.1015  0.7267
35321SOL    HW117687   9.814  11.623   7.846  0.7397 -0.0200  0.7041
35321SOL    HW217688   9.815  11.711   7.723  1.4520 -0.1969  0.5790
35322SOL     OW17689   1.119   2.360   7.185  0.0404  0.9238  0.1949
35322SOL    HW117690   1.177   2.396   7.118 -0.2644 -0.3379 -0.7791
35322SOL    HW217691   1.176   2.347   7.261  0.8261  0.6097 -0.4353
35323SOL     OW17692   0.761   2.128   3.457 -0.1117  0.3249  0.3388
35323SOL    HW117693   0.790   2.051   3.408 -3.3017 -0.9604  0.2325
35323SOL    HW217694   0.777   2.107   3.549 -3.1320 -1.7260  0.5575
35324SOL     OW17695  11.116   0.495   9.865 -0.1088 -0.0517  0.0944
35324SOL    HW117696  11.201   0.504   9.822  0.7802 -2.9322  1.0636
35324SOL    HW217697  11.074   0.422   9.819 -1.2867  0.1342  0.8416
35325SOL     OW17698   4.922   1.720   7.245 -0.6956 -0.2919 -0.0167
35325SOL    HW117699   5.009   1.729   7.285  0.1094  0.1527 -1.7726
35325SOL    HW217700   4.918   1.630   7.214 -0.8140 -0.2776 -0.0448
35326SOL     OW17701  10.208  11.557   4.995  0.7171  0.0596 -0.8804
35326SOL    HW117702  10.301  11.542   4.979  1.1351  2.4046 -1.0806
35326SOL    HW217703  10.197  11.541   5.089  1.0467 -1.2843 -1.0439
35327SOL     OW17704   7.608  10.752  11.794  0.2206  0.4550 -0.7083
35327SOL    HW117705   7.516  10.729  11.784  0.5095 -1.6505  0.8161
35327SOL    HW217706   7.608  10.827  11.853 -0.4775 -0.9663  1.1937
35328SOL     OW17707  11.757   7.737   5.892 -0.0865 -0.2912  0.2639
35328SOL    HW117708  11.809   7.797   5.838 -1.5569  0.3397 -0.5225
35328SOL    HW217709  11.674   7.728   5.844 -1.5600  0.4827  2.4825
35329SOL     OW17710   8.821   5.950   3.710  0.1157 -0.3164 -0.0430
35329SOL    HW117711   8.780   6.035   3.724  0.6524 -0.0974  0.2051
35329SOL    HW217712   8.823   5.939   3.615 -0.7487 -0.4455 -0.0540
35330SOL     OW17713   6.135   6.650   3.067 -0.3489 -0.2724 -0.1165
35330SOL    HW117714   6.176   6.589   3.006 -3.2687 -2.2425 -0.3199
35330SOL    HW217715   6.043   6.625   3.067 -1.0373  1.8011  2.6516
35331SOL     OW17716   5.592   5.818  10.075 -0.2292  0.4306  0.3027
35331SOL    HW117717   5.514   5.874  10.070 -0.7854 -0.3189  0.3715
35331SOL    HW217718   5.564   5.735  10.035  1.3303  0.9982 -2.1869
35332SOL     OW17719   1.637   9.373   7.187 -0.8332 -0.0760 -0.2405
35332SOL    HW117720   1.684   9.295   7.216 -0.2957 -0.1093 -1.1659
35332SOL    HW217721   1.544   9.350   7.197 -0.6979 -1.1109 -1.1753
35333SOL     OW17722   0.141   9.098   7.458  0.1684  0.2208 -0.0255
35333SOL    HW117723   0.191   9.024   7.491 -0.0973 -0.3033 -0.7573
35333SOL    HW217724   0.160   9.170   7.518 -1.2600 -0.9846  1.9863
35334SOL     OW17725  10.833   7.634   8.060  0.3454 -0.4069  0.1397
35334SOL    HW117726  10.901   7.672   8.116  0.8019 -0.2578 -0.5072
35334SOL    HW217727  10.757   7.692   8.072 -0.1662 -1.3684  1.9539
35335SOL     OW17728   8.321   0.249   9.141  0.2625 -0.6753 -0.2463
35335SOL    HW117729   8.396   0.298   9.106 -0.5161  1.6767  1.1763
35335SOL    HW217730   8.349   0.223   9.229 -0.1870 -0.7445 -0.1229
35336SOL     OW17731   7.874   1.138  11.306 -0.1130 -0.2101  0.0888
35336SOL    HW117732   7.941   1.201  11.334 -1.1700  1.6071 -1.2807
35336SOL    HW217733   7.920   1.082  11.243  0.0999  1.2513 -1.1257
35337SOL     OW17734   1.532   0.672   7.561 -0.0220 -0.5431  0.3262
35337SOL    HW117735   1.582   0.749   7.535 -0.3351 -0.5100 -0.1928
35337SOL    HW217736   1.519   0.623   7.479  0.1201 -1.1131  0.6384
35338SOL     OW17737  10.658   5.906   6.833 -0.4845 -0.1297 -0.0673
35338SOL    HW117738  10.610   5.882   6.754  0.1486 -0.9638 -0.2126
35338SOL    HW217739  10.661   6.001   6.832  1.1327 -0.1557 -2.0386
35339SOL     OW17740   1.693   6.744   9.315  0.5128 -0.2567 -0.1726
35339SOL    HW117741   1.674   6.667   9.369 -1.0413  0.6741  0.6863
35339SOL    HW217742   1.735   6.708   9.236  0.0201 -1.9575  0.2916
35340SOL     OW17743   9.874   5.634   3.108  0.0570 -0.0247  0.4506
35340SOL    HW117744   9.889   5.629   3.013  1.5285 -2.2909  0.7270
35340SOL    HW217745   9.903   5.722   3.132 -0.3083  0.5749 -1.1796
35341SOL     OW17746   3.602   3.155   1.079 -0.1110 -0.4660 -0.4406
35341SOL    HW117747   3.663   3.126   1.147 -1.3706  0.3594  1.1182
35341SOL    HW217748   3.655   3.160   1.000  2.0949  1.0354  1.0005
35342SOL     OW17749   4.861  10.961   5.847 -0.4422  0.3446  0.4040
35342SOL    HW117750   4.768  10.986   5.853 -0.4902  0.0583  0.9344
35342SOL    HW217751   4.893  11.008   5.770 -0.8437  1.0458  0.6463
35343SOL     OW17752   1.236   7.447   7.126  0.0403  0.0191 -0.3945
35343SOL    HW117753   1.162   7.477   7.073  0.8463  0.0061 -1.5721
35343SOL    HW217754   1.208   7.363   7.162 -1.3127  0.9955  0.9316
35344SOL     OW17755  11.239   8.959   1.540  0.0118  0.0681  0.7976
35344SOL    HW117756  11.218   8.988   1.451 -1.7514  0.6990  1.3546
35344SOL    HW217757  11.157   8.973   1.588  0.9110 -0.3241  2.4962
35345SOL     OW17758   4.521  10.368   5.201  0.7302 -0.9044  0.2563
35345SOL    HW117759   4.567  10.338   5.123 -0.0031  0.1693 -0.6260
35345SOL    HW217760   4.429  10.349   5.184  0.7800 -3.1774  2.0686
35346SOL     OW17761   5.906   9.894  11.439 -0.2483  0.3253  0.2495
35346SOL    HW117762   5.967   9.823  11.423  1.1170  0.5629  3.6604
35346SOL    HW217763   5.956   9.974  11.421 -0.3157  0.4925  0.7939
35347SOL     OW17764   1.965   6.421   6.186  0.0885  0.0001  0.0073
35347SOL    HW117765   1.960   6.502   6.135  1.4199  0.0491 -0.0964
35347SOL    HW217766   2.032   6.439   6.252 -1.2534 -0.2262  1.4915
35348SOL     OW17767  11.956   4.005   8.573 -0.2103 -0.1449  0.2932
35348SOL    HW117768  11.906   4.028   8.652  0.6818  1.7639  0.3490
35348SOL    HW217769  12.022   4.073   8.565  1.1999 -1.5640 -0.8566
35349SOL     OW17770   1.493   4.688   6.467 -0.6399 -0.4126  0.0718
35349SOL    HW117771   1.525   4.743   6.395  0.4295 -0.9374  0.1290
35349SOL    HW217772   1.518   4.735   6.546 -0.6084 -0.4993  0.1129
35350SOL     OW17773  10.702   6.997   7.763  0.2964 -0.1938  0.6039
35350SOL    HW117774  10.714   7.045   7.845  0.0716 -1.7101  1.5485
35350SOL    HW217775  10.683   7.066   7.699  0.3177  1.0185  1.8350
35351SOL     OW17776   8.810  10.296  10.201  0.1185 -0.3276  0.3121
35351SOL    HW117777   8.727  10.292  10.154  0.0584  0.7611  0.3150
35351SOL    HW217778   8.787  10.275  10.292 -0.1909  0.2045  0.3583
35352SOL     OW17779   5.384   8.451   6.298  0.0228 -0.0002 -0.6805
35352SOL    HW117780   5.426   8.511   6.359  3.1670  0.1346 -2.7256
35352SOL    HW217781   5.442   8.450   6.221 -2.8621 -1.3363 -3.0519
35353SOL     OW17782   2.586   6.112   0.013 -0.0128 -0.2207  0.5113
35353SOL    HW117783   2.678   6.097  -0.011  0.1910  0.8420  0.5948
35353SOL    HW217784   2.550   6.162  -0.060 -1.1802 -2.5367 -0.6351
35354SOL     OW17785   2.737   7.752   4.433 -0.2933  0.3837 -0.2662
35354SOL    HW117786   2.721   7.669   4.477  2.4569 -0.4528 -0.6214
35354SOL    HW217787   2.821   7.782   4.468  0.1123  1.6183 -2.1078
35355SOL     OW17788   3.329   4.855   3.795 -1.0330 -0.0946  0.1549
35355SOL    HW117789   3.398   4.880   3.733  0.0800 -2.3910  0.3532
35355SOL    HW217790   3.373   4.852   3.880 -1.3301 -1.6318  0.2820
35356SOL     OW17791   9.557  10.733   1.833 -0.6712 -0.3029  0.3752
35356SOL    HW117792   9.475  10.687   1.852  0.4514 -1.8435  1.8381
35356SOL    HW217793   9.622  10.690   1.889  1.1078  1.0057 -0.5736
35357SOL     OW17794  10.279   0.931  11.501 -0.2083  0.4512  0.3749
35357SOL    HW117795  10.184   0.938  11.503 -0.2252  0.7850 -0.8075
35357SOL    HW217796  10.303   0.956  11.412  1.0505  1.2234  0.9000
35358SOL     OW17797   0.627   0.132  11.729  0.7218  0.2057  0.6885
35358SOL    HW117798   0.708   0.114  11.776  1.8670  0.9652 -0.8998
35358SOL    HW217799   0.629   0.227  11.712 -0.1673  0.1338  0.0641
35359SOL     OW17800   0.328   0.262   7.735 -0.0053 -0.4942 -0.2859
35359SOL    HW117801   0.268   0.187   7.729 -1.9615  1.0171 -0.8654
35359SOL    HW217802   0.346   0.286   7.644  1.9964 -1.2565 -0.1278
35360SOL     OW17803   8.982  11.314  11.675  0.1217 -0.2972 -0.5100
35360SOL    HW117804   8.991  11.239  11.615 -0.6447 -0.4458 -0.4432
35360SOL    HW217805   8.897  11.302  11.716  0.9011 -0.5532  1.1074
35361SOL     OW17806   4.722   1.468   8.916  0.2060  0.3390 -0.1744
35361SOL    HW117807   4.700   1.421   8.996 -0.2190  0.0157 -0.4765
35361SOL    HW217808   4.714   1.402   8.847  3.1168 -0.1267 -0.2254
35362SOL     OW17809   2.860   0.527   6.081  0.2677 -0.0243 -0.5621
35362SOL    HW117810   2.939   0.477   6.101 -0.8844 -1.9130 -0.4406
35362SOL    HW217811   2.837   0.571   6.162  0.9092  0.1254 -0.4597
35363SOL     OW17812   6.493   3.498  11.459  0.7687  0.1243  0.4394
35363SOL    HW117813   6.456   3.460  11.538  0.8494 -1.8124 -0.3931
35363SOL    HW217814   6.421   3.547  11.419 -0.1124 -1.2236  0.3003
35364SOL     OW17815   6.109   0.976   3.194 -0.1492 -0.0261 -0.3400
35364SOL    HW117816   6.132   1.017   3.277 -0.9595  2.3448 -1.1965
35364SOL    HW217817   6.194   0.962   3.151  0.2004 -0.0693  0.3464
35365SOL     OW17818   1.159   5.563   2.934 -0.3838  0.5266 -0.1240
35365SOL    HW117819   1.072   5.556   2.974  0.2778 -1.7399  1.0989
35365SOL    HW217820   1.215   5.594   3.004 -0.0125  0.9547 -0.6066
35366SOL     OW17821   4.998   3.655   1.994  0.3772  0.2014 -0.9606
35366SOL    HW117822   4.940   3.713   2.043  1.4616 -0.4355  1.1861
35366SOL    HW217823   5.069   3.711   1.963  0.8068  0.2678  0.0973
35367SOL     OW17824   6.801   0.332   3.323  0.3342 -0.2788  0.2028
35367SOL    HW117825   6.742   0.399   3.358  2.0814  1.8234 -0.6846
35367SOL    HW217826   6.756   0.298   3.246  0.1763  1.1548 -0.3614
35368SOL     OW17827  10.415   1.356   8.049  0.4959  0.3825 -0.2104
35368SOL    HW117828  10.483   1.376   8.114  0.1746  0.3045  0.1547
35368SOL    HW217829  10.460   1.304   7.983  0.7478  0.1451  0.1395
35369SOL     OW17830   8.005   1.954   5.324 -0.5038  0.1256 -0.0531
35369SOL    HW117831   8.025   1.860   5.320 -0.4964  0.0786  0.9066
35369SOL    HW217832   7.923   1.958   5.374 -0.7439  0.6007 -0.4823
35370SOL     OW17833   2.318   3.454   1.007 -0.6793  0.5693 -0.5137
35370SOL    HW117834   2.309   3.394   0.933  0.1611  1.3770 -1.3070
35370SOL    HW217835   2.305   3.541   0.968 -1.3261  0.9435  0.5059
35371SOL     OW17836   5.274   2.709   6.789  0.5825 -0.4440 -0.2335
35371SOL    HW117837   5.262   2.641   6.855 -2.4953 -0.3285 -0.5539
35371SOL    HW217838   5.336   2.670   6.726  2.0542 -1.2944  1.6315
35372SOL     OW17839   9.700   1.371   4.628  0.0549 -0.1432  0.0488
35372SOL    HW117840   9.693   1.321   4.547 -0.5759 -1.2060  0.7374
35372SOL    HW217841   9.691   1.463   4.600  1.5846 -0.3509 -1.2792
35373SOL     OW17842  11.258   2.651   4.250 -0.4572  0.0064  0.1623
35373SOL    HW117843  11.236   2.564   4.218 -0.7456  0.1734 -0.0941
35373SOL    HW217844  11.206   2.661   4.330 -0.7303  0.0952 -0.0229
35374SOL     OW17845  11.076   2.833   1.776  0.2707  0.7331 -0.1077
35374SOL    HW117846  11.109   2.747   1.751  1.0889  0.9701  0.1177
35374SOL    HW217847  10.983   2.819   1.795 -0.2674  0.4399 -2.6724
35375SOL     OW17848   7.684   2.389   2.349 -0.2228 -0.3016  0.1783
35375SOL    HW117849   7.768   2.344   2.342 -0.8139 -1.2035 -1.7564
35375SOL    HW217850   7.637   2.341   2.417  1.1094  0.7980  1.9823
35376SOL     OW17851  11.157   5.453   0.997  0.4262 -0.2530  0.0787
35376SOL    HW117852  11.101   5.412   0.931  0.6649  1.6714 -1.4203
35376SOL    HW217853  11.234   5.396   1.002 -0.9548 -2.1391  1.1041
35377SOL     OW17854   2.323   9.113   1.403  0.1706 -0.1625 -0.2974
35377SOL    HW117855   2.302   9.117   1.309 -1.9412  2.7662  0.1539
35377SOL    HW217856   2.417   9.131   1.408 -0.1185  2.0799 -1.7899
35378SOL     OW17857   2.329   2.782  10.224 -0.4365  0.4050 -0.2749
35378SOL    HW117858   2.338   2.771  10.318  0.5228 -0.0211 -0.4084
35378SOL    HW217859   2.239   2.813  10.212  0.6472  4.9119  1.1925
35379SOL     OW17860   9.828   4.274   9.239  0.0907 -0.2069 -0.2107
35379SOL    HW117861   9.821   4.257   9.145  1.7257  2.7760 -1.0106
35379SOL    HW217862   9.914   4.241   9.263  0.1128 -0.0255 -0.0336
35380SOL     OW17863  10.295   1.552   9.578  0.3063  0.5602 -0.2244
35380SOL    HW117864  10.328   1.558   9.668  1.1030  0.4619 -0.5027
35380SOL    HW217865  10.202   1.574   9.586  0.4447  0.9257  0.5705
35381SOL     OW17866   4.597   7.730   8.442  0.0742 -0.5727 -0.0591
35381SOL    HW117867   4.625   7.751   8.531 -0.1690 -0.7387  0.0575
35381SOL    HW217868   4.567   7.814   8.406  2.2745 -0.0155 -0.7802
35382SOL     OW17869   4.295   3.736   0.578 -0.1192 -0.4589 -0.0414
35382SOL    HW117870   4.255   3.769   0.498  0.2356 -0.6959 -0.3248
35382SOL    HW217871   4.242   3.771   0.649 -1.3140 -1.4193 -0.4234
35383SOL     OW17872   2.345   6.074   0.474  0.4470  0.2274 -0.1187
35383SOL    HW117873   2.273   6.126   0.440 -0.5573 -0.8533  0.3171
35383SOL    HW217874   2.382   6.030   0.398 -1.6264 -1.9817  0.0436
35384SOL     OW17875  11.825   2.116  10.157 -0.1970  0.3205 -0.4551
35384SOL    HW117876  11.828   2.083  10.067  1.4464 -0.4361 -0.1742
35384SOL    HW217877  11.804   2.039  10.210  2.4546 -0.1174  0.0956
35385SOL     OW17878   5.269   1.060  10.748 -0.3669  0.1767  0.2399
35385SOL    HW117879   5.355   1.095  10.774 -1.1063  0.3259  2.7626
35385SOL    HW217880   5.267   1.070  10.653  2.0476  0.9910  0.1958
35386SOL     OW17881  10.012  10.019   8.008 -0.3798 -0.0084  0.9308
35386SOL    HW117882  10.074  10.092   8.001 -0.7497  0.2738  0.5361
35386SOL    HW217883   9.931  10.060   8.040 -0.4736 -0.3144  1.0878
35387SOL     OW17884   6.473   9.576   8.518 -0.2184 -0.1274 -0.1331
35387SOL    HW117885   6.477   9.662   8.476 -0.8066  0.7205  1.4924
35387SOL    HW217886   6.405   9.585   8.585  0.9360 -1.3093  1.2607
35388SOL     OW17887   8.666   1.090  10.581 -0.3514  0.1272 -0.4600
35388SOL    HW117888   8.640   1.069  10.491  0.1006  1.3170 -0.8926
35388SOL    HW217889   8.667   1.186  10.584  1.4284  0.1328  0.2717
35389SOL     OW17890  10.162   5.263   8.904  0.0474  0.4307  0.3752
35389SOL    HW117891  10.095   5.312   8.857 -0.1740 -0.6724 -0.5179
35389SOL    HW217892  10.190   5.195   8.842 -0.8694 -1.6365  2.0703
35390SOL     OW17893   8.558   7.432   6.046  0.0860  0.3309 -0.3464
35390SOL    HW117894   8.650   7.424   6.071 -0.0673  0.2789  0.2244
35390SOL    HW217895   8.551   7.384   5.963  0.4011 -0.3844  0.0275
35391SOL     OW17896   6.216   7.425   6.798 -0.6562  0.5568 -0.2563
35391SOL    HW117897   6.228   7.343   6.845 -2.3706  1.6627  2.2818
35391SOL    HW217898   6.271   7.488   6.844  0.0590  1.0504 -1.7131
35392SOL     OW17899   3.193   3.850  10.577  0.5171 -0.4835  0.4135
35392SOL    HW117900   3.124   3.787  10.555  0.0569 -0.4758  1.7473
35392SOL    HW217901   3.273   3.809  10.543 -0.0275 -0.8234 -0.5252
35393SOL     OW17902   0.176   5.570   1.026 -0.3170 -0.0033  0.3452
35393SOL    HW117903   0.156   5.611   0.942 -1.3932 -0.4983  0.3396
35393SOL    HW217904   0.239   5.629   1.067  1.2885 -0.4005 -1.3442
35394SOL     OW17905   9.426   3.833  11.332 -0.1173  0.3352  0.4977
35394SOL    HW117906   9.408   3.925  11.316  0.0843  0.5187  1.2767
35394SOL    HW217907   9.520   3.829  11.346 -0.1162 -0.0005  0.4034
35395SOL     OW17908   6.225  11.863   0.055  0.3174  0.2498 -0.5918
35395SOL    HW117909   6.222  11.939  -0.002  0.4814 -0.7596 -1.9954
35395SOL    HW217910   6.313  11.864   0.092  1.2280 -0.6078 -2.5876
35396SOL     OW17911   3.660   9.258   6.137 -0.0196 -0.0359  0.0530
35396SOL    HW117912   3.745   9.215   6.124 -0.5821 -1.1868  0.0970
35396SOL    HW217913   3.599   9.208   6.083 -1.0253 -0.4049  1.4919
35397SOL     OW17914   5.112   0.908   6.774 -0.1999 -0.8416 -0.0114
35397SOL    HW117915   5.032   0.961   6.779 -0.4048 -1.0223 -1.1789
35397SOL    HW217916   5.183   0.972   6.770 -0.2233 -0.6785  1.6167
35398SOL     OW17917   6.004   7.446   5.698  0.2444  0.4998 -0.3747
35398SOL    HW117918   6.022   7.365   5.650  2.2521  0.2616  0.6685
35398SOL    HW217919   6.059   7.440   5.777 -1.7812  1.5569  1.2193
35399SOL     OW17920   2.399   1.599   6.559  0.4263  0.6564 -0.0949
35399SOL    HW117921   2.341   1.672   6.536 -0.9735 -0.8707 -1.7794
35399SOL    HW217922   2.485   1.626   6.528 -0.4542  0.8229 -2.6014
35400SOL     OW17923   8.759   7.458   6.411 -0.5634  0.5332 -0.2396
35400SOL    HW117924   8.710   7.457   6.494  0.9921  0.0524  0.7131
35400SOL    HW217925   8.714   7.394   6.356 -1.7787  1.0497  0.1287
35401SOL     OW17926   7.488   2.414  10.606 -0.5488  0.1229 -0.0318
35401SOL    HW117927   7.537   2.337  10.634 -1.6532  0.3588  2.8619
35401SOL    HW217928   7.552   2.485  10.608 -0.4716  0.0398  1.6286
35402SOL     OW17929   0.285   2.001   0.989 -0.1651  1.0320  0.5432
35402SOL    HW117930   0.275   2.089   0.952 -0.1531 -0.1340 -2.5332
35402SOL    HW217931   0.378   1.995   1.010  0.3900  1.0185 -1.5989
35403SOL     OW17932  11.506   5.655   0.672 -0.1723 -0.4874  0.3963
35403SOL    HW117933  11.430   5.597   0.663  0.5753 -1.2574 -1.8566
35403SOL    HW217934  11.534   5.644   0.763 -2.3621 -0.6179  1.1249
35404SOL     OW17935   5.727   7.999   4.806 -0.1985 -0.0841 -0.1827
35404SOL    HW117936   5.792   7.985   4.875 -0.0437 -0.7721 -0.4584
35404SOL    HW217937   5.720   7.914   4.762 -0.4047  0.3048 -0.9194
35405SOL     OW17938   3.356   8.274   8.500  0.0352  0.1673 -0.0653
35405SOL    HW117939   3.278   8.239   8.459  0.8212 -2.8863  0.7921
35405SOL    HW217940   3.429   8.229   8.457  1.2284  1.5618  0.4079
35406SOL     OW17941   0.212   6.670  10.546  0.2137  0.3728  0.4437
35406SOL    HW117942   0.262   6.608  10.493  1.2373 -0.2809  2.1186
35406SOL    HW217943   0.248   6.662  10.634 -0.3434  2.5983  0.9396
35407SOL     OW17944   3.725  10.617   9.754 -0.0470  0.0386  0.1774
35407SOL    HW117945   3.768  10.557   9.694 -0.0852  1.3195 -1.1958
35407SOL    HW217946   3.784  10.624   9.829 -0.3412 -2.1388  0.6569
35408SOL     OW17947   6.382  10.558   5.602  0.1050  0.0468 -0.4072
35408SOL    HW117948   6.396  10.539   5.509  1.4757 -0.4099 -0.1261
35408SOL    HW217949   6.470  10.559   5.640 -0.2614  2.1881  0.5281
35409SOL     OW17950   4.090   8.581   6.136 -0.1639 -0.1110 -0.0690
35409SOL    HW117951   4.167   8.560   6.189 -1.5036  0.3659  2.2381
35409SOL    HW217952   4.045   8.497   6.126 -0.4994 -0.0249  0.6185
35410SOL     OW17953   2.030   3.807   0.504 -0.0304  0.2055 -0.0155
35410SOL    HW117954   2.104   3.817   0.564 -0.0402  0.7726 -0.0929
35410SOL    HW217955   1.953   3.804   0.561  0.1587 -2.3549  0.2201
35411SOL     OW17956  11.058   3.461   3.432 -0.1859 -0.2675  0.4603
35411SOL    HW117957  11.150   3.435   3.433  0.1653  0.9144  0.1590
35411SOL    HW217958  11.052   3.528   3.500 -0.8507 -0.3786  0.5190
35412SOL     OW17959   0.918   5.891   7.718 -0.1623 -0.2078 -0.1381
35412SOL    HW117960   0.832   5.923   7.690 -0.9617 -1.4910  0.7592
35412SOL    HW217961   0.960   5.864   7.636 -1.0021 -0.4949 -0.4879
35413SOL     OW17962   6.589   8.731   5.736 -0.2115 -0.1669  0.0099
35413SOL    HW117963   6.600   8.637   5.742 -1.9505 -0.4021  0.1439
35413SOL    HW217964   6.507   8.749   5.782 -0.0556  1.3741 -0.2329
35414SOL     OW17965   6.127   7.709   7.943  0.1587 -0.1784 -0.7333
35414SOL    HW117966   6.078   7.681   7.866 -1.7320  2.9114 -0.7881
35414SOL    HW217967   6.097   7.650   8.012 -3.2672  1.0796 -0.9430
35415SOL     OW17968   9.310   5.740   2.604  0.7237 -0.7134 -0.4232
35415SOL    HW117969   9.253   5.738   2.527  2.9914 -0.3014 -2.2122
35415SOL    HW217970   9.386   5.791   2.577  1.5472 -0.3841  2.1770
35416SOL     OW17971   7.854   0.070   3.641  0.3550  0.5639 -0.3493
35416SOL    HW117972   7.831  -0.019   3.613 -2.4125  1.7466 -2.2326
35416SOL    HW217973   7.773   0.106   3.675  1.4997  2.3408  0.6640
35417SOL     OW17974   4.070   2.583   5.523  0.4236  0.0615  0.1125
35417SOL    HW117975   3.989   2.589   5.472  0.8803  2.9545 -0.4565
35417SOL    HW217976   4.116   2.508   5.487 -2.2929 -2.2002  1.0182
35418SOL     OW17977  11.203  11.096  11.325 -0.3484 -0.1450  0.0533
35418SOL    HW117978  11.188  11.013  11.278  0.7210  0.2837 -1.1057
35418SOL    HW217979  11.234  11.156  11.257 -2.1784  1.5597  0.6428
35419SOL     OW17980   2.761   3.872   2.688  0.1050  0.4619  0.5500
35419SOL    HW117981   2.750   3.958   2.728 -2.9957  0.8368 -0.8327
35419SOL    HW217982   2.763   3.890   2.594  0.9468 -0.8749  0.2870
35420SOL     OW17983   3.219   0.684   4.807 -0.5617  0.0908  0.2051
35420SOL    HW117984   3.209   0.745   4.733  0.3612 -1.2001 -1.0396
35420SOL    HW217985   3.136   0.636   4.810  0.0588 -1.1820 -1.2998
35421SOL     OW17986   4.841   3.463   0.658 -0.3947  0.8626  1.3708
35421SOL    HW117987   4.904   3.393   0.637 -0.7324  0.0486  2.9700
35421SOL    HW217988   4.884   3.514   0.726 -0.5431  1.6728  0.8633
35422SOL     OW17989   3.986   3.175   7.875  0.4363 -0.7329 -0.0179
35422SOL    HW117990   3.975   3.085   7.905  0.4533 -1.2593 -1.5071
35422SOL    HW217991   3.897   3.206   7.858  0.4484 -0.5432  0.2499
35423SOL     OW17992  11.716   4.010   4.246  0.5217 -0.0221 -0.2947
35423SOL    HW117993  11.671   4.080   4.293 -1.5043 -1.2600 -0.2731
35423SOL    HW217994  11.760   4.054   4.174 -0.5960  1.3126 -0.2039
35424SOL     OW17995   2.726   5.523  11.195  0.5555 -0.2741  0.4085
35424SOL    HW117996   2.714   5.429  11.181  0.6764 -0.0521 -1.4299
35424SOL    HW217997   2.807   5.544  11.150  0.8652  0.6119  1.3483
35425SOL     OW17998   6.787   1.562   0.042 -0.0920  0.1328 -0.2164
35425SOL    HW117999   6.844   1.485   0.050 -0.4124 -0.1228 -0.3873
35425SOL    HW218000   6.833   1.619  -0.020  0.3383  0.2574  0.2077
35426SOL     OW18001   0.510   2.500   6.130  0.3663  0.2789  0.5926
35426SOL    HW118002   0.524   2.519   6.223 -0.1485 -1.9369  1.1920
35426SOL    HW218003   0.426   2.540   6.110 -0.3326 -0.6488  1.5746
35427SOL     OW18004  10.624   4.513   2.746 -0.2433 -0.6582 -0.5817
35427SOL    HW118005  10.663   4.593   2.711 -0.1659  0.8443  2.6337
35427SOL    HW218006  10.699   4.462   2.777 -0.4813  0.1449  1.4421
35428SOL     OW18007   5.113   5.205   4.817 -0.6359  0.0444 -0.1471
35428SOL    HW118008   5.147   5.266   4.882 -1.6695  2.1094 -1.4177
35428SOL    HW218009   5.068   5.138   4.867 -0.7191  1.1392  1.2938
35429SOL     OW18010   8.682   3.073   5.277 -0.6412 -0.3492 -0.1776
35429SOL    HW118011   8.726   3.055   5.360  0.2639 -0.7810 -0.7368
35429SOL    HW218012   8.656   3.165   5.284  0.5107 -0.0261  0.1094
35430SOL     OW18013   4.628   9.208   6.946 -0.2107  0.4515  0.5312
35430SOL    HW118014   4.710   9.254   6.930  1.2531 -2.0935  0.2688
35430SOL    HW218015   4.588   9.200   6.860  1.2924 -1.8028 -0.0294
35431SOL     OW18016   1.584  10.021   6.158 -0.0112  0.6236 -0.3640
35431SOL    HW118017   1.625  10.095   6.114  0.4659  0.0180 -0.9493
35431SOL    HW218018   1.649   9.992   6.223  1.2219 -1.3264 -2.3462
35432SOL     OW18019   8.715   5.098  10.288  0.2875  0.0933  0.3919
35432SOL    HW118020   8.724   5.045  10.209 -0.5626 -0.0479  0.3749
35432SOL    HW218021   8.804   5.124  10.310  0.4643  0.9185 -1.1450
35433SOL     OW18022   4.697   0.201   6.147  0.2081 -0.3967 -0.1213
35433SOL    HW118023   4.744   0.129   6.104  0.4563 -0.7269  0.6887
35433SOL    HW218024   4.759   0.234   6.212 -0.0004  0.3914 -0.3088
35434SOL     OW18025   1.062   5.601  11.812  0.3363 -0.3247 -0.1181
35434SOL    HW118026   1.145   5.575  11.851  0.7421  0.1397 -0.6511
35434SOL    HW218027   1.081   5.685  11.769 -0.3252 -0.3665 -0.5093
35435SOL     OW18028   3.586   9.616   7.327  0.1601 -0.3266 -0.2514
35435SOL    HW118029   3.522   9.686   7.342 -1.3557 -1.7836  0.2687
35435SOL    HW218030   3.656   9.635   7.391 -1.5655 -0.8351  1.8903
35436SOL     OW18031   4.402   2.679  11.953  0.0268 -0.0498  0.2577
35436SOL    HW118032   4.352   2.742  11.901 -1.3635 -1.0343  0.3314
35436SOL    HW218033   4.493   2.694  11.928 -0.3732  1.2518 -0.5178
35437SOL     OW18034   8.243   9.051  10.319 -0.5817 -0.4465  1.0304
35437SOL    HW118035   8.338   9.056  10.320 -0.5961  0.5745 -0.0896
35437SOL    HW218036   8.217   9.073  10.408  0.2071  0.3075  1.0927
35438SOL     OW18037   6.746   1.326   1.684  0.3062  0.1519 -0.1150
35438SOL    HW118038   6.828   1.336   1.732  0.7684  0.3167 -0.9184
35438SOL    HW218039   6.769   1.276   1.606  0.4421  3.2167 -2.2184
35439SOL     OW18040   8.138   5.481   8.609  0.0188  0.0973  1.0393
35439SOL    HW118041   8.140   5.521   8.696  4.6104  0.3932  1.0274
35439SOL    HW218042   8.188   5.400   8.619  0.3108 -0.0601 -1.2089
35440SOL     OW18043   8.534   1.240   2.033 -0.2014  0.0189 -0.4092
35440SOL    HW118044   8.598   1.170   2.023 -1.6428 -1.3413 -0.5062
35440SOL    HW218045   8.529   1.280   1.946 -1.0361 -1.2876 -0.9870
35441SOL     OW18046   4.696   8.473   0.947  0.0773 -0.2506 -0.1019
35441SOL    HW118047   4.744   8.419   0.884 -1.1384 -1.0518 -0.3796
35441SOL    HW218048   4.637   8.527   0.894 -0.1292 -0.0826  0.2852
35442SOL     OW18049  10.032   7.918   0.296  0.3702  0.3502 -0.0239
35442SOL    HW118050   9.981   7.862   0.354 -0.0693 -0.6844 -1.3458
35442SOL    HW218051   9.971   7.942   0.226  1.3191  0.1856 -0.9294
35443SOL     OW18052   4.386   1.336  10.771  0.3242  0.5462 -0.0487
35443SOL    HW118053   4.345   1.324  10.857 -1.0475  0.3456 -0.6990
35443SOL    HW218054   4.403   1.430  10.765  0.1648  0.5988  0.3259
35444SOL     OW18055  11.044   3.820   4.837  0.2162  0.0529 -0.8977
35444SOL    HW118056  11.026   3.880   4.764  0.9216  0.2864 -0.8909
35444SOL    HW218057  11.113   3.864   4.887  1.1575 -1.0216 -1.2118
35445SOL     OW18058   9.331   1.378   6.192  0.1070  0.1652  0.3857
35445SOL    HW118059   9.357   1.353   6.280  1.2189 -2.4140 -0.5648
35445SOL    HW218060   9.410   1.416   6.153  0.1627 -0.3584 -0.0319
35446SOL     OW18061  10.489   6.008   4.649 -0.7156  0.2938  0.6428
35446SOL    HW118062  10.569   6.024   4.699 -0.8355  1.3633  0.5138
35446SOL    HW218063  10.452   6.095   4.634 -1.6005 -0.1451  0.2002
35447SOL     OW18064   0.426   9.382   6.928  0.2335  0.3559  0.3165
35447SOL    HW118065   0.335   9.358   6.912  0.3273  0.3557 -0.2336
35447SOL    HW218066   0.420   9.468   6.970  0.0230  1.3218 -1.5816
35448SOL     OW18067   8.463  10.700   9.586 -0.0336 -0.2989  0.0949
35448SOL    HW118068   8.491  10.760   9.656  0.1485  0.4708 -0.6199
35448SOL    HW218069   8.370  10.719   9.574 -0.4931 -1.6463  1.2887
35449SOL     OW18070  11.297   2.457   2.825  0.0358 -0.4512  0.0864
35449SOL    HW118071  11.270   2.406   2.749 -0.0895  1.1682 -1.0164
35449SOL    HW218072  11.228   2.523   2.835  0.1532 -0.5110  1.4960
35450SOL     OW18073   8.978   3.037   3.328  0.1409 -0.4864  0.0487
35450SOL    HW118074   8.966   2.955   3.376  2.6723 -1.5976 -1.0174
35450SOL    HW218075   8.927   3.025   3.248  0.6034 -1.1402 -0.1672
35451SOL     OW18076   2.279   9.130   2.358  0.4814 -0.4035  0.3069
35451SOL    HW118077   2.235   9.091   2.283  0.9226 -0.2480 -0.0372
35451SOL    HW218078   2.364   9.159   2.324  0.4871  0.1145  0.7455
35452SOL     OW18079  11.821   4.371   5.612 -0.2580  0.1418  0.5439
35452SOL    HW118080  11.824   4.309   5.685  0.1411  0.3260  0.6856
35452SOL    HW218081  11.907   4.364   5.570 -1.0734 -1.2622 -1.0013
35453SOL     OW18082   9.444   8.797   5.255  0.2970  0.0046  0.7245
35453SOL    HW118083   9.464   8.795   5.161 -0.8477  0.5183  0.4484
35453SOL    HW218084   9.398   8.880   5.267  0.3036 -0.1283  1.7171
35454SOL     OW18085   2.882   2.771   6.926  0.1557 -0.6397 -0.3526
35454SOL    HW118086   2.799   2.814   6.910  0.9134  0.7180 -0.7602
35454SOL    HW218087   2.947   2.841   6.926  1.3001 -1.6473  0.0533
35455SOL     OW18088   2.423   2.544   0.718 -0.0542  0.0435  0.5971
35455SOL    HW118089   2.502   2.492   0.737 -0.1184  0.2664  1.4871
35455SOL    HW218090   2.455   2.617   0.665  0.1363 -0.5469 -0.1277
35456SOL     OW18091   0.647   2.870   9.207 -0.0952  0.1411 -0.4790
35456SOL    HW118092   0.634   2.806   9.137 -0.0821 -0.3702 -0.0231
35456SOL    HW218093   0.561   2.912   9.218 -0.2020 -0.0613 -0.5323
35457SOL     OW18094   7.753   9.849   9.516  0.2269  0.2040 -0.7714
35457SOL    HW118095   7.676   9.885   9.472  0.3699 -0.1235 -1.3030
35457SOL    HW218096   7.823   9.857   9.452  0.3682 -0.5757 -0.7255
35458SOL     OW18097   0.549   0.028   4.604  0.1357 -0.2062  0.3759
35458SOL    HW118098   0.524   0.120   4.606 -0.8165 -0.2011 -3.3019
35458SOL    HW218099   0.475  -0.018   4.644 -0.7494  0.4918 -0.4067
35459SOL     OW18100  11.346   8.569  10.837 -0.4659 -0.1149 -0.0636
35459SOL    HW118101  11.293   8.607  10.768 -0.0552  0.3415 -0.1309
35459SOL    HW218102  11.435   8.567  10.801  0.0012  1.3328  0.9074
35460SOL     OW18103   2.322   1.778   0.403  0.5043 -0.2245 -0.1305
35460SOL    HW118104   2.399   1.725   0.387 -0.7231 -2.3309  0.5389
35460SOL    HW218105   2.248   1.722   0.379 -0.8736  1.1688  0.6259
35461SOL     OW18106   2.014  10.568   9.393 -0.3292 -0.2879 -0.2570
35461SOL    HW118107   2.068  10.637   9.430  0.4563 -0.4036 -1.1347
35461SOL    HW218108   1.958  10.612   9.329 -1.2005 -0.1882  0.5566
35462SOL     OW18109   5.094   8.074   7.148  0.1046  0.2008  0.3079
35462SOL    HW118110   5.073   8.163   7.121 -0.7775 -0.2858 -0.6888
35462SOL    HW218111   5.015   8.045   7.194 -0.5530 -0.8282 -1.3752
35463SOL     OW18112   9.802   0.084   8.823 -0.0295 -0.4907  0.0255
35463SOL    HW118113   9.820   0.110   8.914 -0.0153  0.5202 -0.2546
35463SOL    HW218114   9.886   0.056   8.789  0.2204  0.3620 -0.0629
35464SOL     OW18115   1.472   4.495   2.698  0.4167  0.1183  0.7237
35464SOL    HW118116   1.510   4.427   2.754 -0.2742 -0.9998 -0.1242
35464SOL    HW218117   1.380   4.469   2.688  0.6903 -0.1672 -1.5484
35465SOL     OW18118   3.490  11.457   0.510 -0.2331  0.0493  0.0035
35465SOL    HW118119   3.482  11.413   0.425  2.4628  0.0998 -0.3587
35465SOL    HW218120   3.486  11.550   0.489 -1.1308  0.0653  0.1772
35466SOL     OW18121  11.844   5.975  10.786  0.2563  0.1983 -0.0423
35466SOL    HW118122  11.799   5.958  10.703  1.0824 -3.4410  0.0671
35466SOL    HW218123  11.931   6.006  10.760  0.4098 -0.6387 -0.5715
35467SOL     OW18124   6.794   1.805   7.319  0.2288 -0.2571 -0.7398
35467SOL    HW118125   6.701   1.830   7.321 -0.4903 -2.5210 -2.0156
35467SOL    HW218126   6.831   1.854   7.246 -0.6771 -1.3609 -1.9877
35468SOL     OW18127   9.161   2.822   1.747  0.7034 -0.4399  0.4198
35468SOL    HW118128   9.245   2.830   1.701  0.4760  0.8449  0.1880
35468SOL    HW218129   9.171   2.879   1.823  0.7104 -1.7750  1.4587
35469SOL     OW18130   0.245   5.007   2.792 -0.6744  0.0653 -0.9819
35469SOL    HW118131   0.289   4.927   2.820 -1.7773  0.1699  1.3114
35469SOL    HW218132   0.179   4.977   2.729 -1.9291 -1.1057  0.7747
35470SOL     OW18133   4.505   2.553   8.838  0.3288  0.0245 -0.5691
35470SOL    HW118134   4.485   2.465   8.868 -0.4768  0.6466  0.8317
35470SOL    HW218135   4.530   2.601   8.917  1.8261  0.7872 -1.4631
35471SOL     OW18136   3.539   1.274   0.063  0.3755  0.3724 -0.0279
35471SOL    HW118137   3.468   1.215   0.089 -0.3901  0.0608 -2.5551
35471SOL    HW218138   3.562   1.245  -0.026 -0.3013  4.0838 -1.5666
35472SOL     OW18139   1.719   6.093   0.891  0.2371  0.2413 -0.0115
35472SOL    HW118140   1.753   6.154   0.825 -3.4809  0.6086 -1.8414
35472SOL    HW218141   1.731   6.006   0.852 -1.5367  0.4301 -1.1180
35473SOL     OW18142   0.751  11.906   4.359  0.3023 -0.0468 -0.4161
35473SOL    HW118143   0.833  11.949   4.382  0.8070 -1.5937  0.9110
35473SOL    HW218144   0.701  11.905   4.441  0.0109 -1.2600 -0.5824
35474SOL     OW18145   7.945   8.677   2.516 -0.1165  0.2714 -0.4822
35474SOL    HW118146   7.993   8.685   2.434  0.1306  1.1526 -0.2606
35474SOL    HW218147   8.008   8.639   2.577  0.0320  0.6149 -0.4208
35475SOL     OW18148   1.961  11.038   0.852  0.4994 -0.2363  0.3587
35475SOL    HW118149   1.892  10.987   0.896  1.9067 -2.7440 -0.1611
35475SOL    HW218150   1.943  11.028   0.759  2.4119 -2.3580  0.1362
35476SOL     OW18151   0.432   8.344   9.690  0.3153 -0.0539  0.1919
35476SOL    HW118152   0.473   8.423   9.727  0.2709  0.6187 -1.1261
35476SOL    HW218153   0.477   8.271   9.733  2.0740  0.6767 -0.3267
35477SOL     OW18154   0.056   4.049   5.118  0.1951 -0.2685 -0.3553
35477SOL    HW118155   0.022   4.129   5.157  0.5235 -0.6612  0.7923
35477SOL    HW218156   0.104   4.006   5.189  0.5531 -1.1781 -1.1160
35478SOL     OW18157   2.484   1.520   2.226 -0.1863 -0.9940  0.3719
35478SOL    HW118158   2.502   1.487   2.138  1.5044  2.0094 -0.5331
35478SOL    HW218159   2.430   1.452   2.266 -2.1643 -1.9169 -3.3861
35479SOL     OW18160   5.993   2.828   2.879  0.2793 -0.0630  0.6129
35479SOL    HW118161   6.033   2.743   2.898  0.3377 -0.6252 -1.6748
35479SOL    HW218162   5.957   2.818   2.791  0.8729  2.5027  0.0007
35480SOL     OW18163  11.900   7.443  10.051  0.3308 -0.3533 -0.4112
35480SOL    HW118164  11.886   7.535  10.030 -0.3639 -0.4210 -0.2630
35480SOL    HW218165  11.819   7.415  10.092  0.7158 -0.9090 -0.0155
35481SOL     OW18166   0.624   7.142   9.929  0.0659  0.3171 -0.2006
35481SOL    HW118167   0.541   7.165   9.970  0.0513  0.8833 -0.5359
35481SOL    HW218168   0.620   7.047   9.918 -1.1977  0.4996 -1.6013
35482SOL     OW18169   8.458   4.150   4.348  0.9691 -0.0570  0.0754
35482SOL    HW118170   8.531   4.150   4.410 -0.3373 -0.3865  1.7147
35482SOL    HW218171   8.456   4.061   4.313  0.2387 -0.6369  1.4933
35483SOL     OW18172  11.609   4.241   9.211  0.1135  0.3690  0.2421
35483SOL    HW118173  11.571   4.263   9.296 -0.6574 -2.1401  0.6216
35483SOL    HW218174  11.543   4.186   9.169  1.2215  0.1377 -1.2780
35484SOL     OW18175   5.237  10.603   3.209  0.1934  0.6150  0.8333
35484SOL    HW118176   5.184  10.554   3.146 -0.8474 -1.3739  3.1070
35484SOL    HW218177   5.173  10.645   3.266  1.1067  3.1079  0.1356
35485SOL     OW18178   6.373   3.772   7.261  0.1580  0.5470 -0.3686
35485SOL    HW118179   6.442   3.710   7.287 -0.3705 -0.3662 -1.1132
35485SOL    HW218180   6.355   3.752   7.169 -2.8022 -0.8997  0.4121
35486SOL     OW18181   6.553   4.190   5.853  0.2500  0.0120  0.2199
35486SOL    HW118182   6.632   4.227   5.813  0.2900 -1.9262 -1.6530
35486SOL    HW218183   6.586   4.137   5.925  0.2544  2.6119  2.3044
35487SOL     OW18184   5.040   3.723  11.362 -0.0577  0.2067 -0.1609
35487SOL    HW118185   5.023   3.665  11.287 -0.5271  0.3604 -0.1766
35487SOL    HW218186   4.958   3.723  11.411 -0.4417  1.6985 -0.7354
35488SOL     OW18187   5.005   6.896   9.557  0.1303  0.5780 -0.4518
35488SOL    HW118188   4.963   6.844   9.489  0.4571  0.3687 -0.4973
35488SOL    HW218189   5.021   6.981   9.516  1.6412  0.0006 -1.1262
35489SOL     OW18190   4.674  11.651   7.121  0.4444 -0.3034  0.0572
35489SOL    HW118191   4.680  11.708   7.197  1.8056  0.2867 -0.4586
35489SOL    HW218192   4.704  11.566   7.153  1.7341  0.1205  0.0279
35490SOL     OW18193   9.107   4.272   1.948  0.5426 -0.6401  0.1727
35490SOL    HW118194   9.158   4.202   1.988  1.8719 -0.1405 -0.5764
35490SOL    HW218195   9.172   4.334   1.914 -0.5776  0.6790  0.2953
35491SOL     OW18196   4.280   3.753  10.134  0.0677  0.0095 -0.4716
35491SOL    HW118197   4.234   3.701  10.068 -0.0143  0.4819 -0.7873
35491SOL    HW218198   4.304   3.690  10.202 -0.2012 -0.4072 -0.7628
35492SOL     OW18199   0.528   4.138   9.967 -0.4724 -0.1824  0.1490
35492SOL    HW118200   0.453   4.108  10.018 -1.3208  0.2592 -0.7966
35492SOL    HW218201   0.494   4.145   9.877  0.5668  0.5009 -0.2016
35493SOL     OW18202   0.032   9.153   5.628 -0.2299  0.2053  0.6160
35493SOL    HW118203  -0.054   9.123   5.599  0.3708 -0.9408 -0.0165
35493SOL    HW218204   0.079   9.174   5.547  0.3542  0.0839  0.9208
35494SOL     OW18205  11.697   2.847   1.544 -0.0887  0.3907  0.6846
35494SOL    HW118206  11.792   2.833   1.537  0.2362  2.8925 -1.5064
35494SOL    HW218207  11.686   2.896   1.626  0.6522  0.8853  0.5002
35495SOL     OW18208   7.203   7.045  11.923  0.6912  0.6158  0.1664
35495SOL    HW118209   7.269   7.024  11.989 -0.0731  0.7079  0.9578
35495SOL    HW218210   7.254   7.085  11.852  1.4444  0.9886  0.9023
35496SOL     OW18211   7.641  10.768   4.197  0.1306 -0.3013  0.0691
35496SOL    HW118212   7.716  10.827   4.191  0.1568 -0.3850 -0.4131
35496SOL    HW218213   7.673  10.696   4.251 -0.0296  0.3120  1.0151
35497SOL     OW18214   1.114   3.493   1.574  0.4099 -0.5642  0.2311
35497SOL    HW118215   1.076   3.456   1.494 -1.5197 -0.2880  0.9536
35497SOL    HW218216   1.051   3.559   1.602  1.6166  0.1633  1.3672
35498SOL     OW18217   0.457  10.970   4.609  0.1933 -0.4352  0.2752
35498SOL    HW118218   0.483  10.881   4.582 -0.0261 -0.2012 -0.7555
35498SOL    HW218219   0.538  11.019   4.611  0.2167 -0.4666  0.0935
35499SOL     OW18220   7.641   4.464   1.451  0.6235 -0.1540 -0.2497
35499SOL    HW118221   7.615   4.372   1.460 -0.6309  0.1770 -0.3515
35499SOL    HW218222   7.567   4.514   1.485  0.5179  0.8746 -1.9061
35500SOL     OW18223   2.805   3.211   8.154  0.0544 -0.5437 -0.9632
35500SOL    HW118224   2.792   3.213   8.059 -1.5812 -2.1434 -0.8090
35500SOL    HW218225   2.835   3.122   8.172  1.0941 -0.0313 -0.0252
35501SOL     OW18226   9.587  11.168  10.140  0.0693 -0.1766 -0.5804
35501SOL    HW118227   9.568  11.166  10.234 -1.7653  0.2849 -0.9000
35501SOL    HW218228   9.565  11.080  10.110  0.4847 -0.2712 -0.6109
35502SOL     OW18229   7.374   1.804   5.800 -0.0438  0.2633  0.2685
35502SOL    HW118230   7.402   1.869   5.864 -0.4918  0.9364 -0.2045
35502SOL    HW218231   7.279   1.812   5.797 -0.1060 -0.4273  0.2124
35503SOL     OW18232   9.330   7.631   6.175 -0.6689  0.3435  0.4482
35503SOL    HW118233   9.381   7.692   6.230 -0.2745 -1.5880  2.4009
35503SOL    HW218234   9.383   7.551   6.174 -1.0661  0.0299 -2.1944
35504SOL     OW18235   3.615  11.578  11.456 -0.0832 -1.0492  0.6525
35504SOL    HW118236   3.527  11.560  11.424 -0.3323  2.1107 -0.8462
35504SOL    HW218237   3.602  11.603  11.548 -1.2979  2.0266 -0.2161
35505SOL     OW18238   2.110   7.883   7.949 -0.2109 -0.4954  0.0380
35505SOL    HW118239   2.195   7.926   7.937  0.0602 -1.2399 -0.7666
35505SOL    HW218240   2.055   7.919   7.879 -0.6565  0.1858  0.7177
35506SOL     OW18241   7.101   4.864   6.240  0.2696  0.1528 -0.1729
35506SOL    HW118242   7.030   4.882   6.302 -1.2361 -0.1581 -1.7468
35506SOL    HW218243   7.083   4.776   6.208  1.4017  0.0566 -0.5823
35507SOL     OW18244   7.964   2.389   0.335  0.3263 -0.0732  0.5297
35507SOL    HW118245   7.949   2.341   0.254 -0.0811 -0.1941  0.6768
35507SOL    HW218246   7.912   2.468   0.327  1.6043  0.7504 -0.0494
35508SOL     OW18247   8.923   7.719   6.999  0.1443  0.2327 -0.4869
35508SOL    HW118248   8.833   7.752   7.007 -1.2327 -3.1572 -0.3259
35508SOL    HW218249   8.939   7.718   6.904 -0.2056  0.3343 -0.5516
35509SOL     OW18250  10.809   4.303   3.010 -0.4359 -0.4628  0.1908
35509SOL    HW118251  10.775   4.217   2.985 -0.8273 -0.0547 -0.7107
35509SOL    HW218252  10.794   4.359   2.933  0.1327  0.3261  0.6325
35510SOL     OW18253   4.913   7.155   5.803 -0.7917  0.0703  0.1914
35510SOL    HW118254   4.907   7.181   5.711  1.9755  1.6083  0.3407
35510SOL    HW218255   4.999   7.186   5.832 -0.6313 -2.2907  2.7235
35511SOL     OW18256   3.915   3.284   4.613  0.6344  0.1361 -0.2973
35511SOL    HW118257   3.950   3.207   4.568  1.7147  1.4885 -1.8789
35511SOL    HW218258   3.966   3.357   4.579 -0.6058  1.6208  0.8894
35512SOL     OW18259   1.941   9.177   7.032  0.2002  0.1349 -0.3036
35512SOL    HW118260   1.861   9.133   7.003 -1.1262  1.9821  0.3980
35512SOL    HW218261   1.945   9.160   7.127  1.3709 -1.0087 -0.5246
35513SOL     OW18262   3.420  11.028   5.887 -0.5359 -0.1522 -0.2935
35513SOL    HW118263   3.414  10.952   5.828  0.9130  0.1107 -0.8061
35513SOL    HW218264   3.432  11.103   5.829  1.0600  0.0950  0.3267
35514SOL     OW18265   4.182   6.738   1.253  0.0313  0.2421 -0.0987
35514SOL    HW118266   4.111   6.688   1.292 -0.0396 -0.3963 -1.0073
35514SOL    HW218267   4.231   6.774   1.327 -0.3061 -0.6183  0.5516
35515SOL     OW18268   0.669   6.402   3.639 -1.0130 -0.0030 -0.3863
35515SOL    HW118269   0.584   6.360   3.651 -0.7097 -0.9561 -1.4408
35515SOL    HW218270   0.733   6.336   3.665 -0.5804  0.6664  0.2821
35516SOL     OW18271   5.001   4.118   8.361 -0.1100  0.0011  0.2285
35516SOL    HW118272   5.082   4.133   8.312 -1.4170  0.8725 -1.8011
35516SOL    HW218273   5.013   4.165   8.444  1.6424 -0.3661  0.2172
35517SOL     OW18274   8.862  11.400   8.789  0.2510  0.2790 -0.1099
35517SOL    HW118275   8.831  11.491   8.789  0.8916  0.5136 -1.0906
35517SOL    HW218276   8.822  11.361   8.712 -2.0380 -1.0304  1.6248
35518SOL     OW18277   4.024   6.229   3.777  0.4656 -0.2890  0.0677
35518SOL    HW118278   4.047   6.296   3.713 -0.2881  0.9439  1.0535
35518SOL    HW218279   4.048   6.266   3.861 -0.0985 -1.1975  0.6489
35519SOL     OW18280   4.496  11.061   5.300 -0.2229  0.2861 -0.3051
35519SOL    HW118281   4.415  11.079   5.348 -0.5856 -0.5902 -0.5634
35519SOL    HW218282   4.466  11.036   5.212  0.3418  0.2742 -0.4974
35520SOL     OW18283   8.616   4.934   1.128 -0.1118  0.0285  0.1112
35520SOL    HW118284   8.550   4.936   1.059 -0.8793 -0.5979  0.8095
35520SOL    HW218285   8.610   4.847   1.166  0.7116  0.1585  0.5798
35521SOL     OW18286  10.424   0.810   0.170 -0.7172 -0.1162 -0.2595
35521SOL    HW118287  10.351   0.750   0.179 -1.3204  0.6634  0.1639
35521SOL    HW218288  10.472   0.778   0.093 -0.3634 -1.8021  0.6151
35522SOL     OW18289  11.460   6.889   6.295 -0.2436 -0.7087 -0.2642
35522SOL    HW118290  11.526   6.922   6.356 -0.0498  0.0767 -0.8749
35522SOL    HW218291  11.394   6.959   6.291 -1.4586 -1.7460  0.8217
35523SOL     OW18292   3.181   3.525  11.380 -0.5058  0.0583 -0.5792
35523SOL    HW118293   3.183   3.616  11.408 -0.3021 -0.1489  0.0989
35523SOL    HW218294   3.099   3.516  11.332 -1.4231  0.1548  0.9102
35524SOL     OW18295   8.415   3.155   5.392  0.0367 -0.6293  0.3617
35524SOL    HW118296   8.414   3.172   5.486  0.4760 -1.2246  0.4750
35524SOL    HW218297   8.468   3.226   5.356 -1.2837  0.4123  0.3837
35525SOL     OW18298   8.022   3.665  10.213  0.6508  0.0300  0.2039
35525SOL    HW118299   7.932   3.696  10.196  0.0662 -1.2540  0.8208
35525SOL    HW218300   8.026   3.655  10.308  2.0667  1.7777  0.3908
35526SOL     OW18301   6.823   4.580   0.511 -0.1838  0.5605 -0.2544
35526SOL    HW118302   6.730   4.591   0.534  0.1326  0.8830  0.9471
35526SOL    HW218303   6.824   4.505   0.451 -0.9846 -1.0305  1.6018
35527SOL     OW18304   7.578  10.867   6.614 -0.4295 -0.0450  0.1608
35527SOL    HW118305   7.635  10.898   6.544  0.2504  0.1097  0.7799
35527SOL    HW218306   7.524  10.799   6.572 -0.1144  0.1272 -0.5406
35528SOL     OW18307   2.245   0.051   3.975 -0.0993 -0.5763 -0.1299
35528SOL    HW118308   2.187   0.018   4.043  1.0369  1.3299  1.9021
35528SOL    HW218309   2.331   0.014   3.997  0.4787  0.8669  0.1268
35529SOL     OW18310   3.417   6.132   9.861  0.3585 -0.0521  0.3158
35529SOL    HW118311   3.455   6.160   9.777  1.9524  0.5452  1.1959
35529SOL    HW218312   3.493   6.118   9.918 -0.7108  0.2879  1.8868
35530SOL     OW18313   3.320  10.793   8.267  0.3192  0.3224  0.2284
35530SOL    HW118314   3.374  10.765   8.341  0.9497 -1.0247 -0.7037
35530SOL    HW218315   3.293  10.712   8.225 -0.4665  1.0487 -0.7134
35531SOL     OW18316   6.746  11.053   3.039 -0.5359 -0.4827  0.2669
35531SOL    HW118317   6.803  11.129   3.042  0.0875 -0.8479 -1.1609
35531SOL    HW218318   6.699  11.054   3.122  0.8764  0.3508  1.0956
35532SOL     OW18319   8.077  11.860  10.694 -0.4270 -0.0982  0.3218
35532SOL    HW118320   7.998  11.807  10.704 -0.0563 -0.7286 -0.0816
35532SOL    HW218321   8.044  11.950  10.683 -1.2176 -0.5966 -1.9803
35533SOL     OW18322   9.857   5.752   0.967 -0.3458 -0.1266  0.4958
35533SOL    HW118323   9.931   5.739   1.027  0.3203  1.5727  0.0975
35533SOL    HW218324   9.814   5.666   0.964  0.9589 -0.8713  1.5855
35534SOL     OW18325   4.236   3.895   8.913 -0.3366 -0.0488 -0.1108
35534SOL    HW118326   4.200   3.844   8.840 -0.3076 -0.6944  0.3271
35534SOL    HW218327   4.318   3.932   8.878 -0.4972 -0.0710 -0.5170
35535SOL     OW18328   3.635   3.967   3.108 -0.2497 -0.1319 -0.6933
35535SOL    HW118329   3.685   3.886   3.102  1.4108  0.8481 -0.6235
35535SOL    HW218330   3.620   3.994   3.018  0.3689  0.1762 -0.7041
35536SOL     OW18331  10.598   2.916  11.196  0.0957 -0.0862 -0.1244
35536SOL    HW118332  10.558   2.917  11.109  2.6316 -0.7746 -1.3980
35536SOL    HW218333  10.687   2.883  11.181  0.4556 -0.7143  2.8216
35537SOL     OW18334   4.321  10.607   6.433  0.1913 -0.5082 -0.1194
35537SOL    HW118335   4.417  10.596   6.432  0.5235  1.8416  0.9338
35537SOL    HW218336   4.303  10.665   6.359 -0.3190 -0.2583  0.2026
35538SOL     OW18337  11.767   8.414   5.255  0.3441  0.1703 -0.0457
35538SOL    HW118338  11.687   8.465   5.265  0.7384  0.6026  1.0370
35538SOL    HW218339  11.737   8.323   5.257 -0.0491  0.2911  1.5100
35539SOL     OW18340   6.071   2.474   6.603 -0.2650  0.3237 -0.0829
35539SOL    HW118341   6.100   2.543   6.663 -1.6550  0.6717  0.2093
35539SOL    HW218342   6.033   2.521   6.529 -0.7870 -0.1299 -0.1025
35540SOL     OW18343   2.996   7.587   6.591  0.9249 -0.2806  0.1970
35540SOL    HW118344   2.930   7.556   6.529  0.4042 -0.7193  0.9478
35540SOL    HW218345   2.952   7.657   6.640  1.2203 -0.1556  0.2866
35541SOL     OW18346   1.709  11.686   6.427 -0.1014 -0.4611 -0.4157
35541SOL    HW118347   1.775  11.639   6.376  0.2915 -0.1052 -0.2427
35541SOL    HW218348   1.730  11.778   6.413  0.0450 -0.3625  0.4422
35542SOL     OW18349   5.180   9.818  11.409  0.1118  0.3852  0.0346
35542SOL    HW118350   5.140   9.902  11.431 -1.1388 -0.2089  0.1344
35542SOL    HW218351   5.147   9.757  11.476 -0.0173 -0.4440 -0.7577
35543SOL     OW18352   7.221  11.064   5.897 -0.2577  0.0845  0.3887
35543SOL    HW118353   7.290  11.012   5.938  0.7889  1.1244  0.0180
35543SOL    HW218354   7.155  11.074   5.965 -0.2810 -1.3285  0.6000
35544SOL     OW18355   4.864   7.466   2.673  0.0456  0.2171  0.3739
35544SOL    HW118356   4.928   7.412   2.626 -1.3742 -1.1633 -0.0453
35544SOL    HW218357   4.872   7.439   2.765 -0.9086 -1.0346  0.1175
35545SOL     OW18358   6.062  10.126  10.009  0.0364 -0.2389 -0.0234
35545SOL    HW118359   6.078  10.200  10.068  1.4864 -0.1806 -0.4575
35545SOL    HW218360   6.084  10.049  10.062 -0.3161 -0.2875  0.0514
35546SOL     OW18361   6.555  11.576   4.543 -0.0790 -0.1780 -0.0116
35546SOL    HW118362   6.568  11.530   4.625 -0.4104 -0.5553 -0.1644
35546SOL    HW218363   6.596  11.521   4.477 -0.0796 -0.0290 -0.1384
35547SOL     OW18364   5.549   0.052   4.007 -0.2669  0.0080 -0.6234
35547SOL    HW118365   5.619   0.104   4.047  0.1460 -0.4192 -0.7864
35547SOL    HW218366   5.594  -0.005   3.945 -0.9063  0.6615 -1.7068
35548SOL     OW18367   9.721  10.962   5.752  0.5683  0.4271 -0.5150
35548SOL    HW118368   9.770  10.881   5.737 -0.9720 -0.5379 -0.5025
35548SOL    HW218369   9.661  10.941   5.824 -0.7828  1.1496 -1.3895
35549SOL     OW18370   2.907   8.556   9.450 -0.3609  0.4792  0.3371
35549SOL    HW118371   2.970   8.583   9.383  0.1726  0.5925  0.8817
35549SOL    HW218372   2.950   8.575   9.533 -0.7194 -0.3655  0.7199
35550SOL     OW18373  10.408   3.415   4.129  0.4954  1.0251 -0.0598
35550SOL    HW118374  10.478   3.475   4.102  0.9615  1.3531  1.6925
35550SOL    HW218375  10.376   3.452   4.212 -1.5930  0.7281 -0.6857
35551SOL     OW18376   4.169   1.337  10.167  0.1466 -0.7075  0.0483
35551SOL    HW118377   4.085   1.310  10.205 -0.2614 -1.2490 -1.1871
35551SOL    HW218378   4.217   1.255  10.158 -0.2875 -0.8067 -1.7988
35552SOL     OW18379   9.449  11.233   3.164  0.7487 -0.1502  0.2416
35552SOL    HW118380   9.453  11.324   3.133  1.2168  0.0249  0.8030
35552SOL    HW218381   9.494  11.235   3.248 -2.0506 -0.2579  1.8314
35553SOL     OW18382   8.656   5.641   5.003  0.5395 -0.1189 -0.0845
35553SOL    HW118383   8.683   5.591   4.927 -1.0869 -0.4772 -0.4782
35553SOL    HW218384   8.715   5.716   5.005  0.8207 -0.2715 -1.5098
35554SOL     OW18385   8.288   1.998   2.131 -0.4107  0.4115  0.7828
35554SOL    HW118386   8.325   2.077   2.171 -1.8690  0.8895  1.2266
35554SOL    HW218387   8.338   1.926   2.170  0.7329  1.0871  0.5982
35555SOL     OW18388  10.682   3.008   6.320 -0.0275  0.7419  0.3907
35555SOL    HW118389  10.605   2.957   6.344  0.3056 -0.5695 -1.1730
35555SOL    HW218390  10.647   3.085   6.275 -0.4683  0.8111  0.8487
35556SOL     OW18391   7.146   8.283   7.526  0.4279 -0.0617  0.5415
35556SOL    HW118392   7.117   8.326   7.606 -0.0036 -1.9729  1.4719
35556SOL    HW218393   7.066   8.264   7.478  0.4908 -1.1017  0.8351
35557SOL     OW18394   7.506   9.868   4.775  0.1571 -0.2351 -0.3953
35557SOL    HW118395   7.457   9.857   4.856  1.0493  0.5550  0.2712
35557SOL    HW218396   7.493   9.960   4.752  1.5370  0.0582 -0.0613
35558SOL     OW18397   7.253  10.652   0.939  0.4265 -0.0021  0.4229
35558SOL    HW118398   7.338  10.638   0.899  0.8078  0.1651  1.1707
35558SOL    HW218399   7.234  10.572   0.988  0.1148 -0.0737  0.1895
35559SOL     OW18400  11.113   7.295   7.140 -0.2475 -0.1277 -0.1562
35559SOL    HW118401  11.066   7.279   7.058 -0.8042 -1.2418  0.3479
35559SOL    HW218402  11.122   7.208   7.179  0.0721  0.3747  0.9286
35560SOL     OW18403   7.852   7.263   3.871  0.0351  0.8774  0.2099
35560SOL    HW118404   7.819   7.173   3.865 -1.1539  1.3203 -0.1285
35560SOL    HW218405   7.774   7.318   3.867  0.7192  1.9271  0.7113
35561SOL     OW18406  10.171   0.933  10.874  0.6807  0.2607 -0.1939
35561SOL    HW118407  10.188   0.853  10.922  1.3728  0.9929  0.8088
35561SOL    HW218408  10.218   0.922  10.791 -0.1953 -0.8367 -0.5645
35562SOL     OW18409   5.818   9.436   4.714  0.5715  0.5423 -0.1587
35562SOL    HW118410   5.730   9.424   4.678  0.5527 -0.6637  0.2385
35562SOL    HW218411   5.862   9.494   4.652 -0.0854  0.0912 -1.0620
35563SOL     OW18412   4.748   0.982   3.149  0.1520 -0.0210  0.1848
35563SOL    HW118413   4.756   1.029   3.232 -0.9769  1.0964 -0.3020
35563SOL    HW218414   4.747   0.889   3.174  2.4492  0.1621  1.1729
35564SOL     OW18415   7.528   5.183   0.162 -0.1949  0.1496 -0.2265
35564SOL    HW118416   7.476   5.136   0.226  2.4212 -0.1938  1.8048
35564SOL    HW218417   7.581   5.116   0.119 -0.2547  0.6480 -1.1039
35565SOL     OW18418   8.421   1.437   6.623  0.0572  0.5852  0.0159
35565SOL    HW118419   8.333   1.429   6.660  0.6291 -0.0111  1.3209
35565SOL    HW218420   8.445   1.347   6.600  1.0211  0.4505  1.4222
35566SOL     OW18421   5.588   0.773  10.492 -0.7317 -0.2405  0.4162
35566SOL    HW118422   5.679   0.778  10.522 -0.0738 -3.6010 -0.5895
35566SOL    HW218423   5.539   0.741  10.567 -0.4085 -1.5948  0.0905
35567SOL     OW18424   5.363   2.016  11.418  0.0912  0.1647 -0.3088
35567SOL    HW118425   5.405   1.930  11.415  0.5240  0.4000 -1.2301
35567SOL    HW218426   5.402   2.058  11.495  0.0030 -0.3932  0.0518
35568SOL     OW18427   7.014   3.836   3.614 -0.1942 -0.2124 -0.8113
35568SOL    HW118428   7.057   3.779   3.551 -0.3610  0.4506 -1.5323
35568SOL    HW218429   6.926   3.850   3.579 -0.6043 -0.5747  0.0374
35569SOL     OW18430  11.460   0.890   7.161 -0.0314  0.3637  0.1022
35569SOL    HW118431  11.466   0.829   7.088  0.0038  0.3750  0.0955
35569SOL    HW218432  11.451   0.976   7.120  0.5220  0.4301  0.1010
35570SOL     OW18433   2.057   7.349   6.253 -0.4462 -0.1155 -0.5087
35570SOL    HW118434   2.114   7.391   6.317 -1.2168 -0.1702  0.2225
35570SOL    HW218435   2.095   7.262   6.239  0.9651  0.6565 -1.7767
35571SOL     OW18436   8.319   8.186   4.668 -0.0607  0.2668 -0.0577
35571SOL    HW118437   8.240   8.133   4.663 -0.8698  1.1484  2.2837
35571SOL    HW218438   8.390   8.128   4.640 -1.1944 -1.3060  0.2683
35572SOL     OW18439   8.764   2.374  10.930  0.4396  0.5447 -0.2071
35572SOL    HW118440   8.716   2.326  10.863 -1.7756  2.3054 -0.0110
35572SOL    HW218441   8.782   2.309  10.998 -1.3106 -0.3095 -0.5046
35573SOL     OW18442   6.245  11.639   3.450  0.2766  0.5062 -0.5370
35573SOL    HW118443   6.237  11.546   3.431 -1.7629  0.8856 -2.0196
35573SOL    HW218444   6.220  11.682   3.367 -1.9017  2.3294  0.9182
35574SOL     OW18445  10.772   8.794   1.764 -0.2213  0.2896  0.1959
35574SOL    HW118446  10.816   8.850   1.828  0.8854 -1.9055  1.4943
35574SOL    HW218447  10.683   8.828   1.759  1.0887  3.9883 -1.4116
35575SOL     OW18448   7.615   5.218   4.909 -0.0012  0.0473 -0.4672
35575SOL    HW118449   7.559   5.244   4.836  0.8154 -0.9450 -1.5062
35575SOL    HW218450   7.672   5.150   4.871  0.2910 -0.6519  1.1620
35576SOL     OW18451   8.780   4.376   0.334 -0.1029 -0.4625 -0.0261
35576SOL    HW118452   8.815   4.382   0.423  1.5771 -0.5622 -0.6469
35576SOL    HW218453   8.736   4.291   0.331  0.3035 -0.6956  0.5420
35577SOL     OW18454  10.275  11.621   8.953 -0.0823 -0.3527  0.1107
35577SOL    HW118455  10.238  11.687   9.012  0.7497  0.0197  0.2288
35577SOL    HW218456  10.311  11.554   9.011  0.5484 -0.0896  0.0336
35578SOL     OW18457  11.803   7.578  10.352  0.4027 -0.0724  0.3409
35578SOL    HW118458  11.765   7.624  10.277  0.7406 -0.5107 -0.1002
35578SOL    HW218459  11.897   7.577  10.335  0.2620 -2.9757 -0.8725
35579SOL     OW18460   4.617   8.780   9.243  0.5207  0.1731  0.0475
35579SOL    HW118461   4.650   8.855   9.294 -0.3897  0.9467 -0.4448
35579SOL    HW218462   4.583   8.720   9.309  0.1211  0.7832  0.4137
35580SOL     OW18463   9.070   4.837   0.705 -0.4855  0.3353 -0.2388
35580SOL    HW118464   9.135   4.791   0.759 -0.6272  0.8418  0.3692
35580SOL    HW218465   9.020   4.890   0.767  0.5600  2.3769 -1.0481
35581SOL     OW18466  10.716   8.355   5.642  0.5986 -0.0979  0.5602
35581SOL    HW118467  10.802   8.361   5.682 -0.3482  1.0519  2.6240
35581SOL    HW218468  10.683   8.269   5.669  1.2324 -0.7302 -0.6096
35582SOL     OW18469   8.295   2.601   9.933 -0.2630  0.0235 -0.0586
35582SOL    HW118470   8.206   2.565   9.940 -0.3983  0.0525 -1.3675
35582SOL    HW218471   8.283   2.695   9.950 -0.1080 -0.3023  2.0529
35583SOL     OW18472  10.240   5.448   0.581 -0.0751  0.0103 -0.6364
35583SOL    HW118473  10.285   5.363   0.583 -0.9351 -0.4558  0.6242
35583SOL    HW218474  10.148   5.425   0.593 -0.1424  1.2102  1.7033
35584SOL     OW18475   2.413  10.851   1.925  0.1952 -0.1925 -0.0768
35584SOL    HW118476   2.443  10.794   1.996 -1.4551 -0.2250  0.6535
35584SOL    HW218477   2.369  10.923   1.970  1.6130  1.3091 -1.0087
35585SOL     OW18478   8.852   7.744   4.811 -0.0218  0.6533  0.4145
35585SOL    HW118479   8.939   7.773   4.840  3.1027 -3.9358 -2.9167
35585SOL    HW218480   8.821   7.688   4.882  1.1087  0.1554  0.5439
35586SOL     OW18481   7.039   3.830   7.930  0.2742 -0.3189  0.3594
35586SOL    HW118482   6.984   3.752   7.937  1.1835 -1.0040  0.1417
35586SOL    HW218483   7.120   3.798   7.890  1.0596  0.5381  1.2148
35587SOL     OW18484   6.286   2.490  10.238  0.0835  0.0301  0.3376
35587SOL    HW118485   6.283   2.583  10.214  1.2489 -0.2295 -0.9439
35587SOL    HW218486   6.197   2.458  10.223  0.6905 -0.1993 -4.3145
35588SOL     OW18487   3.933  11.871   9.388 -0.0812 -0.2574 -0.6638
35588SOL    HW118488   3.865  11.933   9.361  1.5492  1.9579 -0.0503
35588SOL    HW218489   3.925  11.867   9.484  1.6526  1.4274 -0.3789
35589SOL     OW18490  11.151   1.673   1.584  0.0753 -0.5230  0.1809
35589SOL    HW118491  11.151   1.687   1.489  0.8302  0.8508  0.3533
35589SOL    HW218492  11.242   1.685   1.610 -0.3348  0.4486  1.2479
35590SOL     OW18493   2.403   4.597   4.816  0.4686  0.3549 -0.6524
35590SOL    HW118494   2.385   4.534   4.746  0.2852  1.0544 -1.2437
35590SOL    HW218495   2.332   4.660   4.810  0.3225  0.2966  0.3260
35591SOL     OW18496   2.046   0.520   0.693  0.1786  0.7779  0.3072
35591SOL    HW118497   2.087   0.453   0.748  0.2797  0.8288  0.2933
35591SOL    HW218498   2.117   0.580   0.672  0.2734  0.4430 -0.3626
35592SOL     OW18499   2.380   5.069   9.386  0.0205  0.3068 -0.1265
35592SOL    HW118500   2.414   5.132   9.323 -2.1925  0.6624 -1.0576
35592SOL    HW218501   2.424   4.987   9.363  1.4212  1.0462 -0.2017
35593SOL     OW18502   2.002   8.013   7.745  0.2717 -0.0906  0.4612
35593SOL    HW118503   1.949   7.951   7.695  0.4617 -1.1689  1.5532
35593SOL    HW218504   2.016   8.087   7.685 -0.2400 -0.9487 -0.7473
35594SOL     OW18505   5.310   3.989   7.556 -0.9106 -0.2396 -0.5427
35594SOL    HW118506   5.392   4.031   7.584 -0.2763 -1.4180 -0.5933
35594SOL    HW218507   5.274   3.951   7.636 -0.6532 -0.9824 -0.7739
35595SOL     OW18508   3.648  10.336   7.473 -0.2872 -0.0905  0.3473
35595SOL    HW118509   3.664  10.430   7.476  0.1620 -0.1134 -0.7552
35595SOL    HW218510   3.724  10.300   7.426 -0.2386 -1.0606  1.1237
35596SOL     OW18511   5.247   2.118   1.299  0.3584  0.0976  0.6106
35596SOL    HW118512   5.194   2.096   1.376  0.2517 -0.3931  0.3984
35596SOL    HW218513   5.257   2.036   1.252  1.7774  0.0678  0.9288
35597SOL     OW18514   3.119  10.273   8.689 -0.3645  0.6545  0.5268
35597SOL    HW118515   3.072  10.318   8.618  1.4543  0.5788 -0.7972
35597SOL    HW218516   3.178  10.213   8.644  0.7251  0.4796  2.1201
35598SOL     OW18517   4.899   1.501  10.449 -0.5075 -0.7760  0.1761
35598SOL    HW118518   4.829   1.565  10.464 -1.0137 -1.6610  1.8063
35598SOL    HW218519   4.977   1.542  10.487 -0.3658 -0.2901 -0.6036
35599SOL     OW18520   4.389   6.816   2.525 -0.0252 -0.1946  0.4699
35599SOL    HW118521   4.403   6.868   2.604 -0.8147 -2.2227  2.0455
35599SOL    HW218522   4.321   6.862   2.477 -0.6794  0.2578  1.7953
35600SOL     OW18523   1.262   7.993   6.854 -0.4807 -0.2576  0.3137
35600SOL    HW118524   1.322   8.065   6.836  0.2309 -0.8014  0.4575
35600SOL    HW218525   1.205   8.025   6.923 -0.3160  0.2425  0.2223
35601SOL     OW18526   7.174   8.881   7.071 -0.4270  0.2843  0.0858
35601SOL    HW118527   7.115   8.939   7.023 -0.3329 -0.0218 -0.4091
35601SOL    HW218528   7.262   8.912   7.048 -0.3672 -0.2797 -0.4831
35602SOL     OW18529   9.271   4.903   7.993  0.6642 -0.2926 -0.1606
35602SOL    HW118530   9.301   4.951   7.916  0.9306  0.1861  0.2320
35602SOL    HW218531   9.351   4.866   8.031  0.6219  0.0439  0.2624
35603SOL     OW18532   5.637   3.851   4.648  0.1682  0.5961 -0.3652
35603SOL    HW118533   5.621   3.761   4.673 -0.3760  0.3880 -1.3836
35603SOL    HW218534   5.607   3.903   4.723  1.4141 -0.0870  0.6352
35604SOL     OW18535   2.527  11.657   8.650 -0.3295 -0.1021 -0.2335
35604SOL    HW118536   2.610  11.671   8.604  0.9340 -1.5726  1.4298
35604SOL    HW218537   2.538  11.702   8.734 -0.5967 -1.5117  0.5964
35605SOL     OW18538   2.947   3.215   7.218  0.0749 -0.5666 -0.5407
35605SOL    HW118539   2.900   3.147   7.169  0.5459 -0.6286 -0.9028
35605SOL    HW218540   2.995   3.264   7.152  1.3646 -1.1631 -0.0709
35606SOL     OW18541   7.538   0.556  10.372 -0.3771  0.0330  0.0922
35606SOL    HW118542   7.615   0.599  10.409  0.4727 -1.9000  0.7004
35606SOL    HW218543   7.464   0.594  10.420  0.3848  0.4032  1.0103
35607SOL     OW18544   5.488   4.940   6.483  0.4431 -0.1833 -0.1861
35607SOL    HW118545   5.559   4.881   6.506  0.9918  0.2538 -0.7135
35607SOL    HW218546   5.445   4.899   6.409 -0.5373 -0.9723  0.7873
35608SOL     OW18547   8.561  11.717   3.513 -0.1591  0.6050  0.0935
35608SOL    HW118548   8.470  11.706   3.541  0.2647 -1.3267  0.8949
35608SOL    HW218549   8.609  11.649   3.561  1.7401  1.6767 -0.1943
35609SOL     OW18550   3.238   0.876   8.153  0.5243 -0.0804  0.0368
35609SOL    HW118551   3.247   0.934   8.229 -2.8626  0.8081 -0.0495
35609SOL    HW218552   3.217   0.936   8.081 -0.1496 -1.1990 -0.7184
35610SOL     OW18553   9.881   5.551   2.835  0.3591  0.2483  0.1286
35610SOL    HW118554   9.949   5.515   2.778 -1.1280  0.6378 -2.0100
35610SOL    HW218555   9.808   5.488   2.829 -0.2481  0.8761  0.7017
35611SOL     OW18556   8.627   7.335   8.904  0.3664  0.3542  0.0272
35611SOL    HW118557   8.554   7.332   8.842  1.6659  0.6432 -1.6012
35611SOL    HW218558   8.671   7.250   8.894  0.0865  0.0436  1.2450
35612SOL     OW18559   6.833   5.431   0.432  0.2767 -0.3828  0.1977
35612SOL    HW118560   6.844   5.352   0.380 -3.7351 -0.4468 -0.8900
35612SOL    HW218561   6.768   5.408   0.497 -0.4760  1.7918  0.2969
35613SOL     OW18562   9.498   2.242   2.849  0.4572 -0.3105 -0.5170
35613SOL    HW118563   9.490   2.219   2.942  1.0761  1.8320  0.1217
35613SOL    HW218564   9.418   2.209   2.809  0.3928 -1.6730  0.6834
35614SOL     OW18565   1.441   1.393   9.718 -0.2723 -0.1852 -0.9267
35614SOL    HW118566   1.466   1.477   9.681 -1.8974  0.7409 -0.0142
35614SOL    HW218567   1.487   1.388   9.802 -0.0537 -0.2818 -1.0525
35615SOL     OW18568  10.113  11.029   2.563 -0.3344  0.4733  0.1300
35615SOL    HW118569  10.185  11.088   2.587 -0.7848  1.3713 -0.6521
35615SOL    HW218570  10.126  10.952   2.619  0.2019  1.3512  1.2737
35616SOL     OW18571  10.766   0.868   0.528  0.4316 -0.1709  0.3074
35616SOL    HW118572  10.746   0.912   0.611 -0.4298 -1.0223  0.5615
35616SOL    HW218573  10.695   0.894   0.469  1.6455  1.3734 -0.5610
35617SOL     OW18574   8.279  11.685   3.559 -0.3999  1.0445 -0.1218
35617SOL    HW118575   8.227  11.764   3.544 -0.0304  1.5465  1.1245
35617SOL    HW218576   8.216  11.620   3.590 -0.5323  1.1932 -0.0800
35618SOL     OW18577   7.186  10.882  10.897  0.0712  0.2797 -0.2546
35618SOL    HW118578   7.194  10.888  10.802  1.7478 -0.7304 -0.2249
35618SOL    HW218579   7.175  10.972  10.927  0.3468  0.6818 -1.3538
35619SOL     OW18580   1.626   8.194   8.919  0.2305 -0.1692 -0.1695
35619SOL    HW118581   1.604   8.285   8.900 -0.8460 -0.2844  0.4464
35619SOL    HW218582   1.552   8.162   8.970 -0.2476 -1.9366 -1.9002
35620SOL     OW18583   2.977   4.347   2.289 -0.0116  0.6051  0.0405
35620SOL    HW118584   2.932   4.287   2.348 -2.5490  0.8097 -1.4840
35620SOL    HW218585   2.927   4.429   2.296  0.3846  1.0054 -1.4032
35621SOL     OW18586   8.725   8.138   6.200 -0.3299 -0.2825  0.2310
35621SOL    HW118587   8.729   8.225   6.238  0.3514  0.1867 -0.8691
35621SOL    HW218588   8.813   8.103   6.213  0.0357  0.0422 -1.2329
35622SOL     OW18589   7.400   3.294  11.543 -0.0683  0.3875  0.0067
35622SOL    HW118590   7.321   3.293  11.490  0.7577  0.0674 -1.2698
35622SOL    HW218591   7.436   3.382  11.532  0.3809  0.1580 -0.4037
35623SOL     OW18592   4.169   5.750  10.472 -0.0498  0.3764 -0.3447
35623SOL    HW118593   4.124   5.689  10.412  0.3120  0.6809 -0.9408
35623SOL    HW218594   4.190   5.825  10.417  1.4384  0.1182 -0.1647
35624SOL     OW18595   7.458  11.556   9.595  0.2165  0.0992  0.3707
35624SOL    HW118596   7.434  11.644   9.567  2.5591  0.7819  0.2659
35624SOL    HW218597   7.552  11.550   9.577  0.0195 -2.6789 -0.2835
35625SOL     OW18598  11.609   2.964   7.363  0.2524 -0.0818  0.2916
35625SOL    HW118599  11.654   3.048   7.360 -0.6246  0.4262  0.9579
35625SOL    HW218600  11.643   2.916   7.287  0.2466  1.1388 -0.5173
35626SOL     OW18601   7.284   6.570   9.642  0.1684 -0.4258 -0.1369
35626SOL    HW118602   7.191   6.544   9.640  0.5102 -1.7980  0.7141
35626SOL    HW218603   7.284   6.655   9.686 -0.8390  0.4089 -1.6349
35627SOL     OW18604   3.083   0.629  11.905 -0.1880  0.1575  0.4708
35627SOL    HW118605   3.173   0.655  11.921 -0.0653  0.4050 -0.6042
35627SOL    HW218606   3.031   0.690  11.957  0.2969 -1.5819  3.2219
35628SOL     OW18607   3.139   0.766   2.464  0.1264  0.0310 -0.3605
35628SOL    HW118608   3.169   0.777   2.374 -0.4571  0.0994 -0.5508
35628SOL    HW218609   3.150   0.672   2.482  0.1397 -0.0008 -0.5399
35629SOL     OW18610   3.297   6.588   8.810  0.1757 -0.0170 -0.3439
35629SOL    HW118611   3.339   6.572   8.894  0.0931 -0.5128 -0.3922
35629SOL    HW218612   3.269   6.501   8.781 -3.0837  0.4734  0.8482
35630SOL     OW18613  10.509   0.299   7.525 -0.2978  0.4492  0.4298
35630SOL    HW118614  10.497   0.394   7.528 -0.6245  0.3870  1.8561
35630SOL    HW218615  10.568   0.280   7.597 -0.7301 -0.5008  0.5494
35631SOL     OW18616   3.242  10.176   7.259  0.0359 -0.0165  0.0598
35631SOL    HW118617   3.239  10.091   7.216 -0.4141 -0.6531  1.3068
35631SOL    HW218618   3.160  10.181   7.308  0.7113  0.5088  1.1659
35632SOL     OW18619   0.476   4.024  11.857 -0.1486  0.3649 -0.2756
35632SOL    HW118620   0.385   4.050  11.841 -0.3041 -0.3983 -0.6793
35632SOL    HW218621   0.469   3.947  11.914  0.1957 -0.3388 -1.1632
35633SOL     OW18622  10.535   0.381   5.176  0.6740 -0.3295  0.1444
35633SOL    HW118623  10.577   0.385   5.090  0.2513  0.4653 -0.0406
35633SOL    HW218624  10.577   0.450   5.226  1.1404 -0.9991  0.6890
35634SOL     OW18625   8.531   5.980  11.778  0.2502 -0.0449 -0.4678
35634SOL    HW118626   8.524   6.067  11.740  1.0371 -0.9075 -2.7432
35634SOL    HW218627   8.597   5.935  11.725  0.3972 -1.8120  1.0848
35635SOL     OW18628   0.658   4.207   7.842  0.0157 -0.0433 -0.0732
35635SOL    HW118629   0.574   4.180   7.880  0.5428 -1.4246  0.1931
35635SOL    HW218630   0.713   4.226   7.918  0.2676 -0.2028 -0.2163
35636SOL     OW18631  10.271   4.443   1.870 -0.1811  0.6278 -0.2172
35636SOL    HW118632  10.360   4.435   1.904  0.3938  1.0968 -1.5389
35636SOL    HW218633  10.277   4.412   1.780 -1.1684  1.4536 -0.5924
35637SOL     OW18634   6.321   5.657   1.789 -0.2045  0.2620 -0.2003
35637SOL    HW118635   6.401   5.708   1.786  0.9938 -1.2202  2.4254
35637SOL    HW218636   6.329   5.595   1.717  0.2992  1.0575 -0.8433
35638SOL     OW18637   4.923  10.467   5.421 -0.0338 -0.1581 -0.1001
35638SOL    HW118638   4.940  10.497   5.332 -2.6158 -0.4120 -0.7573
35638SOL    HW218639   5.005  10.484   5.468  1.6602 -0.6438 -2.6367
35639SOL     OW18640   0.582   8.827   9.583 -0.1354  0.1936  0.2135
35639SOL    HW118641   0.586   8.900   9.521  1.1299 -0.5306 -0.5960
35639SOL    HW218642   0.576   8.749   9.528  0.3619 -0.4190  1.0185
35640SOL     OW18643   4.282   0.713   0.821  0.3550  0.2468 -0.2174
35640SOL    HW118644   4.256   0.630   0.861  0.1857 -0.2607 -1.3204
35640SOL    HW218645   4.261   0.701   0.728  0.2243  1.5689 -0.3739
35641SOL     OW18646   3.097   3.118   5.141 -0.1705  0.4875  0.2825
35641SOL    HW118647   3.073   3.084   5.055 -0.0368 -0.7743  0.7324
35641SOL    HW218648   3.013   3.143   5.181 -0.1682  1.9011 -0.5197
35642SOL     OW18649   6.868   7.076   4.862 -0.5867 -0.0654 -0.4455
35642SOL    HW118650   6.901   7.008   4.921  1.0025  2.0805  1.2778
35642SOL    HW218651   6.941   7.091   4.801 -1.1481 -0.2707 -1.1799
35643SOL     OW18652   6.554   3.194   8.272  0.7434  0.7251  0.1147
35643SOL    HW118653   6.583   3.219   8.185  1.1400 -1.1266 -0.3257
35643SOL    HW218654   6.634   3.197   8.326  1.0831 -0.8387 -0.2596
35644SOL     OW18655   5.072  10.247  10.345  0.5444  0.3678  0.5328
35644SOL    HW118656   5.009  10.318  10.339  1.8299  1.4869 -0.2246
35644SOL    HW218657   5.154  10.289  10.370  1.6205 -0.6394 -1.0862
35645SOL     OW18658   3.771   1.892  10.262  0.0280  0.3096  0.1710
35645SOL    HW118659   3.715   1.829  10.307  0.2160  1.2394  1.8160
35645SOL    HW218660   3.719   1.973  10.261  0.2214  0.4295 -0.9028
35646SOL     OW18661   2.853   2.042  10.321 -0.5549  0.4571 -0.2947
35646SOL    HW118662   2.871   2.031  10.415  2.5630 -0.1796 -0.8665
35646SOL    HW218663   2.762   2.014  10.312 -0.6445 -0.5014  2.3908
35647SOL     OW18664   2.611   3.805  11.251  0.7766  0.2272 -0.3964
35647SOL    HW118665   2.595   3.795  11.157  1.0835 -1.8168 -0.2661
35647SOL    HW218666   2.705   3.788  11.261  0.8201  0.8136  0.2557
35648SOL     OW18667  10.300   6.860  11.084  0.1424  0.4887  0.0898
35648SOL    HW118668  10.350   6.842  11.164  1.6782  0.7832 -0.7573
35648SOL    HW218669  10.313   6.953  11.068 -0.6753  0.5651 -0.1712
35649SOL     OW18670   7.249   6.862   2.508 -0.1194 -0.1375  0.7064
35649SOL    HW118671   7.244   6.809   2.428 -0.9897  0.1053  0.5907
35649SOL    HW218672   7.196   6.815   2.572 -1.8165  1.1082  0.2816
35650SOL     OW18673   1.718  11.806   2.951  0.3058 -0.2392 -0.6727
35650SOL    HW118674   1.672  11.871   2.898 -0.4708  0.7185  1.1033
35650SOL    HW218675   1.780  11.858   3.003  0.3565 -1.0325  0.0647
35651SOL     OW18676   2.326   9.979   7.424  0.6107 -0.4312  0.3452
35651SOL    HW118677   2.255  10.001   7.484  0.2466 -0.0982 -0.2014
35651SOL    HW218678   2.329  10.051   7.361  1.3233 -0.5236  0.2576
35652SOL     OW18679   4.107   2.831   2.097 -0.5492  0.5872 -0.3581
35652SOL    HW118680   4.089   2.752   2.046  0.6049  0.9674 -1.3932
35652SOL    HW218681   4.190   2.814   2.141  0.1248  1.5058 -1.2303
35653SOL     OW18682   9.473   0.664   9.870 -0.0104 -0.2972  0.3063
35653SOL    HW118683   9.531   0.636   9.941  2.1786  0.6576 -0.9722
35653SOL    HW218684   9.435   0.583   9.836  0.7720 -1.0043  1.0598
35654SOL     OW18685   3.355   9.116   9.791  0.2572  0.0993  0.3446
35654SOL    HW118686   3.333   9.104   9.698  1.3498 -1.2632  0.2352
35654SOL    HW218687   3.293   9.060   9.837 -0.9473  1.5285  0.5552
35655SOL     OW18688   5.689   8.553   9.176 -0.3454 -0.3645  0.6043
35655SOL    HW118689   5.621   8.537   9.241 -0.2868 -0.1953  0.7069
35655SOL    HW218690   5.641   8.565   9.094 -0.4947  0.5812  0.8230
35656SOL     OW18691   9.450   4.191   6.746 -0.0462 -0.3349  0.3890
35656SOL    HW118692   9.453   4.098   6.723  0.7577 -0.0302 -0.8837
35656SOL    HW218693   9.534   4.225   6.715  0.9277  0.2774  3.4156
35657SOL     OW18694  10.007   2.068   4.923 -0.0029 -0.2024  0.2940
35657SOL    HW118695   9.947   2.129   4.967  0.9391 -0.8141  2.6066
35657SOL    HW218696  10.022   2.000   4.989  2.4314 -0.5896 -0.5927
35658SOL     OW18697   3.636   0.092  11.520 -0.0124  0.2631  0.1264
35658SOL    HW118698   3.606   0.170  11.475 -0.8493  0.6943  1.3917
35658SOL    HW218699   3.556   0.044  11.541  0.4029 -0.2217  0.6340
35659SOL     OW18700   1.679   9.229   6.567 -0.0455  0.5231  0.2980
35659SOL    HW118701   1.598   9.186   6.593  1.1238 -0.8142  1.9937
35659SOL    HW218702   1.749   9.170   6.597  1.5752  1.5042 -1.2887
35660SOL     OW18703   2.448   1.074   6.563 -0.5048 -0.1485 -0.2520
35660SOL    HW118704   2.533   1.094   6.602  0.3080 -0.4591 -1.7887
35660SOL    HW218705   2.424   0.989   6.600  1.8837 -2.1357 -2.8101
35661SOL     OW18706   7.493   7.081   5.737  0.1279 -0.2711  0.0126
35661SOL    HW118707   7.487   7.040   5.651 -1.2535 -1.5606  0.6786
35661SOL    HW218708   7.579   7.123   5.738  0.4719 -0.8624 -1.7046
35662SOL     OW18709   9.744   9.830  10.413  0.5242  0.6903  0.3522
35662SOL    HW118710   9.744   9.908  10.467  1.8413  0.1303  1.2049
35662SOL    HW218711   9.662   9.835  10.363  0.0343  1.9980  1.2485
35663SOL     OW18712   5.527   6.068   1.200 -0.1299  0.2706  0.5918
35663SOL    HW118713   5.545   6.048   1.292 -0.2993  0.6102  0.6995
35663SOL    HW218714   5.573   6.150   1.184  1.0386 -0.4700 -0.0031
35664SOL     OW18715   8.375   7.299   8.762  0.0408  0.1236 -0.3646
35664SOL    HW118716   8.283   7.281   8.781 -0.0786 -1.2996 -2.0121
35664SOL    HW218717   8.382   7.394   8.761 -1.3273  0.2492  0.0792
35665SOL     OW18718   0.950  10.568  10.218 -0.2893 -0.0320 -0.0358
35665SOL    HW118719   0.889  10.639  10.233 -1.6365 -1.2130  0.2651
35665SOL    HW218720   0.939  10.510  10.294  0.4252 -0.7992 -0.4922
35666SOL     OW18721   3.304   7.318   1.453 -0.4083  0.0221 -0.2073
35666SOL    HW118722   3.360   7.391   1.479  0.3448 -0.4624 -0.4095
35666SOL    HW218723   3.342   7.287   1.371  1.2699 -2.5366  1.3796
35667SOL     OW18724  10.353  10.816   8.536  0.3347  0.0752  0.0608
35667SOL    HW118725  10.319  10.899   8.569 -1.7862 -0.8158  0.2895
35667SOL    HW218726  10.339  10.819   8.442 -4.0186 -1.6614  0.4344
35668SOL     OW18727   5.231   7.402   6.667 -0.4269  0.1284 -0.0014
35668SOL    HW118728   5.192   7.489   6.654 -1.1070 -0.3571 -1.5193
35668SOL    HW218729   5.156   7.344   6.679 -0.0243 -0.3823  0.0871
35669SOL     OW18730   9.852   4.930  10.427 -0.0198  0.2335 -0.0455
35669SOL    HW118731   9.851   4.875  10.506 -0.6839  2.3823  1.5326
35669SOL    HW218732   9.924   4.991  10.441  0.3229  0.1965 -1.4783
35670SOL     OW18733   0.798   5.468   1.660 -0.4704 -0.2318 -0.0169
35670SOL    HW118734   0.795   5.395   1.598  2.1046 -1.1697  0.8233
35670SOL    HW218735   0.803   5.426   1.746 -0.1673  0.9665  0.5759
35671SOL     OW18736   3.886   8.433   4.141  0.2675 -0.3525 -0.4466
35671SOL    HW118737   3.896   8.505   4.079  0.4288  1.7240  1.8071
35671SOL    HW218738   3.974   8.396   4.149  0.7832  0.9448  0.2466
35672SOL     OW18739   3.430   7.250   3.911 -0.0043  0.0748  0.2631
35672SOL    HW118740   3.520   7.259   3.942  0.0364  0.0320  0.1558
35672SOL    HW218741   3.395   7.339   3.915  0.1299  0.1399  0.0377
35673SOL     OW18742  11.249   8.763   6.959 -0.6983 -0.0939  0.0165
35673SOL    HW118743  11.340   8.738   6.975 -0.5780 -0.3754 -1.0335
35673SOL    HW218744  11.203   8.736   7.039  0.0693 -0.2724  0.4133
35674SOL     OW18745  11.150   5.370   5.261 -0.1749  0.1150 -0.0001
35674SOL    HW118746  11.057   5.375   5.284  0.2924 -1.8138  2.8113
35674SOL    HW218747  11.156   5.296   5.200 -0.5307  0.6177 -0.6566
35675SOL     OW18748   5.364   7.064  10.095 -0.1355 -0.4648 -0.0146
35675SOL    HW118749   5.357   7.064   9.999 -2.8495  0.9578  0.0927
35675SOL    HW218750   5.291   7.009  10.124 -0.7535  0.9721  1.2616
35676SOL     OW18751  11.739   4.449  11.433 -0.4778 -0.2971 -0.0442
35676SOL    HW118752  11.742   4.394  11.355  0.0787  1.7121 -1.5286
35676SOL    HW218753  11.826   4.442  11.472 -0.3627 -0.3513 -0.3111
35677SOL     OW18754   1.243   1.613   9.929 -0.3316  0.4232 -0.6260
35677SOL    HW118755   1.254   1.524   9.894  0.8165  0.7924 -1.2625
35677SOL    HW218756   1.331   1.650   9.928 -0.3800  0.7547  1.9115
35678SOL     OW18757   2.535  11.920  10.569 -0.0204  0.3682 -0.1458
35678SOL    HW118758   2.538  11.959  10.482 -2.8742 -0.7487 -0.8674
35678SOL    HW218759   2.482  11.981  10.621  2.3879  1.4752  1.1568
35679SOL     OW18760   8.282  11.337   9.172  0.0168 -0.4325  0.4573
35679SOL    HW118761   8.230  11.258   9.157  1.5402 -1.7204  1.6338
35679SOL    HW218762   8.364  11.321   9.124  0.3362  0.4270  0.7043
35680SOL     OW18763   6.851  11.323   6.175  0.0400 -0.3089 -0.3621
35680SOL    HW118764   6.831  11.369   6.093 -0.2743  0.5836  0.1960
35680SOL    HW218765   6.775  11.339   6.230  0.7475  0.1110  0.5189
35681SOL     OW18766  11.393   0.040   9.567  0.4057 -0.0019  0.0688
35681SOL    HW118767  11.437   0.025   9.651  0.4364 -0.2154  0.0156
35681SOL    HW218768  11.458   0.082   9.512  0.2503  0.5443  0.2909
35682SOL     OW18769   7.250   5.287   1.095 -0.5032 -0.0668  0.5503
35682SOL    HW118770   7.331   5.337   1.106 -1.0221  1.4092 -1.6266
35682SOL    HW218771   7.279   5.201   1.066  0.3084  0.0629  0.9390
35683SOL     OW18772   1.703   2.240   9.866 -0.2965  0.2032  0.1201
35683SOL    HW118773   1.680   2.193   9.787  1.1994  0.4298 -0.4875
35683SOL    HW218774   1.623   2.240   9.919 -1.1766 -0.3549 -1.1753
35684SOL     OW18775   5.541   5.561   7.830  0.0666  0.1459 -0.4793
35684SOL    HW118776   5.512   5.653   7.826 -0.4702 -0.0278 -0.7172
35684SOL    HW218777   5.570   5.541   7.742  1.3611  0.4481 -0.1394
35685SOL     OW18778   8.598   8.504   7.975  0.5785  0.3930 -0.2227
35685SOL    HW118779   8.504   8.518   7.970  0.2641 -1.4316 -0.0850
35685SOL    HW218780   8.633   8.541   7.894 -0.3883  0.1191 -0.7709
35686SOL     OW18781   1.935   0.039   3.960  0.3014  0.0718  0.0445
35686SOL    HW118782   1.978   0.124   3.961  0.5837 -0.0505 -0.7898
35686SOL    HW218783   1.851   0.054   3.918  0.2484 -0.0200  0.1162
35687SOL     OW18784   3.655   0.636  10.807  0.2078 -0.0329 -0.2226
35687SOL    HW118785   3.572   0.640  10.854 -0.7206  0.1434 -1.7827
35687SOL    HW218786   3.661   0.720  10.761  0.6346 -0.5092 -1.0794
35688SOL     OW18787   6.123   0.193   0.041 -0.4744 -0.2776  0.8750
35688SOL    HW118788   6.109   0.271  -0.013  0.9389 -1.3114 -1.0920
35688SOL    HW218789   6.175   0.225   0.115 -1.1097  0.8863  0.8559
35689SOL     OW18790   7.133   1.933   9.328 -0.0746 -0.0582 -0.0415
35689SOL    HW118791   7.070   1.952   9.258 -0.3767 -1.3502 -0.1491
35689SOL    HW218792   7.084   1.949   9.409 -0.3959 -0.5526 -0.1287
35690SOL     OW18793   7.723  10.576   2.773 -0.0087  0.1348 -0.1215
35690SOL    HW118794   7.708  10.597   2.865  0.4914  1.3628 -0.3031
35690SOL    HW218795   7.818  10.564   2.766 -0.2162 -1.9121 -0.1113
35691SOL     OW18796   6.150   2.998   0.031  0.2049  0.3155 -0.5483
35691SOL    HW118797   6.129   2.969   0.120 -0.6104  0.6248 -0.6287
35691SOL    HW218798   6.231   2.952   0.009 -1.0883 -2.0182 -0.7478
35692SOL     OW18799  11.932   7.141   6.444  0.2894  0.1153 -0.6691
35692SOL    HW118800  12.020   7.104   6.438  0.2124 -0.6909  1.8835
35692SOL    HW218801  11.944   7.226   6.487 -0.2017 -0.3003  0.3299
35693SOL     OW18802   0.544   1.670   3.162  0.1033  0.2099  0.1591
35693SOL    HW118803   0.555   1.578   3.187  0.6095  0.4053  0.6775
35693SOL    HW218804   0.611   1.684   3.095  1.1537  0.6237  1.2490
35694SOL     OW18805   7.190   0.368   1.870 -0.0748  0.3498  0.1710
35694SOL    HW118806   7.229   0.436   1.925 -0.9495  0.6285  0.4505
35694SOL    HW218807   7.161   0.414   1.791 -0.6139  0.2906  0.3334
35695SOL     OW18808  10.812   2.502  11.237  0.3124 -0.2698 -0.2808
35695SOL    HW118809  10.730   2.485  11.284  1.2990  1.0673  2.0882
35695SOL    HW218810  10.786   2.559  11.165 -0.8445  0.2740  0.5295
35696SOL     OW18811   8.068   2.103   7.491 -0.1113 -0.0013 -0.1240
35696SOL    HW118812   7.981   2.078   7.520 -0.2420  1.3861  0.7529
35696SOL    HW218813   8.053   2.164   7.419  0.1811 -1.0195 -1.0825
35697SOL     OW18814   2.557  11.733   6.209 -0.5350 -0.1565  0.1139
35697SOL    HW118815   2.641  11.701   6.176 -0.5397 -0.3856  0.3179
35697SOL    HW218816   2.512  11.767   6.132 -0.0599  0.4117  0.0845
35698SOL     OW18817   5.716  11.793   8.433  0.3665  0.2825 -0.3754
35698SOL    HW118818   5.758  11.819   8.351  0.6310 -0.3923 -0.4593
35698SOL    HW218819   5.624  11.817   8.421  0.2493 -0.4907 -1.1723
35699SOL     OW18820   6.753   3.304   3.068  0.2382 -0.2716 -0.1641
35699SOL    HW118821   6.784   3.371   3.130 -0.5900 -0.0687  0.0558
35699SOL    HW218822   6.658   3.316   3.067  0.2958  0.4145 -2.2584
35700SOL     OW18823   3.226   1.576   7.783  0.2209  0.6076 -0.0664
35700SOL    HW118824   3.255   1.665   7.802  1.2503  0.2995 -0.1092
35700SOL    HW218825   3.303   1.522   7.801 -0.9144 -0.4896  1.7283
35701SOL     OW18826   2.581   8.924   7.058  0.2845 -0.1134 -0.7091
35701SOL    HW118827   2.503   8.951   7.106  0.0388 -1.8567 -0.0280
35701SOL    HW218828   2.597   8.995   6.996 -0.6482  1.2121  0.4944
35702SOL     OW18829   4.294   2.165   7.661 -0.0422  0.5375  0.4774
35702SOL    HW118830   4.349   2.244   7.656 -2.9732  2.7673  0.2855
35702SOL    HW218831   4.268   2.149   7.570 -2.0820  1.4964  0.8213
35703SOL     OW18832   0.027   8.119   4.588  0.5320  0.1531 -0.0023
35703SOL    HW118833   0.062   8.035   4.619 -0.2422  0.1575  0.9530
35703SOL    HW218834  -0.051   8.096   4.538  1.3772  0.1986 -1.3780
35704SOL     OW18835   6.332   7.206   4.094  0.0750  0.2270  0.3115
35704SOL    HW118836   6.406   7.153   4.064  1.0557  0.0536  2.7460
35704SOL    HW218837   6.322   7.274   4.027  3.0928  0.8382  0.3248
35705SOL     OW18838   6.289   6.379   1.636 -0.2758  0.6220  0.1213
35705SOL    HW118839   6.227   6.308   1.620 -0.5930  0.9867 -0.2941
35705SOL    HW218840   6.240   6.459   1.617 -0.7215  1.1267  3.0376
35706SOL     OW18841   6.743   0.075   4.233  0.3406 -0.0194  0.2779
35706SOL    HW118842   6.669   0.043   4.284  0.1286  1.9278  1.2790
35706SOL    HW218843   6.707   0.089   4.145 -0.6412  1.3019  0.8537
35707SOL     OW18844   9.891  11.666   0.683  0.0309  0.2341  0.1685
35707SOL    HW118845   9.886  11.646   0.589  0.7970  0.0065  0.1662
35707SOL    HW218846   9.886  11.762   0.687 -1.9047  0.1778  0.0528
35708SOL     OW18847   6.588   0.855   5.764 -0.1671 -0.4607  0.1406
35708SOL    HW118848   6.596   0.943   5.726 -2.3511 -0.5191 -0.5682
35708SOL    HW218849   6.631   0.798   5.701 -1.4412 -0.2449 -0.9474
35709SOL     OW18850   6.039   9.253   0.046  0.2197 -0.6485  0.2724
35709SOL    HW118851   5.984   9.228   0.121  2.4883 -4.1457  0.9999
35709SOL    HW218852   6.117   9.290   0.086  0.2311  0.2649 -0.5619
35710SOL     OW18853   8.026  11.038   6.805 -0.5734 -0.3417  0.3259
35710SOL    HW118854   7.971  11.086   6.744 -0.8986 -0.1927  0.7317
35710SOL    HW218855   8.116  11.063   6.782 -0.6944 -0.2680 -0.0686
35711SOL     OW18856   9.096   6.458   8.201 -0.4855 -0.3431  0.2298
35711SOL    HW118857   9.075   6.391   8.136 -1.6351  0.8036 -0.6356
35711SOL    HW218858   9.174   6.502   8.166 -0.2027 -0.6979  0.4046
35712SOL     OW18859   7.905  10.005   6.148 -0.2323  0.8499 -0.3379
35712SOL    HW118860   7.981   9.949   6.163 -1.9632 -0.9954  2.2353
35712SOL    HW218861   7.864   9.969   6.069  0.9690  1.2784 -1.1982
35713SOL     OW18862   1.693   7.747  10.885  0.2032  0.3139 -0.1090
35713SOL    HW118863   1.765   7.758  10.824 -1.7405  2.5796 -2.2042
35713SOL    HW218864   1.630   7.691  10.840  0.0777 -0.6825  1.2144
35714SOL     OW18865   9.033   2.811   1.173 -0.1484 -0.1139 -0.4858
35714SOL    HW118866   9.042   2.836   1.081 -0.1791 -1.9824 -1.0192
35714SOL    HW218867   9.118   2.831   1.211 -0.8142  2.8934 -0.2905
35715SOL     OW18868   3.314   3.202   5.763 -0.2285  0.0381 -0.2144
35715SOL    HW118869   3.388   3.200   5.702 -0.0279  0.5804  0.0060
35715SOL    HW218870   3.320   3.118   5.810  0.9857  0.5809  0.6580
35716SOL     OW18871  11.884   7.340   8.407  0.4361 -0.5771 -0.0947
35716SOL    HW118872  11.856   7.431   8.410  1.3074 -0.3136  1.1638
35716SOL    HW218873  11.803   7.290   8.415 -0.0331  0.0776 -0.5924
35717SOL     OW18874   7.960   1.008   6.643  0.4137  0.2215  0.6872
35717SOL    HW118875   8.033   0.999   6.582  0.1749  0.3354  0.3805
35717SOL    HW218876   7.882   0.995   6.589  0.2296 -0.6545  1.1540
35718SOL     OW18877   4.037  11.529   9.293 -0.1471  0.7114 -0.2352
35718SOL    HW118878   4.007  11.598   9.233 -0.2974 -0.5868 -1.7049
35718SOL    HW218879   4.095  11.475   9.240 -1.0389 -1.0333  0.5145
35719SOL     OW18880   1.002   1.908  11.377  0.4000  0.3208  0.1274
35719SOL    HW118881   1.074   1.854  11.406 -0.0357 -0.7760 -0.7672
35719SOL    HW218882   1.040   1.995  11.366  1.9366 -0.5095 -1.6502
35720SOL     OW18883   0.210   8.043   7.252  0.1390 -0.4373  0.1110
35720SOL    HW118884   0.191   8.135   7.271 -0.3658 -0.5989  0.3967
35720SOL    HW218885   0.305   8.041   7.235 -0.1989  0.5939 -2.4318
35721SOL     OW18886   4.614  11.556   6.155 -0.1823 -0.1220 -0.2292
35721SOL    HW118887   4.678  11.595   6.097 -0.2400 -1.1864 -1.0296
35721SOL    HW218888   4.615  11.612   6.233  2.2510 -0.5363  0.1011
35722SOL     OW18889   6.172  10.261   1.427  0.7206 -0.2975  0.3330
35722SOL    HW118890   6.242  10.213   1.470  2.0423  1.1528 -0.1140
35722SOL    HW218891   6.133  10.198   1.366  1.3885 -1.2198  0.8388
35723SOL     OW18892  10.117   2.828   7.485 -0.5392  0.5106 -0.2325
35723SOL    HW118893  10.157   2.757   7.434 -1.1355  0.0691 -0.0992
35723SOL    HW218894  10.061   2.873   7.423 -1.0074  0.1792 -0.0579
35724SOL     OW18895   7.499   3.419   3.372 -0.3607  0.1988  0.0262
35724SOL    HW118896   7.520   3.343   3.426 -0.0767  1.5379  1.8734
35724SOL    HW218897   7.583   3.448   3.336 -0.6848 -1.4200 -2.2758
35725SOL     OW18898  10.054   8.740   0.488 -0.1007 -0.2783 -0.3865
35725SOL    HW118899  10.064   8.764   0.396  0.8508 -0.6915 -0.4045
35725SOL    HW218900  10.143   8.739   0.523 -0.3616 -1.0326  0.3011
35726SOL     OW18901   4.371   3.348   2.889 -0.1507  0.1937  0.2996
35726SOL    HW118902   4.438   3.396   2.839  1.0847 -1.0826  0.6530
35726SOL    HW218903   4.328   3.293   2.825 -2.0903  2.1871 -0.2571
35727SOL     OW18904   6.923   4.929   4.627  0.0793 -0.0234  0.1096
35727SOL    HW118905   6.962   4.924   4.540 -0.5830  1.2850 -0.2859
35727SOL    HW218906   6.837   4.968   4.612  0.6263  1.8772  1.5315
35728SOL     OW18907   8.081   0.608   3.644  0.2666 -0.7070  0.0405
35728SOL    HW118908   8.170   0.624   3.612  0.4587 -0.0523  0.8754
35728SOL    HW218909   8.082   0.516   3.672  0.7882 -0.6104  0.3626
35729SOL     OW18910   2.561   6.928   4.897 -0.0025  0.1033  0.2767
35729SOL    HW118911   2.525   6.902   4.812  0.2913 -0.0022  0.1830
35729SOL    HW218912   2.650   6.958   4.877 -0.6746  2.1755  0.2248
35730SOL     OW18913   9.880   0.662   0.401 -0.0026 -0.2036 -0.3949
35730SOL    HW118914   9.839   0.578   0.423 -1.5668  0.8241  0.8282
35730SOL    HW218915   9.960   0.638   0.355  0.4549 -2.3885  1.3799
35731SOL     OW18916  10.861   6.054   8.691  0.0040  0.1294 -0.2291
35731SOL    HW118917  10.873   6.113   8.765 -1.6137 -1.4121  1.3637
35731SOL    HW218918  10.798   6.099   8.634  0.6231  0.9606 -0.2660
35732SOL     OW18919   2.047   1.381  11.799  0.4716  0.3196 -0.3263
35732SOL    HW118920   2.022   1.460  11.752  3.7510  0.8566 -1.4785
35732SOL    HW218921   2.041   1.311  11.733 -2.5993 -0.5392  0.7369
35733SOL     OW18922   6.736   2.028   0.597 -0.3011 -0.0734 -0.1435
35733SOL    HW118923   6.777   2.063   0.676 -1.4189  0.7401  0.0955
35733SOL    HW218924   6.790   1.952   0.574  0.6899  0.3295  0.7600
35734SOL     OW18925   6.775   6.299   3.602  0.8552  0.1881  0.4285
35734SOL    HW118926   6.722   6.231   3.642 -0.2293  1.9039  2.1045
35734SOL    HW218927   6.798   6.265   3.515 -2.9776 -0.7082 -0.3998
35735SOL     OW18928   0.969   4.479   5.412 -0.0464  0.7272 -0.6838
35735SOL    HW118929   0.973   4.427   5.332 -0.8000 -1.4781  0.6140
35735SOL    HW218930   0.878   4.506   5.420  0.5935  3.6445 -2.0902
35736SOL     OW18931   2.580   6.103   3.746  0.3612  0.0197 -0.0168
35736SOL    HW118932   2.584   6.118   3.652  0.4338 -2.2697 -0.4537
35736SOL    HW218933   2.672   6.100   3.773  0.3404  2.1394  0.4603
35737SOL     OW18934   0.716   3.427   0.724 -0.2643 -0.1363 -0.8086
35737SOL    HW118935   0.662   3.362   0.769  0.8144  0.3742  1.3479
35737SOL    HW218936   0.681   3.429   0.635 -2.0328 -1.7397 -0.2266
35738SOL     OW18937   9.101   0.340   2.462  0.1321 -0.1909 -0.4990
35738SOL    HW118938   9.080   0.390   2.383  0.5758  0.4058 -0.2458
35738SOL    HW218939   9.055   0.387   2.532 -0.2429 -0.7037 -0.3970
35739SOL     OW18940   1.829   5.229  10.073 -0.6036  0.3909  0.1120
35739SOL    HW118941   1.884   5.155  10.048 -2.2480 -0.6844 -0.4698
35739SOL    HW218942   1.867   5.260  10.155 -0.3958 -1.6738  0.8540
35740SOL     OW18943   6.330   3.836   0.609 -0.5478  0.0794 -0.1383
35740SOL    HW118944   6.341   3.931   0.612  0.7925 -0.0743  0.3456
35740SOL    HW218945   6.337   3.814   0.516 -0.4291  0.4050 -0.2097
35741SOL     OW18946  10.262   0.264   9.596 -0.5487 -0.3904  0.0453
35741SOL    HW118947  10.251   0.271   9.501  1.0496  0.3094 -0.1324
35741SOL    HW218948  10.190   0.314   9.633 -0.4948  0.3667 -0.8453
35742SOL     OW18949   7.916  11.665   6.553  0.4696  0.3992  0.5896
35742SOL    HW118950   7.823  11.662   6.530  0.4594 -0.6558  0.6847
35742SOL    HW218951   7.933  11.579   6.591  1.9211 -0.1317 -1.1410
35743SOL     OW18952   9.867   5.456  11.677 -0.5991  0.1537 -0.1042
35743SOL    HW118953   9.851   5.403  11.598 -3.3911 -1.1030  1.1363
35743SOL    HW218954   9.844   5.545  11.651 -1.6283 -0.2676 -0.7220
35744SOL     OW18955   3.563   9.616   1.176  0.0524 -0.0224  0.3512
35744SOL    HW118956   3.599   9.529   1.161  0.8071  0.1707  0.9754
35744SOL    HW218957   3.531   9.614   1.266  1.0566  0.6719  0.7326
35745SOL     OW18958   8.160   8.117   1.172 -0.1311  0.5374 -0.2756
35745SOL    HW118959   8.142   8.039   1.119 -0.5114  1.0961 -0.9778
35745SOL    HW218960   8.204   8.082   1.250 -1.5717 -0.5432  0.1038
35746SOL     OW18961   2.956   1.625  11.631  0.0907 -0.4808  0.2800
35746SOL    HW118962   2.993   1.632  11.719  0.1862 -1.0770  0.2885
35746SOL    HW218963   2.862   1.618  11.645  0.2018 -1.9177  0.4100
35747SOL     OW18964   6.961   3.845   4.639 -0.1640 -0.2656  0.0143
35747SOL    HW118965   7.033   3.882   4.589  1.1205 -1.8684  0.5726
35747SOL    HW218966   6.949   3.757   4.603  1.0610 -1.6241  2.6599
35748SOL     OW18967   3.920  11.169  10.524  0.1252  0.3665 -0.1780
35748SOL    HW118968   3.989  11.120  10.568 -0.1755  0.9899  1.0568
35748SOL    HW218969   3.863  11.103  10.485  0.9590 -0.1712 -0.5011
35749SOL     OW18970   9.132   0.544   3.451  0.0389 -0.5131 -0.2470
35749SOL    HW118971   9.197   0.476   3.469 -1.5220 -1.4669  2.4390
35749SOL    HW218972   9.090   0.516   3.370  2.1835 -0.4396 -1.4642
35750SOL     OW18973   9.957   3.674   8.561  0.2169 -0.0305  0.1528
35750SOL    HW118974   9.998   3.734   8.624  2.3422  0.6475 -1.7366
35750SOL    HW218975  10.031   3.638   8.512 -1.3461 -0.2241 -2.1970
35751SOL     OW18976   8.139   1.271   8.035  0.0918  0.0927  0.3196
35751SOL    HW118977   8.120   1.178   8.022 -1.7438  0.5731 -0.9351
35751SOL    HW218978   8.084   1.316   7.970  1.3019  2.0417  0.5360
35752SOL     OW18979   1.749   6.593  10.980 -0.0039  0.0154  0.0734
35752SOL    HW118980   1.661   6.609  10.948 -0.5351 -1.0077  0.9581
35752SOL    HW218981   1.798   6.561  10.904 -0.7594 -0.7151 -0.1071
35753SOL     OW18982   8.658   9.873   9.090 -0.2119 -0.2834  0.1254
35753SOL    HW118983   8.650   9.835   9.177  1.0243 -1.5489 -0.2746
35753SOL    HW218984   8.743   9.842   9.058 -0.9484 -0.4307 -1.8073
35754SOL     OW18985   7.664   1.624   9.884 -0.0401  0.2884  0.7869
35754SOL    HW118986   7.660   1.529   9.889 -0.7181  0.2106 -0.7348
35754SOL    HW218987   7.702   1.651   9.967  1.7663 -1.4053  0.5681
35755SOL     OW18988   3.815   0.532   4.695 -0.1914 -0.1683 -0.1970
35755SOL    HW118989   3.865   0.452   4.684  0.5531  0.2646 -0.0418
35755SOL    HW218990   3.742   0.524   4.634  2.1361  0.8434 -3.3278
35756SOL     OW18991   6.561   7.864   8.906  0.3537  0.0349  0.0244
35756SOL    HW118992   6.506   7.818   8.970 -1.3493 -0.2273 -1.5357
35756SOL    HW218993   6.506   7.936   8.876  1.0968  0.1225 -1.1639
35757SOL     OW18994   5.894   2.632   9.636 -0.1742 -0.1319  0.5946
35757SOL    HW118995   5.955   2.694   9.677 -1.5857  0.5379  1.7784
35757SOL    HW218996   5.840   2.686   9.579 -0.9654 -0.3650  1.1070
35758SOL     OW18997  10.546   6.104   4.351  0.3435 -0.2708  0.1703
35758SOL    HW118998  10.454   6.077   4.352 -0.1350  1.2695 -0.1608
35758SOL    HW218999  10.586   6.053   4.421 -0.7272 -1.0489  0.2540
35759SOL     OW19000   2.315   0.372  10.525 -0.1825  0.6165  0.3268
35759SOL    HW119001   2.388   0.325  10.566  0.2473  1.6019  0.7201
35759SOL    HW219002   2.237   0.334  10.565  0.1215 -0.2780  0.0868
35760SOL     OW19003   5.117   0.063   0.584  0.2358  0.5558  0.4999
35760SOL    HW119004   5.027   0.095   0.575  0.0503  0.0902  0.6833
35760SOL    HW219005   5.159   0.086   0.502 -0.4852 -0.6172 -0.2252
35761SOL     OW19006   6.276   6.276   2.710  0.2395  0.0548 -0.7952
35761SOL    HW119007   6.323   6.315   2.637 -0.1943  0.5456 -0.8155
35761SOL    HW219008   6.230   6.201   2.671 -2.0597  1.7615 -1.6305
35762SOL     OW19009   4.932   6.323   5.246  0.7074 -0.0502 -0.3334
35762SOL    HW119010   4.893   6.404   5.279  1.1431  0.7360 -1.6614
35762SOL    HW219011   4.866   6.256   5.261  0.6580  0.3797  1.5203
35763SOL     OW19012   9.234   2.959   4.726  0.1380  0.3182 -0.0827
35763SOL    HW119013   9.292   3.024   4.766  0.5096 -0.0967  0.0629
35763SOL    HW219014   9.293   2.892   4.692 -0.2836 -0.9894  1.6071
35764SOL     OW19015   9.433   4.478   7.319  0.0985 -0.0566 -0.2818
35764SOL    HW119016   9.423   4.549   7.255 -1.8400 -0.6623 -0.7123
35764SOL    HW219017   9.509   4.504   7.371 -0.1928  2.0410 -0.7983
35765SOL     OW19018  10.040   8.693   1.866  0.3127 -0.3563  0.0911
35765SOL    HW119019  10.122   8.645   1.856  0.1194 -0.7899  0.4800
35765SOL    HW219020  10.049   8.738   1.950 -0.4621 -1.7196  0.9614
35766SOL     OW19021   1.957   2.528  11.388 -0.4085  0.2731  0.2821
35766SOL    HW119022   1.971   2.486  11.302 -1.3467  0.8570 -0.1793
35766SOL    HW219023   2.021   2.599  11.391 -0.3423  0.2234  0.0858
35767SOL     OW19024   8.283  10.015  10.771  0.2382 -0.4633 -0.0745
35767SOL    HW119025   8.270  10.031  10.864 -0.0464 -1.4449  0.0590
35767SOL    HW219026   8.201  10.045  10.730 -0.3364 -1.6357  0.1872
35768SOL     OW19027  11.420   7.049  10.689 -0.6497  0.2121  0.1756
35768SOL    HW119028  11.342   7.074  10.739 -1.5416  0.7097 -1.3812
35768SOL    HW219029  11.417   6.953  10.687 -2.4525  0.2419 -1.6133
35769SOL     OW19030   0.050   6.666   4.140  0.3453 -0.2585  0.2173
35769SOL    HW119031   0.104   6.644   4.216  0.7844 -2.8818 -0.7689
35769SOL    HW219032   0.096   6.628   4.066 -1.5088 -0.2342 -1.0141
35770SOL     OW19033   7.402   7.783   6.415  0.0010 -0.2701  0.5585
35770SOL    HW119034   7.472   7.842   6.384 -1.0113  1.6318  1.6723
35770SOL    HW219035   7.402   7.795   6.510 -1.0002 -1.2346  0.6906
35771SOL     OW19036  11.036  11.792   9.843 -0.0005  0.1502 -0.6968
35771SOL    HW119037  10.963  11.730   9.839  1.8745 -2.3311  0.5912
35771SOL    HW219038  11.012  11.853   9.913 -0.8364 -0.6720 -0.2416
35772SOL     OW19039  11.300   9.258   8.735 -0.5139 -0.4814 -0.2164
35772SOL    HW119040  11.334   9.180   8.779  0.9270 -0.2092 -0.7761
35772SOL    HW219041  11.354   9.330   8.769 -2.9244  0.6034  1.6054
35773SOL     OW19042   7.690  10.322   2.601  0.2904 -0.6322  0.3273
35773SOL    HW119043   7.633  10.343   2.526 -1.8489 -1.8322  1.5260
35773SOL    HW219044   7.667  10.388   2.667 -0.4643 -1.6979  1.1592
35774SOL     OW19045   6.500   7.566   2.197 -0.2446  0.2337  0.3142
35774SOL    HW119046   6.534   7.628   2.132 -0.6438 -1.1646 -1.2939
35774SOL    HW219047   6.467   7.621   2.268  0.9382  1.7867 -0.2794
35775SOL     OW19048   1.435   2.318   8.372 -0.0701  0.4946  0.3145
35775SOL    HW119049   1.367   2.383   8.353 -0.0017  0.5919  0.3994
35775SOL    HW219050   1.388   2.235   8.380 -0.1185  0.4761 -0.1380
35776SOL     OW19051   8.408   4.760   7.182 -0.0905 -0.0190  0.0508
35776SOL    HW119052   8.324   4.753   7.227 -0.0962  0.7513  0.1715
35776SOL    HW219053   8.388   4.742   7.090 -0.1131 -1.3809  0.3124
35777SOL     OW19054  10.035   4.134   4.482  0.0064  0.3908 -0.0660
35777SOL    HW119055  10.130   4.135   4.485 -0.0032  0.2511  0.2906
35777SOL    HW219056  10.009   4.226   4.495  0.1590  0.9446 -2.9954
35778SOL     OW19057   7.135   7.086   2.218 -0.2958 -0.3814  0.6040
35778SOL    HW119058   7.094   7.014   2.171  1.9639 -0.7484 -0.9541
35778SOL    HW219059   7.176   7.045   2.294 -0.1664 -0.5097  0.4642
35779SOL     OW19060  11.289   6.111   3.857 -0.2660 -0.4869  0.9468
35779SOL    HW119061  11.372   6.155   3.874 -0.7449  0.7741  0.1754
35779SOL    HW219062  11.243   6.113   3.941 -0.7993  1.6958  0.6676
35780SOL     OW19063  10.872  11.837   5.607  0.5375  0.0645  0.0485
35780SOL    HW119064  10.903  11.925   5.587  0.1038 -0.3104 -2.5895
35780SOL    HW219065  10.872  11.833   5.703 -0.0828  3.1344  0.2722
35781SOL     OW19066   6.739   6.728   1.549 -0.3213 -0.5354  0.1310
35781SOL    HW119067   6.725   6.815   1.513 -0.2461 -0.2925  0.6852
35781SOL    HW219068   6.661   6.710   1.602  0.7786  0.2729  2.1334
35782SOL     OW19069   5.817   6.723   7.638  0.2654  0.1601  0.1987
35782SOL    HW119070   5.811   6.814   7.610  2.2332  0.6996  1.3764
35782SOL    HW219071   5.822   6.726   7.733 -1.9647 -1.3750  0.4563
35783SOL     OW19072   8.402   4.684   3.630 -0.2612  0.2574 -0.5646
35783SOL    HW119073   8.313   4.671   3.596 -0.7967 -0.0571  0.8758
35783SOL    HW219074   8.445   4.739   3.564 -1.3215 -0.0805 -1.5837
35784SOL     OW19075   4.507   6.743   3.844 -0.0799  0.1336  0.5759
35784SOL    HW119076   4.419   6.762   3.878 -0.0278  2.1837 -0.2456
35784SOL    HW219077   4.539   6.829   3.814  1.3931 -0.9115 -1.0076
35785SOL     OW19078   6.321   7.638  11.255 -0.7251 -0.1980  0.2361
35785SOL    HW119079   6.396   7.620  11.312 -1.7922  0.9847  2.1162
35785SOL    HW219080   6.277   7.554  11.245  1.0962 -1.0538 -1.3980
35786SOL     OW19081   0.212   3.791   3.462  0.5690  0.6121  0.5104
35786SOL    HW119082   0.138   3.762   3.515  0.2342 -1.5614 -0.9847
35786SOL    HW219083   0.173   3.822   3.380  1.2449 -1.5523 -0.7266
35787SOL     OW19084   0.265   1.952   2.882  0.3445 -0.2460  0.1600
35787SOL    HW119085   0.321   1.880   2.851 -0.2958 -1.4816  1.7263
35787SOL    HW219086   0.196   1.958   2.817 -0.7784 -2.5467  1.0247
35788SOL     OW19087  11.540   1.691  10.325 -0.2717  0.0867  0.0089
35788SOL    HW119088  11.467   1.750  10.342 -0.3463 -0.4834  1.8678
35788SOL    HW219089  11.618   1.748  10.327 -0.4970  0.4018 -0.0841
35789SOL     OW19090   4.005  11.680  10.800 -0.1131  0.6670  0.1251
35789SOL    HW119091   4.052  11.728  10.732 -0.7831  1.4374  0.1815
35789SOL    HW219092   3.914  11.680  10.770 -0.6765  2.1922  1.6165
35790SOL     OW19093   6.958   3.119   9.612 -0.4280 -0.2265  0.1397
35790SOL    HW119094   6.951   3.171   9.532 -0.4776  2.3620  1.6847
35790SOL    HW219095   7.031   3.159   9.660 -1.4874 -0.5351  2.1243
35791SOL     OW19096   8.892   8.218   4.223 -0.1157  0.0613  0.2965
35791SOL    HW119097   8.802   8.206   4.253  0.2352  1.3175  2.0661
35791SOL    HW219098   8.945   8.185   4.296  0.8037  1.7747  0.4488
35792SOL     OW19099   7.826   0.181   7.593  0.6176 -0.2658 -0.4790
35792SOL    HW119100   7.734   0.156   7.591  1.2333 -2.8229 -0.6313
35792SOL    HW219101   7.839   0.221   7.679 -0.4731 -0.5085 -0.1944
35793SOL     OW19102   1.417   9.916   0.141 -0.1045 -0.0998  0.0081
35793SOL    HW119103   1.354   9.938   0.210  0.4991  0.9690  0.2532
35793SOL    HW219104   1.430   9.998   0.094  0.8905 -0.3672 -0.2038
35794SOL     OW19105   9.165   4.649   5.360 -0.5667  0.3497 -0.0675
35794SOL    HW119106   9.074   4.666   5.382 -0.1819  2.9298 -0.1616
35794SOL    HW219107   9.209   4.638   5.444 -1.0532 -1.8345 -0.0406
35795SOL     OW19108  10.369   7.369   1.232  0.0881 -0.1422 -0.5035
35795SOL    HW119109  10.400   7.280   1.218 -3.2300 -1.4723 -0.1676
35795SOL    HW219110  10.394   7.389   1.322  1.5259 -0.3515 -0.8188
35796SOL     OW19111   9.658   7.340   9.179  0.3368  0.4590 -0.0423
35796SOL    HW119112   9.688   7.311   9.093 -1.1187 -3.4489  0.5337
35796SOL    HW219113   9.573   7.381   9.161 -0.5108 -1.3772 -0.4584
35797SOL     OW19114   4.840   4.992  11.084 -0.0299 -0.3152 -0.1161
35797SOL    HW119115   4.789   5.034  11.153 -2.7179 -0.8205 -1.6789
35797SOL    HW219116   4.918   5.047  11.075 -0.6275  0.9584  1.8296
35798SOL     OW19117   1.300   6.265   5.016 -0.0157 -0.4070 -0.1309
35798SOL    HW119118   1.286   6.233   5.106  2.5935 -0.2238  0.4052
35798SOL    HW219119   1.291   6.187   4.962  1.4383 -1.1730  0.6609
35799SOL     OW19120   0.801   6.956   1.017 -0.0694 -0.0114 -0.7815
35799SOL    HW119121   0.885   6.928   1.052  1.0164  1.2586 -2.2405
35799SOL    HW219122   0.808   6.943   0.923 -2.5411 -2.4119 -0.7676
35800SOL     OW19123   2.067   7.475   1.298 -0.0957  0.4134 -0.4264
35800SOL    HW119124   2.036   7.425   1.222 -0.1465 -0.5116  0.1916
35800SOL    HW219125   2.144   7.522   1.266 -0.7257  0.8652 -1.3363
35801SOL     OW19126   0.223   3.249  11.837  0.2152  0.7285  0.6521
35801SOL    HW119127   0.211   3.328  11.891 -1.0811  0.2865  1.0550
35801SOL    HW219128   0.317   3.241  11.827  0.3656  2.8496 -0.1855
35802SOL     OW19129   7.122   2.949   5.421  0.1722 -0.0499 -0.5801
35802SOL    HW119130   7.126   2.855   5.438  2.8743  0.2094  0.8114
35802SOL    HW219131   7.092   2.987   5.503 -0.2163  0.3764 -0.9110
35803SOL     OW19132   8.938   3.647   9.562 -0.1842 -0.3876  0.2477
35803SOL    HW119133   8.987   3.706   9.619 -1.1001 -0.4060  1.0853
35803SOL    HW219134   8.948   3.561   9.603 -0.7101 -0.4294  0.2918
35804SOL     OW19135   3.668   5.129   2.367 -0.0520 -0.0579 -0.0019
35804SOL    HW119136   3.610   5.201   2.341 -0.0089  0.9906  2.5387
35804SOL    HW219137   3.753   5.153   2.328 -0.4880  0.2184 -0.8124
35805SOL     OW19138   8.314  11.892   7.233  0.2413 -0.5423 -0.2699
35805SOL    HW119139   8.237  11.834   7.232  0.7482 -1.2393 -1.4025
35805SOL    HW219140   8.382  11.840   7.274  0.0693  0.1627  0.9495
35806SOL     OW19141   7.166  10.915   5.386  0.1288 -0.2327  0.6061
35806SOL    HW119142   7.107  10.852   5.428  0.3172 -1.1499 -0.4602
35806SOL    HW219143   7.112  10.957   5.319  0.3487 -0.1805  0.4614
35807SOL     OW19144   2.020   3.269   1.519  0.3583  0.4116 -0.2155
35807SOL    HW119145   2.074   3.219   1.457  1.4313  1.5989 -0.2749
35807SOL    HW219146   1.993   3.346   1.470  0.3302  0.8358  0.4540
35808SOL     OW19147   5.047   2.310  11.851 -0.1005  0.5546 -0.3203
35808SOL    HW119148   5.137   2.343  11.854 -0.2370  1.0237 -1.0211
35808SOL    HW219149   5.053   2.228  11.802  0.0576  0.1908  0.3091
35809SOL     OW19150   7.546   1.742  11.122 -0.9768  0.0401  0.1958
35809SOL    HW119151   7.588   1.797  11.056 -0.7521 -1.0422 -0.5798
35809SOL    HW219152   7.540   1.798  11.199 -0.6228  1.1039 -0.5308
35810SOL     OW19153   2.689   5.573   1.612  0.3874 -0.1640 -0.9347
35810SOL    HW119154   2.634   5.648   1.633  0.5586  0.2487 -1.9101
35810SOL    HW219155   2.632   5.514   1.563 -0.3811 -1.7141  1.6666
35811SOL     OW19156   5.790   4.664   5.538 -0.1190 -0.0410  0.0562
35811SOL    HW119157   5.721   4.628   5.482 -1.4015 -0.4648  1.8254
35811SOL    HW219158   5.839   4.587   5.566 -0.9824 -0.1383  1.3975
35812SOL     OW19159   4.645   5.866   5.296  0.1852  0.7890 -0.5267
35812SOL    HW119160   4.586   5.884   5.370 -0.4805  0.1198 -0.8771
35812SOL    HW219161   4.663   5.952   5.258 -0.9461  0.9738 -0.6835
35813SOL     OW19162   1.457   5.180   6.206  0.0761 -0.4022  0.2729
35813SOL    HW119163   1.472   5.268   6.173 -1.2036  0.0986  0.9447
35813SOL    HW219164   1.526   5.167   6.272  0.9856 -0.3820 -0.6523
35814SOL     OW19165   5.799   1.745   4.059  0.2968  0.1675 -0.2311
35814SOL    HW119166   5.736   1.802   4.104 -0.2087 -0.3430 -0.2806
35814SOL    HW219167   5.756   1.723   3.976  0.2953 -0.6308 -0.0240
35815SOL     OW19168  10.883   1.239  11.810 -0.3341  0.3425 -0.2761
35815SOL    HW119169  10.906   1.163  11.756 -0.2556 -0.4664  0.8592
35815SOL    HW219170  10.800   1.269  11.774  0.2355  0.5026 -1.5305
35816SOL     OW19171  11.189   5.830   3.455  0.2498 -0.3243  0.5691
35816SOL    HW119172  11.207   5.909   3.506  1.3409  0.9642 -1.6685
35816SOL    HW219173  11.176   5.861   3.366 -0.5771 -2.5782 -0.1788
35817SOL     OW19174  11.846   1.384   2.324  0.0057 -0.1736  0.6972
35817SOL    HW119175  11.880   1.355   2.408  0.6438  0.7765  0.7938
35817SOL    HW219176  11.924   1.412   2.275 -0.5411  1.2715  0.5976
35818SOL     OW19177   4.786  10.642   0.598 -0.3527  0.1304 -0.2310
35818SOL    HW119178   4.773  10.620   0.691 -0.3557 -3.3462 -0.9420
35818SOL    HW219179   4.881  10.646   0.587 -0.3504  0.4084 -0.1216
35819SOL     OW19180   7.927  10.511   7.081 -0.3470 -0.3969 -0.1434
35819SOL    HW119181   7.891  10.578   7.023 -1.8384 -0.3505  0.7674
35819SOL    HW219182   7.886  10.430   7.052  0.0740 -0.6247 -0.1099
35820SOL     OW19183   2.008  10.417   6.970  0.4949  0.0554 -0.6529
35820SOL    HW119184   2.069  10.355   6.930  0.7382  0.4428 -0.8899
35820SOL    HW219185   2.025  10.500   6.926 -0.4720  0.0891 -1.0037
35821SOL     OW19186   1.868   2.927   3.895 -0.0881  0.0848 -0.7872
35821SOL    HW119187   1.883   2.834   3.878  2.7553  0.3218  0.0293
35821SOL    HW219188   1.807   2.954   3.826  0.6147 -1.9318 -2.3019
35822SOL     OW19189  10.703   2.929   0.570  0.2893 -0.4118 -0.2208
35822SOL    HW119190  10.752   2.850   0.548  0.5156 -0.3264 -0.0280
35822SOL    HW219191  10.675   2.964   0.485  0.4413 -0.5395 -0.3253
35823SOL     OW19192   0.512   6.208   4.269  0.1784 -0.3308 -0.7945
35823SOL    HW119193   0.603   6.228   4.287 -0.0867  0.2369 -0.0359
35823SOL    HW219194   0.512   6.116   4.240  0.7614 -0.9389  1.0392
35824SOL     OW19195  11.883   9.304   6.287  0.2095  0.7604 -0.0555
35824SOL    HW119196  11.947   9.343   6.229 -0.3129  1.5670 -0.0992
35824SOL    HW219197  11.872   9.368   6.358 -1.7667  1.4325 -0.9004
35825SOL     OW19198   5.900   3.787   8.614 -0.1131  0.5100  0.0944
35825SOL    HW119199   5.840   3.799   8.540  0.3307 -1.1967 -0.5874
35825SOL    HW219200   5.845   3.749   8.682 -0.4989  1.9859  0.6450
35826SOL     OW19201   9.271   8.218   5.577 -0.0599 -0.2691  0.4633
35826SOL    HW119202   9.332   8.292   5.578  0.0218 -0.3226 -0.3701
35826SOL    HW219203   9.327   8.141   5.576 -0.0756 -0.3177 -2.1656
35827SOL     OW19204   2.350   2.239   5.895  0.1024 -0.2859 -0.5116
35827SOL    HW119205   2.419   2.198   5.842  1.9624  0.8742  0.8991
35827SOL    HW219206   2.303   2.165   5.934  0.9946 -1.1092 -0.9349
35828SOL     OW19207   8.146   6.420   4.437 -0.6422 -0.2903 -0.5109
35828SOL    HW119208   8.191   6.398   4.519 -1.2349  0.2232 -0.0371
35828SOL    HW219209   8.055   6.398   4.454 -1.1404  1.7117 -0.2803
35829SOL     OW19210  10.033   0.446  10.338 -0.2207 -0.5648 -0.4783
35829SOL    HW119211   9.983   0.520  10.375  0.5822 -0.9233  1.4345
35829SOL    HW219212  10.058   0.476  10.251 -1.7576  0.5482 -0.5973
35830SOL     OW19213   0.885   5.927   5.049  1.0027 -0.5857  0.1447
35830SOL    HW119214   0.912   5.924   5.141  0.7109  0.9341  0.2999
35830SOL    HW219215   0.808   5.871   5.045  1.3351 -1.0915  0.7114
35831SOL     OW19216   2.585   0.082   2.844  0.2254 -0.1102  0.1205
35831SOL    HW119217   2.662   0.030   2.868  0.0335 -0.6817 -0.4648
35831SOL    HW219218   2.549   0.112   2.927  0.0106 -1.4071  0.5147
35832SOL     OW19219  10.654   9.096   4.016  0.2371  0.0877 -0.0842
35832SOL    HW119220  10.670   9.186   4.044 -0.3720 -0.1856  1.2134
35832SOL    HW219221  10.565   9.097   3.980  1.2164  0.5645 -2.7152
35833SOL     OW19222   9.566   2.766   8.310  0.0250  0.3102  0.3608
35833SOL    HW119223   9.601   2.685   8.272 -0.7921 -0.2233  0.7183
35833SOL    HW219224   9.478   2.743   8.339  0.5961  0.7008  2.5576
35834SOL     OW19225   8.617   5.271   8.861  0.4151  0.6672  0.9474
35834SOL    HW119226   8.608   5.228   8.776 -0.4031  0.8243  0.9504
35834SOL    HW219227   8.681   5.341   8.846  1.8769 -0.6096  0.9776
35835SOL     OW19228   2.903  10.757   6.730  0.1829  0.2122  0.3020
35835SOL    HW119229   2.814  10.791   6.745  1.0414  2.2659  1.0558
35835SOL    HW219230   2.922  10.779   6.639  0.7028  1.7490  0.7632
35836SOL     OW19231   5.462  11.453   9.301 -0.2310 -0.3497 -0.2365
35836SOL    HW119232   5.526  11.523   9.316 -2.9164  2.0595  0.8596
35836SOL    HW219233   5.429  11.469   9.213 -1.7464  0.6418  0.4697
35837SOL     OW19234   7.977   2.594  10.826 -0.0373  0.3323 -0.2878
35837SOL    HW119235   7.933   2.665  10.780 -1.4367 -0.0873  0.3562
35837SOL    HW219236   8.040   2.560  10.762 -1.2070  0.4386 -1.5543
35838SOL     OW19237   5.978  11.281  10.683  0.0403 -0.0217  0.2437
35838SOL    HW119238   5.907  11.217  10.682 -0.0101 -0.0115  1.8213
35838SOL    HW219239   5.937  11.361  10.714  0.4660  0.3537 -0.1472
35839SOL     OW19240   1.413   1.013   9.265 -0.3490  0.1225  0.1383
35839SOL    HW119241   1.436   0.940   9.207 -0.1696  1.0097 -0.9597
35839SOL    HW219242   1.494   1.036   9.309 -0.3411 -0.1401  0.2639
35840SOL     OW19243   8.934   1.647   9.124 -0.0142  0.3044  0.4329
35840SOL    HW119244   8.882   1.711   9.173 -2.8917 -0.7145 -1.0732
35840SOL    HW219245   8.871   1.581   9.095  1.9964 -0.6696 -2.1777
35841SOL     OW19246   6.982   5.744   3.659 -0.5152  0.3840  0.3956
35841SOL    HW119247   7.052   5.717   3.719 -1.5409  0.8010  1.8520
35841SOL    HW219248   6.930   5.666   3.645 -0.4603  0.3645  0.2957
35842SOL     OW19249   9.765   2.319   9.833 -0.1357 -0.4543  0.0466
35842SOL    HW119250   9.842   2.272   9.803  0.3818  0.4993 -0.1666
35842SOL    HW219251   9.727   2.357   9.754 -1.0992 -1.2969  0.0856
35843SOL     OW19252   4.552  11.554   3.889  0.0368  0.4031 -0.5169
35843SOL    HW119253   4.493  11.502   3.943  0.3618 -1.1515 -1.5830
35843SOL    HW219254   4.513  11.641   3.886 -0.4002  0.3109  1.5231
35844SOL     OW19255   1.664   8.087   8.627  0.5874 -0.1852 -0.1446
35844SOL    HW119256   1.623   8.069   8.542 -1.1970 -2.9354  1.1380
35844SOL    HW219257   1.598   8.136   8.675  0.6980 -0.5089  0.3475
35845SOL     OW19258   0.172   4.200   7.110 -0.7837 -0.2853  0.8554
35845SOL    HW119259   0.184   4.133   7.176 -0.3916 -1.4775 -0.3860
35845SOL    HW219260   0.139   4.276   7.159 -1.8874 -1.5643  2.1952
35846SOL     OW19261   6.909  10.164   4.973  0.3745 -0.4664 -0.1821
35846SOL    HW119262   6.994  10.156   4.930  0.0605 -1.5309 -0.6538
35846SOL    HW219263   6.884  10.073   4.991 -1.2698 -0.2769 -1.2850
35847SOL     OW19264   1.376   4.923   4.746 -0.3522  0.3650  0.3343
35847SOL    HW119265   1.407   4.989   4.807 -1.4518  0.0508  1.2702
35847SOL    HW219266   1.434   4.848   4.759 -0.8612  0.1299  1.3693
35848SOL     OW19267   8.194   2.251   5.875 -0.3037 -0.1353 -0.4814
35848SOL    HW119268   8.271   2.257   5.818 -1.9063  0.8514 -2.6968
35848SOL    HW219269   8.176   2.342   5.900 -0.3461 -0.4357  0.6115
35849SOL     OW19270   8.411   4.377   0.824 -0.1046  0.1206 -0.3688
35849SOL    HW119271   8.423   4.285   0.847 -0.9279 -0.0256 -0.4861
35849SOL    HW219272   8.317   4.393   0.835 -0.1174  0.7119 -1.1908
35850SOL     OW19273   3.654  11.924   5.381  0.3664 -0.1937 -0.5583
35850SOL    HW119274   3.559  11.936   5.376  0.4048 -0.0819 -1.0213
35850SOL    HW219275   3.665  11.832   5.402  0.1299  0.0391  0.7007
35851SOL     OW19276   4.699   4.711   3.345  0.1003 -0.5149 -0.3181
35851SOL    HW119277   4.718   4.727   3.252 -0.1025 -0.6117 -0.3766
35851SOL    HW219278   4.745   4.629   3.365  0.5464 -0.2415 -0.2051
35852SOL     OW19279   4.259   3.559   4.700 -0.5388 -0.0528  0.1727
35852SOL    HW119280   4.227   3.524   4.784 -0.7950 -0.7123 -0.1894
35852SOL    HW219281   4.292   3.646   4.721 -0.4171 -0.2911  0.9988
35853SOL     OW19282   6.564   4.970   8.647 -0.7309 -0.3281 -0.1565
35853SOL    HW119283   6.616   4.984   8.568 -2.2763  2.3809 -0.8325
35853SOL    HW219284   6.602   4.892   8.687  1.4179 -0.6208 -2.4886
35854SOL     OW19285   7.424   2.794   2.726  0.7010  0.1018  0.5112
35854SOL    HW119286   7.339   2.793   2.681  0.1443  1.1860  1.4732
35854SOL    HW219287   7.437   2.702   2.752 -0.2612 -0.0614  0.4848
35855SOL     OW19288   7.489   3.310   8.935  0.3820  0.2507  0.3826
35855SOL    HW119289   7.551   3.239   8.919  1.0804  0.8256  0.5375
35855SOL    HW219290   7.443   3.284   9.015  0.9889  0.2182  0.7197
35856SOL     OW19291   8.036   3.164   0.076 -0.2271 -0.4345  0.0348
35856SOL    HW119292   7.958   3.149   0.129 -0.6626  0.4538 -0.3473
35856SOL    HW219293   8.028   3.101   0.004 -0.1631 -0.9078  0.4286
35857SOL     OW19294   2.831  11.772   8.713  0.0314  0.4148  0.1304
35857SOL    HW119295   2.811  11.689   8.670  0.2275  1.1596 -1.5056
35857SOL    HW219296   2.924  11.766   8.735  0.4445  0.7320 -1.3712
35858SOL     OW19297   0.218   4.558   0.987 -0.1248  0.6347  0.1098
35858SOL    HW119298   0.303   4.602   0.987  0.8396 -1.0808 -1.3462
35858SOL    HW219299   0.209   4.522   0.899 -2.3283  0.6525  0.2658
35859SOL     OW19300   3.143   5.032   3.719 -0.0440 -0.3241  0.6006
35859SOL    HW119301   3.057   5.016   3.759  0.0363  0.2885  1.0151
35859SOL    HW219302   3.199   4.963   3.754  0.0891  0.3522  1.7521
35860SOL     OW19303   6.467   2.611   5.895  0.1768  0.5350  0.3380
35860SOL    HW119304   6.523   2.565   5.832  1.6735  0.2354  1.8161
35860SOL    HW219305   6.451   2.547   5.964 -1.1326  0.9814  0.4883
35861SOL     OW19306   7.328   2.988   6.739 -0.0779 -0.0196 -0.6239
35861SOL    HW119307   7.292   3.049   6.675 -0.4505 -1.2240 -1.6091
35861SOL    HW219308   7.410   2.958   6.700  0.0579 -0.2074 -0.2013
35862SOL     OW19309   2.574   2.710   5.971 -0.4453  0.3427 -0.1460
35862SOL    HW119310   2.524   2.681   5.895 -1.3268  1.0640  0.1365
35862SOL    HW219311   2.603   2.798   5.948 -1.3172  0.8509  0.5951
35863SOL     OW19312   5.299   0.075   1.034 -0.4422 -0.4073  0.6103
35863SOL    HW119313   5.336   0.052   0.948  0.5689 -0.0554  0.9408
35863SOL    HW219314   5.269   0.165   1.023 -2.5288 -1.1239 -0.0694
35864SOL     OW19315   8.990   6.427   5.031  0.4704 -0.3986  0.0843
35864SOL    HW119316   8.900   6.452   5.052  1.3850  1.8576  1.7652
35864SOL    HW219317   8.993   6.334   5.050 -1.8736 -0.9335 -1.5964
35865SOL     OW19318  11.737   2.473   4.793  0.2165  0.4860 -0.1372
35865SOL    HW119319  11.682   2.417   4.849 -0.5733  1.5267  0.1769
35865SOL    HW219320  11.813   2.419   4.771 -0.8068 -0.9194 -0.3641
35866SOL     OW19321   7.083   6.474  11.110  0.2627  0.1662 -0.0345
35866SOL    HW119322   7.153   6.490  11.046 -1.1655 -1.7036 -2.2321
35866SOL    HW219323   7.010   6.527  11.078  0.3248  1.3944  1.7171
35867SOL     OW19324   2.637   7.232   0.287 -0.6985  0.3121 -0.1569
35867SOL    HW119325   2.705   7.278   0.336 -0.8566  0.2619  0.1088
35867SOL    HW219326   2.572   7.299   0.267  0.2001  0.7504 -1.8626
35868SOL     OW19327   6.267  11.241   0.787 -0.0952  0.2455 -0.2547
35868SOL    HW119328   6.180  11.265   0.817 -0.5119  0.3079 -1.4430
35868SOL    HW219329   6.259  11.148   0.763  0.8363 -0.4696  1.9408
35869SOL     OW19330   1.471   0.694   8.562  0.5460 -0.4032 -0.7641
35869SOL    HW119331   1.463   0.598   8.565  3.3975 -0.7075  0.6500
35869SOL    HW219332   1.425   0.725   8.639  2.1220 -0.9798  0.4758
35870SOL     OW19333   5.921   9.132   7.466 -0.2910 -0.0512  0.2518
35870SOL    HW119334   5.941   9.181   7.386 -1.0593 -0.6199 -0.2991
35870SOL    HW219335   5.914   9.199   7.533  2.2093  0.3108  0.2687
35871SOL     OW19336   7.524   5.236   8.804  0.1628  0.4021  0.3888
35871SOL    HW119337   7.505   5.308   8.743 -0.4666 -0.1037 -0.0267
35871SOL    HW219338   7.479   5.261   8.884  1.9355  1.6332  1.0685
35872SOL     OW19339   4.334   5.031   2.379  0.4043 -0.1555  0.2340
35872SOL    HW119340   4.262   4.968   2.380  0.5915 -0.3683  0.3035
35872SOL    HW219341   4.412   4.978   2.368  0.8385 -0.2269  2.8396
35873SOL     OW19342   9.109   8.215   6.850  0.4597  0.0877 -0.1303
35873SOL    HW119343   9.078   8.196   6.762  0.4207 -1.2181  0.1434
35873SOL    HW219344   9.181   8.277   6.838  0.7966 -0.4775 -1.1234
35874SOL     OW19345  10.218   2.315   9.392  0.4355 -0.2081 -0.7896
35874SOL    HW119346  10.125   2.338   9.385 -0.2886 -2.2567  0.9645
35874SOL    HW219347  10.246   2.300   9.302 -1.3085 -0.7717 -1.2801
35875SOL     OW19348  11.426   0.587   0.723  0.0531  0.6051  0.1799
35875SOL    HW119349  11.444   0.556   0.634 -0.1231  0.9378  0.0257
35875SOL    HW219350  11.491   0.544   0.777 -0.6121 -0.5713  0.0706
35876SOL     OW19351   1.146   1.179   0.360  0.6344 -0.5133 -0.4704
35876SOL    HW119352   1.133   1.161   0.454 -1.8166 -0.2380 -0.6840
35876SOL    HW219353   1.162   1.274   0.356  0.3155 -0.4516 -0.3473
35877SOL     OW19354   0.641   0.532   5.760  0.1276  0.0421  0.8397
35877SOL    HW119355   0.693   0.543   5.680 -1.3753  0.9813 -0.0556
35877SOL    HW219356   0.679   0.455   5.803 -0.6492 -2.1959 -2.1182
35878SOL     OW19357   4.565   9.725   2.797  0.4605  0.0164  0.0200
35878SOL    HW119358   4.561   9.653   2.859  1.2629 -0.4284 -0.4174
35878SOL    HW219359   4.649   9.713   2.752 -0.3576 -0.0341 -1.5583
35879SOL     OW19360   9.354   0.273   2.375  0.0931  0.3353 -0.2186
35879SOL    HW119361   9.275   0.297   2.424  0.0153  0.0022 -0.1768
35879SOL    HW219362   9.372   0.348   2.319  0.5023  0.9568  0.7221
35880SOL     OW19363   7.781   1.666   3.698  0.2749 -0.3340 -0.1865
35880SOL    HW119364   7.725   1.734   3.661  1.7575  0.7110 -0.6457
35880SOL    HW219365   7.864   1.711   3.716  0.9085 -1.7609  0.6351
35881SOL     OW19366   7.098   5.178  11.618 -0.1289 -0.6921 -0.0600
35881SOL    HW119367   7.114   5.103  11.675  3.1841  0.7130  1.1742
35881SOL    HW219368   7.180   5.189  11.570 -0.2571  2.3279  0.1879
35882SOL     OW19369   3.670   8.228   8.613 -0.0864 -0.1685  0.0495
35882SOL    HW119370   3.661   8.133   8.615  1.3708 -0.3696  3.0676
35882SOL    HW219371   3.603   8.259   8.675 -0.4294  0.7776 -0.7783
35883SOL     OW19372  10.636  10.143  10.920 -0.1378  0.3237 -0.0563
35883SOL    HW119373  10.709  10.144  10.858  0.4540 -0.2660  0.6209
35883SOL    HW219374  10.568  10.092  10.876 -0.3867  1.3779 -0.9387
35884SOL     OW19375   2.089   7.322   0.611  0.1713 -0.0563  0.1051
35884SOL    HW119376   2.127   7.284   0.690  2.1792  0.0958 -0.7239
35884SOL    HW219377   2.161   7.372   0.571 -0.9617  0.3891 -1.4836
35885SOL     OW19378  11.157  10.192   8.748 -0.0937  0.3334  0.5627
35885SOL    HW119379  11.099  10.205   8.823 -1.0242  1.5773 -0.3388
35885SOL    HW219380  11.102  10.150   8.682  0.5825 -0.2929  0.3809
35886SOL     OW19381   1.067   0.415   9.966 -0.0158 -0.4691  0.2259
35886SOL    HW119382   1.022   0.349   9.913  1.6331 -0.7345 -0.9448
35886SOL    HW219383   1.007   0.433  10.038 -1.6947 -1.2208 -0.9153
35887SOL     OW19384  10.351   3.946   7.045  0.0470 -0.8222  0.5182
35887SOL    HW119385  10.322   3.998   7.120  0.3571 -1.7094  1.2637
35887SOL    HW219386  10.394   3.870   7.083  1.3613 -0.6603 -0.5535
35888SOL     OW19387   4.018   5.538   6.153 -0.2928 -0.3850  0.7210
35888SOL    HW119388   3.982   5.577   6.233 -1.6417  0.1080 -0.0776
35888SOL    HW219389   4.111   5.556   6.157 -0.7397  2.3238  0.7654
35889SOL     OW19390   5.275   7.255   5.503 -0.1009 -0.1068  0.1159
35889SOL    HW119391   5.187   7.269   5.537 -0.1105  1.5823 -0.5287
35889SOL    HW219392   5.333   7.295   5.568  0.3362 -2.3324  1.1938
35890SOL     OW19393  10.629   6.877   8.157 -1.0893  0.3825  0.2674
35890SOL    HW119394  10.625   6.958   8.105 -0.0447 -0.5443 -1.3429
35890SOL    HW219395  10.617   6.807   8.092  1.4312 -0.8793  1.0640
35891SOL     OW19396   3.472  11.410   1.401  0.0417  0.3165  0.3708
35891SOL    HW119397   3.550  11.452   1.365  0.4673  0.2824  1.2194
35891SOL    HW219398   3.425  11.376   1.325  0.1156  1.5836 -0.2708
35892SOL     OW19399   2.839   1.582   7.149 -0.0435 -0.5657 -0.3487
35892SOL    HW119400   2.788   1.502   7.144 -1.1974  0.0843  0.5057
35892SOL    HW219401   2.917   1.558   7.199  1.3467 -1.9552 -2.9973
35893SOL     OW19402   8.046   4.948   0.402 -0.4832 -0.2863  0.2271
35893SOL    HW119403   7.953   4.933   0.384 -0.4436  0.1666 -0.3787
35893SOL    HW219404   8.051   5.040   0.427  0.0336  0.1411 -1.3770
35894SOL     OW19405   1.519   1.185  11.124  0.0755  0.3339  0.4114
35894SOL    HW119406   1.529   1.219  11.213 -0.6439 -0.5792  0.8615
35894SOL    HW219407   1.453   1.241  11.084 -1.1089 -0.4947  1.1491
35895SOL     OW19408  11.444   4.012  10.563  0.2833 -0.3692 -0.1087
35895SOL    HW119409  11.488   4.066  10.629 -0.8864  2.4963 -1.5183
35895SOL    HW219410  11.494   4.026  10.483 -1.5145  0.7336 -1.0899
35896SOL     OW19411  11.381   7.811   7.159 -0.3686  0.4382 -0.0519
35896SOL    HW119412  11.347   7.750   7.094 -0.7501 -0.0528  0.5871
35896SOL    HW219413  11.331   7.891   7.146  0.3994  0.7517 -1.1503
35897SOL     OW19414   2.807   5.808   8.189  0.0354 -0.1253  0.5754
35897SOL    HW119415   2.791   5.802   8.095 -1.8225  0.8256  0.7754
35897SOL    HW219416   2.855   5.728   8.210 -1.3541 -1.4246 -0.8482
35898SOL     OW19417   5.570   2.726   9.892 -0.2190 -0.5069  0.3719
35898SOL    HW119418   5.511   2.738   9.967 -0.2227 -1.3912  0.5241
35898SOL    HW219419   5.579   2.631   9.884  1.5809 -0.3859  0.6556
35899SOL     OW19420   4.546   7.798   2.861 -0.7570 -0.2768  0.5440
35899SOL    HW119421   4.588   7.848   2.931 -1.6095 -0.8808  1.5204
35899SOL    HW219422   4.557   7.706   2.887 -0.7438 -0.5306 -0.3240
35900SOL     OW19423   0.347   1.962   1.897 -0.4497  0.1231 -0.1580
35900SOL    HW119424   0.273   2.023   1.894 -0.2413  0.3599 -0.7465
35900SOL    HW219425   0.308   1.877   1.912 -0.8270  0.2751 -0.2622
35901SOL     OW19426   9.119   8.807   8.553  0.3859  0.1958 -0.2024
35901SOL    HW119427   9.151   8.770   8.471 -2.5107 -2.5513 -0.2893
35901SOL    HW219428   9.039   8.853   8.530 -0.4836 -0.6307  1.0272
35902SOL     OW19429   7.692   2.883  11.252 -0.0294 -0.3699  0.0495
35902SOL    HW119430   7.667   2.793  11.272 -0.3518 -0.3667 -0.3319
35902SOL    HW219431   7.633   2.910  11.181 -0.3511  0.3518  0.5810
35903SOL     OW19432  11.300   9.303  11.236  0.4870 -0.1342 -0.9252
35903SOL    HW119433  11.242   9.317  11.311  0.6275 -1.4919 -0.5376
35903SOL    HW219434  11.265   9.360  11.167  1.4541  2.6036  0.6788
35904SOL     OW19435   2.762   6.750  11.640  0.2523  0.1195 -0.1481
35904SOL    HW119436   2.746   6.839  11.610  2.3361  0.7121  0.3404
35904SOL    HW219437   2.708   6.741  11.719 -2.2500 -0.1346 -1.7784
35905SOL     OW19438   2.576   9.729   6.413  0.0306 -0.1936 -0.0923
35905SOL    HW119439   2.598   9.664   6.347 -0.2558 -0.4236  0.0352
35905SOL    HW219440   2.506   9.689   6.464 -1.0256  0.6867 -0.7811
35906SOL     OW19441   8.425   3.980   7.118 -0.2881 -0.3552 -0.1919
35906SOL    HW119442   8.431   3.898   7.167  0.7087 -1.2489 -1.7470
35906SOL    HW219443   8.371   3.959   7.042 -0.2543  0.5055 -0.4694
35907SOL     OW19444   2.276   1.780   0.674  0.1553 -0.1584  0.3466
35907SOL    HW119445   2.304   1.799   0.585 -0.3590 -0.2063  0.1666
35907SOL    HW219446   2.343   1.722   0.709  0.0933 -0.5591 -0.1911
35908SOL     OW19447   3.917   3.581   7.112 -0.0891 -0.6067 -0.1559
35908SOL    HW119448   3.886   3.591   7.023  0.8682 -0.3483 -0.4723
35908SOL    HW219449   3.866   3.508   7.148 -0.8812 -0.3386 -0.7166
35909SOL     OW19450   7.385   3.979   5.265 -0.0707 -0.4094 -0.4266
35909SOL    HW119451   7.414   4.026   5.343 -1.2672 -0.4883  0.0929
35909SOL    HW219452   7.461   3.978   5.207  1.0579 -0.9331  1.0054
35910SOL     OW19453  11.062   2.034   2.315 -0.1754  0.2019  0.1337
35910SOL    HW119454  11.150   2.071   2.307 -1.0507  2.7196  1.3007
35910SOL    HW219455  11.073   1.957   2.371  1.2732  0.5653  0.3786
35911SOL     OW19456   7.418   1.239   0.771 -0.2682 -0.6186 -0.5630
35911SOL    HW119457   7.502   1.213   0.732 -0.0651  1.6019 -1.7674
35911SOL    HW219458   7.353   1.188   0.722  0.3219 -3.2673  1.1688
35912SOL     OW19459  11.071  10.263   5.197  0.0883  0.0831 -0.1132
35912SOL    HW119460  11.068  10.328   5.266 -1.7302 -0.6381  0.5419
35912SOL    HW219461  10.998  10.284   5.140 -0.6166 -1.4252  0.1814
35913SOL     OW19462   5.785   2.670   8.443  0.1159  0.3149 -0.2655
35913SOL    HW119463   5.766   2.746   8.388  2.7388  0.9583 -0.3993
35913SOL    HW219464   5.772   2.595   8.385 -0.9896  0.7188 -0.5743
35914SOL     OW19465   7.443   3.219   6.445 -0.6745  0.1218 -0.1791
35914SOL    HW119466   7.354   3.218   6.481 -0.5443  1.5411  0.2379
35914SOL    HW219467   7.441   3.155   6.374 -2.2206  0.6035 -0.6042
35915SOL     OW19468   6.703   4.697   6.754  0.1615 -0.2376  0.3033
35915SOL    HW119469   6.791   4.676   6.785 -0.4663  0.0681  2.4232
35915SOL    HW219470   6.711   4.787   6.721  1.0712 -0.9270 -1.5391
35916SOL     OW19471   9.328  11.047   9.991  0.2657 -0.3853 -0.0380
35916SOL    HW119472   9.271  11.123  10.003  0.0498 -0.9051  2.9830
35916SOL    HW219473   9.323  11.028   9.897 -2.1861  1.3793 -0.3670
35917SOL     OW19474  11.144   3.668   1.624  0.4734  0.0720  0.7725
35917SOL    HW119475  11.106   3.705   1.704 -0.3287  1.7552 -0.3536
35917SOL    HW219476  11.183   3.742   1.578 -0.5707 -0.5427 -1.2272
35918SOL     OW19477   6.159   1.121   8.776 -0.2974 -0.3135 -0.5750
35918SOL    HW119478   6.112   1.078   8.705  0.5854 -0.8471 -0.8550
35918SOL    HW219479   6.189   1.049   8.832 -1.0834  0.1061  0.4223
35919SOL     OW19480   9.776   6.436  10.600 -0.3872  0.4340  0.5690
35919SOL    HW119481   9.841   6.476  10.658 -1.6708 -0.8927  3.0936
35919SOL    HW219482   9.703   6.498  10.601 -0.2499  0.6135 -0.0275
35920SOL     OW19483   5.052  11.272   5.033  0.4587 -0.0994  0.0475
35920SOL    HW119484   5.028  11.246   4.944 -0.2053  0.1356  0.1505
35920SOL    HW219485   4.983  11.235   5.088  1.7505 -1.7135  0.6794
35921SOL     OW19486  10.958  11.578   8.296  0.6628  0.1720  0.2214
35921SOL    HW119487  10.886  11.572   8.359  0.3991 -0.5348 -0.1464
35921SOL    HW219488  11.037  11.568   8.349  0.4010 -2.3638  0.2281
35922SOL     OW19489   5.593   7.483   0.089 -0.4882 -0.4000  0.4187
35922SOL    HW119490   5.609   7.389   0.098 -0.8538 -0.5688 -0.5348
35922SOL    HW219491   5.675   7.518   0.055 -0.5812 -0.4842  0.1100
35923SOL     OW19492   6.458   5.552   4.228 -0.0771 -0.6182  0.0464
35923SOL    HW119493   6.449   5.511   4.314 -0.2814 -0.1105  0.2697
35923SOL    HW219494   6.433   5.643   4.242 -1.3178 -0.7987 -0.7932
35924SOL     OW19495   6.907   6.880   7.336 -0.2881 -0.1259 -0.1282
35924SOL    HW119496   6.817   6.908   7.317 -0.8466 -0.2750  1.9441
35924SOL    HW219497   6.958   6.961   7.339 -1.3098  0.5675  2.9729
35925SOL     OW19498  11.778  10.692   5.452  0.7724  0.4414 -0.0979
35925SOL    HW119499  11.772  10.734   5.538  0.1116  0.7727 -0.3014
35925SOL    HW219500  11.740  10.605   5.465 -0.7586  1.0341 -0.3964
35926SOL     OW19501   7.633   7.745   9.776  0.1676 -0.0748  0.3336
35926SOL    HW119502   7.728   7.743   9.771  0.1432  0.5811 -0.7152
35926SOL    HW219503   7.613   7.731   9.868  1.2919  0.1320  0.6166
35927SOL     OW19504   4.436   1.396   7.617 -0.4027  0.1325  0.1024
35927SOL    HW119505   4.529   1.397   7.638 -0.5310 -1.4530  0.9038
35927SOL    HW219506   4.393   1.431   7.695 -0.5797 -1.0901  0.5767
35928SOL     OW19507   1.651   3.237   5.432  0.3651  0.4690  0.4821
35928SOL    HW119508   1.676   3.148   5.409  0.5180  0.9654 -1.5089
35928SOL    HW219509   1.734   3.283   5.444  0.3577  0.8740 -0.8647
35929SOL     OW19510   8.901   6.377   2.099 -0.2934  0.0759  0.4871
35929SOL    HW119511   8.930   6.286   2.103  2.3007  0.8422  0.8811
35929SOL    HW219512   8.831   6.377   2.033 -0.4288 -2.2028  0.5768
35930SOL     OW19513   9.643   5.533   1.871  0.0829  0.0605 -0.3464
35930SOL    HW119514   9.688   5.458   1.831  0.5246  0.4054 -0.5056
35930SOL    HW219515   9.685   5.610   1.832  1.1306  0.4355  1.3931
35931SOL     OW19516   8.128   9.961   5.016  0.1263 -0.5146  0.1009
35931SOL    HW119517   8.106   9.938   5.107 -1.3444  1.8186  0.4376
35931SOL    HW219518   8.212  10.005   5.022  0.7556 -1.6796  0.0864
35932SOL     OW19519   4.114   8.494   7.609 -0.1090  0.0841 -0.5025
35932SOL    HW119520   4.107   8.552   7.533 -2.9947  1.0925  0.4079
35932SOL    HW219521   4.178   8.537   7.666  2.5183 -0.9601 -2.4594
35933SOL     OW19522   3.584   6.108   5.494 -0.0281  0.2359 -0.5751
35933SOL    HW119523   3.520   6.106   5.565  0.4644 -1.1262 -0.1222
35933SOL    HW219524   3.663   6.144   5.535 -0.4076  1.6436 -1.0566
35934SOL     OW19525   6.985   9.652   4.536 -0.1758 -0.4197  0.1840
35934SOL    HW119526   7.056   9.603   4.495  0.7197  0.0962  1.0626
35934SOL    HW219527   6.969   9.726   4.476  1.5987  0.7220  1.0265
35935SOL     OW19528   9.410   9.806  11.943  0.2868 -0.0654 -0.2854
35935SOL    HW119529   9.399   9.901  11.936 -0.3330 -0.2713 -3.6386
35935SOL    HW219530   9.500   9.790  11.915  0.5086 -0.4621  0.6232
35936SOL     OW19531   2.434  10.609   4.499  0.6193  0.1833 -0.7314
35936SOL    HW119532   2.457  10.518   4.481  1.5106 -0.1180  1.5769
35936SOL    HW219533   2.498  10.661   4.450  0.1646 -0.3971 -1.9834
35937SOL     OW19534  11.593   7.628   0.496  0.0836 -0.5657  0.4761
35937SOL    HW119535  11.504   7.599   0.517  0.2374 -0.7178  0.9337
35937SOL    HW219536  11.596   7.630   0.401 -0.6513  0.1953  0.4552
35938SOL     OW19537   0.398   2.121   3.990  0.2946  0.0105 -0.0082
35938SOL    HW119538   0.326   2.058   3.991  0.4964 -0.2220  0.6352
35938SOL    HW219539   0.471   2.074   4.032  0.4346  0.6818  0.5180
35939SOL     OW19540  10.597   8.670   9.490  0.6081  0.5948 -0.1230
35939SOL    HW119541  10.641   8.631   9.414  1.6171  2.1590 -0.3964
35939SOL    HW219542  10.608   8.764   9.477 -1.3899  0.9950  0.6916
35940SOL     OW19543   2.842   7.690   2.477 -0.7902 -0.0071 -0.3247
35940SOL    HW119544   2.760   7.708   2.521 -0.1403 -0.3466  1.0997
35940SOL    HW219545   2.905   7.752   2.515 -0.3041  0.0183 -1.1339
35941SOL     OW19546   0.244   7.325  10.818 -0.0337 -0.3074  0.2923
35941SOL    HW119547   0.317   7.380  10.791 -2.1394  3.1690  1.1024
35941SOL    HW219548   0.248   7.324  10.914 -1.4398  0.6175  0.3947
35942SOL     OW19549   1.916  11.142   3.955  0.5274  0.2570  0.1619
35942SOL    HW119550   1.981  11.199   3.996  1.7130 -1.4194  0.7226
35942SOL    HW219551   1.849  11.128   4.022 -0.6433  2.1947 -0.5006
35943SOL     OW19552   9.388   0.443   2.167 -0.5259 -0.4023  0.0046
35943SOL    HW119553   9.465   0.451   2.110 -0.2420 -0.4032  0.3849
35943SOL    HW219554   9.319   0.411   2.109  0.2613 -2.3491  0.0776
35944SOL     OW19555  11.009   5.704   3.635 -0.1934  0.1879 -0.2850
35944SOL    HW119556  11.018   5.768   3.705 -2.3269 -0.3253  0.5483
35944SOL    HW219557  11.065   5.736   3.564  0.0216  2.0869  0.7044
35945SOL     OW19558   2.273  11.590   2.155  0.3336 -0.1926  0.1994
35945SOL    HW119559   2.261  11.592   2.250 -0.2100 -2.1188  0.2210
35945SOL    HW219560   2.248  11.501   2.130 -0.1141  0.4571 -1.8398
35946SOL     OW19561  11.686   0.922   1.268 -0.0435 -0.6330  0.2211
35946SOL    HW119562  11.681   0.889   1.358  0.9869 -0.9140  0.1902
35946SOL    HW219563  11.620   0.871   1.221 -0.6926 -0.3825  0.8373
35947SOL     OW19564   9.557   1.667   2.821 -0.6108  0.3116 -0.7768
35947SOL    HW119565   9.552   1.697   2.912 -1.2600 -1.7636 -0.0545
35947SOL    HW219566   9.611   1.732   2.777 -1.2658  2.0241  0.8021
35948SOL     OW19567   2.330  10.260   0.069 -0.3460  0.1415 -0.5521
35948SOL    HW119568   2.269  10.227   0.136  1.5027  0.3977  1.3611
35948SOL    HW219569   2.416  10.231   0.099  0.7830  2.1166 -1.6884
35949SOL     OW19570   4.025  11.267   6.018  0.3455  0.3811  0.0258
35949SOL    HW119571   4.010  11.356   5.986  2.9311  0.5744 -0.9094
35949SOL    HW219572   4.111  11.271   6.059  0.6615 -1.7595 -0.3332
35950SOL     OW19573   2.144  11.844   3.264 -0.1215  0.1055  0.0561
35950SOL    HW119574   2.178  11.841   3.354 -0.9968  0.2509  0.4002
35950SOL    HW219575   2.222  11.852   3.210  0.6038 -2.0179  0.6675
35951SOL     OW19576   5.295   4.898   2.479  0.2383  0.2064 -0.2020
35951SOL    HW119577   5.365   4.924   2.540  1.7226  0.0329 -1.7461
35951SOL    HW219578   5.311   4.806   2.462 -0.3310  0.1839 -0.6359
35952SOL     OW19579  10.251   3.120   2.718  0.3073  0.4053  0.7410
35952SOL    HW119580  10.242   3.092   2.627  0.4412  0.7589  0.6177
35952SOL    HW219581  10.326   3.179   2.717  0.6393  0.0049  1.1739
35953SOL     OW19582   1.072   8.429   5.552  0.1913  0.5625 -0.4114
35953SOL    HW119583   1.161   8.454   5.575  0.6670 -0.8843 -0.5889
35953SOL    HW219584   1.061   8.458   5.462 -0.3030  2.6698  0.2591
35954SOL     OW19585   3.836   6.323   0.834  0.4616  0.2292  0.0350
35954SOL    HW119586   3.900   6.384   0.869  1.2517 -0.3371 -0.3989
35954SOL    HW219587   3.794   6.286   0.912  2.2424 -1.0636  0.4466
35955SOL     OW19588   7.044   8.900   8.286 -0.2494  0.0266 -0.0525
35955SOL    HW119589   7.009   8.987   8.268 -1.2372 -0.2612  0.4169
35955SOL    HW219590   7.102   8.913   8.362 -0.1760  0.3172 -0.1573
35956SOL     OW19591   6.731   2.949   2.422  0.8164 -0.3088  0.9476
35956SOL    HW119592   6.767   2.862   2.437 -1.7914 -1.4579  1.1069
35956SOL    HW219593   6.752   2.968   2.330  0.7163 -1.4898  0.6669
35957SOL     OW19594  10.560   2.038   1.836  0.2979  0.0680 -0.4407
35957SOL    HW119595  10.519   1.953   1.817 -3.5595  1.2096  1.7751
35957SOL    HW219596  10.520   2.098   1.772  0.9254  0.7018 -0.2464
35958SOL     OW19597   1.808   2.893   0.526  0.1820 -0.0543 -0.3131
35958SOL    HW119598   1.777   2.837   0.597  1.4538 -1.0847 -0.5166
35958SOL    HW219599   1.748   2.967   0.525  0.0527 -0.0731  1.7472
35959SOL     OW19600   3.117  10.345   4.153  0.7379  0.0025  0.1049
35959SOL    HW119601   3.068  10.371   4.075  1.0299 -0.2731 -0.1696
35959SOL    HW219602   3.209  10.354   4.128  0.8325 -0.2871  0.3505
35960SOL     OW19603   4.582   7.434   8.952 -0.1061 -0.6608 -0.4092
35960SOL    HW119604   4.558   7.415   8.861 -1.4978  0.4808 -0.3120
35960SOL    HW219605   4.642   7.509   8.945 -0.1395 -0.6321 -0.3846
35961SOL     OW19606   9.907   0.442   6.017  0.2164 -0.4160  0.2812
35961SOL    HW119607   9.925   0.528   5.980 -2.2162  0.5872  1.1895
35961SOL    HW219608   9.988   0.392   6.005  0.7207  0.9871 -2.9771
35962SOL     OW19609   0.964   9.317   9.371 -0.0472 -0.7791 -0.3048
35962SOL    HW119610   0.947   9.404   9.334 -3.6038 -1.1312  0.1313
35962SOL    HW219611   1.026   9.277   9.310  1.3117  1.8121 -0.8062
35963SOL     OW19612  10.480   1.920   5.736  0.6228  0.3033  0.3737
35963SOL    HW119613  10.502   1.973   5.812  1.9078  1.4217 -0.7124
35963SOL    HW219614  10.504   1.975   5.661  1.9541 -1.7580 -0.8152
35964SOL     OW19615   3.270   5.174   7.774  1.2221  0.0972 -0.2204
35964SOL    HW119616   3.277   5.078   7.770  1.9666  0.0348  1.7515
35964SOL    HW219617   3.350   5.205   7.731  1.1335 -0.1719 -0.5828
35965SOL     OW19618   2.916   8.498   0.425 -0.3934 -0.0154 -0.0413
35965SOL    HW119619   2.822   8.516   0.429 -0.6167 -1.1479  0.2206
35965SOL    HW219620   2.922   8.408   0.393  0.5886 -0.1440  0.4624
35966SOL     OW19621   0.872   4.708   9.955 -0.0276 -0.0015  0.6069
35966SOL    HW119622   0.854   4.782  10.013  0.2020  0.3357  0.2562
35966SOL    HW219623   0.949   4.735   9.905 -0.3807 -0.1725 -0.0420
35967SOL     OW19624  10.367   5.174   0.615  0.2937 -0.4296 -1.0774
35967SOL    HW119625  10.460   5.190   0.598  0.1217  1.4269 -0.5387
35967SOL    HW219626  10.366   5.132   0.701  0.5771  2.0823  0.2505
35968SOL     OW19627   0.218   8.748   9.961 -0.3626  0.2665 -0.2976
35968SOL    HW119628   0.187   8.725   9.874  0.2901 -0.4248 -0.3586
35968SOL    HW219629   0.302   8.703   9.969 -1.3309 -1.3724  1.4502
35969SOL     OW19630   0.862   7.742   5.787  0.1342  0.2745  0.8272
35969SOL    HW119631   0.811   7.716   5.711  0.9769  0.6739  0.1103
35969SOL    HW219632   0.925   7.805   5.753  1.2035 -0.3183  1.6584
35970SOL     OW19633   9.213   0.726   9.960 -0.0163  1.2104  0.3063
35970SOL    HW119634   9.171   0.646   9.927  0.5346  0.8586  0.4499
35970SOL    HW219635   9.300   0.725   9.921 -0.1947  2.0224 -0.1171
35971SOL     OW19636   0.272   1.176   2.669  0.6599 -0.5370  0.3203
35971SOL    HW119637   0.362   1.209   2.673  0.3384  0.2853  1.0718
35971SOL    HW219638   0.235   1.198   2.754 -0.8266  0.8221 -0.6273
35972SOL     OW19639   7.013   1.786   4.724 -0.2007 -0.8300 -0.0084
35972SOL    HW119640   6.974   1.862   4.766 -1.3233  0.2524 -2.7736
35972SOL    HW219641   6.938   1.730   4.701  0.4901 -2.0625  0.6541
35973SOL     OW19642  11.792   1.926   6.781 -0.2390  0.8597 -0.4533
35973SOL    HW119643  11.752   1.857   6.728 -0.1812  1.4113 -1.2312
35973SOL    HW219644  11.772   1.901   6.871 -1.2328  0.4445 -0.7716
35974SOL     OW19645  10.879   5.429   7.596 -0.3718 -0.1856 -0.2556
35974SOL    HW119646  10.847   5.339   7.594 -1.9023  0.3116  0.2526
35974SOL    HW219647  10.953   5.427   7.658 -0.1597 -1.1426 -0.5248
35975SOL     OW19648   6.288   9.184   5.923 -0.6763 -0.3172  0.0528
35975SOL    HW119649   6.219   9.210   5.861 -2.1230  1.9193  2.3905
35975SOL    HW219650   6.306   9.093   5.901 -2.5952 -0.2538 -2.2823
35976SOL     OW19651   5.340   3.118   6.117  0.2416  0.4712  0.0987
35976SOL    HW119652   5.390   3.201   6.114  1.2606 -0.1338 -0.2586
35976SOL    HW219653   5.258   3.138   6.072  1.0724  0.9096 -1.2942
35977SOL     OW19654   0.927  10.000   8.034  0.0095  0.3492 -0.1177
35977SOL    HW119655   0.946   9.999   7.940  0.1513  1.3373 -0.1144
35977SOL    HW219656   1.012  10.000   8.076 -0.0305  1.0929 -0.0230
35978SOL     OW19657   3.211   2.501   3.575  0.2144 -0.4255  0.3174
35978SOL    HW119658   3.287   2.448   3.553 -0.0551 -0.2902 -1.0393
35978SOL    HW219659   3.234   2.543   3.658  1.0979 -1.3463  0.5623
35979SOL     OW19660   6.387   9.799   3.188 -0.6294  0.2980  0.1898
35979SOL    HW119661   6.450   9.733   3.160 -0.2241  1.0268 -0.6621
35979SOL    HW219662   6.439   9.864   3.234 -0.8268  0.6447 -0.0685
35980SOL     OW19663   3.443   6.214  10.449  1.0541 -0.0904  0.1074
35980SOL    HW119664   3.460   6.124  10.424 -1.4553 -0.9261  1.0742
35980SOL    HW219665   3.363   6.238  10.401  1.2537  1.3597  0.4362
35981SOL     OW19666   9.739   3.860   7.132 -0.6523 -0.2290  0.0623
35981SOL    HW119667   9.662   3.902   7.094 -1.9059 -0.4212  2.2730
35981SOL    HW219668   9.713   3.769   7.144 -0.3449 -0.1465  1.4699
35982SOL     OW19669   3.581   0.348  11.422 -0.2493  0.2038 -0.2354
35982SOL    HW119670   3.653   0.410  11.410 -1.2727  1.5446  0.2800
35982SOL    HW219671   3.511   0.380  11.365 -1.2428  0.2852  0.9728
35983SOL     OW19672   2.422   0.667   5.993  0.0789 -0.1327 -0.0363
35983SOL    HW119673   2.342   0.626   6.027  0.3259 -1.6935 -1.2241
35983SOL    HW219674   2.453   0.607   5.926  1.2100  1.4102 -0.9580
35984SOL     OW19675   8.097   2.523  10.526 -0.3288 -0.1145 -0.0021
35984SOL    HW119676   8.073   2.434  10.553 -3.6113  0.8547  0.7131
35984SOL    HW219677   8.058   2.533  10.439 -1.7363  1.2294  0.7530
35985SOL     OW19678   3.029   7.356   4.955  0.1883 -0.4617 -0.8415
35985SOL    HW119679   2.998   7.269   4.932 -0.5082 -0.6996  0.8482
35985SOL    HW219680   2.966   7.388   5.020  0.0149  1.6154 -1.9511
35986SOL     OW19681   8.528   5.285  10.887  0.4429 -0.1357 -0.0734
35986SOL    HW119682   8.482   5.245  10.961  0.3898  0.4950  0.2450
35986SOL    HW219683   8.575   5.212  10.845  0.4621 -0.5046  0.5717
35987SOL     OW19684   3.397   9.745   5.957 -0.5210  0.5768  0.2268
35987SOL    HW119685   3.417   9.677   6.020 -1.1058  1.2008  1.1131
35987SOL    HW219686   3.423   9.708   5.872 -0.7860 -0.7204  0.6860
35988SOL     OW19687  10.557  11.635   6.551 -0.2040  0.0965  0.1460
35988SOL    HW119688  10.560  11.586   6.633  1.3764  0.9302  0.6254
35988SOL    HW219689  10.483  11.597   6.503 -0.2689 -1.3707  1.3343
35989SOL     OW19690   5.596   9.707   6.141  0.9477  0.3311 -0.2488
35989SOL    HW119691   5.687   9.728   6.163  1.5765 -0.7876 -1.6653
35989SOL    HW219692   5.596   9.613   6.126 -0.9000 -0.0613  1.7349
35990SOL     OW19693  11.336   1.699   2.167  0.0543 -0.3563  0.0748
35990SOL    HW119694  11.368   1.665   2.250 -0.8356  3.1329  2.0422
35990SOL    HW219695  11.258   1.646   2.147  1.0374 -2.0944  0.7035
35991SOL     OW19696   4.079   3.341   8.992  0.0895  0.4287 -0.4513
35991SOL    HW119697   4.067   3.399   9.067 -1.4584  1.1907 -1.2397
35991SOL    HW219698   4.174   3.343   8.976  0.3441  0.9096  0.9455
35992SOL     OW19699  10.232   2.231   6.943  0.8020 -0.9308 -0.7615
35992SOL    HW119700  10.179   2.300   6.902  1.1254  0.2342  0.7232
35992SOL    HW219701  10.276   2.274   7.016  1.1596 -2.6771  0.1027
35993SOL     OW19702   3.206   3.790   5.983  0.0702 -0.1105 -0.6425
35993SOL    HW119703   3.158   3.727   6.037  0.5306  1.1581  1.3502
35993SOL    HW219704   3.297   3.758   5.983  0.1329  0.0725 -0.4074
35994SOL     OW19705   9.844   4.644   2.858 -0.1692 -0.6638 -0.3759
35994SOL    HW119706   9.924   4.656   2.910 -0.5207 -0.7326  0.1909
35994SOL    HW219707   9.835   4.549   2.849  0.5507 -0.6364 -1.6192
35995SOL     OW19708   5.109   1.868   9.339 -0.1918 -0.4455 -0.3797
35995SOL    HW119709   5.114   1.778   9.307  0.4541 -0.3487 -0.5861
35995SOL    HW219710   5.093   1.861   9.432 -0.2685 -0.7738 -0.4197
35996SOL     OW19711   0.983   9.328   2.022  0.2716 -0.0846  0.2852
35996SOL    HW119712   1.072   9.350   1.995  0.5041 -1.0407  0.2190
35996SOL    HW219713   0.941   9.296   1.942  0.3815 -1.1437  0.6250
35997SOL     OW19714   9.881   1.185  10.878 -0.0075  0.6328 -0.1988
35997SOL    HW119715   9.955   1.163  10.935  1.7902  1.4339 -2.0718
35997SOL    HW219716   9.867   1.278  10.893 -0.2619  0.6070 -0.2780
35998SOL     OW19717   2.809   9.518   7.018  0.1080  0.0624 -0.0217
35998SOL    HW119718   2.849   9.593   6.974  2.2691 -0.1574  1.4430
35998SOL    HW219719   2.871   9.447   7.005 -0.9452 -0.9518  0.3473
35999SOL     OW19720   4.489   1.123   1.967  0.9486  0.1132  0.3581
35999SOL    HW119721   4.483   1.034   2.001  0.0243  0.3536  0.8708
35999SOL    HW219722   4.411   1.134   1.913 -0.1730  1.3054  2.0957
36000SOL     OW19723  11.024   5.629  11.748 -0.8245  0.1675 -0.4265
36000SOL    HW119724  11.098   5.594  11.797 -0.7859  0.0309 -0.5801
36000SOL    HW219725  11.057   5.710  11.709  0.3016 -1.4755 -3.1787
36001SOL     OW19726  11.916   0.491   0.679 -0.3276  0.1678 -0.8054
36001SOL    HW119727  11.901   0.400   0.704  2.4305 -0.6694 -1.8007
36001SOL    HW219728  11.878   0.542   0.750 -1.1674 -1.7649  0.2097
36002SOL     OW19729   4.616   2.219   0.062  0.3370  0.1705 -0.0538
36002SOL    HW119730   4.580   2.199  -0.025 -2.0426  2.0023  0.4169
36002SOL    HW219731   4.594   2.142   0.115 -1.4504  0.5168 -0.2269
36003SOL     OW19732   3.850   2.363  11.854 -0.2342  0.3717 -0.8046
36003SOL    HW119733   3.760   2.376  11.883 -0.1058 -1.3552  0.5302
36003SOL    HW219734   3.841   2.310  11.774 -0.3870  0.0574 -0.5787
36004SOL     OW19735   8.608  11.462   9.711 -0.0248 -0.1986  0.1581
36004SOL    HW119736   8.573  11.469   9.800  0.9062 -1.8496  0.7000
36004SOL    HW219737   8.582  11.544   9.669 -1.7366  0.0149  1.4917
36005SOL     OW19738   2.118   8.424   5.223  0.0134  0.1517 -0.1886
36005SOL    HW119739   2.042   8.377   5.188 -0.0020 -0.9265  1.2202
36005SOL    HW219740   2.175   8.356   5.258  0.5172  1.1027  0.9213
36006SOL     OW19741   4.045   7.084   0.474  0.5492 -0.2295  0.2932
36006SOL    HW119742   4.021   7.014   0.535  1.3299  0.1364  1.0436
36006SOL    HW219743   3.985   7.073   0.400  0.2698 -1.3189  0.6634
36007SOL     OW19744   4.221   0.596  10.923 -0.6944  0.2929  0.3216
36007SOL    HW119745   4.247   0.599  10.831 -0.0450  2.0652  0.5096
36007SOL    HW219746   4.303   0.585  10.971 -1.0742 -1.0823  0.6961
36008SOL     OW19747   2.792   4.105   5.772 -0.1810 -0.0455  0.1944
36008SOL    HW119748   2.726   4.071   5.831  0.6326 -1.1892  0.4768
36008SOL    HW219749   2.750   4.104   5.686 -0.7290 -0.1779  0.4594
36009SOL     OW19750  10.974   9.367   7.573 -0.0913 -0.3727  0.6975
36009SOL    HW119751  10.950   9.422   7.648 -1.3554  3.0906 -1.9428
36009SOL    HW219752  11.027   9.425   7.518  0.4692 -2.6322 -1.2871
36010SOL     OW19753   8.546   5.741   9.110 -0.6075 -0.1503  0.7242
36010SOL    HW119754   8.576   5.769   9.196  0.3859  0.3974  0.2055
36010SOL    HW219755   8.592   5.798   9.048 -1.4556 -0.4046 -0.1655
36011SOL     OW19756  10.197  11.925  10.019  0.4956 -0.0636 -0.1290
36011SOL    HW119757  10.240  11.882  10.093  1.0946  0.9326  0.1163
36011SOL    HW219758  10.265  11.934   9.953  0.2786  0.1799 -0.3231
36012SOL     OW19759  11.680   6.927   9.018 -0.3424 -0.3356 -0.2263
36012SOL    HW119760  11.599   6.896   9.059 -1.2231 -0.9386 -2.2891
36012SOL    HW219761  11.718   6.850   8.978  1.2731 -0.0402  0.6567
36013SOL     OW19762   9.119   3.843   9.683 -0.1784  0.2634  0.5507
36013SOL    HW119763   9.116   3.776   9.751  0.2774 -0.4835 -0.1551
36013SOL    HW219764   9.057   3.910   9.713  0.1169  0.0192  1.7614
36014SOL     OW19765   3.263   1.884   9.456 -0.1973  0.2754  0.2784
36014SOL    HW119766   3.285   1.795   9.483  0.8769  0.0302 -1.2594
36014SOL    HW219767   3.348   1.926   9.441 -0.7031  1.0699 -0.4620
36015SOL     OW19768   9.945   1.049   3.598 -0.1711  0.3415 -0.4339
36015SOL    HW119769   9.925   1.047   3.504  1.8303 -0.6144 -0.8819
36015SOL    HW219770   9.939   1.142   3.622 -1.3526  0.5256 -1.3238
36016SOL     OW19771   1.334   2.844   4.592  0.9625 -0.1178 -0.1383
36016SOL    HW119772   1.293   2.824   4.676 -0.7047  2.2309 -0.2912
36016SOL    HW219773   1.347   2.759   4.550  2.3692 -1.4195  2.6531
36017SOL     OW19774   4.150   1.578   5.870  1.0020 -0.4084 -0.5301
36017SOL    HW119775   4.185   1.656   5.912 -1.9324  0.9405 -0.3618
36017SOL    HW219776   4.220   1.548   5.812  1.7814  3.1599 -1.6597
36018SOL     OW19777  10.612   0.562   8.512 -0.3474 -0.0924 -0.1712
36018SOL    HW119778  10.595   0.479   8.555  1.3382 -1.1357 -1.4055
36018SOL    HW219779  10.708   0.567   8.506 -0.4258  1.7175 -0.5582
36019SOL     OW19780   2.605   0.495   4.234  0.6153  0.2362  0.3181
36019SOL    HW119781   2.642   0.458   4.154  0.9722  2.4378 -0.6111
36019SOL    HW219782   2.529   0.440   4.253  1.3880 -1.2394 -0.6572
36020SOL     OW19783   6.749   1.952  11.058 -0.0788 -0.0789  0.1775
36020SOL    HW119784   6.783   1.887  10.996  0.9081  0.6072 -0.0201
36020SOL    HW219785   6.654   1.945  11.050  0.0209 -0.1116 -1.3201
36021SOL     OW19786   3.678  10.968   6.547  0.9184  0.1582 -0.2282
36021SOL    HW119787   3.753  10.932   6.596  0.9832  0.4583 -0.1064
36021SOL    HW219788   3.692  10.938   6.457  0.4601 -0.9384  0.0505
36022SOL     OW19789   3.052   9.787   3.746  0.0759 -0.5320 -0.7600
36022SOL    HW119790   2.964   9.779   3.782 -0.0838 -0.7575 -1.2021
36022SOL    HW219791   3.089   9.862   3.792  0.5365 -1.9004  1.2312
36023SOL     OW19792   7.436   1.236   3.507  0.2305 -0.4627 -0.2053
36023SOL    HW119793   7.361   1.186   3.539 -0.9926  0.1897 -1.9048
36023SOL    HW219794   7.410   1.328   3.516 -0.1031 -0.2336 -2.7360
36024SOL     OW19795   4.610   3.591   3.781 -0.4957  0.3870  0.3172
36024SOL    HW119796   4.561   3.527   3.729  1.3310 -0.0451 -0.9752
36024SOL    HW219797   4.665   3.539   3.839 -1.9521  0.8731  2.2172
36025SOL     OW19798  11.198   5.889  10.445 -0.1575  0.5863  0.3264
36025SOL    HW119799  11.248   5.807  10.451  2.0135  1.8275  0.1015
36025SOL    HW219800  11.125   5.867  10.387  1.6588 -0.6431 -1.6888
36026SOL     OW19801   0.012  11.522   5.097 -0.6121 -0.6671 -0.5102
36026SOL    HW119802   0.032  11.542   5.188  1.7798  1.0200 -1.3178
36026SOL    HW219803   0.020  11.605   5.051  0.2454 -1.7784 -2.5441
36027SOL     OW19804   4.987  10.948   4.749  0.2214 -0.0302  0.4757
36027SOL    HW119805   4.991  11.044   4.749  4.2405 -0.0632  0.1230
36027SOL    HW219806   5.012  10.923   4.660 -2.2706 -1.5142  0.0903
36028SOL     OW19807   2.714   2.504  11.606  0.4618 -0.2126  0.3070
36028SOL    HW119808   2.745   2.571  11.667  1.8008  0.6123 -1.2137
36028SOL    HW219809   2.794   2.466  11.570 -0.3050 -0.8448 -0.7557
36029SOL     OW19810   4.830  11.331   4.533 -0.0538 -0.2221  0.2642
36029SOL    HW119811   4.769  11.344   4.461  0.1348 -1.8217 -0.2217
36029SOL    HW219812   4.889  11.406   4.528  0.0924 -0.4062 -1.3975
36030SOL     OW19813   5.842   1.725   5.321 -0.0995 -0.7953 -0.2846
36030SOL    HW119814   5.781   1.664   5.363 -1.3815  1.2697  1.0476
36030SOL    HW219815   5.822   1.810   5.361  1.9547  0.4265 -1.6712
36031SOL     OW19816   1.497   6.257  11.745  0.1473  0.4147  0.0444
36031SOL    HW119817   1.520   6.349  11.732 -2.5155  1.1035 -0.2061
36031SOL    HW219818   1.416   6.258  11.796 -1.2022 -1.6694 -1.8584
36032SOL     OW19819   7.044   3.451   6.903  0.3055  0.5059 -0.4048
36032SOL    HW119820   6.955   3.468   6.873  0.3653  0.3001 -0.6959
36032SOL    HW219821   7.047   3.357   6.919 -0.2106  0.7973  1.8030
36033SOL     OW19822   8.727   2.032   2.889 -0.0247 -0.2994  0.2585
36033SOL    HW119823   8.689   2.106   2.936  0.8778  0.9029 -0.8329
36033SOL    HW219824   8.653   1.974   2.873 -0.6630  0.0949  1.5964
36034SOL     OW19825   4.466   0.222   1.307 -0.3960  0.1995 -0.6880
36034SOL    HW119826   4.518   0.146   1.332 -0.7709  0.1276 -0.0979
36034SOL    HW219827   4.504   0.294   1.357 -0.8881  0.1346 -0.2038
36035SOL     OW19828   2.362  11.264   1.453  1.1131  0.0888  0.8175
36035SOL    HW119829   2.272  11.248   1.425  1.6414 -1.6832 -0.0328
36035SOL    HW219830   2.384  11.350   1.417 -0.6639  1.2208  2.2801
36036SOL     OW19831   1.927   2.110  10.594 -0.0418  0.1450 -0.5338
36036SOL    HW119832   1.904   2.179  10.532  0.4711  1.7726  1.0172
36036SOL    HW219833   1.911   2.149  10.680  0.2199 -1.7050  0.3942
36037SOL     OW19834   3.935   3.688   8.476 -0.3583  0.0635  0.2146
36037SOL    HW119835   3.937   3.593   8.491 -0.8967 -0.2781 -1.6696
36037SOL    HW219836   4.026   3.712   8.463 -0.1209 -0.0101  1.5459
36038SOL     OW19837   5.442   5.328   8.363 -0.0132  0.1652 -0.1448
36038SOL    HW119838   5.458   5.364   8.276  0.5552 -2.5581 -1.2826
36038SOL    HW219839   5.348   5.308   8.364  0.3998 -2.1508 -1.2119
36039SOL     OW19840   5.238   0.784   4.528  0.3990 -0.3818  0.2758
36039SOL    HW119841   5.171   0.755   4.590 -1.1950 -2.8625 -2.3483
36039SOL    HW219842   5.251   0.876   4.549 -3.4528  0.1098  1.3889
36040SOL     OW19843   7.488   1.585   8.782  0.3009 -0.4859 -0.1512
36040SOL    HW119844   7.498   1.651   8.851  2.2415 -1.2742  0.3814
36040SOL    HW219845   7.482   1.636   8.702  1.0742  0.3773  0.3200
36041SOL     OW19846   7.004   3.468   0.566  0.3619  0.1129 -0.3750
36041SOL    HW119847   7.043   3.400   0.511 -0.8348 -0.6123 -0.3743
36041SOL    HW219848   7.051   3.463   0.649 -0.1108 -1.1512 -0.1616
36042SOL     OW19849   4.245   5.916   0.836  0.0136  0.0738  0.2209
36042SOL    HW119850   4.256   6.010   0.823  0.1691  0.2082  1.2677
36042SOL    HW219851   4.229   5.906   0.930 -0.2604 -0.9222  0.0810
36043SOL     OW19852   2.392   4.121  10.690  0.1759 -0.2906 -0.3871
36043SOL    HW119853   2.417   4.077  10.771 -0.4849 -0.4058 -0.2369
36043SOL    HW219854   2.407   4.214  10.707  1.9338 -0.4585 -0.8335
36044SOL     OW19855   5.859   6.851   1.271  0.4953 -0.4114 -0.2282
36044SOL    HW119856   5.768   6.880   1.270  0.8693  0.7645 -1.1254
36044SOL    HW219857   5.905   6.916   1.324  1.1493  0.1010 -1.3798
36045SOL     OW19858   1.911   6.184   3.094 -0.1321  0.5115  0.2315
36045SOL    HW119859   1.903   6.184   2.998  1.2751  2.8578  0.0308
36045SOL    HW219860   1.988   6.130   3.112 -2.1305 -2.5233  0.3772
36046SOL     OW19861   4.044   2.506  10.565 -0.6372 -0.5803  0.1508
36046SOL    HW119862   3.977   2.512  10.633 -2.0891 -1.1261 -1.1849
36046SOL    HW219863   4.072   2.596  10.551 -1.6180 -0.2566  0.2096
36047SOL     OW19864   1.090   3.785  11.341 -0.8093 -0.1485  0.2191
36047SOL    HW119865   1.156   3.854  11.337  0.2809 -1.1834  0.0851
36047SOL    HW219866   1.007   3.833  11.349 -0.1368  1.1915 -0.4357
36048SOL     OW19867   8.721   0.756   6.692 -0.4674  0.4437  0.0106
36048SOL    HW119868   8.814   0.777   6.690 -0.0707 -1.1834 -0.4224
36048SOL    HW219869   8.695   0.751   6.600 -0.9947  0.8799  0.1272
36049SOL     OW19870  10.959   6.992   5.834 -0.1146 -0.0603  0.1797
36049SOL    HW119871  10.962   6.991   5.739  0.5178 -1.8801  0.1827
36049SOL    HW219872  10.921   7.078   5.856  1.9906  1.4412 -1.6156
36050SOL     OW19873   7.437   4.626   5.877  0.5746  0.0294  0.3933
36050SOL    HW119874   7.444   4.705   5.824  2.0906 -0.4629 -0.1786
36050SOL    HW219875   7.364   4.577   5.837 -1.3809  1.7228  1.6451
36051SOL     OW19876  11.283   0.348   0.339  0.2523 -0.5217 -0.1826
36051SOL    HW119877  11.277   0.357   0.434 -1.1266 -1.7264 -0.1164
36051SOL    HW219878  11.350   0.281   0.325 -0.6076 -1.4375  0.0226
36052SOL     OW19879   7.726   0.138   4.968 -0.1387  0.0239 -0.1804
36052SOL    HW119880   7.768   0.224   4.957 -0.2938  0.1862  0.4596
36052SOL    HW219881   7.794   0.075   4.946  0.3252  0.2926  0.4641
36053SOL     OW19882   1.147   5.003   3.277  0.0682  0.6854  0.1996
36053SOL    HW119883   1.200   4.923   3.270 -1.1752 -0.2192  0.6811
36053SOL    HW219884   1.126   5.026   3.186 -0.1149  0.0817  0.0859
36054SOL     OW19885   4.536   1.867   8.467 -0.2350  0.0785 -0.1981
36054SOL    HW119886   4.477   1.926   8.514 -1.0570  1.4445 -2.7526
36054SOL    HW219887   4.622   1.881   8.507 -1.1335 -0.0785  1.9155
36055SOL     OW19888   1.606   6.051   8.703 -0.2492 -0.7456 -0.3359
36055SOL    HW119889   1.556   5.991   8.759  0.0399 -0.0729  0.6790
36055SOL    HW219890   1.690   6.061   8.748  0.3675 -0.9414 -1.4148
36056SOL     OW19891   9.196  10.015   9.517  0.9073 -0.0160  0.2624
36056SOL    HW119892   9.233   9.934   9.482 -1.9769 -1.6054  0.5428
36056SOL    HW219893   9.104   9.994   9.534 -0.2908  3.6673 -0.7012
36057SOL     OW19894   7.252   9.190   7.108 -0.1169 -0.2429 -0.5462
36057SOL    HW119895   7.272   9.255   7.176 -0.4098 -0.4533 -0.2562
36057SOL    HW219896   7.310   9.117   7.128  0.5770  0.1221 -1.1728
36058SOL     OW19897  11.618   9.249   7.411  0.2220  0.1546 -0.8946
36058SOL    HW119898  11.529   9.230   7.382  0.9177 -0.9055 -2.4894
36058SOL    HW219899  11.641   9.177   7.469  0.8646 -0.9429 -2.4445
36059SOL     OW19900   8.784  11.538   3.352 -0.0103 -0.5520 -0.3912
36059SOL    HW119901   8.847  11.502   3.413  1.4145  3.1743  0.5444
36059SOL    HW219902   8.820  11.518   3.265  0.0306 -2.3505  0.0060
36060SOL     OW19903   7.300   3.046   7.000  0.0082  0.4880  0.2463
36060SOL    HW119904   7.380   3.004   7.033  0.0757  0.1881 -0.2981
36060SOL    HW219905   7.298   3.024   6.907  0.3637  2.1999 -0.2078
36061SOL     OW19906   2.725   4.702   7.944 -0.3441 -0.2794  0.0750
36061SOL    HW119907   2.743   4.785   7.988  0.4670  0.3512 -1.3933
36061SOL    HW219908   2.775   4.637   7.994 -0.7220  0.1492  1.0380
36062SOL     OW19909   1.458   3.767   2.527 -0.8051  0.0819  0.1889
36062SOL    HW119910   1.508   3.827   2.582 -0.7199 -0.7206  0.9907
36062SOL    HW219911   1.443   3.817   2.446  0.7554  0.5513  0.1561
36063SOL     OW19912  11.713   6.362  10.831 -0.1227  0.3036  0.0066
36063SOL    HW119913  11.715   6.304  10.755  1.1996 -0.6120  0.7019
36063SOL    HW219914  11.780   6.428  10.812  0.0152  0.2345  0.2584
36064SOL     OW19915   6.704   8.249   3.076  0.0283  0.0860 -0.3389
36064SOL    HW119916   6.653   8.168   3.078 -1.7924  1.1141 -1.6100
36064SOL    HW219917   6.750   8.251   3.160 -3.9130  0.1820  2.0694
36065SOL     OW19918   7.864   2.695  10.065 -0.0950  0.0856  0.2034
36065SOL    HW119919   7.810   2.735  10.133 -0.6538 -1.0032  0.4154
36065SOL    HW219920   7.906   2.769  10.021 -0.6307  0.8627  0.9768
36066SOL     OW19921  10.160   1.268   0.669  0.0843 -0.2912  0.1069
36066SOL    HW119922  10.203   1.197   0.717 -0.1142 -1.0345 -0.8054
36066SOL    HW219923  10.073   1.273   0.708  0.1443 -0.4460  0.2647
36067SOL     OW19924   8.706  11.631  10.211 -0.3218 -0.2240  0.1003
36067SOL    HW119925   8.652  11.644  10.289 -0.7136  0.7094 -0.3112
36067SOL    HW219926   8.776  11.572  10.240 -0.7856 -0.3568  0.9973
36068SOL     OW19927   3.464   4.888   0.531 -0.4245  0.0440 -0.5449
36068SOL    HW119928   3.498   4.976   0.520 -1.2910  0.5241  0.4204
36068SOL    HW219929   3.479   4.845   0.447  0.9517  0.7695 -0.6892
36069SOL     OW19930   9.703   9.590   5.335 -0.4475 -0.2295 -0.0105
36069SOL    HW119931   9.744   9.506   5.316 -2.0846 -1.1460  0.3602
36069SOL    HW219932   9.771   9.655   5.314  0.6392 -1.5920 -0.8888
36070SOL     OW19933  11.268   2.206   7.130 -0.0201  0.0879  0.3170
36070SOL    HW119934  11.194   2.257   7.163 -0.3470  0.2018 -0.5919
36070SOL    HW219935  11.242   2.115   7.145 -0.4053  0.1229 -0.1192
36071SOL     OW19936   1.080   3.952   9.876  0.1231 -0.1303  0.2659
36071SOL    HW119937   1.064   3.908   9.959  1.9119  0.0380  0.7312
36071SOL    HW219938   1.009   4.016   9.869 -0.3835 -0.5487  1.3654
36072SOL     OW19939   1.786   9.642   8.713 -0.7564 -0.4625 -0.4961
36072SOL    HW119940   1.839   9.657   8.635 -1.3218 -0.3977 -0.8768
36072SOL    HW219941   1.713   9.587   8.682 -0.6855 -0.9053  0.1062
36073SOL     OW19942   7.482  10.148   6.361 -0.5528  0.2904 -0.0430
36073SOL    HW119943   7.567  10.106   6.375 -0.5335 -0.5588 -2.2718
36073SOL    HW219944   7.418  10.080   6.382 -0.5470 -0.4900 -2.3188
36074SOL     OW19945   9.864   1.791   9.975  0.3035 -0.1403 -0.6504
36074SOL    HW119946   9.828   1.880   9.977  1.3465  0.3295  2.5690
36074SOL    HW219947   9.863   1.768   9.882 -0.0951  3.1835 -1.6329
36075SOL     OW19948   7.875   8.720   2.949  0.0997  0.4436  0.4384
36075SOL    HW119949   7.845   8.639   2.907 -2.2203  1.2403  0.4202
36075SOL    HW219950   7.855   8.789   2.886  0.8247  1.1753  0.9883
36076SOL     OW19951   9.980   9.310   4.337  0.1646 -1.1144  0.4335
36076SOL    HW119952   9.967   9.353   4.422  1.4385  0.0134  0.0825
36076SOL    HW219953   9.989   9.217   4.359 -1.3152 -1.0905  1.3336
36077SOL     OW19954   3.550   4.561  11.426  0.1648  0.2307 -0.5027
36077SOL    HW119955   3.492   4.617  11.478  1.3283  0.2657  0.8059
36077SOL    HW219956   3.548   4.599  11.338  0.0901  1.6656  0.1042
36078SOL     OW19957  10.075   4.609  10.396 -0.0662  0.5736  0.0352
36078SOL    HW119958  10.157   4.579  10.434 -0.2917 -0.8953 -0.6066
36078SOL    HW219959  10.070   4.702  10.422  0.3533 -0.0336  2.5629
36079SOL     OW19960   9.713   9.315   7.589  0.4061 -0.1068 -0.4385
36079SOL    HW119961   9.638   9.327   7.648 -0.1643  3.1017 -1.5890
36079SOL    HW219962   9.698   9.379   7.519  1.9649 -2.4815 -3.1550
36080SOL     OW19963   7.350   7.430   2.108  0.0534  0.9185  0.1441
36080SOL    HW119964   7.357   7.348   2.157 -0.4113  0.0545 -1.1569
36080SOL    HW219965   7.288   7.410   2.037  1.0174  1.9661 -1.0400
36081SOL     OW19966   2.579  11.755  11.529 -0.3070  0.8169 -0.0482
36081SOL    HW119967   2.554  11.834  11.481  0.2975 -0.0788 -1.9186
36081SOL    HW219968   2.517  11.688  11.499  1.2931 -0.2458 -1.1267
36082SOL     OW19969   3.699   1.595  11.866 -0.5118 -0.0607  0.5203
36082SOL    HW119970   3.749   1.520  11.897 -0.0013 -0.3854 -1.0197
36082SOL    HW219971   3.722   1.603  11.774 -1.4969  1.2452  0.3594
36083SOL     OW19972   3.452   1.272   2.032 -0.0220 -0.1501  0.3679
36083SOL    HW119973   3.397   1.348   2.051  0.9480  0.5096  0.6169
36083SOL    HW219974   3.391   1.199   2.027 -0.9762  0.6370  0.1572
36084SOL     OW19975   7.801  10.482   3.088 -0.5432 -0.0376 -0.4071
36084SOL    HW119976   7.896  10.492   3.077 -0.0620 -1.2907  1.8347
36084SOL    HW219977   7.785  10.389   3.070 -0.9812 -0.2788  1.0813
36085SOL     OW19978  10.941   5.248   4.933 -0.3701 -0.1295 -0.1816
36085SOL    HW119979  10.892   5.277   5.010 -2.6716 -0.7595 -1.3084
36085SOL    HW219980  10.955   5.155   4.947 -0.3763 -0.1467 -0.2839
36086SOL     OW19981   6.782   6.556  11.637  0.1961  0.2100  0.1466
36086SOL    HW119982   6.715   6.604  11.686  2.0693  3.7930 -0.4854
36086SOL    HW219983   6.769   6.583  11.546  1.5187 -0.2683 -0.2107
36087SOL     OW19984  10.426  10.512  11.381 -0.1309  0.4342 -0.2911
36087SOL    HW119985  10.424  10.595  11.428  1.1652 -0.6065  1.7536
36087SOL    HW219986  10.337  10.500  11.349 -0.5606  2.1615  0.1697
36088SOL     OW19987   8.968   7.837   7.408 -0.3441  0.3063 -0.7665
36088SOL    HW119988   8.882   7.880   7.409  0.1308  1.2796  0.2553
36088SOL    HW219989   9.017   7.882   7.339  0.0072  1.1534  0.0129
36089SOL     OW19990   9.851   6.178   7.036 -0.2426 -0.1097 -0.6642
36089SOL    HW119991   9.777   6.235   7.014 -1.4403 -1.9178 -1.5846
36089SOL    HW219992   9.817   6.121   7.104  1.0666  0.4871  0.5354
36090SOL     OW19993   1.949   9.510   0.090 -0.0598  0.2269  0.1182
36090SOL    HW119994   2.018   9.573   0.113 -0.1733  0.3103  0.2282
36090SOL    HW219995   1.988   9.424   0.109  0.9056  0.1114 -2.0736
36091SOL     OW19996   4.074   7.844   7.937  0.0850  0.1591  0.6466
36091SOL    HW119997   4.003   7.894   7.977 -0.1304  0.2791  0.1227
36091SOL    HW219998   4.082   7.766   7.992 -1.3610 -0.5186 -0.0487
36092SOL     OW19999  11.677   5.190   9.986 -0.0211  0.3386 -0.0498
36092SOL    HW120000  11.598   5.209   9.935  0.1103  1.3091  0.0873
36092SOL    HW220001  11.644   5.155  10.069 -0.2326 -1.4591 -0.8330
36093SOL     OW20002   6.012   0.149   9.260  0.0786  0.1650 -0.3504
36093SOL    HW120003   6.065   0.227   9.241  1.2518 -0.5821 -0.2543
36093SOL    HW220004   6.058   0.078   9.216  0.8924 -1.0282  2.2332
36094SOL     OW20005   7.399   4.787   6.767  0.2836  0.3384 -0.2075
36094SOL    HW120006   7.316   4.745   6.785  1.0469 -0.3363  1.9985
36094SOL    HW220007   7.452   4.719   6.727 -0.2696  0.8567 -1.9161
36095SOL     OW20008  11.432   5.091   2.386  0.2270 -0.3537 -0.5171
36095SOL    HW120009  11.436   5.186   2.376  0.6251 -0.3622 -0.4852
36095SOL    HW220010  11.346   5.066   2.354  0.2590 -0.0212 -0.8602
36096SOL     OW20011   5.411  10.751  10.363  0.2427 -0.1474  0.0948
36096SOL    HW120012   5.330  10.702  10.348  0.8744 -1.0087 -0.6287
36096SOL    HW220013   5.461  10.739  10.282  0.6970  1.1520  0.1689
36097SOL     OW20014   0.524   4.451   6.186 -0.4098  0.0280 -0.2110
36097SOL    HW120015   0.616   4.470   6.204  0.0026  0.2036 -2.2321
36097SOL    HW220016   0.518   4.356   6.193  0.3572 -0.1618 -1.6687
36098SOL     OW20017  10.611  11.405   8.476  0.5934 -0.4375 -0.1510
36098SOL    HW120018  10.694  11.443   8.506  0.6806  0.4146 -1.3969
36098SOL    HW220019  10.557  11.481   8.453 -0.3447 -0.9999  0.1153
36099SOL     OW20020   2.649   4.057  10.015 -0.2536 -0.1574 -0.3218
36099SOL    HW120021   2.613   4.144  10.030 -1.1843 -0.4689 -0.6457
36099SOL    HW220022   2.732   4.072   9.972 -0.7083  0.5598 -0.9644
36100SOL     OW20023   2.167   6.114   5.885 -0.0400  0.2370 -0.2836
36100SOL    HW120024   2.132   6.028   5.908 -0.9123  0.7489  0.3483
36100SOL    HW220025   2.250   6.119   5.932  0.1747 -0.3857 -0.5853
36101SOL     OW20026  11.812   1.040   2.018 -0.0726 -0.2179 -0.3602
36101SOL    HW120027  11.897   1.080   2.000 -0.0167  0.2581  0.8928
36101SOL    HW220028  11.833   0.965   2.074 -0.4928  0.0233  0.1219
36102SOL     OW20029   6.229  10.195   9.809  0.1979 -0.1854  0.1472
36102SOL    HW120030   6.169  10.157   9.874  0.2915 -1.3027 -0.3831
36102SOL    HW220031   6.314  10.158   9.830  0.9149  2.0344  1.3949
36103SOL     OW20032   0.857   1.459   8.161  0.4092 -0.0399 -0.6831
36103SOL    HW120033   0.803   1.513   8.104 -0.3154 -1.0464 -0.9809
36103SOL    HW220034   0.924   1.519   8.195  0.0195  0.8804 -1.4974
36104SOL     OW20035   0.751   6.438   4.879  0.3993 -0.2095 -0.1334
36104SOL    HW120036   0.814   6.370   4.900 -0.2968 -0.6352  0.6391
36104SOL    HW220037   0.773   6.465   4.790  0.1879 -2.0134 -0.7649
36105SOL     OW20038   5.759  11.002   1.225  0.0110  0.1240  0.4973
36105SOL    HW120039   5.721  10.952   1.153 -2.3808 -0.1871  1.8306
36105SOL    HW220040   5.771  10.938   1.295  2.1301  0.4468  0.4909
36106SOL     OW20041   4.968   5.307  10.566 -0.3036  0.1794 -0.0307
36106SOL    HW120042   5.035   5.289  10.500 -0.3020 -0.1482  0.0632
36106SOL    HW220043   4.926   5.388  10.535  0.8376  0.9880  0.4738
36107SOL     OW20044   8.421   9.647   7.842  0.3685  0.3752 -0.1876
36107SOL    HW120045   8.510   9.681   7.831  1.5138 -3.0289 -4.3693
36107SOL    HW220046   8.434   9.561   7.883 -0.7426 -0.7284 -2.0240
36108SOL     OW20047   4.158   6.657   1.959  0.2985 -0.2170 -0.4446
36108SOL    HW120048   4.242   6.612   1.949  0.5661  0.2403 -0.3005
36108SOL    HW220049   4.121   6.619   2.039  1.1889  0.8289  0.5090
36109SOL     OW20050   3.416  11.214   5.069 -0.0754 -0.0109 -0.6082
36109SOL    HW120051   3.370  11.164   5.137  1.1171  1.4487  1.3795
36109SOL    HW220052   3.377  11.184   4.987 -0.6968 -2.8203  0.5893
36110SOL     OW20053   7.896   8.539  11.729  0.3836 -0.9091 -0.2594
36110SOL    HW120054   7.920   8.583  11.809 -0.0341  0.6297 -0.9483
36110SOL    HW220055   7.942   8.586  11.660  0.7775 -2.2308 -0.9456
36111SOL     OW20056   4.887   9.867  10.658  0.2796 -0.5458  0.0063
36111SOL    HW120057   4.885   9.781  10.699 -1.2144  0.2941  1.8597
36111SOL    HW220058   4.970   9.905  10.687  1.0831 -1.4224 -1.0589
36112SOL     OW20059   0.728   6.595  10.440 -0.0052 -0.2276  0.3429
36112SOL    HW120060   0.804   6.613  10.384  0.7720 -1.4609  0.9600
36112SOL    HW220061   0.765   6.578  10.526 -1.0858  0.2146  0.9225
36113SOL     OW20062   8.433   4.809   6.181  0.0366 -0.3804 -0.0629
36113SOL    HW120063   8.339   4.817   6.191 -0.3733 -0.5423 -2.9999
36113SOL    HW220064   8.466   4.899   6.194 -0.4413 -0.3596  1.1672
36114SOL     OW20065   4.620  10.021   4.787 -0.1960  0.2216 -0.6059
36114SOL    HW120066   4.578   9.987   4.709 -0.4516  0.8467 -0.7469
36114SOL    HW220067   4.600  10.115   4.787  0.5273  0.3878 -0.2544
36115SOL     OW20068   7.476  11.492   4.732 -0.0896 -0.0852 -0.2601
36115SOL    HW120069   7.439  11.425   4.675  0.3113  0.4600 -1.1849
36115SOL    HW220070   7.402  11.550   4.752 -0.6594 -1.2814  1.3127
36116SOL     OW20071  10.544   9.115   1.553  0.2238  0.0097  0.0537
36116SOL    HW120072  10.547   9.071   1.637 -0.3860 -1.0721 -0.4680
36116SOL    HW220073  10.633   9.148   1.540  0.7054 -1.0630  0.4753
36117SOL     OW20074   5.710   3.939   0.783  0.2944  0.3555  0.1479
36117SOL    HW120075   5.666   3.955   0.866 -0.6300  0.1959 -0.3089
36117SOL    HW220076   5.803   3.956   0.803  0.2343 -0.6506  1.4652
36118SOL     OW20077   5.596   1.492   9.042 -0.0484  0.3948  0.0792
36118SOL    HW120078   5.676   1.440   9.035  0.4950  1.4667 -3.2720
36118SOL    HW220079   5.622   1.568   9.094  1.3077  0.9889 -1.3969
36119SOL     OW20080   4.737   5.662   5.106 -0.6788 -0.6615 -0.6004
36119SOL    HW120081   4.699   5.711   5.178  0.4133 -1.8316  0.8313
36119SOL    HW220082   4.772   5.729   5.047 -0.7991  0.3030  0.3890
36120SOL     OW20083   3.629   0.605   6.022  0.7352 -0.0563  0.2926
36120SOL    HW120084   3.628   0.544   6.096 -0.8698  0.8351  1.0640
36120SOL    HW220085   3.594   0.555   5.948 -0.4749 -0.1363  0.8958
36121SOL     OW20086   3.902   2.002   7.930 -0.5232 -0.6492 -0.5609
36121SOL    HW120087   3.820   2.026   7.888  0.6428  0.9754 -2.0177
36121SOL    HW220088   3.968   2.057   7.888  1.2807 -1.6842  0.7800
36122SOL     OW20089   7.854  10.141   3.967 -0.2670  0.2775  0.4593
36122SOL    HW120090   7.806  10.217   4.001 -1.5930  0.2805 -1.2582
36122SOL    HW220091   7.787  10.074   3.956  0.6588 -0.7033  0.7184
36123SOL     OW20092   0.169   2.445   3.118 -0.2905 -0.2907  0.3079
36123SOL    HW120093   0.158   2.379   3.187  0.7368 -1.3183 -0.4689
36123SOL    HW220094   0.155   2.396   3.037 -2.5556  1.1064 -0.2515
36124SOL     OW20095   5.685   1.405  11.595  0.3200  0.2915 -0.3192
36124SOL    HW120096   5.749   1.341  11.624  1.4632  0.4675 -2.2988
36124SOL    HW220097   5.683   1.397  11.500 -1.2542  1.5759 -0.4528
36125SOL     OW20098   2.229   1.222   1.694 -0.2221  0.6001 -0.0779
36125SOL    HW120099   2.251   1.273   1.616 -0.8025 -0.4470 -0.9614
36125SOL    HW220100   2.200   1.138   1.660 -2.2091  0.7074  1.1730
36126SOL     OW20101   5.747   6.281   2.342  0.1924 -0.7822  0.1477
36126SOL    HW120102   5.726   6.374   2.337 -0.4001 -0.9386 -0.3730
36126SOL    HW220103   5.795   6.263   2.261  0.1405 -0.9745  0.1593
36127SOL     OW20104  11.504   5.622  11.890 -0.2684  0.3653  0.5758
36127SOL    HW120105  11.538   5.664  11.811  0.3304 -0.0592  0.6070
36127SOL    HW220106  11.412   5.604  11.869 -0.0693  0.0977 -0.0948
36128SOL     OW20107   9.074   0.758   2.111  0.3587  0.0597 -0.6192
36128SOL    HW120108   9.008   0.728   2.049  0.5613  1.8698 -1.7842
36128SOL    HW220109   9.106   0.840   2.074  1.4557  0.5151  1.2206
36129SOL     OW20110   5.448   6.269   5.135  0.1596  0.3490 -0.0567
36129SOL    HW120111   5.533   6.312   5.134  0.5620  0.0313  3.9592
36129SOL    HW220112   5.466   6.177   5.120  0.7927  0.0885  2.0092
36130SOL     OW20113   6.020  10.413   6.978  0.5230  0.0468  0.2041
36130SOL    HW120114   6.051  10.322   6.986  0.4914 -0.0284 -0.4722
36130SOL    HW220115   6.101  10.465   6.975  0.5378  0.0845  0.9961
36131SOL     OW20116   6.210   8.442   3.715 -0.0594  0.4094  0.2818
36131SOL    HW120117   6.287   8.499   3.713  0.0312  0.2884  0.2591
36131SOL    HW220118   6.175   8.446   3.626  0.3870 -0.1620  0.0747
36132SOL     OW20119   7.010  10.531   6.526  0.2915  0.3658  0.1918
36132SOL    HW120120   6.940  10.496   6.581 -1.9062  0.8441 -2.1142
36132SOL    HW220121   7.003  10.482   6.444  2.0754  1.0887 -0.4509
36133SOL     OW20122   2.848   1.646   1.826  0.1021 -0.0656  0.4155
36133SOL    HW120123   2.820   1.563   1.789  1.0315 -0.2199  0.0420
36133SOL    HW220124   2.853   1.706   1.752  1.1947 -0.1663  0.3916
36134SOL     OW20125   1.151   2.392   8.225  0.0727 -0.2348 -0.1657
36134SOL    HW120126   1.061   2.415   8.248 -0.4642 -1.4640 -0.9204
36134SOL    HW220127   1.196   2.476   8.215 -1.4168  0.4599 -1.3965
36135SOL     OW20128   9.672   7.544   7.676 -0.9313  0.5760 -0.2104
36135SOL    HW120129   9.649   7.629   7.637  2.5861  2.1312  0.7251
36135SOL    HW220130   9.657   7.556   7.769  0.5070  0.5613  0.0411
36136SOL     OW20131  11.411   6.945  11.702 -0.7341 -0.1186  0.3248
36136SOL    HW120132  11.396   6.937  11.607  0.1134 -1.3706  0.2711
36136SOL    HW220133  11.370   6.868  11.739 -2.8489  1.3671  1.2583
36137SOL     OW20134   4.701   7.310   8.047 -0.2145  0.3143 -0.0186
36137SOL    HW120135   4.628   7.370   8.036 -0.7587 -0.4906 -1.0047
36137SOL    HW220136   4.686   7.241   7.982  1.6173  0.3185 -0.5021
36138SOL     OW20137   8.518   2.373   1.065  0.5662  0.2060  0.4136
36138SOL    HW120138   8.597   2.387   1.012 -0.2712  1.0577 -0.6454
36138SOL    HW220139   8.520   2.279   1.084  0.7858 -0.1953 -1.3447
36139SOL     OW20140   8.184  11.096   9.172 -0.5369  0.0779 -0.1977
36139SOL    HW120141   8.134  11.052   9.103 -1.2052 -0.7425  0.7870
36139SOL    HW220142   8.137  11.076   9.253  0.7248  0.2903  0.6131
36140SOL     OW20143  10.389   5.085   6.831  0.3483 -0.4207  0.1538
36140SOL    HW120144  10.375   5.104   6.738 -1.3475  1.2223  0.6779
36140SOL    HW220145  10.408   4.991   6.834  0.1456 -0.5638 -1.8047
36141SOL     OW20146   4.670   2.598   8.627 -0.2315 -0.0792  0.3839
36141SOL    HW120147   4.753   2.613   8.673 -0.1237 -2.0673  0.8846
36141SOL    HW220148   4.604   2.599   8.696 -0.2247 -1.7244  0.4360
36142SOL     OW20149   3.513   9.628   6.205 -0.1830  0.5677 -0.0449
36142SOL    HW120150   3.530   9.582   6.287 -0.0998  2.8780  1.3299
36142SOL    HW220151   3.592   9.678   6.188 -0.6237  1.0027 -0.9244
36143SOL     OW20152   2.004   9.015  11.473 -0.0033  0.4769 -0.0820
36143SOL    HW120153   1.937   9.077  11.444 -1.0428 -0.2856  0.6178
36143SOL    HW220154   1.959   8.959  11.535  1.1924 -0.3314  0.0827
36144SOL     OW20155   2.174   3.614   9.671 -0.2171  0.3296  0.0565
36144SOL    HW120156   2.268   3.613   9.657 -0.2625 -2.5776 -0.7727
36144SOL    HW220157   2.149   3.522   9.677 -2.9863  0.9925  0.5729
36145SOL     OW20158  11.155   0.004   9.140  0.1776 -0.2632  0.2980
36145SOL    HW120159  11.128   0.077   9.084  0.5424  0.5159  1.1131
36145SOL    HW220160  11.127  -0.075   9.092 -1.2159  0.4255 -0.0836
36146SOL     OW20161   9.765  10.427  11.146  0.2753 -0.3024  0.1122
36146SOL    HW120162   9.785  10.339  11.177 -0.6102 -0.7965 -0.6644
36146SOL    HW220163   9.810  10.485  11.207 -0.2897 -1.2657  1.4969
36147SOL     OW20164   3.671  10.439   3.782 -0.2444 -0.5473  0.7897
36147SOL    HW120165   3.639  10.485   3.859 -0.4082  0.1419  0.3122
36147SOL    HW220166   3.625  10.355   3.783 -1.1595 -0.0511  0.7786
36148SOL     OW20167   7.205  11.473   7.364  0.7051  0.3332 -0.3103
36148SOL    HW120168   7.182  11.403   7.302 -3.8312  1.1542  0.0808
36148SOL    HW220169   7.190  11.554   7.315  0.6922  1.0092  0.7762
36149SOL     OW20170   6.279   6.185   0.568 -0.0768 -0.3181 -0.2014
36149SOL    HW120171   6.223   6.263   0.572 -0.9601 -0.8768 -1.0786
36149SOL    HW220172   6.263   6.139   0.650  1.3105  0.9753  0.8283
36150SOL     OW20173   5.880   4.787   7.895  0.1309  0.5868  0.1073
36150SOL    HW120174   5.880   4.691   7.900  1.0285  0.6594  2.5097
36150SOL    HW220175   5.813   4.815   7.958 -0.7393  1.5658 -1.1903
36151SOL     OW20176   1.751   1.448   7.604  0.5144 -0.3237  0.0670
36151SOL    HW120177   1.696   1.506   7.656  1.4230  1.7720 -1.1285
36151SOL    HW220178   1.801   1.398   7.668 -0.5500 -0.0169  1.1681
36152SOL     OW20179  10.877   5.487   3.722 -0.2805 -0.5150  0.1602
36152SOL    HW120180  10.921   5.571   3.710 -2.5343  0.8215  0.6876
36152SOL    HW220181  10.908   5.433   3.650  1.0744  0.8301 -0.3096
36153SOL     OW20182   4.689   4.631  10.284 -0.2485 -0.6639 -0.0141
36153SOL    HW120183   4.776   4.651  10.247 -0.6059  2.0906  0.4180
36153SOL    HW220184   4.693   4.538  10.305  2.3219 -0.8028 -0.7378
36154SOL     OW20185   9.913   9.526   5.105  0.8742  0.1552  0.0617
36154SOL    HW120186   9.927   9.512   5.011 -2.9902  0.0417 -0.6664
36154SOL    HW220187   9.958   9.609   5.123 -0.6788  1.7654 -2.6953
36155SOL     OW20188   7.109   9.724   3.031  0.6591  0.1518 -0.6663
36155SOL    HW120189   7.185   9.693   2.983  1.1800  1.7634 -0.9410
36155SOL    HW220190   7.137   9.807   3.069 -0.4631 -0.0016  0.5633
36156SOL     OW20191   4.840   9.374   7.660  0.1970 -0.1485  0.3711
36156SOL    HW120192   4.831   9.370   7.564  0.2461 -0.5220  0.3808
36156SOL    HW220193   4.752   9.360   7.693  0.1163  0.3465  0.3757
36157SOL     OW20194   7.220   4.806  10.787 -0.4527  0.4940 -0.4188
36157SOL    HW120195   7.284   4.861  10.830  0.4139 -0.9280  0.1806
36157SOL    HW220196   7.161   4.778  10.857  0.7351 -1.5118 -0.1194
36158SOL     OW20197   1.775   4.757   8.204 -0.6822  0.0370 -0.0644
36158SOL    HW120198   1.721   4.804   8.140  0.5178  0.1212 -1.0639
36158SOL    HW220199   1.864   4.766   8.170  0.0249  0.2853  1.7689
36159SOL     OW20200   0.293   3.579   2.017 -0.0734  0.2677  0.2728
36159SOL    HW120201   0.201   3.600   2.033 -0.3520  0.5207 -1.3900
36159SOL    HW220202   0.295   3.485   2.003 -0.4394  0.4889 -1.5400
36160SOL     OW20203   1.461   6.692   8.058 -0.4542  1.1478  0.2266
36160SOL    HW120204   1.387   6.631   8.051 -1.0921  1.9172  0.0746
36160SOL    HW220205   1.532   6.649   8.011 -0.1340 -0.5563  2.0943
36161SOL     OW20206  10.936   7.933   1.541  0.7357 -0.5336  0.2755
36161SOL    HW120207  11.003   7.880   1.500 -0.8408 -1.0316 -1.8169
36161SOL    HW220208  10.893   7.874   1.603  0.1226 -1.2351 -0.7847
36162SOL     OW20209   4.555   2.384   3.422 -0.3814 -0.5015  0.4428
36162SOL    HW120210   4.515   2.301   3.400 -0.5160 -0.7851  1.6954
36162SOL    HW220211   4.518   2.446   3.360 -2.3718 -0.8592  1.2101
36163SOL     OW20212   6.134   5.270   2.752  0.2313 -0.6538 -0.4230
36163SOL    HW120213   6.187   5.277   2.831 -0.8548  2.2657  0.1647
36163SOL    HW220214   6.051   5.233   2.782 -0.2564  0.6472 -0.0892
36164SOL     OW20215   0.629   3.443  11.688  0.0342  0.0251 -0.1809
36164SOL    HW120216   0.717   3.406  11.695 -0.3866 -0.9986 -0.2625
36164SOL    HW220217   0.616   3.456  11.594  0.5752  1.4065 -0.1039
36165SOL     OW20218   3.710   6.987   3.807 -0.2762  0.0728  0.0375
36165SOL    HW120219   3.648   6.955   3.873 -0.4538 -0.5031 -0.4002
36165SOL    HW220220   3.657   7.043   3.750  0.1383  1.6235  1.1003
36166SOL     OW20221   3.335   0.741  11.134  0.2270 -0.2880  0.0469
36166SOL    HW120222   3.301   0.720  11.221  0.0167 -0.7460 -0.1428
36166SOL    HW220223   3.257   0.749  11.079  0.2270  1.8122  0.2652
36167SOL     OW20224   2.738   0.741  10.411  0.0744  0.5906 -0.2129
36167SOL    HW120225   2.673   0.763  10.478 -0.1508 -0.6591  0.0018
36167SOL    HW220226   2.754   0.647  10.422  0.4001  0.4587 -1.5931
36168SOL     OW20227   3.950   8.690  11.827  0.2579  0.1216 -0.6505
36168SOL    HW120228   4.041   8.661  11.823 -0.1662 -1.1763 -1.9916
36168SOL    HW220229   3.954   8.785  11.819  1.4243 -0.0468 -3.1717
36169SOL     OW20230   3.407   6.425   1.876  0.1180  1.0351  0.4272
36169SOL    HW120231   3.433   6.359   1.941 -1.6635  0.0943  0.2515
36169SOL    HW220232   3.354   6.488   1.924 -0.5987  0.7348  0.0453
36170SOL     OW20233   8.479   5.489   9.556  0.3226 -0.3231 -0.3556
36170SOL    HW120234   8.453   5.462   9.644  1.6891  0.0638  0.1968
36170SOL    HW220235   8.398   5.488   9.506 -0.5121 -0.4208  0.9430
36171SOL     OW20236   9.959   6.413   7.692 -0.7048  0.2260 -0.1442
36171SOL    HW120237  10.041   6.462   7.699  0.1479 -1.2309  0.7020
36171SOL    HW220238   9.909   6.459   7.625  0.7044  1.3158 -0.4962
36172SOL     OW20239   3.127   4.706   5.624  0.0363 -0.1102 -0.0845
36172SOL    HW120240   3.205   4.673   5.668  0.3298 -0.7258 -1.0387
36172SOL    HW220241   3.061   4.711   5.693  0.3721 -1.4435  0.3718
36173SOL     OW20242   2.612  11.856   4.953 -0.0029  0.1712 -0.9359
36173SOL    HW120243   2.531  11.823   4.914 -0.5608  1.1472 -0.6472
36173SOL    HW220244   2.617  11.813   5.038  0.9921 -1.6300 -1.8290
36174SOL     OW20245   8.490  10.100   0.018 -0.0605  0.4134 -0.1011
36174SOL    HW120246   8.419  10.042  -0.008 -2.1283  1.6226  2.4838
36174SOL    HW220247   8.509  10.152  -0.061 -2.5624  0.5571 -0.6844
36175SOL     OW20248   5.147  11.549   4.470 -0.1660  0.4628  0.1813
36175SOL    HW120249   5.180  11.546   4.559  0.0238  0.3914  0.1090
36175SOL    HW220250   5.058  11.585   4.478 -0.4786 -0.3663  0.4864
36176SOL     OW20251   8.553   4.273   8.984  0.0405  0.1906 -0.3040
36176SOL    HW120252   8.502   4.317   8.916  1.7696  0.5803 -1.4135
36176SOL    HW220253   8.500   4.197   9.008 -0.9328  0.4254 -1.6005
36177SOL     OW20254   4.015  11.090   4.073 -0.3776  0.3844 -0.0618
36177SOL    HW120255   4.067  11.031   4.128  0.3091  0.3256 -0.7603
36177SOL    HW220256   3.951  11.033   4.030  0.6399  0.0259 -1.1642
36178SOL     OW20257   0.348   4.643   4.362 -0.5207  0.8781 -0.0817
36178SOL    HW120258   0.406   4.587   4.309  1.7628  2.2136  0.8237
36178SOL    HW220259   0.261   4.605   4.351  0.3757 -0.8056 -2.1685
36179SOL     OW20260   2.614   2.762  10.174 -0.3746 -0.0058 -1.0026
36179SOL    HW120261   2.523   2.770  10.146  0.0827  1.5194 -2.1341
36179SOL    HW220262   2.665   2.789  10.098  1.0060  0.1121 -0.0592
36180SOL     OW20263  10.094   7.918   9.018  0.0071 -0.4519 -0.0180
36180SOL    HW120264  10.103   7.908   8.923 -0.4221 -0.2790 -0.0800
36180SOL    HW220265  10.059   7.833   9.047  2.2193 -1.3177  0.2944
36181SOL     OW20266   8.187  10.384   5.183 -0.3454 -0.0704  0.3500
36181SOL    HW120267   8.205  10.426   5.267 -0.4947  0.8018 -0.0423
36181SOL    HW220268   8.249  10.425   5.122 -2.0713  1.3491 -0.5481
36182SOL     OW20269   4.878   7.248  11.630 -0.1403  0.3615 -0.0780
36182SOL    HW120270   4.905   7.315  11.692 -1.2915  0.4328  0.3674
36182SOL    HW220271   4.786   7.232  11.650 -0.5414  0.3715 -1.7588
36183SOL     OW20272   6.419  10.891   2.623  0.1857 -0.0450 -0.6707
36183SOL    HW120273   6.360  10.951   2.668 -2.4039 -3.0810  0.3123
36183SOL    HW220274   6.489  10.874   2.686 -2.4660 -2.8603  1.8300
36184SOL     OW20275  10.337  10.421   6.476 -0.2213 -0.2700 -0.3385
36184SOL    HW120276  10.403  10.352   6.489 -0.9976 -1.0160 -0.2481
36184SOL    HW220277  10.380  10.501   6.504 -0.2235 -1.1158  2.4245
36185SOL     OW20278   1.172   0.885  10.975 -0.4709 -0.3667 -0.1488
36185SOL    HW120279   1.259   0.923  10.963 -0.7067 -0.3965 -2.3096
36185SOL    HW220280   1.137   0.930  11.052  0.7797  0.9147 -0.2795
36186SOL     OW20281  10.590   0.731   3.152  0.2217  0.5973 -0.1295
36186SOL    HW120282  10.581   0.746   3.247  0.8182 -2.1663  0.4463
36186SOL    HW220283  10.577   0.818   3.113 -1.1598  1.6456  2.3887
36187SOL     OW20284   8.606   3.135   9.423 -0.1655  0.8424  0.2596
36187SOL    HW120285   8.543   3.072   9.458 -0.7419  1.5419  0.5021
36187SOL    HW220286   8.629   3.101   9.337  1.7761 -1.2764  1.4816
36188SOL     OW20287   1.980   5.227   9.815  0.3817 -0.3724  0.2970
36188SOL    HW120288   1.912   5.250   9.878  0.4351 -1.4922  0.8021
36188SOL    HW220289   1.939   5.236   9.729  0.5578  2.0217  0.4119
36189SOL     OW20290   7.308   3.799   5.100 -0.0223 -0.4559  0.3045
36189SOL    HW120291   7.372   3.734   5.128  1.0400  0.0479 -0.8400
36189SOL    HW220292   7.316   3.870   5.163 -0.8285 -1.1797  1.2639
36190SOL     OW20293   9.382   4.042   7.765  0.1043 -0.3543 -0.4585
36190SOL    HW120294   9.433   3.990   7.826  0.1596 -0.2053 -0.3773
36190SOL    HW220295   9.409   4.132   7.781  1.0662 -0.4228 -1.5946
36191SOL     OW20296   4.317  10.462   4.396  0.4953 -0.4841  0.2243
36191SOL    HW120297   4.247  10.496   4.452  1.0685  1.0348  0.0657
36191SOL    HW220298   4.314  10.367   4.408 -0.9377 -0.3647  0.9772
36192SOL     OW20299   2.822   3.324   3.810 -0.4715 -0.4137 -0.4738
36192SOL    HW120300   2.742   3.356   3.850 -2.3240 -2.4841 -2.2276
36192SOL    HW220301   2.827   3.370   3.726  0.3988 -0.0653 -0.2459
36193SOL     OW20302   1.802  11.014   3.214  0.3685  0.2592  0.5552
36193SOL    HW120303   1.806  11.109   3.219  2.3405  0.1680  2.4181
36193SOL    HW220304   1.711  10.993   3.236 -0.8753  1.7049 -2.6104
36194SOL     OW20305   7.480   8.945   5.862  0.0772 -0.0913  0.2767
36194SOL    HW120306   7.459   9.021   5.916 -0.4468 -1.1893  1.6768
36194SOL    HW220307   7.542   8.978   5.797 -1.8011  2.0245 -0.5731
36195SOL     OW20308   4.393  11.570   4.990  0.1829  0.0499 -0.2317
36195SOL    HW120309   4.482  11.581   5.024  0.0707 -0.9832  0.4230
36195SOL    HW220310   4.362  11.489   5.030 -0.4666 -0.4641 -1.7085
36196SOL     OW20311   4.070   5.004   6.929 -0.5360  0.2290  0.2348
36196SOL    HW120312   4.157   5.033   6.956 -0.2162 -1.3174  1.0310
36196SOL    HW220313   4.019   5.084   6.921  0.6290  1.0815  0.9718
36197SOL     OW20314   8.539   0.584   0.316  0.0557 -0.5741  0.0190
36197SOL    HW120315   8.568   0.579   0.407  1.1025 -0.0029 -0.2605
36197SOL    HW220316   8.504   0.497   0.297 -2.5461 -0.0073  1.7003
36198SOL     OW20317  11.654   0.484   5.531 -0.4708 -0.0278 -0.2284
36198SOL    HW120318  11.719   0.501   5.599 -0.8209  0.9200 -0.1209
36198SOL    HW220319  11.642   0.568   5.487 -1.9731 -0.0640  0.0691
36199SOL     OW20320   1.721   7.162   6.129  0.1339 -0.2404  0.1813
36199SOL    HW120321   1.692   7.145   6.040 -2.3333  1.7781  0.4806
36199SOL    HW220322   1.806   7.119   6.136 -0.3664 -1.8862 -2.5748
36200SOL     OW20323   7.185   3.183   6.589  0.2792 -0.4260 -0.1185
36200SOL    HW120324   7.106   3.159   6.637 -0.0980  0.4341 -0.2819
36200SOL    HW220325   7.178   3.278   6.579  0.6703 -0.5054 -1.2974
36201SOL     OW20326   9.024   9.668   7.085 -0.0507 -0.4837 -0.3148
36201SOL    HW120327   9.055   9.687   7.173  0.5334 -0.8849 -0.4214
36201SOL    HW220328   8.995   9.753   7.050 -0.7336 -0.4062  0.4218
36202SOL     OW20329   1.488   7.614   1.252 -0.3098  0.0383  0.0683
36202SOL    HW120330   1.566   7.642   1.300 -0.6289  1.0061  0.0471
36202SOL    HW220331   1.418   7.672   1.283 -1.2290 -1.3643  0.7150
36203SOL     OW20332   2.463   0.441   9.966  0.0661  0.7940 -0.1862
36203SOL    HW120333   2.404   0.516   9.981 -0.3918  0.5664 -0.8155
36203SOL    HW220334   2.539   0.479   9.922 -0.9401  0.6416 -2.1423
36204SOL     OW20335   7.780   6.895   5.319 -0.3838  0.3840  0.5580
36204SOL    HW120336   7.748   6.812   5.354  0.4999 -0.9186 -1.4846
36204SOL    HW220337   7.835   6.869   5.244 -1.5495  2.8672 -1.2900
36205SOL     OW20338   8.582   2.335  11.705 -0.0256 -0.1621  0.3100
36205SOL    HW120339   8.661   2.282  11.710 -0.4249 -1.1010 -1.8206
36205SOL    HW220340   8.613   2.425  11.699  0.7214 -0.2345  2.4747
36206SOL     OW20341  10.861   3.707   2.768  0.0468  0.0136  0.7498
36206SOL    HW120342  10.835   3.615   2.771 -2.0215  0.5104 -0.2358
36206SOL    HW220343  10.781   3.754   2.746  0.6911  2.2244  2.7027
36207SOL     OW20344   7.492  10.629   3.992 -0.3172 -0.0557  0.7211
36207SOL    HW120345   7.497  10.696   4.060  1.6922 -0.7516  1.3327
36207SOL    HW220346   7.570  10.643   3.938 -0.4007 -1.2563  0.2479
36208SOL     OW20347  11.045   5.102   2.075  0.3577  0.3122  0.1581
36208SOL    HW120348  10.997   5.071   2.152 -1.6267  2.4010 -0.1203
36208SOL    HW220349  11.044   5.028   2.015  0.4425 -0.8035  1.4810
36209SOL     OW20350  11.676   0.825   3.641 -0.2448 -0.5392  0.2069
36209SOL    HW120351  11.760   0.847   3.682  0.4144 -0.1359 -1.2997
36209SOL    HW220352  11.665   0.731   3.660 -0.8779 -0.0398  2.7965
36210SOL     OW20353   3.270   0.715  10.549  0.2374  0.2333 -0.1818
36210SOL    HW120354   3.292   0.781  10.484 -0.8973  1.0907  0.2645
36210SOL    HW220355   3.195   0.668  10.512 -0.6841  0.9996  0.6333
36211SOL     OW20356   7.763  11.287   3.382  0.0703 -0.1832 -0.4002
36211SOL    HW120357   7.854  11.286   3.354  0.4204  1.5930  0.5096
36211SOL    HW220358   7.767  11.294   3.477 -0.9887  1.0782 -0.4202
36212SOL     OW20359   8.290   6.748   4.504 -0.1607  0.2246  0.2909
36212SOL    HW120360   8.212   6.693   4.503  0.5997 -0.8934  0.2215
36212SOL    HW220361   8.262   6.831   4.543 -1.7866  0.4903 -1.3328
36213SOL     OW20362   4.855   7.609   9.593  0.3413 -0.1549  0.1000
36213SOL    HW120363   4.949   7.602   9.611  0.1099 -1.7664  0.8699
36213SOL    HW220364   4.813   7.560   9.664 -1.1879  1.7302  0.5833
36214SOL     OW20365   3.391   5.846   5.883  1.2274  0.3656  0.3252
36214SOL    HW120366   3.448   5.771   5.894  3.1507  1.3971 -1.7124
36214SOL    HW220367   3.323   5.816   5.822  0.7175 -0.3017  1.2061
36215SOL     OW20368   9.091  11.151   9.744  0.2655 -0.1337  0.7160
36215SOL    HW120369   9.111  11.100   9.665  1.4234  0.0652  0.8642
36215SOL    HW220370   9.029  11.218   9.714 -1.8394 -1.9648  0.6413
36216SOL     OW20371   8.807   0.508   9.609  0.2640  0.3906 -0.1919
36216SOL    HW120372   8.892   0.551   9.612  0.3272  0.2744 -0.2866
36216SOL    HW220373   8.774   0.512   9.699  1.1630 -1.1601  0.2325
36217SOL     OW20374   2.529   7.657   5.391  0.1712  0.2899 -1.1640
36217SOL    HW120375   2.479   7.700   5.460 -0.0742  1.6837 -2.1591
36217SOL    HW220376   2.589   7.599   5.437 -1.1497 -0.1127  0.1278
36218SOL     OW20377   4.917   0.262   1.243  0.1153  0.0821  0.1807
36218SOL    HW120378   4.900   0.175   1.279  0.5470  1.0761  3.0639
36218SOL    HW220379   4.998   0.251   1.194  1.1261 -0.8561  1.9389
36219SOL     OW20380   7.290  10.490  10.715 -0.5170 -0.9821 -0.7417
36219SOL    HW120381   7.339  10.567  10.684  0.6975 -1.3621  0.1500
36219SOL    HW220382   7.204  10.525  10.739  0.4149  0.3928  0.8616
36220SOL     OW20383   1.433   1.009   6.268  0.1447 -0.3256 -0.0834
36220SOL    HW120384   1.464   1.020   6.358  0.1912 -0.2363 -0.1090
36220SOL    HW220385   1.341   1.034   6.272  0.1193 -0.4275 -0.0389
36221SOL     OW20386   7.285  10.534   9.087  0.2945 -0.0447 -0.6068
36221SOL    HW120387   7.194  10.508   9.100 -0.0168 -0.3247 -2.9401
36221SOL    HW220388   7.319  10.471   9.024  1.5197  1.1878 -1.2368
36222SOL     OW20389   0.118   3.157   5.383  0.5154  0.1176 -0.2258
36222SOL    HW120390   0.024   3.170   5.369  0.6561 -0.4371 -1.9922
36222SOL    HW220391   0.157   3.243   5.367  0.4885 -0.1258 -1.7947
36223SOL     OW20392   6.428   4.267  11.680 -0.1831 -0.0262  0.7214
36223SOL    HW120393   6.406   4.340  11.737  1.1205  1.7989 -0.9822
36223SOL    HW220394   6.511   4.233  11.715 -0.9395 -0.9408  1.6913
36224SOL     OW20395   5.786   1.018  11.013 -0.4747 -0.2850  0.0141
36224SOL    HW120396   5.795   1.092  11.074 -0.7609  1.1509 -1.6254
36224SOL    HW220397   5.832   1.046  10.934 -1.3418 -1.5053 -0.9569
36225SOL     OW20398   4.707   6.316   9.664  0.6403  0.1870  0.2033
36225SOL    HW120399   4.745   6.404   9.669  0.3143  0.6083 -2.7831
36225SOL    HW220400   4.771   6.265   9.615  0.9017 -1.3656  2.0377
36226SOL     OW20401   9.744  10.837   0.911 -0.2792  0.2523  0.4758
36226SOL    HW120402   9.780  10.769   0.968 -0.1371  0.2406  0.3731
36226SOL    HW220403   9.739  10.915   0.966 -1.5914 -0.1430  0.9543
36227SOL     OW20404   3.855   4.380   4.773 -0.2095  0.6228 -0.5702
36227SOL    HW120405   3.863   4.347   4.684 -0.9725 -0.8050 -0.1325
36227SOL    HW220406   3.765   4.361   4.798  0.4312 -0.4645  1.0530
36228SOL     OW20407   4.799   9.859   1.572 -0.4366 -0.5620 -0.3229
36228SOL    HW120408   4.802   9.940   1.623 -0.1629 -0.7208 -0.0848
36228SOL    HW220409   4.877   9.811   1.598  0.1204 -0.2996 -1.4809
36229SOL     OW20410   3.458   7.270   0.999  0.3805  0.1151 -0.1202
36229SOL    HW120411   3.383   7.302   1.049 -0.1262 -0.8249 -0.2558
36229SOL    HW220412   3.463   7.330   0.924  1.1290  1.5038  1.0069
36230SOL     OW20413   2.483   8.879   1.885  0.7301  0.4445  0.0584
36230SOL    HW120414   2.425   8.804   1.899  1.0837  0.3693  1.2266
36230SOL    HW220415   2.425   8.955   1.893  0.9037  0.4270  2.3816
36231SOL     OW20416   5.519   4.642   9.664 -0.0691  0.2585  0.1713
36231SOL    HW120417   5.532   4.548   9.675  1.3721  0.6644  2.6825
36231SOL    HW220418   5.475   4.670   9.744  1.8071  2.0881  0.6322
36232SOL     OW20419   4.007   6.552  11.138  0.4804 -0.6626 -0.3220
36232SOL    HW120420   4.069   6.558  11.211  1.0206 -0.5247 -0.7832
36232SOL    HW220421   4.062   6.527  11.063  0.1650  0.6324 -0.9973
36233SOL     OW20422   9.032   9.432   5.220 -0.3701  0.0817  0.2004
36233SOL    HW120423   9.055   9.426   5.127  0.0569 -0.2920  0.3299
36233SOL    HW220424   9.095   9.493   5.257  1.8751 -2.5476  1.0007
36234SOL     OW20425   8.371   4.306   2.880  0.0584 -0.8151 -0.1756
36234SOL    HW120426   8.412   4.230   2.839 -0.6612 -0.1376 -2.2344
36234SOL    HW220427   8.279   4.299   2.856 -0.2773 -0.0094  0.7945
36235SOL     OW20428   3.149  10.296   9.523 -0.2190  0.1475  0.2320
36235SOL    HW120429   3.209  10.344   9.580 -0.1867  0.6107 -0.1891
36235SOL    HW220430   3.197  10.218   9.497  0.2994  0.6379 -0.3040
36236SOL     OW20431   0.122   2.712   5.441 -0.4129 -0.1715 -0.2542
36236SOL    HW120432   0.090   2.646   5.501  0.4807 -1.8379 -1.5363
36236SOL    HW220433   0.121   2.793   5.492 -0.8422 -1.2753  1.5867
36237SOL     OW20434   2.845   7.503   5.121 -0.5900  0.5282  0.5835
36237SOL    HW120435   2.778   7.436   5.107  0.2093  0.3037 -3.4242
36237SOL    HW220436   2.805   7.584   5.089  0.3100  0.8339  0.2066
36238SOL     OW20437   8.692   9.962   8.127 -0.1014  0.4593 -0.1639
36238SOL    HW120438   8.735   9.978   8.043  0.9885  1.2680  0.5154
36238SOL    HW220439   8.602   9.993   8.114 -0.4765 -1.1086 -1.5600
36239SOL     OW20440   0.188   0.093   5.759 -0.1799  0.3681 -0.5156
36239SOL    HW120441   0.214   0.085   5.851 -0.1185 -1.0933 -0.6415
36239SOL    HW220442   0.121   0.162   5.759  0.7737  1.3342  0.4059
36240SOL     OW20443   2.638   8.510   4.034 -0.2580 -0.8943 -0.4641
36240SOL    HW120444   2.645   8.460   3.953 -3.2448 -0.4308 -1.1063
36240SOL    HW220445   2.622   8.600   4.006 -1.2194 -0.6946  0.6118
36241SOL     OW20446   7.162   0.748   5.305  0.1473 -0.2662 -0.1536
36241SOL    HW120447   7.093   0.755   5.371  0.7477  0.9820  0.3625
36241SOL    HW220448   7.153   0.827   5.252  0.4626 -0.6584 -0.7947
36242SOL     OW20449   7.477   4.960  11.700  0.1545 -0.2708  0.1376
36242SOL    HW120450   7.387   4.974  11.728  0.0147  0.5483 -0.6501
36242SOL    HW220451   7.469   4.910  11.618  0.4267 -0.4167  0.1984
36243SOL     OW20452   9.611  11.680   5.534 -0.2320 -0.0980 -0.5489
36243SOL    HW120453   9.700  11.715   5.541 -0.3791  0.4298 -1.2343
36243SOL    HW220454   9.623  11.585   5.541  0.5447 -0.1292 -1.8592
36244SOL     OW20455   2.663   1.465  10.863  0.0341 -0.3125  0.2636
36244SOL    HW120456   2.581   1.514  10.859  0.7049  0.8339 -0.0855
36244SOL    HW220457   2.724   1.525  10.906  0.7125 -1.1037  0.4133
36245SOL     OW20458   0.726   2.903  11.471  0.5162  0.0238 -0.2781
36245SOL    HW120459   0.702   2.823  11.425  2.0700 -0.7619  0.2088
36245SOL    HW220460   0.721   2.880  11.564  0.0951  0.7735 -0.1025
36246SOL     OW20461  10.151  11.668   0.487 -0.0457  0.0286  0.2464
36246SOL    HW120462  10.065  11.679   0.445 -0.6405 -0.3652  1.3116
36246SOL    HW220463  10.130  11.653   0.579  1.1758 -0.1397  0.5076
36247SOL     OW20464   9.146  11.652   1.763  0.1542  0.1599  0.0162
36247SOL    HW120465   9.071  11.635   1.820 -1.9551 -0.7005 -2.7475
36247SOL    HW220466   9.138  11.744   1.740  0.2792  0.2147  0.1979
36248SOL     OW20467   3.875  11.211   2.642  0.6770  0.0995  0.0626
36248SOL    HW120468   3.900  11.171   2.558 -1.4107  1.7126 -1.4384
36248SOL    HW220469   3.826  11.289   2.617 -1.5864 -0.3186  2.7938
36249SOL     OW20470   7.397   6.213  10.049  0.6087 -0.1808 -0.3639
36249SOL    HW120471   7.358   6.163  10.121 -0.1818  0.0190 -0.6421
36249SOL    HW220472   7.322   6.241   9.997  0.8547  2.6809  0.6375
36250SOL     OW20473   4.826   5.692   6.808 -0.1479 -0.5144  0.3932
36250SOL    HW120474   4.864   5.691   6.896 -0.4773 -0.7827  0.5373
36250SOL    HW220475   4.758   5.759   6.812  0.2198 -0.1229  0.1721
36251SOL     OW20476   0.408   2.180   5.426 -0.7297  0.1247  0.0934
36251SOL    HW120477   0.470   2.247   5.457 -0.5054  0.8536 -1.8089
36251SOL    HW220478   0.458   2.098   5.431 -1.5021 -0.3356  3.9893
36252SOL     OW20479   6.360   4.135   5.669  0.1936  0.7215  0.5661
36252SOL    HW120480   6.422   4.138   5.742 -0.5331  0.2674  1.2219
36252SOL    HW220481   6.411   4.162   5.593  2.0894 -2.6993  0.4371
36253SOL     OW20482  10.340   8.344   9.215  0.4459  0.2160 -0.4525
36253SOL    HW120483  10.270   8.346   9.280  2.2403 -0.6593  1.6205
36253SOL    HW220484  10.325   8.264   9.166  0.2568 -0.2142  0.2981
36254SOL     OW20485   6.156   2.858   2.129  0.2347  0.0461 -0.0741
36254SOL    HW120486   6.215   2.845   2.054  1.4057 -2.1155  1.1062
36254SOL    HW220487   6.141   2.770   2.163 -1.3926  0.8341  1.4247
36255SOL     OW20488   7.693   2.239   7.372  0.2334 -0.0677 -0.2616
36255SOL    HW120489   7.682   2.247   7.277 -0.8591 -0.0072 -0.1342
36255SOL    HW220490   7.744   2.316   7.396  0.4661 -0.0524 -0.7900
36256SOL     OW20491   3.830   6.501   6.441 -0.0852 -0.8993 -0.1227
36256SOL    HW120492   3.878   6.470   6.517 -0.7137  1.1037  1.1503
36256SOL    HW220493   3.898   6.530   6.380  0.4346 -2.9240 -0.5927
36257SOL     OW20494  10.048   4.196   1.776 -0.0289  0.1233 -0.1530
36257SOL    HW120495  10.049   4.284   1.815  0.7041  0.7107 -1.4251
36257SOL    HW220496   9.955   4.176   1.765 -0.2057  0.7185  0.2005
36258SOL     OW20497   9.397   4.491  11.287  0.1647 -0.0304 -0.0365
36258SOL    HW120498   9.385   4.586  11.290  1.3951  0.2872 -2.3562
36258SOL    HW220499   9.489   4.480  11.263 -0.1188 -1.8019 -0.4285
36259SOL     OW20500   9.955   5.969   4.368 -0.1612 -0.2875 -0.1670
36259SOL    HW120501   9.862   5.952   4.353 -0.8146  1.0778  1.9777
36259SOL    HW220502   9.975   5.923   4.449  0.6444  0.6738  0.1988
36260SOL     OW20503   2.533  11.337   9.624 -0.5985 -0.2074  0.1629
36260SOL    HW120504   2.493  11.424   9.636 -2.1153 -0.9067  0.4769
36260SOL    HW220505   2.581  11.322   9.705 -1.6016 -0.2738  0.7656
36261SOL     OW20506   0.861   6.048   5.313 -0.4144  0.5444 -0.0284
36261SOL    HW120507   0.917   6.010   5.380  0.6830 -1.6150 -2.0291
36261SOL    HW220508   0.801   6.105   5.361 -0.0627 -1.3054  2.8219
36262SOL     OW20509  11.573   2.068   8.006 -0.2210  0.4130 -0.0219
36262SOL    HW120510  11.576   1.976   8.034 -0.5971  0.5257  0.3931
36262SOL    HW220511  11.543   2.063   7.915 -0.5367  0.1342  0.0924
36263SOL     OW20512   7.261   1.326  11.285 -0.1523 -0.3301 -0.0039
36263SOL    HW120513   7.299   1.240  11.264  0.9217  0.5632 -1.9839
36263SOL    HW220514   7.168   1.315  11.268  0.0925 -0.8945 -1.0894
36264SOL     OW20515   7.887   1.203   7.619  0.1423 -0.3101  0.4227
36264SOL    HW120516   7.949   1.176   7.687  0.7369  1.3989  0.6245
36264SOL    HW220517   7.867   1.123   7.570  2.2523 -0.9752  0.5611
36265SOL     OW20518   4.877   6.869   3.863 -0.2202  0.2958 -0.1092
36265SOL    HW120519   4.811   6.936   3.883 -0.5182 -0.1170  0.3215
36265SOL    HW220520   4.831   6.808   3.805 -0.2793 -0.0892  0.3372
36266SOL     OW20521   0.211   6.706   9.476  0.0640  0.0622 -0.4938
36266SOL    HW120522   0.249   6.620   9.462 -0.4740  0.0476 -2.0165
36266SOL    HW220523   0.286   6.766   9.471  0.2528 -0.1976 -0.8600
36267SOL     OW20524   8.711   9.314   6.486 -0.5429  0.6173  0.2907
36267SOL    HW120525   8.790   9.279   6.528 -0.8590 -1.0595 -0.4238
36267SOL    HW220526   8.646   9.317   6.556 -1.3120 -2.9403 -0.0894
36268SOL     OW20527   2.915   6.787   4.420  0.2505 -0.2845  0.6597
36268SOL    HW120528   2.917   6.705   4.470 -0.2428  0.6062  2.2075
36268SOL    HW220529   2.991   6.836   4.451  0.6329 -0.2189 -0.3762
36269SOL     OW20530   2.320   6.422  10.459  0.3276 -0.1313 -0.1553
36269SOL    HW120531   2.366   6.478  10.522 -1.2655  1.1155 -0.0575
36269SOL    HW220532   2.390   6.389  10.402  1.4652  0.9108  0.5706
36270SOL     OW20533  10.985   8.336   6.507 -0.0215  0.5788 -0.1821
36270SOL    HW120534  10.917   8.394   6.473 -0.1301  0.9679  0.6624
36270SOL    HW220535  10.998   8.271   6.438 -3.1054 -1.1120  0.6278
36271SOL     OW20536  11.073   8.713   7.201  0.5806  0.4997 -0.4150
36271SOL    HW120537  11.006   8.711   7.269 -0.0426 -0.6068 -1.0222
36271SOL    HW220538  11.026   8.692   7.121  1.8276 -1.6573 -0.6596
36272SOL     OW20539   3.933   1.408   0.595  0.4609 -0.3270  0.1306
36272SOL    HW120540   3.979   1.324   0.607 -1.3175 -1.3970 -0.2143
36272SOL    HW220541   3.880   1.396   0.516  0.3183  1.2143 -0.0402
36273SOL     OW20542  11.177   8.157  10.118 -0.4312  0.0477 -0.3962
36273SOL    HW120543  11.248   8.154  10.183 -2.8733  0.4131  2.4950
36273SOL    HW220544  11.160   8.250  10.105 -1.2522 -0.0438 -0.0180
36274SOL     OW20545   6.609   0.231   7.485 -0.6769 -0.0931  0.3697
36274SOL    HW120546   6.578   0.296   7.548  1.0127  1.8803 -0.7068
36274SOL    HW220547   6.637   0.157   7.539 -0.4649  1.0155  1.8372
36275SOL     OW20548   3.439  11.201  10.827 -0.1750 -0.4690 -0.5493
36275SOL    HW120549   3.417  11.166  10.741 -0.4296  0.4459 -0.8605
36275SOL    HW220550   3.529  11.232  10.818 -0.4556  0.3194 -0.7133
36276SOL     OW20551   5.197  10.026   1.640  0.0269  0.4588 -0.0882
36276SOL    HW120552   5.199   9.996   1.550 -1.6056 -1.8466  0.5720
36276SOL    HW220553   5.127  10.091   1.642  0.2369  0.7016 -0.5151
36277SOL     OW20554   2.776  11.522   6.399 -0.0041  0.1558  0.5565
36277SOL    HW120555   2.860  11.545   6.439  0.0940  2.3928 -0.7854
36277SOL    HW220556   2.798  11.462   6.328  0.4273  0.4731  0.4211
36278SOL     OW20557   5.259   7.136   7.020  0.1010 -0.0296  0.1860
36278SOL    HW120558   5.222   7.102   6.938 -0.0290  0.0006  0.2307
36278SOL    HW220559   5.185   7.182   7.061  0.2813  0.3273  0.1117
36279SOL     OW20560   5.868   9.155   4.618  0.2279 -0.0083  0.7963
36279SOL    HW120561   5.847   9.097   4.691  1.6429 -0.2568  1.0325
36279SOL    HW220562   5.849   9.243   4.651  0.3824 -0.1572  1.2910
36280SOL     OW20563  10.136   0.849   2.047  0.3280 -0.5640  0.0527
36280SOL    HW120564  10.135   0.924   2.107 -1.1842 -0.6594  0.1974
36280SOL    HW220565  10.168   0.777   2.100  0.3275 -0.3416  0.3589
36281SOL     OW20566   8.888   2.886   4.154  0.3623  0.6579  0.0848
36281SOL    HW120567   8.811   2.905   4.102  0.4228  0.5986 -0.0263
36281SOL    HW220568   8.922   2.803   4.119 -0.3467 -0.0750  1.0844
36282SOL     OW20569   0.380   3.309   7.083 -0.0227 -0.3311 -0.0074
36282SOL    HW120570   0.451   3.246   7.067 -0.7169 -1.3229  0.6680
36282SOL    HW220571   0.359   3.297   7.176 -1.8375 -0.8919 -0.4577
36283SOL     OW20572  10.574   8.211   6.488  0.3111 -0.3711 -0.0259
36283SOL    HW120573  10.615   8.289   6.450  1.1145 -0.7369  0.0616
36283SOL    HW220574  10.500   8.192   6.430  0.1596  0.4034 -0.0919
36284SOL     OW20575   3.299   3.538  10.288 -0.0132 -0.0656 -0.0120
36284SOL    HW120576   3.379   3.548  10.237  0.1104  0.4280  0.2731
36284SOL    HW220577   3.234   3.592  10.242 -0.9739 -2.5362 -1.8241
36285SOL     OW20578   7.129   3.706   8.180  0.0561  0.0397 -0.1117
36285SOL    HW120579   7.166   3.700   8.092  0.0244  0.9587 -0.1963
36285SOL    HW220580   7.047   3.658   8.175  0.4436 -0.6097 -0.3651
36286SOL     OW20581   7.562   3.961   1.114  0.3115  0.1728  0.9495
36286SOL    HW120582   7.652   3.993   1.109  0.3306  0.0441  0.2382
36286SOL    HW220583   7.509   4.040   1.122  0.3457  0.4515 -0.9475
36287SOL     OW20584   9.002   1.102   4.335  0.3872  0.0912 -0.3705
36287SOL    HW120585   9.014   1.138   4.423 -1.7526 -1.4855  0.6597
36287SOL    HW220586   8.961   1.173   4.286  2.3658  1.2809 -0.4168
36288SOL     OW20587  10.198   1.988   4.534 -0.1146  0.1163 -0.2050
36288SOL    HW120588  10.196   1.977   4.439  0.4835  0.1838 -0.2295
36288SOL    HW220589  10.155   1.910   4.568  0.3155 -0.2654 -0.5144
36289SOL     OW20590  11.091   1.756   4.208  0.4551  0.1363  0.0082
36289SOL    HW120591  11.046   1.675   4.232  0.4823  1.0037  3.5998
36289SOL    HW220592  11.184   1.735   4.216  0.4816  0.3075  0.1435
36290SOL     OW20593   4.485  10.021   7.396 -0.4181 -0.5299 -0.0185
36290SOL    HW120594   4.406   9.967   7.402 -0.0498 -0.9732  1.2141
36290SOL    HW220595   4.556   9.964   7.426  0.4717 -0.2876 -1.5303
36291SOL     OW20596   6.145   5.596  11.955 -0.3756  0.9559 -0.2126
36291SOL    HW120597   6.104   5.540  12.020 -0.4748  0.1364 -0.9666
36291SOL    HW220598   6.100   5.576  11.873  0.4874  1.1582 -0.7560
36292SOL     OW20599   0.857   9.144   2.713  0.3386  0.6216  0.3705
36292SOL    HW120600   0.937   9.167   2.665  0.0885  0.9136  0.0897
36292SOL    HW220601   0.862   9.049   2.725  0.8114  0.6616  0.5069
36293SOL     OW20602   1.533   4.245  10.301 -0.7528  0.4642 -0.0620
36293SOL    HW120603   1.592   4.233  10.375  0.7246  1.6608 -0.9779
36293SOL    HW220604   1.447   4.258  10.340 -0.2543 -0.3861  1.3658
36294SOL     OW20605   9.588   3.670   6.877  0.4988  0.3128 -0.2158
36294SOL    HW120606   9.525   3.621   6.824  0.5172  0.2130 -0.1467
36294SOL    HW220607   9.561   3.653   6.967 -0.1179  1.2602 -0.2064
36295SOL     OW20608   8.735   3.621   6.357  0.1572 -0.0806 -0.2699
36295SOL    HW120609   8.663   3.683   6.345  0.0263 -0.2095 -0.1509
36295SOL    HW220610   8.806   3.657   6.305  0.7196  1.2333  1.3145
36296SOL     OW20611   5.055   4.460  10.479  0.2273 -0.2556  0.4359
36296SOL    HW120612   5.027   4.511  10.556 -1.7842  2.0626 -1.6420
36296SOL    HW220613   5.150   4.450  10.490  0.5641  2.9778  1.6139
36297SOL     OW20614  10.395   7.471   9.440 -0.0977 -0.1185  0.0217
36297SOL    HW120615  10.490   7.462   9.446  0.0878  1.3707 -0.4706
36297SOL    HW220616  10.379   7.499   9.350 -1.0251 -0.4944  0.0611
36298SOL     OW20617   2.103   1.449   8.506  0.8353 -0.8198 -0.1355
36298SOL    HW120618   2.052   1.456   8.586  1.3674  0.9101  0.0788
36298SOL    HW220619   2.126   1.356   8.500 -3.3624 -2.0356 -0.9235
36299SOL     OW20620   7.798   4.329  11.923 -0.5687 -0.7956 -0.3451
36299SOL    HW120621   7.836   4.338  11.836  2.8869  0.2464  1.0872
36299SOL    HW220622   7.725   4.390  11.924  1.2379  1.5453 -1.6364
36300SOL     OW20623   2.469   2.987   1.986 -0.3030  0.4567  0.4041
36300SOL    HW120624   2.392   2.932   2.001  0.0818 -0.3994 -0.5778
36300SOL    HW220625   2.541   2.924   1.979  0.4186  1.2125  0.8629
36301SOL     OW20626   6.435   2.313   0.544  0.5240 -0.7467 -0.1818
36301SOL    HW120627   6.453   2.252   0.616 -0.3233  0.2969  0.9501
36301SOL    HW220628   6.343   2.300   0.524  0.9496 -1.6665 -1.7448
36302SOL     OW20629   4.366   0.887  11.521  0.5876  0.1713 -0.5623
36302SOL    HW120630   4.330   0.804  11.491  1.5175 -0.7886  0.8694
36302SOL    HW220631   4.378   0.938  11.441 -2.9897  0.2295 -1.2188
36303SOL     OW20632   6.344   3.565   1.760 -0.2502 -0.3811  0.6373
36303SOL    HW120633   6.259   3.524   1.777 -0.4916 -0.1914 -0.0625
36303SOL    HW220634   6.395   3.497   1.716 -0.6968  0.0723 -0.6464
36304SOL     OW20635   3.374  11.227   9.606  0.0399 -0.4737 -0.1791
36304SOL    HW120636   3.311  11.293   9.580 -0.6843 -0.9567  0.3102
36304SOL    HW220637   3.449  11.276   9.639  0.2601  0.1195 -1.5157
36305SOL     OW20638  11.289   4.900   3.276 -0.1806 -0.2151  0.1873
36305SOL    HW120639  11.250   4.958   3.342 -0.2309  0.5752 -0.5198
36305SOL    HW220640  11.219   4.885   3.213  0.5102  0.9083 -0.8937
36306SOL     OW20641   3.903   1.364   2.894  0.3785 -0.3771  0.2480
36306SOL    HW120642   3.981   1.414   2.869  0.9658 -1.5095 -0.2558
36306SOL    HW220643   3.831   1.409   2.849  0.9418 -0.1951 -0.5038
36307SOL     OW20644   0.795   0.320   6.295  0.4586 -0.4128 -0.5655
36307SOL    HW120645   0.770   0.337   6.386  2.7198 -1.6999  0.3600
36307SOL    HW220646   0.844   0.238   6.298  1.4075 -0.0004 -2.8031
36308SOL     OW20647   2.673  11.344   4.729  0.0941 -0.1409  0.4725
36308SOL    HW120648   2.634  11.299   4.654  0.0359  2.6150 -1.2817
36308SOL    HW220649   2.766  11.321   4.725  0.4581  1.4340 -1.6704
36309SOL     OW20650   2.017   3.090   5.561 -0.3529  0.5721  0.2605
36309SOL    HW120651   1.953   3.052   5.621  1.6697 -1.0648  1.5408
36309SOL    HW220652   2.076   3.141   5.617  1.2191 -0.4812 -0.3428
36310SOL     OW20653   4.688   5.948   5.691  0.1314 -0.4789 -0.1636
36310SOL    HW120654   4.754   5.964   5.623  0.5463 -1.2261  0.0533
36310SOL    HW220655   4.655   6.035   5.713 -1.0296 -0.3165 -2.3127
36311SOL     OW20656  11.015   6.428   9.989 -0.1865 -0.0361  0.1389
36311SOL    HW120657  10.955   6.492   9.952  1.9959  2.1151  0.1107
36311SOL    HW220658  11.050   6.381   9.913 -2.2415 -1.8170  0.1960
36312SOL     OW20659   3.018   0.434  11.275  0.0753 -0.1768  0.7584
36312SOL    HW120660   3.062   0.383  11.344 -0.5888  1.8819  2.8027
36312SOL    HW220661   2.927   0.403  11.277  0.0353 -0.0520  0.8708
36313SOL     OW20662   2.045  10.647   2.748 -0.3154  0.5510 -0.1393
36313SOL    HW120663   1.953  10.675   2.739 -0.3122  1.3773  1.9005
36313SOL    HW220664   2.091  10.727   2.775  0.5675 -0.3630  1.1449
36314SOL     OW20665   4.948   3.614  10.605 -0.3924  0.0052  0.4499
36314SOL    HW120666   4.875   3.672  10.583 -0.5929 -0.2046  0.5669
36314SOL    HW220667   4.981   3.584  10.520 -0.6310 -0.1365  0.4082
36315SOL     OW20668   5.142  10.583   1.586  0.2356  0.0086  0.5374
36315SOL    HW120669   5.236  10.581   1.568  0.1381  0.2860 -0.0444
36315SOL    HW220670   5.108  10.649   1.525 -0.7184 -1.9520 -1.1863
36316SOL     OW20671   3.847   1.055   0.833 -0.1732 -0.1546  0.0119
36316SOL    HW120672   3.902   1.122   0.872 -0.4265 -0.0501  0.1923
36316SOL    HW220673   3.762   1.098   0.822  0.0612  0.0204 -1.2318
36317SOL     OW20674  11.586   9.942  10.107 -0.3318 -0.0411 -0.4329
36317SOL    HW120675  11.601   9.898  10.191 -0.0805  1.0800  0.1225
36317SOL    HW220676  11.494   9.926  10.088 -0.0556 -1.5534 -0.6994
36318SOL     OW20677   6.907   0.732   4.479  0.6706  0.3073  0.2110
36318SOL    HW120678   6.854   0.812   4.487  0.4381  0.2684 -0.8738
36318SOL    HW220679   6.990   0.762   4.443  1.2834  0.3102  1.5584
36319SOL     OW20680   3.937   7.938  11.442 -0.6001 -0.3139 -0.4772
36319SOL    HW120681   3.921   7.905  11.354  0.2852 -1.4300 -0.2448
36319SOL    HW220682   4.000   7.877  11.480 -0.8866  0.1923  0.9029
36320SOL     OW20683   6.990   3.519   3.296 -0.0837 -0.1787 -0.2690
36320SOL    HW120684   7.055   3.589   3.308 -0.3199  0.0786 -0.4868
36320SOL    HW220685   6.927   3.555   3.234 -1.3734  0.2295  1.2052
36321SOL     OW20686   9.795   8.980   8.156  0.4392 -0.5952  0.5274
36321SOL    HW120687   9.792   9.059   8.103  0.5945  0.4706  2.0502
36321SOL    HW220688   9.764   8.910   8.097  0.0951  0.6133 -0.7746
36322SOL     OW20689   4.740   5.295   6.743  0.2503  0.1191 -0.1614
36322SOL    HW120690   4.829   5.331   6.738  0.5248 -0.3947  0.7803
36322SOL    HW220691   4.707   5.302   6.654  1.9615 -1.4967 -1.0016
36323SOL     OW20692   4.902  10.311   1.913  0.2539  0.3948  0.5858
36323SOL    HW120693   4.996  10.303   1.896  0.2923 -2.0496  1.4649
36323SOL    HW220694   4.866  10.225   1.889 -1.5004  0.7651  1.6692
36324SOL     OW20695   5.119   2.836  10.926 -0.3752 -0.2015  0.0486
36324SOL    HW120696   5.174   2.836  11.004 -0.8106 -0.1756  0.3583
36324SOL    HW220697   5.067   2.916  10.933 -2.2624 -1.4338  1.0601
36325SOL     OW20698   7.362   9.903   2.116 -0.0209 -0.2531  0.1068
36325SOL    HW120699   7.420   9.832   2.143  4.4170  1.1624 -4.3681
36325SOL    HW220700   7.403   9.982   2.151 -2.2511  0.5884  1.0219
36326SOL     OW20701  10.897   0.641   4.083  0.5258  0.4757  0.1246
36326SOL    HW120702  10.887   0.731   4.050  1.1974  0.4892 -0.0672
36326SOL    HW220703  10.934   0.652   4.170 -1.1696  0.4356  0.8890
36327SOL     OW20704   9.624  10.644  11.668 -0.3755 -0.0514 -0.0496
36327SOL    HW120705   9.543  10.594  11.680 -0.3834 -0.3574 -1.2405
36327SOL    HW220706   9.598  10.719  11.613 -0.2861  1.0814  1.3889
36328SOL     OW20707   2.370   3.964   4.766 -0.5877 -0.7918 -0.9936
36328SOL    HW120708   2.298   3.960   4.829 -0.1550  1.4084 -0.2954
36328SOL    HW220709   2.433   3.900   4.800 -0.3985  0.2849  0.8161
36329SOL     OW20710   6.739   3.977   5.641  0.1824 -0.3236 -0.2714
36329SOL    HW120711   6.688   3.921   5.699 -0.5212  0.2876 -0.2840
36329SOL    HW220712   6.813   4.006   5.694 -0.8418  0.8182  0.5791
36330SOL     OW20713   5.155   8.762  10.743  0.1110  0.3317 -0.6875
36330SOL    HW120714   5.116   8.797  10.662  1.6876  1.1250 -1.1384
36330SOL    HW220715   5.148   8.834  10.806 -1.2194 -0.3230 -0.0348
36331SOL     OW20716   6.690  11.874   6.179 -0.2080  0.1231  0.1430
36331SOL    HW120717   6.670  11.788   6.217 -0.3868  0.8176  1.7187
36331SOL    HW220718   6.606  11.905   6.146  0.2217 -1.1566 -2.4226
36332SOL     OW20719   9.779   2.804   4.813  0.1739 -0.3378  0.6165
36332SOL    HW120720   9.872   2.825   4.822  0.0578  0.9079 -0.6445
36332SOL    HW220721   9.740   2.827   4.897  0.7565  0.6287  0.6350
36333SOL     OW20722   6.019   6.704   7.278  0.2552  0.0763 -0.0081
36333SOL    HW120723   6.102   6.660   7.296  1.3676  1.7676 -0.7849
36333SOL    HW220724   6.000   6.752   7.359  0.9074  0.9944 -0.3857
36334SOL     OW20725   9.873   2.620   8.873 -0.1927  0.2419 -0.0667
36334SOL    HW120726   9.952   2.566   8.866  1.1642  2.0258  0.8400
36334SOL    HW220727   9.875   2.675   8.795 -1.2885 -0.5892 -0.7116
36335SOL     OW20728   7.770  10.026   5.105 -0.2962 -0.0356  0.0774
36335SOL    HW120729   7.702   9.961   5.124 -2.0304  1.2033 -1.4354
36335SOL    HW220730   7.850   9.988   5.138 -1.4262 -2.4436  0.2512
36336SOL     OW20731   7.694   9.792   6.238  0.4358 -0.1586  0.4131
36336SOL    HW120732   7.673   9.866   6.180 -0.0094 -0.3290  0.3477
36336SOL    HW220733   7.673   9.824   6.326  0.2166 -0.2154  0.3817
36337SOL     OW20734   8.170   2.101   2.416  0.2728  0.6825  0.5182
36337SOL    HW120735   8.155   2.082   2.324  0.3286 -0.2432  0.6926
36337SOL    HW220736   8.220   2.183   2.416  1.3890  0.0187 -0.3251
36338SOL     OW20737   0.246   3.602   8.865 -0.2291 -0.2943  0.2648
36338SOL    HW120738   0.285   3.685   8.839  0.0368 -0.2415  0.8173
36338SOL    HW220739   0.231   3.555   8.782  0.7810 -0.2167  0.0317
36339SOL     OW20740  11.784   3.328   0.339 -0.4633 -0.1292 -0.0500
36339SOL    HW120741  11.780   3.413   0.383 -0.7352  0.2409 -0.7734
36339SOL    HW220742  11.698   3.289   0.354 -1.0515  0.5824 -1.3673
36340SOL     OW20743   6.657   2.995   7.066  0.1271 -0.0895 -0.2772
36340SOL    HW120744   6.586   3.058   7.058  0.3316  0.2651  0.6032
36340SOL    HW220745   6.734   3.047   7.087  1.0750 -0.2684 -2.9197
36341SOL     OW20746   8.368  10.519   1.400  0.1874 -0.5488 -0.3521
36341SOL    HW120747   8.287  10.472   1.420 -0.0535  0.1710  0.3935
36341SOL    HW220748   8.357  10.604   1.441  1.5048 -0.5944  0.1116
36342SOL     OW20749   8.589   9.883  10.204  0.3291  0.0088  0.1763
36342SOL    HW120750   8.558   9.910  10.118  1.2715 -0.7366 -0.4247
36342SOL    HW220751   8.679   9.917  10.208  1.1714 -2.0291 -0.1695
36343SOL     OW20752   8.947  10.849   4.935 -0.5541 -0.1551  0.2600
36343SOL    HW120753   8.902  10.890   5.009  0.2156  0.9250  0.1417
36343SOL    HW220754   8.958  10.920   4.872  0.4739 -0.6345 -0.1059
36344SOL     OW20755   0.615   7.042   5.426  0.1081  0.2143  0.3384
36344SOL    HW120756   0.653   7.033   5.514  0.0128  0.5523  0.4189
36344SOL    HW220757   0.537   6.987   5.428  1.0122 -1.1425 -0.0962
36345SOL     OW20758   4.536   7.207   4.006 -0.2229 -0.1295  0.2058
36345SOL    HW120759   4.472   7.210   4.076  1.7430  1.9840  2.0790
36345SOL    HW220760   4.621   7.204   4.050  1.0759 -2.2527 -2.1474
36346SOL     OW20761  11.609   2.606  11.137  0.1291 -0.0879  0.3370
36346SOL    HW120762  11.537   2.555  11.173 -0.5847  0.0302 -0.8597
36346SOL    HW220763  11.660   2.543  11.087 -0.3581  0.2076 -0.5609
36347SOL     OW20764   0.356   5.190   6.325 -0.7554  0.0106  0.7330
36347SOL    HW120765   0.429   5.144   6.283 -1.8662 -1.2297  0.0732
36347SOL    HW220766   0.279   5.160   6.278 -1.5079  3.3238 -0.3779
36348SOL     OW20767   4.393   7.224   1.214  0.1815  0.1033 -0.7619
36348SOL    HW120768   4.392   7.290   1.282  1.0633  0.5345 -1.1535
36348SOL    HW220769   4.479   7.183   1.220  0.1367 -0.1074 -1.3744
36349SOL     OW20770   9.917  11.666  10.714  0.3162  0.4182 -0.0846
36349SOL    HW120771   9.913  11.660  10.810 -0.8520 -0.2616 -0.1642
36349SOL    HW220772   9.875  11.749  10.693  0.3771  0.4645 -0.0257
36350SOL     OW20773   5.304   7.779   9.946  0.3462  0.2063  0.7011
36350SOL    HW120774   5.260   7.797  10.029 -0.4510  2.2073 -0.0760
36350SOL    HW220775   5.388   7.823   9.953 -0.1181  1.2379  0.1394
36351SOL     OW20776   8.769   1.791   6.719  0.1036  0.0863 -0.1250
36351SOL    HW120777   8.735   1.848   6.649 -0.2277  1.2839  0.9733
36351SOL    HW220778   8.697   1.730   6.736 -0.5566  0.9972  0.4484
36352SOL     OW20779  11.273   0.881   6.870  0.0413 -0.0673  0.6065
36352SOL    HW120780  11.263   0.948   6.937  0.6649  1.4774 -0.7842
36352SOL    HW220781  11.185   0.847   6.856 -0.3841  0.9084  0.8849
36353SOL     OW20782   5.233   8.680   7.315  0.0240 -0.3721  0.6893
36353SOL    HW120783   5.145   8.711   7.336  0.3411  0.2225  1.1707
36353SOL    HW220784   5.221   8.625   7.238 -0.7952 -0.4537  0.8637
36354SOL     OW20785   2.451   7.571  10.559  0.3327 -0.2694  0.4197
36354SOL    HW120786   2.468   7.553  10.651 -0.2649 -0.3566  0.5216
36354SOL    HW220787   2.529   7.541  10.513  0.8726  0.3209  0.9532
36355SOL     OW20788   5.319   8.313  10.451 -0.4794  0.4801  0.1114
36355SOL    HW120789   5.235   8.277  10.424  0.2963 -0.5920 -0.9431
36355SOL    HW220790   5.299   8.403  10.477 -2.0427  0.0589  0.4687
36356SOL     OW20791  11.907   0.508   5.019  0.2233  0.8305 -0.2478
36356SOL    HW120792  11.833   0.553   4.979  0.1783  1.3442  0.3965
36356SOL    HW220793  11.882   0.416   5.021 -1.1111  1.1869  1.4416
36357SOL     OW20794   7.491   4.697  11.839  0.9644 -0.2392  0.0710
36357SOL    HW120795   7.564   4.754  11.815  0.1504  0.4645 -0.8341
36357SOL    HW220796   7.445   4.745  11.908  0.2087  0.2809 -0.7755
36358SOL     OW20797   1.249  10.246   4.791  0.7214 -0.1036  0.0144
36358SOL    HW120798   1.157  10.220   4.791  0.7334 -0.1827  0.7092
36358SOL    HW220799   1.248  10.338   4.765  0.1736  0.6726  2.5020
36359SOL     OW20800   9.068   1.818   2.772 -0.2893  0.3078  0.4879
36359SOL    HW120801   9.148   1.805   2.823 -0.5803  0.4970  0.9966
36359SOL    HW220802   9.054   1.913   2.772 -0.1103  0.3449 -0.2351
36360SOL     OW20803   1.126   9.490   2.713  0.1272  0.1556 -0.4758
36360SOL    HW120804   1.116   9.398   2.691  1.8037 -0.0862 -0.3168
36360SOL    HW220805   1.165   9.530   2.635 -1.0967  0.8698 -0.7562
36361SOL     OW20806   4.477   1.786   2.553 -0.4556 -0.1787 -0.2464
36361SOL    HW120807   4.393   1.750   2.579 -1.5720  0.7770 -2.2767
36361SOL    HW220808   4.478   1.874   2.590 -0.5164 -0.0603 -0.5227
36362SOL     OW20809   1.448   2.795   8.234  0.0071 -0.2596 -0.1116
36362SOL    HW120810   1.525   2.754   8.274  1.2208  0.4089 -1.6708
36362SOL    HW220811   1.420   2.860   8.298 -1.1782 -2.4946  1.8467
36363SOL     OW20812   8.260   5.399   8.322  0.3303  0.0387  0.6681
36363SOL    HW120813   8.317   5.408   8.398  0.5380 -4.4494  1.3482
36363SOL    HW220814   8.171   5.405   8.358  0.3131  2.4351  0.3755
36364SOL     OW20815   7.168   2.007   3.044 -0.2244  0.1968 -0.1205
36364SOL    HW120816   7.093   2.004   3.104 -0.0272 -0.7918  0.0901
36364SOL    HW220817   7.170   1.920   3.004 -1.6547  1.4523 -3.1884
36365SOL     OW20818   6.661   5.652   3.664  0.0010  0.1644  0.4417
36365SOL    HW120819   6.635   5.692   3.581  0.6176  2.4141  1.2422
36365SOL    HW220820   6.719   5.581   3.640 -1.8584 -0.9375 -1.1219
36366SOL     OW20821   6.665  10.508   5.253  0.1822  0.1453  0.1476
36366SOL    HW120822   6.708  10.438   5.204  0.5210  0.3086  0.2103
36366SOL    HW220823   6.720  10.585   5.238  0.9044 -0.0498  1.6745
36367SOL     OW20824   9.511   9.160   5.915  0.6056  0.0454  0.1401
36367SOL    HW120825   9.454   9.097   5.958  0.0911  2.2271  2.9564
36367SOL    HW220826   9.567   9.107   5.858  0.2285 -2.9363  2.3194
36368SOL     OW20827   7.435  10.956  10.212 -0.4865  0.3725  0.6843
36368SOL    HW120828   7.364  11.012  10.244 -0.6958  0.0144  0.8640
36368SOL    HW220829   7.515  10.998  10.243 -0.6159  0.8055  0.4450
36369SOL     OW20830  10.901   8.991   6.583 -0.1421 -0.1049  0.1007
36369SOL    HW120831  10.985   8.969   6.623 -0.6151 -1.0642  0.5986
36369SOL    HW220832  10.860   9.051   6.646  0.1586  0.3557 -0.1373
36370SOL     OW20833   7.391   7.558   7.445  0.3014  0.5312 -0.4085
36370SOL    HW120834   7.340   7.631   7.409 -0.9400  0.1300  0.4615
36370SOL    HW220835   7.443   7.597   7.515  0.1827  0.7080 -0.4189
36371SOL     OW20836   5.159   5.655  11.761  0.0636 -0.2558  0.1905
36371SOL    HW120837   5.188   5.746  11.755  1.6408 -0.7434 -0.2329
36371SOL    HW220838   5.111   5.651  11.844  0.3599  0.8569  0.4384
36372SOL     OW20839  11.030  10.934  11.132 -0.1710  0.1754 -0.2702
36372SOL    HW120840  11.057  10.844  11.113  0.5793  0.2968  0.2114
36372SOL    HW220841  10.935  10.934  11.118 -0.1533 -0.6562 -0.4038
36373SOL     OW20842  10.092   7.241   1.455 -0.2292 -0.0601  0.6655
36373SOL    HW120843  10.061   7.278   1.372 -2.1579 -1.6518  0.5971
36373SOL    HW220844  10.160   7.178   1.429  0.2668  0.5547  0.4502
36374SOL     OW20845   2.899   3.411   3.181 -0.3990  0.0423  0.2059
36374SOL    HW120846   2.943   3.493   3.158  0.0802 -0.4969 -0.8892
36374SOL    HW220847   2.806   3.431   3.177 -0.2871  0.5200 -0.1139
36375SOL     OW20848   8.018   5.565   6.964  0.3874 -0.0479  0.0142
36375SOL    HW120849   8.041   5.474   6.945 -1.8357 -0.7886  0.5785
36375SOL    HW220850   8.074   5.589   7.037  1.0551 -0.9174 -0.1933
36376SOL     OW20851   6.831   4.184   8.313 -0.8807  0.4481 -0.3085
36376SOL    HW120852   6.806   4.226   8.231  1.0768 -2.2155 -2.4745
36376SOL    HW220853   6.794   4.096   8.308  0.3928 -0.2197  1.0361
36377SOL     OW20854   4.784   9.559   3.824  0.5625  0.5200 -0.3613
36377SOL    HW120855   4.772   9.636   3.879 -1.5591  0.6319 -0.8820
36377SOL    HW220856   4.860   9.515   3.861  0.5409  1.7430  1.2785
36378SOL     OW20857   3.139   1.646  11.210  0.6880  0.4087 -0.1175
36378SOL    HW120858   3.164   1.612  11.124  0.0541  0.1118 -0.1923
36378SOL    HW220859   3.138   1.568  11.266 -1.4413  0.1620 -0.4420
36379SOL     OW20860   2.008   7.985  10.730  0.2715  0.0395  0.0744
36379SOL    HW120861   2.067   7.963  10.802  1.8580  2.2469 -0.4565
36379SOL    HW220862   2.040   7.932  10.657 -0.5466 -1.2557  0.6245
36380SOL     OW20863   8.601   5.937   8.683 -0.6837 -0.0442 -0.1787
36380SOL    HW120864   8.514   5.973   8.699 -0.9377 -0.1358 -1.2741
36380SOL    HW220865   8.618   5.880   8.757 -1.9384 -0.7365 -0.4001
36381SOL     OW20866   8.355   6.937  11.210  0.2788 -0.2118  0.5237
36381SOL    HW120867   8.302   6.994  11.267  0.2925  0.6825 -0.3450
36381SOL    HW220868   8.357   6.982  11.126  1.5280 -0.7730  0.2321
36382SOL     OW20869   1.475   7.590   7.170 -1.0446 -0.3764 -0.4845
36382SOL    HW120870   1.508   7.565   7.257 -0.0437  1.0081 -0.4283
36382SOL    HW220871   1.401   7.532   7.155 -0.4861 -1.4741  0.7721
36383SOL     OW20872   5.427   2.924   7.093 -0.1300  0.4291  0.1910
36383SOL    HW120873   5.425   2.974   7.175  1.4156 -0.6841  0.9593
36383SOL    HW220874   5.417   2.833   7.120  0.9123 -0.0051 -0.7930
36384SOL     OW20875   3.214   7.341   1.118  0.5397  0.2274  0.4187
36384SOL    HW120876   3.146   7.290   1.163 -1.4637  1.0209 -1.4760
36384SOL    HW220877   3.229   7.417   1.174  0.9542 -0.6771  1.5602
36385SOL     OW20878   2.480   1.245  10.392 -0.4872 -0.1962  0.8035
36385SOL    HW120879   2.401   1.260  10.443  0.1989  0.7921  1.6369
36385SOL    HW220880   2.482   1.318  10.330 -1.4839 -1.5675 -0.8986
36386SOL     OW20881   0.302  11.455  11.122  0.1325  0.0777 -0.1121
36386SOL    HW120882   0.246  11.429  11.050 -1.2177 -0.2799  1.0203
36386SOL    HW220883   0.378  11.397  11.117 -0.2930 -0.4176 -0.7925
36387SOL     OW20884   2.420   2.374   5.462  1.0425  0.1080 -0.9246
36387SOL    HW120885   2.418   2.446   5.399 -0.8583  0.7161 -0.2520
36387SOL    HW220886   2.400   2.296   5.409  4.4947 -0.2668 -1.9116
36388SOL     OW20887   2.047   9.664   5.004  0.2991 -0.2996 -0.1977
36388SOL    HW120888   2.116   9.724   5.034 -0.8165  1.9587 -1.8100
36388SOL    HW220889   2.082   9.626   4.923  0.9682 -1.8572  0.7758
36389SOL     OW20890   1.959   8.825  10.213 -0.1460 -0.6419 -0.0089
36389SOL    HW120891   1.976   8.918  10.200 -0.8113 -0.3957  0.8018
36389SOL    HW220892   1.929   8.794  10.128 -1.6836  0.2975  0.1554
36390SOL     OW20893   4.995  10.606   4.309  0.2645 -0.2768 -0.3614
36390SOL    HW120894   4.989  10.563   4.394 -0.4408  1.0509  0.2868
36390SOL    HW220895   5.089  10.621   4.296  0.2767  0.8944  0.9156
36391SOL     OW20896   4.854   9.754   8.296 -0.4105  0.0145 -0.0075
36391SOL    HW120897   4.859   9.842   8.333 -0.5983 -0.5680  1.4450
36391SOL    HW220898   4.921   9.754   8.227 -0.7950  1.4608 -0.4200
36392SOL     OW20899   9.033   2.609   2.118  0.0644 -0.0521 -0.7817
36392SOL    HW120900   9.045   2.648   2.205  0.4876 -0.6551 -0.5678
36392SOL    HW220901   9.042   2.683   2.058 -1.7063  0.6553 -0.2527
36393SOL     OW20902  11.209   1.975   1.601 -0.1522  0.2973 -0.1622
36393SOL    HW120903  11.134   1.942   1.551  0.5408 -1.4709 -0.0946
36393SOL    HW220904  11.285   1.949   1.549  0.4702  0.8261  0.4750
36394SOL     OW20905   3.487   4.770   0.282 -0.0223 -0.6053  0.3850
36394SOL    HW120906   3.528   4.836   0.226  1.0897 -0.2670  1.5390
36394SOL    HW220907   3.394   4.774   0.260  0.3735 -0.4979 -1.4106
36395SOL     OW20908   9.293   3.699   7.511  0.0888 -0.0322 -0.3593
36395SOL    HW120909   9.246   3.736   7.437 -0.8651 -0.0796  0.2162
36395SOL    HW220910   9.381   3.736   7.504 -0.5262  1.5028 -0.4139
36396SOL     OW20911   5.465   8.373   5.745 -0.1658  0.9966 -0.0278
36396SOL    HW120912   5.431   8.283   5.742 -0.8361  1.2704 -2.5483
36396SOL    HW220913   5.553   8.367   5.707  0.2046  1.2552  0.7733
36397SOL     OW20914   7.367   8.143   8.850  0.2436 -0.3741  0.2324
36397SOL    HW120915   7.370   8.150   8.945 -1.0826  1.1282  0.2153
36397SOL    HW220916   7.450   8.182   8.821  0.1441  0.2648  0.7607
36398SOL     OW20917  11.776   3.057   3.379 -0.2227 -0.2500 -0.0075
36398SOL    HW120918  11.855   3.016   3.414  0.3667 -2.7690 -3.7263
36398SOL    HW220919  11.705   3.021   3.433  0.8672 -0.5325  1.2974
36399SOL     OW20920   5.910  10.163   3.390 -0.3796 -0.3326  0.4301
36399SOL    HW120921   5.980  10.187   3.330 -0.2446 -1.1043  0.2752
36399SOL    HW220922   5.880  10.078   3.359 -0.8026 -0.4021  1.0194
36400SOL     OW20923   7.477   1.659   7.289 -0.8214  0.3944 -0.0867
36400SOL    HW120924   7.534   1.702   7.352 -0.4710  1.0328 -0.8335
36400SOL    HW220925   7.416   1.608   7.343 -1.4799  2.0957  0.8417
36401SOL     OW20926  11.049  10.172   6.429  0.3276  0.2546 -0.2354
36401SOL    HW120927  11.097  10.251   6.406  0.1550  0.6473  0.7069
36401SOL    HW220928  11.114  10.116   6.472  0.6790 -0.5281 -1.6810
36402SOL     OW20929   0.760   5.528   5.443  0.0130  0.2057  0.2098
36402SOL    HW120930   0.723   5.584   5.375  0.3885  0.6761  0.3818
36402SOL    HW220931   0.855   5.529   5.425  0.0427 -0.2192  0.3319
36403SOL     OW20932   6.003   2.149   9.047  0.4803  0.2004 -0.5059
36403SOL    HW120933   6.004   2.125   9.140 -0.7291  1.0978 -0.2406
36403SOL    HW220934   5.987   2.244   9.047 -0.1280  0.1107 -1.6528
36404SOL     OW20935   2.292   7.741   3.828 -0.5577 -0.8950 -0.0737
36404SOL    HW120936   2.306   7.647   3.819  1.1895 -0.7229  0.5353
36404SOL    HW220937   2.307   7.776   3.740 -0.2652 -1.0840 -0.1012
36405SOL     OW20938   7.347   0.836   7.731 -0.0847  0.0188  0.0941
36405SOL    HW120939   7.317   0.760   7.680  0.9024  0.5908 -1.3975
36405SOL    HW220940   7.396   0.889   7.669  0.2017  1.3386  1.3898
36406SOL     OW20941   4.215   5.043   5.964  0.3013 -0.4399  0.0674
36406SOL    HW120942   4.129   5.056   5.925 -0.0135 -0.2480  0.8093
36406SOL    HW220943   4.245   4.960   5.928  0.3624  0.0933 -1.1774
36407SOL     OW20944  11.623   1.735   1.095 -0.7245  0.2469  0.3151
36407SOL    HW120945  11.685   1.680   1.048  1.1097  1.1530  1.5181
36407SOL    HW220946  11.594   1.681   1.169 -0.6364  0.1405  0.2718
36408SOL     OW20947  10.699   9.460  11.229 -0.0030  0.3635  0.0915
36408SOL    HW120948  10.639   9.492  11.161 -0.0371  0.4085  0.1444
36408SOL    HW220949  10.755   9.535  11.249  0.7908  0.0112 -0.7503
36409SOL     OW20950   8.316   3.547   1.226  0.1360  0.4023  0.3641
36409SOL    HW120951   8.340   3.480   1.291 -1.4881 -0.7101 -0.0992
36409SOL    HW220952   8.225   3.527   1.206 -0.1604  2.3436 -0.3530
36410SOL     OW20953  10.762   4.863   8.432  0.5440  0.4668  0.3183
36410SOL    HW120954  10.847   4.876   8.389  0.2389 -0.3783 -0.5728
36410SOL    HW220955  10.771   4.908   8.516  2.0319  0.0120  0.4306
36411SOL     OW20956   4.673   4.732   1.126  0.3249  0.3215  0.2067
36411SOL    HW120957   4.665   4.789   1.049  0.4405 -2.1481 -1.7418
36411SOL    HW220958   4.584   4.703   1.145  0.5568 -0.8413 -0.4310
36412SOL     OW20959   6.889   8.098  11.818 -0.1777 -0.4044 -0.3305
36412SOL    HW120960   6.869   8.052  11.899 -0.8838  1.8295  0.8379
36412SOL    HW220961   6.805   8.107  11.773  0.1898 -1.5158 -1.2772
36413SOL     OW20962   2.520   8.322   0.499 -0.1192 -0.8992 -0.0654
36413SOL    HW120963   2.503   8.246   0.444 -0.2746  0.2940 -1.7155
36413SOL    HW220964   2.546   8.284   0.584 -0.7339 -2.7675 -0.6579
36414SOL     OW20965   6.945   4.542   3.766  0.3656 -0.1964  0.3617
36414SOL    HW120966   6.979   4.632   3.766  1.3062 -0.5164 -1.1179
36414SOL    HW220967   6.995   4.497   3.833  1.1479 -0.0425 -0.1077
36415SOL     OW20968  10.846   7.852   7.182  0.2144  0.3017 -0.2074
36415SOL    HW120969  10.836   7.829   7.090  2.2170 -1.3629 -0.0815
36415SOL    HW220970  10.844   7.948   7.183 -0.1979  0.3433 -1.9337
36416SOL     OW20971   9.415   5.462   7.985 -0.1870  0.0445  0.1774
36416SOL    HW120972   9.510   5.460   7.985 -0.1936 -0.2808  0.1527
36416SOL    HW220973   9.392   5.540   7.935  0.0935  1.3694  2.0031
36417SOL     OW20974   4.556   4.271   0.777  0.5465  0.2324  0.1399
36417SOL    HW120975   4.464   4.249   0.791  1.0793 -1.1874  1.7851
36417SOL    HW220976   4.574   4.340   0.841  0.1459  2.0781 -1.6355
36418SOL     OW20977   8.982   7.996   1.023 -0.2097 -0.1761 -0.0628
36418SOL    HW120978   9.075   8.013   1.040 -0.4231  0.0554  0.9504
36418SOL    HW220979   8.973   8.003   0.928  0.3895  2.0077 -0.0184
36419SOL     OW20980   7.398   2.379  11.289 -0.0360 -0.2442  0.0919
36419SOL    HW120981   7.344   2.346  11.218 -1.8717  1.2724  0.7059
36419SOL    HW220982   7.388   2.474  11.285  0.5909 -0.0752  1.7640
36420SOL     OW20983   5.777   8.914   0.638 -0.1353 -0.1024  0.7080
36420SOL    HW120984   5.692   8.873   0.627  0.3775 -1.2138  0.7089
36420SOL    HW220985   5.819   8.907   0.552  0.0892  0.1021  0.7993
36421SOL     OW20986   7.872   9.981   1.692 -0.3391  0.0153  0.0681
36421SOL    HW120987   7.816   9.919   1.645 -0.4610 -0.1690  0.4528
36421SOL    HW220988   7.827  10.065   1.684 -1.4375 -0.3826  1.5888
36422SOL     OW20989   8.834   3.578  10.860 -0.0391 -0.2680 -0.6239
36422SOL    HW120990   8.791   3.632  10.925 -2.7425 -2.3355 -0.5366
36422SOL    HW220991   8.857   3.639  10.789 -0.3284  1.3970  0.6584
36423SOL     OW20992   9.681   5.037   7.005 -0.0675  0.5521  0.5679
36423SOL    HW120993   9.704   5.008   7.093 -0.5807  0.5302  0.6967
36423SOL    HW220994   9.623   5.112   7.019  0.1404  0.7719  0.2485
36424SOL     OW20995  10.203   6.582   0.223 -0.2080  0.0913  0.1986
36424SOL    HW120996  10.129   6.538   0.264 -1.1497 -0.2340 -1.7564
36424SOL    HW220997  10.224   6.528   0.147  2.3352 -0.0607  0.9167
36425SOL     OW20998   5.291   4.977   0.162 -0.5412 -0.2315 -0.1365
36425SOL    HW120999   5.327   4.890   0.149 -1.3039 -1.0724  2.6512
36425SOL    HW221000   5.203   4.973   0.124 -0.1016 -0.2172 -1.1845
36426SOL     OW21001   3.576   0.746   6.812  0.0177 -0.8891 -0.3130
36426SOL    HW121002   3.632   0.774   6.884  2.6983  0.5669 -2.7437
36426SOL    HW221003   3.572   0.651   6.820  1.8599 -0.9264  0.6866
36427SOL     OW21004   2.095   6.354   9.611  0.1012  0.4955 -0.4013
36427SOL    HW121005   2.019   6.412   9.618 -0.0628  0.3486 -0.9232
36427SOL    HW221006   2.138   6.380   9.530  0.3379  0.2605 -0.3521
36428SOL     OW21007   8.238   2.810   8.891 -0.1342 -0.8369  0.1568
36428SOL    HW121008   8.230   2.876   8.961  2.5899  0.8396 -0.9678
36428SOL    HW221009   8.214   2.857   8.811 -1.8902 -2.3600 -0.2698
36429SOL     OW21010   5.811   4.458  10.002 -0.1596  0.4163  0.0136
36429SOL    HW121011   5.788   4.487  10.091 -1.2399  2.9054 -0.9769
36429SOL    HW221012   5.729   4.423   9.966  0.4827 -1.4251  0.2283
36430SOL     OW21013   8.272   9.730  11.106  0.2615  0.6737 -0.2249
36430SOL    HW121014   8.340   9.707  11.042 -1.3542 -0.1366 -1.7230
36430SOL    HW221015   8.241   9.645  11.138 -0.7724  0.9896 -0.3639
36431SOL     OW21016   6.748   7.160   3.722 -0.4099 -0.2143 -0.4439
36431SOL    HW121017   6.824   7.185   3.670  1.4449 -2.8218  0.7819
36431SOL    HW221018   6.703   7.094   3.669 -0.9357  0.1945 -0.5113
36432SOL     OW21019  10.551   7.588   0.482 -0.4113 -0.3126  0.2294
36432SOL    HW121020  10.500   7.668   0.468  0.5825  0.1664 -0.7460
36432SOL    HW221021  10.535   7.565   0.574 -0.8205  0.9225  0.4785
36433SOL     OW21022   1.974   0.978   4.355  0.2878 -0.3276  0.3048
36433SOL    HW121023   1.910   1.048   4.368  1.1005  0.0380  2.9278
36433SOL    HW221024   2.025   1.005   4.279 -1.2472  0.4677 -0.4731
36434SOL     OW21025   0.789   2.262  11.822 -0.6950  0.5808  0.2886
36434SOL    HW121026   0.785   2.170  11.850 -0.3135  1.2045  2.6021
36434SOL    HW221027   0.834   2.259  11.738  0.4892 -1.2601  0.9157
36435SOL     OW21028   1.995  11.560   1.833  0.4318  0.3351 -0.3103
36435SOL    HW121029   2.088  11.542   1.827  0.2778 -0.7735  0.4832
36435SOL    HW221030   1.987  11.627   1.901  0.7274  1.2865 -1.1753
36436SOL     OW21031   5.180   1.753  10.871 -0.0397  0.0699  0.0813
36436SOL    HW121032   5.100   1.701  10.875 -1.7725  2.5405  0.1257
36436SOL    HW221033   5.218   1.745  10.959  0.3361 -1.8939 -0.2186
36437SOL     OW21034   1.716   3.824   3.632  0.1865 -0.2090  0.4152
36437SOL    HW121035   1.774   3.755   3.666 -1.4450 -1.4512  0.8289
36437SOL    HW221036   1.629   3.784   3.634 -0.5599  1.2292 -1.1530
36438SOL     OW21037   7.109   5.746   5.837 -0.0920 -0.3836  0.0018
36438SOL    HW121038   7.140   5.814   5.897 -0.0051  0.0421 -0.5264
36438SOL    HW221039   7.128   5.779   5.750 -2.5665  0.1950 -0.4030
36439SOL     OW21040   1.014  11.888   7.219 -0.2514 -0.5807  0.0061
36439SOL    HW121041   0.944  11.950   7.240  1.0104  0.6293  0.8833
36439SOL    HW221042   1.027  11.897   7.124  0.0405  0.6691  0.1515
36440SOL     OW21043   6.446   0.132   5.751  0.0388 -0.0330 -0.0506
36440SOL    HW121044   6.378   0.107   5.814  0.9792  0.2641  1.1154
36440SOL    HW221045   6.398   0.171   5.678 -1.0359  0.3217  0.8268
36441SOL     OW21046   2.181   5.905   0.085 -0.1868 -0.0647 -0.3042
36441SOL    HW121047   2.130   5.824   0.076  0.9856 -0.7262 -1.1818
36441SOL    HW221048   2.192   5.937  -0.005 -2.0518  2.0185  0.1205
36442SOL     OW21049   2.598   9.193   9.093  0.0968  0.2154  0.6301
36442SOL    HW121050   2.687   9.226   9.083  0.3440 -0.0036  1.8870
36442SOL    HW221051   2.557   9.206   9.007  1.6433 -0.6441 -0.2793
36443SOL     OW21052   5.459  11.796   4.892 -0.5722 -0.3227 -0.0927
36443SOL    HW121053   5.495  11.765   4.809  0.6023  2.4022 -0.6985
36443SOL    HW221054   5.408  11.873   4.869 -0.0168  0.6503  1.7116
36444SOL     OW21055   8.294   4.515   8.849 -0.2759  0.1833  0.4910
36444SOL    HW121056   8.258   4.455   8.915  0.1197 -0.8046 -0.1604
36444SOL    HW221057   8.372   4.469   8.816 -0.1344  0.9346 -0.2384
36445SOL     OW21058  10.210   9.449   6.051 -0.4302  0.2677  0.3897
36445SOL    HW121059  10.155   9.431   5.975  0.1029  0.4210 -0.0455
36445SOL    HW221060  10.247   9.536   6.033  1.0829 -0.4236 -0.0396
36446SOL     OW21061   3.602   8.615   8.356  0.2438 -0.9722 -0.0789
36446SOL    HW121062   3.650   8.652   8.283  1.2971 -2.3421 -0.1252
36446SOL    HW221063   3.643   8.530   8.371 -0.3606 -0.9970  1.6924
36447SOL     OW21064   1.973   2.314   9.581  0.2214  0.5745 -0.0191
36447SOL    HW121065   1.936   2.397   9.552  0.7150  0.2831 -1.6032
36447SOL    HW221066   1.956   2.254   9.509 -0.5018 -0.8313  1.2736
36448SOL     OW21067  11.208  11.634  11.858  0.0330  0.6204  0.2249
36448SOL    HW121068  11.127  11.646  11.906  0.2139 -1.5953  1.2333
36448SOL    HW221069  11.236  11.722  11.834 -1.6520  1.5623  1.5310
36449SOL     OW21070   1.970   5.937   3.674 -0.1673  0.1344 -0.6645
36449SOL    HW121071   1.975   5.843   3.658  1.2230  0.3572 -1.7901
36449SOL    HW221072   1.979   5.977   3.587 -0.2501  1.3093 -0.1549
36450SOL     OW21073   4.205   3.883   0.101 -0.1226  0.2326  0.8694
36450SOL    HW121074   4.154   3.902   0.022 -1.4594 -0.3165  1.5667
36450SOL    HW221075   4.260   3.809   0.077  0.6670  1.0837 -0.0201
36451SOL     OW21076   7.610   0.247  11.084  0.4754 -0.0074  0.0848
36451SOL    HW121077   7.662   0.324  11.108  1.8986 -1.3066  1.3795
36451SOL    HW221078   7.659   0.205  11.014  0.3442 -0.4059  0.2284
36452SOL     OW21079   9.420  11.918  11.446  0.5199 -0.1000  0.2751
36452SOL    HW121080   9.436  12.012  11.445  1.3493 -0.0909  3.2416
36452SOL    HW221081   9.507  11.879  11.431  0.3130 -0.3861 -0.1863
36453SOL     OW21082  11.668   2.921   1.847  0.1826  0.0305 -0.1248
36453SOL    HW121083  11.626   2.994   1.893 -0.5762 -0.3253 -0.2279
36453SOL    HW221084  11.597   2.858   1.834  0.6543 -0.3856 -0.7276
36454SOL     OW21085  10.879   5.328   5.209 -0.5874  0.5629 -0.3149
36454SOL    HW121086  10.851   5.270   5.280 -1.0205 -0.9666 -1.6796
36454SOL    HW221087  10.816   5.400   5.211  0.4613  1.5200  1.9580
36455SOL     OW21088   3.186  10.760   7.691 -0.0429 -0.1583  0.4432
36455SOL    HW121089   3.260  10.743   7.749  1.5962 -1.0712 -1.7562
36455SOL    HW221090   3.147  10.673   7.678  0.2679 -0.1543 -0.6003
36456SOL     OW21091   7.649   1.187   5.459 -0.1412  0.1030 -1.0821
36456SOL    HW121092   7.606   1.130   5.524 -0.5359  0.7371 -0.7748
36456SOL    HW221093   7.611   1.274   5.475  1.7259  0.8486 -0.3358
36457SOL     OW21094   7.304  11.279   9.486  0.5110  0.2405  0.1363
36457SOL    HW121095   7.339  11.366   9.505  1.4466  0.1075 -0.8294
36457SOL    HW221096   7.355  11.250   9.410 -0.8749 -0.4939 -0.5459
36458SOL     OW21097   2.444   0.428   1.293 -0.0881  0.0798  0.2987
36458SOL    HW121098   2.402   0.466   1.371  0.8684 -0.2955  1.0179
36458SOL    HW221099   2.534   0.411   1.320  0.1638 -0.4023 -0.7875
36459SOL     OW21100   7.230  11.444   8.322 -0.1449 -0.1253  0.5021
36459SOL    HW121101   7.175  11.461   8.245 -1.7957  0.6136  1.7627
36459SOL    HW221102   7.176  11.387   8.377  0.6430  0.0445  1.4805
36460SOL     OW21103   1.447   4.999   4.476 -0.1208 -0.7795  0.3914
36460SOL    HW121104   1.450   5.094   4.473 -1.1051 -0.7055  1.2356
36460SOL    HW221105   1.439   4.977   4.569  1.6880 -1.7593  0.3589
36461SOL     OW21106   3.990   0.408  10.903  0.5003 -0.4417  0.7263
36461SOL    HW121107   4.022   0.321  10.880  1.6459 -0.0825  0.8865
36461SOL    HW221108   4.070   0.460  10.916 -0.1594  0.8835 -0.3036
36462SOL     OW21109   1.904   2.974   3.318 -0.3929  0.0430  0.1327
36462SOL    HW121110   1.823   2.931   3.291  0.1281 -1.2128  0.4924
36462SOL    HW221111   1.909   3.052   3.263 -1.1820 -0.5512 -0.8209
36463SOL     OW21112   8.750   4.505  11.187  0.6753 -0.0879 -0.1342
36463SOL    HW121113   8.844   4.502  11.199  0.7309  0.0601 -0.5153
36463SOL    HW221114   8.734   4.451  11.109  0.4523 -0.0501 -0.1153
36464SOL     OW21115   4.379   2.073   6.420 -0.3316 -0.7568 -0.1772
36464SOL    HW121116   4.436   2.074   6.343  0.7252 -0.6491  0.5849
36464SOL    HW221117   4.290   2.073   6.384  0.1042  1.1389 -1.3911
36465SOL     OW21118  10.156   2.580  10.574  0.1218  0.2343 -0.2105
36465SOL    HW121119  10.230   2.538  10.529  2.7213  2.0720  1.9812
36465SOL    HW221120  10.109   2.626  10.504  0.8472 -1.2473 -1.7356
36466SOL     OW21121   3.263  11.406   7.364 -0.5292 -0.3914 -0.2823
36466SOL    HW121122   3.265  11.464   7.288 -1.0820  0.6770  0.4978
36466SOL    HW221123   3.339  11.433   7.416 -1.0341 -0.0648  0.2917
36467SOL     OW21124   3.257   0.534   6.033 -0.3482 -0.0657  0.4938
36467SOL    HW121125   3.261   0.440   6.018 -0.1621  0.1402 -0.8547
36467SOL    HW221126   3.258   0.543   6.128  2.4632 -1.3071  0.6696
36468SOL     OW21127   5.559   4.044  10.051 -0.2394  0.4714 -0.0840
36468SOL    HW121128   5.644   4.074  10.019  0.8088 -2.4272 -0.3170
36468SOL    HW221129   5.510   4.022   9.972  0.4372 -1.8039  0.0455
36469SOL     OW21130   6.720   8.772   6.735 -0.3467  0.2062 -0.0207
36469SOL    HW121131   6.704   8.790   6.828 -0.8215  1.7012 -0.3615
36469SOL    HW221132   6.650   8.712   6.709 -0.3158 -0.0748  0.5425
36470SOL     OW21133   1.772   7.779   7.342  0.6646  0.1089  0.2042
36470SOL    HW121134   1.832   7.724   7.291 -1.1306 -1.3071 -0.4684
36470SOL    HW221135   1.697   7.723   7.359 -0.9727  2.1600  0.0647
36471SOL     OW21136   9.151   7.372   3.748  0.1943  0.2443  0.3923
36471SOL    HW121137   9.069   7.415   3.727 -0.2521 -1.3285 -1.3091
36471SOL    HW221138   9.197   7.434   3.805 -1.5964  1.6879  0.3375
36472SOL     OW21139   4.512   5.781   6.895  0.4494 -0.0633  0.6676
36472SOL    HW121140   4.421   5.787   6.926 -1.0052 -0.0164 -3.0911
36472SOL    HW221141   4.549   5.867   6.913 -1.7034  1.4246 -1.4838
36473SOL     OW21142   4.489   5.226  11.562  0.4642  0.0013 -0.5519
36473SOL    HW121143   4.435   5.293  11.519 -2.3917 -0.8458  1.4100
36473SOL    HW221144   4.495   5.256  11.653 -0.1199 -1.9449  0.1608
36474SOL     OW21145   2.343  11.668   8.443 -0.5726 -0.4694 -0.2079
36474SOL    HW121146   2.345  11.611   8.366 -1.4693 -1.9238  0.7854
36474SOL    HW221147   2.414  11.635   8.498 -0.5338 -0.0414 -0.0012
36475SOL     OW21148   4.618   7.633   0.684  0.2702 -0.0127 -0.2929
36475SOL    HW121149   4.557   7.628   0.758 -0.2111  1.1307 -0.5767
36475SOL    HW221150   4.702   7.656   0.724  0.8399 -2.6888  0.2215
36476SOL     OW21151   4.597   4.832   2.569  0.3646  0.5723 -0.2828
36476SOL    HW121152   4.647   4.762   2.611 -1.0153  0.0147  0.4853
36476SOL    HW221153   4.554   4.790   2.494 -0.3027  0.6405  0.0581
36477SOL     OW21154   2.942   3.166   1.399  0.2763  0.3542  0.3928
36477SOL    HW121155   2.913   3.093   1.345  0.6546 -0.3845  1.1628
36477SOL    HW221156   2.969   3.126   1.481  1.3807  1.2491  0.4976
36478SOL     OW21157   5.458   1.061   7.435 -0.0017 -0.1306  0.0156
36478SOL    HW121158   5.511   1.082   7.512  1.2166  1.8893 -1.3084
36478SOL    HW221159   5.428   1.145   7.402 -1.6905 -1.0500 -0.9467
36479SOL     OW21160   3.004   6.162   3.545 -0.4984  0.1840 -0.2179
36479SOL    HW121161   2.910   6.176   3.556 -0.7310 -1.8280  0.9309
36479SOL    HW221162   3.046   6.222   3.607 -1.1869 -0.8178  1.2682
36480SOL     OW21163   1.862   5.819   7.605  0.4182 -0.6134  0.1212
36480SOL    HW121164   1.891   5.799   7.516  0.0687 -1.5741  0.2142
36480SOL    HW221165   1.767   5.810   7.601  0.2361  1.0228  0.1875
36481SOL     OW21166   4.367   7.826  10.425 -0.2000 -0.4397  0.5072
36481SOL    HW121167   4.296   7.852  10.366  1.5856  2.1361 -0.6645
36481SOL    HW221168   4.444   7.821  10.370  0.9937 -0.8320  2.1382
36482SOL     OW21169   4.534   1.441   9.952  0.0169  0.3405 -0.1504
36482SOL    HW121170   4.585   1.361   9.948  1.5589  1.1759  1.3998
36482SOL    HW221171   4.512   1.461   9.860 -0.0891 -1.6110 -0.5817
36483SOL     OW21172   7.407   8.291   0.868 -0.5100  0.3857 -0.0539
36483SOL    HW121173   7.431   8.221   0.806 -1.6519  0.3375 -0.4552
36483SOL    HW221174   7.485   8.346   0.872 -0.0932 -0.1260 -0.8318
36484SOL     OW21175  11.752   9.964   7.659 -0.1733 -0.2117 -0.0495
36484SOL    HW121176  11.797  10.049   7.657  2.1162 -1.3159  0.5836
36484SOL    HW221177  11.816   9.904   7.697 -1.5708 -2.3292 -0.8330
36485SOL     OW21178   5.809   8.867   0.931  0.5659  0.0965  0.0196
36485SOL    HW121179   5.713   8.867   0.926  0.4230 -0.9206  1.8515
36485SOL    HW221180   5.838   8.857   0.840 -1.1130 -2.3782 -0.3343
36486SOL     OW21181   4.899   7.027   6.531 -0.1570  0.2446  0.0271
36486SOL    HW121182   4.963   6.964   6.497  0.6738  0.6026  0.8705
36486SOL    HW221183   4.828   7.027   6.467  0.7458 -0.0787 -0.9985
36487SOL     OW21184  11.340   7.447  10.776 -0.0992 -0.2479 -0.0943
36487SOL    HW121185  11.253   7.486  10.787  0.9570  2.7984 -1.4072
36487SOL    HW221186  11.362   7.464  10.684  3.0676  2.0104  0.9032
36488SOL     OW21187   3.452   5.882  10.450  0.1387 -0.4866 -0.2647
36488SOL    HW121188   3.492   5.808  10.403  1.2693 -1.2459  1.7439
36488SOL    HW221189   3.478   5.868  10.541 -2.5089  0.5264  0.7314
36489SOL     OW21190   7.713   9.827   0.493 -0.1991  0.1249  0.2202
36489SOL    HW121191   7.617   9.830   0.487 -0.1916  1.6332  0.5738
36489SOL    HW221192   7.733   9.733   0.490 -1.6591 -0.2131 -0.1377
36490SOL     OW21193   7.422   5.560   2.840 -0.1100  0.5486  0.0853
36490SOL    HW121194   7.329   5.568   2.861 -0.3747 -2.1536  0.3498
36490SOL    HW221195   7.452   5.486   2.893  1.7831  0.3386 -1.1920
36491SOL     OW21196   9.091   9.286  10.360 -0.1054  0.7633 -0.2191
36491SOL    HW121197   9.151   9.360  10.358 -2.4739  2.9586  1.9012
36491SOL    HW221198   9.054   9.288  10.449 -0.6268 -2.7458 -0.2156
36492SOL     OW21199   9.550   8.225   8.766  0.2517  0.1820  0.4659
36492SOL    HW121200   9.458   8.244   8.786 -0.0468 -0.3853 -0.2726
36492SOL    HW221201   9.577   8.164   8.835 -0.0850 -0.0461  0.4001
36493SOL     OW21202   5.218   5.138  10.242  0.3312 -0.0916 -0.1172
36493SOL    HW121203   5.171   5.150  10.159 -1.1331 -0.5395  0.6197
36493SOL    HW221204   5.251   5.048  10.237 -0.0816 -0.2496 -0.0674
36494SOL     OW21205  11.179   6.032   2.413 -0.0061  0.4311  0.6022
36494SOL    HW121206  11.250   5.978   2.447  0.4327  1.6388  1.6522
36494SOL    HW221207  11.221   6.114   2.387 -0.4903 -0.0165 -1.9270
36495SOL     OW21208   8.584   5.771   3.242 -0.0064  0.0924 -0.7422
36495SOL    HW121209   8.674   5.749   3.218 -0.2937 -0.7037 -1.1229
36495SOL    HW221210   8.579   5.866   3.229  1.2357  0.4325  0.8489
36496SOL     OW21211   5.861   0.325  10.092 -0.6076 -0.4064  0.4792
36496SOL    HW121212   5.806   0.252  10.063 -1.0718 -0.0043  0.3416
36496SOL    HW221213   5.950   0.288  10.094 -0.6457 -0.6215 -0.8697
36497SOL     OW21214   0.193   1.361   6.024  0.6833 -0.0487 -0.2954
36497SOL    HW121215   0.271   1.343   6.077 -0.4298  1.0809  1.8237
36497SOL    HW221216   0.213   1.321   5.939  3.3046 -0.3303  0.3575
36498SOL     OW21217   8.674   7.542  10.354  0.4824 -0.3802  0.3461
36498SOL    HW121218   8.768   7.528  10.353  0.9551  2.2090  1.1315
36498SOL    HW221219   8.636   7.454  10.345  2.9263 -1.3827 -0.9226
36499SOL     OW21220  10.130   1.499  11.615 -0.0168 -0.0642  0.0074
36499SOL    HW121221  10.040   1.481  11.589  0.0623 -0.2146 -0.1728
36499SOL    HW221222  10.157   1.421  11.665 -0.2545  0.3436  0.7795
36500SOL     OW21223  11.837   2.695   4.393  0.5689 -0.0701 -0.8589
36500SOL    HW121224  11.753   2.738   4.411  0.5133  0.1102 -1.5270
36500SOL    HW221225  11.816   2.630   4.326  0.4657 -1.8015  0.7506
36501SOL     OW21226   8.005  10.876  10.712 -0.1661 -0.0825  0.1165
36501SOL    HW121227   8.016  10.860  10.618  0.6677 -2.6502  0.5727
36501SOL    HW221228   8.069  10.945  10.732  1.2284 -1.0566 -0.8172
36502SOL     OW21229   9.268   4.049   1.997 -0.2995 -0.2019 -0.2553
36502SOL    HW121230   9.234   3.961   1.984  0.1978 -0.7371  1.7314
36502SOL    HW221231   9.360   4.037   2.018 -0.7627  0.4888  2.6355
36503SOL     OW21232   3.900  11.567  11.458 -0.1386 -0.2621  0.1630
36503SOL    HW121233   3.809  11.587  11.482 -0.7488  1.3143 -2.8990
36503SOL    HW221234   3.944  11.652  11.458  0.3886 -0.4771 -1.6386
36504SOL     OW21235   8.884   6.951   1.031 -0.0663 -0.1978  0.1933
36504SOL    HW121236   8.886   7.038   0.992 -0.6402 -0.1015  0.3700
36504SOL    HW221237   8.797   6.917   1.009  1.1931 -1.9822 -2.5733
36505SOL     OW21238   2.298  10.688  10.782 -0.4443 -0.0103 -0.8099
36505SOL    HW121239   2.353  10.751  10.734 -2.2351  0.8683 -1.8259
36505SOL    HW221240   2.279  10.732  10.865 -2.3873  1.3004 -1.8461
36506SOL     OW21241   7.469   6.678   0.692  0.0461 -0.2419  0.0375
36506SOL    HW121242   7.422   6.745   0.741  1.4030 -0.2780  1.4677
36506SOL    HW221243   7.460   6.598   0.744  0.4561 -0.5974 -0.4230
36507SOL     OW21244  10.099   4.997   6.534 -0.2718 -0.0452  0.0981
36507SOL    HW121245  10.161   4.971   6.466 -0.1025 -2.1213  0.9515
36507SOL    HW221246  10.128   4.949   6.612  0.1320  2.9784  1.9554
36508SOL     OW21247   3.565   9.762   3.227  0.7301 -0.7058  0.1510
36508SOL    HW121248   3.473   9.771   3.200  1.0052  1.0956 -0.3141
36508SOL    HW221249   3.615   9.783   3.148  1.5294  1.0098  1.0405
36509SOL     OW21250   7.558   2.957   5.157 -0.1416  0.5362 -0.0983
36509SOL    HW121251   7.489   3.023   5.153 -2.0942 -1.4330 -0.2812
36509SOL    HW221252   7.537   2.896   5.086  1.1976 -0.6736  0.4909
36510SOL     OW21253   8.652   6.837   0.956 -0.2029 -0.3362  0.5224
36510SOL    HW121254   8.673   6.774   0.887  0.4079 -0.0130  0.4109
36510SOL    HW221255   8.556   6.840   0.957 -0.2346  0.7143 -1.3022
36511SOL     OW21256   7.798   8.532   3.161 -0.3039 -0.5153  0.3197
36511SOL    HW121257   7.873   8.475   3.143 -0.3052 -0.2074 -0.7551
36511SOL    HW221258   7.827   8.619   3.134 -0.3926 -0.0319  1.7002
36512SOL     OW21259   1.565   0.952  10.581 -0.4289 -0.2728 -0.5268
36512SOL    HW121260   1.550   0.900  10.502  1.1926 -1.5752 -0.0300
36512SOL    HW221261   1.553   0.890  10.653  0.5480  0.2912  0.1391
36513SOL     OW21262   9.647   8.028   8.936 -0.3986  0.3550  0.2672
36513SOL    HW121263   9.689   7.961   8.990 -2.8174 -1.6052 -0.0896
36513SOL    HW221264   9.560   8.038   8.974 -0.4877  2.5340 -0.3860
36514SOL     OW21265  11.700   4.894  10.768 -0.4221  0.0805 -0.5090
36514SOL    HW121266  11.677   4.817  10.716  0.0542 -1.6022  1.6696
36514SOL    HW221267  11.772   4.935  10.719  0.8056 -2.0941 -0.6318
36515SOL     OW21268   3.821  11.575   7.557  0.4966  0.2669 -0.5167
36515SOL    HW121269   3.912  11.604   7.554  1.0026 -0.9981  0.9448
36515SOL    HW221270   3.807  11.531   7.473  1.2465  0.4342 -0.7406
36516SOL     OW21271   2.168   3.168   4.299 -0.5120  0.9672 -0.1045
36516SOL    HW121272   2.189   3.233   4.232  1.7585  0.8857  0.4528
36516SOL    HW221273   2.160   3.219   4.380 -1.6658  0.8751 -0.1466
36517SOL     OW21274   4.246   7.658   3.078  0.0415  0.6451  0.0799
36517SOL    HW121275   4.334   7.692   3.097  0.4777 -0.4062  0.0287
36517SOL    HW221276   4.261   7.566   3.057 -1.1140  0.4021  0.3002
36518SOL     OW21277   1.934  11.954   0.692 -0.1935 -0.0349 -0.3589
36518SOL    HW121278   1.900  12.007   0.619 -1.1216 -1.1199 -0.7395
36518SOL    HW221279   1.875  11.879   0.697  0.0462 -0.1582  1.3129
36519SOL     OW21280  11.767   4.356   8.454 -0.0754 -0.1525 -0.2718
36519SOL    HW121281  11.672   4.350   8.453 -0.2580  1.9254 -0.1443
36519SOL    HW221282  11.792   4.361   8.361  0.0942 -2.2548 -0.3894
36520SOL     OW21283   1.833   1.622   6.088  0.3856 -0.2929  0.3724
36520SOL    HW121284   1.910   1.641   6.036  1.1972 -3.6223  0.1042
36520SOL    HW221285   1.867   1.604   6.176 -0.2096 -0.6408  0.5419
36521SOL     OW21286   4.402   6.756   0.652  0.7456  0.1086 -0.7390
36521SOL    HW121287   4.481   6.801   0.621  2.0355 -1.6807 -0.2103
36521SOL    HW221288   4.421   6.663   0.641 -0.8717 -0.4060  0.4055
36522SOL     OW21289   3.608   9.155   3.905  0.2401 -0.2932 -0.3548
36522SOL    HW121290   3.587   9.244   3.936  0.7116 -0.6117  0.9393
36522SOL    HW221291   3.659   9.170   3.825  0.6513  0.6264  0.0544
36523SOL     OW21292   3.387   2.075   5.739  0.1255 -0.4359 -0.2830
36523SOL    HW121293   3.373   1.981   5.737  1.7508 -0.7082 -0.9170
36523SOL    HW221294   3.437   2.093   5.660 -0.3884  1.0131 -0.3076
36524SOL     OW21295   3.131   5.702   8.302 -0.1224 -0.1490  0.4566
36524SOL    HW121296   3.089   5.773   8.350 -0.5334 -0.9074  1.2244
36524SOL    HW221297   3.220   5.697   8.338 -0.1906 -0.2237  0.6143
36525SOL     OW21298   5.968   8.310  11.866  0.3547  0.4875 -0.3436
36525SOL    HW121299   5.897   8.375  11.865 -0.0589  0.0350 -0.7132
36525SOL    HW221300   6.040   8.354  11.821  0.1789  0.8097 -0.3137
36526SOL     OW21301  11.595   5.301   2.071  0.2976  0.1528 -0.5461
36526SOL    HW121302  11.590   5.359   2.147  1.0191  0.2147 -0.5452
36526SOL    HW221303  11.527   5.235   2.088  2.1802 -1.4383  1.5221
36527SOL     OW21304   5.498   5.363  11.936 -0.2478 -0.3560 -0.4084
36527SOL    HW121305   5.583   5.393  11.968 -0.4690  0.0229 -0.1627
36527SOL    HW221306   5.481   5.416  11.858 -0.7160  0.2890  0.1221
36528SOL     OW21307   5.292   7.641   2.941 -0.1785 -0.1974  0.3350
36528SOL    HW121308   5.274   7.567   2.882 -0.3754  0.9344 -1.0740
36528SOL    HW221309   5.331   7.600   3.018  1.9789 -1.5995 -1.3715
36529SOL     OW21310   2.995   4.515   1.171  0.1140  0.2175  0.0701
36529SOL    HW121311   2.899   4.509   1.168  0.1000  0.3225  0.3208
36529SOL    HW221312   3.014   4.556   1.255  0.3782  0.2453 -0.0032
36530SOL     OW21313  10.382   7.437   0.226 -0.6891  0.5466 -0.8473
36530SOL    HW121314  10.410   7.366   0.168 -1.2504  0.4906 -1.0520
36530SOL    HW221315  10.453   7.501   0.221 -0.1216 -0.0458 -0.5680
36531SOL     OW21316   8.836   1.877  11.848  0.0235  0.2175 -0.1473
36531SOL    HW121317   8.778   1.866  11.772  0.0009 -1.7678  0.0909
36531SOL    HW221318   8.924   1.871  11.811  0.0241  0.0154 -0.1121
36532SOL     OW21319   9.339  10.127  11.914 -0.1297 -0.1711 -0.3321
36532SOL    HW121320   9.393  10.201  11.943  0.3103 -1.1372  1.4717
36532SOL    HW221321   9.343  10.130  11.819  1.4329  1.0099 -0.2617
36533SOL     OW21322   0.127   5.851   7.590 -0.5353  0.0218 -0.5163
36533SOL    HW121323   0.125   5.756   7.602 -2.3117  0.1912  0.9799
36533SOL    HW221324   0.041   5.872   7.555 -0.6713  1.2107  0.4712
36534SOL     OW21325   7.684   6.426   9.924  0.6949 -0.1567 -0.3117
36534SOL    HW121326   7.649   6.338   9.905 -2.1037  0.7705  0.0892
36534SOL    HW221327   7.698   6.426  10.019  0.8658 -0.2379 -0.3376
36535SOL     OW21328   7.024   4.761   3.017 -0.2388  0.5025  0.2762
36535SOL    HW121329   7.068   4.840   3.050 -0.4719  0.3885  0.8832
36535SOL    HW221330   7.049   4.756   2.925  0.4700  0.8149  0.4413
36536SOL     OW21331   8.166   8.410   1.882 -0.0586 -0.0517  0.1553
36536SOL    HW121332   8.099   8.351   1.916 -0.3245  1.3899  2.3002
36536SOL    HW221333   8.121   8.494   1.869  1.0387  0.6157  0.4514
36537SOL     OW21334   3.210   7.216   6.848  0.2730 -0.2009  0.0255
36537SOL    HW121335   3.299   7.207   6.883 -0.6208  0.9631  2.8478
36537SOL    HW221336   3.208   7.305   6.814 -0.2080  0.3079  1.3345
36538SOL     OW21337   2.276   0.682   5.719  0.1216  0.4232 -0.3918
36538SOL    HW121338   2.367   0.680   5.688  0.0596 -1.5095 -0.5606
36538SOL    HW221339   2.235   0.605   5.679 -1.0682  0.1828  1.1902
36539SOL     OW21340   5.625   5.882   7.329  0.0590  0.0772  0.5142
36539SOL    HW121341   5.599   5.901   7.239  1.2415 -2.6233 -0.4851
36539SOL    HW221342   5.708   5.929   7.340  0.5963 -0.6527 -0.2972
36540SOL     OW21343   9.595   5.748   6.989 -0.3714 -0.0241  0.1830
36540SOL    HW121344   9.575   5.657   6.965 -1.4442  0.4599 -0.8976
36540SOL    HW221345   9.527   5.772   7.052  0.3502 -0.1858  1.0396
36541SOL     OW21346   2.137   8.854   9.357 -0.2674 -0.0472  0.4352
36541SOL    HW121347   2.190   8.889   9.286 -3.4140  2.6285 -0.8173
36541SOL    HW221348   2.142   8.920   9.426 -0.8202 -0.4607  0.8855
36542SOL     OW21349   6.281   3.178   1.628 -0.3187 -0.4758 -0.7865
36542SOL    HW121350   6.258   3.204   1.539  0.9085 -0.5074 -1.1348
36542SOL    HW221351   6.351   3.238   1.654 -0.0963 -0.9936 -0.1553
36543SOL     OW21352   6.988   7.032  11.561 -0.0010 -0.5493 -0.1341
36543SOL    HW121353   6.900   7.043  11.598  0.5483 -0.3390  1.1679
36543SOL    HW221354   6.986   6.946  11.521 -0.6023 -0.8422  0.4965
36544SOL     OW21355  10.882   2.652  10.358  0.3790 -0.2504 -0.3755
36544SOL    HW121356  10.873   2.735  10.406  2.2029 -1.4023  2.1963
36544SOL    HW221357  10.974   2.628  10.369 -0.0946 -2.6355 -1.0186
36545SOL     OW21358   7.211  10.712   1.569 -0.2179  0.1810 -0.3024
36545SOL    HW121359   7.237  10.682   1.482 -1.4095 -1.2145 -0.2095
36545SOL    HW221360   7.129  10.666   1.587 -0.4155  1.0717  1.2241
36546SOL     OW21361   6.701   6.850   9.058 -0.3101  0.0920 -0.1031
36546SOL    HW121362   6.775   6.818   9.109  0.2942  1.2219 -0.2300
36546SOL    HW221363   6.700   6.795   8.980 -0.6185 -0.9843  0.6377
36547SOL     OW21364   1.465   0.728  10.783  0.2716 -0.3937 -0.3396
36547SOL    HW121365   1.427   0.643  10.806  0.2942 -0.4438 -0.4881
36547SOL    HW221366   1.388   0.783  10.763  0.1995 -0.0762  0.7784
36548SOL     OW21367   4.599   5.944   7.381  0.2859  0.4723 -0.1451
36548SOL    HW121368   4.613   5.849   7.376  3.6587  0.7773  0.8690
36548SOL    HW221369   4.652   5.980   7.310  0.2574  1.6556  0.4006
36549SOL     OW21370   0.817   5.389   4.857  0.4052  0.1754 -0.1245
36549SOL    HW121371   0.749   5.332   4.894  0.9994  0.6411  1.8024
36549SOL    HW221372   0.899   5.350   4.885  0.8413  1.4350  0.4289
36550SOL     OW21373   5.461  10.430   4.231 -0.5185 -0.1710  0.3971
36550SOL    HW121374   5.443  10.519   4.201 -1.8731 -0.5672 -0.0253
36550SOL    HW221375   5.535  10.401   4.178 -0.0712  0.6978  0.5401
36551SOL     OW21376   7.006  10.080   6.333  0.0613 -0.1670 -0.0338
36551SOL    HW121377   7.053  10.083   6.250  1.2110 -1.3668  0.5353
36551SOL    HW221378   6.988   9.987   6.347  0.3254 -0.0365  1.2910
36552SOL     OW21379   5.091   4.304  11.344 -0.1891 -0.3988 -0.0768
36552SOL    HW121380   5.021   4.245  11.315 -0.7626  0.4419 -0.4250
36552SOL    HW221381   5.132   4.335  11.264  0.6029 -0.8964  0.1282
36553SOL     OW21382   0.247   2.941   4.919  0.0668 -0.4994  0.4840
36553SOL    HW121383   0.193   2.863   4.929  0.2749 -0.8158 -0.7019
36553SOL    HW221384   0.263   2.971   5.009 -0.0545 -1.7866  0.9574
36554SOL     OW21385   2.015   1.081   6.519  0.3882 -0.1175  0.1285
36554SOL    HW121386   2.067   1.157   6.493 -2.3805  1.9214  0.1125
36554SOL    HW221387   2.054   1.054   6.602  1.3256  1.4766  0.2639
36555SOL     OW21388   1.466   7.082   4.083  0.4212 -0.4964 -0.3504
36555SOL    HW121389   1.396   7.147   4.093  0.4113 -0.6450  0.7691
36555SOL    HW221390   1.457   7.050   3.994 -1.4728 -1.0921  0.0137
36556SOL     OW21391   1.395  11.737   2.947 -0.2348  0.3493  0.0646
36556SOL    HW121392   1.400  11.761   3.039 -1.0773 -0.1495  0.2509
36556SOL    HW221393   1.485  11.745   2.916  0.2926 -0.6599  1.2397
36557SOL     OW21394   4.221   7.532   3.334 -0.8995  0.2086  0.2033
36557SOL    HW121395   4.225   7.624   3.358 -0.9502  0.6737 -1.4163
36557SOL    HW221396   4.310   7.511   3.306 -0.6887 -0.4790  1.3548
36558SOL     OW21397   0.169  11.361   8.347  0.0294  0.2610  0.4863
36558SOL    HW121398   0.150  11.308   8.270  1.0690  1.2414 -0.4960
36558SOL    HW221399   0.087  11.406   8.365 -0.2795 -0.1116  0.0547
36559SOL     OW21400   8.901   6.386   9.718 -0.2332 -0.2120 -0.1563
36559SOL    HW121401   8.819   6.404   9.672 -0.2054  1.2007  0.3108
36559SOL    HW221402   8.874   6.345   9.800 -0.5999  1.5279  0.6332
36560SOL     OW21403   2.858  10.483   7.889  0.2524  0.2678 -0.1747
36560SOL    HW121404   2.948  10.455   7.874  0.4864  0.1925  1.2363
36560SOL    HW221405   2.804  10.422   7.838  0.9287 -0.5373  0.0685
36561SOL     OW21406   9.485   6.602   0.876 -0.1519  0.0436  0.2703
36561SOL    HW121407   9.395   6.632   0.861  0.1901  0.9280 -0.0931
36561SOL    HW221408   9.536   6.645   0.808  0.5435 -0.4871  0.4478
36562SOL     OW21409   9.093  11.561   1.073 -0.1204  0.0600  0.2379
36562SOL    HW121410   9.094  11.560   0.977 -0.2853  0.4699  0.2300
36562SOL    HW221411   9.173  11.515   1.098  0.5621  1.0240 -0.1051
36563SOL     OW21412   6.969   2.601   3.039  0.2923 -0.2032  0.0317
36563SOL    HW121413   6.991   2.685   3.079 -1.5889 -0.1362  1.0513
36563SOL    HW221414   6.899   2.622   2.978  0.5879 -0.8782 -0.5458
36564SOL     OW21415   2.440   6.544   1.969 -0.6817 -0.8278 -0.4569
36564SOL    HW121416   2.443   6.599   1.891  0.1258 -0.4259 -0.1497
36564SOL    HW221417   2.491   6.591   2.035  0.1161 -1.9711 -0.2166
36565SOL     OW21418   3.875  11.257   6.242  0.2640 -0.0493 -0.4752
36565SOL    HW121419   3.931  11.323   6.282  0.4360 -1.2070  1.3028
36565SOL    HW221420   3.922  11.231   6.163  1.2232  0.4546 -0.0877
36566SOL     OW21421   7.988   6.805   7.048 -0.3309 -0.6940  0.3801
36566SOL    HW121422   7.933   6.727   7.045  0.1535 -1.0219 -0.0779
36566SOL    HW221423   7.949   6.859   7.117 -1.7558 -0.5289 -0.4920
36567SOL     OW21424   3.762   6.887   4.323 -0.3580  0.3784  0.1432
36567SOL    HW121425   3.789   6.799   4.297 -0.9238  0.6051 -1.2793
36567SOL    HW221426   3.740   6.878   4.416  0.3014 -0.8052  0.2109
36568SOL     OW21427   0.382   7.178  10.033 -0.2075 -0.2672  0.4294
36568SOL    HW121428   0.315   7.112  10.048 -0.9518 -0.0650 -1.6686
36568SOL    HW221429   0.370   7.242  10.104 -0.1014 -1.8355  1.9225
36569SOL     OW21430   4.215   5.491   6.481 -0.0825 -0.4144  0.1427
36569SOL    HW121431   4.306   5.511   6.456 -0.0774  0.5113  0.8246
36569SOL    HW221432   4.180   5.575   6.511 -1.5871 -0.4691 -1.3197
36570SOL     OW21433   3.152   4.744   4.651 -0.3650 -0.4834 -0.5953
36570SOL    HW121434   3.123   4.827   4.613 -1.1863  0.2520  1.4674
36570SOL    HW221435   3.247   4.752   4.657 -0.3041 -0.2643 -1.6151
36571SOL     OW21436   3.402   1.746   2.069 -0.0726  0.7564 -0.1940
36571SOL    HW121437   3.467   1.697   2.018  0.5964  0.6569  0.7314
36571SOL    HW221438   3.453   1.805   2.123 -0.7766  0.9671  0.2534
36572SOL     OW21439   1.136   3.139   1.476 -0.0426  0.3941 -0.3287
36572SOL    HW121440   1.226   3.155   1.504 -0.2234 -0.8631  1.1189
36572SOL    HW221441   1.091   3.223   1.491  1.0731  1.3494 -2.0539
36573SOL     OW21442   6.160   7.281   1.423 -0.3379  0.1891  0.1011
36573SOL    HW121443   6.107   7.280   1.344 -2.3250 -2.7058  1.2887
36573SOL    HW221444   6.114   7.341   1.482  0.2909  1.1626 -0.3769
36574SOL     OW21445   4.947   2.513   3.998 -0.3230  0.1862  0.8032
36574SOL    HW121446   4.897   2.465   3.932 -0.7012  0.2907  1.0120
36574SOL    HW221447   4.943   2.604   3.970  1.6843 -0.0517 -0.4428
36575SOL     OW21448   8.877  11.317   5.527  0.5976 -0.6828  0.1044
36575SOL    HW121449   8.854  11.233   5.487 -1.0060 -1.2000  1.9577
36575SOL    HW221450   8.796  11.369   5.522  0.4574 -0.6194  2.2066
36576SOL     OW21451   6.851   0.386   9.741 -0.0450 -0.4669 -0.3278
36576SOL    HW121452   6.843   0.357   9.650  0.0609 -0.3708 -0.3669
36576SOL    HW221453   6.936   0.353   9.770  0.1983  0.0435 -0.4583
36577SOL     OW21454   7.733  10.866   0.451  0.4575  0.0545  0.0242
36577SOL    HW121455   7.693  10.814   0.382 -0.1942 -0.6374  0.8919
36577SOL    HW221456   7.708  10.821   0.532  1.5242  0.6191  0.6906
36578SOL     OW21457   8.602   6.724   2.190  0.1926 -0.6170  0.7270
36578SOL    HW121458   8.639   6.734   2.278 -0.0652 -1.6022  0.9589
36578SOL    HW221459   8.529   6.787   2.188 -1.6270 -2.5252  2.2808
36579SOL     OW21460  10.768   2.434   6.603 -0.0510  0.1414  0.3924
36579SOL    HW121461  10.817   2.509   6.636  0.1011 -0.1315  0.7983
36579SOL    HW221462  10.681   2.469   6.584  0.2440  0.5853 -0.1564
36580SOL     OW21463   6.802   8.362   8.461  0.1043  0.2416  0.0562
36580SOL    HW121464   6.734   8.372   8.394  0.4573 -2.5258 -0.8626
36580SOL    HW221465   6.875   8.416   8.430  0.3801 -1.2221 -2.0374
36581SOL     OW21466  11.154   4.042   6.794  0.3356  0.2915  0.1425
36581SOL    HW121467  11.149   3.967   6.854  0.1232  0.3947  0.2572
36581SOL    HW221468  11.078   4.096   6.818  1.2312  1.2138  0.9616
36582SOL     OW21469   3.835  11.542   3.088  0.2050 -0.1876  0.4093
36582SOL    HW121470   3.813  11.465   3.035 -1.1098  1.1877 -1.1887
36582SOL    HW221471   3.850  11.508   3.176 -1.4586 -2.1456  0.0093
36583SOL     OW21472   0.471   8.109   9.406 -0.0243  0.4155  0.1153
36583SOL    HW121473   0.510   8.046   9.466  0.3915  0.4087 -0.1537
36583SOL    HW221474   0.414   8.057   9.350 -0.5781  0.4546  0.6373
36584SOL     OW21475   4.839   4.794   2.718 -0.2879 -0.0992 -0.5737
36584SOL    HW121476   4.802   4.712   2.751  0.2403  0.3640  1.2921
36584SOL    HW221477   4.904   4.766   2.653  0.2951 -1.2308  0.4340
36585SOL     OW21478  11.452   4.882  10.522 -0.4320  0.6438  0.2886
36585SOL    HW121479  11.411   4.808  10.567 -0.0606  0.4714  0.3478
36585SOL    HW221480  11.419   4.959  10.568  0.3620  0.4523  1.2285
36586SOL     OW21481   6.213   8.740  11.162 -0.2910 -0.8926  0.0809
36586SOL    HW121482   6.175   8.820  11.126 -0.2659 -0.6293  0.6425
36586SOL    HW221483   6.262   8.702  11.089  0.6765  0.2212  0.1363
36587SOL     OW21484   4.493   6.339   4.335  0.1216  0.3226 -0.0286
36587SOL    HW121485   4.471   6.390   4.257 -1.4754  1.0402  0.8284
36587SOL    HW221486   4.416   6.350   4.392  0.8080 -1.0334  1.2020
36588SOL     OW21487   4.953   2.009  11.179  0.4053 -0.3119 -0.4676
36588SOL    HW121488   4.947   2.086  11.123  0.3024 -0.5607 -0.7992
36588SOL    HW221489   5.046   2.004  11.203  0.5086 -0.4044 -0.8944
36589SOL     OW21490   0.335  11.360   3.897  0.2990 -0.6028  0.2140
36589SOL    HW121491   0.381  11.329   3.974  0.5373  0.8029  0.6748
36589SOL    HW221492   0.397  11.420   3.854 -0.0482 -0.8972 -0.7384
36590SOL     OW21493   2.177   5.650  10.576 -0.3595 -0.1629  0.5985
36590SOL    HW121494   2.217   5.730  10.542  2.1540 -0.0071  3.4841
36590SOL    HW221495   2.165   5.595  10.499 -1.6978  2.6909 -1.4272
36591SOL     OW21496   7.254   7.978   9.888 -0.0603  0.4030 -0.3802
36591SOL    HW121497   7.204   7.898   9.904 -2.2022  1.6639 -0.2704
36591SOL    HW221498   7.305   7.991   9.968 -0.3080 -0.4143 -0.0778
36592SOL     OW21499  11.765   8.304   9.123 -0.6586 -0.2175 -0.0862
36592SOL    HW121500  11.787   8.396   9.139 -1.1647 -0.0853 -0.1111
36592SOL    HW221501  11.822   8.255   9.182  0.9479 -0.0044 -1.3894
36593SOL     OW21502   7.192   5.725   0.544 -0.2293  0.1593 -0.5885
36593SOL    HW121503   7.162   5.648   0.495 -1.1543  0.3762 -0.3821
36593SOL    HW221504   7.190   5.697   0.635  0.3671  0.1290 -0.5820
36594SOL     OW21505   6.630   1.124   5.647  0.3552  0.4038  0.1805
36594SOL    HW121506   6.690   1.082   5.585  0.1835 -1.2968  1.0992
36594SOL    HW221507   6.687   1.160   5.715  0.4813  1.4019 -0.4313
36595SOL     OW21508  10.036   7.532   8.902 -0.0246  0.9141 -0.4112
36595SOL    HW121509  10.109   7.481   8.866 -0.2075  0.6989 -0.4880
36595SOL    HW221510  10.043   7.617   8.859 -0.2322  0.6634 -0.9532
36596SOL     OW21511   6.981  10.813   5.006 -0.8581  0.5571  0.1877
36596SOL    HW121512   6.950  10.731   4.967  2.3450 -0.1877 -1.0830
36596SOL    HW221513   7.045  10.787   5.071 -1.5980  2.0410  1.5859
36597SOL     OW21514   4.485  11.254   0.225 -0.5287 -0.1686  0.3108
36597SOL    HW121515   4.477  11.321   0.293  1.4361 -0.7362  1.1922
36597SOL    HW221516   4.475  11.302   0.143  1.7235  1.4705  0.8731
36598SOL     OW21517   3.858  10.125   9.439  0.8205  0.0312  0.3005
36598SOL    HW121518   3.777  10.124   9.489  0.4251 -0.0215 -0.3305
36598SOL    HW221519   3.859  10.210   9.396  2.8061  1.5249  3.0000
36599SOL     OW21520   0.367   2.493   4.579 -0.2832  0.2757  0.0992
36599SOL    HW121521   0.281   2.487   4.536 -1.0622  1.8779  1.3422
36599SOL    HW221522   0.378   2.407   4.619 -1.4598  0.1423  0.1831
36600SOL     OW21523  11.026   9.634   6.537  0.7479  0.1287  0.1048
36600SOL    HW121524  11.104   9.631   6.593  1.3240 -1.2616 -0.7129
36600SOL    HW221525  11.039   9.562   6.475 -1.9040 -1.1298  0.8781
36601SOL     OW21526   1.776   2.020   1.636 -0.0220 -0.2397  0.4751
36601SOL    HW121527   1.817   2.090   1.587  0.4126  0.8713  2.3249
36601SOL    HW221528   1.770   2.053   1.726 -2.0253 -1.6232  0.9305
36602SOL     OW21529   8.236   0.350   1.286 -0.6483 -0.0557 -0.1778
36602SOL    HW121530   8.180   0.423   1.260 -2.6430 -1.2555  0.5629
36602SOL    HW221531   8.200   0.275   1.239  1.3850 -0.6192 -0.9510
36603SOL     OW21532  11.676   6.903   7.657 -0.3666 -0.7525 -0.3511
36603SOL    HW121533  11.648   6.811   7.660 -0.0262 -0.8603 -0.4292
36603SOL    HW221534  11.769   6.899   7.635  0.1749 -0.4747  1.7277
36604SOL     OW21535  10.553   3.248   5.902  0.4483  0.1262 -0.5775
36604SOL    HW121536  10.498   3.305   5.849  0.3308  0.1500 -0.4302
36604SOL    HW221537  10.493   3.209   5.966  0.6385  0.3055 -0.2872
36605SOL     OW21538   8.576   1.703   7.410 -0.1684 -0.4546  0.3239
36605SOL    HW121539   8.574   1.655   7.327 -0.3211  0.0092  0.0541
36605SOL    HW221540   8.518   1.654   7.468 -2.0092  0.5353 -0.5825
36606SOL     OW21541   8.793   6.251   8.939 -0.7253  0.6618 -0.0154
36606SOL    HW121542   8.718   6.308   8.953 -1.6195 -0.1878 -1.1784
36606SOL    HW221543   8.804   6.247   8.844  0.2783  0.1211  0.1048
36607SOL     OW21544   9.127   9.940   7.495  0.1482  0.3552  0.7593
36607SOL    HW121545   9.164   9.914   7.579 -1.0644 -0.7758  0.9759
36607SOL    HW221546   9.151   9.871   7.434 -1.7137 -0.5346  0.9600
36608SOL     OW21547  11.018   6.169   9.835 -0.2377  0.0375  0.0532
36608SOL    HW121548  11.077   6.204   9.769  1.6186 -0.4108  1.3723
36608SOL    HW221549  10.981   6.090   9.796 -0.7760  0.8716 -1.1686
36609SOL     OW21550   6.120   6.853   9.124  0.3867  0.2592 -0.2056
36609SOL    HW121551   6.063   6.783   9.094  0.3969  0.0964  0.1430
36609SOL    HW221552   6.192   6.807   9.168  1.2801  0.4201 -1.4626
36610SOL     OW21553   0.864   5.434   1.079  0.3024  0.2824  0.5081
36610SOL    HW121554   0.839   5.343   1.063 -0.9954  0.2730  2.2805
36610SOL    HW221555   0.959   5.434   1.073  0.5462 -1.7642  2.8337
36611SOL     OW21556   7.625  10.829   1.145 -0.0984  0.5611  0.5273
36611SOL    HW121557   7.563  10.897   1.117 -0.0476 -0.4924 -2.5556
36611SOL    HW221558   7.572  10.767   1.195 -1.0639  0.7939 -0.1835
36612SOL     OW21559   6.062  10.992   0.037  0.0532 -0.5780 -0.1470
36612SOL    HW121560   6.132  10.992  -0.027 -0.2331 -0.7634 -0.4660
36612SOL    HW221561   6.004  11.063   0.010 -0.5194 -1.2063 -0.6066
36613SOL     OW21562  11.279   5.357   8.533  0.2466 -0.3284  0.2703
36613SOL    HW121563  11.234   5.281   8.497 -2.3496  1.3105 -0.1580
36613SOL    HW221564  11.310   5.328   8.619  0.7554 -2.2920 -0.5133
36614SOL     OW21565   1.006   8.339  10.320  0.1377 -0.0945 -0.3898
36614SOL    HW121566   1.097   8.342  10.350 -0.0865  0.6288  0.2411
36614SOL    HW221567   0.989   8.245  10.306  0.6772 -0.3317  0.4545
36615SOL     OW21568  10.277   0.945  11.210 -0.0961 -0.3145  0.1940
36615SOL    HW121569  10.275   1.017  11.147 -1.2152 -0.6459 -0.1646
36615SOL    HW221570  10.352   0.892  11.182  1.1010  0.9938  0.8115
36616SOL     OW21571  11.283   4.353  10.708 -0.7953 -0.0083 -0.5896
36616SOL    HW121572  11.241   4.306  10.636  0.1074  0.7986 -1.6761
36616SOL    HW221573  11.360   4.300  10.730  0.1420  0.8215 -1.7180
36617SOL     OW21574   4.226   6.277   5.020  0.1701 -0.4383 -0.3161
36617SOL    HW121575   4.301   6.237   4.976 -0.0161  0.0159 -1.0572
36617SOL    HW221576   4.237   6.254   5.112  1.3732 -0.1256 -0.3788
36618SOL     OW21577   7.768   4.930   7.998 -0.2685  0.8121  0.3084
36618SOL    HW121578   7.788   5.016   7.963 -1.5555  1.1767  0.4240
36618SOL    HW221579   7.792   4.935   8.091  0.3302  0.8040  0.1584
36619SOL     OW21580   8.902   9.833   5.988 -0.0555  0.3509  0.5458
36619SOL    HW121581   8.947   9.750   6.001  0.0353  0.2989 -0.0600
36619SOL    HW221582   8.956   9.897   6.035 -0.0487  0.0950  0.8916
36620SOL     OW21583   6.871   3.102   8.077  0.2806  0.4639 -0.9739
36620SOL    HW121584   6.954   3.058   8.093  0.4986  0.7861 -1.2165
36620SOL    HW221585   6.869   3.173   8.141 -1.5384 -1.7808  1.7227
36621SOL     OW21586   5.953   8.367   5.911  0.6786 -0.1648  0.2000
36621SOL    HW121587   5.881   8.398   5.966  0.2907  2.2202 -1.5018
36621SOL    HW221588   6.021   8.434   5.921  0.9219 -0.1040 -1.5139
36622SOL     OW21589   0.465   0.384   4.750 -0.2815  0.3938 -0.2659
36622SOL    HW121590   0.545   0.382   4.804 -1.1867  1.5337  1.1816
36622SOL    HW221591   0.486   0.444   4.679  0.1868  0.6186  0.0497
36623SOL     OW21592   9.384   3.402   1.764  0.1012  0.1220  0.4526
36623SOL    HW121593   9.294   3.432   1.759  0.4440  1.1929  0.5090
36623SOL    HW221594   9.406   3.377   1.674 -0.1632  0.1233  0.3873
36624SOL     OW21595   3.739   8.292   4.319  0.2611  0.1261 -0.0671
36624SOL    HW121596   3.794   8.246   4.383  1.1183  0.7719 -0.3261
36624SOL    HW221597   3.801   8.339   4.263 -0.6091  2.9009  1.1495
36625SOL     OW21598   8.340   5.823   2.893 -0.1734 -0.2241  0.3435
36625SOL    HW121599   8.327   5.916   2.909  1.4058  0.7927 -3.2340
36625SOL    HW221600   8.428   5.817   2.856  0.2476 -3.3522  1.5084
36626SOL     OW21601   6.167   9.952   5.090  0.0486 -0.3676  0.0800
36626SOL    HW121602   6.228   9.885   5.059  0.5391  0.3044 -0.4820
36626SOL    HW221603   6.087   9.905   5.112  0.7879 -1.2809  0.8781
36627SOL     OW21604   3.420   6.783   4.560  0.0828  0.2691  0.3455
36627SOL    HW121605   3.439   6.873   4.534  1.6095  0.1087  0.8403
36627SOL    HW221606   3.492   6.759   4.618  0.0443 -1.4861 -0.2912
36628SOL     OW21607   2.987   9.840   5.005  0.0939  0.7314  0.4773
36628SOL    HW121608   2.939   9.874   5.081 -1.0628 -0.7471  0.4702
36628SOL    HW221609   3.025   9.758   5.037  2.1572  1.5821  0.2964
36629SOL     OW21610   9.016   6.127   6.405  0.1084  1.0524  0.0968
36629SOL    HW121611   8.976   6.194   6.461 -1.1279  0.3425  0.0875
36629SOL    HW221612   8.977   6.141   6.319  2.2432  2.3440 -0.7288
36630SOL     OW21613   9.185   8.918   0.630 -0.6851  0.5011  0.3337
36630SOL    HW121614   9.233   9.000   0.617 -1.3356  0.6178 -1.6616
36630SOL    HW221615   9.186   8.876   0.544  0.0067 -1.8336  1.3984
36631SOL     OW21616   3.661   8.731   2.675  0.0514  0.0228  0.0419
36631SOL    HW121617   3.723   8.764   2.610  0.0130 -0.4053 -0.2155
36631SOL    HW221618   3.686   8.640   2.688 -1.0876 -0.4300 -0.7428
36632SOL     OW21619   6.866   4.586   4.626 -0.1015 -0.6757  0.2940
36632SOL    HW121620   6.858   4.624   4.538  1.3563 -0.5045  0.2104
36632SOL    HW221621   6.777   4.563   4.650 -1.3024  3.5415  0.7010
36633SOL     OW21622   8.510  11.032   9.228 -0.3272 -0.0563 -0.3897
36633SOL    HW121623   8.476  11.120   9.210  1.1307  0.6885  0.2376
36633SOL    HW221624   8.460  11.002   9.304  1.7430  1.9587  1.9764
36634SOL     OW21625   4.119   8.007   4.661  0.9553  0.0803 -0.3430
36634SOL    HW121626   4.163   7.958   4.731  0.4859  1.4432  0.9317
36634SOL    HW221627   4.095   7.939   4.597  0.9418 -1.2740  1.0326
36635SOL     OW21628   3.930  10.518   2.873 -0.4918  0.6232  0.3971
36635SOL    HW121629   3.961  10.531   2.963 -0.3632  0.3315  0.3946
36635SOL    HW221630   3.969  10.591   2.825 -1.2136  1.2388  0.7319
36636SOL     OW21631   3.339   4.485   5.470 -0.3640  0.2163  0.4094
36636SOL    HW121632   3.318   4.458   5.559  1.0230  0.6671  0.9000
36636SOL    HW221633   3.300   4.418   5.414  0.3224 -1.0948  1.4576
36637SOL     OW21634   5.255   7.115   2.951  0.1267 -0.2836  0.0309
36637SOL    HW121635   5.161   7.112   2.971  0.5245 -0.8704  2.0205
36637SOL    HW221636   5.279   7.023   2.938  0.4487 -0.1383 -0.4227
36638SOL     OW21637   1.204   5.822   6.947  0.3981 -0.4021  0.4688
36638SOL    HW121638   1.231   5.848   7.035  1.1283 -1.7774  0.6840
36638SOL    HW221639   1.148   5.745   6.961 -0.0538 -0.2109 -0.2359
36639SOL     OW21640   5.926   4.418   2.010 -0.1141 -0.2750 -0.2088
36639SOL    HW121641   5.996   4.355   1.989  0.3224  0.1804 -0.1527
36639SOL    HW221642   5.945   4.445   2.100  0.0000  0.3034 -0.3977
36640SOL     OW21643   2.180  11.493   5.055 -0.1251 -0.0207  0.3744
36640SOL    HW121644   2.253  11.555   5.060  0.0391 -0.1727 -0.1499
36640SOL    HW221645   2.153  11.494   4.963 -0.6392 -0.1359  0.5176
36641SOL     OW21646   6.670   5.117   0.987 -0.3518  0.2293 -0.3081
36641SOL    HW121647   6.651   5.063   0.911 -0.9827  0.0164 -0.0094
36641SOL    HW221648   6.669   5.056   1.061  0.9546  0.3171 -0.2033
36642SOL     OW21649   0.744   7.476   6.971 -0.0670 -0.1309 -0.3713
36642SOL    HW121650   0.736   7.385   6.942 -0.7471  0.5223 -2.3685
36642SOL    HW221651   0.701   7.477   7.057 -0.7340 -1.5482 -0.6544
36643SOL     OW21652   1.996   7.371   8.831 -0.1382  0.0012 -0.2718
36643SOL    HW121653   2.082   7.411   8.819  0.1621 -0.3114  0.6782
36643SOL    HW221654   1.955   7.423   8.901 -0.0040 -0.9128  0.5093
36644SOL     OW21655   9.023   4.074  10.747 -0.3922  0.2799 -0.1085
36644SOL    HW121656   8.941   4.065  10.794 -0.0184 -0.9388  0.3661
36644SOL    HW221657   9.077   4.131  10.801 -0.8298  0.8623 -0.2890
36645SOL     OW21658   4.005  10.279  11.111  0.2321 -0.4833 -0.2261
36645SOL    HW121659   3.988  10.251  11.201  1.6958  0.1056  0.2633
36645SOL    HW221660   4.093  10.246  11.093  1.1899  1.9505 -0.3557
36646SOL     OW21661   9.790   3.642   3.898  0.4891 -0.9786 -0.1995
36646SOL    HW121662   9.764   3.555   3.868  0.3690 -1.2166  0.5743
36646SOL    HW221663   9.876   3.628   3.938  1.5885 -0.3100 -2.2002
36647SOL     OW21664   5.872  10.421   8.685 -0.5057 -0.1320  0.1794
36647SOL    HW121665   5.841  10.348   8.739  2.6111 -3.0277 -1.5851
36647SOL    HW221666   5.800  10.438   8.624 -1.3359 -1.6768  0.6911
36648SOL     OW21667  11.702  11.320   5.503 -0.2764 -0.4562 -0.3556
36648SOL    HW121668  11.784  11.278   5.477 -0.3500 -0.1844 -1.0489
36648SOL    HW221669  11.639  11.248   5.512 -1.0287 -0.3709 -3.8253
36649SOL     OW21670   8.446   4.529   3.862  0.3605  0.3765  0.6228
36649SOL    HW121671   8.431   4.436   3.845 -1.0209  0.3731  1.7041
36649SOL    HW221672   8.421   4.572   3.781  0.2462 -0.1281  0.3832
36650SOL     OW21673   7.249   1.279   0.187 -0.0977  0.5814  0.1544
36650SOL    HW121674   7.228   1.271   0.281 -3.1712 -0.6413 -0.5180
36650SOL    HW221675   7.343   1.264   0.182 -0.1376 -1.2357  2.8614
36651SOL     OW21676  11.851  10.255   9.148  0.1685  0.2072 -0.1318
36651SOL    HW121677  11.813  10.251   9.060  1.7453 -1.7774 -0.8103
36651SOL    HW221678  11.798  10.194   9.199  2.2857 -2.6766 -1.1152
36652SOL     OW21679   3.396   3.290   3.092 -0.3270  1.3824  0.1553
36652SOL    HW121680   3.375   3.200   3.118 -1.0478  1.6276  0.4486
36652SOL    HW221681   3.474   3.311   3.143 -0.1877  0.9403  0.1281
36653SOL     OW21682   8.746   8.735   9.350 -0.1801  0.1914 -0.2566
36653SOL    HW121683   8.763   8.710   9.260 -0.6551 -0.3592 -0.2014
36653SOL    HW221684   8.810   8.686   9.402 -0.8042 -0.5765 -0.1879
36654SOL     OW21685   5.007   4.589   6.667 -0.2074  0.4933 -0.3296
36654SOL    HW121686   5.011   4.605   6.573  0.9695  1.7379 -0.1040
36654SOL    HW221687   5.039   4.670   6.707  1.0219 -0.6138  1.0812
36655SOL     OW21688   1.261  11.497   6.349  0.0931  0.6932  0.3585
36655SOL    HW121689   1.279  11.514   6.256 -1.1282 -1.6464 -0.3765
36655SOL    HW221690   1.343  11.522   6.393  2.0691 -1.4425 -1.7882
36656SOL     OW21691   6.815   5.061   2.166  0.2319  0.4774  0.1978
36656SOL    HW121692   6.849   5.109   2.090 -0.6266  0.9680  0.1134
36656SOL    HW221693   6.725   5.092   2.175 -0.8645 -2.1542 -0.7486
36657SOL     OW21694   5.485   1.230   4.708  0.0177 -0.3782  0.9974
36657SOL    HW121695   5.446   1.297   4.764 -1.8556 -0.3734 -0.2373
36657SOL    HW221696   5.515   1.162   4.769 -1.7109 -0.2620  2.0355
36658SOL     OW21697   8.474   5.824   7.834 -0.1605  0.0525 -0.5156
36658SOL    HW121698   8.413   5.797   7.764 -1.1318  1.1105 -0.1262
36658SOL    HW221699   8.467   5.756   7.900 -0.6159 -0.0507 -0.6651
36659SOL     OW21700   4.542   7.905  11.633  0.1446 -0.5334  0.2167
36659SOL    HW121701   4.477   7.921  11.565 -2.1723  0.1515  2.4504
36659SOL    HW221702   4.566   7.991  11.665 -0.0335 -0.8787  1.3304
36660SOL     OW21703   9.434  11.252   9.311 -0.3440  0.0962 -0.3783
36660SOL    HW121704   9.440  11.177   9.370 -1.3184  0.4140  0.1326
36660SOL    HW221705   9.476  11.324   9.359 -2.0545  0.6167  0.3844
36661SOL     OW21706   5.812   4.227   0.589 -0.1755  1.0994 -0.0258
36661SOL    HW121707   5.840   4.239   0.680 -0.4863 -0.3237  0.2873
36661SOL    HW221708   5.733   4.173   0.595  0.7770 -0.5048 -1.2058
36662SOL     OW21709   5.793   2.643  10.116 -0.3402 -0.0004  0.4450
36662SOL    HW121710   5.756   2.556  10.128 -2.2748  0.8768  1.2837
36662SOL    HW221711   5.834   2.640  10.029 -0.7153 -1.6001  0.2894
36663SOL     OW21712   5.931   8.443   6.829  0.0941  0.1712 -0.0079
36663SOL    HW121713   5.949   8.406   6.743 -2.9295 -0.9800 -0.2790
36663SOL    HW221714   5.938   8.538   6.816  0.5460 -0.0131 -1.2905
36664SOL     OW21715   1.568   2.908   7.018 -0.0595  0.9088  0.3252
36664SOL    HW121716   1.527   2.909   6.931  0.1931  0.4795  0.1982
36664SOL    HW221717   1.495   2.901   7.079 -0.1541 -0.6983  0.0720
36665SOL     OW21718   4.508   9.719   7.887 -0.1521 -0.2502  0.5113
36665SOL    HW121719   4.576   9.654   7.903  1.0170  0.7633 -0.1302
36665SOL    HW221720   4.466   9.732   7.973  1.9189  0.6635  1.4530
36666SOL     OW21721   1.496   0.990   1.885 -0.4274  0.1141 -0.2489
36666SOL    HW121722   1.494   0.939   1.966  0.3662 -0.5788 -0.6603
36666SOL    HW221723   1.529   1.076   1.912  0.4215 -0.3028  0.0716
36667SOL     OW21724   2.387   1.808   6.022  0.2842  0.3915  0.3178
36667SOL    HW121725   2.459   1.847   5.972 -0.0543  1.3970  0.5991
36667SOL    HW221726   2.325   1.779   5.955  1.3971 -1.4532  0.0165
36668SOL     OW21727   8.193  10.347   9.359  0.2904  0.5768  0.2137
36668SOL    HW121728   8.187  10.400   9.279 -0.9363  0.9035  0.5033
36668SOL    HW221729   8.109  10.302   9.364  0.8661 -0.4963  0.6120
36669SOL     OW21730   2.816   2.454   8.634  0.1835  0.4311  0.1893
36669SOL    HW121731   2.776   2.521   8.579 -0.1729 -0.7210 -1.0184
36669SOL    HW221732   2.794   2.371   8.591 -0.2344 -0.5479  2.1562
36670SOL     OW21733  11.578   2.614   6.539  0.0266  0.0881 -0.4469
36670SOL    HW121734  11.533   2.553   6.482  0.8987 -0.2642 -0.7667
36670SOL    HW221735  11.623   2.559   6.603  1.3655  0.3532 -1.1418
36671SOL     OW21736   0.649   2.814   8.450  0.5203 -0.0565 -0.1109
36671SOL    HW121737   0.620   2.889   8.397  0.3895 -0.3988 -0.5356
36671SOL    HW221738   0.622   2.738   8.399  0.3759 -0.3956  0.4675
36672SOL     OW21739   8.522   6.758   2.626 -0.0893  0.2820 -0.2331
36672SOL    HW121740   8.462   6.690   2.596  0.0821  0.3551 -0.7503
36672SOL    HW221741   8.509   6.762   2.721 -0.7562  0.1615 -0.3157
36673SOL     OW21742   6.779   6.239   8.324  0.2002 -0.4716 -0.4886
36673SOL    HW121743   6.854   6.180   8.328  2.7958  2.4849 -1.4029
36673SOL    HW221744   6.773   6.264   8.232  0.3183  1.8911  0.0702
36674SOL     OW21745  10.595   9.019   6.091  0.0777  0.1623  0.2067
36674SOL    HW121746  10.560   9.081   6.027  1.2457 -0.4997 -1.1351
36674SOL    HW221747  10.614   9.073   6.168 -0.7077  1.1105 -0.2432
36675SOL     OW21748   7.171   4.659   4.472 -0.8641  0.7988 -0.0205
36675SOL    HW121749   7.134   4.695   4.553 -0.8000  0.6686  0.0666
36675SOL    HW221750   7.097   4.615   4.429 -0.6156 -0.2824  0.6126
36676SOL     OW21751   7.932   3.370   7.800 -0.0924  0.3671 -0.3212
36676SOL    HW121752   7.896   3.457   7.817  1.6091  1.2190 -0.9060
36676SOL    HW221753   7.914   3.355   7.707 -1.6619 -0.5620  0.0954
36677SOL     OW21754  10.404   5.138   4.816 -0.0548  0.3068  0.5852
36677SOL    HW121755  10.398   5.211   4.878 -1.6532  1.3529 -0.7158
36677SOL    HW221756  10.424   5.179   4.732 -0.6827 -0.7777 -0.1188
36678SOL     OW21757   3.160   8.995   8.552 -0.5678 -0.0147  0.4654
36678SOL    HW121758   3.196   8.934   8.487 -1.0367  0.2103 -0.0230
36678SOL    HW221759   3.223   8.996   8.623  0.3699  0.3314 -0.3453
36679SOL     OW21760   0.430   0.634   6.567  0.2000 -0.0443 -0.1109
36679SOL    HW121761   0.344   0.672   6.583 -0.5264 -1.7673  0.3380
36679SOL    HW221762   0.462   0.608   6.654  1.3201  0.8505 -0.2353
36680SOL     OW21763   3.917   4.335   4.474  0.5940  0.7815  0.2372
36680SOL    HW121764   3.997   4.284   4.475 -0.1858 -0.6224 -2.0100
36680SOL    HW221765   3.932   4.403   4.408 -1.0891 -1.5369 -2.7917
36681SOL     OW21766  10.288  11.951   4.690 -0.4948  0.3396 -0.3179
36681SOL    HW121767  10.249  11.871   4.724  0.1448  0.1474 -0.0125
36681SOL    HW221768  10.312  12.001   4.768 -2.3694  1.5917 -0.4893
36682SOL     OW21769   1.146   5.876   3.444  0.4229  0.0702  0.2551
36682SOL    HW121770   1.097   5.950   3.407 -0.3351 -1.1136 -1.2265
36682SOL    HW221771   1.238   5.900   3.430  0.2047 -0.6860 -3.4291
36683SOL     OW21772   9.566   4.829   9.916 -0.0593  0.0136  0.0269
36683SOL    HW121773   9.524   4.915   9.907  1.3860  0.7854  0.3545
36683SOL    HW221774   9.655   4.842   9.882  0.6226 -0.9971  1.3251
36684SOL     OW21775   0.094   1.109  11.250  0.4778 -0.1033  0.2113
36684SOL    HW121776   0.043   1.190  11.246  0.6928 -0.0120 -1.0812
36684SOL    HW221777   0.170   1.131  11.305 -1.0260 -0.3668  2.5210
36685SOL     OW21778   9.944   0.446   9.505 -0.2792  0.5156 -0.2109
36685SOL    HW121779  10.026   0.454   9.456 -0.2160 -0.6012 -0.3105
36685SOL    HW221780   9.942   0.355   9.534 -1.1606  0.7086  0.3743
36686SOL     OW21781   9.984  10.609   5.331 -0.6435 -0.0264  0.0880
36686SOL    HW121782   9.913  10.548   5.350 -0.8009 -0.5602 -1.9278
36686SOL    HW221783  10.053  10.585   5.393 -1.4732 -0.8753  0.7106
36687SOL     OW21784   9.554   6.899   7.355 -0.4032 -0.3134 -0.0034
36687SOL    HW121785   9.554   6.901   7.451 -0.7774 -1.5037  0.0318
36687SOL    HW221786   9.471   6.858   7.331 -0.8658  1.0770 -0.8867
36688SOL     OW21787   6.685   3.769   3.864 -0.5148  0.3977 -0.0276
36688SOL    HW121788   6.601   3.745   3.903  0.0828 -1.7914  0.0509
36688SOL    HW221789   6.749   3.749   3.932  0.3482 -1.2463 -1.2659
36689SOL     OW21790   4.837  10.942   6.645  0.8236 -0.8361  0.3178
36689SOL    HW121791   4.842  10.904   6.557 -0.2887  0.0257 -0.1384
36689SOL    HW221792   4.928  10.954   6.671  1.1672 -0.6251 -0.9255
36690SOL     OW21793   1.766   0.758   3.302  0.1357 -0.1931 -0.0459
36690SOL    HW121794   1.815   0.690   3.349 -1.6225 -1.1668  0.4511
36690SOL    HW221795   1.738   0.715   3.221 -0.6770  0.0471  0.1049
36691SOL     OW21796  11.680  11.425   9.898  0.4449 -0.7578  0.0040
36691SOL    HW121797  11.678  11.365   9.972 -0.0467  1.1280  1.5926
36691SOL    HW221798  11.766  11.411   9.858  1.2704 -0.9166  1.7420
36692SOL     OW21799   0.601   1.297   4.546 -0.0785 -0.1228  0.1469
36692SOL    HW121800   0.684   1.264   4.580  0.2036  1.9444  1.6692
36692SOL    HW221801   0.575   1.233   4.480  0.7341 -2.9193  2.3417
36693SOL     OW21802   6.741   9.199  11.806 -0.0335  0.1984  0.3037
36693SOL    HW121803   6.744   9.275  11.749 -1.8210 -0.7920 -1.2473
36693SOL    HW221804   6.816   9.146  11.779  0.5619  0.8748  0.6094
36694SOL     OW21805   3.089   9.743   9.757 -0.1697 -0.3573 -0.3302
36694SOL    HW121806   3.011   9.797   9.740 -0.6690 -0.9498  0.0266
36694SOL    HW221807   3.056   9.653   9.755  0.0774 -0.5436  2.0022
36695SOL     OW21808   9.144  11.667   8.764  0.6833  0.5356 -0.2346
36695SOL    HW121809   9.110  11.596   8.709  1.2954  0.9459 -1.1595
36695SOL    HW221810   9.086  11.668   8.840  0.6966 -1.0058 -0.1701
36696SOL     OW21811   7.222   9.363   0.798  0.5126 -0.4788 -0.3554
36696SOL    HW121812   7.211   9.457   0.779  0.9436 -0.4748 -0.5972
36696SOL    HW221813   7.133   9.328   0.798  0.3985 -0.2045 -0.9890
36697SOL     OW21814   2.077   4.806   3.004 -0.4793  0.1948  0.5240
36697SOL    HW121815   2.007   4.831   2.943 -0.1184  0.2096  0.1072
36697SOL    HW221816   2.064   4.712   3.017  0.2224 -0.0834 -0.6227
36698SOL     OW21817   9.445   7.144   9.470 -0.4282 -0.2133  0.1624
36698SOL    HW121818   9.471   7.081   9.402 -0.2677 -0.2848  0.2886
36698SOL    HW221819   9.368   7.105   9.511 -0.2921 -0.3597  0.2822
36699SOL     OW21820  11.247   6.979   7.634 -0.0846 -0.3530 -0.3645
36699SOL    HW121821  11.282   6.993   7.547  0.4411 -0.9311 -0.2469
36699SOL    HW221822  11.314   7.012   7.693 -1.0997  1.5305 -0.1829
36700SOL     OW21823  10.413   9.510  10.871 -0.7873  0.4075  0.3159
36700SOL    HW121824  10.385   9.434  10.923  0.2566 -0.3966 -0.2527
36700SOL    HW221825  10.393   9.486  10.781 -0.6548  0.9197  0.1468
36701SOL     OW21826   2.987   5.728   9.999 -0.3506 -0.5335 -0.0902
36701SOL    HW121827   2.992   5.735  10.094 -1.5452 -0.9025  0.0138
36701SOL    HW221828   3.004   5.635   9.981  0.8790 -0.2816 -0.3330
36702SOL     OW21829   2.672   9.731   3.533  0.0126  0.0154 -0.3890
36702SOL    HW121830   2.579   9.753   3.528 -0.1906 -0.7626 -0.2067
36702SOL    HW221831   2.711   9.804   3.581 -0.9420 -0.8555  1.8615
36703SOL     OW21832   1.689   8.418   9.432  0.4849  0.1991 -0.6042
36703SOL    HW121833   1.651   8.505   9.432  0.9515  0.4045 -0.3378
36703SOL    HW221834   1.782   8.432   9.413  0.5305 -0.2537 -0.7307
36704SOL     OW21835   3.688   4.690   2.240 -0.0070  0.7036 -0.5344
36704SOL    HW121836   3.717   4.710   2.151 -1.3046 -1.2529 -1.4729
36704SOL    HW221837   3.594   4.705   2.239 -0.0297  0.6830  0.5215
36705SOL     OW21838  11.678  11.336   5.214  0.0460  0.8407  0.2680
36705SOL    HW121839  11.723  11.308   5.294  0.5652  0.7262 -0.0599
36705SOL    HW221840  11.596  11.374   5.245  0.1816  0.6730  0.8475
36706SOL     OW21841   3.166  11.825   9.632 -0.1603 -0.3039  0.6965
36706SOL    HW121842   3.095  11.852   9.691 -0.4267 -1.2039  0.7989
36706SOL    HW221843   3.168  11.730   9.639  0.9466 -0.3052  0.5550
36707SOL     OW21844   9.751   6.616   5.594  0.2595 -0.1628  0.5691
36707SOL    HW121845   9.706   6.697   5.617  1.1506 -0.0655  2.0466
36707SOL    HW221846   9.833   6.644   5.554 -0.3776 -0.3517 -0.9408
36708SOL     OW21847   5.733   6.144   8.084 -0.1070  0.7712 -0.2479
36708SOL    HW121848   5.796   6.214   8.097  1.1299 -0.4058  0.4447
36708SOL    HW221849   5.661   6.164   8.144 -0.1470  1.8386 -0.6375
36709SOL     OW21850   3.565   0.372   0.153 -0.3409 -0.1305  0.1038
36709SOL    HW121851   3.645   0.421   0.172 -1.7768  2.1773  0.5062
36709SOL    HW221852   3.567   0.299   0.215  1.0801  0.2942  0.5994
36710SOL     OW21853   4.272   0.312   9.687  0.9598  0.3745 -0.0704
36710SOL    HW121854   4.367   0.321   9.698  0.8616 -0.5877  2.3899
36710SOL    HW221855   4.259   0.220   9.665  0.6109  0.5495 -0.6000
36711SOL     OW21856   3.203   3.684   0.102  0.4851  0.2905  0.5742
36711SOL    HW121857   3.212   3.651   0.191 -1.9152  2.3440  1.7145
36711SOL    HW221858   3.214   3.607   0.046 -1.4174 -1.8073  2.8405
36712SOL     OW21859   7.957   3.432   0.875 -0.2956 -0.0198 -0.7254
36712SOL    HW121860   8.028   3.496   0.873  1.0704 -1.4045  0.5599
36712SOL    HW221861   7.988   3.362   0.933 -2.1674 -1.3352 -1.1727
36713SOL     OW21862   1.944   6.026  10.479 -0.2507 -0.2672 -0.2822
36713SOL    HW121863   1.914   6.117  10.473 -1.8637 -0.6140  1.4995
36713SOL    HW221864   2.022   6.030  10.535 -0.1104  0.0451 -0.4945
36714SOL     OW21865  10.138   1.793   1.242  0.4396 -0.0525  0.0561
36714SOL    HW121866  10.165   1.710   1.203 -1.7061 -1.0806  0.5961
36714SOL    HW221867  10.107   1.769   1.329  0.2381  1.4046  0.4053
36715SOL     OW21868   9.694   9.081   9.884 -0.1931 -0.2292  0.0607
36715SOL    HW121869   9.609   9.106   9.921  0.0138 -0.0605  0.4207
36715SOL    HW221870   9.673   9.008   9.825 -0.4047 -1.1003  1.1834
36716SOL     OW21871   1.005   4.584   4.527 -0.1467 -0.1692  0.2113
36716SOL    HW121872   0.931   4.566   4.470  1.2997 -0.1228 -1.8022
36716SOL    HW221873   1.014   4.679   4.526  0.7280 -0.2423 -0.6848
36717SOL     OW21874  10.728   2.126  10.603  0.0885  0.5577  0.0076
36717SOL    HW121875  10.714   2.076  10.522 -1.2577  0.3126  0.3792
36717SOL    HW221876  10.803   2.182  10.583 -0.7672  1.1634 -1.7259
36718SOL     OW21877   9.262   4.264   4.268  0.0756 -1.0340  0.3651
36718SOL    HW121878   9.181   4.311   4.247  0.1431 -1.2586 -0.4303
36718SOL    HW221879   9.272   4.275   4.362 -0.1263  0.1945  0.2609
36719SOL     OW21880   9.969   0.261   7.742  0.3438  0.7775  0.8412
36719SOL    HW121881   9.939   0.171   7.725 -0.0804  1.0245  0.2314
36719SOL    HW221882   9.929   0.284   7.825  1.6395 -0.1096  1.7475
36720SOL     OW21883   6.388   2.615   9.234 -0.0878 -0.3386 -0.0600
36720SOL    HW121884   6.394   2.647   9.144  0.1902 -1.9469 -0.6417
36720SOL    HW221885   6.412   2.523   9.228 -0.8403 -0.6672  1.5443
36721SOL     OW21886   8.583   3.352  11.214  0.0027  0.0043  0.2793
36721SOL    HW121887   8.669   3.393  11.203  0.5501 -0.7900  1.3943
36721SOL    HW221888   8.579   3.330  11.307 -0.6247 -1.6918 -0.1277
36722SOL     OW21889   8.191   3.771   1.986 -0.3750  0.2324  0.1152
36722SOL    HW121890   8.160   3.850   1.943 -0.7351 -0.4711 -0.9731
36722SOL    HW221891   8.180   3.788   2.080 -0.4850  1.4375 -0.1090
36723SOL     OW21892   8.567   4.638  10.258 -0.2191 -0.1633  0.7326
36723SOL    HW121893   8.488   4.615  10.208  0.4137 -1.2911  0.2110
36723SOL    HW221894   8.543   4.621  10.349 -0.8372  0.2863  0.6588
36724SOL     OW21895   2.521   9.011   3.523  0.7467  0.7370  0.3594
36724SOL    HW121896   2.580   9.050   3.587  2.1576 -1.0784  0.2693
36724SOL    HW221897   2.495   9.084   3.467  1.2226  1.9685  1.6712
36725SOL     OW21898   4.017   2.128   9.448  0.2423 -0.0335  0.0316
36725SOL    HW121899   4.059   2.073   9.382 -1.8954 -2.2822  0.3911
36725SOL    HW221900   4.068   2.113   9.528  1.1483  0.4625 -0.4493
36726SOL     OW21901   4.837   0.432   2.901 -0.7110 -0.1533  0.1362
36726SOL    HW121902   4.888   0.495   2.850  0.7787 -1.1387  0.3691
36726SOL    HW221903   4.892   0.411   2.976 -1.0411 -1.9632 -0.0858
36727SOL     OW21904   6.126   4.029   2.145 -0.2213  0.2910 -0.0051
36727SOL    HW121905   6.199   4.090   2.131  0.4221 -0.4072  0.2716
36727SOL    HW221906   6.084   4.061   2.226 -1.5543  1.9658 -1.2752
36728SOL     OW21907   8.464   8.734   6.706 -0.8110 -0.3206  0.6967
36728SOL    HW121908   8.407   8.734   6.784 -1.2440 -1.1505  0.3916
36728SOL    HW221909   8.538   8.789   6.731  0.6408 -2.9825  2.9038
36729SOL     OW21910   2.424   9.874   3.593 -0.1676  0.2438  0.5690
36729SOL    HW121911   2.394   9.792   3.553  0.6426 -0.8004  1.9952
36729SOL    HW221912   2.375   9.943   3.547 -0.6382 -1.0028 -0.8818
36730SOL     OW21913   8.292  10.856   7.126 -0.4395 -0.1236 -0.0360
36730SOL    HW121914   8.341  10.918   7.072  1.6165 -1.6449 -0.0415
36730SOL    HW221915   8.207  10.848   7.082 -0.8008  2.6623  0.0231
36731SOL     OW21916   8.919   4.305   2.300 -0.1779 -0.3007 -0.5506
36731SOL    HW121917   8.829   4.322   2.329 -1.3266 -0.0034 -3.9368
36731SOL    HW221918   8.914   4.222   2.254  1.0264  0.2242 -1.6723
36732SOL     OW21919   5.467   0.034  10.185 -0.1663  0.1711  0.0277
36732SOL    HW121920   5.482   0.030  10.279 -0.4532 -0.6162  0.0476
36732SOL    HW221921   5.397  -0.030  10.169 -0.2409  0.4243 -0.6935
36733SOL     OW21922   4.285   1.096   4.495  0.0544 -0.6327 -0.3018
36733SOL    HW121923   4.298   1.001   4.496  0.8920 -0.5749  2.5794
36733SOL    HW221924   4.209   1.110   4.551 -0.9698  0.3767 -1.8583
36734SOL     OW21925   9.090   1.404   3.995 -0.1355 -0.5712 -0.6602
36734SOL    HW121926   9.140   1.484   4.012 -0.8399  0.0316 -1.3281
36734SOL    HW221927   9.150   1.333   4.017  1.1602  0.1160 -1.8319
36735SOL     OW21928   1.372   2.900   7.210 -0.4437  0.5161  0.2149
36735SOL    HW121929   1.361   2.950   7.291 -0.0900 -1.6284  1.6674
36735SOL    HW221930   1.284   2.872   7.186 -0.6691  1.9503 -0.7217
36736SOL     OW21931   6.212   8.542   4.857 -0.5522 -0.8159  0.1361
36736SOL    HW121932   6.296   8.570   4.820  0.7853 -0.9200  2.8121
36736SOL    HW221933   6.154   8.617   4.844  0.7062  0.2450  0.3843
36737SOL     OW21934   4.970   7.574   7.697 -0.4609 -0.1023 -0.3534
36737SOL    HW121935   5.054   7.618   7.707  0.1922 -1.1372 -1.1547
36737SOL    HW221936   4.964   7.516   7.773 -0.1414 -0.5222 -0.6483
36738SOL     OW21937   6.913   5.798   1.274 -0.2111 -0.0877  0.2210
36738SOL    HW121938   6.859   5.773   1.349 -1.1496 -1.4775 -0.8791
36738SOL    HW221939   6.850   5.815   1.204  0.5895  2.1778 -0.0324
36739SOL     OW21940  11.845   0.108   9.759  0.3501  0.2526 -0.1284
36739SOL    HW121941  11.821   0.166   9.832 -1.5768  0.4199 -0.8373
36739SOL    HW221942  11.767   0.056   9.743  1.0129 -0.3657 -1.5362
36740SOL     OW21943  11.660   8.527   6.179 -0.1909  0.1986  0.7431
36740SOL    HW121944  11.616   8.577   6.248 -0.0815  2.5515 -0.8155
36740SOL    HW221945  11.719   8.589   6.138 -1.3606 -0.6492 -2.4806
36741SOL     OW21946   8.963  10.494   6.244  0.0729 -0.2836 -0.3058
36741SOL    HW121947   8.892  10.510   6.307 -2.3341 -1.4236 -2.5537
36741SOL    HW221948   8.929  10.525   6.161  3.0079  0.7918 -1.2186
36742SOL     OW21949   6.274   3.866   2.873  0.3905  0.0928  0.5579
36742SOL    HW121950   6.187   3.829   2.852  0.7002 -0.3159 -0.0524
36742SOL    HW221951   6.298   3.825   2.956  0.1094  0.0083  0.5992
36743SOL     OW21952  10.911   2.472   1.448  0.5824  0.4534  0.5566
36743SOL    HW121953  10.836   2.423   1.482  0.2153 -0.7654 -1.8331
36743SOL    HW221954  10.960   2.498   1.527 -1.3645 -0.2656  2.0856
36744SOL     OW21955   7.988   4.639   0.641 -0.1832  0.3250  0.0573
36744SOL    HW121956   8.048   4.710   0.667  0.8373 -0.4326 -0.1594
36744SOL    HW221957   8.004   4.627   0.547 -0.4395 -0.1143  0.0673
36745SOL     OW21958   4.389   9.678   1.418  0.1112  0.1068 -0.0053
36745SOL    HW121959   4.322   9.745   1.430 -0.1860 -0.2389  0.2779
36745SOL    HW221960   4.472   9.726   1.421 -0.0022  0.2737  1.8101
36746SOL     OW21961   3.748  11.525  11.045  0.7769 -0.0908  0.4944
36746SOL    HW121962   3.751  11.615  11.012  0.2375 -0.3628 -0.3338
36746SOL    HW221963   3.666  11.521  11.095 -0.2071 -0.6245 -1.0733
36747SOL     OW21964  10.457   4.148   8.860 -0.2587  0.1744  0.6581
36747SOL    HW121965  10.447   4.236   8.897 -0.1756  0.7628 -0.6601
36747SOL    HW221966  10.522   4.106   8.917  0.0016  1.1026  1.0805
36748SOL     OW21967   7.173   2.668  11.504 -0.2011 -0.0106 -0.1268
36748SOL    HW121968   7.170   2.585  11.550 -1.2879  0.0986  0.0192
36748SOL    HW221969   7.083   2.683  11.474  0.1553  0.6805 -0.9189
36749SOL     OW21970   0.839   9.250  10.139  0.0801 -0.0515 -0.0957
36749SOL    HW121971   0.934   9.263  10.138  0.1827 -0.7425  0.2688
36749SOL    HW221972   0.816   9.239  10.046  0.4369 -0.4539 -0.1386
36750SOL     OW21973   8.966   6.326   3.459  0.6895  0.1287  0.3387
36750SOL    HW121974   8.871   6.312   3.460  0.6468  0.4224  0.4090
36750SOL    HW221975   8.985   6.354   3.369  1.0579 -2.2701 -0.4313
36751SOL     OW21976   2.554   5.746   9.531 -0.4995 -0.1157 -0.2509
36751SOL    HW121977   2.477   5.728   9.584  0.6705 -0.6432  1.3523
36751SOL    HW221978   2.628   5.715   9.584  0.9936  2.1882 -0.8160
36752SOL     OW21979   7.926  10.651   7.310  0.6861  0.1558 -0.0219
36752SOL    HW121980   7.951  10.579   7.251 -2.3929  0.4171 -1.8833
36752SOL    HW221981   7.927  10.612   7.397  1.2163 -1.5120 -0.7265
36753SOL     OW21982   2.180   6.600   2.285 -0.1827  0.6225 -0.0590
36753SOL    HW121983   2.251   6.572   2.341  0.8330  2.1941 -0.4954
36753SOL    HW221984   2.213   6.679   2.241 -2.7337  2.4059  0.9493
36754SOL     OW21985   2.416   0.046   5.264 -0.4056 -0.4872  0.0805
36754SOL    HW121986   2.407   0.016   5.173  0.0739  0.2416 -0.2239
36754SOL    HW221987   2.327   0.052   5.296 -0.5465 -1.4242 -0.1153
36755SOL     OW21988   8.631   9.902   5.355  0.6436  0.3907 -0.0156
36755SOL    HW121989   8.718   9.890   5.316  1.2276 -0.4415  1.4628
36755SOL    HW221990   8.598   9.813   5.369  0.1350  0.6746  0.6594
36756SOL     OW21991   4.154   1.743   2.515 -0.7505  0.3183 -0.0490
36756SOL    HW121992   4.138   1.651   2.494  0.6424  0.3268 -1.3183
36756SOL    HW221993   4.067   1.782   2.521 -1.5307 -1.5271  2.9581
36757SOL     OW21994   0.225  11.648  11.299 -0.4304 -0.3567 -0.6454
36757SOL    HW121995   0.282  11.638  11.376  0.7798  1.5179 -1.2322
36757SOL    HW221996   0.232  11.564  11.253  0.8461 -0.6094 -0.0361
36758SOL     OW21997   3.098   6.604   7.257  0.9266 -0.7045  0.3973
36758SOL    HW121998   3.116   6.514   7.231  0.7224 -0.4350 -0.7144
36758SOL    HW221999   3.148   6.616   7.338  1.0907 -1.7552  0.4642
36759SOL     OW22000   5.964   4.165   2.395 -0.3297 -0.4196  0.1560
36759SOL    HW122001   5.988   4.157   2.487 -0.8942 -1.1513  0.2491
36759SOL    HW222002   5.896   4.100   2.382  1.5732 -2.2611 -1.4188
36760SOL     OW22003   5.123   4.700   3.779 -0.1699 -0.0790  0.0255
36760SOL    HW122004   5.057   4.678   3.845 -2.0510  2.4911 -0.8670
36760SOL    HW222005   5.105   4.791   3.755  2.1108 -0.0829 -2.1649
36761SOL     OW22006   6.888  10.392   1.372  0.2608 -0.5484 -0.5010
36761SOL    HW122007   6.796  10.414   1.384  0.5878  2.4008 -2.2936
36761SOL    HW222008   6.907  10.329   1.441 -2.3726  0.9123  1.7697
36762SOL     OW22009   9.210   7.746   9.685 -0.1441  0.2509 -0.0618
36762SOL    HW122010   9.238   7.657   9.705 -2.4255 -0.6569 -0.6544
36762SOL    HW222011   9.289   7.790   9.653  0.7431 -1.9379 -1.0146
36763SOL     OW22012   5.545  11.503   2.779  0.2198 -0.3181  0.6023
36763SOL    HW122013   5.591  11.419   2.771 -0.4769 -0.5648 -1.5393
36763SOL    HW222014   5.503  11.500   2.864  0.9351 -1.7594  0.9334
36764SOL     OW22015   6.615   7.808   1.556 -0.0321  0.6298  0.6258
36764SOL    HW122016   6.651   7.726   1.588 -0.6418 -0.1730 -0.6323
36764SOL    HW222017   6.650   7.875   1.614  1.9360 -0.3138  0.5939
36765SOL     OW22018   6.626   5.046   4.304 -0.3433  0.2224  0.1775
36765SOL    HW122019   6.650   5.138   4.313  1.9689  0.0721 -2.7190
36765SOL    HW222020   6.640   5.009   4.391  1.9163  1.9841  0.6775
36766SOL     OW22021   4.301   0.823   8.341  0.2636  0.5151  0.4135
36766SOL    HW122022   4.281   0.906   8.297  2.8510 -0.0682 -2.1373
36766SOL    HW222023   4.289   0.756   8.273  0.4682 -0.9572  1.7633
36767SOL     OW22024   2.864   9.292   6.735 -0.5782  0.0524  0.1918
36767SOL    HW122025   2.881   9.198   6.738  0.8645  0.2903  0.0620
36767SOL    HW222026   2.936   9.328   6.684 -0.5752  1.3463  1.0595
36768SOL     OW22027   6.936   0.490   5.250 -0.5315  0.2380 -0.4574
36768SOL    HW122028   6.869   0.422   5.261 -1.3579  0.9534 -1.0052
36768SOL    HW222029   6.926   0.521   5.160  1.4752 -0.5965 -1.0295
36769SOL     OW22030  11.546   1.354   3.676  0.2440  0.1117 -0.2553
36769SOL    HW122031  11.561   1.377   3.768  0.8238  0.0691 -0.3377
36769SOL    HW222032  11.582   1.427   3.626 -1.8758  1.1143 -0.4249
36770SOL     OW22033   5.025   9.914   0.964  0.5374 -0.2974 -0.3051
36770SOL    HW122034   5.069   9.829   0.955  1.0396 -0.1199  0.3885
36770SOL    HW222035   4.936   9.892   0.993  0.5252 -0.6105 -0.5814
36771SOL     OW22036  11.190   2.392   3.776 -0.3053 -0.2498 -0.3383
36771SOL    HW122037  11.123   2.431   3.832  0.0074  0.4904 -0.4633
36771SOL    HW222038  11.191   2.299   3.800 -1.7848 -0.4007 -0.7647
36772SOL     OW22039   1.992   4.981   7.339  0.0039  0.3072 -0.1999
36772SOL    HW122040   1.984   5.036   7.261  1.3144 -1.6157 -1.8027
36772SOL    HW222041   2.046   5.031   7.399  1.8524  0.5196 -1.9302
36773SOL     OW22042   3.705   4.356   7.532 -0.1024 -0.4792  0.3186
36773SOL    HW122043   3.746   4.443   7.537 -0.7497 -0.2321  1.5627
36773SOL    HW222044   3.771   4.302   7.487 -0.9516  1.3462 -3.5954
36774SOL     OW22045   6.650   2.644   9.429 -0.8272  0.2163 -0.2432
36774SOL    HW122046   6.577   2.657   9.369  0.3748  1.4400 -1.5269
36774SOL    HW222047   6.655   2.726   9.478  0.9736  1.0381 -1.6995
36775SOL     OW22048   4.227  10.889  10.959  0.3030  0.3456  0.3355
36775SOL    HW122049   4.225  10.985  10.962 -1.4430  0.3197  1.2093
36775SOL    HW222050   4.245  10.863  11.049 -0.0806 -0.1541  0.2711
36776SOL     OW22051  10.780  10.029   5.000 -0.2238 -0.0327 -0.1654
36776SOL    HW122052  10.713  10.020   5.068  0.7840 -3.0775  0.5628
36776SOL    HW222053  10.792  10.123   4.991 -2.6442  0.5511  1.6015
36777SOL     OW22054   2.496   3.277   4.647  0.3280 -0.2465  0.4035
36777SOL    HW122055   2.416   3.225   4.642  0.5313 -0.9587  3.2105
36777SOL    HW222056   2.466   3.368   4.657 -0.0306 -0.0993 -1.5069
36778SOL     OW22057   4.804   3.660   8.017 -0.2516 -0.0295  0.0048
36778SOL    HW122058   4.763   3.709   8.088  1.0985  0.2513  0.6353
36778SOL    HW222059   4.852   3.590   8.062  0.5653  0.1102 -0.6296
36779SOL     OW22060   0.160   2.247  10.194 -0.3306 -0.0205  0.1731
36779SOL    HW122061   0.083   2.194  10.173  0.5506 -0.0363 -3.9443
36779SOL    HW222062   0.144   2.331  10.151  1.7858  0.0055 -0.7182
36780SOL     OW22063   7.178   7.053   3.815 -0.4032 -0.1472  0.0145
36780SOL    HW122064   7.095   7.042   3.862 -1.0275 -2.6354 -1.4876
36780SOL    HW222065   7.154   7.048   3.722  1.2292  0.8509 -0.5020
36781SOL     OW22066  11.629   2.308   0.583 -0.1829 -0.3751 -0.0186
36781SOL    HW122067  11.631   2.235   0.645  0.4249  0.4771  0.9973
36781SOL    HW222068  11.632   2.266   0.497  1.6073 -1.5480  0.5436
36782SOL     OW22069   5.089   1.300   7.989 -0.4691 -0.2351  0.4073
36782SOL    HW122070   5.173   1.288   7.945 -1.2632 -1.1340 -0.9345
36782SOL    HW222071   5.050   1.212   7.989 -0.6528 -0.2258  2.6862
36783SOL     OW22072   1.584   8.650  10.863  0.0718 -0.2526  0.2823
36783SOL    HW122073   1.607   8.694  10.782  1.4567  0.5646  1.0750
36783SOL    HW222074   1.645   8.576  10.869  1.4400  0.9193  1.5660
36784SOL     OW22075   5.755   9.501   8.760 -0.2579  0.2788  0.1134
36784SOL    HW122076   5.682   9.563   8.761 -0.2042  0.3688  1.5606
36784SOL    HW222077   5.755   9.464   8.672 -1.5676  0.8422 -0.1411
36785SOL     OW22078  11.818   5.422   1.645 -0.2311 -0.6984  0.8167
36785SOL    HW122079  11.826   5.328   1.633 -1.1793 -0.8674  1.4708
36785SOL    HW222080  11.777   5.433   1.730 -2.0496  0.2392 -0.1321
36786SOL     OW22081   0.068   2.474   6.573  0.1486 -0.1763 -0.0780
36786SOL    HW122082   0.089   2.527   6.650  0.2939  1.1811 -1.0122
36786SOL    HW222083   0.143   2.486   6.515 -1.1955  1.1677 -1.6124
36787SOL     OW22084   1.121   4.929   4.792 -0.1661 -0.0766 -0.0265
36787SOL    HW122085   1.128   4.942   4.887  0.4945  1.2006 -0.2306
36787SOL    HW222086   1.211   4.928   4.761 -0.4052  1.2806 -0.8427
36788SOL     OW22087   4.502   5.038   0.716  0.0423 -0.0285  0.2128
36788SOL    HW122088   4.544   5.001   0.639 -0.8978 -2.3678  0.7381
36788SOL    HW222089   4.430   5.092   0.681  1.3758  1.3182 -0.5660
36789SOL     OW22090   9.634  11.455   9.342  0.5496 -0.4056  0.0026
36789SOL    HW122091   9.669  11.544   9.343  3.1707 -1.3354  0.2959
36789SOL    HW222092   9.668  11.417   9.260 -0.8679 -1.0447 -0.3244
36790SOL     OW22093   6.620   4.816   5.069  0.5821  0.3214  0.0066
36790SOL    HW122094   6.671   4.805   5.149  0.6764 -0.7794 -0.1886
36790SOL    HW222095   6.584   4.729   5.052 -0.0016  0.7073 -0.7704
36791SOL     OW22096   3.390   0.733  10.791 -0.3690 -0.1706  0.3670
36791SOL    HW122097   3.343   0.718  10.710  1.2973 -0.0030 -0.6845
36791SOL    HW222098   3.385   0.828  10.805 -0.5310 -0.1816  0.3831
36792SOL     OW22099   1.376   9.102  10.558  0.0485 -0.3820 -0.0574
36792SOL    HW122100   1.339   9.048  10.627  0.4410 -0.0386  0.4319
36792SOL    HW222101   1.457   9.137  10.596  1.6184 -2.1667 -1.5466
36793SOL     OW22102   5.432   5.465  10.194  0.3744 -0.3079  0.0811
36793SOL    HW122103   5.373   5.514  10.251  0.1848  0.3162 -0.6291
36793SOL    HW222104   5.520   5.490  10.221  0.2783  0.3438 -0.2059
36794SOL     OW22105   3.181  11.944   8.630  0.0583  0.1744  0.1259
36794SOL    HW122106   3.246  11.880   8.660  1.1040  1.0316 -0.2892
36794SOL    HW222107   3.130  11.896   8.565 -0.3325 -0.7828  1.0901
36795SOL     OW22108  11.679   5.930  11.769  0.0334  0.0017  0.1470
36795SOL    HW122109  11.768   5.947  11.739  0.4276  0.9369  1.7272
36795SOL    HW222110  11.630   6.008  11.745  0.1359  0.3561  1.0425
36796SOL     OW22111   6.740  10.962   1.524  0.4125 -0.4039  0.4035
36796SOL    HW122112   6.652  10.998   1.531  0.6221  0.8985 -2.4007
36796SOL    HW222113   6.779  10.976   1.610 -1.4234  0.8813  1.0787
36797SOL     OW22114   9.248   3.845   6.237  0.1210 -0.0831 -0.3941
36797SOL    HW122115   9.270   3.764   6.192  0.0482  0.2756 -1.0858
36797SOL    HW222116   9.248   3.912   6.168 -1.1537  0.2797 -0.0712
36798SOL     OW22117   9.999   5.305   9.915  0.2906  0.0532  0.0921
36798SOL    HW122118  10.058   5.298   9.840  1.4621  2.0794  0.7422
36798SOL    HW222119  10.017   5.391   9.951 -2.2495  0.2531  1.0635
36799SOL     OW22120   4.543   7.539   4.052 -0.1703 -0.3271  0.2414
36799SOL    HW122121   4.607   7.600   4.016  2.7537 -1.1697  3.4905
36799SOL    HW222122   4.557   7.458   4.003  0.3653 -0.1585  0.1092
36800SOL     OW22123   3.030  11.077   0.794 -0.2991 -0.3728  0.3248
36800SOL    HW122124   2.969  11.138   0.837 -0.9004 -0.4172 -0.4380
36800SOL    HW222125   3.025  11.101   0.701  0.9813 -0.2739  0.2664
36801SOL     OW22126  10.085   2.469   9.710 -0.1526  0.6581 -0.1685
36801SOL    HW122127  10.034   2.413   9.770 -2.6523 -0.9805 -3.4915
36801SOL    HW222128  10.169   2.423   9.700 -0.1539  0.3398  1.1199
36802SOL     OW22129   1.212  11.224   8.403  0.3298 -0.6959  0.0573
36802SOL    HW122130   1.189  11.140   8.362 -2.0374 -0.3206  0.4638
36802SOL    HW222131   1.166  11.289   8.350  1.5584  0.2958  0.1836
36803SOL     OW22132   4.918   5.730   2.505 -0.5399 -0.6083 -0.1522
36803SOL    HW122133   4.987   5.667   2.486  0.7929  0.3385  1.2375
36803SOL    HW222134   4.911   5.730   2.601 -0.1315  1.6537 -0.0596
36804SOL     OW22135   3.954  11.359   4.029 -0.3943 -0.3118 -0.0240
36804SOL    HW122136   3.962  11.264   4.033  1.0058 -0.2424 -0.4539
36804SOL    HW222137   4.016  11.391   4.096 -1.4753  0.2860  0.7156
36805SOL     OW22138  10.781   2.343   2.565  0.1147  0.3403  0.0674
36805SOL    HW122139  10.696   2.314   2.600  0.3302  0.1527  0.4343
36805SOL    HW222140  10.844   2.279   2.599  0.4893  0.8241  0.2895
36806SOL     OW22141   7.561   2.536   4.270  0.3706  0.1116  0.2393
36806SOL    HW122142   7.468   2.558   4.258  0.2469 -1.0326 -1.3319
36806SOL    HW222143   7.607   2.620   4.262 -0.5599  0.8531  2.0615
36807SOL     OW22144   3.083   6.762   1.396 -0.4483  0.0781 -0.0649
36807SOL    HW122145   3.154   6.824   1.378  0.5091 -1.2111 -0.9376
36807SOL    HW222146   3.107   6.723   1.480 -0.0988 -0.3605 -0.3618
36808SOL     OW22147   8.390   5.909   0.225 -0.0427 -0.4732 -0.1405
36808SOL    HW122148   8.472   5.941   0.188 -1.0669  0.1351 -2.0734
36808SOL    HW222149   8.405   5.905   0.319  1.5033  1.7191 -0.2261
36809SOL     OW22150   3.825   4.583   5.797  0.1986  0.0873  0.2399
36809SOL    HW122151   3.735   4.590   5.766 -0.3858 -1.8983  1.3665
36809SOL    HW222152   3.839   4.664   5.846 -1.1467  0.1933  0.4923
36810SOL     OW22153   9.298   5.546   3.662  0.3380 -0.5305 -0.5159
36810SOL    HW122154   9.229   5.612   3.669  0.8762  0.0541 -0.6969
36810SOL    HW222155   9.260   5.479   3.605 -0.9034 -1.2896  1.1216
36811SOL     OW22156   0.664   0.761   8.460  0.0973 -0.1756 -0.3796
36811SOL    HW122157   0.728   0.819   8.419 -0.0114  0.0942 -0.1719
36811SOL    HW222158   0.624   0.814   8.529 -0.0553 -0.4738 -0.2350
36812SOL     OW22159   9.898   6.174   7.890  0.4873 -0.3577  0.4763
36812SOL    HW122160   9.904   6.132   7.976  1.0509 -1.3192 -0.0195
36812SOL    HW222161   9.958   6.248   7.895 -0.2181  0.1899  1.2243
36813SOL     OW22162   2.445   3.142   5.667  0.4702 -0.4405  0.0423
36813SOL    HW122163   2.475   3.080   5.734  0.7604 -0.8039 -0.4162
36813SOL    HW222164   2.469   3.100   5.584 -1.2908 -0.7598 -0.3530
36814SOL     OW22165   3.198   0.840   9.369  0.4715 -0.2170  0.1973
36814SOL    HW122166   3.104   0.827   9.358  0.6950 -1.2168 -0.6788
36814SOL    HW222167   3.210   0.852   9.463 -0.8173  2.4775  0.1173
36815SOL     OW22168   9.919   3.702   6.332  0.5273 -0.4590  0.0847
36815SOL    HW122169   9.877   3.619   6.309  0.5781 -0.3190 -0.5322
36815SOL    HW222170   9.939   3.694   6.425 -0.7225 -0.5884  0.3559
36816SOL     OW22171   3.036   7.232   5.558  0.4331  0.4197  0.9303
36816SOL    HW122172   2.987   7.294   5.613  2.0019  0.9880  1.7663
36816SOL    HW222173   3.019   7.262   5.469  1.4638  2.3920  1.3174
36817SOL     OW22174   5.104   3.448   0.001 -0.2396  0.2268 -0.0124
36817SOL    HW122175   5.177   3.475   0.056  1.3560 -0.8983 -1.4600
36817SOL    HW222176   5.145   3.407  -0.075 -2.3896 -0.8647 -0.6817
36818SOL     OW22177   9.452  11.954   4.597  0.5041  0.1724  0.3990
36818SOL    HW122178   9.533  11.902   4.588 -0.4455 -1.8020  2.1812
36818SOL    HW222179   9.396  11.924   4.526  1.2308  1.4549 -0.7656
36819SOL     OW22180   6.798   9.307   8.532  0.2656  0.2008 -0.5572
36819SOL    HW122181   6.799   9.316   8.437  0.9822  1.4979 -0.4444
36819SOL    HW222182   6.775   9.393   8.565  0.0553 -0.2246  0.4508
36820SOL     OW22183   7.105  11.582   9.538  0.5448 -0.5059 -0.4072
36820SOL    HW122184   7.166  11.608   9.470  0.5950 -0.0298 -0.1856
36820SOL    HW222185   7.124  11.641   9.611 -0.7902  0.2760 -0.6591
36821SOL     OW22186   3.803   6.888   0.923  0.2706  0.3574 -0.4032
36821SOL    HW122187   3.734   6.827   0.897 -0.5204  0.7355  0.6913
36821SOL    HW222188   3.756   6.955   0.973  1.3435  1.0073 -0.2618
36822SOL     OW22189   2.763   4.251   4.708 -0.3771  0.3903 -0.4924
36822SOL    HW122190   2.763   4.277   4.800 -0.7275 -3.2010  0.6981
36822SOL    HW222191   2.675   4.274   4.677 -0.2706  1.6037  0.0589
36823SOL     OW22192   0.324   9.938   8.623 -0.0346 -0.5161 -0.4504
36823SOL    HW122193   0.308   9.954   8.530  0.7651  0.4100 -0.4379
36823SOL    HW222194   0.294  10.018   8.666 -1.2782 -1.2972  0.2043
36824SOL     OW22195   0.095   2.021   2.661 -0.6659  0.5031  0.4740
36824SOL    HW122196   0.021   1.977   2.617 -0.3482  0.9596 -0.5549
36824SOL    HW222197   0.074   2.114   2.655  1.6408  0.9978 -3.1824
36825SOL     OW22198   0.536   2.824   0.835  0.4300  0.1901  0.1109
36825SOL    HW122199   0.601   2.890   0.810 -1.1880  1.4608 -0.9651
36825SOL    HW222200   0.501   2.791   0.751 -0.1592 -0.6172  0.6550
36826SOL     OW22201   9.759   0.167   7.034 -0.2945 -0.1448 -0.2121
36826SOL    HW122202   9.761   0.134   7.124 -1.3040  0.1968 -0.0459
36826SOL    HW222203   9.691   0.235   7.035  0.0338  0.2107 -1.1184
36827SOL     OW22204  11.298   5.586   3.395 -0.1370  0.3682 -0.5179
36827SOL    HW122205  11.261   5.654   3.451 -1.9014 -0.5767 -0.4656
36827SOL    HW222206  11.275   5.613   3.306  0.0024  0.3100 -0.5726
36828SOL     OW22207   2.946   3.240   4.502  0.0937 -0.7864  0.4831
36828SOL    HW122208   3.012   3.297   4.542 -0.6721  1.4863 -1.2526
36828SOL    HW222209   2.880   3.229   4.571  0.5471 -0.0323  1.0658
36829SOL     OW22210  10.545   2.887   2.304  0.0708  0.4179  0.7842
36829SOL    HW122211  10.531   2.953   2.236 -0.5161 -1.1878 -0.7272
36829SOL    HW222212  10.599   2.931   2.369 -0.1014  2.3093 -0.2787
36830SOL     OW22213   3.567  10.403   2.383  0.8914 -0.4839  0.2502
36830SOL    HW122214   3.562  10.398   2.479  1.9028  1.5606  0.4667
36830SOL    HW222215   3.477  10.421   2.356  1.1928  4.0277  1.3528
36831SOL     OW22216   1.079   6.579   9.483 -0.1508  0.2725  0.0064
36831SOL    HW122217   1.131   6.620   9.552  1.2775 -0.7265 -0.4228
36831SOL    HW222218   1.144   6.536   9.427 -1.4908 -2.6955  0.5227
36832SOL     OW22219   9.954   2.970   0.236 -0.0027  0.0327 -0.5396
36832SOL    HW122220   9.993   3.057   0.236 -1.0659  0.5979  1.9403
36832SOL    HW222221  10.014   2.916   0.287  0.1644 -0.4555 -1.2390
36833SOL     OW22222  10.597   6.722   1.569 -0.2966  0.3575 -0.3352
36833SOL    HW122223  10.664   6.697   1.633  0.4633 -2.2872 -2.0108
36833SOL    HW222224  10.556   6.800   1.607  3.5905  2.1023  0.8650
36834SOL     OW22225   8.154   4.582  10.903  0.6132 -0.1800 -0.1911
36834SOL    HW122226   8.106   4.663  10.884  0.0040 -0.6687 -0.7816
36834SOL    HW222227   8.241   4.612  10.929  0.0082  0.7180  0.8642
36835SOL     OW22228   5.697   0.629   7.907  0.2421  0.3434 -0.0398
36835SOL    HW122229   5.664   0.544   7.936  2.5698 -0.6324 -0.0331
36835SOL    HW222230   5.697   0.683   7.985 -0.3918  0.0715  0.1572
36836SOL     OW22231   2.871   7.523   2.288  0.1812 -0.8029  0.2678
36836SOL    HW122232   2.851   7.444   2.338  0.4130  0.0467  1.7684
36836SOL    HW222233   2.844   7.595   2.345 -0.1186  0.2116 -1.1037
36837SOL     OW22234   2.741   4.013  11.764  1.0137  0.2971  0.1933
36837SOL    HW122235   2.740   3.966  11.681  1.6354 -1.6758  1.2390
36837SOL    HW222236   2.834   4.026  11.783  0.8657  1.1727  0.3764
36838SOL     OW22237   7.389   9.635   7.100 -0.2214 -0.1479 -0.0145
36838SOL    HW122238   7.405   9.721   7.139 -0.1259 -0.0501 -0.2650
36838SOL    HW222239   7.294   9.631   7.089 -0.3922 -0.7213  1.4562
36839SOL     OW22240   6.823   0.086   5.359 -0.5353 -0.2529  0.4157
36839SOL    HW122241   6.895   0.124   5.411 -0.5715 -1.2330  1.2222
36839SOL    HW222242   6.750   0.080   5.421 -1.4240  0.9907 -0.4732
36840SOL     OW22243   1.217  11.452  10.207  0.2039  0.1411  0.2857
36840SOL    HW122244   1.273  11.515  10.163 -1.0943 -0.0193 -1.7026
36840SOL    HW222245   1.275  11.406  10.268  1.5186  2.0908  0.5762
36841SOL     OW22246   5.751   4.062   9.012 -0.1784 -0.3314  0.1449
36841SOL    HW122247   5.831   4.073   8.960  0.3399  1.0135  1.1656
36841SOL    HW222248   5.782   4.060   9.102 -1.1540 -1.6797  0.4748
36842SOL     OW22249   8.304   4.404  11.407 -0.4382  0.0752  0.4020
36842SOL    HW122250   8.298   4.499  11.396 -0.3953 -0.0696 -1.1175
36842SOL    HW222251   8.395   4.388  11.431 -0.9492  0.5717  2.9432
36843SOL     OW22252   7.384   9.380   8.347  0.1990 -0.0082 -0.4529
36843SOL    HW122253   7.373   9.463   8.301 -0.2308  1.2750  1.8465
36843SOL    HW222254   7.443   9.400   8.419  0.4012 -1.8105 -0.0686
36844SOL     OW22255   1.369   7.770  10.463 -0.2377  1.0048 -0.1103
36844SOL    HW122256   1.371   7.697  10.525  0.3682  1.4525  0.4242
36844SOL    HW222257   1.461   7.784  10.440 -0.4338  1.0151 -0.9190
36845SOL     OW22258   1.110   2.957   6.916  0.2096 -0.4300 -0.2642
36845SOL    HW122259   1.130   2.998   6.832  1.2138 -0.8230 -0.2323
36845SOL    HW222260   1.155   3.012   6.980 -0.9616  0.1562  0.0801
36846SOL     OW22261   3.755   2.796   8.150  0.0744  0.3713 -0.0016
36846SOL    HW122262   3.751   2.839   8.235 -0.3799 -0.4420  0.3952
36846SOL    HW222263   3.674   2.745   8.145  1.0123 -1.1694 -0.0638
36847SOL     OW22264   9.526   6.912   5.273  0.4202 -0.0853  0.2268
36847SOL    HW122265   9.621   6.913   5.269  0.4286 -0.7486  0.1836
36847SOL    HW222266   9.499   6.998   5.240  0.9467 -0.4772 -1.2925
36848SOL     OW22267  10.818   4.046  11.418 -0.4178  0.3635  0.0038
36848SOL    HW122268  10.744   4.016  11.366  0.1414 -1.8267  0.3847
36848SOL    HW222269  10.896   4.013  11.373  0.3340  2.0495 -0.0279
36849SOL     OW22270   8.390   5.334   7.120  0.7243 -0.0326 -0.3427
36849SOL    HW122271   8.299   5.356   7.136  0.6166  0.0593 -1.0737
36849SOL    HW222272   8.398   5.330   7.025  1.7509  1.1076 -0.3298
36850SOL     OW22273   7.014   8.353  11.893 -0.3662  0.7558 -0.3784
36850SOL    HW122274   7.006   8.386  11.983  0.0439 -0.8936  0.3105
36850SOL    HW222275   6.988   8.261  11.900  0.0695  0.5027 -1.8832
36851SOL     OW22276   1.219  11.288   5.957 -0.1996  0.3215 -0.1231
36851SOL    HW122277   1.248  11.207   5.999 -1.5191 -0.4925 -0.7303
36851SOL    HW222278   1.165  11.260   5.884 -2.5991  1.6993  0.9820
36852SOL     OW22279   8.072   9.533   5.840  0.1530  0.0802 -0.2273
36852SOL    HW122280   8.144   9.528   5.902 -0.7174 -1.7033  0.7236
36852SOL    HW222281   8.084   9.457   5.783 -2.0221 -1.4919  1.2424
36853SOL     OW22282   8.136   4.640  10.008  0.6622 -0.0715  0.7157
36853SOL    HW122283   8.137   4.735   9.998 -1.2914 -0.0447  0.4821
36853SOL    HW222284   8.050   4.613   9.976  1.0011 -1.8768  1.2094
36854SOL     OW22285   1.406   0.151  11.113 -0.8743  0.0098 -0.5056
36854SOL    HW122286   1.389   0.243  11.090  2.6366  1.1859  0.8903
36854SOL    HW222287   1.473   0.123  11.051 -0.2445 -0.7910  0.4941
36855SOL     OW22288   4.374   3.534   7.338  0.1379  0.1372  0.4157
36855SOL    HW122289   4.355   3.548   7.431 -1.5033  0.0842  0.1186
36855SOL    HW222290   4.384   3.622   7.302  0.8575  0.1548  0.6544
36856SOL     OW22291   9.068   3.809   7.080 -0.3993 -0.8831 -0.3848
36856SOL    HW122292   8.978   3.840   7.095  0.6211  2.5204 -0.4270
36856SOL    HW222293   9.119   3.850   7.149  1.3892 -1.3729 -1.3646
36857SOL     OW22294   3.503  10.957   7.940  0.1537 -0.5639  0.1628
36857SOL    HW122295   3.435  10.933   8.002 -0.3437 -2.3998 -1.0021
36857SOL    HW222296   3.500  10.888   7.873  0.9785  1.0381 -1.6387
36858SOL     OW22297   6.594   1.663   8.586  0.0170  0.1163  0.0621
36858SOL    HW122298   6.505   1.656   8.619  0.5555  0.5156  1.7076
36858SOL    HW222299   6.643   1.704   8.658  1.7126 -0.9116 -0.4542
36859SOL     OW22300   6.774  11.111   0.991 -0.0522  0.1430 -0.1166
36859SOL    HW122301   6.762  11.019   0.967 -3.3565  0.2774  0.6315
36859SOL    HW222302   6.821  11.108   1.075  0.3711 -0.8228 -0.3760
36860SOL     OW22303   5.663   8.614   6.303  0.2012 -0.2703 -0.2752
36860SOL    HW122304   5.621   8.590   6.385 -1.4610  1.2907 -0.5924
36860SOL    HW222305   5.604   8.678   6.264  2.2334  1.0170 -1.4459
36861SOL     OW22306   8.343   9.228  11.439  0.5484  0.4808  0.6972
36861SOL    HW122307   8.276   9.205  11.375  0.1827  2.6182  0.2470
36861SOL    HW222308   8.426   9.209  11.396  0.2812 -0.9101  0.7512
36862SOL     OW22309  10.308   2.075   2.332 -0.4185  0.0988 -0.0568
36862SOL    HW122310  10.232   2.018   2.335 -1.1414  1.0626  0.2824
36862SOL    HW222311  10.285   2.144   2.270  0.5744 -0.1462 -0.7284
36863SOL     OW22312   0.000   1.755   6.142 -0.5140  0.1298 -0.2410
36863SOL    HW122313  -0.005   1.806   6.222 -1.7635  0.5583 -0.5660
36863SOL    HW222314  -0.062   1.683   6.155 -1.9400  1.0900 -1.4018
36864SOL     OW22315  11.579   5.437   1.826  0.2980  0.3050 -0.0569
36864SOL    HW122316  11.549   5.525   1.851 -0.6436  0.7054 -2.3658
36864SOL    HW222317  11.575   5.387   1.908 -3.1293  1.3373  0.5768
36865SOL     OW22318   4.523   8.180   2.892  0.4891  0.4307  0.5804
36865SOL    HW122319   4.538   8.256   2.948  1.1071  1.3023 -0.7182
36865SOL    HW222320   4.611   8.150   2.869  0.3723 -2.2336  2.9864
36866SOL     OW22321   8.971   6.534   5.976 -0.2715 -0.2049  0.0909
36866SOL    HW122322   8.957   6.440   5.990 -0.3505 -0.7420 -3.0221
36866SOL    HW222323   9.063   6.549   5.998 -0.4729 -0.7908  1.4253
36867SOL     OW22324   5.054   1.394   9.152 -0.3404 -0.8352 -0.4271
36867SOL    HW122325   5.118   1.362   9.215 -3.2829 -1.6491  2.4397
36867SOL    HW222326   5.049   1.325   9.086  1.3883 -0.9192 -0.5078
36868SOL     OW22327   8.084   7.809  10.510  0.1654 -0.0108 -0.0132
36868SOL    HW122328   8.147   7.817  10.438  0.9977 -1.8805  0.4398
36868SOL    HW222329   8.090   7.893  10.556  0.0774  0.9798 -1.7253
36869SOL     OW22330   5.246  10.702  11.952  0.0232  0.4130 -0.9365
36869SOL    HW122331   5.222  10.615  11.922  2.1557 -0.5539 -0.0426
36869SOL    HW222332   5.218  10.761  11.881 -0.2976 -1.1181 -2.1258
36870SOL     OW22333   8.353   4.227   1.466  0.6195  0.0274 -0.1292
36870SOL    HW122334   8.307   4.143   1.472  0.1720 -0.0506 -3.0764
36870SOL    HW222335   8.310   4.283   1.529  0.1086 -1.5994  1.0319
36871SOL     OW22336  10.354   7.615   9.212 -0.3474  0.3661  0.2460
36871SOL    HW122337  10.288   7.549   9.193 -0.3659  0.4075  0.1657
36871SOL    HW222338  10.402   7.625   9.130 -0.8422  1.0189  0.0276
36872SOL     OW22339   4.483   7.340   9.168  0.4027  0.3103 -0.3588
36872SOL    HW122340   4.539   7.372   9.097 -2.5375  1.9823 -2.1171
36872SOL    HW222341   4.464   7.249   9.144  1.2688  0.1474 -0.4543
36873SOL     OW22342   9.926   7.167   1.832  0.4027  1.1114 -0.1117
36873SOL    HW122343   9.883   7.164   1.747 -0.4755  0.5080  0.3418
36873SOL    HW222344   9.958   7.079   1.847 -0.1881  0.9915  0.5388
36874SOL     OW22345   2.157   3.374   2.146 -0.1018  0.4206 -0.6804
36874SOL    HW122346   2.188   3.458   2.179  1.8948 -1.1392  1.8447
36874SOL    HW222347   2.237   3.327   2.121 -0.9021 -1.6274  0.3701
36875SOL     OW22348   3.352   0.291  10.703  0.4335  0.1917 -0.3872
36875SOL    HW122349   3.365   0.370  10.756  0.3816 -0.2845  0.3411
36875SOL    HW222350   3.432   0.283  10.652  1.1206 -0.1755  0.7187
36876SOL     OW22351   5.437   5.729   1.388  0.3724  0.4241  0.1899
36876SOL    HW122352   5.422   5.641   1.423  0.3639 -0.0021 -0.8322
36876SOL    HW222353   5.467   5.780   1.463  0.0669 -0.3702  0.8680
36877SOL     OW22354  10.268   9.399   9.169 -0.5707 -0.1876 -0.3064
36877SOL    HW122355  10.292   9.478   9.217 -1.1378  0.0444 -0.3929
36877SOL    HW222356  10.348   9.347   9.167 -1.1747 -1.4996  3.3527
36878SOL     OW22357   1.953   3.240   6.712 -0.1791  0.1610 -0.1880
36878SOL    HW122358   1.883   3.198   6.663 -0.1586  0.4171 -0.4389
36878SOL    HW222359   1.993   3.302   6.650  1.9656 -1.7980 -0.9028
36879SOL     OW22360   3.821   8.515   0.024  0.3352 -0.0958 -0.7064
36879SOL    HW122361   3.894   8.453   0.030 -0.0534 -0.4761  0.1271
36879SOL    HW222362   3.857   8.588  -0.027  1.9754  0.6318  1.3251
36880SOL     OW22363  10.052   1.972   9.892  0.2006 -0.2773  0.1956
36880SOL    HW122364  10.010   1.905   9.946  2.4899 -1.5390  0.4993
36880SOL    HW222365  10.075   1.928   9.810  2.3908 -0.1645  0.6789
36881SOL     OW22366   9.019  10.436   9.552 -0.0309  0.0419  0.0551
36881SOL    HW122367   8.991  10.347   9.577  0.8280  0.1753  1.6431
36881SOL    HW222368   9.043  10.477   9.635 -0.8518  1.9420 -0.5980
36882SOL     OW22369   6.105   1.734   5.274  0.0234 -0.5162  0.2158
36882SOL    HW122370   6.142   1.819   5.297 -1.3266  0.2864 -0.4859
36882SOL    HW222371   6.012   1.741   5.295 -0.7216 -0.7551 -2.6053
36883SOL     OW22372   5.580   8.489   0.734 -0.2843  0.1392  0.0055
36883SOL    HW122373   5.592   8.469   0.826  0.2289  0.8006  0.0929
36883SOL    HW222374   5.643   8.434   0.689 -0.0615  0.3077  0.1081
36884SOL     OW22375   9.046   5.774   7.267  0.2585 -0.2839  0.5719
36884SOL    HW122376   9.005   5.855   7.298  2.3777  0.4226  1.7154
36884SOL    HW222377   9.071   5.728   7.347  1.8409 -0.5738 -0.0527
36885SOL     OW22378   6.491   5.867   3.670 -0.1939 -0.0320 -0.2887
36885SOL    HW122379   6.480   5.790   3.726 -0.2628  0.6401  0.6460
36885SOL    HW222380   6.405   5.879   3.629 -0.0211 -0.7812 -0.8876
36886SOL     OW22381   4.325   4.037   4.235 -0.3821 -0.5466 -0.3663
36886SOL    HW122382   4.380   4.060   4.159  1.2452 -0.9210  0.6401
36886SOL    HW222383   4.293   4.122   4.267  0.2646 -0.2362 -0.5134
36887SOL     OW22384   6.009   2.358   0.820 -0.5001  0.0211 -0.4523
36887SOL    HW122385   5.980   2.418   0.751 -1.8436  1.6939  1.4551
36887SOL    HW222386   5.947   2.286   0.817 -0.4085 -0.0385 -1.1235
36888SOL     OW22387  11.825   4.270  11.217 -0.0581  0.3440  0.3455
36888SOL    HW122388  11.907   4.310  11.189  0.4076 -0.0429  1.1110
36888SOL    HW222389  11.770   4.268  11.138  0.7498  0.3992 -0.2244
36889SOL     OW22390   2.207   8.556  10.802  0.2135 -0.3763 -0.2817
36889SOL    HW122391   2.180   8.474  10.759  0.0777  0.1772 -1.2777
36889SOL    HW222392   2.125   8.604  10.814  0.5080  0.5695 -1.7537
36890SOL     OW22393   9.904  10.348   3.457 -0.0569 -0.6044  0.1297
36890SOL    HW122394   9.852  10.356   3.377 -2.5284  0.6603  1.7200
36890SOL    HW222395   9.942  10.260   3.452  0.0752 -0.4820 -2.4864
36891SOL     OW22396   1.571   0.812   7.056 -0.0322  0.4541 -0.0441
36891SOL    HW122397   1.613   0.822   6.970 -0.9640 -0.5590 -0.6422
36891SOL    HW222398   1.554   0.901   7.085 -0.8034  0.8062 -1.4784
36892SOL     OW22399   4.012   3.534  11.189 -0.0592  0.2683 -0.0423
36892SOL    HW122400   3.947   3.559  11.255 -0.4752  0.3340 -0.4791
36892SOL    HW222401   4.057   3.458  11.227 -0.3631  0.2474  0.2743
36893SOL     OW22402  10.793  11.673   9.845  0.1581 -0.1174  0.4434
36893SOL    HW122403  10.725  11.610   9.871 -1.4856  1.6234  0.5625
36893SOL    HW222404  10.745  11.746   9.807  2.0486  0.8401 -0.2408
36894SOL     OW22405   3.457   8.868   9.333  0.5924  0.0422 -0.1182
36894SOL    HW122406   3.478   8.962   9.332 -0.5024  0.3007 -1.1110
36894SOL    HW222407   3.479   8.838   9.245 -0.2576 -0.3461 -0.2093
36895SOL     OW22408   3.362   7.676   7.416  0.1344 -0.1223  0.7670
36895SOL    HW122409   3.442   7.678   7.469  0.7607 -2.4161  0.0320
36895SOL    HW222410   3.393   7.677   7.326 -0.6887 -0.5011  0.4748
36896SOL     OW22411   4.844   8.332   6.324 -1.0591 -0.6072  0.1406
36896SOL    HW122412   4.845   8.353   6.417 -1.2471 -2.2163  0.5389
36896SOL    HW222413   4.755   8.300   6.308 -0.1823 -3.2844  0.1628
36897SOL     OW22414  11.872  11.430   7.132  0.0416  0.4060 -0.7686
36897SOL    HW122415  11.805  11.366   7.110 -0.7732  1.0182 -0.1355
36897SOL    HW222416  11.897  11.470   7.049  0.1491 -0.3249 -1.0932
36898SOL     OW22417  10.840   3.560  11.063  0.3622  0.2075  0.3125
36898SOL    HW122418  10.790   3.502  11.120 -0.7089 -0.3317 -1.1281
36898SOL    HW222419  10.774   3.614  11.019  1.0185 -0.3930 -1.4966
36899SOL     OW22420   4.727  11.956   5.290 -0.2102  0.0610  0.3114
36899SOL    HW122421   4.690  12.018   5.228 -1.2295 -1.3268 -0.5092
36899SOL    HW222422   4.809  11.997   5.319 -0.8114  1.7335 -0.2484
36900SOL     OW22423   0.874   0.952   0.473 -0.2506  0.2772  0.0265
36900SOL    HW122424   0.962   0.990   0.465  0.2860 -1.0787 -1.0668
36900SOL    HW222425   0.874   0.879   0.410 -1.4054 -1.1352  1.5811
36901SOL     OW22426  10.160   4.856  10.519 -0.2560 -0.0508 -0.6277
36901SOL    HW122427  10.243   4.809  10.528 -0.2871 -0.1424 -0.8047
36901SOL    HW222428  10.174   4.940  10.561 -0.3165 -0.3646  0.0351
36902SOL     OW22429   1.920   8.273  11.055  0.4260  0.0653  0.2242
36902SOL    HW122430   2.007   8.276  11.014  0.1667  2.2035 -0.3004
36902SOL    HW222431   1.935   8.296  11.146  0.2331  2.6370 -0.3303
36903SOL     OW22432   4.721  10.402  10.836 -0.8151  0.0814 -0.1449
36903SOL    HW122433   4.628  10.410  10.816 -0.6342  0.8368 -0.7140
36903SOL    HW222434   4.761  10.479  10.796  0.1973 -0.7577 -0.7963
36904SOL     OW22435   0.510   8.692   8.627 -0.1704 -0.2605 -0.3123
36904SOL    HW122436   0.415   8.702   8.623 -0.1106  0.3509 -0.3300
36904SOL    HW222437   0.524   8.599   8.644 -0.7718 -0.3475 -0.2777
36905SOL     OW22438  11.563   2.777   4.510  0.3570 -0.3315  0.0267
36905SOL    HW122439  11.608   2.793   4.593  1.0625  0.1738 -0.4413
36905SOL    HW222440  11.553   2.681   4.507 -1.1186 -0.2623  1.4123
36906SOL     OW22441  11.008  11.949   1.392  0.0340  0.0510 -0.3256
36906SOL    HW122442  10.946  11.935   1.464  0.6808  0.7699  0.3980
36906SOL    HW222443  11.032  11.861   1.364 -1.4281 -0.2379 -0.7359
36907SOL     OW22444   9.775   5.412   9.091  0.0669  0.3877  0.1822
36907SOL    HW122445   9.762   5.348   9.022  0.4086  0.5531 -0.0350
36907SOL    HW222446   9.857   5.386   9.134 -0.7042 -0.3748  1.2506
36908SOL     OW22447   7.720   7.294   9.935  0.4839 -0.2105  0.3770
36908SOL    HW122448   7.815   7.294   9.925  0.5449 -0.9028  0.8742
36908SOL    HW222449   7.698   7.385   9.952  1.0688 -0.0548  0.3336
36909SOL     OW22450  10.488   7.373   9.842  0.5903 -0.6782  0.2480
36909SOL    HW122451  10.505   7.303   9.905  1.6908  0.0460  0.7823
36909SOL    HW222452  10.465   7.449   9.896 -1.9924 -0.9258 -0.3557
36910SOL     OW22453   7.640   8.971   6.875  0.0463  0.4462  0.2531
36910SOL    HW122454   7.707   8.967   6.807 -0.1086 -0.1595  0.1348
36910SOL    HW222455   7.678   9.029   6.942 -0.1947  1.7931 -0.7508
36911SOL     OW22456   8.615   3.442   3.545 -0.3346 -0.5834 -0.1443
36911SOL    HW122457   8.571   3.433   3.629  1.1695 -0.6882  0.6682
36911SOL    HW222458   8.643   3.354   3.522  0.0603 -0.4222 -0.2964
36912SOL     OW22459   9.670   1.749   8.281 -0.0895  0.1239 -0.3615
36912SOL    HW122460   9.715   1.758   8.197 -1.9384  0.3258 -1.3827
36912SOL    HW222461   9.740   1.741   8.345  1.3735 -0.5726 -1.9704
36913SOL     OW22462   6.792   9.459   2.293  0.1678 -0.3982  0.4322
36913SOL    HW122463   6.704   9.487   2.319  0.3077 -0.2780  0.7704
36913SOL    HW222464   6.847   9.536   2.305  0.1435 -0.1852 -0.6987
36914SOL     OW22465   1.552   0.411   2.576  0.4836 -0.7227  0.4169
36914SOL    HW122466   1.555   0.392   2.482  0.5798 -0.9990  0.4759
36914SOL    HW222467   1.642   0.429   2.600  0.5434 -1.1919  0.5648
36915SOL     OW22468   7.470   7.042   2.847  0.1181  0.1142 -0.3769
36915SOL    HW122469   7.454   7.113   2.786 -0.5904  0.2375 -0.0587
36915SOL    HW222470   7.445   7.077   2.933  0.7963 -0.1599 -0.0627
36916SOL     OW22471   5.317   9.375   5.408 -0.1658 -0.2794 -0.1247
36916SOL    HW122472   5.261   9.298   5.405  0.0249 -0.4174 -0.1544
36916SOL    HW222473   5.316   9.402   5.499  0.1274 -0.5850 -0.0269
36917SOL     OW22474   2.131   8.880   0.077  0.4804  0.1818  0.2159
36917SOL    HW122475   2.160   8.823   0.148  1.5483  0.8996  0.3844
36917SOL    HW222476   2.170   8.965   0.098 -0.5521  0.8159 -0.3678
36918SOL     OW22477   4.648  11.200   6.627  0.0178  0.2464  0.2714
36918SOL    HW122478   4.718  11.137   6.647 -0.4679 -0.7023 -0.9141
36918SOL    HW222479   4.683  11.255   6.557  0.2875  1.0643  1.0263
36919SOL     OW22480   7.711   5.628  10.738  0.4349  0.3774  0.3425
36919SOL    HW122481   7.652   5.581  10.678  1.2880 -1.1564  0.6442
36919SOL    HW222482   7.660   5.704  10.766 -0.6929  0.1205 -0.8515
36920SOL     OW22483   2.987   6.448   9.600  0.1723  0.1297  0.2104
36920SOL    HW122484   2.998   6.353   9.599 -1.8036 -0.1466  1.0440
36920SOL    HW222485   2.933   6.468   9.524  0.6658  0.6228 -0.0229
36921SOL     OW22486   6.833   0.815  11.243 -0.3778  0.4431 -0.5720
36921SOL    HW122487   6.814   0.806  11.336 -3.1956 -0.3462 -1.1572
36921SOL    HW222488   6.801   0.902  11.220 -3.0384 -0.6539 -1.4319
36922SOL     OW22489   4.367   9.210   4.397  0.5235 -0.6349 -0.0740
36922SOL    HW122490   4.323   9.295   4.402 -0.1559 -0.9021 -1.1779
36922SOL    HW222491   4.327   9.158   4.467  1.0629  0.0033  0.7142
36923SOL     OW22492   7.981  11.933   0.443 -0.2738 -0.2632 -0.3251
36923SOL    HW122493   7.924  11.857   0.440 -0.5771 -0.1721  1.5157
36923SOL    HW222494   7.921  12.008   0.436 -0.0037 -0.1618 -1.8703
36924SOL     OW22495   9.695   1.465   9.596  0.4651 -0.0589  0.1906
36924SOL    HW122496   9.651   1.387   9.563 -1.9881  0.9711  0.8578
36924SOL    HW222497   9.730   1.507   9.518 -0.5854 -0.4070 -0.4815
36925SOL     OW22498  11.122   6.267  10.177  0.5215  0.2817  0.5016
36925SOL    HW122499  11.070   6.315  10.113  1.0242  1.1141  0.7012
36925SOL    HW222500  11.187   6.330  10.207  3.3896 -1.3943 -1.6496
36926SOL     OW22501   3.913   0.702   4.902  0.1545  0.1396 -0.3094
36926SOL    HW122502   3.884   0.652   4.825  1.1032 -0.5779 -0.2148
36926SOL    HW222503   3.959   0.638   4.956  0.0408  0.7845  0.5663
36927SOL     OW22504   0.574  10.848   5.243 -0.0671  0.1921  0.4520
36927SOL    HW122505   0.607  10.937   5.228 -0.6832  0.1612 -1.3098
36927SOL    HW222506   0.479  10.856   5.235 -0.1891 -0.4855  1.1520
36928SOL     OW22507   1.869   2.198   1.451  0.3235  0.0504 -0.2999
36928SOL    HW122508   1.915   2.162   1.375  1.7045  0.6172  0.2221
36928SOL    HW222509   1.881   2.293   1.442  1.2863  0.0836  1.0659
36929SOL     OW22510   2.834  11.254   3.583 -0.4242  0.0915  0.2928
36929SOL    HW122511   2.913  11.206   3.558 -0.3683 -0.4629  1.4524
36929SOL    HW222512   2.762  11.193   3.566 -0.4217 -0.1309  1.0648
36930SOL     OW22513   8.169   6.203  11.646  0.2846  0.0452 -0.2058
36930SOL    HW122514   8.115   6.282  11.640 -0.5494 -0.2937  1.9905
36930SOL    HW222515   8.168   6.166  11.558 -3.0091  0.1072 -0.3049
36931SOL     OW22516  10.370   4.534   8.489 -0.2210 -0.0744  0.1674
36931SOL    HW122517  10.342   4.541   8.580 -0.0481  0.3462  0.1903
36931SOL    HW222518  10.463   4.558   8.490  0.0625 -1.1146  0.0367
36932SOL     OW22519   6.734   2.709   6.745 -0.0514  0.2038 -0.7538
36932SOL    HW122520   6.701   2.628   6.707 -0.1922  0.2360 -0.6981
36932SOL    HW222521   6.712   2.776   6.681 -0.4562  0.2863 -0.5276
36933SOL     OW22522   6.033   0.844   0.535  0.4653  0.0930  0.0980
36933SOL    HW122523   5.939   0.828   0.545  0.3305  1.1758  0.6462
36933SOL    HW222524   6.066   0.764   0.494 -0.5277 -0.7091  0.8043
36934SOL     OW22525  10.864   0.613  11.286  0.3216 -0.2756  0.4478
36934SOL    HW122526  10.802   0.685  11.275  0.6929 -0.0466 -0.1999
36934SOL    HW222527  10.902   0.601  11.199 -0.6135 -2.0594  0.2179
36935SOL     OW22528   6.240   9.931  11.548  0.2566 -0.4576  0.2879
36935SOL    HW122529   6.296   9.874  11.600  0.7628 -0.9788 -0.7981
36935SOL    HW222530   6.275  10.019  11.563  0.6968 -0.6562  0.4465
36936SOL     OW22531   3.396   4.784  11.795  0.5896 -0.2162  0.2958
36936SOL    HW122532   3.438   4.817  11.715 -0.9555  2.6213  0.5235
36936SOL    HW222533   3.302   4.799  11.781 -0.0609 -2.7815  1.3549
36937SOL     OW22534   3.435   1.271   9.158 -0.0384  0.1344 -0.1624
36937SOL    HW122535   3.485   1.349   9.135 -0.4172  0.5904  0.5101
36937SOL    HW222536   3.486   1.198   9.124  0.1217  0.6958 -1.1549
36938SOL     OW22537   0.119   7.909   6.295 -0.2875 -0.0644  0.2389
36938SOL    HW122538   0.147   7.824   6.330 -0.2072 -0.1240  0.0298
36938SOL    HW222539   0.120   7.898   6.200 -2.8224 -0.6481  0.2178
36939SOL     OW22540   0.152   5.919   0.039  0.5658  0.7280  0.4483
36939SOL    HW122541   0.072   5.950  -0.003 -1.0097 -1.3622  1.7179
36939SOL    HW222542   0.184   5.849  -0.017  0.3418  0.1981  0.9675
36940SOL     OW22543   6.954   5.098   7.791  0.1335 -0.4000 -0.0071
36940SOL    HW122544   6.979   5.167   7.730  0.3465 -0.4820 -0.0161
36940SOL    HW222545   6.898   5.040   7.740  0.9134 -0.8761 -0.3576
36941SOL     OW22546  11.036   2.866   8.523  0.4099 -0.2531 -0.5451
36941SOL    HW122547  10.950   2.833   8.547 -0.2887  0.9416 -1.2923
36941SOL    HW222548  11.056   2.823   8.440  0.6319 -0.6947 -0.2630
36942SOL     OW22549   5.390   5.698  11.476  0.5471  0.9978  0.1118
36942SOL    HW122550   5.308   5.728  11.515  1.6764  2.3685  1.5554
36942SOL    HW222551   5.363   5.631  11.414 -1.5204  0.1839  1.7593
36943SOL     OW22552   1.371   8.801   5.378  0.5592  0.2806 -0.1714
36943SOL    HW122553   1.394   8.893   5.366 -0.4531  0.2737 -2.7132
36943SOL    HW222554   1.287   8.803   5.425  0.3281  0.6794 -0.5957
36944SOL     OW22555   6.544   5.592   6.271  0.3926 -0.2435  0.0732
36944SOL    HW122556   6.606   5.526   6.240  0.4322 -0.3805  0.4463
36944SOL    HW222557   6.542   5.581   6.366  1.9437  1.6009  0.3994
36945SOL     OW22558   2.596   2.341   0.716  0.0863 -0.3838 -0.4536
36945SOL    HW122559   2.596   2.265   0.658  1.3809 -1.0886  0.4141
36945SOL    HW222560   2.667   2.323   0.778 -0.4203  0.9477  0.5462
36946SOL     OW22561   2.604   7.716   9.362  0.3180 -0.1810  0.3060
36946SOL    HW122562   2.643   7.801   9.383  1.0218  0.5385 -3.3082
36946SOL    HW222563   2.678   7.655   9.366  1.1286  0.4605 -2.4161
36947SOL     OW22564   7.976  11.267   5.307 -0.1765  0.0768  0.2373
36947SOL    HW122565   7.886  11.251   5.335 -0.4124 -0.6605 -0.8611
36947SOL    HW222566   8.027  11.266   5.388 -0.9767 -0.8123  0.7595
36948SOL     OW22567   6.538  10.076   4.823  0.5160  0.3418  0.2212
36948SOL    HW122568   6.610  10.022   4.789  0.3901  0.7618 -0.7467
36948SOL    HW222569   6.475  10.081   4.751 -0.3116  0.2999  0.9274
36949SOL     OW22570  10.414   5.162   7.988 -0.4508  0.7316  0.0837
36949SOL    HW122571  10.432   5.184   8.079  0.6896 -0.5405  0.1887
36949SOL    HW222572  10.465   5.225   7.937 -1.0320  1.3976  0.3102
36950SOL     OW22573   1.480   5.080   3.140 -0.2068  0.2467  0.3601
36950SOL    HW122574   1.571   5.052   3.131  0.1613  1.0656  1.3699
36950SOL    HW222575   1.449   5.089   3.050  0.5213 -0.5912 -0.0002
36951SOL     OW22576   4.026   9.681  11.754 -0.1810  0.0951  0.1871
36951SOL    HW122577   3.961   9.751  11.760 -0.3954 -0.1443  0.6577
36951SOL    HW222578   4.054   9.682  11.662 -0.2318  0.7543  0.1753
36952SOL     OW22579   2.801   4.909   8.093 -0.3988  0.1498 -0.3765
36952SOL    HW122580   2.891   4.885   8.116  0.0532  0.4072 -1.7878
36952SOL    HW222581   2.759   4.927   8.177  0.9259  0.2367  0.2939
36953SOL     OW22582   1.251   5.274   6.876  0.0838  0.0085  0.2908
36953SOL    HW122583   1.212   5.345   6.825 -2.0081 -0.4872  1.0963
36953SOL    HW222584   1.319   5.317   6.929  1.4740  0.7191 -1.9210
36954SOL     OW22585   9.502   8.808   8.852  0.5204 -0.5620 -0.1564
36954SOL    HW122586   9.424   8.859   8.828 -0.8505 -1.9645  1.0544
36954SOL    HW222587   9.575   8.869   8.841 -0.7843  0.9405 -0.9384
36955SOL     OW22588   6.438   6.443   5.647 -0.1364  0.6735 -0.7230
36955SOL    HW122589   6.362   6.502   5.655  0.6554  1.5520  0.7268
36955SOL    HW222590   6.485   6.476   5.570 -1.0402  0.3030 -1.4608
36956SOL     OW22591   4.228   0.580   9.618 -0.2168  0.5281 -0.5092
36956SOL    HW122592   4.234   0.559   9.525  1.8506  1.0782 -0.5362
36956SOL    HW222593   4.241   0.497   9.663 -1.6536  0.1843 -0.6860
36957SOL     OW22594   0.772   3.974   5.719 -0.3529 -0.0088  0.0122
36957SOL    HW122595   0.847   4.029   5.695 -1.3539  1.9105  1.0108
36957SOL    HW222596   0.704   3.998   5.656 -0.1469 -1.8369 -0.9711
36958SOL     OW22597   7.059   9.584   7.669 -0.3618  0.3328  0.2141
36958SOL    HW122598   7.001   9.546   7.604  0.7446 -0.5038 -0.3277
36958SOL    HW222599   7.002   9.634   7.727 -1.5060  0.1543 -0.7300
36959SOL     OW22600   9.724   8.308   5.370  0.2899 -0.1564  0.0147
36959SOL    HW122601   9.799   8.258   5.339 -0.8083 -0.8114 -1.7116
36959SOL    HW222602   9.734   8.394   5.330  0.4495 -0.0422  0.2993
36960SOL     OW22603  11.563   9.597   6.022  0.3847 -0.2276  0.3350
36960SOL    HW122604  11.497   9.542   6.063  1.8851 -1.5831  1.0082
36960SOL    HW222605  11.562   9.678   6.074 -2.5474  0.9615 -1.2750
36961SOL     OW22606   6.879   8.785   4.981  0.4287  0.8582 -0.1741
36961SOL    HW122607   6.824   8.757   5.054 -0.3013  1.8536 -0.3122
36961SOL    HW222608   6.968   8.783   5.014  0.0802  1.5782  0.8433
36962SOL     OW22609   7.547  10.125   2.681 -0.0996  0.6641 -0.2579
36962SOL    HW122610   7.590  10.202   2.644 -1.2859  0.2796 -2.5831
36962SOL    HW222611   7.455  10.151   2.689 -0.2206  0.0323  0.5337
36963SOL     OW22612   9.145   3.601   0.121  0.3024 -0.1259 -0.1961
36963SOL    HW122613   9.199   3.657   0.064 -1.8327  0.6687 -1.5483
36963SOL    HW222614   9.182   3.513   0.110  0.9455  0.2871 -1.5699
36964SOL     OW22615   0.818  10.126   5.242  0.1778  0.4734  0.5244
36964SOL    HW122616   0.894  10.102   5.295  1.0566 -0.6074 -1.1360
36964SOL    HW222617   0.776  10.042   5.221  0.9035  0.6484 -1.9421
36965SOL     OW22618   7.296   7.661   2.262  0.5694 -0.2822  0.5280
36965SOL    HW122619   7.315   7.578   2.219  0.4669 -0.5130  0.9148
36965SOL    HW222620   7.209   7.647   2.301  1.7015 -0.9911  2.9672
36966SOL     OW22621   7.475   8.153   8.080 -0.2770  0.4514  0.2220
36966SOL    HW122622   7.542   8.188   8.139 -0.3932  0.9566  0.0614
36966SOL    HW222623   7.442   8.230   8.033 -0.4258  0.1001 -0.2556
36967SOL     OW22624   2.973   4.619   9.916  0.2597  0.1515 -0.6530
36967SOL    HW122625   2.926   4.629   9.998  1.3715 -0.7630  0.1173
36967SOL    HW222626   3.022   4.701   9.907  1.6256 -0.4968  0.5894
36968SOL     OW22627  10.813   0.188   7.519  0.3032  0.4255  0.7034
36968SOL    HW122628  10.744   0.128   7.548  0.2342 -0.2965 -0.8345
36968SOL    HW222629  10.883   0.131   7.488  0.2831  1.0996 -0.6897
36969SOL     OW22630   5.462   7.372   5.660  0.1849  0.1722 -0.0971
36969SOL    HW122631   5.531   7.324   5.706  1.6790  0.2077 -2.1550
36969SOL    HW222632   5.488   7.464   5.668 -2.0674  0.6980  2.8665
36970SOL     OW22633  10.289   3.379   6.332 -0.3029  0.2716 -0.1828
36970SOL    HW122634  10.295   3.465   6.290  0.9973  0.8257  1.0585
36970SOL    HW222635  10.215   3.337   6.289  0.0523  1.3588 -1.9980
36971SOL     OW22636   5.703   7.359  10.881  0.1452  0.3772 -0.6925
36971SOL    HW122637   5.703   7.455  10.880 -0.0886  0.4286  1.2134
36971SOL    HW222638   5.613   7.335  10.902  0.7175 -0.1656  1.3451
36972SOL     OW22639   2.608   1.099   4.692  0.4647  0.7228 -0.5337
36972SOL    HW122640   2.630   1.059   4.608  1.2236 -0.7155  0.3035
36972SOL    HW222641   2.606   1.025   4.753 -3.2369  1.1857  0.1862
36973SOL     OW22642   8.622   7.401   0.548 -0.7020  0.0110  0.1515
36973SOL    HW122643   8.676   7.479   0.536 -0.6508 -0.0876 -0.2751
36973SOL    HW222644   8.680   7.328   0.524 -1.4523 -0.0093 -1.7785
36974SOL     OW22645   5.111   4.154  10.999 -0.6548  0.0085 -0.2005
36974SOL    HW122646   5.129   4.235  10.951  2.3967 -0.4497 -0.0409
36974SOL    HW222647   5.097   4.088  10.931  1.4609 -0.1826 -0.5318
36975SOL     OW22648   5.163   3.834   9.901  0.6989  0.0174  0.7402
36975SOL    HW122649   5.215   3.823   9.980 -0.4413 -5.4609  1.1511
36975SOL    HW222650   5.217   3.796   9.832  0.0144  0.8741 -0.3034
36976SOL     OW22651   3.779  11.366   1.297  0.5762 -0.4837 -0.2508
36976SOL    HW122652   3.803  11.458   1.297  1.9192 -0.8170 -0.5045
36976SOL    HW222653   3.860  11.319   1.278 -0.3451 -1.6490 -1.6091
36977SOL     OW22654   8.635   7.915   9.367  0.6888 -0.0576  0.2522
36977SOL    HW122655   8.598   7.856   9.301 -0.8258  0.9390  0.1527
36977SOL    HW222656   8.670   7.856   9.434  0.5819 -1.0740 -0.5606
36978SOL     OW22657   6.150   3.788   8.979 -0.1812 -0.1614 -0.0369
36978SOL    HW122658   6.057   3.786   8.999 -0.2999 -3.3913 -0.4969
36978SOL    HW222659   6.154   3.793   8.884  0.2267  1.9637  0.0331
36979SOL     OW22660   5.860   7.401  11.217  0.0817  0.8474 -0.4097
36979SOL    HW122661   5.925   7.333  11.232 -0.5395  0.7732  2.8209
36979SOL    HW222662   5.776   7.354  11.216 -0.2019  1.3351 -0.1598
36980SOL     OW22663   9.029   9.341  10.625  0.2596 -0.2956 -0.0281
36980SOL    HW122664   9.108   9.374  10.667 -0.0886  1.4146 -0.6414
36980SOL    HW222665   8.971   9.318  10.697  1.2009 -1.3532  0.4230
36981SOL     OW22666   2.129   6.655  11.803  0.7304  0.1937  0.0311
36981SOL    HW122667   2.181   6.730  11.831 -1.1335  0.7848  2.1730
36981SOL    HW222668   2.110   6.672  11.710  0.7256  2.1535  0.3580
36982SOL     OW22669  10.919   3.752   4.047  0.3349  0.1892  0.4032
36982SOL    HW122670  10.852   3.809   4.086  1.8667  1.0955  1.8634
36982SOL    HW222671  10.923   3.778   3.955 -2.0213 -0.6206  0.0210
36983SOL     OW22672   1.630   4.140   7.196 -0.1374  0.3131  0.0328
36983SOL    HW122673   1.682   4.100   7.265 -1.5946 -1.7567  0.0230
36983SOL    HW222674   1.557   4.181   7.242  1.5075  3.5455  0.0883
36984SOL     OW22675   1.969   4.295   4.355 -0.2571 -0.5613  0.4991
36984SOL    HW122676   2.013   4.260   4.278 -0.2273  2.4683 -0.9844
36984SOL    HW222677   1.878   4.266   4.346  0.3008 -2.6403  0.9438
36985SOL     OW22678  10.421   4.631   4.584 -0.3473  0.3484 -0.1043
36985SOL    HW122679  10.464   4.680   4.654  0.4207 -1.8581  1.0768
36985SOL    HW222680  10.328   4.644   4.600 -0.1644  1.0405  0.4467
36986SOL     OW22681  10.445   9.056  10.921 -0.4885 -0.1215  0.8491
36986SOL    HW122682  10.386   9.000  10.870  0.6487 -1.1392  0.6106
36986SOL    HW222683  10.479   8.999  10.989 -0.7770  0.8152  1.7987
36987SOL     OW22684   1.136   2.155   8.953  0.0809  0.9091  0.0194
36987SOL    HW122685   1.169   2.245   8.957 -1.4667  1.6660 -2.1196
36987SOL    HW222686   1.072   2.150   9.025 -0.4296  1.8344 -0.3436
36988SOL     OW22687  10.306   2.782   3.767 -0.2087 -0.9117  0.5048
36988SOL    HW122688  10.388   2.734   3.778  0.2422 -0.5002 -0.7792
36988SOL    HW222689  10.242   2.716   3.742 -0.2525 -1.2223  1.4246
36989SOL     OW22690   4.125   0.912   0.526 -0.3801 -0.7885  0.4922
36989SOL    HW122691   4.164   0.825   0.521  1.5690  0.0603 -2.4355
36989SOL    HW222692   4.035   0.900   0.497 -0.6112 -2.0083  1.6372
36990SOL     OW22693   5.372   8.036   4.487  0.1327  0.1184  0.3794
36990SOL    HW122694   5.329   8.018   4.571  1.1611 -1.4893  0.6120
36990SOL    HW222695   5.454   8.078   4.511  0.1659  0.1931  0.1370
36991SOL     OW22696  11.182   1.964   6.934  0.4409 -0.2072 -0.0597
36991SOL    HW122697  11.156   1.928   7.018 -0.3032  1.6412  0.5477
36991SOL    HW222698  11.116   1.933   6.873  0.0181 -0.1528  0.3662
36992SOL     OW22699   3.517   7.806   2.163 -0.5350 -0.3477 -0.2182
36992SOL    HW122700   3.453   7.736   2.150 -0.1051 -0.7951  0.0265
36992SOL    HW222701   3.544   7.830   2.074  0.0335 -1.1719 -0.2784
36993SOL     OW22702   7.998   3.655  10.993 -0.2666  0.1617  0.0221
36993SOL    HW122703   8.064   3.664  11.061 -1.5391  0.2952  1.2852
36993SOL    HW222704   7.945   3.580  11.019 -0.3703 -0.2139 -1.1939
36994SOL     OW22705   5.202   7.626   7.831 -0.1522 -0.1168 -0.0063
36994SOL    HW122706   5.276   7.687   7.830 -0.6305  0.4698 -0.5135
36994SOL    HW222707   5.239   7.544   7.862  0.7122  0.1633 -0.2704
36995SOL     OW22708   3.704   1.156   7.581  0.6583  0.2002  0.3672
36995SOL    HW122709   3.656   1.129   7.503 -0.3748  2.6806  0.0205
36995SOL    HW222710   3.699   1.252   7.580  2.8676  0.4239  2.1070
36996SOL     OW22711   2.079   8.846  11.239  0.4469  0.4514 -0.2558
36996SOL    HW122712   2.057   8.859  11.331  1.7962  1.9970 -0.1028
36996SOL    HW222713   2.168   8.812  11.240 -0.2361 -1.4829 -0.9646
36997SOL     OW22714   0.613   4.972   8.084 -0.7586  0.0117 -0.1527
36997SOL    HW122715   0.547   5.041   8.083  0.2638  1.0394 -1.8032
36997SOL    HW222716   0.609   4.934   7.996  0.9626  0.2419 -0.3607
36998SOL     OW22717   2.635   5.952   8.357 -0.7657  0.1732  0.1121
36998SOL    HW122718   2.688   5.902   8.295 -0.7018  0.7144 -0.2858
36998SOL    HW222719   2.698   6.006   8.405 -0.8605  0.0923  0.3288
36999SOL     OW22720   3.757   0.490   0.977  0.6774  0.3756  0.5234
36999SOL    HW122721   3.768   0.571   0.927 -1.5242  1.3329  1.4420
36999SOL    HW222722   3.713   0.430   0.917  2.9617 -0.4991 -0.4041
37000SOL     OW22723  10.228   3.251  11.629 -0.0314  0.2455 -0.1420
37000SOL    HW122724  10.205   3.186  11.695 -0.9889  1.7989  1.1214
37000SOL    HW222725  10.278   3.202  11.563 -0.7485 -1.7414  0.7297
37001SOL     OW22726   6.761   4.913   3.785  0.3389  0.6384 -0.3337
37001SOL    HW122727   6.739   4.987   3.842 -0.1640 -0.1185  0.4897
37001SOL    HW222728   6.682   4.896   3.735 -0.2645 -0.6209  0.9672
37002SOL     OW22729   9.331   5.956   7.664 -0.0776 -0.1480 -0.3015
37002SOL    HW122730   9.357   5.901   7.590 -0.8816 -2.4471  1.0232
37002SOL    HW222731   9.391   5.931   7.735 -0.9445  0.1433  0.5549
37003SOL     OW22732   9.126  10.567   1.317 -0.2535 -0.5241 -0.1874
37003SOL    HW122733   9.171  10.519   1.247  2.1172  0.3596  0.6420
37003SOL    HW222734   9.113  10.655   1.281  2.5949  0.4864  0.9678
37004SOL     OW22735   3.454   8.506   8.628  0.0645 -0.2422 -0.1890
37004SOL    HW122736   3.412   8.443   8.569  0.2059 -1.0092  0.5030
37004SOL    HW222737   3.384   8.535   8.686 -0.1820  0.8762 -1.0111
37005SOL     OW22738   2.104   5.426   5.348 -0.0914 -0.3143 -0.3840
37005SOL    HW122739   2.096   5.429   5.253 -0.1943  0.9194 -0.3522
37005SOL    HW222740   2.157   5.348   5.365 -1.0177 -1.2038 -1.3680
37006SOL     OW22741   2.447   3.958   5.693 -0.1942 -0.1488  0.5758
37006SOL    HW122742   2.491   3.877   5.669 -0.6504  0.1777 -1.5896
37006SOL    HW222743   2.394   3.980   5.616 -1.3544  1.3409  1.7378
37007SOL     OW22744  10.068   6.056   0.754  0.2469 -0.1723 -0.5227
37007SOL    HW122745  10.114   5.973   0.745  0.0337 -0.2649 -0.7774
37007SOL    HW222746   9.976   6.032   0.763  0.1244  0.0620 -1.1415
37008SOL     OW22747   9.160  11.678  10.794  0.4210 -0.0366 -0.5078
37008SOL    HW122748   9.223  11.620  10.837  1.0599 -0.0966 -1.4875
37008SOL    HW222749   9.203  11.764  10.797 -1.0324  0.7243  2.0253
37009SOL     OW22750   2.863   7.184   9.478 -0.8104 -0.3333  0.4723
37009SOL    HW122751   2.930   7.253   9.479  0.7740 -1.7739 -0.3630
37009SOL    HW222752   2.880   7.132   9.556 -1.5050 -0.2354  0.6951
37010SOL     OW22753   1.269  10.458   5.290 -0.3700 -0.6308  0.2530
37010SOL    HW122754   1.238  10.523   5.227 -0.0546 -1.3543 -0.6681
37010SOL    HW222755   1.294  10.382   5.237 -1.6046 -1.8769  1.3663
37011SOL     OW22756   0.105   5.116   6.189 -0.1531  0.2237  0.4621
37011SOL    HW122757   0.121   5.062   6.112  1.9013  1.3667  0.0098
37011SOL    HW222758   0.018   5.091   6.219  0.2547 -2.4943 -0.3617
37012SOL     OW22759   7.473   6.839   2.679  0.1090 -0.1527 -0.0705
37012SOL    HW122760   7.466   6.902   2.751 -0.8840 -1.6633  1.2452
37012SOL    HW222761   7.398   6.860   2.622 -0.6237 -0.5471  0.7225
37013SOL     OW22762   9.811  10.453   5.448  0.2417 -0.0393 -0.3061
37013SOL    HW122763   9.782  10.492   5.530  1.2114  0.1065 -0.0133
37013SOL    HW222764   9.731  10.427   5.403 -0.4587  2.1928 -0.4623
37014SOL     OW22765   7.203   8.177   3.667 -0.4565  0.2688  0.4689
37014SOL    HW122766   7.223   8.087   3.642  2.6602  0.0969  3.0697
37014SOL    HW222767   7.246   8.231   3.600 -2.0616 -0.0484 -0.9084
37015SOL     OW22768   5.232   3.743   5.532  0.7030 -0.1218  0.0039
37015SOL    HW122769   5.203   3.804   5.599 -1.9809  1.3675 -2.2944
37015SOL    HW222770   5.211   3.656   5.567 -1.7690  0.6742  0.6468
37016SOL     OW22771   3.449   8.876   7.117  0.7137  0.2095  0.3305
37016SOL    HW122772   3.503   8.850   7.043 -0.9968 -0.1357 -0.8722
37016SOL    HW222773   3.410   8.794   7.148 -1.3411  0.7005 -0.7226
37017SOL     OW22774   0.175   7.015  10.229 -0.5465 -0.1255 -0.5231
37017SOL    HW122775   0.116   7.011  10.154 -0.8167  0.8299 -0.3769
37017SOL    HW222776   0.232   6.938  10.219 -0.5015  0.0412 -1.7618
37018SOL     OW22777   8.781   6.584  10.811  0.2786  0.0970 -0.5048
37018SOL    HW122778   8.744   6.646  10.874  0.1505 -0.1872 -0.3003
37018SOL    HW222779   8.806   6.508  10.863 -0.7860 -0.5715 -0.9413
37019SOL     OW22780   7.980   6.523   7.299 -0.2454 -0.0169 -0.3413
37019SOL    HW122781   7.944   6.585   7.362  1.3153  1.8768 -1.2321
37019SOL    HW222782   7.933   6.542   7.217  0.2188 -0.0306 -0.6129
37020SOL     OW22783   8.108   0.134   9.008  0.3821  0.4157 -0.2653
37020SOL    HW122784   8.069   0.096   9.088 -0.3332 -0.8816 -1.1889
37020SOL    HW222785   8.193   0.167   9.037  0.9225 -1.6259  0.7250
37021SOL     OW22786   9.361   2.392   4.818 -0.9781 -0.2980 -0.2026
37021SOL    HW122787   9.340   2.473   4.866  2.7001 -0.8247  2.6863
37021SOL    HW222788   9.411   2.422   4.742  0.1645  0.1996  0.7207
37022SOL     OW22789   2.608   1.938   5.917  0.6662 -0.5762  0.1289
37022SOL    HW122790   2.585   2.006   5.853 -0.9017 -1.1655  0.0110
37022SOL    HW222791   2.695   1.962   5.948 -0.3447  2.2850  1.1029
37023SOL     OW22792   2.337   8.476   4.157  0.4510  0.6710  0.2677
37023SOL    HW122793   2.397   8.413   4.119  0.4202  0.4639  0.5563
37023SOL    HW222794   2.294   8.429   4.229 -1.0697  0.3714 -0.7790
37024SOL     OW22795   3.903   4.437  11.094 -0.3032 -0.2024 -0.2917
37024SOL    HW122796   3.851   4.477  11.024 -0.5933 -2.0802 -1.2037
37024SOL    HW222797   3.853   4.455  11.174  0.7722  3.2589 -0.2459
37025SOL     OW22798   4.710   5.691   7.635  0.3737  0.3113 -0.2913
37025SOL    HW122799   4.623   5.696   7.675  0.4407  0.5311 -0.1749
37025SOL    HW222800   4.764   5.646   7.700 -0.0482 -1.3389 -1.0320
37026SOL     OW22801  11.706  11.259   9.169  0.1455 -0.0656  0.3820
37026SOL    HW122802  11.702  11.341   9.218  2.5926  0.8339 -0.7513
37026SOL    HW222803  11.685  11.284   9.079 -0.1672 -0.8962  0.2189
37027SOL     OW22804   2.935   8.808  10.295  0.0895 -1.0296 -0.3384
37027SOL    HW122805   2.841   8.797  10.309  0.2297 -0.4270  1.2191
37027SOL    HW222806   2.945   8.805  10.199 -1.4830 -1.2322 -0.5248
37028SOL     OW22807   5.661   9.225   1.453  0.0608  0.3081  0.7505
37028SOL    HW122808   5.646   9.135   1.484 -3.0935  0.4760  0.0141
37028SOL    HW222809   5.699   9.215   1.366  0.1839 -0.3221  0.8743
37029SOL     OW22810   4.157   4.297  11.131  0.5020  0.4394  0.2053
37029SOL    HW122811   4.080   4.352  11.117  1.7455  1.8570 -1.5517
37029SOL    HW222812   4.164   4.245  11.051  0.4113 -0.9416  1.0742
37030SOL     OW22813  11.110   4.052   5.002  0.4170  0.3994  0.3217
37030SOL    HW122814  11.158   4.075   5.082 -0.5543  0.1134  1.0083
37030SOL    HW222815  11.018   4.068   5.024  0.1350  0.4361 -0.7890
37031SOL     OW22816   7.366   0.221   0.408  0.0177 -0.9782 -0.3386
37031SOL    HW122817   7.275   0.206   0.432 -0.0811  0.9390  0.6751
37031SOL    HW222818   7.362   0.283   0.335  0.5146 -0.4532  0.0754
37032SOL     OW22819   4.146   2.865   8.477  0.2798 -0.0101 -0.2221
37032SOL    HW122820   4.151   2.921   8.400 -0.9015  0.6038  0.1261
37032SOL    HW222821   4.198   2.788   8.454  1.0412  0.7510 -1.1154
37033SOL     OW22822   9.824   4.533   4.303  0.0237  0.3922  0.0321
37033SOL    HW122823   9.907   4.509   4.344 -1.8767 -2.5605  2.6418
37033SOL    HW222824   9.793   4.608   4.354  0.1108  0.0925  0.5352
37034SOL     OW22825   3.943   5.900   5.726 -0.0935 -0.7368  0.0770
37034SOL    HW122826   3.917   5.849   5.803  0.2825  0.4830  1.0384
37034SOL    HW222827   3.935   5.991   5.753 -1.2446 -0.2242 -1.7648
37035SOL     OW22828  11.103   3.583  10.989 -0.0703  0.4259 -0.1395
37035SOL    HW122829  11.016   3.553  11.014  0.5953 -1.1813  0.3546
37035SOL    HW222830  11.163   3.537  11.048  1.3066 -0.8539 -2.3891
37036SOL     OW22831   7.390   4.819   6.387 -0.2958 -0.7508 -0.3410
37036SOL    HW122832   7.445   4.763   6.332  0.3448 -1.9350  1.4020
37036SOL    HW222833   7.322   4.760   6.421 -1.3652  0.2126 -0.7579
37037SOL     OW22834  10.595   1.042   6.689  0.1183  0.2996 -0.1706
37037SOL    HW122835  10.598   0.996   6.605  0.0363  1.6583 -0.9523
37037SOL    HW222836  10.552   1.125   6.669  0.8219  0.9912  1.0446
37038SOL     OW22837   5.544   7.114   6.618  0.1553  0.3153 -0.1826
37038SOL    HW122838   5.574   7.175   6.685 -0.5824  1.3365 -0.7302
37038SOL    HW222839   5.623   7.070   6.587  1.2572  3.1243 -1.8048
37039SOL     OW22840   3.889   6.839   9.357  0.2426  0.3211  0.7082
37039SOL    HW122841   3.868   6.751   9.325 -3.0195  0.6436  1.6072
37039SOL    HW222842   3.867   6.896   9.283  1.2676  0.5060  0.5280
37040SOL     OW22843   3.528  11.714   0.428 -0.1351 -0.6256  0.7224
37040SOL    HW122844   3.568  11.774   0.492 -1.5161  1.5882 -0.3602
37040SOL    HW222845   3.566  11.741   0.344 -0.2998 -1.7554  0.2673
37041SOL     OW22846   2.577   2.235  11.673  0.3258  0.0194  0.9927
37041SOL    HW122847   2.636   2.296  11.629  0.6009  0.2182  1.6295
37041SOL    HW222848   2.628   2.154  11.680 -1.2522 -1.6359 -3.2344
37042SOL     OW22849   2.708   6.224   0.227  0.3048 -0.0641 -0.6405
37042SOL    HW122850   2.645   6.277   0.276  1.7544  0.8441  0.3150
37042SOL    HW222851   2.657   6.186   0.155 -1.6317 -0.4868  0.8755
37043SOL     OW22852   7.261   5.203   7.618  0.2281  0.7664 -0.4972
37043SOL    HW122853   7.225   5.138   7.679 -0.9028  1.9425  0.1471
37043SOL    HW222854   7.338   5.237   7.664  0.4887  0.2986 -0.5806
37044SOL     OW22855  11.765   0.847   0.848  0.3760 -0.0929  0.0343
37044SOL    HW122856  11.719   0.807   0.921 -0.4686 -0.6437 -0.7870
37044SOL    HW222857  11.769   0.779   0.781 -1.5745  1.2853 -1.6027
37045SOL     OW22858   7.293  10.371   3.711  0.0536 -0.3673 -0.2119
37045SOL    HW122859   7.371  10.329   3.675 -0.8705 -0.7762 -1.8076
37045SOL    HW222860   7.257  10.308   3.773 -0.8060 -1.5868 -1.9005
37046SOL     OW22861  10.681   0.028   8.738  0.1461  0.4958 -0.3238
37046SOL    HW122862  10.590   0.041   8.711 -0.2138 -1.0128  0.0604
37046SOL    HW222863  10.675  -0.030   8.814  1.4579  0.0343 -0.5553
37047SOL     OW22864   7.352   6.780   5.570 -0.3297  0.0150 -0.4443
37047SOL    HW122865   7.413   6.848   5.544 -1.5553  1.8555  1.1750
37047SOL    HW222866   7.283   6.782   5.504  0.0634 -0.3162 -0.8787
37048SOL     OW22867   8.065   5.588   4.203  0.1218 -0.5694  0.0409
37048SOL    HW122868   8.082   5.588   4.109 -0.6551  3.0270 -0.2361
37048SOL    HW222869   7.975   5.555   4.211  0.3478 -1.3087 -0.4379
37049SOL     OW22870   6.842  11.360   3.387 -0.0908  0.6012  0.3671
37049SOL    HW122871   6.791  11.441   3.383  0.4449  0.8976 -1.1251
37049SOL    HW222872   6.921  11.384   3.435 -0.5431  0.6073  1.1130
37050SOL     OW22873   9.015   4.940  10.000  0.1989  0.1841  0.5648
37050SOL    HW122874   9.048   4.928   9.911 -1.0850  0.2881  0.0517
37050SOL    HW222875   8.960   4.863  10.017  1.6881 -0.6538  1.9013
37051SOL     OW22876  11.589   8.333  10.397 -0.3817  0.2224 -0.0278
37051SOL    HW122877  11.542   8.408  10.432 -1.5437 -0.7584  0.6040
37051SOL    HW222878  11.671   8.330  10.447 -0.7104  0.5647  0.5436
37052SOL     OW22879  11.420   4.552   8.978 -0.2641  0.1792  0.3026
37052SOL    HW122880  11.349   4.515   9.029 -0.4741 -0.3947 -0.3910
37052SOL    HW222881  11.379   4.624   8.928 -0.4229 -0.3005 -0.2736
37053SOL     OW22882  11.377  11.237   7.182 -0.2243 -0.5470 -0.2440
37053SOL    HW122883  11.372  11.211   7.274 -0.1390 -0.3751 -0.1916
37053SOL    HW222884  11.325  11.171   7.136 -0.0234 -0.8002 -0.1065
37054SOL     OW22885  10.287   7.433   9.679 -0.2469 -0.5397  0.1415
37054SOL    HW122886  10.335   7.461   9.602 -0.5590 -2.0316 -0.6257
37054SOL    HW222887  10.354   7.393   9.736 -0.2164 -0.5965  0.0667
37055SOL     OW22888   9.149   6.485   3.587  0.1606 -0.0803 -0.2634
37055SOL    HW122889   9.214   6.416   3.577  0.5537  0.0840  1.0620
37055SOL    HW222890   9.065   6.440   3.586  0.4621 -0.7739  1.9668
37056SOL     OW22891   5.070  10.164  10.606 -0.1644  0.4056 -0.1314
37056SOL    HW122892   5.130  10.091  10.625 -0.4691  0.5537  1.5999
37056SOL    HW222893   5.071  10.172  10.511 -0.7613 -2.4185 -0.4826
37057SOL     OW22894  11.518   6.862   9.291 -0.0991  0.2662  0.4417
37057SOL    HW122895  11.527   6.790   9.353 -0.1887 -0.1606 -0.0326
37057SOL    HW222896  11.437   6.906   9.317  0.2202  0.5090  1.0470
37058SOL     OW22897  10.796   6.706  11.683  0.0998 -0.1223  0.4973
37058SOL    HW122898  10.738   6.748  11.747 -1.5975 -1.0197 -0.3945
37058SOL    HW222899  10.820   6.623  11.724 -1.0918 -0.7553 -0.0496
37059SOL     OW22900   6.544   6.431   1.694 -0.4309 -0.0002  0.0368
37059SOL    HW122901   6.459   6.392   1.671  0.1145 -1.3026  0.1394
37059SOL    HW222902   6.602   6.405   1.623  0.5902 -1.6839  1.3957
37060SOL     OW22903   1.338   1.646   4.300 -0.2225 -0.2967 -0.1073
37060SOL    HW122904   1.252   1.624   4.265 -1.7431  4.0476  0.3177
37060SOL    HW222905   1.325   1.648   4.395  0.2516  0.5722 -0.0514
37061SOL     OW22906   3.081   2.290  10.827  0.3201 -0.2077 -0.1319
37061SOL    HW122907   3.121   2.206  10.804  0.7225  0.0701 -0.4593
37061SOL    HW222908   3.143   2.356  10.795 -0.6118  0.2433 -1.0404
37062SOL     OW22909   3.009  11.010   6.322  0.1113 -0.1649  0.8138
37062SOL    HW122910   2.933  11.044   6.273  0.1769 -1.1323  0.0038
37062SOL    HW222911   3.078  11.003   6.256  0.5444 -0.4328  1.2924
37063SOL     OW22912   7.215   2.448   8.430  0.1222 -0.1001  0.2423
37063SOL    HW122913   7.127   2.484   8.420 -0.7218 -1.4520  2.2023
37063SOL    HW222914   7.201   2.354   8.443  2.0111 -0.6387 -1.2174
37064SOL     OW22915  10.774   4.612   9.462  0.2744 -0.2601  0.0410
37064SOL    HW122916  10.837   4.636   9.530  1.0466  0.0097 -0.7487
37064SOL    HW222917  10.812   4.646   9.381 -0.7684 -0.3249 -0.4891
37065SOL     OW22918   6.223   2.291   3.486  0.3817  0.4171 -0.0600
37065SOL    HW122919   6.178   2.217   3.528 -0.0311  0.8555  0.2682
37065SOL    HW222920   6.312   2.257   3.470 -0.7281 -1.3967 -3.1618
37066SOL     OW22921   6.446   3.291   4.478  0.1775  0.6872 -0.3080
37066SOL    HW122922   6.511   3.336   4.532  0.4679  2.5465 -2.0973
37066SOL    HW222923   6.398   3.236   4.540  1.8344  1.1291  1.4714
37067SOL     OW22924   9.809   6.189   6.642  0.3096 -0.0800  0.8838
37067SOL    HW122925   9.716   6.201   6.663  0.7005  3.3208  1.3817
37067SOL    HW222926   9.852   6.183   6.727  0.5835 -1.7669  0.6538
37068SOL     OW22927   3.707   0.727   3.546  0.6055 -0.7155 -0.5844
37068SOL    HW122928   3.712   0.770   3.631  2.2825 -2.5325  0.3094
37068SOL    HW222929   3.618   0.693   3.541 -0.6830  2.4093 -1.1953
37069SOL     OW22930   0.077  11.002   9.888  0.0413 -1.2856 -0.3580
37069SOL    HW122931   0.072  11.050   9.971  0.4838 -0.6119 -0.7114
37069SOL    HW222932  -0.011  10.966   9.875 -0.8997  1.1296 -1.0852
37070SOL     OW22933   0.949   6.791   7.247  0.0576 -0.4278  0.3503
37070SOL    HW122934   1.002   6.724   7.291 -0.9550 -0.2017  2.0222
37070SOL    HW222935   0.866   6.791   7.295 -0.2411  1.5141 -0.0739
37071SOL     OW22936   0.069   3.122  10.718  0.5541 -0.2049 -0.8885
37071SOL    HW122937  -0.011   3.162  10.683  1.1526  1.0452 -0.8768
37071SOL    HW222938   0.039   3.039  10.756 -0.6995  0.1430 -1.0611
37072SOL     OW22939   7.078   7.801   0.746 -0.5602 -0.1406  0.9695
37072SOL    HW122940   7.132   7.864   0.698  0.1974 -0.3278  1.5569
37072SOL    HW222941   7.016   7.768   0.681 -0.3694  0.5385  0.4349
37073SOL     OW22942  11.018   5.836   7.660  0.6441 -0.2436 -0.6598
37073SOL    HW122943  10.979   5.881   7.735  0.9465 -0.1981 -0.5324
37073SOL    HW222944  10.980   5.880   7.583 -0.5140 -0.9902 -0.5511
37074SOL     OW22945   7.016   1.422   9.621 -0.5025 -0.0069  0.0527
37074SOL    HW122946   6.930   1.438   9.580  0.1920 -0.0110 -1.4929
37074SOL    HW222947   7.020   1.484   9.693 -1.0536  1.3015 -1.0100
37075SOL     OW22948   6.955   0.680   4.778  0.2540 -0.1911 -0.7489
37075SOL    HW122949   6.951   0.702   4.685 -0.3068  1.1716 -0.4361
37075SOL    HW222950   7.048   0.670   4.797  0.4008 -0.0148 -1.3623
37076SOL     OW22951   0.105   5.731   3.905 -0.2337 -0.4769  0.6076
37076SOL    HW122952   0.182   5.756   3.855  0.4577 -0.9439  1.4121
37076SOL    HW222953   0.046   5.692   3.840 -0.0139  0.3352 -0.0955
37077SOL     OW22954   9.974   7.349   0.011 -0.0288 -0.6363 -0.5254
37077SOL    HW122955  10.025   7.424   0.043  1.8902 -1.5821 -1.2238
37077SOL    HW222956   9.990   7.279   0.074 -0.9096 -0.8194 -0.4788
37078SOL     OW22957  10.513   4.561   7.557 -0.5382  0.6751 -0.0128
37078SOL    HW122958  10.529   4.618   7.481  1.8239  0.0837 -0.0562
37078SOL    HW222959  10.522   4.472   7.522 -1.1013  0.3507  0.6586
37079SOL     OW22960   5.929   9.657   9.227  0.4745  0.6357 -0.4459
37079SOL    HW122961   6.020   9.627   9.226  0.4321  0.4034  0.6650
37079SOL    HW222962   5.900   9.650   9.136  1.3243 -0.0378 -0.6830
37080SOL     OW22963   2.108  11.469   9.813  0.0612  0.1824  0.0280
37080SOL    HW122964   2.028  11.422   9.837 -0.1713  0.3315 -0.4578
37080SOL    HW222965   2.142  11.502   9.897  0.4336 -1.1574  0.4394
37081SOL     OW22966   3.012   3.467   0.756 -0.5837 -0.0166 -0.0336
37081SOL    HW122967   3.061   3.385   0.749  1.6924  1.2535 -0.0853
37081SOL    HW222968   2.986   3.472   0.848  2.9754  1.0417  1.1080
37082SOL     OW22969   6.225   9.390   1.910  0.5473 -0.6275  0.0058
37082SOL    HW122970   6.252   9.330   1.841 -0.0275 -0.4192 -0.4058
37082SOL    HW222971   6.154   9.441   1.872  1.5805  0.9261  0.0454
37083SOL     OW22972   0.589   2.047   7.551 -0.6336 -0.0439 -0.3230
37083SOL    HW122973   0.648   2.113   7.587 -0.6182 -0.1235 -0.2010
37083SOL    HW222974   0.635   2.012   7.475 -0.4066 -0.2975 -0.0695
37084SOL     OW22975   6.006  10.970   2.807  0.3385 -0.3899  0.3515
37084SOL    HW122976   6.079  10.928   2.853  1.2877  1.8674  1.0941
37084SOL    HW222977   6.042  10.990   2.720  0.7334  0.8857  0.7781
37085SOL     OW22978   9.320   9.570  10.076  0.3761  0.6953 -0.3676
37085SOL    HW122979   9.237   9.543  10.036  0.2182 -0.1741  0.5225
37085SOL    HW222980   9.345   9.497  10.132  2.0820  0.6781 -1.0909
37086SOL     OW22981   0.682   6.496   3.331  0.0185  0.0203 -0.5631
37086SOL    HW122982   0.628   6.437   3.277 -2.3603  0.3954  1.2344
37086SOL    HW222983   0.699   6.445   3.411  0.7982  0.6032 -0.3494
37087SOL     OW22984   2.272   0.441   4.174  0.2139  0.4921  0.1737
37087SOL    HW122985   2.184   0.456   4.209  0.2017 -0.8328  0.7461
37087SOL    HW222986   2.306   0.367   4.224  1.6092  0.8847 -0.1410
37088SOL     OW22987   5.897  11.867   4.629  0.1415 -0.2789 -0.5935
37088SOL    HW122988   5.817  11.888   4.678 -1.0872 -1.5235 -1.9730
37088SOL    HW222989   5.957  11.938   4.652 -0.6369 -0.3234  2.0166
37089SOL     OW22990   6.996   2.903   4.947 -0.1855 -0.1847 -0.0062
37089SOL    HW122991   6.922   2.897   5.007 -0.0843 -0.5710  0.0804
37089SOL    HW222992   7.074   2.899   5.002 -0.0448 -2.3861 -0.2589
37090SOL     OW22993   5.145   8.104  10.637  0.3533 -0.1561 -0.1241
37090SOL    HW122994   5.214   8.045  10.667  0.7368  0.8243  0.9567
37090SOL    HW222995   5.121   8.155  10.714 -0.5626  0.5383 -0.8410
37091SOL     OW22996   0.727   5.240   2.441  0.2268  0.0386  0.1861
37091SOL    HW122997   0.686   5.224   2.526 -0.1738  1.7264  0.3415
37091SOL    HW222998   0.726   5.335   2.431  1.6086 -0.0394 -1.0601
37092SOL     OW22999   6.198   9.709   1.033  0.0478 -0.1207  0.4963
37092SOL    HW123000   6.247   9.629   1.016 -0.4867 -0.4218  0.3505
37092SOL    HW223001   6.134   9.714   0.962  0.3693  0.6776  0.2513
37093SOL     OW23002   0.272   9.724   5.386  0.1664 -0.6726 -0.1410
37093SOL    HW123003   0.288   9.799   5.330  2.0752 -1.4575 -0.7252
37093SOL    HW223004   0.181   9.700   5.369 -0.0558  0.6619 -0.9549
37094SOL     OW23005   2.604   2.262  10.551 -0.2894  0.3157 -0.1103
37094SOL    HW123006   2.562   2.193  10.603 -0.1640  0.0259 -0.3938
37094SOL    HW223007   2.687   2.225  10.523  0.0421  0.7933  0.2192
37095SOL     OW23008   3.051  11.810  10.131  0.3953 -0.2812  0.0797
37095SOL    HW123009   2.987  11.770  10.190 -0.7840  0.7977 -0.4177
37095SOL    HW223010   3.093  11.878  10.183 -0.0902  0.1492 -0.0831
37096SOL     OW23011   7.203   8.809   0.588 -0.0601  0.2753 -0.1207
37096SOL    HW123012   7.155   8.879   0.633 -0.0856 -0.1161  0.4803
37096SOL    HW223013   7.270   8.783   0.651  1.6274  1.4999 -1.3263
37097SOL     OW23014   8.145   5.877  10.468 -0.1225  0.4559  0.0449
37097SOL    HW123015   8.235   5.856  10.443 -0.1991 -0.3629  0.4024
37097SOL    HW223016   8.147   5.882  10.563 -0.3149  1.1484  0.0157
37098SOL     OW23017   0.288   6.206   6.603 -0.2107 -0.8958  0.4933
37098SOL    HW123018   0.348   6.138   6.571  0.3495 -0.0143 -0.4000
37098SOL    HW223019   0.329   6.288   6.577 -0.9189 -0.2046  1.4869
37099SOL     OW23020   0.721   7.259   8.956 -0.4199  0.1236  0.2624
37099SOL    HW123021   0.702   7.350   8.934  2.1233  0.6948  0.1687
37099SOL    HW223022   0.639   7.213   8.938 -1.4875  2.2278 -0.6122
37100SOL     OW23023  10.454  10.951  11.183 -0.0852  0.2047  0.5542
37100SOL    HW123024  10.491  11.019  11.239  0.9950 -1.2561  1.7299
37100SOL    HW223025  10.447  10.874  11.240  2.7653 -1.9373 -1.6468
37101SOL     OW23026   5.356   3.306   8.062  0.5137 -0.1851 -0.0626
37101SOL    HW123027   5.385   3.284   8.151  2.5871 -0.2999 -0.7095
37101SOL    HW223028   5.262   3.289   8.063  0.4486 -0.0295  2.1484
37102SOL     OW23029   0.849   2.922   4.962  0.0408 -0.2577  0.1084
37102SOL    HW123030   0.808   2.897   5.044  0.3854 -0.5133  0.2073
37102SOL    HW223031   0.806   3.004   4.937 -1.8622 -1.4610 -0.7651
37103SOL     OW23032  11.743   2.537   4.194  0.2959 -0.5991  0.4409
37103SOL    HW123033  11.683   2.595   4.148  0.1994 -1.7516 -0.9759
37103SOL    HW223034  11.811   2.517   4.130  1.9119  0.1985  1.8173
37104SOL     OW23035   5.329   6.101  10.693 -0.6486  0.2313 -0.7039
37104SOL    HW123036   5.388   6.153  10.747 -1.5462  0.0896  0.4555
37104SOL    HW223037   5.253   6.084  10.749 -1.3885 -0.3709 -1.8376
37105SOL     OW23038  11.369   0.993  10.504 -0.3392  0.3189  0.3310
37105SOL    HW123039  11.324   1.005  10.588 -1.4103 -0.3086 -0.1381
37105SOL    HW223040  11.353   1.075  10.457 -2.3670 -0.4573 -0.4395
37106SOL     OW23041   1.294   2.399  11.894  0.7759 -0.2663  0.7406
37106SOL    HW123042   1.312   2.325  11.952  1.6915 -0.8367 -0.2190
37106SOL    HW223043   1.268   2.358  11.811 -0.7468  0.5290  0.8006
37107SOL     OW23044   6.080   6.195   5.969  0.4805 -0.2041 -0.5079
37107SOL    HW123045   6.112   6.196   6.059  0.1935 -0.2639 -0.4036
37107SOL    HW223046   5.988   6.222   5.976 -0.0976 -2.0229 -0.5563
37108SOL     OW23047   6.913   3.651   5.228 -0.4542  0.2515  0.0731
37108SOL    HW123048   6.945   3.740   5.244 -0.3490  0.3247 -0.5457
37108SOL    HW223049   6.820   3.662   5.208  0.0702  0.5225 -2.5936
37109SOL     OW23050   1.340  10.626   7.094  0.5462  0.0205  0.3862
37109SOL    HW123051   1.350  10.603   7.002  0.4320 -1.2471  0.6740
37109SOL    HW223052   1.266  10.687   7.096  1.3300  1.0343 -0.4881
37110SOL     OW23053   0.783  11.846   5.404  0.2054 -0.1307  0.3018
37110SOL    HW123054   0.759  11.878   5.490  0.2509  0.7323  0.0028
37110SOL    HW223055   0.834  11.767   5.421 -1.3351 -1.0331  0.9991
37111SOL     OW23056   7.654  11.422   0.172  0.2813  0.4609 -0.1126
37111SOL    HW123057   7.725  11.359   0.165 -0.4356 -0.4414  0.5451
37111SOL    HW223058   7.587  11.391   0.111 -1.0607 -0.7980  1.8826
37112SOL     OW23059   0.976   0.921   1.305 -0.3305  0.1644 -0.1563
37112SOL    HW123060   1.002   1.013   1.309 -1.0147  0.3152  1.4390
37112SOL    HW223061   1.041   0.880   1.247  0.6784  1.4155  0.0473
37113SOL     OW23062   9.596   4.228   4.824  0.0865 -0.0144 -0.2362
37113SOL    HW123063   9.636   4.232   4.737  2.3201 -1.4696  0.6355
37113SOL    HW223064   9.669   4.212   4.884 -1.1829  2.2757  2.1266
37114SOL     OW23065   5.987   6.892  11.023  0.2965 -0.2963  0.0316
37114SOL    HW123066   5.965   6.849  10.940 -0.4298 -0.1258  0.1230
37114SOL    HW223067   6.042   6.828  11.069 -0.2313 -0.8658 -0.1067
37115SOL     OW23068   0.762   3.006   1.925 -0.3077 -0.3199  0.1808
37115SOL    HW123069   0.789   2.956   2.002 -3.7683  0.1011  1.8507
37115SOL    HW223070   0.706   2.946   1.876  1.0690 -0.2520 -1.5870
37116SOL     OW23071   4.515   0.952  10.355  0.2410 -0.4752 -0.2789
37116SOL    HW123072   4.553   0.871  10.320 -1.1347 -1.1699 -0.1938
37116SOL    HW223073   4.586   0.991  10.406  0.7625 -1.8973  0.1233
37117SOL     OW23074   9.170   5.157   4.618  0.4578  0.0514  0.3454
37117SOL    HW123075   9.080   5.126   4.609  0.9114 -2.5996  3.2249
37117SOL    HW223076   9.180   5.223   4.549 -3.4259 -0.0329 -0.5163
37118SOL     OW23077   0.350   7.707   6.412 -0.6712 -0.2673  0.2330
37118SOL    HW123078   0.329   7.785   6.464 -0.6473 -0.1384  0.0481
37118SOL    HW223079   0.417   7.662   6.463  2.0669  1.7133 -1.3544
37119SOL     OW23080   6.849   4.687  10.161 -0.3083 -0.0024 -0.4312
37119SOL    HW123081   6.786   4.618  10.180 -0.9962  1.1846  2.1365
37119SOL    HW223082   6.795   4.763  10.140  0.4112  0.0584 -2.1923
37120SOL     OW23083   7.907  10.165   0.083  0.3549  0.3114 -0.3353
37120SOL    HW123084   7.991  10.152   0.126  0.3598 -0.8250 -0.6476
37120SOL    HW223085   7.909  10.106   0.008 -0.1363  1.3712 -1.2017
37121SOL     OW23086   8.188   0.172   1.106 -0.1749  0.1528  0.2478
37121SOL    HW123087   8.208   0.093   1.056 -1.8910  0.5757 -1.1922
37121SOL    HW223088   8.191   0.243   1.042  1.6506  1.3466  1.5762
37122SOL     OW23089  10.392   8.924   0.953  0.1901  0.0609 -0.0755
37122SOL    HW123090  10.375   8.837   0.916  2.5577 -0.9318  1.0082
37122SOL    HW223091  10.326   8.980   0.911 -0.5642 -1.9680 -1.8243
37123SOL     OW23092   3.470   0.844   6.095 -0.0916 -0.6380  0.3519
37123SOL    HW123093   3.540   0.778   6.100 -1.2926 -2.0165 -0.1850
37123SOL    HW223094   3.497   0.903   6.025  2.2954  1.0914  2.5449
37124SOL     OW23095   4.310   9.542   1.653 -0.1916 -0.1322  0.1984
37124SOL    HW123096   4.346   9.572   1.569  0.6658 -0.3354  0.4818
37124SOL    HW223097   4.267   9.459   1.633  0.2655 -0.3252  0.0106
37125SOL     OW23098   1.301  11.887   7.447  0.5837 -0.1623 -0.7191
37125SOL    HW123099   1.277  11.975   7.418  0.0697 -0.0726 -0.0425
37125SOL    HW223100   1.251  11.828   7.391 -0.0951  0.0026 -0.2977
37126SOL     OW23101   9.927   0.336   3.965  0.1509 -0.1732  0.4056
37126SOL    HW123102  10.001   0.394   3.984 -0.4774  1.1758 -0.9986
37126SOL    HW223103   9.919   0.337   3.869 -0.4326 -1.9314  0.3973
37127SOL     OW23104  11.711   7.353  10.612  0.3820  0.2742 -0.8217
37127SOL    HW123105  11.726   7.447  10.599  0.7445  0.2600 -0.5288
37127SOL    HW223106  11.798   7.316  10.625  0.2627 -0.1508 -1.2310
37128SOL     OW23107  11.739   8.226   9.518  0.0084 -0.1718  0.4622
37128SOL    HW123108  11.770   8.221   9.609  1.1265  2.0680  0.2834
37128SOL    HW223109  11.819   8.238   9.467 -0.8149  1.7989 -0.4599
37129SOL     OW23110   7.438   9.298  11.089  0.1173  0.6407  0.2585
37129SOL    HW123111   7.437   9.357  11.014  2.4052 -1.7565 -1.8533
37129SOL    HW223112   7.352   9.255  11.086  0.2097  0.4938 -1.1353
37130SOL     OW23113  10.308   1.611   6.757 -0.0801 -0.9552 -0.8894
37130SOL    HW123114  10.318   1.704   6.733  2.6249 -1.0964 -0.7031
37130SOL    HW223115  10.268   1.613   6.843  1.1619  0.1597 -0.2962
37131SOL     OW23116   5.974   3.519   2.468  0.1439 -0.7279 -0.1271
37131SOL    HW123117   5.887   3.478   2.470 -1.0866  1.2309 -4.1497
37131SOL    HW223118   6.030   3.453   2.427 -0.1550 -0.9605 -0.1682
37132SOL     OW23119  11.170   3.300   6.887 -0.3327 -0.3074 -0.5193
37132SOL    HW123120  11.082   3.322   6.918 -0.2851 -0.6398 -0.1361
37132SOL    HW223121  11.157   3.225   6.828 -0.3732  0.0402 -0.9565
37133SOL     OW23122  10.206   1.473  10.988 -0.1655  0.3274  0.6719
37133SOL    HW123123  10.251   1.543  11.036 -0.0990  0.9635 -0.2984
37133SOL    HW223124  10.246   1.475  10.901 -0.6277 -0.4894  0.4371
37134SOL     OW23125   9.571  11.135  10.433  0.1489  0.1303  0.0821
37134SOL    HW123126   9.593  11.164  10.521 -1.9179  1.2359  0.2971
37134SOL    HW223127   9.518  11.057  10.446  2.5208 -1.6668 -0.3707
37135SOL     OW23128   1.929   6.283  11.011  0.3389 -0.0367  0.3221
37135SOL    HW123129   2.011   6.264  10.965 -0.2693  1.7929 -1.6475
37135SOL    HW223130   1.943   6.369  11.051 -0.7429  0.4522 -0.3398
37136SOL     OW23131   1.726   7.446   6.091 -0.0105 -0.0085 -0.6295
37136SOL    HW123132   1.660   7.483   6.150  0.8512 -0.9790  1.0068
37136SOL    HW223133   1.733   7.354   6.117  1.1449 -0.2142 -1.5815
37137SOL     OW23134  10.823   5.223   5.848 -0.1219 -0.7461  0.6183
37137SOL    HW123135  10.853   5.187   5.765 -2.3527  0.7657 -0.9447
37137SOL    HW223136  10.880   5.298   5.864 -1.1947  0.4489 -0.8946
37138SOL     OW23137   9.860   4.503  10.247 -0.5677  0.3045  0.3697
37138SOL    HW123138   9.883   4.549  10.166 -0.5812  1.6408  1.1155
37138SOL    HW223139   9.924   4.532  10.311  0.9173 -2.4970  0.3388
37139SOL     OW23140   9.858   3.547  10.599 -0.0821 -0.2190 -0.4029
37139SOL    HW123141   9.896   3.541  10.687 -1.3565 -0.8081  0.1250
37139SOL    HW223142   9.815   3.462  10.585 -1.7127  0.6180 -0.7313
37140SOL     OW23143  10.241   2.556   8.333 -0.1097 -0.2762  0.3382
37140SOL    HW123144  10.293   2.553   8.253  1.9786 -0.9108  1.6207
37140SOL    HW223145  10.151   2.539   8.304  0.7971 -2.2101 -1.6799
37141SOL     OW23146   9.133   4.240   0.262 -0.1851 -0.2050 -0.0035
37141SOL    HW123147   9.188   4.317   0.245  0.8283 -0.8571  0.2925
37141SOL    HW223148   9.136   4.228   0.357 -2.6073  1.0230  0.3199
37142SOL     OW23149   1.370   7.009   3.392  0.0938 -0.2124 -0.1169
37142SOL    HW123150   1.438   7.076   3.403 -0.1975  0.0089  0.3812
37142SOL    HW223151   1.289   7.052   3.422 -0.5214 -0.0286 -1.8711
37143SOL     OW23152   3.649   3.179   0.797 -0.0343  0.4164 -0.0471
37143SOL    HW123153   3.568   3.208   0.755 -0.0593 -0.6430 -0.7827
37143SOL    HW223154   3.676   3.103   0.745  1.4336  0.7563  0.1965
37144SOL     OW23155   9.661   3.049   8.216 -0.3330 -0.8628 -0.2059
37144SOL    HW123156   9.656   3.016   8.127  0.4996 -1.6002  0.0055
37144SOL    HW223157   9.646   2.972   8.271  2.6726 -1.1979  0.3118
37145SOL     OW23158   6.787   4.256   5.285 -0.1545  0.0506  0.2670
37145SOL    HW123159   6.694   4.270   5.265 -0.1384  0.6536  0.6162
37145SOL    HW223160   6.821   4.210   5.208 -0.4503  0.9626 -0.4253
37146SOL     OW23161   2.073   2.502  10.830  0.1510 -0.0310  0.1000
37146SOL    HW123162   2.049   2.541  10.914 -0.8692  1.3184 -0.7638
37146SOL    HW223163   1.994   2.511  10.776  0.3705 -1.9974 -0.6338
37147SOL     OW23164  10.008   9.233   4.080  0.2505 -0.4994  0.2086
37147SOL    HW123165  10.009   9.242   4.175 -0.5562  0.9973  0.1023
37147SOL    HW223166   9.956   9.306   4.049 -2.2022 -2.6678 -1.2215
37148SOL     OW23167   9.009   3.179   6.933  0.5800  0.6252  0.8205
37148SOL    HW123168   9.002   3.274   6.920  0.0831  0.5822  0.7276
37148SOL    HW223169   9.041   3.169   7.023 -0.9240  0.8758  1.4254
37149SOL     OW23170  11.901   2.664   8.690  0.5870 -0.8709 -0.0481
37149SOL    HW123171  11.877   2.722   8.762  0.4331 -0.1818 -0.6363
37149SOL    HW223172  11.990   2.689   8.667  0.3891 -0.6002 -0.5460
37150SOL     OW23173   9.242   3.791   1.944 -0.1111 -0.0843  0.2678
37150SOL    HW123174   9.333   3.806   1.919  0.0666 -0.4094  0.7126
37150SOL    HW223175   9.240   3.701   1.977 -1.1971 -1.2671 -2.6326
37151SOL     OW23176   9.884   5.137   1.155 -0.3557 -0.3756 -0.6139
37151SOL    HW123177   9.930   5.205   1.105 -0.1792 -0.4775 -0.5925
37151SOL    HW223178   9.836   5.087   1.089  0.1523 -0.7246 -0.7329
37152SOL     OW23179   2.872   6.899   9.071 -0.2921 -0.2157  0.6469
37152SOL    HW123180   2.803   6.896   9.005  0.7437 -0.5424 -0.4533
37152SOL    HW223181   2.931   6.968   9.041  0.6169 -0.9124  0.7789
37153SOL     OW23182   6.254   4.680   5.810 -0.0436 -0.0636  0.1521
37153SOL    HW123183   6.293   4.707   5.894 -0.6401  1.0475  0.1021
37153SOL    HW223184   6.316   4.617   5.774  0.0904 -0.7743  1.5566
37154SOL     OW23185   3.866   7.905   4.106 -0.1400 -0.6868  0.0911
37154SOL    HW123186   3.817   7.908   4.024  0.3598  1.9166 -0.1931
37154SOL    HW223187   3.953   7.939   4.083  0.1764 -0.4263  1.5789
37155SOL     OW23188   3.698   7.680   5.531 -0.0248 -0.2327 -0.4633
37155SOL    HW123189   3.605   7.690   5.548 -0.3041 -2.2746 -0.5474
37155SOL    HW223190   3.727   7.615   5.595  0.9815 -0.8511 -1.5088
37156SOL     OW23191  10.752   4.781  10.449  0.1282  0.0704 -0.4892
37156SOL    HW123192  10.709   4.779  10.534  0.8105  0.6177 -0.1266
37156SOL    HW223193  10.784   4.691  10.437  1.4252  0.3594  0.5705
37157SOL     OW23194   0.001   5.682   3.414 -0.2329  0.0061  0.4494
37157SOL    HW123195  -0.013   5.680   3.319  1.0392  0.7579  0.2335
37157SOL    HW223196  -0.016   5.773   3.438  1.2418  0.2525  0.6375
37158SOL     OW23197   1.978   1.149   5.424  0.3676 -0.1370  0.4560
37158SOL    HW123198   1.886   1.149   5.397  0.3347  1.8596  0.4367
37158SOL    HW223199   1.977   1.116   5.513 -0.3910  0.0709  0.5317
37159SOL     OW23200   4.533   9.944   7.687 -0.3935  0.1238  0.4750
37159SOL    HW123201   4.576  10.024   7.720  0.2883 -0.2911  0.6187
37159SOL    HW223202   4.519   9.891   7.765  2.5173 -1.4881  0.0501
37160SOL     OW23203   3.308   6.051  10.777  0.3836  0.1708 -0.3832
37160SOL    HW123204   3.361   6.130  10.786  1.9487 -1.0366  1.8090
37160SOL    HW223205   3.371   5.981  10.763 -0.4986 -1.3526  2.4852
37161SOL     OW23206  10.597   0.862   9.191 -0.0378 -0.3004 -0.1347
37161SOL    HW123207  10.692   0.869   9.182 -0.1349  0.3475 -0.7369
37161SOL    HW223208  10.562   0.936   9.140 -0.8194  0.3214  1.2294
37162SOL     OW23209  10.695  10.246   5.707  0.2767 -0.2113  0.3219
37162SOL    HW123210  10.790  10.246   5.715  0.2239 -0.7779  0.9890
37162SOL    HW223211  10.663  10.214   5.791 -0.4476 -1.4376 -0.3832
37163SOL     OW23212   4.538  10.526  11.678  0.3444 -0.6092  0.1652
37163SOL    HW123213   4.524  10.553  11.769  2.7138 -0.7343  0.6374
37163SOL    HW223214   4.579  10.440  11.685  0.3296 -0.7322 -1.0446
37164SOL     OW23215   8.641  10.048   5.771  0.2083  0.4228  0.1804
37164SOL    HW123216   8.639   9.963   5.814  0.3663  0.1922 -0.2644
37164SOL    HW223217   8.671  10.109   5.839  0.3142  0.0866  0.4347
37165SOL     OW23218   6.233  11.026   4.183  0.7070  0.6537  0.1194
37165SOL    HW123219   6.273  10.955   4.232  0.5777 -0.4225 -1.2796
37165SOL    HW223220   6.140  11.003   4.178  0.8213  0.4143 -1.1415
37166SOL     OW23221   9.912   3.901   2.214 -0.0658 -0.1136  0.3810
37166SOL    HW123222   9.837   3.899   2.155 -0.2562 -0.1426  0.6275
37166SOL    HW223223   9.922   3.810   2.243 -0.0427 -0.0772  0.4862
37167SOL     OW23224   2.537  11.183  10.347 -0.0945 -1.0674  0.6522
37167SOL    HW123225   2.522  11.255  10.286  0.5215 -1.7293 -0.2966
37167SOL    HW223226   2.633  11.173  10.348  0.0736  0.0381  3.0304
37168SOL     OW23227  10.182   2.961  10.655  0.2631  0.6093  0.0983
37168SOL    HW123228  10.197   2.978  10.562 -0.2228 -0.9162 -0.2742
37168SOL    HW223229  10.089   2.978  10.668  0.0260 -0.5237 -0.0202
37169SOL     OW23230  11.088   5.855   8.112 -0.2372  0.5627 -0.3366
37169SOL    HW123231  11.103   5.768   8.149 -0.0612  1.1370  0.9890
37169SOL    HW223232  11.104   5.844   8.019  1.4701 -0.4508  0.0402
37170SOL     OW23233   5.278   4.580   1.075  0.2850  0.1104 -0.3873
37170SOL    HW123234   5.367   4.546   1.067  0.0502 -0.9057  0.8123
37170SOL    HW223235   5.230   4.539   1.003 -0.0126 -2.3448  1.0837
37171SOL     OW23236  10.674   2.951  10.764 -0.6611 -0.0108  0.3551
37171SOL    HW123237  10.609   3.005  10.808 -0.5165 -0.3351  0.9739
37171SOL    HW223238  10.695   2.999  10.684 -0.9987  0.5335  0.5881
37172SOL     OW23239   7.808   5.393   1.383  0.3301  0.5092 -0.4951
37172SOL    HW123240   7.798   5.409   1.477  0.3525 -1.7418 -0.0472
37172SOL    HW223241   7.743   5.450   1.342 -2.0146 -0.7609  1.1414
37173SOL     OW23242  10.213   5.076   9.966  0.0294 -0.2830  0.1281
37173SOL    HW123243  10.308   5.086   9.972  0.1822 -1.0963 -0.7237
37173SOL    HW223244  10.186   5.146   9.906 -0.1487  1.0302  1.6767
37174SOL     OW23245   9.807   9.653   8.678 -0.5209 -0.8424  0.7114
37174SOL    HW123246   9.854   9.724   8.721 -1.4445  0.5329 -0.4356
37174SOL    HW223247   9.719   9.656   8.716 -1.2109  0.0910 -0.8201
37175SOL     OW23248   5.392   4.757   6.981 -0.1500 -0.0199  0.2512
37175SOL    HW123249   5.389   4.803   6.897  1.0319 -2.0904 -0.9980
37175SOL    HW223250   5.457   4.805   7.033 -0.8656  1.2543  0.0114
37176SOL     OW23251   0.263   9.168   4.769  0.2464 -0.0577  0.1654
37176SOL    HW123252   0.330   9.100   4.768  1.3142  0.9654 -0.6172
37176SOL    HW223253   0.184   9.124   4.802  0.5719 -1.9706 -1.4366
37177SOL     OW23254   6.799   6.802   8.768 -0.2948  0.0483  0.2651
37177SOL    HW123255   6.789   6.831   8.677 -0.4602 -1.7214 -0.3193
37177SOL    HW223256   6.876   6.849   8.800 -1.2576  2.0441 -0.1919
37178SOL     OW23257   0.827   3.198  10.786 -0.7526  0.2527 -0.3175
37178SOL    HW123258   0.912   3.165  10.755  0.3620  1.1592  1.5564
37178SOL    HW223259   0.766   3.177  10.716  0.5323 -2.6387 -0.7055
37179SOL     OW23260  10.867   6.101   3.965  0.0171  0.1560  0.4827
37179SOL    HW123261  10.929   6.129   3.897 -0.1539 -0.5985 -0.0096
37179SOL    HW223262  10.837   6.181   4.006 -0.6173  0.7044 -1.0020
37180SOL     OW23263   6.577  11.646   1.623  0.0688  0.4367  0.5080
37180SOL    HW123264   6.650  11.706   1.636  0.3191  0.1420  0.4684
37180SOL    HW223265   6.615  11.559   1.633  0.0847  0.2117 -1.2036
37181SOL     OW23266   0.340   0.822  11.075  0.6513 -0.6972  0.2129
37181SOL    HW123267   0.307   0.841  10.987  0.9372 -0.0053  0.2487
37181SOL    HW223268   0.261   0.806  11.127  0.3855  0.4487  0.1852
37182SOL     OW23269   3.761   9.231   1.856 -0.4373 -0.8269  0.9614
37182SOL    HW123270   3.846   9.242   1.900  1.6699 -0.4960 -2.7918
37182SOL    HW223271   3.746   9.136   1.858  2.0575 -1.4096 -1.4499
37183SOL     OW23272   9.267  11.471  11.545 -0.0605 -0.5438  0.0966
37183SOL    HW123273   9.346  11.499  11.592  0.1926 -1.4640  0.2578
37183SOL    HW223274   9.236  11.395  11.595 -3.3466  2.0485  2.4005
37184SOL     OW23275   0.470   7.917   5.034  0.1830 -0.2573  0.3308
37184SOL    HW123276   0.564   7.931   5.025  0.1096 -0.1195 -0.3271
37184SOL    HW223277   0.446   7.964   5.114  0.6394 -0.1205  0.3883
37185SOL     OW23278   2.071  10.764   1.003 -0.2176 -0.4615 -0.0801
37185SOL    HW123279   2.163  10.738   1.010 -0.4716 -1.9489 -1.6631
37185SOL    HW223280   2.023  10.697   1.052 -0.5575 -0.3464 -0.2514
37186SOL     OW23281  11.860   7.782   7.550  0.4218  0.1440 -0.7665
37186SOL    HW123282  11.920   7.852   7.526 -0.0112  0.1950 -1.7303
37186SOL    HW223283  11.774   7.824   7.553  0.5717  0.5044  2.3999
37187SOL     OW23284   7.789  10.447   6.332 -0.3287 -0.1961  0.5953
37187SOL    HW123285   7.816  10.410   6.416 -0.0781  0.5012  0.8236
37187SOL    HW223286   7.857  10.510   6.310  0.0725 -1.0146 -0.5766
37188SOL     OW23287   1.160   4.773   7.719 -0.6456 -0.2760  0.1548
37188SOL    HW123288   1.185   4.742   7.806  0.7221  0.9472  0.2475
37188SOL    HW223289   1.096   4.709   7.688 -1.2646 -0.6901  2.0919
37189SOL     OW23290   7.951  10.609   4.446  0.0828 -0.1566 -0.5748
37189SOL    HW123291   7.889  10.616   4.519  1.6266  0.6139  0.7075
37189SOL    HW223292   7.914  10.666   4.378 -0.9303 -0.2070 -0.0858
37190SOL     OW23293   1.371   3.947   2.318  0.1409  0.5232  1.0329
37190SOL    HW123294   1.351   4.037   2.342  0.2938  0.7904  0.1754
37190SOL    HW223295   1.322   3.932   2.237 -0.3001 -0.3369  1.4417
37191SOL     OW23296   0.095   3.028   3.397  0.1941 -0.3158 -0.0325
37191SOL    HW123297   0.149   3.064   3.467  0.6228 -0.1122 -0.4640
37191SOL    HW223298   0.072   2.940   3.427 -0.6517  0.2139  0.9142
37192SOL     OW23299   8.706   3.997   4.485 -0.2787  0.1274  0.8165
37192SOL    HW123300   8.707   4.056   4.409  1.5139 -0.0944  0.6452
37192SOL    HW223301   8.729   3.912   4.449 -0.0657 -0.1143  1.5204
37193SOL     OW23302  10.737   6.047  11.643  0.0595  0.5955 -0.7768
37193SOL    HW123303  10.691   6.002  11.714  3.3823 -1.2073  0.4505
37193SOL    HW223304  10.697   6.014  11.563 -1.2550 -0.2583  0.2054
37194SOL     OW23305  11.837   0.591   8.860  0.2651 -0.4184  0.1380
37194SOL    HW123306  11.880   0.650   8.922 -0.2766 -0.1854  0.2982
37194SOL    HW223307  11.869   0.504   8.883  0.3745 -0.2883  0.4846
37195SOL     OW23308   3.684   4.348   6.612 -0.3682  0.3155  0.3773
37195SOL    HW123309   3.589   4.337   6.616 -0.1957 -1.1058  1.6309
37195SOL    HW223310   3.705   4.347   6.519 -1.4189 -1.3401  0.1057
37196SOL     OW23311  10.545   4.710   5.751 -0.3535 -0.2082  0.0366
37196SOL    HW123312  10.528   4.800   5.778 -0.3080 -0.2032  0.0497
37196SOL    HW223313  10.624   4.685   5.799  0.0942  0.0140 -0.5766
37197SOL     OW23314   1.819   7.254   5.294 -0.8245  0.1333 -0.2583
37197SOL    HW123315   1.915   7.252   5.296 -0.7805  0.3127 -1.4538
37197SOL    HW223316   1.793   7.229   5.383  0.3377  2.3106  0.7970
37198SOL     OW23317   1.213   7.038   9.274 -0.1020  0.9958  0.0993
37198SOL    HW123318   1.231   7.131   9.268  4.8710  0.4561  2.1898
37198SOL    HW223319   1.191   7.023   9.366 -1.0060  0.0724 -0.2402
37199SOL     OW23320   8.921   1.031  10.351  1.0785  0.5119 -0.5973
37199SOL    HW123321   8.900   0.938  10.350 -0.3619  0.7907 -0.1105
37199SOL    HW223322   8.905   1.061  10.262  0.5899  0.4629 -0.5306
37200SOL     OW23323   1.521   4.953   9.115  0.1962  0.7522  0.0890
37200SOL    HW123324   1.610   4.919   9.108 -0.2776 -0.2065 -3.0521
37200SOL    HW223325   1.530   5.047   9.097  0.5245  0.4602 -1.4491
37201SOL     OW23326   4.924   9.114  11.160 -0.1297  1.0747 -0.1350
37201SOL    HW123327   4.875   9.157  11.090 -0.2586 -0.8708 -1.3160
37201SOL    HW223328   4.926   9.179  11.231 -2.0546  2.2239 -1.0400
37202SOL     OW23329   3.639   1.309  11.103 -0.4371 -0.0632  0.1652
37202SOL    HW123330   3.570   1.259  11.059 -0.9356 -1.3461  2.2620
37202SOL    HW223331   3.709   1.315  11.039 -0.8295 -2.4744 -0.6050
37203SOL     OW23332   3.955   5.717   9.186  0.6814  0.0080 -0.2863
37203SOL    HW123333   4.034   5.701   9.133 -0.0913  1.6923 -2.0971
37203SOL    HW223334   3.894   5.758   9.125 -2.0381 -2.1556  0.7908
37204SOL     OW23335   5.934   2.352   7.131 -0.2834 -0.4908 -0.0955
37204SOL    HW123336   6.014   2.389   7.093  0.5072 -0.3574  1.6166
37204SOL    HW223337   5.946   2.360   7.225 -3.2043  1.4814  0.2572
37205SOL     OW23338   2.522   0.520   6.294  0.3910  0.4643  0.4400
37205SOL    HW123339   2.578   0.481   6.361 -0.2871  2.0290  2.0153
37205SOL    HW223340   2.559   0.607   6.279  0.3733  0.2404 -1.0687
37206SOL     OW23341   2.844   5.337   6.238  0.5777  0.3175 -0.0615
37206SOL    HW123342   2.806   5.274   6.300  0.6798 -0.6818 -0.9973
37206SOL    HW223343   2.938   5.336   6.257  0.6321 -0.1236 -0.3463
37207SOL     OW23344   2.052   1.514   3.070  0.2289 -0.4192  0.4007
37207SOL    HW123345   2.038   1.457   3.145  0.5127 -0.5330  0.3680
37207SOL    HW223346   2.143   1.498   3.044  0.4982  0.4766  0.7548
37208SOL     OW23347   6.190   6.035   5.355 -0.1610  0.1944  0.1562
37208SOL    HW123348   6.266   5.978   5.340 -0.7520 -0.2010 -1.4923
37208SOL    HW223349   6.134   5.986   5.415  0.5035  0.1430  0.7441
37209SOL     OW23350   4.997  10.138   3.716  0.4396  0.0557  0.4789
37209SOL    HW123351   4.960  10.049   3.714  0.9664 -0.1974  1.3013
37209SOL    HW223352   5.073  10.133   3.659 -0.0855  0.2473 -0.2464
37210SOL     OW23353   2.672   1.703   2.952  0.3785 -0.7350 -0.2818
37210SOL    HW123354   2.636   1.620   2.985  1.8022 -0.0962  3.3165
37210SOL    HW223355   2.651   1.766   3.021  0.1881  1.7541 -2.4929
37211SOL     OW23356   5.206   6.560   4.509  0.3094  0.5289  0.1938
37211SOL    HW123357   5.133   6.501   4.490 -0.6812  2.0128 -0.8640
37211SOL    HW223358   5.165   6.644   4.529  1.7108  1.6582 -1.3535
37212SOL     OW23359   9.462   1.450   8.218  0.4176 -0.1579  0.0894
37212SOL    HW123360   9.395   1.517   8.227  0.3856 -0.1999  0.1645
37212SOL    HW223361   9.527   1.470   8.286  0.3850 -0.2290  0.1420
37213SOL     OW23362   1.740   0.374   3.341  0.6085 -0.1434 -0.0603
37213SOL    HW123363   1.767   0.417   3.260 -0.3299  0.2870 -0.1567
37213SOL    HW223364   1.731   0.282   3.316  0.2680 -0.0042 -0.4632
37214SOL     OW23365  11.428   7.780  11.054  1.2398 -0.5019  0.0595
37214SOL    HW123366  11.410   7.873  11.069  0.2683 -0.6944  0.1547
37214SOL    HW223367  11.523   7.775  11.044  1.4003  0.3711  1.0039
37215SOL     OW23368   6.476   4.745   0.276 -0.3311 -0.1398  0.0133
37215SOL    HW123369   6.545   4.768   0.214 -1.2450  0.0793 -0.9676
37215SOL    HW223370   6.399   4.731   0.221 -0.3789 -3.4236  0.7352
37216SOL     OW23371   2.905   1.821   8.098  0.2046  0.1226  0.2062
37216SOL    HW123372   2.944   1.839   8.012  0.2431  0.5636  0.3142
37216SOL    HW223373   2.979   1.798   8.154  0.0988 -0.9573 -0.0711
37217SOL     OW23374   7.043   0.069   0.947 -0.1548 -0.2077  0.1229
37217SOL    HW123375   7.057   0.144   1.005 -1.0396  0.1455 -0.0997
37217SOL    HW223376   7.112   0.008   0.969  0.3485  0.5163  0.5832
37218SOL     OW23377   9.268   2.246   7.164 -0.8536 -0.0411  0.1062
37218SOL    HW123378   9.172   2.243   7.162 -0.9165  0.9875  0.5447
37218SOL    HW223379   9.290   2.323   7.112 -0.2007 -0.8722 -0.8731
37219SOL     OW23380   5.267   8.606   5.206  0.4996 -0.4354  0.5884
37219SOL    HW123381   5.289   8.522   5.164  0.0712 -0.9065  1.2760
37219SOL    HW223382   5.341   8.663   5.185  0.6997 -0.9202 -0.0751
37220SOL     OW23383   6.803   5.169  11.649  0.3674 -0.1449  0.2655
37220SOL    HW123384   6.894   5.163  11.678  0.0772  0.4385  1.3556
37220SOL    HW223385   6.754   5.116  11.712 -0.3018  1.2766  0.9765
37221SOL     OW23386   6.166  11.686   7.403  0.3031 -0.4566 -0.3562
37221SOL    HW123387   6.229  11.729   7.345 -0.1392  0.5435 -0.1327
37221SOL    HW223388   6.208  11.689   7.489 -1.0404  2.6659  0.3628
37222SOL     OW23389  10.638   4.880   4.601  0.4753 -0.6276 -0.4765
37222SOL    HW123390  10.598   4.830   4.530 -2.5311  0.8977  0.0114
37222SOL    HW223391  10.608   4.837   4.681  0.6532 -0.0377 -0.0879
37223SOL     OW23392  10.579  10.970   6.562 -0.0273  0.2572 -0.0557
37223SOL    HW123393  10.590  10.953   6.655  0.0598 -0.3696 -0.1774
37223SOL    HW223394  10.545  11.059   6.558  0.9472  0.6658  0.5227
37224SOL     OW23395   6.426   3.317   0.786 -0.2705 -0.1030 -0.4929
37224SOL    HW123396   6.489   3.285   0.722  0.6428  0.1166  0.2694
37224SOL    HW223397   6.436   3.258   0.861 -0.7791  0.1046 -0.2559
37225SOL     OW23398  10.569   7.880   8.286 -0.3293 -0.9664 -0.0622
37225SOL    HW123399  10.542   7.970   8.303 -3.1811 -1.8628  0.8028
37225SOL    HW223400  10.552   7.866   8.193  0.8657 -0.4019 -0.3726
37226SOL     OW23401   8.555   2.596  10.043 -0.0571  0.1206  0.2504
37226SOL    HW123402   8.631   2.647  10.014 -0.8501  1.2552  0.1301
37226SOL    HW223403   8.490   2.608   9.975 -0.3298 -0.9119  0.3176
37227SOL     OW23404   4.356   5.666   8.782 -0.2638  0.2531  0.5933
37227SOL    HW123405   4.447   5.696   8.791 -0.1915 -0.2740  1.9002
37227SOL    HW223406   4.341   5.660   8.688  0.7189  1.3558  0.3531
37228SOL     OW23407   0.996   1.254  10.509  0.1001  0.6552  0.2100
37228SOL    HW123408   0.913   1.293  10.482 -0.7060 -0.2816  1.2085
37228SOL    HW223409   1.037   1.320  10.564  0.9242  1.8643 -1.7717
37229SOL     OW23410   8.618   6.000   6.308 -0.2904  0.3029  0.4231
37229SOL    HW123411   8.533   5.974   6.344  0.2827  1.5584  2.9682
37229SOL    HW223412   8.653   6.063   6.372  2.8247 -0.6043 -0.1949
37230SOL     OW23413   2.721   9.445   0.243 -0.0544 -0.1606 -0.4201
37230SOL    HW123414   2.700   9.352   0.230  1.4365 -0.6149  0.1862
37230SOL    HW223415   2.763   9.472   0.161 -0.9581  0.1381 -0.7952
37231SOL     OW23416   8.565   2.220   9.891 -0.2068  0.1480 -0.3372
37231SOL    HW123417   8.498   2.281   9.922 -0.5788  0.1472 -1.1188
37231SOL    HW223418   8.604   2.185   9.971 -0.2329  1.1371  0.1222
37232SOL     OW23419   6.530   6.065   6.650 -0.0015 -0.1818  0.0167
37232SOL    HW123420   6.463   6.119   6.607 -0.2883 -0.9549 -0.5313
37232SOL    HW223421   6.487   6.032   6.729 -0.2869 -0.6878 -0.3414
37233SOL     OW23422   3.309   4.599  11.094  0.4610  0.5587 -0.0991
37233SOL    HW123423   3.232   4.617  11.041 -0.5182 -0.1416  1.0046
37233SOL    HW223424   3.330   4.507  11.075  0.9535  0.7088 -0.2983
37234SOL     OW23425   0.546   6.719   4.106  0.2587 -0.6425 -0.3415
37234SOL    HW123426   0.510   6.701   4.018  1.6911 -1.0957 -0.8589
37234SOL    HW223427   0.536   6.636   4.153  1.5495 -1.1075 -0.8373
37235SOL     OW23428   2.306   7.335   2.573 -0.2765  0.1978  0.0752
37235SOL    HW123429   2.353   7.327   2.655 -0.3505 -0.8090  0.0393
37235SOL    HW223430   2.350   7.405   2.526 -0.3460  0.9007  1.0384
37236SOL     OW23431   6.406   1.964   6.282 -0.0910 -0.2467 -0.2508
37236SOL    HW123432   6.401   2.033   6.217  0.8515  1.5165  1.4436
37236SOL    HW223433   6.315   1.950   6.310 -0.4006 -0.4452 -1.3267
37237SOL     OW23434   2.239   8.704  10.054 -0.0495 -0.6032 -0.0918
37237SOL    HW123435   2.256   8.732   9.964  0.2887 -3.0132 -0.8597
37237SOL    HW223436   2.157   8.654  10.048 -0.4325 -0.1445  1.0973
37238SOL     OW23437   6.094   8.704   0.094  0.7192 -0.5418  0.0339
37238SOL    HW123438   6.180   8.696   0.135  1.6584  1.3080 -1.4148
37238SOL    HW223439   6.032   8.675   0.162  2.3592 -0.2596  1.7338
37239SOL     OW23440   2.900   0.690   1.529 -0.5459 -0.1611 -0.1411
37239SOL    HW123441   2.883   0.674   1.437  0.4000  0.4382 -0.4289
37239SOL    HW223442   2.926   0.782   1.534  0.9159 -0.5692  0.4914
37240SOL     OW23443  10.124   2.949   8.654  0.4772  0.0777 -0.3460
37240SOL    HW123444  10.198   2.925   8.710 -0.3820 -2.0795 -0.0098
37240SOL    HW223445  10.153   2.925   8.566  0.8873  1.1107 -0.5084
37241SOL     OW23446   8.986   5.211   3.284  0.2633  0.2946  0.2339
37241SOL    HW123447   9.078   5.192   3.304  0.6834  0.2117 -1.5566
37241SOL    HW223448   8.985   5.305   3.267 -0.0782  0.3748  0.6938
37242SOL     OW23449   9.370   7.414   8.074  0.8680 -0.1356  0.9745
37242SOL    HW123450   9.295   7.380   8.123  1.0366 -0.5456  0.9559
37242SOL    HW223451   9.436   7.344   8.080  1.5668  0.5784  1.7131
37243SOL     OW23452  11.753   8.927   8.945 -0.1821  0.8032 -0.0767
37243SOL    HW123453  11.691   8.935   9.018 -0.3544 -0.6820 -0.0291
37243SOL    HW223454  11.813   8.859   8.972 -0.8562 -0.5029 -1.7220
37244SOL     OW23455   4.829   5.361   0.117 -0.0191  0.4533  0.1168
37244SOL    HW123456   4.739   5.391   0.103  0.2316  0.8439 -0.7705
37244SOL    HW223457   4.871   5.432   0.166  0.2704  1.1077 -1.0208
37245SOL     OW23458   3.892   0.113   0.486  0.0417  0.4774 -0.2944
37245SOL    HW123459   3.884   0.207   0.501 -0.1804  0.4049  0.0411
37245SOL    HW223460   3.987   0.097   0.484  0.0797  0.7115 -0.3798
37246SOL     OW23461   8.986   6.648  11.039 -0.1216 -0.2896  0.3058
37246SOL    HW123462   8.985   6.681  11.129  1.0437 -0.1405  0.2735
37246SOL    HW223463   8.998   6.554  11.049  0.7330 -0.1878  0.2978
37247SOL     OW23464   8.058   8.189   4.112  0.0672 -0.2890  0.5447
37247SOL    HW123465   7.994   8.120   4.131  1.1042 -1.0003  1.6230
37247SOL    HW223466   8.046   8.254   4.181  0.4526 -0.4028  0.7260
37248SOL     OW23467   7.930   6.131   7.080 -0.1280  0.6265  0.0892
37248SOL    HW123468   7.890   6.155   7.163  0.2162  0.5882  0.2669
37248SOL    HW223469   7.860   6.141   7.015 -1.0491 -1.4539  0.6844
37249SOL     OW23470   7.691   0.086   2.121 -0.6279  0.0680 -0.1164
37249SOL    HW123471   7.782   0.065   2.145 -0.8966 -0.0518  0.8354
37249SOL    HW223472   7.669   0.161   2.176 -1.1506  0.0211 -0.2603
37250SOL     OW23473  10.340  10.369   9.722 -0.6538  0.6365 -0.2688
37250SOL    HW123474  10.364  10.368   9.815  1.5838  2.7061 -0.7369
37250SOL    HW223475  10.419  10.343   9.676 -0.8485  2.4209 -1.7086
37251SOL     OW23476   6.817   0.275   2.547  0.1387  0.1110  0.1098
37251SOL    HW123477   6.903   0.242   2.573  0.2364  0.3137  0.0459
37251SOL    HW223478   6.835   0.337   2.476  0.0779  1.2526  1.0674
37252SOL     OW23479   5.882   2.397   7.438 -0.2082 -0.1867 -0.0991
37252SOL    HW123480   5.935   2.352   7.504 -2.2209 -2.5497  0.0951
37252SOL    HW223481   5.857   2.480   7.479  0.4815 -0.5864  1.1764
37253SOL     OW23482   6.393   5.734   1.279  0.5523 -0.2257  0.1379
37253SOL    HW123483   6.311   5.711   1.236  0.5142  0.4576 -0.1640
37253SOL    HW223484   6.431   5.803   1.225  1.0888 -0.1931  0.5415
37254SOL     OW23485   8.344   3.047  11.728 -0.2690 -0.2891  0.8949
37254SOL    HW123486   8.357   3.007  11.642 -2.4335 -1.3606  0.9883
37254SOL    HW223487   8.339   3.141  11.711  1.8105 -0.2568  0.2289
37255SOL     OW23488  10.042   6.441   3.974  0.0427  0.2042  0.0144
37255SOL    HW123489  10.070   6.530   3.952  1.0337  0.0650  0.6781
37255SOL    HW223490  10.101   6.384   3.924  1.1603 -0.0983  1.6396
37256SOL     OW23491   2.043   7.608   7.559  0.0695 -0.4585 -0.2517
37256SOL    HW123492   2.104   7.566   7.499  0.8243  0.3989 -0.1120
37256SOL    HW223493   2.091   7.617   7.641 -1.4740 -3.1022  1.0832
37257SOL     OW23494   9.122   2.373   0.438 -0.3583  0.0064 -0.2433
37257SOL    HW123495   9.091   2.284   0.454  0.1114 -0.3894 -1.4189
37257SOL    HW223496   9.092   2.393   0.349 -1.9562  1.6869  0.6047
37258SOL     OW23497   8.731   6.342   3.300  0.4488 -0.0809  0.6634
37258SOL    HW123498   8.641   6.329   3.330  0.5555  0.5708  1.2884
37258SOL    HW223499   8.734   6.301   3.214 -0.0877 -1.2749  1.1922
37259SOL     OW23500   3.531   2.090   0.720 -0.4650 -0.2043 -0.0818
37259SOL    HW123501   3.535   2.041   0.802 -0.5077  0.4758  0.3321
37259SOL    HW223502   3.604   2.151   0.725  1.1652 -1.9179 -1.7134
37260SOL     OW23503   2.976   8.188  10.911  0.3453  0.5146 -0.0319
37260SOL    HW123504   3.011   8.259  10.857 -0.3221  0.5443 -0.4363
37260SOL    HW223505   3.004   8.210  11.000 -1.6114  2.4807  0.2012
37261SOL     OW23506   0.628   1.636   8.972  0.5228  0.3812  0.8893
37261SOL    HW123507   0.707   1.623   9.024  0.9846  0.1382  0.1423
37261SOL    HW223508   0.660   1.669   8.888 -0.0928 -0.5253  0.2796
37262SOL     OW23509   4.311   5.977   9.212  0.4743  0.7209 -0.1574
37262SOL    HW123510   4.347   5.932   9.136 -1.8007 -2.9578  0.6824
37262SOL    HW223511   4.373   5.960   9.282  0.9336  1.2816 -0.4150
37263SOL     OW23512   6.203   2.377   5.188  0.1491  0.5599 -0.3204
37263SOL    HW123513   6.276   2.353   5.130 -0.2094  0.1998 -0.6295
37263SOL    HW223514   6.130   2.322   5.159  0.1211 -0.0435  0.8609
37264SOL     OW23515  10.270   7.811   6.840  0.0532 -0.0134 -0.1165
37264SOL    HW123516  10.185   7.799   6.882 -0.3989 -1.6575 -1.3910
37264SOL    HW223517  10.325   7.848   6.908 -0.9157 -1.5676  1.6105
37265SOL     OW23518   3.295   0.559   7.491  0.6205 -0.2071  0.2661
37265SOL    HW123519   3.232   0.593   7.554 -0.9283  1.4360 -1.9833
37265SOL    HW223520   3.328   0.637   7.447  2.0232 -1.2508 -0.6076
37266SOL     OW23521   5.563   1.655  10.594  0.2253 -0.1023 -0.4614
37266SOL    HW123522   5.652   1.665  10.561  0.2899  0.1153 -0.2224
37266SOL    HW223523   5.518   1.736  10.568 -0.3395 -0.8480 -1.9313
37267SOL     OW23524   1.131   7.136   4.304 -0.1880 -0.5933  0.0611
37267SOL    HW123525   1.192   7.107   4.372  0.8575 -1.9694 -1.3902
37267SOL    HW223526   1.183   7.140   4.224 -1.3396  1.1741 -0.6715
37268SOL     OW23527   7.120   8.916   8.871 -0.0764 -0.5601 -0.3647
37268SOL    HW123528   7.070   8.950   8.797 -0.3146 -0.5948 -0.2183
37268SOL    HW223529   7.077   8.952   8.948  0.3116 -0.3345 -0.2486
37269SOL     OW23530   4.891  11.518   6.719  0.3662  0.3107  0.1889
37269SOL    HW123531   4.813  11.465   6.735  0.7365 -0.0807  0.7720
37269SOL    HW223532   4.943  11.466   6.658 -1.0797  1.8372 -2.5302
37270SOL     OW23533   4.083   2.394   2.719  0.2316  0.5045  0.0069
37270SOL    HW123534   3.991   2.407   2.742 -0.1969  0.9940 -1.8821
37270SOL    HW223535   4.081   2.342   2.639  1.6507 -0.5907  0.6458
37271SOL     OW23536  11.792   1.534   1.399 -0.0347 -0.2404  0.1333
37271SOL    HW123537  11.710   1.581   1.387 -0.0975 -0.0631  1.1161
37271SOL    HW223538  11.766   1.442   1.405  0.2420 -0.6884 -3.4336
37272SOL     OW23539  11.768   2.003   5.429  0.3847 -0.1178  0.0249
37272SOL    HW123540  11.849   1.954   5.416  0.1983 -0.7744  1.1609
37272SOL    HW223541  11.787   2.090   5.395  0.9339 -0.7813 -1.4577
37273SOL     OW23542   0.188   2.814   9.537  0.0127 -0.3113  0.1357
37273SOL    HW123543   0.127   2.765   9.592  0.9980 -0.5864  1.0325
37273SOL    HW223544   0.210   2.892   9.588  0.3267 -0.1701 -0.2061
37274SOL     OW23545   7.410   7.434   0.152 -0.0993 -0.0289 -0.1185
37274SOL    HW123546   7.382   7.397   0.236  0.1853 -0.3017 -0.1414
37274SOL    HW223547   7.480   7.376   0.122 -1.7590 -1.3607 -1.6954
37275SOL     OW23548   4.899   3.144   4.930  0.0226  0.2769  0.5669
37275SOL    HW123549   4.907   3.117   4.838  0.3790 -0.5716  0.8370
37275SOL    HW223550   4.970   3.206   4.942  0.0201  0.3373  0.2841
37276SOL     OW23551   3.511   0.619   4.088 -0.4206 -0.2783  0.4289
37276SOL    HW123552   3.538   0.710   4.079 -0.6382 -0.3324 -1.0244
37276SOL    HW223553   3.459   0.601   4.010  1.5076 -2.3139 -0.5291
37277SOL     OW23554   3.811   4.692   1.527 -0.5615  0.2135  0.1038
37277SOL    HW123555   3.852   4.731   1.604 -1.6281  0.1659  0.7145
37277SOL    HW223556   3.875   4.627   1.496  0.2284  0.8142  0.4488
37278SOL     OW23557   7.154   2.444  11.671  0.5525  0.3184  0.2698
37278SOL    HW123558   7.244   2.458  11.703  1.2802  0.2965 -1.6556
37278SOL    HW223559   7.155   2.356  11.635  0.5687  1.2663 -2.2028
37279SOL     OW23560   0.241   1.230   0.977  0.8068  0.1354 -0.4341
37279SOL    HW123561   0.311   1.236   1.041  0.9401  0.3524 -0.6006
37279SOL    HW223562   0.286   1.229   0.892  0.5679  1.1666 -0.5809
37280SOL     OW23563   6.314   9.127   1.094  0.0082  0.1632 -0.1375
37280SOL    HW123564   6.379   9.106   1.161 -0.4237 -0.0185  0.2256
37280SOL    HW223565   6.360   9.111   1.011  0.7826  1.1117  0.0881
37281SOL     OW23566   7.697   1.657  10.646  0.5899 -0.3233 -0.0846
37281SOL    HW123567   7.768   1.613  10.693 -0.4017 -1.7683  0.1197
37281SOL    HW223568   7.634   1.587  10.627 -0.2286  0.7069 -1.3055
37282SOL     OW23569   2.233  11.807   9.717 -0.5231 -0.9427  0.0658
37282SOL    HW123570   2.246  11.901   9.725 -0.1267 -1.1404  2.8514
37282SOL    HW223571   2.142  11.797   9.687 -0.5274  0.3053 -0.3562
37283SOL     OW23572   5.242   5.400   9.991  0.1244 -0.4939 -0.1510
37283SOL    HW123573   5.163   5.403  10.045  0.1316  2.6097 -0.1585
37283SOL    HW223574   5.314   5.404  10.054  0.1718  0.7920 -0.2681
37284SOL     OW23575   5.065   0.497   3.753 -0.1681 -0.0813 -0.7566
37284SOL    HW123576   5.152   0.527   3.728 -0.4265 -0.4556 -2.1913
37284SOL    HW223577   5.048   0.538   3.838  2.2136 -1.5733  0.5584
37285SOL     OW23578   5.422  11.621   3.871 -0.8949 -0.4073  0.0265
37285SOL    HW123579   5.348  11.681   3.878 -0.4710  0.0902  0.2810
37285SOL    HW223580   5.495  11.667   3.913 -1.1427 -2.0952  2.4909
37286SOL     OW23581   5.851   1.488   7.872 -0.4858 -0.1101  0.3943
37286SOL    HW123582   5.929   1.533   7.839 -1.0884 -0.3259 -1.4237
37286SOL    HW223583   5.845   1.515   7.963  1.1313  0.7268  0.2923
37287SOL     OW23584   4.272  10.891  11.233  0.0900 -0.2248 -0.6297
37287SOL    HW123585   4.368  10.886  11.236  0.0997 -0.5412 -1.2928
37287SOL    HW223586   4.245  10.871  11.323  0.5687 -2.7737 -0.9593
37288SOL     OW23587   7.835   0.376   6.459 -0.3368 -0.2434  0.2056
37288SOL    HW123588   7.919   0.349   6.423 -0.5370 -2.5841  1.3161
37288SOL    HW223589   7.791   0.419   6.385  1.7059  0.8833 -0.4412
37289SOL     OW23590   1.377   7.943   8.798 -0.1580  0.0753  0.2795
37289SOL    HW123591   1.299   7.941   8.853  0.5144  2.0414  1.3696
37289SOL    HW223592   1.449   7.923   8.858  0.4221  0.7040 -0.1954
37290SOL     OW23593   3.305   8.130   9.343 -0.4211 -0.0736  0.0098
37290SOL    HW123594   3.246   8.203   9.326  0.9138  1.1736  0.4841
37290SOL    HW223595   3.392   8.164   9.320 -0.0309 -2.5913 -3.0158
37291SOL     OW23596   0.282   9.986   6.790  0.7373  0.0479 -0.8866
37291SOL    HW123597   0.332  10.064   6.814  0.9744  0.2465 -2.0118
37291SOL    HW223598   0.319   9.958   6.707  2.7170 -3.0247  0.8509
37292SOL     OW23599   3.251   9.803   0.381  0.1283 -0.9305 -0.3519
37292SOL    HW123600   3.285   9.753   0.456  1.3559  1.1315  0.5618
37292SOL    HW223601   3.306   9.776   0.308  0.7650 -0.9680  0.1255
37293SOL     OW23602   3.191  10.291   6.432 -0.5126  0.5007 -0.5169
37293SOL    HW123603   3.224  10.343   6.505  0.7314 -1.1934  0.2001
37293SOL    HW223604   3.113  10.338   6.403 -0.7784  1.4923  1.5899
37294SOL     OW23605   6.337   2.811  10.437  0.3259  0.4256 -0.0497
37294SOL    HW123606   6.341   2.724  10.476  1.3991 -0.3295 -1.7434
37294SOL    HW223607   6.244   2.829  10.429  0.0912 -0.3352  0.7989
37295SOL     OW23608  10.289   8.929   1.622  0.2935 -0.4894 -0.4741
37295SOL    HW123609  10.211   8.905   1.671  0.7961  0.8764  1.0997
37295SOL    HW223610  10.283   8.878   1.541 -1.7097 -1.1430  0.0176
37296SOL     OW23611   2.048   5.797  10.818 -0.3825 -0.7483  0.3416
37296SOL    HW123612   1.967   5.849  10.815  0.4149  0.5040 -1.3952
37296SOL    HW223613   2.026   5.717  10.770 -0.8460 -0.8164  0.6601
37297SOL     OW23614   4.662   2.428   2.974 -0.4136  0.1667 -0.0843
37297SOL    HW123615   4.699   2.376   2.902 -0.5793  0.7066 -0.5591
37297SOL    HW223616   4.735   2.438   3.035 -0.4168 -0.7528  0.0902
37298SOL     OW23617   3.544   5.005   8.539  0.2637  0.1677  0.3329
37298SOL    HW123618   3.604   4.946   8.495 -0.0585 -1.0497  1.4395
37298SOL    HW223619   3.600   5.070   8.581  0.7815 -0.6112  0.8639
37299SOL     OW23620   2.202   4.589   2.041 -0.1982  0.0321 -0.4840
37299SOL    HW123621   2.222   4.683   2.044  0.4335 -0.0196 -2.2120
37299SOL    HW223622   2.108   4.585   2.025 -0.1573  0.3706 -0.8233
37300SOL     OW23623   9.510   0.060   5.834 -0.5018 -0.5949 -0.6384
37300SOL    HW123624   9.536   0.096   5.749 -2.1084 -0.2600 -1.0334
37300SOL    HW223625   9.416   0.077   5.839 -0.3946 -0.3285  1.3541
37301SOL     OW23626   1.101   2.178  10.914  0.2086 -0.3032 -0.1973
37301SOL    HW123627   1.109   2.088  10.945  0.3448 -0.5040 -0.7958
37301SOL    HW223628   1.098   2.170  10.819  3.6724  0.5144 -0.5288
37302SOL     OW23629  10.568   9.728   6.350 -0.2406  0.5192  0.0658
37302SOL    HW123630  10.627   9.771   6.288 -1.5860  1.1876 -0.7926
37302SOL    HW223631  10.623   9.662   6.393  0.8314  0.2636 -1.5776
37303SOL     OW23632   8.822   1.291   4.778 -0.0475  0.1608  1.0637
37303SOL    HW123633   8.787   1.226   4.839  0.4568 -1.7287 -0.5566
37303SOL    HW223634   8.767   1.283   4.700  2.8630 -1.8981 -1.0234
37304SOL     OW23635   5.730   2.017   5.226  0.1325 -0.4764  0.0690
37304SOL    HW123636   5.672   2.093   5.231  0.0408 -0.6232  1.8065
37304SOL    HW223637   5.751   1.997   5.317  2.2402 -0.9589 -0.4669
37305SOL     OW23638   9.650   6.984   6.931  0.3372  0.8879 -0.4567
37305SOL    HW123639   9.627   6.998   7.023  1.4847  0.8647 -0.1525
37305SOL    HW223640   9.702   6.904   6.932  0.9400  1.2662 -1.0237
37306SOL     OW23641   7.684   5.332   3.605  0.9794 -0.6686 -0.5135
37306SOL    HW123642   7.701   5.426   3.611  1.4696 -0.8186  1.3751
37306SOL    HW223643   7.720   5.297   3.687 -1.5354 -2.1307  0.0644
37307SOL     OW23644  11.315   6.485  10.236  0.0244  0.3633 -0.3283
37307SOL    HW123645  11.373   6.518  10.167  1.5862  1.2945  1.3222
37307SOL    HW223646  11.261   6.560  10.260  1.2236  0.8483  1.0890
37308SOL     OW23647   1.571   5.998   1.453  0.2860  0.2789 -0.0563
37308SOL    HW123648   1.570   5.902   1.455  0.4063  0.2398 -1.1819
37308SOL    HW223649   1.631   6.020   1.382  0.0912  1.1916  0.0510
37309SOL     OW23650   4.797  11.500   7.525  0.3854  0.6671 -0.0301
37309SOL    HW123651   4.877  11.522   7.478 -0.1771 -0.2596 -1.4992
37309SOL    HW223652   4.762  11.585   7.553  0.9538  1.2254 -0.9445
37310SOL     OW23653   9.292  10.275   5.890 -0.0107 -0.3786  0.0671
37310SOL    HW123654   9.222  10.324   5.847  1.2835  1.4202 -0.1091
37310SOL    HW223655   9.322  10.333   5.960  1.0415 -1.2796  0.3862
37311SOL     OW23656   5.303   5.583   4.224 -0.0383 -0.0298 -0.3045
37311SOL    HW123657   5.220   5.553   4.190 -1.0406  0.7362  1.3162
37311SOL    HW223658   5.332   5.651   4.163 -0.3854 -0.6003 -1.1061
37312SOL     OW23659   6.046   4.278   6.170 -0.5100 -0.5677  0.4998
37312SOL    HW123660   5.970   4.312   6.124  0.0315  0.0055  0.0010
37312SOL    HW223661   6.112   4.265   6.101  0.4099  0.5753  1.1256
37313SOL     OW23662   4.856  11.250   6.162  0.2178 -0.5790 -0.7684
37313SOL    HW123663   4.945  11.244   6.198  0.6556 -0.3883 -1.7829
37313SOL    HW223664   4.855  11.334   6.116 -0.8750 -0.0279  0.2026
37314SOL     OW23665  10.215   6.159   6.134 -0.2396 -0.1802 -0.4007
37314SOL    HW123666  10.160   6.156   6.212 -0.0079 -0.6829 -0.2515
37314SOL    HW223667  10.234   6.067   6.114 -0.1962 -0.0493 -0.9776
37315SOL     OW23668  10.959  11.304   8.308  0.0952 -0.3847 -0.4020
37315SOL    HW123669  10.983  11.358   8.233  0.4150  1.0778  0.7041
37315SOL    HW223670  11.000  11.347   8.383 -1.6616 -0.7749  0.8606
37316SOL     OW23671   0.265   2.065  10.564  0.0935  0.4596  0.5210
37316SOL    HW123672   0.298   2.070  10.474 -1.3743  1.5839  0.0002
37316SOL    HW223673   0.247   2.156  10.587  0.2195  0.1493  1.8734
37317SOL     OW23674  10.002   9.781   4.809  0.2193 -0.2912  0.4572
37317SOL    HW123675   9.923   9.829   4.833 -0.2055 -0.0192 -1.3369
37317SOL    HW223676  10.033   9.825   4.730  3.8222  1.4625  2.5514
37318SOL     OW23677   3.798   3.431   0.808 -0.0837 -0.1544 -0.3548
37318SOL    HW123678   3.811   3.466   0.896 -0.4947  1.2336 -0.8184
37318SOL    HW223679   3.732   3.362   0.819 -2.5836  2.1196  0.0453
37319SOL     OW23680   6.310   8.919   8.218 -0.2871 -0.0081 -0.2765
37319SOL    HW123681   6.292   8.831   8.251  1.5337  0.4516  2.2475
37319SOL    HW223682   6.377   8.906   8.151  0.8438 -0.5110  0.9004
37320SOL     OW23683   8.245  11.271  11.537  0.9404  0.2382 -1.0387
37320SOL    HW123684   8.243  11.349  11.593  1.2397  0.4445 -1.3098
37320SOL    HW223685   8.248  11.198  11.599  3.5783  0.5034 -0.7059
37321SOL     OW23686   8.717   5.055   7.355  0.0684 -0.1293  0.6615
37321SOL    HW123687   8.643   5.014   7.400  0.9402 -1.5738  0.8612
37321SOL    HW223688   8.689   5.145   7.339 -2.5959 -1.1479 -1.2002
37322SOL     OW23689   9.799   4.831   8.488 -0.1808 -0.1050 -0.0634
37322SOL    HW123690   9.757   4.754   8.527 -1.2284  0.8272  0.7014
37322SOL    HW223691   9.889   4.829   8.523 -0.0676 -1.1896 -0.3728
37323SOL     OW23692   4.784   6.964   9.321 -0.7036 -0.0115 -0.8799
37323SOL    HW123693   4.754   7.045   9.280 -1.1999  0.2136 -0.0949
37323SOL    HW223694   4.838   6.993   9.395 -0.5506 -0.4040 -0.8309
37324SOL     OW23695   1.528   9.968   9.150  0.0516 -0.1274  0.0252
37324SOL    HW123696   1.583   9.991   9.224  0.6895  0.7778 -0.7034
37324SOL    HW223697   1.584   9.914   9.094 -0.1288 -0.0623 -0.2205
37325SOL     OW23698   9.806   6.269  11.401  0.0558  0.3605  0.4507
37325SOL    HW123699   9.760   6.196  11.359 -0.5874 -0.6943  2.8032
37325SOL    HW223700   9.740   6.338  11.408 -0.4559 -0.1986  1.4511
37326SOL     OW23701   0.661   7.486   4.740  0.0898 -0.4719  0.2399
37326SOL    HW123702   0.583   7.483   4.684  0.4213 -0.6734 -0.2183
37326SOL    HW223703   0.640   7.430   4.814  0.2540 -1.5234 -0.4826
37327SOL     OW23704   4.905  10.068   2.467 -0.5535 -0.1288  0.0420
37327SOL    HW123705   4.820  10.026   2.483 -0.0579 -0.6040  1.5213
37327SOL    HW223706   4.966   9.995   2.456  0.1944  0.1440  1.9912
37328SOL     OW23707   7.029   9.731   8.192 -0.8084  0.2692 -0.2915
37328SOL    HW123708   7.054   9.789   8.120 -0.0468 -0.8523 -0.9498
37328SOL    HW223709   7.106   9.728   8.248 -0.9533  0.1339 -0.0995
37329SOL     OW23710  11.058   0.792  10.378 -0.2144  0.0210  0.0109
37329SOL    HW123711  11.087   0.856  10.312  0.2376 -0.1816  0.0108
37329SOL    HW223712  11.033   0.715  10.327  2.4268 -1.0424  0.1729
37330SOL     OW23713   4.936  10.629   9.163 -0.5979 -0.3628 -0.7058
37330SOL    HW123714   4.903  10.629   9.253  0.2122  0.7590 -0.3793
37330SOL    HW223715   4.898  10.709   9.125  0.8409  0.3805 -0.6442
37331SOL     OW23716   4.351   2.013   8.605 -0.0183  0.6556 -0.0168
37331SOL    HW123717   4.414   2.060   8.661  2.2220  0.0909 -1.8790
37331SOL    HW223718   4.303   2.083   8.561  2.0512  1.2896 -1.4295
37332SOL     OW23719   2.920  11.462   2.216 -0.3292 -0.2141  0.3816
37332SOL    HW123720   2.876  11.502   2.141 -1.3512 -0.8461  0.6341
37332SOL    HW223721   2.851  11.450   2.281  0.7216  1.3023  1.8667
37333SOL     OW23722   0.241  11.035   6.179  0.1358  0.5489  0.3496
37333SOL    HW123723   0.150  11.009   6.168  0.4126 -0.5544  0.4878
37333SOL    HW223724   0.287  10.953   6.200  1.2144  1.0238 -0.0693
37334SOL     OW23725   6.276   7.313   3.683  0.4422 -0.3416  1.0238
37334SOL    HW123726   6.292   7.373   3.756 -1.6986  0.9302  0.5616
37334SOL    HW223727   6.238   7.235   3.723 -1.4092  0.6360  1.2869
37335SOL     OW23728   6.004  10.016   6.319  0.5071 -0.3642 -0.2654
37335SOL    HW123729   6.049  10.079   6.375  2.9386 -3.1023  1.1432
37335SOL    HW223730   6.046  10.027   6.233  0.9289 -0.0498 -0.0268
37336SOL     OW23731   1.676   9.093   1.495  0.3533  0.1445  0.1127
37336SOL    HW123732   1.644   9.174   1.536  0.4136 -0.3908  1.2575
37336SOL    HW223733   1.676   9.029   1.566  2.4387 -0.3031 -0.2345
37337SOL     OW23734   7.741  11.153   6.051 -0.4683 -0.1041  0.7865
37337SOL    HW123735   7.757  11.247   6.050 -0.6926 -0.0539  1.3644
37337SOL    HW223736   7.824  11.113   6.025 -0.3960  0.2550  0.4702
37338SOL     OW23737   4.160  10.530   0.397 -0.4291 -0.4189  0.3082
37338SOL    HW123738   4.095  10.588   0.435 -0.1624  0.5765 -0.6980
37338SOL    HW223739   4.238  10.542   0.450 -0.1056  0.8351 -0.4255
37339SOL     OW23740   4.076  10.706   4.133  0.0589  0.0364 -0.3749
37339SOL    HW123741   4.075  10.718   4.228 -1.2020  0.2459 -0.3983
37339SOL    HW223742   4.131  10.628   4.120  1.0390  0.5643  0.4377
37340SOL     OW23743  10.156   2.003   7.489 -0.4861  1.0276 -0.0958
37340SOL    HW123744  10.199   1.956   7.560 -2.0781  1.2003  1.0139
37340SOL    HW223745  10.185   2.094   7.498  0.6601  0.7490 -0.7502
37341SOL     OW23746   9.361  10.609  11.432  0.1523  0.3856 -0.3891
37341SOL    HW123747   9.370  10.559  11.513 -1.7873 -0.5923 -0.7391
37341SOL    HW223748   9.402  10.693  11.452 -0.5633  0.2927  1.7308
37342SOL     OW23749   3.920   0.939  10.821  0.7899 -0.7297  0.2057
37342SOL    HW123750   3.979   0.996  10.870 -3.2707  2.2841  2.2001
37342SOL    HW223751   3.917   0.858  10.871  1.0456  0.1599  1.7100
37343SOL     OW23752   9.796   5.222   8.889  0.3455 -0.5782 -0.3736
37343SOL    HW123753   9.755   5.136   8.895  0.4843 -0.6075  0.3326
37343SOL    HW223754   9.812   5.235   8.796 -1.6289 -0.3829 -0.7316
37344SOL     OW23755   1.483   7.913   9.118  0.6767 -0.3472 -0.3610
37344SOL    HW123756   1.527   7.835   9.086 -1.3192 -1.5773 -0.3386
37344SOL    HW223757   1.406   7.879   9.164 -0.8306  1.6435 -1.2445
37345SOL     OW23758   9.488   0.757  10.878 -0.0132 -0.4451 -0.1169
37345SOL    HW123759   9.405   0.795  10.852 -0.9241 -2.2968 -0.0819
37345SOL    HW223760   9.529   0.823  10.934 -1.0727  0.8219 -0.8116
37346SOL     OW23761   6.442   3.864  11.044 -0.1397 -0.3128  0.9623
37346SOL    HW123762   6.393   3.924  11.100  0.6091 -0.0882  1.3886
37346SOL    HW223763   6.386   3.852  10.967 -0.5528  0.4785  1.1267
37347SOL     OW23764   0.678   5.868   3.394  0.1962 -0.1148 -0.2067
37347SOL    HW123765   0.619   5.822   3.454 -1.0170  0.2768 -1.0612
37347SOL    HW223766   0.754   5.810   3.386  1.5292  0.8186  3.4926
37348SOL     OW23767   2.860   6.023   3.240  0.0091 -0.3985  0.1695
37348SOL    HW123768   2.954   6.040   3.248 -0.2446  0.3701  2.2119
37348SOL    HW223769   2.825   6.102   3.200  0.3429 -1.1529 -1.6931
37349SOL     OW23770   9.866  11.689   8.371  0.4070  0.2595  0.0109
37349SOL    HW123771   9.885  11.761   8.311 -0.7588  0.5042 -0.0988
37349SOL    HW223772   9.827  11.621   8.316  1.0406 -0.2699  0.1988
37350SOL     OW23773   6.806   1.403   8.140 -0.1093 -0.5080  0.1441
37350SOL    HW123774   6.775   1.453   8.215  2.3009  0.7321  0.3951
37350SOL    HW223775   6.878   1.350   8.174 -1.5635 -3.0540 -0.4758
37351SOL     OW23776   3.742   4.611   3.219 -0.7593 -0.8240 -0.2919
37351SOL    HW123777   3.694   4.685   3.257  0.1179  0.3676 -1.4103
37351SOL    HW223778   3.834   4.631   3.236 -0.4791 -1.4143 -1.0709
37352SOL     OW23779   0.010  11.752   4.252 -0.1182  0.2850  0.1737
37352SOL    HW123780   0.019  11.704   4.170 -0.2407 -0.9131  0.8289
37352SOL    HW223781   0.060  11.833   4.239 -0.0252  0.0438 -1.0188
37353SOL     OW23782  11.427   7.153   6.537  0.3627  0.9301 -0.1442
37353SOL    HW123783  11.384   7.220   6.591 -0.0495  0.5677 -0.0095
37353SOL    HW223784  11.393   7.168   6.449 -2.1356 -0.9741  0.3935
37354SOL     OW23785   1.051   1.507   5.813  0.1843 -0.1888 -0.4409
37354SOL    HW123786   0.982   1.554   5.861 -0.2052 -2.5844  1.5459
37354SOL    HW223787   1.117   1.488   5.879  0.8529 -1.3832 -1.4252
37355SOL     OW23788  10.455   6.606  10.908  0.3418  0.1954 -0.3979
37355SOL    HW123789  10.441   6.512  10.917  1.0760  0.0089 -1.0827
37355SOL    HW223790  10.379   6.637  10.859 -0.3598  0.1222  0.6208
37356SOL     OW23791   8.356  10.401   4.893 -0.0432  0.4121 -0.2416
37356SOL    HW123792   8.398  10.336   4.950 -1.0453  0.3105  0.4269
37356SOL    HW223793   8.331  10.352   4.815 -0.8741 -0.0608  0.2962
37357SOL     OW23794   2.539   3.813   3.609 -0.3526 -0.6844  0.1172
37357SOL    HW123795   2.605   3.819   3.678 -1.2688  0.2126  0.9359
37357SOL    HW223796   2.581   3.760   3.541  0.2909 -2.2709  1.6689
37358SOL     OW23797  10.743   5.784   3.566 -0.4568  0.7126 -0.2420
37358SOL    HW123798  10.745   5.796   3.660 -0.6389 -3.1244  0.4058
37358SOL    HW223799  10.826   5.742   3.545 -1.6156 -1.2353 -1.2189
37359SOL     OW23800   0.003   1.059   5.348  0.1604 -0.5215 -0.0296
37359SOL    HW123801  -0.018   1.062   5.254  0.0227  0.5767  0.0252
37359SOL    HW223802  -0.058   0.994   5.384 -3.4696  2.5714  0.1496
37360SOL     OW23803   2.152   4.190   5.638 -0.4059 -0.0363 -0.2983
37360SOL    HW123804   2.144   4.199   5.733  0.5482 -2.7290  0.1341
37360SOL    HW223805   2.064   4.165   5.609 -0.3381 -0.8060  0.1344
37361SOL     OW23806   7.838   3.180   5.918 -0.4598  0.1955  0.2063
37361SOL    HW123807   7.745   3.162   5.906 -0.1595 -0.4977 -1.1722
37361SOL    HW223808   7.847   3.273   5.896 -0.3292 -0.4732 -2.9797
37362SOL     OW23809   1.117   4.062   4.093  0.0441  0.4587 -0.0423
37362SOL    HW123810   1.140   4.123   4.022  0.8714 -0.6822 -0.7953
37362SOL    HW223811   1.183   3.993   4.087  0.2849  0.4717  2.0355
37363SOL     OW23812   8.193   6.648   8.246 -0.0279  0.4933  0.1243
37363SOL    HW123813   8.257   6.672   8.180  0.8117  0.3281  0.8674
37363SOL    HW223814   8.209   6.556   8.264 -1.0841  0.2044 -0.3463
37364SOL     OW23815   6.206   9.401   3.360  0.1125  0.7783 -0.3300
37364SOL    HW123816   6.116   9.432   3.350  0.2041  1.2207  0.1751
37364SOL    HW223817   6.254   9.444   3.289 -0.2821 -0.3616 -1.3292
37365SOL     OW23818   0.615   8.391   6.984 -0.1906 -0.7883 -0.4138
37365SOL    HW123819   0.691   8.449   6.978  0.0378 -0.8268  1.4370
37365SOL    HW223820   0.642   8.312   6.937  1.0912 -0.9363  0.5009
37366SOL     OW23821  11.244   9.808   5.752 -0.4730  0.5298 -0.1543
37366SOL    HW123822  11.237   9.810   5.847  1.0054  0.0247 -0.0066
37366SOL    HW223823  11.205   9.724   5.727  0.5419 -0.0608  0.1764
37367SOL     OW23824   4.010   7.901   8.928  0.3676  0.0508  0.0893
37367SOL    HW123825   4.011   7.821   8.876  2.2793 -0.0819  0.2726
37367SOL    HW223826   3.989   7.971   8.866 -1.3381 -0.5461 -0.0649
37368SOL     OW23827  10.625   2.022   0.984  0.3019 -0.3416 -0.0344
37368SOL    HW123828  10.654   1.968   0.911  1.1016  0.8109 -0.5909
37368SOL    HW223829  10.539   1.987   1.007 -0.2209 -0.3678 -1.9032
37369SOL     OW23830   2.795   2.708   3.083  0.0139  0.3389  0.2470
37369SOL    HW123831   2.862   2.775   3.079 -0.8321  1.1769 -0.3297
37369SOL    HW223832   2.767   2.695   2.992 -0.8139  0.2503  0.4990
37370SOL     OW23833   4.911   1.220   4.401 -0.4362 -0.4718 -0.2923
37370SOL    HW123834   4.914   1.190   4.492  0.1468 -1.6296 -0.6635
37370SOL    HW223835   4.839   1.171   4.362 -1.3186  0.7468 -0.2299
37371SOL     OW23836   6.086   9.087  10.807 -0.0747  0.5882  0.0714
37371SOL    HW123837   6.065   9.102  10.715 -0.9309  2.6682  0.5551
37371SOL    HW223838   6.001   9.067  10.847  0.4604 -1.6162  0.2400
37372SOL     OW23839   7.092   6.366   9.098 -0.5748  0.3880  0.4833
37372SOL    HW123840   7.139   6.317   9.165 -1.4173  0.1938  0.9519
37372SOL    HW223841   7.005   6.379   9.135 -2.1552 -2.4454 -1.8082
37373SOL     OW23842   4.658   0.797   8.028  0.2910  0.1484 -0.3541
37373SOL    HW123843   4.670   0.835   8.116  1.7160 -0.7932 -0.0976
37373SOL    HW223844   4.664   0.872   7.969 -1.0908  0.8539  0.3548
37374SOL     OW23845   4.492   8.708  10.070  0.3999 -0.2242 -0.4277
37374SOL    HW123846   4.442   8.786  10.095  0.7505  0.1297 -0.8269
37374SOL    HW223847   4.452   8.678   9.989  0.5250 -0.2290 -0.4875
37375SOL     OW23848   7.188   1.755   4.499  0.4455 -0.4578 -0.0608
37375SOL    HW123849   7.235   1.700   4.562  0.6196  0.4190  0.5989
37375SOL    HW223850   7.100   1.762   4.535 -0.0146 -1.5479 -0.9448
37376SOL     OW23851  10.102   9.227   0.658  0.0164 -0.3477 -0.4057
37376SOL    HW123852  10.191   9.248   0.629 -0.3497 -1.3429 -2.3910
37376SOL    HW223853  10.050   9.303   0.634 -0.1513 -0.8849 -1.8766
37377SOL     OW23854   9.544   0.924   7.370  0.3919  0.0710 -0.6283
37377SOL    HW123855   9.536   1.008   7.415 -1.4208 -0.1592 -0.4410
37377SOL    HW223856   9.620   0.935   7.312  0.3885  1.7147 -0.3781
37378SOL     OW23857   2.179   1.804   7.158 -0.0217  0.2469  0.5119
37378SOL    HW123858   2.094   1.827   7.198  0.0756  0.3742  0.6461
37378SOL    HW223859   2.215   1.737   7.217  0.0192  0.2695  0.5119
37379SOL     OW23860   8.283  11.632   9.764  0.1360 -0.1458  0.0335
37379SOL    HW123861   8.253  11.618   9.854 -1.0521  1.8945  0.0293
37379SOL    HW223862   8.204  11.622   9.711  0.6062 -0.2357 -0.6538
37380SOL     OW23863   6.550   7.043  11.353  0.3831  0.1162 -0.0831
37380SOL    HW123864   6.525   6.954  11.331  0.4246  0.1902 -0.4381
37380SOL    HW223865   6.614   7.034  11.423  1.0238 -0.1740 -0.6928
37381SOL     OW23866   1.147   2.334   5.525  0.0648 -0.5360 -0.3234
37381SOL    HW123867   1.082   2.367   5.463 -1.5748  0.3503  1.7128
37381SOL    HW223868   1.215   2.401   5.527 -1.4542  1.0754  1.0911
37382SOL     OW23869   0.395   0.310   5.357  0.1769 -0.0317  0.1463
37382SOL    HW123870   0.320   0.359   5.392 -1.8569 -0.9467 -2.5186
37382SOL    HW223871   0.384   0.222   5.392  0.8910  0.1902  0.9354
37383SOL     OW23872   3.385   4.712   8.460  0.6821 -0.3490 -0.4238
37383SOL    HW123873   3.412   4.701   8.551  0.0540 -0.1728 -0.2098
37383SOL    HW223874   3.325   4.639   8.444  1.6134 -1.0079 -1.0361
37384SOL     OW23875  10.505   0.579  10.448 -0.1426 -0.1608 -0.2507
37384SOL    HW123876  10.485   0.671  10.428  2.0337  0.6088  0.7060
37384SOL    HW223877  10.562   0.584  10.525  0.7095 -2.2706 -0.6826
37385SOL     OW23878   1.038   0.975  10.081 -0.0288  0.1726  0.1550
37385SOL    HW123879   0.993   0.892  10.100  0.3262 -0.2846 -0.9424
37385SOL    HW223880   1.059   1.011  10.167  0.5171 -1.2687  0.6548
37386SOL     OW23881   1.233   5.581   4.504  0.5491  0.6859  0.2577
37386SOL    HW123882   1.289   5.562   4.429 -0.0786  0.3889 -0.1405
37386SOL    HW223883   1.161   5.633   4.468 -0.3173 -0.3418  0.4333
37387SOL     OW23884  10.581   0.439  10.224 -0.4364 -0.4008 -0.0851
37387SOL    HW123885  10.561   0.527  10.192  1.9257  1.1683  2.3418
37387SOL    HW223886  10.552   0.440  10.316  1.5818 -1.3277  0.6252
37388SOL     OW23887   5.588   7.531   4.826  0.4328  0.1686 -0.0442
37388SOL    HW123888   5.507   7.566   4.863 -0.0783 -0.8941 -0.1307
37388SOL    HW223889   5.615   7.597   4.762 -1.5201 -0.3932 -1.5545
37389SOL     OW23890  11.581   5.147  10.789 -0.1973  0.1075  0.1643
37389SOL    HW123891  11.563   5.145  10.883 -0.2536 -0.3150  0.1443
37389SOL    HW223892  11.645   5.078  10.775  0.4018  0.6795  0.0071
37390SOL     OW23893   1.005   5.280   4.677  0.2460  0.0089  0.1558
37390SOL    HW123894   1.025   5.232   4.757  1.0026  1.1920  0.7055
37390SOL    HW223895   0.911   5.297   4.682  0.0605 -0.9793  0.1847
37391SOL     OW23896  10.281   5.021   3.446 -0.4466  0.5641 -0.8141
37391SOL    HW123897  10.363   5.042   3.490 -1.3728  3.0725 -0.1318
37391SOL    HW223898  10.233   4.965   3.507 -0.3564  1.3138 -0.0528
37392SOL     OW23899   5.558   2.717  11.515  0.0961  0.0020  0.3548
37392SOL    HW123900   5.524   2.754  11.597 -1.8677  2.0277 -1.2424
37392SOL    HW223901   5.549   2.622  11.525 -1.1216  0.2600  2.0689
37393SOL     OW23902   8.912   7.171   2.296  0.2465  0.4302  0.0781
37393SOL    HW123903   8.877   7.085   2.274  0.0144  0.0612  1.7666
37393SOL    HW223904   8.840   7.216   2.340  1.3953  0.1652  2.3599
37394SOL     OW23905   8.318   7.745  11.174  0.2042  0.6092  0.3249
37394SOL    HW123906   8.228   7.717  11.190 -1.1095  3.5831 -1.0273
37394SOL    HW223907   8.340   7.712  11.087 -0.1392  1.0671  0.0610
37395SOL     OW23908   7.021   5.066   7.427 -0.7427 -0.2935 -0.3032
37395SOL    HW123909   7.031   5.161   7.417 -0.1151 -0.5034 -2.1995
37395SOL    HW223910   7.110   5.033   7.434 -0.9623 -0.7422  0.4799
37396SOL     OW23911   1.259   3.175   8.915 -0.7524 -0.6193 -0.0666
37396SOL    HW123912   1.176   3.211   8.945 -0.5644 -0.3716  0.1572
37396SOL    HW223913   1.326   3.230   8.955 -0.4870 -0.4417 -0.7333
37397SOL     OW23914   4.622   3.437   2.480  0.1276  0.9327  0.2054
37397SOL    HW123915   4.586   3.510   2.430 -1.9669 -0.5068 -0.5057
37397SOL    HW223916   4.701   3.412   2.432 -0.0748  1.6366 -0.5142
37398SOL     OW23917  10.751  10.967   8.786  0.1548  0.0134  0.4436
37398SOL    HW123918  10.804  10.970   8.706 -0.2006 -0.4952  0.1899
37398SOL    HW223919  10.670  11.011   8.763 -0.2815 -0.8692  0.2718
37399SOL     OW23920   4.732  10.325   4.572 -0.2938  0.0131 -0.0508
37399SOL    HW123921   4.671  10.323   4.646 -3.2067 -1.4186 -2.2957
37399SOL    HW223922   4.797  10.258   4.593 -1.0450 -0.3559  1.1961
37400SOL     OW23923   2.401   2.759   9.606  0.0951 -0.0917  0.0154
37400SOL    HW123924   2.418   2.669   9.578 -3.6776 -0.6953 -0.8379
37400SOL    HW223925   2.366   2.750   9.695 -0.9269  0.4454 -0.3212
37401SOL     OW23926   1.429   9.410   6.609 -0.1387 -0.2275  0.0971
37401SOL    HW123927   1.475   9.378   6.687  0.4226  0.8248  0.2216
37401SOL    HW223928   1.457   9.351   6.539 -1.3469 -1.7419  0.8279
37402SOL     OW23929   7.995  11.121   9.816 -0.0794 -0.3455  0.4070
37402SOL    HW123930   7.900  11.109   9.810  0.0345 -0.9588 -0.3817
37402SOL    HW223931   8.028  11.039   9.852  0.0761  0.2178  1.5906
37403SOL     OW23932   0.962   6.674   0.118 -0.4305  0.2914  0.6880
37403SOL    HW123933   1.017   6.636   0.050 -1.5137  0.2262 -0.1891
37403SOL    HW223934   0.873   6.650   0.092 -1.1499  3.0772  0.2955
37404SOL     OW23935   8.540  11.432  11.897  0.2506  0.3015 -0.2364
37404SOL    HW123936   8.534  11.405  11.806  0.4611  1.8196 -0.7328
37404SOL    HW223937   8.597  11.509  11.896 -0.4844  0.9057  1.0302
37405SOL     OW23938   0.408   2.851   9.770  0.2335 -0.1108  0.5036
37405SOL    HW123939   0.375   2.807   9.848 -0.1655  0.1821  0.5015
37405SOL    HW223940   0.497   2.817   9.759 -0.7114 -2.4665 -0.6348
37406SOL     OW23941   2.015   5.352  10.543 -0.6565 -0.2800  0.4666
37406SOL    HW123942   2.089   5.308  10.502 -1.4235 -2.3365  1.1667
37406SOL    HW223943   1.977   5.286  10.601 -1.9702  1.2887  1.4856
37407SOL     OW23944   3.871  11.487   8.458  0.4294 -0.4200 -0.3447
37407SOL    HW123945   3.942  11.537   8.418  0.3427  0.7333  0.8459
37407SOL    HW223946   3.792  11.536   8.435  0.3738  0.2303  1.0881
37408SOL     OW23947   1.693   2.498   7.375 -0.5566 -0.5813 -0.0921
37408SOL    HW123948   1.705   2.425   7.314  2.0779  0.1430 -0.6037
37408SOL    HW223949   1.644   2.563   7.324 -0.7741 -1.0456 -0.4898
37409SOL     OW23950   1.343  10.997   7.142 -0.4835 -0.0388  0.1508
37409SOL    HW123951   1.303  11.072   7.186 -0.3992  0.0416  0.0915
37409SOL    HW223952   1.278  10.927   7.151 -0.2520 -0.1695  0.8335
37410SOL     OW23953   8.382  11.144   4.976  0.0570  0.2422 -0.5541
37410SOL    HW123954   8.297  11.144   5.019  0.3540  0.5634  0.0379
37410SOL    HW223955   8.361  11.146   4.882 -0.6220 -1.9633 -0.5149
37411SOL     OW23956  11.878   2.320   2.564  0.6762  0.0163 -0.3043
37411SOL    HW123957  11.840   2.309   2.652  1.9143  2.2050  0.5759
37411SOL    HW223958  11.962   2.364   2.579 -0.2069  2.8840 -2.6932
37412SOL     OW23959   2.355   1.525   3.289 -0.0854  0.5824  0.2200
37412SOL    HW123960   2.351   1.485   3.202  2.9202  0.8564 -0.1316
37412SOL    HW223961   2.408   1.464   3.340 -1.2136  0.7939  1.6882
37413SOL     OW23962   2.494   9.504   6.796  0.5710 -0.4592  0.6902
37413SOL    HW123963   2.512   9.486   6.888  0.6213 -0.3438  0.7032
37413SOL    HW223964   2.546   9.439   6.749 -1.1093 -1.9129  0.7756
37414SOL     OW23965  10.082   4.551   5.036 -0.1205 -0.0234 -0.3489
37414SOL    HW123966  10.005   4.538   5.091 -0.8795  0.6506 -1.2282
37414SOL    HW223967  10.134   4.471   5.048 -0.8298 -0.3800  0.4374
37415SOL     OW23968  11.843   5.761  10.991  0.0679  0.1014 -0.9318
37415SOL    HW123969  11.832   5.818  10.915 -0.4297  0.9790 -0.2185
37415SOL    HW223970  11.809   5.812  11.065 -0.7238 -1.2363 -0.3227
37416SOL     OW23971   5.607   9.831  10.369 -0.1389 -0.1435  0.7162
37416SOL    HW123972   5.532   9.795  10.417 -0.6722  0.4919  0.3856
37416SOL    HW223973   5.653   9.884  10.434 -0.8387  0.6855  0.5605
37417SOL     OW23974   5.326   6.392   7.685  0.0659  0.0730  0.7316
37417SOL    HW123975   5.319   6.327   7.615 -1.1480  1.2438 -0.2944
37417SOL    HW223976   5.405   6.441   7.664 -0.2394  0.3568  0.2098
37418SOL     OW23977   6.800  10.530   2.186  1.1192  0.4456  0.4372
37418SOL    HW123978   6.824  10.598   2.123 -0.7161  1.3742  0.6695
37418SOL    HW223979   6.836  10.560   2.269  0.3486  1.1519  0.5313
37419SOL     OW23980   2.841   3.295   1.164 -0.4428  0.0834 -0.0134
37419SOL    HW123981   2.765   3.328   1.116 -1.2984 -1.7899 -0.0407
37419SOL    HW223982   2.882   3.234   1.103 -0.3610 -0.7739  0.8835
37420SOL     OW23983   9.857   4.369  10.794  0.5784  0.1894  0.1774
37420SOL    HW123984   9.926   4.408  10.741  0.3930 -1.8758 -1.7161
37420SOL    HW223985   9.892   4.372  10.884  1.2423  3.0158 -0.0967
37421SOL     OW23986   9.026   7.672   5.748 -0.6082 -0.4049 -0.3749
37421SOL    HW123987   9.095   7.659   5.813 -0.1306 -1.4144 -1.0396
37421SOL    HW223988   9.029   7.765   5.726 -1.7386  0.2711  2.0576
37422SOL     OW23989   8.121  11.570   0.556 -0.5262 -0.1774 -0.0215
37422SOL    HW123990   8.209  11.601   0.533 -0.3379 -0.6925  0.0027
37422SOL    HW223991   8.065  11.646   0.539  0.0552  0.5112  0.9658
37423SOL     OW23992   5.942   3.962   1.930  0.1222  0.5644 -0.3138
37423SOL    HW123993   5.957   3.992   2.019 -0.8244 -0.1415  0.1074
37423SOL    HW223994   5.946   4.042   1.877 -1.4942  1.3515  0.6546
37424SOL     OW23995   8.775   8.649   2.210 -0.3841  0.2741 -0.2397
37424SOL    HW123996   8.736   8.604   2.135  0.2685 -1.3992  0.3803
37424SOL    HW223997   8.708   8.709   2.240 -0.5336  1.2209 -2.3564
37425SOL     OW23998   0.125   7.499   9.673  0.5236 -0.1988 -0.2207
37425SOL    HW123999   0.043   7.529   9.634 -0.2191  0.5473  1.8127
37425SOL    HW224000   0.136   7.410   9.640 -1.4305 -0.5393 -0.0456
37426SOL     OW24001   8.204   8.568   3.146 -0.0696 -0.0700  0.2509
37426SOL    HW124002   8.146   8.557   3.221 -0.6435  0.2558 -0.1380
37426SOL    HW224003   8.277   8.620   3.180  0.3695 -1.0793  0.9243
37427SOL     OW24004  11.035   8.850   8.064  0.3225  0.0896 -0.4448
37427SOL    HW124005  11.099   8.914   8.031 -1.5968  1.8781 -0.9071
37427SOL    HW224006  11.072   8.820   8.147  1.4906  1.5044 -0.4116
37428SOL     OW24007  11.629   9.297   5.820  0.5529 -0.4027  0.0440
37428SOL    HW124008  11.685   9.224   5.795  1.5073  0.3880 -0.2003
37428SOL    HW224009  11.682   9.347   5.882 -1.0884 -1.3670  2.3671
37429SOL     OW24010   5.933   3.118   9.783 -0.2289  0.1635  0.5728
37429SOL    HW124011   5.961   3.168   9.860  1.1035 -0.5439  0.5874
37429SOL    HW224012   5.897   3.037   9.819  0.7327 -0.3295  0.4770
37430SOL     OW24013   6.417   7.841   7.416 -0.0532  0.1813  0.4578
37430SOL    HW124014   6.407   7.769   7.354 -0.0800  1.9138 -1.6750
37430SOL    HW224015   6.329   7.873   7.431  0.2038  1.9893 -1.4867
37431SOL     OW24016   3.916   8.854   6.526  0.0848  0.5032  0.7965
37431SOL    HW124017   3.831   8.863   6.568 -0.7329 -1.1911 -0.3513
37431SOL    HW224018   3.927   8.759   6.514  0.7764  0.8323 -1.7045
37432SOL     OW24019   0.761   0.529   3.633  0.6113  0.5291 -0.7253
37432SOL    HW124020   0.770   0.464   3.563 -2.0331  0.2573 -0.9221
37432SOL    HW224021   0.667   0.538   3.645  0.9557  2.3374  1.2025
37433SOL     OW24022   4.260   4.377   7.378 -0.8483  0.0224  0.2678
37433SOL    HW124023   4.290   4.291   7.408  0.9266 -0.0364 -1.4488
37433SOL    HW224024   4.216   4.360   7.295  1.1638  0.8686 -1.0658
37434SOL     OW24025   7.000   2.391   5.548  0.0568 -0.1241  0.3950
37434SOL    HW124026   7.081   2.345   5.572  0.5636 -0.5894 -1.9957
37434SOL    HW224027   6.967   2.425   5.631  2.4502 -0.3137  1.5073
37435SOL     OW24028   7.267   7.833   3.875  0.1099 -0.0371 -0.1034
37435SOL    HW124029   7.343   7.892   3.865 -1.3827  1.7707 -1.4552
37435SOL    HW224030   7.223   7.836   3.790  0.2119 -3.6263 -0.4370
37436SOL     OW24031   0.255   3.985   6.118  0.2463  0.1473 -0.1758
37436SOL    HW124032   0.209   3.958   6.038  0.0699 -4.0043  1.0681
37436SOL    HW224033   0.338   3.937   6.115  1.1861  1.6096  1.1480
37437SOL     OW24034  10.053   2.553   0.738 -0.1566  0.3036  0.3594
37437SOL    HW124035  10.016   2.488   0.797  0.0824  1.2489  1.5900
37437SOL    HW224036  10.145   2.526   0.728 -0.5205 -0.6350 -0.7228
37438SOL     OW24037   0.830   8.953   8.821  0.3943 -0.5503 -0.2565
37438SOL    HW124038   0.740   8.959   8.789  0.5192  1.1764 -0.4107
37438SOL    HW224039   0.821   8.950   8.916  0.0849 -4.1066 -0.2765
37439SOL     OW24040   3.405   7.476   9.345 -0.0279 -0.5742 -0.2037
37439SOL    HW124041   3.463   7.432   9.407  1.2722  1.4207  0.0951
37439SOL    HW224042   3.344   7.525   9.401  0.6616  0.6181 -0.4659
37440SOL     OW24043   6.153   3.711  11.089 -0.3292  0.4081 -0.4914
37440SOL    HW124044   6.171   3.723  10.995  0.4097  0.2871 -0.3724
37440SOL    HW224045   6.080   3.770  11.107  1.1229  2.3306 -0.6170
37441SOL     OW24046   2.414   2.161  10.124 -0.1335  0.1313 -0.8601
37441SOL    HW124047   2.435   2.250  10.094 -0.4281  0.3423 -0.4628
37441SOL    HW224048   2.321   2.166  10.147  0.4388  0.4770  1.7318
37442SOL     OW24049   3.018   2.257   8.760  0.6944 -0.5058 -0.1224
37442SOL    HW124050   3.001   2.329   8.699  1.2298 -0.2268  0.0485
37442SOL    HW224051   3.014   2.178   8.706 -2.8161 -0.6827  0.1678
37443SOL     OW24052   8.348   2.217   0.557  0.1976  0.5069 -0.2445
37443SOL    HW124053   8.405   2.155   0.511 -0.0957 -0.7138  0.9739
37443SOL    HW224054   8.315   2.275   0.489  0.8346 -0.4146 -1.3636
37444SOL     OW24055   8.761   1.295   6.405 -0.3228 -0.2618  0.6079
37444SOL    HW124056   8.826   1.361   6.379  1.6280 -2.3496 -0.1863
37444SOL    HW224057   8.704   1.287   6.328 -0.0760 -0.0343  0.3969
37445SOL     OW24058  10.683   8.640   5.347  0.2921  0.2281  0.3004
37445SOL    HW124059  10.622   8.675   5.283 -0.4554 -0.7454  0.4575
37445SOL    HW224060  10.677   8.545   5.337  1.4488  0.1011  0.6346
37446SOL     OW24061   5.815   9.163   6.671  0.3740  0.1174  0.2299
37446SOL    HW124062   5.811   9.249   6.629 -0.8697 -1.1408 -2.4418
37446SOL    HW224063   5.905   9.158   6.705  1.2553  1.5615 -1.6656
37447SOL     OW24064   5.374   0.393   8.805  0.4500 -0.0219  0.2758
37447SOL    HW124065   5.342   0.419   8.891  0.1372 -1.0321  0.4848
37447SOL    HW224066   5.349   0.301   8.797  0.0529  0.1748 -1.0870
37448SOL     OW24067   8.023   1.291   7.088  0.2641 -0.7304  0.0169
37448SOL    HW124068   8.011   1.201   7.060 -2.1884 -0.5730  0.3430
37448SOL    HW224069   8.093   1.287   7.153 -0.8173 -2.6759  1.1568
37449SOL     OW24070  10.486   0.986   5.795  0.4751 -0.1545  0.5032
37449SOL    HW124071  10.518   1.068   5.759 -0.0050  0.2263  0.9295
37449SOL    HW224072  10.431   0.949   5.727  0.8447 -0.2208  0.2374
37450SOL     OW24073   3.007   8.527   3.074  0.6631  0.1575  0.7328
37450SOL    HW124074   2.947   8.481   3.133 -1.5736  2.0800  0.1305
37450SOL    HW224075   2.996   8.482   2.990  1.2296 -0.4423  0.9780
37451SOL     OW24076   2.218   5.436   7.254 -0.3656  0.3332  0.8301
37451SOL    HW124077   2.311   5.445   7.236 -0.5181  1.0213  0.3296
37451SOL    HW224078   2.190   5.359   7.204 -0.3577  0.9917 -0.2022
37452SOL     OW24079   0.577   4.950  11.126 -0.4632 -0.1699 -0.4297
37452SOL    HW124080   0.618   4.871  11.162  0.4724  0.7377  0.5547
37452SOL    HW224081   0.595   4.945  11.032  0.7230 -0.4877 -0.2028
37453SOL     OW24082   7.580   9.655   9.630  0.4871  0.1252 -0.0949
37453SOL    HW124083   7.638   9.730   9.615  0.6405 -0.1591 -0.9840
37453SOL    HW224084   7.569   9.653   9.725  1.0888  0.8201  0.0062
37454SOL     OW24085   0.272   6.701   8.565 -0.1705  0.6658  0.7314
37454SOL    HW124086   0.199   6.710   8.626 -1.2882  0.0365 -0.4487
37454SOL    HW224087   0.280   6.788   8.525  0.2571  0.9516  1.4389
37455SOL     OW24088  11.915   7.611   3.575 -0.5098  0.5452  0.3715
37455SOL    HW124089  11.956   7.686   3.531 -1.9639  0.3880 -1.3263
37455SOL    HW224090  11.964   7.535   3.545 -1.0599  0.5086 -0.4484
37456SOL     OW24091   1.412   2.016   4.006  0.3130  0.1512 -0.2532
37456SOL    HW124092   1.439   1.943   4.063 -0.5950  0.0676  0.0777
37456SOL    HW224093   1.369   2.077   4.065  1.3141  1.1082 -0.4800
37457SOL     OW24094   9.802   1.732   5.965  0.1836 -0.0123  0.5277
37457SOL    HW124095   9.881   1.779   5.992  0.4827 -0.6929  0.8880
37457SOL    HW224096   9.766   1.697   6.047 -0.7699  0.6932  0.4273
37458SOL     OW24097   4.595   7.056   2.701  0.6098  0.5726  0.3195
37458SOL    HW124098   4.663   7.038   2.766  1.4378  0.1643 -0.6314
37458SOL    HW224099   4.604   7.150   2.683  1.2231  0.4377 -0.1140
37459SOL     OW24100   9.665   6.710   7.954 -0.3025 -0.3154 -0.6690
37459SOL    HW124101   9.737   6.752   7.906 -0.5313  0.8720 -0.0222
37459SOL    HW224102   9.702   6.628   7.986  0.5223 -0.0773 -0.9838
37460SOL     OW24103  11.244   6.942   6.554  0.1011  0.7089  0.1390
37460SOL    HW124104  11.307   7.013   6.539  0.7187  0.4349  1.2765
37460SOL    HW224105  11.174   6.958   6.491  1.7364  0.4917 -1.8461
37461SOL     OW24106   1.539   1.123   0.395 -0.4455  0.3791 -0.3323
37461SOL    HW124107   1.595   1.149   0.322 -0.1255 -0.0161 -0.2302
37461SOL    HW224108   1.564   1.179   0.467  1.0476 -0.9352  0.2303
37462SOL     OW24109   1.332   2.527   7.428  0.6291  0.8236  0.2844
37462SOL    HW124110   1.409   2.569   7.391 -0.3064  2.9676  0.5716
37462SOL    HW224111   1.268   2.599   7.437 -0.5198 -0.3646  2.3608
37463SOL     OW24112   0.494   7.735   2.186  0.6135  0.8456 -0.0572
37463SOL    HW124113   0.522   7.651   2.223 -0.2728  0.4163 -0.3153
37463SOL    HW224114   0.472   7.714   2.095 -0.1473  1.2318  0.0330
37464SOL     OW24115   7.287   3.560   2.103  0.1985  0.2942 -0.5674
37464SOL    HW124116   7.366   3.603   2.136 -1.1597  2.0259  0.6790
37464SOL    HW224117   7.266   3.608   2.023  0.1284  0.1796 -0.6175
37465SOL     OW24118  11.220   8.331   9.049  0.2428 -0.2707 -0.0339
37465SOL    HW124119  11.297   8.274   9.058 -0.8059 -1.7151  0.1680
37465SOL    HW224120  11.233   8.399   9.115  0.6828 -1.3034  0.9831
37466SOL     OW24121  11.710   1.584  11.174  0.2173  0.1141  0.3788
37466SOL    HW124122  11.646   1.555  11.109 -0.0887  0.1814  0.6473
37466SOL    HW224123  11.794   1.583  11.128  0.0698 -0.2857  0.1158
37467SOL     OW24124   2.996   5.759   0.333  0.0472  0.3442  0.6266
37467SOL    HW124125   3.076   5.802   0.302 -0.0671 -1.7573 -3.2595
37467SOL    HW224126   2.926   5.820   0.309  0.1935  0.0285 -0.6724
37468SOL     OW24127   7.217   9.641   8.758 -0.2269 -0.3861 -0.4217
37468SOL    HW124128   7.183   9.703   8.693  0.2506  1.7169  1.2183
37468SOL    HW224129   7.140   9.618   8.810 -0.2661 -0.5650 -0.5586
37469SOL     OW24130   7.879   4.892   8.719 -0.0496  0.1298 -0.3180
37469SOL    HW124131   7.906   4.858   8.805 -2.1914  1.4285  0.9647
37469SOL    HW224132   7.790   4.857   8.706 -0.1081  0.7000 -1.5923
37470SOL     OW24133  10.343   5.036   9.495 -0.3374 -0.1379 -0.4679
37470SOL    HW124134  10.307   4.963   9.547  1.4239 -1.4034 -0.9212
37470SOL    HW224135  10.365   4.996   9.411  1.9064  0.5636 -0.2842
37471SOL     OW24136   4.071   6.029  10.165 -0.1695 -0.1632 -0.0888
37471SOL    HW124137   4.116   5.963  10.111 -0.2184  0.1391 -0.5036
37471SOL    HW224138   4.121   6.109  10.151 -0.9011  0.2058 -0.6453
37472SOL     OW24139   6.405   2.533  10.534 -0.0409 -0.0607 -0.3592
37472SOL    HW124140   6.411   2.570  10.622  0.8230  0.6338 -0.6982
37472SOL    HW224141   6.492   2.547  10.496 -0.1268 -1.1596 -1.0069
37473SOL     OW24142  10.353   7.462   8.468  0.5649 -0.0408 -0.4146
37473SOL    HW124143  10.311   7.383   8.503 -0.9837  1.1540  0.5886
37473SOL    HW224144  10.280   7.521   8.450  1.7413  1.5545 -0.1357
37474SOL     OW24145   6.694  10.220   1.194 -0.4210  0.7474  0.2431
37474SOL    HW124146   6.623  10.227   1.130 -0.2913  0.1540  0.0312
37474SOL    HW224147   6.658  10.165   1.263 -0.0893  0.2534  0.0252
37475SOL     OW24148  10.498   3.025   3.981 -0.1071 -0.0723 -0.0809
37475SOL    HW124149  10.494   2.946   3.928  1.2449 -1.1508  1.3270
37475SOL    HW224150  10.555   3.084   3.932 -0.3155 -0.3573 -0.6666
37476SOL     OW24151   6.345   1.557   9.635  0.2452  0.0779 -0.0465
37476SOL    HW124152   6.398   1.637   9.637  1.1440 -0.5028  0.1434
37476SOL    HW224153   6.255   1.587   9.643  0.6632  0.9762  2.0605
37477SOL     OW24154   3.955   9.419   7.785  0.0022 -0.1418 -0.5721
37477SOL    HW124155   3.972   9.352   7.719  1.5926  1.1954 -1.6237
37477SOL    HW224156   4.039   9.428   7.831 -1.0671 -1.0623  1.7366
37478SOL     OW24157   4.733  10.579   8.474  0.8451 -0.3638  0.3367
37478SOL    HW124158   4.658  10.528   8.506  0.0847  0.4243 -0.1442
37478SOL    HW224159   4.807  10.549   8.526  0.4389 -2.0242  0.0084
37479SOL     OW24160   0.914  10.506   9.747  0.0096  0.0039 -0.1682
37479SOL    HW124161   0.922  10.601   9.751 -1.5197  0.1346  0.3132
37479SOL    HW224162   0.820  10.490   9.741  0.2171 -1.5011  0.2714
37480SOL     OW24163   4.033   6.393   8.812 -0.2896 -0.4791  0.3613
37480SOL    HW124164   4.037   6.465   8.749  1.0577 -0.9240 -0.1036
37480SOL    HW224165   3.943   6.394   8.844 -0.4947  0.9511 -0.1688
37481SOL     OW24166   8.069  11.105   8.250 -0.1455  0.3076  0.2020
37481SOL    HW124167   8.136  11.165   8.218 -0.1150  0.3352  0.3151
37481SOL    HW224168   8.107  11.018   8.240  0.5167  0.3901  1.6380
37482SOL     OW24169   1.702   8.430   3.183  0.0533 -0.6065 -0.3064
37482SOL    HW124170   1.738   8.344   3.158  0.3655 -0.1023 -1.6912
37482SOL    HW224171   1.753   8.456   3.259  2.4797 -0.0644 -2.0049
37483SOL     OW24172  10.333   8.794   9.340 -0.1892 -0.0616 -0.2714
37483SOL    HW124173  10.397   8.860   9.365 -0.2611  1.2654 -3.1562
37483SOL    HW224174  10.369   8.754   9.261 -2.4939  0.2250 -1.5796
37484SOL     OW24175   4.978   2.732   2.860  0.1069  0.7425  0.0822
37484SOL    HW124176   4.970   2.820   2.823 -0.0276  1.1668  1.1007
37484SOL    HW224177   5.054   2.737   2.918 -0.3509  0.4005  0.7168
37485SOL     OW24178   7.130   4.174   4.669 -0.2021 -0.1660  0.3652
37485SOL    HW124179   7.036   4.170   4.654 -0.4439  0.5698  1.5407
37485SOL    HW224180   7.156   4.083   4.684 -0.4685 -0.5444 -1.2669
37486SOL     OW24181   4.587   9.906   8.514  0.1759  0.0528  0.1550
37486SOL    HW124182   4.655   9.973   8.509  0.3280 -0.0714  0.5317
37486SOL    HW224183   4.558   9.894   8.423  1.8065 -1.0720 -0.2641
37487SOL     OW24184   1.029   4.094   2.203 -0.5318  1.4457 -0.5133
37487SOL    HW124185   0.945   4.141   2.198 -1.1259  0.6589  1.2355
37487SOL    HW224186   1.044   4.083   2.297  1.2196  0.9900 -0.8190
37488SOL     OW24187   5.018   3.711   3.927 -0.0511 -0.3671 -0.1558
37488SOL    HW124188   4.936   3.752   3.955  0.6901  1.6524 -0.7553
37488SOL    HW224189   5.001   3.684   3.837 -0.6581 -1.7867  0.3561
37489SOL     OW24190   9.474   8.027   5.679 -0.4082 -0.0037 -0.2928
37489SOL    HW124191   9.503   8.118   5.680  0.3670 -0.2502  1.4316
37489SOL    HW224192   9.554   7.976   5.685 -0.8060 -0.8470 -1.6346
37490SOL     OW24193   9.187   7.849   5.444 -0.5836 -0.4558 -0.5297
37490SOL    HW124194   9.189   7.754   5.450 -0.4098 -0.3912  0.6380
37490SOL    HW224195   9.234   7.869   5.363 -1.1901 -1.3806 -1.1246
37491SOL     OW24196   5.928   5.283   2.340 -0.3504  0.5934  0.1785
37491SOL    HW124197   5.954   5.192   2.327 -2.0968  0.1818 -0.8403
37491SOL    HW224198   5.989   5.317   2.405  1.8277 -0.6135 -1.1245
37492SOL     OW24199   1.068   5.737   6.549 -0.0689 -0.4103  0.2015
37492SOL    HW124200   1.133   5.793   6.506  0.8907 -1.0839  0.7339
37492SOL    HW224201   1.066   5.657   6.496 -1.8897  0.3051 -0.9220
37493SOL     OW24202   5.826   8.035   0.629 -0.0750  0.0696 -0.5649
37493SOL    HW124203   5.880   8.113   0.645  0.5511 -0.4113 -0.2438
37493SOL    HW224204   5.890   7.966   0.608 -0.5573 -0.5216 -0.1435
37494SOL     OW24205   9.639   1.926   4.565  0.1307  0.4581  0.1547
37494SOL    HW124206   9.687   1.979   4.628  1.8186 -1.3878  0.5166
37494SOL    HW224207   9.684   1.941   4.482 -0.5412  0.9716 -0.1288
37495SOL     OW24208   5.899   1.510   5.823  0.3153  0.1732 -0.4501
37495SOL    HW124209   5.948   1.564   5.762 -0.8606  1.5749 -0.2102
37495SOL    HW224210   5.938   1.530   5.909 -0.4731  1.1156 -0.2888
37496SOL     OW24211   7.219  11.484   0.006  0.4785 -0.1429 -0.2553
37496SOL    HW124212   7.294  11.426  -0.001  1.7303  1.5631 -2.2262
37496SOL    HW224213   7.145  11.433  -0.026  1.3167 -1.0110 -0.8339
37497SOL     OW24214   6.072   1.679   9.193  0.3166 -0.0664 -0.0891
37497SOL    HW124215   6.003   1.710   9.253  0.3954 -1.3605  0.7007
37497SOL    HW224216   6.140   1.746   9.199  0.4282 -0.2846  1.4793
37498SOL     OW24217   8.232  11.854   1.456 -0.1105  0.3667 -0.2698
37498SOL    HW124218   8.281  11.772   1.459 -0.1345  0.3082 -1.0580
37498SOL    HW224219   8.149  11.830   1.414  0.1887  0.9285 -1.2173
37499SOL     OW24220   1.277   6.925   9.778 -0.3934  0.3246 -0.7365
37499SOL    HW124221   1.223   6.948   9.854 -1.4305  0.9236 -1.6417
37499SOL    HW224222   1.352   6.984   9.784 -0.0271 -0.2036  0.2715
37500SOL     OW24223   3.363   9.820  11.674 -0.0297  0.2959  0.0288
37500SOL    HW124224   3.373   9.911  11.699 -2.1635  0.7599 -0.6348
37500SOL    HW224225   3.383   9.819  11.580 -0.8163  0.2540 -0.1444
37501SOL     OW24226   8.056   8.372   7.028 -0.1409 -0.2853  0.2244
37501SOL    HW124227   7.974   8.351   6.985 -0.4275 -0.1148  0.6800
37501SOL    HW224228   8.049   8.332   7.115  0.4442 -0.6587  0.1020
37502SOL     OW24229   8.916  11.853   5.123 -0.4207 -0.1703  0.0443
37502SOL    HW124230   9.011  11.849   5.113 -0.3018  1.1743  0.3841
37502SOL    HW224231   8.887  11.911   5.053 -0.7070  1.2038  1.2288
37503SOL     OW24232   3.354   7.983  11.812 -0.2476  0.1330  0.5056
37503SOL    HW124233   3.345   7.916  11.744  1.4558  2.0483 -1.8339
37503SOL    HW224234   3.406   8.052  11.770  0.9133  1.4858  3.8033
37504SOL     OW24235   0.012   6.665   5.500 -0.4527  0.0378  0.5120
37504SOL    HW124236  -0.041   6.597   5.543  0.7056 -0.4980  1.1586
37504SOL    HW224237   0.088   6.675   5.557  1.3102 -0.9072 -1.5511
37505SOL     OW24238   9.858   8.119   6.585  0.9390  0.2878 -0.0058
37505SOL    HW124239   9.902   8.038   6.558  1.6514  1.0773 -1.3348
37505SOL    HW224240   9.766   8.095   6.591  1.3407 -1.0722  1.4934
37506SOL     OW24241   7.417   4.414   4.410 -0.4074  0.1394  0.3985
37506SOL    HW124242   7.367   4.480   4.459  1.8707  1.5551  0.9810
37506SOL    HW224243   7.502   4.455   4.395 -0.5131 -0.6706 -3.7522
37507SOL     OW24244   3.093   7.936   6.770 -0.0272  0.1593  0.2942
37507SOL    HW124245   3.017   7.893   6.731  0.0761  0.8703 -0.7442
37507SOL    HW224246   3.096   7.903   6.859  0.1182 -2.0416 -0.4653
37508SOL     OW24247   2.984  10.408   0.332 -0.1770 -0.2394 -0.5787
37508SOL    HW124248   2.927  10.366   0.268  0.3028 -0.4139 -0.8974
37508SOL    HW224249   2.940  10.394   0.416 -0.7444 -0.1183 -0.8533
37509SOL     OW24250   1.029   7.570   3.889  0.6092  0.4625  0.2391
37509SOL    HW124251   0.934   7.580   3.886  0.5689  0.2303  0.6092
37509SOL    HW224252   1.056   7.614   3.970  0.8455  0.7375  0.0128
37510SOL     OW24253   4.558   5.898   0.106 -0.3217  0.0251  0.0773
37510SOL    HW124254   4.570   5.938   0.020  1.7290  1.8548  1.1136
37510SOL    HW224255   4.463   5.898   0.119 -0.6216  0.6121 -1.7577
37511SOL     OW24256   5.484   1.701   7.052 -0.6267 -0.0845  0.1401
37511SOL    HW124257   5.515   1.751   7.127 -0.5262 -0.4702  0.3613
37511SOL    HW224258   5.523   1.745   6.976  0.7655 -0.7569  0.4288
37512SOL     OW24259   2.368   0.662   7.831 -0.2018 -0.5775  0.1016
37512SOL    HW124260   2.375   0.702   7.918  1.1196 -0.5607  0.0017
37512SOL    HW224261   2.275   0.670   7.809 -0.4113  0.1640  1.1568
37513SOL     OW24262   2.266   9.195   1.661  0.0696  0.0426  0.4596
37513SOL    HW124263   2.196   9.261   1.657 -0.6390 -0.6531  1.0466
37513SOL    HW224264   2.277   9.168   1.569  0.7426  1.3391  0.1372
37514SOL     OW24265   6.117   3.940   4.210  0.2468 -0.2633  0.2476
37514SOL    HW124266   6.144   3.850   4.190  0.0101 -0.7450  1.8776
37514SOL    HW224267   6.034   3.929   4.257 -0.4693  0.9085 -0.7202
37515SOL     OW24268   9.853   6.283   6.229  0.2356 -0.6024 -0.0492
37515SOL    HW124269   9.889   6.335   6.157  0.3985 -0.6582 -0.0086
37515SOL    HW224270   9.929   6.237   6.266  0.2044 -0.3246  0.3660
37516SOL     OW24271   3.901   8.899   6.284  0.2291 -0.0865 -0.3317
37516SOL    HW124272   3.895   8.896   6.380 -0.4243 -0.6251 -0.3847
37516SOL    HW224273   3.820   8.859   6.253  0.4236  0.1037 -1.1179
37517SOL     OW24274   4.458   1.025   9.955 -0.1356  0.0136 -0.2416
37517SOL    HW124275   4.436   1.037  10.048 -1.0704  1.3958 -0.6148
37517SOL    HW224276   4.526   1.090   9.938 -1.1626  0.9505 -0.9077
37518SOL     OW24277   3.906   0.434  11.864 -0.4825  0.0561 -0.0649
37518SOL    HW124278   3.924   0.340  11.874 -1.7360 -0.0275  2.0592
37518SOL    HW224279   3.894   0.446  11.770  1.0606 -1.6224 -0.5576
37519SOL     OW24280   5.415   7.478   5.953  0.1370  0.5026  0.2106
37519SOL    HW124281   5.327   7.451   5.924 -0.0780  0.2332  1.0779
37519SOL    HW224282   5.472   7.458   5.879 -0.3604 -0.3621  0.0525
37520SOL     OW24283   4.785   1.936   6.529  0.1379 -0.0116 -0.1969
37520SOL    HW124284   4.792   1.930   6.434  1.3089 -0.1939 -0.1201
37520SOL    HW224285   4.866   1.979   6.556 -0.4143  0.4993  0.6855
37521SOL     OW24286   2.729   8.934   6.380 -0.2348  0.4226  0.0616
37521SOL    HW124287   2.764   8.911   6.466  0.0579  2.2947  0.4762
37521SOL    HW224288   2.757   8.862   6.323  1.4789  0.2507  1.0638
37522SOL     OW24289  11.937   4.647   8.873  0.4942 -0.4353  0.1396
37522SOL    HW124290  11.898   4.649   8.961  2.0264  1.2130  0.8546
37522SOL    HW224291  11.882   4.706   8.821  0.1802 -0.6104  0.2695
37523SOL     OW24292   6.668   3.430   6.134 -0.2961 -0.7880  0.0399
37523SOL    HW124293   6.752   3.411   6.094 -0.9674  0.1565 -1.9401
37523SOL    HW224294   6.688   3.442   6.227  2.0739  1.2696 -0.6314
37524SOL     OW24295   8.978   8.884   9.781 -0.1144  0.0523  0.3445
37524SOL    HW124296   8.893   8.916   9.809 -0.4924 -0.3444 -0.3327
37524SOL    HW224297   8.964   8.852   9.692  0.9197  0.7328 -0.0855
37525SOL     OW24298   2.256   6.169   3.657 -0.0049  0.7434  0.4525
37525SOL    HW124299   2.189   6.154   3.590  0.6039  0.3136 -0.0728
37525SOL    HW224300   2.339   6.150   3.613  0.4257  0.6945  1.2621
37526SOL     OW24301   7.463   5.954   0.607  0.2196  0.0393  0.2508
37526SOL    HW124302   7.455   5.874   0.658  0.8245  0.0371  0.3488
37526SOL    HW224303   7.404   5.941   0.533  0.6376 -0.6828  0.0356
37527SOL     OW24304  10.947   1.798  10.875 -0.0912  0.0562  0.5350
37527SOL    HW124305  10.987   1.885  10.882  0.0587  0.1098 -0.8663
37527SOL    HW224306  11.018   1.738  10.898  0.0551  0.2574  0.6175
37528SOL     OW24307   0.174   2.572   6.171 -0.0339 -0.0278 -0.4705
37528SOL    HW124308   0.102   2.630   6.193  0.2536  0.5962 -1.1201
37528SOL    HW224309   0.175   2.570   6.075  0.4595 -0.4679 -0.4624
37529SOL     OW24310   6.884   1.581   3.911  0.4674  0.0800 -0.3618
37529SOL    HW124311   6.978   1.563   3.902  0.5270 -0.0530  0.5041
37529SOL    HW224312   6.841   1.500   3.884  0.5966  0.1269 -0.7192
37530SOL     OW24313   5.530   4.133   7.751 -0.0722  0.2735  0.3505
37530SOL    HW124314   5.559   4.215   7.791 -0.8498  0.5182  0.4362
37530SOL    HW224315   5.457   4.158   7.695 -0.7652 -0.4492  0.9025
37531SOL     OW24316   7.651   2.350   0.972 -0.3383  0.2463  0.1430
37531SOL    HW124317   7.713   2.331   1.041 -1.8791 -3.9362  0.6390
37531SOL    HW224318   7.598   2.422   1.006 -0.1815 -0.7887  2.7810
37532SOL     OW24319   9.120   9.006  10.802 -0.7025 -0.0616 -0.5355
37532SOL    HW124320   9.141   9.087  10.757  0.0275 -0.1560 -0.3782
37532SOL    HW224321   9.190   8.946  10.777 -0.0106  0.0199  1.0695
37533SOL     OW24322   7.429   6.960   4.952  0.0435  0.2130 -0.7311
37533SOL    HW124323   7.518   6.995   4.953 -0.4873  1.6675 -1.0135
37533SOL    HW224324   7.413   6.933   5.043  1.4376 -1.9685 -1.0682
37534SOL     OW24325   4.438   7.884   0.040 -0.0643 -0.4099 -0.3757
37534SOL    HW124326   4.366   7.943   0.062 -0.9402 -1.5658 -0.0981
37534SOL    HW224327   4.423   7.806   0.093 -0.0120 -1.6813 -2.1505
37535SOL     OW24328   2.416  10.576   4.786 -0.5208  0.1883 -0.1001
37535SOL    HW124329   2.463  10.653   4.818  0.0057 -0.3848  0.5312
37535SOL    HW224330   2.423  10.581   4.691  2.1448 -0.6995 -0.0007
37536SOL     OW24331   4.474   5.868   9.409 -0.0710 -0.2491 -0.2136
37536SOL    HW124332   4.562   5.903   9.423 -0.0549 -0.3102 -0.1618
37536SOL    HW224333   4.448   5.834   9.495  0.7042 -2.1796 -0.7019
37537SOL     OW24334   2.044   9.817   7.037  0.6146  0.5017  0.5339
37537SOL    HW124335   1.951   9.837   7.051  0.5659  1.6744 -1.2002
37537SOL    HW224336   2.089   9.901   7.051  1.1456  0.4473 -0.7780
37538SOL     OW24337  10.082  11.389   7.694 -0.1238 -0.6686 -0.1416
37538SOL    HW124338  10.142  11.324   7.732 -0.6885 -1.6243 -0.8296
37538SOL    HW224339  10.001  11.379   7.745 -0.1957 -0.4685 -0.2170
37539SOL     OW24340   1.443  11.942   1.692  0.0028 -0.1679 -0.7614
37539SOL    HW124341   1.513  12.002   1.666 -0.2052  0.3528 -0.1543
37539SOL    HW224342   1.371  12.000   1.719 -0.8981 -0.6811 -1.9605
37540SOL     OW24343   2.954   4.294   8.894 -0.0765  0.5277 -0.1821
37540SOL    HW124344   3.002   4.268   8.815 -0.0028  1.3984 -0.4328
37540SOL    HW224345   2.864   4.303   8.866 -0.2349 -0.1536  0.0738
37541SOL     OW24346   1.518   1.175   7.627  0.2502  0.1670 -0.0349
37541SOL    HW124347   1.559   1.092   7.603  1.7055  0.0110  2.5738
37541SOL    HW224348   1.553   1.239   7.565  0.8807 -0.7786 -0.6647
37542SOL     OW24349  11.442  11.811   5.201 -0.1747 -0.1054  0.3671
37542SOL    HW124350  11.355  11.808   5.241 -0.6237 -0.9703 -0.6053
37542SOL    HW224351  11.502  11.831   5.273 -1.0647 -0.5789  1.2571
37543SOL     OW24352   3.948   8.398  11.161 -0.3686  0.0972 -0.1097
37543SOL    HW124353   4.043   8.393  11.172 -0.5232 -0.7364  0.9939
37543SOL    HW224354   3.931   8.488  11.134  0.7750  0.1277 -0.7695
37544SOL     OW24355  10.793  11.357   2.148 -0.3691 -0.0321 -0.1124
37544SOL    HW124356  10.755  11.408   2.220  0.5214  0.1102  0.2695
37544SOL    HW224357  10.842  11.287   2.191 -0.4287 -0.3809 -0.6026
37545SOL     OW24358   8.936  11.453   7.650 -0.6603  0.5761 -0.3925
37545SOL    HW124359   8.850  11.494   7.634  0.2920  2.4894 -0.9779
37545SOL    HW224360   8.985  11.520   7.699  0.5056 -0.4889 -0.0593
37546SOL     OW24361   9.657   4.164   1.421  0.0483 -0.0617  0.0301
37546SOL    HW124362   9.641   4.071   1.401 -2.0045  0.5225 -1.3540
37546SOL    HW224363   9.582   4.191   1.474 -0.6079  1.3501 -1.5362
37547SOL     OW24364   4.442   7.634   0.174  0.1592  0.5621  0.3083
37547SOL    HW124365   4.375   7.578   0.213 -0.2173 -0.1376 -1.2618
37547SOL    HW224366   4.515   7.575   0.157  0.6602  1.0446  0.7642
37548SOL     OW24367  11.730   7.837   9.142  0.4101  0.2091 -0.2182
37548SOL    HW124368  11.648   7.866   9.182  0.1813 -0.0741 -0.4782
37548SOL    HW224369  11.721   7.742   9.135  1.0278  0.1001  0.3520
37549SOL     OW24370   2.297   6.582   2.577  0.1452 -0.4017  0.1430
37549SOL    HW124371   2.203   6.593   2.559 -0.2321 -2.6986  0.4320
37549SOL    HW224372   2.325   6.669   2.607 -2.0347  0.1881  0.7005
37550SOL     OW24373   9.209   5.317   2.420  0.0020  0.3179  0.8083
37550SOL    HW124374   9.143   5.347   2.357  0.4480  1.4819  0.8665
37550SOL    HW224375   9.194   5.371   2.497  1.6408  1.3416  0.4698
37551SOL     OW24376   6.765   0.769   4.153 -0.1822 -0.4499 -0.3721
37551SOL    HW124377   6.851   0.726   4.149 -0.0201 -0.0717 -0.9896
37551SOL    HW224378   6.769   0.836   4.085  0.6218  2.4920  2.3339
37552SOL     OW24379  10.465   7.109   6.994 -0.3181 -0.5024 -0.2908
37552SOL    HW124380  10.421   7.062   7.065  1.1093 -0.3342  0.7512
37552SOL    HW224381  10.404   7.106   6.921 -2.3672  0.3329  1.2929
37553SOL     OW24382   2.513   6.148  10.650 -0.2649 -0.4365  0.6599
37553SOL    HW124383   2.561   6.218  10.695  1.5112 -0.1660 -1.4626
37553SOL    HW224384   2.463   6.105  10.719  1.0042  0.9583  2.5620
37554SOL     OW24385   3.215   9.714   4.503  0.2980  0.7105 -0.6807
37554SOL    HW124386   3.214   9.729   4.598 -1.7216  1.7742 -0.8305
37554SOL    HW224387   3.217   9.618   4.495  0.3766  0.6016  0.4321
37555SOL     OW24388   4.254   5.202   2.606  0.0147 -0.1421  0.0222
37555SOL    HW124389   4.278   5.143   2.535  2.6752  0.7762  0.0569
37555SOL    HW224390   4.296   5.166   2.684  1.3750  1.5246  0.1152
37556SOL     OW24391   4.873   2.638   6.323  0.3061  0.5549 -0.3026
37556SOL    HW124392   4.928   2.626   6.400 -0.7160 -1.8135  0.1635
37556SOL    HW224393   4.812   2.707   6.348  0.5087  0.3914  0.7014
37557SOL     OW24394   0.005   0.305  10.167 -0.4345 -0.4459  0.3763
37557SOL    HW124395   0.080   0.250  10.188  1.2069  0.9127 -1.5343
37557SOL    HW224396  -0.051   0.251  10.112 -0.9229 -1.4817  1.8406
37558SOL     OW24397   6.521   7.633   6.424  0.1184  0.2967  0.2831
37558SOL    HW124398   6.556   7.700   6.366 -0.4385  0.7911  0.5198
37558SOL    HW224399   6.580   7.558   6.412  0.9462  0.9407  0.2772
37559SOL     OW24400   9.096   8.123   0.173 -0.1136 -0.0670 -0.0762
37559SOL    HW124401   9.019   8.122   0.229 -0.5281  0.6480 -0.6213
37559SOL    HW224402   9.062   8.115   0.084  0.5186 -0.8717 -0.2603
37560SOL     OW24403   9.409   9.065   5.593 -0.6432  0.3927 -0.0650
37560SOL    HW124404   9.327   9.018   5.575 -0.4353 -0.1119  0.2960
37560SOL    HW224405   9.415   9.129   5.522 -0.1011 -1.2262 -1.5535
37561SOL     OW24406   8.235   2.810  10.104 -0.2215  0.0730  0.1200
37561SOL    HW124407   8.313   2.862  10.084 -0.4866  0.5831  0.4087
37561SOL    HW224408   8.222   2.822  10.198 -1.1275  0.6530 -0.0708
37562SOL     OW24409   5.883   7.681   0.993  0.3090 -0.2544 -0.2986
37562SOL    HW124410   5.819   7.682   1.065 -0.7494 -0.7976 -1.1909
37562SOL    HW224411   5.873   7.767   0.952  2.4081  0.8843  1.4185
37563SOL     OW24412   6.968   6.598   9.599 -0.0053 -0.2208 -0.2839
37563SOL    HW124413   6.923   6.659   9.541 -0.7323 -1.6340 -1.2402
37563SOL    HW224414   6.898   6.544   9.636  0.3823  0.8640  2.2420
37564SOL     OW24415   5.714   3.357   5.514 -0.4103  0.1955  0.4392
37564SOL    HW124416   5.747   3.290   5.574  2.5227  1.0425 -0.0994
37564SOL    HW224417   5.646   3.403   5.564  0.7683 -0.1925  2.5070
37565SOL     OW24418   5.473   7.962   7.213 -0.0964 -0.6755  0.3036
37565SOL    HW124419   5.433   8.042   7.247  0.3466 -0.6642  0.8115
37565SOL    HW224420   5.417   7.936   7.140  0.1625  0.4863 -0.3198
37566SOL     OW24421   3.606   2.159   6.781 -0.3846 -0.4258  0.4467
37566SOL    HW124422   3.627   2.153   6.688 -1.1178  1.5949  0.1022
37566SOL    HW224423   3.548   2.084   6.797  1.6238 -2.2097 -0.0937
37567SOL     OW24424   1.491  11.265   1.002  0.0062  0.3226  0.3764
37567SOL    HW124425   1.545  11.296   1.075 -1.2471  1.4706  0.8594
37567SOL    HW224426   1.478  11.342   0.947 -1.0793  0.0745  0.2511
37568SOL     OW24427  11.204   3.464   5.366  0.3183 -0.2002  0.0786
37568SOL    HW124428  11.116   3.493   5.342 -0.1754 -1.8558 -0.2464
37568SOL    HW224429  11.241   3.433   5.283  1.7972  1.8245 -0.0910
37569SOL     OW24430   8.100   2.207   1.828 -0.7398  0.1622  0.7028
37569SOL    HW124431   8.010   2.175   1.834 -0.3180 -1.1150  0.6284
37569SOL    HW224432   8.152   2.128   1.810  0.2583  1.0444 -0.3987
37570SOL     OW24433   6.506   6.286  11.748 -0.4844  0.1690  0.1902
37570SOL    HW124434   6.464   6.208  11.783 -1.8541 -0.6765 -2.9375
37570SOL    HW224435   6.442   6.357  11.763  0.0760  0.4032  1.6158
37571SOL     OW24436   7.834   1.762   0.714  0.4722 -0.3051 -0.4239
37571SOL    HW124437   7.886   1.715   0.779 -0.6192 -0.5740  0.2759
37571SOL    HW224438   7.848   1.854   0.735  0.6050 -0.3759 -0.1952
37572SOL     OW24439   1.098   4.108   4.612 -0.2492  0.3234  0.1344
37572SOL    HW124440   1.051   4.073   4.537 -0.3071  1.0535 -0.1837
37572SOL    HW224441   1.167   4.163   4.575  1.2811 -1.2044  0.5846
37573SOL     OW24442   9.937   4.244   9.920  0.0787  0.4583  0.0936
37573SOL    HW124443   9.852   4.213   9.953 -0.1708  0.6030 -0.4142
37573SOL    HW224444   9.988   4.164   9.910 -0.3069  0.2808 -0.4742
37574SOL     OW24445   8.241   3.532  10.170  0.2785  0.5258  0.3246
37574SOL    HW124446   8.258   3.479  10.249 -1.0994  2.2949  1.9040
37574SOL    HW224447   8.155   3.571  10.186 -0.4671  0.2388 -2.5326
37575SOL     OW24448   7.813   7.770   3.669  0.1664 -0.4282 -0.3433
37575SOL    HW124449   7.821   7.692   3.723 -0.1154  0.6439  1.3265
37575SOL    HW224450   7.858   7.839   3.719 -0.9504  0.8330 -1.0100
37576SOL     OW24451   7.202   4.330   7.680 -0.1421 -0.2604  0.0701
37576SOL    HW124452   7.127   4.335   7.739  0.6861 -0.0592  1.1270
37576SOL    HW224453   7.223   4.421   7.659 -0.0747 -0.3073 -0.0719
37577SOL     OW24454  10.072  11.861   9.179 -0.0290  0.9628  0.2318
37577SOL    HW124455  10.165  11.853   9.200  0.7134  0.0660 -2.8141
37577SOL    HW224456  10.029  11.794   9.233  1.4621 -0.2985 -0.0624
37578SOL     OW24457   6.025   4.253   2.636  0.3802 -0.3774  0.0959
37578SOL    HW124458   6.034   4.225   2.727 -0.6393  0.3249  0.4278
37578SOL    HW224459   5.931   4.261   2.622  0.5047 -0.8245 -1.1379
37579SOL     OW24460   0.935   1.734   0.123 -0.6940  0.3177 -0.1309
37579SOL    HW124461   0.938   1.688   0.207 -1.8052  1.1518  0.3893
37579SOL    HW224462   0.891   1.672   0.064  0.3210 -0.3721 -0.1860
37580SOL     OW24463   5.574   4.358   2.175  0.0612 -0.3893  0.1449
37580SOL    HW124464   5.537   4.368   2.087 -0.7096 -3.1693  0.0557
37580SOL    HW224465   5.616   4.272   2.174 -0.0170 -0.5236  2.5053
37581SOL     OW24466  10.835   0.642   2.397 -0.0474 -0.0879 -0.5009
37581SOL    HW124467  10.849   0.587   2.319 -0.7695 -1.3754  0.2373
37581SOL    HW224468  10.915   0.630   2.449 -0.2136 -0.4964 -0.3286
37582SOL     OW24469  10.913  11.645   6.658 -0.3382 -0.1317  0.6361
37582SOL    HW124470  10.885  11.634   6.567 -0.9366  1.6002  0.5794
37582SOL    HW224471  10.997  11.599   6.663  0.0656  0.3675 -0.9978
37583SOL     OW24472   8.368   7.185   7.424 -0.2671  0.5529  0.1143
37583SOL    HW124473   8.448   7.229   7.450  0.4427 -0.7601  0.2577
37583SOL    HW224474   8.359   7.113   7.487 -2.4299  1.5919  1.1088
37584SOL     OW24475  10.964   3.790  11.217  0.0541 -0.1768 -0.1154
37584SOL    HW124476  10.925   3.763  11.134  2.4296 -2.1590 -0.6943
37584SOL    HW224477  10.970   3.885  11.212 -0.7344 -0.1937 -1.7743
37585SOL     OW24478   4.681   1.784   0.668 -0.6842 -0.2818 -0.1889
37585SOL    HW124479   4.657   1.870   0.701 -0.0195 -0.3678  0.5521
37585SOL    HW224480   4.598   1.737   0.657 -0.9152 -0.3159  1.5504
37586SOL     OW24481   9.496   2.466  11.633  0.0952 -0.1230  0.0493
37586SOL    HW124482   9.443   2.466  11.713 -0.0293 -2.1551  0.0040
37586SOL    HW224483   9.433   2.451  11.562  0.5948 -1.8783 -0.0651
37587SOL     OW24484   5.237   6.444  10.732  0.4242 -0.7324 -0.1869
37587SOL    HW124485   5.307   6.380  10.748  2.1805  1.0975 -0.2177
37587SOL    HW224486   5.223   6.486  10.817  0.4145 -0.0519 -0.5228
37588SOL     OW24487   9.535   7.352   0.307  0.3538 -0.2916  0.2631
37588SOL    HW124488   9.623   7.372   0.276 -0.2560  1.5736 -0.3751
37588SOL    HW224489   9.541   7.359   0.403  0.5158  1.6008  0.1391
37589SOL     OW24490   9.632   4.107   9.053 -0.5923 -0.1493  0.0158
37589SOL    HW124491   9.640   4.013   9.035  0.1769 -0.3787  1.3663
37589SOL    HW224492   9.608   4.111   9.145 -1.4534  0.9819 -0.2435
37590SOL     OW24493  10.703   6.980  10.817 -0.3023  0.0339 -0.5786
37590SOL    HW124494  10.618   7.014  10.788 -0.3273 -0.4575 -1.1058
37590SOL    HW224495  10.681   6.925  10.893 -0.3775  0.4127 -0.3247
37591SOL     OW24496   9.071   4.918  11.771 -0.6380 -0.6156 -0.1581
37591SOL    HW124497   9.079   4.846  11.834 -1.7411 -0.7870 -0.1785
37591SOL    HW224498   9.145   4.975  11.789 -1.5092 -0.0646  2.0659
37592SOL     OW24499   7.545  10.345   1.942  0.0633  0.0244 -0.4339
37592SOL    HW124500   7.463  10.340   1.991  0.1859 -1.0970 -0.3197
37592SOL    HW224501   7.573  10.437   1.951 -1.3319  0.4917 -0.7528
37593SOL     OW24502   8.929  11.434  10.698 -0.1523 -0.1311 -0.2862
37593SOL    HW124503   8.954  11.501  10.634  0.7886 -0.4784 -0.3128
37593SOL    HW224504   9.008  11.380  10.707 -0.6223 -0.7270  0.3649
37594SOL     OW24505   1.870   7.341   4.577 -0.5366  0.0860 -0.2211
37594SOL    HW124506   1.962   7.365   4.578  0.1889 -2.2526 -1.3691
37594SOL    HW224507   1.862   7.282   4.502 -2.5131 -1.3753  1.0282
37595SOL     OW24508   4.681   6.953   7.628 -0.4557 -0.0164 -0.4119
37595SOL    HW124509   4.695   6.960   7.533 -2.0478  1.0428 -0.6106
37595SOL    HW224510   4.731   7.026   7.664 -2.2051  1.4321 -0.7621
37596SOL     OW24511   2.244   9.752   6.074  0.0600 -0.2209  0.3294
37596SOL    HW124512   2.211   9.776   5.987  0.3066  0.4567  0.4127
37596SOL    HW224513   2.319   9.696   6.056 -0.8988 -1.4691  0.1387
37597SOL     OW24514   9.166   5.621   7.833 -0.0496 -0.1437 -0.0395
37597SOL    HW124515   9.087   5.583   7.795 -0.4817  0.4882  0.2178
37597SOL    HW224516   9.238   5.572   7.792 -0.5189  0.1449 -1.2422
37598SOL     OW24517   6.355   7.734   5.332  0.3968 -0.6598 -0.4393
37598SOL    HW124518   6.336   7.665   5.395 -0.8721  1.8196  2.1350
37598SOL    HW224519   6.297   7.715   5.258 -0.5453 -1.8910  0.5579
37599SOL     OW24520  10.990   6.466   9.356 -0.4025  0.4652  0.3974
37599SOL    HW124521  10.924   6.521   9.314  1.8219  2.6404 -0.4812
37599SOL    HW224522  10.969   6.470   9.449 -1.7814  0.6470  0.1051
37600SOL     OW24523   5.555   0.321  11.376 -0.2013 -0.5148 -0.1319
37600SOL    HW124524   5.559   0.275  11.461  0.0640  1.2095  0.8271
37600SOL    HW224525   5.644   0.315  11.342  0.4637  1.2909  1.1393
37601SOL     OW24526   3.115   9.508   2.593  0.0766 -0.4837 -0.1587
37601SOL    HW124527   3.095   9.436   2.653  1.6158 -0.1979  0.7366
37601SOL    HW224528   3.063   9.581   2.626  1.3676 -0.1469  1.2879
37602SOL     OW24529   3.252   9.744   8.698  0.3108  0.4867 -0.2110
37602SOL    HW124530   3.157   9.751   8.706  0.4159  1.3582  0.3972
37602SOL    HW224531   3.266   9.683   8.625 -0.7048  1.6508 -1.4281
37603SOL     OW24532   6.967   4.612   6.873 -0.5092  0.3504  0.5190
37603SOL    HW124533   6.939   4.615   6.964 -0.1897 -0.5064  0.6564
37603SOL    HW224534   6.960   4.519   6.849 -0.9172  0.6231 -0.4327
37604SOL     OW24535   0.923   2.675   8.749  0.3553  0.2341 -0.1006
37604SOL    HW124536   0.866   2.659   8.825  1.1943  1.5582  0.8582
37604SOL    HW224537   0.981   2.745   8.778  0.9778  0.4781 -1.8504
37605SOL     OW24538   1.041   8.362   9.975  0.3182  0.1839 -0.2965
37605SOL    HW124539   1.054   8.318  10.059  0.6720 -1.0540 -0.9656
37605SOL    HW224540   1.094   8.311   9.913 -1.7104 -0.3703 -1.6889
37606SOL     OW24541   5.514   0.259   6.714  0.1295 -0.6650 -0.6233
37606SOL    HW124542   5.503   0.334   6.772  2.4653 -1.3456  0.8374
37606SOL    HW224543   5.429   0.215   6.715  0.1056 -0.7795  2.5374
37607SOL     OW24544   3.241   7.672   6.469  0.9817  0.0592  0.0188
37607SOL    HW124545   3.259   7.597   6.413  0.1358 -1.5137  1.7706
37607SOL    HW224546   3.158   7.652   6.512  1.2348  1.5352  1.3007
37608SOL     OW24547   8.029  11.252   3.333  0.1023 -0.5434  0.1690
37608SOL    HW124548   8.049  11.158   3.335  2.2440 -0.1527 -0.5636
37608SOL    HW224549   8.076  11.288   3.408 -0.3812  0.0209  0.2116
37609SOL     OW24550   8.799   5.969   3.453 -0.4192  0.2756  0.2938
37609SOL    HW124551   8.887   5.968   3.416 -0.5763 -1.1306 -0.0909
37609SOL    HW224552   8.746   6.016   3.388 -0.0013  1.0025  0.4638
37610SOL     OW24553   5.174  11.582   0.091  0.1346  0.0714  0.1864
37610SOL    HW124554   5.083  11.604   0.074  0.2479  1.0550  0.8052
37610SOL    HW224555   5.174  11.544   0.179 -0.1453 -3.1080 -1.0337
37611SOL     OW24556   5.806   8.372   8.722 -0.4390  0.5497  0.0421
37611SOL    HW124557   5.745   8.388   8.793 -1.0584 -0.4250 -0.2453
37611SOL    HW224558   5.883   8.333   8.764 -0.6394  0.3533  0.2309
37612SOL     OW24559  11.761   7.387  11.079  0.6030 -0.3263  0.0206
37612SOL    HW124560  11.750   7.415  10.988 -0.2342 -0.8677 -0.0571
37612SOL    HW224561  11.771   7.292  11.075 -1.0722 -0.5558  0.5952
37613SOL     OW24562   3.818   5.022   0.673  0.4056  0.5467  0.1495
37613SOL    HW124563   3.792   4.937   0.709  1.5280 -0.4460 -1.2505
37613SOL    HW224564   3.822   5.007   0.578 -1.6575  2.8118 -0.4166
37614SOL     OW24565   7.761  11.031   5.306 -0.1729  0.7136  0.1157
37614SOL    HW124566   7.791  11.018   5.396 -0.1316  1.4022  0.2030
37614SOL    HW224567   7.840  11.024   5.253 -0.4173 -1.4328 -0.0691
37615SOL     OW24568   4.870   7.154   7.748  0.2414  0.1245 -0.6598
37615SOL    HW124569   4.915   7.210   7.811  0.2855  0.6915 -1.1809
37615SOL    HW224570   4.847   7.213   7.676 -0.9794 -0.2258 -0.5890
37616SOL     OW24571  11.567   5.367   8.952  0.8250  0.4260 -0.1090
37616SOL    HW124572  11.486   5.326   8.980  1.1727  0.2067  0.6038
37616SOL    HW224573  11.544   5.412   8.870  0.3903 -1.0132 -0.8238
37617SOL     OW24574   2.200   0.086   2.064 -0.3081 -0.6548  0.3523
37617SOL    HW124575   2.148   0.025   2.117 -0.3702  1.4140  2.8367
37617SOL    HW224576   2.186   0.171   2.104  2.0040  0.5878 -1.2524
37618SOL     OW24577   1.972   3.270   8.429  0.3082 -0.1187 -0.3748
37618SOL    HW124578   2.045   3.331   8.417  0.4670  0.6354  3.2652
37618SOL    HW224579   2.009   3.198   8.480 -1.0202 -0.8592 -0.4107
37619SOL     OW24580   6.593   0.518   1.074 -0.3182 -0.0439  0.4224
37619SOL    HW124581   6.617   0.595   1.124  1.9889 -0.1346 -0.4143
37619SOL    HW224582   6.620   0.444   1.129 -0.8020 -0.2127  0.4343
37620SOL     OW24583   6.286  10.092  10.858 -0.8427  0.1910 -0.5017
37620SOL    HW124584   6.360  10.097  10.919 -0.1711  4.3223 -1.3653
37620SOL    HW224585   6.227  10.028  10.897  0.4351  1.1499  3.4524
37621SOL     OW24586   5.654   8.973   9.364 -0.0268 -0.3541  0.2399
37621SOL    HW124587   5.597   9.043   9.397  0.2667  0.7344 -1.4381
37621SOL    HW224588   5.598   8.919   9.309 -0.3983 -1.8799  2.0061
37622SOL     OW24589   1.717   9.099   6.130  0.2622 -0.5381 -0.4697
37622SOL    HW124590   1.671   9.077   6.049  1.9820 -0.9495 -1.3845
37622SOL    HW224591   1.695   9.028   6.190  0.0608 -0.9491 -1.0227
37623SOL     OW24592   6.498   5.290  10.723 -0.0397  0.7579 -0.0778
37623SOL    HW124593   6.404   5.273  10.721  0.1209 -0.6612  1.7116
37623SOL    HW224594   6.505   5.382  10.751 -0.8885  0.7103  0.3104
37624SOL     OW24595   7.408   0.303   5.941 -0.0934  0.4743  0.4429
37624SOL    HW124596   7.397   0.263   6.027  2.8144  0.8316  1.0622
37624SOL    HW224597   7.404   0.229   5.880  1.5716 -0.3244  1.2429
37625SOL     OW24598   5.957   3.927   9.497  0.1572 -0.5883 -0.5203
37625SOL    HW124599   5.934   3.852   9.552 -0.7168  0.5319  0.6996
37625SOL    HW224600   5.983   3.995   9.559 -1.1334  0.8144 -1.4649
37626SOL     OW24601   7.880   4.584   0.276 -0.2074 -0.5590 -0.1323
37626SOL    HW124602   7.886   4.680   0.269  0.4112 -0.6511 -0.9969
37626SOL    HW224603   7.955   4.560   0.330 -0.4593 -0.5441  0.2258
37627SOL     OW24604   1.461  10.051   5.558  0.1992 -0.2945  0.0752
37627SOL    HW124605   1.436  10.119   5.621  0.1371  3.1028 -3.2078
37627SOL    HW224606   1.535  10.090   5.511  0.2778 -2.6442 -1.8872
37628SOL     OW24607   5.552   4.869  11.376  0.4580  0.1660  0.3209
37628SOL    HW124608   5.615   4.939  11.357 -1.1396  1.3472 -0.8956
37628SOL    HW224609   5.520   4.889  11.464 -0.2140  1.1980 -0.1329
37629SOL     OW24610   7.078   7.836   6.794  0.7427 -0.0739  0.2755
37629SOL    HW124611   7.039   7.858   6.879 -2.2991  0.0466 -0.9976
37629SOL    HW224612   7.132   7.912   6.773 -1.5610  1.7720  0.4565
37630SOL     OW24613   5.299   1.422  11.150 -0.5070  0.0039 -0.2407
37630SOL    HW124614   5.248   1.385  11.078  0.5670 -1.0180 -0.4980
37630SOL    HW224615   5.302   1.352  11.215  1.7587 -0.5366 -0.8297
37631SOL     OW24616   8.309   7.111   0.342 -0.1910 -0.5577  0.5583
37631SOL    HW124617   8.286   7.155   0.424 -0.6817  0.2205  0.0006
37631SOL    HW224618   8.371   7.170   0.299 -1.2076 -0.1643 -0.4104
37632SOL     OW24619  10.017   6.473   0.393  0.1398  0.4915  0.2400
37632SOL    HW124620  10.007   6.401   0.454  1.8735  1.5180  1.8508
37632SOL    HW224621   9.928   6.494   0.364 -0.5841 -0.8634  1.3913
37633SOL     OW24622  11.069   3.757   8.000  0.0177 -0.1212  0.3636
37633SOL    HW124623  11.120   3.819   7.948  0.9489  0.3275  1.7549
37633SOL    HW224624  10.978   3.779   7.981  0.3294  0.2219 -0.8217
37634SOL     OW24625   1.407   2.669   0.859 -0.9591  0.7726 -0.0669
37634SOL    HW124626   1.318   2.639   0.842 -0.9011 -0.2205  1.2349
37634SOL    HW224627   1.401   2.717   0.941 -0.1667 -0.0081  0.4682
37635SOL     OW24628   3.349   1.197   7.169  0.1814 -0.5728 -0.5043
37635SOL    HW124629   3.275   1.207   7.228 -1.3685  0.0660 -2.4308
37635SOL    HW224630   3.325   1.247   7.091  2.4976 -0.6527 -1.3597
37636SOL     OW24631  11.271   6.531   6.835 -0.2784 -0.0742  0.0340
37636SOL    HW124632  11.280   6.593   6.763  1.4481 -0.1982  0.1058
37636SOL    HW224633  11.284   6.445   6.795  0.4661 -0.1583  0.4307
37637SOL     OW24634   3.237   5.006   5.845  0.1424  0.5516  0.2719
37637SOL    HW124635   3.164   5.062   5.871 -1.2991 -0.9257 -0.3665
37637SOL    HW224636   3.256   5.032   5.754 -1.8460 -1.1830 -0.7346
37638SOL     OW24637   3.265   4.107  10.673  0.0791  0.2033  0.9433
37638SOL    HW124638   3.254   4.030  10.617 -0.0737  1.0003 -0.1546
37638SOL    HW224639   3.182   4.153  10.668  0.4184  0.8356  0.9868
37639SOL     OW24640   4.963   3.302   7.740  0.3353 -0.1178  0.5528
37639SOL    HW124641   5.024   3.373   7.720  1.0921 -0.2577  2.1796
37639SOL    HW224642   4.887   3.345   7.777 -0.1572 -0.0229 -0.5205
37640SOL     OW24643  10.672   0.407   4.425  0.6148  0.4737 -0.0443
37640SOL    HW124644  10.599   0.456   4.388 -1.3001 -0.7157  1.9028
37640SOL    HW224645  10.693   0.340   4.359 -1.5508 -0.5240  0.1834
37641SOL     OW24646   8.062   5.832  10.727 -0.6571  0.0183  0.2234
37641SOL    HW124647   8.154   5.838  10.755 -0.9194  0.2266  1.0785
37641SOL    HW224648   8.012   5.834  10.809 -1.3655 -1.6031 -0.1168
37642SOL     OW24649   2.738  11.115   8.079 -0.5875  0.2664 -0.5120
37642SOL    HW124650   2.740  11.207   8.104  0.2217  0.2110 -0.3510
37642SOL    HW224651   2.650  11.101   8.045 -0.5098  1.2668 -1.1635
37643SOL     OW24652  11.414   2.480   3.478  0.3764  0.5197 -0.3227
37643SOL    HW124653  11.453   2.565   3.458  1.0800  0.2515 -0.1069
37643SOL    HW224654  11.320   2.499   3.488  0.7089  1.5389  1.1680
37644SOL     OW24655   2.202  11.858   0.705 -0.6897 -0.3586  0.8072
37644SOL    HW124656   2.114  11.884   0.731  0.2790  0.7039  3.3943
37644SOL    HW224657   2.242  11.940   0.674  0.3782 -0.0328  2.8781
37645SOL     OW24658   4.512   1.099   9.599  0.0265 -0.4044 -0.1316
37645SOL    HW124659   4.545   1.028   9.654  0.3750  0.8010  1.2911
37645SOL    HW224660   4.423   1.114   9.629  0.4405  0.7026  0.6143
37646SOL     OW24661   1.789   0.996   9.176  0.4736  0.2573  0.1825
37646SOL    HW124662   1.773   0.926   9.113  1.0984  0.0198  0.2772
37646SOL    HW224663   1.868   1.040   9.143  0.0129  0.9984  0.0533
37647SOL     OW24664   2.543   9.860   5.171 -0.2759 -0.5488 -0.1702
37647SOL    HW124665   2.520   9.924   5.239  0.7011  0.6430 -0.9199
37647SOL    HW224666   2.613   9.902   5.121 -0.0244 -1.9709 -1.0777
37648SOL     OW24667   1.818   6.409   6.969  0.1829 -0.1379 -0.5900
37648SOL    HW124668   1.747   6.356   7.005  0.1344 -0.2331 -0.8280
37648SOL    HW224669   1.859   6.353   6.903  1.0383 -0.4244  0.1630
37649SOL     OW24670   2.183  10.122   9.663  0.3144 -0.0373 -0.1369
37649SOL    HW124671   2.186  10.042   9.716  1.2067  0.7043  0.9937
37649SOL    HW224672   2.161  10.092   9.575 -0.6775 -1.3774  0.5322
37650SOL     OW24673   5.290   1.669   0.341 -0.3332 -0.1426 -0.0826
37650SOL    HW124674   5.276   1.631   0.255  1.6758 -1.7213  0.1924
37650SOL    HW224675   5.251   1.756   0.336  1.9740  0.9218 -3.5103
37651SOL     OW24676  10.017  11.908   8.911  0.0525 -0.1516 -0.6789
37651SOL    HW124677  10.034  11.925   9.004  1.4929 -0.0702 -0.9334
37651SOL    HW224678  10.090  11.949   8.865 -0.1009 -1.0536 -1.7871
37652SOL     OW24679   7.902  11.134   2.458 -0.3634 -0.1739 -0.0859
37652SOL    HW124680   7.866  11.205   2.512 -1.9176 -1.1057  0.1796
37652SOL    HW224681   7.903  11.058   2.517 -0.8150 -0.8886 -0.9767
37653SOL     OW24682   8.352   2.347   6.318  0.1594 -0.1562  0.6051
37653SOL    HW124683   8.395   2.291   6.254 -0.0475  0.6848 -0.3087
37653SOL    HW224684   8.307   2.413   6.265 -0.0350  0.5572  1.6256
37654SOL     OW24685   7.875   9.585   8.126 -0.1675 -0.1613  0.3172
37654SOL    HW124686   7.815   9.659   8.118 -2.1858 -1.7656 -0.1932
37654SOL    HW224687   7.865   9.556   8.216  0.6370  0.1847  0.5235
37655SOL     OW24688  11.349  11.395  10.616  1.1996  0.5015 -0.1434
37655SOL    HW124689  11.255  11.401  10.636  1.4039 -0.3628  1.2424
37655SOL    HW224690  11.363  11.459  10.546  0.1584  2.9440  1.7271
37656SOL     OW24691   6.053   3.243   6.563  0.6300  0.0173 -0.0756
37656SOL    HW124692   6.072   3.150   6.546  0.6706  0.1554 -0.7936
37656SOL    HW224693   6.061   3.251   6.658 -1.0681 -1.0998  0.2050
37657SOL     OW24694   2.142   5.274   7.038 -0.0424  0.2485 -0.0137
37657SOL    HW124695   2.181   5.312   6.959 -0.9163  0.2813 -0.4465
37657SOL    HW224696   2.207   5.211   7.069  0.0620 -0.2279 -1.1210
37658SOL     OW24697   7.312   6.106   3.723 -0.3809  0.4717  0.6054
37658SOL    HW124698   7.219   6.126   3.721 -0.8004 -1.2365  1.3891
37658SOL    HW224699   7.347   6.146   3.643 -1.8493  0.8274  0.1164
37659SOL     OW24700   4.705   6.359   8.299  0.3202  0.5485  0.0824
37659SOL    HW124701   4.739   6.432   8.248  0.9172  1.0062  1.0958
37659SOL    HW224702   4.781   6.303   8.315  0.6063  1.4465  2.1497
37660SOL     OW24703   3.075   1.494   6.282 -0.2164 -0.4723 -0.2498
37660SOL    HW124704   3.088   1.576   6.234 -4.4854  0.4351 -0.2641
37660SOL    HW224705   3.160   1.450   6.278  1.5742  2.7483 -2.4556
37661SOL     OW24706   7.868  10.385  10.729 -0.2953 -0.0622 -0.2409
37661SOL    HW124707   7.871  10.358  10.820  0.0880 -1.6532 -0.6949
37661SOL    HW224708   7.921  10.464  10.725 -0.2680 -0.0127  0.8959
37662SOL     OW24709   0.809  10.050   8.284  0.3686 -0.0372 -0.1931
37662SOL    HW124710   0.787  10.141   8.305 -1.4031 -0.4772  0.0244
37662SOL    HW224711   0.828  10.050   8.190  0.5159  0.5596 -0.1663
37663SOL     OW24712   0.335   2.217   6.675  0.3841  0.0029  0.3332
37663SOL    HW124713   0.331   2.152   6.745  1.3936 -0.0750  0.3333
37663SOL    HW224714   0.372   2.295   6.717  1.2143 -0.1183 -0.1512
37664SOL     OW24715   0.220   4.795   9.881 -0.1355  0.1260 -0.2577
37664SOL    HW124716   0.193   4.884   9.857  0.2518  0.2461 -0.2636
37664SOL    HW224717   0.148   4.739   9.853 -0.9567  0.5727  0.9159
37665SOL     OW24718   7.019   3.267   0.802  0.4203  0.5324  0.4274
37665SOL    HW124719   6.956   3.338   0.787  1.0002  1.0241  0.2823
37665SOL    HW224720   6.998   3.202   0.735  1.2027  1.4875 -0.7897
37666SOL     OW24721   2.677  10.369   9.253 -0.9817 -0.4109 -0.4891
37666SOL    HW124722   2.713  10.456   9.233  0.2757 -0.7439  0.2836
37666SOL    HW224723   2.654  10.373   9.345 -1.2503 -0.8049 -0.5356
37667SOL     OW24724   9.689   7.386   5.233  0.0264 -0.1241  0.0056
37667SOL    HW124725   9.649   7.429   5.308  2.0198  1.7851  0.0762
37667SOL    HW224726   9.628   7.402   5.161 -0.5315  0.5479  0.6095
37668SOL     OW24727  11.708   7.556   1.613 -0.3860 -0.2774 -0.2220
37668SOL    HW124728  11.668   7.643   1.604 -0.8885 -0.5549 -0.7037
37668SOL    HW224729  11.776   7.554   1.546 -1.2894 -0.7586 -1.1417
37669SOL     OW24730   0.552   5.536   8.822 -0.1599 -0.0608 -0.2334
37669SOL    HW124731   0.532   5.547   8.729 -0.3959  1.3808 -0.0392
37669SOL    HW224732   0.628   5.593   8.838 -0.8374  0.6281  0.6792
37670SOL     OW24733  10.564   4.928   7.088 -0.4934  0.4548 -0.1152
37670SOL    HW124734  10.574   5.023   7.078 -2.8201  0.7269 -0.3256
37670SOL    HW224735  10.546   4.897   6.999 -0.8742 -0.0184  0.1222
37671SOL     OW24736   4.120   7.584  10.922 -0.0789 -0.0293 -0.1799
37671SOL    HW124737   4.082   7.668  10.945 -0.1628 -0.1932  0.2813
37671SOL    HW224738   4.214   7.598  10.928 -0.1026 -0.4414  1.6423
37672SOL     OW24739  11.719   4.372   4.066 -1.2404  0.2521 -0.5085
37672SOL    HW124740  11.769   4.292   4.081 -1.3563 -0.0269 -1.5464
37672SOL    HW224741  11.781   4.432   4.026 -1.6064  0.0639 -1.3746
37673SOL     OW24742  10.006   4.298  11.007 -0.0131  0.2001  0.0261
37673SOL    HW124743  10.099   4.289  10.988 -0.4297  0.9979 -2.8807
37673SOL    HW224744  10.003   4.352  11.086  1.9766  0.0898  0.2306
37674SOL     OW24745  11.601   4.924   2.878  0.1779  0.2195 -0.2218
37674SOL    HW124746  11.679   4.970   2.848  1.6071 -2.0978 -0.3133
37674SOL    HW224747  11.539   4.933   2.806  1.7583 -1.0452 -1.8594
37675SOL     OW24748  10.388   1.887   4.054  0.0371 -0.3290  0.3313
37675SOL    HW124749  10.347   1.901   3.968 -0.4642 -0.2487  0.5782
37675SOL    HW224750  10.432   1.803   4.046  0.6613  0.0457 -0.2570
37676SOL     OW24751  10.338   8.428   6.777 -0.0502 -0.0513  0.8184
37676SOL    HW124752  10.285   8.492   6.824  0.2398  0.3519  0.6005
37676SOL    HW224753  10.386   8.479   6.713  0.2726 -0.4738  0.7196
37677SOL     OW24754   4.592  11.778   6.343  0.1124  0.3733 -0.8581
37677SOL    HW124755   4.535  11.779   6.419  0.9025 -2.5225 -0.1219
37677SOL    HW224756   4.663  11.838   6.365  0.6236 -0.8323  0.9887
37678SOL     OW24757   5.472   1.959   9.917  0.5716  0.0256 -0.5564
37678SOL    HW124758   5.456   1.920   9.832  1.5625 -2.0047  0.1123
37678SOL    HW224759   5.491   1.884   9.975  0.2400  1.3458  1.3658
37679SOL     OW24760   6.819   4.047   5.024  0.0555  0.2249 -0.2453
37679SOL    HW124761   6.888   4.103   4.989 -0.1419 -0.4845 -1.8633
37679SOL    HW224762   6.866   3.977   5.070  0.4206 -0.1384 -1.1546
37680SOL     OW24763   8.456   1.672   6.430 -0.2352  0.3837  0.6264
37680SOL    HW124764   8.421   1.584   6.440  0.7379 -0.3588 -1.7209
37680SOL    HW224765   8.381   1.725   6.402 -0.3322 -0.2928 -0.4431
37681SOL     OW24766   9.455   5.991   3.126  0.4157  0.0266 -0.3493
37681SOL    HW124767   9.439   5.977   3.032  1.2400  0.9435 -0.6384
37681SOL    HW224768   9.550   6.004   3.132  0.2787  0.6697  0.5184
37682SOL     OW24769   3.434   2.311   3.524  0.2977  0.1551 -0.0720
37682SOL    HW124770   3.457   2.228   3.565 -2.5901  0.4416  2.5692
37682SOL    HW224771   3.475   2.377   3.580 -1.0811  0.5053  0.5770
37683SOL     OW24772   2.149   6.494   0.051  0.2526 -0.3789 -0.0040
37683SOL    HW124773   2.091   6.553   0.099 -0.1095 -1.7154  1.2700
37683SOL    HW224774   2.158   6.534  -0.035  0.7496  2.0199  1.0711
37684SOL     OW24775   1.641   0.491   1.333  0.0773  0.3016 -0.5359
37684SOL    HW124776   1.672   0.400   1.326 -0.3428  0.2066 -1.1735
37684SOL    HW224777   1.546   0.484   1.331  0.0287  0.7137  0.0135
37685SOL     OW24778   2.603   2.111   8.806  0.5167  0.0916  0.2425
37685SOL    HW124779   2.556   2.031   8.782  1.2685  0.2504 -1.9457
37685SOL    HW224780   2.680   2.079   8.853  0.9049 -0.5260 -0.7663
37686SOL     OW24781   3.088   8.729   6.981 -0.0375  0.0596  0.4540
37686SOL    HW124782   3.149   8.803   6.975  1.8347 -1.3272  1.3360
37686SOL    HW224783   3.037   8.733   6.900  0.4653  1.9151  0.1892
37687SOL     OW24784   8.072   9.364   8.791  0.5696  0.0969 -0.5849
37687SOL    HW124785   8.121   9.411   8.724  1.5105 -0.1876 -0.1058
37687SOL    HW224786   8.109   9.276   8.791  1.8790  0.5659  1.5429
37688SOL     OW24787   9.389   9.002  10.655  0.1191 -0.2204  0.0753
37688SOL    HW124788   9.458   9.027  10.716  1.5238 -0.2339 -1.4292
37688SOL    HW224789   9.406   9.054  10.576  0.5188 -2.6642 -1.5781
37689SOL     OW24790   0.577   0.775   3.912  0.1337  0.1042  0.2556
37689SOL    HW124791   0.496   0.764   3.861 -0.6473  1.0767  1.2506
37689SOL    HW224792   0.646   0.781   3.845 -0.6927 -0.0061 -0.6364
37690SOL     OW24793  10.135   1.703   6.969  0.3784  0.1139  0.0660
37690SOL    HW124794  10.109   1.682   7.059 -1.2953 -1.5484 -0.7471
37690SOL    HW224795  10.093   1.788   6.952 -3.1098 -1.5461 -0.5071
37691SOL     OW24796   3.311   5.477   3.585 -0.2026 -0.6852  0.0178
37691SOL    HW124797   3.349   5.543   3.527 -0.1917 -0.6019  0.1197
37691SOL    HW224798   3.312   5.518   3.671  0.8768 -1.2489  0.2961
37692SOL     OW24799   2.776   6.157   4.130 -0.3386 -0.0407 -0.1153
37692SOL    HW124800   2.757   6.239   4.175 -0.8014 -0.1717 -0.0758
37692SOL    HW224801   2.857   6.126   4.171 -0.8198 -0.2213  0.7133
37693SOL     OW24802   1.215   5.094   8.488 -0.0537  0.2063 -0.3394
37693SOL    HW124803   1.121   5.090   8.473 -0.1518 -0.2883  0.3301
37693SOL    HW224804   1.236   5.010   8.531  0.6214  0.4781 -0.1184
37694SOL     OW24805   4.289   0.104   4.367 -0.1568  0.1185  0.3537
37694SOL    HW124806   4.316   0.080   4.456 -1.5634 -0.7658  0.5639
37694SOL    HW224807   4.301   0.199   4.363 -0.3482  0.2112  1.5798
37695SOL     OW24808   4.213   4.462   9.947  0.0197 -0.1010 -0.2362
37695SOL    HW124809   4.129   4.416   9.947 -0.7235  1.1982 -0.8958
37695SOL    HW224810   4.228   4.484  10.039 -0.2991 -0.4392 -0.0985
37696SOL     OW24811   7.445   8.604   8.920 -0.3098 -0.2994 -0.8418
37696SOL    HW124812   7.445   8.695   8.889  0.1689  0.5968  1.5013
37696SOL    HW224813   7.353   8.579   8.922 -0.6505  0.9143  0.3855
37697SOL     OW24814   6.357   8.916   6.005  0.0871 -0.8900 -1.0290
37697SOL    HW124815   6.364   8.991   6.063  0.0496  0.0905 -2.2413
37697SOL    HW224816   6.281   8.867   6.036  1.7664 -2.0584  1.5514
37698SOL     OW24817   8.078   6.251   5.810  0.1531  0.2038  0.2649
37698SOL    HW124818   8.095   6.158   5.796 -3.0948 -0.3680 -0.6845
37698SOL    HW224819   8.085   6.262   5.905  0.3952 -1.0542  0.4096
37699SOL     OW24820   7.688   2.236   8.549  0.4724 -0.0743 -0.4874
37699SOL    HW124821   7.682   2.262   8.641  0.5437  0.6456 -0.6818
37699SOL    HW224822   7.639   2.153   8.545  1.3903 -0.6831  0.4074
37700SOL     OW24823   9.444   6.764   6.487  0.3825  0.0485 -0.0141
37700SOL    HW124824   9.470   6.694   6.546 -1.7550 -0.2996  0.6096
37700SOL    HW224825   9.448   6.844   6.540 -1.2464 -0.2230  0.5714
37701SOL     OW24826   0.460   8.709   7.373  0.2540 -0.1142 -0.5891
37701SOL    HW124827   0.407   8.778   7.335 -0.9813 -0.7229 -0.0217
37701SOL    HW224828   0.470   8.644   7.303 -0.5029 -0.4066 -0.4290
37702SOL     OW24829  11.371   7.123   3.277  0.2203  0.3477  0.2469
37702SOL    HW124830  11.409   7.069   3.345  0.5416 -2.7293 -2.1431
37702SOL    HW224831  11.295   7.073   3.247 -0.8348  2.3583 -0.6181
37703SOL     OW24832   9.405   9.931   5.660  0.1128 -0.4162  0.3748
37703SOL    HW124833   9.375   9.843   5.684 -0.4069 -0.1407  0.7453
37703SOL    HW224834   9.390   9.984   5.738 -0.1154  0.1320 -0.0412
37704SOL     OW24835   5.048   4.652  11.944  0.4107 -0.0852 -0.3003
37704SOL    HW124836   5.054   4.565  11.904 -1.6054 -0.4102 -0.0318
37704SOL    HW224837   5.130   4.661  11.993  1.2135 -1.2948 -1.3473
37705SOL     OW24838   8.152   8.357   7.515 -0.2155 -0.7346 -0.2299
37705SOL    HW124839   8.088   8.393   7.577 -1.0234  0.2346 -1.5534
37705SOL    HW224840   8.219   8.425   7.508  0.9283 -1.6719  1.0151
37706SOL     OW24841   5.855  10.902   6.335  0.2826 -0.1711  0.4554
37706SOL    HW124842   5.835  10.831   6.273 -0.1192 -0.7818  1.2596
37706SOL    HW224843   5.896  10.857   6.409 -0.0527  0.4292  1.0110
37707SOL     OW24844   9.051   3.772   3.430  0.1194  0.0480  0.3665
37707SOL    HW124845   8.973   3.720   3.446 -0.9786  1.6323  0.4018
37707SOL    HW224846   9.028   3.861   3.458  1.9328  0.5700  0.3906
37708SOL     OW24847  11.640   1.537   0.398  0.4038  0.2543 -0.3011
37708SOL    HW124848  11.552   1.554   0.363 -0.2070 -1.2114  0.4581
37708SOL    HW224849  11.693   1.610   0.365 -1.9033  3.5166  2.5087
37709SOL     OW24850   3.214   9.938  11.134 -0.0082  0.1453  0.8991
37709SOL    HW124851   3.263  10.003  11.084  1.1374 -0.2786  1.4310
37709SOL    HW224852   3.185   9.984  11.212 -0.1639  0.3080  0.7464
37710SOL     OW24853   1.256   1.526   5.985  0.3497  0.1215 -0.3813
37710SOL    HW124854   1.213   1.599   6.030  2.3659  0.6181  0.8660
37710SOL    HW224855   1.348   1.534   6.008  1.2271 -0.7226 -3.1579
37711SOL     OW24856  10.750   0.749   1.094  0.1058 -0.1292 -0.1530
37711SOL    HW124857  10.689   0.823   1.095  1.7250  1.2583  1.1238
37711SOL    HW224858  10.769   0.734   1.002 -2.5508 -0.9955 -0.6529
37712SOL     OW24859  10.959   5.595   8.985 -0.0718 -0.3761  0.0102
37712SOL    HW124860  10.950   5.588   8.890 -2.5121  1.0397  0.0572
37712SOL    HW224861  10.874   5.566   9.019 -0.1555  1.5302  1.5795
37713SOL     OW24862   4.754   1.017  11.619 -0.2267  0.2464  0.0743
37713SOL    HW124863   4.712   1.055  11.542  0.9372 -0.3124 -0.8713
37713SOL    HW224864   4.791   1.092  11.665 -1.1881  0.6151  0.2652
37714SOL     OW24865   9.764   3.748  10.267 -0.1927  0.5361 -0.7967
37714SOL    HW124866   9.697   3.803  10.307  0.2107  1.4574 -1.3692
37714SOL    HW224867   9.844   3.799  10.273  0.4034 -0.4211 -0.4125
37715SOL     OW24868  11.814   4.070   7.246  0.4544 -0.5737 -0.8011
37715SOL    HW124869  11.794   4.134   7.314 -0.7628 -1.7804  0.0414
37715SOL    HW224870  11.833   3.989   7.293 -0.2737 -1.4081 -1.8786
37716SOL     OW24871   4.448   9.352   1.935  0.0251  0.1032  0.0058
37716SOL    HW124872   4.442   9.319   2.025 -0.0770 -0.0513 -0.0572
37716SOL    HW224873   4.370   9.407   1.925  0.0887  0.1994  0.0453
37717SOL     OW24874   4.945   5.773   9.242  0.4663  0.4391  0.9880
37717SOL    HW124875   4.966   5.824   9.163  1.7842 -0.3164  0.8242
37717SOL    HW224876   4.889   5.702   9.210  1.3649 -0.1236  0.6425
37718SOL     OW24877   3.604   0.865   4.002  0.5857 -0.2023 -0.6144
37718SOL    HW124878   3.666   0.870   3.930  1.1800 -2.0038 -0.2828
37718SOL    HW224879   3.648   0.908   4.075  1.8949 -2.2286 -0.1342
37719SOL     OW24880   0.385   4.619   8.648 -0.7237 -0.1820  0.0493
37719SOL    HW124881   0.472   4.637   8.683 -1.8391  4.8823  1.0088
37719SOL    HW224882   0.330   4.612   8.726 -1.5858 -0.4130 -0.5722
37720SOL     OW24883   2.543   5.106   7.644 -0.6789  0.5378  0.0593
37720SOL    HW124884   2.494   5.171   7.594  2.2831  1.6235 -1.6996
37720SOL    HW224885   2.568   5.150   7.725 -1.0200  0.6054  0.1294
37721SOL     OW24886   5.521   9.410   2.942 -0.2980  0.4964  0.6854
37721SOL    HW124887   5.439   9.404   2.892  0.4090  1.9754 -0.7321
37721SOL    HW224888   5.559   9.322   2.937 -1.3527  0.0270  0.6118
37722SOL     OW24889   1.317   7.541   5.707 -0.0317  0.7767  0.3994
37722SOL    HW124890   1.256   7.553   5.781 -1.8928  1.9207 -1.2206
37722SOL    HW224891   1.403   7.540   5.748 -1.0251  0.6217  2.6698
37723SOL     OW24892   1.242   9.775   7.360  0.1163  0.0253  0.2728
37723SOL    HW124893   1.212   9.815   7.441 -2.2284 -0.6064 -0.2299
37723SOL    HW224894   1.265   9.685   7.383  0.0181  0.0203  0.3472
37724SOL     OW24895  10.559   9.015   0.132  0.3240  0.1292  0.0251
37724SOL    HW124896  10.473   8.984   0.104  0.7719  0.2209 -1.5536
37724SOL    HW224897  10.552   9.111   0.128  0.3190  0.1543  0.5212
37725SOL     OW24898   2.517   9.407   7.049 -0.2858 -0.6482  0.0108
37725SOL    HW124899   2.494   9.371   7.135  0.7175  0.6701  0.8918
37725SOL    HW224900   2.608   9.437   7.060 -0.5999  0.8069 -1.0791
37726SOL     OW24901   2.555   9.065   3.994  0.0816  0.6968  0.2211
37726SOL    HW124902   2.528   9.156   4.004  1.2616  1.1607 -0.5993
37726SOL    HW224903   2.642   9.061   4.034 -0.1093 -0.1654  0.5743
37727SOL     OW24904   0.267   0.981   3.593  0.1433  0.2133 -0.1628
37727SOL    HW124905   0.188   1.034   3.603 -2.5195 -2.8740 -2.5316
37727SOL    HW224906   0.302   1.006   3.508 -1.2413 -1.7514 -1.3841
37728SOL     OW24907  11.343   9.326   5.050 -0.0166  0.6447  0.0270
37728SOL    HW124908  11.368   9.265   5.120  1.4673 -0.4030 -1.3675
37728SOL    HW224909  11.405   9.309   4.980 -0.0532  3.2532 -0.7208
37729SOL     OW24910   1.655   9.259   2.538 -0.4145 -0.2317 -0.2917
37729SOL    HW124911   1.718   9.236   2.606 -0.5867 -2.2940 -0.7535
37729SOL    HW224912   1.707   9.272   2.459 -0.3377  0.9123 -0.0749
37730SOL     OW24913   8.426   5.606  11.746 -0.1726  0.3705  0.5752
37730SOL    HW124914   8.407   5.671  11.814 -3.1382 -0.2822  0.4792
37730SOL    HW224915   8.411   5.653  11.664 -1.3196 -0.1398  0.4865
37731SOL     OW24916   2.447   6.377   2.714 -0.2308  0.0210 -0.3652
37731SOL    HW124917   2.405   6.451   2.670  0.8642  0.3838 -0.8472
37731SOL    HW224918   2.494   6.416   2.787 -0.9740 -0.4220  0.3690
37732SOL     OW24919   6.900   9.197   9.821 -0.3545 -0.5071 -0.0206
37732SOL    HW124920   6.962   9.185   9.749  0.9698  1.6747  0.6849
37732SOL    HW224921   6.922   9.128   9.884  0.3536 -0.6903 -0.4597
37733SOL     OW24922   6.088   8.964  11.911 -0.4728 -0.0919 -0.1457
37733SOL    HW124923   6.008   9.000  11.949 -0.6261 -0.4486 -0.1341
37733SOL    HW224924   6.090   8.873  11.940 -0.1727 -0.1414 -0.3216
37734SOL     OW24925   5.627   9.917   5.489 -0.2896  0.1860 -0.0038
37734SOL    HW124926   5.702   9.899   5.433  0.3268 -0.5809  1.0129
37734SOL    HW224927   5.558   9.946   5.430  0.1176 -1.2370 -1.2334
37735SOL     OW24928   5.317   4.825   9.165 -0.0083  0.3039  0.0242
37735SOL    HW124929   5.408   4.798   9.168 -0.1616 -0.3732 -1.0597
37735SOL    HW224930   5.320   4.915   9.132  0.1246 -0.8538 -3.5037
37736SOL     OW24931   4.414  10.767   5.453  0.2040 -0.4530 -0.2798
37736SOL    HW124932   4.468  10.734   5.381  1.5527  0.9571  0.0078
37736SOL    HW224933   4.421  10.701   5.521  1.4603 -0.3981 -0.3244
37737SOL     OW24934   5.432   2.081   4.061 -0.1237 -0.1355 -0.7140
37737SOL    HW124935   5.463   2.127   4.139  1.0239 -1.4603 -0.3643
37737SOL    HW224936   5.337   2.092   4.064 -0.1662 -0.6056  1.1974
37738SOL     OW24937   9.313   6.203   3.525  0.0445  0.3518 -0.5218
37738SOL    HW124938   9.301   6.173   3.435  0.2106 -2.3113  0.2652
37738SOL    HW224939   9.243   6.160   3.574  2.4127 -1.7654  1.2808
37739SOL     OW24940   4.419  11.956   5.893  0.0249 -0.3697  0.2173
37739SOL    HW124941   4.399  11.931   5.803 -1.2312  0.8719  0.1154
37739SOL    HW224942   4.422  11.873   5.941  0.6404 -1.0333 -0.9433
37740SOL     OW24943   9.659   2.213   3.716  0.0901  0.1237 -0.0120
37740SOL    HW124944   9.599   2.282   3.686  0.0691 -0.3470 -1.0830
37740SOL    HW224945   9.744   2.255   3.719  0.2863 -0.0807 -1.8061
37741SOL     OW24946   1.365  11.859   1.289 -0.4443  0.3530 -0.4323
37741SOL    HW124947   1.297  11.922   1.266  0.9598  1.9544 -0.4190
37741SOL    HW224948   1.381  11.810   1.209 -0.5608  1.0214 -0.8715
37742SOL     OW24949   2.252   7.948   8.477  0.0235  0.0526 -0.1222
37742SOL    HW124950   2.163   7.915   8.466 -0.3351  1.0708 -0.3956
37742SOL    HW224951   2.283   7.963   8.387  1.4841 -2.7629 -0.2207
37743SOL     OW24952   1.574   3.889   5.836  0.2926  0.3197 -0.2236
37743SOL    HW124953   1.537   3.838   5.764  1.0918 -0.2316 -0.2506
37743SOL    HW224954   1.597   3.824   5.902  2.0381  0.5298 -0.5736
37744SOL     OW24955   2.479  10.606   9.680 -0.2211  0.2365  0.2776
37744SOL    HW124956   2.566  10.607   9.721 -0.1303  0.8403  0.0933
37744SOL    HW224957   2.425  10.554   9.738  0.7703 -1.9474 -0.6540
37745SOL     OW24958   2.233   2.244   7.018  0.0915 -0.2373  0.3492
37745SOL    HW124959   2.218   2.179   7.087  0.4753 -0.3918  0.2937
37745SOL    HW224960   2.201   2.203   6.938 -0.4698 -0.0084  0.4496
37746SOL     OW24961   4.759   0.926   7.660 -0.6009 -0.0085  0.4503
37746SOL    HW124962   4.839   0.972   7.688 -0.7280 -0.5804  1.8420
37746SOL    HW224963   4.723   0.981   7.590  1.9575 -0.6678 -1.5089
37747SOL     OW24964   9.946   4.586   0.963 -0.1749  0.2002  0.0895
37747SOL    HW124965  10.015   4.649   0.982  0.0053 -0.2752  1.0883
37747SOL    HW224966   9.868   4.622   1.004 -0.7288  1.0994 -1.6547
37748SOL     OW24967   3.465   5.842  10.763  0.0977 -0.5107  0.0503
37748SOL    HW124968   3.508   5.828  10.847 -0.6612  1.1031  0.7610
37748SOL    HW224969   3.437   5.754  10.736 -0.2623 -1.0037  1.8372
37749SOL     OW24970  10.855   5.215   6.520  0.2006 -0.3982  0.1386
37749SOL    HW124971  10.922   5.198   6.454 -0.5794  1.4455 -1.2066
37749SOL    HW224972  10.903   5.257   6.592  0.7598 -0.7686 -0.0094
37750SOL     OW24973   7.833  10.798   8.524  0.4764 -0.9807 -0.2124
37750SOL    HW124974   7.881  10.878   8.546 -0.7081  0.3666 -2.2670
37750SOL    HW224975   7.888  10.753   8.460  0.7068 -1.3694  0.2475
37751SOL     OW24976   9.265   3.401  10.063 -0.0738 -0.2657 -0.0799
37751SOL    HW124977   9.216   3.410  10.145 -0.2812  0.3181 -0.2647
37751SOL    HW224978   9.254   3.485  10.019  1.9066  0.2432  0.3054
37752SOL     OW24979  10.011   1.926   2.172 -0.1566 -0.1049 -0.2939
37752SOL    HW124980   9.938   1.982   2.196 -2.0416 -1.5834 -2.2197
37752SOL    HW224981  10.003   1.850   2.230  0.4258  0.1154  0.0893
37753SOL     OW24982   6.216   1.834   0.692  0.2542 -0.5125  0.5592
37753SOL    HW124983   6.133   1.879   0.709  0.8265  0.0711  1.9634
37753SOL    HW224984   6.277   1.904   0.670  0.4207 -0.9301 -0.3542
37754SOL     OW24985   1.106   0.349   7.998 -0.0427  0.4300 -0.3286
37754SOL    HW124986   1.082   0.394   8.079  0.3156  0.5088 -0.2661
37754SOL    HW224987   1.047   0.274   7.994 -0.7177  0.9496 -0.4820
37755SOL     OW24988   3.116   3.475  11.035  0.5205  0.2203  0.4481
37755SOL    HW124989   3.114   3.562  11.073  0.3665  0.1745  0.5472
37755SOL    HW224990   3.086   3.487  10.945  0.7648  0.3102  0.3771
37756SOL     OW24991   8.812   8.929   1.719  0.4538  0.3185  0.0261
37756SOL    HW124992   8.855   8.998   1.769  1.3456  0.5460 -1.0133
37756SOL    HW224993   8.804   8.965   1.630  1.9364 -1.2840 -0.8128
37757SOL     OW24994   4.436  10.919   2.068 -0.1186  0.1587  0.2412
37757SOL    HW124995   4.423  10.927   1.974  0.6437  1.4015  0.2095
37757SOL    HW224996   4.400  11.000   2.104  0.6162  0.2037  0.8966
37758SOL     OW24997  11.274  11.390   9.080  0.6538 -0.1141 -0.3563
37758SOL    HW124998  11.204  11.359   9.138  0.3485  0.2827 -0.5107
37758SOL    HW224999  11.343  11.324   9.089  0.1817 -0.6134 -0.3582
37759SOL     OW25000   2.813   8.827   2.245 -0.4139  0.7017 -0.3455
37759SOL    HW125001   2.821   8.887   2.170 -0.0939 -0.4633 -1.2808
37759SOL    HW225002   2.900   8.788   2.253 -1.3834 -1.9823 -1.8239
37760SOL     OW25003   0.396   6.865   7.205  0.1833 -0.2939  0.0266
37760SOL    HW125004   0.450   6.940   7.231  0.9405 -0.7665 -0.1620
37760SOL    HW225005   0.306   6.900   7.204  0.3776  0.2906  1.1345
37761SOL     OW25006   0.910   2.511   7.545  0.4874  0.4104 -0.9936
37761SOL    HW125007   0.913   2.430   7.494  0.8422  0.1402 -0.5382
37761SOL    HW225008   0.975   2.500   7.614 -0.9460  0.1976  0.3809
37762SOL     OW25009   5.681   2.058   1.596 -0.6338 -0.3938 -0.4532
37762SOL    HW125010   5.745   2.091   1.534 -2.2334 -0.2342 -2.0898
37762SOL    HW225011   5.667   2.131   1.657  0.3403 -0.2547 -0.3840
37763SOL     OW25012   0.933  10.410   0.653 -0.2523  0.5071  0.1877
37763SOL    HW125013   0.914  10.319   0.630 -0.8750  0.7128 -0.1080
37763SOL    HW225014   0.859  10.438   0.706 -0.1398  0.8955  0.1464
37764SOL     OW25015   7.913   5.664   5.025 -0.5283 -0.0161 -0.4014
37764SOL    HW125016   7.823   5.649   5.054 -1.7139  0.9373 -3.1888
37764SOL    HW225017   7.934   5.585   4.974  0.6189 -0.6559  1.0118
37765SOL     OW25018   4.048   1.244  11.414 -0.1799  0.2072 -0.2140
37765SOL    HW125019   4.021   1.185  11.344  3.5704  0.9510 -2.5717
37765SOL    HW225020   4.137   1.217  11.436 -0.2546  1.7483  2.3817
37766SOL     OW25021   8.106   1.085   1.537 -0.4590 -0.2464  0.3648
37766SOL    HW125022   8.100   0.989   1.538  3.0260 -0.6277  2.3637
37766SOL    HW225023   8.160   1.105   1.460 -0.7486  0.0875  0.2457
37767SOL     OW25024   2.827   9.860   9.717  0.4078  0.3538  0.2761
37767SOL    HW125025   2.768   9.925   9.679  1.8299  1.2911 -0.3834
37767SOL    HW225026   2.806   9.861   9.810  0.4855  1.8661  0.2998
37768SOL     OW25027   4.001  11.478   1.811  0.4592  0.0666  0.5447
37768SOL    HW125028   4.078  11.427   1.835  0.8808 -1.2477 -2.9705
37768SOL    HW225029   3.940  11.412   1.776 -0.8328  1.4846  0.0404
37769SOL     OW25030   4.411   0.012   9.748 -0.1885 -0.2361  0.1217
37769SOL    HW125031   4.345   0.010   9.678  2.2514  0.1541 -2.3937
37769SOL    HW225032   4.492  -0.016   9.705  1.4400 -0.2335  2.9209
37770SOL     OW25033   5.966   4.586   5.274  0.1851 -0.2938 -0.1351
37770SOL    HW125034   5.912   4.582   5.195  1.0292 -0.3062 -0.7220
37770SOL    HW225035   5.915   4.640   5.335 -1.0107 -1.2288 -0.2520
37771SOL     OW25036   1.834   2.706  10.281  0.2339  0.5557 -0.5925
37771SOL    HW125037   1.769   2.641  10.308 -0.5641  1.5210 -0.0852
37771SOL    HW225038   1.864   2.677  10.195  0.8608 -1.1566  0.1709
37772SOL     OW25039  11.317   8.442   6.885  0.0456 -0.5172  0.1594
37772SOL    HW125040  11.248   8.492   6.841 -0.2380 -1.4768 -0.5414
37772SOL    HW225041  11.314   8.471   6.976  1.2791  2.1994 -0.5858
37773SOL     OW25042   6.379   1.082  11.103  0.3896  0.2543  0.4314
37773SOL    HW125043   6.339   1.144  11.164  2.2587  1.2076  0.7707
37773SOL    HW225044   6.306   1.050  11.050 -0.7589  2.1451  0.7817
37774SOL     OW25045   5.702   0.778   8.140 -0.3548 -0.1453 -0.5821
37774SOL    HW125046   5.632   0.748   8.198 -0.2075 -0.4232 -0.5451
37774SOL    HW225047   5.657   0.823   8.069 -0.5730 -0.3460 -0.5712
37775SOL     OW25048   2.534   6.396   5.557  0.6609  0.0383 -0.2270
37775SOL    HW125049   2.464   6.378   5.620  0.0209  0.2550 -0.8600
37775SOL    HW225050   2.542   6.315   5.506  0.3244  0.2753 -0.6643
37776SOL     OW25051   0.524   3.787   0.033 -0.0155  0.0051  0.9819
37776SOL    HW125052   0.589   3.717   0.033 -0.2595 -0.3313 -1.6278
37776SOL    HW225053   0.504   3.801   0.125  2.5848 -0.9421  1.7922
37777SOL     OW25054   0.153   4.550   8.201  0.2190 -0.4799 -0.4392
37777SOL    HW125055   0.068   4.589   8.184  0.7085  1.1256  0.6302
37777SOL    HW225056   0.194   4.607   8.266  1.9268 -1.4783 -0.5681
37778SOL     OW25057  10.158   4.069   8.000 -0.7731  0.5284 -0.1656
37778SOL    HW125058  10.182   4.160   7.982 -0.3995  0.5667  0.5172
37778SOL    HW225059  10.239   4.027   8.029 -1.3578  0.4905  1.5039
37779SOL     OW25060   6.632   4.114   5.456 -0.3826 -0.0009  0.0999
37779SOL    HW125061   6.705   4.157   5.412 -1.1494  1.6589  0.3936
37779SOL    HW225062   6.673   4.062   5.526  0.4644  2.0090  1.1759
37780SOL     OW25063   4.837   0.883   4.188 -0.1462 -0.4765  0.6819
37780SOL    HW125064   4.814   0.796   4.219  1.1577 -1.4278 -0.8218
37780SOL    HW225065   4.857   0.870   4.095 -1.2228  1.6921  0.0742
37781SOL     OW25066   7.615   4.406   9.305  0.4703  0.0689 -0.1413
37781SOL    HW125067   7.611   4.391   9.211 -0.3318  0.2779 -0.1441
37781SOL    HW225068   7.606   4.501   9.315 -0.2308 -0.0277  0.1856
37782SOL     OW25069   7.081   5.355   4.399  0.1487  1.0581  0.1704
37782SOL    HW125070   7.101   5.262   4.389 -1.2877  0.7420 -0.1127
37782SOL    HW225071   7.156   5.401   4.362  0.7950  0.0117  0.1489
37783SOL     OW25072   3.854   5.663   8.282 -0.1100 -0.6576  0.4385
37783SOL    HW125073   3.863   5.646   8.376 -0.2747  0.3231  0.6369
37783SOL    HW225074   3.915   5.734   8.264  2.4665 -3.0299 -0.8841
37784SOL     OW25075   0.660   3.810   0.316  0.2668 -0.3356  0.0370
37784SOL    HW125076   0.735   3.857   0.279  0.2023  0.6591  1.1061
37784SOL    HW225077   0.661   3.724   0.273  0.6158  0.4947 -1.6977
37785SOL     OW25078   8.812  10.274   6.954  0.0305  0.6264  0.0102
37785SOL    HW125079   8.855  10.189   6.962  0.4194  0.8012 -0.1847
37785SOL    HW225080   8.857  10.330   7.017  0.0227  0.7850 -0.1250
37786SOL     OW25081  11.576   5.316   2.747  0.2816 -0.3027  0.5454
37786SOL    HW125082  11.554   5.325   2.840  0.3527 -2.8376  0.8732
37786SOL    HW225083  11.491   5.309   2.703  0.2617  0.3643  0.4632
37787SOL     OW25084   8.877   3.473   8.795 -0.2995  0.5044 -0.0108
37787SOL    HW125085   8.784   3.490   8.776 -0.2137  0.0768 -0.8690
37787SOL    HW225086   8.902   3.543   8.855 -0.8877  1.2989 -0.6599
37788SOL     OW25087   2.076   1.158   9.235  0.0892 -0.6529  0.1072
37788SOL    HW125088   2.045   1.197   9.317  2.9770  0.8994  0.5990
37788SOL    HW225089   2.129   1.084   9.263  0.5660 -0.5021 -0.3922
37789SOL     OW25090   0.969  11.881   2.561  0.2436 -0.0484  0.0473
37789SOL    HW125091   0.938  11.972   2.554 -2.3520 -0.8127  0.5876
37789SOL    HW225092   1.034  11.883   2.631  0.1318  1.3707  0.1393
37790SOL     OW25093   9.779   4.945   0.305  0.3584  0.9622 -0.4704
37790SOL    HW125094   9.841   4.968   0.235  1.1317 -0.1387 -0.1653
37790SOL    HW225095   9.824   4.970   0.386  0.0830  0.8585 -0.2859
37791SOL     OW25096   0.419   6.849  10.387 -0.2266  0.5263  0.1647
37791SOL    HW125097   0.429   6.825  10.479 -2.1582 -0.1606  0.2394
37791SOL    HW225098   0.427   6.944  10.387  1.5341  0.4126  0.7600
37792SOL     OW25099  11.941  11.758   7.734 -0.1916 -0.0815 -0.0359
37792SOL    HW125100  11.864  11.708   7.705  0.4210 -0.4682 -1.0552
37792SOL    HW225101  11.920  11.785   7.823 -1.1222 -0.9813  0.0365
37793SOL     OW25102   4.047   5.344   4.638  0.0373 -0.3992 -0.3709
37793SOL    HW125103   4.114   5.409   4.615  0.3447 -0.6985 -0.3309
37793SOL    HW225104   3.997   5.333   4.557 -0.8639  0.8663 -0.0143
37794SOL     OW25105   6.070   7.429   3.463  0.2178 -0.4369  0.2708
37794SOL    HW125106   6.120   7.377   3.527  0.1711 -2.4093 -1.2017
37794SOL    HW225107   6.116   7.417   3.380 -0.2344  1.3439 -0.2799
37795SOL     OW25108   5.840   5.517   0.826 -0.6397 -0.5415 -0.3532
37795SOL    HW125109   5.917   5.468   0.854  1.0162  0.1188 -3.3748
37795SOL    HW225110   5.788   5.455   0.776 -1.9248 -0.8563  1.2805
37796SOL     OW25111   6.964  11.294   1.176 -0.3531 -0.2377 -0.1019
37796SOL    HW125112   6.901  11.352   1.219  0.6071  0.4566  0.4040
37796SOL    HW225113   6.944  11.207   1.209  0.4424  0.2922  1.8813
37797SOL     OW25114   9.336   8.297   5.201  0.0491 -0.6077 -0.2464
37797SOL    HW125115   9.426   8.271   5.182 -0.0767 -2.2711  1.2022
37797SOL    HW225116   9.344   8.386   5.237  1.2921 -1.2101  1.0814
37798SOL     OW25117   4.183   5.328  10.164  0.1039 -0.0064  0.2889
37798SOL    HW125118   4.269   5.286  10.176  0.4376 -0.4190 -2.7699
37798SOL    HW225119   4.160   5.310  10.073 -3.1388  0.3568  0.9167
37799SOL     OW25120   4.577   2.870   0.536  0.0337  0.5764  0.4367
37799SOL    HW125121   4.553   2.855   0.445 -1.6588  1.4165  0.6852
37799SOL    HW225122   4.496   2.903   0.576  0.6661 -0.0297  2.3037
37800SOL     OW25123   6.076  11.298   3.443  0.5677 -0.0225  0.1121
37800SOL    HW125124   6.032  11.217   3.470  2.4442 -1.3224 -0.5210
37800SOL    HW225125   6.149  11.308   3.503  1.5317  0.0829 -1.0304
37801SOL     OW25126  11.289   1.399   5.144 -0.0668 -0.3433  0.1393
37801SOL    HW125127  11.212   1.363   5.100  0.5239  0.5405 -1.7381
37801SOL    HW225128  11.363   1.359   5.099  0.5754  1.3110 -0.3489
37802SOL     OW25129   2.831   0.120   6.243  0.0707 -0.4730 -0.2192
37802SOL    HW125130   2.849   0.026   6.254  1.3628 -0.2888 -0.6042
37802SOL    HW225131   2.739   0.124   6.215 -0.1649 -1.5817  0.3312
37803SOL     OW25132   4.265  10.045   9.842  0.0425  0.3718  0.0276
37803SOL    HW125133   4.354  10.031   9.875  0.6584 -0.9149 -2.0167
37803SOL    HW225134   4.243   9.964   9.797 -1.7241  1.1154 -0.5414
37804SOL     OW25135   7.259   5.860   5.562 -0.5591  0.1171  0.0213
37804SOL    HW125136   7.255   5.765   5.552 -2.0542  0.2326 -0.8331
37804SOL    HW225137   7.252   5.893   5.472 -0.8459  1.0464  0.3765
37805SOL     OW25138   3.252   5.450  11.315 -0.2172 -0.4122 -0.6057
37805SOL    HW125139   3.246   5.489  11.402 -1.8315 -0.0693 -0.8331
37805SOL    HW225140   3.161   5.439  11.288  0.2224 -2.3343 -1.4596
37806SOL     OW25141   3.869   5.461   5.633  0.0085 -0.1049 -0.2412
37806SOL    HW125142   3.864   5.376   5.589  1.7719 -0.3030 -0.1262
37806SOL    HW225143   3.855   5.441   5.725  0.3331 -0.2707 -0.2254
37807SOL     OW25144   9.001   3.823   1.759 -0.5095 -1.1877 -0.0729
37807SOL    HW125145   9.050   3.901   1.732 -0.4083 -1.8590 -1.9234
37807SOL    HW225146   9.066   3.770   1.805 -0.2340 -0.8144 -0.0192
37808SOL     OW25147  10.316   1.818   6.502 -0.5218 -0.0824 -0.4056
37808SOL    HW125148  10.409   1.809   6.481 -0.3250 -1.1034  0.8135
37808SOL    HW225149  10.316   1.858   6.589 -1.1987 -1.0755  0.0586
37809SOL     OW25150   0.778   6.464   8.779  0.0758  0.1967 -0.6723
37809SOL    HW125151   0.755   6.373   8.757 -0.0622 -0.6588  2.5039
37809SOL    HW225152   0.723   6.517   8.722  0.3110 -1.6574 -2.7772
37810SOL     OW25153   5.615   8.002   3.497 -0.2527 -0.7074 -0.7384
37810SOL    HW125154   5.660   8.077   3.459 -1.1929  0.3331  0.1172
37810SOL    HW225155   5.578   8.035   3.579 -1.2360 -1.9258 -0.6566
37811SOL     OW25156   2.526   0.390   7.774  0.4429  0.4085 -0.0497
37811SOL    HW125157   2.526   0.485   7.787  1.6377  0.2270  1.6017
37811SOL    HW225158   2.482   0.355   7.851  1.4253 -0.4538  0.1359
37812SOL     OW25159  11.785  10.326   8.742 -0.0334  0.4037  0.1991
37812SOL    HW125160  11.874  10.302   8.716 -0.6719 -1.2211 -0.5900
37812SOL    HW225161  11.759  10.258   8.804 -0.6708  0.9972  0.5962
37813SOL     OW25162  10.357   5.543   5.477  0.2536  0.1717  0.3968
37813SOL    HW125163  10.290   5.605   5.508  0.7699  0.1838  1.5397
37813SOL    HW225164  10.359   5.474   5.543 -1.4825 -2.0264 -1.6514
37814SOL     OW25165   2.929   3.384  10.853  0.3027  0.0302  0.5704
37814SOL    HW125166   2.864   3.448  10.824 -0.6192 -0.7905  0.7779
37814SOL    HW225167   2.882   3.301  10.856  1.3520 -0.5770  0.7814
37815SOL     OW25168   2.277   4.060   0.264  0.5390 -0.2740  0.1821
37815SOL    HW125169   2.234   3.979   0.238 -1.7196  0.0776  2.4761
37815SOL    HW225170   2.305   4.045   0.354  0.1427  1.4225  0.6360
37816SOL     OW25171   5.862   9.665   9.515 -0.5639 -0.1521  0.0672
37816SOL    HW125172   5.948   9.630   9.492 -0.2376  0.4078  0.3947
37816SOL    HW225173   5.832   9.711   9.437 -1.3665 -1.8377 -0.6465
37817SOL     OW25174  10.613   0.190   0.525  0.1085  0.2985 -0.8323
37817SOL    HW125175  10.597   0.215   0.616  1.6773 -0.3571 -0.3388
37817SOL    HW225176  10.626   0.095   0.528  0.8447  0.3620 -1.6363
37818SOL     OW25177  10.201   3.321   7.495  0.2046  0.3128  0.3978
37818SOL    HW125178  10.118   3.302   7.451 -0.5471  0.9701  1.4973
37818SOL    HW225179  10.268   3.285   7.436 -0.9026 -1.3450  0.0841
37819SOL     OW25180   7.276   7.647   4.492 -0.0986 -0.0485  0.2462
37819SOL    HW125181   7.310   7.736   4.478  0.8605 -0.5018 -0.3434
37819SOL    HW225182   7.313   7.621   4.577 -0.3705  0.1019  0.4138
37820SOL     OW25183   5.641   5.688   6.658 -0.4892  0.1903 -0.0019
37820SOL    HW125184   5.553   5.660   6.683 -0.4092  0.8536  1.0814
37820SOL    HW225185   5.694   5.609   6.664 -0.8305 -0.0233  0.2031
37821SOL     OW25186   8.299   6.393   2.024  0.5388 -0.1476 -0.3980
37821SOL    HW125187   8.241   6.340   2.079  0.6724 -0.6621 -0.7381
37821SOL    HW225188   8.381   6.396   2.073  0.1138  0.9364  0.2833
37822SOL     OW25189  10.001   0.173   3.193  0.0925  0.2258 -0.3558
37822SOL    HW125190  10.089   0.211   3.192 -0.4621  1.5553 -0.3485
37822SOL    HW225191   9.943   0.248   3.204 -0.9875 -0.7660  0.9606
37823SOL     OW25192   8.720   1.643   7.980 -0.2628 -0.0039  0.1213
37823SOL    HW125193   8.813   1.624   7.964  0.3482  0.1166  3.0128
37823SOL    HW225194   8.676   1.616   7.900  2.1274 -1.1739 -0.8917
37824SOL     OW25195  10.129   3.826   1.273  0.4752  0.0596 -0.2014
37824SOL    HW125196  10.062   3.876   1.318  0.4783 -0.6412  0.6049
37824SOL    HW225197  10.169   3.771   1.341 -0.2045 -1.7726 -1.2044
37825SOL     OW25198   5.841   6.092  11.550  0.0274 -0.1378  0.0910
37825SOL    HW125199   5.750   6.119  11.547  0.6774  2.2667 -2.0810
37825SOL    HW225200   5.866   6.100  11.642 -1.8087 -0.4607  0.6475
37826SOL     OW25201   2.674   2.295   4.550 -0.1017  0.3992  0.0288
37826SOL    HW125202   2.747   2.346   4.585  0.0849  0.9988 -1.1883
37826SOL    HW225203   2.615   2.361   4.514  0.9584 -0.2544 -3.1746
37827SOL     OW25204   0.109   4.970   1.300 -0.6302  0.3242 -0.2609
37827SOL    HW125205   0.165   4.923   1.238 -0.1295 -1.8015  1.6675
37827SOL    HW225206   0.161   5.047   1.325 -0.5233  0.7989 -1.8467
37828SOL     OW25207   3.719  11.911   2.916 -0.7894 -0.0054  0.2392
37828SOL    HW125208   3.755  11.919   2.827  0.7091 -2.2304  0.5578
37828SOL    HW225209   3.786  11.862   2.964 -2.9308 -1.6030  1.7387
37829SOL     OW25210   2.976  10.510   9.468  0.1271  0.3827  0.4739
37829SOL    HW125211   3.040  10.446   9.500  0.3480  1.4906  2.3812
37829SOL    HW225212   2.937  10.468   9.391  1.9916 -0.9906  0.2100
37830SOL     OW25213   1.208   2.400   7.940 -0.0978  0.3089  0.1002
37830SOL    HW125214   1.270   2.332   7.915 -1.6660 -1.4167  0.7311
37830SOL    HW225215   1.243   2.437   8.021  0.1757 -0.5494  0.3749
37831SOL     OW25216   4.845  11.729   2.282 -0.0702  0.2387  0.5178
37831SOL    HW125217   4.925  11.703   2.327 -0.2410  0.0423  0.7137
37831SOL    HW225218   4.782  11.746   2.352 -0.0910  0.7650  0.3780
37832SOL     OW25219   3.713   8.503   6.643  0.0917 -0.5694 -0.5174
37832SOL    HW125220   3.741   8.579   6.695  2.5784 -2.1505  0.6357
37832SOL    HW225221   3.782   8.491   6.578 -0.2418 -1.8806 -0.6550
37833SOL     OW25222   5.515   7.269   6.963 -0.9969 -0.2219  0.0042
37833SOL    HW125223   5.542   7.334   7.028  0.2425 -1.4870  0.7965
37833SOL    HW225224   5.450   7.216   7.009  0.3312 -1.5056  0.4853
37834SOL     OW25225   5.890   8.677   4.206 -0.0496 -0.1211 -0.6890
37834SOL    HW125226   5.805   8.708   4.236  1.0121  1.0133  1.3995
37834SOL    HW225227   5.887   8.582   4.216 -1.1651 -0.1232 -0.9667
37835SOL     OW25228   0.524   9.263   8.632 -0.0168  0.0243  0.1667
37835SOL    HW125229   0.614   9.234   8.619  0.5560  0.6883  2.2305
37835SOL    HW225230   0.531   9.357   8.649 -1.0291 -0.0030  0.8090
37836SOL     OW25231   7.237   6.772   2.238  0.2127  0.4208 -0.5198
37836SOL    HW125232   7.323   6.814   2.250  0.6467  0.1887 -2.4737
37836SOL    HW225233   7.252   6.681   2.264  0.1820  0.6764  0.4309
37837SOL     OW25234   0.750   1.071   5.251  0.6741 -0.0752  0.0299
37837SOL    HW125235   0.799   1.052   5.171  0.1197 -0.0974 -0.3117
37837SOL    HW225236   0.735   1.166   5.248  0.9459 -0.0234  0.2801
37838SOL     OW25237   5.947   1.497   0.667  0.7966 -0.0622 -0.0919
37838SOL    HW125238   6.015   1.557   0.698  0.6838  1.3032 -2.2380
37838SOL    HW225239   5.881   1.555   0.628 -0.8396 -1.4456  0.5197
37839SOL     OW25240   4.423   6.666   8.229  0.1099  0.3801  0.4786
37839SOL    HW125241   4.496   6.605   8.238 -0.2138  0.1710  1.8180
37839SOL    HW225242   4.368   6.628   8.160 -0.5474 -1.3547  1.8687
37840SOL     OW25243   9.741   8.192  10.001 -0.6043 -0.0171  0.5245
37840SOL    HW125244   9.662   8.225   9.959 -0.7390 -0.7339  0.2062
37840SOL    HW225245   9.714   8.112  10.046 -0.1784  0.0298  0.8841
37841SOL     OW25246   6.045   4.261   6.717 -0.2824  0.0792  0.1171
37841SOL    HW125247   6.140   4.259   6.734 -0.2322  2.7529  0.5437
37841SOL    HW225248   6.038   4.264   6.621 -0.0261 -1.1662  0.0345
37842SOL     OW25249   8.720   7.386   2.388 -0.0509 -0.0617 -0.0573
37842SOL    HW125250   8.695   7.452   2.453 -1.5350 -0.2483 -0.4067
37842SOL    HW225251   8.803   7.417   2.352  0.4720  0.3742  1.4558
37843SOL     OW25252   2.265   2.811   2.015  0.0801  0.2203  0.0289
37843SOL    HW125253   2.295   2.730   2.057 -2.1473 -0.6119  0.1388
37843SOL    HW225254   2.187   2.785   1.967 -0.5785  2.2817 -0.0893
37844SOL     OW25255   8.708  10.777  11.761 -0.0112  0.0858  0.0467
37844SOL    HW125256   8.755  10.838  11.817 -0.6568  0.2953  0.3781
37844SOL    HW225257   8.765  10.700  11.756  0.7124  0.6311 -0.2063
37845SOL     OW25258   5.597   8.106  10.809 -0.0900  0.0273 -0.0803
37845SOL    HW125259   5.595   8.150  10.725  2.2108 -0.2360 -0.3332
37845SOL    HW225260   5.587   8.013  10.788  0.2214 -0.0165 -0.0300
37846SOL     OW25261   6.774   1.961   7.678 -0.5086 -0.1901  0.2222
37846SOL    HW125262   6.741   1.926   7.761  2.6561 -0.6518  1.4066
37846SOL    HW225263   6.803   1.885   7.629 -2.8951  0.0132 -1.7224
37847SOL     OW25264   8.141   5.874   1.362  0.1438  0.0724 -0.5286
37847SOL    HW125265   8.218   5.837   1.319  0.3561 -2.4753  1.8157
37847SOL    HW225266   8.068   5.821   1.329 -0.5355  1.7368 -1.8660
37848SOL     OW25267   4.239   5.076   2.123  0.0668  0.2689 -0.4975
37848SOL    HW125268   4.276   5.097   2.209 -0.3939  0.1398 -0.2698
37848SOL    HW225269   4.162   5.023   2.142  0.9772 -1.3008 -1.0567
37849SOL     OW25270   0.927   5.277   8.937  0.0856 -0.9308  0.2632
37849SOL    HW125271   0.926   5.258   9.031 -0.3298  0.9175  0.6572
37849SOL    HW225272   1.012   5.243   8.907 -0.5207 -3.2099  0.8871
37850SOL     OW25273   5.965   9.060   8.335  0.2015 -0.0516 -0.2849
37850SOL    HW125274   6.052   9.077   8.371  0.3771  1.3218 -1.2756
37850SOL    HW225275   5.956   8.965   8.338  3.7348 -0.8282 -4.4945
37851SOL     OW25276   3.163   2.901   1.453 -0.2054 -0.3096 -0.3768
37851SOL    HW125277   3.106   2.883   1.528  1.7421  0.1869  1.2921
37851SOL    HW225278   3.201   2.987   1.471 -1.2859  0.8489 -3.0294
37852SOL     OW25279   8.654   2.530   0.319 -0.4472 -0.1815 -0.1284
37852SOL    HW125280   8.634   2.620   0.344 -1.4957 -0.2047 -0.8067
37852SOL    HW225281   8.676   2.486   0.401  0.5271  0.7964  0.1455
37853SOL     OW25282   9.908   7.135  10.375 -0.6432 -0.8330 -0.5336
37853SOL    HW125283   9.901   7.175  10.289  0.1379 -0.6479 -0.5223
37853SOL    HW225284  10.000   7.109  10.382 -0.6262 -0.5911  0.3452
37854SOL     OW25285   4.704   2.991   4.657 -0.4212  0.2918  0.8853
37854SOL    HW125286   4.799   3.004   4.650 -0.5350  0.7529  0.0797
37854SOL    HW225287   4.691   2.956   4.745  0.5027  0.1805  0.9875
37855SOL     OW25288   6.710   7.541   1.014  0.1665 -0.5168  0.0905
37855SOL    HW125289   6.702   7.597   1.091  2.4895 -0.5765  0.4472
37855SOL    HW225290   6.769   7.588   0.956  1.6578 -2.2474  0.1197
37856SOL     OW25291   2.965   4.429   1.813 -0.4522  0.2792  0.2424
37856SOL    HW125292   3.023   4.432   1.889 -0.0802 -0.0853 -0.0276
37856SOL    HW225293   2.877   4.430   1.851 -0.2749 -0.8443  0.7198
37857SOL     OW25294   6.921  10.571   4.899 -0.2537  0.3709  0.1526
37857SOL    HW125295   6.843  10.530   4.936 -0.1980  1.5368  1.6914
37857SOL    HW225296   6.993  10.513   4.926 -0.2838  0.8918  1.4151
37858SOL     OW25297   8.632   9.249   3.257 -0.0924  0.4651  0.2414
37858SOL    HW125298   8.726   9.236   3.241  0.4316  3.4156  0.3014
37858SOL    HW225299   8.619   9.221   3.347  0.9830  0.9735  0.5798
37859SOL     OW25300   0.356   8.387   4.609 -0.5665 -0.2192  0.0196
37859SOL    HW125301   0.430   8.332   4.585 -0.3104  0.5766 -1.0550
37859SOL    HW225302   0.380   8.424   4.694  0.1800 -0.1047 -0.2360
37860SOL     OW25303  11.497   8.696   5.072  0.2517 -0.5617 -0.2806
37860SOL    HW125304  11.513   8.790   5.071  0.6523 -0.6218 -1.3032
37860SOL    HW225305  11.405   8.687   5.095  0.4041  0.0367  0.6039
37861SOL     OW25306   0.992   0.741   0.732 -0.3598  0.0402  0.3019
37861SOL    HW125307   1.053   0.679   0.772  0.0691 -0.5648 -1.2147
37861SOL    HW225308   1.046   0.797   0.676 -0.9705  0.6461  0.2991
37862SOL     OW25309   0.467   0.581   8.269  0.0918 -0.3439  0.4027
37862SOL    HW125310   0.545   0.587   8.325  0.5328 -1.3737 -0.0696
37862SOL    HW225311   0.436   0.671   8.261  1.8008  0.2337 -0.2029
37863SOL     OW25312   5.934   7.360   6.756 -0.6771 -0.4954  0.2169
37863SOL    HW125313   6.003   7.426   6.768 -1.8663  0.7658  0.3620
37863SOL    HW225314   5.979   7.287   6.713  0.4145  0.9914 -1.3577
37864SOL     OW25315   3.481   3.671  11.952 -0.3113  0.6822 -0.6994
37864SOL    HW125316   3.410   3.608  11.935 -0.3617  1.0383 -1.9235
37864SOL    HW225317   3.498   3.663  12.046 -2.5639  1.1833 -0.1784
37865SOL     OW25318   1.267   1.338   8.691 -0.6068 -0.3240  0.4337
37865SOL    HW125319   1.316   1.270   8.645  2.0946  1.2803  0.7069
37865SOL    HW225320   1.228   1.391   8.621 -1.3827 -1.2041  0.1860
37866SOL     OW25321   9.142   9.461   9.341  0.4993 -0.4760  0.0675
37866SOL    HW125322   9.172   9.381   9.297 -1.2059 -1.6146  0.8739
37866SOL    HW225323   9.139   9.438   9.433  2.4360  1.3711  0.6693
37867SOL     OW25324   2.661   7.511   0.863  0.3272 -0.2835  0.4027
37867SOL    HW125325   2.597   7.514   0.792 -0.3300 -2.1624  0.8608
37867SOL    HW225326   2.742   7.483   0.822  0.2481 -0.2306  0.2095
37868SOL     OW25327  10.254  11.581   1.287  0.3933 -0.1560 -0.0985
37868SOL    HW125328  10.348  11.562   1.278  0.5598 -0.9261  2.4370
37868SOL    HW225329  10.245  11.672   1.258  1.8185 -0.2478 -0.9064
37869SOL     OW25330   8.292   3.420  11.190  0.5225  0.3028 -0.0369
37869SOL    HW125331   8.380   3.386  11.210 -0.2848 -0.9802  1.5378
37869SOL    HW225332   8.282   3.403  11.096  0.8724 -2.2664  0.3212
37870SOL     OW25333   3.699   2.023   2.569 -0.3791  0.2781  0.1757
37870SOL    HW125334   3.626   1.965   2.591  0.0803 -0.1130  0.7139
37870SOL    HW225335   3.665   2.111   2.587 -1.1212  0.2004 -0.7655
37871SOL     OW25336   8.604   1.834   3.823 -0.3878  0.2904 -0.0246
37871SOL    HW125337   8.649   1.758   3.860 -1.1943  0.2698  0.9517
37871SOL    HW225338   8.674   1.897   3.804  0.8435 -2.0105 -4.4522
37872SOL     OW25339   8.413   5.207   0.395  0.2627 -0.7537 -0.8742
37872SOL    HW125340   8.324   5.234   0.416  0.8788  0.5809  0.2104
37872SOL    HW225341   8.421   5.119   0.432 -0.5543 -0.8351 -0.8736
37873SOL     OW25342   5.601   0.918   4.769  0.1507 -0.1715  0.5553
37873SOL    HW125343   5.534   0.878   4.824 -1.5482  2.2358  0.3828
37873SOL    HW225344   5.652   0.973   4.829  0.4275 -0.1189  0.2754
37874SOL     OW25345   9.775   6.018   1.868 -0.2618  0.3153  0.3767
37874SOL    HW125346   9.753   6.099   1.821 -2.0482  0.2298  0.9982
37874SOL    HW225347   9.770   6.041   1.960 -0.3072 -0.3858  0.5560
37875SOL     OW25348   7.021   0.893   1.993  0.2307  0.2750  0.2330
37875SOL    HW125349   7.116   0.900   2.004  0.1861 -0.8893  1.8402
37875SOL    HW225350   6.987   0.885   2.083 -1.9006  5.1241  0.1891
37876SOL     OW25351   6.545   6.690   1.739 -0.9424 -0.4525  0.1898
37876SOL    HW125352   6.454   6.708   1.715 -1.1441 -0.8405  0.6409
37876SOL    HW225353   6.553   6.595   1.730 -0.7430 -0.4850  0.6878
37877SOL     OW25354  10.658   5.422   3.147 -0.1180  0.7927 -0.1902
37877SOL    HW125355  10.597   5.359   3.187 -0.8548  1.7461  0.2262
37877SOL    HW225356  10.607   5.503   3.140  0.2711  0.9033 -2.2629
37878SOL     OW25357   1.673   3.559   6.624  0.2599  0.2070  0.0858
37878SOL    HW125358   1.645   3.536   6.712  0.6918 -2.5830 -0.4126
37878SOL    HW225359   1.761   3.594   6.635  0.8841 -1.4601  0.6911
37879SOL     OW25360   3.500   6.613  10.413  0.7140 -0.1295 -0.9400
37879SOL    HW125361   3.531   6.572  10.494 -1.1935  2.5322  1.3516
37879SOL    HW225362   3.410   6.638  10.433  0.2136  0.7519 -3.8997
37880SOL     OW25363   3.939   8.260   2.793 -1.1300 -0.0771  0.3081
37880SOL    HW125364   3.953   8.354   2.806  0.0901 -0.5019  2.5399
37880SOL    HW225365   3.890   8.232   2.870  0.3400 -1.6233  0.7468
37881SOL     OW25366   5.382   5.579   9.070  0.8851 -0.0170  0.2148
37881SOL    HW125367   5.343   5.649   9.019 -0.5683 -0.7124  0.3418
37881SOL    HW225368   5.450   5.542   9.013  0.3190  0.2057 -0.6137
37882SOL     OW25369   2.921   8.456   8.707  0.3030 -0.0210  0.5593
37882SOL    HW125370   2.907   8.420   8.794  2.6001 -1.1281  0.5532
37882SOL    HW225371   2.889   8.387   8.648 -1.2746  0.7372  0.4713
37883SOL     OW25372  10.455   3.869   0.020 -0.5182  0.3492  0.7123
37883SOL    HW125373  10.537   3.863  -0.030 -0.0809  2.2047  1.1343
37883SOL    HW225374  10.428   3.778   0.032  1.8219 -0.3660  1.1146
37884SOL     OW25375   9.332   6.439   2.130  0.1461 -0.0992 -0.1956
37884SOL    HW125376   9.280   6.518   2.113  1.8567  1.5730  1.7322
37884SOL    HW225377   9.423   6.469   2.126  0.8513 -2.0179  0.4562
37885SOL     OW25378   2.441   2.451   4.482  0.3351 -0.4175 -0.3853
37885SOL    HW125379   2.389   2.387   4.433 -2.4136  1.2311  0.2036
37885SOL    HW225380   2.401   2.455   4.568  0.4956  1.9693 -0.3591
37886SOL     OW25381   2.806   5.774   4.230  0.0574  0.0722 -0.4568
37886SOL    HW125382   2.846   5.710   4.171 -0.2336 -1.1137  0.5881
37886SOL    HW225383   2.810   5.733   4.316  1.4077  2.1860  0.5662
37887SOL     OW25384   5.425   4.594   1.645  0.3138  0.4034  0.3849
37887SOL    HW125385   5.395   4.585   1.555  0.0846  0.6169  0.4401
37887SOL    HW225386   5.521   4.598   1.638  0.3388 -0.4477  0.2288
37888SOL     OW25387   1.392   3.893   1.286  0.0912  0.2040 -0.2712
37888SOL    HW125388   1.471   3.932   1.325 -0.2866 -0.2435  0.9788
37888SOL    HW225389   1.366   3.825   1.347 -1.4304  0.5234 -0.5247
37889SOL     OW25390   2.644   2.604  10.457 -0.2723 -0.4607 -0.0082
37889SOL    HW125391   2.721   2.650  10.423  0.0818  0.3574  1.7810
37889SOL    HW225392   2.619   2.544  10.386  2.0493 -0.8129 -0.6231
37890SOL     OW25393   1.509   8.746   4.828 -0.7977  0.2577  0.0942
37890SOL    HW125394   1.441   8.679   4.837 -1.8891  1.1063 -1.3988
37890SOL    HW225395   1.553   8.725   4.746 -0.9049  1.1566 -0.2000
37891SOL     OW25396  11.586   2.324   4.275  0.3972 -0.5656  0.0533
37891SOL    HW125397  11.613   2.311   4.366 -0.0489  0.3653  0.3285
37891SOL    HW225398  11.634   2.402   4.246 -0.9332  0.3125  0.1230
37892SOL     OW25399   9.499   3.871   7.973  0.1812 -0.3479 -0.1317
37892SOL    HW125400   9.436   3.799   7.980 -1.8258  0.9188 -3.0626
37892SOL    HW225401   9.527   3.887   8.063 -1.7794 -2.6213  1.0155
37893SOL     OW25402   5.028  11.838   7.631 -0.5008 -0.4147  0.2753
37893SOL    HW125403   5.058  11.821   7.542 -0.3319 -2.8407  0.7338
37893SOL    HW225404   5.088  11.790   7.687 -1.8894 -0.7376  1.5643
37894SOL     OW25405   7.777   2.643   6.498  0.7997 -0.2175 -0.4414
37894SOL    HW125406   7.764   2.673   6.588 -0.5706 -0.1833 -0.6376
37894SOL    HW225407   7.762   2.721   6.444 -1.1184 -0.8350 -0.8536
37895SOL     OW25408   3.259   4.548   9.127 -0.5495  0.0877  0.0860
37895SOL    HW125409   3.283   4.630   9.084  0.8110 -0.6961 -0.7063
37895SOL    HW225410   3.302   4.552   9.212  2.4904 -1.2219 -1.2449
37896SOL     OW25411   5.544   4.156   0.627  0.0117 -0.1832  0.0462
37896SOL    HW125412   5.539   4.192   0.538  2.8860 -0.2995 -0.2696
37896SOL    HW225413   5.462   4.109   0.639 -1.5377  1.9553 -1.5704
37897SOL     OW25414   9.907   0.700   6.682  0.0407  0.7530  0.1218
37897SOL    HW125415   9.907   0.775   6.622  0.7812  1.1348  0.5785
37897SOL    HW225416   9.850   0.728   6.754  0.8739  1.1786  0.6342
37898SOL     OW25417   8.414   6.511   6.061 -0.1054  0.3651 -0.3247
37898SOL    HW125418   8.435   6.465   6.142 -0.5550  1.3005  0.3420
37898SOL    HW225419   8.363   6.587   6.089 -1.1028  0.1871 -1.5806
37899SOL     OW25420   0.214  11.890   6.731 -0.7432  0.4952  0.3456
37899SOL    HW125421   0.182  11.904   6.642  0.2495  0.0273 -0.0937
37899SOL    HW225422   0.145  11.839   6.773  0.1101 -2.0518 -1.1235
37900SOL     OW25423  10.405   9.896   1.821  0.1488  0.3350 -0.4200
37900SOL    HW125424  10.394   9.803   1.799 -0.3342  0.4325 -0.5915
37900SOL    HW225425  10.318   9.924   1.851  0.8960  0.0356  2.2853
37901SOL     OW25426  11.674   9.204   1.037  0.3611  0.3389  0.6324
37901SOL    HW125427  11.671   9.195   0.941  3.0880 -0.9691  0.5881
37901SOL    HW225428  11.658   9.297   1.052  0.5205  0.7068 -1.1521
37902SOL     OW25429   8.833   1.545   3.764 -0.7958 -0.2519  0.1242
37902SOL    HW125430   8.911   1.496   3.738 -2.1300 -2.2425 -0.3691
37902SOL    HW225431   8.817   1.606   3.691 -1.1774 -1.7056 -1.0582
37903SOL     OW25432   7.021   1.343   5.175 -0.6102 -0.1912  0.9230
37903SOL    HW125433   6.997   1.334   5.083  0.4552 -0.1308  0.6229
37903SOL    HW225434   6.982   1.427   5.201 -1.0328 -0.2722  0.5732
37904SOL     OW25435  11.946   0.535   6.111  0.2829 -0.1234  0.5603
37904SOL    HW125436  11.915   0.619   6.075 -0.7492 -0.8378 -0.2675
37904SOL    HW225437  11.927   0.542   6.205  0.0376  0.4910  0.4746
37905SOL     OW25438   4.261   2.299   7.991  0.3103  0.4458  0.0319
37905SOL    HW125439   4.194   2.242   7.952 -0.2112  1.3770 -0.4641
37905SOL    HW225440   4.285   2.255   8.073  0.3964 -0.8167 -0.6394
37906SOL     OW25441   3.607   8.817   4.854 -0.6081  0.8459 -0.4981
37906SOL    HW125442   3.549   8.874   4.905 -1.9861 -0.8693 -0.0735
37906SOL    HW225443   3.655   8.767   4.920 -1.7042 -0.7072 -0.8413
37907SOL     OW25444   6.550   2.963  10.490  0.3736 -0.3082  0.2685
37907SOL    HW125445   6.567   3.004  10.405  0.0567  2.0412  1.2830
37907SOL    HW225446   6.463   2.924  10.480 -0.3276  1.2535 -0.0666
37908SOL     OW25447  10.156   7.527   0.109  0.2367 -0.9237  0.1451
37908SOL    HW125448  10.183   7.618   0.098 -1.4368  0.0341  2.8128
37908SOL    HW225449  10.236   7.480   0.133  1.2945 -0.4414 -2.1588
37909SOL     OW25450   3.361  10.308   0.745  0.0674 -0.0037 -0.1548
37909SOL    HW125451   3.357  10.332   0.838  1.0600  3.4970 -0.8632
37909SOL    HW225452   3.404  10.383   0.703 -0.4730 -1.3964 -3.4851
37910SOL     OW25453   4.809  10.140   6.096 -0.2028 -0.4189 -0.1276
37910SOL    HW125454   4.889  10.091   6.116  1.8216  2.4960 -0.4765
37910SOL    HW225455   4.812  10.152   6.001 -1.1653 -0.4084 -0.1653
37911SOL     OW25456   5.803  10.822   2.879  0.3499 -0.7065  0.5907
37911SOL    HW125457   5.882  10.876   2.876  0.6384 -1.1488  0.0833
37911SOL    HW225458   5.807  10.780   2.965  0.7079 -0.7934  0.5312
37912SOL     OW25459  11.453   4.975   3.967  0.0963 -0.2287  0.3858
37912SOL    HW125460  11.420   5.055   4.009  0.0190  0.4329 -0.8970
37912SOL    HW225461  11.548   4.979   3.980  0.2107  0.6514 -0.6322
37913SOL     OW25462   6.041   5.824   0.336  0.3023 -0.2819  0.7776
37913SOL    HW125463   6.123   5.818   0.288 -0.0066  2.8433 -0.4144
37913SOL    HW225464   6.038   5.915   0.366 -3.6790  0.4487 -1.1822
37914SOL     OW25465  11.248   5.301   8.050  0.4243  0.0538 -0.2589
37914SOL    HW125466  11.291   5.316   8.134  0.5394 -1.6253  0.0293
37914SOL    HW225467  11.270   5.377   7.997  2.5071 -0.0382  0.3950
37915SOL     OW25468   7.165   5.307   7.285 -0.3630  0.4429  0.0017
37915SOL    HW125469   7.236   5.341   7.339 -0.8584  2.8438 -0.7526
37915SOL    HW225470   7.204   5.294   7.198 -0.6839  1.2800 -0.2818
37916SOL     OW25471   4.934   8.756   4.734 -0.1407  0.3019  0.3796
37916SOL    HW125472   4.882   8.806   4.797  0.1857 -1.6272  2.3153
37916SOL    HW225473   4.873   8.735   4.663 -0.9452  1.2589  0.7632
37917SOL     OW25474   9.986   3.094  10.298 -0.2252 -0.0807  0.0797
37917SOL    HW125475   9.901   3.054  10.319 -0.8950  0.7205 -0.9766
37917SOL    HW225476   9.985   3.103  10.202  0.3887  1.3739  0.1895
37918SOL     OW25477   1.180   2.317   2.361  0.5119 -0.5304 -0.2410
37918SOL    HW125478   1.194   2.276   2.276  0.0631 -1.7246  0.2384
37918SOL    HW225479   1.268   2.338   2.393  0.7571 -1.1769 -0.4797
37919SOL     OW25480   6.644   0.174   3.483 -0.1518 -0.2720  0.7966
37919SOL    HW125481   6.720   0.219   3.446  0.6477 -2.0931  0.0646
37919SOL    HW225482   6.594   0.145   3.407 -0.6522 -0.5666  1.2319
37920SOL     OW25483   5.813   1.400   3.618 -0.1276 -0.0946  0.1545
37920SOL    HW125484   5.903   1.376   3.594  0.1419 -0.5874  1.5848
37920SOL    HW225485   5.800   1.485   3.577  1.0195  0.0112 -0.0333
37921SOL     OW25486   1.316   6.472   9.314 -0.2402  0.3434  0.0094
37921SOL    HW125487   1.334   6.409   9.245 -2.0150 -0.9548  0.6537
37921SOL    HW225488   1.287   6.551   9.267  0.7760  0.2699 -0.7668
37922SOL     OW25489   6.643   6.976   1.458  0.5255 -0.0970  0.4418
37922SOL    HW125490   6.551   6.954   1.449  0.4585  0.2107  0.3561
37922SOL    HW225491   6.648   7.069   1.433  0.5577  0.4192  2.2004
37923SOL     OW25492   5.100   1.842   6.991  0.2365 -0.3524  0.1335
37923SOL    HW125493   5.160   1.895   6.940 -0.2005 -0.9478 -1.0340
37923SOL    HW225494   5.023   1.897   7.003 -0.8177 -1.1728 -2.3437
37924SOL     OW25495  10.859   0.836   8.345  0.4084  0.1971  0.0475
37924SOL    HW125496  10.789   0.780   8.313  1.7894 -0.3341 -2.1870
37924SOL    HW225497  10.920   0.776   8.388  1.1780  0.1343 -1.0891
37925SOL     OW25498   2.664   0.397  10.105  0.4271  0.3588 -0.4135
37925SOL    HW125499   2.574   0.412  10.076  0.5728  1.1997 -0.4641
37925SOL    HW225500   2.715   0.394  10.024  0.2711 -1.5303 -0.4780
37926SOL     OW25501   9.269   1.989   9.153  0.0874  0.2106  0.4150
37926SOL    HW125502   9.251   2.056   9.087 -1.7289 -0.2461  0.4048
37926SOL    HW225503   9.281   1.908   9.102 -0.2556  0.0588  0.5725
37927SOL     OW25504  11.811   5.328  11.651 -0.4612 -0.2359 -0.4471
37927SOL    HW125505  11.870   5.303  11.721  0.2889  3.3587  0.4091
37927SOL    HW225506  11.724   5.326  11.691 -0.0506  1.6854  0.6635
37928SOL     OW25507   3.375   8.961   5.713  0.1563  0.9506  0.3433
37928SOL    HW125508   3.383   8.922   5.626 -0.8616  2.1605 -0.3215
37928SOL    HW225509   3.414   8.896   5.771 -1.0822 -0.8754 -0.7473
37929SOL     OW25510   0.251   3.099   8.743  0.4208  0.2166  0.3738
37929SOL    HW125511   0.311   3.155   8.790  1.2166  0.7651 -1.2167
37929SOL    HW225512   0.251   3.016   8.792  0.6754  0.9700  1.6752
37930SOL     OW25513   6.516   9.132   2.676  0.1981 -0.4419  0.4003
37930SOL    HW125514   6.567   9.212   2.675 -0.8855  0.2687  0.2601
37930SOL    HW225515   6.569   9.070   2.726  1.2859  0.1935  0.0612
37931SOL     OW25516   5.614   0.209   3.394 -0.4626 -0.7946 -0.1137
37931SOL    HW125517   5.525   0.189   3.367 -0.9954 -1.2420  1.7781
37931SOL    HW225518   5.643   0.131   3.441  0.7136 -0.4309 -0.2048
37932SOL     OW25519   4.267   0.966   0.254  0.0711  0.3359 -0.4241
37932SOL    HW125520   4.222   0.955   0.338  0.3800 -1.6088 -0.4643
37932SOL    HW225521   4.340   1.025   0.274 -0.1406  0.2791  0.5713
37933SOL     OW25522   4.284  11.368   3.963  0.0805  0.2498 -0.3779
37933SOL    HW125523   4.308  11.299   3.901 -1.0384 -0.7942  0.2992
37933SOL    HW225524   4.221  11.422   3.915 -0.0222  0.0385 -0.4835
37934SOL     OW25525   0.489   3.124   1.875 -0.3140  0.5080  0.0445
37934SOL    HW125526   0.553   3.054   1.862 -1.1030 -0.5791  1.6188
37934SOL    HW225527   0.538   3.205   1.865  1.4806 -0.2834  1.7813
37935SOL     OW25528   0.663   6.580  10.772  0.4503 -0.1905 -0.3204
37935SOL    HW125529   0.574   6.588  10.735  0.3584 -0.9789 -0.2783
37935SOL    HW225530   0.664   6.644  10.843 -0.6675 -1.3545  0.7901
37936SOL     OW25531   6.305   3.193   4.227 -0.0765  0.1089 -0.4461
37936SOL    HW125532   6.241   3.152   4.285 -0.2569  1.7838  0.6239
37936SOL    HW225533   6.371   3.230   4.286 -0.6265  2.4634 -1.1740
37937SOL     OW25534   5.915  10.159   1.652  0.5742  0.1993 -0.4724
37937SOL    HW125535   5.924  10.201   1.737  0.5223 -1.0819  0.1826
37937SOL    HW225536   5.969  10.212   1.593  1.0768  0.7576  0.4751
37938SOL     OW25537   2.578   2.675   1.689 -0.0675 -0.3645 -0.1227
37938SOL    HW125538   2.648   2.625   1.648  0.2176  0.9380 -1.2983
37938SOL    HW225539   2.562   2.748   1.629  0.7897  2.0251  2.3320
37939SOL     OW25540   8.932   7.098   0.254  0.0262  0.3372  0.6507
37939SOL    HW125541   8.879   7.108   0.175 -0.5850 -2.8282  0.5221
37939SOL    HW225542   8.869   7.101   0.326 -0.1796 -1.6491  0.6137
37940SOL     OW25543   4.232   4.928   8.610 -0.2187 -0.3064 -0.4442
37940SOL    HW125544   4.285   5.009   8.612  0.2586 -0.6303  0.4849
37940SOL    HW225545   4.153   4.953   8.562  0.4727  0.3775 -1.2696
37941SOL     OW25546   3.073   2.193   2.013  1.3175 -0.3696  0.4730
37941SOL    HW125547   3.134   2.136   1.966  1.7893 -2.0490  2.9288
37941SOL    HW225548   3.084   2.169   2.105 -2.4702 -0.1496  1.1288
37942SOL     OW25549   5.997  11.797   2.897 -0.3943 -0.1600 -0.5140
37942SOL    HW125550   5.935  11.732   2.865 -0.1151 -1.1794  0.9485
37942SOL    HW225551   5.962  11.825   2.981  0.4534  0.2065 -0.2684
37943SOL     OW25552   8.956   8.869   0.966  0.3177  0.1401  0.0900
37943SOL    HW125553   9.049   8.888   0.965  0.1543  1.0273  0.7493
37943SOL    HW225554   8.916   8.940   0.916 -0.0090 -0.2747 -0.2581
37944SOL     OW25555   2.342  11.732  10.753 -0.0998 -0.1856 -0.5502
37944SOL    HW125556   2.308  11.734  10.664  1.3621  1.2448 -1.1257
37944SOL    HW225557   2.426  11.779  10.748 -0.0688  0.0940  1.6135
37945SOL     OW25558   3.474   7.958   4.659 -0.4531 -0.4614  0.3520
37945SOL    HW125559   3.503   7.963   4.568  0.5859 -0.4301  0.6768
37945SOL    HW225560   3.532   7.893   4.699  0.0988  0.6352  1.3659
37946SOL     OW25561   8.720   7.161   9.185  0.4708 -0.3076  0.5145
37946SOL    HW125562   8.682   7.248   9.169 -0.4034 -0.6461  0.7336
37946SOL    HW225563   8.648   7.100   9.172  1.2420 -1.0708 -0.3316
37947SOL     OW25564   4.909   8.661   3.739  0.0958 -0.0670 -0.0178
37947SOL    HW125565   4.869   8.692   3.658  0.0923  0.9014  0.3352
37947SOL    HW225566   5.003   8.664   3.722  0.1706  1.5662  0.4699
37948SOL     OW25567  10.265   3.474   3.740  0.0329  0.2162  0.2517
37948SOL    HW125568  10.353   3.502   3.714 -0.4332  0.1849 -1.4435
37948SOL    HW225569  10.269   3.379   3.740 -0.2888  0.1876 -0.9628
37949SOL     OW25570   5.734   0.936   1.486  0.1932 -0.3298  0.3431
37949SOL    HW125571   5.703   0.857   1.530  1.5226 -0.0430  1.8878
37949SOL    HW225572   5.668   1.002   1.506  0.3094 -0.4464  1.1457
37950SOL     OW25573   9.409   1.035   1.625  0.3018  0.2760  0.3918
37950SOL    HW125574   9.439   0.963   1.681  1.1230 -0.3215 -0.7671
37950SOL    HW225575   9.479   1.046   1.561 -0.9454  0.3760 -1.0070
37951SOL     OW25576   8.029   9.907   5.253  0.6000  0.1952 -0.4411
37951SOL    HW125577   8.048   9.838   5.316 -2.3812 -1.6854 -1.3718
37951SOL    HW225578   8.064   9.987   5.292  0.8646 -1.2351  2.4830
37952SOL     OW25579   5.526   9.055   7.602  0.1077  0.8534  0.1760
37952SOL    HW125580   5.613   9.028   7.572 -0.4051 -1.2940  0.4579
37952SOL    HW225581   5.492   9.109   7.531  0.5200 -0.7430 -1.3025
37953SOL     OW25582   3.303   8.154   1.283 -0.4110  0.5308  0.0887
37953SOL    HW125583   3.380   8.208   1.267 -1.5809  1.9111 -1.2280
37953SOL    HW225584   3.266   8.187   1.365 -0.8980  1.5180 -0.5063
37954SOL     OW25585   8.416  10.894   3.440  0.0613 -0.0538 -0.2240
37954SOL    HW125586   8.408  10.877   3.534 -1.2573 -0.5709 -0.4022
37954SOL    HW225587   8.497  10.944   3.431  0.6584 -0.7407  1.0824
37955SOL     OW25588   3.403  10.272   7.611  0.2797 -0.0653 -0.3317
37955SOL    HW125589   3.473  10.272   7.546  0.9675 -1.9937  0.3103
37955SOL    HW225590   3.446  10.245   7.692 -1.2882 -2.1288 -0.0919
37956SOL     OW25591   4.791   2.948   1.261  0.3924  0.5870  0.5385
37956SOL    HW125592   4.875   2.993   1.266 -0.5663  2.7470 -1.3375
37956SOL    HW225593   4.731   3.012   1.225 -1.6096 -1.5354 -0.1618
37957SOL     OW25594   0.194   3.469   5.399 -0.2715  0.2717  0.0121
37957SOL    HW125595   0.282   3.503   5.380 -0.4011  0.1008 -0.9275
37957SOL    HW225596   0.197   3.448   5.493  0.1935  1.7088  0.3447
37958SOL     OW25597   4.944   3.767   8.745  0.0572  0.6239  0.0444
37958SOL    HW125598   4.959   3.819   8.825 -4.2748  2.4235 -0.0226
37958SOL    HW225599   4.973   3.824   8.674  1.9575 -0.1167  0.1815
37959SOL     OW25600  10.236   4.542   6.849  0.1036  0.1035  0.5987
37959SOL    HW125601  10.216   4.478   6.917 -0.7602 -1.9191 -1.4607
37959SOL    HW225602  10.331   4.539   6.840  0.4845  1.8644  2.9806
37960SOL     OW25603   3.787   8.586   4.493  0.9094 -0.0068 -0.4874
37960SOL    HW125604   3.700   8.590   4.452  1.0693  4.0948 -0.8244
37960SOL    HW225605   3.770   8.592   4.587  0.7998  0.4945 -0.5365
37961SOL     OW25606   2.812   7.502   2.850 -0.0084 -0.2074  0.5492
37961SOL    HW125607   2.834   7.462   2.765  1.4485  1.4851  0.0820
37961SOL    HW225608   2.886   7.481   2.906 -0.0649  0.3145  0.8206
37962SOL     OW25609   4.031   0.095   3.304  0.0515  0.5138  0.0819
37962SOL    HW125610   4.003   0.059   3.388  1.3570  0.2414  0.4136
37962SOL    HW225611   4.028   0.190   3.316  1.5550  0.4808  0.9098
37963SOL     OW25612   5.723   5.575   1.485 -0.2078  0.0141 -0.2996
37963SOL    HW125613   5.814   5.580   1.513 -0.0405 -1.4363 -0.4884
37963SOL    HW225614   5.722   5.615   1.398  0.7728 -2.0935 -1.3542
37964SOL     OW25615  10.855   0.864   2.209  0.0212  0.1051 -0.0719
37964SOL    HW125616  10.949   0.871   2.226 -0.4246  0.1623  2.9895
37964SOL    HW225617  10.824   0.799   2.272 -2.1035  0.6439 -0.4788
37965SOL     OW25618   4.033   5.620   9.908  0.0577  0.1495  0.4652
37965SOL    HW125619   4.077   5.691   9.957 -1.5725  1.5895 -0.0354
37965SOL    HW225620   3.957   5.599   9.962 -0.7693  0.4790 -0.5461
37966SOL     OW25621   4.890  10.566   4.613 -0.5326  0.4327  0.0197
37966SOL    HW125622   4.821  10.504   4.592  0.0071 -0.4498  0.7518
37966SOL    HW225623   4.861  10.609   4.693  0.3056 -0.8631  1.0648
37967SOL     OW25624   2.395   0.555   3.370 -0.0468  0.1440  0.2670
37967SOL    HW125625   2.487   0.528   3.375  0.4600  1.3621 -1.3817
37967SOL    HW225626   2.385   0.622   3.437  0.3743  0.2443  0.2314
37968SOL     OW25627   3.588  11.491   3.547 -0.6010 -0.0502  0.4201
37968SOL    HW125628   3.522  11.430   3.581  0.6599 -1.9950 -0.3952
37968SOL    HW225629   3.653  11.496   3.617 -0.3178 -0.2847  0.1762
37969SOL     OW25630  11.210   5.893   6.572 -0.6874  0.1327 -0.3252
37969SOL    HW125631  11.241   5.855   6.654  1.0534  0.5077 -0.7636
37969SOL    HW225632  11.134   5.945   6.597  0.0978  0.6362  1.1400
37970SOL     OW25633   5.185   0.978   1.396  0.3402  0.0998  0.4607
37970SOL    HW125634   5.133   1.050   1.360 -0.2355  0.4753  1.9966
37970SOL    HW225635   5.164   0.977   1.489  2.2907 -0.4218  0.9322
37971SOL     OW25636   0.875   3.724   4.419 -0.5413 -0.1186 -0.0059
37971SOL    HW125637   0.850   3.815   4.436 -2.0676 -0.2498 -1.3042
37971SOL    HW225638   0.908   3.724   4.329 -0.7646 -0.8907 -0.0991
37972SOL     OW25639   2.648   9.619   5.285  0.5590  0.1852 -0.4645
37972SOL    HW125640   2.605   9.702   5.263 -0.4087 -0.4128 -0.8796
37972SOL    HW225641   2.715   9.608   5.217 -0.8131 -0.4589 -1.7726
37973SOL     OW25642   8.643   3.280   7.358  0.4639  0.2109 -0.4314
37973SOL    HW125643   8.725   3.255   7.316  0.9174  0.7536  0.1153
37973SOL    HW225644   8.650   3.247   7.447  0.6065  1.2939 -0.0304
37974SOL     OW25645   5.420   4.756   8.082  0.1576  0.5491  0.4436
37974SOL    HW125646   5.502   4.708   8.084  1.0077  1.9402  1.7994
37974SOL    HW225647   5.357   4.698   8.125  0.8864  0.1971  1.0638
37975SOL     OW25648   4.835  11.679   3.829  0.0721 -0.2102 -0.6736
37975SOL    HW125649   4.792  11.624   3.895 -1.4187  0.0110 -1.4441
37975SOL    HW225650   4.899  11.730   3.879 -0.5752 -0.5147  0.5073
37976SOL     OW25651   8.105   5.516   3.066 -0.2969  0.5328 -0.5183
37976SOL    HW125652   8.180   5.566   3.097 -1.4699  1.7872  0.4306
37976SOL    HW225653   8.064   5.481   3.145 -1.5432  1.1247 -0.8694
37977SOL     OW25654   0.962  10.373  10.449  0.3169  0.1059  0.3384
37977SOL    HW125655   0.903  10.361  10.523  0.0487  0.0624  0.1194
37977SOL    HW225656   1.049  10.381  10.488  0.2346 -0.3895  0.6224
37978SOL     OW25657   8.258   6.480   1.411 -0.4231 -0.2885  0.3606
37978SOL    HW125658   8.332   6.537   1.390 -0.5160  0.1385  1.1332
37978SOL    HW225659   8.184   6.517   1.363 -0.3664 -0.0666  0.4435
37979SOL     OW25660   1.705  10.098   7.091 -0.6528  0.7798  0.2663
37979SOL    HW125661   1.719  10.154   7.015  2.0208  0.3998  0.3955
37979SOL    HW225662   1.720  10.155   7.166 -0.9317  0.5952  0.4640
37980SOL     OW25663   9.284   7.595   8.740  0.2293 -0.1355  0.7336
37980SOL    HW125664   9.192   7.615   8.756  0.5251  1.4253  0.6512
37980SOL    HW225665   9.283   7.510   8.697 -1.1772 -0.0968  0.6431
37981SOL     OW25666   7.631   8.875   1.480  0.0003 -0.2068  0.1800
37981SOL    HW125667   7.578   8.840   1.552 -0.1477 -1.4990 -0.5360
37981SOL    HW225668   7.658   8.961   1.511 -1.6803  0.0815  0.9863
37982SOL     OW25669   5.075   9.380   2.018 -0.0341 -0.1245 -0.5422
37982SOL    HW125670   5.059   9.437   2.093 -0.2770 -0.2196 -0.5203
37982SOL    HW225671   5.078   9.439   1.943  0.5284  0.0082 -0.4215
37983SOL     OW25672   2.853   5.403   7.768 -0.0591 -0.3766 -0.7404
37983SOL    HW125673   2.926   5.439   7.820  0.7323 -1.4935 -1.0331
37983SOL    HW225674   2.895   5.342   7.707 -1.2759 -1.2374 -0.7480
37984SOL     OW25675   0.631   5.862   9.517 -0.0899 -0.3327 -0.6064
37984SOL    HW125676   0.582   5.812   9.453 -0.1417 -0.0096 -0.8228
37984SOL    HW225677   0.719   5.868   9.482 -0.5820  1.5442 -1.6566
37985SOL     OW25678   8.585   5.157   7.039  0.2380  0.2661 -0.0882
37985SOL    HW125679   8.542   5.242   7.049 -0.7441 -0.2362  0.0285
37985SOL    HW225680   8.546   5.102   7.106  2.3701  0.2726  1.2387
37986SOL     OW25681   3.548   4.545   0.423  0.2352 -0.5517 -0.4363
37986SOL    HW125682   3.522   4.625   0.377  0.3514 -0.1326  0.2175
37986SOL    HW225683   3.628   4.568   0.469  0.1919 -1.0011 -0.1240
37987SOL     OW25684   6.912   9.690   3.253  0.0999  0.1369  0.2405
37987SOL    HW125685   6.986   9.710   3.195  1.0084 -0.5254  1.1490
37987SOL    HW225686   6.883   9.776   3.284  0.6680  0.3882  0.1008
37988SOL     OW25687   1.146   5.292   2.217  0.2633  0.3352  0.4245
37988SOL    HW125688   1.071   5.348   2.195 -1.5158 -2.0201  0.1741
37988SOL    HW225689   1.140   5.279   2.311 -1.7161 -2.5018  0.0092
37989SOL     OW25690  11.683   6.025   7.461  0.1290  0.3478 -0.0397
37989SOL    HW125691  11.752   6.092   7.455  0.8891 -0.3086  0.9574
37989SOL    HW225692  11.618   6.063   7.520  1.1057 -0.2038  1.4544
37990SOL     OW25693  10.194   9.347   8.673  0.0961  0.4195  0.3668
37990SOL    HW125694  10.187   9.308   8.586 -1.2702  0.5372  0.4013
37990SOL    HW225695  10.199   9.272   8.733 -1.4186  0.2682  0.3473
37991SOL     OW25696  10.984   9.731   9.996  0.2899  0.3543  0.2437
37991SOL    HW125697  10.918   9.674   9.957 -0.0253  0.2594  0.9005
37991SOL    HW225698  11.054   9.735   9.931  0.0147 -0.2302 -0.0977
37992SOL     OW25699   1.812   0.403   0.912 -0.0293 -0.3693 -0.3037
37992SOL    HW125700   1.849   0.320   0.941  0.0746 -0.3086 -0.2610
37992SOL    HW225701   1.879   0.468   0.935  0.1825 -0.3578 -0.9473
37993SOL     OW25702   9.704   2.913   6.676 -0.3571  0.2897 -0.4864
37993SOL    HW125703   9.628   2.952   6.634 -1.2618 -0.0354  0.7692
37993SOL    HW225704   9.672   2.829   6.710  0.8177 -0.2891 -0.7492
37994SOL     OW25705   1.000   6.714   5.023  0.8177  0.0288  0.3072
37994SOL    HW125706   1.066   6.783   5.029  2.0691 -1.1900  1.6137
37994SOL    HW225707   1.010   6.666   5.106  0.4445 -2.0785 -0.8149
37995SOL     OW25708   8.668   2.467   6.354 -0.6773 -0.5719  0.5174
37995SOL    HW125709   8.611   2.523   6.407 -0.6670 -1.0403  1.0336
37995SOL    HW225710   8.626   2.464   6.268 -0.3079  0.7879  0.2630
37996SOL     OW25711  10.619   4.076   5.233 -0.2387  0.3196  0.0909
37996SOL    HW125712  10.660   4.058   5.318 -1.1588  0.7818  0.6431
37996SOL    HW225713  10.693   4.077   5.172  0.1301 -3.4756  0.2356
37997SOL     OW25714  10.641   8.804   1.380 -0.0069 -0.3421 -0.4386
37997SOL    HW125715  10.586   8.813   1.302 -1.7998 -0.2482  0.7822
37997SOL    HW225716  10.640   8.890   1.421 -1.7329 -1.1303  1.3338
37998SOL     OW25717   3.297  10.105   8.548  0.0263  0.3822 -0.3980
37998SOL    HW125718   3.383  10.132   8.514  0.1050 -0.5037 -0.9264
37998SOL    HW225719   3.281  10.020   8.507 -0.0514 -0.5528  1.4844
37999SOL     OW25720   5.609   5.290  11.623  0.4432  0.1531  0.1720
37999SOL    HW125721   5.544   5.334  11.679  1.2547  1.6847 -0.0217
37999SOL    HW225722   5.569   5.292  11.536 -0.9506 -2.4976  0.6577
38000SOL     OW25723   5.602  11.379   1.671 -0.5356 -0.2519  0.0380
38000SOL    HW125724   5.520  11.336   1.697 -0.6298 -0.9372 -1.3261
38000SOL    HW225725   5.625  11.339   1.587  1.6209 -0.6182  0.7452
38001SOL     OW25726   2.701   0.603   2.284 -0.3154 -0.5324  0.2880
38001SOL    HW125727   2.645   0.576   2.357  0.7437  1.7978  2.0973
38001SOL    HW225728   2.775   0.543   2.288  0.1664  0.1095  1.7657
38002SOL     OW25729   0.522   2.064   1.070  0.1079 -0.3954 -0.0601
38002SOL    HW125730   0.566   2.147   1.052 -2.0039  1.1147  1.2607
38002SOL    HW225731   0.592   1.998   1.066  2.9089  1.9824  3.3233
38003SOL     OW25732  10.592   6.647   8.565  0.3518  0.4278 -0.3185
38003SOL    HW125733  10.635   6.715   8.514  0.3557  0.8541  0.2479
38003SOL    HW225734  10.600   6.568   8.512  2.5162  0.3037  0.0996
38004SOL     OW25735   8.188   8.818  10.882  0.1864 -0.0227  0.5086
38004SOL    HW125736   8.193   8.913  10.879 -1.5955  0.0914 -1.1569
38004SOL    HW225737   8.101   8.800  10.918  1.2280 -1.1048  2.6757
38005SOL     OW25738   1.714   7.103  10.683  0.2064 -0.1024 -0.5442
38005SOL    HW125739   1.673   7.188  10.696 -0.7082 -0.6319  0.2338
38005SOL    HW225740   1.788   7.102  10.743  1.2433  0.7529 -1.7528
38006SOL     OW25741   9.538   5.252   9.484  0.4604 -0.0640 -0.0502
38006SOL    HW125742   9.547   5.335   9.436  1.1136 -0.6219 -0.9139
38006SOL    HW225743   9.604   5.195   9.445 -0.2909 -1.1441  0.2414
38007SOL     OW25744   7.241   1.413   9.478 -0.4277 -0.0034 -0.1972
38007SOL    HW125745   7.316   1.413   9.538 -0.0566  2.3561 -0.5405
38007SOL    HW225746   7.165   1.423   9.536 -0.1874  0.7589  0.0086
38008SOL     OW25747   6.784   5.384   9.484 -0.3226 -0.3442  0.6510
38008SOL    HW125748   6.788   5.290   9.466 -2.2258 -0.4402  0.5716
38008SOL    HW225749   6.737   5.421   9.410  2.0036  0.9942 -0.2560
38009SOL     OW25750   8.213   6.924   6.587 -0.1366 -0.2873 -0.3415
38009SOL    HW125751   8.221   6.959   6.676 -4.3083 -1.0703  0.5506
38009SOL    HW225752   8.229   6.998   6.530 -1.4959  1.3115  1.2513
38010SOL     OW25753   1.849   9.534   1.685 -0.9283 -0.4719 -0.0661
38010SOL    HW125754   1.760   9.505   1.702 -1.9349  2.4740  0.3980
38010SOL    HW225755   1.840   9.599   1.614  1.1783 -1.6693 -1.5543
38011SOL     OW25756   7.982   8.637   5.863  0.0199 -0.2034 -0.2886
38011SOL    HW125757   8.052   8.700   5.881 -0.3992  0.0063  0.7091
38011SOL    HW225758   8.020   8.574   5.803  1.1478 -0.2392  0.4449
38012SOL     OW25759  11.925   0.151   3.456  0.2504 -0.2687  0.5919
38012SOL    HW125760  11.913   0.067   3.501  0.1086  0.1565  1.3674
38012SOL    HW225761  12.002   0.137   3.401 -2.2696 -2.3327 -2.7862
38013SOL     OW25762   1.798   5.542   6.166 -0.0569 -0.5585 -0.1495
38013SOL    HW125763   1.733   5.587   6.221  0.3322  1.0482 -0.9428
38013SOL    HW225764   1.796   5.451   6.195 -0.1052  0.1654  2.2919
38014SOL     OW25765   9.069   5.333   7.357 -0.2090 -0.0191  0.0825
38014SOL    HW125766   9.155   5.302   7.385  0.7126  0.8180 -1.6831
38014SOL    HW225767   9.007   5.272   7.398  1.4096 -3.3919 -2.0591
38015SOL     OW25768   1.828   3.265  11.395  0.1838  0.1484 -0.0399
38015SOL    HW125769   1.907   3.216  11.375 -0.5447 -2.2769  2.4227
38015SOL    HW225770   1.756   3.206  11.374 -0.9525  1.6367 -0.5651
38016SOL     OW25771   9.282   4.134   0.855 -0.4435  0.7643 -0.2742
38016SOL    HW125772   9.308   4.195   0.785 -2.0226  0.3388 -1.2836
38016SOL    HW225773   9.360   4.079   0.868 -0.7447 -0.5831 -3.3055
38017SOL     OW25774   4.098   4.651   7.884  0.4075  0.0049 -0.5111
38017SOL    HW125775   4.141   4.566   7.873  1.4020  0.4530 -0.2106
38017SOL    HW225776   4.149   4.711   7.830  0.6551  0.7005  0.4595
38018SOL     OW25777   9.313   9.371   0.899  1.0069  0.1664  0.1095
38018SOL    HW125778   9.321   9.416   0.815  1.4383 -0.7037 -0.3310
38018SOL    HW225779   9.230   9.323   0.892  2.7757 -2.9755 -1.4024
38019SOL     OW25780   0.649   6.538   8.145  0.4897 -0.1342  0.1258
38019SOL    HW125781   0.739   6.506   8.141  1.6567  2.5792  1.8611
38019SOL    HW225782   0.634   6.577   8.059  0.9979 -0.4512 -0.1144
38020SOL     OW25783   2.532   1.910   3.114 -0.4643 -0.5577 -0.3058
38020SOL    HW125784   2.561   1.908   3.205 -2.1847 -1.3899  0.2622
38020SOL    HW225785   2.592   1.971   3.071 -0.4144  0.8739  1.6713
38021SOL     OW25786   3.290   7.990  10.545  0.7131 -0.0974 -0.0939
38021SOL    HW125787   3.245   8.073  10.560 -1.6294 -1.2079 -0.4955
38021SOL    HW225788   3.295   7.983  10.449 -0.4635 -1.0795 -0.0942
38022SOL     OW25789   1.399   2.615  11.659  0.3291 -0.4656  0.3406
38022SOL    HW125790   1.425   2.615  11.567 -0.7700  1.0588 -0.0033
38022SOL    HW225791   1.320   2.561  11.662  0.1196 -0.1620  0.3101
38023SOL     OW25792   5.816   8.384   4.871  0.8457  0.2612  0.1947
38023SOL    HW125793   5.804   8.322   4.943 -0.9696  1.9605  1.4797
38023SOL    HW225794   5.865   8.336   4.805 -0.8429 -2.6833  0.9166
38024SOL     OW25795  11.531   4.855   6.267  0.0538 -0.0112  0.0715
38024SOL    HW125796  11.625   4.860   6.251  0.0367 -0.3665 -0.1544
38024SOL    HW225797  11.495   4.816   6.187 -0.5018  1.6873 -0.5660
38025SOL     OW25798  11.162   5.534   1.731 -0.1551 -0.4848  0.3978
38025SOL    HW125799  11.134   5.504   1.644  0.7852  0.6724 -0.3271
38025SOL    HW225800  11.098   5.601   1.755 -1.3091 -1.8355  1.3134
38026SOL     OW25801   2.244  10.748   2.498 -0.3408  0.3329  0.5368
38026SOL    HW125802   2.250  10.661   2.459  2.4769  0.4371  0.5300
38026SOL    HW225803   2.156  10.752   2.534 -0.2243 -2.9440  1.4925
38027SOL     OW25804   5.989   5.415   3.300 -0.0740 -0.1735 -0.4653
38027SOL    HW125805   5.993   5.334   3.350  0.6348  0.2499  0.1812
38027SOL    HW225806   6.079   5.430   3.271 -0.4474 -0.3380 -1.7652
38028SOL     OW25807   6.365   2.557   1.357 -0.1619 -0.1123  0.5880
38028SOL    HW125808   6.426   2.506   1.305  0.6075 -0.2108  1.5544
38028SOL    HW225809   6.343   2.500   1.431 -0.5808  0.3367  0.8189
38029SOL     OW25810   0.053   9.407   8.261  0.0238  0.1702 -0.5353
38029SOL    HW125811   0.070   9.418   8.168  0.9774  0.6458 -0.3256
38029SOL    HW225812   0.097   9.482   8.302  0.8540 -0.8047  0.4116
38030SOL     OW25813   3.611   2.503  10.678  0.3735 -0.4352  0.3949
38030SOL    HW125814   3.547   2.572  10.696 -0.0305 -0.9537  0.9773
38030SOL    HW225815   3.570   2.449  10.611  0.2332 -0.7168  0.7047
38031SOL     OW25816   4.418   9.852   2.034  0.4247  0.4716  0.4796
38031SOL    HW125817   4.408   9.789   2.105  1.3877 -0.9302 -0.5822
38031SOL    HW225818   4.329   9.876   2.009 -0.2159 -3.3943 -1.5923
38032SOL     OW25819   5.451  10.142  10.075 -0.4461 -0.1488 -0.0873
38032SOL    HW125820   5.385  10.074  10.086 -0.4226 -0.2968 -0.8057
38032SOL    HW225821   5.526  10.113  10.127 -1.7981  1.2368  2.8636
38033SOL     OW25822  10.701   5.146   4.523  0.6064 -0.3619 -0.3821
38033SOL    HW125823  10.791   5.166   4.549  0.3029 -0.9285  1.2439
38033SOL    HW225824  10.678   5.068   4.573 -2.1837  2.0952  2.7133
38034SOL     OW25825   6.384   4.122   3.154  0.5819 -0.9099  0.1610
38034SOL    HW125826   6.429   4.189   3.205  0.4802 -1.0822  0.4854
38034SOL    HW225827   6.321   4.170   3.100 -1.6182 -0.8780  2.5281
38035SOL     OW25828   1.412   5.848   4.508 -0.1204 -0.1432  0.2586
38035SOL    HW125829   1.346   5.780   4.522  0.8431 -0.6148  3.2441
38035SOL    HW225830   1.367   5.930   4.529 -0.3034 -0.2625  0.3346
38036SOL     OW25831   2.853  11.308   0.847 -0.4628 -0.3855 -0.1258
38036SOL    HW125832   2.757  11.313   0.845 -0.4064  2.1389 -2.8258
38036SOL    HW225833   2.880  11.328   0.758  2.6486  2.4219  1.2290
38037SOL     OW25834  11.393   2.852   7.002  0.5458  0.0353 -0.0262
38037SOL    HW125835  11.481   2.819   7.021  0.4035  0.4167  1.3734
38037SOL    HW225836  11.336   2.776   7.014  0.5763  0.0092 -0.0458
38038SOL     OW25837   9.172   6.593   7.651  0.2969  0.4552  0.2204
38038SOL    HW125838   9.140   6.656   7.716 -0.0147  0.3555  0.1685
38038SOL    HW225839   9.115   6.517   7.661 -0.5371  0.8784 -0.9465
38039SOL     OW25840   8.966   4.179   2.932  0.6252 -0.5409  0.2061
38039SOL    HW125841   8.875   4.152   2.942 -0.1762  1.5003 -0.8776
38039SOL    HW225842   8.980   4.244   3.001  0.7681  0.2042 -0.5027
38040SOL     OW25843   9.285  10.425   4.593 -0.0215  0.3037 -0.6895
38040SOL    HW125844   9.354  10.370   4.558  0.7322 -0.4379  1.7712
38040SOL    HW225845   9.303  10.512   4.558  1.0412 -0.2604 -1.5791
38041SOL     OW25846   5.002   3.821   4.907  0.0803  0.1887  0.1867
38041SOL    HW125847   4.945   3.897   4.924  0.5923  0.8142 -0.8063
38041SOL    HW225848   4.946   3.745   4.926 -0.6586  0.7984  0.5379
38042SOL     OW25849   5.394   4.124  11.216 -0.2373  0.0320  0.2294
38042SOL    HW125850   5.303   4.096  11.227 -0.4989  0.6188 -0.4014
38042SOL    HW225851   5.402   4.144  11.123  0.9935 -1.5992 -0.0808
38043SOL     OW25852   9.154  11.591   6.934  0.1495 -0.1056  0.0741
38043SOL    HW125853   9.072  11.637   6.916  0.2856 -0.1130 -0.5969
38043SOL    HW225854   9.127  11.511   6.980 -0.1920  0.0297  0.1161
38044SOL     OW25855   5.388   0.025   0.775 -1.1838 -0.3304 -0.1458
38044SOL    HW125856   5.369  -0.066   0.751  0.0772 -0.9131  0.9497
38044SOL    HW225857   5.462   0.050   0.720 -0.9731 -0.2604  0.1658
38045SOL     OW25858   8.228   5.841   4.355  0.0982 -0.0621  0.5745
38045SOL    HW125859   8.219   5.897   4.433 -0.0580 -1.0274  1.2590
38045SOL    HW225860   8.145   5.795   4.349 -0.1740  0.5328 -0.6088
38046SOL     OW25861   2.649  10.312   1.197 -0.2044  0.4646  0.2707
38046SOL    HW125862   2.703  10.371   1.248  0.9534  0.7594 -1.2467
38046SOL    HW225863   2.625  10.243   1.259  0.9487  0.9197  1.2705
38047SOL     OW25864   2.184   0.202   3.755  0.1969  0.5208  0.3068
38047SOL    HW125865   2.203   0.133   3.819 -0.9833 -0.9300 -0.8220
38047SOL    HW225866   2.209   0.283   3.799  1.0121 -0.5563  1.9474
38048SOL     OW25867   6.084   3.011   8.262 -0.3997  0.1896 -0.4980
38048SOL    HW125868   6.078   2.933   8.317 -0.6556  0.5868  0.0487
38048SOL    HW225869   6.141   2.985   8.189  1.0873  0.0582  0.6651
38049SOL     OW25870   2.421   2.437  11.642 -0.4546 -0.7141 -0.0185
38049SOL    HW125871   2.427   2.455  11.548 -1.5983 -2.8698 -0.5522
38049SOL    HW225872   2.455   2.348  11.652  0.6844 -0.1312  1.8094
38050SOL     OW25873   0.306   4.803   1.174  0.5594 -0.6733  0.6618
38050SOL    HW125874   0.340   4.789   1.086  2.4468  0.4737  1.1562
38050SOL    HW225875   0.328   4.722   1.221 -0.8175 -1.4602  0.0333
38051SOL     OW25876   6.135   0.472   5.343 -0.6324  0.1101 -0.2094
38051SOL    HW125877   6.102   0.475   5.433 -1.7188 -0.8069 -0.5625
38051SOL    HW225878   6.067   0.515   5.291 -0.1749  0.3092 -0.6508
38052SOL     OW25879   5.015   2.562  10.969 -0.3043  0.0756 -0.4581
38052SOL    HW125880   5.070   2.600  10.901  1.7082  0.0153  1.0542
38052SOL    HW225881   4.982   2.637  11.019 -1.3568  0.0897 -1.1308
38053SOL     OW25882  11.883   8.505   1.277 -0.0119  0.3415 -0.1549
38053SOL    HW125883  11.822   8.566   1.235  1.4395  1.2728 -0.9821
38053SOL    HW225884  11.960   8.558   1.297  0.8529 -0.9822  0.1087
38054SOL     OW25885   3.473   0.549   3.477 -0.8738  0.0761 -0.3370
38054SOL    HW125886   3.492   0.518   3.566 -0.3849  1.3628  0.0185
38054SOL    HW225887   3.406   0.488   3.445 -1.4068 -0.1306  1.0815
38055SOL     OW25888   9.577   7.334   4.435  0.3762  0.3186  0.3601
38055SOL    HW125889   9.522   7.368   4.364  0.9440 -0.7939 -0.6556
38055SOL    HW225890   9.529   7.258   4.468 -0.0889  1.0864  1.4746
38056SOL     OW25891   1.331   3.676   7.327  0.5565  0.0237  0.4207
38056SOL    HW125892   1.278   3.692   7.405 -0.7322 -0.4938 -0.3030
38056SOL    HW225893   1.308   3.749   7.268 -0.7203 -1.1139 -0.5585
38057SOL     OW25894   0.070  10.934   8.161  0.7024  0.1602  0.3530
38057SOL    HW125895   0.050  10.935   8.067  0.6161  0.1151  0.3707
38057SOL    HW225896   0.107  10.847   8.176  1.2337  0.3666  0.2520
38058SOL     OW25897   6.110   4.250   1.905  0.0132 -0.5512 -0.0445
38058SOL    HW125898   6.198   4.286   1.913  0.5665 -1.9704  0.6764
38058SOL    HW225899   6.123   4.160   1.876 -1.2745 -0.4696 -0.9992
38059SOL     OW25900   1.486   6.416  11.481  0.0524  0.1929  0.1964
38059SOL    HW125901   1.501   6.370  11.398 -0.6286 -2.1502  1.2827
38059SOL    HW225902   1.429   6.490  11.458 -0.0293 -0.3335 -1.4299
38060SOL     OW25903   5.797   7.766   3.613  0.6309  0.0244 -0.1846
38060SOL    HW125904   5.765   7.769   3.704  2.4277  0.7367  0.4709
38060SOL    HW225905   5.741   7.701   3.570 -0.5052 -0.0571  1.3277
38061SOL     OW25906   5.255   4.299   0.299 -0.3328 -0.1361 -0.0316
38061SOL    HW125907   5.197   4.302   0.223 -2.9099 -0.0227  1.7809
38061SOL    HW225908   5.216   4.360   0.362  1.1860 -0.8334  1.6977
38062SOL     OW25909   0.872   1.244   6.573 -0.1893 -0.3345  0.5502
38062SOL    HW125910   0.867   1.265   6.480 -0.7395 -1.2620  0.3632
38062SOL    HW225911   0.785   1.213   6.596 -0.1937  0.3029  1.4937
38063SOL     OW25912   6.045   6.983   5.637 -0.4976  0.4143 -0.3884
38063SOL    HW125913   6.043   7.073   5.605 -0.8492 -0.0726 -1.8194
38063SOL    HW225914   6.009   6.931   5.565 -3.4737 -0.5625  1.6301
38064SOL     OW25915  11.858  10.966   7.929 -0.3230  0.6050 -0.1941
38064SOL    HW125916  11.801  11.037   7.958 -0.2262  0.2571  0.8567
38064SOL    HW225917  11.824  10.943   7.842 -0.6285  1.6312 -0.3602
38065SOL     OW25918  10.022   2.509   4.668  0.6981  0.8447 -0.2335
38065SOL    HW125919   9.934   2.548   4.666  0.2707 -0.1005 -0.5799
38065SOL    HW225920  10.007   2.417   4.648  1.3036 -0.2238  3.4922
38066SOL     OW25921   7.176   1.044   7.771  0.2390  0.4562  1.0325
38066SOL    HW125922   7.228   0.964   7.766 -0.5501 -0.0369 -2.6433
38066SOL    HW225923   7.219   1.105   7.710 -1.7947  1.0178  0.0429
38067SOL     OW25924   6.734   3.881   5.293 -0.4756  0.3734 -0.3741
38067SOL    HW125925   6.696   3.923   5.215 -0.2842  1.9169  0.3269
38067SOL    HW225926   6.663   3.827   5.328 -1.5139  1.8709 -0.0628
38068SOL     OW25927   6.514   8.196   5.488 -0.0308  0.1655  0.0414
38068SOL    HW125928   6.523   8.110   5.449 -0.1229  0.3191 -0.3226
38068SOL    HW225929   6.587   8.247   5.453 -0.2870  0.3933 -0.1703
38069SOL     OW25930  10.092   2.247   8.248 -0.2754  0.1915 -0.1740
38069SOL    HW125931  10.183   2.237   8.276  0.0816  0.9381 -1.0165
38069SOL    HW225932  10.075   2.341   8.255 -0.3941  0.3184 -1.7230
38070SOL     OW25933   0.228  11.247   4.771  0.6806 -0.0080  0.0082
38070SOL    HW125934   0.213  11.183   4.701 -2.6769  3.3185 -2.6699
38070SOL    HW225935   0.300  11.301   4.739  0.9519 -0.1135  0.4382
38071SOL     OW25936   9.056   7.895  10.818  0.9975 -0.1086 -0.8542
38071SOL    HW125937   9.114   7.953  10.769  1.0763  1.6417  1.1441
38071SOL    HW225938   9.005   7.954  10.874 -0.4897 -1.8371 -0.2706
38072SOL     OW25939   5.986   6.194   9.339 -0.2926  0.5371  0.1994
38072SOL    HW125940   6.058   6.234   9.387  0.1203  0.4112 -0.3053
38072SOL    HW225941   5.908   6.213   9.391  0.0101  1.2868  0.3870
38073SOL     OW25942   8.877   4.348   3.636  0.2074 -0.1524  0.4079
38073SOL    HW125943   8.868   4.441   3.657  1.4677  0.0132  0.3287
38073SOL    HW225944   8.796   4.308   3.666 -0.5162  1.0313  0.1067
38074SOL     OW25945   3.016  10.875   2.156 -0.1596 -0.0083  0.2899
38074SOL    HW125946   3.044  10.910   2.071  0.1517  1.6863  1.0456
38074SOL    HW225947   3.098  10.854   2.201 -0.2451  0.7767  0.8269
38075SOL     OW25948   9.931  11.662   8.849 -0.0795 -0.3853 -0.2721
38075SOL    HW125949   9.836  11.675   8.859  0.0578 -0.8330  2.4082
38075SOL    HW225950   9.969  11.744   8.879  0.4108 -0.5659 -0.3953
38076SOL     OW25951   6.784  11.346   8.717 -0.3241 -0.1916 -0.1688
38076SOL    HW125952   6.804  11.262   8.675  1.1038 -0.4277  0.9266
38076SOL    HW225953   6.695  11.335   8.752 -0.0881 -1.3029  0.0965
38077SOL     OW25954   8.554   0.605   6.226  0.1976  0.1893 -0.0419
38077SOL    HW125955   8.545   0.543   6.298 -0.5012 -0.1270 -0.3890
38077SOL    HW225956   8.556   0.550   6.148  0.8982  0.5287 -0.2702
38078SOL     OW25957   9.070   3.556   9.821 -0.1609 -0.5938  0.1544
38078SOL    HW125958   9.119   3.603   9.888 -1.0962  0.5509  0.0684
38078SOL    HW225959   8.980   3.554   9.853 -0.9002  1.1505 -1.5989
38079SOL     OW25960   8.093   1.360   0.666 -0.0965 -0.1201  0.4972
38079SOL    HW125961   8.110   1.438   0.614  0.2773 -0.4477  0.1269
38079SOL    HW225962   8.102   1.389   0.757 -0.7716  0.4560  0.3931
38080SOL     OW25963  11.445   2.305   6.601 -0.3002  0.1533  0.4684
38080SOL    HW125964  11.531   2.321   6.639 -0.0423  0.9546 -0.4248
38080SOL    HW225965  11.384   2.316   6.674  0.3386 -0.3913  1.0995
38081SOL     OW25966   1.460   1.323   8.429 -0.1634 -0.0853 -0.3881
38081SOL    HW125967   1.483   1.318   8.336  0.0926  2.0163 -0.4951
38081SOL    HW225968   1.541   1.350   8.472 -0.1801 -1.4239  0.5181
38082SOL     OW25969   3.938   7.711  10.613  0.1396  0.1043 -0.0670
38082SOL    HW125970   3.897   7.773  10.552  2.1524  1.6988  0.1009
38082SOL    HW225971   4.032   7.729  10.606  0.8657 -3.1137 -0.1524
38083SOL     OW25972   7.843  10.442  11.214 -0.0318  0.2706 -0.3437
38083SOL    HW125973   7.845  10.379  11.141 -1.3303 -0.1901 -0.0039
38083SOL    HW225974   7.815  10.390  11.289  0.0652  1.0153  0.2148
38084SOL     OW25975   8.315   8.300   8.357 -0.0794  0.3416 -0.1295
38084SOL    HW125976   8.254   8.301   8.431  1.4798 -0.6006  1.2295
38084SOL    HW225977   8.264   8.335   8.284 -2.4158 -0.8828  0.7941
38085SOL     OW25978   9.781   3.453   6.283 -0.2432 -0.1463  0.1263
38085SOL    HW125979   9.715   3.470   6.350  0.7466 -0.5643  1.2352
38085SOL    HW225980   9.743   3.382   6.230 -0.7777 -0.2302  0.6068
38086SOL     OW25981   5.706  11.883   2.010  0.0246 -0.2255  0.1277
38086SOL    HW125982   5.759  11.818   2.056 -1.4344 -1.1584  0.5491
38086SOL    HW225983   5.710  11.857   1.918  1.5028  0.6085 -0.0719
38087SOL     OW25984   4.640   5.628   8.535 -0.3229  0.1162 -0.1822
38087SOL    HW125985   4.668   5.556   8.592 -0.9616  0.2684  0.3463
38087SOL    HW225986   4.665   5.600   8.447 -0.2916 -0.6210  0.0482
38088SOL     OW25987  10.832   4.046   5.047 -0.1612  0.1164 -0.1696
38088SOL    HW125988  10.809   4.100   4.972  0.0642  0.4200 -0.0241
38088SOL    HW225989  10.810   3.956   5.021 -1.8171  0.4283  0.0915
38089SOL     OW25990   3.590   0.957   7.396 -0.0066  0.1370  0.2638
38089SOL    HW125991   3.668   0.907   7.373 -1.5096 -1.7992 -0.8906
38089SOL    HW225992   3.566   1.004   7.315 -1.0944 -0.8196  0.0005
38090SOL     OW25993  11.951  11.315   9.850 -0.4575 -0.4107  0.3423
38090SOL    HW125994  11.987  11.256   9.784  1.0212  1.2189 -0.3639
38090SOL    HW225995  11.967  11.269   9.933  1.3259 -0.7347 -0.1233
38091SOL     OW25996  11.602   1.234  10.148  0.4472 -0.3592  0.2133
38091SOL    HW125997  11.531   1.281  10.103  0.4871 -0.0792  0.4491
38091SOL    HW225998  11.678   1.246  10.091 -0.1264 -2.3123 -1.0994
38092SOL     OW25999   9.876   9.674   0.039  0.1526 -0.1256 -0.0548
38092SOL    HW126000   9.865   9.638   0.128 -0.0664 -0.0873 -0.0647
38092SOL    HW226001   9.917   9.759   0.053 -2.8375  1.3954  0.2921
38093SOL     OW26002   6.749   2.253  10.500 -0.0588 -0.2090  0.0583
38093SOL    HW126003   6.840   2.254  10.530 -0.3921 -0.8794  1.1398
38093SOL    HW226004   6.755   2.244  10.405  0.9953 -1.1096  0.1973
38094SOL     OW26005   8.511  10.944   9.829 -0.9594  0.5265  0.1669
38094SOL    HW126006   8.529  10.985   9.744  0.8940  0.0939  0.3082
38094SOL    HW226007   8.475  11.014   9.882 -1.1486  1.0714 -0.6637
38095SOL     OW26008   5.437   8.126   8.447 -0.1408  0.1899 -0.1531
38095SOL    HW126009   5.435   8.038   8.485 -1.9520 -0.1221 -0.8822
38095SOL    HW226010   5.498   8.119   8.374  2.5908  0.5399  1.9020
38096SOL     OW26011   4.233  10.704   6.195  0.4360  0.2941 -1.0365
38096SOL    HW126012   4.221  10.797   6.174 -1.8090  0.1301 -0.7048
38096SOL    HW226013   4.184  10.657   6.127 -1.8654 -0.4451  0.9853
38097SOL     OW26014   4.532  11.292   6.156  0.1583  0.0666 -0.7006
38097SOL    HW126015   4.585  11.249   6.224 -0.0103 -0.2552 -0.7713
38097SOL    HW226016   4.560  11.383   6.159  1.3956 -0.2716 -1.3698
38098SOL     OW26017   2.318   2.025   9.713 -0.0731 -0.0039 -0.0690
38098SOL    HW126018   2.350   2.011   9.802 -0.4791  2.1426  0.4553
38098SOL    HW226019   2.297   1.937   9.681  0.7154 -0.8756  1.6936
38099SOL     OW26020   1.679   0.479   5.799  0.2037 -0.1147 -0.4389
38099SOL    HW126021   1.640   0.565   5.805  1.5315  0.4132  2.3655
38099SOL    HW226022   1.757   0.491   5.745 -0.2199  0.1800 -0.9844
38100SOL     OW26023   1.104   5.688   9.911 -0.2284  0.3574  0.2396
38100SOL    HW126024   1.034   5.638   9.954 -0.0769 -0.7676 -0.7843
38100SOL    HW226025   1.149   5.624   9.856  0.6311  1.4082 -0.3056
38101SOL     OW26026   5.605   9.347   9.011  0.2127  0.9471 -0.2988
38101SOL    HW126027   5.519   9.329   9.049  0.2782  1.0340 -0.1089
38101SOL    HW226028   5.605   9.441   8.993 -0.4517  0.6432 -2.0979
38102SOL     OW26029   6.151   1.019   7.191 -0.5914  0.7911 -0.3264
38102SOL    HW126030   6.108   0.946   7.145 -0.9661  1.0095 -0.3255
38102SOL    HW226031   6.242   1.015   7.163 -0.0876 -1.0187  1.3170
38103SOL     OW26032  10.477   5.300   5.399 -0.8937 -0.2184 -0.4738
38103SOL    HW126033  10.410   5.272   5.336 -0.9033  1.0314 -1.0392
38103SOL    HW226034  10.444   5.382   5.434 -0.8510 -0.8540  1.1434
38104SOL     OW26035   2.295   7.477   6.396  0.6536  0.4037 -0.3685
38104SOL    HW126036   2.338   7.400   6.359  2.4110  1.1308  0.0713
38104SOL    HW226037   2.286   7.537   6.321  1.1425  0.5662 -0.2971
38105SOL     OW26038   6.448   5.032  11.459 -0.4905 -0.6708 -0.3407
38105SOL    HW126039   6.390   5.093  11.413  0.4464  0.8488  0.3976
38105SOL    HW226040   6.391   4.986  11.520 -0.9994  0.6607  0.2408
38106SOL     OW26041   3.995   0.908   8.715  0.7787  0.2372  0.0103
38106SOL    HW126042   3.998   0.813   8.722  1.6360  0.3134  0.8193
38106SOL    HW226043   3.950   0.937   8.794  0.0995  0.4885 -0.4582
38107SOL     OW26044   4.154   2.710   9.474 -0.0201 -0.0841  0.1234
38107SOL    HW126045   4.176   2.796   9.438 -0.4318  0.1944  0.5129
38107SOL    HW226046   4.093   2.730   9.545 -1.5366 -0.8079 -0.9300
38108SOL     OW26047   1.128  11.137   7.545 -0.7131  0.1372  0.0091
38108SOL    HW126048   1.195  11.199   7.575 -1.8023  0.9550  0.8185
38108SOL    HW226049   1.175  11.054   7.534  0.1953  0.3829  1.7662
38109SOL     OW26050   8.092   2.909   6.669 -0.2169 -0.3834  0.1252
38109SOL    HW126051   8.143   2.963   6.609 -1.1726 -0.6046 -0.9246
38109SOL    HW226052   8.154   2.884   6.738  0.6767  0.6132 -0.2788
38110SOL     OW26053   3.349  10.735   2.413  0.4441  0.6585 -0.1363
38110SOL    HW126054   3.351  10.771   2.324  2.1300 -0.8429 -0.7724
38110SOL    HW226055   3.257  10.716   2.429  0.2211 -0.1213 -2.0514
38111SOL     OW26056   5.661   9.993   5.769  0.0776  0.0494 -0.3950
38111SOL    HW126057   5.656   9.977   5.675 -2.2236  1.8969 -0.6790
38111SOL    HW226058   5.611   9.922   5.808 -0.1552  0.0537 -0.6834
38112SOL     OW26059   5.634   2.844   0.152  0.5720 -0.2783 -0.0407
38112SOL    HW126060   5.671   2.815   0.069 -1.2090 -2.9114 -0.0746
38112SOL    HW226061   5.541   2.857   0.133  0.8602  3.9719  0.5070
38113SOL     OW26062   6.014  10.169   7.733 -0.6794 -0.0389 -0.0597
38113SOL    HW126063   5.973  10.253   7.712  3.4299  1.8923 -1.4959
38113SOL    HW226064   6.039  10.177   7.825 -0.7674  0.0751 -0.0450
38114SOL     OW26065  11.679   0.210   0.198  0.0358  0.1573  0.3396
38114SOL    HW126066  11.627   0.204   0.118  2.0499 -0.4838 -1.0207
38114SOL    HW226067  11.768   0.189   0.169  1.0789  1.3222  2.5004
38115SOL     OW26068   8.569   3.267   9.738 -0.1490  0.1140  0.2923
38115SOL    HW126069   8.493   3.224   9.700 -1.2356  0.1431  2.3078
38115SOL    HW226070   8.558   3.360   9.716 -1.3141  0.2843  1.4904
38116SOL     OW26071   5.223   0.027   2.893  0.0998 -0.5136 -0.1464
38116SOL    HW126072   5.232  -0.017   2.808  0.8363 -1.3273  0.3454
38116SOL    HW226073   5.278   0.105   2.885 -0.3861 -0.2088 -0.6514
38117SOL     OW26074   8.048   3.840  11.878  0.4231  0.3592  0.5017
38117SOL    HW126075   8.084   3.900  11.813  0.0599  0.0912  0.0442
38117SOL    HW226076   8.119   3.827  11.941  1.0831 -0.0283 -0.2936
38118SOL     OW26077   1.870  11.396  10.506 -0.0888  0.1206 -0.7854
38118SOL    HW126078   1.825  11.452  10.568  0.9480  2.2697 -1.8673
38118SOL    HW226079   1.943  11.358  10.555 -1.1359 -0.8108  0.1044
38119SOL     OW26080   6.836   9.731   7.149 -0.2125 -0.2719  0.4907
38119SOL    HW126081   6.748   9.734   7.185  0.0217 -3.7581  1.7034
38119SOL    HW226082   6.828   9.682   7.067  0.5100  0.1861  0.1245
38120SOL     OW26083   1.105   0.562   1.845  0.0517 -0.3654  0.1291
38120SOL    HW126084   1.068   0.531   1.762 -2.0959 -0.5911  1.0846
38120SOL    HW226085   1.153   0.486   1.879  0.6851 -0.3699 -0.7375
38121SOL     OW26086   5.180   9.465   1.462 -0.2453 -0.0843 -0.4468
38121SOL    HW126087   5.269   9.435   1.441  0.2377 -0.0554  1.3368
38121SOL    HW226088   5.134   9.385   1.489 -0.8811 -0.1464 -1.6524
38122SOL     OW26089   9.408  10.434  10.624  0.5217 -0.1439 -0.1616
38122SOL    HW126090   9.316  10.456  10.608  1.0886  1.1246 -2.0835
38122SOL    HW226091   9.433  10.488  10.699  0.3041  1.4504 -1.1728
38123SOL     OW26092   7.968  11.344  10.430  0.4466 -0.0248 -0.3008
38123SOL    HW126093   7.876  11.368  10.421 -0.3340 -3.2274 -2.8324
38123SOL    HW226094   7.975  11.310  10.519 -0.9351 -0.0244 -0.1690
38124SOL     OW26095   9.953   0.218  11.455  0.3438 -0.4890  0.2949
38124SOL    HW126096   9.924   0.176  11.375 -0.1558 -2.4061  1.4283
38124SOL    HW226097  10.046   0.194  11.463  0.5338  0.1275  0.0648
38125SOL     OW26098  10.768   7.801   9.298 -0.4866  0.3687  0.0048
38125SOL    HW126099  10.701   7.775   9.361 -0.7678 -1.6588 -1.0615
38125SOL    HW226100  10.720   7.821   9.218  0.1173 -1.0120 -0.7464
38126SOL     OW26101   6.520   7.567   8.480 -0.4721  0.0067 -1.0213
38126SOL    HW126102   6.433   7.529   8.473 -0.6912  0.2424  0.2230
38126SOL    HW226103   6.517   7.619   8.560  0.6514  0.4507 -1.2501
38127SOL     OW26104   2.695   3.206   5.011 -0.2960  0.3432  0.3173
38127SOL    HW126105   2.731   3.145   4.947  0.9987  1.3048  0.0772
38127SOL    HW226106   2.708   3.292   4.972  0.6511  0.9659  1.8941
38128SOL     OW26107  11.367   3.438   3.927 -0.7357  0.0688 -0.0268
38128SOL    HW126108  11.385   3.370   3.861 -3.1190 -2.0811  1.3847
38128SOL    HW226109  11.322   3.393   3.997 -0.0931  2.6779  2.2509
38129SOL     OW26110   8.396   3.758   5.797 -0.2727  0.0427 -0.2254
38129SOL    HW126111   8.350   3.690   5.747  0.3372  0.3619 -1.2429
38129SOL    HW226112   8.477   3.715   5.826  0.3454  0.4647 -1.2882
38130SOL     OW26113   3.817   2.086   0.208  0.5909  0.2397  0.5763
38130SOL    HW126114   3.857   2.173   0.203 -2.0963  1.5522  0.2418
38130SOL    HW226115   3.833   2.048   0.121 -1.5271  2.0499 -0.6955
38131SOL     OW26116   5.134   5.149   2.123  0.2281 -0.1068 -0.6369
38131SOL    HW126117   5.073   5.079   2.099 -0.3196  0.0940  0.1372
38131SOL    HW226118   5.214   5.104   2.148 -0.8937 -0.6802  2.2920
38132SOL     OW26119   2.303   7.436   4.865 -0.2653  0.3153 -0.2961
38132SOL    HW126120   2.305   7.528   4.842  0.0004  0.7217  1.2517
38132SOL    HW226121   2.256   7.432   4.948  2.7967 -0.4185  1.5930
38133SOL     OW26122   3.579   0.744  10.413 -0.2113  0.4471  0.2598
38133SOL    HW126123   3.503   0.713  10.463  0.5183  0.8364  1.6302
38133SOL    HW226124   3.628   0.798  10.474  1.3598 -0.0625 -0.5029
38134SOL     OW26125  10.495  11.296   7.710  0.1174  0.1498  0.0395
38134SOL    HW126126  10.552  11.277   7.785  0.0253  1.7159  0.5497
38134SOL    HW226127  10.406  11.286   7.745  0.0689 -0.5616 -0.2764
38135SOL     OW26128   0.914   8.344   7.336 -0.6723 -0.1946 -0.0054
38135SOL    HW126129   0.960   8.306   7.411  0.5942  2.3659  0.6328
38135SOL    HW226130   0.821   8.340   7.361 -0.3142  0.2363  1.5515
38136SOL     OW26131   4.126   5.918   9.767  0.2609  0.1674 -0.9218
38136SOL    HW126132   4.098   6.002   9.804 -0.1234 -1.3169  2.4490
38136SOL    HW226133   4.045   5.877   9.737 -0.0203 -0.3807  0.5512
38137SOL     OW26134   5.286   3.639   2.836  0.4398  0.1851 -0.0756
38137SOL    HW126135   5.241   3.700   2.777 -0.2828  0.0278  0.3062
38137SOL    HW226136   5.340   3.694   2.892  1.8116  0.2970 -1.4021
38138SOL     OW26137   3.328   6.010   0.178  0.2919 -0.2681  0.0886
38138SOL    HW126138   3.299   6.091   0.220  1.2509 -0.5431  1.3522
38138SOL    HW226139   3.343   6.034   0.087  2.0558  1.4065  0.7458
38139SOL     OW26140   8.312   9.033   5.102  0.2029 -0.1577  0.0811
38139SOL    HW126141   8.302   9.090   5.025 -0.0379  0.3276  0.4667
38139SOL    HW226142   8.303   9.092   5.176 -0.7735 -0.8056  0.4960
38140SOL     OW26143   5.462   2.089   2.479  0.5027  0.6946 -0.3621
38140SOL    HW126144   5.463   1.997   2.506 -0.1331  0.2481 -1.7281
38140SOL    HW226145   5.541   2.099   2.426  0.5553  0.9159 -0.2402
38141SOL     OW26146   6.830   9.180   1.038 -0.1255  0.2231  0.0734
38141SOL    HW126147   6.755   9.239   1.039 -0.3812 -0.1035  1.4049
38141SOL    HW226148   6.808   9.116   0.970  0.1028  1.5309 -1.3169
38142SOL     OW26149   4.154   5.712   2.769 -0.9292  0.1429 -0.0771
38142SOL    HW126150   4.077   5.709   2.712 -1.3906  1.4746  0.4216
38142SOL    HW226151   4.228   5.697   2.711 -1.4195  1.0352 -0.9706
38143SOL     OW26152   9.975   2.151  11.903  0.4048 -0.1653  0.1116
38143SOL    HW126153  10.024   2.189  11.976  0.8801  0.5488 -0.5559
38143SOL    HW226154   9.885   2.183  11.916  0.9178  1.8396 -0.8026
38144SOL     OW26155  10.641   2.617   7.714  0.1216 -0.7790 -0.3196
38144SOL    HW126156  10.724   2.654   7.684  0.6607 -2.2879 -0.7823
38144SOL    HW226157  10.662   2.578   7.799 -0.4636  0.0133  0.2080
38145SOL     OW26158  10.734   9.614   7.533  0.2479  0.2220 -0.4308
38145SOL    HW126159  10.687   9.532   7.515  0.7874 -0.2146  0.1063
38145SOL    HW226160  10.788   9.594   7.610 -0.0797  1.2719  0.0797
38146SOL     OW26161   2.381   1.282   9.920 -0.3322  0.0918  0.5598
38146SOL    HW126162   2.448   1.217   9.943 -1.0649 -0.3536  1.5245
38146SOL    HW226163   2.431   1.358   9.889  0.6612  0.0153  1.8760
38147SOL     OW26164  11.907   4.055   2.587  0.2926 -0.3577 -0.0267
38147SOL    HW126165  11.904   3.998   2.510 -0.7175 -1.1801  0.5906
38147SOL    HW226166  11.816   4.082   2.601  0.8104  1.9359 -0.6508
38148SOL     OW26167  10.651   6.405   5.244 -0.3485  0.1843 -0.1772
38148SOL    HW126168  10.560   6.377   5.230  0.0436 -1.5833  0.5028
38148SOL    HW226169  10.644   6.485   5.296 -1.5194 -0.9643  1.5536
38149SOL     OW26170   8.743  10.402   9.181 -0.1853  0.5390 -0.0949
38149SOL    HW126171   8.779  10.332   9.236 -1.1664  0.8543  0.9943
38149SOL    HW226172   8.778  10.384   9.093 -0.5506 -1.4156  0.1129
38150SOL     OW26173   2.624   0.663   5.794 -0.6987  0.2971  0.1943
38150SOL    HW126174   2.707   0.696   5.759  0.6524 -1.5156  1.4349
38150SOL    HW226175   2.598   0.727   5.860  0.3193  0.3785  0.5381
38151SOL     OW26176   3.313   7.742   4.104  0.7190 -0.4344  0.2554
38151SOL    HW126177   3.308   7.646   4.108  1.1250 -0.5324 -0.9552
38151SOL    HW226178   3.275   7.772   4.186  1.2174 -1.6535  0.9561
38152SOL     OW26179   1.474  11.604   0.655  0.1953  0.4179  0.0191
38152SOL    HW126180   1.425  11.668   0.707 -0.2165  1.5700 -1.7037
38152SOL    HW226181   1.448  11.622   0.564  1.8577 -0.6690 -0.7137
38153SOL     OW26182   9.555   6.516  10.218  0.2429  0.2952 -0.0933
38153SOL    HW126183   9.624   6.553  10.162 -0.9030 -0.3181 -2.0021
38153SOL    HW226184   9.521   6.591  10.266 -0.7156  1.4729 -2.4352
38154SOL     OW26185   7.291   7.434   9.449  0.2386  0.1075  0.4693
38154SOL    HW126186   7.213   7.461   9.400  0.4925 -0.4240 -0.2422
38154SOL    HW226187   7.312   7.509   9.504  0.2395  0.9047 -0.6022
38155SOL     OW26188   7.197   5.290   8.773  0.0555 -0.8469 -0.0882
38155SOL    HW126189   7.242   5.374   8.764  0.2660 -1.0059 -0.5638
38155SOL    HW226190   7.245   5.231   8.715 -2.6050 -0.2884 -3.1396
38156SOL     OW26191   1.448   5.647   0.440 -0.3003  0.4690 -0.2894
38156SOL    HW126192   1.443   5.612   0.529  1.1642 -0.3643 -0.5132
38156SOL    HW226193   1.394   5.726   0.443 -0.9287  0.0231  1.1193
38157SOL     OW26194  10.640  11.542   4.541 -0.7706  0.2817  0.2411
38157SOL    HW126195  10.662  11.450   4.556 -2.0162 -0.0024  0.4481
38157SOL    HW226196  10.678  11.562   4.456 -1.4984 -0.7805 -0.3575
38158SOL     OW26197   6.347   9.256  10.811  0.4608  0.4254 -0.1724
38158SOL    HW126198   6.265   9.207  10.806 -1.0772  2.8095  0.0696
38158SOL    HW226199   6.341   9.321  10.741  2.1706  0.6335 -0.1715
38159SOL     OW26200   8.301   8.591  11.753 -0.1344 -0.5427  0.2269
38159SOL    HW126201   8.219   8.593  11.802 -0.8408  0.6257 -0.9235
38159SOL    HW226202   8.326   8.683  11.745 -0.2910 -0.6354 -1.9373
38160SOL     OW26203   7.989   7.739   4.027  0.1957  0.4296 -0.2648
38160SOL    HW126204   7.984   7.808   3.960 -0.0632  0.0491 -0.6363
38160SOL    HW226205   7.970   7.658   3.980  1.9526 -0.0998 -0.1426
38161SOL     OW26206   9.100   6.109  10.513  0.1541  0.2020  0.0673
38161SOL    HW126207   9.063   6.188  10.473  0.8363  0.5258  0.0534
38161SOL    HW226208   9.147   6.065  10.441  0.2252  0.0660  0.1952
38162SOL     OW26209  11.173   5.813   1.364  1.0054  0.2328 -0.4544
38162SOL    HW126210  11.079   5.822   1.381  1.1593  1.5766 -0.1919
38162SOL    HW226211  11.178   5.786   1.272  0.3661  0.0851 -0.4499
38163SOL     OW26212   7.107   6.480   2.658 -0.0591 -0.0974  0.0316
38163SOL    HW126213   7.153   6.422   2.719 -0.4081 -0.5125 -0.0939
38163SOL    HW226214   7.075   6.421   2.589  2.3706  0.6388 -1.8761
38164SOL     OW26215  10.956   5.031  10.077  0.7186 -0.2303 -0.1149
38164SOL    HW126216  10.883   4.995  10.128  1.0893  0.9789  1.3389
38164SOL    HW226217  10.973   4.964  10.011  0.1581 -1.8667  1.2920
38165SOL     OW26218   2.018   5.671   3.672 -0.4902  0.2666  0.0140
38165SOL    HW126219   1.941   5.623   3.641  1.4315 -1.0464 -3.2820
38165SOL    HW226220   2.078   5.603   3.703  0.4603  0.9685 -0.2294
38166SOL     OW26221   5.120   0.238   2.078  0.3020  0.1035 -0.8903
38166SOL    HW126222   5.141   0.199   1.994  2.0833  0.2687 -0.5446
38166SOL    HW226223   5.086   0.165   2.130 -0.7232 -0.0127 -1.6885
38167SOL     OW26224   0.919   3.306   4.134 -0.0502 -0.2856 -0.0339
38167SOL    HW126225   0.845   3.322   4.194 -0.0614 -1.0403  0.1684
38167SOL    HW226226   0.946   3.216   4.153  0.9207 -0.0220 -0.1161
38168SOL     OW26227   1.513  11.612   5.278  0.6039  0.1254  0.1701
38168SOL    HW126228   1.605  11.588   5.267  0.5577  0.5220 -1.2930
38168SOL    HW226229   1.469  11.530   5.301  1.3201 -0.0651  0.8757
38169SOL     OW26230   7.781   6.095   6.388 -0.0137  0.1543 -0.4139
38169SOL    HW126231   7.859   6.043   6.406 -0.1516  0.0550 -0.0896
38169SOL    HW226232   7.804   6.148   6.312  0.2776 -0.0643 -0.4795
38170SOL     OW26233   3.391   8.999   8.907 -0.1778  0.2002 -0.2392
38170SOL    HW126234   3.347   8.916   8.888  0.0738 -0.3054  1.2630
38170SOL    HW226235   3.365   9.020   8.997  0.5531  1.2467 -0.2533
38171SOL     OW26236   3.981   1.577  10.120  0.1069 -0.1337  0.0023
38171SOL    HW126237   3.896   1.566  10.162 -0.7855 -0.2104 -1.7283
38171SOL    HW226238   4.044   1.572  10.191 -1.3994  1.2968  1.5279
38172SOL     OW26239   1.071   9.525   6.357  0.2744  0.0740  0.1557
38172SOL    HW126240   1.152   9.575   6.348  1.0527 -1.4136 -1.7734
38172SOL    HW226241   1.019   9.549   6.281 -0.3665 -0.2831  0.4706
38173SOL     OW26242   6.020  10.893   8.738  0.6651 -0.3763 -0.8073
38173SOL    HW126243   6.033  10.803   8.770  0.9747 -1.0252 -2.6345
38173SOL    HW226244   5.927  10.896   8.713 -0.2634  0.9128  2.2892
38174SOL     OW26245   3.082   9.144   1.889 -0.1187  0.6597 -0.1604
38174SOL    HW126246   3.132   9.115   1.813 -1.2006 -0.8240 -0.3525
38174SOL    HW226247   3.126   9.224   1.918  1.3523  0.3019 -1.2916
38175SOL     OW26248   9.267   0.502   7.766  0.2740 -0.2838  0.2407
38175SOL    HW126249   9.297   0.496   7.857 -0.0288  0.5434  0.4050
38175SOL    HW226250   9.269   0.412   7.733 -1.9424 -0.9753  1.7957
38176SOL     OW26251   7.396   2.247   8.945 -0.3943  0.1995 -0.2380
38176SOL    HW126252   7.340   2.308   8.898 -0.2087 -0.3955 -1.2576
38176SOL    HW226253   7.357   2.161   8.931 -1.9453  0.2245  3.0469
38177SOL     OW26254   9.592  11.419   4.874 -0.3297  0.2389  0.0742
38177SOL    HW126255   9.626  11.478   4.807 -0.3351 -1.0792 -1.1311
38177SOL    HW226256   9.549  11.476   4.938  1.6735  1.7212  0.1765
38178SOL     OW26257   8.909   1.785   8.282 -0.2993 -0.0639 -0.0862
38178SOL    HW126258   8.830   1.800   8.229 -0.5373 -0.3103  0.1904
38178SOL    HW226259   8.981   1.808   8.225 -0.6296  2.5555  0.4481
38179SOL     OW26260   0.985  10.876  10.535  0.4597 -0.0492  0.2415
38179SOL    HW126261   0.910  10.817  10.524  0.9068 -0.5317 -0.3034
38179SOL    HW226262   0.965  10.950  10.477  0.4009 -0.1701  0.1066
38180SOL     OW26263   0.303   5.567   4.935 -0.3199 -0.0043 -0.2071
38180SOL    HW126264   0.288   5.580   5.028  1.3457 -1.0549  0.2600
38180SOL    HW226265   0.303   5.655   4.897  0.1098  0.5226  0.9842
38181SOL     OW26266   9.941   4.588   9.444 -0.0299  0.6092 -0.0938
38181SOL    HW126267  10.033   4.585   9.471 -0.2876  0.4060  0.8101
38181SOL    HW226268   9.892   4.579   9.526 -0.8793 -2.5142 -0.8161
38182SOL     OW26269   8.288   0.954   1.765 -0.7176  0.6717 -0.1275
38182SOL    HW126270   8.257   0.979   1.852  1.3832 -1.1128  1.2251
38182SOL    HW226271   8.208   0.946   1.713 -2.0811  1.3090  1.7475
38183SOL     OW26272   7.071   4.932   0.885  0.3620  0.3147  0.2714
38183SOL    HW126273   7.120   4.854   0.910  0.6051  0.0419 -0.9742
38183SOL    HW226274   7.057   4.980   0.967 -0.2577 -1.2848  1.1450
38184SOL     OW26275   7.235   6.629   5.153 -0.6648  0.1203 -0.3984
38184SOL    HW126276   7.229   6.536   5.171 -1.0035 -0.0144 -1.2099
38184SOL    HW226277   7.190   6.642   5.070 -1.2360  1.1146  0.0399
38185SOL     OW26278   7.692  11.722   1.146  0.1257 -0.3080 -0.1657
38185SOL    HW126279   7.767  11.779   1.128 -0.3083  0.4231  0.3133
38185SOL    HW226280   7.719  11.670   1.221  1.0620 -1.7532 -1.4506
38186SOL     OW26281   4.057   7.901   7.210 -0.3366 -0.3328  0.3382
38186SOL    HW126282   3.965   7.876   7.196 -0.8169  1.3664  0.2720
38186SOL    HW226283   4.057   7.944   7.296  0.9030 -2.5248  1.5475
38187SOL     OW26284   1.128  10.484   8.460  0.2144 -0.5953 -0.5507
38187SOL    HW126285   1.223  10.473   8.458  0.1737 -0.8940 -1.1417
38187SOL    HW226286   1.109  10.548   8.391 -0.1432 -1.6691 -1.4757
38188SOL     OW26287  10.110   5.478   4.033  0.5504  0.3742 -0.6802
38188SOL    HW126288  10.052   5.488   3.957 -0.5559 -0.0898  0.0752
38188SOL    HW226289  10.085   5.549   4.092 -0.1120 -0.5329  0.1708
38189SOL     OW26290   7.887   1.933  10.198 -0.1567  0.4071 -0.5450
38189SOL    HW126291   7.911   1.935  10.106 -0.7235  2.9006 -0.7026
38189SOL    HW226292   7.825   1.861  10.205  1.1716 -0.9159 -1.7217
38190SOL     OW26293   0.035   6.931   7.683  0.1966  0.0509 -0.1932
38190SOL    HW126294   0.079   6.996   7.628  0.0909 -0.0042 -0.3438
38190SOL    HW226295   0.106   6.891   7.734  0.7051 -1.7123 -2.1290
38191SOL     OW26296   9.741  11.339   5.247 -0.2121  0.1346 -0.2006
38191SOL    HW126297   9.649  11.311   5.245  0.1905 -1.6420  1.9535
38191SOL    HW226298   9.791  11.257   5.244  1.3035  1.0428 -0.8250
38192SOL     OW26299  10.823   9.583   9.576  0.3546  0.0507 -0.1178
38192SOL    HW126300  10.910   9.592   9.537 -0.9380 -0.1995 -3.3668
38192SOL    HW226301  10.786   9.672   9.574 -0.4621 -0.2935 -1.4590
38193SOL     OW26302   8.375  10.027   9.327  0.7041 -0.3234 -0.4149
38193SOL    HW126303   8.458  10.003   9.286 -0.8379 -3.0091 -2.2625
38193SOL    HW226304   8.326  10.071   9.258 -0.5404 -1.6233 -0.4200
38194SOL     OW26305   6.001   0.233  10.839  0.1788 -0.2481  0.2308
38194SOL    HW126306   6.071   0.272  10.891 -1.0729 -1.0517  2.6534
38194SOL    HW226307   5.974   0.303  10.780  2.1396  0.4779  0.1204
38195SOL     OW26308   9.902   1.395   4.011 -0.0166  0.3812 -0.2901
38195SOL    HW126309   9.936   1.459   4.073  0.1868 -1.2314  1.3365
38195SOL    HW226310   9.813   1.426   3.992 -0.3218  0.5910  1.3200
38196SOL     OW26311   7.090   7.412   1.338 -0.2844  0.1609 -0.1853
38196SOL    HW126312   7.032   7.382   1.269 -1.5832 -0.1751  1.0006
38196SOL    HW226313   7.111   7.502   1.315 -1.0822  0.2105 -0.7568
38197SOL     OW26314   9.870  11.055   0.667  0.0246  0.3032  0.0917
38197SOL    HW126315   9.777  11.038   0.652  0.0108 -0.0249  0.5238
38197SOL    HW226316   9.915  11.006   0.598 -0.0705 -0.5487  0.6234
38198SOL     OW26317   5.857   5.227   0.339  0.4749 -0.0313 -0.1648
38198SOL    HW126318   5.817   5.292   0.281 -1.7224 -0.2520  1.0115
38198SOL    HW226319   5.784   5.173   0.368  1.7103 -0.7243  1.8038
38199SOL     OW26320   3.562   3.115   6.828  0.0706 -0.1063  0.2468
38199SOL    HW126321   3.638   3.146   6.877 -0.2289  1.3620 -0.1770
38199SOL    HW226322   3.597   3.088   6.743 -0.0619  2.4101 -0.6940
38200SOL     OW26323   6.892   6.577   7.386  0.0533 -0.4273  0.1638
38200SOL    HW126324   6.933   6.648   7.337  1.5289 -1.2898  0.0760
38200SOL    HW226325   6.812   6.557   7.338  0.6062 -0.1209 -0.9254
38201SOL     OW26326   5.454   3.920   7.203 -0.1711  0.2447 -0.4308
38201SOL    HW126327   5.412   4.003   7.181 -1.6608 -0.7248 -1.4603
38201SOL    HW226328   5.381   3.862   7.225  0.8401 -0.8072  0.2218
38202SOL     OW26329   3.767   6.282   8.475 -0.2197 -0.3127  0.0104
38202SOL    HW126330   3.793   6.333   8.398  0.3198 -1.4397 -0.5749
38202SOL    HW226331   3.813   6.324   8.548 -0.0875  0.2636 -0.3942
38203SOL     OW26332   1.844   7.923  11.864  0.1316  0.1749 -0.2677
38203SOL    HW126333   1.907   7.950  11.931  0.2701 -0.5350 -0.1052
38203SOL    HW226334   1.875   7.838  11.835  0.3693  0.7064 -1.6333
38204SOL     OW26335   2.093   8.596   6.743 -0.2298  0.2040  0.1658
38204SOL    HW126336   2.071   8.632   6.829 -0.3035  1.5008 -0.3734
38204SOL    HW226337   2.184   8.568   6.751  0.0446  1.1329  0.4163
38205SOL     OW26338   7.999   4.879   6.361 -0.7621  0.3344 -0.0786
38205SOL    HW126339   8.030   4.912   6.446 -1.8506 -0.6602  0.7455
38205SOL    HW226340   8.012   4.784   6.366  0.9414  0.4031 -1.8193
38206SOL     OW26341   8.052   9.251   3.587  0.3369 -0.3598  0.4570
38206SOL    HW126342   8.034   9.319   3.523  0.1386 -0.0219  0.8614
38206SOL    HW226343   8.097   9.296   3.659  2.2468 -1.0737 -0.2365
38207SOL     OW26344   6.488   2.982   2.762  0.2062  0.0612  0.1988
38207SOL    HW126345   6.394   2.983   2.780 -0.1690  1.1384 -1.6128
38207SOL    HW226346   6.528   2.983   2.849 -1.4742  1.2299  1.0238
38208SOL     OW26347   9.144  10.229  11.682 -0.1458  0.6245 -0.0796
38208SOL    HW126348   9.106  10.148  11.715  1.0437 -0.7047 -1.7691
38208SOL    HW226349   9.075  10.268  11.628  0.0359 -0.5192 -1.1751
38209SOL     OW26350   5.338   0.894   6.354  0.2907 -0.6472 -0.1659
38209SOL    HW126351   5.244   0.878   6.355  0.0907  0.4018 -0.5074
38209SOL    HW226352   5.369   0.860   6.439 -1.0967  2.6384  1.8742
38210SOL     OW26353   3.358   2.996   5.921  0.0734  0.0146 -0.1116
38210SOL    HW126354   3.406   3.007   6.003  0.2510 -0.5801 -0.1259
38210SOL    HW226355   3.361   2.901   5.905  0.7627  0.2012 -1.2318
38211SOL     OW26356   3.558   6.572   3.812  0.2671  0.5407 -0.4789
38211SOL    HW126357   3.469   6.603   3.829 -0.1008  0.0998 -1.5339
38211SOL    HW226358   3.594   6.554   3.899 -1.0744 -0.3793 -0.0767
38212SOL     OW26359   9.789   5.494   1.104 -0.0846 -0.2300 -0.3507
38212SOL    HW126360   9.735   5.459   1.174  1.8294 -1.2234  0.7249
38212SOL    HW226361   9.878   5.464   1.125  1.0180  1.8866 -1.6351
38213SOL     OW26362   0.945   2.019   8.803 -0.0642  0.2072 -0.2273
38213SOL    HW126363   1.011   2.088   8.813  0.3512 -0.1183 -0.6546
38213SOL    HW226364   0.920   2.025   8.710 -1.0998  0.7372  0.0690
38214SOL     OW26365   0.010   3.338   3.038 -0.2168  0.3228 -0.1280
38214SOL    HW126366  -0.011   3.285   3.114 -0.2428  1.2964  0.5541
38214SOL    HW226367  -0.048   3.413   3.043 -0.7545  0.0423 -1.5261
38215SOL     OW26368   8.594   7.721   5.535 -0.3269 -0.0504  0.1050
38215SOL    HW126369   8.617   7.657   5.467  0.4922  1.1053 -0.7434
38215SOL    HW226370   8.582   7.668   5.614 -1.3024 -1.4325 -0.9034
38216SOL     OW26371   4.055   4.583  10.370 -0.5729 -0.5146  0.0405
38216SOL    HW126372   4.107   4.534  10.307 -0.2450 -0.1022 -0.0136
38216SOL    HW226373   4.038   4.667  10.326  0.7007  0.2629  0.9669
38217SOL     OW26374   0.259   9.960   4.876 -0.1376 -0.4344 -0.0381
38217SOL    HW126375   0.208   9.954   4.957  1.7723  0.5969  1.3303
38217SOL    HW226376   0.204   9.919   4.810 -2.2936 -0.2576  1.5247
38218SOL     OW26377   2.573   8.823   8.825 -0.0033  0.1605 -0.1298
38218SOL    HW126378   2.658   8.862   8.804  0.9418 -1.8029 -0.1456
38218SOL    HW226379   2.570   8.822   8.921 -0.8642  1.8952 -0.0914
38219SOL     OW26380   4.802   3.450   8.472 -0.3559 -0.7122 -0.2163
38219SOL    HW126381   4.762   3.433   8.558  0.2757 -0.9042  0.0535
38219SOL    HW226382   4.847   3.368   8.451 -0.4286 -0.6324 -0.6913
38220SOL     OW26383   1.132  10.821   7.116 -0.3061 -0.4009  0.2071
38220SOL    HW126384   1.040  10.810   7.143 -0.9085  2.3715 -0.4030
38220SOL    HW226385   1.127  10.845   7.024  0.8074  1.9928  0.6891
38221SOL     OW26386   7.197   1.939   7.844  0.0009  0.1851 -0.5745
38221SOL    HW126387   7.280   1.977   7.872  0.0384  0.0005 -0.4324
38221SOL    HW226388   7.214   1.907   7.755  0.0874  0.1328 -0.5395
38222SOL     OW26389   4.869   4.501  11.379 -0.0072 -0.2652  0.2088
38222SOL    HW126390   4.961   4.477  11.388 -0.3219 -2.8169 -1.9831
38222SOL    HW226391   4.862   4.536  11.290 -0.6871  3.0291  1.3991
38223SOL     OW26392   2.437   5.690   4.061  0.0208 -0.2672 -0.4455
38223SOL    HW126393   2.455   5.753   3.991  1.0853  0.4244  0.4170
38223SOL    HW226394   2.493   5.718   4.134 -1.9913 -0.1450  1.1533
38224SOL     OW26395   7.865  10.946   3.922 -0.1445 -0.0352  0.0119
38224SOL    HW126396   7.928  11.011   3.953  3.0297 -2.0199 -1.7044
38224SOL    HW226397   7.893  10.864   3.963 -1.9183 -0.9506 -0.4852
38225SOL     OW26398   5.847   7.456  11.917 -0.1978  0.5131 -0.4011
38225SOL    HW126399   5.864   7.514  11.843  0.6920 -0.0302 -0.6352
38225SOL    HW226400   5.889   7.373  11.892 -1.1563 -0.1345  0.0655
38226SOL     OW26401   7.076   5.658  10.657 -0.3633 -0.5236  0.0910
38226SOL    HW126402   7.053   5.633  10.568 -0.1179  0.3528 -0.2342
38226SOL    HW226403   7.003   5.628  10.711 -0.3492 -1.3621 -0.3575
38227SOL     OW26404   4.100   8.820   1.387 -0.1904  0.3848  0.0785
38227SOL    HW126405   4.018   8.829   1.339 -0.4560 -0.0946  0.4359
38227SOL    HW226406   4.095   8.886   1.457 -0.5024  0.0038  0.4184
38228SOL     OW26407   4.626  10.629   0.912 -0.0620  0.0727 -0.8487
38228SOL    HW126408   4.634  10.638   1.007 -3.1117 -1.4053 -0.3162
38228SOL    HW226409   4.617  10.718   0.880 -0.2837  0.5342  0.4419
38229SOL     OW26410   3.294   8.022   3.062 -0.5621 -0.6315  0.4643
38229SOL    HW126411   3.338   7.978   2.990  0.2797 -0.9578  1.1490
38229SOL    HW226412   3.235   7.956   3.098 -2.0004 -0.0484 -0.7471
38230SOL     OW26413   5.124   0.652   1.575 -0.5242  0.0624 -0.5277
38230SOL    HW126414   5.125   0.746   1.556  0.6865  0.4793  1.2872
38230SOL    HW226415   5.193   0.641   1.641 -4.1859 -1.1369  3.5745
38231SOL     OW26416   5.641   8.183   2.031 -0.6132 -0.0989 -0.4428
38231SOL    HW126417   5.638   8.279   2.036 -1.7767 -0.1269 -0.2807
38231SOL    HW226418   5.560   8.159   1.985 -1.5445 -1.1025  1.5949
38232SOL     OW26419   3.861   3.846   5.704  0.3485 -0.5823 -0.8130
38232SOL    HW126420   3.890   3.757   5.725 -1.4669 -0.5675  2.4683
38232SOL    HW226421   3.793   3.865   5.769  0.5491  3.1585 -1.4676
38233SOL     OW26422   3.593   4.350   4.789  0.5255 -0.4140  0.2277
38233SOL    HW126423   3.583   4.255   4.796 -0.0495 -0.6390 -2.3982
38233SOL    HW226424   3.513   4.386   4.828 -0.9266 -1.2413 -1.8102
38234SOL     OW26425   9.168   7.335   8.277 -0.3736  0.8590  0.1883
38234SOL    HW126426   9.085   7.306   8.314 -0.5586  0.0785 -0.7893
38234SOL    HW226427   9.226   7.260   8.287 -0.0971  1.0364 -0.0651
38235SOL     OW26428   5.470   2.248   9.343 -0.3334 -0.3555 -0.1863
38235SOL    HW126429   5.544   2.263   9.401 -2.1820 -0.8428  2.5007
38235SOL    HW226430   5.430   2.334   9.331  0.0345 -0.2585 -0.7861
38236SOL     OW26431   2.882   8.152   3.515 -0.2402  0.4389 -0.3926
38236SOL    HW126432   2.862   8.133   3.607 -0.4475 -0.1573 -0.5545
38236SOL    HW226433   2.960   8.207   3.519  1.5143 -1.9089  0.0929
38237SOL     OW26434   8.692   0.892   9.921  0.5209 -0.2253  0.2126
38237SOL    HW126435   8.610   0.912   9.964  0.1343 -1.3364  0.0223
38237SOL    HW226436   8.668   0.874   9.830  1.0757  0.1876 -0.0238
38238SOL     OW26437   8.781  10.553   4.926 -0.7835  0.6753  0.1695
38238SOL    HW126438   8.791  10.648   4.935  2.6033  0.4163  0.3285
38238SOL    HW226439   8.791  10.537   4.832 -1.1170  0.4354  0.1718
38239SOL     OW26440   1.730   9.510  11.601  0.3673  0.2095  0.4195
38239SOL    HW126441   1.707   9.599  11.577  0.2899  0.2219  0.5399
38239SOL    HW226442   1.774   9.475  11.523  1.2041  0.6481  0.6831
38240SOL     OW26443   6.168   8.575   5.521  0.8331  0.2310  0.4770
38240SOL    HW126444   6.101   8.510   5.542  1.3469 -0.7983 -0.8821
38240SOL    HW226445   6.122   8.659   5.522 -0.1507 -0.3006  0.9382
38241SOL     OW26446   1.110  10.140   9.687 -0.1358 -0.6224  0.2225
38241SOL    HW126447   1.139  10.066   9.741 -0.9702 -0.1803  1.2988
38241SOL    HW226448   1.019  10.153   9.711 -0.4756 -0.2866 -1.1799
38242SOL     OW26449   0.423   5.570   4.027  0.2646 -0.2123 -0.7579
38242SOL    HW126450   0.404   5.493   4.081 -1.6256  1.4840  1.1982
38242SOL    HW226451   0.363   5.562   3.953 -1.4144  0.3231  0.4863
38243SOL     OW26452   2.685   0.191   6.952 -0.0158 -0.4530  0.2140
38243SOL    HW126453   2.722   0.108   6.921 -0.0038  0.1008 -1.3587
38243SOL    HW226454   2.708   0.254   6.883 -0.7123  0.6837  0.9987
38244SOL     OW26455  10.367   2.515   9.863  0.1014 -0.5082 -0.1852
38244SOL    HW126456  10.296   2.553   9.812 -0.3006 -1.0472 -0.0410
38244SOL    HW226457  10.355   2.421   9.855 -0.3787 -0.6152  1.4300
38245SOL     OW26458  11.857   6.459   2.440 -0.0500 -0.1483 -0.1178
38245SOL    HW126459  11.928   6.410   2.398  1.4354  1.7782  0.0190
38245SOL    HW226460  11.900   6.510   2.508 -2.0983 -1.4982  2.3229
38246SOL     OW26461  10.247   1.772  10.726  0.4173  0.2685  0.1158
38246SOL    HW126462  10.263   1.797  10.635  0.9060 -0.0090  0.1201
38246SOL    HW226463  10.153   1.785  10.738  0.2623 -0.1400 -0.5721
38247SOL     OW26464   2.393   1.220   5.384 -0.3468  0.3132  0.6831
38247SOL    HW126465   2.360   1.162   5.453  1.5942 -3.9545 -1.5578
38247SOL    HW226466   2.482   1.242   5.412  0.1493 -0.7494  0.0139
38248SOL     OW26467   3.538   5.276   8.204 -0.3411 -0.4091 -0.6028
38248SOL    HW126468   3.492   5.195   8.228  1.2834 -1.2304 -0.1468
38248SOL    HW226469   3.624   5.247   8.174  0.8600  1.2263  1.0066
38249SOL     OW26470   5.562  11.939   7.842  0.2815 -0.3714  0.2295
38249SOL    HW126471   5.631  12.005   7.852  1.0700 -1.0991 -0.2603
38249SOL    HW226472   5.523  11.958   7.756 -0.2649  0.1482  0.5818
38250SOL     OW26473   6.398   2.631   5.478 -0.5119 -0.0271  0.0877
38250SOL    HW126474   6.340   2.706   5.466 -0.5997 -0.3535 -1.9820
38250SOL    HW226475   6.485   2.668   5.490 -0.9596  0.4410  2.1942
38251SOL     OW26476   4.248   7.866   5.249 -0.2170  0.2167 -0.2906
38251SOL    HW126477   4.193   7.908   5.183 -0.6760  0.2922  0.1287
38251SOL    HW226478   4.298   7.938   5.287 -0.2124  0.2254 -0.3131
38252SOL     OW26479   4.471   2.301   5.013  0.4113  0.2352  0.1145
38252SOL    HW126480   4.443   2.379   5.062 -3.0242  0.3208 -1.6773
38252SOL    HW226481   4.523   2.336   4.941 -2.2232  1.1941 -1.4664
38253SOL     OW26482   4.789   1.429   9.194 -0.0715 -0.2251 -0.4177
38253SOL    HW126483   4.883   1.434   9.182  0.1919  0.1798  1.5569
38253SOL    HW226484   4.772   1.336   9.212  0.5634  0.1747  3.0494
38254SOL     OW26485   1.690   5.173   1.559 -0.1645  0.2470 -0.0775
38254SOL    HW126486   1.752   5.132   1.498  1.3010 -0.9114  2.0605
38254SOL    HW226487   1.611   5.119   1.551  0.4887 -0.7609  0.0138
38255SOL     OW26488   9.254   9.818  10.644  0.2185  0.4145  0.1038
38255SOL    HW126489   9.160   9.815  10.630  0.1337  0.9109  0.5258
38255SOL    HW226490   9.271   9.908  10.673  1.0290  0.7911 -1.4200
38256SOL     OW26491   7.196   5.477   0.171  0.6630 -0.6698  0.2246
38256SOL    HW126492   7.172   5.563   0.135  1.2783  0.7587  2.9935
38256SOL    HW226493   7.237   5.432   0.097  0.6994  1.5634 -1.2345
38257SOL     OW26494   7.460   6.454   0.016  0.6168  0.2161  0.3995
38257SOL    HW126495   7.488   6.400  -0.058  0.5310  0.6933  0.0105
38257SOL    HW226496   7.530   6.447   0.080  1.7599  1.5592 -0.6430
38258SOL     OW26497   8.703   5.378   9.454 -0.3207 -0.0756  0.4940
38258SOL    HW126498   8.757   5.456   9.445  0.0673 -0.5138 -1.2901
38258SOL    HW226499   8.627   5.407   9.506  1.4959  0.5615  2.9573
38259SOL     OW26500  10.226   7.644   0.411 -0.3571 -0.1748 -0.0983
38259SOL    HW126501  10.280   7.722   0.400  1.3412 -1.0963  1.2707
38259SOL    HW226502  10.253   7.586   0.339  0.2112 -0.4839  0.3605
38260SOL     OW26503   7.404   6.400   9.099 -0.3665 -0.1767  0.2896
38260SOL    HW126504   7.499   6.388   9.089  0.0691  2.4425  0.5767
38260SOL    HW226505   7.376   6.444   9.019 -0.9980  0.6457  0.9385
38261SOL     OW26506  11.266   4.101  11.528 -0.0723  0.1354  0.3620
38261SOL    HW126507  11.298   4.151  11.604 -1.2423  1.5354 -0.0204
38261SOL    HW226508  11.250   4.167  11.461  1.3003 -1.1128 -1.2817
38262SOL     OW26509  10.263   8.757   1.408 -0.3472  0.2968  0.0554
38262SOL    HW126510  10.336   8.764   1.348 -1.2044  1.9362 -0.8620
38262SOL    HW226511  10.187   8.740   1.353 -1.0166  0.9381  0.7501
38263SOL     OW26512   0.401   7.117  10.424 -0.3419  0.3521 -0.3081
38263SOL    HW126513   0.402   7.211  10.404  0.1703  0.3339 -0.3742
38263SOL    HW226514   0.417   7.112  10.518  1.9898  0.2444 -0.6653
38264SOL     OW26515   0.411  10.965   7.416 -0.5553  0.2235 -0.5985
38264SOL    HW126516   0.391  10.960   7.509 -1.3885  0.7645 -0.7356
38264SOL    HW226517   0.506  10.978   7.412 -0.2590 -1.4044  0.1169
38265SOL     OW26518   3.692   2.989   8.636  0.6588 -0.6339  0.4728
38265SOL    HW126519   3.604   2.973   8.671 -1.4328 -0.2324 -3.9434
38265SOL    HW226520   3.694   3.084   8.620  1.2711 -0.8378 -0.7781
38266SOL     OW26521   6.967   1.081   5.317 -0.2914 -0.6662  0.1450
38266SOL    HW126522   7.008   1.116   5.396 -1.0146 -1.7014  1.0157
38266SOL    HW226523   7.040   1.053   5.262  0.2735  1.5307 -0.2906
38267SOL     OW26524   1.897   6.401   5.722  0.5516  0.0304 -0.0277
38267SOL    HW126525   1.828   6.454   5.763 -0.1618 -0.4209 -0.6364
38267SOL    HW226526   1.978   6.434   5.762  0.0382  0.8991  0.3388
38268SOL     OW26527   1.993   3.405   1.866 -0.1795  0.2633 -0.5667
38268SOL    HW126528   2.047   3.418   1.944 -1.5307  0.2786  0.4064
38268SOL    HW226529   1.943   3.486   1.857 -2.2835 -0.8278  0.4185
38269SOL     OW26530   8.696   7.552   1.167 -0.2862 -0.7509  0.4976
38269SOL    HW126531   8.776   7.560   1.220 -0.7061 -0.7432  1.1429
38269SOL    HW226532   8.727   7.526   1.081  0.3900 -1.1098  0.8401
38270SOL     OW26533   3.921   8.302   5.458 -0.2713 -0.1164  0.3177
38270SOL    HW126534   3.918   8.215   5.417 -1.4187 -0.1121  0.3687
38270SOL    HW226535   3.834   8.313   5.496  0.0176  0.8752  0.7064
38271SOL     OW26536   5.877   5.089  10.525  0.0167  0.1630 -0.3287
38271SOL    HW126537   5.854   5.083  10.618 -0.9904  0.8067 -0.5214
38271SOL    HW226538   5.877   4.999  10.495 -0.8666  0.0392  0.0196
38272SOL     OW26539  11.736  11.568   5.598  0.4617  0.4170  0.0767
38272SOL    HW126540  11.692  11.564   5.682  1.3649 -1.0867  0.5168
38272SOL    HW226541  11.729  11.479   5.562  1.2421  0.6924 -0.8141
38273SOL     OW26542   6.401   5.202   1.075 -0.1269 -0.1810  0.1034
38273SOL    HW126543   6.400   5.120   1.123  0.0311 -0.1370  0.1812
38273SOL    HW226544   6.494   5.221   1.060 -0.1643 -0.0547  0.0224
38274SOL     OW26545   0.685  11.613   2.788 -0.0015  0.9117  0.0507
38274SOL    HW126546   0.773  11.632   2.818 -0.1218  0.0477  0.9686
38274SOL    HW226547   0.629  11.635   2.862 -0.3399 -0.8326  0.3459
38275SOL     OW26548  10.165   9.750   6.212  0.2966 -0.1536 -0.1635
38275SOL    HW126549  10.207   9.671   6.244  1.6598 -0.1621 -1.8577
38275SOL    HW226550  10.218   9.822   6.249 -0.0417 -0.0694  0.1631
38276SOL     OW26551   6.756   1.657   1.000 -0.8626  0.1863  0.1569
38276SOL    HW126552   6.810   1.736   1.013  1.7375 -1.5981  1.1035
38276SOL    HW226553   6.738   1.655   0.906 -0.8107  1.7714  0.0842
38277SOL     OW26554   2.762   8.655   0.735  0.5428 -0.2949  0.1495
38277SOL    HW126555   2.751   8.715   0.809  1.9547  0.5444 -0.2782
38277SOL    HW226556   2.678   8.611   0.727 -0.6147  1.7585  0.3796
38278SOL     OW26557   0.961   9.769  10.205 -0.1512  0.0314  0.3481
38278SOL    HW126558   0.967   9.760  10.300  0.0020  0.0641  0.3423
38278SOL    HW226559   0.900   9.701  10.177 -0.3931  0.1878  0.4999
38279SOL     OW26560   6.112   2.399   2.417 -0.3398 -0.1667 -0.3738
38279SOL    HW126561   6.055   2.347   2.473 -0.6104  0.7422  0.2079
38279SOL    HW226562   6.106   2.488   2.452 -1.4372  0.6768 -2.5193
38280SOL     OW26563   9.644   3.937   6.843 -0.1140 -0.1424  0.4168
38280SOL    HW126564   9.579   3.937   6.772  1.6712  1.3720 -1.3548
38280SOL    HW226565   9.682   3.849   6.840  0.3779  0.0951 -0.9759
38281SOL     OW26566   1.297   7.105   7.905 -0.1961 -0.2090 -0.3850
38281SOL    HW126567   1.278   7.125   7.997 -1.7083 -0.2259 -0.6650
38281SOL    HW226568   1.392   7.097   7.901 -0.1349 -0.5935  1.2577
38282SOL     OW26569   5.893   8.609   9.700  0.1788 -0.3056 -0.1338
38282SOL    HW126570   5.835   8.556   9.755  2.9069 -2.5598  0.7662
38282SOL    HW226571   5.888   8.568   9.613 -2.7130  2.1536 -1.3370
38283SOL     OW26572   6.210   8.426   1.625  0.3843 -0.1336 -0.0807
38283SOL    HW126573   6.172   8.342   1.652  1.7569 -1.6129 -2.4045
38283SOL    HW226574   6.303   8.418   1.645  0.7401  0.2977 -1.4911
38284SOL     OW26575   3.805   2.464   5.202  0.2612 -0.3082  0.0682
38284SOL    HW126576   3.797   2.553   5.234  0.4531 -1.1493  2.6496
38284SOL    HW226577   3.724   2.449   5.152 -0.3944  0.8550  0.7400
38285SOL     OW26578   9.304   0.081   8.384 -0.5813  0.0039  0.4676
38285SOL    HW126579   9.364   0.114   8.450 -0.8877  0.2703  0.6153
38285SOL    HW226580   9.315   0.139   8.309 -0.3619 -0.1915  0.3476
38286SOL     OW26581   4.652   6.900   8.887  0.1717 -0.0635 -0.0237
38286SOL    HW126582   4.696   6.841   8.948  0.0788 -1.2723 -1.0781
38286SOL    HW226583   4.641   6.848   8.807  0.0199  1.3721 -0.9743
38287SOL     OW26584   5.051  10.947   5.455  0.2797  0.8082 -0.4013
38287SOL    HW126585   4.966  10.917   5.424  0.7456  0.3662 -1.3073
38287SOL    HW226586   5.114  10.889   5.412  0.9820  0.1670  1.3926
38288SOL     OW26587   4.846   2.700   7.582  0.1147 -0.0539  0.5567
38288SOL    HW126588   4.760   2.723   7.617 -0.5373 -0.0767 -0.9394
38288SOL    HW226589   4.896   2.781   7.587 -0.0399 -0.0045  1.3221
38289SOL     OW26590   2.938   6.837   8.331 -0.8254 -0.4845  0.4347
38289SOL    HW126591   2.908   6.749   8.305  1.4204 -0.9790 -0.7128
38289SOL    HW226592   3.018   6.821   8.381 -0.1892  0.9192 -0.1015
38290SOL     OW26593  11.351   0.481   4.690  0.7531 -0.1066 -0.1209
38290SOL    HW126594  11.443   0.477   4.717  0.1149 -0.4884  2.2809
38290SOL    HW226595  11.322   0.569   4.717  0.3525 -0.0704 -0.6523
38291SOL     OW26596   5.707   8.050   2.317 -0.2393 -0.0040  0.1275
38291SOL    HW126597   5.711   8.091   2.230 -0.5688 -1.1047 -0.4246
38291SOL    HW226598   5.614   8.043   2.336 -0.2726 -1.9943 -0.5519
38292SOL     OW26599  10.035   3.266   6.234  0.2647  0.7139  0.1781
38292SOL    HW126600   9.979   3.211   6.181  1.0149  1.2834 -1.2518
38292SOL    HW226601   9.975   3.325   6.280 -0.4628 -0.5156  0.8670
38293SOL     OW26602   4.763   6.746   1.449 -0.6910 -0.0747  0.5024
38293SOL    HW126603   4.792   6.704   1.530 -0.8866 -0.0268  0.5984
38293SOL    HW226604   4.791   6.687   1.379 -0.0538  0.1408  0.5685
38294SOL     OW26605   9.903   3.033   2.597 -0.5962  0.0043  0.0133
38294SOL    HW126606   9.949   2.974   2.657  0.4023 -1.1256 -1.7791
38294SOL    HW226607   9.819   2.990   2.582 -0.7530  0.1706  0.3866
38295SOL     OW26608   5.212   5.251  11.560 -0.2747  0.4263 -0.4418
38295SOL    HW126609   5.200   5.171  11.611  0.7739  0.1412 -0.6100
38295SOL    HW226610   5.239   5.219  11.473  0.5615  0.9597 -0.3890
38296SOL     OW26611   9.295   9.756   4.852 -0.6997 -0.1672  0.1386
38296SOL    HW126612   9.367   9.801   4.896 -0.2252 -1.7936  1.1096
38296SOL    HW226613   9.336   9.678   4.814 -2.1382 -1.9205  1.9710
38297SOL     OW26614   3.549   0.475   6.829 -0.0500  0.1990 -0.1617
38297SOL    HW126615   3.503   0.468   6.912 -1.3601  0.6476 -0.8112
38297SOL    HW226616   3.608   0.400   6.827 -1.5481 -1.0288  0.2374
38298SOL     OW26617  10.757   8.072   6.272  0.2037  0.6928 -0.2722
38298SOL    HW126618  10.682   8.106   6.225  0.8500  1.1127 -1.0268
38298SOL    HW226619  10.724   7.996   6.320 -0.5961  0.6104 -0.9421
38299SOL     OW26620   6.964   2.676   3.513  0.0436  0.5070 -0.5895
38299SOL    HW126621   6.902   2.685   3.441 -0.8133 -3.0753 -0.5067
38299SOL    HW226622   6.914   2.698   3.591 -0.6432 -0.6785 -0.6787
38300SOL     OW26623   5.233   0.087   6.403 -0.0965 -0.1162  0.1934
38300SOL    HW126624   5.253   0.150   6.473 -1.1801 -0.2003  0.6021
38300SOL    HW226625   5.233   0.140   6.323 -3.4193  1.0290  0.7832
38301SOL     OW26626   9.614   8.266   7.569 -0.1512 -0.3941 -0.2014
38301SOL    HW126627   9.627   8.231   7.657 -0.5904  1.0545  0.4561
38301SOL    HW226628   9.680   8.221   7.516  0.5672 -0.7925  0.9875
38302SOL     OW26629  10.410   0.389  11.508  0.7306  0.2145  0.4659
38302SOL    HW126630  10.348   0.407  11.579 -0.2093  0.2382 -0.3313
38302SOL    HW226631  10.355   0.386  11.429  1.6632 -0.4355 -0.1736
38303SOL     OW26632   5.364   1.839  10.405 -0.0638 -0.3719  0.1056
38303SOL    HW126633   5.313   1.762  10.382  1.4721 -1.6998  0.9778
38303SOL    HW226634   5.334   1.862  10.494 -2.1996  1.5499 -0.9906
38304SOL     OW26635   5.576   9.530   9.305  0.1841 -0.0853  0.2305
38304SOL    HW126636   5.622   9.448   9.321  1.6753  0.5025 -0.7867
38304SOL    HW226637   5.588   9.546   9.211 -2.2941  0.0263 -0.1311
38305SOL     OW26638   1.029   1.978   4.108 -0.5638 -0.0673  0.1816
38305SOL    HW126639   1.057   1.957   4.019 -2.2001 -0.3300 -0.2952
38305SOL    HW226640   1.070   2.062   4.126  2.0804 -1.2693  0.2809
38306SOL     OW26641  10.231   2.839   1.104  0.2512 -0.2708  0.6436
38306SOL    HW126642  10.228   2.881   1.019  1.9282  0.8800  1.1069
38306SOL    HW226643  10.238   2.745   1.084  0.5544 -0.0211 -0.4627
38307SOL     OW26644   0.840   6.023   6.114  0.3903  0.6369  0.9646
38307SOL    HW126645   0.876   5.986   6.195  1.0411 -1.8713 -0.3481
38307SOL    HW226646   0.890   6.103   6.099  3.7376 -1.3251  0.6260
38308SOL     OW26647  10.114  11.445   8.311  0.2425  0.0795 -0.3387
38308SOL    HW126648  10.133  11.372   8.369  0.0106 -0.6839 -1.2026
38308SOL    HW226649  10.183  11.442   8.244  1.0990  1.5631  0.4329
38309SOL     OW26650   9.560   3.566   8.173  0.6209 -0.0824 -0.2181
38309SOL    HW126651   9.539   3.520   8.254  2.6189  1.2057  1.1414
38309SOL    HW226652   9.530   3.656   8.188  2.1191  0.4744 -0.3536
38310SOL     OW26653   8.070   6.482   3.380 -0.1167 -0.2618 -1.0347
38310SOL    HW126654   8.052   6.420   3.310 -0.1182  0.5716 -1.7987
38310SOL    HW226655   7.984   6.512   3.409 -0.1071  1.7569 -2.8828
38311SOL     OW26656   9.892   7.693   0.391 -0.2146 -0.1760 -0.1556
38311SOL    HW126657   9.825   7.733   0.336  0.5806  1.3638 -0.0338
38311SOL    HW226658   9.952   7.651   0.328 -0.2292  0.1128 -0.3628
38312SOL     OW26659   0.503   5.368   8.555  0.1833  0.5085 -0.4355
38312SOL    HW126660   0.445   5.370   8.479  0.2118  1.5472 -0.4346
38312SOL    HW226661   0.454   5.317   8.621 -0.6673  1.2320 -0.4912
38313SOL     OW26662  10.768   5.871   1.687  0.2880 -0.3023 -0.1706
38313SOL    HW126663  10.728   5.792   1.724 -1.8822  0.1606 -1.3332
38313SOL    HW226664  10.720   5.944   1.727  1.2134  0.3888 -0.2773
38314SOL     OW26665   6.851   3.448   3.516  0.4525 -0.1681  0.0338
38314SOL    HW126666   6.906   3.496   3.578  0.6372  0.9551 -0.9693
38314SOL    HW226667   6.894   3.459   3.431  0.3054 -1.8256 -0.3032
38315SOL     OW26668  11.745   5.283   3.582 -0.2501 -0.1039 -0.3408
38315SOL    HW126669  11.794   5.255   3.504  0.1690 -0.0807 -0.0901
38315SOL    HW226670  11.811   5.287   3.651 -0.5976 -0.0026 -0.0122
38316SOL     OW26671   4.448   8.957  11.467 -0.3381 -0.0914 -0.0730
38316SOL    HW126672   4.372   9.015  11.476  2.2578  3.3752  2.0214
38316SOL    HW226673   4.489   8.984  11.385 -0.0842 -0.2104  0.0137
38317SOL     OW26674   8.968   2.585   2.577  0.3199  0.2107  0.8394
38317SOL    HW126675   9.039   2.580   2.641  0.0204  0.3424  1.1866
38317SOL    HW226676   8.996   2.653   2.515  0.3420  0.5114  1.1726
38318SOL     OW26677   1.919   4.694  10.163  0.1880  1.1132 -0.1094
38318SOL    HW126678   1.958   4.634  10.099 -1.9435  0.2636 -0.6779
38318SOL    HW226679   1.914   4.642  10.243 -1.6027  0.4858 -0.5860
38319SOL     OW26680  11.282   5.140   9.429  0.2592  0.0459 -0.0898
38319SOL    HW126681  11.369   5.161   9.462  0.1047  1.8561 -0.7106
38319SOL    HW226682  11.291   5.052   9.391  2.4442  1.0318 -2.1390
38320SOL     OW26683   1.660   3.405  11.918  0.0615  0.2100 -0.3942
38320SOL    HW126684   1.676   3.486  11.870  0.0302  1.9145  2.2849
38320SOL    HW226685   1.747   3.375  11.946 -0.0289  0.0548 -0.2725
38321SOL     OW26686   3.423   4.979  10.128 -0.4476  0.0057 -0.7642
38321SOL    HW126687   3.413   5.049  10.064 -0.7260 -0.5204 -1.3085
38321SOL    HW226688   3.335   4.942  10.137 -0.3028 -0.2771 -0.4856
38322SOL     OW26689   1.808   5.915   0.478  0.1826  0.0649  0.5120
38322SOL    HW126690   1.744   5.926   0.549 -0.2719 -0.3334  0.1678
38322SOL    HW226691   1.811   5.820   0.463  0.7228  0.0973  0.4068
38323SOL     OW26692   8.985   4.345   4.548 -0.3843  0.1593  0.2702
38323SOL    HW126693   9.067   4.328   4.593 -1.0303 -1.4686  0.9168
38323SOL    HW226694   9.009   4.398   4.472  0.8288  2.3158  2.0590
38324SOL     OW26695   3.451   9.217   2.833  0.4062  0.1374 -0.0676
38324SOL    HW126696   3.414   9.276   2.899 -0.4959  0.1865 -0.5878
38324SOL    HW226697   3.509   9.272   2.781  0.9749  0.1408  0.5671
38325SOL     OW26698   3.625   3.606   2.088 -0.8824  0.0042 -0.0431
38325SOL    HW126699   3.714   3.585   2.058 -0.3629  1.7198  0.1854
38325SOL    HW226700   3.610   3.548   2.162  1.2410  1.6461  1.8043
38326SOL     OW26701   4.372   1.876   0.307 -0.7665 -0.4308  0.2624
38326SOL    HW126702   4.454   1.913   0.273  1.2160 -2.1843  2.7513
38326SOL    HW226703   4.354   1.802   0.248  0.1023 -0.6916  0.2965
38327SOL     OW26704   2.928  10.340  11.375  0.1846  0.4376 -0.3212
38327SOL    HW126705   2.867  10.312  11.443  0.3964 -1.1072 -0.7416
38327SOL    HW226706   3.012  10.350  11.421 -0.0607  1.1576 -0.0226
38328SOL     OW26707   2.702   1.823  11.489  0.5043  0.3596 -0.0422
38328SOL    HW126708   2.707   1.778  11.404 -2.5049  0.8057 -0.5823
38328SOL    HW226709   2.669   1.757  11.549  0.3771  0.6753  0.2353
38329SOL     OW26710   8.351   3.678  10.723 -1.0464 -0.0774 -0.1360
38329SOL    HW126711   8.256   3.662  10.722 -0.6381 -3.2889  0.6960
38329SOL    HW226712   8.389   3.594  10.750  1.9942  1.4640  0.8280
38330SOL     OW26713   5.910   0.051   8.637  0.2933  0.6282 -0.0495
38330SOL    HW126714   5.933  -0.042   8.632 -0.0784  0.5699 -1.1050
38330SOL    HW226715   5.927   0.084   8.549 -1.6999  1.0267 -0.3444
38331SOL     OW26716   2.568  11.757  11.118 -0.2309 -0.1239 -0.2825
38331SOL    HW126717   2.583  11.770  11.025  2.5687  1.1118  0.2415
38331SOL    HW226718   2.648  11.715  11.149 -0.4051  0.9735  1.8285
38332SOL     OW26719   3.044   5.963   3.813 -0.2373 -0.2321 -0.5121
38332SOL    HW126720   3.025   5.881   3.859  2.3047 -1.8229 -2.0205
38332SOL    HW226721   2.961   6.011   3.813 -1.7399 -2.6424  0.7271
38333SOL     OW26722   8.334   4.882   5.159 -0.2657 -0.3481 -0.0401
38333SOL    HW126723   8.325   4.792   5.190 -0.1835  0.0246  1.0992
38333SOL    HW226724   8.414   4.914   5.200  1.7088 -0.8297 -3.1783
38334SOL     OW26725   4.123   0.438   1.332 -0.3360  0.2849  0.1590
38334SOL    HW126726   4.046   0.433   1.276  0.2755 -0.7412 -0.6374
38334SOL    HW226727   4.175   0.361   1.308  0.7987  0.7977  0.8734
38335SOL     OW26728   9.858   5.765   3.800  0.5559 -0.3418 -0.0316
38335SOL    HW126729   9.921   5.694   3.788  0.8967 -0.4151  1.8758
38335SOL    HW226730   9.872   5.794   3.890 -2.2771 -0.5038  0.5560
38336SOL     OW26731   5.326  11.773  10.235  0.0997 -0.2493  0.4502
38336SOL    HW126732   5.285  11.701  10.187  0.8637  0.0760 -0.7764
38336SOL    HW226733   5.261  11.801  10.298 -1.6868  0.4349 -1.5841
38337SOL     OW26734  11.071   5.072   0.714  0.5680 -0.0590 -0.3635
38337SOL    HW126735  11.055   5.023   0.633  1.4817  1.6295 -1.6319
38337SOL    HW226736  10.991   5.059   0.766 -1.2092  0.9126 -2.6784
38338SOL     OW26737  10.624   9.925   6.672  0.4366 -0.2534 -0.3865
38338SOL    HW126738  10.711   9.965   6.670 -0.2474  1.3876  0.8114
38338SOL    HW226739  10.641   9.831   6.659  2.3340  0.0855 -0.6326
38339SOL     OW26740   5.993   4.228   4.763  0.4623 -0.8534 -0.1456
38339SOL    HW126741   6.033   4.306   4.723  1.0077 -0.9897  0.1237
38339SOL    HW226742   5.981   4.167   4.690 -0.2111 -0.4163 -0.4011
38340SOL     OW26743  10.036   2.017   0.599  0.0369  0.1946  0.0963
38340SOL    HW126744  10.073   1.952   0.541 -2.1355 -0.4864 -0.6202
38340SOL    HW226745  10.039   1.977   0.686 -1.3509 -0.9479 -0.3505
38341SOL     OW26746   8.588   6.367   2.443 -0.1186 -0.0757  0.0803
38341SOL    HW126747   8.556   6.277   2.450 -1.8816  0.5658  0.7593
38341SOL    HW226748   8.551   6.400   2.361 -0.0974  0.2558  0.1996
38342SOL     OW26749   0.439   1.231   0.477 -0.4112 -0.1128 -0.2228
38342SOL    HW126750   0.413   1.142   0.454  1.7024 -0.4560 -1.5724
38342SOL    HW226751   0.379   1.287   0.429 -0.5206 -0.8285 -0.9411
38343SOL     OW26752   4.719   4.390   3.949  0.2694  0.3181  0.5725
38343SOL    HW126753   4.735   4.334   3.873  0.1417  1.2943 -0.1951
38343SOL    HW226754   4.679   4.333   4.014 -0.3577 -0.3578 -0.3914
38344SOL     OW26755   0.089  10.981   9.286 -0.2144  0.6302 -0.3125
38344SOL    HW126756   0.137  10.939   9.214 -1.0658  0.5434 -0.8378
38344SOL    HW226757   0.021  10.918   9.310 -0.2176  0.8502  0.2706
38345SOL     OW26758  10.017   3.793   9.221 -0.0905 -0.9813 -0.2006
38345SOL    HW126759  10.050   3.703   9.231  2.3580 -0.0543  0.7566
38345SOL    HW226760  10.054   3.841   9.295 -2.3640  0.6041  0.0204
38346SOL     OW26761   6.537  10.190   2.886 -0.8259 -0.0864  0.0741
38346SOL    HW126762   6.604  10.234   2.937 -0.2978 -0.4595 -0.2909
38346SOL    HW226763   6.504  10.257   2.826  0.5723 -0.3818 -1.0700
38347SOL     OW26764   1.369   2.785   1.106 -0.4019 -0.4212  0.2517
38347SOL    HW126765   1.395   2.726   1.177 -0.2420 -0.6752 -0.0169
38347SOL    HW226766   1.377   2.873   1.144  1.4998 -0.4359 -0.0085
38348SOL     OW26767   6.146   2.848   0.258  0.3045  0.2260 -0.0169
38348SOL    HW126768   6.188   2.762   0.256  1.2358  0.6851 -1.6201
38348SOL    HW226769   6.191   2.895   0.328 -0.2992 -0.6074  0.9562
38349SOL     OW26770   9.414  10.250  10.441 -0.1456 -0.4675  0.0735
38349SOL    HW126771   9.321  10.228  10.441  0.0186 -1.2334  1.1304
38349SOL    HW226772   9.420  10.329  10.496 -0.2652  0.0975 -0.7041
38350SOL     OW26773   9.217   6.730   9.413 -0.3672 -0.2094 -0.0157
38350SOL    HW126774   9.135   6.752   9.457 -0.8236 -0.8966 -0.4984
38350SOL    HW226775   9.284   6.736   9.482 -0.9699 -0.5924  0.6100
38351SOL     OW26776   8.651   3.078  11.307  0.2599 -0.1609 -0.0296
38351SOL    HW126777   8.641   3.121  11.222  0.0858 -2.5062 -1.2763
38351SOL    HW226778   8.734   3.112  11.342  0.3575  0.7970 -1.1436
38352SOL     OW26779   4.214   2.079   3.182 -0.3790 -0.5487 -0.1077
38352SOL    HW126780   4.152   2.007   3.169 -1.3077  0.1607  0.2438
38352SOL    HW226781   4.169   2.156   3.147  0.4670 -0.0803 -0.1874
38353SOL     OW26782   3.722   2.829   6.077 -0.3850 -0.1533 -0.4292
38353SOL    HW126783   3.794   2.887   6.100 -1.3598  1.1605 -0.5309
38353SOL    HW226784   3.761   2.764   6.019  1.1404 -0.7705  1.1820
38354SOL     OW26785   3.471   2.593  10.272 -0.0091 -0.2557  0.5601
38354SOL    HW126786   3.469   2.688  10.268  0.4306 -0.2917 -2.3169
38354SOL    HW226787   3.385   2.565  10.240  0.6864 -0.8078 -0.9010
38355SOL     OW26788  11.159   9.065   8.316  0.3727  0.0465  0.3002
38355SOL    HW126789  11.213   9.138   8.347 -1.0866  1.4417 -0.3692
38355SOL    HW226790  11.190   9.049   8.227 -0.2017  0.7416 -0.0277
38356SOL     OW26791   8.929   6.202   4.785  0.2059  0.2417  0.6050
38356SOL    HW126792   8.884   6.286   4.789  0.3976  0.3084  2.0291
38356SOL    HW226793   8.863   6.140   4.754 -0.7741  0.4286  2.1943
38357SOL     OW26794   7.842   7.863   8.027  0.7644  0.4409  0.2686
38357SOL    HW126795   7.815   7.777   7.994 -2.4736  1.6541 -0.6732
38357SOL    HW226796   7.937   7.863   8.017  0.8109 -2.6387 -0.6091
38358SOL     OW26797   1.574   1.155   4.734 -0.1789 -0.4512 -0.0665
38358SOL    HW126798   1.621   1.165   4.651  0.4420 -0.9817  0.2097
38358SOL    HW226799   1.483   1.175   4.712  0.1623  0.6303 -0.6130
38359SOL     OW26800   6.501   7.504  11.434 -0.8128  0.8303  0.2954
38359SOL    HW126801   6.584   7.488  11.390 -0.2748 -0.4819  1.7029
38359SOL    HW226802   6.525   7.552  11.513 -1.3910  0.3915  0.7437
38360SOL     OW26803   2.812   4.649   5.065  0.8709 -0.4754  0.2536
38360SOL    HW126804   2.860   4.670   5.146  0.9378 -2.9276  0.9316
38360SOL    HW226805   2.725   4.687   5.078  1.6062  1.2239  0.4116
38361SOL     OW26806   4.171   2.567   9.227 -0.6337  0.3244 -0.0156
38361SOL    HW126807   4.165   2.605   9.315 -1.3995 -0.1604  0.1493
38361SOL    HW226808   4.187   2.642   9.170 -0.0547  0.6328  0.5395
38362SOL     OW26809   7.225   5.585   5.554 -0.1950  0.1294  0.4041
38362SOL    HW126810   7.139   5.559   5.522 -0.3042  2.3306 -1.2858
38362SOL    HW226811   7.287   5.534   5.501 -0.4358  1.7139 -1.5012
38363SOL     OW26812   0.684   5.724  10.667  0.7741 -0.1383  0.1168
38363SOL    HW126813   0.730   5.705  10.749  2.6035 -2.3282 -1.3124
38363SOL    HW226814   0.669   5.638  10.628 -2.8091  0.6175 -0.5179
38364SOL     OW26815   4.042   0.836   4.692 -0.5260 -0.4864 -0.4394
38364SOL    HW126816   4.088   0.756   4.716 -0.3102  0.3632  2.3317
38364SOL    HW226817   3.970   0.842   4.756  0.7499  2.5589  0.8866
38365SOL     OW26818  10.154   1.241  10.709 -0.3412  0.4737 -0.3058
38365SOL    HW126819  10.149   1.186  10.787  0.9437  0.2457 -0.3555
38365SOL    HW226820  10.221   1.306  10.730  0.7061 -0.1532 -1.5252
38366SOL     OW26821   5.054  11.197   6.881 -0.1921 -0.4439  0.3885
38366SOL    HW126822   5.024  11.230   6.795 -0.4594 -2.2264 -0.2383
38366SOL    HW226823   5.147  11.220   6.884  0.0647 -1.2316 -0.8323
38367SOL     OW26824   6.758   0.226   3.027  0.5012  0.6217 -0.2385
38367SOL    HW126825   6.844   0.267   3.025  0.2393  1.1588 -1.0493
38367SOL    HW226826   6.727   0.232   2.936  0.5369 -1.5288 -0.4446
38368SOL     OW26827   5.098   2.361   6.406  0.0857 -0.1137 -0.1336
38368SOL    HW126828   5.105   2.454   6.430  0.6808  0.0870 -1.0458
38368SOL    HW226829   5.187   2.328   6.409  0.6969  0.5464 -4.3185
38369SOL     OW26830  11.695   3.690   2.009 -0.3815 -0.0301 -0.5414
38369SOL    HW126831  11.682   3.595   2.003  1.0320 -0.2800 -0.0635
38369SOL    HW226832  11.731   3.714   1.924  0.4794 -0.1553 -0.2232
38370SOL     OW26833  11.258  11.268  11.109  0.1583  0.0474  0.0924
38370SOL    HW126834  11.183  11.228  11.064  0.3033  0.3132 -0.3923
38370SOL    HW226835  11.326  11.272  11.042 -0.4448  2.8796 -0.4686
38371SOL     OW26836   0.573   9.459   2.988  0.0491  0.0970  0.2997
38371SOL    HW126837   0.496   9.462   2.931 -0.7435  0.1631  1.3521
38371SOL    HW226838   0.608   9.371   2.974 -0.5003 -0.1111  0.1727
38372SOL     OW26839   2.682   5.380   8.694 -0.6397 -0.0532  0.7341
38372SOL    HW126840   2.708   5.402   8.784  0.4280 -1.4804  0.8171
38372SOL    HW226841   2.762   5.346   8.654 -1.0608  0.6968 -0.8262
38373SOL     OW26842   6.595   3.554   9.225 -0.0545 -0.9061  0.0443
38373SOL    HW126843   6.627   3.634   9.183 -2.0737 -0.1176 -0.1339
38373SOL    HW226844   6.625   3.483   9.167  1.8874 -0.3313  0.2823
38374SOL     OW26845  10.793   4.910   9.068 -0.9517 -0.4584  0.1811
38374SOL    HW126846  10.721   4.905   9.006 -0.9104  0.8435 -0.0016
38374SOL    HW226847  10.755   4.949   9.147 -0.2104  1.4224 -0.3522
38375SOL     OW26848   8.260   8.516   1.514  0.0892 -0.4787 -0.6149
38375SOL    HW126849   8.167   8.495   1.504  0.1595 -0.2922 -1.7991
38375SOL    HW226850   8.287   8.465   1.590 -0.9373 -0.6795 -0.3612
38376SOL     OW26851   4.523   0.217   4.015  0.0197 -0.0074 -0.1075
38376SOL    HW126852   4.618   0.210   4.030 -0.1611 -1.3368  0.5704
38376SOL    HW226853   4.508   0.171   3.933 -0.2304 -1.2264  0.6034
38377SOL     OW26854   5.537   8.325   0.395  0.7044  0.1757 -0.9557
38377SOL    HW126855   5.479   8.310   0.470  2.7186 -0.9962  0.4748
38377SOL    HW226856   5.495   8.279   0.322  0.2782 -1.4512  0.2634
38378SOL     OW26857   1.333  10.914   8.229  0.3086 -0.1963 -0.8990
38378SOL    HW126858   1.402  10.905   8.294 -0.3445 -1.1808 -0.3073
38378SOL    HW226859   1.252  10.914   8.280 -0.1150  3.0402 -1.3720
38379SOL     OW26860   3.233   7.205   0.404 -0.0694  0.3851 -0.2603
38379SOL    HW126861   3.211   7.250   0.322  1.3699 -0.4478 -1.1449
38379SOL    HW226862   3.326   7.221   0.416 -0.6014  2.2219  2.3562
38380SOL     OW26863   9.880   6.556   9.224  0.5269 -0.6416 -0.0060
38380SOL    HW126864   9.896   6.644   9.192 -0.5252  0.1801  1.6259
38380SOL    HW226865   9.899   6.499   9.149  1.1142  0.9596 -1.1085
38381SOL     OW26866   9.844   2.832   2.265 -0.5146 -0.0802 -0.2117
38381SOL    HW126867   9.912   2.895   2.242  0.4717 -1.1471 -0.3465
38381SOL    HW226868   9.820   2.792   2.182 -0.4972 -0.4947 -0.0193
38382SOL     OW26869   5.718   1.451   0.227 -0.7533 -0.0675  0.5075
38382SOL    HW126870   5.779   1.423   0.159  0.6602  1.8593  0.8655
38382SOL    HW226871   5.652   1.504   0.181 -0.3766  0.3882  0.4812
38383SOL     OW26872   6.697   8.697   5.180  0.1420 -0.1446 -0.3764
38383SOL    HW126873   6.683   8.687   5.275 -0.7120  1.7151 -0.2705
38383SOL    HW226874   6.613   8.729   5.147 -0.1184 -2.3544 -2.0749
38384SOL     OW26875   7.956   6.785   2.950 -0.0626 -0.3525 -0.1600
38384SOL    HW126876   7.940   6.707   2.898 -0.8717 -0.3324  0.0509
38384SOL    HW226877   7.880   6.841   2.936 -0.6246 -0.6182  1.5082
38385SOL     OW26878   4.272   3.725  10.654 -0.0006  0.0128  0.2201
38385SOL    HW126879   4.228   3.707  10.571 -1.3321 -0.9336  1.0789
38385SOL    HW226880   4.350   3.670  10.652  0.5732  0.8335 -0.8467
38386SOL     OW26881   7.149   0.437   7.714  0.1384 -0.6059  0.3830
38386SOL    HW126882   7.104   0.474   7.638 -3.3708 -2.9323  1.0994
38386SOL    HW226883   7.176   0.349   7.685 -1.0493 -1.4355  1.7064
38387SOL     OW26884   8.856   2.126   3.602  0.0315  0.4037  0.0407
38387SOL    HW126885   8.832   2.083   3.520 -0.4988  0.2535  0.2762
38387SOL    HW226886   8.837   2.061   3.670 -0.2337  0.7988  0.3474
38388SOL     OW26887   3.275   7.132   4.433 -1.0498  0.4723 -0.7245
38388SOL    HW126888   3.366   7.106   4.418 -0.5585  1.5801  0.2077
38388SOL    HW226889   3.265   7.130   4.528 -2.4424 -1.0214 -0.8584
38389SOL     OW26890   7.630  10.817   7.622 -0.0372 -0.0946 -0.3280
38389SOL    HW126891   7.681  10.769   7.688 -0.4090  0.3301  0.2794
38389SOL    HW226892   7.545  10.772   7.620  0.3349 -0.7776 -1.3086
38390SOL     OW26893   7.570   8.112   0.415 -0.4805 -0.2070 -0.2790
38390SOL    HW126894   7.553   8.019   0.403 -0.9141 -0.0532 -0.8957
38390SOL    HW226895   7.620   8.138   0.337  1.0913 -0.2645  0.6616
38391SOL     OW26896   9.422   6.588   8.013  0.4018  0.2664  0.0764
38391SOL    HW126897   9.504   6.634   8.026  1.6080 -2.0361  1.1867
38391SOL    HW226898   9.356   6.642   8.057  1.1989  2.3044 -1.1071
38392SOL     OW26899   8.657  11.508   4.273  0.6978 -0.1466  0.6812
38392SOL    HW126900   8.735  11.529   4.222 -0.2572  0.5075 -0.5439
38392SOL    HW226901   8.688  11.444   4.337  2.3318  0.4351  0.5249
38393SOL     OW26902   6.801   6.446   8.066 -0.1859  0.4734  0.0448
38393SOL    HW126903   6.892   6.464   8.090 -0.3466 -1.2034  2.3863
38393SOL    HW226904   6.807   6.376   8.001  0.1830  1.6403 -1.2273
38394SOL     OW26905   9.187   0.738   5.669  0.3735  0.8679 -0.2594
38394SOL    HW126906   9.259   0.676   5.680  0.3103  0.7634 -0.4230
38394SOL    HW226907   9.154   0.721   5.581 -0.5031  0.2145  0.1810
38395SOL     OW26908   4.975   4.868  11.444 -0.1655 -0.0965  0.7130
38395SOL    HW126909   4.946   4.957  11.465  0.6295  0.3385  0.0107
38395SOL    HW226910   5.003   4.832  11.529  1.3158  1.0134  0.7312
38396SOL     OW26911   9.749   0.772   6.916 -0.2959  0.0266  0.3263
38396SOL    HW126912   9.838   0.799   6.939 -0.7136  1.2915  0.4916
38396SOL    HW226913   9.698   0.853   6.915 -1.8054 -0.8538  1.7664
38397SOL     OW26914   7.193  10.786   7.697  0.1101 -0.8742  0.0390
38397SOL    HW126915   7.179  10.802   7.604  1.0853  1.2797  0.1919
38397SOL    HW226916   7.279  10.743   7.702 -0.6983 -2.5907 -0.1166
38398SOL     OW26917   1.566   0.778   6.545 -0.1143 -0.5344 -0.3602
38398SOL    HW126918   1.612   0.694   6.544 -0.1039 -0.5362  0.1715
38398SOL    HW226919   1.569   0.806   6.636 -1.3337 -0.6253 -0.2772
38399SOL     OW26920   0.323   5.218  10.099  0.3812 -0.1262  0.3942
38399SOL    HW126921   0.321   5.123  10.115  2.1480 -0.6308 -1.7170
38399SOL    HW226922   0.316   5.225  10.004 -1.6703  2.0441  0.6252
38400SOL     OW26923   2.606   2.218   7.909 -0.2988 -0.0478  0.3520
38400SOL    HW126924   2.632   2.139   7.957  1.0564 -0.4345 -0.9424
38400SOL    HW226925   2.548   2.186   7.841 -2.1286  0.4868  1.5808
38401SOL     OW26926   4.575   5.265   3.542  0.4248  0.0595  0.4442
38401SOL    HW126927   4.554   5.268   3.636 -0.4409 -1.1646  0.3233
38401SOL    HW226928   4.616   5.179   3.530 -0.3041 -0.1818 -0.4424
38402SOL     OW26929   2.327   8.986   0.811  0.3425 -0.1594 -0.1951
38402SOL    HW126930   2.360   9.016   0.726 -1.1657 -0.6673 -1.0029
38402SOL    HW226931   2.281   9.061   0.847  1.8263  0.3732  0.6745
38403SOL     OW26932   2.534   2.766   2.922  0.5625 -0.1236  0.1649
38403SOL    HW126933   2.495   2.743   3.006  0.6718 -0.4071  0.1396
38403SOL    HW226934   2.470   2.824   2.881  0.1526 -0.6034  0.1132
38404SOL     OW26935  10.891   0.977  10.856 -0.3222  0.3464 -0.3050
38404SOL    HW126936  10.835   0.902  10.836  0.7872 -0.4460 -0.6000
38404SOL    HW226937  10.946   0.986  10.778  0.8130  0.2819  0.4615
38405SOL     OW26938   8.329   1.620  10.407  0.3775  0.2524  0.1070
38405SOL    HW126939   8.358   1.684  10.342 -0.2683  0.0912 -0.3400
38405SOL    HW226940   8.235   1.633  10.414  0.5527  0.8868  1.6867
38406SOL     OW26941   3.125   3.310   7.948 -0.0690  0.0481 -0.1927
38406SOL    HW126942   3.220   3.303   7.950 -0.1516 -1.4758  0.1946
38406SOL    HW226943   3.095   3.258   8.022 -1.2044  0.7954 -0.0967
38407SOL     OW26944   3.301   4.374   5.984  0.0577  0.8439 -0.9475
38407SOL    HW126945   3.328   4.286   5.958  2.8941  1.1816  0.4557
38407SOL    HW226946   3.236   4.360   6.054 -1.5695 -0.0305 -2.5410
38408SOL     OW26947   4.230   8.809   6.925  0.4744 -0.0209  0.0638
38408SOL    HW126948   4.318   8.835   6.895 -0.6854  0.8272 -2.9693
38408SOL    HW226949   4.211   8.730   6.874 -0.6577  0.0228  0.4113
38409SOL     OW26950   4.512   3.441   9.622  0.9486 -0.2490  0.1047
38409SOL    HW126951   4.529   3.534   9.607 -0.4096 -0.0202 -0.0992
38409SOL    HW226952   4.553   3.424   9.707 -1.3076  1.3064  1.6422
38410SOL     OW26953   4.905  11.873   5.663  0.0522 -0.1294 -0.1213
38410SOL    HW126954   4.813  11.850   5.650  0.4685 -0.4716 -3.3207
38410SOL    HW226955   4.908  11.968   5.653 -0.1139  0.0940  1.6296
38411SOL     OW26956   0.014   0.180   1.282 -0.1921 -0.1945 -0.2062
38411SOL    HW126957   0.035   0.171   1.189  0.3449  0.6555 -0.1839
38411SOL    HW226958  -0.075   0.148   1.290 -0.9142  1.3913 -1.3546
38412SOL     OW26959  11.409  11.474   4.612 -0.4746  0.2847  0.6331
38412SOL    HW126960  11.388  11.410   4.680  1.1905 -2.2732 -1.0815
38412SOL    HW226961  11.498  11.503   4.633 -0.1346 -0.1683 -0.1374
38413SOL     OW26962   5.358   6.319   0.163 -0.1531 -0.3127  0.3109
38413SOL    HW126963   5.324   6.248   0.217 -0.7381 -0.9852 -0.9071
38413SOL    HW226964   5.331   6.399   0.208 -0.9869 -0.8624  0.7930
38414SOL     OW26965   9.229   3.047  11.544 -0.6158 -0.2809  0.2113
38414SOL    HW126966   9.206   3.140  11.552  0.9289 -0.0482  3.3801
38414SOL    HW226967   9.145   3.003  11.529 -1.4903  1.5123 -0.4326
38415SOL     OW26968   4.237   8.846   9.895  0.3637  0.6595 -0.1898
38415SOL    HW126969   4.167   8.800   9.941 -0.8728  1.7708 -0.8994
38415SOL    HW226970   4.233   8.813   9.806  1.0762  0.3998 -0.1404
38416SOL     OW26971   8.985  10.669   5.879  0.0405  0.6569 -0.5731
38416SOL    HW126972   8.962  10.758   5.907  1.1164  1.1781 -1.2400
38416SOL    HW226973   8.918  10.613   5.917  0.9276  1.3904  2.3173
38417SOL     OW26974  11.539   7.184   7.316 -0.0190  0.2707  0.4599
38417SOL    HW126975  11.530   7.277   7.295 -1.6502  0.2299  0.9001
38417SOL    HW226976  11.602   7.182   7.388  1.0997  0.8938 -0.4611
38418SOL     OW26977  11.649   1.054  11.137  0.3783 -0.2793  0.1661
38418SOL    HW126978  11.717   0.998  11.099  0.3936 -0.4187  0.3975
38418SOL    HW226979  11.628   1.116  11.067 -0.3850 -1.2220 -0.4743
38419SOL     OW26980   1.592   5.399   1.330  0.3906  0.0623  0.1204
38419SOL    HW126981   1.653   5.454   1.281 -1.2273  2.2042  0.3500
38419SOL    HW226982   1.618   5.409   1.421  0.4328  0.0055  0.1145
38420SOL     OW26983   8.651   7.391   7.164 -0.6203 -0.2751 -0.1207
38420SOL    HW126984   8.705   7.430   7.232 -0.7073 -0.9563  0.3541
38420SOL    HW226985   8.684   7.301   7.156 -1.1221 -0.4365 -0.4276
38421SOL     OW26986   1.500   2.366   6.517 -0.0732 -0.6170 -0.1371
38421SOL    HW126987   1.581   2.321   6.494 -0.4527 -0.6436 -1.4805
38421SOL    HW226988   1.475   2.413   6.438 -0.4458  0.8255  0.7939
38422SOL     OW26989   3.283  10.912   8.586  0.2954 -0.1705  0.6569
38422SOL    HW126990   3.276  10.942   8.676  0.4391 -0.2438  0.6931
38422SOL    HW226991   3.293  10.992   8.535  0.7854 -0.1600  0.7640
38423SOL     OW26992   7.917   6.722   4.863  0.2814  0.2272  0.6057
38423SOL    HW126993   7.928   6.814   4.887 -0.8806 -0.0936  2.5379
38423SOL    HW226994   7.955   6.674   4.936  1.0689 -0.8726 -0.4828
38424SOL     OW26995  10.239   7.154   6.352 -0.3646  0.1708 -0.1552
38424SOL    HW126996  10.330   7.174   6.328 -0.8162  1.0037 -1.2696
38424SOL    HW226997  10.190   7.233   6.330 -1.6887 -0.9549 -1.5357
38425SOL     OW26998   7.398   6.003   5.745  0.2103  0.0024  0.6915
38425SOL    HW126999   7.371   6.088   5.711  1.3211  0.0518 -0.1136
38425SOL    HW227000   7.361   5.940   5.683  0.4851 -0.0218  0.5497
38426SOL     OW27001   8.506   3.008   8.590  0.1772 -0.4744  0.1934
38426SOL    HW127002   8.473   2.922   8.616 -1.2809  0.1013  0.3529
38426SOL    HW227003   8.467   3.023   8.504  0.4973 -0.0017  0.1281
38427SOL     OW27004   6.749   6.955   4.176 -0.2447  0.1527  0.0357
38427SOL    HW127005   6.703   6.991   4.251 -0.1192 -0.0759  0.2259
38427SOL    HW227006   6.699   6.877   4.151 -0.1871  0.1285 -0.0062
38428SOL     OW27007   8.901  10.391   6.587  0.3125 -0.4537 -0.1747
38428SOL    HW127008   8.992  10.382   6.613  0.7504  0.0065 -1.4838
38428SOL    HW227009   8.898  10.473   6.537 -0.6228 -0.9084 -0.9059
38429SOL     OW27010   6.215   6.089   7.077  0.2563 -0.2928  0.2282
38429SOL    HW127011   6.129   6.051   7.059  0.4593  0.1829 -2.0571
38429SOL    HW227012   6.197   6.169   7.126 -0.5600 -0.5312  0.3202
38430SOL     OW27013   1.448   0.278  11.717  0.0572  0.0827  0.1906
38430SOL    HW127014   1.397   0.289  11.797 -2.9701 -1.9372 -1.2854
38430SOL    HW227015   1.401   0.329  11.651  1.7145  0.5937 -0.6700
38431SOL     OW27016   1.311   8.390   8.316 -0.1788  0.1391  0.0261
38431SOL    HW127017   1.223   8.374   8.351  0.9706 -1.7560  2.3341
38431SOL    HW227018   1.297   8.454   8.246 -3.4719 -0.6558 -0.2398
38432SOL     OW27019   8.897   8.802   7.754 -0.4630 -0.6264 -0.5452
38432SOL    HW127020   8.907   8.825   7.662 -1.0143 -1.8451 -0.9308
38432SOL    HW227021   8.982   8.819   7.793  0.1586 -1.3059 -1.5652
38433SOL     OW27022   1.627   2.840   5.598 -0.5885 -0.1324 -0.5686
38433SOL    HW127023   1.673   2.905   5.651 -0.0382 -0.6016 -0.4547
38433SOL    HW227024   1.618   2.882   5.512 -0.7028  0.2917 -0.3522
38434SOL     OW27025   7.826   0.253   8.690 -0.3518 -0.0508 -0.1940
38434SOL    HW127026   7.731   0.247   8.701 -0.5202 -0.1039 -1.5198
38434SOL    HW227027   7.843   0.347   8.681 -0.5302 -0.1548 -1.8275
38435SOL     OW27028   6.379   2.855   3.032  0.6468  0.3753  0.4797
38435SOL    HW127029   6.341   2.873   3.118  2.6580 -0.0424  1.5038
38435SOL    HW227030   6.312   2.885   2.970 -1.0600  0.2565  2.1608
38436SOL     OW27031   7.889   2.198   2.445 -0.1090 -0.5218  0.4708
38436SOL    HW127032   7.844   2.189   2.529  0.3627  0.9917  0.9286
38436SOL    HW227033   7.982   2.193   2.467  0.1326  2.1837  0.4667
38437SOL     OW27034   9.586   0.775   0.650  0.0956 -0.0983  0.3481
38437SOL    HW127035   9.598   0.802   0.559 -1.6054 -1.1255 -0.2238
38437SOL    HW227036   9.628   0.689   0.655  1.7036  0.6877  1.0264
38438SOL     OW27037   5.539  11.132   0.289 -0.9144  0.1268  0.0048
38438SOL    HW127038   5.566  11.040   0.282  0.4337  0.2520  2.4502
38438SOL    HW227039   5.444  11.129   0.277 -0.9832 -1.7098  0.6620
38439SOL     OW27040   8.524   9.363   6.665  0.4186 -0.1639 -0.2688
38439SOL    HW127041   8.554   9.449   6.694 -0.7867  0.3747 -0.5397
38439SOL    HW227042   8.440   9.351   6.710 -0.2463 -0.4325 -1.5369
38440SOL     OW27043   5.437   6.130   6.174  0.3184  0.4266 -0.0477
38440SOL    HW127044   5.377   6.070   6.130  1.1223  0.3536 -1.0719
38440SOL    HW227045   5.451   6.091   6.260 -0.1137 -0.2143 -0.2604
38441SOL     OW27046   0.970   9.782   9.447  0.7139  0.0460 -0.4080
38441SOL    HW127047   0.951   9.743   9.532 -0.8840 -0.1857 -0.8536
38441SOL    HW227048   1.009   9.867   9.468 -2.0202  1.1657  0.6191
38442SOL     OW27049   9.970   1.551   6.817 -0.5262  0.4394  0.2686
38442SOL    HW127050  10.040   1.500   6.777 -0.4445  1.8694 -1.5496
38442SOL    HW227051  10.009   1.590   6.895  0.3985  0.3877 -0.1597
38443SOL     OW27052   9.000   5.147   6.146 -0.4967 -0.1857 -0.3107
38443SOL    HW127053   8.982   5.222   6.203 -0.3472  0.6005 -1.2687
38443SOL    HW227054   8.947   5.076   6.181  0.8401 -0.2291  1.8337
38444SOL     OW27055   9.544   4.755  10.396  0.1043  0.4598  0.0544
38444SOL    HW127056   9.475   4.690  10.384  0.6412 -0.1201  0.0285
38444SOL    HW227057   9.516   4.806  10.472 -1.0092  1.1263 -0.7651
38445SOL     OW27058   2.232   5.536   3.728 -0.3500 -0.1712  0.4760
38445SOL    HW127059   2.237   5.443   3.750  0.7649  0.4997  3.6795
38445SOL    HW227060   2.323   5.562   3.715 -0.8238 -0.2770 -5.0450
38446SOL     OW27061   0.696  10.976   6.405  0.6711  0.7920 -0.0617
38446SOL    HW127062   0.758  10.905   6.393  1.9032  1.1731  3.0544
38446SOL    HW227063   0.749  11.056   6.401 -0.0241  1.2836  0.2305
38447SOL     OW27064   4.938   8.943   5.362 -0.5401  0.2862  0.0055
38447SOL    HW127065   5.028   8.913   5.374  0.2249  2.3957 -0.0257
38447SOL    HW227066   4.918   8.923   5.270  1.1923  2.7805 -1.0369
38448SOL     OW27067   7.188   8.037   7.261  0.2116  0.7815 -0.4958
38448SOL    HW127068   7.203   8.071   7.173  2.4092  1.5423  0.0983
38448SOL    HW227069   7.110   8.083   7.292 -0.7884  0.2666 -2.1072
38449SOL     OW27070   7.257   9.987  10.568 -1.0247 -0.0032  0.4996
38449SOL    HW127071   7.346  10.013  10.543 -1.5319  3.9322  2.2045
38449SOL    HW227072   7.219   9.953  10.487  0.6951  2.2645 -1.3794
38450SOL     OW27073   7.225   9.271  11.804 -0.4855  0.4569 -0.5276
38450SOL    HW127074   7.180   9.228  11.877 -0.1013  0.2740 -0.3898
38450SOL    HW227075   7.188   9.359  11.801  0.2441  0.8403  0.5967
38451SOL     OW27076   1.404  10.386   3.239  0.0687 -0.2734  0.4311
38451SOL    HW127077   1.435  10.431   3.317  0.2693  0.8753 -0.2890
38451SOL    HW227078   1.320  10.348   3.265 -1.2735  2.4462  0.4894
38452SOL     OW27079   4.430  10.938   1.803  0.6827  0.7672  0.3147
38452SOL    HW127080   4.396  10.976   1.722 -2.1982 -1.7352  0.1823
38452SOL    HW227081   4.491  10.871   1.773 -2.0268 -1.7234 -0.1088
38453SOL     OW27082   9.111   4.728   7.422  0.5968 -0.1763  0.1155
38453SOL    HW127083   9.162   4.743   7.502 -0.9920  2.9228  0.7197
38453SOL    HW227084   9.154   4.784   7.357 -0.3856  0.3555 -0.0882
38454SOL     OW27085   4.735   0.757   9.413 -0.0137  0.2911 -0.5034
38454SOL    HW127086   4.820   0.784   9.450  0.2086  0.1400 -0.8995
38454SOL    HW227087   4.757   0.721   9.327 -0.4203 -0.2573 -0.3815
38455SOL     OW27088   5.656   3.973   1.954  0.5883 -0.1922  0.4426
38455SOL    HW127089   5.563   3.987   1.975  0.5306  1.7720 -0.8232
38455SOL    HW227090   5.672   3.882   1.978 -1.7810 -0.7185  0.3581
38456SOL     OW27091   5.448   0.955  11.316 -0.0191 -0.3557 -0.1935
38456SOL    HW127092   5.355   0.977  11.305  0.2794  0.5917 -0.9674
38456SOL    HW227093   5.461   0.878  11.260 -0.1348  0.0673 -0.8074
38457SOL     OW27094  11.727   1.574   4.262 -0.0308  0.6998  0.0703
38457SOL    HW127095  11.811   1.531   4.244 -0.4595 -0.0107 -0.2592
38457SOL    HW227096  11.708   1.623   4.182 -0.3447  0.1567 -0.1989
38458SOL     OW27097   6.894   9.898   6.785 -0.1018 -0.5952 -0.2529
38458SOL    HW127098   6.904   9.807   6.814  0.4516 -0.5247 -0.2134
38458SOL    HW227099   6.815   9.928   6.830 -0.7338 -1.2833 -0.8650
38459SOL     OW27100   7.872   7.570   5.390 -0.4635 -0.3721  0.0122
38459SOL    HW127101   7.925   7.532   5.320  0.4016  1.6611 -0.5107
38459SOL    HW227102   7.881   7.509   5.463  0.0965 -1.6053 -1.0470
38460SOL     OW27103   6.280   7.176  10.515 -0.5139 -0.0954 -0.3679
38460SOL    HW127104   6.319   7.135  10.591 -0.8523 -0.4281 -0.3735
38460SOL    HW227105   6.321   7.263  10.511 -1.5732  0.5005  1.0548
38461SOL     OW27106   4.196   9.757   1.759  0.1862  0.2215  0.5020
38461SOL    HW127107   4.154   9.700   1.824  0.2396  0.2342  0.5481
38461SOL    HW227108   4.238   9.697   1.697 -1.3316  0.1625 -0.5214
38462SOL     OW27109   1.237   5.905   6.431 -0.4344  0.0094  0.1926
38462SOL    HW127110   1.325   5.897   6.395 -0.1640 -1.9805  1.1397
38462SOL    HW227111   1.188   5.955   6.366  1.0100 -0.1440 -1.0552
38463SOL     OW27112   3.629   9.894  10.373  0.1286  0.1540  0.1402
38463SOL    HW127113   3.616   9.828  10.442  1.3799 -0.1760  0.0908
38463SOL    HW227114   3.660   9.843  10.298 -0.0120  0.6676 -0.2691
38464SOL     OW27115  10.262   4.717   0.486  0.0876  0.6508  0.5804
38464SOL    HW127116  10.297   4.649   0.428 -3.2419  0.4618 -1.5235
38464SOL    HW227117  10.338   4.770   0.511  2.1599 -1.2306 -1.2887
38465SOL     OW27118   1.642   1.687   6.401 -0.2295  0.3979  0.0545
38465SOL    HW127119   1.609   1.621   6.462  2.6689 -0.8337  0.4602
38465SOL    HW227120   1.729   1.656   6.376  0.2258  2.7993 -1.7736
38466SOL     OW27121   9.242   8.634   5.033 -0.6222 -0.8521 -0.0620
38466SOL    HW127122   9.334   8.614   5.047 -0.5180  0.5799  1.7247
38466SOL    HW227123   9.201   8.622   5.119 -1.7757  0.0580 -0.4541
38467SOL     OW27124  10.621   7.222   9.582  0.1747  0.1346 -0.2152
38467SOL    HW127125  10.536   7.215   9.627 -0.4657 -0.0071 -1.4014
38467SOL    HW227126  10.606   7.285   9.512  1.4546  1.1726  0.4052
38468SOL     OW27127   5.088   5.798  11.043  0.1161 -0.1731 -0.5906
38468SOL    HW127128   5.041   5.808  11.126  2.0028 -0.1387  0.5313
38468SOL    HW227129   5.159   5.863  11.048  1.2787 -1.3260 -1.4454
38469SOL     OW27130  10.597   7.309   5.374 -0.2155 -0.1242 -0.5248
38469SOL    HW127131  10.518   7.258   5.352 -0.0480 -0.1998 -0.9625
38469SOL    HW227132  10.659   7.244   5.406 -1.2009  0.2305  2.3902
38470SOL     OW27133   8.032   7.198  10.266 -0.3407  0.2765  0.0850
38470SOL    HW127134   8.032   7.153  10.351 -0.9743 -0.1782 -0.1456
38470SOL    HW227135   7.974   7.273  10.280  1.5391  1.6748  0.7816
38471SOL     OW27136   2.212   7.901  11.299 -0.1857  0.6441  0.4914
38471SOL    HW127137   2.141   7.882  11.238  0.2235  0.9680 -0.1037
38471SOL    HW227138   2.288   7.856  11.262  0.4922  2.3237 -0.2527
38472SOL     OW27139   2.883   2.540   8.887  0.5181 -0.6841  0.2306
38472SOL    HW127140   2.869   2.521   8.794 -1.3580  0.3326  0.2570
38472SOL    HW227141   2.795   2.549   8.924  1.2283 -0.3003  1.9451
38473SOL     OW27142   0.854   6.984   9.593 -0.3886 -0.0619 -0.0602
38473SOL    HW127143   0.772   6.962   9.550 -2.1861 -0.9908  3.4911
38473SOL    HW227144   0.888   6.900   9.624  1.5559  0.4074 -0.7836
38474SOL     OW27145   7.051   9.284  10.605 -0.2780  0.3132 -0.1399
38474SOL    HW127146   7.076   9.240  10.687  0.0412  0.9410  0.1138
38474SOL    HW227147   7.039   9.376  10.631 -0.5471  0.4452 -0.7279
38475SOL     OW27148   5.037   9.889   1.398  0.4228 -0.0883  0.0456
38475SOL    HW127149   4.964   9.952   1.394  0.2032 -0.3139 -3.6837
38475SOL    HW227150   4.994   9.804   1.400  0.6960 -0.2136  1.9091
38476SOL     OW27151   6.500   7.877  11.679  0.4151 -0.1942 -0.1976
38476SOL    HW127152   6.533   7.788  11.668  1.1645  0.0980 -0.3435
38476SOL    HW227153   6.457   7.897  11.596  0.5359 -0.3005 -0.2871
38477SOL     OW27154   6.144   8.885   5.575  0.2015  0.3691  0.0659
38477SOL    HW127155   6.118   8.864   5.665 -0.1200  0.0991 -0.0863
38477SOL    HW227156   6.061   8.903   5.530  0.3766  0.7043 -0.1286
38478SOL     OW27157   5.943   6.550   1.123  0.3177  0.6346 -0.3006
38478SOL    HW127158   6.007   6.620   1.133  0.2362  0.7896 -0.8737
38478SOL    HW227159   5.866   6.592   1.085  0.0836  0.3356 -0.1636
38479SOL     OW27160   6.866   9.834   2.143 -0.7148 -0.9794  0.3233
38479SOL    HW127161   6.785   9.886   2.145  1.2766  2.4742 -0.6225
38479SOL    HW227162   6.864   9.791   2.057 -0.6185  0.8788 -0.6653
38480SOL     OW27163   8.922   5.998   2.279  0.3430 -0.2076 -0.1964
38480SOL    HW127164   8.974   6.027   2.204 -0.1729 -1.5291 -1.1132
38480SOL    HW227165   8.966   5.919   2.309  0.0154 -0.2001  0.3108
38481SOL     OW27166   0.481   4.078   3.778  0.0495  0.1630 -0.4080
38481SOL    HW127167   0.414   4.058   3.843  0.7330 -0.5877  0.0761
38481SOL    HW227168   0.552   4.118   3.827  1.5800 -2.5412 -0.2400
38482SOL     OW27169   6.099   7.128   4.689  0.2168  0.0522 -0.2700
38482SOL    HW127170   6.053   7.076   4.754 -0.1224  0.4672 -0.1778
38482SOL    HW227171   6.184   7.147   4.729 -0.5220  1.5226  0.6561
38483SOL     OW27172   9.539   3.921   8.259 -0.4941  0.3207 -0.5849
38483SOL    HW127173   9.627   3.956   8.248 -0.3989  0.1134 -0.4903
38483SOL    HW227174   9.539   3.885   8.348 -0.9050  0.9923 -0.3038
38484SOL     OW27175   2.113   4.847   5.259 -0.2264  0.1690 -0.8099
38484SOL    HW127176   2.020   4.862   5.270  0.0101  1.1288  0.0128
38484SOL    HW227177   2.147   4.931   5.228  0.6225  0.3819  0.6163
38485SOL     OW27178   2.722   1.780   2.442 -0.0935 -0.8055  0.1694
38485SOL    HW127179   2.676   1.800   2.523 -0.1592 -1.4357  0.2950
38485SOL    HW227180   2.745   1.687   2.450 -0.6051 -1.0239 -0.7864
38486SOL     OW27181   4.815   0.184   2.599 -0.1885  0.5668  0.1983
38486SOL    HW127182   4.852   0.216   2.517 -0.7873 -0.4440 -0.4823
38486SOL    HW227183   4.891   0.161   2.653  0.2316 -0.9283 -0.9554
38487SOL     OW27184   1.926   5.963  11.891  0.2626 -0.8221 -0.1223
38487SOL    HW127185   1.970   5.878  11.900  1.9845  0.0569  0.3088
38487SOL    HW227186   1.998   6.025  11.880 -0.9873  0.2253 -4.2523
38488SOL     OW27187   3.193   3.714   4.409  0.3251 -0.3065 -0.0488
38488SOL    HW127188   3.281   3.746   4.392  1.8067 -3.9597 -0.1274
38488SOL    HW227189   3.192   3.692   4.502  0.3230 -2.3585 -0.4974
38489SOL     OW27190  10.378   9.280   5.523  0.3943  0.1463 -0.3814
38489SOL    HW127191  10.390   9.339   5.597 -0.5473 -0.3703  0.1990
38489SOL    HW227192  10.351   9.197   5.561  0.0276 -0.1737 -1.2927
38490SOL     OW27193   0.858   1.140  11.853  0.6427  0.8027  0.3527
38490SOL    HW127194   0.787   1.084  11.885 -0.4876  2.1242  0.2623
38490SOL    HW227195   0.841   1.148  11.759  1.3314  0.5659  0.2045
38491SOL     OW27196  11.449   2.882  11.478  0.3034  0.3030  0.2431
38491SOL    HW127197  11.388   2.889  11.405  0.0605 -2.2349  0.1293
38491SOL    HW227198  11.529   2.848  11.440  0.1667 -1.0727  1.1063
38492SOL     OW27199   3.691   7.698   9.740 -0.3818 -0.1472  0.2484
38492SOL    HW127200   3.777   7.693   9.782 -0.1078  1.6402 -0.0142
38492SOL    HW227201   3.693   7.781   9.692 -1.7963 -0.6961 -0.8171
38493SOL     OW27202   9.447   1.764   0.941  0.0230  0.5842  0.4486
38493SOL    HW127203   9.353   1.779   0.942  0.3180  3.1838  2.7946
38493SOL    HW227204   9.458   1.678   0.982 -1.3338 -0.7201 -1.7492
38494SOL     OW27205   1.915  11.518   6.020 -0.3637  0.2584  0.1749
38494SOL    HW127206   1.918  11.423   6.006 -0.3297  0.4529 -1.3631
38494SOL    HW227207   1.864  11.551   5.946  0.8730  1.5699 -0.1330
38495SOL     OW27208  11.614   0.183   4.095  0.3476  0.2092  0.4025
38495SOL    HW127209  11.672   0.114   4.062  0.9641  0.2829  1.2917
38495SOL    HW227210  11.637   0.191   4.188  0.9910  2.2775  0.1183
38496SOL     OW27211   4.210   6.317   8.010 -0.3956  0.8626  0.4302
38496SOL    HW127212   4.290   6.345   7.965 -0.7465  1.0117 -0.0958
38496SOL    HW227213   4.236   6.314   8.103  0.4409  0.1677  0.1920
38497SOL     OW27214   4.229   6.380   4.508 -0.1412  0.3470  0.0954
38497SOL    HW127215   4.167   6.317   4.472  0.8910 -0.7202  0.1136
38497SOL    HW227216   4.219   6.458   4.453 -1.1372  0.0260 -0.1973
38498SOL     OW27217   8.292   1.862  10.724  0.5311 -0.0965  0.2789
38498SOL    HW127218   8.267   1.952  10.743 -2.8280 -1.1375  1.5526
38498SOL    HW227219   8.210   1.818  10.701  2.1667 -2.6690 -1.1569
38499SOL     OW27220   3.921   1.806  10.610 -0.3735  0.4725 -0.0238
38499SOL    HW127221   3.854   1.834  10.673 -1.7916  1.0546 -1.6917
38499SOL    HW227222   3.914   1.710  10.609  1.0642  0.2749  2.0906
38500SOL     OW27223  10.491   7.049   8.331  0.3440  0.8917 -0.0483
38500SOL    HW127224  10.519   6.991   8.261  0.0687  1.7780 -0.9146
38500SOL    HW227225  10.566   7.106   8.347  2.1767 -2.0471  3.5344
38501SOL     OW27226   4.366   1.568   9.690 -0.1975 -0.1303  0.4645
38501SOL    HW127227   4.336   1.599   9.775  0.1060 -0.9597  0.8931
38501SOL    HW227228   4.314   1.488   9.674 -1.4857  0.9315 -0.9399
38502SOL     OW27229   2.798   3.886  10.793  0.1295  0.3838  0.4824
38502SOL    HW127230   2.787   3.974  10.830  0.4027  0.2368  0.9305
38502SOL    HW227231   2.799   3.899  10.698  1.2734  1.0099  0.5633
38503SOL     OW27232   2.528   5.712   5.081  0.1546  0.3989  0.5788
38503SOL    HW127233   2.624   5.710   5.076  0.1554  1.1323  0.0896
38503SOL    HW227234   2.505   5.797   5.045 -0.6930  0.1971  0.6377
38504SOL     OW27235   4.466  11.436   0.439 -0.7829  1.1027  0.0547
38504SOL    HW127236   4.474  11.401   0.528 -1.4718  1.2822  0.1972
38504SOL    HW227237   4.535  11.502   0.432 -0.3859  0.7137  0.2719
38505SOL     OW27238   4.891   9.251   4.731  0.2530  0.2246 -0.3635
38505SOL    HW127239   4.903   9.263   4.825  0.0321  0.3121 -0.3445
38505SOL    HW227240   4.953   9.183   4.706 -0.0656 -0.1741 -0.0572
38506SOL     OW27241   2.612  10.256   8.543  0.5497  0.0728 -0.0855
38506SOL    HW127242   2.610  10.234   8.450  2.6276 -0.4466 -0.0589
38506SOL    HW227243   2.696  10.300   8.556 -0.6592  2.2069  1.1578
38507SOL     OW27244   3.113   9.174   1.086  0.1252  0.0997  1.0730
38507SOL    HW127245   3.039   9.141   1.136 -0.6611  0.4756  0.1960
38507SOL    HW227246   3.107   9.128   1.002  0.2835  0.8860  0.6245
38508SOL     OW27247   6.141  10.913   7.898  0.2143  0.1174  0.3704
38508SOL    HW127248   6.049  10.928   7.876  0.2894 -0.6895 -0.5844
38508SOL    HW227249   6.188  10.984   7.855  0.2389 -0.7785 -1.1801
38509SOL     OW27250   7.973   4.208   0.837  0.1249  0.2875 -0.2583
38509SOL    HW127251   8.034   4.153   0.788  0.4513 -0.1753  0.6422
38509SOL    HW227252   7.915   4.146   0.881  0.4546  0.6510  0.7170
38510SOL     OW27253   7.543   9.177   2.815 -0.1397  0.3409  0.1731
38510SOL    HW127254   7.567   9.103   2.871 -2.1106 -0.5565 -0.0755
38510SOL    HW227255   7.580   9.155   2.729  2.1110  1.2892  0.8247
38511SOL     OW27256   8.827   6.495  11.756  0.5827 -0.0501 -0.1068
38511SOL    HW127257   8.854   6.533  11.672 -0.7483  1.7518  0.2287
38511SOL    HW227258   8.909   6.467  11.797  1.3742  0.2310 -1.4408
38512SOL     OW27259  10.102   4.154   9.234 -0.0259  0.5710  0.1755
38512SOL    HW127260  10.133   4.090   9.298 -1.1047  0.0244  0.1825
38512SOL    HW227261  10.144   4.129   9.152 -1.6190 -1.1500 -0.1796
38513SOL     OW27262   1.876  10.909  10.699 -0.3054  0.0213 -0.0284
38513SOL    HW127263   1.804  10.907  10.763 -0.4264 -1.6158 -0.1726
38513SOL    HW227264   1.851  10.844  10.633  0.9661 -0.0449 -0.4686
38514SOL     OW27265   4.737   8.921   9.722 -0.1677 -0.0532  0.1508
38514SOL    HW127266   4.716   8.882   9.806 -0.8344  0.7008  0.3552
38514SOL    HW227267   4.733   9.016   9.738 -1.3312  0.1254 -0.9403
38515SOL     OW27268   0.766   0.975   9.041  0.0524  0.3883 -0.0505
38515SOL    HW127269   0.786   0.965   8.948 -0.1575 -0.5536 -0.0013
38515SOL    HW227270   0.710   0.900   9.062 -0.3197  0.8720  0.7178
38516SOL     OW27271   7.098   8.578   2.051 -0.6782 -0.6964  0.3748
38516SOL    HW127272   7.094   8.557   1.958  1.1242  1.7864 -0.3723
38516SOL    HW227273   7.177   8.533   2.082 -1.0432 -1.1776  0.6136
38517SOL     OW27274   8.956   6.180  11.572  0.1522  0.1388  0.2771
38517SOL    HW127275   9.026   6.199  11.634  0.4572  1.7299 -0.5032
38517SOL    HW227276   8.975   6.092  11.540  1.0052  0.0147  1.0950
38518SOL     OW27277   0.216  10.281   4.044  0.0684  0.9190  0.2822
38518SOL    HW127278   0.217  10.362   3.992  0.1925 -1.0703 -3.0784
38518SOL    HW227279   0.132  10.283   4.091 -0.5740  2.3032 -0.8540
38519SOL     OW27280   1.620  10.901   7.742 -0.6263  0.3273  0.7802
38519SOL    HW127281   1.656  10.823   7.784 -0.1120  0.4045  0.4952
38519SOL    HW227282   1.526  10.897   7.759 -0.7275 -0.7916  0.0898
38520SOL     OW27283  11.680   5.829   1.245 -0.0758 -0.0350 -0.0782
38520SOL    HW127284  11.604   5.865   1.292  1.9958  0.7284  3.0296
38520SOL    HW227285  11.717   5.904   1.199 -1.1026 -0.3992 -1.5646
38521SOL     OW27286   0.179  10.807   9.045  0.6510  0.0391 -0.4261
38521SOL    HW127287   0.157  10.887   8.997 -0.7697 -0.5880 -0.8682
38521SOL    HW227288   0.144  10.736   8.992  1.1437 -0.8337  0.3804
38522SOL     OW27289   7.807   6.312   9.664 -0.0185 -0.1115 -0.0466
38522SOL    HW127290   7.781   6.273   9.580 -0.2986  0.7838 -0.3925
38522SOL    HW227291   7.734   6.292   9.723 -0.7774  1.0067 -0.5814
38523SOL     OW27292   7.956   2.457   2.167  0.1478 -0.6867 -0.2180
38523SOL    HW127293   8.013   2.508   2.225  0.2695 -1.3203  0.2296
38523SOL    HW227294   7.881   2.514   2.151  0.9257  0.1852 -0.8618
38524SOL     OW27295  11.007   4.219   4.506 -0.0081  0.2920  0.2456
38524SOL    HW127296  11.085   4.163   4.518 -0.2952  0.3006  2.7361
38524SOL    HW227297  10.958   4.176   4.436  0.1802 -2.1987  1.4966
38525SOL     OW27298   1.208  10.705   1.293 -0.0462 -0.3039  0.3044
38525SOL    HW127299   1.238  10.763   1.223 -4.5237  1.5560 -0.3543
38525SOL    HW227300   1.195  10.763   1.368 -0.2922 -1.3381  1.0766
38526SOL     OW27301  10.322   7.073   0.227 -0.3927 -0.1207 -0.9722
38526SOL    HW127302  10.347   7.104   0.140  0.2178  0.2836 -0.6550
38526SOL    HW227303  10.331   7.149   0.284 -0.3136 -0.5002 -0.4634
38527SOL     OW27304   8.146   6.474   7.912 -0.5746 -0.2457 -0.4060
38527SOL    HW127305   8.200   6.549   7.939  0.0022 -0.5287 -0.7603
38527SOL    HW227306   8.180   6.400   7.963 -0.4390 -0.4852 -0.8473
38528SOL     OW27307  10.428  11.425   7.293 -0.0541  0.6946 -0.5926
38528SOL    HW127308  10.390  11.459   7.375 -1.5314  2.4942 -1.9517
38528SOL    HW227309  10.402  11.333   7.292 -0.6936  0.8346  0.5917
38529SOL     OW27310   0.973   4.825   3.523 -0.0445  0.6103  0.1725
38529SOL    HW127311   0.912   4.894   3.496 -0.5235 -0.3091 -1.2092
38529SOL    HW227312   0.975   4.764   3.449  0.9524 -0.4735  1.0464
38530SOL     OW27313   7.645   4.150  11.746  0.1125 -0.8430 -0.7430
38530SOL    HW127314   7.699   4.189  11.677 -1.5312 -0.2783 -1.7685
38530SOL    HW227315   7.658   4.208  11.822  1.8504 -1.4098 -0.5448
38531SOL     OW27316   7.079   8.636   6.253  0.2570  0.4195  0.6955
38531SOL    HW127317   7.148   8.699   6.232  0.2559 -0.4652 -2.4389
38531SOL    HW227318   6.998   8.686   6.243  0.3052  0.3222 -0.2081
38532SOL     OW27319  10.368   1.351   6.374  0.7341 -0.1950 -0.2964
38532SOL    HW127320  10.429   1.401   6.320  0.0571 -0.3876 -1.2552
38532SOL    HW227321  10.385   1.260   6.350 -0.8155 -0.1836 -1.5515
38533SOL     OW27322   8.710   4.270  11.698 -0.4150 -0.2839  0.1122
38533SOL    HW127323   8.670   4.257  11.784 -2.0769 -0.4638 -0.6498
38533SOL    HW227324   8.735   4.182  11.670  1.9259 -0.0272  1.1891
38534SOL     OW27325   1.966   8.705   5.737  0.4441 -0.6547 -0.3146
38534SOL    HW127326   2.027   8.688   5.809 -0.8127 -0.4610  0.8432
38534SOL    HW227327   1.888   8.654   5.759 -0.4987  0.5362 -0.7842
38535SOL     OW27328  11.135   5.159   7.824  0.3197 -0.5777 -0.2612
38535SOL    HW127329  11.167   5.204   7.902  1.2755 -0.2831 -0.8122
38535SOL    HW227330  11.163   5.213   7.751 -0.6980 -0.7702 -0.8207
38536SOL     OW27331  11.300   4.610   6.188  0.1341  0.0327  0.3743
38536SOL    HW127332  11.277   4.522   6.158  1.3072 -0.8763  1.9757
38536SOL    HW227333  11.356   4.645   6.119 -0.2848 -0.4818 -0.2412
38537SOL     OW27334  11.888   1.782   0.015  0.4781  0.4816  0.1659
38537SOL    HW127335  11.868   1.772   0.108 -1.1732 -0.8627 -0.2853
38537SOL    HW227336  11.817   1.837  -0.019  0.5495  0.1927 -0.4740
38538SOL     OW27337   2.732  11.417  10.901  0.7286 -0.0159  0.2059
38538SOL    HW127338   2.737  11.379  10.989  0.4076  0.1836  0.3104
38538SOL    HW227339   2.642  11.403  10.874  0.4839  1.0692  0.4227
38539SOL     OW27340   7.746   1.655   4.429  0.3670  0.5442  0.0588
38539SOL    HW127341   7.667   1.604   4.411  0.9096 -0.0577 -0.6808
38539SOL    HW227342   7.799   1.645   4.350  0.6468  1.9695  0.0312
38540SOL     OW27343   4.433   2.214   6.821  0.4985 -0.3858 -0.4310
38540SOL    HW127344   4.482   2.272   6.878  0.9846 -0.1972 -1.0289
38540SOL    HW227345   4.349   2.203   6.865  1.1235 -0.8432  0.6842
38541SOL     OW27346  11.790   4.852   0.158  0.1284 -0.2574  0.0842
38541SOL    HW127347  11.702   4.829   0.128  0.8783 -1.9960 -0.9493
38541SOL    HW227348  11.819   4.775   0.207  0.6613  0.7663  1.4459
38542SOL     OW27349   3.195   7.016   8.665 -0.3534 -0.5522  0.1045
38542SOL    HW127350   3.211   6.955   8.738  0.3816  0.7891  1.1146
38542SOL    HW227351   3.100   7.022   8.659 -0.4737 -2.3219 -0.5021
38543SOL     OW27352   5.228   9.551   9.704 -0.2421 -0.2700  0.1027
38543SOL    HW127353   5.322   9.569   9.705 -0.2325  0.0044 -1.6839
38543SOL    HW227354   5.187   9.636   9.717 -0.2624 -0.4463  1.2708
38544SOL     OW27355   3.164  10.493   4.392 -0.2919  0.7336 -0.2325
38544SOL    HW127356   3.151  10.441   4.313 -1.8262  0.1868  0.3362
38544SOL    HW227357   3.125  10.578   4.373  0.3088  0.9636 -0.4355
38545SOL     OW27358   2.307   9.863   0.086  0.1894  0.2159 -0.2228
38545SOL    HW127359   2.307   9.820   0.172 -0.1195 -0.3850 -0.5143
38545SOL    HW227360   2.214   9.871   0.064  0.2519  0.8651 -0.2636
38546SOL     OW27361   0.045   0.087   4.227  0.0357  0.0681 -0.3515
38546SOL    HW127362   0.002   0.109   4.309 -0.3945  1.0459 -0.8249
38546SOL    HW227363   0.071   0.171   4.189 -2.0263 -0.1199 -2.4098
38547SOL     OW27364   8.107   4.961   5.052  0.1031  0.4939 -0.1242
38547SOL    HW127365   8.093   4.899   4.980 -1.4398  0.0188  0.5562
38547SOL    HW227366   8.196   4.942   5.082  0.1726 -0.4182 -0.8435
38548SOL     OW27367   2.952   0.790   7.236  0.7338  0.5951  0.2930
38548SOL    HW127368   2.982   0.713   7.189  0.7146  2.4469 -3.0871
38548SOL    HW227369   2.861   0.801   7.209  0.8593  2.0039  0.3347
38549SOL     OW27370   1.848   8.185  10.693  0.0458 -0.7044  0.3173
38549SOL    HW127371   1.774   8.128  10.670 -0.2313 -0.2806  0.1476
38549SOL    HW227372   1.916   8.125  10.722 -0.4437 -1.0856  0.6902
38550SOL     OW27373   4.391   7.561   0.831  0.0526  0.3021  0.0903
38550SOL    HW127374   4.315   7.573   0.775  0.5140  0.7946 -0.4485
38550SOL    HW227375   4.357   7.518   0.910 -0.7502  0.3891 -0.2026
38551SOL     OW27376   4.523   5.806   2.099  0.5873 -0.2176 -0.1452
38551SOL    HW127377   4.428   5.802   2.100  0.5305  0.8432  0.2248
38551SOL    HW227378   4.551   5.731   2.151  0.0254 -1.6877 -1.8752
38552SOL     OW27379   3.724   7.883   1.924  0.2645 -0.3758 -0.1930
38552SOL    HW127380   3.785   7.841   1.985 -0.4653 -0.6813  0.3377
38552SOL    HW227381   3.765   7.967   1.903  0.0517  0.1755  1.5056
38553SOL     OW27382   8.603   5.602   3.537 -0.0163  0.3404 -0.2565
38553SOL    HW127383   8.571   5.639   3.455 -0.5144 -0.5597 -0.4891
38553SOL    HW227384   8.575   5.510   3.534  0.4765  0.1468  0.6530
38554SOL     OW27385   3.284   5.262  10.288  0.6604  0.0092 -0.0109
38554SOL    HW127386   3.207   5.267  10.231  0.6238  1.5749  0.1366
38554SOL    HW227387   3.282   5.173  10.323 -2.3867  0.6508  1.7559
38555SOL     OW27388   4.938   5.033   8.250 -0.1156 -0.3623 -0.1432
38555SOL    HW127389   4.971   4.949   8.217  0.3619 -0.5404  0.7799
38555SOL    HW227390   4.889   5.010   8.329  0.2000  0.2546  0.2340
38556SOL     OW27391   2.969   6.445   1.305  0.3845  0.4264  0.3509
38556SOL    HW127392   2.979   6.450   1.210  0.8052  0.4449  0.3985
38556SOL    HW227393   2.960   6.536   1.333 -2.4603  0.3544  0.0399
38557SOL     OW27394   9.671  11.238   3.745  0.6247 -0.3965 -0.0007
38557SOL    HW127395   9.714  11.169   3.694  0.8852  0.3918 -0.8777
38557SOL    HW227396   9.585  11.203   3.765  0.9275 -1.1671 -0.0125
38558SOL     OW27397   4.243   0.759   5.404 -0.3612 -0.0015 -0.5835
38558SOL    HW127398   4.234   0.846   5.365  0.4755  0.6110  0.5315
38558SOL    HW227399   4.336   0.739   5.397 -0.6353 -1.1147 -1.4005
38559SOL     OW27400   8.009   9.684   7.705 -0.7146  0.0598  0.0381
38559SOL    HW127401   7.928   9.685   7.757  0.2696 -1.1124  1.6916
38559SOL    HW227402   8.077   9.711   7.766  0.3445 -0.4111 -0.9084
38560SOL     OW27403   3.704   7.690   9.431  0.0411 -0.3273 -0.1286
38560SOL    HW127404   3.667   7.688   9.519  0.6540  0.3670  0.1564
38560SOL    HW227405   3.794   7.660   9.442 -0.3140 -1.7403 -0.7713
38561SOL     OW27406  10.992  10.080   8.581 -0.1237  0.2469 -0.3400
38561SOL    HW127407  11.021  10.002   8.535  0.1939  0.0184  0.2457
38561SOL    HW227408  10.934  10.048   8.650 -1.5331  0.6706 -1.2762
38562SOL     OW27409  11.181   0.327   8.087  0.1322 -0.1190 -0.1291
38562SOL    HW127410  11.259   0.382   8.088  0.0397  0.0002  0.7140
38562SOL    HW227411  11.134   0.351   8.166 -0.8955 -0.0078 -0.7571
38563SOL     OW27412   4.863   6.374   1.472 -0.2233  0.1203  0.0517
38563SOL    HW127413   4.951   6.337   1.487 -0.3976  0.6145  2.7955
38563SOL    HW227414   4.804   6.312   1.515 -1.3550 -0.5020 -2.2496
38564SOL     OW27415   9.720   1.706   7.772  0.5829 -0.0840 -0.2269
38564SOL    HW127416   9.788   1.639   7.767 -1.4684 -2.3639  0.1242
38564SOL    HW227417   9.711   1.739   7.683  1.2582 -0.6845 -0.5279
38565SOL     OW27418   9.105   1.860   3.116  0.3005  0.3509  0.7635
38565SOL    HW127419   9.096   1.768   3.093 -0.6135  0.8325 -0.9994
38565SOL    HW227420   9.178   1.891   3.063  0.3248  0.7387  1.0160
38566SOL     OW27421   1.098   0.007  10.773  0.4318  0.1880 -0.0311
38566SOL    HW127422   1.168   0.050  10.725  0.6628 -0.0636  0.0804
38566SOL    HW227423   1.124   0.011  10.865  0.2528  0.1813  0.0217
38567SOL     OW27424   4.795   6.848   5.435 -0.0797  0.1302  0.5689
38567SOL    HW127425   4.743   6.828   5.357  0.8676 -0.6269  0.1221
38567SOL    HW227426   4.751   6.801   5.506 -0.9937  0.8891  0.5413
38568SOL     OW27427   4.742  10.729  10.512 -0.2173  0.2537 -0.2660
38568SOL    HW127428   4.755  10.696  10.423  0.5335  2.0994 -0.8856
38568SOL    HW227429   4.664  10.784  10.505 -1.1761 -0.9463  0.6365
38569SOL     OW27430  11.943   1.594  10.264  0.0958  0.1902 -0.5823
38569SOL    HW127431  11.882   1.648  10.315 -0.0652 -1.2226  0.8229
38569SOL    HW227432  12.025   1.598  10.313 -0.0057 -1.0465 -0.2684
38570SOL     OW27433   4.552   8.008  10.566  0.3454  0.1467 -0.5004
38570SOL    HW127434   4.607   7.930  10.551  0.7335  0.1521  0.7595
38570SOL    HW227435   4.604   8.081  10.533  0.6821  0.0358 -0.2260
38571SOL     OW27436  10.877   5.769   6.629 -0.2240 -0.1120 -0.2649
38571SOL    HW127437  10.814   5.827   6.587  1.1909 -0.1917 -2.6793
38571SOL    HW227438  10.873   5.792   6.722 -2.2773  1.2834 -0.6381
38572SOL     OW27439   6.527   0.759   1.448  0.4144  0.5609 -0.1076
38572SOL    HW127440   6.522   0.671   1.485 -0.0686  0.6354  0.0021
38572SOL    HW227441   6.469   0.811   1.503  1.8252  1.2751  0.7637
38573SOL     OW27442   8.251   9.209   6.264  0.1820  0.4695  0.2312
38573SOL    HW127443   8.156   9.220   6.264  0.0237 -0.6245  1.2558
38573SOL    HW227444   8.283   9.276   6.324  0.0757  0.9064 -0.1943
38574SOL     OW27445   2.081   5.945   0.371 -0.3897 -0.2399  0.0268
38574SOL    HW127446   2.039   5.908   0.293 -1.3154  1.5110 -0.3545
38574SOL    HW227447   2.013   5.945   0.438 -0.1743  0.0615  0.2471
38575SOL     OW27448   0.762   2.399  10.412  0.2862 -0.3471 -0.0185
38575SOL    HW127449   0.815   2.456  10.470  0.2342 -1.2541  0.9501
38575SOL    HW227450   0.687   2.453  10.389  1.7690  1.1402 -1.7647
38576SOL     OW27451   8.092   9.901   7.520  0.3212  0.1552  0.4838
38576SOL    HW127452   8.052   9.822   7.556 -0.7610  0.4816  0.0303
38576SOL    HW227453   8.112   9.955   7.596  1.8035 -0.8627  0.8679
38577SOL     OW27454   9.690   1.100   9.695  0.3866 -0.2502 -0.7940
38577SOL    HW127455   9.646   1.092   9.780  1.8509 -1.5561 -0.1038
38577SOL    HW227456   9.705   1.010   9.667  1.5434  0.1505 -1.5518
38578SOL     OW27457   4.967   4.654   2.268 -0.5010  0.1481 -0.1509
38578SOL    HW127458   4.989   4.561   2.273  1.3901  0.5164 -0.8207
38578SOL    HW227459   5.032   4.691   2.208 -0.2148  2.1902  1.3148
38579SOL     OW27460   0.414  11.671  10.986  0.0274  0.8235 -0.2367
38579SOL    HW127461   0.447  11.700  11.072 -1.1472 -1.1715  0.9607
38579SOL    HW227462   0.381  11.583  11.002 -1.7153  1.0154 -2.3924
38580SOL     OW27463   2.401   5.819  11.328 -0.1205 -0.5831 -0.1508
38580SOL    HW127464   2.484   5.827  11.280 -0.4632 -0.1365 -0.6793
38580SOL    HW227465   2.376   5.727  11.317  1.7257 -1.5065  2.4118
38581SOL     OW27466   3.015  11.469   9.193  0.4227 -0.3077  0.2596
38581SOL    HW127467   3.109  11.459   9.202  0.4124 -1.8854 -0.9925
38581SOL    HW227468   2.979  11.383   9.216 -0.4302 -0.7102 -2.2261
38582SOL     OW27469   4.254  10.861   3.874 -0.0116  0.4875  0.2702
38582SOL    HW127470   4.315  10.830   3.807  0.0377  0.8769  0.1307
38582SOL    HW227471   4.168  10.831   3.844  0.0577  0.3037  0.2497
38583SOL     OW27472   1.124  11.045   9.846  0.0600 -0.3155 -0.0077
38583SOL    HW127473   1.077  11.053   9.929 -1.4679 -2.4717 -0.5757
38583SOL    HW227474   1.092  11.117   9.793  0.2886  0.4827  0.9087
38584SOL     OW27475   2.791   1.425  10.577 -0.2281 -0.5183  0.1899
38584SOL    HW127476   2.839   1.505  10.558  0.3802 -1.1862 -1.2220
38584SOL    HW227477   2.780   1.426  10.672  1.2285  0.4155  0.3835
38585SOL     OW27478   9.818   9.834  10.936 -0.3999 -0.3710 -0.6632
38585SOL    HW127479   9.775   9.765  10.885 -0.8550  0.0926 -0.9173
38585SOL    HW227480   9.877   9.788  10.995 -0.9167 -0.9956 -0.6274
38586SOL     OW27481   4.288  11.561   9.740  0.0994  0.5131 -0.0183
38586SOL    HW127482   4.245  11.598   9.663 -1.7992  1.1564  1.2446
38586SOL    HW227483   4.358  11.623   9.761  1.4847 -0.3300 -1.8873
38587SOL     OW27484   3.012   2.639  10.177 -0.5888  0.4927 -0.5479
38587SOL    HW127485   3.074   2.566  10.177 -1.1704 -0.0078 -0.5955
38587SOL    HW227486   3.047   2.700  10.112 -0.9129 -0.4496 -1.6365
38588SOL     OW27487   0.676   3.698   3.555 -0.3554  0.4547  0.0353
38588SOL    HW127488   0.605   3.755   3.584  0.8689  2.5046 -0.7787
38588SOL    HW227489   0.736   3.694   3.630 -0.3314  0.4344  0.0151
38589SOL     OW27490   2.575  10.392   6.883  0.1282  0.5256  0.3987
38589SOL    HW127491   2.563  10.486   6.900 -0.3476  0.5785 -0.2060
38589SOL    HW227492   2.578  10.384   6.788  0.2648 -0.0634  0.4456
38590SOL     OW27493   8.586   5.826  11.109  0.2570  0.1616 -0.2436
38590SOL    HW127494   8.582   5.921  11.098  1.1798  0.3495  0.8377
38590SOL    HW227495   8.598   5.793  11.020 -0.3438  1.0293 -0.6660
38591SOL     OW27496   2.016   2.370   5.078  0.0974 -0.1769  0.5045
38591SOL    HW127497   2.041   2.360   4.986 -2.6097 -0.6798 -0.2587
38591SOL    HW227498   2.091   2.337   5.127  0.4662 -2.8193 -1.5943
38592SOL     OW27499   4.493   0.409   1.841  0.5988 -0.5506 -0.7494
38592SOL    HW127500   4.587   0.392   1.846  0.3361 -1.8526  1.7244
38592SOL    HW227501   4.472   0.454   1.923 -0.8179  0.5374 -1.6580
38593SOL     OW27502   9.699  11.102   3.267  0.3183  0.0353 -0.2054
38593SOL    HW127503   9.655  11.127   3.348  0.8388  0.2606  0.0057
38593SOL    HW227504   9.764  11.170   3.252  0.4284 -0.1643 -0.6537
38594SOL     OW27505   6.943  10.615   1.600  0.4960 -0.0414  0.3062
38594SOL    HW127506   6.973  10.526   1.617  1.8546  0.6820  2.1498
38594SOL    HW227507   6.861  10.623   1.649 -0.2446 -0.5888 -0.8058
38595SOL     OW27508   6.444   1.854   8.058 -0.0293  1.0428 -0.4078
38595SOL    HW127509   6.365   1.901   8.086  0.0695  0.8858  0.1502
38595SOL    HW227510   6.463   1.795   8.131  0.4903  0.9374 -0.6278
38596SOL     OW27511   7.597   7.371   0.865  0.7316  0.1816 -0.3433
38596SOL    HW127512   7.637   7.383   0.951  1.6638  0.4054 -0.7981
38596SOL    HW227513   7.538   7.446   0.856 -1.5701 -1.2700  1.2486
38597SOL     OW27514   0.557   4.757   6.261  0.5650 -0.5101 -0.2474
38597SOL    HW127515   0.568   4.664   6.240 -1.0967 -0.4574 -1.5110
38597SOL    HW227516   0.482   4.759   6.320  0.0933  0.1053 -0.8640
38598SOL     OW27517   4.323   0.608   2.446 -0.7436  0.1956  0.2339
38598SOL    HW127518   4.303   0.529   2.396  2.5440 -0.5164 -0.1997
38598SOL    HW227519   4.383   0.579   2.515  0.1467  2.2062  0.3864
38599SOL     OW27520   9.752   4.710   6.677 -0.1494 -0.3376 -0.2550
38599SOL    HW127521   9.817   4.676   6.738  0.0932  0.5168 -0.0378
38599SOL    HW227522   9.751   4.804   6.690 -1.8682 -0.3715  0.1855
38600SOL     OW27523   1.692   8.205  11.848  0.1355  0.2722  0.1609
38600SOL    HW127524   1.713   8.117  11.878 -1.0875 -0.3708 -0.7856
38600SOL    HW227525   1.597   8.207  11.843  0.1696  1.4691 -0.3797
38601SOL     OW27526  11.354   8.256   7.298  0.5246  0.2110  0.1057
38601SOL    HW127527  11.428   8.219   7.250  0.5690  0.2847  0.1179
38601SOL    HW227528  11.387   8.270   7.387  0.8964  1.4677 -0.2092
38602SOL     OW27529   0.050   7.918   9.907 -0.7772 -0.1674 -0.3341
38602SOL    HW127530   0.074   7.974   9.982 -0.1287  0.6335 -1.1097
38602SOL    HW227531   0.035   7.980   9.836 -1.2756 -0.9290 -0.8967
38603SOL     OW27532   4.466   4.389   9.495  0.1063 -0.2157 -0.1132
38603SOL    HW127533   4.389   4.378   9.549  0.5264  0.2175  0.5896
38603SOL    HW227534   4.453   4.329   9.421 -0.4971 -0.7700  0.4373
38604SOL     OW27535   0.011   8.634  10.098  0.1364 -0.5105 -0.1898
38604SOL    HW127536   0.076   8.681  10.046 -1.9220  0.1838 -2.2803
38604SOL    HW227537  -0.001   8.690  10.175 -0.5247  1.2506 -1.4947
38605SOL     OW27538  11.612   3.420   1.962 -0.2834  0.3803  0.2645
38605SOL    HW127539  11.569   3.460   1.887  1.5324  2.7633  0.3545
38605SOL    HW227540  11.687   3.373   1.925 -1.2506 -1.2902  0.3493
38606SOL     OW27541   1.807   7.990   0.640 -0.2622 -0.2294 -0.5704
38606SOL    HW127542   1.721   8.028   0.659  0.0472 -0.5447  1.6842
38606SOL    HW227543   1.790   7.897   0.630 -0.4427 -0.0501 -2.1501
38607SOL     OW27544   1.916   7.564  10.241  0.3047  0.5334  0.2104
38607SOL    HW127545   1.955   7.650  10.228 -0.3487  1.0279  1.3590
38607SOL    HW227546   1.822   7.578  10.227  0.3838 -0.4027 -1.4416
38608SOL     OW27547   9.171   1.135   4.116 -0.1689 -0.0846 -0.1028
38608SOL    HW127548   9.262   1.156   4.137  0.1693  0.2659 -1.8130
38608SOL    HW227549   9.131   1.117   4.201  0.7555  2.6211  1.0340
38609SOL     OW27550   5.535   0.487   3.950 -0.2017 -0.2379  0.6441
38609SOL    HW127551   5.590   0.422   3.995 -0.1161  0.3891  1.4650
38609SOL    HW227552   5.587   0.512   3.874  0.6266  0.2594  1.3466
38610SOL     OW27553   8.171   2.173   4.869  0.3541  0.1977 -0.4322
38610SOL    HW127554   8.236   2.133   4.810  1.3138  0.7233  0.2299
38610SOL    HW227555   8.130   2.099   4.913 -0.0393 -0.1800 -1.4034
38611SOL     OW27556   0.482  10.878  10.509 -0.3806 -0.3433 -0.3136
38611SOL    HW127557   0.516  10.952  10.559 -1.2349 -0.2706  0.1773
38611SOL    HW227558   0.467  10.914  10.421 -2.6386  0.6569  0.4003
38612SOL     OW27559   2.180  11.117   1.683  0.3031  1.1923  0.1758
38612SOL    HW127560   2.201  11.179   1.753  0.3029  3.0207 -1.3464
38612SOL    HW227561   2.252  11.053   1.685  2.3522  3.3294 -0.4595
38613SOL     OW27562   1.598   6.150   2.993 -0.0196  0.8545  0.5822
38613SOL    HW127563   1.644   6.097   3.058 -0.8287  0.2671  0.6845
38613SOL    HW227564   1.606   6.099   2.912 -0.6621  0.6507  0.6457
38614SOL     OW27565   6.928   1.003   8.346  0.4057 -0.4595  0.2095
38614SOL    HW127566   6.954   1.042   8.430 -0.6563 -2.2263  1.4280
38614SOL    HW227567   6.993   0.934   8.331  0.8852  0.1731 -0.7105
38615SOL     OW27568   2.397   6.724   9.329 -0.1351  0.3654  0.1351
38615SOL    HW127569   2.346   6.644   9.342  0.1364  0.0329 -0.7269
38615SOL    HW227570   2.434   6.743   9.415  2.1308 -2.0832 -0.1453
38616SOL     OW27571   1.226   0.737   8.750 -0.7738  0.6584  0.4805
38616SOL    HW127572   1.199   0.652   8.716  1.6309 -0.0863  0.2660
38616SOL    HW227573   1.246   0.721   8.842  1.5544  0.4569  0.0013
38617SOL     OW27574   5.569   2.919   0.846  0.7130  0.5361 -0.5731
38617SOL    HW127575   5.510   2.878   0.783 -0.8905 -0.1677  1.2689
38617SOL    HW227576   5.604   2.846   0.898 -0.2582  1.2399  1.1694
38618SOL     OW27577  10.324   8.495   6.154  0.4209 -0.0601 -0.2824
38618SOL    HW127578  10.325   8.408   6.194  0.1688  0.9042  2.0376
38618SOL    HW227579  10.416   8.523   6.155  0.4446 -0.1335 -0.5923
38619SOL     OW27580   8.021   5.703   2.028 -0.1785  0.3131 -0.0516
38619SOL    HW127581   8.093   5.757   1.997 -1.1387  0.5208 -2.0937
38619SOL    HW227582   7.957   5.706   1.957 -1.9495 -0.3306  1.4401
38620SOL     OW27583   3.457  10.539   9.148 -0.3311  0.1317  0.5637
38620SOL    HW127584   3.533  10.487   9.173 -1.1294 -2.0643 -1.1876
38620SOL    HW227585   3.391  10.517   9.213  0.0293  0.7806  1.1563
38621SOL     OW27586   5.418   8.810   3.606 -0.1913  0.0900 -0.4340
38621SOL    HW127587   5.465   8.850   3.533  2.2881  0.5876  1.2892
38621SOL    HW227588   5.474   8.737   3.633 -0.3162  0.7247  1.7515
38622SOL     OW27589   4.162   0.611  11.858  0.0992  0.4571 -0.3967
38622SOL    HW127590   4.091   0.560  11.819 -0.4867  1.5059 -0.7384
38622SOL    HW227591   4.119   0.667  11.922  0.6548  0.9270 -0.4279
38623SOL     OW27592   8.053   3.988   6.393  0.0483  0.4734  0.5884
38623SOL    HW127593   8.120   4.053   6.373  1.5551 -1.8574 -2.8209
38623SOL    HW227594   8.095   3.930   6.457  0.1599  0.6445  0.6709
38624SOL     OW27595   8.442  10.118  11.520 -0.0241 -0.6210  0.3981
38624SOL    HW127596   8.518  10.162  11.559  0.3853 -0.8397 -0.1293
38624SOL    HW227597   8.431  10.038  11.571 -0.0830 -0.4435  0.6624
38625SOL     OW27598   3.480   8.540  11.287 -0.2181 -0.9177  0.1585
38625SOL    HW127599   3.387   8.547  11.309 -0.0203 -0.6776  0.9539
38625SOL    HW227600   3.525   8.550  11.371  0.5381 -0.7668 -0.2573
38626SOL     OW27601   0.958   6.654  10.280 -0.0840  0.1529  0.0789
38626SOL    HW127602   1.013   6.603  10.339 -0.3867  0.4642  0.6474
38626SOL    HW227603   1.019   6.709  10.230  0.1411  0.2948  0.5057
38627SOL     OW27604   0.631   7.987   8.316  0.0474 -0.2698 -0.0533
38627SOL    HW127605   0.640   8.044   8.393  0.2411  0.8571 -0.8838
38627SOL    HW227606   0.566   7.922   8.342  1.0110 -0.6768  1.4942
38628SOL     OW27607   3.271  11.478   3.049  0.2525 -0.8410  0.0929
38628SOL    HW127608   3.312  11.528   2.978 -0.7804  1.6909  1.1704
38628SOL    HW227609   3.185  11.455   3.016  0.8172 -2.2024 -0.4949
38629SOL     OW27610   4.153   3.713   7.359  0.2022  0.5767 -0.2430
38629SOL    HW127611   4.179   3.677   7.444  0.0831  1.6775  0.2818
38629SOL    HW227612   4.057   3.719   7.364 -0.4143 -3.8227 -2.3107
38630SOL     OW27613  11.102  10.085   5.676  0.4947 -0.4819 -0.0573
38630SOL    HW127614  11.032  10.023   5.693 -1.4755  1.4851 -0.6164
38630SOL    HW227615  11.142  10.100   5.762 -0.9219 -0.2958  0.5839
38631SOL     OW27616   7.505   9.564   5.225 -0.1188  0.1494 -0.3374
38631SOL    HW127617   7.414   9.533   5.221 -0.1034  0.1438 -0.6645
38631SOL    HW227618   7.524   9.593   5.136  0.3653 -0.3197 -0.3893
38632SOL     OW27619   8.014  10.893   0.485  0.2927 -0.2875 -0.0590
38632SOL    HW127620   8.069  10.830   0.439 -0.2596 -0.7571 -0.0900
38632SOL    HW227621   7.924  10.862   0.471 -0.0034  0.6099 -0.2353
38633SOL     OW27622   6.384  10.453   8.649 -0.5249  0.1341  0.2639
38633SOL    HW127623   6.355  10.371   8.609  1.0167 -1.3812  2.0944
38633SOL    HW227624   6.329  10.462   8.728  0.5555 -0.1387  1.0633
38634SOL     OW27625  10.238   1.121   3.050 -0.7840  0.2593  1.0896
38634SOL    HW127626  10.326   1.158   3.044  0.1296 -1.9342 -0.2113
38634SOL    HW227627  10.197   1.169   3.121  1.7309  0.8275  2.2898
38635SOL     OW27628   8.025   6.944  10.460 -0.6024 -0.1483 -0.4520
38635SOL    HW127629   8.049   6.968  10.549 -2.1241  1.2705 -0.3753
38635SOL    HW227630   7.947   6.890  10.469 -1.1052  0.4718 -0.9142
38636SOL     OW27631   4.403   3.995  11.444 -0.3613 -0.1699 -0.5630
38636SOL    HW127632   4.353   4.074  11.426  1.5528  0.8451 -1.6616
38636SOL    HW227633   4.443   3.971  11.361  1.1787 -0.7889  0.3146
38637SOL     OW27634   9.947   9.585   7.324  0.6368  0.4711  0.5594
38637SOL    HW127635   9.862   9.553   7.354  0.3893 -0.2508 -0.8265
38637SOL    HW227636   9.932   9.609   7.232  1.6895  1.2902  0.5871
38638SOL     OW27637  10.645   7.946   5.942 -0.2503  0.3078  0.0564
38638SOL    HW127638  10.635   7.961   5.847 -1.6486  1.3351  0.3223
38638SOL    HW227639  10.739   7.933   5.954  0.5568  3.9097 -1.0407
38639SOL     OW27640   3.427   7.308   7.511 -0.2691  0.3372  0.6642
38639SOL    HW127641   3.469   7.394   7.505  0.7604 -0.1215  1.1518
38639SOL    HW227642   3.401   7.288   7.421 -1.0710  1.4183  0.6403
38640SOL     OW27643   1.436  10.676   8.641  0.3321 -0.4768  0.4282
38640SOL    HW127644   1.502  10.708   8.579 -0.5987 -0.4391 -0.5838
38640SOL    HW227645   1.464  10.587   8.661 -0.4562 -1.3137 -1.7848
38641SOL     OW27646   4.946   4.670   9.120  0.3404  0.1151  0.1052
38641SOL    HW127647   4.907   4.594   9.164 -1.0938  0.5499 -0.3618
38641SOL    HW227648   5.016   4.633   9.066 -0.6043 -0.9482 -0.4504
38642SOL     OW27649   2.491  10.716   6.530  0.6381  0.3075 -0.3799
38642SOL    HW127650   2.577  10.675   6.544  0.6932  0.1579 -1.1070
38642SOL    HW227651   2.507  10.809   6.543  0.6649  0.1822  0.5887
38643SOL     OW27652  10.660   0.378  11.441 -0.2128 -0.2681  0.2943
38643SOL    HW127653  10.579   0.416  11.475  0.3864  0.2173  1.2067
38643SOL    HW227654  10.633   0.332  11.361 -1.1881  0.9159 -0.0830
38644SOL     OW27655   7.480   9.361   2.210 -0.4650  0.1828  0.1461
38644SOL    HW127656   7.532   9.306   2.151  2.3018  1.9796  0.6725
38644SOL    HW227657   7.439   9.300   2.270  0.6214 -1.4230 -0.6734
38645SOL     OW27658   1.376  11.615   8.403 -0.2675  0.0653 -0.0325
38645SOL    HW127659   1.447  11.680   8.397 -0.3331  0.1739  0.3518
38645SOL    HW227660   1.338  11.613   8.315 -2.0796  2.5833  0.5720
38646SOL     OW27661   1.290   7.881  11.205 -0.3848  0.3727 -0.3063
38646SOL    HW127662   1.279   7.976  11.199 -2.5760  0.1013 -2.0123
38646SOL    HW227663   1.367   7.862  11.152 -0.1067  1.1920 -0.2011
38647SOL     OW27664   1.288   5.294  11.545  0.0364  0.4399  0.0378
38647SOL    HW127665   1.345   5.223  11.515 -0.3400  0.9481 -2.0763
38647SOL    HW227666   1.217   5.250  11.591  0.2667 -0.4880 -0.4644
38648SOL     OW27667   1.970   3.465   9.246 -0.0789 -0.0208  0.2812
38648SOL    HW127668   1.914   3.490   9.173 -1.1298 -3.6120 -0.3408
38648SOL    HW227669   2.021   3.391   9.213 -0.0174 -1.2757  2.9131
38649SOL     OW27670   6.512   5.087   5.970 -0.7840  0.2019 -0.5772
38649SOL    HW127671   6.574   5.142   5.921 -1.3639  1.6367  0.2324
38649SOL    HW227672   6.430   5.094   5.922 -0.8499  0.0001 -0.4946
38650SOL     OW27673  11.610   9.459   1.065 -0.1837  0.1169 -0.2346
38650SOL    HW127674  11.645   9.488   0.981 -1.6919  1.1708 -0.5416
38650SOL    HW227675  11.590   9.541   1.112  0.7931 -0.4417  1.2376
38651SOL     OW27676   4.682   1.103   5.284 -0.5568  0.2084  0.3176
38651SOL    HW127677   4.694   1.040   5.356 -3.2320 -1.7935 -0.8058
38651SOL    HW227678   4.587   1.104   5.270 -0.2333  1.6754 -2.2242
38652SOL     OW27679   7.328   0.765   8.770 -0.2218  0.0347  0.3970
38652SOL    HW127680   7.339   0.822   8.694 -0.8782  0.9864  0.9923
38652SOL    HW227681   7.386   0.691   8.753  0.6207  0.8474 -0.4316
38653SOL     OW27682  10.712  11.236  10.432 -0.2202  0.2272 -0.6186
38653SOL    HW127683  10.664  11.155  10.415 -2.2147  0.7211  2.0604
38653SOL    HW227684  10.675  11.299  10.370 -0.8928 -0.1432 -0.6096
38654SOL     OW27685   2.330   0.407   8.714  0.3401  0.7939 -0.1963
38654SOL    HW127686   2.390   0.343   8.674  0.4002 -0.4462  1.7561
38654SOL    HW227687   2.307   0.369   8.798 -1.3172  2.3967  0.1391
38655SOL     OW27688   7.653  10.122   5.654 -0.2284  0.3736  0.6001
38655SOL    HW127689   7.619  10.114   5.565  1.0255 -0.6350  0.1863
38655SOL    HW227690   7.730  10.178   5.645 -0.0900  0.2623  1.0522
38656SOL     OW27691   0.566   0.732   9.214 -0.6102  0.0674  0.1055
38656SOL    HW127692   0.635   0.722   9.279 -0.9209  1.4515  0.6859
38656SOL    HW227693   0.499   0.784   9.257 -1.3648  0.0022 -0.9374
38657SOL     OW27694   4.588   5.589   2.238  0.0314 -0.1619  0.2620
38657SOL    HW127695   4.660   5.570   2.298  0.0282 -0.3970  0.1912
38657SOL    HW227696   4.519   5.527   2.263  0.3612 -0.8851 -0.5818
38658SOL     OW27697   0.251   6.836   6.546  0.3246 -0.0278  0.1284
38658SOL    HW127698   0.260   6.746   6.515 -2.5548 -0.6006  0.6338
38658SOL    HW227699   0.291   6.835   6.633 -0.2319 -1.0077  0.3923
38659SOL     OW27700   7.722   0.430   5.837 -0.4197  0.2545 -0.1459
38659SOL    HW127701   7.805   0.473   5.855  1.1885 -2.8704  0.6266
38659SOL    HW227702   7.663   0.463   5.905  0.9112  0.7715  0.8061
38660SOL     OW27703   6.788   9.043   0.556 -0.0060 -0.4848  1.0300
38660SOL    HW127704   6.761   9.134   0.567  0.0094 -0.4512  0.7982
38660SOL    HW227705   6.855   9.046   0.488  0.7152 -0.5527  1.7371
38661SOL     OW27706  10.404   1.613   3.735 -0.4583 -0.2854 -0.2502
38661SOL    HW127707  10.391   1.702   3.770 -3.3085 -0.9998  0.8603
38661SOL    HW227708  10.356   1.614   3.652  0.2903 -0.5422 -0.6847
38662SOL     OW27709   8.961   6.808   1.249 -0.4556 -0.1070 -0.3049
38662SOL    HW127710   8.945   6.862   1.172  0.0734 -0.8324 -0.9427
38662SOL    HW227711   8.920   6.724   1.228 -1.5460  0.1280  0.7973
38663SOL     OW27712   5.136  11.260   6.261  0.6513 -0.3738 -1.4546
38663SOL    HW127713   5.217  11.309   6.276  1.4863 -2.1715  0.3374
38663SOL    HW227714   5.159  11.169   6.277 -2.3635 -0.7246  2.7798
38664SOL     OW27715   4.388   4.040   5.307  0.4228 -0.2107 -0.3426
38664SOL    HW127716   4.388   4.121   5.255  0.1968  0.2071  0.2906
38664SOL    HW227717   4.433   4.064   5.387  0.1222 -0.6454 -0.0431
38665SOL     OW27718   4.310   2.654  11.622  0.3099  0.6049 -0.6126
38665SOL    HW127719   4.254   2.669  11.546  0.6674  0.6076 -0.8792
38665SOL    HW227720   4.249   2.638  11.694 -0.0313  0.1625 -0.9931
38666SOL     OW27721   1.961   8.993   3.209  0.1153 -0.1950  0.0226
38666SOL    HW127722   1.937   9.081   3.238  2.9557  0.3635  1.0075
38666SOL    HW227723   1.942   8.937   3.284  1.0992  0.1136  0.5179
38667SOL     OW27724   7.910  11.659   8.909  0.1615 -0.1893  0.1430
38667SOL    HW127725   7.953  11.705   8.837  0.7184  0.5154  0.9066
38667SOL    HW227726   7.980  11.644   8.973 -0.4519 -0.2082  0.8246
38668SOL     OW27727  10.170   1.629   8.523  0.0015 -0.2282 -0.0376
38668SOL    HW127728  10.248   1.596   8.568  0.3652  0.1204 -0.4032
38668SOL    HW227729  10.113   1.553   8.513  0.3851 -0.5252  0.0503
38669SOL     OW27730   7.235   8.410   1.300  0.2626  0.0229  0.0659
38669SOL    HW127731   7.326   8.381   1.300  0.7602  1.3780  2.1220
38669SOL    HW227732   7.240   8.504   1.279 -0.8896 -0.2850 -1.8834
38670SOL     OW27733   8.555   6.068  10.983 -0.0341  0.3227 -0.3153
38670SOL    HW127734   8.617   6.097  10.915  0.0699  2.0758  0.4732
38670SOL    HW227735   8.538   6.147  11.035  0.3884 -1.0677  2.0973
38671SOL     OW27736   3.017  11.861  10.593 -0.4724  0.0947  0.0631
38671SOL    HW127737   3.093  11.913  10.568  0.2231 -0.7359  0.4039
38671SOL    HW227738   3.046  11.810  10.669 -0.9882 -1.0941 -0.5064
38672SOL     OW27739   0.374   5.287   7.830 -0.1659  0.5034  0.4065
38672SOL    HW127740   0.364   5.371   7.874  0.1595  0.6785  0.1466
38672SOL    HW227741   0.468   5.271   7.830 -0.2317  0.0949  0.5363
38673SOL     OW27742   1.737   4.247  10.489 -0.3898 -0.2657 -0.0838
38673SOL    HW127743   1.753   4.321  10.547 -1.0565  0.0019 -0.2352
38673SOL    HW227744   1.730   4.172  10.548  1.0478 -0.3478  0.0122
38674SOL     OW27745   7.022   9.107  10.176 -0.2972 -0.4958 -0.2410
38674SOL    HW127746   7.050   9.163  10.249  1.2042  0.6824 -1.6447
38674SOL    HW227747   7.030   9.018  10.210 -0.6999  0.0514  1.3771
38675SOL     OW27748   8.755   6.975   3.189  0.4099 -0.0174  0.3821
38675SOL    HW127749   8.734   6.912   3.258 -0.3781  0.8160  0.9441
38675SOL    HW227750   8.814   7.038   3.231 -1.8717  1.8168  1.0864
38676SOL     OW27751   2.123   2.474   0.822 -0.4709 -0.1785 -0.1766
38676SOL    HW127752   2.176   2.425   0.884 -1.1632 -0.6287  0.0780
38676SOL    HW227753   2.185   2.530   0.775  0.3318 -1.2769 -0.4521
38677SOL     OW27754   7.621   1.131   9.037 -0.4072 -0.2116 -0.1116
38677SOL    HW127755   7.570   1.050   9.043  1.6818 -1.6280 -0.3463
38677SOL    HW227756   7.640   1.154   9.128  0.8292 -1.2410 -0.0965
38678SOL     OW27757   0.003   7.301  10.699  0.8465  0.3206 -0.0907
38678SOL    HW127758   0.089   7.309  10.740  0.6835 -0.4156  0.4121
38678SOL    HW227759  -0.020   7.209  10.707 -0.2330  0.5990  0.2725
38679SOL     OW27760  11.899   1.825   6.390 -0.3710 -0.2372 -0.1636
38679SOL    HW127761  11.984   1.859   6.418  0.6998 -2.1370 -0.9385
38679SOL    HW227762  11.891   1.740   6.435 -1.7964 -0.1542 -0.2208
38680SOL     OW27763   2.779   0.877   5.501  0.2142  0.2636  0.3347
38680SOL    HW127764   2.754   0.925   5.580 -1.9596 -1.4398  0.7821
38680SOL    HW227765   2.728   0.919   5.431 -0.8915 -0.6811  0.5502
38681SOL     OW27766   5.180   7.914   1.427  0.1919 -0.3447 -0.0413
38681SOL    HW127767   5.184   7.911   1.523 -1.0992  0.1502  0.0452
38681SOL    HW227768   5.154   8.003   1.407  2.6075  0.2107 -0.9879
38682SOL     OW27769   7.294   7.571   8.309  0.0065  0.1898 -0.4422
38682SOL    HW127770   7.369   7.512   8.297 -0.5465 -0.6561  0.1239
38682SOL    HW227771   7.317   7.623   8.386 -0.2729 -0.5781  0.1845
38683SOL     OW27772   9.744   7.386  11.198 -0.7217 -0.0117  0.1613
38683SOL    HW127773   9.782   7.308  11.238 -0.4472 -0.6405 -1.2944
38683SOL    HW227774   9.762   7.456  11.262  1.0399 -0.6894  0.4545
38684SOL     OW27775   2.838   9.448   3.981  0.5891 -0.0411  0.3125
38684SOL    HW127776   2.771   9.490   3.926  0.2387  0.9259  1.4354
38684SOL    HW227777   2.869   9.375   3.928  0.3402  0.9000 -1.2187
38685SOL     OW27778   5.068   6.098   6.062 -0.1335  0.2679  0.1786
38685SOL    HW127779   5.080   6.112   6.156 -0.0152  1.0333  0.0537
38685SOL    HW227780   4.974   6.104   6.048 -0.1992 -0.3328  0.3156
38686SOL     OW27781   2.193   3.716   1.293 -0.2971 -1.1015 -0.4937
38686SOL    HW127782   2.208   3.628   1.328  1.1124 -0.7344 -0.1223
38686SOL    HW227783   2.244   3.774   1.349 -1.2377 -0.0269 -0.7092
38687SOL     OW27784  11.305   4.169   2.514  0.1486  0.3070 -0.4497
38687SOL    HW127785  11.317   4.079   2.482 -4.0145 -1.2531  1.5410
38687SOL    HW227786  11.232   4.203   2.463  0.0793  1.5821  0.4599
38688SOL     OW27787   1.041   0.100   7.530  0.7981 -0.6262  0.5052
38688SOL    HW127788   1.070   0.190   7.549  0.5370 -0.3611 -0.3159
38688SOL    HW227789   0.981   0.110   7.457 -0.0419 -1.3688  1.0805
38689SOL     OW27790  10.249   4.316   3.725 -0.0672  0.2798 -0.1115
38689SOL    HW127791  10.212   4.288   3.641  0.0412  0.0250 -0.0754
38689SOL    HW227792  10.292   4.238   3.759  1.2807  0.7986 -0.5642
38690SOL     OW27793   1.188   6.691   9.702  0.7593  0.2671  0.2141
38690SOL    HW127794   1.223   6.778   9.721 -1.2159  0.9821  0.8077
38690SOL    HW227795   1.204   6.641   9.782 -0.0980  0.7761  0.7171
38691SOL     OW27796   7.035   2.497   2.653 -0.2390 -0.1185  0.5183
38691SOL    HW127797   7.090   2.440   2.708 -0.9004 -1.4563 -0.1555
38691SOL    HW227798   7.048   2.464   2.564 -1.2797  0.2493  0.2192
38692SOL     OW27799   9.906   5.392   2.408 -0.0994  0.1767 -0.2583
38692SOL    HW127800   9.907   5.417   2.316  0.3851 -0.3025 -0.3867
38692SOL    HW227801   9.825   5.341   2.419  0.5863 -1.0692 -0.7826
38693SOL     OW27802   0.863   3.881   0.994 -0.3476  0.1753 -0.7115
38693SOL    HW127803   0.909   3.929   0.925 -1.6678  1.7836 -0.5497
38693SOL    HW227804   0.863   3.790   0.965  0.5577  0.5624 -2.0094
38694SOL     OW27805   3.273  10.472  10.673  0.1001 -0.7015 -0.2664
38694SOL    HW127806   3.337  10.541  10.689 -0.6762 -0.2035  0.8667
38694SOL    HW227807   3.196  10.518  10.639  0.7244 -1.4382 -2.8309
38695SOL     OW27808   7.938  10.661   2.584 -0.6630  0.1016 -0.2212
38695SOL    HW127809   7.946  10.602   2.509  0.7831  2.0753 -1.7323
38695SOL    HW227810   8.024  10.660   2.625 -0.7268  0.8616 -0.0509
38696SOL     OW27811   0.274   0.750   7.629  0.3970 -0.4286 -0.8300
38696SOL    HW127812   0.214   0.677   7.643  0.5717 -0.5087 -0.4940
38696SOL    HW227813   0.316   0.731   7.545  0.4826 -0.7396 -0.7176
38697SOL     OW27814   5.681   4.159   6.985  0.3673 -0.6727  0.4934
38697SOL    HW127815   5.599   4.172   7.033 -0.1346 -0.6655 -0.3425
38697SOL    HW227816   5.745   4.211   7.033 -0.6944  1.5127 -0.3162
38698SOL     OW27817   8.937   6.957   5.826 -0.1529 -0.3026  0.2527
38698SOL    HW127818   8.909   6.886   5.768 -0.2096 -0.9124  1.0189
38698SOL    HW227819   9.023   6.930   5.858  1.3692  1.4987 -1.9817
38699SOL     OW27820   2.701   4.951   3.126  0.2254  0.3648  0.1953
38699SOL    HW127821   2.712   5.040   3.091  2.8638  0.1840  0.3917
38699SOL    HW227822   2.732   4.957   3.216 -0.6678 -0.5312  0.5768
38700SOL     OW27823   0.931   0.179   2.556 -0.3657 -0.4042 -0.1594
38700SOL    HW127824   0.963   0.251   2.610  1.5810 -0.6878 -0.8485
38700SOL    HW227825   0.836   0.192   2.552 -0.0681  2.3097 -0.4968
38701SOL     OW27826   5.140  10.441   3.572  0.0765 -0.2792 -0.2434
38701SOL    HW127827   5.141  10.422   3.665  2.3937  0.3029 -0.0976
38701SOL    HW227828   5.180  10.527   3.564  0.9391 -0.7861 -1.8599
38702SOL     OW27829   5.048   4.874   8.031  0.3798 -0.0924 -0.0922
38702SOL    HW127830   4.957   4.871   8.000  0.5020  1.6727 -0.7214
38702SOL    HW227831   5.100   4.893   7.953  0.9348  2.1180  0.7539
38703SOL     OW27832  10.926   3.733  11.886 -0.6639  0.5305  0.2543
38703SOL    HW127833  10.959   3.687  11.808 -1.3525 -0.3418  0.4519
38703SOL    HW227834  10.969   3.819  11.884  2.3307 -0.8228  1.0310
38704SOL     OW27835   6.354   2.835   7.290 -0.2359  0.8165  0.5757
38704SOL    HW127836   6.371   2.922   7.254 -0.1677  0.4130 -0.4021
38704SOL    HW227837   6.428   2.819   7.349  0.3081  1.0088 -0.0360
38705SOL     OW27838   0.412   7.719   9.037 -0.0177  0.9126  0.0592
38705SOL    HW127839   0.418   7.719   9.132 -2.6787 -3.4788  0.5156
38705SOL    HW227840   0.338   7.776   9.017 -0.1789  0.9417  0.7293
38706SOL     OW27841   9.405   1.947   6.182 -0.2937 -0.1444  0.3550
38706SOL    HW127842   9.496   1.972   6.196 -0.2814 -0.7476  1.4990
38706SOL    HW227843   9.389   1.964   6.089  0.6000  1.1711  0.4135
38707SOL     OW27844   7.919   6.761  11.751 -0.1901  0.3823  0.3561
38707SOL    HW127845   7.905   6.670  11.725  1.2038  0.2322  0.0738
38707SOL    HW227846   7.891   6.812  11.676 -2.8425  0.3389  1.2119
38708SOL     OW27847   5.084   2.092  11.695 -0.6122 -0.1664 -0.0244
38708SOL    HW127848   5.173   2.080  11.730 -1.2565 -0.7001  1.5023
38708SOL    HW227849   5.044   2.006  11.701 -1.4633  0.2204 -0.0540
38709SOL     OW27850   7.929   9.173   3.283 -0.6117  0.2175  0.2159
38709SOL    HW127851   7.955   9.264   3.297 -2.4072  0.7490  0.4153
38709SOL    HW227852   7.999   9.122   3.321  1.0797  1.4728 -1.0487
38710SOL     OW27853   2.532   7.598   7.996  0.1448  0.4997  0.1237
38710SOL    HW127854   2.520   7.516   7.948 -0.2770  0.3427  0.4972
38710SOL    HW227855   2.625   7.600   8.018 -0.3204 -1.2741  2.6125
38711SOL     OW27856   6.681   6.519   7.228 -0.3145  0.2634 -0.1918
38711SOL    HW127857   6.589   6.521   7.254 -0.6632 -2.8473 -0.8252
38711SOL    HW227858   6.680   6.533   7.133 -0.3945 -1.8558 -0.5377
38712SOL     OW27859   6.308   3.386  10.611 -0.1415  0.1306 -0.0900
38712SOL    HW127860   6.393   3.342  10.621  0.4384  0.8832 -1.4506
38712SOL    HW227861   6.320   3.471  10.653 -0.9192 -0.5200  1.5638
38713SOL     OW27862   4.028   7.283   4.552 -0.0049 -0.7262  0.4012
38713SOL    HW127863   4.047   7.359   4.496 -2.0951 -0.6083 -0.2475
38713SOL    HW227864   3.932   7.280   4.556  0.0482 -1.3376  3.1938
38714SOL     OW27865   8.132  11.324   5.842  0.4218 -0.1967  0.2745
38714SOL    HW127866   8.209  11.378   5.865  1.0343 -0.9606  0.0514
38714SOL    HW227867   8.102  11.289   5.926  1.7940 -1.8304  0.1390
38715SOL     OW27868   5.858   3.808  10.571 -0.1886 -0.1761  0.9054
38715SOL    HW127869   5.797   3.756  10.623 -1.1316  1.7199  1.8071
38715SOL    HW227870   5.841   3.898  10.598  3.8121  0.4127  2.0519
38716SOL     OW27871   5.251   4.684   4.573  0.3165  0.1883  0.2169
38716SOL    HW127872   5.201   4.731   4.507  1.2638  4.1196  1.9666
38716SOL    HW227873   5.342   4.687   4.542  0.2528 -1.7960 -0.2596
38717SOL     OW27874   9.213  10.226   1.431  0.2483 -0.3038 -0.1239
38717SOL    HW127875   9.289  10.174   1.457 -1.3453 -1.9364  1.6430
38717SOL    HW227876   9.213  10.301   1.490  0.3182 -0.4750  0.0944
38718SOL     OW27877   3.938   5.544  11.776  0.2189 -0.1345  0.9635
38718SOL    HW127878   3.862   5.487  11.783 -0.0323  0.3447  2.8985
38718SOL    HW227879   4.007   5.498  11.822  1.2256 -0.6831 -1.0094
38719SOL     OW27880   3.493   2.464   2.049 -1.0760  0.3807 -0.7324
38719SOL    HW127881   3.401   2.482   2.031 -1.1634  0.8001  0.0518
38719SOL    HW227882   3.507   2.500   2.137 -0.3681 -0.3837 -0.5184
38720SOL     OW27883   4.254   3.556   0.800  0.2833 -0.0614  0.0833
38720SOL    HW127884   4.308   3.478   0.813 -1.8719 -1.7156 -0.3459
38720SOL    HW227885   4.317   3.625   0.778  2.2122 -1.8218 -0.2259
38721SOL     OW27886   6.983   0.651   9.603 -0.3113  0.3513 -0.0231
38721SOL    HW127887   6.903   0.705   9.601 -0.8231 -0.2471  1.9244
38721SOL    HW227888   6.952   0.563   9.625  0.5923 -0.6644 -2.3987
38722SOL     OW27889   0.041   9.099  11.518 -0.4500 -0.4182 -1.0896
38722SOL    HW127890  -0.055   9.106  11.519 -0.7235 -3.0430  0.9273
38722SOL    HW227891   0.067   9.101  11.610  1.2795 -1.2051 -1.5071
38723SOL     OW27892  11.426   6.118  11.694  0.2128  0.2773  0.2420
38723SOL    HW127893  11.355   6.109  11.631 -1.1342  1.5009  1.4857
38723SOL    HW227894  11.402   6.058  11.765 -0.3759  1.7043  1.3027
38724SOL     OW27895   7.087   0.041  10.860 -0.4356  0.1075  0.0022
38724SOL    HW127896   7.059  -0.045  10.891 -1.7525 -0.4189 -2.3778
38724SOL    HW227897   7.006   0.087  10.837  0.2864  1.6710  0.4234
38725SOL     OW27898   4.928   1.515   9.980  0.3603 -0.3230  0.2979
38725SOL    HW127899   5.014   1.489   9.948  0.5739 -2.6779  2.4285
38725SOL    HW227900   4.930   1.492  10.073 -1.8155  1.6727  0.9289
38726SOL     OW27901   6.589   1.963   3.364 -0.7446 -0.1517 -0.2296
38726SOL    HW127902   6.521   1.902   3.393 -0.1138 -0.8474 -0.1836
38726SOL    HW227903   6.669   1.930   3.404  0.0193 -0.6995 -2.1144
38727SOL     OW27904   0.231   4.664   7.305  0.5024  0.1394  0.1275
38727SOL    HW127905   0.285   4.732   7.265 -1.2954  1.5756 -0.0215
38727SOL    HW227906   0.173   4.711   7.364 -0.8031 -1.2595  0.0304
38728SOL     OW27907   7.666   8.845   3.993  0.1933  0.0369  0.0416
38728SOL    HW127908   7.709   8.762   4.011 -0.8835 -0.0479  2.7646
38728SOL    HW227909   7.623   8.832   3.909 -0.0114 -2.2134  0.4282
38729SOL     OW27910  11.796   3.729   2.258  0.1121  0.3671 -0.4894
38729SOL    HW127911  11.744   3.733   2.178 -1.4989 -1.6465  0.3529
38729SOL    HW227912  11.744   3.777   2.323  0.0331 -0.3629 -0.0029
38730SOL     OW27913   3.740   8.891   2.921  0.7619 -0.3357  0.1122
38730SOL    HW127914   3.728   8.827   2.851 -0.6494 -1.6251  1.4526
38730SOL    HW227915   3.833   8.888   2.941  0.7245 -2.0943  0.1916
38731SOL     OW27916  11.482   5.261   4.108  0.0980 -0.1283 -0.3107
38731SOL    HW127917  11.448   5.320   4.040  0.6823 -0.8592 -1.2635
38731SOL    HW227918  11.554   5.309   4.148 -0.8410  0.6867  0.4625
38732SOL     OW27919   2.054   5.605   9.958 -0.5890 -0.0435 -0.5855
38732SOL    HW127920   1.961   5.611   9.976 -0.6635  0.4515 -1.1146
38732SOL    HW227921   2.083   5.695   9.947  0.1475 -0.1217  0.5047
38733SOL     OW27922   3.137   0.035   1.512  0.6689 -0.1040 -0.4499
38733SOL    HW127923   3.226   0.000   1.511  0.7531 -0.1281  2.1091
38733SOL    HW227924   3.137   0.099   1.583 -1.3621 -0.1029 -0.3903
38734SOL     OW27925   4.983   8.641   8.713  0.2075  0.2596  0.2002
38734SOL    HW127926   5.061   8.687   8.745 -0.0470  0.9816 -0.2117
38734SOL    HW227927   4.975   8.565   8.771  0.0077  1.2971  1.5624
38735SOL     OW27928   4.604   0.422   4.323 -0.2194  0.2374  0.4936
38735SOL    HW127929   4.637   0.418   4.233  0.2559  1.9456  0.5561
38735SOL    HW227930   4.509   0.431   4.313  0.0015  2.8508  0.0183
38736SOL     OW27931   0.441   1.393  11.008 -0.4323  0.0964 -0.1921
38736SOL    HW127932   0.395   1.310  11.021 -2.1247  1.0036 -0.1330
38736SOL    HW227933   0.374   1.460  11.020  0.8672  1.4872 -0.3604
38737SOL     OW27934  11.693   0.227   4.361  0.2160 -0.1598  0.5331
38737SOL    HW127935  11.701   0.317   4.329  0.6063 -1.0227 -2.0579
38737SOL    HW227936  11.605   0.222   4.397  0.3591  1.3567  1.1961
38738SOL     OW27937   0.246   7.786   7.119 -0.4256  0.2055  0.7574
38738SOL    HW127938   0.193   7.855   7.158 -1.0828  0.4790 -0.5428
38738SOL    HW227939   0.317   7.831   7.074  0.1996 -0.0855  1.4413
38739SOL     OW27940   6.451   0.833   5.366  0.5547  0.4284  0.5926
38739SOL    HW127941   6.434   0.766   5.300 -0.8666  1.1890  0.1585
38739SOL    HW227942   6.463   0.785   5.447  0.5662 -0.4059  0.1041
38740SOL     OW27943   5.374   8.959  10.983 -0.0384  0.0062 -0.5197
38740SOL    HW127944   5.297   9.008  10.956 -0.1445 -0.1169 -0.4428
38740SOL    HW227945   5.428   8.954  10.904  0.8155  1.7848 -0.0874
38741SOL     OW27946   0.816   8.344   4.652 -0.4258  0.1367  0.0745
38741SOL    HW127947   0.736   8.309   4.614  0.4518 -0.7362 -1.0005
38741SOL    HW227948   0.841   8.416   4.594  0.9531 -1.2419 -1.0900
38742SOL     OW27949   0.348   8.849   9.695  0.4245 -0.3190 -0.2630
38742SOL    HW127950   0.441   8.842   9.676  0.8934  1.8885  0.9144
38742SOL    HW227951   0.343   8.853   9.791 -1.0012 -1.5149 -0.2462
38743SOL     OW27952   9.427  10.362   0.036 -0.1083 -0.2093 -0.8044
38743SOL    HW127953   9.511  10.336  -0.000  0.1387  0.2613 -0.5769
38743SOL    HW227954   9.443  10.448   0.074 -0.7114 -0.0800 -0.8329
38744SOL     OW27955  11.334   3.564   8.322 -0.0463  0.3146  0.3204
38744SOL    HW127956  11.427   3.547   8.307 -0.0228  1.1003 -0.4600
38744SOL    HW227957  11.332   3.644   8.376 -0.2287 -0.8093  2.0870
38745SOL     OW27958   8.813   5.218   2.730  0.2430  0.4334  0.4141
38745SOL    HW127959   8.873   5.263   2.790  0.2687  0.8000  0.1141
38745SOL    HW227960   8.726   5.249   2.755  0.2475  0.5328  0.3086
38746SOL     OW27961   7.224   1.652   8.243 -0.2422 -0.1962 -0.0969
38746SOL    HW127962   7.200   1.569   8.200  0.4435 -0.8245  0.7188
38746SOL    HW227963   7.312   1.638   8.276  0.2547  1.1975 -0.7536
38747SOL     OW27964   2.678   8.383  10.796 -0.3686 -0.0137  0.2014
38747SOL    HW127965   2.618   8.402  10.725  0.7512 -1.3594 -1.1522
38747SOL    HW227966   2.745   8.451  10.790 -1.0518  0.7597  0.9519
38748SOL     OW27967   5.931  11.219   1.389 -0.6188  0.1754  0.6284
38748SOL    HW127968   5.886  11.152   1.338  0.6510  0.5692 -1.1177
38748SOL    HW227969   5.917  11.300   1.340 -0.2936  0.7957  1.5254
38749SOL     OW27970   9.915  10.424   9.955 -0.1731 -0.2883 -0.2037
38749SOL    HW127971   9.949  10.357   9.896  1.5687 -1.7306  2.2445
38749SOL    HW227972   9.962  10.504   9.930 -0.0471 -0.6760 -1.2409
38750SOL     OW27973   4.065   4.744   2.670  0.7809  0.4656 -0.0525
38750SOL    HW127974   3.996   4.695   2.625  2.2385 -0.4404 -1.4603
38750SOL    HW227975   4.119   4.779   2.599  2.1771  0.5126  0.9907
38751SOL     OW27976   2.724   6.613   4.134 -0.2776  0.3499  0.0410
38751SOL    HW127977   2.793   6.674   4.159 -0.6852  0.3765  1.1376
38751SOL    HW227978   2.646   6.646   4.178 -0.8137 -0.1472 -0.5253
38752SOL     OW27979   9.461   0.743   7.197 -0.4310 -0.6857  0.6480
38752SOL    HW127980   9.372   0.731   7.230 -0.8188 -0.8104 -0.3875
38752SOL    HW227981   9.492   0.822   7.240 -1.5729  0.1597 -0.0342
38753SOL     OW27982  11.012   4.305   8.742  0.2284  0.2961 -0.0869
38753SOL    HW127983  10.929   4.349   8.724  0.2637 -0.2702 -1.8469
38753SOL    HW227984  10.998   4.215   8.714  1.6798  0.3943 -1.3017
38754SOL     OW27985   4.276   2.884   3.985  0.1308  0.7230 -0.3705
38754SOL    HW127986   4.252   2.941   3.912  0.1389  0.1347 -0.8420
38754SOL    HW227987   4.365   2.856   3.965 -0.2528 -0.3224 -0.7244
38755SOL     OW27988   7.480   9.409   3.051  0.3112 -0.3657  0.3578
38755SOL    HW127989   7.519   9.412   3.138  1.9112  0.6733 -0.3532
38755SOL    HW227990   7.522   9.335   3.008  0.8954  0.2405 -0.1319
38756SOL     OW27991   3.696   6.011   8.598  0.1809  0.2361 -0.1516
38756SOL    HW127992   3.687   6.105   8.586  1.4542  0.4002  0.0534
38756SOL    HW227993   3.786   5.992   8.572  0.3997 -0.6985  1.2112
38757SOL     OW27994   5.777   4.038   0.181 -0.1498 -0.1913  0.2051
38757SOL    HW127995   5.786   4.070   0.091  0.5474 -0.2867  0.2380
38757SOL    HW227996   5.709   4.094   0.220 -1.3458 -0.9328 -0.7401
38758SOL     OW27997   1.178   5.600   3.357 -0.3002  0.1826 -0.0924
38758SOL    HW127998   1.150   5.541   3.427  2.3850  1.3132  2.1504
38758SOL    HW227999   1.160   5.687   3.390 -2.3788  0.7817 -2.5124
38759SOL     OW28000   6.714   8.116   8.938  0.1669  0.2087  0.2510
38759SOL    HW128001   6.696   8.026   8.910 -1.4048  0.4838  0.3069
38759SOL    HW228002   6.691   8.170   8.862  1.1960  0.5842  0.1810
38760SOL     OW28003   0.624   3.882  10.734  0.2860 -0.2910  0.6061
38760SOL    HW128004   0.646   3.854  10.822  0.8723  1.6241  1.1348
38760SOL    HW228005   0.564   3.816  10.701  1.0098 -1.6822  1.9799
38761SOL     OW28006  10.889   8.061   9.254  0.7169  0.5246  0.5235
38761SOL    HW128007  10.965   8.033   9.304  0.2419 -0.9862  0.4453
38761SOL    HW228008  10.815   8.014   9.293  0.2981 -0.5791 -1.4185
38762SOL     OW28009   4.388   8.328   2.536 -0.5275 -0.3256 -0.1559
38762SOL    HW128010   4.369   8.267   2.607 -2.4480 -2.7855 -2.5674
38762SOL    HW228011   4.328   8.302   2.466  1.8967  1.3056 -3.0398
38763SOL     OW28012  10.540   4.599   1.708  0.1398 -0.7202 -0.5430
38763SOL    HW128013  10.559   4.541   1.782 -0.0018  0.3233  0.3282
38763SOL    HW228014  10.548   4.542   1.631  1.5133 -1.5440  0.1647
38764SOL     OW28015   2.489   3.188   1.814 -0.7483 -0.4292 -0.4422
38764SOL    HW128016   2.515   3.114   1.868  0.4662  0.1549 -0.1798
38764SOL    HW228017   2.403   3.165   1.781 -0.3986 -1.9526 -0.3665
38765SOL     OW28018   2.971   7.617   3.456 -0.8058  0.1915  0.3061
38765SOL    HW128019   3.022   7.696   3.443 -1.2381  0.5093  0.5087
38765SOL    HW228020   2.990   7.563   3.379 -1.4001  0.9804 -0.4224
38766SOL     OW28021   9.666   2.416   9.266 -0.4120  0.2731 -0.3374
38766SOL    HW128022   9.588   2.458   9.301 -1.3627 -1.2691 -0.5227
38766SOL    HW228023   9.658   2.424   9.171  0.3838  1.3431 -0.3297
38767SOL     OW28024   2.446   4.732   3.718 -0.0821 -0.6227 -0.2919
38767SOL    HW128025   2.371   4.755   3.663  1.7493  2.4565 -1.8050
38767SOL    HW228026   2.509   4.693   3.657  2.0120  2.9136 -0.6753
38768SOL     OW28027  10.250   6.362   9.495 -0.0096 -0.5218  0.0574
38768SOL    HW128028  10.157   6.342   9.491  0.1897 -1.5916  0.4899
38768SOL    HW228029  10.284   6.308   9.566  0.7245  0.7892  0.7504
38769SOL     OW28030   1.571   0.283   0.117  0.1171  0.0617 -0.0800
38769SOL    HW128031   1.502   0.250   0.176  0.1846  2.7132  1.6724
38769SOL    HW228032   1.553   0.377   0.111  0.6995  0.0616 -3.6688
38770SOL     OW28033   9.363   3.061   0.163  0.4219 -0.0156  0.1844
38770SOL    HW128034   9.294   3.110   0.120  0.9454  1.9348  1.4350
38770SOL    HW228035   9.444   3.106   0.138  0.8484  0.3110  1.9697
38771SOL     OW28036   4.481   5.885   4.871  0.3560  0.0290  0.7338
38771SOL    HW128037   4.554   5.893   4.810 -0.6910  0.7717 -0.4753
38771SOL    HW228038   4.447   5.797   4.856  1.4871 -0.6451  1.9133
38772SOL     OW28039   3.865   2.480   6.457  0.1369 -0.2617  0.4439
38772SOL    HW128040   3.788   2.466   6.401  0.3112 -1.5087  0.4833
38772SOL    HW228041   3.831   2.525   6.534 -0.5514 -0.7403  0.4329
38773SOL     OW28042  11.906   6.105  11.492 -0.6446  0.2549  0.0247
38773SOL    HW128043  11.814   6.130  11.501 -1.2802 -0.7938 -2.5672
38773SOL    HW228044  11.904   6.019  11.450  1.5422 -0.2594  0.8080
38774SOL     OW28045   9.312   3.459   0.735 -0.5896 -0.0727 -0.0947
38774SOL    HW128046   9.283   3.544   0.768  0.6298  0.3635 -0.1039
38774SOL    HW228047   9.278   3.455   0.645  2.4458  2.1103 -1.5164
38775SOL     OW28048   3.294   4.703   9.538  0.3531  0.3025  0.2539
38775SOL    HW128049   3.337   4.701   9.624  1.6912 -0.2372 -0.3995
38775SOL    HW228050   3.201   4.714   9.558  0.6572  0.3692  1.7628
38776SOL     OW28051   0.206   0.548   5.010 -0.2226 -0.1361  0.1215
38776SOL    HW128052   0.230   0.459   5.036 -0.4345 -0.0556  0.5973
38776SOL    HW228053   0.110   0.550   5.017 -0.3438 -0.2613 -1.1465
38777SOL     OW28054   0.625   3.025   4.404  0.2562  0.2198  0.2010
38777SOL    HW128055   0.687   3.012   4.476  1.4027  1.3175 -0.5628
38777SOL    HW228056   0.587   2.938   4.390  1.2940 -0.3865  0.9866
38778SOL     OW28057   6.861   8.693   4.021 -0.3491  0.0783 -0.0153
38778SOL    HW128058   6.814   8.762   3.974  1.0913  0.0588 -1.5565
38778SOL    HW228059   6.944   8.734   4.046 -0.0963 -0.6569  0.3876
38779SOL     OW28060   4.113   5.262  11.540 -0.7300  0.2887  0.0238
38779SOL    HW128061   4.034   5.301  11.504 -0.6975  1.1319  0.8133
38779SOL    HW228062   4.083   5.212  11.616 -0.6045 -0.0923 -0.1755
38780SOL     OW28063   1.371   6.163  11.518 -0.1479  0.0588 -0.3159
38780SOL    HW128064   1.408   6.203  11.596  1.3549  0.3159 -1.1212
38780SOL    HW228065   1.420   6.202  11.445 -2.2343  0.6590 -1.4917
38781SOL     OW28066   1.620   4.420   6.080  0.5424  0.5902  0.1490
38781SOL    HW128067   1.678   4.349   6.052  1.1222  0.0491  2.4813
38781SOL    HW228068   1.532   4.383   6.072  0.8400 -0.4779  1.4006
38782SOL     OW28069   8.606   3.098   5.022 -1.1043  0.7460 -0.9731
38782SOL    HW128070   8.624   3.059   5.108 -0.2671  1.4519 -0.8155
38782SOL    HW228071   8.548   3.035   4.979 -0.0987 -0.4867 -0.5832
38783SOL     OW28072  10.087   8.293   5.142 -0.4913 -0.0192  0.4370
38783SOL    HW128073  10.106   8.225   5.077 -1.7294  0.5527 -0.5605
38783SOL    HW228074  10.161   8.353   5.136  0.4989 -1.1147  1.1553
38784SOL     OW28075   4.386   3.453   4.258 -0.0354 -0.5213 -0.0459
38784SOL    HW128076   4.298   3.489   4.255  0.3643  0.4462 -0.6984
38784SOL    HW228077   4.402   3.420   4.169  1.0662  1.3755 -0.6061
38785SOL     OW28078   1.323   6.975   2.298  0.2505 -0.1956  0.0421
38785SOL    HW128079   1.409   6.945   2.330  0.8682  0.1537 -1.2279
38785SOL    HW228080   1.298   6.910   2.232 -0.0528  0.1720 -0.2082
38786SOL     OW28081   7.046   6.132   9.417  0.2415 -0.1302 -0.0745
38786SOL    HW128082   7.056   6.045   9.379  0.5002  0.0481 -0.4135
38786SOL    HW228083   7.076   6.192   9.349  1.1211  0.1684  0.5665
38787SOL     OW28084   9.180   9.979   5.099 -0.5398 -0.6394 -0.6201
38787SOL    HW128085   9.238  10.037   5.050 -1.0634  0.6794  0.2902
38787SOL    HW228086   9.098   9.980   5.050 -0.8338  0.1170 -0.1335
38788SOL     OW28087   7.282   5.432   6.617 -0.2714  0.2131  0.0027
38788SOL    HW128088   7.212   5.430   6.683 -0.9770 -0.6453 -0.7378
38788SOL    HW228089   7.353   5.480   6.659  0.7314 -3.2566  2.8272
38789SOL     OW28090   3.346   6.753   4.900  0.1562 -0.4275  0.0195
38789SOL    HW128091   3.311   6.684   4.844 -0.0313  0.9170 -1.5882
38789SOL    HW228092   3.439   6.756   4.879  0.1687 -0.1917  0.1077
38790SOL     OW28093   4.335  10.865   8.507  0.9656 -0.3809 -0.1554
38790SOL    HW128094   4.321  10.891   8.416  1.0964  0.9719  0.1876
38790SOL    HW228095   4.360  10.773   8.502 -1.7797 -1.1578 -1.2724
38791SOL     OW28096   7.066   0.981   8.852 -0.4950  0.2183  0.3041
38791SOL    HW128097   7.038   0.889   8.850 -0.2743  0.1547  0.1665
38791SOL    HW228098   7.049   1.008   8.942 -1.3077  0.2746  0.1388
38792SOL     OW28099   7.577   3.463  11.849  0.2763 -0.4417 -0.2608
38792SOL    HW128100   7.500   3.408  11.853 -0.8459  1.0496 -0.2901
38792SOL    HW228101   7.569   3.510  11.766  1.3344 -0.4236 -0.3683
38793SOL     OW28102   9.309   0.866   3.239 -0.2395  0.0424 -0.5040
38793SOL    HW128103   9.392   0.830   3.270  0.0760 -0.1153 -1.5080
38793SOL    HW228104   9.292   0.940   3.298 -1.8774 -2.6953  2.8848
38794SOL     OW28105   0.179   9.812   9.281 -0.7227 -0.0021  0.3869
38794SOL    HW128106   0.242   9.788   9.350 -0.2271  3.2773  1.2350
38794SOL    HW228107   0.228   9.799   9.200  0.4258  0.6495  0.9402
38795SOL     OW28108   2.531   3.257   7.367 -0.0164 -0.2140 -0.2799
38795SOL    HW128109   2.608   3.311   7.348  0.4581 -1.2273 -1.3177
38795SOL    HW228110   2.466   3.319   7.401  1.1633  0.6913  0.3794
38796SOL     OW28111   2.089  11.284  10.637 -0.0687  0.6025  0.0244
38796SOL    HW128112   2.117  11.309  10.549  0.2502  0.6860  0.1470
38796SOL    HW228113   2.076  11.190  10.632  0.7918  0.4688  0.1064
38797SOL     OW28114   5.631   2.052   8.506  0.1060 -0.5116  0.3350
38797SOL    HW128115   5.576   2.114   8.554 -0.2499 -1.0885  0.6843
38797SOL    HW228116   5.609   2.067   8.414  0.0320 -0.1137  0.4129
38798SOL     OW28117   7.021   8.582   5.801 -0.0373  0.0746 -0.3531
38798SOL    HW128118   7.086   8.538   5.746  1.5119  2.6725 -0.7175
38798SOL    HW228119   7.065   8.596   5.885 -1.6052 -1.7502  0.8940
38799SOL     OW28120   2.133   6.981   4.346  0.1282 -0.4390  0.0816
38799SOL    HW128121   2.073   6.950   4.414 -0.1646  0.2090  0.1278
38799SOL    HW228122   2.093   6.952   4.264 -0.3914  0.2092  0.0971
38800SOL     OW28123   7.981   2.503   6.373 -0.1674  0.8292 -0.1261
38800SOL    HW128124   8.023   2.430   6.417 -0.0778  0.8252 -0.2181
38800SOL    HW228125   7.902   2.521   6.425 -1.3608 -0.7367 -1.3123
38801SOL     OW28126   2.108   1.982   2.555  0.0956 -0.8921  0.1370
38801SOL    HW128127   2.150   2.044   2.615  1.1669 -1.1930 -0.2819
38801SOL    HW228128   2.055   1.926   2.612  1.4302 -1.4515  0.8688
38802SOL     OW28129   2.345  10.875   5.018  0.6928 -0.2362  0.5184
38802SOL    HW128130   2.271  10.820   4.990  2.2040 -1.6010 -1.0397
38802SOL    HW228131   2.310  10.964   5.020 -0.9787 -0.8381 -0.2286
38803SOL     OW28132  11.915   3.043   6.749 -0.2433  0.0907  0.1605
38803SOL    HW128133  11.972   2.968   6.763 -0.3609  0.0723  0.5674
38803SOL    HW228134  11.848   3.035   6.817 -0.8932 -0.0445 -0.4889
38804SOL     OW28135   0.478   0.934   6.645 -0.0860 -0.2839 -0.5395
38804SOL    HW128136   0.568   0.963   6.633 -0.2236 -0.0708 -1.1061
38804SOL    HW228137   0.483   0.839   6.648  0.3996 -0.2391  1.5542
38805SOL     OW28138   8.430   4.434   2.424 -0.3173 -0.4412 -0.1933
38805SOL    HW128139   8.395   4.346   2.416 -0.8190 -0.1423 -1.4934
38805SOL    HW228140   8.394   4.466   2.507  1.1764 -1.9908  1.1231
38806SOL     OW28141   0.095   3.289   0.716 -0.2662 -0.0398  0.0419
38806SOL    HW128142   0.056   3.287   0.803 -1.1778  0.1859 -0.3555
38806SOL    HW228143   0.177   3.240   0.726 -1.1903 -1.5488  0.6257
38807SOL     OW28144   0.834   0.539   5.428  0.3037 -0.3127  0.1358
38807SOL    HW128145   0.875   0.463   5.387 -1.1267 -0.7308 -0.5733
38807SOL    HW228146   0.863   0.536   5.519 -0.7422 -2.4681  0.4449
38808SOL     OW28147   2.393   8.563   4.496  0.6603 -0.1386  0.4038
38808SOL    HW128148   2.304   8.585   4.467  0.3230  2.6236  3.0948
38808SOL    HW228149   2.399   8.468   4.484 -2.3461 -0.3122 -0.6076
38809SOL     OW28150   6.256   8.648   7.978  0.3010 -0.4805 -0.2161
38809SOL    HW128151   6.298   8.732   7.996 -2.1040  0.4918  1.2681
38809SOL    HW228152   6.243   8.648   7.883  0.4890  0.7549 -0.2623
38810SOL     OW28153   7.541   7.190   8.147  0.0515 -0.2460  0.3237
38810SOL    HW128154   7.461   7.239   8.126 -0.1246 -0.2287  0.9864
38810SOL    HW228155   7.510   7.100   8.162  0.4475 -0.6991 -1.4196
38811SOL     OW28156   7.410   1.955   4.118  0.6692  0.2174  0.3666
38811SOL    HW128157   7.371   1.937   4.204 -0.4760  2.9687  0.5193
38811SOL    HW228158   7.491   2.000   4.138  0.5166  0.6506  0.0219
38812SOL     OW28159   5.470  11.872   2.159 -0.6373 -0.4543 -0.3278
38812SOL    HW128160   5.552  11.874   2.109  1.1088 -0.2023  2.3727
38812SOL    HW228161   5.419  11.801   2.118  1.0419 -0.8397 -1.8776
38813SOL     OW28162   6.664   3.867   6.907  0.1502  0.1231  0.5481
38813SOL    HW128163   6.674   3.948   6.857  0.2402 -1.1661 -1.6475
38813SOL    HW228164   6.588   3.824   6.869  0.0489 -0.7974  1.7342
38814SOL     OW28165   2.351   7.256   8.896 -0.5961  0.0643  0.2189
38814SOL    HW128166   2.375   7.166   8.919 -1.6737 -0.6921 -1.4005
38814SOL    HW228167   2.369   7.262   8.802 -3.2384  0.5477 -0.3506
38815SOL     OW28168   6.573   7.274  11.179  0.3699 -0.0164  0.0647
38815SOL    HW128169   6.575   7.189  11.224  0.0566  0.1069  0.3160
38815SOL    HW228170   6.651   7.319  11.212  0.3690 -0.0863  0.1663
38816SOL     OW28171   9.151   9.294   2.339 -0.1984  0.0052 -0.2059
38816SOL    HW128172   9.193   9.376   2.363  0.3166  0.0993 -1.3582
38816SOL    HW228173   9.173   9.282   2.247 -3.5365  0.5852 -1.2307
38817SOL     OW28174   5.483   8.469   3.161 -0.2396  0.1716  0.7744
38817SOL    HW128175   5.466   8.475   3.067 -2.1273 -2.1069  0.8540
38817SOL    HW228176   5.496   8.375   3.177  0.3738  0.5405  2.7300
38818SOL     OW28177   6.370   9.089   5.286 -0.2350  0.6568 -0.5500
38818SOL    HW128178   6.405   9.153   5.224  1.5011 -0.0871 -0.3876
38818SOL    HW228179   6.359   9.138   5.368  0.9296  0.8005 -0.4679
38819SOL     OW28180   5.527   5.445   5.907  0.5589 -0.2479 -0.0656
38819SOL    HW128181   5.581   5.509   5.953 -1.7023  1.4640  0.3694
38819SOL    HW228182   5.532   5.471   5.815 -1.3354  1.4515  0.2419
38820SOL     OW28183   3.669   1.022   3.156 -0.2554 -0.4997 -0.3030
38820SOL    HW128184   3.595   0.963   3.172  0.6467 -1.2739  1.2141
38820SOL    HW228185   3.654   1.055   3.067 -2.0025 -1.2342 -0.3192
38821SOL     OW28186   9.150   6.564   6.688 -0.1717  0.0662  0.3709
38821SOL    HW128187   9.164   6.659   6.687 -0.4758  0.1206  0.8893
38821SOL    HW228188   9.192   6.533   6.608 -0.9183  0.7551 -0.3155
38822SOL     OW28189   2.796   9.961   8.930  0.0150 -0.4033 -0.3505
38822SOL    HW128190   2.863  10.024   8.906  0.3324 -0.7660 -0.4183
38822SOL    HW228191   2.715  10.012   8.933  0.4913  0.3430  1.0911
38823SOL     OW28192   8.527   2.257   2.880 -0.0346 -0.1330 -0.5213
38823SOL    HW128193   8.513   2.299   2.795 -0.5367  1.7445  0.4344
38823SOL    HW228194   8.438   2.241   2.913  0.1573 -0.9545 -0.3909
38824SOL     OW28195   8.402  11.792   2.068 -0.2956  0.0771  0.5754
38824SOL    HW128196   8.419  11.853   1.997 -2.4668  1.4174  1.0934
38824SOL    HW228197   8.308  11.771   2.061  0.2550 -2.9306  0.6872
38825SOL     OW28198   8.135   8.464   5.737  0.4254 -0.0350  0.3142
38825SOL    HW128199   8.138   8.369   5.750 -0.0808 -0.0115  0.6495
38825SOL    HW228200   8.215   8.496   5.778  1.5978 -0.4973 -1.5294
38826SOL     OW28201   2.796   5.192   9.170  0.4224  0.0035  0.0782
38826SOL    HW128202   2.848   5.147   9.236  0.8367  0.8802  0.3743
38826SOL    HW228203   2.756   5.266   9.217  0.6090  0.5562 -0.6120
38827SOL     OW28204  10.530  10.341   2.953 -0.2091 -0.3910  0.1520
38827SOL    HW128205  10.484  10.401   3.012  0.3496 -0.0612  0.2519
38827SOL    HW228206  10.571  10.398   2.888 -0.1393 -0.7029 -0.0784
38828SOL     OW28207  10.128   5.006   2.784 -0.3224  0.0337  0.3563
38828SOL    HW128208  10.159   4.918   2.760  0.0414 -0.0484  1.1284
38828SOL    HW228209  10.059   5.024   2.720  0.8331 -0.0539 -0.9807
38829SOL     OW28210   1.872   4.704   4.476  0.0152  0.4215  0.0999
38829SOL    HW128211   1.779   4.700   4.455 -0.1206  0.9409  0.5671
38829SOL    HW228212   1.878   4.670   4.565  0.2414  0.6181  0.1620
38830SOL     OW28213   7.181   7.822   5.136 -0.2187  0.1948 -0.3279
38830SOL    HW128214   7.173   7.742   5.085  0.5787 -0.0431 -0.0987
38830SOL    HW228215   7.161   7.796   5.226 -1.5787  0.6036 -0.4946
38831SOL     OW28216   0.271   0.164   4.514 -0.2089 -0.6299 -0.2799
38831SOL    HW128217   0.305   0.254   4.510  0.0228 -0.6689  0.5476
38831SOL    HW228218   0.178   0.173   4.491 -0.2968 -0.1038  0.2392
38832SOL     OW28219   7.829   3.497  11.727 -0.5772  0.4899 -0.0606
38832SOL    HW128220   7.904   3.461  11.774  0.5150  1.4272 -1.0083
38832SOL    HW228221   7.753   3.451  11.763  0.5079 -0.9291  0.5015
38833SOL     OW28222   7.109   0.974   4.898  0.2453 -0.0425  0.0115
38833SOL    HW128223   7.161   0.898   4.874 -0.8886 -0.5409 -0.9066
38833SOL    HW228224   7.029   0.967   4.847 -0.0540  1.5638  0.1938
38834SOL     OW28225   6.403  10.192   4.529 -0.1191  0.4072  0.1048
38834SOL    HW128226   6.358  10.241   4.461  1.2215 -0.1189 -1.2031
38834SOL    HW228227   6.438  10.115   4.485  3.0410  1.3384  0.7213
38835SOL     OW28228   2.228   0.962   9.363  0.1571  0.1339  0.1102
38835SOL    HW128229   2.319   0.941   9.387 -0.0086  0.6531  1.3056
38835SOL    HW228230   2.192   0.879   9.333  1.0958 -0.0281 -0.6204
38836SOL     OW28231   6.781   3.796  10.440 -1.0267 -0.1875  0.2908
38836SOL    HW128232   6.828   3.824  10.519 -0.7487  1.1379 -0.3126
38836SOL    HW228233   6.806   3.860  10.373 -2.5222 -0.3395 -0.4565
38837SOL     OW28234   4.165   6.777  11.682 -0.5315  0.5002  0.6570
38837SOL    HW128235   4.077   6.757  11.714  0.2355 -0.9098  2.0391
38837SOL    HW228236   4.152   6.809  11.593 -2.2582 -2.5464 -0.3263
38838SOL     OW28237   9.409   6.358   1.094 -0.4743  0.6480  0.6519
38838SOL    HW128238   9.503   6.377   1.101 -0.2711 -0.6549  2.0358
38838SOL    HW228239   9.369   6.443   1.077  1.0376  1.0575 -1.1664
38839SOL     OW28240   3.901   2.691   0.035 -0.2322  0.0727 -0.5544
38839SOL    HW128241   3.864   2.730  -0.045 -0.7428 -0.1895 -0.4519
38839SOL    HW228242   3.986   2.657   0.008 -0.4373 -0.0850 -1.0079
38840SOL     OW28243   3.985  11.254   0.898  0.3982  0.4668  0.4343
38840SOL    HW128244   3.897  11.281   0.924  0.8309  1.2087  1.2004
38840SOL    HW228245   4.022  11.332   0.856  0.5151 -0.0072 -0.3699
38841SOL     OW28246   4.116  10.308   3.227 -0.2701  0.1615  0.3688
38841SOL    HW128247   4.194  10.358   3.253  0.1426 -0.0082 -0.5103
38841SOL    HW228248   4.148  10.218   3.216 -0.2015  0.3813 -1.6085
38842SOL     OW28249  10.268   1.865   8.681 -0.2025  0.6123 -0.7064
38842SOL    HW128250  10.244   1.945   8.634  1.8125  0.9915 -1.1819
38842SOL    HW228251  10.191   1.808   8.672 -1.1206  1.9325 -1.6184
38843SOL     OW28252  10.470   4.658   2.141  0.4659  0.2105 -0.1184
38843SOL    HW128253  10.518   4.608   2.074  0.4193 -1.2626  0.9081
38843SOL    HW228254  10.379   4.630   2.131  0.2275  1.0718 -0.3758
38844SOL     OW28255   8.092   3.529  10.744  0.3450 -0.2271  0.2557
38844SOL    HW128256   8.025   3.460  10.749  1.2413 -1.0026  3.7820
38844SOL    HW228257   8.101   3.561  10.833  2.7090  1.8684 -0.6113
38845SOL     OW28258   9.108   1.069   5.997 -0.8191 -0.4475 -0.2817
38845SOL    HW128259   9.097   1.021   6.079  0.2396  2.1332  1.4934
38845SOL    HW228260   9.024   1.061   5.953 -1.9209 -0.7434  1.7436
38846SOL     OW28261   3.447   7.637   5.194  0.0202 -0.0879  0.3258
38846SOL    HW128262   3.358   7.662   5.168  0.5458  0.0540 -1.5443
38846SOL    HW228263   3.488   7.719   5.219 -0.2364 -0.0901  0.7675
38847SOL     OW28264   7.586   2.987  11.692  0.2578 -0.2452 -0.0622
38847SOL    HW128265   7.533   3.060  11.723  0.9851  0.0951  0.4139
38847SOL    HW228266   7.657   3.028  11.643 -0.6233 -0.7562 -1.8525
38848SOL     OW28267   2.205   1.863   6.893 -0.0309  0.6335 -0.7560
38848SOL    HW128268   2.195   1.840   6.986 -2.1358  1.5499 -0.7115
38848SOL    HW228269   2.182   1.784   6.846 -1.5306  0.8793 -0.4980
38849SOL     OW28270   2.877   3.806  11.200  0.2689 -0.4817 -0.2642
38849SOL    HW128271   2.969   3.782  11.195  0.2682 -0.6585  0.4956
38849SOL    HW228272   2.875   3.900  11.181  0.8358 -0.0610  1.5562
38850SOL     OW28273  10.539   2.375  11.277 -0.0834  0.0676 -0.1189
38850SOL    HW128274  10.484   2.397  11.202  0.7097  2.5309 -0.0633
38850SOL    HW228275  10.483   2.392  11.353  0.0198  0.3081 -0.0979
38851SOL     OW28276  10.953   5.891  11.086  0.2623 -0.1697 -0.1720
38851SOL    HW128277  10.953   5.986  11.083  0.9628 -0.1569  0.0618
38851SOL    HW228278  10.876   5.865  11.036 -1.1604  0.5789  1.5097
38852SOL     OW28279   3.890   3.124   2.276 -0.4655 -0.4363 -0.1363
38852SOL    HW128280   3.797   3.132   2.296 -0.3881 -0.8423  0.3957
38852SOL    HW228281   3.894   3.068   2.198 -0.7476  0.8657 -1.1373
38853SOL     OW28282   8.965   7.433  11.136 -0.4602  0.4159  0.2125
38853SOL    HW128283   8.949   7.479  11.218  0.1558 -0.1315  0.6533
38853SOL    HW228284   9.015   7.495  11.083 -0.0784  0.4493  0.6034
38854SOL     OW28285  10.546   8.095   3.874  0.3248 -0.0005 -0.1550
38854SOL    HW128286  10.535   8.146   3.954  0.2308 -0.9429  0.4450
38854SOL    HW228287  10.531   8.158   3.803 -0.9110  0.5510  0.5679
38855SOL     OW28288   4.117   9.026  10.928 -0.3941 -0.2008  0.0134
38855SOL    HW128289   4.182   9.003  10.861 -0.2671 -0.8151  0.3341
38855SOL    HW228290   4.168   9.039  11.008 -0.5857  0.1197  0.0848
38856SOL     OW28291   4.996   3.784   3.156 -0.7549 -0.5332 -0.1721
38856SOL    HW128292   5.092   3.790   3.155 -0.5955 -2.5251 -0.2792
38856SOL    HW228293   4.968   3.866   3.196  0.9764  0.2652 -0.4981
38857SOL     OW28294   8.445   2.709   8.027  0.3110  0.8556 -0.3980
38857SOL    HW128295   8.503   2.652   8.077 -1.2433  0.0130  0.4982
38857SOL    HW228296   8.459   2.683   7.936  1.7526  1.0893 -0.2737
38858SOL     OW28297  10.769   6.601   0.190 -0.3423 -0.1967 -0.0744
38858SOL    HW128298  10.738   6.523   0.235 -1.5391  0.5530  0.4324
38858SOL    HW228299  10.861   6.608   0.215 -0.3231 -1.2121  0.1867
38859SOL     OW28300   2.234   7.387   3.115 -0.7733 -0.4226 -0.5889
38859SOL    HW128301   2.197   7.337   3.042 -2.0199 -1.0244  0.4028
38859SOL    HW228302   2.321   7.413   3.085 -1.3931 -0.3291 -2.4134
38860SOL     OW28303   4.696   5.426   7.023  0.0840  0.8248  0.0735
38860SOL    HW128304   4.718   5.456   6.935 -0.3250  3.1323  0.6930
38860SOL    HW228305   4.653   5.342   7.010  0.5623  0.8438 -1.8733
38861SOL     OW28306   6.571   8.955   3.452  0.3468 -0.1587 -0.0891
38861SOL    HW128307   6.561   8.976   3.359  1.0356  1.4624  0.1660
38861SOL    HW228308   6.595   9.038   3.493  0.3152 -0.8952  1.5068
38862SOL     OW28309   4.358   9.511   5.622  0.4820 -0.0831 -0.1899
38862SOL    HW128310   4.377   9.508   5.716 -3.5524  0.3685  0.8394
38862SOL    HW228311   4.331   9.601   5.605  0.3132 -0.3684 -1.5967
38863SOL     OW28312   8.197   4.850   8.843  0.9043  0.0509  0.2957
38863SOL    HW128313   8.189   4.760   8.811 -0.5988  0.0897  0.5070
38863SOL    HW228314   8.118   4.864   8.895  2.4694  0.5563  2.6933
38864SOL     OW28315   9.436   9.032   4.950 -0.0969  0.7628 -0.4998
38864SOL    HW128316   9.376   9.092   4.905 -3.1433 -1.9478 -0.4110
38864SOL    HW228317   9.423   8.948   4.906 -0.4908 -1.1783  3.0196
38865SOL     OW28318   5.838   9.006   8.580  0.2031  0.1144  0.4856
38865SOL    HW128319   5.902   8.944   8.547 -2.4897 -2.4932 -0.2146
38865SOL    HW228320   5.848   9.083   8.525  1.2872 -1.0588 -1.0143
38866SOL     OW28321   4.805   1.453   3.794 -0.4307 -0.0900  0.0576
38866SOL    HW128322   4.745   1.449   3.720 -0.6766  0.2736  0.2313
38866SOL    HW228323   4.748   1.448   3.871 -0.2344  0.1969  0.2224
38867SOL     OW28324   9.267  10.499   0.420  0.1180  0.1835  0.1558
38867SOL    HW128325   9.255  10.573   0.479  0.8595  0.2615  0.2178
38867SOL    HW228326   9.320  10.533   0.348  1.1412 -0.4772  0.5792
38868SOL     OW28327  11.463   1.091   3.283  0.7295 -0.0007 -0.3544
38868SOL    HW128328  11.506   1.006   3.277 -0.5546 -0.7883  0.9129
38868SOL    HW228329  11.435   1.097   3.375 -1.4146  0.6815 -1.0049
38869SOL     OW28330   3.258   8.688   8.493 -0.7870  0.4448  0.3153
38869SOL    HW128331   3.304   8.616   8.449  0.9318  0.4311  1.9513
38869SOL    HW228332   3.165   8.668   8.481 -0.4041 -0.3213 -1.9399
38870SOL     OW28333   6.754   9.512   6.189 -0.4380 -0.0183 -0.7147
38870SOL    HW128334   6.660   9.528   6.184 -0.5856 -1.0558 -1.6865
38870SOL    HW228335   6.764   9.421   6.163  0.8783  0.1854 -0.9984
38871SOL     OW28336   4.903  10.878   6.372  0.4487  0.1368 -0.2393
38871SOL    HW128337   4.886  10.867   6.278 -0.3251 -0.1828 -0.0624
38871SOL    HW228338   4.984  10.930   6.375 -1.1089  2.8480 -1.1279
38872SOL     OW28339   4.686   2.614   4.077 -0.1644 -0.4623  0.0699
38872SOL    HW128340   4.690   2.632   3.983 -0.3825 -1.7903 -0.2066
38872SOL    HW228341   4.592   2.618   4.098 -0.0590  0.5990  0.4054
38873SOL     OW28342   9.375   1.981   2.694 -0.0714 -0.4146  0.3713
38873SOL    HW128343   9.410   2.009   2.609 -0.4150  0.2426  0.4417
38873SOL    HW228344   9.453   1.965   2.748  0.1996  2.1929  0.9018
38874SOL     OW28345   6.656   4.044   2.446  0.5358  0.0829 -0.1530
38874SOL    HW128346   6.737   3.993   2.445  2.3797  2.8104 -0.5192
38874SOL    HW228347   6.625   4.041   2.356  0.6293 -0.3601 -0.1734
38875SOL     OW28348   4.828   9.628  10.516  0.1561 -0.2822  0.1638
38875SOL    HW128349   4.833   9.722  10.498 -1.0955  0.0826  1.4864
38875SOL    HW228350   4.910   9.593  10.483  1.4184  1.5521  1.1746
38876SOL     OW28351   7.624   1.523   0.652 -0.2971  0.0480  0.6687
38876SOL    HW128352   7.676   1.445   0.675  0.0559 -0.1255 -0.6049
38876SOL    HW228353   7.687   1.595   0.654 -0.1014 -0.0766 -0.3469
38877SOL     OW28354   6.064   5.058   4.580 -0.5187  0.3436  0.2542
38877SOL    HW128355   6.085   5.045   4.488 -0.6067 -3.0358  0.5992
38877SOL    HW228356   6.012   5.138   4.582 -1.6494 -0.2047 -2.8331
38878SOL     OW28357   1.785   7.414  10.002  0.0973 -0.2058 -0.2538
38878SOL    HW128358   1.727   7.374  10.067 -0.6448  0.4925 -0.4747
38878SOL    HW228359   1.827   7.340   9.958 -0.2777 -0.7072  0.2164
38879SOL     OW28360   7.788   6.225   2.270  0.3552  0.2775 -0.2328
38879SOL    HW128361   7.845   6.168   2.323  2.1018  0.8551 -1.3874
38879SOL    HW228362   7.835   6.308   2.264 -0.4978  0.7148 -1.4351
38880SOL     OW28363   9.157   5.665   7.489  0.1853  0.8279 -0.6215
38880SOL    HW128364   9.223   5.730   7.515  0.6928  0.1764 -0.2510
38880SOL    HW228365   9.122   5.632   7.572  1.9523 -1.4117 -0.6519
38881SOL     OW28366  10.217   1.646   3.270  0.4140 -0.5366  0.5513
38881SOL    HW128367  10.144   1.708   3.267 -0.1049 -1.1593 -1.8917
38881SOL    HW228368  10.282   1.683   3.210 -0.0385 -2.4131 -1.2073
38882SOL     OW28369   7.326  11.223  10.594 -0.0996  0.2667 -0.5639
38882SOL    HW128370   7.387  11.161  10.634 -1.1907 -0.4358  0.0594
38882SOL    HW228371   7.242  11.177  10.593 -0.6464  1.2468 -1.3197
38883SOL     OW28372   5.391   9.376   6.950 -0.1014 -0.4737  0.4807
38883SOL    HW128373   5.415   9.468   6.937  1.4650 -0.9420 -0.1826
38883SOL    HW228374   5.457   9.342   7.010 -0.6135 -1.2043  0.6461
38884SOL     OW28375  11.280  11.341   9.847  0.2655  0.4413  0.0370
38884SOL    HW128376  11.368  11.322   9.817  0.1681  0.0107  0.0081
38884SOL    HW228377  11.292  11.395   9.925  0.5604  0.1311  0.2068
38885SOL     OW28378  11.852  10.619   6.302  0.2856 -0.6762 -0.0432
38885SOL    HW128379  11.869  10.547   6.363 -1.2286 -1.8353 -0.9126
38885SOL    HW228380  11.845  10.577   6.216 -0.6063  0.5135 -0.5840
38886SOL     OW28381   0.173   3.556   0.730  0.4399 -0.3200  0.6974
38886SOL    HW128382   0.079   3.535   0.723  0.5879 -0.3822 -3.1212
38886SOL    HW228383   0.216   3.471   0.721  0.8999 -0.0753  0.6007
38887SOL     OW28384   1.048  10.397   3.970 -0.1434  0.6011 -0.6463
38887SOL    HW128385   0.956  10.372   3.981  0.7821 -3.9828 -1.0527
38887SOL    HW228386   1.087  10.383   4.057  0.2601  2.3091 -0.5242
38888SOL     OW28387   1.191   6.504  11.660 -0.8536  0.0762 -0.3624
38888SOL    HW128388   1.186   6.537  11.570  0.2634 -1.7600 -1.1327
38888SOL    HW228389   1.141   6.423  11.659  2.0248 -1.8447 -0.2972
38889SOL     OW28390   6.658  11.177   6.906 -0.8003 -0.5343  0.2772
38889SOL    HW128391   6.587  11.176   6.971  0.1533  0.1350  1.3668
38889SOL    HW228392   6.643  11.098   6.854 -2.4383 -0.3205  0.3653
38890SOL     OW28393   0.947   3.252  10.014  0.3167 -1.0441 -0.3421
38890SOL    HW128394   0.911   3.340  10.023  0.0732 -1.0759 -0.9654
38890SOL    HW228395   0.880   3.195  10.050  0.7479 -0.9343  0.6613
38891SOL     OW28396   9.218   3.523   2.105  0.2277 -0.2724  0.7418
38891SOL    HW128397   9.238   3.589   2.172 -1.4314 -0.1415  1.1701
38891SOL    HW228398   9.130   3.491   2.129 -0.7120  0.2527 -1.7406
38892SOL     OW28399   7.771   9.678   1.590 -0.0545 -0.0235 -0.2103
38892SOL    HW128400   7.767   9.609   1.523 -0.1100  0.7612 -1.0377
38892SOL    HW228401   7.689   9.670   1.638 -0.1469 -0.4130 -0.4304
38893SOL     OW28402   2.198   2.941   5.128  0.0779  0.1609 -0.0292
38893SOL    HW128403   2.166   3.030   5.142  1.2704  0.8931 -1.6447
38893SOL    HW228404   2.188   2.898   5.213 -2.4588  1.1739  0.2814
38894SOL     OW28405   6.179  10.024   0.479 -0.9483  0.3154 -0.1798
38894SOL    HW128406   6.221  10.022   0.393 -0.2440  0.9013  0.1359
38894SOL    HW228407   6.249  10.052   0.539 -0.9017 -1.9285  0.9043
38895SOL     OW28408  11.323   3.750  10.784 -1.1705  0.6118  0.3661
38895SOL    HW128409  11.354   3.745  10.694  0.9659 -0.0845  1.0967
38895SOL    HW228410  11.287   3.664  10.802 -0.6936  0.4349  0.4804
38896SOL     OW28411   0.660   5.746   8.631  0.2287  0.2861 -0.1088
38896SOL    HW128412   0.613   5.720   8.551  0.7747 -1.7241  0.1657
38896SOL    HW228413   0.729   5.681   8.639 -0.7090 -0.4813  2.8044
38897SOL     OW28414   0.876   2.838   7.250  0.5903 -0.4833 -0.5348
38897SOL    HW128415   0.786   2.830   7.219  0.3493 -1.9384  0.4257
38897SOL    HW228416   0.891   2.932   7.254 -1.6679 -0.0873  1.3336
38898SOL     OW28417   3.922   1.183  11.676 -0.3091  0.0665 -0.1244
38898SOL    HW128418   4.013   1.213  11.684 -0.7877  1.1944  1.6881
38898SOL    HW228419   3.902   1.193  11.583  1.1345  0.7422 -0.3911
38899SOL     OW28420   1.194   6.468   9.933  0.6187 -0.0300  0.1505
38899SOL    HW128421   1.124   6.429   9.986 -1.4289  1.4911 -1.2772
38899SOL    HW228422   1.209   6.404   9.864 -0.3862  0.2321 -0.3267
38900SOL     OW28423   8.529   7.435   2.783 -0.1264 -0.4025 -0.1426
38900SOL    HW128424   8.498   7.399   2.700  0.9315  0.1690 -0.8207
38900SOL    HW228425   8.501   7.526   2.782  1.9724  0.2994 -1.0529
38901SOL     OW28426   9.177  10.672   6.135  0.6869  0.1145 -0.0452
38901SOL    HW128427   9.146  10.681   6.226 -0.1797  0.3909 -0.3513
38901SOL    HW228428   9.098  10.683   6.082  1.1868 -0.0330 -0.8389
38902SOL     OW28429   5.534   4.577   0.155  0.0043  0.1618 -0.4461
38902SOL    HW128430   5.581   4.563   0.073  0.5914 -0.2178 -0.0575
38902SOL    HW228431   5.581   4.649   0.198  0.4289 -0.4236  0.0839
38903SOL     OW28432   2.785   2.768   3.541  0.7520 -0.0288 -0.0364
38903SOL    HW128433   2.720   2.745   3.608  1.2564  0.1933  0.5353
38903SOL    HW228434   2.863   2.793   3.590  0.6381  1.6734 -0.6613
38904SOL     OW28435   2.420   7.529   6.858 -0.4359  0.1285  0.1147
38904SOL    HW128436   2.408   7.465   6.788 -1.6475  0.0976  0.3201
38904SOL    HW228437   2.477   7.596   6.821 -0.5857 -0.1867 -0.7053
38905SOL     OW28438   6.689   0.780  11.763  0.2784  0.2006 -0.1578
38905SOL    HW128439   6.748   0.723  11.812  0.0624  0.7481  0.7571
38905SOL    HW228440   6.619   0.800  11.824 -2.7218 -3.0841 -2.1662
38906SOL     OW28441   4.579   7.259   1.935  0.2568 -0.5928  0.8172
38906SOL    HW128442   4.591   7.334   1.877  2.8798 -0.9673  0.7605
38906SOL    HW228443   4.591   7.294   2.023 -1.4992 -0.4443  1.0339
38907SOL     OW28444   6.684   4.977   0.755  0.2223  0.1266 -0.6817
38907SOL    HW128445   6.769   4.969   0.712  0.0119 -0.7018 -0.9630
38907SOL    HW228446   6.620   4.959   0.685 -0.1718  0.3786 -0.3909
38908SOL     OW28447   0.510   6.385   8.559  0.2100 -0.1806  0.3085
38908SOL    HW128448   0.418   6.359   8.562  0.3642 -0.6650  2.5928
38908SOL    HW228449   0.508   6.481   8.551 -0.5102 -0.1386  0.9366
38909SOL     OW28450   2.025  11.374   9.362 -0.1284 -0.6098  0.0660
38909SOL    HW128451   2.108  11.362   9.408 -0.1820  1.1623  0.7041
38909SOL    HW228452   1.971  11.426   9.421 -1.5221 -1.2780 -0.5627
38910SOL     OW28453  10.924   3.400   5.071  0.5736 -0.1588 -0.3482
38910SOL    HW128454  10.980   3.469   5.036 -0.1385  0.7663  0.2665
38910SOL    HW228455  10.935   3.406   5.166 -1.3066  0.7439 -0.1435
38911SOL     OW28456   7.859   2.264  10.498  0.0874 -0.0915 -0.2943
38911SOL    HW128457   7.811   2.299  10.423 -1.5699 -1.5525  0.0130
38911SOL    HW228458   7.792   2.221  10.552  1.5795 -1.1744  0.7921
38912SOL     OW28459  10.648   2.696   6.543  0.3680 -0.1127  0.2653
38912SOL    HW128460  10.678   2.688   6.633 -1.2925 -1.8303  0.7441
38912SOL    HW228461  10.728   2.696   6.491  1.3244  0.0009  1.6806
38913SOL     OW28462   0.758  11.185  11.606 -0.0723  0.1699  0.2433
38913SOL    HW128463   0.739  11.230  11.524 -0.7931 -1.8297 -0.7578
38913SOL    HW228464   0.733  11.248  11.674 -0.2335  1.5655 -1.0603
38914SOL     OW28465   2.598   9.903   7.496  0.5933  0.1468 -0.2756
38914SOL    HW128466   2.504   9.921   7.485  0.2318 -0.7954  1.0941
38914SOL    HW228467   2.603   9.808   7.503  1.6383  0.2126 -0.0402
38915SOL     OW28468   6.738   4.829  11.096  0.2343 -0.2428 -0.1198
38915SOL    HW128469   6.737   4.864  11.007  1.0033 -0.0827 -0.0729
38915SOL    HW228470   6.824   4.787  11.104 -0.2596 -1.2180  0.1823
38916SOL     OW28471   7.257   2.974   3.533 -0.5180 -0.6316  0.1972
38916SOL    HW128472   7.279   2.881   3.534  1.2892 -0.2542  0.8009
38916SOL    HW228473   7.335   3.017   3.497 -0.6125  0.7789  1.5448
38917SOL     OW28474   9.961   2.775   7.678 -0.1796  0.0535  0.1233
38917SOL    HW128475   9.873   2.773   7.639 -0.5442  1.6594  0.8060
38917SOL    HW228476  10.020   2.790   7.604 -0.6214  0.4934 -0.1419
38918SOL     OW28477   0.223   6.651  10.061 -0.9818 -0.2065  0.0753
38918SOL    HW128478   0.219   6.614   9.973  2.9807 -2.4564  0.6026
38918SOL    HW228479   0.166   6.595  10.114  0.5234 -2.1358 -0.2322
38919SOL     OW28480   1.315   1.650   4.613 -0.2862 -0.2970  0.3483
38919SOL    HW128481   1.346   1.705   4.685 -0.5303 -0.0913  0.2974
38919SOL    HW228482   1.219   1.658   4.616 -0.3058 -0.4260  0.1113
38920SOL     OW28483   3.800   9.732   3.479 -0.1150  0.5139  0.2402
38920SOL    HW128484   3.754   9.666   3.428  1.1541  0.1826 -0.5086
38920SOL    HW228485   3.803   9.697   3.568 -0.4379  0.0896  0.0827
38921SOL     OW28486  11.238   7.648   6.799  0.3390  0.3676  0.2781
38921SOL    HW128487  11.187   7.716   6.844 -0.3367 -0.3881  0.6751
38921SOL    HW228488  11.181   7.616   6.730  0.3496 -0.3363  0.5842
38922SOL     OW28489   6.408   4.619   1.052  0.5795  0.1208  0.3478
38922SOL    HW128490   6.447   4.706   1.044  1.8201 -0.4246  0.0092
38922SOL    HW228491   6.428   4.591   1.141  2.7832 -0.9112 -0.3668
38923SOL     OW28492   8.733   2.382   3.018  0.4468  0.1841  0.1907
38923SOL    HW128493   8.658   2.336   2.979 -0.7791  1.7564  0.5591
38923SOL    HW228494   8.740   2.347   3.107  0.3705 -0.2102  0.0436
38924SOL     OW28495  11.519   3.543   1.738  0.2958 -0.1327  0.1168
38924SOL    HW128496  11.501   3.618   1.682  0.3758 -0.1929  0.0096
38924SOL    HW228497  11.536   3.471   1.677  0.0516 -0.2795  0.2197
38925SOL     OW28498   6.576   1.744   6.374 -0.3370 -0.4350 -0.6483
38925SOL    HW128499   6.582   1.654   6.343  0.2425 -1.3832  1.9088
38925SOL    HW228500   6.538   1.793   6.301  1.5709 -2.2336 -3.0128
38926SOL     OW28501   8.397   8.462   0.023  0.1462 -0.5191  0.0561
38926SOL    HW128502   8.491   8.442   0.031  0.0634 -0.6675  0.7507
38926SOL    HW228503   8.389   8.504  -0.062  0.6898 -1.4044 -0.4460
38927SOL     OW28504   4.356   1.507   8.632 -0.6343 -0.7712  0.2440
38927SOL    HW128505   4.446   1.521   8.601 -0.0448  2.1635  2.7771
38927SOL    HW228506   4.365   1.446   8.704 -0.2216  1.1281  1.8997
38928SOL     OW28507   2.092  10.851   3.715 -0.7650  0.2721  0.1517
38928SOL    HW128508   2.140  10.811   3.642  0.4294  0.0533  1.0254
38928SOL    HW228509   2.000  10.837   3.694 -0.4125 -1.0413 -0.6227
38929SOL     OW28510   0.843   1.381   3.442  0.2402 -0.1334 -0.3751
38929SOL    HW128511   0.777   1.345   3.502  1.0210  0.5743  0.9480
38929SOL    HW228512   0.921   1.329   3.458  0.2456 -0.4535 -1.3737
38930SOL     OW28513   9.916   1.285   3.207 -0.0746  0.2428 -0.3977
38930SOL    HW128514   9.991   1.327   3.166 -0.0287 -0.4922 -1.1034
38930SOL    HW228515   9.914   1.319   3.296  1.9653 -0.8041  0.0978
38931SOL     OW28516   3.570   0.488   3.795 -0.3877 -0.4308 -0.1050
38931SOL    HW128517   3.628   0.557   3.827  0.3729 -1.0377 -0.1338
38931SOL    HW228518   3.627   0.411   3.786 -1.2586 -1.1216  0.1214
38932SOL     OW28519   9.953   0.746  10.046  0.4254  0.3580 -0.3023
38932SOL    HW128520   9.994   0.743  10.132  0.9407  0.2168 -0.5509
38932SOL    HW228521   9.861   0.764  10.064  0.6737  1.1423  0.2353
38933SOL     OW28522  10.575   2.338   3.704 -0.0397  0.2748 -0.4111
38933SOL    HW128523  10.632   2.349   3.628  0.6306 -0.3118  0.0004
38933SOL    HW228524  10.486   2.337   3.667  0.1531  1.8396 -0.9829
38934SOL     OW28525   8.353   4.299   3.753 -0.1242 -0.3592  0.4673
38934SOL    HW128526   8.332   4.207   3.768 -2.6032  0.0102 -0.3257
38934SOL    HW228527   8.312   4.320   3.669  0.9246  1.3350  0.3233
38935SOL     OW28528   5.354  10.089   5.550  0.0597  0.2591  0.1196
38935SOL    HW128529   5.351  10.007   5.500 -0.8185 -0.0607  0.6552
38935SOL    HW228530   5.361  10.060   5.641  1.6183  0.8302  0.2119
38936SOL     OW28531   7.741   2.317  10.226  0.2893  0.0644 -0.2962
38936SOL    HW128532   7.650   2.297  10.250 -0.0647  1.9050  0.0844
38936SOL    HW228533   7.737   2.340  10.133 -0.4818  4.0290  0.5136
38937SOL     OW28534   7.282   5.965   5.254 -0.3499 -0.1717  0.1574
38937SOL    HW128535   7.224   6.024   5.301  0.2146  1.4234 -1.0485
38937SOL    HW228536   7.223   5.910   5.201 -0.8060  0.8056 -0.3663
38938SOL     OW28537   1.650   8.639   6.711 -0.5832  0.5217  0.5315
38938SOL    HW128538   1.692   8.564   6.753 -1.4024  0.5845  1.5008
38938SOL    HW228539   1.619   8.693   6.784 -0.4531  1.5463 -0.1566
38939SOL     OW28540   7.592   8.384   8.222 -0.3421 -0.4325  0.3849
38939SOL    HW128541   7.534   8.419   8.154  0.7079  1.1192  0.2345
38939SOL    HW228542   7.558   8.422   8.303 -0.8899 -1.3616  0.6128
38940SOL     OW28543   7.612  11.494  10.680  0.5749 -0.2221  0.1632
38940SOL    HW128544   7.651  11.413  10.714  1.4742  0.4545  0.8222
38940SOL    HW228545   7.565  11.531  10.755 -0.0741 -0.2696 -0.2120
38941SOL     OW28546  11.066   0.308  11.096  0.1470 -0.0223  0.1067
38941SOL    HW128547  11.063   0.404  11.095  1.5255  0.0707 -2.1505
38941SOL    HW228548  11.062   0.285  11.189  0.5690  2.2351  0.7530
38942SOL     OW28549   2.784  11.414   7.769  0.4346  0.6083 -0.0237
38942SOL    HW128550   2.867  11.374   7.791 -0.4816 -1.8096 -0.6502
38942SOL    HW228551   2.720  11.344   7.779 -1.4628  2.2394 -0.0934
38943SOL     OW28552   8.480   4.927   3.848  0.0752 -0.0128 -0.2961
38943SOL    HW128553   8.491   5.021   3.839  1.5120  0.1558  2.2971
38943SOL    HW228554   8.491   4.910   3.941 -0.9931 -2.6768 -0.5574
38944SOL     OW28555   4.654   2.999   0.794  0.2809 -0.2082  0.3918
38944SOL    HW128556   4.725   3.060   0.811  0.1463 -0.3633  1.5525
38944SOL    HW228557   4.672   2.965   0.706  1.3719  0.1019  0.4890
38945SOL     OW28558   2.519  10.108  11.398  0.2560 -0.0700 -0.2378
38945SOL    HW128559   2.480  10.056  11.469  2.6087 -1.7411 -0.0476
38945SOL    HW228560   2.539  10.043  11.330  1.1346  0.9681 -1.0011
38946SOL     OW28561  10.820   8.556   2.876 -0.0066 -0.1205 -0.5068
38946SOL    HW128562  10.909   8.535   2.848 -0.6489 -1.4394 -1.7164
38946SOL    HW228563  10.831   8.611   2.953  1.8653 -2.2566  0.8649
38947SOL     OW28564   3.291  11.664   1.558 -0.1276 -0.0780 -0.3442
38947SOL    HW128565   3.364  11.726   1.555  1.6627 -1.6602  3.7334
38947SOL    HW228566   3.232  11.700   1.624 -0.2526 -1.4931  0.3394
38948SOL     OW28567   2.168   0.064   7.554 -0.3188  0.2946  0.2355
38948SOL    HW128568   2.150  -0.019   7.512 -1.9887  0.1956  1.0372
38948SOL    HW228569   2.082   0.106   7.561  0.3369  1.6016  0.8209
38949SOL     OW28570   6.349   4.081   2.486  0.2993 -0.3875  0.7084
38949SOL    HW128571   6.318   3.992   2.467  0.8416 -0.2919 -0.7854
38949SOL    HW228572   6.438   4.084   2.450  0.3562  0.7043  0.8908
38950SOL     OW28573   9.246   4.036   0.086  0.0275 -0.1171  0.4422
38950SOL    HW128574   9.327   4.032   0.136  0.2673 -1.3731 -0.0027
38950SOL    HW228575   9.187   4.089   0.139  1.3287  1.3270  0.4784
38951SOL     OW28576   0.412   6.940   8.199 -0.3816  0.2213  0.2221
38951SOL    HW128577   0.405   6.929   8.294 -1.3170  1.0383  0.2665
38951SOL    HW228578   0.488   6.996   8.187 -1.0953  1.3175  0.6126
38952SOL     OW28579  11.686   3.216  11.107  0.5307 -0.2740 -0.4582
38952SOL    HW128580  11.645   3.232  11.192  0.7129 -1.0772 -0.2102
38952SOL    HW228581  11.642   3.277  11.047  0.1204  0.0148  0.1281
38953SOL     OW28582   6.663   7.492   7.330  0.3796  0.0863 -0.3769
38953SOL    HW128583   6.665   7.447   7.415  0.7162 -0.2094 -0.5421
38953SOL    HW228584   6.691   7.582   7.350  2.6687 -0.5445 -0.5203
38954SOL     OW28585  11.651   1.896   7.020  0.5219  0.5915 -0.2821
38954SOL    HW128586  11.566   1.853   7.014  0.8845 -0.1282 -0.3479
38954SOL    HW228587  11.636   1.969   7.080 -0.5372  1.4866 -1.5700
38955SOL     OW28588   7.681   2.555   9.112  0.1446  0.1537 -0.1348
38955SOL    HW128589   7.618   2.538   9.042  0.5528 -1.1974 -0.2057
38955SOL    HW228590   7.742   2.619   9.075 -0.1051  0.0608 -0.7158
38956SOL     OW28591   6.714   6.353   2.508  0.8495  0.0227 -0.4416
38956SOL    HW128592   6.674   6.300   2.577  1.5515 -0.5418 -0.4631
38956SOL    HW228593   6.686   6.443   2.528  0.7107 -0.1858  0.3394
38957SOL     OW28594   0.084   4.358   2.363 -0.4730 -0.2413 -0.5345
38957SOL    HW128595   0.114   4.317   2.444  0.8215  2.4750  0.4963
38957SOL    HW228596   0.007   4.409   2.389  0.9069  1.9739 -0.5253
38958SOL     OW28597   0.571   9.142   1.806  0.1094  0.1041 -0.2294
38958SOL    HW128598   0.645   9.088   1.832  0.4029 -0.4551 -2.0458
38958SOL    HW228599   0.523   9.089   1.742 -1.0711  1.0028 -0.1463
38959SOL     OW28600   5.628   9.211   3.918 -0.1437 -0.2409  0.0235
38959SOL    HW128601   5.686   9.273   3.873 -0.9891 -1.0404 -2.3432
38959SOL    HW228602   5.646   9.127   3.877  0.3087 -1.4540  2.5302
38960SOL     OW28603   9.849   1.419   8.345  0.3362  0.1228  0.4376
38960SOL    HW128604   9.859   1.496   8.289 -0.8859  0.4956  0.6885
38960SOL    HW228605   9.853   1.344   8.285  3.3751  0.2217  0.4092
38961SOL     OW28606   3.229   1.288   3.757  0.1570  0.0498 -0.1623
38961SOL    HW128607   3.158   1.226   3.744 -0.0185  0.4318 -1.1554
38961SOL    HW228608   3.204   1.364   3.703  1.2885  0.2047 -0.4911
38962SOL     OW28609   6.579   3.059   1.359 -0.0515 -0.2277 -0.6402
38962SOL    HW128610   6.565   3.142   1.313 -1.5966 -1.1465 -1.9657
38962SOL    HW228611   6.490   3.024   1.372  0.3058 -0.1125  3.0181
38963SOL     OW28612   3.723   5.653   3.758  0.1145 -0.0625 -0.6946
38963SOL    HW128613   3.813   5.621   3.749 -0.8583 -2.9314 -1.1206
38963SOL    HW228614   3.701   5.638   3.850 -0.3872 -0.7433 -0.9188
38964SOL     OW28615   4.310   6.018  11.527 -0.2442 -0.2257 -0.0332
38964SOL    HW128616   4.302   6.043  11.435  0.8386 -0.4038 -0.1857
38964SOL    HW228617   4.314   6.101  11.574  0.9901 -0.1006 -0.3248
38965SOL     OW28618   2.298   5.845   4.344 -0.0927 -0.3981  0.0165
38965SOL    HW128619   2.304   5.778   4.276 -2.0854 -1.1657  0.5165
38965SOL    HW228620   2.286   5.927   4.295  1.9290 -0.4076 -0.5888
38966SOL     OW28621   0.684   8.209   6.789  0.0689 -0.0179 -0.0884
38966SOL    HW128622   0.639   8.166   6.716  1.1349 -1.1176 -0.1342
38966SOL    HW228623   0.766   8.240   6.752 -0.8199  2.4521 -0.1382
38967SOL     OW28624   3.142   3.498   1.106 -0.0724 -0.2799  0.0208
38967SOL    HW128625   3.220   3.475   1.056 -1.4751 -1.4698 -1.7764
38967SOL    HW228626   3.132   3.426   1.168  0.5919  0.2085  0.7119
38968SOL     OW28627   0.488   2.641  10.850  0.1216 -0.9194  0.1440
38968SOL    HW128628   0.457   2.708  10.790 -0.0126 -0.6306  0.5341
38968SOL    HW228629   0.453   2.559  10.815 -1.7306 -0.5264  0.9829
38969SOL     OW28630   0.169   8.339   7.551 -0.6139  0.1664  0.4774
38969SOL    HW128631   0.232   8.392   7.601 -0.4179  0.1983  0.2042
38969SOL    HW228632   0.100   8.401   7.528 -0.3989  0.3026  0.1831
38970SOL     OW28633   9.363   2.250   3.102 -0.3173 -0.2921  0.1774
38970SOL    HW128634   9.284   2.235   3.154 -0.3171  3.0827  1.4248
38970SOL    HW228635   9.432   2.261   3.167  0.4170  0.3570 -0.6909
38971SOL     OW28636  10.681   8.639   2.144  0.3605 -0.1242  0.1382
38971SOL    HW128637  10.710   8.548   2.134 -0.6319 -0.3585 -0.7187
38971SOL    HW228638  10.706   8.662   2.234  0.7510 -1.1944  0.3212
38972SOL     OW28639   3.641   1.157  10.562 -0.7094  0.3906  0.0131
38972SOL    HW128640   3.728   1.126  10.587  0.0701  0.7543 -1.9960
38972SOL    HW228641   3.646   1.252  10.573 -1.2448  0.3163  0.9586
38973SOL     OW28642   9.743   1.381  11.179 -0.0475 -0.6858 -0.1582
38973SOL    HW128643   9.762   1.469  11.146  0.4065 -0.9964 -0.7321
38973SOL    HW228644   9.817   1.360  11.236 -0.0414 -0.7967 -0.2080
38974SOL     OW28645   4.337   0.141   0.937  0.5740  0.1542 -0.0929
38974SOL    HW128646   4.274   0.120   0.867  0.3398 -0.5812  0.3212
38974SOL    HW228647   4.293   0.206   0.990  0.8943  0.9848 -0.8233
38975SOL     OW28648   8.901   9.606   0.516  0.3118  0.0181  0.1677
38975SOL    HW128649   8.821   9.567   0.479 -1.2539  2.0057  1.2971
38975SOL    HW228650   8.967   9.591   0.449 -1.2427 -0.7597 -1.2808
38976SOL     OW28651   3.678   9.300   0.098  0.3128  0.3225 -0.1092
38976SOL    HW128652   3.653   9.250   0.020  0.4838 -1.0175  0.6678
38976SOL    HW228653   3.612   9.369   0.104 -1.8998 -1.6885  0.5381
38977SOL     OW28654  10.912   3.944   2.882 -0.3895  0.4249 -0.1149
38977SOL    HW128655  10.954   3.946   2.968 -0.4011 -0.0022 -0.0954
38977SOL    HW228656  10.919   3.852   2.854 -0.3539  0.5685 -0.5846
38978SOL     OW28657   6.844   4.327   4.897  0.1155  0.1774  0.6834
38978SOL    HW128658   6.922   4.311   4.950  0.9651 -0.3942 -0.6941
38978SOL    HW228659   6.868   4.297   4.809 -2.0380 -1.0348  0.4629
38979SOL     OW28660   1.419   5.321   2.290 -0.8762  0.1090 -0.3007
38979SOL    HW128661   1.477   5.301   2.217 -0.5866 -4.2996  0.8125
38979SOL    HW228662   1.331   5.302   2.257 -0.9715  0.2900 -0.1522
38980SOL     OW28663   1.253   9.959   1.686 -0.3929  0.0427 -0.2130
38980SOL    HW128664   1.197   9.996   1.617 -2.8534 -1.5583  0.7940
38980SOL    HW228665   1.227  10.006   1.765 -0.5350 -0.8993  0.3161
38981SOL     OW28666  11.854   0.526   3.317  0.4092  0.0625  0.3988
38981SOL    HW128667  11.764   0.498   3.333  0.8718 -1.0817  1.1633
38981SOL    HW228668  11.845   0.607   3.268 -1.0356 -0.2551  0.0673
38982SOL     OW28669  11.742   9.012   1.202  0.4380  0.1713  0.1397
38982SOL    HW128670  11.777   8.932   1.164  0.9449 -0.6427  2.2135
38982SOL    HW228671  11.711   9.063   1.126 -0.8019 -2.3600 -1.1740
38983SOL     OW28672   3.651   6.074   0.746  0.3458  0.1253 -0.0917
38983SOL    HW128673   3.708   6.024   0.805 -0.8704  0.7524  1.6888
38983SOL    HW228674   3.584   6.012   0.718  1.0545 -0.2347 -1.0608
38984SOL     OW28675  10.065   2.461   5.223 -0.3497 -0.2104  0.3362
38984SOL    HW128676   9.978   2.467   5.183  0.4105 -0.6488 -1.4733
38984SOL    HW228677  10.102   2.380   5.190  0.5990 -0.2597  1.4437
38985SOL     OW28678   8.813   8.700   6.123  0.3073 -0.3112 -0.3141
38985SOL    HW128679   8.900   8.715   6.086  0.6714  1.4324  1.0851
38985SOL    HW228680   8.829   8.657   6.207 -0.3443 -1.7974 -0.9081
38986SOL     OW28681  10.548   4.993   2.646  0.3088 -0.0605  0.0049
38986SOL    HW128682  10.498   4.929   2.596  0.5499 -1.3670  1.3587
38986SOL    HW228683  10.483   5.043   2.694  0.1581  0.2738 -0.5386
38987SOL     OW28684   5.007   5.530   0.253  0.1365  0.3591 -0.0722
38987SOL    HW128685   4.955   5.606   0.282 -0.6887  0.0603 -0.7093
38987SOL    HW228686   5.067   5.566   0.189 -0.4941  0.4328 -0.6359
38988SOL     OW28687   4.854  11.879   6.382 -0.0736 -0.0945  0.0725
38988SOL    HW128688   4.915  11.863   6.454 -0.8736  0.1953  0.8233
38988SOL    HW228689   4.857  11.798   6.330  0.7763 -0.1685  0.2136
38989SOL     OW28690   6.769   6.942   9.642  0.5701 -0.4319  0.1312
38989SOL    HW128691   6.716   6.902   9.573 -0.4002  0.4417  0.3570
38989SOL    HW228692   6.706   6.969   9.709  1.3547  0.1148  0.6691
38990SOL     OW28693   7.085   4.508   8.957  0.1721 -0.4918 -0.6915
38990SOL    HW128694   7.030   4.467   9.023 -0.3341 -0.4801 -1.1032
38990SOL    HW228695   7.120   4.586   9.000 -1.7789  0.6550 -1.0728
38991SOL     OW28696   5.868   4.390   8.333  0.2402 -0.2921  0.1069
38991SOL    HW128697   5.917   4.345   8.402  2.3096  1.4985 -0.1071
38991SOL    HW228698   5.933   4.408   8.265 -0.5679  2.4423 -0.0722
38992SOL     OW28699   3.830  10.915   7.646 -0.5954  0.3611 -0.1071
38992SOL    HW128700   3.821  10.863   7.566  0.9405 -0.5987  0.3156
38992SOL    HW228701   3.740  10.934   7.672 -1.1495  1.7298 -2.6980
38993SOL     OW28702   0.692   7.395   6.239 -0.0545  0.2824 -0.1804
38993SOL    HW128703   0.741   7.452   6.180  0.5718  0.3190  0.3615
38993SOL    HW228704   0.611   7.444   6.258 -0.0994  0.4241 -0.7167
38994SOL     OW28705   0.774   0.246   7.666  0.7170 -0.0696 -0.5418
38994SOL    HW128706   0.737   0.328   7.697  0.5947 -0.2602 -0.1702
38994SOL    HW228707   0.698   0.194   7.639  0.9015  0.8869 -3.2830
38995SOL     OW28708   6.216   5.708   2.955 -0.3015 -0.7799  0.9072
38995SOL    HW128709   6.168   5.763   3.016 -1.0407 -0.1004 -0.2594
38995SOL    HW228710   6.189   5.619   2.976  1.1785 -0.8169  3.0578
38996SOL     OW28711   7.351   5.782   6.647  0.2500  0.3387  0.7003
38996SOL    HW128712   7.303   5.730   6.583  0.8307  1.8453 -1.0530
38996SOL    HW228713   7.436   5.740   6.654 -0.2691 -0.6089  1.5484
38997SOL     OW28714   3.655   1.498   4.635  0.4433 -0.0699 -0.2015
38997SOL    HW128715   3.650   1.582   4.590 -0.2656 -0.3212 -0.6079
38997SOL    HW228716   3.747   1.473   4.629  0.5284  0.3407 -0.7080
38998SOL     OW28717   8.747   5.002   9.218 -0.4126  0.1224 -0.0790
38998SOL    HW128718   8.653   4.983   9.207 -1.0023  1.7057  1.6605
38998SOL    HW228719   8.753   5.097   9.214  0.7675  0.1861  1.9962
38999SOL     OW28720   5.036   2.466  11.386 -0.2284 -0.1112  0.4721
38999SOL    HW128721   5.121   2.422  11.383 -1.0038 -1.6266 -1.9808
38999SOL    HW228722   4.973   2.395  11.397 -1.2966  0.7597  0.0840
39000SOL     OW28723  11.155   6.728   7.730  0.6928 -0.1066 -0.1354
39000SOL    HW128724  11.198   6.780   7.662  1.4907  1.0511  1.2117
39000SOL    HW228725  11.066   6.764   7.735  0.5612 -0.3329 -0.6720
39001SOL     OW28726   3.524  11.800   1.027 -0.6344  0.0697  0.0971
39001SOL    HW128727   3.482  11.757   1.102  0.0936  0.4910  0.7646
39001SOL    HW228728   3.469  11.777   0.952 -0.4472 -1.7524  0.4761
39002SOL     OW28729   2.906   5.515   4.112 -0.1392  0.9464  0.2017
39002SOL    HW128730   2.930   5.481   4.198  0.1218 -0.4255 -0.3912
39002SOL    HW228731   2.833   5.459   4.083  0.0388  1.1271 -0.6347
39003SOL     OW28732  10.427   3.576   9.473 -0.3191  0.1531 -0.6607
39003SOL    HW128733  10.480   3.543   9.546  2.0782 -0.4500 -2.5406
39003SOL    HW228734  10.392   3.497   9.432  0.2886  0.2983 -1.4960
39004SOL     OW28735   1.941   0.143   3.645 -0.7156  0.3742  0.7432
39004SOL    HW128736   2.035   0.139   3.666 -1.2566 -1.1193  3.4418
39004SOL    HW228737   1.921   0.236   3.643  0.9470  0.7689 -0.7913
39005SOL     OW28738   3.775   4.434   3.649  0.4534 -0.3275 -0.3810
39005SOL    HW128739   3.718   4.475   3.584  2.6716 -0.3811 -2.4883
39005SOL    HW228740   3.819   4.507   3.692  0.1572 -0.3460 -0.0404
39006SOL     OW28741   8.503  11.945   6.849 -0.1523 -0.3913  0.2195
39006SOL    HW128742   8.466  11.931   6.762 -0.7358 -2.2195  0.7165
39006SOL    HW228743   8.467  12.029   6.877 -0.6504 -0.1931 -0.9448
39007SOL     OW28744   2.654  11.672   8.302 -0.1218 -0.3188  0.2461
39007SOL    HW128745   2.747  11.680   8.278 -0.7639  0.2830 -2.3123
39007SOL    HW228746   2.644  11.580   8.328  0.8897 -0.8153 -1.0090
39008SOL     OW28747   9.331  11.521  10.910  0.2804 -0.3129  0.1988
39008SOL    HW128748   9.361  11.430  10.907 -1.2734 -0.9676  1.9997
39008SOL    HW228749   9.358  11.552  10.996  0.2962  0.7537 -0.1781
39009SOL     OW28750   9.114   2.520   7.319  0.6037 -0.1786 -0.2264
39009SOL    HW128751   9.097   2.522   7.225  0.1650  0.7876 -0.1335
39009SOL    HW228752   9.209   2.528   7.327  0.6930 -0.8362 -0.6011
39010SOL     OW28753   7.635   2.307   8.837  0.4328  0.2715  0.2762
39010SOL    HW128754   7.603   2.395   8.819 -0.0966  0.4381  1.8741
39010SOL    HW228755   7.568   2.268   8.894 -0.3392 -1.8820 -1.9248
39011SOL     OW28756   2.976   9.012   6.042  0.1203  0.2053  0.4916
39011SOL    HW128757   3.009   8.926   6.016 -0.5064  0.2805 -0.6334
39011SOL    HW228758   2.898   9.026   5.987  1.1470  2.1958 -0.5886
39012SOL     OW28759   4.373   5.775  11.180  0.2614  0.1913  0.4169
39012SOL    HW128760   4.397   5.709  11.245 -0.8296  0.1880  0.8408
39012SOL    HW228761   4.396   5.735  11.096 -2.5022 -1.8169  0.4560
39013SOL     OW28762   4.347   7.452   9.706  0.0699  0.5875  0.5383
39013SOL    HW128763   4.393   7.403   9.775 -0.9148  1.0221  1.5335
39013SOL    HW228764   4.408   7.522   9.682  1.3182 -0.8076 -0.5882
39014SOL     OW28765  10.526   5.421   9.354 -0.2574  0.6133 -0.2901
39014SOL    HW128766  10.522   5.371   9.436  0.1201  2.3462  0.8468
39014SOL    HW228767  10.441   5.405   9.313 -0.3066 -0.5957  0.2313
39015SOL     OW28768   4.320   7.127   4.185 -0.3714  0.1191 -0.0593
39015SOL    HW128769   4.370   7.046   4.188  0.0332  0.3860  2.0387
39015SOL    HW228770   4.234   7.104   4.222 -0.5292  0.4742 -0.1950
39016SOL     OW28771   5.073  11.271   9.835  0.4210 -0.1709 -0.6328
39016SOL    HW128772   5.066  11.353   9.786  1.0016  0.4817  0.3242
39016SOL    HW228773   5.165  11.269   9.864  0.5429 -1.4209 -1.0650
39017SOL     OW28774  11.632   3.013   2.834 -0.4087  0.1099 -0.3856
39017SOL    HW128775  11.649   2.981   2.922 -0.4719  1.2908  0.0678
39017SOL    HW228776  11.622   2.933   2.781  2.8361 -0.6683  0.0016
39018SOL     OW28777   8.240   5.694   8.047  0.0680 -0.4814 -0.4297
39018SOL    HW128778   8.212   5.734   7.965  0.4859 -3.0625 -1.9474
39018SOL    HW228779   8.166   5.640   8.073  0.7562 -1.3932 -0.3242
39019SOL     OW28780   0.260   2.548   1.937  0.7162 -0.1606  0.7360
39019SOL    HW128781   0.292   2.550   1.847 -0.0635  1.2121  0.4631
39019SOL    HW228782   0.332   2.584   1.989  0.5363  0.6358  0.4409
39020SOL     OW28783   2.884   7.474  10.397  0.6799 -0.1264 -0.0641
39020SOL    HW128784   2.811   7.525  10.431  0.6980 -0.1891  0.0688
39020SOL    HW228785   2.922   7.530  10.329  2.9073  1.6566  2.4574
39021SOL     OW28786  10.033   6.572   6.534  0.0258  0.4404 -0.1449
39021SOL    HW128787   9.958   6.535   6.488  0.8900  0.7826 -1.8807
39021SOL    HW228788  10.083   6.496   6.564 -0.3661  0.2142 -0.0613
39022SOL     OW28789   4.219   6.591   2.673 -0.4865  0.3527 -0.1710
39022SOL    HW128790   4.158   6.519   2.685 -0.0457  0.1118  0.6607
39022SOL    HW228791   4.204   6.621   2.583 -2.4350  0.8738  0.2841
39023SOL     OW28792   9.600   1.292   0.704 -0.6133 -0.1540  0.2407
39023SOL    HW128793   9.537   1.223   0.684  0.3892 -1.3018  0.9042
39023SOL    HW228794   9.593   1.303   0.799 -3.5312  3.4637 -0.1583
39024SOL     OW28795  10.383   0.801   9.522 -0.6929 -0.1611 -0.6047
39024SOL    HW128796  10.399   0.879   9.575  0.6457  1.0421 -2.6333
39024SOL    HW228797  10.288   0.791   9.520 -0.8466  1.0106  0.2730
39025SOL     OW28798   4.806   5.808   7.959 -0.5605  0.5288  0.7122
39025SOL    HW128799   4.877   5.782   8.018  0.2515  0.7576 -0.1373
39025SOL    HW228800   4.804   5.903   7.964 -0.3811  0.5599  0.2657
39026SOL     OW28801   8.916   7.873   8.585  0.6156 -1.0207  0.0853
39026SOL    HW128802   8.870   7.838   8.662 -2.1157  2.2174  0.1547
39026SOL    HW228803   8.996   7.911   8.621 -0.0828 -0.5376  1.1991
39027SOL     OW28804   3.696  11.196   7.524  0.0278  0.0275 -0.0118
39027SOL    HW128805   3.656  11.111   7.540  0.9049 -0.2506  0.8334
39027SOL    HW228806   3.740  11.217   7.607  0.0682  1.1673 -0.3077
39028SOL     OW28807   3.295   6.625   3.711 -0.4570  1.0146 -0.1172
39028SOL    HW128808   3.342   6.572   3.647 -0.2906  2.3608 -1.1573
39028SOL    HW228809   3.326   6.715   3.695  0.1332  1.3168  2.3424
39029SOL     OW28810   7.048   6.545  11.398 -0.4072 -0.1782 -0.0022
39029SOL    HW128811   6.994   6.620  11.423 -0.9358 -1.0162  1.5398
39029SOL    HW228812   7.039   6.539  11.303  0.2326  2.1169 -0.2752
39030SOL     OW28813   0.977   3.539  11.600  0.0825 -0.0817 -0.2822
39030SOL    HW128814   0.975   3.592  11.520  3.9363 -0.4455 -0.8097
39030SOL    HW228815   0.927   3.460  11.577 -1.3745  1.0613 -1.2503
39031SOL     OW28816   5.002   8.594  11.207  0.1668 -0.0197  0.2271
39031SOL    HW128817   4.993   8.538  11.284 -0.7806 -1.1944 -0.6960
39031SOL    HW228818   5.095   8.592  11.186  0.8180  2.0210  2.5255
39032SOL     OW28819   6.934  10.668   5.707  0.8214  0.0075  0.1985
39032SOL    HW128820   6.981  10.752   5.709  1.0163 -0.0948  1.8865
39032SOL    HW228821   6.896  10.663   5.620  0.6928  1.9272  0.1087
39033SOL     OW28822   3.304   9.016   2.959 -0.0502 -0.0553 -0.4936
39033SOL    HW128823   3.214   9.030   2.931 -0.4674  1.5793  1.4075
39033SOL    HW228824   3.357   9.055   2.890 -0.7034 -1.6384 -1.9751
39034SOL     OW28825  11.347   5.372  11.593 -0.0260 -0.1669 -0.1886
39034SOL    HW128826  11.264   5.413  11.616  0.1628  0.4621 -0.5938
39034SOL    HW228827  11.379   5.422  11.519  1.6070  0.8120  1.0923
39035SOL     OW28828   7.176   5.006   9.988  0.7715 -0.1492  0.2599
39035SOL    HW128829   7.125   5.073  10.033 -1.2748 -1.1450 -0.4314
39035SOL    HW228830   7.116   4.972   9.921  1.5504 -2.9419  0.8568
39036SOL     OW28831   5.401   9.600   7.203 -0.4085  0.3590 -0.4079
39036SOL    HW128832   5.481   9.648   7.178  0.5641 -0.7292  0.4997
39036SOL    HW228833   5.427   9.549   7.280 -2.1926  0.5196  0.3488
39037SOL     OW28834   1.798   7.553   9.365 -0.0691  0.0564 -0.0996
39037SOL    HW128835   1.771   7.621   9.427 -0.5918 -0.3987  0.1742
39037SOL    HW228836   1.777   7.470   9.408  0.5915 -0.2867 -0.4170
39038SOL     OW28837   8.789   8.975  10.780  0.1291  0.5548 -0.5145
39038SOL    HW128838   8.769   9.001  10.871  2.3052  0.8904 -0.0869
39038SOL    HW228839   8.871   8.927  10.786  0.7224  1.2496 -2.4076
39039SOL     OW28840   2.672   2.327  10.126 -0.2941 -0.2274  0.0528
39039SOL    HW128841   2.654   2.316  10.219 -0.3545 -1.2375 -0.0659
39039SOL    HW228842   2.590   2.360  10.089 -0.0631  0.8296  0.4545
39040SOL     OW28843   6.651  10.097   0.240 -0.7379 -0.2919 -0.5276
39040SOL    HW128844   6.605  10.163   0.292  0.9603  0.2761  0.3420
39040SOL    HW228845   6.680  10.144   0.161  0.4895  0.0555  0.1013
39041SOL     OW28846   1.909   4.004   9.868 -0.6108 -0.0371 -0.2015
39041SOL    HW128847   1.952   4.050   9.940 -1.3891 -0.3950  0.5131
39041SOL    HW228848   1.948   3.916   9.869 -0.3023  0.0903 -0.5185
39042SOL     OW28849   9.113   8.884   4.991  0.3609  0.3550  0.1023
39042SOL    HW128850   9.173   8.810   4.997 -2.0823 -1.6634  1.1882
39042SOL    HW228851   9.152   8.950   5.049  2.5233 -0.0641 -0.7822
39043SOL     OW28852   2.035   8.367   4.871  0.5996  0.2838  0.2350
39043SOL    HW128853   1.965   8.317   4.831  2.1162 -0.2270 -1.9736
39043SOL    HW228854   2.016   8.366   4.965 -1.4335 -1.1870 -0.1490
39044SOL     OW28855   6.975   1.106   4.180  0.1885  0.0045 -0.0611
39044SOL    HW128856   6.883   1.126   4.163 -0.0557 -1.1192 -0.1168
39044SOL    HW228857   7.023   1.180   4.142 -0.5836 -0.3901 -1.9165
39045SOL     OW28858   4.774   7.260   4.585  0.4136  0.4790  0.2088
39045SOL    HW128859   4.812   7.347   4.577 -0.0577  0.5729 -1.3159
39045SOL    HW228860   4.754   7.251   4.678  2.3147  1.1862  0.7492
39046SOL     OW28861  10.174   1.279   1.502 -0.5537  0.3488 -0.5560
39046SOL    HW128862  10.229   1.204   1.525 -1.6715 -1.0090 -2.0521
39046SOL    HW228863  10.156   1.322   1.586  0.4260 -0.8366  0.3013
39047SOL     OW28864   8.389   3.161   7.316  0.0382  0.0962  0.2468
39047SOL    HW128865   8.369   3.084   7.369 -1.0293  1.0390  1.2921
39047SOL    HW228866   8.485   3.161   7.308 -0.0013 -2.0086 -0.9002
39048SOL     OW28867   4.250   7.957   8.595 -0.0503 -0.2401  0.5673
39048SOL    HW128868   4.335   7.973   8.554 -0.0209 -0.1312  0.6679
39048SOL    HW228869   4.259   7.872   8.638  0.1443 -0.0388  0.9296
39049SOL     OW28870   2.161  11.213   4.071 -0.0207  0.0768  0.0955
39049SOL    HW128871   2.216  11.280   4.111 -0.1522  0.3687 -0.2019
39049SOL    HW228872   2.219  11.138   4.057  0.1459  0.1568  0.3612
39050SOL     OW28873   6.835   2.354   3.903 -0.4438 -0.1015 -0.4933
39050SOL    HW128874   6.844   2.404   3.821  0.6066 -0.8518 -0.8565
39050SOL    HW228875   6.921   2.315   3.917 -0.7677 -0.4298  0.6904
39051SOL     OW28876   4.748   9.649   4.660  0.1991  0.0991 -0.0512
39051SOL    HW128877   4.681   9.622   4.723  0.2061  1.0487  0.3810
39051SOL    HW228878   4.709   9.631   4.574  0.0325 -0.8388  0.2179
39052SOL     OW28879   3.652   2.289   2.606  0.2007 -0.0046 -0.1078
39052SOL    HW128880   3.705   2.348   2.658  0.6881 -0.6600  0.1595
39052SOL    HW228881   3.701   2.276   2.525  0.3607 -0.4589  0.0579
39053SOL     OW28882   8.499   3.906   1.900  0.6897 -0.4640  0.5582
39053SOL    HW128883   8.502   3.813   1.877 -1.0436 -0.7567  1.3649
39053SOL    HW228884   8.481   3.907   1.994  0.9751  0.6886  0.6180
39054SOL     OW28885   1.893   1.789  11.755 -0.0997 -0.2934  0.1192
39054SOL    HW128886   1.798   1.793  11.766 -0.3102 -0.1772 -1.4801
39054SOL    HW228887   1.916   1.875  11.720  0.2307 -1.1136 -1.7748
39055SOL     OW28888   3.407   7.839   0.399 -0.7964 -0.5248 -0.1285
39055SOL    HW128889   3.425   7.877   0.485 -0.9981 -0.0565 -0.2892
39055SOL    HW228890   3.312   7.830   0.396 -0.7171 -1.5410  0.1104
39056SOL     OW28891   3.789   7.528   8.805  0.3171 -0.4060 -0.5996
39056SOL    HW128892   3.713   7.573   8.843 -0.6482  0.5503 -3.4450
39056SOL    HW228893   3.768   7.435   8.813 -0.0757 -0.2365  0.6319
39057SOL     OW28894   4.454   3.912   2.279 -0.6189 -0.4140 -0.8985
39057SOL    HW128895   4.468   3.962   2.199  0.2228  0.5489 -0.1883
39057SOL    HW228896   4.382   3.958   2.323 -0.2490 -0.1730 -0.5311
39058SOL     OW28897  10.892   0.233   1.433  0.5471 -0.2771  0.6303
39058SOL    HW128898  10.953   0.159   1.436  2.3845  1.0234 -1.2051
39058SOL    HW228899  10.844   0.221   1.351  0.8859  0.5390  0.2974
39059SOL     OW28900   7.085  11.524  10.569  0.1336 -0.4789  0.0939
39059SOL    HW128901   7.084  11.429  10.561  0.5831 -0.6081  1.3142
39059SOL    HW228902   7.162  11.553  10.520  0.1213 -0.7589 -0.0887
39060SOL     OW28903   1.314   7.851   3.295  0.0295 -1.3318  0.3384
39060SOL    HW128904   1.257   7.845   3.219  1.2357  0.2483 -0.7658
39060SOL    HW228905   1.292   7.775   3.349 -1.5093 -1.9661 -1.1257
39061SOL     OW28906   0.988   6.844   3.126  0.4769  0.3100  0.3432
39061SOL    HW128907   1.051   6.773   3.138  1.0311  1.0211  1.9326
39061SOL    HW228908   0.914   6.821   3.182 -0.6543 -0.4293 -1.3742
39062SOL     OW28909   3.374   1.903   1.299  0.1445 -0.1064  0.2593
39062SOL    HW128910   3.413   1.830   1.251 -0.0692  0.0399 -0.1380
39062SOL    HW228911   3.307   1.937   1.241  0.9982  1.1178 -0.0287
39063SOL     OW28912   5.642   7.741   4.648 -0.4041 -0.7757 -0.0321
39063SOL    HW128913   5.712   7.782   4.597 -1.6033  0.0881 -1.0214
39063SOL    HW228914   5.576   7.718   4.584 -0.8840 -1.9118  0.8529
39064SOL     OW28915  11.178   8.604   8.866  0.1698  0.1828 -0.3028
39064SOL    HW128916  11.136   8.666   8.806  0.4951 -0.6089 -1.3883
39064SOL    HW228917  11.118   8.530   8.869  0.2418  0.1433  0.2299
39065SOL     OW28918  11.921   0.368   5.337 -0.3747 -0.8052 -0.2000
39065SOL    HW128919  11.876   0.450   5.319 -0.3299 -0.7142  0.0913
39065SOL    HW228920  11.902   0.312   5.262  1.1070  0.0959 -1.2786
39066SOL     OW28921  10.529   2.876   4.922 -0.3101  0.1831  0.1178
39066SOL    HW128922  10.615   2.857   4.959 -0.2021 -0.9099 -0.6353
39066SOL    HW228923  10.537   2.965   4.888  0.1800  0.4838  0.9912
39067SOL     OW28924   5.462   8.060   3.929  0.0083  0.5160 -0.0121
39067SOL    HW128925   5.446   8.116   4.006  0.0292  0.2293  0.2047
39067SOL    HW228926   5.557   8.048   3.927  0.0462  0.8529 -0.3213
39068SOL     OW28927  11.141   1.253  10.773 -1.0061  0.2350  0.1685
39068SOL    HW128928  11.085   1.287  10.842 -2.0901 -0.9083 -0.1048
39068SOL    HW228929  11.096   1.275  10.692 -0.6281  0.0356 -0.0992
39069SOL     OW28930   7.366  11.682   6.906 -0.6200  0.2470  0.1424
39069SOL    HW128931   7.442  11.739   6.899  0.4081 -0.9928  0.7069
39069SOL    HW228932   7.335  11.672   6.816  0.0520  0.5441 -0.1312
39070SOL     OW28933   2.299   5.940   0.727 -0.3325  0.3863 -0.0096
39070SOL    HW128934   2.210   5.906   0.733 -0.8159  1.7465  0.9537
39070SOL    HW228935   2.299   5.993   0.647 -0.6587  1.1289  0.4798
39071SOL     OW28936  10.144   6.274   3.161 -0.2176  0.2514  0.7561
39071SOL    HW128937  10.071   6.317   3.117  0.5753  0.4172 -0.4395
39071SOL    HW228938  10.204   6.346   3.181  1.8997 -0.3259 -2.7332
39072SOL     OW28939   5.798   2.001  10.372 -0.3614  0.1997 -0.4762
39072SOL    HW128940   5.798   1.907  10.388  1.8217 -0.5973 -4.0938
39072SOL    HW228941   5.732   2.014  10.303 -1.0512  1.4891  0.3737
39073SOL     OW28942   8.704   0.329   8.493 -0.3018  0.0956 -0.7580
39073SOL    HW128943   8.761   0.361   8.564 -1.5782  0.6625  0.0363
39073SOL    HW228944   8.718   0.391   8.422  0.7621 -0.3009 -0.9131
39074SOL     OW28945   4.968  10.866   8.186  0.2741 -0.7919  0.1092
39074SOL    HW128946   5.018  10.853   8.106  0.1758  0.4642 -0.1774
39074SOL    HW228947   4.905  10.793   8.187  0.7866 -1.2536 -0.5493
39075SOL     OW28948   0.587   0.871   0.536  0.9530 -0.1960  0.7565
39075SOL    HW128949   0.642   0.929   0.483  0.1091 -0.3071 -0.2546
39075SOL    HW228950   0.649   0.809   0.575  1.8406  1.1603  1.6080
39076SOL     OW28951  11.421   6.494   7.599  0.2144 -0.1734  0.0993
39076SOL    HW128952  11.353   6.561   7.609  0.5494  0.2709 -0.5050
39076SOL    HW228953  11.391   6.421   7.653 -0.4823  0.2141  0.2517
39077SOL     OW28954   3.732   6.888  11.117  0.1641 -0.3628  0.1639
39077SOL    HW128955   3.778   6.968  11.094 -0.5307 -0.0081 -0.0412
39077SOL    HW228956   3.744   6.830  11.042  0.0628 -0.1728 -0.0016
39078SOL     OW28957   5.472   9.704   5.514  0.6311  0.1878 -0.3597
39078SOL    HW128958   5.537   9.772   5.533 -0.7004  1.6002 -0.6067
39078SOL    HW228959   5.492   9.675   5.425  0.1899  1.5395 -0.9330
39079SOL     OW28960  11.398   3.116   0.721 -0.2388 -0.1893  0.1802
39079SOL    HW128961  11.385   3.123   0.626  0.3329  1.1559  0.1683
39079SOL    HW228962  11.334   3.051   0.750 -0.2024 -0.8524 -1.1694
39080SOL     OW28963   5.038   7.904   5.589  0.3949 -0.1602 -0.0435
39080SOL    HW128964   4.973   7.956   5.636 -0.0078 -0.8772  0.2037
39080SOL    HW228965   4.997   7.818   5.577  1.4694 -0.7910  0.5556
39081SOL     OW28966   0.910   3.868   6.516 -0.4435 -0.5465 -0.3817
39081SOL    HW128967   0.817   3.863   6.496 -1.0463 -0.5978  2.1200
39081SOL    HW228968   0.949   3.793   6.471 -2.0504 -2.0181  0.6033
39082SOL     OW28969   8.212   5.172   6.492  0.6737  0.2074 -0.0690
39082SOL    HW128970   8.199   5.142   6.401 -1.5612 -1.6272  0.7554
39082SOL    HW228971   8.273   5.108   6.529  0.4340  0.0837  0.1149
39083SOL     OW28972   6.325   7.122   7.330 -0.0216  0.3557  0.8951
39083SOL    HW128973   6.308   7.045   7.276  0.2556  1.6510 -1.1679
39083SOL    HW228974   6.410   7.104   7.371 -0.1131 -0.5562  0.7081
39084SOL     OW28975   9.566   4.821  11.718 -0.2585  0.0111  0.1038
39084SOL    HW128976   9.626   4.841  11.646 -2.2609  2.0085 -1.1318
39084SOL    HW228977   9.479   4.833  11.681 -1.3878  0.4895  2.7066
39085SOL     OW28978   4.220   4.837  11.899  0.2536 -0.1087  0.7384
39085SOL    HW128979   4.224   4.847  11.994  0.8319 -0.1796  0.7255
39085SOL    HW228980   4.311   4.844  11.871  0.1020 -0.2607  0.2063
39086SOL     OW28981   6.434  10.604   0.566 -0.7376 -0.2831 -0.1336
39086SOL    HW128982   6.365  10.551   0.608 -1.6563  0.6313 -0.4497
39086SOL    HW228983   6.386  10.672   0.519  0.3340 -0.4499 -1.5190
39087SOL     OW28984   1.293   8.212   5.801 -0.2910 -0.2183 -0.0030
39087SOL    HW128985   1.306   8.140   5.863 -0.7033 -0.2422  0.0551
39087SOL    HW228986   1.323   8.177   5.717  1.5144  0.2318  0.4014
39088SOL     OW28987   1.846   1.878  10.002 -0.0180 -0.0835  0.2420
39088SOL    HW128988   1.841   1.814   9.931 -2.9380  1.3063 -0.9808
39088SOL    HW228989   1.937   1.906  10.002  0.3124 -0.8325 -2.3857
39089SOL     OW28990  10.213  10.619   5.504  0.8003  0.1938  0.4600
39089SOL    HW128991  10.238  10.552   5.440 -1.3642  0.7561 -1.1024
39089SOL    HW228992  10.245  10.586   5.587  1.1384 -2.0377 -0.4855
39090SOL     OW28993   1.971  11.470   2.563 -0.2135  0.3985  0.2153
39090SOL    HW128994   2.025  11.497   2.637  0.0275 -2.2728  1.1088
39090SOL    HW228995   1.951  11.378   2.580 -1.8865  0.2619 -2.0245
39091SOL     OW28996   7.115   0.579  10.040  0.4190  0.3113 -0.0125
39091SOL    HW128997   7.164   0.590   9.958 -0.5050 -1.2089 -0.8233
39091SOL    HW228998   7.025   0.564  10.011  0.1053 -0.3892  1.2770
39092SOL     OW28999   2.005   2.302   4.815  0.0867 -0.0889  0.2797
39092SOL    HW129000   2.066   2.250   4.762  1.4163  1.1810  0.4806
39092SOL    HW229001   1.932   2.243   4.832 -0.7896 -0.3393 -3.5406
39093SOL     OW29002   4.124   3.370   4.889  0.0677  0.8937  0.3327
39093SOL    HW129003   4.077   3.318   4.954 -1.6046  0.1437 -1.3724
39093SOL    HW229004   4.058   3.430   4.854  0.1980 -0.3123 -2.2694
39094SOL     OW29005   7.296  11.593   0.644 -0.0114  0.4390  0.3048
39094SOL    HW129006   7.216  11.623   0.599 -0.8301 -1.7371  0.2048
39094SOL    HW229007   7.275  11.600   0.737  1.2544  3.7857  0.4967
39095SOL     OW29008   8.022   3.011   5.764 -0.1443  0.9613 -0.4109
39095SOL    HW129009   8.007   2.918   5.781 -1.0492  0.8293 -1.7846
39095SOL    HW229010   7.961   3.056   5.823 -0.0903  0.6721 -0.1307
39096SOL     OW29011   5.590   8.525   8.899 -0.0631  0.0625 -0.0765
39096SOL    HW129012   5.503   8.514   8.860  0.8302  1.0410 -2.5540
39096SOL    HW229013   5.616   8.614   8.875  2.1320 -0.6507 -0.5536
39097SOL     OW29014   6.775   4.005  11.571  0.2395  0.2116 -0.3987
39097SOL    HW129015   6.701   4.032  11.517  0.9411  0.1348 -1.4191
39097SOL    HW229016   6.745   3.926  11.616 -0.7879  0.9770  0.3237
39098SOL     OW29017   5.880   8.736   9.034  0.2347 -0.6300 -0.1324
39098SOL    HW129018   5.846   8.657   9.075 -0.6399 -0.7372 -1.0192
39098SOL    HW229019   5.807   8.798   9.038  0.5925 -0.1935 -0.3046
39099SOL     OW29020   6.505  11.737   1.290  0.0228 -0.1749 -0.4497
39099SOL    HW129021   6.563  11.713   1.363  0.5118  0.7800 -0.5067
39099SOL    HW229022   6.478  11.653   1.252  0.3769 -0.6662  0.3502
39100SOL     OW29023  10.445   7.828   3.914  0.0343  0.4700 -0.1558
39100SOL    HW129024  10.478   7.914   3.887  1.0818  0.8632  2.0973
39100SOL    HW229025  10.518   7.768   3.899  0.1614  0.4484  0.5265
39101SOL     OW29026   0.630   4.324   6.709 -0.2861 -0.5575  0.3308
39101SOL    HW129027   0.725   4.316   6.721 -0.3172  0.2532  1.3032
39101SOL    HW229028   0.603   4.385   6.778 -1.7557 -2.0775  1.1669
39102SOL     OW29029   8.386   5.688   1.484  0.0672 -0.4408 -0.0657
39102SOL    HW129030   8.298   5.692   1.520 -0.3434 -1.8942 -0.8081
39102SOL    HW229031   8.420   5.777   1.492 -2.2340  0.6711 -1.7081
39103SOL     OW29032   2.049   6.986   2.873  0.6005 -0.7422 -0.0783
39103SOL    HW129033   2.017   6.975   2.962 -0.4323 -1.6920 -0.5439
39103SOL    HW229034   1.985   6.939   2.818  3.1726 -3.5142 -0.9925
39104SOL     OW29035   4.287   9.172   8.795 -0.0608 -0.0607 -0.1964
39104SOL    HW129036   4.382   9.163   8.783 -0.3544 -1.1877 -2.0741
39104SOL    HW229037   4.277   9.199   8.886  1.9731 -1.8104  0.6293
39105SOL     OW29038   5.773   8.308  10.224 -0.1660 -0.2406  0.4615
39105SOL    HW129039   5.858   8.299  10.181 -0.3153 -0.3950  0.1935
39105SOL    HW229040   5.757   8.403  10.226 -0.1643 -0.2326  0.1557
39106SOL     OW29041   7.914  10.066   3.649 -0.0933 -0.3244  0.4821
39106SOL    HW129042   8.004  10.042   3.626  0.1287 -0.5441  1.5117
39106SOL    HW229043   7.922  10.153   3.688 -0.3113 -0.3803  0.6549
39107SOL     OW29044   2.681   2.473   6.634 -0.0514  0.3836  0.4149
39107SOL    HW129045   2.722   2.552   6.598 -1.8443  1.4145  0.5113
39107SOL    HW229046   2.646   2.427   6.557 -0.3256  0.4733  0.4842
39108SOL     OW29047   2.750   0.764   0.729 -0.3453 -0.4642  0.5234
39108SOL    HW129048   2.836   0.789   0.763  0.2470 -2.3804  0.5669
39108SOL    HW229049   2.707   0.721   0.802  0.3283 -3.2027 -0.5523
39109SOL     OW29050   2.596   1.173   2.660 -0.4499  0.3175  0.1508
39109SOL    HW129051   2.599   1.078   2.657 -0.9936  0.3022 -0.0920
39109SOL    HW229052   2.651   1.202   2.587  0.4209  0.2059  0.7561
39110SOL     OW29053   6.700   6.359   1.471  0.1151 -0.0889 -0.1567
39110SOL    HW129054   6.750   6.437   1.449  0.0882 -0.2053 -0.6465
39110SOL    HW229055   6.655   6.336   1.390  0.9726 -1.2480 -0.3220
39111SOL     OW29056   5.075   5.406  10.216  0.1337  0.0469 -0.5528
39111SOL    HW129057   5.122   5.368  10.289 -2.3407  1.1821  1.8152
39111SOL    HW229058   4.989   5.364  10.218 -0.9897  2.1683 -0.8890
39112SOL     OW29059  10.247   5.453  10.362  0.0642  0.3322  0.2190
39112SOL    HW129060  10.242   5.532  10.416 -0.9590 -0.0509  0.7234
39112SOL    HW229061  10.275   5.384  10.422 -3.0706 -0.5466  0.8991
39113SOL     OW29062   2.892   1.745   8.768  0.4131  0.0642 -0.0428
39113SOL    HW129063   2.970   1.725   8.819  1.0643  1.2369 -0.5423
39113SOL    HW229064   2.909   1.706   8.683  1.2525  1.7449 -0.7030
39114SOL     OW29065  11.777   9.527   0.004 -0.0185  0.0630  0.0119
39114SOL    HW129066  11.707   9.590  -0.012  1.3551  1.5692 -0.3869
39114SOL    HW229067  11.817   9.557   0.086 -0.2052 -1.1405  0.5624
39115SOL     OW29068   7.784  10.061   0.358  0.3303  0.1099 -0.4564
39115SOL    HW129069   7.799  10.044   0.265  0.8597 -0.2389 -0.3109
39115SOL    HW229070   7.763   9.975   0.395  1.4144  0.0157 -0.0179
39116SOL     OW29071   2.476   4.719   0.371 -0.2294  0.3141 -0.0585
39116SOL    HW129072   2.405   4.766   0.415 -0.9201  0.1244 -0.9485
39116SOL    HW229073   2.441   4.696   0.285  0.4687 -0.9039 -0.0453
39117SOL     OW29074   0.867   3.502   5.024  0.5771 -0.8065  0.0308
39117SOL    HW129075   0.873   3.566   4.953  1.6778 -0.5068  0.3729
39117SOL    HW229076   0.871   3.417   4.980  1.7878 -0.6248 -0.2467
39118SOL     OW29077   1.653   6.774   4.529 -0.1553  0.1185 -0.0723
39118SOL    HW129078   1.609   6.737   4.605 -1.1498 -0.6395 -0.9896
39118SOL    HW229079   1.585   6.782   4.462  0.4112  1.9891 -0.4899
39119SOL     OW29080   5.064   3.640   5.949 -0.0834 -0.2275 -0.9134
39119SOL    HW129081   5.097   3.728   5.965 -0.6501 -0.0968 -0.4106
39119SOL    HW229082   5.019   3.647   5.864  1.0763 -0.3890 -1.5605
39120SOL     OW29083   2.122   3.383   7.013 -0.0707  0.0933  0.5488
39120SOL    HW129084   2.124   3.304   6.960 -0.2242  2.1526 -2.8206
39120SOL    HW229085   2.209   3.386   7.054  0.9515 -0.4876 -1.4469
39121SOL     OW29086   2.474   5.177   8.925 -0.2740 -0.1783  0.5584
39121SOL    HW129087   2.475   5.098   8.978  1.3907  0.2503  1.2050
39121SOL    HW229088   2.546   5.167   8.863  0.3833  1.0849  1.0704
39122SOL     OW29089   6.374  10.462   6.049 -0.1236 -0.2421 -0.0858
39122SOL    HW129090   6.334  10.458   5.962  0.2912 -0.0603 -0.2899
39122SOL    HW229091   6.312  10.511   6.103  0.6568  1.6925 -0.8650
39123SOL     OW29092   4.214   4.425   0.202  0.5152 -0.0478  0.0795
39123SOL    HW129093   4.165   4.448   0.123  0.2832  0.4763  0.3724
39123SOL    HW229094   4.270   4.352   0.175  1.3080  0.8937 -0.8844
39124SOL     OW29095   7.747   6.311   7.273  0.0210  0.5746 -0.4335
39124SOL    HW129096   7.726   6.345   7.186  0.1878  0.2369 -0.6077
39124SOL    HW229097   7.810   6.374   7.309  0.2501  0.5063 -0.7117
39125SOL     OW29098   3.801   1.265   8.605  0.2172  0.1437  0.0945
39125SOL    HW129099   3.732   1.306   8.657  0.1895 -0.9761  0.9607
39125SOL    HW229100   3.882   1.305   8.639  0.2836 -1.2473  1.7010
39126SOL     OW29101   8.481   7.937   3.623 -0.0638  0.1315  0.2605
39126SOL    HW129102   8.417   8.002   3.651  0.3327  1.2686 -1.3676
39126SOL    HW229103   8.517   7.902   3.705 -1.6391  0.5787  1.1792
39127SOL     OW29104   1.599   9.104   5.896 -0.2318 -0.1543  0.6492
39127SOL    HW129105   1.529   9.064   5.845  0.0271 -0.8701  0.8494
39127SOL    HW229106   1.631   9.176   5.841  1.4710 -2.1844 -1.1990
39128SOL     OW29107   1.528   2.531  11.399  0.0146 -0.2810 -0.3186
39128SOL    HW129108   1.593   2.591  11.437  0.3538 -0.8146 -0.0406
39128SOL    HW229109   1.467   2.588  11.352  1.4983  0.1582 -1.8252
39129SOL     OW29110   7.608   4.178   2.224 -0.2355  0.3563 -0.1543
39129SOL    HW129111   7.564   4.108   2.271 -0.0226  1.2873  1.4838
39129SOL    HW229112   7.543   4.249   2.221 -0.6583 -0.0210 -2.2793
39130SOL     OW29113   2.411   3.113   6.640 -0.3100  0.3455  0.0651
39130SOL    HW129114   2.399   3.185   6.579 -1.1979  1.1923  1.1893
39130SOL    HW229115   2.405   3.034   6.587 -0.3088  1.0727 -1.0368
39131SOL     OW29116   1.770   9.701   6.842 -0.0880 -0.0894  0.0623
39131SOL    HW129117   1.679   9.726   6.830 -1.0327 -3.3430 -0.7582
39131SOL    HW229118   1.791   9.726   6.932 -1.2745  2.0332 -0.2013
39132SOL     OW29119   3.502   1.042  11.517 -0.3357  0.4768  0.9581
39132SOL    HW129120   3.536   0.957  11.545  0.8288  0.7867  0.5203
39132SOL    HW229121   3.475   1.028  11.426  0.5830  0.7694  0.6351
39133SOL     OW29122   4.203   3.725   1.966  0.0871  0.0846  0.2199
39133SOL    HW129123   4.210   3.692   2.055  2.0039  2.5039  1.0734
39133SOL    HW229124   4.165   3.812   1.976  0.1314  0.3056 -1.3419
39134SOL     OW29125   9.827   4.835   0.788 -0.2661 -0.0628  0.0332
39134SOL    HW129126   9.804   4.873   0.703  0.4786  1.0320  0.2964
39134SOL    HW229127   9.923   4.829   0.785 -0.3380 -1.4276  0.2210
39135SOL     OW29128   8.436   7.897   2.145  0.1729 -0.6879 -0.1201
39135SOL    HW129129   8.386   7.817   2.129 -0.9175 -0.0455 -0.0265
39135SOL    HW229130   8.488   7.877   2.223 -2.4605 -0.3081  1.8746
39136SOL     OW29131   1.490   5.741   0.714 -0.5688 -0.4516 -0.3848
39136SOL    HW129132   1.415   5.724   0.771  0.1037 -1.1020  0.3408
39136SOL    HW229133   1.551   5.670   0.733  0.6327  0.5710 -0.2617
39137SOL     OW29134   2.203   3.404  10.007 -0.9442  0.0242  0.1406
39137SOL    HW129135   2.229   3.477  10.062  0.0213 -0.7076  0.6971
39137SOL    HW229136   2.146   3.351  10.063 -1.0141 -0.0458  0.0038
39138SOL     OW29137   4.351   6.839   5.356  0.3102 -0.0036 -0.1413
39138SOL    HW129138   4.267   6.795   5.370  0.3797 -0.3441 -0.7792
39138SOL    HW229139   4.349   6.913   5.417 -0.1272 -0.4490  0.4083
39139SOL     OW29140   4.889   3.478   0.941  0.1236 -0.0698 -0.4159
39139SOL    HW129141   4.815   3.438   0.987 -1.1328  0.4615 -1.8455
39139SOL    HW229142   4.959   3.413   0.945 -0.5784 -0.7884  0.5860
39140SOL     OW29143   6.260   8.095   1.095  0.5945  0.5862  0.0391
39140SOL    HW129144   6.176   8.129   1.127  0.9456  0.4187  1.1605
39140SOL    HW229145   6.251   8.000   1.098  1.3303  0.5332  1.6189
39141SOL     OW29146   0.570   3.301   3.434  0.4456  0.0460 -0.4705
39141SOL    HW129147   0.614   3.301   3.519  1.8017  2.3544 -1.0600
39141SOL    HW229148   0.497   3.362   3.445 -1.6208 -2.3529 -0.0376
39142SOL     OW29149   2.059   2.534   3.965  0.5058  0.4589  0.8434
39142SOL    HW129150   2.013   2.562   3.886  0.8232 -2.6334 -0.6121
39142SOL    HW229151   2.143   2.579   3.961  0.2894  0.8117 -0.2744
39143SOL     OW29152   5.537   7.352  10.531  0.9741  0.6731 -0.0555
39143SOL    HW129153   5.483   7.278  10.501  1.8035  0.5041 -1.2012
39143SOL    HW229154   5.516   7.360  10.624 -1.4817  1.0153 -0.5531
39144SOL     OW29155   2.473   1.794  11.166 -0.2866  0.1213  0.7197
39144SOL    HW129156   2.392   1.787  11.216  0.0244 -2.6106  0.9680
39144SOL    HW229157   2.534   1.737  11.212  1.1520  0.4968 -0.6604
39145SOL     OW29158   9.858   6.321   9.062 -0.4086  0.0073 -0.2398
39145SOL    HW129159   9.889   6.234   9.036  2.0517  0.9027 -0.5226
39145SOL    HW229160   9.763   6.311   9.070 -0.1246 -2.8858  0.5334
39146SOL     OW29161   4.562   2.458   7.322 -0.1286  0.4086  0.3305
39146SOL    HW129162   4.581   2.515   7.248  2.8200  3.0984  2.8518
39146SOL    HW229163   4.493   2.503   7.371  0.6622  0.7467  1.1761
39147SOL     OW29164   4.328   4.649  10.532  0.5643  0.5646 -0.2919
39147SOL    HW129165   4.377   4.567  10.532 -1.5094 -0.7728  0.8021
39147SOL    HW229166   4.254   4.632  10.473 -0.7721  1.0424  1.1816
39148SOL     OW29167   2.369   0.307   2.423 -0.1211 -0.0208  0.3196
39148SOL    HW129168   2.408   0.252   2.491  2.3778  0.3921 -0.6698
39148SOL    HW229169   2.369   0.395   2.460 -1.9916 -0.2714  1.0289
39149SOL     OW29170   1.149   0.863   5.130 -0.0187  0.2956  0.0564
39149SOL    HW129171   1.180   0.780   5.095  1.6055  1.0018 -0.2462
39149SOL    HW229172   1.064   0.842   5.170  0.1824 -1.4113 -0.3517
39150SOL     OW29173   3.422   5.256   1.762 -0.5374 -0.0468  0.2370
39150SOL    HW129174   3.332   5.290   1.761 -0.1828  0.8949 -0.6733
39150SOL    HW229175   3.477   5.333   1.749  0.4533 -0.5041  1.5453
39151SOL     OW29176   9.723   4.243   7.284 -0.4630  0.0035 -0.1537
39151SOL    HW129177   9.701   4.174   7.221  0.4349  0.5578 -1.1131
39151SOL    HW229178   9.743   4.196   7.365 -1.1095 -0.7654 -0.4240
39152SOL     OW29179   5.154   7.361   3.508 -0.2375  0.0958  0.0653
39152SOL    HW129180   5.134   7.406   3.426 -0.5380 -1.6805 -0.8709
39152SOL    HW229181   5.231   7.309   3.489 -1.6092 -2.0943  0.1867
39153SOL     OW29182   5.064   1.074   8.634  0.5130 -0.1851 -0.3368
39153SOL    HW129183   5.032   1.144   8.577  0.2968  0.7924  0.9233
39153SOL    HW229184   4.991   1.056   8.693 -0.3438 -3.2533 -2.1488
39154SOL     OW29185   0.635   6.487   5.512  0.7221  0.0942 -0.1104
39154SOL    HW129186   0.701   6.552   5.489  0.0871  0.6818 -0.2913
39154SOL    HW229187   0.562   6.538   5.547  1.1429 -0.6747  2.0303
39155SOL     OW29188   1.049   4.066  10.411  0.1450 -0.4197 -0.1926
39155SOL    HW129189   1.124   4.118  10.381  0.1014 -1.0390 -1.4831
39155SOL    HW229190   0.983   4.078  10.342 -0.4702 -0.8746  0.3039
39156SOL     OW29191   0.269   9.148   6.746 -0.4407  0.2015 -0.2862
39156SOL    HW129192   0.248   9.055   6.752 -0.0863  0.1925  1.5073
39156SOL    HW229193   0.204   9.191   6.801  1.2281  0.6480  1.4791
39157SOL     OW29194   2.981   9.883   8.437 -0.5969  1.0813  0.5023
39157SOL    HW129195   3.032   9.951   8.394 -0.9517  0.6270 -0.6853
39157SOL    HW229196   2.890   9.912   8.429 -0.6864  0.8548  0.6909
39158SOL     OW29197   8.362   7.434   9.236 -0.2655 -0.2299  0.2131
39158SOL    HW129198   8.374   7.529   9.233  1.5117 -0.3156  2.1467
39158SOL    HW229199   8.353   7.414   9.329  0.6585 -2.0699 -0.0385
39159SOL     OW29200  10.776   1.667   4.107 -0.7153 -0.1025  0.3630
39159SOL    HW129201  10.790   1.630   4.020  1.1726 -2.2580  1.4889
39159SOL    HW229202  10.814   1.755   4.101 -1.2840  0.0681 -1.1726
39160SOL     OW29203   5.810   2.152   5.991 -0.1722  0.5634 -0.0571
39160SOL    HW129204   5.867   2.219   6.027  2.9103 -0.3741 -2.7415
39160SOL    HW229205   5.828   2.074   6.045  0.4531  0.4921 -0.3653
39161SOL     OW29206   0.464   0.186   7.976  0.1330 -0.1113  0.4547
39161SOL    HW129207   0.500   0.267   8.011  2.8793  0.1299 -2.4326
39161SOL    HW229208   0.417   0.212   7.896  0.0016 -1.2314  0.1394
39162SOL     OW29209   9.547   8.431   6.217  0.8490 -0.6588  0.1588
39162SOL    HW129210   9.517   8.517   6.188 -0.4323 -1.3260 -0.5923
39162SOL    HW229211   9.611   8.404   6.151 -1.7957 -2.0182 -2.0854
39163SOL     OW29212   1.000   2.789   2.589 -0.8954 -0.2494  0.2207
39163SOL    HW129213   1.074   2.740   2.626 -0.4919 -0.1290 -0.4054
39163SOL    HW229214   0.959   2.727   2.529 -0.2767  0.2201 -0.7090
39164SOL     OW29215   2.705   1.056   3.815  0.3163  0.2074  0.0431
39164SOL    HW129216   2.752   1.119   3.869  0.9407 -1.5320  1.6535
39164SOL    HW229217   2.774   1.002   3.775 -0.2088 -0.9803  0.6746
39165SOL     OW29218   8.287  10.839   0.356  0.1071  0.1265  0.0294
39165SOL    HW129219   8.345  10.834   0.281  0.6329  0.3605  0.4173
39165SOL    HW229220   8.229  10.764   0.346  0.7352 -0.3427 -0.1524
39166SOL     OW29221   6.331   6.692   2.459  0.4090 -0.3360  0.2110
39166SOL    HW129222   6.323   6.677   2.364 -0.6400  1.1985  0.0193
39166SOL    HW229223   6.257   6.748   2.480  1.5207  0.6424  1.6728
39167SOL     OW29224   1.489   5.954   2.084 -0.4032 -0.1218 -0.3557
39167SOL    HW129225   1.558   5.909   2.035  1.8354  1.0111  1.5201
39167SOL    HW229226   1.521   6.044   2.092 -2.7080  0.7700 -0.3896
39168SOL     OW29227   3.115   0.559   3.718 -0.2928  0.4036  0.3501
39168SOL    HW129228   3.042   0.610   3.754 -0.2557  0.6993  0.0123
39168SOL    HW229229   3.076   0.509   3.646 -0.1553  0.5874  0.1480
39169SOL     OW29230   2.318   0.772  10.314  0.0086  0.4132  0.1367
39169SOL    HW129231   2.244   0.725  10.274 -0.2237  0.8785  0.0053
39169SOL    HW229232   2.380   0.703  10.338 -0.1484  0.0653 -0.4134
39170SOL     OW29233   7.525   4.149   1.952  0.0935  0.3211  0.8943
39170SOL    HW129234   7.560   4.142   2.041  0.5005  0.9943  0.7958
39170SOL    HW229235   7.578   4.217   1.911 -1.4044  1.4570  0.7745
39171SOL     OW29236   9.133  11.590   6.520  0.6643 -0.3726  0.7707
39171SOL    HW129237   9.073  11.587   6.595 -1.0588  1.0811 -0.4659
39171SOL    HW229238   9.096  11.526   6.458  0.2422  0.6515 -0.0656
39172SOL     OW29239   4.491  10.630   5.684 -0.1702  0.6328 -0.3023
39172SOL    HW129240   4.564  10.685   5.654 -0.3146  0.7926 -0.3630
39172SOL    HW229241   4.521  10.541   5.669  0.3487  0.6719  0.4451
39173SOL     OW29242   3.768   4.027  11.081 -0.6975  0.0893 -0.0146
39173SOL    HW129243   3.677   4.019  11.054 -0.8276  0.9550  0.1570
39173SOL    HW229244   3.767   4.010  11.175 -0.0669 -4.3243 -0.5460
39174SOL     OW29245   9.160   7.104   7.908 -0.3256 -0.9603 -0.3951
39174SOL    HW129246   9.244   7.103   7.954 -1.4378  2.0588  2.1584
39174SOL    HW229247   9.172   7.166   7.836 -0.3906 -0.2135  0.2152
39175SOL     OW29248   5.656   1.899   9.480 -0.4123 -0.7995 -0.0977
39175SOL    HW129249   5.581   1.934   9.432  0.4641  1.4651  0.0755
39175SOL    HW229250   5.688   1.972   9.533  2.1396 -1.5603 -0.4219
39176SOL     OW29251   2.188   9.346   6.037 -0.3676 -0.2879  0.1389
39176SOL    HW129252   2.143   9.410   6.091 -0.5023 -0.4572  0.2288
39176SOL    HW229253   2.151   9.262   6.064 -0.5297 -0.3604 -0.3114
39177SOL     OW29254   2.206  11.347   2.670 -0.1560 -0.2668  0.0071
39177SOL    HW129255   2.253  11.415   2.717  0.9601 -0.5844 -0.6204
39177SOL    HW229256   2.185  11.281   2.736  0.9976 -0.4965  0.1525
39178SOL     OW29257   2.794  10.713  11.019 -0.6328 -0.0719 -0.1355
39178SOL    HW129258   2.794  10.740  11.111  0.6080  1.0882 -0.4488
39178SOL    HW229259   2.715  10.659  11.010  0.0530 -1.5466  1.9842
39179SOL     OW29260   5.373  11.296   3.770 -0.1894  0.8133  0.0845
39179SOL    HW129261   5.423  11.263   3.695 -0.5348  0.5198 -0.0159
39179SOL    HW229262   5.330  11.219   3.806  1.8430  0.4887  2.0465
39180SOL     OW29263   9.912  10.187   0.789  0.2257  0.4000  0.2424
39180SOL    HW129264   9.938  10.265   0.740  0.6901  0.6394  0.8448
39180SOL    HW229265   9.965  10.190   0.869 -1.4457  0.7389  1.3968
39181SOL     OW29266   0.647   0.710   7.804  0.1339 -0.0002  0.0646
39181SOL    HW129267   0.628   0.749   7.719 -1.1866 -1.4151 -0.3397
39181SOL    HW229268   0.586   0.753   7.865 -0.1567 -0.2402 -0.0550
39182SOL     OW29269   4.561   9.082   3.448 -0.1939  0.5744 -0.2085
39182SOL    HW129270   4.497   9.087   3.519 -0.7529  1.5248 -0.7519
39182SOL    HW229271   4.645   9.102   3.490 -0.2369 -0.6496  0.5061
39183SOL     OW29272   1.408   5.340   9.496  0.0854 -0.2069 -0.1677
39183SOL    HW129273   1.423   5.299   9.581  1.4449  0.5386 -0.0204
39183SOL    HW229274   1.485   5.396   9.482  1.5526 -2.6895 -3.3304
39184SOL     OW29275   2.375  10.538   1.896 -0.0061 -0.2836  0.5057
39184SOL    HW129276   2.356  10.582   1.978  1.3326 -2.7897  2.2844
39184SOL    HW229277   2.421  10.458   1.921  1.6116 -0.5575 -2.7620
39185SOL     OW29278  11.446   6.170   2.549 -0.5019  0.0026 -0.0304
39185SOL    HW129279  11.497   6.094   2.523 -1.4127 -0.8411  0.5569
39185SOL    HW229280  11.497   6.210   2.619 -0.2488 -0.3598 -0.0030
39186SOL     OW29281   2.454   6.468   3.313  0.3989  0.2675  0.1467
39186SOL    HW129282   2.407   6.549   3.289  0.6316  1.0089  2.0159
39186SOL    HW229283   2.442   6.461   3.408  1.8574 -0.9734  0.2726
39187SOL     OW29284   4.686   3.711   8.523 -0.5070  0.1043 -0.5173
39187SOL    HW129285   4.704   3.634   8.469  0.9651 -0.1127  0.2354
39187SOL    HW229286   4.770   3.756   8.529  0.1511 -1.2309  3.6592
39188SOL     OW29287   1.932  11.241   1.041 -0.0957  0.0878  0.5083
39188SOL    HW129288   1.836  11.235   1.044 -0.2349 -0.9269 -2.6363
39188SOL    HW229289   1.959  11.170   0.983  2.4980  0.9136  0.5871
39189SOL     OW29290   2.245   8.680   1.328 -0.0571  0.1099  0.2882
39189SOL    HW129291   2.214   8.739   1.259 -0.0429  0.3487  0.4828
39189SOL    HW229292   2.249   8.736   1.406 -1.0122 -0.3865  0.7068
39190SOL     OW29293  11.230   2.227   5.557  0.0498 -0.4440  0.2167
39190SOL    HW129294  11.197   2.317   5.559  0.8384 -0.1382 -0.1444
39190SOL    HW229295  11.264   2.216   5.469 -0.6820 -1.3444  0.0310
39191SOL     OW29296   8.382   2.135   3.163 -0.2147  0.0472 -0.1491
39191SOL    HW129297   8.325   2.063   3.189 -0.2588  0.3325  0.5590
39191SOL    HW229298   8.467   2.094   3.147  0.2101  0.0244  1.8384
39192SOL     OW29299   6.725   6.779   4.623  0.2255  0.2955  0.4117
39192SOL    HW129300   6.796   6.787   4.686 -0.5246 -1.2768  1.5456
39192SOL    HW229301   6.762   6.810   4.540  1.1479  2.7015  1.6421
39193SOL     OW29302   5.506   8.999   7.171 -0.0535  0.1006  0.2251
39193SOL    HW129303   5.487   8.969   7.082 -0.2228 -2.1616  0.9477
39193SOL    HW229304   5.569   8.936   7.205  0.6951  1.4343  1.4355
39194SOL     OW29305   5.046   2.926   0.930  0.1791 -0.1808 -0.2628
39194SOL    HW129306   5.119   2.881   0.889  0.3869  0.1678 -0.2720
39194SOL    HW229307   5.074   2.940   1.020 -0.7834 -2.1143  0.3850
39195SOL     OW29308   1.879   8.811   2.603  0.4690  0.4276 -0.0606
39195SOL    HW129309   1.892   8.900   2.570  0.9346 -0.0086 -1.1199
39195SOL    HW229310   1.796   8.814   2.650  0.6570  1.5018  0.2340
39196SOL     OW29311  11.071   6.348  11.023  0.3085  0.2592 -0.1470
39196SOL    HW129312  11.029   6.425  10.985 -0.0527 -0.5948 -1.5603
39196SOL    HW229313  11.153   6.381  11.061 -0.1474  1.4272 -0.1517
39197SOL     OW29314   5.292   1.284   5.327  0.5376  0.6984  0.0527
39197SOL    HW129315   5.220   1.236   5.368  0.1404 -0.0779 -1.4750
39197SOL    HW229316   5.342   1.218   5.279  1.7096  1.3782  0.2860
39198SOL     OW29317   4.443  11.292   1.979 -0.0290  0.1539  0.4611
39198SOL    HW129318   4.424  11.257   1.892 -1.3700 -2.2999  1.6355
39198SOL    HW229319   4.524  11.248   2.006  1.5723  2.4443 -0.2389
39199SOL     OW29320   2.178  11.755   3.627 -0.5171  0.0932 -0.0064
39199SOL    HW129321   2.203  11.847   3.616 -3.5763  1.0606  0.2566
39199SOL    HW229322   2.224  11.727   3.706  0.6282  1.3144 -0.2059
39200SOL     OW29323   0.872   6.381   9.836 -0.5891 -0.3293 -0.2207
39200SOL    HW129324   0.863   6.327   9.914  0.1205  0.7918  0.6833
39200SOL    HW229325   0.869   6.471   9.869 -0.9122  0.1833 -1.5701
39201SOL     OW29326   4.408  11.048   1.568  0.0983  0.1264 -0.1060
39201SOL    HW129327   4.381  11.014   1.484 -0.0516 -1.3929  0.5322
39201SOL    HW229328   4.498  11.078   1.554  0.0672 -0.0887 -0.7983
39202SOL     OW29329   3.937   1.980   5.508 -0.2652 -0.2150  0.2145
39202SOL    HW129330   4.022   1.968   5.465 -0.6777  0.0535 -0.7107
39202SOL    HW229331   3.889   1.899   5.490 -0.8492  0.3367 -0.8401
39203SOL     OW29332   2.454   8.281   1.876  0.3861 -0.3688  0.1752
39203SOL    HW129333   2.408   8.202   1.904 -1.6839  1.3427  1.9493
39203SOL    HW229334   2.544   8.267   1.905 -0.1876 -1.5815  1.5202
39204SOL     OW29335   2.163   2.528   9.820 -0.3239 -0.4952  0.6637
39204SOL    HW129336   2.184   2.530   9.727 -0.9487  1.3646  0.5189
39204SOL    HW229337   2.090   2.465   9.827 -2.0110  1.2043 -0.5535
39205SOL     OW29338   8.997   3.157   0.128  0.6213  0.3180  0.1925
39205SOL    HW129339   9.039   3.145   0.213  2.2846  2.8926 -0.1433
39205SOL    HW229340   8.956   3.243   0.133 -1.7574 -0.6702 -0.7152
39206SOL     OW29341   3.066   4.165   1.694  0.0316  0.1984  0.0726
39206SOL    HW129342   3.069   4.091   1.634  0.2786  0.0584  0.2541
39206SOL    HW229343   3.158   4.184   1.713 -0.0518  0.0947  0.5837
39207SOL     OW29344   1.029   3.649   6.959  0.0019 -0.0976 -0.2765
39207SOL    HW129345   1.015   3.586   6.888  1.4861 -0.3255 -0.4017
39207SOL    HW229346   0.963   3.627   7.024  0.5872 -1.9314 -0.2388
39208SOL     OW29347   8.160   2.670   8.057 -0.6753 -0.8681  0.1623
39208SOL    HW129348   8.243   2.708   8.085 -1.1522  0.9852 -0.8015
39208SOL    HW229349   8.181   2.578   8.040  1.0609 -0.5519  0.3673
39209SOL     OW29350   2.348   6.476   3.938 -0.0663 -0.4050 -0.2515
39209SOL    HW129351   2.265   6.435   3.914  0.7971 -2.4714  0.0904
39209SOL    HW229352   2.405   6.403   3.964  1.4996  1.0407  0.6346
39210SOL     OW29353   9.197   1.970   7.547  0.1741 -0.3933 -0.5578
39210SOL    HW129354   9.208   1.890   7.495  0.3485 -0.1389 -0.9149
39210SOL    HW229355   9.110   2.002   7.524  0.5537  0.1357 -1.2772
39211SOL     OW29356   7.318   5.487  10.957 -0.5832 -0.3429 -0.5814
39211SOL    HW129357   7.260   5.556  10.991  2.1569  2.4215 -1.0010
39211SOL    HW229358   7.313   5.496  10.862  0.6794  0.1837 -0.6249
39212SOL     OW29359   8.460   4.433  10.498 -0.3344  0.0506  0.5180
39212SOL    HW129360   8.406   4.500  10.539  1.8935  1.2933  1.6194
39212SOL    HW229361   8.469   4.365  10.565 -0.4171 -0.0784  0.3978
39213SOL     OW29362   6.505   9.125   6.425 -0.5325  0.2286  0.2734
39213SOL    HW129363   6.570   9.195   6.410  0.1609 -0.4007  0.2798
39213SOL    HW229364   6.470   9.106   6.338  1.3691 -1.3844 -0.2165
39214SOL     OW29365   8.128  10.904   4.048 -0.0823 -0.0015  0.4470
39214SOL    HW129366   8.122  10.991   4.007  0.3165 -0.9480 -1.7637
39214SOL    HW229367   8.218  10.877   4.031 -0.7132 -1.5869 -0.4813
39215SOL     OW29368  10.166  11.957   5.355 -0.3481 -0.2569  0.3993
39215SOL    HW129369  10.076  11.989   5.355 -0.2770 -0.0258  1.4059
39215SOL    HW229370  10.158  11.863   5.368 -0.4114 -0.0431  2.1392
39216SOL     OW29371   9.510   1.168   6.638  0.0004 -0.0028  0.3713
39216SOL    HW129372   9.443   1.232   6.663 -1.0721  0.0492 -2.2974
39216SOL    HW229373   9.470   1.083   6.656 -0.0499  0.0549  0.5285
39217SOL     OW29374   6.040   7.991   2.599  0.6078 -0.5218 -0.0215
39217SOL    HW129375   6.028   7.932   2.525  1.0285  1.0241 -1.3950
39217SOL    HW229376   5.957   8.040   2.603  0.3561 -1.0090  0.9415
39218SOL     OW29377   9.037   2.679  10.532  0.1778 -0.7257 -0.1419
39218SOL    HW129378   9.102   2.736  10.491 -0.9393  0.0689 -0.8637
39218SOL    HW229379   9.009   2.621  10.461 -1.0712  0.0215 -0.2849
39219SOL     OW29380  11.247   4.079   4.501  0.3609  0.1276 -0.0246
39219SOL    HW129381  11.289   4.004   4.460 -0.6402  0.3997 -1.6470
39219SOL    HW229382  11.267   4.071   4.594  1.0055 -1.6493 -0.2922
39220SOL     OW29383   4.016   6.209   1.677 -0.4100  0.1056 -0.1854
39220SOL    HW129384   3.966   6.190   1.757  1.4175 -1.2563  0.7128
39220SOL    HW229385   3.959   6.179   1.606 -2.2686  1.7714  0.5216
39221SOL     OW29386   8.498  10.314   2.756  0.3376  0.5616 -0.3903
39221SOL    HW129387   8.432  10.254   2.791 -1.1200  1.6905 -1.1200
39221SOL    HW229388   8.513  10.377   2.826  2.1332 -0.7471  0.5155
39222SOL     OW29389   2.922   1.165   4.570  0.4080  0.4218 -0.0804
39222SOL    HW129390   2.838   1.133   4.537 -0.1373  1.3182  0.3988
39222SOL    HW229391   2.899   1.231   4.635  1.4126 -1.2452  2.1270
39223SOL     OW29392   2.111   3.378   4.504 -0.5712 -0.0889 -0.6984
39223SOL    HW129393   2.088   3.425   4.424 -0.0952 -0.9380 -1.3588
39223SOL    HW229394   2.077   3.432   4.575  0.2230  1.3848 -1.3995
39224SOL     OW29395   4.224   8.082  10.516  0.1042 -0.1705 -0.0550
39224SOL    HW129396   4.217   8.126  10.431 -2.1640 -0.4760 -0.1043
39224SOL    HW229397   4.139   8.038  10.526 -0.2167  0.9226  2.9332
39225SOL     OW29398  10.420   5.807   9.910  0.8502 -0.0704  0.0501
39225SOL    HW129399  10.500   5.841   9.948  1.0175  2.4719 -2.2324
39225SOL    HW229400  10.350   5.839   9.968  1.3476 -0.8404  1.1019
39226SOL     OW29401   1.597   5.780   4.097 -0.1549 -0.0771  0.1453
39226SOL    HW129402   1.643   5.796   4.179 -1.1504 -0.6310  0.8499
39226SOL    HW229403   1.627   5.848   4.037  2.1861 -0.9135  0.2893
39227SOL     OW29404   6.127   3.286  11.383 -0.1934 -0.0905  0.1749
39227SOL    HW129405   6.104   3.364  11.333  0.7896 -0.1452 -0.3939
39227SOL    HW229406   6.107   3.308  11.474 -3.2166 -0.4254 -0.3065
39228SOL     OW29407   3.827   0.972   8.457  0.0504  0.0141  0.1976
39228SOL    HW129408   3.736   0.975   8.489  0.5805  0.3102  1.7373
39228SOL    HW229409   3.880   0.962   8.536  1.3202 -1.1556 -0.7620
39229SOL     OW29410   5.766   7.405   3.211 -0.5090  0.2721 -0.5142
39229SOL    HW129411   5.713   7.428   3.135 -0.0422  0.6511 -0.7310
39229SOL    HW229412   5.803   7.319   3.190 -1.1709 -0.0718 -0.2869
39230SOL     OW29413   8.332  11.477   6.855 -0.0021 -0.3944 -0.0333
39230SOL    HW129414   8.337  11.521   6.940  0.4715 -2.4130  1.0228
39230SOL    HW229415   8.407  11.511   6.806 -0.8008  1.4892 -0.0571
39231SOL     OW29416   6.852   9.821   0.029  0.0681 -0.1354  0.1541
39231SOL    HW129417   6.860   9.868   0.112  0.4101  0.8460 -0.4170
39231SOL    HW229418   6.763   9.788   0.029 -0.5911  1.5380  0.0665
39232SOL     OW29419  11.929   2.157   5.765 -0.6608  0.5896 -0.1705
39232SOL    HW129420  11.902   2.074   5.724  1.0545 -1.1639  1.9767
39232SOL    HW229421  11.973   2.204   5.695  0.5880 -1.4738 -0.8767
39233SOL     OW29422   2.883  11.471   1.924 -0.5779 -0.0412 -0.1729
39233SOL    HW129423   2.908  11.380   1.935 -1.0525 -0.3368 -1.4029
39233SOL    HW229424   2.799  11.468   1.880 -0.4248  0.9981 -0.5746
39234SOL     OW29425   1.382   0.449   4.033  0.5837  0.0228  0.0403
39234SOL    HW129426   1.326   0.505   3.980  0.0812  0.8493  1.4112
39234SOL    HW229427   1.350   0.360   4.016 -0.3963  0.3904 -0.0580
39235SOL     OW29428   5.689  10.254  11.641  0.1766 -0.0545  0.3594
39235SOL    HW129429   5.768  10.301  11.613 -1.1206  1.0877 -1.6019
39235SOL    HW229430   5.630  10.323  11.671  0.1071 -0.9581  2.4090
39236SOL     OW29431  10.924   6.990  11.945  0.7937 -0.2904  0.4718
39236SOL    HW129432  10.982   6.933  11.995  1.1385 -0.4182 -0.0662
39236SOL    HW229433  10.975   7.016  11.869  0.9774  1.4836  1.1395
39237SOL     OW29434   8.021   3.731   4.296 -0.1373  0.6390  0.0775
39237SOL    HW129435   8.112   3.723   4.325 -0.3073  0.9064  0.7011
39237SOL    HW229436   7.992   3.641   4.285 -0.2129  0.5112  1.2209
39238SOL     OW29437  11.801   0.445   9.616 -0.2940 -0.0605  0.0555
39238SOL    HW129438  11.782   0.537   9.638 -0.0803  0.0640 -0.2848
39238SOL    HW229439  11.853   0.413   9.689  2.2439  0.9574 -1.1982
39239SOL     OW29440   8.656   6.430   3.723  0.5975  0.4387  0.4701
39239SOL    HW129441   8.591   6.446   3.791  0.4871  0.6571  0.3133
39239SOL    HW229442   8.618   6.466   3.643  0.6240 -0.0202  0.2426
39240SOL     OW29443   9.321   7.151   5.285 -0.2136 -0.7747  0.2793
39240SOL    HW129444   9.367   7.140   5.368  0.1315 -0.2936  0.1563
39240SOL    HW229445   9.300   7.245   5.282 -1.1753 -0.9733  0.3215
39241SOL     OW29446   1.435   0.076   9.470  0.2643 -0.3129  0.6374
39241SOL    HW129447   1.520   0.059   9.431  0.0607  0.0319  0.0247
39241SOL    HW229448   1.447   0.061   9.563  0.8931 -0.6518  0.5033
39242SOL     OW29449   7.626  11.771   0.442 -0.0296  0.1114 -0.5010
39242SOL    HW129450   7.592  11.764   0.531  1.2176 -0.5065 -0.0522
39242SOL    HW229451   7.607  11.686   0.402 -0.8912  0.4980 -0.9708
39243SOL     OW29452   7.840   7.722  10.442  0.0438 -0.0522 -0.0476
39243SOL    HW129453   7.928   7.730  10.479 -0.7109 -0.4375  1.9922
39243SOL    HW229454   7.805   7.811  10.443  0.3804  0.0984 -0.8442
39244SOL     OW29455  10.127   4.215  10.686 -0.0547  0.7532  0.2929
39244SOL    HW129456  10.104   4.303  10.717  1.0889  0.8858  0.7883
39244SOL    HW229457  10.222   4.212  10.690 -0.0824 -0.5503  0.3646
39245SOL     OW29458   0.994   3.595   0.140  0.4516 -0.3947  0.2485
39245SOL    HW129459   1.027   3.653   0.072  0.1426  1.3990  1.5528
39245SOL    HW229460   1.052   3.518   0.136  2.9095  1.3121  0.4481
39246SOL     OW29461  10.187   1.378  11.867 -1.0028 -0.0554 -0.1610
39246SOL    HW129462  10.166   1.366  11.959 -0.3543  0.8579  0.1121
39246SOL    HW229463  10.267   1.429  11.866 -1.4113  0.6081 -1.2335
39247SOL     OW29464   4.856   2.380   0.080 -0.3807  0.2322  0.9998
39247SOL    HW129465   4.916   2.354   0.011 -2.5161 -0.4247 -0.7462
39247SOL    HW229466   4.781   2.321   0.070 -0.5119 -0.4035  4.4099
39248SOL     OW29467  10.135  10.481   0.675 -0.0124  0.1665  0.5151
39248SOL    HW129468  10.203  10.461   0.739 -1.6777  0.3208  2.4459
39248SOL    HW229469  10.111  10.572   0.693  0.3214  0.6170 -1.1842
39249SOL     OW29470   8.480   6.765   2.889 -0.4306 -0.2319 -0.4806
39249SOL    HW129471   8.515   6.698   2.947 -2.8997 -0.5360  0.8081
39249SOL    HW229472   8.498   6.848   2.934  0.5313 -0.1987 -0.9116
39250SOL     OW29473   6.298   3.784  10.431 -0.8703 -0.2487  0.4763
39250SOL    HW129474   6.282   3.868  10.474  0.7922  0.0751  0.5323
39250SOL    HW229475   6.310   3.723  10.504  1.4405  0.2021  0.5632
39251SOL     OW29476  11.144  10.688  11.056  0.4391  0.8156  0.0774
39251SOL    HW129477  11.230  10.708  11.093  1.5955  0.1909 -2.0905
39251SOL    HW229478  11.128  10.597  11.081  0.9949  0.5453 -0.5246
39252SOL     OW29479   8.048   5.722   4.745  0.2660 -0.3641 -0.4319
39252SOL    HW129480   8.057   5.628   4.730  0.3713 -0.1840 -1.5848
39252SOL    HW229481   7.986   5.729   4.817  1.0763 -1.3395  0.3947
39253SOL     OW29482   7.787   9.533   4.971 -0.2084  0.1201 -0.3399
39253SOL    HW129483   7.840   9.535   5.051 -2.1176  1.0877  0.9717
39253SOL    HW229484   7.848   9.558   4.901  1.3199  0.0546  0.9049
39254SOL     OW29485   4.999   5.252   5.156  0.9117  0.4930  0.1755
39254SOL    HW129486   4.979   5.164   5.126 -0.5194  0.8519 -0.0154
39254SOL    HW229487   5.067   5.240   5.222  0.6289 -0.7575  0.2651
39255SOL     OW29488  10.998   5.766   1.812  0.0491  0.1163  0.1441
39255SOL    HW129489  10.984   5.764   1.907 -1.1618 -0.4772 -0.0165
39255SOL    HW229490  10.914   5.797   1.777 -0.3895 -1.9600 -0.8432
39256SOL     OW29491   4.729   2.024   2.823  0.5540 -0.1389  0.0586
39256SOL    HW129492   4.713   2.021   2.917 -0.6867 -0.0957 -0.1361
39256SOL    HW229493   4.737   2.117   2.804 -1.3183  0.0101 -0.1845
39257SOL     OW29494   9.171   8.473  10.486 -0.2697  0.1871  0.0692
39257SOL    HW129495   9.176   8.491  10.392 -0.5282  0.0494  0.0282
39257SOL    HW229496   9.260   8.488  10.518 -0.0374 -0.3443 -0.3045
39258SOL     OW29497   4.018   7.075  11.723  0.4799 -0.4415  0.1352
39258SOL    HW129498   3.939   7.036  11.758  0.1300 -1.0117 -1.2116
39258SOL    HW229499   4.063   7.112  11.799 -0.0120 -1.9773  1.2245
39259SOL     OW29500   6.960   6.471   8.419 -0.0025 -0.5083 -0.2299
39259SOL    HW129501   6.911   6.540   8.373 -0.5879 -1.3007 -0.8297
39259SOL    HW229502   6.915   6.390   8.395  0.0861 -1.0201  1.2302
39260SOL     OW29503   8.043  10.200   8.167 -0.3605 -1.0139  0.5789
39260SOL    HW129504   8.071  10.268   8.105 -0.1962  0.3257  2.0512
39260SOL    HW229505   7.998  10.135   8.113 -0.6166  0.3150 -0.8791
39261SOL     OW29506   2.532   4.211   6.735  0.2623 -0.2004  0.3871
39261SOL    HW129507   2.607   4.152   6.722  0.4742 -0.1005  1.0779
39261SOL    HW229508   2.572   4.295   6.755 -0.0144  0.5575 -1.9331
39262SOL     OW29509   8.591  10.363   2.510 -0.0609 -0.2331  0.4930
39262SOL    HW129510   8.563  10.333   2.596  1.2305 -1.3492  0.5532
39262SOL    HW229511   8.681  10.394   2.523 -0.7002  2.0186  0.0405
39263SOL     OW29512   2.385   6.318   1.152 -0.0140  0.0390 -0.1978
39263SOL    HW129513   2.302   6.362   1.134 -0.3916 -0.3849  0.4517
39263SOL    HW229514   2.384   6.240   1.097 -0.7486 -0.7654  0.8981
39264SOL     OW29515   0.114   7.551  10.346  0.6080  0.2937  1.0168
39264SOL    HW129516   0.153   7.498  10.275 -0.5172 -0.6510  1.0777
39264SOL    HW229517   0.123   7.641  10.315  1.1588 -0.0231  0.1892
39265SOL     OW29518   3.301  10.662  11.133  0.0322 -0.0683 -0.1215
39265SOL    HW129519   3.226  10.648  11.074  0.8231 -0.7058 -0.9993
39265SOL    HW229520   3.358  10.587  11.117  1.2641  0.8455 -0.0538
39266SOL     OW29521   9.215  11.734   4.608  0.0167  0.1346  0.0025
39266SOL    HW129522   9.229  11.701   4.697  0.8129 -1.4616 -0.6914
39266SOL    HW229523   9.303  11.741   4.570 -0.3019  0.9785 -0.6245
39267SOL     OW29524   0.462   7.402   5.667 -0.2339 -0.1629 -0.7974
39267SOL    HW129525   0.537   7.387   5.724 -0.5701 -0.5082 -0.4324
39267SOL    HW229526   0.466   7.495   5.643  0.3185 -0.1891 -0.8039
39268SOL     OW29527   4.250   2.493   7.582 -0.2754 -0.4542  0.2369
39268SOL    HW129528   4.343   2.471   7.576 -0.3480 -0.6341 -0.2979
39268SOL    HW229529   4.234   2.507   7.676  0.1196 -1.1793  0.4164
39269SOL     OW29530   2.794   1.397   3.740 -0.1808  0.1483 -0.1355
39269SOL    HW129531   2.705   1.402   3.774  0.3465 -0.1272  1.3999
39269SOL    HW229532   2.836   1.330   3.794  0.4843 -0.9724 -1.9862
39270SOL     OW29533   0.464   8.410   8.308 -0.1913 -0.1199  0.3825
39270SOL    HW129534   0.477   8.495   8.265 -1.3264 -0.0224  0.2199
39270SOL    HW229535   0.443   8.432   8.399 -1.8927 -0.1486  0.0216
39271SOL     OW29536   4.273   1.533   7.815 -0.5191  0.3435 -0.0972
39271SOL    HW129537   4.255   1.515   7.907  3.2876  0.5449  0.8645
39271SOL    HW229538   4.292   1.627   7.812 -1.8569  0.6126 -1.4040
39272SOL     OW29539   6.231  11.427  10.871  0.0716 -0.0281 -0.4221
39272SOL    HW129540   6.152  11.380  10.846 -0.2926 -0.6924  1.7799
39272SOL    HW229541   6.296  11.358  10.885  0.6247  0.4119 -0.7654
39273SOL     OW29542   9.337   0.529   8.463  0.5444 -0.3488 -0.2577
39273SOL    HW129543   9.271   0.461   8.480  1.2061 -0.8306  0.4302
39273SOL    HW229544   9.316   0.561   8.375 -0.9900 -0.0584  0.1725
39274SOL     OW29545   3.969   6.244   9.465 -0.2539 -0.4471 -0.3131
39274SOL    HW129546   4.055   6.283   9.452 -0.1216 -1.0110 -1.2164
39274SOL    HW229547   3.955   6.190   9.387 -0.3941 -2.2568  0.8914
39275SOL     OW29548  11.541   6.571   6.600 -0.3104 -0.1443 -1.0289
39275SOL    HW129549  11.573   6.525   6.522 -0.8533  0.6728 -1.7597
39275SOL    HW229550  11.592   6.652   6.602 -1.0749  0.3519 -1.1936
39276SOL     OW29551   4.304  10.463   1.777  0.2587 -0.4158  0.5838
39276SOL    HW129552   4.233  10.468   1.840 -1.7138 -2.2944 -1.3094
39276SOL    HW229553   4.336  10.554   1.769 -0.7025  0.1737  2.7681
39277SOL     OW29554   2.648  11.430   5.154  0.2247 -0.3797 -0.6040
39277SOL    HW129555   2.683  11.385   5.230 -0.3807 -0.6512 -0.4801
39277SOL    HW229556   2.567  11.384   5.133  1.0505 -1.1635 -2.2442
39278SOL     OW29557   0.312   4.383   0.263  0.3952 -0.2261 -0.2171
39278SOL    HW129558   0.251   4.434   0.316 -0.2604 -0.2449 -0.9464
39278SOL    HW229559   0.273   4.381   0.176  0.5877 -1.6610 -0.3001
39279SOL     OW29560   1.352  11.309   7.329 -0.0336 -0.8981 -0.0195
39279SOL    HW129561   1.265  11.283   7.297  0.2335 -1.3549 -0.3945
39279SOL    HW229562   1.334  11.357   7.410 -0.8055  1.2120 -1.3557
39280SOL     OW29563   2.501   1.888   6.273  0.3850 -0.0749 -0.5691
39280SOL    HW129564   2.461   1.845   6.197 -1.0599  0.3156 -0.0684
39280SOL    HW229565   2.595   1.877   6.260  0.1332 -0.9817 -1.8424
39281SOL     OW29566   5.497   4.917   1.406  0.4390 -0.5984  0.2058
39281SOL    HW129567   5.497   4.830   1.367  1.3476 -0.5202  0.0017
39281SOL    HW229568   5.573   4.960   1.367 -0.6089  0.6694 -0.5247
39282SOL     OW29569  10.252  10.318   7.691  0.0653  0.3307  0.4260
39282SOL    HW129570  10.286  10.319   7.780  0.0639  0.9187  0.4192
39282SOL    HW229571  10.301  10.386   7.645 -1.5125  1.6378  0.5839
39283SOL     OW29572   8.370   7.132   1.327 -1.0532  0.8849  0.0189
39283SOL    HW129573   8.380   7.047   1.283 -0.5841 -0.9561  3.3588
39283SOL    HW229574   8.439   7.187   1.289  0.3694 -1.0938 -0.3978
39284SOL     OW29575   5.921   8.549   1.992  0.4291  0.2142 -0.4323
39284SOL    HW129576   5.982   8.617   2.020  2.2798 -1.0470 -1.2032
39284SOL    HW229577   5.942   8.534   1.900 -1.6849  0.3304 -1.0014
39285SOL     OW29578   4.454   2.000  11.096 -0.3137 -0.0228  0.1401
39285SOL    HW129579   4.487   2.041  11.176  1.5538 -0.2498 -0.4651
39285SOL    HW229580   4.412   2.071  11.047  0.5937  0.6208  0.2817
39286SOL     OW29581   2.975   5.530   7.345 -0.3785 -0.4766  0.7699
39286SOL    HW129582   3.034   5.544   7.271 -3.0039  0.6780 -1.2938
39286SOL    HW229583   2.991   5.605   7.402  0.6651 -0.5899  0.6424
39287SOL     OW29584   9.730   2.005   1.436 -0.1570  0.4211  0.1497
39287SOL    HW129585   9.820   2.012   1.404 -0.6065  1.6552 -0.9772
39287SOL    HW229586   9.682   1.967   1.362 -0.1406 -2.8439  1.6716
39288SOL     OW29587   0.679   8.652  10.071 -0.2063 -0.0476  0.4355
39288SOL    HW129588   0.724   8.649  10.155 -0.3624  0.4369  0.5411
39288SOL    HW229589   0.745   8.628  10.006  0.6022  2.0353  0.4374
39289SOL     OW29590  11.364  10.993   9.683 -0.4765  0.2363  0.3230
39289SOL    HW129591  11.374  11.087   9.699 -0.6105  0.4387 -0.7027
39289SOL    HW229592  11.451  10.964   9.656 -1.2049  0.8746 -3.1257
39290SOL     OW29593   3.991   3.071   1.989 -0.4652  0.3370  0.4558
39290SOL    HW129594   3.914   3.016   1.972  0.1623 -0.0347 -1.4003
39290SOL    HW229595   4.060   3.009   2.012 -0.4208  0.5822  1.0032
39291SOL     OW29596   9.379   6.749   4.168  0.0552 -0.0858 -0.0834
39291SOL    HW129597   9.454   6.802   4.143  0.0616 -1.4580 -3.5712
39291SOL    HW229598   9.415   6.664   4.192 -0.2646  0.0222  0.8478
39292SOL     OW29599   8.067   2.674  11.336  0.2572  0.7009 -0.0021
39292SOL    HW129600   8.158   2.677  11.367 -0.2846  2.2636  1.6526
39292SOL    HW229601   8.031   2.758  11.362 -1.3539  0.6000 -1.7354
39293SOL     OW29602   3.572   5.399   2.543  0.4223  0.2485  0.1484
39293SOL    HW129603   3.661   5.387   2.576  0.9169  1.0464 -0.8317
39293SOL    HW229604   3.518   5.343   2.599  1.5457 -0.3194  0.7072
39294SOL     OW29605   6.168   9.521   9.167 -0.0446 -0.6237  0.0590
39294SOL    HW129606   6.136   9.468   9.094 -0.7243  1.0640 -0.9176
39294SOL    HW229607   6.252   9.556   9.135 -1.1373  1.4907 -0.6563
39295SOL     OW29608   2.134   7.447   9.971  0.2011  0.1023 -0.4609
39295SOL    HW129609   2.091   7.494  10.042  0.4193  0.0294 -0.2805
39295SOL    HW229610   2.173   7.370  10.012 -2.1632 -1.5487 -1.1319
39296SOL     OW29611   4.438   0.657   7.953  0.2234  0.5791  0.2556
39296SOL    HW129612   4.509   0.721   7.966 -0.0016  0.7776  0.5165
39296SOL    HW229613   4.423   0.620   8.040  1.9551 -1.5593 -0.2642
39297SOL     OW29614   9.484  10.115   5.847  0.1182 -0.5566  0.2386
39297SOL    HW129615   9.401  10.162   5.853  0.0043 -0.7814  0.4560
39297SOL    HW229616   9.526  10.131   5.931 -1.1151 -3.0426  1.4542
39298SOL     OW29617  10.036   3.872   4.653 -0.5538  0.1024  0.1530
39298SOL    HW129618   9.983   3.940   4.611 -0.6111 -1.1114 -1.8741
39298SOL    HW229619  10.088   3.835   4.582  0.5815 -0.9803  1.4855
39299SOL     OW29620   1.415   0.172   7.852 -0.4484  0.3077 -0.3494
39299SOL    HW129621   1.414   0.103   7.786 -0.7921  0.0081 -0.0328
39299SOL    HW229622   1.379   0.249   7.807 -0.4188  0.1789 -0.5933
39300SOL     OW29623   7.048   3.850   0.776 -0.2301  0.5715 -0.5091
39300SOL    HW129624   7.007   3.790   0.838  1.0030 -0.2788 -0.4712
39300SOL    HW229625   7.142   3.844   0.795  0.0596  1.3175 -1.5674
39301SOL     OW29626   3.106   1.422  11.431 -0.1810 -0.0956 -0.6865
39301SOL    HW129627   3.061   1.480  11.493  1.9419  1.0290 -0.1253
39301SOL    HW229628   3.038   1.359  11.404 -1.7597  0.7852  1.0037
39302SOL     OW29629   1.485   3.694   4.606  0.1117  0.1650 -0.0451
39302SOL    HW129630   1.402   3.648   4.591  0.0730 -0.0244  0.7170
39302SOL    HW229631   1.553   3.629   4.587  0.0788  0.1914 -0.2528
39303SOL     OW29632   2.877  10.692   2.647 -0.4302  0.0521 -0.6355
39303SOL    HW129633   2.792  10.648   2.651  0.4188 -1.6420  3.6054
39303SOL    HW229634   2.857  10.784   2.658 -1.7842 -0.0667 -1.7924
39304SOL     OW29635   6.664  11.102   3.665 -0.0890  0.0713 -0.4325
39304SOL    HW129636   6.749  11.140   3.687  1.0864  0.0557 -4.2173
39304SOL    HW229637   6.613  11.176   3.631 -0.7975 -0.3192 -0.2345
39305SOL     OW29638   2.931   1.244   8.789  0.3435  0.1824  0.2024
39305SOL    HW129639   2.961   1.182   8.723  3.6790 -0.4621  2.0770
39305SOL    HW229640   2.893   1.190   8.858 -1.3646  0.6954 -0.2919
39306SOL     OW29641   4.634  10.779  11.604  0.2337 -0.2605 -0.5987
39306SOL    HW129642   4.569  10.845  11.628 -0.0128  0.1896 -2.3527
39306SOL    HW229643   4.587  10.696  11.609  0.5004 -0.3456  1.4689
39307SOL     OW29644   8.025   1.341   3.428 -0.3265  0.1035 -0.5908
39307SOL    HW129645   8.104   1.300   3.392  0.1254  1.3721 -1.1018
39307SOL    HW229646   7.953   1.284   3.400  0.3842 -0.9857 -0.2463
39308SOL     OW29647   4.611   0.369  10.239  0.5322 -1.0785 -0.1738
39308SOL    HW129648   4.619   0.463  10.221  1.8478 -1.3983 -1.3569
39308SOL    HW229649   4.534   0.363  10.296 -1.0233  0.4861 -1.9582
39309SOL     OW29650   5.445   5.203   7.350 -0.2930 -0.2995 -0.2748
39309SOL    HW129651   5.380   5.273   7.355 -0.7016 -0.7293  0.7397
39309SOL    HW229652   5.471   5.201   7.258 -0.6809  0.8089 -0.4267
39310SOL     OW29653   5.443   7.310   3.074 -0.5329  0.8103 -0.5131
39310SOL    HW129654   5.525   7.263   3.055 -0.6692  1.6716 -3.7820
39310SOL    HW229655   5.374   7.247   3.053 -0.6973  1.9549 -4.0031
39311SOL     OW29656   3.898   4.302   2.895 -0.9709  0.1504  0.1483
39311SOL    HW129657   3.942   4.233   2.945 -1.7911 -0.2771  0.2921
39311SOL    HW229658   3.953   4.379   2.908 -0.1786 -0.4081  0.1943
39312SOL     OW29659   0.796   4.591   3.343  0.1789 -0.4413 -0.0309
39312SOL    HW129660   0.737   4.664   3.325  1.3832  0.5852  0.0160
39312SOL    HW229661   0.877   4.614   3.298  0.5510 -1.8186 -0.1113
39313SOL     OW29662   6.698   6.282   4.843 -0.3528 -0.2403 -0.2063
39313SOL    HW129663   6.605   6.287   4.866 -0.4382 -0.9930 -0.3951
39313SOL    HW229664   6.705   6.329   4.760 -0.4593  0.3264  0.0973
39314SOL     OW29665   9.715   1.864   9.010 -0.3906 -0.2583  0.4829
39314SOL    HW129666   9.692   1.954   8.988  1.4755  0.1894  0.2018
39314SOL    HW229667   9.810   1.862   9.006 -0.4285 -2.5612 -0.7052
39315SOL     OW29668   6.065   6.091   0.392 -0.0844 -0.3467  0.2331
39315SOL    HW129669   6.155   6.123   0.395  0.3887 -1.6696  1.0578
39315SOL    HW229670   6.013   6.167   0.365  0.7992  1.4777  3.2184
39316SOL     OW29671   3.570   1.980   3.330  0.4141 -0.4638 -0.3464
39316SOL    HW129672   3.479   1.956   3.313 -0.0536  1.7239 -1.2839
39316SOL    HW229673   3.588   1.945   3.417 -0.5669 -2.8669 -1.0242
39317SOL     OW29674   8.131   6.270   7.263 -0.1607 -0.1435 -0.2195
39317SOL    HW129675   8.092   6.216   7.332  0.3912  0.5502  0.6544
39317SOL    HW229676   8.133   6.359   7.300  0.0176  0.2727 -1.1855
39318SOL     OW29677   9.561   3.173   5.363 -0.1416 -0.1555  0.0086
39318SOL    HW129678   9.528   3.124   5.438 -0.6798  0.7554  0.3805
39318SOL    HW229679   9.656   3.162   5.367 -0.0545  0.8557  1.5372
39319SOL     OW29680   5.525   4.965  10.466  0.2558 -0.3755 -0.5495
39319SOL    HW129681   5.536   5.017  10.546  1.3351  1.5370 -1.8468
39319SOL    HW229682   5.431   4.948  10.462  0.1116 -0.0482  0.8502
39320SOL     OW29683   7.357   4.299   5.614 -0.0654  0.4036  0.3975
39320SOL    HW129684   7.313   4.305   5.530  1.8299 -0.3542 -0.6961
39320SOL    HW229685   7.408   4.219   5.610  1.1809  1.0697  1.7087
39321SOL     OW29686   5.587  10.454   7.136  0.4016  0.0463 -0.0612
39321SOL    HW129687   5.618  10.371   7.098 -2.7463 -1.6474  0.6774
39321SOL    HW229688   5.507  10.474   7.087  0.1928  1.7727  0.9109
39322SOL     OW29689   1.422   2.142  11.495  0.6716  0.0309  0.0990
39322SOL    HW129690   1.458   2.054  11.493  1.6991  0.4050  0.8868
39322SOL    HW229691   1.487   2.195  11.449  0.2929  0.4483  0.0423
39323SOL     OW29692   7.110   7.774   2.593  0.0818  0.2818  0.5267
39323SOL    HW129693   7.091   7.716   2.519  0.1419  0.3852  0.4308
39323SOL    HW229694   7.148   7.852   2.554  1.0548 -0.0668  0.7481
39324SOL     OW29695   6.811   9.504   0.746  0.1883  0.0760 -0.2462
39324SOL    HW129696   6.784   9.594   0.731 -0.1974  0.3240  1.6927
39324SOL    HW229697   6.844   9.503   0.836 -0.0136 -1.7516 -0.1456
39325SOL     OW29698   2.361   2.506   3.296 -0.1205  0.0981 -0.5667
39325SOL    HW129699   2.326   2.484   3.382 -1.3141 -0.2415 -1.1182
39325SOL    HW229700   2.438   2.449   3.287  0.5649  0.7916  0.6258
39326SOL     OW29701   8.275   6.329   9.144  0.3279 -0.1498  0.3626
39326SOL    HW129702   8.331   6.312   9.068 -0.7004 -3.3364  0.1714
39326SOL    HW229703   8.188   6.302   9.116 -0.3082 -0.2977  2.3296
39327SOL     OW29704   6.345   4.332   9.528 -0.2559 -0.3209 -0.7031
39327SOL    HW129705   6.333   4.250   9.576 -1.1705 -0.6538 -1.4688
39327SOL    HW229706   6.264   4.344   9.479  0.3141  0.4501 -1.5030
39328SOL     OW29707   1.244   5.344   0.574  0.0785  1.0192  0.0603
39328SOL    HW129708   1.165   5.336   0.627  0.0538 -0.4227 -0.1499
39328SOL    HW229709   1.313   5.363   0.638 -0.4097  2.2744  0.2453
39329SOL     OW29710   8.265   7.559   8.047 -0.4792 -0.0073 -0.1528
39329SOL    HW129711   8.230   7.634   8.000  1.2863  0.7020 -0.4170
39329SOL    HW229712   8.308   7.506   7.980  1.7311  0.8146  0.5215
39330SOL     OW29713  11.908   0.553   9.882 -0.0217  0.0047 -0.7891
39330SOL    HW129714  11.899   0.626   9.943 -1.2525 -1.2282  0.5985
39330SOL    HW229715  11.961   0.587   9.810 -0.4737  2.2074 -0.1356
39331SOL     OW29716   1.799   0.543   3.133  0.1424 -0.5536 -0.2427
39331SOL    HW129717   1.885   0.528   3.095  0.2413  1.1139 -0.7357
39331SOL    HW229718   1.739   0.541   3.058 -0.3860 -2.3478  0.1646
39332SOL     OW29719   2.304   7.540   9.792  0.6822 -0.2701  0.3650
39332SOL    HW129720   2.234   7.523   9.856 -0.0496  0.3718 -0.2467
39332SOL    HW229721   2.293   7.471   9.726  1.7049 -1.1922  1.1197
39333SOL     OW29722  10.413   4.087   5.487  0.0981 -0.3583  0.1966
39333SOL    HW129723  10.505   4.077   5.511  0.4996  0.0851 -1.0754
39333SOL    HW229724  10.406   4.042   5.403 -0.6107  0.5053 -0.2144
39334SOL     OW29725   8.842   1.575   4.280 -0.5445  0.0629 -0.7476
39334SOL    HW129726   8.799   1.648   4.324 -0.4222 -0.2373 -0.1200
39334SOL    HW229727   8.935   1.586   4.301 -0.6275 -0.8173  0.1947
39335SOL     OW29728   4.750   3.157   5.170 -0.0142  0.1801  0.3069
39335SOL    HW129729   4.836   3.160   5.127 -0.5002  0.5960 -0.6719
39335SOL    HW229730   4.716   3.246   5.162 -1.7824 -0.5964 -2.0269
39336SOL     OW29731   4.474   0.269   5.844 -0.1457 -0.6102 -0.1154
39336SOL    HW129732   4.444   0.180   5.864 -1.0976 -0.7448 -1.9489
39336SOL    HW229733   4.567   0.259   5.826 -0.2711 -1.2563 -0.4406
39337SOL     OW29734   2.054   3.398   4.956 -0.0974 -0.0640 -0.3895
39337SOL    HW129735   2.055   3.494   4.962  0.1434 -0.0491 -0.6560
39337SOL    HW229736   2.134   3.376   4.908  0.6304 -0.4967  0.9765
39338SOL     OW29737   5.039   1.144   1.191 -0.2627  0.2095 -0.3376
39338SOL    HW129738   5.033   1.140   1.096  0.7488  0.4301 -0.4286
39338SOL    HW229739   4.954   1.175   1.220 -0.5511  0.2188 -1.1771
39339SOL     OW29740   7.053   5.692   3.096  0.6134  0.6947 -0.0499
39339SOL    HW129741   6.972   5.705   3.146  0.0092 -0.3612 -0.7175
39339SOL    HW229742   7.122   5.692   3.163 -0.0393  0.6562  0.6416
39340SOL     OW29743   2.273   5.926   7.609  0.1821 -0.0064  0.2903
39340SOL    HW129744   2.222   6.000   7.577  1.5346  1.7175  1.8923
39340SOL    HW229745   2.278   5.939   7.703  0.8182 -1.9417  0.5717
39341SOL     OW29746   8.313  10.345   1.967 -0.0637 -0.1981  0.1168
39341SOL    HW129747   8.225  10.308   1.968 -0.2304  0.1043 -1.2417
39341SOL    HW229748   8.300  10.436   1.994 -0.3824  0.1991 -1.2665
39342SOL     OW29749   4.135   3.439   4.121  0.4713  0.2447  0.3755
39342SOL    HW129750   4.056   3.457   4.172  1.3697  0.4587  1.7383
39342SOL    HW229751   4.123   3.350   4.089 -1.4573  1.1318 -1.6357
39343SOL     OW29752   8.706   9.406   0.280 -0.1780 -0.2731  0.6094
39343SOL    HW129753   8.735   9.327   0.234  1.4366  0.6645 -0.0366
39343SOL    HW229754   8.668   9.373   0.361 -0.9872 -1.8133 -0.3413
39344SOL     OW29755  10.675   5.207   8.647 -0.4324  0.1407 -0.1695
39344SOL    HW129756  10.741   5.220   8.715  0.6540  1.5437 -1.4061
39344SOL    HW229757  10.658   5.295   8.613 -1.1144 -0.4841 -1.5240
39345SOL     OW29758   7.369  10.573   2.651  0.2364  0.7560 -0.4877
39345SOL    HW129759   7.429  10.643   2.677  0.8616 -0.1058  0.4938
39345SOL    HW229760   7.342  10.533   2.734 -0.5268  0.1853 -0.9993
39346SOL     OW29761   7.005   0.016   1.630 -0.2480  0.0975 -0.1907
39346SOL    HW129762   6.981   0.061   1.549 -0.9096 -1.9291 -1.1723
39346SOL    HW229763   7.101   0.008   1.626 -0.3845 -1.1410 -1.4374
39347SOL     OW29764   5.675   7.532   1.161 -0.1808 -0.3938 -0.3043
39347SOL    HW129765   5.714   7.527   1.248  0.6553  0.6135 -0.5995
39347SOL    HW229766   5.612   7.604   1.167  0.2084 -0.0176 -0.6427
39348SOL     OW29767   7.092   2.634   9.514 -0.4451  0.3235 -0.6670
39348SOL    HW129768   7.154   2.562   9.503  1.5623  1.9649 -0.6855
39348SOL    HW229769   7.041   2.634   9.433  0.1763 -0.4813 -1.0710
39349SOL     OW29770   1.493   8.659   5.914 -0.4291  0.0260  0.1453
39349SOL    HW129771   1.497   8.573   5.956 -0.1938  0.1823  0.4453
39349SOL    HW229772   1.417   8.701   5.955 -1.4784 -0.5921 -1.0738
39350SOL     OW29773   3.291  11.890  11.810  0.1645 -0.1401  0.2083
39350SOL    HW129774   3.216  11.923  11.860  0.0105 -0.0793 -0.0651
39350SOL    HW229775   3.355  11.866  11.877  1.2509  2.9344  0.4262
39351SOL     OW29776  11.849  10.529   6.799 -0.0567  0.1012  0.5551
39351SOL    HW129777  11.836  10.440   6.766 -0.4366  0.5131 -0.4739
39351SOL    HW229778  11.907  10.570   6.735  0.7237  0.3782  1.4225
39352SOL     OW29779   4.422   4.727   2.030  0.1489  0.3042  0.0793
39352SOL    HW129780   4.330   4.729   2.005 -0.0395  1.6573  0.7961
39352SOL    HW229781   4.434   4.805   2.084  1.2769 -0.7772  1.4958
39353SOL     OW29782   4.624   5.072   5.586  0.5721  0.3147 -0.5292
39353SOL    HW129783   4.533   5.062   5.615  0.9708 -2.6834 -0.0389
39353SOL    HW229784   4.656   5.147   5.635 -0.7138 -0.5679  1.8214
39354SOL     OW29785   4.266  10.132   1.374 -0.1795  0.1817  0.4283
39354SOL    HW129786   4.283  10.206   1.433  1.6682 -1.5385  2.2140
39354SOL    HW229787   4.353  10.107   1.342 -0.5050 -2.2580  1.2626
39355SOL     OW29788   6.254   6.059   8.381 -0.8248  0.3404 -0.0871
39355SOL    HW129789   6.311   6.123   8.339  4.4320 -1.1257  3.7009
39355SOL    HW229790   6.212   6.107   8.452  0.3388  0.4392  0.5712
39356SOL     OW29791   8.451   0.084  10.670  0.2518 -0.3018 -0.4546
39356SOL    HW129792   8.503   0.109  10.746  0.4418 -1.6834 -0.0865
39356SOL    HW229793   8.393   0.015  10.704  0.1780 -0.7735 -1.5030
39357SOL     OW29794   9.598   8.003  11.026  0.5525 -0.4512 -0.4106
39357SOL    HW129795   9.644   7.950  11.091  0.6716  0.5541  0.3568
39357SOL    HW229796   9.517   8.028  11.069 -0.7117 -2.1095 -1.7222
39358SOL     OW29797   5.535   9.657  11.540  0.3206  0.3160  0.1389
39358SOL    HW129798   5.498   9.692  11.460 -1.5400 -2.0323 -0.1318
39358SOL    HW229799   5.624   9.630  11.516  1.2719  3.2133  0.0008
39359SOL     OW29800   7.466  11.141   2.947 -0.0554  0.2148  0.5005
39359SOL    HW129801   7.371  11.132   2.938  0.1481 -0.7624 -0.8302
39359SOL    HW229802   7.491  11.069   3.004 -0.1932  1.0127  1.6172
39360SOL     OW29803   8.475   1.516   1.912  0.1209 -0.2486 -0.3018
39360SOL    HW129804   8.523   1.598   1.904  0.1909 -0.1838  0.7013
39360SOL    HW229805   8.519   1.468   1.982 -0.1395 -0.9906 -0.6290
39361SOL     OW29806   3.285   7.718  10.078  0.2402  0.2736  0.3099
39361SOL    HW129807   3.272   7.705  10.172  0.2249 -2.3347  0.0109
39361SOL    HW229808   3.216   7.665  10.037  1.2715  0.0298 -1.1770
39362SOL     OW29809   5.812   5.405  10.101 -0.2317  0.4440 -0.2212
39362SOL    HW129810   5.872   5.363  10.163 -0.7411  0.8500  0.5632
39362SOL    HW229811   5.739   5.434  10.155 -0.5473  1.0766 -0.9757
39363SOL     OW29812   2.081   4.983   9.816  0.0793  0.0375  0.2388
39363SOL    HW129813   2.081   5.078   9.831 -1.4621 -0.1038  1.3780
39363SOL    HW229814   2.165   4.965   9.775  0.3646  1.9123 -0.0754
39364SOL     OW29815   9.404  10.350   6.144  0.4467 -0.3085 -0.0137
39364SOL    HW129816   9.458  10.419   6.184  1.9362 -1.0963 -0.6071
39364SOL    HW229817   9.459  10.272   6.147 -0.6128 -1.1107 -0.7919
39365SOL     OW29818  10.210   1.888  11.453  0.3215  0.7153 -0.0696
39365SOL    HW129819  10.129   1.931  11.480 -0.0622 -0.7658  1.2757
39365SOL    HW229820  10.199   1.876  11.358 -0.0295  2.5030 -0.2916
39366SOL     OW29821   3.361   6.188   5.186  0.0464  0.4520  0.2595
39366SOL    HW129822   3.446   6.148   5.204 -0.5388 -0.1715  1.7899
39366SOL    HW229823   3.298   6.116   5.196 -0.7096  0.9986 -0.4118
39367SOL     OW29824   4.747   5.356  11.693 -0.0275  0.7467  0.4702
39367SOL    HW129825   4.835   5.388  11.675  1.2933 -2.0561  1.3475
39367SOL    HW229826   4.761   5.275  11.742 -3.1499  1.3406  2.6164
39368SOL     OW29827   5.124   9.594   6.678 -0.0696  0.1574 -0.1169
39368SOL    HW129828   5.201   9.645   6.656 -0.0113  0.4305  0.7122
39368SOL    HW229829   5.158   9.508   6.703  0.0262  0.4912  0.9247
39369SOL     OW29830   7.207   7.748   7.263  0.5261  0.3009 -0.1184
39369SOL    HW129831   7.205   7.733   7.357  1.7393  0.3319 -0.0688
39369SOL    HW229832   7.218   7.843   7.254 -0.4068  0.3982 -0.3138
39370SOL     OW29833   3.926   6.947  10.505  1.1798  0.0337  0.2725
39370SOL    HW129834   3.954   6.896  10.429  4.0861  1.4415  0.2772
39370SOL    HW229835   3.916   7.036  10.470  0.1229  0.2433  1.0692
39371SOL     OW29836  10.191   2.040   1.991 -0.2939 -0.0183  0.4556
39371SOL    HW129837  10.160   2.047   1.901  0.1765 -1.8812  0.0937
39371SOL    HW229838  10.122   1.993   2.037  0.1146 -0.4117  0.6799
39372SOL     OW29839   0.618   5.604   6.101  0.0400  0.4069 -0.1253
39372SOL    HW129840   0.635   5.564   6.187  1.3581  0.2091 -0.4602
39372SOL    HW229841   0.689   5.667   6.089 -0.7537  1.2212 -0.6019
39373SOL     OW29842   6.084   3.291  11.653 -0.2061 -0.1485 -0.7114
39373SOL    HW129843   6.004   3.337  11.681  0.1070 -0.5937  1.0126
39373SOL    HW229844   6.066   3.199  11.670  0.7613 -0.2288 -0.0565
39374SOL     OW29845   4.207  11.198   3.091 -0.4828 -0.0933 -0.4591
39374SOL    HW129846   4.262  11.168   3.163  0.0383 -0.1254 -0.8680
39374SOL    HW229847   4.225  11.292   3.084 -0.4096 -0.1198 -0.6500
39375SOL     OW29848   0.664   7.447   7.228  0.0880  0.6239  0.3985
39375SOL    HW129849   0.670   7.475   7.319  1.4197 -0.4756  0.6914
39375SOL    HW229850   0.633   7.357   7.233  2.7453 -0.3944 -0.0051
39376SOL     OW29851   7.987   8.441   7.704 -0.1474  0.2586  0.6431
39376SOL    HW129852   7.902   8.484   7.702 -0.5508 -0.4966 -1.4539
39376SOL    HW229853   7.980   8.375   7.772 -1.0544  0.5727  0.8588
39377SOL     OW29854  10.768   1.790   4.976 -0.5154  0.4476 -0.1974
39377SOL    HW129855  10.749   1.844   5.053 -0.9139 -0.6735  0.5185
39377SOL    HW229856  10.864   1.783   4.975 -0.4056  1.8134 -0.7739
39378SOL     OW29857   8.271   3.202  11.338 -0.2177  0.3806  0.0882
39378SOL    HW129858   8.259   3.290  11.302 -1.1672  0.8180  1.3988
39378SOL    HW229859   8.191   3.155  11.317 -0.1651  0.1785  0.3247
39379SOL     OW29860   4.316   0.279   3.155  0.0746  0.0536  0.8181
39379SOL    HW129861   4.350   0.194   3.127 -0.0407  0.8184 -1.9416
39379SOL    HW229862   4.387   0.341   3.136  0.2610  0.6135  3.0410
39380SOL     OW29863   7.144   4.488   9.734 -0.0194 -0.1318  0.2702
39380SOL    HW129864   7.054   4.508   9.706  0.2510 -0.7256 -1.1142
39380SOL    HW229865   7.199   4.546   9.682  0.5678 -2.0157 -1.3162
39381SOL     OW29866   5.067   1.043   4.218 -0.0511 -0.3357 -0.3220
39381SOL    HW129867   5.006   0.973   4.239  0.4985 -0.2049  1.9796
39381SOL    HW229868   5.021   1.123   4.239 -0.5880  0.0708 -2.7191
39382SOL     OW29869   0.344   4.260   7.758  0.2192 -0.2706  0.5051
39382SOL    HW129870   0.334   4.310   7.678  0.4124 -0.3841  0.4083
39382SOL    HW229871   0.367   4.172   7.729 -1.7929 -0.8643  0.6126
39383SOL     OW29872   4.832   8.930   3.833 -0.4471 -0.8019  0.4920
39383SOL    HW129873   4.860   8.966   3.749 -1.3356  0.4779  0.7175
39383SOL    HW229874   4.858   8.838   3.830  0.7121 -0.4604 -0.6442
39384SOL     OW29875   8.375   2.145   7.740 -0.1503  0.4483  0.2604
39384SOL    HW129876   8.293   2.127   7.787 -0.1583 -0.8824 -0.2210
39384SOL    HW229877   8.372   2.087   7.664  0.3864  1.7397 -0.8027
39385SOL     OW29878   4.327  11.605  11.947  0.1113 -0.2721  0.1681
39385SOL    HW129879   4.302  11.603  12.040  1.6299  0.0612  0.6216
39385SOL    HW229880   4.302  11.519  11.914  3.3712 -2.1506  2.0233
39386SOL     OW29881   5.534   7.175   6.129  0.3624 -0.1661 -0.1582
39386SOL    HW129882   5.622   7.184   6.166  0.1339  0.9984  0.1542
39386SOL    HW229883   5.475   7.196   6.201 -0.0996  1.6242 -0.9943
39387SOL     OW29884   6.286   7.393   9.194  0.3644 -0.0548 -0.5343
39387SOL    HW129885   6.254   7.452   9.263 -0.1314 -0.5920 -0.2984
39387SOL    HW229886   6.255   7.306   9.221  0.7764 -0.3687 -1.0687
39388SOL     OW29887  11.316   7.505   7.047  0.4511 -0.2007 -0.9323
39388SOL    HW129888  11.317   7.554   6.965  0.7291  3.6891  1.1100
39388SOL    HW229889  11.231   7.462   7.048  0.6702 -0.8047 -3.4369
39389SOL     OW29890  11.190   3.084   8.335  0.5514  0.4841 -0.3916
39389SOL    HW129891  11.134   3.079   8.258  1.0512  1.8983 -0.8772
39389SOL    HW229892  11.271   3.040   8.309  0.8210  1.1962 -0.7866
39390SOL     OW29893   1.217   1.866  10.956 -0.2269  0.1953  0.0589
39390SOL    HW129894   1.223   1.859  10.861  1.9157 -0.2812  0.1723
39390SOL    HW229895   1.139   1.920  10.972 -1.1812 -0.5121 -1.9068
39391SOL     OW29896   5.265   3.700   0.419 -0.4600 -0.3599  0.0968
39391SOL    HW129897   5.264   3.769   0.353 -0.0044  0.3135  0.7733
39391SOL    HW229898   5.347   3.654   0.404 -0.4447 -0.3273  0.0804
39392SOL     OW29899  11.223   1.209  11.140  0.1881  0.2739 -0.5556
39392SOL    HW129900  11.206   1.236  11.230  2.9548  1.6507 -0.3640
39392SOL    HW229901  11.145   1.159  11.116 -1.5498  1.5656  1.8825
39393SOL     OW29902   5.818   2.989   1.355  0.2022 -0.4626 -0.8194
39393SOL    HW129903   5.808   2.938   1.274 -0.4525  1.5311 -2.0593
39393SOL    HW229904   5.884   3.055   1.333 -1.5297  1.4795 -0.4963
39394SOL     OW29905   0.386   1.659   3.790  0.6081  0.2945 -0.3478
39394SOL    HW129906   0.402   1.753   3.793 -0.5976  0.4897  1.6253
39394SOL    HW229907   0.291   1.652   3.778  0.5869 -0.6651  0.3098
39395SOL     OW29908   3.695  10.159  10.873 -0.6160 -0.1662  0.7294
39395SOL    HW129909   3.641  10.094  10.829 -0.5468 -0.0170  0.4182
39395SOL    HW229910   3.717  10.120  10.957 -1.6910  0.0180  1.0977
39396SOL     OW29911   1.277  11.220   4.524 -0.0717 -0.3258 -0.4507
39396SOL    HW129912   1.324  11.229   4.608 -0.1704  0.3892 -0.4704
39396SOL    HW229913   1.203  11.281   4.531 -0.1848 -0.3988 -0.9861
39397SOL     OW29914   0.475   7.303   7.979  0.3116 -0.6391  0.1103
39397SOL    HW129915   0.544   7.276   8.040  1.2005 -0.0716 -0.6344
39397SOL    HW229916   0.445   7.387   8.013 -1.7180 -1.9311  1.8102
39398SOL     OW29917   2.937   5.632   3.092 -0.2689  0.2160  0.6639
39398SOL    HW129918   3.011   5.581   3.124 -0.6123  0.0689  1.2316
39398SOL    HW229919   2.915   5.592   3.007 -0.6606 -0.7127  1.1897
39399SOL     OW29920   5.832   5.591   2.521 -0.7506 -0.0316 -0.2852
39399SOL    HW129921   5.773   5.590   2.596  0.6234  1.6395  0.9203
39399SOL    HW229922   5.906   5.536   2.547 -0.4238  0.2782 -0.5443
39400SOL     OW29923   2.735   9.681   1.290 -0.1152  0.3853 -0.5328
39400SOL    HW129924   2.788   9.750   1.250  1.2864 -1.8131 -2.6883
39400SOL    HW229925   2.652   9.682   1.242  0.8303 -0.9652 -2.2724
39401SOL     OW29926   1.863   2.846   7.249  0.4294  0.4249  0.7763
39401SOL    HW129927   1.865   2.902   7.172  0.2797 -1.5048 -0.7188
39401SOL    HW229928   1.915   2.770   7.225 -0.9025 -0.9474  1.9867
39402SOL     OW29929  11.709   0.400   6.936  0.0041  0.1049 -0.1288
39402SOL    HW129930  11.682   0.442   7.017  0.7576  0.5541 -0.0984
39402SOL    HW229931  11.637   0.341   6.914 -0.1284 -0.1575  0.9595
39403SOL     OW29932   9.835   6.805  10.905 -0.2821  0.1996 -0.0900
39403SOL    HW129933   9.789   6.886  10.880 -0.1130  0.3379  0.0424
39403SOL    HW229934   9.927   6.830  10.909 -0.4306  0.6840  2.4123
39404SOL     OW29935   5.246   8.866   6.995  0.2765 -0.7834 -0.0246
39404SOL    HW129936   5.302   8.942   6.977  0.2833  0.1237  3.1495
39404SOL    HW229937   5.239   8.820   6.911  1.8422  1.6687 -1.6192
39405SOL     OW29938   8.171  11.122   7.706 -0.0704 -0.3888 -0.6257
39405SOL    HW129939   8.105  11.190   7.688  0.8218  0.7854  0.3849
39405SOL    HW229940   8.125  11.058   7.760 -0.5756  0.0817 -0.4847
39406SOL     OW29941   1.750   6.746   7.384  0.0366  0.0865 -0.3788
39406SOL    HW129942   1.745   6.839   7.404  0.5529  0.0396 -0.0012
39406SOL    HW229943   1.838   6.720   7.412  0.1527 -0.3596 -1.1318
39407SOL     OW29944   2.649   2.176   9.557 -0.0808 -0.1605  0.0148
39407SOL    HW129945   2.561   2.141   9.575  0.0321 -0.1990  0.4952
39407SOL    HW229946   2.670   2.142   9.470 -0.1031 -1.0361  0.3465
39408SOL     OW29947   8.131   8.315   8.541 -0.1136 -0.2710 -0.3814
39408SOL    HW129948   8.067   8.387   8.540 -1.5325 -1.4323 -2.8134
39408SOL    HW229949   8.116   8.271   8.625 -1.0977  0.6794 -0.0313
39409SOL     OW29950   9.388  10.660   9.638 -0.1449  0.0677  0.3941
39409SOL    HW129951   9.379  10.608   9.718  0.8357 -0.5282  0.1314
39409SOL    HW229952   9.474  10.637   9.605 -0.4126  0.5603 -0.6636
39410SOL     OW29953   4.730   7.482   6.288 -0.2209 -0.3361 -0.1447
39410SOL    HW129954   4.815   7.451   6.322  1.1783  2.4293 -0.7879
39410SOL    HW229955   4.699   7.542   6.356 -1.5286 -1.0544 -0.0895
39411SOL     OW29956   4.997   4.753   4.785  0.0554 -0.0273 -0.5162
39411SOL    HW129957   5.075   4.741   4.732 -0.6150 -1.2310 -1.2895
39411SOL    HW229958   4.935   4.688   4.751 -0.4230 -0.8076  1.6931
39412SOL     OW29959  11.390   1.749   0.901  0.0892 -0.5492 -0.1350
39412SOL    HW129960  11.465   1.748   0.843 -0.2008 -0.9014 -0.5076
39412SOL    HW229961  11.427   1.743   0.989  0.6117  1.4977 -0.1819
39413SOL     OW29962   6.634  11.136   7.637  0.2302 -0.2510  0.0467
39413SOL    HW129963   6.618  11.230   7.649 -1.0913 -0.4859  0.2559
39413SOL    HW229964   6.723  11.132   7.600  0.0259  1.1173 -0.6856
39414SOL     OW29965   4.399   5.271  10.681  0.0162  0.0914  0.0935
39414SOL    HW129966   4.406   5.190  10.731 -0.5129 -0.1556 -0.2247
39414SOL    HW229967   4.489   5.296  10.662  0.3310  0.9990  2.4534
39415SOL     OW29968   3.145  11.026  10.756  0.0122  0.3813  0.0079
39415SOL    HW129969   3.156  11.054  10.665  0.5300 -0.6460 -0.2606
39415SOL    HW229970   3.172  10.934  10.756 -0.8695  0.1027  1.0120
39416SOL     OW29971   8.029   0.075   7.132 -0.4177 -0.9524 -0.2099
39416SOL    HW129972   7.976   0.088   7.053 -1.4733 -2.0013  0.2875
39416SOL    HW229973   8.038  -0.020   7.139 -0.6390 -0.8897  1.1155
39417SOL     OW29974   0.466   8.710  10.231  0.2422  0.8328  0.2035
39417SOL    HW129975   0.429   8.630  10.269  1.3684  0.9016  1.5036
39417SOL    HW229976   0.540   8.680  10.178  0.2380  0.9537  0.1293
39418SOL     OW29977   6.121   3.891   8.705  0.5226  0.1408 -0.0453
39418SOL    HW129978   6.026   3.885   8.693  0.4338 -1.2297  1.1445
39418SOL    HW229979   6.157   3.877   8.617 -0.3695  0.8029 -0.5266
39419SOL     OW29980   5.214   5.954   4.297 -0.4272  0.2166  0.4909
39419SOL    HW129981   5.273   6.028   4.311 -0.4030  0.2369  0.2865
39419SOL    HW229982   5.255   5.903   4.227  0.2032 -0.6859  1.4879
39420SOL     OW29983   7.441   0.660   2.805  0.6170  0.4178  0.4149
39420SOL    HW129984   7.534   0.636   2.804  0.2089 -1.6839  2.6607
39420SOL    HW229985   7.409   0.637   2.718  2.3728  2.2622 -0.8015
39421SOL     OW29986   1.564  10.836   5.434 -0.0946 -0.3187  0.7699
39421SOL    HW129987   1.481  10.879   5.412  0.8921  0.4798 -1.7487
39421SOL    HW229988   1.623  10.908   5.455  0.3943 -0.7560  0.9141
39422SOL     OW29989   6.178   8.945   1.293  0.6343  0.4425  0.2206
39422SOL    HW129990   6.218   8.978   1.213  0.6376 -2.2258 -1.0222
39422SOL    HW229991   6.085   8.937   1.271  0.5472  0.2184  0.6534
39423SOL     OW29992   0.624   0.720   8.966  0.2557 -0.3870  0.2115
39423SOL    HW129993   0.584   0.712   9.053 -1.8999 -0.2162 -0.7047
39423SOL    HW229994   0.578   0.655   8.912  0.6486  0.3921 -1.1051
39424SOL     OW29995   1.332   9.484  11.768 -0.3632 -0.2063  0.1583
39424SOL    HW129996   1.352   9.555  11.829  0.2268 -2.7473  3.1652
39424SOL    HW229997   1.250   9.447  11.801 -0.9706 -0.6346 -1.7138
39425SOL     OW29998   1.102   0.645   4.924 -0.4350 -0.2039 -0.4993
39425SOL    HW129999   1.028   0.602   4.967 -0.5353  1.2584  0.9116
39425SOL    HW230000   1.179   0.611   4.970 -0.0215 -2.7366 -2.8392
39426SOL     OW30001   5.961   8.731   2.784  0.2267  0.3092 -0.8593
39426SOL    HW130002   5.967   8.669   2.711  0.6814 -0.5503 -0.1053
39426SOL    HW230003   5.951   8.816   2.741  1.4287 -0.0606 -1.9581
39427SOL     OW30004   2.180   5.470   3.334 -0.1935 -0.4718  0.5474
39427SOL    HW130005   2.141   5.392   3.373 -1.8525 -1.7645 -3.2111
39427SOL    HW230006   2.274   5.462   3.352 -0.7420 -0.9833  3.8303
39428SOL     OW30007   8.511   5.074   3.049  0.5426  0.8809 -0.0940
39428SOL    HW130008   8.456   5.037   2.980  0.9196 -0.9455  0.5206
39428SOL    HW230009   8.481   5.030   3.129  2.3993  0.3326  0.3539
39429SOL     OW30010   0.771   1.832  11.252 -0.2362 -0.0356 -0.4968
39429SOL    HW130011   0.744   1.918  11.219 -0.9279 -0.7886 -1.9732
39429SOL    HW230012   0.865   1.842  11.269 -0.5598  1.4095  0.7606
39430SOL     OW30013   1.758   4.818   9.079 -0.0237  0.3287  0.3949
39430SOL    HW130014   1.838   4.864   9.056  0.0831 -1.5463 -3.8009
39430SOL    HW230015   1.783   4.761   9.152  2.5373 -0.3140 -0.8877
39431SOL     OW30016   7.305  10.784   2.248  0.7006  0.5969 -0.2275
39431SOL    HW130017   7.305  10.878   2.229  0.3408  0.9762  1.4447
39431SOL    HW230018   7.301  10.779   2.344 -2.0314 -1.1370 -0.3248
39432SOL     OW30019   2.216  11.358   3.758  0.5485  0.1562 -0.2811
39432SOL    HW130020   2.237  11.267   3.778  1.4593  0.0891 -1.4357
39432SOL    HW230021   2.150  11.353   3.688 -0.6009  0.4032  0.7358
39433SOL     OW30022   9.224   3.314  10.838 -0.2556  0.0266  0.6109
39433SOL    HW130023   9.180   3.290  10.756  0.3609  0.8312  0.0240
39433SOL    HW230024   9.164   3.376  10.880  0.6941  1.9409 -0.6894
39434SOL     OW30025   5.591   2.886  10.810  0.1384  0.5118  0.0929
39434SOL    HW130026   5.653   2.925  10.747  1.5680  1.7262  2.1227
39434SOL    HW230027   5.613   2.793  10.811  0.8687  0.6689 -0.3755
39435SOL     OW30028   7.353  11.910   3.252  0.0392 -0.5554 -1.2270
39435SOL    HW130029   7.381  11.951   3.334  1.1179 -0.6483 -1.5338
39435SOL    HW230030   7.298  11.975   3.210  1.9170  0.7496 -1.8292
39436SOL     OW30031   3.315   5.005   9.811  0.5487  0.0582 -0.3472
39436SOL    HW130032   3.282   5.092   9.790  0.6673 -0.3556 -2.5335
39436SOL    HW230033   3.411   5.014   9.809  0.5690  0.0329  0.2335
39437SOL     OW30034   7.809   2.123   9.937 -0.5724 -0.2233  0.2016
39437SOL    HW130035   7.859   2.100  10.016  0.0437 -1.4415 -0.5105
39437SOL    HW230036   7.823   2.217   9.927  0.6307 -0.3217  0.6900
39438SOL     OW30037   9.102   7.783   4.905 -0.6889 -0.1752  0.2780
39438SOL    HW130038   9.190   7.760   4.875 -0.3980 -1.0539  1.7120
39438SOL    HW230039   9.108   7.874   4.932 -0.0345 -0.4346  1.0117
39439SOL     OW30040   7.802   4.058   0.674  0.5549  0.2360  0.0588
39439SOL    HW130041   7.799   3.978   0.621  0.1973  1.0546 -1.2029
39439SOL    HW230042   7.718   4.061   0.718  1.4658 -1.3222  2.0796
39440SOL     OW30043   4.272   4.828   5.826  0.0198 -0.5328 -0.4690
39440SOL    HW130044   4.236   4.829   5.737 -0.6249 -0.2025 -0.2071
39440SOL    HW230045   4.346   4.767   5.820  1.0148  0.7081 -1.6257
39441SOL     OW30046   6.615   7.513   2.939  0.1604  0.3282  0.0435
39441SOL    HW130047   6.599   7.458   2.862  1.5849 -1.0864  0.6894
39441SOL    HW230048   6.643   7.597   2.904 -1.1286  0.3726 -0.9668
39442SOL     OW30049   8.310  11.854   0.237  0.1446 -0.0986 -0.2337
39442SOL    HW130050   8.262  11.861   0.320 -0.2271 -1.5881 -0.2953
39442SOL    HW230051   8.246  11.879   0.170  0.2427  0.4491 -0.1257
39443SOL     OW30052   5.862   8.044  10.088 -0.3110  0.4770 -0.0093
39443SOL    HW130053   5.848   8.125  10.138  0.5372  0.7040 -0.1254
39443SOL    HW230054   5.927   7.995  10.139  0.7149  0.7990 -0.9571
39444SOL     OW30055   3.055   9.336   1.467 -0.3043 -0.4604 -0.1244
39444SOL    HW130056   2.981   9.349   1.526  1.0416 -1.1480  1.7968
39444SOL    HW230057   3.092   9.423   1.455 -1.1155 -0.1869 -0.7018
39445SOL     OW30058   6.352   0.873   1.618  0.0381  0.0632  0.0745
39445SOL    HW130059   6.330   0.849   1.707  0.0640  0.5341  0.2116
39445SOL    HW230060   6.321   0.963   1.609  1.1132  0.4507  0.0010
39446SOL     OW30061   7.563   6.395   1.492 -0.1030 -0.2024  0.2138
39446SOL    HW130062   7.619   6.318   1.503  0.3393  0.2835  1.5629
39446SOL    HW230063   7.620   6.469   1.508 -0.8569  0.3508  0.3886
39447SOL     OW30064  10.352   2.430   5.296 -0.3030 -0.4985 -0.3055
39447SOL    HW130065  10.292   2.375   5.245 -0.8469  0.6060 -0.9125
39447SOL    HW230066  10.428   2.441   5.239  0.8249 -2.4618  0.7410
39448SOL     OW30067   6.626   5.710   5.457  0.0489 -0.0807 -0.1644
39448SOL    HW130068   6.584   5.788   5.493 -0.5870 -0.0670 -0.8852
39448SOL    HW230069   6.621   5.645   5.527 -1.7881 -0.2798 -0.4114
39449SOL     OW30070   1.369   8.946   4.702  0.2661 -0.3181  0.1711
39449SOL    HW130071   1.433   8.895   4.750  0.6757 -0.4846 -0.5358
39449SOL    HW230072   1.348   8.893   4.625 -1.7020 -0.8652  1.0284
39450SOL     OW30073   0.996   8.934  10.064  0.5424 -0.2041 -0.1377
39450SOL    HW130074   1.028   9.023  10.050 -2.8518  0.7100 -3.7989
39450SOL    HW230075   1.045   8.880  10.002  0.3356 -0.2510 -0.2622
39451SOL     OW30076   5.316   2.610   0.068 -0.7688 -0.3765 -0.2326
39451SOL    HW130077   5.407   2.588   0.089 -0.6770 -0.1836 -0.4330
39451SOL    HW230078   5.312   2.705   0.072 -1.2289 -0.4289  0.8758
39452SOL     OW30079   7.263   6.225   9.242 -0.1807  0.0862  0.2100
39452SOL    HW130080   7.318   6.150   9.267 -0.7021 -1.4008 -2.6445
39452SOL    HW230081   7.316   6.273   9.179 -1.2285 -0.0166 -0.7727
39453SOL     OW30082  10.869   1.599   1.579 -0.3528 -0.3104  0.1614
39453SOL    HW130083  10.965   1.600   1.574 -0.1991 -1.1696  2.0119
39453SOL    HW230084  10.847   1.506   1.584 -1.5646 -0.3382 -3.4115
39454SOL     OW30085   3.554   3.494   4.712 -0.0587  0.1961 -0.2014
39454SOL    HW130086   3.522   3.431   4.776  0.4968 -1.0097 -1.0721
39454SOL    HW230087   3.649   3.482   4.711 -0.0350  0.3583 -1.0541
39455SOL     OW30088  10.207   4.826   9.615  0.7955  0.1040 -0.1210
39455SOL    HW130089  10.134   4.807   9.674  0.0144 -0.9261 -1.3361
39455SOL    HW230090  10.267   4.752   9.627  0.1277 -0.6802 -1.3036
39456SOL     OW30091   5.730   9.859   8.973  0.3986 -0.1511  0.5867
39456SOL    HW130092   5.731   9.954   8.961  0.1860  0.1400  2.5484
39456SOL    HW230093   5.715   9.847   9.066 -4.2341 -2.1376 -0.1288
39457SOL     OW30094   3.385   0.487  10.939  0.4932  0.1071 -0.1394
39457SOL    HW130095   3.371   0.576  10.906  0.5521  0.0868 -0.2182
39457SOL    HW230096   3.299   0.459  10.969  0.1341 -0.4127 -1.5897
39458SOL     OW30097   3.645   2.720   5.182  0.1751  0.6238 -0.6593
39458SOL    HW130098   3.728   2.764   5.165  0.6086 -0.1563 -0.6234
39458SOL    HW230099   3.598   2.724   5.098  0.1933  1.1716 -0.6451
39459SOL     OW30100   7.242   0.183   2.206 -0.5169  0.7372 -0.1251
39459SOL    HW130101   7.184   0.236   2.152 -0.3754  0.7510 -0.2637
39459SOL    HW230102   7.304   0.145   2.144  0.6605  2.0457  0.2007
39460SOL     OW30103   5.528  10.857   3.165  0.2858 -0.0018 -0.9093
39460SOL    HW130104   5.434  10.845   3.152  0.3074 -1.8243  0.2807
39460SOL    HW230105   5.566  10.770   3.152  1.3327 -0.1424  2.1885
39461SOL     OW30106   5.144   4.939   3.959  0.1986 -0.0736 -0.9633
39461SOL    HW130107   5.199   4.943   3.881  0.7158  0.4087 -0.5823
39461SOL    HW230108   5.168   4.858   4.003 -0.4351 -0.5869 -1.5471
39462SOL     OW30109   8.933   9.979   4.955  0.0624  0.3134 -0.1376
39462SOL    HW130110   8.866  10.029   4.907  0.2067  0.3764 -0.2753
39462SOL    HW230111   8.883   9.925   5.017  0.0112  2.5143  1.8557
39463SOL     OW30112   6.730   7.450   5.916 -0.4509  0.1790  0.7235
39463SOL    HW130113   6.760   7.465   6.005 -0.4145  0.7369  0.6230
39463SOL    HW230114   6.803   7.479   5.861 -0.7470  0.5064  0.5008
39464SOL     OW30115   9.808   4.134   0.132  0.3419 -0.0953  0.1750
39464SOL    HW130116   9.804   4.224   0.099  1.2251  0.0444  0.4295
39464SOL    HW230117   9.862   4.087   0.069  0.9672 -0.1311  0.7263
39465SOL     OW30118   1.851   1.012   7.698 -0.2167  0.5481 -0.3247
39465SOL    HW130119   1.801   0.991   7.776 -1.0910 -2.8543 -1.6150
39465SOL    HW230120   1.942   0.999   7.724 -0.5318 -1.2639  0.0298
39466SOL     OW30121  10.593   7.764   6.730 -0.2786 -0.0190 -0.3238
39466SOL    HW130122  10.499   7.771   6.748 -0.5987  0.1572 -1.8634
39466SOL    HW230123  10.614   7.672   6.742 -0.7626 -0.1460 -0.4462
39467SOL     OW30124   3.385   8.248   7.063  0.5821 -0.6022  0.7480
39467SOL    HW130125   3.389   8.189   7.139 -0.4816  0.5394  1.7334
39467SOL    HW230126   3.452   8.314   7.079  0.5659 -0.5331  0.5392
39468SOL     OW30127   7.976   6.011   6.197  0.0701 -0.0009 -0.1839
39468SOL    HW130128   7.898   6.066   6.196 -0.1983 -0.3217 -2.5125
39468SOL    HW230129   8.027   6.042   6.272 -1.0437  2.0144 -0.2087
39469SOL     OW30130   7.739   1.636   6.873 -0.2183 -0.3173  0.5862
39469SOL    HW130131   7.677   1.590   6.816  0.5365 -0.7294  0.0896
39469SOL    HW230132   7.805   1.570   6.896  0.5154  0.3330  0.3987
39470SOL     OW30133   6.283   9.150   3.053  0.1768  0.2016 -0.0748
39470SOL    HW130134   6.370   9.188   3.064  0.0075  0.7737 -0.6087
39470SOL    HW230135   6.254   9.131   3.142  1.6345 -1.8853  0.0164
39471SOL     OW30136   1.573   0.132   5.634 -0.0051 -0.2752  0.0527
39471SOL    HW130137   1.648   0.188   5.653  1.1897 -1.8630  0.1101
39471SOL    HW230138   1.514   0.189   5.584  0.6638  1.3563  1.0419
39472SOL     OW30139   0.126   3.064   7.151  0.4090  0.1953 -0.2220
39472SOL    HW130140   0.112   3.096   7.240 -1.1875 -1.5389  0.2091
39472SOL    HW230141   0.085   3.129   7.095 -0.2305  0.3696  0.4400
39473SOL     OW30142   2.816  11.457   9.539  0.2357  0.3363 -0.1706
39473SOL    HW130143   2.791  11.412   9.459  0.4111  1.5560 -0.9473
39473SOL    HW230144   2.770  11.541   9.534  0.0102  0.3046  1.1626
39474SOL     OW30145   6.705   6.786   5.482 -1.0271  0.2280 -0.2860
39474SOL    HW130146   6.739   6.852   5.542 -1.7323  1.0355 -0.7427
39474SOL    HW230147   6.724   6.821   5.394 -1.3361 -0.2088 -0.5322
39475SOL     OW30148   7.582   4.024   9.654  0.0484 -0.0587 -0.8151
39475SOL    HW130149   7.541   4.044   9.738 -0.0449  0.5312 -1.0018
39475SOL    HW230150   7.540   4.082   9.591  0.1372 -0.4779 -1.2684
39476SOL     OW30151   7.687   5.467   1.958  0.2309  0.4167 -0.1929
39476SOL    HW130152   7.655   5.528   2.024  0.0192  0.0670  0.0307
39476SOL    HW230153   7.756   5.417   2.002  0.3940  0.4824 -0.3711
39477SOL     OW30154   4.056  10.037   9.596 -0.2395 -0.5762 -0.2221
39477SOL    HW130155   3.998  10.084   9.535  0.8990  0.0391 -0.8787
39477SOL    HW230156   4.141  10.081   9.586  0.0285 -0.5959  1.6747
39478SOL     OW30157  11.159  10.965   5.145 -0.1342  0.8988  0.0231
39478SOL    HW130158  11.082  10.924   5.104  0.5506  0.7558 -1.1738
39478SOL    HW230159  11.124  11.041   5.191 -1.6220 -1.4853  3.2395
39479SOL     OW30160   2.843   3.269   7.859 -0.1111 -0.1949 -0.5560
39479SOL    HW130161   2.878   3.348   7.819  2.9161 -2.0155 -1.8692
39479SOL    HW230162   2.919   3.210   7.867 -2.0113 -2.6563  1.1889
39480SOL     OW30163   6.875   2.202  11.111  0.8197 -0.3741  0.0170
39480SOL    HW130164   6.871   2.113  11.077  0.5075 -0.3990  0.1121
39480SOL    HW230165   6.801   2.246  11.070  1.1653 -0.0689 -0.2804
39481SOL     OW30166   5.566  10.652   0.671  0.6054 -0.0043 -0.1048
39481SOL    HW130167   5.616  10.573   0.691  1.7733  0.2968 -1.7106
39481SOL    HW230168   5.475  10.626   0.684  0.9770 -1.5399 -0.3682
39482SOL     OW30169   5.344   1.173   8.713 -0.0444  0.2525  0.1790
39482SOL    HW130170   5.260   1.138   8.685  0.4961 -0.0606 -1.0802
39482SOL    HW230171   5.396   1.097   8.738  0.3071  0.3447 -0.2651
39483SOL     OW30172   6.382   1.523   2.463 -0.3235 -0.3405 -0.1916
39483SOL    HW130173   6.419   1.460   2.401 -1.4600 -2.4205  1.1376
39483SOL    HW230174   6.312   1.475   2.508  0.3383  1.0618  2.5889
39484SOL     OW30175   6.865   1.676   3.413 -0.9243 -0.0837  0.1626
39484SOL    HW130176   6.797   1.700   3.350  0.4396  0.6716 -1.0770
39484SOL    HW230177   6.864   1.747   3.478 -0.4698  0.6069 -0.5671
39485SOL     OW30178   0.781   2.589   4.429  0.0106  0.6366  0.5040
39485SOL    HW130179   0.805   2.621   4.516  0.5701  1.6151 -0.0034
39485SOL    HW230180   0.686   2.578   4.433  0.1931 -1.0395  1.7884
39486SOL     OW30181   3.412   4.968   3.127  0.0216 -0.2183 -0.1839
39486SOL    HW130182   3.424   4.943   3.035  0.1558  1.1808 -0.5710
39486SOL    HW230183   3.321   4.996   3.133 -0.2854 -1.3220  0.3721
39487SOL     OW30184   6.210   7.673   5.730  0.3317  0.2090 -0.1192
39487SOL    HW130185   6.118   7.699   5.739  0.4077  0.2421  0.6238
39487SOL    HW230186   6.209   7.603   5.665 -0.5788 -1.5473  1.6675
39488SOL     OW30187   9.692   7.784  11.797 -0.1117 -0.5094 -0.1372
39488SOL    HW130188   9.749   7.832  11.738  0.5809  0.8136  1.5240
39488SOL    HW230189   9.741   7.705  11.821  0.6678  0.1700  0.5633
39489SOL     OW30190   8.518   8.143   0.988 -0.5105 -0.3317  0.2445
39489SOL    HW130191   8.580   8.173   0.922 -2.5031  0.4807 -1.3668
39489SOL    HW230192   8.432   8.167   0.954 -1.7648 -1.4750  2.3285
39490SOL     OW30193   2.751   3.860   1.216  0.2054  0.0044 -0.9511
39490SOL    HW130194   2.817   3.914   1.259  0.2254  1.2252 -2.4270
39490SOL    HW230195   2.745   3.895   1.127 -0.2113 -2.0674 -1.8026
39491SOL     OW30196   5.515   1.392   2.197 -0.4770 -0.4401 -0.3605
39491SOL    HW130197   5.593   1.375   2.250  0.3353  0.3926 -1.2394
39491SOL    HW230198   5.548   1.397   2.108 -1.2488  1.5212 -0.5975
39492SOL     OW30199  11.648   8.227  10.123 -0.1116  0.3176 -0.2849
39492SOL    HW130200  11.706   8.294  10.086  0.6114  0.7228  1.4906
39492SOL    HW230201  11.661   8.234  10.218 -3.3627  0.6908  0.2355
39493SOL     OW30202   9.211   5.160   0.781  0.3260 -1.0028  0.2703
39493SOL    HW130203   9.164   5.079   0.803 -2.0284 -0.0831 -1.0002
39493SOL    HW230204   9.248   5.144   0.694 -2.4251  0.0767 -1.2109
39494SOL     OW30205   9.617   0.145   5.574 -0.0923 -0.3408 -0.4588
39494SOL    HW130206   9.703   0.108   5.558  0.0381  0.1231 -0.8840
39494SOL    HW230207   9.602   0.203   5.499  1.0041  2.8254  1.5502
39495SOL     OW30208   0.630  11.806   9.907 -0.4190  0.3179  0.5082
39495SOL    HW130209   0.567  11.750   9.862  1.4623 -1.7425  0.2103
39495SOL    HW230210   0.579  11.854   9.972 -2.5668  0.3570 -1.1072
39496SOL     OW30211  11.180   4.218   3.432  0.6933 -0.1311 -0.1548
39496SOL    HW130212  11.216   4.189   3.516 -1.2395  2.8396  1.9242
39496SOL    HW230213  11.091   4.182   3.431 -1.3129  3.9785  1.9161
39497SOL     OW30214   7.061  10.058   7.668  0.1723 -0.0903 -0.1325
39497SOL    HW130215   7.043  10.035   7.759  1.0566 -1.2712 -0.2350
39497SOL    HW230216   7.156  10.069   7.664  0.3399 -1.5198 -1.1929
39498SOL     OW30217   1.075  10.976   0.364  0.1385  0.2150  0.6013
39498SOL    HW130218   1.164  11.012   0.362  0.3122 -0.2506 -1.5582
39498SOL    HW230219   1.087  10.885   0.394  0.8062 -0.7593 -2.3351
39499SOL     OW30220   1.300   6.639   4.192 -0.1418 -0.0693  0.1054
39499SOL    HW130221   1.382   6.648   4.145  0.4195 -1.3931  0.7897
39499SOL    HW230222   1.323   6.654   4.284 -1.0176  1.3770  0.1252
39500SOL     OW30223   1.815   4.604   4.728  0.5187 -0.1837  0.9556
39500SOL    HW130224   1.822   4.509   4.736 -0.5777 -0.3515  0.2215
39500SOL    HW230225   1.868   4.639   4.799  3.6508 -1.2830 -0.6639
39501SOL     OW30226  10.768   0.931   3.339  0.1491  0.1400  0.1422
39501SOL    HW130227  10.853   0.962   3.372  0.0558  0.7804 -0.2015
39501SOL    HW230228  10.773   0.945   3.245 -0.5127  0.6258  0.1756
39502SOL     OW30229   9.494   4.627   9.695 -0.1572  0.2590 -0.0671
39502SOL    HW130230   9.480   4.542   9.737  0.8261  0.1309  0.0258
39502SOL    HW230231   9.472   4.691   9.763 -1.4526  0.1097 -0.3119
39503SOL     OW30232  11.542   5.240   3.263  0.7647 -0.4589 -0.2597
39503SOL    HW130233  11.622   5.291   3.259  1.0880 -0.9027  0.3247
39503SOL    HW230234  11.488   5.285   3.328  1.0251 -0.8097  0.2116
39504SOL     OW30235   1.553   9.696   6.200  0.2061 -0.0055 -0.0188
39504SOL    HW130236   1.464   9.702   6.234 -0.0892 -1.1306 -0.5226
39504SOL    HW230237   1.599   9.771   6.237 -1.2621  1.2908 -0.7191
39505SOL     OW30238   5.970   0.340   8.009  0.2436  0.3875 -0.3234
39505SOL    HW130239   6.035   0.360   7.941 -1.7206  1.7020 -1.9106
39505SOL    HW230240   5.955   0.424   8.053 -0.8887  0.2618 -0.4549
39506SOL     OW30241   5.102  10.564   8.171  0.7521  0.6175  0.4436
39506SOL    HW130242   5.024  10.565   8.116  0.4959  0.7457  0.8041
39506SOL    HW230243   5.168  10.612   8.121  0.9294 -0.4071 -0.3357
39507SOL     OW30244   6.740   2.846   5.032  0.3675  0.4343 -0.8697
39507SOL    HW130245   6.665   2.801   4.993 -0.0176  0.7172 -0.4575
39507SOL    HW230246   6.702   2.918   5.081  0.9952  1.4335 -1.7995
39508SOL     OW30247   9.061  10.243   7.914 -0.3737 -0.1937 -0.3570
39508SOL    HW130248   9.148  10.246   7.956 -0.5049 -1.5165  0.0481
39508SOL    HW230249   9.007  10.299   7.970  0.2604  0.8482 -0.7551
39509SOL     OW30250   2.202   8.425   1.265  0.3535  0.4672 -0.0836
39509SOL    HW130251   2.115   8.442   1.302 -0.4512  1.2234 -2.1683
39509SOL    HW230252   2.251   8.505   1.281  0.6459  0.0882  0.9821
39510SOL     OW30253   4.952   1.737   0.238 -0.1549 -0.1463  0.3790
39510SOL    HW130254   5.037   1.780   0.225  0.9306 -1.9372  1.1147
39510SOL    HW230255   4.945   1.727   0.333  1.2737 -4.4250  0.2651
39511SOL     OW30256   2.325   4.207   8.086  0.3218  0.3593 -0.3364
39511SOL    HW130257   2.378   4.286   8.098  0.0107  0.3239  1.5782
39511SOL    HW230258   2.379   4.136   8.123 -0.0126 -0.0850 -0.6911
39512SOL     OW30259   6.522   2.190   1.047  0.0811  0.3705  0.6037
39512SOL    HW130260   6.466   2.125   1.089  0.4106  0.3771  1.0525
39512SOL    HW230261   6.577   2.225   1.117  2.6049 -1.5951 -0.2325
39513SOL     OW30262  10.489   8.494   5.670 -0.6337  0.1261 -0.1319
39513SOL    HW130263  10.506   8.587   5.659 -0.4017  0.2120  0.9053
39513SOL    HW230264  10.575   8.453   5.662 -0.2964  0.2836  2.1894
39514SOL     OW30265   4.102   8.666   7.415  0.1126  0.0588 -0.3951
39514SOL    HW130266   4.143   8.752   7.428 -0.2821  0.2853 -0.6436
39514SOL    HW230267   4.102   8.654   7.320 -1.0413  0.3757 -0.4460
39515SOL     OW30268   0.256   6.881   4.804  0.6506  0.3830  0.0160
39515SOL    HW130269   0.165   6.877   4.775  0.6515  0.0749  0.0462
39515SOL    HW230270   0.251   6.913   4.894  0.5804  0.4887 -0.0259
39516SOL     OW30271   7.811  11.579   3.266  0.1174 -0.1970  0.0515
39516SOL    HW130272   7.719  11.582   3.241  0.7354 -1.2068 -2.5640
39516SOL    HW230273   7.826  11.489   3.295  0.4956 -0.3089 -0.4767
39517SOL     OW30274   3.106   7.348   7.441 -0.4273 -0.0357  0.0396
39517SOL    HW130275   3.155   7.304   7.372 -0.2448 -1.2074  0.8871
39517SOL    HW230276   3.139   7.310   7.522  0.8343  2.7436  0.9491
39518SOL     OW30277   1.172   6.085   2.309  0.2272  0.1324 -0.0983
39518SOL    HW130278   1.126   6.027   2.249  0.7171  0.9458 -1.2978
39518SOL    HW230279   1.158   6.047   2.396 -1.7400 -0.2582 -0.5511
39519SOL     OW30280  11.211   2.038   1.298  0.5757  0.5928  0.2666
39519SOL    HW130281  11.200   2.132   1.310  1.0117  0.7470 -0.5195
39519SOL    HW230282  11.122   2.003   1.300  0.4516  0.9195  1.3109
39520SOL     OW30283  10.178   0.493  10.010  0.2790 -0.6164  0.4564
39520SOL    HW130284  10.107   0.557  10.000 -0.6728 -1.5483  1.0680
39520SOL    HW230285  10.248   0.527   9.955 -0.7190  0.2114 -0.3481
39521SOL     OW30286   3.010   3.784   4.887  0.5962 -0.1043  0.3471
39521SOL    HW130287   3.043   3.788   4.797  2.0232 -0.4989  0.8278
39521SOL    HW230288   2.946   3.855   4.893 -0.3033 -0.7246 -1.2662
39522SOL     OW30289   9.114   8.250  11.702 -0.1261  0.1453 -0.2839
39522SOL    HW130290   9.064   8.293  11.633  0.6318  0.0806 -0.8874
39522SOL    HW230291   9.189   8.212  11.657  1.1049  1.2408  0.7473
39523SOL     OW30292   7.404   4.965  11.129 -0.0694 -0.1483 -0.0461
39523SOL    HW130293   7.412   4.978  11.035  0.2704 -1.3178 -0.1867
39523SOL    HW230294   7.335   5.027  11.156 -0.8343 -0.4715 -1.2057
39524SOL     OW30295   7.062   4.351  11.811 -0.5906  0.1365 -0.2205
39524SOL    HW130296   6.993   4.404  11.851 -1.3303 -0.9257 -0.0544
39524SOL    HW230297   7.020   4.311  11.735 -0.2250 -0.6904  0.0047
39525SOL     OW30298   0.111   8.378   4.510  0.1707 -0.0584  0.0299
39525SOL    HW130299   0.202   8.374   4.541  1.5948 -0.2167 -3.6897
39525SOL    HW230300   0.076   8.290   4.526  1.1727 -0.4437  0.1797
39526SOL     OW30301   4.318   1.244  11.376 -0.5917  0.5574  0.5193
39526SOL    HW130302   4.367   1.163  11.366 -1.4095 -0.0901  1.5077
39526SOL    HW230303   4.313   1.281  11.287 -0.4723 -0.6319  0.0055
39527SOL     OW30304   8.743   7.789   0.613 -0.1376  0.0000  0.1621
39527SOL    HW130305   8.724   7.764   0.523 -0.8805  1.4952 -0.1372
39527SOL    HW230306   8.805   7.724   0.644  1.1106  0.1525 -1.8382
39528SOL     OW30307   3.142   5.225   6.495 -0.3766  0.7750  0.4230
39528SOL    HW130308   3.226   5.180   6.505 -2.2496 -3.2516 -0.1950
39528SOL    HW230309   3.133   5.274   6.577  1.3688 -0.9021  1.7271
39529SOL     OW30310   0.883   2.951   0.018 -0.3408  0.6462 -0.2078
39529SOL    HW130311   0.949   2.884   0.037  0.4904  1.3124 -0.6597
39529SOL    HW230312   0.868   2.994   0.102 -0.0150  0.6564 -0.1530
39530SOL     OW30313   2.652  11.518   1.389 -0.2094 -0.2423  0.9975
39530SOL    HW130314   2.688  11.435   1.420  0.8911 -0.1463  0.0246
39530SOL    HW230315   2.720  11.582   1.405 -0.1876  0.0714 -0.2289
39531SOL     OW30316   2.653   9.891   0.687 -0.2000  0.1562  0.5217
39531SOL    HW130317   2.600   9.831   0.740 -1.1298  1.3511  1.0160
39531SOL    HW230318   2.732   9.842   0.667 -0.6342 -0.9939  1.4671
39532SOL     OW30319   9.963  11.886   8.237 -0.0133  0.1000 -0.2916
39532SOL    HW130320  10.048  11.842   8.242 -0.4871 -0.9596 -1.2664
39532SOL    HW230321   9.981  11.977   8.264  0.7970 -0.8551  2.8444
39533SOL     OW30322   4.870   8.611   5.478  0.1879 -0.8511  0.1303
39533SOL    HW130323   4.848   8.672   5.549  0.0081 -2.7669  1.8334
39533SOL    HW230324   4.952   8.570   5.507  0.1437 -1.6402 -0.8175
39534SOL     OW30325   9.347  10.759   7.563 -0.0886 -0.0136 -0.0029
39534SOL    HW130326   9.291  10.835   7.548 -0.8149 -0.2286  1.4443
39534SOL    HW230327   9.432  10.785   7.529 -0.4171  1.3136  0.1414
39535SOL     OW30328  10.084   3.375   9.571 -0.5319 -0.5184 -0.5409
39535SOL    HW130329  10.161   3.409   9.617 -0.0416 -0.6897 -1.2084
39535SOL    HW230330  10.117   3.354   9.483 -1.6620  0.6975 -1.2851
39536SOL     OW30331   2.898   0.591  10.639 -0.1049  0.0652 -0.1583
39536SOL    HW130332   2.808   0.578  10.668  0.5673 -1.0537  1.6339
39536SOL    HW230333   2.902   0.547  10.554 -1.1211 -0.3016 -0.0315
39537SOL     OW30334   5.378   8.755   8.207 -0.2542  0.2258 -0.6798
39537SOL    HW130335   5.466   8.719   8.195  0.0093  0.5587  0.2132
39537SOL    HW230336   5.346   8.715   8.288 -0.5710  0.8001 -0.5151
39538SOL     OW30337   2.710   0.373  11.562  0.0859 -0.0903 -0.1911
39538SOL    HW130338   2.676   0.312  11.627 -3.2290  0.1750 -1.4909
39538SOL    HW230339   2.689   0.459  11.596  1.7548  0.2419  0.0850
39539SOL     OW30340   2.633   8.289   3.544 -0.0759 -0.1561 -0.8764
39539SOL    HW130341   2.694   8.238   3.492  0.1234  1.4672 -2.3054
39539SOL    HW230342   2.556   8.233   3.554  1.8692 -2.6758  1.8329
39540SOL     OW30343   1.466   7.127   9.696  0.0815  0.5122 -0.5281
39540SOL    HW130344   1.554   7.151   9.725 -0.0962  0.4739  0.0644
39540SOL    HW230345   1.473   7.116   9.601  0.3060  2.3434 -0.7598
39541SOL     OW30346   3.028   5.131   8.164 -0.1335  0.2917 -0.0250
39541SOL    HW130347   3.019   5.214   8.117  0.9662  0.2771 -0.2979
39541SOL    HW230348   2.975   5.142   8.243 -3.5564 -0.3326 -2.0324
39542SOL     OW30349  11.436   2.661   8.165 -0.2088 -0.1954  0.9913
39542SOL    HW130350  11.434   2.607   8.244  2.7857 -0.5046  0.9611
39542SOL    HW230351  11.446   2.599   8.093  0.2869  0.2498  0.6711
39543SOL     OW30352   3.930   1.027   2.136 -0.4318 -0.3470  0.8825
39543SOL    HW130353   3.953   1.040   2.044  0.2554 -0.6676  0.9996
39543SOL    HW230354   3.845   1.070   2.146 -1.2959 -1.6719 -0.2852
39544SOL     OW30355   8.747  10.127   1.898  0.5097 -0.6000 -0.7280
39544SOL    HW130356   8.668  10.161   1.939  2.1949  0.2773  2.0652
39544SOL    HW230357   8.722  10.039   1.868 -0.9739 -1.2650  2.0951
39545SOL     OW30358   5.127   5.388   8.056 -0.3349  0.1034  0.2430
39545SOL    HW130359   5.166   5.471   8.029 -0.0799  0.4068  1.4720
39545SOL    HW230360   5.200   5.339   8.096 -0.9215  0.2023  1.5002
39546SOL     OW30361   3.169   2.539   3.914  0.2062 -0.6688  0.3011
39546SOL    HW130362   3.210   2.459   3.880 -0.9804 -1.0955 -0.1856
39546SOL    HW230363   3.082   2.510   3.944 -0.1232  0.3844  0.3897
39547SOL     OW30364   1.798   5.127   1.851  0.0064 -0.7186  0.8804
39547SOL    HW130365   1.810   5.032   1.855 -1.2847 -1.1122 -1.6580
39547SOL    HW230366   1.748   5.140   1.770 -0.9530  2.0305  1.8151
39548SOL     OW30367   4.810   3.003   4.086  0.1656  0.0583 -0.4854
39548SOL    HW130368   4.849   3.027   4.170  1.6432  1.4861 -1.5095
39548SOL    HW230369   4.719   3.031   4.093 -0.1735 -1.2828  1.1588
39549SOL     OW30370   8.333   6.647  11.957 -0.2676  0.2699 -0.0874
39549SOL    HW130371   8.272   6.579  11.986  0.4778  0.0388  1.0272
39549SOL    HW230372   8.306   6.726  12.003 -1.1771  0.7864 -1.4378
39550SOL     OW30373  11.929   1.314   0.508  0.1891  0.2299  0.1539
39550SOL    HW130374  11.864   1.294   0.576  0.5595  2.1622  1.1418
39550SOL    HW230375  11.893   1.274   0.429 -0.3392 -1.9396  1.4255
39551SOL     OW30376   7.618   0.533   3.669  0.6270 -0.0172 -0.1417
39551SOL    HW130377   7.542   0.476   3.680  1.3595 -0.8979  0.4398
39551SOL    HW230378   7.681   0.503   3.735  1.2012  1.1712 -0.1233
39552SOL     OW30379   7.267   2.138   7.105 -0.0886  0.2626 -0.2121
39552SOL    HW130380   7.219   2.174   7.031 -0.2730 -0.0463 -0.2446
39552SOL    HW230381   7.295   2.215   7.155  2.5329  0.6582 -2.0825
39553SOL     OW30382   7.431   9.234   8.628  0.1043  0.2042  0.3059
39553SOL    HW130383   7.461   9.211   8.716  0.0814  1.8395  0.7777
39553SOL    HW230384   7.437   9.329   8.625 -1.8603  0.3463 -0.7472
39554SOL     OW30385   3.241   8.150   4.514  0.5802  1.1121  0.0611
39554SOL    HW130386   3.148   8.150   4.488  0.9012 -2.3483 -1.6793
39554SOL    HW230387   3.242   8.105   4.599  0.7308 -0.9841 -0.9684
39555SOL     OW30388   8.319   5.851   8.258  0.1908  0.2219  0.3613
39555SOL    HW130389   8.302   5.817   8.170  0.1401  1.2383 -0.0404
39555SOL    HW230390   8.247   5.817   8.311  1.4466 -2.3370  0.5884
39556SOL     OW30391   7.822   5.481  11.507 -0.1091  0.3829  0.3207
39556SOL    HW130392   7.870   5.515  11.583 -0.1755  1.4358 -0.1002
39556SOL    HW230393   7.734   5.518  11.514 -0.1253  0.4672 -0.2544
39557SOL     OW30394   7.786   2.334   9.238  0.2418  0.2688  0.4305
39557SOL    HW130395   7.702   2.289   9.243 -0.1793  0.9450 -0.3866
39557SOL    HW230396   7.779   2.391   9.162  1.9266 -0.6771 -0.5121
39558SOL     OW30397   6.146   5.041   1.981  0.5852 -0.1496 -0.6290
39558SOL    HW130398   6.170   5.129   2.010  2.7085 -0.5607 -0.9852
39558SOL    HW230399   6.058   5.027   2.017  0.5405  1.7816  0.1338
39559SOL     OW30400   0.876   8.552   4.473 -0.3052 -1.1156 -0.5417
39559SOL    HW130401   0.788   8.533   4.440  0.5376 -2.8329 -1.9454
39559SOL    HW230402   0.885   8.647   4.464 -1.9928 -0.9060 -0.3782
39560SOL     OW30403   8.455   4.497   9.231  0.1480  0.0124 -0.3987
39560SOL    HW130404   8.453   4.402   9.235 -1.4779  0.0408  0.3768
39560SOL    HW230405   8.413   4.525   9.312  2.1870  1.4313  0.2235
39561SOL     OW30406  10.456   0.621   4.586 -0.4137  0.5112  0.0142
39561SOL    HW130407  10.436   0.607   4.493 -1.9253  2.2507  0.0108
39561SOL    HW230408  10.411   0.549   4.631 -0.6497  0.3114 -0.5305
39562SOL     OW30409   5.670   1.545   6.463 -0.0087  0.0402 -0.1753
39562SOL    HW130410   5.665   1.467   6.519  0.7731  0.2775  0.2431
39562SOL    HW230411   5.612   1.525   6.389  1.3289 -1.5992 -0.8625
39563SOL     OW30412   7.474   3.451   0.615 -0.3149 -0.4807  0.0574
39563SOL    HW130413   7.418   3.518   0.575 -0.7949 -0.4382  0.7860
39563SOL    HW230414   7.541   3.434   0.549 -0.1421  0.7748 -0.1220
39564SOL     OW30415   1.313   5.413   8.065 -0.2109  0.2916 -0.1282
39564SOL    HW130416   1.278   5.395   7.977 -1.9265 -0.6918  0.7134
39564SOL    HW230417   1.237   5.406   8.123  0.3718  3.3803  1.1932
39565SOL     OW30418   4.966   3.308  11.367 -0.3147 -0.0106 -0.7139
39565SOL    HW130419   5.047   3.358  11.379 -0.6838  0.3682  0.4055
39565SOL    HW230420   4.921   3.317  11.451 -1.9299  0.5322 -1.5956
39566SOL     OW30421  10.026   5.424   8.739 -0.0004  0.0566 -0.1090
39566SOL    HW130422   9.957   5.490   8.739 -0.2709 -0.2220  0.4589
39566SOL    HW230423  10.097   5.463   8.688 -0.3258  0.6033 -0.1462
39567SOL     OW30424   1.703  11.134   4.126 -0.4894  0.0533  0.2555
39567SOL    HW130425   1.724  11.150   4.218  0.1994 -1.4610  0.3937
39567SOL    HW230426   1.612  11.105   4.126 -0.8400  1.1166  0.3154
39568SOL     OW30427   5.632   9.576   3.199  0.2173 -0.1189  0.2655
39568SOL    HW130428   5.704   9.628   3.163  0.7193 -0.8154  0.2473
39568SOL    HW230429   5.601   9.524   3.126 -1.4578  1.3982 -0.1759
39569SOL     OW30430   0.337   0.356   5.880  0.0978  0.1888  0.3971
39569SOL    HW130431   0.337   0.375   5.974  1.1767 -0.2505  0.4987
39569SOL    HW230432   0.245   0.339   5.859  0.0028 -1.0747  1.6542
39570SOL     OW30433   2.553  10.019   9.625 -0.3738 -0.0724  0.0525
39570SOL    HW130434   2.505  10.101   9.637  1.3173  1.0356 -0.3437
39570SOL    HW230435   2.523   9.985   9.540 -0.9622  0.2170  0.1421
39571SOL     OW30436   3.156   4.790   6.891 -0.3070  0.1236 -1.1833
39571SOL    HW130437   3.116   4.765   6.974  2.0419  1.1030  0.3490
39571SOL    HW230438   3.112   4.871   6.866 -0.4168  0.3050 -0.4245
39572SOL     OW30439   5.163   3.500   5.631  0.1627 -0.0385 -0.3936
39572SOL    HW130440   5.199   3.461   5.711  2.4744  0.2204 -1.2564
39572SOL    HW230441   5.099   3.435   5.600 -0.8422 -0.1084  1.6553
39573SOL     OW30442  10.968   4.336   6.254 -0.5295 -0.2919  0.2171
39573SOL    HW130443  11.044   4.365   6.204  0.0736 -1.8987  0.1474
39573SOL    HW230444  10.954   4.405   6.319 -0.6322  1.2944 -1.3852
39574SOL     OW30445   8.947   6.986   5.060  0.8009  0.5303  0.4558
39574SOL    HW130446   9.040   7.005   5.052  1.0794  0.9871  3.5542
39574SOL    HW230447   8.930   6.985   5.154 -2.5223  1.3984  0.0183
39575SOL     OW30448   7.894   7.625  11.630 -0.6942 -0.7023  0.0923
39575SOL    HW130449   7.961   7.688  11.605 -0.7255 -0.3658  0.8336
39575SOL    HW230450   7.839   7.672  11.692 -0.6568 -1.4898  0.7389
39576SOL     OW30451   4.154   4.225   4.443 -0.3158  0.2805 -0.3454
39576SOL    HW130452   4.193   4.296   4.392 -0.0264  0.2278 -0.1951
39576SOL    HW230453   4.226   4.188   4.493 -0.3263 -0.5713 -0.9353
39577SOL     OW30454  11.234   5.169   9.704 -0.0897  0.0154 -0.3756
39577SOL    HW130455  11.211   5.180   9.611 -0.4265 -0.3031 -0.3322
39577SOL    HW230456  11.151   5.180   9.750 -0.0207 -0.3874 -0.1555
39578SOL     OW30457   0.486   6.192   2.972 -0.0236  0.0708  0.4505
39578SOL    HW130458   0.576   6.205   3.001 -0.3014  1.7489  0.6629
39578SOL    HW230459   0.491   6.119   2.910  2.0495  1.9857 -1.8970
39579SOL     OW30460   2.488  11.264   3.443  0.1133 -0.1245  0.4315
39579SOL    HW130461   2.414  11.210   3.470  0.4517  0.4305  2.6533
39579SOL    HW230462   2.533  11.211   3.377  0.2292 -2.4478  2.2623
39580SOL     OW30463   8.188  11.569   1.853  0.5381 -0.2104  0.1983
39580SOL    HW130464   8.119  11.581   1.788  0.4556 -0.5409  0.2227
39580SOL    HW230465   8.151  11.606   1.934  0.9862  1.0134 -0.1494
39581SOL     OW30466   6.293   6.680   4.632  0.4980 -0.5905 -0.2362
39581SOL    HW130467   6.207   6.639   4.643  0.7295 -0.5960  2.3135
39581SOL    HW230468   6.284   6.765   4.677  0.8767  0.9680 -2.8843
39582SOL     OW30469   7.038   1.663   8.441 -0.6008  0.7885 -0.7912
39582SOL    HW130470   7.059   1.661   8.348 -0.3478  1.2317 -0.7495
39582SOL    HW230471   6.986   1.585   8.456 -0.8560  0.8444 -1.3575
39583SOL     OW30472   1.565   6.139   7.338 -0.1236 -0.3525  0.2832
39583SOL    HW130473   1.478   6.140   7.378  0.0015 -1.0354  0.5831
39583SOL    HW230474   1.625   6.125   7.411  0.2605  0.3316  0.1047
39584SOL     OW30475  10.403  11.179   6.165  0.6422  0.6011  0.3914
39584SOL    HW130476  10.324  11.196   6.115  0.9307  1.3023  0.1634
39584SOL    HW230477  10.420  11.261   6.212 -0.3027 -0.3863  2.6220
39585SOL     OW30478   5.283   1.126   0.559  0.2996 -0.0560 -0.1282
39585SOL    HW130479   5.190   1.149   0.549  0.2766  0.1913  0.5810
39585SOL    HW230480   5.319   1.134   0.471 -0.4719 -0.7046 -0.5181
39586SOL     OW30481  11.528   4.478  11.619 -0.0850  0.0960 -0.4005
39586SOL    HW130482  11.510   4.407  11.681  0.9624 -0.6100 -0.8760
39586SOL    HW230483  11.591   4.440  11.557  0.8208  1.5540 -0.4262
39587SOL     OW30484   7.679   7.159   4.186  0.0204 -0.3925  0.2778
39587SOL    HW130485   7.755   7.112   4.153 -0.3554  0.0781 -1.3688
39587SOL    HW230486   7.616   7.091   4.207  0.5183 -0.7363  0.6801
39588SOL     OW30487   7.775   9.072  11.402  0.5620 -0.2208 -0.6665
39588SOL    HW130488   7.709   9.032  11.345  1.5549 -0.2054 -1.8606
39588SOL    HW230489   7.802   9.001  11.460  1.1334 -0.8783 -1.6963
39589SOL     OW30490   3.891   8.031   8.323 -0.0616  0.0214  0.2328
39589SOL    HW130491   3.930   8.018   8.409 -1.2065  1.4275  1.0114
39589SOL    HW230492   3.922   8.117   8.294  0.8932 -0.7354 -1.1264
39590SOL     OW30493  11.428  10.263   8.291 -0.2665 -0.2701 -0.2433
39590SOL    HW130494  11.445  10.357   8.285  0.7692 -0.4769 -0.7999
39590SOL    HW230495  11.403  10.249   8.383  1.6896  0.2474  0.4273
39591SOL     OW30496   3.880   4.808   8.557 -0.3733  0.1955  0.1653
39591SOL    HW130497   3.912   4.885   8.511  0.2846  0.8069  1.5800
39591SOL    HW230498   3.949   4.786   8.619 -1.4009 -0.3089  1.1854
39592SOL     OW30499   1.696   4.657   7.696  0.2646 -0.1581 -0.3443
39592SOL    HW130500   1.741   4.742   7.697 -2.2579  1.2968  1.3180
39592SOL    HW230501   1.726   4.612   7.775  0.9900 -0.4948 -0.8012
39593SOL     OW30502   6.164   5.654  10.303  0.8958 -0.3053  0.6010
39593SOL    HW130503   6.074   5.661  10.334  0.5262 -0.7731 -0.3240
39593SOL    HW230504   6.175   5.728  10.243  1.6201  0.6196  1.8204
39594SOL     OW30505   8.678   5.340   8.348 -0.2116  0.8985  0.4437
39594SOL    HW130506   8.592   5.373   8.373 -0.5673 -0.0025  0.4448
39594SOL    HW230507   8.711   5.403   8.284 -1.2891  0.7231 -0.2971
39595SOL     OW30508   8.196   6.934   3.060 -0.4359 -0.1233  0.2258
39595SOL    HW130509   8.125   6.979   3.106 -0.7245 -0.0020 -0.3277
39595SOL    HW230510   8.264   7.001   3.051 -0.3634 -0.1583  0.5084
39596SOL     OW30511   1.759   9.866   6.344  0.4657 -0.0516  0.3368
39596SOL    HW130512   1.745   9.898   6.433 -1.8329 -1.6854  0.6443
39596SOL    HW230513   1.814   9.788   6.355 -0.9983 -1.0887  0.5248
39597SOL     OW30514   8.770   3.935   1.463  0.2242  0.5769 -0.1167
39597SOL    HW130515   8.725   3.857   1.431 -0.7777  1.5183 -1.1090
39597SOL    HW230516   8.859   3.927   1.429  0.1635 -0.1739 -0.1214
39598SOL     OW30517   8.639   1.963  10.395 -0.5633 -0.5607 -0.4183
39598SOL    HW130518   8.665   1.872  10.410 -1.7433 -0.6794  1.2668
39598SOL    HW230519   8.551   1.956  10.357 -1.3627 -0.1650  1.2542
39599SOL     OW30520   2.508   3.224  11.501 -0.0290  0.1916  0.3553
39599SOL    HW130521   2.588   3.172  11.497  1.3220  1.9479  2.4127
39599SOL    HW230522   2.497   3.259  11.412  0.8928 -0.8863 -0.1960
39600SOL     OW30523  10.452   0.106  11.409  0.1236 -0.0669 -0.1616
39600SOL    HW130524  10.448   0.176  11.473  2.3752 -1.5387  1.7571
39600SOL    HW230525  10.519   0.135  11.346 -0.8677  0.6173 -0.9415
39601SOL     OW30526   5.392   5.019   8.202 -0.0168 -0.3966  0.5113
39601SOL    HW130527   5.406   4.933   8.163  1.9192 -0.2901  0.8455
39601SOL    HW230528   5.332   5.004   8.275 -0.2145 -1.3386  0.1621
39602SOL     OW30529   7.780   9.552   6.765 -0.3234  0.3955  0.1839
39602SOL    HW130530   7.777   9.495   6.688 -0.9539  2.1170 -1.1241
39602SOL    HW230531   7.707   9.523   6.819  0.4168 -1.1481  0.4247
39603SOL     OW30532   7.350   5.909   8.639 -0.7211 -0.4904  0.3886
39603SOL    HW130533   7.394   5.993   8.628 -0.5058 -0.5831  0.5201
39603SOL    HW230534   7.261   5.932   8.667 -1.1111 -0.2716 -0.9792
39604SOL     OW30535   4.703   4.063   7.766  0.1615 -0.0364  0.6710
39604SOL    HW130536   4.617   4.064   7.807 -1.2652 -3.3587 -1.7881
39604SOL    HW230537   4.724   3.971   7.754  4.1623  0.6061  1.1300
39605SOL     OW30538   8.213  10.421   8.563  0.7188 -0.3671 -0.2739
39605SOL    HW130539   8.193  10.496   8.619  0.2487 -0.3430 -0.4741
39605SOL    HW230540   8.306  10.431   8.542  0.4148  0.7312 -1.1566
39606SOL     OW30541   7.391   5.469   0.900  0.1059  0.1743 -0.3096
39606SOL    HW130542   7.352   5.471   0.813  0.8051  0.0897 -0.6289
39606SOL    HW230543   7.454   5.398   0.896 -0.3173 -0.2551  0.4701
39607SOL     OW30544   7.388   0.610   0.580  0.0736 -0.2720  0.0751
39607SOL    HW130545   7.308   0.568   0.548  0.1121  0.0448 -0.4463
39607SOL    HW230546   7.413   0.558   0.656  1.3473 -2.5967 -1.8019
39608SOL     OW30547   8.259   7.817  10.806  0.6040  0.0875 -0.5969
39608SOL    HW130548   8.276   7.887  10.868 -0.1184  1.2246 -1.6406
39608SOL    HW230549   8.332   7.756  10.818  0.7346  0.5092  1.0038
39609SOL     OW30550  10.433   5.342   2.259 -0.2618 -0.0480 -0.1176
39609SOL    HW130551  10.471   5.294   2.332  0.9511 -0.8553 -1.2374
39609SOL    HW230552  10.397   5.275   2.202 -1.0286  0.5621 -0.3716
39610SOL     OW30553   4.057   9.982   0.676  0.3832  0.6028  0.4112
39610SOL    HW130554   4.134   9.937   0.712 -0.0746 -2.1114 -1.6678
39610SOL    HW230555   4.091  10.065   0.642  1.8075  0.7472  2.0422
39611SOL     OW30556   8.467   7.172   6.246  0.0461  0.6415 -0.1370
39611SOL    HW130557   8.430   7.123   6.173 -0.8385 -1.0117  1.3385
39611SOL    HW230558   8.547   7.126   6.269 -1.0971 -0.6470  1.6461
39612SOL     OW30559   0.825   0.676   5.918  0.6689  0.1531  0.7531
39612SOL    HW130560   0.744   0.640   5.883  0.4139  1.1315  0.3238
39612SOL    HW230561   0.852   0.613   5.985  0.2665 -0.8613 -0.0120
39613SOL     OW30562   3.061   2.047   4.836 -0.0059  0.3901 -0.0930
39613SOL    HW130563   3.149   2.079   4.815 -0.3574  0.2445 -2.0110
39613SOL    HW230564   3.012   2.126   4.860  0.5395  0.5214  0.6131
39614SOL     OW30565   7.071   0.880   4.290  0.4315 -0.0237  0.0696
39614SOL    HW130566   7.057   0.852   4.199  0.4456  0.4656 -0.0862
39614SOL    HW230567   7.046   0.972   4.291 -0.9833 -0.3878  0.9066
39615SOL     OW30568   5.045   5.091   4.236  0.1126 -0.5192 -0.1852
39615SOL    HW130569   5.094   5.044   4.169  0.4985  0.8234 -0.8698
39615SOL    HW230570   5.006   5.166   4.191 -0.5457 -0.1990  0.8596
39616SOL     OW30571   6.629   6.793  10.308 -0.2852  0.2355 -0.5469
39616SOL    HW130572   6.667   6.705  10.310 -0.1061  0.3035 -0.8250
39616SOL    HW230573   6.704   6.851  10.292 -0.7326  0.2159 -3.0377
39617SOL     OW30574   3.643   2.137   7.846 -0.2139  0.5738  0.1163
39617SOL    HW130575   3.566   2.081   7.858  0.5073 -0.4460  0.0966
39617SOL    HW230576   3.658   2.138   7.751  0.0704  0.4003  0.1596
39618SOL     OW30577   9.664   7.065  11.169  0.3451 -0.0931 -0.0870
39618SOL    HW130578   9.586   7.102  11.210  0.2166 -1.3057  0.8387
39618SOL    HW230579   9.732   7.074  11.236  1.1163  1.2761 -1.0155
39619SOL     OW30580  11.107   7.533   7.888 -0.6434  0.3674 -0.4727
39619SOL    HW130581  11.141   7.497   7.969  0.0144  1.3050 -0.3147
39619SOL    HW230582  11.034   7.475   7.864  0.3185 -0.9995 -0.2067
39620SOL     OW30583   1.305   9.872  11.353  0.1263 -0.2134  0.4343
39620SOL    HW130584   1.356   9.859  11.273  1.5196  1.1035  1.0569
39620SOL    HW230585   1.315   9.790  11.402 -1.2114 -1.2543 -0.9361
39621SOL     OW30586   9.598   0.475   1.006  0.7144  0.1466  0.0259
39621SOL    HW130587   9.684   0.444   1.034  1.8929  0.4979 -2.8634
39621SOL    HW230588   9.566   0.406   0.947 -0.6039  0.4289  0.3709
39622SOL     OW30589   0.318   8.474   8.773  0.4350  0.6956  0.1786
39622SOL    HW130590   0.227   8.464   8.748  0.5728  3.4935 -1.9699
39622SOL    HW230591   0.316   8.514   8.859 -0.3359  0.5997  0.2057
39623SOL     OW30592   4.509   9.954   5.596  0.0788  0.1930  0.2681
39623SOL    HW130593   4.555  10.029   5.560 -1.5394  1.5759  0.9562
39623SOL    HW230594   4.578   9.891   5.619  1.3749  0.8808 -1.5675
39624SOL     OW30595  11.450   2.979   8.154 -0.1123  0.4637  0.3591
39624SOL    HW130596  11.497   3.005   8.075 -0.5466  1.8323  0.5183
39624SOL    HW230597  11.510   2.920   8.199 -0.8276 -2.3771 -2.1357
39625SOL     OW30598  11.755   4.138  11.897  0.4164  0.7654  0.2417
39625SOL    HW130599  11.729   4.074  11.830  2.1552  0.5687 -0.2981
39625SOL    HW230600  11.780   4.085  11.973 -0.1444  0.9154  0.5346
39626SOL     OW30601   8.976   9.489  10.195 -0.4588  0.6269 -1.0742
39626SOL    HW130602   9.014   9.516  10.279 -0.2184  0.6990 -1.2077
39626SOL    HW230603   8.994   9.395  10.190 -0.3748  0.6448 -1.0983
39627SOL     OW30604   8.313   6.398   8.280 -0.0172  0.3235  0.0824
39627SOL    HW130605   8.264   6.326   8.320 -0.8263  0.4118 -0.7167
39627SOL    HW230606   8.313   6.378   8.186  0.9040  0.6844 -0.0088
39628SOL     OW30607   6.400   4.996   6.645 -0.9841  0.0055  0.3947
39628SOL    HW130608   6.410   5.002   6.550 -1.9666  2.7250  0.3682
39628SOL    HW230609   6.340   5.068   6.667  0.3120  0.3483  3.2248
39629SOL     OW30610  11.782   2.229   3.428 -0.0144 -0.2551 -0.2985
39629SOL    HW130611  11.864   2.274   3.413  2.3087 -3.5874  1.1619
39629SOL    HW230612  11.763   2.243   3.521 -0.9323  0.1833 -0.5375
39630SOL     OW30613   4.355  11.414   4.572  0.1574 -0.1367  0.7374
39630SOL    HW130614   4.403  11.440   4.494  0.5211 -1.5423  0.4547
39630SOL    HW230615   4.414  11.355   4.618 -0.2507  0.2801  1.8189
39631SOL     OW30616   2.695   3.962   2.434  0.0344 -0.0997  0.3126
39631SOL    HW130617   2.694   3.909   2.354 -1.3409 -0.8645  0.8084
39631SOL    HW230618   2.622   4.023   2.423  1.7240  1.8860 -0.3382
39632SOL     OW30619   2.135   6.687   1.501  0.0822 -0.2743  0.0811
39632SOL    HW130620   2.071   6.729   1.443  0.0736 -0.0261  0.2669
39632SOL    HW230621   2.141   6.597   1.469 -0.2253 -0.2497 -0.0498
39633SOL     OW30622   9.900  10.224   9.043  0.2231 -0.4834  0.3996
39633SOL    HW130623   9.904  10.210   9.138 -1.2762 -3.5270  0.1395
39633SOL    HW230624   9.812  10.194   9.018  0.4141  0.6769 -1.9083
39634SOL     OW30625   4.913   6.024   1.244  0.2019  0.4315  0.3213
39634SOL    HW130626   4.927   6.113   1.211  0.6429  0.5315  0.7530
39634SOL    HW230627   4.833   6.029   1.295  1.0564  0.9752  1.6669
39635SOL     OW30628   0.624   8.188   5.063  0.1502  0.3596  0.1352
39635SOL    HW130629   0.694   8.246   5.034  1.7506 -0.2636  2.4203
39635SOL    HW230630   0.665   8.102   5.071 -0.9361 -0.1013  1.1696
39636SOL     OW30631   6.412  11.013   2.061 -0.0682 -0.6746 -0.0129
39636SOL    HW130632   6.503  11.019   2.090  0.3731  0.4836 -1.5309
39636SOL    HW230633   6.415  11.033   1.968 -2.2431  2.6207  0.4697
39637SOL     OW30634  11.851   2.731   0.966 -0.4681  0.1453  0.4679
39637SOL    HW130635  11.900   2.810   0.946  0.1106  0.0206  1.3409
39637SOL    HW230636  11.824   2.741   1.058  0.4062 -1.0581  0.8840
39638SOL     OW30637   4.627   4.341   6.795 -0.4120  0.4786 -0.1442
39638SOL    HW130638   4.560   4.273   6.801  0.1567  0.0129  2.4173
39638SOL    HW230639   4.683   4.326   6.872  2.0312  1.4806 -1.6102
39639SOL     OW30640   5.969   5.462   7.031 -0.3632 -0.0558 -0.0491
39639SOL    HW130641   5.984   5.446   6.938 -0.6823  0.6952 -0.2315
39639SOL    HW230642   5.900   5.529   7.034 -0.6225 -0.3399  0.7299
39640SOL     OW30643   7.935   6.041   9.862 -0.1454 -0.2379  0.5860
39640SOL    HW130644   7.919   5.962   9.811 -1.2256 -0.2534  0.9120
39640SOL    HW230645   7.876   6.033   9.937  0.0027  0.6907  0.8190
39641SOL     OW30646   3.943  10.295   7.397  0.3574  0.2912  0.2325
39641SOL    HW130647   3.981  10.334   7.318  0.7311  0.9201  0.7092
39641SOL    HW230648   4.013  10.298   7.462 -0.5834  1.8854  1.2683
39642SOL     OW30649   8.644   9.817   5.929 -0.2943  0.3160  0.3739
39642SOL    HW130650   8.613   9.822   6.019  0.0254  0.0370  0.5012
39642SOL    HW230651   8.740   9.814   5.937 -0.2926 -1.4897  0.1221
39643SOL     OW30652   1.575   2.710   4.314 -0.2138  0.2845  0.5922
39643SOL    HW130653   1.599   2.642   4.377  0.4945  1.3083  1.4679
39643SOL    HW230654   1.614   2.790   4.349 -1.7416  1.3265  0.0544
39644SOL     OW30655  11.114   1.344   8.148  0.8245 -0.1748 -0.0758
39644SOL    HW130656  11.189   1.364   8.204  0.1966 -1.0917  1.1299
39644SOL    HW230657  11.083   1.258   8.178  0.7075 -0.9186 -2.1050
39645SOL     OW30658   3.377   6.334   9.350  0.3869 -0.2949 -0.0806
39645SOL    HW130659   3.362   6.383   9.431  0.0608  2.4198 -1.6860
39645SOL    HW230660   3.294   6.340   9.303  1.0392 -0.5140 -1.2879
39646SOL     OW30661   6.750   9.382   0.496 -0.7700  0.2277  0.1857
39646SOL    HW130662   6.749   9.410   0.588  1.8363  1.1436  0.0178
39646SOL    HW230663   6.805   9.447   0.452 -4.3883  1.6902 -2.7677
39647SOL     OW30664   1.325   8.378  11.478 -0.7050 -0.3659 -0.1310
39647SOL    HW130665   1.385   8.446  11.448  0.4049 -1.1339  0.2890
39647SOL    HW230666   1.267   8.422  11.539  0.0404  0.1989  0.1813
39648SOL     OW30667   7.899   3.362   9.906  0.3329  0.6517 -0.2940
39648SOL    HW130668   7.814   3.371   9.948  1.3443 -0.7977  2.3114
39648SOL    HW230669   7.943   3.445   9.922  0.5787  0.2320  1.2960
39649SOL     OW30670   3.363  10.108   4.525  0.1273  0.3369  0.4091
39649SOL    HW130671   3.410  10.071   4.599  0.1069  0.8963  0.7030
39649SOL    HW230672   3.271  10.096   4.546  0.1200 -1.0093 -0.2938
39650SOL     OW30673   6.971   9.184   5.289 -0.9314  0.0152  0.3670
39650SOL    HW130674   6.989   9.098   5.327 -0.5948 -0.7647 -1.4566
39650SOL    HW230675   7.057   9.218   5.264 -1.1284  0.5937  0.4484
39651SOL     OW30676  10.680  11.106   9.971  0.4633 -0.7886  0.5149
39651SOL    HW130677  10.617  11.147   9.911 -0.5531 -2.4194  0.3922
39651SOL    HW230678  10.628  11.083  10.048  0.6450 -2.9522  0.0599
39652SOL     OW30679   6.361   1.620   9.966 -0.4716 -0.1153 -0.0505
39652SOL    HW130680   6.274   1.580   9.962 -0.8361  0.7365 -1.2152
39652SOL    HW230681   6.347   1.704  10.009 -0.3721  0.3335 -0.8677
39653SOL     OW30682   8.828   3.753  10.648  0.0599 -0.0120 -0.2425
39653SOL    HW130683   8.841   3.825  10.586  0.7792 -0.3875 -0.5382
39653SOL    HW230684   8.746   3.774  10.692  0.2240  0.9589 -0.3722
39654SOL     OW30685   3.013  11.153  10.460 -0.0910 -0.0937  0.1020
39654SOL    HW130686   2.925  11.153  10.497  0.4932  0.3782  1.5684
39654SOL    HW230687   3.006  11.205  10.380 -1.0486  0.3005  0.4333
39655SOL     OW30688   8.900   4.297   9.071 -0.0615  1.0974 -0.0809
39655SOL    HW130689   8.910   4.392   9.067 -0.7023  1.1428 -0.6783
39655SOL    HW230690   8.851   4.274   8.992 -0.3797  0.3291  0.3300
39656SOL     OW30691   9.667   5.573   3.866  0.0235  0.8844  0.1025
39656SOL    HW130692   9.738   5.635   3.853  0.7695  0.3486  1.3816
39656SOL    HW230693   9.652   5.534   3.780 -0.6874  3.0158 -0.8139
39657SOL     OW30694   0.770   3.280   4.461  0.7678 -0.4355  1.0068
39657SOL    HW130695   0.711   3.242   4.396  0.4787 -0.3731  1.2316
39657SOL    HW230696   0.715   3.294   4.538  1.0736 -0.3662  1.2138
39658SOL     OW30697   3.590   6.728   8.251 -0.1908  0.2406 -0.0396
39658SOL    HW130698   3.609   6.634   8.250  1.2000  0.4949 -1.2162
39658SOL    HW230699   3.666   6.767   8.295  1.4956  1.1374 -3.3655
39659SOL     OW30700   8.627   8.737   7.086 -0.0160  0.2156 -0.8847
39659SOL    HW130701   8.571   8.671   7.126  1.6889 -0.8319 -0.1323
39659SOL    HW230702   8.594   8.820   7.121 -0.0320 -0.5041  0.9357
39660SOL     OW30703  11.710   3.998   8.423  0.4373 -0.0175 -0.1183
39660SOL    HW130704  11.768   3.992   8.499  0.0679 -0.3429  0.1410
39660SOL    HW230705  11.768   3.988   8.347  0.6113 -1.2323  0.1574
39661SOL     OW30706  11.184   0.628   8.770 -0.1812 -0.1388  0.3414
39661SOL    HW130707  11.255   0.661   8.716 -0.8202  0.7336  0.0017
39661SOL    HW230708  11.225   0.566   8.830  0.6853 -0.4149 -0.5243
39662SOL     OW30709  11.097   1.320   0.286 -0.7347  0.2213  0.1645
39662SOL    HW130710  11.037   1.275   0.226 -1.9614 -0.1932  1.6238
39662SOL    HW230711  11.068   1.293   0.373  1.7219 -0.1359  0.9548
39663SOL     OW30712   4.448   6.789   7.069  0.0507 -0.0348  0.0242
39663SOL    HW130713   4.472   6.730   7.141 -1.6460  0.6322  1.1860
39663SOL    HW230714   4.353   6.787   7.067  0.0408 -0.4659 -2.6162
39664SOL     OW30715   4.912   3.976   1.125  0.0797 -0.2476 -0.0467
39664SOL    HW130716   4.926   4.019   1.209  1.3812  1.7269 -1.1854
39664SOL    HW230717   4.945   3.888   1.137 -0.4504 -0.2478  1.7003
39665SOL     OW30718   4.339   0.275   7.634  0.6041 -0.1223  0.7783
39665SOL    HW130719   4.319   0.226   7.714  0.1628  0.4958  1.0596
39665SOL    HW230720   4.294   0.227   7.564  1.8781 -1.2833  0.7110
39666SOL     OW30721  10.996  11.048  10.018 -0.0416  0.3949  0.4467
39666SOL    HW130722  11.089  11.069  10.013  0.2518 -0.5560 -4.8724
39666SOL    HW230723  10.956  11.123  10.061  2.8521  2.5347 -0.2581
39667SOL     OW30724   0.226   1.117   9.463 -0.0916 -0.1084  0.0802
39667SOL    HW130725   0.258   1.207   9.470  0.7706 -0.5348  2.0922
39667SOL    HW230726   0.302   1.066   9.435 -0.0308 -0.5185  0.9650
39668SOL     OW30727   0.620   6.972   4.835  0.4652 -0.8731  0.0996
39668SOL    HW130728   0.678   6.940   4.903 -0.5190  1.1733  2.0161
39668SOL    HW230729   0.590   6.893   4.789  0.5121 -2.4238  2.5819
39669SOL     OW30730   7.556  11.119   6.725  0.2363 -0.4455 -0.0669
39669SOL    HW130731   7.555  11.026   6.703 -3.6454 -1.3464  2.7422
39669SOL    HW230732   7.616  11.125   6.799 -0.5879 -1.0641  0.6730
39670SOL     OW30733   3.702   5.438   9.798  0.0559 -0.1215  0.4719
39670SOL    HW130734   3.649   5.496   9.743  1.8474  1.1935  0.0202
39670SOL    HW230735   3.744   5.378   9.736  1.0451  0.5110  0.4921
39671SOL     OW30736   4.998   6.384   2.159  0.3850 -0.2435  0.1036
39671SOL    HW130737   4.944   6.308   2.137 -0.8396  1.0615 -1.7783
39671SOL    HW230738   5.063   6.351   2.220  1.2729 -3.3005 -2.2522
39672SOL     OW30739   6.078  11.014   1.098  0.2159 -0.0498  0.0534
39672SOL    HW130740   6.003  10.959   1.120  0.2802 -0.2562 -0.2282
39672SOL    HW230741   6.148  10.983   1.154 -0.1202  0.6785  0.8933
39673SOL     OW30742  10.829   1.512   9.854  0.3961 -0.2735 -0.0416
39673SOL    HW130743  10.838   1.432   9.906  0.4329 -0.0279  0.3355
39673SOL    HW230744  10.886   1.575   9.897 -1.0333  0.5081  0.7996
39674SOL     OW30745   2.369   0.587   2.505 -0.2673 -0.0457  0.3872
39674SOL    HW130746   2.362   0.669   2.456 -0.1795 -1.2250 -1.7214
39674SOL    HW230747   2.461   0.581   2.529 -0.1490  0.1587 -0.0062
39675SOL     OW30748  11.937   1.393   7.416  0.2134  0.3452 -0.0946
39675SOL    HW130749  11.992   1.318   7.440  0.7819  0.8819  0.3087
39675SOL    HW230750  11.982   1.432   7.341  0.9448  1.3630  0.8404
39676SOL     OW30751   8.679  11.820   2.061  0.0010  0.0362 -0.0648
39676SOL    HW130752   8.699  11.841   2.152 -0.4880 -1.7824  0.5166
39676SOL    HW230753   8.585  11.806   2.060 -0.4448  2.5712 -1.4672
39677SOL     OW30754  11.726   2.526   5.804  0.0928  0.0904  0.4179
39677SOL    HW130755  11.643   2.574   5.797 -0.4466 -0.9932 -0.9526
39677SOL    HW230756  11.704   2.436   5.782  1.3870 -0.5098  1.4411
39678SOL     OW30757   6.133   5.698   1.191  0.0273 -0.2944 -0.2794
39678SOL    HW130758   6.080   5.775   1.209 -1.0951 -1.0716 -0.1689
39678SOL    HW230759   6.151   5.702   1.097  1.8532  1.2358  0.0700
39679SOL     OW30760  11.954   3.155   7.770  0.2058  0.4358 -0.4414
39679SOL    HW130761  11.955   3.147   7.865  0.3277  0.6410 -0.4256
39679SOL    HW230762  11.887   3.220   7.751  0.9932  1.2773 -0.4260
39680SOL     OW30763   8.565  10.847   1.528  0.6595 -0.0770  0.1570
39680SOL    HW130764   8.638  10.789   1.508  0.5253  0.1335 -0.9720
39680SOL    HW230765   8.518  10.856   1.446 -1.3347 -1.1681  1.0901
39681SOL     OW30766   8.397   2.976   9.572 -0.4734  0.0675 -0.1500
39681SOL    HW130767   8.363   3.065   9.576 -2.4843 -0.6287 -0.3355
39681SOL    HW230768   8.385   2.942   9.661 -1.2284 -0.4997 -0.4528
39682SOL     OW30769   3.364   6.445   6.150 -0.4619 -0.1882 -0.8305
39682SOL    HW130770   3.332   6.359   6.176 -0.7685  0.0975 -0.2551
39682SOL    HW230771   3.429   6.468   6.216 -0.4890  0.0862 -0.8977
39683SOL     OW30772  10.044  10.702   3.073  0.1828  0.3739 -0.0950
39683SOL    HW130773  10.127  10.739   3.105  0.1947 -0.3817  0.7893
39683SOL    HW230774  10.055  10.697   2.978  0.8286  1.0512 -0.0669
39684SOL     OW30775   8.912   0.824   7.215 -0.2616  0.0949  0.1995
39684SOL    HW130776   8.926   0.856   7.126 -0.9266  0.5776  0.2592
39684SOL    HW230777   8.965   0.883   7.269 -0.2608  0.1229  0.1692
39685SOL     OW30778   5.251   2.561  10.632  0.1000 -0.3176 -0.2104
39685SOL    HW130779   5.273   2.534  10.721 -3.2360  0.5979  1.0655
39685SOL    HW230780   5.226   2.653  10.640  1.5405  0.3617 -2.5122
39686SOL     OW30781   6.899  11.941   4.977 -0.0797  0.1346 -0.0948
39686SOL    HW130782   6.871  12.032   4.984 -0.7021 -0.0899  0.5027
39686SOL    HW230783   6.892  11.907   5.067  0.4638 -0.4059 -0.2499
39687SOL     OW30784   2.260  11.104   3.530  0.5499 -0.1571  0.7268
39687SOL    HW130785   2.173  11.140   3.511  0.3281 -0.4879  1.1178
39687SOL    HW230786   2.250  11.060   3.614  1.0499 -0.3641  0.6779
39688SOL     OW30787   0.902   2.258   9.473 -0.0193 -0.5785  0.0862
39688SOL    HW130788   0.884   2.315   9.399 -1.1182 -0.4477  0.4368
39688SOL    HW230789   0.871   2.307   9.549 -1.3921 -1.7985  0.3566
39689SOL     OW30790   1.488  10.830  10.538  0.2336  0.2804 -0.1112
39689SOL    HW130791   1.404  10.794  10.566 -0.5953  1.6512 -0.7592
39689SOL    HW230792   1.523  10.873  10.616  0.5429 -0.6104  0.2631
39690SOL     OW30793   5.898   9.733   2.255  0.1094 -0.6655 -0.5571
39690SOL    HW130794   5.950   9.678   2.195 -1.8224 -0.9203 -2.1021
39690SOL    HW230795   5.837   9.672   2.296  0.6536 -0.2940  0.8570
39691SOL     OW30796  11.241   6.945   9.289  0.4008 -0.1160  0.0116
39691SOL    HW130797  11.233   6.995   9.370 -2.3809  0.5894 -0.5926
39691SOL    HW230798  11.157   6.901   9.280  0.8732 -0.6906 -2.1694
39692SOL     OW30799   2.986   2.170   1.050 -0.3407 -0.0383 -0.7894
39692SOL    HW130800   3.051   2.196   0.985  0.5758  1.2445  0.5755
39692SOL    HW230801   2.966   2.251   1.098 -0.7754 -0.9749  0.6905
39693SOL     OW30802   5.729   9.434   5.130 -1.1160 -0.3102 -0.2952
39693SOL    HW130803   5.822   9.457   5.128 -1.4936  1.3752 -0.0587
39693SOL    HW230804   5.725   9.348   5.088  0.8851 -1.7163  2.0406
39694SOL     OW30805   9.216   6.110   0.508  0.2577 -0.5793  0.0589
39694SOL    HW130806   9.141   6.112   0.449  1.3262 -0.0851 -1.3528
39694SOL    HW230807   9.256   6.196   0.499  1.7039 -1.2390 -0.2275
39695SOL     OW30808   5.476   2.206   5.253  0.5777  0.3977 -0.2763
39695SOL    HW130809   5.389   2.175   5.230  0.5575  1.3392 -1.5753
39695SOL    HW230810   5.489   2.284   5.200  2.8478 -0.6183 -1.3868
39696SOL     OW30811   8.004   3.640   9.008 -0.8507 -0.0027  0.0937
39696SOL    HW130812   8.007   3.736   8.999 -2.0947 -0.0189 -0.7351
39696SOL    HW230813   8.080   3.609   8.960 -1.9065  0.4545 -1.9736
39697SOL     OW30814  10.327   3.044   0.595  0.9502  0.4906 -0.4562
39697SOL    HW130815  10.397   3.042   0.661  1.2801 -0.2458 -0.8133
39697SOL    HW230816  10.334   2.959   0.550 -1.5406 -0.5471  0.9182
39698SOL     OW30817   1.484   9.004  10.973 -0.4753  0.4164 -0.1740
39698SOL    HW130818   1.487   9.029  11.066 -1.8745 -0.2820  0.0843
39698SOL    HW230819   1.391   8.993  10.954 -0.2648  1.2711 -1.8735
39699SOL     OW30820   1.464   3.323   9.607  0.1529 -0.3254 -0.4273
39699SOL    HW130821   1.469   3.409   9.648 -2.4024 -0.0154 -0.6119
39699SOL    HW230822   1.549   3.312   9.564  0.4129  2.2479 -0.7159
39700SOL     OW30823  10.122   9.463   8.050 -0.4486  0.6701 -0.1506
39700SOL    HW130824  10.047   9.483   8.106  0.7926  1.7591  1.2229
39700SOL    HW230825  10.187   9.530   8.071  2.0204 -1.7907  0.9008
39701SOL     OW30826  11.271   9.240   9.466  0.0406  0.5769 -0.6561
39701SOL    HW130827  11.223   9.168   9.425  1.5904 -0.6565 -0.4130
39701SOL    HW230828  11.215   9.269   9.538  0.7825 -2.7056  1.4186
39702SOL     OW30829   0.508   9.373  10.215 -0.2033  0.1776 -0.6540
39702SOL    HW130830   0.468   9.349  10.299  1.1769  0.4142  0.0910
39702SOL    HW230831   0.544   9.291  10.181  3.2964  0.7434  1.2369
39703SOL     OW30832   7.045   9.435   6.265 -0.6833  0.0078  0.2998
39703SOL    HW130833   7.066   9.385   6.186 -1.4773 -1.6803  1.1020
39703SOL    HW230834   6.961   9.477   6.245 -0.3801  0.4191 -0.1179
39704SOL     OW30835   0.550   5.892   0.796 -0.1030 -0.5154 -0.1114
39704SOL    HW130836   0.492   5.818   0.813  0.8700 -0.7533  2.6212
39704SOL    HW230837   0.631   5.852   0.762 -0.5381 -0.4143 -1.3186
39705SOL     OW30838   5.285   0.646   5.323 -0.1430 -0.1855 -0.5727
39705SOL    HW130839   5.294   0.560   5.282 -0.2700 -0.2593 -0.4483
39705SOL    HW230840   5.282   0.627   5.417 -0.1723 -0.0453 -0.5455
39706SOL     OW30841   2.469   6.635   4.916 -0.8485 -1.1697  0.0275
39706SOL    HW130842   2.481   6.725   4.947 -1.2978 -1.0534 -0.1291
39706SOL    HW230843   2.381   6.611   4.947 -0.7348 -1.5504  0.0585
39707SOL     OW30844   5.795   3.091   6.246  0.4599  0.1118 -0.1104
39707SOL    HW130845   5.848   3.166   6.221 -0.4232  0.8209  0.0820
39707SOL    HW230846   5.707   3.127   6.258  0.4794 -0.4928  2.2936
39708SOL     OW30847   9.697   6.039   3.105  0.2179  0.2895  0.1858
39708SOL    HW130848   9.754   6.047   3.029  0.9262  1.7607  0.8239
39708SOL    HW230849   9.733   6.101   3.169 -1.0764 -0.0142  1.2643
39709SOL     OW30850   3.478   1.203   8.137 -0.3772  0.6604 -0.5772
39709SOL    HW130851   3.415   1.166   8.200 -0.4210 -0.6555 -1.3531
39709SOL    HW230852   3.504   1.287   8.176 -0.4790 -0.0598  1.1293
39710SOL     OW30853  10.415   5.207   5.944 -0.4230  0.1249  0.1154
39710SOL    HW130854  10.481   5.275   5.939 -1.5943  1.1840 -2.6501
39710SOL    HW230855  10.340   5.249   5.985 -1.0960  0.5221 -1.4577
39711SOL     OW30856   5.502   9.891   8.211  0.4523 -0.3009 -0.3590
39711SOL    HW130857   5.442   9.952   8.252  0.7165 -0.6070  0.5024
39711SOL    HW230858   5.471   9.884   8.120  0.4982  1.2035 -0.5185
39712SOL     OW30859  11.843   0.384   7.482  0.8333 -0.2936 -0.6653
39712SOL    HW130860  11.825   0.459   7.425 -1.6065 -0.1924  0.0953
39712SOL    HW230861  11.935   0.363   7.467  1.0618  1.6225 -2.3441
39713SOL     OW30862   4.660   9.639   6.263 -0.1418 -0.0960  0.2468
39713SOL    HW130863   4.692   9.727   6.286  0.6524 -0.8131  2.0637
39713SOL    HW230864   4.733   9.598   6.218 -0.7667  0.3747 -1.2749
39714SOL     OW30865   1.542   0.689   4.964 -0.5772 -0.2742  0.5737
39714SOL    HW130866   1.553   0.604   5.005 -1.6171 -1.8051 -2.0555
39714SOL    HW230867   1.619   0.739   4.991 -0.4587 -1.6058  3.0357
39715SOL     OW30868   8.971  10.737  11.156  0.3400 -0.2222 -0.3609
39715SOL    HW130869   9.049  10.691  11.190  0.0138  1.3003  2.8240
39715SOL    HW230870   8.902  10.714  11.218 -0.3782  2.6788  0.0408
39716SOL     OW30871   9.584   4.008   6.370 -0.7182  0.3613 -0.1058
39716SOL    HW130872   9.552   4.098   6.371  0.7337  0.9205  1.3245
39716SOL    HW230873   9.654   4.007   6.436 -1.6277 -2.1471  0.9431
39717SOL     OW30874   7.911   9.201   6.821 -0.3640 -0.1685  0.0183
39717SOL    HW130875   7.867   9.130   6.774 -1.4110  0.7407 -0.4058
39717SOL    HW230876   7.987   9.222   6.768 -1.2915  0.5484 -1.0563
39718SOL     OW30877   6.502   5.085  10.343 -0.0904  0.1598 -0.0736
39718SOL    HW130878   6.538   5.138  10.272  0.3844 -2.2683 -1.7558
39718SOL    HW230879   6.456   5.148  10.399 -1.6671  2.0462 -3.2243
39719SOL     OW30880   5.899   9.110   2.920 -0.3696 -0.3798 -0.6796
39719SOL    HW130881   5.962   9.060   2.868  0.7255  0.7208 -0.4562
39719SOL    HW230882   5.913   9.201   2.895 -1.9196 -0.1030 -0.6467
39720SOL     OW30883   6.195   3.787   7.506  0.0740 -0.7090 -0.0074
39720SOL    HW130884   6.152   3.871   7.491  1.6443  0.2621  0.6560
39720SOL    HW230885   6.233   3.764   7.422 -0.6297 -0.9187 -0.2709
39721SOL     OW30886   4.471   5.301   2.316 -0.2275  0.3928 -0.2836
39721SOL    HW130887   4.559   5.284   2.281  0.4804  1.6242  0.8144
39721SOL    HW230888   4.451   5.224   2.369 -0.2760 -0.3642 -1.3516
39722SOL     OW30889   3.964   7.676   6.341 -0.1776 -0.0084  0.8401
39722SOL    HW130890   4.033   7.715   6.288 -0.3238  1.9035  1.9601
39722SOL    HW230891   3.921   7.614   6.282  0.8082  0.6922 -0.6916
39723SOL     OW30892   3.252   9.470   3.744 -0.2507  0.6963  0.1292
39723SOL    HW130893   3.183   9.494   3.683 -0.6254 -0.3890  0.1142
39723SOL    HW230894   3.217   9.493   3.830 -0.3901  0.6801  0.0764
39724SOL     OW30895   0.470   2.595   4.321 -0.3809 -0.7180 -0.3366
39724SOL    HW130896   0.430   2.555   4.398 -0.4197 -0.6534 -0.3233
39724SOL    HW230897   0.423   2.677   4.309 -0.1938 -0.5997 -0.2688
39725SOL     OW30898   2.858   0.522   1.763 -0.0153  0.5997  0.6693
39725SOL    HW130899   2.823   0.577   1.694 -0.9467 -0.0431  0.6113
39725SOL    HW230900   2.871   0.436   1.721  1.8394  0.8554  0.6326
39726SOL     OW30901   0.786   6.313  10.799  0.4061  0.2064 -0.3859
39726SOL    HW130902   0.731   6.391  10.793 -0.7611 -0.4096  1.3536
39726SOL    HW230903   0.858   6.339  10.858  0.4854  0.2207 -0.4891
39727SOL     OW30904   8.738   5.494   4.795  1.2841  0.1071 -0.4700
39727SOL    HW130905   8.812   5.468   4.741  1.5657 -2.1128  0.8921
39727SOL    HW230906   8.661   5.458   4.750  1.3157 -0.0131 -0.4286
39728SOL     OW30907   1.243   3.364   5.629  0.8635  0.3262 -1.0280
39728SOL    HW130908   1.245   3.298   5.698  1.2491  1.5189  0.1425
39728SOL    HW230909   1.177   3.427   5.658  0.2955  0.3455 -2.2658
39729SOL     OW30910   9.901   1.016   8.439  0.2298  0.5071  0.1168
39729SOL    HW130911   9.856   0.953   8.382  0.7115  0.3957 -0.1408
39729SOL    HW230912   9.992   0.986   8.441 -0.1037 -0.6304  2.4465
39730SOL     OW30913   7.187   8.320  11.675 -0.1924 -0.0521  0.1552
39730SOL    HW130914   7.133   8.350  11.747 -0.2626 -0.5338  0.3062
39730SOL    HW230915   7.274   8.308  11.713 -0.3181 -0.6773  0.2535
39731SOL     OW30916   0.158   4.728   2.448  0.1772  0.6778 -0.6344
39731SOL    HW130917   0.111   4.765   2.373 -2.4825  1.5827  1.2901
39731SOL    HW230918   0.146   4.793   2.517  2.4677 -0.1433  0.6427
39732SOL     OW30919   1.537   2.889  11.726 -0.3571 -0.1027  0.1310
39732SOL    HW130920   1.454   2.931  11.704 -1.0703 -1.1680  0.6958
39732SOL    HW230921   1.603   2.957  11.710 -1.1834  0.3549 -1.5872
39733SOL     OW30922   4.395  10.675   9.537 -0.2746  0.6832  0.0822
39733SOL    HW130923   4.475  10.721   9.563 -1.2983  2.0760  0.9148
39733SOL    HW230924   4.345  10.741   9.489 -0.9382 -0.1690 -0.4158
39734SOL     OW30925   2.696  10.066   4.083  0.2858 -0.3437 -0.4332
39734SOL    HW130926   2.663   9.984   4.120 -1.8408  0.2728 -0.8095
39734SOL    HW230927   2.784  10.075   4.119 -0.4103 -1.4711  1.7419
39735SOL     OW30928   6.055   9.037   2.687  0.2405  0.0412 -0.2906
39735SOL    HW130929   6.044   9.044   2.592  0.5609  0.3376 -0.3057
39735SOL    HW230930   6.109   9.112   2.711 -1.3713  1.0460  0.3883
39736SOL     OW30931   4.706   5.004   3.309  0.4583 -0.3437  0.1281
39736SOL    HW130932   4.709   4.913   3.336 -0.1721 -0.4645 -0.2026
39736SOL    HW230933   4.613   5.023   3.296  0.7053 -0.2417 -1.7947
39737SOL     OW30934   6.361   3.545   9.733  0.0793  0.3055 -0.2172
39737SOL    HW130935   6.441   3.505   9.699  0.2482 -0.1564  0.7137
39737SOL    HW230936   6.322   3.588   9.656 -0.2200 -1.7733 -1.2877
39738SOL     OW30937   0.379  10.757   0.240 -0.6558  0.4297 -0.2175
39738SOL    HW130938   0.427  10.834   0.272 -1.3894  0.9867 -0.4356
39738SOL    HW230939   0.294  10.761   0.284  0.0008 -1.3948  1.3570
39739SOL     OW30940  10.639   8.477   5.087 -0.1796  0.6829  0.3790
39739SOL    HW130941  10.612   8.428   5.165 -0.9672 -0.0840 -0.3488
39739SOL    HW230942  10.559   8.520   5.057 -0.1040  0.2222 -0.5178
39740SOL     OW30943   2.105   3.073  10.424 -0.6374  0.0725 -0.3392
39740SOL    HW130944   2.111   3.014  10.498 -2.7735  0.5196  0.2297
39740SOL    HW230945   2.121   3.017  10.347 -0.6952 -0.8368  0.2986
39741SOL     OW30946   5.044   6.148   6.937 -0.0106  0.0952  0.1276
39741SOL    HW130947   4.984   6.222   6.931 -1.4118 -1.1393 -2.7553
39741SOL    HW230948   4.994   6.080   6.983 -1.1856 -1.0951 -2.6799
39742SOL     OW30949   3.680   1.166   2.177  0.1436 -0.1713 -1.1332
39742SOL    HW130950   3.608   1.197   2.122  0.2175  1.2776 -0.4683
39742SOL    HW230951   3.745   1.236   2.172  0.9643 -0.8907 -0.7193
39743SOL     OW30952   9.738   3.733   2.093  0.6532 -0.1178  0.4810
39743SOL    HW130953   9.725   3.648   2.136  2.2690 -0.3616  0.5525
39743SOL    HW230954   9.818   3.721   2.041 -1.2191  0.1454 -2.7295
39744SOL     OW30955  11.536   3.183   2.654  0.4400 -0.3587  0.5254
39744SOL    HW130956  11.577   3.143   2.731  0.2941 -1.1991  0.1742
39744SOL    HW230957  11.593   3.158   2.581 -0.4532 -1.1909  0.0910
39745SOL     OW30958   2.801   5.837   5.269 -0.3246  0.3217 -0.3719
39745SOL    HW130959   2.728   5.820   5.329  0.5763 -0.5313  0.5258
39745SOL    HW230960   2.878   5.837   5.326  0.6069 -0.9016 -1.5708
39746SOL     OW30961  10.402   5.941   0.620 -0.3282  0.4565  0.5477
39746SOL    HW130962  10.482   5.899   0.651 -1.1534 -1.1206  0.6644
39746SOL    HW230963  10.408   6.031   0.653  1.9860  0.7826 -0.5721
39747SOL     OW30964   3.403   5.876   9.524  0.0119 -0.0981  0.1396
39747SOL    HW130965   3.329   5.935   9.511  0.9040  0.7590 -1.4150
39747SOL    HW230966   3.413   5.870   9.619  0.7723  3.4654  0.4270
39748SOL     OW30967   2.404   8.784  10.690  0.0066  0.1448 -1.1092
39748SOL    HW130968   2.331   8.723  10.700  1.0921 -1.0272  0.1243
39748SOL    HW230969   2.363   8.866  10.661 -2.2350  0.4331  2.2266
39749SOL     OW30970   2.507   0.253   8.540  0.4041  0.2001  0.3793
39749SOL    HW130971   2.434   0.198   8.510 -1.2656  2.4172  0.1303
39749SOL    HW230972   2.563   0.262   8.464 -0.7557  1.0352 -0.4130
39750SOL     OW30973   0.753   1.506   4.945 -0.2552 -0.4183  0.3034
39750SOL    HW130974   0.746   1.560   4.866 -0.4717 -0.7402  0.0997
39750SOL    HW230975   0.691   1.434   4.930 -0.2954 -0.4823  0.7653
39751SOL     OW30976   0.113   4.442   6.636 -0.0460  0.4424 -0.2618
39751SOL    HW130977   0.043   4.384   6.665 -2.3700  1.1984 -3.8147
39751SOL    HW230978   0.162   4.390   6.572 -0.6652  1.5470 -1.6819
39752SOL     OW30979   5.228   9.219   9.731 -0.4823 -0.0179  0.2460
39752SOL    HW130980   5.320   9.228   9.707 -0.2635  2.3328  1.6367
39752SOL    HW230981   5.193   9.309   9.725 -2.7663 -0.8787 -0.4876
39753SOL     OW30982   5.094   3.901   1.792 -0.1845  0.0515  0.0392
39753SOL    HW130983   5.089   3.931   1.701  1.2215  1.0514  0.2518
39753SOL    HW230984   5.023   3.948   1.836 -2.6201 -2.4208 -0.9797
39754SOL     OW30985   1.397   1.589   0.483  0.2968  0.2544  0.4895
39754SOL    HW130986   1.312   1.555   0.511  0.2889 -0.5423 -0.4468
39754SOL    HW230987   1.455   1.572   0.558 -0.2363  0.2695  0.9098
39755SOL     OW30988   0.732   0.771   9.428  0.0840 -0.3213  0.4021
39755SOL    HW130989   0.792   0.715   9.478  0.7365 -0.2333 -0.2624
39755SOL    HW230990   0.788   0.840   9.392 -0.5371  0.1587  0.3438
39756SOL     OW30991   4.167  10.358   5.853 -0.4780  0.6044 -0.0124
39756SOL    HW130992   4.096  10.334   5.793 -1.1181 -1.6729  1.5070
39756SOL    HW230993   4.247  10.346   5.802 -1.0788  1.1018 -1.1078
39757SOL     OW30994   0.004   9.357   8.564  0.4708  0.3300  0.4677
39757SOL    HW130995   0.025   9.264   8.555  0.8025  0.5270 -1.1415
39757SOL    HW230996   0.049   9.399   8.491 -1.7113  1.4168 -0.3482
39758SOL     OW30997   6.263   8.934   4.509  0.3080  0.3919  0.3473
39758SOL    HW130998   6.306   8.849   4.522 -0.3776  0.0411  0.3219
39758SOL    HW230999   6.187   8.915   4.455  0.2070  1.0441  0.2525
39759SOL     OW31000   0.275   0.242   5.019 -0.1130 -0.2940  0.0099
39759SOL    HW131001   0.221   0.239   4.940 -0.3334  0.9912  0.0965
39759SOL    HW231002   0.277   0.151   5.050 -1.2309 -0.5641 -0.6535
39760SOL     OW31003  10.346   7.196   6.693  0.4635  0.6803 -0.3297
39760SOL    HW131004  10.340   7.101   6.683  2.2151  0.5058 -0.1054
39760SOL    HW231005  10.258   7.228   6.676  0.0648 -0.9009 -1.4856
39761SOL     OW31006   3.212   5.950   7.036  0.3499 -0.3748  0.9841
39761SOL    HW131007   3.281   6.007   7.070 -0.7277  1.8335 -0.2832
39761SOL    HW231008   3.140   5.960   7.098 -0.3527  0.8609  0.0169
39762SOL     OW31009   3.957   6.052   0.683 -0.7601  0.0083 -0.0099
39762SOL    HW131010   3.924   6.015   0.765  0.0872 -0.2267  0.2304
39762SOL    HW231011   3.960   5.977   0.623 -1.4336  0.1905 -0.2901
39763SOL     OW31012   7.260   7.018   9.998  0.3685  0.2055 -0.4838
39763SOL    HW131013   7.346   7.055   9.976  0.6614  0.1231  0.4659
39763SOL    HW231014   7.198   7.088   9.976  0.4808 -0.3100 -2.7360
39764SOL     OW31015   6.271  10.870   8.245  0.0981  0.5087 -0.2262
39764SOL    HW131016   6.264  10.819   8.325  1.6598 -0.2436 -0.5280
39764SOL    HW231017   6.181  10.892   8.223 -0.7980 -2.8119 -0.4970
39765SOL     OW31018   4.014   5.252   3.278  0.2953 -0.4532  0.1023
39765SOL    HW131019   4.081   5.205   3.327  1.8798 -0.1284 -1.6028
39765SOL    HW231020   4.053   5.265   3.191 -0.5854  2.7188  0.0317
39766SOL     OW31021  10.755   6.594   9.272 -0.5409 -0.3988 -0.0354
39766SOL    HW131022  10.770   6.604   9.178  0.7586 -0.2193  0.1739
39766SOL    HW231023  10.673   6.545   9.278 -0.7869 -0.1634 -1.2541
39767SOL     OW31024   5.307   5.363   1.270  0.3626  0.3426  0.2727
39767SOL    HW131025   5.338   5.410   1.348  1.8009 -1.6939  1.0333
39767SOL    HW231026   5.248   5.296   1.305  1.4492 -0.9426 -0.2821
39768SOL     OW31027   5.121   8.340   2.598  0.1544 -0.2571  0.1147
39768SOL    HW131028   5.113   8.316   2.690 -1.7682 -1.7561 -0.3865
39768SOL    HW231029   5.131   8.436   2.599 -1.2019 -0.0933  1.8289
39769SOL     OW31030   1.995   0.420   1.292 -0.2207 -0.0745  0.1630
39769SOL    HW131031   1.910   0.377   1.280  0.2163 -0.7309 -0.7790
39769SOL    HW231032   2.025   0.393   1.379  0.5261 -2.6370 -0.7930
39770SOL     OW31033   5.153  10.890  11.697  0.0964  0.8659  0.0229
39770SOL    HW131034   5.060  10.870  11.710  0.5441 -0.5687  1.3278
39770SOL    HW231035   5.157  10.930  11.610 -1.6396  0.2671 -0.3768
39771SOL     OW31036   6.242   2.183   0.901 -0.1230  0.1529  0.1415
39771SOL    HW131037   6.329   2.194   0.863 -0.1793 -2.0075 -0.7685
39771SOL    HW231038   6.183   2.231   0.843  0.2210 -0.1806 -0.4858
39772SOL     OW31039   6.219  11.565   4.404  0.0136 -0.1203 -0.4553
39772SOL    HW131040   6.148  11.574   4.341  1.5304  0.9990 -2.1132
39772SOL    HW231041   6.204  11.635   4.468 -1.4412 -1.1562  0.3997
39773SOL     OW31042  11.816   5.345   4.025  0.1480 -0.4903  0.2697
39773SOL    HW131043  11.794   5.434   4.051  0.2028 -0.2972 -0.3231
39773SOL    HW231044  11.867   5.355   3.944 -1.6662 -1.1158 -1.0338
39774SOL     OW31045   2.822   0.444   4.027  0.0659  0.2594 -0.2098
39774SOL    HW131046   2.818   0.527   3.980  0.7890  0.0484 -0.6572
39774SOL    HW231047   2.904   0.404   3.999  0.3357 -0.0413  0.9697
39775SOL     OW31048   9.621   7.027   0.316  0.3632 -0.1426 -0.3312
39775SOL    HW131049   9.606   7.055   0.226 -0.4665 -0.5706 -0.3373
39775SOL    HW231050   9.540   7.050   0.362  0.4501 -0.6924  0.1125
39776SOL     OW31051   7.096   9.516   2.571 -1.1756  0.6820  0.8054
39776SOL    HW131052   7.132   9.552   2.490 -1.6124  2.5671  1.3884
39776SOL    HW231053   7.172   9.509   2.629 -0.7394 -1.3356  0.0568
39777SOL     OW31054   1.696   4.809   1.483 -0.0526 -0.1985  0.5204
39777SOL    HW131055   1.781   4.766   1.485  0.5470  0.9507  0.2024
39777SOL    HW231056   1.637   4.746   1.526  0.7653 -1.3725 -0.0221
39778SOL     OW31057   2.302   6.010   6.316  0.5442  0.1909  0.3536
39778SOL    HW131058   2.300   5.915   6.305 -0.7173  0.1845  0.4336
39778SOL    HW231059   2.210   6.035   6.322  0.8965  1.2278  2.0898
39779SOL     OW31060   3.569   6.614  11.419  0.2667  0.5283  0.2468
39779SOL    HW131061   3.653   6.644  11.384  0.5692  0.4841  0.9307
39779SOL    HW231062   3.538   6.550  11.355 -0.0889  1.7937 -0.9207
39780SOL     OW31063  11.170   1.481   2.099 -0.3417 -0.6944  0.7596
39780SOL    HW131064  11.110   1.493   2.172 -1.8271 -2.5147 -0.0784
39780SOL    HW231065  11.120   1.508   2.022  1.1354  1.0308  0.3405
39781SOL     OW31066   8.845   5.754   9.693 -0.0240  0.0905 -0.0380
39781SOL    HW131067   8.871   5.815   9.623 -0.3280 -0.1793 -0.3872
39781SOL    HW231068   8.919   5.695   9.702 -1.0188 -1.5921 -2.0364
39782SOL     OW31069   0.705   7.010   7.844 -0.4139 -0.5845 -0.0440
39782SOL    HW131070   0.700   7.035   7.937  1.2048 -0.8750  0.1651
39782SOL    HW231071   0.615   7.014   7.813 -0.9425 -0.0833  1.4405
39783SOL     OW31072   6.153   8.478   8.371  0.4479  0.0389  0.4829
39783SOL    HW131073   6.128   8.459   8.280 -1.5541 -0.4129  1.0851
39783SOL    HW231074   6.240   8.518   8.364  0.3989 -0.1186 -1.6113
39784SOL     OW31075   7.135   5.715   8.199  0.2018  0.1091  0.4600
39784SOL    HW131076   7.172   5.804   8.193 -2.3275  1.2144 -0.0707
39784SOL    HW231077   7.088   5.703   8.117 -0.2859 -1.3661  0.9257
39785SOL     OW31078   3.615   3.944   1.914  0.4320 -0.4094  0.2644
39785SOL    HW131079   3.649   4.030   1.889  0.2962 -0.3452  0.3008
39785SOL    HW231080   3.564   3.960   1.994  2.1870 -0.8612  1.5386
39786SOL     OW31081   7.832   3.602   4.899  0.1236  0.0974  0.3399
39786SOL    HW131082   7.857   3.695   4.899 -1.1552  0.4637 -0.2313
39786SOL    HW231083   7.766   3.595   4.831 -0.2249 -1.1301  0.7761
39787SOL     OW31084   2.312  11.669   0.538 -0.4526 -0.5804  0.2206
39787SOL    HW131085   2.286  11.742   0.594  1.4635 -0.0647  0.5189
39787SOL    HW231086   2.306  11.592   0.594 -0.6276 -0.3818  0.4790
39788SOL     OW31087   5.101   2.328   6.779 -0.8275 -0.0715 -0.0371
39788SOL    HW131088   5.176   2.354   6.834  0.5860  1.5247 -2.5073
39788SOL    HW231089   5.056   2.410   6.760 -0.5478 -0.3620 -2.1764
39789SOL     OW31090   6.521  10.512   3.065  0.3088  0.0237 -0.2031
39789SOL    HW131091   6.588  10.444   3.072 -1.6700 -1.9905  0.4610
39789SOL    HW231092   6.458  10.490   3.133  0.0696  3.1947  0.7377
39790SOL     OW31093   3.874   5.747   2.670 -0.0406 -0.6787  0.6269
39790SOL    HW131094   3.828   5.683   2.724 -0.9114 -0.4825  0.1343
39790SOL    HW231095   3.868   5.829   2.719 -2.1014 -0.1599 -0.3804
39791SOL     OW31096   4.633   4.677   6.452 -0.8848  0.3280 -0.8908
39791SOL    HW131097   4.706   4.736   6.436  0.2244 -0.4135  1.0967
39791SOL    HW231098   4.657   4.596   6.406 -0.1677 -0.0895  0.1838
39792SOL     OW31099   3.418   6.831   2.310  0.0780 -0.0729 -0.2811
39792SOL    HW131100   3.371   6.913   2.325  0.3778 -0.2988  2.2730
39792SOL    HW231101   3.349   6.765   2.304 -0.1181  0.2070 -1.5793
39793SOL     OW31102   9.988   1.500   4.836  0.5122 -0.4254  0.5032
39793SOL    HW131103  10.000   1.582   4.882  0.6803 -1.0201  1.5571
39793SOL    HW231104   9.944   1.524   4.754 -0.3420  0.5816  1.2367
39794SOL     OW31105   2.240   3.714   0.955 -0.7416  0.8767  0.2850
39794SOL    HW131106   2.249   3.735   1.048  0.2205 -3.3148  1.3261
39794SOL    HW231107   2.155   3.670   0.949 -0.2305 -0.0224 -0.5562
39795SOL     OW31108   1.589   2.373   0.217 -0.4149  0.2184 -0.2492
39795SOL    HW131109   1.603   2.444   0.280  0.1732 -0.8652  0.9025
39795SOL    HW231110   1.514   2.326   0.252  0.8718 -1.3223  0.5851
39796SOL     OW31111   2.047   9.958   0.053  0.1967 -0.1935  0.6536
39796SOL    HW131112   1.972   9.900   0.058  1.3218 -1.6582  1.3403
39796SOL    HW231113   2.045   9.993  -0.037  0.7647 -3.1578 -0.6195
39797SOL     OW31114   7.176   0.324   8.222 -0.2715  0.0303  0.4028
39797SOL    HW131115   7.261   0.368   8.225  0.0733 -0.6695  1.4631
39797SOL    HW231116   7.139   0.349   8.137  1.3324 -0.3145 -0.4316
39798SOL     OW31117   2.244   9.230   3.727 -0.0987  0.1079 -0.6876
39798SOL    HW131118   2.264   9.218   3.820 -0.5615 -0.0306 -0.6032
39798SOL    HW231119   2.314   9.287   3.694  0.8721 -0.9729 -0.5737
39799SOL     OW31120   9.586  10.512   8.137 -0.2095 -0.2985 -0.5306
39799SOL    HW131121   9.660  10.536   8.082  0.1470 -1.0981 -0.4205
39799SOL    HW231122   9.626  10.481   8.218 -0.7042  0.1779 -0.0913
39800SOL     OW31123   0.654   8.493   6.119  0.0731  0.6147 -0.0709
39800SOL    HW131124   0.594   8.452   6.056 -0.8688  1.3837  0.2982
39800SOL    HW231125   0.632   8.451   6.202 -0.7271  1.6598  0.2641
39801SOL     OW31126   4.908   7.939   1.728 -0.2452 -0.0732 -0.1368
39801SOL    HW131127   4.870   8.002   1.789  0.6409 -0.4605  0.8459
39801SOL    HW231128   4.884   7.854   1.764  0.3455 -0.3066 -0.2862
39802SOL     OW31129   5.653  11.103   0.758  0.0904 -0.5654 -0.4218
39802SOL    HW131130   5.686  11.192   0.773  0.6839 -0.8511  0.0024
39802SOL    HW231131   5.558  11.112   0.761  0.1409 -0.3283  1.9138
39803SOL     OW31132  10.237  10.536   4.666  0.3688 -0.3074 -0.2402
39803SOL    HW131133  10.294  10.571   4.598  1.0941 -0.2060  0.4088
39803SOL    HW231134  10.173  10.605   4.682  2.8865  1.6858  2.3823
39804SOL     OW31135   1.169  11.691   6.968  0.1682 -0.2891 -0.2032
39804SOL    HW131136   1.249  11.641   6.951  2.0095  2.1841  0.6568
39804SOL    HW231137   1.133  11.650   7.047  0.6583 -1.3185 -0.4818
39805SOL     OW31138   9.436   9.679  10.800  0.0634  0.2727 -0.2901
39805SOL    HW131139   9.379   9.703  10.726 -1.1050  0.0111  0.4983
39805SOL    HW231140   9.413   9.741  10.869 -0.4201 -0.8212  0.5669
39806SOL     OW31141   8.911   6.018   4.344 -0.3307  0.7660  0.2064
39806SOL    HW131142   8.911   6.028   4.249 -0.9511  1.3344  0.2656
39806SOL    HW231143   8.827   5.978   4.364  0.6071 -1.2977  0.3369
39807SOL     OW31144   7.079   9.290   8.415 -0.6247  0.7707 -0.8848
39807SOL    HW131145   7.021   9.335   8.475  0.1835  0.4737  0.1380
39807SOL    HW231146   7.151   9.259   8.469  0.2148  0.6519 -2.0377
39808SOL     OW31147   3.823   5.373   2.667 -0.5360  0.3998  0.3446
39808SOL    HW131148   3.895   5.374   2.604  0.7945 -1.1552  1.7267
39808SOL    HW231149   3.819   5.282   2.697 -1.2643  1.0246  2.2899
39809SOL     OW31150   5.865   2.864   5.372 -0.0373  0.2157  0.4811
39809SOL    HW131151   5.920   2.786   5.382  0.6733  0.3327 -1.8567
39809SOL    HW231152   5.819   2.872   5.455  0.7669 -2.0108  1.2128
39810SOL     OW31153   9.578   8.981   6.505  0.5232  0.1849  0.5481
39810SOL    HW131154   9.626   8.905   6.537  1.7635  1.6614  2.3520
39810SOL    HW231155   9.496   8.981   6.554 -1.3338 -2.0916 -2.2303
39811SOL     OW31156   0.179   1.377   5.721 -0.6530  0.2097  0.1555
39811SOL    HW131157   0.146   1.343   5.637 -0.4952 -1.3863  0.6955
39811SOL    HW231158   0.274   1.373   5.712 -0.5972  1.8816 -0.2720
39812SOL     OW31159   1.982   8.891   6.106  0.1160 -0.2123  0.3984
39812SOL    HW131160   2.052   8.956   6.100  0.6987 -0.9480 -1.8724
39812SOL    HW231161   1.918   8.919   6.041 -0.8635 -0.5310  1.2045
39813SOL     OW31162   4.745   4.934   9.117  0.4761 -0.2981  0.3810
39813SOL    HW131163   4.672   4.926   9.177  0.4885 -1.2719  0.2804
39813SOL    HW231164   4.815   4.881   9.156  1.5946  1.6388  1.1430
39814SOL     OW31165  11.747   4.636   9.293 -0.0388  0.0302 -0.9733
39814SOL    HW131166  11.769   4.706   9.354 -0.3381  0.5367 -1.4293
39814SOL    HW231167  11.798   4.560   9.322 -1.1789 -0.1293  0.6901
39815SOL     OW31168   2.962   4.879   6.684  0.4289 -0.1694 -0.1463
39815SOL    HW131169   2.879   4.840   6.654 -0.9153  1.2178  1.5267
39815SOL    HW231170   2.965   4.964   6.640  2.2045 -1.1193 -2.0112
39816SOL     OW31171   5.772   7.567   0.415  0.2593  0.0796  0.0289
39816SOL    HW131172   5.796   7.652   0.378  0.8389  1.0681  2.4987
39816SOL    HW231173   5.679   7.577   0.438  0.1554 -0.1947 -0.2671
39817SOL     OW31174  10.835  11.524   4.914  0.5524 -0.7669 -0.4726
39817SOL    HW131175  10.762  11.566   4.868  0.4364 -0.2536  0.1705
39817SOL    HW231176  10.844  11.573   4.995  1.4959 -0.9527 -0.4579
39818SOL     OW31177  11.573   8.714   9.846 -0.1003 -0.3683 -0.5347
39818SOL    HW131178  11.662   8.749   9.853 -0.0458 -0.4202 -0.9286
39818SOL    HW231179  11.544   8.740   9.759 -1.2514  1.4323  0.3289
39819SOL     OW31180   5.517   7.479   8.532  0.1661  0.1209 -0.0969
39819SOL    HW131181   5.492   7.470   8.624 -0.8658 -1.3688 -0.4852
39819SOL    HW231182   5.487   7.398   8.491  1.7433  0.2061 -1.5101
39820SOL     OW31183   7.611   7.211   0.180 -0.9408 -0.1267  0.2732
39820SOL    HW131184   7.583   7.195   0.090 -0.8647  0.9456  0.0446
39820SOL    HW231185   7.678   7.145   0.196 -1.0402 -0.4033 -0.4152
39821SOL     OW31186  11.551   1.231   6.741  0.1274  0.3035  0.5972
39821SOL    HW131187  11.620   1.293   6.718 -0.1002  0.9120  1.4971
39821SOL    HW231188  11.597   1.160   6.786  0.2269  0.4647  0.7504
39822SOL     OW31189   2.190  10.711   9.901  0.1285  0.1623  0.0313
39822SOL    HW131190   2.204  10.738   9.992 -2.0450 -1.0713  0.8190
39822SOL    HW231191   2.227  10.782   9.849  0.9295  1.1706  1.8819
39823SOL     OW31192  10.158   5.180   5.805  0.1533  0.6679  0.1203
39823SOL    HW131193  10.093   5.120   5.769  0.8855 -0.0668  0.0024
39823SOL    HW231194  10.130   5.194   5.895  0.4494 -0.5563  0.4226
39824SOL     OW31195  10.443   0.841  10.366  0.8827 -1.0821 -0.1908
39824SOL    HW131196  10.507   0.913  10.372 -0.1314 -0.0471 -1.1606
39824SOL    HW231197  10.445   0.816  10.274 -0.7487 -0.3878 -0.4474
39825SOL     OW31198   5.651   3.387   1.746 -0.2866 -0.2155  0.0757
39825SOL    HW131199   5.666   3.361   1.656 -2.0993 -0.4042 -0.2218
39825SOL    HW231200   5.594   3.464   1.740 -1.5532 -1.0245  1.0384
39826SOL     OW31201   6.250  11.586   1.421 -0.1060 -1.1101  0.2319
39826SOL    HW131202   6.169  11.637   1.412 -0.0763 -1.3100 -1.6115
39826SOL    HW231203   6.268  11.585   1.515 -1.9692 -0.6418  0.6290
39827SOL     OW31204   6.057   3.779   5.502 -0.4236  0.4581  0.5299
39827SOL    HW131205   6.037   3.853   5.559 -0.5505  2.3695 -1.8593
39827SOL    HW231206   6.000   3.790   5.427  0.6471 -1.2427 -0.6113
39828SOL     OW31207   9.382   1.059   7.013  0.5849  0.0907 -0.4572
39828SOL    HW131208   9.357   0.968   6.996 -0.2617  0.1688  0.3286
39828SOL    HW231209   9.303   1.100   7.046  0.8807  1.2036 -1.0852
39829SOL     OW31210   8.726  11.542  10.497  0.3060  0.1550  0.0426
39829SOL    HW131211   8.710  11.511  10.586  0.3277  0.5507  0.1868
39829SOL    HW231212   8.767  11.627  10.509  0.8016 -0.0272 -0.3461
39830SOL     OW31213   3.257   5.248  11.643  0.4628  0.3485  0.6434
39830SOL    HW131214   3.311   5.220  11.570  1.2909 -2.7811  2.2722
39830SOL    HW231215   3.167   5.247  11.609  0.7345 -2.0430 -0.1283
39831SOL     OW31216   4.266   4.576   8.171 -0.5910 -0.0514  0.2568
39831SOL    HW131217   4.174   4.603   8.178 -0.6160 -0.3715  1.4411
39831SOL    HW231218   4.262   4.485   8.143 -0.7053 -0.4455  1.4650
39832SOL     OW31219   2.537   6.708   6.473 -0.0720  0.3365 -0.1212
39832SOL    HW131220   2.535   6.619   6.508  0.1930  0.0444 -0.8246
39832SOL    HW231221   2.628   6.721   6.447  0.6188  1.9028  2.6387
39833SOL     OW31222   4.551   3.677   2.079 -0.0167 -0.1072 -0.6207
39833SOL    HW131223   4.498   3.662   2.001 -2.2458  0.6192  0.6335
39833SOL    HW231224   4.576   3.770   2.075  0.4532 -0.2406 -0.8039
39834SOL     OW31225   3.567   4.566   6.914  0.1020  0.2168 -0.1098
39834SOL    HW131226   3.636   4.541   6.975 -0.4466 -0.0795  0.4010
39834SOL    HW231227   3.566   4.496   6.848  0.4748  0.3686 -0.2785
39835SOL     OW31228   1.762   3.217   8.263  0.1879  0.0334  0.2764
39835SOL    HW131229   1.706   3.159   8.315  0.9857 -1.7746 -0.8007
39835SOL    HW231230   1.835   3.239   8.322  0.3841 -0.8723  0.3815
39836SOL     OW31231   8.433   8.689   6.432  0.0994  0.3766  0.7778
39836SOL    HW131232   8.486   8.623   6.388 -0.7886 -0.0516  0.3075
39836SOL    HW231233   8.405   8.648   6.513  1.5752  1.0948  1.6929
39837SOL     OW31234   5.745   7.085   4.430  0.0384  0.1978 -0.3192
39837SOL    HW131235   5.773   7.173   4.454 -0.8414  0.0957  1.1928
39837SOL    HW231236   5.783   7.029   4.498  0.8850 -0.6563 -1.4563
39838SOL     OW31237   2.188   0.329   2.229 -0.0714 -0.3514 -0.5616
39838SOL    HW131238   2.197   0.422   2.207 -0.4297 -0.4799 -1.2780
39838SOL    HW231239   2.257   0.313   2.293 -0.2155  0.4863 -0.1900
39839SOL     OW31240   7.928   5.246   3.443 -0.3351  0.2546  1.0740
39839SOL    HW131241   7.943   5.161   3.483 -0.7726 -0.0200  0.6601
39839SOL    HW231242   7.837   5.267   3.463  0.1078  1.1753  2.1972
39840SOL     OW31243   7.521   6.319  11.503 -0.0468  0.1506  0.4102
39840SOL    HW131244   7.482   6.383  11.443  0.4490 -0.6514 -0.7845
39840SOL    HW231245   7.615   6.323  11.486 -0.0146 -0.9203  0.2977
39841SOL     OW31246   0.746   9.657   6.843 -0.5322  0.8812 -0.6906
39841SOL    HW131247   0.838   9.671   6.823 -0.7012  2.0735 -0.6635
39841SOL    HW231248   0.708   9.744   6.846 -0.9950  0.6943  2.5248
39842SOL     OW31249   1.957   2.378  11.693 -0.1742 -0.0686  1.1633
39842SOL    HW131250   2.043   2.416  11.712 -0.4397  1.8852 -1.0387
39842SOL    HW231251   1.954   2.371  11.598 -1.1073 -3.6329  1.3150
39843SOL     OW31252   9.021   4.168   0.833 -0.2093 -0.8652 -0.1650
39843SOL    HW131253   9.113   4.146   0.822  0.5611  2.5374 -1.8028
39843SOL    HW231254   8.975   4.110   0.772  1.1062 -1.0858 -0.9837
39844SOL     OW31255   9.946   5.601   6.399  0.3026 -0.1878  0.4216
39844SOL    HW131256   9.989   5.534   6.345 -0.5906 -1.2507  0.9708
39844SOL    HW231257   9.932   5.557   6.484  0.2120  0.8991  0.9841
39845SOL     OW31258   1.807   3.883   1.094  0.0654 -0.6214  0.7443
39845SOL    HW131259   1.821   3.823   1.167  1.3073 -1.4441 -0.1511
39845SOL    HW231260   1.798   3.827   1.017 -0.3353  0.2760  0.1127
39846SOL     OW31261   6.889   5.759   7.702 -0.1953 -0.2396 -0.0574
39846SOL    HW131262   6.855   5.675   7.672  0.7178 -0.1650 -1.3780
39846SOL    HW231263   6.956   5.782   7.638 -0.8592  1.8037 -0.0862
39847SOL     OW31264  10.932  10.378   9.940  0.0541  0.1141 -0.4983
39847SOL    HW131265  11.000  10.406   9.879  1.0330 -0.1485  0.4380
39847SOL    HW231266  10.874  10.454   9.947  0.9301  0.8036 -0.3900
39848SOL     OW31267   6.765   1.394   0.812  0.2866  0.0775  0.2163
39848SOL    HW131268   6.728   1.474   0.776 -1.2083 -0.4844  0.4464
39848SOL    HW231269   6.860   1.409   0.811  0.4077  0.2292 -3.7245
39849SOL     OW31270   4.241  11.293   9.408 -0.7406 -0.3743 -0.0127
39849SOL    HW131271   4.298  11.370   9.410 -0.8587 -0.3060  1.1856
39849SOL    HW231272   4.290  11.228   9.357 -0.2829  0.2059 -0.3217
39850SOL     OW31273   6.805   0.352   1.412  0.0956  0.8788 -0.5748
39850SOL    HW131274   6.803   0.440   1.449 -2.0617  0.7669 -0.3127
39850SOL    HW231275   6.745   0.356   1.338 -0.0019 -0.3773 -0.5791
39851SOL     OW31276   2.793   2.678  11.814 -0.2404  0.2151  0.4740
39851SOL    HW131277   2.731   2.672  11.886 -1.3686 -0.3069 -0.5222
39851SOL    HW231278   2.841   2.760  11.831 -0.6531  0.2342  1.6569
39852SOL     OW31279   2.150   8.253  10.900 -0.4345  0.1128 -0.5261
39852SOL    HW131280   2.184   8.165  10.886 -2.6474 -0.8605 -0.1960
39852SOL    HW231281   2.136   8.287  10.811  1.8150  0.7818 -0.6869
39853SOL     OW31282   6.422   2.402   7.664 -0.0789 -0.3593 -0.1593
39853SOL    HW131283   6.346   2.420   7.609  0.1873  0.8446 -0.1613
39853SOL    HW231284   6.396   2.327   7.718 -2.5141  1.9229  2.1109
39854SOL     OW31285   4.660   3.112   2.339 -0.0488 -0.0726  0.2456
39854SOL    HW131286   4.698   3.181   2.394 -1.7341  1.1204 -0.0030
39854SOL    HW231287   4.617   3.160   2.268  1.7616 -1.5427 -1.9806
39855SOL     OW31288   4.453   3.736   3.623 -0.5099  0.0485  0.0081
39855SOL    HW131289   4.482   3.826   3.632 -0.2030 -0.1962  2.0676
39855SOL    HW231290   4.524   3.684   3.659 -1.4094 -0.8906  0.4862
39856SOL     OW31291   3.508   8.348   1.239 -0.0366  0.2490 -0.4341
39856SOL    HW131292   3.443   8.419   1.233 -2.2248 -1.5776  0.0185
39856SOL    HW231293   3.530   8.328   1.148 -1.1063  0.0882 -0.6772
39857SOL     OW31294  10.625   4.131   8.592  0.1696  0.2269  0.5623
39857SOL    HW131295  10.567   4.134   8.515 -1.1580  0.3655  1.5391
39857SOL    HW231296  10.566   4.119   8.666  1.3584  0.9380  1.6560
39858SOL     OW31297   4.054   6.692   0.411 -0.5229 -0.1482 -0.2031
39858SOL    HW131298   4.121   6.719   0.349 -2.2286  1.5627 -1.4536
39858SOL    HW231299   3.971   6.716   0.368 -1.8022  1.3439  2.7854
39859SOL     OW31300   5.962   5.416   6.307  0.1667  0.8558 -0.1381
39859SOL    HW131301   5.877   5.419   6.351  0.2907 -0.3288  0.2253
39859SOL    HW231302   6.017   5.476   6.356  0.0491  0.2409  0.7743
39860SOL     OW31303   9.119  11.595   3.287 -0.0741  0.1026  0.2599
39860SOL    HW131304   9.183  11.546   3.338 -2.1705 -2.2309  0.8369
39860SOL    HW231305   9.090  11.665   3.345 -0.0963 -0.5789  1.0950
39861SOL     OW31306   5.396   4.337   8.957  0.3623 -0.1611 -0.1786
39861SOL    HW131307   5.324   4.297   8.907 -0.4393  0.2495  0.6275
39861SOL    HW231308   5.470   4.339   8.895 -0.0639 -1.3497 -0.7609
39862SOL     OW31309  10.202   9.088   5.993  0.2475 -0.5052 -0.1892
39862SOL    HW131310  10.120   9.136   5.983  0.5977  0.2870  0.5907
39862SOL    HW231311  10.231   9.109   6.082  1.4549 -0.5085 -0.5603
39863SOL     OW31312   9.912   9.783   8.130 -0.3177 -0.1022 -0.7409
39863SOL    HW131313   9.967   9.850   8.089 -1.0563  1.1375  0.1939
39863SOL    HW231314   9.865   9.831   8.198 -1.9984 -1.2863 -1.0297
39864SOL     OW31315   5.974   4.966   8.188  0.1144 -0.7768 -0.3859
39864SOL    HW131316   5.961   5.056   8.158  0.0345 -0.6927 -0.1066
39864SOL    HW231317   5.901   4.917   8.150  0.3991 -0.8061 -0.8863
39865SOL     OW31318   2.925  10.276   1.297 -0.3017 -0.0603 -0.2306
39865SOL    HW131319   2.996  10.321   1.341 -0.2185 -0.4229  0.0121
39865SOL    HW231320   2.846  10.299   1.347 -0.4819  0.9782 -0.9685
39866SOL     OW31321   5.608   8.886   0.209  0.2090 -0.0591 -0.3229
39866SOL    HW131322   5.606   8.811   0.149  1.1993 -0.2096 -0.1846
39866SOL    HW231323   5.660   8.855   0.284 -0.5760  0.3022  0.3778
39867SOL     OW31324   0.891  10.308   1.896  0.2747  0.1385  0.1344
39867SOL    HW131325   0.973  10.356   1.886  0.2823 -0.0808 -0.9451
39867SOL    HW231326   0.890  10.245   1.824 -1.1491  0.5967 -0.2962
39868SOL     OW31327   5.380   2.883   0.113  0.8105  0.3699 -0.1564
39868SOL    HW131328   5.315   2.922   0.054 -2.0193 -2.6503  0.6596
39868SOL    HW231329   5.354   2.914   0.200  0.2630 -0.9967  0.1951
39869SOL     OW31330  10.006   1.997   1.356 -0.0758 -0.2394  0.2305
39869SOL    HW131331  10.013   1.948   1.438  1.1735 -0.3801  0.0529
39869SOL    HW231332  10.074   1.960   1.300  1.2457  2.0095  0.2445
39870SOL     OW31333   2.063   4.783  11.063  0.1419 -0.2979 -0.3594
39870SOL    HW131334   1.980   4.818  11.031 -0.3462  0.4113  1.5247
39870SOL    HW231335   2.045   4.761  11.155  1.9881 -0.3020  0.0284
39871SOL     OW31336   5.977   0.191   7.619 -0.1035  0.1423  0.1266
39871SOL    HW131337   5.995   0.254   7.689 -2.4086  0.7864  0.2260
39871SOL    HW231338   5.897   0.147   7.647 -2.0685  1.5490 -2.7569
39872SOL     OW31339  11.731   3.254   7.077  0.5050 -0.1508 -0.2369
39872SOL    HW131340  11.642   3.227   7.056 -0.9768  3.0677  1.2704
39872SOL    HW231341  11.758   3.197   7.149 -0.5212 -0.8293 -0.3773
39873SOL     OW31342   6.920  11.669  10.069  0.2035  0.5791 -0.8380
39873SOL    HW131343   6.968  11.752  10.067  1.4496 -0.0361  0.8679
39873SOL    HW231344   6.830  11.694  10.092  0.6380  1.4506  0.0029
39874SOL     OW31345   8.777   4.047   6.766  0.2537 -0.6265  0.0736
39874SOL    HW131346   8.869   4.021   6.755  0.1977 -1.2411  0.9402
39874SOL    HW231347   8.746   4.063   6.677  1.4754  0.5896 -0.1665
39875SOL     OW31348   4.248   3.246   4.445  0.2337  0.5139 -0.6956
39875SOL    HW131349   4.271   3.181   4.378  0.1863  0.5389 -0.7361
39875SOL    HW231350   4.332   3.274   4.481  0.3331  1.4274 -1.6071
39876SOL     OW31351   6.882   9.411   9.500  0.4116  0.4969 -0.1497
39876SOL    HW131352   6.944   9.442   9.566 -0.0946 -0.3154  0.7309
39876SOL    HW231353   6.910   9.454   9.419  2.3612 -0.1424  0.1240
39877SOL     OW31354   9.563  10.703   8.912  0.2022 -0.4438 -0.1480
39877SOL    HW131355   9.534  10.715   9.002  0.5865 -0.1580 -0.0553
39877SOL    HW231356   9.649  10.662   8.920  0.1928 -0.5105 -0.3854
39878SOL     OW31357   6.249   6.194   7.445 -0.0200 -0.4000  0.5814
39878SOL    HW131358   6.310   6.151   7.385 -0.1336 -0.1918  0.3138
39878SOL    HW231359   6.289   6.184   7.532  0.5144 -0.0591  0.3805
39879SOL     OW31360   6.848   7.939   6.282 -0.2829  0.1936 -0.0483
39879SOL    HW131361   6.830   7.992   6.360 -0.8789  0.0596 -0.0840
39879SOL    HW231362   6.885   8.001   6.219  1.7639 -0.0134  0.8775
39880SOL     OW31363   3.256  11.926   0.654  0.2032 -0.2004  0.1396
39880SOL    HW131364   3.170  11.964   0.640 -0.6004 -0.5376  3.4048
39880SOL    HW231365   3.248  11.876   0.735  2.9215 -2.0792 -0.5729
39881SOL     OW31366   1.882   3.465   0.371  0.1147  0.0283  0.1032
39881SOL    HW131367   1.891   3.544   0.319  0.7952 -0.1905 -0.1149
39881SOL    HW231368   1.788   3.459   0.390  0.1861  1.4819  1.0561
39882SOL     OW31369   1.478   8.814   6.550  0.7979 -0.3639 -0.6352
39882SOL    HW131370   1.539   8.755   6.595  1.5270  0.0234 -1.0958
39882SOL    HW231371   1.414   8.756   6.510  0.0601 -0.7122  0.9899
39883SOL     OW31372   3.852   3.404   1.338 -0.2246 -0.5629  0.1966
39883SOL    HW131373   3.860   3.477   1.400 -1.6665  0.6862 -0.9837
39883SOL    HW231374   3.807   3.336   1.388 -0.0851 -0.1346  0.9318
39884SOL     OW31375   4.380   6.984   5.583  0.3059 -0.1241  0.3534
39884SOL    HW131376   4.314   7.035   5.537  0.3050  0.3235  0.8352
39884SOL    HW231377   4.364   7.001   5.676  0.9177 -0.2300  0.4883
39885SOL     OW31378   3.611   0.381   8.365  0.1158 -0.4454  0.0974
39885SOL    HW131379   3.700   0.362   8.396  0.8751 -0.5174 -1.9728
39885SOL    HW231380   3.561   0.396   8.445  1.4323 -2.6838  1.4584
39886SOL     OW31381   5.435   0.252   2.938 -0.2728  0.1192  0.1326
39886SOL    HW131382   5.383   0.273   3.016 -1.9525 -1.5250 -0.4660
39886SOL    HW231383   5.416   0.323   2.877 -1.1411 -0.0157  0.2389
39887SOL     OW31384   5.092   8.779   5.641 -0.3249 -0.2917  0.3071
39887SOL    HW131385   5.102   8.765   5.547 -1.7867 -1.6395  0.3240
39887SOL    HW231386   5.167   8.734   5.680  0.3271  0.3342 -0.1848
39888SOL     OW31387   1.020   1.311   5.207  0.0395  0.1012 -0.2267
39888SOL    HW131388   1.049   1.286   5.295 -0.9576 -0.1147  0.0553
39888SOL    HW231389   1.026   1.231   5.156 -1.2450 -0.2629  0.1613
39889SOL     OW31390   9.263   3.414   4.002  0.0816 -0.6660  0.2795
39889SOL    HW131391   9.356   3.401   4.021  0.6977  0.4647 -1.6427
39889SOL    HW231392   9.232   3.329   3.972  0.4944 -1.0404  0.8897
39890SOL     OW31393   5.003   4.361   0.471  0.0402  0.0298 -0.5954
39890SOL    HW131394   5.042   4.320   0.548 -1.3268 -1.0057 -0.3921
39890SOL    HW231395   4.913   4.380   0.498  0.3743  2.4521 -0.9813
39891SOL     OW31396   9.430   4.073   0.496  0.3349  0.0768  0.4587
39891SOL    HW131397   9.383   4.007   0.547 -2.3107  1.2461 -0.2927
39891SOL    HW231398   9.443   4.146   0.557 -0.4710  0.4431  0.2093
39892SOL     OW31399   3.041   2.079   3.904  0.2261 -0.0745  0.5527
39892SOL    HW131400   3.021   1.985   3.895  1.7639 -0.5296  1.5194
39892SOL    HW231401   3.013   2.100   3.993  1.3299 -0.0230  0.8992
39893SOL     OW31402   6.992   2.768   8.215  0.2285 -0.1258  0.0816
39893SOL    HW131403   6.902   2.781   8.183  0.7726  0.5707 -1.2350
39893SOL    HW231404   7.047   2.802   8.145  1.6270 -3.1992 -0.4358
39894SOL     OW31405  11.807   0.382  10.796  0.1532 -1.0533 -0.3939
39894SOL    HW131406  11.798   0.401  10.703 -1.0148 -0.7972 -0.2502
39894SOL    HW231407  11.772   0.460  10.840  0.0201 -1.4626  0.2487
39895SOL     OW31408   2.058   9.150   9.817  0.5851  0.1549  0.5720
39895SOL    HW131409   2.096   9.179   9.734 -0.2360  1.7508  0.7234
39895SOL    HW231410   2.134   9.129   9.872  1.1393 -1.6681 -0.7731
39896SOL     OW31411   7.599   9.807   9.884 -0.2906  0.1437  0.0085
39896SOL    HW131412   7.682   9.818   9.931  0.1768  0.3444 -0.8488
39896SOL    HW231413   7.542   9.761   9.946  1.0777 -1.7566 -0.0695
39897SOL     OW31414   0.597   6.629   6.349  0.4084 -0.1640  0.1449
39897SOL    HW131415   0.670   6.672   6.394 -0.3621  1.0121  0.3186
39897SOL    HW231416   0.529   6.696   6.344  0.1392 -0.5014 -2.0312
39898SOL     OW31417  11.786   1.185   4.339  0.4229  0.0394  0.2947
39898SOL    HW131418  11.839   1.265   4.339 -1.3631  1.3581  2.8386
39898SOL    HW231419  11.796   1.150   4.250  1.8496  2.6847 -0.7011
39899SOL     OW31420   6.375   7.429  10.558  0.5607 -0.4758 -0.7849
39899SOL    HW131421   6.419   7.486  10.621 -0.2590 -0.6123 -0.0617
39899SOL    HW231422   6.382   7.475  10.474  0.0515  0.6312 -0.2478
39900SOL     OW31423   0.376   5.437   0.669 -0.3827 -0.3554 -0.7245
39900SOL    HW131424   0.414   5.398   0.748 -1.0910  1.5829  0.6698
39900SOL    HW231425   0.282   5.423   0.679 -0.5232  0.4450 -0.8987
39901SOL     OW31426   3.326   7.532   8.404  0.6916 -0.1762  1.0098
39901SOL    HW131427   3.253   7.485   8.364 -0.2080  0.9965  1.2298
39901SOL    HW231428   3.370   7.576   8.331 -0.4299  1.2586  1.1591
39902SOL     OW31429   9.302   8.001   4.686  0.2074  0.2189  0.0782
39902SOL    HW131430   9.387   8.010   4.729  0.2797 -0.0655 -0.0019
39902SOL    HW231431   9.241   7.984   4.757  0.5696 -1.8655 -0.0510
39903SOL     OW31432   5.734   3.830   4.035  0.3172 -0.0436 -0.0261
39903SOL    HW131433   5.769   3.747   4.065 -1.2776 -1.0031 -0.6934
39903SOL    HW231434   5.658   3.847   4.091  0.9616  1.2936  0.4982
39904SOL     OW31435   9.359   6.970   8.138  0.4677  0.5561  0.5795
39904SOL    HW131436   9.335   7.008   8.223 -0.0033  1.5637  0.0206
39904SOL    HW231437   9.450   6.996   8.125  0.2895  1.1241  0.4143
39905SOL     OW31438  11.078   3.517   4.032  0.3558  0.0177 -0.0621
39905SOL    HW131439  11.142   3.558   3.974 -0.8067  0.1094 -1.3161
39905SOL    HW231440  11.015   3.586   4.052 -1.6355 -1.0380 -2.2213
39906SOL     OW31441   2.244   9.541   6.299  0.5638  0.3850  0.0387
39906SOL    HW131442   2.201   9.461   6.327 -0.6806  0.7630 -0.6890
39906SOL    HW231443   2.324   9.546   6.351  0.5689 -1.2246  0.2097
39907SOL     OW31444  10.848   0.572   4.569  0.5038 -0.3373  0.4230
39907SOL    HW131445  10.886   0.638   4.511 -0.4718  0.4390  0.6432
39907SOL    HW231446  10.798   0.515   4.510  0.8301 -0.5054  0.3088
39908SOL     OW31447   5.727   1.285   7.024  0.1170 -0.4708  0.2330
39908SOL    HW131448   5.717   1.304   7.118 -1.3191  0.0700 -0.0074
39908SOL    HW231449   5.754   1.193   7.021  3.9292  0.4340  1.2963
39909SOL     OW31450   9.998  10.664   8.819  0.2983  0.0295  0.3369
39909SOL    HW131451  10.084  10.688   8.853  0.7548 -1.9115  0.6779
39909SOL    HW231452   9.990  10.571   8.838 -1.8600  0.1382  0.2352
39910SOL     OW31453   9.707  11.956   4.804 -0.2831 -0.1194 -0.1903
39910SOL    HW131454   9.763  11.913   4.869 -1.1786 -0.1063  0.6178
39910SOL    HW231455   9.697  11.891   4.734 -0.2506 -0.5825  0.2281
39911SOL     OW31456   1.358   1.071   8.845  0.0208  1.0009  0.0876
39911SOL    HW131457   1.373   1.099   8.755  2.3666  0.2793  0.1861
39911SOL    HW231458   1.443   1.039   8.875 -0.3056  2.5079  3.0329
39912SOL     OW31459   3.810   0.472  10.317  0.0561  0.3569 -0.3870
39912SOL    HW131460   3.743   0.498  10.381  1.2600  0.6895  0.8003
39912SOL    HW231461   3.789   0.381  10.296 -0.4746  0.2889  0.3729
39913SOL     OW31462   8.468   5.438   9.059 -0.1433  0.3374 -0.1931
39913SOL    HW131463   8.555   5.407   9.032  0.0376 -0.6364  1.3650
39913SOL    HW231464   8.485   5.520   9.105 -0.1783  0.6903 -0.7985
39914SOL     OW31465  11.958   0.900  11.404 -0.2064 -0.5759  0.2923
39914SOL    HW131466  12.014   0.955  11.349 -1.0056 -0.6967 -0.6733
39914SOL    HW231467  11.958   0.942  11.489  1.8179 -0.8852  0.4981
39915SOL     OW31468   7.196   1.295   2.951 -0.7043  1.3224 -0.5526
39915SOL    HW131469   7.176   1.282   2.859 -1.7032  1.6905 -0.4006
39915SOL    HW231470   7.180   1.210   2.992 -1.5264  1.4771 -0.5223
39916SOL     OW31471  11.357   5.315   1.707 -0.0135  0.1085  0.0286
39916SOL    HW131472  11.409   5.343   1.631 -0.9019  0.8623 -0.3192
39916SOL    HW231473  11.289   5.382   1.716 -0.3489 -0.3483  1.0628
39917SOL     OW31474   0.161  11.511   7.365 -0.3998  0.8193  0.3771
39917SOL    HW131475   0.067  11.508   7.350 -0.4032  0.8565  0.3913
39917SOL    HW231476   0.186  11.420   7.382 -0.2538  0.6376 -0.7532
39918SOL     OW31477   3.445   1.170   9.820 -0.1782 -0.4014 -0.1341
39918SOL    HW131478   3.350   1.171   9.807  0.0230 -0.0952 -1.7965
39918SOL    HW231479   3.462   1.243   9.879 -0.8937  0.0451 -0.4700
39919SOL     OW31480   9.443   1.942   4.187  0.8859  0.0052  0.2311
39919SOL    HW131481   9.413   2.021   4.142  1.5841 -0.3294 -0.8558
39919SOL    HW231482   9.410   1.952   4.276 -0.6941  0.6066 -0.3802
39920SOL     OW31483   4.726   9.614   2.614 -0.6948 -0.7963  0.1225
39920SOL    HW131484   4.792   9.555   2.649  0.4267  0.9027  0.9868
39920SOL    HW231485   4.747   9.620   2.520  1.3859  0.8568  0.6126
39921SOL     OW31486   7.507   6.874   2.303 -0.0120  0.3637  0.2579
39921SOL    HW131487   7.507   6.938   2.374 -0.0905 -0.1265  0.7059
39921SOL    HW231488   7.568   6.911   2.238  1.4722 -0.0358  1.3694
39922SOL     OW31489   4.964   7.745   2.809 -0.0218 -0.4409 -0.0780
39922SOL    HW131490   4.894   7.733   2.744  0.4710  1.3383 -1.0293
39922SOL    HW231491   5.044   7.721   2.762  0.3178  0.6682 -0.0961
39923SOL     OW31492  11.421   2.047   8.430 -0.0506 -0.6013 -0.1202
39923SOL    HW131493  11.348   2.089   8.476  0.8375 -0.2231  0.9920
39923SOL    HW231494  11.499   2.093   8.462  0.7987 -1.9409 -0.1969
39924SOL     OW31495   6.869   3.359   7.420  0.0449  0.0783  0.3150
39924SOL    HW131496   6.858   3.264   7.412 -1.0538  0.1589  0.6731
39924SOL    HW231497   6.936   3.369   7.488  1.8896 -0.4448 -1.3566
39925SOL     OW31498  11.706   6.423   8.260 -0.3398  0.3316  0.3137
39925SOL    HW131499  11.765   6.349   8.247  0.6384  1.1283  0.0035
39925SOL    HW231500  11.725   6.454   8.349  1.7513  2.2335 -0.6720
39926SOL     OW31501   9.043  10.062  11.204 -0.5322 -0.0924  0.1427
39926SOL    HW131502   9.132  10.080  11.234  0.5414 -2.0990 -1.5371
39926SOL    HW231503   9.044  10.084  11.111 -0.6461 -3.3247 -0.7668
39927SOL     OW31504   5.202   8.754   3.724  0.2250 -0.6116 -0.2130
39927SOL    HW131505   5.192   8.830   3.782  0.7869  0.8370 -1.9106
39927SOL    HW231506   5.292   8.761   3.692  0.8752 -3.0201  0.8773
39928SOL     OW31507   9.029   2.330   2.006  0.1863 -0.1006 -0.5020
39928SOL    HW131508   9.034   2.421   2.036 -0.3583 -0.5880  1.1985
39928SOL    HW231509   9.064   2.279   2.079  1.0121 -1.2395 -1.6565
39929SOL     OW31510   8.036   7.302   1.498 -0.4345  0.6209  0.2121
39929SOL    HW131511   7.944   7.290   1.473  0.0179  1.2232 -1.9594
39929SOL    HW231512   8.076   7.216   1.483 -0.1734  0.9702 -1.1942
39930SOL     OW31513   8.824   0.240   9.857 -0.0021 -0.2426 -0.2026
39930SOL    HW131514   8.752   0.193   9.815 -2.4539  4.1910 -1.7108
39930SOL    HW231515   8.798   0.248   9.948 -0.0938 -0.8786 -0.1721
39931SOL     OW31516   6.756   3.896   3.532 -0.2634  0.0598  0.3871
39931SOL    HW131517   6.729   3.931   3.447 -0.4028 -1.2732 -0.1482
39931SOL    HW231518   6.675   3.874   3.577 -0.1999  1.0932  1.0230
39932SOL     OW31519   7.403   4.645  10.242 -0.3783  0.0711  0.4884
39932SOL    HW131520   7.400   4.626  10.148 -1.2741 -1.0505  0.7286
39932SOL    HW231521   7.495   4.667  10.259 -0.3874  1.3070 -0.8215
39933SOL     OW31522   8.862  11.147   5.311 -0.3778  0.3443  0.1911
39933SOL    HW131523   8.915  11.171   5.235 -1.6849  0.2579 -0.7984
39933SOL    HW231524   8.921  11.096   5.366  0.8046  1.0026 -0.4173
39934SOL     OW31525  10.542  11.082   7.535  0.0159 -0.7800 -0.4942
39934SOL    HW131526  10.563  11.151   7.598  0.0387 -1.8069  0.6330
39934SOL    HW231527  10.447  11.074   7.538 -0.0907 -0.0567 -1.4393
39935SOL     OW31528   7.664  11.533   7.440 -0.0986 -0.0079  0.1689
39935SOL    HW131529   7.621  11.478   7.374  0.6492  0.5495 -0.8024
39935SOL    HW231530   7.647  11.488   7.523  0.2994 -1.5957 -0.5701
39936SOL     OW31531   2.541  11.733   0.914 -0.9606  0.3909  0.3535
39936SOL    HW131532   2.622  11.699   0.874  0.0023  2.0763  0.7803
39936SOL    HW231533   2.504  11.792   0.848 -1.6741 -0.1044  0.2987
39937SOL     OW31534  11.158   5.448   2.294 -0.0256  0.5932 -0.2388
39937SOL    HW131535  11.239   5.400   2.307 -1.4766 -1.9491  0.0146
39937SOL    HW231536  11.151   5.504   2.371  1.0679  0.2298  0.1437
39938SOL     OW31537   1.146   7.844   6.132  0.4984 -0.4895  0.0518
39938SOL    HW131538   1.139   7.874   6.223  0.2504 -0.9839  0.1973
39938SOL    HW231539   1.151   7.748   6.138 -0.0531 -0.5557 -0.4897
39939SOL     OW31540   7.162   0.148   4.403 -0.6279  0.0654 -0.5934
39939SOL    HW131541   7.151   0.053   4.393  1.1853 -0.2837  0.2440
39939SOL    HW231542   7.084   0.176   4.450 -0.7459 -1.1997  0.0303
39940SOL     OW31543   2.348  11.933  10.352  0.1528  0.5567 -0.2488
39940SOL    HW131544   2.280  11.988  10.313  0.8869  1.3645 -0.4346
39940SOL    HW231545   2.310  11.902  10.434  0.0128  2.0389  0.2776
39941SOL     OW31546   7.717   5.776  10.295 -0.2652 -0.2008  0.1198
39941SOL    HW131547   7.808   5.748  10.286 -0.2779  0.2900 -1.9657
39941SOL    HW231548   7.723   5.868  10.321 -0.1649 -0.2082  0.1249
39942SOL     OW31549   8.930   8.285   0.429 -0.7129 -0.9641  0.4488
39942SOL    HW131550   8.852   8.236   0.454 -1.1565  0.0265  1.0775
39942SOL    HW231551   8.985   8.285   0.507 -0.2838 -1.2766  0.1486
39943SOL     OW31552   5.553   2.234   8.992 -0.1363 -0.1898  0.0917
39943SOL    HW131553   5.492   2.173   8.951 -0.4936 -0.4949  1.0356
39943SOL    HW231554   5.515   2.320   8.976  0.2691 -0.2169 -1.0813
39944SOL     OW31555   6.795   0.601  10.498 -0.0095 -0.3344  0.2236
39944SOL    HW131556   6.735   0.638  10.563 -0.2027 -1.9409  0.9887
39944SOL    HW231557   6.865   0.666  10.492 -1.1026  0.9016  0.3594
39945SOL     OW31558   8.285  10.797   2.093 -0.0494  0.2340 -1.0710
39945SOL    HW131559   8.266  10.788   1.999  0.1232 -0.0156 -1.0834
39945SOL    HW231560   8.378  10.822   2.096 -0.7232  3.0141 -1.0808
39946SOL     OW31561   8.017   6.223   9.078 -0.2208 -0.0519 -0.0987
39946SOL    HW131562   7.988   6.159   9.143  0.0057  1.3116  1.3982
39946SOL    HW231563   7.955   6.213   9.006 -1.1595 -0.8627  0.7906
39947SOL     OW31564   8.130   9.249   1.933  0.4249  0.7457  0.1169
39947SOL    HW131565   8.087   9.305   1.868 -0.6400 -0.1207  0.0492
39947SOL    HW231566   8.175   9.182   1.881 -1.7550 -0.9248  0.2104
39948SOL     OW31567  10.274   8.193   5.744  0.1460 -0.2012 -0.2725
39948SOL    HW131568  10.183   8.203   5.716 -0.0260  0.5802  0.5104
39948SOL    HW231569  10.309   8.282   5.745  0.6646 -0.4029  0.2145
39949SOL     OW31570   3.733   6.926   6.315  0.7920 -0.2789  0.0024
39949SOL    HW131571   3.660   6.901   6.259  0.2536  0.8489  0.1822
39949SOL    HW231572   3.810   6.917   6.259  0.4660 -0.9422 -0.3516
39950SOL     OW31573   1.760  10.766   6.847 -0.5066 -0.1454  0.2746
39950SOL    HW131574   1.708  10.693   6.814 -1.5352 -0.2802  2.0732
39950SOL    HW231575   1.709  10.844   6.824 -1.0697 -0.2206  1.2139
39951SOL     OW31576   7.892   7.700   6.820 -0.1951  0.0990 -0.4714
39951SOL    HW131577   7.967   7.657   6.862 -0.6129 -0.2611 -0.0915
39951SOL    HW231578   7.926   7.726   6.734  0.2073 -0.5728 -0.5296
39952SOL     OW31579   0.078   8.877   7.275 -0.6131  0.1875  0.0750
39952SOL    HW131580   0.012   8.878   7.206 -2.2322  0.2186  1.5464
39952SOL    HW231581   0.074   8.964   7.314 -0.1888 -0.0300  0.6243
39953SOL     OW31582   7.869   4.137   2.117  0.2752 -0.1705 -0.4554
39953SOL    HW131583   7.781   4.107   2.141  0.7693 -0.5729  0.9635
39953SOL    HW231584   7.873   4.227   2.149  0.3841 -0.1669 -0.4798
39954SOL     OW31585   9.578   8.512   7.683 -0.4135  0.5140 -0.0390
39954SOL    HW131586   9.611   8.541   7.598  1.7091  0.7279  0.7830
39954SOL    HW231587   9.602   8.420   7.688  0.5090  0.7720  0.7419
39955SOL     OW31588   7.685   3.011   5.657 -0.2849  0.4896  0.3781
39955SOL    HW131589   7.703   3.018   5.564 -0.8143  0.6072  0.2808
39955SOL    HW231590   7.747   2.946   5.689  1.4744  2.0902  0.3902
39956SOL     OW31591  10.289   2.999   5.042  0.2038 -0.1017  0.4546
39956SOL    HW131592  10.298   2.907   5.067  0.2627 -0.3609 -0.4907
39956SOL    HW231593  10.346   3.009   4.965  1.4166  1.1120  1.4622
39957SOL     OW31594   1.310   9.268   2.026 -0.0645 -0.0354  0.4948
39957SOL    HW131595   1.302   9.189   1.973  0.6589 -0.9765  1.7083
39957SOL    HW231596   1.282   9.339   1.969 -2.5558 -1.3566 -0.0497
39958SOL     OW31597   4.735   4.060   8.331 -0.0413 -0.1355 -0.1864
39958SOL    HW131598   4.731   3.998   8.258  0.5185 -0.4944  0.0758
39958SOL    HW231599   4.827   4.088   8.332 -0.6578  2.1857 -1.5180
39959SOL     OW31600   9.491   2.411   9.669  0.5565 -0.5727  0.4649
39959SOL    HW131601   9.483   2.316   9.660 -1.7623 -0.3795 -0.3428
39959SOL    HW231602   9.514   2.441   9.581 -1.2333 -0.2489  0.0636
39960SOL     OW31603  10.151   0.350   6.053 -0.1041  0.0070  0.3772
39960SOL    HW131604  10.217   0.408   6.015 -0.4590  0.5935  0.6294
39960SOL    HW231605  10.194   0.265   6.060  1.4324  0.8615  2.6207
39961SOL     OW31606   3.016   8.447   6.276  0.0873 -0.2852  0.2816
39961SOL    HW131607   3.094   8.481   6.320 -0.2084 -0.2155  0.7610
39961SOL    HW231608   2.988   8.374   6.331 -0.9626  0.5272  0.8721
39962SOL     OW31609   3.985  10.025   6.324  0.3217 -0.1301 -0.3518
39962SOL    HW131610   3.911  10.084   6.312 -2.0083 -3.3751 -3.9625
39962SOL    HW231611   3.959   9.969   6.397  1.8949  2.0712  2.0891
39963SOL     OW31612  10.734   6.958   9.642  0.8733  0.5796  1.0574
39963SOL    HW131613  10.807   6.959   9.580 -1.4681  0.1691 -1.9879
39963SOL    HW231614  10.696   7.046   9.636 -1.3609 -0.3784 -0.9069
39964SOL     OW31615   8.473   6.095   5.642  0.5986  0.2884  0.0094
39964SOL    HW131616   8.557   6.083   5.599  0.4114  2.0264 -0.9173
39964SOL    HW231617   8.425   6.014   5.625  1.4826 -0.0696 -0.8457
39965SOL     OW31618   2.247   1.454  10.865 -0.3108 -0.6422 -0.5028
39965SOL    HW131619   2.311   1.416  10.805  0.5145 -1.2504  0.7036
39965SOL    HW231620   2.289   1.534  10.897 -0.9682 -0.0433 -1.1238
39966SOL     OW31621   0.827   9.703   7.679 -0.2667 -0.1759 -0.2537
39966SOL    HW131622   0.751   9.665   7.634 -0.4251  0.1905 -0.2928
39966SOL    HW231623   0.902   9.655   7.644 -0.3360  0.4752 -1.3059
39967SOL     OW31624   6.572   6.424   0.838  0.7776  0.1686 -0.4840
39967SOL    HW131625   6.643   6.465   0.888  0.8053 -0.1540 -0.2560
39967SOL    HW231626   6.555   6.486   0.767  1.5357  0.0776 -0.7584
39968SOL     OW31627   0.877   1.102   8.299 -0.5582  0.1816  0.2443
39968SOL    HW131628   0.822   1.128   8.374  1.0687  0.3128  1.4389
39968SOL    HW231629   0.892   1.008   8.313 -0.8889  0.0336 -0.3699
39969SOL     OW31630   5.128   5.728   3.048 -0.2746  0.7048 -0.1619
39969SOL    HW131631   5.203   5.748   3.104 -0.0767  1.1537 -0.5792
39969SOL    HW231632   5.067   5.682   3.105 -0.5386  2.0796  0.7019
39970SOL     OW31633   4.112   7.810   1.399 -0.2051  0.4509 -0.4298
39970SOL    HW131634   4.034   7.755   1.396  1.2100 -1.6169 -2.4128
39970SOL    HW231635   4.086   7.886   1.451 -2.9252 -1.0447  0.5609
39971SOL     OW31636   1.515   2.298   6.045 -0.2014 -0.3482 -0.1283
39971SOL    HW131637   1.514   2.352   6.124  1.0842  1.2599 -1.1380
39971SOL    HW231638   1.424   2.299   6.013 -0.5161 -0.1653  0.7606
39972SOL     OW31639   7.903   5.499  10.505  0.3005  0.1164 -0.3298
39972SOL    HW131640   7.853   5.512  10.586 -0.6988 -0.3048 -0.8718
39972SOL    HW231641   7.988   5.466  10.535  0.0359  0.2139  0.5617
39973SOL     OW31642   8.374   1.434   7.089 -0.6009 -0.2417 -0.3930
39973SOL    HW131643   8.389   1.351   7.044  0.9081 -0.0690 -0.2493
39973SOL    HW231644   8.336   1.491   7.022 -1.2333 -0.8876 -0.6096
39974SOL     OW31645   1.131   6.985   9.533 -0.3196 -0.0983 -0.0757
39974SOL    HW131646   1.048   7.027   9.554 -0.3211 -0.0144 -0.2544
39974SOL    HW231647   1.170   6.965   9.619 -0.5895 -0.2696  0.0082
39975SOL     OW31648   9.779   6.261   3.637  0.0302 -0.5315 -0.9868
39975SOL    HW131649   9.706   6.204   3.616  0.5805 -1.7327  0.2278
39975SOL    HW231650   9.751   6.348   3.608 -2.6984 -0.5548  1.2150
39976SOL     OW31651   1.860   0.028   9.533  0.1402  0.2738 -0.4341
39976SOL    HW131652   1.843   0.001   9.623 -0.2240  1.2239 -0.2138
39976SOL    HW231653   1.841  -0.050   9.481  1.4238 -0.6370  0.3890
39977SOL     OW31654   5.024   5.165   0.636  0.0407  0.2146 -0.0269
39977SOL    HW131655   5.037   5.215   0.555 -0.4991  1.0041  0.3624
39977SOL    HW231656   5.112   5.153   0.672  0.3988 -1.0246 -1.2318
39978SOL     OW31657   2.084   9.600   8.249 -0.1901 -0.0827 -0.1118
39978SOL    HW131658   2.110   9.531   8.188 -1.1697  0.1602 -0.8325
39978SOL    HW231659   2.162   9.655   8.258  0.5755 -1.1983  0.3975
39979SOL     OW31660   2.682   4.374   8.838  0.0769 -0.0687  0.9226
39979SOL    HW131661   2.730   4.455   8.817 -0.1370 -0.2384 -0.2816
39979SOL    HW231662   2.615   4.401   8.900  0.9338  0.4053  1.6622
39980SOL     OW31663   3.517   7.966   4.975 -0.5872 -0.4132  0.4286
39980SOL    HW131664   3.593   7.920   4.939  0.2337  0.9084  0.3927
39980SOL    HW231665   3.511   7.935   5.065  0.6457  0.2236  0.7490
39981SOL     OW31666   9.060   5.541  11.109  0.2680  0.4623 -0.2361
39981SOL    HW131667   8.999   5.573  11.176 -0.8568  0.9234 -1.4304
39981SOL    HW231668   9.080   5.619  11.057 -1.0847 -0.3744 -2.1064
39982SOL     OW31669  11.884   5.705   5.746 -0.5787 -0.6158  0.2527
39982SOL    HW131670  11.954   5.717   5.811 -2.5588 -0.2361  2.4330
39982SOL    HW231671  11.883   5.611   5.729 -1.3305 -1.0514  2.4007
39983SOL     OW31672  11.078  10.741   6.084 -0.6332 -0.1942  0.1514
39983SOL    HW131673  11.049  10.776   6.168 -0.8153 -1.7984  0.8109
39983SOL    HW231674  11.169  10.771   6.075 -0.1645 -1.0352  1.5885
39984SOL     OW31675  11.010   4.676   3.840  0.6965 -0.8560 -0.6164
39984SOL    HW131676  11.080   4.723   3.886 -0.0393  0.2707 -0.6311
39984SOL    HW231677  10.952   4.646   3.910  0.3577 -0.4259 -0.7171
39985SOL     OW31678   3.902   9.129   6.143 -0.0728 -0.6152 -0.7233
39985SOL    HW131679   3.919   9.048   6.190 -2.5104 -0.1604  1.1486
39985SOL    HW231680   3.955   9.123   6.063 -0.8309 -4.4051 -1.0969
39986SOL     OW31681   8.462   2.400   1.808 -0.2383 -0.0564 -0.3492
39986SOL    HW131682   8.511   2.385   1.727  1.0068 -1.5338  0.6110
39986SOL    HW231683   8.528   2.394   1.877 -1.5167 -0.3732  0.8957
39987SOL     OW31684   5.083   6.136   7.742 -0.1552  0.0206 -0.3971
39987SOL    HW131685   4.988   6.143   7.739 -0.3141 -1.4975  0.1086
39987SOL    HW231686   5.112   6.159   7.654 -1.1297 -1.1188 -1.0385
39988SOL     OW31687   1.239   1.695   1.179 -0.0681  0.4355 -0.3755
39988SOL    HW131688   1.248   1.781   1.218  1.1031 -0.8911  2.5868
39988SOL    HW231689   1.161   1.657   1.219  0.0315 -0.2753 -0.8270
39989SOL     OW31690   0.830   1.423   8.781 -0.5028  0.4732 -0.3758
39989SOL    HW131691   0.759   1.426   8.717 -1.0222 -0.0179  0.1678
39989SOL    HW231692   0.882   1.501   8.763 -1.2319  0.8863 -0.7225
39990SOL     OW31693   2.468   7.842  10.652 -0.0092  0.0869  0.0213
39990SOL    HW131694   2.559   7.855  10.676 -0.0114 -0.9925  0.6552
39990SOL    HW231695   2.420   7.904  10.707  0.4980  3.1626 -2.6390
39991SOL     OW31696  10.295  11.021   7.629 -0.0827  0.1810 -0.1052
39991SOL    HW131697  10.316  10.953   7.693 -0.3195  0.5087  0.3284
39991SOL    HW231698  10.212  10.992   7.590 -0.0928  0.1317 -0.0468
39992SOL     OW31699   9.870   1.323   9.854 -0.4506  0.2617  0.1968
39992SOL    HW131700   9.880   1.317   9.759 -1.8312  0.1995  0.0390
39992SOL    HW231701   9.801   1.388   9.867 -1.6121 -1.0847  1.0828
39993SOL     OW31702  11.666   2.733   4.793  0.2423 -0.2505  0.1665
39993SOL    HW131703  11.640   2.711   4.883 -0.6700 -1.1568 -0.2971
39993SOL    HW231704  11.690   2.649   4.754 -0.6518 -0.0690 -0.8253
39994SOL     OW31705   3.207  11.518   6.834 -0.3719 -0.0799 -0.1056
39994SOL    HW131706   3.289  11.567   6.844  0.1126 -0.1351 -2.9457
39994SOL    HW231707   3.218  11.440   6.887  0.7904  0.6487  0.7599
39995SOL     OW31708  11.815  10.019   9.967  0.1010  0.0573 -0.0490
39995SOL    HW131709  11.856  10.058  10.044  0.6589 -4.2524  2.1354
39995SOL    HW231710  11.730   9.988   9.998 -0.7298  0.3160 -1.9206
39996SOL     OW31711  11.118   5.470   6.921 -0.0065  0.5226 -0.6220
39996SOL    HW131712  11.181   5.530   6.962  0.3889 -0.9486  1.0707
39996SOL    HW231713  11.038   5.481   6.973  0.0337 -0.2859 -0.3702
39997SOL     OW31714   2.890   3.839   6.407  0.9938  0.1845  0.6656
39997SOL    HW131715   2.974   3.874   6.377  0.6978 -0.1440 -0.6082
39997SOL    HW231716   2.914   3.767   6.465  1.5865  1.2900  1.8607
39998SOL     OW31717   9.875   2.012   7.467  0.3725  0.6723 -0.2206
39998SOL    HW131718   9.968   1.997   7.452 -0.1854 -3.0208 -0.8505
39998SOL    HW231719   9.846   2.061   7.390  1.6527  1.3007 -0.3239
39999SOL     OW31720   5.314  10.186   4.983  0.8460  0.0951  0.0313
39999SOL    HW131721   5.408  10.199   4.996  0.6513 -0.0570  1.8500
39999SOL    HW231722   5.298  10.096   5.011  0.4404 -0.5747 -2.1487
40000SOL     OW31723   8.490   9.237  10.735  0.3226  0.0093  0.5884
40000SOL    HW131724   8.509   9.243  10.829 -0.1413  0.9843  0.6412
40000SOL    HW231725   8.566   9.279  10.693  0.3284 -0.0310  0.5594
40001SOL     OW31726  10.811  10.068   3.718 -0.0034  0.0732  0.1303
40001SOL    HW131727  10.830   9.976   3.736  1.8288  0.4081  0.1421
40001SOL    HW231728  10.852  10.115   3.791  2.1548  1.0657 -1.5992
40002SOL     OW31729   3.089   2.258  11.347  0.0432  0.6685 -0.4303
40002SOL    HW131730   3.095   2.306  11.265  1.5739 -0.4331 -1.0135
40002SOL    HW231731   3.025   2.188  11.330  0.3003  0.4892 -0.6686
40003SOL     OW31732   9.889   5.363   0.337  0.1731 -0.5074  0.4447
40003SOL    HW131733   9.795   5.346   0.339  0.3782 -1.6351  1.4998
40003SOL    HW231734   9.915   5.372   0.428  0.8041  1.7076  0.1114
40004SOL     OW31735   4.247   8.925   4.289 -0.3045 -0.4107  0.1337
40004SOL    HW131736   4.262   8.830   4.294 -0.4299 -0.3795  1.4864
40004SOL    HW231737   4.262   8.956   4.378 -0.8823  0.7526 -0.1566
40005SOL     OW31738   6.786   3.316   7.786  0.4560  0.4195 -0.2778
40005SOL    HW131739   6.811   3.391   7.732 -0.3504  0.5680 -0.4585
40005SOL    HW231740   6.869   3.282   7.820  0.9871  0.2415 -1.7098
40006SOL     OW31741   4.606   0.260   5.518 -0.6387  0.6071 -0.1875
40006SOL    HW131742   4.536   0.322   5.540  0.6197  1.5915  1.3277
40006SOL    HW231743   4.659   0.305   5.452  0.1764  1.1184  0.7858
40007SOL     OW31744   6.211   4.116   3.627 -0.4202 -0.4496  0.1443
40007SOL    HW131745   6.187   4.032   3.589  0.1971 -0.5286 -0.0802
40007SOL    HW231746   6.128   4.160   3.642 -0.7284 -0.9363 -0.1048
40008SOL     OW31747   8.250  10.192   1.041  0.2338 -0.5358 -0.3748
40008SOL    HW131748   8.279  10.129   0.975  0.5332 -0.1505 -0.6211
40008SOL    HW231749   8.157  10.175   1.052  0.1640 -0.5652 -0.9532
40009SOL     OW31750   6.894   6.825   8.273  0.0729  0.1025  0.3429
40009SOL    HW131751   6.923   6.819   8.182 -1.2925  1.0766 -0.2023
40009SOL    HW231752   6.824   6.760   8.280 -0.0379  0.2484  0.6077
40010SOL     OW31753   3.021   8.023  10.210  0.9969 -0.2174  0.2325
40010SOL    HW131754   2.992   7.955  10.151  0.8862 -1.1412  1.3188
40010SOL    HW231755   3.002   8.105  10.164 -1.6377 -0.8137  0.1062
40011SOL     OW31756   5.353   5.307   4.118 -0.4077 -0.1593 -0.1749
40011SOL    HW131757   5.368   5.386   4.170  0.9641 -0.3501 -0.2543
40011SOL    HW231758   5.258   5.301   4.112 -0.5589  0.8705  0.7704
40012SOL     OW31759   0.908   3.481   9.414  0.6274  0.6191 -0.4961
40012SOL    HW131760   0.936   3.415   9.351 -1.3990  1.3321 -2.3008
40012SOL    HW231761   0.969   3.554   9.401  0.5118  0.5781 -1.3797
40013SOL     OW31762   6.545  10.765   1.858  0.2978 -0.0663 -0.0589
40013SOL    HW131763   6.501  10.765   1.943  0.0449 -0.3427 -0.1844
40013SOL    HW231764   6.597  10.845   1.857  1.0138 -0.5114  0.7217
40014SOL     OW31765   7.461  10.425  10.460 -0.0327  0.3374  0.0926
40014SOL    HW131766   7.489  10.344  10.417 -1.3234  0.3320 -0.7928
40014SOL    HW231767   7.477  10.409  10.553  3.5947  0.6524 -0.3373
40015SOL     OW31768   2.793   3.766   3.158  0.8187 -0.1882 -0.1579
40015SOL    HW131769   2.801   3.759   3.063  2.1832  0.7931 -0.1453
40015SOL    HW231770   2.801   3.859   3.177 -1.1396 -0.1589  0.8174
40016SOL     OW31771   4.496  11.185   9.705 -0.5009 -0.5649  0.4047
40016SOL    HW131772   4.588  11.207   9.717 -0.4924 -0.4481  0.1336
40016SOL    HW231773   4.449  11.250   9.757 -0.4521 -0.2411  0.0546
40017SOL     OW31774   7.798   8.804  10.215  0.0596  0.6093  0.4197
40017SOL    HW131775   7.871   8.754  10.251 -1.4112 -1.8803  0.2113
40017SOL    HW231776   7.796   8.885  10.266  2.3213  0.3270  1.0703
40018SOL     OW31777   2.700   6.599   7.619 -0.1707  0.0272  0.3157
40018SOL    HW131778   2.693   6.671   7.681  0.1609 -1.0721  1.6795
40018SOL    HW231779   2.717   6.522   7.673  1.4248 -0.7850 -1.2212
40019SOL     OW31780   3.559   5.785   5.531 -0.2206 -0.3344  0.2616
40019SOL    HW131781   3.569   5.879   5.547 -0.5860  0.3806 -2.9223
40019SOL    HW231782   3.648   5.751   5.534  0.2273  0.6427 -1.0099
40020SOL     OW31783   0.117   5.704   5.960  0.2351 -0.2161 -0.4423
40020SOL    HW131784   0.212   5.693   5.966  0.0732 -0.9990  1.3099
40020SOL    HW231785   0.094   5.759   6.034 -0.6413  0.3578 -1.1202
40021SOL     OW31786   6.149   7.087   8.179  0.0405 -0.0229  0.2128
40021SOL    HW131787   6.079   7.112   8.240 -0.2976 -0.6880  0.1034
40021SOL    HW231788   6.222   7.145   8.201  1.0974 -2.2505  3.4409
40022SOL     OW31789  11.914   4.290   1.225  0.2108 -0.3320 -0.2890
40022SOL    HW131790  11.855   4.339   1.169  1.0724  0.1067 -0.8286
40022SOL    HW231791  11.993   4.345   1.232  0.2924 -0.5702  0.9972
40023SOL     OW31792   7.193   9.331   7.382 -0.0547  0.3880  0.1509
40023SOL    HW131793   7.193   9.414   7.431 -3.0816  0.3301  0.4890
40023SOL    HW231794   7.189   9.263   7.449  3.0501 -0.1668 -0.1073
40024SOL     OW31795   2.157   3.717   6.573 -0.0466  0.8538  0.2594
40024SOL    HW131796   2.205   3.657   6.630 -1.8289 -0.3513  0.5525
40024SOL    HW231797   2.165   3.679   6.486  2.3382  2.4848 -0.3420
40025SOL     OW31798   5.078   0.050   2.483  0.1533 -0.5477  0.6555
40025SOL    HW131799   5.058   0.116   2.417 -1.4685 -0.1019  1.5233
40025SOL    HW231800   5.173   0.052   2.492  0.1656  1.5075  0.4636
40026SOL     OW31801   8.399   2.681   5.175 -0.1483 -0.0157  0.1853
40026SOL    HW131802   8.417   2.741   5.248  0.2207 -0.4653  0.4687
40026SOL    HW231803   8.466   2.702   5.110  1.9020 -2.0414  1.4483
40027SOL     OW31804   2.759   4.092   2.836 -0.0108 -0.2592  0.3732
40027SOL    HW131805   2.667   4.103   2.859 -0.6319 -0.5025 -1.7413
40027SOL    HW231806   2.794   4.181   2.836 -0.1791 -0.1771  1.3472
40028SOL     OW31807   4.763   3.416   7.877  0.5101  0.5521  0.0110
40028SOL    HW131808   4.797   3.489   7.928 -2.0825 -0.3828  3.4702
40028SOL    HW231809   4.667   3.426   7.882  0.0648 -0.6629 -3.2881
40029SOL     OW31810   5.835   2.504   2.900  0.0018 -0.7666  0.1676
40029SOL    HW131811   5.886   2.553   2.965  0.3318  0.2116 -0.8071
40029SOL    HW231812   5.823   2.565   2.828 -0.4533 -1.8068 -0.6615
40030SOL     OW31813   2.586   6.106   7.045 -0.3781 -0.2379  0.0379
40030SOL    HW131814   2.538   6.041   7.095 -0.9524  2.2089  2.9600
40030SOL    HW231815   2.544   6.189   7.066  2.7422  1.5967 -0.2828
40031SOL     OW31816   8.418  10.646   6.893  0.4704 -0.0841 -0.6296
40031SOL    HW131817   8.360  10.594   6.837  0.9449 -1.4241  0.0860
40031SOL    HW231818   8.380  10.639   6.980  2.1647 -1.7899  0.0465
40032SOL     OW31819   5.179   7.655   1.063 -0.7692  0.2336 -0.2336
40032SOL    HW131820   5.154   7.741   1.099  0.8335  0.8694 -0.5471
40032SOL    HW231821   5.139   7.653   0.976 -2.1772 -0.0534  0.3914
40033SOL     OW31822   7.074   1.040  10.095 -0.1832 -0.1575 -0.1870
40033SOL    HW131823   7.091   1.027  10.188 -1.2452 -1.5480 -0.1472
40033SOL    HW231824   7.088   0.954  10.056  0.4623  0.4556 -1.3654
40034SOL     OW31825   7.220   5.582  11.287  0.2402 -0.3229  0.1836
40034SOL    HW131826   7.141   5.594  11.339  1.2389  0.1475  1.6759
40034SOL    HW231827   7.219   5.490  11.263 -0.7530 -0.3220  0.1885
40035SOL     OW31828  11.940   0.976   7.930  0.3070 -0.6107  0.2929
40035SOL    HW131829  11.924   0.979   8.024 -1.2200 -1.0278  0.0760
40035SOL    HW231830  11.938   0.883   7.908  0.4952 -0.5084 -0.1673
40036SOL     OW31831  11.125   6.986   3.215  0.1891 -0.1503  0.1867
40036SOL    HW131832  11.036   7.015   3.236  0.2003  0.3709 -0.4685
40036SOL    HW231833  11.123   6.970   3.121  1.1826  1.2515 -0.0836
40037SOL     OW31834  11.127  10.086  11.409 -0.1837 -0.1340 -0.2564
40037SOL    HW131835  11.081  10.137  11.342 -1.5069 -0.1585  0.5923
40037SOL    HW231836  11.218  10.087  11.381 -0.1174  2.7357 -0.2750
40038SOL     OW31837   1.381   7.480  10.527  0.1192  0.0140  0.2504
40038SOL    HW131838   1.304   7.447  10.574 -0.4979 -0.3721 -0.9901
40038SOL    HW231839   1.388   7.424  10.450  0.6150  1.1267 -0.5432
40039SOL     OW31840   5.377   8.428   3.960 -0.0546  0.2524 -0.1427
40039SOL    HW131841   5.357   8.399   4.049 -0.6276  1.6076  0.1850
40039SOL    HW231842   5.472   8.412   3.951  0.2657  1.2763  1.1647
40040SOL     OW31843   5.868  10.977   8.450 -0.7929  0.1653  0.1557
40040SOL    HW131844   5.831  11.065   8.443 -0.3233  0.3567  0.0307
40040SOL    HW231845   5.832  10.942   8.532 -1.1927  0.3729  0.0685
40041SOL     OW31846   2.972   4.135   0.621  0.2753 -0.3024  0.1598
40041SOL    HW131847   2.885   4.170   0.637  0.4270 -0.9100  2.5629
40041SOL    HW231848   2.987   4.151   0.527 -2.8226 -1.1768 -0.5863
40042SOL     OW31849   8.836   8.271   8.675 -0.1248  0.4066 -0.4371
40042SOL    HW131850   8.773   8.339   8.648 -0.2574 -0.1048 -1.4661
40042SOL    HW231851   8.789   8.221   8.742 -0.3615  0.7826 -0.3172
40043SOL     OW31852   9.630   0.113   8.410  0.0841  0.6401  0.5006
40043SOL    HW131853   9.723   0.122   8.431  0.2915 -1.3893  0.5927
40043SOL    HW231854   9.614   0.019   8.410 -2.2926  0.9798  1.7757
40044SOL     OW31855   0.477   9.257   9.859  0.2184  0.1415 -0.3503
40044SOL    HW131856   0.555   9.295   9.818 -0.3329  1.1757 -0.4769
40044SOL    HW231857   0.511   9.207   9.933  1.0384  0.1676 -0.6978
40045SOL     OW31858   1.615   6.657   7.649 -0.1389 -0.0943 -0.0824
40045SOL    HW131859   1.686   6.636   7.589  0.3711  0.3267  0.3557
40045SOL    HW231860   1.649   6.631   7.735 -0.2644  0.6835  0.2093
40046SOL     OW31861   0.165   5.825   9.320 -0.0624 -0.2882 -0.6922
40046SOL    HW131862   0.097   5.887   9.293  2.0757  1.4771 -2.3425
40046SOL    HW231863   0.173   5.765   9.247  1.0252  0.3382 -1.1170
40047SOL     OW31864   1.588   6.250   7.020 -0.3311 -0.0726 -0.1773
40047SOL    HW131865   1.502   6.282   7.047  0.1502  1.9654 -0.8871
40047SOL    HW231866   1.573   6.215   6.932 -0.0218  2.7270 -1.4420
40048SOL     OW31867   7.599   0.913  10.220  0.4230  0.1797  0.4863
40048SOL    HW131868   7.568   0.901  10.309 -0.5893 -0.6527  0.0433
40048SOL    HW231869   7.521   0.901  10.165  0.9308  1.1182 -0.4905
40049SOL     OW31870   7.845   0.074  11.312  0.5996 -0.2353  0.0534
40049SOL    HW131871   7.771   0.109  11.362  0.5255  0.4783 -0.5365
40049SOL    HW231872   7.874  -0.002  11.362 -0.0109 -0.0371  0.7268
40050SOL     OW31873   7.680   9.544   0.882 -0.2493 -0.2372 -0.0176
40050SOL    HW131874   7.689   9.629   0.838 -0.6966  0.3784  1.0592
40050SOL    HW231875   7.701   9.562   0.973  1.0734 -1.5861 -0.0189
40051SOL     OW31876   2.437   4.476   5.971 -0.3548  0.1203 -0.3336
40051SOL    HW131877   2.502   4.424   6.019 -0.9975  0.3294  0.7883
40051SOL    HW231878   2.394   4.413   5.913 -1.5941 -0.8122  1.4872
40052SOL     OW31879   6.224  11.169  10.575 -0.7464 -0.1309 -0.3743
40052SOL    HW131880   6.145  11.210  10.610 -1.7788 -1.6089 -0.8743
40052SOL    HW231881   6.194  11.117  10.501  0.8132 -0.1969 -1.0008
40053SOL     OW31882   3.947   4.784   1.203  0.3799  0.7389  0.4508
40053SOL    HW131883   4.037   4.766   1.232  0.2286  1.1013  1.1526
40053SOL    HW231884   3.892   4.755   1.275 -0.3406 -2.7029 -1.2470
40054SOL     OW31885   4.628  10.752   1.710 -0.2087  0.3349 -0.4788
40054SOL    HW131886   4.628  10.656   1.707 -0.0912  0.3319 -0.3688
40054SOL    HW231887   4.675  10.778   1.630 -1.7185  0.3261 -1.4072
40055SOL     OW31888   1.807   0.660   0.648  0.2135  0.2816  0.2544
40055SOL    HW131889   1.731   0.604   0.630 -1.4024  1.9544  1.4224
40055SOL    HW231890   1.876   0.600   0.675 -0.5711 -1.3283 -1.1305
40056SOL     OW31891  10.152   5.676   8.065  0.1620  0.3852 -0.2038
40056SOL    HW131892  10.166   5.585   8.091 -1.7152  0.3389  0.7919
40056SOL    HW231893  10.230   5.698   8.013 -0.1957 -2.3676 -2.0991
40057SOL     OW31894  11.180   3.723   2.285  0.3071  0.2475 -0.0948
40057SOL    HW131895  11.102   3.678   2.316 -0.2100  0.2627 -1.3182
40057SOL    HW231896  11.147   3.802   2.243  1.0177  0.4488 -0.2963
40058SOL     OW31897   6.304   4.692   1.649  0.0996  0.0716  0.1967
40058SOL    HW131898   6.379   4.648   1.687  0.8280  0.8525 -0.2821
40058SOL    HW231899   6.333   4.782   1.636 -0.3462  0.0032 -1.5379
40059SOL     OW31900   7.812   6.054  10.161 -0.1941  0.2799  0.5753
40059SOL    HW131901   7.776   6.143  10.164 -0.7741  0.0336  2.2274
40059SOL    HW231902   7.856   6.044  10.246 -2.0903 -1.7797  1.4040
40060SOL     OW31903   8.214  10.957   0.875 -0.0507 -0.5269 -1.0114
40060SOL    HW131904   8.179  10.999   0.797 -2.3248 -0.4706 -0.0411
40060SOL    HW231905   8.218  11.028   0.940  0.4577 -0.8690 -0.6579
40061SOL     OW31906  11.421   1.562   2.724  0.4201 -0.3171 -0.4048
40061SOL    HW131907  11.516   1.569   2.727  0.5637 -2.0626  0.3164
40061SOL    HW231908  11.403   1.470   2.744 -1.4753  0.2299  0.6233
40062SOL     OW31909   8.744   4.750   9.929 -0.0752  0.5061  0.0400
40062SOL    HW131910   8.743   4.696   9.849 -1.6398 -0.4692  0.6704
40062SOL    HW231911   8.781   4.693   9.996  1.8859  1.5518 -0.0760
40063SOL     OW31912   7.409   7.158   4.008  0.0374  0.3170  0.0674
40063SOL    HW131913   7.358   7.087   4.047 -0.3913  0.4624 -0.2319
40063SOL    HW231914   7.497   7.147   4.046  0.1424 -0.7542 -0.4537
40064SOL     OW31915   0.322   1.836   3.193 -0.3847  0.1336  0.7670
40064SOL    HW131916   0.383   1.910   3.184  0.1219 -0.0531  2.3170
40064SOL    HW231917   0.371   1.760   3.162 -0.0744  0.1014  1.3198
40065SOL     OW31918   8.327   1.261   3.375 -0.0712 -0.3344 -1.1939
40065SOL    HW131919   8.336   1.195   3.444 -0.2855  0.3575 -0.4819
40065SOL    HW231920   8.409   1.257   3.326 -0.1094 -1.1714 -1.2023
40066SOL     OW31921   3.099   2.233   0.026  0.1859  0.0206  0.1563
40066SOL    HW131922   3.019   2.268   0.065  1.2118  2.8358 -0.0311
40066SOL    HW231923   3.112   2.149   0.070 -1.3655  0.7688  2.2212
40067SOL     OW31924   5.492   7.000   5.259 -0.0049 -0.1072  0.4754
40067SOL    HW131925   5.437   7.061   5.212  0.8903  0.9896  0.7971
40067SOL    HW231926   5.532   7.052   5.329  2.4906 -0.4871 -0.5574
40068SOL     OW31927   2.601   6.952   5.933 -0.2539  0.1566 -0.1205
40068SOL    HW131928   2.597   6.883   6.000  0.5206  0.0459 -0.1795
40068SOL    HW231929   2.555   6.914   5.858  1.1484 -0.7677 -0.5519
40069SOL     OW31930   9.818  10.154   5.539 -0.6240 -0.0103  0.6561
40069SOL    HW131931   9.801  10.226   5.600 -0.4545 -0.2102  0.9413
40069SOL    HW231932   9.735  10.107   5.532 -0.8551  0.4714  0.1264
40070SOL     OW31933   1.256   9.524   8.601 -0.9568  0.8214  0.1913
40070SOL    HW131934   1.213   9.469   8.666  0.3959 -1.8840 -1.0370
40070SOL    HW231935   1.288   9.600   8.651 -2.1809  0.1302  2.1343
40071SOL     OW31936   5.432   7.755   5.944 -0.5532 -0.4767 -0.3023
40071SOL    HW131937   5.444   7.662   5.926 -2.9553 -0.6349 -1.4683
40071SOL    HW231938   5.378   7.757   6.024 -0.9346 -0.1088 -0.5673
40072SOL     OW31939  11.773   1.639   5.796 -0.5690  0.1072 -0.4121
40072SOL    HW131940  11.844   1.575   5.801  0.2762  0.9656 -0.9846
40072SOL    HW231941  11.715   1.617   5.869 -1.0964 -2.2109 -1.4171
40073SOL     OW31942   2.268   3.521   8.086 -0.2025 -0.2149  0.3296
40073SOL    HW131943   2.347   3.489   8.129 -0.1316  1.3562  1.4430
40073SOL    HW231944   2.218   3.441   8.065  0.4223 -1.1076  2.0622
40074SOL     OW31945   5.430   2.849   7.487  0.4225 -0.2271 -0.8878
40074SOL    HW131946   5.516   2.887   7.499  0.5393  0.3022 -3.0551
40074SOL    HW231947   5.444   2.772   7.431 -0.2528 -1.5083  0.6089
40075SOL     OW31948   8.111   9.029   6.544  0.0153 -0.3446  0.1996
40075SOL    HW131949   8.202   9.022   6.517  0.1717  0.4046  0.4917
40075SOL    HW231950   8.064   8.966   6.489  0.7391 -0.9070  0.2176
40076SOL     OW31951   1.909   4.496   0.354  0.3686  0.6819 -0.2319
40076SOL    HW131952   1.932   4.494   0.447  0.0800 -1.5092 -0.1563
40076SOL    HW231953   1.973   4.556   0.315  1.6261  0.2700  1.0959
40077SOL     OW31954   3.262   1.092   3.064 -0.0043  0.0093 -0.3791
40077SOL    HW131955   3.227   1.054   3.144 -1.2292 -0.7801 -1.2531
40077SOL    HW231956   3.350   1.121   3.088  0.1298 -1.3382  0.9210
40078SOL     OW31957   7.237   5.669   4.446  0.0475 -0.2604 -0.0211
40078SOL    HW131958   7.228   5.622   4.363  0.0772 -0.4878  0.1029
40078SOL    HW231959   7.215   5.760   4.425 -0.1069 -0.3483 -0.2422
40079SOL     OW31960   4.905   7.686   4.747  0.0775 -0.1883  0.1789
40079SOL    HW131961   4.961   7.617   4.783 -0.0357 -0.1609  0.4066
40079SOL    HW231962   4.882   7.740   4.823  0.0337  0.0060  0.0272
40080SOL     OW31963   9.386   5.640   8.541 -0.3220 -0.2642 -0.0444
40080SOL    HW131964   9.320   5.679   8.599 -0.9869 -0.8462 -0.3988
40080SOL    HW231965   9.384   5.547   8.562 -0.9353 -0.5594 -1.3485
40081SOL     OW31966   5.346   4.935   5.783  0.6522  0.1111  0.6936
40081SOL    HW131967   5.387   5.018   5.810  0.4494  0.5579 -0.3177
40081SOL    HW231968   5.394   4.868   5.830 -0.0063  0.8734  2.5274
40082SOL     OW31969   0.580   0.033   2.454  0.4655  0.0916  0.7991
40082SOL    HW131970   0.663   0.062   2.418  1.2485 -1.8486  0.9132
40082SOL    HW231971   0.540   0.112   2.490  2.4052  1.0104  1.0457
40083SOL     OW31972   2.998   4.426  11.419  0.2704  0.8539  0.4928
40083SOL    HW131973   2.990   4.335  11.391 -1.4380  0.5496  1.7714
40083SOL    HW231974   3.074   4.428  11.476  1.3232  0.6176 -0.8669
40084SOL     OW31975  11.845   7.969   2.643  0.0967  0.5600 -0.3049
40084SOL    HW131976  11.885   8.055   2.625  3.1282 -0.6785 -0.0165
40084SOL    HW231977  11.797   7.982   2.724 -2.9671  2.9129 -2.2340
40085SOL     OW31978   3.091   3.954   5.097  0.0233  0.2864 -0.1894
40085SOL    HW131979   3.009   3.951   5.146  0.6905  0.1603  0.9712
40085SOL    HW231980   3.085   3.883   5.034 -0.4753 -0.1566  0.3573
40086SOL     OW31981   3.164   8.270  10.520  0.1894 -0.2151 -0.2695
40086SOL    HW131982   3.187   8.317  10.440 -0.2638  0.3375 -0.0829
40086SOL    HW231983   3.167   8.336  10.589 -1.2516 -0.2541 -0.1337
40087SOL     OW31984   0.337   6.378   4.588 -0.4079  0.0139  0.2726
40087SOL    HW131985   0.363   6.420   4.669 -1.1683 -0.1925  0.6350
40087SOL    HW231986   0.246   6.407   4.574 -0.4901 -0.4403 -0.1728
40088SOL     OW31987   3.258  11.106  11.000 -0.1449 -0.4611  0.1316
40088SOL    HW131988   3.330  11.167  10.986  0.0991 -0.7125  0.2995
40088SOL    HW231989   3.236  11.074  10.912  0.7238 -1.2739  0.2002
40089SOL     OW31990   4.188   3.747   5.029 -0.0568  0.0612 -0.4347
40089SOL    HW131991   4.193   3.838   5.057 -0.5659  0.6252 -2.0524
40089SOL    HW231992   4.213   3.696   5.106 -1.0311  1.5100  0.8860
40090SOL     OW31993  11.621   0.858   8.522 -0.4122 -0.0094 -0.3018
40090SOL    HW131994  11.629   0.869   8.427 -0.7736  0.5542 -0.2769
40090SOL    HW231995  11.576   0.938   8.551  3.6004  2.0698  0.9435
40091SOL     OW31996   4.906   5.531   8.195 -0.6178  0.3721 -0.4055
40091SOL    HW131997   4.951   5.548   8.277 -1.4446 -0.9787  0.3550
40091SOL    HW231998   4.974   5.499   8.136 -0.1454  0.6912 -0.0422
40092SOL     OW31999   1.191   6.720  10.150 -0.0182  0.4850  0.2178
40092SOL    HW132000   1.283   6.696  10.151  0.2148  1.2781 -0.6295
40092SOL    HW232001   1.156   6.679  10.070 -0.0232  1.4333 -0.2867
40093SOL     OW32002  10.911   1.133   4.552 -0.0242 -0.5774  0.3685
40093SOL    HW132003  10.952   1.218   4.534  1.3489 -1.0403  1.1523
40093SOL    HW232004  10.850   1.151   4.624 -0.1654 -0.1438  0.1427
40094SOL     OW32005   3.465   4.668   8.710 -0.6997  0.3528 -0.1741
40094SOL    HW132006   3.553   4.702   8.728 -0.2258 -1.4019  1.1734
40094SOL    HW232007   3.462   4.585   8.757 -2.9951  0.2163 -0.4526
40095SOL     OW32008   7.544   4.049   0.816 -0.1831 -0.3110 -0.0101
40095SOL    HW132009   7.458   4.064   0.778 -0.6428 -0.2785  1.0126
40095SOL    HW232010   7.527   4.003   0.898  0.8893 -2.0198 -0.6735
40096SOL     OW32011   5.531   3.211   6.337  0.2314 -0.1894  0.4508
40096SOL    HW132012   5.483   3.147   6.389 -1.7759  0.2620 -0.7219
40096SOL    HW232013   5.467   3.280   6.319  1.0018 -0.0100 -1.9923
40097SOL     OW32014   6.883  11.242   9.410 -0.2484 -0.2233 -0.1858
40097SOL    HW132015   6.930  11.274   9.487  0.0597 -0.8979 -0.0806
40097SOL    HW232016   6.944  11.257   9.337  1.0138 -2.8538  0.2031
40098SOL     OW32017  10.012   7.050   5.129 -0.0053  0.2068  0.2112
40098SOL    HW132018   9.970   7.136   5.127  0.8543  0.6298 -0.9196
40098SOL    HW232019   9.985   7.008   5.047  1.6806  0.4851 -0.5450
40099SOL     OW32020   3.788   6.252   7.027 -0.1384  0.3981 -0.0806
40099SOL    HW132021   3.721   6.206   7.077 -1.6945 -1.5798 -3.6102
40099SOL    HW232022   3.860   6.265   7.089 -3.0659  1.2316  3.4742
40100SOL     OW32023   1.148  11.391   9.101  0.1465 -0.5361 -0.1407
40100SOL    HW132024   1.152  11.302   9.068  2.8499 -0.3662 -0.5014
40100SOL    HW232025   1.153  11.381   9.196 -1.3431 -0.7802 -0.0583
40101SOL     OW32026   1.949   8.587  10.522 -0.3347  0.1859 -0.3488
40101SOL    HW132027   1.920   8.673  10.551 -0.0596  0.0161  0.4450
40101SOL    HW232028   2.024   8.605  10.464 -0.8681  0.5184 -0.9526
40102SOL     OW32029   6.567   7.773   7.801 -0.0914  0.3054  0.0075
40102SOL    HW132030   6.639   7.814   7.848  0.9443 -0.4485 -0.8641
40102SOL    HW232031   6.489   7.799   7.849  0.6705  1.9028  0.4315
40103SOL     OW32032   7.555   6.456   7.066  0.2939  0.1704  0.0173
40103SOL    HW132033   7.494   6.385   7.081 -1.0357  1.1062 -0.7358
40103SOL    HW232034   7.628   6.415   7.019 -1.0892 -0.4726 -1.6870
40104SOL     OW32035   2.867   3.964   7.442  0.0466 -0.5207  0.1235
40104SOL    HW132036   2.781   3.957   7.483 -0.0064 -0.1123  0.0888
40104SOL    HW232037   2.907   3.877   7.454 -0.2347 -0.6092  0.4361
40105SOL     OW32038   8.401   8.408   1.736  0.5360  0.4617  0.2300
40105SOL    HW132039   8.467   8.417   1.804  1.3043 -1.2591 -0.2156
40105SOL    HW232040   8.317   8.415   1.781  1.0266  0.8479  1.0926
40106SOL     OW32041   9.173   5.728   4.880  0.3523  0.2526 -0.7582
40106SOL    HW132042   9.144   5.706   4.792  3.7164  1.1779 -2.2469
40106SOL    HW232043   9.266   5.706   4.882  0.8015  1.8373  1.9921
40107SOL     OW32044   8.324   7.452   4.479 -0.5779 -0.2426 -0.2419
40107SOL    HW132045   8.389   7.518   4.453 -1.3919  0.0046 -1.7915
40107SOL    HW232046   8.367   7.402   4.548  0.8748  0.5579 -0.5156
40108SOL     OW32047   2.345   7.361   6.637  0.3049 -0.5231  0.0247
40108SOL    HW132048   2.348   7.402   6.551  1.4888 -0.9567 -0.1626
40108SOL    HW232049   2.316   7.271   6.620 -1.4753 -0.0310  0.3366
40109SOL     OW32050  10.216   4.579   2.119  0.1288  0.7274 -0.3481
40109SOL    HW132051  10.217   4.528   2.038  1.2871 -0.1737  0.1982
40109SOL    HW232052  10.132   4.558   2.160  1.1174 -1.8814  0.5152
40110SOL     OW32053   8.795   7.801   8.838 -0.6861 -0.0737  0.4868
40110SOL    HW132054   8.858   7.863   8.877 -0.4559  0.6630 -0.9723
40110SOL    HW232055   8.767   7.746   8.911  0.6008  0.4892  1.4497
40111SOL     OW32056  11.856   0.873  10.772  0.2253  0.7760  0.1808
40111SOL    HW132057  11.904   0.903  10.849 -0.8177  0.8366  0.8257
40111SOL    HW232058  11.764   0.890  10.793 -0.1686 -0.3205 -0.5818
40112SOL     OW32059   2.485   0.645   0.285  0.1693  0.0962 -0.6603
40112SOL    HW132060   2.565   0.637   0.233  0.2976  2.6583 -0.9663
40112SOL    HW232061   2.514   0.684   0.368 -0.5374 -0.5800 -0.0850
40113SOL     OW32062   3.253   7.125   1.635 -0.5219  0.2966  0.3005
40113SOL    HW132063   3.271   7.196   1.573  1.0687  1.8453  2.3884
40113SOL    HW232064   3.252   7.168   1.721  0.1256 -2.1621  1.6340
40114SOL     OW32065   7.760   2.252   6.394 -0.7347  0.2468  0.1002
40114SOL    HW132066   7.780   2.216   6.308  2.0846 -1.5310  1.3433
40114SOL    HW232067   7.845   2.261   6.437 -2.1011 -0.8879  3.4147
40115SOL     OW32068   0.287   3.983   8.495  0.2956 -0.5306  0.1457
40115SOL    HW132069   0.272   4.060   8.551  0.5876 -0.0954 -0.3596
40115SOL    HW232070   0.242   3.912   8.540 -0.8455  0.1435  0.1173
40116SOL     OW32071  10.293   8.302   8.200  1.0771  0.3861 -0.3570
40116SOL    HW132072  10.215   8.341   8.159 -0.0849 -1.4208 -0.0129
40116SOL    HW232073  10.322   8.236   8.137  1.0138 -0.4203  0.4397
40117SOL     OW32074  11.646   1.104   8.007  0.0970  0.4703 -0.5707
40117SOL    HW132075  11.645   1.039   7.936  1.5292 -0.6431  0.3695
40117SOL    HW232076  11.735   1.102   8.041 -0.7499  0.2812  1.8830
40118SOL     OW32077   5.808  11.498  10.428  0.2621  0.2895 -0.0766
40118SOL    HW132078   5.882  11.471  10.374 -0.3482 -0.1597 -0.7071
40118SOL    HW232079   5.837  11.484  10.518  0.7252 -0.4529 -0.3356
40119SOL     OW32080   4.325  10.066   0.985 -0.0581  0.1937 -0.3916
40119SOL    HW132081   4.387  10.062   1.057  0.9197 -0.6924 -1.2445
40119SOL    HW232082   4.241  10.089   1.026  0.6212  0.4433  0.9021
40120SOL     OW32083   0.010   4.687   6.847  0.0381 -0.2381 -0.4397
40120SOL    HW132084   0.064   4.637   6.786 -0.3972 -2.6308  0.9878
40120SOL    HW232085  -0.009   4.626   6.918 -2.6903  1.1910  0.2183
40121SOL     OW32086   3.557   8.750  11.111  0.1985  0.4729  0.1896
40121SOL    HW132087   3.484   8.800  11.148 -0.1260 -0.3121  0.6061
40121SOL    HW232088   3.569   8.677  11.170  0.7610  0.1211 -0.3524
40122SOL     OW32089   7.726   6.388   0.647  0.3146 -0.2880  0.6492
40122SOL    HW132090   7.646   6.346   0.678 -0.0220  0.4984  0.8674
40122SOL    HW232091   7.703   6.481   0.638  1.8037  0.3717  2.8444
40123SOL     OW32092   1.247   4.938  11.716  0.4619 -0.8873  0.9412
40123SOL    HW132093   1.215   4.875  11.781 -0.0378  0.3025  1.8852
40123SOL    HW232094   1.281   5.011  11.768 -1.4625  0.8509 -0.0788
40124SOL     OW32095   0.130   6.099  10.799 -0.4006  0.1457 -0.2309
40124SOL    HW132096   0.209   6.113  10.746  1.2123 -0.5809  1.8606
40124SOL    HW232097   0.112   6.185  10.837 -1.5922  0.6820 -1.8911
40125SOL     OW32098   1.509   0.241   0.581 -0.3528 -0.3413 -0.4182
40125SOL    HW132099   1.461   0.233   0.498  0.9718 -1.5545 -1.1275
40125SOL    HW232100   1.557   0.158   0.588  3.3530  1.5817 -0.8942
40126SOL     OW32101   2.583   2.952  10.518 -0.4056  0.5937 -0.0009
40126SOL    HW132102   2.536   3.007  10.454  0.7100  0.6455 -0.8124
40126SOL    HW232103   2.556   2.863  10.497  0.6390  0.5249 -1.1857
40127SOL     OW32104   6.648   0.009   0.363 -0.6645  0.3315 -1.5255
40127SOL    HW132105   6.694  -0.009   0.281  2.1580 -2.4273  0.4516
40127SOL    HW232106   6.602  -0.072   0.383 -0.2761  0.4938  0.1903
40128SOL     OW32107   1.170   1.982   9.986  0.0937 -0.3580  0.0520
40128SOL    HW132108   1.116   1.929   9.928 -1.0995  1.2701 -0.4162
40128SOL    HW232109   1.169   1.936  10.069 -0.4420 -1.3461 -0.4821
40129SOL     OW32110   9.732   1.690   4.912 -0.1308  0.0032  0.3535
40129SOL    HW132111   9.778   1.767   4.878  1.7820 -1.3963 -0.4043
40129SOL    HW232112   9.739   1.699   5.007 -0.1485  0.8713  0.2862
40130SOL     OW32113   6.603   0.039   0.966  0.4555  0.0717 -0.1916
40130SOL    HW132114   6.522  -0.011   0.958  1.3799 -1.3417 -1.0672
40130SOL    HW232115   6.621   0.069   0.877  0.6430  0.8103  0.0868
40131SOL     OW32116   0.796   7.748   7.315  0.4535  0.0781 -0.3739
40131SOL    HW132117   0.728   7.724   7.378  0.0233  1.4685 -0.2921
40131SOL    HW232118   0.873   7.697   7.342  0.5070  1.1751  1.7162
40132SOL     OW32119   3.708   1.415  10.438  0.1522  0.2422  0.2797
40132SOL    HW132120   3.713   1.372  10.352 -1.8727  0.2898  0.1043
40132SOL    HW232121   3.664   1.498  10.422 -0.2854  0.2376  1.3791
40133SOL     OW32122   4.439  11.728   9.883  0.4697  0.1484  0.4919
40133SOL    HW132123   4.469  11.733   9.973 -2.7482  2.0553  1.6542
40133SOL    HW232124   4.405  11.816   9.864 -1.2754 -0.8658 -1.6287
40134SOL     OW32125   4.842   2.775   0.389  0.0541 -0.0033  0.0387
40134SOL    HW132126   4.758   2.753   0.349  0.6707 -0.6439 -0.9498
40134SOL    HW232127   4.890   2.822   0.320  0.3261  0.8229  0.7637
40135SOL     OW32128   3.535   9.571   6.949 -0.4344  0.1751  0.5234
40135SOL    HW132129   3.569   9.652   6.912 -1.3494 -0.0024 -0.7768
40135SOL    HW232130   3.575   9.565   7.036 -0.2633  1.9350  0.5881
40136SOL     OW32131   5.181   9.874   3.323 -0.2084  0.3691 -0.7960
40136SOL    HW132132   5.241   9.896   3.251  0.6853  0.3003 -0.0858
40136SOL    HW232133   5.129   9.953   3.336 -1.6862 -0.2028 -2.7373
40137SOL     OW32134   3.982   6.304   2.968  0.3516 -0.2384 -0.0984
40137SOL    HW132135   3.897   6.333   3.002  0.8970  1.7399 -0.3259
40137SOL    HW232136   3.987   6.211   2.992 -2.3481 -0.7251 -1.0270
40138SOL     OW32137   9.470   1.897   8.732  0.3622 -0.5068  0.0185
40138SOL    HW132138   9.497   1.962   8.797  0.0297  1.2679 -1.5388
40138SOL    HW232139   9.382   1.871   8.759  0.5497 -0.4308  0.7263
40139SOL     OW32140   2.854   1.143   0.513 -0.2604 -0.0895 -0.1333
40139SOL    HW132141   2.871   1.121   0.604 -0.7516 -1.7400 -0.4242
40139SOL    HW232142   2.940   1.135   0.470 -0.3908 -1.2499 -0.1893
40140SOL     OW32143   5.223   2.740   3.937 -0.2535 -0.2004 -0.1336
40140SOL    HW132144   5.260   2.799   4.001 -0.4772  1.1980 -1.2512
40140SOL    HW232145   5.134   2.774   3.921  0.5787  0.9751 -2.8899
40141SOL     OW32146   4.175   0.051   9.604  0.0416 -0.2945  0.0916
40141SOL    HW132147   4.110   0.004   9.657 -0.3277  2.1897  2.0021
40141SOL    HW232148   4.137   0.053   9.516 -1.5535 -0.5861  0.7359
40142SOL     OW32149   5.948   2.701   0.004  0.0035 -0.0148 -0.2245
40142SOL    HW132150   6.036   2.687  -0.031  1.4542 -2.1738  3.6125
40142SOL    HW232151   5.948   2.791   0.035  0.3946  0.3515 -1.2388
40143SOL     OW32152   9.100  10.303   9.137 -0.4109 -0.2678 -0.1042
40143SOL    HW132153   9.020  10.267   9.174  0.9996 -1.8196  1.5819
40143SOL    HW232154   9.139  10.355   9.208 -0.2239  1.0377 -1.1165
40144SOL     OW32155   5.261   9.448   4.302 -0.2901 -0.0455  0.3290
40144SOL    HW132156   5.315   9.523   4.278 -0.3903  0.2766  1.0735
40144SOL    HW232157   5.244   9.403   4.220  0.3338  0.3703 -0.0385
40145SOL     OW32158   7.196   4.694   0.909  0.2648 -0.2202  0.3303
40145SOL    HW132159   7.206   4.599   0.917  0.6820 -0.2254 -0.1538
40145SOL    HW232160   7.116   4.706   0.858  1.7390 -0.4222 -2.1863
40146SOL     OW32161  10.917   6.498  11.812  0.1646 -0.2350 -0.2012
40146SOL    HW132162  11.004   6.464  11.831 -0.0588  0.7608  3.3764
40146SOL    HW232163  10.858   6.427  11.833 -0.0289  0.3969  1.4941
40147SOL     OW32164   6.083   6.320   5.013  0.2363  1.0450 -0.1839
40147SOL    HW132165   6.031   6.248   5.049  1.3278  0.6034  0.5389
40147SOL    HW232166   6.148   6.340   5.080  0.1349  2.5313 -0.4902
40148SOL     OW32167   2.718   6.513   5.125  0.0626  0.4024 -0.2208
40148SOL    HW132168   2.734   6.608   5.123 -0.0045  0.4030 -0.6944
40148SOL    HW232169   2.623   6.504   5.116 -0.2202  0.3797  2.1765
40149SOL     OW32170   2.699   8.457   4.672  0.1001  0.3596 -0.4756
40149SOL    HW132171   2.765   8.444   4.741 -2.6937 -1.5987  2.1072
40149SOL    HW232172   2.717   8.389   4.608  0.8488  0.1113 -0.0157
40150SOL     OW32173   6.482   0.385   2.418 -0.1479  0.1460 -0.0356
40150SOL    HW132174   6.415   0.344   2.473  0.4404  0.0196  0.6009
40150SOL    HW232175   6.535   0.437   2.479 -1.2831  2.4660 -0.8954
40151SOL     OW32176   6.505   5.590   9.275  0.5149 -0.1985  0.3047
40151SOL    HW132177   6.416   5.575   9.307  0.9904 -0.3333  1.6165
40151SOL    HW232178   6.541   5.502   9.263  1.1519 -0.1599  1.7915
40152SOL     OW32179   8.523  10.434   8.805  0.0569  0.0881 -0.0411
40152SOL    HW132180   8.584  10.422   8.878 -0.1383  2.0343  0.4970
40152SOL    HW232181   8.467  10.506   8.833 -1.1119 -0.2469 -1.4346
40153SOL     OW32182   5.004   5.641   8.676  0.3702 -0.3494 -0.4864
40153SOL    HW132183   5.077   5.606   8.727 -1.1802 -1.5897  1.0164
40153SOL    HW232184   5.015   5.736   8.680  1.2791 -0.4798  0.6535
40154SOL     OW32185   6.533   1.865   4.860 -0.1876 -0.1993 -0.0061
40154SOL    HW132186   6.530   1.835   4.951 -0.2071  1.3479  0.5186
40154SOL    HW232187   6.452   1.833   4.822 -0.3412 -0.5686  0.6047
40155SOL     OW32188  10.676   4.788   5.511 -0.3873  0.2889 -0.1668
40155SOL    HW132189  10.767   4.804   5.535  0.3810 -0.5752 -2.2645
40155SOL    HW232190  10.631   4.772   5.594  0.5458  4.2339  1.3270
40156SOL     OW32191   4.711   2.472  10.709 -0.5252  0.6193 -0.1927
40156SOL    HW132192   4.749   2.482  10.797  1.5010 -1.9514 -0.6381
40156SOL    HW232193   4.626   2.432  10.724  0.2166 -0.7400  0.6294
40157SOL     OW32194  11.592   0.816   7.388  0.1692 -0.0941 -0.0681
40157SOL    HW132195  11.652   0.889   7.403 -0.6641  0.8559 -1.1689
40157SOL    HW232196  11.542   0.841   7.310  0.2962 -2.1326 -0.8669
40158SOL     OW32197   8.959   9.616   3.796  0.6943  0.1410  0.6284
40158SOL    HW132198   9.000   9.697   3.764 -0.6548  0.2836 -0.8657
40158SOL    HW232199   8.947   9.631   3.890 -1.8389  2.8131  0.0397
40159SOL     OW32200   7.923  10.911   0.908 -0.3512 -0.2321  0.0503
40159SOL    HW132201   7.982  10.925   0.982 -0.2942 -0.9481  0.1501
40159SOL    HW232202   7.971  10.850   0.851 -0.0993  0.8446 -0.9285
40160SOL     OW32203   5.396   4.496   4.231 -0.6533  0.8570 -0.2400
40160SOL    HW132204   5.475   4.442   4.243 -0.7218  0.9636  0.7557
40160SOL    HW232205   5.331   4.436   4.195 -0.0603  0.8134 -1.2581
40161SOL     OW32206   3.602   3.739   8.930 -0.0832  0.0823  0.5126
40161SOL    HW132207   3.625   3.698   8.846 -0.5684  0.5019  0.1698
40161SOL    HW232208   3.513   3.709   8.947 -0.8507  1.7793 -0.2547
40162SOL     OW32209   3.377   5.744   4.762 -0.7173 -0.2685 -0.1648
40162SOL    HW132210   3.465   5.710   4.777 -0.4187  0.6097  0.1289
40162SOL    HW232211   3.321   5.667   4.765 -0.1323 -0.6647  1.1292
40163SOL     OW32212   9.106   5.997   9.217 -0.0932 -0.0938 -0.3528
40163SOL    HW132213   9.053   6.073   9.192 -1.5546 -1.0479 -0.3061
40163SOL    HW232214   9.196   6.025   9.205 -0.6321  1.0837 -2.0116
40164SOL     OW32215   3.018   0.960   3.942 -0.6226  0.6916 -0.0624
40164SOL    HW132216   2.957   0.889   3.923 -0.1423  0.0431  0.7968
40164SOL    HW232217   3.042   0.994   3.856 -1.2337  0.1467 -0.4590
40165SOL     OW32218   7.749   2.457   7.714  0.0688 -0.0399 -0.9668
40165SOL    HW132219   7.674   2.503   7.752  1.3844  0.9106  0.6018
40165SOL    HW232220   7.801   2.429   7.789  2.1637  0.8547 -1.9953
40166SOL     OW32221  11.671   4.276   9.996  0.2535 -0.0614  1.1044
40166SOL    HW132222  11.628   4.235   9.921 -0.0978  0.2588  1.1277
40166SOL    HW232223  11.613   4.258  10.070  1.5613 -2.1227  1.7254
40167SOL     OW32224   1.871   1.368  11.258  0.3156  0.5731  0.1078
40167SOL    HW132225   1.933   1.404  11.322 -0.5557  1.4515  0.4959
40167SOL    HW232226   1.899   1.406  11.175  1.5001 -0.6314 -0.0773
40168SOL     OW32227   8.270   1.553   3.388 -0.6906  0.7427 -0.1036
40168SOL    HW132228   8.315   1.470   3.406  0.9350  1.6876  0.4134
40168SOL    HW232229   8.193   1.551   3.444 -1.2326 -0.8333 -0.8343
40169SOL     OW32230   1.764   3.511   9.742  0.0441 -0.1461 -0.0249
40169SOL    HW132231   1.782   3.505   9.648 -0.8103  0.3423 -0.2305
40169SOL    HW232232   1.843   3.475   9.783  0.0722 -1.1856 -0.9369
40170SOL     OW32233   5.801   8.388   1.224  0.0243  0.0337  0.1377
40170SOL    HW132234   5.833   8.380   1.314 -3.2770 -1.1616  1.3947
40170SOL    HW232235   5.802   8.482   1.206 -0.8867  0.4941  2.1680
40171SOL     OW32236   6.353  11.864  11.225  0.0033  0.3993  0.1442
40171SOL    HW132237   6.353  11.783  11.276  1.9308  1.2259  1.5809
40171SOL    HW232238   6.434  11.860  11.174 -0.6912  0.7286 -1.0295
40172SOL     OW32239   7.878   6.968   7.241 -0.0450 -0.0376 -0.0520
40172SOL    HW132240   7.783   6.969   7.251 -0.1628  1.0557 -1.1738
40172SOL    HW232241   7.911   7.003   7.324 -0.5886 -0.6111  0.4229
40173SOL     OW32242   5.066   0.668  11.689  0.2591  0.1306 -0.4975
40173SOL    HW132243   5.127   0.677  11.616  0.7979  1.8866  0.1238
40173SOL    HW232244   5.037   0.758  11.707 -0.9038 -0.4302  0.5788
40174SOL     OW32245   3.715   3.250   4.795 -0.3906  0.3481  0.6324
40174SOL    HW132246   3.773   3.193   4.845  0.9637 -1.1048 -2.3574
40174SOL    HW232247   3.767   3.278   4.720 -2.4006  2.0851 -0.2323
40175SOL     OW32248   3.923   3.767   3.929 -0.5353  0.1429 -0.6183
40175SOL    HW132249   3.855   3.787   3.864 -1.5076  0.9240  0.5813
40175SOL    HW232250   3.942   3.851   3.970  2.0593  0.1736 -1.6951
40176SOL     OW32251   4.393  11.665   1.296  0.0736 -0.2625 -0.2907
40176SOL    HW132252   4.379  11.750   1.256 -0.4931 -0.4514 -0.4921
40176SOL    HW232253   4.335  11.664   1.372  2.9244  1.1134  2.1202
40177SOL     OW32254   5.834   7.741  10.455  0.5133 -0.2805 -0.2250
40177SOL    HW132255   5.910   7.707  10.503  1.6672  2.5482  0.1394
40177SOL    HW232256   5.865   7.751  10.365  0.8007  1.3299  0.0190
40178SOL     OW32257   0.039   5.882   1.351  0.0210  0.1781  0.0595
40178SOL    HW132258   0.023   5.815   1.417  0.0390 -1.5452 -1.5872
40178SOL    HW232259   0.135   5.891   1.349 -0.0646  2.0120  1.8866
40179SOL     OW32260   8.206   1.908   3.240  0.3523 -0.3798  0.2897
40179SOL    HW132261   8.156   1.887   3.162 -0.0048 -0.6216  0.5769
40179SOL    HW232262   8.150   1.879   3.313  1.1150 -1.1172  0.5981
40180SOL     OW32263   6.774   6.136   6.752  0.0041 -0.2148  0.4783
40180SOL    HW132264   6.696   6.120   6.698  1.1914 -0.6199 -1.2105
40180SOL    HW232265   6.745   6.198   6.819 -1.5265  0.4064 -0.7067
40181SOL     OW32266  10.913   0.383  11.900  0.0337  0.2465 -0.2091
40181SOL    HW132267  10.876   0.471  11.899 -0.2394  0.1967 -2.7782
40181SOL    HW232268  10.998   0.392  11.857  1.0183 -0.4235  1.4940
40182SOL     OW32269   2.096   4.591   3.436 -0.1173 -0.3130 -0.7636
40182SOL    HW132270   2.030   4.661   3.433  0.9097  0.6656 -2.5771
40182SOL    HW232271   2.050   4.513   3.405 -0.6337  0.1785 -1.2576
40183SOL     OW32272   8.586   7.541   7.808  0.2191 -0.1875 -0.0710
40183SOL    HW132273   8.654   7.605   7.830  0.7288 -0.6384 -0.3107
40183SOL    HW232274   8.610   7.463   7.860 -0.8271  0.0591  0.8094
40184SOL     OW32275   5.619   3.348   6.008 -0.6138 -0.1860  0.6806
40184SOL    HW132276   5.654   3.342   6.097  0.5084 -0.2795  0.2514
40184SOL    HW232277   5.524   3.358   6.020 -0.4411  0.1744  1.8910
40185SOL     OW32278   7.095   0.225   0.437 -0.2700 -0.5049 -0.0047
40185SOL    HW132279   7.033   0.271   0.380 -0.6768 -0.2555  0.6249
40185SOL    HW232280   7.057   0.139   0.449 -0.9343 -0.0875  1.0389
40186SOL     OW32281   9.778   8.702   5.579 -0.3063 -0.0108  0.1412
40186SOL    HW132282   9.767   8.712   5.673 -1.5179  1.8309 -0.1368
40186SOL    HW232283   9.820   8.616   5.568 -1.0033 -0.6824  2.2795
40187SOL     OW32284   2.688  11.297   2.138 -0.7231 -0.2888  0.0778
40187SOL    HW132285   2.710  11.251   2.219 -1.1021  0.8935  0.8729
40187SOL    HW232286   2.767  11.290   2.084  0.6901  1.5373  1.7722
40188SOL     OW32287   5.850   1.933   6.345  0.0169 -0.3023 -0.1819
40188SOL    HW132288   5.911   1.952   6.416 -0.8822  0.4714  0.4047
40188SOL    HW232289   5.802   2.015   6.331  2.1383  0.5467 -3.7112
40189SOL     OW32290   8.675   4.188   0.725 -0.0396  0.1108 -0.5744
40189SOL    HW132291   8.699   4.098   0.745  0.1528  0.5474  1.3353
40189SOL    HW232292   8.592   4.182   0.678 -1.4110 -0.9916  1.8347
40190SOL     OW32293   4.146   1.862   5.406 -0.1296  0.5315  0.8933
40190SOL    HW132294   4.177   1.791   5.350  0.6283  1.2447  0.3626
40190SOL    HW232295   4.160   1.831   5.495  1.2664  0.4347  0.6755
40191SOL     OW32296   4.488   6.571   1.258  0.5436  0.3496 -0.5935
40191SOL    HW132297   4.415   6.578   1.320 -1.8205 -0.0966 -3.1048
40191SOL    HW232298   4.488   6.655   1.211  1.0543  0.0047 -1.2335
40192SOL     OW32299  10.206   4.315   9.445 -0.4265 -0.1488 -0.3096
40192SOL    HW132300  10.174   4.296   9.357 -1.5638  1.8386 -0.3630
40192SOL    HW232301  10.128   4.317   9.500 -0.0924  1.6462  0.1549
40193SOL     OW32302   9.371   3.172   4.833 -0.3656  0.1172  0.5357
40193SOL    HW132303   9.301   3.219   4.878  1.1076  2.5900  0.4083
40193SOL    HW232304   9.353   3.187   4.740  0.2288  0.6095  0.4998
40194SOL     OW32305   3.867   0.988   6.306 -0.5264  0.1971 -0.3892
40194SOL    HW132306   3.937   0.985   6.241 -0.1416  3.2482 -0.2458
40194SOL    HW232307   3.904   1.035   6.380 -2.2791  0.6031  0.2817
40195SOL     OW32308   5.801   8.199   5.076 -0.3752 -0.2341  0.0999
40195SOL    HW132309   5.808   8.231   5.166  0.0888 -0.0516  0.0012
40195SOL    HW232310   5.860   8.124   5.072  0.7074  0.6030 -0.4192
40196SOL     OW32311   6.023   0.056   2.558  0.1771  0.6166  0.0210
40196SOL    HW132312   6.079   0.110   2.502  1.2205 -0.7755 -0.3422
40196SOL    HW232313   6.044  -0.034   2.533 -0.3679 -0.0072  1.6842
40197SOL     OW32314   7.798   5.477   6.658 -0.0464  0.1085 -0.5126
40197SOL    HW132315   7.853   5.554   6.674  1.3547 -1.1224  0.8861
40197SOL    HW232316   7.823   5.448   6.570 -0.9471  1.4805 -1.2646
40198SOL     OW32317   3.256  11.642   7.151 -0.3723  0.0227  0.2012
40198SOL    HW132318   3.204  11.722   7.136 -0.7834 -0.6750 -2.5991
40198SOL    HW232319   3.327  11.647   7.088  1.0533 -0.7029  1.6761
40199SOL     OW32320   1.998   6.593   5.215  0.1204 -0.2484  0.5759
40199SOL    HW132321   1.946   6.673   5.212  0.7282  0.1168 -0.6420
40199SOL    HW232322   2.082   6.617   5.177 -0.2217 -1.8411 -1.3373
40200SOL     OW32323  11.833   8.394  10.041 -0.0798 -0.0870  0.2045
40200SOL    HW132324  11.783   8.426   9.966 -1.4050  0.1708  1.1482
40200SOL    HW232325  11.894   8.465  10.060  1.3483 -0.7811 -1.5203
40201SOL     OW32326   4.212   9.261   7.627  0.2526  0.3314  0.3052
40201SOL    HW132327   4.303   9.233   7.628  0.0890 -0.4443  3.0814
40201SOL    HW232328   4.163   9.180   7.613 -0.1345  1.1330 -4.8744
40202SOL     OW32329   4.083   5.566  10.281 -0.6796 -0.2400 -0.0206
40202SOL    HW132330   4.118   5.493  10.229  0.7048 -0.3502  1.0305
40202SOL    HW232331   3.997   5.536  10.309 -0.6665 -0.9288 -0.6878
40203SOL     OW32332  11.555   0.285   4.851 -0.2516 -0.1195  0.1205
40203SOL    HW132333  11.599   0.243   4.924 -0.1424 -0.9528 -0.4161
40203SOL    HW232334  11.522   0.213   4.797 -2.3780  0.4543  0.5527
40204SOL     OW32335   1.275   2.679   2.688  0.1805 -0.3174 -1.3652
40204SOL    HW132336   1.302   2.761   2.730 -0.1864 -0.3787 -1.0029
40204SOL    HW232337   1.356   2.639   2.658  0.4063 -0.0634 -1.0913
40205SOL     OW32338   2.685  10.802   7.351 -0.1621  0.4074  0.6056
40205SOL    HW132339   2.698  10.734   7.286  0.6734  0.2230  0.9538
40205SOL    HW232340   2.724  10.881   7.312 -0.2683  0.4605  0.6056
40206SOL     OW32341   3.799  10.408   0.994  0.3050  0.2085  0.2973
40206SOL    HW132342   3.810  10.359   0.913  0.2667 -0.1087  0.4819
40206SOL    HW232343   3.866  10.476   0.991  0.1381  0.3523 -0.1171
40207SOL     OW32344   8.538   2.061   5.429  0.0143 -0.3771  0.2679
40207SOL    HW132345   8.631   2.064   5.406 -0.2523  0.4661 -0.7538
40207SOL    HW232346   8.525   1.972   5.464  1.2117 -0.4729  0.5062
40208SOL     OW32347   4.255   9.554   3.183 -0.3799  0.2377 -0.1585
40208SOL    HW132348   4.344   9.589   3.178 -0.9496  1.8471  0.3660
40208SOL    HW232349   4.213   9.603   3.253 -1.2571 -1.5416  0.6411
40209SOL     OW32350   1.234   1.309   7.134  0.4353  0.2526 -0.4444
40209SOL    HW132351   1.266   1.258   7.209  0.2037 -0.1059 -0.5846
40209SOL    HW232352   1.266   1.397   7.149 -0.4751  0.4258  0.6238
40210SOL     OW32353   8.619   9.877   1.485  0.2027  0.0867 -0.1147
40210SOL    HW132354   8.678   9.951   1.469 -0.9967  0.8089 -1.3893
40210SOL    HW232355   8.677   9.802   1.499  1.4209  0.9592 -0.3648
40211SOL     OW32356   4.105   1.696   9.308 -0.1083 -0.0099 -0.2825
40211SOL    HW132357   4.148   1.611   9.293  1.1831  0.2734  1.4690
40211SOL    HW232358   4.166   1.743   9.365 -2.1564  0.9354  1.2194
40212SOL     OW32359   7.129   2.727   5.993 -0.2069 -0.2824  0.0849
40212SOL    HW132360   7.119   2.681   6.077 -0.7489 -0.7952 -0.2497
40212SOL    HW232361   7.195   2.794   6.010 -0.0984 -0.5699  0.8447
40213SOL     OW32362  11.505   1.398   9.106 -0.3503 -0.2914 -0.0257
40213SOL    HW132363  11.575   1.380   9.168 -1.4238  0.7601  1.5790
40213SOL    HW232364  11.530   1.481   9.065  1.1030 -1.6992 -2.2207
40214SOL     OW32365   8.421   7.083  10.976  0.3907 -0.3076 -0.1752
40214SOL    HW132366   8.481   7.153  10.998 -1.1279  0.9581  0.1047
40214SOL    HW232367   8.470   7.028  10.915  1.8083  0.6694  0.0369
40215SOL     OW32368   3.141   5.605   1.947 -0.0614 -0.2321  0.2858
40215SOL    HW132369   3.236   5.596   1.961  0.3451 -0.5739 -2.1406
40215SOL    HW232370   3.133   5.681   1.890 -1.2317 -0.4162  0.1902
40216SOL     OW32371   5.886   3.695   4.923  0.9978  0.1926 -0.6487
40216SOL    HW132372   5.946   3.765   4.896  2.5308 -0.0486  1.8296
40216SOL    HW232373   5.825   3.738   4.983  0.7866 -0.2511 -0.5431
40217SOL     OW32374   1.288   9.185   4.518  0.2625 -0.4395  0.4710
40217SOL    HW132375   1.249   9.253   4.572  1.1765 -0.6805  1.4729
40217SOL    HW232376   1.350   9.141   4.577  0.1688 -1.6998 -0.3398
40218SOL     OW32377  11.314   0.482   6.425  0.9460  0.1414 -0.3555
40218SOL    HW132378  11.245   0.548   6.435 -0.3456 -1.1492 -0.3803
40218SOL    HW232379  11.389   0.531   6.392 -0.1454  1.5112 -0.9281
40219SOL     OW32380   0.865   4.153   3.366  0.2489 -0.2367 -0.7362
40219SOL    HW132381   0.832   4.086   3.306 -2.8248  0.8029 -0.4202
40219SOL    HW232382   0.916   4.212   3.312 -0.6730 -0.4933 -1.9222
40220SOL     OW32383   9.106   1.961  10.037  0.1171  0.2663 -0.0465
40220SOL    HW132384   9.065   1.899  10.097 -1.0509  1.5741  0.5714
40220SOL    HW232385   9.157   1.907   9.977 -1.7097 -1.3810 -0.2179
40221SOL     OW32386   8.614   8.480  11.728 -0.0586  0.3503 -0.2567
40221SOL    HW132387   8.552   8.413  11.699  0.7971 -0.6153  0.0702
40221SOL    HW232388   8.573   8.563  11.704 -1.5625 -0.2470  0.1246
40222SOL     OW32389   3.234   6.424   4.823 -0.6382 -0.1715  0.3626
40222SOL    HW132390   3.150   6.409   4.779 -0.0433 -4.2865  0.1852
40222SOL    HW232391   3.218   6.399   4.914  0.1236  0.0545  0.5629
40223SOL     OW32392   7.402   7.044   4.415  0.4379 -0.1310  0.0277
40223SOL    HW132393   7.411   6.956   4.451 -1.3428 -0.0072  0.8664
40223SOL    HW232394   7.311   7.050   4.386  1.0250  0.7949 -1.8329
40224SOL     OW32395   3.606   3.841   6.971  0.1151 -0.0704 -0.8260
40224SOL    HW132396   3.630   3.886   7.052  0.5056 -0.5258 -0.6823
40224SOL    HW232397   3.683   3.789   6.949  0.4622  0.8993 -2.1061
40225SOL     OW32398   4.179   7.599   4.699  0.6302  0.2639 -0.0289
40225SOL    HW132399   4.140   7.614   4.613  0.9363  1.7585  0.0731
40225SOL    HW232400   4.131   7.657   4.758  1.4275  0.3769  0.5312
40226SOL     OW32401   5.229   6.545   7.272 -0.7801  0.3571 -0.8037
40226SOL    HW132402   5.187   6.472   7.226 -0.4415 -0.0323 -0.5118
40226SOL    HW232403   5.310   6.559   7.223  0.0541 -0.6970  0.2022
40227SOL     OW32404   2.479   9.666   1.427  0.1646  0.0412 -0.6012
40227SOL    HW132405   2.401   9.669   1.483 -0.2939  0.7308 -1.2614
40227SOL    HW232406   2.539   9.729   1.465 -0.8748  1.9323 -1.8930
40228SOL     OW32407   6.109   4.438   4.647  0.2892 -0.0843 -0.1572
40228SOL    HW132408   6.107   4.449   4.552 -0.2522  0.9700 -0.0438
40228SOL    HW232409   6.191   4.480   4.674 -0.4179  1.2827 -0.0073
40229SOL     OW32410   4.493   7.276   9.850  0.4510  0.1732  0.1655
40229SOL    HW132411   4.458   7.210   9.791 -0.2589  1.0687 -0.4508
40229SOL    HW232412   4.511   7.229   9.932 -0.4003 -0.6970 -0.1306
40230SOL     OW32413   6.909   7.605  11.152 -0.0915  0.2866 -0.1239
40230SOL    HW132414   6.938   7.666  11.220 -2.4579  0.4705  0.8049
40230SOL    HW232415   6.985   7.596  11.094  2.0049  0.1988  2.4534
40231SOL     OW32416  11.952   3.185   8.924 -0.4747  0.5490 -0.6850
40231SOL    HW132417  11.867   3.186   8.968  0.1322 -1.1252  0.6598
40231SOL    HW232418  11.978   3.093   8.926  1.3039  1.0067 -1.2297
40232SOL     OW32419  10.529   2.442  10.071 -0.7221  0.6806 -0.0432
40232SOL    HW132420  10.479   2.452   9.989  0.4179  0.0737 -0.8397
40232SOL    HW232421  10.520   2.527  10.115 -0.6276  1.3298 -1.2321
40233SOL     OW32422   8.591   8.296  11.062 -0.0712  0.1059  0.1151
40233SOL    HW132423   8.589   8.238  10.986  1.5830  0.9614 -0.6390
40233SOL    HW232424   8.516   8.269  11.115  0.0319 -2.0107 -0.7208
40234SOL     OW32425   8.589   7.784   9.140  0.5487  0.0411 -0.2484
40234SOL    HW132426   8.639   7.863   9.123  1.4944 -0.1937  1.3012
40234SOL    HW232427   8.639   7.715   9.096  0.1171  0.1799 -0.9761
40235SOL     OW32428   8.611   2.503   8.126  0.3467  0.8777 -0.0276
40235SOL    HW132429   8.657   2.478   8.046  1.6573 -1.5479  1.3655
40235SOL    HW232430   8.561   2.425   8.151 -0.5864  1.8100  1.1721
40236SOL     OW32431   3.325   1.631  10.169  0.5469  0.0964  0.2183
40236SOL    HW132432   3.362   1.687  10.101  0.2148 -0.8225 -0.7434
40236SOL    HW232433   3.394   1.624  10.235  1.6652 -0.6303 -0.9863
40237SOL     OW32434   6.167  11.896  10.490  0.6465 -0.3878 -0.6860
40237SOL    HW132435   6.174  11.892  10.586 -0.1712 -1.6694 -0.6578
40237SOL    HW232436   6.140  11.986  10.472  0.6855 -0.1658  0.2969
40238SOL     OW32437   6.701   6.186   0.797 -0.0703 -0.0985  0.2862
40238SOL    HW132438   6.711   6.161   0.889 -0.4392  1.5747  0.8194
40238SOL    HW232439   6.631   6.252   0.798 -1.1032 -1.1068 -1.4053
40239SOL     OW32440   1.719   7.142   7.170  0.4379  0.4804  0.3550
40239SOL    HW132441   1.663   7.074   7.210  1.7234 -0.0628  1.3154
40239SOL    HW232442   1.804   7.099   7.159  0.3370  0.8356 -2.4000
40240SOL     OW32443   0.948   9.593   0.248 -0.1667  0.0960  0.0727
40240SOL    HW132444   0.921   9.618   0.159 -0.9932 -1.3183 -0.1070
40240SOL    HW232445   0.873   9.616   0.302  0.3595  1.0082  0.4290
40241SOL     OW32446   0.707   4.359  10.605  0.0327  0.1854 -0.1270
40241SOL    HW132447   0.669   4.423  10.665  1.2767  0.2027  0.6962
40241SOL    HW232448   0.661   4.278  10.625 -1.1527  0.6811 -0.7690
40242SOL     OW32449   7.864   7.155  11.828  0.0095  0.0508 -0.5524
40242SOL    HW132450   7.850   7.185  11.738 -0.4994 -0.0915 -0.5187
40242SOL    HW232451   7.786   7.106  11.850  0.0659  0.2107  0.0246
40243SOL     OW32452   4.009   0.861   5.827 -0.3225 -0.2923  0.2517
40243SOL    HW132453   3.917   0.872   5.853 -0.1301  1.0807  0.4206
40243SOL    HW232454   4.005   0.810   5.746 -1.1943 -0.7339  0.5593
40244SOL     OW32455   8.286  11.957   1.703 -0.3261 -0.5700  0.6532
40244SOL    HW132456   8.306  11.901   1.627 -0.6229 -1.9713  1.5766
40244SOL    HW232457   8.193  11.945   1.718 -0.8271  1.6468 -0.2340
40245SOL     OW32458   2.085  10.704   5.042  0.0782 -0.4946 -0.0703
40245SOL    HW132459   2.096  10.715   5.136 -3.1371  0.6474  0.2654
40245SOL    HW232460   2.028  10.627   5.033  0.4956 -0.7078 -1.1200
40246SOL     OW32461   7.906   0.144   1.022  0.0734 -0.1322 -0.4537
40246SOL    HW132462   7.877   0.159   0.932  0.7036  1.2667 -0.4572
40246SOL    HW232463   7.996   0.176   1.023 -0.3897  1.2663  1.0112
40247SOL     OW32464   3.189   9.911   5.743  0.1947 -0.4807 -0.2257
40247SOL    HW132465   3.237   9.983   5.784 -0.4321  0.0754 -0.4541
40247SOL    HW232466   3.153   9.948   5.663 -0.8910 -0.7922  0.0964
40248SOL     OW32467   0.928   3.970   6.774 -0.3773  0.5610  0.1130
40248SOL    HW132468   1.020   3.993   6.788  0.2458 -1.5515 -0.2113
40248SOL    HW232469   0.929   3.908   6.702 -1.8333 -0.9345  1.2892
40249SOL     OW32470   6.779   5.808  11.015 -0.0479 -0.0938  0.3033
40249SOL    HW132471   6.844   5.866  10.977 -1.6573  1.1076 -0.7751
40249SOL    HW232472   6.760   5.847  11.101 -1.9962  1.8420 -0.8838
40250SOL     OW32473   8.281   7.228   8.084  0.0462 -0.2603  0.6397
40250SOL    HW132474   8.247   7.231   8.173 -0.2372  0.7846  0.5078
40250SOL    HW232475   8.204   7.238   8.028  0.0804 -1.9956  0.2286
40251SOL     OW32476   5.931   3.383   8.329 -0.1336  0.7087 -0.5382
40251SOL    HW132477   5.978   3.464   8.350  0.5426 -0.0317  0.9996
40251SOL    HW232478   5.855   3.384   8.387 -0.7387  0.7572 -1.3155
40252SOL     OW32479   9.726   3.607   0.736 -0.1651  0.0154 -0.0137
40252SOL    HW132480   9.817   3.634   0.746 -0.0545 -0.3420 -0.0435
40252SOL    HW232481   9.698   3.581   0.824 -0.1669 -0.0876 -0.0437
40253SOL     OW32482  11.319   1.142   3.906 -0.3754  0.2045 -0.4191
40253SOL    HW132483  11.263   1.117   3.981 -0.3165  0.1952 -0.3785
40253SOL    HW232484  11.312   1.068   3.846  2.4142 -1.4746  1.1334
40254SOL     OW32485   7.784   2.682   2.905 -0.6281  0.1048 -0.3105
40254SOL    HW132486   7.745   2.686   2.818 -2.2801 -1.3856  0.3017
40254SOL    HW232487   7.821   2.593   2.911  0.4482  0.5577  0.1449
40255SOL     OW32488   8.703  11.020   0.011 -0.2220  0.0364 -0.3386
40255SOL    HW132489   8.687  11.092  -0.051 -0.6939 -1.5324 -2.1340
40255SOL    HW232490   8.792  10.991  -0.008 -0.3065 -0.3367 -0.1741
40256SOL     OW32491   8.627   9.259   7.776 -0.0902  0.2162  0.3612
40256SOL    HW132492   8.577   9.311   7.713 -0.0349  1.4436  1.2841
40256SOL    HW232493   8.702   9.314   7.798 -0.0192 -0.2569  1.3502
40257SOL     OW32494  10.287   0.051  10.439 -0.1031  0.2529  0.1144
40257SOL    HW132495  10.314  -0.023  10.384  0.0738 -1.6999  2.6723
40257SOL    HW232496  10.201   0.026  10.473 -0.5675  1.7702  0.1248
40258SOL     OW32497   3.383   4.593   7.148 -0.4038 -0.5275 -0.4007
40258SOL    HW132498   3.451   4.589   7.081  1.2939 -0.4154  1.2441
40258SOL    HW232499   3.422   4.645   7.219 -2.0825 -0.7501  0.7438
40259SOL     OW32500   1.730   7.357   7.026  0.6356  0.1252  0.2173
40259SOL    HW132501   1.795   7.321   6.965 -0.1266 -2.6685  0.8963
40259SOL    HW232502   1.711   7.284   7.086 -2.1885  1.2275  0.8126
40260SOL     OW32503   7.547   8.197   4.807  0.1300 -0.3225  0.6364
40260SOL    HW132504   7.550   8.111   4.848 -1.7264 -0.9229 -0.3734
40260SOL    HW232505   7.639   8.222   4.795  0.6886 -1.9476  1.3481
40261SOL     OW32506   3.619   3.929   8.218 -0.1415  0.3584  0.4960
40261SOL    HW132507   3.590   3.838   8.213 -0.4986  0.4530  0.7489
40261SOL    HW232508   3.678   3.932   8.294  0.1318  0.2724  0.2892
40262SOL     OW32509  10.207   3.053   2.452 -0.1675 -0.5629  0.5597
40262SOL    HW132510  10.210   2.972   2.400 -0.5752  0.6885 -1.5087
40262SOL    HW232511  10.129   3.099   2.420  0.3033  0.8680  1.3960
40263SOL     OW32512   7.513   5.538  11.317  0.2462  0.0720 -0.5652
40263SOL    HW132513   7.487   5.541  11.409  1.1111 -0.7124 -0.2730
40263SOL    HW232514   7.437   5.570  11.269 -0.3303  0.1888  0.4045
40264SOL     OW32515   1.369   0.939  10.394 -0.5216 -0.2607  0.7741
40264SOL    HW132516   1.379   0.922  10.488  2.0896  0.5434  0.7098
40264SOL    HW232517   1.290   0.993  10.388  0.0002  0.7972  2.6578
40265SOL     OW32518   5.385   1.658   4.701 -0.1345 -0.2488 -0.1276
40265SOL    HW132519   5.474   1.628   4.681  0.4711  1.0545  0.4572
40265SOL    HW232520   5.331   1.626   4.629  0.5146 -2.3983  0.2870
40266SOL     OW32521   2.842  11.815  11.441 -0.2205  0.2139  0.1190
40266SOL    HW132522   2.753  11.811  11.476 -0.7739 -0.0769 -1.2816
40266SOL    HW232523   2.871  11.905  11.461 -0.9487  0.4209  0.2743
40267SOL     OW32524   3.525   6.955   6.535 -0.3930 -0.9291 -0.1119
40267SOL    HW132525   3.532   6.864   6.562  1.5003 -0.7243  0.2783
40267SOL    HW232526   3.552   6.955   6.443  0.2248 -0.7050  0.0610
40268SOL     OW32527  11.582   3.652   7.968 -0.9115 -0.1058  0.8499
40268SOL    HW132528  11.642   3.689   8.033 -0.8800  0.2681  0.6146
40268SOL    HW232529  11.557   3.727   7.914 -1.8670 -0.1992  1.1562
40269SOL     OW32530   0.482  11.106   1.986  0.0078  0.3828  0.0457
40269SOL    HW132531   0.412  11.073   2.042  0.1468 -0.1778 -0.1104
40269SOL    HW232532   0.470  11.060   1.903  1.1571 -0.4586  0.3316
40270SOL     OW32533   1.004   2.340   0.021  0.0069  0.5056  0.1672
40270SOL    HW132534   1.053   2.421   0.004  0.0627  0.5640  0.5936
40270SOL    HW232535   0.933   2.342  -0.043  0.3584  0.5913 -0.2323
40271SOL     OW32536   0.409   5.155   8.203 -0.4580 -0.1012 -0.3101
40271SOL    HW132537   0.376   5.235   8.244 -2.4076 -0.7257 -0.5536
40271SOL    HW232538   0.333   5.096   8.200  0.3007 -1.0819 -2.3251
40272SOL     OW32539  11.109  10.657   8.306 -0.2326  0.0131  0.3987
40272SOL    HW132540  11.066  10.573   8.290 -0.5579  0.4596 -1.2827
40272SOL    HW232541  11.039  10.721   8.304 -0.1007  0.2715  2.5536
40273SOL     OW32542   7.909  11.583  10.634  0.5559  0.3299 -0.6262
40273SOL    HW132543   7.877  11.657  10.685  0.1383 -0.3082  0.0755
40273SOL    HW232544   7.833  11.524  10.628  0.8103  0.0650 -1.3722
40274SOL     OW32545   1.543   5.581   9.692 -0.1850  0.1950  0.1435
40274SOL    HW132546   1.569   5.490   9.704  1.0459  0.5784  0.5255
40274SOL    HW232547   1.583   5.628   9.765  0.2021  1.2191 -0.6960
40275SOL     OW32548   9.614   6.352   6.997 -0.1284  1.0245  0.0246
40275SOL    HW132549   9.563   6.292   7.051  1.3262 -0.6355 -0.3570
40275SOL    HW232550   9.553   6.381   6.929 -1.1274  0.7380  0.7665
40276SOL     OW32551   0.438   4.076   7.484  0.0424 -0.3059 -0.1839
40276SOL    HW132552   0.520   4.122   7.469 -0.8758  1.1305 -1.0054
40276SOL    HW232553   0.390   4.085   7.402 -0.4329 -2.2385 -0.1707
40277SOL     OW32554   9.692  10.569   4.676  0.2001  0.0478  0.5352
40277SOL    HW132555   9.704  10.582   4.770  0.6509  1.6527  0.2939
40277SOL    HW232556   9.601  10.592   4.660 -0.3288 -1.7531  0.7862
40278SOL     OW32557   4.193   4.170   8.414  0.5970  0.2600 -0.2204
40278SOL    HW132558   4.176   4.098   8.475  1.2056 -0.2377 -0.6263
40278SOL    HW232559   4.116   4.173   8.358  0.0810  0.6454  0.4831
40279SOL     OW32560   3.104  11.239   3.190  0.1474  0.1277 -0.2919
40279SOL    HW132561   3.131  11.153   3.223  2.4640  0.4800 -1.0420
40279SOL    HW232562   3.187  11.282   3.166 -0.9826  2.3646 -0.4421
40280SOL     OW32563   3.086  11.937   3.701  0.1700 -0.4297  0.2320
40280SOL    HW132564   3.050  11.854   3.670 -0.3336 -0.0258 -0.2878
40280SOL    HW232565   3.078  11.932   3.797 -0.3827 -0.7475  0.1770
40281SOL     OW32566   6.918   8.578   7.205  0.4151 -0.0178 -0.2133
40281SOL    HW132567   6.973   8.500   7.195 -0.4863 -0.9616  1.6707
40281SOL    HW232568   6.846   8.565   7.143 -0.2545 -1.2176  0.7618
40282SOL     OW32569   5.947   1.999   2.308  0.1909  0.5324  0.3936
40282SOL    HW132570   6.008   2.069   2.283 -1.2122  1.5214 -0.4601
40282SOL    HW232571   6.000   1.936   2.356  1.2672  2.8286  2.4350
40283SOL     OW32572  11.739   3.014   5.364 -0.1949  0.1284 -0.2765
40283SOL    HW132573  11.752   2.960   5.286  2.7631 -2.1370  1.5588
40283SOL    HW232574  11.742   2.952   5.437 -1.8591  2.2637  1.7497
40284SOL     OW32575  10.231   7.112  10.353 -0.0374 -0.1074  0.5139
40284SOL    HW132576  10.217   7.206  10.350  0.5560  0.0035  0.8843
40284SOL    HW232577  10.180   7.077  10.280 -0.9206  0.4087  0.8736
40285SOL     OW32578   5.346   7.359   8.167  0.4070  0.3533  0.7500
40285SOL    HW132579   5.319   7.449   8.151 -1.4448 -0.1774  0.6760
40285SOL    HW232580   5.264   7.310   8.178  1.3673 -1.0932  2.0903
40286SOL     OW32581  10.963   7.008  10.855 -0.1572 -0.0061  0.0237
40286SOL    HW132582  10.868   7.012  10.842 -0.4064  2.4858  1.9022
40286SOL    HW232583  10.995   7.092  10.822  1.4497 -0.8516 -0.6748
40287SOL     OW32584   3.431   4.363   5.727 -0.0227 -0.2731 -0.5346
40287SOL    HW132585   3.374   4.410   5.789 -3.3813 -0.1657 -3.4070
40287SOL    HW232586   3.440   4.276   5.765 -0.5619  0.2539  0.8960
40288SOL     OW32587   1.901   3.382   8.789  0.3857 -0.4230 -0.0724
40288SOL    HW132588   1.946   3.298   8.790 -0.8823 -1.1287  0.2684
40288SOL    HW232589   1.809   3.360   8.804 -0.1913  0.8972 -1.3744
40289SOL     OW32590   2.987   3.459   7.737  0.3522  0.4191  0.2394
40289SOL    HW132591   3.020   3.426   7.653 -0.3891 -0.5767  0.3265
40289SOL    HW232592   3.057   3.439   7.799  0.9966  1.3450 -0.1429
40290SOL     OW32593   5.590   3.522   2.299 -0.5831 -0.6326  0.0311
40290SOL    HW132594   5.659   3.466   2.336 -0.0241  0.8246  1.2992
40290SOL    HW232595   5.600   3.513   2.205  1.1546 -0.6878  0.1891
40291SOL     OW32596   7.234   4.936   7.824  0.2844 -0.4478  0.0763
40291SOL    HW132597   7.143   4.923   7.796  0.2249 -1.0179  0.5309
40291SOL    HW232598   7.255   4.859   7.876  1.6335 -1.2329 -1.5383
40292SOL     OW32599  11.133   1.811   3.748 -0.1520  0.3511 -0.0600
40292SOL    HW132600  11.186   1.888   3.725  1.1107 -0.5242 -0.1629
40292SOL    HW232601  11.196   1.740   3.757 -1.1438 -0.3790  1.4766
40293SOL     OW32602   8.709   2.241   9.666 -0.1061 -0.1324 -0.0373
40293SOL    HW132603   8.797   2.249   9.704 -0.4075  1.2141  0.4252
40293SOL    HW232604   8.654   2.211   9.738 -0.1942 -0.0926 -0.0878
40294SOL     OW32605   7.522  11.623   1.920 -1.0435  0.3897  0.6990
40294SOL    HW132606   7.610  11.646   1.949  0.0949 -0.1067 -2.0002
40294SOL    HW232607   7.503  11.540   1.963  0.6324 -0.4311 -0.0385
40295SOL     OW32608   1.888   0.973   1.281 -0.1373 -0.0503  0.2186
40295SOL    HW132609   1.935   0.974   1.364 -2.4434 -1.2111  1.6169
40295SOL    HW232610   1.837   0.893   1.282 -0.2105 -0.1437 -2.3938
40296SOL     OW32611   9.935   4.641   6.874 -0.2106 -0.9994  1.0615
40296SOL    HW132612   9.925   4.702   6.947  1.0010 -2.7244  2.7432
40296SOL    HW232613  10.025   4.653   6.844 -0.8134 -0.0076 -0.5057
40297SOL     OW32614   1.729   7.150   6.676 -0.0471  0.0418 -0.1753
40297SOL    HW132615   1.801   7.210   6.694 -0.7294  0.5065  1.1122
40297SOL    HW232616   1.683   7.190   6.602 -0.1397  0.7950  0.2788
40298SOL     OW32617   0.029   1.758   2.094 -0.1798 -0.4193  0.2782
40298SOL    HW132618  -0.051   1.779   2.045 -0.2810 -0.3727  0.4635
40298SOL    HW232619   0.004   1.768   2.185  0.5434  1.3939  0.3119
40299SOL     OW32620  10.788   9.403   8.469 -0.0554 -0.7194  0.0949
40299SOL    HW132621  10.854   9.339   8.494 -1.5238 -1.9383  1.0360
40299SOL    HW232622  10.798   9.411   8.374  0.9933 -1.3709  0.1329
40300SOL     OW32623  10.473   3.523   3.555  0.4742 -0.5487  0.0478
40300SOL    HW132624  10.557   3.480   3.540 -0.0726 -1.7798  0.3353
40300SOL    HW232625  10.431   3.523   3.469  1.2019  1.1114 -0.3467
40301SOL     OW32626  10.845  10.684   0.377 -0.3586  0.2575  0.0112
40301SOL    HW132627  10.835  10.630   0.298  0.0409  1.0594 -0.6049
40301SOL    HW232628  10.770  10.662   0.431  1.2907 -3.2343  1.2100
40302SOL     OW32629   0.246   0.282   9.300  0.1998 -0.9723  0.1298
40302SOL    HW132630   0.162   0.327   9.287 -0.0735 -0.8102  2.2511
40302SOL    HW232631   0.269   0.250   9.212 -1.1699  0.5255 -0.8291
40303SOL     OW32632   7.426   9.760   8.881  0.3485  0.2816 -0.3879
40303SOL    HW132633   7.375   9.683   8.857 -0.8848  1.1110 -0.5184
40303SOL    HW232634   7.439   9.753   8.975 -0.6726  0.4341 -0.2276
40304SOL     OW32635   9.034   7.004   3.001 -0.5671 -0.3417 -0.3461
40304SOL    HW132636   9.034   6.915   3.036 -2.0900 -0.0818  0.3717
40304SOL    HW232637   9.108   7.005   2.940  0.1276 -1.7751  0.4204
40305SOL     OW32638   5.177   0.405   9.871  0.0994  0.4185  0.7458
40305SOL    HW132639   5.202   0.440   9.785 -0.8620  0.4551  0.4773
40305SOL    HW232640   5.238   0.333   9.885 -0.0243  0.1178 -0.1739
40306SOL     OW32641   1.084   5.200   3.064  0.3074 -1.0982  0.3711
40306SOL    HW132642   1.028   5.213   2.988  3.2870 -0.3415 -1.9297
40306SOL    HW232643   1.058   5.267   3.126 -0.0016  0.6023 -1.4983
40307SOL     OW32644   1.508   4.311   4.033 -0.2346  0.1490 -0.4958
40307SOL    HW132645   1.570   4.358   3.977 -1.5896 -1.1260 -3.2549
40307SOL    HW232646   1.553   4.230   4.055 -0.5541 -0.4069 -1.7990
40308SOL     OW32647  10.348  11.953   7.591 -0.2854  0.0250  0.9003
40308SOL    HW132648  10.304  12.038   7.582 -0.6838 -0.2794 -0.1442
40308SOL    HW232649  10.298  11.894   7.535  0.3788 -0.7529  1.1102
40309SOL     OW32650   6.327   7.857   0.253 -0.2368  0.2075  0.5320
40309SOL    HW132651   6.422   7.853   0.266 -0.1149  0.6681 -0.1797
40309SOL    HW232652   6.303   7.767   0.234  0.4799  0.4701 -1.9568
40310SOL     OW32653   6.756   5.972   1.914 -0.4534  0.1165  0.9143
40310SOL    HW132654   6.777   6.057   1.875 -0.7299 -0.2285 -0.0255
40310SOL    HW232655   6.661   5.964   1.903 -0.2554 -0.8988 -0.2620
40311SOL     OW32656   3.744   6.523   4.694  0.4366 -0.6057 -0.1993
40311SOL    HW132657   3.696   6.447   4.728  0.5088 -0.3479  0.5013
40311SOL    HW232658   3.752   6.507   4.600  1.1953 -1.8739  0.0628
40312SOL     OW32659  10.345   7.137  10.963  0.5561  0.2498 -0.5936
40312SOL    HW132660  10.359   7.228  10.934  1.3529 -0.3567 -2.2326
40312SOL    HW232661  10.398   7.085  10.903  1.2731 -1.2177  1.2127
40313SOL     OW32662   4.020   0.174  11.257  0.7117 -0.3474 -0.5097
40313SOL    HW132663   3.931   0.141  11.268  1.1641 -1.1908  0.8480
40313SOL    HW232664   4.076   0.109  11.299  2.0700 -0.2803 -2.0954
40314SOL     OW32665   6.164   4.627   7.850  0.2279  1.1435  0.0578
40314SOL    HW132666   6.122   4.589   7.773  1.3440 -0.2880  0.0975
40314SOL    HW232667   6.119   4.586   7.924  1.1513  0.1631  0.1061
40315SOL     OW32668   9.290   8.824   6.856  0.3197 -0.5761 -0.2310
40315SOL    HW132669   9.310   8.878   6.780 -0.7844  0.5241  0.2249
40315SOL    HW232670   9.195   8.828   6.864  0.3855 -0.9529  0.9930
40316SOL     OW32671   2.797   1.844   1.666 -0.5435 -0.3084  0.3901
40316SOL    HW132672   2.741   1.921   1.660  0.8526  1.0532  2.9374
40316SOL    HW232673   2.878   1.870   1.622 -0.5135 -0.8278  0.1288
40317SOL     OW32674   9.389   4.173   5.800 -0.4585 -0.8194 -0.1056
40317SOL    HW132675   9.450   4.211   5.736 -0.1873 -1.6728 -0.3612
40317SOL    HW232676   9.440   4.167   5.880  0.1206 -2.3900 -0.5512
40318SOL     OW32677   5.215   1.141  11.901  0.1389 -0.1818 -0.2461
40318SOL    HW132678   5.284   1.084  11.937 -1.5681 -1.2003  1.6503
40318SOL    HW232679   5.157   1.081  11.855 -0.1717  0.4638 -0.7056
40319SOL     OW32680  10.895   2.521   4.557  0.3187 -0.4406  0.0964
40319SOL    HW132681  10.844   2.590   4.513  0.0671 -0.3092  0.5832
40319SOL    HW232682  10.935   2.472   4.486 -0.7141 -0.7112 -0.3129
40320SOL     OW32683   9.177  10.432   6.491 -0.4867  0.1022 -0.6292
40320SOL    HW132684   9.163  10.473   6.406 -0.8284 -0.5303 -0.8866
40320SOL    HW232685   9.192  10.339   6.471 -1.8108 -0.2917  0.0853
40321SOL     OW32686   4.792   0.837   6.441 -0.2911 -0.1038 -0.0047
40321SOL    HW132687   4.742   0.761   6.410 -1.2912  1.1939 -1.7273
40321SOL    HW232688   4.854   0.856   6.371 -0.9846  1.4744 -0.2250
40322SOL     OW32689   8.242   2.741  10.446 -0.0915 -0.5404 -0.1748
40322SOL    HW132690   8.318   2.740  10.504 -0.0297  2.3303 -0.0620
40322SOL    HW232691   8.179   2.682  10.486  1.5771 -1.9830  0.4194
40323SOL     OW32692   2.842   8.896   7.170 -0.3199  0.0164  0.6461
40323SOL    HW132693   2.753   8.889   7.136 -1.1158  1.6517  2.2408
40323SOL    HW232694   2.873   8.982   7.141  0.1225  0.1423  1.4379
40324SOL     OW32695   6.797   1.179   6.872  0.7592 -0.7400 -1.0683
40324SOL    HW132696   6.884   1.180   6.833  0.9114 -0.3091 -0.7377
40324SOL    HW232697   6.791   1.094   6.915  1.9720  0.0928  0.9353
40325SOL     OW32698   0.416  11.425   5.857  0.3583 -0.2941 -0.4922
40325SOL    HW132699   0.331  11.468   5.845  1.2516  2.2572  1.5747
40325SOL    HW232700   0.410  11.383   5.943  1.4185  0.6273  0.0628
40326SOL     OW32701   2.445  10.518   1.167  0.2363 -0.0937  0.4551
40326SOL    HW132702   2.515  10.453   1.166  0.4384  0.0986 -1.9066
40326SOL    HW232703   2.371  10.472   1.209  0.4880 -1.7568 -0.7914
40327SOL     OW32704   9.404   5.337  11.618  0.1220  0.1705  0.1804
40327SOL    HW132705   9.341   5.409  11.617 -1.5715 -1.2775 -0.1275
40327SOL    HW232706   9.386   5.288  11.538  1.7464 -0.2360  0.0157
40328SOL     OW32707   5.414   6.024   2.243 -0.0106  0.2912 -0.0065
40328SOL    HW132708   5.429   6.090   2.310 -0.0939  1.4986 -1.1433
40328SOL    HW232709   5.369   5.953   2.289  0.1407  0.9798  1.2508
40329SOL     OW32710   6.694   2.286   0.485 -0.2520  0.7838 -0.4844
40329SOL    HW132711   6.713   2.192   0.493  0.2361  1.0271  2.8251
40329SOL    HW232712   6.605   2.295   0.519  0.5421  1.7083  1.5011
40330SOL     OW32713   4.017  11.261   1.192 -0.5146  0.2647 -0.6530
40330SOL    HW132714   4.091  11.245   1.251 -1.1469  0.3837  0.1944
40330SOL    HW232715   4.057  11.273   1.106  0.4571  0.4008 -0.1973
40331SOL     OW32716  11.594   7.535   5.728  0.2466 -0.3823 -0.2704
40331SOL    HW132717  11.602   7.470   5.659 -1.1783 -0.9549  0.0725
40331SOL    HW232718  11.593   7.619   5.682  0.6695 -0.6801 -0.8271
40332SOL     OW32719   9.583   0.792   3.205  0.1867 -0.7049 -0.0429
40332SOL    HW132720   9.606   0.876   3.245  0.2385 -1.4115  1.4647
40332SOL    HW232721   9.618   0.798   3.116  2.1273  0.0501  0.7033
40333SOL     OW32722   8.591   8.866   6.260  0.5719 -0.1051 -0.1768
40333SOL    HW132723   8.664   8.812   6.289 -0.0274 -1.0545 -0.3754
40333SOL    HW232724   8.516   8.831   6.308  0.3481  1.2774  0.5212
40334SOL     OW32725   5.301   1.537   1.601 -0.3906  0.4778 -0.4808
40334SOL    HW132726   5.214   1.552   1.638 -0.6426 -0.4325 -0.6829
40334SOL    HW232727   5.294   1.452   1.557  0.1376  1.1168 -1.8709
40335SOL     OW32728   0.804   8.568   5.202 -0.0886 -0.4855 -0.0419
40335SOL    HW132729   0.754   8.488   5.221  1.1438 -1.2840  0.0142
40335SOL    HW232730   0.875   8.567   5.266  0.6707 -0.0247 -0.8558
40336SOL     OW32731  11.521   6.029   8.324  0.2748  0.5749  0.1401
40336SOL    HW132732  11.507   5.938   8.351  2.0126 -0.1542 -1.2513
40336SOL    HW232733  11.485   6.034   8.236  1.6509  0.7862 -0.4234
40337SOL     OW32734   6.958   4.953  11.503 -0.0441 -0.1601  0.3406
40337SOL    HW132735   6.939   5.042  11.533 -1.4413 -0.3927  0.2446
40337SOL    HW232736   6.939   4.955  11.409 -0.6003 -0.6821  0.4372
40338SOL     OW32737   4.674   8.265   7.201 -0.3100 -0.2213  0.2332
40338SOL    HW132738   4.586   8.251   7.237 -0.2641 -0.7156  0.1568
40338SOL    HW232739   4.658   8.288   7.109 -0.4416  1.3273  0.6177
40339SOL     OW32740   1.664  10.215   5.424 -0.6356 -0.2141 -0.1264
40339SOL    HW132741   1.740  10.231   5.481  0.4365 -2.0201 -0.9794
40339SOL    HW232742   1.665  10.287   5.361  0.3662 -0.2236 -0.1255
40340SOL     OW32743  10.997   6.855   9.505  0.4163  0.6651 -0.4194
40340SOL    HW132744  11.074   6.909   9.518  0.6046  0.5249 -0.9245
40340SOL    HW232745  11.013   6.776   9.557 -0.3394  1.5248  1.2129
40341SOL     OW32746   8.706   1.374   8.431 -0.0409 -0.5565 -0.0291
40341SOL    HW132747   8.762   1.449   8.448  1.5167 -2.0505  1.8534
40341SOL    HW232748   8.682   1.383   8.339  2.0794  0.9527 -0.5145
40342SOL     OW32749   0.136   1.091   2.003 -0.8102  0.2387 -1.1875
40342SOL    HW132750   0.176   1.021   1.951 -2.0624  0.4593 -2.5229
40342SOL    HW232751   0.170   1.078   2.091  1.6053  0.0011 -2.0855
40343SOL     OW32752   2.011   9.669  10.924 -0.4215  0.2374 -0.4795
40343SOL    HW132753   2.037   9.584  10.961 -1.1290  0.6267  0.9976
40343SOL    HW232754   1.947   9.647  10.856 -1.9530 -0.3892  1.0710
40344SOL     OW32755   9.299   7.772   4.197  0.2345 -0.1786  0.6253
40344SOL    HW132756   9.218   7.822   4.185  0.6445  0.5008  0.6797
40344SOL    HW232757   9.353   7.825   4.255  0.8496 -0.4803  0.3454
40345SOL     OW32758   2.860   5.548   5.766  0.4784 -0.3100  0.0598
40345SOL    HW132759   2.921   5.505   5.706  0.3563  0.7571 -0.8669
40345SOL    HW232760   2.777   5.502   5.753  0.3825  0.0896 -0.8159
40346SOL     OW32761   2.610   3.911   9.042  0.3797  0.2060  0.4383
40346SOL    HW132762   2.571   3.838   9.090 -0.1120 -0.9051 -1.5260
40346SOL    HW232763   2.546   3.982   9.051 -1.9207 -1.3323 -2.0533
40347SOL     OW32764   8.214   4.074   0.695 -0.2163 -0.1454  0.4652
40347SOL    HW132765   8.217   4.016   0.771 -0.8914 -0.7571  0.0408
40347SOL    HW232766   8.300   4.064   0.654  0.6654  1.2145  1.8629
40348SOL     OW32767   3.367  10.756   1.506 -0.0361 -0.2383 -0.3632
40348SOL    HW132768   3.394  10.690   1.442  0.3204 -2.2997  1.7925
40348SOL    HW232769   3.276  10.776   1.483 -0.0921 -1.3330 -1.1675
40349SOL     OW32770  10.640   9.655  10.835  0.1603  0.1336 -0.0949
40349SOL    HW132771  10.692   9.589  10.790  1.1886 -0.4674  1.8854
40349SOL    HW232772  10.561   9.609  10.863 -0.0357  0.2655 -0.4227
40350SOL     OW32773   5.255  11.070   3.564  0.3879 -0.6635 -0.1349
40350SOL    HW132774   5.195  11.068   3.490 -1.2809 -1.2684  1.1813
40350SOL    HW232775   5.332  11.118   3.531  0.2079 -1.9225 -2.5739
40351SOL     OW32776   3.852   1.301   8.997  0.1524 -0.4589 -0.1507
40351SOL    HW132777   3.779   1.245   9.021 -0.5414  0.7894  0.7787
40351SOL    HW232778   3.822   1.390   9.017  1.0583  0.3051 -1.9406
40352SOL     OW32779  10.012   2.188   7.796 -0.6707  0.0231 -0.0375
40352SOL    HW132780   9.924   2.214   7.769 -1.0644 -0.3650  0.8138
40352SOL    HW232781  10.018   2.096   7.771 -0.0118  0.3780 -1.2611
40353SOL     OW32782   5.755  11.843   0.737 -0.5513 -0.2225  0.2958
40353SOL    HW132783   5.793  11.759   0.714  0.2340 -0.6000  2.6623
40353SOL    HW232784   5.822  11.907   0.714 -1.0579 -0.2314 -1.2940
40354SOL     OW32785   7.192   0.551  10.535  0.4939  0.0786 -0.4432
40354SOL    HW132786   7.148   0.476  10.496  1.2884  0.4089 -2.0786
40354SOL    HW232787   7.222   0.520  10.620 -1.3569 -0.6569 -0.0127
40355SOL     OW32788   5.488   8.259   4.187  0.1477  0.9108  0.2165
40355SOL    HW132789   5.499   8.282   4.279 -1.0717  0.0131  0.6072
40355SOL    HW232790   5.572   8.220   4.162  0.2552  0.5079  1.1586
40356SOL     OW32791   5.980   6.507   7.082 -0.2385  0.1707  0.0642
40356SOL    HW132792   5.989   6.585   7.136  0.8074  1.0657 -1.3347
40356SOL    HW232793   5.894   6.516   7.040 -0.0586  0.6729 -0.2109
40357SOL     OW32794   2.445   5.308  11.598  0.3085 -0.4501 -0.2710
40357SOL    HW132795   2.385   5.262  11.656  1.7899 -2.1026  0.0492
40357SOL    HW232796   2.452   5.252  11.520  0.6425  0.2246 -0.7412
40358SOL     OW32797   9.588   8.051   4.810  0.5341  0.2708 -0.2854
40358SOL    HW132798   9.648   8.014   4.745  1.0812  0.1365  0.2920
40358SOL    HW232799   9.587   7.988   4.881  0.3998  0.7052  0.1047
40359SOL     OW32800   6.758  10.623   2.483 -0.6112  0.0830  0.4759
40359SOL    HW132801   6.734  10.689   2.418 -1.7445 -0.9821 -0.2252
40359SOL    HW232802   6.780  10.674   2.561 -2.1416  1.2888  0.1805
40360SOL     OW32803   1.165   7.323  10.643  0.2562  0.0000  1.0074
40360SOL    HW132804   1.122   7.299  10.725 -1.6957  1.5541  0.5330
40360SOL    HW232805   1.158   7.245  10.587 -1.4382  0.0017  1.1838
40361SOL     OW32806   9.487   0.448  10.652 -0.5175  0.2109  0.3645
40361SOL    HW132807   9.460   0.485  10.568  0.9425  0.6315  0.0548
40361SOL    HW232808   9.498   0.523  10.710 -0.7750 -0.0194  0.7212
40362SOL     OW32809   6.613   4.513  10.096  0.1809 -0.5846 -0.4616
40362SOL    HW132810   6.584   4.474  10.178  0.1680 -0.0437 -0.2082
40362SOL    HW232811   6.532   4.543  10.054  0.1255 -1.3399 -0.9345
40363SOL     OW32812   9.540   0.920   8.475 -0.4805 -0.1136  0.2858
40363SOL    HW132813   9.524   1.011   8.497 -0.1855 -0.0035  0.0588
40363SOL    HW232814   9.512   0.871   8.552  2.2850  0.3749  1.7355
40364SOL     OW32815   2.051   2.277   6.091 -0.4435  0.0764 -0.1168
40364SOL    HW132816   1.962   2.265   6.125 -0.7094 -1.8562 -1.2951
40364SOL    HW232817   2.086   2.188   6.085  2.0937  0.8591  1.5197
40365SOL     OW32818  11.540   5.891   0.559  0.2334 -0.1553  0.7729
40365SOL    HW132819  11.544   5.806   0.605  0.4877 -0.0826  0.8871
40365SOL    HW232820  11.496   5.871   0.476  0.0511 -0.3488  0.9139
40366SOL     OW32821  11.561   8.096   5.742 -0.0273 -0.0479 -0.4740
40366SOL    HW132822  11.497   8.067   5.807  0.5198  0.6782  0.4118
40366SOL    HW232823  11.594   8.015   5.703 -0.4605 -0.4877  0.0512
40367SOL     OW32824   8.796   4.240   1.275 -0.3798 -0.1720 -0.3197
40367SOL    HW132825   8.707   4.211   1.295 -0.5368 -0.0492 -0.8377
40367SOL    HW232826   8.830   4.173   1.216  0.3750 -0.9712  0.9771
40368SOL     OW32827   1.606   1.571   0.651 -0.3737  0.1654 -0.3117
40368SOL    HW132828   1.602   1.598   0.743 -0.6719  0.1951 -0.3318
40368SOL    HW232829   1.652   1.642   0.607  0.3318 -0.1402 -0.0801
40369SOL     OW32830   1.022   2.747   9.507  0.4036 -0.6303  0.0440
40369SOL    HW132831   1.080   2.713   9.439 -0.3300 -0.5521 -0.6419
40369SOL    HW232832   0.999   2.835   9.478 -0.2838 -0.7668  0.1443
40370SOL     OW32833   3.325   2.281   3.274  0.1639  0.5559 -0.3201
40370SOL    HW132834   3.391   2.350   3.267 -1.3006  2.1350  0.5275
40370SOL    HW232835   3.316   2.267   3.368 -1.3356  1.0620 -0.3576
40371SOL     OW32836   4.564   1.265  11.789  0.2355 -0.1950  0.0220
40371SOL    HW132837   4.657   1.246  11.776 -0.0914 -1.0499 -1.2995
40371SOL    HW232838   4.546   1.234  11.878  1.5272  1.3995  0.8933
40372SOL     OW32839   6.742   4.851   5.966 -0.3160  0.1255  0.4374
40372SOL    HW132840   6.656   4.870   5.929  0.5168 -1.9447 -3.0511
40372SOL    HW232841   6.724   4.794   6.040 -1.9698  1.3789  1.0676
40373SOL     OW32842   8.844   6.870   0.511 -0.0846 -0.7455  0.2654
40373SOL    HW132843   8.777   6.871   0.442 -0.4172 -0.7701  0.5835
40373SOL    HW232844   8.906   6.938   0.485 -1.5787  1.1125  1.2532
40374SOL     OW32845   6.818   1.962   4.842  0.6634 -0.4738 -0.1877
40374SOL    HW132846   6.813   1.994   4.752 -0.9744 -1.1011 -0.3515
40374SOL    HW232847   6.728   1.936   4.863  0.5121  1.6915  2.3857
40375SOL     OW32848   4.030   9.167   6.766 -0.2317  0.0393 -0.1154
40375SOL    HW132849   3.941   9.188   6.738 -0.5234  0.5243  1.1279
40375SOL    HW232850   4.020   9.123   6.850  0.7329  0.7680  0.4040
40376SOL     OW32851   4.429  10.340  10.312  0.6873  0.1813 -0.6852
40376SOL    HW132852   4.342  10.309  10.338  0.9617  0.7531  1.0559
40376SOL    HW232853   4.421  10.357  10.218 -1.1937  0.5898 -0.4971
40377SOL     OW32854   6.548  10.873   5.389 -0.3023 -0.3166  0.0896
40377SOL    HW132855   6.497  10.954   5.385 -0.9718 -0.6731  1.0259
40377SOL    HW232856   6.547  10.848   5.482  0.0170 -1.3216 -0.1606
40378SOL     OW32857   6.661  11.937   3.712 -0.6716  0.6048  0.6627
40378SOL    HW132858   6.751  11.916   3.735 -0.5132  2.3672  1.9545
40378SOL    HW232859   6.667  11.984   3.629 -0.3575  0.9976  0.9056
40379SOL     OW32860   7.067   4.074   5.316  0.2871 -0.5547  0.1836
40379SOL    HW132861   7.037   4.030   5.395 -3.1703 -0.9470 -1.1636
40379SOL    HW232862   7.057   4.009   5.247  1.0093  0.4824 -0.9392
40380SOL     OW32863   5.221   9.777   2.881  0.0313  0.2346  0.4154
40380SOL    HW132864   5.147   9.758   2.823  1.3895 -0.2644 -1.2388
40380SOL    HW232865   5.226   9.702   2.940 -1.2559  0.6546  1.0844
40381SOL     OW32866   1.813   3.863   0.660 -0.3713  0.3709  0.0546
40381SOL    HW132867   1.842   3.953   0.648 -0.1215  0.2104 -0.5636
40381SOL    HW232868   1.735   3.855   0.605 -0.0744  0.0507 -0.3236
40382SOL     OW32869   0.841   5.662   0.046 -0.0588 -0.2081  0.0996
40382SOL    HW132870   0.810   5.733  -0.009  1.9545  0.2298 -0.5557
40382SOL    HW232871   0.868   5.593  -0.016  1.3157 -0.0937  0.5294
40383SOL     OW32872   9.002   0.434   5.931 -0.4813 -0.8055  0.0739
40383SOL    HW132873   8.977   0.412   6.021  0.1981  1.6197  0.9236
40383SOL    HW232874   9.029   0.525   5.935  0.4890 -0.9041 -2.4393
40384SOL     OW32875   0.849   1.346   6.291 -0.1819  0.1575  0.1026
40384SOL    HW132876   0.937   1.378   6.273 -0.2031  0.3792  0.3947
40384SOL    HW232877   0.800   1.424   6.318 -1.0812  0.5144 -2.2649
40385SOL     OW32878   4.751  11.685   3.566  0.0406  0.7281  0.1830
40385SOL    HW132879   4.709  11.770   3.561 -1.3602  0.0582  0.0261
40385SOL    HW232880   4.772  11.674   3.659 -1.5855  0.4225  0.5321
40386SOL     OW32881   0.304   7.342  11.106 -0.1305  0.0799 -0.6532
40386SOL    HW132882   0.349   7.287  11.169 -0.9975  0.6685  0.5208
40386SOL    HW232883   0.211   7.320  11.118 -0.3034  0.1292 -1.8008
40387SOL     OW32884   8.871  10.985   7.256  0.1196  0.9728  0.4040
40387SOL    HW132885   8.957  11.026   7.265  0.3310  0.7544 -0.5082
40387SOL    HW232886   8.882  10.898   7.292  0.8374  0.2548 -1.4361
40388SOL     OW32887   5.983   7.011   0.395  0.7077 -0.6672  0.4843
40388SOL    HW132888   6.000   6.934   0.448 -1.3237  0.7472  3.4515
40388SOL    HW232889   5.902   6.992   0.349  1.9719 -1.5164 -1.5319
40389SOL     OW32890   6.339  10.043   1.510  0.1780  0.0635  0.5311
40389SOL    HW132891   6.368  10.032   1.600 -1.4617  2.5004  1.4482
40389SOL    HW232892   6.418  10.065   1.461  1.7745 -4.6030  0.5017
40390SOL     OW32893   7.536   1.726   1.323 -0.6971 -0.4012 -0.0110
40390SOL    HW132894   7.492   1.686   1.247 -0.2345  1.7850 -1.5298
40390SOL    HW232895   7.476   1.795   1.351  0.2723  0.4717 -0.0273
40391SOL     OW32896   1.100   4.725   1.209 -0.3562  0.5588  0.8705
40391SOL    HW132897   1.054   4.651   1.170  1.8307 -0.2525 -0.3485
40391SOL    HW232898   1.081   4.798   1.150  0.0520  0.1879  0.2702
40392SOL     OW32899   2.154  10.920   4.241  0.4974  0.0033  0.5485
40392SOL    HW132900   2.177  11.012   4.258 -0.7304  0.7506 -1.4581
40392SOL    HW232901   2.069  10.909   4.283 -0.7745  0.7482 -1.6555
40393SOL     OW32902   7.386  11.336   2.750  1.0134 -0.0302 -0.1606
40393SOL    HW132903   7.451  11.269   2.769  2.2227  1.2401  0.3936
40393SOL    HW232904   7.307  11.308   2.796  0.9531 -1.8996 -1.3157
40394SOL     OW32905   2.770  11.898   5.537  0.4730  0.0405  0.2421
40394SOL    HW132906   2.797  11.940   5.456 -1.5278  1.6776  0.3360
40394SOL    HW232907   2.821  11.940   5.606  0.1002  0.7448  0.0964
40395SOL     OW32908   8.255   8.659   3.516  0.1351 -0.0179 -0.8885
40395SOL    HW132909   8.320   8.694   3.456  0.2812  1.5282  0.1173
40395SOL    HW232910   8.286   8.571   3.536  1.4820  0.3953 -1.0534
40396SOL     OW32911  11.959   5.556   5.319  0.2382  0.5162  0.2094
40396SOL    HW132912  12.007   5.486   5.276  1.6838  2.6711 -1.8948
40396SOL    HW232913  11.868   5.543   5.292  0.1990 -1.3981  1.1417
40397SOL     OW32914   8.548  11.361   1.330  0.1569  0.4653  0.8006
40397SOL    HW132915   8.482  11.337   1.265  2.7283  1.5563 -2.5145
40397SOL    HW232916   8.553  11.285   1.388 -2.1640 -0.6653 -0.3281
40398SOL     OW32917   2.968   8.820   7.880 -0.1632  0.4788 -0.6150
40398SOL    HW132918   3.000   8.734   7.908  1.0931  0.7415 -1.1813
40398SOL    HW232919   2.880   8.826   7.917  0.1498 -0.5959  0.3618
40399SOL     OW32920   4.389   4.684   3.120  0.1749  0.1093 -0.5330
40399SOL    HW132921   4.435   4.601   3.109  0.1516  0.2913 -2.2494
40399SOL    HW232922   4.438   4.746   3.065  0.3789  1.3235  0.9475
40400SOL     OW32923   6.981   3.536   3.753  0.1692 -0.1860 -0.4037
40400SOL    HW132924   6.965   3.489   3.835 -0.8349  0.5897 -0.1393
40400SOL    HW232925   7.055   3.593   3.771 -0.4877  0.4983  0.1964
40401SOL     OW32926   1.064  11.231   5.718 -0.2892 -0.2958  0.2575
40401SOL    HW132927   1.018  11.314   5.706  0.0554 -0.1317  0.0483
40401SOL    HW232928   1.113  11.219   5.637  0.1478 -0.3923  0.5355
40402SOL     OW32929   6.000   4.956  10.868  0.5072 -0.0646 -0.3015
40402SOL    HW132930   6.008   4.861  10.858  1.1332 -0.0185 -0.3255
40402SOL    HW232931   6.051   4.975  10.947 -0.9472  0.0624  0.6343
40403SOL     OW32932   9.435   3.275   6.763  0.1202  0.4815 -0.5243
40403SOL    HW132933   9.414   3.367   6.779  2.1766  0.6345  1.7240
40403SOL    HW232934   9.514   3.277   6.709 -0.2824  0.0112 -1.1438
40404SOL     OW32935   0.029   9.189   9.759 -0.4567 -0.1061 -0.0823
40404SOL    HW132936   0.091   9.149   9.698 -1.3966  0.8569 -1.7431
40404SOL    HW232937   0.005   9.272   9.718 -2.5639 -0.2880  0.6775
40405SOL     OW32938   8.261   9.221   6.773  0.1142  0.5100 -0.2379
40405SOL    HW132939   8.304   9.156   6.829  1.1047  2.0027  0.8010
40405SOL    HW232940   8.259   9.180   6.686 -2.1815 -2.2214  0.9456
40406SOL     OW32941   8.980   7.028  10.175 -0.0261 -0.6231  0.7627
40406SOL    HW132942   8.898   7.033  10.224 -0.9897 -1.2391 -0.7242
40406SOL    HW232943   8.988   6.935  10.152 -0.3012 -0.1786 -1.3404
40407SOL     OW32944   7.985   2.629   0.063  0.6536 -0.5005 -0.0002
40407SOL    HW132945   8.015   2.705   0.114 -1.2738  0.9110 -0.8323
40407SOL    HW232946   7.923   2.584   0.121 -0.7977  0.5559 -0.6601
40408SOL     OW32947   6.472   4.784   5.325  0.0066 -0.5627 -0.4903
40408SOL    HW132948   6.383   4.774   5.357 -0.0968  0.1658 -0.5202
40408SOL    HW232949   6.469   4.752   5.235 -0.3496 -0.0915 -0.6535
40409SOL     OW32950   5.167   2.014   2.194  0.0837 -0.2212 -0.0215
40409SOL    HW132951   5.165   2.038   2.101  0.6924  0.8288  0.2159
40409SOL    HW232952   5.109   1.938   2.200  1.2824 -1.3233 -1.5191
40410SOL     OW32953   5.021  10.930   4.472 -0.5030  0.0329  0.4800
40410SOL    HW132954   4.929  10.955   4.480 -0.0196  1.8041  0.8422
40410SOL    HW232955   5.047  10.962   4.385  0.2298  1.2040  1.1091
40411SOL     OW32956   2.153   6.474   1.113  0.0759 -1.0943  0.7319
40411SOL    HW132957   2.120   6.434   1.033  0.6617 -2.4431  1.1339
40411SOL    HW232958   2.097   6.550   1.127  1.3197  0.5222 -2.1502
40412SOL     OW32959   4.402   8.100  11.051  0.0549 -0.2194  0.1818
40412SOL    HW132960   4.392   8.006  11.068 -0.9744  0.3354  3.4448
40412SOL    HW232961   4.496   8.114  11.045  0.1870 -1.5838 -1.5825
40413SOL     OW32962  10.631   5.505   8.838  0.5535  0.0501  0.5185
40413SOL    HW132963  10.619   5.507   8.933 -2.1893 -0.9694  0.2736
40413SOL    HW232964  10.705   5.447   8.824 -0.0967 -1.1817  1.9909
40414SOL     OW32965   9.471   1.740  11.018 -0.4448  0.4255  0.1001
40414SOL    HW132966   9.451   1.647  11.030  1.8474 -0.0793  0.4160
40414SOL    HW232967   9.502   1.769  11.104  1.2726  0.7983 -0.6114
40415SOL     OW32968   6.782  10.841   6.923  0.1194 -0.5735 -0.2559
40415SOL    HW132969   6.858  10.783   6.932  0.9381  0.7443  2.4480
40415SOL    HW232970   6.802  10.916   6.978 -1.9283  1.2302 -1.7681
40416SOL     OW32971   2.212   0.140   4.624 -0.0828  0.1144 -0.0345
40416SOL    HW132972   2.139   0.115   4.681 -0.2473  1.5168  0.4007
40416SOL    HW232973   2.251   0.057   4.598 -0.6973 -0.5976  1.2182
40417SOL     OW32974   5.783   4.113   1.112  0.0879  0.2824  0.0817
40417SOL    HW132975   5.791   4.170   1.189  0.5918  2.5511 -1.5623
40417SOL    HW232976   5.870   4.074   1.102  0.4297  1.0918 -0.1417
40418SOL     OW32977   7.481  10.426  11.411 -0.1819  0.1821 -0.1883
40418SOL    HW132978   7.525  10.483  11.349  1.3797 -1.3961 -0.6000
40418SOL    HW232979   7.388  10.430  11.386  0.2454  0.5760 -1.7955
40419SOL     OW32980  10.684   2.137  11.267  0.6046 -0.0090 -0.4271
40419SOL    HW132981  10.702   2.130  11.361  2.9990  1.6463 -0.6955
40419SOL    HW232982  10.631   2.216  11.258 -1.2465 -1.1553 -0.3765
40420SOL     OW32983  11.648   5.483   8.540  0.5839 -0.0630 -0.0094
40420SOL    HW132984  11.619   5.437   8.618  0.1364 -0.1279 -0.2071
40420SOL    HW232985  11.650   5.576   8.566 -1.1861  0.1190 -0.3714
40421SOL     OW32986   3.513   4.289   7.313  0.3924  0.6255  0.3358
40421SOL    HW132987   3.433   4.315   7.359  0.8969  0.5107  1.3052
40421SOL    HW232988   3.578   4.279   7.383  0.4946 -2.2476 -0.0310
40422SOL     OW32989   2.495   7.293   7.955  0.2959  0.0732 -0.0454
40422SOL    HW132990   2.536   7.258   7.876 -0.7898  0.0120 -0.5931
40422SOL    HW232991   2.401   7.281   7.942 -0.0194  1.6867  0.4578
40423SOL     OW32992  11.906  10.012   5.543 -0.0386  0.3526 -0.5055
40423SOL    HW132993  11.852  10.060   5.480  1.1436  1.8942 -0.4239
40423SOL    HW232994  11.849  10.001   5.619 -0.5629  1.0552 -0.7838
40424SOL     OW32995   3.189   0.593   3.193 -0.0563 -0.0773 -0.3291
40424SOL    HW132996   3.099   0.619   3.213 -0.1855  0.4978 -1.5550
40424SOL    HW232997   3.205   0.517   3.249 -0.7996  0.6848  0.9665
40425SOL     OW32998   4.843  11.120   2.403 -0.1694  0.6718  0.0178
40425SOL    HW132999   4.835  11.201   2.353 -0.8212  0.5109 -0.1545
40425SOL    HW233000   4.936  11.099   2.400 -0.1020  1.0246 -0.5567
40426SOL     OW33001   2.906   7.825   7.953  0.0813  0.1199 -0.0230
40426SOL    HW133002   2.924   7.799   7.862 -0.0317  0.3959 -0.1250
40426SOL    HW233003   2.825   7.779   7.975 -1.1727  1.8380 -0.8368
40427SOL     OW33004   4.658   2.980  11.360 -0.0874 -0.2079  0.2722
40427SOL    HW133005   4.687   3.068  11.336  0.6022 -0.4236  0.2959
40427SOL    HW233006   4.626   2.990  11.450 -1.2363  0.2770 -0.1636
40428SOL     OW33007   0.553   6.766   8.013 -0.1917  0.0152  0.3064
40428SOL    HW133008   0.488   6.809   8.069 -1.3529 -0.7917 -0.3807
40428SOL    HW233009   0.633   6.818   8.024 -1.2550  1.6959  0.3274
40429SOL     OW33010   3.431   4.533   9.778 -0.2725 -0.2723  0.0016
40429SOL    HW133011   3.436   4.455   9.834 -2.9646  0.1969  1.0684
40429SOL    HW233012   3.512   4.532   9.728  1.1064 -2.1513  2.0785
40430SOL     OW33013   1.758   2.418   5.150 -0.3235 -0.0080  0.6341
40430SOL    HW133014   1.843   2.389   5.118 -0.0569  1.7638 -0.4094
40430SOL    HW233015   1.748   2.374   5.234  2.2783  0.7714  1.4612
40431SOL     OW33016   5.876   0.170   3.773  0.0270 -0.1908  0.3558
40431SOL    HW133017   5.896   0.225   3.849  1.9503  0.0879 -0.2911
40431SOL    HW233018   5.850   0.233   3.705  2.3016 -0.0075 -0.4079
40432SOL     OW33019   6.368   9.717   3.958 -0.4521 -0.1403  0.0888
40432SOL    HW133020   6.297   9.735   4.019 -0.0586 -1.4562  0.9851
40432SOL    HW233021   6.325   9.707   3.873 -1.1883  0.2078  0.4134
40433SOL     OW33022  11.728   5.389   2.540  0.1754  0.4104  0.9764
40433SOL    HW133023  11.665   5.401   2.468  2.0093 -3.7304 -1.7114
40433SOL    HW233024  11.675   5.360   2.614 -1.3840  0.1002 -0.2160
40434SOL     OW33025   5.818  10.592   7.764  0.2031  0.5283 -0.2874
40434SOL    HW133026   5.803  10.507   7.806 -1.2153  0.9333  0.0764
40434SOL    HW233027   5.905  10.618   7.794  0.4596 -0.5703 -0.0147
40435SOL     OW33028   8.253   2.110   5.528  0.2861  0.6878 -0.0999
40435SOL    HW133029   8.303   2.067   5.458 -0.5967  1.0167 -0.9495
40435SOL    HW233030   8.172   2.138   5.486 -0.1975  1.0352  1.0281
40436SOL     OW33031   5.798   4.048   9.300 -0.3102  0.2338 -0.1823
40436SOL    HW133032   5.712   4.045   9.341 -0.6184  1.8881 -0.6208
40436SOL    HW233033   5.855   3.998   9.359 -1.0822  1.1055  1.3653
40437SOL     OW33034   4.026   1.890  10.378 -0.6499 -0.1580  0.5200
40437SOL    HW133035   4.009   1.822  10.443 -0.3815 -1.2245 -0.4780
40437SOL    HW233036   3.941   1.904  10.335 -0.9090  0.8033  1.3174
40438SOL     OW33037   5.661   5.836   3.192  0.3859 -0.2858 -0.3479
40438SOL    HW133038   5.622   5.781   3.261  0.5339 -0.0952 -0.1091
40438SOL    HW233039   5.641   5.790   3.111 -0.7615  0.0615 -0.2753
40439SOL     OW33040   9.394   2.597   2.998  0.0701  0.2058  0.3070
40439SOL    HW133041   9.365   2.687   3.013  0.5590  0.2281  1.2200
40439SOL    HW233042   9.446   2.576   3.075  2.3393  0.1105 -1.1474
40440SOL     OW33043   3.064   1.623   1.966  0.0395  0.1844 -0.6039
40440SOL    HW133044   3.067   1.681   2.042  1.1329 -1.9757  1.1305
40440SOL    HW233045   2.985   1.647   1.919 -0.4288  1.8961  0.9746
40441SOL     OW33046  10.867   7.528   5.955 -0.5401 -0.0518 -0.1691
40441SOL    HW133047  10.866   7.620   5.978 -1.1583  0.2929 -1.4613
40441SOL    HW233048  10.856   7.482   6.038 -1.6025  1.0828  0.3502
40442SOL     OW33049   2.016   1.007   3.056  0.1893  0.1398 -0.0610
40442SOL    HW133050   2.051   0.990   2.969 -1.2273  0.9123 -0.8238
40442SOL    HW233051   2.040   0.930   3.108 -0.4945 -1.1778 -1.6151
40443SOL     OW33052   2.568   4.304   2.510 -0.2306 -0.0487 -0.2115
40443SOL    HW133053   2.527   4.271   2.430 -1.2238 -0.8669  0.6008
40443SOL    HW233054   2.512   4.272   2.581  0.0756  1.4900  0.7687
40444SOL     OW33055   3.822   0.481   0.147  0.5911 -0.3421 -0.6173
40444SOL    HW133056   3.849   0.472   0.055 -0.7721  1.8254 -1.3116
40444SOL    HW233057   3.904   0.480   0.196  1.5257  0.4259 -2.0697
40445SOL     OW33058   0.465   1.385  10.469 -0.0972  0.2102 -0.0996
40445SOL    HW133059   0.429   1.301  10.441  0.0023  0.2878 -0.4591
40445SOL    HW233060   0.391   1.446  10.462  0.1323  0.4055 -1.0005
40446SOL     OW33061   2.664   2.704   0.630 -0.0447 -0.5090  0.1017
40446SOL    HW133062   2.733   2.766   0.606  0.1515 -0.1074  1.5790
40446SOL    HW233063   2.658   2.645   0.556 -0.0988  1.1577 -1.2771
40447SOL     OW33064  10.932   3.737   7.579  0.0518 -0.2484 -0.5277
40447SOL    HW133065  10.982   3.804   7.534  0.1530  0.7639  1.0079
40447SOL    HW233066  10.841   3.764   7.570  0.1135  0.3001  0.3556
40448SOL     OW33067   2.948   0.612  11.093  0.3618  0.2145 -0.0365
40448SOL    HW133068   2.869   0.640  11.138  1.2282  2.3306  0.3297
40448SOL    HW233069   2.993   0.555  11.155 -0.3725 -0.1599  0.1559
40449SOL     OW33070   0.084   5.234   7.077  0.3124  0.3663  0.1389
40449SOL    HW133071   0.104   5.274   7.161 -0.3257 -0.1551  0.5417
40449SOL    HW233072   0.026   5.296   7.033  1.2906  1.0224 -0.2734
40450SOL     OW33073   0.836   0.317   0.214  0.0883  0.1630  0.0813
40450SOL    HW133074   0.811   0.281   0.300 -2.3857 -1.6082 -1.2567
40450SOL    HW233075   0.777   0.275   0.152  0.0727  3.2372 -2.2512
40451SOL     OW33076   1.021   7.119  10.234 -0.1261  0.2166  0.3600
40451SOL    HW133077   0.990   7.202  10.198 -0.4851  0.7962  1.9098
40451SOL    HW233078   0.996   7.053  10.169 -0.7248  1.2049 -0.4327
40452SOL     OW33079   9.242   0.767   1.353 -0.2966  0.5237 -0.7683
40452SOL    HW133080   9.283   0.712   1.419  0.6520 -0.5747 -2.1975
40452SOL    HW233081   9.236   0.853   1.393 -0.1665 -0.2115  0.8919
40453SOL     OW33082   5.298  10.961   2.619 -0.2650 -0.1027  0.3768
40453SOL    HW133083   5.284  10.938   2.711 -1.9450  0.6950  0.3581
40453SOL    HW233084   5.347  10.887   2.583 -0.6222 -0.9793  1.6278
40454SOL     OW33085   5.092   7.601   5.375 -0.2622 -0.1618  0.6202
40454SOL    HW133086   5.172   7.643   5.344  1.3437 -2.3870  1.4911
40454SOL    HW233087   5.073   7.534   5.309 -0.0553 -1.1514  1.5319
40455SOL     OW33088   4.363   7.835  11.138 -0.2249 -0.1195  0.1680
40455SOL    HW133089   4.281   7.797  11.104 -0.8578 -0.5950  2.1036
40455SOL    HW233090   4.426   7.763  11.135 -0.4568 -0.3398  0.6180
40456SOL     OW33091   2.324   1.522   6.117 -0.0967 -0.1456  0.0641
40456SOL    HW133092   2.348   1.445   6.066 -2.9556 -0.1071 -1.5910
40456SOL    HW233093   2.349   1.596   6.062  0.1854  0.0173  0.4111
40457SOL     OW33094   1.895   7.196   5.790  0.0748 -0.3101 -0.5792
40457SOL    HW133095   1.963   7.143   5.749 -0.5445 -0.8401 -0.9467
40457SOL    HW233096   1.923   7.287   5.774  2.5102 -0.3938  2.3285
40458SOL     OW33097   8.532   8.900   0.512 -0.4371 -0.1614 -0.5002
40458SOL    HW133098   8.613   8.867   0.552  1.1150  1.9548 -1.7071
40458SOL    HW233099   8.498   8.963   0.575 -1.9494 -1.9651  0.5957
40459SOL     OW33100   1.935  11.785   6.615 -0.2554 -0.2478 -0.5888
40459SOL    HW133101   1.951  11.810   6.524  1.3566  1.2220  0.0341
40459SOL    HW233102   1.874  11.851   6.647 -0.6181 -0.6119 -0.5235
40460SOL     OW33103   5.337   3.992   8.152 -0.0522 -0.3291  0.6502
40460SOL    HW133104   5.343   4.059   8.220  1.1057  0.9420 -0.6413
40460SOL    HW233105   5.347   3.909   8.200  0.1063  0.4879  2.0945
40461SOL     OW33106   4.084   0.416   4.364 -0.0855 -0.0689 -0.3513
40461SOL    HW133107   4.069   0.493   4.310 -1.4124 -1.4880 -2.1203
40461SOL    HW233108   4.003   0.366   4.358  0.4056 -1.1922  1.4789
40462SOL     OW33109   6.679   6.504   9.170  0.2096 -0.1211 -0.1918
40462SOL    HW133110   6.715   6.446   9.237 -2.6995 -2.2123 -0.2251
40462SOL    HW233111   6.755   6.543   9.128  2.2505 -1.9690  1.5535
40463SOL     OW33112   2.176   6.278   2.481  0.3607 -0.0038  0.1620
40463SOL    HW133113   2.247   6.304   2.422 -0.6732 -1.4840 -1.8432
40463SOL    HW233114   2.100   6.269   2.425 -0.8510 -0.8884  1.8446
40464SOL     OW33115   2.900  10.258  11.124  0.1891 -0.4599  0.0432
40464SOL    HW133116   2.921  10.294  11.211 -1.5669 -0.0501  0.3234
40464SOL    HW233117   2.873  10.168  11.142 -1.8907  0.1373  0.2001
40465SOL     OW33118  10.657  10.860   9.863 -0.0581 -0.1422 -0.1475
40465SOL    HW133119  10.666  10.948   9.899  0.3959  0.2384 -1.1457
40465SOL    HW233120  10.740  10.844   9.819 -0.0902 -1.1258  0.1262
40466SOL     OW33121   2.801   0.001   6.737  0.0030 -0.2715 -0.6248
40466SOL    HW133122   2.867  -0.052   6.782 -1.2146 -0.3999  1.1277
40466SOL    HW233123   2.845   0.032   6.658  1.4780 -2.0488 -0.5858
40467SOL     OW33124   2.481   5.545   8.511 -0.3342  0.1848 -0.2358
40467SOL    HW133125   2.391   5.516   8.525 -0.2885 -0.3676 -1.0008
40467SOL    HW233126   2.535   5.476   8.548 -0.2281 -0.5613 -1.6974
40468SOL     OW33127   3.320   4.746   2.812  0.2217  0.1132  0.0474
40468SOL    HW133128   3.377   4.818   2.842  3.5436 -2.2873  0.0366
40468SOL    HW233129   3.273   4.719   2.890 -0.0355  1.3996  0.3631
40469SOL     OW33130   1.701  11.466  11.849  0.1047  0.3900 -0.1484
40469SOL    HW133131   1.642  11.450  11.923  0.5331  1.9398  0.5608
40469SOL    HW233132   1.697  11.560  11.835  1.5117  0.3659 -0.8417
40470SOL     OW33133  11.547   4.414   5.862 -0.1395  0.4619 -0.1595
40470SOL    HW133134  11.464   4.392   5.904  0.5922 -0.1240  1.0414
40470SOL    HW233135  11.589   4.329   5.846 -0.0349  0.7230 -1.3286
40471SOL     OW33136   8.755  11.670   6.235  0.0122  0.1628  0.1189
40471SOL    HW133137   8.660  11.661   6.230  0.0779 -0.0219 -1.1673
40471SOL    HW233138   8.788  11.581   6.238  0.2346  0.0673 -2.5431
40472SOL     OW33139   4.343   1.191   0.034  0.4768 -0.4442  0.2694
40472SOL    HW133140   4.265   1.241   0.058  1.0813  0.2668  0.7645
40472SOL    HW233141   4.388   1.175   0.116  1.6936  0.5669 -0.1725
40473SOL     OW33142  11.253   8.029   2.053 -0.1260 -0.1122  0.2903
40473SOL    HW133143  11.224   7.959   2.112 -0.5284  1.4743  2.0716
40473SOL    HW233144  11.296   8.092   2.110 -2.1016  2.3780 -0.7772
40474SOL     OW33145   9.605   9.900   5.254 -0.9239  0.4969  0.0918
40474SOL    HW133146   9.615   9.883   5.347  1.6624  1.0366 -0.0173
40474SOL    HW233147   9.622   9.993   5.244 -2.0242  0.6200 -0.8430
40475SOL     OW33148   9.997   7.175   8.394  0.6886  0.1934  0.5198
40475SOL    HW133149   9.926   7.156   8.333  1.3969 -2.9777  0.4991
40475SOL    HW233150  10.076   7.147   8.347  1.3508 -1.3835  2.4358
40476SOL     OW33151  10.182   3.822   0.086 -0.0045 -0.2184 -0.3887
40476SOL    HW133152  10.270   3.856   0.071  0.1083 -0.8619 -1.2638
40476SOL    HW233153  10.176   3.815   0.181  0.8566 -0.0668 -0.3089
40477SOL     OW33154   8.411  10.089   5.269 -0.0389  0.3194  0.2399
40477SOL    HW133155   8.454  10.041   5.340 -0.6959 -1.2296 -0.3536
40477SOL    HW233156   8.370  10.021   5.216  0.8463  1.3716 -1.9273
40478SOL     OW33157   2.322  11.777   7.507 -0.6231  0.1811  0.1602
40478SOL    HW133158   2.303  11.691   7.468 -1.0316 -0.1609  1.0896
40478SOL    HW233159   2.404  11.804   7.466 -0.8016 -0.3782 -0.5912
40479SOL     OW33160   5.342   1.027   5.167  0.2332  0.1777 -0.1796
40479SOL    HW133161   5.255   0.999   5.141  0.6900 -0.4045 -1.1424
40479SOL    HW233162   5.399   0.952   5.146  1.0530  0.7735 -0.1417
40480SOL     OW33163  10.821   5.456   4.550  0.0410 -0.3521  0.1877
40480SOL    HW133164  10.857   5.374   4.517 -0.7876 -0.2479 -1.0581
40480SOL    HW233165  10.857   5.465   4.638  0.4029 -1.8870  0.2211
40481SOL     OW33166   0.101   1.027  10.421 -0.3321  0.3405 -0.2185
40481SOL    HW133167   0.071   0.958  10.480  1.2007 -0.3533 -0.1960
40481SOL    HW233168   0.022   1.078  10.401 -1.1744 -0.3840  1.1226
40482SOL     OW33169   4.920   1.135  10.296 -0.1450  0.1723  0.0320
40482SOL    HW133170   4.977   1.063  10.269  0.0019  0.5228 -0.6074
40482SOL    HW233171   4.971   1.214  10.277 -0.7576  0.4817 -0.3374
40483SOL     OW33172  10.577  11.660  10.364  0.1125 -0.0357 -0.3600
40483SOL    HW133173  10.626  11.687  10.286 -0.4311  2.2274  0.0172
40483SOL    HW233174  10.622  11.702  10.437 -0.0306 -1.2421  0.4536
40484SOL     OW33175  10.302   6.356   1.316 -0.0762  0.1898  0.1824
40484SOL    HW133176  10.235   6.288   1.323 -1.4010  1.0036 -2.8712
40484SOL    HW233177  10.329   6.354   1.225  3.4872  0.5655  1.0754
40485SOL     OW33178   4.710   1.086  11.146  0.7427 -0.4088  0.4266
40485SOL    HW133179   4.798   1.108  11.118  0.0847  2.2076  0.1573
40485SOL    HW233180   4.659   1.082  11.065  0.3020 -0.3012  0.6931
40486SOL     OW33181   2.072   5.279  11.558  0.1580  0.6439 -0.4870
40486SOL    HW133182   1.981   5.284  11.585  0.3612 -1.2976  0.7626
40486SOL    HW233183   2.073   5.210  11.492  0.6461  1.0797 -0.9449
40487SOL     OW33184   0.275  10.485   6.762 -0.2686  0.0230  0.0331
40487SOL    HW133185   0.280  10.492   6.857  0.7226 -2.7924  0.2984
40487SOL    HW233186   0.366  10.493   6.733 -0.6649  1.7558 -0.8003
40488SOL     OW33187   9.724   3.830  11.295 -0.6569  0.2347  0.5684
40488SOL    HW133188   9.798   3.874  11.252 -1.5095  0.2919 -0.9052
40488SOL    HW233189   9.765   3.760  11.346  0.3958 -0.0105 -0.5614
40489SOL     OW33190   9.572   6.377   4.744 -0.1009 -0.1415 -0.1916
40489SOL    HW133191   9.489   6.404   4.784  0.8272  2.6861  0.0695
40489SOL    HW233192   9.548   6.306   4.684 -2.6166  0.2831  0.1992
40490SOL     OW33193   8.262   3.164   4.296  0.4873 -0.2538 -0.3327
40490SOL    HW133194   8.207   3.240   4.311  0.9305 -0.3463  2.1807
40490SOL    HW233195   8.203   3.089   4.300  0.4645 -0.2119  0.2867
40491SOL     OW33196   5.475   8.107   5.822 -0.0261 -0.1776  0.2244
40491SOL    HW133197   5.454   8.095   5.915 -1.7448 -0.3420 -0.1383
40491SOL    HW233198   5.405   8.061   5.776  0.1149  0.9139 -1.1580
40492SOL     OW33199   1.248   6.567   3.375  0.0989  0.7334 -0.3264
40492SOL    HW133200   1.219   6.609   3.456  0.8592  0.0095  0.3311
40492SOL    HW233201   1.340   6.593   3.366  0.4536 -0.4212 -0.1387
40493SOL     OW33202  11.194   0.839   7.211 -0.1486  0.1880  1.3292
40493SOL    HW133203  11.290   0.842   7.207 -0.0822 -1.8505 -0.4876
40493SOL    HW233204  11.166   0.921   7.170  0.7773  0.9441  2.1486
40494SOL     OW33205   4.186   6.254   8.268  0.0944 -0.1159  0.1108
40494SOL    HW133206   4.193   6.215   8.355  0.8349  0.1561  0.1802
40494SOL    HW233207   4.097   6.232   8.239  0.1462 -0.9805  0.5608
40495SOL     OW33208   7.213   3.440   0.226  0.0217 -0.2545  0.0700
40495SOL    HW133209   7.205   3.384   0.148 -0.8357 -0.6754  0.4434
40495SOL    HW233210   7.180   3.525   0.198 -0.6833 -0.5173  0.0759
40496SOL     OW33211   0.710   2.853  10.874  0.1563 -0.2381  0.8160
40496SOL    HW133212   0.773   2.792  10.834 -0.9354 -1.1577  0.4307
40496SOL    HW233213   0.636   2.797  10.900 -1.0668  0.9594  0.0625
40497SOL     OW33214   6.692  10.779   1.034  0.7526 -0.0490 -0.0053
40497SOL    HW133215   6.765  10.749   0.979  0.6674  0.3245 -0.3241
40497SOL    HW233216   6.621  10.717   1.015  0.9165 -0.2895  0.1517
40498SOL     OW33217   0.408  10.200   6.862 -0.0402  0.0971 -0.6501
40498SOL    HW133218   0.502  10.187   6.875  0.6322  1.2112 -3.6740
40498SOL    HW233219   0.386  10.275   6.917  0.7644 -0.3258  0.2745
40499SOL     OW33220   1.662  10.041  10.349 -0.0098  0.1037  0.3557
40499SOL    HW133221   1.653   9.963  10.404  0.4577  0.4846  0.9994
40499SOL    HW233222   1.755  10.046  10.330 -0.0585  0.4218  0.1994
40500SOL     OW33223   4.093   8.900  10.496 -0.0318  0.2750  0.1883
40500SOL    HW133224   4.173   8.848  10.503 -0.1405  0.2140  1.2248
40500SOL    HW233225   4.084   8.918  10.403  1.4042  0.6159  0.0877
40501SOL     OW33226  10.738   0.700   0.806 -0.3429 -0.2947 -0.4630
40501SOL    HW133227  10.737   0.793   0.786 -0.8270 -0.4423 -1.1704
40501SOL    HW233228  10.753   0.658   0.721  0.8102 -0.8271 -0.0185
40502SOL     OW33229   1.288  10.043   6.207 -0.0100 -0.1623 -0.3644
40502SOL    HW133230   1.274  10.137   6.199 -0.9556 -0.1957  0.7186
40502SOL    HW233231   1.381  10.031   6.187 -0.0455  0.8980 -1.2371
40503SOL     OW33232   4.153   8.269   7.408  0.1190 -0.1095  0.3377
40503SOL    HW133233   4.097   8.211   7.460 -1.6321 -0.1366 -1.4516
40503SOL    HW233234   4.169   8.344   7.465 -0.5978 -0.7345  1.3985
40504SOL     OW33235   7.238   6.162   9.628  0.1129 -0.3314 -0.2798
40504SOL    HW133236   7.177   6.145   9.557  2.2183 -2.9267 -1.6720
40504SOL    HW233237   7.226   6.088   9.688  1.6596 -0.8213 -0.5124
40505SOL     OW33238   1.744   7.624   8.633 -0.3070  0.0424  0.1808
40505SOL    HW133239   1.715   7.693   8.573  0.7568  0.4117  0.0678
40505SOL    HW233240   1.833   7.603   8.604 -1.0943 -2.4276 -0.7166
40506SOL     OW33241   8.651   5.669   1.868 -0.0514 -0.9774 -0.0762
40506SOL    HW133242   8.598   5.681   1.947 -0.5271  1.0789 -0.6481
40506SOL    HW233243   8.742   5.669   1.900 -0.2632 -0.8667  0.5440
40507SOL     OW33244   6.425   9.870  10.211 -0.0949  0.4335 -0.6343
40507SOL    HW133245   6.484   9.801  10.180 -0.5032 -0.1330 -0.1654
40507SOL    HW233246   6.471   9.952  10.191  1.0916 -0.0095  0.1769
40508SOL     OW33247  11.366   6.086   6.854  0.0924 -0.6529  0.0085
40508SOL    HW133248  11.273   6.067   6.872  0.1412 -1.2134 -0.3249
40508SOL    HW233249  11.367   6.120   6.765  0.3173 -1.5271 -0.3269
40509SOL     OW33250   8.544   2.215   2.559  0.2148 -0.4568 -0.3076
40509SOL    HW133251   8.633   2.178   2.556  0.2498 -0.5029  0.8880
40509SOL    HW233252   8.491   2.146   2.598  0.0039  0.2184  0.6218
40510SOL     OW33253   2.583   4.300   6.105  0.3184  0.0492  0.8755
40510SOL    HW133254   2.588   4.230   6.040  0.0483  0.7394  0.0981
40510SOL    HW233255   2.640   4.270   6.176  1.1348 -0.4188  0.0459
40511SOL     OW33256  10.103   9.654   1.698 -0.4143 -0.0709 -0.6456
40511SOL    HW133257  10.083   9.743   1.669  0.7660  0.7072  0.7691
40511SOL    HW233258  10.199   9.647   1.690 -0.7031 -2.3363 -3.6836
40512SOL     OW33259  11.285   5.652   7.011 -0.2913 -0.2734  0.4879
40512SOL    HW133260  11.302   5.665   7.104  1.6557  0.5547  0.0499
40512SOL    HW233261  11.300   5.737   6.971 -2.3498 -0.2868 -0.4732
40513SOL     OW33262   7.721   8.919   7.217  0.1202  0.0714 -0.1801
40513SOL    HW133263   7.743   8.997   7.165 -1.3929  0.4069 -0.3693
40513SOL    HW233264   7.796   8.861   7.205  0.5861  0.8614 -1.3302
40514SOL     OW33265   2.626   0.715   1.000  0.1669 -0.7247  0.5592
40514SOL    HW133266   2.569   0.648   0.963  1.4876 -0.7550 -1.6030
40514SOL    HW233267   2.574   0.755   1.070 -2.1840 -1.2694 -0.7644
40515SOL     OW33268  10.672   0.402   4.929 -0.4943 -0.2346  0.6550
40515SOL    HW133269  10.683   0.488   4.888 -3.8961 -0.8125 -1.8664
40515SOL    HW233270  10.751   0.354   4.904 -0.6147  0.7521 -2.0076
40516SOL     OW33271  10.310   9.550  10.034  0.4223  0.3033  0.0206
40516SOL    HW133272  10.226   9.515  10.004  0.9692 -2.0852  0.9988
40516SOL    HW233273  10.297   9.644  10.039 -1.9409  0.0750 -0.5865
40517SOL     OW33274   2.658   1.291   7.678 -0.3510  0.0364 -0.1345
40517SOL    HW133275   2.734   1.292   7.737 -1.3099  1.1930  1.1362
40517SOL    HW233276   2.623   1.202   7.687 -1.1767  0.5096  2.0422
40518SOL     OW33277   8.301  11.201   8.125  0.0923 -0.2204  0.0356
40518SOL    HW133278   8.372  11.141   8.147  0.3065  0.1037  0.2426
40518SOL    HW233279   8.326  11.241   8.042 -0.8080 -1.5861 -0.9346
40519SOL     OW33280   2.211   6.269  10.904  0.4606 -0.0489  0.1332
40519SOL    HW133281   2.257   6.353  10.910  1.7073 -0.8215  2.2378
40519SOL    HW233282   2.277   6.204  10.926 -1.2021 -1.3454  1.5593
40520SOL     OW33283   5.684  10.961  10.836 -0.2917  0.0419 -0.0489
40520SOL    HW133284   5.644  10.874  10.830 -0.9935  0.4032 -0.8579
40520SOL    HW233285   5.735  10.959  10.917 -2.9682 -0.0070  1.7573
40521SOL     OW33286   3.093   0.640   0.236  0.4376  0.1192  0.2900
40521SOL    HW133287   3.076   0.550   0.265  1.5321  0.2678  1.5154
40521SOL    HW233288   3.008   0.683   0.240  0.2579 -0.3139  1.7928
40522SOL     OW33289   9.183   9.987   9.842 -0.1051 -0.8906  0.3397
40522SOL    HW133290   9.221   9.974   9.755 -1.9452 -0.8088 -0.5144
40522SOL    HW233291   9.223   9.918   9.895  0.5878 -1.3395 -0.7113
40523SOL     OW33292   1.640   2.290   9.556 -0.0893 -0.1591 -0.8401
40523SOL    HW133293   1.643   2.196   9.578  0.7274  0.0829  0.1918
40523SOL    HW233294   1.634   2.292   9.461  2.4990 -1.2751 -1.1188
40524SOL     OW33295   9.395   8.522   9.497  0.0002 -0.2173 -0.3132
40524SOL    HW133296   9.460   8.458   9.526 -0.4027 -0.1077  0.8944
40524SOL    HW233297   9.391   8.511   9.402  1.7893 -0.2062 -0.4277
40525SOL     OW33298  10.659  10.406   7.349  0.0550 -0.1374  0.0565
40525SOL    HW133299  10.671  10.401   7.444 -0.5118 -2.1133  0.0628
40525SOL    HW233300  10.599  10.335   7.329 -0.4788  0.7593 -1.7002
40526SOL     OW33301   5.272   6.678   4.161  0.1676 -0.1608 -0.1829
40526SOL    HW133302   5.233   6.602   4.205 -1.1327  1.1186  0.9941
40526SOL    HW233303   5.208   6.703   4.095  0.3594  0.1882 -0.2417
40527SOL     OW33304  11.078   9.356   4.937  0.3478  0.6235 -0.5280
40527SOL    HW133305  11.170   9.330   4.939 -0.2083 -1.9893 -2.8171
40527SOL    HW233306  11.077   9.438   4.888  1.4024  0.4928 -0.7944
40528SOL     OW33307   3.772   5.308   3.705 -0.0681  0.0376 -0.6539
40528SOL    HW133308   3.811   5.316   3.618 -0.5449  2.6608 -0.7107
40528SOL    HW233309   3.822   5.368   3.759 -0.4185 -0.8279  0.6814
40529SOL     OW33310   7.783   8.491   2.836 -0.4754 -0.3355 -0.0266
40529SOL    HW133311   7.804   8.484   2.743  1.2745 -0.6768  0.3627
40529SOL    HW233312   7.759   8.402   2.861 -0.5881 -0.3172 -0.0686
40530SOL     OW33313  11.871   4.095   9.487 -0.2634 -0.2042 -0.2207
40530SOL    HW133314  11.877   4.101   9.392  0.4647  0.6351 -0.1291
40530SOL    HW233315  11.813   4.167   9.512 -0.8363 -0.7089 -0.0526
40531SOL     OW33316   4.781   9.342   3.486 -0.0198 -0.2922  0.2007
40531SOL    HW133317   4.759   9.414   3.427 -0.0724  0.2807  0.9187
40531SOL    HW233318   4.873   9.357   3.508  0.4511 -1.3386 -0.8869
40532SOL     OW33319   8.643   1.200   9.283 -0.5874  0.3748 -0.3188
40532SOL    HW133320   8.709   1.270   9.279 -0.6143  0.3241 -2.2322
40532SOL    HW233321   8.578   1.233   9.346 -0.3237  1.8456 -0.7713
40533SOL     OW33322   6.531   0.742   7.363 -0.3216 -0.1393 -0.0670
40533SOL    HW133323   6.521   0.665   7.419  1.3645  0.4087  1.0800
40533SOL    HW233324   6.450   0.792   7.376 -0.4314 -0.5767  1.0285
40534SOL     OW33325   7.337   9.290   6.564  0.5756  0.2653 -0.1511
40534SOL    HW133326   7.393   9.303   6.640  0.7598  0.4890 -0.3223
40534SOL    HW233327   7.311   9.379   6.538 -0.4434  0.1293  0.3584
40535SOL     OW33328   4.794  11.916  11.663 -0.4792  0.1791  0.0193
40535SOL    HW133329   4.771  11.826  11.640  0.5877 -0.0807 -0.0677
40535SOL    HW233330   4.802  11.960  11.579  2.2154 -0.4712 -0.1372
40536SOL     OW33331  11.122   2.036   1.853 -0.0446 -0.9275 -0.0598
40536SOL    HW133332  11.057   1.986   1.903 -1.8120 -0.0499 -1.3423
40536SOL    HW233333  11.127   1.991   1.769 -0.4729  0.1002 -0.6600
40537SOL     OW33334   9.625   4.870   4.037 -0.5728 -0.8653 -0.2417
40537SOL    HW133335   9.692   4.809   4.007  0.9754  1.3783 -1.6979
40537SOL    HW233336   9.654   4.897   4.124 -1.9452 -3.0124  0.9784
40538SOL     OW33337   4.934   3.067   8.846 -0.0076 -0.5496  0.4425
40538SOL    HW133338   5.003   3.083   8.782  0.0633  0.1502  0.6867
40538SOL    HW233339   4.872   3.009   8.801  0.1729 -0.2803 -0.1612
40539SOL     OW33340   3.307   2.761   3.979 -0.2326  0.5390 -0.6832
40539SOL    HW133341   3.247   2.686   3.975  0.5888 -0.0921 -2.2299
40539SOL    HW233342   3.252   2.837   3.958 -0.6455  0.0470 -1.4452
40540SOL     OW33343   5.471   7.114   9.161 -0.1370 -0.1940 -0.5360
40540SOL    HW133344   5.525   7.074   9.093  0.4153  1.0334 -0.8373
40540SOL    HW233345   5.532   7.163   9.215 -0.3140 -2.3820  1.8594
40541SOL     OW33346   2.818   4.376   2.883  0.0715  0.6871 -0.1090
40541SOL    HW133347   2.830   4.361   2.789  1.3159  0.6717  0.0473
40541SOL    HW233348   2.751   4.445   2.888 -0.8514 -0.1203 -0.9706
40542SOL     OW33349   3.819   5.921   4.838  0.4345 -0.0860 -0.2566
40542SOL    HW133350   3.849   5.953   4.923 -1.5515 -0.5755  0.6943
40542SOL    HW233351   3.748   5.980   4.814  0.6210 -0.2818 -1.3427
40543SOL     OW33352   8.189   7.691   9.818 -0.0534  0.4664  0.0221
40543SOL    HW133353   8.273   7.647   9.832  0.4309  0.7967 -1.6384
40543SOL    HW233354   8.199   7.735   9.734 -1.6832  1.0372  0.0967
40544SOL     OW33355   5.185  10.364  11.408 -0.7380 -0.0286 -0.5346
40544SOL    HW133356   5.140  10.322  11.334  0.9370 -0.2517 -1.4938
40544SOL    HW233357   5.259  10.306  11.426 -0.1936  0.8848  0.2579
40545SOL     OW33358   3.612   6.302  11.548 -0.6366  0.6680 -0.1863
40545SOL    HW133359   3.608   6.397  11.553 -0.4890  0.7047 -0.6923
40545SOL    HW233360   3.537   6.271  11.599  0.0475  1.0187  1.0817
40546SOL     OW33361  10.073   3.562  10.450  0.3778 -1.1001  0.0314
40546SOL    HW133362  10.138   3.519  10.505  1.9395  1.8210  0.6679
40546SOL    HW233363   9.997   3.573  10.507  1.3328  0.2706  1.1160
40547SOL     OW33364   9.789   2.737   9.783 -0.5501 -0.9987  0.3798
40547SOL    HW133365   9.764   2.827   9.806  1.5640  0.0482 -1.0677
40547SOL    HW233366   9.884   2.741   9.771 -0.7444 -2.7156 -2.6686
40548SOL     OW33367   8.055  11.663   6.871 -0.3287 -0.2304 -0.2588
40548SOL    HW133368   8.128  11.689   6.815  1.5643 -1.2189  1.6290
40548SOL    HW233369   8.029  11.576   6.838 -0.6054  0.0603 -0.8366
40549SOL     OW33370   9.156  10.815   0.471 -0.2740 -0.1005  0.2171
40549SOL    HW133371   9.128  10.830   0.381  1.9215 -0.8843 -0.6633
40549SOL    HW233372   9.251  10.801   0.465 -0.2907 -1.7936  2.4508
40550SOL     OW33373   9.942   6.098  10.695  0.5145  0.4074  0.3394
40550SOL    HW133374  10.012   6.101  10.761  0.1348  0.4685  0.7404
40550SOL    HW233375   9.986   6.122  10.613  0.2218  4.5413  1.2021
40551SOL     OW33376   5.109   7.522   6.097  0.0312 -0.2955 -0.4458
40551SOL    HW133377   5.084   7.430   6.099  0.2006 -0.3363 -0.2286
40551SOL    HW233378   5.074   7.554   6.014 -1.0324 -0.2686  0.0037
40552SOL     OW33379   8.392   5.047   0.070  0.9312  0.0806  0.3277
40552SOL    HW133380   8.398   5.143   0.070  0.8259  0.0875  0.5890
40552SOL    HW233381   8.300   5.029   0.047  1.1708  0.0245 -0.6331
40553SOL     OW33382   3.842  10.415   5.768 -0.1930 -0.1458 -0.6238
40553SOL    HW133383   3.777  10.447   5.706 -1.7836  0.4165  1.2594
40553SOL    HW233384   3.801  10.339   5.809  0.8336 -0.5180 -0.2619
40554SOL     OW33385  10.114   0.578  11.608  0.1565 -0.7134  0.5170
40554SOL    HW133386  10.145   0.499  11.654 -1.5415 -1.9948 -0.4120
40554SOL    HW233387  10.020   0.565  11.601  0.1115  0.3997 -1.5315
40555SOL     OW33388  10.265   5.449   0.944  0.2646 -0.3149  0.1521
40555SOL    HW133389  10.333   5.476   0.882 -0.2572  1.3696  0.2763
40555SOL    HW233390  10.307   5.457   1.030 -0.2608  1.3448  0.2725
40556SOL     OW33391  10.896   8.476   6.144  0.2585  0.0186  0.7370
40556SOL    HW133392  10.809   8.492   6.180  0.4394  2.2617  0.3063
40556SOL    HW233393  10.884   8.478   6.049  1.0683  2.9067  0.5924
40557SOL     OW33394   2.276  10.602   5.603 -0.0076 -0.1837 -0.8407
40557SOL    HW133395   2.210  10.556   5.552 -0.5472  2.7601 -3.0670
40557SOL    HW233396   2.232  10.623   5.686  0.1071 -2.9702  0.0551
40558SOL     OW33397   2.339   0.288   5.912  0.3263 -0.1549 -0.6854
40558SOL    HW133398   2.251   0.320   5.891  0.1710  0.0001  0.1727
40558SOL    HW233399   2.376   0.263   5.828 -0.3298  0.3218 -1.1238
40559SOL     OW33400   8.785   8.312   6.651 -0.2533 -0.1830 -0.3880
40559SOL    HW133401   8.720   8.382   6.639 -1.3111 -1.2745 -1.2579
40559SOL    HW233402   8.748   8.257   6.720 -1.1908 -1.7865 -2.0760
40560SOL     OW33403   9.821   9.335  10.446  0.3402 -0.2435 -0.4091
40560SOL    HW133404   9.903   9.363  10.405  0.8644  1.3850  1.5541
40560SOL    HW233405   9.754   9.350  10.378  1.4677 -0.3336 -1.5868
40561SOL     OW33406   1.133   5.015   3.871  0.0711 -0.5157  0.0113
40561SOL    HW133407   1.195   5.078   3.908  1.5164 -0.8018 -1.7990
40561SOL    HW233408   1.047   5.047   3.899  0.9654  0.2121  2.1104
40562SOL     OW33409   1.043   9.014   4.671  0.3406  0.2617 -0.1886
40562SOL    HW133410   1.013   9.096   4.709 -0.1366 -0.2982  0.6797
40562SOL    HW233411   1.138   9.016   4.681  0.2764  0.4184  0.4337
40563SOL     OW33412   0.954   8.027   9.907 -0.2163 -0.4443  0.1495
40563SOL    HW133413   0.888   7.981   9.959  0.1222 -0.3430  0.6890
40563SOL    HW233414   1.033   8.024   9.962  0.0991 -0.1669 -0.2824
40564SOL     OW33415   3.789   6.251  10.729 -0.2032 -0.1834 -1.2078
40564SOL    HW133416   3.873   6.259  10.774 -0.1687  1.7273 -1.5137
40564SOL    HW233417   3.779   6.158  10.712  0.6326 -0.7558  1.1223
40565SOL     OW33418   7.296  10.902   2.764 -0.1501 -0.1242 -0.0745
40565SOL    HW133419   7.385  10.869   2.766 -0.1235 -0.3199 -2.3727
40565SOL    HW233420   7.250  10.851   2.831  0.5980 -2.6915 -1.4176
40566SOL     OW33421  11.199   3.124   8.784  0.2470  0.5081 -0.4080
40566SOL    HW133422  11.147   3.131   8.704 -0.3769 -0.4525 -0.1072
40566SOL    HW233423  11.289   3.117   8.754 -0.1438 -2.3393 -1.1973
40567SOL     OW33424   0.191  10.960   9.519 -0.1436 -0.4996 -0.5962
40567SOL    HW133425   0.124  10.892   9.515  0.1298 -0.7330 -2.2224
40567SOL    HW233426   0.183  11.006   9.436  0.4271  0.7350  0.0125
40568SOL     OW33427   1.854  10.702   3.088 -0.7189 -0.0655 -0.1468
40568SOL    HW133428   1.865  10.650   3.009  0.1091  0.5767 -0.4627
40568SOL    HW233429   1.855  10.793   3.059 -0.4044  0.1793  0.5949
40569SOL     OW33430   7.006  10.740   3.574 -0.2813 -0.2938  0.1108
40569SOL    HW133431   7.014  10.832   3.598 -0.9797 -0.6162  1.6647
40569SOL    HW233432   6.956  10.741   3.492 -0.9046  0.6699  0.4842
40570SOL     OW33433   6.416  11.858   4.067  0.0025  0.0947  0.2597
40570SOL    HW133434   6.326  11.861   4.034 -0.3015 -0.1671  1.0456
40570SOL    HW233435   6.434  11.764   4.077  0.2527  0.1576  0.4035
40571SOL     OW33436   0.856   9.578   2.127  0.5620  0.1550 -0.0037
40571SOL    HW133437   0.940   9.617   2.152 -0.1781  2.0695 -0.3455
40571SOL    HW233438   0.880   9.492   2.092  2.2206  0.0418  1.2677
40572SOL     OW33439   0.087   3.830   0.751 -0.0057 -0.4041 -0.1031
40572SOL    HW133440   0.102   3.739   0.775 -1.2445 -0.9561 -1.2756
40572SOL    HW233441   0.141   3.880   0.812  1.8493 -1.9548 -0.3801
40573SOL     OW33442   0.139   7.417   5.464  0.9630 -0.3972  0.4521
40573SOL    HW133443   0.096   7.426   5.549  0.4473  0.0032  0.1573
40573SOL    HW233444   0.204   7.349   5.476  0.3045 -0.9487  0.9380
40574SOL     OW33445   9.070   8.379  10.733  0.1280  0.0603  0.6309
40574SOL    HW133446   9.072   8.456  10.790 -0.6718  1.0278 -0.5938
40574SOL    HW233447   9.086   8.414  10.646  0.3527 -1.2641  0.1232
40575SOL     OW33448   3.507   8.254   4.510 -0.8312 -0.2482 -0.4390
40575SOL    HW133449   3.433   8.194   4.524 -1.7512  0.6478 -1.2178
40575SOL    HW233450   3.538   8.234   4.422  0.0928 -0.8446  0.0080
40576SOL     OW33451   2.248   6.399   3.023 -0.4011  0.1365 -0.0610
40576SOL    HW133452   2.273   6.491   3.016 -1.3663  0.3260 -1.3601
40576SOL    HW233453   2.153   6.401   3.039 -0.3837 -0.6232  0.1736
40577SOL     OW33454   7.520   4.523  11.612 -0.6114  0.0804 -0.5037
40577SOL    HW133455   7.437   4.487  11.583 -0.2526 -0.0234 -1.4538
40577SOL    HW233456   7.497   4.591  11.675 -1.4504  0.4922 -1.2364
40578SOL     OW33457   4.476   6.797   3.418  0.7173 -0.7305  0.2286
40578SOL    HW133458   4.412   6.862   3.448  0.2133 -1.2363  0.2555
40578SOL    HW233459   4.440   6.766   3.335  1.3021 -0.4879 -0.1218
40579SOL     OW33460   3.406   6.867   3.982 -0.4990  0.2489 -0.4155
40579SOL    HW133461   3.484   6.880   4.037 -1.5528 -1.9408  1.7900
40579SOL    HW233462   3.358   6.949   3.990 -1.1579 -0.2900  3.0517
40580SOL     OW33463   4.918   1.324   6.977  0.2376 -0.5003 -0.3538
40580SOL    HW133464   4.936   1.417   6.965  0.5992 -0.4707  0.3675
40580SOL    HW233465   4.852   1.320   7.046  0.9134 -0.8172  0.2787
40581SOL     OW33466   8.033   1.256  10.729 -0.1378 -0.2165  0.3050
40581SOL    HW133467   8.073   1.286  10.647  0.9303 -2.0184  0.1300
40581SOL    HW233468   8.107   1.229  10.784 -0.9753 -1.4999  0.8525
40582SOL     OW33469   6.750   2.131   9.619  0.3642  0.1715  0.1329
40582SOL    HW133470   6.769   2.142   9.712 -0.9653  1.3044  0.2947
40582SOL    HW233471   6.678   2.068   9.617  1.3525 -0.9812 -0.2369
40583SOL     OW33472  11.256  11.404   5.084 -0.0178 -0.0509  0.0945
40583SOL    HW133473  11.326  11.434   5.141 -0.8383  1.7424  0.2422
40583SOL    HW233474  11.273  11.311   5.070  2.3222  0.3142  0.1888
40584SOL     OW33475   4.169   7.625   7.216  0.1723  0.5072  0.3814
40584SOL    HW133476   4.134   7.710   7.243  0.1702  0.4891  0.4365
40584SOL    HW233477   4.230   7.645   7.144  1.2389  0.7046  1.3113
40585SOL     OW33478   6.831   1.975  10.490  0.4507 -0.4044 -0.7795
40585SOL    HW133479   6.909   1.944  10.445  1.2258 -2.0847  1.5046
40585SOL    HW233480   6.855   2.060  10.526  0.7389 -0.2983 -1.2199
40586SOL     OW33481   1.341   3.197   0.710 -0.1626 -0.2452 -0.0126
40586SOL    HW133482   1.394   3.150   0.646  0.3304  0.5740 -0.2274
40586SOL    HW233483   1.259   3.215   0.665 -0.1100 -0.3501 -0.1510
40587SOL     OW33484   6.281   2.352   9.692 -0.1788  0.2257 -0.2414
40587SOL    HW133485   6.374   2.335   9.703  0.1365  0.2546 -2.3937
40587SOL    HW233486   6.242   2.265   9.680 -0.7091  0.0801  1.9893
40588SOL     OW33487   5.937   0.380   6.096 -0.1062  0.1237 -0.3905
40588SOL    HW133488   5.850   0.415   6.074 -0.9249 -1.7869 -0.3713
40588SOL    HW233489   5.937   0.376   6.192  0.9811  2.3778 -0.2353
40589SOL     OW33490   8.742   9.260   5.049  0.6348  0.0299  0.0095
40589SOL    HW133491   8.652   9.266   5.081  0.4574  0.9944 -0.6232
40589SOL    HW233492   8.788   9.208   5.115 -0.6291 -1.4703 -0.2320
40590SOL     OW33493  11.124   1.727   9.760  0.8366 -0.3935  0.1495
40590SOL    HW133494  11.112   1.632   9.752  0.8374 -0.6922  2.8082
40590SOL    HW233495  11.217   1.737   9.783  0.1532 -0.0601  3.0177
40591SOL     OW33496   3.649   4.523   9.616 -0.2788 -0.1535  0.7450
40591SOL    HW133497   3.743   4.526   9.602 -0.5681  1.0001 -1.3526
40591SOL    HW233498   3.617   4.461   9.551 -0.8898 -1.3637  2.1596
40592SOL     OW33499   8.354   6.328   2.777 -0.0364 -0.5025 -0.6258
40592SOL    HW133500   8.443   6.362   2.786 -0.7071  1.8320 -1.8978
40592SOL    HW233501   8.351   6.294   2.687 -0.0510 -1.9008 -0.1168
40593SOL     OW33502   0.701  11.767   9.510 -0.2038 -0.1458  0.3758
40593SOL    HW133503   0.642  11.739   9.440  0.2080 -1.2490  0.4537
40593SOL    HW233504   0.699  11.695   9.573  0.5589  0.1939  0.7972
40594SOL     OW33505  10.994   9.792  11.455 -0.2462 -0.0569  0.0556
40594SOL    HW133506  11.066   9.729  11.460 -0.7492 -0.8806 -1.9891
40594SOL    HW233507  11.038   9.877  11.457  0.7894 -0.5389 -0.7012
40595SOL     OW33508   9.593   0.154  10.537  0.1755 -0.0322 -0.7220
40595SOL    HW133509   9.611   0.170  10.630 -1.2189 -0.2191 -0.3941
40595SOL    HW233510   9.572   0.240  10.501 -1.3647 -0.2334 -0.3568
40596SOL     OW33511   7.961   5.778   0.734  0.6245  0.2081  0.1779
40596SOL    HW133512   7.940   5.834   0.809  1.3783 -0.3155  0.7956
40596SOL    HW233513   7.967   5.839   0.660 -0.6107  0.6681  0.4396
40597SOL     OW33514   6.463   8.637   7.016  0.4681  0.3365  0.1810
40597SOL    HW133515   6.527   8.567   7.003  0.1599  0.1124 -0.1307
40597SOL    HW233516   6.462   8.650   7.111 -0.0588 -0.6327  0.3148
40598SOL     OW33517   8.376   0.184   4.659  0.1873  0.1685  0.3155
40598SOL    HW133518   8.336   0.219   4.579  0.7628 -0.4441 -0.2467
40598SOL    HW233519   8.432   0.255   4.690  1.6770 -0.3484 -1.0561
40599SOL     OW33520   7.904   7.648   5.842  0.0254 -0.2226  0.6059
40599SOL    HW133521   7.963   7.685   5.908 -0.7652 -1.5253  2.1202
40599SOL    HW233522   7.818   7.684   5.863 -0.1011 -0.0123 -0.2442
40600SOL     OW33523   7.661   3.686   3.987 -0.0400  0.1151  0.7203
40600SOL    HW133524   7.573   3.724   3.987  0.2479  0.8692 -1.2665
40600SOL    HW233525   7.717   3.758   4.015  0.1434  0.2127  0.1138
40601SOL     OW33526   5.290  10.826   4.786  0.0928  0.2743 -0.1703
40601SOL    HW133527   5.266  10.737   4.762  1.3553  0.2238 -1.3609
40601SOL    HW233528   5.385  10.822   4.802  0.0037  1.2007  0.7338
40602SOL     OW33529   8.391   7.706   9.586 -0.1152 -0.5825  0.0686
40602SOL    HW133530   8.416   7.657   9.665 -1.6154 -1.3217  0.1359
40602SOL    HW233531   8.393   7.641   9.516  1.1898  0.0661 -0.5309
40603SOL     OW33532   5.675   6.801  10.572  0.2542 -0.3801 -0.2311
40603SOL    HW133533   5.607   6.770  10.631 -0.2451  0.4985 -0.3346
40603SOL    HW233534   5.733   6.725  10.561  1.3767 -0.0842  2.7750
40604SOL     OW33535   7.604   5.979   6.067  0.1294  0.1079  0.3487
40604SOL    HW133536   7.596   5.890   6.032 -1.8166  0.1680  0.5239
40604SOL    HW233537   7.639   6.030   5.994  2.5527 -1.0075  0.6506
40605SOL     OW33538   5.695   3.407   8.597  0.5014  0.1213 -0.1352
40605SOL    HW133539   5.758   3.392   8.667  0.4704  0.5023 -0.0243
40605SOL    HW233540   5.614   3.368   8.630  0.0222  1.8144  0.8046
40606SOL     OW33541   5.335   5.346   7.803  0.3448 -0.0428 -0.4132
40606SOL    HW133542   5.396   5.419   7.815 -1.1413  1.0792  0.7718
40606SOL    HW233543   5.339   5.298   7.886 -0.4093  0.0912 -0.2899
40607SOL     OW33544   9.500   1.651   1.847 -0.7205 -0.3031 -0.0182
40607SOL    HW133545   9.411   1.617   1.848 -0.8914  0.1045 -0.7665
40607SOL    HW233546   9.502   1.713   1.774  0.2920 -0.6217 -0.2859
40608SOL     OW33547   8.727   6.808   9.132 -0.1682  1.4484 -0.8490
40608SOL    HW133548   8.657   6.863   9.095  0.0981  1.7875 -0.8545
40608SOL    HW233549   8.723   6.825   9.226  0.8286  2.5835 -0.9782
40609SOL     OW33550   7.891   3.947   2.333 -0.1316 -0.2136 -0.2770
40609SOL    HW133551   7.908   4.022   2.275 -1.0047  0.2548  0.0701
40609SOL    HW233552   7.833   3.981   2.401 -0.5071 -1.1968 -0.0913
40610SOL     OW33553  11.771   4.487   4.338 -0.3589  0.4015  0.2097
40610SOL    HW133554  11.722   4.533   4.271 -0.3487  2.0069  1.2540
40610SOL    HW233555  11.762   4.394   4.315 -0.9013  0.8687 -1.5981
40611SOL     OW33556   9.026   9.627   1.432 -0.0717  0.0786  0.1712
40611SOL    HW133557   8.972   9.702   1.407 -0.2102 -0.1231 -0.1444
40611SOL    HW233558   9.116   9.656   1.417 -0.0599  0.5873  1.1583
40612SOL     OW33559   3.114   4.791   4.316 -0.5342 -0.2029  0.4045
40612SOL    HW133560   3.160   4.858   4.366  1.5267  0.3359 -1.9912
40612SOL    HW233561   3.023   4.820   4.314 -0.0423  1.5023  1.0175
40613SOL     OW33562   6.755   7.670   8.806  0.2083 -0.4220 -0.6210
40613SOL    HW133563   6.668   7.659   8.845  0.6865 -2.1874  0.0902
40613SOL    HW233564   6.779   7.761   8.824 -0.7216 -0.4373  0.8773
40614SOL     OW33565   7.461  10.005   5.837  0.4859  0.3838 -0.5816
40614SOL    HW133566   7.393  10.060   5.797  1.0295 -0.0427 -2.1763
40614SOL    HW233567   7.538  10.017   5.781  2.4710  2.4502  2.2967
40615SOL     OW33568   2.256   2.232   9.556  0.6269  0.4207 -0.1951
40615SOL    HW133569   2.292   2.162   9.610  0.4437  0.9501  0.6311
40615SOL    HW233570   2.162   2.232   9.576  0.6223  0.8842 -0.1920
40616SOL     OW33571   8.620   1.582   0.477  0.1970 -0.3358 -0.3540
40616SOL    HW133572   8.562   1.506   0.470 -0.6714  0.4049 -1.6925
40616SOL    HW233573   8.632   1.595   0.571 -5.6777  2.2615  0.4778
40617SOL     OW33574   7.691  11.448   4.507  0.2020  0.2398 -0.2657
40617SOL    HW133575   7.749  11.492   4.568 -0.9129  3.1759 -1.1687
40617SOL    HW233576   7.604  11.454   4.548  0.0168 -1.3285 -0.3603
40618SOL     OW33577   7.520   9.832   3.418 -0.1276  0.1698  0.5635
40618SOL    HW133578   7.567   9.793   3.492  1.1084  1.1237  0.3298
40618SOL    HW233579   7.485   9.914   3.453 -2.9466 -1.1487  1.1316
40619SOL     OW33580   6.891   6.947  11.236 -0.7254  0.4523  0.0752
40619SOL    HW133581   6.946   6.892  11.179 -1.3398 -0.0712 -0.0272
40619SOL    HW233582   6.848   7.008  11.176 -1.3501 -0.0802 -0.0345
40620SOL     OW33583   6.641   7.685   1.269  0.0001 -0.0355 -0.2207
40620SOL    HW133584   6.648   7.672   1.364  0.6104 -0.9329 -0.3814
40620SOL    HW233585   6.703   7.755   1.250  0.3912 -0.3382 -0.0565
40621SOL     OW33586   7.402   5.931  10.278  0.4391 -0.0766 -0.0708
40621SOL    HW133587   7.465   5.981  10.329 -0.5443  0.9201  0.1943
40621SOL    HW233588   7.386   5.852  10.331  2.4256 -1.0286 -0.7634
40622SOL     OW33589   3.788   3.557   5.888 -0.1110 -0.1348  0.2814
40622SOL    HW133590   3.873   3.547   5.845  0.5029 -0.7862  1.5793
40622SOL    HW233591   3.802   3.628   5.951 -0.6274 -0.0574  0.3092
40623SOL     OW33592   2.409   7.755   0.632 -0.7535  0.0555  1.0974
40623SOL    HW133593   2.367   7.789   0.711  0.0513 -1.0367  2.0293
40623SOL    HW233594   2.476   7.821   0.611 -1.2044  0.5230  1.1162
40624SOL     OW33595  10.823   0.332   8.692 -0.2732 -0.1414  0.4102
40624SOL    HW133596  10.838   0.271   8.620  2.1836  1.3054 -0.4386
40624SOL    HW233597  10.728   0.340   8.697 -0.5659 -1.2665 -1.8353
40625SOL     OW33598  10.867   8.762  10.510  0.9534 -0.4098  0.1440
40625SOL    HW133599  10.820   8.681  10.491 -0.5007  0.5657 -0.6461
40625SOL    HW233600  10.799   8.821  10.544  1.6759  0.9258 -0.6512
40626SOL     OW33601   8.315   4.534  10.155  0.5174 -0.2473  0.5800
40626SOL    HW133602   8.253   4.566  10.089  0.7699  0.1523  0.5323
40626SOL    HW233603   8.333   4.443  10.129  0.3141 -0.2175  0.3247
40627SOL     OW33604   6.958   3.157   2.758  0.1559  0.4536  0.2612
40627SOL    HW133605   6.881   3.107   2.732  2.2012 -1.5819 -2.5251
40627SOL    HW233606   6.923   3.234   2.803 -3.5664  0.4243 -2.1717
40628SOL     OW33607   0.471   3.236   7.731  0.0405  0.1615  0.0845
40628SOL    HW133608   0.419   3.207   7.806 -1.5982  0.3826 -0.9294
40628SOL    HW233609   0.526   3.160   7.709 -1.4470 -0.8838 -0.1628
40629SOL     OW33610   4.437   5.405   8.115  0.3233 -0.6009 -0.2327
40629SOL    HW133611   4.496   5.409   8.040  1.9912  0.3529  1.0458
40629SOL    HW233612   4.454   5.486   8.163 -2.5028 -0.0084 -0.0842
40630SOL     OW33613  10.994   7.565   6.667  0.3087 -0.2382  0.0397
40630SOL    HW133614  10.963   7.514   6.592 -0.0959  1.0702 -0.7184
40630SOL    HW233615  10.994   7.655   6.636  0.1546  0.3387  1.6189
40631SOL     OW33616   0.039   0.242   2.571 -0.7528 -0.0907  0.3321
40631SOL    HW133617   0.065   0.156   2.606 -0.0639  0.2805  0.7491
40631SOL    HW233618   0.108   0.302   2.601 -1.2223  0.6077  0.0315
40632SOL     OW33619   1.609   7.228   3.006  0.8319  0.9468 -0.2974
40632SOL    HW133620   1.662   7.203   2.931 -0.3496 -0.6312 -0.6776
40632SOL    HW233621   1.521   7.240   2.970  0.4929  1.3367  0.6380
40633SOL     OW33622   7.331   3.904  10.380 -0.1728  0.3147 -0.4889
40633SOL    HW133623   7.373   3.852  10.448 -2.2929  0.3829  0.9582
40633SOL    HW233624   7.388   3.980  10.368  0.5698 -0.0370  0.7446
40634SOL     OW33625   0.793   3.278   1.730 -0.8850 -0.1556  0.5403
40634SOL    HW133626   0.860   3.217   1.761 -0.6076 -0.4872 -0.6662
40634SOL    HW233627   0.749   3.231   1.659  1.8177  2.2954 -3.1171
40635SOL     OW33628   4.501   3.179   0.063 -0.5131 -0.1418  0.2258
40635SOL    HW133629   4.547   3.128   0.130 -2.0560 -0.2502  1.2482
40635SOL    HW233630   4.570   3.228   0.018  0.5491  0.1017  2.0494
40636SOL     OW33631   5.229   0.384   9.059  0.0643 -0.1083  0.7203
40636SOL    HW133632   5.135   0.371   9.070 -0.4037  2.6197  0.6187
40636SOL    HW233633   5.268   0.356   9.142 -0.8239 -1.1492  0.7987
40637SOL     OW33634   9.617  11.833   3.304  0.3109 -0.5504 -0.2086
40637SOL    HW133635   9.628  11.855   3.211 -4.5211  0.9990 -0.7128
40637SOL    HW233636   9.657  11.906   3.351 -0.5159  0.6719 -1.3167
40638SOL     OW33637   8.500   7.012  10.451 -0.3842 -0.0252  0.1722
40638SOL    HW133638   8.564   6.951  10.487  0.2476  0.5027 -0.0349
40638SOL    HW233639   8.467   6.968  10.372  0.5626  0.1681 -0.3528
40639SOL     OW33640   6.293   0.139  11.459  0.8411 -0.0022  0.8255
40639SOL    HW133641   6.322   0.064  11.406 -0.5129  0.9532 -1.4418
40639SOL    HW233642   6.354   0.210  11.434  0.3559  0.3886  0.7405
40640SOL     OW33643   3.122   8.000   5.775  0.6391  0.6078  0.0706
40640SOL    HW133644   3.128   7.994   5.870 -2.1083  2.0430  0.4292
40640SOL    HW233645   3.044   8.053   5.759  0.1566 -0.8163 -3.0010
40641SOL     OW33646   6.500   7.104   1.871  0.0296  0.4692 -0.6172
40641SOL    HW133647   6.450   7.177   1.835  1.0007  0.2794 -2.4614
40641SOL    HW233648   6.526   7.133   1.958 -0.6425  1.8130 -0.8444
40642SOL     OW33649   1.538   6.309  10.087 -0.1361 -0.1363 -0.0841
40642SOL    HW133650   1.505   6.292  10.175  0.0504 -0.8668 -0.1505
40642SOL    HW233651   1.631   6.329  10.100  0.2831 -1.8343 -0.2515
40643SOL     OW33652   9.653   2.189  11.627 -0.2146  0.7674 -0.1458
40643SOL    HW133653   9.623   2.161  11.713 -0.9958 -1.3891 -1.0382
40643SOL    HW233654   9.605   2.270  11.610  1.7074  2.5742  2.3314
40644SOL     OW33655   7.180  10.230   7.398  0.5751  0.1767 -0.0222
40644SOL    HW133656   7.219  10.224   7.311  0.9111  0.3237  0.1175
40644SOL    HW233657   7.093  10.191   7.388  1.1487 -1.1086 -0.0954
40645SOL     OW33658   6.700   6.018  11.770 -0.3419 -0.1535  0.1556
40645SOL    HW133659   6.685   6.040  11.862  0.6247  2.9020 -0.2788
40645SOL    HW233660   6.793   6.037  11.756 -0.6802  0.3841 -1.6523
40646SOL     OW33661   0.971   3.715   1.680 -0.0108 -0.0916 -0.4495
40646SOL    HW133662   0.962   3.760   1.764  0.2689  1.4071 -1.1850
40646SOL    HW233663   0.892   3.661   1.673 -0.8757  1.0684  0.0225
40647SOL     OW33664   9.322   0.366   6.518 -0.4274  0.1381  0.4311
40647SOL    HW133665   9.380   0.352   6.592  0.1738  1.3755  0.2384
40647SOL    HW233666   9.375   0.419   6.457 -0.8246 -1.0203 -0.9676
40648SOL     OW33667   5.225   5.621   4.847  0.3216 -0.2908  0.0626
40648SOL    HW133668   5.210   5.533   4.880  0.0917  0.1896  1.2933
40648SOL    HW233669   5.301   5.613   4.790  0.2443 -1.3023  0.0972
40649SOL     OW33670   1.601   7.773   0.015  0.0412 -0.0124 -0.4586
40649SOL    HW133671   1.670   7.802  -0.044 -0.1298  1.5380  0.0736
40649SOL    HW233672   1.631   7.797   0.102  0.3302 -2.3619  0.1641
40650SOL     OW33673   5.341   0.321   3.703 -0.1251 -0.1858 -0.7345
40650SOL    HW133674   5.430   0.290   3.719 -0.0973  0.3135  0.1865
40650SOL    HW233675   5.345   0.415   3.719 -0.9035 -0.2226 -0.2210
40651SOL     OW33676   3.047   9.393   7.047  0.0141 -0.5874  0.3164
40651SOL    HW133677   3.076   9.369   7.135 -1.0360 -0.8564  0.6042
40651SOL    HW233678   3.025   9.310   7.005  0.0318 -0.4224 -0.0278
40652SOL     OW33679   8.222   1.182  10.906  0.0935 -0.2824  0.2076
40652SOL    HW133680   8.314   1.179  10.879  0.0479 -3.6542  0.0142
40652SOL    HW233681   8.221   1.241  10.981  2.3341  0.2309 -0.0986
40653SOL     OW33682   7.220  10.141   4.983  0.1975 -0.0805 -0.1083
40653SOL    HW133683   7.315  10.130   4.988  0.2181  0.3341  0.4907
40653SOL    HW233684   7.191  10.143   5.075 -0.2725  0.8026 -0.2625
40654SOL     OW33685  11.817   3.687   8.146 -0.2836 -0.0969 -0.8989
40654SOL    HW133686  11.860   3.700   8.062  0.1855  1.0186 -0.5072
40654SOL    HW233687  11.885   3.704   8.211 -0.9757  0.3882 -0.2832
40655SOL     OW33688   5.915   7.185  10.887 -0.4848  0.2286  0.5300
40655SOL    HW133689   5.948   7.156  10.803  1.0662  0.5815  0.9870
40655SOL    HW233690   5.832   7.229  10.867 -0.6919 -0.6557 -0.6500
40656SOL     OW33691   1.110   7.191  11.338 -0.0851 -0.1955  0.6599
40656SOL    HW133692   1.023   7.158  11.359 -0.0597 -2.2856 -2.0684
40656SOL    HW233693   1.095   7.265  11.279 -0.0237 -0.0604  0.8121
40657SOL     OW33694   8.139   9.362   7.679  0.0111  0.1988 -0.0635
40657SOL    HW133695   8.045   9.367   7.663 -0.0263  0.0720  0.1142
40657SOL    HW233696   8.147   9.339   7.772  0.1836 -1.4862 -0.4583
40658SOL     OW33697   1.340   2.784   3.932 -0.0810  0.1184 -0.5501
40658SOL    HW133698   1.398   2.751   3.862  1.3141  1.2834  0.0148
40658SOL    HW233699   1.260   2.732   3.922  1.9502 -3.5617  0.3186
40659SOL     OW33700   2.467   5.271   3.910  0.0619 -0.0016 -0.2647
40659SOL    HW133701   2.432   5.343   3.963 -0.2861  2.0084 -2.9585
40659SOL    HW233702   2.402   5.202   3.916 -1.1181  1.0990  0.0954
40660SOL     OW33703   7.015   5.587   9.351  0.1269 -0.9132 -0.3769
40660SOL    HW133704   6.971   5.618   9.272  1.3965 -1.3175 -1.2890
40660SOL    HW233705   7.012   5.491   9.343  1.2547 -0.9526 -0.5447
40661SOL     OW33706   1.052   3.453   0.424  0.3353 -0.0325  0.2403
40661SOL    HW133707   1.009   3.378   0.465 -0.4509  0.0123 -0.4864
40661SOL    HW233708   0.988   3.524   0.431  0.7875  0.3821  0.2703
40662SOL     OW33709   7.007   6.852   0.003  0.0539 -0.0319  0.6689
40662SOL    HW133710   6.951   6.929   0.010 -1.0913 -0.2304 -3.6023
40662SOL    HW233711   7.094   6.887  -0.015 -0.5975  0.4822 -2.0546
40663SOL     OW33712   0.924   2.904   3.811  0.2566  0.4637 -0.2162
40663SOL    HW133713   0.869   2.914   3.889  2.0240  0.8317  1.0494
40663SOL    HW233714   0.862   2.895   3.739 -1.5357  3.4322  0.7638
40664SOL     OW33715   9.193   3.116   7.456  0.1767 -0.6047  0.3670
40664SOL    HW133716   9.215   3.207   7.440 -0.1630 -0.8193 -1.5185
40664SOL    HW233717   9.178   3.111   7.550  1.9035  0.8989  0.7745
40665SOL     OW33718   3.818   1.833   8.188 -0.0313 -0.1691 -0.5491
40665SOL    HW133719   3.894   1.788   8.150  0.8911 -0.0100  1.0332
40665SOL    HW233720   3.851   1.920   8.211 -0.4094 -0.4078  1.0064
40666SOL     OW33721   7.151  10.212   4.403 -0.0118  0.5071  0.0339
40666SOL    HW133722   7.190  10.133   4.366  0.7239 -0.3705  2.4907
40666SOL    HW233723   7.120  10.261   4.327  0.2006 -1.7579 -1.6222
40667SOL     OW33724   6.250   9.163  10.048  0.0005 -0.5846 -0.5056
40667SOL    HW133725   6.298   9.152   9.967  2.0994  1.8022  0.2628
40667SOL    HW233726   6.193   9.239  10.032  0.8696  0.2848  0.3611
40668SOL     OW33727   0.846   2.413   2.791 -0.7294  0.0486 -0.4662
40668SOL    HW133728   0.907   2.486   2.800 -1.2861  0.6936 -1.6573
40668SOL    HW233729   0.852   2.387   2.699  2.3329 -4.0569  0.5811
40669SOL     OW33730   9.351   1.183   0.836 -0.2912 -0.3217  0.3762
40669SOL    HW133731   9.314   1.169   0.923 -0.3562  0.3807  0.4696
40669SOL    HW233732   9.427   1.126   0.833  0.6898  0.8503  1.5331
40670SOL     OW33733   4.020   3.350   2.894 -0.8036  0.3179  0.9706
40670SOL    HW133734   4.078   3.312   2.827 -0.8738  0.0964  1.0353
40670SOL    HW233735   4.049   3.311   2.976 -0.4934  0.8501  1.1236
40671SOL     OW33736   6.037   1.058   7.436  0.1837  0.1023 -0.1066
40671SOL    HW133737   6.042   0.978   7.489  0.3855  0.9759  1.2496
40671SOL    HW233738   6.075   1.034   7.352  0.8000 -1.0676  0.4857
40672SOL     OW33739   2.940   5.548   3.483 -0.1491 -0.4330  0.0031
40672SOL    HW133740   2.880   5.606   3.437  0.1363 -0.3736 -0.2944
40672SOL    HW233741   2.989   5.504   3.414  0.6295  0.0243  0.2528
40673SOL     OW33742   0.274   8.847   8.726  0.0071 -0.2873 -0.1839
40673SOL    HW133743   0.200   8.792   8.752 -0.4607 -0.1939 -1.2630
40673SOL    HW233744   0.279   8.915   8.793 -1.7651  0.5082 -0.8145
40674SOL     OW33745   7.417   4.823   0.180 -0.5396 -0.2363 -0.0761
40674SOL    HW133746   7.393   4.731   0.193 -0.7163 -0.3088 -0.8566
40674SOL    HW233747   7.365   4.871   0.245 -0.3359 -0.6969  0.4310
40675SOL     OW33748   1.174   1.251   3.777  0.5169  0.3387  0.1518
40675SOL    HW133749   1.259   1.277   3.741  1.2303 -0.6619  1.0647
40675SOL    HW233750   1.120   1.233   3.700  0.7973  1.9381 -0.4638
40676SOL     OW33751   8.936   7.248   8.369  0.1815  0.3984 -0.0459
40676SOL    HW133752   8.908   7.166   8.329  0.0699  1.3543 -2.0993
40676SOL    HW233753   8.886   7.253   8.451 -1.3887 -0.6147 -0.8771
40677SOL     OW33754   1.404   2.752   5.810  0.0299  0.3713  0.0840
40677SOL    HW133755   1.477   2.713   5.763  0.0580  0.9724 -0.3906
40677SOL    HW233756   1.333   2.755   5.745 -0.5670 -0.6152  0.6627
40678SOL     OW33757   6.505   1.796   1.032 -0.1878 -0.2092 -0.1588
40678SOL    HW133758   6.578   1.735   1.018 -0.0371 -0.2646  0.7985
40678SOL    HW233759   6.441   1.772   0.965  0.3198 -0.7139 -0.4769
40679SOL     OW33760   0.710   8.108   0.520  0.5999 -0.0721 -0.3065
40679SOL    HW133761   0.658   8.167   0.465 -0.0631 -1.0106 -0.7054
40679SOL    HW233762   0.793   8.100   0.473  0.1653 -0.5919 -1.0130
40680SOL     OW33763   1.660   1.600   2.133 -0.2819  0.0477 -0.0673
40680SOL    HW133764   1.602   1.676   2.136 -0.3076  0.0248  0.0161
40680SOL    HW233765   1.744   1.635   2.103 -0.3703  0.0611 -0.2997
40681SOL     OW33766   1.305   4.450  10.276  0.3165 -0.1879 -0.0862
40681SOL    HW133767   1.392   4.457  10.315 -0.5391  0.6997  1.8110
40681SOL    HW233768   1.298   4.527  10.219  0.9041 -0.4811 -0.5599
40682SOL     OW33769   3.392   5.724   2.036 -0.8208  0.3056 -0.2679
40682SOL    HW133770   3.363   5.811   2.064 -0.8231  0.2952 -0.2375
40682SOL    HW233771   3.477   5.713   2.078 -0.7869  0.3236 -0.3325
40683SOL     OW33772   1.520   1.319   6.974  0.1260 -0.4399 -0.6406
40683SOL    HW133773   1.486   1.395   6.927 -0.2162  0.4165  0.9103
40683SOL    HW233774   1.442   1.270   7.001  0.0984  0.6689  1.5293
40684SOL     OW33775  11.329   8.341   5.708 -0.3122 -0.3417 -0.5066
40684SOL    HW133776  11.334   8.262   5.654 -0.3678 -2.1652  1.9938
40684SOL    HW233777  11.417   8.350   5.746 -0.2226  1.0066 -0.9512
40685SOL     OW33778   8.051  11.550   0.988 -0.1198 -0.1390 -0.0241
40685SOL    HW133779   8.107  11.522   1.060  1.8995  1.5013 -0.8950
40685SOL    HW233780   8.084  11.502   0.912 -1.8019 -1.3433 -0.0516
40686SOL     OW33781   2.146   3.960   2.848 -0.2143  0.0798  0.2947
40686SOL    HW133782   2.172   3.973   2.756  0.1372  3.3637  0.7487
40686SOL    HW233783   2.228   3.945   2.894 -0.1301  0.7032  0.3598
40687SOL     OW33784  11.919  11.689  10.666  0.2225  0.5211  0.0142
40687SOL    HW133785  11.921  11.782  10.644 -0.5994  0.2996 -1.0644
40687SOL    HW233786  11.830  11.660  10.643 -0.7370  0.2048  3.4917
40688SOL     OW33787   9.320   1.280   2.236 -0.3180 -0.2687 -0.1296
40688SOL    HW133788   9.401   1.239   2.205 -0.2539 -1.6749  1.6696
40688SOL    HW233789   9.283   1.215   2.297 -0.7762  1.9227  2.0836
40689SOL     OW33790   1.873   2.544   1.011 -1.0196  0.8537 -0.6366
40689SOL    HW133791   1.935   2.553   0.939 -0.1233  1.5545  0.1909
40689SOL    HW233792   1.841   2.633   1.026 -0.6359  0.8492  0.2902
40690SOL     OW33793   0.432   3.702  10.493 -0.1316  0.0766 -0.5060
40690SOL    HW133794   0.411   3.781  10.443  1.0627  1.2917  0.8092
40690SOL    HW233795   0.364   3.640  10.469 -1.4821  1.7089 -1.1219
40691SOL     OW33796  10.543   3.263   6.340 -0.0095 -0.3904 -0.0098
40691SOL    HW133797  10.459   3.306   6.328  0.7721  0.9644 -1.0002
40691SOL    HW233798  10.541   3.230   6.430 -1.4128  0.0175  0.1232
40692SOL     OW33799   7.170   0.428   3.795  0.0399 -0.4267  0.8186
40692SOL    HW133800   7.205   0.512   3.825  1.5716 -0.3382 -1.0385
40692SOL    HW233801   7.077   0.432   3.816  0.2604  1.3153  1.6669
40693SOL     OW33802   5.962   0.843   7.070 -0.5989 -0.6478  0.0960
40693SOL    HW133803   5.880   0.807   7.103 -0.9309 -0.7771 -0.8268
40693SOL    HW233804   5.993   0.778   7.007  0.7457 -1.0822  1.1531
40694SOL     OW33805   8.419   1.492   2.653 -0.0662  0.4506 -0.5212
40694SOL    HW133806   8.485   1.455   2.594 -2.1226 -1.8064 -1.6001
40694SOL    HW233807   8.358   1.420   2.669 -1.4530  1.9789  1.6672
40695SOL     OW33808   9.862   1.007   0.654  0.4673 -0.1696  0.5786
40695SOL    HW133809   9.936   0.988   0.597  0.6899 -0.9168  1.1013
40695SOL    HW233810   9.786   1.007   0.596  0.5793 -1.7731  0.4042
40696SOL     OW33811   4.571   3.369   4.028  1.1232 -0.3820 -0.2070
40696SOL    HW133812   4.611   3.344   4.111 -0.0780 -0.6250  0.3176
40696SOL    HW233813   4.639   3.418   3.982  1.9190 -0.5509  0.7686
40697SOL     OW33814   6.199   5.279   1.428 -0.0428  0.2263 -0.0031
40697SOL    HW133815   6.167   5.320   1.347  0.1153 -1.1364 -0.7959
40697SOL    HW233816   6.121   5.269   1.482  0.1174  2.8368  0.8615
40698SOL     OW33817   7.220   7.215   8.517 -0.0749 -0.2936  0.0780
40698SOL    HW133818   7.211   7.292   8.460 -2.4837 -0.8434 -0.3655
40698SOL    HW233819   7.173   7.239   8.597  0.6233 -0.7064  0.6295
40699SOL     OW33820   7.743   6.217   1.586 -0.0764  0.3045  0.6507
40699SOL    HW133821   7.825   6.253   1.551 -0.6363  1.4936  0.5170
40699SOL    HW233822   7.762   6.198   1.678  0.7099 -0.6229  0.3161
40700SOL     OW33823   7.262   6.336   0.133 -0.0702 -0.0882 -0.5240
40700SOL    HW133824   7.338   6.378   0.093 -0.9393  2.3957  0.2471
40700SOL    HW233825   7.244   6.388   0.211 -1.6318 -1.5775  0.1820
40701SOL     OW33826  10.380   1.786   1.493 -0.5043 -0.2191  0.9233
40701SOL    HW133827  10.440   1.756   1.425  0.9826  0.8140  1.7078
40701SOL    HW233828  10.309   1.723   1.492 -1.2118  0.4374 -2.4244
40702SOL     OW33829   3.253   6.359   1.253  0.0759  0.0985  0.1887
40702SOL    HW133830   3.243   6.367   1.348 -0.4564  1.9959  0.0100
40702SOL    HW233831   3.175   6.401   1.217  1.3894  1.5885 -1.0913
40703SOL     OW33832   4.022   4.389   6.065  0.7984  0.0797 -0.1866
40703SOL    HW133833   4.003   4.404   6.157  1.4746  1.6815 -0.2651
40703SOL    HW233834   3.937   4.392   6.022  0.5019 -0.4727  0.3522
40704SOL     OW33835   8.243   1.297   5.486 -0.3995  0.0151  0.1659
40704SOL    HW133836   8.230   1.390   5.466  0.6299  0.3388  0.9209
40704SOL    HW233837   8.293   1.297   5.568 -0.0235 -1.2033 -0.0477
40705SOL     OW33838   0.506   0.546   4.512 -0.3855  0.1146  0.2749
40705SOL    HW133839   0.469   0.628   4.480 -2.8083 -1.5071 -1.5162
40705SOL    HW233840   0.591   0.540   4.469 -0.6741  1.1705 -0.4893
40706SOL     OW33841   8.369  11.345   6.200  0.5853  0.5607  0.2411
40706SOL    HW133842   8.333  11.418   6.149  0.4531  0.4929  0.2388
40706SOL    HW233843   8.293  11.308   6.245  0.6429  0.3780  0.1854
40707SOL     OW33844   2.236   4.270   2.355  0.2593 -0.4268  0.0526
40707SOL    HW133845   2.246   4.326   2.432 -0.7057  0.0390 -0.1458
40707SOL    HW233846   2.181   4.198   2.384 -1.5002  0.5980 -0.5821
40708SOL     OW33847   8.311   3.288   2.269 -0.6761  0.0746  0.4168
40708SOL    HW133848   8.321   3.217   2.332 -1.2644 -0.3200  0.0686
40708SOL    HW233849   8.337   3.250   2.185  0.0552  0.5848  0.4008
40709SOL     OW33850  10.839   1.232  10.709 -0.1239  0.1977  0.0775
40709SOL    HW133851  10.877   1.167  10.768 -0.1878 -0.2574 -0.3843
40709SOL    HW233852  10.744   1.225  10.723 -0.0781  1.2179  1.1068
40710SOL     OW33853   1.774   1.943   3.166 -0.0779  0.4872  0.3512
40710SOL    HW133854   1.863   1.970   3.191  0.2258  1.1531 -1.3230
40710SOL    HW233855   1.735   2.023   3.131 -0.0354 -0.6237 -2.4011
40711SOL     OW33856   3.708   0.722   4.370  0.4817  0.3477 -0.6806
40711SOL    HW133857   3.755   0.723   4.287  0.4054  1.7996 -0.7223
40711SOL    HW233858   3.760   0.776   4.429  0.4001 -0.4522  0.1527
40712SOL     OW33859   8.714   5.182  11.158 -1.0256 -0.0841 -0.2840
40712SOL    HW133860   8.627   5.221  11.168 -0.7406  1.1347 -1.9817
40712SOL    HW233861   8.770   5.234  11.216 -1.5585 -1.5385  1.6119
40713SOL     OW33862   8.360   5.110  10.698  0.0472  0.1320 -0.0115
40713SOL    HW133863   8.333   5.153  10.779 -1.8022 -0.9545 -0.0029
40713SOL    HW233864   8.427   5.168  10.662 -0.0550  1.3376  1.5904
40714SOL     OW33865   3.490   2.713   8.503 -0.2916  0.4159 -0.0204
40714SOL    HW133866   3.495   2.792   8.556  0.3861  1.1618 -1.1512
40714SOL    HW233867   3.560   2.723   8.439 -0.2325 -1.0802 -0.2211
40715SOL     OW33868   1.331   9.091   5.791 -0.0680  0.8133  0.3905
40715SOL    HW133869   1.348   9.011   5.741  1.1128  1.7011 -0.6822
40715SOL    HW233870   1.251   9.071   5.841  0.4786 -1.1919  0.5421
40716SOL     OW33871   9.601   4.479   4.042 -0.2939 -0.5847 -0.4281
40716SOL    HW133872   9.587   4.507   4.133  0.4284 -0.1205 -0.4541
40716SOL    HW233873   9.695   4.488   4.028 -0.1741 -2.0719 -0.7652
40717SOL     OW33874   0.160   5.699   0.296  0.3250  0.0330 -0.1563
40717SOL    HW133875   0.118   5.782   0.275  0.4169 -0.0752 -0.7872
40717SOL    HW233876   0.205   5.673   0.215  2.1050  0.4312  0.6472
40718SOL     OW33877   0.897   3.648   2.406  0.2231 -0.0784  0.4521
40718SOL    HW133878   0.806   3.625   2.388  0.7489 -0.4997 -1.9641
40718SOL    HW233879   0.944   3.565   2.404  1.0644  0.3936 -1.2469
40719SOL     OW33880   3.059  11.392   7.922 -0.6889  0.1493  0.4770
40719SOL    HW133881   3.041  11.419   8.013  0.6819  0.3643  0.7079
40719SOL    HW233882   3.132  11.447   7.896  0.0285 -1.0881 -0.1880
40720SOL     OW33883   6.870   2.658   7.685  0.1746 -0.3301  0.0566
40720SOL    HW133884   6.792   2.628   7.732 -1.6088 -0.5376 -2.8500
40720SOL    HW233885   6.915   2.577   7.660  0.4264 -0.2531  0.2530
40721SOL     OW33886   4.507   5.748  10.897  0.8724 -0.0907  0.5336
40721SOL    HW133887   4.450   5.734  10.821  0.4505 -1.6495  1.0835
40721SOL    HW233888   4.540   5.837  10.887 -0.1129  0.1514 -0.8418
40722SOL     OW33889   1.732   9.411   4.420 -0.1135  0.3737  0.1732
40722SOL    HW133890   1.651   9.401   4.469 -0.7433 -1.2065 -1.1120
40722SOL    HW233891   1.704   9.413   4.328  1.3038 -0.1460 -0.2889
40723SOL     OW33892   5.201  11.601   8.784  0.8475 -0.3462 -0.2966
40723SOL    HW133893   5.224  11.513   8.753 -1.5870 -0.9327 -0.7042
40723SOL    HW233894   5.140  11.585   8.856 -0.4710  0.9796 -1.0724
40724SOL     OW33895   6.288   2.423  11.820  0.3666  0.2848  0.3396
40724SOL    HW133896   6.315   2.380  11.739 -2.2825 -1.9993  0.5246
40724SOL    HW233897   6.346   2.386  11.887 -0.9315 -2.0889  0.2618
40725SOL     OW33898   4.793   9.745   9.798 -0.0075  0.1950 -0.1518
40725SOL    HW133899   4.726   9.738   9.730  2.1345 -2.7206 -2.2073
40725SOL    HW233900   4.839   9.827   9.778 -0.7002  0.4092 -0.9090
40726SOL     OW33901   3.095   7.591  11.867  0.0010  0.2096 -0.4464
40726SOL    HW133902   3.026   7.640  11.912 -0.4380 -0.4453 -0.4031
40726SOL    HW233903   3.169   7.593  11.927 -0.9240 -1.5930  0.8210
40727SOL     OW33904   6.899   2.461   8.726  0.1432 -0.2288 -0.0093
40727SOL    HW133905   6.898   2.548   8.685  0.7200  0.6437  1.7075
40727SOL    HW233906   6.859   2.403   8.662 -1.6342  1.5857 -0.6278
40728SOL     OW33907   7.004   5.656   2.789  0.5171 -0.3226  0.3774
40728SOL    HW133908   7.001   5.742   2.831 -0.8766 -0.3001  0.2760
40728SOL    HW233909   7.092   5.652   2.750  0.9784  0.6119  1.2691
40729SOL     OW33910  10.848   1.222   2.488 -0.0853  0.0845  0.2021
40729SOL    HW133911  10.820   1.215   2.396 -1.0983  0.7789  0.4341
40729SOL    HW233912  10.777   1.181   2.537  0.1042  0.3690  0.7142
40730SOL     OW33913  10.419   0.251   1.546  0.0214  0.1269  0.0127
40730SOL    HW133914  10.371   0.333   1.560  0.3458  0.4993 -0.9505
40730SOL    HW233915  10.500   0.263   1.595  0.1183  0.4442 -0.2158
40731SOL     OW33916  11.583  11.174  11.137 -0.1666  0.3930 -0.1296
40731SOL    HW133917  11.625  11.253  11.104 -0.4450  0.6496  0.1300
40731SOL    HW233918  11.528  11.144  11.064  2.9249 -1.8303 -1.7784
40732SOL     OW33919  11.677   5.451   2.982 -0.5151 -0.6308  0.0596
40732SOL    HW133920  11.767   5.436   2.953 -0.4753 -1.0351  0.3821
40732SOL    HW233921  11.680   5.438   3.077 -0.0704  3.1972  0.7233
40733SOL     OW33922  10.868   6.638   9.020 -0.4662  0.1908 -0.5945
40733SOL    HW133923  10.808   6.631   8.946  0.3299  0.9239 -1.3232
40733SOL    HW233924  10.936   6.573   9.002  0.2874  1.0915 -1.0550
40734SOL     OW33925   6.145   3.548   5.902  0.0956  0.7554  0.2627
40734SOL    HW133926   6.157   3.484   5.831 -3.0766 -0.2581  0.4760
40734SOL    HW233927   6.054   3.536   5.929  0.6311  2.5043  3.2023
40735SOL     OW33928   9.021   9.802  10.059  0.1525 -0.1510 -0.6849
40735SOL    HW133929   8.939   9.825  10.015 -0.9364  2.5387  2.3427
40735SOL    HW233930   9.019   9.707  10.067 -2.8329 -0.1521 -0.5243
40736SOL     OW33931   2.446   4.377  10.781  0.0828  0.0164  0.5147
40736SOL    HW133932   2.388   4.377  10.857 -0.1447 -1.1190  0.3603
40736SOL    HW233933   2.465   4.469  10.765 -2.3597  0.5237  0.0663
40737SOL     OW33934   0.828   0.993  11.114  0.3546  0.5168  0.9156
40737SOL    HW133935   0.773   1.070  11.129 -1.3845 -0.5417  0.2489
40737SOL    HW233936   0.797   0.958  11.030  0.4555 -1.4293  1.6505
40738SOL     OW33937   0.883   6.749   9.357 -0.4747  0.1144  0.5557
40738SOL    HW133938   0.932   6.669   9.372  0.6618  1.0885  2.3306
40738SOL    HW233939   0.948   6.819   9.359 -1.4984  1.1475 -0.4707
40739SOL     OW33940  11.075   5.181   8.811 -0.1525  1.0948 -0.1370
40739SOL    HW133941  11.067   5.089   8.837  0.0646  1.2458  0.4969
40739SOL    HW233942  11.105   5.178   8.720  0.1203  0.5373 -0.0331
40740SOL     OW33943   2.585   5.422   2.070  0.4326  0.0205 -0.1765
40740SOL    HW133944   2.516   5.466   2.021  0.6364  0.6780  0.1216
40740SOL    HW233945   2.666   5.448   2.026  0.4459 -1.5743 -1.1743
40741SOL     OW33946   6.709   4.123   3.036 -0.2051 -0.7879  0.5474
40741SOL    HW133947   6.620   4.129   3.001  0.0135  0.8877  0.2003
40741SOL    HW233948   6.743   4.212   3.031  0.6092 -0.8688  3.0242
40742SOL     OW33949   8.668   2.767   6.955 -0.3797 -0.2186  0.2149
40742SOL    HW133950   8.631   2.847   6.993 -2.9555 -1.1995 -0.0253
40742SOL    HW233951   8.696   2.716   7.031 -0.4791  0.1110  0.4764
40743SOL     OW33952   7.420   1.795   4.675 -0.4009 -0.4380 -0.1516
40743SOL    HW133953   7.480   1.790   4.600  0.1862  0.9034  0.1966
40743SOL    HW233954   7.370   1.876   4.660 -0.9071 -0.6360  0.4460
40744SOL     OW33955   2.724   0.384   5.104 -0.4705  0.6636  0.0223
40744SOL    HW133956   2.638   0.382   5.062 -0.2581 -0.1823 -0.4021
40744SOL    HW233957   2.737   0.475   5.128 -0.6806  1.1579 -1.6052
40745SOL     OW33958   1.141   1.584   7.441  0.1422 -0.0336 -0.4911
40745SOL    HW133959   1.124   1.584   7.535  0.4967 -0.5075 -0.4166
40745SOL    HW233960   1.075   1.525   7.405 -0.4203  0.6788 -0.6296
40746SOL     OW33961   3.305   9.802   3.124  0.4859 -0.3492 -0.0858
40746SOL    HW133962   3.325   9.895   3.109  1.3200 -0.7723 -1.8640
40746SOL    HW233963   3.210   9.798   3.123  0.4463  0.3973 -0.6589
40747SOL     OW33964   0.304   2.032  10.869  0.0017 -0.7287  0.3774
40747SOL    HW133965   0.316   2.042  10.775 -0.3397 -0.0100  0.4026
40747SOL    HW233966   0.265   2.115  10.897 -0.5204 -1.1900  1.0462
40748SOL     OW33967   5.628   6.126   3.207 -0.0439  0.0048  0.0400
40748SOL    HW133968   5.650   6.145   3.298  0.2752 -0.4900  0.0697
40748SOL    HW233969   5.638   6.031   3.199 -1.1502 -0.1028 -0.2200
40749SOL     OW33970   1.218   2.889   0.413  1.0037 -0.1182 -0.1836
40749SOL    HW133971   1.167   2.837   0.475  0.6013 -0.2922 -0.6493
40749SOL    HW233972   1.308   2.859   0.424  1.2786  1.2158  1.6877
40750SOL     OW33973   7.149   0.627  11.028 -0.1476 -0.4000  0.0721
40750SOL    HW133974   7.221   0.586  10.980 -0.8868 -0.9917 -0.5566
40750SOL    HW233975   7.073   0.573  11.007 -0.7168  0.0357  0.9745
40751SOL     OW33976   3.565   1.002   5.431  0.2963  0.4850 -0.7987
40751SOL    HW133977   3.573   0.910   5.405  0.5847  0.3636 -0.2985
40751SOL    HW233978   3.650   1.023   5.470  0.2259  0.9605 -0.9006
40752SOL     OW33979   7.078   8.903  10.440  0.3673  0.0441  0.0413
40752SOL    HW133980   6.984   8.892  10.429  0.3351  0.5040 -0.1633
40752SOL    HW233981   7.088   8.988  10.483  0.6958  0.0959 -0.1292
40753SOL     OW33982   3.382   2.449   0.898  0.0366 -0.4268 -0.2747
40753SOL    HW133983   3.296   2.490   0.884 -0.2435 -0.8919  0.0453
40753SOL    HW233984   3.445   2.516   0.871 -0.4198  0.0444 -0.1971
40754SOL     OW33985   9.558  11.887   5.377 -0.5882  0.0877  0.2421
40754SOL    HW133986   9.550  11.815   5.440 -2.1804 -0.5273 -0.6347
40754SOL    HW233987   9.629  11.941   5.413 -0.3954 -1.0774  1.7296
40755SOL     OW33988   8.913  10.644   0.722 -0.6248 -0.9326 -0.0698
40755SOL    HW133989   8.910  10.734   0.754  0.0541 -0.8547 -0.2160
40755SOL    HW233990   8.923  10.591   0.801 -1.0492 -0.8860  0.0185
40756SOL     OW33991   6.167   3.329   7.112 -0.7136 -0.0896 -0.6105
40756SOL    HW133992   6.182   3.332   7.207 -1.9496  0.1408 -0.4057
40756SOL    HW233993   6.085   3.377   7.100 -0.8102 -0.5300 -1.7497
40757SOL     OW33994   6.578   4.493   8.588  0.5501  0.4680 -0.6614
40757SOL    HW133995   6.531   4.436   8.528  1.9604  0.3047 -1.6629
40757SOL    HW233996   6.607   4.435   8.659  0.6651  0.2297 -0.8986
40758SOL     OW33997   1.371   7.542   7.577  0.0239 -0.3657  0.1675
40758SOL    HW133998   1.285   7.581   7.593  0.3992  0.6388 -0.1502
40758SOL    HW233999   1.364   7.453   7.611 -0.2930  0.5669  2.7529
40759SOL     OW34000   4.256   9.551  10.981 -0.5486 -0.3353 -0.2253
40759SOL    HW134001   4.281   9.480  11.041 -1.3585 -1.0690 -0.7280
40759SOL    HW234002   4.326   9.616  10.991 -1.1341  0.0393  2.2397
40760SOL     OW34003   2.196   6.748  10.465 -0.1007  0.3803 -0.6288
40760SOL    HW134004   2.105   6.747  10.435 -0.8045  0.3863  1.3465
40760SOL    HW234005   2.242   6.802  10.400 -2.2064  3.3569  0.0985
40761SOL     OW34006   9.958  10.863   0.487 -0.6256  0.5683 -0.7711
40761SOL    HW134007  10.047  10.888   0.461  0.0786 -0.5149  0.4627
40761SOL    HW234008   9.923  10.818   0.410  0.2959  0.0876 -0.9384
40762SOL     OW34009   9.057   6.394   1.831 -0.4452 -0.6313  0.3988
40762SOL    HW134010   9.015   6.317   1.870 -1.0200 -0.7735 -0.4709
40762SOL    HW234011   9.141   6.362   1.798 -0.5991 -0.8443  0.2134
40763SOL     OW34012   3.516   5.792  11.805  0.0717  0.0911  0.1266
40763SOL    HW134013   3.446   5.744  11.762  1.2367 -0.8575 -0.7673
40763SOL    HW234014   3.546   5.733  11.874  0.3918  0.2380  0.1142
40764SOL     OW34015  11.805   7.398   5.849 -0.0806 -0.0773  0.0179
40764SOL    HW134016  11.802   7.434   5.938  1.8351  1.7992 -0.5901
40764SOL    HW234017  11.734   7.444   5.803 -0.3902 -0.2634  0.3049
40765SOL     OW34018   1.454  10.845   7.371  1.1500 -0.5686  0.6308
40765SOL    HW134019   1.476  10.899   7.296  0.0934 -1.0506 -0.0530
40765SOL    HW234020   1.531  10.790   7.385  1.5524 -0.1046  0.2328
40766SOL     OW34021   4.424   1.599   2.353  0.2612  0.2565 -0.3394
40766SOL    HW134022   4.446   1.516   2.395 -0.3589  0.5258  0.5516
40766SOL    HW234023   4.460   1.591   2.265  0.7940 -0.6915 -0.0589
40767SOL     OW34024   1.600   2.289   8.611  0.4386  0.2433 -0.0761
40767SOL    HW134025   1.548   2.302   8.531 -0.0422 -1.8950 -0.1696
40767SOL    HW234026   1.589   2.197   8.632  1.2924  0.5540  1.9834
40768SOL     OW34027   2.105   6.558   6.637 -0.4508  0.1763  0.1035
40768SOL    HW134028   2.178   6.594   6.586 -0.7923  0.6035 -0.0940
40768SOL    HW234029   2.147   6.517   6.713  0.0007  0.3278 -0.0586
40769SOL     OW34030   6.331  11.937   1.108 -0.1599 -0.2977  0.6548
40769SOL    HW134031   6.380  11.860   1.137  0.6080 -0.2979 -0.5442
40769SOL    HW234032   6.375  12.011   1.149 -0.5899 -0.4462  1.4080
40770SOL     OW34033  10.277   6.848   8.419 -0.2451  0.3165 -0.0113
40770SOL    HW134034  10.263   6.936   8.384  1.0044  1.0370  1.2289
40770SOL    HW234035  10.272   6.859   8.514  0.2228 -0.9006  0.1659
40771SOL     OW34036   1.018   3.049  10.950 -0.2989 -0.8049  0.2065
40771SOL    HW134037   0.939   3.093  10.918 -0.1577 -0.7444 -0.0700
40771SOL    HW234038   1.036   3.091  11.034  0.1729  0.1106 -0.3249
40772SOL     OW34039   8.141  10.144   5.338  0.2769 -0.0993  0.6159
40772SOL    HW134040   8.236  10.138   5.331  0.2814  0.8695 -0.6031
40772SOL    HW234041   8.121  10.235   5.315 -1.1533 -1.0043 -2.2371
40773SOL     OW34042   6.440   7.795   5.683  0.5837 -0.1349 -0.5871
40773SOL    HW134043   6.357   7.751   5.702 -1.0440  2.2896 -1.5579
40773SOL    HW234044   6.427   7.885   5.712  2.9616  0.2916 -0.6332
40774SOL     OW34045   1.131   8.233   8.919 -0.7594 -0.3183 -0.3836
40774SOL    HW134046   1.136   8.325   8.893 -1.3625 -0.4706 -1.0650
40774SOL    HW234047   1.223   8.207   8.933 -0.6549  0.6854  0.9374
40775SOL     OW34048   9.266   6.949   3.311  0.6453 -0.2659  0.4199
40775SOL    HW134049   9.340   6.916   3.260  0.6921 -0.0648  0.3582
40775SOL    HW234050   9.250   6.880   3.375  0.1202 -0.8555 -0.3234
40776SOL     OW34051   2.870   4.684  10.182 -0.0712  0.3079  0.2072
40776SOL    HW134052   2.949   4.637  10.209  0.5197  0.7003 -0.7745
40776SOL    HW234053   2.896   4.776  10.180 -1.2923  0.7603  2.3756
40777SOL     OW34054  10.586   6.969   0.871  0.0634 -0.5853 -1.0489
40777SOL    HW134055  10.590   6.994   0.779  0.5904 -1.2326 -1.2044
40777SOL    HW234056  10.673   6.989   0.906  0.1982 -1.3195 -0.9514
40778SOL     OW34057   9.978  11.569   3.648  0.5540 -0.2839 -0.1423
40778SOL    HW134058  10.003  11.594   3.559  0.1272  0.2150 -0.1222
40778SOL    HW234059   9.910  11.631   3.673 -0.3690 -1.3224 -0.0130
40779SOL     OW34060   8.365   6.045   3.277  0.1943  0.8011  0.2519
40779SOL    HW134061   8.301   6.090   3.220 -0.3206  0.5586  0.6262
40779SOL    HW234062   8.319   5.967   3.307  0.3780  1.0325  1.1705
40780SOL     OW34063   8.430   7.501   3.209 -0.0721  0.3283 -0.5223
40780SOL    HW134064   8.346   7.535   3.242 -0.5838 -0.9144 -0.4876
40780SOL    HW234065   8.470   7.459   3.285 -0.3716 -0.8620 -0.9900
40781SOL     OW34066   5.200   4.632   1.476  0.1302  0.0499 -0.0462
40781SOL    HW134067   5.153   4.590   1.547 -0.9212  0.0936 -0.7031
40781SOL    HW234068   5.194   4.726   1.495 -0.5924  0.0887 -0.4611
40782SOL     OW34069   4.544   4.931   2.209  0.4918 -0.0479 -0.6769
40782SOL    HW134070   4.627   4.888   2.229  1.0170  1.0345 -0.4721
40782SOL    HW234071   4.564   4.989   2.135  1.0153  3.2826  1.8360
40783SOL     OW34072   0.075   8.672   8.775 -0.2143  0.0118 -0.2281
40783SOL    HW134073   0.048   8.709   8.858 -1.2923  1.1610 -1.0530
40783SOL    HW234074   0.038   8.583   8.776  1.5033 -0.7416  1.3220
40784SOL     OW34075   6.182   8.888  10.255  0.2785 -0.4619  0.3147
40784SOL    HW134076   6.200   8.803  10.216  0.0820  0.2919 -1.4927
40784SOL    HW234077   6.262   8.909  10.304  0.3746 -1.5956  0.6736
40785SOL     OW34078   5.658   4.107   2.396 -0.0551  0.6618 -0.3445
40785SOL    HW134079   5.707   4.128   2.316  0.8678 -0.4880 -0.1205
40785SOL    HW234080   5.581   4.059   2.366  1.4154 -1.7761 -0.4883
40786SOL     OW34081   1.366   7.032   6.118  0.0640 -0.3179  0.2190
40786SOL    HW134082   1.307   6.970   6.075 -1.1224 -1.2168  2.8913
40786SOL    HW234083   1.385   7.097   6.051 -1.5419 -1.6326 -1.6478
40787SOL     OW34084   4.280   1.328   9.553  0.5574  0.0759  0.0525
40787SOL    HW134085   4.285   1.240   9.592  0.6671  0.0459 -0.0257
40787SOL    HW234086   4.187   1.341   9.535  0.5566 -0.0830 -0.0633
40788SOL     OW34087   6.208   0.137   6.979  0.5583 -0.2401 -0.3171
40788SOL    HW134088   6.186   0.139   6.886  1.8230  0.5273 -0.6146
40788SOL    HW234089   6.225   0.228   7.002 -0.9574 -0.2333  0.9992
40789SOL     OW34090  10.603   9.513   9.436 -0.1560  0.0295  0.4359
40789SOL    HW134091  10.683   9.533   9.483  0.4817  0.5176 -0.8000
40789SOL    HW234092  10.576   9.427   9.469  0.6378  0.0479  1.1650
40790SOL     OW34093   4.303   0.442   9.347 -0.6037  0.4256  0.0194
40790SOL    HW134094   4.376   0.442   9.410  0.7790 -0.3617 -1.5073
40790SOL    HW234095   4.287   0.350   9.329 -1.0881  0.6352 -0.6537
40791SOL     OW34096   2.828   4.713   9.193  0.2790  0.0293 -0.1402
40791SOL    HW134097   2.895   4.753   9.250 -0.5127 -0.2409  1.0195
40791SOL    HW234098   2.765   4.675   9.254 -0.9713  0.3346 -1.2079
40792SOL     OW34099   8.417   6.477   9.670 -0.0046  0.4558 -0.2948
40792SOL    HW134100   8.360   6.472   9.747 -0.3179 -0.2500 -0.5644
40792SOL    HW234101   8.364   6.442   9.598  0.8348 -0.4106 -0.5094
40793SOL     OW34102  11.807   6.738   6.297  0.2610 -0.0827  0.2720
40793SOL    HW134103  11.758   6.663   6.329  1.3619 -1.0584 -0.2511
40793SOL    HW234104  11.860   6.765   6.372 -1.0703  1.0229  0.8624
40794SOL     OW34105   2.505  10.920   4.766  0.1954 -0.1289  0.3395
40794SOL    HW134106   2.449  10.961   4.832 -0.8286 -0.6594 -0.1768
40794SOL    HW234107   2.454  10.925   4.685  0.0698 -2.2797  0.2371
40795SOL     OW34108  10.233   8.683   9.023  0.2421 -0.3173  0.0872
40795SOL    HW134109  10.189   8.712   8.943  1.0927  0.4601 -0.1175
40795SOL    HW234110  10.302   8.624   8.991 -1.4348 -2.6143  0.4951
40796SOL     OW34111   1.907   0.728   4.450 -0.0028  0.1761  0.2078
40796SOL    HW134112   1.943   0.741   4.538  1.1999 -0.2130 -0.2073
40796SOL    HW234113   1.912   0.815   4.409 -0.1127  0.2508  0.3491
40797SOL     OW34114   4.151   7.196   0.690 -0.0376  0.7052 -0.0220
40797SOL    HW134115   4.196   7.274   0.657  1.5567  0.1186  0.6781
40797SOL    HW234116   4.110   7.158   0.612 -1.9332  2.8621 -0.1988
40798SOL     OW34117   2.164   5.927   1.314 -0.5560  0.0580  0.1229
40798SOL    HW134118   2.211   5.991   1.368  1.1437  0.3853 -1.6287
40798SOL    HW234119   2.221   5.914   1.238 -3.3315  0.4263 -2.1479
40799SOL     OW34120   9.141   2.400  10.472 -0.2590 -0.4026 -0.3063
40799SOL    HW134121   9.136   2.403  10.568  0.8993 -0.6052 -0.2263
40799SOL    HW234122   9.066   2.346  10.445  0.4988 -1.9764  0.6099
40800SOL     OW34123   5.151   2.178   1.013 -0.4873  0.6852  0.4547
40800SOL    HW134124   5.233   2.128   1.013 -0.3894  0.8441 -0.1258
40800SOL    HW234125   5.177   2.266   1.043 -0.4101  0.7895  0.0861
40801SOL     OW34126  10.004   8.860   7.834  0.4223  0.0832 -0.2923
40801SOL    HW134127   9.982   8.780   7.785 -1.7003 -0.1547  0.8934
40801SOL    HW234128  10.054   8.913   7.773 -1.8078 -0.3377 -2.6740
40802SOL     OW34129  11.571   6.176   3.916 -0.3762  0.0620 -0.2341
40802SOL    HW134130  11.593   6.087   3.889 -0.9286 -0.1756  0.0813
40802SOL    HW234131  11.628   6.193   3.991 -2.1756 -1.0770  1.4789
40803SOL     OW34132   4.943  11.235   4.778 -0.2575 -0.3427 -0.0662
40803SOL    HW134133   4.865  11.225   4.832 -0.0467  1.6235  0.6857
40803SOL    HW234134   4.913  11.279   4.699 -0.2307 -1.4990 -0.7536
40804SOL     OW34135   5.566   9.784   1.319  0.3373  0.1185  0.1704
40804SOL    HW134136   5.520   9.707   1.286  1.6201 -0.6102  0.0112
40804SOL    HW234137   5.529   9.799   1.406 -2.4846  1.5480 -1.1408
40805SOL     OW34138   8.179   6.421   0.014  0.1362 -0.1418  0.3306
40805SOL    HW134139   8.237   6.362  -0.035  0.0982  0.3754 -0.3511
40805SOL    HW234140   8.112   6.364   0.051 -1.6476 -0.2673 -2.7505
40806SOL     OW34141   6.456   3.898   4.706  0.2284 -0.3090 -0.1089
40806SOL    HW134142   6.537   3.950   4.704 -0.9615  1.6085 -0.2245
40806SOL    HW234143   6.391   3.952   4.661 -1.5783 -0.9720  1.5544
40807SOL     OW34144   1.814   6.863   2.637  0.1656  0.0213  0.3823
40807SOL    HW134145   1.805   6.769   2.656 -0.8013  0.0255  0.0021
40807SOL    HW234146   1.880   6.867   2.569  1.1717 -0.2688  1.3140
40808SOL     OW34147   4.737   4.023   4.585  0.3548 -0.1446 -0.0360
40808SOL    HW134148   4.659   4.032   4.531  0.0852  0.6277  0.4708
40808SOL    HW234149   4.737   3.931   4.612 -0.4233 -0.1357  0.0219
40809SOL     OW34150   7.062   2.248   2.924 -0.3934  0.2888 -0.1354
40809SOL    HW134151   7.020   2.260   3.010  1.8796  0.3283  1.0327
40809SOL    HW234152   7.102   2.162   2.929 -2.2134 -0.7675 -2.1225
40810SOL     OW34153   6.282   3.705   4.265 -0.3647  0.3225 -0.1867
40810SOL    HW134154   6.315   3.637   4.324  1.0105  1.7222  0.7051
40810SOL    HW234155   6.244   3.655   4.192 -0.5053 -1.4169  0.9986
40811SOL     OW34156  10.790   2.051   9.573  0.0304 -0.8312 -0.3285
40811SOL    HW134157  10.837   2.057   9.656 -0.6875  1.3912 -0.0043
40811SOL    HW234158  10.706   2.010   9.596 -0.2093 -0.1212  0.0871
40812SOL     OW34159   3.302   5.409   5.093 -0.2243 -0.1066 -0.1403
40812SOL    HW134160   3.329   5.475   5.157 -1.6742 -0.2416  0.6508
40812SOL    HW234161   3.210   5.392   5.114 -0.8839  0.1547 -2.5200
40813SOL     OW34162   8.755   1.107   4.039  0.2358 -0.3106 -0.7839
40813SOL    HW134163   8.809   1.173   4.083 -0.5858 -0.6611  0.8126
40813SOL    HW234164   8.776   1.118   3.946  0.1297  2.2162 -0.5989
40814SOL     OW34165   2.902  10.065   2.524 -0.3382  0.0599 -0.3183
40814SOL    HW134166   2.997  10.075   2.531 -0.2193 -0.0118 -1.5308
40814SOL    HW234167   2.890   9.986   2.472 -1.0913 -0.5084  0.6878
40815SOL     OW34168   1.569   1.565  11.010  0.5496  0.0529  0.2279
40815SOL    HW134169   1.635   1.580  11.077  0.9699  1.6651 -0.4972
40815SOL    HW234170   1.513   1.642  11.014  1.9689  1.4191 -2.7929
40816SOL     OW34171   8.866   2.383   8.122 -0.1178 -0.2694  0.0423
40816SOL    HW134172   8.940   2.394   8.182 -0.5603  0.2200  0.5037
40816SOL    HW234173   8.790   2.409   8.173 -0.7138 -1.4841 -0.1832
40817SOL     OW34174   4.685   7.299   1.185 -0.2573 -0.4053 -0.1757
40817SOL    HW134175   4.649   7.316   1.098 -0.7328  0.3317  0.1585
40817SOL    HW234176   4.710   7.386   1.218 -3.0017 -0.2195  1.6953
40818SOL     OW34177  10.901   0.294   5.788  0.2138 -0.5283  0.2720
40818SOL    HW134178  10.871   0.285   5.878 -0.0439 -0.5181  0.1877
40818SOL    HW234179  10.888   0.386   5.768 -0.6592 -0.7220 -0.0996
40819SOL     OW34180   0.368   4.495  11.573 -0.1736 -0.3719 -0.3781
40819SOL    HW134181   0.395   4.488  11.664  0.5824 -1.9292 -0.6761
40819SOL    HW234182   0.280   4.532  11.576  1.0753  2.7890  0.7513
40820SOL     OW34183   0.552  10.945   5.596 -0.0579  0.0968 -0.2721
40820SOL    HW134184   0.626  10.984   5.642 -0.3989 -2.1070  2.3677
40820SOL    HW234185   0.575  10.853   5.586 -1.8154 -0.3296 -0.7503
40821SOL     OW34186   2.900   0.695   1.053  0.0814 -0.1893  0.7113
40821SOL    HW134187   2.806   0.701   1.068  0.0110  0.6151  0.0415
40821SOL    HW234188   2.918   0.761   0.986  0.9476 -1.0764  0.0409
40822SOL     OW34189   4.021   7.767   3.191  0.4741 -0.0443 -0.3375
40822SOL    HW134190   3.949   7.785   3.130  0.8662 -0.3460 -0.8826
40822SOL    HW234191   4.074   7.701   3.148 -0.1045 -1.4555  0.9965
40823SOL     OW34192   0.542   2.054   1.423 -0.1780 -0.0011 -0.4879
40823SOL    HW134193   0.559   2.045   1.516  1.9494  1.4068 -0.6713
40823SOL    HW234194   0.471   1.992   1.405  0.9619 -2.0708  1.6038
40824SOL     OW34195   0.845   6.589   7.466 -0.4229 -0.6955  0.0925
40824SOL    HW134196   0.934   6.583   7.501 -0.5833 -2.5009  0.3010
40824SOL    HW234197   0.789   6.590   7.543 -0.6680 -2.1366 -0.0401
40825SOL     OW34198   3.824   4.523   5.149  0.3846 -0.0702  0.2680
40825SOL    HW134199   3.740   4.558   5.118  1.6567  2.6882 -0.3501
40825SOL    HW234200   3.885   4.540   5.078  1.9887  0.2844  1.6662
40826SOL     OW34201  10.976   8.685   6.665  0.0289  0.1495 -0.5468
40826SOL    HW134202  10.936   8.747   6.605 -0.4896  2.4530  1.9753
40826SOL    HW234203  10.906   8.621   6.683  0.4746 -1.1044 -2.9295
40827SOL     OW34204  11.547   0.691   9.432  0.2560  0.6363 -0.3940
40827SOL    HW134205  11.565   0.606   9.394 -0.1438  0.3501  0.0475
40827SOL    HW234206  11.629   0.716   9.476  0.3756  0.4892 -0.5339
40828SOL     OW34207   1.046   6.583   6.720  0.8898 -0.0281 -0.4448
40828SOL    HW134208   1.090   6.664   6.744  1.2300 -0.3847  0.1407
40828SOL    HW234209   1.015   6.547   6.802  0.3204 -0.2587 -0.7550
40829SOL     OW34210   3.358   7.907   8.377  0.1221  0.3394  0.0335
40829SOL    HW134211   3.325   7.996   8.368  0.5600  0.5556  0.5233
40829SOL    HW234212   3.344   7.867   8.291  1.4305  1.3895 -0.6956
40830SOL     OW34213   2.194   8.244   2.088  0.1981 -0.5097 -0.3655
40830SOL    HW134214   2.260   8.197   2.037 -0.0558  0.2034 -1.3868
40830SOL    HW234215   2.176   8.323   2.037 -0.5491 -0.0910  0.5117
40831SOL     OW34216   8.778   1.192  11.730 -0.0359  0.2452  0.3962
40831SOL    HW134217   8.819   1.223  11.649 -0.5681  0.4829  0.2135
40831SOL    HW234218   8.838   1.125  11.763  1.0857  1.3857  0.7378
40832SOL     OW34219   7.716   8.594   8.805  0.2850  0.0973  0.5868
40832SOL    HW134220   7.629   8.594   8.843  0.1396  1.0175  0.2644
40832SOL    HW234221   7.772   8.634   8.872 -0.2164  3.0768 -0.6404
40833SOL     OW34222   5.139   9.002   7.295 -0.0578  0.4641  0.4858
40833SOL    HW134223   5.191   8.987   7.216  0.1397  2.6082  0.1460
40833SOL    HW234224   5.058   9.042   7.263 -0.1887  0.8939  1.3258
40834SOL     OW34225   8.113   5.381   3.605 -0.0770 -0.0829  0.0217
40834SOL    HW134226   8.148   5.335   3.681  1.4474  0.0904 -0.5417
40834SOL    HW234227   8.022   5.351   3.598 -0.2467 -0.1047  1.8940
40835SOL     OW34228   6.924   8.956   9.993 -0.6821 -0.0075  0.5089
40835SOL    HW134229   6.960   9.019  10.055 -0.0725 -0.7949  0.9754
40835SOL    HW234230   6.969   8.874  10.013  0.8006  0.0742 -2.0712
40836SOL     OW34231  10.405   5.367   8.520  0.1576 -0.3580  0.3132
40836SOL    HW134232  10.346   5.433   8.556 -0.0352 -0.2519 -0.1835
40836SOL    HW234233  10.475   5.418   8.479 -1.1890 -0.3244 -2.1758
40837SOL     OW34234   0.656   5.008  11.640 -0.4217 -0.1047 -0.3196
40837SOL    HW134235   0.648   5.103  11.633  0.6709  0.0378  0.1015
40837SOL    HW234236   0.733   4.995  11.695  0.6871 -1.2481 -2.0433
40838SOL     OW34237   3.763   2.834   8.417  0.1053  0.0869  0.7865
40838SOL    HW134238   3.799   2.768   8.477 -0.5032  0.3953  1.5074
40838SOL    HW234239   3.752   2.912   8.472  0.6212  0.7273 -0.0083
40839SOL     OW34240   0.803   3.932   5.314  0.2224  0.0866  0.1886
40839SOL    HW134241   0.718   3.896   5.337  0.0235  0.2032 -0.3702
40839SOL    HW234242   0.808   4.015   5.362 -0.1889  0.3213 -0.1719
40840SOL     OW34243   2.084  10.141   6.129  0.2490  0.3759 -0.5946
40840SOL    HW134244   2.146  10.213   6.121  0.2460  0.4160 -0.2752
40840SOL    HW234245   2.014  10.176   6.185  0.8354 -0.2609  0.5658
40841SOL     OW34246   6.616   5.101   0.304  0.2356 -0.3915  0.3258
40841SOL    HW134247   6.535   5.148   0.281  1.5647  1.6322 -0.5154
40841SOL    HW234248   6.685   5.167   0.296  1.9083 -1.8716  1.7257
40842SOL     OW34249  10.827   9.861   2.577  0.7398  0.2017 -0.3983
40842SOL    HW134250  10.909   9.869   2.626  1.3545  1.3294 -1.5572
40842SOL    HW234251  10.793   9.951   2.572  0.2185 -0.0292 -1.2181
40843SOL     OW34252  10.639   6.472   0.682 -0.1538 -0.4152  0.3186
40843SOL    HW134253  10.630   6.561   0.716  1.0003 -0.0859 -0.1950
40843SOL    HW234254  10.549   6.445   0.662 -0.3964  1.3042 -1.1471
40844SOL     OW34255   5.032   1.457   2.384 -0.0230  0.0961  0.5560
40844SOL    HW134256   5.127   1.467   2.376  0.1320 -1.4877  0.0300
40844SOL    HW234257   5.017   1.430   2.474  0.2684 -1.6876  0.1074
40845SOL     OW34258  10.899   1.529   6.978  0.0595 -0.4244 -0.0618
40845SOL    HW134259  10.841   1.568   7.043  0.7466 -0.2757  0.4752
40845SOL    HW234260  10.842   1.507   6.904 -0.4083  1.2487 -0.2345
40846SOL     OW34261   9.751   0.260   1.959  0.5659 -0.5064  0.4247
40846SOL    HW134262   9.670   0.258   1.908  0.8463  0.3867 -0.0704
40846SOL    HW234263   9.743   0.187   2.020 -1.9496  1.2486  2.4264
40847SOL     OW34264   8.719   8.029   4.423 -1.1666 -0.3436 -0.4712
40847SOL    HW134265   8.722   7.942   4.464 -2.9998  0.1237  0.8019
40847SOL    HW234266   8.718   8.090   4.496 -0.6832  0.7223 -1.3299
40848SOL     OW34267   8.575   1.634   7.119  0.1053 -0.6709  0.1233
40848SOL    HW134268   8.655   1.611   7.072  1.0431 -0.1962  1.4414
40848SOL    HW234269   8.510   1.572   7.085  1.1010 -1.3224 -0.6992
40849SOL     OW34270   6.321  10.383   3.221  0.4356  0.1481 -0.4272
40849SOL    HW134271   6.340  10.328   3.297  0.1740  0.1828 -0.3329
40849SOL    HW234272   6.259  10.332   3.170 -0.2125  0.5642 -0.0768
40850SOL     OW34273   8.726   2.775  11.450 -0.1029  0.4866 -0.1071
40850SOL    HW134274   8.686   2.706  11.502 -0.4684  1.2206  0.6138
40850SOL    HW234275   8.655   2.808  11.395  0.2023 -0.0654 -0.8359
40851SOL     OW34276   5.369   8.850   8.511  0.0135 -0.4162 -0.0047
40851SOL    HW134277   5.414   8.889   8.586 -0.4772 -0.2082  0.1818
40851SOL    HW234278   5.426   8.777   8.485  1.8525  1.4011 -1.4289
40852SOL     OW34279   1.596   5.888   7.592  0.2377  0.1663  0.3472
40852SOL    HW134280   1.614   5.980   7.613 -3.3297  1.2638 -0.6271
40852SOL    HW234281   1.506   5.874   7.621  0.6534 -3.1115  0.4973
40853SOL     OW34282  10.051   8.855   0.253 -0.1579 -0.2727 -0.0045
40853SOL    HW134283   9.970   8.835   0.205  0.1062  2.0771 -1.6246
40853SOL    HW234284  10.042   8.947   0.278  1.7799 -0.0952  0.2313
40854SOL     OW34285   0.664   4.484   0.708  0.0922  0.0747  0.1435
40854SOL    HW134286   0.623   4.425   0.645  0.3514  0.1345 -0.0844
40854SOL    HW234287   0.635   4.571   0.682  0.1906  0.0981  0.1130
40855SOL     OW34288   8.171   6.191   9.837 -0.1739 -0.0593  0.2918
40855SOL    HW134289   8.247   6.135   9.854  0.9246  1.2769 -0.0308
40855SOL    HW234290   8.097   6.131   9.838  0.7650 -1.2761  1.5489
40856SOL     OW34291  11.731   3.574   0.425  0.1923  0.0217 -0.3371
40856SOL    HW134292  11.656   3.620   0.464  0.6005  1.0888 -0.7611
40856SOL    HW234293  11.780   3.643   0.380 -0.4157 -1.1726 -3.0004
40857SOL     OW34294   2.127   7.445   8.171 -0.2333 -0.4568 -0.5876
40857SOL    HW134295   2.070   7.520   8.158  0.7763  0.3402 -0.4678
40857SOL    HW234296   2.103   7.411   8.257  1.0262  1.2840  0.5025
40858SOL     OW34297   5.177  10.535   2.475 -0.1831  0.2241  0.3481
40858SOL    HW134298   5.252  10.534   2.536 -0.4048  1.4707  0.6613
40858SOL    HW234299   5.151  10.443   2.469  0.3646 -0.0285  1.4977
40859SOL     OW34300   7.289   7.790  11.598  0.0351  0.1224 -0.0621
40859SOL    HW134301   7.195   7.792  11.612 -0.4224 -0.0102 -2.5919
40859SOL    HW234302   7.319   7.879  11.618 -0.6817  0.2539  0.4357
40860SOL     OW34303  10.914   7.145   8.867  0.3895 -0.0394 -0.1407
40860SOL    HW134304  10.872   7.207   8.808  2.8136  2.1865  0.2577
40860SOL    HW234305  10.910   7.187   8.953 -0.3201 -1.7578  0.7044
40861SOL     OW34306   1.952   6.849   7.759 -0.4582  0.3660 -0.4200
40861SOL    HW134307   1.966   6.787   7.831 -0.3487  0.4166 -0.3985
40861SOL    HW234308   1.986   6.932   7.791 -0.5606  0.4276 -0.4679
40862SOL     OW34309   6.320   3.502   0.167 -0.3242 -0.0050 -0.0227
40862SOL    HW134310   6.250   3.543   0.217  0.2191 -0.9593  1.5979
40862SOL    HW234311   6.400   3.523   0.215  0.2760 -0.5576 -0.7473
40863SOL     OW34312   7.251   6.572   7.750 -0.0189 -0.6374  0.3362
40863SOL    HW134313   7.198   6.608   7.679 -1.0510 -0.2458  1.2780
40863SOL    HW234314   7.210   6.489   7.771  0.7512 -1.1196 -0.0310
40864SOL     OW34315   1.314   3.567   2.020  0.2208  0.6315  0.1479
40864SOL    HW134316   1.300   3.656   1.986 -0.3744  0.2315 -0.6727
40864SOL    HW234317   1.233   3.521   2.001  0.8138 -0.3127 -0.1585
40865SOL     OW34318  11.025   0.640   7.633  0.6814 -0.1718 -0.1502
40865SOL    HW134319  11.031   0.700   7.708  0.2695  0.0693 -0.3039
40865SOL    HW234320  11.027   0.698   7.556 -0.7189 -0.2579 -0.2796
40866SOL     OW34321  11.947   2.162   4.022 -0.2524  0.0323 -0.5242
40866SOL    HW134322  11.971   2.202   3.938  1.6208 -1.6716 -0.8828
40866SOL    HW234323  11.852   2.174   4.028 -0.0361  2.8758 -1.3930
40867SOL     OW34324   5.309   3.023   1.103 -0.2658 -0.1440  0.2886
40867SOL    HW134325   5.311   3.049   1.010 -1.7915  1.3955  0.6285
40867SOL    HW234326   5.362   3.090   1.147  1.7629 -1.7285  0.4226
40868SOL     OW34327   2.273   2.904   1.021  0.4052 -0.3130  0.0718
40868SOL    HW134328   2.319   2.982   1.050  1.4895 -1.1254  0.6019
40868SOL    HW234329   2.188   2.936   0.990  1.4484  1.2643 -1.2864
40869SOL     OW34330   0.521   9.852   8.289 -0.3622 -0.2339  0.3432
40869SOL    HW134331   0.565   9.769   8.269  0.9712  0.4939  0.1495
40869SOL    HW234332   0.516   9.897   8.205 -1.6000 -0.3418  0.3486
40870SOL     OW34333  11.826   5.115   7.223  0.6731 -0.0339  0.3961
40870SOL    HW134334  11.890   5.045   7.226 -0.5283 -1.1552  0.7880
40870SOL    HW234335  11.868   5.184   7.172  1.4133 -1.4980 -1.0415
40871SOL     OW34336   4.263   6.005  10.381  0.2069 -0.0403  0.3420
40871SOL    HW134337   4.325   6.043  10.318 -0.4698  1.6175  0.6301
40871SOL    HW234338   4.178   6.041  10.355 -0.5245 -1.5795  0.5006
40872SOL     OW34339   7.100   2.681   6.254  0.1535  0.1727 -0.1174
40872SOL    HW134340   7.028   2.660   6.315 -0.6679 -0.9870 -1.4253
40872SOL    HW234341   7.146   2.754   6.296 -1.2211  0.3329  1.2145
40873SOL     OW34342   5.895   2.329   4.581  0.3959  0.9701 -0.0956
40873SOL    HW134343   5.960   2.316   4.511  0.4973  0.0215  0.1611
40873SOL    HW234344   5.899   2.248   4.632 -0.3282  1.2901  0.4754
40874SOL     OW34345   3.765   8.415   8.426  0.1087  0.7550 -0.5592
40874SOL    HW134346   3.729   8.329   8.448  0.7068  0.4634 -0.7033
40874SOL    HW234347   3.787   8.454   8.511 -0.1160  0.7482 -0.4970
40875SOL     OW34348   3.877   2.293   8.007 -1.0063  0.3016 -0.4305
40875SOL    HW134349   3.790   2.315   7.973 -1.6754 -1.8677 -0.3203
40875SOL    HW234350   3.934   2.294   7.931 -0.4520  4.2293 -0.1663
40876SOL     OW34351   9.259   9.415   6.812  0.4922 -0.1000 -0.3066
40876SOL    HW134352   9.222   9.333   6.846 -0.8950 -0.0572 -1.5817
40876SOL    HW234353   9.353   9.409   6.828  0.2672 -1.4752  0.5661
40877SOL     OW34354   4.737   3.887   3.961  0.0124 -0.0172  0.2046
40877SOL    HW134355   4.734   3.948   4.034 -2.5855  0.1192  0.0634
40877SOL    HW234356   4.669   3.822   3.980  1.6211 -1.9936 -0.4324
40878SOL     OW34357   6.549   4.092   1.661 -0.4102 -0.0630 -0.1795
40878SOL    HW134358   6.575   4.184   1.655 -0.1367 -0.2129 -1.5630
40878SOL    HW234359   6.520   4.069   1.573 -0.1017 -1.4188  0.0489
40879SOL     OW34360   4.803   7.744   7.532 -0.2302 -0.9546 -0.3494
40879SOL    HW134361   4.715   7.712   7.554 -0.5555 -0.2768 -0.6379
40879SOL    HW234362   4.858   7.712   7.604 -0.9082 -0.5104  0.3907
40880SOL     OW34363   3.694  10.764   4.668 -0.0716  0.6277  0.5624
40880SOL    HW134364   3.710  10.761   4.573 -2.8704  1.4659 -0.0518
40880SOL    HW234365   3.712  10.675   4.698 -1.7380 -0.4227 -1.3200
40881SOL     OW34366   9.456   4.900   5.049 -0.3749  0.3438  0.2097
40881SOL    HW134367   9.547   4.901   5.018 -0.2330 -2.3583  0.2362
40881SOL    HW234368   9.458   4.947   5.133  0.9471  0.5343  0.0886
40882SOL     OW34369   6.265   0.124   7.442 -0.0769 -0.6179 -0.2487
40882SOL    HW134370   6.306   0.048   7.400  0.1097  0.2756 -1.8057
40882SOL    HW234371   6.336   0.188   7.449 -0.8358  0.4551 -1.7072
40883SOL     OW34372   8.975   6.278   4.389 -0.1458 -0.2105 -0.5411
40883SOL    HW134373   8.962   6.184   4.381  0.2924 -0.4963  1.4825
40883SOL    HW234374   8.887   6.316   4.386 -0.3217 -0.6724 -1.3373
40884SOL     OW34375   3.325   2.389   5.849 -0.1946 -0.3618  0.0456
40884SOL    HW134376   3.401   2.345   5.889  0.1730 -0.7030 -1.0055
40884SOL    HW234377   3.364   2.453   5.789 -0.7233  1.1274  1.2090
40885SOL     OW34378   0.523   4.139  10.661 -0.1393  0.3335  0.0574
40885SOL    HW134379   0.431   4.117  10.677 -0.2689  0.7114 -0.1470
40885SOL    HW234380   0.572   4.063  10.691 -0.4686  0.4292  0.8582
40886SOL     OW34381  10.384   1.103   1.545 -0.1089  0.1451  0.5406
40886SOL    HW134382  10.453   1.117   1.610  0.9760  1.4017 -0.8353
40886SOL    HW234383  10.430   1.078   1.465 -1.4016 -1.0881  0.1424
40887SOL     OW34384  10.804   7.431   9.726  0.3833 -0.1026  0.1385
40887SOL    HW134385  10.731   7.485   9.756  0.1359 -0.1344 -0.3929
40887SOL    HW234386  10.764   7.367   9.667  0.9507  0.4506 -0.8802
40888SOL     OW34387   7.114   3.516   1.508  0.0325 -0.0853 -0.2504
40888SOL    HW134388   7.144   3.426   1.494 -0.7609 -0.2275 -1.0733
40888SOL    HW234389   7.020   3.513   1.494  0.0760  0.9891 -0.8765
40889SOL     OW34390   0.144   0.478   3.060  0.1040 -0.1492 -0.0350
40889SOL    HW134391   0.097   0.562   3.057  2.1109  1.0070 -0.8467
40889SOL    HW234392   0.165   0.466   3.152 -1.8289 -0.7748  0.3825
40890SOL     OW34393   5.695   3.059  10.034  0.4466  0.6824 -0.2194
40890SOL    HW134394   5.715   2.991   9.970  1.2918  0.0940  0.6393
40890SOL    HW234395   5.621   3.107   9.996 -1.8047 -2.1853  0.1876
40891SOL     OW34396   2.591   5.951   4.141 -0.3887  0.2497  0.5905
40891SOL    HW134397   2.655   5.886   4.169 -0.5297 -0.9919 -1.6984
40891SOL    HW234398   2.641   6.033   4.134  1.3458 -0.8822 -2.1060
40892SOL     OW34399   9.886   0.128  10.294  0.3538 -0.1011  0.2983
40892SOL    HW134400   9.864   0.182  10.370  1.6674 -0.4213  0.9408
40892SOL    HW234401   9.962   0.172  10.255  0.5129 -0.6654 -0.0365
40893SOL     OW34402   7.907   1.194   4.656 -0.4466  0.1259  0.1891
40893SOL    HW134403   7.900   1.243   4.738 -2.7156 -1.4914  1.0661
40893SOL    HW234404   7.957   1.116   4.679 -1.6658 -0.6666  0.2635
40894SOL     OW34405   2.971  10.357   5.795 -0.2557 -0.1480 -0.1454
40894SOL    HW134406   3.054  10.377   5.840 -0.3489 -1.3659  0.6127
40894SOL    HW234407   2.921  10.307   5.859 -1.7487  0.8835 -0.4745
40895SOL     OW34408   4.673   9.665   4.374  0.0364 -0.0417 -1.1205
40895SOL    HW134409   4.768   9.652   4.370  0.1950  0.6423 -0.0376
40895SOL    HW234410   4.649   9.690   4.285  0.6209 -1.6998 -1.7821
40896SOL     OW34411   9.061  10.913   4.204 -0.1931 -0.3128  0.0610
40896SOL    HW134412   9.017  10.974   4.144  1.3721  0.6655 -0.1507
40896SOL    HW234413   9.062  10.830   4.158 -0.1270  0.1199 -0.7391
40897SOL     OW34414   9.205   8.770   0.408 -0.2392 -0.1384  0.0188
40897SOL    HW134415   9.161   8.806   0.330  0.2973  2.0610  0.6521
40897SOL    HW234416   9.287   8.733   0.374  0.3423  1.4609 -0.4446
40898SOL     OW34417   5.742   9.912  11.011 -0.1523  0.0132 -0.1241
40898SOL    HW134418   5.809   9.856  10.973 -0.4746 -1.1059  0.9155
40898SOL    HW234419   5.717   9.869  11.093  0.3746  2.2434  1.2912
40899SOL     OW34420   4.488   7.331   4.642  0.0272  0.0440  0.2686
40899SOL    HW134421   4.485   7.319   4.547 -1.2069  0.7992  0.1918
40899SOL    HW234422   4.399   7.311   4.672  0.0538  1.0602  1.1015
40900SOL     OW34423   5.232   3.367   8.911 -0.0341  0.0076  0.1928
40900SOL    HW134424   5.203   3.410   8.831  0.4311  0.7102  0.3943
40900SOL    HW234425   5.271   3.284   8.882  0.3423  0.3674 -0.3266
40901SOL     OW34426   8.042   8.166   8.264  0.7940  0.3864  0.4449
40901SOL    HW134427   8.115   8.168   8.326  3.0568  0.4994 -2.0334
40901SOL    HW234428   8.054   8.245   8.210 -1.9429  1.0923  0.6986
40902SOL     OW34429   2.721  10.443   1.411 -0.2418 -0.3404  0.1228
40902SOL    HW134430   2.667  10.452   1.489 -0.7861  1.4335 -0.4110
40902SOL    HW234431   2.777  10.520   1.411  0.1788 -0.6199 -0.9218
40903SOL     OW34432   9.782   0.206   5.803  0.0441 -0.3096 -0.3555
40903SOL    HW134433   9.868   0.211   5.761 -0.5810 -0.0264 -1.6552
40903SOL    HW234434   9.720   0.198   5.730 -1.0138 -0.8068  0.5694
40904SOL     OW34435   9.163  10.460   4.335 -0.0971 -0.0400  0.1342
40904SOL    HW134436   9.222  10.387   4.354  0.3263  0.1072 -0.5690
40904SOL    HW234437   9.096  10.455   4.403 -0.4826 -1.5099 -0.3248
40905SOL     OW34438   4.924   3.551   5.430  0.2373 -0.4323  0.1461
40905SOL    HW134439   4.844   3.504   5.452  0.2597 -0.1685  0.8027
40905SOL    HW234440   4.925   3.626   5.489  1.1280 -0.6015  0.3645
40906SOL     OW34441   6.183   9.673   8.413 -0.2426 -0.1436 -0.3155
40906SOL    HW134442   6.124   9.653   8.341  0.5151  1.6249 -1.4980
40906SOL    HW234443   6.134   9.736   8.467 -0.1305 -0.0709 -0.2989
40907SOL     OW34444   8.412   6.462   4.334  0.6825  0.3083 -0.4164
40907SOL    HW134445   8.322   6.466   4.367  1.5006  0.6375  1.8931
40907SOL    HW234446   8.411   6.517   4.256 -1.3049 -0.4170 -0.9808
40908SOL     OW34447   5.224   3.560  11.190  0.1218  0.3120  0.1432
40908SOL    HW134448   5.298   3.560  11.129  0.3069 -1.8614  0.2728
40908SOL    HW234449   5.147   3.552  11.134  0.1013  0.8397  0.0918
40909SOL     OW34450   4.798   0.457  10.446 -0.2373 -0.1984 -0.0712
40909SOL    HW134451   4.731   0.490  10.506 -1.6039 -1.0173 -1.0768
40909SOL    HW234452   4.751   0.394  10.390  1.5834 -1.5012 -0.2190
40910SOL     OW34453   6.857   4.207   4.649  0.0868 -0.2248 -0.7597
40910SOL    HW134454   6.789   4.146   4.675  0.5838  0.2955  2.0150
40910SOL    HW234455   6.833   4.234   4.560 -2.5260 -1.0935 -0.3814
40911SOL     OW34456   0.760  10.317   7.516  0.3952 -0.2583  0.0365
40911SOL    HW134457   0.695  10.282   7.578 -0.6907 -0.8484 -1.3526
40911SOL    HW234458   0.789  10.240   7.467  0.2639  0.3622 -1.0382
40912SOL     OW34459   1.290   5.839   7.460 -0.0392  0.3440 -0.5835
40912SOL    HW134460   1.242   5.859   7.540 -1.8123 -1.5105 -1.0938
40912SOL    HW234461   1.312   5.746   7.468 -0.2543  0.1146 -2.2277
40913SOL     OW34462   7.742   7.074   3.316  0.4155 -0.6629 -0.2516
40913SOL    HW134463   7.798   7.069   3.239 -0.7325  1.0743 -1.2667
40913SOL    HW234464   7.713   6.984   3.331  0.6464 -1.0299 -1.8621
40914SOL     OW34465   4.269   0.225   5.696  0.9138 -0.5385  0.0661
40914SOL    HW134466   4.213   0.302   5.704 -1.6236 -2.3876  1.1704
40914SOL    HW234467   4.351   0.251   5.738  0.4494  1.8081 -0.3564
40915SOL     OW34468   6.770   1.520   0.415 -0.2224 -0.1708 -0.0197
40915SOL    HW134469   6.731   1.449   0.363  0.4371 -0.1678 -0.5274
40915SOL    HW234470   6.715   1.596   0.396 -0.7266 -0.4663  0.2543
40916SOL     OW34471   5.949   0.003   8.903 -0.0816 -0.0897  0.3243
40916SOL    HW134472   6.011   0.030   8.971 -0.1775  2.6480 -0.5534
40916SOL    HW234473   5.975   0.053   8.826 -3.1049  0.8674 -0.1837
40917SOL     OW34474   8.592   5.219  10.541 -0.2118 -0.4066 -0.3517
40917SOL    HW134475   8.565   5.295  10.490 -0.0994 -0.8720 -1.1221
40917SOL    HW234476   8.620   5.154  10.475  0.1757 -0.9271  0.3057
40918SOL     OW34477   9.240  10.511   8.893  0.2134  0.4566  0.1924
40918SOL    HW134478   9.292  10.543   8.819 -0.9120 -1.9648 -1.8075
40918SOL    HW234479   9.282  10.430   8.920 -1.1072 -0.2857  0.1301
40919SOL     OW34480   1.311   0.962   1.443 -0.0013  0.0062 -0.2398
40919SOL    HW134481   1.363   1.032   1.403 -0.9675  0.5800 -0.5536
40919SOL    HW234482   1.371   0.888   1.451  0.4043  0.0662 -2.2291
40920SOL     OW34483   5.231  11.331   8.945 -0.3143 -0.0706 -0.3342
40920SOL    HW134484   5.141  11.300   8.957  0.0332 -0.5737  1.0307
40920SOL    HW234485   5.284  11.276   9.001  0.4972  2.0859  1.1429
40921SOL     OW34486   4.316   6.557   6.501  0.0340 -0.3395 -0.6832
40921SOL    HW134487   4.273   6.641   6.517  0.1534 -0.3919 -0.0796
40921SOL    HW234488   4.357   6.568   6.415  1.6833  0.9259  0.1944
40922SOL     OW34489   3.960   3.889   8.741  0.4433  0.4775 -0.3159
40922SOL    HW134490   3.919   3.898   8.827 -1.8284  2.9613 -1.5254
40922SOL    HW234491   3.914   3.816   8.700  0.3986  0.3466 -0.0332
40923SOL     OW34492  10.000   2.547   3.950  0.4830  0.0496  0.2047
40923SOL    HW134493  10.025   2.620   4.007  0.9912 -0.4789  0.6686
40923SOL    HW234494   9.904   2.552   3.946  0.4639  0.3180  0.8126
40924SOL     OW34495  11.443  11.241   8.342  0.2215 -0.0602 -0.6497
40924SOL    HW134496  11.388  11.305   8.387  3.3345  2.6293 -0.2480
40924SOL    HW234497  11.392  11.215   8.265 -2.7592 -0.1558  1.2111
40925SOL     OW34498   1.035   7.091   5.976  0.7236 -0.3361  0.1971
40925SOL    HW134499   0.946   7.080   6.009  0.3175 -0.6579 -0.9332
40925SOL    HW234500   1.086   7.020   6.016 -0.0447 -1.5100 -0.8309
40926SOL     OW34501   9.890  11.752   5.658 -0.2219  0.1083 -0.5067
40926SOL    HW134502   9.847  11.786   5.736 -0.8966  1.0487 -1.2592
40926SOL    HW234503   9.937  11.674   5.688  1.6816  1.8291  1.3848
40927SOL     OW34504   6.144  11.123   7.075  0.1056  0.1222  0.0450
40927SOL    HW134505   6.157  11.065   7.150 -0.3774 -0.0056  0.0264
40927SOL    HW234506   6.068  11.177   7.098  0.6828  0.9097  0.1638
40928SOL     OW34507   9.510   3.196   1.266 -0.1200 -0.4714  0.2877
40928SOL    HW134508   9.522   3.180   1.173 -2.1024  0.5571 -0.2108
40928SOL    HW234509   9.454   3.274   1.270  1.3209  0.5454  2.3836
40929SOL     OW34510   4.966   5.633   2.822 -0.4344  0.0114 -0.2289
40929SOL    HW134511   5.005   5.679   2.897  0.6070  0.0311 -0.7684
40929SOL    HW234512   5.040   5.591   2.778 -1.1681 -0.8413 -0.6771
40930SOL     OW34513   2.725  11.026   7.662 -0.9379  0.1313 -0.2431
40930SOL    HW134514   2.720  10.958   7.729 -2.8412 -0.0519 -0.5227
40930SOL    HW234515   2.760  10.981   7.585 -1.2315 -0.2828 -0.1358
40931SOL     OW34516   0.629   2.735   1.110 -0.0981  0.4740 -0.2386
40931SOL    HW134517   0.604   2.760   1.021  1.6329  2.0250 -0.3554
40931SOL    HW234518   0.661   2.816   1.149  0.1808 -0.4050  1.4504
40932SOL     OW34519   9.226   0.691   2.324 -0.4418 -0.6924  0.4469
40932SOL    HW134520   9.161   0.732   2.267 -1.8764 -1.7805  1.2635
40932SOL    HW234521   9.285   0.646   2.263 -0.5753  0.1075 -0.2920
40933SOL     OW34522   5.077   3.240   8.011 -0.0574  0.2354  0.3204
40933SOL    HW134523   5.056   3.151   8.041  3.8646 -0.9297  0.0933
40933SOL    HW234524   5.080   3.231   7.915  1.4023  0.3038  0.3498
40934SOL     OW34525   7.460   9.766  10.114 -0.0825 -0.2449 -0.1728
40934SOL    HW134526   7.455   9.688  10.169 -1.3198 -0.1093 -0.0645
40934SOL    HW234527   7.403   9.829  10.158 -0.3452  0.1812 -1.1155
40935SOL     OW34528   3.524   8.658  10.087 -0.4234  0.2705  0.0868
40935SOL    HW134529   3.519   8.647  10.182 -1.5392  0.5666  0.0693
40935SOL    HW234530   3.568   8.578  10.057  0.2300  0.3211  0.8748
40936SOL     OW34531   3.431   0.353   7.378  0.3881  0.0245 -0.4872
40936SOL    HW134532   3.410   0.417   7.446  3.5943  0.7483 -0.0173
40936SOL    HW234533   3.425   0.401   7.296  0.3705  0.2486 -0.3538
40937SOL     OW34534   6.936   0.920   7.865 -0.5200  0.1709  0.4696
40937SOL    HW134535   7.009   0.969   7.826  0.7919 -0.8517  1.5458
40937SOL    HW234536   6.898   0.981   7.928 -1.3113  1.0851 -0.8445
40938SOL     OW34537   7.813   3.256   4.625 -0.0817 -0.1632 -0.5034
40938SOL    HW134538   7.895   3.279   4.669  1.2675 -1.5723 -2.1301
40938SOL    HW234539   7.789   3.334   4.576 -0.2556  0.5837  0.7486
40939SOL     OW34540   1.912  10.380   4.129 -0.8276  0.0328 -0.2037
40939SOL    HW134541   1.923  10.475   4.130 -1.8100  0.1723 -1.1868
40939SOL    HW234542   1.931  10.353   4.219 -0.0102  1.0883 -0.0385
40940SOL     OW34543   7.227   0.239   0.823  0.1636  0.6458 -0.0158
40940SOL    HW134544   7.293   0.170   0.819  0.9124  1.2523  1.2234
40940SOL    HW234545   7.151   0.198   0.863  0.3015  0.3276 -0.0820
40941SOL     OW34546   7.778   2.896  10.236 -0.4839 -0.3809 -0.2696
40941SOL    HW134547   7.717   2.910  10.309 -1.9765 -0.0514 -1.5249
40941SOL    HW234548   7.746   2.954  10.167  1.7542  0.3907 -0.7302
40942SOL     OW34549   1.661   3.140   4.174  0.4715 -0.6581 -0.9506
40942SOL    HW134550   1.734   3.083   4.198 -0.2880 -1.4575 -0.4593
40942SOL    HW234551   1.695   3.228   4.182  0.8493 -0.9590  1.1352
40943SOL     OW34552   4.642   6.906   2.466 -0.1629 -0.0241  0.6507
40943SOL    HW134553   4.620   6.961   2.541 -2.4520  0.5020 -0.3208
40943SOL    HW234554   4.566   6.850   2.454 -0.1234  0.3264 -1.6354
40944SOL     OW34555  11.731   6.651  11.147  0.9125 -0.2882 -0.1847
40944SOL    HW134556  11.749   6.628  11.239 -1.5254  0.3165  0.5063
40944SOL    HW234557  11.779   6.733  11.133  3.2683 -1.5763 -0.2654
40945SOL     OW34558   1.389   1.281  10.122  0.3200  0.3514 -0.1533
40945SOL    HW134559   1.339   1.329  10.188  1.1277  0.1291  0.6559
40945SOL    HW234560   1.325   1.228  10.076 -0.1743 -0.0661  0.9798
40946SOL     OW34561  10.718   2.588   2.466 -0.7138 -0.3709 -0.2864
40946SOL    HW134562  10.770   2.523   2.513  1.0250  0.3141 -1.1604
40946SOL    HW234563  10.757   2.672   2.490 -1.9689  0.2376 -0.3241
40947SOL     OW34564  10.863  11.163   9.766 -0.0114 -0.4265 -0.4012
40947SOL    HW134565  10.815  11.129   9.841  1.1769 -0.5529  0.3296
40947SOL    HW234566  10.886  11.252   9.791  2.1102 -1.0971  0.2883
40948SOL     OW34567  11.958   0.342   8.897  0.5619  0.3915 -0.4444
40948SOL    HW134568  11.924   0.335   8.986  1.0265  0.7412 -0.2340
40948SOL    HW234569  11.943   0.256   8.858 -0.1199  0.3978 -0.1999
40949SOL     OW34570  11.664   1.447   8.318  0.1598  0.3838 -0.5270
40949SOL    HW134571  11.721   1.451   8.395  0.6411  1.2169 -0.9165
40949SOL    HW234572  11.680   1.360   8.281 -0.1098 -0.0426  0.3222
40950SOL     OW34573   9.563   4.514   0.711  0.3899  0.4138 -0.3016
40950SOL    HW134574   9.553   4.592   0.655 -0.6374  0.7438  0.3216
40950SOL    HW234575   9.608   4.547   0.788  0.9750  0.1469 -0.5267
40951SOL     OW34576   9.949   3.680   8.150  0.0927 -0.1523  0.0725
40951SOL    HW134577   9.906   3.678   8.064  0.1234  0.2582  0.0434
40951SOL    HW234578   9.983   3.770   8.157 -2.1728  0.6598  1.6469
40952SOL     OW34579   5.631   6.667   3.744  0.4999 -1.0536 -0.6133
40952SOL    HW134580   5.713   6.619   3.752  0.3977 -1.0331  0.7723
40952SOL    HW234581   5.591   6.661   3.831 -2.7243 -4.1017 -2.0653
40953SOL     OW34582   4.239  10.891   0.357 -0.4403 -0.1839  0.1186
40953SOL    HW134583   4.209  10.965   0.304  0.1138 -0.2422 -0.2835
40953SOL    HW234584   4.216  10.814   0.305  0.4759 -0.2248 -0.2296
40954SOL     OW34585   9.881   0.927   6.136  0.1831  0.5154 -0.0241
40954SOL    HW134586   9.859   0.879   6.216  1.3328 -0.2803 -0.1630
40954SOL    HW234587   9.868   1.019   6.159  0.7511  0.3104  1.1662
40955SOL     OW34588   2.521  10.509   1.631  0.0010  0.2128 -0.0839
40955SOL    HW134589   2.452  10.482   1.570  0.6459  0.5016 -0.9560
40955SOL    HW234590   2.517  10.443   1.701 -0.3190 -0.5094 -0.7595
40956SOL     OW34591   0.761   5.766   3.112 -0.0623  0.3961 -0.4852
40956SOL    HW134592   0.844   5.720   3.124  0.2696  0.5012 -2.1420
40956SOL    HW234593   0.700   5.721   3.171  0.9260 -0.3128  0.0318
40957SOL     OW34594   2.753   7.475  11.742  0.4783 -0.3039 -0.2534
40957SOL    HW134595   2.765   7.463  11.648 -0.1927 -0.6485 -0.2987
40957SOL    HW234596   2.746   7.570  11.753 -0.5447 -0.3085 -0.7001
40958SOL     OW34597   1.296   6.461   4.557 -0.0249  0.0581  0.1087
40958SOL    HW134598   1.319   6.370   4.537  0.9739  0.4924 -0.9033
40958SOL    HW234599   1.290   6.465   4.652 -0.6720 -1.1887  0.1387
40959SOL     OW34600   6.264   9.509   5.650  0.1525  0.2072 -0.6619
40959SOL    HW134601   6.202   9.436   5.656 -2.2749  2.1890 -0.3608
40959SOL    HW234602   6.272   9.526   5.556  0.8407 -0.4635 -0.7439
40960SOL     OW34603   6.493  11.771  10.751 -0.0659 -0.5952 -0.2980
40960SOL    HW134604   6.469  11.709  10.820  0.9605 -0.7416 -0.0492
40960SOL    HW234605   6.524  11.716  10.679  3.1666 -0.4185  0.7925
40961SOL     OW34606   5.960   6.975   4.913  0.3165 -0.0563 -0.2411
40961SOL    HW134607   5.964   7.010   5.002  2.8880 -1.2727  0.2197
40961SOL    HW234608   5.899   6.902   4.919  0.8631 -0.4592  0.6745
40962SOL     OW34609  11.270  11.224   5.866 -0.4573 -0.1713 -0.2257
40962SOL    HW134610  11.316  11.165   5.926  0.3176 -1.0717 -1.6359
40962SOL    HW234611  11.270  11.308   5.910 -2.0267 -1.2579  2.0895
40963SOL     OW34612  10.625   6.785  11.034 -0.2023  0.9205 -0.5740
40963SOL    HW134613  10.583   6.716  10.983  3.4641 -2.4011  0.3329
40963SOL    HW234614  10.587   6.777  11.122 -0.4554  0.6743 -0.7043
40964SOL     OW34615  10.659   8.006   5.670  0.6421  0.0543  0.0667
40964SOL    HW134616  10.615   7.994   5.586 -1.6635  2.3999  0.7990
40964SOL    HW234617  10.748   8.033   5.647  0.0767  0.5758 -1.6308
40965SOL     OW34618   1.750   9.560   4.714 -0.1874  0.0636  0.3564
40965SOL    HW134619   1.713   9.644   4.740  0.7267  0.4072  0.5783
40965SOL    HW234620   1.678   9.498   4.727 -1.1438  0.9159 -0.6132
40966SOL     OW34621  10.202   9.809   9.422 -0.0279  0.4686  0.1958
40966SOL    HW134622  10.265   9.742   9.394  0.1004  0.6512  0.0503
40966SOL    HW234623  10.203   9.805   9.517 -0.6482 -0.3265  0.1768
40967SOL     OW34624  11.357  10.795   6.118  0.3136  0.0206  0.2367
40967SOL    HW134625  11.374  10.758   6.031  0.2303 -0.9829  0.6371
40967SOL    HW234626  11.442  10.796   6.161  0.2052 -0.3394  0.4641
40968SOL     OW34627   5.323  11.093   8.695 -0.1834 -0.1215  0.2796
40968SOL    HW134628   5.237  11.133   8.706  0.5571  0.9870  2.5396
40968SOL    HW234629   5.344  11.106   8.602 -1.8918  0.6911 -0.0255
40969SOL     OW34630   1.889   2.465   6.547  0.1386 -0.1207 -0.2823
40969SOL    HW134631   1.833   2.522   6.494  0.4582  0.9332  0.4752
40969SOL    HW234632   1.926   2.404   6.484  2.3448  2.5197 -1.7919
40970SOL     OW34633   0.731   4.605   2.832 -0.2188 -0.4999 -0.3339
40970SOL    HW134634   0.651   4.588   2.880  1.1431  0.7641  2.6419
40970SOL    HW234635   0.748   4.524   2.784 -1.3095 -2.2030  1.9725
40971SOL     OW34636   1.520   3.120   0.492  0.3775 -0.4860 -0.4034
40971SOL    HW134637   1.559   3.115   0.405 -1.0516 -0.6304 -1.0696
40971SOL    HW234638   1.492   3.030   0.511 -0.1674 -0.2784 -0.2081
40972SOL     OW34639   9.860   7.822   6.628 -0.0541  0.1961  0.2565
40972SOL    HW134640   9.889   7.887   6.692 -2.5469  0.1278  1.5775
40972SOL    HW234641   9.845   7.743   6.678  0.6111 -0.7011 -0.9211
40973SOL     OW34642   5.491   5.924   1.571  0.4628 -0.3129 -0.4283
40973SOL    HW134643   5.542   5.996   1.534  1.2700 -0.4852  0.3285
40973SOL    HW234644   5.410   5.966   1.601  1.6599  0.6830  1.6842
40974SOL     OW34645   7.663   2.596   8.408 -0.2436 -0.0746 -0.2740
40974SOL    HW134646   7.598   2.570   8.473 -1.8868 -0.1476 -1.8729
40974SOL    HW234647   7.680   2.688   8.426 -0.3665 -0.1938  0.4943
40975SOL     OW34648   9.187   5.213   2.768 -0.4111 -0.2391  0.2347
40975SOL    HW134649   9.154   5.191   2.855 -0.6425  1.2814  0.5522
40975SOL    HW234650   9.274   5.251   2.785 -1.4229  2.3150  0.0742
40976SOL     OW34651   3.685   4.787   8.780  0.2329  0.3596 -0.2972
40976SOL    HW134652   3.742   4.740   8.719 -0.6227 -0.4142 -0.5353
40976SOL    HW234653   3.723   4.874   8.786  0.5313  0.3643 -1.7152
40977SOL     OW34654   8.758   9.513  10.771  0.2327 -0.5767 -0.3387
40977SOL    HW134655   8.807   9.587  10.807  1.0698 -0.9522 -0.6859
40977SOL    HW234656   8.736   9.459  10.847 -2.3264  1.0868  0.2539
40978SOL     OW34657   1.285   3.609   5.789 -0.4481  0.3483 -0.0268
40978SOL    HW134658   1.295   3.560   5.871 -1.1088  0.6949  0.2580
40978SOL    HW234659   1.340   3.561   5.727 -0.2671 -0.1551  0.5114
40979SOL     OW34660   9.675  10.074  10.961  1.1337 -0.4991  0.4493
40979SOL    HW134661   9.723   9.992  10.952 -0.4614 -1.5817  1.2723
40979SOL    HW234662   9.664  10.105  10.871 -0.3803 -2.5190 -0.1299
40980SOL     OW34663   4.461   4.684   2.391 -0.3509  0.8286  0.8252
40980SOL    HW134664   4.370   4.684   2.362 -0.4265 -2.7410  0.6692
40980SOL    HW234665   4.512   4.671   2.311  0.0396 -0.4406  1.2646
40981SOL     OW34666   4.602   3.128   6.616  0.0108 -0.5125  0.8560
40981SOL    HW134667   4.530   3.182   6.647  1.3151  2.0280 -0.1985
40981SOL    HW234668   4.561   3.063   6.559 -1.4122  1.7552 -0.8832
40982SOL     OW34669   2.196  10.607   1.428 -0.2324 -0.0048  0.1142
40982SOL    HW134670   2.197  10.641   1.517  2.1090  0.1934  0.0644
40982SOL    HW234671   2.265  10.541   1.426 -1.0401 -0.8747 -1.2548
40983SOL     OW34672   0.745   2.157  10.910  0.5292  0.2557  0.1203
40983SOL    HW134673   0.792   2.230  10.869 -0.6540  1.1428  0.2882
40983SOL    HW234674   0.744   2.178  11.003  3.0565 -1.6688  0.6897
40984SOL     OW34675   2.324   6.145   0.917  0.5800  0.0956 -0.0261
40984SOL    HW134676   2.318   6.080   0.846  2.6645  0.5985 -0.7356
40984SOL    HW234677   2.395   6.203   0.890 -2.7796  4.3481 -0.7188
40985SOL     OW34678   6.839  11.111   8.611  0.2650  0.5576 -0.1605
40985SOL    HW134679   6.819  11.030   8.565 -0.6173  1.3166 -1.1595
40985SOL    HW234680   6.863  11.173   8.542  1.1485  1.0980  0.6023
40986SOL     OW34681   4.101   3.849   4.777 -0.6935 -0.6528 -0.0879
40986SOL    HW134682   4.179   3.861   4.723 -0.4196  1.0374  0.6146
40986SOL    HW234683   4.132   3.797   4.852 -0.7021 -1.6062 -0.7354
40987SOL     OW34684  11.086   2.714   5.714  0.5653  0.5476  0.1883
40987SOL    HW134685  11.059   2.789   5.767  2.9748  1.8309 -0.2321
40987SOL    HW234686  11.140   2.662   5.773  1.0328  0.5344 -0.2473
40988SOL     OW34687  10.639   1.684  10.049 -0.4913 -0.1252  0.4543
40988SOL    HW134688  10.549   1.655  10.037 -0.4632 -0.2516  0.5412
40988SOL    HW234689  10.684   1.608  10.086 -0.2916 -0.1423  0.1790
40989SOL     OW34690   3.749  10.187   2.401 -0.4494  0.0159 -0.0493
40989SOL    HW134691   3.695  10.203   2.478  0.4685  0.7506  0.4682
40989SOL    HW234692   3.753  10.272   2.357 -1.6758 -0.5890 -1.3997
40990SOL     OW34693   2.297   2.295   6.596  0.0266  0.0899  0.1587
40990SOL    HW134694   2.376   2.263   6.552 -1.0502  0.3644 -2.1071
40990SOL    HW234695   2.245   2.335   6.526 -2.8765 -1.5195  1.2435
40991SOL     OW34696   4.160  11.349   8.528 -0.2478  0.5721 -0.0264
40991SOL    HW134697   4.189  11.262   8.555 -1.1052  0.1688 -0.3488
40991SOL    HW234698   4.067  11.337   8.505  0.1428  1.1216 -2.0781
40992SOL     OW34699   6.207   8.251   6.394 -0.2234  0.1642  0.1897
40992SOL    HW134700   6.149   8.299   6.335 -1.2470  0.7399  1.5961
40992SOL    HW234701   6.294   8.259   6.355 -0.5192  2.3159 -0.1533
40993SOL     OW34702   6.358   8.778   1.113  0.1750  0.0092 -0.0868
40993SOL    HW134703   6.423   8.837   1.152 -1.0778  0.5302  1.2701
40993SOL    HW234704   6.298   8.758   1.184 -1.4706 -0.0332 -1.4378
40994SOL     OW34705   0.559   2.419   7.694 -0.1144 -0.1219  0.4654
40994SOL    HW134706   0.488   2.366   7.729 -0.6485  0.1394 -0.1858
40994SOL    HW234707   0.639   2.372   7.717 -0.5680 -1.1492  0.0084
40995SOL     OW34708   2.879   8.555   1.283 -0.0391 -0.2900 -0.3763
40995SOL    HW134709   2.814   8.485   1.272 -0.9812  0.2654  1.2534
40995SOL    HW234710   2.882   8.598   1.198 -0.6548 -1.2963 -0.9376
40996SOL     OW34711   1.615   1.947   0.335  0.5813  0.1737 -0.1471
40996SOL    HW134712   1.622   1.915   0.245  1.8571 -2.0742  0.6873
40996SOL    HW234713   1.622   2.042   0.327 -0.1568  0.0964 -2.4718
40997SOL     OW34714   1.759   4.146   0.937 -0.7829  0.3543  0.2089
40997SOL    HW134715   1.791   4.068   0.983 -1.1771 -1.9441 -3.1010
40997SOL    HW234716   1.836   4.182   0.894 -1.0178  0.2738 -0.2916
40998SOL     OW34717   7.918   4.195   7.944  0.1922 -0.3863 -0.0112
40998SOL    HW134718   7.913   4.206   8.038  1.2155  2.9344 -0.2362
40998SOL    HW234719   7.827   4.196   7.914 -0.0700  0.8839  0.7738
40999SOL     OW34720   3.032   0.307   3.926  0.1156 -0.3010  0.1965
40999SOL    HW134721   3.021   0.303   3.831 -1.8969 -0.9916  0.4194
40999SOL    HW234722   3.038   0.216   3.954 -0.0847 -0.1365  0.8066
41000SOL     OW34723  11.219   7.179  11.320 -0.0138 -0.0295 -0.0955
41000SOL    HW134724  11.210   7.274  11.314  3.8803  0.5191  0.2134
41000SOL    HW234725  11.251   7.163  11.409 -2.0191 -1.8638  0.3821
41001SOL     OW34726   9.774   4.466   1.558  0.5367  0.1083  0.3331
41001SOL    HW134727   9.847   4.460   1.497  0.5368 -1.4394  0.4463
41001SOL    HW234728   9.706   4.410   1.521  0.2841 -0.3128  1.3922
41002SOL     OW34729   2.733   8.197  11.442  0.2700 -0.3024  0.0958
41002SOL    HW134730   2.825   8.189  11.470  0.0587 -0.5530  0.7273
41002SOL    HW234731   2.730   8.152  11.358  1.1399  1.3254 -0.8643
41003SOL     OW34732   3.811  10.511   4.719  0.0712 -0.0801 -0.3320
41003SOL    HW134733   3.839  10.475   4.635 -0.2284 -0.7847 -0.1349
41003SOL    HW234734   3.761  10.441   4.760  0.2498  0.2412  0.4557
41004SOL     OW34735   0.991   1.240   2.038  0.0788 -0.0807 -0.3072
41004SOL    HW134736   0.904   1.199   2.040  0.7922 -1.6093  1.0809
41004SOL    HW234737   1.050   1.170   2.009  1.1675  0.2637  0.9908
41005SOL     OW34738   2.458   4.014  11.360  0.6451  0.1691 -0.0476
41005SOL    HW134739   2.519   3.942  11.347  1.2626  0.4711  1.0419
41005SOL    HW234740   2.399   3.982  11.429 -0.0461  0.1242 -0.6454
41006SOL     OW34741   1.698   2.228   3.138 -0.3285 -0.3706  0.8807
41006SOL    HW134742   1.606   2.233   3.115 -0.4773 -0.2357  1.4746
41006SOL    HW234743   1.713   2.303   3.195 -0.0004 -0.7233  1.2698
41007SOL     OW34744   1.423  11.090   8.792  0.5249  0.3502  0.3570
41007SOL    HW134745   1.445  11.114   8.882 -1.4170 -1.3292  1.3793
41007SOL    HW234746   1.344  11.141   8.772  1.0221  0.8142 -0.4485
41008SOL     OW34747   8.710   5.011   4.930 -0.7227  0.0552  0.7067
41008SOL    HW134748   8.778   5.069   4.965 -0.1188  0.1352 -0.5425
41008SOL    HW234749   8.639   5.070   4.904 -0.9085  0.0513  1.1923
41009SOL     OW34750   4.128  10.266   7.883  0.3373 -0.0469 -0.3210
41009SOL    HW134751   4.074  10.195   7.849  1.3856 -1.1512  0.2295
41009SOL    HW234752   4.074  10.309   7.949 -0.3442 -0.2644 -0.7291
41010SOL     OW34753   8.326   2.551   6.137 -0.1139 -0.6004 -0.0723
41010SOL    HW134754   8.305   2.625   6.193  1.5356 -0.2548  0.1206
41010SOL    HW234755   8.263   2.557   6.064  0.5105  1.4627 -0.4898
41011SOL     OW34756   3.275   2.399  11.876  0.0465 -0.3346  0.2964
41011SOL    HW134757   3.263   2.309  11.906  0.8251 -0.4963  0.1526
41011SOL    HW234758   3.191   2.423  11.837  0.0601 -1.2597 -0.3254
41012SOL     OW34759   8.073   0.962   7.695 -0.5872  0.1060  0.2711
41012SOL    HW134760   8.014   0.887   7.696 -1.6183  0.8815  0.1744
41012SOL    HW234761   8.143   0.937   7.634 -1.9613 -0.0321 -1.3299
41013SOL     OW34762   6.946   8.722   0.274 -0.2504 -0.1941 -0.4710
41013SOL    HW134763   7.034   8.758   0.284 -0.6729  0.9819 -0.8494
41013SOL    HW234764   6.914   8.709   0.363 -0.4633  1.3399 -0.3050
41014SOL     OW34765  10.656   9.754   5.326 -0.5344  0.1980  0.0101
41014SOL    HW134766  10.597   9.756   5.250  2.7914  2.0446 -2.8348
41014SOL    HW234767  10.697   9.841   5.326  1.9158 -0.8420  1.9889
41015SOL     OW34768   6.253  11.528   8.699  0.4033 -0.2884 -0.1811
41015SOL    HW134769   6.237  11.504   8.608 -1.5480  0.3918 -0.0605
41015SOL    HW234770   6.167  11.546   8.735  1.2269  0.5670  1.5039
41016SOL     OW34771  10.533   1.345  11.030  0.2574  0.2184 -0.0480
41016SOL    HW134772  10.535   1.441  11.030  0.1970  0.2231 -0.3749
41016SOL    HW234773  10.569   1.321  10.944 -0.2991 -0.0324 -0.2175
41017SOL     OW34774   1.035   3.399   6.814  0.6797 -0.2110  0.2521
41017SOL    HW134775   0.946   3.362   6.818  0.6843 -0.2427  0.0709
41017SOL    HW234776   1.044   3.428   6.723  1.5309 -1.9078 -0.2601
41018SOL     OW34777   5.867   9.806   4.137 -0.4674 -0.0278  0.3335
41018SOL    HW134778   5.917   9.888   4.129  1.1702 -0.8530  1.4464
41018SOL    HW234779   5.778   9.829   4.110 -0.0233  2.0894  0.5019
41019SOL     OW34780  10.807  10.533  11.072  0.5397 -0.3104  0.2164
41019SOL    HW134781  10.735  10.473  11.052  0.4031  0.2084 -0.9712
41019SOL    HW234782  10.763  10.614  11.100  0.5091  0.6752 -2.3596
41020SOL     OW34783   2.214   7.553  11.332 -0.6287 -0.2812 -0.5412
41020SOL    HW134784   2.160   7.526  11.258 -3.2441  0.5330  0.9400
41020SOL    HW234785   2.171   7.631  11.366  0.4269 -0.6431  1.8462
41021SOL     OW34786   8.537   2.022   1.555  0.0877 -0.2553 -0.5234
41021SOL    HW134787   8.535   2.114   1.578  1.1203 -0.3507  0.0115
41021SOL    HW234788   8.630   1.998   1.558 -0.1834 -1.3652 -0.4096
41022SOL     OW34789   2.379   2.081   4.129  0.1300 -0.4182 -0.1846
41022SOL    HW134790   2.350   2.114   4.214 -0.8386 -1.8933  0.1096
41022SOL    HW234791   2.475   2.085   4.133  0.1954  4.2515 -1.0358
41023SOL     OW34792   5.139  11.769   0.634  0.3977 -0.0782 -0.0553
41023SOL    HW134793   5.232  11.754   0.650  0.2545 -0.0355  0.8769
41023SOL    HW234794   5.132  11.864   0.619  0.3370  0.1214  1.1677
41024SOL     OW34795   1.821   1.656   3.287 -0.0483 -0.6128  0.4603
41024SOL    HW134796   1.911   1.649   3.319  0.3101 -0.3730 -0.4793
41024SOL    HW234797   1.812   1.747   3.259 -0.6271 -0.6025  0.6675
41025SOL     OW34798  11.790   1.661  11.644  0.4803  0.3155 -0.1572
41025SOL    HW134799  11.848   1.729  11.677 -0.0497  1.4520 -1.4521
41025SOL    HW234800  11.714   1.664  11.702  1.4817 -0.8822  1.2757
41026SOL     OW34801   5.551  11.030   5.164 -0.7869 -0.0803  0.0077
41026SOL    HW134802   5.617  10.988   5.109  0.6197  1.4964  0.4002
41026SOL    HW234803   5.504  11.089   5.104 -0.1773  0.6149  0.2040
41027SOL     OW34804   1.700   2.778   3.486 -0.2802  0.4849  0.0270
41027SOL    HW134805   1.725   2.687   3.471 -1.7512 -0.0553  0.7521
41027SOL    HW234806   1.663   2.807   3.403 -0.0551  0.3480 -0.1218
41028SOL     OW34807   7.622   9.121   2.522 -0.4734  0.3505  0.0651
41028SOL    HW134808   7.655   9.036   2.550 -0.4232  0.7464  1.2590
41028SOL    HW234809   7.698   9.166   2.488 -0.5636 -0.1966 -0.8859
41029SOL     OW34810   6.538  10.239   2.361 -0.2341 -0.0730  0.7407
41029SOL    HW134811   6.535  10.179   2.435 -0.4617 -1.3834 -0.2762
41029SOL    HW234812   6.483  10.197   2.294 -0.9885  1.6173  0.2123
41030SOL     OW34813   0.506  10.040   5.033  0.1750  0.0456  0.3430
41030SOL    HW134814   0.504   9.999   4.946  0.4662  0.9384 -0.0929
41030SOL    HW234815   0.579   9.997   5.077 -0.6345 -1.1828  0.5536
41031SOL     OW34816   9.653   9.516   8.199  0.7609 -0.1632 -0.5930
41031SOL    HW134817   9.643   9.511   8.294  0.8678 -3.0447 -0.6485
41031SOL    HW234818   9.727   9.459   8.180  1.4766  1.2759 -2.3410
41032SOL     OW34819   5.496   4.044   9.398  0.4360  0.0020  0.1393
41032SOL    HW134820   5.412   4.009   9.429  0.2653  1.3309  1.2828
41032SOL    HW234821   5.472   4.117   9.341  0.7387  1.8917  2.2694
41033SOL     OW34822   9.051   0.451   7.495 -0.2964 -0.3580  0.4363
41033SOL    HW134823   8.997   0.470   7.571  1.0135  1.5888  0.9723
41033SOL    HW234824   9.001   0.485   7.421  0.0982  1.4338  0.9250
41034SOL     OW34825   3.366  10.214   5.135 -0.0699  0.4198 -0.5420
41034SOL    HW134826   3.421  10.137   5.120  2.3001  1.7819  0.6226
41034SOL    HW234827   3.374  10.265   5.054  0.5122  0.6783 -0.3251
41035SOL     OW34828   1.644   4.176  11.730  0.3349  0.2581  0.3514
41035SOL    HW134829   1.589   4.227  11.670 -0.6307 -1.0509  0.0859
41035SOL    HW234830   1.602   4.186  11.815 -0.7390 -1.2678  0.0348
41036SOL     OW34831   3.304   0.307   0.104  0.1672  1.1352 -0.2615
41036SOL    HW134832   3.377   0.366   0.122  1.3085 -0.9692  2.7433
41036SOL    HW234833   3.333   0.222   0.137 -3.5544  0.1458  0.9293
41037SOL     OW34834   1.301   2.399   1.768  0.0897 -1.1928 -0.0585
41037SOL    HW134835   1.266   2.310   1.775  0.8686 -1.3844  2.1438
41037SOL    HW234836   1.396   2.388   1.773  0.1541 -0.1630  2.3245
41038SOL     OW34837   5.254   1.197   2.662 -0.4647 -0.0963  0.0905
41038SOL    HW134838   5.218   1.286   2.669  3.3040  1.7058 -0.6209
41038SOL    HW234839   5.269   1.186   2.568  0.8676 -0.6814  0.3600
41039SOL     OW34840  10.690   5.359   8.042 -0.0846 -0.0306 -0.0306
41039SOL    HW134841  10.599   5.386   8.026 -0.9311 -0.8052  2.8011
41039SOL    HW234842  10.690   5.265   8.027  0.4475  0.0750 -0.7153
41040SOL     OW34843  10.738   4.665   2.574 -0.6420 -0.1332  0.2974
41040SOL    HW134844  10.728   4.620   2.490 -0.2778  2.9678 -1.5203
41040SOL    HW234845  10.828   4.647   2.600 -0.1889  0.3297 -0.8950
41041SOL     OW34846   2.539   7.454   5.698  0.2167 -0.2328  0.3795
41041SOL    HW134847   2.528   7.394   5.772  2.0216  0.8736  1.6370
41041SOL    HW234848   2.531   7.541   5.736  2.3905  0.3985 -0.4169
41042SOL     OW34849  10.543   6.226   7.854 -0.2918 -0.4048  0.1587
41042SOL    HW134850  10.586   6.234   7.769  2.4449  0.0948  1.4693
41042SOL    HW234851  10.505   6.313   7.870  0.5906  0.0000  0.1153
41043SOL     OW34852   6.507  11.834   3.483  0.6180  0.2246  0.1573
41043SOL    HW134853   6.457  11.903   3.527  0.0346  0.1549 -0.3731
41043SOL    HW234854   6.443  11.764   3.468  1.0819 -0.2199  0.2331
41044SOL     OW34855  10.049   0.900   0.478  0.1042  0.5273 -0.3544
41044SOL    HW134856  10.096   0.858   0.550 -0.5785  0.8323  0.2812
41044SOL    HW234857   9.988   0.833   0.447 -1.0336  1.0245  0.7043
41045SOL     OW34858   2.196   1.085   4.061  0.3031  0.3216  0.0874
41045SOL    HW134859   2.110   1.126   4.073  0.3851  0.6115 -0.2981
41045SOL    HW234860   2.182   0.993   4.087  0.0554  0.5278  0.6985
41046SOL     OW34861  11.234   6.056   0.692 -0.2377  0.4117 -0.4911
41046SOL    HW134862  11.200   6.012   0.770  1.5203  0.2356  0.2067
41046SOL    HW234863  11.204   6.002   0.619 -1.1014  0.0538  0.1028
41047SOL     OW34864  11.520   3.016   7.680  0.0542 -0.1681 -0.7023
41047SOL    HW134865  11.515   3.030   7.585 -1.1905  1.1129 -0.4772
41047SOL    HW234866  11.440   2.969   7.702  0.5170 -0.7930 -0.3224
41048SOL     OW34867   7.129   3.758   3.370 -0.1349  0.1268  0.4768
41048SOL    HW134868   7.122   3.834   3.312  0.1796  0.6342  1.0958
41048SOL    HW234869   7.198   3.705   3.332 -0.6552 -0.0678 -0.2049
41049SOL     OW34870   7.819   4.495   2.849 -0.3876  0.7319  0.0204
41049SOL    HW134871   7.799   4.516   2.940 -0.2928  3.2939 -0.4864
41049SOL    HW234872   7.734   4.479   2.809 -0.4446 -0.1823  0.4701
41050SOL     OW34873   1.618   3.304   3.399  0.6351  0.1549 -0.9007
41050SOL    HW134874   1.697   3.324   3.450 -0.8079 -0.0418  1.5368
41050SOL    HW234875   1.575   3.388   3.388 -0.3249 -0.1281  0.4807
41051SOL     OW34876   9.474   0.113   7.950 -0.4954 -0.3949 -0.4362
41051SOL    HW134877   9.547   0.148   7.899 -0.3144 -0.8756 -0.5195
41051SOL    HW234878   9.455   0.028   7.909 -0.8802 -0.4202 -0.2081
41052SOL     OW34879   7.260   7.320   7.480  0.8762  0.8300 -0.4283
41052SOL    HW134880   7.301   7.406   7.475 -0.2096  1.3075 -1.2165
41052SOL    HW234881   7.193   7.320   7.412 -0.7178  0.2065  1.0712
41053SOL     OW34882   7.723   5.062   2.796  0.6950 -0.7342  0.1030
41053SOL    HW134883   7.697   4.993   2.734  1.5238 -0.9901  0.0336
41053SOL    HW234884   7.804   5.031   2.834  0.2206 -0.5479  1.3029
41054SOL     OW34885   0.754   8.585  11.668  0.9748  0.1817 -0.2027
41054SOL    HW134886   0.676   8.609  11.719 -1.3871 -0.5471 -3.1886
41054SOL    HW234887   0.730   8.604  11.577  4.0174 -0.8896 -1.3442
41055SOL     OW34888   8.475   0.457   1.353 -0.1357  0.2683  0.1029
41055SOL    HW134889   8.434   0.471   1.439  0.1232 -0.6993  0.3901
41055SOL    HW234890   8.405   0.419   1.299  0.1665 -0.6890  0.3775
41056SOL     OW34891   2.435   1.934   4.889  0.9156  0.0920 -0.2964
41056SOL    HW134892   2.517   1.933   4.938 -0.1171 -1.7276  1.5378
41056SOL    HW234893   2.429   1.847   4.850  0.8008  0.8919 -2.1757
41057SOL     OW34894  10.928   1.861   3.928 -0.0260 -0.5421 -0.5053
41057SOL    HW134895  10.979   1.813   3.863 -1.1865 -0.5036 -1.4693
41057SOL    HW234896  10.994   1.902   3.985  1.0061 -0.7664 -1.5093
41058SOL     OW34897   0.813   0.370   0.713  0.1083  0.4482 -0.0117
41058SOL    HW134898   0.850   0.345   0.628  1.6278 -0.9225  0.9959
41058SOL    HW234899   0.884   0.414   0.759 -0.9024  1.7814  0.3503
41059SOL     OW34900  10.704   6.800   1.248  0.2505 -0.0782  0.5674
41059SOL    HW134901  10.692   6.748   1.168  0.9479  0.2613  0.2320
41059SOL    HW234902  10.618   6.799   1.290 -0.0996 -0.3584 -0.1308
41060SOL     OW34903   8.951   9.051   0.719  0.2402  0.2582  0.5656
41060SOL    HW134904   8.904   9.067   0.637 -2.0359  0.0181  1.7269
41060SOL    HW234905   9.028   9.001   0.693  0.1123  1.0427 -1.5188
41061SOL     OW34906   8.858   4.224  11.367 -0.2406 -0.8521 -0.4058
41061SOL    HW134907   8.897   4.307  11.396  1.8658 -2.2323  1.0390
41061SOL    HW234908   8.896   4.210  11.280 -1.8433  0.3921 -1.3627
41062SOL     OW34909   8.720   0.647  10.338  0.2504 -0.2820  0.3013
41062SOL    HW134910   8.682   0.724  10.380  0.6568  0.1296 -0.0731
41062SOL    HW234911   8.815   0.658  10.350  0.3541 -0.3014 -0.4818
41063SOL     OW34912   7.907   9.317  10.799 -0.0008 -0.0980  0.3382
41063SOL    HW134913   7.916   9.410  10.779 -0.1644 -0.1566 -0.0322
41063SOL    HW234914   7.813   9.301  10.797  0.0117 -0.2151  0.6704
41064SOL     OW34915   2.232   2.001   8.289 -0.0311  0.2548 -0.7698
41064SOL    HW134916   2.182   1.921   8.274 -0.5258  0.8728 -2.5424
41064SOL    HW234917   2.232   2.047   8.205  3.0631  0.5448 -0.7518
41065SOL     OW34918   9.597   8.972   1.712  0.0753 -0.3561  0.0477
41065SOL    HW134919   9.572   8.925   1.791  0.5920 -0.2699  0.2690
41065SOL    HW234920   9.690   8.994   1.726 -0.3395  1.4006  0.3005
41066SOL     OW34921   9.466   0.930   9.842 -0.3500 -0.1895 -0.1666
41066SOL    HW134922   9.442   0.946   9.934 -1.4162  1.5657 -0.6991
41066SOL    HW234923   9.468   0.835   9.834 -1.1445 -0.3833  1.4687
41067SOL     OW34924   0.204   8.609   8.192  0.1044  0.0846  0.5137
41067SOL    HW134925   0.286   8.648   8.223  0.5382 -0.7068  0.3648
41067SOL    HW234926   0.143   8.683   8.190  1.2769  1.0801 -1.1008
41068SOL     OW34927   5.221   5.328   7.255  0.9141  0.2528  0.1701
41068SOL    HW134928   5.155   5.261   7.275 -1.1684  2.3953  1.0833
41068SOL    HW234929   5.236   5.320   7.161 -0.1744 -0.7483  0.0506
41069SOL     OW34930   2.270  10.310   6.899  0.8449  0.0827 -0.2066
41069SOL    HW134931   2.365  10.296   6.901  0.8447 -0.3679 -1.6419
41069SOL    HW234932   2.255  10.383   6.958  2.1399  0.4181 -0.2519
41070SOL     OW34933   5.955   8.668   1.431 -0.2005  0.5527  0.0416
41070SOL    HW134934   5.870   8.645   1.468  1.5084 -1.8579  2.9163
41070SOL    HW234935   5.977   8.752   1.471  0.2692 -0.5874  2.3833
41071SOL     OW34936   4.063   8.179   5.882 -0.2409 -0.6992  0.7631
41071SOL    HW134937   4.120   8.105   5.902 -1.7188 -1.4611  2.3490
41071SOL    HW234938   4.100   8.216   5.802 -0.2015 -3.9638 -0.9073
41072SOL     OW34939   4.424   0.993  11.291  0.2127  0.2854  0.0261
41072SOL    HW134940   4.512   1.017  11.260  0.3966  0.2236  0.4878
41072SOL    HW234941   4.375   0.972  11.211  0.3974  1.0537 -0.2996
41073SOL     OW34942   5.685   9.076   6.900  0.3188  1.0060  0.0145
41073SOL    HW134943   5.741   9.083   6.822  2.5185 -0.4282  1.3546
41073SOL    HW234944   5.599   9.054   6.866  0.7735  2.2046 -2.1035
41074SOL     OW34945  11.920   4.960  10.577  0.4629  0.0268 -0.1189
41074SOL    HW134946  11.942   5.052  10.592 -0.4323  0.0301  1.3896
41074SOL    HW234947  12.004   4.916  10.568  0.9040  0.9353 -0.5512
41075SOL     OW34948  11.036   6.127   1.491 -0.0602  0.0683  0.1120
41075SOL    HW134949  11.112   6.138   1.550  0.0479  0.6064 -0.1219
41075SOL    HW234950  11.031   6.210   1.443  0.4274 -0.7055 -1.3185
41076SOL     OW34951  10.940  11.058   4.800 -0.5163 -0.3833 -0.1562
41076SOL    HW134952  11.035  11.052   4.798 -0.2789  1.6394  1.5537
41076SOL    HW234953  10.915  11.018   4.884 -1.0410  0.3290  0.0309
41077SOL     OW34954   1.232   8.395  10.506  0.0439  0.2798 -0.1391
41077SOL    HW134955   1.206   8.423  10.594 -1.4891 -0.2405 -0.3993
41077SOL    HW234956   1.307   8.337  10.520 -0.6641 -0.4168  0.9051
41078SOL     OW34957  11.829   8.192   7.525 -0.5146 -0.6653 -0.0131
41078SOL    HW134958  11.904   8.134   7.540  1.1824  1.4533  0.0673
41078SOL    HW234959  11.794   8.163   7.441  1.6450 -0.4829 -1.0484
41079SOL     OW34960   6.764   1.068  10.238 -0.2987 -0.0562 -0.5230
41079SOL    HW134961   6.738   0.977  10.226 -0.6681  0.0608 -0.6359
41079SOL    HW234962   6.803   1.071  10.325 -0.8717 -0.1972 -0.2528
41080SOL     OW34963   1.390   0.651  10.168 -0.1518 -0.0152 -0.2981
41080SOL    HW134964   1.319   0.651  10.232 -0.2254  0.0887 -0.3793
41080SOL    HW234965   1.463   0.692  10.213  0.4777 -1.8489  0.4631
41081SOL     OW34966   3.358   2.828   4.236 -0.2677  0.6748 -0.0001
41081SOL    HW134967   3.351   2.795   4.147 -0.9569 -0.5224  0.4772
41081SOL    HW234968   3.286   2.786   4.283  2.1316 -1.5898  1.9783
41082SOL     OW34969   4.860   5.179   8.618  0.1888  0.2920  0.3061
41082SOL    HW134970   4.846   5.088   8.593  1.2211  0.7160 -2.0746
41082SOL    HW234971   4.868   5.226   8.535  3.6974  1.8857  1.3364
41083SOL     OW34972   9.371   9.460  11.497 -0.1925 -0.3253  0.3654
41083SOL    HW134973   9.307   9.515  11.541  0.7958  1.6962 -0.6128
41083SOL    HW234974   9.328   9.435  11.415 -0.7143 -1.2099  0.8942
41084SOL     OW34975   8.118  11.544  11.501 -0.1919  0.0602 -0.0185
41084SOL    HW134976   8.034  11.498  11.494 -0.2627  0.4936 -3.7107
41084SOL    HW234977   8.155  11.512  11.583 -2.5785 -2.5077  0.2288
41085SOL     OW34978   3.667   1.482   0.315 -0.1698 -0.1704 -0.1505
41085SOL    HW134979   3.620   1.539   0.375 -0.6450 -0.2316 -0.4559
41085SOL    HW234980   3.600   1.452   0.253  0.1553 -0.7106 -0.2535
41086SOL     OW34981   0.575   1.579   2.415  0.5403 -0.5995  0.3246
41086SOL    HW134982   0.635   1.504   2.407  0.0992 -1.0048  0.7963
41086SOL    HW234983   0.566   1.611   2.325  0.5669 -1.2441  0.0832
41087SOL     OW34984   1.244  10.895   7.516  0.4199  0.0904  0.4621
41087SOL    HW134985   1.307  10.898   7.444 -0.3241  0.6106 -0.1832
41087SOL    HW234986   1.223  10.802   7.525  0.6670  0.0013  0.1285
41088SOL     OW34987   4.391  11.415   3.036  0.2252 -0.4626 -0.1883
41088SOL    HW134988   4.421  11.505   3.025 -0.1412 -0.2710  0.3361
41088SOL    HW234989   4.390  11.379   2.947 -2.9502  1.1095 -0.9194
41089SOL     OW34990   2.741  11.388   8.109  0.3438  0.4184  0.6951
41089SOL    HW134991   2.651  11.412   8.088 -0.0125 -0.8004  0.7559
41089SOL    HW234992   2.750  11.408   8.203  0.0947  0.4105  0.7212
41090SOL     OW34993   6.695   8.704   1.951 -0.4274 -0.0907 -0.3890
41090SOL    HW134994   6.658   8.733   2.034  0.1165 -0.3484 -0.0535
41090SOL    HW234995   6.753   8.775   1.924  0.6880 -0.7202  0.2934
41091SOL     OW34996   2.094  10.380   9.172 -0.3464  0.4859  0.1862
41091SOL    HW134997   2.051  10.462   9.150  0.9775  1.3719  0.8074
41091SOL    HW234998   2.132  10.395   9.259  1.6580 -0.0521 -0.5426
41092SOL     OW34999   6.908   6.725   9.210 -0.6187 -0.5887 -0.2878
41092SOL    HW135000   6.971   6.739   9.139  1.8798 -0.4723  1.8088
41092SOL    HW235001   6.934   6.787   9.278 -1.1307 -2.5416  1.8211
41093SOL     OW35002   7.533   1.101   4.317 -0.0219  0.6080  0.8340
41093SOL    HW135003   7.472   1.054   4.260  2.5061  1.0098 -2.4504
41093SOL    HW235004   7.539   1.189   4.279  1.6439  0.9714  1.8452
41094SOL     OW35005   8.978   1.877   4.078  0.1990 -0.1248 -0.1489
41094SOL    HW135006   9.041   1.831   4.022  0.4020 -0.8729  0.6644
41094SOL    HW235007   8.991   1.839   4.165 -0.4181  0.6985  0.3198
41095SOL     OW35008   4.289   1.639   5.281  0.1019  0.0377  0.0244
41095SOL    HW135009   4.259   1.581   5.210 -0.2702 -0.5487  0.6505
41095SOL    HW235010   4.265   1.593   5.361  0.9415  0.4711  0.5398
41096SOL     OW35011  10.523   7.357   4.381 -0.6953 -0.0108 -0.4479
41096SOL    HW135012  10.548   7.442   4.417 -0.8415 -0.9357  2.0107
41096SOL    HW235013  10.428   7.355   4.388 -0.6353 -0.6692  0.2222
41097SOL     OW35014   4.377   7.339   5.518  0.0691 -0.0635 -0.2869
41097SOL    HW135015   4.317   7.367   5.587  0.5702 -0.5636  0.3732
41097SOL    HW235016   4.340   7.258   5.484  0.2471 -0.2602 -0.0226
41098SOL     OW35017   3.148   5.999   1.266  0.2133  0.0959  0.2064
41098SOL    HW135018   3.131   5.918   1.218  1.8270  0.4949 -1.1174
41098SOL    HW235019   3.177   6.061   1.199  1.9466  0.8547  1.5693
41099SOL     OW35020   4.020  10.780   3.713 -0.1021 -0.3939 -0.5532
41099SOL    HW135021   3.967  10.721   3.767  0.9699  0.0773  1.1137
41099SOL    HW235022   4.063  10.723   3.649 -1.9117 -0.8843 -1.3785
41100SOL     OW35023   4.779   3.709   6.943 -0.7808 -0.1345 -0.1781
41100SOL    HW135024   4.805   3.659   7.021  0.4078  1.7861  0.7317
41100SOL    HW235025   4.849   3.774   6.932 -0.4632 -0.8305 -3.3723
41101SOL     OW35026   3.381   1.603   5.452 -0.9178  0.4551 -0.2049
41101SOL    HW135027   3.332   1.521   5.455 -0.3332  0.1247  1.1435
41101SOL    HW235028   3.435   1.601   5.531 -1.7475  2.6919  0.4833
41102SOL     OW35029   4.396   8.035   1.598 -0.3941  0.0435 -0.5850
41102SOL    HW135030   4.397   8.063   1.507 -0.0895  2.3196  0.0617
41102SOL    HW235031   4.444   8.104   1.645  1.1652 -2.0189  1.0524
41103SOL     OW35032   1.099   5.143   7.353 -0.6633  0.3375 -0.4367
41103SOL    HW135033   1.168   5.157   7.417 -1.4249 -1.0524  0.7610
41103SOL    HW235034   1.130   5.069   7.300 -1.8052 -1.3117  1.0788
41104SOL     OW35035   5.076   6.673   9.910  0.3825 -0.3394  0.0331
41104SOL    HW135036   5.064   6.756   9.864  0.9414 -1.5138 -2.4042
41104SOL    HW235037   4.994   6.626   9.898  0.3980 -0.5212  0.5913
41105SOL     OW35038   5.423   2.502   1.416  0.0211  0.0976  0.4679
41105SOL    HW135039   5.421   2.422   1.364  0.3917  0.2196  0.2618
41105SOL    HW235040   5.333   2.516   1.443 -0.2075  0.1357 -0.3001
41106SOL     OW35041   5.591  10.983   9.941 -0.4819 -0.6885 -0.1736
41106SOL    HW135042   5.545  10.961   9.861 -1.3169 -0.4054  0.2142
41106SOL    HW235043   5.624  11.072   9.926  0.1720 -0.9862 -0.5466
41107SOL     OW35044   9.973  10.660   4.947 -0.4234  0.1718  0.1926
41107SOL    HW135045   9.935  10.577   4.977 -0.1139 -0.2868 -0.6394
41107SOL    HW235046   9.908  10.726   4.972 -0.7332 -0.3307  0.7593
41108SOL     OW35047   7.833   9.848   2.557 -0.0992  0.2414  0.1199
41108SOL    HW135048   7.766   9.881   2.496  0.4667 -0.2567 -0.7957
41108SOL    HW235049   7.897   9.919   2.561 -0.1736  0.3043  0.1889
41109SOL     OW35050   4.578   9.595   4.885 -0.7106  0.3568  0.4229
41109SOL    HW135051   4.511   9.657   4.914  0.3403  1.8765 -0.2604
41109SOL    HW235052   4.637   9.586   4.959 -0.2864  1.0152  0.1714
41110SOL     OW35053   0.126   9.348   6.962 -0.2555  0.1410  0.1828
41110SOL    HW135054   0.043   9.362   6.917 -1.3634 -1.3826  1.6082
41110SOL    HW235055   0.115   9.393   7.046 -0.5228 -1.8190  1.2530
41111SOL     OW35056  10.802   9.577   9.858 -0.3886  0.0432 -0.0933
41111SOL    HW135057  10.777   9.492   9.893  0.6110 -0.8963 -1.5480
41111SOL    HW235058  10.773   9.575   9.767 -0.7343  1.4450 -0.0359
41112SOL     OW35059   7.691  11.726   1.543  0.0480  0.5034  0.2108
41112SOL    HW135060   7.710  11.818   1.529 -0.5183  0.7132  0.7397
41112SOL    HW235061   7.763  11.679   1.501  0.6120  1.1997  0.3868
41113SOL     OW35062   1.609   3.750   9.692 -0.2218 -0.8309  0.4876
41113SOL    HW135063   1.665   3.677   9.718  0.9130 -0.2424 -0.2166
41113SOL    HW235064   1.670   3.817   9.660 -1.3682 -0.5869 -1.3457
41114SOL     OW35065   4.598  10.700   4.033 -0.2565  0.0657  0.4370
41114SOL    HW135066   4.653  10.708   3.955 -0.5828  0.5545  0.2554
41114SOL    HW235067   4.648  10.741   4.103 -0.8513  1.5344  0.0382
41115SOL     OW35068   9.948   0.991   7.554 -0.1322  0.1436 -0.4054
41115SOL    HW135069   9.881   0.950   7.610  0.8680 -0.6036  0.2752
41115SOL    HW235070  10.026   0.938   7.568  0.9537  1.7364 -0.2209
41116SOL     OW35071   7.079   4.202   0.209 -0.2540  0.2344 -0.6971
41116SOL    HW135072   7.164   4.238   0.182  0.6860 -0.2372  1.4719
41116SOL    HW235073   7.066   4.235   0.298 -1.9882 -0.3454 -0.7039
41117SOL     OW35074   8.708   7.085   6.319  0.2023 -0.2638  0.2159
41117SOL    HW135075   8.721   7.040   6.236 -0.5998 -0.0957 -0.0096
41117SOL    HW235076   8.796   7.107   6.349  0.4255  2.5190 -2.1402
41118SOL     OW35077   4.735   2.595   7.102 -0.0746 -0.3463 -0.0091
41118SOL    HW135078   4.672   2.586   7.031 -1.0085 -0.4590  0.8171
41118SOL    HW235079   4.773   2.682   7.090 -0.8005 -0.0503 -0.1829
41119SOL     OW35080   7.564  10.445   8.780 -0.6078 -0.0926 -0.2334
41119SOL    HW135081   7.547  10.532   8.746 -1.3249  0.4238  1.3746
41119SOL    HW235082   7.618  10.459   8.857 -0.6752 -1.0820  0.0109
41120SOL     OW35083   0.353   2.855   4.444 -0.0496  0.0110  0.8226
41120SOL    HW135084   0.365   2.936   4.494  0.1674 -0.1973  1.1110
41120SOL    HW235085   0.259   2.843   4.439 -0.2705  1.8508 -1.7428
41121SOL     OW35086   9.912   4.886   2.263 -0.1864 -0.0563 -0.2792
41121SOL    HW135087   9.929   4.826   2.336  0.5007 -0.3160 -0.6442
41121SOL    HW235088   9.931   4.834   2.185  0.0895  0.5357 -0.6106
41122SOL     OW35089   1.572   5.411   2.509  0.5929  0.1493  0.7220
41122SOL    HW135090   1.535   5.336   2.463  0.4039  1.1949 -0.9150
41122SOL    HW235091   1.522   5.486   2.477  0.6962  0.9767  2.4031
41123SOL     OW35092   1.537   2.071   1.213  0.6300 -0.1805  0.4344
41123SOL    HW135093   1.594   2.070   1.137 -0.0473  1.8498 -0.1577
41123SOL    HW235094   1.546   1.983   1.251  2.1546 -0.7295 -1.0756
41124SOL     OW35095   6.277  10.557   7.261  0.0614  0.2596  0.1325
41124SOL    HW135096   6.354  10.538   7.314 -0.7546 -0.4544  1.1032
41124SOL    HW235097   6.226  10.619   7.312  0.3119  1.2844 -0.8244
41125SOL     OW35098  11.692   2.052   6.525  0.0231  0.3863  0.1447
41125SOL    HW135099  11.609   2.074   6.568 -0.7933 -0.5514 -0.8976
41125SOL    HW235100  11.754   2.116   6.560 -0.2461 -1.0484  3.6977
41126SOL     OW35101  10.833   2.087   2.164  0.5719  0.5426 -0.0400
41126SOL    HW135102  10.765   2.084   2.231  1.6593 -0.2858  1.0700
41126SOL    HW235103  10.915   2.084   2.212  1.4006  0.6626 -1.3829
41127SOL     OW35104   5.502   9.499   1.643 -0.7872 -0.4350  0.0840
41127SOL    HW135105   5.498   9.441   1.566 -0.7306  0.2754 -0.4591
41127SOL    HW235106   5.527   9.441   1.715  0.3436 -0.8934 -0.6553
41128SOL     OW35107   5.653   0.853   0.065 -0.7709 -0.1214  0.3503
41128SOL    HW135108   5.719   0.856   0.135 -0.2969  2.3173 -0.1098
41128SOL    HW235109   5.690   0.794  -0.001  0.9329  1.0766  0.1681
41129SOL     OW35110   6.139   8.426   8.088 -0.3109  0.0216  0.3276
41129SOL    HW135111   6.215   8.369   8.096  0.1248  0.3567 -1.0949
41129SOL    HW235112   6.175   8.512   8.064 -1.1493  0.0284 -0.9989
41130SOL     OW35113  11.938   4.459  11.623 -0.4158 -0.6409 -0.1994
41130SOL    HW135114  11.917   4.474  11.715 -0.2396 -0.6028 -0.1642
41130SOL    HW235115  11.984   4.538  11.596 -2.4415  0.3655 -0.9449
41131SOL     OW35116   0.481   1.458   0.290  0.4875 -0.2046 -0.2967
41131SOL    HW135117   0.572   1.430   0.284  0.4969 -0.2372 -0.0152
41131SOL    HW235118   0.480   1.521   0.362  0.2669 -0.2892 -0.2244
41132SOL     OW35119   9.222   0.997   0.692  0.0611 -0.2283 -0.4171
41132SOL    HW135120   9.268   0.934   0.747 -1.3515  1.5263  3.0776
41132SOL    HW235121   9.287   1.064   0.673 -0.3108  1.1291  2.6217
41133SOL     OW35122   9.670   8.325   2.299 -0.1547  0.5140 -0.0014
41133SOL    HW135123   9.740   8.295   2.242  0.6958  2.5145 -0.0727
41133SOL    HW235124   9.613   8.377   2.243 -0.8235  0.2442  0.4071
41134SOL     OW35125   7.179   2.789  11.840 -0.5282 -0.3585 -0.1242
41134SOL    HW135126   7.120   2.716  11.822  0.1674 -0.5556 -1.7616
41134SOL    HW235127   7.266   2.752  11.836 -0.1947  0.3953 -0.0737
41135SOL     OW35128   2.591   3.654  10.568  0.0886 -0.1878  0.4829
41135SOL    HW135129   2.572   3.617  10.481  1.5937 -0.9009  0.4330
41135SOL    HW235130   2.550   3.741  10.566 -0.9082 -0.6524 -0.5000
41136SOL     OW35131   1.278   6.697   5.528 -0.4506  0.4627  0.2587
41136SOL    HW135132   1.274   6.720   5.621 -1.9496  1.5226 -0.0403
41136SOL    HW235133   1.370   6.675   5.513 -0.1833  0.2464  1.9880
41137SOL     OW35134  11.413   6.734   5.566 -0.0130 -0.8361 -0.3307
41137SOL    HW135135  11.348   6.671   5.597 -2.2014  0.1396 -2.5527
41137SOL    HW235136  11.367   6.784   5.499  2.1785  1.9460  0.0648
41138SOL     OW35137   7.804  11.611   2.040  0.0057  0.4981  0.0663
41138SOL    HW135138   7.851  11.568   2.111  1.1598  2.2264  0.4088
41138SOL    HW235139   7.801  11.546   1.970  0.6440 -0.5341  0.9614
41139SOL     OW35140   2.585  10.905   5.351 -0.7164 -0.3160 -0.0606
41139SOL    HW135141   2.581  10.936   5.442  0.4717  2.4500 -0.8420
41139SOL    HW235142   2.543  10.819   5.353 -0.6154 -0.4108  3.1162
41140SOL     OW35143   7.545   5.323  11.646  0.7255  0.0036  0.2912
41140SOL    HW135144   7.625   5.270  11.637  0.7235  0.1546 -0.6972
41140SOL    HW235145   7.576   5.405  11.685  1.2515  0.4909 -1.0965
41141SOL     OW35146   4.968   4.600   7.329 -0.2264 -0.5341 -0.1404
41141SOL    HW135147   5.014   4.602   7.412 -0.6036  3.0384  0.1302
41141SOL    HW235148   4.882   4.638   7.348 -0.3807  0.2287 -2.0899
41142SOL     OW35149   5.197   6.997   4.459  0.2036 -0.3018 -0.5349
41142SOL    HW135150   5.101   6.993   4.460  0.0912  1.1854 -1.5275
41142SOL    HW235151   5.221   6.976   4.369  0.7850 -0.2427 -0.3978
41143SOL     OW35152   0.577   4.208   1.539  0.0775  0.4949 -0.0858
41143SOL    HW135153   0.662   4.249   1.521  1.1532 -1.6204 -0.1476
41143SOL    HW235154   0.534   4.203   1.454  1.6411 -2.0142 -0.8178
41144SOL     OW35155   0.526   2.853  11.917 -0.4604  0.0952 -0.4082
41144SOL    HW135156   0.486   2.831  12.002 -2.2503  1.4057 -0.8647
41144SOL    HW235157   0.460   2.830  11.852 -0.3925  2.0167 -1.2228
41145SOL     OW35158   4.646  11.777   0.336 -0.1454  0.3494  0.8836
41145SOL    HW135159   4.600  11.728   0.267  2.3465 -2.0247  0.7388
41145SOL    HW235160   4.685  11.851   0.290  0.7135 -0.6967 -0.1335
41146SOL     OW35161   2.451   1.663   7.236  0.3077  0.0007 -0.1009
41146SOL    HW135162   2.447   1.691   7.327  0.1053  0.7407 -0.3332
41146SOL    HW235163   2.443   1.567   7.240  0.0197  0.0518  0.6344
41147SOL     OW35164   6.561   2.900   6.272 -0.4107  0.6336 -0.0313
41147SOL    HW135165   6.623   2.830   6.295 -0.6195  0.6707  0.6832
41147SOL    HW235166   6.611   2.958   6.215 -0.6534 -0.8064 -1.7814
41148SOL     OW35167   3.841   8.668   2.281 -0.5522  0.1951  0.1683
41148SOL    HW135168   3.843   8.590   2.335  0.7816 -0.0251 -0.1573
41148SOL    HW235169   3.910   8.654   2.216 -0.6503  1.4037 -0.2235
41149SOL     OW35170   5.639   6.402  10.982 -0.2223 -0.3102 -0.1766
41149SOL    HW135171   5.677   6.391  11.069 -2.9281 -0.1010  1.1218
41149SOL    HW235172   5.675   6.485  10.950 -0.6972  0.6536  1.6448
41150SOL     OW35173   4.138   1.156   8.647  0.2783  0.4129 -0.1757
41150SOL    HW135174   4.103   1.235   8.687 -0.5605  0.5766 -1.1772
41150SOL    HW235175   4.096   1.084   8.693 -1.0545  0.6017 -1.0209
41151SOL     OW35176   6.470  10.102  11.096  0.2289 -0.4883  0.0800
41151SOL    HW135177   6.479  10.197  11.099  1.7525 -0.6024 -0.3565
41151SOL    HW235178   6.484  10.074  11.187  0.0884 -0.3271  0.1526
41152SOL     OW35179   0.438   8.405   7.199  0.0073 -0.0726  0.0683
41152SOL    HW135180   0.359   8.370   7.159  0.8739 -2.0957  0.0082
41152SOL    HW235181   0.507   8.390   7.134  0.6488  0.6542  0.5571
41153SOL     OW35182  11.810   3.046   0.153  0.4484 -0.2810  0.0305
41153SOL    HW135183  11.863   2.973   0.122 -0.4064 -0.8552 -0.1207
41153SOL    HW235184  11.801   3.031   0.247 -0.3104 -0.7853 -0.1059
41154SOL     OW35185  11.405   5.333   0.160  0.4813 -0.3832  0.3646
41154SOL    HW135186  11.357   5.306   0.082 -0.5386  0.0347  0.8173
41154SOL    HW235187  11.433   5.252   0.201 -1.2640 -0.7446  0.9362
41155SOL     OW35188  10.616   5.459   5.210  0.5901  0.1031 -0.0785
41155SOL    HW135189  10.583   5.523   5.147  2.5700  0.5655 -0.7496
41155SOL    HW235190  10.544   5.444   5.270 -1.3550 -0.2549 -2.3795
41156SOL     OW35191   8.396   6.197   7.143 -0.0190 -0.5795 -0.2721
41156SOL    HW135192   8.303   6.215   7.155  0.0104 -1.0588  0.8330
41156SOL    HW235193   8.406   6.105   7.168  0.3297 -1.3317 -2.8650
41157SOL     OW35194   8.211   7.463   1.613  0.1031  0.4407 -0.0991
41157SOL    HW135195   8.182   7.548   1.579 -0.7954 -0.4106 -1.5453
41157SOL    HW235196   8.151   7.400   1.574  1.1010 -0.9231  0.5046
41158SOL     OW35197   1.039   9.855   6.355 -0.4189 -0.1737  0.4597
41158SOL    HW135198   0.992   9.930   6.318 -1.2079 -0.1244  1.5079
41158SOL    HW235199   1.087   9.890   6.429 -0.1081 -0.5505  0.4403
41159SOL     OW35200   9.174   5.894  10.714 -0.2142 -0.1217  0.2055
41159SOL    HW135201   9.230   5.837  10.660 -3.3415 -0.9007 -2.5832
41159SOL    HW235202   9.153   5.968  10.657 -0.8182  0.8888  1.6892
41160SOL     OW35203  11.660   3.740   5.585 -0.3671  0.2358  0.0427
41160SOL    HW135204  11.637   3.761   5.494  0.1591  1.1987  0.1284
41160SOL    HW235205  11.593   3.676   5.611  0.0747 -0.8564 -1.3462
41161SOL     OW35206  10.864   8.980  11.830  0.3035 -0.0201  0.2768
41161SOL    HW135207  10.845   8.936  11.912  2.2500 -1.2520  0.1205
41161SOL    HW235208  10.862   9.073  11.852  1.2938 -0.3459  1.8468
41162SOL     OW35209   3.161   9.407   0.862  0.4283 -0.1084  0.1660
41162SOL    HW135210   3.171   9.342   0.931 -0.8887 -0.4852  0.0305
41162SOL    HW235211   3.203   9.368   0.786 -2.1835 -1.8163 -0.5127
41163SOL     OW35212   6.691   8.092   2.625  0.2403 -0.3438  0.2549
41163SOL    HW135213   6.616   8.150   2.615 -0.1903 -0.6710  1.4911
41163SOL    HW235214   6.764   8.141   2.587 -0.7318 -0.3914 -1.8062
41164SOL     OW35215  11.557  10.375   8.627 -0.2274 -0.1002  0.3724
41164SOL    HW135216  11.565  10.458   8.579 -1.1570 -0.0714  0.2440
41164SOL    HW235217  11.640  10.366   8.673 -0.3644  1.2855  0.9641
41165SOL     OW35218  11.838   9.705   9.269  0.1773  0.1638  0.2927
41165SOL    HW135219  11.823   9.723   9.176  0.9851  0.3027  0.1864
41165SOL    HW235220  11.767   9.752   9.313 -0.7985 -0.7075 -0.2962
41166SOL     OW35221   6.032   8.872   6.787 -0.5765 -0.0398  0.1940
41166SOL    HW135222   6.044   8.838   6.876  0.6514  0.6499  0.3100
41166SOL    HW235223   6.081   8.954   6.786  0.3380 -0.5726 -1.4377
41167SOL     OW35224   7.231  11.354   3.846 -0.2329  0.1073 -0.5257
41167SOL    HW135225   7.308  11.348   3.903 -1.2284 -0.8223  0.7907
41167SOL    HW235226   7.188  11.436   3.871 -0.3727 -0.0288 -0.3157
41168SOL     OW35227  10.876   8.113   8.351 -0.1616  0.1010  0.1489
41168SOL    HW135228  10.935   8.187   8.336 -0.6009  0.4686  0.2132
41168SOL    HW235229  10.803   8.128   8.292  0.8006 -1.5112 -1.5382
41169SOL     OW35230   7.943   1.658   7.585 -0.2196  0.2613 -0.1376
41169SOL    HW135231   8.036   1.636   7.586  0.0731  1.4154  0.7911
41169SOL    HW235232   7.899   1.578   7.556  1.1306  0.0067 -1.6216
41170SOL     OW35233   5.155   3.017   7.044  0.0891  0.4139 -0.4772
41170SOL    HW135234   5.111   2.992   7.125  0.0864 -0.3369 -0.7037
41170SOL    HW235235   5.248   3.010   7.065  0.1025  1.2716 -0.2227
41171SOL     OW35236   1.639   4.894  10.491  0.6562  0.1268 -0.3204
41171SOL    HW135237   1.556   4.921  10.530  0.1243 -0.4993 -0.9816
41171SOL    HW235238   1.676   4.975  10.454 -0.8679  0.0475 -2.1839
41172SOL     OW35239   0.723   3.996   2.312 -0.0704  0.5102 -0.0851
41172SOL    HW135240   0.748   4.087   2.295 -0.6907  1.4655  3.2995
41172SOL    HW235241   0.749   3.980   2.403  1.6013 -3.3546 -1.0299
41173SOL     OW35242   0.544   4.860   7.837  0.1841  0.4733 -0.2817
41173SOL    HW135243   0.583   4.782   7.798 -0.8923 -0.6053  0.7307
41173SOL    HW235244   0.453   4.858   7.807 -0.0187  0.9784  0.2964
41174SOL     OW35245   8.163   6.052   5.994  0.6779  0.6377  0.4547
41174SOL    HW135246   8.139   6.003   5.916  1.8276 -0.8007  0.9613
41174SOL    HW235247   8.092   6.036   6.056  0.7531  0.0980  0.4035
41175SOL     OW35248   9.738   5.988   7.221  0.4815  0.2556  0.1449
41175SOL    HW135249   9.665   6.042   7.251  1.1823  0.9397  0.6744
41175SOL    HW235250   9.773   5.948   7.301  1.2183  0.6205  0.0131
41176SOL     OW35251   2.161   2.888   5.385  0.2520  0.0203  0.1991
41176SOL    HW135252   2.100   2.923   5.450 -1.6342 -0.6056 -1.1568
41176SOL    HW235253   2.242   2.938   5.399 -1.1285  2.2310  0.8252
41177SOL     OW35254   2.388   8.663   2.672 -0.4260  0.3663 -0.1341
41177SOL    HW135255   2.387   8.725   2.745 -0.0476 -0.0511  0.2290
41177SOL    HW235256   2.304   8.676   2.628 -0.2706  1.2753 -0.1798
41178SOL     OW35257   3.616   9.238   5.240 -0.0241  0.0359 -0.6758
41178SOL    HW135258   3.709   9.257   5.226  0.4892 -1.9692 -0.3399
41178SOL    HW235259   3.614   9.183   5.318 -1.5189  0.1696 -0.5897
41179SOL     OW35260  11.669   2.725  11.851 -0.0515 -0.4709 -0.4459
41179SOL    HW135261  11.715   2.715  11.934 -1.4703  1.6168  0.7099
41179SOL    HW235262  11.578   2.702  11.871 -0.3747 -0.1392 -1.4486
41180SOL     OW35263   1.481   4.324   6.582  0.3068 -0.1061  0.1349
41180SOL    HW135264   1.517   4.392   6.526 -1.9912 -0.2620 -1.7171
41180SOL    HW235265   1.485   4.244   6.529 -0.8154 -0.5231  0.6205
41181SOL     OW35266   5.050   6.673   2.225  0.1729 -0.1834  0.1029
41181SOL    HW135267   5.083   6.608   2.162  2.0928 -0.1113  0.9716
41181SOL    HW235268   4.960   6.646   2.241  0.6207 -2.0992 -0.2717
41182SOL     OW35269   2.673   9.313  10.855  0.1040  0.4433  0.1787
41182SOL    HW135270   2.661   9.395  10.904  0.5035  1.0734 -0.7468
41182SOL    HW235271   2.717   9.340  10.775 -0.7982 -0.5307 -0.6668
41183SOL     OW35272   6.315   6.131   8.068 -0.7328 -0.1433  0.3389
41183SOL    HW135273   6.348   6.077   7.996  0.7369  1.4192 -0.2024
41183SOL    HW235274   6.385   6.129   8.133 -0.3210  1.6936 -0.0153
41184SOL     OW35275   5.699  10.914   9.118 -0.6999  0.1057  0.0654
41184SOL    HW135276   5.751  10.903   9.197  0.6006 -2.1217 -1.0252
41184SOL    HW235277   5.744  10.981   9.067 -0.2986 -0.0380  0.2359
41185SOL     OW35278   4.800   6.503   1.860 -0.6932  0.1500 -0.0083
41185SOL    HW135279   4.830   6.434   1.801  0.0638  0.6183 -0.1868
41185SOL    HW235280   4.797   6.581   1.805  2.8954  1.2926  1.1331
41186SOL     OW35281   5.759   5.930   2.660 -0.0090  0.5080  0.0529
41186SOL    HW135282   5.837   5.903   2.611  0.8607 -0.4878  1.8823
41186SOL    HW235283   5.791   5.946   2.749 -1.6775  1.4109  0.5193
41187SOL     OW35284   2.104  10.904   2.752 -0.5992  0.0851 -0.1802
41187SOL    HW135285   2.147  10.980   2.790 -1.5428 -0.1012  1.3316
41187SOL    HW235286   2.073  10.935   2.666 -2.5103  2.0245  1.1042
41188SOL     OW35287   0.969   8.289   8.237  0.4069 -0.6145  0.1833
41188SOL    HW135288   0.995   8.326   8.153  1.7013  1.0481  1.2403
41188SOL    HW235289   0.883   8.326   8.255  1.3421  1.3954  0.8540
41189SOL     OW35290   7.321   6.354   4.017  0.3375 -0.7693 -0.5695
41189SOL    HW135291   7.366   6.437   4.002  0.3318 -0.2276  1.8707
41189SOL    HW235292   7.357   6.322   4.100 -3.1945 -0.6147  1.2512
41190SOL     OW35293   7.499   1.713   8.512  0.2653  0.1553  0.3141
41190SOL    HW135294   7.527   1.725   8.421 -0.4492 -0.0588  0.0589
41190SOL    HW235295   7.525   1.794   8.556  0.6866  0.2282 -0.0607
41191SOL     OW35296   8.249   8.951   8.007 -0.4387  0.5171 -0.3850
41191SOL    HW135297   8.279   8.979   7.920  0.7196  2.4588  0.5806
41191SOL    HW235298   8.169   9.002   8.022 -0.3631  0.5558 -0.1096
41192SOL     OW35299  10.942   9.814   2.872 -0.6837 -0.3002 -0.6363
41192SOL    HW135300  11.015   9.795   2.931 -0.7311  1.1425 -0.0777
41192SOL    HW235301  10.984   9.853   2.795 -0.8546  0.7808 -0.2029
41193SOL     OW35302   1.855  11.381   8.563 -0.4001  0.2448  0.2155
41193SOL    HW135303   1.811  11.406   8.482  0.1939  1.2670  0.1867
41193SOL    HW235304   1.792  11.324   8.608 -1.5554  1.3003 -0.0177
41194SOL     OW35305   4.405   9.100   9.167  0.3903 -0.0289 -0.8415
41194SOL    HW135306   4.341   9.158   9.126 -0.8888 -1.8652 -1.6000
41194SOL    HW235307   4.467   9.079   9.097  1.2029  0.8399 -0.4101
41195SOL     OW35308   4.767   1.442   1.394 -0.6747  0.6197 -0.2218
41195SOL    HW135309   4.727   1.483   1.471  0.0078  2.0419 -0.5902
41195SOL    HW235310   4.848   1.491   1.380  1.1406 -1.9675  0.3215
41196SOL     OW35311   3.519   4.042   3.530  0.2783 -0.1728 -0.8646
41196SOL    HW135312   3.550   4.012   3.615 -0.6617  0.5151 -0.2606
41196SOL    HW235313   3.538   3.969   3.471  1.8387 -0.2720 -0.2836
41197SOL     OW35314  10.824   4.192   9.695 -0.7366 -0.1119 -0.3861
41197SOL    HW135315  10.897   4.135   9.719  0.5581  1.2706 -0.9108
41197SOL    HW235316  10.816   4.253   9.768 -0.0968  0.9174 -1.1390
41198SOL     OW35317   4.158   0.747  11.153  0.5149 -0.3194  0.5683
41198SOL    HW135318   4.146   0.663  11.109  2.8078 -0.2615 -0.3337
41198SOL    HW235319   4.079   0.796  11.132 -0.5578 -1.9865  0.5280
41199SOL     OW35320   8.654   0.766   7.091  0.1263  0.7718 -0.1378
41199SOL    HW135321   8.726   0.766   7.155 -0.5650  0.6881  0.6507
41199SOL    HW235322   8.677   0.836   7.029  0.2541  1.6246  0.8409
41200SOL     OW35323   7.261   1.418   8.988  0.0148 -0.5452 -0.0408
41200SOL    HW135324   7.310   1.395   9.067 -0.1068  1.7352  0.7656
41200SOL    HW235325   7.303   1.368   8.919  3.7434  1.3907  0.5583
41201SOL     OW35326   9.190   7.345   4.960  0.5307  0.2687 -0.1164
41201SOL    HW135327   9.185   7.422   5.016  1.7976 -1.0303  1.9119
41201SOL    HW235328   9.169   7.377   4.873 -1.6001  2.3972  1.0616
41202SOL     OW35329   9.838   6.950   1.395  0.7317  0.5516 -0.1056
41202SOL    HW135330   9.889   6.869   1.393  1.1196  0.8070 -0.5914
41202SOL    HW235331   9.846   6.986   1.307 -1.7757 -0.3211 -0.7928
41203SOL     OW35332  10.587  10.097   6.988 -0.3059  0.2849  0.2219
41203SOL    HW135333  10.505  10.079   7.034 -0.5595 -1.1855 -0.7217
41203SOL    HW235334  10.575  10.184   6.952 -0.1625  1.4194  2.7098
41204SOL     OW35335   4.269   5.488   9.469  0.0881  0.7308 -0.7415
41204SOL    HW135336   4.265   5.399   9.504 -1.4039  0.8286 -0.6010
41204SOL    HW235337   4.218   5.540   9.530  2.3965  2.0743  0.1655
41205SOL     OW35338   3.722   5.618   6.960 -0.4316  0.2870 -0.0917
41205SOL    HW135339   3.716   5.614   7.055  1.2922 -1.0547  0.0161
41205SOL    HW235340   3.734   5.711   6.940 -2.9929  0.8689  0.7762
41206SOL     OW35341   5.261   5.187   0.811 -0.0768  0.5208  0.2140
41206SOL    HW135342   5.299   5.256   0.757 -1.5711  0.9363 -0.3691
41206SOL    HW235343   5.309   5.191   0.894  0.9337  1.1716 -0.3835
41207SOL     OW35344   6.393   5.163   0.559  1.0383 -0.0687  0.2982
41207SOL    HW135345   6.323   5.145   0.622 -1.0094 -0.1953 -1.8691
41207SOL    HW235346   6.438   5.079   0.549  0.8846 -0.2403  1.0011
41208SOL     OW35347   2.555  11.929   9.386  0.3642  0.1422 -0.2467
41208SOL    HW135348   2.639  11.956   9.349 -0.0259  1.2545 -0.3547
41208SOL    HW235349   2.491  11.947   9.317  0.2138 -2.3100 -0.8402
41209SOL     OW35350   3.128   3.741  11.116  0.3923  0.4190 -0.5194
41209SOL    HW135351   3.224   3.743  11.120  0.4212  0.5115 -1.1176
41209SOL    HW235352   3.106   3.799  11.043 -0.1323  0.5710 -0.2426
41210SOL     OW35353   3.963   6.671   9.890 -0.8106  0.0910 -0.1451
41210SOL    HW135354   4.010   6.641   9.967 -2.9344  2.0410  2.1309
41210SOL    HW235355   3.916   6.594   9.859  1.2542 -1.0952 -0.5121
41211SOL     OW35356   6.331   4.556   2.780  0.1795 -0.3214  0.1533
41211SOL    HW135357   6.327   4.519   2.691  2.1893 -2.7667  0.9677
41211SOL    HW235358   6.254   4.613   2.785 -0.0728 -0.1401 -3.0988
41212SOL     OW35359   5.060   5.176   6.042  0.6040 -0.0046 -0.4474
41212SOL    HW135360   4.977   5.148   6.002  0.4545 -0.7402  0.3285
41212SOL    HW235361   5.041   5.178   6.136  1.2166  0.7131 -0.3368
41213SOL     OW35362   9.610  10.789   9.880 -0.7576  0.2171 -0.1479
41213SOL    HW135363   9.592  10.748   9.796 -1.0402  0.0610 -0.0154
41213SOL    HW235364   9.697  10.826   9.871 -2.1947  3.6000 -1.8339
41214SOL     OW35365   4.989   0.156   9.647 -0.4388  0.7188 -0.1777
41214SOL    HW135366   5.032   0.176   9.730  0.9407 -0.9943 -0.4181
41214SOL    HW235367   5.045   0.197   9.581 -0.8267  1.0008 -0.3313
41215SOL     OW35368   5.852   4.891   5.658  0.6172  0.6133  0.2119
41215SOL    HW135369   5.941   4.913   5.630  0.8813 -0.5458  0.0975
41215SOL    HW235370   5.830   4.811   5.610 -1.2481  1.9176 -1.2745
41216SOL     OW35371  10.070   6.997   3.388  0.2811 -0.2020  0.1327
41216SOL    HW135372  10.086   7.081   3.431  2.0224  0.2012 -1.1738
41216SOL    HW235373  10.006   7.016   3.320  0.6817  0.0979 -0.1689
41217SOL     OW35374   1.273   0.247  10.654 -0.4170 -0.5850  0.3094
41217SOL    HW135375   1.354   0.296  10.672  0.7732 -2.2298 -0.2758
41217SOL    HW235376   1.243   0.279  10.570 -0.5853  0.3089  0.7052
41218SOL     OW35377  11.878   4.065   8.207 -0.2697 -0.2162  0.4053
41218SOL    HW135378  11.928   3.987   8.187 -0.2467 -0.1475  0.1941
41218SOL    HW235379  11.941   4.124   8.249 -0.5031 -0.6684  1.4308
41219SOL     OW35380   9.622  10.515   9.513  0.0990  0.2519 -0.1981
41219SOL    HW135381   9.666  10.526   9.597 -0.0047 -0.3425 -0.0606
41219SOL    HW235382   9.684  10.550   9.448  0.7602 -0.5505 -0.0087
41220SOL     OW35383   4.899  11.102   5.631 -0.4120 -0.4184 -0.2099
41220SOL    HW135384   4.963  11.056   5.578  0.2448 -1.7069  1.5952
41220SOL    HW235385   4.820  11.107   5.576  0.6284 -0.4946 -1.7571
41221SOL     OW35386   3.411   0.534   1.366  0.5835  0.5625 -0.0239
41221SOL    HW135387   3.439   0.560   1.454  2.5819 -0.1533 -0.3946
41221SOL    HW235388   3.461   0.455   1.347 -1.2455 -0.4120 -1.0856
41222SOL     OW35389   3.376   9.555   2.481  0.4504  0.2964 -0.2224
41222SOL    HW135390   3.355   9.499   2.406 -1.7245  0.6468  0.0635
41222SOL    HW235391   3.305   9.539   2.543 -0.4995  3.6363 -0.2917
41223SOL     OW35392   6.112   8.675   9.863 -0.5587 -0.1405 -0.3019
41223SOL    HW135393   6.040   8.681   9.801 -0.0800 -1.5242 -1.0319
41223SOL    HW235394   6.179   8.735   9.829 -1.2317  0.9395  0.2334
41224SOL     OW35395   8.857   8.440   7.273 -0.3116 -0.4044  0.8228
41224SOL    HW135396   8.827   8.430   7.363 -1.4810  0.8367  0.6100
41224SOL    HW235397   8.785   8.404   7.220 -0.7670  1.1325  0.3468
41225SOL     OW35398   6.272   2.063   2.026 -0.1166 -0.5376 -0.1508
41225SOL    HW135399   6.214   2.118   2.078  0.0180  0.6818 -1.2373
41225SOL    HW235400   6.354   2.060   2.076 -0.1545  0.1948 -0.0348
41226SOL     OW35401   3.960   2.947   8.049 -0.3379  0.2425  0.2167
41226SOL    HW135402   3.870   2.935   8.080  0.1030  1.2926  2.1140
41226SOL    HW235403   3.997   2.859   8.050 -1.6116 -0.3829 -1.6817
41227SOL     OW35404   5.342   2.133   6.889 -0.4861 -0.2093 -0.7804
41227SOL    HW135405   5.284   2.110   6.816 -1.2454 -2.9988  0.5744
41227SOL    HW235406   5.428   2.099   6.863 -0.7334 -1.1100 -0.4486
41228SOL     OW35407   2.532   4.115   3.970 -0.0392 -0.2613 -0.5637
41228SOL    HW135408   2.615   4.148   4.006  0.2724 -3.3260  1.9916
41228SOL    HW235409   2.496   4.189   3.923  3.0324  1.9522  0.1973
41229SOL     OW35410  11.511   6.685  10.745 -0.3296  0.1468 -0.2031
41229SOL    HW135411  11.461   6.752  10.791  0.0893  0.3753 -0.0820
41229SOL    HW235412  11.545   6.629  10.814  0.8761  0.8862 -0.1773
41230SOL     OW35413   0.436   7.701   2.605 -0.2766  0.2525 -0.1305
41230SOL    HW135414   0.515   7.648   2.613 -1.3911 -1.5238 -0.1217
41230SOL    HW235415   0.386   7.658   2.536 -1.0574  1.5923 -0.4363
41231SOL     OW35416   4.337  10.916   2.979  0.0184  0.3599 -0.0764
41231SOL    HW135417   4.345  10.834   2.931  2.3572  0.5988 -0.2077
41231SOL    HW235418   4.267  10.963   2.934  1.1651 -0.0262 -2.4261
41232SOL     OW35419   5.697   1.527   5.159 -0.3409  0.2952 -0.7636
41232SOL    HW135420   5.612   1.504   5.122 -1.8043  2.9575  0.5987
41232SOL    HW235421   5.678   1.553   5.249  2.4020 -1.7029  0.5289
41233SOL     OW35422   6.801   4.199   0.468 -0.2826 -0.5655  0.1139
41233SOL    HW135423   6.849   4.161   0.542  0.3947 -0.1358 -0.1013
41233SOL    HW235424   6.718   4.227   0.506 -0.1580 -0.8382  0.6007
41234SOL     OW35425   2.671   8.950   4.765  0.2317 -0.1489  0.2178
41234SOL    HW135426   2.593   8.958   4.711 -0.5229  2.6397  1.5061
41234SOL    HW235427   2.645   8.895   4.838 -0.0278 -0.5222 -0.1532
41235SOL     OW35428   2.249   5.881   1.718 -0.1593 -0.3414 -0.6348
41235SOL    HW135429   2.177   5.821   1.697 -2.7441  2.9383 -2.1012
41235SOL    HW235430   2.283   5.908   1.633  1.0838  0.1415 -0.0023
41236SOL     OW35431   7.359  11.473  10.481  0.7417 -0.4553 -0.3306
41236SOL    HW135432   7.414  11.530  10.535  0.6075  0.0031 -0.6699
41236SOL    HW235433   7.351  11.392  10.531 -1.4210  0.8075  1.5516
41237SOL     OW35434   2.019   3.799   6.906  0.5545 -0.0133  0.1986
41237SOL    HW135435   2.066   3.873   6.866  3.5025 -0.5853  2.3098
41237SOL    HW235436   2.088   3.740   6.937 -1.5973 -1.5433  2.4688
41238SOL     OW35437   2.142   2.441   0.103 -0.2667 -0.0307  0.4792
41238SOL    HW135438   2.192   2.381   0.158 -0.8903 -0.5809  0.4585
41238SOL    HW235439   2.170   2.528   0.131  1.0879 -0.3140  0.1193
41239SOL     OW35440   8.891   0.852   4.689  0.3361 -0.6399  0.5563
41239SOL    HW135441   8.836   0.929   4.702 -0.6995 -1.3336  0.4707
41239SOL    HW235442   8.923   0.859   4.599  0.2940 -0.2824  0.5696
41240SOL     OW35443   1.970   9.740   6.636  0.4079  0.0581 -0.0385
41240SOL    HW135444   2.042   9.728   6.698  1.1244  1.5669 -0.5325
41240SOL    HW235445   1.891   9.734   6.690  0.9499 -0.2938  0.7361
41241SOL     OW35446   1.501   5.730   1.443  0.3514  0.0865 -0.2866
41241SOL    HW135447   1.456   5.662   1.494 -0.8807  1.3683  0.4019
41241SOL    HW235448   1.474   5.714   1.353  0.6785 -0.7855 -0.2411
41242SOL     OW35449  10.315   2.131   0.783 -0.5385  0.3386 -0.4241
41242SOL    HW135450  10.302   2.037   0.778 -1.1356  0.3411  0.6564
41242SOL    HW235451  10.268   2.157   0.863 -0.6080  1.5798 -0.8454
41243SOL     OW35452   5.374   9.118  10.380  0.2035 -0.2257  0.3003
41243SOL    HW135453   5.393   9.026  10.401 -0.2264 -0.5174 -0.5141
41243SOL    HW235454   5.431   9.138  10.306  0.2275  0.1340  0.4141
41244SOL     OW35455   5.987   9.728  10.830  0.1432  0.5253  0.8240
41244SOL    HW135456   5.930   9.719  10.754 -0.5145  0.1988  1.3556
41244SOL    HW235457   5.959   9.660  10.890  2.2820 -0.8891  0.3604
41245SOL     OW35458   1.522   1.567   1.184 -0.3835  0.1601 -0.0033
41245SOL    HW135459   1.505   1.474   1.168 -0.2237  0.2426 -0.6740
41245SOL    HW235460   1.435   1.608   1.184 -0.4038  0.1212 -0.4488
41246SOL     OW35461   2.313   8.271   7.644  0.1893 -0.3400 -0.0807
41246SOL    HW135462   2.292   8.349   7.592 -0.7580 -0.8385 -0.4687
41246SOL    HW235463   2.259   8.201   7.606  1.7923 -1.4450 -0.4090
41247SOL     OW35464   2.291   5.958   7.884 -0.5930 -0.3544  0.2647
41247SOL    HW135465   2.322   5.930   7.970 -0.9525  0.2176  0.5866
41247SOL    HW235466   2.196   5.950   7.890 -0.6848  0.6225  0.2595
41248SOL     OW35467   7.883   3.545   8.314  0.0345  0.2193  0.3811
41248SOL    HW135468   7.938   3.510   8.244 -2.4783  1.0056 -2.2106
41248SOL    HW235469   7.870   3.472   8.374  1.1290 -0.9384 -0.7401
41249SOL     OW35470   4.862   6.006   5.494  0.3041 -0.1732 -0.3574
41249SOL    HW135471   4.917   6.070   5.450  0.2492 -1.4848 -2.4820
41249SOL    HW235472   4.884   5.922   5.452 -2.5748 -0.8947 -0.6465
41250SOL     OW35473   6.126   2.438   9.108  0.4308  0.3374  0.2762
41250SOL    HW135474   6.115   2.533   9.111 -3.3917  0.0168  1.0137
41250SOL    HW235475   6.158   2.415   9.195  1.1731  0.9104  0.1631
41251SOL     OW35476   7.185   3.470   4.858 -0.6041 -0.0584 -0.2518
41251SOL    HW135477   7.091   3.481   4.871 -0.3633  0.3805  1.2507
41251SOL    HW235478   7.207   3.389   4.904 -0.0887  0.3365  0.2117
41252SOL     OW35479   2.904   9.611   3.298  0.2352 -0.5233 -0.7004
41252SOL    HW135480   2.912   9.631   3.205 -1.2258  1.4088 -0.4526
41252SOL    HW235481   2.810   9.599   3.312  0.2908  0.6148  0.7806
41253SOL     OW35482   8.550   3.043   0.036 -0.6348 -0.0294  0.1228
41253SOL    HW135483   8.535   2.948   0.034 -2.0058  0.1347  1.1555
41253SOL    HW235484   8.533   3.071  -0.054  0.3805 -0.8238 -0.3415
41254SOL     OW35485   3.780  10.038   8.542 -0.0404  0.4128  0.1911
41254SOL    HW135486   3.857  10.093   8.553  0.3418  0.1130 -0.9070
41254SOL    HW235487   3.811   9.961   8.495 -0.8979  0.0375  0.2085
41255SOL     OW35488   2.046   0.115  10.303 -0.5414  0.0952  0.1301
41255SOL    HW135489   1.995   0.071  10.371 -1.0879  1.1412  0.4021
41255SOL    HW235490   2.060   0.203  10.336  0.4028  0.1975 -0.4947
41256SOL     OW35491   6.804   3.627   3.147  0.0710 -0.0762 -0.3463
41256SOL    HW135492   6.730   3.670   3.188  1.9624  1.9437  1.1990
41256SOL    HW235493   6.800   3.653   3.055 -0.9629  0.1775 -0.2407
41257SOL     OW35494   9.789   4.158   0.646  0.1028  0.3356 -0.1123
41257SOL    HW135495   9.821   4.135   0.559  2.4014  1.9116  0.2059
41257SOL    HW235496   9.839   4.103   0.705  2.1075  2.5176  0.3760
41258SOL     OW35497   4.314   6.753   8.794 -0.2440  0.0779 -0.8124
41258SOL    HW135498   4.391   6.765   8.738 -1.2597 -0.1010 -2.2860
41258SOL    HW235499   4.344   6.692   8.862  0.9402  0.0798 -1.3027
41259SOL     OW35500   3.952   0.478   3.726  0.3956  0.4867  0.4028
41259SOL    HW135501   4.030   0.431   3.698  1.6444  1.7940  1.5002
41259SOL    HW235502   3.968   0.497   3.818 -0.4697  2.2087  0.2314
41260SOL     OW35503   1.881   5.988   4.422 -0.4043  0.9123 -0.0144
41260SOL    HW135504   1.923   6.011   4.339  0.9024 -0.0043  0.3588
41260SOL    HW235505   1.795   5.955   4.396 -0.0506  0.7116 -1.0139
41261SOL     OW35506   7.247   5.615   2.611  0.2119 -0.0564 -0.4029
41261SOL    HW135507   7.342   5.620   2.620  0.1757  0.7972 -0.3966
41261SOL    HW235508   7.220   5.704   2.590 -0.6163 -0.2329 -0.1349
41262SOL     OW35509   1.699  10.050   5.067 -0.3459 -0.1447 -0.1916
41262SOL    HW135510   1.790  10.078   5.062 -0.7206  1.2593  0.3805
41262SOL    HW235511   1.702   9.967   5.114  0.6912 -0.4906 -0.8351
41263SOL     OW35512   9.787   4.132  10.997 -0.8541  0.4585  0.6580
41263SOL    HW135513   9.859   4.194  10.984  0.6767 -1.6877 -2.7789
41263SOL    HW235514   9.709   4.186  11.006  0.4451  2.9296 -1.5941
41264SOL     OW35515   0.258   6.665   4.305 -0.2813  0.5292  0.3144
41264SOL    HW135516   0.312   6.737   4.336  1.0644  0.1195 -0.9390
41264SOL    HW235517   0.313   6.587   4.315 -0.0842  0.2608 -2.1162
41265SOL     OW35518   4.717   2.973   2.104 -0.1753  0.0294  0.1008
41265SOL    HW135519   4.740   2.993   2.194 -0.7528  0.2575  0.1968
41265SOL    HW235520   4.800   2.978   2.056  0.2424 -0.7347  0.7299
41266SOL     OW35521   5.534   5.548   0.259 -0.4871 -0.2305  0.1279
41266SOL    HW135522   5.584   5.589   0.330 -0.4510 -1.6034  0.9348
41266SOL    HW235523   5.602   5.512   0.202 -0.5343 -0.0185 -0.0638
41267SOL     OW35524   3.955   7.161   3.794 -0.0117 -0.8222 -0.3340
41267SOL    HW135525   3.879   7.106   3.775 -0.3049 -0.0563 -1.4617
41267SOL    HW235526   3.969   7.211   3.714  0.4142  0.5438  0.5663
41268SOL     OW35527   1.666  11.479   4.119  0.4115  0.0093  0.0135
41268SOL    HW135528   1.759  11.460   4.131  0.2914 -1.2717 -0.8621
41268SOL    HW235529   1.648  11.549   4.181  1.8838  0.0602  0.4325
41269SOL     OW35530   8.911   8.243   5.989 -0.0919 -0.5050  0.8188
41269SOL    HW135531   8.986   8.254   6.048  0.4709  0.2985 -0.0141
41269SOL    HW235532   8.949   8.248   5.901 -1.0053 -1.0226  0.3807
41270SOL     OW35533   2.412   3.149   2.985 -0.6789  0.0398  0.3654
41270SOL    HW135534   2.376   3.101   3.059  0.6418 -1.5828  0.0190
41270SOL    HW235535   2.507   3.136   2.991 -0.3889  1.4069 -0.5897
41271SOL     OW35536   3.420   0.004   9.674 -0.3307 -0.3209 -0.5931
41271SOL    HW135537   3.444  -0.044   9.753 -1.8616 -0.2302 -0.0431
41271SOL    HW235538   3.339  -0.037   9.644 -0.5751  0.6008 -1.2536
41272SOL     OW35539   2.180   7.867   5.854 -0.3476  0.2215 -0.0956
41272SOL    HW135540   2.258   7.812   5.852 -1.8428 -2.0669  1.0890
41272SOL    HW235541   2.147   7.865   5.764  1.0166  1.4198 -0.6704
41273SOL     OW35542   4.983   0.881   5.332  0.0918 -0.3225 -0.4437
41273SOL    HW135543   5.025   0.961   5.363  1.3436 -1.0440 -0.1989
41273SOL    HW235544   4.914   0.864   5.397 -2.2119  2.1074 -2.0717
41274SOL     OW35545   2.452   9.761  10.068  0.5258 -0.3079  0.3043
41274SOL    HW135546   2.481   9.672  10.047  0.7826 -0.0927 -0.2770
41274SOL    HW235547   2.456   9.766  10.164 -0.1238 -1.1295  0.3820
41275SOL     OW35548   1.858   5.736  11.276  0.3528 -0.2191  0.2691
41275SOL    HW135549   1.766   5.760  11.261  0.3094  0.7063  1.7990
41275SOL    HW235550   1.860   5.641  11.267 -0.3456 -0.1001 -1.7282
41276SOL     OW35551   9.506   6.792   8.689  0.0507 -0.6672  0.3847
41276SOL    HW135552   9.493   6.781   8.783 -1.1180 -1.5327  0.1495
41276SOL    HW235553   9.570   6.725   8.665 -1.5368 -2.1948  0.1833
41277SOL     OW35554   4.787   5.407   3.425  0.1221 -0.1714 -0.2492
41277SOL    HW135555   4.758   5.466   3.356 -1.7580 -0.3375  0.3278
41277SOL    HW235556   4.706   5.374   3.464  1.1155 -1.9837  0.4289
41278SOL     OW35557   3.589   6.285   4.307  0.4316  0.2858  0.0953
41278SOL    HW135558   3.517   6.239   4.351  0.3427  0.0625 -0.2793
41278SOL    HW235559   3.597   6.368   4.355 -1.1110  1.0069 -0.8269
41279SOL     OW35560   0.993   6.177   6.356  0.0609  0.3395  0.0725
41279SOL    HW135561   1.049   6.241   6.400  1.0639 -1.1454  1.0538
41279SOL    HW235562   0.974   6.112   6.423 -0.7025 -0.5459 -0.9667
41280SOL     OW35563   8.462   4.870   1.398  0.2989 -0.1598 -1.0609
41280SOL    HW135564   8.395   4.884   1.466  1.1072 -0.2882 -0.2206
41280SOL    HW235565   8.527   4.938   1.413  0.8589 -0.6430 -1.2352
41281SOL     OW35566  11.748  11.859   9.278  0.2636 -0.3181 -0.0009
41281SOL    HW135567  11.826  11.804   9.288 -0.8322 -1.9420  0.0397
41281SOL    HW235568  11.680  11.814   9.329 -0.7958  0.8655 -0.3102
41282SOL     OW35569   4.003   0.555   0.780 -0.0661 -0.0568 -0.8871
41282SOL    HW135570   4.056   0.527   0.854  0.5395 -1.6672 -1.8983
41282SOL    HW235571   3.994   0.650   0.792 -1.9605 -0.5062  2.4938
41283SOL     OW35572   9.766   5.288  11.042  0.0740 -0.5882  0.1760
41283SOL    HW135573   9.810   5.223  10.988  1.4730  0.5645 -0.1303
41283SOL    HW235574   9.765   5.248  11.130  2.4698 -0.3891  0.3743
41284SOL     OW35575   8.906   3.428   0.173 -0.0039  0.4182 -0.0406
41284SOL    HW135576   8.973   3.492   0.197  0.8457  0.5459 -2.4633
41284SOL    HW235577   8.865   3.464   0.094 -0.8655 -1.0840 -0.3188
41285SOL     OW35578   0.719  11.654   3.436 -0.2103 -0.0391 -0.0305
41285SOL    HW135579   0.794  11.603   3.466  0.9080  0.2869 -2.0577
41285SOL    HW235580   0.742  11.679   3.346 -2.0632  1.4217 -0.1588
41286SOL     OW35581   7.122   3.284   0.424 -0.6659  0.0307 -0.2191
41286SOL    HW135582   7.112   3.200   0.380 -1.7010  1.3593 -2.7129
41286SOL    HW235583   7.159   3.342   0.358 -1.7675  2.0157  0.7991
41287SOL     OW35584   9.028  11.094   6.222  0.2529 -0.7178 -0.0394
41287SOL    HW135585   9.001  11.111   6.132  0.0631  1.7642  0.4347
41287SOL    HW235586   8.946  11.089   6.271  0.3400 -2.4027 -0.0076
41288SOL     OW35587   9.036  11.228   8.402  0.3780 -0.3131 -0.6583
41288SOL    HW135588   9.097  11.225   8.476 -0.6723 -0.2769  0.2223
41288SOL    HW235589   8.970  11.162   8.423 -0.6368  0.6094 -0.9322
41289SOL     OW35590   0.709   8.923  10.030 -0.6058 -0.4927  0.3041
41289SOL    HW135591   0.678   8.833  10.020  0.6501 -0.9433  0.3092
41289SOL    HW235592   0.804   8.915  10.035 -0.5305  0.7421  1.3523
41290SOL     OW35593   2.464   2.112   0.219 -0.3173 -0.4102  0.3134
41290SOL    HW135594   2.507   2.027   0.212  2.1328  0.7680 -0.0509
41290SOL    HW235595   2.455   2.142   0.129 -0.6012 -0.0158  0.4686
41291SOL     OW35596   5.512   0.200   4.961  0.5529  0.0707 -0.4071
41291SOL    HW135597   5.435   0.152   4.929  0.9907 -0.5901 -0.4872
41291SOL    HW235598   5.495   0.291   4.937 -1.1211  0.2669  1.3014
41292SOL     OW35599   2.869   2.521   9.435 -0.4713 -0.3897  0.0760
41292SOL    HW135600   2.888   2.551   9.347 -0.6598 -0.7841 -0.1015
41292SOL    HW235601   2.798   2.457   9.425  0.3707 -1.4106  0.3494
41293SOL     OW35602  10.443   4.251  10.790 -0.1791 -0.1856 -0.0605
41293SOL    HW135603  10.477   4.295  10.867  1.5849  0.8448 -1.3620
41293SOL    HW235604  10.468   4.159  10.802 -0.4141 -0.1363  0.8416
41294SOL     OW35605   3.771   3.955   0.571 -0.0403 -0.5434  0.6048
41294SOL    HW135606   3.749   3.888   0.506  0.0415  0.3034 -0.3398
41294SOL    HW235607   3.813   3.908   0.642  0.3845 -1.4422 -0.2220
41295SOL     OW35608   0.767   4.084   6.146 -1.0306  0.0879 -0.4327
41295SOL    HW135609   0.853   4.040   6.148 -1.5300 -0.9452 -0.8317
41295SOL    HW235610   0.788   4.176   6.129 -0.0141 -0.1988 -0.8370
41296SOL     OW35611   1.887   4.703   8.669  0.1744  0.6203  0.2326
41296SOL    HW135612   1.803   4.740   8.698 -1.2507 -1.2590 -1.2290
41296SOL    HW235613   1.890   4.616   8.709  1.2640  0.5093 -0.0588
41297SOL     OW35614  11.724   2.248   3.704 -0.1507  0.6151 -0.1413
41297SOL    HW135615  11.748   2.245   3.797 -1.3345  2.1273  0.2677
41297SOL    HW235616  11.639   2.291   3.703  0.1226  1.2118 -1.9795
41298SOL     OW35617   7.872   9.728   7.199  0.3751 -0.5768 -0.3828
41298SOL    HW135618   7.861   9.647   7.150 -0.1001 -0.3966 -0.5803
41298SOL    HW235619   7.842   9.796   7.140  1.1084 -0.2180 -0.3449
41299SOL     OW35620  11.788   5.064   9.736  0.0017 -0.1068  0.6947
41299SOL    HW135621  11.850   5.136   9.751  0.9456 -1.1548  2.0368
41299SOL    HW235622  11.733   5.063   9.814  0.2234 -1.0669  0.8399
41300SOL     OW35623   9.787   1.206   6.483  0.0361  0.8059  0.5323
41300SOL    HW135624   9.697   1.215   6.513 -0.8081 -1.7663 -0.8774
41300SOL    HW235625   9.816   1.295   6.466 -2.4574  1.6768  0.4558
41301SOL     OW35626   4.309   5.235   6.116 -0.3256  0.5831  0.3196
41301SOL    HW135627   4.262   5.181   6.053  0.8021  1.2203 -1.1026
41301SOL    HW235628   4.295   5.191   6.200  0.7030 -2.0348 -0.7748
41302SOL     OW35629   7.953   6.000   4.101 -0.6877  0.3113 -0.1847
41302SOL    HW135630   7.978   6.056   4.174 -0.4907 -2.0334  1.6459
41302SOL    HW235631   7.870   5.960   4.129 -0.2158 -1.2080 -0.8954
41303SOL     OW35632   7.667  10.544   4.350 -0.1804 -0.1565  0.2193
41303SOL    HW135633   7.679  10.575   4.439 -0.3037  0.0569  0.1623
41303SOL    HW235634   7.666  10.449   4.357  2.1894 -0.2454  0.1504
41304SOL     OW35635   3.963   1.948   5.039  0.7224 -0.0846 -0.1450
41304SOL    HW135636   3.955   1.987   4.952 -1.3225  1.4300  0.6590
41304SOL    HW235637   4.012   2.013   5.089 -2.5714  1.5620  1.1628
41305SOL     OW35638   4.794   7.734   9.123 -0.1355 -0.2972 -0.4359
41305SOL    HW135639   4.806   7.762   9.214 -0.7271 -0.5047 -0.2880
41305SOL    HW235640   4.774   7.814   9.076  0.1857 -0.1869 -0.3894
41306SOL     OW35641   9.049   5.791   4.476  0.0579 -0.1279  0.1381
41306SOL    HW135642   8.985   5.740   4.428  0.6631 -1.2523  0.5004
41306SOL    HW235643   9.042   5.879   4.440  0.8626 -1.0349 -2.4169
41307SOL     OW35644   1.146   3.209   9.806 -0.1357  0.2668 -0.1459
41307SOL    HW135645   1.116   3.203   9.716  0.3961  0.5116 -0.3449
41307SOL    HW235646   1.066   3.210   9.859 -0.4296 -1.2472 -0.5203
41308SOL     OW35647   5.903   6.048   1.562  0.2650  0.1601 -0.0459
41308SOL    HW135648   5.997   6.069   1.560  0.2049  0.4278 -0.0266
41308SOL    HW235649   5.865   6.115   1.619 -0.1365  0.8319 -1.0795
41309SOL     OW35650   9.664   0.790   4.479 -0.1380 -0.3704  0.1928
41309SOL    HW135651   9.723   0.715   4.475  1.7114  1.0405 -2.1885
41309SOL    HW235652   9.620   0.791   4.395 -1.1153  0.4880  0.6868
41310SOL     OW35653  10.499   5.951   3.203 -0.0884 -0.2112  0.0176
41310SOL    HW135654  10.579   5.899   3.209  1.1860  1.6863  0.4918
41310SOL    HW235655  10.530   6.041   3.188 -2.1707  0.4577 -0.6073
41311SOL     OW35656   3.543  11.406   7.461 -0.0783  0.4057  0.1674
41311SOL    HW135657   3.559  11.414   7.367  0.4897  1.7018  0.3602
41311SOL    HW235658   3.581  11.322   7.485 -0.0122  0.1777 -0.7210
41312SOL     OW35659   6.310  10.600   7.679  0.0692  0.0064 -0.0260
41312SOL    HW135660   6.229  10.605   7.627 -0.1674  0.4070  0.3753
41312SOL    HW235661   6.362  10.675   7.650 -0.0572  0.2224  0.3035
41313SOL     OW35662   9.752   4.811   8.217 -0.8312  0.1612 -0.4033
41313SOL    HW135663   9.759   4.722   8.183 -0.0179  0.1479 -0.2334
41313SOL    HW235664   9.803   4.810   8.298 -2.8878  0.1422  0.9616
41314SOL     OW35665   1.594   8.642   9.960 -0.4194  0.8649 -0.6655
41314SOL    HW135666   1.544   8.706  10.010 -1.0442 -0.7041  0.8373
41314SOL    HW235667   1.535   8.614   9.891  0.0141  2.1688 -1.6065
41315SOL     OW35668   0.513   8.451   5.566 -0.2779 -0.0219  0.6968
41315SOL    HW135669   0.472   8.386   5.509 -1.2379 -0.0108  1.3458
41315SOL    HW235670   0.485   8.535   5.531 -0.4949 -0.0075  0.8952
41316SOL     OW35671  10.497   0.492   6.810  0.2456  0.0022 -0.0749
41316SOL    HW135672  10.424   0.435   6.833  0.0279  0.4231  0.2774
41316SOL    HW235673  10.518   0.467   6.720 -1.1734  0.7649 -0.6465
41317SOL     OW35674  11.642   3.696   6.417  0.4965 -0.0262 -0.4597
41317SOL    HW135675  11.693   3.623   6.454  1.0089  0.7449  0.3793
41317SOL    HW235676  11.556   3.688   6.458  0.9510  0.6054  0.6691
41318SOL     OW35677   3.350   7.587   0.024 -0.5552 -0.2391 -0.0806
41318SOL    HW135678   3.381   7.540  -0.054 -0.1612 -0.8652  0.4395
41318SOL    HW235679   3.419   7.652   0.041  0.2154 -1.2231  0.7145
41319SOL     OW35680   6.186   7.173   8.587  0.6745 -0.3351 -0.2539
41319SOL    HW135681   6.183   7.090   8.633  1.9798 -0.1725  0.1662
41319SOL    HW235682   6.133   7.159   8.508 -0.3526 -1.0741  0.5540
41320SOL     OW35683   5.268   2.814   1.458 -0.0798 -0.6692  0.1779
41320SOL    HW135684   5.349   2.797   1.409 -0.8650 -1.2873 -0.9522
41320SOL    HW235685   5.206   2.749   1.425 -2.0304  1.7828 -1.3924
41321SOL     OW35686  11.095   8.053   7.103  0.1296  0.7472 -0.1453
41321SOL    HW135687  11.083   8.147   7.116 -1.9759  0.6117 -0.7052
41321SOL    HW235688  11.063   8.014   7.185  1.5621  0.5066  0.3280
41322SOL     OW35689   2.131  11.646  10.404 -0.3172  0.4449 -0.4528
41322SOL    HW135690   2.191  11.572  10.410 -0.6702  0.1725 -0.1924
41322SOL    HW235691   2.136  11.675  10.313 -0.6272 -0.2871 -0.7116
41323SOL     OW35692   2.482  11.348   1.999  0.5092  0.4352  0.8808
41323SOL    HW135693   2.561  11.335   2.052  1.2906  1.5017  0.0440
41323SOL    HW235694   2.513  11.342   1.909 -0.3865  0.7583  0.5412
41324SOL     OW35695   3.982   4.876  11.816  0.3213 -0.0320  0.2346
41324SOL    HW135696   4.065   4.859  11.861 -0.6370 -0.9582  1.7384
41324SOL    HW235697   3.975   4.807  11.750  2.1501  1.8350 -2.1068
41325SOL     OW35698   6.696   3.285   2.804  0.5011 -0.4370 -0.3626
41325SOL    HW135699   6.708   3.266   2.897 -1.3187 -3.1430 -0.5640
41325SOL    HW235700   6.601   3.293   2.793  0.7734  1.9710 -1.7056
41326SOL     OW35701   7.791   9.825   3.078  0.3612 -0.0306  0.1161
41326SOL    HW135702   7.708   9.829   3.031  0.8397  0.9700 -0.6928
41326SOL    HW235703   7.773   9.869   3.162 -0.1848 -0.7434  0.3787
41327SOL     OW35704   8.438   0.853   7.828  0.5017 -0.4714  0.2063
41327SOL    HW135705   8.443   0.912   7.903  3.1328  0.4738 -0.6002
41327SOL    HW235706   8.510   0.791   7.841  0.5259 -0.7617 -1.1346
41328SOL     OW35707  11.366   1.035   8.832  0.2885  0.0454 -0.4302
41328SOL    HW135708  11.386   1.076   8.916 -0.2241 -0.7645  0.1026
41328SOL    HW235709  11.280   0.993   8.845  0.4325 -0.5202 -1.1942
41329SOL     OW35710   2.810   8.334   7.505  0.4351  0.7256  0.5327
41329SOL    HW135711   2.862   8.387   7.445 -0.6848  1.5287  0.2489
41329SOL    HW235712   2.751   8.284   7.449  0.2382  0.5403  0.8978
41330SOL     OW35713   0.085   7.247   9.910 -0.8299  0.2027 -0.0344
41330SOL    HW135714   0.023   7.315   9.936 -0.9081 -0.1104  0.6030
41330SOL    HW235715   0.160   7.296   9.874 -1.4544  0.5809 -0.8779
41331SOL     OW35716   3.918   7.455  11.911 -0.6294 -0.5364 -0.4057
41331SOL    HW135717   3.852   7.524  11.920  0.3850  0.3514  0.3560
41331SOL    HW235718   3.991   7.497  11.865  0.3817 -0.8145  0.9117
41332SOL     OW35719   7.336   9.114   1.957  0.0307 -0.7346  0.0679
41332SOL    HW135720   7.427   9.136   1.974 -0.2970 -0.0493  1.0118
41332SOL    HW235721   7.290   9.136   2.038 -1.1832  0.1788 -0.8320
41333SOL     OW35722  11.341  11.500   8.137  0.1619  0.2154 -0.4998
41333SOL    HW135723  11.358  11.418   8.091  0.5948 -0.0586  0.1432
41333SOL    HW235724  11.258  11.486   8.182  0.6776 -0.2031  0.3434
41334SOL     OW35725   7.176   4.573   4.180  0.3179 -0.2116  0.2962
41334SOL    HW135726   7.092   4.531   4.201  0.4045  0.0934  1.3311
41334SOL    HW235727   7.196   4.626   4.257 -0.2526  2.5301 -1.3270
41335SOL     OW35728   0.668   0.269   4.423  0.0072  0.3721  0.4486
41335SOL    HW135729   0.726   0.212   4.373 -0.1395  0.0437  0.6496
41335SOL    HW235730   0.714   0.353   4.427 -0.4575  0.7376 -1.1560
41336SOL     OW35731   3.483  10.728   7.796 -0.0964  0.3940 -0.1833
41336SOL    HW135732   3.509  10.646   7.839  0.9493  1.0597  0.4819
41336SOL    HW235733   3.517  10.720   7.707 -0.7136 -0.2311 -0.3732
41337SOL     OW35734  11.565   2.051   6.212 -0.3115  0.2496 -0.2812
41337SOL    HW135735  11.531   2.010   6.133 -3.0636  0.2555  0.7716
41337SOL    HW235736  11.622   2.121   6.181 -0.0593 -0.7342 -2.1860
41338SOL     OW35737  10.509   0.990   9.679  0.0283  0.2931  0.2728
41338SOL    HW135738  10.538   1.070   9.634  0.8870 -1.6194 -2.8952
41338SOL    HW235739  10.588   0.956   9.721  0.4394 -0.4579 -1.0555
41339SOL     OW35740   4.306   0.409  11.716  0.3085  0.4093 -0.0381
41339SOL    HW135741   4.290   0.502  11.727  0.4130  0.3931  0.2561
41339SOL    HW235742   4.277   0.370  11.798  1.6859  0.3563  0.4359
41340SOL     OW35743   3.064   8.354   3.454 -0.3777  0.0589 -0.2163
41340SOL    HW135744   3.141   8.297   3.455 -0.7310 -0.5138 -1.7948
41340SOL    HW235745   3.096   8.440   3.483  0.8322 -0.1990 -0.7567
41341SOL     OW35746   0.101   4.406  11.206  0.3862  0.1129  0.3907
41341SOL    HW135747   0.077   4.495  11.229 -1.2157  0.0993 -1.0343
41341SOL    HW235748   0.150   4.415  11.124  1.4490 -0.2345  0.9662
41342SOL     OW35749   1.810   7.824   6.314  0.2750 -0.0304  0.3823
41342SOL    HW135750   1.866   7.829   6.391  2.1306  2.5890 -0.9792
41342SOL    HW235751   1.860   7.774   6.250  1.1125  2.1638 -0.7790
41343SOL     OW35752   3.850   3.709   7.346 -0.1217  0.4336 -0.1939
41343SOL    HW135753   3.881   3.644   7.283 -3.4657 -0.6586 -0.9111
41343SOL    HW235754   3.818   3.658   7.420  1.2711  1.5681  1.2552
41344SOL     OW35755   9.027   0.370   0.292  0.2483  0.9510  0.4376
41344SOL    HW135756   8.941   0.329   0.289  0.3913  0.6873 -1.1704
41344SOL    HW235757   9.055   0.363   0.383 -0.9364  0.0248  0.7469
41345SOL     OW35758   5.276  10.675  11.218 -0.4658  0.3153  0.1819
41345SOL    HW135759   5.266  10.588  11.256 -0.5397  0.2485  0.0117
41345SOL    HW235760   5.364  10.674  11.178 -0.2362  0.5111  0.6739
41346SOL     OW35761   4.561   8.002   8.520  0.9817  0.0192  0.2965
41346SOL    HW135762   4.553   8.092   8.487  0.4804 -0.2803 -0.4194
41346SOL    HW235763   4.633   8.006   8.583  1.4439  0.7737 -0.2640
41347SOL     OW35764  10.336   5.375  11.052  0.3242  0.0779  0.2413
41347SOL    HW135765  10.381   5.451  11.092 -1.1926 -0.0308  2.3255
41347SOL    HW235766  10.296   5.330  11.126 -1.7215 -0.8264 -1.3423
41348SOL     OW35767   8.684   4.697   0.061  0.2921 -0.5583  0.7270
41348SOL    HW135768   8.679   4.642  -0.017  0.3545  0.7358 -0.2206
41348SOL    HW235769   8.778   4.700   0.082  0.3261 -0.5184  0.5690
41349SOL     OW35770   7.566   7.220   5.372  0.2974 -0.1670 -0.0191
41349SOL    HW135771   7.573   7.312   5.345  1.5681  0.1366  1.2003
41349SOL    HW235772   7.472   7.205   5.381  0.0875  1.2634  0.5157
41350SOL     OW35773   2.087   2.303   9.153 -0.2206 -0.1850 -0.1909
41350SOL    HW135774   2.150   2.375   9.145 -0.0578 -0.2703  0.2667
41350SOL    HW235775   2.051   2.293   9.065  0.7761 -0.4644 -0.5888
41351SOL     OW35776   4.689   7.596   3.228 -0.8354 -0.3746  0.4091
41351SOL    HW135777   4.741   7.533   3.277  0.5380  0.1295 -0.3417
41351SOL    HW235778   4.753   7.655   3.188 -1.9860  0.2725 -0.5664
41352SOL     OW35779   8.094   4.146   1.594 -0.2343 -0.8990 -0.4851
41352SOL    HW135780   8.008   4.109   1.614 -0.7016  0.5825  0.4052
41352SOL    HW235781   8.156   4.090   1.642 -1.0499  0.2667  2.1625
41353SOL     OW35782   5.027  11.888   0.118  0.5615  0.1018  0.4360
41353SOL    HW135783   5.071  11.828   0.178  1.1013  0.8604  0.8169
41353SOL    HW235784   5.077  11.969   0.124 -0.7419  0.9308  0.7071
41354SOL     OW35785   6.393  11.357   6.032 -0.7829  0.1171  0.2396
41354SOL    HW135786   6.407  11.290   5.965 -0.7496  0.3317  0.0286
41354SOL    HW235787   6.358  11.309   6.107  0.4782 -0.3430  0.5567
41355SOL     OW35788   3.013   0.481  10.865  0.2263  0.4840 -0.5964
41355SOL    HW135789   2.980   0.529  10.941  0.6962 -0.0582 -0.0491
41355SOL    HW235790   2.988   0.536  10.790  0.4299  1.3992 -0.0094
41356SOL     OW35791   3.772   6.979   9.136  0.0829 -0.7666  0.5733
41356SOL    HW135792   3.713   6.932   9.076  1.4142 -3.7363  1.4037
41356SOL    HW235793   3.857   6.978   9.092  0.8076 -1.9174  1.9492
41357SOL     OW35794   3.661  10.318   4.846 -0.0549 -0.5351  0.4442
41357SOL    HW135795   3.700  10.299   4.931 -1.2649 -1.3266  0.8569
41357SOL    HW235796   3.571  10.342   4.866 -1.0634 -2.9848 -0.7139
41358SOL     OW35797   3.744  10.561   3.421  0.2514  0.3191 -0.0164
41358SOL    HW135798   3.807  10.498   3.456 -0.5988 -0.0277  0.9460
41358SOL    HW235799   3.658  10.524   3.443 -0.2661  1.9811  0.9137
41359SOL     OW35800   2.280   5.045   6.759 -0.1475  0.4366 -0.5915
41359SOL    HW135801   2.208   4.993   6.723  2.3420 -1.9856 -2.4238
41359SOL    HW235802   2.331   4.984   6.811 -0.9762  2.8122  3.4316
41360SOL     OW35803   1.527   1.433   5.192  0.1502  0.3246 -0.4503
41360SOL    HW135804   1.613   1.458   5.225 -0.5306  0.9123  0.9706
41360SOL    HW235805   1.491   1.376   5.260 -1.7031  2.3632  0.3953
41361SOL     OW35806   5.989   8.944   6.462  0.0718  0.1181  0.2784
41361SOL    HW135807   5.970   8.931   6.555 -1.7480 -1.1129 -0.2266
41361SOL    HW235808   5.976   8.859   6.422  1.6641  0.4268 -1.0273
41362SOL     OW35809   6.959   7.525   5.786 -0.3717 -0.3921  0.0952
41362SOL    HW135810   7.053   7.539   5.796 -0.7503  2.1308  0.7667
41362SOL    HW235811   6.948   7.499   5.694  0.9506 -0.6685  0.0029
41363SOL     OW35812   0.599   6.333  11.885  0.4766 -0.5486  0.2929
41363SOL    HW135813   0.507   6.325  11.860 -0.2492  0.4589  2.4471
41363SOL    HW235814   0.612   6.263  11.949  1.0196 -0.2232  0.5413
41364SOL     OW35815   2.174   4.724   1.760  0.1780 -0.1886  0.1011
41364SOL    HW135816   2.269   4.734   1.767  0.2355  0.4869 -1.3692
41364SOL    HW235817   2.156   4.638   1.797  1.3201 -0.2102  0.6466
41365SOL     OW35818   9.633  10.085   6.875  0.1253 -0.0120 -0.4277
41365SOL    HW135819   9.613  10.144   6.802 -1.3917 -1.1698 -1.0003
41365SOL    HW235820   9.712  10.038   6.847 -0.7207 -0.7967 -1.5770
41366SOL     OW35821   2.096  11.750   1.551  0.0844 -0.0750  0.5781
41366SOL    HW135822   2.124  11.826   1.500 -1.3928  1.5877  2.0791
41366SOL    HW235823   2.043  11.698   1.491  1.3115 -0.0871 -0.5430
41367SOL     OW35824   6.587   1.637  10.348 -0.0929 -0.6211  0.2703
41367SOL    HW135825   6.581   1.559  10.293 -0.7586  0.4783 -1.2865
41367SOL    HW235826   6.525   1.622  10.419  1.4380 -2.4626  1.3150
41368SOL     OW35827  10.284   3.338   8.130 -0.5090  0.8222  0.2017
41368SOL    HW135828  10.258   3.325   8.221  0.6414  1.9382  0.7115
41368SOL    HW235829  10.210   3.383   8.090 -1.4492 -0.5679  0.2866
41369SOL     OW35830   9.526   3.679   0.923  0.0122 -0.7601 -0.2318
41369SOL    HW135831   9.551   3.590   0.946  0.5773 -0.3153  0.9175
41369SOL    HW235832   9.431   3.675   0.911 -0.1943 -1.2134  1.3623
41370SOL     OW35833   6.999  10.920   3.027  0.1769 -0.4057 -0.2092
41370SOL    HW135834   6.913  10.954   3.007 -0.3326 -2.2049 -1.3053
41370SOL    HW235835   7.031  10.975   3.099 -2.4941 -0.6484  1.2561
41371SOL     OW35836   1.357   1.514   7.287 -0.2080  0.1412  0.0495
41371SOL    HW135837   1.385   1.602   7.262  0.4029  0.2017  0.8925
41371SOL    HW235838   1.278   1.528   7.339 -1.1152  0.0553 -1.2379
41372SOL     OW35839  10.457   3.017   7.897 -0.5887 -0.1333 -0.1050
41372SOL    HW135840  10.539   3.018   7.946 -1.2112 -1.5679  1.0128
41372SOL    HW235841  10.435   3.110   7.887  1.5619  0.3333 -1.1671
41373SOL     OW35842   5.253   8.854   4.989  0.1302 -0.1764 -0.1449
41373SOL    HW135843   5.347   8.843   4.974 -0.0992 -1.0963 -1.0619
41373SOL    HW235844   5.213   8.782   4.940 -1.0726  0.4112 -0.0546
41374SOL     OW35845   8.886  11.739   9.425 -0.3408  0.3293  0.3269
41374SOL    HW135846   8.878  11.761   9.518  0.3819  2.1540  0.0025
41374SOL    HW235847   8.823  11.668   9.412  0.9951 -1.4723  2.6279
41375SOL     OW35848   8.596   9.227  11.350  0.2595 -0.3981 -0.1741
41375SOL    HW135849   8.655   9.175  11.296  0.6938 -0.6037  0.4891
41375SOL    HW235850   8.630   9.218  11.439 -0.9143 -0.7159  0.2633
41376SOL     OW35851  11.107   0.107   0.851 -0.0438 -0.3323  0.4853
41376SOL    HW135852  11.066   0.183   0.809 -1.7436 -1.7998 -0.6651
41376SOL    HW235853  11.107   0.040   0.783  2.3000 -1.1138  1.1876
41377SOL     OW35854   8.041   3.170   8.289  0.3942 -0.0872 -0.1113
41377SOL    HW135855   8.016   3.144   8.200  2.3931 -0.6992 -0.5437
41377SOL    HW235856   8.099   3.246   8.276  0.6886 -0.1710  0.6582
41378SOL     OW35857   0.591   6.513   6.063 -0.5836  0.1308  0.8372
41378SOL    HW135858   0.528   6.549   6.125  1.2105 -0.0086  2.8526
41378SOL    HW235859   0.675   6.551   6.088  0.3712 -0.6235 -0.9703
41379SOL     OW35860   5.141   5.882   6.286  0.3064 -0.7853  0.6873
41379SOL    HW135861   5.214   5.824   6.308  1.1324  0.1096  0.4171
41379SOL    HW235862   5.174   5.935   6.213  0.1663  1.0514  1.8972
41380SOL     OW35863   5.258   8.373   7.457  0.3569  0.2938 -0.1772
41380SOL    HW135864   5.237   8.371   7.550 -4.0462  1.9532 -0.9344
41380SOL    HW235865   5.282   8.464   7.439 -0.5596  0.3983 -0.9381
41381SOL     OW35866   6.634   6.884   4.950 -0.3625  0.1449  0.1013
41381SOL    HW135867   6.668   6.834   4.876 -0.4152 -0.0225  0.1874
41381SOL    HW235868   6.640   6.975   4.923  0.0570  0.1092  0.0768
41382SOL     OW35869   3.334   8.814   0.859 -0.1049 -0.3054  0.2554
41382SOL    HW135870   3.279   8.736   0.848 -0.1497 -0.5393  1.8383
41382SOL    HW235871   3.359   8.812   0.951  1.0055  0.8400  0.0031
41383SOL     OW35872  10.446   8.578   6.530 -0.7186  0.0830 -0.3667
41383SOL    HW135873  10.364   8.617   6.502 -0.6206  0.0346 -0.7282
41383SOL    HW235874  10.492   8.556   6.448 -0.2045  0.4123 -0.1740
41384SOL     OW35875   6.807   0.366   7.785 -0.2322 -0.6687  0.2283
41384SOL    HW135876   6.817   0.440   7.846  0.2670 -0.0478 -0.5708
41384SOL    HW235877   6.882   0.375   7.725  0.3781 -2.3902  0.6829
41385SOL     OW35878   0.440   2.411  10.708 -0.9654  0.5170  0.6304
41385SOL    HW135879   0.354   2.400  10.668 -1.5786 -0.3302  2.0997
41385SOL    HW235880   0.483   2.326  10.695 -1.7000 -0.2679  2.8656
41386SOL     OW35881   7.286  11.205   6.483  0.1059 -0.7172 -0.1802
41386SOL    HW135882   7.260  11.188   6.393  0.6428  1.2519 -0.7585
41386SOL    HW235883   7.204  11.207   6.532 -0.3288 -0.1969 -0.9240
41387SOL     OW35884   3.257   3.699   9.905  0.2073  0.3341 -0.0474
41387SOL    HW135885   3.170   3.684   9.866 -0.5848  2.1894  0.8832
41387SOL    HW235886   3.318   3.689   9.831 -0.8305 -0.5112 -0.8249
41388SOL     OW35887   5.623   1.701   3.799  0.3984  0.1891 -0.1544
41388SOL    HW135888   5.557   1.674   3.735 -0.9907 -0.6259  1.5291
41388SOL    HW235889   5.622   1.796   3.796 -1.2282  0.2182  0.1193
41389SOL     OW35890   4.921   4.615  10.079 -0.1073  0.0807 -0.4775
41389SOL    HW135891   4.883   4.559  10.011  1.1249 -0.1072 -1.0319
41389SOL    HW235892   4.953   4.691  10.031 -1.0078  0.8895  0.1660
41390SOL     OW35893  11.698   2.158   2.088 -0.2212  1.0092  0.5085
41390SOL    HW135894  11.663   2.189   2.172 -1.4055  0.5403  0.2068
41390SOL    HW235895  11.788   2.190   2.087 -0.4571  1.7829  1.5664
41391SOL     OW35896   9.791   1.113  11.678  0.0764  0.6677  0.3378
41391SOL    HW135897   9.751   1.036  11.637 -3.1856  1.2759  2.0004
41391SOL    HW235898   9.813   1.084  11.767  0.3862  1.2032  0.4399
41392SOL     OW35899  11.667   5.977   4.949 -0.2698 -0.1077 -0.4597
41392SOL    HW135900  11.677   5.913   4.879  0.3386  0.2562 -0.7190
41392SOL    HW235901  11.731   5.951   5.015  0.7329  0.8214 -1.0320
41393SOL     OW35902  10.601   5.700   9.378  0.2807 -0.4607 -0.3552
41393SOL    HW135903  10.513   5.714   9.414  1.2597 -1.0305  2.5975
41393SOL    HW235904  10.624   5.611   9.404  1.8984 -0.1780 -0.6608
41394SOL     OW35905   7.893   8.242   3.669  0.1504  0.0428  0.2220
41394SOL    HW135906   7.985   8.251   3.643  0.4594 -2.2031  0.3382
41394SOL    HW235907   7.891   8.267   3.761  0.5726  0.4657  0.1195
41395SOL     OW35908   5.035   7.215   9.996 -0.1438  0.2056  0.7302
41395SOL    HW135909   5.052   7.208  10.090  1.5172  0.1273  0.4554
41395SOL    HW235910   5.119   7.242   9.959 -0.7307  0.0510 -0.7554
41396SOL     OW35911   7.859   8.718   1.563 -0.0721 -0.2399  0.1882
41396SOL    HW135912   7.899   8.773   1.496  0.2994  1.7645  1.9592
41396SOL    HW235913   7.766   8.742   1.561  0.0193  0.1682  0.6834
41397SOL     OW35914   0.293   7.781   9.905 -0.2652  0.2345 -0.0806
41397SOL    HW135915   0.207   7.821   9.896 -0.6481 -0.2217  1.3576
41397SOL    HW235916   0.354   7.851   9.881 -0.9671  1.3378  1.2029
41398SOL     OW35917   0.707   9.037   5.753 -0.1599  0.1144  0.6991
41398SOL    HW135918   0.709   9.117   5.806 -3.7965 -0.6929  2.3619
41398SOL    HW235919   0.774   8.981   5.792  0.6188  1.3578  1.2065
41399SOL     OW35920   7.192   3.061   2.640 -0.8419  0.2089  0.0376
41399SOL    HW135921   7.201   2.967   2.650  1.9469  0.4755  0.7651
41399SOL    HW235922   7.101   3.079   2.663 -1.2222 -2.2026  0.6481
41400SOL     OW35923   0.323   0.907   5.113 -0.2638 -0.0240  0.2625
41400SOL    HW135924   0.233   0.879   5.128 -0.0064  0.1652  2.3572
41400SOL    HW235925   0.371   0.825   5.096 -0.0236 -0.7058  3.6716
41401SOL     OW35926   3.373   8.344  11.092 -0.1189  1.1196 -0.3292
41401SOL    HW135927   3.332   8.414  11.041  1.5265  2.3830 -0.0039
41401SOL    HW235928   3.432   8.389  11.151  0.7322 -0.5448  0.1492
41402SOL     OW35929  10.819  11.380   1.859  0.5230 -0.1073  0.6479
41402SOL    HW135930  10.800  11.362   1.951  1.5163 -1.1525  0.6639
41402SOL    HW235931  10.910  11.352   1.847  0.2705 -0.3872 -0.7488
41403SOL     OW35932  10.547   3.305   0.523  0.1444  0.3871  0.1784
41403SOL    HW135933  10.537   3.236   0.457 -0.7461  0.6176  0.0602
41403SOL    HW235934  10.526   3.386   0.477  3.4466  1.1164 -0.3350
41404SOL     OW35935   4.485  10.844  10.641  0.2503 -0.2619 -0.3154
41404SOL    HW135936   4.542  10.783  10.689  1.0029  0.1316 -0.6893
41404SOL    HW235937   4.408  10.792  10.617  0.8580 -1.0520 -0.5883
41405SOL     OW35938   2.806   9.501   5.514  0.0692 -0.6372 -0.4746
41405SOL    HW135939   2.741   9.547   5.460 -1.6047 -1.2927  0.8606
41405SOL    HW235940   2.805   9.411   5.481  0.2087 -0.6737 -0.3810
41406SOL     OW35941   9.950   7.958   6.849  0.5704 -0.6338 -0.3023
41406SOL    HW135942   9.988   8.038   6.886 -1.3400  0.5181 -0.6998
41406SOL    HW235943   9.887   7.929   6.916  0.4694 -1.1923 -0.6361
41407SOL     OW35944   5.559   7.071   4.096  0.2754  0.1075 -0.4578
41407SOL    HW135945   5.491   7.061   4.029 -1.0030  2.6572  0.3276
41407SOL    HW235946   5.526   7.020   4.170  0.2212 -0.3004 -0.7558
41408SOL     OW35947   1.065   2.798   0.201 -0.5160  0.2784  0.2457
41408SOL    HW135948   1.093   2.822   0.289  1.5714 -0.8960 -0.0126
41408SOL    HW235949   1.143   2.813   0.147 -1.4782  0.1446 -1.2302
41409SOL     OW35950   7.457   7.972  10.093  0.3120  0.1473 -0.3446
41409SOL    HW135951   7.528   7.986  10.030  0.6532  1.1741  0.2346
41409SOL    HW235952   7.501   7.965  10.178 -0.0060 -2.8194 -0.3251
41410SOL     OW35953   4.119   0.986   7.976  0.2793 -0.5604 -0.2233
41410SOL    HW135954   4.167   0.997   8.058  0.0857 -0.5942 -0.1037
41410SOL    HW235955   4.171   1.031   7.911 -0.3308  0.7786  0.1857
41411SOL     OW35956   1.994   9.554   7.225 -0.0105  0.0971 -0.1194
41411SOL    HW135957   2.062   9.495   7.191  0.3281 -0.5521  1.5845
41411SOL    HW235958   2.005   9.635   7.174  0.1876 -0.9266 -1.8024
41412SOL     OW35959   6.620   4.502   2.683 -0.3504 -0.1200  0.2037
41412SOL    HW135960   6.555   4.507   2.753  0.5999  0.4360  1.0709
41412SOL    HW235961   6.608   4.414   2.645 -0.6246 -0.5806  1.3179
41413SOL     OW35962   6.556   4.636   9.559  0.4169 -0.2809  0.1303
41413SOL    HW135963   6.469   4.642   9.519  0.4557 -0.3168  0.0404
41413SOL    HW235964   6.594   4.556   9.523  1.0504  0.4703 -0.9512
41414SOL     OW35965  10.001   0.260   5.679  0.0433 -0.1034 -0.4861
41414SOL    HW135966   9.945   0.320   5.629 -1.0822 -1.2049 -0.5976
41414SOL    HW235967  10.089   0.294   5.667 -0.4299  0.7828 -1.6199
41415SOL     OW35968   5.690  10.304   1.003  0.0580 -0.0533 -0.3546
41415SOL    HW135969   5.631  10.250   0.950 -0.5837  1.7531 -1.5870
41415SOL    HW235970   5.725  10.368   0.941  0.9060  0.8399  1.0069
41416SOL     OW35971   2.009   9.394   4.193 -0.6499  0.2167 -0.0853
41416SOL    HW135972   2.104   9.397   4.196 -0.5124 -2.0367 -0.4931
41416SOL    HW235973   1.985   9.323   4.252 -1.9465 -0.4276 -1.3127
41417SOL     OW35974   2.970   2.963  10.112 -0.2115  0.5114 -0.2784
41417SOL    HW135975   2.910   2.902  10.069  0.8991  0.5925 -2.0445
41417SOL    HW235976   2.915   3.037  10.136 -1.1730 -0.2424 -0.0910
41418SOL     OW35977   5.831   1.064   4.354 -0.0688 -0.9261  0.4488
41418SOL    HW135978   5.903   1.043   4.413 -0.2380  0.2640  1.1183
41418SOL    HW235979   5.752   1.054   4.408 -0.3953 -1.9077 -0.1870
41419SOL     OW35980   5.904   2.692   0.369 -0.1804  0.1720  0.2494
41419SOL    HW135981   5.820   2.729   0.395 -1.4224 -1.1349 -1.6712
41419SOL    HW235982   5.946   2.761   0.317 -0.7972  0.2594 -0.1419
41420SOL     OW35983   1.462   1.445   0.240  0.0344  0.0730 -0.9297
41420SOL    HW135984   1.430   1.483   0.322  0.2857  0.2997 -0.9345
41420SOL    HW235985   1.557   1.438   0.252 -0.2110 -3.0286  0.1165
41421SOL     OW35986   1.893   6.656   7.063  0.4201  0.3827 -0.4336
41421SOL    HW135987   1.811   6.687   7.101  0.1398  0.4208 -1.0537
41421SOL    HW235988   1.878   6.563   7.047  1.9033 -0.6323  3.1673
41422SOL     OW35989   6.593   3.236  11.379  0.6358 -0.0228 -0.1765
41422SOL    HW135990   6.644   3.244  11.459  2.3778  0.0830 -1.2394
41422SOL    HW235991   6.542   3.318  11.375  2.0502  0.8889 -0.1705
41423SOL     OW35992   4.005   0.638   8.675 -0.0338  0.5023 -0.1021
41423SOL    HW135993   3.992   0.643   8.580  0.7657 -0.0078 -0.2422
41423SOL    HW235994   4.096   0.613   8.685  0.0816  1.2584  0.8222
41424SOL     OW35995  11.668   0.684   4.629 -0.1840 -0.2540  0.4648
41424SOL    HW135996  11.603   0.748   4.656  2.2931  2.1519  1.2230
41424SOL    HW235997  11.684   0.704   4.536  0.0527 -0.2437  0.5061
41425SOL     OW35998   1.739   2.070   1.015  0.3219  0.1823 -0.0375
41425SOL    HW135999   1.754   2.104   0.927  0.0780  1.1889  0.2877
41425SOL    HW236000   1.790   2.128   1.072  0.4046 -0.3983  0.4878
41426SOL     OW36001   3.079   2.996   4.202  0.9653  0.0652  0.2192
41426SOL    HW136002   3.131   3.076   4.208  1.8365 -0.5000  0.3540
41426SOL    HW236003   3.133   2.928   4.242  1.0144 -0.9690 -1.4966
41427SOL     OW36004   6.293   5.189   1.788 -0.1564  0.3201  0.0321
41427SOL    HW136005   6.343   5.112   1.765  0.5207  0.2660  1.5572
41427SOL    HW236006   6.206   5.156   1.809 -0.9170  0.4145 -2.6044
41428SOL     OW36007   2.970   0.881   0.867 -0.0717  0.0843 -0.1594
41428SOL    HW136008   3.063   0.862   0.882  0.1919  1.0014 -0.5360
41428SOL    HW236009   2.971   0.965   0.820 -1.0635 -0.2699 -0.8245
41429SOL     OW36010   5.437   7.678   2.075  0.0657 -0.3250 -0.2729
41429SOL    HW136011   5.376   7.700   2.146 -0.2601 -0.5659 -0.4732
41429SOL    HW236012   5.400   7.599   2.036  0.5157 -0.4787 -0.3932
41430SOL     OW36013   0.714   8.108   8.096  0.0892  0.5225 -0.3534
41430SOL    HW136014   0.624   8.100   8.065 -0.1337  0.0405  0.3813
41430SOL    HW236015   0.716   8.054   8.175  0.7474  1.3707  0.2185
41431SOL     OW36016   6.317  10.812   9.164  0.4219  0.9272  0.1836
41431SOL    HW136017   6.333  10.758   9.086 -0.6153  0.0178  0.5715
41431SOL    HW236018   6.367  10.769   9.234  0.4940  1.1242  0.2544
41432SOL     OW36019   7.925  10.480  11.825 -0.5471 -0.0462  0.1276
41432SOL    HW136020   7.916  10.570  11.856  0.0134 -0.1444  0.5863
41432SOL    HW236021   7.856  10.471  11.760  0.0972  1.0727 -0.7626
41433SOL     OW36022   9.345   5.589   2.335  0.4623 -0.0547  0.0611
41433SOL    HW136023   9.283   5.656   2.364  0.5316 -0.0389  0.1755
41433SOL    HW236024   9.334   5.517   2.397 -1.2734 -1.1309 -1.3827
41434SOL     OW36025   5.338  11.912   3.862 -0.2258  0.3195  0.2578
41434SOL    HW136026   5.417  11.960   3.888  1.1037 -1.5980 -0.0673
41434SOL    HW236027   5.334  11.921   3.767  0.9257 -1.4340  0.0016
41435SOL     OW36028   4.038   8.691   0.311 -0.1774 -0.1743 -0.6123
41435SOL    HW136029   3.970   8.739   0.263 -2.6655 -2.4404  0.3663
41435SOL    HW236030   4.025   8.600   0.286  0.8288 -0.9845  1.5757
41436SOL     OW36031   5.624   1.806   6.829 -0.0691  0.3091  0.0542
41436SOL    HW136032   5.697   1.867   6.841  0.8354 -0.7733  0.1861
41436SOL    HW236033   5.621   1.790   6.735  1.5669 -1.6190  0.2605
41437SOL     OW36034   1.959   7.792   9.177 -0.0986 -0.4786  0.2716
41437SOL    HW136035   2.022   7.730   9.141  1.6760  1.0494  0.5894
41437SOL    HW236036   1.980   7.796   9.270 -0.8643 -0.1484  0.4395
41438SOL     OW36037  10.042   9.943   8.767 -0.4566  0.4327 -0.0732
41438SOL    HW136038   9.958   9.973   8.802  0.1661  2.0127  0.1344
41438SOL    HW236039  10.082   9.896   8.841 -0.2704  1.5072  0.5330
41439SOL     OW36040  10.117   6.930   5.543  0.0643 -0.3374 -0.8612
41439SOL    HW136041  10.105   7.023   5.524 -0.0399  0.2707  1.7872
41439SOL    HW236042  10.029   6.892   5.531 -0.7071  0.6192  1.1965
41440SOL     OW36043   5.051   2.214   9.687  0.2326  0.4746 -0.5792
41440SOL    HW136044   4.998   2.219   9.608  1.0673 -1.3965 -1.3301
41440SOL    HW236045   4.991   2.182   9.754  0.0174 -0.0565 -1.0153
41441SOL     OW36046   5.174   1.232  10.949  0.0441  0.4250  0.1185
41441SOL    HW136047   5.110   1.280  10.896 -1.0246  0.0817  1.0701
41441SOL    HW236048   5.235   1.196  10.884 -0.1723  1.5347 -0.7393
41442SOL     OW36049  10.799  10.099  11.599  0.1953 -0.4387 -0.3099
41442SOL    HW136050  10.771  10.190  11.588  0.6628 -0.3552 -0.8627
41442SOL    HW236051  10.832  10.074  11.513 -0.3716 -1.2886 -0.2920
41443SOL     OW36052   5.771  10.796   7.429  0.4020  0.2276  0.7647
41443SOL    HW136053   5.857  10.821   7.464 -0.5406 -1.8650  5.2214
41443SOL    HW236054   5.791  10.735   7.358  2.7134 -1.3731  2.6493
41444SOL     OW36055   7.974   3.955  11.288  0.4244  0.1265  0.4160
41444SOL    HW136056   7.954   3.918  11.202  1.6009 -0.7340  0.4996
41444SOL    HW236057   8.039   3.896  11.326  0.2049  0.7045  1.7462
41445SOL     OW36058   2.014   1.960   5.784 -0.4706  0.0488  0.1632
41445SOL    HW136059   2.048   1.966   5.695 -0.6473 -0.8615  0.0177
41445SOL    HW236060   1.919   1.965   5.774 -0.4436  2.1965  0.5339
41446SOL     OW36061   9.175   6.263   7.378 -0.0712  0.4927  0.0824
41446SOL    HW136062   9.218   6.254   7.463 -3.3044 -1.4541  1.7291
41446SOL    HW236063   9.099   6.320   7.395 -1.9336 -1.5347 -0.8903
41447SOL     OW36064   2.791   3.488  11.162  0.0644  0.0114  0.1896
41447SOL    HW136065   2.731   3.563  11.159  0.0705  0.0483  0.9536
41447SOL    HW236066   2.838   3.492  11.078 -0.0283  0.7808  0.1685
41448SOL     OW36067   8.523   9.079  10.322  0.2084  0.5393 -0.2487
41448SOL    HW136068   8.576   9.068  10.401  0.2249  0.9243 -0.2025
41448SOL    HW236069   8.547   9.005  10.267 -0.5318 -0.2813  0.5020
41449SOL     OW36070   1.193   2.457   4.861 -0.3885  0.6005  0.5473
41449SOL    HW136071   1.107   2.465   4.821  0.4628  1.9045 -1.1792
41449SOL    HW236072   1.220   2.548   4.879  0.4909  0.2000  1.3339
41450SOL     OW36073   4.233   4.551  11.317  0.3213 -0.3312 -0.2130
41450SOL    HW136074   4.312   4.550  11.371  0.2313 -0.1464 -0.0754
41450SOL    HW236075   4.236   4.470  11.267  1.2711  0.2612 -1.1648
41451SOL     OW36076  10.002  10.833   2.355  0.0879  0.7407 -0.3405
41451SOL    HW136077  10.028  10.907   2.409 -3.4256  2.3024 -0.5200
41451SOL    HW236078   9.961  10.771   2.416  1.0943 -0.1176 -0.4997
41452SOL     OW36079   8.855   2.521   9.898 -0.8703  0.6167  0.3363
41452SOL    HW136080   8.898   2.443   9.863  0.7153  2.0396 -1.0627
41452SOL    HW236081   8.784   2.539   9.836 -0.5727  0.8547  0.0570
41453SOL     OW36082   3.906   7.091  11.045  0.3717 -0.0356 -0.7885
41453SOL    HW136083   3.954   7.100  11.127  1.0059  0.7123 -1.2319
41453SOL    HW236084   3.906   7.179  11.007  0.8759 -0.5486 -2.0242
41454SOL     OW36085   7.505  11.149   5.880 -0.6589 -0.1179 -0.0333
41454SOL    HW136086   7.582  11.143   5.937 -0.2822  0.0771 -0.5169
41454SOL    HW236087   7.522  11.087   5.810 -0.5292  0.5736 -0.6209
41455SOL     OW36088   2.432   4.945   8.580 -0.5816 -0.2179  0.0174
41455SOL    HW136089   2.447   5.040   8.579 -1.6416  0.0360  2.2191
41455SOL    HW236090   2.519   4.907   8.570 -0.0908  0.9957 -0.5117
41456SOL     OW36091   6.087   3.569  10.077 -0.3064  0.5215  0.2370
41456SOL    HW136092   6.166   3.519  10.056  0.2184  1.1689  0.6603
41456SOL    HW236093   6.015   3.511  10.050  0.3032  0.6832 -1.9739
41457SOL     OW36094   2.605   6.912   4.612 -0.0781  0.1324 -0.5978
41457SOL    HW136095   2.515   6.901   4.581 -0.1618 -0.3488 -0.2056
41457SOL    HW236096   2.659   6.884   4.539 -0.2502  0.3529 -0.8097
41458SOL     OW36097   6.864  11.285   3.091  0.0937 -0.1994 -0.2486
41458SOL    HW136098   6.845  11.371   3.053  1.6668  1.0931  1.7507
41458SOL    HW236099   6.923  11.302   3.164  0.3242 -2.9803  0.3442
41459SOL     OW36100  10.258   3.737   1.513 -0.2221  0.3818 -0.0521
41459SOL    HW136101  10.323   3.803   1.540 -1.1446  0.8083  1.2143
41459SOL    HW236102  10.197   3.732   1.587 -1.0064 -0.8282 -0.7518
41460SOL     OW36103   3.563   6.395   9.571  0.9757  0.1113  0.3525
41460SOL    HW136104   3.574   6.301   9.562  1.3365  0.1335  0.5452
41460SOL    HW236105   3.473   6.406   9.601  1.1772 -0.2278  1.1206
41461SOL     OW36106   7.559   5.962   4.167  0.0956  0.0062  0.1654
41461SOL    HW136107   7.566   5.986   4.075 -2.0002 -0.2927 -0.1277
41461SOL    HW236108   7.629   5.899   4.182  1.3224  1.0780 -0.8467
41462SOL     OW36109   1.980   8.011   0.122 -0.2971  0.4422 -0.2467
41462SOL    HW136110   2.008   8.088   0.073 -0.6721  0.0330 -1.1249
41462SOL    HW236111   2.053   7.992   0.182 -0.0997  1.3148 -0.2018
41463SOL     OW36112   7.484   4.125  10.701 -0.1515  0.4187  0.1221
41463SOL    HW136113   7.541   4.049  10.716  0.5547  0.6395 -1.2608
41463SOL    HW236114   7.544   4.199  10.692 -0.7429  0.8856 -0.0458
41464SOL     OW36115   6.384   2.051   5.675 -0.2255  0.0981  0.4016
41464SOL    HW136116   6.411   2.112   5.607 -0.4652  0.3165  0.5025
41464SOL    HW236117   6.411   2.092   5.757  1.9353 -1.0988  0.3522
41465SOL     OW36118   8.510   9.983   9.715 -0.1172  0.5920  0.4701
41465SOL    HW136119   8.501   9.965   9.809 -1.5103  0.0589  0.2653
41465SOL    HW236120   8.562  10.063   9.710  0.8623  0.0562  1.6533
41466SOL     OW36121   8.078  11.903   8.422  0.9051  0.3432  0.1441
41466SOL    HW136122   8.016  11.927   8.491  0.7339 -1.4934  0.7022
41466SOL    HW236123   8.163  11.933   8.454  0.4022  2.6874 -0.5275
41467SOL     OW36124  11.461   2.893  11.951  0.2888  0.2266 -0.1616
41467SOL    HW136125  11.414   2.919  11.872 -0.3449  0.4995  0.3005
41467SOL    HW236126  11.544   2.940  11.946  0.5031 -0.2172 -0.9582
41468SOL     OW36127   9.956   1.922   7.721  0.0998 -0.3034 -0.6578
41468SOL    HW136128   9.939   1.831   7.746  0.2382 -0.2274 -0.2821
41468SOL    HW236129   9.913   1.932   7.636  0.8475 -0.9827 -1.1370
41469SOL     OW36130   1.358   7.753   5.544  0.0404  0.0176  0.1074
41469SOL    HW136131   1.327   7.837   5.579 -1.5871 -1.0860  1.4960
41469SOL    HW236132   1.319   7.687   5.602  2.0259 -1.6915 -0.3670
41470SOL     OW36133   6.660   7.432   3.502 -0.1481  0.0566  0.0742
41470SOL    HW136134   6.658   7.501   3.569 -1.3355  0.4271 -0.3272
41470SOL    HW236135   6.753   7.408   3.496  0.1212  0.7512  1.0936
41471SOL     OW36136   1.121   2.869   3.549 -0.0549  0.5164 -0.3306
41471SOL    HW136137   1.168   2.940   3.592  0.0065  0.0728  0.3520
41471SOL    HW236138   1.104   2.806   3.619 -2.3114  0.9816 -0.3888
41472SOL     OW36139   8.244   0.300   9.805 -0.4388  0.8993 -0.1387
41472SOL    HW136140   8.207   0.212   9.802 -1.5141  1.1964  2.1123
41472SOL    HW236141   8.173   0.356   9.773 -0.6030  1.1154  0.5699
41473SOL     OW36142   2.307   0.631   4.634  0.7271 -0.1389  0.2416
41473SOL    HW136143   2.213   0.623   4.653  0.9882  1.2259  2.4905
41473SOL    HW236144   2.348   0.562   4.686  1.0434 -0.0328  0.1356
41474SOL     OW36145   9.530   0.186   8.678  0.3121 -0.2034 -0.1088
41474SOL    HW136146   9.563   0.140   8.601  1.3897  1.0155 -0.3998
41474SOL    HW236147   9.584   0.153   8.750 -1.0330 -1.7279  0.2672
41475SOL     OW36148   6.698   6.584   6.965 -0.4283  0.4034 -0.4391
41475SOL    HW136149   6.775   6.636   6.940 -0.1029 -0.6286 -1.7102
41475SOL    HW236150   6.628   6.618   6.909 -0.2985 -0.2417 -1.0168
41476SOL     OW36151   9.973   3.509  10.844 -0.1374 -0.1896 -0.0757
41476SOL    HW136152   9.984   3.579  10.908  3.4283  0.2963 -1.0030
41476SOL    HW236153   9.979   3.429  10.896 -0.0631  0.2036  0.5351
41477SOL     OW36154   1.678   3.426   4.881  0.0494 -0.4050  0.1718
41477SOL    HW136155   1.743   3.366   4.917  0.5876 -0.5520 -1.0182
41477SOL    HW236156   1.600   3.372   4.869  0.5704 -0.9161 -1.0138
41478SOL     OW36157   4.053  11.119  11.566 -0.8771 -0.0124  0.1775
41478SOL    HW136158   4.051  11.099  11.660 -1.3647 -0.0594  0.1549
41478SOL    HW236159   4.135  11.078  11.535  0.4195  1.8331  0.9907
41479SOL     OW36160  10.214   3.445   2.535  0.4545  0.1539 -0.0722
41479SOL    HW136161  10.238   3.536   2.550 -0.7232  0.7864 -1.7911
41479SOL    HW236162  10.220   3.433   2.440  1.1747 -1.7434  0.1580
41480SOL     OW36163   0.847   7.211   6.391  0.0393 -0.1513  0.1645
41480SOL    HW136164   0.787   7.275   6.352 -1.3372 -0.6519  1.3570
41480SOL    HW236165   0.858   7.240   6.481  1.4452 -0.2035  0.0325
41481SOL     OW36166  11.480   3.854   2.054 -0.2748  0.3260 -0.2120
41481SOL    HW136167  11.426   3.798   2.111 -0.0594  1.3386  1.0380
41481SOL    HW236168  11.544   3.794   2.016 -1.0987 -0.5663 -0.2299
41482SOL     OW36169   4.103   4.257   1.905  0.6281  0.2040  0.5267
41482SOL    HW136170   4.183   4.273   1.854  1.0823 -0.1025  1.1328
41482SOL    HW236171   4.035   4.306   1.859  0.6239 -1.5072 -1.4456
41483SOL     OW36172   2.281   0.285   1.621  0.3203  0.1740 -0.4838
41483SOL    HW136173   2.297   0.357   1.560  2.0076 -0.4817 -0.8856
41483SOL    HW236174   2.360   0.281   1.674  0.1754 -1.2362 -0.3352
41484SOL     OW36175   7.425   8.995   7.120 -0.0310 -0.1264 -0.1131
41484SOL    HW136176   7.504   9.048   7.115 -0.5772  0.7973  0.7142
41484SOL    HW236177   7.457   8.906   7.136  0.8140  0.5269  2.1639
41485SOL     OW36178   6.815  11.912   1.102 -0.0340  0.0937  0.4170
41485SOL    HW136179   6.755  11.944   1.034 -0.9383  0.2127  1.2574
41485SOL    HW236180   6.902  11.924   1.064 -0.5524 -1.4413 -1.4316
41486SOL     OW36181   6.085   1.365   0.409 -0.5680  0.7326 -0.3718
41486SOL    HW136182   6.063   1.272   0.412 -0.7453  0.7961  0.2875
41486SOL    HW236183   6.055   1.400   0.492  0.4168  1.1829 -0.1939
41487SOL     OW36184  10.116   8.982   7.602  0.2646  0.2915  0.3588
41487SOL    HW136185  10.189   9.042   7.617 -0.1001  1.1328 -1.0183
41487SOL    HW236186  10.044   9.038   7.574 -0.3216 -0.7038 -0.2071
41488SOL     OW36187  11.554   5.714   2.325  0.6715  0.1525 -0.2575
41488SOL    HW136188  11.552   5.723   2.230 -0.7672  0.3275 -0.2394
41488SOL    HW236189  11.567   5.621   2.341  3.1107  0.3685 -0.5709
41489SOL     OW36190   1.879   4.954   9.633 -0.0062 -0.0131  0.4190
41489SOL    HW136191   1.924   4.939   9.717  0.0722 -0.3883  0.3141
41489SOL    HW236192   1.861   4.866   9.600 -2.0745  0.0926  1.1204
41490SOL     OW36193   7.804   4.187   8.208  0.7040  0.0272 -0.0074
41490SOL    HW136194   7.736   4.250   8.230 -0.0877  1.4461 -5.1395
41490SOL    HW236195   7.757   4.104   8.198  1.1813 -0.7956  3.4712
41491SOL     OW36196   6.992   6.278   2.945 -0.0096 -0.1343  0.1081
41491SOL    HW136197   6.949   6.317   3.021  1.6185  0.3993  0.8097
41491SOL    HW236198   6.928   6.283   2.875 -0.7106  1.5568  0.8297
41492SOL     OW36199   8.423  11.250   5.401  0.1046  0.4668  0.0449
41492SOL    HW136200   8.423  11.291   5.487 -4.5469 -1.3535  1.1551
41492SOL    HW236201   8.432  11.324   5.340  0.9501  2.0585  1.9695
41493SOL     OW36202   7.603   2.685  10.612 -0.2952  0.5900 -0.8546
41493SOL    HW136203   7.585   2.749  10.681  0.8834  0.6879 -0.6203
41493SOL    HW236204   7.683   2.718  10.570 -1.5352  1.1068 -2.9399
41494SOL     OW36205   9.695   1.286  10.155 -0.5029  0.3151  0.2790
41494SOL    HW136206   9.738   1.319  10.076  0.5186  0.8828  1.0480
41494SOL    HW236207   9.604   1.313  10.146 -0.3865  0.4381 -0.6658
41495SOL     OW36208   2.284   0.723   1.873 -0.3748  0.2002 -0.7368
41495SOL    HW136209   2.313   0.766   1.793 -2.3867 -1.5215 -2.5223
41495SOL    HW236210   2.316   0.633   1.864 -0.1765  0.1119  0.6692
41496SOL     OW36211   5.453   8.050  11.163 -0.5642 -0.4697  0.2517
41496SOL    HW136212   5.471   8.111  11.234  2.3313  0.0095 -0.7778
41496SOL    HW236213   5.429   8.106  11.089 -1.3595 -0.8368  0.2161
41497SOL     OW36214   2.219  10.228   3.706  0.0729 -0.4263 -0.5151
41497SOL    HW136215   2.286  10.264   3.764  0.1315 -1.2462 -0.0561
41497SOL    HW236216   2.138  10.272   3.731  0.3821  0.3566 -0.8764
41498SOL     OW36217  10.244   1.032   9.796  0.1170 -0.0937 -1.0763
41498SOL    HW136218  10.230   1.127   9.793  1.2634  0.1520  0.3138
41498SOL    HW236219  10.339   1.023   9.791  0.0729 -1.1190 -0.2349
41499SOL     OW36220   6.464   8.978   0.902 -0.0608 -0.2267  0.2319
41499SOL    HW136221   6.485   9.067   0.875  0.2874 -0.6667 -1.0106
41499SOL    HW236222   6.372   8.966   0.876 -0.6842  0.3541  2.0391
41500SOL     OW36223   6.072   6.382   2.227 -0.0060  0.1162 -0.0437
41500SOL    HW136224   6.134   6.448   2.195  2.3450 -2.3267 -0.9591
41500SOL    HW236225   6.122   6.331   2.291 -0.9516 -2.1163 -0.9794
41501SOL     OW36226   6.743   3.203   3.587  0.0144 -0.5812 -0.2298
41501SOL    HW136227   6.788   3.176   3.667  0.3239  0.9184  0.1346
41501SOL    HW236228   6.793   3.278   3.556 -1.8489  0.7342 -0.1882
41502SOL     OW36229   8.524  10.201   3.964  0.3449 -0.0403 -0.1514
41502SOL    HW136230   8.609  10.171   3.997 -0.3504 -1.2748  0.5951
41502SOL    HW236231   8.517  10.292   3.993  1.0442 -0.1983  0.5382
41503SOL     OW36232   1.506   1.805   3.282 -0.7695  0.3016 -0.3640
41503SOL    HW136233   1.461   1.849   3.210  0.4716  1.0129 -0.7357
41503SOL    HW236234   1.536   1.876   3.338  0.3074 -0.1247 -0.3888
41504SOL     OW36235   5.474   0.386   9.415 -0.2523  0.6108  0.2136
41504SOL    HW136236   5.479   0.291   9.421 -0.9772  0.4213 -1.6313
41504SOL    HW236237   5.563   0.416   9.433  0.2308 -0.4818 -0.3105
41505SOL     OW36238  10.482   1.869  10.443 -0.0473 -0.2769  0.0132
41505SOL    HW136239  10.574   1.892  10.428  0.2560  1.5275  3.6402
41505SOL    HW236240  10.437   1.953  10.449 -1.4591 -1.0603  0.7976
41506SOL     OW36241   8.221   8.317   3.065 -0.6967  0.3378  0.1422
41506SOL    HW136242   8.267   8.338   2.984  0.2159  1.3232  0.8843
41506SOL    HW236243   8.212   8.401   3.110 -1.1667 -0.1928  1.0798
41507SOL     OW36244   5.317  11.621   2.072 -0.0739 -0.2153  0.2746
41507SOL    HW136245   5.298  11.618   2.166 -2.9258  0.4424 -0.2017
41507SOL    HW236246   5.286  11.537   2.039  0.8784 -0.4261 -0.1258
41508SOL     OW36247   9.599  10.209   8.529  0.0358  0.0239  0.0221
41508SOL    HW136248   9.614  10.246   8.616  0.8597 -0.7991  0.2500
41508SOL    HW236249   9.661  10.254   8.472 -0.0510  0.1024 -0.0113
41509SOL     OW36250   0.909   3.521   9.916 -0.0077  0.3790 -0.6048
41509SOL    HW136251   0.862   3.531   9.834  1.5053 -1.7846 -1.8075
41509SOL    HW236252   1.000   3.542   9.895  0.2061  1.1549  0.8825
41510SOL     OW36253   3.449   5.868   1.087  0.2511 -0.0432  0.5746
41510SOL    HW136254   3.451   5.822   1.003  1.1575 -0.2034  0.6792
41510SOL    HW236255   3.539   5.896   1.102 -0.0813  0.8461  1.0257
41511SOL     OW36256   2.034  11.609  10.783  0.0084 -0.8089  0.1939
41511SOL    HW136257   2.129  11.618  10.777  0.1564 -2.6753 -1.6429
41511SOL    HW236258   2.021  11.524  10.825 -0.8231 -0.8301 -0.0878
41512SOL     OW36259  11.838   8.408   8.640  0.0874 -0.0506  0.4885
41512SOL    HW136260  11.745   8.424   8.659  0.3457  0.6777  1.1673
41512SOL    HW236261  11.837   8.350   8.564 -0.9119  2.0017 -1.1509
41513SOL     OW36262   3.943   1.571  11.050  0.1227 -0.2062 -0.3488
41513SOL    HW136263   3.868   1.630  11.057  1.4517  1.7370 -1.4298
41513SOL    HW236264   3.905   1.484  11.057 -2.1909  0.6985 -0.5170
41514SOL     OW36265   6.228   5.116   9.876  0.2032  0.0109 -0.0119
41514SOL    HW136266   6.318   5.112   9.909 -0.2355 -0.0636  1.1931
41514SOL    HW236267   6.201   5.025   9.866 -0.3779  0.0071  1.4322
41515SOL     OW36268   6.165   3.895  10.144  0.1949  0.0899 -0.1033
41515SOL    HW136269   6.136   3.907  10.235  0.2446 -0.1444 -0.0558
41515SOL    HW236270   6.102   3.833  10.107 -1.0095  1.6451 -0.8054
41516SOL     OW36271   5.437   8.205   6.442 -0.2060 -0.0866 -0.1776
41516SOL    HW136272   5.381   8.268   6.398 -0.7546 -1.6843 -1.8944
41516SOL    HW236273   5.503   8.181   6.376  1.6396  0.6315  1.3043
41517SOL     OW36274  10.003  11.010  10.969  0.1544 -0.3319 -0.1222
41517SOL    HW136275   9.929  11.066  10.946 -0.8226 -1.2483  0.6645
41517SOL    HW236276   9.996  10.936  10.909  0.4286 -0.4298 -0.0332
41518SOL     OW36277   7.493   9.513   3.312 -0.6713 -0.3280 -0.6687
41518SOL    HW136278   7.521   9.599   3.282  0.3487 -0.0372  0.9690
41518SOL    HW236279   7.398   9.520   3.322 -0.4119  1.2199  1.1605
41519SOL     OW36280   2.300   5.103   7.937  0.5337  0.9904  0.4765
41519SOL    HW136281   2.211   5.130   7.917 -0.0327 -1.7706 -1.3211
41519SOL    HW236282   2.352   5.183   7.930 -1.5864  2.4068  0.1755
41520SOL     OW36283  10.728   2.105   1.584  0.2244 -0.0036  0.3996
41520SOL    HW136284  10.814   2.118   1.624 -0.3156  0.3594  1.4970
41520SOL    HW236285  10.676   2.062   1.653 -0.7051  0.5261  0.0440
41521SOL     OW36286  10.502   3.697  11.403  0.2841  0.0585  0.0388
41521SOL    HW136287  10.550   3.614  11.398  1.4527  0.7342 -4.8451
41521SOL    HW236288  10.411   3.673  11.389  0.4612 -0.4868 -0.2061
41522SOL     OW36289  11.291   0.312   6.175  0.3613 -1.0373  0.0637
41522SOL    HW136290  11.216   0.255   6.194 -0.2314  0.0779  1.2837
41522SOL    HW236291  11.318   0.344   6.261  0.6240  0.5623 -0.5835
41523SOL     OW36292   7.167   4.803   6.962  0.3337 -0.3487 -0.0129
41523SOL    HW136293   7.095   4.761   6.914  1.1302 -0.7593 -0.8611
41523SOL    HW236294   7.144   4.791   7.054 -1.9310  1.6338 -0.2026
41524SOL     OW36295   9.512   2.212   0.271 -0.2843 -0.0990 -0.1243
41524SOL    HW136296   9.429   2.165   0.269  0.1193 -1.1033  2.6015
41524SOL    HW236297   9.498   2.284   0.333 -0.1344  2.0242 -2.3817
41525SOL     OW36298   5.150   7.426   3.197 -0.0564  0.0158 -0.0461
41525SOL    HW136299   5.126   7.400   3.108  0.7450  0.4943 -0.4114
41525SOL    HW236300   5.220   7.490   3.185 -0.8735  1.1452  0.8629
41526SOL     OW36301   7.036   5.266   1.468 -0.3348  0.4090  0.1970
41526SOL    HW136302   7.127   5.263   1.437 -0.5165  1.6547 -0.5165
41526SOL    HW236303   7.002   5.178   1.449  0.6017  0.0375  0.1462
41527SOL     OW36304   3.113   7.663   8.603  0.1818  0.4332 -0.4167
41527SOL    HW136305   3.116   7.595   8.671 -1.9869  1.9184  1.3108
41527SOL    HW236306   3.194   7.651   8.553  0.6964 -2.2825  0.8871
41528SOL     OW36307  10.597   5.094   0.108  0.3347  0.4099  0.4139
41528SOL    HW136308  10.518   5.049   0.079 -0.2397  0.0222  2.4479
41528SOL    HW236309  10.568   5.183   0.128  0.9685  1.0305 -1.1925
41529SOL     OW36310   7.003   6.135   4.077  0.0009  0.2856  0.1005
41529SOL    HW136311   7.004   6.223   4.040  0.1679  0.0673 -0.4323
41529SOL    HW236312   6.926   6.094   4.038 -0.1970  0.2652  0.5132
41530SOL     OW36313   1.165   3.499   9.178  0.1429  0.5279  0.1666
41530SOL    HW136314   1.098   3.440   9.211  0.4365 -1.1309 -2.0388
41530SOL    HW236315   1.239   3.486   9.238 -0.5485  0.3756  1.0129
41531SOL     OW36316   7.392   9.035   1.679 -0.1058 -0.1680 -0.2394
41531SOL    HW136317   7.470   9.077   1.643  1.1187 -1.4350  0.8633
41531SOL    HW236318   7.385   9.070   1.768  0.7255 -1.9383  0.5726
41532SOL     OW36319   9.024   3.607   0.546 -0.0954  0.0418 -0.6260
41532SOL    HW136320   9.049   3.679   0.604 -0.3371 -1.1771  1.0525
41532SOL    HW236321   9.107   3.569   0.517  0.0483 -0.8220  0.8570
41533SOL     OW36322   5.832   6.634   3.169 -0.1231  0.0290 -0.5583
41533SOL    HW136323   5.773   6.572   3.127 -2.2716  1.1221  0.7122
41533SOL    HW236324   5.863   6.589   3.248  0.7965 -0.5345 -1.2142
41534SOL     OW36325  11.000  11.376   4.600 -0.8995 -0.0942  0.1540
41534SOL    HW136326  11.028  11.415   4.683 -1.7416  1.2856 -0.1910
41534SOL    HW236327  11.075  11.322   4.573 -0.4261 -0.1830  1.5565
41535SOL     OW36328  10.622   5.483   8.369 -0.2020  0.1974 -0.8456
41535SOL    HW136329  10.641   5.541   8.443 -1.2623 -0.1791 -0.2653
41535SOL    HW236330  10.702   5.486   8.316  0.0304  1.6364 -0.4682
41536SOL     OW36331   4.354   9.091   5.561  0.1658  0.5193 -0.2781
41536SOL    HW136332   4.385   9.018   5.508 -1.8051 -1.4206  1.0409
41536SOL    HW236333   4.281   9.128   5.510 -0.0583  0.3141 -0.1126
41537SOL     OW36334   7.386   1.115  10.265 -0.3772 -0.4861  0.3223
41537SOL    HW136335   7.318   1.048  10.258 -0.6913 -0.3944  2.0616
41537SOL    HW236336   7.468   1.068  10.247 -0.7800 -0.7813 -0.8897
41538SOL     OW36337   9.959   1.238   5.571  0.0579 -0.0577  0.0737
41538SOL    HW136338  10.005   1.227   5.488 -0.2879  0.3422 -0.1781
41538SOL    HW236339   9.908   1.157   5.581 -1.6337  0.7611 -1.2240
41539SOL     OW36340  10.090   4.497   5.379 -0.3430  0.0793  0.1486
41539SOL    HW136341  10.015   4.511   5.322 -1.4477 -2.1736  0.9230
41539SOL    HW236342  10.101   4.402   5.382  0.1032  0.1264  3.0551
41540SOL     OW36343   7.009   5.416   1.178 -0.2892 -0.2118  0.0434
41540SOL    HW136344   7.086   5.366   1.152 -0.0282  0.8263 -1.2854
41540SOL    HW236345   7.031   5.452   1.264  0.6187 -0.1387 -0.2152
41541SOL     OW36346   4.786   9.935   9.169  0.3913 -0.3640  0.0450
41541SOL    HW136347   4.825   9.861   9.122 -0.8635 -1.3405  0.4829
41541SOL    HW236348   4.845   9.949   9.243 -1.4186 -3.7883  2.4264
41542SOL     OW36349   8.914   5.446   0.193 -0.1519 -0.4222 -0.3205
41542SOL    HW136350   8.826   5.408   0.192 -0.8416  1.1113 -0.7257
41542SOL    HW236351   8.922   5.491   0.109  1.4747 -1.4711 -0.7789
41543SOL     OW36352   7.726   4.318   6.333 -0.2445 -0.1750 -0.2199
41543SOL    HW136353   7.681   4.234   6.347 -1.1985  0.1940 -0.9400
41543SOL    HW236354   7.785   4.326   6.408 -1.2502 -0.7854  0.6713
41544SOL     OW36355   1.007   9.226   2.441  0.0979 -0.3903  0.5202
41544SOL    HW136356   0.923   9.237   2.398 -0.4715  1.1785  1.8929
41544SOL    HW236357   1.072   9.237   2.371 -0.8131 -0.3396 -0.3339
41545SOL     OW36358   8.624  11.318   3.613  0.0953  0.4218  0.6520
41545SOL    HW136359   8.694  11.263   3.646  1.3190  1.6885  0.2652
41545SOL    HW236360   8.657  11.407   3.622 -0.8243  0.9712 -1.0021
41546SOL     OW36361   2.638   4.686   9.984 -0.1543  0.1147 -0.2158
41546SOL    HW136362   2.695   4.689  10.060 -1.9023 -1.0040  1.2070
41546SOL    HW236363   2.635   4.594   9.958 -2.2624 -0.0945  0.5622
41547SOL     OW36364   2.917  11.735   8.216 -0.1696 -0.7049  0.7086
41547SOL    HW136365   2.925  11.801   8.147 -1.0080 -0.9763  0.3300
41547SOL    HW236366   2.973  11.664   8.188 -2.3381 -1.8715 -1.0115
41548SOL     OW36367   8.584   6.713   3.297 -0.6832  0.0179  0.1800
41548SOL    HW136368   8.515   6.771   3.329 -0.5315 -1.3520  3.4488
41548SOL    HW236369   8.554   6.685   3.211 -2.2130  2.5050 -0.1834
41549SOL     OW36370   1.569   1.549  10.273 -0.9928  0.0551 -0.2451
41549SOL    HW136371   1.563   1.633  10.320  2.9955 -0.5594  1.7907
41549SOL    HW236372   1.601   1.572  10.186 -1.5540  0.7503 -0.2734
41550SOL     OW36373   8.959   3.750   2.321 -0.2706  0.1127 -0.0557
41550SOL    HW136374   9.009   3.832   2.326  0.3986 -0.3496  3.2698
41550SOL    HW236375   8.876   3.770   2.364 -0.5030 -0.6692 -0.1227
41551SOL     OW36376   0.573   8.043   5.438  0.6860 -0.6796 -0.4631
41551SOL    HW136377   0.566   8.125   5.390 -1.0833 -0.7963 -0.4662
41551SOL    HW236378   0.665   8.019   5.432  1.7084  2.3316  1.2630
41552SOL     OW36379   9.380   9.087  11.034 -0.3247  0.1838  0.2407
41552SOL    HW136380   9.433   9.161  11.002  2.0609  0.0282  3.3907
41552SOL    HW236381   9.411   9.012  10.982 -0.2002  0.7688 -0.5545
41553SOL     OW36382   6.520   7.397   0.879 -0.4677 -0.0749  0.8344
41553SOL    HW136383   6.596   7.438   0.920  1.6367 -0.0316 -2.6354
41553SOL    HW236384   6.521   7.307   0.911  2.0074 -0.4687 -0.1149
41554SOL     OW36385   1.514   9.073   9.976 -0.1072 -0.5954  0.5941
41554SOL    HW136386   1.573   9.015  10.025 -0.3049  0.0780  1.6560
41554SOL    HW236387   1.572   9.130   9.926  0.0948 -2.1611 -1.0727
41555SOL     OW36388   3.418  10.103   4.800 -0.2119 -0.0938  0.0794
41555SOL    HW136389   3.435  10.197   4.808  0.2114  0.3532 -3.8504
41555SOL    HW236390   3.331  10.091   4.837  0.6325  1.3052  2.8035
41556SOL     OW36391   8.821   6.966   6.108 -0.5812 -0.5976 -0.0746
41556SOL    HW136392   8.853   6.882   6.140  0.9998 -0.3854 -1.0062
41556SOL    HW236393   8.797   6.950   6.017 -2.0479 -0.4438  0.2478
41557SOL     OW36394  11.559   5.334   8.025  0.1487  0.1007  0.1270
41557SOL    HW136395  11.586   5.395   7.956  0.4810  1.0666  1.0685
41557SOL    HW236396  11.590   5.376   8.106  1.0593 -1.6945  0.7547
41558SOL     OW36397   6.865  10.703   2.729 -0.0941  0.1053  0.2712
41558SOL    HW136398   6.821  10.774   2.777 -1.6743 -1.2086  0.8579
41558SOL    HW236399   6.891  10.641   2.798  0.6587 -0.2325 -0.3016
41559SOL     OW36400   8.673   7.511  11.557  0.3019  0.9966 -0.2893
41559SOL    HW136401   8.730   7.516  11.480 -0.0051 -1.0027 -0.7107
41559SOL    HW236402   8.584   7.511  11.520  0.1548 -0.1313  0.0151
41560SOL     OW36403  10.461   7.485   0.722 -0.0800 -0.1042 -0.6394
41560SOL    HW136404  10.394   7.458   0.659 -1.5377  0.5260  0.5690
41560SOL    HW236405  10.453   7.421   0.793  0.7826 -0.1523 -0.5756
41561SOL     OW36406   5.742   0.443   9.643 -0.3327 -0.1452 -0.6196
41561SOL    HW136407   5.700   0.372   9.692  0.6615  0.0901  0.6143
41561SOL    HW236408   5.790   0.493   9.709  0.2779  0.7428 -1.7084
41562SOL     OW36409   9.956   6.399   3.010  0.0322 -0.6415 -0.1014
41562SOL    HW136410   9.996   6.351   2.937 -1.5528  0.0187 -1.4667
41562SOL    HW236411   9.868   6.362   3.018  0.1557 -0.6504  1.4537
41563SOL     OW36412   2.336  11.615   0.088 -0.4745  0.4286 -0.5945
41563SOL    HW136413   2.344  11.578  -0.000 -0.6621  2.3019 -1.4452
41563SOL    HW236414   2.316  11.540   0.144 -0.8332 -0.7309 -2.2098
41564SOL     OW36415  11.450  10.278   9.050 -0.2356  0.3908 -0.3518
41564SOL    HW136416  11.466  10.264   9.143  0.6268 -0.3184 -0.6002
41564SOL    HW236417  11.493  10.362   9.030  1.4013 -0.4683 -0.5506
41565SOL     OW36418  11.136   9.422   7.331 -0.4785  0.0094 -0.6938
41565SOL    HW136419  11.212   9.377   7.366  0.8555  1.6566 -1.3639
41565SOL    HW236420  11.099   9.362   7.266 -0.7530 -1.4771  0.7854
41566SOL     OW36421   2.678  10.158   0.783 -0.7066  0.2765 -0.2175
41566SOL    HW136422   2.675  10.073   0.738  0.2436 -0.8256  1.6758
41566SOL    HW236423   2.590  10.169   0.819 -0.2929 -0.9754  1.2940
41567SOL     OW36424   1.796   1.302   6.328 -0.5431 -0.7513 -0.3013
41567SOL    HW136425   1.831   1.215   6.315 -1.7012 -1.3019  0.1096
41567SOL    HW236426   1.752   1.298   6.413 -1.0310  0.0931 -0.4961
41568SOL     OW36427   2.303   3.963   1.439  0.0082  0.5973 -0.4075
41568SOL    HW136428   2.299   4.001   1.527  0.5058  2.0318 -0.9656
41568SOL    HW236429   2.394   3.972   1.413 -0.2647  0.8500 -1.3287
41569SOL     OW36430   7.761   0.122   9.451  0.2777 -0.1057 -0.4044
41569SOL    HW136431   7.773   0.027   9.453  0.7558 -0.0962  2.6874
41569SOL    HW236432   7.724   0.140   9.364 -0.8694 -3.2167 -0.6976
41570SOL     OW36433   5.082   2.435   8.886  0.1389  0.4184 -0.4541
41570SOL    HW136434   5.121   2.354   8.853  0.7066  0.0958  0.9093
41570SOL    HW236435   4.987   2.419   8.882  0.2104  0.2050 -1.4027
41571SOL     OW36436   3.109  10.049   4.836 -0.5326  0.2229 -0.4903
41571SOL    HW136437   3.075   9.977   4.889  1.0134 -0.6356 -0.6302
41571SOL    HW236438   3.071  10.035   4.749 -0.8692  0.0428 -0.3150
41572SOL     OW36439   6.446   1.301   0.172  0.2292  0.0291 -0.1575
41572SOL    HW136440   6.421   1.229   0.230  0.1565  0.4042  0.2794
41572SOL    HW236441   6.368   1.357   0.169  0.2428  0.0247 -0.5953
41573SOL     OW36442   2.790   9.251   5.403 -0.3949 -0.3821 -0.4625
41573SOL    HW136443   2.879   9.222   5.381 -0.1432  0.1835 -0.2190
41573SOL    HW236444   2.735   9.217   5.333 -0.2411 -2.1069  0.2081
41574SOL     OW36445   9.612  10.275   9.380  0.3234  0.4183 -0.1181
41574SOL    HW136446   9.619  10.348   9.441  1.6589 -0.4021  0.7452
41574SOL    HW236447   9.523  10.242   9.393  0.6761  0.0740  1.6142
41575SOL     OW36448   2.198   8.875   7.875  0.4852  0.1945  0.1752
41575SOL    HW136449   2.209   8.887   7.781 -0.1608 -0.4972  0.0058
41575SOL    HW236450   2.122   8.817   7.884 -0.5949  1.6757  1.1699
41576SOL     OW36451   2.190   5.319   1.908  0.1976 -0.4078  0.5408
41576SOL    HW136452   2.241   5.300   1.829 -0.9139 -0.3974 -0.2121
41576SOL    HW236453   2.246   5.292   1.981  1.9756  1.2422 -0.1481
41577SOL     OW36454   0.569   3.466   8.986  0.0981 -0.2970  0.3459
41577SOL    HW136455   0.577   3.385   9.035  1.7156 -0.9163 -0.8196
41577SOL    HW236456   0.538   3.439   8.899  0.5448  0.3226 -0.0180
41578SOL     OW36457   1.202   1.165   9.952  0.4438 -0.5804 -0.2670
41578SOL    HW136458   1.143   1.094   9.974  1.7899 -1.8321 -0.5548
41578SOL    HW236459   1.159   1.211   9.879  0.0862 -1.8191 -0.8576
41579SOL     OW36460   9.060   0.076   0.512  0.2270  0.3554  0.0492
41579SOL    HW136461   9.068   0.170   0.529 -0.7557  0.5866 -0.6782
41579SOL    HW236462   9.130   0.058   0.448  0.6686  0.5023  0.4824
41580SOL     OW36463   8.050   5.792   2.301  0.1841 -0.1163  0.8683
41580SOL    HW136464   8.018   5.738   2.229  0.1159  0.8366  0.1674
41580SOL    HW236465   8.057   5.731   2.375 -0.6206 -0.9233  0.3100
41581SOL     OW36466   1.555   5.024   0.350 -0.4478 -0.5914 -0.3623
41581SOL    HW136467   1.518   5.100   0.394 -0.1746 -0.5709 -0.1652
41581SOL    HW236468   1.611   4.983   0.415  0.6899 -0.0428 -0.9577
41582SOL     OW36469   5.504  10.961   1.745 -0.5302  0.1318  0.1158
41582SOL    HW136470   5.543  10.960   1.658  0.4967 -1.0565  0.5574
41582SOL    HW236471   5.443  10.888   1.745 -1.2812  0.7418  0.0941
41583SOL     OW36472   4.721   7.177   1.580 -0.3915 -0.5194 -0.3380
41583SOL    HW136473   4.675   7.137   1.506  1.0565 -0.8014 -1.1342
41583SOL    HW236474   4.736   7.268   1.554 -0.8583 -0.3145  0.0952
41584SOL     OW36475   1.020   0.091   0.946 -0.6645  0.0119 -0.1022
41584SOL    HW136476   1.045   0.046   0.865  0.0726 -0.3848  0.3279
41584SOL    HW236477   1.056   0.179   0.936  1.0713 -0.5607  0.5224
41585SOL     OW36478   5.048   9.418   7.019  0.3960  0.0247  0.3701
41585SOL    HW136479   5.078   9.507   7.041  2.3579 -0.1362 -1.3817
41585SOL    HW236480   5.107   9.389   6.949 -0.5377 -2.4751  0.5212
41586SOL     OW36481  10.903   7.349  11.646  0.4934  0.1829 -0.1116
41586SOL    HW136482  10.878   7.417  11.584  1.2448 -0.3268 -1.0006
41586SOL    HW236483  10.821   7.320  11.685 -0.0245  0.2742 -1.1181
41587SOL     OW36484   0.225   5.271   3.812  0.2092  0.3488  0.1448
41587SOL    HW136485   0.161   5.225   3.759 -1.2960  1.9862  0.4596
41587SOL    HW236486   0.307   5.261   3.764 -0.7881  0.4388 -1.6698
41588SOL     OW36487  11.526   4.033   7.212  0.6531 -0.9590 -0.0400
41588SOL    HW136488  11.615   4.066   7.204  0.5091 -0.1681  1.2650
41588SOL    HW236489  11.471   4.105   7.179  0.4199 -0.5680  1.1504
41589SOL     OW36490  11.917   5.662   8.115 -0.0845 -0.1161  0.7055
41589SOL    HW136491  11.918   5.671   8.020 -0.5834 -0.7934  0.6310
41589SOL    HW236492  11.839   5.609   8.134  0.8767 -1.3432  1.3680
41590SOL     OW36493   7.277   1.685  11.946 -0.6464  0.0591 -0.1845
41590SOL    HW136494   7.350   1.629  11.922 -0.9602 -1.3736  1.8879
41590SOL    HW236495   7.213   1.675  11.875  0.0833 -0.7361 -0.7371
41591SOL     OW36496   5.830   7.060   8.935 -0.1820 -0.2172  0.1217
41591SOL    HW136497   5.832   7.070   8.840  1.1469 -1.0140  0.0389
41591SOL    HW236498   5.922   7.055   8.960 -0.5202 -1.9254  1.2212
41592SOL     OW36499   8.374   4.786   2.839 -0.1040  0.5279 -0.4434
41592SOL    HW136500   8.308   4.813   2.902 -0.6981  0.1634 -0.8897
41592SOL    HW236501   8.413   4.707   2.878  1.5033  1.8600  0.7681
41593SOL     OW36502   2.638  11.817   7.576  0.4734  0.2752 -0.2849
41593SOL    HW136503   2.658  11.777   7.491 -0.2982 -0.4655 -0.1340
41593SOL    HW236504   2.622  11.742   7.634 -0.8906  0.7920  0.0307
41594SOL     OW36505   7.096   8.005   7.974  0.2938 -0.0649  0.1395
41594SOL    HW136506   7.080   7.917   8.009 -2.5614 -0.5303 -1.9976
41594SOL    HW236507   7.068   8.064   8.044  0.7912 -0.8344  1.0164
41595SOL     OW36508   3.045   9.099   2.875 -0.7079  0.6425  0.4533
41595SOL    HW136509   2.982   9.102   2.803 -2.1817  1.4368  1.7171
41595SOL    HW236510   3.088   9.184   2.872 -0.4713  0.5184  0.2733
41596SOL     OW36511   6.937   0.090   1.319 -0.0927  0.1754  0.3214
41596SOL    HW136512   6.898   0.047   1.243  1.5380 -0.8584  0.0148
41596SOL    HW236513   6.876   0.160   1.341 -1.0673 -0.0840 -1.3631
41597SOL     OW36514   8.454   0.068   2.848 -0.7441 -0.0024 -0.1274
41597SOL    HW136515   8.523   0.131   2.872  0.7661 -1.1699 -1.1850
41597SOL    HW236516   8.458   0.002   2.917 -1.1213  0.1434  0.0376
41598SOL     OW36517   7.507   1.313   8.091 -0.5237 -0.2821  0.0893
41598SOL    HW136518   7.572   1.262   8.139  0.2534  1.2299  0.7319
41598SOL    HW236519   7.424   1.268   8.107 -0.2866  0.0750  2.8037
41599SOL     OW36520   7.282  11.880  10.176  0.1521  0.0504  0.6061
41599SOL    HW136521   7.353  11.943  10.161  1.5627 -1.2882  1.4146
41599SOL    HW236522   7.273  11.832  10.094 -0.2655  0.6218  0.3062
41600SOL     OW36523   2.042   8.706   7.267 -0.3495 -0.1209 -0.5456
41600SOL    HW136524   2.105   8.775   7.283 -0.5164 -0.0094 -0.3688
41600SOL    HW236525   2.065   8.636   7.328 -0.5468  0.0176 -0.3114
41601SOL     OW36526   7.697   6.830   9.712 -0.1295  0.0318  0.2467
41601SOL    HW136527   7.784   6.866   9.727 -0.0104  0.8604 -2.0671
41601SOL    HW236528   7.638   6.905   9.718 -0.0414  0.5426 -3.1035
41602SOL     OW36529   8.433   3.562   5.258  0.0104 -0.2310  0.1028
41602SOL    HW136530   8.356   3.537   5.207  0.6016 -1.1474 -0.3762
41602SOL    HW236531   8.416   3.652   5.285 -0.6329  0.0475 -1.1307
41603SOL     OW36532  11.886   1.291  10.869 -0.2171 -0.5254  0.0372
41603SOL    HW136533  11.891   1.351  10.943 -1.2338 -0.7542  0.3102
41603SOL    HW236534  11.974   1.292  10.831 -0.1445  0.9677  0.1615
41604SOL     OW36535  11.239   7.390   0.784  0.3702  0.0431 -0.2477
41604SOL    HW136536  11.254   7.482   0.761  1.0794  0.1661  0.6197
41604SOL    HW236537  11.261   7.386   0.878 -0.1552 -0.9012 -0.1569
41605SOL     OW36538   3.727   3.325   8.918 -0.2964 -0.8834 -0.1405
41605SOL    HW136539   3.703   3.378   8.994 -1.6043 -0.6508 -0.6779
41605SOL    HW236540   3.751   3.240   8.954  3.3845  0.4299  0.8951
41606SOL     OW36541   4.282   6.692   0.109  0.5925 -0.0631 -0.2827
41606SOL    HW136542   4.190   6.717   0.104  1.1529  2.1071 -0.5752
41606SOL    HW236543   4.288   6.612   0.057 -1.0066  0.0886 -0.7585
41607SOL     OW36544   5.952   4.426   2.940  0.2090  0.4607 -0.3103
41607SOL    HW136545   5.987   4.460   3.022 -0.7225 -0.9096  0.6932
41607SOL    HW236546   5.999   4.344   2.926 -0.5473  0.0429 -0.4509
41608SOL     OW36547   5.898   5.627   2.907  0.2743  0.0579  0.0101
41608SOL    HW136548   5.902   5.571   2.829  1.6856  0.2474 -0.0707
41608SOL    HW236549   5.849   5.575   2.971  1.4040 -1.2109 -0.1164
41609SOL     OW36550   6.179   1.128   1.283  0.0184 -0.0288  0.1211
41609SOL    HW136551   6.137   1.171   1.357  0.7232  1.8913 -0.5453
41609SOL    HW236552   6.107   1.102   1.226 -0.6889 -3.0655  2.1388
41610SOL     OW36553   0.925   5.346   8.679 -0.4667 -0.0261 -0.6428
41610SOL    HW136554   1.005   5.293   8.678  1.3095  2.4709 -1.5902
41610SOL    HW236555   0.898   5.347   8.771  0.1277 -1.5123 -0.4190
41611SOL     OW36556   5.736   4.050   9.827  0.1890  0.1112 -0.3052
41611SOL    HW136557   5.754   4.085   9.740  0.0894  1.7379  0.2815
41611SOL    HW236558   5.653   4.005   9.818  0.1256  0.3601 -1.0357
41612SOL     OW36559   8.914   3.071   2.071 -0.4253 -0.0019  0.5853
41612SOL    HW136560   8.912   3.150   2.017 -0.5674 -1.1548 -1.1629
41612SOL    HW236561   8.827   3.033   2.061 -0.4844 -0.2177  1.7243
41613SOL     OW36562   1.902   6.384   1.650  0.2877 -0.3501  0.1765
41613SOL    HW136563   1.882   6.441   1.575  0.3072 -0.1846  0.2983
41613SOL    HW236564   1.829   6.321   1.652  1.1764 -1.4751 -1.0723
41614SOL     OW36565   6.552   8.089   1.102  0.1215 -0.2599  0.0866
41614SOL    HW136566   6.462   8.124   1.100 -0.0903 -0.8267 -0.4317
41614SOL    HW236567   6.552   8.027   1.175  0.0932 -0.2581  0.0883
41615SOL     OW36568   9.334   9.271   6.593  0.1325 -0.5078  0.3789
41615SOL    HW136569   9.297   9.346   6.638 -2.6158 -2.2150  1.1683
41615SOL    HW236570   9.303   9.280   6.503  2.7693  1.0582 -0.5062
41616SOL     OW36571   6.336   2.908   4.736  0.0527 -0.0387  0.5602
41616SOL    HW136572   6.354   2.989   4.688  0.8333  0.1702  1.1833
41616SOL    HW236573   6.257   2.927   4.787 -0.3044  0.0117 -0.0063
41617SOL     OW36574   2.371   5.782   4.660 -0.8503 -0.5363  0.8425
41617SOL    HW136575   2.295   5.840   4.667  0.5563  1.8494 -1.6029
41617SOL    HW236576   2.344   5.712   4.602 -0.6323  1.6938 -2.2167
41618SOL     OW36577   7.317   3.669   8.843  0.1710  0.4402 -0.4232
41618SOL    HW136578   7.385   3.635   8.902 -0.7979 -0.0758  0.4368
41618SOL    HW236579   7.241   3.683   8.900 -0.4000  1.1503 -1.3334
41619SOL     OW36580   8.944   7.842  10.531 -0.1267  0.2888  0.1070
41619SOL    HW136581   9.010   7.776  10.513 -1.3781 -0.4889 -1.9538
41619SOL    HW236582   8.956   7.864  10.623  0.7723 -2.2985  0.6779
41620SOL     OW36583   8.697   5.708  10.332 -0.1931  0.1042  0.6796
41620SOL    HW136584   8.725   5.649  10.402 -3.8319 -0.3637  1.9341
41620SOL    HW236585   8.752   5.786  10.343  0.9893 -0.9109  2.4685
41621SOL     OW36586  11.777   6.183   5.781 -0.3704 -0.2378 -0.0988
41621SOL    HW136587  11.834   6.113   5.813  1.9003  0.5897 -2.1009
41621SOL    HW236588  11.786   6.253   5.845  0.7824 -0.1684 -0.3285
41622SOL     OW36589   3.292  11.912   3.082 -0.7830 -0.1422  0.2566
41622SOL    HW136590   3.255  11.838   3.033 -0.2249  0.3217 -0.8808
41622SOL    HW236591   3.373  11.933   3.037  0.6759 -0.8034  2.4048
41623SOL     OW36592   1.093   0.256   4.978  0.1982  0.1527  0.2449
41623SOL    HW136593   1.159   0.286   5.040 -0.0386 -0.1375  0.6419
41623SOL    HW236594   1.037   0.198   5.029  0.3438 -0.5558 -0.3736
41624SOL     OW36595   8.377   3.237   4.703 -0.0720 -0.3846  0.3375
41624SOL    HW136596   8.394   3.143   4.696  0.8747 -0.1161 -1.7345
41624SOL    HW236597   8.313   3.255   4.634 -1.1854  0.3275  1.5033
41625SOL     OW36598  11.487   2.788   2.602  0.2370 -1.1248  0.2087
41625SOL    HW136599  11.410   2.735   2.626  0.8861 -1.9555  0.4941
41625SOL    HW236600  11.559   2.749   2.651  0.8324 -0.2759  0.0299
41626SOL     OW36601   6.217   4.029   8.108 -0.6884 -0.6431 -0.4141
41626SOL    HW136602   6.262   4.052   8.027  1.0354 -2.1282  0.0680
41626SOL    HW236603   6.209   3.933   8.105 -0.2422 -0.7753  1.3217
41627SOL     OW36604   6.582   0.959   8.230 -0.4011 -0.2226 -0.4200
41627SOL    HW136605   6.607   0.979   8.320 -1.4810  0.4163 -0.2424
41627SOL    HW236606   6.555   1.043   8.193  0.8065 -0.3237 -1.6256
41628SOL     OW36607   9.471   3.852   4.525 -0.1343 -0.2335 -0.0918
41628SOL    HW136608   9.430   3.839   4.439 -1.3498  2.2277  0.0475
41628SOL    HW236609   9.418   3.798   4.584  0.3266 -1.4487 -0.7334
41629SOL     OW36610  10.492   5.057   5.517 -0.1681  0.3884  0.6317
41629SOL    HW136611  10.448   5.140   5.500 -0.6578  0.2807  1.3270
41629SOL    HW236612  10.508   5.057   5.611  0.5605  0.0446  0.5189
41630SOL     OW36613   8.259   7.977   6.761  0.0504  0.3342 -0.5214
41630SOL    HW136614   8.303   8.022   6.689  0.2751  1.6329  0.3952
41630SOL    HW236615   8.258   7.885   6.734  0.9019  0.6602 -1.7796
41631SOL     OW36616   8.144   2.738   6.274  0.0677  0.4214 -0.1520
41631SOL    HW136617   8.096   2.657   6.290  1.0960 -0.3178 -0.6894
41631SOL    HW236618   8.082   2.794   6.226 -0.5837 -0.1135  0.0567
41632SOL     OW36619   5.326  11.852   8.892  0.1883  0.3910  0.4242
41632SOL    HW136620   5.244  11.829   8.934  0.2737 -0.7595 -0.0250
41632SOL    HW236621   5.350  11.776   8.840  1.0371  1.0805 -0.2400
41633SOL     OW36622   7.452   0.482   0.806  0.2337 -0.0423  0.0579
41633SOL    HW136623   7.368   0.462   0.848 -0.0203 -0.4010 -0.6026
41633SOL    HW236624   7.474   0.403   0.757  1.6651 -0.4756  1.3470
41634SOL     OW36625   0.260   8.036   8.726 -0.0875 -0.3098 -0.0435
41634SOL    HW136626   0.271   8.119   8.772  1.9620 -0.7024  0.2856
41634SOL    HW236627   0.313   8.045   8.647 -0.0208 -1.2077 -0.1114
41635SOL     OW36628   2.424   6.829   7.023  0.3270 -0.3832  0.1912
41635SOL    HW136629   2.353   6.769   7.045 -0.1663  0.3821  0.7481
41635SOL    HW236630   2.479   6.830   7.101  0.2306  0.0102  0.2604
41636SOL     OW36631  10.273   6.729   6.502 -0.0680  0.0141  0.4610
41636SOL    HW136632  10.263   6.783   6.424  1.8163 -1.2649 -0.7719
41636SOL    HW236633  10.191   6.680   6.508  0.1503 -0.6744 -1.4206
41637SOL     OW36634   4.511  11.455   6.597 -0.1007 -0.1380  0.1458
41637SOL    HW136635   4.472  11.456   6.509  2.7346  0.4507 -1.2297
41637SOL    HW236636   4.544  11.367   6.607  1.0985  0.2656 -0.1397
41638SOL     OW36637  10.476   7.736   5.194  0.7369  0.8052 -0.0981
41638SOL    HW136638  10.519   7.679   5.130  0.2464  1.1144 -0.7204
41638SOL    HW236639  10.469   7.683   5.273  3.7292  1.2604  0.6018
41639SOL     OW36640   5.082   1.368   1.960  0.5229 -0.1918  0.0939
41639SOL    HW136641   5.103   1.339   2.049 -1.2998 -0.0070  0.6187
41639SOL    HW236642   5.070   1.462   1.968 -1.7773 -0.4304  0.1635
41640SOL     OW36643   0.081   2.928   4.165 -0.1701  0.3810 -0.0966
41640SOL    HW136644   0.001   2.961   4.206  0.1716  0.3353  0.6155
41640SOL    HW236645   0.062   2.931   4.071 -0.7389  1.0683  0.0284
41641SOL     OW36646   6.469   0.697   5.968 -0.0992  0.1070 -0.0353
41641SOL    HW136647   6.501   0.738   5.888  2.7859  1.6219  1.7632
41641SOL    HW236648   6.394   0.751   5.995  0.8830  1.5351 -0.0735
41642SOL     OW36649   7.042   4.220   6.181  0.7262  0.5977 -0.1475
41642SOL    HW136650   7.009   4.195   6.095  0.5646 -0.0054  0.0863
41642SOL    HW236651   7.118   4.163   6.195 -0.4535 -0.7906  0.9784
41643SOL     OW36652   7.108   5.101   2.357 -0.0565 -0.3012  0.7108
41643SOL    HW136653   7.014   5.084   2.363 -0.2829  0.2997 -0.7523
41643SOL    HW236654   7.121   5.180   2.408 -0.4560 -0.0446  0.4231
41644SOL     OW36655   1.432   7.712   6.551  0.2852  0.4541  0.5747
41644SOL    HW136656   1.492   7.656   6.599 -0.3846 -0.9015 -0.1319
41644SOL    HW236657   1.489   7.760   6.489  0.9048  0.8930  1.4607
41645SOL     OW36658   5.595   9.449   6.117  0.2255 -0.5878  0.8968
41645SOL    HW136659   5.611   9.390   6.191  1.6198 -3.2481 -1.3775
41645SOL    HW236660   5.515   9.415   6.076 -0.3268  0.6369  0.9070
41646SOL     OW36661   7.505   6.863  11.309  0.2449  0.3302  0.1170
41646SOL    HW136662   7.552   6.781  11.325 -0.8038 -0.1222  1.0475
41646SOL    HW236663   7.429   6.858  11.368 -1.3330  0.7134 -1.8098
41647SOL     OW36664   3.608   3.550  10.237  0.0242 -0.2280 -0.0907
41647SOL    HW136665   3.619   3.534  10.144 -1.5208  0.9568 -0.5237
41647SOL    HW236666   3.625   3.466  10.279 -0.5783 -1.1051 -1.5609
41648SOL     OW36667   2.476   1.609   0.751 -0.2227 -0.0939  0.0090
41648SOL    HW136668   2.479   1.584   0.844  0.4500  0.4638  0.1497
41648SOL    HW236669   2.459   1.527   0.705 -0.6011 -0.3738  0.6259
41649SOL     OW36670   5.858  11.716   5.440  0.3278  0.4968 -0.3219
41649SOL    HW136671   5.830  11.789   5.496  0.2029 -1.0087  1.7242
41649SOL    HW236672   5.923  11.670   5.493  1.5983  0.0245 -2.2244
41650SOL     OW36673   6.312   3.744   9.354 -0.4785 -0.2934  0.3859
41650SOL    HW136674   6.261   3.694   9.418 -0.3946  0.3538  0.9672
41650SOL    HW236675   6.271   3.830   9.353  0.0310 -0.0500  0.1750
41651SOL     OW36676  10.765   5.255   9.643 -0.0255 -0.5426  0.8480
41651SOL    HW136677  10.789   5.262   9.551 -0.6535 -1.0444  0.6438
41651SOL    HW236678  10.845   5.222   9.686  0.7077  0.9763  0.7186
41652SOL     OW36679   3.435   9.391   9.642  0.3147 -0.1369  0.2807
41652SOL    HW136680   3.515   9.340   9.632 -0.1267 -1.0128  1.0442
41652SOL    HW236681   3.414   9.422   9.554  0.3679 -1.6306 -0.2757
41653SOL     OW36682  10.195   8.429   7.315  0.1936 -0.4214  0.4394
41653SOL    HW136683  10.248   8.483   7.256 -0.6250 -0.6911 -0.5801
41653SOL    HW236684  10.251   8.355   7.338  1.1304  0.5626  1.4000
41654SOL     OW36685   7.628   0.632   6.390 -0.0607 -0.1111  0.2408
41654SOL    HW136686   7.712   0.626   6.344 -0.3325 -2.8020 -0.0711
41654SOL    HW236687   7.650   0.671   6.474  0.9554  1.9907 -0.8944
41655SOL     OW36688   4.465   9.948   2.456  0.0894  0.2832  0.1828
41655SOL    HW136689   4.526   9.935   2.384  1.7605 -1.3868  1.7766
41655SOL    HW236690   4.431  10.037   2.444  2.1650  0.9307 -1.2946
41656SOL     OW36691  11.749   5.825   6.404 -0.0666 -0.1139 -0.0286
41656SOL    HW136692  11.783   5.799   6.489 -0.0631 -0.3262 -0.0954
41656SOL    HW236693  11.826   5.849   6.352  0.2948 -3.2295 -1.1156
41657SOL     OW36694  10.693   0.257   3.577 -0.3436  0.3890 -0.4107
41657SOL    HW136695  10.612   0.215   3.605 -0.5499  1.2397  0.3253
41657SOL    HW236696  10.666   0.317   3.507 -0.1837 -0.0594 -0.8634
41658SOL     OW36697   0.106   4.275   8.241  0.6168 -0.2859  0.1173
41658SOL    HW136698   0.191   4.234   8.226  0.3498 -0.1763 -1.9577
41658SOL    HW236699   0.119   4.367   8.218  0.1222 -0.0858  0.6068
41659SOL     OW36700   4.138   5.042   8.891  0.0100 -0.0997  0.0679
41659SOL    HW136701   4.215   4.985   8.886 -1.3475 -1.9369 -1.3218
41659SOL    HW236702   4.174   5.130   8.884  1.9171 -0.9381 -2.0451
41660SOL     OW36703   3.851   1.127   8.045  0.1428  0.4453 -0.3855
41660SOL    HW136704   3.830   1.140   8.137  1.6624 -1.6858  0.3607
41660SOL    HW236705   3.886   1.211   8.016 -1.0404  1.3598  0.7655
41661SOL     OW36706   4.003   8.431   0.703  0.1368 -0.3151  0.8334
41661SOL    HW136707   4.039   8.395   0.622  2.3078  0.3320  1.4212
41661SOL    HW236708   4.012   8.526   0.693 -1.1358 -0.1390  1.1809
41662SOL     OW36709   5.819   1.335   2.677 -0.4579  0.1307 -0.3991
41662SOL    HW136710   5.853   1.412   2.723 -0.4543  0.6189 -1.1831
41662SOL    HW236711   5.773   1.285   2.743  1.0765 -0.1142  0.5293
41663SOL     OW36712   1.983   9.928   8.298  0.1537 -0.4831  0.1118
41663SOL    HW136713   1.934   9.856   8.338 -1.4217  1.1307  1.2107
41663SOL    HW236714   1.917   9.991   8.271  1.3353 -0.3975 -2.9510
41664SOL     OW36715   0.559   7.111   6.046  0.1381  0.9548 -0.2721
41664SOL    HW136716   0.477   7.074   6.013  0.6274  0.0176 -0.4592
41664SOL    HW236717   0.534   7.195   6.084 -1.1801 -0.0046  1.1059
41665SOL     OW36718   1.089   1.579   5.251 -0.6688 -0.6398  0.5684
41665SOL    HW136719   1.171   1.576   5.301 -1.4507 -0.6778  1.9043
41665SOL    HW236720   1.065   1.487   5.238 -1.2074 -0.6366  1.4327
41666SOL     OW36721   7.415   9.678   5.671 -0.2734 -0.0460 -0.4862
41666SOL    HW136722   7.337   9.643   5.714 -0.9047  0.4995 -1.1594
41666SOL    HW236723   7.488   9.634   5.714 -0.8803  0.3839  1.0629
41667SOL     OW36724   5.602  10.776   7.749  0.0209 -0.5833 -0.1075
41667SOL    HW136725   5.609  10.709   7.817  1.2130 -0.3766  0.0074
41667SOL    HW236726   5.664  10.747   7.681  0.0376  0.0450 -0.3656
41668SOL     OW36727   3.635   3.378   2.274  0.2685 -0.3286  0.8438
41668SOL    HW136728   3.713   3.374   2.329  0.0174  0.2394  1.2520
41668SOL    HW236729   3.566   3.410   2.332  0.2244  1.2652 -0.0249
41669SOL     OW36730  10.471   5.273   3.289  0.5142 -0.6012  0.1514
41669SOL    HW136731  10.519   5.203   3.333 -1.8236 -3.1018 -0.9657
41669SOL    HW236732  10.452   5.336   3.358  2.9450 -0.8271  1.1477
41670SOL     OW36733   6.200   8.119   4.705  0.2107 -0.0462 -0.1508
41670SOL    HW136734   6.151   8.171   4.768 -0.5802 -1.3802  0.3776
41670SOL    HW236735   6.259   8.066   4.758  1.8028  1.0556 -0.7402
41671SOL     OW36736   1.133  10.183   7.797 -0.3247 -0.2153 -0.1451
41671SOL    HW136737   1.103  10.253   7.854  0.4687  1.1723 -1.3765
41671SOL    HW236738   1.054  10.150   7.755 -0.6682  0.1290  0.2331
41672SOL     OW36739  10.434   8.778   1.175 -0.3614 -0.0124  0.2664
41672SOL    HW136740  10.427   8.694   1.131 -2.5463 -0.2145  0.9234
41672SOL    HW236741  10.415   8.842   1.106  1.3227  0.0177 -0.2385
41673SOL     OW36742   8.683   5.585   6.514 -0.3139 -0.3153  0.2946
41673SOL    HW136743   8.773   5.600   6.485 -0.9469  1.5302 -0.9028
41673SOL    HW236744   8.642   5.537   6.442 -0.4157 -0.7532  0.6388
41674SOL     OW36745   5.464   1.802  11.605 -0.0749  0.0745  0.6943
41674SOL    HW136746   5.515   1.802  11.686  1.0552 -1.7182  0.0335
41674SOL    HW236747   5.416   1.719  11.607 -1.1493  0.6609  0.1700
41675SOL     OW36748   1.683   0.253  10.595  0.3847  0.0079  0.0063
41675SOL    HW136749   1.724   0.208  10.669  0.8207 -0.5347 -0.5603
41675SOL    HW236750   1.662   0.184  10.533 -0.4175  0.4088 -0.1776
41676SOL     OW36751   6.782  10.827   6.238  0.3601 -0.4038 -0.1336
41676SOL    HW136752   6.871  10.822   6.272  1.5079 -4.2040 -2.9834
41676SOL    HW236753   6.730  10.772   6.297  0.0928  0.8402  0.8341
41677SOL     OW36754   4.406   7.277   4.394  0.3979 -0.2158  0.2196
41677SOL    HW136755   4.412   7.370   4.374 -1.5135  0.4224  2.2126
41677SOL    HW236756   4.391   7.235   4.309  0.0055  1.4357 -0.5699
41678SOL     OW36757   8.647   8.922   6.685  0.4136  0.4065  0.2257
41678SOL    HW136758   8.658   9.011   6.716  1.5066  0.6072 -0.6725
41678SOL    HW236759   8.736   8.892   6.666  0.0236 -0.7193  0.0887
41679SOL     OW36760   9.690   8.333   1.957  0.2747 -0.4534  0.3890
41679SOL    HW136761   9.668   8.262   1.897  0.0010  0.5015 -0.6781
41679SOL    HW236762   9.774   8.307   1.995  0.6851 -0.8851 -0.7598
41680SOL     OW36763   2.988   1.871  11.137  0.1746 -0.0063 -0.8540
41680SOL    HW136764   2.907   1.821  11.127  1.0214 -0.9740 -4.0712
41680SOL    HW236765   3.049   1.809  11.177  0.2785 -0.4590 -1.6966
41681SOL     OW36766   9.369  11.450   5.339  0.8242  0.3321  0.1797
41681SOL    HW136767   9.388  11.538   5.373  0.1604  0.1284  1.1250
41681SOL    HW236768   9.351  11.398   5.417 -0.6133 -0.1841 -0.4634
41682SOL     OW36769   4.690  11.642  10.509  0.3308  0.2039  0.1340
41682SOL    HW136770   4.740  11.688  10.575  0.5052 -0.6942  0.6508
41682SOL    HW236771   4.754  11.586  10.465 -0.1301 -0.7206  0.5890
41683SOL     OW36772  11.386   3.200  11.049  0.7124 -0.3622 -0.2887
41683SOL    HW136773  11.378   3.270  11.113  3.0144  0.2290 -0.5510
41683SOL    HW236774  11.397   3.121  11.101 -1.9832 -0.6271  0.0125
41684SOL     OW36775   9.482   3.404  11.568  0.2483  0.0309 -0.0540
41684SOL    HW136776   9.457   3.495  11.578  0.0468 -0.1847  1.9301
41684SOL    HW236777   9.407   3.363  11.525  0.6856  0.9226 -1.7322
41685SOL     OW36778   4.403   5.685   4.536 -0.2478 -0.4497  0.0298
41685SOL    HW136779   4.319   5.673   4.580  0.5244 -1.2951  1.3542
41685SOL    HW236780   4.406   5.616   4.470 -0.7517 -0.1589 -0.3034
41686SOL     OW36781  10.363   5.650   7.434 -0.1368 -0.0500  1.2174
41686SOL    HW136782  10.439   5.595   7.452  0.1104 -0.0997  0.1382
41686SOL    HW236783  10.327   5.613   7.353 -1.4111 -0.1298  1.8076
41687SOL     OW36784   1.281   6.049   5.908 -0.1036  0.7835  0.0991
41687SOL    HW136785   1.205   5.995   5.886 -1.1990  1.0273  2.8802
41687SOL    HW236786   1.350   6.020   5.848 -1.3909 -1.9087 -0.2019
41688SOL     OW36787   5.851   0.376   2.234  0.5058  0.2691  0.3628
41688SOL    HW136788   5.772   0.393   2.285  0.3952 -0.1017  0.3173
41688SOL    HW236789   5.874   0.286   2.255  1.0709  0.4640  0.5843
41689SOL     OW36790   4.043   8.970  11.805 -0.0108  0.2047  0.7692
41689SOL    HW136791   4.022   9.012  11.722  1.9035 -1.1640 -0.4834
41689SOL    HW236792   4.138   8.960  11.804  0.0996  0.3553  3.2522
41690SOL     OW36793   8.357   0.214   0.130 -0.1274  0.3855  0.2605
41690SOL    HW136794   8.340   0.207   0.036  1.7097 -3.1505 -0.0172
41690SOL    HW236795   8.276   0.186   0.172 -0.0558 -0.9497 -0.4362
41691SOL     OW36796  11.035  10.837   6.356  0.0841  0.2922 -0.1225
41691SOL    HW136797  10.953  10.820   6.308 -0.0544  0.4665  0.0483
41691SOL    HW236798  11.008  10.840   6.448  0.2014  0.8531 -0.1061
41692SOL     OW36799   1.133   9.903   8.469 -0.9278 -0.6309 -0.6839
41692SOL    HW136800   1.199   9.971   8.457  1.1090 -2.2105  0.9332
41692SOL    HW236801   1.158   9.833   8.409 -1.7645 -0.8263 -0.8198
41693SOL     OW36802   6.181  11.062  11.498  0.1564  0.1246 -0.2745
41693SOL    HW136803   6.251  11.076  11.435  0.7276 -1.3394 -0.0120
41693SOL    HW236804   6.133  10.986  11.464 -0.6823  0.4742  0.0898
41694SOL     OW36805   5.891   6.572   3.765 -0.2407 -0.0480 -0.0087
41694SOL    HW136806   5.976   6.540   3.735  0.2380  1.8737 -0.8576
41694SOL    HW236807   5.902   6.586   3.859  0.5308  0.6033 -0.1924
41695SOL     OW36808   8.375   7.898   0.769 -0.3591 -0.1247 -0.1739
41695SOL    HW136809   8.314   7.866   0.836  0.4797  0.0239  0.6789
41695SOL    HW236810   8.425   7.821   0.743 -0.9459 -0.2619 -0.9316
41696SOL     OW36811  11.645   0.536   3.631 -0.1898  0.0541 -0.0999
41696SOL    HW136812  11.676   0.459   3.584 -0.2456  0.6337 -1.1185
41696SOL    HW236813  11.550   0.536   3.616  0.0804  1.7608 -2.4447
41697SOL     OW36814   8.511   5.405   4.678 -0.1165 -0.0027  0.2905
41697SOL    HW136815   8.417   5.423   4.678 -0.2801 -0.8448 -0.0409
41697SOL    HW236816   8.519   5.316   4.646  0.7231 -0.3796  1.4897
41698SOL     OW36817   0.098   1.429   1.469 -0.1497 -0.4896 -0.0759
41698SOL    HW136818   0.060   1.447   1.555 -2.1152 -2.4047 -0.4680
41698SOL    HW236819   0.025   1.434   1.409  0.9460 -0.5175 -1.4518
41699SOL     OW36820   0.626   0.399   9.624  0.3363  0.3622  0.0112
41699SOL    HW136821   0.551   0.342   9.639  2.0959 -1.8349  0.9366
41699SOL    HW236822   0.653   0.427   9.711  1.0021  0.5755 -0.2575
41700SOL     OW36823   5.091   3.313   7.319 -0.2835 -0.2709  0.0756
41700SOL    HW136824   5.013   3.353   7.280 -0.0689 -0.3490 -0.4457
41700SOL    HW236825   5.109   3.366   7.396 -0.8183 -0.2184  0.1719
41701SOL     OW36826   8.979   4.605   7.782 -0.6363 -0.8627 -0.3027
41701SOL    HW136827   8.903   4.595   7.725  1.4704 -1.6691 -3.1879
41701SOL    HW236828   9.023   4.520   7.779  0.8530 -0.1619  0.5780
41702SOL     OW36829   0.628   4.442   2.203  0.0743 -0.4122  0.4169
41702SOL    HW136830   0.580   4.525   2.196  0.3535 -0.1772  1.1437
41702SOL    HW236831   0.563   4.380   2.236  0.3657  0.0170  1.8549
41703SOL     OW36832   5.068   7.262   6.069  0.3677  0.0395  0.4134
41703SOL    HW136833   5.074   7.237   6.161  0.2721 -0.6018  0.2457
41703SOL    HW236834   5.133   7.208   6.024 -1.6985 -1.9866 -0.3684
41704SOL     OW36835   2.051   7.601   6.598 -0.1926 -0.7727 -0.5958
41704SOL    HW136836   2.118   7.570   6.659 -0.7943  0.2901  0.6478
41704SOL    HW236837   2.067   7.695   6.592 -1.1564 -0.6193 -0.8069
41705SOL     OW36838   9.132   5.873  10.293 -0.2315  0.1784  0.1664
41705SOL    HW136839   9.039   5.857  10.307 -0.2454  1.1795  1.4430
41705SOL    HW236840   9.147   5.850  10.201 -0.9992 -3.1724  0.7643
41706SOL     OW36841   5.923   1.560   2.904 -0.1931  0.1829  0.2294
41706SOL    HW136842   6.013   1.591   2.903 -0.6026  1.4000 -0.0457
41706SOL    HW236843   5.887   1.595   2.985 -0.8169  0.8921 -0.3452
41707SOL     OW36844   8.281   6.557   3.554  0.2985  0.2078  0.8326
41707SOL    HW136845   8.218   6.526   3.489  0.0347  0.8552  0.7788
41707SOL    HW236846   8.241   6.534   3.638 -0.0463  0.6833  0.8004
41708SOL     OW36847   4.905   9.982   9.765  0.2606 -0.3522 -0.1251
41708SOL    HW136848   4.970  10.052   9.770 -0.7013  0.4981  1.0051
41708SOL    HW236849   4.821  10.027   9.771 -0.4423 -1.4612 -1.2350
41709SOL     OW36850   6.356   2.148  11.839 -0.1451 -0.4086  0.1825
41709SOL    HW136851   6.443   2.179  11.866 -1.1087  1.0309  1.8453
41709SOL    HW236852   6.371   2.059  11.808  2.1658  0.3469 -1.1233
41710SOL     OW36853   5.909   5.766  10.399  0.6784 -0.2387  0.6519
41710SOL    HW136854   5.939   5.857  10.409  0.6332 -0.3613  2.0789
41710SOL    HW236855   5.854   5.768  10.321  1.2251  0.8173  0.2693
41711SOL     OW36856   4.990   6.486  10.628 -0.3305 -0.2149 -0.3034
41711SOL    HW136857   5.073   6.453  10.663 -0.2213  0.0712 -0.2947
41711SOL    HW236858   5.012   6.569  10.586 -0.3317 -0.9043 -1.7217
41712SOL     OW36859   8.381   9.353  10.365  0.5693 -0.6296  0.1276
41712SOL    HW136860   8.301   9.383  10.322  0.7819  0.5028  0.5122
41712SOL    HW236861   8.443   9.336  10.294  0.0908 -1.2527 -0.1519
41713SOL     OW36862   3.061   4.620   7.894  0.2118 -0.0762  0.4617
41713SOL    HW136863   3.099   4.700   7.931 -0.6283  0.5041  0.1050
41713SOL    HW236864   3.032   4.570   7.971 -1.9526  1.3364  0.6608
41714SOL     OW36865   1.048   1.214   8.787 -0.1491 -0.0827 -0.5016
41714SOL    HW136866   1.106   1.270   8.735 -0.6404 -1.9260 -3.2865
41714SOL    HW236867   0.966   1.264   8.791 -0.0361  0.2086 -1.3746
41715SOL     OW36868  11.739  10.948  11.070 -0.6009  0.1951 -0.5606
41715SOL    HW136869  11.772  10.896  11.143 -1.1889  0.1890 -0.3009
41715SOL    HW236870  11.723  11.035  11.107  0.4780  0.6069 -1.0158
41716SOL     OW36871  11.092   5.887   9.378 -0.1037 -0.1463  0.0732
41716SOL    HW136872  11.059   5.966   9.334 -2.2263  0.6295  2.7739
41716SOL    HW236873  11.145   5.920   9.450 -2.2457 -0.9972  2.1752
41717SOL     OW36874   9.962   4.954   5.749  0.2588  0.1258 -0.5469
41717SOL    HW136875   9.915   4.959   5.832  0.3105  0.0422 -0.5122
41717SOL    HW236876   9.893   4.955   5.682  0.0676 -1.8832 -0.4502
41718SOL     OW36877  10.100   9.347   5.697 -0.1511  0.1110  0.4348
41718SOL    HW136878  10.021   9.314   5.655 -0.4799  0.8681  0.4374
41718SOL    HW236879  10.156   9.270   5.706 -0.5500 -0.2862 -0.3133
41719SOL     OW36880   2.095   1.346   2.676  0.5526  0.3963  0.2757
41719SOL    HW136881   2.055   1.424   2.715 -1.9960 -1.1626  1.0088
41719SOL    HW236882   2.101   1.367   2.582  0.0987  1.5462  0.4920
41720SOL     OW36883   1.289   3.899   5.513 -0.3036  1.0933 -0.5242
41720SOL    HW136884   1.242   3.846   5.449 -0.3833  0.0909  0.3408
41720SOL    HW236885   1.368   3.849   5.533 -0.2251  1.4450  0.0755
41721SOL     OW36886   1.493   5.522   4.092 -0.0663 -0.1788  0.0299
41721SOL    HW136887   1.534   5.604   4.064 -0.3141 -0.6821 -1.9401
41721SOL    HW236888   1.408   5.521   4.048  0.3119 -1.8913 -0.7720
41722SOL     OW36889   0.402   1.545   6.286  0.0406 -0.0497 -0.4344
41722SOL    HW136890   0.444   1.580   6.365 -0.4517 -1.2742  0.4170
41722SOL    HW236891   0.375   1.622   6.236  1.4949  0.7475 -0.0312
41723SOL     OW36892   6.337   9.943   1.146 -0.3984 -0.5737 -0.6907
41723SOL    HW136893   6.297   9.870   1.100 -2.4183  0.0775 -0.0784
41723SOL    HW236894   6.390   9.903   1.215  0.7716 -1.4796 -2.0482
41724SOL     OW36895   5.544  10.390   3.514 -0.3734 -0.3741  0.4869
41724SOL    HW136896   5.635  10.395   3.486 -0.5332  1.4540  0.2036
41724SOL    HW236897   5.546  10.335   3.593  1.0479  0.1261  0.8259
41725SOL     OW36898   4.656  11.938   2.738 -0.3344  0.5903  0.0769
41725SOL    HW136899   4.635  11.956   2.829 -0.7830  2.2309 -0.3234
41725SOL    HW236900   4.697  12.019   2.706  0.3912 -0.1740 -1.0180
41726SOL     OW36901   0.739   4.112   1.032  0.1473 -0.3770 -0.9002
41726SOL    HW136902   0.654   4.070   1.019  0.1948  0.0620 -2.8804
41726SOL    HW236903   0.803   4.043   1.014  0.2252 -0.3182 -0.8524
41727SOL     OW36904  11.011   6.809   9.879 -0.2340  0.3415  0.2143
41727SOL    HW136905  11.100   6.798   9.845  0.1487 -0.1104  1.3460
41727SOL    HW236906  10.966   6.728   9.856 -0.0111  0.0853  0.6835
41728SOL     OW36907   3.834   9.495   9.505 -0.4676  0.0402  0.2004
41728SOL    HW136908   3.766   9.541   9.553 -0.9103 -0.8527  0.4507
41728SOL    HW236909   3.908   9.491   9.566 -0.7926 -0.4935  0.5678
41729SOL     OW36910   6.262   1.001   5.258  0.2946 -0.0420 -0.1485
41729SOL    HW136911   6.185   0.944   5.264  0.6304 -0.6865 -1.6250
41729SOL    HW236912   6.330   0.954   5.307 -0.3222  0.7504  1.5678
41730SOL     OW36913  10.478   3.494   1.175  0.0624  0.3046  0.3134
41730SOL    HW136914  10.573   3.503   1.184  0.4242 -0.2988 -2.0764
41730SOL    HW236915  10.465   3.401   1.153 -0.7698  0.8836 -1.8640
41731SOL     OW36916   4.471   0.016  11.348 -0.4445  0.0637 -0.6151
41731SOL    HW136917   4.492  -0.023  11.263  0.1290  3.7210 -2.3425
41731SOL    HW236918   4.525  -0.032  11.410  0.1496 -1.8414 -2.4862
41732SOL     OW36919  11.756  10.959   8.983 -0.1334  0.3555  0.2187
41732SOL    HW136920  11.686  10.975   8.919  0.7585 -0.9620 -1.1692
41732SOL    HW236921  11.825  11.022   8.959  0.0484  0.1163  0.1023
41733SOL     OW36922   6.277   7.956   2.891  0.1803  0.4656 -0.4772
41733SOL    HW136923   6.280   8.052   2.889 -1.8871  0.5788 -2.3631
41733SOL    HW236924   6.361   7.929   2.855  0.3975  1.5959 -0.8766
41734SOL     OW36925   3.438   7.687   3.089  0.5594 -0.4801  0.2836
41734SOL    HW136926   3.392   7.729   3.016  1.4094  0.4327  0.2495
41734SOL    HW236927   3.469   7.604   3.054  0.9439 -0.0572 -0.3936
41735SOL     OW36928   5.053   3.669   7.124 -0.3007 -0.5820  0.1117
41735SOL    HW136929   5.010   3.602   7.177  2.9390 -2.8122  0.2256
41735SOL    HW236930   5.068   3.626   7.040 -0.3553  0.9433 -0.7092
41736SOL     OW36931   0.466   0.984   8.985  0.1352  0.0933 -0.1548
41736SOL    HW136932   0.471   0.892   8.958  3.0486 -0.3874  1.5233
41736SOL    HW236933   0.485   1.034   8.906  1.7277 -0.9460 -0.4723
41737SOL     OW36934   5.661   9.945   9.241 -0.0612 -0.3641  0.6580
41737SOL    HW136935   5.647   9.973   9.331  1.5375  2.1739  0.2334
41737SOL    HW236936   5.579   9.965   9.196  0.4052  2.2232  0.7842
41738SOL     OW36937   8.144  10.050   0.224  0.1965 -0.3315  0.3952
41738SOL    HW136938   8.175  10.074   0.136 -2.2938  1.2848 -0.1638
41738SOL    HW236939   8.198  10.102   0.283 -0.5694  1.5315 -0.4560
41739SOL     OW36940   2.407   7.803   2.933  0.7215 -0.6702 -0.2166
41739SOL    HW136941   2.494   7.767   2.950  1.1932 -0.7257 -2.4507
41739SOL    HW236942   2.357   7.729   2.899  0.4016 -0.1929 -0.7997
41740SOL     OW36943   6.875   1.316   3.018 -0.4369 -0.1280  0.7157
41740SOL    HW136944   6.904   1.225   3.009 -1.2118 -0.2230 -1.2907
41740SOL    HW236945   6.781   1.310   3.033 -0.3835  0.3527  1.2874
41741SOL     OW36946   8.680   6.157   5.287  0.3617  0.1762  0.0668
41741SOL    HW136947   8.599   6.202   5.262  0.6044  0.0063 -1.1055
41741SOL    HW236948   8.651   6.071   5.316  0.0189  0.5693  0.9171
41742SOL     OW36949   1.313  11.316   6.954  0.3745  0.3694  0.2350
41742SOL    HW136950   1.362  11.346   7.030  0.2684 -0.3074  0.5805
41742SOL    HW236951   1.327  11.384   6.888  0.8574  0.7313  0.6987
41743SOL     OW36952   2.614   9.530  11.497  0.4000  0.4218 -0.4313
41743SOL    HW136953   2.635   9.581  11.576  2.5266  0.4098 -0.9272
41743SOL    HW236954   2.522   9.548  11.481  0.0110  0.7453  1.8213
41744SOL     OW36955   7.807   6.690   2.541  0.1950  0.0666 -0.1339
41744SOL    HW136956   7.725   6.669   2.497  0.3540  1.3404 -1.1136
41744SOL    HW236957   7.781   6.746   2.615  0.2400  1.6066 -1.2331
41745SOL     OW36958   9.256   9.950   7.724  0.5940  0.5144  0.8633
41745SOL    HW136959   9.267   9.891   7.799 -2.1999  0.1570  1.0919
41745SOL    HW236960   9.229  10.033   7.763 -0.5263  0.4272  0.3093
41746SOL     OW36961   7.594  10.160   9.219  0.1619 -0.4083  0.6844
41746SOL    HW136962   7.502  10.133   9.221  0.3411 -1.0265  2.8980
41746SOL    HW236963   7.593  10.247   9.180 -1.0130 -1.4657 -1.8673
41747SOL     OW36964   3.550   3.644   2.663 -0.1207 -0.2224 -0.2282
41747SOL    HW136965   3.604   3.695   2.723  1.0319 -0.1208 -1.3220
41747SOL    HW236966   3.589   3.557   2.663 -1.0573 -0.6662  0.3243
41748SOL     OW36967   7.143   1.780   2.900  0.3848 -0.0306  0.1409
41748SOL    HW136968   7.237   1.768   2.886  0.6898 -0.5972  2.2556
41748SOL    HW236969   7.104   1.697   2.873  0.5124  0.1133 -0.5006
41749SOL     OW36970   8.051   7.602   7.711 -0.2200  0.0203  0.1139
41749SOL    HW136971   8.132   7.552   7.707  0.8156  1.6316  0.0412
41749SOL    HW236972   7.983   7.541   7.681  1.1634 -0.9368 -1.1982
41750SOL     OW36973   1.170   1.896   9.180  0.4963  0.1707  0.3631
41750SOL    HW136974   1.136   1.815   9.141  0.0347  0.6219 -0.1873
41750SOL    HW236975   1.095   1.954   9.184  1.1129  1.0557 -0.5251
41751SOL     OW36976   2.478   6.592   0.112 -0.1742  0.0054 -0.0433
41751SOL    HW136977   2.498   6.535   0.185  0.6017  0.7944  0.3754
41751SOL    HW236978   2.425   6.662   0.149 -1.0379 -0.3713 -0.5324
41752SOL     OW36979   1.201   7.214   8.150 -0.2583 -0.1714  0.3941
41752SOL    HW136980   1.163   7.276   8.212 -0.7419  0.4321 -0.4733
41752SOL    HW236981   1.284   7.254   8.123 -0.8991  0.4884 -0.7021
41753SOL     OW36982   6.808   2.718   8.631  0.2094 -0.1939  0.1332
41753SOL    HW136983   6.780   2.694   8.543 -1.1089  0.1119  0.4403
41753SOL    HW236984   6.726   2.737   8.678  0.8019 -1.2988  1.7071
41754SOL     OW36985  10.924   3.758   0.402  0.4063  0.5489 -0.3041
41754SOL    HW136986  11.004   3.753   0.349  0.1257  0.1963 -0.7035
41754SOL    HW236987  10.931   3.684   0.462  0.0442  0.0874 -0.8231
41755SOL     OW36988  11.108  11.100   4.207 -0.4871  0.3518  0.0617
41755SOL    HW136989  11.189  11.108   4.257  0.3267  1.4939 -1.3532
41755SOL    HW236990  11.085  11.007   4.214  0.5633  0.1450  1.0596
41756SOL     OW36991  10.115   3.542   9.240 -0.3492  0.1117 -0.1653
41756SOL    HW136992  10.178   3.482   9.281 -2.3608 -0.8668  1.7240
41756SOL    HW236993  10.053   3.484   9.195 -0.2913  1.0087 -1.4423
41757SOL     OW36994   8.246  11.066  10.116  0.0274 -0.0304  0.6182
41757SOL    HW136995   8.321  11.122  10.098 -0.0544 -0.7489 -2.6059
41757SOL    HW236996   8.175  11.126  10.135  0.2234  1.0140 -1.6220
41758SOL     OW36997   5.478   7.496   8.789  0.1193  0.3559  0.1005
41758SOL    HW136998   5.390   7.533   8.784  0.4743  1.5177  1.4936
41758SOL    HW236999   5.475   7.439   8.866  0.7575  1.0151  0.6349
41759SOL     OW37000   9.654  10.246   0.847 -0.1695 -0.5956 -0.3452
41759SOL    HW137001   9.705  10.218   0.923 -1.8300  1.3975  1.6579
41759SOL    HW237002   9.710  10.309   0.802  0.5930 -1.3279 -0.4459
41760SOL     OW37003   4.918   5.691   4.199 -0.3477 -0.2929 -0.8558
41760SOL    HW137004   4.925   5.691   4.103 -0.3758 -3.3401 -0.9810
41760SOL    HW237005   5.008   5.696   4.230 -0.3337  0.6244 -1.0183
41761SOL     OW37006   0.613   0.695   2.666  0.0002 -0.0649  0.1148
41761SOL    HW137007   0.537   0.752   2.679 -0.2953 -0.4021 -0.1273
41761SOL    HW237008   0.649   0.722   2.581  0.9795  1.0410  0.8540
41762SOL     OW37009   7.609   9.954   6.748 -0.0810 -0.2374 -1.1884
41762SOL    HW137010   7.540   9.888   6.757  0.4054 -0.4416  2.8980
41762SOL    HW237011   7.572  10.034   6.786  1.1563  0.2743 -0.9987
41763SOL     OW37012   8.795   2.058   5.357  0.0950 -0.9478  0.0447
41763SOL    HW137013   8.848   2.041   5.435  1.6950  1.0067 -0.5039
41763SOL    HW237014   8.853   2.037   5.283 -0.3067  0.0346 -0.5812
41764SOL     OW37015   9.940   4.825   4.790  0.2658  0.0923 -0.6144
41764SOL    HW137016   9.984   4.851   4.872 -0.1885 -1.1556  0.0510
41764SOL    HW237017  10.005   4.843   4.722  1.3204 -0.4558  0.2083
41765SOL     OW37018   1.408   4.801   8.341  0.3770  0.3782  0.0064
41765SOL    HW137019   1.319   4.808   8.377 -0.9466  1.9405 -3.1653
41765SOL    HW237020   1.414   4.710   8.312 -0.0255  0.1477  0.6245
41766SOL     OW37021   4.079  10.525   1.964  0.4108  0.3782  0.0159
41766SOL    HW137022   4.144  10.486   2.023 -1.1150 -0.7296  1.0359
41766SOL    HW237023   3.999  10.475   1.980 -0.2580  0.5246 -2.5051
41767SOL     OW37024   4.470   1.323   6.312  0.0911 -0.3217  0.4754
41767SOL    HW137025   4.487   1.245   6.261  3.4288  0.5014  0.1135
41767SOL    HW237026   4.485   1.296   6.403  0.9603 -0.2030  0.3752
41768SOL     OW37027   5.504  10.445   9.132  0.0228  0.3196 -0.5102
41768SOL    HW137028   5.482  10.538   9.131 -0.2825  0.2490 -0.7255
41768SOL    HW237029   5.517  10.423   9.039 -0.5970 -0.0079 -0.5253
41769SOL     OW37030   9.868   2.819  11.132  0.0846  0.0426 -0.3508
41769SOL    HW137031   9.935   2.879  11.165 -2.6477  2.3594  1.4452
41769SOL    HW237032   9.816   2.872  11.072 -1.5502 -0.9627  0.1249
41770SOL     OW37033   4.208   8.177   2.721  0.5156  0.5142 -0.2029
41770SOL    HW137034   4.264   8.155   2.796  0.9204  2.6774  0.2002
41770SOL    HW237035   4.122   8.195   2.760  0.0199 -0.8819 -0.5967
41771SOL     OW37036  11.224   6.734   3.286 -0.4848 -0.5783  0.3118
41771SOL    HW137037  11.228   6.752   3.380  0.9813  0.5945  0.0589
41771SOL    HW237038  11.194   6.817   3.247  1.6198 -0.1206 -0.4572
41772SOL     OW37039   4.540   0.909   6.014  0.1012  0.3173 -0.3003
41772SOL    HW137040   4.539   0.946   6.102 -0.5776  1.4120 -0.7526
41772SOL    HW237041   4.448   0.892   5.993  0.2611 -0.0134 -0.7744
41773SOL     OW37042   7.233  11.122   8.196  0.0591 -0.0624  0.9501
41773SOL    HW137043   7.189  11.196   8.155  1.3104  0.3816  0.3610
41773SOL    HW237044   7.326  11.144   8.193  0.2770 -0.2936  3.4657
41774SOL     OW37045   2.837   5.227   5.974  0.1948 -0.7549 -0.1352
41774SOL    HW137046   2.741   5.230   5.973  0.1938  1.5214 -1.5663
41774SOL    HW237047   2.860   5.245   6.066 -0.7477 -0.7689  0.1164
41775SOL     OW37048  10.492   9.585   7.967 -0.6294 -0.1334 -0.4142
41775SOL    HW137049  10.464   9.495   7.981 -0.1858  0.1662  3.1807
41775SOL    HW237050  10.425   9.638   8.010 -0.2776  1.2348 -1.4703
41776SOL     OW37051  11.114   2.435   6.164  0.0451 -0.1607 -0.5531
41776SOL    HW137052  11.161   2.452   6.246  1.1665 -2.4597 -0.6370
41776SOL    HW237053  11.071   2.518   6.143  2.8750  1.6840  0.3359
41777SOL     OW37054  10.940   8.784   9.127  0.3075  0.1856  0.2268
41777SOL    HW137055  10.864   8.738   9.161  0.2609 -0.3325 -0.5569
41777SOL    HW237056  10.997   8.798   9.203 -0.2632 -0.0154  0.6919
41778SOL     OW37057   6.750   6.327   5.269 -0.0662 -0.1227  0.0753
41778SOL    HW137058   6.768   6.239   5.235 -0.4910  0.0464 -0.6115
41778SOL    HW237059   6.734   6.314   5.362 -1.8568 -1.0417 -0.3163
41779SOL     OW37060   4.654   3.916   9.159  0.1863  1.4683 -0.0691
41779SOL    HW137061   4.672   3.822   9.167 -1.8358  0.8995 -1.1588
41779SOL    HW237062   4.629   3.944   9.247  1.0156  1.0432  0.3055
41780SOL     OW37063   0.318  10.738   7.261 -0.0502  0.4263  0.3757
41780SOL    HW137064   0.330  10.796   7.336  0.3172 -0.7747  1.2840
41780SOL    HW237065   0.372  10.775   7.192 -0.5008  1.6278  0.6475
41781SOL     OW37066   4.517   8.877   7.885  0.2023  0.5894  0.2374
41781SOL    HW137067   4.488   8.880   7.976 -0.8457 -0.4035 -0.0409
41781SOL    HW237068   4.449   8.923   7.836  0.9356  1.4386 -0.0291
41782SOL     OW37069  10.718   7.996  10.694 -0.1831 -0.2054  0.1228
41782SOL    HW137070  10.789   7.983  10.631  1.7313  0.0069  2.1150
41782SOL    HW237071  10.716   8.090  10.709 -0.8597 -0.2178  0.1286
41783SOL     OW37072  10.584   2.692   9.359  0.2646  0.5565 -0.4069
41783SOL    HW137073  10.574   2.748   9.282 -0.6066 -0.0480 -0.7503
41783SOL    HW237074  10.507   2.711   9.413 -0.3601 -0.7205 -0.8152
41784SOL     OW37075   8.403   8.059   1.931 -0.2797 -0.0273  0.1746
41784SOL    HW137076   8.436   8.008   2.005  0.4441 -0.3608 -0.3654
41784SOL    HW237077   8.479   8.070   1.874 -1.4003 -2.2779 -1.9511
41785SOL     OW37078   5.475   1.310   5.940  0.5865 -0.4573  0.1685
41785SOL    HW137079   5.551   1.288   5.994 -0.5354 -2.8450  0.9145
41785SOL    HW237080   5.512   1.334   5.855  2.2086 -0.9554  0.6989
41786SOL     OW37081   0.737   7.703   5.533  0.2293  0.1668 -0.0750
41786SOL    HW137082   0.793   7.781   5.539  0.8072 -0.1953 -0.5624
41786SOL    HW237083   0.748   7.673   5.443 -1.3795  0.5295 -0.4110
41787SOL     OW37084   2.491  10.006   4.869  0.4339  0.0312 -0.1166
41787SOL    HW137085   2.553   9.947   4.828  1.4844  0.8047  0.3063
41787SOL    HW237086   2.406   9.982   4.832  0.4921 -3.0206  1.4815
41788SOL     OW37087  10.719   4.013  11.764 -0.0450 -0.2823 -0.2105
41788SOL    HW137088  10.740   3.933  11.716 -0.7300  0.0891 -1.1572
41788SOL    HW237089  10.765   4.003  11.847 -0.0143 -1.6059 -0.3545
41789SOL     OW37090   2.868   9.234   5.702 -0.1047  0.4406 -0.6896
41789SOL    HW137091   2.953   9.261   5.667  0.2076 -0.2532 -0.4826
41789SOL    HW237092   2.818   9.210   5.624 -0.2491  1.2148 -0.8434
41790SOL     OW37093   0.201  11.382   5.530  0.3447 -0.3749  0.2196
41790SOL    HW137094   0.178  11.418   5.615  0.6198  0.2211  0.0488
41790SOL    HW237095   0.296  11.374   5.531  0.4888  0.9621 -0.5284
41791SOL     OW37096   6.256   2.028  11.420  0.5565  0.2534 -0.3242
41791SOL    HW137097   6.215   2.115  11.413  0.3072  0.3556  1.6494
41791SOL    HW237098   6.336   2.044  11.471  1.2340 -0.4818 -1.1420
41792SOL     OW37099   2.720  11.228  10.576 -0.0528  0.8077 -0.2551
41792SOL    HW137100   2.637  11.223  10.529 -0.0076  1.8447 -0.4677
41792SOL    HW237101   2.705  11.180  10.658 -0.6726  0.4975 -0.5467
41793SOL     OW37102   2.923   5.437  11.370  0.1495  0.5362  0.2954
41793SOL    HW137103   2.869   5.486  11.308 -1.2647  1.5284  2.1922
41793SOL    HW237104   2.903   5.345  11.352 -0.6840  0.8241 -0.3436
41794SOL     OW37105   0.962   5.184   3.371  0.0825 -0.4619 -0.0323
41794SOL    HW137106   1.036   5.123   3.375  1.7006  1.4137  3.0947
41794SOL    HW237107   0.892   5.139   3.418 -0.0254 -1.3228 -0.9745
41795SOL     OW37108  11.140   4.192   9.664 -0.1239 -0.0685  0.1929
41795SOL    HW137109  11.079   4.131   9.705 -2.6623  0.2785 -2.6355
41795SOL    HW237110  11.162   4.151   9.580  1.5630  0.9878  0.0803
41796SOL     OW37111   0.168   2.091  11.185 -0.4597  0.4990  0.0271
41796SOL    HW137112   0.208   2.151  11.247  1.0240  0.5316 -0.9099
41796SOL    HW237113   0.160   2.141  11.104  1.2570 -0.6607 -0.9102
41797SOL     OW37114   7.140   2.768  10.614 -0.7774  0.1753  0.1108
41797SOL    HW137115   7.234   2.755  10.605 -0.7275  1.5627 -2.2761
41797SOL    HW237116   7.107   2.770  10.524 -2.7278  1.9653  0.7763
41798SOL     OW37117   8.439   9.207   6.087 -0.1666 -0.1239  0.3518
41798SOL    HW137118   8.490   9.279   6.125 -0.3414  0.9381 -1.3316
41798SOL    HW237119   8.376   9.184   6.155 -0.3422  1.5726  0.8036
41799SOL     OW37120   9.276  11.904   6.334  0.4804  0.2391  0.1572
41799SOL    HW137121   9.298  11.992   6.304  1.0051  0.2811  0.6590
41799SOL    HW237122   9.180  11.906   6.343 -0.0873 -0.4941 -3.7550
41800SOL     OW37123   0.219   5.490   3.104 -0.4287 -0.0226 -0.1766
41800SOL    HW137124   0.259   5.547   3.038  0.7716 -0.6211  0.0064
41800SOL    HW237125   0.293   5.447   3.146 -1.2802 -1.1411  0.2168
41801SOL     OW37126   8.643   3.284   0.127  0.3794 -0.2671  0.1121
41801SOL    HW137127   8.607   3.195   0.124  2.1871 -0.9944 -2.1164
41801SOL    HW237128   8.736   3.271   0.142  0.9504  1.1280 -1.9349
41802SOL     OW37129   1.827  11.236   1.347 -0.8616 -0.2311 -0.2112
41802SOL    HW137130   1.747  11.257   1.396 -0.7156  1.2960 -0.5703
41802SOL    HW237131   1.895  11.290   1.387 -0.7457  1.1128 -2.0809
41803SOL     OW37132   3.959   2.422   3.344 -0.3180  0.1661 -0.9177
41803SOL    HW137133   3.925   2.505   3.310 -1.1532 -0.0450 -0.6134
41803SOL    HW237134   3.883   2.365   3.349 -0.1133 -0.0188  0.7177
41804SOL     OW37135   7.414   1.923   3.522  0.0033 -0.1313  0.0377
41804SOL    HW137136   7.465   1.946   3.444 -1.2879  0.2512 -0.7238
41804SOL    HW237137   7.468   1.953   3.595  1.0907 -0.1932 -0.7085
41805SOL     OW37138   9.951   8.489   5.495  0.3373  0.1711  0.1113
41805SOL    HW137139  10.045   8.486   5.515  0.7224  1.0809 -1.3925
41805SOL    HW237140   9.942   8.438   5.415 -0.7555 -1.3312  1.1422
41806SOL     OW37141  10.123   1.009   8.118 -0.5488 -0.2431 -0.3954
41806SOL    HW137142  10.076   1.091   8.103  0.4043  0.0420 -2.0157
41806SOL    HW237143  10.057   0.941   8.108 -1.4994  0.3006  1.6240
41807SOL     OW37144   5.652   1.630  11.748  0.4899 -0.3735 -0.1259
41807SOL    HW137145   5.701   1.706  11.715 -0.5807  0.0499 -0.8240
41807SOL    HW237146   5.681   1.558  11.693  1.6379 -0.5265  0.6482
41808SOL     OW37147  11.420   5.792   5.540 -0.0192  0.3531 -0.3094
41808SOL    HW137148  11.411   5.700   5.514 -1.5398  0.7984 -1.5029
41808SOL    HW237149  11.514   5.809   5.533  0.3978 -1.3071  0.7207
41809SOL     OW37150   5.245  11.067   1.623 -0.1422  0.0489  0.8756
41809SOL    HW137151   5.275  10.977   1.610  0.3668  0.2179  0.8416
41809SOL    HW237152   5.235  11.102   1.535  0.2160  0.2000  0.8914
41810SOL     OW37153   4.229  10.661   8.694  0.3421 -0.1894 -0.0668
41810SOL    HW137154   4.212  10.752   8.719  0.5321 -0.4380  1.0463
41810SOL    HW237155   4.194  10.610   8.767  2.1512 -0.9047  0.3605
41811SOL     OW37156  11.351   6.599   6.297 -0.0784  0.2050  0.3981
41811SOL    HW137157  11.442   6.579   6.319 -0.3278  1.4195  2.9355
41811SOL    HW237158  11.349   6.694   6.289 -0.6533  0.0398 -2.4462
41812SOL     OW37159   0.619   9.899   2.907  0.5781 -0.0444 -0.0610
41812SOL    HW137160   0.689   9.957   2.875  0.0444  0.2186 -0.7773
41812SOL    HW237161   0.545   9.958   2.923  0.4022 -0.3731  0.3556
41813SOL     OW37162   0.778   2.640   9.524  0.1668  0.3844  0.4011
41813SOL    HW137163   0.705   2.701   9.506 -0.3273 -0.3821 -0.2409
41813SOL    HW237164   0.856   2.688   9.495 -0.4224 -0.1606 -2.4352
41814SOL     OW37165   3.198   4.805  11.269 -0.1951  0.1727 -0.2179
41814SOL    HW137166   3.206   4.789  11.363 -0.4409 -0.0831 -0.2369
41814SOL    HW237167   3.248   4.734  11.228 -2.1634 -1.2520 -0.3274
41815SOL     OW37168   8.371   3.983   2.652 -0.0236  0.1763 -0.0608
41815SOL    HW137169   8.426   3.926   2.598 -1.0500 -0.5211 -0.3867
41815SOL    HW237170   8.392   3.958   2.742  1.2207  0.9003 -0.1261
41816SOL     OW37171   2.394  10.747  11.461 -0.1226 -0.1372 -0.1754
41816SOL    HW137172   2.338  10.764  11.385 -1.9705 -3.7884  0.1493
41816SOL    HW237173   2.334  10.744  11.535  1.0692 -0.4910  0.8094
41817SOL     OW37174  10.794   5.751   9.158  0.4134  0.1357 -0.4438
41817SOL    HW137175  10.822   5.842   9.173  1.4608 -0.2045 -0.2744
41817SOL    HW237176  10.869   5.710   9.116  0.3522 -0.9382  0.4583
41818SOL     OW37177   5.844   8.943   4.834 -0.1461  0.1068 -0.0717
41818SOL    HW137178   5.877   8.855   4.815 -1.8430 -0.7057  0.5196
41818SOL    HW237179   5.914   8.985   4.882  0.3081 -1.3182  0.5819
41819SOL     OW37180   7.442  10.682   0.585  0.1145 -0.1356 -0.3608
41819SOL    HW137181   7.531  10.648   0.597  0.2629 -0.2647 -1.7010
41819SOL    HW237182   7.386  10.605   0.581  0.1128 -0.1180 -0.7622
41820SOL     OW37183   0.202   4.073  10.614  0.2967 -0.1948 -0.2666
41820SOL    HW137184   0.200   4.084  10.709  1.9418 -0.0408 -0.2192
41820SOL    HW237185   0.212   4.162  10.580 -1.2061 -0.1522 -0.6492
41821SOL     OW37186   3.727   5.254   8.882  0.2410  0.8196 -0.3211
41821SOL    HW137187   3.648   5.298   8.913  0.2234  0.6858 -0.1696
41821SOL    HW237188   3.789   5.325   8.866 -0.7987  1.2133 -3.2102
41822SOL     OW37189   9.662   0.042   8.128  0.6365  0.3927 -0.3368
41822SOL    HW137190   9.661   0.072   8.218  2.6892  0.4075 -0.2698
41822SOL    HW237191   9.585   0.082   8.088  0.4424  1.4803  1.0548
41823SOL     OW37192   5.237   7.928   1.034  0.3677 -0.6636 -0.3567
41823SOL    HW137193   5.326   7.895   1.039  0.9562  0.7790 -0.8612
41823SOL    HW237194   5.236   8.006   1.089 -0.6781 -0.8594 -0.0715
41824SOL     OW37195   5.898   5.534   8.812  0.1076  0.4886 -0.3823
41824SOL    HW137196   5.938   5.538   8.899 -2.5134  1.0462  0.8937
41824SOL    HW237197   5.843   5.456   8.815  0.8970 -0.1746 -2.0244
41825SOL     OW37198   1.394   5.194   6.534 -0.0059 -0.4560 -0.1674
41825SOL    HW137199   1.347   5.263   6.582  2.4999  1.8423 -0.7547
41825SOL    HW237200   1.325   5.143   6.492 -2.0334  1.2306  0.9164
41826SOL     OW37201  10.697   1.428   8.106  0.1927  0.4767 -0.4970
41826SOL    HW137202  10.729   1.352   8.057  0.3181  0.4453 -0.3651
41826SOL    HW237203  10.744   1.425   8.189 -0.0766  0.4890 -0.3422
41827SOL     OW37204  10.762   8.855   3.950  0.2460  0.2807 -0.3678
41827SOL    HW137205  10.764   8.876   3.857  0.4761 -0.3875 -0.5198
41827SOL    HW237206  10.735   8.937   3.993  0.0686  0.5699 -1.0217
41828SOL     OW37207  10.592   2.133   9.372  0.4825  0.1327 -0.7278
41828SOL    HW137208  10.578   2.039   9.386  0.0240  0.3573  0.4352
41828SOL    HW237209  10.654   2.158   9.440  0.1064  0.7971 -0.6197
41829SOL     OW37210   8.251   7.289   0.595 -0.4951 -0.1758 -0.0007
41829SOL    HW137211   8.293   7.352   0.536 -0.7649 -0.8964 -0.9969
41829SOL    HW237212   8.279   7.315   0.682  1.5326 -0.2664 -0.5882
41830SOL     OW37213  10.704   4.088   0.976  0.2486 -0.0118  0.2208
41830SOL    HW137214  10.798   4.103   0.977  0.3047 -0.3929  0.5791
41830SOL    HW237215  10.691   4.006   1.022  0.0278 -1.5499 -2.3723
41831SOL     OW37216   7.222   7.319   7.765  0.1347  0.3761 -0.1088
41831SOL    HW137217   7.154   7.252   7.779  0.1644  0.2419 -0.5822
41831SOL    HW237218   7.226   7.329   7.670  0.6272  0.5442 -0.0723
41832SOL     OW37219   3.191   6.549   9.895  0.2033  0.0600 -0.1198
41832SOL    HW137220   3.172   6.455   9.901  0.2130  0.0470 -0.2862
41832SOL    HW237221   3.107   6.588   9.870 -0.8543  0.5512  3.5509
41833SOL     OW37222  11.713   1.279   0.323  0.0834 -0.0863  0.7517
41833SOL    HW137223  11.627   1.245   0.348 -0.4370  1.0371  0.5235
41833SOL    HW237224  11.700   1.373   0.315  1.0981 -0.0205 -0.2827
41834SOL     OW37225  11.838   4.712   1.574 -0.0553  0.1682 -0.5545
41834SOL    HW137226  11.856   4.632   1.524 -2.2179 -0.0536 -1.0803
41834SOL    HW237227  11.784   4.683   1.647  1.8126  0.7233  1.1681
41835SOL     OW37228   8.314  10.949   5.975 -0.5998  0.0381  0.0618
41835SOL    HW137229   8.317  10.944   6.071 -0.0877  1.9885  0.2003
41835SOL    HW237230   8.371  11.023   5.953 -2.1634  0.8524 -1.5912
41836SOL     OW37231   9.975  11.216   9.573 -0.6449 -0.0360 -0.4137
41836SOL    HW137232  10.049  11.275   9.589 -0.2603 -0.7892  0.6800
41836SOL    HW237233   9.899  11.263   9.609  0.0082 -1.1366  2.7412
41837SOL     OW37234   0.719   6.954   3.754  0.2085 -0.0040  0.4579
41837SOL    HW137235   0.743   6.885   3.816  0.3690 -1.1897 -0.8844
41837SOL    HW237236   0.624   6.951   3.751  0.2311 -0.4435  0.1059
41838SOL     OW37237   9.387   1.430   6.452 -0.3003 -0.1912 -0.5194
41838SOL    HW137238   9.400   1.430   6.547  0.1343 -0.6813 -0.5732
41838SOL    HW237239   9.372   1.522   6.430 -2.0822 -0.2675  0.2329
41839SOL     OW37240   7.263   9.982   6.966  0.6859 -0.5678 -0.4062
41839SOL    HW137241   7.239   9.906   6.913 -0.7003  0.7620 -1.8101
41839SOL    HW237242   7.313   9.946   7.039  1.8432 -2.6051 -2.0881
41840SOL     OW37243   8.912   3.392  11.613  0.0518 -0.0340  0.0569
41840SOL    HW137244   8.931   3.390  11.707 -0.6432  0.3884  0.2111
41840SOL    HW237245   8.856   3.469  11.601 -1.7756 -1.3310 -0.3157
41841SOL     OW37246   9.227   1.687   4.045 -0.2638 -0.3075 -0.4080
41841SOL    HW137247   9.267   1.731   4.120 -2.7488  0.4634  0.5876
41841SOL    HW237248   9.262   1.732   3.969  0.1852  0.8243  0.4435
41842SOL     OW37249  10.343   3.714   6.543 -0.0116  0.4140 -0.8131
41842SOL    HW137250  10.277   3.691   6.479 -0.0148  1.9890 -1.4258
41842SOL    HW237251  10.295   3.757   6.614  0.2957  1.2591 -1.1034
41843SOL     OW37252   6.017   9.971   7.227 -0.3230  0.1016 -0.2491
41843SOL    HW137253   6.001   9.966   7.322  0.2261 -0.4738 -0.1797
41843SOL    HW237254   5.930   9.965   7.188 -0.4530 -0.9979  0.1804
41844SOL     OW37255   8.672   0.594   7.960  0.7591 -0.1802 -0.0054
41844SOL    HW137256   8.741   0.549   8.009  0.1912  0.0180  1.0178
41844SOL    HW237257   8.633   0.526   7.905  0.9457 -0.5854  0.3597
41845SOL     OW37258   2.770   0.690   3.573 -0.1967 -0.1166  0.2288
41845SOL    HW137259   2.676   0.675   3.568  0.1808 -2.7840 -0.3792
41845SOL    HW237260   2.792   0.680   3.665 -0.2445 -1.8006  0.0886
41846SOL     OW37261   6.670   1.777  11.617 -0.0422  0.0444  0.0435
41846SOL    HW137262   6.678   1.737  11.531  0.2238  0.8804 -0.3249
41846SOL    HW237263   6.708   1.864  11.608 -0.9937  0.5565  0.7176
41847SOL     OW37264   3.707   3.783  11.825  0.2515  0.2812  0.3646
41847SOL    HW137265   3.769   3.809  11.894 -0.5060  1.5555  0.5970
41847SOL    HW237266   3.643   3.727  11.870  0.6061 -0.1323  0.3600
41848SOL     OW37267   9.225   0.837  10.203  0.0410  0.0192 -0.6014
41848SOL    HW137268   9.229   0.931  10.186  0.6368  0.1588  0.2837
41848SOL    HW237269   9.217   0.798  10.116 -3.3960  0.9894 -0.9068
41849SOL     OW37270   0.470   5.377   7.400  0.5282 -0.1619 -0.0111
41849SOL    HW137271   0.510   5.418   7.476  0.5467  0.0742 -0.1495
41849SOL    HW237272   0.451   5.287   7.429  2.4396 -0.7328 -0.3706
41850SOL     OW37273   8.171   0.308   7.092 -0.2740  0.2089 -0.2892
41850SOL    HW137274   8.091   0.359   7.108 -0.6873 -0.0909 -1.3050
41850SOL    HW237275   8.147   0.219   7.116  0.6029  0.5228  1.9671
41851SOL     OW37276   6.061   1.186   6.012  0.6071 -0.3323  0.3563
41851SOL    HW137277   6.016   1.267   6.032  0.3378 -0.4409  0.1921
41851SOL    HW237278   6.152   1.212   5.995  0.2797  0.0731 -0.8163
41852SOL     OW37279   9.118   5.396   8.498 -0.1623 -0.0380 -0.7356
41852SOL    HW137280   9.108   5.480   8.453  2.0084  0.4376 -0.4307
41852SOL    HW237281   9.212   5.377   8.493 -0.5949 -2.4433 -0.7561
41853SOL     OW37282   2.219   9.153   1.145 -0.6756 -0.1579 -0.2096
41853SOL    HW137283   2.177   9.239   1.149 -0.6629 -0.1795  0.4429
41853SOL    HW237284   2.244   9.143   1.053 -0.8865  0.4349 -0.3350
41854SOL     OW37285   8.897   9.051   0.464 -0.0453 -0.9042  0.2198
41854SOL    HW137286   8.926   9.067   0.374  0.8811 -0.6355  0.5543
41854SOL    HW237287   8.825   8.988   0.455  0.8080 -1.8060 -0.6329
41855SOL     OW37288   9.139  11.348   3.903 -0.3437  0.0635 -0.4562
41855SOL    HW137289   9.226  11.320   3.874 -0.6633 -1.5073 -0.0092
41855SOL    HW237290   9.155  11.396   3.984 -0.0405 -3.1052  1.5407
41856SOL     OW37291   8.892   5.171   5.039 -0.0365 -0.0591  0.3438
41856SOL    HW137292   8.962   5.130   4.988  0.5655  0.8591  0.4028
41856SOL    HW237293   8.917   5.156   5.130  0.8840  1.5155  0.3853
41857SOL     OW37294   3.378   8.893  11.272 -0.1218  0.4432 -0.1942
41857SOL    HW137295   3.446   8.934  11.327 -0.0342 -0.7319  0.6129
41857SOL    HW237296   3.331   8.967  11.234 -0.0434  1.3080  1.2966
41858SOL     OW37297   4.158   3.281   3.761 -0.1701  0.0277 -0.1913
41858SOL    HW137298   4.070   3.247   3.743 -0.3629  0.0140  0.7210
41858SOL    HW237299   4.142   3.366   3.804  0.2953  1.2019 -2.1972
41859SOL     OW37300   3.797   2.256   2.282 -0.7339 -0.1818  0.0364
41859SOL    HW137301   3.703   2.242   2.274 -0.3043 -2.7235 -1.6450
41859SOL    HW237302   3.823   2.295   2.199 -0.2034  0.0625  0.3099
41860SOL     OW37303  11.066   1.824  11.270 -0.1380  0.1032 -0.1601
41860SOL    HW137304  11.089   1.903  11.220  0.1206  1.2028  1.6188
41860SOL    HW237305  11.147   1.773  11.273 -0.9218 -1.6109 -3.5398
41861SOL     OW37306   1.796   7.329   3.787  0.1568 -0.1546 -0.6972
41861SOL    HW137307   1.871   7.274   3.763 -0.5401 -0.8852 -1.2824
41861SOL    HW237308   1.767   7.294   3.871  0.9600  0.6681 -0.0568
41862SOL     OW37309   4.855   4.673   1.282  0.5865  0.0629  0.1133
41862SOL    HW137310   4.780   4.691   1.226 -0.7250 -0.0135  1.8036
41862SOL    HW237311   4.914   4.747   1.267 -0.4574  0.8608 -0.1501
41863SOL     OW37312   1.703  10.382   8.088 -0.3756  0.0735 -0.1969
41863SOL    HW137313   1.665  10.395   8.001 -0.5265  1.2359  0.0232
41863SOL    HW237314   1.634  10.339   8.138  0.1594 -1.7710 -0.9800
41864SOL     OW37315   9.692   3.150   7.360  0.5888  0.7730 -0.2633
41864SOL    HW137316   9.629   3.216   7.390 -0.2503 -1.5314  3.9141
41864SOL    HW237317   9.639   3.084   7.315  0.8809  1.2428 -1.3205
41865SOL     OW37318  11.522   4.056   0.366  0.0395 -0.3445  0.2079
41865SOL    HW137319  11.557   4.101   0.290  1.3185 -0.3667  0.7501
41865SOL    HW237320  11.428   4.068   0.360  0.0545 -0.8685 -1.6935
41866SOL     OW37321  11.919   0.111   0.120  0.0030  0.0489  0.1617
41866SOL    HW137322  11.971   0.072   0.049  1.8517 -0.9940  1.9791
41866SOL    HW237323  11.982   0.164   0.169 -0.9297 -0.2042  1.6998
41867SOL     OW37324   1.840   4.945  11.618 -0.4851  0.0688  0.6650
41867SOL    HW137325   1.829   4.851  11.631  1.0161 -0.2179  0.0809
41867SOL    HW237326   1.818   4.959  11.526 -1.2302  0.3986  0.8840
41868SOL     OW37327   8.429   2.446   3.900 -0.0802  0.2341  0.2939
41868SOL    HW137328   8.406   2.508   3.832  0.1426  0.7061  0.6428
41868SOL    HW237329   8.379   2.367   3.879  0.0079  0.3637 -0.4245
41869SOL     OW37330   1.881   2.571   7.575 -0.0132  0.6833  0.6826
41869SOL    HW137331   1.848   2.538   7.491 -0.0703  0.4538  0.7931
41869SOL    HW237332   1.807   2.562   7.635 -0.0714  1.1443  0.6818
41870SOL     OW37333  11.023   4.101  10.003 -0.3030 -0.0595 -0.4613
41870SOL    HW137334  11.118   4.090  10.003 -0.3538 -0.6101  0.6699
41870SOL    HW237335  11.006   4.166  10.071 -0.7801 -0.4486 -0.1996
41871SOL     OW37336   8.023   4.719   5.701  0.1027  0.0511 -0.0391
41871SOL    HW137337   8.028   4.653   5.771  1.7312  0.1935  0.0141
41871SOL    HW237338   8.063   4.797   5.739 -1.1624  0.8654 -0.3452
41872SOL     OW37339   6.127   4.434   7.106  0.0021 -0.5612  0.6321
41872SOL    HW137340   6.192   4.450   7.175 -1.8744  2.2608  1.9496
41872SOL    HW237341   6.153   4.492   7.035 -1.0926  0.7921  1.2728
41873SOL     OW37342   3.341   7.162   3.183  0.4768  0.1503  0.5990
41873SOL    HW137343   3.400   7.211   3.240  0.9439  0.2425  0.0485
41873SOL    HW237344   3.360   7.070   3.202  0.4947  0.1802  0.7261
41874SOL     OW37345  11.469   2.433   6.028 -0.2894  0.0382 -0.1273
41874SOL    HW137346  11.475   2.522   6.063 -1.5820  0.1863 -0.2271
41874SOL    HW237347  11.560   2.403   6.021  0.0935  0.5824  1.8620
41875SOL     OW37348   9.526   5.409   4.669  0.5948  0.4632 -0.3079
41875SOL    HW137349   9.594   5.391   4.605  0.0370 -1.8243 -0.3280
41875SOL    HW237350   9.508   5.325   4.710 -0.5910  1.4573  1.3442
41876SOL     OW37351   6.105  10.483  11.051  0.1884  0.0298 -0.1560
41876SOL    HW137352   6.112  10.535  11.131  2.7068  0.0360 -0.2799
41876SOL    HW237353   6.118  10.392  11.080 -0.5020 -0.1451 -0.3785
41877SOL     OW37354   9.939   8.899   6.753 -0.2663  0.2413 -0.3718
41877SOL    HW137355   9.922   8.815   6.709  0.4686 -0.3753  0.4676
41877SOL    HW237356   9.862   8.913   6.808  0.1809 -0.5770  0.4930
41878SOL     OW37357   2.370   4.992   8.181  0.1303 -0.0762  0.1847
41878SOL    HW137358   2.373   5.061   8.115 -0.6377 -0.3589 -0.1454
41878SOL    HW237359   2.310   5.026   8.248  0.0778 -0.2479  0.2248
41879SOL     OW37360   7.383   4.377   0.419  0.0728 -0.7752  0.1216
41879SOL    HW137361   7.360   4.369   0.326  1.7041 -2.6493 -0.1652
41879SOL    HW237362   7.464   4.427   0.419  0.5878 -1.5957  0.4496
41880SOL     OW37363   4.974   8.878   3.224  0.4624 -0.7434  0.3888
41880SOL    HW137364   4.920   8.947   3.263  0.2589 -0.6617 -0.0298
41880SOL    HW237365   5.022   8.841   3.298 -1.4546 -1.9798  1.0811
41881SOL     OW37366   4.737   6.470   1.245 -0.1941 -0.0438 -0.0029
41881SOL    HW137367   4.648   6.505   1.255  0.2452  1.4817 -1.0678
41881SOL    HW237368   4.754   6.424   1.327 -1.8534 -0.1256  0.3321
41882SOL     OW37369   3.211   3.902  11.894  0.3991  0.6367 -0.1018
41882SOL    HW137370   3.279   3.924  11.957  0.3100  1.4911 -0.2973
41882SOL    HW237371   3.179   3.816  11.922 -1.5443  2.1188  2.7056
41883SOL     OW37372   9.199  10.539   7.897 -0.6394 -0.1604  0.3036
41883SOL    HW137373   9.224  10.449   7.875 -1.3003 -0.4844  0.8425
41883SOL    HW237374   9.282  10.584   7.915 -0.3748 -0.9760  1.1800
41884SOL     OW37375   2.594   2.443   9.466  0.3901 -0.7059 -0.2385
41884SOL    HW137376   2.586   2.414   9.375 -1.3680 -2.1854  0.3253
41884SOL    HW237377   2.644   2.373   9.509  1.3761  0.0730 -0.0751
41885SOL     OW37378   5.970   5.905   3.970 -0.4563  0.2399 -0.3890
41885SOL    HW137379   5.972   5.982   4.027 -1.1173  1.2373 -1.6724
41885SOL    HW237380   6.060   5.899   3.937 -0.1524 -0.1487  0.4741
41886SOL     OW37381   3.754   8.536   8.706  0.3394 -0.2908  0.0441
41886SOL    HW137382   3.675   8.492   8.675  0.5466  0.8884 -2.3032
41886SOL    HW237383   3.726   8.582   8.785 -1.4668  0.4729 -0.9853
41887SOL     OW37384   7.255  11.778   9.718  0.1596  0.6325 -1.1242
41887SOL    HW137385   7.335  11.831   9.730 -0.2324  0.8504  0.7388
41887SOL    HW237386   7.241  11.736   9.802 -1.2116 -0.1132 -1.7002
41888SOL     OW37387   7.969   5.845   2.637  0.3712  0.3491  0.1436
41888SOL    HW137388   7.962   5.898   2.557 -0.5669 -3.7731 -2.8734
41888SOL    HW237389   7.884   5.855   2.680 -0.5169 -0.1670 -1.4302
41889SOL     OW37390   9.296   3.739   8.112 -0.2817 -0.7048  0.5595
41889SOL    HW137391   9.311   3.731   8.206  0.5745 -1.9929  0.3317
41889SOL    HW237392   9.203   3.719   8.102 -0.5115 -0.0069  1.1787
41890SOL     OW37393   7.242   4.467   5.780  0.0902  0.6892 -0.9715
41890SOL    HW137394   7.255   4.388   5.727 -0.3372  0.5971 -0.9444
41890SOL    HW237395   7.176   4.517   5.731  0.5277  1.1418 -1.1080
41891SOL     OW37396  11.849   1.522   6.503 -0.1745  0.5059 -0.2804
41891SOL    HW137397  11.806   1.467   6.569 -1.7315  0.4014 -1.3323
41891SOL    HW237398  11.940   1.491   6.502 -0.4682 -0.4621  0.7934
41892SOL     OW37399   9.860   7.187   7.744  0.0693 -0.2984 -0.1420
41892SOL    HW137400   9.877   7.265   7.690 -0.7824  0.8191  1.1500
41892SOL    HW237401   9.775   7.204   7.784  0.5929 -1.1882  1.4067
41893SOL     OW37402   3.720   9.574  11.144  0.2414 -0.7317  0.4486
41893SOL    HW137403   3.710   9.606  11.054  2.4711 -0.2066  0.3297
41893SOL    HW237404   3.701   9.480  11.137 -1.3508 -0.4135 -0.1802
41894SOL     OW37405   7.887   8.636   6.955 -0.3802 -0.3175  0.0965
41894SOL    HW137406   7.916   8.669   6.870 -0.4449  0.2652  0.3002
41894SOL    HW237407   7.897   8.541   6.948 -2.3321 -0.4801 -1.3267
41895SOL     OW37408   3.800   8.118  11.161 -0.6755  0.3605  0.1654
41895SOL    HW137409   3.895   8.107  11.152 -0.7016 -1.4758  1.5367
41895SOL    HW237410   3.778   8.188  11.099  1.2285 -0.7299 -1.8834
41896SOL     OW37411  10.354   2.355   7.144 -0.2668 -0.0167  0.0164
41896SOL    HW137412  10.406   2.435   7.151 -0.2747  0.0537 -0.6716
41896SOL    HW237413  10.366   2.311   7.228  2.7333 -1.1068 -0.8318
41897SOL     OW37414   1.479   7.888   7.035 -0.0196  0.3507 -0.1394
41897SOL    HW137415   1.385   7.905   7.027 -0.7014 -3.1650 -1.5610
41897SOL    HW237416   1.508   7.870   6.946  1.4716 -0.7688  0.5105
41898SOL     OW37417   3.706   8.977   1.891  0.4466  0.7135  0.0312
41898SOL    HW137418   3.755   8.896   1.904 -0.0554  0.7504  2.6706
41898SOL    HW237419   3.615   8.952   1.900  0.1720  1.2629 -1.1249
41899SOL     OW37420   0.496   1.201   8.800  0.2489 -0.5220  0.6841
41899SOL    HW137421   0.478   1.295   8.790  0.5199 -0.2915  2.2242
41899SOL    HW237422   0.501   1.169   8.710 -0.5339  0.8019  0.1319
41900SOL     OW37423   2.398   7.177   2.289 -0.0343  0.4420 -0.4357
41900SOL    HW137424   2.361   7.145   2.371 -0.8762  0.8688 -0.6422
41900SOL    HW237425   2.340   7.141   2.222  1.1120 -0.5794 -0.9141
41901SOL     OW37426   6.831   3.007  11.074  0.0302  0.1739  0.8611
41901SOL    HW137427   6.894   3.015  11.146  1.8673  1.8819 -0.8080
41901SOL    HW237428   6.876   2.951  11.009 -1.6830 -1.5318  1.0580
41902SOL     OW37429   2.140   2.734   4.268 -0.0109 -0.3888  0.1281
41902SOL    HW137430   2.200   2.774   4.205  0.4706  0.9771  1.4051
41902SOL    HW237431   2.053   2.768   4.243 -0.1261 -1.3974 -0.9571
41903SOL     OW37432   9.075   0.246   7.065 -0.2451 -0.2098  0.1323
41903SOL    HW137433   9.155   0.221   7.019 -0.0615  0.5479  0.0270
41903SOL    HW237434   9.101   0.321   7.119 -0.8713  0.0204  0.1183
41904SOL     OW37435   4.677   4.050   9.920  0.8034 -0.3082 -0.0050
41904SOL    HW137436   4.675   4.096   9.836 -0.9199 -1.6001 -0.7444
41904SOL    HW237437   4.595   4.001   9.922  1.0283 -0.6955  2.2390
41905SOL     OW37438   3.296   0.687  11.593 -0.4397  0.1400 -0.0969
41905SOL    HW137439   3.294   0.646  11.680  1.0905 -0.9116 -0.5143
41905SOL    HW237440   3.385   0.721  11.585 -1.1296  1.9579 -0.5314
41906SOL     OW37441   2.085   1.975   3.315 -0.2651  0.2679 -0.4078
41906SOL    HW137442   2.090   1.884   3.285 -0.5395  0.3430 -0.6918
41906SOL    HW237443   2.076   1.969   3.410 -2.3283 -0.0866 -0.5713
41907SOL     OW37444   2.991   5.768   4.798 -0.0738 -0.8071  0.4571
41907SOL    HW137445   2.926   5.832   4.768  0.6626  0.2585  1.0709
41907SOL    HW237446   3.025   5.729   4.718 -0.2757 -0.1686  0.0533
41908SOL     OW37447   4.257   7.208  10.387  0.4034 -0.0179 -0.2561
41908SOL    HW137448   4.281   7.152  10.461  1.1159  1.2398  0.4989
41908SOL    HW237449   4.186   7.264  10.421  0.6835  0.5158 -0.5355
41909SOL     OW37450   1.255   5.457   5.308 -0.3564  0.1598  0.4651
41909SOL    HW137451   1.268   5.541   5.263  0.6017 -1.8366 -3.4910
41909SOL    HW237452   1.342   5.433   5.340 -0.5657  0.4751  1.2989
41910SOL     OW37453   3.175   9.829   4.261 -0.4115 -0.1502 -0.2730
41910SOL    HW137454   3.195   9.833   4.355  0.0719 -0.4131 -0.3610
41910SOL    HW237455   3.252   9.788   4.222 -0.2457  0.7223 -0.8939
41911SOL     OW37456   0.838   1.981   5.637 -0.0369  0.7121 -0.1917
41911SOL    HW137457   0.771   1.916   5.614 -0.3805  1.5508 -1.6374
41911SOL    HW237458   0.921   1.938   5.614 -0.2850  0.9120 -1.5030
41912SOL     OW37459   6.052   1.509   6.055 -0.7246  0.7831  0.9059
41912SOL    HW137460   6.134   1.475   6.020  0.1440  1.4098  2.2605
41912SOL    HW237461   6.076   1.591   6.098 -2.0179  0.8753  1.5078
41913SOL     OW37462   3.581   6.680   9.379 -0.8166  0.5052  0.9247
41913SOL    HW137463   3.659   6.629   9.355 -1.1062 -0.6938  2.3535
41913SOL    HW237464   3.605   6.722   9.462 -0.8177  2.2554  0.0944
41914SOL     OW37465   2.780   1.035   7.945 -0.0773  0.4621  0.4416
41914SOL    HW137466   2.859   1.081   7.972 -0.9028  0.4784  3.0558
41914SOL    HW237467   2.783   0.952   7.992 -0.5807 -0.4940 -1.1307
41915SOL     OW37468   9.057   3.581   4.799  0.6940  0.7284  0.1787
41915SOL    HW137469   9.006   3.645   4.749  0.5060  0.3503 -0.1210
41915SOL    HW237470   9.017   3.581   4.886 -0.0329  0.1966 -0.1500
41916SOL     OW37471   4.971  11.531   0.862 -0.4883 -0.2564  0.1699
41916SOL    HW137472   5.058  11.572   0.860  0.1037 -1.4608 -1.6770
41916SOL    HW237473   4.937  11.550   0.949  1.4663  0.5696  0.8046
41917SOL     OW37474   2.357   7.223   8.292 -0.5683 -0.0790  0.3056
41917SOL    HW137475   2.302   7.292   8.329 -0.3466 -0.9664  2.4479
41917SOL    HW237476   2.300   7.147   8.285  0.1269 -0.8070  1.8846
41918SOL     OW37477  10.469   1.932   2.131 -0.6140 -0.0105 -0.3931
41918SOL    HW137478  10.414   1.982   2.192 -0.9699 -0.2675 -0.5026
41918SOL    HW237479  10.461   1.979   2.048  1.2813  1.3958  0.1463
41919SOL     OW37480  10.837   1.954   7.207  0.2881  0.2716  0.2387
41919SOL    HW137481  10.813   1.873   7.161  0.3036  0.2910  0.1961
41919SOL    HW237482  10.770   1.963   7.276 -0.6413  1.0415 -0.7212
41920SOL     OW37483   8.088   2.952   2.158 -0.2141 -0.0603 -0.0927
41920SOL    HW137484   8.080   2.924   2.067 -1.3860 -0.1920  0.0399
41920SOL    HW237485   7.998   2.960   2.190  0.1324  1.3931  0.6324
41921SOL     OW37486   8.432   7.054   7.141 -0.0299  0.2092  0.1867
41921SOL    HW137487   8.460   7.057   7.232 -0.1595 -0.7255  0.2679
41921SOL    HW237488   8.388   6.969   7.132  1.0497 -0.2568 -1.0422
41922SOL     OW37489   8.943   8.635  10.574 -0.3771 -0.3663 -0.1135
41922SOL    HW137490   8.915   8.706  10.516  0.9465 -0.1818 -0.5572
41922SOL    HW237491   9.038   8.629  10.560  0.2938  0.6884  3.1251
41923SOL     OW37492   4.502   1.638   3.484  0.0654 -0.0424 -0.5863
41923SOL    HW137493   4.519   1.625   3.390  1.2304 -0.4428 -0.3443
41923SOL    HW237494   4.536   1.559   3.525 -1.4396 -0.3590  0.0921
41924SOL     OW37495   7.605   2.372   6.750 -0.0673  0.1424 -0.1137
41924SOL    HW137496   7.531   2.363   6.689  1.5687 -1.5918 -1.9859
41924SOL    HW237497   7.573   2.432   6.817 -3.2880 -0.7485 -0.6566
41925SOL     OW37498   3.420   8.924   3.356 -0.0411  0.2154  0.3156
41925SOL    HW137499   3.497   8.904   3.302 -0.1945  1.0324 -0.2136
41925SOL    HW237500   3.365   8.846   3.347 -0.4084  0.6257 -1.3260
41926SOL     OW37501   7.495  11.828   7.258 -0.0690  0.2568 -0.0776
41926SOL    HW137502   7.456  11.884   7.191  0.4384  0.4526 -0.2142
41926SOL    HW237503   7.425  11.812   7.321 -0.2261  1.0168 -0.0560
41927SOL     OW37504   1.419   3.394  10.033 -0.1900 -0.5624  0.1653
41927SOL    HW137505   1.428   3.454   9.959 -1.8637  2.1145  1.9662
41927SOL    HW237506   1.506   3.393  10.073  0.1324 -0.1616 -0.5079
41928SOL     OW37507   6.063   1.906  10.663 -0.2712  0.2994  0.4879
41928SOL    HW137508   6.111   1.926  10.583  0.7826  0.0297  1.0357
41928SOL    HW237509   5.999   1.977  10.672 -0.9090 -0.0508 -0.9655
41929SOL     OW37510  11.300   4.885  11.269 -0.4093 -0.2190  0.1009
41929SOL    HW137511  11.244   4.809  11.284  1.9595 -2.2458 -0.6749
41929SOL    HW237512  11.288   4.907  11.177 -1.0194  0.3234  0.3008
41930SOL     OW37513   6.465   9.691   0.846 -0.1660  0.1595 -0.0108
41930SOL    HW137514   6.525   9.625   0.813  0.4647  0.3737  0.6983
41930SOL    HW237515   6.521   9.757   0.887 -0.8379  0.7233  0.0289
41931SOL     OW37516  10.383   3.151  10.759 -0.2316 -0.0224  0.4859
41931SOL    HW137517  10.421   3.214  10.698 -0.7278  0.4610  0.6709
41931SOL    HW237518  10.312   3.109  10.710 -2.0726  1.9056  1.3815
41932SOL     OW37519   0.800   7.130  10.491 -0.0852  0.6093  0.1800
41932SOL    HW137520   0.883   7.178  10.487 -1.3366  3.0265  1.3657
41932SOL    HW237521   0.751   7.159  10.414 -0.1611 -0.2151 -0.0930
41933SOL     OW37522   5.896   3.879   4.353 -0.3751 -0.2675  0.4850
41933SOL    HW137523   5.804   3.905   4.355 -0.3316  0.0848 -0.8970
41933SOL    HW237524   5.898   3.794   4.396 -1.6433 -1.0610 -0.9101
41934SOL     OW37525   2.858   3.003  10.544  0.3147 -0.1556  0.4722
41934SOL    HW137526   2.857   2.931  10.482 -1.2814  0.6922 -0.5670
41934SOL    HW237527   2.768   3.006  10.578  0.5620  0.8434  1.0819
41935SOL     OW37528   0.508   6.789   3.586 -0.0449 -0.4718  0.1874
41935SOL    HW137529   0.481   6.770   3.496 -0.4325 -0.7267  0.3571
41935SOL    HW237530   0.602   6.771   3.586 -0.0921 -0.7305 -0.0958
41936SOL     OW37531   9.054   0.526  10.164 -0.1335 -0.9508 -0.3281
41936SOL    HW137532   9.061   0.513  10.258  1.5955 -1.3238 -0.4742
41936SOL    HW237533   9.013   0.612  10.154  0.4635 -0.5206  0.7901
41937SOL     OW37534   8.234   8.228   2.191 -0.6442 -0.6987 -0.7630
41937SOL    HW137535   8.265   8.152   2.240 -0.7520 -0.4767 -0.3455
41937SOL    HW237536   8.276   8.303   2.233 -0.3490 -0.5405 -1.3217
41938SOL     OW37537   2.087  11.312   4.717  0.5510  0.1464 -0.2507
41938SOL    HW137538   2.148  11.256   4.766 -1.3591  0.2909  2.4855
41938SOL    HW237539   2.025  11.251   4.677  1.1685  0.1282 -1.2302
41939SOL     OW37540  10.021   9.898   0.072  0.4776 -0.2435 -0.0564
41939SOL    HW137541  10.013   9.914  -0.022  0.8247 -0.2300 -0.0826
41939SOL    HW237542  10.080   9.967   0.103 -0.7756  0.6688  0.4236
41940SOL     OW37543  11.589   5.058   8.079 -0.4060  0.0377  0.1322
41940SOL    HW137544  11.547   5.140   8.050 -0.2274  1.7648  4.1518
41940SOL    HW237545  11.682   5.080   8.083 -0.2159 -0.7666  0.1595
41941SOL     OW37546   0.444   0.493   4.166 -0.3858  0.1257 -0.0465
41941SOL    HW137547   0.511   0.559   4.184 -0.3349 -0.5862  2.8207
41941SOL    HW237548   0.483   0.437   4.099  0.7685  1.2621 -0.3657
41942SOL     OW37549   6.676   9.448   4.089  0.2761 -0.1792  0.0702
41942SOL    HW137550   6.686   9.528   4.141  0.0254 -1.0010  1.4385
41942SOL    HW237551   6.584   9.423   4.101  0.8516 -1.8472  1.4946
41943SOL     OW37552   1.887   9.223   1.341 -0.1232  0.6584 -0.1022
41943SOL    HW137553   1.806   9.192   1.381 -0.5405  0.2673 -1.2125
41943SOL    HW237554   1.952   9.157   1.366 -0.2919  0.6013  0.2030
41944SOL     OW37555  10.966   5.343   3.489  0.4125  0.2038 -0.3748
41944SOL    HW137556  10.940   5.334   3.397 -2.1164 -0.2294  0.3165
41944SOL    HW237557  11.032   5.275   3.501  0.1713 -0.3075 -1.6672
41945SOL     OW37558   4.514   1.374   0.890  0.3023 -0.1301 -0.2205
41945SOL    HW137559   4.456   1.324   0.831  0.0883  1.4868 -1.4714
41945SOL    HW237560   4.602   1.355   0.859  0.2774 -0.3775 -0.1443
41946SOL     OW37561   9.135   1.308   0.406 -0.0701 -0.2345 -0.1186
41946SOL    HW137562   9.214   1.342   0.447 -0.6380 -2.2478  2.9234
41946SOL    HW237563   9.065   1.330   0.467 -1.6138 -0.1510 -1.8436
41947SOL     OW37564   9.321   8.084   3.949  0.1325 -0.0837  0.1863
41947SOL    HW137565   9.316   8.005   3.894  2.5876  0.1457 -0.4989
41947SOL    HW237566   9.296   8.155   3.890 -0.9405 -0.2022  0.4772
41948SOL     OW37567   4.033   2.275   2.469 -0.1731  0.2785 -0.1881
41948SOL    HW137568   4.077   2.347   2.425  1.6849 -1.4939 -1.4220
41948SOL    HW237569   3.958   2.255   2.414  0.0354  0.4527 -0.5399
41949SOL     OW37570   9.800   6.361   4.126  0.3273  0.2879 -0.2186
41949SOL    HW137571   9.885   6.391   4.096  0.8550  0.9203  1.7637
41949SOL    HW237572   9.788   6.276   4.085 -0.0216  1.9483 -3.8895
41950SOL     OW37573   3.656   1.415   9.257  0.2507  0.0489 -0.8914
41950SOL    HW137574   3.729   1.477   9.257  1.2058 -0.9303 -3.4769
41950SOL    HW237575   3.692   1.336   9.297 -0.5099  0.6136  1.0099
41951SOL     OW37576   5.991   5.657   8.568  0.6197 -0.2138 -0.2749
41951SOL    HW137577   5.978   5.569   8.534 -0.1262  0.0905 -0.7895
41951SOL    HW237578   5.948   5.656   8.654 -0.0779 -0.1243 -0.6196
41952SOL     OW37579   1.208  11.427   9.373  0.2295 -0.2086 -0.1278
41952SOL    HW137580   1.276  11.362   9.355  2.4970  1.5641  1.2949
41952SOL    HW237581   1.252  11.511   9.358 -1.3268  1.0538  1.8197
41953SOL     OW37582   0.698   4.236   8.339 -0.0017 -0.4609 -0.3728
41953SOL    HW137583   0.626   4.219   8.399 -1.3016  1.0074 -1.4396
41953SOL    HW237584   0.776   4.239   8.395 -1.1888  1.0227  1.3117
41954SOL     OW37585   7.117   5.634   7.499  0.0030 -0.4294 -0.3349
41954SOL    HW137586   7.178   5.669   7.434 -0.6833  0.9634 -0.2651
41954SOL    HW237587   7.049   5.591   7.447  0.0997 -0.4024 -0.4842
41955SOL     OW37588  11.187   3.967   6.530 -0.8154 -0.6702 -0.0157
41955SOL    HW137589  11.174   3.996   6.620 -1.2711  2.5448 -0.9762
41955SOL    HW237590  11.282   3.963   6.520 -0.7334 -0.0025  0.3663
41956SOL     OW37591   5.993  11.939   7.398 -0.7196  0.7090 -0.0214
41956SOL    HW137592   5.954  11.935   7.485 -0.2446  1.9838  0.2600
41956SOL    HW237593   6.047  11.860   7.393 -0.2525  0.9489  1.0788
41957SOL     OW37594   6.197   0.066   2.953 -0.3024  0.6383  0.0956
41957SOL    HW137595   6.105   0.087   2.936 -0.5869 -0.5849 -0.0194
41957SOL    HW237596   6.203  -0.028   2.935  0.9107  0.6485  0.3827
41958SOL     OW37597   8.768   2.630  11.030  0.4892 -0.4563  0.4432
41958SOL    HW137598   8.765   2.539  10.999 -0.1544  0.5090 -2.6333
41958SOL    HW237599   8.686   2.669  11.000  0.6670  1.1436  1.8589
41959SOL     OW37600   4.702   0.737   3.269 -0.1906 -0.1518 -0.1746
41959SOL    HW137601   4.725   0.742   3.362  0.5317 -0.5078 -0.3266
41959SOL    HW237602   4.625   0.681   3.266  0.1933 -0.6980  0.1441
41960SOL     OW37603  10.046   4.065   5.820  0.2378 -0.5013 -0.0280
41960SOL    HW137604   9.960   4.084   5.857 -0.6218 -1.2408 -1.5455
41960SOL    HW237605  10.067   3.978   5.853  1.3587  0.4529  1.9440
41961SOL     OW37606   8.646   4.587   5.498  0.4579 -0.0655 -0.3027
41961SOL    HW137607   8.569   4.636   5.526  0.0451 -1.2610  0.7541
41961SOL    HW237608   8.625   4.496   5.517  1.1547 -0.7032 -2.3355
41962SOL     OW37609   2.366   9.985   8.548  0.2776 -0.3121 -0.2498
41962SOL    HW137610   2.298  10.010   8.486 -0.3024  0.2744  0.5997
41962SOL    HW237611   2.429  10.057   8.544  1.0529 -1.0320 -1.3093
41963SOL     OW37612   0.158   6.382   4.226 -0.8594 -0.1713 -0.5540
41963SOL    HW137613   0.238   6.434   4.219 -1.8408  1.5462  0.2583
41963SOL    HW237614   0.180   6.298   4.185  0.9958  0.6452 -1.3565
41964SOL     OW37615   5.990   7.948   7.045  0.8742 -0.1420  0.5299
41964SOL    HW137616   6.081   7.920   7.042  0.4551 -1.5359 -1.1267
41964SOL    HW237617   5.993   8.043   7.050  2.4498 -0.0829 -0.8553
41965SOL     OW37618   2.975   6.246  10.422  0.3344  0.1112 -0.0455
41965SOL    HW137619   3.029   6.179  10.464 -0.0286  0.2091  0.5857
41965SOL    HW237620   2.896   6.199  10.395 -0.2744  0.4317  1.1174
41966SOL     OW37621   7.044   0.797   4.027 -0.1477  0.2603 -0.8636
41966SOL    HW137622   7.127   0.768   3.988  0.2223  0.0617  0.0391
41966SOL    HW237623   7.010   0.862   3.965  1.2868  1.2658 -0.6595
41967SOL     OW37624   0.768   2.453   9.305 -0.0099 -0.2475 -0.5321
41967SOL    HW137625   0.763   2.545   9.331  2.1719 -0.4076  0.6903
41967SOL    HW237626   0.833   2.450   9.236 -0.4144 -0.8271 -0.9024
41968SOL     OW37627   4.063   4.012   2.647  0.0163 -0.4537  0.7005
41968SOL    HW137628   4.101   3.967   2.723 -0.9834 -1.3047  0.7275
41968SOL    HW237629   4.060   3.945   2.578 -1.2559 -0.3916  0.6598
41969SOL     OW37630   0.229   2.898   8.919  0.2940  0.4153 -0.6025
41969SOL    HW137631   0.286   2.828   8.888  0.7558  0.7619 -0.5401
41969SOL    HW237632   0.145   2.854   8.938  0.7197 -0.2076 -0.1155
41970SOL     OW37633   9.310   7.074  11.947 -0.1782 -0.2626  0.0354
41970SOL    HW137634   9.291   6.993  11.994  3.0833 -1.2596 -0.1204
41970SOL    HW237635   9.397   7.060  11.909 -0.7355  2.2164 -2.5109
41971SOL     OW37636   0.728   2.708   7.590  0.4369 -0.1646 -0.0493
41971SOL    HW137637   0.759   2.788   7.548 -1.0680  1.3062  1.4468
41971SOL    HW237638   0.780   2.638   7.551  2.4814  1.6280 -0.7450
41972SOL     OW37639  11.133   0.975   1.850  0.2091  0.0580  0.0769
41972SOL    HW137640  11.127   1.003   1.941  0.6100  0.8148 -0.1150
41972SOL    HW237641  11.050   1.002   1.811  0.3161  0.3642  0.0576
41973SOL     OW37642   3.116   8.364   1.955  0.3667 -0.2419 -0.1392
41973SOL    HW137643   3.049   8.316   1.907  0.6995  1.6507 -2.6970
41973SOL    HW237644   3.194   8.308   1.949 -0.4573 -1.6142  1.2962
41974SOL     OW37645   5.971   9.535   7.511 -0.8545 -0.2641 -0.0137
41974SOL    HW137646   5.937   9.449   7.535  2.1621 -1.4965  0.2819
41974SOL    HW237647   5.969   9.536   7.415 -1.8170 -0.2395  0.0002
41975SOL     OW37648   4.331   9.726   4.537  0.0322  0.8819 -0.0042
41975SOL    HW137649   4.399   9.791   4.517 -1.1300  2.4292  0.8947
41975SOL    HW237650   4.250   9.776   4.539 -1.0345 -0.7756 -0.1268
41976SOL     OW37651   2.227   6.440   0.563 -0.1412  0.7563  0.0706
41976SOL    HW137652   2.253   6.443   0.471 -0.1847 -0.6200 -0.0051
41976SOL    HW237653   2.133   6.426   0.561 -0.0026 -0.2867  0.3051
41977SOL     OW37654  11.016   2.014   6.256  0.0296 -0.2599  0.0638
41977SOL    HW137655  10.954   1.974   6.317 -0.4110  0.4606  0.0990
41977SOL    HW237656  11.054   2.087   6.303 -0.1833  0.1945 -0.4541
41978SOL     OW37657   5.745   0.713  11.147 -0.2581  0.0187  0.1214
41978SOL    HW137658   5.701   0.760  11.076  1.1091  1.4474  0.1586
41978SOL    HW237659   5.790   0.641  11.103 -0.5066  0.0956 -0.2664
41979SOL     OW37660   5.330   7.450  11.064  0.5991  0.4432  0.2474
41979SOL    HW137661   5.310   7.365  11.102 -0.3561 -0.0812 -1.3421
41979SOL    HW237662   5.299   7.444  10.973 -2.2544  3.4438  0.8367
41980SOL     OW37663   3.791   0.490   2.690 -0.2886  0.4121  0.0095
41980SOL    HW137664   3.812   0.527   2.604  0.5620  0.6001  0.2855
41980SOL    HW237665   3.872   0.446   2.718 -1.1089 -1.2310 -0.0758
41981SOL     OW37666   4.300   7.369   2.752 -0.1226 -0.3146 -0.2782
41981SOL    HW137667   4.337   7.294   2.799 -2.2624 -1.5599 -0.4530
41981SOL    HW237668   4.234   7.404   2.811 -0.7652 -0.0280 -1.1456
41982SOL     OW37669   1.221   2.283  10.346  0.0011 -0.0721 -0.1715
41982SOL    HW137670   1.237   2.253  10.256 -1.5639 -1.2319 -0.0933
41982SOL    HW237671   1.126   2.279  10.356  0.1324  0.2999  1.4596
41983SOL     OW37672   5.701   8.012   5.401 -0.0144 -0.6424 -0.5513
41983SOL    HW137673   5.771   7.972   5.452  0.4950 -0.0051 -0.7558
41983SOL    HW237674   5.683   8.095   5.444  1.5673  0.6906 -2.3505
41984SOL     OW37675  11.000   1.554   0.515 -0.4909 -0.1233 -0.2293
41984SOL    HW137676  11.043   1.604   0.584 -1.8271 -0.4854  0.9156
41984SOL    HW237677  10.982   1.469   0.555  0.8273 -1.2288 -1.8124
41985SOL     OW37678   9.729   4.868  11.456 -0.1938 -0.8454 -0.8719
41985SOL    HW137679   9.727   4.864  11.360  0.3904  0.6350 -0.9684
41985SOL    HW237680   9.680   4.947  11.478  1.3963 -0.0490 -0.0724
41986SOL     OW37681   0.830   8.550  10.332 -0.2878  0.2203  0.0464
41986SOL    HW137682   0.913   8.598  10.340 -0.0097 -0.4781  1.6554
41986SOL    HW237683   0.855   8.458  10.336 -0.8757 -0.1136 -2.4661
41987SOL     OW37684   6.971   1.570   8.044 -0.0071  0.2284  0.1076
41987SOL    HW137685   6.957   1.664   8.056  0.5255  0.5358 -1.4374
41987SOL    HW237686   6.890   1.530   8.075 -1.0479  1.3654 -1.0211
41988SOL     OW37687   7.320   6.476   1.443 -0.5809  0.0479  1.0267
41988SOL    HW137688   7.403   6.431   1.458 -1.2130 -1.6632 -0.1623
41988SOL    HW237689   7.322   6.498   1.350 -1.8484 -0.9712  0.7235
41989SOL     OW37690   2.610   1.655   0.041 -0.2359 -0.4036  0.3730
41989SOL    HW137691   2.585   1.570   0.004 -0.6005 -0.6890  1.2468
41989SOL    HW237692   2.698   1.641   0.075 -0.2288 -0.3868  0.3614
41990SOL     OW37693   5.825  11.358   6.657  0.4555  0.1132  0.2102
41990SOL    HW137694   5.878  11.293   6.704 -1.3228 -0.9408  0.8431
41990SOL    HW237695   5.745  11.311   6.633 -0.0982  1.5854 -0.9428
41991SOL     OW37696  11.390   1.163   6.528  0.3510 -0.0846 -0.1815
41991SOL    HW137697  11.446   1.211   6.590  0.1704  0.3635 -0.3610
41991SOL    HW237698  11.354   1.231   6.472  0.1383 -0.4440 -0.4797
41992SOL     OW37699   7.294   5.935  10.868 -0.1366  1.0629 -0.1459
41992SOL    HW137700   7.237   5.892  10.932 -0.1775  3.0559  1.2391
41992SOL    HW237701   7.314   6.020  10.906  3.5364  0.6182 -0.7059
41993SOL     OW37702   0.270   2.862   2.864  0.3504 -0.2087  0.0863
41993SOL    HW137703   0.277   2.957   2.879  0.1998 -0.3277  0.9869
41993SOL    HW237704   0.351   2.840   2.817  1.5081  0.0157  1.8638
41994SOL     OW37705   8.769   2.039  10.974 -0.3768  0.0288  0.1484
41994SOL    HW137706   8.712   2.041  10.897  0.5341 -2.7487 -0.7355
41994SOL    HW237707   8.720   1.986  11.037 -0.1910  0.4601  0.6515
41995SOL     OW37708   5.865   9.306   7.689  0.1925  0.1621 -0.4535
41995SOL    HW137709   5.908   9.287   7.772 -1.2972  0.1463  0.3416
41995SOL    HW237710   5.776   9.332   7.713  0.9114  4.6074 -1.6488
41996SOL     OW37711   6.415   8.613   3.730  0.1982 -0.2442  0.0768
41996SOL    HW137712   6.401   8.625   3.824  1.5389 -0.5975  0.3493
41996SOL    HW237713   6.379   8.691   3.690 -0.1754  0.0224  0.9152
41997SOL     OW37714  11.393   9.726   6.264  0.3324 -0.0572 -0.1640
41997SOL    HW137715  11.420   9.797   6.323 -0.2210 -0.1087  0.1618
41997SOL    HW237716  11.426   9.646   6.306 -0.7592 -0.1736  0.5208
41998SOL     OW37717   7.436   4.331  10.408 -0.1341 -0.1012  0.3360
41998SOL    HW137718   7.493   4.403  10.381 -1.2321  0.8826  0.5314
41998SOL    HW237719   7.484   4.252  10.384  2.0419  0.6280  1.9686
41999SOL     OW37720   0.929   2.674   9.232 -0.4690  0.2087  0.3895
41999SOL    HW137721   0.860   2.738   9.218  0.5526  0.8793 -2.2103
41999SOL    HW237722   1.006   2.711   9.188 -0.2461 -3.4286 -2.8394
42000SOL     OW37723   0.955   7.413   5.704  0.0558  0.8256 -0.0085
42000SOL    HW137724   0.986   7.323   5.695  0.1156  1.0317 -2.5028
42000SOL    HW237725   1.018   7.454   5.763  0.4846 -0.5532  0.5306
42001SOL     OW37726  11.807   5.936   5.916 -0.7899 -0.1285  0.2952
42001SOL    HW137727  11.812   5.862   5.856  1.2970 -0.5357  0.8947
42001SOL    HW237728  11.713   5.946   5.935 -1.3456 -0.9880 -1.7432
42002SOL     OW37729  10.012   8.815  10.890 -0.0250  0.2262  0.6071
42002SOL    HW137730   9.957   8.849  10.819 -0.9977  1.5979  1.9433
42002SOL    HW237731   9.950   8.799  10.962  0.9489 -0.9711  1.2188
42003SOL     OW37732   2.447   6.966   5.132  0.2076  0.5469  0.0101
42003SOL    HW137733   2.436   7.061   5.141  3.2760  0.9767  0.1016
42003SOL    HW237734   2.467   6.953   5.039 -1.6521 -0.2552 -0.3231
42004SOL     OW37735   9.490   6.663   3.421 -0.1259  0.7030  0.1560
42004SOL    HW137736   9.524   6.745   3.385  0.8759  0.4086  0.4003
42004SOL    HW237737   9.504   6.599   3.351 -1.4928  0.8500 -0.2804
42005SOL     OW37738   0.680  11.528   8.286 -0.1803 -0.4051  0.3062
42005SOL    HW137739   0.657  11.441   8.254 -0.6548 -1.2769  2.8418
42005SOL    HW237740   0.629  11.539   8.366 -0.3527  2.3463 -0.0829
42006SOL     OW37741   1.696  11.894   6.663  0.1545 -0.0925  0.4612
42006SOL    HW137742   1.697  11.977   6.615 -2.5221 -0.0619  0.2752
42006SOL    HW237743   1.602  11.875   6.675  0.7098 -2.3212  1.8401
42007SOL     OW37744  10.484  10.746   1.843  0.4571 -0.5821 -0.4498
42007SOL    HW137745  10.450  10.822   1.795  1.9458 -0.1548 -0.8816
42007SOL    HW237746  10.544  10.783   1.908 -0.2442 -1.2774  0.6254
42008SOL     OW37747   3.021   6.198   1.861 -0.5227  0.1965  0.1548
42008SOL    HW137748   3.082   6.264   1.832 -0.9798  0.3113 -0.5587
42008SOL    HW237749   2.955   6.246   1.912 -0.5098  0.1985  0.1697
42009SOL     OW37750   4.905   8.379   4.712  0.2447 -0.3113  0.1264
42009SOL    HW137751   4.823   8.407   4.671  0.3999 -0.2346 -0.1320
42009SOL    HW237752   4.898   8.410   4.802  0.1613  0.0415 -0.0004
42010SOL     OW37753  10.991   5.010   1.618  0.7180 -0.2153  0.1472
42010SOL    HW137754  11.007   4.977   1.706  0.8364 -1.0871 -0.1917
42010SOL    HW237755  10.918   4.957   1.585 -1.1600  1.9096  0.6832
42011SOL     OW37756   0.183   8.392   9.799 -0.2516 -0.2308 -0.3535
42011SOL    HW137757   0.266   8.387   9.751 -1.5713  4.0557 -3.7538
42011SOL    HW237758   0.188   8.474   9.848 -2.3152 -0.0391 -0.3736
42012SOL     OW37759   0.235   8.714   5.967 -0.4901  0.1418 -0.3247
42012SOL    HW137760   0.298   8.724   5.896  1.4168 -0.8877  1.0975
42012SOL    HW237761   0.224   8.803   6.002  0.1248  0.3465 -0.6389
42013SOL     OW37762   8.981  11.259   2.637 -0.2697  0.2391  0.2548
42013SOL    HW137763   8.995  11.354   2.638  1.8047  0.0138 -1.2232
42013SOL    HW237764   9.024  11.227   2.716  2.2742  0.2265 -1.0494
42014SOL     OW37765   9.419   8.967   3.591  0.1799  0.1254 -0.2022
42014SOL    HW137766   9.432   8.875   3.567  0.8792  0.2281 -0.2310
42014SOL    HW237767   9.494   9.013   3.554  0.8660  0.4141  1.4363
42015SOL     OW37768   7.963   1.233   9.976 -0.2135 -0.5710  0.2366
42015SOL    HW137769   7.899   1.232  10.047  0.2235 -1.0091  0.6328
42015SOL    HW237770   7.916   1.269   9.901 -0.7313 -0.2808  0.6998
42016SOL     OW37771   6.989  11.545   1.014  0.3320 -0.5668 -0.3913
42016SOL    HW137772   7.008  11.468   1.068 -0.1103  0.2971  1.0572
42016SOL    HW237773   6.905  11.577   1.047  0.8420  0.9363 -0.4772
42017SOL     OW37774   1.299   0.612  11.242 -0.2546 -0.1839 -0.1572
42017SOL    HW137775   1.307   0.556  11.319  1.6873  1.9091  1.3202
42017SOL    HW237776   1.379   0.665  11.242 -0.9404  1.0464 -2.7019
42018SOL     OW37777  10.817   3.035   7.784  0.2106 -0.0685 -0.0907
42018SOL    HW137778  10.769   3.041   7.867  0.1535  0.7524 -0.1752
42018SOL    HW237779  10.768   2.972   7.732  0.5166 -0.9644  0.6799
42019SOL     OW37780   0.947   3.751   3.713  0.4880 -0.6528  0.4693
42019SOL    HW137781   1.001   3.758   3.634 -0.9919  0.6168 -0.5005
42019SOL    HW237782   0.936   3.842   3.742 -3.5469 -0.3902 -1.1764
42020SOL     OW37783  11.755   2.207  10.993  0.1673  0.0949 -0.3062
42020SOL    HW137784  11.701   2.177  10.919 -1.7354  1.5259  0.4146
42020SOL    HW237785  11.782   2.295  10.968  0.3511  0.2043  0.2861
42021SOL     OW37786   0.904   1.223   8.032  0.1408 -0.4141  0.2813
42021SOL    HW137787   0.896   1.161   8.104  1.8967 -0.3263  0.5881
42021SOL    HW237788   0.891   1.308   8.073 -0.8500 -0.4615  0.1066
42022SOL     OW37789   0.948   1.756   6.498  0.2423  0.0367  0.1509
42022SOL    HW137790   0.926   1.683   6.555  0.1355 -0.1865 -0.1731
42022SOL    HW237791   0.863   1.792   6.471  0.2948  0.7270  0.8744
42023SOL     OW37792   2.008   8.983   1.450 -0.2242 -0.0689  0.1924
42023SOL    HW137793   2.033   8.915   1.512 -0.6654 -0.7581 -0.3610
42023SOL    HW237794   2.041   8.952   1.366 -0.7531  0.2118 -0.1294
42024SOL     OW37795  10.103   8.339  11.144 -0.1956 -0.6870 -0.1041
42024SOL    HW137796  10.095   8.266  11.082 -0.3288 -1.3346  0.6578
42024SOL    HW237797  10.013   8.356  11.172 -0.1419 -0.3606 -0.1250
42025SOL     OW37798   6.582   7.627   4.848 -0.4534  0.3685  0.1142
42025SOL    HW137799   6.670   7.595   4.829 -0.5923 -1.5589  2.1598
42025SOL    HW237800   6.595   7.698   4.911 -0.2832  2.6235 -2.3031
42026SOL     OW37801   2.141   2.186   2.950  0.3489 -0.1246  0.6705
42026SOL    HW137802   2.185   2.271   2.946  0.3512  0.0816  3.3425
42026SOL    HW237803   2.203   2.129   2.995 -0.2232 -1.1578  0.1699
42027SOL     OW37804   9.177   6.058   5.243  0.4713  0.1899 -0.0522
42027SOL    HW137805   9.267   6.032   5.262  0.1432 -0.1526  1.0962
42027SOL    HW237806   9.139   5.982   5.199  0.1726 -0.4689  1.2834
42028SOL     OW37807   8.249   7.034   3.834  0.1925 -0.1076  0.6807
42028SOL    HW137808   8.213   7.117   3.865  0.1333 -0.0372  0.4269
42028SOL    HW237809   8.291   7.056   3.750 -0.7028 -0.5184  0.1013
42029SOL     OW37810   6.922   8.713   6.919 -0.3046  0.2119  0.2161
42029SOL    HW137811   6.902   8.752   6.834  0.9295 -0.0658 -0.2296
42029SOL    HW237812   6.993   8.651   6.901 -1.0391 -0.9546  1.2056
42030SOL     OW37813   6.547  11.387   3.624 -0.1822 -0.2819 -0.1636
42030SOL    HW137814   6.588  11.442   3.690  0.3859 -0.8462 -0.0380
42030SOL    HW237815   6.563  11.433   3.541 -0.7061  0.3132  0.0544
42031SOL     OW37816   6.486  11.181   2.983 -0.0401 -0.0629 -0.6134
42031SOL    HW137817   6.396  11.166   3.012 -0.4182  3.2121  0.2542
42031SOL    HW237818   6.535  11.107   3.018 -1.9597 -0.6244  1.0918
42032SOL     OW37819   1.903   8.848   2.189  0.4167 -0.2970  0.2767
42032SOL    HW137820   1.971   8.887   2.243 -0.1542  0.3259  0.5635
42032SOL    HW237821   1.902   8.756   2.215  0.5418 -0.1244  0.9121
42033SOL     OW37822   5.738  11.939   3.476 -0.1966 -0.2530 -0.1937
42033SOL    HW137823   5.811  11.962   3.532 -0.9021 -1.9325  1.5106
42033SOL    HW237824   5.762  11.855   3.437 -0.8168 -0.3443 -0.3940
42034SOL     OW37825   7.887   7.444   1.867  0.3597 -0.3030  0.5025
42034SOL    HW137826   7.837   7.511   1.820 -0.5562 -0.6016  1.0223
42034SOL    HW237827   7.853   7.361   1.833 -0.5981 -0.5319  1.9181
42035SOL     OW37828   3.259   6.087   3.728  0.4333  0.2831 -0.0030
42035SOL    HW137829   3.179   6.055   3.771  1.6826 -1.0858  1.4345
42035SOL    HW237830   3.313   6.009   3.715  1.2328  1.0598 -1.7009
42036SOL     OW37831   9.989  11.340   3.779  0.3375  0.1813  0.2716
42036SOL    HW137832   9.996  11.417   3.723 -0.2090  0.1516  0.1613
42036SOL    HW237833   9.911  11.355   3.832  0.7404  0.1170  0.8909
42037SOL     OW37834   1.416   1.364   9.416  0.1097 -0.1658 -1.1219
42037SOL    HW137835   1.398   1.393   9.505 -0.9079  1.7602 -1.8905
42037SOL    HW237836   1.508   1.337   9.418  0.1641  0.0273  0.4563
42038SOL     OW37837   8.070   9.904  10.247  0.3040 -0.0924 -0.4245
42038SOL    HW137838   8.006   9.896  10.318  0.8996 -1.7783 -0.0292
42038SOL    HW237839   8.154   9.886  10.289  0.8191  0.1992 -1.3139
42039SOL     OW37840   0.951   6.352  11.939  0.0030  0.3724  0.4187
42039SOL    HW137841   0.945   6.421  12.005  0.0156  1.5062 -0.7322
42039SOL    HW237842   0.901   6.385  11.864  1.3377 -0.1480 -0.7521
42040SOL     OW37843  10.258   3.197   6.553  0.3412  0.2003 -0.5779
42040SOL    HW137844  10.292   3.197   6.642 -1.3750 -0.0288  0.1325
42040SOL    HW237845  10.317   3.254   6.504  1.1185  0.6088  0.7793
42041SOL     OW37846   1.364   5.768  10.010 -0.1186  0.2178  0.0981
42041SOL    HW137847   1.353   5.709  10.086  1.0094  1.5196  1.3197
42041SOL    HW237848   1.286   5.751   9.956 -1.1060 -0.5539  1.6719
42042SOL     OW37849  10.165   4.217   5.372  0.1228 -0.0761  0.2791
42042SOL    HW137850  10.255   4.198   5.398  0.3099  2.2557  1.6956
42042SOL    HW237851  10.170   4.240   5.280  1.6107  2.9446  0.9824
42043SOL     OW37852   7.103   4.639  10.461  0.1497 -0.7755 -0.1909
42043SOL    HW137853   7.119   4.661  10.369 -1.0276  0.4116 -0.1362
42043SOL    HW237854   7.015   4.601  10.461 -0.3673  0.3931  0.6042
42044SOL     OW37855   1.922   2.256   8.577  0.4475  0.0004  0.3661
42044SOL    HW137856   2.010   2.222   8.557  0.7571  0.2221  1.3429
42044SOL    HW237857   1.890   2.200   8.647 -0.1486  0.0053  0.1019
42045SOL     OW37858   2.666   0.331   5.374 -0.1519  0.6498  0.3215
42045SOL    HW137859   2.628   0.245   5.392  3.8885 -1.7685 -1.3571
42045SOL    HW237860   2.674   0.334   5.278  1.9465  1.7800  0.4766
42046SOL     OW37861  10.345  11.149  10.725 -0.4599 -0.1813 -0.2793
42046SOL    HW137862  10.346  11.216  10.657 -1.2351 -0.2375 -0.3479
42046SOL    HW237863  10.289  11.080  10.691 -2.7018  0.7485  1.2903
42047SOL     OW37864   8.388   8.623   6.143  0.1058 -0.0915  0.2968
42047SOL    HW137865   8.411   8.565   6.216  1.0475  0.5833  0.5627
42047SOL    HW237866   8.308   8.666   6.172  0.1787 -0.2243  0.7164
42048SOL     OW37867   4.405   6.661   5.607  0.1839  0.0388  0.2506
42048SOL    HW137868   4.418   6.748   5.571 -2.6659  0.5440  0.2165
42048SOL    HW237869   4.405   6.603   5.532  0.6396  0.1828  0.1337
42049SOL     OW37870  11.027   8.840  11.156 -0.1497 -0.6302 -0.7663
42049SOL    HW137871  10.988   8.893  11.225 -1.8434 -0.6778 -1.6332
42049SOL    HW237872  11.084   8.901  11.108  0.5570 -0.4534  0.2628
42050SOL     OW37873   7.341  11.264   5.513  0.3452  0.0785 -0.1121
42050SOL    HW137874   7.286  11.225   5.581  0.1192 -1.3145 -1.0668
42050SOL    HW237875   7.292  11.341   5.484  0.3781  0.6149  1.1804
42051SOL     OW37876   6.400   5.773   9.074 -0.4696 -0.3783 -0.6274
42051SOL    HW137877   6.455   5.712   9.026  0.3397  0.9906 -1.5203
42051SOL    HW237878   6.411   5.748   9.166  1.8893 -0.0090 -0.7476
42052SOL     OW37879   8.216  10.164   7.503  0.1459 -0.8801 -0.1947
42052SOL    HW137880   8.166  10.244   7.519  0.6008 -0.3807 -1.2077
42052SOL    HW237881   8.306  10.187   7.528 -0.0675 -1.7145  1.4440
42053SOL     OW37882   7.973   7.842   8.644 -0.1496  0.1344 -0.0533
42053SOL    HW137883   8.042   7.841   8.710 -0.6078  1.3101  0.4731
42053SOL    HW237884   7.892   7.853   8.694 -0.2842  4.5230 -0.8861
42054SOL     OW37885   6.966   5.579   5.299  0.2579  0.3195  0.1269
42054SOL    HW137886   6.982   5.517   5.370  2.3593 -0.1030 -0.6444
42054SOL    HW237887   6.880   5.554   5.265  0.8348 -1.9471  0.1177
42055SOL     OW37888   2.336   1.442   3.020 -0.0670 -0.0252 -0.2720
42055SOL    HW137889   2.420   1.446   2.975 -0.2766 -0.9139 -0.7582
42055SOL    HW237890   2.317   1.349   3.030 -1.2213  0.1500 -0.6034
42056SOL     OW37891   6.799   1.806  11.329 -0.1314 -0.2610  0.3321
42056SOL    HW137892   6.779   1.855  11.249  1.5552  0.4370  0.2831
42056SOL    HW237893   6.819   1.874  11.393 -0.9252 -0.8349  1.2054
42057SOL     OW37894   8.496  11.158   1.538 -0.2163 -0.5562  0.0607
42057SOL    HW137895   8.574  11.105   1.552  0.1936  0.0640  0.1746
42057SOL    HW237896   8.426  11.112   1.584  0.0261 -1.2518 -0.2580
42058SOL     OW37897   4.931  10.964   3.116  0.5075  0.4035  0.1254
42058SOL    HW137898   4.881  11.045   3.106 -1.2574 -0.7526 -0.8651
42058SOL    HW237899   4.921  10.918   3.033  1.4928 -0.8372  0.6554
42059SOL     OW37900   9.219   6.492   9.050 -0.5731  0.3054  0.0901
42059SOL    HW137901   9.172   6.530   9.124  0.6450 -2.5126  2.4984
42059SOL    HW237902   9.183   6.403   9.042  0.7105 -0.1282 -1.4243
42060SOL     OW37903   9.649   4.964   8.889  0.0801 -0.0344 -0.6253
42060SOL    HW137904   9.676   4.872   8.895 -2.9473 -0.9512  1.1938
42060SOL    HW237905   9.647   4.983   8.795  0.0368 -2.0914 -1.0778
42061SOL     OW37906   1.530   7.630   3.986 -0.5698 -0.1138 -0.0686
42061SOL    HW137907   1.540   7.722   3.962 -1.3184  0.1445  0.5799
42061SOL    HW237908   1.620   7.599   4.000 -0.3647  0.8772  1.0013
42062SOL     OW37909   2.956   3.256   6.821 -0.5649  0.3773 -0.2510
42062SOL    HW137910   2.967   3.162   6.832  2.6159  0.5268 -1.1394
42062SOL    HW237911   3.022   3.295   6.879 -0.7915  2.0032 -1.0211
42063SOL     OW37912   6.651   7.816   9.589 -0.0024  0.0875  0.8033
42063SOL    HW137913   6.690   7.899   9.615 -2.2221  1.7195 -0.8132
42063SOL    HW237914   6.619   7.830   9.500  0.4539 -2.8555  0.0359
42064SOL     OW37915   8.299   6.100  11.414  0.0778  0.4456 -0.1238
42064SOL    HW137916   8.320   6.012  11.383 -0.0513  0.0106  0.9716
42064SOL    HW237917   8.299   6.154  11.335  1.1349 -0.3451 -0.6911
42065SOL     OW37918   5.087  11.831   3.901 -0.1230  0.2233 -0.3189
42065SOL    HW137919   5.064  11.832   3.994 -3.0483  3.3772 -0.8645
42065SOL    HW237920   5.172  11.875   3.897 -0.6633  1.4433  0.7836
42066SOL     OW37921   5.202   6.091   0.790 -0.5761  0.1895 -0.5564
42066SOL    HW137922   5.251   6.057   0.865  0.0656 -0.4264 -1.2316
42066SOL    HW237923   5.139   6.021   0.770 -1.0079  0.5182 -0.3626
42067SOL     OW37924   8.573   6.955   7.367 -0.0482 -0.2051 -0.0361
42067SOL    HW137925   8.585   6.862   7.346 -1.7938 -0.8956  1.7374
42067SOL    HW237926   8.570   6.958   7.463 -0.2779  1.6645 -0.0660
42068SOL     OW37927  10.514   2.433   9.567  0.4388  0.0219  0.2581
42068SOL    HW137928  10.441   2.378   9.596  0.5713 -2.0733 -2.7876
42068SOL    HW237929  10.472   2.512   9.534 -0.3056 -0.3209  0.3526
42069SOL     OW37930   1.886   3.645   0.168  0.4238  0.2854  0.0454
42069SOL    HW137931   1.872   3.732   0.132  3.1626  0.9037  0.2789
42069SOL    HW237932   1.950   3.605   0.110  0.5120 -0.9189  0.9392
42070SOL     OW37933   0.409   8.420   9.230  0.2883 -0.0692  0.2047
42070SOL    HW137934   0.338   8.428   9.295  0.4983 -0.3420  0.4717
42070SOL    HW237935   0.369   8.446   9.147 -0.0520  0.0397  0.4012
42071SOL     OW37936   2.650   8.503   3.134 -0.6215  0.3194 -0.4870
42071SOL    HW137937   2.630   8.590   3.167 -1.0718  1.0202 -2.4674
42071SOL    HW237938   2.739   8.486   3.165 -1.0599  0.8289  1.1588
42072SOL     OW37939   7.332  11.504   9.217  0.1856 -0.1320  0.3006
42072SOL    HW137940   7.324  11.409   9.205  1.6636 -0.1538 -0.8341
42072SOL    HW237941   7.417  11.516   9.259  0.4253  0.7439 -0.4104
42073SOL     OW37942   3.947   6.806   8.336 -0.2627 -0.4853 -0.1467
42073SOL    HW137943   3.872   6.755   8.365 -0.1390 -1.1579 -0.9510
42073SOL    HW237944   4.006   6.741   8.297 -0.2515  0.3101 -1.5220
42074SOL     OW37945   7.104   7.440  10.087  0.4313  0.8690 -0.7779
42074SOL    HW137946   7.053   7.375  10.135 -2.3909  3.9830  0.7991
42074SOL    HW237947   7.125   7.397  10.004 -1.4101 -1.9398  0.0527
42075SOL     OW37948   9.560   7.287  10.007  0.0682  0.6430 -0.3231
42075SOL    HW137949   9.619   7.351  10.046  1.9650 -1.6789  0.8612
42075SOL    HW237950   9.603   7.261   9.925 -1.4843  1.9479 -1.6279
42076SOL     OW37951   5.376  10.917   2.006 -0.1820  0.5871  0.7113
42076SOL    HW137952   5.461  10.898   2.044  0.1230 -1.0336 -0.6745
42076SOL    HW237953   5.394  10.974   1.932 -0.3412  0.5508  0.6433
42077SOL     OW37954   7.939   1.660   5.704 -0.1240  0.2773 -0.3238
42077SOL    HW137955   8.005   1.611   5.753 -0.7026  0.2868  0.4888
42077SOL    HW237956   7.920   1.606   5.628  0.7516  0.2365 -0.5229
42078SOL     OW37957  10.403   4.275   8.420 -0.4678 -0.9111 -0.4376
42078SOL    HW137958  10.392   4.367   8.445 -1.7360 -0.9571 -0.7839
42078SOL    HW237959  10.471   4.277   8.353  0.1728 -0.3425  0.2070
42079SOL     OW37960   5.213   7.359   8.638 -0.4172  0.1624  0.1337
42079SOL    HW137961   5.146   7.291   8.645 -0.6133  0.4471  1.2563
42079SOL    HW237962   5.265   7.334   8.562 -1.1935 -0.6052 -0.1613
42080SOL     OW37963   5.704   0.913   9.305  0.1166  0.3665 -0.0564
42080SOL    HW137964   5.706   0.942   9.396  2.3025  2.9645 -0.8003
42080SOL    HW237965   5.795   0.916   9.277 -0.2728 -2.0822 -1.9098
42081SOL     OW37966   9.496   6.369   9.355  0.4986 -0.1381 -0.0499
42081SOL    HW137967   9.484   6.279   9.325 -1.8603  0.2317 -0.3910
42081SOL    HW237968   9.456   6.423   9.287  1.3614  1.1518  0.4223
42082SOL     OW37969   1.999  10.647   6.780 -0.0979  0.3415 -0.0310
42082SOL    HW137970   2.025  10.736   6.757 -0.6962  0.6707  0.5425
42082SOL    HW237971   1.909  10.655   6.810  0.1731 -0.3048  1.0122
42083SOL     OW37972   7.437   3.472   8.689  0.0771 -0.0941  0.0932
42083SOL    HW137973   7.458   3.424   8.769 -0.4681 -1.5794 -0.6278
42083SOL    HW237974   7.375   3.539   8.718 -0.8227 -1.1864  0.8044
42084SOL     OW37975   1.745   7.262   0.388  0.2702 -0.2372  0.2216
42084SOL    HW137976   1.835   7.292   0.373  0.1867  0.2185  0.5871
42084SOL    HW237977   1.737   7.261   0.484 -0.5598  1.1366  0.1950
42085SOL     OW37978   8.511   6.981   9.086 -0.0811 -0.8967 -0.8753
42085SOL    HW137979   8.492   7.003   8.995 -1.0635 -1.0449 -0.7142
42085SOL    HW237980   8.455   7.040   9.138 -0.6213 -1.7968 -0.4026
42086SOL     OW37981   0.629   8.110   7.466 -0.4481  0.2770 -0.3365
42086SOL    HW137982   0.573   8.184   7.490 -1.1141 -0.4335  0.3482
42086SOL    HW237983   0.674   8.088   7.548  0.5361  0.5765 -0.7819
42087SOL     OW37984   9.083  10.081   0.054  0.2678  0.3225 -0.0054
42087SOL    HW137985   9.168  10.100   0.013  0.6300 -3.0046 -1.1084
42087SOL    HW237986   9.105  10.042   0.138 -0.4067  3.6387  1.8643
42088SOL     OW37987   1.507   9.894   7.339 -0.1608 -0.2117  0.4060
42088SOL    HW137988   1.572   9.841   7.294  0.1247 -0.4524  1.0858
42088SOL    HW237989   1.440   9.831   7.365 -0.0544 -0.1640  0.7986
42089SOL     OW37990   2.590  10.855   2.438 -0.1743 -0.2233 -0.2451
42089SOL    HW137991   2.682  10.841   2.415 -0.6313 -0.1451 -2.3623
42089SOL    HW237992   2.546  10.774   2.411 -0.6712 -0.5015  1.3004
42090SOL     OW37993   9.932   3.680   3.144  0.1668  0.3636  0.4051
42090SOL    HW137994   9.849   3.702   3.186  0.8031 -1.2240  2.6708
42090SOL    HW237995   9.989   3.754   3.165 -0.5764  1.3897 -1.0326
42091SOL     OW37996   2.534   9.235   4.416  0.3094  0.0359 -0.6036
42091SOL    HW137997   2.619   9.201   4.446 -0.5740 -2.4635 -0.7077
42091SOL    HW237998   2.476   9.223   4.491 -0.1127  1.2768 -0.7052
42092SOL     OW37999   9.864   5.346   1.853 -0.5293  0.1281  0.2831
42092SOL    HW138000   9.903   5.285   1.789 -1.0177 -1.1529  1.1637
42092SOL    HW238001   9.916   5.425   1.845  0.0800 -0.3675 -0.9759
42093SOL     OW38002  11.470   3.948   3.517 -0.0963 -0.1156 -0.1632
42093SOL    HW138003  11.441   3.881   3.456 -0.4516  0.3663 -0.5344
42093SOL    HW238004  11.541   3.907   3.566  0.5619 -0.3264 -1.2764
42094SOL     OW38005   2.938  10.066   0.863 -0.9854 -0.2190  0.2244
42094SOL    HW138006   2.974  10.151   0.891  1.5209 -1.3452  0.7094
42094SOL    HW238007   2.843  10.079   0.865 -0.7396  2.1013  1.7879
42095SOL     OW38008   1.680   0.750  11.942  0.0934  0.1302 -0.2813
42095SOL    HW138009   1.603   0.788  11.900  0.4391  0.9564 -0.1858
42095SOL    HW238010   1.750   0.760  11.878 -0.3861 -3.0035 -1.4743
42096SOL     OW38011   1.628  10.508   6.802  0.5549 -0.0784 -0.3937
42096SOL    HW138012   1.679  10.480   6.726  0.6469  0.9191 -0.7178
42096SOL    HW238013   1.541  10.470   6.789  1.0935 -1.4775 -0.0293
42097SOL     OW38014   1.789   4.924   7.765  0.1874 -0.5714  0.0566
42097SOL    HW138015   1.881   4.940   7.789 -0.1839  1.5950  0.2561
42097SOL    HW238016   1.787   4.935   7.670  0.2319 -1.1917 -0.0177
42098SOL     OW38017   4.236   5.125   7.232  0.1649 -0.0606  0.1318
42098SOL    HW138018   4.235   5.049   7.290 -0.7053 -0.7844 -0.7993
42098SOL    HW238019   4.154   5.171   7.250 -0.8209 -1.0792 -1.4850
42099SOL     OW38020   9.791   6.733  11.323  0.4049 -0.4920  0.3382
42099SOL    HW138021   9.775   6.789  11.399  0.1465  1.6522 -1.2017
42099SOL    HW238022   9.874   6.765  11.287  0.2819 -1.1541 -0.5593
42100SOL     OW38023   6.949   6.849   7.614 -0.5568  0.2748 -0.0665
42100SOL    HW138024   6.965   6.757   7.636 -0.1721  0.4428  0.3604
42100SOL    HW238025   6.950   6.851   7.518  0.0906 -0.0536 -0.0731
42101SOL     OW38026   9.550   9.770   3.018 -0.1495  0.0613 -0.2136
42101SOL    HW138027   9.465   9.767   3.062 -1.8713  0.5066 -3.2330
42101SOL    HW238028   9.588   9.854   3.042 -0.4123 -0.2322  1.3207
42102SOL     OW38029   5.431  11.270  11.623  0.4239 -0.3329  0.1902
42102SOL    HW138030   5.341  11.269  11.657 -0.3072 -0.3760 -1.6073
42102SOL    HW238031   5.430  11.340  11.558  0.4586 -2.9672 -2.8877
42103SOL     OW38032  10.054   6.302  11.781 -0.3715  0.2887  0.0734
42103SOL    HW138033  10.034   6.308  11.875 -1.8150 -0.4758 -0.1571
42103SOL    HW238034   9.978   6.257  11.743 -0.5784  2.0296 -1.7275
42104SOL     OW38035   2.757   9.894   7.941 -0.0841 -0.0520 -0.2687
42104SOL    HW138036   2.785   9.901   7.850  0.3676 -0.1944 -0.1435
42104SOL    HW238037   2.717   9.807   7.948 -2.0839  0.7627 -0.8496
42105SOL     OW38038   8.682   0.393   0.953 -0.2152 -0.0930 -0.2485
42105SOL    HW138039   8.745   0.327   0.982 -0.2985  0.5918  1.6788
42105SOL    HW238040   8.679   0.455   1.026 -1.2743  1.2131 -1.3694
42106SOL     OW38041   2.271   9.221   4.310 -0.5075 -0.8106  0.0829
42106SOL    HW138042   2.287   9.141   4.260  1.6908  0.4598 -1.4349
42106SOL    HW238043   2.354   9.240   4.353 -1.6183 -0.4701  2.2044
42107SOL     OW38044   5.301  10.785   0.938 -0.0704  0.5797 -0.2340
42107SOL    HW138045   5.295  10.768   0.844 -1.0896  1.5880 -0.3727
42107SOL    HW238046   5.319  10.700   0.976 -1.3536 -0.1714 -1.2069
42108SOL     OW38047  11.665  11.555  10.654  0.0499  0.8417 -0.1909
42108SOL    HW138048  11.640  11.577  10.565  2.0185  0.0783 -0.9936
42108SOL    HW238049  11.672  11.459  10.654  0.2952  0.8454  0.7292
42109SOL     OW38050   8.472   6.107   8.202 -0.2131  0.4162  0.2161
42109SOL    HW138051   8.411   6.040   8.231  0.6699  0.5095  2.5235
42109SOL    HW238052   8.500   6.150   8.283  1.7274  1.3896 -0.9014
42110SOL     OW38053   7.996  10.213   6.714  0.3300  0.0423 -0.0486
42110SOL    HW138054   7.938  10.238   6.643  0.0072 -1.0322 -0.1756
42110SOL    HW238055   8.084  10.234   6.682  0.2123 -0.7031 -0.8970
42111SOL     OW38056   3.425   9.190   1.100 -0.2957  0.6462 -0.3562
42111SOL    HW138057   3.333   9.164   1.104  0.1955 -1.1916  0.6019
42111SOL    HW238058   3.470   9.110   1.072  1.1405  1.0382  0.7270
42112SOL     OW38059   3.452   3.643  11.570 -0.4480  0.1838  0.2289
42112SOL    HW138060   3.378   3.584  11.554 -0.4848 -0.4024  2.2777
42112SOL    HW238061   3.525   3.585  11.590 -0.5884  0.7186  2.7059
42113SOL     OW38062   2.650   5.121   4.603 -0.1198  0.3940  0.0405
42113SOL    HW138063   2.573   5.168   4.636 -0.4027  0.1225 -0.2218
42113SOL    HW238064   2.630   5.029   4.621 -0.1013  0.2765 -0.5167
42114SOL     OW38065   5.980   3.953   5.158  0.7156  0.8059  0.2058
42114SOL    HW138066   6.032   3.934   5.080  1.8982  1.3582  0.8369
42114SOL    HW238067   6.041   3.995   5.218  0.2012 -0.8602  1.9998
42115SOL     OW38068   5.427   2.184   1.870  0.0541  0.6606 -0.3938
42115SOL    HW138069   5.472   2.188   1.954  0.8088 -0.4751 -0.7218
42115SOL    HW238070   5.444   2.096   1.838 -0.8795  0.8247 -1.3845
42116SOL     OW38071   2.827   5.025  10.728  0.0177  0.2601  0.6232
42116SOL    HW138072   2.895   4.958  10.714  0.2669  0.7462 -0.6174
42116SOL    HW238073   2.773   4.989  10.798  1.5248 -0.1627  1.6238
42117SOL     OW38074   3.339   1.658   6.601 -0.3803 -0.1151  0.3339
42117SOL    HW138075   3.422   1.706   6.601  0.0782 -0.8763  0.0968
42117SOL    HW238076   3.319   1.644   6.509  0.1347 -1.4220  0.3994
42118SOL     OW38077   6.498   5.641   8.839 -0.3979  0.0026  0.2618
42118SOL    HW138078   6.525   5.555   8.807 -1.2628 -0.3509  0.4567
42118SOL    HW238079   6.406   5.648   8.812 -0.5453  0.5494  0.9013
42119SOL     OW38080   4.326   5.992   0.441  0.3474  0.2292 -0.5849
42119SOL    HW138081   4.288   6.054   0.503 -0.4458 -1.3991  0.6590
42119SOL    HW238082   4.418   6.018   0.435  0.2269  1.0124  0.5553
42120SOL     OW38083   8.307   5.546   2.821 -0.0977  0.4400 -0.4131
42120SOL    HW138084   8.222   5.506   2.842  1.0952 -1.4917  1.0598
42120SOL    HW238085   8.296   5.638   2.844 -1.2974 -0.1077  1.4239
42121SOL     OW38086   6.130   2.089   5.850  0.5468 -0.3227 -0.0374
42121SOL    HW138087   6.164   2.114   5.764  1.0330 -0.9884 -0.0483
42121SOL    HW238088   6.083   2.167   5.881  0.0774 -0.1834 -1.0424
42122SOL     OW38089   6.903   4.155   8.794  0.3081  0.1806  0.1568
42122SOL    HW138090   6.920   4.223   8.729  1.3382  2.4756  2.5961
42122SOL    HW238091   6.976   4.093   8.784  0.6902  0.7330 -0.5749
42123SOL     OW38092   5.611   0.883   1.842  0.1423  0.6809  0.7068
42123SOL    HW138093   5.537   0.888   1.783  0.3302  0.7683  0.4784
42123SOL    HW238094   5.661   0.807   1.812 -1.2478 -1.0533  2.4757
42124SOL     OW38095   1.739   9.963   5.350  0.0839 -0.0096  0.4893
42124SOL    HW138096   1.731  10.055   5.372 -0.9115  0.2599 -0.8890
42124SOL    HW238097   1.648   9.932   5.344  0.3864 -0.8328  0.0111
42125SOL     OW38098   9.899   5.244   6.282  0.5917 -0.8124 -0.4099
42125SOL    HW138099   9.910   5.161   6.236  0.0747 -2.5073  2.2757
42125SOL    HW238100   9.871   5.218   6.370 -0.2460  2.2623  0.3327
42126SOL     OW38101   1.710   3.429   1.343 -0.0608 -0.4173  0.2257
42126SOL    HW138102   1.664   3.493   1.288 -2.0000 -2.2889 -0.4696
42126SOL    HW238103   1.795   3.417   1.299  0.4161  1.6870  0.4469
42127SOL     OW38104   8.051  11.163   3.923 -0.6136  0.3177  0.0930
42127SOL    HW138105   8.017  11.247   3.955 -0.5919  0.3904 -0.0738
42127SOL    HW238106   8.081  11.182   3.834 -0.3341  0.2034  0.1617
42128SOL     OW38107   0.390   6.376   4.020  0.2170 -0.0403  0.1719
42128SOL    HW138108   0.485   6.388   4.028  0.4620 -1.9795  0.8213
42128SOL    HW238109   0.374   6.290   4.058 -2.0007  0.7767  1.2332
42129SOL     OW38110   5.282   5.786   5.456  0.4215 -0.3853 -0.3896
42129SOL    HW138111   5.197   5.750   5.429  0.3056 -0.3425 -0.0854
42129SOL    HW238112   5.268   5.880   5.461  0.5405 -0.3591 -0.5249
42130SOL     OW38113   8.099   7.882   2.463 -0.3467 -0.8602  0.6276
42130SOL    HW138114   8.194   7.891   2.452 -0.0491 -2.9999  0.9331
42130SOL    HW238115   8.063   7.962   2.425  1.7014  1.4992  3.2077
42131SOL     OW38116   9.117   3.481   5.342 -0.5994  0.1904 -0.3791
42131SOL    HW138117   9.155   3.567   5.324 -0.2265 -0.2831 -2.0721
42131SOL    HW238118   9.188   3.419   5.324 -0.4348 -0.4700  2.0979
42132SOL     OW38119   1.049   3.492   4.451 -0.1759  0.1578  0.2822
42132SOL    HW138120   0.994   3.415   4.438  0.2745 -0.1560  0.2151
42132SOL    HW238121   0.990   3.559   4.484 -0.4243 -0.4518  1.1007
42133SOL     OW38122   4.713   0.189   9.650  0.1479  0.7187  0.2536
42133SOL    HW138123   4.661   0.117   9.614  0.3009  1.3139 -1.2333
42133SOL    HW238124   4.802   0.172   9.619  0.0458  1.9274 -0.7939
42134SOL     OW38125  11.553   7.203   9.259  0.3894  0.3374  0.7686
42134SOL    HW138126  11.579   7.269   9.195  1.5119 -0.1956  0.6451
42134SOL    HW238127  11.462   7.183   9.237  0.3904  1.0195  0.0908
42135SOL     OW38128   9.160   3.912   7.870  0.4566  0.3237 -0.6256
42135SOL    HW138129   9.171   3.817   7.864 -0.3067  0.0439  1.4081
42135SOL    HW238130   9.241   3.947   7.833  0.5761 -1.0977 -1.8038
42136SOL     OW38131  10.260  10.640   9.711 -0.1050 -0.0746 -0.6848
42136SOL    HW138132  10.301  10.554   9.707  0.0746  0.0319 -1.3894
42136SOL    HW238133  10.180  10.626   9.762 -0.6581 -0.9145 -1.7228
42137SOL     OW38134   6.275   8.554   9.165 -1.0732 -0.2877  0.6833
42137SOL    HW138135   6.233   8.639   9.180 -0.3476 -0.0763  1.5793
42137SOL    HW238136   6.294   8.553   9.071 -0.3685  0.8806  0.7979
42138SOL     OW38137  10.317   0.218   9.248 -0.4465  0.0213  0.2077
42138SOL    HW138138  10.359   0.304   9.242  2.6328 -1.4030 -1.7359
42138SOL    HW238139  10.386   0.160   9.281 -1.5184 -2.1357 -1.0664
42139SOL     OW38140   5.337   1.922   0.992 -0.3611 -0.2211  0.1326
42139SOL    HW138141   5.358   1.859   0.924 -0.3392 -0.1331  0.0579
42139SOL    HW238142   5.277   1.876   1.051 -1.0845 -0.0011 -0.4296
42140SOL     OW38143   8.247   3.318   4.936 -0.5463 -0.4248  0.2214
42140SOL    HW138144   8.279   3.285   5.020  0.1699  0.1215  0.1740
42140SOL    HW238145   8.303   3.275   4.871  0.6797  1.1534  0.1792
42141SOL     OW38146   5.303   4.880   3.503 -0.4782  0.0874 -0.6442
42141SOL    HW138147   5.253   4.826   3.441  0.4171 -2.3407  0.6376
42141SOL    HW238148   5.394   4.852   3.492 -0.0630  0.8817  0.5501
42142SOL     OW38149   4.704   2.158   2.081 -0.5184 -0.2450 -0.1738
42142SOL    HW138150   4.792   2.166   2.045 -0.0108 -0.4366  0.9769
42142SOL    HW238151   4.692   2.237   2.133 -0.6012 -0.7148  0.5400
42143SOL     OW38152  10.949   0.719   5.786  0.4747  0.8936  0.1433
42143SOL    HW138153  10.859   0.691   5.770  0.6655  0.2170  0.2435
42143SOL    HW238154  10.963   0.703   5.879  0.9948  0.1352 -0.0611
42144SOL     OW38155   6.277   4.856   0.863  0.5643  0.4024  0.0940
42144SOL    HW138156   6.201   4.881   0.914  1.0466 -1.2465  1.7397
42144SOL    HW238157   6.311   4.938   0.829 -0.2198  1.5176  1.8489
42145SOL     OW38158  11.887   2.015   3.676 -0.1981 -0.3180 -0.1993
42145SOL    HW138159  11.857   2.103   3.694  0.2637  0.0532 -1.1470
42145SOL    HW238160  11.978   2.025   3.650 -0.8425 -0.6921 -2.9950
42146SOL     OW38161  11.614   4.246   7.031 -0.4583  0.1013  0.1463
42146SOL    HW138162  11.699   4.207   7.011  0.1111  1.9939 -1.4494
42146SOL    HW238163  11.630   4.299   7.109  0.0409  1.0182 -0.5617
42147SOL     OW38164   0.007   3.507   6.704  0.4462 -0.1245 -0.2872
42147SOL    HW138165  -0.062   3.471   6.647  1.0252  0.7756 -1.6124
42147SOL    HW238166   0.070   3.545   6.643  1.3523  0.4355  0.9694
42148SOL     OW38167   0.784  10.533   8.200 -0.6178  0.0981 -0.5673
42148SOL    HW138168   0.721  10.577   8.257 -0.1743 -2.0508  1.7641
42148SOL    HW238169   0.731  10.491   8.133 -1.2619  1.6302 -1.0702
42149SOL     OW38170   6.463   0.265  10.247  0.2688 -0.3351 -0.2471
42149SOL    HW138171   6.453   0.253  10.341  1.4812  1.3486  0.1550
42149SOL    HW238172   6.404   0.338  10.226  0.7071 -0.0837 -0.6103
42150SOL     OW38173   8.734   1.189   1.272  0.4195  0.2023  0.0120
42150SOL    HW138174   8.643   1.208   1.296 -0.2262 -3.6098  1.1906
42150SOL    HW238175   8.780   1.185   1.355  1.0861 -0.3536 -0.3748
42151SOL     OW38176   9.646   5.078   2.977  0.3037 -0.2602 -0.3943
42151SOL    HW138177   9.633   4.986   2.951  1.5456  0.0139 -2.1870
42151SOL    HW238178   9.740   5.085   2.992  0.1942  0.6726 -0.0869
42152SOL     OW38179   6.272   4.212   5.963 -0.2826 -0.0501  0.0589
42152SOL    HW138180   6.346   4.246   5.914  0.6390 -0.8753  0.8457
42152SOL    HW238181   6.217   4.169   5.897 -0.3100  0.9593 -0.5870
42153SOL     OW38182  10.565   1.707   2.670 -0.0332  0.6179  0.0013
42153SOL    HW138183  10.613   1.699   2.752  1.7187 -1.2615 -1.1121
42153SOL    HW238184  10.537   1.799   2.668 -0.3059  0.6902  2.7286
42154SOL     OW38185   0.737  11.343  10.158 -0.2381 -0.0234  0.6815
42154SOL    HW138186   0.700  11.426  10.130 -0.7381  0.6225  3.0155
42154SOL    HW238187   0.812  11.368  10.213  1.7211 -1.2390 -1.2637
42155SOL     OW38188  10.670   3.718   4.399  0.1000  0.0705  0.2826
42155SOL    HW138189  10.665   3.647   4.463  1.1853  0.8668  1.3074
42155SOL    HW238190  10.759   3.713   4.364 -0.8805 -1.2570 -2.3353
42156SOL     OW38191   8.168   4.831   1.272 -0.3614  0.4177 -0.2104
42156SOL    HW138192   8.164   4.739   1.246 -0.2131  0.5937 -0.8821
42156SOL    HW238193   8.246   4.837   1.327 -1.8763 -0.4042  2.1522
42157SOL     OW38194   8.612   7.034   4.083 -0.6773 -0.0217 -0.2146
42157SOL    HW138195   8.671   6.960   4.070 -1.3969 -0.4277 -1.3258
42157SOL    HW238196   8.543   7.002   4.141 -0.2488  0.2069  0.4272
42158SOL     OW38197   8.740   0.346   3.433 -0.1737 -0.1956  0.3212
42158SOL    HW138198   8.781   0.347   3.347 -0.8825 -1.0326 -0.0397
42158SOL    HW238199   8.809   0.314   3.492 -0.3148 -1.7960 -0.3154
42159SOL     OW38200   6.970   5.217   1.945  0.9482  0.5297 -0.0635
42159SOL    HW138201   7.033   5.214   1.873 -1.7278 -0.3400 -2.5401
42159SOL    HW238202   6.915   5.293   1.926 -0.3438 -0.2140  0.5755
42160SOL     OW38203   8.930  10.048   7.769 -0.2141  0.1234 -0.1957
42160SOL    HW138204   8.968  10.072   7.684  0.9775 -1.1455 -0.0642
42160SOL    HW238205   8.971  10.108   7.831 -0.9156  0.9047 -0.4804
42161SOL     OW38206   8.297  10.064   7.833  0.1203 -0.0363 -0.1526
42161SOL    HW138207   8.238  10.124   7.788  0.3960  0.8946  0.6951
42161SOL    HW238208   8.384  10.085   7.799  0.1424 -0.4383 -0.3551
42162SOL     OW38209   8.812   2.246   7.293  0.2244  0.1821 -0.8106
42162SOL    HW138210   8.724   2.233   7.258  0.8640 -0.5631 -2.2657
42162SOL    HW238211   8.867   2.258   7.215  1.6268 -0.8684 -0.0305
42163SOL     OW38212   4.400   4.058   3.444  0.5678  0.7527  0.2455
42163SOL    HW138213   4.369   4.074   3.355 -1.7133 -0.5226  0.7163
42163SOL    HW238214   4.323   4.076   3.499  1.5148  0.1500  1.8175
42164SOL     OW38215   2.191   9.866  10.975  0.1645 -0.0898  0.0617
42164SOL    HW138216   2.163   9.952  10.944  0.2763  0.8136  2.2545
42164SOL    HW238217   2.121   9.807  10.949  0.1559  0.6071 -1.6248
42165SOL     OW38218   0.273   0.620   8.911 -0.5314  0.8164  0.0430
42165SOL    HW138219   0.268   0.713   8.931 -0.3856  0.9455 -0.4916
42165SOL    HW238220   0.261   0.615   8.816 -0.3661  0.3081  0.0421
42166SOL     OW38221  10.617   0.117  10.740 -0.3332  0.2860  0.1233
42166SOL    HW138222  10.698   0.166  10.754 -0.3016  0.6253 -1.1550
42166SOL    HW238223  10.553   0.160  10.795 -0.0999  1.2504 -0.3356
42167SOL     OW38224   1.467   4.266  11.948 -0.3065 -0.0294  0.0435
42167SOL    HW138225   1.403   4.225  11.890 -1.5099  0.5681  0.8943
42167SOL    HW238226   1.470   4.357  11.919 -1.1918  0.3615  1.1035
42168SOL     OW38227   4.167   7.208   9.701  0.2943  0.2070  0.3829
42168SOL    HW138228   4.214   7.289   9.681 -0.5620  0.5169 -0.4511
42168SOL    HW238229   4.124   7.184   9.618 -0.4171 -0.4530  0.9265
42169SOL     OW38230   2.455   5.827   8.058 -0.1849  0.3876  0.3931
42169SOL    HW138231   2.461   5.807   7.964  1.6351 -0.8056  0.7028
42169SOL    HW238232   2.517   5.767   8.099  0.9322  2.5510  2.1071
42170SOL     OW38233  11.643   2.441   7.661 -0.0189  0.0937  0.1379
42170SOL    HW138234  11.674   2.531   7.652  1.1200 -0.0993  1.6147
42170SOL    HW238235  11.671   2.397   7.581  1.9733  0.4015  0.6012
42171SOL     OW38236   4.796   1.643   9.392 -0.1405 -0.0059 -0.2222
42171SOL    HW138237   4.873   1.638   9.448 -0.5738 -0.9688  0.3083
42171SOL    HW238238   4.804   1.567   9.334  0.0166  0.6717 -1.1032
42172SOL     OW38239   5.316   8.568  11.766 -0.2552  0.3075  0.2232
42172SOL    HW138240   5.280   8.518  11.839 -1.0252 -1.2881 -1.1706
42172SOL    HW238241   5.259   8.545  11.692  1.0276  1.1592 -1.0701
42173SOL     OW38242   7.608  10.687   4.933 -0.6473 -0.2717 -0.5702
42173SOL    HW138243   7.619  10.740   4.854 -2.0979 -1.1319 -1.4003
42173SOL    HW238244   7.602  10.750   5.004  0.3134  0.5367 -1.1796
42174SOL     OW38245   1.503   2.115   7.383 -0.4625  0.4671 -0.0276
42174SOL    HW138246   1.569   2.049   7.405 -2.0548 -1.1864  0.0442
42174SOL    HW238247   1.545   2.170   7.317  0.7960 -0.8377 -0.3574
42175SOL     OW38248   7.887   3.762   8.486  0.9277  0.2566 -0.7014
42175SOL    HW138249   7.906   3.690   8.426  1.2490  0.3613 -0.7266
42175SOL    HW238250   7.794   3.780   8.474  0.0439 -2.1765  1.4978
42176SOL     OW38251   6.683   2.930   9.071 -0.0607 -0.0943 -0.1757
42176SOL    HW138252   6.673   3.004   9.011  0.4508  0.2458  0.1472
42176SOL    HW238253   6.755   2.879   9.033 -0.9418 -0.8758 -0.8406
42177SOL     OW38254   6.310   3.414   0.497 -0.1005 -0.2818 -0.0404
42177SOL    HW138255   6.303   3.506   0.522 -0.3887  0.3403 -2.2039
42177SOL    HW238256   6.404   3.396   0.499 -0.0995 -0.2699  1.3258
42178SOL     OW38257   3.737   0.261   6.169 -0.0325  0.5016  0.3269
42178SOL    HW138258   3.675   0.217   6.110  1.1419  0.2299 -0.7631
42178SOL    HW238259   3.689   0.337   6.202 -1.3763 -0.4175  0.5532
42179SOL     OW38260   4.868   8.617  11.718  0.5804 -0.8454  0.2697
42179SOL    HW138261   4.878   8.547  11.654 -1.7995 -1.8959  0.9476
42179SOL    HW238262   4.894   8.577  11.801  0.3334 -0.5777  0.4789
42180SOL     OW38263   8.011  11.436   9.686 -0.0398 -0.8607 -0.0634
42180SOL    HW138264   7.999  11.472   9.598 -2.6998  1.7386  1.1930
42180SOL    HW238265   7.938  11.376   9.698 -0.1032 -0.6679  0.5866
42181SOL     OW38266   2.841   7.735   0.235 -0.6580  0.6285  0.1073
42181SOL    HW138267   2.852   7.646   0.201  1.4171  0.5433  0.8956
42181SOL    HW238268   2.792   7.724   0.316 -1.2022  0.3245 -0.2520
42182SOL     OW38269   2.951   5.033   6.245 -0.2152 -0.1099 -0.4840
42182SOL    HW138270   2.938   4.988   6.162 -0.5459  0.3427 -0.6814
42182SOL    HW238271   2.991   4.967   6.302  1.2471 -0.0549 -1.3856
42183SOL     OW38272   0.439   7.667   7.293 -0.4591 -0.7017  0.1239
42183SOL    HW138273   0.472   7.594   7.240 -0.0355 -1.9675  2.0524
42183SOL    HW238274   0.350   7.681   7.260 -0.4704 -1.9362 -0.4434
42184SOL     OW38275  10.361  11.592   8.142  0.1861 -0.1786 -0.0020
42184SOL    HW138276  10.415  11.513   8.140 -0.0923 -0.3578 -1.9582
42184SOL    HW238277  10.407  11.656   8.088 -0.5362  0.3513 -0.0210
42185SOL     OW38278  11.692   7.400   8.844 -0.0591 -0.2796  0.4478
42185SOL    HW138279  11.629   7.403   8.917  0.0682  0.0212  0.5489
42185SOL    HW238280  11.638   7.411   8.766 -0.0746  0.6051  0.5708
42186SOL     OW38281   6.367   5.565   0.164 -0.5374  0.3639 -0.5519
42186SOL    HW138282   6.423   5.525   0.097  0.1427 -0.3528  0.4016
42186SOL    HW238283   6.280   5.569   0.124 -0.6545 -2.1167 -0.7302
42187SOL     OW38284   1.133   6.648   7.473 -0.4566 -0.6952 -0.6590
42187SOL    HW138285   1.163   6.726   7.518 -0.0106 -1.5410  0.5652
42187SOL    HW238286   1.211   6.593   7.467 -1.2705 -2.0897  0.7630
42188SOL     OW38287   5.835   5.976   6.170  0.6326  0.5712  0.6987
42188SOL    HW138288   5.787   6.038   6.116  1.1635 -0.8619 -1.5457
42188SOL    HW238289   5.896   6.030   6.221  1.4394  1.9064 -1.5421
42189SOL     OW38290   7.762  10.037   4.464  0.0088 -0.2326  0.1178
42189SOL    HW138291   7.804   9.975   4.523 -0.8759 -0.7392  0.2238
42189SOL    HW238292   7.751  10.117   4.515 -0.7254 -0.6580  0.6385
42190SOL     OW38293   9.468   3.640   6.416 -0.3597  0.0986  0.3667
42190SOL    HW138294   9.474   3.720   6.364  0.3438 -0.6414 -0.7284
42190SOL    HW238295   9.385   3.649   6.464 -0.4591  1.3151 -0.0058
42191SOL     OW38296   4.187   1.257   5.259  0.5871  0.0001  0.2343
42191SOL    HW138297   4.170   1.238   5.167 -0.0162 -0.4503  0.4316
42191SOL    HW238298   4.100   1.268   5.298  0.8568  1.2338  0.5426
42192SOL     OW38299   3.912   9.634   8.987  0.3020  0.4402  0.1523
42192SOL    HW138300   3.827   9.660   8.951  0.2463 -1.7053 -1.4624
42192SOL    HW238301   3.891   9.595   9.072  0.1224  2.9444  1.3656
42193SOL     OW38302  10.583   1.025   1.726 -0.4413 -0.1775 -0.3184
42193SOL    HW138303  10.618   0.937   1.742  1.1403  0.6563  1.1636
42193SOL    HW238304  10.655   1.073   1.687 -0.1246  1.3380  1.9357
42194SOL     OW38305   9.604   3.961   3.863 -0.0203  0.5291 -0.3702
42194SOL    HW138306   9.606   4.012   3.943 -0.9795 -0.8365  0.5791
42194SOL    HW238307   9.559   4.017   3.800 -1.7370  0.6115  0.8602
42195SOL     OW38308  10.061   5.741   1.145 -0.0560  0.1047  0.3933
42195SOL    HW138309  10.126   5.686   1.189  1.2789  0.8492 -0.5627
42195SOL    HW238310  10.113   5.801   1.092 -1.5500  0.1669 -1.0831
42196SOL     OW38311   1.131   3.067   3.787 -0.1579 -0.4538  0.0195
42196SOL    HW138312   1.047   3.024   3.771 -0.5799 -0.0739  1.0857
42196SOL    HW238313   1.150   3.048   3.879  0.0994  0.8581  0.2546
42197SOL     OW38314  10.926   8.010   6.662  0.1303  0.5096 -0.2298
42197SOL    HW138315  10.878   8.093   6.657  0.7818  1.0995  1.9511
42197SOL    HW238316  11.018   8.034   6.647  0.3248  0.2043  0.4423
42198SOL     OW38317   5.456   1.731   1.255  0.4349  0.3620  0.4753
42198SOL    HW138318   5.523   1.781   1.207  2.1489 -0.8123  1.5344
42198SOL    HW238319   5.452   1.647   1.208 -2.0683  1.1846 -0.9964
42199SOL     OW38320   7.805  11.262   2.214 -0.1744 -0.2922 -0.3011
42199SOL    HW138321   7.859  11.341   2.213  0.2753 -0.5898 -1.6404
42199SOL    HW238322   7.816  11.226   2.302 -0.6066  1.2679  0.4196
42200SOL     OW38323   0.066   3.167   7.398 -0.0913  0.4114  0.0604
42200SOL    HW138324   0.116   3.122   7.466 -0.1374  1.3424  0.7242
42200SOL    HW238325   0.068   3.259   7.423 -0.4833  0.7193 -0.9672
42201SOL     OW38326   3.918   8.135   8.783 -0.7360 -0.2772  0.2015
42201SOL    HW138327   3.879   8.193   8.849 -1.1545 -0.0281 -0.2566
42201SOL    HW238328   3.876   8.161   8.701  2.8890  2.4981 -1.0598
42202SOL     OW38329   6.022   5.389   6.759  0.0467  0.1439 -0.4580
42202SOL    HW138330   6.066   5.469   6.731  0.0545  0.5915  0.7435
42202SOL    HW238331   6.092   5.324   6.765  0.5765  0.8179  1.3287
42203SOL     OW38332   3.291   1.847  11.703  0.0521  0.2260 -0.5958
42203SOL    HW138333   3.352   1.775  11.688 -1.0312 -0.3795 -2.3999
42203SOL    HW238334   3.309   1.908  11.632 -0.2526  0.8893 -0.1086
42204SOL     OW38335   8.654   5.373   4.093 -0.7248 -0.3990  0.1750
42204SOL    HW138336   8.586   5.369   4.161 -1.1918 -0.0572 -0.2636
42204SOL    HW238337   8.613   5.421   4.022  0.5821  1.3960  0.5679
42205SOL     OW38338   1.931   8.061   1.169  0.1662 -0.2200 -0.1560
42205SOL    HW138339   1.849   8.107   1.183  0.0330  0.0921 -1.7233
42205SOL    HW238340   1.926   8.029   1.079  1.4987 -0.7462 -0.0789
42206SOL     OW38341   4.794   7.380   7.590 -0.2195  0.2261 -0.5823
42206SOL    HW138342   4.874   7.430   7.573  0.1589 -0.1251  0.1150
42206SOL    HW238343   4.752   7.373   7.504 -0.1481  1.4894 -0.7418
42207SOL     OW38344  10.788   4.700   0.107 -0.4079  0.2919  1.0056
42207SOL    HW138345  10.814   4.612   0.134 -1.8383 -0.4739 -0.0140
42207SOL    HW238346  10.745   4.688   0.023 -0.8515  1.9468  0.9597
42208SOL     OW38347   5.517   9.735   8.451 -0.0502  0.2952 -0.2377
42208SOL    HW138348   5.515   9.818   8.403  1.6914  0.6635  0.2642
42208SOL    HW238349   5.549   9.758   8.538  1.1840 -0.9849 -0.3136
42209SOL     OW38350   4.269   3.389   1.852 -0.4866  0.7033  0.0408
42209SOL    HW138351   4.325   3.461   1.822 -0.2801  0.9239  0.9187
42209SOL    HW238352   4.329   3.320   1.879 -0.6838  0.2190 -0.7401
42210SOL     OW38353   5.986   8.237   0.651 -0.3640 -0.6013 -0.4870
42210SOL    HW138354   6.061   8.291   0.626  0.2892 -1.4633 -0.4419
42210SOL    HW238355   5.987   8.238   0.746 -0.3860 -0.6441 -0.4865
42211SOL     OW38356   6.182   1.992   3.212 -0.2243  0.0310 -0.0113
42211SOL    HW138357   6.178   1.966   3.121  0.7615 -0.6371  0.1163
42211SOL    HW238358   6.114   2.058   3.222 -0.7593 -0.3520 -1.0692
42212SOL     OW38359   5.592   3.564   4.511 -0.2620 -0.3256 -0.0654
42212SOL    HW138360   5.615   3.541   4.601  0.1042 -3.5965 -0.8459
42212SOL    HW238361   5.497   3.563   4.510 -0.2689 -0.0104  0.3645
42213SOL     OW38362   2.071  10.575  10.266 -0.5229  0.2635 -0.5111
42213SOL    HW138363   2.045  10.496  10.313 -1.2860  0.8803  0.1286
42213SOL    HW238364   2.044  10.559  10.175 -2.5668  0.5796 -0.0106
42214SOL     OW38365  11.110   7.456   4.862  0.4086  0.4124  0.3873
42214SOL    HW138366  11.091   7.362   4.868  0.2273  0.5379  1.9985
42214SOL    HW238367  11.072   7.482   4.778 -1.0597 -0.6187  0.6927
42215SOL     OW38368   8.817   3.251   1.919  0.4643 -0.0969  0.2043
42215SOL    HW138369   8.884   3.295   1.867  0.4216  0.7324  0.8093
42215SOL    HW238370   8.794   3.316   1.987 -0.0253 -0.8480  0.7739
42216SOL     OW38371   1.721   3.621   3.863 -0.0918 -0.1352  0.4231
42216SOL    HW138372   1.639   3.662   3.836 -0.0914 -0.2301  0.2787
42216SOL    HW238373   1.718   3.622   3.959 -0.0823  0.2191  0.4183
42217SOL     OW38374   4.599   8.056   6.836 -0.1655 -0.2479 -0.5044
42217SOL    HW138375   4.533   8.093   6.894 -1.2516 -0.6107 -1.4650
42217SOL    HW238376   4.612   8.123   6.769  1.6335  0.4867  0.5191
42218SOL     OW38377   3.161   0.098   5.748 -0.2797 -0.2266  0.8906
42218SOL    HW138378   3.157   0.144   5.664 -2.9397  0.5723  1.3481
42218SOL    HW238379   3.167   0.006   5.725  0.6378  0.0651 -0.1252
42219SOL     OW38380   5.221   5.208   2.699 -0.3435 -0.7798 -0.4284
42219SOL    HW138381   5.268   5.227   2.617 -0.1854 -1.6876 -0.5605
42219SOL    HW238382   5.153   5.146   2.674 -3.2264  2.1812 -0.7024
42220SOL     OW38383   0.655   6.964  11.687  0.3052 -0.0553  0.0086
42220SOL    HW138384   0.674   6.982  11.779 -0.1691  0.8358 -0.0542
42220SOL    HW238385   0.669   7.048  11.643  0.6288 -0.4958 -0.7523
42221SOL     OW38386   9.059   7.889   4.228 -0.1543 -0.0674  0.1925
42221SOL    HW138387   9.040   7.959   4.291  2.3237  1.9781 -1.1498
42221SOL    HW238388   8.975   7.872   4.186 -1.1468  0.9456  1.6451
42222SOL     OW38389   2.224   3.153   4.641  0.0347 -0.5558 -0.0661
42222SOL    HW138390   2.222   3.070   4.593  0.0014 -1.0909  0.8326
42222SOL    HW238391   2.152   3.204   4.603 -0.2780 -1.1442 -0.2825
42223SOL     OW38392   2.004   2.581   7.985  0.5900 -0.1452  0.6101
42223SOL    HW138393   1.948   2.506   7.964  1.5186 -0.6869  0.0087
42223SOL    HW238394   2.051   2.554   8.064  0.0254  0.3037  1.1068
42224SOL     OW38395   5.702  10.346   4.099  0.2544 -0.3171 -0.8143
42224SOL    HW138396   5.773  10.410   4.096  0.4781 -0.5951 -1.6897
42224SOL    HW238397   5.708  10.300   4.016 -1.6297  0.4003 -1.4079
42225SOL     OW38398   6.877  10.914   9.858 -0.2410  0.1432 -0.2518
42225SOL    HW138399   6.788  10.894   9.885 -0.4791  1.6474  0.1654
42225SOL    HW238400   6.868  10.954   9.772 -0.3684  3.3812  1.1352
42226SOL     OW38401   9.961  11.475   5.745 -0.0910  0.3542 -0.3639
42226SOL    HW138402   9.894  11.434   5.799 -0.4052 -0.9152 -1.6540
42226SOL    HW238403   9.953  11.433   5.660  1.5312  1.0609 -0.9193
42227SOL     OW38404   6.789   8.312  10.272  0.3798 -0.1215  0.4514
42227SOL    HW138405   6.849   8.318  10.347 -1.6368 -1.0293  2.2130
42227SOL    HW238406   6.793   8.400  10.233  2.2872  0.0592  0.9111
42228SOL     OW38407   2.005   5.505   3.055 -0.1487  0.3352 -0.4933
42228SOL    HW138408   2.045   5.419   3.040  1.8110  1.3423 -1.4918
42228SOL    HW238409   2.070   5.553   3.107 -0.9292  1.4300 -0.4872
42229SOL     OW38410   8.795   8.550   7.806 -0.3170  0.5673 -0.1829
42229SOL    HW138411   8.868   8.491   7.788 -1.2878 -0.0353 -2.5783
42229SOL    HW238412   8.832   8.637   7.802  0.1641  0.3111 -2.3142
42230SOL     OW38413   3.764   1.783   0.501  0.3084  0.0744 -0.2625
42230SOL    HW138414   3.735   1.854   0.444 -0.7390 -0.4576 -0.4119
42230SOL    HW238415   3.837   1.743   0.454  1.9907  2.0274  0.5518
42231SOL     OW38416   1.531   1.864   5.782 -0.0378 -0.1627 -0.1344
42231SOL    HW138417   1.541   1.772   5.805 -0.0234 -0.8427 -2.5981
42231SOL    HW238418   1.436   1.880   5.788 -0.1874 -0.7047 -0.8921
42232SOL     OW38419  10.577   2.752   5.310  0.0428 -0.4616 -0.0072
42232SOL    HW138420  10.597   2.659   5.314  0.4491 -0.4060 -0.6230
42232SOL    HW238421  10.481   2.756   5.318  0.0145 -0.9371 -0.0812
42233SOL     OW38422   4.337   6.923   1.400  0.1345  0.1541 -0.1543
42233SOL    HW138423   4.330   6.961   1.487  0.2653 -0.7801  0.2802
42233SOL    HW238424   4.431   6.921   1.383  0.2527 -1.3226  0.4717
42234SOL     OW38425   1.112   3.244   3.366  0.0079  0.5306  0.4075
42234SOL    HW138426   1.058   3.170   3.393 -0.6846  0.6084 -0.6933
42234SOL    HW238427   1.057   3.293   3.305  1.3288  0.5936 -0.7861
42235SOL     OW38428   4.520   7.451   5.954 -0.2039  0.1938 -0.2528
42235SOL    HW138429   4.557   7.538   5.970 -1.8254  0.5648  2.0414
42235SOL    HW238430   4.537   7.403   6.035 -1.7863 -0.6648 -0.4003
42236SOL     OW38431   4.537   5.708   7.996  0.2571 -0.0635 -0.1586
42236SOL    HW138432   4.495   5.694   7.911 -0.2494 -1.2588  0.2586
42236SOL    HW238433   4.626   5.735   7.974  0.7857 -2.3419 -1.1296
42237SOL     OW38434   3.862   4.279  11.831  0.0392 -0.0366  0.1204
42237SOL    HW138435   3.842   4.371  11.852  0.8397  0.1357  0.1586
42237SOL    HW238436   3.954   4.269  11.855 -0.5962 -1.4514  2.1911
42238SOL     OW38437   1.447   7.239   7.277 -0.3850 -0.4685  0.6785
42238SOL    HW138438   1.502   7.271   7.206  0.9009 -0.0138  1.8304
42238SOL    HW238439   1.366   7.289   7.269  0.1379  0.3126  0.1575
42239SOL     OW38440   4.322   7.967   3.967  0.0975  0.1698  0.0565
42239SOL    HW138441   4.337   8.046   3.915 -0.4337 -0.2718 -0.7960
42239SOL    HW238442   4.248   7.923   3.923  0.0351 -0.5259  0.8298
42240SOL     OW38443   9.060   2.507   7.627 -0.0153 -0.3378  0.4645
42240SOL    HW138444   9.012   2.429   7.601  0.6401 -0.5029 -0.2839
42240SOL    HW238445   9.030   2.526   7.716 -2.5509  0.4032 -0.4623
42241SOL     OW38446   2.339   0.404  11.922 -0.6539  0.1407 -0.1482
42241SOL    HW138447   2.283   0.465  11.876 -1.0002  1.4160  1.8341
42241SOL    HW238448   2.388   0.458  11.985  0.2383 -1.3973  0.5574
42242SOL     OW38449  11.921   2.157   0.560 -0.3820 -0.1092 -0.4748
42242SOL    HW138450  11.950   2.241   0.524 -1.2067 -0.2925 -1.5999
42242SOL    HW238451  11.918   2.172   0.654 -0.2988  1.0527 -0.6357
42243SOL     OW38452   6.177   2.409   2.006  0.2481 -0.3834  0.8409
42243SOL    HW138453   6.258   2.409   2.058 -0.6315  0.9156  2.2945
42243SOL    HW238454   6.196   2.466   1.932  1.0698 -1.1225  0.4638
42244SOL     OW38455   4.889   2.831   9.922  0.7098  0.0572  0.0929
42244SOL    HW138456   4.798   2.817   9.948  0.1277  0.4445 -1.6387
42244SOL    HW238457   4.903   2.925   9.931  0.8766  0.0263  0.1613
42245SOL     OW38458   1.382  10.216   6.497 -0.1521  0.4359  0.0350
42245SOL    HW138459   1.471  10.222   6.533  0.8782 -2.1918 -1.7944
42245SOL    HW238460   1.361  10.123   6.500 -1.7272  0.6476 -2.1199
42246SOL     OW38461  10.507   6.115   2.879  0.1149 -0.2539 -0.1231
42246SOL    HW138462  10.583   6.057   2.879  1.2800  1.1915  0.2228
42246SOL    HW238463  10.435   6.061   2.850  1.1083 -1.9126  0.3692
42247SOL     OW38464   2.895   3.577   2.501  0.4142  0.2920  0.2216
42247SOL    HW138465   2.975   3.573   2.555 -0.8956 -1.4319  2.1995
42247SOL    HW238466   2.840   3.641   2.545 -0.3196 -0.4791  0.4471
42248SOL     OW38467   7.996   3.804   2.555 -0.2849  0.1596  0.2357
42248SOL    HW138468   7.950   3.861   2.493 -0.3292 -0.1109  0.0185
42248SOL    HW238469   7.953   3.820   2.639  3.1420  4.6941  1.5721
42249SOL     OW38470   2.777  10.964  11.509  0.2938 -0.2402  0.0334
42249SOL    HW138471   2.781  10.978  11.604 -0.2759  1.8898 -0.2116
42249SOL    HW238472   2.845  10.899  11.492  0.1134 -1.0113  1.9377
42250SOL     OW38473  10.959   2.210  10.337  0.1976 -0.4652 -0.7667
42250SOL    HW138474  10.943   2.241  10.248  2.7123 -0.9944 -1.5051
42250SOL    HW238475  10.961   2.289  10.390  0.7672  0.0875 -1.5812
42251SOL     OW38476   7.612  11.299   9.807 -0.3730  0.1841  0.7179
42251SOL    HW138477   7.572  11.225   9.854 -0.5489  0.4319  0.9592
42251SOL    HW238478   7.557  11.374   9.829 -2.2647 -0.1744 -2.1508
42252SOL     OW38479  10.439   5.682   3.623  0.3836  0.0127 -0.3848
42252SOL    HW138480  10.385   5.761   3.620  0.5676  0.1063 -1.7802
42252SOL    HW238481  10.517   5.705   3.573  0.6268 -0.9181 -0.4406
42253SOL     OW38482   8.593   3.049   9.132  0.3808  0.1114  0.2703
42253SOL    HW138483   8.688   3.045   9.118  0.5139  0.3247  1.0334
42253SOL    HW238484   8.563   3.116   9.071  0.7295  0.0725  0.0495
42254SOL     OW38485   3.359   1.384  10.761 -0.3898  0.0980 -0.0022
42254SOL    HW138486   3.372   1.478  10.745  1.8612 -0.1874 -0.1566
42254SOL    HW238487   3.378   1.342  10.678 -1.1641 -0.5487  0.1286
42255SOL     OW38488   7.461   7.229  11.219 -0.3037  0.1001  0.0505
42255SOL    HW138489   7.438   7.316  11.251  0.2814 -0.2956  1.6656
42255SOL    HW238490   7.516   7.192  11.288  0.2316 -1.2005 -1.0237
42256SOL     OW38491  10.562   2.969   2.907  0.2922  0.2594  0.1490
42256SOL    HW138492  10.657   2.968   2.897  0.1984  0.0478 -0.7574
42256SOL    HW238493  10.528   2.976   2.818 -0.5915 -2.5492  0.1643
42257SOL     OW38494   5.233   6.544   3.824  0.0075  0.2944  0.3915
42257SOL    HW138495   5.235   6.504   3.911 -1.7279 -0.1592  0.2641
42257SOL    HW238496   5.210   6.472   3.766  1.1401  0.5996 -0.4523
42258SOL     OW38497   6.684   4.813   1.421  0.3967  0.3412 -0.1258
42258SOL    HW138498   6.597   4.774   1.410  0.1737 -0.4237  3.3303
42258SOL    HW238499   6.713   4.783   1.507  3.6536  1.4818 -0.6967
42259SOL     OW38500  10.895   8.782   5.222  0.3857  0.1419  0.0147
42259SOL    HW138501  10.889   8.870   5.259  1.4312 -0.9375  2.9895
42259SOL    HW238502  10.812   8.741   5.245  0.2954  0.0106 -0.5234
42260SOL     OW38503   3.568   8.281   6.737  0.5483  0.1784  0.0062
42260SOL    HW138504   3.609   8.359   6.700  0.3400  0.5611  0.5737
42260SOL    HW238505   3.525   8.239   6.663  1.9126 -0.2116 -0.6105
42261SOL     OW38506   0.400   5.368   2.677  0.1673 -0.4084 -0.1038
42261SOL    HW138507   0.427   5.451   2.716 -0.0879 -0.5832  0.4580
42261SOL    HW238508   0.368   5.392   2.590  0.8146 -0.0245 -0.2433
42262SOL     OW38509  10.308   1.614   4.373 -0.1238  0.7515  0.4458
42262SOL    HW138510  10.326   1.521   4.389  2.2625  1.1891  0.7296
42262SOL    HW238511  10.349   1.659   4.448 -0.8135  2.0637  0.0611
42263SOL     OW38512   8.630   2.327   2.047  0.4252  0.0111 -0.1269
42263SOL    HW138513   8.617   2.235   2.072  0.6156  0.1813  0.6353
42263SOL    HW238514   8.678   2.364   2.121  2.0730  0.2565 -1.2847
42264SOL     OW38515   1.891   6.395   7.711  0.0163  0.1290 -0.3648
42264SOL    HW138516   1.863   6.341   7.785 -0.7684 -0.2624 -0.9283
42264SOL    HW238517   1.935   6.470   7.751  0.0289 -0.3131  0.4756
42265SOL     OW38518   3.832   8.001   1.200  0.4471  0.2393  0.1032
42265SOL    HW138519   3.916   8.007   1.246  0.7404  0.5328 -0.4615
42265SOL    HW238520   3.815   8.090   1.169  1.1352 -0.2593 -1.8762
42266SOL     OW38521  11.755   5.239   9.345  0.0108 -0.0290  0.4988
42266SOL    HW138522  11.672   5.233   9.299  0.0411  0.7833  0.3186
42266SOL    HW238523  11.739   5.305   9.413  0.3389 -0.2886  0.8297
42267SOL     OW38524   4.183   7.577  11.882  0.5641  0.4043  0.0222
42267SOL    HW138525   4.236   7.648  11.847  1.2131 -0.7605 -1.4471
42267SOL    HW238526   4.239   7.536  11.949  1.1711 -0.2303 -0.8564
42268SOL     OW38527  10.881   2.395   0.515  0.5009 -0.0614 -0.4241
42268SOL    HW138528  10.789   2.369   0.507  0.4419  0.5294 -1.9885
42268SOL    HW238529  10.883   2.454   0.590 -0.2848 -0.5111 -0.0359
42269SOL     OW38530   6.619  11.103  10.096 -0.3154  0.0224 -0.1955
42269SOL    HW138531   6.632  11.172  10.032 -0.8429 -1.3907 -1.9015
42269SOL    HW238532   6.705  11.089  10.136  0.8745 -1.2737 -2.9648
42270SOL     OW38533   0.495   0.329   8.945 -0.2681  0.0640  0.3708
42270SOL    HW138534   0.514   0.375   8.863 -1.0986 -0.1345  0.0590
42270SOL    HW238535   0.433   0.386   8.991 -2.5160 -1.3681 -0.6965
42271SOL     OW38536   4.323  10.828  11.898  0.4448  0.6637 -0.8301
42271SOL    HW138537   4.350  10.902  11.953  0.6928 -0.8123  1.1524
42271SOL    HW238538   4.232  10.811  11.923  0.7928 -0.4946 -0.2762
42272SOL     OW38539   5.961   4.135   0.347  0.5510 -0.0185  0.1906
42272SOL    HW138540   5.918   4.123   0.432  0.6289  0.6119  0.3276
42272SOL    HW238541   5.893   4.113   0.283 -0.3010  1.8255  0.3882
42273SOL     OW38542  11.460   1.959   5.757  0.3200  0.8947  0.4939
42273SOL    HW138543  11.426   2.046   5.779 -1.8042 -0.2974  2.2819
42273SOL    HW238544  11.447   1.907   5.837  1.9541 -0.9696 -0.3706
42274SOL     OW38545   2.738  10.890  10.460 -0.2623 -0.1674  0.6071
42274SOL    HW138546   2.655  10.845  10.443  0.3184 -1.4541  1.1244
42274SOL    HW238547   2.752  10.882  10.554 -0.7165  2.1613  0.9442
42275SOL     OW38548   1.347   7.901   4.074  0.0055 -0.4141 -0.0198
42275SOL    HW138549   1.305   7.879   3.991  1.6025 -0.8227 -0.7593
42275SOL    HW238550   1.436   7.927   4.050  0.4424 -0.3563  1.5443
42276SOL     OW38551   9.696  10.745   5.480 -0.3578 -0.1486 -0.2518
42276SOL    HW138552   9.779  10.791   5.467  0.5587 -1.8409 -0.8191
42276SOL    HW238553   9.703  10.708   5.569 -0.5087 -0.2818 -0.2951
42277SOL     OW38554   6.838   6.046   8.805 -0.5727  0.2474  0.0410
42277SOL    HW138555   6.793   5.963   8.821  0.8865 -0.5983 -0.0565
42277SOL    HW238556   6.770   6.112   8.816 -1.6394 -0.9080  0.7426
42278SOL     OW38557   1.833   5.312   6.575  0.0950 -0.0720  0.0604
42278SOL    HW138558   1.862   5.338   6.662 -0.2846 -0.1665  0.2149
42278SOL    HW238559   1.914   5.283   6.531  0.6562  2.0048 -0.3667
42279SOL     OW38560  10.377   6.371   7.248 -0.1949 -0.2789  0.3875
42279SOL    HW138561  10.405   6.290   7.291 -0.0621 -0.5412 -0.1783
42279SOL    HW238562  10.364   6.346   7.156 -0.1805  0.3367  0.2130
42280SOL     OW38563   9.497   7.153   8.875  0.2251  0.4968  0.3868
42280SOL    HW138564   9.456   7.240   8.876 -1.0197 -0.0591  0.4990
42280SOL    HW238565   9.574   7.162   8.930  0.3870  1.6527 -0.0026
42281SOL     OW38566   0.041   9.426   9.525 -0.4031  0.0830  0.5540
42281SOL    HW138567  -0.053   9.438   9.537 -0.2992  1.2777  0.2775
42281SOL    HW238568   0.050   9.394   9.435 -0.5225  0.2566  0.4808
42282SOL     OW38569   9.165   8.047   4.935 -0.2482 -0.7430  0.6898
42282SOL    HW138570   9.096   8.085   4.989  0.2653  0.3073  0.6504
42282SOL    HW238571   9.216   8.123   4.906 -0.0315 -1.3554 -0.5910
42283SOL     OW38572  10.903   8.470   5.164  0.4910  0.1143  0.2173
42283SOL    HW138573  10.811   8.473   5.137  0.3407  0.0314  0.7242
42283SOL    HW238574  10.907   8.401   5.230  0.3918  1.9183  2.1862
42284SOL     OW38575   3.546   8.303   8.137 -0.5468 -0.4721 -0.2437
42284SOL    HW138576   3.558   8.275   8.228  1.3096  3.5702  0.9753
42284SOL    HW238577   3.461   8.347   8.136 -0.2109  0.1807 -0.2524
42285SOL     OW38578   7.496   3.917   7.489 -0.0931  0.1667 -0.0866
42285SOL    HW138579   7.497   3.911   7.584  0.4423  0.5739 -0.0595
42285SOL    HW238580   7.445   3.996   7.471  1.1867  1.0270 -0.0651
42286SOL     OW38581   0.801   0.165   6.686 -0.3024  0.6357  0.2395
42286SOL    HW138582   0.842   0.091   6.641 -1.3759  0.6993 -0.8904
42286SOL    HW238583   0.855   0.178   6.764  0.0731 -1.1710  0.3329
42287SOL     OW38584   7.804   8.090   8.665 -0.0799 -0.4441  0.0672
42287SOL    HW138585   7.893   8.117   8.688  0.1551 -0.4162 -0.8097
42287SOL    HW238586   7.782   8.144   8.590  0.3449 -2.4784 -1.6388
42288SOL     OW38587   5.370   3.173   6.847 -0.1293 -0.0329  0.2709
42288SOL    HW138588   5.315   3.104   6.809 -1.0016  1.4594 -1.3021
42288SOL    HW238589   5.355   3.249   6.792  2.2639  0.9292  0.8213
42289SOL     OW38590   3.640   0.725   8.241 -0.2346 -0.0220 -0.1001
42289SOL    HW138591   3.560   0.707   8.191 -0.3783 -0.3192  0.2262
42289SOL    HW238592   3.608   0.738   8.331 -0.0650  1.2497 -0.2181
42290SOL     OW38593   2.512  11.374  11.877  0.1104 -0.0179  0.3968
42290SOL    HW138594   2.424  11.383  11.841  0.7443 -0.4353 -1.4062
42290SOL    HW238595   2.570  11.392  11.802  1.5361 -0.8396  1.2549
42291SOL     OW38596   1.925  10.047   6.816  0.0197 -0.6301 -0.0281
42291SOL    HW138597   1.996  10.048   6.880 -0.9965 -2.4693  1.2113
42291SOL    HW238598   1.849  10.078   6.864 -0.2301  0.6276 -1.1546
42292SOL     OW38599   9.927   5.910  11.733 -0.2207 -0.1871  0.8656
42292SOL    HW138600   9.890   5.975  11.673 -1.8783  0.8956  2.9285
42292SOL    HW238601  10.016   5.941  11.750  0.0592 -0.1780 -0.5047
42293SOL     OW38602   3.683  10.110  10.022  0.5671 -0.8083  0.4360
42293SOL    HW138603   3.748  10.157  10.074  1.0424 -0.6013 -0.3277
42293SOL    HW238604   3.600  10.155  10.042  0.8565 -0.2864  0.4840
42294SOL     OW38605   4.888  11.184   7.930  0.5609  0.1418 -0.7340
42294SOL    HW138606   4.945  11.148   7.861 -0.9160 -0.0923 -1.8694
42294SOL    HW238607   4.828  11.242   7.884  0.1820  0.7865  0.5206
42295SOL     OW38608   0.317   5.324   9.265  0.3517 -0.1447  0.1220
42295SOL    HW138609   0.229   5.312   9.228  0.1014  0.4171  0.5121
42295SOL    HW238610   0.371   5.350   9.190 -0.4839  2.5212  0.3268
42296SOL     OW38611   4.679   2.334   0.471 -0.5667  0.0898  0.3504
42296SOL    HW138612   4.655   2.412   0.521 -3.0386 -1.0294  1.0870
42296SOL    HW238613   4.603   2.318   0.414  0.4988 -0.9526 -0.8419
42297SOL     OW38614   6.503   7.694   1.951  0.2632 -0.0723 -0.0415
42297SOL    HW138615   6.445   7.704   1.875  0.5041 -1.2871 -0.4156
42297SOL    HW238616   6.591   7.702   1.915  0.4070 -1.5581 -0.0699
42298SOL     OW38617   9.771   7.107   9.849 -0.1563  0.3028 -0.2674
42298SOL    HW138618   9.777   7.038   9.782  0.1322  0.0471  0.0196
42298SOL    HW238619   9.771   7.059   9.932  0.0998  0.6527 -0.0658
42299SOL     OW38620   3.355   5.841   2.589  0.1000  0.3832 -0.1821
42299SOL    HW138621   3.439   5.874   2.619 -0.6799  1.1279  1.2981
42299SOL    HW238622   3.290   5.902   2.624 -1.0765 -0.2208 -1.1982
42300SOL     OW38623   7.424   4.089   9.874 -0.0115 -0.3630  0.6311
42300SOL    HW138624   7.484   4.149   9.916 -0.4373 -1.6155  3.2097
42300SOL    HW238625   7.339   4.132   9.878 -0.6912 -1.6806  4.1682
42301SOL     OW38626  11.400   2.280   1.476  0.2574  0.0637 -0.1128
42301SOL    HW138627  11.440   2.285   1.390  0.4866  2.2422  0.0739
42301SOL    HW238628  11.306   2.271   1.459  0.3431  0.0585 -0.5786
42302SOL     OW38629  10.762   2.257   1.087  0.5815 -0.7994 -0.1198
42302SOL    HW138630  10.754   2.233   1.180 -1.5539 -0.8391 -0.2644
42302SOL    HW238631  10.720   2.184   1.041  0.7243 -0.2946 -1.0578
42303SOL     OW38632  10.255   2.464   2.292  0.4499 -0.3390  0.1174
42303SOL    HW138633  10.340   2.447   2.332  0.9928  0.5270 -0.6249
42303SOL    HW238634  10.231   2.380   2.251  1.7334 -0.1599 -1.0703
42304SOL     OW38635  11.434   4.559   4.474 -0.1787  0.3618 -0.1816
42304SOL    HW138636  11.440   4.611   4.394  0.0624  0.8601  0.1525
42304SOL    HW238637  11.351   4.511   4.466  1.6268 -2.7636 -2.6007
42305SOL     OW38638   8.403   8.454  10.063  0.2081  0.0841  0.6819
42305SOL    HW138639   8.310   8.434  10.066  0.1843  0.3439  2.4975
42305SOL    HW238640   8.434   8.409   9.984 -1.1165 -1.4842  1.0025
42306SOL     OW38641   7.190  11.663   3.891 -0.1057  0.4285 -0.3954
42306SOL    HW138642   7.275  11.704   3.906 -0.4684  1.0140  0.1043
42306SOL    HW238643   7.186  11.649   3.797  0.4322  0.6451 -0.4510
42307SOL     OW38644   8.320   4.774   6.934  0.2106  0.3279 -0.3304
42307SOL    HW138645   8.240   4.724   6.950  1.1615 -1.3835 -0.6773
42307SOL    HW238646   8.291   4.865   6.930 -1.8546 -0.3044 -1.3036
42308SOL     OW38647   2.630   1.246   5.518  0.0405  0.2477  0.3406
42308SOL    HW138648   2.616   1.272   5.609 -0.6746 -0.8791  0.5579
42308SOL    HW238649   2.725   1.232   5.512 -0.1046 -1.3711  1.3879
42309SOL     OW38650   9.521   2.609   8.643 -0.3780  0.4113 -0.0324
42309SOL    HW138651   9.465   2.534   8.660 -1.0513  1.1644  1.2135
42309SOL    HW238652   9.606   2.571   8.621 -0.8214 -0.7125  0.1387
42310SOL     OW38653   1.862  11.501   8.909 -0.3793 -0.2571 -0.2662
42310SOL    HW138654   1.883  11.447   8.985  0.2810  0.5506  0.1356
42310SOL    HW238655   1.940  11.497   8.854 -1.0773 -1.3597 -1.2554
42311SOL     OW38656   4.885   4.516   4.372  0.2969  0.1985 -0.6741
42311SOL    HW138657   4.977   4.492   4.364  0.0966 -0.7139 -0.3791
42311SOL    HW238658   4.856   4.532   4.283 -0.6281 -4.8638 -1.5794
42312SOL     OW38659   1.510   2.504   2.642 -0.2107 -0.0267  0.1530
42312SOL    HW138660   1.601   2.524   2.620  0.9039 -0.6919  3.5651
42312SOL    HW238661   1.492   2.422   2.595  1.7855 -1.0855  1.0894
42313SOL     OW38662   6.996   9.008   2.012  0.0897 -0.3337  0.3007
42313SOL    HW138663   7.084   8.973   1.999 -0.0205 -0.1468 -1.1243
42313SOL    HW238664   6.979   8.997   2.105  1.3193 -1.0828  0.4558
42314SOL     OW38665   9.724  10.142   7.123 -0.2799  0.2961 -0.2246
42314SOL    HW138666   9.665  10.159   7.049 -0.9152  1.2766  0.4851
42314SOL    HW238667   9.744  10.048   7.116  0.6455  0.5986 -2.3250
42315SOL     OW38668   0.975   3.779   8.305  0.0261 -0.0891 -0.1294
42315SOL    HW138669   0.964   3.827   8.387  0.1423 -1.3507  0.6602
42315SOL    HW238670   0.995   3.690   8.333 -2.8160 -1.2691 -1.4854
42316SOL     OW38671   9.293   3.475   9.387 -0.3060 -0.2542 -0.5853
42316SOL    HW138672   9.218   3.528   9.358 -0.6346 -0.6328 -0.4349
42316SOL    HW238673   9.282   3.468   9.481 -0.7151 -1.2644 -0.6938
42317SOL     OW38674   4.798   0.726   9.143 -0.7334 -1.0860  0.2965
42317SOL    HW138675   4.780   0.814   9.111  0.6345 -0.5109  1.0536
42317SOL    HW238676   4.771   0.668   9.072  1.7473  0.1185 -1.7639
42318SOL     OW38677   4.923   6.932   4.455 -0.2291 -0.2138 -0.2427
42318SOL    HW138678   4.933   6.845   4.494  0.9853  0.0823  0.1693
42318SOL    HW238679   4.839   6.964   4.488 -0.5135 -1.0726 -0.0982
42319SOL     OW38680   3.657   5.077   5.579  0.0244 -0.1643 -0.0783
42319SOL    HW138681   3.568   5.106   5.602  0.1259  1.0214 -1.0769
42319SOL    HW238682   3.644   5.021   5.502  0.2056  0.7738 -0.8078
42320SOL     OW38683   1.904  10.201   9.392  0.1184 -0.0549  0.0849
42320SOL    HW138684   1.883  10.278   9.339 -0.2033  0.5119  0.9961
42320SOL    HW238685   1.824  10.148   9.391 -0.7525  1.1062  1.8785
42321SOL     OW38686   3.059   7.453   1.368  0.0997 -0.0541 -0.0820
42321SOL    HW138687   2.979   7.402   1.376  0.0106 -0.0700 -0.9717
42321SOL    HW238688   3.129   7.391   1.392 -0.1902  0.1827  1.4613
42322SOL     OW38689   2.070   2.915   0.518 -0.2832 -0.4265  0.2283
42322SOL    HW138690   1.975   2.906   0.510 -0.0862 -2.0054 -0.6294
42322SOL    HW238691   2.100   2.828   0.542  1.0510 -0.1676 -0.4542
42323SOL     OW38692   2.026  10.457   7.868 -0.0877  0.1530  0.2164
42323SOL    HW138693   1.992  10.430   7.954  0.9149 -1.7017  0.0871
42323SOL    HW238694   2.107  10.503   7.888 -0.1583  0.2433  0.2972
42324SOL     OW38695   0.566   7.045   6.432 -0.1574 -0.3643  0.4920
42324SOL    HW138696   0.659   7.067   6.443 -0.1622  0.1104 -0.3442
42324SOL    HW238697   0.519   7.120   6.470 -0.1731  0.5312 -1.1637
42325SOL     OW38698  11.605  11.126   8.542  0.0140  0.3375 -0.1727
42325SOL    HW138699  11.558  11.168   8.470 -0.7166  0.1092  0.1665
42325SOL    HW238700  11.650  11.052   8.500 -1.1989 -0.3812 -0.2352
42326SOL     OW38701   6.295  11.723   8.887  1.1724  0.2366 -0.7878
42326SOL    HW138702   6.282  11.692   8.976 -0.2183  0.9512 -0.7046
42326SOL    HW238703   6.271  11.649   8.831 -1.2653  0.7758 -0.5819
42327SOL     OW38704   4.120   2.452  11.290 -0.3083 -0.1018  0.1207
42327SOL    HW138705   4.143   2.439  11.198  1.0144  1.9987  0.0733
42327SOL    HW238706   4.197   2.422  11.339 -1.9951 -3.7583  0.8411
42328SOL     OW38707   7.485   0.490  10.116  0.4639  0.8735 -0.0100
42328SOL    HW138708   7.393   0.464  10.110  0.9471 -1.1896  0.8211
42328SOL    HW238709   7.500   0.501  10.210  1.0390  1.3823 -0.1540
42329SOL     OW38710   0.582   3.630   2.862  0.2624 -0.1836  0.4208
42329SOL    HW138711   0.554   3.547   2.899  0.6306 -1.6339 -2.3065
42329SOL    HW238712   0.671   3.614   2.831  0.3552  1.2448 -0.1214
42330SOL     OW38713   9.614   1.694   8.610 -0.2665 -0.2823 -0.3137
42330SOL    HW138714   9.705   1.722   8.611 -0.8685  1.8751 -1.4353
42330SOL    HW238715   9.567   1.761   8.659 -1.4333 -0.7126 -0.8026
42331SOL     OW38716   4.081   7.222   0.949  0.4258 -0.1370  0.5035
42331SOL    HW138717   4.122   7.225   0.862 -1.3655  1.6303 -0.3553
42331SOL    HW238718   4.098   7.133   0.980  1.3041 -0.7623 -1.5528
42332SOL     OW38719   1.744   6.009   9.568  0.2172 -0.5705  0.0274
42332SOL    HW138720   1.819   5.953   9.546  0.3299 -0.9119  1.1585
42332SOL    HW238721   1.774   6.098   9.551  0.8436 -0.7147  0.3230
42333SOL     OW38722   5.890   2.168  11.464 -0.3465 -0.5711  0.5036
42333SOL    HW138723   5.869   2.197  11.375 -0.1528  1.0389  0.9533
42333SOL    HW238724   5.924   2.080  11.453 -0.1693 -0.3321 -1.0387
42334SOL     OW38725   1.834   8.332  11.581 -0.2396 -0.1634  0.1270
42334SOL    HW138726   1.830   8.267  11.651 -0.6568 -0.5109 -0.2050
42334SOL    HW238727   1.790   8.409  11.617  1.7372  0.5538  1.1307
42335SOL     OW38728   3.323   5.422   8.084 -0.1609 -0.2406  0.3020
42335SOL    HW138729   3.264   5.420   8.159  1.1986 -2.4143  1.4188
42335SOL    HW238730   3.398   5.368   8.110  1.6377  1.1456 -1.6230
42336SOL     OW38731  11.071   4.575   4.709 -0.0976 -0.2456  0.4278
42336SOL    HW138732  10.976   4.567   4.709 -0.0426 -1.2203 -0.7949
42336SOL    HW238733  11.103   4.490   4.741  0.3667  0.0793  0.8462
42337SOL     OW38734   6.238   5.233  11.419  0.0377  0.2335 -0.1515
42337SOL    HW138735   6.176   5.223  11.491 -0.8337  1.8422 -0.6456
42337SOL    HW238736   6.238   5.326  11.399  0.5764 -0.1099 -1.9628
42338SOL     OW38737   4.070   9.453   2.170  0.7630 -0.1335 -0.2126
42338SOL    HW138738   4.076   9.533   2.223  0.3117 -1.3174  1.7549
42338SOL    HW238739   4.120   9.389   2.220  1.7847 -0.9247 -2.1573
42339SOL     OW38740  10.802  11.467  11.862 -0.1863  0.1236  0.0230
42339SOL    HW138741  10.840  11.551  11.887  0.8855 -0.0825 -0.8490
42339SOL    HW238742  10.748  11.486  11.786  0.5944 -0.0790 -0.5883
42340SOL     OW38743   6.328   8.313   3.387 -0.1760 -0.0450  0.3376
42340SOL    HW138744   6.256   8.358   3.430 -1.7493 -0.7722 -1.3784
42340SOL    HW238745   6.388   8.382   3.359 -0.4498  0.6092  1.3533
42341SOL     OW38746   9.912   1.725   1.680 -0.1425 -0.2588 -0.6984
42341SOL    HW138747  10.000   1.737   1.716 -0.2703  0.5673 -0.6444
42341SOL    HW238748   9.858   1.790   1.726 -0.7690 -0.7039 -0.7829
42342SOL     OW38749  11.511   2.869   9.083 -0.0544  0.3933 -0.0944
42342SOL    HW138750  11.465   2.953   9.090 -0.7667 -0.1046  1.8886
42342SOL    HW238751  11.598   2.886   9.119 -0.8855 -0.1421  2.3525
42343SOL     OW38752   6.736  10.983   1.805  0.2051 -0.0523  0.3446
42343SOL    HW138753   6.827  10.954   1.813  1.0276  2.0086 -0.8400
42343SOL    HW238754   6.733  11.067   1.851 -0.4710  1.0282 -1.5416
42344SOL     OW38755   3.942   2.325   0.163 -0.7901 -0.5177 -0.1842
42344SOL    HW138756   3.931   2.407   0.211  0.0070 -0.7732  0.4574
42344SOL    HW238757   3.915   2.346   0.073 -0.6987  0.4090 -0.0043
42345SOL     OW38758   2.000   9.506   5.204 -0.2655  0.0815 -0.4000
42345SOL    HW138759   2.035   9.539   5.122 -0.8011  0.0182 -0.6531
42345SOL    HW238760   1.977   9.585   5.254 -1.4654  0.1028 -0.9701
42346SOL     OW38761   6.027   9.158  10.248 -0.2220 -0.6812  0.0960
42346SOL    HW138762   6.013   9.068  10.220 -2.3057 -0.0647 -1.0077
42346SOL    HW238763   6.082   9.196  10.179 -2.2437 -0.2016 -1.3296
42347SOL     OW38764   7.764   9.328   3.099 -0.2311 -0.2478 -0.5896
42347SOL    HW138765   7.704   9.347   3.171  0.6967 -0.6538  0.3253
42347SOL    HW238766   7.823   9.262   3.135 -0.0862 -0.8647 -1.9215
42348SOL     OW38767   7.745   4.974   6.434 -0.3511  0.4983  0.7741
42348SOL    HW138768   7.840   4.983   6.438 -0.3808  1.0284  0.4461
42348SOL    HW238769   7.726   4.962   6.341 -0.7423  2.2545  0.5899
42349SOL     OW38770   4.162   0.886   1.081 -0.6475 -0.6645 -0.2074
42349SOL    HW138771   4.230   0.826   1.111 -0.6983 -1.0063 -0.7644
42349SOL    HW238772   4.208   0.967   1.059 -0.5035 -0.6909 -0.0033
42350SOL     OW38773   9.194  10.461   9.345  0.0594  0.4643  0.3032
42350SOL    HW138774   9.240  10.545   9.339  0.9980 -0.0304  0.4249
42350SOL    HW238775   9.136  10.471   9.420  1.2352  0.5093  1.2278
42351SOL     OW38776  10.132   1.433   2.145 -0.1254 -0.0765  0.5927
42351SOL    HW138777  10.068   1.432   2.073  0.6870  0.4583 -0.1532
42351SOL    HW238778  10.081   1.408   2.222 -0.7006 -2.2399 -0.4152
42352SOL     OW38779   3.277   4.302   5.287 -0.4005 -0.2304  0.3420
42352SOL    HW138780   3.338   4.296   5.214  0.8769 -0.2943  1.3930
42352SOL    HW238781   3.280   4.216   5.329 -0.7773 -0.0564  0.7394
42353SOL     OW38782   5.578   1.034   6.346 -0.2985 -0.0044  0.3096
42353SOL    HW138783   5.508   0.969   6.336 -0.6946  0.3400  0.7924
42353SOL    HW238784   5.638   1.016   6.274 -0.3191 -1.0084  0.5367
42354SOL     OW38785   7.504   2.741  11.596  0.2035  0.0776 -0.4985
42354SOL    HW138786   7.442   2.727  11.525  0.4625  0.2279 -0.7547
42354SOL    HW238787   7.529   2.833  11.588  0.5730 -0.0220 -0.4862
42355SOL     OW38788  11.248   3.975   2.921  0.0797 -0.5879  0.2023
42355SOL    HW138789  11.230   3.882   2.930  0.6778 -0.5505  2.3037
42355SOL    HW238790  11.188   4.017   2.982  2.4837  0.0230  2.3691
42356SOL     OW38791   5.742   9.313   8.217  0.0223 -0.0242 -0.0959
42356SOL    HW138792   5.661   9.266   8.238  0.8435 -2.3515 -1.6792
42356SOL    HW238793   5.806   9.243   8.200  2.0704  1.7316  0.0223
42357SOL     OW38794   7.367   8.406   2.915 -0.1288 -0.3927  0.3053
42357SOL    HW138795   7.444   8.444   2.956  0.4793 -1.1163 -0.1342
42357SOL    HW238796   7.294   8.430   2.973  0.3245  0.8404  0.3851
42358SOL     OW38797   4.109   6.582  10.493 -0.0383 -0.5110  0.2053
42358SOL    HW138798   4.180   6.523  10.520 -0.7123 -0.7534  1.4939
42358SOL    HW238799   4.030   6.528  10.497 -0.5501  0.2558  0.5505
42359SOL     OW38800   3.108   3.770   4.160  0.0796 -0.1541 -0.3527
42359SOL    HW138801   3.120   3.682   4.124 -0.3507 -0.4391  0.1776
42359SOL    HW238802   3.132   3.762   4.252 -0.7899  0.0698 -0.0935
42360SOL     OW38803   8.118   2.227   6.152  0.2533 -0.1161  0.2835
42360SOL    HW138804   8.181   2.235   6.080 -0.4970  2.0388 -0.2247
42360SOL    HW238805   8.077   2.142   6.139  1.6948 -0.7311 -0.5081
42361SOL     OW38806   5.579   6.134  11.569  0.8265  0.8007 -0.1484
42361SOL    HW138807   5.582   6.227  11.546  1.3542  1.0021  0.6931
42361SOL    HW238808   5.508   6.128  11.633  1.7674  0.9043  0.9352
42362SOL     OW38809   5.170   1.057  10.484  0.1781 -0.1303  0.6435
42362SOL    HW138810   5.256   1.054  10.442 -1.0026  0.6821 -2.0396
42362SOL    HW238811   5.133   0.970  10.470  0.7344 -0.7144  2.4122
42363SOL     OW38812   7.148   1.907   3.471 -0.0520  0.1317  0.3657
42363SOL    HW138813   7.240   1.891   3.489  0.2457 -0.4291 -1.4653
42363SOL    HW238814   7.130   1.857   3.391 -1.8046  0.6792  0.3705
42364SOL     OW38815   8.868   4.900   6.198  0.9180  0.2493 -0.3226
42364SOL    HW138816   8.833   4.848   6.125 -0.2393 -0.0498  0.4256
42364SOL    HW238817   8.920   4.838   6.249 -0.6103 -0.2668  0.6709
42365SOL     OW38818   1.091   8.971   5.882  0.1271 -0.4399  0.1564
42365SOL    HW138819   1.050   9.016   5.956 -0.4332  0.0065 -0.4220
42365SOL    HW238820   1.046   8.887   5.877 -0.4994 -0.0872 -0.2631
42366SOL     OW38821   9.261   2.198  10.254  0.9018  0.3277  0.3837
42366SOL    HW138822   9.271   2.103  10.262 -0.3753  0.0657 -0.7998
42366SOL    HW238823   9.173   2.216  10.285  0.9380  1.0644  0.0810
42367SOL     OW38824   7.467   4.668   5.316  0.0838  0.4170  0.0780
42367SOL    HW138825   7.393   4.615   5.347 -0.1436  0.8670  0.3041
42367SOL    HW238826   7.462   4.662   5.221 -0.1861  0.3671  0.0924
42368SOL     OW38827   2.559   2.748   4.115 -0.2161  0.0816 -0.0397
42368SOL    HW138828   2.644   2.733   4.155 -0.4783 -0.6848  0.2506
42368SOL    HW238829   2.549   2.843   4.114 -0.2695  0.1372  1.8821
42369SOL     OW38830   8.951   8.503   5.622 -0.0211  0.3373  0.1813
42369SOL    HW138831   8.973   8.571   5.558  1.3703  0.4426  0.7380
42369SOL    HW238832   8.858   8.515   5.639 -0.0540  1.3378 -0.6163
42370SOL     OW38833   8.669   0.406   5.228 -0.1744 -0.1422  0.9097
42370SOL    HW138834   8.697   0.387   5.318  0.0418  1.3713  1.1937
42370SOL    HW238835   8.695   0.497   5.214 -1.8666  0.2431 -0.0358
42371SOL     OW38836   0.222   3.780   5.131  0.0684  0.4934 -0.4259
42371SOL    HW138837   0.291   3.806   5.070  0.7729 -2.4096 -1.0261
42371SOL    HW238838   0.140   3.803   5.086  0.6069 -0.1549 -1.8041
42372SOL     OW38839   8.910   9.086   5.603 -0.1775 -0.1189 -0.2387
42372SOL    HW138840   8.936   9.178   5.598  3.1482 -0.9726 -2.1781
42372SOL    HW238841   8.927   9.061   5.694  2.7828  0.3421 -0.5678
42373SOL     OW38842   4.691   7.585   7.772 -0.1436  0.1117  0.1457
42373SOL    HW138843   4.761   7.529   7.738  0.1262  1.9713 -2.6681
42373SOL    HW238844   4.613   7.530   7.770  0.0941 -0.2519 -2.5999
42374SOL     OW38845   8.658   3.533   7.520 -0.3562  0.9093  0.2799
42374SOL    HW138846   8.642   3.440   7.535 -0.3437  0.8432 -0.0947
42374SOL    HW238847   8.747   3.548   7.551 -0.5195  0.8963  0.7600
42375SOL     OW38848   0.915   7.149   7.679 -0.3052  0.2718 -0.0488
42375SOL    HW138849   0.935   7.076   7.621 -0.3414 -0.4792  0.8683
42375SOL    HW238850   0.860   7.112   7.748 -0.2488  1.1402  0.4884
42376SOL     OW38851   7.696   8.283   2.178 -0.1694  0.9773 -0.6001
42376SOL    HW138852   7.736   8.287   2.091  1.8166  0.7128  0.2634
42376SOL    HW238853   7.655   8.196   2.181  2.1192 -0.1616 -0.3371
42377SOL     OW38854   8.894   0.925   5.616 -0.4822 -0.1091 -0.2977
42377SOL    HW138855   8.986   0.917   5.641 -0.3659 -1.4687 -1.0829
42377SOL    HW238856   8.857   0.984   5.682  0.1149 -2.4912  2.3672
42378SOL     OW38857   3.555   7.613   5.895  0.2951 -0.4161 -0.2771
42378SOL    HW138858   3.534   7.657   5.977  0.7292  0.8382 -0.8245
42378SOL    HW238859   3.475   7.565   5.873 -0.5014  0.7933 -0.1072
42379SOL     OW38860   4.360   6.544   8.521 -0.1225  0.1939  0.4616
42379SOL    HW138861   4.441   6.574   8.479  0.1091 -0.7840  0.1757
42379SOL    HW238862   4.292   6.557   8.456  0.0159 -0.1100  0.2538
42380SOL     OW38863   3.496   6.402   2.269 -0.2382  0.3118  0.3328
42380SOL    HW138864   3.530   6.356   2.345 -0.4335 -0.3695  0.0229
42380SOL    HW238865   3.558   6.382   2.199  0.1450  1.2469  0.3973
42381SOL     OW38866   6.042   3.814   1.724 -0.7328 -0.0911 -0.5219
42381SOL    HW138867   5.998   3.861   1.796  2.8582  0.7299  1.3508
42381SOL    HW238868   6.069   3.731   1.763  0.0723 -0.2255 -1.3551
42382SOL     OW38869   4.113   5.963   8.885  0.0923  0.6001  0.0075
42382SOL    HW138870   4.174   6.009   8.942 -1.0856  3.0474 -0.5733
42382SOL    HW238871   4.098   6.023   8.812 -0.1405 -1.5140 -1.7890
42383SOL     OW38872   4.635   0.558   3.702 -0.5245 -0.3779  0.3766
42383SOL    HW138873   4.665   0.550   3.792 -1.1538 -0.3481  0.5878
42383SOL    HW238874   4.541   0.543   3.706 -0.5655 -0.3260 -0.2684
42384SOL     OW38875  10.149   8.617   5.127 -0.1933  0.3662 -1.1791
42384SOL    HW138876  10.171   8.668   5.049 -0.7634  1.7752 -0.4686
42384SOL    HW238877  10.233   8.598   5.168  0.1028 -0.3258 -2.0827
42385SOL     OW38878   9.450   6.313   5.358 -0.0339 -0.1979  0.1579
42385SOL    HW138879   9.358   6.333   5.340  0.5780  0.8410 -2.2191
42385SOL    HW238880   9.453   6.217   5.362 -1.3639 -0.2174  1.3474
42386SOL     OW38881   3.684  10.206   5.870 -0.3750 -0.1148  0.0624
42386SOL    HW138882   3.645  10.119   5.865 -1.3309  0.3119 -0.1308
42386SOL    HW238883   3.663  10.237   5.958 -0.4535  0.1095 -0.0345
42387SOL     OW38884   3.466   2.849  11.705  0.4538 -0.0985 -0.1557
42387SOL    HW138885   3.444   2.767  11.661 -1.4290  1.2006 -1.7650
42387SOL    HW238886   3.441   2.917  11.643 -0.3774  1.7751  2.1047
42388SOL     OW38887   0.594   2.173  10.218  0.0335 -0.4577 -0.4317
42388SOL    HW138888   0.562   2.213  10.137 -0.4275  0.2164  0.0780
42388SOL    HW238889   0.515   2.138  10.259 -0.0994  1.2357  0.8508
42389SOL     OW38890   6.872   9.111   6.342  0.3516  0.0732  0.8647
42389SOL    HW138891   6.886   9.034   6.397  1.0988 -0.7699 -0.4405
42389SOL    HW238892   6.952   9.163   6.353  0.2596  0.1822  1.0125
42390SOL     OW38893   5.929   4.307   7.575 -0.0066 -0.3851 -0.0724
42390SOL    HW138894   5.904   4.266   7.492  1.6362  1.6421 -1.6719
42390SOL    HW238895   5.997   4.249   7.611  1.7401  0.3980 -1.9149
42391SOL     OW38896   0.579   1.022   3.456 -0.0509 -0.4941  0.4523
42391SOL    HW138897   0.562   0.929   3.471 -0.5158 -0.5836 -0.5497
42391SOL    HW238898   0.646   1.023   3.387 -1.0533 -0.1032 -0.5582
42392SOL     OW38899   2.516  11.635   0.379 -0.7807  0.4660 -0.4565
42392SOL    HW138900   2.440  11.656   0.434  0.3879  2.3045  0.5510
42392SOL    HW238901   2.520  11.707   0.316  1.3111  1.5979  0.8605
42393SOL     OW38902   4.683   3.002   7.645  0.1525  0.6769  0.3254
42393SOL    HW138903   4.697   2.979   7.737 -1.7531 -1.9166  0.0728
42393SOL    HW238904   4.592   3.030   7.640  0.2003  0.6836 -0.7658
42394SOL     OW38905   1.255   4.274   4.446 -0.3023 -0.1693 -0.3877
42394SOL    HW138906   1.294   4.361   4.453 -0.6341 -0.0691  0.1837
42394SOL    HW238907   1.183   4.285   4.383  0.8529 -0.4553 -1.8257
42395SOL     OW38908   7.479   7.954   7.046  0.2445 -0.4344  0.1390
42395SOL    HW138909   7.526   8.010   7.108  3.7518  0.4311 -2.9534
42395SOL    HW238910   7.445   8.015   6.980  1.8514 -1.6402 -1.9145
42396SOL     OW38911   6.807   3.947   8.058 -0.3234 -0.3174  0.2129
42396SOL    HW138912   6.886   3.938   8.006  0.5319  1.9810  1.0027
42396SOL    HW238913   6.825   3.896   8.137  0.1908 -0.1818  0.1859
42397SOL     OW38914  10.485   0.179  10.326 -0.4235  0.5024 -0.0419
42397SOL    HW138915  10.572   0.164  10.362 -1.0654  1.4861  2.0837
42397SOL    HW238916  10.431   0.110  10.365 -0.7160  0.2481 -0.8840
42398SOL     OW38917   1.267   5.117   1.377 -0.0548 -0.7521 -0.7280
42398SOL    HW138918   1.342   5.109   1.435 -0.1948 -1.3974 -0.6212
42398SOL    HW238919   1.262   5.210   1.355  0.5827 -0.6598 -0.4878
42399SOL     OW38920   2.304   5.951   5.598 -0.2001 -0.0393  0.1208
42399SOL    HW138921   2.282   5.941   5.506 -0.4283  0.0696  0.1609
42399SOL    HW238922   2.277   6.041   5.620  1.4580  0.5681 -0.1414
42400SOL     OW38923   5.951   4.169   3.567 -0.4111 -0.6244 -0.1480
42400SOL    HW138924   5.870   4.123   3.589 -0.7299  0.9295  2.3035
42400SOL    HW238925   5.923   4.241   3.509 -1.1830  1.0145  2.1207
42401SOL     OW38926   7.597   4.990   6.179 -0.0260 -0.1466  0.1461
42401SOL    HW138927   7.503   4.981   6.168 -0.0554  0.9282 -0.6965
42401SOL    HW238928   7.630   5.006   6.090  0.6075  2.1288  0.7269
42402SOL     OW38929   8.778   9.491   6.280  0.5891  0.0336 -0.3961
42402SOL    HW138930   8.747   9.455   6.197  0.2580  0.1818 -0.3388
42402SOL    HW238931   8.747   9.429   6.346 -1.3803  1.1917 -0.1326
42403SOL     OW38932  10.256   3.999   4.202 -0.0808 -0.4864  0.1575
42403SOL    HW138933  10.216   4.057   4.267 -1.5517  1.0833 -2.0224
42403SOL    HW238934  10.344   4.034   4.188  0.1368 -0.6593  1.0359
42404SOL     OW38935  10.511  11.587   5.466 -0.3940 -0.3592 -0.2370
42404SOL    HW138936  10.438  11.639   5.498 -0.5651  0.0649 -1.2789
42404SOL    HW238937  10.473  11.503   5.441 -0.6159 -0.0062 -1.1394
42405SOL     OW38938   8.721  10.006   7.093 -0.1757  0.1844 -0.2498
42405SOL    HW138939   8.797  10.010   7.035 -0.8533 -1.1071 -1.2716
42405SOL    HW238940   8.646  10.002   7.034 -0.9754  0.2037  0.7401
42406SOL     OW38941   9.171   8.575   8.736 -0.2613 -0.0544 -0.3307
42406SOL    HW138942   9.243   8.572   8.798 -2.3478 -1.6349  2.2309
42406SOL    HW238943   9.163   8.667   8.712  0.3823  0.7148  2.1500
42407SOL     OW38944   1.608   5.421  10.477  0.3873  0.1137  0.5495
42407SOL    HW138945   1.656   5.491  10.434 -0.5147 -0.9700 -2.4930
42407SOL    HW238946   1.518   5.452  10.480  0.1251 -0.5366 -0.0839
42408SOL     OW38947   6.386  11.239   7.013  0.1321 -0.0611 -0.3219
42408SOL    HW138948   6.348  11.295   6.945 -0.1225  1.2139  0.8198
42408SOL    HW238949   6.327  11.164   7.017 -1.3151  1.0416  0.1855
42409SOL     OW38950   3.778   3.899   4.855 -0.2230 -0.1211 -0.2502
42409SOL    HW138951   3.715   3.832   4.830  0.5901 -0.7295 -0.7361
42409SOL    HW238952   3.844   3.852   4.905  0.6209  0.1990 -1.0211
42410SOL     OW38953   5.816  10.527  10.545  0.4399  0.1237 -0.4312
42410SOL    HW138954   5.789  10.609  10.503 -2.2702  0.1497  1.1199
42410SOL    HW238955   5.765  10.460  10.499  0.0137 -0.2364  0.5416
42411SOL     OW38956   8.974   3.049   1.688 -0.2056 -0.0030  0.4183
42411SOL    HW138957   8.895   3.030   1.739  0.0610 -0.4898  0.6522
42411SOL    HW238958   9.016   2.964   1.676 -0.8779 -0.0986 -1.6532
42412SOL     OW38959   0.988   4.425  11.475  0.1743  0.0453  0.1522
42412SOL    HW138960   1.010   4.488  11.406 -1.3764  0.3450 -0.1101
42412SOL    HW238961   0.906   4.457  11.512  0.2713 -0.8669  1.2228
42413SOL     OW38962   4.881   1.782   2.007 -0.5488 -1.3942 -0.8902
42413SOL    HW138963   4.931   1.793   1.927 -1.7020  0.7184 -1.4088
42413SOL    HW238964   4.798   1.826   1.989 -0.2869  0.5008  1.9378
42414SOL     OW38965   8.234   1.208   3.877 -0.1699 -0.0848  0.4584
42414SOL    HW138966   8.204   1.119   3.893  1.8785 -1.3965 -2.2548
42414SOL    HW238967   8.329   1.201   3.867  0.1083  2.4920  0.4834
42415SOL     OW38968   4.057   7.345   1.355  0.9116  0.0707  0.3665
42415SOL    HW138969   4.084   7.255   1.337  0.5127 -0.1177  0.6648
42415SOL    HW238970   4.002   7.369   1.281  1.6688  0.3614 -0.1112
42416SOL     OW38971   1.336   1.391  10.389 -0.7761  0.2821  0.5496
42416SOL    HW138972   1.345   1.317  10.449 -0.3393 -1.0575 -1.0906
42416SOL    HW238973   1.423   1.431  10.388 -0.2311 -0.8419 -0.5533
42417SOL     OW38974   3.660  10.037   1.606  0.3817 -0.0414 -0.2449
42417SOL    HW138975   3.728   9.971   1.590  0.7144  0.1877  0.1962
42417SOL    HW238976   3.694  10.116   1.564  0.5912  0.1852  0.3406
42418SOL     OW38977   8.175   3.896   7.270 -0.6727  0.1079 -0.4221
42418SOL    HW138978   8.148   3.988   7.272  2.0395  0.9701  0.5180
42418SOL    HW238979   8.191   3.878   7.177 -2.3937  0.1428 -0.7650
42419SOL     OW38980   5.311   1.847  10.664  0.3207 -0.6805 -0.4533
42419SOL    HW138981   5.396   1.858  10.708  0.1488 -1.9444  0.2391
42419SOL    HW238982   5.252   1.819  10.734 -0.8259  0.7309 -0.8189
42420SOL     OW38983   6.464   3.009  11.820 -0.0605  0.2069  0.1330
42420SOL    HW138984   6.451   2.964  11.903 -0.1913 -1.0670 -0.5444
42420SOL    HW238985   6.391   2.980  11.765  1.9947 -2.1033 -1.6682
42421SOL     OW38986   2.597  11.103   6.908 -0.0444 -0.1948 -0.3153
42421SOL    HW138987   2.642  11.150   6.978  0.5740 -0.7869 -0.3146
42421SOL    HW238988   2.586  11.168   6.838  0.3633  0.0782 -0.1239
42422SOL     OW38989  10.226   2.299   2.990  0.3460  0.0770 -0.2685
42422SOL    HW138990  10.234   2.358   2.915  2.0215  1.9471  1.2522
42422SOL    HW238991  10.199   2.355   3.063 -0.0460 -1.4408  0.8200
42423SOL     OW38992   5.418   0.985   0.346  0.0507  0.2378  1.3765
42423SOL    HW138993   5.379   0.903   0.375 -1.9892  0.9297  0.7350
42423SOL    HW238994   5.404   0.986   0.251  2.6478  0.0437  0.9137
42424SOL     OW38995   8.981   6.774   0.157 -0.1237 -0.1660  0.3414
42424SOL    HW138996   8.959   6.774   0.250  0.1716  0.1120  0.4135
42424SOL    HW238997   8.939   6.853   0.123  0.8027  0.4017  0.4916
42425SOL     OW38998   6.753   8.160   7.664  0.1669  0.1923  0.5077
42425SOL    HW138999   6.782   8.094   7.601 -0.1488 -0.1766  0.7391
42425SOL    HW239000   6.758   8.116   7.748 -0.1887  0.4153  0.6497
42426SOL     OW39001   5.134  11.130   2.802 -0.3016  0.3674 -0.2374
42426SOL    HW139002   5.128  11.221   2.832  1.9502  0.7197 -0.6507
42426SOL    HW239003   5.198  11.133   2.730 -1.3032 -1.3306 -1.2729
42427SOL     OW39004   1.117   8.176   5.494  0.2047  0.0223  0.3489
42427SOL    HW139005   1.049   8.181   5.426  1.5583 -1.3404 -1.2032
42427SOL    HW239006   1.103   8.253   5.548 -1.6207  0.5824 -0.8353
42428SOL     OW39007   1.951  10.558   5.817 -0.1939 -0.2058  0.2785
42428SOL    HW139008   2.026  10.616   5.803 -0.5109 -0.2844 -2.1809
42428SOL    HW239009   1.944  10.550   5.913  3.5984 -1.0940  0.6329
42429SOL     OW39010   7.451   9.751   6.769 -0.3503 -0.1731  0.3699
42429SOL    HW139011   7.500   9.696   6.829 -0.3926  1.9371  2.4940
42429SOL    HW239012   7.360   9.745   6.800 -0.3128  1.2474  0.8205
42430SOL     OW39013   3.648   3.664   5.556  0.2461  0.6070  0.0411
42430SOL    HW139014   3.575   3.655   5.495 -0.3042  0.0027  0.7729
42430SOL    HW239015   3.654   3.758   5.572  2.8427  1.3719 -3.8221
42431SOL     OW39016  10.043   8.912   4.650  0.3031  0.3158 -0.2082
42431SOL    HW139017  10.060   8.839   4.591 -0.6446  0.2987 -0.4769
42431SOL    HW239018  10.129   8.935   4.685  0.7594 -0.2355 -0.9343
42432SOL     OW39019   7.723   1.880   0.419  0.3730 -0.0486  0.2849
42432SOL    HW139020   7.645   1.826   0.428  0.2039  0.3749  1.5689
42432SOL    HW239021   7.776   1.835   0.354  1.1458 -2.8656  2.6457
42433SOL     OW39022   7.262   3.588   7.950  0.8328 -0.5388  0.3247
42433SOL    HW139023   7.331   3.630   7.900  0.9863  1.1978  1.9002
42433SOL    HW239024   7.307   3.546   8.023  0.3686 -0.7441  0.4989
42434SOL     OW39025   6.484   9.490  11.680  0.2015  0.0234 -0.3219
42434SOL    HW139026   6.472   9.553  11.610 -1.1367 -1.0309 -1.0863
42434SOL    HW239027   6.559   9.437  11.652  0.7111  0.6331 -0.1406
42435SOL     OW39028   5.021  10.159   7.045 -0.3807 -0.8021  0.0202
42435SOL    HW139029   5.035  10.252   7.026  0.8211 -0.7490  1.0282
42435SOL    HW239030   5.102  10.131   7.087 -1.0533 -2.1113  0.4969
42436SOL     OW39031   3.169   7.864   9.553 -0.3696 -0.5515  0.2371
42436SOL    HW139032   3.151   7.912   9.634 -0.9575  0.3084 -0.3834
42436SOL    HW239033   3.217   7.926   9.498  1.1424 -1.5338  0.3764
42437SOL     OW39034   6.877   8.383   5.207  0.2586  0.1869  0.0425
42437SOL    HW139035   6.899   8.474   5.186  2.9825 -0.5807 -0.8192
42437SOL    HW239036   6.817   8.390   5.282 -0.9292  2.6915 -1.0089
42438SOL     OW39037   8.960   2.270   9.790 -0.5802  0.1022  0.2419
42438SOL    HW139038   8.966   2.247   9.883 -3.0433 -3.0824 -0.2006
42438SOL    HW239039   9.024   2.214   9.747 -1.4243 -0.5691 -0.1865
42439SOL     OW39040   2.223   7.285   9.197  0.3935 -0.0043  0.1688
42439SOL    HW139041   2.284   7.360   9.198  0.8476 -0.3671  0.2200
42439SOL    HW239042   2.278   7.211   9.171 -0.1419 -0.2488 -0.2809
42440SOL     OW39043   4.685   6.627   2.342 -0.6951 -0.0680 -0.1910
42440SOL    HW139044   4.763   6.659   2.388 -0.6772 -0.6996  0.2234
42440SOL    HW239045   4.712   6.623   2.250 -1.7124  4.4767 -0.9670
42441SOL     OW39046   7.865   9.761   2.244 -0.1529  0.1480 -0.0994
42441SOL    HW139047   7.918   9.715   2.179  0.8791 -0.9043  1.4165
42441SOL    HW239048   7.926   9.819   2.288 -0.8921  1.0251 -0.2000
42442SOL     OW39049   6.734   8.663  11.842  0.4618  0.3964  0.6503
42442SOL    HW139050   6.659   8.690  11.789  0.6149 -0.0763  0.1871
42442SOL    HW239051   6.737   8.568  11.833  1.4873  0.4613  0.1539
42443SOL     OW39052  11.168  10.696   9.993  0.6182  0.0759 -0.1165
42443SOL    HW139053  11.180  10.759   9.922  0.1808 -0.6008 -0.8136
42443SOL    HW239054  11.255  10.661  10.010  0.7610  0.4066 -0.1677
42444SOL     OW39055   3.069   7.543   9.116  0.0646  0.0907 -0.6424
42444SOL    HW139056   3.055   7.630   9.153 -0.6163  0.4364 -1.6826
42444SOL    HW239057   3.160   7.544   9.086 -0.3821  1.0372 -2.1066
42445SOL     OW39058   8.254   8.348   9.138 -0.1582 -0.3264  0.2816
42445SOL    HW139059   8.335   8.389   9.169  0.2682 -0.4017 -0.6803
42445SOL    HW239060   8.220   8.301   9.214  1.7612 -1.9504  0.2306
42446SOL     OW39061   5.936   8.972   2.108  0.0331 -0.2112 -0.1988
42446SOL    HW139062   6.025   8.982   2.074  0.1039 -1.3100 -0.3710
42446SOL    HW239063   5.889   9.049   2.075  0.9886  0.5487  0.1626
42447SOL     OW39064   2.983   3.677  10.502  0.1823 -0.6189 -0.0212
42447SOL    HW139065   2.892   3.656  10.522  0.3805 -0.1865  1.4194
42447SOL    HW239066   3.000   3.633  10.418 -2.1931  1.5867 -1.8186
42448SOL     OW39067   7.019   2.133   4.605  0.3215  0.0389  0.1222
42448SOL    HW139068   7.086   2.106   4.668  0.3379 -1.7157 -0.5950
42448SOL    HW239069   7.069   2.155   4.526  0.1226 -0.5049 -0.1603
42449SOL     OW39070  10.119   3.932   6.327 -0.4324 -0.2449 -0.1603
42449SOL    HW139071  10.065   3.901   6.400 -1.1433 -1.3850 -1.1367
42449SOL    HW239072  10.080   4.016   6.303 -1.0406 -0.4975 -0.0880
42450SOL     OW39073  10.799   6.715  10.215 -0.3760  0.1704  0.8218
42450SOL    HW139074  10.729   6.777  10.196 -0.7702 -0.2349  0.9436
42450SOL    HW239075  10.766   6.631  10.184 -0.0574 -0.0723  1.1328
42451SOL     OW39076   8.856   6.711   2.729  0.1141  0.5024  0.3303
42451SOL    HW139077   8.774   6.662   2.723  0.4645 -0.0869  0.3131
42451SOL    HW239078   8.858   6.744   2.819  0.5405 -0.7077  0.7834
42452SOL     OW39079   1.239   5.353   7.823  0.0996 -0.5491  0.2513
42452SOL    HW139080   1.261   5.377   7.733  1.2872  1.8036  1.0602
42452SOL    HW239081   1.154   5.309   7.817  0.0845 -0.3236 -1.9766
42453SOL     OW39082   6.444   7.407   6.220 -0.0421 -0.2479 -0.2163
42453SOL    HW139083   6.467   7.367   6.303 -1.1964 -0.5195 -0.0017
42453SOL    HW239084   6.372   7.467   6.241 -0.9795 -0.9996 -1.1387
42454SOL     OW39085  11.115   3.221   0.678  0.3286 -0.0649  0.3003
42454SOL    HW139086  11.077   3.212   0.765  0.7768 -0.4871  0.4502
42454SOL    HW239087  11.041   3.245   0.622  0.1882  1.1187  0.9498
42455SOL     OW39088   8.130   1.141   8.830  0.5297 -0.1162  0.2709
42455SOL    HW139089   8.034   1.136   8.826  0.5487  0.0116 -0.3393
42455SOL    HW239090   8.147   1.223   8.878  0.3363  0.1715 -0.1446
42456SOL     OW39091   7.981   7.500   2.376  0.0380  0.0385 -0.2988
42456SOL    HW139092   8.009   7.471   2.289  2.4548  2.1505 -0.3566
42456SOL    HW239093   7.900   7.548   2.361 -0.9725 -1.7674 -0.9430
42457SOL     OW39094  10.992   1.507   9.420 -0.0604  0.0218 -0.3412
42457SOL    HW139095  11.002   1.457   9.339 -0.7218 -0.8138  0.0757
42457SOL    HW239096  11.029   1.593   9.401 -1.1538  0.1813 -1.8458
42458SOL     OW39097   1.862  11.011  11.570 -0.2836  0.3377 -0.3971
42458SOL    HW139098   1.939  11.009  11.627 -0.6297 -1.5079  0.0946
42458SOL    HW239099   1.884  11.072  11.500  1.3423  0.3521  0.1011
42459SOL     OW39100   3.100   0.831   5.540  0.1815  0.2245  0.2364
42459SOL    HW139101   3.192   0.818   5.564  0.1263 -0.5281  0.0890
42459SOL    HW239102   3.054   0.832   5.624  0.1694 -0.8418  0.2568
42460SOL     OW39103   4.820   3.365  11.598 -0.2131 -0.7762 -0.9145
42460SOL    HW139104   4.834   3.418  11.676 -1.3792 -0.9495 -0.5663
42460SOL    HW239105   4.776   3.424  11.537  0.1376 -0.8218 -1.2193
42461SOL     OW39106   8.150   4.560   3.121 -0.1281  0.0071  0.1765
42461SOL    HW139107   8.078   4.618   3.097 -0.6277 -0.9932 -0.8394
42461SOL    HW239108   8.115   4.472   3.108  0.2909 -0.5784  2.5749
42462SOL     OW39109   5.274   5.812   8.262  0.4365  0.3256  0.1358
42462SOL    HW139110   5.267   5.732   8.314 -0.2211 -0.0451 -0.4921
42462SOL    HW239111   5.314   5.876   8.320  0.8642 -0.4343  0.6852
42463SOL     OW39112   8.883   1.656   5.983  0.4775 -0.2631 -0.2187
42463SOL    HW139113   8.841   1.571   5.993  0.0525  0.0555  0.7766
42463SOL    HW239114   8.971   1.645   6.019  1.8857 -1.3228 -3.5336
42464SOL     OW39115  11.036   1.669   5.171  0.2182 -0.2682 -0.1066
42464SOL    HW139116  11.131   1.676   5.173  0.1488  0.5884  0.8955
42464SOL    HW239117  11.009   1.741   5.113  0.0700  1.4220  1.9091
42465SOL     OW39118   0.115   3.878  10.391 -0.1301 -0.6133 -0.2345
42465SOL    HW139119   0.147   3.938  10.459  0.0940 -0.5895 -0.3630
42465SOL    HW239120   0.069   3.809  10.440 -0.2013 -0.4549 -0.0741
42466SOL     OW39121   5.443   6.291   1.920 -0.6286  0.1457 -0.5715
42466SOL    HW139122   5.496   6.273   1.998 -0.5035  0.1257 -0.6622
42466SOL    HW239123   5.423   6.204   1.885  0.0637  0.1841 -1.0685
42467SOL     OW39124   4.805  10.420   2.391  0.2721 -0.2813  0.2331
42467SOL    HW139125   4.835  10.481   2.458 -0.1964  0.8157 -0.5205
42467SOL    HW239126   4.753  10.355   2.438  0.7224 -0.0585  1.0441
42468SOL     OW39127   7.780   1.056   1.873  0.1873 -0.4440  0.2107
42468SOL    HW139128   7.857   1.102   1.841  0.4426 -0.7410  0.3865
42468SOL    HW239129   7.706   1.107   1.841  0.4655  0.2583  0.6447
42469SOL     OW39130   6.824   2.715   3.752 -0.1501  0.1666  0.1260
42469SOL    HW139131   6.731   2.696   3.763 -0.3209 -0.4610 -1.9743
42469SOL    HW239132   6.844   2.779   3.820 -2.1733  0.4621  0.4860
42470SOL     OW39133   6.835   2.801  11.898 -0.3245 -0.7800  0.4133
42470SOL    HW139134   6.889   2.829  11.973 -0.5380  1.8675 -0.3407
42470SOL    HW239135   6.882   2.725  11.863  2.3288  0.6623  0.5311
42471SOL     OW39136  11.065   3.975   9.151 -0.0440  0.2881 -0.5372
42471SOL    HW139137  11.015   3.916   9.207 -0.7301  2.6835  1.5466
42471SOL    HW239138  11.005   3.997   9.079 -0.4197 -0.1575 -0.3593
42472SOL     OW39139   4.583   7.778   8.715 -0.0161 -0.5843 -0.6886
42472SOL    HW139140   4.585   7.858   8.768  0.9869 -1.1628  0.1851
42472SOL    HW239141   4.493   7.747   8.723  0.0445 -0.5106  0.4807
42473SOL     OW39142   3.931  11.105   8.603 -0.4291  0.0300 -0.0148
42473SOL    HW139143   3.856  11.061   8.565 -1.2473  1.7423 -0.4954
42473SOL    HW239144   3.896  11.186   8.639  1.1218  0.7326  0.0163
42474SOL     OW39145   7.685   2.957   3.969 -0.1931  0.5834 -0.1571
42474SOL    HW139146   7.733   3.038   3.989  1.8779 -0.6905  0.3629
42474SOL    HW239147   7.687   2.951   3.874 -0.1506  1.0381 -0.1869
42475SOL     OW39148   7.507   3.245   9.499  0.1417 -0.3766 -0.1549
42475SOL    HW139149   7.494   3.332   9.461  0.3920 -0.2867 -0.0349
42475SOL    HW239150   7.554   3.196   9.432 -1.1010 -0.8106 -0.7307
42476SOL     OW39151   6.052   1.835   0.172 -0.1869 -0.0238 -0.5753
42476SOL    HW139152   6.062   1.853   0.265 -2.3846 -1.6422  0.0564
42476SOL    HW239153   5.995   1.904   0.139 -1.9197 -1.1119  0.0194
42477SOL     OW39154   3.962   1.047   8.972  0.9391 -0.1275 -0.6512
42477SOL    HW139155   3.888   0.989   8.988  0.9513 -0.0191 -0.1635
42477SOL    HW239156   3.925   1.135   8.982  0.7558 -0.0146 -2.1058
42478SOL     OW39157   8.136   9.122   9.397 -0.2286 -0.0984 -1.1961
42478SOL    HW139158   8.195   9.068   9.345 -1.6082 -1.5223 -1.3558
42478SOL    HW239159   8.078   9.059   9.441 -0.9173  1.1918 -0.1704
42479SOL     OW39160   6.026   6.817   5.412 -0.5304 -0.1646  0.0439
42479SOL    HW139161   5.987   6.735   5.382  1.1250 -0.1618 -2.3595
42479SOL    HW239162   6.119   6.798   5.423 -0.1586  1.2966 -0.2837
42480SOL     OW39163  11.265   3.483  10.762 -0.5438 -0.4413 -0.5170
42480SOL    HW139164  11.208   3.493  10.838  0.3262  0.5602  0.0381
42480SOL    HW239165  11.290   3.391  10.762  0.6879 -0.1651  1.3633
42481SOL     OW39166   3.098   3.367   3.890 -0.4028  0.7609 -0.2166
42481SOL    HW139167   3.144   3.366   3.806 -1.7135 -0.0941 -0.9604
42481SOL    HW239168   3.017   3.320   3.873  0.4207 -1.7884  2.1889
42482SOL     OW39169   5.792   1.380  10.562 -0.4974 -0.8069  0.1243
42482SOL    HW139170   5.845   1.458  10.549  0.3891 -1.1677  1.4093
42482SOL    HW239171   5.746   1.368  10.479 -0.1306  0.6832 -0.3144
42483SOL     OW39172   5.379  10.715   5.559 -0.0375  0.0158  0.3333
42483SOL    HW139173   5.432  10.715   5.480 -0.0486 -0.4295  0.3244
42483SOL    HW239174   5.305  10.658   5.539 -2.9278  3.8995 -1.2444
42484SOL     OW39175  10.934   4.857   5.550 -0.0989 -0.4272 -0.0957
42484SOL    HW139176  11.027   4.871   5.535 -0.1986  0.8430  0.3730
42484SOL    HW239177  10.894   4.943   5.537 -1.0373 -0.6918  0.9043
42485SOL     OW39178   0.738   5.900   7.024 -0.7878  0.1811 -0.1592
42485SOL    HW139179   0.755   5.869   6.935  0.1463  0.6013 -0.1373
42485SOL    HW239180   0.821   5.938   7.053 -1.2711  0.6562  0.6488
42486SOL     OW39181   2.737   7.753   6.437 -0.2524  0.0017 -0.1984
42486SOL    HW139182   2.674   7.824   6.456  1.3775  1.4289  0.1432
42486SOL    HW239183   2.694   7.701   6.370 -3.3894 -1.2963  2.5103
42487SOL     OW39184   9.013   0.943   1.248  0.1210 -0.2290  0.0885
42487SOL    HW139185   9.053   0.903   1.170 -0.0820 -3.2303  1.3998
42487SOL    HW239186   9.084   0.947   1.312 -0.5214 -1.1518  0.8853
42488SOL     OW39187  11.419  10.697   7.350 -0.2183 -0.0722 -0.3784
42488SOL    HW139188  11.432  10.622   7.292  0.0934  0.8296 -1.5067
42488SOL    HW239189  11.330  10.727   7.329 -1.3388 -1.5649  1.8271
42489SOL     OW39190   0.676   3.329  10.960 -0.4408  0.4613 -0.0272
42489SOL    HW139191   0.603   3.272  10.985 -1.0434  1.0255 -0.4492
42489SOL    HW239192   0.723   3.280  10.893 -0.1632 -0.0972  0.5721
42490SOL     OW39193   2.736  11.684   3.988 -0.3127 -0.4160  0.2118
42490SOL    HW139194   2.692  11.717   3.909  1.0129  0.0342 -0.3573
42490SOL    HW239195   2.793  11.615   3.956 -0.3020 -0.7261  0.8926
42491SOL     OW39196   7.937   0.983   9.745 -0.0078 -0.9517 -1.0071
42491SOL    HW139197   7.873   0.973   9.815 -1.0589  0.8950 -1.6370
42491SOL    HW239198   7.970   1.072   9.755  1.8631 -1.5628 -1.2476
42492SOL     OW39199   3.580   6.191   1.450  0.3121 -0.5036  0.2146
42492SOL    HW139200   3.506   6.132   1.434  0.9267 -0.7141 -2.4057
42492SOL    HW239201   3.561   6.232   1.534 -2.2661 -1.2989  0.1094
42493SOL     OW39202   9.666   0.803   2.959 -0.0432 -0.6080  0.1881
42493SOL    HW139203   9.644   0.875   2.901  0.2693  1.3636  2.3516
42493SOL    HW239204   9.734   0.755   2.913  0.6293  1.2351 -0.8456
42494SOL     OW39205   4.878   7.158   4.912 -0.8813 -0.3205  0.5449
42494SOL    HW139206   4.855   7.125   4.999  0.2804 -2.4832  0.1140
42494SOL    HW239207   4.812   7.121   4.853 -1.6266  1.0792  0.4588
42495SOL     OW39208   5.782   3.266   9.594 -0.3321 -0.4679  0.7388
42495SOL    HW139209   5.692   3.263   9.627 -0.8419 -1.3403 -0.6135
42495SOL    HW239210   5.833   3.216   9.658 -0.9482 -0.6263  1.1157
42496SOL     OW39211   8.500   8.184   8.136 -0.1916  0.0799  0.1693
42496SOL    HW139212   8.593   8.168   8.117 -0.8546 -2.5684 -1.3150
42496SOL    HW239213   8.455   8.108   8.100 -3.0506  1.6386  0.1994
42497SOL     OW39214   8.153   7.186   3.621  0.4767  0.0397  0.0263
42497SOL    HW139215   8.060   7.181   3.600  0.8038 -1.1772 -1.2703
42497SOL    HW239216   8.167   7.278   3.644 -1.4357 -0.1712  2.4044
42498SOL     OW39217   2.608   6.451   9.214 -0.1655  0.2397 -0.1141
42498SOL    HW139218   2.554   6.393   9.161 -0.8940  0.5743  0.2508
42498SOL    HW239219   2.610   6.534   9.166  1.1316 -0.1485 -0.7941
42499SOL     OW39220   2.032  11.542   4.813 -0.1960  0.2481  0.4922
42499SOL    HW139221   2.056  11.609   4.749  2.2303 -0.1239  0.9033
42499SOL    HW239222   2.061  11.460   4.774  1.2496  0.0054  1.9667
42500SOL     OW39223   2.351   8.670   3.834 -0.6000  0.0333 -0.5059
42500SOL    HW139224   2.346   8.752   3.785 -1.4367  0.0319 -0.4348
42500SOL    HW239225   2.322   8.603   3.773  0.1166 -0.2230 -0.5756
42501SOL     OW39226  10.576   5.593   7.212  0.3596  0.5976  0.3772
42501SOL    HW139227  10.575   5.617   7.120 -1.8669 -0.1874  0.1323
42501SOL    HW239228  10.655   5.634   7.247  1.4719  0.5917 -1.9375
42502SOL     OW39229   1.642   3.549   9.085 -0.2277  0.4704  0.4441
42502SOL    HW139230   1.572   3.578   9.143  0.0589  0.7125  0.6686
42502SOL    HW239231   1.679   3.630   9.049 -1.5375  0.2935 -1.4464
42503SOL     OW39232  10.544   4.867   1.373 -0.5056 -0.0544 -0.2451
42503SOL    HW139233  10.515   4.780   1.344 -0.2044 -0.1696 -0.2130
42503SOL    HW239234  10.515   4.926   1.304 -0.1541 -0.2703 -0.5873
42504SOL     OW39235   2.723   6.248   3.094 -0.6548  0.2018  0.5615
42504SOL    HW139236   2.666   6.174   3.074 -1.6294  1.3790 -1.4285
42504SOL    HW239237   2.705   6.311   3.023  0.0420  2.3687  2.2055
42505SOL     OW39238  10.689  11.896   7.886  0.0758  0.4378  0.2592
42505SOL    HW139239  10.657  11.928   7.802 -0.0014  0.8701  0.4510
42505SOL    HW239240  10.784  11.894   7.876  0.0659  0.4820  0.1551
42506SOL     OW39241   2.370   7.929   8.246 -0.3340  0.4044 -0.0745
42506SOL    HW139242   2.446   7.944   8.190  0.7385 -1.0295  0.9231
42506SOL    HW239243   2.353   7.835   8.240  1.6328 -0.4324  4.0398
42507SOL     OW39244   2.687   2.750   0.107  0.2218  0.1533 -0.3792
42507SOL    HW139245   2.659   2.840   0.095  1.3423  0.7207  1.0290
42507SOL    HW239246   2.615   2.707   0.153  0.1084  0.6082 -0.1315
42508SOL     OW39247  10.869  11.235  10.181 -0.3050 -0.4042  0.7708
42508SOL    HW139248  10.863  11.318  10.228 -0.7044 -1.2743  2.3495
42508SOL    HW239249  10.780  11.219  10.150  0.0464  0.3751 -0.7051
42509SOL     OW39250  10.235   5.579   1.944 -0.0747  0.0169  0.0543
42509SOL    HW139251  10.321   5.620   1.937 -0.2741  0.2910 -0.9921
42509SOL    HW239252  10.230   5.549   2.035  1.5097 -0.8322 -0.0841
42510SOL     OW39253   5.279   9.949   2.164 -0.8622  0.0569 -0.3008
42510SOL    HW139254   5.263  10.043   2.173  1.3112  0.4622 -0.3224
42510SOL    HW239255   5.293   9.936   2.071 -0.1484 -0.0964 -0.1782
42511SOL     OW39256   7.176   2.769   3.872 -0.0037 -0.2409  0.5394
42511SOL    HW139257   7.212   2.733   3.953 -0.3087  0.8312  1.1715
42511SOL    HW239258   7.169   2.863   3.888  1.9085  0.3238 -1.4948
42512SOL     OW39259   2.937   1.047   9.217  0.7098 -0.3230 -0.5600
42512SOL    HW139260   2.878   1.081   9.149 -0.8172 -0.1437  0.7918
42512SOL    HW239261   3.000   1.118   9.232  0.1738  0.2130 -0.7792
42513SOL     OW39262   7.501   3.700   2.198 -0.3213 -0.3615 -0.2282
42513SOL    HW139263   7.566   3.692   2.268 -0.3572 -1.4119 -0.2980
42513SOL    HW239264   7.471   3.791   2.203  1.3185  0.2196 -0.3402
42514SOL     OW39265   8.044   2.889   9.941  0.7111 -0.3120  0.1858
42514SOL    HW139266   8.111   2.849   9.996  1.2006  1.4307  0.8952
42514SOL    HW239267   8.034   2.977   9.975 -0.8702 -0.0432 -0.8815
42515SOL     OW39268   9.096   5.795   0.913  0.0778  0.4643  0.0433
42515SOL    HW139269   9.077   5.875   0.864  0.7264  0.8156  0.3368
42515SOL    HW239270   9.144   5.739   0.852 -0.6361  0.1712 -0.2543
42516SOL     OW39271   3.966   0.663   6.028  0.5520 -0.2762  1.0447
42516SOL    HW139272   4.012   0.743   6.003  0.1694  0.0375  1.3394
42516SOL    HW239273   3.879   0.692   6.055 -0.3847 -1.0053 -0.9480
42517SOL     OW39274   0.472  10.145   5.272  0.2360  0.7909 -0.4758
42517SOL    HW139275   0.522  10.227   5.273 -0.2427  1.0979 -1.1822
42517SOL    HW239276   0.484  10.110   5.184  1.9771 -0.8872  0.3488
42518SOL     OW39277  11.002   4.825   1.207  0.0720  0.3805 -0.1809
42518SOL    HW139278  11.097   4.826   1.210  0.1175 -0.8108 -0.5316
42518SOL    HW239279  10.978   4.744   1.253 -0.5107 -1.8923 -3.9939
42519SOL     OW39280   5.947   3.059  10.536 -0.4528 -0.0806 -0.1970
42519SOL    HW139281   5.858   3.048  10.569 -0.1067 -0.8839  0.5397
42519SOL    HW239282   5.963   3.153  10.540 -0.9953 -0.0082  0.4220
42520SOL     OW39283   3.220   9.135   3.184 -0.2524  0.2623 -0.3311
42520SOL    HW139284   3.256   9.093   3.105  0.1997 -0.2756  0.1523
42520SOL    HW239285   3.253   9.082   3.256  0.8855  1.8420  0.3491
42521SOL     OW39286   3.500   5.557   5.645  0.2294  0.2983  0.1114
42521SOL    HW139287   3.411   5.524   5.655  0.3661 -0.6834 -1.5555
42521SOL    HW239288   3.488   5.647   5.613 -0.1755  0.0824 -0.3640
42522SOL     OW39289   0.337   3.784   2.805 -0.1626 -0.0031 -0.5052
42522SOL    HW139290   0.284   3.712   2.839  1.0976 -1.2779 -1.1737
42522SOL    HW239291   0.424   3.747   2.793  0.5963  1.7111 -0.6188
42523SOL     OW39292  10.095   2.541   4.272  0.4140 -0.3019  0.2601
42523SOL    HW139293  10.137   2.457   4.288  2.0952  0.7070  1.5349
42523SOL    HW239294  10.149   2.583   4.206 -0.1229  0.0013  0.0030
42524SOL     OW39295   5.550   4.288   3.443  0.2001  0.3143 -0.9281
42524SOL    HW139296   5.638   4.324   3.453  0.2189  0.2737 -0.9487
42524SOL    HW239297   5.538   4.233   3.521  0.7077 -0.7546 -1.5783
42525SOL     OW39298   0.067   1.329   8.519  0.3370 -0.1310  0.2171
42525SOL    HW139299   0.077   1.279   8.600  0.9928 -0.6283 -0.1611
42525SOL    HW239300   0.096   1.269   8.450  2.6717  1.2567 -0.1200
42526SOL     OW39301   5.705   6.872   9.569 -0.3854 -0.4464 -0.5249
42526SOL    HW139302   5.708   6.789   9.617  1.3455 -0.6008 -0.8387
42526SOL    HW239303   5.771   6.862   9.501 -0.3439  1.0983 -0.7381
42527SOL     OW39304   7.657   6.757   7.413  0.4881 -0.1442  0.1401
42527SOL    HW139305   7.620   6.714   7.335  2.1470 -2.6001  0.5936
42527SOL    HW239306   7.600   6.832   7.428 -0.5940 -0.2712 -2.7297
42528SOL     OW39307   1.511   8.222   4.895 -0.3293 -0.3361  0.3032
42528SOL    HW139308   1.509   8.223   4.799  1.7074  0.3486  0.2118
42528SOL    HW239309   1.481   8.135   4.920  0.0962 -0.8807 -1.0218
42529SOL     OW39310   5.992   0.726  11.947  0.2218  0.0822  0.1943
42529SOL    HW139311   5.996   0.817  11.976 -0.4192  0.2957 -0.3515
42529SOL    HW239312   6.074   0.687  11.977  0.5368  0.8601  0.3648
42530SOL     OW39313   5.993   6.954   6.818  0.0846 -0.0741  0.5062
42530SOL    HW139314   5.984   6.937   6.912 -0.0916 -0.0701  0.4905
42530SOL    HW239315   5.923   6.902   6.778  0.6999 -0.7636  0.3047
42531SOL     OW39316   3.121   0.559  10.397 -0.0671  0.1431 -0.3016
42531SOL    HW139317   3.093   0.563  10.305 -0.8035  0.4096 -0.0690
42531SOL    HW239318   3.073   0.484  10.433 -0.2810  0.4387  0.0314
42532SOL     OW39319   1.468  11.820   3.227  0.2764  0.1669 -0.1044
42532SOL    HW139320   1.444  11.908   3.255 -0.4550 -0.8165  2.7582
42532SOL    HW239321   1.556  11.806   3.264  0.4375 -0.2561 -0.6361
42533SOL     OW39322   2.415   8.146   0.329 -0.7180  0.2883  0.5006
42533SOL    HW139323   2.494   8.097   0.308  0.8065  1.7083  2.4324
42533SOL    HW239324   2.386   8.183   0.246  0.3155 -0.7236 -0.3366
42534SOL     OW39325   8.207  11.535   6.029  0.2640 -0.2200 -0.5429
42534SOL    HW139326   8.143  11.606   6.031  0.0439 -0.4371  0.7828
42534SOL    HW239327   8.288  11.576   6.002 -0.0851  0.3511 -0.7347
42535SOL     OW39328   3.082   6.894   0.075 -0.0121 -0.3755  0.5959
42535SOL    HW139329   3.077   6.799   0.083 -0.6213 -0.5892 -1.4980
42535SOL    HW239330   2.996   6.919   0.041  0.7471  0.6793 -0.6350
42536SOL     OW39331   3.943   1.135   7.724 -0.4350  0.0129 -0.0998
42536SOL    HW139332   3.855   1.130   7.689  0.1239 -2.7832 -1.3875
42536SOL    HW239333   3.989   1.196   7.667 -1.2035  0.4623 -0.2416
42537SOL     OW39334   0.542   1.947   2.328  0.3817  0.1114 -0.1116
42537SOL    HW139335   0.530   2.005   2.252  0.4221 -0.5181 -0.6077
42537SOL    HW239336   0.636   1.930   2.331  0.1964 -1.1829 -0.9324
42538SOL     OW39337   7.832   0.482   7.825 -0.2382  0.0166 -0.2795
42538SOL    HW139338   7.784   0.546   7.772  0.2558  0.2243 -0.4897
42538SOL    HW239339   7.924   0.507   7.815 -0.0949 -0.2838  0.2319
42539SOL     OW39340   4.362   2.569   1.241  0.2919  0.5751 -0.5754
42539SOL    HW139341   4.430   2.543   1.179  0.7525  0.5792 -0.0758
42539SOL    HW239342   4.368   2.665   1.244  0.3616  0.5650 -0.4169
42540SOL     OW39343   0.824  11.770   4.963 -0.0267 -0.3985  0.0854
42540SOL    HW139344   0.819  11.808   4.876 -1.0029  1.2486  0.8145
42540SOL    HW239345   0.739  11.728   4.976  0.2505 -0.9602  0.1222
42541SOL     OW39346  11.085   4.775   2.112  0.2310  0.0328 -0.3988
42541SOL    HW139347  11.006   4.725   2.131 -0.4714  1.2939  0.1240
42541SOL    HW239348  11.148   4.710   2.082 -1.0311 -0.9793 -0.9330
42542SOL     OW39349  10.040   6.160   6.860  0.3615  0.4927 -0.2510
42542SOL    HW139350  10.094   6.229   6.899  0.4099 -0.8423  2.2622
42542SOL    HW239351   9.970   6.146   6.924 -0.2111 -1.0891 -1.1709
42543SOL     OW39352   7.924  11.113  11.619  0.8857  0.1135  0.1178
42543SOL    HW139353   8.018  11.097  11.613  1.1241  0.5313  2.0683
42543SOL    HW239354   7.896  11.064  11.696 -0.3977  0.4217 -0.1221
42544SOL     OW39355   8.767   3.713   5.750 -0.2124  0.5242  0.4624
42544SOL    HW139356   8.695   3.679   5.802 -0.1255 -1.0393 -0.3863
42544SOL    HW239357   8.846   3.688   5.798 -0.1452 -0.6125 -0.2071
42545SOL     OW39358   0.647   5.101   7.153  0.0521  0.4932 -0.0411
42545SOL    HW139359   0.705   5.172   7.181 -1.3060  1.1091  1.3555
42545SOL    HW239360   0.605   5.135   7.074  0.5887  0.5772 -0.2999
42546SOL     OW39361  10.905   1.892   0.534  0.0443 -0.1899  0.4250
42546SOL    HW139362  10.860   1.857   0.457  0.0025 -0.8851  0.7535
42546SOL    HW239363  10.926   1.982   0.511 -0.9097 -0.0637  0.0033
42547SOL     OW39364   3.860   6.337   6.163  0.2272 -0.3173 -0.0932
42547SOL    HW139365   3.932   6.343   6.226 -1.4264 -0.4123  1.9200
42547SOL    HW239366   3.844   6.243   6.154  0.4128 -0.3002 -0.6139
42548SOL     OW39367   1.945   6.591   3.089  0.5630 -0.6558  0.3623
42548SOL    HW139368   1.966   6.604   2.997 -1.2927 -1.0011 -0.1541
42548SOL    HW239369   1.908   6.675   3.117  2.1454 -0.1872  1.1255
42549SOL     OW39370   8.136   8.111   3.205  0.3974 -0.0556  0.3285
42549SOL    HW139371   8.084   8.086   3.129  0.5904 -0.4619  0.3246
42549SOL    HW239372   8.182   8.191   3.178  0.8350 -0.4621 -0.1549
42550SOL     OW39373   2.621  11.011   0.689 -0.1931 -0.4657 -0.6317
42550SOL    HW139374   2.687  10.951   0.653  0.4052  0.6559 -1.4664
42550SOL    HW239375   2.661  11.098   0.681 -0.4944 -0.0401  1.7432
42551SOL     OW39376   8.413   8.902   1.604  0.3793  0.1233 -0.3590
42551SOL    HW139377   8.505   8.883   1.623  0.0471  0.3139  1.5922
42551SOL    HW239378   8.365   8.869   1.679 -1.1653  0.0899 -1.3170
42552SOL     OW39379  10.322   3.751   5.636 -0.1031  0.8101 -0.2573
42552SOL    HW139380  10.280   3.787   5.714  0.1206  1.4299 -0.4221
42552SOL    HW239381  10.399   3.805   5.622 -0.3661  0.9771 -1.1495
42553SOL     OW39382   4.059   3.177   1.420 -0.2629  0.2056 -0.1115
42553SOL    HW139383   4.047   3.266   1.385 -1.3581 -0.4644 -1.5000
42553SOL    HW239384   4.101   3.191   1.505  0.5007  1.9984 -0.7354
42554SOL     OW39385   4.851   6.692   6.606 -0.1094  0.2145  0.2094
42554SOL    HW139386   4.897   6.704   6.689 -0.5795  0.9027  0.3749
42554SOL    HW239387   4.853   6.597   6.591  1.0994  0.1948  0.3555
42555SOL     OW39388   7.174   9.644   5.832 -0.3263 -0.0338 -0.6334
42555SOL    HW139389   7.109   9.687   5.887 -0.7056 -0.3437 -0.8392
42555SOL    HW239390   7.129   9.568   5.795  0.6629 -1.3348  0.6875
42556SOL     OW39391   2.232   9.082   8.897 -0.0939  0.0978 -0.2953
42556SOL    HW139392   2.295   9.027   8.851 -0.6137  0.2021 -1.1471
42556SOL    HW239393   2.183   9.127   8.828 -0.9797  0.1594  0.3460
42557SOL     OW39394   8.479  11.134   1.888 -0.1119 -0.0078  0.3814
42557SOL    HW139395   8.466  11.226   1.908  0.8442  0.6241 -1.5855
42557SOL    HW239396   8.571  11.117   1.907  0.4645  0.2562 -1.8427
42558SOL     OW39397   3.911   1.203   6.945 -0.0184  0.0544 -0.4381
42558SOL    HW139398   3.845   1.270   6.931 -2.5060 -2.5379 -2.1948
42558SOL    HW239399   3.923   1.200   7.040 -1.9911  1.0260 -0.1268
42559SOL     OW39400   3.392   3.481   3.403  0.2635  0.5648  0.0722
42559SOL    HW139401   3.367   3.482   3.310 -1.1948 -1.0892  0.3914
42559SOL    HW239402   3.314   3.511   3.449  0.0102 -1.2183  0.8974
42560SOL     OW39403   9.000  10.832  11.500 -0.3307  0.0626 -0.3612
42560SOL    HW139404   9.021  10.753  11.550  0.8900  0.1946 -0.6343
42560SOL    HW239405   8.914  10.815  11.462  0.3378 -1.5500 -1.2172
42561SOL     OW39406   1.334   2.587   4.510 -0.1003  0.7264 -0.3128
42561SOL    HW139407   1.395   2.560   4.579 -1.1519 -0.4584  0.1760
42561SOL    HW239408   1.329   2.511   4.452  0.7927  1.7148 -1.7629
42562SOL     OW39409  10.825   0.512   7.015  0.0424 -0.4558 -0.5119
42562SOL    HW139410  10.864   0.425   7.028  1.2599 -0.3755 -3.0149
42562SOL    HW239411  10.888   0.573   7.054 -0.0592 -0.6009 -0.1157
42563SOL     OW39412   4.766   7.618   8.878 -0.1814  0.1477  0.5562
42563SOL    HW139413   4.777   7.658   8.965 -1.8542  0.6846  0.5578
42563SOL    HW239414   4.734   7.690   8.823  1.2915 -0.0804 -0.6421
42564SOL     OW39415  11.372   1.281  11.522 -0.3386  0.0492  0.2095
42564SOL    HW139416  11.276   1.273  11.518 -0.1524 -3.1211 -0.5151
42564SOL    HW239417  11.392   1.281  11.616 -0.9909 -1.7313  0.3929
42565SOL     OW39418   3.377   7.035  10.458 -0.4276 -0.3247  0.2023
42565SOL    HW139419   3.337   6.964  10.508 -1.7716 -0.1512 -0.5784
42565SOL    HW239420   3.471   7.019  10.464 -0.6443 -3.9339 -2.3536
42566SOL     OW39421   2.648   5.198   3.701 -0.2838  0.3799 -0.2900
42566SOL    HW139422   2.585   5.227   3.767  2.1346  0.1149  2.2786
42566SOL    HW239423   2.667   5.107   3.725 -0.2158 -0.1318 -2.1319
42567SOL     OW39424   5.227   3.280   1.465 -0.1701  0.0311  0.0591
42567SOL    HW139425   5.281   3.201   1.468  0.5929  0.5709  1.8697
42567SOL    HW239426   5.266   3.339   1.530  0.3408  2.6166 -2.3498
42568SOL     OW39427   3.558   2.377   7.965 -0.1000 -0.3612 -0.3049
42568SOL    HW139428   3.523   2.448   7.910 -1.4417 -0.5914  0.2160
42568SOL    HW239429   3.551   2.299   7.910  0.2508 -0.2962 -0.4452
42569SOL     OW39430  11.174   5.552   7.790 -0.2613  0.5464 -0.0186
42569SOL    HW139431  11.207   5.473   7.748  0.6431 -0.6460  2.7190
42569SOL    HW239432  11.089   5.526   7.827 -0.8540  1.4346 -0.7305
42570SOL     OW39433   6.671   6.094   3.996  0.3086 -0.2550 -0.3666
42570SOL    HW139434   6.662   6.111   3.902  0.9693  0.6613 -0.2763
42570SOL    HW239435   6.737   6.025   4.002  0.5669 -0.0290 -0.5664
42571SOL     OW39436   5.975   1.100   6.842  0.1416  0.1514  0.1433
42571SOL    HW139437   5.924   1.037   6.893 -1.8691  0.4875 -1.3282
42571SOL    HW239438   6.064   1.065   6.842 -1.0360 -3.2718 -1.4033
42572SOL     OW39439   7.496  10.335   9.515 -0.2765  0.4684 -0.4311
42572SOL    HW139440   7.467  10.327   9.606 -1.8167 -0.6351 -0.9754
42572SOL    HW239441   7.491  10.246   9.481  1.7123  0.6081 -1.2202
42573SOL     OW39442  11.199   0.335   6.690 -0.2804  0.6044 -0.2461
42573SOL    HW139443  11.143   0.283   6.748 -0.2079  1.5543  0.7016
42573SOL    HW239444  11.208   0.281   6.611 -0.4971 -0.6666  0.5591
42574SOL     OW39445   2.290   5.194   9.689  0.0250  0.0342  0.2593
42574SOL    HW139446   2.299   5.100   9.676  0.4953  0.1149 -0.0170
42574SOL    HW239447   2.352   5.215   9.759 -1.8114 -0.2408  2.0705
42575SOL     OW39448  11.153   0.659   8.071  0.5515  0.1307  0.3188
42575SOL    HW139449  11.222   0.689   8.130 -0.3259  1.0712  0.8919
42575SOL    HW239450  11.091   0.613   8.128  0.2476  0.0854 -0.0458
42576SOL     OW39451   7.419   0.370   3.621 -0.2832  0.0514  0.2719
42576SOL    HW139452   7.385   0.392   3.535 -2.1172  1.7516  1.3575
42576SOL    HW239453   7.342   0.341   3.671  0.7945 -1.2789  1.2517
42577SOL     OW39454   6.249   7.663   3.020  0.2816  0.2806 -0.1878
42577SOL    HW139455   6.261   7.749   2.981 -0.0369 -0.4812 -2.0944
42577SOL    HW239456   6.297   7.667   3.103 -0.7538  2.6520  0.3737
42578SOL     OW39457   3.808   2.252   6.105 -0.0583 -0.0321 -0.2215
42578SOL    HW139458   3.836   2.167   6.139  0.8668  0.5994  0.6528
42578SOL    HW239459   3.718   2.261   6.134 -0.1126 -0.6405 -0.1889
42579SOL     OW39460   3.174   5.927  10.425  0.3863  0.2838  0.1811
42579SOL    HW139461   3.145   5.975  10.502 -0.3258 -0.2965  0.2955
42579SOL    HW239462   3.262   5.896  10.447  0.4216  0.6276  0.5228
42580SOL     OW39463   9.209   4.249  10.957 -0.3647  0.2175 -0.0182
42580SOL    HW139464   9.235   4.341  10.954 -0.1979  0.1627 -0.2972
42580SOL    HW239465   9.233   4.219  11.044 -0.5562  0.4786  0.1248
42581SOL     OW39466  10.126   1.240   8.984  0.0552 -0.5103 -0.1375
42581SOL    HW139467  10.155   1.253   9.075 -1.5293  0.9417  0.2102
42581SOL    HW239468  10.043   1.287   8.978 -0.2263 -1.1566 -2.1749
42582SOL     OW39469   0.366  10.474   6.418 -0.1341 -0.4483  0.1096
42582SOL    HW139470   0.284  10.434   6.390 -0.4602 -0.2488  0.7501
42582SOL    HW239471   0.394  10.421   6.494 -1.9179  1.9919  2.6699
42583SOL     OW39472   8.572   0.273   3.692 -0.4107 -0.1000  0.8195
42583SOL    HW139473   8.631   0.347   3.683  1.4591 -1.5393  0.6371
42583SOL    HW239474   8.486   0.308   3.671  0.3285  2.1058  1.2125
42584SOL     OW39475   8.358   8.250  10.712  0.0457 -0.6902 -0.0137
42584SOL    HW139476   8.422   8.203  10.766  0.4203 -0.8836 -0.6171
42584SOL    HW239477   8.400   8.334  10.692 -0.1857 -0.5248  0.1738
42585SOL     OW39478   9.049   4.135   9.843 -0.4844  0.3468  0.4730
42585SOL    HW139479   9.121   4.129   9.781 -0.4914  2.0804  0.2356
42585SOL    HW239480   8.977   4.087   9.802  0.1981 -0.4516  0.2050
42586SOL     OW39481   4.976   3.477   8.152 -0.0187  0.6140  0.0418
42586SOL    HW139482   5.009   3.397   8.112 -0.6013  0.5476 -0.3172
42586SOL    HW239483   5.053   3.517   8.193  0.0301 -0.9138  1.5863
42587SOL     OW39484   7.084   8.739   2.277  0.3252  0.0221  0.2375
42587SOL    HW139485   7.011   8.799   2.259  0.9037  0.5268 -0.4635
42587SOL    HW239486   7.084   8.679   2.202  0.6885  0.0794  0.1915
42588SOL     OW39487   9.421  11.511   1.185 -0.0737 -0.2128 -0.0824
42588SOL    HW139488   9.434  11.569   1.110  0.8472 -2.7128 -2.0027
42588SOL    HW239489   9.411  11.570   1.260  0.6497  2.3835 -1.8996
42589SOL     OW39490   4.720  11.952   3.526  0.5553 -0.3807 -0.5371
42589SOL    HW139491   4.813  11.958   3.547  0.3562  1.0244  0.0146
42589SOL    HW239492   4.707  12.017   3.456  0.0081 -0.6683 -0.7123
42590SOL     OW39493   9.801   7.907  10.563  0.2512 -0.1441 -0.3530
42590SOL    HW139494   9.847   7.841  10.615 -0.4622  0.0195  0.5130
42590SOL    HW239495   9.843   7.903  10.477  0.3487 -1.6015 -0.2688
42591SOL     OW39496   2.679   6.465   4.737 -0.1641  0.2004 -0.0889
42591SOL    HW139497   2.603   6.502   4.781 -0.6341  1.0352 -1.5479
42591SOL    HW239498   2.651   6.453   4.646  0.8404 -1.2823 -0.2304
42592SOL     OW39499  11.111   6.059   6.907 -0.3933 -0.9335  1.0984
42592SOL    HW139500  11.028   6.073   6.864 -0.9321  0.5887  2.5087
42592SOL    HW239501  11.094   5.990   6.971 -0.2887 -1.3381  0.6945
42593SOL     OW39502   3.261   1.713   4.080  0.6019 -0.0529  0.1491
42593SOL    HW139503   3.332   1.712   4.016  1.5092 -2.0589  1.0782
42593SOL    HW239504   3.188   1.755   4.035  1.4925 -0.5253 -1.8481
42594SOL     OW39505   2.632   1.207   8.144  0.1299  0.0037  0.0327
42594SOL    HW139506   2.548   1.228   8.104 -0.3215 -0.8549  0.5128
42594SOL    HW239507   2.664   1.131   8.095 -0.5824 -1.2678  1.4581
42595SOL     OW39508   5.072   1.600   2.116 -0.0626 -0.1138 -0.0324
42595SOL    HW139509   5.068   1.595   2.212  0.4761 -1.0454 -0.0519
42595SOL    HW239510   5.013   1.672   2.094  1.4481  1.5788  1.1289
42596SOL     OW39511   2.312   9.690   7.887  0.4070 -0.0863  0.3638
42596SOL    HW139512   2.314   9.625   7.957 -0.9900 -0.3917  0.1477
42596SOL    HW239513   2.321   9.640   7.806 -0.2695  0.0039  0.2209
42597SOL     OW39514   0.990   1.721   3.649  0.2956  0.5557 -0.2416
42597SOL    HW139515   1.038   1.657   3.596  0.4256  0.6850 -0.2801
42597SOL    HW239516   1.058   1.776   3.687  0.1871  0.6312 -0.1569
42598SOL     OW39517   0.995  11.143  11.225 -0.5953  0.2392  0.1521
42598SOL    HW139518   1.052  11.075  11.191 -2.1341 -0.2744 -1.5740
42598SOL    HW239519   1.027  11.224  11.185 -0.4059  0.1335  0.0906
42599SOL     OW39520   2.564   0.775   0.527 -0.2802  0.1427 -0.0389
42599SOL    HW139521   2.618   0.770   0.606 -1.7242 -0.0926  0.9755
42599SOL    HW239522   2.477   0.801   0.558 -0.5160  1.6280 -1.7463
42600SOL     OW39523   0.794   9.939   0.246 -0.0920  0.3585  0.1936
42600SOL    HW139524   0.792  10.035   0.247  1.1183  0.4002  1.2437
42600SOL    HW239525   0.781   9.914   0.338 -0.3701 -0.4952 -0.0681
42601SOL     OW39526   5.265   2.060   3.528  0.0325 -0.4066 -0.5532
42601SOL    HW139527   5.179   2.022   3.543  0.5722 -2.3398 -1.9053
42601SOL    HW239528   5.324   2.008   3.583  0.8030 -1.7270 -2.5045
42602SOL     OW39529   2.248   8.201   5.227 -0.0912 -0.3518  0.1510
42602SOL    HW139530   2.259   8.158   5.142 -1.8267  1.9196 -1.3406
42602SOL    HW239531   2.166   8.164   5.262 -1.8263  1.8529 -1.3367
42603SOL     OW39532   0.543   0.255  10.543 -0.1244 -0.4941 -0.0436
42603SOL    HW139533   0.638   0.261  10.533 -0.1652 -1.3636 -1.1717
42603SOL    HW239534   0.531   0.194  10.615  0.1442  1.8281  2.1428
42604SOL     OW39535  10.114   8.637   8.565  0.0271  0.0407 -0.3549
42604SOL    HW139536  10.095   8.543   8.555  1.6215 -0.5375  1.4647
42604SOL    HW239537  10.096   8.674   8.479 -1.4673 -1.7704 -0.8963
42605SOL     OW39538   9.529   5.672   4.097 -0.1404 -0.1370 -0.1251
42605SOL    HW139539   9.584   5.629   4.031 -0.1508  3.3839 -2.7407
42605SOL    HW239540   9.442   5.677   4.056 -1.1964 -1.1568  1.8459
42606SOL     OW39541   1.913   6.447  11.410 -0.3367  0.2125 -0.2302
42606SOL    HW139542   1.926   6.446  11.315  2.1447 -1.4117  0.0452
42606SOL    HW239543   1.932   6.358  11.438  1.0064  1.1351  2.0059
42607SOL     OW39544   0.215   9.068   7.903 -0.2922 -0.1788 -0.0266
42607SOL    HW139545   0.222   9.083   7.809  1.5450  0.0404  0.1132
42607SOL    HW239546   0.246   8.978   7.915 -0.4780 -0.1912  0.3752
42608SOL     OW39547   3.995   2.483   6.168 -0.6943 -0.0299 -0.2788
42608SOL    HW139548   3.970   2.492   6.260  0.2024  0.3792 -0.0600
42608SOL    HW239549   3.946   2.407   6.137  0.0091 -1.0069  0.9119
42609SOL     OW39550   8.636   2.792   0.411 -0.3051  0.1443  0.2903
42609SOL    HW139551   8.689   2.836   0.477  1.8623 -1.7558 -0.0775
42609SOL    HW239552   8.561   2.759   0.459  0.2510  0.4591  1.4077
42610SOL     OW39553   3.681  11.406   4.065  0.3033  0.5279  0.0744
42610SOL    HW139554   3.640  11.486   4.033  0.4723  0.1982 -1.0037
42610SOL    HW239555   3.762  11.398   4.014  0.8655  0.2647  0.9681
42611SOL     OW39556   0.636  11.341   7.608  0.5221  0.5331 -0.1568
42611SOL    HW139557   0.550  11.313   7.641  1.0897 -0.4407  0.5529
42611SOL    HW239558   0.624  11.347   7.513 -0.5110  1.0967 -0.0081
42612SOL     OW39559   8.342   2.815   1.056  0.4770  0.0991  0.6241
42612SOL    HW139560   8.325   2.797   1.149  0.3148  0.0728  0.5895
42612SOL    HW239561   8.255   2.816   1.016  0.4981  0.7512  0.5865
42613SOL     OW39562  11.211   8.298  11.267  0.0150 -0.0174 -0.7712
42613SOL    HW139563  11.260   8.380  11.275  0.3518 -0.2887  0.0980
42613SOL    HW239564  11.131   8.323  11.221  0.9856  0.4149 -2.3029
42614SOL     OW39565   3.449   2.620   7.869 -0.6348  0.5010  0.4542
42614SOL    HW139566   3.363   2.660   7.865 -0.2088  1.4226  0.2396
42614SOL    HW239567   3.474   2.606   7.778 -1.5342 -2.0111  0.4981
42615SOL     OW39568   1.580   1.453   4.239  0.3766 -0.0901 -0.2389
42615SOL    HW139569   1.526   1.472   4.315  1.4284 -0.0034  0.5184
42615SOL    HW239570   1.669   1.448   4.274  0.9462  0.4429 -1.5378
42616SOL     OW39571   6.219   2.644   5.063  0.0539 -0.5331 -0.5910
42616SOL    HW139572   6.227   2.581   5.135  0.6957 -0.1875 -0.3460
42616SOL    HW239573   6.144   2.699   5.086  0.9660  0.3284  0.4277
42617SOL     OW39574   3.051   0.984   5.319 -0.4857  0.3093  0.4541
42617SOL    HW139575   3.072   0.922   5.389  2.0932  0.2458 -0.2565
42617SOL    HW239576   3.134   0.995   5.272 -1.9961  0.6653 -2.3303
42618SOL     OW39577   3.444  10.724   4.179 -0.4651 -0.0940 -0.0099
42618SOL    HW139578   3.508  10.730   4.108 -1.2169  0.5415 -0.6562
42618SOL    HW239579   3.359  10.730   4.135 -0.9409  1.3318  1.0047
42619SOL     OW39580   0.399   1.150   5.344  0.5325 -0.3525  0.2251
42619SOL    HW139581   0.478   1.203   5.327 -0.1898  0.7112  0.1008
42619SOL    HW239582   0.333   1.187   5.286 -0.8656  0.6679  2.3479
42620SOL     OW39583   7.197   8.019   8.412  0.6667  0.0595 -0.0728
42620SOL    HW139584   7.105   7.994   8.417  0.5896  0.4978  1.0247
42620SOL    HW239585   7.195   8.113   8.395  0.9060  0.1288  0.2845
42621SOL     OW39586   6.299   2.917   8.106  0.1244 -0.0094  0.1461
42621SOL    HW139587   6.335   2.864   8.178 -0.1601 -0.7481 -0.2449
42621SOL    HW239588   6.319   2.867   8.027 -1.7738 -0.4799 -0.0826
42622SOL     OW39589   5.354   8.998   0.254  0.5799  0.2095  0.7127
42622SOL    HW139590   5.329   8.981   0.345  1.7201 -1.1880  0.8017
42622SOL    HW239591   5.439   8.955   0.244  0.5217  0.4159 -0.9985
42623SOL     OW39592  11.698   1.039   6.966  0.0489  0.5286  0.0740
42623SOL    HW139593  11.792   1.057   6.959  0.3803 -0.1058  2.1071
42623SOL    HW239594  11.665   1.107   7.026 -0.6609  0.3699 -0.1306
42624SOL     OW39595   7.736   8.312  11.772 -0.5115 -0.3396 -0.0533
42624SOL    HW139596   7.794   8.246  11.809  0.6731  0.0215 -1.1841
42624SOL    HW239597   7.793   8.385  11.750 -1.7196  0.8874  0.6959
42625SOL     OW39598   6.564   6.055  10.058 -0.0687  0.3477 -1.0859
42625SOL    HW139599   6.516   6.020   9.982 -1.9983  1.2969 -0.3657
42625SOL    HW239600   6.655   6.032  10.041 -0.6229 -0.6317 -3.0431
42626SOL     OW39601   7.130   5.452   3.578  0.0158  0.4327 -0.4391
42626SOL    HW139602   7.209   5.504   3.569  0.1053  0.4377  0.2670
42626SOL    HW239603   7.155   5.364   3.548 -0.2883  0.9057 -2.1545
42627SOL     OW39604   0.393   4.438   7.337 -0.0811 -0.1979  0.2115
42627SOL    HW139605   0.336   4.399   7.403 -0.1270  0.6347  0.6763
42627SOL    HW239606   0.347   4.518   7.310 -0.0906 -0.5575 -0.8796
42628SOL     OW39607  11.133   7.256   9.752 -0.2811  0.4225  0.0035
42628SOL    HW139608  11.190   7.282   9.823  1.6751  1.4665 -1.8477
42628SOL    HW239609  11.166   7.303   9.675 -1.5834 -1.4648 -1.8422
42629SOL     OW39610   2.102   9.063   8.209 -0.1590  0.6635  0.0444
42629SOL    HW139611   2.111   9.107   8.125 -1.4642  0.2613 -0.3359
42629SOL    HW239612   2.009   9.039   8.214  0.2226 -0.8251  0.8273
42630SOL     OW39613   1.954   8.771   7.027 -0.3296 -0.3479 -0.3527
42630SOL    HW139614   2.032   8.825   7.013  1.1072 -2.2412 -0.1395
42630SOL    HW239615   1.966   8.733   7.114 -1.9109 -0.0969  0.0145
42631SOL     OW39616   3.635   9.957   9.299 -0.3692  0.3484  0.0601
42631SOL    HW139617   3.703  10.024   9.308 -1.0830  1.0655  0.2436
42631SOL    HW239618   3.588   9.981   9.220 -1.1965  0.5938  0.6136
42632SOL     OW39619  10.239   1.574   5.325  0.1113 -0.0869  0.3024
42632SOL    HW139620  10.278   1.616   5.248 -0.3167  1.2084  0.7677
42632SOL    HW239621  10.261   1.632   5.397 -2.4825  0.6081  0.6212
42633SOL     OW39622   7.478   5.536   6.109 -0.0019  0.4626  0.1046
42633SOL    HW139623   7.481   5.515   6.203  0.2695 -0.8520 -0.1849
42633SOL    HW239624   7.553   5.490   6.072 -0.6309  0.2355 -0.9067
42634SOL     OW39625   4.606   1.783   9.680  0.1536  0.0668  0.4170
42634SOL    HW139626   4.667   1.728   9.728 -1.3944 -1.1841  1.0447
42634SOL    HW239627   4.559   1.723   9.622  0.6940  1.2662 -1.3573
42635SOL     OW39628   6.127   2.301   8.371  0.2592 -0.0626  0.3074
42635SOL    HW139629   6.031   2.292   8.368  0.3565 -1.5191  0.4552
42635SOL    HW239630   6.142   2.392   8.396 -1.1377 -0.2734  2.2030
42636SOL     OW39631   5.280   3.339   3.535  0.1401 -0.1460 -0.3649
42636SOL    HW139632   5.257   3.246   3.544  1.6655 -0.6182 -1.0141
42636SOL    HW239633   5.346   3.354   3.603  0.0858  0.3945 -0.4283
42637SOL     OW39634   3.346   9.992   0.666 -0.0157 -0.0062 -0.3999
42637SOL    HW139635   3.420   9.941   0.636 -1.3776 -2.7341  0.5274
42637SOL    HW239636   3.343   9.978   0.761 -1.1438  0.8530 -0.2718
42638SOL     OW39637   7.452  10.234   1.366  0.0064 -0.2899 -0.5666
42638SOL    HW139638   7.533  10.221   1.414  1.2947  0.0006 -2.5372
42638SOL    HW239639   7.434  10.328   1.375 -0.3344 -0.4209  0.1808
42639SOL     OW39640   9.313   4.055   8.166 -0.3219  0.3581 -0.1218
42639SOL    HW139641   9.247   3.987   8.170  0.4819 -0.3911  1.6698
42639SOL    HW239642   9.389   4.018   8.211  1.4395  1.0844 -2.3085
42640SOL     OW39643   8.727   0.762   1.873 -0.1548 -0.0500  0.3318
42640SOL    HW139644   8.695   0.848   1.845  1.1217  0.1085 -0.7159
42640SOL    HW239645   8.661   0.700   1.842  1.0073  0.1490 -2.8730
42641SOL     OW39646   4.987   7.699   8.035  0.1541  0.2347  0.2515
42641SOL    HW139647   5.047   7.661   7.971  0.3500 -0.0001  0.5711
42641SOL    HW239648   5.005   7.792   8.033 -0.4880  0.3532 -0.7101
42642SOL     OW39649  10.176  11.526   5.266 -0.2504 -0.3033  0.1182
42642SOL    HW139650  10.254  11.498   5.314  0.4444  1.4416  0.0829
42642SOL    HW239651  10.116  11.559   5.333 -0.4285 -0.4620  0.0374
42643SOL     OW39652  11.923   3.290   2.091  0.4010  0.0554 -0.2139
42643SOL    HW139653  11.867   3.262   2.019  0.1463  0.4072 -0.1600
42643SOL    HW239654  11.863   3.329   2.155  0.4267 -1.6850  0.9249
42644SOL     OW39655   1.237   9.703   8.360 -0.0426 -0.5511  0.2167
42644SOL    HW139656   1.183   9.649   8.418 -1.7964  0.3564 -0.4952
42644SOL    HW239657   1.327   9.683   8.386 -0.7333 -0.4315  3.0320
42645SOL     OW39658   5.230   1.016  11.575 -0.4969  0.2917  0.0100
42645SOL    HW139659   5.294   1.087  11.563 -1.0235  0.6960 -0.4414
42645SOL    HW239660   5.280   0.947  11.620 -0.2623  1.3801  1.5248
42646SOL     OW39661   8.067   2.763   1.773  0.1578  0.2544 -0.7407
42646SOL    HW139662   8.056   2.688   1.715  0.8524 -1.2826  1.0322
42646SOL    HW239663   8.142   2.740   1.828  0.4925  2.3340 -0.2503
42647SOL     OW39664   4.061   2.222   7.793  0.1756 -0.0802 -0.4499
42647SOL    HW139665   4.147   2.224   7.752 -0.2425  2.7443 -1.4178
42647SOL    HW239666   4.000   2.205   7.721 -0.1368 -2.1405  0.2371
42648SOL     OW39667   0.001   0.951   8.582 -0.1131  0.0683 -0.2109
42648SOL    HW139668  -0.077   0.897   8.570  0.0452  0.2790 -2.7283
42648SOL    HW239669  -0.033   1.036   8.611 -0.6803 -0.2965  0.2098
42649SOL     OW39670   6.479   8.841   4.889 -0.8691 -0.0487 -0.0439
42649SOL    HW139671   6.467   8.868   4.980 -2.2578  0.1499 -0.2704
42649SOL    HW239672   6.509   8.920   4.844 -2.8145  0.6082 -0.2723
42650SOL     OW39673  11.532   3.611   2.485  0.7046  0.4958 -0.1604
42650SOL    HW139674  11.557   3.702   2.470  0.0603  0.6452 -0.3418
42650SOL    HW239675  11.447   3.602   2.443  0.3981  0.0194  0.5433
42651SOL     OW39676   6.570   3.809   3.151 -0.0717 -0.3788 -0.3074
42651SOL    HW139677   6.573   3.857   3.068  0.7161 -0.4881 -0.3463
42651SOL    HW239678   6.578   3.876   3.218 -1.7746 -0.1725 -0.2701
42652SOL     OW39679   6.865   6.766   6.830  0.0289 -0.1022 -0.1175
42652SOL    HW139680   6.789   6.811   6.791  0.0985 -0.4470 -0.6720
42652SOL    HW239681   6.941   6.812   6.795  0.0926  1.5073  1.9693
42653SOL     OW39682   4.690   8.481  10.525  0.2280  0.5670 -0.4871
42653SOL    HW139683   4.676   8.547  10.457  1.4863  1.2692 -0.0976
42653SOL    HW239684   4.708   8.531  10.604 -0.8243 -0.2462  0.2958
42654SOL     OW39685   7.262   5.119  10.599 -0.1574  0.1306 -0.0394
42654SOL    HW139686   7.272   5.062  10.523  0.5524  0.4399 -0.1827
42654SOL    HW239687   7.256   5.207  10.561  0.6969  0.3329  0.2878
42655SOL     OW39688   3.365   7.936   2.833 -0.2048 -0.5829  0.0035
42655SOL    HW139689   3.311   7.958   2.757 -0.0556 -0.4497 -0.0642
42655SOL    HW239690   3.444   7.897   2.796  0.1216  0.0163  0.0608
42656SOL     OW39691   7.153   3.329  10.017 -0.0222 -0.3729 -0.4670
42656SOL    HW139692   7.178   3.421  10.014  0.5241 -0.5312 -1.0877
42656SOL    HW239693   7.135   3.312  10.109 -1.1112  0.6062 -0.4771
42657SOL     OW39694   6.309  11.348   7.406  0.0785  0.0398  0.3008
42657SOL    HW139695   6.214  11.349   7.396  0.3137  0.9238 -2.7911
42657SOL    HW239696   6.329  11.429   7.452 -0.6264 -0.0499  0.7842
42658SOL     OW39697   1.124   8.086   8.596 -0.1858 -0.2189  0.4765
42658SOL    HW139698   1.130   8.100   8.501  1.3150  0.8725  0.6913
42658SOL    HW239699   1.050   8.141   8.623 -0.4095 -0.2673 -0.0153
42659SOL     OW39700  10.479  10.286  11.239  0.1817 -0.0578 -0.3617
42659SOL    HW139701  10.488  10.363  11.296  0.5210  1.1644 -2.0067
42659SOL    HW239702  10.417  10.229  11.285 -0.7758  1.6028  0.4786
42660SOL     OW39703   2.064  10.086   1.378 -0.3196  0.3116 -0.2788
42660SOL    HW139704   2.058  10.171   1.422 -0.5103  0.8644 -1.3438
42660SOL    HW239705   1.978  10.074   1.337 -0.3496 -0.4766 -0.0136
42661SOL     OW39706   5.436   6.343   9.867 -0.4666  0.3357 -0.1974
42661SOL    HW139707   5.380   6.416   9.839 -0.5643  0.5315  0.4797
42661SOL    HW239708   5.385   6.265   9.847 -0.2746  0.4399 -1.1225
42662SOL     OW39709   5.267   3.723   0.024  0.1634  0.3088  0.7342
42662SOL    HW139710   5.340   3.783   0.007  0.4074 -0.5854 -1.7632
42662SOL    HW239711   5.189   3.776   0.011  0.3723  0.0989 -1.7742
42663SOL     OW39712   1.506   0.380   7.464 -0.0686 -0.0496  0.0859
42663SOL    HW139713   1.499   0.434   7.385 -0.4912  0.9958  0.8118
42663SOL    HW239714   1.521   0.292   7.432 -0.2555  0.3579 -1.1649
42664SOL     OW39715   9.596   2.494   2.808  0.0299  0.2212  0.0459
42664SOL    HW139716   9.585   2.399   2.815 -2.0965  0.4592  0.5721
42664SOL    HW239717   9.556   2.529   2.888  0.5291  1.5722 -0.2625
42665SOL     OW39718   5.154  10.881   7.230 -0.1781 -0.2154 -0.3100
42665SOL    HW139719   5.141  10.787   7.238 -0.3356 -0.3162 -1.4898
42665SOL    HW239720   5.192  10.892   7.142  0.6963  0.7348  0.1650
42666SOL     OW39721   0.303  10.996   6.845 -0.3890 -0.2219 -0.0390
42666SOL    HW139722   0.348  11.066   6.892 -1.1650 -0.4339  1.0626
42666SOL    HW239723   0.321  10.918   6.898  0.1091 -0.7911 -1.0204
42667SOL     OW39724   9.531   6.192   6.694 -0.1118 -0.0037 -0.3262
42667SOL    HW139725   9.439   6.209   6.670  0.8447  1.8952 -3.1603
42667SOL    HW239726   9.527   6.114   6.749 -3.2009 -2.1455 -3.1525
42668SOL     OW39727   9.441   7.131   4.545  0.1237 -0.5958  0.3153
42668SOL    HW139728   9.495   7.103   4.620  0.3955  0.2653  0.4479
42668SOL    HW239729   9.433   7.052   4.491  0.7172 -0.9835  0.7763
42669SOL     OW39730   2.631   6.551  11.499 -0.1961  0.0088 -0.0245
42669SOL    HW139731   2.690   6.611  11.546 -0.5051  0.9285 -0.7912
42669SOL    HW239732   2.660   6.556  11.408 -1.1060  0.0563 -0.3204
42670SOL     OW39733   7.116  11.144   2.348 -0.2808 -0.4803  0.3950
42670SOL    HW139734   7.153  11.226   2.380 -0.5458 -0.6356  1.1302
42670SOL    HW239735   7.060  11.169   2.275  2.4161 -0.3778 -1.7918
42671SOL     OW39736   6.388  10.181   7.992  0.4734  0.1782 -0.3044
42671SOL    HW139737   6.390  10.227   8.076  0.7645  1.0708 -0.7876
42671SOL    HW239738   6.470  10.205   7.950  1.0428 -1.5170 -0.2033
42672SOL     OW39739   1.439   3.305   4.930 -0.1958  0.0273 -0.5766
42672SOL    HW139740   1.471   3.305   5.020 -0.4768  0.9983 -0.4655
42672SOL    HW239741   1.384   3.383   4.924  0.8909  0.7426 -1.9527
42673SOL     OW39742   6.319   3.541   4.457 -0.0091  0.3307 -0.2581
42673SOL    HW139743   6.338   3.447   4.460 -0.1403  0.2258 -1.7349
42673SOL    HW239744   6.249   3.554   4.522  0.2059 -0.5367  0.1579
42674SOL     OW39745   8.156   0.056  11.491 -0.0006  0.2458  0.9506
42674SOL    HW139746   8.173   0.045  11.398 -2.6085  0.1485  0.4093
42674SOL    HW239747   8.106  -0.022  11.516  0.1482  0.5498  2.3055
42675SOL     OW39748   1.404  10.628   4.347  0.9160  0.1471  0.3299
42675SOL    HW139749   1.349  10.703   4.323 -1.3160 -2.4386 -3.9021
42675SOL    HW239750   1.374  10.604   4.434  0.5261  3.0867  1.1144
42676SOL     OW39751   3.571   4.702  10.804  0.2368  0.0619  0.0264
42676SOL    HW139752   3.552   4.683  10.896 -3.1147 -0.2341 -0.6085
42676SOL    HW239753   3.628   4.779  10.806 -0.8599  0.8831  2.3355
42677SOL     OW39754   3.956   0.401   1.144  0.9161 -0.0540 -0.3201
42677SOL    HW139755   3.870   0.413   1.102  0.0883 -2.1517  0.6123
42677SOL    HW239756   3.986   0.317   1.111  3.1042  1.0465 -1.3205
42678SOL     OW39757   5.530   9.226   8.756  0.0992 -0.4368 -0.3663
42678SOL    HW139758   5.561   9.294   8.696  0.4101  0.8585  1.2010
42678SOL    HW239759   5.541   9.264   8.843 -0.2586 -2.2949  0.5352
42679SOL     OW39760   8.009   3.999   1.950  0.5405  0.0626  0.1259
42679SOL    HW139761   7.960   4.059   2.007  1.2879  2.8323 -1.9235
42679SOL    HW239762   8.089   4.046   1.929  2.2157 -2.6218  0.0722
42680SOL     OW39763   3.547   1.976   9.929  0.2236  0.2761 -0.6572
42680SOL    HW139764   3.464   1.930   9.940  1.0956 -0.8388  1.8948
42680SOL    HW239765   3.525   2.051   9.873 -2.0785 -0.9841 -1.5979
42681SOL     OW39766  10.113   2.300   3.910 -0.0148 -0.1193  0.0584
42681SOL    HW139767  10.057   2.368   3.948 -0.5417 -1.0266  0.9628
42681SOL    HW239768  10.068   2.275   3.829 -0.4035 -0.1442  0.2784
42682SOL     OW39769  10.473   8.294   3.709 -0.4658 -0.0094 -0.2507
42682SOL    HW139770  10.488   8.343   3.628 -1.7757  1.1258  0.1499
42682SOL    HW239771  10.378   8.286   3.714 -0.3935 -0.1857  1.1068
42683SOL     OW39772   6.717   7.827   8.078  0.2409  0.4504  0.4174
42683SOL    HW139773   6.641   7.881   8.096 -0.3073 -0.4591  0.9080
42683SOL    HW239774   6.743   7.792   8.163  0.5278 -0.1192  0.1006
42684SOL     OW39775   8.110   0.586   6.236  0.2763  0.3353  0.2043
42684SOL    HW139776   8.146   0.675   6.239  0.7470  0.1564  0.0146
42684SOL    HW239777   8.168   0.535   6.294  0.4877 -0.0112 -0.3073
42685SOL     OW39778  10.811   2.929   2.780 -0.0191 -0.0745  0.2951
42685SOL    HW139779  10.877   2.998   2.793 -0.3953  0.3189  0.1555
42685SOL    HW239780  10.804   2.921   2.685 -0.8114  0.5203  0.2894
42686SOL     OW39781   8.001   3.491   8.597  0.4796 -0.6302 -0.0821
42686SOL    HW139782   8.083   3.537   8.616  0.2841 -0.1752 -0.3395
42686SOL    HW239783   7.966   3.468   8.684 -1.2709  2.9205  0.3342
42687SOL     OW39784  11.906   4.179   4.099  0.3665  0.1070  0.1181
42687SOL    HW139785  11.937   4.100   4.055  0.8308 -0.5622  1.5807
42687SOL    HW239786  11.967   4.191   4.172 -1.5350 -0.0216  1.8205
42688SOL     OW39787   3.137   5.239   5.302 -0.0137  0.1091 -0.0715
42688SOL    HW139788   3.085   5.287   5.366 -0.0271  0.5244 -0.3914
42688SOL    HW239789   3.226   5.238   5.340 -0.1156 -0.0475  0.1687
42689SOL     OW39790   2.242   5.754   3.513 -0.3356  0.0978 -0.5726
42689SOL    HW139791   2.308   5.712   3.568  0.8872  3.1796  0.5253
42689SOL    HW239792   2.159   5.729   3.554  0.2803 -1.4067 -0.1533
42690SOL     OW39793   3.300  10.438   2.282  0.2420 -0.0138 -0.3148
42690SOL    HW139794   3.236  10.387   2.233  0.2126 -0.7296  0.4402
42690SOL    HW239795   3.250  10.508   2.323 -0.0729 -0.6297  0.3521
42691SOL     OW39796   8.856  10.695   8.018 -0.0741  0.0401 -0.3549
42691SOL    HW139797   8.940  10.731   8.045 -0.3833  0.1200  0.5455
42691SOL    HW239798   8.868  10.673   7.926  1.2603 -0.8935  0.0078
42692SOL     OW39799  10.500   6.597   1.145  0.3335 -0.3885  0.0654
42692SOL    HW139800  10.448   6.531   1.099  0.6931 -0.0209 -0.8881
42692SOL    HW239801  10.435   6.654   1.185 -0.0550  0.4646 -1.6820
42693SOL     OW39802   6.380   1.009  11.719  0.4895 -0.0280 -0.0646
42693SOL    HW139803   6.476   1.005  11.708  0.7035 -2.3090  1.8062
42693SOL    HW239804   6.347   0.944  11.657  0.1566  0.5894 -0.5392
42694SOL     OW39805   1.504   6.886   7.576  0.5348  0.2811  0.2429
42694SOL    HW139806   1.537   6.798   7.591 -0.2878  0.0895  0.9687
42694SOL    HW239807   1.564   6.943   7.625 -0.1645 -0.0608  1.5175
42695SOL     OW39808   0.724   5.280   3.781 -0.0685 -0.1498  0.0081
42695SOL    HW139809   0.715   5.339   3.856  1.0181  1.1262 -0.8095
42695SOL    HW239810   0.713   5.337   3.705 -0.8476 -1.3589 -0.8211
42696SOL     OW39811   2.301  10.176   8.143  0.2084  0.0372  0.6614
42696SOL    HW139812   2.281  10.239   8.074  1.2803 -0.4807 -0.1456
42696SOL    HW239813   2.343  10.103   8.098 -0.8076 -1.1826  1.6000
42697SOL     OW39814   7.357   0.505   2.459 -0.4920 -0.3538 -0.3980
42697SOL    HW139815   7.401   0.490   2.375  0.7032 -2.3399  0.5226
42697SOL    HW239816   7.282   0.561   2.437 -0.0896 -0.6391 -2.7446
42698SOL     OW39817   8.562   7.327   7.566 -0.0561 -0.7865 -0.1965
42698SOL    HW139818   8.574   7.419   7.541  1.4719 -0.6000  1.1132
42698SOL    HW239819   8.639   7.306   7.618 -1.5580 -2.0800  1.6266
42699SOL     OW39820   8.970   1.779   2.003 -0.7922 -0.5048  0.0911
42699SOL    HW139821   8.896   1.840   1.997  1.3290  2.2991  0.0224
42699SOL    HW239822   9.001   1.771   1.912  0.1687  0.0487  0.3493
42700SOL     OW39823   7.595   5.667   6.497  0.3433 -0.2638 -0.0918
42700SOL    HW139824   7.607   5.714   6.414 -0.4789 -1.8149 -1.1548
42700SOL    HW239825   7.561   5.581   6.470  2.2582 -1.6807  1.6902
42701SOL     OW39826   5.301   6.603  11.204 -0.1519  0.3433  0.3155
42701SOL    HW139827   5.261   6.678  11.249 -1.3766 -1.2517  2.0379
42701SOL    HW239828   5.296   6.532  11.268  2.0458 -0.9322 -0.8435
42702SOL     OW39829   4.735   4.219   3.721  0.1131 -0.1256 -0.4258
42702SOL    HW139830   4.686   4.242   3.642  0.7559 -0.9201 -1.0791
42702SOL    HW239831   4.820   4.187   3.688 -0.5900 -3.1608  0.3457
42703SOL     OW39832  10.724  11.767   1.330 -0.7410  0.0445 -0.4085
42703SOL    HW139833  10.639  11.800   1.360 -0.8183 -0.0767 -0.4935
42703SOL    HW239834  10.702  11.704   1.261 -0.5370  0.6479 -1.0266
42704SOL     OW39835   6.637  10.716   1.442  0.1937  0.1044  0.5020
42704SOL    HW139836   6.571  10.702   1.510  0.8632 -0.1552  1.1090
42704SOL    HW239837   6.693  10.786   1.476  1.8181 -1.4513  1.2247
42705SOL     OW39838   0.772   6.003   7.348  0.4245  0.5780 -0.0683
42705SOL    HW139839   0.736   5.987   7.435  1.4764 -1.9109  0.0013
42705SOL    HW239840   0.697   6.001   7.289 -0.0340 -0.0975  0.5334
42706SOL     OW39841  11.921   7.798   7.242 -0.0241  0.4017  0.1191
42706SOL    HW139842  11.827   7.783   7.229 -0.1382  0.1140  1.1711
42706SOL    HW239843  11.936   7.775   7.334  0.9806  0.9387  0.1009
42707SOL     OW39844  10.231   7.838  10.238 -0.3462 -0.0921 -0.1117
42707SOL    HW139845  10.319   7.874  10.248  0.4855 -1.7541 -1.0961
42707SOL    HW239846  10.197   7.879  10.158  0.3647 -1.0012 -0.8984
42708SOL     OW39847   5.901   9.412   3.609 -0.3799 -0.0603  0.2988
42708SOL    HW139848   5.898   9.410   3.513 -0.6072 -0.2941  0.3105
42708SOL    HW239849   5.994   9.400   3.630 -0.3919 -0.4884  0.1177
42709SOL     OW39850   6.135  10.577   9.702 -0.0605 -0.2162  0.0454
42709SOL    HW139851   6.058  10.568   9.759 -2.1279  2.1188 -2.1606
42709SOL    HW239852   6.139  10.494   9.655 -0.4570 -0.8260  1.0535
42710SOL     OW39853   7.852   4.085   0.084 -0.1319 -0.1168  0.3880
42710SOL    HW139854   7.902   4.040   0.016  0.3258 -1.4933  1.5795
42710SOL    HW239855   7.826   4.168   0.044  1.1554 -0.3562 -1.0340
42711SOL     OW39856   3.354   6.030   1.503 -0.8915 -0.4073  0.1186
42711SOL    HW139857   3.324   6.041   1.413 -1.6668  0.2380  0.4402
42711SOL    HW239858   3.275   6.040   1.556 -0.4210 -0.6415  0.8821
42712SOL     OW39859   6.384   2.953  10.217  0.6858 -0.0577  0.3943
42712SOL    HW139860   6.387   2.897  10.295  0.5073  1.4534  1.5366
42712SOL    HW239861   6.473   2.987  10.208  0.5736  0.2047  0.2652
42713SOL     OW39862   9.043  11.530   1.451 -0.8062 -0.2777  0.1900
42713SOL    HW139863   8.976  11.504   1.387 -1.3342  0.5804  0.3803
42713SOL    HW239864   8.996  11.539   1.533 -0.2471 -0.7265  0.5649
42714SOL     OW39865   8.573   1.254   6.887 -0.1258  0.3109  0.3142
42714SOL    HW139866   8.596   1.327   6.830 -0.8087  0.2682 -0.0227
42714SOL    HW239867   8.593   1.176   6.836 -2.2688  0.2689 -0.5219
42715SOL     OW39868   0.678   1.734   8.710 -0.6101 -0.2976 -0.4284
42715SOL    HW139869   0.635   1.672   8.652 -0.5116 -0.0375 -0.7802
42715SOL    HW239870   0.662   1.820   8.671  1.0471 -0.2563 -1.1224
42716SOL     OW39871   2.688   5.390   3.993  0.6825  0.8889  0.1309
42716SOL    HW139872   2.759   5.360   3.937 -0.0823 -0.6808 -0.0630
42716SOL    HW239873   2.615   5.331   3.973  0.0544  0.9763  1.9882
42717SOL     OW39874  10.513   8.646   8.485 -0.2379  0.5204  0.2316
42717SOL    HW139875  10.586   8.706   8.500  0.3626 -0.1137 -0.1134
42717SOL    HW239876  10.449   8.669   8.552 -0.2598  1.9190 -0.2419
42718SOL     OW39877   9.835   5.912   9.222 -0.3360 -0.1681  0.2578
42718SOL    HW139878   9.742   5.893   9.219 -0.5154  0.3909  1.7511
42718SOL    HW239879   9.861   5.899   9.313  0.3063  2.8673  0.6314
42719SOL     OW39880   6.696   5.776   1.074 -0.1311 -0.1576 -0.4142
42719SOL    HW139881   6.750   5.787   0.996  1.7465 -0.4845  0.7729
42719SOL    HW239882   6.642   5.699   1.056  2.0102 -1.7207 -0.5208
42720SOL     OW39883   5.812   2.825   3.740 -0.4911 -0.3211 -0.4592
42720SOL    HW139884   5.768   2.743   3.718 -2.5163 -0.1450  2.4252
42720SOL    HW239885   5.742   2.889   3.744  0.5839  0.8477  0.4556
42721SOL     OW39886   5.333   8.459   6.821 -0.0364 -0.9555  0.1593
42721SOL    HW139887   5.291   8.542   6.797  3.7538  0.8592 -1.0482
42721SOL    HW239888   5.306   8.398   6.753 -2.3248 -0.5833  0.6530
42722SOL     OW39889  11.260   2.906   7.827 -0.2535  0.1940 -0.6366
42722SOL    HW139890  11.192   2.904   7.895  1.1386 -0.0778  0.7997
42722SOL    HW239891  11.299   2.818   7.830  1.6513  1.0263  0.1532
42723SOL     OW39892   3.313   8.558   9.846 -0.0078 -0.2532 -0.1084
42723SOL    HW139893   3.280   8.469   9.832  0.1492 -0.0246 -2.3056
42723SOL    HW239894   3.400   8.545   9.883  0.4863 -1.0898 -1.4863
42724SOL     OW39895   3.832   8.849   2.507  0.3963  0.7325  0.0479
42724SOL    HW139896   3.906   8.907   2.488  1.3507 -0.3256  0.4618
42724SOL    HW239897   3.817   8.802   2.424  0.7675  0.3152  0.2146
42725SOL     OW39898   3.683   4.885   4.856  0.2694 -0.1411  0.1080
42725SOL    HW139899   3.683   4.791   4.839  1.3485 -0.6792  2.7240
42725SOL    HW239900   3.765   4.917   4.817 -0.5216 -0.0406 -1.5918
42726SOL     OW39901   7.686   8.221  10.895 -0.4607 -0.2808 -0.0509
42726SOL    HW139902   7.686   8.177  10.811  0.4950 -0.3598 -0.0145
42726SOL    HW239903   7.597   8.209  10.928  0.1455 -3.6276  0.7030
42727SOL     OW39904  10.038   9.101   8.249 -0.5573 -0.1278 -0.3656
42727SOL    HW139905  10.089   9.116   8.169 -1.3782  2.7164 -0.4681
42727SOL    HW239906   9.960   9.053   8.218 -0.9500  1.0828 -1.3579
42728SOL     OW39907   4.056   7.326   7.539 -0.6511  0.1131 -0.5915
42728SOL    HW139908   4.095   7.278   7.612 -0.2965  1.6811  0.2705
42728SOL    HW239909   4.091   7.282   7.461  0.5566 -0.3118  0.1721
42729SOL     OW39910   2.124   7.820  11.015 -0.2056  0.3523  0.1775
42729SOL    HW139911   2.182   7.750  11.046 -0.8438  0.1363  0.9248
42729SOL    HW239912   2.180   7.877  10.963  0.9019  0.6864  1.6941
42730SOL     OW39913   6.666   9.662   3.714 -0.3716 -0.3943 -0.1236
42730SOL    HW139914   6.673   9.622   3.801 -0.7766  1.5237  0.8548
42730SOL    HW239915   6.757   9.673   3.686 -0.1338  0.9587  1.0678
42731SOL     OW39916   2.818   6.738   1.298 -0.2439 -0.0262 -0.4064
42731SOL    HW139917   2.754   6.739   1.370  1.5045 -1.2589  1.2814
42731SOL    HW239918   2.903   6.744   1.342  0.8688  0.0955 -2.4700
42732SOL     OW39919   3.294   8.408   8.196 -0.3671 -0.3801  0.1507
42732SOL    HW139920   3.220   8.351   8.220  0.4605 -1.1843  0.8861
42732SOL    HW239921   3.258   8.497   8.200 -1.0602 -0.6932  1.4607
42733SOL     OW39922   2.210   4.941  10.071 -0.2124 -0.4594  0.1737
42733SOL    HW139923   2.138   4.887  10.039 -0.6807 -0.6063  1.4041
42733SOL    HW239924   2.168   5.019  10.106 -0.1043 -1.6243  3.2106
42734SOL     OW39925   0.958   1.960  11.015 -0.3371  0.8693  1.0560
42734SOL    HW139926   0.920   2.039  10.977  0.2220  0.9377  0.6235
42734SOL    HW239927   0.894   1.891  10.995 -0.4173  1.0534  0.6630
42735SOL     OW39928   0.399   2.003   8.151 -0.0258  0.3205  0.0514
42735SOL    HW139929   0.439   2.065   8.213 -0.8346  0.8994  0.0093
42735SOL    HW239930   0.308   1.995   8.180 -0.3574  0.4202 -0.9159
42736SOL     OW39931   6.222   5.516   8.760  0.0596  0.1969 -0.1255
42736SOL    HW139932   6.173   5.514   8.678  2.0801  1.0306 -1.4394
42736SOL    HW239933   6.175   5.578   8.816 -2.4184 -1.7839  0.1613
42737SOL     OW39934   6.464   2.428   0.131 -0.2005 -0.0680 -0.3778
42737SOL    HW139935   6.535   2.489   0.115  0.8938 -0.7170  1.6253
42737SOL    HW239936   6.508   2.344   0.149 -1.4864 -0.6017  0.4278
42738SOL     OW39937   6.905   0.321   1.661  0.3384 -0.1757  0.1013
42738SOL    HW139938   6.989   0.285   1.633  1.3456  1.5010  0.8135
42738SOL    HW239939   6.854   0.329   1.580  0.4609 -2.0653 -0.2199
42739SOL     OW39940   8.324   2.035   7.474 -0.0003 -0.5863 -0.1637
42739SOL    HW139941   8.293   1.997   7.392 -1.1891 -1.4219  0.6482
42739SOL    HW239942   8.249   2.082   7.509  0.5829  0.0013  0.3340
42740SOL     OW39943   8.018   6.340   0.562  0.2427 -0.0193 -0.2878
42740SOL    HW139944   7.939   6.293   0.535  0.9581 -1.4373 -0.0042
42740SOL    HW239945   7.989   6.430   0.575 -0.6964  0.1886 -3.1310
42741SOL     OW39946   5.419   9.611   8.164 -0.3915  0.4680 -0.0254
42741SOL    HW139947   5.452   9.632   8.251  2.5286 -1.0071 -0.6636
42741SOL    HW239948   5.324   9.613   8.174 -0.2349 -1.6396  3.7270
42742SOL     OW39949   9.256   2.738  10.754  0.2515  0.1584  0.0774
42742SOL    HW139950   9.293   2.822  10.728  0.4486  0.5641  1.5458
42742SOL    HW239951   9.181   2.726  10.696  0.2023  1.3645 -0.1376
42743SOL     OW39952   5.122   1.326   0.385 -0.2029  0.3164  0.2727
42743SOL    HW139953   5.203   1.341   0.434 -0.9456  1.4229  1.2403
42743SOL    HW239954   5.068   1.403   0.405 -1.2807 -0.1360 -0.7801
42744SOL     OW39955   3.952  10.620   0.525 -0.2796  0.0037  0.0628
42744SOL    HW139956   3.887  10.551   0.532 -0.5125  0.3239  1.0750
42744SOL    HW239957   3.910  10.699   0.560  0.6552  0.2008  0.8095
42745SOL     OW39958   7.013   8.189   9.521 -0.2225  0.6485 -0.3383
42745SOL    HW139959   6.946   8.132   9.483 -0.1336  1.0874 -1.1670
42745SOL    HW239960   6.975   8.277   9.514 -0.8450  0.6203  1.9397
42746SOL     OW39961  11.397   3.630   8.733  0.4037 -0.5242 -0.6963
42746SOL    HW139962  11.324   3.673   8.689 -0.7918 -0.7037  1.0055
42746SOL    HW239963  11.444   3.584   8.663 -0.0162  1.0724 -2.1050
42747SOL     OW39964   7.684   2.689   1.593  0.5547 -0.2950  0.1068
42747SOL    HW139965   7.633   2.766   1.618 -1.2509 -0.5957 -2.2027
42747SOL    HW239966   7.645   2.617   1.642 -0.4120 -0.3075 -0.6481
42748SOL     OW39967   4.268   7.740   9.873 -0.0451 -0.1190  0.2634
42748SOL    HW139968   4.336   7.711   9.933 -0.8741 -0.5263  1.0272
42748SOL    HW239969   4.310   7.808   9.820  0.9192 -0.3010  0.7733
42749SOL     OW39970  10.966   3.837   4.501 -0.1075 -0.5591 -0.0998
42749SOL    HW139971  10.964   3.918   4.449  3.6328  0.4030  0.9341
42749SOL    HW239972  10.983   3.768   4.437 -0.1804 -0.0667 -0.6612
42750SOL     OW39973  10.083   7.284  10.712 -0.2595 -0.1733  0.1592
42750SOL    HW139974  10.078   7.229  10.790 -0.1575  0.5677  0.6923
42750SOL    HW239975  10.168   7.328  10.719  0.1266 -0.7405 -0.8041
42751SOL     OW39976   1.376  11.545   4.911  0.8638 -0.2590 -0.0232
42751SOL    HW139977   1.336  11.603   4.975  1.6709 -0.5306  0.7517
42751SOL    HW239978   1.347  11.578   4.826 -0.2700  0.0626  0.4824
42752SOL     OW39979   1.924   4.013   8.983  0.2359  0.2213 -0.8483
42752SOL    HW139980   1.962   3.934   9.021 -1.7458 -0.5636 -0.3413
42752SOL    HW239981   1.854   4.037   9.044  0.5439  2.1432 -1.2118
42753SOL     OW39982   6.635   3.944   0.491 -0.1536  0.3487  0.0080
42753SOL    HW139983   6.676   4.029   0.476  0.3986 -0.0277 -0.6922
42753SOL    HW239984   6.597   3.921   0.407 -0.8736  0.1936  0.3693
42754SOL     OW39985   0.218  11.148   9.720  0.3952 -0.2275  0.5384
42754SOL    HW139986   0.152  11.101   9.771  0.4355 -1.6327 -0.6256
42754SOL    HW239987   0.243  11.086   9.651  1.0647  1.2260 -0.5774
42755SOL     OW39988  10.137   0.103   4.474 -0.1504 -0.2590 -0.1750
42755SOL    HW139989  10.189   0.169   4.428 -1.5529  2.0049  1.2892
42755SOL    HW239990  10.194   0.072   4.544  0.3097 -0.1686 -0.5068
42756SOL     OW39991   7.085  11.374   3.520 -0.2698 -0.1675 -0.4379
42756SOL    HW139992   7.133  11.317   3.581  0.6064  1.2074  0.2076
42756SOL    HW239993   7.139  11.375   3.441 -0.6933 -0.8480 -0.7416
42757SOL     OW39994   3.188   8.872   6.170  0.5444  0.8781  0.5021
42757SOL    HW139995   3.121   8.855   6.236 -0.0441  1.1675 -0.0047
42757SOL    HW239996   3.201   8.966   6.172  1.2355  0.7829  0.8699
42758SOL     OW39997   9.017   8.416   1.749  0.1712 -0.0077 -0.2106
42758SOL    HW139998   8.978   8.503   1.742  0.1585  0.0011 -0.0421
42758SOL    HW239999   8.992   8.386   1.836  1.1299  0.2858  0.1893
42759SOL     OW40000   4.800   9.870   0.239  0.0273 -0.3031  0.5327
42759SOL    HW140001   4.876   9.860   0.295  1.4929  2.7866 -0.6898
42759SOL    HW240002   4.757   9.784   0.241  3.8679 -2.4375  0.7238
42760SOL     OW40003   3.343   5.101   2.379 -0.1554 -0.0731  0.4371
42760SOL    HW140004   3.400   5.159   2.430 -0.4614  0.8869 -0.2861
42760SOL    HW240005   3.278   5.070   2.443 -0.1971  0.6582  0.7636
42761SOL     OW40006  11.474   1.821   4.603  0.1672 -0.2692  0.2460
42761SOL    HW140007  11.508   1.870   4.528 -0.1018 -0.9471 -0.3268
42761SOL    HW240008  11.550   1.774   4.637  0.0259 -1.0297 -0.4478
42762SOL     OW40009   1.067   3.452   0.750  0.2944 -0.2168  0.9090
42762SOL    HW140010   1.009   3.384   0.716 -0.0770  0.1426  0.8230
42762SOL    HW240011   1.033   3.534   0.714  1.5184 -0.1014 -0.0737
42763SOL     OW40012   1.125   2.503   9.026  0.2120  0.0675  0.1851
42763SOL    HW140013   1.183   2.470   8.958  0.0519 -2.1637  1.0484
42763SOL    HW240014   1.122   2.598   9.012  0.3545 -0.2850 -2.7406
42764SOL     OW40015   7.808   4.356   5.854  0.3240  0.4680 -0.7462
42764SOL    HW140016   7.716   4.379   5.842  0.1356  1.7147  2.2348
42764SOL    HW240017   7.819   4.275   5.805 -2.9953 -0.9986  0.6518
42765SOL     OW40018   1.144  11.421   8.233 -0.2674 -1.0515 -1.1585
42765SOL    HW140019   1.221  11.458   8.189 -0.3777 -0.8991 -1.2256
42765SOL    HW240020   1.088  11.497   8.251  0.0652 -1.0184 -0.1727
42766SOL     OW40021   9.542   6.607  10.604  0.5815 -0.5626  0.3250
42766SOL    HW140022   9.560   6.694  10.569  0.1764 -0.4061  0.5017
42766SOL    HW240023   9.451   6.590  10.580  0.6198 -0.8870  0.4049
42767SOL     OW40024   1.956  11.133   2.423  0.1145 -0.0657  0.5073
42767SOL    HW140025   1.977  11.197   2.354 -1.8188  0.1385  0.0610
42767SOL    HW240026   1.865  11.150   2.445  0.8728  0.4685  3.8185
42768SOL     OW40027   5.910   9.054   9.425  0.5639 -0.2350  0.2228
42768SOL    HW140028   5.910   9.129   9.484  1.1258 -0.3483  0.3722
42768SOL    HW240029   5.818   9.038   9.405  0.4112  0.1514  0.6234
42769SOL     OW40030   3.391  10.123   1.605  0.0676  0.0244 -0.5306
42769SOL    HW140031   3.469  10.069   1.619  0.5567  0.6310 -0.8638
42769SOL    HW240032   3.417  10.211   1.633  0.0167  0.5717 -2.1195
42770SOL     OW40033  10.244   7.706   5.830 -0.6167  0.4956  0.1735
42770SOL    HW140034  10.320   7.755   5.798  0.0682  0.6482  1.9434
42770SOL    HW240035  10.251   7.622   5.786  0.4399  0.5957  0.1060
42771SOL     OW40036  11.813   8.369   7.134 -0.1477  0.5553  0.1298
42771SOL    HW140037  11.749   8.312   7.178 -0.3903  0.2145 -0.6530
42771SOL    HW240038  11.794   8.360   7.041 -0.0572  1.7698 -0.0280
42772SOL     OW40039   3.822   6.263   4.949  0.2390  0.0737  0.0077
42772SOL    HW140040   3.912   6.260   4.916  0.4165 -0.2663  0.5151
42772SOL    HW240041   3.820   6.339   5.007  0.7748 -1.0772  1.6080
42773SOL     OW40042   6.757   1.618   7.797  0.2967 -0.0603 -0.0005
42773SOL    HW140043   6.824   1.637   7.731 -1.2516 -0.6814 -1.8488
42773SOL    HW240044   6.777   1.528   7.825  1.1220  0.3016  0.6047
42774SOL     OW40045  10.364  11.422  11.105  0.1893  0.0894 -0.3878
42774SOL    HW140046  10.344  11.507  11.066 -0.1764 -0.4286 -1.3657
42774SOL    HW240047  10.319  11.359  11.049  2.0745 -0.9001 -0.8839
42775SOL     OW40048  11.746   4.688   5.707  0.3708 -0.3733  0.0807
42775SOL    HW140049  11.770   4.605   5.665 -0.2034 -0.1074 -0.7807
42775SOL    HW240050  11.734   4.749   5.635  0.4523  0.3808  0.6965
42776SOL     OW40051   9.305   4.708   4.320  0.1083  0.0080 -0.5617
42776SOL    HW140052   9.307   4.803   4.309 -1.9006  0.3613  1.3988
42776SOL    HW240053   9.218   4.682   4.288  0.6074 -1.1798 -1.0074
42777SOL     OW40054  10.012   6.495   9.867 -0.3549 -0.0775  0.1437
42777SOL    HW140055  10.043   6.411   9.901  1.8449 -0.5276 -2.5976
42777SOL    HW240056   9.953   6.471   9.796 -1.1412  0.7540  0.4946
42778SOL     OW40057   1.774   5.673   4.985  0.1180 -0.0802 -0.3104
42778SOL    HW140058   1.698   5.705   4.936 -0.3858 -0.9003 -0.0889
42778SOL    HW240059   1.756   5.698   5.076  1.2548  1.8258 -0.5505
42779SOL     OW40060  11.259   4.440   2.574  0.7042 -0.2639  0.0047
42779SOL    HW140061  11.265   4.345   2.566  2.1571 -0.0878 -1.4791
42779SOL    HW240062  11.225   4.468   2.489  0.7641  0.5842  0.2581
42780SOL     OW40063   2.327   4.642   2.497 -0.4026  0.1679 -0.5142
42780SOL    HW140064   2.300   4.722   2.451  0.1743  0.3158 -0.6010
42780SOL    HW240065   2.255   4.581   2.482  0.0870 -0.0529 -2.3002
42781SOL     OW40066   2.166   9.662  10.621 -0.6477  0.3898  0.5148
42781SOL    HW140067   2.082   9.645  10.663 -1.3501  1.4950 -0.3971
42781SOL    HW240068   2.229   9.664  10.693 -1.0699 -2.1995  1.0504
42782SOL     OW40069  11.423   7.343   1.524 -0.3159  0.1333  0.5842
42782SOL    HW140070  11.421   7.280   1.597  0.7669  0.8073  1.2142
42782SOL    HW240071  11.393   7.425   1.562  1.0624  0.7003  0.5080
42783SOL     OW40072   3.167   0.409   7.281  0.4627 -0.4724  0.5269
42783SOL    HW140073   3.074   0.404   7.303  0.7591  0.0792  2.0177
42783SOL    HW240074   3.207   0.452   7.357  1.9720 -0.9605  0.0386
42784SOL     OW40075  10.606   2.942   6.780  0.1389  0.0070  0.2537
42784SOL    HW140076  10.602   2.985   6.866  1.2245 -1.8523  1.3001
42784SOL    HW240077  10.524   2.894   6.774 -0.5374  1.1854 -0.3884
42785SOL     OW40078   2.934   6.783   2.438 -0.4201  0.0448 -0.0430
42785SOL    HW140079   3.008   6.789   2.499 -0.9151 -0.4004  0.6165
42785SOL    HW240080   2.857   6.806   2.492 -0.8003  0.1527 -0.6264
42786SOL     OW40081   2.715   2.410   1.928 -0.3102  0.0005 -0.2313
42786SOL    HW140082   2.684   2.406   2.018  1.7381 -0.7152  0.4983
42786SOL    HW240083   2.636   2.402   1.875 -1.3646 -2.1624  1.4975
42787SOL     OW40084   8.194  11.639   4.060 -0.5493 -0.1617 -0.1355
42787SOL    HW140085   8.135  11.691   4.115  0.6694 -0.4033  1.5147
42787SOL    HW240086   8.252  11.596   4.123  0.0719 -1.5387 -1.5956
42788SOL     OW40087   6.187   2.621   5.720  0.1671  0.4039 -0.2348
42788SOL    HW140088   6.105   2.618   5.671  0.8245  0.7577 -1.3976
42788SOL    HW240089   6.187   2.708   5.761 -1.0295 -0.4071  1.6027
42789SOL     OW40090   6.005   1.591  10.355 -0.7032  0.2980  0.2408
42789SOL    HW140091   5.985   1.499  10.335 -2.3169  0.8328 -0.7978
42789SOL    HW240092   6.101   1.594  10.357 -0.6173 -1.5586  1.1530
42790SOL     OW40093   2.433   1.601   9.624 -0.1326  0.0814 -0.5222
42790SOL    HW140094   2.512   1.603   9.571  0.7403  0.2205  0.7463
42790SOL    HW240095   2.365   1.568   9.564  0.8751 -0.0951 -1.6116
42791SOL     OW40096   6.382   5.472   5.367 -0.2431 -0.0751 -0.4419
42791SOL    HW140097   6.355   5.490   5.457  2.8347  1.0297  0.4013
42791SOL    HW240098   6.427   5.388   5.371  0.8405  0.4663 -0.6540
42792SOL     OW40099   9.804  11.306  11.465  0.0763  0.0884  0.5917
42792SOL    HW140100   9.724  11.282  11.512  0.7252 -0.6138  1.3630
42792SOL    HW240101   9.782  11.294  11.373 -0.8611  0.4073  0.7607
42793SOL     OW40102  11.486   3.030   1.333 -0.0251  0.4376  0.2973
42793SOL    HW140103  11.466   2.944   1.296  2.9921 -0.2278 -0.0754
42793SOL    HW240104  11.526   3.010   1.418  0.7712  1.4338  0.1764
42794SOL     OW40105   3.049   8.180   1.164 -0.0007  0.7141  0.1593
42794SOL    HW140106   3.072   8.243   1.232  0.1817  2.2470 -1.2486
42794SOL    HW240107   3.111   8.108   1.175  0.6568  1.3870  0.9899
42795SOL     OW40108   8.146  10.716   1.283  0.0103 -0.0321 -0.0013
42795SOL    HW140109   8.060  10.727   1.241 -0.2989 -0.8212  0.3904
42795SOL    HW240110   8.190  10.649   1.231  0.0921 -0.1629  0.2338
42796SOL     OW40111   6.351   2.074   9.915 -0.1249 -0.3581 -0.6033
42796SOL    HW140112   6.270   2.072   9.864 -1.0749  1.6115  0.7008
42796SOL    HW240113   6.335   2.013   9.987 -0.3577 -0.1518 -0.4787
42797SOL     OW40114   8.633   5.705   8.840 -0.2141  0.3555 -0.1772
42797SOL    HW140115   8.651   5.612   8.849 -1.0216  0.3207  1.3887
42797SOL    HW240116   8.542   5.715   8.869  0.1173  1.7318  0.4636
42798SOL     OW40117   7.728   2.910   3.382  0.6769 -0.2122 -0.4572
42798SOL    HW140118   7.775   2.895   3.464  0.7946 -0.3540 -0.5479
42798SOL    HW240119   7.782   2.866   3.316  0.4577 -0.3062 -0.5749
42799SOL     OW40120   9.626   5.391  10.378 -0.1505 -0.2107 -0.0563
42799SOL    HW140121   9.709   5.391  10.331  0.1643  0.7039  0.4727
42799SOL    HW240122   9.601   5.484  10.383 -0.8251 -0.4072  0.4426
42800SOL     OW40123   2.313   1.239   3.328 -0.1855 -0.1508  0.3999
42800SOL    HW140124   2.316   1.205   3.238  0.4571 -1.3515  0.8397
42800SOL    HW240125   2.405   1.241   3.355 -0.5076 -2.5702  1.9741
42801SOL     OW40126  11.100   6.461   7.577  0.0925  0.3268  0.0595
42801SOL    HW140127  11.018   6.412   7.586  0.5742 -0.3274  1.0894
42801SOL    HW240128  11.104   6.516   7.655 -0.2966  1.8606 -0.9443
42802SOL     OW40129  10.176   5.689   2.871  0.0217  0.4319  0.4964
42802SOL    HW140130  10.084   5.679   2.849 -0.6091  2.4236  1.9374
42802SOL    HW240131  10.200   5.607   2.912 -1.3191  0.1344  0.7268
42803SOL     OW40132   2.317   3.134   7.712  0.4325 -0.4151 -0.1627
42803SOL    HW140133   2.325   3.213   7.659 -0.2511 -0.1479  0.1188
42803SOL    HW240134   2.245   3.085   7.671 -0.2671 -0.0929  0.6345
42804SOL     OW40135   6.615   4.058   2.158 -0.0351 -0.5395  0.0345
42804SOL    HW140136   6.651   4.116   2.091  0.7400  1.1942  1.8653
42804SOL    HW240137   6.524   4.087   2.168 -0.1594 -0.8171 -0.2451
42805SOL     OW40138   1.912   1.121   1.535 -0.2080  0.0760 -0.1396
42805SOL    HW140139   1.846   1.136   1.603  0.4535  1.7679  0.1536
42805SOL    HW240140   1.907   1.198   1.479  0.6097 -0.3964 -0.8904
42806SOL     OW40141   5.202  11.019   4.260  0.3766 -0.5616 -0.0192
42806SOL    HW140142   5.150  11.038   4.182  0.0343 -0.6544  0.1886
42806SOL    HW240143   5.188  11.094   4.318 -1.1747 -1.5284  0.9092
42807SOL     OW40144   5.382   7.733   1.606  0.2659  0.5039 -0.1715
42807SOL    HW140145   5.430   7.749   1.525 -0.3123 -1.8515 -1.0472
42807SOL    HW240146   5.448   7.696   1.665 -0.2066 -2.0133 -1.1216
42808SOL     OW40147   4.820   4.041  10.526  0.2174 -0.2810  0.4795
42808SOL    HW140148   4.806   3.950  10.502  0.9491 -0.1099 -0.6909
42808SOL    HW240149   4.915   4.052  10.527  0.2116  0.0444  2.3845
42809SOL     OW40150   0.452  10.686  11.181 -0.5416  0.5392 -0.8586
42809SOL    HW140151   0.489  10.770  11.156 -0.1898  0.6502 -0.0188
42809SOL    HW240152   0.454  10.633  11.102  1.0153  0.6895 -0.9519
42810SOL     OW40153   9.146   8.687   4.697  0.5130 -0.2536  0.2751
42810SOL    HW140154   9.067   8.672   4.749  0.7936  1.0176  1.1050
42810SOL    HW240155   9.116   8.679   4.606 -0.4040 -0.5550  0.5904
42811SOL     OW40156   1.786   6.089   7.120  0.1094  0.7913 -0.8641
42811SOL    HW140157   1.728   6.149   7.073  0.6347  0.1573 -2.3880
42811SOL    HW240158   1.726   6.031   7.168 -0.4323  1.6421 -0.4820
42812SOL     OW40159   7.796   4.362   9.502  0.1055  0.3067  0.5136
42812SOL    HW140160   7.738   4.377   9.427  0.9072  0.4724 -0.0929
42812SOL    HW240161   7.755   4.411   9.574  0.2265  1.5946 -0.2574
42813SOL     OW40162   0.381   7.628   4.525 -0.1902  0.1998  0.2660
42813SOL    HW140163   0.360   7.553   4.581  0.9666  1.3800  2.4085
42813SOL    HW240164   0.414   7.588   4.444  0.9312 -1.6545  1.5424
42814SOL     OW40165  11.601   1.486   1.653  0.0300  0.4105 -0.3095
42814SOL    HW140166  11.657   1.537   1.710  0.2288  0.1831 -0.3013
42814SOL    HW240167  11.534   1.548   1.622  0.0321  0.5755  0.0205
42815SOL     OW40168   2.385   7.945   7.092 -0.0937  0.2640 -0.0141
42815SOL    HW140169   2.304   7.976   7.134 -0.6224 -0.7741 -0.2581
42815SOL    HW240170   2.430   7.896   7.161  2.1664  3.7531  1.3379
42816SOL     OW40171   1.585   3.188   1.855  0.0077 -0.2658 -0.4537
42816SOL    HW140172   1.554   3.274   1.825 -0.1088  0.4576  1.5422
42816SOL    HW240173   1.676   3.184   1.828  0.1005  0.6417 -0.3058
42817SOL     OW40174   2.384  11.511   6.005 -0.2686 -0.3736 -0.3762
42817SOL    HW140175   2.311  11.483   5.950  0.8050 -1.1035 -1.4685
42817SOL    HW240176   2.379  11.607   6.005 -0.3163 -0.3631 -1.7185
42818SOL     OW40177   1.807   3.647   5.524 -0.9602  0.4491 -0.4230
42818SOL    HW140178   1.856   3.678   5.447 -0.7390 -0.9777 -0.8928
42818SOL    HW240179   1.873   3.602   5.577 -1.4189  0.0519 -0.1847
42819SOL     OW40180   3.815  11.191   7.260  0.3229 -0.1234 -0.1395
42819SOL    HW140181   3.810  11.152   7.347 -1.3299  1.0399  0.3299
42819SOL    HW240182   3.733  11.238   7.250  0.0933 -0.9039 -2.6876
42820SOL     OW40183  11.468   7.312  11.080  0.0152 -0.0668 -0.4273
42820SOL    HW140184  11.430   7.224  11.074  0.2463 -0.0996 -1.7712
42820SOL    HW240185  11.532   7.315  11.009 -0.9968  1.6764 -1.3335
42821SOL     OW40186   1.460   1.310   9.144  0.1865  0.0666  0.4608
42821SOL    HW140187   1.432   1.352   9.225 -0.6072  0.2159  0.1210
42821SOL    HW240188   1.417   1.225   9.146 -1.4088  0.7921 -0.6727
42822SOL     OW40189   0.392   5.004   5.849 -0.3031  0.2011  0.2340
42822SOL    HW140190   0.460   4.938   5.836 -1.6213 -1.2926  0.5319
42822SOL    HW240191   0.435   5.087   5.830  1.4322 -0.7324 -0.1506
42823SOL     OW40192   8.413   8.470   9.484  0.2739  0.3215 -0.3618
42823SOL    HW140193   8.456   8.462   9.399  2.4401  0.3506  0.6746
42823SOL    HW240194   8.461   8.538   9.530 -0.9339  0.3996  0.8630
42824SOL     OW40195   8.708   9.137   0.960 -0.4908 -0.3926  0.4505
42824SOL    HW140196   8.654   9.207   0.996 -0.0523  1.2222 -1.7881
42824SOL    HW240197   8.798   9.164   0.977 -0.1201  1.6681 -3.4925
42825SOL     OW40198   5.201   3.415   0.672 -0.4781  0.1245 -0.2617
42825SOL    HW140199   5.158   3.479   0.728 -0.7120 -0.8889  0.7628
42825SOL    HW240200   5.130   3.373   0.624 -0.4306 -0.0608 -0.1730
42826SOL     OW40201   3.004  10.561   3.690  0.3179 -0.0782  0.3163
42826SOL    HW140202   3.060  10.525   3.622  0.1076 -2.4251  1.2999
42826SOL    HW240203   2.957  10.632   3.647  0.8130 -0.9261 -1.7446
42827SOL     OW40204   5.365   6.954   1.072 -0.3483  0.3450  0.0783
42827SOL    HW140205   5.403   7.032   1.032 -1.8717  1.3260  0.4646
42827SOL    HW240206   5.363   6.889   1.002 -1.6546  1.5758 -1.0568
42828SOL     OW40207   9.057  10.482   8.496  0.0487  0.3041 -0.2500
42828SOL    HW140208   9.098  10.443   8.419 -0.2246  0.2707 -0.3788
42828SOL    HW240209   9.107  10.562   8.511  0.8259 -0.2529  0.2162
42829SOL     OW40210   5.791   4.031  10.691 -0.1536  0.3284  0.3438
42829SOL    HW140211   5.858   4.084  10.649  0.8988 -0.9133  0.3745
42829SOL    HW240212   5.755   4.087  10.760 -1.1772  2.0274 -1.4857
42830SOL     OW40213   5.853  10.891   9.371 -0.1474 -0.2734 -1.2447
42830SOL    HW140214   5.935  10.877   9.324  0.7586 -0.6782  0.3798
42830SOL    HW240215   5.810  10.806   9.370  1.2396 -1.0841  1.0738
42831SOL     OW40216  10.948   3.105   8.931  0.3202 -0.0552  0.3018
42831SOL    HW140217  11.026   3.081   8.882 -0.5529 -0.0127 -1.1788
42831SOL    HW240218  10.918   3.024   8.971 -0.8685 -0.9143 -2.1114
42832SOL     OW40219   1.677   1.750   5.113 -0.7582 -0.3049  0.0952
42832SOL    HW140220   1.667   1.748   5.208 -0.1717 -0.3717  0.1615
42832SOL    HW240221   1.616   1.684   5.081 -1.6028  0.3322  0.3573
42833SOL     OW40222  10.440   0.217   7.277  0.3329  0.7606 -0.5730
42833SOL    HW140223  10.436   0.249   7.367 -0.2117  0.0063 -0.3213
42833SOL    HW240224  10.529   0.185   7.267  0.1801  0.1447 -0.0493
42834SOL     OW40225   2.575   1.503   4.298 -0.4875  0.4232 -0.5267
42834SOL    HW140226   2.631   1.473   4.226  2.0825  0.0715  1.4753
42834SOL    HW240227   2.535   1.423   4.332  0.3024  0.2441 -0.0004
42835SOL     OW40228  10.423   8.031   6.061 -0.1413  0.1520 -0.3130
42835SOL    HW140229  10.495   8.020   5.999 -0.5681 -0.0309 -0.7918
42835SOL    HW240230  10.379   7.946   6.062 -1.4259  0.7623 -1.4289
42836SOL     OW40231  10.117  11.572   1.519 -0.5866  0.8040 -0.5311
42836SOL    HW140232  10.086  11.484   1.540 -0.0333  0.8441  0.5125
42836SOL    HW240233  10.175  11.560   1.444  0.7412  0.0373  0.5826
42837SOL     OW40234   5.628   2.569   4.135  0.0864 -0.2469  0.1303
42837SOL    HW140235   5.679   2.496   4.100  0.7703 -1.0797  2.6456
42837SOL    HW240236   5.540   2.554   4.102  0.8375 -0.4026 -1.9532
42838SOL     OW40237   0.130   3.521   7.098 -0.4997 -0.2683  0.0400
42838SOL    HW140238   0.102   3.525   7.007 -1.5791 -1.9593  0.2584
42838SOL    HW240239   0.146   3.428   7.115 -0.8717 -0.0588  1.7194
42839SOL     OW40240   6.147   9.625   9.505  0.2156 -0.2248 -0.3174
42839SOL    HW140241   6.164   9.540   9.465  1.0683  0.2773 -1.0517
42839SOL    HW240242   6.226   9.644   9.555 -0.1211 -0.0212  0.1425
42840SOL     OW40243   3.743   6.034   1.673  0.3832  0.3987 -0.0126
42840SOL    HW140244   3.735   6.074   1.586  3.6262  0.0644 -0.5802
42840SOL    HW240245   3.663   5.983   1.683 -0.9864  1.9934 -1.9266
42841SOL     OW40246   2.338   7.878   5.329 -0.2171 -0.3970 -0.5749
42841SOL    HW140247   2.419   7.923   5.306 -0.3839 -1.1636 -2.9157
42841SOL    HW240248   2.365   7.789   5.352 -0.2419 -0.1417  0.4955
42842SOL     OW40249   3.593   6.709   0.865 -0.2006 -0.1932 -0.4605
42842SOL    HW140250   3.630   6.674   0.946  1.9357 -1.6197 -1.9657
42842SOL    HW240251   3.518   6.653   0.847 -1.2325  0.6646  0.8981
42843SOL     OW40252   5.864   9.650  11.114  0.3543  0.6689 -0.5852
42843SOL    HW140253   5.950   9.644  11.156 -0.5741  0.9337  1.4754
42843SOL    HW240254   5.811   9.701  11.176 -1.2436  0.6617 -1.8878
42844SOL     OW40255   0.222   7.804  10.679  0.3618  0.3468  0.1074
42844SOL    HW140256   0.176   7.883  10.650 -1.9030 -1.9250 -3.2742
42844SOL    HW240257   0.154   7.751  10.719  1.5258 -0.5552  0.9537
42845SOL     OW40258  10.233  11.638   3.970 -0.1534 -0.8603 -0.2761
42845SOL    HW140259  10.207  11.546   3.974  3.0269 -1.8479  0.6893
42845SOL    HW240260  10.224  11.669   4.060 -4.4070  0.9846 -1.0569
42846SOL     OW40261   8.716   6.306   5.540  0.6848  0.2565 -0.1320
42846SOL    HW140262   8.694   6.377   5.480 -0.4212 -0.8191 -1.0555
42846SOL    HW240263   8.746   6.235   5.484  2.5793  0.2341  0.8285
42847SOL     OW40264   1.526   8.744   3.760 -0.4029 -0.4736  0.5257
42847SOL    HW140265   1.534   8.703   3.846 -2.0783 -1.9929  0.0102
42847SOL    HW240266   1.433   8.739   3.740 -0.2211  1.0308 -0.8419
42848SOL     OW40267   7.025   4.338   4.240  0.1870  0.0350  0.2447
42848SOL    HW140268   7.075   4.264   4.276 -0.3244 -0.7504 -0.5986
42848SOL    HW240269   6.934   4.318   4.261 -0.0398 -0.0252 -0.7373
42849SOL     OW40270   0.119   9.478   9.188  0.1996 -0.4394  0.1195
42849SOL    HW140271   0.181   9.540   9.149  0.0024  0.2633  0.8950
42849SOL    HW240272   0.042   9.530   9.209 -0.2962 -1.1211  0.0232
42850SOL     OW40273   3.443   0.194   6.056 -0.3878 -0.1507 -0.3267
42850SOL    HW140274   3.350   0.211   6.043 -0.0947  1.2235 -0.7692
42850SOL    HW240275   3.465   0.129   5.989 -1.2419 -1.3067  0.4799
42851SOL     OW40276   2.690   4.441   1.825 -0.6296 -0.1890  0.0941
42851SOL    HW140277   2.699   4.380   1.898  0.7756 -0.6337 -0.4217
42851SOL    HW240278   2.609   4.489   1.844 -0.2099 -0.1526  2.0367
42852SOL     OW40279   3.577   6.790   5.927  0.3793  0.1530 -0.1223
42852SOL    HW140280   3.516   6.742   5.871  1.0472  1.7014 -2.3432
42852SOL    HW240281   3.639   6.723   5.957 -0.2699 -0.8268 -0.8925
42853SOL     OW40282   4.343   7.368   0.019  0.4858  0.5734 -0.0660
42853SOL    HW140283   4.282   7.312  -0.029 -0.5436  0.0850  1.7160
42853SOL    HW240284   4.408   7.308   0.054 -0.7909  0.3394  2.1078
42854SOL     OW40285   9.111  11.682   7.994 -0.5963 -0.4704  0.3633
42854SOL    HW140286   9.127  11.721   8.080 -2.2604 -0.3777  0.6595
42854SOL    HW240287   9.158  11.598   7.997 -1.2272 -0.7984  1.6528
42855SOL     OW40288  10.903   5.228   6.941  0.2093  0.3275 -0.1485
42855SOL    HW140289  10.881   5.315   6.976  0.6792  0.8823 -1.2006
42855SOL    HW240290  10.966   5.193   7.004  0.3407  0.9278  0.0637
42856SOL     OW40291   0.845  10.806   5.999 -0.2577 -0.0894  0.2563
42856SOL    HW140292   0.821  10.824   5.909 -0.1111 -1.0448  0.0089
42856SOL    HW240293   0.779  10.851   6.052 -1.2874 -0.8354 -0.3661
42857SOL     OW40294   1.671   3.808   1.958  0.0044  0.0591  0.2335
42857SOL    HW140295   1.604   3.807   1.890  0.6004 -0.6550 -0.3617
42857SOL    HW240296   1.623   3.800   2.040 -0.5273 -3.0589 -0.2774
42858SOL     OW40297   3.306   8.521   1.124  0.6206  0.5132  0.0065
42858SOL    HW140298   3.240   8.514   1.055  1.7026 -0.3620 -0.9765
42858SOL    HW240299   3.270   8.584   1.186 -1.1633  0.0037 -0.4694
42859SOL     OW40300   0.637   6.006   9.179  0.4022  0.4040  0.5174
42859SOL    HW140301   0.629   5.910   9.183  2.2680  0.2587  1.7471
42859SOL    HW240302   0.689   6.022   9.100 -2.2925  0.6765 -1.3645
42860SOL     OW40303   3.469  11.241   7.880  0.3593 -0.1118 -0.0761
42860SOL    HW140304   3.492  11.148   7.884  1.6169  0.0908 -1.6816
42860SOL    HW240305   3.459  11.267   7.972 -1.2008 -2.0698  0.3729
42861SOL     OW40306  10.302   8.826   0.086 -0.5513  0.0869  0.3060
42861SOL    HW140307  10.247   8.812   0.009 -0.3576  3.1189 -0.5201
42861SOL    HW240308  10.242   8.858   0.153 -0.2129  0.9467  0.2132
42862SOL     OW40309   3.215   8.067   4.221  0.2120 -0.1778 -0.7850
42862SOL    HW140310   3.195   7.983   4.261 -1.2626 -0.1636 -1.4270
42862SOL    HW240311   3.210   8.130   4.293 -0.5480 -0.4044 -0.6327
42863SOL     OW40312   8.055   1.749  10.610  0.0683  0.3122  0.1747
42863SOL    HW140313   8.027   1.660  10.588 -1.4268  0.1073  2.5143
42863SOL    HW240314   7.981   1.805  10.586  0.2111  0.6413  0.4762
42864SOL     OW40315  11.521   9.685   7.736 -0.9016 -0.2412  0.5617
42864SOL    HW140316  11.583   9.728   7.794 -0.5424  0.4682 -0.3366
42864SOL    HW240317  11.464   9.755   7.704 -1.1307 -0.6301  0.1005
42865SOL     OW40318   1.368   5.049   8.217  0.8387  0.1075 -0.2576
42865SOL    HW140319   1.309   5.079   8.285  2.8915 -0.4942  1.9296
42865SOL    HW240320   1.380   4.955   8.235  2.3926  0.2001 -0.6245
42866SOL     OW40321   4.009   4.094   0.437  0.1601  0.7681  0.8796
42866SOL    HW140322   3.953   4.154   0.386  0.2674  0.3209  0.2172
42866SOL    HW240323   3.947   4.036   0.481  0.0889  0.1821  0.0341
42867SOL     OW40324   1.072   8.044   9.168  0.0311 -0.2282  0.4714
42867SOL    HW140325   1.151   7.991   9.181 -1.2079 -1.9020  1.6842
42867SOL    HW240326   1.016   7.989   9.112 -0.1608  1.0799 -0.6707
42868SOL     OW40327   5.482   7.234   2.476 -0.0333  0.0531 -0.1022
42868SOL    HW140328   5.401   7.184   2.478 -0.3794  0.6177  0.2815
42868SOL    HW240329   5.514   7.232   2.566 -0.8649  1.7975  0.2783
42869SOL     OW40330   7.814   7.737  10.817 -0.3744 -0.2084  0.7269
42869SOL    HW140331   7.906   7.711  10.823 -0.6335 -1.0718  1.1419
42869SOL    HW240332   7.808   7.816  10.871  0.0442 -0.3779  1.0261
42870SOL     OW40333   9.046   1.442   6.882 -0.3598  0.1608 -0.5531
42870SOL    HW140334   9.065   1.536   6.882 -1.8828  0.4975 -1.1124
42870SOL    HW240335   9.111   1.404   6.941  1.0915  1.3895 -1.2900
42871SOL     OW40336   0.351   9.238   3.836  0.4548  0.0557 -0.1260
42871SOL    HW140337   0.418   9.184   3.793 -1.4760 -1.3884 -1.4858
42871SOL    HW240338   0.268   9.203   3.804 -0.9594  2.5121  0.6130
42872SOL     OW40339   3.677   7.736  11.457 -0.5376  0.1188  0.3456
42872SOL    HW140340   3.699   7.668  11.393  0.8175 -1.3063  2.2096
42872SOL    HW240341   3.698   7.818  11.413  1.8434 -0.8697 -0.5412
42873SOL     OW40342   6.036  11.733   9.712 -0.0904 -0.4800  0.3117
42873SOL    HW140343   5.998  11.788   9.643 -2.3596 -0.7791  1.2016
42873SOL    HW240344   6.020  11.783   9.793 -2.5015 -2.4234  1.1906
42874SOL     OW40345   2.165   5.874   2.255 -0.6048 -0.5179 -0.4813
42874SOL    HW140346   2.234   5.821   2.218 -0.0325 -1.0001  1.1814
42874SOL    HW240347   2.134   5.824   2.331  1.2298  2.1923  2.3145
42875SOL     OW40348   9.942   5.367   2.141  0.6236 -0.2566  0.6839
42875SOL    HW140349   9.991   5.296   2.180  0.6811  0.0488  1.1778
42875SOL    HW240350   9.939   5.346   2.048  1.4159 -0.4394  0.6929
42876SOL     OW40351   1.352   6.253   0.418  0.0043 -0.4661 -0.1986
42876SOL    HW140352   1.277   6.311   0.433  1.0253  0.6601  0.7102
42876SOL    HW240353   1.406   6.300   0.356  0.3856 -0.8833 -0.1841
42877SOL     OW40354   4.191   2.201   8.992  0.0922 -0.0021  0.3621
42877SOL    HW140355   4.192   2.150   9.073  0.9044 -1.2230 -0.3774
42877SOL    HW240356   4.236   2.283   9.014  1.5669 -0.8986  0.8156
42878SOL     OW40357   4.294   5.708   7.122  0.1027 -0.3246 -0.3085
42878SOL    HW140358   4.237   5.685   7.048 -0.0352  0.3686 -0.4193
42878SOL    HW240359   4.338   5.626   7.144  0.1311 -0.5473 -1.1470
42879SOL     OW40360   9.306   9.452   0.281  0.3539  0.1682  0.4494
42879SOL    HW140361   9.373   9.383   0.283 -1.3961 -1.6056  1.9591
42879SOL    HW240362   9.354   9.532   0.304  2.0787 -0.8938  0.7617
42880SOL     OW40363   7.834   0.642   1.636 -0.1286  0.5960  0.1514
42880SOL    HW140364   7.785   0.661   1.556 -0.2961  0.8892  0.3232
42880SOL    HW240365   7.769   0.646   1.706 -0.9239 -3.7100 -0.0688
42881SOL     OW40366   6.799   4.919   1.755  0.1276  0.1067  0.4821
42881SOL    HW140367   6.730   4.970   1.712  1.7384  1.7615 -0.3036
42881SOL    HW240368   6.757   4.881   1.831 -1.3644  2.0852  0.7328
42882SOL     OW40369   0.162   4.496  10.924  0.0642 -0.3001  0.1077
42882SOL    HW140370   0.243   4.451  10.947  0.9281  0.9762 -0.3262
42882SOL    HW240371   0.166   4.506  10.829 -1.9029 -2.5634 -0.3183
42883SOL     OW40372   3.444   6.507   2.692 -0.5442  0.1147 -0.3427
42883SOL    HW140373   3.439   6.514   2.597  0.7822 -0.2585 -0.4710
42883SOL    HW240374   3.405   6.421   2.711 -1.3564  0.4490 -0.4830
42884SOL     OW40375   1.540  11.215   5.578  0.4042  0.3516 -0.5774
42884SOL    HW140376   1.455  11.182   5.605  0.4282  1.3053  0.7325
42884SOL    HW240377   1.603  11.152   5.614  0.5223  2.2354  2.8945
42885SOL     OW40378   6.269   5.002   8.087  0.0678 -0.1622 -0.3401
42885SOL    HW140379   6.181   5.038   8.096 -0.0655 -0.2378 -1.2600
42885SOL    HW240380   6.294   4.976   8.176 -0.8734 -0.2275 -0.0886
42886SOL     OW40381  11.410   5.002   4.351  0.1358  0.4173 -0.0533
42886SOL    HW140382  11.392   4.926   4.296  0.8912 -0.2763  0.6202
42886SOL    HW240383  11.356   5.072   4.315 -0.6479 -0.4657 -0.6331
42887SOL     OW40384   6.972   5.474   9.681 -0.1023  0.2198  0.6797
42887SOL    HW140385   6.910   5.427   9.626  1.4718  1.2781 -2.2091
42887SOL    HW240386   7.056   5.431   9.667  0.6946  1.6655  0.7319
42888SOL     OW40387  10.512   7.566  10.882 -0.5598  0.5512 -0.3160
42888SOL    HW140388  10.589   7.509  10.886 -1.0342 -0.0375  0.6120
42888SOL    HW240389  10.542   7.650  10.918 -0.0227  0.7178 -1.1278
42889SOL     OW40390   4.754   2.294   5.657 -0.5093  0.3104 -0.4299
42889SOL    HW140391   4.782   2.215   5.704 -0.9610  0.0157 -0.6595
42889SOL    HW240392   4.754   2.363   5.724 -0.4442  0.0476 -0.1591
42890SOL     OW40393   5.535   0.846   9.080 -0.0943  0.3264 -0.1054
42890SOL    HW140394   5.580   0.863   9.163  0.1045  0.7073 -0.2911
42890SOL    HW240395   5.463   0.908   9.077 -0.7970 -0.4426  0.3017
42891SOL     OW40396   1.203   8.172   0.456  0.2242 -0.1573 -0.4214
42891SOL    HW140397   1.208   8.266   0.473 -2.2133 -0.2608  1.2300
42891SOL    HW240398   1.260   8.133   0.521  0.9799  0.1188 -0.8967
42892SOL     OW40399   0.746   9.502   6.452  0.5623 -0.9810 -0.2655
42892SOL    HW140400   0.809   9.553   6.503  1.3547 -0.8690 -1.3257
42892SOL    HW240401   0.706   9.565   6.393 -2.9154 -0.3414  2.4118
42893SOL     OW40402   2.553   1.002  11.863 -0.2608 -0.2690  0.0743
42893SOL    HW140403   2.601   0.930  11.823 -0.6550 -0.8375  0.6242
42893SOL    HW240404   2.540   0.976  11.954  0.0881  0.7444  0.4283
42894SOL     OW40405  10.629   8.085   6.741  0.4493 -0.0196 -0.0126
42894SOL    HW140406  10.606   8.100   6.650  0.0395  0.4152  0.1605
42894SOL    HW240407  10.579   8.006   6.766  0.1442  0.1724 -0.0116
42895SOL     OW40408   8.897   5.651   8.580 -0.0919 -0.7936  0.8557
42895SOL    HW140409   8.969   5.615   8.528  0.2140 -0.3608  0.9808
42895SOL    HW240410   8.857   5.716   8.524  0.7884  0.3082  1.4668
42896SOL     OW40411   9.644   0.295   6.643 -0.2341 -0.4255 -0.2369
42896SOL    HW140412   9.601   0.209   6.650  1.1141 -1.0584  0.4922
42896SOL    HW240413   9.693   0.305   6.724  1.1777  0.1718 -1.1173
42897SOL     OW40414   3.646   0.168   4.877 -0.5743  0.7043 -0.5857
42897SOL    HW140415   3.611   0.079   4.877 -1.8702  1.1796 -1.6140
42897SOL    HW240416   3.591   0.215   4.814  0.8732  1.9274 -0.9835
42898SOL     OW40417   0.136   2.758   9.260 -0.0876  0.0596  0.2701
42898SOL    HW140418   0.115   2.844   9.223 -2.3632  0.2733  1.9210
42898SOL    HW240419   0.138   2.772   9.354  0.6798 -1.4993  0.5178
42899SOL     OW40420   9.331   2.647   6.011  0.2401 -0.1916 -0.7979
42899SOL    HW140421   9.292   2.591   5.944  1.3332 -1.8352 -0.1252
42899SOL    HW240422   9.388   2.589   6.061 -2.7199  0.1318  3.5455
42900SOL     OW40423   9.188   4.517   6.374  0.7691 -0.2624 -0.4506
42900SOL    HW140424   9.202   4.488   6.464 -0.2786 -0.0432 -0.2049
42900SOL    HW240425   9.199   4.438   6.321  0.7112 -0.5322 -0.0614
42901SOL     OW40426   8.520   2.411   4.676  0.1254  0.2438  0.3881
42901SOL    HW140427   8.512   2.330   4.625 -0.9122  0.0407  0.8344
42901SOL    HW240428   8.503   2.481   4.613 -1.0973 -0.0013  0.4211
42902SOL     OW40429   2.482   5.845   5.314 -0.1358  0.5870  0.3416
42902SOL    HW140430   2.393   5.877   5.300  0.1388  1.2051 -0.0038
42902SOL    HW240431   2.509   5.810   5.229 -0.0176  0.4610  0.4300
42903SOL     OW40432  10.075   0.521   3.562 -0.3568  0.1991 -1.0824
42903SOL    HW140433  10.076   0.611   3.592  0.0217 -0.2563  0.3350
42903SOL    HW240434  10.168   0.498   3.551 -0.4020 -0.3591 -0.3437
42904SOL     OW40435   9.569  10.058  10.064  0.2421  0.3456  0.4162
42904SOL    HW140436   9.551  10.049   9.970 -0.5313  1.3304  0.4592
42904SOL    HW240437   9.610   9.974  10.088  1.2850  0.4172 -0.9750
42905SOL     OW40438   5.008  10.701   3.741  0.3738  0.9061  0.3790
42905SOL    HW140439   4.995  10.774   3.681  0.0651 -0.0855 -0.7981
42905SOL    HW240440   4.920  10.671   3.761  0.5238  0.0574 -0.1791
42906SOL     OW40441   9.753   5.003   4.604  0.2246  0.8962 -0.0967
42906SOL    HW140442   9.726   4.963   4.686 -1.2658  0.4003 -0.7975
42906SOL    HW240443   9.787   5.089   4.629 -2.7360  1.9037  0.8508
42907SOL     OW40444   1.805   9.057   2.811 -0.7776  0.6443 -0.0320
42907SOL    HW140445   1.746   8.983   2.803 -0.4216  0.5570 -2.6857
42907SOL    HW240446   1.748   9.132   2.829 -1.3119  0.0517  0.8310
42908SOL     OW40447   2.347   3.378   7.513  0.1067  0.0309  0.0803
42908SOL    HW140448   2.381   3.413   7.596 -0.8981  2.3886 -0.4288
42908SOL    HW240449   2.252   3.375   7.526 -0.0390  0.2023 -0.9238
42909SOL     OW40450   2.159   7.868   1.344 -0.3227  0.7017 -0.6579
42909SOL    HW140451   2.219   7.874   1.269 -0.2267  1.9184 -0.5175
42909SOL    HW240452   2.077   7.904   1.312 -0.1367  1.7242 -0.0707
42910SOL     OW40453   1.184   7.399   9.449 -0.9471  0.0562 -0.0887
42910SOL    HW140454   1.196   7.338   9.376 -2.0441 -1.0945  0.6492
42910SOL    HW240455   1.099   7.375   9.486 -0.0863  0.1159  2.0298
42911SOL     OW40456   4.764  11.330   5.298 -0.4820  0.0166  0.2335
42911SOL    HW140457   4.764  11.257   5.360 -0.3934 -0.1043  0.0911
42911SOL    HW240458   4.795  11.292   5.216  0.6888  0.4708  0.4576
42912SOL     OW40459  11.801   7.162   9.111 -0.5516 -0.9755 -0.2098
42912SOL    HW140460  11.742   7.162   9.187 -1.6282 -0.9465 -1.0293
42912SOL    HW240461  11.766   7.094   9.053  0.5128 -1.2962 -0.5110
42913SOL     OW40462   1.323   6.052  11.115  0.0871  0.5134  0.1681
42913SOL    HW140463   1.404   6.035  11.163  0.3044 -0.3320 -0.4796
42913SOL    HW240464   1.255   6.015  11.170  0.2638  0.1484  0.1432
42914SOL     OW40465   0.265   1.535   3.404  0.2878  0.1842  0.2076
42914SOL    HW140466   0.322   1.463   3.431  1.2125  0.6697 -0.3940
42914SOL    HW240467   0.266   1.532   3.308 -1.2468 -0.2117  0.1873
42915SOL     OW40468   5.738   9.426   4.404 -0.0489  0.3613 -0.5371
42915SOL    HW140469   5.680   9.420   4.328  1.1571 -1.8772 -1.3741
42915SOL    HW240470   5.735   9.518   4.429 -3.2561  0.5285 -1.0602
42916SOL     OW40471   3.084   0.104  11.190 -0.3282 -0.3376 -0.6210
42916SOL    HW140472   3.028   0.088  11.266  0.0154 -1.3612 -0.5693
42916SOL    HW240473   3.162   0.146  11.226  0.0500 -1.2648 -0.3154
42917SOL     OW40474   9.765  10.965   7.440 -0.1779  0.2800 -0.2171
42917SOL    HW140475   9.719  10.988   7.359 -0.2327  0.8514 -0.0257
42917SOL    HW240476   9.700  10.916   7.490  0.2251 -1.1079 -1.0086
42918SOL     OW40477   1.759   8.436  10.848  0.0884 -0.6424  0.6132
42918SOL    HW140478   1.800   8.411  10.930 -0.7504 -0.6080  1.0523
42918SOL    HW240479   1.760   8.357  10.795 -0.2315 -0.9223  1.0218
42919SOL     OW40480   9.820  10.818   9.135 -0.2184  0.1026 -0.1970
42919SOL    HW140481   9.868  10.735   9.136  2.4687  1.5515  1.5883
42919SOL    HW240482   9.756  10.808   9.206  0.0514 -0.4680 -0.0237
42920SOL     OW40483   4.788   0.671   4.337  0.0471 -0.0627 -0.1145
42920SOL    HW140484   4.773   0.733   4.408 -1.3651 -1.8057  1.1906
42920SOL    HW240485   4.712   0.613   4.337  1.1736 -1.6842 -1.3973
42921SOL     OW40486  11.338   7.961   7.423 -0.4406  0.1266  0.1404
42921SOL    HW140487  11.339   8.051   7.390  1.2398  0.3882  0.8175
42921SOL    HW240488  11.249   7.930   7.405 -0.4771  1.2328 -1.9243
42922SOL     OW40489   5.617   6.233   9.507 -0.0858 -0.1985 -0.1165
42922SOL    HW140490   5.668   6.152   9.501 -0.7044 -0.6692  0.7465
42922SOL    HW240491   5.526   6.205   9.502 -0.2943  0.6053 -1.3356
42923SOL     OW40492   7.217   7.839  10.702 -0.5158  0.0643 -0.1865
42923SOL    HW140493   7.264   7.853  10.620 -0.2966  2.0029  0.2153
42923SOL    HW240494   7.287   7.821  10.766 -0.3487  1.9363  0.2087
42924SOL     OW40495   4.899   7.609   2.166 -0.1553 -0.3554  0.6509
42924SOL    HW140496   4.905   7.616   2.261  0.5086 -1.7927  0.7450
42924SOL    HW240497   4.970   7.549   2.142 -0.4260 -0.1484 -0.7306
42925SOL     OW40498   7.077   3.671  11.101  0.0734  0.0567  0.1815
42925SOL    HW140499   7.013   3.700  11.165 -0.1741  0.4564 -0.2407
42925SOL    HW240500   7.099   3.750  11.051 -2.3497 -0.8180 -2.5366
42926SOL     OW40501   7.331  11.921   3.732 -0.3174 -0.0325  0.4975
42926SOL    HW140502   7.392  11.906   3.804  1.7334  0.3825 -1.0514
42926SOL    HW240503   7.268  11.984   3.766 -0.2064 -0.8497  2.3212
42927SOL     OW40504  11.885   1.950  11.077  0.0846 -0.1096 -0.3083
42927SOL    HW140505  11.828   2.027  11.066 -0.5858 -0.9286 -4.1636
42927SOL    HW240506  11.967   1.986  11.110 -0.5309  2.1204 -1.0087
42928SOL     OW40507   9.291   6.597   1.069 -0.4743  0.1707 -0.2400
42928SOL    HW140508   9.267   6.665   1.131  0.3521  0.0274  0.2618
42928SOL    HW240509   9.265   6.631   0.984 -2.3249  0.0536  0.2392
42929SOL     OW40510   9.865  11.211  10.333 -0.1766 -0.0635 -0.2558
42929SOL    HW140511   9.899  11.156  10.404  0.7299  0.3832 -0.3316
42929SOL    HW240512   9.770  11.204  10.341 -0.1282  0.5743  1.4982
42930SOL     OW40513  10.566  11.491   6.791 -0.2872 -0.3496  0.6406
42930SOL    HW140514  10.514  11.481   6.871 -1.3334 -1.7362 -0.1648
42930SOL    HW240515  10.604  11.404   6.776 -1.5278 -0.6097 -1.2876
42931SOL     OW40516   0.269   4.913   1.855  0.3705 -0.0654 -0.1427
42931SOL    HW140517   0.175   4.898   1.859  0.5025 -0.7581  0.6242
42931SOL    HW240518   0.296   4.922   1.946  0.8731  1.3350 -0.3955
42932SOL     OW40519   5.203   4.711   2.146  0.2020 -0.1515  0.4921
42932SOL    HW140520   5.269   4.765   2.104  1.8346  0.4925  3.5962
42932SOL    HW240521   5.250   4.632   2.174 -0.5947 -0.2140  1.7332
42933SOL     OW40522   2.561   5.591   0.261  0.3161  0.5810  0.4510
42933SOL    HW140523   2.492   5.605   0.196 -0.7032 -0.8059  1.1879
42933SOL    HW240524   2.641   5.580   0.209 -0.1507  1.3598 -0.4632
42934SOL     OW40525   1.595   4.018   1.402 -0.0328 -0.0327  0.3544
42934SOL    HW140526   1.581   4.048   1.492 -0.0422  0.8476  0.0616
42934SOL    HW240527   1.619   4.097   1.353 -0.9800 -0.3353 -0.6215
42935SOL     OW40528   4.608   8.433  10.999 -0.1105 -0.2167  0.4734
42935SOL    HW140529   4.699   8.415  11.023 -0.3086 -1.8123  0.1504
42935SOL    HW240530   4.597   8.392  10.913 -0.5914  1.7252 -0.4396
42936SOL     OW40531   5.604   6.809   9.283  0.0141  0.6298  0.2272
42936SOL    HW140532   5.692   6.816   9.321 -0.1832  3.0512  0.3750
42936SOL    HW240533   5.610   6.854   9.199 -1.1183  0.9206  0.2905
42937SOL     OW40534   0.885   0.842   3.519  0.3202 -1.0538 -0.4771
42937SOL    HW140535   0.887   0.927   3.563  0.0736 -1.8083  1.0410
42937SOL    HW240536   0.977   0.818   3.507  0.4102 -1.4274  0.8385
42938SOL     OW40537   9.322   2.880   8.476 -0.4903  0.1058  0.0208
42938SOL    HW140538   9.269   2.918   8.546  0.8612 -0.5448  1.4626
42938SOL    HW240539   9.334   2.951   8.413  0.1871  1.4391  1.5908
42939SOL     OW40540   1.182   0.233   0.184  0.3460 -0.6779 -0.2349
42939SOL    HW140541   1.174   0.171   0.112  0.2508  1.1147 -1.8330
42939SOL    HW240542   1.156   0.317   0.147  2.0577  0.6583  1.3776
42940SOL     OW40543   0.035   1.303   5.483 -0.5549  0.3332 -0.2819
42940SOL    HW140544  -0.045   1.328   5.529 -0.5369  0.1073 -0.1295
42940SOL    HW240545   0.014   1.220   5.441 -0.6212  0.6107 -0.8112
42941SOL     OW40546   4.187   9.061   1.577 -0.4884  0.3215  0.0849
42941SOL    HW140547   4.093   9.041   1.585 -0.7422 -0.1770 -2.9267
42941SOL    HW240548   4.190   9.155   1.560 -0.5434  0.1903 -0.6924
42942SOL     OW40549   5.701   6.253   9.755 -0.6314 -0.8608  0.0135
42942SOL    HW140550   5.681   6.293   9.670 -1.6639  0.8622  1.0026
42942SOL    HW240551   5.615   6.241   9.796 -0.2307 -2.8041  0.3710
42943SOL     OW40552   1.964   4.981   9.237 -0.4995 -0.3020 -0.0268
42943SOL    HW140553   1.939   5.069   9.267 -1.0290 -0.0923 -1.0453
42943SOL    HW240554   1.990   4.993   9.146 -0.1138 -1.1299 -0.0348
42944SOL     OW40555   0.145   3.742   9.998  0.2983 -0.3904  0.2698
42944SOL    HW140556   0.144   3.769   9.907 -0.0714  0.4540  0.5150
42944SOL    HW240557   0.057   3.709  10.015 -0.1383  0.9435  0.7370
42945SOL     OW40558   1.944  11.392  10.991  0.4770 -0.0977  0.7710
42945SOL    HW140559   1.868  11.442  10.962  1.9244  1.2577 -0.9350
42945SOL    HW240560   1.923  11.301  10.970 -0.1254  0.4126 -0.9970
42946SOL     OW40561   1.475   8.622   9.437  0.3823  0.2282 -0.2672
42946SOL    HW140562   1.394   8.614   9.488  0.0332  2.5242 -0.3210
42946SOL    HW240563   1.450   8.598   9.348  0.0446 -0.1751 -0.0662
42947SOL     OW40564   9.316   6.071   7.009 -0.1858 -0.0843  0.7937
42947SOL    HW140565   9.231   6.083   7.053 -0.1836 -0.3918  0.8821
42947SOL    HW240566   9.293   6.046   6.919 -0.1879  0.1798  0.7201
42948SOL     OW40567   5.679   7.796   6.165 -0.4573 -0.2682 -0.4753
42948SOL    HW140568   5.689   7.753   6.250  1.0287 -0.1217 -0.5546
42948SOL    HW240569   5.608   7.748   6.122 -1.9962  0.3474  1.2546
42949SOL     OW40570   6.087   5.813   4.616 -0.3914  0.0423  0.0199
42949SOL    HW140571   6.177   5.804   4.647 -0.7494 -2.3668  0.5677
42949SOL    HW240572   6.056   5.894   4.656  1.0417  0.0715  1.1583
42950SOL     OW40573   3.069   2.047   4.218 -0.1259 -0.0246  0.4644
42950SOL    HW140574   3.052   1.954   4.199 -1.7063  0.2463  0.4312
42950SOL    HW240575   3.018   2.064   4.297 -0.5253  1.0184 -0.0048
42951SOL     OW40576  11.053   3.490   6.669 -0.5388  0.4224 -0.2466
42951SOL    HW140577  11.068   3.402   6.632 -1.0186 -0.2785  1.1621
42951SOL    HW240578  10.986   3.528   6.611  1.5425  0.9537 -2.4751
42952SOL     OW40579  11.852   1.029   3.363  0.2530 -0.2729 -0.3677
42952SOL    HW140580  11.796   1.074   3.301 -0.1903  1.7986  1.4099
42952SOL    HW240581  11.882   1.098   3.423  2.1723 -1.8351  0.6062
42953SOL     OW40582   3.880   3.283   4.238 -0.0077  0.3776  0.1017
42953SOL    HW140583   3.813   3.235   4.287  1.1994 -0.3781  1.0688
42953SOL    HW240584   3.888   3.367   4.284  0.0240  0.2950  0.2473
42954SOL     OW40585   9.739   4.041   5.014 -0.0026  0.0952  0.2580
42954SOL    HW140586   9.825   4.069   4.984  0.6222 -1.1624  0.8299
42954SOL    HW240587   9.712   3.974   4.952 -0.1757 -0.1483  0.5968
42955SOL     OW40588   6.962   9.265  11.006 -0.1334  0.0071 -0.2537
42955SOL    HW140589   6.962   9.358  10.985 -0.3091 -0.1036 -0.7613
42955SOL    HW240590   6.906   9.258  11.083  1.1050  0.5122  0.7298
42956SOL     OW40591  10.441   6.423  10.541 -0.0036 -0.3090  0.0494
42956SOL    HW140592  10.439   6.474  10.461 -1.3378 -0.8767 -0.2976
42956SOL    HW240593  10.358   6.442  10.585  1.1093  0.7568  1.8027
42957SOL     OW40594   0.939   5.784   7.450  0.1935  0.2530  0.3205
42957SOL    HW140595   0.897   5.867   7.428 -0.2170 -0.1443 -0.4424
42957SOL    HW240596   0.955   5.741   7.366 -0.2880 -0.7672  0.7241
42958SOL     OW40597   6.615   4.944   8.141  0.2402  0.6019  0.5782
42958SOL    HW140598   6.612   4.848   8.133 -2.1219  0.7455 -1.2449
42958SOL    HW240599   6.678   4.971   8.075 -0.8290  0.3772 -0.5797
42959SOL     OW40600  11.682  11.653  10.397 -0.4712  0.0448  0.0593
42959SOL    HW140601  11.766  11.647  10.351  1.0947  0.6841  2.6709
42959SOL    HW240602  11.638  11.571  10.376 -0.0747  0.4460 -2.8443
42960SOL     OW40603   2.789   5.875   0.551  0.1480  0.3446 -0.0133
42960SOL    HW140604   2.856   5.810   0.528  0.5068  0.5611  0.4261
42960SOL    HW240605   2.734   5.881   0.472  0.9309  0.5236 -0.5505
42961SOL     OW40606   6.822   1.684   3.120  0.1093 -0.2830  0.5790
42961SOL    HW140607   6.747   1.627   3.139 -1.5770  1.7346  0.4232
42961SOL    HW240608   6.822   1.692   3.025 -1.1964  1.7725  0.6909
42962SOL     OW40609   6.462   3.092   6.442 -0.4837  0.4458  0.5547
42962SOL    HW140610   6.401   3.131   6.378 -1.1036  0.5845  1.2200
42962SOL    HW240611   6.522   3.040   6.388 -1.3430  0.1007 -0.1142
42963SOL     OW40612   7.729   3.055   6.266  0.0959  0.2118  0.0553
42963SOL    HW140613   7.768   3.088   6.347  0.3507  0.4309 -0.1536
42963SOL    HW240614   7.645   3.099   6.260  0.4099  0.7839 -0.1923
42964SOL     OW40615   1.193   5.726   0.659  0.2743 -0.3104  0.0146
42964SOL    HW140616   1.179   5.821   0.660 -2.7223 -0.6494  1.1916
42964SOL    HW240617   1.209   5.706   0.566  2.4126  1.4227 -0.0794
42965SOL     OW40618   3.925   1.073   4.889 -0.3131  0.6194  0.2148
42965SOL    HW140619   3.873   1.125   4.828  0.6274  1.3333 -0.0003
42965SOL    HW240620   3.865   1.053   4.961 -1.0511  0.8960 -0.3071
42966SOL     OW40621   1.588  11.167   2.153 -0.1663  0.7272 -0.0640
42966SOL    HW140622   1.571  11.246   2.205  0.8673  0.7510  0.2596
42966SOL    HW240623   1.598  11.097   2.218  1.1411  0.7587 -0.2017
42967SOL     OW40624   2.822   3.920   3.507 -0.0278  0.1400 -0.2626
42967SOL    HW140625   2.821   3.997   3.450 -0.5383 -1.2020 -2.1543
42967SOL    HW240626   2.810   3.956   3.595  0.2546  2.2481 -1.0155
42968SOL     OW40627  10.819   6.586   8.277  0.1033 -0.7231  0.2545
42968SOL    HW140628  10.899   6.539   8.300 -0.4004 -0.4436  2.9401
42968SOL    HW240629  10.833   6.675   8.311 -0.7018 -0.2051 -0.7156
42969SOL     OW40630   7.829   2.924   6.557 -0.3362  0.0736  0.0575
42969SOL    HW140631   7.919   2.892   6.544 -0.8338 -0.5685 -2.2243
42969SOL    HW240632   7.834   3.017   6.538 -0.6101 -0.4558 -3.2362
42970SOL     OW40633   0.460  10.835  10.875 -0.0674 -0.0688  0.5351
42970SOL    HW140634   0.365  10.834  10.884 -0.3888  2.5355 -1.3073
42970SOL    HW240635   0.485  10.743  10.870 -2.5828 -0.8129  0.2096
42971SOL     OW40636   1.162   1.100   6.292  0.2054  0.2242 -0.1181
42971SOL    HW140637   1.104   1.028   6.316  0.7590 -0.1797  0.0350
42971SOL    HW240638   1.130   1.175   6.342 -0.2449  0.0348 -0.1199
42972SOL     OW40639   4.836  10.343   7.592  0.0421  0.2169  0.1214
42972SOL    HW140640   4.813  10.294   7.512 -0.3433  0.6349 -0.0255
42972SOL    HW240641   4.811  10.284   7.663 -2.0870  0.8705 -0.0068
42973SOL     OW40642   8.665  11.390   1.678 -0.5800  0.1714 -0.5771
42973SOL    HW140643   8.711  11.307   1.692 -1.1065  0.1984  1.6653
42973SOL    HW240644   8.593  11.367   1.619 -0.4076 -0.8674 -0.4109
42974SOL     OW40645   7.957   2.523  10.272  0.0916  0.6788 -0.6015
42974SOL    HW140646   7.943   2.576  10.194  1.1322  0.1865 -1.1373
42974SOL    HW240647   7.891   2.454  10.266  0.3007  0.5252 -1.1556
42975SOL     OW40648   6.175  11.417  11.421 -0.3251 -0.2487  0.2448
42975SOL    HW140649   6.193  11.372  11.339  0.6859  1.7033 -0.6823
42975SOL    HW240650   6.087  11.390  11.445  0.1975 -2.5854 -0.2726
42976SOL     OW40651   2.560  11.406   6.503  0.0142  0.2467 -0.0907
42976SOL    HW140652   2.639  11.442   6.464  0.5675 -0.7540  0.0831
42976SOL    HW240653   2.491  11.469   6.480  0.6185  0.4759 -1.3287
42977SOL     OW40654  11.598   1.244   6.319 -0.1658 -0.0202  0.1605
42977SOL    HW140655  11.577   1.202   6.236 -0.8039 -0.4847  0.5389
42977SOL    HW240656  11.557   1.187   6.385  0.7321  0.0735  0.8189
42978SOL     OW40657   0.585   1.363   6.557  0.4486 -0.6852  0.6295
42978SOL    HW140658   0.510   1.308   6.534 -0.0971  0.5813 -0.8089
42978SOL    HW240659   0.548   1.449   6.575  1.5293 -0.0167 -0.1733
42979SOL     OW40660   8.759   0.248   0.252 -0.1514 -0.2312 -0.0321
42979SOL    HW140661   8.742   0.235   0.345  0.6210  1.6798  0.4371
42979SOL    HW240662   8.815   0.175   0.226  1.6042  0.4569  1.6211
42980SOL     OW40663   4.010   4.792   4.232  0.5155  0.3075 -0.2787
42980SOL    HW140664   4.085   4.797   4.291 -0.1867  1.8606  0.5249
42980SOL    HW240665   4.044   4.819   4.147  1.0565  0.0911 -0.1349
42981SOL     OW40666   9.349   2.492   7.042  0.2847 -0.5023 -0.1474
42981SOL    HW140667   9.317   2.582   7.037 -1.3207 -1.1006 -2.1560
42981SOL    HW240668   9.344   2.460   6.951  1.5720 -2.3709  0.3874
42982SOL     OW40669   6.107   3.391   8.841 -0.5145 -0.0720 -0.0019
42982SOL    HW140670   6.131   3.447   8.915 -1.6678 -0.5291  0.7544
42982SOL    HW240671   6.147   3.306   8.862  2.3772  0.7292 -1.8025
42983SOL     OW40672   8.927   9.709   4.071  0.1075 -0.3633 -0.5187
42983SOL    HW140673   8.994   9.746   4.128 -0.5473 -0.7975  0.5650
42983SOL    HW240674   8.845   9.721   4.119 -0.6791  0.5660 -2.0199
42984SOL     OW40675   0.960   2.139   2.457  0.7071  0.0635 -0.0006
42984SOL    HW140676   0.977   2.208   2.522  0.0497  0.5422 -0.3274
42984SOL    HW240677   1.047   2.119   2.422  1.4142 -1.7052  2.4783
42985SOL     OW40678   8.613   9.104   8.558  0.0649  0.1428  0.1440
42985SOL    HW140679   8.641   9.039   8.622 -2.5067 -0.5710  0.6701
42985SOL    HW240680   8.674   9.176   8.568  2.6645 -1.8777 -0.0406
42986SOL     OW40681  10.856  11.632   5.165 -0.0356 -0.3072 -0.0479
42986SOL    HW140682  10.916  11.576   5.214  0.4988  0.7745  0.5746
42986SOL    HW240683  10.800  11.672   5.232 -0.6638 -0.3798 -0.5158
42987SOL     OW40684   7.864   9.371   2.163 -0.5224 -0.7065 -0.2146
42987SOL    HW140685   7.873   9.362   2.258 -0.1775 -1.4058 -0.3038
42987SOL    HW240686   7.914   9.450   2.141 -1.2546 -0.0980  0.2740
42988SOL     OW40687   0.089   8.985   0.200  0.3067 -0.2897 -0.7051
42988SOL    HW140688   0.125   8.949   0.119  0.8133 -0.3519 -0.4589
42988SOL    HW240689   0.127   8.931   0.269  0.5733  0.3096 -0.3706
42989SOL     OW40690   4.281   0.179   9.271  0.1768 -0.0518 -0.4378
42989SOL    HW140691   4.249   0.090   9.284  0.4132  0.0096  0.6470
42989SOL    HW240692   4.260   0.198   9.179 -0.6649 -0.8978 -0.4472
42990SOL     OW40693   3.477   0.897   9.915  0.0795  0.0127 -0.1777
42990SOL    HW140694   3.466   0.838   9.840 -1.5460  0.7065 -0.5297
42990SOL    HW240695   3.472   0.985   9.877  0.5188  0.3770  0.5903
42991SOL     OW40696   6.079   1.191   5.567 -0.2167 -0.8814 -0.1831
42991SOL    HW140697   6.090   1.262   5.630 -1.7491 -0.6271 -0.1615
42991SOL    HW240698   6.086   1.111   5.619 -1.2445 -0.6768  0.3066
42992SOL     OW40699  10.005   6.059   4.084 -0.3680 -0.1665  0.0285
42992SOL    HW140700   9.954   5.980   4.067 -0.4484 -0.3142  0.9121
42992SOL    HW240701   9.997   6.111   4.004 -1.3512 -0.4924 -0.0917
42993SOL     OW40702   4.118   0.046   0.787  0.0490  0.4083 -0.7591
42993SOL    HW140703   4.193  -0.012   0.776 -0.1795  0.2003 -1.2669
42993SOL    HW240704   4.110   0.091   0.702  0.6610  1.7276 -0.1584
42994SOL     OW40705   1.927   3.187   5.311  0.1345  0.4805 -0.3592
42994SOL    HW140706   1.969   3.166   5.394  1.6794  1.7676 -0.7744
42994SOL    HW240707   1.997   3.181   5.246 -1.0026 -0.3270 -1.5698
42995SOL     OW40708   6.759  11.347   3.885 -0.0550  0.3750 -0.6789
42995SOL    HW140709   6.718  11.421   3.931 -1.8512 -0.9837  0.0020
42995SOL    HW240710   6.790  11.290   3.955 -0.0984 -0.2769 -1.1867
42996SOL     OW40711   9.439   9.336   9.130  0.1186  0.5972  0.0012
42996SOL    HW140712   9.434   9.431   9.144 -0.9490  0.3581  1.4038
42996SOL    HW240713   9.348   9.308   9.122  0.3129 -0.5233  1.3006
42997SOL     OW40714   5.612  11.577   2.245  0.7623  0.2517  0.2560
42997SOL    HW140715   5.597  11.648   2.307  1.4637 -0.6918  1.5837
42997SOL    HW240716   5.618  11.619   2.160  1.9596  1.8991  1.0965
42998SOL     OW40717  11.234   1.374   9.203 -0.2034  0.3209 -0.4766
42998SOL    HW140718  11.208   1.283   9.207 -0.1508  0.2748  4.6709
42998SOL    HW240719  11.328   1.371   9.186 -0.1270 -0.6345  0.0517
42999SOL     OW40720   7.627  11.259   1.162  0.0498  0.7423  0.2468
42999SOL    HW140721   7.696  11.324   1.151 -0.1059  1.0136  0.8097
42999SOL    HW240722   7.565  11.300   1.222  0.0275  0.0121  0.7387
43000SOL     OW40723   5.895   4.852   0.279  0.0183 -0.1129 -0.3315
43000SOL    HW140724   5.928   4.766   0.255  0.7472 -0.2498  1.0668
43000SOL    HW240725   5.957   4.914   0.239 -0.2086 -0.2454 -0.8937
43001SOL     OW40726   2.705   7.936  10.510  0.4706  0.1038  0.9885
43001SOL    HW140727   2.629   7.975  10.466  0.5557 -0.4402  0.3455
43001SOL    HW240728   2.780   7.976  10.467  0.5531 -0.1671  0.8796
43002SOL     OW40729   4.390   6.842  11.805 -0.2030 -0.0321 -0.7483
43002SOL    HW140730   4.384   6.792  11.886  0.0770  0.3647 -0.4770
43002SOL    HW240731   4.313   6.815  11.754 -1.9601  1.7288  0.7950
43003SOL     OW40732   3.898   1.553  10.569  0.2146  0.6960 -0.0250
43003SOL    HW140733   3.980   1.518  10.535 -0.1860 -0.0429 -0.2574
43003SOL    HW240734   3.830   1.503  10.524 -0.3501  0.7391  0.7579
43004SOL     OW40735   1.475   8.532  10.387 -0.0953 -0.8609 -0.2797
43004SOL    HW140736   1.533   8.480  10.443  0.5911  1.1361  0.9704
43004SOL    HW240737   1.533   8.566  10.319  0.1452  0.6320  0.6178
43005SOL     OW40738   5.262   3.069   2.038 -0.9211  0.5687  0.3223
43005SOL    HW140739   5.235   2.983   2.072 -0.6692 -0.3299 -1.6263
43005SOL    HW240740   5.318   3.048   1.963 -0.1693  2.4517  0.3082
43006SOL     OW40741   8.428   7.028   8.818 -0.5753  0.3441  0.0299
43006SOL    HW140742   8.336   7.015   8.840 -0.6730 -0.3691 -0.8043
43006SOL    HW240743   8.435   7.123   8.803 -1.1466  0.4146  0.1718
43007SOL     OW40744   9.445   1.078   6.365  0.2012  0.1146  0.5521
43007SOL    HW140745   9.356   1.107   6.383 -0.0257 -0.4033  0.2809
43007SOL    HW240746   9.495   1.103   6.443  0.0253  1.2364  0.3302
43008SOL     OW40747   6.898  10.003  10.313  0.6270  0.3379 -0.2481
43008SOL    HW140748   6.913  10.094  10.336  2.5587 -0.4516  1.9555
43008SOL    HW240749   6.973   9.979  10.259 -0.3603  0.2387 -1.6616
43009SOL     OW40750   5.494   3.532   6.929  0.2884 -0.1188  0.0944
43009SOL    HW140751   5.540   3.459   6.886  1.2333  0.9836 -0.8614
43009SOL    HW240752   5.436   3.567   6.861 -0.9717 -0.6317  0.8774
43010SOL     OW40753   3.595  10.141   1.227 -0.3308 -0.2673  0.3487
43010SOL    HW140754   3.590  10.168   1.136  0.7176 -1.7367 -0.1811
43010SOL    HW240755   3.504  10.138   1.257 -0.7005 -0.0135 -0.7229
43011SOL     OW40756   9.434   2.323   5.854  0.3540  0.7674 -0.0910
43011SOL    HW140757   9.454   2.358   5.941 -0.8825  1.2919  0.0147
43011SOL    HW240758   9.519   2.308   5.813  1.0059 -0.7742  1.6869
43012SOL     OW40759   0.219   2.993   0.086  0.1858 -0.3513  0.0534
43012SOL    HW140760   0.135   2.960   0.055  0.1063  0.7437 -1.0206
43012SOL    HW240761   0.254   3.042   0.011  1.0264  0.5619  1.0014
43013SOL     OW40762   0.099   1.583  11.866  0.3344  0.0638  0.3297
43013SOL    HW140763   0.031   1.641  11.899 -0.2932 -1.4867  1.9479
43013SOL    HW240764   0.134   1.540  11.945  1.5577 -0.8872 -0.6835
43014SOL     OW40765   7.762   6.624  10.989 -1.1386  0.5158 -0.2299
43014SOL    HW140766   7.790   6.713  10.965 -2.0540  0.6795 -0.7234
43014SOL    HW240767   7.844   6.578  11.009 -0.6126  1.3259 -0.4551
43015SOL     OW40768   9.678   2.499   2.029  0.4560 -0.9169  0.3488
43015SOL    HW140769   9.648   2.481   1.939 -0.6446  1.0301  0.2742
43015SOL    HW240770   9.601   2.481   2.083 -0.0764  1.4790  0.4598
43016SOL     OW40771   2.310   4.193   8.746 -0.0784  0.0801 -0.4118
43016SOL    HW140772   2.255   4.128   8.789 -1.3203  1.3222 -0.0694
43016SOL    HW240773   2.279   4.195   8.656  0.3203 -0.1632 -0.5590
43017SOL     OW40774   1.370   1.134   9.714  0.3679  0.0221  0.1139
43017SOL    HW140775   1.393   1.226   9.702 -0.4144  0.3835  1.2449
43017SOL    HW240776   1.300   1.135   9.778 -0.2418 -1.3170 -0.5016
43018SOL     OW40777   8.925  10.549   5.267 -0.3855 -0.5464  0.2144
43018SOL    HW140778   9.007  10.582   5.305 -0.5549  1.1805 -0.7812
43018SOL    HW240779   8.952  10.508   5.184 -0.5495  0.4798 -0.3641
43019SOL     OW40780  11.726   6.299  10.578  0.6216  0.0213 -0.6917
43019SOL    HW140781  11.677   6.372  10.541 -0.7142 -0.7738 -0.5499
43019SOL    HW240782  11.811   6.303  10.534 -0.0006  0.6836 -1.8766
43020SOL     OW40783   4.313   8.047   1.108 -0.4420  0.2544  0.0010
43020SOL    HW140784   4.371   8.083   1.041  2.3637 -0.9638  1.6088
43020SOL    HW240785   4.361   8.058   1.190 -1.8877 -2.0576  1.2700
43021SOL     OW40786   5.480   0.610   1.931  0.5105  0.0029  0.3285
43021SOL    HW140787   5.459   0.612   1.838 -0.2671  3.1250  0.4488
43021SOL    HW240788   5.573   0.588   1.935  0.7805  0.7374 -1.2732
43022SOL     OW40789   5.530   7.326   7.959 -0.1059 -0.1412  0.2323
43022SOL    HW140790   5.456   7.347   8.015 -0.6458 -0.3527 -0.3954
43022SOL    HW240791   5.607   7.346   8.013 -0.6105  0.1837  0.8457
43023SOL     OW40792   4.530   2.477   9.765  0.8675  0.8021 -0.4035
43023SOL    HW140793   4.511   2.505   9.676  0.1337 -1.5306 -1.0412
43023SOL    HW240794   4.625   2.484   9.772  1.1317 -0.5695 -1.9854
43024SOL     OW40795   2.037  10.207   6.560  0.0488 -0.0410  0.0097
43024SOL    HW140796   2.006  10.125   6.600 -0.8561  0.8378  1.1973
43024SOL    HW240797   2.020  10.196   6.467 -1.6643 -0.5778  0.3351
43025SOL     OW40798   2.865   0.089   5.737  0.2450 -0.2482 -0.1632
43025SOL    HW140799   2.955   0.107   5.764  1.0655 -1.1385 -2.1315
43025SOL    HW240800   2.831   0.173   5.707  0.4776  0.0427  0.3745
43026SOL     OW40801  10.821   3.297   4.827  0.3887 -0.4452  0.8628
43026SOL    HW140802  10.834   3.367   4.762  0.0885 -0.7168  0.5051
43026SOL    HW240803  10.753   3.330   4.885  0.3004 -0.4078  0.7391
43027SOL     OW40804   4.601   1.397   3.632  0.4827  0.2257 -0.5451
43027SOL    HW140805   4.533   1.408   3.699 -2.0088  0.3670 -2.9203
43027SOL    HW240806   4.568   1.328   3.575  2.0934  0.6902 -2.1219
43028SOL     OW40807   1.683   0.989   0.133 -0.0196 -0.1766 -0.2220
43028SOL    HW140808   1.703   0.903   0.097 -2.2602 -0.6073 -0.6080
43028SOL    HW240809   1.689   1.048   0.057 -1.0056 -0.4475 -0.5248
43029SOL     OW40810   1.104   9.584   1.643  0.6494 -0.0999 -0.4023
43029SOL    HW140811   1.019   9.576   1.687  1.1118  0.5789  0.6618
43029SOL    HW240812   1.086   9.638   1.566  0.2442  0.6806  0.2267
43030SOL     OW40813   2.984   1.576   9.300  0.2858  0.2534 -0.0157
43030SOL    HW140814   2.933   1.619   9.231 -0.2674  0.2725  0.3990
43030SOL    HW240815   2.929   1.504   9.329 -0.2821  1.2745  1.6068
43031SOL     OW40816   2.920   9.792   0.117 -0.0692 -0.2220  0.2275
43031SOL    HW140817   3.009   9.827   0.124  0.2693 -1.2942  2.1458
43031SOL    HW240818   2.864   9.866   0.142  0.1686  0.7461 -1.9269
43032SOL     OW40819  10.970  10.426   7.330 -0.0918  0.4428 -0.2091
43032SOL    HW140820  10.960  10.332   7.344  0.7820  0.5094  0.9788
43032SOL    HW240821  10.914  10.467   7.396  0.3332  0.7497 -0.0318
43033SOL     OW40822   2.226  10.812   6.528  0.0567  0.2002 -0.0876
43033SOL    HW140823   2.288  10.741   6.548  0.3781  0.4368 -0.2194
43033SOL    HW240824   2.282  10.883   6.496 -0.1324  0.9731  1.2423
43034SOL     OW40825   2.893   0.516   1.276 -0.8431  0.0593 -0.1154
43034SOL    HW140826   2.902   0.579   1.204 -2.3695  0.9155  0.3901
43034SOL    HW240827   2.982   0.483   1.290 -0.3106  0.7612 -1.5854
43035SOL     OW40828   0.279  11.881   3.992 -0.3269  0.0954 -0.6852
43035SOL    HW140829   0.321  11.947   3.936  0.5965 -0.3420 -0.5214
43035SOL    HW240830   0.346  11.815   4.006 -0.3537  0.4642  1.4242
43036SOL     OW40831   9.859  10.797   4.072  0.0169 -0.2017 -0.0986
43036SOL    HW140832   9.887  10.713   4.109  1.2602  0.0174 -0.5040
43036SOL    HW240833   9.881  10.791   3.979 -0.5674  0.2971 -0.2774
43037SOL     OW40834   1.372   8.309   6.237  0.0657 -0.5709 -0.0318
43037SOL    HW140835   1.370   8.215   6.257 -0.1674 -0.4336  0.6328
43037SOL    HW240836   1.400   8.350   6.319  0.8456 -0.1114 -0.5205
43038SOL     OW40837   4.550   3.434   3.434  0.4590  0.3084  0.2444
43038SOL    HW140838   4.575   3.524   3.414 -0.5967  0.9329  1.5648
43038SOL    HW240839   4.613   3.380   3.386  0.2097  1.7055 -1.8028
43039SOL     OW40840   7.227   8.058  10.273  0.3376  0.0080  0.1611
43039SOL    HW140841   7.184   8.013  10.201 -1.3080  1.7884 -0.0538
43039SOL    HW240842   7.319   8.064  10.246  0.4390 -2.3080 -0.1859
43040SOL     OW40843   7.054   3.342   8.876  0.0631  0.0897  0.0929
43040SOL    HW140844   7.101   3.379   8.950 -1.3556  1.2819  0.4642
43040SOL    HW240845   6.963   3.372   8.888 -0.9321 -2.5165 -0.2866
43041SOL     OW40846   9.265   3.711   0.861  0.1334  0.1519  0.6264
43041SOL    HW140847   9.186   3.701   0.913  0.6154 -1.2066  1.1573
43041SOL    HW240848   9.242   3.775   0.794 -1.5503 -0.5449  0.4913
43042SOL     OW40849   5.604   4.980   5.344 -0.0829  0.2380  0.8164
43042SOL    HW140850   5.527   4.944   5.300 -0.6311  2.1625  0.1075
43042SOL    HW240851   5.573   5.002   5.432 -1.7327  4.7971 -0.5852
43043SOL     OW40852   0.809  10.615   8.844  0.4744  0.2786  0.1061
43043SOL    HW140853   0.860  10.570   8.777  2.4013  1.1838  0.8761
43043SOL    HW240854   0.798  10.704   8.810 -3.1389 -0.5669 -1.3218
43044SOL     OW40855   6.263   3.889   6.852 -0.2821 -0.0090 -0.3026
43044SOL    HW140856   6.270   3.802   6.889  1.1126 -0.6654 -1.9362
43044SOL    HW240857   6.180   3.890   6.805 -1.2263  0.2481  1.3157
43045SOL     OW40858   0.341   0.182   4.059 -0.2185 -0.1101  0.4634
43045SOL    HW140859   0.280   0.249   4.088  0.7886  1.2253 -0.3446
43045SOL    HW240860   0.312   0.102   4.102 -0.8083  1.0547  2.3513
43046SOL     OW40861  10.625   3.810   9.844  0.0840 -0.9489  0.3513
43046SOL    HW140862  10.542   3.762   9.837  0.1873 -1.1459  0.4450
43046SOL    HW240863  10.639   3.818   9.939 -0.8456  0.8818  0.3736
43047SOL     OW40864   9.423   9.972   1.507  0.4225  0.0480  0.3933
43047SOL    HW140865   9.485   9.900   1.518  0.5533 -0.0924 -1.0111
43047SOL    HW240866   9.477  10.044   1.473 -0.2969 -0.3570 -1.7274
43048SOL     OW40867   4.890   1.443   7.873  0.0267 -0.1805  0.5116
43048SOL    HW140868   4.927   1.531   7.862 -1.4586  0.3744 -0.2773
43048SOL    HW240869   4.961   1.392   7.911  1.7368  0.7139 -1.3402
43049SOL     OW40870   8.184   2.955   8.325 -0.0346  0.0682 -0.6142
43049SOL    HW140871   8.137   2.874   8.306 -0.1959  0.0293 -0.0785
43049SOL    HW240872   8.116   3.017   8.352  0.2263 -0.0600  0.4062
43050SOL     OW40873   1.322   0.192   3.888 -0.0471 -0.2213 -0.7427
43050SOL    HW140874   1.357   0.191   3.799  0.1694 -1.8590 -0.6753
43050SOL    HW240875   1.296   0.101   3.904 -0.1888  0.0740  0.8236
43051SOL     OW40876   5.998   6.046   6.554 -0.2757 -0.2835  0.5158
43051SOL    HW140877   6.004   6.140   6.539 -0.8932 -0.4496 -0.9059
43051SOL    HW240878   6.089   6.016   6.557 -0.0863  0.0852 -0.9921
43052SOL     OW40879   8.536   2.320   7.582 -0.1732 -0.4171  0.0510
43052SOL    HW140880   8.525   2.248   7.644  1.1253 -0.8313 -0.1799
43052SOL    HW240881   8.631   2.328   7.570 -0.2877  1.3782  0.1201
43053SOL     OW40882   8.218   3.136   8.591 -0.3816  0.0291 -0.0734
43053SOL    HW140883   8.281   3.195   8.633  0.0989 -0.2559 -0.3852
43053SOL    HW240884   8.202   3.175   8.505  0.8505 -0.9038 -0.7558
43054SOL     OW40885   9.011   0.274   8.964  0.1109  0.2536  0.3371
43054SOL    HW140886   9.066   0.197   8.950 -1.1589 -0.5290 -0.5428
43054SOL    HW240887   9.048   0.316   9.042  2.0494 -0.1156 -0.3309
43055SOL     OW40888  10.699   5.238   4.272  0.4208 -0.1077  0.0962
43055SOL    HW140889  10.729   5.151   4.246 -2.0073 -1.1400  0.3869
43055SOL    HW240890  10.686   5.231   4.366 -2.7424 -0.5599 -0.2509
43056SOL     OW40891   1.361   1.317   2.055  0.0818 -0.4870  0.1120
43056SOL    HW140892   1.451   1.284   2.055  0.3535  0.2224 -0.8392
43056SOL    HW240893   1.308   1.242   2.082  0.9738 -0.8493  0.9165
43057SOL     OW40894   2.827  10.190   6.232  0.1313 -0.2129  0.5193
43057SOL    HW140895   2.876  10.196   6.149 -0.3515 -0.2727  0.2280
43057SOL    HW240896   2.774  10.112   6.223  0.4917 -0.5359  1.1213
43058SOL     OW40897   2.007   6.770   3.671  0.0097 -0.0457 -0.2829
43058SOL    HW140898   1.958   6.756   3.591  1.3244  0.7743 -1.2795
43058SOL    HW240899   2.004   6.865   3.684  1.5963  0.0690 -0.5771
43059SOL     OW40900   5.310   3.272  11.156  0.0200 -0.1747  0.4251
43059SOL    HW140901   5.310   3.360  11.193  0.8690 -0.2744  0.6723
43059SOL    HW240902   5.391   3.232  11.188  0.7201 -0.3288 -1.3773
43060SOL     OW40903   3.344  10.527   8.128  0.2379 -0.1744  0.4739
43060SOL    HW140904   3.432  10.521   8.090  0.1121 -4.4804  0.3637
43060SOL    HW240905   3.334  10.445   8.177 -3.1861  0.8769  1.8212
43061SOL     OW40906  11.239   8.742   6.362  0.1282 -0.3703 -0.7481
43061SOL    HW140907  11.209   8.665   6.313  0.1617  0.0968 -1.5050
43061SOL    HW240908  11.166   8.803   6.359  0.8217  0.4545 -1.9225
43062SOL     OW40909   4.536   5.774   9.148  0.2912  0.1083 -0.1501
43062SOL    HW140910   4.528   5.790   9.242 -1.1883  0.0499 -0.2449
43062SOL    HW240911   4.614   5.823   9.122  0.0649  1.0728  0.9019
43063SOL     OW40912   3.641   6.736   9.796 -0.0903 -0.1715 -0.1960
43063SOL    HW140913   3.715   6.675   9.803  0.4727  0.6435  2.0209
43063SOL    HW240914   3.590   6.719   9.875 -0.2813  1.7432  0.1395
43064SOL     OW40915   5.394   0.149   2.081  0.2311 -0.2002 -0.0775
43064SOL    HW140916   5.320   0.136   2.022  0.6206 -0.3062 -0.5486
43064SOL    HW240917   5.416   0.060   2.111  1.0676 -0.3400 -1.0548
43065SOL     OW40918   0.877   8.357   1.039 -0.0106  0.3944  0.2791
43065SOL    HW140919   0.937   8.397   1.102 -0.4257  2.1190 -0.3643
43065SOL    HW240920   0.914   8.379   0.953 -1.4050  1.2694 -0.1226
43066SOL     OW40921   8.068   0.591  10.037  0.0591  0.0426 -0.1865
43066SOL    HW140922   8.053   0.517   9.979 -0.6569 -0.4646  0.6272
43066SOL    HW240923   8.086   0.665   9.978  2.1839 -1.0320 -1.0023
43067SOL     OW40924   8.715   6.165   0.354 -0.0385 -0.4168  0.1262
43067SOL    HW140925   8.622   6.189   0.353  0.4152  1.8855  2.0426
43067SOL    HW240926   8.747   6.187   0.267 -1.0049  0.2203 -0.0849
43068SOL     OW40927   0.795   8.214   5.651  0.6141  0.5111  0.3827
43068SOL    HW140928   0.786   8.149   5.721 -0.8767  1.3199  0.9936
43068SOL    HW240929   0.866   8.271   5.679 -0.2764  1.1074  1.5102
43069SOL     OW40930  10.893   5.723   4.531  0.4528 -0.2333 -0.1002
43069SOL    HW140931  10.848   5.638   4.539 -0.1330  0.1150  0.4248
43069SOL    HW240932  10.839   5.772   4.470  1.5960 -0.7395 -1.5640
43070SOL     OW40933   1.517   6.720   6.133 -0.1514  0.1847 -0.4205
43070SOL    HW140934   1.465   6.714   6.213 -0.3018 -0.3469 -0.5555
43070SOL    HW240935   1.593   6.773   6.158  0.3278 -0.8453  0.3542
43071SOL     OW40936   4.517   5.155   5.959 -0.0701 -0.4333  0.1776
43071SOL    HW140937   4.499   5.139   5.866 -0.6834  0.5870  0.0957
43071SOL    HW240938   4.430   5.159   6.000  0.2271 -2.6118  1.1462
43072SOL     OW40939   6.227   0.745   0.147 -0.5910 -0.0693 -0.3462
43072SOL    HW140940   6.272   0.750   0.232  1.3125  0.1196 -1.2982
43072SOL    HW240941   6.282   0.687   0.095 -1.3517  0.3541 -1.6566
43073SOL     OW40942   7.639   4.334   0.993 -0.0933 -0.9231 -0.5637
43073SOL    HW140943   7.662   4.251   0.953  1.6903 -0.7600  0.0378
43073SOL    HW240944   7.559   4.316   1.042  1.3608 -2.8960  1.3133
43074SOL     OW40945   5.492  11.790   1.187 -0.1168  0.1759 -0.1089
43074SOL    HW140946   5.471  11.871   1.234 -1.5603  0.2653 -0.8397
43074SOL    HW240947   5.545  11.739   1.248 -1.4553  0.5267  1.4131
43075SOL     OW40948  10.516   2.926   9.152  0.2378  0.4980  0.1357
43075SOL    HW140949  10.430   2.954   9.184  1.2168  1.2446  2.3155
43075SOL    HW240950  10.502   2.906   9.060 -2.1094  1.2883  0.2528
43076SOL     OW40951   4.074   8.340   8.777  0.3469 -0.3375  0.8391
43076SOL    HW140952   4.010   8.269   8.786  1.1541 -0.9838  1.7378
43076SOL    HW240953   4.158   8.295   8.768  0.8059  0.5105  0.7898
43077SOL     OW40954   2.359   1.160   3.087  0.0905  0.8972  0.0219
43077SOL    HW140955   2.295   1.149   3.016  0.6504 -0.2155 -0.3381
43077SOL    HW240956   2.349   1.080   3.139  2.1265  0.0085 -0.8378
43078SOL     OW40957  11.122   3.949   2.159  0.0338 -0.0057  0.0093
43078SOL    HW140958  11.202   4.001   2.153 -0.5957  0.8337 -2.1195
43078SOL    HW240959  11.109   3.916   2.070 -2.5008  0.7013  0.0670
43079SOL     OW40960  11.857  10.516   6.050 -0.0229 -0.0278 -0.9395
43079SOL    HW140961  11.834  10.443   5.993 -0.2891 -1.0009  0.3759
43079SOL    HW240962  11.951  10.528   6.037  0.0490 -0.6972 -1.0469
43080SOL     OW40963  10.638   7.847   6.418  0.4369 -0.5682  0.2259
43080SOL    HW140964  10.546   7.828   6.401 -0.5783  1.1157  3.1323
43080SOL    HW240965  10.650   7.827   6.510  2.4396  1.0815  0.3884
43081SOL     OW40966   3.628   3.245   8.667 -0.1725 -0.5629  0.5510
43081SOL    HW140967   3.533   3.235   8.670 -0.3001  0.4451  0.4966
43081SOL    HW240968   3.649   3.294   8.746  0.3599 -1.1360  0.7673
43082SOL     OW40969   8.562   6.862   1.659 -0.2721 -0.2860 -0.3793
43082SOL    HW140970   8.602   6.916   1.591 -0.4460 -2.2474 -2.1624
43082SOL    HW240971   8.602   6.776   1.647 -0.4109 -0.7390  1.9755
43083SOL     OW40972   2.170   4.277   3.070  0.5125 -0.1983  0.4335
43083SOL    HW140973   2.240   4.214   3.089 -0.6869 -2.1337 -1.2084
43083SOL    HW240974   2.217   4.354   3.037  1.9479 -0.9595  0.5905
43084SOL     OW40975   5.940   6.776   1.592 -0.2280 -0.0943  0.4469
43084SOL    HW140976   6.004   6.795   1.522 -1.1125  3.5793  0.4408
43084SOL    HW240977   5.863   6.745   1.545 -0.4832  1.4062 -0.1903
43085SOL     OW40978   7.353   6.114   1.690 -0.3121 -0.2964  0.1219
43085SOL    HW140979   7.312   6.133   1.606 -1.7544  0.9509  1.0686
43085SOL    HW240980   7.353   6.198   1.736 -0.7846 -1.2341  1.8900
43086SOL     OW40981   7.926   2.912   1.934 -0.4371 -0.2892  0.6423
43086SOL    HW140982   7.969   2.862   1.864 -0.5926  1.5535 -0.8258
43086SOL    HW240983   7.835   2.881   1.932 -0.3743 -0.4634  0.2316
43087SOL     OW40984   7.814   1.817   9.675  0.5929  0.3775 -0.0202
43087SOL    HW140985   7.764   1.851   9.749 -0.4037 -0.7511 -0.1375
43087SOL    HW240986   7.896   1.867   9.676  0.1032  1.1978  1.1174
43088SOL     OW40987   9.163   3.234   6.717  0.1076 -0.3940  0.1107
43088SOL    HW140988   9.257   3.233   6.733  0.0457 -1.0576  0.4431
43088SOL    HW240989   9.124   3.215   6.802 -0.3580  0.6519  0.1435
43089SOL     OW40990   7.829   1.456   1.212 -0.2242 -0.2966  0.0713
43089SOL    HW140991   7.865   1.405   1.284 -0.5335  1.4536  1.5475
43089SOL    HW240992   7.827   1.396   1.138  2.6789 -1.3667  0.7646
43090SOL     OW40993   5.515  10.648   4.047  0.3468  0.3075 -0.3527
43090SOL    HW140994   5.589  10.625   3.990 -0.6722 -1.1828 -1.1527
43090SOL    HW240995   5.438  10.621   3.997 -0.6152 -0.4676  1.4752
43091SOL     OW40996   1.324   7.414   5.428 -0.1989 -0.1026 -0.1089
43091SOL    HW140997   1.310   7.471   5.504  0.1175 -0.1537 -0.0132
43091SOL    HW240998   1.278   7.333   5.451 -1.9964  0.6251 -0.8880
43092SOL     OW40999  11.416   8.232   5.259 -0.0285 -0.1354 -0.8771
43092SOL    HW141000  11.501   8.192   5.272  1.4624  2.9992  0.0800
43092SOL    HW241001  11.406   8.240   5.164  0.3237 -1.2877 -1.0197
43093SOL     OW41002   8.446  11.216   9.978 -0.0966  0.2745  0.4405
43093SOL    HW141003   8.483  11.301  10.001 -0.0394  0.4530 -0.3118
43093SOL    HW241004   8.369  11.236   9.925  2.3136 -0.1297 -3.5514
43094SOL     OW41005   7.902   3.009   1.413  0.0130  0.1905  0.1329
43094SOL    HW141006   7.833   3.066   1.446  0.8728  1.8587 -0.8038
43094SOL    HW241007   7.977   3.068   1.398  0.3856 -0.8263 -2.5306
43095SOL     OW41008  11.902   1.579   9.696  0.0824 -0.3316 -0.0019
43095SOL    HW141009  11.931   1.488   9.702  0.9454 -0.2023 -1.5734
43095SOL    HW241010  11.892   1.608   9.786 -2.0650 -2.5295  0.5613
43096SOL     OW41011   8.808   0.345  10.483  0.2897 -0.1853  0.0392
43096SOL    HW141012   8.806   0.390  10.567 -1.0704  0.1304 -0.1375
43096SOL    HW241013   8.718   0.317  10.469  0.5273 -0.3737 -1.2359
43097SOL     OW41014   0.500   3.264   2.628 -0.0359 -0.3508  0.0955
43097SOL    HW141015   0.432   3.290   2.690 -0.7287  1.0519 -1.1833
43097SOL    HW241016   0.473   3.304   2.545  1.6446 -0.9039 -0.7573
43098SOL     OW41017   2.560   3.177   6.010  0.0802 -0.2736  0.0507
43098SOL    HW141018   2.617   3.203   6.082  1.6455  0.3357 -1.3481
43098SOL    HW241019   2.524   3.260   5.978 -2.7215 -0.7225  1.7184
43099SOL     OW41020   8.558   6.302  11.496  0.3977 -0.6605  0.1774
43099SOL    HW141021   8.472   6.260  11.491 -0.9009  1.7639  0.3054
43099SOL    HW241022   8.569   6.324  11.588  0.5052  0.2731 -0.0489
43100SOL     OW41023  10.731   4.833   1.108 -0.3862  0.4567  0.2199
43100SOL    HW141024  10.822   4.841   1.137 -0.5592  3.1178  0.2682
43100SOL    HW241025  10.713   4.916   1.064 -2.2432 -0.7689 -1.4521
43101SOL     OW41026   7.782   7.398   3.587  0.5915  0.2823  0.0955
43101SOL    HW141027   7.715   7.413   3.653  0.9041  0.4585  0.3756
43101SOL    HW241028   7.753   7.449   3.511 -0.7852 -1.4533 -0.6179
43102SOL     OW41029   2.017   6.311   4.364 -0.3762  0.2946 -0.4425
43102SOL    HW141030   2.033   6.251   4.290  0.4799  0.3638 -0.3190
43102SOL    HW241031   2.038   6.398   4.329  1.3098  0.1946  0.2423
43103SOL     OW41032   8.193   4.861   3.017  0.0978 -0.4906 -0.1763
43103SOL    HW141033   8.233   4.901   3.095  0.2774 -1.5213  0.2678
43103SOL    HW241034   8.119   4.811   3.051 -0.0782 -0.6086 -0.7205
43104SOL     OW41035   3.043   1.305   2.353  0.1115 -0.2149  0.0279
43104SOL    HW141036   3.001   1.348   2.279  0.5737  0.4100  0.1178
43104SOL    HW241037   3.073   1.376   2.409  1.2254 -0.6307 -0.0070
43105SOL     OW41038   8.104   9.809   3.625 -0.3082 -0.5955  0.1629
43105SOL    HW141039   8.090   9.857   3.706  2.2692 -0.4186  0.5979
43105SOL    HW241040   8.167   9.862   3.576  2.1696 -3.0764  0.3892
43106SOL     OW41041   2.809   2.174   6.349 -0.3985  0.1619  0.2644
43106SOL    HW141042   2.860   2.139   6.423 -3.1386 -1.0509  1.7119
43106SOL    HW241043   2.780   2.097   6.301  0.2327  0.8912 -1.3596
43107SOL     OW41044   5.889   1.825   9.366  0.2751 -0.3073  0.7739
43107SOL    HW141045   5.804   1.861   9.390  1.4437  1.6535  2.2898
43107SOL    HW241046   5.909   1.763   9.437  0.5793  0.0836  1.0372
43108SOL     OW41047   6.634   9.135   4.032 -0.4668  0.4876 -0.5463
43108SOL    HW141048   6.566   9.173   4.087  0.8582  3.1639 -0.6025
43108SOL    HW241049   6.595   9.055   3.997 -2.4754  0.3659  1.7437
43109SOL     OW41050   5.572   8.954   8.651  0.4158  0.1297 -0.6019
43109SOL    HW141051   5.554   9.034   8.700 -1.8295 -0.7312  0.0721
43109SOL    HW241052   5.661   8.967   8.617  1.7105  1.2398  2.7641
43110SOL     OW41053   1.926   1.034   0.350 -0.5191 -0.1402 -0.4518
43110SOL    HW141054   1.853   1.016   0.291 -1.6901  0.8117  0.6653
43110SOL    HW241055   1.908   0.980   0.428  1.9126 -2.7711 -1.5094
43111SOL     OW41056   8.289  11.244   3.777 -0.0667 -0.0061  0.2613
43111SOL    HW141057   8.279  11.163   3.826 -2.7815  0.7908  1.1756
43111SOL    HW241058   8.384  11.251   3.762  0.3546 -2.7585  1.0522
43112SOL     OW41059   4.721   6.673   7.437  0.2717 -0.0915  0.4418
43112SOL    HW141060   4.811   6.641   7.428  0.4761 -0.1086  2.2132
43112SOL    HW241061   4.696   6.648   7.526 -1.6871 -0.5413 -0.1857
43113SOL     OW41062   0.952  10.896   8.038 -0.3886  0.0150  0.0370
43113SOL    HW141063   0.959  10.951   8.116  1.3189  0.5164 -0.4197
43113SOL    HW241064   0.864  10.858   8.042 -1.0231  1.5230  1.2003
43114SOL     OW41065   7.844   0.207   7.313 -0.3549 -0.0450  0.6195
43114SOL    HW141066   7.844   0.185   7.407  0.4641 -1.8516  0.2492
43114SOL    HW241067   7.896   0.137   7.273  1.0235  1.7950 -0.9563
43115SOL     OW41068   3.493   2.550   7.604 -0.1333 -0.1922  0.1725
43115SOL    HW141069   3.507   2.623   7.544 -2.3448 -0.7014 -1.0358
43115SOL    HW241070   3.496   2.472   7.549 -0.6391 -0.8021  0.9816
43116SOL     OW41071   3.155   5.079   2.173 -0.4010 -0.1997 -0.3546
43116SOL    HW141072   3.078   5.086   2.230 -0.4315  2.0247 -0.5821
43116SOL    HW241073   3.229   5.076   2.233 -0.3867  2.7377 -0.0673
43117SOL     OW41074   3.446   8.215   7.661 -0.3535  0.0947  0.0010
43117SOL    HW141075   3.494   8.232   7.742  0.6443 -0.0330 -0.5491
43117SOL    HW241076   3.383   8.147   7.684 -1.9557  1.9158  1.3411
43118SOL     OW41077  11.645  11.420   4.951 -0.0214 -0.0234 -0.1148
43118SOL    HW141078  11.657  11.411   5.046 -2.7711  0.1901  0.3422
43118SOL    HW241079  11.729  11.393   4.913  1.7556  1.4810  2.4085
43119SOL     OW41080   4.225   6.318   0.170  0.4570 -0.2341 -0.3317
43119SOL    HW141081   4.135   6.314   0.137  0.3692  1.5853 -0.4406
43119SOL    HW241082   4.258   6.229   0.163  0.0349 -0.2581 -4.1960
43120SOL     OW41083   9.533   4.398   1.813  0.0872  0.1575  0.1085
43120SOL    HW141084   9.450   4.446   1.809  0.5249  0.8285 -1.4959
43120SOL    HW241085   9.530   4.339   1.738  1.9727  1.7838 -1.3407
43121SOL     OW41086   2.587   0.718   1.444 -0.1305 -0.3455  0.4985
43121SOL    HW141087   2.553   0.700   1.531  0.3551 -1.7001  0.4306
43121SOL    HW241088   2.612   0.632   1.410  1.1629  0.3438 -0.3544
43122SOL     OW41089   4.464   4.726   4.475  0.0879 -0.2266 -0.1983
43122SOL    HW141090   4.526   4.791   4.505 -1.9740  1.0901  1.5697
43122SOL    HW241091   4.455   4.666   4.550 -2.8484  1.3322  0.8818
43123SOL     OW41092   6.049   1.919   6.633  0.1056  0.0077  0.2413
43123SOL    HW141093   5.997   1.847   6.669 -0.6297  0.0768 -0.6580
43123SOL    HW241094   6.098   1.953   6.708 -0.8013 -0.3565  1.0142
43124SOL     OW41095   1.893  10.089  10.000  0.3530 -0.1194  0.2240
43124SOL    HW141096   1.887  10.090   9.904 -0.9202 -1.9090  0.2396
43124SOL    HW241097   1.987  10.076  10.018  0.6892  0.8010 -0.7365
43125SOL     OW41098   4.763  11.676   5.936 -0.4295 -0.0852  0.1730
43125SOL    HW141099   4.819  11.753   5.928 -0.3199 -0.0269  1.3897
43125SOL    HW241100   4.698  11.686   5.867  0.7503  0.0987 -0.9658
43126SOL     OW41101  11.206  10.080   2.824 -0.4967  0.6046 -0.3529
43126SOL    HW141102  11.165  10.164   2.845  1.8266  2.2188 -1.7777
43126SOL    HW241103  11.282  10.076   2.883  0.2717  0.2641 -1.3448
43127SOL     OW41104   3.105   5.013   8.438 -0.2673 -0.1991  0.1533
43127SOL    HW141105   3.022   5.018   8.485 -0.5873 -0.0318 -0.4262
43127SOL    HW241106   3.084   4.968   8.357 -0.1168  1.2286 -0.7099
43128SOL     OW41107   6.912  10.524   6.093  0.0365 -0.2744 -0.0795
43128SOL    HW141108   6.971  10.468   6.043 -0.4705  0.3194 -1.3992
43128SOL    HW241109   6.881  10.469   6.165  0.1384 -1.4465 -0.9061
43129SOL     OW41110   2.518   4.392   5.330  0.2388  0.6743  0.4260
43129SOL    HW141111   2.457   4.441   5.385 -1.1454  0.1899 -0.6234
43129SOL    HW241112   2.474   4.385   5.246  0.1746 -2.7050  0.6244
43130SOL     OW41113   4.787   5.151   4.736  0.0768  0.0126  0.6045
43130SOL    HW141114   4.854   5.125   4.672  1.3878  0.1755  1.8481
43130SOL    HW241115   4.783   5.247   4.727 -0.6381 -0.0722 -0.0661
43131SOL     OW41116  10.332   8.219   5.352  0.0610 -0.0325 -0.1304
43131SOL    HW141117  10.333   8.258   5.264 -3.5835  3.4430  1.0111
43131SOL    HW241118  10.279   8.140   5.343  1.6214 -0.9939 -1.3385
43132SOL     OW41119   8.544   4.389   6.266  0.5757 -0.6693 -0.1732
43132SOL    HW141120   8.619   4.429   6.222 -1.2093  1.0357 -1.9405
43132SOL    HW241121   8.575   4.367   6.353  2.7655  1.2012 -0.3906
43133SOL     OW41122   7.736   6.949   2.829  0.5109  0.2724  0.2137
43133SOL    HW141123   7.646   6.947   2.863  0.0351  1.0576 -0.9421
43133SOL    HW241124   7.754   7.042   2.816  1.1631  0.0599 -0.4164
43134SOL     OW41125   2.830   5.733   5.961 -0.2610  0.0017  0.1193
43134SOL    HW141126   2.838   5.664   5.895 -0.2535 -0.2019  0.3315
43134SOL    HW241127   2.877   5.699   6.037 -1.0902 -0.1797  0.5623
43135SOL     OW41128   5.758   4.522   2.311 -0.1398 -0.6870 -0.7689
43135SOL    HW141129   5.693   4.467   2.267  2.1948 -1.6648 -3.3504
43135SOL    HW241130   5.829   4.462   2.333  0.5237  0.5605  0.6792
43136SOL     OW41131   7.398   9.539   0.035 -0.2164 -0.3553 -0.1411
43136SOL    HW141132   7.321   9.542  -0.021 -0.1005 -0.9859 -0.3379
43136SOL    HW241133   7.366   9.500   0.117  0.0219 -1.2312 -0.4507
43137SOL     OW41134   5.428  11.551   5.330 -0.4464 -0.0984 -0.0049
43137SOL    HW141135   5.369  11.510   5.267 -0.3858  0.5630 -0.5057
43137SOL    HW241136   5.478  11.614   5.278  0.0850 -0.0341  0.5812
43138SOL     OW41137   3.759   7.115   2.198  0.0574 -0.0586 -0.5467
43138SOL    HW141138   3.697   7.124   2.125 -1.3414  2.1749  0.8087
43138SOL    HW241139   3.727   7.040   2.248 -2.1394  1.5255  0.5696
43139SOL     OW41140   0.590   7.421   9.357  0.1309  0.5374  0.0862
43139SOL    HW141141   0.556   7.367   9.428 -1.1866  0.1524 -0.7970
43139SOL    HW241142   0.545   7.389   9.279 -0.2763  2.5482 -0.5577
43140SOL     OW41143   7.793   1.811   1.511  0.2038  0.0136 -0.2254
43140SOL    HW141144   7.822   1.720   1.510  1.7648  0.4977 -0.4551
43140SOL    HW241145   7.709   1.810   1.465  0.4046 -1.2335 -0.5889
43141SOL     OW41146   9.437   9.993   8.822  0.4557  0.6946 -0.3095
43141SOL    HW141147   9.453   9.989   8.728  0.0437  0.2489 -0.3658
43141SOL    HW241148   9.380  10.069   8.834 -1.0795 -0.3484 -0.6732
43142SOL     OW41149   1.287   0.748   7.721 -0.5191  0.4335  0.3272
43142SOL    HW141150   1.331   0.682   7.775 -3.5585 -3.7597 -1.7073
43142SOL    HW241151   1.342   0.756   7.643  0.8491  1.9567  1.3863
43143SOL     OW41152   2.736   6.387   4.241 -0.5984 -0.1408 -0.7913
43143SOL    HW141153   2.814   6.403   4.294 -1.9538 -1.4937  1.7948
43143SOL    HW241154   2.728   6.465   4.186  2.7940 -0.1795 -1.5619
43144SOL     OW41155   2.656   6.496   9.650 -0.0284 -0.5508 -0.6927
43144SOL    HW141156   2.724   6.493   9.582 -0.1277 -1.4664 -0.7629
43144SOL    HW241157   2.650   6.406   9.682 -1.7056 -0.6382 -1.1678
43145SOL     OW41158   8.790   6.975  10.504 -0.1176  0.2656  0.0797
43145SOL    HW141159   8.839   7.009  10.579 -1.6232  1.6120  0.5101
43145SOL    HW241160   8.809   6.881  10.503 -0.0842  0.2138  2.1647
43146SOL     OW41161   3.024   8.648   0.652 -0.0752 -0.3623  0.0271
43146SOL    HW141162   3.006   8.581   0.587  0.3792  0.0815 -0.5741
43146SOL    HW241163   2.940   8.664   0.695 -0.1390 -1.4583  0.3262
43147SOL     OW41164   1.024   5.246  10.571 -0.1489  0.2109 -0.1981
43147SOL    HW141165   1.007   5.265  10.479 -0.6532 -1.4150 -0.4648
43147SOL    HW241166   0.984   5.319  10.618 -0.0697  0.9559 -1.2373
43148SOL     OW41167   6.451   4.629   5.001  0.2050  0.2995  0.4477
43148SOL    HW141168   6.413   4.547   5.032 -1.3399  0.3853 -1.1161
43148SOL    HW241169   6.376   4.686   4.985  1.1874  1.5721  0.2485
43149SOL     OW41170   3.585   4.071   2.219 -1.1191  0.4154 -0.3621
43149SOL    HW141171   3.591   4.163   2.247 -1.1217  0.5024 -0.6434
43149SOL    HW241172   3.664   4.056   2.168 -1.6784  0.6071 -1.3050
43150SOL     OW41173   1.328   6.188   0.693  0.4073 -0.0753  0.1845
43150SOL    HW141174   1.310   6.268   0.741 -0.0331  0.0482 -0.1757
43150SOL    HW241175   1.328   6.214   0.601  1.0876 -0.3359  0.1030
43151SOL     OW41176   8.260   8.282   7.875  0.1403  0.7391  0.0940
43151SOL    HW141177   8.212   8.200   7.861  0.4588  0.3030  1.3984
43151SOL    HW241178   8.228   8.315   7.959  1.3620  0.9656  0.4951
43152SOL     OW41179   3.736  11.946   2.603  0.3726  0.8475  0.0324
43152SOL    HW141180   3.670  12.013   2.584  0.0632  0.6147  0.2680
43152SOL    HW241181   3.732  11.886   2.529  1.1584  1.4731 -0.5352
43153SOL     OW41182   7.184   3.972   1.024 -0.3581  0.3136  0.2685
43153SOL    HW141183   7.244   4.045   1.039 -0.8497  1.4485 -2.5755
43153SOL    HW241184   7.222   3.924   0.951  0.2252 -2.7292  2.3941
43154SOL     OW41185   8.315  10.684   0.712 -0.1156  0.4771 -0.6527
43154SOL    HW141186   8.345  10.767   0.674  0.6076  0.7923  0.5506
43154SOL    HW241187   8.391  10.651   0.760 -0.3453 -0.9721 -1.2178
43155SOL     OW41188  10.069   2.612   2.025  0.2273  0.0221  0.8896
43155SOL    HW141189  10.046   2.610   1.933  0.6554  0.6044  0.7611
43155SOL    HW241190  10.043   2.700   2.054  1.7563  0.5013  0.8665
43156SOL     OW41191   8.944   2.619   7.869 -0.0091 -0.1782  0.4383
43156SOL    HW141192   8.931   2.623   7.964 -2.0700  0.6717  0.1811
43156SOL    HW241193   8.958   2.710   7.842  0.8402 -0.4420 -0.0596
43157SOL     OW41194   0.006   4.250   0.810  0.3895  0.2561 -0.4357
43157SOL    HW141195  -0.061   4.182   0.807  1.4890 -0.8999  0.1143
43157SOL    HW241196  -0.015   4.309   0.737  0.0040 -1.2491 -1.5786
43158SOL     OW41197  10.248   0.996   9.000 -0.5259  0.7364  0.5970
43158SOL    HW141198  10.202   1.080   8.993  0.1060  1.1249  1.0363
43158SOL    HW241199  10.335   1.018   9.033 -0.9792 -0.2430  2.6626
43159SOL     OW41200   4.356   3.830   1.619  0.0831 -0.4472 -0.3355
43159SOL    HW141201   4.378   3.871   1.535 -0.4344  2.0292  0.6460
43159SOL    HW241202   4.261   3.814   1.614 -0.2457  1.1354  0.2959
43160SOL     OW41203   7.616   3.580   4.708  0.2160  0.2179 -0.6802
43160SOL    HW141204   7.582   3.540   4.629  0.9331 -0.9644 -0.4139
43160SOL    HW241205   7.540   3.592   4.764  0.1049 -1.8058 -0.3436
43161SOL     OW41206   9.929   3.419   3.120 -0.2093 -0.0972 -0.2884
43161SOL    HW141207   9.931   3.512   3.138  0.2581 -0.2507  0.4885
43161SOL    HW241208   9.967   3.410   3.033  1.6055  0.2692  0.4245
43162SOL     OW41209   5.027   5.086   5.688 -0.0989  0.5520 -0.3944
43162SOL    HW141210   5.097   5.151   5.699  0.8899 -0.6201  0.5184
43162SOL    HW241211   4.955   5.119   5.741  0.6565  0.5743  0.6619
43163SOL     OW41212   0.692   9.376   2.639  0.0426  1.0058  0.3806
43163SOL    HW141213   0.750   9.318   2.689 -1.9662 -0.5231  1.1072
43163SOL    HW241214   0.738   9.459   2.635  2.1705 -0.0698  1.0825
43164SOL     OW41215   9.458   7.974   7.427  0.2595  0.1489  0.4875
43164SOL    HW141216   9.379   7.931   7.392  2.0356 -2.0871 -1.1321
43164SOL    HW241217   9.441   8.067   7.418 -1.2671 -0.2841 -2.1829
43165SOL     OW41218   5.240   6.477   2.590 -0.3413  0.2753 -0.3101
43165SOL    HW141219   5.256   6.515   2.677 -0.4338  0.9959 -0.5974
43165SOL    HW241220   5.154   6.511   2.565  0.5893  1.8576 -1.5899
43166SOL     OW41221   8.765   6.325   0.122 -0.1014 -0.3292 -0.3991
43166SOL    HW141222   8.825   6.268   0.075 -1.0595 -0.3564 -1.6306
43166SOL    HW241223   8.793   6.414   0.100  0.6329 -0.3164  0.5395
43167SOL     OW41224  10.750   4.994   5.339  0.2544 -0.6050  0.2293
43167SOL    HW141225  10.693   5.068   5.356 -1.6744 -1.8927 -0.2182
43167SOL    HW241226  10.710   4.921   5.387  1.4951 -1.5726 -0.1466
43168SOL     OW41227   5.276  10.741   4.253 -0.3649  0.0776  0.4596
43168SOL    HW141228   5.250  10.832   4.263  0.7622  0.5054 -0.3060
43168SOL    HW241229   5.339  10.741   4.180  0.3367 -1.1595  1.0203
43169SOL     OW41230   3.847   1.971  11.259 -0.0270  0.7562 -0.3141
43169SOL    HW141231   3.889   2.047  11.300 -0.2581  0.7038  0.0264
43169SOL    HW241232   3.754   1.981  11.278  0.0211 -0.0121  0.4203
43170SOL     OW41233   6.670   6.632   2.147  0.1670 -1.1100  0.1245
43170SOL    HW141234   6.647   6.718   2.182  1.0907  0.1143 -2.1121
43170SOL    HW241235   6.590   6.600   2.107  0.3596 -0.2250 -1.0310
43171SOL     OW41236   7.088   3.714  10.453 -0.0421 -0.0473 -0.0319
43171SOL    HW141237   7.039   3.792  10.426  1.6146  1.4420  1.0414
43171SOL    HW241238   7.163   3.749  10.502  0.7762 -2.3316  0.4454
43172SOL     OW41239   6.775   6.810   5.212 -0.1930  0.2680  0.4931
43172SOL    HW141240   6.842   6.809   5.144  1.1622 -0.6630  1.7556
43172SOL    HW241241   6.692   6.805   5.165  0.7028 -0.8571 -1.0703
43173SOL     OW41242   1.257   1.913   7.441 -0.0140 -0.2969  0.2224
43173SOL    HW141243   1.335   1.877   7.399  0.6847  2.8804 -1.5512
43173SOL    HW241244   1.184   1.885   7.385  0.3919  0.1937 -0.5685
43174SOL     OW41245   6.699   4.914  11.387  0.0709 -0.7383 -0.1466
43174SOL    HW141246   6.609   4.926  11.416 -0.0472  0.6784 -1.0153
43174SOL    HW241247   6.692   4.860  11.309 -0.3505  1.6026 -1.8388
43175SOL     OW41248  10.123   1.324   4.142 -0.2891  0.2159 -0.6443
43175SOL    HW141249  10.122   1.419   4.132  0.3306  0.3165  0.1018
43175SOL    HW241250  10.060   1.292   4.078 -1.6927  1.2266  0.1802
43176SOL     OW41251   2.118   9.086   6.378 -0.1729 -0.5913 -0.4797
43176SOL    HW141252   2.169   9.156   6.418  0.0001 -0.0916 -1.5650
43176SOL    HW241253   2.054   9.131   6.324  0.5291 -1.2747 -1.9133
43177SOL     OW41254   3.473   1.464   8.197  0.2528 -0.4698 -0.4876
43177SOL    HW141255   3.450   1.521   8.270  0.1234 -2.8900  1.4754
43177SOL    HW241256   3.393   1.460   8.144 -2.1047 -3.7996  2.8689
43178SOL     OW41257   6.372   6.250   3.737  0.1004 -0.2216  0.0355
43178SOL    HW141258   6.313   6.216   3.669  1.6562 -1.5165 -0.7325
43178SOL    HW241259   6.313   6.285   3.803 -1.5519 -1.4067 -0.7133
43179SOL     OW41260   4.024   5.830   2.071  0.2447  0.3327  0.4753
43179SOL    HW141261   3.928   5.829   2.074  0.2165 -2.5592  1.5166
43179SOL    HW241262   4.044   5.826   1.977 -0.6687  0.4893  0.2610
43180SOL     OW41263   2.252   3.768   0.686  0.2356  0.0884 -0.3865
43180SOL    HW141264   2.229   3.729   0.770 -0.3999 -0.3610 -0.7618
43180SOL    HW241265   2.347   3.760   0.681  0.2933  0.2179  0.3324
43181SOL     OW41266   9.182   0.069   1.409  0.5983  0.4142 -0.1922
43181SOL    HW141267   9.168   0.143   1.349 -0.0562 -0.4639 -1.1744
43181SOL    HW241268   9.128  -0.002   1.372  1.6624 -0.7346  0.3883
43182SOL     OW41269   2.274   5.141  11.732  0.7804  0.0940  0.3462
43182SOL    HW141270   2.242   5.073  11.673  0.5358  0.3726  0.1527
43182SOL    HW241271   2.198   5.199  11.745  1.3353  1.0369 -0.5140
43183SOL     OW41272   3.047   8.773   4.472  0.2366 -0.7447  0.6568
43183SOL    HW141273   2.961   8.740   4.446  0.1188 -0.4608  0.6756
43183SOL    HW241274   3.109   8.706   4.443  0.2776  0.2455 -1.8087
43184SOL     OW41275   0.863   2.303   3.047  0.0179 -0.0247  0.0022
43184SOL    HW141276   0.847   2.369   2.979  0.5202 -0.2684 -0.3656
43184SOL    HW241277   0.931   2.341   3.102  0.3188 -0.2266 -0.2186
43185SOL     OW41278   9.226   7.764   7.538  0.2037 -0.1793 -0.5146
43185SOL    HW141279   9.269   7.692   7.493 -0.4766 -0.4040 -0.8201
43185SOL    HW241280   9.143   7.776   7.491 -0.8513 -0.8841  1.0704
43186SOL     OW41281   2.001   6.995   6.697 -0.4197  0.0806  0.0336
43186SOL    HW141282   1.949   7.043   6.633  0.5243  1.1995  0.0563
43186SOL    HW241283   1.954   6.913   6.712 -2.1146  1.0177  0.0115
43187SOL     OW41284   1.402   9.374  10.665 -0.0347 -0.3670 -0.8015
43187SOL    HW141285   1.319   9.360  10.711 -0.1978 -2.5198 -1.6051
43187SOL    HW241286   1.469   9.369  10.734 -0.4063 -1.4569 -0.5023
43188SOL     OW41287   3.105   3.005   4.894  0.7581  0.1597  0.0548
43188SOL    HW141288   3.119   2.914   4.870  2.7467  0.1062  1.1948
43188SOL    HW241289   3.146   3.055   4.824 -2.1714  0.3293 -1.6965
43189SOL     OW41290   6.162  10.287   9.174 -0.3187 -0.5576  0.0042
43189SOL    HW141291   6.101  10.359   9.193  0.0526  0.8608 -3.4879
43189SOL    HW241292   6.248  10.327   9.174  0.2678 -1.7361  1.0623
43190SOL     OW41293   3.209   3.363   5.234 -0.6932  0.1393 -0.4447
43190SOL    HW141294   3.282   3.326   5.284 -0.5533  0.2227 -0.5881
43190SOL    HW241295   3.167   3.287   5.193  0.3862  0.2404 -1.8176
43191SOL     OW41296   8.903   0.861   5.352  0.3456 -0.4118 -0.1116
43191SOL    HW141297   8.872   0.876   5.441 -0.1872  0.6244 -0.4524
43191SOL    HW241298   8.865   0.932   5.301  0.3196 -1.2008 -1.2445
43192SOL     OW41299   1.688   7.075   8.960  0.3829  0.5164  0.3891
43192SOL    HW141300   1.658   7.165   8.949 -0.5580  0.0381 -1.3918
43192SOL    HW241301   1.615   7.022   8.929  1.4997 -0.8275 -0.0338
43193SOL     OW41302   5.709   0.968   1.199  0.1271 -0.2106  0.3651
43193SOL    HW141303   5.777   1.031   1.175 -0.3629 -0.6586 -2.6784
43193SOL    HW241304   5.718   0.957   1.293  1.9641  2.3558  0.5909
43194SOL     OW41305  11.412   8.682   4.611  0.2045  0.2083 -0.2233
43194SOL    HW141306  11.478   8.640   4.557 -0.4438  0.6741 -1.4246
43194SOL    HW241307  11.424   8.644   4.698 -0.0728 -2.1163 -1.1308
43195SOL     OW41308   5.485  10.446   5.231  0.3207  0.1827  0.6679
43195SOL    HW141309   5.492  10.405   5.317  0.1192  0.4264  0.8012
43195SOL    HW241310   5.526  10.383   5.171 -1.7538 -1.1473  0.5600
43196SOL     OW41311  10.851   9.605   7.107 -0.2406 -0.0625  0.0150
43196SOL    HW141312  10.787   9.613   7.178 -2.0549  1.2646 -1.6179
43196SOL    HW241313  10.823   9.528   7.058 -2.6050  2.0946 -2.3754
43197SOL     OW41314   5.834   4.432   1.136  0.0354  0.3832 -0.6031
43197SOL    HW141315   5.829   4.387   1.220 -1.0229  2.7457  0.6862
43197SOL    HW241316   5.921   4.473   1.137 -0.9978  2.7337  0.7013
43198SOL     OW41317   7.901   4.036  10.982 -0.1949  0.3517  0.2220
43198SOL    HW141318   7.821   4.087  10.990 -0.0393  0.7200 -0.4555
43198SOL    HW241319   7.967   4.089  11.027 -0.7067 -0.9127  2.6107
43199SOL     OW41320   0.506   9.881   4.749 -0.0108 -0.0289 -0.6001
43199SOL    HW141321   0.512   9.855   4.657 -0.8470 -0.2675 -0.5926
43199SOL    HW241322   0.416   9.914   4.759  0.3473  0.8273 -0.0850
43200SOL     OW41323   7.481  11.233   3.970 -0.2029  0.2965 -0.1171
43200SOL    HW141324   7.566  11.266   3.940 -0.3284  1.3292  0.6020
43200SOL    HW241325   7.483  11.140   3.949  1.3427  0.1838  0.3977
43201SOL     OW41326   3.847  11.262   0.166  0.3780 -0.9486  0.0547
43201SOL    HW141327   3.758  11.227   0.164  0.5433 -1.4390  1.0777
43201SOL    HW241328   3.844  11.337   0.105 -1.0257 -0.2630  0.9153
43202SOL     OW41329   8.808   1.071  10.107  0.7703  0.1197 -0.1518
43202SOL    HW141330   8.716   1.079  10.081  0.4750 -2.8788 -0.4809
43202SOL    HW241331   8.837   0.989  10.065  3.3306  0.5055  0.6892
43203SOL     OW41332   8.982   7.743   6.731  0.1710  0.2558 -0.2291
43203SOL    HW141333   9.052   7.808   6.736 -0.0276  0.4525  0.0131
43203SOL    HW241334   8.982   7.714   6.640  0.0806  0.7984 -0.4053
43204SOL     OW41335   5.644   2.330   4.494 -0.0208 -0.6215  0.5240
43204SOL    HW141336   5.587   2.406   4.503 -0.3166 -0.9101  1.1689
43204SOL    HW241337   5.731   2.361   4.518 -0.1640 -0.5161  0.9014
43205SOL     OW41338   8.270  10.131   2.240 -0.0268 -0.3039  0.2098
43205SOL    HW141339   8.288  10.160   2.329 -2.3197 -0.1191  0.6870
43205SOL    HW241340   8.294  10.205   2.185 -1.9840  1.0514  1.0573
43206SOL     OW41341  10.817   0.717   6.360 -0.0041 -0.0160 -0.1180
43206SOL    HW141342  10.724   0.709   6.381 -0.1627  0.1173 -0.7695
43206SOL    HW241343  10.862   0.677   6.435 -0.6167 -1.2722 -0.4112
43207SOL     OW41344  10.630   4.047   9.549  0.2979  0.1250 -0.3358
43207SOL    HW141345  10.623   3.970   9.606  0.8475  0.2195 -0.1323
43207SOL    HW241346  10.692   4.105   9.594 -0.2498  0.7753 -0.3888
43208SOL     OW41347   6.644   2.495   6.610 -0.2910 -0.1980  0.2861
43208SOL    HW141348   6.687   2.416   6.578 -0.4913  0.2856 -1.2343
43208SOL    HW241349   6.570   2.508   6.550 -1.2689  0.2012  1.5359
43209SOL     OW41350   1.840   9.388   3.966  0.3899  0.6003  0.5048
43209SOL    HW141351   1.898   9.411   4.038  1.9174  1.3519 -0.9089
43209SOL    HW241352   1.887   9.415   3.887 -1.5268  0.4657 -0.7572
43210SOL     OW41353   7.794   3.117   2.986 -0.3793  0.3506  0.0564
43210SOL    HW141354   7.773   3.028   2.957 -0.0446  0.4391 -0.4535
43210SOL    HW241355   7.711   3.151   3.019 -0.8254  0.3351 -1.0151
43211SOL     OW41356   7.038  10.921   5.664  0.0976 -0.0443  0.5402
43211SOL    HW141357   7.048  11.012   5.634  0.4294  0.3556  1.8055
43211SOL    HW241358   7.121  10.902   5.709  0.8245 -1.6446 -1.3228
43212SOL     OW41359   9.608   5.073  11.849 -0.2120 -0.4990 -0.3704
43212SOL    HW141360   9.683   5.132  11.851 -0.3570 -0.3217  1.5094
43212SOL    HW241361   9.644   4.989  11.821  0.5986 -0.2928  0.0325
43213SOL     OW41362   2.561   6.133   0.714  0.4839 -0.3779 -0.5588
43213SOL    HW141363   2.524   6.123   0.627 -0.2054 -0.8236 -0.2191
43213SOL    HW241364   2.655   6.143   0.699  0.3729 -0.4827 -1.3498
43214SOL     OW41365  10.727   3.259   9.798  0.4678  0.4675 -0.4021
43214SOL    HW141366  10.646   3.210   9.809 -1.0410  2.0363 -3.2736
43214SOL    HW241367  10.719   3.334   9.857  1.5326 -1.1491  1.9316
43215SOL     OW41368   4.791   8.582   1.904 -0.3381  0.0629 -0.3152
43215SOL    HW141369   4.767   8.674   1.912 -0.9461 -0.0611 -0.6022
43215SOL    HW241370   4.757   8.541   1.984  1.7892  0.4350  0.8571
43216SOL     OW41371   2.164  11.613   6.271  0.6414 -0.5011  0.2991
43216SOL    HW141372   2.182  11.680   6.337 -1.8713 -1.9277  2.6325
43216SOL    HW241373   2.142  11.662   6.192 -0.5152  1.4609  1.7465
43217SOL     OW41374   4.130   0.477  11.497  0.5205 -0.2330 -0.3967
43217SOL    HW141375   4.199   0.442  11.553  0.2342 -1.3226 -0.7054
43217SOL    HW241376   4.092   0.400  11.454 -1.6241  0.1830  0.5903
43218SOL     OW41377   4.217   4.418   8.863 -0.2485 -0.4143 -0.4598
43218SOL    HW141378   4.143   4.382   8.912 -0.8527  1.2472 -0.0791
43218SOL    HW241379   4.290   4.359   8.883 -1.5112 -2.3149 -1.1383
43219SOL     OW41380   7.675  11.054  10.500  0.1113 -0.3869  0.5786
43219SOL    HW141381   7.683  11.131  10.556  1.5056 -1.1751  1.5055
43219SOL    HW241382   7.667  11.090  10.411  1.1842  0.8280  0.9447
43220SOL     OW41383   2.946   2.380   7.960 -0.1595 -0.0371 -0.1024
43220SOL    HW141384   2.961   2.324   8.036 -1.3991 -0.7835 -0.3785
43220SOL    HW241385   3.030   2.424   7.946  0.2203 -0.2150  1.4113
43221SOL     OW41386   4.775   5.677   5.666  0.2460 -0.3460 -0.0377
43221SOL    HW141387   4.827   5.674   5.746  0.4689 -0.0608 -0.1716
43221SOL    HW241388   4.736   5.764   5.666 -0.0270 -0.4694 -0.0657
43222SOL     OW41389   9.660   8.012   3.597 -0.7211 -0.2555 -0.1716
43222SOL    HW141390   9.718   7.937   3.591 -0.3569  0.0737 -0.8993
43222SOL    HW241391   9.719   8.087   3.611 -0.9561  0.0986 -1.0351
43223SOL     OW41392  10.401   5.949   7.594 -0.0387 -0.1530 -0.3700
43223SOL    HW141393  10.307   5.963   7.589 -0.0183 -0.3290 -1.5020
43223SOL    HW241394  10.416   5.867   7.546  0.6503 -0.2909  0.0706
43224SOL     OW41395   9.637   3.687   1.213  0.6843  0.8105 -0.4196
43224SOL    HW141396   9.613   3.620   1.148 -0.9546  0.7158  0.2413
43224SOL    HW241397   9.676   3.637   1.285 -2.4470  0.2186  1.0079
43225SOL     OW41398   6.559   5.282   2.820  0.5928  0.4293  0.8133
43225SOL    HW141399   6.574   5.342   2.893  1.0806  0.8909  0.3444
43225SOL    HW241400   6.642   5.280   2.773  0.0769  0.6893 -0.1346
43226SOL     OW41401   0.523   8.609   7.687 -0.6363  0.5412 -0.9810
43226SOL    HW141402   0.608   8.653   7.692  1.5290 -2.9684 -2.9680
43226SOL    HW241403   0.499   8.593   7.778  0.8397  1.5363 -0.3822
43227SOL     OW41404  11.591   3.429   4.069  0.6634 -0.1356 -0.0173
43227SOL    HW141405  11.518   3.447   4.009  1.1815 -0.1882 -0.6797
43227SOL    HW241406  11.623   3.515   4.094 -0.3074 -0.0910  1.1475
43228SOL     OW41407   6.887   7.010   3.098  0.2304 -0.1006  0.2490
43228SOL    HW141408   6.969   6.962   3.089 -0.2299 -0.6590 -1.2213
43228SOL    HW241409   6.831   6.974   3.029 -2.5639 -2.3894  3.3959
43229SOL     OW41410   2.353   3.855   4.525  0.1066 -0.1521 -0.2858
43229SOL    HW141411   2.431   3.864   4.471 -0.3149 -0.7442 -1.0082
43229SOL    HW241412   2.375   3.900   4.606  0.5064  1.3274 -1.1832
43230SOL     OW41413   2.305   2.265   1.953 -0.1783 -0.1672  0.1439
43230SOL    HW141414   2.300   2.171   1.966  1.0692 -0.2661  0.0590
43230SOL    HW241415   2.267   2.280   1.866  0.1069 -0.6666 -0.0706
43231SOL     OW41416   4.775   7.217   9.141 -0.1446 -0.6200 -0.2766
43231SOL    HW141417   4.835   7.244   9.072  0.2151 -0.9708 -0.1044
43231SOL    HW241418   4.694   7.194   9.095 -1.1612  2.5056 -0.3189
43232SOL     OW41419   3.607   8.368   2.623  0.0614 -0.3499  0.4678
43232SOL    HW141420   3.544   8.308   2.585 -2.3251  2.4482 -0.3845
43232SOL    HW241421   3.579   8.378   2.714 -1.4722  1.6451 -0.1634
43233SOL     OW41422   1.864   2.664   3.821 -1.0750 -0.7687  0.0112
43233SOL    HW141423   1.842   2.632   3.733 -0.5177  0.3371 -0.5591
43233SOL    HW241424   1.791   2.636   3.876 -1.3954 -1.5474 -0.7844
43234SOL     OW41425   2.677   8.556   9.793 -0.0341  0.0290 -0.5977
43234SOL    HW141426   2.669   8.621   9.863 -2.0465  0.1802 -0.9065
43234SOL    HW241427   2.716   8.480   9.836 -0.0991  0.5383  0.3994
43235SOL     OW41428   0.344   8.950  10.267  0.2269 -0.0073 -0.0292
43235SOL    HW141429   0.374   8.863  10.240  1.5501  0.4972 -0.2617
43235SOL    HW241430   0.384   8.964  10.352  0.8252  0.7551 -0.4269
43236SOL     OW41431   6.622   3.194   4.732  0.2065  0.0474 -0.0959
43236SOL    HW141432   6.565   3.125   4.767  0.8388  0.9426  2.9849
43236SOL    HW241433   6.709   3.154   4.730  0.4245  0.4517  0.8605
43237SOL     OW41434  10.883   5.702   5.720 -0.6685 -0.3785  0.5182
43237SOL    HW141435  10.930   5.758   5.782  0.0815  1.0583 -1.2726
43237SOL    HW241436  10.927   5.617   5.726  0.1135  0.0588  1.1161
43238SOL     OW41437   6.133   0.054   5.203  0.3946 -0.0978 -0.4073
43238SOL    HW141438   6.150  -0.033   5.167  0.8032 -0.1797 -0.0205
43238SOL    HW241439   6.037   0.059   5.209  0.3865 -0.6826 -0.0310
43239SOL     OW41440  11.455   7.388   2.874  0.0145 -0.4400  0.0016
43239SOL    HW141441  11.446   7.295   2.898 -3.3836 -0.6242 -1.5280
43239SOL    HW241442  11.483   7.387   2.783 -0.7364  0.0154 -0.2403
43240SOL     OW41443   7.078  11.536   1.766  0.0272  0.2827 -0.0694
43240SOL    HW141444   7.157  11.588   1.777 -0.9493  1.7565  0.3514
43240SOL    HW241445   7.057  11.543   1.673  0.1553  0.2551 -0.1002
43241SOL     OW41446   2.575   5.356   3.049 -0.0747 -0.2698  0.3027
43241SOL    HW141447   2.630   5.408   3.108 -0.1961  2.0010 -1.4578
43241SOL    HW241448   2.635   5.323   2.983 -0.7243  2.6128 -1.8982
43242SOL     OW41449   3.695   6.839  10.580 -0.1018  0.0320 -0.0807
43242SOL    HW141450   3.643   6.866  10.504 -1.7389 -1.9345  0.2656
43242SOL    HW241451   3.777   6.888  10.571 -1.0487  1.3952 -1.9832
43243SOL     OW41452   2.332   0.765   8.495 -0.1554 -0.3518 -0.0544
43243SOL    HW141453   2.346   0.848   8.449 -0.6619 -0.8688 -1.2027
43243SOL    HW241454   2.419   0.729   8.508  0.0021 -0.1767 -0.6005
43244SOL     OW41455   7.379   4.566   8.035  0.3023  0.3482  0.2673
43244SOL    HW141456   7.408   4.523   7.954 -0.7555  1.6704 -0.8565
43244SOL    HW241457   7.458   4.572   8.089  0.8959 -1.1230 -0.3842
43245SOL     OW41458   3.470   7.371   5.557 -0.5215 -0.2002  0.0839
43245SOL    HW141459   3.484   7.334   5.470 -0.2737  1.2580 -0.5287
43245SOL    HW241460   3.550   7.350   5.605  0.7630  1.7016 -1.0757
43246SOL     OW41461   5.304   8.532   9.196 -0.3889  0.5648  0.1312
43246SOL    HW141462   5.298   8.446   9.238  1.6885 -0.0311 -0.6537
43246SOL    HW241463   5.238   8.529   9.126 -0.2307 -0.4573  0.0127
43247SOL     OW41464   8.705   5.188   5.639 -0.5657 -0.2363  0.0506
43247SOL    HW141465   8.628   5.245   5.642  0.6343  1.4453  0.6812
43247SOL    HW241466   8.712   5.152   5.727 -2.3543 -2.9477 -0.7830
43248SOL     OW41467   5.254   0.323   6.558 -0.0353 -0.6141  1.3167
43248SOL    HW141468   5.313   0.398   6.567  0.7908 -0.9348 -0.7563
43248SOL    HW241469   5.183   0.341   6.620  0.1449  1.8779  0.9341
43249SOL     OW41470   7.288   8.189   0.583 -0.3861 -0.0629 -0.1038
43249SOL    HW141471   7.341   8.269   0.581  0.3627 -0.5521 -0.2846
43249SOL    HW241472   7.300   8.150   0.496  1.0343 -1.4821  0.6724
43250SOL     OW41473  10.224   5.978   0.995 -0.4962  0.0523  0.0487
43250SOL    HW141474  10.181   6.056   0.960 -0.0645  0.4815  0.4671
43250SOL    HW241475  10.219   5.915   0.924  0.0257  0.7856 -0.6576
43251SOL     OW41476  10.277   1.722   2.717 -0.0453  0.2016 -0.0161
43251SOL    HW141477  10.278   1.817   2.711 -0.0690  0.2473  0.6163
43251SOL    HW241478  10.358   1.693   2.675  0.1034  0.5194  0.0537
43252SOL     OW41479   2.487  11.024   8.808  0.0434 -0.0009 -0.5271
43252SOL    HW141480   2.550  10.989   8.744  0.3207 -0.2265 -0.1339
43252SOL    HW241481   2.504  10.975   8.888 -0.3337  0.2505 -0.2899
43253SOL     OW41482   2.254   2.045   1.218 -0.5615  0.2404  0.8646
43253SOL    HW141483   2.202   2.059   1.138 -0.0692 -0.3486  0.4364
43253SOL    HW241484   2.194   2.001   1.278 -1.3504  1.8670  1.3206
43254SOL     OW41485   6.156   1.911   8.882 -0.2117  0.1033  0.4289
43254SOL    HW141486   6.089   1.979   8.891  0.9200  1.2853  0.2320
43254SOL    HW241487   6.184   1.894   8.971  0.2867  0.7181  0.3944
43255SOL     OW41488   1.457   9.103   3.705  0.2067 -0.2434  0.1142
43255SOL    HW141489   1.537   9.129   3.659  0.5212 -2.1115 -0.4725
43255SOL    HW241490   1.393   9.088   3.636  0.1118 -1.2013  0.3952
43256SOL     OW41491   3.208  10.432   7.478  0.1785  0.1901 -0.0718
43256SOL    HW141492   3.268  10.359   7.494 -0.8450 -0.5560  0.4542
43256SOL    HW241493   3.265  10.503   7.449  1.1484 -0.9626 -1.1325
43257SOL     OW41494  10.324   3.470   5.327  0.7257 -0.3464  0.1822
43257SOL    HW141495  10.376   3.419   5.389 -0.5637 -0.8700  0.8615
43257SOL    HW241496  10.333   3.421   5.244 -0.7362 -1.9073  0.8868
43258SOL     OW41497   2.063   7.158   1.627 -0.1633  0.2518 -0.3268
43258SOL    HW141498   2.118   7.083   1.651  1.7258  1.5463 -0.3933
43258SOL    HW241499   2.117   7.210   1.568 -1.1301  2.0612  0.2911
43259SOL     OW41500   6.770   3.917  10.038 -0.5773  0.4239 -0.3559
43259SOL    HW141501   6.688   3.893  10.081 -1.2802  0.8091 -1.4359
43259SOL    HW241502   6.831   3.846  10.062 -1.4888 -0.3670 -0.3080
43260SOL     OW41503   6.182   8.303   7.219 -0.1612  0.3398 -0.4531
43260SOL    HW141504   6.125   8.310   7.142 -1.4131 -2.2667  0.1427
43260SOL    HW241505   6.127   8.265   7.287  1.5767  0.3272  1.0229
43261SOL     OW41506   6.438   2.701   8.965 -0.2920 -0.5739 -0.6396
43261SOL    HW141507   6.482   2.634   8.913 -1.9341 -1.4372 -0.9728
43261SOL    HW241508   6.491   2.780   8.952  0.2746 -1.1805 -2.2921
43262SOL     OW41509   0.970   8.105   1.911 -0.2186 -0.2198 -0.0863
43262SOL    HW141510   0.944   8.050   1.985  0.7948 -1.3071 -0.4995
43262SOL    HW241511   1.019   8.177   1.949  3.8432 -2.8172  0.1905
43263SOL     OW41512   9.188   7.020   0.272  0.1546 -0.1106 -0.3443
43263SOL    HW141513   9.154   6.958   0.336 -0.3311  1.4789  1.0017
43263SOL    HW241514   9.111   7.067   0.240  0.6975  1.6198  0.6867
43264SOL     OW41515   6.759   9.962   4.696  0.0072  0.8449  0.6454
43264SOL    HW141516   6.750   9.882   4.748 -0.2930  0.4350 -0.0238
43264SOL    HW241517   6.843   9.999   4.723 -0.3710  0.9152  1.7906
43265SOL     OW41518   3.982   4.964   2.084  0.6038  0.1763 -0.2555
43265SOL    HW141519   3.893   4.958   2.049  0.5547  0.9594 -0.2733
43265SOL    HW241520   3.971   5.003   2.170  1.1069  2.4061 -1.1406
43266SOL     OW41521   3.675   0.987  10.968  0.1985  0.2187 -0.0469
43266SOL    HW141522   3.614   1.055  10.939 -0.1954 -0.6364 -1.3029
43266SOL    HW241523   3.727   0.967  10.890  2.7574  1.5422  1.1957
43267SOL     OW41524   5.134   5.332   8.982  0.1273 -0.0526 -0.5441
43267SOL    HW141525   5.076   5.359   9.053 -0.7296 -0.2019 -1.1634
43267SOL    HW241526   5.172   5.250   9.012  0.0683  0.0803 -0.0981
43268SOL     OW41527   2.962  10.397   6.788 -0.1359  0.1571 -0.4070
43268SOL    HW141528   3.020  10.322   6.799 -0.7221 -0.3516 -0.7051
43268SOL    HW241529   2.894  10.366   6.728  0.3221  1.3299 -1.5744
43269SOL     OW41530   8.645   3.141   7.597  0.0358 -0.2519  0.5838
43269SOL    HW141531   8.735   3.116   7.620  0.4190 -0.1872 -0.7676
43269SOL    HW241532   8.601   3.057   7.582 -0.2327 -0.2972  1.5333
43270SOL     OW41533   4.908   4.949   0.988  0.1862  0.0380  0.5984
43270SOL    HW141534   4.875   5.037   1.008 -1.1189  0.1273 -1.6626
43270SOL    HW241535   4.834   4.904   0.947  1.6397 -1.1701 -0.8299
43271SOL     OW41536   8.510   1.491   5.124  0.4546  0.7925  0.3999
43271SOL    HW141537   8.512   1.516   5.217  0.8557 -1.0534  0.9334
43271SOL    HW241538   8.510   1.395   5.125  0.4448  0.7301 -1.5244
43272SOL     OW41539  10.577   3.137   6.586 -0.2166  0.3506 -0.3352
43272SOL    HW141540  10.652   3.190   6.613  1.2985 -1.5811 -0.4995
43272SOL    HW241541  10.565   3.074   6.657 -2.2751  1.1274  0.0843
43273SOL     OW41542   4.707   6.902   6.746 -0.2126 -0.6563  0.0388
43273SOL    HW141543   4.631   6.915   6.690  0.7984 -0.4002 -1.3286
43273SOL    HW241544   4.770   6.856   6.690  0.8481 -0.3639  0.9628
43274SOL     OW41545   4.904   3.339   5.823  0.2095 -0.0421  0.0557
43274SOL    HW141546   4.846   3.263   5.814 -0.9639  1.0181 -2.2002
43274SOL    HW241547   4.946   3.347   5.738  3.0508 -0.1651  1.3267
43275SOL     OW41548   8.490   1.785   9.887 -0.1853 -0.4350  0.5247
43275SOL    HW141549   8.395   1.777   9.891 -0.1552 -3.0936 -1.3807
43275SOL    HW241550   8.508   1.825   9.802  0.4156  0.5347  1.0866
43276SOL     OW41551   5.659  10.382   8.521 -0.2760  0.0415  0.3096
43276SOL    HW141552   5.727  10.343   8.466 -0.2101 -0.4574  0.7319
43276SOL    HW241553   5.597  10.422   8.460 -1.1361 -2.0113 -0.2326
43277SOL     OW41554  11.283   4.828  11.683  0.3130 -0.2305 -0.0656
43277SOL    HW141555  11.326   4.810  11.600  0.2957  1.5392 -0.4852
43277SOL    HW241556  11.264   4.921  11.681  0.3861 -0.1242  1.9625
43278SOL     OW41557   2.633   1.401   1.441  0.5606  0.0499 -0.0086
43278SOL    HW141558   2.716   1.380   1.400 -0.1789  1.3156 -2.3675
43278SOL    HW241559   2.602   1.479   1.393 -0.4530  1.6300  2.9582
43279SOL     OW41560   6.478   2.565   3.406  0.4809  0.8016 -0.0477
43279SOL    HW141561   6.498   2.493   3.466 -0.7565  0.5012  0.0209
43279SOL    HW241562   6.564   2.603   3.386  1.0308  0.1310  0.9285
43280SOL     OW41563   1.664   2.628   5.293 -0.3392  0.2284  0.1541
43280SOL    HW141564   1.716   2.563   5.246 -0.7064  0.3431 -0.4294
43280SOL    HW241565   1.620   2.678   5.224  0.0997  1.2349  0.5793
43281SOL     OW41566  10.782   1.786   4.432 -0.5722  0.8247  0.1608
43281SOL    HW141567  10.695   1.752   4.413  0.2794 -0.3989 -1.7811
43281SOL    HW241568  10.803   1.749   4.518 -0.2643 -2.5787 -1.2214
43282SOL     OW41569   2.558   4.922   1.133  0.4789  0.3422 -0.4145
43282SOL    HW141570   2.639   4.875   1.114  1.0327  0.9505  0.3484
43282SOL    HW241571   2.535   4.965   1.051  0.1555 -0.9607 -1.0170
43283SOL     OW41572   5.068   3.197   0.256  0.3672  0.5735 -0.1082
43283SOL    HW141573   5.118   3.278   0.243  1.0070  0.3640  0.9267
43283SOL    HW241574   4.994   3.222   0.311  0.7658  0.4016  0.5199
43284SOL     OW41575   7.879   0.530   8.701 -0.1489  0.1898 -0.2323
43284SOL    HW141576   7.810   0.595   8.687 -1.0797 -1.1857 -2.4389
43284SOL    HW241577   7.952   0.560   8.648  0.3445  0.6963  0.7013
43285SOL     OW41578  10.981   6.649   5.905 -0.3065 -0.2713  0.2543
43285SOL    HW141579  11.006   6.688   5.988  0.1388 -1.3311  0.6344
43285SOL    HW241580  10.890   6.624   5.917 -0.0373 -1.0731  0.6884
43286SOL     OW41581   8.129   3.751   7.786 -0.0039 -0.1544  0.2291
43286SOL    HW141582   8.062   3.819   7.795  0.7712  0.5704  0.6879
43286SOL    HW241583   8.165   3.765   7.698 -2.3937 -2.4090 -1.2584
43287SOL     OW41584   7.732   7.389   0.379  0.0401 -0.0998 -0.3011
43287SOL    HW141585   7.736   7.330   0.454 -1.8159  1.9000  1.5315
43287SOL    HW241586   7.664   7.352   0.323  0.3913 -0.8175 -0.2601
43288SOL     OW41587   1.010   0.353   5.339  0.8155  0.6171  0.2590
43288SOL    HW141588   1.064   0.286   5.380 -1.0765  0.8300  3.4495
43288SOL    HW241589   0.951   0.305   5.281 -0.0951 -0.5075  2.0346
43289SOL     OW41590   3.633   5.624   0.029 -0.4223  0.4250 -0.0704
43289SOL    HW141591   3.546   5.585   0.022  0.4461 -1.5254 -0.7812
43289SOL    HW241592   3.684   5.581  -0.040  0.7564  2.5876 -0.6497
43290SOL     OW41593  10.592   5.373   4.060  0.0618  0.6459  0.0252
43290SOL    HW141594  10.640   5.363   3.977 -0.2652 -3.2720  0.1188
43290SOL    HW241595  10.652   5.337   4.126 -0.8987  0.7648  0.9746
43291SOL     OW41596   8.460   4.094   4.725 -0.2380  0.3957 -0.2552
43291SOL    HW141597   8.530   4.145   4.764 -0.7903  0.7859  0.2397
43291SOL    HW241598   8.494   4.005   4.722  1.3634  0.9865 -2.5639
43292SOL     OW41599   6.376   6.841   7.723 -0.0347  0.1344 -0.6837
43292SOL    HW141600   6.435   6.910   7.751  0.3137 -0.4475  0.0497
43292SOL    HW241601   6.289   6.881   7.725  0.1465  0.5045 -0.1129
43293SOL     OW41602   8.105  11.139   5.092  0.2832 -0.2755  0.4826
43293SOL    HW141603   8.068  11.051   5.087 -0.5232  0.0349  0.7459
43293SOL    HW241604   8.055  11.182   5.161  0.9011  0.2852  0.5909
43294SOL     OW41605   6.679   1.458   6.908  0.1059 -0.3669 -0.5609
43294SOL    HW141606   6.594   1.436   6.944  1.2215 -3.0247  0.7154
43294SOL    HW241607   6.715   1.375   6.878  1.1368  1.0827 -3.7447
43295SOL     OW41608   1.986   1.441   2.161 -0.1201 -0.4432  0.2196
43295SOL    HW141609   2.044   1.365   2.152  2.7705  1.5838 -0.0639
43295SOL    HW241610   1.957   1.459   2.071  2.0531  0.6710 -0.3647
43296SOL     OW41611   5.623   4.084   8.331  0.1028 -0.3570  0.1675
43296SOL    HW141612   5.717   4.088   8.352  0.0846 -0.7730  0.3350
43296SOL    HW241613   5.586   4.162   8.373  0.3358 -0.3257  0.3176
43297SOL     OW41614   2.321   4.158   7.270  0.5714  0.8261 -0.5909
43297SOL    HW141615   2.308   4.230   7.208 -1.5697  1.4362  0.4823
43297SOL    HW241616   2.393   4.187   7.325  0.0138  1.9896 -0.4368
43298SOL     OW41617   8.357   8.623   8.677 -0.0460 -0.1537 -0.1657
43298SOL    HW141618   8.289   8.689   8.665 -0.6710 -0.3273  1.9971
43298SOL    HW241619   8.365   8.613   8.772  1.3555 -1.8388 -0.3974
43299SOL     OW41620   5.536   8.753   0.774  0.5487  0.2497  0.6252
43299SOL    HW141621   5.442   8.757   0.789 -0.4095  1.3564 -4.1676
43299SOL    HW241622   5.551   8.669   0.731  1.2191  1.1317 -0.9593
43300SOL     OW41623   4.818   5.095   5.368  0.6129  0.3079  0.4800
43300SOL    HW141624   4.779   5.101   5.455  2.1210  1.7617  1.1050
43300SOL    HW241625   4.910   5.119   5.380  0.7422  1.1130 -1.5881
43301SOL     OW41626  10.361   1.733   5.136  0.4281  0.3228 -0.0633
43301SOL    HW141627  10.425   1.687   5.082  1.0142  1.1727 -0.1154
43301SOL    HW241628  10.403   1.817   5.157 -0.2863  0.5057  0.6931
43302SOL     OW41629   0.892  11.418   6.953  0.3532 -0.1478  0.0525
43302SOL    HW141630   0.839  11.407   6.874 -0.3835  0.2228  0.4820
43302SOL    HW241631   0.969  11.363   6.938 -0.3477 -1.0329 -0.4171
43303SOL     OW41632   6.285   5.114   9.602 -0.4007  0.5104  0.1170
43303SOL    HW141633   6.242   5.160   9.674 -2.0878  1.0330 -1.1486
43303SOL    HW241634   6.378   5.132   9.614 -0.7737  1.8632  1.2779
43304SOL     OW41635   3.363  10.421   4.001 -0.0205 -0.4723  0.2232
43304SOL    HW141636   3.413  10.478   4.059  0.4808 -0.2639 -0.3946
43304SOL    HW241637   3.325  10.480   3.936  0.7245 -0.8625 -0.5807
43305SOL     OW41638  10.481   2.580   1.418 -0.1520 -0.0384  0.5925
43305SOL    HW141639  10.545   2.605   1.352 -0.6540 -1.7546 -0.6362
43305SOL    HW241640  10.447   2.662   1.452  0.3776  0.9039 -1.0493
43306SOL     OW41641   5.120   8.640   8.428  0.4904 -1.0380 -0.3954
43306SOL    HW141642   5.067   8.638   8.507 -1.5797 -1.4596 -1.7031
43306SOL    HW241643   5.199   8.590   8.450  0.4992 -0.2023  1.6928
43307SOL     OW41644   5.692  10.892   3.394 -0.0058  0.1051  0.2324
43307SOL    HW141645   5.670  10.813   3.443  0.8202 -0.1948  0.1522
43307SOL    HW241646   5.616  10.909   3.338 -0.5748 -0.0789  0.9400
43308SOL     OW41647   9.622   2.568   4.152 -0.0768  0.2309  0.5858
43308SOL    HW141648   9.641   2.600   4.064 -1.0931  0.8074  0.5621
43308SOL    HW241649   9.662   2.633   4.210  0.6225 -0.1670  0.5613
43309SOL     OW41650   4.285   0.810   4.521 -0.2433  0.0400  0.0378
43309SOL    HW141651   4.277   0.804   4.426 -1.7757  1.0655  0.0760
43309SOL    HW241652   4.211   0.761   4.555  0.8339 -1.1663  0.7695
43310SOL     OW41653   9.225   6.246   8.767  0.4014  0.3608  0.2513
43310SOL    HW141654   9.286   6.311   8.732 -0.8540  1.5170  0.1297
43310SOL    HW241655   9.278   6.191   8.825  1.6715  0.9203 -0.3473
43311SOL     OW41656   8.615   1.281   3.274 -0.3957 -0.2529  0.1823
43311SOL    HW141657   8.658   1.311   3.194  0.5252 -0.4042  0.6049
43311SOL    HW241658   8.620   1.355   3.333 -1.8051  0.1375 -0.1578
43312SOL     OW41659   3.104   7.227  11.201  0.0365 -0.3859  0.3607
43312SOL    HW141660   3.112   7.276  11.283  4.0097 -0.2177  0.0559
43312SOL    HW241661   3.101   7.295  11.134 -0.7126 -0.5440  0.2322
43313SOL     OW41662   0.084   7.716   0.790  0.4224  0.2027 -0.1865
43313SOL    HW141663  -0.005   7.699   0.820  1.1021 -1.1973  1.2200
43313SOL    HW241664   0.094   7.661   0.712 -0.5557  1.9485 -1.6180
43314SOL     OW41665   4.036   7.687   5.867  0.4895  0.1026 -0.4576
43314SOL    HW141666   4.096   7.753   5.832 -0.8357  0.2574 -2.6548
43314SOL    HW241667   3.949   7.726   5.856 -0.0757  0.1574  3.2206
43315SOL     OW41668   8.387  10.360   9.868 -0.0088 -0.0623  0.1404
43315SOL    HW141669   8.322  10.308   9.821  1.9401 -0.7586 -1.9358
43315SOL    HW241670   8.421  10.301   9.935 -0.7090 -0.0510  0.5159
43316SOL     OW41671   2.334   0.133  10.961 -0.1025  0.0708 -0.6964
43316SOL    HW141672   2.429   0.137  10.949 -0.1742 -0.5965 -1.5939
43316SOL    HW241673   2.311   0.220  10.995  0.7463  0.4712 -1.1087
43317SOL     OW41674   3.397   7.646   8.754 -0.0446 -0.3880  0.5511
43317SOL    HW141675   3.329   7.590   8.790 -1.2006  1.7131  1.7934
43317SOL    HW241676   3.470   7.637   8.815  0.2110 -1.3798  0.1179
43318SOL     OW41677  10.589   2.977   8.489 -0.4195  0.2558  0.0984
43318SOL    HW141678  10.661   2.923   8.520 -0.7204 -0.0096  0.3525
43318SOL    HW241679  10.565   2.938   8.404  0.7467  1.3029 -0.7457
43319SOL     OW41680   5.095   8.883   2.019  0.4511  0.0862 -0.5332
43319SOL    HW141681   5.113   8.968   2.059  0.1583  0.6122 -1.4869
43319SOL    HW241682   5.016   8.898   1.966  1.1053 -0.4506 -1.6883
43320SOL     OW41683   7.177   7.910  11.160  0.0241  0.3643  0.1114
43320SOL    HW141684   7.243   7.868  11.104 -0.5955 -0.1264 -0.2667
43320SOL    HW241685   7.228   7.964  11.220  0.9330 -1.6141  1.2327
43321SOL     OW41686   3.009   8.852  11.613  0.2281  0.1901 -0.2436
43321SOL    HW141687   2.927   8.841  11.661  0.2472 -0.6370 -0.3773
43321SOL    HW241688   2.983   8.862  11.522  0.2332  0.8845 -0.1710
43322SOL     OW41689   1.721   8.883   3.616 -0.1583 -0.1348  0.2841
43322SOL    HW141690   1.665   8.854   3.688  0.6397 -1.1549  0.5258
43322SOL    HW241691   1.722   8.978   3.622 -1.8553 -0.0794  0.2625
43323SOL     OW41692   6.504   8.024   4.982 -0.1246  0.7837 -0.1414
43323SOL    HW141693   6.429   7.988   4.935  0.1912 -1.2029  0.7741
43323SOL    HW241694   6.533   8.097   4.928 -0.9158 -0.2459 -2.0674
43324SOL     OW41695   9.125   1.601   6.085 -0.6093  0.4236  0.6393
43324SOL    HW141696   9.214   1.588   6.053 -0.3822  1.2905  0.8947
43324SOL    HW241697   9.105   1.520   6.132  0.2551  0.4280  1.0434
43325SOL     OW41698   8.791   2.384  11.373  0.4033  0.0709  0.0927
43325SOL    HW141699   8.779   2.289  11.372  0.9811 -0.0109 -0.9530
43325SOL    HW241700   8.704   2.420  11.360  0.2889 -0.3287 -0.2490
43326SOL     OW41701   6.644   7.160   3.389  0.5567  0.0259 -0.1873
43326SOL    HW141702   6.713   7.208   3.345  1.1944 -0.5612  0.1533
43326SOL    HW241703   6.573   7.223   3.398  0.2714  0.0823 -2.3133
43327SOL     OW41704   4.541   2.108   7.890  0.3253  0.4034 -0.7954
43327SOL    HW141705   4.471   2.089   7.952  0.0833 -0.4580 -1.3147
43327SOL    HW241706   4.590   2.026   7.883 -0.0911  0.2488 -2.2639
43328SOL     OW41707   6.664   5.822   9.255  0.1713  0.1037 -0.0010
43328SOL    HW141708   6.604   5.747   9.261  0.1118  0.1938  0.6974
43328SOL    HW241709   6.621   5.891   9.306  0.4086  0.4869 -0.3157
43329SOL     OW41710   2.612   7.247   9.830 -0.7098  0.1734 -0.3462
43329SOL    HW141711   2.620   7.278   9.740 -2.0767 -0.7555 -0.8161
43329SOL    HW241712   2.694   7.274   9.872  0.2832 -0.0379 -2.0523
43330SOL     OW41713   4.533   9.903   6.591 -0.1230 -0.3334 -0.4164
43330SOL    HW141714   4.530   9.975   6.655  1.5509 -1.0718  0.5567
43330SOL    HW241715   4.454   9.852   6.609 -1.1531  1.0342 -0.8867
43331SOL     OW41716  10.163   8.736   6.158 -0.0801 -0.0751  0.2839
43331SOL    HW141717  10.221   8.813   6.158  1.7957 -1.3631  2.3448
43331SOL    HW241718  10.221   8.662   6.176 -1.4943 -2.3693 -3.4642
43332SOL     OW41719   5.393   2.548  10.918 -0.5723 -0.1183 -0.2552
43332SOL    HW141720   5.387   2.641  10.942  0.5520 -0.2768  0.7690
43332SOL    HW241721   5.372   2.501  10.999 -1.6409 -0.7748 -0.8988
43333SOL     OW41722   4.794   6.962   1.151 -0.3416  0.2492  0.2625
43333SOL    HW141723   4.848   7.036   1.180  0.1371  0.2667 -0.6088
43333SOL    HW241724   4.823   6.946   1.061 -1.1911 -0.3165  0.0794
43334SOL     OW41725   7.761   3.775   2.903 -0.1784  0.5493  0.3622
43334SOL    HW141726   7.839   3.828   2.888  0.7250 -0.7026  0.4415
43334SOL    HW241727   7.689   3.838   2.907  1.1017  2.0001  2.7050
43335SOL     OW41728   8.222   8.454  11.534  0.2436 -0.0299 -0.4022
43335SOL    HW141729   8.305   8.424  11.498  1.6687  2.5028  0.5055
43335SOL    HW241730   8.245   8.491  11.619 -1.9081  0.3192  0.0902
43336SOL     OW41731   6.650   7.158   6.162  0.2255 -0.2400  0.0631
43336SOL    HW141732   6.566   7.119   6.138  0.2011 -0.6157  0.7452
43336SOL    HW241733   6.631   7.251   6.174  0.4772  0.2429 -2.5665
43337SOL     OW41734   3.704  11.183   9.512  0.2097 -0.3956  0.7272
43337SOL    HW141735   3.743  11.097   9.529 -1.3144 -1.2723 -0.0070
43337SOL    HW241736   3.775  11.235   9.475  1.5136 -0.8992  2.3845
43338SOL     OW41737   2.422   9.224  11.280 -0.1004  0.3091 -0.0890
43338SOL    HW141738   2.400   9.166  11.352 -1.0576 -0.3506 -0.8759
43338SOL    HW241739   2.488   9.177  11.229 -0.4248  0.1625 -0.3846
43339SOL     OW41740   4.178   4.156   6.381  0.0349  0.5668  0.6216
43339SOL    HW141741   4.087   4.162   6.411 -0.4426  1.1094 -0.8723
43339SOL    HW241742   4.219   4.096   6.443 -1.1205  0.9384  1.8121
43340SOL     OW41743   9.201   9.896   9.083 -0.5271  0.2830 -0.3036
43340SOL    HW141744   9.184   9.866   9.173 -0.0158 -0.7287 -0.5241
43340SOL    HW241745   9.295   9.914   9.082 -1.0634  3.8048  0.3360
43341SOL     OW41746   1.027   0.873   7.572 -0.2351  0.9041  0.1168
43341SOL    HW141747   0.985   0.885   7.657 -1.4321 -0.5330 -0.2321
43341SOL    HW241748   1.089   0.946   7.565 -0.5358  1.3801  1.9503
43342SOL     OW41749   1.041   8.866   6.665 -0.0912 -0.9297 -0.0344
43342SOL    HW141750   1.097   8.908   6.599  1.2815 -0.6403  1.2435
43342SOL    HW241751   1.050   8.773   6.647  0.5258 -0.8692 -0.0721
43343SOL     OW41752   7.172   8.428   8.578 -0.5502 -0.5414 -0.0566
43343SOL    HW141753   7.132   8.353   8.622  0.7196 -1.4043 -0.2888
43343SOL    HW241754   7.172   8.497   8.645  1.9372 -2.0137  1.6741
43344SOL     OW41755  11.009   1.706  10.004  0.2107 -0.1879 -0.2083
43344SOL    HW141756  11.056   1.709   9.921  0.4884  2.5612 -0.0356
43344SOL    HW241757  11.077   1.696  10.070  0.2877  0.4999 -0.1702
43345SOL     OW41758   3.685   1.214   6.487 -0.0584 -0.1772  0.3576
43345SOL    HW141759   3.688   1.244   6.397 -0.0422  0.2088  0.4838
43345SOL    HW241760   3.720   1.125   6.484  0.4293  0.0225  0.0601
43346SOL     OW41761   5.351   0.105   0.395  0.6023  0.0973 -0.2683
43346SOL    HW141762   5.389   0.111   0.307  0.0857 -0.0970 -0.5093
43346SOL    HW241763   5.422   0.074   0.450  0.4397 -1.6052 -0.9631
43347SOL     OW41764   5.876   1.237  11.674  0.1438  0.8445 -0.3141
43347SOL    HW141765   5.866   1.197  11.588 -0.1108  0.0849  0.0679
43347SOL    HW241766   5.962   1.207  11.705 -0.3846 -0.0642  0.3093
43348SOL     OW41767   5.652   8.706   8.122  0.4316 -0.0154  0.3323
43348SOL    HW141768   5.685   8.630   8.074 -1.9973 -0.7663 -0.2760
43348SOL    HW241769   5.633   8.771   8.055 -1.6331 -0.5425  0.3482
43349SOL     OW41770   7.705   4.190   3.412 -0.0060 -0.1601 -0.5565
43349SOL    HW141771   7.736   4.278   3.394 -1.2645  0.5550  0.6041
43349SOL    HW241772   7.614   4.190   3.382 -0.4762 -0.5745  0.7900
43350SOL     OW41773   0.723   4.719  11.112  0.4208  0.0612 -0.3076
43350SOL    HW141774   0.810   4.735  11.074  0.2663  0.7467 -0.3698
43350SOL    HW241775   0.739   4.650  11.177  1.0087  0.1473 -0.3506
43351SOL     OW41776   8.389   6.583   9.047 -0.0300 -0.0175 -0.2153
43351SOL    HW141777   8.376   6.592   8.953  1.4237 -2.4343 -0.7252
43351SOL    HW241778   8.328   6.647   9.086  1.0639  2.8395 -2.7879
43352SOL     OW41779   2.971   7.970   1.437  0.2043  0.1646 -0.0290
43352SOL    HW141780   2.955   8.064   1.437 -0.5676  0.0935  2.2263
43352SOL    HW241781   3.060   7.960   1.470  1.0374  0.1124 -2.1074
43353SOL     OW41782  11.543   3.338   0.654 -0.1852  0.0834 -0.1232
43353SOL    HW141783  11.471   3.289   0.693 -0.1273  1.2429  1.5363
43353SOL    HW241784  11.527   3.429   0.679  0.8839  0.6165 -1.2661
43354SOL     OW41785   6.134   0.863   0.783  0.4949 -0.1707 -0.1179
43354SOL    HW141786   6.117   0.862   0.688 -1.7501  0.9051  0.1916
43354SOL    HW241787   6.047   0.855   0.822  1.4369 -1.2799  1.8951
43355SOL     OW41788   2.995   1.724   7.511  1.0565 -0.1410 -0.5802
43355SOL    HW141789   3.060   1.794   7.515  1.5048 -0.5236 -1.0172
43355SOL    HW241790   2.911   1.769   7.507  1.3581  0.3802 -1.1895
43356SOL     OW41791   0.712   3.964  10.420 -0.2165 -0.2042 -0.6123
43356SOL    HW141792   0.674   4.043  10.458  0.3783  0.1101 -0.6629
43356SOL    HW241793   0.667   3.952  10.337 -0.2280  0.1459 -0.6551
43357SOL     OW41794   8.250   1.149  10.021  0.2910  0.3516  0.7356
43357SOL    HW141795   8.286   1.222   9.970 -0.8738  1.2402  1.1437
43357SOL    HW241796   8.156   1.162  10.017 -0.0473 -1.9437 -0.3601
43358SOL     OW41797   7.178  10.409   3.461 -0.4730  0.3521  0.2709
43358SOL    HW141798   7.218  10.408   3.548  1.0852 -1.2558 -0.4001
43358SOL    HW241799   7.213  10.331   3.418  0.5577  2.2674 -2.6060
43359SOL     OW41800   3.561  10.029   5.353  0.2796  0.9042  0.0057
43359SOL    HW141801   3.642  10.078   5.373  0.9033 -0.0205 -0.1973
43359SOL    HW241802   3.592   9.948   5.312 -0.8016  0.9366 -0.9067
43360SOL     OW41803   1.777  10.174   4.487  0.0217 -0.1258 -0.3110
43360SOL    HW141804   1.869  10.148   4.492  0.0291  0.1130  1.7165
43360SOL    HW241805   1.728  10.095   4.509 -0.3386 -0.4915 -2.2581
43361SOL     OW41806   4.512  11.086   4.459  0.0913 -0.2058  0.0067
43361SOL    HW141807   4.465  11.133   4.390 -0.3178 -2.2305 -1.1689
43361SOL    HW241808   4.472  11.000   4.462  2.2922 -1.2994  0.4858
43362SOL     OW41809  10.511  10.190   6.368  0.8316 -0.8371 -0.3149
43362SOL    HW141810  10.574  10.118   6.368  2.8586  0.7969  1.4263
43362SOL    HW241811  10.564  10.269   6.363 -1.2548  0.6111 -1.2631
43363SOL     OW41812   7.767   5.394   8.032  0.4249  0.1304 -0.1783
43363SOL    HW141813   7.680   5.353   8.034  0.7898 -0.7303 -1.2976
43363SOL    HW241814   7.753   5.476   7.985  0.5448 -0.8990 -2.1062
43364SOL     OW41815   7.596  10.721   0.264 -1.0429 -0.3301  0.1736
43364SOL    HW141816   7.504  10.747   0.273 -0.9824  0.2740 -0.8659
43364SOL    HW241817   7.594  10.646   0.205 -0.8188  0.0777 -0.3603
43365SOL     OW41818  10.283   2.863   8.428 -0.8722 -0.1967  0.9487
43365SOL    HW141819  10.371   2.881   8.395  1.0225 -1.1219  4.8562
43365SOL    HW241820  10.269   2.770   8.409 -0.7492 -0.1782  0.7665
43366SOL     OW41821   6.753   8.913   3.823  0.3254 -0.1413  0.4028
43366SOL    HW141822   6.671   8.941   3.865 -0.6884  2.2418 -2.7946
43366SOL    HW241823   6.724   8.867   3.744  2.0497  0.7200 -0.7784
43367SOL     OW41824  10.417  11.911   8.228  0.0644 -0.1717 -0.0008
43367SOL    HW141825  10.358  11.842   8.258  0.0886  0.0122  0.4919
43367SOL    HW241826  10.497  11.865   8.202 -0.7363 -0.5657 -1.9445
43368SOL     OW41827   8.406   0.527   9.721 -0.2285  0.1701 -0.1873
43368SOL    HW141828   8.458   0.476   9.659  1.9706  1.1738  0.7141
43368SOL    HW241829   8.365   0.462   9.778 -0.2396 -0.6679 -1.1423
43369SOL     OW41830   3.155   4.929   4.067 -0.3630 -0.1785  0.2863
43369SOL    HW141831   3.229   4.902   4.012 -0.0902  0.6947  0.2102
43369SOL    HW241832   3.170   4.884   4.151 -0.6815 -1.3722 -0.2681
43370SOL     OW41833   9.431   6.568  11.032  0.5174 -0.3936 -0.1767
43370SOL    HW141834   9.489   6.569  10.957  0.1743  1.2333 -0.4738
43370SOL    HW241835   9.462   6.640  11.087 -0.4453 -0.2842  0.2533
43371SOL     OW41836   2.587   6.024   8.835 -0.2573  0.7395  0.1196
43371SOL    HW141837   2.546   5.991   8.916 -0.5937  1.2515  0.1628
43371SOL    HW241838   2.681   6.014   8.851 -0.3484 -0.9105 -0.1748
43372SOL     OW41839   3.996   0.293   7.953  0.0500  0.3154  0.0354
43372SOL    HW141840   3.997   0.217   7.895 -1.4434 -0.7645  1.3433
43372SOL    HW241841   3.903   0.310   7.968  0.3888  1.3981  1.0678
43373SOL     OW41842   7.200   5.058   9.092  0.3142  0.0951 -0.2936
43373SOL    HW141843   7.152   4.978   9.072 -0.4180  0.3519  0.3834
43373SOL    HW241844   7.204   5.060   9.187 -0.2730  1.1981 -0.2729
43374SOL     OW41845   8.921   3.097   7.590 -0.3580  0.5743  0.3235
43374SOL    HW141846   8.926   3.099   7.495 -1.6008  1.6973  0.2500
43374SOL    HW241847   8.996   3.148   7.620  0.9507 -1.0834  0.0372
43375SOL     OW41848   7.771   7.988  10.483 -0.1341 -0.1398 -0.2319
43375SOL    HW141849   7.845   8.049  10.481 -0.5796  0.4041 -0.4395
43375SOL    HW241850   7.711   8.024  10.548 -1.3196  0.7766 -1.7508
43376SOL     OW41851   7.747  11.083   3.123  0.4517 -0.6273 -0.6440
43376SOL    HW141852   7.761  11.145   3.194 -2.5468  1.9872 -2.0828
43376SOL    HW241853   7.671  11.032   3.150  0.6775 -1.1791 -1.0262
43377SOL     OW41854  11.766   6.479   7.523 -1.2284  0.6144  0.1862
43377SOL    HW141855  11.782   6.573   7.525 -0.9126  0.5537  0.7780
43377SOL    HW241856  11.677   6.470   7.489 -0.5424  1.0299 -1.8709
43378SOL     OW41857   8.147   2.891   4.947  0.3975  0.7838  0.4418
43378SOL    HW141858   8.233   2.932   4.941  0.2937  1.1243  1.2418
43378SOL    HW241859   8.143   2.854   5.035  0.5733 -1.1666 -0.3220
43379SOL     OW41860   0.409   4.200   6.245 -0.0697 -0.4047 -0.8263
43379SOL    HW141861   0.462   4.151   6.308  0.2772 -0.4117 -1.1188
43379SOL    HW241862   0.390   4.136   6.176 -2.2601 -1.0278  0.2720
43380SOL     OW41863   1.819   4.432  10.722  0.3619 -0.3525 -0.4727
43380SOL    HW141864   1.896   4.429  10.778  1.6503  0.9485 -2.0577
43380SOL    HW241865   1.817   4.522  10.689 -1.7811 -0.3840 -0.5879
43381SOL     OW41866   1.383   2.211   3.253 -0.5857 -0.1452 -0.2290
43381SOL    HW141867   1.298   2.239   3.287 -0.9843  0.3072 -1.5069
43381SOL    HW241868   1.381   2.237   3.161  0.8359 -0.3828 -0.3521
43382SOL     OW41869   1.938   0.720  10.983 -0.1215  0.0733  0.1680
43382SOL    HW141870   1.918   0.802  11.029  0.1971  0.9399 -1.1555
43382SOL    HW241871   1.854   0.676  10.975 -0.0585 -0.5406  2.3111
43383SOL     OW41872   0.566   0.598   5.350  0.3310  0.0923  0.2510
43383SOL    HW141873   0.585   0.683   5.310  0.7267 -0.1779 -0.1477
43383SOL    HW241874   0.652   0.566   5.379  0.4576 -0.9631 -1.1902
43384SOL     OW41875   0.120   6.329   9.636 -0.1924  0.1503 -0.5148
43384SOL    HW141876   0.146   6.361   9.549 -2.8546  0.1924 -1.3925
43384SOL    HW241877   0.057   6.260   9.618  1.5594 -2.1263  1.4452
43385SOL     OW41878   7.434  11.757   3.971 -0.5585 -1.3237 -0.4594
43385SOL    HW141879   7.435  11.671   4.013 -1.1012 -0.1534  2.1261
43385SOL    HW241880   7.395  11.816   4.036  1.0162  1.1672 -1.6001
43386SOL     OW41881   6.118   7.516   4.637 -0.0751  0.1907 -0.0011
43386SOL    HW141882   6.031   7.488   4.610 -1.1633  2.0377  1.3876
43386SOL    HW241883   6.177   7.459   4.589 -2.0247 -0.7680 -1.3927
43387SOL     OW41884   2.997   9.173   8.120  0.4920  0.0371 -0.8274
43387SOL    HW141885   2.941   9.101   8.148  0.6759  0.3578  0.4499
43387SOL    HW241886   3.074   9.130   8.081  1.1324 -0.5392  0.9376
43388SOL     OW41887   8.222  10.111  11.347  0.2020  0.7772 -0.3370
43388SOL    HW141888   8.300  10.116  11.402  1.6905 -0.4306 -2.1785
43388SOL    HW241889   8.199  10.202  11.329  1.2233  1.1656  0.2232
43389SOL     OW41890  11.278   8.410   9.590  0.2422 -0.0712  0.1561
43389SOL    HW141891  11.350   8.438   9.534  0.3305  0.4184  0.5020
43389SOL    HW241892  11.292   8.457   9.672 -0.6254  0.2482  0.1353
43390SOL     OW41893   3.790   2.657   3.618  0.2400  0.3135  0.6686
43390SOL    HW141894   3.798   2.718   3.544  2.9308  0.1621  0.7336
43390SOL    HW241895   3.773   2.713   3.694  0.1313  0.7331  0.3346
43391SOL     OW41896   9.276  10.179  11.283  0.2256  0.2952  0.0733
43391SOL    HW141897   9.340  10.238  11.243  3.5348 -3.8237 -1.4531
43391SOL    HW241898   9.322  10.141  11.358 -1.0258 -1.6151 -0.0747
43392SOL     OW41899   9.278   3.501   9.669  0.0822 -0.0529  0.0689
43392SOL    HW141900   9.201   3.527   9.721  1.0601  2.4678  0.4428
43392SOL    HW241901   9.327   3.442   9.727 -1.3923 -1.4793 -0.0748
43393SOL     OW41902   4.543   9.441   1.428 -0.3165 -0.3462  0.3454
43393SOL    HW141903   4.535   9.410   1.338 -0.8396 -0.2682  0.3626
43393SOL    HW241904   4.509   9.530   1.426  0.8393  0.1088  0.3735
43394SOL     OW41905  10.329   3.160   5.606  0.2219  0.1300  0.1931
43394SOL    HW141906  10.369   3.190   5.688 -0.2335 -1.3085  0.9723
43394SOL    HW241907  10.368   3.216   5.539  2.3546 -0.1567  1.1127
43395SOL     OW41908   5.967   3.729   1.306  0.0749 -0.6908 -0.3973
43395SOL    HW141909   5.948   3.797   1.241  1.2078 -1.0905 -1.1707
43395SOL    HW241910   5.946   3.770   1.390  3.4663  1.7378 -0.5397
43396SOL     OW41911   3.361  10.151   3.867 -0.0091  0.0998 -0.2290
43396SOL    HW141912   3.328  10.211   3.934 -2.3160  0.4462 -1.5392
43396SOL    HW241913   3.449  10.128   3.896  0.3750  2.8753  1.1641
43397SOL     OW41914  10.046   1.893  11.875  0.2084  0.0132 -0.3754
43397SOL    HW141915  10.032   1.987  11.884  0.9051  0.2850 -1.8646
43397SOL    HW241916  10.000   1.855  11.949 -0.1277  1.5222  0.2247
43398SOL     OW41917   7.075   7.173  11.247 -0.0516 -0.2108  0.1577
43398SOL    HW141918   7.011   7.131  11.303  0.7563 -1.5792  0.1160
43398SOL    HW241919   7.073   7.266  11.272 -1.4982 -0.3571  0.6446
43399SOL     OW41920   3.252  10.769   7.243  0.1847 -0.3987  0.4057
43399SOL    HW141921   3.222  10.839   7.301 -0.9478  0.3663 -1.0399
43399SOL    HW241922   3.175  10.713   7.230  0.6755 -1.0836  0.3607
43400SOL     OW41923   4.358   1.402   6.010 -0.3865 -0.3464  0.1178
43400SOL    HW141924   4.331   1.459   6.081 -1.8026  1.3434 -1.6574
43400SOL    HW241925   4.419   1.455   5.959 -0.7258 -0.8586 -0.8475
43401SOL     OW41926   9.715   7.705   4.842 -0.8515 -0.0444 -0.1478
43401SOL    HW141927   9.737   7.730   4.932 -3.0653 -0.1915  0.4945
43401SOL    HW241928   9.773   7.631   4.823 -0.9733 -0.6232  1.5254
43402SOL     OW41929   6.619   6.500  10.366 -0.4720 -0.1156 -0.2460
43402SOL    HW141930   6.701   6.482  10.411 -1.1654  0.4026  1.2744
43402SOL    HW241931   6.641   6.496  10.273  1.9009  2.6592  0.0549
43403SOL     OW41932  10.133   1.840   6.301 -0.0109  0.0376  0.5843
43403SOL    HW141933  10.157   1.750   6.278  1.5727  0.7984 -1.0058
43403SOL    HW241934  10.203   1.869   6.359 -0.4527  0.3037  0.9882
43404SOL     OW41935   1.761   1.976   5.747 -0.0306  0.6581 -0.2478
43404SOL    HW141936   1.688   1.920   5.773  1.8676 -0.5444  3.1000
43404SOL    HW241937   1.728   2.065   5.758 -2.0713  0.3151 -2.5360
43405SOL     OW41938   1.073   1.724   6.111  0.4432  0.1389  0.0780
43405SOL    HW141939   1.082   1.686   6.199  2.9586  1.8607  0.6518
43405SOL    HW241940   1.068   1.818   6.126 -2.2152  0.3422 -1.5249
43406SOL     OW41941   7.866   9.239   5.193  0.2876  0.3730  0.3297
43406SOL    HW141942   7.920   9.190   5.131 -0.4217  2.0620 -1.7231
43406SOL    HW241943   7.778   9.236   5.156  0.1961  3.0934  0.1484
43407SOL     OW41944  10.093   5.038   4.479 -0.5231 -0.1529  0.2420
43407SOL    HW141945  10.077   5.056   4.572 -1.6471 -1.5102  0.3356
43407SOL    HW241946  10.177   4.993   4.477 -1.2274 -1.5451  0.7981
43408SOL     OW41947   6.629   7.548   9.199  0.1897  0.0428 -0.3359
43408SOL    HW141948   6.661   7.518   9.284 -0.6156 -0.2096 -0.1155
43408SOL    HW241949   6.696   7.610   9.169 -0.0497  0.9935  0.9865
43409SOL     OW41950   5.720   7.572   0.778 -0.3309  0.3301 -0.0123
43409SOL    HW141951   5.770   7.551   0.856  1.5501  2.8360 -0.4223
43409SOL    HW241952   5.660   7.642   0.806 -0.9496 -0.0383 -0.3925
43410SOL     OW41953   5.129  10.921   4.992  0.1805  0.2564 -0.5358
43410SOL    HW141954   5.054  10.944   4.937 -0.8319 -0.4275  0.5026
43410SOL    HW241955   5.196  10.893   4.930 -0.9176 -0.4968 -1.4511
43411SOL     OW41956   4.935   5.030   3.156 -0.3633 -0.0056  0.0934
43411SOL    HW141957   4.904   5.000   3.071  0.0094  0.2183 -0.1235
43411SOL    HW241958   4.855   5.050   3.204 -0.5782  1.3403 -0.7463
43412SOL     OW41959   1.955   8.932   1.925  0.3044 -0.2976  0.2205
43412SOL    HW141960   1.909   9.016   1.920  1.5442  0.3581 -0.7288
43412SOL    HW241961   1.930   8.896   2.010 -0.3481  0.9686  0.5872
43413SOL     OW41962   1.504   0.027   2.530 -0.3772  0.0084  0.6031
43413SOL    HW141963   1.503   0.070   2.445  1.4435 -2.4805 -0.8030
43413SOL    HW241964   1.419  -0.018   2.535 -0.5465  0.2751  0.1742
43414SOL     OW41965  11.153   1.531   7.057 -0.1241  0.3689  0.0320
43414SOL    HW141966  11.180   1.473   6.987  0.8351  0.8375  0.0005
43414SOL    HW241967  11.066   1.561   7.031  0.1246  0.3567 -0.8367
43415SOL     OW41968   3.592   6.859   5.224 -0.0548 -0.3121  0.0405
43415SOL    HW141969   3.514   6.804   5.235 -0.3796  0.3467  1.3458
43415SOL    HW241970   3.662   6.809   5.267 -0.1589 -0.1122  0.4497
43416SOL     OW41971   8.616   5.123   7.644  0.0305 -0.4333 -0.2661
43416SOL    HW141972   8.704   5.124   7.606  1.3080  0.7919  2.4637
43416SOL    HW241973   8.614   5.044   7.698 -0.0398  0.2148  0.7040
43417SOL     OW41974   3.187   4.860   7.997 -0.1512  0.1834 -0.3327
43417SOL    HW141975   3.254   4.832   8.059 -2.0995 -1.2704  1.2359
43417SOL    HW241976   3.154   4.943   8.033 -0.9469 -0.4150  0.3482
43418SOL     OW41977   8.034   5.798   3.495 -0.4893  0.0337 -0.4359
43418SOL    HW141978   8.102   5.830   3.435 -0.4702 -0.7747 -0.8621
43418SOL    HW241979   8.009   5.713   3.459 -0.5917 -0.3929  0.6235
43419SOL     OW41980   7.631   7.261   7.770 -0.4848 -0.7705  0.4140
43419SOL    HW141981   7.552   7.213   7.792 -0.8474  0.0414  0.9194
43419SOL    HW241982   7.690   7.245   7.844 -0.3873 -0.8929  0.3120
43420SOL     OW41983   2.962   6.640   3.290  0.1267  0.5016 -0.1583
43420SOL    HW141984   3.022   6.591   3.347 -0.4785 -0.8853 -0.6605
43420SOL    HW241985   2.876   6.600   3.306 -0.1762  0.5732 -1.4848
43421SOL     OW41986   6.663  10.517   3.391 -0.7039  0.2676  0.4498
43421SOL    HW141987   6.756  10.497   3.376 -0.9551  1.0131 -3.1581
43421SOL    HW241988   6.620  10.432   3.392 -0.2024 -0.0111 -0.2927
43422SOL     OW41989   3.174   5.317   3.751  0.4180  0.5504 -0.2036
43422SOL    HW141990   3.224   5.361   3.682  1.2690 -2.1455 -1.4486
43422SOL    HW241991   3.159   5.229   3.718 -2.4459  0.2561  1.5333
43423SOL     OW41992   8.739   4.226   5.271  0.3993 -0.7822  0.0109
43423SOL    HW141993   8.752   4.320   5.259 -2.2295 -0.2675  0.6798
43423SOL    HW241994   8.790   4.187   5.200  2.0803  1.0614  0.0888
43424SOL     OW41995   8.487   0.896   2.858 -0.0676 -0.9625  0.2503
43424SOL    HW141996   8.532   0.969   2.817  0.1155 -1.5526 -0.6291
43424SOL    HW241997   8.448   0.848   2.785 -1.6940 -0.7591  0.9566
43425SOL     OW41998   0.703   6.859   7.350  0.4940  0.5256  0.0611
43425SOL    HW141999   0.624   6.814   7.378  0.8675 -0.5889 -0.5961
43425SOL    HW242000   0.673   6.945   7.319 -0.2611  0.6519  1.1061
43426SOL     OW42001   0.801   3.556   8.004 -0.8195  0.2233 -0.4101
43426SOL    HW142002   0.761   3.637   8.034 -0.7914  0.4236 -0.8973
43426SOL    HW242003   0.894   3.566   8.024 -0.7641  0.4570 -0.7813
43427SOL     OW42004   6.522   9.918   4.434 -0.0196 -0.0816 -0.7734
43427SOL    HW142005   6.584   9.958   4.496 -0.4511 -1.6743  0.7758
43427SOL    HW242006   6.550   9.950   4.349  2.3057  0.1110 -0.0275
43428SOL     OW42007   5.424   4.257   6.470 -0.0273 -0.1470  0.2923
43428SOL    HW142008   5.488   4.245   6.540  1.4121  1.8949 -0.5501
43428SOL    HW242009   5.358   4.315   6.509  1.2551  1.7522 -0.2307
43429SOL     OW42010   5.151  10.146   6.403 -0.1737  0.0521  0.0460
43429SOL    HW142011   5.086  10.076   6.412 -0.2719  0.0349 -0.7049
43429SOL    HW242012   5.233  10.100   6.387 -0.0002  0.0770  0.8661
43430SOL     OW42013   8.752   7.090   8.824  0.0526  0.0734  0.1760
43430SOL    HW142014   8.812   7.069   8.896 -0.9452 -0.2916  0.9372
43430SOL    HW242015   8.727   7.005   8.788 -1.3857  0.0815  1.0578
43431SOL     OW42016   0.347   7.219   6.568  0.1528  0.4001 -0.3897
43431SOL    HW142017   0.291   7.187   6.497 -0.7195  0.4594  0.2517
43431SOL    HW242018   0.300   7.196   6.648  0.3285  1.7705  0.1333
43432SOL     OW42019   7.278   1.547  10.379 -0.2649  0.3232  0.4373
43432SOL    HW142020   7.197   1.546  10.429  0.4158 -1.6427  1.6005
43432SOL    HW242021   7.274   1.469  10.324  1.1113 -0.2274  1.0535
43433SOL     OW42022   2.105   0.557   7.463  0.5097  0.5896 -0.0736
43433SOL    HW142023   2.026   0.552   7.517  1.2243  1.3815  1.1230
43433SOL    HW242024   2.120   0.651   7.453 -0.0154  0.4873 -2.3560
43434SOL     OW42025  11.342   7.855   2.453 -0.5538  0.1607  0.1355
43434SOL    HW142026  11.384   7.934   2.418 -1.0079  0.0476 -0.7012
43434SOL    HW242027  11.389   7.836   2.534  1.0170  0.0209 -0.7762
43435SOL     OW42028   3.798  10.395   9.619 -0.1640  0.0093  0.2609
43435SOL    HW142029   3.793  10.302   9.641  0.0159  0.4558  2.4132
43435SOL    HW242030   3.803  10.397   9.524 -0.3421 -2.1697  0.1576
43436SOL     OW42031   3.619   6.319   7.330  0.1578  0.2326  0.1216
43436SOL    HW142032   3.523   6.327   7.324 -0.0336 -0.9924  1.0505
43436SOL    HW242033   3.637   6.233   7.292  0.7918  0.0947  0.7291
43437SOL     OW42034   5.666   4.488  10.898  0.0611  0.2125  0.4160
43437SOL    HW142035   5.684   4.570  10.852  2.8016  0.8630  2.3362
43437SOL    HW242036   5.737   4.430  10.871 -1.6292 -1.4548 -0.6096
43438SOL     OW42037  11.027   7.196   6.754  0.5150 -0.2261 -0.3310
43438SOL    HW142038  11.062   7.125   6.808  0.1834 -0.8290 -0.9029
43438SOL    HW242039  11.029   7.273   6.812  1.9585 -0.4292 -0.0669
43439SOL     OW42040   8.540   6.271   6.927 -0.2956 -0.0160 -0.3857
43439SOL    HW142041   8.627   6.251   6.964  0.3730 -1.5516 -2.6004
43439SOL    HW242042   8.479   6.247   6.997  0.9778 -1.0045  0.4464
43440SOL     OW42043   1.758   1.535  10.047  0.1035  0.0470  0.5994
43440SOL    HW142044   1.818   1.535  10.122  0.5788 -0.5951  0.2270
43440SOL    HW242045   1.805   1.583   9.979 -0.4832  0.9587  0.8232
43441SOL     OW42046   1.950   8.009   4.394 -0.0031  0.2901 -0.1768
43441SOL    HW142047   1.929   8.042   4.307  2.6111  0.1956 -0.9518
43441SOL    HW242048   1.981   7.919   4.379  0.4653  0.2660  0.8364
43442SOL     OW42049   5.831   5.356   3.998 -0.3930  0.0208  0.4731
43442SOL    HW142050   5.839   5.353   4.093 -1.9061  1.5890  0.6888
43442SOL    HW242051   5.890   5.426   3.971  0.6817 -0.9713  0.1132
43443SOL     OW42052  10.837  11.737  11.929 -0.0667  0.2313 -0.0494
43443SOL    HW142053  10.850  11.829  11.953  0.7105  0.8481 -2.5118
43443SOL    HW242054  10.749  11.716  11.961  0.6124  1.0615  2.5989
43444SOL     OW42055  10.505   0.244   7.798  0.0293  0.0618  0.0888
43444SOL    HW142056  10.486   0.211   7.886  0.5118 -1.3114 -0.3025
43444SOL    HW242057  10.426   0.223   7.748  0.5863 -1.1292 -0.3197
43445SOL     OW42058   2.275   5.901  10.737 -0.1509  0.6635 -0.0951
43445SOL    HW142059   2.333   5.866  10.805  1.7820  3.2522 -0.2708
43445SOL    HW242060   2.193   5.852  10.748  1.2601 -1.5155  1.6959
43446SOL     OW42061   6.157   6.317   7.205  0.2693  0.2441  0.0625
43446SOL    HW142062   6.091   6.368   7.159  0.0060  0.6763  0.9016
43446SOL    HW242063   6.118   6.298   7.290  1.4622  1.0513  0.8158
43447SOL     OW42064   8.772   2.783   1.518 -0.6207  0.8739 -0.0306
43447SOL    HW142065   8.703   2.720   1.538 -0.5279  0.4501 -0.9972
43447SOL    HW242066   8.850   2.747   1.561 -0.1655 -0.6127 -1.9882
43448SOL     OW42067   8.869   3.483   2.608 -0.0050 -0.0954 -0.6676
43448SOL    HW142068   8.917   3.529   2.677 -0.2731  0.0832 -0.5973
43448SOL    HW242069   8.789   3.534   2.597 -0.5754 -0.8554 -0.1914
43449SOL     OW42070   4.464   0.659   7.219 -0.2359  0.0647  0.0107
43449SOL    HW142071   4.541   0.665   7.162  0.6766 -0.2491  1.1697
43449SOL    HW242072   4.454   0.566   7.237  1.8663  0.2977  3.3777
43450SOL     OW42073   9.223  11.761   2.064  0.1280  0.1905 -0.2573
43450SOL    HW142074   9.168  11.836   2.090  3.1299  2.3458  0.4300
43450SOL    HW242075   9.197  11.691   2.123 -0.9605  1.5447  0.9618
43451SOL     OW42076   3.878   1.887   1.448  0.3276  0.4892 -0.0221
43451SOL    HW142077   3.936   1.963   1.444  1.0556 -0.0413  0.1451
43451SOL    HW242078   3.915   1.826   1.384  0.7015 -0.3552  0.9778
43452SOL     OW42079   6.582   8.071   6.706  0.1596 -0.1279 -0.2898
43452SOL    HW142080   6.547   8.032   6.626 -2.8687  1.1221  0.3298
43452SOL    HW242081   6.677   8.063   6.696  0.0121  1.1201 -4.5971
43453SOL     OW42082   1.137   6.321   8.376 -0.2145 -0.0912 -0.0448
43453SOL    HW142083   1.142   6.321   8.281  1.4571 -0.6936  0.0080
43453SOL    HW242084   1.096   6.238   8.398  0.7495 -0.6182 -0.2066
43454SOL     OW42085   3.724   9.341  10.833 -0.1803 -0.2153 -0.1917
43454SOL    HW142086   3.799   9.282  10.841 -1.1312 -1.5674 -0.8558
43454SOL    HW242087   3.693   9.353  10.923  0.7209  0.2329  0.0705
43455SOL     OW42088  10.009  11.850   6.817  0.1201 -0.1198  0.4001
43455SOL    HW142089  10.009  11.945   6.817 -1.2272 -0.0956  0.3642
43455SOL    HW242090  10.067  11.826   6.890 -0.1527  0.7375  0.9186
43456SOL     OW42091   5.503   5.069   4.097  0.3264 -0.0126 -0.1201
43456SOL    HW142092   5.449   5.145   4.117 -0.2565 -0.4223 -0.0797
43456SOL    HW242093   5.478   5.004   4.163  2.2423  0.4058  1.0809
43457SOL     OW42094  10.870   9.440   1.707  0.5297 -0.1693 -0.4850
43457SOL    HW142095  10.902   9.530   1.708  0.3488 -0.1026 -0.6275
43457SOL    HW242096  10.889   9.406   1.794 -0.1950  0.2854 -0.1424
43458SOL     OW42097   4.830   7.375   3.290 -0.4309  0.1104 -0.2053
43458SOL    HW142098   4.918   7.348   3.264 -0.2737  1.2724 -0.9445
43458SOL    HW242099   4.792   7.297   3.331 -0.1368 -1.3675 -2.5499
43459SOL     OW42100  11.856   5.185   7.940  0.0717  0.5530  0.4112
43459SOL    HW142101  11.927   5.194   7.876 -1.6356 -0.3381 -1.7082
43459SOL    HW242102  11.813   5.270   7.940  0.2087  0.6239  0.5714
43460SOL     OW42103  10.427  11.951   8.537 -0.1459 -0.0746 -0.4178
43460SOL    HW142104  10.380  11.871   8.563  0.7473 -0.4151  0.2260
43460SOL    HW242105  10.438  11.942   8.443 -1.0000 -0.1853 -0.5175
43461SOL     OW42106   9.536  10.571  10.819 -0.2272  0.0178  0.1754
43461SOL    HW142107   9.585  10.536  10.894 -0.8971  0.8500  1.0274
43461SOL    HW242108   9.558  10.665  10.818  0.0177 -0.0323 -0.8782
43462SOL     OW42109   8.458   8.678  11.262  0.3044 -0.0022  0.2909
43462SOL    HW142110   8.437   8.765  11.227 -0.2333 -0.6542 -1.0688
43462SOL    HW242111   8.545   8.689  11.302  1.0410  0.7534 -1.4203
43463SOL     OW42112   1.799   3.128   2.035  0.5554  0.4538 -0.0827
43463SOL    HW142113   1.717   3.151   1.993 -0.3697 -2.8850 -0.3877
43463SOL    HW242114   1.847   3.078   1.969  0.8404 -1.4394  1.4555
43464SOL     OW42115   9.339   4.692   6.230  0.3254 -0.1312  0.0383
43464SOL    HW142116   9.288   4.635   6.288  2.3693 -1.1809  0.8927
43464SOL    HW242117   9.348   4.774   6.280 -1.1949  0.4068 -0.4946
43465SOL     OW42118   1.095   7.989   7.659  0.4357  0.0337  0.1060
43465SOL    HW142119   1.182   7.986   7.698  0.9504 -0.8787 -1.0391
43465SOL    HW242120   1.109   8.021   7.570 -0.1412 -1.6281 -0.6330
43466SOL     OW42121   0.918   6.930   8.433 -0.6839 -0.5264 -0.4581
43466SOL    HW142122   0.948   6.979   8.357  3.3479 -1.6017  0.2268
43466SOL    HW242123   0.894   6.844   8.398  0.1491 -0.6761 -0.6892
43467SOL     OW42124  11.327  11.849  11.812  0.3347  0.4438  0.1472
43467SOL    HW142125  11.278  11.919  11.855 -0.5398 -0.4388  0.6115
43467SOL    HW242126  11.410  11.846  11.858 -0.3940 -0.1434  1.4627
43468SOL     OW42127   5.176   8.141   4.779  0.1881  0.6500 -0.5603
43468SOL    HW142128   5.153   8.183   4.861 -0.0153  1.2219 -0.9102
43468SOL    HW242129   5.095   8.101   4.748  0.1745  0.7782 -0.6881
43469SOL     OW42130   5.091   9.670   3.135  0.5490 -0.5859 -0.0804
43469SOL    HW142131   5.136   9.590   3.159  1.9468  0.4700  0.9519
43469SOL    HW242132   5.114   9.733   3.203 -1.4445  0.3863 -0.2249
43470SOL     OW42133   1.313   1.175   7.388 -0.0954 -0.0937 -0.3215
43470SOL    HW142134   1.251   1.149   7.456  0.9613  1.0623  1.1595
43470SOL    HW242135   1.352   1.255   7.421  0.9489  0.1496 -2.0207
43471SOL     OW42136   7.240  11.401   4.322 -0.2968 -0.6037 -0.0515
43471SOL    HW142137   7.257  11.481   4.371  0.1087 -0.7021 -0.0227
43471SOL    HW242138   7.151  11.411   4.289  0.6242  1.0217 -2.2496
43472SOL     OW42139   3.129   7.089  10.126 -0.9836 -0.3595  0.1545
43472SOL    HW142140   3.127   7.136  10.043  1.3050  3.9948  2.2132
43472SOL    HW242141   3.201   7.027  10.117  0.0277  0.9058 -0.7893
43473SOL     OW42142   1.546   0.050  11.633 -0.8582  0.2662  0.0306
43473SOL    HW142143   1.505   0.061  11.547 -1.3411 -0.2571  0.1847
43473SOL    HW242144   1.512   0.122  11.686  0.1829  1.1523 -0.4795
43474SOL     OW42145   1.766   5.622   1.204  0.0359  0.4671  0.8609
43474SOL    HW142146   1.860   5.622   1.223  0.2857 -0.6590 -0.2633
43474SOL    HW242147   1.740   5.714   1.211  1.6440  1.0914 -0.7962
43475SOL     OW42148   6.272   0.845   9.282  0.3079  0.0413 -0.4651
43475SOL    HW142149   6.302   0.770   9.334 -0.4987 -0.1929 -0.3203
43475SOL    HW242150   6.230   0.805   9.206 -0.3056  0.3365 -0.2889
43476SOL     OW42151   8.360   2.364  10.441 -0.2135 -0.3716 -0.3188
43476SOL    HW142152   8.293   2.412  10.392 -0.8255  1.7160  2.3059
43476SOL    HW242153   8.443   2.401  10.411 -0.6294  1.6749  0.9067
43477SOL     OW42154   5.109   0.099  10.930  0.0658 -0.2966  0.0811
43477SOL    HW142155   5.144   0.187  10.914 -0.8954  0.1442  0.3401
43477SOL    HW242156   5.015   0.108  10.916  0.2461 -1.9973 -3.0258
43478SOL     OW42157  10.438   6.699   9.199 -0.1205  0.2985  0.1817
43478SOL    HW142158  10.359   6.658   9.163  0.1980  0.0338 -0.2240
43478SOL    HW242159  10.477   6.630   9.253  1.0457 -0.3674 -1.4318
43479SOL     OW42160   6.384   8.627   5.331 -0.4175  1.1193 -0.6045
43479SOL    HW142161   6.326   8.574   5.277  0.1101 -1.7622  1.4745
43479SOL    HW242162   6.348   8.621   5.419  0.9165  2.4824  0.0826
43480SOL     OW42163   2.642   5.471   9.929 -0.3323  0.4949 -0.2804
43480SOL    HW142164   2.567   5.420   9.960 -0.5699  1.7440  1.3312
43480SOL    HW242165   2.652   5.446   9.837 -1.5098 -1.1237 -0.0046
43481SOL     OW42166   2.345  10.934   5.592  0.1475 -0.5485  0.0704
43481SOL    HW142167   2.435  10.912   5.614  0.2426 -0.2982 -0.0564
43481SOL    HW242168   2.295  10.856   5.614  0.0959 -0.0246  2.0021
43482SOL     OW42169   5.338   6.766   5.360  0.1295  0.8155  0.2344
43482SOL    HW142170   5.401   6.832   5.332  1.6880 -1.7155 -2.8833
43482SOL    HW242171   5.260   6.782   5.307  0.0016  0.9731  0.4705
43483SOL     OW42172   6.257   7.202   6.956 -0.1867  0.7174 -0.3070
43483SOL    HW142173   6.207   7.124   6.932 -1.5612  1.6926 -0.7269
43483SOL    HW242174   6.249   7.207   7.052 -0.3096  0.5027 -0.3063
43484SOL     OW42175  11.608  10.769   6.318  0.0584 -0.0625 -0.6522
43484SOL    HW142176  11.638  10.831   6.251  0.8198  0.9395  0.5714
43484SOL    HW242177  11.646  10.686   6.292  0.1339  0.2581 -1.6061
43485SOL     OW42178   3.397   1.700   9.627 -1.0200 -0.1278 -0.2408
43485SOL    HW142179   3.394   1.605   9.639 -0.1183 -0.0153  1.1603
43485SOL    HW242180   3.487   1.718   9.600  0.1337  0.6254  3.4589
43486SOL     OW42181   2.046   9.805   1.979  0.4058  0.0747 -0.1994
43486SOL    HW142182   2.000   9.769   1.904 -1.4000 -0.9613  1.2969
43486SOL    HW242183   1.976   9.843   2.034  1.5858  0.3862  1.1590
43487SOL     OW42184   9.145   5.164   9.037  0.8682  0.5194 -0.3656
43487SOL    HW142185   9.236   5.142   9.022  0.5773 -0.7349 -0.4099
43487SOL    HW242186   9.123   5.228   8.969  1.5064  0.2628 -0.8183
43488SOL     OW42187   3.466  11.384   8.456  0.9018  0.1747  0.4282
43488SOL    HW142188   3.516  11.454   8.498  0.3452  2.4122 -2.2715
43488SOL    HW242189   3.494  11.387   8.364  0.5072 -2.9237  0.0975
43489SOL     OW42190  10.591   3.852   5.690  0.4427 -0.4887  0.0776
43489SOL    HW142191  10.680   3.823   5.712  0.1395 -1.0526  0.5905
43489SOL    HW242192  10.574   3.925   5.750 -0.4823 -2.1905  2.0366
43490SOL     OW42193   6.003   9.844   3.529  0.6188 -0.3012  0.3395
43490SOL    HW142194   6.048   9.785   3.468  0.8166 -0.1673  0.3539
43490SOL    HW242195   5.915   9.854   3.493  1.1323  0.8658 -0.6852
43491SOL     OW42196   8.148  10.451   7.984  0.0076  0.5216 -0.0602
43491SOL    HW142197   8.223  10.449   8.043 -0.0651 -0.5917  0.0099
43491SOL    HW242198   8.150  10.539   7.947  1.7362  0.3282 -0.5460
43492SOL     OW42199   9.682   1.732   0.755  0.4365  0.0789  0.0253
43492SOL    HW142200   9.726   1.654   0.789 -1.1177 -0.8226  0.0618
43492SOL    HW242201   9.608   1.745   0.814  0.1054  1.0009 -0.5699
43493SOL     OW42202   0.671   2.277   4.356 -0.0150  0.0830 -0.2512
43493SOL    HW142203   0.695   2.338   4.285  0.7352  0.7474  0.5493
43493SOL    HW242204   0.576   2.279   4.357 -0.0085  1.4074 -0.1289
43494SOL     OW42205   6.465   1.397   4.421 -0.1726 -0.0829  0.2934
43494SOL    HW142206   6.458   1.401   4.517  0.7395 -1.3637  0.4374
43494SOL    HW242207   6.417   1.318   4.397  0.4113 -0.2892 -0.2112
43495SOL     OW42208   7.852  10.073   5.874 -0.0892 -0.2660  0.6836
43495SOL    HW142209   7.829  10.147   5.930 -0.0027  0.5771 -0.3644
43495SOL    HW242210   7.796  10.082   5.797  1.9805  0.4917 -0.8465
43496SOL     OW42211   4.289   4.531   0.453 -0.1314  0.0381 -0.2468
43496SOL    HW142212   4.293   4.532   0.357  1.4099 -0.8797 -0.2157
43496SOL    HW242213   4.357   4.592   0.480  0.3417 -0.7074  0.2684
43497SOL     OW42214   9.351   0.348   3.493 -0.2242 -0.1634 -0.0793
43497SOL    HW142215   9.335   0.396   3.574 -0.2888  0.7300 -0.6081
43497SOL    HW242216   9.407   0.406   3.441  0.5182 -1.0782 -0.3461
43498SOL     OW42217   7.299   7.437   6.100  0.1712  0.9221 -0.3076
43498SOL    HW142218   7.343   7.514   6.063  0.2961 -0.5642 -3.6394
43498SOL    HW242219   7.338   7.363   6.053  0.2749 -1.2930  2.9500
43499SOL     OW42220   1.290  11.617  11.334  0.5250 -0.1332 -0.1261
43499SOL    HW142221   1.223  11.677  11.302  0.4275  0.2624  0.8109
43499SOL    HW242222   1.244  11.535  11.349  0.2880  0.0777  0.3148
43500SOL     OW42223   6.852  11.180   4.095 -0.3224 -0.0094 -0.7865
43500SOL    HW142224   6.852  11.157   4.187  1.2775  1.6101 -0.3195
43500SOL    HW242225   6.883  11.101   4.050 -0.8065 -0.6995  0.0807
43501SOL     OW42226   3.036   7.351   2.036  0.0764 -0.5491 -0.5231
43501SOL    HW142227   2.986   7.281   2.079  0.5285  0.4307  1.7506
43501SOL    HW242228   2.972   7.421   2.022  0.1997 -0.3554 -0.1533
43502SOL     OW42229   4.887   4.111   3.050 -0.2899 -0.7368 -0.5145
43502SOL    HW142230   4.903   4.033   2.997 -1.4547 -1.6576  0.4137
43502SOL    HW242231   4.801   4.095   3.089 -0.3604  0.8392  0.0213
43503SOL     OW42232   0.038   9.991  10.828 -0.7785 -0.1491  0.4365
43503SOL    HW142233   0.063  10.051  10.898 -0.2764 -0.1704  0.2749
43503SOL    HW242234   0.090   9.912  10.843  0.3522  0.3394 -0.7382
43504SOL     OW42235   1.615   4.416   3.210 -0.1795  0.2860  0.0793
43504SOL    HW142236   1.610   4.509   3.234 -2.8906  0.6422 -1.4627
43504SOL    HW242237   1.622   4.370   3.294 -2.3476  1.7527  1.1554
43505SOL     OW42238   3.606   8.667  10.644 -0.0376 -0.0659  0.4714
43505SOL    HW142239   3.694   8.637  10.620 -0.0910  0.4135 -0.3745
43505SOL    HW242240   3.620   8.729  10.716  0.5009  1.3128 -0.7712
43506SOL     OW42241   9.377   2.941   3.265  0.3429  0.0899  0.0408
43506SOL    HW142242   9.334   2.857   3.246  0.7311 -0.8989  3.0536
43506SOL    HW242243   9.452   2.943   3.205 -0.5693 -0.9291 -1.1947
43507SOL     OW42244   6.889   6.086   1.064  0.2103  0.4567 -0.4742
43507SOL    HW142245   6.962   6.039   1.022  0.5418  1.0990 -0.6360
43507SOL    HW242246   6.930   6.134   1.136 -0.1640  0.3129 -0.1608
43508SOL     OW42247  11.856   9.117   7.593 -0.5927 -0.6722  0.8566
43508SOL    HW142248  11.873   9.198   7.641 -1.1636 -0.7010  1.1109
43508SOL    HW242249  11.935   9.103   7.540  0.1494 -0.7645  1.9597
43509SOL     OW42250   8.892   4.472  10.764 -0.0922 -0.0394  0.4734
43509SOL    HW142251   8.929   4.488  10.677 -0.2854  0.6489  0.5162
43509SOL    HW242252   8.925   4.544  10.818  0.3979 -0.7000  1.0934
43510SOL     OW42253   7.327   9.178   9.798 -0.4089 -0.2974  0.1825
43510SOL    HW142254   7.260   9.122   9.759  0.7504 -2.1285  0.7020
43510SOL    HW242255   7.403   9.169   9.741 -0.0042  0.2636  0.6188
43511SOL     OW42256  10.696   9.072   6.411  0.2625  0.1368 -0.9120
43511SOL    HW142257  10.735   9.034   6.489  1.1757 -0.8415 -1.8186
43511SOL    HW242258  10.711   9.166   6.420 -0.9264  0.2041  0.7628
43512SOL     OW42259   4.394   2.603   4.125  0.2052  0.0729 -0.3457
43512SOL    HW142260   4.353   2.626   4.042 -1.3719  1.2635  0.6914
43512SOL    HW242261   4.327   2.622   4.191  0.9996 -1.9028  1.1275
43513SOL     OW42262  11.858   5.898   8.196  0.2021  0.0531  0.6869
43513SOL    HW142263  11.912   5.828   8.160  0.7733 -0.3558  2.2467
43513SOL    HW242264  11.807   5.856   8.265 -1.2772  0.6867  0.0170
43514SOL     OW42265   2.199   3.249   5.775  0.2052  0.0964 -0.0854
43514SOL    HW142266   2.286   3.239   5.737  0.0515 -1.2479 -0.1293
43514SOL    HW242267   2.198   3.190   5.850 -1.5838 -2.2524 -1.7667
43515SOL     OW42268   4.505   0.117   0.674 -0.5404 -0.9807 -0.5252
43515SOL    HW142269   4.581   0.159   0.633 -1.0697 -1.0480 -1.6313
43515SOL    HW242270   4.520   0.126   0.768  0.6579 -0.6832 -0.7289
43516SOL     OW42271   4.431   9.555  11.950 -0.4168 -0.2924 -0.5121
43516SOL    HW142272   4.471   9.486  12.005  1.5810  1.8332  0.9193
43516SOL    HW242273   4.498   9.574  11.884 -1.4049 -0.4633 -1.5789
43517SOL     OW42274   1.645  11.028   9.666  0.0176 -0.3673  0.0811
43517SOL    HW142275   1.669  11.106   9.716 -0.7472  1.5668 -2.3526
43517SOL    HW242276   1.574  10.988   9.718  1.0549 -0.0355  1.8450
43518SOL     OW42277   6.149   0.417   4.183  0.3023  0.4818 -0.6437
43518SOL    HW142278   6.198   0.365   4.119 -1.2772 -1.9038 -0.0313
43518SOL    HW242279   6.217   0.462   4.234  1.7883 -1.3429 -0.9214
43519SOL     OW42280   1.466  11.410  11.030  0.1894  0.2202 -0.6765
43519SOL    HW142281   1.433  11.500  11.023 -0.0358  0.3436  1.3852
43519SOL    HW242282   1.393  11.355  10.999 -1.4758  0.5780  2.2694
43520SOL     OW42283   2.123   9.453   1.696 -0.5864 -0.0180  0.0924
43520SOL    HW142284   2.135   9.449   1.791 -0.4739  0.2929  0.0936
43520SOL    HW242285   2.034   9.486   1.685  0.5244  3.4489  0.1366
43521SOL     OW42286   6.361   8.348   5.003  0.5664  0.2088 -0.2751
43521SOL    HW142287   6.314   8.415   4.954  0.0978  0.9159  1.0730
43521SOL    HW242288   6.346   8.371   5.095  3.2476  0.2675  0.2340
43522SOL     OW42289   6.427   7.333   2.332 -0.1132 -0.1877 -0.6174
43522SOL    HW142290   6.512   7.339   2.376 -0.4875 -0.8296  0.2073
43522SOL    HW242291   6.426   7.409   2.273  0.7826  0.1648 -0.2011
43523SOL     OW42292   5.852   6.404   8.130 -0.3584  0.9191  0.2288
43523SOL    HW142293   5.888   6.377   8.214 -1.8545 -2.9876 -0.1775
43523SOL    HW242294   5.921   6.385   8.067 -0.7605 -0.5097  0.1668
43524SOL     OW42295  10.869  10.179   7.364  0.2546 -0.2209  0.7093
43524SOL    HW142296  10.777  10.202   7.360  0.5612  0.8344 -1.2848
43524SOL    HW242297  10.871  10.084   7.349 -0.4139  0.0534 -1.3822
43525SOL     OW42298   5.523   9.581   6.801 -0.3663  0.2640 -0.1886
43525SOL    HW142299   5.495   9.664   6.841 -0.8646 -0.3441  0.7577
43525SOL    HW242300   5.612   9.598   6.772 -0.5926  1.2529 -0.3564
43526SOL     OW42301   7.784   7.021   0.277  0.6740 -0.0237  0.5517
43526SOL    HW142302   7.849   7.061   0.218 -0.8866  2.4731  0.3715
43526SOL    HW242303   7.782   7.080   0.352 -1.1523 -0.2218  0.6852
43527SOL     OW42304   5.603   6.826   2.985  0.0811 -0.2178  0.6536
43527SOL    HW142305   5.550   6.794   3.058 -0.4312  1.8282  1.2471
43527SOL    HW242306   5.586   6.764   2.914 -0.5542 -1.4351  1.8154
43528SOL     OW42307  10.111   2.212   3.481  0.2809  0.2120  0.1233
43528SOL    HW142308  10.176   2.213   3.411  0.1048 -0.4241 -0.0593
43528SOL    HW242309  10.027   2.223   3.437  0.2066  0.2835  0.2813
43529SOL     OW42310   2.144  11.426   7.719  0.2643 -0.1398  0.0576
43529SOL    HW142311   2.130  11.459   7.630 -1.0840 -0.9051 -0.0418
43529SOL    HW242312   2.161  11.332   7.708  2.3718  0.1428  0.4663
43530SOL     OW42313   7.628   2.177   3.562 -0.3251 -0.2459  0.3667
43530SOL    HW142314   7.562   2.235   3.525 -0.7449  0.3079  1.8818
43530SOL    HW242315   7.697   2.236   3.594 -0.6271 -0.5522  1.6730
43531SOL     OW42316   4.058   4.347   7.898 -0.1478 -0.3918  0.3780
43531SOL    HW142317   4.065   4.315   7.808 -0.8673  1.7532 -0.5100
43531SOL    HW242318   3.965   4.338   7.919 -0.6577  2.1019 -0.3889
43532SOL     OW42319   5.347   3.535   9.086  0.0679  0.0982 -0.5052
43532SOL    HW142320   5.312   3.618   9.053  0.8990 -0.1813 -2.1805
43532SOL    HW242321   5.304   3.468   9.032 -0.6011 -0.5827  0.8294
43533SOL     OW42322   7.662   1.178   8.471 -0.2020  0.2545 -0.7622
43533SOL    HW142323   7.635   1.169   8.562 -0.7642 -1.0581 -1.0431
43533SOL    HW242324   7.669   1.273   8.458 -1.1826  0.5004  0.3275
43534SOL     OW42325  11.091   8.757  10.188  0.1864  0.4594 -0.4190
43534SOL    HW142326  11.041   8.732  10.111  0.9836 -0.5096 -0.6419
43534SOL    HW242327  11.108   8.675  10.234 -0.9915  1.0995  1.2568
43535SOL     OW42328   8.989   4.262   6.341  0.0929 -0.3186  0.1761
43535SOL    HW142329   9.025   4.177   6.318  1.7616  0.3250  0.2172
43535SOL    HW242330   9.002   4.269   6.436 -0.2734 -0.1310  0.2138
43536SOL     OW42331  10.021   9.904   6.013 -0.3357 -0.0689  0.2955
43536SOL    HW142332  10.084   9.944   5.953 -1.3532  3.2173  1.2431
43536SOL    HW242333  10.075   9.852   6.072  1.3068  1.2411  0.0217
43537SOL     OW42334   1.835  10.760   5.640 -0.1924 -0.1234 -0.5291
43537SOL    HW142335   1.862  10.686   5.694  0.2526  0.7609  0.4978
43537SOL    HW242336   1.813  10.829   5.703 -1.0746  0.4599 -1.4515
43538SOL     OW42337   0.790   2.907   3.505  0.2081  0.3376 -0.0300
43538SOL    HW142338   0.790   2.984   3.448  0.7708 -0.2438 -0.8203
43538SOL    HW242339   0.818   2.835   3.450 -0.3280 -0.4591  0.7007
43539SOL     OW42340   6.719  10.435   4.466 -0.0254  0.0618 -0.5800
43539SOL    HW142341   6.809  10.466   4.477 -0.7106  1.9773  0.0119
43539SOL    HW242342   6.690  10.414   4.555 -0.5180  0.5775 -0.6103
43540SOL     OW42343   4.187   1.402   1.891 -0.2156  0.2753  0.4973
43540SOL    HW142344   4.206   1.492   1.865  1.3089 -0.2456 -0.2777
43540SOL    HW242345   4.094   1.392   1.872  0.0408  1.0396 -1.4512
43541SOL     OW42346   7.021   6.331   6.716 -0.5815  0.1769 -0.2754
43541SOL    HW142347   7.107   6.290   6.728 -0.8280  0.1761  1.9345
43541SOL    HW242348   6.964   6.259   6.688 -0.3390 -0.3405  0.5137
43542SOL     OW42349   3.213   0.214   9.384  0.6315 -0.3240  0.0309
43542SOL    HW142350   3.192   0.291   9.436  1.2954 -1.1853  1.6155
43542SOL    HW242351   3.308   0.217   9.372  0.5512 -0.4052 -0.7250
43543SOL     OW42352   3.451   8.631   6.875  0.0870  0.3942 -0.8893
43543SOL    HW142353   3.474   8.723   6.865 -0.6358  0.6485 -0.3695
43543SOL    HW242354   3.442   8.598   6.786 -1.7330  1.3916 -1.1186
43544SOL     OW42355   0.568  11.840  10.606 -0.3427 -0.1695  0.4508
43544SOL    HW142356   0.474  11.840  10.590 -0.3465 -0.9416  0.4145
43544SOL    HW242357   0.583  11.915  10.663 -0.5706  1.7195 -1.7992
43545SOL     OW42358   8.816   2.417   5.675 -0.1340 -0.0828 -0.3536
43545SOL    HW142359   8.731   2.395   5.636 -0.4541 -1.3192  0.9698
43545SOL    HW242360   8.880   2.378   5.616 -0.5232 -0.1948 -0.7101
43546SOL     OW42361   4.953  10.629   1.790  0.2165 -0.1113  0.0217
43546SOL    HW142362   5.011  10.586   1.727  2.2061  0.0193  1.6557
43546SOL    HW242363   4.884  10.565   1.806  1.5200 -1.5302  0.1929
43547SOL     OW42364   9.907   5.685   0.698  0.1079 -0.1344 -0.5925
43547SOL    HW142365   9.908   5.698   0.793  2.9379  0.5765 -0.6236
43547SOL    HW242366   9.830   5.734   0.668 -0.2172  0.5536  1.2279
43548SOL     OW42367   5.343   0.476   9.645 -0.3526  0.2778 -0.6934
43548SOL    HW142368   5.364   0.432   9.562 -0.4956 -0.6950 -0.2306
43548SOL    HW242369   5.379   0.564   9.635  0.5153 -0.1370 -1.4010
43549SOL     OW42370   4.510  10.739   3.341  0.6810  0.2896  0.1640
43549SOL    HW142371   4.501  10.646   3.321 -0.7686 -0.0794  2.2588
43549SOL    HW242372   4.421  10.774   3.335  0.4310  0.5554  3.5890
43550SOL     OW42373   0.558   2.806   6.398  0.2741  0.2156  0.0608
43550SOL    HW142374   0.642   2.783   6.439  0.3234  0.7992  0.2917
43550SOL    HW242375   0.580   2.825   6.307  1.1160  4.2373  0.9054
43551SOL     OW42376  11.505   6.141   0.667  0.4157  0.6419 -0.2702
43551SOL    HW142377  11.546   6.064   0.627 -0.1686 -0.4413  1.1135
43551SOL    HW242378  11.413   6.136   0.639  0.6730  1.6879 -1.3712
43552SOL     OW42379   3.730   7.477   0.975  0.0513 -0.0732  0.0076
43552SOL    HW142380   3.712   7.492   0.883  2.7931 -2.5166 -1.0551
43552SOL    HW242381   3.691   7.552   1.019 -1.0114  1.3875 -3.1414
43553SOL     OW42382  10.232   3.952   0.718  0.7872 -0.3151 -0.0029
43553SOL    HW142383  10.307   3.924   0.666  1.6745 -0.5733  1.3603
43553SOL    HW242384  10.265   3.956   0.808 -0.6233  0.3546  0.5190
43554SOL     OW42385  11.081   6.542   8.082  0.0160  0.0629 -0.2376
43554SOL    HW142386  11.110   6.572   8.168 -1.2185 -0.2046  0.3009
43554SOL    HW242387  11.051   6.621   8.037  1.2115  0.2882 -0.6638
43555SOL     OW42388   9.641   8.933   6.822  0.8993 -0.1347 -0.5906
43555SOL    HW142389   9.574   8.994   6.793  1.0743 -0.1353 -0.9961
43555SOL    HW242390   9.657   8.957   6.914  0.4297 -0.0658 -0.5252
43556SOL     OW42391   2.423  11.453  11.149 -0.0235 -0.0401  0.0006
43556SOL    HW142392   2.330  11.454  11.125  0.0892 -1.7581 -0.6258
43556SOL    HW242393   2.470  11.471  11.068  0.2427 -2.2038 -0.3925
43557SOL     OW42394   2.662   4.446   7.024 -0.4893  0.5533 -0.2253
43557SOL    HW142395   2.718   4.393   7.081  0.0793 -0.4858 -1.6831
43557SOL    HW242396   2.684   4.537   7.047 -0.3498  0.1724  1.2425
43558SOL     OW42397   2.509   3.443   6.016  0.7800  0.1140 -0.2533
43558SOL    HW142398   2.482   3.522   5.969 -0.3897  0.3617  0.7647
43558SOL    HW242399   2.479   3.458   6.106  0.8432 -1.3364  0.0322
43559SOL     OW42400   8.092   2.227   2.162  0.0448  0.8164  0.1571
43559SOL    HW142401   8.084   2.180   2.078  0.0671 -0.0184  0.6055
43559SOL    HW242402   8.034   2.302   2.153 -0.5298  0.3279 -0.3378
43560SOL     OW42403   6.476   2.134   4.843  0.1347 -0.3276 -0.2824
43560SOL    HW142404   6.493   2.040   4.836 -1.0293 -0.5478 -0.3004
43560SOL    HW242405   6.399   2.140   4.899  0.8140  0.6846  0.5891
43561SOL     OW42406   8.592   0.190   3.978 -0.0474  0.7904  0.1660
43561SOL    HW142407   8.678   0.231   3.985  0.1954  0.4175 -0.5850
43561SOL    HW242408   8.584   0.166   3.886  0.4167 -2.0558  0.7659
43562SOL     OW42409   6.326   4.599   4.673 -0.1993 -0.1237  0.5206
43562SOL    HW142410   6.319   4.662   4.744 -0.5858 -1.5373  1.7764
43562SOL    HW242411   6.420   4.578   4.669 -0.0588  0.5440  0.0543
43563SOL     OW42412   0.375   6.981   8.469 -0.8995  0.3642 -0.3196
43563SOL    HW142413   0.458   7.028   8.470  0.7571 -2.3352 -0.6735
43563SOL    HW242414   0.340   6.992   8.557  0.9658 -0.2392  0.5532
43564SOL     OW42415   9.179  10.470   0.013 -0.2968 -0.2056  0.1530
43564SOL    HW142416   9.243  10.400   0.026  1.4458  1.5201  1.6258
43564SOL    HW242417   9.110  10.453   0.077 -0.5292 -1.2034 -0.3438
43565SOL     OW42418   3.230   4.193   4.712  0.5988  0.0404 -0.0388
43565SOL    HW142419   3.180   4.269   4.684 -2.3477 -1.8821 -0.4742
43565SOL    HW242420   3.218   4.189   4.807  1.6609  0.6581  0.1388
43566SOL     OW42421   1.980   9.555   8.887 -0.6871  0.3871 -0.3940
43566SOL    HW142422   1.903   9.585   8.840 -1.1341 -0.3685 -0.1522
43566SOL    HW242423   1.954   9.557   8.980 -0.6577 -0.5123 -0.3555
43567SOL     OW42424   3.635   0.405   9.437 -0.4041  0.2427 -0.2887
43567SOL    HW142425   3.576   0.344   9.394  1.4916 -1.2996 -0.8757
43567SOL    HW242426   3.687   0.442   9.365  0.1327  0.6485  0.2959
43568SOL     OW42427   2.982   9.063   2.369 -0.9192 -0.3274  0.2190
43568SOL    HW142428   2.947   8.987   2.323 -1.2502 -0.3741  0.5383
43568SOL    HW242429   3.070   9.036   2.396 -1.0761 -0.6422  0.4255
43569SOL     OW42430   3.316   8.709   1.454  0.3452  0.3075  0.0951
43569SOL    HW142431   3.237   8.656   1.469 -0.2289  0.7983 -1.0544
43569SOL    HW242432   3.292   8.767   1.382  1.6734  0.6737 -0.0719
43570SOL     OW42433   3.180  10.006   8.084  0.3794 -0.1866  0.2849
43570SOL    HW142434   3.227   9.924   8.071  0.5611  0.0980 -1.0266
43570SOL    HW242435   3.145  10.027   7.998 -0.5960  0.5565  0.8461
43571SOL     OW42436   4.595   1.678   3.940 -0.1250 -0.3795  0.3716
43571SOL    HW142437   4.511   1.657   3.899 -0.1567 -0.6133  0.5510
43571SOL    HW242438   4.597   1.624   4.019  0.2043 -0.3933  0.3552
43572SOL     OW42439   8.828   7.211   2.828 -0.1083  0.2131  0.1480
43572SOL    HW142440   8.755   7.148   2.825  0.4940 -0.5749  1.2423
43572SOL    HW242441   8.890   7.178   2.763  0.7373 -1.0690  1.5246
43573SOL     OW42442   4.907   5.219   2.292 -0.0086 -0.3178  0.0204
43573SOL    HW142443   4.991   5.204   2.248  0.2465  0.9644  0.0445
43573SOL    HW242444   4.846   5.237   2.221  0.7469  3.4648  0.1101
43574SOL     OW42445   0.864   6.290   4.509  0.2460  0.4958 -0.2647
43574SOL    HW142446   0.829   6.250   4.588  1.2160 -0.9065 -0.4956
43574SOL    HW242447   0.929   6.227   4.478  0.8627  1.6596 -1.4198
43575SOL     OW42448   7.481   4.519   6.899 -0.1231 -0.0033  0.5512
43575SOL    HW142449   7.395   4.498   6.862  0.7063 -0.8073 -1.0179
43575SOL    HW242450   7.462   4.573   6.975 -2.0032  0.1859 -0.0099
43576SOL     OW42451   3.393   9.054   1.362  0.6835  0.5845 -0.6085
43576SOL    HW142452   3.297   9.049   1.359  0.6456 -2.0448  1.6103
43576SOL    HW242453   3.422   9.001   1.287  0.2771 -2.3887  1.1875
43577SOL     OW42454   7.070   1.340   4.031 -0.1378  0.1406  0.3891
43577SOL    HW142455   7.114   1.288   3.964 -1.8780  0.7589 -1.3436
43577SOL    HW242456   7.095   1.430   4.012 -0.8290  0.3418  0.3929
43578SOL     OW42457   6.278   1.817   5.551 -0.5103  0.5988 -0.0237
43578SOL    HW142458   6.337   1.882   5.590 -0.7384  1.0565 -0.4215
43578SOL    HW242459   6.328   1.778   5.480  0.5193 -1.4527  1.7344
43579SOL     OW42460   2.421   3.394   9.834  0.1024  0.1030 -0.2338
43579SOL    HW142461   2.336   3.398   9.879 -0.8268  2.4962 -1.9769
43579SOL    HW242462   2.400   3.356   9.748  1.0214 -0.3365 -0.2715
43580SOL     OW42463   2.190  11.342   3.120  0.0206  0.8429  0.3165
43580SOL    HW142464   2.276  11.369   3.151 -0.0804 -0.2069  1.5937
43580SOL    HW242465   2.187  11.248   3.135 -1.2694  0.8254  0.0803
43581SOL     OW42466   2.781   9.143   8.546 -0.4256 -0.0053  0.3570
43581SOL    HW142467   2.842   9.095   8.490 -0.6158  0.5920 -0.3821
43581SOL    HW242468   2.729   9.196   8.485  0.1854  1.6062  1.1677
43582SOL     OW42469   5.568   7.356   2.092  0.0201 -0.2772 -0.1279
43582SOL    HW142470   5.579   7.269   2.130 -0.9973 -1.2099 -1.8222
43582SOL    HW242471   5.655   7.381   2.063  0.0934 -1.4345 -0.9913
43583SOL     OW42472   2.796   5.776   0.812  0.2310 -0.3243 -0.0430
43583SOL    HW142473   2.791   5.804   0.721 -0.0440 -0.4095 -0.0536
43583SOL    HW242474   2.783   5.856   0.862  1.2298 -0.1223 -0.0737
43584SOL     OW42475  10.780   4.608   7.766 -0.5004  0.8774  0.0979
43584SOL    HW142476  10.820   4.635   7.684  2.0163 -1.6841  0.3370
43584SOL    HW242477  10.713   4.544   7.740 -0.1520  0.5539 -0.0152
43585SOL     OW42478   2.899   0.951   5.008  0.4202  0.0919  0.6485
43585SOL    HW142479   2.950   0.897   5.067  0.2065 -0.7588  0.0772
43585SOL    HW242480   2.961   1.013   4.971  0.3537  1.3950  2.5841
43586SOL     OW42481   4.635   1.571   5.048 -0.6378  0.2417  0.2350
43586SOL    HW142482   4.640   1.620   5.130 -1.0848 -0.3818  0.6415
43586SOL    HW242483   4.686   1.491   5.064  0.7847  0.9053 -0.6944
43587SOL     OW42484   3.572  11.509   1.636 -0.4435 -0.0140 -0.2879
43587SOL    HW142485   3.531  11.584   1.680 -0.4070 -0.3817  0.3742
43587SOL    HW242486   3.503  11.475   1.579 -0.1811  1.0781 -1.3104
43588SOL     OW42487   5.112   5.390  10.794  0.4613  0.1032  0.5406
43588SOL    HW142488   5.039   5.334  10.769  1.1455 -1.0693  1.0459
43588SOL    HW242489   5.072   5.472  10.822 -0.5445  0.0358 -0.6194
43589SOL     OW42490   3.156   5.101  11.909 -0.3181 -0.4930  0.1608
43589SOL    HW142491   3.061   5.116  11.906  0.0453  2.3258  0.2914
43589SOL    HW242492   3.189   5.140  11.829  0.8105 -0.8821  0.4211
43590SOL     OW42493   3.062  10.897  10.417 -0.2515  0.7973 -0.1587
43590SOL    HW142494   3.059  10.987  10.448 -0.4047  1.5705 -2.2844
43590SOL    HW242495   2.975  10.862  10.439 -0.1482  1.1001  0.7884
43591SOL     OW42496   5.483   7.290   0.488  0.1442 -0.0145 -0.3513
43591SOL    HW142497   5.411   7.229   0.474  0.1306 -0.1616  0.3129
43591SOL    HW242498   5.551   7.261   0.428 -0.0604 -0.3665 -0.4166
43592SOL     OW42499   4.998  10.806   7.859 -0.0555 -0.3124 -1.1190
43592SOL    HW142500   4.952  10.734   7.902 -1.0544  0.4970 -0.7930
43592SOL    HW242501   4.981  10.793   7.766 -3.0032  1.2479 -0.9084
43593SOL     OW42502   6.175   4.168   7.447  0.3345 -0.0101  0.0377
43593SOL    HW142503   6.237   4.114   7.399 -0.1801  0.3162 -1.0129
43593SOL    HW242504   6.100   4.111   7.463  0.7319 -0.2931  0.9883
43594SOL     OW42505   1.271   2.755   4.861 -0.7292 -0.0193  0.2722
43594SOL    HW142506   1.358   2.790   4.881 -0.1149 -3.0546  4.1534
43594SOL    HW242507   1.211   2.809   4.913 -0.7589  0.0726  0.1427
43595SOL     OW42508  11.234   8.230   6.284 -0.4055 -0.2754  0.4543
43595SOL    HW142509  11.266   8.298   6.225  0.8205  1.2130  2.6450
43595SOL    HW242510  11.140   8.226   6.267 -0.2732  0.9491 -0.7475
43596SOL     OW42511   1.281   3.237   0.329  0.2281 -0.4452  0.5634
43596SOL    HW142512   1.252   3.165   0.384  0.1409 -0.0455  1.0412
43596SOL    HW242513   1.230   3.313   0.358 -0.2596 -0.3510 -0.4631
43597SOL     OW42514  11.343   8.174   3.093  0.1209  0.2278 -0.4554
43597SOL    HW142515  11.340   8.105   3.026 -0.6319  0.6285 -0.8486
43597SOL    HW242516  11.424   8.158   3.140  0.0243 -0.8477 -0.6277
43598SOL     OW42517  11.048   1.131   7.852 -0.3078  0.0963  0.5999
43598SOL    HW142518  11.137   1.157   7.872  0.8596 -0.5515 -3.0263
43598SOL    HW242519  11.052   1.036   7.841 -1.6703 -0.0690  1.2735
43599SOL     OW42520   1.314   3.014  10.072  0.2249 -0.2140 -0.3459
43599SOL    HW142521   1.319   3.028   9.977  2.4567 -0.0062 -0.2649
43599SOL    HW242522   1.288   3.099  10.107 -0.4401 -0.2443 -0.7592
43600SOL     OW42523   5.676   3.437   5.004  0.1628 -0.0383 -0.1254
43600SOL    HW142524   5.625   3.359   4.982  0.5054 -0.8992  1.9061
43600SOL    HW242525   5.767   3.414   4.983 -0.1404  1.5143 -3.7997
43601SOL     OW42526   2.935   3.346   8.494  0.0086 -0.4948 -0.2250
43601SOL    HW142527   2.892   3.265   8.521 -0.4421 -0.0889  0.2920
43601SOL    HW242528   2.863   3.406   8.478  0.3786  0.3262  1.0481
43602SOL     OW42529   0.475   4.703   8.152  0.3729  0.4936 -0.0181
43602SOL    HW142530   0.450   4.696   8.244  0.1280 -2.4867 -0.1996
43602SOL    HW242531   0.555   4.755   8.152 -0.6980  2.2590  1.6090
43603SOL     OW42532   1.193   8.509  11.677 -0.0979  0.0757 -0.7276
43603SOL    HW142533   1.117   8.483  11.730 -0.7516 -1.9306 -2.5149
43603SOL    HW242534   1.265   8.515  11.740 -1.5216  1.2214  0.8888
43604SOL     OW42535  10.910   1.001   6.864  0.2261 -0.1132 -0.1977
43604SOL    HW142536  10.820   1.008   6.896 -0.7339  0.0222 -2.6668
43604SOL    HW242537  10.914   0.915   6.824  1.2567 -0.1771  0.0290
43605SOL     OW42538   5.155  11.205   8.321 -0.1490 -0.8271  0.1194
43605SOL    HW142539   5.106  11.204   8.239 -0.2064 -0.7475  0.1520
43605SOL    HW242540   5.123  11.129   8.369 -1.3039  0.0320  0.7526
43606SOL     OW42541   0.394  11.422  10.823 -0.2867  0.0327  0.2934
43606SOL    HW142542   0.393  11.326  10.822 -1.5546  0.0126 -1.5158
43606SOL    HW242543   0.301  11.447  10.820  0.0481  1.2595 -1.8363
43607SOL     OW42544   2.136   9.224   7.983  0.0899 -0.1919  0.3299
43607SOL    HW142545   2.108   9.299   7.930 -0.3263  0.5405  1.5222
43607SOL    HW242546   2.224   9.203   7.951 -0.4287 -0.2691 -1.1295
43608SOL     OW42547   1.641   3.042   1.597  0.1415  0.6370  0.1865
43608SOL    HW142548   1.669   2.971   1.655 -1.4339 -0.4744 -0.3352
43608SOL    HW242549   1.681   3.121   1.634  2.8400 -0.6165  0.1730
43609SOL     OW42550  11.472   5.986   3.376 -0.1673  0.2296  0.4424
43609SOL    HW142551  11.394   5.944   3.411  0.4042 -1.4095 -0.1797
43609SOL    HW242552  11.458   6.080   3.393 -2.6843  0.0988 -0.4784
43610SOL     OW42553   9.537   8.672   6.817 -0.2520  0.4787 -0.0549
43610SOL    HW142554   9.456   8.693   6.863 -0.2188 -0.9619  0.6796
43610SOL    HW242555   9.597   8.743   6.841 -0.7359  0.5974  0.8284
43611SOL     OW42556   4.063   6.078   7.456 -0.3913 -0.0966 -0.4658
43611SOL    HW142557   4.059   6.009   7.389  0.8725 -0.1018 -0.5629
43611SOL    HW242558   3.971   6.102   7.471 -0.8017 -1.2448 -0.9996
43612SOL     OW42559   8.916   5.994   1.148  0.2483  0.1883 -0.2317
43612SOL    HW142560   8.903   6.053   1.074 -1.9633  2.2234  1.5874
43612SOL    HW242561   8.993   6.028   1.192 -0.3728  1.0918  0.1914
43613SOL     OW42562  11.001   8.148   5.603  0.7061 -0.1515 -0.5981
43613SOL    HW142563  10.988   8.067   5.654  1.2971  0.5521  0.7228
43613SOL    HW242564  11.089   8.138   5.566  0.9187  0.0107 -0.1556
43614SOL     OW42565   5.230   9.415   4.978 -0.1073  0.6722  0.1388
43614SOL    HW142566   5.261   9.330   4.946 -2.5700  0.0475 -0.8277
43614SOL    HW242567   5.268   9.479   4.918 -1.7806 -0.1868 -1.9600
43615SOL     OW42568   7.359   4.340   1.600  0.2247  0.4495  0.3031
43615SOL    HW142569   7.316   4.368   1.519 -0.9563 -0.5736  0.5533
43615SOL    HW242570   7.412   4.265   1.575 -0.1829  0.0988  0.4707
43616SOL     OW42571   9.685   5.002   6.731 -0.2456 -0.0612 -0.3381
43616SOL    HW142572   9.700   5.036   6.819  0.4830  2.1655 -1.2471
43616SOL    HW242573   9.603   5.043   6.703 -0.7564 -1.1694 -0.5393
43617SOL     OW42574  11.514   4.094   9.832  0.2215 -0.1691 -0.3498
43617SOL    HW142575  11.583   4.039   9.869  1.7623  0.9171 -1.4845
43617SOL    HW242576  11.520   4.079   9.738 -0.2676  0.8569 -0.5549
43618SOL     OW42577   0.761   6.099   4.741 -0.0766  0.1814  0.2109
43618SOL    HW142578   0.803   6.114   4.826 -1.2049  0.4160  0.7546
43618SOL    HW242579   0.668   6.114   4.758 -0.3439  0.0185 -1.0273
43619SOL     OW42580  11.491   5.401   7.203  0.0101 -0.4957  0.5522
43619SOL    HW142581  11.526   5.485   7.232  0.0420 -0.3802  0.1825
43619SOL    HW242582  11.544   5.336   7.251  0.0476 -0.3099  0.7680
43620SOL     OW42583   3.565   7.445   9.633  0.4885 -1.1243  0.8853
43620SOL    HW142584   3.641   7.406   9.590 -1.1609 -1.0941 -2.3988
43620SOL    HW242585   3.600   7.524   9.676  2.2337 -0.7099 -1.1361
43621SOL     OW42586  10.600   6.081   1.715 -0.0374 -0.1771  0.3117
43621SOL    HW142587  10.637   6.165   1.743  0.4784  0.8052 -2.8969
43621SOL    HW242588  10.524   6.068   1.773  2.1695  0.3354  3.6144
43622SOL     OW42589   5.937   0.815  10.161  0.0757  0.8260  0.0968
43622SOL    HW142590   5.928   0.788  10.253  0.0176  0.5325  0.0064
43622SOL    HW242591   5.967   0.736  10.116 -0.9800  0.6654 -0.3353
43623SOL     OW42592   2.758   4.756   9.729 -0.1414 -0.0676  0.8384
43623SOL    HW142593   2.728   4.764   9.819 -0.1401  0.1969  0.8189
43623SOL    HW242594   2.694   4.807   9.678 -0.6708 -0.9801  0.5735
43624SOL     OW42595   7.528   6.562   0.296 -0.2103 -0.0238  0.0041
43624SOL    HW142596   7.583   6.639   0.279 -0.4438  0.1371 -0.0359
43624SOL    HW242597   7.589   6.491   0.309  0.1726  0.7405  3.1083
43625SOL     OW42598   8.266   2.871   7.228  0.3542 -0.6120 -0.0064
43625SOL    HW142599   8.243   2.805   7.163 -1.0132 -0.9460  0.7931
43625SOL    HW242600   8.185   2.890   7.275  1.1016  0.3128  0.9939
43626SOL     OW42601   6.478   2.923   5.815  0.1410 -1.0399  0.1252
43626SOL    HW142602   6.493   2.829   5.801  1.1192 -1.2325  2.0709
43626SOL    HW242603   6.383   2.934   5.802  0.2431 -1.9428 -1.7246
43627SOL     OW42604   5.064   7.022   1.042 -0.2381 -0.0329  0.1088
43627SOL    HW142605   5.074   6.931   1.070 -2.5918 -0.3341  0.1266
43627SOL    HW242606   5.095   7.073   1.117 -1.9012 -0.8462  1.4040
43628SOL     OW42607  10.788   0.867   8.006 -0.3860 -0.2931  0.2436
43628SOL    HW142608  10.731   0.809   8.057 -1.6448  0.1143 -0.6506
43628SOL    HW242609  10.729   0.912   7.946  1.1028 -1.5971 -2.4119
43629SOL     OW42610   8.005  11.276   2.727 -0.6168  0.3132  0.3506
43629SOL    HW142611   7.932  11.313   2.777  0.3355  0.6142  1.5640
43629SOL    HW242612   8.057  11.351   2.700 -0.1191  0.0289  0.5091
43630SOL     OW42613   9.802   5.160   3.963  0.4644  0.1982 -0.8980
43630SOL    HW142614   9.745   5.108   4.020 -1.4072  1.1440 -1.8121
43630SOL    HW242615   9.864   5.202   4.023 -0.4076 -0.1188  0.2519
43631SOL     OW42616   6.554   1.020   8.877  0.0547 -0.3869  0.4641
43631SOL    HW142617   6.630   0.973   8.912  0.2432  0.5397  1.3301
43631SOL    HW242618   6.523   0.965   8.805  1.6773 -0.6684 -0.0520
43632SOL     OW42619  10.396   7.753   6.310  0.5461  0.1548  0.4128
43632SOL    HW142620  10.329   7.779   6.373 -0.1988 -0.2609 -0.1832
43632SOL    HW242621  10.357   7.773   6.225  0.0358 -2.5725 -0.0862
43633SOL     OW42622   3.718   2.843  11.812 -0.2162  0.4633  0.2426
43633SOL    HW142623   3.629   2.821  11.787 -0.2319 -0.0367  0.7472
43633SOL    HW242624   3.770   2.826  11.733 -0.5934  0.9929 -0.1290
43634SOL     OW42625   2.110   5.444   8.326  0.0071 -0.3217 -0.4104
43634SOL    HW142626   2.123   5.352   8.303  1.0232 -0.3051  0.0739
43634SOL    HW242627   2.159   5.456   8.407  0.7734  0.9152 -1.0348
43635SOL     OW42628   7.710   9.610  11.458 -0.0066 -0.3798 -0.3569
43635SOL    HW142629   7.684   9.557  11.382 -0.3660 -0.2315 -0.3406
43635SOL    HW242630   7.647   9.586  11.526 -0.6990  0.6860 -0.6075
43636SOL     OW42631  11.190   9.903   5.468  0.4063  0.7897 -0.0364
43636SOL    HW142632  11.143   9.930   5.548 -1.5341 -2.5359  0.1459
43636SOL    HW242633  11.199   9.983   5.417 -2.2922  2.2660  1.5857
43637SOL     OW42634   2.035   7.618   4.637 -0.6254  0.2581 -0.3291
43637SOL    HW142635   2.085   7.542   4.608  1.5321  0.6680  1.9963
43637SOL    HW242636   2.066   7.690   4.582  0.2396  0.2134  0.0940
43638SOL     OW42637  11.812   3.852   5.324 -0.0391  0.4776  0.2424
43638SOL    HW142638  11.742   3.787   5.319  0.7547 -0.3259 -1.2274
43638SOL    HW242639  11.861   3.829   5.403 -0.4522  0.0146  0.3642
43639SOL     OW42640   2.646   0.087   1.615  0.3580  0.5164 -0.2635
43639SOL    HW142641   2.622   0.100   1.523 -0.7876  1.3943  0.1434
43639SOL    HW242642   2.739   0.061   1.612  0.8462  2.2423 -1.5717
43640SOL     OW42643   8.746   9.106  10.083 -0.0928 -0.1717 -1.1541
43640SOL    HW142644   8.754   9.099   9.988  0.1479  0.4804 -1.1830
43640SOL    HW242645   8.652   9.101  10.100 -0.1773  0.3701 -1.4775
43641SOL     OW42646   8.575   2.687   1.920 -0.1411 -0.2802  0.2484
43641SOL    HW142647   8.654   2.637   1.902 -0.3156 -0.6321  0.4514
43641SOL    HW242648   8.606   2.763   1.971  0.1040 -0.2526  0.0563
43642SOL     OW42649   2.438   6.760   0.442 -0.1396 -0.0812 -0.1204
43642SOL    HW142650   2.375   6.749   0.371 -0.1037  2.8777 -0.7647
43642SOL    HW242651   2.384   6.785   0.518  0.0698  0.0278 -0.0071
43643SOL     OW42652   0.080   4.769   7.550 -0.3864  0.3080 -0.0702
43643SOL    HW142653  -0.005   4.781   7.509  0.0899  0.9097 -0.9278
43643SOL    HW242654   0.130   4.848   7.526 -0.1601  0.8264  1.9123
43644SOL     OW42655   5.869   4.773   3.281 -0.8592 -0.6540  0.5210
43644SOL    HW142656   5.819   4.711   3.228  0.6143 -0.2082 -1.4835
43644SOL    HW242657   5.959   4.738   3.280 -0.5114  0.1477  1.5273
43645SOL     OW42658   2.520  11.282   4.148  0.3392 -0.3703 -0.4275
43645SOL    HW142659   2.478  11.198   4.128  0.7867 -0.7488  0.1991
43645SOL    HW242660   2.578  11.298   4.073  0.3997 -0.7150 -0.4568
43646SOL     OW42661   2.126   7.175   1.178  0.5540  0.0969 -0.0009
43646SOL    HW142662   2.059   7.186   1.245  0.1812 -0.7906 -0.2079
43646SOL    HW242663   2.205   7.152   1.226  0.1928 -0.9268  0.1268
43647SOL     OW42664   6.474   4.776  11.748  0.6203  0.0578  0.1003
43647SOL    HW142665   6.426   4.724  11.812  0.4992  0.2670  0.1780
43647SOL    HW242666   6.407   4.824  11.700  0.7323  0.1276  0.0127
43648SOL     OW42667   6.152   3.548  11.880 -0.1855 -0.2883 -0.0560
43648SOL    HW142668   6.219   3.528  11.946  1.4548  2.9533 -0.5268
43648SOL    HW242669   6.140   3.466  11.832  0.9988 -1.8522  2.1213
43649SOL     OW42670   2.463   5.796   8.523 -0.5278  0.3926 -0.4298
43649SOL    HW142671   2.478   5.703   8.540 -1.1620  0.5103  0.8742
43649SOL    HW242672   2.516   5.815   8.446 -1.5684 -1.4195 -1.6832
43650SOL     OW42673  10.329   2.597   0.258 -0.2156 -0.0053 -0.3388
43650SOL    HW142674  10.334   2.689   0.231 -0.5380 -0.5012 -2.2543
43650SOL    HW242675  10.355   2.548   0.180 -2.4586 -1.5905 -0.1895
43651SOL     OW42676   6.395  10.373  11.128 -0.0181  0.2453 -0.0435
43651SOL    HW142677   6.483  10.401  11.152 -1.3397  2.4819  2.7996
43651SOL    HW242678   6.369  10.433  11.058  0.2286  0.4526  0.0423
43652SOL     OW42679  11.518   3.204   5.424 -0.0739  0.2152 -0.5288
43652SOL    HW142680  11.577   3.129   5.420  0.0810  0.3580 -1.0372
43652SOL    HW242681  11.444   3.174   5.476  0.8560  0.3277  0.9234
43653SOL     OW42682   1.021   7.955   5.686  0.1798  0.0788 -0.4167
43653SOL    HW142683   1.087   8.013   5.647  1.6598 -0.1691  1.5447
43653SOL    HW242684   0.996   7.999   5.767  1.5736 -2.0677  1.2838
43654SOL     OW42685   0.587  11.289   8.199  0.5919  0.0310 -0.1579
43654SOL    HW142686   0.502  11.292   8.244  0.9286 -0.9027  0.5579
43654SOL    HW242687   0.599  11.197   8.175  1.4139  0.1437 -0.2207
43655SOL     OW42688   3.815   3.719  11.124  0.5387 -0.0548  0.6487
43655SOL    HW142689   3.801   3.792  11.063 -1.0321  1.0052  2.1995
43655SOL    HW242690   3.907   3.696  11.111  0.1445 -0.3679 -2.5957
43656SOL     OW42691  11.850  11.122   6.481  0.6251  0.0664  0.2806
43656SOL    HW142692  11.913  11.116   6.552 -1.6732  3.2171  2.9514
43656SOL    HW242693  11.882  11.193   6.426  0.9191 -0.4059 -0.1675
43657SOL     OW42694   8.267   7.729   5.310  0.3710  0.3586 -0.1413
43657SOL    HW142695   8.185   7.774   5.330 -0.1566 -0.6545  0.0469
43657SOL    HW242696   8.269   7.656   5.371  1.3440  0.2865 -0.2540
43658SOL     OW42697   1.128   8.351   0.062 -0.3836 -0.4457 -0.2605
43658SOL    HW142698   1.137   8.261   0.029  0.0530  0.0497 -1.5808
43658SOL    HW242699   1.060   8.345   0.128 -1.0475 -1.5932 -1.0021
43659SOL     OW42700   7.119   3.489  10.887  0.5705  0.4906 -0.2529
43659SOL    HW142701   7.037   3.441  10.877  1.6463 -1.9505  1.5278
43659SOL    HW242702   7.110   3.534  10.972  0.2686  2.0802 -1.0889
43660SOL     OW42703   4.697   1.515  10.738  0.5967 -0.0836 -0.4861
43660SOL    HW142704   4.627   1.518  10.803 -0.1224 -1.2881 -1.1901
43660SOL    HW242705   4.657   1.545  10.657  0.8690 -0.8447 -0.9094
43661SOL     OW42706   7.180  11.145   4.290  0.6460  0.3745  0.0901
43661SOL    HW142707   7.256  11.112   4.241  0.7922  0.0896  0.5058
43661SOL    HW242708   7.210  11.229   4.326  0.3508  0.8678 -0.7708
43662SOL     OW42709   9.815   3.119   6.491  0.1200  0.4065  0.1274
43662SOL    HW142710   9.829   3.034   6.531  1.8734  0.9753  0.8046
43662SOL    HW242711   9.722   3.121   6.471 -0.0967 -1.3522  0.7948
43663SOL     OW42712   4.890   0.016   1.369  0.0423  0.2571  0.0228
43663SOL    HW142713   4.890  -0.079   1.382  0.7022 -0.0161 -1.6404
43663SOL    HW242714   4.983   0.039   1.365 -0.1116  0.7917 -0.6357
43664SOL     OW42715   9.040   1.265   3.660  0.6545  0.4400 -0.0886
43664SOL    HW142716   9.046   1.228   3.748  0.6514  0.3262 -0.1357
43664SOL    HW242717   9.121   1.313   3.647  1.2328 -0.6162 -0.5125
43665SOL     OW42718   6.422   3.670   5.596  0.0873  0.3133  0.5428
43665SOL    HW142719   6.362   3.736   5.632 -2.7936 -1.0392 -1.3898
43665SOL    HW242720   6.418   3.598   5.659 -0.6973  0.0636  0.2198
43666SOL     OW42721   4.727   0.275   8.992  0.6517  0.3698  0.6291
43666SOL    HW142722   4.658   0.313   8.938  0.3451 -2.3609 -1.0857
43666SOL    HW242723   4.684   0.251   9.074  0.8028  3.2517  1.6542
43667SOL     OW42724   8.683   7.206  10.156 -0.1537  0.5111  0.2646
43667SOL    HW142725   8.632   7.192  10.236 -1.0615 -0.9511 -0.5275
43667SOL    HW242726   8.621   7.191  10.085  0.3425  2.9240 -0.7668
43668SOL     OW42727   4.173   1.310  11.700  0.2462 -0.1872  0.3402
43668SOL    HW142728   4.212   1.226  11.677  1.8756  0.2999  1.1736
43668SOL    HW242729   4.248   1.366  11.721 -0.8949  0.9047  1.6760
43669SOL     OW42730   7.061   4.207   5.034  0.0984  0.0803  0.4554
43669SOL    HW142731   7.077   4.162   5.117  0.2192  0.7201  0.7856
43669SOL    HW242732   7.137   4.187   4.980 -0.8667 -1.9711 -0.2530
43670SOL     OW42733   1.362   4.046  11.790  0.4624  0.5997 -0.9416
43670SOL    HW142734   1.274   4.075  11.763 -0.0013  0.3544  0.2640
43670SOL    HW242735   1.384   3.977  11.728 -1.2880 -1.1210  0.2605
43671SOL     OW42736   2.176  10.727   5.841 -0.5213  0.0304 -0.3573
43671SOL    HW142737   2.237  10.686   5.902  2.4299  0.6844 -2.6682
43671SOL    HW242738   2.173  10.819   5.869  2.2320  0.7440 -2.0595
43672SOL     OW42739   7.141   4.040   8.716  0.0787  0.3283  0.6357
43672SOL    HW142740   7.173   4.130   8.703 -0.5612  0.5867  0.8183
43672SOL    HW242741   7.202   4.002   8.778  1.3589  0.0758 -0.7167
43673SOL     OW42742   2.432   7.235   5.462 -0.4044 -0.1704 -0.5496
43673SOL    HW142743   2.380   7.302   5.417  0.5211 -0.7507 -2.6538
43673SOL    HW242744   2.385   7.153   5.445 -0.1186 -0.3772 -0.3383
43674SOL     OW42745   5.247   7.760   2.370  0.7968 -0.1743 -0.5093
43674SOL    HW142746   5.206   7.692   2.317 -0.5785  0.6012 -0.4636
43674SOL    HW242747   5.206   7.842   2.341  3.5036  0.8937 -1.6597
43675SOL     OW42748   2.705   4.271   9.279 -0.0442 -0.1885 -0.4383
43675SOL    HW142749   2.643   4.310   9.217 -1.6619 -1.1217  0.5215
43675SOL    HW242750   2.791   4.291   9.242 -0.9249 -0.2030 -2.6671
43676SOL     OW42751  11.063   8.970   0.122 -0.0226 -0.2937  0.3446
43676SOL    HW142752  11.014   9.042   0.083 -0.0341 -1.1466 -1.3080
43676SOL    HW242753  10.998   8.921   0.172 -0.1481  0.4703  0.9387
43677SOL     OW42754   4.013  11.149   9.053  0.3813 -0.1103  0.0013
43677SOL    HW142755   4.008  11.060   9.019 -0.9273 -0.1006  0.1201
43677SOL    HW242756   4.048  11.140   9.141 -0.5369 -0.6117  0.3292
43678SOL     OW42757   3.730   1.304   1.079 -0.5998  0.0297 -0.3638
43678SOL    HW142758   3.823   1.310   1.055 -0.3514  1.9548  0.9043
43678SOL    HW242759   3.721   1.360   1.156 -2.9161  0.2567 -0.7272
43679SOL     OW42760   2.955   3.621   7.419 -0.1545 -0.1936  0.0542
43679SOL    HW142761   2.937   3.595   7.329 -0.0710  0.1593 -0.0687
43679SOL    HW242762   3.048   3.645   7.418 -0.0534 -0.5783  0.3297
43680SOL     OW42763   3.475   6.803   7.064 -0.0464 -0.6626 -0.1791
43680SOL    HW142764   3.495   6.713   7.090  0.9750 -0.5455 -0.4885
43680SOL    HW242765   3.559   6.848   7.071 -0.6275  0.3678  0.3644
43681SOL     OW42766   4.277   1.920   4.534 -0.0085 -0.4262 -0.0813
43681SOL    HW142767   4.358   1.898   4.580 -0.5779 -0.9576  0.6893
43681SOL    HW242768   4.293   2.008   4.499 -0.2433  0.9221  2.8579
43682SOL     OW42769   6.147  10.320   8.266 -0.2044  0.2770 -0.2635
43682SOL    HW142770   6.243  10.324   8.266 -0.1671 -0.4775 -0.4320
43682SOL    HW242771   6.120  10.394   8.320  0.5822 -1.5515  2.8893
43683SOL     OW42772   7.299   4.389   1.350  1.0286 -0.4222  0.0844
43683SOL    HW142773   7.253   4.458   1.303  3.1344  1.3357  0.4396
43683SOL    HW242774   7.324   4.326   1.283  0.4465 -0.0530 -0.4929
43684SOL     OW42775   8.580   5.441   6.711 -0.4114 -0.5353  0.2108
43684SOL    HW142776   8.655   5.421   6.766  0.1680 -1.3639 -0.8214
43684SOL    HW242777   8.615   5.498   6.642 -0.4774 -1.6701 -0.8088
43685SOL     OW42778   3.672   7.041   7.823  0.6454  0.0484 -0.0371
43685SOL    HW142779   3.720   6.979   7.769  0.3515  0.4906 -0.8378
43685SOL    HW242780   3.739   7.091   7.869  0.8970 -0.4684  0.1535
43686SOL     OW42781   3.695   7.497   3.039 -0.2231 -0.1366  0.4947
43686SOL    HW142782   3.601   7.475   3.037 -0.2920  0.1677  0.1592
43686SOL    HW242783   3.739   7.415   3.020 -0.3770 -0.5212  1.7015
43687SOL     OW42784   9.943   4.009   1.362 -0.0580 -0.3337 -0.1270
43687SOL    HW142785   9.893   4.036   1.285 -0.0369  1.9137  0.5737
43687SOL    HW242786   9.878   3.968   1.420 -0.4697 -0.2397 -0.5188
43688SOL     OW42787   4.925   8.700   6.737 -0.5347  0.7582  0.2065
43688SOL    HW142788   4.874   8.699   6.655 -0.3423  2.0508  0.0375
43688SOL    HW242789   4.871   8.752   6.797 -0.6317 -0.1094  0.8914
43689SOL     OW42790  11.026   7.537   7.260 -0.4202 -0.1019 -0.1343
43689SOL    HW142791  10.937   7.534   7.226 -0.1529 -0.3608 -0.8245
43689SOL    HW242792  11.069   7.460   7.223 -0.1660 -0.4926  0.9396
43690SOL     OW42793   8.469   9.923  11.693  0.2684 -0.0970 -0.1891
43690SOL    HW142794   8.506   9.852  11.747  1.6224  1.0304  0.4544
43690SOL    HW242795   8.376   9.903  11.688  0.4245 -1.3095  0.9411
43691SOL     OW42796   4.754   4.297   5.009  0.0337 -0.0355  0.2854
43691SOL    HW142797   4.681   4.359   5.012 -0.4236 -0.4903 -0.9855
43691SOL    HW242798   4.824   4.345   4.965  0.1936  0.0877  0.6722
43692SOL     OW42799   6.504   2.136   7.111  0.2257 -0.5558 -0.2736
43692SOL    HW142800   6.493   2.045   7.082  0.0197 -1.0455  1.2474
43692SOL    HW242801   6.440   2.146   7.182  1.7778  0.0558  1.1136
43693SOL     OW42802   6.208   4.869   9.542  0.3019 -0.0288 -0.3314
43693SOL    HW142803   6.179   4.898   9.455 -0.7981  0.3651  0.1429
43693SOL    HW242804   6.233   4.950   9.587 -1.9320  0.1857  0.6910
43694SOL     OW42805   0.724   4.572   4.362 -0.8997  0.3999 -0.2286
43694SOL    HW142806   0.697   4.613   4.280 -1.4374  0.1262 -0.1919
43694SOL    HW242807   0.690   4.631   4.430  0.5269  1.2379 -0.2024
43695SOL     OW42808  10.591   7.608   9.774 -0.7382  0.4704 -0.0766
43695SOL    HW142809  10.551   7.647   9.852  0.6310 -1.7275  1.8634
43695SOL    HW242810  10.541   7.528   9.759 -2.0889  1.6881 -2.6254
43696SOL     OW42811  10.979   1.180   6.366 -0.4332  0.0162 -0.4299
43696SOL    HW142812  10.994   1.119   6.438 -0.6787 -0.8660 -1.1011
43696SOL    HW242813  10.889   1.211   6.378 -0.7119 -0.6568 -0.7273
43697SOL     OW42814   0.156   0.353   7.238  0.1470 -0.0910  0.2976
43697SOL    HW142815   0.129   0.358   7.147 -3.2003 -0.6452  1.1424
43697SOL    HW242816   0.142   0.262   7.263  0.3711  0.1905  1.5382
43698SOL     OW42817   9.705   4.339   7.678  0.1687  0.2531  0.2425
43698SOL    HW142818   9.792   4.299   7.678  0.0852  0.0449  1.1494
43698SOL    HW242819   9.677   4.335   7.770 -1.4476 -1.0820 -0.2638
43699SOL     OW42820   8.426   4.083  11.393  0.5243  0.5438  0.4307
43699SOL    HW142821   8.459   4.004  11.436  1.6062  0.8932  0.2692
43699SOL    HW242822   8.492   4.150  11.412 -0.5679  1.5212  0.8901
43700SOL     OW42823   1.843   2.571   6.800 -0.6544 -0.8728 -0.2776
43700SOL    HW142824   1.779   2.639   6.784  0.4202  0.4542  0.7587
43700SOL    HW242825   1.863   2.535   6.714 -2.5664 -1.1530 -0.6406
43701SOL     OW42826   8.838   7.908  11.632 -0.3024 -0.4663 -0.5584
43701SOL    HW142827   8.754   7.885  11.593 -1.2414 -0.9977  1.6198
43701SOL    HW242828   8.851   7.842  11.701  1.7216 -0.1585 -0.5893
43702SOL     OW42829   4.853   0.584   2.478  0.2460  0.0665 -0.4858
43702SOL    HW142830   4.872   0.662   2.530 -1.7978  0.4653 -0.2802
43702SOL    HW242831   4.938   0.540   2.469  0.8837  0.6079  2.1587
43703SOL     OW42832   0.794   1.695   6.937 -0.4408 -0.4509  0.6383
43703SOL    HW142833   0.775   1.630   6.869  0.2964 -0.6520  0.6140
43703SOL    HW242834   0.778   1.779   6.894 -1.1372 -0.6044  0.5858
43704SOL     OW42835   0.730   1.807   3.653  0.0628  0.7502 -0.4064
43704SOL    HW142836   0.810   1.756   3.642  0.1696  1.0398 -0.9650
43704SOL    HW242837   0.676   1.785   3.577  0.1934  1.6306 -0.7589
43705SOL     OW42838   7.042   9.074   3.507 -0.1077 -0.1623 -0.1731
43705SOL    HW142839   7.006   9.080   3.595 -0.6953  0.3984 -0.4428
43705SOL    HW242840   7.133   9.103   3.515  0.0718 -0.8552  0.3776
43706SOL     OW42841   2.009   9.291  11.602  0.5515 -0.0578 -0.0908
43706SOL    HW142842   2.052   9.328  11.679 -1.0128  1.1151  0.2552
43706SOL    HW242843   1.955   9.220  11.636  0.9761 -0.4937 -0.3144
43707SOL     OW42844   4.301   4.166   0.108  0.5839 -0.1762  0.6324
43707SOL    HW142845   4.377   4.149   0.163  0.9474 -1.4960 -0.2240
43707SOL    HW242846   4.254   4.083   0.105 -0.0243  0.1758 -0.1440
43708SOL     OW42847  10.052   3.104   8.111 -0.2100  0.5010  0.4326
43708SOL    HW142848  10.083   3.068   8.027 -0.6214  0.2144  0.4015
43708SOL    HW242849  10.132   3.124   8.159  0.1367  2.8877 -0.9378
43709SOL     OW42850   7.255   9.780   0.968  0.2652  0.0228  0.0305
43709SOL    HW142851   7.295   9.854   0.922  0.7928 -1.5979 -2.2934
43709SOL    HW242852   7.316   9.707   0.954 -1.5078 -1.5167 -0.0812
43710SOL     OW42853   8.420   7.149   6.857 -0.5587 -0.0604 -0.2905
43710SOL    HW142854   8.418   7.102   6.941  0.6318 -0.5287 -0.5050
43710SOL    HW242855   8.328   7.174   6.842 -0.6465  1.1491  1.7610
43711SOL     OW42856   1.441  10.103   4.527  0.5398  0.2623 -0.1696
43711SOL    HW142857   1.402  10.019   4.503  0.1326  0.4164 -0.0651
43711SOL    HW242858   1.445  10.153   4.445  1.3192 -0.0699 -0.3377
43712SOL     OW42859  11.441   9.055   7.060 -0.0749 -0.1745  0.8144
43712SOL    HW142860  11.462   9.042   6.968  1.2337 -0.3962  1.1341
43712SOL    HW242861  11.497   8.994   7.107 -0.4948  0.1646  1.7867
43713SOL     OW42862   3.995   5.927   4.625 -0.4377 -0.1445 -0.1248
43713SOL    HW142863   3.929   5.923   4.694  0.4828 -1.5378  0.7195
43713SOL    HW242864   4.017   6.020   4.619 -2.4987  0.3667 -0.4918
43714SOL     OW42865   3.583   1.894   2.192 -0.0826 -0.0651 -0.6307
43714SOL    HW142866   3.559   1.878   2.284  1.1875  4.2262  0.6980
43714SOL    HW242867   3.677   1.880   2.190 -0.0534  0.2120 -1.1809
43715SOL     OW42868   9.174   8.147   1.152 -0.2782  0.2071  0.2837
43715SOL    HW142869   9.148   8.235   1.180 -0.7817  0.3714 -0.6588
43715SOL    HW242870   9.267   8.142   1.175 -1.0302 -0.3972  3.6999
43716SOL     OW42871   3.056   7.816   2.838  0.0646 -0.1093 -0.0243
43716SOL    HW142872   3.057   7.891   2.896 -1.1680 -0.5216  0.5520
43716SOL    HW242873   3.144   7.779   2.846 -0.2745 -0.5905  2.1770
43717SOL     OW42874  10.228   1.104   9.469 -0.2277  0.3471 -0.6186
43717SOL    HW142875  10.285   1.123   9.544  0.2000  0.9373 -1.0884
43717SOL    HW242876  10.139   1.122   9.501 -0.1046  0.0233 -0.0761
43718SOL     OW42877   3.556   1.107   2.926  0.7429  0.1923  0.0926
43718SOL    HW142878   3.501   1.047   2.876 -0.4311  0.0651  1.4648
43718SOL    HW242879   3.548   1.191   2.880 -2.3974  0.7425  1.3683
43719SOL     OW42880   0.966   2.475   9.865  1.5008 -0.9445 -0.3525
43719SOL    HW142881   1.006   2.395   9.897  0.8954 -0.6660  1.1915
43719SOL    HW242882   0.953   2.529   9.943 -0.7125 -0.5160 -0.9360
43720SOL     OW42883   9.510   6.784   8.969 -0.2600  0.4310 -0.1209
43720SOL    HW142884   9.583   6.843   8.986  0.4030  0.1635 -1.9175
43720SOL    HW242885   9.509   6.725   9.045 -0.3553  2.1136  1.2397
43721SOL     OW42886   3.216   8.446   0.528  0.5238 -0.6454  0.1359
43721SOL    HW142887   3.232   8.423   0.620 -1.8056 -3.1093  0.0575
43721SOL    HW242888   3.283   8.511   0.507  2.3115 -1.4040  3.0059
43722SOL     OW42889   2.844   8.110   4.606 -0.1945 -0.8854  0.5271
43722SOL    HW142890   2.923   8.090   4.555 -0.4323  2.8671 -1.6742
43722SOL    HW242891   2.874   8.169   4.675 -0.5498 -2.7718  2.4216
43723SOL     OW42892   9.752   2.277   1.575 -0.3711 -0.1630 -0.6337
43723SOL    HW142893   9.757   2.183   1.563  2.7385 -0.5188  2.1738
43723SOL    HW242894   9.715   2.289   1.662 -1.7008  1.3244 -1.3385
43724SOL     OW42895   7.000   4.385   2.832  0.1152 -0.0829 -0.0169
43724SOL    HW142896   7.003   4.406   2.739 -0.9928 -0.8609 -0.2537
43724SOL    HW242897   7.059   4.448   2.873 -0.3321  1.0735 -1.0934
43725SOL     OW42898   9.594  11.609   9.078 -0.8918  0.2486  0.3000
43725SOL    HW142899   9.604  11.695   9.038 -1.4266 -0.0157 -0.4339
43725SOL    HW242900   9.609  11.623   9.171 -0.9298  1.1234  0.1787
43726SOL     OW42901   4.707   9.558   7.982 -0.7353  0.2287  0.5744
43726SOL    HW142902   4.737   9.469   7.961  3.2356  0.5603  3.7193
43726SOL    HW242903   4.672   9.551   8.071  1.6830  2.0257  1.7730
43727SOL     OW42904   1.299   6.343   8.641  0.1618 -0.4536  0.2872
43727SOL    HW142905   1.229   6.351   8.706  1.2509  0.3359  1.4062
43727SOL    HW242906   1.267   6.276   8.580 -2.7511  1.7182 -0.8020
43728SOL     OW42907   1.743   3.395   4.249  0.0218  0.0657 -0.5011
43728SOL    HW142908   1.734   3.490   4.243  1.4804  0.1371 -2.5530
43728SOL    HW242909   1.747   3.377   4.343 -2.5201  1.7413  0.0417
43729SOL     OW42910   7.487   2.668   9.820  0.1864  0.7159 -0.1566
43729SOL    HW142911   7.412   2.719   9.791 -0.0523 -0.4239 -1.6746
43729SOL    HW242912   7.532   2.643   9.739  0.4064 -1.2785  0.5112
43730SOL     OW42913  11.165   3.208   5.172 -0.0277  0.1951  0.2463
43730SOL    HW142914  11.107   3.204   5.095  1.6631  0.4443 -1.1009
43730SOL    HW242915  11.218   3.286   5.158  1.7202 -0.8591  0.5804
43731SOL     OW42916   9.091   6.175   1.259  0.3803  0.0904 -0.4012
43731SOL    HW142917   9.182   6.150   1.242  0.8127  0.8687  0.6376
43731SOL    HW242918   9.088   6.268   1.239  0.3243  0.5023  1.3266
43732SOL     OW42919   5.563   1.665   1.810  0.7186  0.2215 -0.0197
43732SOL    HW142920   5.494   1.622   1.760  1.2523 -0.8341  0.1375
43732SOL    HW242921   5.644   1.624   1.781  1.1555  0.4979  0.7712
43733SOL     OW42922   4.583   7.758   6.185 -0.1880  0.1483 -0.0526
43733SOL    HW142923   4.518   7.828   6.187 -0.7692 -0.3805 -0.0788
43733SOL    HW242924   4.630   7.767   6.267  0.1391  0.9382 -0.3232
43734SOL     OW42925   5.687   5.964   9.464  0.0668  1.0226  0.3034
43734SOL    HW142926   5.762   5.937   9.410 -0.8209  0.4413 -0.6695
43734SOL    HW242927   5.613   5.915   9.429 -0.7063  1.2772  1.5207
43735SOL     OW42928   7.955   9.244  10.248 -0.3156 -0.0101  0.3535
43735SOL    HW142929   7.923   9.168  10.295 -0.2760  0.4449  1.1248
43735SOL    HW242930   7.890   9.259  10.179  0.1577 -1.3034 -0.4213
43736SOL     OW42931   7.826   2.542   3.179  0.0718  0.3870 -0.6441
43736SOL    HW142932   7.776   2.548   3.260  0.7158 -1.0021 -0.1033
43736SOL    HW242933   7.829   2.448   3.159  1.9748  0.4663 -0.9459
43737SOL     OW42934   6.376   9.004   9.534 -0.3741  0.0426  0.5108
43737SOL    HW142935   6.340   9.053   9.608 -1.3928  0.1677 -0.0400
43737SOL    HW242936   6.300   8.958   9.497  0.1520 -0.1728 -0.3279
43738SOL     OW42937   3.672  11.731   8.103  0.3858 -0.0353  0.5349
43738SOL    HW142938   3.746  11.678   8.076  0.2763  0.1078 -0.0591
43738SOL    HW242939   3.656  11.790   8.029 -0.1113  0.1567  0.7882
43739SOL     OW42940   1.298  11.668  10.401 -0.4199 -0.2394 -0.7927
43739SOL    HW142941   1.245  11.596  10.366 -1.5624  0.0061  0.3516
43739SOL    HW242942   1.237  11.741  10.409  0.5186  0.5853 -1.0926
43740SOL     OW42943  11.547   7.973   3.121 -0.1843  0.1985  0.1979
43740SOL    HW142944  11.621   7.938   3.170 -0.9036 -0.9238  0.5311
43740SOL    HW242945  11.571   7.961   3.029  0.3163  0.4313  0.2970
43741SOL     OW42946   1.252   4.268   7.522  0.1240 -0.1293  0.3247
43741SOL    HW142947   1.189   4.244   7.590 -1.1995 -1.6541 -1.3421
43741SOL    HW242948   1.332   4.219   7.546  0.2178  0.6144  1.6165
43742SOL     OW42949   5.195   9.434   2.890  0.8058 -0.5262  0.0153
43742SOL    HW142950   5.181   9.340   2.878 -1.0682 -0.2646 -0.0479
43742SOL    HW242951   5.108   9.469   2.910  1.3117  1.3432 -0.8986
43743SOL     OW42952   6.603  10.351   5.699  0.1033 -0.3745  0.2919
43743SOL    HW142953   6.529  10.315   5.651 -0.6291 -0.1490  1.2185
43743SOL    HW242954   6.628  10.281   5.760 -1.0368  0.4753  1.7864
43744SOL     OW42955  11.866   3.168   8.244 -0.2717  0.1730  0.6076
43744SOL    HW142956  11.930   3.174   8.173 -0.1359  1.9841  0.8473
43744SOL    HW242957  11.822   3.253   8.244 -0.1667  0.2827  2.7680
43745SOL     OW42958  10.051  11.156   0.857  0.2240 -0.5493  0.2447
43745SOL    HW142959   9.975  11.128   0.805  0.4739 -1.1328  0.1826
43745SOL    HW242960  10.038  11.250   0.871  0.9494  0.0090 -2.2739
43746SOL     OW42961  11.684   1.319   0.987  0.7586 -0.1014 -0.0569
43746SOL    HW142962  11.725   1.232   0.987  0.7392 -0.1302  1.1857
43746SOL    HW242963  11.623   1.317   1.060  0.2470  0.7362 -0.4485
43747SOL     OW42964   8.362   8.830   5.853  0.2206  0.0155  0.2586
43747SOL    HW142965   8.430   8.875   5.903  0.0441  1.2257 -0.5542
43747SOL    HW242966   8.288   8.891   5.853  0.3560  0.2476 -1.7856
43748SOL     OW42967   9.680  11.695   1.443 -0.1518 -0.0373  0.0879
43748SOL    HW142968   9.667  11.655   1.529 -1.9773  1.5864  0.6340
43748SOL    HW242969   9.775  11.705   1.436  0.0486 -0.4006  1.8208
43749SOL     OW42970  10.232   2.218   5.128  0.4775  0.3789 -0.2182
43749SOL    HW142971  10.242   2.135   5.175  2.3117 -0.3182 -1.7193
43749SOL    HW242972  10.219   2.192   5.037 -2.9397  1.6887 -0.2547
43750SOL     OW42973   7.485   8.775   5.161 -0.8047  0.1515  0.0397
43750SOL    HW142974   7.541   8.789   5.085  0.1025  0.4120  0.7493
43750SOL    HW242975   7.521   8.698   5.204 -0.1779  1.0722  1.2147
43751SOL     OW42976   1.177   0.928   2.797 -0.0351 -0.3259  0.2998
43751SOL    HW142977   1.210   0.975   2.874  1.6852 -1.3437  0.2389
43751SOL    HW242978   1.124   0.857   2.833  0.8698 -0.8747  0.5719
43752SOL     OW42979   5.250   1.197  11.274 -0.5335  0.6567  0.2152
43752SOL    HW142980   5.187   1.126  11.262  0.2518 -0.2147  1.0397
43752SOL    HW242981   5.234   1.229  11.362  0.3559  0.2020  0.5626
43753SOL     OW42982   3.261   0.042  10.546  0.2498  0.0025 -0.1689
43753SOL    HW142983   3.347   0.004  10.526  0.7299  1.1109 -0.2927
43753SOL    HW242984   3.281   0.125  10.589 -0.7443 -1.4712  3.5218
43754SOL     OW42985   0.642   3.638   9.335  0.2451 -0.0615 -0.8439
43754SOL    HW142986   0.646   3.605   9.425  1.0860 -0.2361 -0.9410
43754SOL    HW242987   0.732   3.661   9.313  0.0047  0.2517 -1.5462
43755SOL     OW42988   4.769   8.364   2.619  0.0980  0.4161  0.2809
43755SOL    HW142989   4.838   8.409   2.668 -0.5273 -1.1088  2.7732
43755SOL    HW242990   4.698   8.427   2.613  0.2553  0.7031  1.2355
43756SOL     OW42991   4.713   4.943   0.535  0.4720  0.1609  0.3298
43756SOL    HW142992   4.774   5.001   0.491  1.7958 -1.6339 -0.3003
43756SOL    HW242993   4.767   4.874   0.572 -0.9845 -0.3481  1.6434
43757SOL     OW42994  11.473   9.990   5.459  0.2567  0.0363  0.3472
43757SOL    HW142995  11.409   9.953   5.520 -0.5739 -0.4610 -0.7732
43757SOL    HW242996  11.425  10.059   5.413  0.2460 -0.8419 -1.0333
43758SOL     OW42997   2.136   6.472   5.594 -0.0805 -0.2441  0.2053
43758SOL    HW142998   2.169   6.548   5.546 -2.6083  1.1214  0.4770
43758SOL    HW242999   2.069   6.435   5.537 -1.5035  0.0266  1.6440
43759SOL     OW43000   7.091   1.992   5.601 -0.0576 -0.1936 -0.2538
43759SOL    HW143001   7.098   1.995   5.506 -1.0972 -0.6601 -0.3508
43759SOL    HW243002   7.128   2.076   5.630  2.9638 -1.1677 -0.8501
43760SOL     OW43003   5.215   2.330   4.295 -0.7333  0.3387 -0.2151
43760SOL    HW143004   5.150   2.399   4.307 -0.2875  0.6344  0.6210
43760SOL    HW243005   5.290   2.375   4.255  0.2886  0.8058  2.0557
43761SOL     OW43006   6.585   7.963   1.333  0.1039 -0.6464  0.6699
43761SOL    HW143007   6.662   7.932   1.285 -1.1437 -0.4896 -1.5809
43761SOL    HW243008   6.582   7.909   1.411  2.4108 -0.7362  0.7561
43762SOL     OW43009   3.370   5.069   5.636 -1.0665  0.2696  0.0871
43762SOL    HW143010   3.357   5.142   5.575 -1.4881 -0.0142 -0.1700
43762SOL    HW243011   3.361   4.991   5.582 -2.3528 -0.0121  0.6645
43763SOL     OW43012   8.913   3.251   6.566  0.2979 -0.4331 -0.6275
43763SOL    HW143013   9.006   3.256   6.589  0.0945  0.8845 -0.0016
43763SOL    HW243014   8.907   3.298   6.482  0.3131 -1.2588 -1.1046
43764SOL     OW43015   3.773  11.774  10.669 -0.9230  0.1399  0.4609
43764SOL    HW143016   3.789  11.869  10.664  0.8195 -0.1672 -0.3622
43764SOL    HW243017   3.775  11.745  10.578  2.1504 -1.1944  0.8511
43765SOL     OW43018   1.017   2.920   8.243  0.2613 -0.8501 -0.2456
43765SOL    HW143019   0.951   2.877   8.189  1.5558 -3.0023 -0.2578
43765SOL    HW243020   1.008   2.878   8.329  2.3209 -2.0769 -0.5657
43766SOL     OW43021   6.278   4.541   6.287  0.1404  0.3290 -0.2545
43766SOL    HW143022   6.200   4.578   6.247  0.0641 -0.1564 -0.5700
43766SOL    HW243023   6.262   4.545   6.381 -0.0024  0.7848 -0.2972
43767SOL     OW43024   2.860   3.548   4.032  0.1135  0.2550 -0.3016
43767SOL    HW143025   2.898   3.560   4.119 -1.0830 -1.6673  0.5369
43767SOL    HW243026   2.926   3.501   3.983 -0.0139 -0.5134  0.2462
43768SOL     OW43027   6.416   8.717   7.323  0.0744 -0.2652  0.4275
43768SOL    HW143028   6.353   8.700   7.392 -1.1634 -1.4492 -0.9380
43768SOL    HW243029   6.502   8.711   7.366 -0.6640 -0.3183  1.9533
43769SOL     OW43030   7.678   6.420   2.690  0.1058 -0.5129 -0.3159
43769SOL    HW143031   7.597   6.409   2.639 -0.4496  2.0542 -0.1257
43769SOL    HW243032   7.747   6.390   2.631 -0.6953  0.5972 -1.9250
43770SOL     OW43033   6.026   7.296  10.536 -0.3506  0.5749 -0.0496
43770SOL    HW143034   5.989   7.211  10.560 -1.0336  1.3271  1.6993
43770SOL    HW243035   6.119   7.279  10.526 -0.4040 -0.2860  0.7705
43771SOL     OW43036  10.309   1.099  11.942 -0.1523  0.5940 -0.1191
43771SOL    HW143037  10.317   1.065  12.031 -0.8912 -1.4509 -0.7532
43771SOL    HW243038  10.222   1.138  11.939 -0.3214  0.2250 -0.0708
43772SOL     OW43039   1.470   4.084   6.445  0.4519 -0.0605  0.3990
43772SOL    HW143040   1.504   4.098   6.356 -0.0420  3.5880  0.6325
43772SOL    HW243041   1.380   4.056   6.432  0.6487 -0.4487 -0.2167
43773SOL     OW43042   0.645   4.785   0.698  0.2239  0.0108  0.1088
43773SOL    HW143043   0.595   4.865   0.717  0.5641 -0.1242  1.7008
43773SOL    HW243044   0.736   4.814   0.702  0.3874  0.3227 -3.0549
43774SOL     OW43045   3.108   8.426   5.701 -0.4315 -0.5968  0.2112
43774SOL    HW143046   3.060   8.343   5.692 -1.0339 -0.1681 -0.7123
43774SOL    HW243047   3.073   8.465   5.781  0.1760 -1.4214  0.9038
43775SOL     OW43048   3.103   5.953   6.221 -0.1709 -0.9736  0.7105
43775SOL    HW143049   3.050   5.914   6.290 -1.2552 -0.7629  0.0135
43775SOL    HW243050   3.081   5.902   6.143  0.9568 -1.1379  0.4743
43776SOL     OW43051   5.770   1.765   0.059  0.0300  0.2916  0.4746
43776SOL    HW143052   5.682   1.781   0.094  0.7521  2.1552  1.5881
43776SOL    HW243053   5.757   1.700  -0.010 -2.3228  1.0660  0.1056
43777SOL     OW43054   9.415   7.649   6.594  0.0333  0.3252 -0.0577
43777SOL    HW143055   9.359   7.572   6.586 -1.3688  1.3796 -0.7787
43777SOL    HW243056   9.412   7.670   6.688 -1.0631  0.5552 -0.1270
43778SOL     OW43057  10.817   2.134   9.840 -0.4396 -0.2343 -0.7518
43778SOL    HW143058  10.726   2.162   9.842 -0.5015 -0.4514  0.2378
43778SOL    HW243059  10.815   2.045   9.874  0.2943  0.2678  0.7092
43779SOL     OW43060   7.541  11.173   2.240 -0.0196 -0.3335 -0.1748
43779SOL    HW143061   7.622  11.217   2.215 -0.5935 -0.2021 -1.9216
43779SOL    HW243062   7.494  11.237   2.293  0.1340  0.3573 -0.8564
43780SOL     OW43063   7.598   8.642  11.206  0.2209 -0.3947 -0.7833
43780SOL    HW143064   7.634   8.583  11.139 -0.0139 -0.2784 -1.0140
43780SOL    HW243065   7.651   8.626  11.284 -0.3267 -1.4610 -0.6166
43781SOL     OW43066   2.743   8.295   4.426  0.5610  0.1044  0.2123
43781SOL    HW143067   2.805   8.323   4.359  0.7003 -0.2450  0.1909
43781SOL    HW243068   2.779   8.213   4.459 -0.9917 -1.2769 -1.3251
43782SOL     OW43069   3.021   7.910   7.035  0.5302  0.4779  0.6208
43782SOL    HW143070   2.949   7.951   6.986  2.0977  0.8538 -1.4895
43782SOL    HW243071   3.055   7.980   7.091  0.9532  1.0835 -0.3742
43783SOL     OW43072   0.691  10.196   6.895  0.7859 -0.1374  0.4589
43783SOL    HW143073   0.751  10.211   6.822  0.3612 -1.2917 -0.1651
43783SOL    HW243074   0.737  10.134   6.951  1.0169  0.5711  1.0637
43784SOL     OW43075   5.207  11.622  10.008 -0.5833 -0.3155 -0.2064
43784SOL    HW143076   5.134  11.682   9.990  0.1679  1.0237  1.0435
43784SOL    HW243077   5.174  11.564  10.076 -0.0798  1.2313  1.4489
43785SOL     OW43078  10.126   2.837   7.024 -0.2407 -0.0412  0.1948
43785SOL    HW143079  10.065   2.796   7.085  0.0543  1.4427  1.5772
43785SOL    HW243080  10.070   2.888   6.965 -0.6225 -2.4446 -1.6614
43786SOL     OW43081   1.903   9.240   4.935 -0.5528 -0.3405 -0.3322
43786SOL    HW143082   1.850   9.201   4.865  0.0780  0.7520 -1.4729
43786SOL    HW243083   1.961   9.301   4.889  0.9530 -0.7138  0.9896
43787SOL     OW43084   8.750  11.109  11.486  0.2953  0.0546 -0.2551
43787SOL    HW143085   8.699  11.028  11.499  0.7799  0.0694  2.1608
43787SOL    HW243086   8.839  11.079  11.468  0.3276  0.0476 -0.0841
43788SOL     OW43087   1.728   2.379  11.040  0.5448 -0.8125 -0.7656
43788SOL    HW143088   1.777   2.454  11.075 -0.7156 -1.6678  3.3237
43788SOL    HW243089   1.687   2.413  10.960  2.2547  1.9791 -0.5857
43789SOL     OW43090   3.652   9.591   0.626 -0.1483  0.2138  0.1481
43789SOL    HW143091   3.680   9.624   0.712  2.1185  0.6449 -0.7022
43789SOL    HW243092   3.557   9.582   0.635 -0.1904  1.7707  2.1848
43790SOL     OW43093   0.719   5.135   8.806  0.1379  0.3971  0.6833
43790SOL    HW143094   0.751   5.218   8.840  0.5673  1.5212 -2.2210
43790SOL    HW243095   0.624   5.146   8.801  0.0634  0.1870  1.5705
43791SOL     OW43096   9.796   4.574   9.710  0.0634 -0.4340 -0.3459
43791SOL    HW143097   9.703   4.557   9.694 -0.6950  2.9038 -0.2113
43791SOL    HW243098   9.826   4.499   9.762 -2.5333 -1.5643 -0.3372
43792SOL     OW43099   7.796  10.199   3.041  0.5869 -0.2738  0.4007
43792SOL    HW143100   7.709  10.161   3.030  0.8136 -0.3296 -1.7135
43792SOL    HW243101   7.854  10.123   3.047  0.4184 -0.2581  3.1610
43793SOL     OW43102   2.740   6.793   1.562 -0.4990 -0.0013  0.3498
43793SOL    HW143103   2.753   6.864   1.625 -1.0262  0.1736  0.2641
43793SOL    HW243104   2.645   6.790   1.549 -0.2930  0.9384 -1.5836
43794SOL     OW43105   7.098   0.620   6.941  0.1938 -0.7018 -0.7407
43794SOL    HW143106   7.048   0.674   6.880  0.3711 -0.4879 -0.6987
43794SOL    HW243107   7.058   0.533   6.936 -1.0705 -0.2109  0.2960
43795SOL     OW43108  10.318   0.073   4.955  0.5319 -0.0217 -0.5917
43795SOL    HW143109  10.405   0.063   4.993  0.2971  1.1693  0.3291
43795SOL    HW243110  10.262   0.013   5.004  0.6139  0.0563 -0.4038
43796SOL     OW43111   9.263   8.411   7.195 -0.4059 -0.1865  0.2466
43796SOL    HW143112   9.346   8.368   7.214 -0.6469  0.0946  2.0550
43796SOL    HW243113   9.197   8.356   7.236 -0.8236  1.1595  1.4707
43797SOL     OW43114  11.464   6.309   8.412  0.2180 -0.3347 -0.1285
43797SOL    HW143115  11.518   6.246   8.363 -0.8680 -0.3658 -1.3294
43797SOL    HW243116  11.482   6.393   8.370  0.6806 -0.0432  0.6379
43798SOL     OW43117   5.624   5.093   6.259 -0.1281 -0.0935 -0.1266
43798SOL    HW143118   5.600   5.178   6.222  0.5584  0.4899  0.7219
43798SOL    HW243119   5.571   5.086   6.339  1.4959  0.6357  1.0768
43799SOL     OW43120   3.481  11.228   2.547  0.0038 -0.5073  0.5103
43799SOL    HW143121   3.489  11.139   2.582 -0.3496 -0.8465 -0.2343
43799SOL    HW243122   3.487  11.216   2.452 -1.7760  0.0524  0.2957
43800SOL     OW43123   5.096   8.204  10.871 -0.7474 -0.2577  0.3990
43800SOL    HW143124   5.097   8.297  10.849  1.2965 -0.7196 -1.8410
43800SOL    HW243125   5.173   8.191  10.926 -1.6035 -0.5112  1.5952
43801SOL     OW43126  11.948   5.850   1.020 -0.8497  0.1848 -1.2160
43801SOL    HW143127  11.864   5.895   1.018  0.5093  3.2690  1.6806
43801SOL    HW243128  11.961   5.827   1.111  1.8650  0.7567 -1.3846
43802SOL     OW43129   5.107   4.637   7.554 -0.3799  1.1998 -0.6819
43802SOL    HW143130   5.149   4.712   7.596  0.0662  1.1021 -0.9511
43802SOL    HW243131   5.146   4.561   7.597 -2.4082  1.0965  1.1642
43803SOL     OW43132   9.161  11.754  11.848  0.1044  0.0468 -0.4890
43803SOL    HW143133   9.102  11.776  11.776  0.7429 -0.8685 -1.3116
43803SOL    HW243134   9.248  11.774  11.815  0.3049  1.3420  0.7031
43804SOL     OW43135   0.553   1.326   2.752  0.5718  0.1358  0.5079
43804SOL    HW143136   0.500   1.358   2.825  0.5816  1.8180 -0.1771
43804SOL    HW243137   0.589   1.405   2.712 -0.0367 -0.6770 -1.7798
43805SOL     OW43138   4.216   4.609   2.259 -0.0068 -0.0295  0.2792
43805SOL    HW143139   4.250   4.574   2.177  0.1547 -0.1754  0.4043
43805SOL    HW243140   4.149   4.546   2.286 -1.0710  0.7615 -0.4513
43806SOL     OW43141   3.837   3.342   2.473 -0.5399 -0.2061 -0.0919
43806SOL    HW143142   3.872   3.421   2.514 -0.0299  0.4641 -1.7574
43806SOL    HW243143   3.910   3.304   2.426 -1.2501 -0.5933 -0.9146
43807SOL     OW43144   7.241   7.367   5.300 -0.3621  0.1826  0.1675
43807SOL    HW143145   7.193   7.285   5.292  1.2820 -0.7520 -0.7334
43807SOL    HW243146   7.182   7.433   5.264 -0.5987 -1.0725 -1.8980
43808SOL     OW43147   4.127  10.003  10.941  0.6700  0.2788  0.0980
43808SOL    HW143148   4.038   9.968  10.934 -0.4293  2.4341  2.1562
43808SOL    HW243149   4.155  10.014  10.850 -2.2721  2.0990 -0.7401
43809SOL     OW43150   6.774   4.620   9.877  0.3764  0.3102 -0.0129
43809SOL    HW143151   6.830   4.641   9.952  1.7504 -1.9158 -0.3220
43809SOL    HW243152   6.695   4.582   9.916  0.2760  0.8608  0.3361
43810SOL     OW43153   1.315   0.313   8.797  0.0326  0.5405  0.1358
43810SOL    HW143154   1.224   0.292   8.815  0.0918 -0.7035 -0.9006
43810SOL    HW243155   1.362   0.287   8.875 -0.3666  0.1498  0.2492
43811SOL     OW43156   7.266   9.288  10.043 -0.1083  0.1350  0.2103
43811SOL    HW143157   7.282   9.238   9.963  0.0421  1.7106 -0.7903
43811SOL    HW243158   7.192   9.244  10.085 -0.5038 -0.4329 -1.0426
43812SOL     OW43159   8.133   9.237   0.227 -0.0564 -0.3045 -0.1777
43812SOL    HW143160   8.173   9.171   0.171 -0.3643 -0.8587  0.2470
43812SOL    HW243161   8.054   9.195   0.262  0.5972 -0.3041  1.3729
43813SOL     OW43162   0.579   3.005   3.837 -0.4947 -0.2395  0.2639
43813SOL    HW143163   0.638   2.984   3.909 -1.2517  0.4264  1.1091
43813SOL    HW243164   0.527   2.926   3.824  0.4038 -0.7504 -0.3334
43814SOL     OW43165  11.514   0.638   4.383  0.0294  0.5633 -0.2828
43814SOL    HW143166  11.464   0.680   4.312 -1.2290 -0.9344 -0.3528
43814SOL    HW243167  11.578   0.583   4.337  0.1986  0.7220 -0.2348
43815SOL     OW43168  11.239   8.059   6.598 -0.0004 -0.1814 -0.1200
43815SOL    HW143169  11.296   8.109   6.539  1.0873 -0.4785  0.6454
43815SOL    HW243170  11.261   8.090   6.686  0.4002 -1.6721  0.3452
43816SOL     OW43171   5.429   6.990   5.879 -0.0949 -0.0520 -0.2579
43816SOL    HW143172   5.443   6.991   5.974 -0.2893  1.1676 -0.2331
43816SOL    HW243173   5.422   6.897   5.857  2.3143 -0.4974  0.5662
43817SOL     OW43174   1.063   4.264   9.380 -0.5881 -0.2353  0.0033
43817SOL    HW143175   0.968   4.259   9.382 -0.5470 -1.4840  0.0168
43817SOL    HW243176   1.092   4.176   9.407  0.5693  0.2539  0.4316
43818SOL     OW43177   9.566   0.882   6.665  0.1823 -0.6911 -0.7570
43818SOL    HW143178   9.657   0.857   6.649  0.1286 -0.8131 -0.8768
43818SOL    HW243179   9.516   0.804   6.641  0.0127 -0.4716 -1.1271
43819SOL     OW43180   8.578   6.905   9.531  0.2287  0.0549 -0.1603
43819SOL    HW143181   8.638   6.830   9.531  0.9910  0.6413  0.7778
43819SOL    HW243182   8.504   6.876   9.477  0.4739 -1.3990  0.2302
43820SOL     OW43183   0.790   3.142  11.374 -0.2767 -0.2978  0.0733
43820SOL    HW143184   0.747   3.066  11.413 -0.4238  0.2932  1.1002
43820SOL    HW243185   0.780   3.130  11.280 -0.5091 -1.4209  0.2335
43821SOL     OW43186   8.689   5.356   5.070  0.3086 -0.3377 -0.2146
43821SOL    HW143187   8.694   5.441   5.026 -0.7442  0.5670  1.3209
43821SOL    HW243188   8.778   5.320   5.064  1.1833  1.5939  0.4595
43822SOL     OW43189   0.804  11.229   6.405 -0.2610 -0.6333 -0.4303
43822SOL    HW143190   0.843  11.231   6.492 -1.4455  0.7781  0.1057
43822SOL    HW243191   0.879  11.236   6.345  0.6620 -2.6658  0.3910
43823SOL     OW43192   6.288   9.661   7.386  0.0777 -0.4470  0.4928
43823SOL    HW143193   6.207   9.665   7.335  0.6074 -0.5378 -0.3711
43823SOL    HW243194   6.304   9.752   7.413 -0.0651 -0.3511  0.2633
43824SOL     OW43195   6.807   5.525   1.542 -0.6377  0.1194  0.1332
43824SOL    HW143196   6.855   5.480   1.612 -1.9927 -0.8976  0.4601
43824SOL    HW243197   6.834   5.616   1.549  1.3815 -0.4208  0.1475
43825SOL     OW43198   3.765  11.400   3.330  0.2606 -0.3388  0.0367
43825SOL    HW143199   3.830  11.348   3.378  1.1293  0.1115 -0.6333
43825SOL    HW243200   3.722  11.452   3.398 -2.3223 -3.5497  1.1442
43826SOL     OW43201   3.253   8.586  10.961  0.1076  0.3323  0.2074
43826SOL    HW143202   3.162   8.599  10.935 -0.0530 -2.5643 -1.1284
43826SOL    HW243203   3.301   8.654  10.915 -1.2625  1.2245  0.0434
43827SOL     OW43204   6.754   8.996  11.111 -0.1017  0.4181  0.6811
43827SOL    HW143205   6.757   8.903  11.088  0.7915  0.7669 -0.7190
43827SOL    HW243206   6.845   9.021  11.125 -0.2221  1.3452 -0.0798
43828SOL     OW43207   4.427   6.566   7.899 -0.6188 -0.0862 -0.1580
43828SOL    HW143208   4.386   6.497   7.847  1.9986  0.4349 -3.2505
43828SOL    HW243209   4.496   6.522   7.948  0.1849  0.0953 -1.1002
43829SOL     OW43210   1.309   7.542  11.288 -0.1295  0.1235  0.3644
43829SOL    HW143211   1.342   7.574  11.204  0.3272  0.3317  0.6163
43829SOL    HW243212   1.222   7.580  11.296  0.2252  0.9386  0.4412
43830SOL     OW43213   7.232  10.684   3.338  0.2692 -0.3609  0.2546
43830SOL    HW143214   7.219  10.614   3.403  1.0723  0.6369  1.5444
43830SOL    HW243215   7.145  10.699   3.301 -0.1061 -1.3100  0.7182
43831SOL     OW43216   2.567   3.020   0.205 -0.3216 -0.5184 -0.1872
43831SOL    HW143217   2.477   2.986   0.207 -0.6214  0.2789  0.4345
43831SOL    HW243218   2.564   3.093   0.144  0.1121 -1.0006 -0.8076
43832SOL     OW43219   1.781   4.000   4.565  0.7728 -0.3786  0.5086
43832SOL    HW143220   1.705   3.969   4.614 -0.5346 -0.7164 -1.6343
43832SOL    HW243221   1.766   4.094   4.554  0.5018 -0.4976 -0.1682
43833SOL     OW43222   3.152  11.231   8.915  0.3144  0.5317 -0.1467
43833SOL    HW143223   3.075  11.175   8.920  0.7050  0.0953  1.9652
43833SOL    HW243224   3.153  11.279   8.998  1.6185  1.4749 -0.6689
43834SOL     OW43225   5.499   3.663   4.088 -0.2184  0.2858 -0.5953
43834SOL    HW143226   5.405   3.656   4.100 -0.1075 -1.1571 -0.3549
43834SOL    HW243227   5.519   3.604   4.015  0.5776 -0.0498 -0.1253
43835SOL     OW43228   6.272   5.250   5.577  0.1418 -0.0082 -0.4635
43835SOL    HW143229   6.303   5.199   5.502 -0.8282 -0.3080 -0.6817
43835SOL    HW243230   6.177   5.240   5.575  0.0821  0.1754  0.6796
43836SOL     OW43231   7.191   7.709   4.806 -0.0462  0.3268  0.1164
43836SOL    HW143232   7.203   7.801   4.781  1.0217  0.3160  0.5417
43836SOL    HW243233   7.113   7.681   4.758  1.5232  0.4777 -2.7345
43837SOL     OW43234   5.443   4.078   5.204 -0.1371  0.5074  0.0619
43837SOL    HW143235   5.525   4.039   5.172 -0.6054  0.3689 -1.0065
43837SOL    HW243236   5.431   4.156   5.150  0.2316  1.5787  1.4663
43838SOL     OW43237   6.059   7.136   6.658  0.0430 -0.0166 -0.4144
43838SOL    HW143238   6.045   7.072   6.727 -0.5056  0.7285  0.1796
43838SOL    HW243239   6.087   7.084   6.583 -1.8963 -1.1544 -0.4345
43839SOL     OW43240   5.041   7.670   5.851 -0.3167 -0.6773  0.0270
43839SOL    HW143241   5.094   7.672   5.771 -0.1352  0.2915  0.1552
43839SOL    HW243242   4.951   7.659   5.820 -0.1517 -1.3103 -0.2465
43840SOL     OW43243   3.581   7.954   4.409 -0.5760  0.2868 -0.0645
43840SOL    HW143244   3.675   7.973   4.411 -0.5841  0.4808 -1.0448
43840SOL    HW243245   3.563   7.931   4.317 -1.8500  2.1438 -0.3260
43841SOL     OW43246   7.709   1.260   2.696 -0.0878 -0.0625 -0.4466
43841SOL    HW143247   7.664   1.334   2.656 -0.5993  0.6255  1.2950
43841SOL    HW243248   7.788   1.248   2.644 -1.2979 -0.0291 -2.3808
43842SOL     OW43249   4.830  11.751   3.304  0.3283 -0.6081 -0.3431
43842SOL    HW143250   4.740  11.766   3.277  0.3074  0.9045  0.4567
43842SOL    HW243251   4.823  11.721   3.395  0.6523  0.1006 -0.0807
43843SOL     OW43252   2.028  11.300   1.517 -0.2691  0.0742  0.2736
43843SOL    HW143253   2.085  11.278   1.590 -1.9475  1.0332  1.9477
43843SOL    HW243254   2.023  11.395   1.518 -1.4515  0.0366 -0.1892
43844SOL     OW43255  11.889   2.968   2.286  0.5539  0.8600 -0.2053
43844SOL    HW143256  11.900   2.911   2.362  0.9051  1.5947  0.2999
43844SOL    HW243257  11.894   2.908   2.211 -0.9292 -0.0236  0.3706
43845SOL     OW43258   6.196   3.347   3.366  0.2875  0.4308  0.2437
43845SOL    HW143259   6.279   3.307   3.341  0.1876  0.3275  0.0677
43845SOL    HW243260   6.180   3.316   3.455 -1.3685 -2.6471 -0.9439
43846SOL     OW43261   7.991   1.786  10.983  0.1008  0.2701 -0.2415
43846SOL    HW143262   7.899   1.811  10.974  0.3034  0.5526 -1.7639
43846SOL    HW243263   8.038   1.869  10.982  0.4417  0.0745 -0.2908
43847SOL     OW43264  11.314   7.346   9.465  0.4759 -0.1798  0.1650
43847SOL    HW143265  11.366   7.277   9.423  1.2136 -0.2113  1.0959
43847SOL    HW243266  11.367   7.374   9.539 -0.4507  0.4233  0.6148
43848SOL     OW43267   6.847   1.151  10.963 -0.3360  0.3799  0.7593
43848SOL    HW143268   6.931   1.115  10.991 -1.0412 -1.5344  0.5780
43848SOL    HW243269   6.785   1.121  11.030 -1.3308 -0.7144 -0.5976
43849SOL     OW43270   3.560   5.562   1.400  0.4364 -0.0883 -0.1614
43849SOL    HW143271   3.637   5.565   1.344  0.0406 -0.3233 -0.7203
43849SOL    HW243272   3.487   5.582   1.342 -0.6045 -4.7773 -0.8161
43850SOL     OW43273  11.003  10.599  10.186 -0.2381 -0.0450  0.6950
43850SOL    HW143274  11.069  10.634  10.126 -0.7349 -1.5166 -0.7717
43850SOL    HW243275  11.043  10.608  10.273  1.4400  0.1027 -0.0554
43851SOL     OW43276   7.120   7.304   9.855 -0.0103  0.0069 -0.1946
43851SOL    HW143277   7.130   7.377   9.795  0.2639 -0.6145 -0.9185
43851SOL    HW243278   7.054   7.248   9.814 -0.1056 -0.2332  0.2724
43852SOL     OW43279   3.863   2.255   5.821  0.2528  0.0189 -0.3200
43852SOL    HW143280   3.842   2.164   5.801  0.7323 -0.6037  1.7717
43852SOL    HW243281   3.805   2.277   5.894 -1.1245  2.0019 -1.9149
43853SOL     OW43282   7.510  10.992   7.772  0.7278  0.4491  0.2566
43853SOL    HW143283   7.547  10.933   7.707  0.0424  1.0664 -0.7281
43853SOL    HW243284   7.556  11.075   7.759 -2.6416  2.1189 -2.9101
43854SOL     OW43285   0.588   2.588   8.300  0.1598 -0.2554 -0.1567
43854SOL    HW143286   0.508   2.542   8.327 -1.9425  1.4233 -2.9920
43854SOL    HW243287   0.609   2.551   8.215  0.7759  1.2240 -0.6779
43855SOL     OW43288   9.415   6.255   4.549  0.1444  0.0924  0.5720
43855SOL    HW143289   9.321   6.249   4.567  0.3232  0.3607  1.6719
43855SOL    HW243290   9.420   6.272   4.455 -0.8916 -0.3062  0.4305
43856SOL     OW43291   6.075   9.303   4.490 -0.4385  0.1731  0.3583
43856SOL    HW143292   6.162   9.281   4.524  0.0687  0.1000 -0.9529
43856SOL    HW243293   6.022   9.226   4.508 -0.0861 -0.0053  0.6428
43857SOL     OW43294   8.899   6.732  10.601 -0.4895 -0.1099 -0.1641
43857SOL    HW143295   8.962   6.750  10.671 -0.3177 -0.4072 -0.2398
43857SOL    HW243296   8.828   6.686  10.645 -1.5924  1.9175  0.3041
43858SOL     OW43297   0.377   0.230   6.166 -0.2543  0.1392  0.4793
43858SOL    HW143298   0.442   0.299   6.149  2.5206 -2.0592  1.3528
43858SOL    HW243299   0.360   0.237   6.260 -2.1957  1.3272  0.1021
43859SOL     OW43300   7.388  11.666  11.399 -0.2213  0.0718  0.2012
43859SOL    HW143301   7.402  11.587  11.450  0.0754 -0.4574 -0.6790
43859SOL    HW243302   7.474  11.708  11.396 -0.0752 -0.2482 -0.4091
43860SOL     OW43303   5.930   5.263   3.023 -0.7229  0.0845 -0.0362
43860SOL    HW143304   5.878   5.331   3.067 -0.5846  0.2821 -0.1747
43860SOL    HW243305   5.925   5.188   3.082 -1.4093  0.0003 -0.1894
43861SOL     OW43306   0.065   1.974   3.065  0.6160 -0.8416 -0.5598
43861SOL    HW143307   0.112   1.967   3.148  1.4098 -1.1689 -1.0139
43861SOL    HW243308   0.132   1.954   2.999 -0.3183 -1.9416 -1.2074
43862SOL     OW43309   3.413   5.949   8.652  0.1145 -0.0862  0.5374
43862SOL    HW143310   3.499   5.949   8.610  0.8521 -2.4422  1.8511
43862SOL    HW243311   3.415   6.025   8.710  0.7373  0.7117 -0.5052
43863SOL     OW43312  11.916   0.784  10.497  0.1177  0.5123 -0.2196
43863SOL    HW143313  11.955   0.793  10.584 -1.7426 -0.3256  0.7521
43863SOL    HW243314  11.971   0.718  10.454  2.0825  2.1330 -0.3805
43864SOL     OW43315   7.252   1.070   0.646 -0.5172  0.0999  0.1113
43864SOL    HW143316   7.212   1.029   0.722  1.6467  1.1513  1.9640
43864SOL    HW243317   7.313   1.004   0.612 -0.3942  0.1406  0.2484
43865SOL     OW43318   7.602   1.812   3.884 -0.3032 -0.4258 -0.2160
43865SOL    HW143319   7.552   1.730   3.878 -2.4328  0.6319  1.5094
43865SOL    HW243320   7.539   1.880   3.863  0.6748  0.9257  1.0267
43866SOL     OW43321   9.622   1.877   5.214 -0.0877  0.2188 -0.9364
43866SOL    HW143322   9.659   1.790   5.204 -0.7939 -0.3218  0.8143
43866SOL    HW243323   9.581   1.876   5.300 -2.2094  1.4979 -1.8597
43867SOL     OW43324   7.755   6.942   0.691  0.1177  0.2609  0.0969
43867SOL    HW143325   7.697   6.868   0.676  0.8894 -0.1092 -1.2526
43867SOL    HW243326   7.840   6.902   0.711  0.8028  0.7406 -1.7019
43868SOL     OW43327   5.500   7.018   8.275  0.4513  0.0252  0.0279
43868SOL    HW143328   5.532   6.927   8.278  0.2611 -0.0944 -1.0689
43868SOL    HW243329   5.422   7.014   8.220 -1.0847  0.4430  2.0591
43869SOL     OW43330   1.512   1.520   2.899 -0.3142  0.0709 -0.1219
43869SOL    HW143331   1.488   1.494   2.987 -2.7713 -0.0696 -0.7524
43869SOL    HW243332   1.577   1.590   2.911  0.4225 -0.8786  1.7207
43870SOL     OW43333   3.953   3.517   3.272 -0.0503 -0.3489 -0.2524
43870SOL    HW143334   3.989   3.539   3.186  0.3326 -0.7919 -0.2095
43870SOL    HW243335   3.925   3.601   3.308  1.9005  0.1811  0.1468
43871SOL     OW43336  10.644   2.902   7.559  0.1888  0.4069 -0.4413
43871SOL    HW143337  10.707   2.832   7.541 -0.1709 -0.3742  1.1321
43871SOL    HW243338  10.559   2.865   7.535 -0.0205  0.2144  0.5360
43872SOL     OW43339   4.823   8.971   4.870  0.0897 -0.1923 -0.4222
43872SOL    HW143340   4.730   8.989   4.882  0.3158  1.8453 -1.4276
43872SOL    HW243341   4.868   9.040   4.920  1.0697 -0.7005 -0.5636
43873SOL     OW43342   7.866   3.463   8.852 -1.0042 -0.2364 -0.2751
43873SOL    HW143343   7.907   3.530   8.907  1.8546 -2.3313  0.4235
43873SOL    HW243344   7.852   3.389   8.912  0.3605 -1.8842 -1.8675
43874SOL     OW43345   7.259   6.970   8.630 -0.0217  0.1701  0.2841
43874SOL    HW143346   7.292   6.915   8.560  1.2231 -0.6357  1.4591
43874SOL    HW243347   7.248   7.056   8.590 -0.7713 -0.6090 -1.2480
43875SOL     OW43348  10.611   3.007   1.265 -0.0482  0.5679 -0.4277
43875SOL    HW143349  10.533   3.061   1.250  0.9252  2.0162 -0.4756
43875SOL    HW243350  10.649   2.996   1.178 -1.3383 -2.0467 -0.7613
43876SOL     OW43351   2.847   9.585   7.319  0.0172  0.0634 -0.2555
43876SOL    HW143352   2.834   9.588   7.224  0.9436 -0.1332 -0.4016
43876SOL    HW243353   2.844   9.492   7.341  2.1637 -0.1238 -0.4821
43877SOL     OW43354   5.199   8.839   9.311  0.6609  0.2468 -0.3808
43877SOL    HW143355   5.281   8.804   9.275  1.3035  3.0705 -1.9390
43877SOL    HW243356   5.131   8.804   9.254  1.2093  0.9572 -1.4991
43878SOL     OW43357   4.091   8.097   1.836  0.3733  1.2053  0.2137
43878SOL    HW143358   4.110   8.028   1.900 -1.0011  1.4227  0.9076
43878SOL    HW243359   4.168   8.153   1.837  0.7814  0.6495  0.9691
43879SOL     OW43360   5.624   9.753   8.738  0.2491  0.1573 -1.0967
43879SOL    HW143361   5.650   9.822   8.678  1.6353  0.3586 -0.2922
43879SOL    HW243362   5.674   9.769   8.818 -2.2870  0.5172  0.5502
43880SOL     OW43363   6.904   8.605   0.514  0.0341 -0.2214 -1.1333
43880SOL    HW143364   6.957   8.614   0.594 -1.1145 -1.8140 -0.1388
43880SOL    HW243365   6.908   8.512   0.492 -4.3908 -1.0598  0.5903
43881SOL     OW43366   2.005  11.345  10.222  0.1208  0.2737 -0.4850
43881SOL    HW143367   1.920  11.385  10.242  0.0285 -0.4459  0.6453
43881SOL    HW243368   1.983  11.272  10.163 -0.3939 -1.3921  1.6327
43882SOL     OW43369   6.908   6.259   5.775  0.0749 -0.1025  0.5839
43882SOL    HW143370   6.950   6.315   5.840  0.1429 -1.4941  1.7886
43882SOL    HW243371   6.969   6.186   5.762 -0.3398 -0.3004 -0.3925
43883SOL     OW43372   3.436   6.091   7.537  0.0943 -0.4489 -0.3124
43883SOL    HW143373   3.505   6.026   7.530  1.4183  0.4283  2.9389
43883SOL    HW243374   3.478   6.166   7.578 -2.1091  1.3454 -1.1213
43884SOL     OW43375   3.264   9.569   8.484 -0.1845 -0.3199 -0.2583
43884SOL    HW143376   3.200   9.549   8.416 -0.9410 -0.6468  0.5196
43884SOL    HW243377   3.322   9.493   8.485 -0.5714 -0.6207 -0.1018
43885SOL     OW43378   0.607   7.225  11.502 -0.0594 -0.5422  0.5583
43885SOL    HW143379   0.544   7.297  11.503  1.3442  0.7453 -0.2469
43885SOL    HW243380   0.680   7.256  11.555  0.9077 -1.0269 -0.4411
43886SOL     OW43381   9.445   9.230   7.402 -0.2846  0.3520  0.3219
43886SOL    HW143382   9.409   9.262   7.319  0.9278  1.5710  0.2116
43886SOL    HW243383   9.540   9.231   7.388 -0.1007 -0.3873  1.4013
43887SOL     OW43384   2.848   5.346   4.367  0.5078  0.2880  0.2387
43887SOL    HW143385   2.868   5.284   4.437 -0.5722  0.5651  0.8225
43887SOL    HW243386   2.835   5.292   4.290 -0.6662 -0.2655  0.7994
43888SOL     OW43387  11.718   9.525  10.100 -0.0221 -0.2849  0.0080
43888SOL    HW143388  11.785   9.481  10.047 -0.2944  0.1567 -0.7015
43888SOL    HW243389  11.654   9.457  10.118 -0.3916 -0.2137 -1.0041
43889SOL     OW43390   8.366   7.298   5.246  0.0375  0.7059 -0.9386
43889SOL    HW143391   8.411   7.382   5.242  2.9184 -0.4677  2.3264
43889SOL    HW243392   8.283   7.317   5.290  2.0426  1.5873  2.8576
43890SOL     OW43393  10.010   2.215  11.106  0.2740  0.4212  0.0661
43890SOL    HW143394   9.958   2.296  11.111 -1.4342 -0.6764  1.0383
43890SOL    HW243395  10.032   2.196  11.198  0.5086 -0.3232 -0.1404
43891SOL     OW43396   6.856   1.664   9.388  0.2698  0.0863  0.1250
43891SOL    HW143397   6.766   1.693   9.374  0.5433  0.2938 -1.3354
43891SOL    HW243398   6.896   1.734   9.440 -0.3484  0.0760  0.6241
43892SOL     OW43399  11.351   4.363   5.490 -0.2658  0.8779  0.3931
43892SOL    HW143400  11.438   4.402   5.493 -0.5625  1.5174  0.9494
43892SOL    HW243401  11.361   4.277   5.530  0.1545  0.8606  0.2527
43893SOL     OW43402   5.023   9.384   7.874  0.2868  0.2115  0.3005
43893SOL    HW143403   4.988   9.310   7.924  0.8066  1.6506  2.9725
43893SOL    HW243404   4.975   9.381   7.791 -2.1604 -1.1321  1.6290
43894SOL     OW43405   7.300   9.527   4.962 -0.6198 -0.5743 -0.1696
43894SOL    HW143406   7.261   9.594   4.906 -2.4587 -1.7581 -0.3819
43894SOL    HW243407   7.391   9.524   4.935 -0.6313  1.3677 -0.6078
43895SOL     OW43408   1.053   4.145   8.862  0.1725 -0.5511 -0.3840
43895SOL    HW143409   1.082   4.235   8.845  1.1030 -0.8800 -0.5945
43895SOL    HW243410   0.967   4.155   8.903  0.6301  0.4719  0.3675
43896SOL     OW43411   3.254   8.309   7.870 -0.0840  0.1566  0.9079
43896SOL    HW143412   3.318   8.277   7.933  0.5752  1.8622  1.1582
43896SOL    HW243413   3.179   8.336   7.925  0.7149  2.1821  1.0864
43897SOL     OW43414   4.496   7.904   6.439 -0.4153 -0.1085 -0.3121
43897SOL    HW143415   4.484   7.953   6.357  0.4441  0.9279  0.1608
43897SOL    HW243416   4.590   7.887   6.442  0.1297  2.6475  1.9671
43898SOL     OW43417   4.858   2.513   4.594 -0.5430 -0.5637  1.1723
43898SOL    HW143418   4.769   2.528   4.563 -0.6881 -1.6391  1.0065
43898SOL    HW243419   4.887   2.597   4.628 -1.2421  0.0558  0.2739
43899SOL     OW43420   1.269   7.336  11.500 -0.4478 -0.0536 -0.1559
43899SOL    HW143421   1.196   7.292  11.456 -0.9614 -0.3421  0.9393
43899SOL    HW243422   1.305   7.395  11.434 -1.5581 -0.0375 -0.7781
43900SOL     OW43423   4.908   8.835   5.111  0.6903  0.1666  0.3673
43900SOL    HW143424   4.880   8.874   5.028 -0.5358  0.1603  0.7512
43900SOL    HW243425   4.973   8.769   5.086  1.3957  1.1395 -0.4489
43901SOL     OW43426  10.569   2.089   7.588 -0.8908  0.6164  0.1415
43901SOL    HW143427  10.583   2.027   7.517  0.7365 -0.5231  1.3847
43901SOL    HW243428  10.539   2.169   7.545 -1.5920 -0.5515 -1.6370
43902SOL     OW43429   3.086   4.917   1.577  0.0252 -0.3619 -0.7531
43902SOL    HW143430   3.153   4.960   1.631  2.0931 -1.2539 -2.4358
43902SOL    HW243431   3.055   4.844   1.631  1.3392 -0.6594 -0.3494
43903SOL     OW43432   9.167   8.761   7.386 -0.3373  0.7778 -0.4728
43903SOL    HW143433   9.158   8.683   7.330 -1.4793 -0.1901  0.9665
43903SOL    HW243434   9.238   8.811   7.346  1.8483 -1.9832 -0.3632
43904SOL     OW43435   5.644   7.047   0.680 -0.3299 -0.0584 -0.6051
43904SOL    HW143436   5.627   6.959   0.713 -1.0606 -0.1872 -1.3084
43904SOL    HW243437   5.686   7.092   0.754  1.5776 -1.4564 -0.7654
43905SOL     OW43438  10.352   0.537   1.549  0.3809 -0.4861  0.5227
43905SOL    HW143439  10.257   0.540   1.559  0.1594  2.4353 -1.1731
43905SOL    HW243440  10.369   0.587   1.469  3.4110  0.1643  1.4532
43906SOL     OW43441   2.498  10.540   7.377  0.2355  0.2058  0.2153
43906SOL    HW143442   2.494  10.632   7.404  0.8237  0.1389  0.5376
43906SOL    HW243443   2.571  10.536   7.315  0.7588 -0.2021  0.8473
43907SOL     OW43444   2.538   0.425   0.713 -0.4892 -0.0761  0.2160
43907SOL    HW143445   2.487   0.484   0.769 -0.1688  0.2577  0.1579
43907SOL    HW243446   2.484   0.415   0.634 -1.2855 -1.1256  0.8647
43908SOL     OW43447   7.850   9.537   2.926 -0.0627 -0.2121 -0.0658
43908SOL    HW143448   7.873   9.615   2.978 -2.3739  2.2166 -2.3757
43908SOL    HW243449   7.797   9.484   2.985 -2.0043  2.1038  0.4189
43909SOL     OW43450   2.346   4.681   3.447  0.0888 -0.6005  0.2101
43909SOL    HW143451   2.252   4.662   3.447  0.1941 -1.1904 -0.4583
43909SOL    HW243452   2.354   4.764   3.401 -0.1410 -0.3144  0.6772
43910SOL     OW43453  10.229   6.143   5.089 -0.1126  0.0554 -0.8857
43910SOL    HW143454  10.254   6.067   5.036  0.2667 -0.6939  0.3353
43910SOL    HW243455  10.172   6.194   5.032  0.6362 -0.4930 -2.1709
43911SOL     OW43456  11.446   2.492   0.343 -0.5495 -1.1164  0.1723
43911SOL    HW143457  11.379   2.454   0.400  0.5771 -4.1086 -0.2665
43911SOL    HW243458  11.526   2.489   0.395 -0.1636 -0.5668 -0.3768
43912SOL     OW43459   2.805   8.423  11.752  0.2150 -0.1746 -0.0718
43912SOL    HW143460   2.857   8.418  11.833  1.4559  0.7482 -0.7634
43912SOL    HW243461   2.799   8.517  11.734 -0.2804 -0.3619 -0.8950
43913SOL     OW43462   4.651   7.874   3.604 -0.6384  0.2319 -0.4667
43913SOL    HW143463   4.662   7.957   3.557 -0.7774 -0.1575 -1.1978
43913SOL    HW243464   4.722   7.818   3.571 -0.6253  0.0150 -0.0744
43914SOL     OW43465   5.281   4.692   0.143  0.5328  0.1446 -0.1549
43914SOL    HW143466   5.272   4.668   0.235 -1.5530 -0.9191 -0.5942
43914SOL    HW243467   5.372   4.668   0.121  1.6258  1.9496  1.9873
43915SOL     OW43468   1.806   7.983   8.947  0.4157 -0.0514 -0.0784
43915SOL    HW143469   1.883   8.026   8.911 -0.0743 -0.3916 -1.6179
43915SOL    HW243470   1.733   8.041   8.925  0.0330 -0.5640 -0.1992
43916SOL     OW43471   8.153   1.767   7.155  0.1486  0.1500  0.2405
43916SOL    HW143472   8.179   1.854   7.187 -0.9715  0.0023  1.6661
43916SOL    HW243473   8.071   1.748   7.201 -0.1573 -1.2462 -0.8109
43917SOL     OW43474  10.600   6.912   9.884 -0.4389  0.4387 -0.1536
43917SOL    HW143475  10.575   6.821   9.901 -0.5926  0.2511 -1.2964
43917SOL    HW243476  10.677   6.906   9.828  2.1711  1.0218  3.0959
43918SOL     OW43477   4.419   6.647   9.345 -0.3819 -0.4750 -0.1633
43918SOL    HW143478   4.342   6.595   9.368 -1.2439  0.4666 -0.8480
43918SOL    HW243479   4.454   6.678   9.430  0.5433 -2.6449  0.3151
43919SOL     OW43480  10.878   4.388   0.676 -0.3952  0.2487 -0.3627
43919SOL    HW143481  10.808   4.326   0.655 -1.8759  1.9490 -0.6875
43919SOL    HW243482  10.909   4.418   0.590  0.4489 -0.1924 -0.2117
43920SOL     OW43483   6.714   6.016   7.362 -0.0930 -0.0800 -0.2910
43920SOL    HW143484   6.776   6.087   7.373 -1.9575  1.5028  0.5844
43920SOL    HW243485   6.764   5.937   7.381  1.8391  1.0483 -0.5142
43921SOL     OW43486   2.036   6.704   9.525 -0.2355  0.3702 -0.0118
43921SOL    HW143487   1.951   6.660   9.534 -0.9031  1.0794 -2.2016
43921SOL    HW243488   2.015   6.797   9.527  0.6609  0.5654  0.6694
43922SOL     OW43489  10.015   1.741  11.663  0.1259  0.2506 -0.4369
43922SOL    HW143490  10.038   1.792  11.740  0.1488  1.8492 -1.4469
43922SOL    HW243491  10.075   1.666  11.665  0.4464  0.5153  0.8194
43923SOL     OW43492   1.639  10.100   4.819 -0.2627 -0.4325 -0.0153
43923SOL    HW143493   1.730  10.114   4.795  0.2538 -2.5543  0.4579
43923SOL    HW243494   1.638  10.102   4.915 -0.4140 -1.6910  0.0368
43924SOL     OW43495   4.390  11.876   2.652  0.5675 -0.0669 -0.0976
43924SOL    HW143496   4.481  11.854   2.671  0.2071 -1.3011  0.2708
43924SOL    HW243497   4.381  11.966   2.682  1.7603  0.2199 -0.5090
43925SOL     OW43498   1.565   0.393   3.555 -0.2597 -0.2699 -0.5572
43925SOL    HW143499   1.598   0.381   3.466  0.1646 -0.5844 -0.3571
43925SOL    HW243500   1.620   0.461   3.593 -0.0602 -0.5519 -0.3388
43926SOL     OW43501   1.675   7.952   2.386 -0.1692 -0.4903  0.6459
43926SOL    HW143502   1.659   7.893   2.312  1.0835 -0.6148  0.4515
43926SOL    HW243503   1.610   7.928   2.451  0.4142 -2.2194  0.6454
43927SOL     OW43504  11.449   2.595   9.103  0.0532  0.3488 -0.1392
43927SOL    HW143505  11.397   2.592   9.022  0.0248  0.1306 -0.1129
43927SOL    HW243506  11.470   2.687   9.114 -0.5129  0.4716 -0.0337
43928SOL     OW43507   3.764   6.196  11.779  0.5668 -0.1996  0.2244
43928SOL    HW143508   3.763   6.124  11.715  0.2021 -1.1793  1.2970
43928SOL    HW243509   3.676   6.232  11.776  0.7206  0.1577 -0.2382
43929SOL     OW43510   7.480   5.319   8.025 -0.3457 -0.5864  0.2608
43929SOL    HW143511   7.413   5.262   7.987 -1.4127  1.2012 -0.6744
43929SOL    HW243512   7.430   5.390   8.065  0.9334 -0.4687  1.7107
43930SOL     OW43513   7.323   1.288   5.744 -0.1997 -0.2984 -0.8776
43930SOL    HW143514   7.228   1.277   5.750 -0.0783 -0.8635  0.2569
43930SOL    HW243515   7.335   1.378   5.714 -1.0888 -0.0196 -0.4230
43931SOL     OW43516   7.155   1.237   2.166  0.4990  0.1305  0.2468
43931SOL    HW143517   7.060   1.241   2.151  0.6244 -1.3144 -1.1918
43931SOL    HW243518   7.193   1.291   2.097  0.7253  2.5618  2.1110
43932SOL     OW43519   3.514   7.166   4.868 -0.0843 -0.9093 -0.0426
43932SOL    HW143520   3.519   7.124   4.953 -2.0728 -0.9566  0.0916
43932SOL    HW243521   3.422   7.188   4.857  0.3396  0.3155 -1.6043
43933SOL     OW43522   6.791   1.972   2.044 -0.1266 -0.2585  0.0506
43933SOL    HW143523   6.715   1.941   1.996 -0.0151 -2.0188  0.9188
43933SOL    HW243524   6.756   2.001   2.128  0.1146 -0.8178  0.3490
43934SOL     OW43525   9.310   2.868   4.105  0.1595  0.1004 -0.5335
43934SOL    HW143526   9.246   2.892   4.172 -1.3618 -2.4153 -0.9265
43934SOL    HW243527   9.385   2.835   4.154 -0.2140 -0.0467 -0.0476
43935SOL     OW43528   3.917  11.118  11.264 -0.3630  0.3863 -0.2536
43935SOL    HW143529   3.861  11.175  11.315 -0.4706  0.7350 -0.7585
43935SOL    HW243530   3.964  11.066  11.329 -0.5259  0.7980  0.1959
43936SOL     OW43531   2.875   6.758   7.249  0.3551 -0.7291 -0.3648
43936SOL    HW143532   2.888   6.816   7.174  1.0545  2.2069  1.8839
43936SOL    HW243533   2.959   6.715   7.262  1.5812  1.9075  1.1197
43937SOL     OW43534   1.590   8.040  10.607  0.1194  0.2211  0.2983
43937SOL    HW143535   1.525   8.017  10.674  0.9529 -1.8232  0.4803
43937SOL    HW243536   1.619   7.956  10.571 -1.1292  1.2296 -3.5433
43938SOL     OW43537  10.709   3.866   5.385 -0.4005 -0.2704 -0.6982
43938SOL    HW143538  10.786   3.810   5.392 -1.4902 -1.8473 -0.9645
43938SOL    HW243539  10.655   3.825   5.318 -0.7314  1.7638 -1.7687
43939SOL     OW43540   7.962   3.075   6.132  0.0289  0.0173 -0.0121
43939SOL    HW143541   7.936   3.125   6.055 -0.3662  2.1013  1.4045
43939SOL    HW243542   7.888   3.082   6.192 -0.8215 -3.7849 -0.3184
43940SOL     OW43543   8.131   9.396   0.494 -0.3950 -0.3083  0.2998
43940SOL    HW143544   8.148   9.324   0.434 -0.1531 -0.0213  0.0205
43940SOL    HW243545   8.216   9.437   0.507 -0.8799  1.4328 -1.4925
43941SOL     OW43546   7.689   8.208   6.522 -0.2921  0.5639 -0.3429
43941SOL    HW143547   7.604   8.252   6.517 -0.3017  0.5388 -0.3965
43941SOL    HW243548   7.675   8.135   6.582 -0.4346  0.2722 -0.7246
43942SOL     OW43549   8.284   2.400   7.766 -0.5066  0.3960 -0.3732
43942SOL    HW143550   8.324   2.313   7.758  3.8681  1.9380  1.6916
43942SOL    HW243551   8.253   2.403   7.856 -0.0974  1.1377 -0.2540
43943SOL     OW43552   7.939   6.032   2.079 -0.1147 -0.2584  0.3445
43943SOL    HW143553   7.921   5.951   2.031  0.6089  0.3268 -0.9786
43943SOL    HW243554   7.854   6.074   2.089 -0.4236 -0.9223  0.5835
43944SOL     OW43555   2.962   7.907  11.012  0.2724 -0.2267 -0.2916
43944SOL    HW143556   3.051   7.875  10.997 -0.0230 -0.8327 -0.8108
43944SOL    HW243557   2.957   7.989  10.963  0.6887  0.0512  0.1236
43945SOL     OW43558   3.076   3.466   3.438  0.3581  0.3090 -0.0273
43945SOL    HW143559   3.081   3.545   3.384  2.6370  0.0786 -0.2550
43945SOL    HW243560   3.068   3.394   3.375  2.3700  0.0901 -0.0848
43946SOL     OW43561   1.340   5.515   7.247 -0.6277 -0.2238 -0.5886
43946SOL    HW143562   1.404   5.455   7.208 -1.6293 -2.0843  0.5010
43946SOL    HW243563   1.342   5.592   7.190  2.2416 -0.3637 -0.8332
43947SOL     OW43564   2.905   8.611   6.779 -0.3201  0.0001  0.3915
43947SOL    HW143565   2.830   8.629   6.722  0.3042 -0.5685 -0.6392
43947SOL    HW243566   2.884   8.527   6.820 -0.6019  0.2285  0.7185
43948SOL     OW43567  10.009   8.814   5.956  0.2483  0.3882  0.1229
43948SOL    HW143568   9.942   8.865   6.001 -1.6600 -3.1711  1.7077
43948SOL    HW243569  10.068   8.784   6.025  1.2582  0.3358 -0.7303
43949SOL     OW43570   5.378   6.935  11.944 -0.8683  0.2970  0.4603
43949SOL    HW143571   5.317   6.862  11.934 -2.6232  1.7978 -0.4107
43949SOL    HW243572   5.322   7.013  11.950  0.9579  1.9189 -1.7378
43950SOL     OW43573   0.678   3.157   4.901  0.2232 -0.2396 -0.4781
43950SOL    HW143574   0.628   3.218   4.955 -0.5702  1.1625 -2.6327
43950SOL    HW243575   0.623   3.080   4.894  0.0289 -0.1608  0.1411
43951SOL     OW43576   6.743   5.645  10.718 -0.4088 -0.1669 -0.4489
43951SOL    HW143577   6.659   5.611  10.749 -0.9794  1.6350  0.0809
43951SOL    HW243578   6.807   5.579  10.745 -1.6733 -1.7703 -1.2267
43952SOL     OW43579   9.560   0.637   8.231  0.5019 -0.1825 -0.0242
43952SOL    HW143580   9.598   0.725   8.242 -0.1346 -0.0341  1.1046
43952SOL    HW243581   9.469   0.653   8.208  0.5494 -0.5508 -0.4773
43953SOL     OW43582   8.003   3.208   1.027  0.1243  0.4454  0.3041
43953SOL    HW143583   7.995   3.118   0.996  0.2072  0.6193 -0.2345
43953SOL    HW243584   7.935   3.217   1.093 -2.5273  1.0939 -2.2977
43954SOL     OW43585   7.625   8.871  11.946  0.1672  0.0166 -0.6377
43954SOL    HW143586   7.636   8.797  11.886  0.9971 -0.1340 -0.3164
43954SOL    HW243587   7.713   8.908  11.954 -0.1686  0.7928 -0.4722
43955SOL     OW43588   5.704   6.190  10.249 -0.3423  0.2506 -0.3460
43955SOL    HW143589   5.661   6.153  10.172  1.5115 -1.2051 -0.7449
43955SOL    HW243590   5.636   6.188  10.317 -1.2287 -0.9376 -1.2153
43956SOL     OW43591   2.579   9.822   2.675 -0.1099 -0.8833 -0.4327
43956SOL    HW143592   2.587   9.758   2.604 -1.2230 -1.0344 -0.4358
43956SOL    HW243593   2.545   9.772   2.749 -0.9929 -0.3016 -0.4385
43957SOL     OW43594  11.077  10.710   7.345 -0.0574  0.1263 -0.4250
43957SOL    HW143595  11.022  10.661   7.283  1.7575 -1.6350 -0.7802
43957SOL    HW243596  11.020  10.729   7.419 -1.3583 -0.9230 -1.1187
43958SOL     OW43597   1.202   0.536   5.852 -0.2591 -0.1370 -0.4289
43958SOL    HW143598   1.294   0.518   5.871 -0.1636 -0.0133 -0.7682
43958SOL    HW243599   1.199   0.630   5.832 -0.4581 -0.1381 -0.4087
43959SOL     OW43600   0.112   7.891   8.076 -0.3743 -0.6269 -0.6035
43959SOL    HW143601   0.046   7.956   8.100  0.7235  0.6150 -0.7954
43959SOL    HW243602   0.086   7.860   7.989 -0.6962 -0.1376 -0.6823
43960SOL     OW43603   3.507  11.758   1.745 -0.5069 -0.2122 -0.0682
43960SOL    HW143604   3.430  11.715   1.780  0.4500 -0.5275  1.8057
43960SOL    HW243605   3.504  11.846   1.781  1.3359 -1.0256  2.3365
43961SOL     OW43606   3.633   2.510  10.044 -0.4962 -0.0787  0.1828
43961SOL    HW143607   3.612   2.515   9.950 -0.1022 -0.0928  0.0935
43961SOL    HW243608   3.609   2.596  10.079  1.8882  0.9249 -0.4488
43962SOL     OW43609  11.935  11.247   5.408 -0.0044  0.0705  0.0884
43962SOL    HW143610  11.941  11.226   5.314 -1.5644  0.7022 -0.1792
43962SOL    HW243611  12.013  11.301   5.425  0.0238  0.4011 -0.9770
43963SOL     OW43612   6.567   6.960   9.882 -0.8802 -0.6158 -0.1114
43963SOL    HW143613   6.530   6.878   9.915 -0.8597 -0.0891  1.3217
43963SOL    HW243614   6.558   7.021   9.956  2.9450 -0.4742  0.4247
43964SOL     OW43615   7.881   9.263   1.343  0.3042 -0.3418  0.2102
43964SOL    HW143616   7.973   9.258   1.319 -0.3096  1.5087 -3.1472
43964SOL    HW243617   7.838   9.196   1.289 -0.7990  2.0156 -2.0503
43965SOL     OW43618   4.956   2.142  10.932  0.1843 -0.0563 -0.3294
43965SOL    HW143619   5.033   2.165  10.880 -0.1535 -0.2288 -0.9149
43965SOL    HW243620   4.945   2.215  10.993  0.4755  0.2398 -0.6276
43966SOL     OW43621   7.428   5.766   2.180  0.0241  0.3241 -0.3293
43966SOL    HW143622   7.419   5.676   2.211 -0.4776  0.0157 -1.3256
43966SOL    HW243623   7.369   5.817   2.236  1.2912  0.2776  1.1101
43967SOL     OW43624  11.058   1.286   2.678  0.4187 -0.1914  0.3421
43967SOL    HW143625  11.113   1.347   2.628 -0.8738  0.9856  0.2985
43967SOL    HW243626  10.977   1.281   2.627  0.0894 -1.0864  0.9429
43968SOL     OW43627   8.914  10.405   5.581  0.1712  0.3056 -0.2214
43968SOL    HW143628   9.007  10.381   5.584 -0.1623 -0.9143  1.3254
43968SOL    HW243629   8.883  10.367   5.498  0.4793 -1.6089  0.4829
43969SOL     OW43630   2.938   1.312   0.017  0.3250  0.2238 -0.2501
43969SOL    HW143631   3.031   1.299  -0.003  0.6013  1.7394 -0.1194
43969SOL    HW243632   2.912   1.234   0.066  1.3064 -0.5966 -0.9993
43970SOL     OW43633   9.153   1.278   1.313  0.4392  0.1110 -0.0691
43970SOL    HW143634   9.066   1.317   1.320 -0.1877 -0.6461 -2.4695
43970SOL    HW243635   9.194   1.323   1.239  1.9044  0.0868  0.6813
43971SOL     OW43636   5.172   5.940  10.281 -0.0437 -0.2450  0.3750
43971SOL    HW143637   5.156   5.957  10.374  0.9378 -1.1338  0.7289
43971SOL    HW243638   5.097   5.978  10.237 -0.6899 -0.0836  1.5623
43972SOL     OW43639   6.363   5.079   4.593  0.5139  0.3813 -0.7305
43972SOL    HW143640   6.316   5.057   4.513  2.0923  2.2643 -2.2630
43972SOL    HW243641   6.375   5.174   4.589  2.1862  0.2962  0.8519
43973SOL     OW43642   9.519  11.252   7.434  0.1371  0.5765 -0.1855
43973SOL    HW143643   9.522  11.295   7.348  0.1690 -0.7463 -0.8654
43973SOL    HW243644   9.556  11.317   7.494  3.7706  0.2143 -1.7287
43974SOL     OW43645  10.340   0.259   6.544 -0.3095  0.3443  0.1233
43974SOL    HW143646  10.260   0.219   6.579 -0.2813 -0.1690 -0.3737
43974SOL    HW243647  10.324   0.265   6.449  0.2308  0.2479  0.0237
43975SOL     OW43648   3.324   0.956   5.209 -0.1596 -0.4413 -0.1328
43975SOL    HW143649   3.378   0.994   5.278 -1.0454 -1.4303  1.1478
43975SOL    HW243650   3.378   0.960   5.130 -0.5363  4.4127 -0.4230
43976SOL     OW43651  10.792   8.856   0.123 -0.0158  0.7849 -0.1577
43976SOL    HW143652  10.702   8.858   0.092  0.2249  1.0694 -0.8414
43976SOL    HW243653  10.789   8.898   0.209 -0.9292 -1.2528  0.8861
43977SOL     OW43654   9.211  10.886  11.697  0.1554  0.3332  0.1389
43977SOL    HW143655   9.142  10.864  11.634 -0.1469 -0.0830  0.6044
43977SOL    HW243656   9.291  10.851  11.657 -0.0095  0.2015 -0.0829
43978SOL     OW43657   7.912   1.057   4.961  0.4551 -0.3627 -0.1484
43978SOL    HW143658   7.903   1.098   5.047 -0.8729  1.2970 -1.0236
43978SOL    HW243659   7.823   1.030   4.937  1.0370 -2.2973 -0.3544
43979SOL     OW43660   7.596   4.521   4.112 -0.1641 -0.4804  0.1336
43979SOL    HW143661   7.569   4.430   4.119 -1.7563 -0.0716 -0.1526
43979SOL    HW243662   7.550   4.554   4.035  1.1621  0.3176 -0.3551
43980SOL     OW43663   8.597   0.137   6.516 -0.9575  0.1613  0.2168
43980SOL    HW143664   8.638   0.117   6.601 -1.0920  1.3710  0.5852
43980SOL    HW243665   8.644   0.082   6.454 -0.3980 -0.2549  0.9804
43981SOL     OW43666   8.918  11.572   8.203 -0.1710  0.1707 -0.2696
43981SOL    HW143667   8.912  11.561   8.108 -2.0981 -0.6845 -0.0890
43981SOL    HW243668   8.887  11.661   8.219 -0.9881 -0.1007 -0.3450
43982SOL     OW43669   4.711   5.610   9.989  0.1238 -0.4023  0.1743
43982SOL    HW143670   4.700   5.643  10.078 -2.1922  0.4202 -0.3460
43982SOL    HW243671   4.634   5.555   9.974  0.7560 -0.9656 -1.1488
43983SOL     OW43672   1.152   5.382   6.542 -0.4547 -0.2023  0.3144
43983SOL    HW143673   1.104   5.301   6.556 -1.5624  0.1459 -1.1817
43983SOL    HW243674   1.156   5.391   6.447 -0.8248  1.7532  0.4386
43984SOL     OW43675   5.255  11.264   4.377  0.0273 -0.5474  0.1504
43984SOL    HW143676   5.214  11.339   4.418  1.5975  0.3795  0.1168
43984SOL    HW243677   5.343  11.294   4.354  1.2697 -2.8172  1.5021
43985SOL     OW43678   5.034   2.990   2.779 -0.2746  0.1016  0.2027
43985SOL    HW143679   5.035   3.017   2.688  0.8387  0.0895  0.2053
43985SOL    HW243680   5.125   2.973   2.801 -0.7955 -3.2329  0.3380
43986SOL     OW43681  11.370  10.830   8.639 -0.1661  0.1122  0.6475
43986SOL    HW143682  11.406  10.808   8.554  1.4690 -0.0963  1.3654
43986SOL    HW243683  11.309  10.759   8.659 -0.0846 -0.1605 -0.0546
43987SOL     OW43684   7.069   2.141   0.298 -0.5628 -0.4393  0.4117
43987SOL    HW143685   7.085   2.132   0.391  3.0096  1.9241  0.2078
43987SOL    HW243686   7.132   2.082   0.256 -0.2721  0.4725 -0.4924
43988SOL     OW43687   3.512   0.687   9.177 -0.1432 -0.1161  0.3456
43988SOL    HW143688   3.481   0.667   9.088 -0.8594  0.1822  0.5237
43988SOL    HW243689   3.446   0.648   9.234 -0.5774  1.1599  0.7276
43989SOL     OW43690   7.059   6.847   1.363 -0.0379 -0.0777 -0.0495
43989SOL    HW143691   7.090   6.781   1.425 -0.0056 -0.2882 -0.2870
43989SOL    HW243692   7.025   6.917   1.418 -0.7848 -0.6296  0.2046
43990SOL     OW43693   7.537   4.578  11.309  0.2969 -0.5039 -0.1154
43990SOL    HW143694   7.552   4.611  11.397 -0.9047 -0.7806  0.2094
43990SOL    HW243695   7.564   4.487  11.312 -1.4634 -1.0371  0.5009
43991SOL     OW43696   4.603   2.946   4.422  0.2681  0.0862  0.0892
43991SOL    HW143697   4.632   2.930   4.512  2.2953 -0.0307 -0.5353
43991SOL    HW243698   4.508   2.930   4.424  0.4351 -0.9651  1.9566
43992SOL     OW43699   4.312   3.247  10.156  0.2502  0.1040 -0.4147
43992SOL    HW143700   4.292   3.210  10.242 -1.4569  0.4557 -0.6310
43992SOL    HW243701   4.405   3.226  10.142  0.1986 -1.1623  0.9062
43993SOL     OW43702   1.616   0.576   0.391 -0.4106  0.3278  0.3878
43993SOL    HW143703   1.597   0.541   0.478 -1.1958 -1.0003 -0.3024
43993SOL    HW243704   1.661   0.659   0.409  0.0694 -0.2486  2.0586
43994SOL     OW43705   7.269   1.259   3.853 -0.3115  0.0664  0.2078
43994SOL    HW143706   7.353   1.259   3.899  0.9243  0.8063 -1.9333
43994SOL    HW243707   7.276   1.332   3.791 -1.9845 -0.7512 -0.9949
43995SOL     OW43708   4.577   2.039   4.812  0.1951  0.0820  0.3725
43995SOL    HW143709   4.520   2.063   4.739 -0.9551 -1.0323  0.8752
43995SOL    HW243710   4.640   1.977   4.775 -0.8983 -1.1247  0.4684
43996SOL     OW43711   7.954   7.507   6.280  0.5144 -0.0011  0.5904
43996SOL    HW143712   7.939   7.427   6.330 -0.6038 -0.5382 -0.5541
43996SOL    HW243713   8.050   7.516   6.279  0.6325 -0.9283  1.3278
43997SOL     OW43714  11.681   0.218   7.356  0.1862 -0.4811 -0.4134
43997SOL    HW143715  11.679   0.136   7.405  1.3316 -0.4501 -0.2747
43997SOL    HW243716  11.730   0.278   7.412  0.0784  0.0433 -0.8759
43998SOL     OW43717  11.210  10.430   8.950 -0.1673  0.6283 -0.0791
43998SOL    HW143718  11.219  10.367   9.021  0.5055 -1.1357 -1.6454
43998SOL    HW243719  11.115  10.435   8.935 -0.1911 -1.3243 -0.9683
43999SOL     OW43720   3.996   2.199  11.382  0.2509  0.0333  0.1861
43999SOL    HW143721   3.905   2.219  11.357 -0.3430  0.1335  2.2564
43999SOL    HW243722   4.045   2.278  11.360 -0.2758  0.2249 -0.3317
44000SOL     OW43723   0.387   7.898   6.888  0.4799  0.3356 -0.3873
44000SOL    HW143724   0.471   7.852   6.893  0.6198  0.6202 -0.0769
44000SOL    HW243725   0.406   7.985   6.921 -0.2377 -0.0031  0.9846
44001SOL     OW43726   0.638   3.531  10.558 -0.4072  0.3215 -0.4902
44001SOL    HW143727   0.613   3.444  10.529  1.2280 -0.6953  0.9450
44001SOL    HW243728   0.575   3.590  10.517 -1.8720 -1.5733 -1.0566
44002SOL     OW43729   1.971   2.151   2.059  0.4470  0.2500  0.5567
44002SOL    HW143730   2.022   2.142   2.139  0.3025  1.6988  0.8393
44002SOL    HW243731   2.027   2.201   2.000  0.6895 -1.1024 -0.3959
44003SOL     OW43732   7.750   2.004   9.398  0.5681  0.3324  0.1549
44003SOL    HW143733   7.841   2.014   9.371  0.9101 -0.6863  0.8988
44003SOL    HW243734   7.754   1.991   9.492 -0.3164 -0.1441  0.1335
44004SOL     OW43735  11.098   9.233   9.692 -0.5142 -0.6948 -0.2076
44004SOL    HW143736  11.044   9.254   9.768  0.3212 -1.2201  0.5522
44004SOL    HW243737  11.146   9.154   9.717  1.8275  0.6237 -0.2092
44005SOL     OW43738   0.393   4.558   1.952 -0.3683 -0.4313 -0.2601
44005SOL    HW143739   0.409   4.470   1.986  0.9809  0.2350  0.9104
44005SOL    HW243740   0.386   4.546   1.857 -0.7490 -1.8582 -0.0700
44006SOL     OW43741   6.151   8.826   6.219  0.0321 -0.5721 -0.2225
44006SOL    HW143742   6.194   8.809   6.302  0.2750 -1.6631 -0.5660
44006SOL    HW243743   6.071   8.775   6.222 -1.2373  1.3333  0.3565
44007SOL     OW43744   6.638   9.950   5.669 -0.3191 -0.0332 -0.9285
44007SOL    HW143745   6.592  10.013   5.613  0.2726  1.7933  0.5129
44007SOL    HW243746   6.584   9.943   5.748 -0.3744 -1.3811 -1.0642
44008SOL     OW43747   2.223  11.844   0.172 -0.4823  0.3261  0.2502
44008SOL    HW143748   2.148  11.871   0.119  0.3274 -0.3084 -1.2852
44008SOL    HW243749   2.247  11.758   0.137  0.1720 -0.0460  1.5795
44009SOL     OW43750   5.733   4.798   6.413 -0.0338 -0.3773  0.0888
44009SOL    HW143751   5.778   4.872   6.456 -1.6590  0.6701  0.0958
44009SOL    HW243752   5.802   4.753   6.364  0.8385  1.8910 -0.9326
44010SOL     OW43753   5.034   5.813   8.132  0.2302 -0.0841 -0.3915
44010SOL    HW143754   5.038   5.896   8.084  1.0537  0.2527  0.2425
44010SOL    HW243755   5.116   5.809   8.181 -0.7632 -0.2010  1.3545
44011SOL     OW43756   7.032   1.141   4.480 -0.2566 -0.1301  0.2125
44011SOL    HW143757   7.096   1.182   4.421  1.1801  0.9812  2.3896
44011SOL    HW243758   7.080   1.129   4.562 -1.9916 -2.1528  1.0072
44012SOL     OW43759   9.032  10.131   8.912 -0.2237  0.3364  0.5889
44012SOL    HW143760   9.069  10.073   8.978  0.4144  0.7719  0.6145
44012SOL    HW243761   9.073  10.216   8.928  0.1442  0.3840 -0.5297
44013SOL     OW43762   7.539   9.060   2.262  0.2261 -0.2145 -0.0035
44013SOL    HW143763   7.561   9.075   2.354  0.1080  1.1081 -0.1774
44013SOL    HW243764   7.461   9.005   2.265  1.5875 -2.2104  0.6424
44014SOL     OW43765  10.343   4.932   4.524  0.2595  0.2912  0.2645
44014SOL    HW143766  10.385   4.964   4.444  0.5461  0.1251  0.3480
44014SOL    HW243767  10.382   4.984   4.594 -0.5162  0.9419  0.2260
44015SOL     OW43768   8.848   2.671   0.656 -0.3074  0.0456 -0.0539
44015SOL    HW143769   8.852   2.578   0.633 -1.1354  0.1809 -0.7900
44015SOL    HW243770   8.850   2.672   0.752  2.0862 -0.5962 -0.0452
44016SOL     OW43771   8.375   8.447   3.638  0.5389 -0.3694 -0.0014
44016SOL    HW143772   8.431   8.525   3.634 -0.0390  0.0774  0.5719
44016SOL    HW243773   8.436   8.374   3.626  1.3916  0.0563  1.5208
44017SOL     OW43774   2.189   4.452   0.941  0.0786  0.0338  0.0320
44017SOL    HW143775   2.280   4.427   0.926  0.4371  2.1922 -1.9549
44017SOL    HW243776   2.151   4.378   0.989  2.4403 -1.6258 -0.4977
44018SOL     OW43777   4.667   1.955   1.091  0.2044 -0.0404  0.0759
44018SOL    HW143778   4.608   1.948   1.016  0.5309  3.3456 -0.6565
44018SOL    HW243779   4.749   1.987   1.054  1.3837 -1.2223  1.5453
44019SOL     OW43780   0.242  11.804  11.767 -0.3256 -0.1893 -0.5235
44019SOL    HW143781   0.312  11.740  11.783 -0.1752 -0.4579 -2.0453
44019SOL    HW243782   0.163  11.751  11.762 -0.5069  0.0051  0.3092
44020SOL     OW43783   5.676  11.072  10.214  0.7930 -0.0154 -0.1774
44020SOL    HW143784   5.683  11.060  10.119  1.4645  1.1905 -0.3113
44020SOL    HW243785   5.764  11.098  10.241  0.2819  1.0243  0.5584
44021SOL     OW43786   4.831   8.524   1.588  0.1108 -0.1858 -0.2121
44021SOL    HW143787   4.858   8.615   1.599  0.3784 -0.2415 -0.3965
44021SOL    HW243788   4.805   8.496   1.676 -1.0851  0.4114 -0.3588
44022SOL     OW43789   2.614   4.504  11.895  0.0814  0.3021 -0.1136
44022SOL    HW143790   2.669   4.510  11.973 -1.6696  0.1327  1.2032
44022SOL    HW243791   2.600   4.410  11.883 -1.8044  0.3718  1.0418
44023SOL     OW43792   5.538   6.117   5.534  0.1577  0.4875  0.3320
44023SOL    HW143793   5.488   6.077   5.605 -0.9039 -1.7469 -1.5524
44023SOL    HW243794   5.613   6.157   5.578 -0.8512 -0.0956  2.7682
44024SOL     OW43795   8.519  10.141   7.703  0.2570 -0.5244  0.0113
44024SOL    HW143796   8.498  10.199   7.630 -2.4875 -0.6279  0.6147
44024SOL    HW243797   8.598  10.094   7.674  2.3493  3.0399 -0.6795
44025SOL     OW43798   5.574   1.600  11.262  0.6900 -0.2570  0.1070
44025SOL    HW143799   5.505   1.663  11.283  0.7675 -0.6653  1.7366
44025SOL    HW243800   5.527   1.519  11.241  0.5659  0.4198 -2.5468
44026SOL     OW43801   7.266   6.747   7.152 -0.7607 -0.2044 -0.3983
44026SOL    HW143802   7.309   6.768   7.069  0.7580  1.2321  0.6695
44026SOL    HW243803   7.175   6.775   7.140 -0.7460 -0.6709 -1.7940
44027SOL     OW43804   3.609  10.152   9.573  0.4269 -0.2330 -0.3962
44027SOL    HW143805   3.552  10.182   9.643  0.5624  0.6855 -0.6713
44027SOL    HW243806   3.551  10.099   9.516 -0.8979  2.7948 -2.1124
44028SOL     OW43807   0.909   7.841   8.245 -0.0419  0.3034 -0.4601
44028SOL    HW143808   0.864   7.786   8.181 -0.5366  0.6065 -0.3807
44028SOL    HW243809   0.957   7.780   8.300 -0.0330  0.0033 -0.7976
44029SOL     OW43810   9.990   5.540  10.747 -0.1745 -0.1563  0.0123
44029SOL    HW143811   9.901   5.514  10.770 -0.0293  0.3669  1.2325
44029SOL    HW243812   9.995   5.632  10.771  1.2424 -0.6278  1.7794
44030SOL     OW43813   7.883   1.844   2.254  0.1307 -0.6473 -0.3757
44030SOL    HW143814   7.842   1.930   2.245 -0.1690 -0.8115 -0.5833
44030SOL    HW243815   7.948   1.841   2.184  0.6191 -0.3197  0.0600
44031SOL     OW43816   7.776   9.299  11.667 -0.3643  0.3584 -0.6455
44031SOL    HW143817   7.736   9.382  11.694  0.4388  0.1602  1.2765
44031SOL    HW243818   7.871   9.315  11.674 -0.2019 -0.7666 -0.0570
44032SOL     OW43819   6.775   9.281   9.068  0.5974  0.5336  1.0458
44032SOL    HW143820   6.868   9.305   9.076  0.8990  3.0214 -4.9268
44032SOL    HW243821   6.728   9.364   9.078 -0.1863  0.5720 -2.0208
44033SOL     OW43822   0.063   4.383   7.280  0.1373 -0.0013 -0.2819
44033SOL    HW143823   0.074   4.477   7.293 -0.4675  0.1196 -0.6314
44033SOL    HW243824   0.028   4.352   7.363 -2.6389  0.5931 -1.1438
44034SOL     OW43825   7.250   8.000   2.499 -0.4009  0.7801  0.0342
44034SOL    HW143826   7.261   7.978   2.407 -2.2217  1.2134 -0.3291
44034SOL    HW243827   7.339   8.000   2.534  0.2167 -0.8208 -1.3654
44035SOL     OW43828  11.378   6.834  10.912 -1.1754 -0.1616 -0.1977
44035SOL    HW143829  11.284   6.821  10.923 -1.0883  0.5504  1.8362
44035SOL    HW243830  11.398   6.909  10.968  0.6490 -0.5169 -0.3281
44036SOL     OW43831   7.066   4.309   2.164 -0.5062 -0.3427 -0.1471
44036SOL    HW143832   7.057   4.364   2.242 -0.6188 -0.7007  0.0927
44036SOL    HW243833   7.085   4.221   2.199  1.2703 -0.1525 -0.5477
44037SOL     OW43834   5.968   8.236   9.509 -0.2866  0.0296  0.1403
44037SOL    HW143835   5.921   8.226   9.427 -0.2135  0.3404  0.0579
44037SOL    HW243836   6.061   8.226   9.486 -0.3267 -0.9570  0.3611
44038SOL     OW43837   9.554   9.193  10.846 -0.0751  0.1308  0.2723
44038SOL    HW143838   9.570   9.249  10.770 -1.4320  1.3404  0.8475
44038SOL    HW243839   9.631   9.206  10.902  0.5984 -0.2285 -0.5312
44039SOL     OW43840   5.099   4.183   2.124  0.6257 -0.7299 -0.1978
44039SOL    HW143841   5.018   4.175   2.073  0.3528  1.1126 -0.1141
44039SOL    HW243842   5.078   4.142   2.208 -0.3961  0.1155 -0.0177
44040SOL     OW43843   8.392   0.592   4.527 -0.2200 -0.3324 -0.2291
44040SOL    HW143844   8.488   0.593   4.527 -0.2024 -0.1669  0.8746
44040SOL    HW243845   8.368   0.510   4.484  0.4972 -2.1693  2.6162
44041SOL     OW43846   6.951   2.095   7.413 -0.7212  0.1634 -0.1552
44041SOL    HW143847   6.912   2.128   7.332  0.1342 -0.1225 -0.7008
44041SOL    HW243848   6.940   2.166   7.476 -0.5782  0.7565 -0.7882
44042SOL     OW43849   6.516   5.693   2.189  0.1497  0.2077  0.2277
44042SOL    HW143850   6.563   5.748   2.251  0.2044 -1.7610  2.0454
44042SOL    HW243851   6.429   5.683   2.227 -0.1546 -0.2043 -0.5466
44043SOL     OW43852   8.547   6.029   2.827 -0.2128 -0.7091 -0.1240
44043SOL    HW143853   8.483   6.067   2.888  1.1258  0.9474  0.3201
44043SOL    HW243854   8.508   6.045   2.741 -0.6368 -0.1395  0.1570
44044SOL     OW43855   1.902   4.988   4.069 -0.3887 -0.3822  0.3568
44044SOL    HW143856   1.932   5.016   4.156 -2.0092  4.0388 -0.2805
44044SOL    HW243857   1.978   4.942   4.032  0.5510 -1.9516  3.7529
44045SOL     OW43858   7.630  10.565   9.397 -0.2612 -0.0531  0.2687
44045SOL    HW143859   7.591  10.498   9.452 -1.1160  1.4818  1.6251
44045SOL    HW243860   7.660  10.633   9.458  2.6877 -0.1657 -0.8637
44046SOL     OW43861  11.069  11.473  10.658 -0.0084 -0.6482  0.1895
44046SOL    HW143862  11.095  11.542  10.720 -1.3014 -0.7465  0.8673
44046SOL    HW243863  10.986  11.503  10.622  0.5916 -0.7127 -1.3629
44047SOL     OW43864   6.007   9.774   0.242  0.1461 -0.6200  0.2906
44047SOL    HW143865   6.010   9.684   0.209 -0.3050 -0.4719 -0.1462
44047SOL    HW243866   6.078   9.819   0.196  0.3508 -0.7346  0.4856
44048SOL     OW43867   7.433   8.476   0.251 -0.4102  0.3726 -0.1942
44048SOL    HW143868   7.410   8.563   0.218  1.1659  1.3719  1.1938
44048SOL    HW243869   7.516   8.455   0.209 -0.1009  0.1384  0.5221
44049SOL     OW43870  11.684   1.269   1.499 -1.1979 -0.4199  0.1980
44049SOL    HW143871  11.700   1.220   1.580  0.7425  2.4565  1.7533
44049SOL    HW243872  11.640   1.349   1.528  0.2848  1.0645 -1.4070
44050SOL     OW43873   7.944   1.446   8.722  0.5013 -0.3387 -0.1723
44050SOL    HW143874   8.014   1.442   8.787 -0.6650 -0.9897  1.0998
44050SOL    HW243875   7.864   1.426   8.771 -0.4221 -0.9083 -1.8156
44051SOL     OW43876   8.737   2.646   7.575 -0.6553  0.1693 -0.6341
44051SOL    HW143877   8.779   2.598   7.504 -0.8268  2.1652 -2.1925
44051SOL    HW243878   8.803   2.709   7.603 -0.1571 -1.3600  1.8878
44052SOL     OW43879  10.314  11.226  10.435 -0.2803 -0.0035 -0.1578
44052SOL    HW143880  10.256  11.231  10.359 -1.2834 -2.0564  0.4026
44052SOL    HW243881  10.389  11.280  10.411 -0.0381 -1.4510 -3.0641
44053SOL     OW43882   5.003   7.547   8.794 -0.3837 -0.3638  0.3651
44053SOL    HW143883   4.907   7.544   8.804 -0.3132 -0.4643  1.0646
44053SOL    HW243884   5.016   7.579   8.705 -1.0721  0.7032  0.6286
44054SOL     OW43885   1.103   2.883   1.714 -0.3373 -0.8038 -0.2844
44054SOL    HW143886   1.118   2.978   1.711 -1.9851 -0.5364 -1.8308
44054SOL    HW243887   1.122   2.853   1.625 -1.1519 -1.6949 -0.1768
44055SOL     OW43888   5.336   3.573   2.414 -0.2716  0.0198  0.6260
44055SOL    HW143889   5.428   3.563   2.390 -0.0184  0.6347  1.3001
44055SOL    HW243890   5.287   3.534   2.341  0.4655  1.5933 -0.7738
44056SOL     OW43891   9.643  11.686  10.036 -0.1081 -0.4482 -0.2003
44056SOL    HW143892   9.566  11.634  10.061 -0.5187  0.4409  0.4595
44056SOL    HW243893   9.716  11.624  10.040 -0.5121 -0.8724  1.0252
44057SOL     OW43894   6.218  10.183   3.065 -0.1981 -0.1452  0.0333
44057SOL    HW143895   6.140  10.192   3.010 -0.5682 -0.5619  0.4742
44057SOL    HW243896   6.281  10.136   3.010  0.1550  1.1426 -0.7128
44058SOL     OW43897   2.074   5.705   5.729  0.0125 -0.6385  0.1094
44058SOL    HW143898   1.996   5.671   5.686  0.1075 -0.3295 -0.3157
44058SOL    HW243899   2.053   5.797   5.748 -0.5684 -1.1225  2.0090
44059SOL     OW43900   5.870  10.539   4.046  0.1716 -0.5897 -0.0005
44059SOL    HW143901   5.820  10.620   4.045  1.5469  0.3006 -0.1139
44059SOL    HW243902   5.891  10.523   3.954  1.8472  0.2268  0.1973
44060SOL     OW43903   4.062   2.544   2.059 -0.1826 -0.5591  0.4104
44060SOL    HW143904   4.145   2.504   2.084  0.0602  0.1198  0.7152
44060SOL    HW243905   4.002   2.521   2.129  0.0073 -0.2294  0.6826
44061SOL     OW43906  10.182   4.345   8.025 -0.7780  0.0356 -0.0228
44061SOL    HW143907  10.252   4.410   8.023 -0.7216  0.0411  1.1593
44061SOL    HW243908  10.103   4.395   8.003 -0.6554  0.4056  0.3517
44062SOL     OW43909   0.949  11.407   7.697  0.2153 -0.0980  0.2390
44062SOL    HW143910   0.864  11.365   7.706  0.3714 -0.3220  0.7948
44062SOL    HW243911   1.008  11.349   7.747  0.1292  1.6878  2.5928
44063SOL     OW43912   0.507   5.604  10.222  0.4787 -0.2355 -0.3903
44063SOL    HW143913   0.432   5.583  10.278  1.0916 -1.1565  0.1024
44063SOL    HW243914   0.549   5.679  10.265 -0.8099  1.0715 -1.3086
44064SOL     OW43915   4.546   3.370   1.536 -0.1374  0.0877  0.2140
44064SOL    HW143916   4.484   3.438   1.508  0.4620  0.6085  0.1137
44064SOL    HW243917   4.565   3.392   1.628  0.0108  0.0199  0.1990
44065SOL     OW43918   7.130   8.615   4.303  0.5901  0.7744  0.1548
44065SOL    HW143919   7.127   8.520   4.293 -4.3533  0.8242 -2.0019
44065SOL    HW243920   7.205   8.643   4.251  0.6064 -1.8174 -1.3879
44066SOL     OW43921   3.653   6.328   0.526 -0.0175  0.0176  0.4746
44066SOL    HW143922   3.621   6.300   0.440  0.6529  1.1949 -0.1963
44066SOL    HW243923   3.605   6.408   0.545  2.2744  1.7464 -0.4876
44067SOL     OW43924   8.267   7.375  10.636 -0.3231  0.3019  0.0461
44067SOL    HW143925   8.184   7.387  10.682 -0.8683 -0.5975 -0.6616
44067SOL    HW243926   8.318   7.317  10.694 -0.9820 -0.7747 -0.4167
44068SOL     OW43927   0.117   4.225  11.634  0.7643  0.0368  0.2537
44068SOL    HW143928   0.160   4.229  11.549 -0.1862  0.5331 -0.2241
44068SOL    HW243929   0.046   4.289  11.628 -1.9239 -2.7388 -0.0828
44069SOL     OW43930   5.070   9.229   1.575  0.6812  0.1715  0.0378
44069SOL    HW143931   5.005   9.204   1.509 -0.6332 -0.5097  1.5155
44069SOL    HW243932   5.141   9.165   1.565  1.0582  0.7855 -1.4458
44070SOL     OW43933   7.189   2.674   7.342  0.0972  0.3461 -0.1962
44070SOL    HW143934   7.221   2.634   7.261  0.7600  0.5841 -0.0581
44070SOL    HW243935   7.106   2.715   7.318  0.2371  0.3189 -0.7287
44071SOL     OW43936   2.195   7.196   7.573 -0.5751  0.1593  0.1180
44071SOL    HW143937   2.248   7.120   7.549 -0.1019  0.3150  0.6545
44071SOL    HW243938   2.229   7.224   7.658 -1.5053  0.2758  0.4660
44072SOL     OW43939  10.411   0.748   1.921  0.0911  0.0743 -0.0957
44072SOL    HW143940  10.335   0.804   1.938 -0.0456  0.0549 -0.6419
44072SOL    HW243941  10.476   0.777   1.986 -0.0393  0.7560 -0.2581
44073SOL     OW43942   6.308   4.472   9.752 -0.0394  0.3775  0.6304
44073SOL    HW143943   6.352   4.434   9.676 -0.4467  1.8992 -0.4136
44073SOL    HW243944   6.266   4.552   9.719 -2.1797 -0.1015  1.9425
44074SOL     OW43945   8.451   4.821   5.557 -0.2823 -0.2362 -0.2259
44074SOL    HW143946   8.359   4.818   5.532 -0.4882 -0.5027  0.5259
44074SOL    HW243947   8.474   4.914   5.551 -0.9602  0.0131  0.7894
44075SOL     OW43948   7.494  11.299   8.611 -0.4342  0.0233  0.5875
44075SOL    HW143949   7.422  11.245   8.578 -0.8814  1.0411 -0.1268
44075SOL    HW243950   7.515  11.358   8.539  1.9259 -1.0238  0.3271
44076SOL     OW43951   7.039   3.775   4.278 -0.3943  0.1895  0.3758
44076SOL    HW143952   6.962   3.745   4.325  0.7164  0.5305  2.5180
44076SOL    HW243953   7.006   3.843   4.218 -1.9027 -0.5534  0.3236
44077SOL     OW43954  11.235   6.312   6.624 -0.1483 -0.2516 -0.2563
44077SOL    HW143955  11.291   6.311   6.546  1.2772  0.2724  0.7363
44077SOL    HW243956  11.162   6.369   6.600  0.8395  0.8037 -0.8503
44078SOL     OW43957   6.638   9.700  10.146 -0.2220  0.2061  0.0138
44078SOL    HW143958   6.633   9.645  10.067  0.0320  1.5251 -0.9494
44078SOL    HW243959   6.714   9.756  10.131  0.0546  0.2314  1.3877
44079SOL     OW43960   4.687   3.950   0.987 -0.0363 -0.0475  0.0565
44079SOL    HW143961   4.690   4.026   1.045  0.5384 -0.9793  1.2993
44079SOL    HW243962   4.769   3.904   1.004  1.1903  0.7389 -3.1167
44080SOL     OW43963   2.395   5.826  10.969  0.6101  0.3738  0.1346
44080SOL    HW143964   2.334   5.753  10.974 -0.0631  0.9911  1.4707
44080SOL    HW243965   2.474   5.795  11.014  2.0939 -1.0762 -3.1148
44081SOL     OW43966   1.975   4.531   1.866 -0.6603 -0.7964 -0.2124
44081SOL    HW143967   1.968   4.445   1.908 -0.3039 -0.9580 -0.4809
44081SOL    HW243968   1.885   4.556   1.847 -0.8360 -0.6970  0.6984
44082SOL     OW43969   6.087  10.767  10.321  0.1353 -0.1569 -0.0577
44082SOL    HW143970   6.171  10.721  10.320  1.5130  2.1555  0.6729
44082SOL    HW243971   6.061  10.773  10.229  2.7823  2.3585 -0.7926
44083SOL     OW43972   9.083   1.877  11.715 -0.3057 -0.0678 -0.2930
44083SOL    HW143973   9.145   1.929  11.767 -0.4816 -0.8363  0.7210
44083SOL    HW243974   9.067   1.930  11.637 -0.3680  1.3498  0.6446
44084SOL     OW43975   4.721  11.872  10.305 -0.3350 -0.0958 -0.4616
44084SOL    HW143976   4.643  11.894  10.357 -1.0822 -0.9106 -1.2003
44084SOL    HW243977   4.763  11.802  10.354  1.0821  1.6484  0.9801
44085SOL     OW43978   0.961   8.045   7.918  0.4350 -0.1115  0.1524
44085SOL    HW143979   0.908   8.060   7.996 -0.2332  0.8867 -0.4763
44085SOL    HW243980   0.980   7.951   7.920 -0.2775 -0.2495  1.0706
44086SOL     OW43981  11.078   2.879   3.101  0.0580  0.2907  0.0312
44086SOL    HW143982  11.084   2.975   3.100 -3.8339  0.6930 -0.5799
44086SOL    HW243983  11.091   2.856   3.193  0.7118  1.4206  0.2441
44087SOL     OW43984   3.038   5.175   8.911  0.4916  0.0049 -0.0963
44087SOL    HW143985   2.963   5.162   8.969  1.1535 -1.4166  0.4672
44087SOL    HW243986   3.113   5.142   8.960  1.1077 -0.9926 -1.6599
44088SOL     OW43987   1.553   9.278   9.513 -0.0377 -0.4988  0.0425
44088SOL    HW143988   1.588   9.361   9.479 -0.0128 -0.1236  0.9558
44088SOL    HW243989   1.487   9.252   9.449 -1.0707  0.9837  0.4663
44089SOL     OW43990  10.602   3.230   9.514 -0.2395  0.3815  0.1413
44089SOL    HW143991  10.669   3.239   9.582 -1.4162 -0.6013  1.5204
44089SOL    HW243992  10.635   3.280   9.440  0.8200  2.0547  1.6606
44090SOL     OW43993   9.874   2.183  10.848  0.7757  0.1937 -0.0581
44090SOL    HW143994   9.905   2.244  10.781  1.9446  0.9743  1.1351
44090SOL    HW243995   9.935   2.196  10.921 -0.6354 -0.4114  1.2622
44091SOL     OW43996   0.421   7.305   9.107  0.6065 -0.3188  0.0807
44091SOL    HW143997   0.440   7.368   9.038  1.1088  0.4756  0.9119
44091SOL    HW243998   0.342   7.259   9.078  0.9324 -0.1480 -1.1025
44092SOL     OW43999   1.681  11.869   5.119 -0.6721 -0.0556  0.1729
44092SOL    HW144000   1.710  11.800   5.179  0.3379  0.0501 -0.1738
44092SOL    HW244001   1.588  11.852   5.107 -0.8457 -0.2261  1.5753
44093SOL     OW44002   8.170   5.018   4.203  0.0678  0.2044  0.4451
44093SOL    HW144003   8.089   5.059   4.232 -1.4367 -2.0603 -0.3584
44093SOL    HW244004   8.158   4.925   4.219  1.8855 -0.3631 -1.0918
44094SOL     OW44005   4.620   6.891   6.390 -0.2764 -0.1226  0.3070
44094SOL    HW144006   4.576   6.975   6.373 -2.3259 -1.4088 -1.1971
44094SOL    HW244007   4.582   6.861   6.473  0.0988  0.1938  0.5976
44095SOL     OW44008  10.352  11.856   1.205 -0.3194  0.8315 -0.7364
44095SOL    HW144009  10.409  11.892   1.273 -0.7419  1.0624 -0.4931
44095SOL    HW244010  10.298  11.931   1.178 -0.9134  0.4837 -0.5326
44096SOL     OW44011   6.912   1.030  10.473  0.0452 -0.4318 -0.5842
44096SOL    HW144012   6.896   0.996  10.561 -0.4420 -0.7721 -0.8016
44096SOL    HW244013   6.971   1.104  10.487  0.4661 -0.8596 -0.0287
44097SOL     OW44014   5.309   0.337  10.526  0.0424  0.4114  0.2618
44097SOL    HW144015   5.332   0.252  10.562 -1.0120 -0.4111 -0.9228
44097SOL    HW244016   5.386   0.363  10.476  0.8438  0.7618  1.6250
44098SOL     OW44017   2.444  10.675   8.366 -0.4575  0.0294 -0.2641
44098SOL    HW144018   2.415  10.587   8.341  0.1652 -1.3931  3.4228
44098SOL    HW244019   2.539  10.668   8.371 -0.3665  1.0808 -0.3970
44099SOL     OW44020   4.316   1.830   2.294  0.5471  0.6909 -0.0641
44099SOL    HW144021   4.368   1.753   2.318 -0.1612 -0.1503 -1.1422
44099SOL    HW244022   4.246   1.832   2.360 -0.0229 -0.2173 -0.6079
44100SOL     OW44023   9.987   0.149   9.496 -0.4117  0.9791 -0.4376
44100SOL    HW144024   9.893   0.137   9.481 -0.2894  2.5516 -3.1262
44100SOL    HW244025  10.023   0.171   9.409  2.5807 -0.2279  0.3599
44101SOL     OW44026   5.639   1.387   0.493  0.5098 -0.1570  0.0181
44101SOL    HW144027   5.678   1.395   0.407  1.4080 -2.0570  0.2053
44101SOL    HW244028   5.676   1.460   0.543  1.8793 -0.4419 -0.5302
44102SOL     OW44029   2.304  11.533   7.397 -0.4772 -0.2025 -0.0035
44102SOL    HW144030   2.318  11.502   7.307 -0.7735 -1.0212  0.2228
44102SOL    HW244031   2.376  11.493   7.447  0.1645  0.9073 -0.0083
44103SOL     OW44032   5.140   0.893   4.005  0.0711 -0.5198 -0.1659
44103SOL    HW144033   5.133   0.940   3.922  0.2581 -0.6804 -0.2748
44103SOL    HW244034   5.136   0.961   4.072 -0.4453 -0.4268 -0.2948
44104SOL     OW44035   9.487   2.165   9.195  0.3995  0.3180 -0.2365
44104SOL    HW144036   9.430   2.241   9.204  0.2944 -0.0103  2.7798
44104SOL    HW244037   9.427   2.090   9.193  0.6355  0.0651  1.4201
44105SOL     OW44038   1.692   3.474   1.615 -0.4309 -0.3840 -0.6644
44105SOL    HW144039   1.765   3.535   1.624 -0.0153 -0.9519 -0.0815
44105SOL    HW244040   1.696   3.447   1.523 -2.0472  2.1795 -1.5714
44106SOL     OW44041   5.571   3.339   7.173 -0.4067  0.6054  0.0212
44106SOL    HW144042   5.530   3.252   7.182 -0.8472  0.8591  0.6073
44106SOL    HW244043   5.661   3.321   7.149  0.1314 -0.1343  2.2763
44107SOL     OW44044   1.299   4.690  10.089 -0.0712 -0.5492  0.0825
44107SOL    HW144045   1.252   4.753  10.143  1.4311 -0.2459  1.0783
44107SOL    HW244046   1.234   4.662  10.023 -2.2030 -1.4831  2.4220
44108SOL     OW44047   0.666   4.299   3.056  0.0471 -0.4113  0.4859
44108SOL    HW144048   0.661   4.380   3.106 -0.2286 -1.0933  1.5953
44108SOL    HW244049   0.756   4.296   3.023 -0.4080  1.1710 -1.0261
44109SOL     OW44050   0.094   3.070   8.056 -0.0152  0.4274  0.2810
44109SOL    HW144051   0.050   2.986   8.042 -1.3383  1.1152  0.0868
44109SOL    HW244052   0.140   3.059   8.140 -1.3577 -0.0328  0.9948
44110SOL     OW44053   3.173  10.522  10.332 -0.2978 -0.0057  0.2825
44110SOL    HW144054   3.199  10.594  10.390 -0.5952 -1.6638  2.6430
44110SOL    HW244055   3.254  10.474  10.316 -0.3955 -0.1557  0.2376
44111SOL     OW44056   8.898   0.252   3.117 -0.2249 -0.0324  1.0078
44111SOL    HW144057   8.988   0.219   3.117  0.1108  0.7163 -1.4064
44111SOL    HW244058   8.907   0.346   3.135 -0.3699  0.2925 -0.5075
44112SOL     OW44059   5.411   3.614   1.397  0.1173  0.3308 -0.3541
44112SOL    HW144060   5.493   3.663   1.389 -0.0054  0.5772 -0.1040
44112SOL    HW244061   5.380   3.604   1.307 -0.0903  1.1077 -0.3758
44113SOL     OW44062  11.957   4.457   7.001  0.0699  0.4159 -0.4545
44113SOL    HW144063  11.907   4.433   7.079  1.5317 -0.5450  0.2163
44113SOL    HW244064  11.921   4.400   6.932 -0.2355  0.2219 -0.1415
44114SOL     OW44065   0.243   3.286   6.603 -0.3828 -0.3505  0.1829
44114SOL    HW144066   0.269   3.378   6.609 -0.8800 -0.1978  0.0287
44114SOL    HW244067   0.248   3.253   6.693 -2.4408  0.4457  0.6335
44115SOL     OW44068   0.768  10.502   4.820 -0.1707 -0.5523 -0.1256
44115SOL    HW144069   0.728  10.455   4.893  1.3591  0.0189  1.1171
44115SOL    HW244070   0.699  10.560   4.789 -0.9278 -0.9865  0.6925
44116SOL     OW44071   5.497   8.192   3.226  0.0241  0.2535  0.1079
44116SOL    HW144072   5.554   8.144   3.166 -0.8557 -1.1641  0.3638
44116SOL    HW244073   5.423   8.134   3.241 -0.4523  1.1520  1.4757
44117SOL     OW44074   7.842   0.967   7.480  0.2938  0.4838 -0.3239
44117SOL    HW144075   7.901   0.895   7.504  1.8264  2.1203  1.0572
44117SOL    HW244076   7.755   0.936   7.506  0.8823 -0.9367  0.0512
44118SOL     OW44077   6.109   2.586   7.555 -0.4608  0.4701 -0.0605
44118SOL    HW144078   6.108   2.592   7.650 -1.3470 -1.2577  0.0723
44118SOL    HW244079   6.026   2.625   7.527 -0.1637  1.0535 -0.1412
44119SOL     OW44080   6.453  10.579   9.725 -0.5106 -0.2168 -0.6581
44119SOL    HW144081   6.509  10.501   9.730 -1.3836 -0.9099 -1.3900
44119SOL    HW244082   6.364  10.545   9.725 -0.9010  0.7479 -1.4133
44120SOL     OW44083   7.752   1.252  10.165 -0.5353  0.4545  0.5819
44120SOL    HW144084   7.724   1.328  10.216 -0.3897 -0.1658  1.5950
44120SOL    HW244085   7.761   1.181  10.229  1.4632  0.1263  0.0095
44121SOL     OW44086   3.210   7.289   5.796  0.4493 -0.0165 -0.6525
44121SOL    HW144087   3.292   7.249   5.824  0.0656 -0.8651 -0.7169
44121SOL    HW244088   3.190   7.247   5.713 -1.7383 -2.2955  0.8903
44122SOL     OW44089   7.487   1.570   4.358 -0.0459 -0.6307 -0.4915
44122SOL    HW144090   7.422   1.505   4.383  0.7249 -1.1415  0.2149
44122SOL    HW244091   7.440   1.629   4.299 -1.1330 -1.0198 -0.0383
44123SOL     OW44092   1.209  10.850   9.071 -0.5971  0.4024  0.0963
44123SOL    HW144093   1.174  10.761   9.073  1.4222 -0.4258  0.8954
44123SOL    HW244094   1.268  10.850   8.996 -0.4665  1.0385  0.1995
44124SOL     OW44095   3.892   3.089   1.676 -0.7203  0.5359  0.6060
44124SOL    HW144096   3.983   3.120   1.674  0.1993 -1.8887 -1.5520
44124SOL    HW244097   3.894   3.016   1.739 -0.9729 -0.0063 -0.0125
44125SOL     OW44098   5.212   3.816   2.377 -0.1471 -0.3002 -0.9587
44125SOL    HW144099   5.282   3.751   2.380 -1.4520 -1.7394  1.0179
44125SOL    HW244100   5.137   3.769   2.342 -0.9741  0.2641 -0.0143
44126SOL     OW44101   9.094   8.651  10.845  0.1994 -0.1017  0.0626
44126SOL    HW144102   9.116   8.718  10.909  0.1528  0.9335 -0.9755
44126SOL    HW244103   9.122   8.687  10.761  1.5773 -1.9998 -0.3785
44127SOL     OW44104   3.925   3.545   4.295 -0.1532 -0.0224 -0.1318
44127SOL    HW144105   3.973   3.529   4.376  0.1116 -1.3382 -0.5233
44127SOL    HW244106   3.892   3.634   4.304  0.7462  0.2263  0.9704
44128SOL     OW44107  10.628   7.729   9.543  0.5968 -0.2732  0.6627
44128SOL    HW144108  10.604   7.678   9.621  1.5283  1.1735  1.9387
44128SOL    HW244109  10.652   7.815   9.577  0.2318  0.6685 -1.3222
44129SOL     OW44110   2.662   0.257   8.314  0.5300 -0.5107 -0.4867
44129SOL    HW144111   2.659   0.175   8.265  0.7077 -0.1137 -1.1677
44129SOL    HW244112   2.742   0.300   8.285 -1.5349  1.8514 -3.3352
44130SOL     OW44113   2.346   3.009   9.879  0.6624  0.0654 -0.4269
44130SOL    HW144114   2.343   2.916   9.899 -1.9845  0.4082  1.3854
44130SOL    HW244115   2.394   3.048   9.953  1.4409  0.2017 -0.9916
44131SOL     OW44116   7.356  11.504   7.622 -0.1959 -0.6879  0.2929
44131SOL    HW144117   7.325  11.486   7.534 -0.2710 -1.1396  0.4092
44131SOL    HW244118   7.447  11.475   7.623  0.7662  1.9943 -0.4884
44132SOL     OW44119   7.381   5.997   4.618 -0.0770  0.1011 -0.0173
44132SOL    HW144120   7.420   5.925   4.668  0.8324  1.3965  1.2564
44132SOL    HW244121   7.416   5.987   4.530 -0.4174 -1.3151 -0.0142
44133SOL     OW44122   2.304   6.253   6.814  0.0182  0.2012 -0.2589
44133SOL    HW144123   2.319   6.346   6.794  0.8205  0.0358 -0.4616
44133SOL    HW244124   2.267   6.216   6.734 -0.5385  0.3907 -0.0965
44134SOL     OW44125  10.263   4.553   6.542 -0.1551 -0.2924 -0.0543
44134SOL    HW144126  10.227   4.595   6.464  3.6047  4.1395  0.1864
44134SOL    HW244127  10.229   4.604   6.615  0.7529 -0.7583  0.7174
44135SOL     OW44128   2.397   6.912   6.586  0.4844  0.6355  0.6233
44135SOL    HW144129   2.452   6.916   6.664  0.5010 -0.0051  0.6473
44135SOL    HW244130   2.447   6.857   6.525 -0.7836 -1.1960  1.1742
44136SOL     OW44131   1.182   5.580   5.017  0.0667 -0.1868  0.5649
44136SOL    HW144132   1.121   5.534   5.074  1.4840 -1.9869  0.7345
44136SOL    HW244133   1.167   5.543   4.930  1.2719 -1.0886  0.7154
44137SOL     OW44134   4.518   8.640   6.276 -0.0193  0.7263  0.5633
44137SOL    HW144135   4.426   8.624   6.252  0.4999 -0.2830 -0.8549
44137SOL    HW244136   4.562   8.658   6.193  1.6572 -1.8067  0.7938
44138SOL     OW44137   5.867   5.659   5.382 -0.0763  0.3873  0.3443
44138SOL    HW144138   5.945   5.621   5.421 -0.7158 -1.2114  0.1537
44138SOL    HW244139   5.830   5.715   5.450  1.5235  1.6854  0.2242
44139SOL     OW44140   9.074   5.914   3.357  0.7202 -0.2583 -0.5129
44139SOL    HW144141   9.126   5.964   3.294 -0.5796  0.0227 -1.3899
44139SOL    HW244142   9.023   5.854   3.304  0.0449 -0.4348  0.3135
44140SOL     OW44143   0.656   8.035   9.612  0.1007  0.3209  0.1654
44140SOL    HW144144   0.694   8.103   9.557  0.5157 -0.8652 -1.0863
44140SOL    HW244145   0.691   7.953   9.576 -3.3424 -0.8507 -0.9131
44141SOL     OW44146   6.320   2.952   1.443 -0.6365 -0.6155 -0.6216
44141SOL    HW144147   6.312   3.029   1.500 -0.0661 -0.4780 -0.7236
44141SOL    HW244148   6.233   2.942   1.404 -0.1931  1.3349 -2.3319
44142SOL     OW44149   4.290  10.730   2.240 -0.4650 -0.6334 -0.1733
44142SOL    HW144150   4.322  10.803   2.188  0.0419 -0.8489 -0.1634
44142SOL    HW244151   4.196  10.727   2.221 -0.7165  0.7407  0.7242
44143SOL     OW44152   3.977   5.145   0.873 -0.3483  0.3200 -0.0970
44143SOL    HW144153   3.925   5.100   0.805  0.9813  0.2019 -1.0705
44143SOL    HW244154   4.056   5.091   0.882 -0.5243  0.2986  1.6190
44144SOL     OW44155  10.597   9.473   5.013  0.1376 -0.5154 -0.3391
44144SOL    HW144156  10.533   9.481   5.083  1.1536  0.0262  0.5758
44144SOL    HW244157  10.661   9.409   5.045  0.4581 -0.4864 -0.8944
44145SOL     OW44158   6.560   6.553   4.683 -0.0925 -0.2943  0.0999
44145SOL    HW144159   6.477   6.586   4.649 -0.1238  0.3919  0.8342
44145SOL    HW244160   6.611   6.631   4.702  0.8004 -0.7170 -0.5167
44146SOL     OW44161   3.848   4.619   2.544  0.3948  0.0358  0.2925
44146SOL    HW144162   3.820   4.550   2.605  1.1697 -0.8014 -0.2627
44146SOL    HW244163   3.768   4.668   2.524 -0.1715 -0.6899  0.7340
44147SOL     OW44164   8.040   1.416   3.902  0.3967  0.5358 -0.4293
44147SOL    HW144165   8.100   1.347   3.929 -0.0898  0.4098  0.3654
44147SOL    HW244166   8.047   1.482   3.971  0.1122  0.8232 -0.6710
44148SOL     OW44167   5.479   9.551   5.800 -0.1661  0.4991  0.0571
44148SOL    HW144168   5.512   9.462   5.813 -0.4712  0.4510  0.5466
44148SOL    HW244169   5.493   9.570   5.707  0.7453  0.2855  0.1525
44149SOL     OW44170   8.224  10.497   0.544  0.0109  0.0949  0.2113
44149SOL    HW144171   8.271  10.557   0.602 -0.0249  0.6142 -0.2912
44149SOL    HW244172   8.180  10.436   0.604  0.4555  0.2585  0.7113
44150SOL     OW44173   3.800   6.122   9.698 -0.1233 -0.6607  0.4816
44150SOL    HW144174   3.867   6.139   9.632 -0.1902 -2.7089 -0.1649
44150SOL    HW244175   3.848   6.115   9.781  0.0646  0.9420  0.5483
44151SOL     OW44176   3.984   3.063   5.321  0.4791  0.3490 -0.0676
44151SOL    HW144177   4.050   3.047   5.389  0.4119 -0.6952 -0.2273
44151SOL    HW244178   3.901   3.070   5.369  0.6040  0.9226  0.0685
44152SOL     OW44179   8.731   8.083   6.853  0.2040  0.7245  0.4865
44152SOL    HW144180   8.636   8.096   6.856  0.1812  0.7341 -0.1141
44152SOL    HW244181   8.745   8.029   6.776  0.7022  0.8580  0.4802
44153SOL     OW44182   2.273   9.262   3.359  0.0599 -0.2682  0.9372
44153SOL    HW144183   2.237   9.313   3.432  0.4417  0.4517  0.6307
44153SOL    HW244184   2.363   9.244   3.384 -0.2506 -1.3261  1.3162
44154SOL     OW44185   7.707   8.684  10.788  0.0319 -0.1690 -0.2723
44154SOL    HW144186   7.730   8.618  10.853 -1.6634  0.6487  1.2356
44154SOL    HW244187   7.706   8.766  10.836 -0.8812  0.5292 -1.4314
44155SOL     OW44188  11.029   5.641  10.381 -0.3981  0.5180  0.0935
44155SOL    HW144189  11.069   5.559  10.412 -0.6664  0.8056  1.2301
44155SOL    HW244190  10.975   5.614  10.306 -0.7211 -0.3962  0.6406
44156SOL     OW44191  10.693   1.118   3.578  0.1910 -0.4813 -0.2128
44156SOL    HW144192  10.761   1.183   3.558 -0.2385  1.3324  3.3671
44156SOL    HW244193  10.636   1.119   3.502  0.2768  3.3852 -0.4526
44157SOL     OW44194   0.170  11.258   7.470 -0.4049 -0.1955  0.0377
44157SOL    HW144195   0.103  11.210   7.422 -1.5723  1.9273 -0.6059
44157SOL    HW244196   0.137  11.262   7.560 -0.6715  0.0197 -0.0678
44158SOL     OW44197   3.084   7.803   5.398  0.5071 -0.2283 -0.0945
44158SOL    HW144198   3.001   7.755   5.405  0.3828  0.0165  0.1483
44158SOL    HW244199   3.146   7.752   5.449 -0.1473  0.9999  2.0489
44159SOL     OW44200   6.196   0.491   5.016 -0.5658 -0.1258 -0.0386
44159SOL    HW144201   6.172   0.400   4.997  1.7720 -0.7660 -0.2658
44159SOL    HW244202   6.269   0.509   4.956 -0.4856  1.6495  0.5450
44160SOL     OW44203   2.641  10.532   2.976 -0.1297 -0.3733 -0.1685
44160SOL    HW144204   2.706  10.497   3.037  0.0003 -2.6654 -1.5036
44160SOL    HW244205   2.580  10.581   3.032 -0.2178 -2.6289  1.8968
44161SOL     OW44206   7.492   8.263   7.598 -0.3237  0.1308 -0.0328
44161SOL    HW144207   7.451   8.189   7.554 -0.0577 -0.3315  0.4752
44161SOL    HW244208   7.511   8.325   7.528  0.6083 -0.8293 -0.6706
44162SOL     OW44209  11.164   3.010   4.026 -0.7337 -0.0153 -0.2752
44162SOL    HW144210  11.195   3.098   4.048 -0.9748 -0.2021  0.9098
44162SOL    HW244211  11.097   2.991   4.091  0.5687 -1.7667  0.6698
44163SOL     OW44212   2.960   1.926   1.929 -0.4178  0.2679  0.6056
44163SOL    HW144213   2.891   1.990   1.947 -0.9962 -0.3058  0.4366
44163SOL    HW244214   2.915   1.853   1.888  0.3668  0.0885  0.0497
44164SOL     OW44215   9.513   4.490   9.445  0.0578  0.2689  0.2184
44164SOL    HW144216   9.494   4.551   9.516 -0.1682  0.9703 -0.4286
44164SOL    HW244217   9.444   4.505   9.381  1.5135  1.3205 -1.1947
44165SOL     OW44218   3.482   3.739   8.633 -0.1999  0.0110 -0.3103
44165SOL    HW144219   3.427   3.761   8.557  0.3837 -2.5817 -1.6057
44165SOL    HW244220   3.568   3.775   8.611 -0.5332  1.1004  0.1296
44166SOL     OW44221   5.979   0.373   1.114 -0.0334 -0.0989  0.0635
44166SOL    HW144222   6.070   0.403   1.119 -0.4620  1.2351  0.0748
44166SOL    HW244223   5.986   0.277   1.111  1.3893 -0.0039 -0.4403
44167SOL     OW44224   4.224  10.644  11.610  0.0215  0.0787  0.1921
44167SOL    HW144225   4.289  10.591  11.657  0.6300  0.5195 -0.1272
44167SOL    HW244226   4.221  10.604  11.523  0.1009  0.2509  0.1107
44168SOL     OW44227   9.387   5.333   3.919 -0.1976  0.0341 -0.2271
44168SOL    HW144228   9.395   5.425   3.896 -0.3943  0.5655  1.6538
44168SOL    HW244229   9.330   5.332   3.996 -2.5024 -1.9313 -1.8250
44169SOL     OW44230   0.962   7.005   4.707  0.5682  0.4054 -0.1747
44169SOL    HW144231   0.883   6.951   4.707  1.0733 -0.3551 -1.1676
44169SOL    HW244232   0.961   7.049   4.623  1.5314 -0.1229 -0.4782
44170SOL     OW44233   7.167   8.430  10.919  0.2291  0.3355 -0.2046
44170SOL    HW144234   7.119   8.431  10.836  0.2516  0.3259 -0.2177
44170SOL    HW244235   7.259   8.428  10.893  0.2469  0.7854 -0.1783
44171SOL     OW44236   9.064   2.341  11.452 -0.4961  0.3242 -0.2157
44171SOL    HW144237   9.138   2.282  11.467 -0.8887  0.1433  1.1055
44171SOL    HW244238   8.998   2.287  11.409 -0.0981  0.3280 -0.8387
44172SOL     OW44239   8.590   0.362   6.377  0.2611 -0.2573  0.0715
44172SOL    HW144240   8.682   0.376   6.398  0.5481 -1.5672 -0.2080
44172SOL    HW244241   8.568   0.279   6.418 -0.8867  0.1803  0.3793
44173SOL     OW44242   0.236   7.148   7.963  0.1679  0.5234 -0.4503
44173SOL    HW144243   0.253   7.053   7.959 -0.1487  0.4374  0.1338
44173SOL    HW244244   0.323   7.187   7.968  0.2687  0.1518  1.2112
44174SOL     OW44245   8.236   3.236   5.202 -0.0075 -1.5426  0.1302
44174SOL    HW144246   8.283   3.197   5.276 -0.4485  0.3221  1.4499
44174SOL    HW244247   8.146   3.206   5.213 -0.7738  1.1809  2.2567
44175SOL     OW44248   5.512   0.815   5.107 -0.1992 -0.4168 -0.2019
44175SOL    HW144249   5.602   0.782   5.103  0.1580  0.5999 -0.7748
44175SOL    HW244250   5.470   0.778   5.030  0.1574  0.3175 -0.7587
44176SOL     OW44251   2.777   8.276   6.754 -0.1544 -0.0989 -0.1156
44176SOL    HW144252   2.862   8.236   6.735  0.9613  1.4115  1.4840
44176SOL    HW244253   2.738   8.219   6.820 -0.8231 -1.2446 -1.4159
44177SOL     OW44254   5.590   7.843   2.654 -0.2588 -0.2615  0.5731
44177SOL    HW144255   5.586   7.806   2.566  0.2718  0.4461  0.2522
44177SOL    HW244256   5.628   7.773   2.707 -1.9001 -1.2221  0.5382
44178SOL     OW44257   0.447   3.901   7.946 -0.5715 -0.2561  0.0030
44178SOL    HW144258   0.497   3.825   7.917  2.9070  2.7801 -3.0538
44178SOL    HW244259   0.395   3.926   7.869 -0.9113  0.9655  0.6022
44179SOL     OW44260   9.012   7.158   3.645 -0.2173  0.2219  0.3869
44179SOL    HW144261   9.060   7.226   3.694 -0.0973  0.5894 -0.2331
44179SOL    HW244262   9.048   7.163   3.556  0.2672 -1.1030  0.4879
44180SOL     OW44263  11.560   2.639   3.186  0.3049  0.1002 -0.5286
44180SOL    HW144264  11.650   2.626   3.217  0.0217 -0.0353  0.2455
44180SOL    HW244265  11.529   2.550   3.167 -0.0110  0.0552  0.1847
44181SOL     OW44266  11.265   9.337   9.979 -0.0755  0.3111  0.1384
44181SOL    HW144267  11.190   9.384   9.943  0.2366 -0.0846 -1.1019
44181SOL    HW244268  11.265   9.253   9.933  0.7938  0.0856  0.5322
44182SOL     OW44269   4.455   5.334  10.320 -0.0162 -0.3440  0.2830
44182SOL    HW144270   4.461   5.427  10.295  0.9784 -0.7332 -1.0731
44182SOL    HW244271   4.452   5.335  10.415 -1.3471  1.1406  0.2671
44183SOL     OW44272   1.866  11.625   4.994 -0.1966  0.2759 -0.1656
44183SOL    HW144273   1.921  11.637   5.071  0.1198 -2.5864  0.1310
44183SOL    HW244274   1.927  11.614   4.921 -0.4641  0.4752 -0.4280
44184SOL     OW44275   7.738   6.959   8.569  0.2084 -0.3612 -0.6626
44184SOL    HW144276   7.699   6.906   8.500 -0.4647  0.1390 -0.6687
44184SOL    HW244277   7.768   7.039   8.526  1.5147 -0.8411 -0.7134
44185SOL     OW44278   2.694   7.087   7.480 -0.4374 -0.3766 -0.1145
44185SOL    HW144279   2.643   7.055   7.406 -0.1578 -1.3733  0.1172
44185SOL    HW244280   2.784   7.087   7.448 -0.4786  0.6105 -0.2571
44186SOL     OW44281  11.329   3.811   1.035  0.0326  0.2525 -0.0876
44186SOL    HW144282  11.291   3.727   1.008  0.7384 -0.4588  1.0276
44186SOL    HW244283  11.399   3.827   0.972 -0.6566  0.4527 -0.8185
44187SOL     OW44284   2.235   4.858   2.341 -0.0541 -0.7967 -0.4387
44187SOL    HW144285   2.293   4.929   2.371  0.6354 -1.3911 -0.3258
44187SOL    HW244286   2.242   4.860   2.246  0.0481 -0.7783 -0.4315
44188SOL     OW44287  10.121   5.474  10.114 -0.5566  0.6532 -0.5155
44188SOL    HW144288  10.199   5.523  10.089  0.0941 -0.7315 -1.2917
44188SOL    HW244289  10.145   5.429  10.195 -0.2912 -0.3222 -1.1228
44189SOL     OW44290   4.778  11.278   1.146  0.3112 -0.3304 -0.1787
44189SOL    HW144291   4.848  11.235   1.096  0.1770 -0.9087  0.1145
44189SOL    HW244292   4.731  11.330   1.081  1.5298  0.7729 -0.2215
44190SOL     OW44293   6.720   3.991   8.596 -0.6148  0.1949 -1.3019
44190SOL    HW144294   6.675   4.043   8.662 -0.4110  0.6179 -1.4901
44190SOL    HW244295   6.811   4.019   8.601 -0.9594  1.8996 -3.2729
44191SOL     OW44296   7.274   2.548   4.228  0.5602  0.4512  0.2026
44191SOL    HW144297   7.196   2.595   4.258 -0.3590  0.7365 -2.3718
44191SOL    HW244298   7.245   2.458   4.215  0.1820  0.8295 -2.0645
44192SOL     OW44299   5.566   3.202   0.745  0.6179 -0.0457  0.6680
44192SOL    HW144300   5.576   3.119   0.792 -2.8889 -1.0981 -0.1477
44192SOL    HW244301   5.571   3.178   0.653  0.6290  0.8413  0.4270
44193SOL     OW44302   5.844   5.328   4.291  0.3834 -0.2919 -0.2645
44193SOL    HW144303   5.834   5.423   4.282 -0.4252 -0.4834 -1.7115
44193SOL    HW244304   5.936   5.315   4.313  0.3936  0.8474  0.4086
44194SOL     OW44305   5.831   3.037   0.898  0.0333 -0.0339 -0.1965
44194SOL    HW144306   5.759   3.015   0.839  0.5487  0.1142 -0.9104
44194SOL    HW244307   5.809   2.995   0.981 -0.3935 -0.8054 -0.6884
44195SOL     OW44308   6.918  11.767  10.657 -0.7300 -0.6594 -0.0819
44195SOL    HW144309   6.921  11.808  10.571 -0.6592 -0.3295  0.0732
44195SOL    HW244310   6.834  11.796  10.694  0.2325  1.1366  0.8767
44196SOL     OW44311  11.288   4.495   4.196 -0.3970 -0.1906  0.0271
44196SOL    HW144312  11.310   4.415   4.244  0.3882  0.3993  0.6785
44196SOL    HW244313  11.196   4.484   4.172  0.2092 -2.2030 -1.7184
44197SOL     OW44314  11.156   1.245   9.575  0.4099 -0.3948  0.0899
44197SOL    HW144315  11.244   1.226   9.609  1.0985  0.5892 -1.0931
44197SOL    HW244316  11.134   1.330   9.613 -0.7061 -1.3027  1.6019
44198SOL     OW44317   5.312  10.888  10.988 -0.1760  0.1065  0.2502
44198SOL    HW144318   5.361  10.880  11.070  0.2746 -1.1653 -0.1170
44198SOL    HW244319   5.364  10.949  10.935 -1.2059  2.1003  1.3835
44199SOL     OW44320   8.291   5.571   3.525  0.1161  0.2071 -0.4881
44199SOL    HW144321   8.372   5.531   3.556 -0.5234 -0.5978  0.1656
44199SOL    HW244322   8.226   5.501   3.529 -0.9175  1.1730  0.2659
44200SOL     OW44323   9.873   5.134   6.586 -0.4802 -0.4033 -0.1733
44200SOL    HW144324   9.808   5.084   6.637 -0.6313 -1.0681 -0.9892
44200SOL    HW244325   9.939   5.069   6.562 -0.2592 -0.0373 -0.5610
44201SOL     OW44326   3.801   0.602   0.544  0.2361 -0.0738 -0.1620
44201SOL    HW144327   3.877   0.613   0.601 -0.7254  2.1328  0.8528
44201SOL    HW244328   3.740   0.550   0.596  1.0422 -1.9672 -1.0319
44202SOL     OW44329   9.725   6.931   9.613  0.5408  0.5233  0.0568
44202SOL    HW144330   9.792   6.883   9.565 -0.2043  1.8115 -2.4686
44202SOL    HW244331   9.642   6.896   9.581 -0.0628 -0.1450  2.1660
44203SOL     OW44332   6.717  11.141   5.621 -0.3804 -0.2164  0.3313
44203SOL    HW144333   6.670  11.061   5.644  0.1133 -1.0198 -1.2695
44203SOL    HW244334   6.649  11.201   5.588 -0.4757 -0.9134 -0.7945
44204SOL     OW44335   0.232  11.816   6.034  0.5231 -0.0096 -0.1095
44204SOL    HW144336   0.200  11.901   6.066 -1.6482 -0.5484 -0.6598
44204SOL    HW244337   0.321  11.809   6.069  0.8211  2.5286 -0.1448
44205SOL     OW44338   7.202   3.862  10.938 -0.0115  0.0190 -0.3322
44205SOL    HW144339   7.127   3.921  10.948 -0.4362 -0.6123  0.2983
44205SOL    HW244340   7.274   3.906  10.985 -0.3341  0.0341  0.1561
44206SOL     OW44341   8.956  10.952  11.878 -0.3122  0.2825  0.3000
44206SOL    HW144342   9.005  10.944  11.795 -1.0467 -0.0130 -0.1120
44206SOL    HW244343   8.973  10.870  11.924 -0.9990 -0.1423 -0.1737
44207SOL     OW44344   3.188   0.884   0.567 -0.3508 -0.2941 -0.7030
44207SOL    HW144345   3.276   0.888   0.605 -0.3987  2.1177 -0.6933
44207SOL    HW244346   3.140   0.825   0.625  0.5183  0.5473  0.9567
44208SOL     OW44347   6.556   2.201  11.242  0.3831  0.1594 -0.4856
44208SOL    HW144348   6.528   2.112  11.220  0.0732 -0.1997  1.2110
44208SOL    HW244349   6.483   2.256  11.216 -1.1638 -0.5497  2.0128
44209SOL     OW44350   4.776   7.778   4.255  0.1719 -0.1860 -0.4605
44209SOL    HW144351   4.685   7.809   4.259 -0.4542 -1.0763 -3.9654
44209SOL    HW244352   4.772   7.687   4.281  0.0954 -0.1493 -0.3466
44210SOL     OW44353   9.817  11.494   8.208  1.1227  0.0655  0.0339
44210SOL    HW144354   9.903  11.466   8.240  1.8112  1.0847 -0.8678
44210SOL    HW244355   9.833  11.523   8.118 -0.4320 -1.0372 -0.6547
44211SOL     OW44356   7.171   7.583  11.047 -0.3524  0.4778  0.5491
44211SOL    HW144357   7.188   7.516  11.113  1.0036  0.7008  0.4457
44211SOL    HW244358   7.249   7.638  11.048 -0.3806  0.5849 -1.1173
44212SOL     OW44359   4.241   8.429   6.962 -0.2254  0.3724 -0.2365
44212SOL    HW144360   4.195   8.371   7.023  1.3663 -0.4205  0.2741
44212SOL    HW244361   4.333   8.402   6.968  0.8713  3.8331  1.0768
44213SOL     OW44362   5.764   2.097   7.990 -0.1200  0.1774 -0.3620
44213SOL    HW144363   5.809   2.180   8.007  1.9770 -0.7561 -1.0506
44213SOL    HW244364   5.707   2.115   7.916  0.0207  1.0950 -0.2617
44214SOL     OW44365   6.208   9.019   2.019 -0.0761 -0.5153  0.0775
44214SOL    HW144366   6.239   9.087   2.079 -0.5443 -0.0991 -0.1475
44214SOL    HW244367   6.288   8.983   1.981  0.1709  0.1363 -0.0472
44215SOL     OW44368  11.867   2.177  10.431 -0.4896 -0.6200  0.6916
44215SOL    HW144369  11.862   2.083  10.448 -1.3530 -0.4150  1.6846
44215SOL    HW244370  11.834   2.186  10.342  2.7813 -1.5766 -0.7592
44216SOL     OW44371  11.322   3.569   6.201 -0.0628 -0.0988 -0.2913
44216SOL    HW144372  11.257   3.597   6.265 -0.2147 -0.3156 -0.3463
44216SOL    HW244373  11.270   3.531   6.130  0.0569  0.8769 -0.9198
44217SOL     OW44374   6.816   1.298   4.514  0.5389 -0.1059 -0.1199
44217SOL    HW144375   6.796   1.271   4.424 -0.6251  1.7814 -0.5044
44217SOL    HW244376   6.905   1.268   4.529  0.0668 -2.2081 -1.1713
44218SOL     OW44377   5.359   6.165  11.718  0.2171 -0.0035 -0.6839
44218SOL    HW144378   5.267   6.169  11.693  0.1956  0.1526 -0.5780
44218SOL    HW244379   5.359   6.119  11.802 -0.0332  2.3573  0.6808
44219SOL     OW44380   8.727   4.416   8.636  0.0715 -0.2681 -0.1293
44219SOL    HW144381   8.699   4.506   8.624  0.6393  0.0057  0.5342
44219SOL    HW244382   8.769   4.393   8.553  0.2325  0.1942 -0.1775
44220SOL     OW44383   4.254   5.893   1.130  0.9177  1.2150  0.0077
44220SOL    HW144384   4.322   5.952   1.166  2.1644 -0.0445 -0.1897
44220SOL    HW244385   4.184   5.896   1.195  1.9066  1.2203  1.1288
44221SOL     OW44386   0.515   2.175   9.079  0.4729  0.3146 -0.0617
44221SOL    HW144387   0.502   2.218   9.164  1.2085  0.3901  0.0251
44221SOL    HW244388   0.611   2.171   9.070  0.4193 -0.9753 -0.2339
44222SOL     OW44389   3.970   2.329   6.855 -0.3671  0.5851  0.0194
44222SOL    HW144390   3.908   2.265   6.890  0.2608 -0.3987 -0.6447
44222SOL    HW244391   3.968   2.400   6.919 -0.1875 -0.6030  1.4022
44223SOL     OW44392   1.997   4.468   9.958  0.8326 -0.2290 -0.2632
44223SOL    HW144393   2.039   4.535   9.905  1.5315 -1.0169 -0.7287
44223SOL    HW244394   1.918   4.443   9.909 -0.3512  1.3964  0.7109
44224SOL     OW44395   6.978   8.720  11.121 -0.1216 -0.1495  0.2127
44224SOL    HW144396   6.891   8.721  11.162 -1.6258  0.6182 -2.7162
44224SOL    HW244397   7.014   8.807  11.141 -0.0451 -0.4297  1.3529
44225SOL     OW44398   2.621   7.727  10.262 -0.1831  0.2915 -0.0558
44225SOL    HW144399   2.701   7.684  10.233  0.6739  1.1915  0.8543
44225SOL    HW244400   2.620   7.715  10.357 -1.6814 -0.5796 -0.1492
44226SOL     OW44401   1.058   7.549   8.115 -0.3575  0.2167 -0.2669
44226SOL    HW144402   1.117   7.543   8.190 -0.2687  0.3051 -0.3285
44226SOL    HW244403   0.997   7.477   8.126  1.4027 -1.5728 -1.6334
44227SOL     OW44404   3.799   7.488   6.199 -0.0850  0.1238 -0.0504
44227SOL    HW144405   3.797   7.393   6.187  0.5286  0.0387  0.4712
44227SOL    HW244406   3.717   7.508   6.244 -1.4809  0.1989 -2.4153
44228SOL     OW44407   4.016   9.363   0.439  0.3837  0.4341  0.5468
44228SOL    HW144408   3.922   9.380   0.444  0.2533 -0.3223  0.7677
44228SOL    HW244409   4.047   9.419   0.368 -0.2530  0.6078  0.4054
44229SOL     OW44410  11.212   1.737   5.429 -0.0367 -0.2024 -0.1840
44229SOL    HW144411  11.172   1.824   5.421  1.3257  0.4117 -0.6716
44229SOL    HW244412  11.239   1.715   5.340  0.9842 -0.4436  0.1707
44230SOL     OW44413   2.482   3.552   6.248 -0.3987  0.1393  0.3292
44230SOL    HW144414   2.529   3.500   6.313 -1.1568 -0.9032  0.0788
44230SOL    HW244415   2.537   3.628   6.233  2.3413 -2.0132 -1.5343
44231SOL     OW44416   2.756  11.467   4.438  0.6075  0.4096 -0.5099
44231SOL    HW144417   2.671  11.509   4.446  0.7069  0.3554  1.1361
44231SOL    HW244418   2.819  11.539   4.441  0.6464  0.4869 -2.1205
44232SOL     OW44419  11.820   0.601  11.605 -0.4074  0.5754  0.0834
44232SOL    HW144420  11.872   0.528  11.572 -0.0239  0.8933 -0.0195
44232SOL    HW244421  11.787   0.645  11.527 -0.2913  0.7576  0.1358
44233SOL     OW44422   3.387   6.071   5.695  0.0645 -0.5636  0.1696
44233SOL    HW144423   3.311   6.033   5.650  1.0355 -1.8482 -0.4600
44233SOL    HW244424   3.382   6.035   5.784 -0.8264  0.4870  0.5598
44234SOL     OW44425   0.330   9.545  10.028 -0.2445  0.1833 -0.5526
44234SOL    HW144426   0.283   9.463  10.044 -1.0002  0.8636  0.8215
44234SOL    HW244427   0.397   9.549  10.096  1.4214 -0.4322 -2.0695
44235SOL     OW44428   1.885   9.079   6.663  0.5130  0.2560 -0.0383
44235SOL    HW144429   1.883   8.990   6.628 -0.6644  0.2888 -0.0772
44235SOL    HW244430   1.967   9.083   6.713 -0.1765 -1.3745  1.3248
44236SOL     OW44431   5.970   2.725   0.888 -0.5164 -0.0753  0.3036
44236SOL    HW144432   6.012   2.784   0.826  0.3050  1.4920  2.2660
44236SOL    HW244433   6.037   2.659   0.907 -0.9615 -0.8961 -0.8286
44237SOL     OW44434   9.452  10.963   8.664  0.3335  0.0032 -0.0755
44237SOL    HW144435   9.366  10.921   8.669  0.9863 -1.3132  0.6988
44237SOL    HW244436   9.443  11.028   8.595 -0.7280 -1.4973 -1.4249
44238SOL     OW44437   4.117   7.102   1.315 -0.0832 -0.2470  0.6276
44238SOL    HW144438   4.093   7.071   1.228 -1.0521 -1.6277  1.3516
44238SOL    HW244439   4.200   7.058   1.335 -0.4462 -0.8360  0.8548
44239SOL     OW44440   3.565   7.753   8.528 -0.5991  0.5191 -0.1067
44239SOL    HW144441   3.492   7.788   8.478  0.0020  0.3392 -1.1552
44239SOL    HW244442   3.533   7.670   8.563 -0.6005 -0.0273 -1.3662
44240SOL     OW44443   2.743  10.316   9.801  0.0392 -0.0393  0.1265
44240SOL    HW144444   2.749  10.227   9.766 -1.6705 -0.0436 -0.2516
44240SOL    HW244445   2.682  10.309   9.873 -0.3529  0.8820 -0.1038
44241SOL     OW44446  11.198   9.851   3.410  0.2750 -0.4713 -0.2446
44241SOL    HW144447  11.142   9.841   3.487 -0.7606  3.8227 -0.1786
44241SOL    HW244448  11.288   9.846   3.445 -0.1533 -0.6612  0.8689
44242SOL     OW44449  11.657  10.210   6.970  0.1755 -0.2953  0.1328
44242SOL    HW144450  11.618  10.167   7.046  1.7066  0.9125  1.6751
44242SOL    HW244451  11.594  10.278   6.946  0.1656  0.0258  1.0278
44243SOL     OW44452   9.478   1.572   4.034  0.4729 -0.1664 -0.0907
44243SOL    HW144453   9.393   1.615   4.042  0.6224 -0.2249  2.9563
44243SOL    HW244454   9.491   1.527   4.117  3.3722 -0.3870 -0.5293
44244SOL     OW44455   5.334   1.615   6.527 -0.3794  0.0549 -0.1637
44244SOL    HW144456   5.363   1.537   6.574  1.2222 -1.1561 -2.9437
44244SOL    HW244457   5.239   1.612   6.531 -0.3100 -0.6363  1.8813
44245SOL     OW44458   5.322   0.399   4.469 -0.9155  0.2616  0.1813
44245SOL    HW144459   5.365   0.330   4.419  0.9591  1.6528 -0.2445
44245SOL    HW244460   5.302   0.467   4.404  0.0731  1.4072  1.0289
44246SOL     OW44461   5.275   4.890  10.045 -0.3511 -0.5808  0.3281
44246SOL    HW144462   5.362   4.909  10.077 -0.2539  0.2171 -0.3670
44246SOL    HW244463   5.253   4.805  10.083  1.0344 -1.1535 -0.1034
44247SOL     OW44464   0.283   3.017   5.825 -0.6352 -0.1649 -0.0014
44247SOL    HW144465   0.294   3.110   5.848  0.3455  0.2840 -2.1032
44247SOL    HW244466   0.372   2.983   5.822 -0.9000 -0.7973 -0.7467
44248SOL     OW44467   4.761   9.277  10.914  0.8432  0.0483 -0.0187
44248SOL    HW144468   4.789   9.346  10.854 -0.5753  0.4730 -0.2274
44248SOL    HW244469   4.773   9.196  10.865  2.1972  0.1535  0.1052
44249SOL     OW44470   6.040   6.591   0.781  0.5287  0.0056 -0.5454
44249SOL    HW144471   6.044   6.582   0.877  0.2775  0.4405 -0.4906
44249SOL    HW244472   6.123   6.633   0.758  0.3680  0.3707 -0.4609
44250SOL     OW44473   2.221   9.434   3.152 -0.0902 -0.2730 -0.3494
44250SOL    HW144474   2.189   9.500   3.215  1.8720 -0.3462  0.8064
44250SOL    HW244475   2.231   9.355   3.204 -0.9869 -1.1172 -1.4049
44251SOL     OW44476   9.225   0.846  10.817  0.5820  0.2020 -0.7842
44251SOL    HW144477   9.179   0.869  10.898  4.2860 -0.0325  1.6478
44251SOL    HW244478   9.254   0.929  10.781  1.3410  0.1875 -0.2356
44252SOL     OW44479   5.329   7.715   7.504  0.0071  0.1136  0.0491
44252SOL    HW144480   5.265   7.786   7.497  0.1825  0.2164 -0.5381
44252SOL    HW244481   5.381   7.738   7.581 -0.6966 -0.0032  0.5713
44253SOL     OW44482   9.713  10.607  11.948 -0.1680 -0.7760 -0.7114
44253SOL    HW144483   9.681  10.625  11.860  0.9804  0.4028 -0.9169
44253SOL    HW244484   9.739  10.693  11.982  0.6093 -1.3825  0.2840
44254SOL     OW44485  10.547  10.917   8.026 -0.0563  0.0139 -0.1670
44254SOL    HW144486  10.642  10.918   8.017 -0.1035  2.0558 -1.0601
44254SOL    HW244487  10.525  10.824   8.035  1.8402 -0.7380 -2.1679
44255SOL     OW44488   6.578  10.431  10.842 -0.1837 -0.3585  0.5997
44255SOL    HW144489   6.484  10.451  10.841  0.0287  0.6768  0.4643
44255SOL    HW244490   6.621  10.516  10.840  0.7735 -0.8453 -0.3956
44256SOL     OW44491   3.754  10.703   3.686 -0.3022  0.1192 -0.4876
44256SOL    HW144492   3.746  10.625   3.740 -1.4251 -0.9922 -2.1739
44256SOL    HW244493   3.782  10.671   3.601 -1.0340  1.5165 -1.2943
44257SOL     OW44494   5.936   4.083   0.800  0.0670  0.0274  0.5767
44257SOL    HW144495   5.939   4.029   0.721 -1.0346 -0.4809  0.8629
44257SOL    HW244496   5.998   4.154   0.783 -1.7341  1.2019 -1.6808
44258SOL     OW44497   8.304   4.245   0.244  0.0266 -0.7721  0.0702
44258SOL    HW144498   8.307   4.339   0.229  0.7422 -1.1143 -2.3938
44258SOL    HW244499   8.211   4.226   0.260 -0.0021  0.4229  1.5187
44259SOL     OW44500   5.869   3.524   3.659  0.0001  0.5055  0.4198
44259SOL    HW144501   5.899   3.458   3.598 -1.2938 -0.0441  0.3438
44259SOL    HW244502   5.831   3.593   3.604 -0.6654  0.2669  0.5725
44260SOL     OW44503   9.125   8.882  10.021  0.2174  0.3426  0.3802
44260SOL    HW144504   9.096   8.875   9.930 -0.0911 -1.2726  0.5614
44260SOL    HW244505   9.149   8.973  10.032 -1.3750  0.9599 -0.8320
44261SOL     OW44506   8.879   5.777   0.350  0.3754 -0.0435  0.7042
44261SOL    HW144507   8.816   5.714   0.385  1.2710 -1.8933 -0.7764
44261SOL    HW244508   8.963   5.729   0.350  1.5531  1.8935  1.4390
44262SOL     OW44509   1.435   8.821  10.158 -0.3638 -0.0548 -0.2385
44262SOL    HW144510   1.364   8.797  10.217 -0.5909  2.1941  0.4992
44262SOL    HW244511   1.515   8.803  10.208 -0.5483  1.3897  0.6486
44263SOL     OW44512  11.379   4.170   2.774  0.4517  0.8042  0.0907
44263SOL    HW144513  11.315   4.135   2.836  0.2569  0.5689 -0.2471
44263SOL    HW244514  11.345   4.148   2.688  1.4546 -0.1941 -0.0884
44264SOL     OW44515  10.335   3.429   2.787 -0.2333  0.2934  0.2227
44264SOL    HW144516  10.339   3.524   2.790 -0.7528  0.3617 -0.9955
44264SOL    HW244517  10.275   3.409   2.715  0.2849 -0.9571  0.1148
44265SOL     OW44518   5.130   1.337   9.426 -0.2619 -0.1078 -0.1301
44265SOL    HW144519   5.107   1.262   9.481 -0.1720  0.7677  1.1543
44265SOL    HW244520   5.226   1.333   9.418 -0.4128 -1.3555 -1.9416
44266SOL     OW44521   2.844   7.351   9.987  0.1583 -0.3570 -0.1843
44266SOL    HW144522   2.804   7.307  10.062 -0.2475  0.6600  0.2129
44266SOL    HW244523   2.902   7.417  10.025  0.3490 -0.1787 -0.7672
44267SOL     OW44524   2.806   4.552   2.272 -0.2904  0.4145 -0.4387
44267SOL    HW144525   2.799   4.647   2.259 -0.9091  0.4253 -0.0982
44267SOL    HW244526   2.717   4.520   2.256 -0.1507 -0.0696 -0.2521
44268SOL     OW44527   4.869   5.545  10.559 -0.0146 -0.1849 -0.7584
44268SOL    HW144528   4.818   5.516  10.635 -0.8392  0.2862 -1.1210
44268SOL    HW244529   4.806   5.590  10.503  1.0607  1.6176 -0.5974
44269SOL     OW44530   9.505  10.992   6.666 -0.0706 -0.3129  0.3073
44269SOL    HW144531   9.558  11.024   6.593 -0.7679  1.7497  0.6366
44269SOL    HW244532   9.419  11.031   6.652 -0.5174 -0.7374  1.6843
44270SOL     OW44533   7.347   4.207  11.386  0.1911  0.2228 -0.0059
44270SOL    HW144534   7.306   4.292  11.401 -0.1276 -0.0742  0.8983
44270SOL    HW244535   7.312   4.151  11.455  0.3448 -0.6665 -0.6285
44271SOL     OW44536   7.382   1.030   1.853 -0.2710  0.0266  0.0956
44271SOL    HW144537   7.318   1.099   1.870 -1.4503 -0.6451 -1.4087
44271SOL    HW244538   7.462   1.077   1.828 -0.7976  0.8475 -0.0695
44272SOL     OW44539   0.513   9.530   8.671 -0.3168 -0.8519 -0.3227
44272SOL    HW144540   0.512   9.616   8.627 -0.1404 -1.2623 -1.1479
44272SOL    HW244541   0.549   9.548   8.758 -2.4308  0.3057  0.3897
44273SOL     OW44542   2.823   8.109   3.795  0.1704  0.1462 -0.0529
44273SOL    HW144543   2.809   8.202   3.779 -0.8322 -0.0188 -0.1525
44273SOL    HW244544   2.818   8.100   3.891 -1.6429 -0.0854 -0.1378
44274SOL     OW44545   2.995   3.461   5.536 -0.2953  0.0171 -0.0695
44274SOL    HW144546   3.003   3.371   5.504  0.3709  0.5464 -1.4623
44274SOL    HW244547   3.076   3.474   5.587 -0.2735 -0.0859 -0.0759
44275SOL     OW44548  10.261   2.261   9.645  0.3201 -0.6598  0.1893
44275SOL    HW144549  10.290   2.171   9.636 -0.1168 -0.7283 -0.6514
44275SOL    HW244550  10.245   2.290   9.555  0.8644  0.3944  0.4114
44276SOL     OW44551   2.325   0.845   8.882  0.0960  0.1539  0.2474
44276SOL    HW144552   2.315   0.786   8.807 -2.1927  1.8052 -0.8668
44276SOL    HW244553   2.236   0.873   8.902  1.0434  2.9587  0.9482
44277SOL     OW44554   2.105   2.101  11.253 -0.0274 -0.1204 -0.8218
44277SOL    HW144555   2.127   2.185  11.293 -0.3963 -1.3375  2.2583
44277SOL    HW244556   2.184   2.076  11.205  0.3845  1.5663 -1.0820
44278SOL     OW44557   3.026  10.734   0.333 -0.3206  0.3770  0.2641
44278SOL    HW144558   3.056  10.687   0.255  0.9776  0.4507  0.6919
44278SOL    HW244559   3.095  10.719   0.397 -0.5033  1.8078  0.8195
44279SOL     OW44560   2.083   5.275   7.847 -0.7122 -0.0621  0.5570
44279SOL    HW144561   2.052   5.350   7.796  0.2739  0.2433  0.3859
44279SOL    HW244562   2.004   5.229   7.872 -1.2262 -0.5085 -1.6750
44280SOL     OW44563   6.268   8.203  10.269  0.9360  0.0133  0.6234
44280SOL    HW144564   6.344   8.240  10.313  1.2838  0.0689 -0.0073
44280SOL    HW244565   6.252   8.120  10.314  0.8176  0.4163  1.3385
44281SOL     OW44566   9.868   3.231   2.792  0.0240 -0.1817  0.2450
44281SOL    HW144567   9.921   3.180   2.731 -1.6243  0.5911 -1.9766
44281SOL    HW244568   9.906   3.319   2.790  0.7953 -0.4538  1.4661
44282SOL     OW44569   8.955  10.400   4.524 -0.2338  0.2178  0.0416
44282SOL    HW144570   8.949  10.312   4.563 -0.6297  0.3594  0.3030
44282SOL    HW244571   8.969  10.458   4.598  0.3125  0.3522 -0.1587
44283SOL     OW44572   5.629   4.867  10.981 -0.3016  0.0000  0.1967
44283SOL    HW144573   5.682   4.892  10.906 -0.9274 -1.9477 -0.9685
44283SOL    HW244574   5.686   4.810  11.033 -0.6012 -0.5272 -0.0413
44284SOL     OW44575   4.000   7.345   4.071  0.6304  0.0206  0.1200
44284SOL    HW144576   3.987   7.268   4.126  1.6639 -0.1924  0.0953
44284SOL    HW244577   4.052   7.314   3.998  1.2705  0.7825  0.2323
44285SOL     OW44578   9.756   4.407   0.543 -0.1211  0.2910 -0.1499
44285SOL    HW144579   9.734   4.315   0.559 -0.8071  0.4345 -0.2307
44285SOL    HW244580   9.691   4.456   0.593 -0.3339  0.7279 -0.8338
44286SOL     OW44581   9.225   6.424   7.165 -0.7528  0.0509 -0.1975
44286SOL    HW144582   9.309   6.467   7.175 -1.2021  0.7855  0.6591
44286SOL    HW244583   9.231   6.346   7.220 -0.2446 -0.5239 -1.0507
44287SOL     OW44584   1.264   0.592   3.844  0.7526  0.1139 -0.3385
44287SOL    HW144585   1.284   0.685   3.835  0.2483  0.1702 -0.8584
44287SOL    HW244586   1.187   0.578   3.790  0.1891 -0.3917  0.5775
44288SOL     OW44587  10.813   2.245   4.931  0.0280 -0.2449  0.0735
44288SOL    HW144588  10.798   2.311   4.863  1.1496  0.6791  0.6894
44288SOL    HW244589  10.757   2.172   4.905 -1.5857  1.0762 -0.4269
44289SOL     OW44590   6.395   0.967   2.476  0.3755  0.0688  0.1871
44289SOL    HW144591   6.373   0.980   2.384 -2.4039  1.2466  0.8994
44289SOL    HW244592   6.340   0.894   2.503  0.8686 -0.0029  1.0171
44290SOL     OW44593  11.437   1.148   9.364 -0.1462 -0.0848  0.6844
44290SOL    HW144594  11.363   1.106   9.408  0.4156 -2.0013 -0.0809
44290SOL    HW244595  11.511   1.135   9.422  0.1770 -0.8212  0.1278
44291SOL     OW44596   5.994  10.841   7.128  0.1723 -0.2802  0.4806
44291SOL    HW144597   5.924  10.776   7.138 -0.4181  0.2176 -0.2789
44291SOL    HW244598   6.027  10.827   7.039 -0.9167  1.3420 -0.2338
44292SOL     OW44599   9.231   4.915   3.145 -0.0022 -0.4219  0.3364
44292SOL    HW144600   9.153   4.865   3.170  0.4088 -1.7489 -0.8542
44292SOL    HW244601   9.302   4.874   3.194  0.1556 -0.2110  0.2834
44293SOL     OW44602   4.286   9.822   8.451  0.1202 -0.3560  0.6116
44293SOL    HW144603   4.294   9.917   8.445  0.3855 -0.4051  0.1492
44293SOL    HW244604   4.330   9.799   8.532  1.7398 -0.2792 -0.2133
44294SOL     OW44605  10.790   8.753   3.692 -0.0174  0.2184  0.8059
44294SOL    HW144606  10.724   8.717   3.751 -1.6948 -0.4495 -1.3271
44294SOL    HW244607  10.784   8.697   3.614  0.0943  2.6971 -1.0863
44295SOL     OW44608   6.234  11.394   3.144 -0.0076  0.3047  0.3775
44295SOL    HW144609   6.223  11.354   3.058 -0.1558 -0.4825  0.7540
44295SOL    HW244610   6.291  11.334   3.192 -0.5231  0.3571  1.0705
44296SOL     OW44611   2.928   5.031   0.756 -0.4274 -0.2263  0.3580
44296SOL    HW144612   2.934   5.045   0.661  0.8648 -1.8766  0.1511
44296SOL    HW244613   2.848   4.981   0.769 -0.7479  0.2365  0.1737
44297SOL     OW44614  11.086  10.936   7.668 -0.4562 -0.1686 -0.2197
44297SOL    HW144615  11.037  11.011   7.635  0.3009  0.0742 -0.8070
44297SOL    HW244616  11.022  10.865   7.671 -1.0664  0.3743 -0.0951
44298SOL     OW44617   8.773   7.042  10.994 -0.2644  0.2693  0.2670
44298SOL    HW144618   8.823   7.005  11.066 -0.4429 -1.1333 -0.3021
44298SOL    HW244619   8.818   7.124  10.974  0.5538  0.0493  1.1156
44299SOL     OW44620   5.199  11.924  10.710  0.3843 -0.0095 -0.1598
44299SOL    HW144621   5.183  11.831  10.691  0.2859 -0.0148 -0.0514
44299SOL    HW244622   5.153  11.940  10.793 -0.6533  0.4419 -0.7993
44300SOL     OW44623   4.636   1.312   1.814  0.4489 -0.1192  0.2428
44300SOL    HW144624   4.581   1.269   1.879  2.5753 -0.7874  1.7162
44300SOL    HW244625   4.631   1.405   1.835  1.7997 -0.4011  2.0057
44301SOL     OW44626  11.753   8.342  10.617 -0.0731 -0.0039  0.1760
44301SOL    HW144627  11.710   8.388  10.689 -0.0642  0.4800 -0.1215
44301SOL    HW244628  11.807   8.275  10.659 -0.7591 -0.3196  0.5792
44302SOL     OW44629   8.849   1.392   5.904 -0.3012 -0.4148 -0.3542
44302SOL    HW144630   8.924   1.442   5.870 -1.0124 -0.0299 -1.3916
44302SOL    HW244631   8.844   1.316   5.847  0.7804 -1.7379  1.2224
44303SOL     OW44632   0.468   1.394   5.851  0.6202  0.4413  0.0999
44303SOL    HW144633   0.466   1.365   5.942  0.9612  1.0807  0.3175
44303SOL    HW244634   0.519   1.327   5.805 -0.7542 -0.6426  0.0901
44304SOL     OW44635   8.267  10.746   1.508 -0.2002 -0.0410  0.1205
44304SOL    HW144636   8.207  10.751   1.433  0.1045  3.5192 -0.0741
44304SOL    HW244637   8.257  10.831   1.552  1.0744 -1.2560  3.0335
44305SOL     OW44638   6.438   4.761   4.246 -0.0530 -0.5373 -0.6684
44305SOL    HW144639   6.482   4.836   4.204 -0.5762  0.7572  0.9856
44305SOL    HW244640   6.418   4.702   4.173  0.1958  1.0219 -2.0786
44306SOL     OW44641   5.887   0.803   0.969 -0.0440  0.1855  0.1083
44306SOL    HW144642   5.831   0.865   0.922  1.7237  0.7402 -1.3961
44306SOL    HW244643   5.839   0.720   0.967 -1.7995  1.1157  0.8897
44307SOL     OW44644  10.119  10.288   5.114  0.4677 -0.3642  0.1565
44307SOL    HW144645  10.146  10.236   5.038 -0.2041 -2.2909  1.1472
44307SOL    HW244646  10.028  10.262   5.130 -0.4508  2.3370 -0.2019
44308SOL     OW44647   4.418   4.165   3.983 -0.1926 -0.0580  0.4066
44308SOL    HW144648   4.349   4.224   3.950 -1.3414 -1.9177 -0.7005
44308SOL    HW244649   4.447   4.117   3.906  2.1915  0.4439  0.9170
44309SOL     OW44650   0.037   5.107   3.675 -0.0967  0.3200 -0.2009
44309SOL    HW144651  -0.015   5.034   3.708 -0.2807  0.7114  0.3920
44309SOL    HW244652   0.087   5.070   3.603 -0.5190 -0.2836 -0.1945
44310SOL     OW44653   8.874   8.978   8.685 -0.2794 -0.3418 -0.2344
44310SOL    HW144654   8.917   9.021   8.759  0.1087  2.6053 -2.0038
44310SOL    HW244655   8.904   9.027   8.608 -1.5761 -2.5067 -2.2648
44311SOL     OW44656  10.799   9.561   0.613 -0.1698 -0.5553 -0.4233
44311SOL    HW144657  10.879   9.606   0.586 -0.5661  0.6524  0.3006
44311SOL    HW244658  10.752   9.545   0.531 -0.2691  0.8855 -0.6834
44312SOL     OW44659   6.694   9.790  11.624  0.5861 -0.3498 -0.0165
44312SOL    HW144660   6.753   9.718  11.647 -1.3859 -1.7032  1.0865
44312SOL    HW244661   6.703   9.799  11.530  1.4859 -1.4851 -0.0621
44313SOL     OW44662   1.793   3.018  10.176  0.1010  0.6210  0.3038
44313SOL    HW144663   1.827   2.978  10.096  0.8382  2.8946 -0.5989
44313SOL    HW244664   1.728   2.955  10.208 -0.3504 -0.2934 -2.1658
44314SOL     OW44665   8.826   9.461   0.873 -0.3605 -0.3613  0.1615
44314SOL    HW144666   8.739   9.447   0.909 -1.6112 -1.0783 -2.8464
44314SOL    HW244667   8.818   9.537   0.816  1.5061  0.7334  1.2463
44315SOL     OW44668   6.294   6.344   0.914 -0.0171 -0.2798 -0.4697
44315SOL    HW144669   6.373   6.376   0.871 -0.2799 -1.0513 -1.5838
44315SOL    HW244670   6.272   6.411   0.978  0.6765  0.6755 -1.2046
44316SOL     OW44671   1.046   0.489   0.159 -0.0342 -1.0389 -0.9187
44316SOL    HW144672   0.980   0.426   0.185 -0.6501 -0.7119 -1.6481
44316SOL    HW244673   1.068   0.536   0.240 -0.8679 -0.9868 -0.7145
44317SOL     OW44674   7.324   5.511   8.121  0.2213 -0.9648  0.4940
44317SOL    HW144675   7.251   5.456   8.095 -0.2771  0.6976 -1.8871
44317SOL    HW244676   7.288   5.570   8.187 -0.2100 -1.0365  0.3201
44318SOL     OW44677   7.163   0.975   5.159 -0.6554  0.3555  0.2042
44318SOL    HW144678   7.232   1.034   5.190 -1.2197  1.3626 -0.3686
44318SOL    HW244679   7.157   0.993   5.065 -1.1612 -0.2874  0.1053
44319SOL     OW44680   9.732   6.460  11.052  0.2124 -0.7136  0.1161
44319SOL    HW144681   9.693   6.511  10.981 -0.7387 -0.1801  1.0050
44319SOL    HW244682   9.789   6.397  11.007 -0.9339 -0.8856 -1.1690
44320SOL     OW44683  10.170   8.005   8.318 -0.0080 -0.0566  0.2189
44320SOL    HW144684  10.189   8.000   8.224  1.3791  0.2283  0.4653
44320SOL    HW244685  10.156   7.914   8.344  0.2655 -0.2051 -0.1351
44321SOL     OW44686  10.873   5.885   4.841 -0.2011  0.3283 -0.3699
44321SOL    HW144687  10.895   5.942   4.915  1.4014 -0.7191  0.0111
44321SOL    HW244688  10.943   5.900   4.777 -0.5058 -0.2086 -0.8372
44322SOL     OW44689   4.466   0.563  11.027 -0.0966  0.5381  0.0883
44322SOL    HW144690   4.475   0.502  11.100  0.2440  0.0195 -0.3762
44322SOL    HW244691   4.543   0.618  11.032  0.5378 -0.2603 -0.5632
44323SOL     OW44692   3.799   5.525  10.040 -0.2809 -0.2536 -0.2127
44323SOL    HW144693   3.763   5.498   9.956 -0.1258  2.8134 -1.3854
44323SOL    HW244694   3.729   5.575  10.082  0.8805  1.5774 -0.3328
44324SOL     OW44695   4.724   0.688   5.731  0.7899 -0.2132 -0.0167
44324SOL    HW144696   4.728   0.745   5.654  0.2000 -2.3938 -1.7643
44324SOL    HW244697   4.631   0.686   5.755  0.6720 -1.0939 -0.5141
44325SOL     OW44698   5.756   0.243  11.002 -0.0181 -0.0923 -0.5117
44325SOL    HW144699   5.721   0.157  11.023 -0.0763 -0.0290 -0.3459
44325SOL    HW244700   5.831   0.226  10.945 -0.0271 -0.2515 -0.4747
44326SOL     OW44701  10.229   3.857   1.017 -0.2057 -0.8106 -0.3741
44326SOL    HW144702  10.229   3.854   1.113  1.0218 -0.2767 -0.3372
44326SOL    HW244703  10.153   3.911   0.995  0.3921  0.3870  0.3845
44327SOL     OW44704   8.877   3.540   3.526  0.3529  0.2742  0.1432
44327SOL    HW144705   8.910   3.514   3.612 -1.0915  1.0199  0.9600
44327SOL    HW244706   8.787   3.506   3.524  0.0792  1.0215 -0.7024
44328SOL     OW44707  11.568   7.483   6.462  0.5843 -0.2218 -0.4860
44328SOL    HW144708  11.581   7.561   6.515  0.4530 -0.7725  0.3642
44328SOL    HW244709  11.473   7.480   6.447  0.7636  0.7669 -2.0610
44329SOL     OW44710   5.481   9.977   0.166  0.0544  0.4449  0.5575
44329SOL    HW144711   5.549  10.008   0.107 -0.2949 -1.6791 -1.0619
44329SOL    HW244712   5.415   9.937   0.109 -0.2961 -1.7044  2.3375
44330SOL     OW44713   7.700   4.509   1.198 -0.2008 -0.1108 -0.0349
44330SOL    HW144714   7.686   4.444   1.129 -0.7159  0.4711 -0.4894
44330SOL    HW244715   7.684   4.461   1.279 -0.1274 -0.6648 -0.3447
44331SOL     OW44716   3.591  10.876   5.327  0.0814 -0.1961 -0.1726
44331SOL    HW144717   3.602  10.781   5.321 -0.6382 -0.1927 -3.0214
44331SOL    HW244718   3.517  10.895   5.270 -0.2640  2.0402  0.9097
44332SOL     OW44719  10.751   8.372   2.192 -0.3068  0.3074  0.2384
44332SOL    HW144720  10.771   8.320   2.114  2.0480 -2.1732  2.2913
44332SOL    HW244721  10.710   8.311   2.252 -2.6448  2.3134  0.8475
44333SOL     OW44722   9.452   4.716   0.034 -0.0792  0.0952 -0.2898
44333SOL    HW144723   9.503   4.739   0.112  0.1113  0.0193 -0.3917
44333SOL    HW244724   9.517   4.706  -0.035 -0.3061  0.8468 -0.6227
44334SOL     OW44725  10.528   2.765   6.170 -0.2186  0.4369 -0.3973
44334SOL    HW144726  10.477   2.784   6.248 -0.7220 -1.6147 -0.1509
44334SOL    HW244727  10.478   2.803   6.098 -2.1935 -1.5311 -0.1588
44335SOL     OW44728   7.881  11.841   2.456  0.5981 -0.1480 -0.1076
44335SOL    HW144729   7.950  11.832   2.522 -0.2968 -0.4116  0.8158
44335SOL    HW244730   7.803  11.863   2.506  0.5083  2.8805 -1.3563
44336SOL     OW44731   6.512   6.130   2.240  0.7702  0.0149  0.1775
44336SOL    HW144732   6.538   6.218   2.215 -0.6429  0.0369 -1.4491
44336SOL    HW244733   6.416   6.130   2.233  0.6138 -1.2331  1.6490
44337SOL     OW44734   2.315   5.030   3.410  0.4196 -0.3899 -0.6976
44337SOL    HW144735   2.300   4.998   3.499  0.3808 -1.4789 -1.0786
44337SOL    HW244736   2.247   4.989   3.358  0.2013  0.5519 -1.1792
44338SOL     OW44737   7.709   8.665   9.967 -0.4226  0.0746 -0.4233
44338SOL    HW144738   7.624   8.654   9.925 -0.6906 -1.1310  0.3831
44338SOL    HW244739   7.697   8.737  10.029 -0.5985  0.4851 -0.9293
44339SOL     OW44740   7.096   5.109   6.892  0.0611  0.1733  0.2263
44339SOL    HW144741   7.054   5.074   6.814  2.0466 -0.7861 -0.4871
44339SOL    HW244742   7.053   5.065   6.965 -1.6295  0.8736 -0.3003
44340SOL     OW44743   1.659   8.080   8.344 -0.0064  0.0760  0.6025
44340SOL    HW144744   1.748   8.101   8.316 -1.0154  2.3911 -1.1311
44340SOL    HW244745   1.623   8.163   8.376 -1.5534 -0.8002  1.2468
44341SOL     OW44746   5.236  10.539  11.723 -0.2297  0.0325  0.1232
44341SOL    HW144747   5.319  10.558  11.679  0.4691 -2.7014  0.0973
44341SOL    HW244748   5.170  10.548  11.654  0.1590  1.0161 -0.1457
44342SOL     OW44749  11.117   5.641   5.427  0.1249 -0.0453 -0.2142
44342SOL    HW144750  11.209   5.617   5.435  0.3859  0.7781 -0.6347
44342SOL    HW244751  11.074   5.597   5.501  0.9078 -0.1525  0.1863
44343SOL     OW44752   3.418   7.652   5.570  0.4512  0.2435 -0.2530
44343SOL    HW144753   3.412   7.562   5.537  1.0058 -0.2552  0.9348
44343SOL    HW244754   3.344   7.660   5.631  0.2531  0.6803 -0.5496
44344SOL     OW44755   2.816   5.823   2.459 -0.4563  0.0901  0.0421
44344SOL    HW144756   2.844   5.732   2.443  1.2676  0.2267  1.8609
44344SOL    HW244757   2.722   5.816   2.476 -0.3696 -1.3447  0.0940
44345SOL     OW44758   3.024   0.362   9.553 -0.0354  0.1439  0.5517
44345SOL    HW144759   2.967   0.303   9.602  0.9243 -1.8605 -0.6239
44345SOL    HW244760   2.966   0.410   9.494 -0.6386 -1.2414 -0.0190
44346SOL     OW44761   0.371   5.975   7.591 -0.0948 -0.3804 -0.3707
44346SOL    HW144762   0.408   6.064   7.591  0.9457 -0.7859 -1.9054
44346SOL    HW244763   0.279   5.988   7.571  0.3842  0.2592 -2.3217
44347SOL     OW44764   1.602   9.513   9.386  0.1152 -0.6961  0.2605
44347SOL    HW144765   1.542   9.570   9.435  0.8574  0.2394  0.1254
44347SOL    HW244766   1.560   9.501   9.301 -0.2157 -0.6249  0.4132
44348SOL     OW44767   9.594   2.620   1.233  0.0272 -0.4791  0.8327
44348SOL    HW144768   9.672   2.657   1.192 -0.3734 -1.1695 -0.6482
44348SOL    HW244769   9.626   2.573   1.310  0.8190  0.8642  1.3363
44349SOL     OW44770   5.142   9.950   4.912 -0.2441 -0.4671  0.2283
44349SOL    HW144771   5.066   9.917   4.865  0.1740 -2.0576  0.6098
44349SOL    HW244772   5.110   9.972   4.999 -0.9694  2.2509 -0.6466
44350SOL     OW44773  10.447   3.602   9.837 -0.1431 -0.0452 -0.1711
44350SOL    HW144774  10.452   3.519   9.791  1.3338  0.4758 -0.9941
44350SOL    HW244775  10.375   3.649   9.793 -1.0804 -0.9014  0.3940
44351SOL     OW44776   6.578   2.261   3.827  0.3580 -0.0774  0.0298
44351SOL    HW144777   6.660   2.283   3.871  0.5222 -0.1136 -0.2562
44351SOL    HW244778   6.516   2.244   3.898  0.4802  0.3801  0.2521
44352SOL     OW44779   7.864   4.634   3.363 -0.4835 -0.1464  0.1059
44352SOL    HW144780   7.832   4.599   3.445 -1.5574  0.9279  0.1626
44352SOL    HW244781   7.928   4.700   3.388 -1.7735  1.1186  0.1371
44353SOL     OW44782   7.095   1.897   5.296  0.3076 -0.6606  1.1434
44353SOL    HW144783   7.135   1.822   5.253 -0.2914  0.2962 -1.2300
44353SOL    HW244784   7.019   1.919   5.242  0.8324  2.0521  1.3762
44354SOL     OW44785   2.765  11.036   5.886 -0.2544 -0.2983 -0.2763
44354SOL    HW144786   2.689  11.004   5.934  0.2315  0.7678  1.2933
44354SOL    HW244787   2.826  10.962   5.886  0.4226  0.1579  2.3392
44355SOL     OW44788   3.290   7.608   1.193  0.3711  0.0818  0.3750
44355SOL    HW144789   3.315   7.635   1.104 -1.3428  1.3164  0.2268
44355SOL    HW244790   3.290   7.689   1.243  0.1070 -0.4224  1.1995
44356SOL     OW44791   9.164   6.838  11.173 -0.1638  0.1371  0.2585
44356SOL    HW144792   9.195   6.755  11.209  1.4207  1.1745  1.4799
44356SOL    HW244793   9.071   6.841  11.195 -0.2257 -1.2356  0.2935
44357SOL     OW44794   9.180   6.607   5.105 -0.0167  0.2690 -0.3203
44357SOL    HW144795   9.238   6.613   5.028 -0.9839  2.6187 -0.9492
44357SOL    HW244796   9.118   6.538   5.082  1.2715 -0.8770 -0.4955
44358SOL     OW44797   3.210   4.184   4.981  0.4852 -0.2183 -0.2529
44358SOL    HW144798   3.171   4.108   5.024 -1.6217  0.5424 -0.6923
44358SOL    HW244799   3.200   4.255   5.044  0.0793  0.2467 -0.8278
44359SOL     OW44800   3.370   1.331   1.359  0.4131 -0.5381  0.2513
44359SOL    HW144801   3.314   1.330   1.282 -1.1761 -1.1533  1.3630
44359SOL    HW244802   3.352   1.416   1.401 -0.9447 -1.3812  1.4549
44360SOL     OW44803   4.243  11.203   4.959 -0.1951  0.0943 -0.1222
44360SOL    HW144804   4.320  11.223   5.012 -1.2756  0.3263  1.4310
44360SOL    HW244805   4.278  11.178   4.874  1.6065 -0.1845  0.6581
44361SOL     OW44806   4.235   3.884   1.019  0.2616  0.0901 -0.2948
44361SOL    HW144807   4.255   3.977   1.029  0.3258  0.1595 -0.9902
44361SOL    HW244808   4.317   3.846   0.986  1.0349 -0.6661  2.2593
44362SOL     OW44809   6.840   1.355   5.508  0.4893 -0.1654 -0.1877
44362SOL    HW144810   6.790   1.344   5.427  0.5976 -0.8904 -0.1665
44362SOL    HW244811   6.774   1.378   5.574 -0.0052 -2.0195  0.0440
44363SOL     OW44812   8.885   4.052   0.327 -0.2192  0.3125  0.0899
44363SOL    HW144813   8.892   3.997   0.250  1.5013 -1.2854  1.3097
44363SOL    HW244814   8.912   4.139   0.298  2.9085 -0.7725 -0.6388
44364SOL     OW44815   4.154  11.547   8.112 -0.3748  0.5418 -0.4360
44364SOL    HW144816   4.135  11.580   8.200  0.8850 -0.2364  0.1680
44364SOL    HW244817   4.243  11.578   8.094  0.0420 -0.7323 -0.6927
44365SOL     OW44818   9.088   7.208   0.578  0.3334 -0.2678  0.8034
44365SOL    HW144819   9.114   7.130   0.529 -0.4299 -1.4794  2.2321
44365SOL    HW244820   9.012   7.241   0.531  0.5336 -0.4914  0.3074
44366SOL     OW44821  11.453   8.140   8.045 -0.5666  0.2149  0.5393
44366SOL    HW144822  11.502   8.218   8.072  0.8757 -1.3325  2.6770
44366SOL    HW244823  11.504   8.067   8.078 -3.3355 -1.5913  1.1357
44367SOL     OW44824   1.461   5.472   1.075  0.2530 -0.5655  0.0699
44367SOL    HW144825   1.523   5.470   1.147 -0.2471 -0.4005  0.5138
44367SOL    HW244826   1.434   5.381   1.064  1.2394 -0.7796 -0.7246
44368SOL     OW44827   9.759   1.615   1.374  0.4066 -0.3302 -0.3108
44368SOL    HW144828   9.784   1.708   1.370  0.4343 -0.3756 -1.4780
44368SOL    HW244829   9.665   1.616   1.390  0.3013 -0.0881 -0.9300
44369SOL     OW44830   5.397   9.226   2.704  0.2363 -0.2760  0.2190
44369SOL    HW144831   5.470   9.200   2.760  0.0137 -1.4012 -0.0036
44369SOL    HW244832   5.319   9.201   2.752  0.0318 -0.6781 -0.3181
44370SOL     OW44833   9.532   1.825   5.856  0.1133  0.1198  0.1564
44370SOL    HW144834   9.602   1.816   5.921 -0.1853 -1.5128  0.2852
44370SOL    HW244835   9.570   1.880   5.788  1.5243 -0.6804  0.2556
44371SOL     OW44836   2.348   1.495   4.060  0.3088 -1.0360 -0.4717
44371SOL    HW144837   2.254   1.475   4.066  0.4364 -1.6477 -0.4462
44371SOL    HW244838   2.389   1.434   4.121  0.4820  1.0666  1.6718
44372SOL     OW44839   8.733   5.457   3.737  0.3880  0.4481  0.3803
44372SOL    HW144840   8.794   5.511   3.786  2.0332  0.7998 -1.9004
44372SOL    HW244841   8.681   5.520   3.686 -0.9916  0.0778  1.2705
44373SOL     OW44842   8.461   1.959   1.283  0.0418 -0.8548 -0.3707
44373SOL    HW144843   8.506   1.967   1.367  0.7996 -0.3199 -0.8127
44373SOL    HW244844   8.488   2.036   1.234  0.0819 -1.4544 -1.3244
44374SOL     OW44845  11.311   4.060  10.001 -0.2488 -0.1785  0.3325
44374SOL    HW144846  11.330   3.983  10.054  1.0659  0.0074  0.1728
44374SOL    HW244847  11.382   4.063   9.937 -0.3326  1.0950  0.2659
44375SOL     OW44848   6.571   6.614   0.319  0.6276  0.3193  0.1912
44375SOL    HW144849   6.512   6.627   0.245  1.4332 -1.2714 -0.7731
44375SOL    HW244850   6.526   6.550   0.374  1.5482 -1.1895 -0.7369
44376SOL     OW44851   9.764   4.298   6.005  0.0311  0.2038 -0.6176
44376SOL    HW144852   9.724   4.362   5.946 -1.2474  0.1654  0.1716
44376SOL    HW244853   9.814   4.350   6.067  0.2994  0.3292 -0.9363
44377SOL     OW44854   5.087   3.809   4.596  0.4553 -0.1275  0.2597
44377SOL    HW144855   5.156   3.866   4.629 -0.3872  0.6944  0.6349
44377SOL    HW244856   5.037   3.783   4.674 -1.1446  1.2888 -0.2373
44378SOL     OW44857   7.448   7.678   4.897 -0.3528 -0.3637 -0.0433
44378SOL    HW144858   7.492   7.677   4.812 -0.1791 -0.3217  0.0465
44378SOL    HW244859   7.362   7.716   4.878 -0.0792  0.2492 -0.0861
44379SOL     OW44860   2.550   7.003   8.003 -0.1943 -0.2226  0.2568
44379SOL    HW144861   2.618   6.971   8.062  0.1831  1.2225  0.6276
44379SOL    HW244862   2.525   7.089   8.038 -0.2116  0.5146 -1.4690
44380SOL     OW44863  10.277  11.913   9.564 -0.0138  0.1252  0.3676
44380SOL    HW144864  10.296  11.960   9.646 -0.9822  1.5864 -0.2060
44380SOL    HW244865  10.232  11.977   9.509  2.2493 -0.2259 -2.0738
44381SOL     OW44866   0.183   0.155   8.120  0.5844 -0.2530 -0.3260
44381SOL    HW144867   0.166   0.208   8.042 -0.8571  1.0811  0.8303
44381SOL    HW244868   0.231   0.213   8.179  1.5339 -1.1977 -0.1446
44382SOL     OW44869   1.947   1.227  10.500 -0.2434 -0.0104 -0.1371
44382SOL    HW144870   1.879   1.208  10.436  0.5242  1.2033 -1.3507
44382SOL    HW244871   1.935   1.319  10.522  1.2677  0.3611 -0.7318
44383SOL     OW44872   4.930   8.981   3.591  1.0373 -0.0371 -0.2751
44383SOL    HW144873   4.894   9.026   3.514 -0.0807  0.6214  0.6045
44383SOL    HW244874   5.019   9.016   3.599  1.6936 -1.1204 -2.0297
44384SOL     OW44875  11.942   5.079   3.275  0.1640 -0.0412  0.0064
44384SOL    HW144876  11.952   5.063   3.181  1.5750 -0.9333  0.2785
44384SOL    HW244877  11.971   5.169   3.287  0.9048 -0.2333 -0.2838
44385SOL     OW44878   9.181   2.261   5.932  0.3569  0.1148  0.0579
44385SOL    HW144879   9.272   2.273   5.904 -0.5417  1.6171 -2.6360
44385SOL    HW244880   9.148   2.350   5.943 -0.8561 -0.4005  0.7292
44386SOL     OW44881   8.847   1.598   8.473 -0.4405  0.2455  0.8021
44386SOL    HW144882   8.919   1.610   8.535  1.6948  0.8026 -1.6036
44386SOL    HW244883   8.857   1.670   8.411 -0.8939 -1.6249 -1.5889
44387SOL     OW44884   9.533   2.272   4.400 -0.3808  0.0426 -0.1660
44387SOL    HW144885   9.509   2.180   4.405  0.0253 -0.0336  0.5736
44387SOL    HW244886   9.629   2.271   4.393 -0.4770  0.3707 -1.7828
44388SOL     OW44887   4.408   1.097   8.590  0.0738 -0.1797  0.0688
44388SOL    HW144888   4.474   1.154   8.552 -0.4417  1.5373  1.6073
44388SOL    HW244889   4.330   1.152   8.599 -0.8358 -1.4736  0.4586
44389SOL     OW44890   1.731   2.075   4.576 -0.0497 -0.0766  0.4712
44389SOL    HW144891   1.639   2.066   4.550  0.1980  1.1388 -0.9673
44389SOL    HW244892   1.728   2.128   4.655 -0.6175 -0.5966  0.8096
44390SOL     OW44893   5.226   3.709   0.907  0.3512 -0.0651  0.0546
44390SOL    HW144894   5.177   3.692   0.826  1.2306 -0.7084 -0.3463
44390SOL    HW244895   5.225   3.805   0.915 -2.0349 -0.0847  0.7276
44391SOL     OW44896   1.193   4.622   5.195  0.4056  0.4772  0.0683
44391SOL    HW144897   1.220   4.688   5.132  0.6895  0.3795  0.0847
44391SOL    HW244898   1.263   4.556   5.192  0.2905  0.3429  0.2922
44392SOL     OW44899   4.084   8.104   2.205 -0.3613 -0.1847  0.9701
44392SOL    HW144900   4.047   8.129   2.289  1.4090 -1.3957  2.1793
44392SOL    HW244901   4.032   8.029   2.176 -0.8325  0.1014  1.0629
44393SOL     OW44902   2.512   0.772   3.554  1.1603  0.7103 -1.0727
44393SOL    HW144903   2.550   0.840   3.610  1.6000  2.1703 -3.0432
44393SOL    HW244904   2.419   0.772   3.577  0.9310  2.7944 -1.7759
44394SOL     OW44905   5.909   0.353   4.943  0.0841 -0.1899  0.1939
44394SOL    HW144906   5.854   0.310   5.008 -0.5478 -0.9464 -0.8097
44394SOL    HW244907   5.997   0.317   4.958  0.0447  0.0063  0.9208
44395SOL     OW44908  10.726   0.128   8.126 -0.0635 -0.0461  0.6050
44395SOL    HW144909  10.683   0.050   8.161  0.4938 -0.7830 -0.3060
44395SOL    HW244910  10.709   0.124   8.031  0.0626  0.8840  0.5336
44396SOL     OW44911  10.550  11.814   5.926  0.1853 -0.8982 -0.0570
44396SOL    HW144912  10.511  11.879   5.868  0.0947 -0.3331  0.6331
44396SOL    HW244913  10.645  11.826   5.914  0.1699 -0.4866  0.2459
44397SOL     OW44914   4.814   4.358   9.883  0.1534  0.0736  0.4815
44397SOL    HW144915   4.732   4.327   9.921  1.9490 -3.1134  2.2748
44397SOL    HW244916   4.802   4.348   9.789 -1.2445 -1.1633  0.7503
44398SOL     OW44917   7.842   6.106   6.719 -0.0218 -0.0193 -0.5686
44398SOL    HW144918   7.825   6.131   6.628  0.1266  0.3861 -0.4872
44398SOL    HW244919   7.937   6.104   6.727  0.0241 -2.4644 -1.0675
44399SOL     OW44920   7.349   9.621   2.950  0.2138 -0.3188  0.2127
44399SOL    HW144921   7.381   9.535   2.978  3.1136  0.0293 -1.6225
44399SOL    HW244922   7.393   9.684   3.006 -0.3752  0.0641  0.2568
44400SOL     OW44923  11.577  11.006   8.781  0.2873  0.4411 -0.2623
44400SOL    HW144924  11.594  10.913   8.763  1.1735  0.2569  1.2996
44400SOL    HW244925  11.578  11.048   8.696  0.3377 -0.9095 -0.9594
44401SOL     OW44926   5.808   9.700   4.385  0.1438  1.1510 -0.2810
44401SOL    HW144927   5.773   9.780   4.423 -1.8396  0.7191 -1.0828
44401SOL    HW244928   5.836   9.726   4.297 -1.2480  0.8511 -0.8446
44402SOL     OW44929   3.967   0.248  11.650 -0.0827  0.1524  0.1750
44402SOL    HW144930   4.010   0.167  11.623 -2.7576 -1.1732 -0.4143
44402SOL    HW244931   3.878   0.222  11.674 -0.3980  2.6030  2.1753
44403SOL     OW44932   4.586   6.051   0.509  0.0861  0.2263 -0.3338
44403SOL    HW144933   4.665   6.089   0.546 -0.0792  0.4832 -0.2501
44403SOL    HW244934   4.550   5.997   0.580  1.3814 -1.7128 -1.0445
44404SOL     OW44935  11.456   2.099  10.208  0.1921 -0.4364 -0.2783
44404SOL    HW144936  11.491   2.035  10.146  1.9238  0.2149 -0.0407
44404SOL    HW244937  11.423   2.171  10.153 -0.2442 -0.7918 -0.4886
44405SOL     OW44938   6.969  11.013   5.182 -0.6705  0.0005 -0.4462
44405SOL    HW144939   6.984  10.945   5.116 -0.0438 -1.2816  0.9607
44405SOL    HW244940   6.887  11.054   5.156 -1.2471 -1.5151 -1.1608
44406SOL     OW44941   2.480   1.485   4.845  0.1822 -0.2552 -0.0247
44406SOL    HW144942   2.480   1.546   4.771 -0.1065  0.7464  0.7770
44406SOL    HW244943   2.562   1.502   4.890  0.2546 -0.7111  0.0253
44407SOL     OW44944  10.384   1.399   8.605  0.0926  0.2780  0.1787
44407SOL    HW144945  10.412   1.377   8.516  0.6408 -0.7805  0.5994
44407SOL    HW244946  10.315   1.335   8.625  0.3999  0.1157  0.7361
44408SOL     OW44947   1.085   4.854  10.233 -0.1355  0.4368  0.3351
44408SOL    HW144948   1.120   4.898  10.311  0.0110  2.4729 -0.8048
44408SOL    HW244949   1.000   4.820  10.260 -0.0321  0.9971  1.4134
44409SOL     OW44950   9.367  11.102   0.233 -0.1386 -1.1981 -0.3497
44409SOL    HW144951   9.435  11.080   0.170  2.1742 -0.3178  1.6566
44409SOL    HW244952   9.296  11.138   0.181  1.8105 -0.1414 -2.4268
44410SOL     OW44953   9.782   5.253  11.482 -0.1159 -0.0044  0.1424
44410SOL    HW144954   9.710   5.193  11.501 -0.4350 -0.2262 -1.6011
44410SOL    HW244955   9.740   5.333  11.450  0.3817 -0.1593 -0.9579
44411SOL     OW44956   8.187  10.373   3.760  0.2688 -0.2339  0.4888
44411SOL    HW144957   8.282  10.364   3.750  0.5085  2.0904  0.1150
44411SOL    HW244958   8.153  10.367   3.671  0.2823  0.6570  0.4100
44412SOL     OW44959   2.263   2.959   0.342  0.0431 -0.5850  0.5021
44412SOL    HW144960   2.183   2.958   0.394 -0.0703  0.8407  0.4156
44412SOL    HW244961   2.254   3.037   0.287  1.0902 -0.9076 -0.1517
44413SOL     OW44962   5.949  11.316   7.158  0.0679 -0.3549  0.0124
44413SOL    HW144963   5.893  11.382   7.117  0.6159  0.0339 -0.1101
44413SOL    HW244964   5.987  11.360   7.234  0.2471 -0.5990  0.0649
44414SOL     OW44965   4.369  11.608   7.151 -0.5429 -0.3485 -0.0254
44414SOL    HW144966   4.457  11.589   7.120 -0.4510  1.3112 -0.9102
44414SOL    HW244967   4.369  11.581   7.243  0.7932 -0.6265 -0.0897
44415SOL     OW44968   0.669   0.400   2.345  0.2902 -0.0100  0.3948
44415SOL    HW144969   0.734   0.333   2.324 -0.9221 -1.7371  1.8231
44415SOL    HW244970   0.671   0.405   2.441  0.3682  2.0668  0.3128
44416SOL     OW44971   4.742   6.897   3.331  0.4730  0.0797 -0.1844
44416SOL    HW144972   4.739   6.836   3.258 -0.3425  0.5635 -0.5677
44416SOL    HW244973   4.664   6.876   3.383  0.0367  0.9565 -0.4642
44417SOL     OW44974   3.758   6.442   2.750 -0.3219 -0.0948  0.0714
44417SOL    HW144975   3.712   6.496   2.686  2.1971 -0.5704 -2.3423
44417SOL    HW244976   3.837   6.491   2.770  1.4368 -2.2291 -1.2499
44418SOL     OW44977   2.851   9.686   0.701  0.0422  0.3914 -0.1769
44418SOL    HW144978   2.862   9.631   0.778  1.6418 -0.8741 -1.2293
44418SOL    HW244979   2.940   9.709   0.676 -0.5060  1.6837 -1.0220
44419SOL     OW44980   1.935   5.230   2.064 -0.4292  0.0213  0.1525
44419SOL    HW144981   2.023   5.246   2.030  0.2910 -0.5940  1.6348
44419SOL    HW244982   1.892   5.177   1.996  0.2386  0.5580 -0.7072
44420SOL     OW44983   0.005  11.576   8.660 -0.4813 -0.0399 -0.1767
44420SOL    HW144984  -0.066  11.519   8.632 -1.9140  2.6923 -2.5876
44420SOL    HW244985  -0.005  11.656   8.608  4.2095  0.6575 -0.5192
44421SOL     OW44986   4.230   9.375  10.767 -0.1613  1.0728 -0.0532
44421SOL    HW144987   4.260   9.439  10.832  0.9103  0.3173  0.2193
44421SOL    HW244988   4.306   9.320  10.751 -1.1291 -0.2853 -0.1206
44422SOL     OW44989   2.620  11.394   6.106 -0.1244 -0.1767  0.4007
44422SOL    HW144990   2.535  11.418   6.068 -0.6978 -0.7038  1.2829
44422SOL    HW244991   2.685  11.434   6.049 -0.9811  1.9959  0.8190
44423SOL     OW44992   2.545   6.755  10.851 -0.0287 -0.4284 -0.0712
44423SOL    HW144993   2.522   6.846  10.870  1.0119 -0.3576  0.9393
44423SOL    HW244994   2.526   6.708  10.932  3.7524 -0.2689  1.1181
44424SOL     OW44995  10.353   1.730   5.552  0.0608  0.2305  0.1142
44424SOL    HW144996  10.432   1.737   5.497 -0.4212  1.8701 -0.4401
44424SOL    HW244997  10.381   1.760   5.638  0.1754  0.2822  0.0591
44425SOL     OW44998   8.767   6.450   4.734  0.2510 -0.2378  0.4031
44425SOL    HW144999   8.854   6.483   4.714 -0.3243 -0.0257 -2.1656
44425SOL    HW245000   8.707   6.508   4.686 -1.3052 -0.4546  1.9830
44426SOL     OW45001   4.195   8.682   8.971  0.0445 -0.0002  0.1234
44426SOL    HW145002   4.247   8.684   9.051 -0.4639  1.5680  0.4404
44426SOL    HW245003   4.257   8.652   8.903  0.9645  0.4178  0.7590
44427SOL     OW45004   3.928   7.751   0.311  0.4205  0.6064 -0.0202
44427SOL    HW145005   3.959   7.742   0.401  2.2051 -3.1992 -0.8031
44427SOL    HW245006   3.833   7.749   0.317  0.5156  0.3446  1.7523
44428SOL     OW45007   3.889   7.888   8.569  0.3589 -0.6004 -0.3255
44428SOL    HW145008   3.957   7.841   8.617 -0.1977 -2.0556 -0.9137
44428SOL    HW245009   3.826   7.915   8.635  0.7430 -0.5951  0.0389
44429SOL     OW45010   7.145   5.939  10.131  0.1502 -0.0794  0.1532
44429SOL    HW145011   7.218   5.899  10.085  1.9600 -0.3058  3.0108
44429SOL    HW245012   7.081   5.959  10.062  1.5566 -2.6786 -2.0639
44430SOL     OW45013   8.663   3.948   9.411  0.5195 -0.3787  0.4949
44430SOL    HW145014   8.702   4.023   9.367 -1.5813  0.2684 -0.4335
44430SOL    HW245015   8.584   3.983   9.453  0.2000 -1.8153  1.1503
44431SOL     OW45016   1.046   1.036   0.898 -0.6829  0.3256 -0.1450
44431SOL    HW145017   1.007   0.959   0.937 -0.0378 -1.2763 -2.4328
44431SOL    HW245018   0.991   1.055   0.822  0.0562  1.1652 -0.4896
44432SOL     OW45019   7.028  11.875   9.193 -0.2369  0.3395  0.3111
44432SOL    HW145020   6.973  11.952   9.206  1.2783  1.7544 -1.1212
44432SOL    HW245021   6.997  11.836   9.111  0.3796  0.6903 -0.0933
44433SOL     OW45022   6.850   7.762  10.193 -0.3680  0.1706  0.0421
44433SOL    HW145023   6.858   7.668  10.182  0.1757  0.3197 -0.9147
44433SOL    HW245024   6.766   7.774  10.238  0.1971 -0.8468  1.4560
44434SOL     OW45025   2.504  11.079   7.552 -0.3865 -0.4242  0.1144
44434SOL    HW145026   2.583  11.069   7.606 -1.5491  2.0372  2.4761
44434SOL    HW245027   2.526  11.148   7.490 -0.5213 -0.0652  0.4639
44435SOL     OW45028   1.592   0.982   2.402  0.1365  0.1320  0.5093
44435SOL    HW145029   1.500   1.004   2.416  0.3714  0.6517  1.3686
44435SOL    HW245030   1.639   1.061   2.430  0.8455 -0.1560  0.1451
44436SOL     OW45031   2.335   3.902   3.024 -0.0434 -0.1693 -0.4813
44436SOL    HW145032   2.404   3.838   3.035 -1.2211 -1.8287 -2.1196
44436SOL    HW245033   2.304   3.920   3.113  2.1810  0.3673  0.2518
44437SOL     OW45034   1.624   4.495   2.158  0.5799  0.1061 -0.6171
44437SOL    HW145035   1.677   4.540   2.224 -2.0856  0.9988  1.0535
44437SOL    HW245036   1.591   4.417   2.203 -0.3425  0.1106 -1.2726
44438SOL     OW45037   1.012   9.266   5.007 -0.1137  0.8388  0.1056
44438SOL    HW145038   1.024   9.177   5.042  0.5089 -0.0301 -2.1393
44438SOL    HW245039   0.990   9.319   5.083 -1.6963 -1.4623  1.3568
44439SOL     OW45040   7.746   0.905   3.385  0.0961  0.2265 -0.7982
44439SOL    HW145041   7.792   0.824   3.365 -1.6320 -1.3031  1.0798
44439SOL    HW245042   7.661   0.897   3.340  0.0601  1.2186 -0.9457
44440SOL     OW45043  10.433   3.375   3.314 -0.1632 -0.1163  0.0417
44440SOL    HW145044  10.396   3.348   3.230 -0.0151 -1.8332  0.4920
44440SOL    HW245045  10.507   3.316   3.327  2.2487  2.5995 -0.3890
44441SOL     OW45046   8.108   2.569   5.973 -0.2595 -0.0475 -0.2667
44441SOL    HW145047   8.076   2.652   6.010 -0.3201 -0.3384  0.3496
44441SOL    HW245048   8.038   2.506   5.991 -1.0178  0.1300 -2.3243
44442SOL     OW45049   1.034   7.380   3.696 -0.1766 -0.7766  0.7356
44442SOL    HW145050   1.035   7.450   3.760  0.7187 -1.5785  1.6223
44442SOL    HW245051   0.951   7.392   3.649 -0.4258  0.3545  1.4308
44443SOL     OW45052   3.810  11.924   4.269  0.2056 -0.7135 -0.5990
44443SOL    HW145053   3.763  11.898   4.349 -0.0597 -0.5589 -0.7034
44443SOL    HW245054   3.744  11.919   4.200 -0.2949  1.7333 -0.3949
44444SOL     OW45055  10.866   5.421   9.884 -0.4895  0.1209  0.1716
44444SOL    HW145056  10.855   5.507   9.841 -1.0463  0.7755  1.5720
44444SOL    HW245057  10.782   5.377   9.871 -0.4771  0.1094  0.1304
44445SOL     OW45058   2.357  10.686   0.880 -0.4695  0.0672 -0.1165
44445SOL    HW145059   2.411  10.607   0.871 -1.4358 -0.4371 -2.1891
44445SOL    HW245060   2.363  10.709   0.973  0.7064 -1.8062  0.3286
44446SOL     OW45061  11.371   0.904  10.183 -0.1159 -0.1186 -0.1521
44446SOL    HW145062  11.466   0.904  10.185 -0.1083 -0.9787  0.0562
44446SOL    HW245063  11.346   0.820  10.223 -0.9864  0.6466  0.9783
44447SOL     OW45064   4.205   1.556  11.558 -0.0957 -0.1103 -0.0049
44447SOL    HW145065   4.291   1.515  11.570  0.9316  1.6713 -0.8976
44447SOL    HW245066   4.156   1.493  11.505  0.6132 -1.1918  0.5878
44448SOL     OW45067   3.644  11.078   4.211 -0.0675  0.0357 -0.3019
44448SOL    HW145068   3.586  11.014   4.252  0.3361 -0.5495 -0.6152
44448SOL    HW245069   3.678  11.130   4.284 -2.2404  1.4903 -0.2686
44449SOL     OW45070   0.025   2.389   0.444 -0.0994 -0.1474 -0.3511
44449SOL    HW145071   0.092   2.385   0.376  0.4398 -1.0555  0.1925
44449SOL    HW245072  -0.036   2.456   0.415  1.0310  0.6838 -0.8867
44450SOL     OW45073   8.414   4.054   5.595  0.4284  0.0888 -0.6907
44450SOL    HW145074   8.472   4.129   5.582  1.5270 -0.8126 -1.2461
44450SOL    HW245075   8.384   4.031   5.507 -0.7741  0.5258 -0.4097
44451SOL     OW45076   8.438  11.852   7.645 -0.2909 -0.2715 -0.1849
44451SOL    HW145077   8.466  11.837   7.554  0.3538 -1.0873  0.1213
44451SOL    HW245078   8.406  11.942   7.647  2.9802  1.0472 -0.4663
44452SOL     OW45079   1.876   7.568   7.173  0.1651 -0.6641 -0.2530
44452SOL    HW145080   1.813   7.521   7.118 -1.0827 -0.9763  1.3576
44452SOL    HW245081   1.935   7.500   7.205 -0.9364 -0.9994  1.1497
44453SOL     OW45082   1.686   2.506   9.715 -0.4911  0.2173  0.2383
44453SOL    HW145083   1.700   2.461   9.799 -3.0224 -1.2715 -0.0521
44453SOL    HW245084   1.669   2.436   9.652 -2.4870  1.4483 -0.6846
44454SOL     OW45085   5.405   8.208   1.882  0.0438  0.2783 -0.4528
44454SOL    HW145086   5.400   8.169   1.795 -1.2997  0.2201 -0.3771
44454SOL    HW245087   5.318   8.194   1.919  0.0807  1.7680  0.2642
44455SOL     OW45088  11.577   3.212   0.105  0.6924  0.1167  0.2790
44455SOL    HW145089  11.672   3.215   0.112  0.7573  1.6807 -0.8106
44455SOL    HW245090  11.546   3.217   0.196  1.6296  0.6022  0.5853
44456SOL     OW45091   3.489   0.732   0.826 -0.2929  0.1047  0.4835
44456SOL    HW145092   3.582   0.751   0.831 -0.4395  1.3440 -0.9782
44456SOL    HW245093   3.449   0.812   0.792 -1.9090 -0.3643  1.1740
44457SOL     OW45094   4.743   8.575   1.343 -0.2459 -0.7018 -0.0345
44457SOL    HW145095   4.759   8.563   1.436 -1.8681 -1.0388  0.2327
44457SOL    HW245096   4.821   8.539   1.300  1.5255  1.3755  1.1922
44458SOL     OW45097   3.315   3.429   4.502 -0.0807  0.1592 -0.5021
44458SOL    HW145098   3.272   3.482   4.569 -1.5685 -0.0152 -1.2840
44458SOL    HW245099   3.408   3.430   4.527  0.0800  3.5616 -0.7546
44459SOL     OW45100   1.798   6.139  11.263  0.0174  0.4781 -0.0963
44459SOL    HW145101   1.889   6.127  11.238 -0.0966 -1.3226  0.2343
44459SOL    HW245102   1.801   6.182  11.348  0.6192 -0.5793  0.4408
44460SOL     OW45103   7.796  10.142   0.763 -0.4012  0.4713 -0.4865
44460SOL    HW145104   7.708  10.175   0.781 -0.5717 -0.1733 -0.1178
44460SOL    HW245105   7.818  10.179   0.678 -0.5772  1.5462 -0.0868
44461SOL     OW45106   8.660   6.548   8.803 -0.1447 -0.5331 -0.0287
44461SOL    HW145107   8.566   6.538   8.792 -0.0723 -1.6753  0.2358
44461SOL    HW245108   8.676   6.530   8.895  0.5558 -2.5603 -0.4939
44462SOL     OW45109   7.692  11.355   2.533  0.1428 -0.1839 -0.2335
44462SOL    HW145110   7.749  11.427   2.561 -0.2637 -0.3598  1.1008
44462SOL    HW245111   7.633  11.395   2.468  0.3649  0.5179 -0.0181
44463SOL     OW45112   5.857   3.451  11.664 -0.3799  0.0757 -0.0335
44463SOL    HW145113   5.771   3.457  11.623 -0.2126  0.5085 -0.3273
44463SOL    HW245114   5.839   3.420  11.753 -0.7105 -1.2097 -0.5353
44464SOL     OW45115   0.629   2.798  10.326 -0.1394 -0.2664  0.1256
44464SOL    HW145116   0.711   2.848  10.332  0.0134 -0.5783  0.6258
44464SOL    HW245117   0.624   2.749  10.408 -1.3156  0.4940  0.5303
44465SOL     OW45118   6.922   6.801   3.578  0.6932 -0.0426  0.0389
44465SOL    HW145119   6.886   6.885   3.605 -0.4033 -0.7689  0.9054
44465SOL    HW245120   6.867   6.773   3.505  0.6047 -0.3380  0.2181
44466SOL     OW45121   7.697   8.993   5.670  0.2923  0.6624  0.6168
44466SOL    HW145122   7.735   8.906   5.687 -2.1470 -0.3850  1.0559
44466SOL    HW245123   7.626   8.976   5.608 -0.3426  2.3254  0.8516
44467SOL     OW45124   4.488   4.430   0.991  0.3492  0.3900 -0.0737
44467SOL    HW145125   4.453   4.518   0.998  2.2273  1.1485  0.2966
44467SOL    HW245126   4.453   4.384   1.067 -1.1425  0.5723 -0.5973
44468SOL     OW45127  11.416  11.776   4.679  0.2392 -0.1689 -0.0160
44468SOL    HW145128  11.496  11.826   4.697  0.0615  1.3515 -2.8495
44468SOL    HW245129  11.447  11.692   4.644  0.5468 -0.5351  1.0918
44469SOL     OW45130   0.825   4.151   6.487  0.0412  0.0354  0.3363
44469SOL    HW145131   0.857   4.227   6.535  2.6176  0.8164 -2.3731
44469SOL    HW245132   0.883   4.080   6.514  0.1121 -0.0382 -0.0105
44470SOL     OW45133   2.330   2.757  11.955  0.1610  0.2440  0.5073
44470SOL    HW145134   2.272   2.736  11.881  1.5286  0.1955 -0.5974
44470SOL    HW245135   2.286   2.828  12.001  0.3901  1.9954 -1.8004
44471SOL     OW45136   2.042   4.483   3.702  0.2964 -0.6623 -0.0583
44471SOL    HW145137   2.008   4.571   3.717  2.7169  0.2621  0.4718
44471SOL    HW245138   2.097   4.492   3.624 -0.9059 -2.1787 -1.1446
44472SOL     OW45139   9.002  11.695  11.298  0.4051 -0.3941 -0.3255
44472SOL    HW145140   9.081  11.748  11.308  0.4077 -0.2100 -1.2064
44472SOL    HW245141   9.003  11.668  11.206 -1.1220  0.5128 -0.6428
44473SOL     OW45142   6.624   9.126   9.525  0.4818  0.2807 -0.2363
44473SOL    HW145143   6.616   9.127   9.621  0.6324  1.0763 -0.2322
44473SOL    HW245144   6.543   9.084   9.495  0.9334 -1.0107  0.2838
44474SOL     OW45145   4.316   2.279   9.437 -0.2349  0.3348 -0.2462
44474SOL    HW145146   4.238   2.317   9.478 -0.6279 -0.4437 -0.2621
44474SOL    HW245147   4.317   2.188   9.465  0.7742  0.3675 -0.1048
44475SOL     OW45148   9.636  11.471   7.570  0.4237 -0.2037 -0.4150
44475SOL    HW145149   9.704  11.502   7.630  0.1064 -0.0281 -0.1445
44475SOL    HW245150   9.608  11.550   7.523 -0.7469  0.0387  0.6329
44476SOL     OW45151   4.057   0.802   6.608  0.0824  0.4318 -0.2718
44476SOL    HW145152   3.961   0.799   6.611  0.0419 -0.2410 -1.5705
44476SOL    HW245153   4.080   0.875   6.665 -1.1427 -0.0759  0.9340
44477SOL     OW45154  11.522   3.775  10.185  0.2813 -0.3899 -0.0053
44477SOL    HW145155  11.482   3.715  10.121 -0.1862  1.0350 -1.1241
44477SOL    HW245156  11.448   3.824  10.220  0.8820  1.7996 -1.5795
44478SOL     OW45157  11.850   4.139   7.834 -0.2753 -0.2288  0.3405
44478SOL    HW145158  11.856   4.225   7.876  1.2773  0.3371 -0.9510
44478SOL    HW245159  11.902   4.081   7.891  2.6429  0.7366 -1.1362
44479SOL     OW45160   5.900  11.576   8.339  0.2563 -0.4875 -0.1697
44479SOL    HW145161   5.926  11.505   8.398 -0.9122 -0.1097  0.8557
44479SOL    HW245162   5.837  11.627   8.390 -1.7965 -0.8687 -2.1566
44480SOL     OW45163   0.187   6.918   4.149  0.5727 -0.5938 -0.2347
44480SOL    HW145164   0.220   6.845   4.201 -2.2421 -1.3997  0.6292
44480SOL    HW245165   0.107   6.946   4.194  1.0623  2.4947 -1.0365
44481SOL     OW45166  11.310   4.261   1.430  0.1711 -0.3736 -0.1720
44481SOL    HW145167  11.218   4.287   1.426  0.5036  1.0199  0.5661
44481SOL    HW245168  11.330   4.230   1.342 -1.2675 -1.6873 -0.0723
44482SOL     OW45169   1.121   3.920   6.219 -0.1648 -0.7336  0.0611
44482SOL    HW145170   1.208   3.956   6.238 -0.6282  0.2334  0.4013
44482SOL    HW245171   1.129   3.885   6.131  0.3526  0.0696 -0.2246
44483SOL     OW45172   0.796  11.466   4.823 -0.6661 -0.0763 -0.3774
44483SOL    HW145173   0.786  11.524   4.747 -0.0320  3.1344  1.7790
44483SOL    HW245174   0.708  11.454   4.857 -0.9278 -1.3656 -1.4354
44484SOL     OW45175   8.585   1.477   6.235  0.5464 -0.0913  0.3728
44484SOL    HW145176   8.492   1.462   6.255  0.6261 -0.7465  0.2506
44484SOL    HW245177   8.591   1.468   6.140  0.9462 -1.2432  0.4962
44485SOL     OW45178   9.888   3.673   2.724  0.0202  0.1263 -0.0154
44485SOL    HW145179   9.811   3.726   2.744  0.1916  0.7176 -0.8616
44485SOL    HW245180   9.919   3.706   2.639 -0.2323 -1.7517 -0.8925
44486SOL     OW45181   8.663  10.302  10.771 -0.0383  0.1572 -0.2553
44486SOL    HW145182   8.578  10.341  10.753 -0.1397  0.2315  0.3828
44486SOL    HW245183   8.649  10.208  10.762 -0.2524  0.1537  0.1310
44487SOL     OW45184   3.006   7.174   1.184 -0.1393  0.1762 -0.3007
44487SOL    HW145185   3.015   7.168   1.089 -0.2822  0.8585 -0.3594
44487SOL    HW245186   2.913   7.157   1.200 -0.2312  0.6539 -0.3319
44488SOL     OW45187   3.807   6.759  10.871  0.3234  0.0571 -0.2826
44488SOL    HW145188   3.770   6.766  10.783 -0.1586 -0.6429 -0.1458
44488SOL    HW245189   3.902   6.758  10.857  0.2593 -2.1556 -1.0093
44489SOL     OW45190   1.585   1.082  10.105  0.1495 -0.2312 -0.0599
44489SOL    HW145191   1.531   1.153  10.141 -0.1468 -0.0486 -0.8473
44489SOL    HW245192   1.673   1.119  10.100  0.0825 -0.0671 -0.0401
44490SOL     OW45193   4.711   1.442   7.652 -0.1048 -0.3082 -0.4043
44490SOL    HW145194   4.692   1.536   7.659 -2.7678 -0.8245  0.3759
44490SOL    HW245195   4.791   1.431   7.703  0.2796  1.5388 -0.5247
44491SOL     OW45196   2.885   9.686  10.880  0.2463 -0.0072 -0.2942
44491SOL    HW145197   2.801   9.641  10.886 -1.1993  2.4010 -1.3779
44491SOL    HW245198   2.945   9.620  10.845 -1.2231 -1.6837  0.2221
44492SOL     OW45199   9.253   8.913   6.221 -0.6311 -0.1713 -0.3571
44492SOL    HW145200   9.251   8.817   6.214 -0.2058 -0.1562 -0.7876
44492SOL    HW245201   9.205   8.932   6.301 -2.7896 -0.5997 -1.4825
44493SOL     OW45202   2.277   3.868   5.489 -0.4491  0.5355  0.6305
44493SOL    HW145203   2.284   3.786   5.440  0.1291  1.1831 -0.4043
44493SOL    HW245204   2.182   3.882   5.498 -0.5612  0.2556 -0.0504
44494SOL     OW45205  10.985   5.594  10.092  0.4277 -0.7354 -0.0938
44494SOL    HW145206  10.983   5.525  10.026  1.5225 -0.2890 -0.6169
44494SOL    HW245207  10.991   5.675  10.042  3.6134 -0.4876  0.5164
44495SOL     OW45208   5.919   7.655   4.875 -0.0063  0.0250 -0.0621
44495SOL    HW145209   6.006   7.654   4.915 -0.2047 -1.9598  0.4442
44495SOL    HW245210   5.862   7.692   4.943 -0.0099 -1.4505  0.7787
44496SOL     OW45211   1.019   5.928   9.946 -0.0910  0.2085  0.3174
44496SOL    HW145212   0.941   5.935   9.891  0.6581  0.4706 -0.7324
44496SOL    HW245213   1.041   5.835   9.944  0.1469  0.2741 -0.1258
44497SOL     OW45214   4.558   9.462  11.021  0.2747  0.0285 -0.7708
44497SOL    HW145215   4.551   9.495  10.931 -0.1487 -1.8620 -1.4951
44497SOL    HW245216   4.617   9.387  11.014  0.9821  0.4105  0.7207
44498SOL     OW45217   7.667   9.606   5.439  0.0218  0.3844  0.1246
44498SOL    HW145218   7.606   9.621   5.367 -0.4754  0.7518  0.6059
44498SOL    HW245219   7.680   9.512   5.441  0.3735  0.4081 -0.7112
44499SOL     OW45220   2.131   4.223   0.534 -0.4394 -0.0813 -0.4567
44499SOL    HW145221   2.115   4.129   0.542 -0.0299 -0.1850 -0.8090
44499SOL    HW245222   2.196   4.242   0.602  0.8911 -0.4211 -1.5770
44500SOL     OW45223  11.626   8.950   1.460  0.3847  0.1589  0.1635
44500SOL    HW145224  11.703   8.963   1.515  0.7202  0.8185 -0.4519
44500SOL    HW245225  11.657   8.965   1.371  0.0508 -1.7410 -0.3259
44501SOL     OW45226   7.952   3.946   7.845 -0.4495  0.1674 -0.4796
44501SOL    HW145227   7.949   4.028   7.894  0.8384  0.1050 -0.2600
44501SOL    HW245228   7.896   3.962   7.768 -0.3723  1.1753 -0.3356
44502SOL     OW45229   1.306   4.551   4.357 -0.5913  0.3844  0.0799
44502SOL    HW145230   1.221   4.593   4.366 -0.9842 -0.0733 -1.2220
44502SOL    HW245231   1.302   4.507   4.271  0.0909 -1.6037  1.0022
44503SOL     OW45232   3.513   3.797   1.033  0.4479 -0.0010  0.4207
44503SOL    HW145233   3.524   3.761   0.945 -1.3254 -1.2835  0.6629
44503SOL    HW245234   3.432   3.848   1.028  0.5921  0.3214  1.2089
44504SOL     OW45235   9.766   2.587   0.564  0.0591  0.3729 -0.2212
44504SOL    HW145236   9.771   2.676   0.530 -1.5370  0.2886 -0.7389
44504SOL    HW245237   9.857   2.564   0.584  0.4833  2.1742  0.1035
44505SOL     OW45238   3.685  10.048   6.562 -0.2172 -0.2292  0.1923
44505SOL    HW145239   3.701  10.103   6.486  1.4438 -1.0627 -0.1111
44505SOL    HW245240   3.716   9.961   6.536 -1.3309 -0.9662  1.1916
44506SOL     OW45241   7.668   9.308   5.470 -0.1101  0.7448  0.4259
44506SOL    HW145242   7.637   9.323   5.559 -0.0781  3.8263  0.0338
44506SOL    HW245243   7.593   9.270   5.424 -0.3123 -0.3211  1.5970
44507SOL     OW45244   1.251  10.860   6.559  0.0360  0.0027  0.2788
44507SOL    HW145245   1.335  10.900   6.535 -0.3404  0.9317  0.4640
44507SOL    HW245246   1.185  10.914   6.514 -0.6143  0.9684  2.2421
44508SOL     OW45247   1.877   9.101   7.936  0.0414  0.1818 -0.4154
44508SOL    HW145248   1.962   9.106   7.893  0.2241  0.6212 -0.0239
44508SOL    HW245249   1.888   9.154   8.016 -0.7439  0.6665 -0.6170
44509SOL     OW45250   8.515  11.956   7.915  0.0524 -0.0845 -0.2237
44509SOL    HW145251   8.493  11.928   7.826  0.2646 -0.4047 -0.1723
44509SOL    HW245252   8.568  11.885   7.951 -2.4539 -1.3883  1.2023
44510SOL     OW45253   4.476  10.094  10.042 -0.1809 -0.5694 -0.1121
44510SOL    HW145254   4.421  10.166  10.074  0.2412 -0.1330 -0.3626
44510SOL    HW245255   4.471  10.028  10.111  0.0890  0.0388  0.4948
44511SOL     OW45256   7.051  10.600   0.649  0.1351 -0.6560 -0.6201
44511SOL    HW145257   7.096  10.684   0.659 -0.3100 -0.4295 -0.5335
44511SOL    HW245258   7.118  10.542   0.612  0.6037 -0.4082 -0.1793
44512SOL     OW45259   7.392   1.173   9.939 -0.0254  0.2317 -0.1433
44512SOL    HW145260   7.354   1.123  10.012 -0.4492 -1.5924 -1.5422
44512SOL    HW245261   7.321   1.229   9.909 -0.4256 -0.3355 -0.2834
44513SOL     OW45262   7.726   6.681   1.447  0.0553 -0.1953  0.1166
44513SOL    HW145263   7.686   6.698   1.533 -0.1368  0.2229 -0.0518
44513SOL    HW245264   7.653   6.680   1.386  0.3322  1.1842 -0.2875
44514SOL     OW45265  11.508   0.938   3.021  0.0831 -0.8081  0.7026
44514SOL    HW145266  11.554   0.927   2.938 -0.1123  0.0640  0.4708
44514SOL    HW245267  11.494   0.849   3.053  1.8210 -1.1155  0.7282
44515SOL     OW45268  11.937   5.004   4.390 -0.2242 -0.2966 -0.4515
44515SOL    HW145269  11.863   4.946   4.374  0.9109 -1.6055 -1.1413
44515SOL    HW245270  11.927   5.074   4.326 -1.4804  0.1969  0.2409
44516SOL     OW45271   2.432  10.554   9.168  0.4314  0.0576 -0.0963
44516SOL    HW145272   2.476  10.484   9.215  1.0949  0.9021  0.5612
44516SOL    HW245273   2.425  10.521   9.078 -1.8461 -2.0562  0.7176
44517SOL     OW45274   2.756   8.963  10.998  0.1708  0.6564  0.1967
44517SOL    HW145275   2.835   8.917  10.968 -1.2849 -1.0658 -1.2040
44517SOL    HW245276   2.787   9.050  11.021  2.7318 -0.3905  1.0912
44518SOL     OW45277   2.523  10.557   4.143  0.3193  0.1383 -0.2000
44518SOL    HW145278   2.564  10.604   4.216  1.6276  0.5973 -1.2057
44518SOL    HW245279   2.438  10.601   4.131  0.3177  0.3984  0.6885
44519SOL     OW45280   3.136   4.261  10.245  0.6736  0.6427  0.1428
44519SOL    HW145281   3.105   4.196  10.309  0.5097 -0.6972 -1.2540
44519SOL    HW245282   3.232   4.254  10.249  0.6510  0.0772 -0.2311
44520SOL     OW45283   6.111   7.257   0.439  0.1752  0.2853  0.2094
44520SOL    HW145284   6.055   7.312   0.494  0.7320 -0.3787  1.5050
44520SOL    HW245285   6.062   7.176   0.429 -0.2102  0.6371 -0.8567
44521SOL     OW45286   5.486   8.019   0.159 -0.2853 -0.1819  0.1416
44521SOL    HW145287   5.521   7.937   0.194 -0.1633 -0.7741 -1.2930
44521SOL    HW245288   5.391   8.007   0.161 -0.2755 -0.2603  0.1483
44522SOL     OW45289   2.829   7.762   6.733  0.4950  0.2398 -0.1613
44522SOL    HW145290   2.778   7.841   6.751  2.6050  1.3735  1.2213
44522SOL    HW245291   2.809   7.703   6.805 -1.0794 -0.5500 -1.1926
44523SOL     OW45292   5.933   5.220  10.274 -0.4498 -0.2265  0.4056
44523SOL    HW145293   6.020   5.191  10.248 -0.7176 -0.3875 -0.3509
44523SOL    HW245294   5.897   5.147  10.324 -0.1808 -0.1878  0.6575
44524SOL     OW45295   9.547  11.137   6.210  0.4428 -0.3277  0.9670
44524SOL    HW145296   9.555  11.094   6.126  0.9268 -2.7615  2.1713
44524SOL    HW245297   9.467  11.101   6.248  0.5454  0.2818  1.8018
44525SOL     OW45298   9.263   9.841   5.956  0.1995 -0.4061  0.6295
44525SOL    HW145299   9.202   9.906   5.921  0.0047 -0.4551  0.8775
44525SOL    HW245300   9.283   9.785   5.881  0.8212  0.2749  0.2619
44526SOL     OW45301   4.478  11.455  10.506 -0.3222 -0.0916  0.1978
44526SOL    HW145302   4.518  11.377  10.466 -0.2793 -0.1536  0.3628
44526SOL    HW245303   4.551  11.513  10.523 -0.1041 -0.8205  1.8991
44527SOL     OW45304   9.326   3.767   9.533 -0.2349 -0.1808 -0.3372
44527SOL    HW145305   9.246   3.786   9.583  0.2359 -0.2311  0.4611
44527SOL    HW245306   9.295   3.743   9.446 -1.0639  0.2566 -0.1769
44528SOL     OW45307   4.840   5.630   5.942  0.0312  0.5519  0.5533
44528SOL    HW145308   4.852   5.711   5.992 -1.1835  0.6040  0.7944
44528SOL    HW245309   4.823   5.563   6.008 -1.8098  0.6609  0.2336
44529SOL     OW45310  11.347   1.358   7.787 -0.3242 -0.8283  0.5624
44529SOL    HW145311  11.436   1.390   7.796  0.7634 -3.0764 -1.1903
44529SOL    HW245312  11.337   1.293   7.857 -0.4345 -0.8819  0.4986
44530SOL     OW45313   0.125   1.939   0.240 -0.7375 -0.0884 -0.9428
44530SOL    HW145314   0.102   1.884   0.315 -1.1479  0.7723 -0.4186
44530SOL    HW245315   0.172   1.881   0.180  1.4454 -0.3425  0.8880
44531SOL     OW45316   1.780   2.623   4.504 -0.0436 -0.5209  0.0001
44531SOL    HW145317   1.802   2.624   4.597 -0.5089  2.4101  0.1782
44531SOL    HW245318   1.853   2.576   4.463  1.4554  0.2810  1.6103
44532SOL     OW45319   6.055   2.736   6.706 -0.3545 -0.3045 -0.1882
44532SOL    HW145320   6.009   2.813   6.670  0.0539  0.5436  1.0307
44532SOL    HW245321   6.101   2.770   6.783 -0.6289 -1.8945  0.7249
44533SOL     OW45322   7.301   6.111   7.934 -0.2407 -0.0311  0.1101
44533SOL    HW145323   7.372   6.048   7.923 -1.1292 -1.1932  0.7215
44533SOL    HW245324   7.344   6.191   7.963  0.8081 -0.7341  0.5652
44534SOL     OW45325   1.710  11.491   8.364 -0.0543  0.0138 -0.6488
44534SOL    HW145326   1.647  11.422   8.341 -0.1250 -0.0560 -0.2523
44534SOL    HW245327   1.657  11.570   8.373  0.3385  0.7870 -3.8539
44535SOL     OW45328  11.100   5.908   5.283  0.0756  0.0366 -0.5219
44535SOL    HW145329  11.135   5.872   5.365 -0.5020  0.8637  0.1073
44535SOL    HW245330  11.034   5.845   5.256 -1.6269  1.0383  1.0915
44536SOL     OW45331   7.792   0.100   4.215  0.0934  0.3975 -0.1462
44536SOL    HW145332   7.805   0.029   4.277  1.6299  0.7349 -0.0381
44536SOL    HW245333   7.704   0.132   4.232 -0.1113 -0.6008  0.7118
44537SOL     OW45334   2.778  11.456  10.319  0.2530  0.4931 -0.3340
44537SOL    HW145335   2.853  11.435  10.265  0.0838  0.3851 -0.5288
44537SOL    HW245336   2.814  11.502  10.394  0.3998  1.3828 -0.9404
44538SOL     OW45337   5.814   7.042   0.074 -0.3054  0.0680  0.1973
44538SOL    HW145338   5.735   7.091   0.095 -0.1251 -0.3387  2.0186
44538SOL    HW245339   5.852   7.088  -0.001 -0.7132  2.0655  1.1549
44539SOL     OW45340   8.200   3.203   6.807 -0.6132 -0.0720  0.2324
44539SOL    HW145341   8.152   3.129   6.768  0.1179 -0.1752 -0.5082
44539SOL    HW245342   8.188   3.274   6.745 -2.3331  0.8314  1.5359
44540SOL     OW45343   6.503  10.897   4.569  0.3614 -0.4083  0.6205
44540SOL    HW145344   6.541  10.984   4.554 -0.1056 -0.2033  0.5870
44540SOL    HW245345   6.457  10.905   4.652 -0.1228 -0.4645  0.3619
44541SOL     OW45346   1.760  11.889   3.686 -0.2341  0.0558 -0.0409
44541SOL    HW145347   1.838  11.944   3.686 -0.2366  0.0650 -0.3924
44541SOL    HW245348   1.761  11.845   3.770 -0.1385  0.4618  0.1749
44542SOL     OW45349   1.909  11.913   8.202  0.5871 -0.1348  0.0378
44542SOL    HW145350   1.894  11.819   8.216 -1.5511  0.1857  0.2911
44542SOL    HW245351   1.890  11.927   8.110 -2.5948  0.5262  0.6634
44543SOL     OW45352  10.967   1.006  11.682  0.0106  0.3639 -0.1176
44543SOL    HW145353  10.984   0.951  11.759 -1.1084 -1.7258 -1.2916
44543SOL    HW245354  10.966   0.945  11.608 -0.8341  2.0269 -1.5532
44544SOL     OW45355   5.966   8.156   7.321 -0.0380  0.2555 -0.1343
44544SOL    HW145356   5.884   8.191   7.286  0.3583  0.1785 -1.1499
44544SOL    HW245357   5.942   8.126   7.409 -0.5589  2.3739  0.5093
44545SOL     OW45358   0.707   1.169   9.614  0.1466  0.6170 -0.3119
44545SOL    HW145359   0.692   1.124   9.531  0.7331 -0.1229 -0.0237
44545SOL    HW245360   0.741   1.102   9.673  1.2077  1.4429  0.0720
44546SOL     OW45361   4.708  10.374   8.678 -0.0088  0.2325  0.3706
44546SOL    HW145362   4.744  10.298   8.724 -0.5356  1.2102  2.4850
44546SOL    HW245363   4.777  10.440   8.681  0.3644 -0.0388 -1.2696
44547SOL     OW45364   4.858   4.767  11.220 -0.0027  0.0004  0.0177
44547SOL    HW145365   4.897   4.797  11.303 -0.1262 -0.7056  0.3414
44547SOL    HW245366   4.845   4.847  11.169  0.9986  0.3429  0.2798
44548SOL     OW45367   4.218   4.850   3.501 -0.0518  0.1990 -0.1903
44548SOL    HW145368   4.297   4.799   3.519 -0.4060 -0.2732  0.0612
44548SOL    HW245369   4.189   4.818   3.415 -1.7501 -2.0011  1.0951
44549SOL     OW45370   5.549   2.556   3.254 -0.2175  0.2490  0.1245
44549SOL    HW145371   5.567   2.476   3.205 -0.6361  0.2917 -0.1018
44549SOL    HW245372   5.459   2.546   3.284  0.1342  0.0887  1.1461
44550SOL     OW45373   1.656   0.628   8.789 -0.2343  0.0008 -0.0578
44550SOL    HW145374   1.654   0.574   8.710  2.7874 -1.8991  0.9695
44550SOL    HW245375   1.628   0.569   8.859 -2.7315  1.6121  0.4030
44551SOL     OW45376   5.439   3.247   2.144  0.0698  0.0391 -0.1480
44551SOL    HW145377   5.371   3.184   2.121 -0.9551  1.2456 -0.5899
44551SOL    HW245378   5.473   3.218   2.228 -1.6192 -0.1316  0.5110
44552SOL     OW45379   2.433   8.709   4.256  0.7241  0.0835  0.1160
44552SOL    HW145380   2.417   8.690   4.348 -1.3246  0.8251 -0.0438
44552SOL    HW245381   2.412   8.628   4.210  1.0364 -0.0644  0.2317
44553SOL     OW45382   2.330   8.471  11.068 -0.1214 -0.1607  0.3665
44553SOL    HW145383   2.303   8.480  10.977  1.0683 -0.6716 -0.0626
44553SOL    HW245384   2.325   8.377  11.086 -0.2281 -0.0776  0.7867
44554SOL     OW45385   3.074   8.897   3.745  0.2745  0.4624 -0.5949
44554SOL    HW145386   3.157   8.911   3.700  0.3801  1.6148 -0.0907
44554SOL    HW245387   3.089   8.930   3.834 -0.3528 -0.4583 -0.1311
44555SOL     OW45388   8.746   8.144   0.065 -0.1842  0.0944 -0.0909
44555SOL    HW145389   8.755   8.239   0.051 -0.9335  0.0533 -0.9042
44555SOL    HW245390   8.792   8.105  -0.009  0.7320 -0.2106  0.6085
44556SOL     OW45391   5.685   1.338   5.746 -0.3637  0.2561 -0.1029
44556SOL    HW145392   5.714   1.376   5.663 -0.5833  1.8190  0.5016
44556SOL    HW245393   5.756   1.356   5.807 -0.4596 -0.3610  0.1986
44557SOL     OW45394  10.163   5.452   9.600  0.3686  0.5348 -0.2770
44557SOL    HW145395  10.204   5.478   9.517 -0.5324 -1.8635 -1.5856
44557SOL    HW245396  10.186   5.522   9.661  2.0510  1.8258 -2.2384
44558SOL     OW45397   0.700   5.324   1.390 -0.3976 -0.4072 -0.2651
44558SOL    HW145398   0.694   5.251   1.328 -0.0588 -0.3546 -0.3629
44558SOL    HW245399   0.616   5.323   1.436 -0.0434 -1.4305  0.3795
44559SOL     OW45400   5.483   8.468   2.877 -0.6998 -0.5719 -0.2007
44559SOL    HW145401   5.537   8.393   2.854  1.1428  0.6530 -0.0873
44559SOL    HW245402   5.499   8.532   2.808 -2.0699 -0.1822 -0.1949
44560SOL     OW45403   1.143  10.808  11.050 -0.5643  0.3384  0.2867
44560SOL    HW145404   1.223  10.844  11.088 -0.3547 -0.1851  0.3562
44560SOL    HW245405   1.106  10.879  10.999 -0.3204  0.7415  0.6675
44561SOL     OW45406   1.440   2.336   2.992 -0.1480  0.2481 -0.0924
44561SOL    HW145407   1.447   2.432   2.988  0.2893  0.1992 -0.5801
44561SOL    HW245408   1.352   2.317   2.958 -0.2256  0.4760 -0.0220
44562SOL     OW45409   5.027   4.042   2.338 -0.4039 -0.2141 -0.0648
44562SOL    HW145410   5.029   4.113   2.402 -2.6973  0.9581 -1.1873
44562SOL    HW245411   5.075   3.970   2.381  0.3453  1.3370  1.8754
44563SOL     OW45412   0.676  11.029   9.110  0.1115 -0.0677  0.7609
44563SOL    HW145413   0.650  10.941   9.083 -0.6003  0.5968 -0.8208
44563SOL    HW245414   0.734  11.015   9.186  0.7662 -1.9327 -0.0344
44564SOL     OW45415  11.268   7.903   8.073 -0.3224 -0.3950 -0.4266
44564SOL    HW145416  11.303   7.982   8.112  0.8176 -0.8637 -0.4542
44564SOL    HW245417  11.236   7.931   7.987  1.5876 -0.2263 -1.1398
44565SOL     OW45418   1.788   8.416   3.446 -0.2591  0.4580  0.3414
44565SOL    HW145419   1.769   8.440   3.537 -0.2899 -0.4709  0.5942
44565SOL    HW245420   1.776   8.321   3.444 -0.3735  0.4884 -0.6668
44566SOL     OW45421   9.400   3.089  10.371  0.3043 -0.5318  0.1416
44566SOL    HW145422   9.456   3.145  10.317  0.7576 -0.2523  0.8834
44566SOL    HW245423   9.387   3.011  10.318  2.1352 -0.9864  0.2897
44567SOL     OW45424   5.750   3.242   5.265 -0.4633 -0.1648  0.1377
44567SOL    HW145425   5.668   3.273   5.225 -0.2788  0.5345  0.2992
44567SOL    HW245426   5.735   3.249   5.359 -1.1385 -2.4251  0.2665
44568SOL     OW45427   5.760   1.633   7.102 -0.0275  0.1509 -0.3138
44568SOL    HW145428   5.795   1.570   7.039 -1.5765  0.6990 -1.7975
44568SOL    HW245429   5.793   1.718   7.072  1.7554  0.1646  1.4649
44569SOL     OW45430   0.153   2.158  11.674 -0.2724  0.5510 -0.4355
44569SOL    HW145431   0.154   2.240  11.723  0.4894 -0.8424  2.0548
44569SOL    HW245432   0.139   2.185  11.583 -0.8868  3.3499  0.3791
44570SOL     OW45433   5.911   5.248   9.601  0.2592  0.0224 -0.1458
44570SOL    HW145434   5.953   5.319   9.552 -2.2300  1.3715 -0.4953
44570SOL    HW245435   5.822   5.279   9.617 -0.3530 -2.2537  1.3972
44571SOL     OW45436   0.253   3.141   2.867 -0.4324 -0.0380 -0.0344
44571SOL    HW145437   0.162   3.110   2.873 -0.5221  0.3768  1.0494
44571SOL    HW245438   0.250   3.208   2.799 -1.2566  0.9549  0.9359
44572SOL     OW45439   4.018   1.732   6.347  0.6513  0.5659  0.0456
44572SOL    HW145440   3.936   1.705   6.387  1.7256 -2.9709  0.1581
44572SOL    HW245441   4.009   1.709   6.254  1.2257  0.9757 -0.1239
44573SOL     OW45442   6.510   1.739   7.702  0.0146 -0.0573 -0.1673
44573SOL    HW145443   6.470   1.690   7.774  0.4240  0.3948  0.3809
44573SOL    HW245444   6.597   1.700   7.692 -0.0737 -0.1763 -0.4805
44574SOL     OW45445   6.560   9.461   3.403 -0.2902 -0.0600  0.0136
44574SOL    HW145446   6.650   9.487   3.382 -0.8831  1.2846 -0.9700
44574SOL    HW245447   6.528   9.530   3.461 -1.0302  0.0377 -0.4969
44575SOL     OW45448   6.514   6.902   1.156 -0.3790 -0.1852  0.6003
44575SOL    HW145449   6.489   6.981   1.205 -0.1623 -0.3907  1.0549
44575SOL    HW245450   6.507   6.831   1.220 -1.1385 -0.6295  0.0439
44576SOL     OW45451   8.870   5.384   6.828  0.3172 -0.0594  0.2897
44576SOL    HW145452   8.912   5.348   6.906  0.6451  0.1901  0.2278
44576SOL    HW245453   8.806   5.318   6.802  0.2678 -0.1808  0.7209
44577SOL     OW45454  10.139  11.203   0.152 -0.0256  0.1954  0.5033
44577SOL    HW145455  10.160  11.266   0.221 -0.2051 -1.0739  1.7611
44577SOL    HW245456  10.047  11.181   0.167  0.4157 -1.4692  1.0547
44578SOL     OW45457   8.652  10.664   5.766  0.5574  0.2595  0.2482
44578SOL    HW145458   8.574  10.696   5.723  0.2409 -0.3676  0.3419
44578SOL    HW245459   8.717  10.655   5.696 -1.1250 -4.6935 -1.0491
44579SOL     OW45460   8.018   4.403   1.733 -0.6623 -0.3321  0.0146
44579SOL    HW145461   8.065   4.474   1.690 -0.0122 -0.3503  0.6636
44579SOL    HW245462   8.060   4.323   1.700 -0.4222 -0.3587  0.3797
44580SOL     OW45463  10.131   2.580   3.712  0.1073  0.1263  0.0107
44580SOL    HW145464  10.085   2.573   3.795 -2.9680 -2.0887 -1.6547
44580SOL    HW245465  10.064   2.609   3.650  1.4154 -1.3326 -2.2436
44581SOL     OW45466   8.211   5.888   3.963  0.1174  0.2321  0.8319
44581SOL    HW145467   8.136   5.882   4.022  0.4053 -0.1947  1.1622
44581SOL    HW245468   8.173   5.883   3.875 -0.3120  0.8408  0.9694
44582SOL     OW45469   4.028   7.233   2.648 -0.1606  0.7213 -0.8353
44582SOL    HW145470   3.946   7.208   2.607 -0.2131 -1.0312  0.2314
44582SOL    HW245471   4.082   7.267   2.577 -1.1513  0.1641 -1.8740
44583SOL     OW45472   7.874   2.618   8.074 -0.6079  0.1836  0.0741
44583SOL    HW145473   7.853   2.532   8.037 -0.3005 -0.2460  0.8686
44583SOL    HW245474   7.970   2.621   8.075 -0.6094  1.0144 -1.0099
44584SOL     OW45475   9.404   5.563   7.670  0.1202 -0.4686  0.4596
44584SOL    HW145476   9.418   5.566   7.576  2.2645 -0.5712  0.7295
44584SOL    HW245477   9.486   5.595   7.708 -1.4233  1.6732  2.2881
44585SOL     OW45478   9.087   4.176   7.360 -0.0732  0.3562 -0.0947
44585SOL    HW145479   9.135   4.147   7.438  2.3805  0.6060 -1.4325
44585SOL    HW245480   9.109   4.269   7.353 -0.9941  0.5409 -0.6138
44586SOL     OW45481   3.124  10.879   9.161  0.1117  0.2463  0.4379
44586SOL    HW145482   3.128  10.843   9.250 -1.2983  0.9363  0.8245
44586SOL    HW245483   3.189  10.949   9.161  1.8435 -1.2992  0.1288
44587SOL     OW45484   1.920   8.289   5.111  0.6628  0.4166  0.0484
44587SOL    HW145485   1.833   8.293   5.151 -0.2849  2.7190 -1.9899
44587SOL    HW245486   1.948   8.199   5.125 -1.1421  0.1288  2.5381
44588SOL     OW45487  11.376   3.970   8.736 -0.6323 -0.2265  0.1131
44588SOL    HW145488  11.384   4.060   8.768 -0.6983 -0.5117  0.9771
44588SOL    HW245489  11.342   3.978   8.647 -1.3460  0.5792  0.4484
44589SOL     OW45490   5.768   8.075   2.607  0.4691  0.0439 -0.2902
44589SOL    HW145491   5.698   8.023   2.647  0.6161 -0.3183 -0.5054
44589SOL    HW245492   5.729   8.114   2.529  0.4018  0.1361 -0.2100
44590SOL     OW45493   9.102  11.259   1.307  0.3077 -0.0686  0.1769
44590SOL    HW145494   9.065  11.330   1.360  1.0762 -0.9675  1.9906
44590SOL    HW245495   9.195  11.258   1.329  1.0472  0.6191 -2.5270
44591SOL     OW45496   5.165   3.080  11.686  0.0982 -0.2847 -0.0951
44591SOL    HW145497   5.072   3.096  11.670  0.1293  0.3479  0.3381
44591SOL    HW245498   5.187   3.008  11.627 -0.5616 -0.1527 -0.5117
44592SOL     OW45499   3.995   2.673   6.680  0.1577  0.0163  0.1966
44592SOL    HW145500   4.021   2.762   6.702  0.9997 -0.1662 -0.0239
44592SOL    HW245501   3.983   2.674   6.585  1.7268 -0.4708 -0.0345
44593SOL     OW45502   7.752   9.069   8.302 -0.1180  0.4218  0.6244
44593SOL    HW145503   7.703   9.118   8.367 -0.7071  1.0244 -0.2486
44593SOL    HW245504   7.829   9.036   8.349 -0.9964  0.0468  1.8361
44594SOL     OW45505   8.905   2.864   7.713 -0.2274  0.2024  0.0669
44594SOL    HW145506   8.938   2.896   7.797 -1.6326 -0.5995  0.9494
44594SOL    HW245507   8.900   2.942   7.658  0.0759  0.8501  0.9307
44595SOL     OW45508   0.023  11.708   6.850 -0.4056  0.2306  0.0859
44595SOL    HW145509   0.049  11.618   6.869  0.1580  0.7142  1.7854
44595SOL    HW245510  -0.072  11.704   6.836 -0.3372 -0.6594 -0.1480
44596SOL     OW45511  10.493   9.399   6.607 -0.5451  0.1169 -0.1250
44596SOL    HW145512  10.399   9.389   6.595 -0.6485 -4.7786  2.2970
44596SOL    HW245513  10.502   9.459   6.682 -1.8883 -0.8674  0.8655
44597SOL     OW45514  10.531   8.227  10.662 -0.2086  0.2786  0.1580
44597SOL    HW145515  10.455   8.280  10.637  0.3243  0.4661 -1.1371
44597SOL    HW245516  10.605   8.287  10.655  0.3168 -0.4397 -0.6859
44598SOL     OW45517   7.558   7.747   4.634  0.1810  0.2942  0.0261
44598SOL    HW145518   7.603   7.691   4.571 -1.0462 -1.5372  0.7113
44598SOL    HW245519   7.604   7.831   4.629  3.1102 -1.2012  0.0946
44599SOL     OW45520   1.915  10.927   2.941  0.1663  0.1100 -0.6441
44599SOL    HW145521   1.890  11.013   2.976 -1.6330  0.4742 -2.6185
44599SOL    HW245522   1.981  10.947   2.874  0.3858 -0.1550 -0.5098
44600SOL     OW45523   6.454   0.482   2.005  0.2637  0.3054 -0.3503
44600SOL    HW145524   6.461   0.387   2.014  0.5054  0.2896 -0.6924
44600SOL    HW245525   6.503   0.502   1.926 -0.1365  0.6692 -0.5110
44601SOL     OW45526   3.982   5.363   8.493  0.4609 -0.4234 -0.4335
44601SOL    HW145527   3.964   5.457   8.487  0.4970 -0.3782  0.0740
44601SOL    HW245528   4.076   5.357   8.504  0.4814 -0.5287 -0.6716
44602SOL     OW45529  10.217   4.190   0.126  0.5728  0.4404  0.6271
44602SOL    HW145530  10.294   4.178   0.070  1.0485  0.4631  1.2525
44602SOL    HW245531  10.204   4.285   0.128  2.2674  0.7337  2.7112
44603SOL     OW45532   2.090   2.993   3.654 -0.1742 -0.5605  0.5931
44603SOL    HW145533   2.129   2.952   3.731  1.9489 -2.8858 -1.5334
44603SOL    HW245534   2.034   2.925   3.616 -0.2034  0.0831 -0.5674
44604SOL     OW45535   2.474   4.247   0.318  0.2746 -0.4136 -0.0096
44604SOL    HW145536   2.448   4.325   0.368 -1.0601  0.5094 -2.0275
44604SOL    HW245537   2.395   4.223   0.270  1.5410 -1.1439 -1.8088
44605SOL     OW45538   1.605   6.924   1.016 -0.2782  0.4109  0.0786
44605SOL    HW145539   1.517   6.952   0.987  0.0791  0.8724 -0.6007
44605SOL    HW245540   1.664   6.989   0.976  0.6033 -1.3368 -1.6165
44606SOL     OW45541   0.809   1.655  11.481  0.6960 -0.0312 -0.3496
44606SOL    HW145542   0.770   1.701  11.555  2.9037  0.0358  0.8750
44606SOL    HW245543   0.812   1.721  11.411  0.4501  0.5523  0.1759
44607SOL     OW45544   0.470   1.507   4.649 -0.1726  0.0549 -0.0623
44607SOL    HW145545   0.538   1.574   4.642 -1.0850  1.0108 -0.0387
44607SOL    HW245546   0.513   1.426   4.619  0.2861  1.0973 -2.4485
44608SOL     OW45547   3.705   9.099   0.588  0.0408 -0.4016  0.4577
44608SOL    HW145548   3.672   9.131   0.504  1.1431 -0.0068  0.1592
44608SOL    HW245549   3.726   9.007   0.572  0.6098 -0.2273  0.1887
44609SOL     OW45550   7.767   8.979   2.169 -0.2726 -0.3706  0.2166
44609SOL    HW145551   7.795   9.048   2.109  1.3891  0.0055  1.3552
44609SOL    HW245552   7.696   9.018   2.220 -1.3502 -0.5271 -1.1174
44610SOL     OW45553   2.995   4.696   2.577  0.0511  0.1352 -0.7955
44610SOL    HW145554   2.914   4.653   2.551  0.7940 -0.1875 -2.7518
44610SOL    HW245555   2.972   4.747   2.654 -1.3925 -1.9716  0.2512
44611SOL     OW45556   2.758   8.999   8.158  0.0642  0.1634  0.3756
44611SOL    HW145557   2.752   8.904   8.154 -0.2054  0.1375  1.1214
44611SOL    HW245558   2.693   9.024   8.224  0.3165  0.8381  0.3780
44612SOL     OW45559   1.465  10.950   9.231 -0.1794  0.0845  0.0141
44612SOL    HW145560   1.408  10.894   9.282 -1.2402 -1.1218 -2.3206
44612SOL    HW245561   1.553  10.930   9.261 -0.7722 -0.3562  1.5015
44613SOL     OW45562   6.718   6.589   8.282  0.1688 -0.2265 -0.2184
44613SOL    HW145563   6.743   6.531   8.210 -0.8223 -1.2649  0.2418
44613SOL    HW245564   6.633   6.624   8.256  0.4797  0.5546 -0.2097
44614SOL     OW45565  11.358   7.594   9.997 -0.2680  0.6009  0.0584
44614SOL    HW145566  11.304   7.665  10.034 -0.5651  0.5676 -0.3002
44614SOL    HW245567  11.426   7.639   9.948 -0.2900  0.6439  0.0663
44615SOL     OW45568   6.897   0.148  10.721  0.1158 -0.5962 -0.1341
44615SOL    HW145569   6.824   0.108  10.673  1.1556 -0.9830 -1.4599
44615SOL    HW245570   6.886   0.242  10.707  1.4480 -0.7386 -2.8780
44616SOL     OW45571   8.126   7.607   4.413 -0.5465 -0.6979  0.1046
44616SOL    HW145572   8.156   7.649   4.332 -1.8290 -1.3049 -0.7257
44616SOL    HW245573   8.183   7.531   4.423  0.0055 -0.2937  0.1161
44617SOL     OW45574   1.510   2.746   7.746 -0.0395  0.3264  0.4139
44617SOL    HW145575   1.525   2.823   7.801  0.7577 -0.5519  1.4639
44617SOL    HW245576   1.416   2.728   7.754  0.0914  0.1356  1.5968
44618SOL     OW45577   0.012   9.915   6.723 -0.2758 -0.2949  0.3362
44618SOL    HW145578   0.098   9.940   6.759  0.5709 -0.4533 -1.4560
44618SOL    HW245579  -0.046   9.986   6.749  0.4212 -0.1159  1.4793
44619SOL     OW45580   1.385   4.790   0.362 -0.1566 -0.2205  0.1257
44619SOL    HW145581   1.453   4.848   0.328 -0.1587 -0.7079 -0.7278
44619SOL    HW245582   1.399   4.790   0.457  3.7647 -3.5430 -0.1606
44620SOL     OW45583   4.376   2.864   1.556 -0.0006 -0.2610 -0.2180
44620SOL    HW145584   4.363   2.859   1.461  1.0508  1.5068 -0.4945
44620SOL    HW245585   4.287   2.868   1.592 -0.4043  0.8142 -1.2652
44621SOL     OW45586   2.149   5.895   8.634  0.1151 -0.1505 -0.6429
44621SOL    HW145587   2.243   5.902   8.649 -0.1111  0.9285  0.4580
44621SOL    HW245588   2.123   5.981   8.600 -0.1633 -1.0987 -3.0458
44622SOL     OW45589   8.868   0.690   0.966  0.7033  0.4519 -0.1270
44622SOL    HW145590   8.866   0.757   0.898 -0.3229 -1.5839 -2.2601
44622SOL    HW245591   8.787   0.703   1.016 -0.0575  0.1516 -1.2525
44623SOL     OW45592   7.556   7.658   0.506 -0.0820 -0.0052 -0.0622
44623SOL    HW145593   7.620   7.592   0.479 -0.5122  0.8269 -3.5787
44623SOL    HW245594   7.509   7.618   0.579  3.0089 -1.4643  1.2885
44624SOL     OW45595   6.259   9.678   1.648  0.0088 -0.0721 -0.0994
44624SOL    HW145596   6.174   9.643   1.674  0.4276 -0.4810  0.7310
44624SOL    HW245597   6.246   9.705   1.557 -1.0879  0.1263  0.0962
44625SOL     OW45598   6.818   9.686   0.452  0.0959  0.3052 -0.1922
44625SOL    HW145599   6.896   9.637   0.427  0.6269 -0.0728  1.9676
44625SOL    HW245600   6.823   9.767   0.402  2.5977  0.8735  0.8332
44626SOL     OW45601   5.031   8.859  10.528  0.4545  0.3400 -0.2446
44626SOL    HW145602   5.057   8.810  10.450  0.8078  0.1679 -0.0191
44626SOL    HW245603   5.004   8.945  10.495 -0.0887  0.0305 -0.6352
44627SOL     OW45604   6.092   0.783   6.694  0.0922 -0.1913  0.3659
44627SOL    HW145605   6.175   0.799   6.647  0.8571 -1.9688  1.0146
44627SOL    HW245606   6.026   0.783   6.625  0.4851  1.8917 -0.0984
44628SOL     OW45607   4.817   6.622   2.105  0.0622  0.5844  0.1366
44628SOL    HW145608   4.777   6.668   2.031  0.4181  0.6730 -0.0041
44628SOL    HW245609   4.853   6.543   2.066 -1.7718 -0.5380  0.6101
44629SOL     OW45610   8.135  11.524   1.297  0.1859 -0.4834  0.0468
44629SOL    HW145611   8.109  11.441   1.336  0.9089  0.0793  1.7853
44629SOL    HW245612   8.085  11.590   1.344 -0.8210  0.0671 -1.7105
44630SOL     OW45613  10.126   2.917   3.086 -0.1097 -0.1339  0.0587
44630SOL    HW145614  10.129   2.823   3.071  2.2238 -0.0775 -0.2380
44630SOL    HW245615  10.217   2.941   3.106 -0.7689  1.9432  0.8748
44631SOL     OW45616   7.366   4.098   4.984 -0.3218  0.1591 -0.4786
44631SOL    HW145617   7.304   4.031   4.953 -0.0504  0.8918 -2.7919
44631SOL    HW245618   7.452   4.060   4.969 -0.1713  0.1148  0.4401
44632SOL     OW45619   0.939   8.128   0.383  0.8937 -0.3763  0.0270
44632SOL    HW145620   0.951   8.149   0.290  3.7740 -2.2568 -0.1622
44632SOL    HW245621   1.028   8.126   0.419 -0.1947  1.1828  3.1089
44633SOL     OW45622   3.180   9.777   6.099 -0.1358  0.4024 -0.4882
44633SOL    HW145623   3.239   9.768   6.174 -0.8264  2.9699  0.4404
44633SOL    HW245624   3.238   9.774   6.023  0.7416 -0.7519  0.1865
44634SOL     OW45625   9.141   1.912   9.390  0.0074 -0.1691  0.2600
44634SOL    HW145626   9.152   1.958   9.307 -1.4629 -1.2307 -0.5673
44634SOL    HW245627   9.223   1.864   9.401 -0.1317 -0.7665 -1.0818
44635SOL     OW45628  11.146   0.305   8.707 -0.0040  0.2988 -0.4522
44635SOL    HW145629  11.068   0.328   8.757  2.3397  1.8073  2.8526
44635SOL    HW245630  11.209   0.373   8.728  2.9087 -1.9547 -1.2978
44636SOL     OW45631   5.293   0.394   5.178  0.6544  0.4229 -0.4771
44636SOL    HW145632   5.331   0.337   5.245 -0.2673  0.5674  0.1793
44636SOL    HW245633   5.366   0.414   5.119  1.1873 -0.7346 -0.2348
44637SOL     OW45634   3.607  11.722   7.706  0.8441  0.1311  0.2849
44637SOL    HW145635   3.547  11.657   7.740 -0.2327  0.5307 -0.7901
44637SOL    HW245636   3.682  11.672   7.673 -0.6301 -0.7641 -1.9468
44638SOL     OW45637  11.106   4.651   1.440 -0.1656 -0.0172  0.5429
44638SOL    HW145638  11.059   4.646   1.523  0.1337  0.3677  0.7336
44638SOL    HW245639  11.186   4.699   1.460  0.3094 -0.6711  0.2112
44639SOL     OW45640   6.117   5.746   4.340 -0.1252 -0.2441  0.4258
44639SOL    HW145641   6.149   5.665   4.378 -0.1079 -0.1257  0.6673
44639SOL    HW245642   6.106   5.805   4.415 -0.8929 -0.2787  0.3494
44640SOL     OW45643  11.039   2.285   9.911  0.1420 -0.0080 -0.2062
44640SOL    HW145644  11.049   2.332   9.829  0.4657  2.0312  0.9336
44640SOL    HW245645  10.977   2.215   9.891 -0.4733  0.9756 -1.9522
44641SOL     OW45646   7.867  10.365   3.714 -0.9884  0.0907  0.1345
44641SOL    HW145647   7.793  10.407   3.757 -0.6425 -0.5249  1.3974
44641SOL    HW245648   7.929  10.436   3.697 -1.4151  0.4421  0.0491
44642SOL     OW45649   7.230  10.221   1.865 -0.4236 -0.7718 -0.4712
44642SOL    HW145650   7.164  10.161   1.829 -0.3529 -0.4452 -1.1493
44642SOL    HW245651   7.201  10.236   1.955  0.0142 -2.4788 -0.0201
44643SOL     OW45652   4.333   4.088   4.608  0.5661  0.0584  0.3396
44643SOL    HW145653   4.323   3.996   4.632  1.4803  0.0818  0.8673
44643SOL    HW245654   4.408   4.118   4.659  0.2092  1.1301  0.2606
44644SOL     OW45655  10.250   0.955   2.822 -0.4380  0.0940  0.4838
44644SOL    HW145656  10.235   1.017   2.893 -2.1710 -2.0648  2.1104
44644SOL    HW245657  10.342   0.929   2.832 -1.1166 -1.5580  3.2046
44645SOL     OW45658   2.033   7.856   6.529 -0.8207  0.3831  0.0830
44645SOL    HW145659   2.039   7.880   6.621  1.0487 -0.8941  0.3305
44645SOL    HW245660   2.096   7.913   6.485  1.3165 -1.7176  0.2348
44646SOL     OW45661  11.404   0.080   0.302  0.1583  0.0519  0.3905
44646SOL    HW145662  11.338   0.055   0.367 -1.0878 -1.6160 -1.4022
44646SOL    HW245663  11.385   0.025   0.226  0.4168  3.1189 -2.0818
44647SOL     OW45664   0.286   3.383   2.742 -0.5823  0.1869 -0.3254
44647SOL    HW145665   0.278   3.458   2.801 -0.2358 -0.2965  0.3536
44647SOL    HW245666   0.224   3.402   2.671  0.5018  1.7662 -0.9065
44648SOL     OW45667  10.668  10.396   4.887  0.0531 -0.1296 -0.0311
44648SOL    HW145668  10.648  10.489   4.896 -0.3702 -0.2075 -0.1472
44648SOL    HW245669  10.596  10.361   4.835  0.1216 -0.5532  0.1549
44649SOL     OW45670   3.520   9.157   9.280 -0.0040 -0.8130  0.2455
44649SOL    HW145671   3.561   9.202   9.353 -0.8305 -2.6017  1.8824
44649SOL    HW245672   3.465   9.224   9.238  2.7908  1.0735 -0.7455
44650SOL     OW45673   2.971  11.597  11.547 -0.0121  0.0068  0.7218
44650SOL    HW145674   2.919  11.675  11.526 -1.2165 -0.8953  0.2208
44650SOL    HW245675   2.997  11.562  11.463 -0.8484 -1.0091  0.8648
44651SOL     OW45676   8.221   2.698  10.969 -0.1853 -0.1621  0.2232
44651SOL    HW145677   8.127   2.715  10.965 -0.9124 -3.2998  1.1828
44651SOL    HW245678   8.245   2.670  10.881 -1.2449 -3.6338  0.8918
44652SOL     OW45679   2.992   1.576   4.118 -0.0945  0.1138  0.1986
44652SOL    HW145680   2.982   1.671   4.127 -0.5091  0.0886  0.0159
44652SOL    HW245681   3.044   1.565   4.038  0.8042  0.2199  0.7591
44653SOL     OW45682   3.885  11.789   8.506 -0.4254  0.0250  0.4395
44653SOL    HW145683   3.839  11.873   8.500  0.4873  0.6306  1.4023
44653SOL    HW245684   3.928  11.779   8.421 -0.4788  0.5858  0.3418
44654SOL     OW45685   5.186   9.166   2.852 -0.1867 -0.1486 -0.1736
44654SOL    HW145686   5.212   9.157   2.944  0.6477  0.8300 -0.3002
44654SOL    HW245687   5.111   9.108   2.843 -1.6382  1.2904  1.6930
44655SOL     OW45688   4.448   1.717   3.210 -0.0746 -0.2677  0.9559
44655SOL    HW145689   4.368   1.711   3.157  0.9563  2.3417 -1.1150
44655SOL    HW245690   4.438   1.799   3.259  1.0904 -0.1777  1.0735
44656SOL     OW45691   5.070  10.542   8.881  0.3762 -0.1475  0.2546
44656SOL    HW145692   5.146  10.592   8.911  0.4314  0.2311 -0.4949
44656SOL    HW245693   5.010  10.542   8.956  0.3394  1.1164  0.2495
44657SOL     OW45694   6.797  11.320  10.343  0.5655  0.3834  0.0193
44657SOL    HW145695   6.738  11.256  10.383 -0.1430  0.4827 -0.8426
44657SOL    HW245696   6.790  11.397  10.399 -0.3435  0.4857 -0.2182
44658SOL     OW45697   2.575   4.489   5.644 -0.0423 -0.0516  0.1611
44658SOL    HW145698   2.513   4.497   5.571 -0.8039 -1.9091  0.5459
44658SOL    HW245699   2.637   4.561   5.631 -0.8796  0.4041 -1.6018
44659SOL     OW45700  10.662  11.822   8.185 -0.2708  0.0477  0.2194
44659SOL    HW145701  10.742  11.791   8.142 -0.9065 -0.6951 -0.4689
44659SOL    HW245702  10.683  11.822   8.278  0.9422  1.1065 -0.0301
44660SOL     OW45703   7.629   4.922   1.770 -0.2387 -0.5475 -0.2868
44660SOL    HW145704   7.547   4.882   1.797  0.4157 -1.5919  0.2096
44660SOL    HW245705   7.656   4.871   1.693  0.0421 -0.3433 -0.3246
44661SOL     OW45706  11.507   3.293   2.199 -0.5421 -0.2108  0.3855
44661SOL    HW145707  11.581   3.293   2.259  0.4625 -0.6733 -0.8124
44661SOL    HW245708  11.538   3.343   2.123 -0.8291 -1.8128 -0.8433
44662SOL     OW45709   6.264  10.817   0.485  0.5999  0.0184 -0.0758
44662SOL    HW145710   6.237  10.880   0.552  0.4784  0.1303 -0.2292
44662SOL    HW245711   6.195  10.751   0.485  0.3469  0.2859 -0.4447
44663SOL     OW45712   9.869  11.491   4.143 -0.6213 -0.4987  0.2797
44663SOL    HW145713   9.855  11.418   4.203 -0.8699 -0.9847 -0.3675
44663SOL    HW245714   9.864  11.453   4.056  1.2186 -0.0704 -0.0512
44664SOL     OW45715   8.570  10.459   6.555  0.6472  0.1855  0.2513
44664SOL    HW145716   8.492  10.408   6.534  0.1573  0.5489  1.1252
44664SOL    HW245717   8.582  10.447   6.649  2.4744 -0.9841 -0.0902
44665SOL     OW45718   9.573   2.099   8.925 -0.6620  0.3815  0.5153
44665SOL    HW145719   9.632   2.156   8.876 -1.4037 -0.1148 -0.9985
44665SOL    HW245720   9.560   2.144   9.009  0.0323  1.6264 -0.0257
44666SOL     OW45721   4.064   1.766   4.030 -0.1336 -0.4555 -0.1175
44666SOL    HW145722   3.981   1.762   4.077 -0.2315  1.0939 -0.0962
44666SOL    HW245723   4.040   1.800   3.943  0.1489 -2.5076 -1.0391
44667SOL     OW45724   9.332   6.035  10.007 -0.0805  0.0259  0.3035
44667SOL    HW145725   9.297   6.085   9.933 -0.1431  0.8521  0.8723
44667SOL    HW245726   9.346   5.947   9.972 -0.5313  0.2838 -0.5637
44668SOL     OW45727   3.751   0.751   0.878  0.5074 -0.0011  0.1890
44668SOL    HW145728   3.832   0.765   0.828  0.0364  2.4820 -0.0122
44668SOL    HW245729   3.770   0.784   0.965 -0.0919  0.0149  0.3187
44669SOL     OW45730   2.038   4.843   8.241 -0.4627 -0.0159 -0.1354
44669SOL    HW145731   2.002   4.932   8.240  0.3907  0.3426 -0.2231
44669SOL    HW245732   2.047   4.822   8.334  0.7072  0.5782 -0.0973
44670SOL     OW45733   8.567   7.236   8.430 -0.0258  0.2125 -0.3005
44670SOL    HW145734   8.539   7.152   8.392  0.1417  0.8580 -1.9415
44670SOL    HW245735   8.523   7.302   8.376 -0.7840  1.1908  1.4607
44671SOL     OW45736   8.354   0.432   3.921  0.4807  0.1970  0.0478
44671SOL    HW145737   8.444   0.457   3.945  0.8399 -0.7909 -0.2395
44671SOL    HW245738   8.363   0.392   3.834 -0.1708 -0.3594  0.2359
44672SOL     OW45739   6.292   4.767  11.251 -0.2156 -0.4769  0.4422
44672SOL    HW145740   6.275   4.694  11.310  0.0258 -0.0514  1.0378
44672SOL    HW245741   6.387   4.780  11.256 -0.5433  1.6273  2.4433
44673SOL     OW45742   9.043  11.275   4.641  0.2800 -0.6642 -0.1458
44673SOL    HW145743   8.963  11.248   4.686 -0.1633 -0.1953 -0.6423
44673SOL    HW245744   9.014  11.298   4.553  0.8214  0.3780 -0.0563
44674SOL     OW45745  10.943   1.722  11.845  0.0829  0.4109  0.1175
44674SOL    HW145746  10.925   1.637  11.885 -0.6946  0.1421 -0.7705
44674SOL    HW245747  10.907   1.786  11.906 -1.5910 -0.0158 -0.3764
44675SOL     OW45748   7.560   1.102   6.735  0.5062 -0.3473  0.3329
44675SOL    HW145749   7.623   1.173   6.732  1.8651 -1.4819  0.8349
44675SOL    HW245750   7.575   1.054   6.654  0.1002 -0.4655  0.3282
44676SOL     OW45751   0.613   2.754   4.141 -0.0764  0.0465 -0.4770
44676SOL    HW145752   0.582   2.702   4.214 -0.4640  0.8339 -0.0733
44676SOL    HW245753   0.560   2.725   4.066  0.3313 -0.7663 -0.4653
44677SOL     OW45754   4.711   5.607  10.990 -0.1037 -0.0335  0.3289
44677SOL    HW145755   4.646   5.667  10.953 -1.0918 -0.4621  1.3244
44677SOL    HW245756   4.745   5.652  11.067 -1.3020 -0.9778  1.4408
44678SOL     OW45757   8.989   2.126   4.682 -0.1892  0.2754  0.2934
44678SOL    HW145758   8.949   2.116   4.769 -0.9292 -1.9976 -0.2168
44678SOL    HW245759   8.943   2.199   4.642 -2.4512 -0.9268  0.5368
44679SOL     OW45760   8.279   0.064   7.979  0.4010 -0.1783 -0.1044
44679SOL    HW145761   8.287   0.142   8.034  1.2832  0.6796 -1.3790
44679SOL    HW245762   8.370   0.040   7.959  0.1050 -0.5451 -1.0509
44680SOL     OW45763   9.690   1.584   0.088 -0.4269 -0.5247  0.0080
44680SOL    HW145764   9.719   1.538   0.010 -2.8133 -0.1770 -1.1664
44680SOL    HW245765   9.707   1.523   0.160  2.5431 -0.5393 -0.6081
44681SOL     OW45766   7.048   6.909   8.855 -0.4973 -0.6935 -0.1563
44681SOL    HW145767   7.080   6.953   8.776  2.2900  1.8908  2.1801
44681SOL    HW245768   7.118   6.848   8.879 -0.3205  0.0962  1.4194
44682SOL     OW45769  11.408   2.637   7.443  0.5568 -0.2659  0.6496
44682SOL    HW145770  11.395   2.558   7.390 -2.5110  0.4364  0.1451
44682SOL    HW245771  11.429   2.603   7.531 -1.0888 -1.7354  0.5501
44683SOL     OW45772   0.674   9.720   5.415 -0.0631  0.3848  0.3934
44683SOL    HW145773   0.641   9.632   5.397 -1.7669  0.9834  0.5058
44683SOL    HW245774   0.760   9.705   5.455  0.9679 -1.1634 -2.0770
44684SOL     OW45775   8.934  11.081   7.883  0.0750  0.1950 -0.4645
44684SOL    HW145776   8.911  11.114   7.970 -0.1414 -0.8935 -0.0965
44684SOL    HW245777   8.850  11.064   7.841  0.1825  0.3481 -0.7409
44685SOL     OW45778  11.689   1.136   9.490  0.9830  0.0347  0.0322
44685SOL    HW145779  11.672   1.129   9.584  1.1146  0.8109  0.1183
44685SOL    HW245780  11.762   1.075   9.475 -0.6608 -2.0033 -0.0363
44686SOL     OW45781   3.885   3.674   6.412 -0.3522  0.0423 -0.1429
44686SOL    HW145782   3.942   3.668   6.335 -0.5903  0.8784 -0.3948
44686SOL    HW245783   3.936   3.724   6.476  0.3641 -1.7640  0.7447
44687SOL     OW45784  11.726   4.073   6.254  0.7760  0.2560 -0.5784
44687SOL    HW145785  11.758   4.162   6.237  1.4663 -0.1698 -1.6058
44687SOL    HW245786  11.642   4.068   6.209  2.5133 -0.8136 -4.0292
44688SOL     OW45787   4.085   4.578   3.917 -0.2425 -0.6503  0.4110
44688SOL    HW145788   4.087   4.674   3.920  1.1814 -0.6123 -0.7233
44688SOL    HW245789   3.998   4.555   3.949 -0.0431  0.9311  2.3462
44689SOL     OW45790   4.524   5.049   4.379  0.2909 -0.2912 -0.0695
44689SOL    HW145791   4.487   5.134   4.356 -2.4217 -1.6136 -0.9657
44689SOL    HW245792   4.456   5.006   4.431  1.4426 -2.0740  0.0567
44690SOL     OW45793  10.315   2.463  10.372 -0.5206 -0.2544  0.1705
44690SOL    HW145794  10.393   2.516  10.355 -1.1661  0.8183  0.4569
44690SOL    HW245795  10.327   2.385  10.318  1.8375 -1.2136  1.8819
44691SOL     OW45796  11.077   4.194   2.728 -0.6937 -0.2816 -0.0190
44691SOL    HW145797  11.095   4.213   2.821  1.1966 -0.2600 -0.3481
44691SOL    HW245798  11.078   4.099   2.723  1.0080 -0.2794 -0.2937
44692SOL     OW45799  11.546   2.667   7.176 -0.2215 -0.3106  0.1725
44692SOL    HW145800  11.501   2.668   7.260 -2.1760  0.4972 -0.8128
44692SOL    HW245801  11.564   2.575   7.158 -2.0737 -0.7318  0.3421
44693SOL     OW45802   4.899   3.839   6.226  0.2968  0.1789  0.6124
44693SOL    HW145803   4.966   3.897   6.191 -0.7491  1.1509  0.1738
44693SOL    HW245804   4.940   3.799   6.302  1.2176  1.1180  0.6345
44694SOL     OW45805   1.365   6.490  10.467 -0.1966 -0.0751  0.1116
44694SOL    HW145806   1.269   6.489  10.467 -0.2099 -0.5867  1.4202
44694SOL    HW245807   1.389   6.424  10.402 -0.7668 -1.4164  1.2031
44695SOL     OW45808   2.852  11.957   9.517 -0.6794  0.2243  0.1118
44695SOL    HW145809   2.886  11.971   9.605  1.6392 -2.5431 -0.2011
44695SOL    HW245810   2.929  11.950   9.461 -1.9187 -1.4115 -1.5505
44696SOL     OW45811   9.355   1.037   3.731 -0.4684  0.0390 -0.4213
44696SOL    HW145812   9.334   0.962   3.786 -0.6558 -0.8305 -1.6441
44696SOL    HW245813   9.444   1.062   3.757 -0.4826 -0.4631  0.1308
44697SOL     OW45814   3.759  10.649   1.379  0.0977 -0.2813 -0.4770
44697SOL    HW145815   3.831  10.587   1.374 -0.8741 -1.3989 -1.2481
44697SOL    HW245816   3.758  10.678   1.470 -0.5977 -2.8946  0.4254
44698SOL     OW45817   4.540   2.107  11.327  0.2465  0.3813  0.0358
44698SOL    HW145818   4.628   2.110  11.364  0.5582  0.8412 -0.7210
44698SOL    HW245819   4.487   2.066  11.395  1.5693 -2.5028 -0.5280
44699SOL     OW45820   6.306   4.373   2.552 -0.4563 -0.3665  0.3330
44699SOL    HW145821   6.380   4.313   2.556  0.2112  0.5269  1.8203
44699SOL    HW245822   6.230   4.316   2.541  0.3425 -1.3522 -0.2040
44700SOL     OW45823   8.979   2.021  11.488 -0.2074 -0.3290  0.6179
44700SOL    HW145824   8.902   2.009  11.433 -0.2837 -0.6115  0.7862
44700SOL    HW245825   9.052   1.990  11.433 -0.0167  1.2906 -0.0991
44701SOL     OW45826  10.141   3.290   8.365 -0.2183  0.1069 -0.6401
44701SOL    HW145827  10.217   3.258   8.414 -1.0866 -0.3126  0.4690
44701SOL    HW245828  10.068   3.238   8.398 -0.5342 -1.9131 -4.0084
44702SOL     OW45829   9.767   8.628   1.895 -0.1087 -0.5958  0.0911
44702SOL    HW145830   9.745   8.537   1.917 -0.7988 -0.6439 -0.7105
44702SOL    HW245831   9.854   8.623   1.856  0.0882 -0.8318  0.5504
44703SOL     OW45832   0.123   3.414   2.487 -0.0581 -0.0146  0.5010
44703SOL    HW145833   0.126   3.380   2.398  1.5876  1.3572 -0.0075
44703SOL    HW245834   0.032   3.402   2.514 -0.4998 -0.7751 -1.2196
44704SOL     OW45835   3.317   1.215  11.653 -0.3034 -0.4735 -0.1947
44704SOL    HW145836   3.337   1.145  11.591  0.0580  0.5053 -1.2315
44704SOL    HW245837   3.355   1.293  11.613 -1.2231  0.4264  0.6295
44705SOL     OW45838   1.659   7.636   0.983 -0.4985  0.0538  0.0657
44705SOL    HW145839   1.587   7.680   0.936  0.2171  0.7490 -0.4012
44705SOL    HW245840   1.653   7.669   1.072  1.4464  3.0435 -0.7523
44706SOL     OW45841   2.840   4.944  11.255  0.4970  0.7817  0.1742
44706SOL    HW145842   2.882   4.861  11.279  0.9494  0.7166 -0.7914
44706SOL    HW245843   2.750   4.920  11.233  1.0960  0.2351 -1.8446
44707SOL     OW45844   3.915   1.029  10.027  0.3009  0.4766 -0.1473
44707SOL    HW145845   3.941   1.043  10.118 -1.0044  0.3417  0.2622
44707SOL    HW245846   3.836   0.975  10.032 -0.3750  1.2981 -1.3143
44708SOL     OW45847   1.426   1.788   8.148  0.2993  0.1469 -0.0952
44708SOL    HW145848   1.353   1.772   8.207 -0.1428  1.0958 -0.3690
44708SOL    HW245849   1.498   1.736   8.184 -0.1425  0.2016  0.9015
44709SOL     OW45850  10.404   2.806   1.550  0.2647 -0.3158  0.3778
44709SOL    HW145851  10.404   2.783   1.643 -0.8121 -0.1755  0.4258
44709SOL    HW245852  10.415   2.901   1.549 -0.1161 -0.2701  0.3824
44710SOL     OW45853  10.657   9.361   7.452 -0.2470 -0.3496  0.4233
44710SOL    HW145854  10.618   9.278   7.428  0.9433 -0.8083 -0.0047
44710SOL    HW245855  10.751   9.344   7.455 -0.0464  0.7550  1.2317
44711SOL     OW45856   3.748   7.656   0.055  0.0708 -0.0274 -0.7659
44711SOL    HW145857   3.668   7.707   0.037 -0.3742 -0.3855  0.1169
44711SOL    HW245858   3.737   7.627   0.145  1.0183 -0.4358 -0.7782
44712SOL     OW45859   5.434   7.592   3.658  0.3954 -0.0857  0.5486
44712SOL    HW145860   5.442   7.649   3.582  0.5398 -1.2611 -0.3516
44712SOL    HW245861   5.418   7.505   3.621 -0.3421 -0.5473  1.8886
44713SOL     OW45862   6.032   2.231   7.648  0.5009  0.2459  0.1522
44713SOL    HW145863   5.979   2.153   7.667  0.0486  0.7470  1.0720
44713SOL    HW245864   6.120   2.207   7.676  0.0440  0.6068  2.1082
44714SOL     OW45865   5.224   3.021  10.448 -0.1450  0.3648 -0.2415
44714SOL    HW145866   5.302   3.057  10.407 -0.0169  0.7431  0.3328
44714SOL    HW245867   5.197   3.087  10.512 -1.6963  0.8594 -1.3305
44715SOL     OW45868   4.271   0.488   5.187  0.5880  0.0082 -0.3346
44715SOL    HW145869   4.230   0.573   5.199  1.8539  0.4400  1.1157
44715SOL    HW245870   4.275   0.450   5.274 -1.0115 -2.0907 -1.0783
44716SOL     OW45871   4.825  11.634   1.066  0.4263 -0.1502 -0.4230
44716SOL    HW145872   4.762  11.587   1.119 -0.3508 -0.3105 -1.4641
44716SOL    HW245873   4.808  11.727   1.083 -0.4145 -0.1809 -1.0394
44717SOL     OW45874   7.275  10.321   9.319 -0.2021 -0.7500 -0.0623
44717SOL    HW145875   7.247  10.411   9.305  1.6911 -0.2072 -0.6407
44717SOL    HW245876   7.355  10.328   9.370  1.1560 -1.9354 -1.8839
44718SOL     OW45877   4.188  10.401   5.487  0.1438  0.7929  0.1987
44718SOL    HW145878   4.277  10.433   5.505 -0.0420  1.8285 -0.6246
44718SOL    HW245879   4.191  10.375   5.395 -0.6206  1.6141 -0.0651
44719SOL     OW45880   6.213   0.363   1.430  0.0571 -0.2678  0.3333
44719SOL    HW145881   6.121   0.342   1.445  0.0058  0.7076  1.5300
44719SOL    HW245882   6.257   0.338   1.511  0.2310  2.6185  1.2544
44720SOL     OW45883   5.511   3.080  11.232  0.6045  0.6467  0.0153
44720SOL    HW145884   5.509   2.987  11.255  0.1541  1.1913  2.5129
44720SOL    HW245885   5.562   3.084  11.151 -0.1936 -1.8560 -0.7064
44721SOL     OW45886   5.098  11.931   3.623 -0.3031 -0.1404 -0.0167
44721SOL    HW145887   5.087  11.873   3.699  2.8378  0.7813  1.2742
44721SOL    HW245888   5.102  12.019   3.660  1.9909  0.2778 -1.0915
44722SOL     OW45889   4.403   3.437   6.199 -0.2371 -0.3057  0.2091
44722SOL    HW145890   4.363   3.391   6.126 -0.9547 -0.0101  0.4116
44722SOL    HW245891   4.401   3.373   6.271 -0.0854 -0.3888  0.1391
44723SOL     OW45892   5.048   1.144   5.405 -0.4882  0.7187 -0.5137
44723SOL    HW145893   4.981   1.141   5.473  0.5588  2.5250  0.6886
44723SOL    HW245894   5.029   1.224   5.356  1.7380  2.2984  0.9971
44724SOL     OW45895  10.588   2.272   3.276 -0.6287 -0.5802  0.4914
44724SOL    HW145896  10.544   2.188   3.290 -0.1502 -1.0825 -0.8278
44724SOL    HW245897  10.680   2.254   3.293 -0.2924 -0.7620 -1.3565
44725SOL     OW45898   1.550   9.434   4.871  0.1570 -0.5548  0.1680
44725SOL    HW145899   1.544   9.473   4.958  0.3259  0.8395 -0.4170
44725SOL    HW245900   1.514   9.346   4.881 -1.3947  0.1700  1.2860
44726SOL     OW45901   3.728   4.020   7.816  0.4043 -0.3059 -0.1548
44726SOL    HW145902   3.812   4.000   7.774  1.6208  1.3779  1.3251
44726SOL    HW245903   3.743   4.103   7.863 -2.3573  0.5269 -0.5535
44727SOL     OW45904  10.652   9.423  10.670  0.5342 -0.1903 -0.2714
44727SOL    HW145905  10.650   9.331  10.697 -1.3623 -0.0236  0.3063
44727SOL    HW245906  10.598   9.426  10.591  1.6701  0.2311 -1.0542
44728SOL     OW45907   0.765   5.639   9.764 -0.0566 -0.1103  0.3179
44728SOL    HW145908   0.782   5.734   9.761 -1.0917  0.0619 -1.3915
44728SOL    HW245909   0.711   5.627   9.842  1.8851  0.3406  1.8273
44729SOL     OW45910   3.456   0.888   9.328 -0.7525  0.0494 -0.3052
44729SOL    HW145911   3.504   0.827   9.272  1.6078  1.1390  0.3851
44729SOL    HW245912   3.370   0.848   9.339  0.0148 -2.1068 -1.5064
44730SOL     OW45913   8.821   9.062  11.831  0.3323 -0.2362  0.1515
44730SOL    HW145914   8.883   8.991  11.815  1.8946  1.2150 -0.4899
44730SOL    HW245915   8.852   9.103  11.911  1.4226  1.7082 -1.2042
44731SOL     OW45916   9.257   3.730   5.622  0.1261 -0.3457 -0.0618
44731SOL    HW145917   9.352   3.730   5.637  0.4586 -0.8771 -1.9365
44731SOL    HW245918   9.229   3.819   5.645  1.0517 -0.2019  0.5730
44732SOL     OW45919   5.814   7.479   9.471  0.0281  0.0310  0.3276
44732SOL    HW145920   5.835   7.386   9.468  2.0974  0.4743 -0.2846
44732SOL    HW245921   5.883   7.518   9.525 -0.6419  1.2648  0.3330
44733SOL     OW45922   3.926   3.790   1.267 -0.0064 -0.0604 -0.0458
44733SOL    HW145923   3.966   3.876   1.256  0.3895  0.0418  1.7577
44733SOL    HW245924   3.859   3.803   1.334 -0.0680 -1.1025  0.1129
44734SOL     OW45925   9.639   3.072   2.733  0.1742 -0.1619 -0.6738
44734SOL    HW145926   9.724   3.114   2.745  0.0223  0.8142 -2.5457
44734SOL    HW245927   9.650   3.017   2.656 -0.9504  0.2139 -1.1262
44735SOL     OW45928   5.960   7.624   9.674  0.3983 -0.4542  0.3551
44735SOL    HW145929   6.054   7.636   9.677  0.5804 -1.8466  1.6303
44735SOL    HW245930   5.926   7.674   9.748  0.0149  0.7067 -0.5695
44736SOL     OW45931   9.559   4.003   3.183  0.5028  0.3952 -0.1170
44736SOL    HW145932   9.623   3.964   3.123 -1.2196 -2.5400 -0.2739
44736SOL    HW245933   9.509   4.063   3.128  1.7494  1.1252 -0.4932
44737SOL     OW45934   8.043   7.107   2.350 -0.3198 -0.1925 -0.1041
44737SOL    HW145935   7.982   7.085   2.280 -2.0597 -1.3520  1.6697
44737SOL    HW245936   8.118   7.049   2.335  0.3770  1.1180 -2.2032
44738SOL     OW45937   8.511  11.890   4.673  0.0844 -0.5276  0.1196
44738SOL    HW145938   8.602  11.916   4.689 -0.4091  1.1844  0.3002
44738SOL    HW245939   8.464  11.972   4.660 -1.1107 -1.4454 -1.9059
44739SOL     OW45940   0.123   0.779   3.068 -0.2087 -0.3669  0.3286
44739SOL    HW145941   0.198   0.780   3.010  1.2327 -1.2513  2.0909
44739SOL    HW245942   0.054   0.824   3.019  1.6616  1.1279 -1.0544
44740SOL     OW45943   3.036  11.155  11.825  0.2619 -0.1517  0.2547
44740SOL    HW145944   3.036  11.236  11.877  0.2305 -0.7276  1.1708
44740SOL    HW245945   3.013  11.184  11.736 -0.8738  0.7022  0.7978
44741SOL     OW45946   2.833  10.989   7.236  0.0382 -0.0208 -0.6964
44741SOL    HW145947   2.845  10.987   7.141  1.0050 -1.0136 -0.5795
44741SOL    HW245948   2.861  11.077   7.262  1.4249 -0.2839 -1.1716
44742SOL     OW45949   4.915   2.444   8.177 -0.3077  0.2653  0.9563
44742SOL    HW145950   4.915   2.442   8.272 -1.2291 -0.6055  0.9590
44742SOL    HW245951   4.884   2.357   8.151 -1.4435  0.9420 -0.0911
44743SOL     OW45952  11.871   3.241  11.928  0.0333 -0.1092 -0.2914
44743SOL    HW145953  11.963   3.265  11.942 -0.1482 -0.0477  0.8351
44743SOL    HW245954  11.855   3.169  11.988 -0.9427  0.5685  0.2832
44744SOL     OW45955   2.470  11.609   9.631 -0.0719 -0.5119  0.4432
44744SOL    HW145956   2.559  11.645   9.634  0.2730 -1.3176  0.1726
44744SOL    HW245957   2.416  11.676   9.672  0.2871  1.0771 -1.4771
44745SOL     OW45958   1.074   8.511   8.879 -0.2062  0.1312  0.1469
44745SOL    HW145959   1.036   8.578   8.936 -0.2863 -0.1609  0.4436
44745SOL    HW245960   1.144   8.555   8.832 -0.0248  0.3318  0.6028
44746SOL     OW45961   0.669   6.022   7.602  0.4905 -0.1056  0.2482
44746SOL    HW145962   0.659   6.114   7.624  1.4856 -0.3076  1.7403
44746SOL    HW245963   0.588   5.981   7.633 -0.2448  0.3397 -1.0317
44747SOL     OW45964   1.755   0.098   8.357  0.3011  0.1383  0.8843
44747SOL    HW145965   1.716   0.154   8.290  0.0652  0.9012  1.6431
44747SOL    HW245966   1.821   0.047   8.310  0.7497  1.2816  0.2304
44748SOL     OW45967   4.656  11.288   4.921 -0.0321  0.1484  0.0736
44748SOL    HW145968   4.577  11.293   4.975 -0.5005  0.6863 -0.6281
44748SOL    HW245969   4.638  11.348   4.848  0.1110 -1.3584 -1.2573
44749SOL     OW45970   6.654   4.269   6.971 -0.1157 -0.4012  0.3418
44749SOL    HW145971   6.562   4.286   6.953 -0.1484 -2.5515 -2.0076
44749SOL    HW245972   6.700   4.305   6.896  0.9242 -0.0706  1.1070
44750SOL     OW45973   3.045   1.088   3.719 -0.1722  0.8455  0.4671
44750SOL    HW145974   2.970   1.036   3.689  0.6472  0.0220 -0.2241
44750SOL    HW245975   3.102   1.094   3.642  0.6554  1.1370  1.0880
44751SOL     OW45976   7.602   0.659   7.661  0.2147  0.3928  0.5067
44751SOL    HW145977   7.542   0.589   7.687  0.0460  0.6234  0.7274
44751SOL    HW245978   7.577   0.678   7.570  1.3099 -0.9473 -0.1236
44752SOL     OW45979  11.945   9.782   5.410 -0.4178  0.9527  0.1309
44752SOL    HW145980  11.975   9.865   5.448  1.5001  0.1275  0.5703
44752SOL    HW245981  11.858   9.769   5.445 -0.8737  2.9047 -0.1623
44753SOL     OW45982   3.327   7.803   1.938  0.4939  0.4133 -0.0807
44753SOL    HW145983   3.365   7.837   1.857 -0.2293  0.6569 -0.3292
44753SOL    HW245984   3.284   7.722   1.913 -1.7381  1.6254 -0.4677
44754SOL     OW45985   1.689   8.402   6.329 -0.4875 -0.1513 -0.2696
44754SOL    HW145986   1.783   8.387   6.343 -0.6135 -0.6280  0.0976
44754SOL    HW245987   1.680   8.414   6.235  0.1545  1.4125 -0.1595
44755SOL     OW45988   0.728   5.399   8.408  0.5113 -0.3870 -0.5921
44755SOL    HW145989   0.656   5.392   8.471  0.3067 -1.9912 -0.9623
44755SOL    HW245990   0.698   5.349   8.332  1.6645 -0.3507 -1.0913
44756SOL     OW45991   7.255   9.890   4.040  0.1497  0.0251 -0.1994
44756SOL    HW145992   7.171   9.897   4.084  0.3281  1.0032 -0.0030
44756SOL    HW245993   7.281   9.980   4.022  0.9087 -0.2881 -0.7309
44757SOL     OW45994   8.936   4.680   3.742  0.0229 -0.1792 -0.5932
44757SOL    HW145995   8.870   4.749   3.741 -0.5678 -0.6344  1.7500
44757SOL    HW245996   8.996   4.705   3.812  0.6799 -1.2861 -0.7370
44758SOL     OW45997   1.571   3.890   0.522 -0.1672  0.3162  0.0370
44758SOL    HW145998   1.581   3.856   0.433  0.1724 -0.3834  0.3331
44758SOL    HW245999   1.490   3.941   0.519  1.1174  2.4143 -1.2941
44759SOL     OW46000   9.665   2.336   0.661  0.3419 -0.0302 -0.3985
44759SOL    HW146001   9.718   2.416   0.653  1.0235 -0.4297  0.0297
44759SOL    HW246002   9.618   2.348   0.744  1.5362 -0.6933  0.4013
44760SOL     OW46003   6.322   1.900   7.808  0.5654 -0.3921 -0.1951
44760SOL    HW146004   6.348   1.858   7.890 -0.6261 -2.0889 -0.6374
44760SOL    HW246005   6.376   1.858   7.741  0.3591 -0.1986 -0.4879
44761SOL     OW46006   5.227   4.674   0.689  0.6360 -0.5230 -0.5857
44761SOL    HW146007   5.181   4.751   0.656  0.1262 -1.0564 -1.1409
44761SOL    HW246008   5.281   4.707   0.761 -0.5952  0.1246  0.0618
44762SOL     OW46009   6.513  11.650   6.250  0.2980 -0.0685 -0.3488
44762SOL    HW146010   6.497  11.663   6.157 -0.8687 -0.5395 -0.2334
44762SOL    HW246011   6.439  11.694   6.293  0.0816 -1.0407  0.2966
44763SOL     OW46012   5.644   1.618   9.558 -0.0966  0.0097  0.0913
44763SOL    HW146013   5.607   1.601   9.471  0.7498  1.8519 -0.6773
44763SOL    HW246014   5.703   1.545   9.574  0.0947 -0.1171 -1.1023
44764SOL     OW46015   3.195   0.753   1.259 -0.3077 -0.6266  0.5218
44764SOL    HW146016   3.216   0.766   1.167 -0.8448 -0.1651  0.4594
44764SOL    HW246017   3.198   0.658   1.271  0.2318 -0.6626  0.1463
44765SOL     OW46018   9.268   2.065   3.336  0.1357 -0.2303 -0.3998
44765SOL    HW146019   9.202   2.123   3.297  0.1041 -0.4993 -0.7545
44765SOL    HW246020   9.217   1.995   3.376  0.1812 -0.1092 -0.1302
44766SOL     OW46021  10.227   5.176   8.375 -0.0832 -0.1376 -0.4287
44766SOL    HW146022  10.182   5.260   8.375  1.2452  0.5946 -0.2509
44766SOL    HW246023  10.202   5.136   8.291  1.2362  1.5385 -1.6656
44767SOL     OW46024   6.243   5.318   6.087 -0.2679 -0.3313  0.5939
44767SOL    HW146025   6.314   5.310   6.023  0.5106  2.9318  0.8956
44767SOL    HW246026   6.200   5.400   6.064 -1.3903 -0.2220  2.8984
44768SOL     OW46027   7.676   5.347   9.039 -0.0890 -0.0047 -0.1406
44768SOL    HW146028   7.588   5.313   9.054  0.4167 -1.4816 -0.3190
44768SOL    HW246029   7.731   5.297   9.099  0.5358  1.4695  0.5539
44769SOL     OW46030  11.338   0.417  10.542  0.2576 -0.2179 -0.3881
44769SOL    HW146031  11.386   0.489  10.502  0.3358  0.4114  0.7984
44769SOL    HW246032  11.399   0.381  10.607 -0.4355 -0.1714  0.3020
44770SOL     OW46033  10.339   1.284   5.800  0.1550 -0.3472  0.7855
44770SOL    HW146034  10.281   1.358   5.818  2.0286  1.2657  0.5788
44770SOL    HW246035  10.319   1.220   5.868 -1.3756  0.4136  1.1005
44771SOL     OW46036   5.245   9.363  10.286  0.4656  0.1797  0.0260
44771SOL    HW146037   5.302   9.299  10.327  0.8041  0.7767  0.5135
44771SOL    HW246038   5.283   9.448  10.309 -0.2714  0.5747 -0.1573
44772SOL     OW46039   6.123   9.259   3.969 -0.2596 -0.1844 -0.4764
44772SOL    HW146040   6.080   9.263   4.055  0.9063 -1.1897  0.1874
44772SOL    HW246041   6.101   9.342   3.928 -0.2499  0.6399  1.1003
44773SOL     OW46042   6.457   7.301  11.761 -0.8783 -0.2185 -0.0712
44773SOL    HW146043   6.422   7.213  11.746  0.7748 -1.0821  0.7955
44773SOL    HW246044   6.436   7.349  11.680  0.4710 -2.2122 -1.7298
44774SOL     OW46045   7.279   9.534   7.865 -0.0861 -0.2515  0.0181
44774SOL    HW146046   7.332   9.608   7.896 -1.0764 -0.4290  2.3244
44774SOL    HW246047   7.212   9.575   7.809  0.6635  0.3128 -0.4912
44775SOL     OW46048   4.364   6.551   5.106 -0.3342  0.2719 -0.2352
44775SOL    HW146049   4.334   6.464   5.078 -1.0430  0.5352 -0.3086
44775SOL    HW246050   4.285   6.605   5.106 -0.1923  0.5271  1.3290
44776SOL     OW46051  11.886   5.326   5.535  0.6250  0.0416 -0.5229
44776SOL    HW146052  11.911   5.382   5.462  0.5161  1.7100  0.6492
44776SOL    HW246053  11.957   5.336   5.599  0.3943 -0.8339 -0.1109
44777SOL     OW46054   4.488   4.549   7.362 -0.6968 -0.0998  0.0415
44777SOL    HW146055   4.402   4.508   7.357 -0.3403 -0.8929  0.1669
44777SOL    HW246056   4.489   4.613   7.291 -1.4349  0.0185  0.1308
44778SOL     OW46057   1.721  10.283   6.184 -0.3413 -0.0540  0.2020
44778SOL    HW146058   1.654  10.346   6.209 -0.1639  0.5267 -0.7187
44778SOL    HW246059   1.714  10.278   6.088 -0.4477 -1.5438  0.2653
44779SOL     OW46060   6.643   7.287  10.241 -0.2768 -0.1846  0.2406
44779SOL    HW146061   6.606   7.222  10.301 -0.1926 -1.9024 -1.4667
44779SOL    HW246062   6.600   7.269  10.157  0.8834  0.9758 -0.6392
44780SOL     OW46063   3.274   9.655   0.982  0.5429 -0.1622  0.5909
44780SOL    HW146064   3.253   9.585   1.044 -1.2875 -1.1538 -1.0281
44780SOL    HW246065   3.192   9.704   0.974 -0.2850 -1.8355 -3.1450
44781SOL     OW46066   3.358  10.819   8.834 -0.0226 -0.4207 -0.4271
44781SOL    HW146067   3.439  10.817   8.783 -1.2807 -0.8052 -2.5123
44781SOL    HW246068   3.341  10.912   8.847 -0.9576 -0.1598 -2.9587
44782SOL     OW46069   2.204   8.682   4.053 -0.6046  0.5757 -0.1427
44782SOL    HW146070   2.233   8.604   4.100  0.6619  1.5977  0.8448
44782SOL    HW246071   2.271   8.697   3.987  0.6174  2.2772  1.3838
44783SOL     OW46072  11.409   4.514   0.772  0.0012 -0.3640 -0.1926
44783SOL    HW146073  11.315   4.493   0.770  0.0150 -0.4451 -0.0333
44783SOL    HW246074  11.443   4.481   0.689  0.0964 -1.3052  0.2127
44784SOL     OW46075   5.360   9.042   2.248  0.2921 -0.2816  0.0070
44784SOL    HW146076   5.372   8.949   2.227 -2.0437 -0.7182  0.3928
44784SOL    HW246077   5.289   9.071   2.191 -0.6167  0.6356  1.5513
44785SOL     OW46078   8.070  10.142   9.163  0.3846  0.3994  0.3014
44785SOL    HW146079   8.163  10.142   9.141  0.3064 -1.8955 -0.3027
44785SOL    HW246080   8.026  10.117   9.081 -0.7046  0.7701  0.7531
44786SOL     OW46081   7.101   6.141   0.054 -0.0414 -0.0007  0.2942
44786SOL    HW146082   7.122   6.105  -0.032 -1.4796 -1.1399  0.3713
44786SOL    HW246083   7.176   6.196   0.077  0.8011 -0.4643 -1.2438
44787SOL     OW46084   0.593  10.632  10.220  0.1365  0.7251  0.3270
44787SOL    HW146085   0.576  10.637  10.126 -0.8008  1.7155  0.5178
44787SOL    HW246086   0.637  10.548  10.233  1.0857  0.9689 -1.1037
44788SOL     OW46087   7.965  11.407  11.195  0.0325  0.2104 -0.2020
44788SOL    HW146088   8.047  11.395  11.147  0.6047  0.8928  0.5720
44788SOL    HW246089   7.993  11.428  11.284 -0.9219  2.5074 -0.3880
44789SOL     OW46090   8.992   4.618   8.825  0.0518 -0.1413 -0.5450
44789SOL    HW146091   8.963   4.707   8.845 -2.6804 -1.0608  0.0440
44789SOL    HW246092   8.968   4.567   8.902 -0.6558 -1.7854 -1.7781
44790SOL     OW46093   0.910   0.790   5.296 -0.2625 -0.4239 -0.0396
44790SOL    HW146094   0.941   0.814   5.383 -0.5782 -2.1466  0.5895
44790SOL    HW246095   0.832   0.737   5.312 -1.4642  0.8171 -1.4598
44791SOL     OW46096   4.965   6.181   2.801  0.4139 -0.2515 -0.1443
44791SOL    HW146097   4.984   6.108   2.860  0.8943  0.6284  0.8239
44791SOL    HW246098   4.871   6.175   2.785  0.4732 -1.1500 -0.1724
44792SOL     OW46099   5.014   0.249  11.462 -0.5219  0.2826 -0.5342
44792SOL    HW146100   5.014   0.320  11.398 -0.4915 -0.8276 -1.8138
44792SOL    HW246101   4.923   0.221  11.468 -0.5811  0.6022  0.1844
44793SOL     OW46102   4.653   4.371   2.639 -0.1022 -0.3004  0.4609
44793SOL    HW146103   4.623   4.294   2.686  0.2003 -2.0294 -1.9847
44793SOL    HW246104   4.578   4.397   2.586  0.4976 -0.3483 -0.4338
44794SOL     OW46105  10.142   2.979   6.640 -0.1946 -0.1020 -0.5420
44794SOL    HW146106  10.216   2.962   6.699 -0.0797 -1.0469 -0.9361
44794SOL    HW246107  10.178   3.035   6.572  0.0888 -0.3037 -0.5622
44795SOL     OW46108   6.330   4.411   2.269 -0.2034  0.7135 -0.4691
44795SOL    HW146109   6.344   4.440   2.359 -0.7793  0.5527 -0.3211
44795SOL    HW246110   6.418   4.401   2.233  0.0430  0.3366  0.2177
44796SOL     OW46111   7.911   2.543   9.391 -0.4459 -0.2425 -0.3012
44796SOL    HW146112   7.969   2.589   9.331 -1.4911 -0.9734 -1.9474
44796SOL    HW246113   7.872   2.473   9.338  0.1558 -2.2848  1.7625
44797SOL     OW46114   9.601   0.934   5.442 -0.2639 -0.1437 -0.3739
44797SOL    HW146115   9.604   0.868   5.512  0.0616 -1.3237 -1.4438
44797SOL    HW246116   9.548   0.893   5.373 -1.7858  1.5725 -0.2833
44798SOL     OW46117   1.476   4.960   7.208  0.4248  0.0976  0.1946
44798SOL    HW146118   1.544   4.966   7.141  1.0230  0.5594  0.8298
44798SOL    HW246119   1.507   4.891   7.267  0.4043  0.3954  0.5541
44799SOL     OW46120   9.196  10.891   6.731 -0.1933  0.3436 -0.2291
44799SOL    HW146121   9.108  10.867   6.763 -0.5743  0.5010 -1.1311
44799SOL    HW246122   9.180  10.961   6.668  0.4954 -0.2863 -1.1158
44800SOL     OW46123   5.675   8.983   6.529 -0.3727  0.0152  0.2581
44800SOL    HW146124   5.700   8.897   6.561 -1.9460 -0.8125 -0.6292
44800SOL    HW246125   5.721   9.044   6.586  1.6377 -1.3800  0.2458
44801SOL     OW46126   4.868   0.859   1.777  0.1233 -0.4107 -0.5230
44801SOL    HW146127   4.805   0.838   1.708  0.4033 -0.1232 -0.8693
44801SOL    HW246128   4.841   0.805   1.851  0.4552 -1.5223 -1.1857
44802SOL     OW46129   8.188   3.872   5.137  0.2509  0.4137 -0.6296
44802SOL    HW146130   8.232   3.835   5.061 -0.7764  0.6003 -1.3325
44802SOL    HW246131   8.098   3.887   5.108  0.4915  3.0858 -0.2854
44803SOL     OW46132  10.978   1.321   7.643 -0.1413 -0.3223 -0.7979
44803SOL    HW146133  10.905   1.376   7.671  0.4550  0.2937 -0.4550
44803SOL    HW246134  10.977   1.247   7.705 -0.2122 -0.1045 -0.5391
44804SOL     OW46135  10.922   1.050   5.855 -0.5338 -0.4660  0.2348
44804SOL    HW146136  11.011   1.032   5.824 -0.7135  0.1729 -0.7049
44804SOL    HW246137  10.868   0.982   5.815 -1.1985  1.8440 -3.2380
44805SOL     OW46138  10.936   3.101   6.276  0.5263  0.1918  0.4539
44805SOL    HW146139  10.892   3.160   6.215  1.3827 -0.4548 -0.8204
44805SOL    HW246140  10.865   3.060   6.325 -0.1629  0.9344  0.0964
44806SOL     OW46141   1.175   3.224   1.129 -0.1815  0.3212 -0.1970
44806SOL    HW146142   1.087   3.240   1.095 -1.8934 -0.0209  3.6227
44806SOL    HW246143   1.199   3.305   1.175  0.6279 -0.2927  0.4966
44807SOL     OW46144  11.850   5.515   1.080  0.3055  0.0476 -0.7539
44807SOL    HW146145  11.838   5.461   1.159 -0.0078  1.0940 -0.0555
44807SOL    HW246146  11.944   5.527   1.073  0.3331 -0.0069 -0.5007
44808SOL     OW46147   3.613   9.097   5.483  0.1853 -0.0065  0.2466
44808SOL    HW146148   3.628   9.122   5.574 -2.2703 -0.7542  0.9490
44808SOL    HW246149   3.658   9.013   5.473 -0.1693 -0.3048  1.0452
44809SOL     OW46150   3.580   4.608   5.719 -0.0576 -0.4304 -0.2727
44809SOL    HW146151   3.507   4.669   5.733  1.1656  0.7222  1.6500
44809SOL    HW246152   3.542   4.522   5.735 -1.3389 -0.0036 -0.8620
44810SOL     OW46153   3.547   6.136   6.874 -0.3624 -0.4071 -0.0679
44810SOL    HW146154   3.617   6.073   6.888 -0.0374 -0.5826 -2.1790
44810SOL    HW246155   3.485   6.119   6.945  0.3399 -2.1931  0.1691
44811SOL     OW46156   4.110   6.974   9.871  0.6904 -0.5526  0.5407
44811SOL    HW146157   4.120   7.013   9.958  0.3114 -0.9890  0.7772
44811SOL    HW246158   4.132   7.046   9.811 -1.4321  0.5185  0.9281
44812SOL     OW46159   8.771   8.573   6.883 -0.1666  0.1592 -0.1123
44812SOL    HW146160   8.754   8.515   6.958 -0.4760  0.0747 -0.2448
44812SOL    HW246161   8.738   8.658   6.912  0.9816  0.4474  0.3677
44813SOL     OW46162   6.603   6.159   9.363  0.3820 -0.3902 -0.0672
44813SOL    HW146163   6.683   6.197   9.401  0.5890 -0.6067 -0.2897
44813SOL    HW246164   6.556   6.123   9.439 -0.0955  0.7980  0.2325
44814SOL     OW46165  10.305   2.766   2.323  0.4416  0.4479  0.6574
44814SOL    HW146166  10.282   2.674   2.311 -1.5017  0.9887 -0.0036
44814SOL    HW246167  10.400   2.768   2.310  0.4432 -1.3526  0.0775
44815SOL     OW46168   8.003   0.267   4.272  0.1029  0.0728 -0.1875
44815SOL    HW146169   8.072   0.277   4.206  0.7468  0.9414  0.5713
44815SOL    HW246170   7.930   0.229   4.225  0.3131  1.2779 -1.5738
44816SOL     OW46171   4.619  11.198  10.449 -0.4480  0.5125 -0.7130
44816SOL    HW146172   4.595  11.118  10.401 -1.0831  0.4779 -0.3391
44816SOL    HW246173   4.714  11.191  10.460 -0.5859 -0.5623 -0.0392
44817SOL     OW46174   2.973   3.348   9.769 -0.0685 -0.3267  0.3300
44817SOL    HW146175   3.006   3.262   9.797 -0.7453 -0.4983  0.6276
44817SOL    HW246176   2.897   3.328   9.714 -0.7954  0.0901  1.1546
44818SOL     OW46177   3.099  10.061   9.749  0.2791  0.2827  0.1127
44818SOL    HW146178   3.076  10.113   9.826  0.7122 -1.5316  1.5357
44818SOL    HW246179   3.016  10.043   9.706 -0.1803 -0.0460  1.0950
44819SOL     OW46180   5.001   9.014   5.845  0.0338 -0.4084  0.0252
44819SOL    HW146181   5.064   9.040   5.778 -0.6963 -0.4354 -0.6781
44819SOL    HW246182   5.021   9.070   5.920  0.7731 -0.2913 -0.2504
44820SOL     OW46183   7.234   3.929   7.249 -0.9174  0.0780  0.4504
44820SOL    HW146184   7.241   3.947   7.155 -0.8145  0.1122  0.4648
44820SOL    HW246185   7.320   3.951   7.284 -0.0157 -2.5750  0.1242
44821SOL     OW46186   1.013   4.454  10.950 -0.0788 -0.2524  0.4006
44821SOL    HW146187   0.994   4.400  10.872  1.3049  0.0602 -0.1792
44821SOL    HW246188   1.102   4.429  10.975  0.1804  0.9961  0.7726
44822SOL     OW46189   9.899   9.423   0.594 -0.0137  0.1725  0.7196
44822SOL    HW146190   9.971   9.481   0.617  0.2493  0.3726 -0.5407
44822SOL    HW246191   9.820   9.478   0.602  0.0995  0.3134  0.8715
44823SOL     OW46192  10.682   5.166  11.243 -0.3860 -0.1070  0.3752
44823SOL    HW146193  10.649   5.187  11.331  0.4715 -1.3347  1.0227
44823SOL    HW246194  10.764   5.215  11.236 -0.0683 -0.5991  0.5761
44824SOL     OW46195   2.494   6.717   6.081  0.0093 -0.0865 -1.0739
44824SOL    HW146196   2.485   6.631   6.124  2.6256 -1.2514 -2.5893
44824SOL    HW246197   2.419   6.723   6.023  0.0565 -1.6218 -1.3333
44825SOL     OW46198   7.748   2.789   6.239 -0.0127 -0.6491  0.6421
44825SOL    HW146199   7.733   2.882   6.256  1.2575 -0.2432 -0.2643
44825SOL    HW246200   7.682   2.766   6.173  0.0640 -0.2233  0.4124
44826SOL     OW46201   3.789   2.863  10.675  0.4029 -0.1457  0.4388
44826SOL    HW146202   3.718   2.800  10.658 -1.7101  2.1050  0.4622
44826SOL    HW246203   3.802   2.858  10.770 -0.5078  0.1673  0.5936
44827SOL     OW46204   8.230   1.665   0.122  0.4077 -0.6111  0.0527
44827SOL    HW146205   8.289   1.738   0.103  1.3392 -1.1777  0.7183
44827SOL    HW246206   8.287   1.591   0.138 -0.5091 -1.3118  0.1709
44828SOL     OW46207  11.126   0.176   5.333  0.0285 -0.2223  0.1162
44828SOL    HW146208  11.054   0.226   5.294  0.3816  0.2395  0.0440
44828SOL    HW246209  11.203   0.231   5.321 -0.0447  0.5753  2.6274
44829SOL     OW46210   3.783  11.194   6.788 -0.1546 -0.5216  0.1595
44829SOL    HW146211   3.807  11.102   6.794  0.8274 -0.3107 -0.2924
44829SOL    HW246212   3.863  11.238   6.759 -1.0603  0.2459 -1.2699
44830SOL     OW46213   6.971   0.023   7.937  0.4452 -0.0862  0.4752
44830SOL    HW146214   6.946   0.032   8.029  2.6499 -1.5457  1.2922
44830SOL    HW246215   7.016  -0.061   7.932  0.8557  0.2089 -1.8373
44831SOL     OW46216   0.882   2.612   2.395 -0.3553  0.0823 -0.4223
44831SOL    HW146217   0.911   2.604   2.304 -1.1470  0.5476 -0.7286
44831SOL    HW246218   0.788   2.594   2.392 -0.4487  0.4245  0.2508
44832SOL     OW46219   3.774  11.947   6.187 -0.6478  0.2455 -0.8705
44832SOL    HW146220   3.780  12.038   6.213 -2.0689  0.7700 -2.2133
44832SOL    HW246221   3.810  11.945   6.098 -1.9237 -0.1982 -1.4023
44833SOL     OW46222   2.795   0.055   4.344 -0.1552 -0.4638 -0.6072
44833SOL    HW146223   2.769   0.104   4.267  1.1543  1.2792 -0.0152
44833SOL    HW246224   2.714   0.022   4.381 -1.0720  1.0568 -1.1897
44834SOL     OW46225   3.079   1.802   7.884  0.1233  0.3105  0.1808
44834SOL    HW146226   3.111   1.857   7.813 -0.9462 -2.5798 -2.8047
44834SOL    HW246227   3.013   1.746   7.843 -0.2537 -1.8525  3.3808
44835SOL     OW46228   9.790   4.846   9.725 -0.0423 -0.1566 -0.3107
44835SOL    HW146229   9.878   4.856   9.763  1.4350  0.5250 -3.5308
44835SOL    HW246230   9.783   4.753   9.705  0.0643 -0.1620 -0.3232
44836SOL     OW46231   1.981  10.599   9.060 -0.2867 -0.4966 -0.4763
44836SOL    HW146232   1.930  10.567   8.986 -0.7552 -1.2708  0.1729
44836SOL    HW246233   1.918  10.645   9.116 -0.4864 -2.1561  0.7393
44837SOL     OW46234   7.345   4.419   2.549  0.3574  0.1999 -1.0450
44837SOL    HW146235   7.335   4.325   2.563 -2.3738  0.7919  2.2703
44837SOL    HW246236   7.410   4.446   2.613  0.4710  0.6802 -1.3609
44838SOL     OW46237   3.354   6.285   8.031 -0.1494  0.0451 -0.4419
44838SOL    HW146238   3.357   6.234   7.951 -1.4949  0.0590 -0.5188
44838SOL    HW246239   3.262   6.286   8.056  0.1045  0.8986  0.5490
44839SOL     OW46240   4.116   9.520   2.460 -0.0593  0.3796  0.3850
44839SOL    HW146241   4.176   9.592   2.481 -0.7029  0.8456  0.6296
44839SOL    HW246242   4.029   9.560   2.459 -0.3384 -0.2306 -0.2829
44840SOL     OW46243   5.866   7.337   4.236 -0.0895  0.2576  0.4917
44840SOL    HW146244   5.822   7.306   4.156 -1.6502 -1.1311  1.8166
44840SOL    HW246245   5.957   7.310   4.225 -0.6349 -1.4386 -0.0870
44841SOL     OW46246  11.131  11.017   9.347 -0.0609  0.0426  0.1549
44841SOL    HW146247  11.215  11.040   9.387  0.5553 -2.5048  0.4861
44841SOL    HW246248  11.154  10.954   9.279 -1.7264 -0.9399  0.4617
44842SOL     OW46249   2.145   7.596   3.266 -0.3398  0.6419  0.8210
44842SOL    HW146250   2.180   7.594   3.355  1.0350  0.3814  0.2970
44842SOL    HW246251   2.190   7.524   3.221 -0.3904  1.2951 -0.3128
44843SOL     OW46252   2.100   5.184   9.412 -0.2603  0.1839 -0.3649
44843SOL    HW146253   2.179   5.185   9.466  0.3321  0.9733 -1.2062
44843SOL    HW246254   2.072   5.276   9.409 -1.2192 -0.0824 -0.0847
44844SOL     OW46255  11.664   7.531   6.820  0.4556 -0.0134  0.3823
44844SOL    HW146256  11.652   7.585   6.898 -0.8885 -1.2250  1.0597
44844SOL    HW246257  11.648   7.591   6.747 -2.5760  0.2521  1.1296
44845SOL     OW46258   3.808  11.212   2.216  0.3928 -0.2474 -0.4222
44845SOL    HW146259   3.894  11.174   2.200 -0.2042 -1.3965 -1.0240
44845SOL    HW246260   3.758  11.193   2.136 -0.7818 -0.6928  0.3849
44846SOL     OW46261  10.665   7.148   5.756  0.0183 -0.5014 -0.5083
44846SOL    HW146262  10.681   7.064   5.800  2.9319  0.8027  1.2727
44846SOL    HW246263  10.601   7.192   5.812 -1.9409 -1.6331 -1.7418
44847SOL     OW46264   4.990   1.158   0.894 -0.3016  0.0668 -0.5516
44847SOL    HW146265   4.995   1.198   0.807  0.4335 -1.2801 -1.1569
44847SOL    HW246266   4.972   1.065   0.877 -2.4467  0.1645  0.8350
44848SOL     OW46267   1.990  10.857   3.279 -0.4669 -0.2751  0.0275
44848SOL    HW146268   1.985  10.785   3.215  1.9140  0.5750 -1.2191
44848SOL    HW246269   1.922  10.918   3.251 -1.3736 -1.2313  0.0736
44849SOL     OW46270   6.660   3.333   3.886  0.4073 -0.6527 -0.0787
44849SOL    HW146271   6.592   3.382   3.840  0.8969 -0.0433 -0.1718
44849SOL    HW246272   6.663   3.249   3.841  1.8980  0.4394 -2.2331
44850SOL     OW46273   4.255   6.604   4.343  0.5044 -0.1977  0.3412
44850SOL    HW146274   4.281   6.576   4.255  0.1791 -0.1592  0.2337
44850SOL    HW246275   4.212   6.688   4.331  2.5668  0.9745  0.8049
44851SOL     OW46276   9.968   8.225  10.464 -0.0558 -0.5367 -0.4183
44851SOL    HW146277  10.053   8.265  10.447  0.1384 -0.0973  1.3555
44851SOL    HW246278   9.985   8.131  10.465  0.9098 -0.4275  1.9086
44852SOL     OW46279   7.108  10.054   2.745  0.4341 -0.4082 -0.0243
44852SOL    HW146280   7.038   9.988   2.746 -0.1824  0.1864 -1.6996
44852SOL    HW246281   7.151  10.042   2.660  1.5517  0.1071  0.4510
44853SOL     OW46282   0.425   4.185   8.211  0.0174  0.2076 -0.1154
44853SOL    HW146283   0.389   4.097   8.199  0.5955 -0.2534  1.3785
44853SOL    HW246284   0.485   4.177   8.285  1.8912  1.3555 -1.4287
44854SOL     OW46285   8.374  10.231   6.470 -0.0523  0.3942 -0.3348
44854SOL    HW146286   8.293  10.217   6.421 -0.7197  2.0201  0.2399
44854SOL    HW246287   8.418  10.146   6.468 -1.8447 -0.5795 -0.5049
44855SOL     OW46288   7.058   0.523   8.947  0.1343 -0.1026  0.0841
44855SOL    HW146289   7.131   0.534   9.008  0.3388 -1.4334  0.1048
44855SOL    HW246290   7.094   0.473   8.874  0.1095  2.1475 -1.5711
44856SOL     OW46291   3.307   9.018   0.645  0.2685 -0.2365 -0.1567
44856SOL    HW146292   3.345   8.938   0.680 -0.5743 -0.1883  0.9097
44856SOL    HW246293   3.230   9.034   0.699  0.9832  1.8548  0.3399
44857SOL     OW46294  11.459   5.408  10.521 -0.5090 -0.2441 -0.1235
44857SOL    HW146295  11.480   5.317  10.542  2.9031  0.3085 -0.5836
44857SOL    HW246296  11.468   5.454  10.605 -2.4714 -0.2886  0.1598
44858SOL     OW46297   4.431   5.600  11.387 -0.4303 -0.3555 -0.1054
44858SOL    HW146298   4.381   5.540  11.442  0.3560  0.8683  2.0727
44858SOL    HW246299   4.515   5.557  11.375 -0.7230 -0.7795 -0.6393
44859SOL     OW46300   0.003   4.569   4.932 -0.3200 -0.3895  0.0007
44859SOL    HW146301   0.050   4.487   4.917  0.0989  0.1507 -2.0696
44859SOL    HW246302   0.073   4.632   4.952 -0.5117 -0.2860  0.3408
44860SOL     OW46303   2.392  10.503   9.908 -0.1937  0.6215  0.2988
44860SOL    HW146304   2.337  10.582   9.914  0.6289  1.2819 -0.5427
44860SOL    HW246305   2.464  10.519   9.969 -0.8890 -0.2326  1.3812
44861SOL     OW46306   6.567   7.931   4.126 -0.3809 -0.0660  0.3072
44861SOL    HW146307   6.643   7.907   4.072  0.1157 -0.4787  1.1620
44861SOL    HW246308   6.565   8.026   4.123  0.1662 -0.0528  0.2639
44862SOL     OW46309   2.384   7.009   0.077  0.2622  0.1836 -0.0343
44862SOL    HW146310   2.461   7.042   0.124  0.8558 -3.2707  1.7551
44862SOL    HW246311   2.410   7.008  -0.015  1.2117  1.7946  0.1784
44863SOL     OW46312   2.513   7.705   5.129 -0.3113  0.0827  0.2760
44863SOL    HW146313   2.598   7.730   5.093 -0.2374 -1.3936 -0.6745
44863SOL    HW246314   2.531   7.681   5.220  0.5884 -1.5478 -0.2859
44864SOL     OW46315   7.111   9.489   5.258 -0.0870 -0.1855 -0.5568
44864SOL    HW146316   7.156   9.409   5.232  0.9982  0.8596 -2.0633
44864SOL    HW246317   7.179   9.543   5.298 -0.6853  0.2146 -0.0683
44865SOL     OW46318   6.275   9.342  11.653  0.0687  0.4542 -0.4372
44865SOL    HW146319   6.317   9.428  11.658  0.3017  0.5605 -2.8829
44865SOL    HW246320   6.287   9.304  11.739  2.0388  1.9292  0.0048
44866SOL     OW46321  10.126   1.270   4.832 -0.5029  0.2332  0.2505
44866SOL    HW146322  10.073   1.344   4.862 -0.9655 -0.1481  0.3855
44866SOL    HW246323  10.074   1.230   4.762  0.0934  0.4887 -0.3440
44867SOL     OW46324   7.470   8.765   1.287 -0.1158 -0.1732 -0.1766
44867SOL    HW146325   7.525   8.778   1.365 -0.9143  2.8210  0.0190
44867SOL    HW246326   7.401   8.706   1.316  1.3120 -1.6224  0.4269
44868SOL     OW46327   2.388  10.661   3.573 -0.5411 -0.6395  0.2641
44868SOL    HW146328   2.324  10.626   3.636 -0.5099 -0.2268  0.5271
44868SOL    HW246329   2.346  10.739   3.537 -0.5424 -0.8536 -0.2017
44869SOL     OW46330   5.852   2.404   5.101  0.7584 -0.0630  0.2557
44869SOL    HW146331   5.899   2.472   5.053  1.7120 -1.1411 -0.3847
44869SOL    HW246332   5.838   2.335   5.036 -2.0566  0.3331  0.3093
44870SOL     OW46333  10.356   5.774  10.558 -0.5141 -0.0870 -0.1091
44870SOL    HW146334  10.376   5.683  10.579  0.2352 -0.0405 -0.5943
44870SOL    HW246335  10.260   5.778  10.557 -0.5995 -0.3844  1.9588
44871SOL     OW46336   6.494   0.883   3.382 -0.5340  0.9795  0.3907
44871SOL    HW146337   6.428   0.814   3.373  1.5851 -1.6366  2.8470
44871SOL    HW246338   6.460   0.939   3.453 -0.9288  0.7430  0.3928
44872SOL     OW46339   4.891   3.226   8.382 -0.8630 -0.2226 -0.0196
44872SOL    HW146340   4.928   3.139   8.398 -0.5389 -0.3467 -1.3040
44872SOL    HW246341   4.878   3.229   8.287  0.3167  1.5916 -0.1708
44873SOL     OW46342   5.298   6.820   3.085  0.2906 -0.3676  0.3111
44873SOL    HW146343   5.320   6.745   3.141 -0.9955 -0.4528  0.7209
44873SOL    HW246344   5.246   6.877   3.141 -0.7749 -0.3193 -0.7131
44874SOL     OW46345   9.053   2.303   3.532  0.0693 -0.1911  0.4283
44874SOL    HW146346   8.988   2.253   3.581  0.5191 -0.3866  0.8326
44874SOL    HW246347   9.130   2.246   3.530  0.0150 -0.2455 -0.6278
44875SOL     OW46348   6.265   2.955  11.657 -0.4407  0.1428 -0.0566
44875SOL    HW146349   6.239   2.961  11.565 -1.3441  0.7446  0.2319
44875SOL    HW246350   6.216   2.880  11.691 -0.5653  0.2906  0.0884
44876SOL     OW46351   3.037   2.568   6.450 -0.4591 -0.3196  0.0980
44876SOL    HW146352   2.942   2.564   6.445 -0.4573  0.7637 -1.3576
44876SOL    HW246353   3.055   2.635   6.517 -0.6798 -1.5906  1.4666
44877SOL     OW46354   8.748   7.088   7.154  0.4647 -0.0586  0.9992
44877SOL    HW146355   8.751   7.048   7.067  2.7869 -2.1856  1.9370
44877SOL    HW246356   8.672   7.048   7.196  0.7480 -0.9170  0.7251
44878SOL     OW46357   5.958  11.088   4.823  0.4090 -0.4148 -0.7206
44878SOL    HW146358   6.033  11.133   4.785  0.2915  0.0983 -0.3499
44878SOL    HW246359   5.896  11.158   4.843  0.6746 -0.6076  0.8856
44879SOL     OW46360   9.204   0.012   5.479 -0.3261  0.0162  0.1949
44879SOL    HW146361   9.255  -0.050   5.532 -0.4096 -0.0158  0.2375
44879SOL    HW246362   9.242   0.005   5.391  1.2661  1.6516  0.6996
44880SOL     OW46363   0.739   3.446   0.437  0.5679  0.4130 -0.7242
44880SOL    HW146364   0.740   3.541   0.427  0.5006  0.1960 -3.6286
44880SOL    HW246365   0.760   3.412   0.350  2.9060 -2.2576  0.7037
44881SOL     OW46366   1.232  11.219   5.480  1.0418 -0.4596  0.2030
44881SOL    HW146367   1.286  11.245   5.404  1.1993 -0.4536  0.3163
44881SOL    HW246368   1.259  11.129   5.498  1.7158 -0.1394  0.8595
44882SOL     OW46369  10.365   3.136  10.357  0.6507 -0.4634  0.5605
44882SOL    HW146370  10.272   3.150  10.378  0.8298  1.3558  0.3299
44882SOL    HW246371  10.411   3.203  10.407  1.7639 -0.8088  0.0270
44883SOL     OW46372   3.111   6.658   8.078 -0.6385 -0.4717  0.0923
44883SOL    HW146373   3.103   6.568   8.106 -1.6945 -0.3922  0.1003
44883SOL    HW246374   3.169   6.655   8.002 -2.0184 -1.4052 -0.9677
44884SOL     OW46375   4.500   3.747   3.987  0.8474 -0.1079  0.0613
44884SOL    HW146376   4.413   3.742   4.027  0.5836  0.1607 -0.4736
44884SOL    HW246377   4.515   3.658   3.953  1.5797 -0.6741  1.7780
44885SOL     OW46378   3.193   9.163   6.170 -0.2456  0.2730 -0.3910
44885SOL    HW146379   3.202   9.247   6.126 -0.2091  0.4616 -0.0234
44885SOL    HW246380   3.108   9.130   6.140 -0.4793  0.6624 -0.1609
44886SOL     OW46381   1.011   1.684   1.785  0.2636 -0.3021 -0.3341
44886SOL    HW146382   0.954   1.756   1.759 -0.1601 -0.8620 -1.0127
44886SOL    HW246383   1.100   1.715   1.768  0.2128  0.7496  1.1614
44887SOL     OW46384   9.000   6.865   3.420  0.2312 -0.1108 -0.2766
44887SOL    HW146385   9.085   6.882   3.461  0.4783 -1.1052 -0.3490
44887SOL    HW246386   9.021   6.823   3.336 -0.2644  1.8505 -1.4485
44888SOL     OW46387   7.829   3.616   7.873 -0.0089 -0.4967 -0.0711
44888SOL    HW146388   7.903   3.673   7.896 -1.9308  2.4369 -0.6007
44888SOL    HW246389   7.764   3.632   7.941 -1.5039 -0.1903 -1.5009
44889SOL     OW46390   0.074   3.884   1.735  0.2372  0.2928 -0.3665
44889SOL    HW146391   0.156   3.845   1.705  0.8625  2.3288 -1.4956
44889SOL    HW246392   0.006   3.825   1.704  1.0746  0.5654 -2.9619
44890SOL     OW46393   4.549   9.738   1.108 -0.3318  0.8050  0.6000
44890SOL    HW146394   4.524   9.647   1.122 -0.0435  0.7025  0.4453
44890SOL    HW246395   4.531   9.781   1.192  0.6340  0.3639  1.0428
44891SOL     OW46396   9.709   8.993   8.883 -0.4182  0.4025  0.0187
44891SOL    HW146397   9.693   9.003   8.789  1.0708 -2.5237 -0.6593
44891SOL    HW246398   9.784   9.051   8.900 -0.7986  1.0804 -0.5332
44892SOL     OW46399   7.914  11.479   5.828  0.1649  0.0988  0.5347
44892SOL    HW146400   7.988  11.419   5.820  0.5057  0.1323  2.7131
44892SOL    HW246401   7.930  11.546   5.762  1.5928 -0.4003  0.3426
44893SOL     OW46402   7.797   1.412   1.857 -0.0285  0.3709  0.0239
44893SOL    HW146403   7.835   1.326   1.839  1.0296  0.2299  2.5814
44893SOL    HW246404   7.858   1.454   1.917 -2.1560  1.5628  1.5084
44894SOL     OW46405  11.813   9.898   7.383 -0.0825 -0.3001  0.5760
44894SOL    HW146406  11.739   9.843   7.355 -0.1222  0.7406 -1.5530
44894SOL    HW246407  11.800   9.909   7.477 -2.2596 -0.7262  0.3920
44895SOL     OW46408   1.930  10.484   3.556  0.6431  0.3487  0.2501
44895SOL    HW146409   1.877  10.524   3.625 -0.2390 -0.3498 -0.0084
44895SOL    HW246410   1.882  10.500   3.475  1.8460  1.4605 -0.2720
44896SOL     OW46411   0.562  11.219   1.623  0.4419 -0.1095  0.0627
44896SOL    HW146412   0.603  11.305   1.608  0.9635 -0.4988 -0.8567
44896SOL    HW246413   0.471  11.239   1.641 -0.0384  0.5499 -2.6557
44897SOL     OW46414   8.745   1.756   4.825  0.3455  0.1847 -0.4700
44897SOL    HW146415   8.663   1.709   4.813  0.1139 -0.7589  3.4555
44897SOL    HW246416   8.811   1.687   4.831  0.1541  0.0775  4.2275
44898SOL     OW46417   9.343   2.022   8.004 -0.1362  0.4009  0.2943
44898SOL    HW146418   9.280   2.042   7.935 -0.7067 -1.8263  0.0828
44898SOL    HW246419   9.427   2.016   7.959 -0.2614  0.4152  0.0611
44899SOL     OW46420   3.197   4.632   3.018  0.4186 -0.0938  0.2562
44899SOL    HW146421   3.267   4.600   3.075  0.7855 -1.1968 -0.7815
44899SOL    HW246422   3.141   4.556   3.003 -1.3934  0.8969  1.5502
44900SOL     OW46423   8.781   7.045   4.803  0.4727 -0.1213 -0.1919
44900SOL    HW146424   8.818   6.958   4.787  1.8605  0.3900  0.0512
44900SOL    HW246425   8.803   7.064   4.894 -1.7478 -0.3919  0.4457
44901SOL     OW46426  11.596   3.833   6.771 -0.1506 -0.2559 -0.3051
44901SOL    HW146427  11.530   3.879   6.823  0.5496 -1.1979  1.5367
44901SOL    HW246428  11.677   3.846   6.821  0.7428 -0.4703 -1.6708
44902SOL     OW46429   8.157  10.714   5.052  0.3002  0.1273 -0.0930
44902SOL    HW146430   8.156  10.619   5.053 -0.5353  0.0040 -3.1608
44902SOL    HW246431   8.248  10.738   5.068  0.5980 -1.1773  0.2363
44903SOL     OW46432   3.984   3.931   7.791  0.4344  0.4832  0.2781
44903SOL    HW146433   4.033   3.999   7.837  1.9560 -0.9062  0.8122
44903SOL    HW246434   4.048   3.862   7.776 -0.8672 -0.5047 -0.9701
44904SOL     OW46435  11.727   4.682   4.165  0.1702  0.2512  0.1810
44904SOL    HW146436  11.740   4.729   4.247 -1.3613  0.0157  0.5913
44904SOL    HW246437  11.788   4.724   4.104  1.1581  0.5867  1.3536
44905SOL     OW46438   3.565  10.511   7.917 -0.1253  0.7021  0.1614
44905SOL    HW146439   3.658  10.534   7.910  0.1006 -0.0976  0.3213
44905SOL    HW246440   3.563  10.417   7.897 -1.0458  0.9252 -0.8586
44906SOL     OW46441   8.968   8.974   7.205 -0.3746 -0.0322 -0.5792
44906SOL    HW146442   8.928   8.890   7.227  0.7759 -0.8102 -1.3553
44906SOL    HW246443   9.054   8.951   7.170 -0.4285  1.4124 -1.7555
44907SOL     OW46444   8.765  11.746  11.387  0.5568 -0.2497 -0.2648
44907SOL    HW146445   8.850  11.757  11.345  1.0096 -0.5692  0.5349
44907SOL    HW246446   8.749  11.828  11.434  1.8301 -1.1912  1.9952
44908SOL     OW46447   0.553   4.580   4.813 -0.1949  0.3665  0.2949
44908SOL    HW146448   0.584   4.635   4.740  1.3913  1.0177  1.4073
44908SOL    HW246449   0.516   4.503   4.770  1.5461  0.2992 -1.2187
44909SOL     OW46450   1.853  11.140   8.145  0.2736 -0.2324  0.4240
44909SOL    HW146451   1.762  11.119   8.125  0.8240 -1.3643 -0.9923
44909SOL    HW246452   1.881  11.071   8.205  0.0549  0.4720  1.3813
44910SOL     OW46453   8.560   1.915   3.139 -0.1205  0.2602  0.2093
44910SOL    HW146454   8.539   1.841   3.196 -0.9715 -0.2697 -0.7619
44910SOL    HW246455   8.655   1.924   3.146  0.1607 -1.6870 -0.5293
44911SOL     OW46456   9.999  11.248   9.314 -0.2505 -0.7235 -0.0447
44911SOL    HW146457  10.006  11.255   9.410  3.4872 -0.6298 -0.1897
44911SOL    HW246458  10.022  11.157   9.296  1.5581 -0.1206 -0.9432
44912SOL     OW46459   5.297   4.911   0.845 -0.7302 -0.0727 -0.4390
44912SOL    HW146460   5.228   4.975   0.861  1.8227  2.9709 -0.5999
44912SOL    HW246461   5.354   4.918   0.921  1.1389  0.0012 -1.7807
44913SOL     OW46462   5.748   5.486   2.280  0.1173 -0.2645 -0.8954
44913SOL    HW146463   5.752   5.537   2.361  0.0919 -0.2701 -0.8909
44913SOL    HW246464   5.780   5.399   2.304 -0.4701 -0.4424 -0.7527
44914SOL     OW46465  10.327   9.597   7.160 -0.0763 -0.2878 -0.3815
44914SOL    HW146466  10.288   9.591   7.248 -1.7103  0.1191 -1.0294
44914SOL    HW246467  10.310   9.687   7.132  0.4186 -0.4142 -1.1142
44915SOL     OW46468   4.194   1.259   2.342 -0.9104  0.1783  0.2678
44915SOL    HW146469   4.252   1.244   2.267 -1.2225 -0.7165  0.1976
44915SOL    HW246470   4.214   1.189   2.403 -0.6599  0.9083  1.0346
44916SOL     OW46471   4.189   1.193   5.899 -0.0995  0.3496  0.2820
44916SOL    HW146472   4.211   1.271   5.950 -1.3952  1.3086 -0.5617
44916SOL    HW246473   4.221   1.212   5.810  0.9889 -0.7689  0.3928
44917SOL     OW46474   2.105   6.416   3.851  0.0467  0.2085  0.2776
44917SOL    HW146475   2.095   6.426   3.756  0.1747 -0.4745  0.1884
44917SOL    HW246476   2.061   6.334   3.871  0.7779 -0.0838  0.6889
44918SOL     OW46477   7.919   8.080   4.845  0.6626  0.4550  0.0474
44918SOL    HW146478   7.953   8.129   4.920 -0.9636  0.2678  0.9520
44918SOL    HW246479   7.834   8.047   4.874 -0.2520  0.7824 -2.0483
44919SOL     OW46480   0.079   9.266   5.955  0.7927  0.1745  0.4846
44919SOL    HW146481  -0.007   9.308   5.960  0.9074  0.3050  1.6028
44919SOL    HW246482   0.135   9.330   5.911  0.1568 -0.2161 -0.9583
44920SOL     OW46483   1.799   0.272   5.626  0.2067  0.2134 -0.3204
44920SOL    HW146484   1.872   0.308   5.675  0.1178 -1.0338  0.7863
44920SOL    HW246485   1.837   0.243   5.543  0.7923  0.3208 -0.0875
44921SOL     OW46486   2.844   7.625  10.126  0.4699  0.0990  0.1284
44921SOL    HW146487   2.924   7.664  10.162  1.0920 -0.5971 -0.4666
44921SOL    HW246488   2.846   7.650  10.034  0.6142 -0.8984 -0.1460
44922SOL     OW46489   4.221   3.030   5.458 -0.5829 -0.2679 -0.1907
44922SOL    HW146490   4.254   3.107   5.505  1.3033 -0.0375 -1.7445
44922SOL    HW246491   4.277   2.958   5.489  1.1912  0.0181 -2.4484
44923SOL     OW46492   2.161  11.320   7.013  0.0683 -0.2504  0.8753
44923SOL    HW146493   2.123  11.408   7.014  0.4993 -0.0391 -0.0191
44923SOL    HW246494   2.254  11.335   7.030  0.3968 -0.3747 -0.7136
44924SOL     OW46495   6.740   5.978   7.765  0.2704  0.4174  0.2636
44924SOL    HW146496   6.815   6.018   7.809  1.8265 -1.0596 -0.8906
44924SOL    HW246497   6.773   5.894   7.733 -1.7943 -0.1279 -0.6185
44925SOL     OW46498   6.439  11.523  10.661 -0.0318 -0.3799 -0.0349
44925SOL    HW146499   6.420  11.484  10.576  0.0136 -0.9204  0.1991
44925SOL    HW246500   6.356  11.521  10.708 -0.1654  0.3447 -0.2303
44926SOL     OW46501   5.433   2.202   0.719  0.3751 -0.2172 -0.5050
44926SOL    HW146502   5.425   2.109   0.739 -0.5377  0.2759  1.6895
44926SOL    HW246503   5.434   2.245   0.804  0.0790  1.8492 -1.4770
44927SOL     OW46504   1.573   0.393   5.396 -0.1853  0.5187 -0.0706
44927SOL    HW146505   1.556   0.309   5.354  0.3215  0.4984 -0.2322
44927SOL    HW246506   1.509   0.397   5.467  1.6422 -1.2983  1.8046
44928SOL     OW46507   4.134  11.606   8.640 -0.7353  0.0134  0.1126
44928SOL    HW146508   4.164  11.524   8.601 -0.8377  0.1875 -0.3309
44928SOL    HW246509   4.200  11.670   8.615 -0.0535 -0.1459  1.3925
44929SOL     OW46510   3.722   1.708   7.932 -0.0498  0.0272 -0.9468
44929SOL    HW146511   3.765   1.677   7.852 -0.9020 -0.9653 -1.0497
44929SOL    HW246512   3.771   1.786   7.957  1.7849 -1.0434 -1.0447
44930SOL     OW46513   8.630   8.562   2.000 -0.0997 -0.0548  1.4230
44930SOL    HW146514   8.537   8.555   2.019 -0.0447 -1.0005  1.3860
44930SOL    HW246515   8.637   8.636   1.940 -0.9476 -0.5646  0.6770
44931SOL     OW46516   9.779  10.560   8.610 -0.0175  0.0530  0.3972
44931SOL    HW146517   9.774  10.492   8.543  0.4846  0.1136  0.2872
44931SOL    HW246518   9.873  10.573   8.622 -0.1101  0.6384  0.5041
44932SOL     OW46519   2.193   4.192   1.176  0.0908  0.5659 -0.0644
44932SOL    HW146520   2.153   4.137   1.243  1.9122  1.3443  1.7636
44932SOL    HW246521   2.249   4.253   1.225  4.0216 -0.8450 -2.3246
44933SOL     OW46522   8.939   2.250   7.625 -0.0271 -0.0635  0.4574
44933SOL    HW146523   8.851   2.217   7.638 -0.8004  0.2759 -2.8956
44933SOL    HW246524   8.971   2.203   7.548  0.8067  3.1122 -1.3084
44934SOL     OW46525   5.489   2.306   3.787  0.0616 -0.0310  0.0958
44934SOL    HW146526   5.464   2.253   3.863 -0.8945  0.9570  0.4988
44934SOL    HW246527   5.411   2.305   3.731  0.5595 -0.2718 -0.6039
44935SOL     OW46528  11.325   8.698   7.982  0.1127 -0.5163 -0.0241
44935SOL    HW146529  11.313   8.645   7.903  0.3656 -0.6581  0.0321
44935SOL    HW246530  11.386   8.767   7.955 -2.6977  1.7675 -1.0635
44936SOL     OW46531   4.872   6.452   7.173 -0.8099 -0.4468  0.4447
44936SOL    HW146532   4.924   6.519   7.216 -0.0062 -0.7732  0.0019
44936SOL    HW246533   4.808   6.425   7.239 -1.3248  0.9231  0.5462
44937SOL     OW46534   5.856   9.481   0.566 -0.2044  0.1245 -0.4900
44937SOL    HW146535   5.837   9.574   0.552 -2.5426 -0.3397 -0.8728
44937SOL    HW246536   5.947   9.471   0.539 -0.4448  1.9691 -2.3019
44938SOL     OW46537  11.059   5.471   3.059 -0.1601  0.3933 -0.1387
44938SOL    HW146538  11.113   5.428   2.993  1.6132  1.0976  0.7856
44938SOL    HW246539  11.107   5.550   3.083 -2.3784  1.9252 -0.3703
44939SOL     OW46540   2.652  11.334   6.752 -0.1762  0.3336 -0.7053
44939SOL    HW146541   2.607  11.323   6.668 -1.3123 -0.4696 -0.0276
44939SOL    HW246542   2.612  11.411   6.791  0.0564  0.4635 -0.7212
44940SOL     OW46543  10.951   2.870  10.543  0.0914  0.4433  0.1965
44940SOL    HW146544  10.894   2.926  10.491 -0.6101 -0.9900 -0.6357
44940SOL    HW246545  11.033   2.866  10.494 -0.1526  0.0788 -0.1921
44941SOL     OW46546   4.266   3.146   1.067 -0.5833 -0.0405  0.0177
44941SOL    HW146547   4.210   3.196   1.007  0.5479 -0.3527 -1.3633
44941SOL    HW246548   4.277   3.204   1.142 -1.2147  0.8072 -0.5133
44942SOL     OW46549   2.472  10.692   6.188 -0.1898 -0.8407  0.1277
44942SOL    HW146550   2.499  10.674   6.278  0.5403 -0.6535 -0.0537
44942SOL    HW246551   2.379  10.668   6.187 -0.6126  0.5767  1.3226
44943SOL     OW46552   9.137   5.343   9.662  0.0818 -0.2914  0.5274
44943SOL    HW146553   9.146   5.320   9.755  0.9615 -0.4287  0.4168
44943SOL    HW246554   9.059   5.296   9.633  0.8186 -1.7166  0.7545
44944SOL     OW46555   1.044  10.897  11.484 -0.2739 -1.0502 -0.4243
44944SOL    HW146556   1.048  10.980  11.531  0.1814  0.1910 -2.4884
44944SOL    HW246557   0.950  10.882  11.471 -0.3726 -1.0254  0.2285
44945SOL     OW46558   4.583   4.091   1.349  0.4992  0.2832 -0.0588
44945SOL    HW146559   4.518   4.022   1.362  0.9382 -0.1995 -0.3777
44945SOL    HW246560   4.537   4.160   1.302  0.2752 -0.1464 -0.4701
44946SOL     OW46561  11.167  10.966   5.700 -0.2493  0.1776  0.6934
44946SOL    HW146562  11.195  11.057   5.706  0.4273  0.0035  0.3439
44946SOL    HW246563  11.126  10.960   5.614  0.8436 -0.1282  0.1687
44947SOL     OW46564   2.472   4.736   1.315  0.2835  0.0410 -0.0109
44947SOL    HW146565   2.439   4.671   1.252  0.9564  0.8916 -1.2795
44947SOL    HW246566   2.491   4.813   1.262 -0.0291  1.1242  1.3936
44948SOL     OW46567   9.157   2.725   8.258 -0.5525 -0.0352 -0.2168
44948SOL    HW146568   9.233   2.666   8.260 -0.6421 -0.1577 -0.3598
44948SOL    HW246569   9.149   2.756   8.348  0.4820  1.0288 -0.4652
44949SOL     OW46570   2.435   6.883   0.924 -0.2963  0.5567  0.2786
44949SOL    HW146571   2.446   6.881   0.829  1.5942  0.0206  0.4724
44949SOL    HW246572   2.340   6.886   0.937 -0.6085  3.9976 -1.6296
44950SOL     OW46573   7.486   2.297   6.209  0.5055 -0.4824  0.1109
44950SOL    HW146574   7.534   2.368   6.253 -0.0926 -0.3478  0.5615
44950SOL    HW246575   7.396   2.327   6.207  0.2128 -1.3211  0.4724
44951SOL     OW46576   3.617   5.203   7.263  0.7171 -0.2484 -0.6019
44951SOL    HW146577   3.539   5.216   7.209  0.8593 -0.3849 -0.8386
44951SOL    HW246578   3.588   5.146   7.334  0.3556  0.4881 -0.1471
44952SOL     OW46579  10.920   2.983   0.030  0.1367  0.0752 -0.0681
44952SOL    HW146580  11.002   3.033   0.030  0.7467 -0.8082  1.9438
44952SOL    HW246581  10.925   2.929  -0.049  1.8947 -0.4886  0.3724
44953SOL     OW46582   7.101   0.737   8.511 -0.3761 -0.3276 -0.0656
44953SOL    HW146583   7.127   0.765   8.599  1.7381 -1.3740 -0.2979
44953SOL    HW246584   7.116   0.642   8.511 -2.0259 -0.6316 -1.0329
44954SOL     OW46585   0.429   6.233   7.299 -0.3296 -0.1608 -0.1886
44954SOL    HW146586   0.405   6.145   7.268 -0.8203 -0.5520  1.1980
44954SOL    HW246587   0.374   6.292   7.248 -2.0381 -0.8522  0.7349
44955SOL     OW46588  11.111   5.273   7.398 -0.1140 -0.2279  0.0346
44955SOL    HW146589  11.136   5.185   7.370  2.2643  0.3637  0.1211
44955SOL    HW246590  11.148   5.332   7.332  0.0594  0.8078  1.0200
44956SOL     OW46591   8.338   5.664   3.115 -0.5695  0.4416  0.5007
44956SOL    HW146592   8.426   5.668   3.152 -0.3839 -0.9259  0.2559
44956SOL    HW246593   8.350   5.687   3.023 -0.0388 -1.9729 -0.1165
44957SOL     OW46594   3.559   9.575   1.506 -0.5739  0.7703 -0.0348
44957SOL    HW146595   3.491   9.522   1.465  0.0722 -0.4006  0.3320
44957SOL    HW246596   3.622   9.510   1.538  0.1641  1.7763  0.5838
44958SOL     OW46597   4.325   0.295   6.651 -1.0662  0.6578  0.2417
44958SOL    HW146598   4.280   0.313   6.568 -0.9087  0.2522  0.0651
44958SOL    HW246599   4.367   0.378   6.674 -1.0734  0.7599 -0.1073
44959SOL     OW46600   7.723   6.229   4.015 -0.0777  0.2743 -0.4501
44959SOL    HW146601   7.770   6.311   4.025 -0.6955  0.7084 -0.9769
44959SOL    HW246602   7.791   6.163   3.998  0.6195  0.2661  1.9943
44960SOL     OW46603  11.398   9.353  10.856 -0.2361 -0.0664 -0.0788
44960SOL    HW146604  11.370   9.279  10.802  2.5109 -1.1905 -0.1115
44960SOL    HW246605  11.471   9.392  10.807 -0.1933  1.2991  1.0134
44961SOL     OW46606   1.562  10.196   4.300 -0.0330 -0.4082  0.3978
44961SOL    HW146607   1.579  10.114   4.252 -2.1997 -1.5818  1.4810
44961SOL    HW246608   1.641  10.211   4.351  1.0451 -0.9061 -1.0576
44962SOL     OW46609  10.593   5.365   9.844 -0.6557  0.4865 -0.0869
44962SOL    HW146610  10.616   5.328   9.759 -2.7990  0.3087 -0.6524
44962SOL    HW246611  10.524   5.428   9.825  0.2047  1.9427  1.3333
44963SOL     OW46612   2.977  10.783   1.156  0.2524  0.3577 -0.9561
44963SOL    HW146613   2.999  10.796   1.064 -0.4097  0.3580 -1.1219
44963SOL    HW246614   2.883  10.767   1.156 -0.2405  2.8048 -0.0578
44964SOL     OW46615   1.514  10.873   1.787 -0.3597  0.2364  0.1425
44964SOL    HW146616   1.591  10.929   1.794  0.0026  0.1719 -2.5520
44964SOL    HW246617   1.445  10.931   1.755  0.1333 -0.8062 -3.1251
44965SOL     OW46618   1.458   5.396   0.742 -0.1851 -0.5445  0.2809
44965SOL    HW146619   1.524   5.336   0.708  0.5306  0.9565 -1.0513
44965SOL    HW246620   1.493   5.426   0.826  0.4066 -0.4465  0.0026
44966SOL     OW46621   4.380   3.136   9.902  0.2096 -0.1406  0.0111
44966SOL    HW146622   4.306   3.187   9.936  1.1041  0.6361  0.8503
44966SOL    HW246623   4.456   3.170   9.948  1.0347 -1.3022 -0.4371
44967SOL     OW46624   8.516   7.149   1.771  0.1586 -0.5541 -0.3815
44967SOL    HW146625   8.523   7.206   1.695  1.4632 -2.2388 -1.6106
44967SOL    HW246626   8.498   7.209   1.844  0.3190  1.2727 -1.7551
44968SOL     OW46627  10.603  10.321   5.986  0.3088 -0.5003  0.3915
44968SOL    HW146628  10.670  10.388   5.978  1.8242 -1.5222  3.1272
44968SOL    HW246629  10.521  10.371   5.995  1.0986  0.8947  0.2069
44969SOL     OW46630   4.220   6.342   1.585 -0.1763  0.1293 -0.2423
44969SOL    HW146631   4.157   6.299   1.643  0.4222  0.6009  0.7805
44969SOL    HW246632   4.171   6.413   1.544 -0.5490 -0.0861 -0.1754
44970SOL     OW46633  11.726   7.045   9.902 -0.0345  0.0327 -0.6337
44970SOL    HW146634  11.725   7.048   9.806  0.9081 -2.1325 -0.7757
44970SOL    HW246635  11.634   7.034   9.926 -0.2097 -0.1303 -1.3423
44971SOL     OW46636   8.969   6.555   5.360 -0.2567 -0.1381  0.0200
44971SOL    HW146637   9.051   6.529   5.401  0.2369  1.2467 -0.0647
44971SOL    HW246638   8.955   6.489   5.291  0.7003 -0.4611  0.1177
44972SOL     OW46639   2.569   6.496   7.221 -0.6396 -0.0181  0.4328
44972SOL    HW146640   2.501   6.438   7.186 -0.7203  0.9644 -1.1079
44972SOL    HW246641   2.648   6.472   7.172 -0.5211  0.7181  0.2550
44973SOL     OW46642   7.853   9.010   3.085  0.4362  0.1648  0.8324
44973SOL    HW146643   7.875   9.050   3.169  0.3244 -2.1545  2.0331
44973SOL    HW246644   7.760   9.026   3.074 -0.6296 -3.1150  3.3809
44974SOL     OW46645   4.521  11.654  10.282  0.0359 -0.3224  0.6248
44974SOL    HW146646   4.562  11.653  10.368  1.8443  0.9390 -0.1564
44974SOL    HW246647   4.460  11.728  10.284 -0.1897 -0.5170  0.9282
44975SOL     OW46648   2.697   7.264   5.141 -0.2998  0.2987  0.5309
44975SOL    HW146649   2.699   7.183   5.192  1.4007  1.2514  2.0835
44975SOL    HW246650   2.605   7.273   5.115 -0.4058 -2.5066 -0.4244
44976SOL     OW46651  10.379   6.080  10.904 -0.1866  0.5223  0.1328
44976SOL    HW146652  10.418   6.005  10.860  0.1628  1.3353 -1.0132
44976SOL    HW246653  10.454   6.131  10.935 -0.4105  0.5620  0.6207
44977SOL     OW46654   6.780   6.651   0.086 -0.6664 -0.6994 -0.0417
44977SOL    HW146655   6.722   6.601   0.144 -1.1909 -1.7511 -1.4103
44977SOL    HW246656   6.732   6.732   0.068 -0.8523 -0.7172  0.3748
44978SOL     OW46657   5.313   9.669   3.488 -0.3943 -0.5574 -0.2219
44978SOL    HW146658   5.332   9.606   3.418  0.1610  0.4636 -1.0105
44978SOL    HW246659   5.271   9.742   3.443 -2.2758 -0.8977  0.8737
44979SOL     OW46660  10.165   3.626   8.402  0.0924 -0.2106 -0.1095
44979SOL    HW146661  10.244   3.573   8.388 -0.0969 -0.3576 -0.6244
44979SOL    HW246662  10.166   3.690   8.331 -0.6877 -0.7378 -0.6106
44980SOL     OW46663   6.545   9.410   2.016 -0.1915 -0.7095  0.1519
44980SOL    HW146664   6.631   9.369   2.018 -0.8656 -2.2437 -0.3192
44980SOL    HW246665   6.502   9.370   1.939 -0.0417  2.7921 -1.9496
44981SOL     OW46666   4.388  11.248   6.922  0.1289  0.0541  0.5719
44981SOL    HW146667   4.379  11.193   6.844 -2.3213 -1.7193  1.9542
44981SOL    HW246668   4.347  11.331   6.896 -2.0959 -1.0317  0.3294
44982SOL     OW46669   1.925  11.926   4.491 -0.6293  0.3956 -0.6497
44982SOL    HW146670   2.007  11.963   4.457  0.0049  0.4432  0.8202
44982SOL    HW246671   1.857  11.983   4.456  0.1601  1.7022 -0.1603
44983SOL     OW46672  10.270   8.716   0.831 -0.4765  0.0584 -0.1635
44983SOL    HW146673  10.193   8.661   0.841  1.0239 -1.9835  0.9447
44983SOL    HW246674  10.269   8.744   0.739 -1.2892 -1.8916 -0.7844
44984SOL     OW46675   6.788   8.429   1.507  0.3035 -0.1224 -0.2735
44984SOL    HW146676   6.784   8.333   1.504  1.1218 -0.1852  0.3466
44984SOL    HW246677   6.745   8.452   1.590 -0.3252  0.0862 -0.6489
44985SOL     OW46678   4.001   1.723   8.668  0.2871  0.1811  0.5479
44985SOL    HW146679   4.078   1.773   8.697  1.3463 -1.2411  0.3122
44985SOL    HW246680   4.020   1.702   8.577 -0.3710 -0.2278  0.5040
44986SOL     OW46681   4.988   0.372  10.098 -0.2977  0.2450  0.4801
44986SOL    HW146682   4.957   0.282  10.107 -2.3139  0.7000 -0.8956
44986SOL    HW246683   5.052   0.368  10.027  0.0080 -0.1740  0.7744
44987SOL     OW46684   0.569   9.641  10.202  0.3693  0.2757 -0.0833
44987SOL    HW146685   0.562   9.547  10.189  0.9776  0.1790  0.2828
44987SOL    HW246686   0.647   9.667  10.153  0.6949  0.4504  0.5217
44988SOL     OW46687   5.721   0.097   6.986 -0.2982  0.3566  0.2296
44988SOL    HW146688   5.805   0.076   6.945  1.1679  0.2146  3.0765
44988SOL    HW246689   5.685   0.011   7.011 -0.3241  0.5396  0.8157
44989SOL     OW46690   7.071   8.364   6.226 -0.2855 -0.5776 -0.2908
44989SOL    HW146691   7.100   8.329   6.311 -0.4625 -0.2145 -0.0787
44989SOL    HW246692   7.061   8.458   6.241  0.1255 -0.4409 -0.8381
44990SOL     OW46693   4.507   4.680   5.042 -0.6447 -0.1497 -0.6306
44990SOL    HW146694   4.502   4.773   5.019  2.2844  0.8759  2.0988
44990SOL    HW246695   4.434   4.666   5.101  0.1784  1.1597  0.7823
44991SOL     OW46696   1.427   7.574  11.030 -0.0679 -0.2563 -0.2514
44991SOL    HW146697   1.466   7.646  11.080 -0.3648  0.0010 -0.3842
44991SOL    HW246698   1.396   7.614  10.949 -1.9539 -0.1231  0.4756
44992SOL     OW46699   4.751   2.468   1.393  0.2530  0.8151 -0.2873
44992SOL    HW146700   4.717   2.553   1.365  0.6731  0.6610 -1.3041
44992SOL    HW246701   4.743   2.412   1.316  1.6845  0.4450 -0.1875
44993SOL     OW46702   1.785   5.747   8.866 -0.0665  0.5188 -0.6799
44993SOL    HW146703   1.871   5.767   8.830  0.2165  0.1997 -0.1829
44993SOL    HW246704   1.780   5.796   8.948  0.2748 -0.6819  0.0901
44994SOL     OW46705   3.827  10.854   0.581 -0.7922 -1.1106 -0.0082
44994SOL    HW146706   3.862  10.942   0.595 -2.2641 -0.5822  0.4271
44994SOL    HW246707   3.779  10.834   0.661 -2.3696 -1.3868 -0.9937
44995SOL     OW46708   0.313   8.795   7.969  0.1628  0.1670  0.1585
44995SOL    HW146709   0.296   8.828   8.057  3.2348  0.5669  0.7330
44995SOL    HW246710   0.345   8.705   7.983  0.2819  0.0839 -0.5920
44996SOL     OW46711  11.360   2.611  11.852 -0.2858  0.2695  0.3070
44996SOL    HW146712  11.331   2.702  11.842 -0.5020  0.0489 -1.2995
44996SOL    HW246713  11.331   2.568  11.772 -0.7097 -1.3753  1.3044
44997SOL     OW46714   0.830   6.975   8.925 -0.0328  0.2416 -0.2416
44997SOL    HW146715   0.790   7.062   8.921  1.7019  1.2468  1.9866
44997SOL    HW246716   0.762   6.919   8.963 -1.0603  0.6224 -1.4242
44998SOL     OW46717  11.481  10.887   5.835 -0.2862  0.1855  0.1163
44998SOL    HW146718  11.404  10.830   5.843  2.2817 -3.3788  4.3456
44998SOL    HW246719  11.467  10.956   5.899 -0.5342  0.4362 -0.2008
44999SOL     OW46720   7.893   9.940   6.652 -0.3009 -0.6814  0.4218
44999SOL    HW146721   7.819   9.978   6.605  0.6307 -0.8361 -1.2235
44999SOL    HW246722   7.960  10.009   6.651  0.2919 -1.2562  0.1276
45000SOL     OW46723   8.707   8.325   9.421 -0.0212 -0.1298 -0.0381
45000SOL    HW146724   8.771   8.254   9.426 -1.1269 -1.2149 -0.6557
45000SOL    HW246725   8.718   8.372   9.504  0.7914 -0.9842  0.3669
45001SOL     OW46726  11.488   7.816   2.852  0.5569 -0.0402  0.5757
45001SOL    HW146727  11.407   7.864   2.866  0.2114 -0.1074 -0.9582
45001SOL    HW246728  11.467   7.726   2.875  0.0357 -0.1419 -0.2404
45002SOL     OW46729   3.857   1.530   3.797 -0.1533  0.3865 -0.0350
45002SOL    HW146730   3.870   1.436   3.785  2.1729  0.7050 -0.4413
45002SOL    HW246731   3.823   1.560   3.713  0.2368  0.0880 -0.3029
45003SOL     OW46732   8.158   9.267   1.278 -0.2100  0.6152  0.5015
45003SOL    HW146733   8.173   9.255   1.371 -0.6039  0.5707  0.5594
45003SOL    HW246734   8.238   9.310   1.246  0.1171  0.2046  0.7663
45004SOL     OW46735   2.917   9.140  11.675 -0.0706 -0.7050  0.0675
45004SOL    HW146736   2.841   9.082  11.671 -0.8783  0.3986 -1.4562
45004SOL    HW246737   2.992   9.081  11.663 -0.7645 -1.6314  0.1338
45005SOL     OW46738   2.352   4.746   8.406  0.0594  1.0410 -0.1908
45005SOL    HW146739   2.258   4.731   8.415  0.5202 -1.7071  1.2266
45005SOL    HW246740   2.371   4.819   8.464 -1.2371  1.9937 -0.9134
45006SOL     OW46741   3.575   2.694   5.442 -0.0304 -0.2027  0.0266
45006SOL    HW146742   3.531   2.779   5.450 -1.8612 -1.2006  1.3980
45006SOL    HW246743   3.590   2.683   5.348 -1.4242  0.8547 -0.3506
45007SOL     OW46744   3.780   0.204   8.217  0.0751 -0.3881 -0.1596
45007SOL    HW146745   3.844   0.275   8.220 -1.3525  1.0395 -1.4589
45007SOL    HW246746   3.698   0.245   8.246 -0.7610 -1.5293 -0.8277
45008SOL     OW46747  10.144   7.550   6.884 -0.2017 -0.5920 -0.1029
45008SOL    HW146748  10.229   7.540   6.841 -0.3116  2.7028 -1.4081
45008SOL    HW246749  10.164   7.591   6.968 -0.4554  0.0619 -0.3538
45009SOL     OW46750   2.451   5.901   9.045  0.3225 -0.0340  0.5652
45009SOL    HW146751   2.385   5.965   9.070  0.4782  0.9005 -1.2285
45009SOL    HW246752   2.417   5.817   9.076 -1.9033  0.3671 -0.5984
45010SOL     OW46753   5.236   9.840   7.245  0.5550  0.2896  0.2074
45010SOL    HW146754   5.269   9.921   7.207  0.0549  0.7044  0.6422
45010SOL    HW246755   5.310   9.779   7.240  0.9412  0.7787 -0.0928
45011SOL     OW46756  11.524   4.202   3.122  0.1927 -0.3100 -0.0574
45011SOL    HW146757  11.519   4.184   3.216  2.3300  0.2436  0.2208
45011SOL    HW246758  11.589   4.139   3.089  0.8657  0.7316 -0.7843
45012SOL     OW46759   3.041   2.639   7.098  0.5253 -0.5725 -0.1679
45012SOL    HW146760   2.947   2.640   7.079  0.0711 -1.5237  1.7069
45012SOL    HW246761   3.056   2.718   7.150  1.2140  0.6340 -2.1044
45013SOL     OW46762   7.943   7.891   2.711 -0.1023 -0.4689  0.4401
45013SOL    HW146763   7.989   7.892   2.627 -0.6392  0.1827  0.1495
45013SOL    HW246764   7.853   7.869   2.688  0.2257 -2.8671  1.1084
45014SOL     OW46765   3.174  10.069   6.107  0.0307 -0.3462  0.1813
45014SOL    HW146766   3.174   9.974   6.118  1.6146 -0.3065  0.7041
45014SOL    HW246767   3.242  10.086   6.041  0.8359  0.5171  1.1885
45015SOL     OW46768   8.164   4.107   5.768 -0.1816  0.1810  0.1016
45015SOL    HW146769   8.187   4.179   5.826  1.1979 -0.8824  0.9285
45015SOL    HW246770   8.112   4.147   5.699 -1.7139  1.5367  1.9382
45016SOL     OW46771   4.263   4.446   4.313 -0.2580 -0.3487  0.4051
45016SOL    HW146772   4.199   4.512   4.339 -1.2957 -0.9572 -0.5059
45016SOL    HW246773   4.278   4.462   4.219  1.8029  0.4810  0.8179
45017SOL     OW46774   7.577   6.152   2.548 -0.6205 -0.0876  0.2120
45017SOL    HW146775   7.646   6.178   2.487 -0.2413  3.5866  1.8809
45017SOL    HW246776   7.623   6.102   2.616 -0.1284 -0.1182 -0.1397
45018SOL     OW46777   4.777   0.103   6.791  0.2784 -0.5485 -0.1764
45018SOL    HW146778   4.763   0.127   6.699  0.1291  0.0774 -0.0019
45018SOL    HW246779   4.788   0.008   6.790  0.0320 -0.5789 -0.8116
45019SOL     OW46780   1.756   3.714   0.884 -0.1275  0.2840 -0.5437
45019SOL    HW146781   1.792   3.630   0.853  0.8052 -0.0214  1.2030
45019SOL    HW246782   1.778   3.776   0.815  1.0552 -0.5168 -0.9295
45020SOL     OW46783   7.592   8.118   1.585 -0.0604  0.3520 -0.8053
45020SOL    HW146784   7.514   8.070   1.613 -0.1890  1.2044  0.3258
45020SOL    HW246785   7.565   8.210   1.583  0.7559  0.5977 -0.9642
45021SOL     OW46786   7.593   9.864   1.934  0.4240  0.4932  0.5235
45021SOL    HW146787   7.578   9.795   1.999 -0.2799  0.8497  0.7533
45021SOL    HW246788   7.599   9.944   1.986  1.5065  0.5798  0.2800
45022SOL     OW46789   7.475   4.624   1.632  0.0066  0.2979  0.3910
45022SOL    HW146790   7.559   4.606   1.676 -1.0135  0.2361  2.4547
45022SOL    HW246791   7.412   4.567   1.676 -1.2178  0.6497 -0.8265
45023SOL     OW46792   7.108  10.816   0.326 -0.1680 -0.1473 -0.0552
45023SOL    HW146793   7.052  10.848   0.255 -0.0715 -1.1050 -0.5713
45023SOL    HW246794   7.052  10.817   0.403  0.2246  2.7153  0.3278
45024SOL     OW46795   1.366   7.901   8.482 -0.0239 -0.1447  0.5089
45024SOL    HW146796   1.369   7.927   8.574  1.9630 -0.4999  0.5862
45024SOL    HW246797   1.287   7.943   8.447 -0.9188 -0.1581  2.4060
45025SOL     OW46798   1.263   4.438   4.111  0.2459  0.0410 -0.0823
45025SOL    HW146799   1.210   4.366   4.145 -0.4406  1.3680  1.7836
45025SOL    HW246800   1.331   4.395   4.059 -0.8066 -1.8720  0.0522
45026SOL     OW46801   8.888   2.905   6.529  0.1899 -0.2232 -0.0584
45026SOL    HW146802   8.886   2.939   6.619  2.2097 -1.0250  0.3536
45026SOL    HW246803   8.981   2.892   6.511 -0.2488 -1.1392 -1.8680
45027SOL     OW46804   5.166   4.523   4.356  0.0564  0.2022  0.3998
45027SOL    HW146805   5.185   4.536   4.449 -0.4343  0.0711  0.5186
45027SOL    HW246806   5.252   4.521   4.314  0.2787  3.0988  0.4631
45028SOL     OW46807   0.067   2.425  11.680 -0.3728  0.0072  0.5189
45028SOL    HW146808   0.001   2.480  11.722  0.5624  1.3558  0.2797
45028SOL    HW246809   0.027   2.399  11.597 -0.5912  0.8419  0.3552
45029SOL     OW46810   9.695   0.607  11.632 -0.2621 -0.5495  0.3037
45029SOL    HW146811   9.741   0.524  11.617  2.4101  0.6834  1.1681
45029SOL    HW246812   9.675   0.606  11.726  0.9142  0.2959  0.5766
45030SOL     OW46813   6.721  11.914  11.734 -0.2242  0.1723 -0.2094
45030SOL    HW146814   6.669  11.846  11.776  0.1777  1.2736  2.2398
45030SOL    HW246815   6.810  11.878  11.732 -0.4290 -0.3098 -1.1681
45031SOL     OW46816  11.548   1.397   8.776 -0.0723 -1.0143 -0.2963
45031SOL    HW146817  11.604   1.376   8.850 -0.5752 -2.1312 -0.2071
45031SOL    HW246818  11.459   1.398   8.812 -0.0657  3.2239  0.1183
45032SOL     OW46819   0.478   5.936   2.729  0.4607  0.2375  0.0442
45032SOL    HW146820   0.503   6.028   2.721 -1.3776  0.8284  0.5480
45032SOL    HW246821   0.391   5.932   2.687  0.0683 -1.0382  0.9417
45033SOL     OW46822   6.951   2.434   3.629 -0.5538  0.3522 -1.0575
45033SOL    HW146823   6.922   2.494   3.560  1.0369  1.2558 -0.9703
45033SOL    HW246824   7.036   2.402   3.598 -0.1141  0.2780  0.2047
45034SOL     OW46825   2.221   1.023   3.519 -0.2964 -0.0495  0.0839
45034SOL    HW146826   2.304   1.045   3.563 -0.4718 -0.3523  0.5740
45034SOL    HW246827   2.246   1.009   3.428  0.4733 -1.7163  0.5234
45035SOL     OW46828   7.529   6.499   9.532 -0.2265 -0.4260  0.0100
45035SOL    HW146829   7.538   6.405   9.546  0.0841 -0.4598 -0.3805
45035SOL    HW246830   7.448   6.523   9.577 -1.3361 -1.2105 -1.4775
45036SOL     OW46831   5.006   3.850   6.874  0.3973 -0.1213  0.2013
45036SOL    HW146832   5.067   3.850   6.801  1.2123 -0.7776  0.8585
45036SOL    HW246833   5.060   3.869   6.951 -0.5528  1.2718  0.5624
45037SOL     OW46834   4.835   1.621   4.502 -0.2533 -0.5107  0.5210
45037SOL    HW146835   4.886   1.568   4.441 -0.6593 -0.3300  0.0173
45037SOL    HW246836   4.896   1.641   4.574  0.5870  0.2149 -0.3624
45038SOL     OW46837   2.655   8.782   3.546 -0.0393  0.1675 -0.9331
45038SOL    HW146838   2.609   8.705   3.512 -0.5008  0.2019 -0.3838
45038SOL    HW246839   2.594   8.855   3.532 -0.0235  0.2643 -0.5008
45039SOL     OW46840   5.284   9.611   9.051  0.4204  0.1722 -0.0039
45039SOL    HW146841   5.241   9.581   8.971  0.4150  1.1139 -0.3652
45039SOL    HW246842   5.223   9.674   9.090 -0.0430 -1.0315  1.3101
45040SOL     OW46843  11.612   8.432   9.800 -0.6359 -0.3371  0.4143
45040SOL    HW146844  11.569   8.516   9.814 -1.3200 -0.0706 -2.5417
45040SOL    HW246845  11.690   8.453   9.749 -0.2189 -1.3903  0.5950
45041SOL     OW46846   5.849   5.162   9.952 -0.1847 -0.4044  0.3877
45041SOL    HW146847   5.828   5.091  10.013  0.7160 -0.9591  0.0663
45041SOL    HW246848   5.858   5.239  10.008 -0.1489 -0.7451  0.8573
45042SOL     OW46849   9.408   6.322  10.343  0.1673 -0.3094  0.3080
45042SOL    HW146850   9.482   6.380  10.326 -0.3582  0.0877 -0.6991
45042SOL    HW246851   9.341   6.380  10.381 -0.1217 -0.3700 -0.0975
45043SOL     OW46852   9.650   8.201   6.825  0.0291  0.3729  0.1501
45043SOL    HW146853   9.714   8.246   6.880 -0.2493 -0.1684  0.9424
45043SOL    HW246854   9.617   8.268   6.765  0.8089  0.8249  0.2158
45044SOL     OW46855   5.149   5.057   7.228  0.0677  0.2007  0.3914
45044SOL    HW146856   5.094   5.065   7.150  1.4280  1.0824 -0.5303
45044SOL    HW246857   5.219   4.996   7.202  0.3972  0.3156  0.9952
45045SOL     OW46858   8.046   5.520   8.127 -0.2251  0.1412  0.9847
45045SOL    HW146859   7.998   5.505   8.045  0.2422  0.4832  0.6371
45045SOL    HW246860   7.998   5.470   8.193 -1.2430  0.7239  0.7103
45046SOL     OW46861   6.446   5.588  11.224  0.2252 -0.0849 -0.1187
45046SOL    HW146862   6.393   5.603  11.146  0.2260  1.2992  0.1244
45046SOL    HW246863   6.460   5.676  11.261  1.7745 -0.5255  0.4131
45047SOL     OW46864   6.747   7.037   2.749  0.8856  0.6464 -0.1013
45047SOL    HW146865   6.837   7.057   2.721  1.3185  0.2966  0.9755
45047SOL    HW246866   6.757   6.964   2.811 -0.2183  0.1058 -0.5387
45048SOL     OW46867   7.794   6.560   3.476 -0.0715 -0.6086 -0.1280
45048SOL    HW146868   7.737   6.504   3.529 -1.5693  0.6900 -0.3137
45048SOL    HW246869   7.824   6.627   3.537 -1.4606  0.6414 -0.7691
45049SOL     OW46870  10.293   9.703   5.867 -0.0567 -0.2136  0.1924
45049SOL    HW146871  10.199   9.684   5.867 -0.4190  1.3531  1.3336
45049SOL    HW246872  10.298   9.797   5.852  1.2095  0.0729  2.0119
45050SOL     OW46873   5.612   6.016   5.280 -0.0362  0.4118  0.5066
45050SOL    HW146874   5.554   6.032   5.354 -0.5374  2.2049 -0.2136
45050SOL    HW246875   5.596   5.925   5.256  0.0685 -0.1876  2.5022
45051SOL     OW46876   6.510   0.679   4.186 -0.3022 -0.6277  0.1656
45051SOL    HW146877   6.457   0.683   4.107 -0.4525 -1.1986  0.2306
45051SOL    HW246878   6.597   0.709   4.158 -1.1557  2.4548  0.5519
45052SOL     OW46879   1.432   2.986   3.670  0.4195 -0.0118 -0.1282
45052SOL    HW146880   1.450   2.904   3.717  1.6688  0.6637  0.6300
45052SOL    HW246881   1.341   3.007   3.692  1.0407  0.4378  2.3087
45053SOL     OW46882   2.120   6.760   1.886 -0.3396 -0.8314  0.8571
45053SOL    HW146883   2.024   6.755   1.888 -0.2975 -1.6078  1.8840
45053SOL    HW246884   2.143   6.799   1.971  0.2304  0.0110  0.3261
45054SOL     OW46885   2.383   5.264   0.573  0.1045 -0.2610  0.0327
45054SOL    HW146886   2.347   5.278   0.660  1.1634 -2.2929  0.8775
45054SOL    HW246887   2.384   5.351   0.532 -2.6416  0.3510  1.1142
45055SOL     OW46888   4.764   9.292   5.217  0.0810  0.0822 -0.2781
45055SOL    HW146889   4.821   9.283   5.293  1.3408 -2.0577 -1.3838
45055SOL    HW246890   4.676   9.297   5.253  0.7819  1.4057  1.3785
45056SOL     OW46891   8.123   1.131   5.304 -0.4130 -0.5734  0.6453
45056SOL    HW146892   8.181   1.179   5.364 -1.8033  1.7792  0.2211
45056SOL    HW246893   8.139   1.169   5.218 -3.4509  1.1622  0.7112
45057SOL     OW46894   6.961   9.948   7.257 -0.9803 -0.5377 -0.2949
45057SOL    HW146895   6.975  10.014   7.189  0.1783  0.5481  0.9363
45057SOL    HW246896   6.907   9.881   7.214 -0.7527  0.3557 -2.1021
45058SOL     OW46897   2.405   2.547   1.398 -0.0846 -0.6267  0.5141
45058SOL    HW146898   2.360   2.540   1.482 -0.4408  1.6863  0.5590
45058SOL    HW246899   2.357   2.613   1.349  0.5529 -1.3997 -1.2645
45059SOL     OW46900   6.618  10.356   9.776  0.0349 -0.2492 -0.2910
45059SOL    HW146901   6.710  10.334   9.766  0.6482  2.1021 -0.2343
45059SOL    HW246902   6.572  10.277   9.746  2.0202 -1.8628  0.6487
45060SOL     OW46903   1.835  10.373   5.616 -0.0583 -0.0938  0.1290
45060SOL    HW146904   1.894  10.430   5.664  1.5042 -0.7308 -0.9614
45060SOL    HW246905   1.768  10.348   5.680  0.5170  1.1014  1.2335
45061SOL     OW46906   3.364  10.131   0.367 -0.0679  0.0246  0.0539
45061SOL    HW146907   3.272  10.121   0.342 -0.4293  2.8040 -0.0281
45061SOL    HW246908   3.412  10.127   0.284 -0.1524 -0.9422  0.0453
45062SOL     OW46909   5.662  11.830   9.786  0.5332 -0.2296  0.2556
45062SOL    HW146910   5.694  11.822   9.876  0.6263  1.7004  0.4454
45062SOL    HW246911   5.568  11.815   9.793  0.8129 -2.2028  0.2977
45063SOL     OW46912   4.589  11.348   8.187 -0.3313 -0.1438 -0.1537
45063SOL    HW146913   4.633  11.360   8.103  2.9267 -0.7714  1.3055
45063SOL    HW246914   4.530  11.274   8.172  1.0297 -0.9989 -1.6208
45064SOL     OW46915   6.761  11.684   1.890 -0.2932  0.1278  0.3911
45064SOL    HW146916   6.798  11.596   1.885 -0.6058 -0.0855  1.6149
45064SOL    HW246917   6.795  11.720   1.972  0.8630  1.6469 -0.6962
45065SOL     OW46918   9.909   1.304   8.032  0.7934 -0.2390  0.1585
45065SOL    HW146919   9.848   1.269   8.097 -0.2570  0.9802 -0.1383
45065SOL    HW246920   9.905   1.241   7.959 -0.4258  0.0314 -0.0249
45066SOL     OW46921   3.523   9.885  11.114  0.4589 -0.4805  0.2171
45066SOL    HW146922   3.519   9.827  11.038 -0.4196 -1.1682  0.7708
45066SOL    HW246923   3.465   9.958  11.092  0.3582 -0.5808  0.1549
45067SOL     OW46924   3.173   8.063   5.321 -0.2066  0.8009 -0.3367
45067SOL    HW146925   3.234   8.059   5.248 -2.0645 -0.2127 -1.9402
45067SOL    HW246926   3.159   7.972   5.346  0.1949  1.1129  1.1571
45068SOL     OW46927   7.854   9.238   7.867 -0.0610 -0.1581 -0.8756
45068SOL    HW146928   7.856   9.187   7.948  0.7078  2.2763  0.7406
45068SOL    HW246929   7.768   9.280   7.867  0.5197  1.0698 -0.4715
45069SOL     OW46930   1.436   2.962   8.864  0.2874  0.2593  0.2065
45069SOL    HW146931   1.379   3.032   8.895 -0.0930 -0.0150  0.1383
45069SOL    HW246932   1.506   2.957   8.929  0.2712  0.6443  0.2561
45070SOL     OW46933   1.065   6.652   6.406 -0.3702 -0.2265 -0.6373
45070SOL    HW146934   1.012   6.669   6.484  0.5570  1.4022 -0.3294
45070SOL    HW246935   1.101   6.565   6.421 -0.1993  0.0620  0.7710
45071SOL     OW46936  10.740   3.477   9.963 -0.3197 -0.6326  0.7787
45071SOL    HW146937  10.825   3.509   9.993 -0.6361  1.1356 -0.0886
45071SOL    HW246938  10.677   3.541   9.996 -1.1170 -0.9506 -0.0746
45072SOL     OW46939   4.818   1.261   2.665  0.2395  0.3552 -0.5647
45072SOL    HW146940   4.864   1.326   2.718  1.9714 -1.3931  0.2218
45072SOL    HW246941   4.725   1.281   2.677  0.6896  2.1083  0.3459
45073SOL     OW46942   5.675   7.711   8.741  0.0161  0.7975 -0.4791
45073SOL    HW146943   5.617   7.644   8.778  2.5115 -1.2978 -0.1157
45073SOL    HW246944   5.666   7.701   8.646  1.0725 -0.7941 -0.4452
45074SOL     OW46945   1.447   3.236   5.923 -0.0795  0.3396 -0.2670
45074SOL    HW146946   1.422   3.144   5.929 -1.0531  0.4368 -2.2146
45074SOL    HW246947   1.532   3.235   5.880 -0.0443  0.3501 -0.1979
45075SOL     OW46948   2.485   1.035   9.719 -0.3855  0.0041  0.1714
45075SOL    HW146949   2.575   1.067   9.715 -1.1211  2.3059  0.1686
45075SOL    HW246950   2.475   1.002   9.808  1.1035 -2.5742 -0.5361
45076SOL     OW46951   0.519   6.614  10.260  0.5946 -0.5113 -0.2850
45076SOL    HW146952   0.606   6.603  10.297  1.0073  0.9116 -0.7522
45076SOL    HW246953   0.478   6.682  10.314  0.5727  0.3380 -1.3143
45077SOL     OW46954   9.452   8.533  11.321 -0.2586  0.4369 -0.4534
45077SOL    HW146955   9.528   8.543  11.377  0.4602  0.7174 -1.4570
45077SOL    HW246956   9.475   8.461  11.261 -0.7023  0.6389 -0.8795
45078SOL     OW46957   5.090   7.311   9.194  0.0743  0.4791 -0.4750
45078SOL    HW146958   5.092   7.316   9.098  1.0217  1.7073 -0.4156
45078SOL    HW246959   5.067   7.400   9.222  1.1286  0.4829  0.4549
45079SOL     OW46960   9.098   5.111   4.897 -0.2461  0.2477 -0.3197
45079SOL    HW146961   9.111   5.206   4.888  0.8123  0.2492  0.8885
45079SOL    HW246962   9.153   5.073   4.829  0.3858  0.4856  0.0430
45080SOL     OW46963   3.795   0.229   7.581 -0.2862 -0.1719  0.5957
45080SOL    HW146964   3.707   0.222   7.619 -0.0531  1.0486  1.4509
45080SOL    HW246965   3.845   0.159   7.623 -0.7679 -0.6502  0.3682
45081SOL     OW46966   3.150  11.463   3.859 -0.3148 -0.5092  0.2767
45081SOL    HW146967   3.163  11.387   3.915 -0.8742 -0.8561 -0.0550
45081SOL    HW246968   3.157  11.429   3.769  2.5564  0.3735  0.0755
45082SOL     OW46969   9.481   3.021   9.698 -0.4301 -0.6053 -0.2675
45082SOL    HW146970   9.409   2.958   9.698 -0.1785 -0.9035 -0.8364
45082SOL    HW246971   9.460   3.082   9.628 -0.4050 -0.3698 -0.0706
45083SOL     OW46972   0.568   5.026   0.822 -0.8104 -0.0823 -0.1559
45083SOL    HW146973   0.630   5.099   0.823  0.3085 -0.9538 -1.6224
45083SOL    HW246974   0.485   5.065   0.849  0.2057  1.2497  1.2900
45084SOL     OW46975   3.701   2.710   9.290  0.7375 -0.8706 -0.0839
45084SOL    HW146976   3.611   2.700   9.323  0.0961 -0.0915 -1.5176
45084SOL    HW246977   3.755   2.710   9.369 -0.3997 -2.4527  0.7610
45085SOL     OW46978   1.067   5.074  11.269 -0.5807  0.1884  0.0967
45085SOL    HW146979   1.104   4.986  11.275 -0.9505  0.0023 -0.2500
45085SOL    HW246980   1.024   5.088  11.353  2.6394  1.5384  1.6871
45086SOL     OW46981   9.133   9.024   6.454  0.4712  0.7622 -0.0155
45086SOL    HW146982   9.095   8.961   6.516  1.9305  1.8103  2.0682
45086SOL    HW246983   9.064   9.089   6.441  0.3830  0.9286  1.1567
45087SOL     OW46984   1.056   5.391   3.559 -0.3909 -0.2401 -0.2470
45087SOL    HW146985   0.998   5.323   3.524 -1.1847 -0.4834  1.4254
45087SOL    HW246986   0.997   5.450   3.607  0.5763  0.3612  0.2306
45088SOL     OW46987   3.415   6.890   0.985  0.6322  0.1815 -0.0264
45088SOL    HW146988   3.468   6.970   0.987 -0.0575  0.6808 -0.8776
45088SOL    HW246989   3.452   6.839   0.912  1.9600 -0.9454  1.3635
45089SOL     OW46990  10.475   4.349   1.213  0.2662 -0.6999  0.0372
45089SOL    HW146991  10.563   4.328   1.183  0.5962  1.6328 -0.8418
45089SOL    HW246992  10.419   4.281   1.176  1.5800 -1.7888 -0.0141
45090SOL     OW46993   3.001  10.365  11.955 -0.4626 -0.0341  1.2109
45090SOL    HW146994   3.066  10.294  11.950 -1.1672 -0.6192 -0.3098
45090SOL    HW246995   2.930  10.330  12.008  0.0543  0.2791  2.1260
45091SOL     OW46996  11.415   1.798   6.981 -0.8118 -0.0800 -0.2472
45091SOL    HW146997  11.343   1.851   6.947 -1.9112 -1.1018  0.3977
45091SOL    HW246998  11.410   1.717   6.930 -0.9212 -0.6417  0.6296
45092SOL     OW46999   1.773  11.782   8.577 -0.1675 -0.0830 -0.2026
45092SOL    HW147000   1.718  11.853   8.611  1.0728  1.9740 -2.2015
45092SOL    HW247001   1.862  11.806   8.602  0.2280 -1.2495 -0.4296
45093SOL     OW47002   2.444   7.762  11.234 -0.2541 -0.6803  0.0395
45093SOL    HW147003   2.475   7.821  11.166 -1.5647 -0.0537 -0.0417
45093SOL    HW247004   2.519   7.753  11.294 -0.0723  1.2257  0.1579
45094SOL     OW47005   2.427  11.824   4.055 -0.0422  0.5370  0.0404
45094SOL    HW147006   2.521  11.804   4.055  0.1283  1.2238  0.9538
45094SOL    HW247007   2.390  11.769   3.986  0.6456 -1.5612  1.2571
45095SOL     OW47008   1.620   6.564   3.576 -0.0077  0.0185  0.1522
45095SOL    HW147009   1.584   6.650   3.555 -0.9683 -0.2447  0.6590
45095SOL    HW247010   1.557   6.526   3.637  0.6570 -0.8492  0.3181
45096SOL     OW47011   7.142   1.742  11.690  1.3285  0.0756 -0.0139
45096SOL    HW147012   7.123   1.655  11.655  2.0678 -0.0270 -0.1669
45096SOL    HW247013   7.219   1.772  11.641 -0.5275  1.9887 -1.9894
45097SOL     OW47014   7.766   4.734   4.079  0.1654 -0.4274 -0.0172
45097SOL    HW147015   7.696   4.669   4.069  0.7115 -1.2330  1.1672
45097SOL    HW247016   7.843   4.682   4.100  0.5409  0.6356  1.3110
45098SOL     OW47017   8.418   4.191  11.702  0.5989  0.3360  0.0203
45098SOL    HW147018   8.470   4.177  11.781 -0.0393 -2.0516  0.1049
45098SOL    HW247019   8.451   4.127  11.639 -0.2968  0.7450 -0.8989
45099SOL     OW47020   7.339   5.725  11.776  0.1795 -0.5168 -0.2570
45099SOL    HW147021   7.297   5.768  11.702  0.3031 -0.5000 -0.3170
45099SOL    HW247022   7.392   5.793  11.817 -1.5816  0.0727  1.1637
45100SOL     OW47023   6.805   3.969  11.242  0.1980 -0.2525  0.1402
45100SOL    HW147024   6.870   3.942  11.308  0.7196  2.1663  0.7194
45100SOL    HW247025   6.853   3.967  11.159 -0.5800 -3.7389 -0.3627
45101SOL     OW47026  11.627   2.598   8.423  0.7786 -0.3175  0.1992
45101SOL    HW147027  11.654   2.511   8.452 -0.9836 -1.1941 -0.6435
45101SOL    HW247028  11.551   2.619   8.478  0.7211  0.3489 -0.1238
45102SOL     OW47029   7.589   1.496   1.457  0.4589 -0.2523  0.1111
45102SOL    HW147030   7.677   1.523   1.484  0.6723 -1.4871  0.6983
45102SOL    HW247031   7.563   1.563   1.393  2.3594 -0.5701 -1.0990
45103SOL     OW47032  10.115  10.276  11.056  0.6735  0.9451  0.1672
45103SOL    HW147033  10.105  10.207  10.991  0.1497 -0.3128  1.5363
45103SOL    HW247034  10.110  10.357  11.005 -2.1646  0.1020 -1.1421
45104SOL     OW47035  11.767   9.441   5.565  0.1661 -0.1641 -0.4693
45104SOL    HW147036  11.684   9.439   5.613 -0.5873  2.2716 -1.5522
45104SOL    HW247037  11.834   9.444   5.634 -0.7659  0.6098  0.4302
45105SOL     OW47038   8.858   8.323   1.143  1.0099  0.2661 -0.5358
45105SOL    HW147039   8.934   8.352   1.195  1.2804 -1.3669  0.0429
45105SOL    HW247040   8.888   8.245   1.098  0.0479  0.3449 -1.3490
45106SOL     OW47041   0.529   1.261   1.151  0.7532  0.2748 -0.1738
45106SOL    HW147042   0.528   1.184   1.094 -3.7890  1.1875 -1.7676
45106SOL    HW247043   0.478   1.235   1.227  1.8385  0.8113  0.7552
45107SOL     OW47044   1.971   2.149   6.407 -0.2835 -0.0593  0.3656
45107SOL    HW147045   1.877   2.165   6.411 -0.2162  0.2786  0.5330
45107SOL    HW247046   1.987   2.082   6.473 -0.8186 -2.0608 -1.4077
45108SOL     OW47047   5.759   0.857   0.565 -0.6686 -0.5023 -0.1034
45108SOL    HW147048   5.669   0.850   0.596 -1.0449 -0.1696 -1.0882
45108SOL    HW247049   5.753   0.909   0.485  0.4384 -0.1973 -0.0072
45109SOL     OW47050   8.804  11.531   7.059 -0.4300  0.1433  0.0222
45109SOL    HW147051   8.760  11.596   7.112  1.0258  0.0666  1.4034
45109SOL    HW247052   8.856  11.582   6.997 -0.2979  0.2705  0.2377
45110SOL     OW47053   2.759  10.558   3.972 -0.3485  0.2127  0.3977
45110SOL    HW147054   2.712  10.598   3.899 -0.5260 -2.0604 -0.8015
45110SOL    HW247055   2.691  10.544   4.039 -1.1726 -1.6689 -0.7461
45111SOL     OW47056   4.918   2.768   4.231  0.3231 -0.2492 -0.2653
45111SOL    HW147057   4.865   2.732   4.159 -1.6160 -0.8843  1.3818
45111SOL    HW247058   4.945   2.854   4.199  0.9086 -1.1352 -2.3571
45112SOL     OW47059   8.503  10.175   7.194 -0.3230 -0.0693 -0.2060
45112SOL    HW147060   8.583  10.130   7.169  0.0955  0.7947 -0.4538
45112SOL    HW247061   8.528  10.267   7.202 -0.9108 -0.0053  1.3213
45113SOL     OW47062   5.056   1.913   9.840  0.4776 -0.4833  0.3665
45113SOL    HW147063   5.097   1.968   9.907  0.6781  2.3632 -1.8730
45113SOL    HW247064   4.977   1.880   9.882  1.4247 -0.2119  2.5163
45114SOL     OW47065   5.038   3.403   9.902  0.5571  0.0745 -0.5654
45114SOL    HW147066   5.118   3.354   9.920  1.0837  0.5394 -1.5130
45114SOL    HW247067   5.011   3.437   9.987 -0.5041 -2.7645  0.3486
45115SOL     OW47068   3.266   7.642   4.720  0.6149  0.4158  0.3117
45115SOL    HW147069   3.249   7.692   4.640 -3.0021 -2.6213 -1.1342
45115SOL    HW247070   3.183   7.643   4.767  1.0985 -2.1165  1.3877
45116SOL     OW47071   2.477   5.639   3.702 -0.3354 -0.0541  0.5447
45116SOL    HW147072   2.562   5.607   3.732  0.1970 -0.8144 -1.6062
45116SOL    HW247073   2.473   5.730   3.731  2.1395  0.6347 -1.0387
45117SOL     OW47074   0.508  11.523   3.525  0.2559 -0.2205  0.2105
45117SOL    HW147075   0.460  11.520   3.442  0.6688  1.6802 -0.1395
45117SOL    HW247076   0.590  11.568   3.504  0.0442  0.9793  1.7760
45118SOL     OW47077  10.484   5.341   0.148  0.2086 -0.0695  0.1218
45118SOL    HW147078  10.477   5.347   0.243 -1.5108 -0.0538  0.0175
45118SOL    HW247079  10.480   5.432   0.118 -1.2641 -0.1742 -0.0580
45119SOL     OW47080   9.022   4.326   7.654  0.2299 -0.2612 -0.0847
45119SOL    HW147081   9.060   4.239   7.661  3.1010  0.8740 -0.0036
45119SOL    HW247082   9.055   4.360   7.571  0.7817  1.3979  0.7599
45120SOL     OW47083   7.402   1.207   2.539 -0.1267 -0.2728  0.4465
45120SOL    HW147084   7.392   1.112   2.528  0.6179 -0.1751 -1.4052
45120SOL    HW247085   7.374   1.224   2.629 -1.5473 -2.0628  0.4023
45121SOL     OW47086   7.725   4.845  11.388 -0.0211 -0.3614 -0.2210
45121SOL    HW147087   7.747   4.914  11.325  0.0574 -0.5234 -0.3716
45121SOL    HW247088   7.632   4.858  11.406 -0.5876 -1.5998 -1.9847
45122SOL     OW47089   9.856  11.410   0.038  0.0299 -0.1755 -0.4101
45122SOL    HW147090   9.914  11.371  -0.027  0.8854  1.5517 -0.7164
45122SOL    HW247091   9.864  11.352   0.114  1.0319 -0.7722 -0.9486
45123SOL     OW47092  10.793   1.006   1.968  0.0335 -0.3860 -0.4292
45123SOL    HW147093  10.840   0.959   2.037 -1.4458  0.1846  1.0155
45123SOL    HW247094  10.776   0.939   1.901  0.7423 -1.1487  0.1302
45124SOL     OW47095   9.147   0.763   1.033 -0.2428 -0.0487  0.1942
45124SOL    HW147096   9.168   0.773   0.941 -0.0097  0.3724  0.2910
45124SOL    HW247097   9.054   0.739   1.034 -0.5846  1.1783 -0.1003
45125SOL     OW47098   8.600  10.142   6.663 -0.3600  0.0712  0.2547
45125SOL    HW147099   8.596  10.153   6.568 -0.2537  0.0441  0.2470
45125SOL    HW247100   8.680  10.188   6.689 -1.1987  1.4716  0.5192
45126SOL     OW47101  10.997   1.494   8.984 -0.3872 -0.0096 -0.0054
45126SOL    HW147102  10.921   1.545   8.957  0.0292  1.1680  0.9854
45126SOL    HW247103  11.058   1.558   9.019  1.0811 -0.9350 -0.7893
45127SOL     OW47104  11.850   6.457   5.627 -0.2563 -0.1584  0.3403
45127SOL    HW147105  11.799   6.386   5.587  0.0717 -0.6520  0.7755
45127SOL    HW247106  11.797   6.488   5.700 -0.3505 -0.0339  0.2184
45128SOL     OW47107   7.198   4.548  10.991 -0.1628  0.3113 -0.3671
45128SOL    HW147108   7.290   4.540  11.018 -0.3905  0.9171  0.6641
45128SOL    HW247109   7.192   4.497  10.911  0.4779 -2.0361  0.9677
45129SOL     OW47110   1.135  10.230   9.099 -0.2326 -0.5536  0.3777
45129SOL    HW147111   1.192  10.231   9.177 -0.4121 -0.8795  0.5161
45129SOL    HW247112   1.055  10.273   9.128  0.2392  0.6521 -0.0555
45130SOL     OW47113   8.329   8.696   9.252  0.0386 -0.2764 -0.3805
45130SOL    HW147114   8.406   8.641   9.263  0.1663  0.1298  0.8439
45130SOL    HW247115   8.257   8.643   9.286  0.0251 -0.0456 -0.0434
45131SOL     OW47116   9.666  10.086   9.011  0.3019  0.9387 -0.1383
45131SOL    HW147117   9.573  10.075   8.993  0.6548  0.3467 -1.8606
45131SOL    HW247118   9.685  10.023   9.080 -0.3069  0.0415 -0.7657
45132SOL     OW47119   6.558   7.687   0.300 -0.1413  0.3268 -0.3184
45132SOL    HW147120   6.645   7.686   0.261 -0.2014 -0.7996 -0.4441
45132SOL    HW247121   6.567   7.639   0.382 -0.6343  0.2688 -0.2928
45133SOL     OW47122   0.461   3.100  11.033  0.3762  0.3142  0.4926
45133SOL    HW147123   0.393   3.086  11.099  0.5679  0.0851  0.6463
45133SOL    HW247124   0.420   3.075  10.950  0.1359  0.6003  0.5267
45134SOL     OW47125   8.182   0.309   2.988 -0.3561 -0.6592 -0.1812
45134SOL    HW147126   8.158   0.260   3.066 -0.5105  1.1252  0.9518
45134SOL    HW247127   8.113   0.288   2.924 -1.5123 -0.4165  0.9404
45135SOL     OW47128   4.641   4.252   6.123  0.2326  0.0324 -0.3666
45135SOL    HW147129   4.662   4.171   6.077  0.9664  0.5070 -0.8838
45135SOL    HW247130   4.580   4.225   6.192 -0.8041 -0.7149 -1.5206
45136SOL     OW47131   9.684   2.243   8.690 -0.3369  0.7670  0.3477
45136SOL    HW147132   9.730   2.319   8.652  1.3117  0.5880  1.8278
45136SOL    HW247133   9.593   2.271   8.698 -0.1124  1.9202 -0.7805
45137SOL     OW47134   6.575  11.093   4.840 -0.0426  0.3324  0.0828
45137SOL    HW147135   6.630  11.079   4.763 -2.6122  1.5679 -2.0938
45137SOL    HW247136   6.528  11.010   4.852 -0.2833  0.4309 -0.1954
45138SOL     OW47137   0.173   4.780  10.922 -0.2025  0.3621  0.4122
45138SOL    HW147138   0.133   4.841  10.983  0.4297 -0.3275  1.5667
45138SOL    HW247139   0.163   4.694  10.965  0.6404 -0.0779 -0.2416
45139SOL     OW47140   1.125   5.017  10.432  0.2591  0.4225  0.0265
45139SOL    HW147141   1.136   5.087  10.368  0.8511  0.5822  0.2918
45139SOL    HW247142   1.097   5.062  10.512  0.4934  0.3436  0.1545
45140SOL     OW47143   4.243  10.596   4.884 -1.2102 -0.5437 -0.0933
45140SOL    HW147144   4.199  10.525   4.837 -1.7020  0.8205 -1.8122
45140SOL    HW247145   4.336  10.582   4.866 -1.3957  0.0324 -1.6738
45141SOL     OW47146   2.875   8.687   7.339  0.2738  0.0692 -0.1933
45141SOL    HW147147   2.837   8.702   7.425  1.4765  1.4561  0.1367
45141SOL    HW247148   2.865   8.770   7.293  0.3417 -0.4188 -1.1100
45142SOL     OW47149   7.869   5.731   7.195 -0.3989  0.2529 -0.3538
45142SOL    HW147150   7.957   5.768   7.190 -0.0027 -0.4485  0.9279
45142SOL    HW247151   7.879   5.655   7.252 -1.9545  0.5068  0.2887
45143SOL     OW47152   9.560   6.636   5.049 -0.1399 -0.1726 -0.0616
45143SOL    HW147153   9.507   6.686   5.112 -1.3195 -0.2590 -0.9444
45143SOL    HW247154   9.647   6.631   5.089  0.3317  3.4193 -0.3346
45144SOL     OW47155   9.620  11.075   6.948  0.1850 -0.2256 -0.0668
45144SOL    HW147156   9.697  11.066   6.891  0.0248 -0.2789 -0.2768
45144SOL    HW247157   9.568  11.144   6.906 -0.6720 -1.2963 -0.8225
45145SOL     OW47158   3.238  11.257   6.249  0.3724 -0.0837  0.0572
45145SOL    HW147159   3.326  11.293   6.238  1.1244 -2.4724 -3.3615
45145SOL    HW247160   3.252  11.165   6.270 -1.3996 -0.0843  1.4765
45146SOL     OW47161   2.565   7.064  10.016  0.4833  0.1137  0.1955
45146SOL    HW147162   2.602   6.980   9.989 -0.8408 -0.6765  0.7921
45146SOL    HW247163   2.565   7.117   9.936 -0.8752 -1.2704 -0.7586
45147SOL     OW47164   1.311   9.080   8.347  0.2323 -0.0923 -0.0883
45147SOL    HW147165   1.342   9.170   8.352  1.8819 -0.6304 -0.0365
45147SOL    HW247166   1.244   9.082   8.279  0.7908  1.0452 -0.6366
45148SOL     OW47167   8.101  11.360   0.061  0.4102 -0.0109 -0.5124
45148SOL    HW147168   8.161  11.286   0.052  1.3507  0.4776  1.2260
45148SOL    HW247169   8.159  11.436   0.073 -0.5459  0.9117 -1.5355
45149SOL     OW47170   6.101   0.475  10.437  0.1038  0.7795  0.5585
45149SOL    HW147171   6.168   0.523  10.389 -1.6416  0.9974 -1.8753
45149SOL    HW247172   6.030   0.538  10.449 -1.1165 -0.3636 -0.2436
45150SOL     OW47173   7.342   6.797   0.173 -0.3302  0.1650  0.3046
45150SOL    HW147174   7.377   6.719   0.216 -0.9472 -1.5502 -2.0333
45150SOL    HW247175   7.303   6.849   0.243  2.2985 -0.3489  2.2851
45151SOL     OW47176   8.503  10.170   2.026  0.2339 -0.0388  0.0629
45151SOL    HW147177   8.447  10.245   2.005  0.4519  0.0089 -0.3744
45151SOL    HW247178   8.521  10.179   2.119 -1.7532 -0.9175  0.5781
45152SOL     OW47179   5.216   8.419   5.931 -0.2153 -0.1668 -0.2866
45152SOL    HW147180   5.179   8.338   5.898  1.2037 -1.0612  0.2588
45152SOL    HW247181   5.310   8.412   5.916  0.2686  0.2286  2.0624
45153SOL     OW47182   6.807   0.183   4.671  0.2730 -0.1679  0.0089
45153SOL    HW147183   6.750   0.256   4.693  2.0107  1.4774 -0.6520
45153SOL    HW247184   6.853   0.211   4.592  1.3585 -1.7505  0.0263
45154SOL     OW47185   4.604  10.888   4.723 -0.1294 -0.2662 -0.4568
45154SOL    HW147186   4.695  10.882   4.693  0.1224 -0.2621  0.2694
45154SOL    HW247187   4.556  10.924   4.649  0.2884 -1.1567 -1.1838
45155SOL     OW47188   4.105   9.325   4.229  0.0070  0.6871 -0.4494
45155SOL    HW147189   4.165   9.291   4.163 -1.8515  1.3960 -2.6198
45155SOL    HW247190   4.141   9.411   4.252  0.6677  0.4355 -0.5028
45156SOL     OW47191   6.492   6.605   5.372 -0.1948 -0.3083  0.6587
45156SOL    HW147192   6.567   6.653   5.407  0.0284 -0.9895  1.1217
45156SOL    HW247193   6.519   6.577   5.284 -1.4488  3.0971 -1.0130
45157SOL     OW47194   8.200   2.099  10.683  0.3969  0.7471  0.1777
45157SOL    HW147195   8.147   2.176  10.705 -1.0656 -0.1852  0.0671
45157SOL    HW247196   8.151   2.057  10.612  1.2713 -0.1914  0.1225
45158SOL     OW47197   3.764   4.361   8.748  0.0903  0.6506 -0.0169
45158SOL    HW147198   3.672   4.361   8.776  0.1627  1.3383  0.2373
45158SOL    HW247199   3.806   4.427   8.804  0.4016  1.4854 -1.2057
45159SOL     OW47200   3.952   2.656  10.891  0.0610  0.2542  0.1396
45159SOL    HW147201   3.951   2.561  10.888  0.3742  0.1967  1.3274
45159SOL    HW247202   3.860   2.681  10.904 -0.0711  0.1412 -0.5470
45160SOL     OW47203   6.938   3.290  10.489  0.4645 -0.2001  0.0796
45160SOL    HW147204   6.968   3.374  10.525 -0.9838  0.0579  0.7508
45160SOL    HW247205   6.864   3.314  10.433  1.0874 -0.8759 -1.0639
45161SOL     OW47206   3.679   4.092  11.889  0.5566 -0.0905  0.3237
45161SOL    HW147207   3.687   4.052  11.803  1.0940 -0.7778  0.6951
45161SOL    HW247208   3.747   4.160  11.891  0.3106  0.1689  0.0830
45162SOL     OW47209   2.228   0.343   9.004 -0.7179  0.1811  0.3104
45162SOL    HW147210   2.209   0.251   9.020 -2.3318  0.6943  1.5917
45162SOL    HW247211   2.290   0.368   9.073  0.1096 -0.0486 -0.3369
45163SOL     OW47212   6.997   4.290  10.772 -0.6240  0.1729  0.0090
45163SOL    HW147213   7.025   4.231  10.703 -3.1491 -1.0877 -0.0670
45163SOL    HW247214   7.016   4.243  10.853  0.6554  0.8604  0.1294
45164SOL     OW47215   8.611   8.630   8.967  0.3423 -0.4001 -0.0341
45164SOL    HW147216   8.630   8.537   8.966  0.1285 -0.4717  1.1244
45164SOL    HW247217   8.516   8.636   8.956  0.2208 -0.3861  0.9249
45165SOL     OW47218   7.393   3.831   0.584 -0.0016 -0.2792  0.6506
45165SOL    HW147219   7.460   3.882   0.538  2.2045 -2.3101  1.3604
45165SOL    HW247220   7.369   3.762   0.523 -2.5456  1.1370 -0.0943
45166SOL     OW47221   5.973  11.526   1.750 -0.1967  0.0039  0.3119
45166SOL    HW147222   6.006  11.443   1.786 -0.5565 -0.5538 -0.6199
45166SOL    HW247223   6.018  11.593   1.802 -0.5237 -0.7621  1.6530
45167SOL     OW47224  10.377  11.587   0.160 -0.2573  0.1166  0.5037
45167SOL    HW147225  10.365  11.534   0.239  0.5435 -0.5646  0.1848
45167SOL    HW247226  10.340  11.534   0.089  1.1989 -0.3631  0.0738
45168SOL     OW47227  10.747   2.210   1.954  0.1693  0.0128  0.3664
45168SOL    HW147228  10.675   2.152   1.929  1.8214 -1.4236 -1.2853
45168SOL    HW247229  10.787   2.167   2.029  0.7524 -0.4675 -0.2094
45169SOL     OW47230   8.574   1.635   6.791  0.6007 -0.8436  0.6587
45169SOL    HW147231   8.527   1.559   6.754  1.2484  0.0820 -2.3774
45169SOL    HW247232   8.506   1.702   6.800  0.6288 -0.7257  0.0334
45170SOL     OW47233   2.665   4.644   3.539  0.0756  0.1951 -0.0234
45170SOL    HW147234   2.656   4.645   3.443 -1.3321 -0.8963  0.0656
45170SOL    HW247235   2.669   4.551   3.562  2.3996  0.4550  0.8548
45171SOL     OW47236   7.003  11.202  10.565 -0.5534 -0.5579 -0.1589
45171SOL    HW147237   6.948  11.202  10.643 -3.1735 -0.6013 -1.8895
45171SOL    HW247238   6.942  11.196  10.492  1.8297 -1.7799 -2.2249
45172SOL     OW47239   2.770   1.159   5.165  0.0030 -0.3785 -0.2393
45172SOL    HW147240   2.835   1.097   5.134  1.4365 -0.4521  2.5729
45172SOL    HW247241   2.758   1.220   5.092  2.4650 -0.9708 -1.2325
45173SOL     OW47242   1.028   0.328  10.773  0.3879  0.5876  0.4791
45173SOL    HW147243   1.080   0.254  10.741  0.6505  0.7995  0.4121
45173SOL    HW247244   0.997   0.299  10.859 -0.1212  0.1136  0.1476
45174SOL     OW47245   4.506   5.273   3.817 -0.1756  0.3806 -1.0740
45174SOL    HW147246   4.538   5.359   3.845 -1.4163  0.2936  0.7942
45174SOL    HW247247   4.576   5.213   3.838  0.8554  0.9207 -2.7266
45175SOL     OW47248   4.788  11.118   3.953 -0.4290  0.1809  0.3924
45175SOL    HW147249   4.698  11.106   3.984 -0.5972 -1.4853 -0.5989
45175SOL    HW247250   4.781  11.180   3.880 -0.9680 -0.7696 -0.3920
45176SOL     OW47251   9.126   5.395   9.320  0.1787  0.1623 -0.1063
45176SOL    HW147252   9.059   5.372   9.255 -0.4384  1.6121 -0.0132
45176SOL    HW247253   9.172   5.313   9.336 -0.4003 -0.4813 -1.5247
45177SOL     OW47254   3.427  10.332  10.846 -0.3709  0.1730  0.0971
45177SOL    HW147255   3.506  10.304  10.800 -1.0590 -0.1309 -0.9260
45177SOL    HW247256   3.370  10.365  10.777 -1.6202 -0.7533  0.6676
45178SOL     OW47257   6.803   2.521   8.961 -1.1882  0.1556 -0.2161
45178SOL    HW147258   6.830   2.516   8.869 -1.0000  0.1263 -0.1605
45178SOL    HW247259   6.816   2.432   8.995 -0.2897  0.3906  0.1009
45179SOL     OW47260  11.592   1.771   7.897 -0.7646 -0.0122  0.1589
45179SOL    HW147261  11.497   1.758   7.894 -0.6264 -1.0684 -0.1025
45179SOL    HW247262  11.618   1.734   7.982 -0.5918  0.3410  0.2620
45180SOL     OW47263  11.702   0.260   3.534 -0.8825 -0.0558  0.7376
45180SOL    HW147264  11.676   0.197   3.602 -0.1011 -0.5687  0.5796
45180SOL    HW247265  11.789   0.230   3.507 -0.1797  1.5082  1.1637
45181SOL     OW47266   0.839   5.312   0.261 -0.4944  0.2843 -0.7408
45181SOL    HW147267   0.812   5.321   0.170 -3.3463  0.6121  0.0449
45181SOL    HW247268   0.825   5.399   0.299  3.1365  0.9159 -0.4691
45182SOL     OW47269   6.654  10.963   7.910 -0.4883 -0.1174 -0.7279
45182SOL    HW147270   6.660  10.982   7.816 -0.6557  1.1057 -0.5043
45182SOL    HW247271   6.562  10.939   7.924 -0.2737 -1.1841 -1.0119
45183SOL     OW47272   1.470  10.971  10.262  0.0869 -0.0951  0.3656
45183SOL    HW147273   1.457  11.047  10.319  0.6760 -0.4362  0.9699
45183SOL    HW247274   1.445  10.896  10.316  0.3635 -0.3972  0.0770
45184SOL     OW47275   0.108   1.108   8.361  0.4786  0.0480  0.2328
45184SOL    HW147276   0.188   1.110   8.309  1.1075  0.4701  1.1916
45184SOL    HW247277   0.125   1.042   8.429 -0.9668 -1.7530 -1.0378
45185SOL     OW47278   5.663  10.339   0.407 -0.7677  0.2049 -0.4039
45185SOL    HW147279   5.732  10.339   0.473 -1.9775 -1.7055  0.9628
45185SOL    HW247280   5.635  10.430   0.400  1.8213  1.0399 -1.0106
45186SOL     OW47281   4.068   9.153   5.926 -0.2298  0.4508 -0.1440
45186SOL    HW147282   4.157   9.184   5.916  0.2651 -1.1153 -1.0469
45186SOL    HW247283   4.013   9.231   5.919  1.0238  1.3342 -0.2830
45187SOL     OW47284   9.964   4.401   1.946  0.3085  0.1254  0.1029
45187SOL    HW147285  10.003   4.486   1.926 -0.7343  1.8235  4.2759
45187SOL    HW247286   9.877   4.421   1.980 -0.1826 -2.6506  0.7593
45188SOL     OW47287   8.085   4.910   8.205 -0.1983  0.3401 -0.3863
45188SOL    HW147288   8.113   4.896   8.295  0.1558  0.2917 -0.5020
45188SOL    HW247289   8.033   4.990   8.208 -0.9470 -0.1565  0.0178
45189SOL     OW47290   7.439  11.854   6.280  0.3346 -0.4803  0.2949
45189SOL    HW147291   7.388  11.879   6.356  2.2674 -2.0062  2.2226
45189SOL    HW247292   7.375  11.842   6.210 -1.7721 -1.1676  2.2512
45190SOL     OW47293   4.580   1.046   7.495 -0.6416 -0.0403 -0.8774
45190SOL    HW147294   4.571   1.131   7.451 -0.1813  1.0176  0.9900
45190SOL    HW247295   4.497   1.002   7.477 -1.4008  1.3122 -0.8521
45191SOL     OW47296   3.044   0.246   2.947 -0.1397  0.4762  0.2531
45191SOL    HW147297   3.106   0.214   2.881  2.2301 -0.5824  2.7464
45191SOL    HW247298   2.985   0.173   2.962 -0.4403  0.5812 -0.3866
45192SOL     OW47299   1.233  11.116  10.626  0.2628  0.1743  0.0028
45192SOL    HW147300   1.327  11.131  10.615 -0.2234  3.6884 -0.6814
45192SOL    HW247301   1.215  11.036  10.577  2.8799 -0.6998  0.3032
45193SOL     OW47302   8.789   7.259   7.711 -0.4452  0.0531  0.4199
45193SOL    HW147303   8.827   7.231   7.627 -1.2210 -0.4887  0.2446
45193SOL    HW247304   8.813   7.191   7.773  0.5987  0.7242  0.7801
45194SOL     OW47305   7.116   1.363   1.517  0.2043  0.7320  0.2492
45194SOL    HW147306   7.177   1.436   1.533  0.5073  0.1005  2.2617
45194SOL    HW247307   7.128   1.306   1.593 -0.7444 -0.9292 -0.8164
45195SOL     OW47308   2.109   1.455  11.403 -0.0189 -0.7132  0.2539
45195SOL    HW147309   2.126   1.389  11.469 -1.3110  0.2002  1.5660
45195SOL    HW247310   2.065   1.526  11.450  2.3786  1.6855 -0.7925
45196SOL     OW47311   1.406   2.363   9.225  0.0983 -0.0714 -0.4441
45196SOL    HW147312   1.380   2.272   9.239 -2.3369  0.6731  0.3645
45196SOL    HW247313   1.378   2.409   9.304 -1.0413  1.7789 -1.8181
45197SOL     OW47314   8.736  10.232  10.444 -0.0915  0.0238  0.1124
45197SOL    HW147315   8.642  10.221  10.430 -0.2441  0.3623  0.8485
45197SOL    HW247316   8.748  10.223  10.539  0.4050  1.5258  0.2080
45198SOL     OW47317   7.701   7.634   6.221 -0.5264 -0.0282 -0.4116
45198SOL    HW147318   7.786   7.589   6.223 -0.5637 -0.0957 -0.3424
45198SOL    HW247319   7.681   7.651   6.313 -0.8950 -0.5823 -0.3872
45199SOL     OW47320  10.178  11.708  11.234 -0.8613  0.0201  0.4988
45199SOL    HW147321  10.222  11.637  11.280  3.8408  2.6763  0.7298
45199SOL    HW247322  10.207  11.699  11.143  0.3314  1.8189  0.6419
45200SOL     OW47323  10.882   3.388   7.274  0.7004  0.4042  0.4947
45200SOL    HW147324  10.903   3.295   7.267 -1.7440 -0.1227 -1.3047
45200SOL    HW247325  10.804   3.391   7.328 -0.4175  1.1347 -1.0657
45201SOL     OW47326   6.183  11.750   5.116 -0.3279 -0.2510  0.3077
45201SOL    HW147327   6.172  11.659   5.089  1.6407  0.3300 -2.9912
45201SOL    HW247328   6.270  11.753   5.156 -0.2059  0.2494  0.0144
45202SOL     OW47329   4.406   3.371   3.697  0.8031  0.1969 -0.2740
45202SOL    HW147330   4.418   3.354   3.603  0.2555 -1.1948 -0.1211
45202SOL    HW247331   4.312   3.357   3.711  1.1186 -1.0977  0.7355
45203SOL     OW47332   4.031   2.365   4.754 -0.1902 -0.2359 -0.2735
45203SOL    HW147333   4.100   2.298   4.760  0.1778 -0.0601 -2.0065
45203SOL    HW247334   3.956   2.319   4.716  0.0992  0.3162 -1.5731
45204SOL     OW47335   5.417   3.468   2.661  0.5844  0.2268  0.3142
45204SOL    HW147336   5.367   3.525   2.719 -0.1020 -0.5000  0.4402
45204SOL    HW247337   5.386   3.490   2.573  0.3101  0.0316  0.3639
45205SOL     OW47338   2.492   0.919   0.164 -0.2647  0.2848  0.2492
45205SOL    HW147339   2.425   0.987   0.177  0.5461  1.1214  0.1919
45205SOL    HW247340   2.539   0.916   0.247 -0.8402 -0.8296  0.5409
45206SOL     OW47341   6.020   8.268   8.841  0.0637  0.0001 -0.0541
45206SOL    HW147342   6.032   8.241   8.932 -0.4017 -0.1178 -0.0240
45206SOL    HW247343   6.061   8.199   8.789  1.3571  0.6414  0.0860
45207SOL     OW47344   1.657   8.833   8.729  0.3960 -0.4807  0.0963
45207SOL    HW147345   1.677   8.924   8.704  0.4952 -0.2291  1.0591
45207SOL    HW247346   1.564   8.823   8.707  0.1091  0.1966  0.9391
45208SOL     OW47347   1.353   5.581  10.473  0.3914  0.0838 -0.2743
45208SOL    HW147348   1.353   5.607  10.565  0.1856  0.0247 -0.2559
45208SOL    HW247349   1.295   5.644  10.431 -0.9415 -0.9449 -0.0502
45209SOL     OW47350   3.542   2.166   9.140  0.1708  0.0131  0.0330
45209SOL    HW147351   3.585   2.235   9.190  0.8525  0.4892 -1.1465
45209SOL    HW247352   3.468   2.210   9.097  1.2614  0.3360 -1.6202
45210SOL     OW47353   7.199   7.164   1.059 -0.0420  0.1967 -0.0535
45210SOL    HW147354   7.212   7.078   1.099 -1.1210 -0.0901 -0.2791
45210SOL    HW247355   7.104   7.174   1.055  0.0656  1.6352  0.4502
45211SOL     OW47356   6.989   4.813   2.234 -0.3296  0.0481  0.0140
45211SOL    HW147357   6.983   4.733   2.181 -1.6028 -0.3327  0.7011
45211SOL    HW247358   6.959   4.882   2.175 -0.7918 -0.2294 -0.0877
45212SOL     OW47359  11.545   3.436   9.293 -0.3341 -0.1142 -0.3447
45212SOL    HW147360  11.467   3.447   9.238 -0.2666  0.5153 -0.3138
45212SOL    HW247361  11.617   3.467   9.239 -0.1837 -0.0990 -0.1333
45213SOL     OW47362   7.748   5.268   0.391  0.2111  0.7898  0.6345
45213SOL    HW147363   7.784   5.198   0.445 -0.8271  0.9078  1.5205
45213SOL    HW247364   7.724   5.225   0.309  3.2053  0.8915 -0.4295
45214SOL     OW47365   6.583  11.385   4.750  0.1304  0.0728  0.5484
45214SOL    HW147366   6.626  11.304   4.776  0.0731 -0.6092 -1.2975
45214SOL    HW247367   6.511  11.357   4.693  0.2941  1.4252 -0.3817
45215SOL     OW47368   8.468   2.211   0.266  0.0425  0.4051 -0.0977
45215SOL    HW147369   8.396   2.268   0.241  0.3218  0.0431 -1.9005
45215SOL    HW247370   8.440   2.124   0.239  1.0734  0.2388 -0.6827
45216SOL     OW47371   4.006  10.363   7.105 -0.3982  0.4533  0.2607
45216SOL    HW147372   3.918  10.342   7.073  0.3801 -3.6436  0.2112
45216SOL    HW247373   4.065  10.337   7.034  0.9382  0.7152  1.2238
45217SOL     OW47374  11.115   7.906   9.393 -0.1351  0.2824 -0.2828
45217SOL    HW147375  11.145   7.823   9.358  0.1761  0.7353 -1.1275
45217SOL    HW247376  11.093   7.888   9.484  1.7431 -0.2821  0.0920
45218SOL     OW47377   7.786  10.927   2.903  0.2033  0.0483  0.3656
45218SOL    HW147378   7.877  10.910   2.878 -0.4713 -1.4861 -1.2599
45218SOL    HW247379   7.791  11.002   2.963  2.3674  1.0810 -0.9834
45219SOL     OW47380   3.812   9.715   4.347 -0.2942 -0.0754  0.0168
45219SOL    HW147381   3.760   9.794   4.362  0.1217  0.8272 -2.6543
45219SOL    HW247382   3.748   9.651   4.315 -0.4854 -0.5383  1.3014
45220SOL     OW47383   2.333  10.139   2.085 -0.1953  0.4988 -0.2005
45220SOL    HW147384   2.359  10.057   2.043  1.1372  0.5246  0.5231
45220SOL    HW247385   2.253  10.118   2.133 -0.8696  0.0913 -1.4597
45221SOL     OW47386   2.475   0.829   2.897 -0.4076 -0.3322 -0.2078
45221SOL    HW147387   2.409   0.782   2.947 -0.2150  1.5742  2.0302
45221SOL    HW247388   2.427   0.867   2.823 -1.7055  0.4051  0.9660
45222SOL     OW47389   8.517   6.905   0.063 -0.2675  0.1573 -0.3540
45222SOL    HW147390   8.565   6.854  -0.002  1.1117  0.7955  0.1322
45222SOL    HW247391   8.428   6.912   0.028 -0.1495 -1.4582 -1.0507
45223SOL     OW47392   5.096   7.266   4.451  0.3048  0.7946  0.3312
45223SOL    HW147393   5.074   7.344   4.501  0.0316  0.7635  0.2618
45223SOL    HW247394   5.013   7.219   4.442  0.3495  0.8047 -0.1593
45224SOL     OW47395   5.707  10.556   4.507 -0.3873 -0.0784  0.3226
45224SOL    HW147396   5.666  10.513   4.582  0.4308 -1.6200 -0.0607
45224SOL    HW247397   5.741  10.483   4.454 -0.3586  1.0034 -1.1954
45225SOL     OW47398   6.506   1.781   2.472  0.5277  0.9617  0.0891
45225SOL    HW147399   6.460   1.697   2.463 -0.2361  1.3530  0.2567
45225SOL    HW247400   6.484   1.811   2.560  0.4722  1.5262 -0.1146
45226SOL     OW47401   0.135   1.094   9.193 -0.0341  0.1915  0.5637
45226SOL    HW147402   0.172   1.166   9.142  1.8521 -1.5122 -0.5886
45226SOL    HW247403   0.156   1.116   9.283 -0.1093  1.4069  0.3138
45227SOL     OW47404  10.193   2.751  10.298  0.0415 -0.6751 -0.0742
45227SOL    HW147405  10.184   2.715  10.209 -1.9473  0.0767 -0.2270
45227SOL    HW247406  10.112   2.725  10.342  0.0150  0.8268  0.8257
45228SOL     OW47407   2.076   5.798   0.732  0.3809 -0.0407 -0.3868
45228SOL    HW147408   2.059   5.753   0.649 -0.5186  1.0131 -0.8092
45228SOL    HW247409   2.094   5.728   0.794 -0.6458 -0.9751 -1.0839
45229SOL     OW47410   1.017   1.147   9.489  0.4315  0.4157  0.0498
45229SOL    HW147411   1.038   1.055   9.476 -0.2285  0.1559  0.7768
45229SOL    HW247412   1.037   1.188   9.404  0.6549 -0.3993 -0.3026
45230SOL     OW47413   5.752   1.253   6.650 -0.2880 -0.2505  0.3505
45230SOL    HW147414   5.809   1.310   6.701  0.9992 -1.6873  0.5818
45230SOL    HW247415   5.812   1.195   6.603 -1.5164 -0.5319 -0.9392
45231SOL     OW47416   7.465   0.143   3.940  0.7330 -0.0995  0.1663
45231SOL    HW147417   7.482   0.168   4.031  0.8379  0.6645 -0.0590
45231SOL    HW247418   7.370   0.153   3.930  0.8036  0.4365  0.0126
45232SOL     OW47419   3.915   1.359   1.816 -0.0847  0.0523  0.3922
45232SOL    HW147420   3.865   1.378   1.736  0.1721  0.5112  0.3373
45232SOL    HW247421   3.859   1.390   1.887  0.3628  1.1429  0.3006
45233SOL     OW47422  11.098   2.488   9.210 -0.7179  0.2133 -0.1701
45233SOL    HW147423  11.046   2.427   9.263  1.5546 -1.9026 -0.2217
45233SOL    HW247424  11.188   2.474   9.239  0.2002  1.5828 -2.1548
45234SOL     OW47425   6.327   6.156  10.790 -0.1612  0.1444  0.1155
45234SOL    HW147426   6.403   6.107  10.821 -0.6636 -1.2489 -0.7691
45234SOL    HW247427   6.294   6.106  10.716  0.1166  2.5910 -1.7886
45235SOL     OW47428   7.093   8.373   1.527  0.1134  0.5375  0.7387
45235SOL    HW147429   7.153   8.373   1.452  0.8983 -1.3995  1.3036
45235SOL    HW247430   7.006   8.377   1.487  0.5138 -0.5007 -0.3067
45236SOL     OW47431   7.034   2.292   6.658  0.7146  0.1821  0.0117
45236SOL    HW147432   7.094   2.217   6.655  0.0031 -0.3998  0.1749
45236SOL    HW247433   7.075   2.352   6.720  1.8037  0.3830 -0.8710
45237SOL     OW47434   9.764   4.130   8.713  0.0116  0.3355 -0.1391
45237SOL    HW147435   9.732   4.211   8.752 -2.6037 -1.0526  0.8255
45237SOL    HW247436   9.794   4.156   8.626 -1.7152  2.1856 -0.2444
45238SOL     OW47437   6.826  10.452  10.258 -0.0375 -0.2159  0.5521
45238SOL    HW147438   6.862  10.538  10.279 -1.5405  0.6548 -0.2346
45238SOL    HW247439   6.875  10.391  10.313 -0.6712  1.4056  3.0950
45239SOL     OW47440   0.122   2.948   3.810 -0.0112 -0.2874  0.0926
45239SOL    HW147441   0.211   2.921   3.832  0.7226  1.2467 -0.8767
45239SOL    HW247442   0.132   3.032   3.766 -1.8889 -0.4067 -0.6598
45240SOL     OW47443   3.070   0.236   6.870 -0.5458  0.1239  0.5504
45240SOL    HW147444   3.118   0.175   6.814 -1.4581 -0.4877  0.4090
45240SOL    HW247445   3.026   0.180   6.934 -2.8099  0.4397 -0.6315
45241SOL     OW47446   4.312   4.507   4.056  0.6960  0.9047 -0.1078
45241SOL    HW147447   4.381   4.455   4.016  0.3811 -1.6212  2.2868
45241SOL    HW247448   4.244   4.514   3.989  0.8764 -1.6602 -0.6456
45242SOL     OW47449   3.908   1.961   7.444  0.4209  0.1773  0.0573
45242SOL    HW147450   3.868   1.940   7.360  0.5842  0.7195 -0.1560
45242SOL    HW247451   3.939   1.876   7.477 -1.5569 -0.3911  0.5898
45243SOL     OW47452  11.611   0.403   3.335  0.1102 -0.1883 -0.1675
45243SOL    HW147453  11.632   0.350   3.412  0.1283  0.5137  0.3251
45243SOL    HW247454  11.526   0.442   3.355  0.9309  1.4707  0.3403
45244SOL     OW47455   8.155   2.490   1.888 -0.2158  0.2232  0.1964
45244SOL    HW147456   8.164   2.573   1.934  2.1642  0.1554 -0.0347
45244SOL    HW247457   8.096   2.438   1.943 -0.7987  1.6421  0.9441
45245SOL     OW47458   3.158   0.063   7.842 -0.1485  0.0317  0.8030
45245SOL    HW147459   3.141  -0.015   7.789 -0.5947  1.2585 -0.9096
45245SOL    HW247460   3.248   0.088   7.820 -0.8500  1.4450 -0.6444
45246SOL     OW47461   3.558   4.104   0.959  0.3497 -0.3165 -0.3704
45246SOL    HW147462   3.600   4.074   1.039 -0.5817  0.3404  0.3840
45246SOL    HW247463   3.470   4.068   0.963 -0.0983  0.7279 -0.4903
45247SOL     OW47464   6.869   2.601   9.716 -0.2755 -0.6666 -0.0558
45247SOL    HW147465   6.936   2.538   9.741  1.7445  0.9687 -1.0774
45247SOL    HW247466   6.909   2.655   9.648 -2.1700  1.2334  0.2017
45248SOL     OW47467   6.606   3.472   9.596  0.1338 -0.5082 -0.5916
45248SOL    HW147468   6.608   3.440   9.506  1.1377  0.0673 -0.7863
45248SOL    HW247469   6.687   3.440   9.635  0.9913  1.4057 -0.6763
45249SOL     OW47470   3.300   7.437   3.362  0.0564 -0.3981  0.0455
45249SOL    HW147471   3.317   7.530   3.350 -0.1666 -0.4341 -0.5877
45249SOL    HW247472   3.225   7.418   3.306  0.3971 -1.0533 -0.2069
45250SOL     OW47473   0.429   3.654   4.718 -0.0263  0.0115  0.3271
45250SOL    HW147474   0.381   3.675   4.639 -1.4129 -0.2809  1.0589
45250SOL    HW247475   0.519   3.638   4.689 -0.6883 -0.8978 -1.2805
45251SOL     OW47476   1.826   8.620   8.651  0.2545  0.4417  0.7764
45251SOL    HW147477   1.746   8.671   8.638 -1.3257 -2.4389 -2.0887
45251SOL    HW247478   1.804   8.558   8.721 -1.1579 -2.1122 -1.7569
45252SOL     OW47479   5.882   5.124   2.771 -0.1202  0.1902  0.4338
45252SOL    HW147480   5.895   5.144   2.863 -1.0534  0.3980  0.5309
45252SOL    HW247481   5.796   5.161   2.750 -0.0387 -0.0911 -0.4453
45253SOL     OW47482   5.904   6.540   4.032 -0.5335  0.6693 -0.7726
45253SOL    HW147483   5.919   6.590   4.113  2.1190  1.8213 -1.8623
45253SOL    HW247484   5.844   6.470   4.058  1.4753 -0.0207  2.6480
45254SOL     OW47485  10.430   3.993   7.531 -0.3365  0.2376  0.0182
45254SOL    HW147486  10.447   3.966   7.621  0.4586  0.1367 -0.1627
45254SOL    HW247487  10.515   3.989   7.488 -0.7212  0.2564 -0.7495
45255SOL     OW47488   9.969  10.233   7.144  0.0619  0.8155  0.2036
45255SOL    HW147489   9.877  10.207   7.147  0.2230  0.2622  0.3653
45255SOL    HW247490  10.015  10.168   7.196  0.5498  1.0910  0.1269
45256SOL     OW47491   6.472   7.634   0.044 -0.0282 -0.5131  0.2685
45256SOL    HW147492   6.382   7.625   0.012  0.2337 -1.4309 -0.2652
45256SOL    HW247493   6.464   7.634   0.139 -0.8541  2.5060  0.2815
45257SOL     OW47494   9.666   1.868   9.508  0.0495 -0.4987  0.0712
45257SOL    HW147495   9.620   1.942   9.547 -1.0644 -1.3469  0.3838
45257SOL    HW247496   9.709   1.905   9.431 -0.0394  0.5855  0.5235
45258SOL     OW47497   3.029   3.009   6.320  0.3275 -0.1192 -0.5070
45258SOL    HW147498   3.058   2.920   6.298  0.9635  0.3246 -1.5251
45258SOL    HW247499   3.083   3.066   6.265 -1.2079  0.8185 -1.1165
45259SOL     OW47500   2.605   5.173  10.147  0.1185 -0.0915 -0.0981
45259SOL    HW147501   2.573   5.181  10.237 -0.1716  1.1533 -0.3044
45259SOL    HW247502   2.576   5.086  10.119  1.3558 -1.0748  1.4486
45260SOL     OW47503   3.415   3.053  11.533 -0.0850  0.5293 -0.4228
45260SOL    HW147504   3.334   3.066  11.582 -0.9032  2.7160 -2.1852
45260SOL    HW247505   3.396   3.086  11.445  2.4818  0.3656 -1.1273
45261SOL     OW47506  10.088  10.969   7.957 -0.1694 -0.5383  0.7525
45261SOL    HW147507  10.012  10.998   7.907 -0.1285 -1.2903  0.2389
45261SOL    HW247508  10.062  10.884   7.993 -0.1650 -0.0586  1.9434
45262SOL     OW47509   0.644   9.614   8.945  0.4365 -0.3046 -0.0336
45262SOL    HW147510   0.600   9.576   9.021  0.5632  0.2215  0.3045
45262SOL    HW247511   0.717   9.554   8.928 -0.2272 -1.0198 -0.4178
45263SOL     OW47512   1.603   7.555   7.418 -0.1872 -0.2543 -0.2433
45263SOL    HW147513   1.670   7.495   7.452  0.5435  0.6947  0.0272
45263SOL    HW247514   1.534   7.552   7.484  1.3979  1.8976  1.6924
45264SOL     OW47515   3.663   8.883   4.383 -0.2473 -0.4164  0.5189
45264SOL    HW147516   3.638   8.851   4.296  0.6804 -0.5323  0.2893
45264SOL    HW247517   3.608   8.834   4.443 -1.6493  0.3879 -0.0405
45265SOL     OW47518   9.077   5.013   9.727  0.1050 -0.1952  0.1405
45265SOL    HW147519   9.066   5.108   9.728 -0.4349 -0.2634  1.1563
45265SOL    HW247520   9.010   4.982   9.666 -0.4146 -0.0012  0.6054
45266SOL     OW47521   7.593   6.408   8.419  0.1073 -0.1864  0.1313
45266SOL    HW147522   7.643   6.329   8.400  1.3772  0.6226 -0.0783
45266SOL    HW247523   7.566   6.399   8.510  2.1182  0.0857  0.7995
45267SOL     OW47524   5.075   5.960   5.176 -0.2235  0.1473  0.1259
45267SOL    HW147525   5.008   5.938   5.110 -0.3876 -0.1886  0.3999
45267SOL    HW247526   5.116   6.040   5.143 -2.1897  1.5960  0.9980
45268SOL     OW47527   7.947   3.935   3.699  0.2963  0.6248  0.3948
45268SOL    HW147528   8.014   3.870   3.719  2.3882  2.2271 -0.9197
45268SOL    HW247529   7.864   3.890   3.714  1.6315 -1.2696  2.6830
45269SOL     OW47530   0.504   9.992   8.043  0.5265 -0.1463  0.0816
45269SOL    HW147531   0.548   9.919   8.001 -0.3061 -1.8765  2.0368
45269SOL    HW247532   0.416   9.993   8.005  1.1517  1.1873 -1.4126
45270SOL     OW47533   7.640   2.142   1.783  0.6239  0.4282 -0.2664
45270SOL    HW147534   7.573   2.190   1.734  0.4475  0.6698  0.2053
45270SOL    HW247535   7.703   2.114   1.717  0.9042  1.5927 -0.5126
45271SOL     OW47536   8.103   8.835   6.760 -0.6999  0.1381  0.0558
45271SOL    HW147537   8.031   8.777   6.737 -1.9418  0.1857  3.2614
45271SOL    HW247538   8.093   8.910   6.701 -1.6709 -0.9920 -1.2882
45272SOL     OW47539   0.913   5.006  11.911  0.4388  0.4563  0.7914
45272SOL    HW147540   0.986   4.949  11.934  0.4961  0.3008  0.2486
45272SOL    HW247541   0.951   5.093  11.905  0.3304  0.5759  1.7307
45273SOL     OW47542   9.958   1.604   7.731 -0.5895 -0.0061 -0.1301
45273SOL    HW147543   9.931   1.565   7.648  0.0909  0.8598 -0.7687
45273SOL    HW247544  10.034   1.552   7.758 -1.3000 -0.8091  0.3805
45274SOL     OW47545  11.873   2.055   7.625  0.0346 -0.3263 -0.6886
45274SOL    HW147546  11.920   2.004   7.692 -0.2474  2.4639  1.8639
45274SOL    HW247547  11.906   2.144   7.636 -1.3200  0.5659 -3.1885
45275SOL     OW47548   9.084   2.488   5.230 -0.2710  0.6924 -0.4297
45275SOL    HW147549   9.041   2.519   5.150 -0.2019  1.2664 -0.2456
45275SOL    HW247550   9.021   2.427   5.268 -0.9135  1.4941 -0.1895
45276SOL     OW47551   1.079  11.843   8.982  0.1194  0.5274  0.5946
45276SOL    HW147552   0.992  11.827   9.018 -0.0367 -1.7778 -0.6126
45276SOL    HW247553   1.135  11.778   9.023  0.7536  0.4264 -0.3790
45277SOL     OW47554   9.385   7.642  10.252 -0.4365 -0.4539  0.5353
45277SOL    HW147555   9.376   7.737  10.248 -0.2228 -0.4767 -1.9361
45277SOL    HW247556   9.477   7.627  10.274 -0.0054 -0.0522 -0.9275
45278SOL     OW47557   7.444   8.749   6.914 -0.6561 -0.1690 -0.1923
45278SOL    HW147558   7.446   8.734   7.009  2.3149 -2.1436 -0.4380
45278SOL    HW247559   7.500   8.826   6.902 -1.8382  0.6932 -0.3112
45279SOL     OW47560   6.826   8.857   8.441 -0.3177 -0.6894  0.4473
45279SOL    HW147561   6.913   8.869   8.403 -0.4639 -0.6644  0.1123
45279SOL    HW247562   6.767   8.852   8.365 -0.7370  0.2811  0.6931
45280SOL     OW47563   8.623   6.527   0.403 -0.0182  0.3069  0.0119
45280SOL    HW147564   8.603   6.575   0.323  0.0432 -2.1879 -1.5977
45280SOL    HW247565   8.628   6.435   0.376  1.7048 -0.4640  2.5557
45281SOL     OW47566  11.823   4.036   3.502 -0.1098 -0.3692 -0.1874
45281SOL    HW147567  11.906   4.074   3.474 -0.1902 -0.4571 -0.5416
45281SOL    HW247568  11.759   4.068   3.439 -0.4440  0.1344  0.3919
45282SOL     OW47569   2.032   8.254   8.291  1.1633 -0.0011 -0.0227
45282SOL    HW147570   2.017   8.252   8.386 -0.4003  1.6545 -0.1947
45282SOL    HW247571   2.012   8.165   8.262 -0.5962  0.0567  0.9053
45283SOL     OW47572   6.849   5.729   8.529  0.1270  0.7336  0.1427
45283SOL    HW147573   6.912   5.794   8.498  2.3184 -1.8359 -1.2805
45283SOL    HW247574   6.807   5.697   8.450 -1.1695  0.6511  0.8430
45284SOL     OW47575   8.005   1.188   3.677 -0.4242  0.0826 -0.0450
45284SOL    HW147576   8.024   1.252   3.609 -0.3256  1.0782  0.8918
45284SOL    HW247577   8.076   1.199   3.740 -0.4249 -0.9393  0.1499
45285SOL     OW47578   8.195   5.403   2.369 -0.6399  0.0247  0.2005
45285SOL    HW147579   8.173   5.316   2.336 -1.3568  0.7654 -1.4391
45285SOL    HW247580   8.112   5.438   2.402 -0.9508  0.9859 -1.4682
45286SOL     OW47581   1.689   2.528   3.957 -0.5521 -0.2815  0.5311
45286SOL    HW147582   1.715   2.442   3.990 -0.8520 -0.7436 -0.4157
45286SOL    HW247583   1.620   2.556   4.018  2.8242  1.5660  3.9150
45287SOL     OW47584  11.004   0.139   8.274 -0.2288  0.2358  0.0593
45287SOL    HW147585  10.931   0.088   8.240  0.4041  0.0842 -1.1173
45287SOL    HW247586  11.082   0.088   8.253  0.3667  1.3378 -0.5321
45288SOL     OW47587   1.556   5.417   2.996 -0.1169  0.1265 -0.2199
45288SOL    HW147588   1.637   5.397   3.043  0.0591  0.2131 -0.4849
45288SOL    HW247589   1.495   5.444   3.065  0.8323  2.6051 -0.2565
45289SOL     OW47590  10.949   5.935   5.859 -0.1033  0.2510 -0.4853
45289SOL    HW147591  10.953   6.025   5.892 -2.5463  0.0099  0.6904
45289SOL    HW247592  10.913   5.944   5.771 -1.0277  0.4082 -0.1043
45290SOL     OW47593   8.586   8.964   0.064 -0.3469  0.1592 -0.0666
45290SOL    HW147594   8.501   8.995   0.096  0.2016  1.5011  0.1574
45290SOL    HW247595   8.602   9.016  -0.015  0.0983 -0.3713 -0.3324
45291SOL     OW47596   6.702   1.868   8.435 -0.5287  0.0414  0.1929
45291SOL    HW147597   6.635   1.936   8.439 -1.5407 -0.9700  1.6529
45291SOL    HW247598   6.677   1.806   8.503  2.0947 -0.2215  1.0517
45292SOL     OW47599   2.871   4.687   6.879 -0.1508 -0.2720  0.0057
45292SOL    HW147600   2.935   4.687   6.951  1.8167 -4.2119 -1.4031
45292SOL    HW247601   2.907   4.747   6.814  0.3476  0.0913  0.6124
45293SOL     OW47602   2.449   2.516   4.196  0.0291 -0.0361 -0.1978
45293SOL    HW147603   2.435   2.532   4.289 -1.8290  3.0343 -0.8709
45293SOL    HW247604   2.501   2.591   4.166 -0.6060 -0.2192 -1.8704
45294SOL     OW47605   2.434   6.410   1.588  0.0861 -0.8871 -0.2870
45294SOL    HW147606   2.429   6.451   1.675 -0.1173  2.6621 -1.8308
45294SOL    HW247607   2.365   6.452   1.537  1.0264 -1.9224 -2.5407
45295SOL     OW47608   0.664   8.152   7.177  0.7240  0.2552 -0.5724
45295SOL    HW147609   0.622   8.114   7.254  0.1825 -0.2991 -1.1305
45295SOL    HW247610   0.592   8.176   7.120  1.0949 -2.8254 -2.5637
45296SOL     OW47611   4.940  10.251   8.902  0.0021 -0.4589  0.2931
45296SOL    HW147612   4.876  10.306   8.946 -0.9280 -0.7711 -0.6210
45296SOL    HW247613   4.887  10.183   8.859  1.0456 -1.5192  0.6353
45297SOL     OW47614   6.300   0.393   5.853 -0.4055  0.3647 -0.3379
45297SOL    HW147615   6.237   0.397   5.924 -2.0157  2.8593 -1.7535
45297SOL    HW247616   6.286   0.307   5.812 -2.4302  0.5836 -0.1832
45298SOL     OW47617  11.372  10.712  10.847 -0.0754  0.2417 -0.2772
45298SOL    HW147618  11.376  10.669  10.761  1.4762 -1.5153  0.6087
45298SOL    HW247619  11.331  10.647  10.904 -1.0360  1.3751  0.3760
45299SOL     OW47620   2.667   6.594  10.424 -0.3188 -0.7324 -0.0211
45299SOL    HW147621   2.626   6.617  10.340  0.7860  0.0250 -0.3763
45299SOL    HW247622   2.599   6.613  10.489 -1.6689 -2.5884 -0.8087
45300SOL     OW47623   6.425  11.859   2.168  0.1364  0.0071  0.1995
45300SOL    HW147624   6.429  11.951   2.142  0.0819 -0.4990 -1.7661
45300SOL    HW247625   6.453  11.859   2.260 -0.0425  1.9906  0.3038
45301SOL     OW47626   9.321  10.633   8.400  0.4959  0.5133  0.2416
45301SOL    HW147627   9.357  10.605   8.484 -0.3523 -1.9927 -0.1401
45301SOL    HW247628   9.347  10.564   8.338 -0.4183  1.3579 -1.1438
45302SOL     OW47629   9.361   7.735   4.842  0.5358 -0.1730  0.1697
45302SOL    HW147630   9.366   7.720   4.747 -0.9879 -2.0452  0.3161
45302SOL    HW247631   9.451   7.728   4.872  1.5745  3.7241 -1.4731
45303SOL     OW47632   1.382  11.395   0.783 -0.8037  0.5265  0.3458
45303SOL    HW147633   1.421  11.478   0.755 -0.0110 -0.7998 -3.0671
45303SOL    HW247634   1.288  11.410   0.780 -0.6616  1.6470  1.0929
45304SOL     OW47635   0.917   6.045   0.595  0.1193  0.1926 -0.2673
45304SOL    HW147636   0.982   6.008   0.655 -1.0708  0.3430  1.1866
45304SOL    HW247637   0.869   5.969   0.562  1.5251  0.0115 -1.9958
45305SOL     OW47638   4.257   1.023   5.052  0.1854 -0.1853  0.8605
45305SOL    HW147639   4.194   1.087   5.019  1.0418  0.2372  0.0004
45305SOL    HW247640   4.306   0.996   4.975 -0.4668 -2.2788  1.1043
45306SOL     OW47641   0.304   2.953   6.977  0.3856 -0.2990  0.0009
45306SOL    HW147642   0.312   2.861   7.002  2.4472  0.0045  0.6619
45306SOL    HW247643   0.228   2.985   7.027  0.2279 -1.3927  0.4840
45307SOL     OW47644   0.352   4.943   2.136  0.5881  0.4460  0.6765
45307SOL    HW147645   0.270   4.936   2.185  1.2098 -0.6202  1.6120
45307SOL    HW247646   0.348   5.029   2.095 -0.6975  0.6843  1.2475
45308SOL     OW47647   8.339   2.615   4.261 -0.5841  0.7246 -0.0355
45308SOL    HW147648   8.318   2.537   4.209  1.8488 -1.5689  2.1277
45308SOL    HW247649   8.279   2.611   4.336 -0.0175  0.5446  0.4123
45309SOL     OW47650   0.158  10.928   8.527 -0.1821 -0.1200  0.2389
45309SOL    HW147651   0.206  10.920   8.610 -2.2449  0.9774  1.6162
45309SOL    HW247652   0.216  10.977   8.470  1.1726 -0.6583  1.1067
45310SOL     OW47653   1.064   6.108   4.415  0.1144 -0.0913  0.4753
45310SOL    HW147654   1.143   6.144   4.456  0.1752  1.1278 -0.6389
45310SOL    HW247655   1.054   6.159   4.334 -1.0658 -1.1334 -0.0645
45311SOL     OW47656  11.476  10.629  10.597  0.0242  0.0886 -0.4702
45311SOL    HW147657  11.432  10.658  10.517 -0.3711 -2.4141 -1.2505
45311SOL    HW247658  11.485  10.534  10.586  1.0231 -0.1638  1.9551
45312SOL     OW47659   8.248   3.368   3.509  0.0978  0.3334 -0.0868
45312SOL    HW147660   8.196   3.294   3.476 -0.0309  0.2322  0.3323
45312SOL    HW247661   8.291   3.404   3.432  2.4889 -1.9676  0.0513
45313SOL     OW47662   0.030   9.124   1.055  0.1745 -0.2834 -0.0289
45313SOL    HW147663  -0.007   9.160   1.135 -1.3905 -1.8585 -0.0000
45313SOL    HW247664   0.050   9.032   1.076  0.1785 -0.5934 -1.3002
45314SOL     OW47665   4.636   0.123   4.465  0.2359  0.7839 -0.0843
45314SOL    HW147666   4.563   0.122   4.528  0.3199 -1.4133  0.0422
45314SOL    HW247667   4.701   0.181   4.505 -0.3569  0.6592  1.1080
45315SOL     OW47668   0.759   3.052   8.924  0.4728 -0.3915  0.2397
45315SOL    HW147669   0.710   2.978   8.889 -1.6410  1.0287  0.0164
45315SOL    HW247670   0.692   3.107   8.965  1.3519  3.1121 -2.5667
45316SOL     OW47671   2.324  10.437   7.207 -0.1691 -0.0954 -0.6624
45316SOL    HW147672   2.276  10.517   7.185 -1.1974 -0.4345  0.2329
45316SOL    HW247673   2.377  10.461   7.283 -1.4358 -0.5519  0.4125
45317SOL     OW47674  10.687   1.159  11.167 -0.3825 -0.5207 -0.1930
45317SOL    HW147675  10.741   1.213  11.225 -1.3497  0.8882 -0.5616
45317SOL    HW247676  10.629   1.222  11.123 -1.8066 -1.9090 -0.3699
45318SOL     OW47677   7.793   5.476   9.758  0.2184 -0.5718 -0.5243
45318SOL    HW147678   7.710   5.497   9.801  0.0563 -0.6456 -0.8002
45318SOL    HW247679   7.777   5.492   9.665  1.6270  3.1964 -0.2996
45319SOL     OW47680  11.565   4.827   7.320 -0.2152 -0.6610  0.0313
45319SOL    HW147681  11.593   4.911   7.283 -0.9134  0.2572  1.5249
45319SOL    HW247682  11.472   4.822   7.300  0.2542 -2.2495 -2.1526
45320SOL     OW47683   9.177   5.681   5.650  0.1865  0.2968  0.7733
45320SOL    HW147684   9.184   5.589   5.626 -1.2510 -0.1621  1.9269
45320SOL    HW247685   9.212   5.728   5.575  1.9158 -1.1919  0.5801
45321SOL     OW47686   8.520   0.090   4.220 -0.2178  0.0626 -0.3698
45321SOL    HW147687   8.538   0.130   4.135 -0.0799  0.8947  0.0398
45321SOL    HW247688   8.430   0.057   4.212 -0.3372  0.4611 -0.7128
45322SOL     OW47689   2.856   7.274   2.408  1.0141  0.4115 -0.1896
45322SOL    HW147690   2.929   7.227   2.448 -0.8034 -2.5234 -0.0780
45322SOL    HW247691   2.835   7.225   2.329 -0.0928  1.8811 -0.8661
45323SOL     OW47692   9.766   0.440   2.986 -0.4107 -0.4143  0.4035
45323SOL    HW147693   9.816   0.384   2.927 -0.8043 -0.0675 -0.2750
45323SOL    HW247694   9.689   0.388   3.009 -1.3528  0.2177 -1.1219
45324SOL     OW47695  10.580  10.588   6.210  0.4003 -0.1586  0.7117
45324SOL    HW147696  10.593  10.677   6.179 -1.3414 -0.4560 -1.0620
45324SOL    HW247697  10.669  10.554   6.224  1.2451  0.8317 -1.7011
45325SOL     OW47698   2.585   4.087   1.549  0.7561  0.1468  0.3962
45325SOL    HW147699   2.533   4.099   1.628  0.9574  1.7074  0.3237
45325SOL    HW247700   2.639   4.010   1.567  0.4853  0.2227  1.5955
45326SOL     OW47701   7.821   4.281   6.604 -0.2252  0.7290  0.5064
45326SOL    HW147702   7.857   4.196   6.629  0.2638 -0.0477 -2.5104
45326SOL    HW247703   7.736   4.284   6.648 -0.3246 -1.4061  0.5844
45327SOL     OW47704   3.861   4.775   7.822  0.0864  0.1678 -0.5689
45327SOL    HW147705   3.912   4.695   7.832  0.7730  0.5084 -1.2535
45327SOL    HW247706   3.849   4.807   7.912 -1.3069 -1.3618 -0.1773
45328SOL     OW47707   8.960   2.444  11.937  0.1648  0.4504  0.3283
45328SOL    HW147708   8.870   2.448  11.969  0.2791  1.3945  0.5674
45328SOL    HW247709   8.952   2.462  11.843  0.1327  0.7899  0.3971
45329SOL     OW47710   2.645   7.675  11.418 -0.0685 -0.0804  0.1382
45329SOL    HW147711   2.665   7.735  11.490  0.7478 -0.8911  0.6233
45329SOL    HW247712   2.730   7.635  11.396 -0.3759 -0.1639 -0.9936
45330SOL     OW47713   8.160   3.584   5.031 -0.1046  0.6576 -0.0131
45330SOL    HW147714   8.223   3.625   4.972 -0.4970  1.0119 -0.1993
45330SOL    HW247715   8.168   3.491   5.014  1.4930  0.5442  1.1035
45331SOL     OW47716   3.259   4.023   5.293 -0.2825 -0.1653  0.1230
45331SOL    HW147717   3.255   3.960   5.365 -0.8642 -1.2629 -0.8235
45331SOL    HW247718   3.191   3.993   5.232 -0.4982  1.3267 -0.4161
45332SOL     OW47719   4.480   9.297   7.272  0.0838 -0.0650 -0.7712
45332SOL    HW147720   4.426   9.375   7.282  2.1327  1.4666 -0.9798
45332SOL    HW247721   4.430   9.240   7.214 -1.9558  0.5861  0.2589
45333SOL     OW47722   9.157   7.191  11.744  0.1919  0.3391  0.3113
45333SOL    HW147723   9.078   7.240  11.763 -1.3100 -1.1820 -1.6153
45333SOL    HW247724   9.209   7.197  11.824 -1.2119  2.5508  1.1376
45334SOL     OW47725   6.138   7.418   8.930 -0.3267  0.2260  0.4698
45334SOL    HW147726   6.168   7.454   9.013 -0.2344 -0.2477  0.6421
45334SOL    HW247727   6.043   7.411   8.939 -0.4621  1.3008  0.0899
45335SOL     OW47728   2.469   2.249   3.587 -0.0762  0.0115 -0.4096
45335SOL    HW147729   2.513   2.165   3.572 -1.2384 -0.8251  0.7033
45335SOL    HW247730   2.376   2.229   3.583 -0.3856  1.0641  0.7721
45336SOL     OW47731  10.736   1.175   4.331  0.5248  0.1934 -0.4669
45336SOL    HW147732  10.803   1.145   4.393  1.1966  0.8417 -0.8649
45336SOL    HW247733  10.759   1.266   4.313 -1.1408  0.8036  0.2891
45337SOL     OW47734   1.130   1.972   6.500  0.4948 -0.2704 -0.2401
45337SOL    HW147735   1.166   2.014   6.421 -0.9200  0.3988 -0.5561
45337SOL    HW247736   1.061   1.914   6.467 -1.1498  1.1417  0.5829
45338SOL     OW47737   2.804   1.950   0.992 -0.2497  0.4130 -0.0213
45338SOL    HW147738   2.803   1.946   1.087 -1.3497  0.0283 -0.0316
45338SOL    HW247739   2.863   2.022   0.971 -0.4011  0.8323  0.9546
45339SOL     OW47740   4.980   2.591   1.650 -0.9296 -0.0444  0.0205
45339SOL    HW147741   4.927   2.670   1.655  0.9128  1.2209  1.0994
45339SOL    HW247742   5.051   2.607   1.712  0.4589 -1.8144 -1.0270
45340SOL     OW47743   6.960  11.419   4.233 -0.3586 -0.8304  0.7479
45340SOL    HW147744   6.952  11.500   4.183  2.5207 -0.3641  0.8837
45340SOL    HW247745   6.932  11.350   4.172 -1.9673  0.1265  0.3310
45341SOL     OW47746   4.094   2.951   9.651 -0.6122  0.0591  0.1030
45341SOL    HW147747   4.026   3.004   9.693  0.2197  0.8008  0.5553
45341SOL    HW247748   4.176   2.983   9.689  0.2019  0.8824 -2.1700
45342SOL     OW47749  10.321   7.405  11.641  0.0045 -0.2757 -0.2378
45342SOL    HW147750  10.266   7.339  11.683 -2.2332  1.0750 -0.8234
45342SOL    HW247751  10.277   7.423  11.557  1.7581  0.4011 -1.0620
45343SOL     OW47752  10.894   4.050   0.347 -0.0779  0.7733  0.3408
45343SOL    HW147753  10.914   3.961   0.375  0.6232  0.1570 -1.9415
45343SOL    HW247754  10.849   4.089   0.423  0.7100 -1.0809  1.8530
45344SOL     OW47755   9.989   8.158   0.099 -0.0576  0.3430 -0.2269
45344SOL    HW147756   9.978   8.088   0.034  0.3816  1.0180 -1.0566
45344SOL    HW247757   9.909   8.156   0.151  1.2204 -2.8929  1.9356
45345SOL     OW47758   8.158   4.319   2.085  0.5435 -0.9619  0.1670
45345SOL    HW147759   8.227   4.323   2.019  0.2433 -0.5325 -0.1216
45345SOL    HW247760   8.107   4.398   2.072  0.4053 -0.9331  0.8369
45346SOL     OW47761   1.193  11.947   8.762 -0.6504  0.3031 -0.3409
45346SOL    HW147762   1.139  11.901   8.826 -2.1187  0.1476 -1.6348
45346SOL    HW247763   1.283  11.926   8.787 -1.2276 -3.0046 -0.6502
45347SOL     OW47764  11.078   2.400   3.222 -0.3695 -0.1802 -0.3261
45347SOL    HW147765  11.093   2.484   3.179 -3.3633  0.7001  0.0734
45347SOL    HW247766  11.163   2.375   3.257  0.5276  3.0116  0.1147
45348SOL     OW47767   5.730   5.851   1.078  0.8050 -0.0027 -0.6600
45348SOL    HW147768   5.676   5.927   1.103 -0.4830 -0.6273 -1.4196
45348SOL    HW247769   5.810   5.889   1.043  0.4486  1.0003 -0.4318
45349SOL     OW47770   7.537   8.809   1.749 -0.0419 -0.2150 -0.0595
45349SOL    HW147771   7.479   8.884   1.733 -2.1276 -1.9855 -1.5100
45349SOL    HW247772   7.570   8.823   1.838 -1.5945  1.6148  0.3130
45350SOL     OW47773   5.978   7.031   1.439 -0.2263 -0.2967 -0.2800
45350SOL    HW147774   5.911   7.099   1.443  0.1589  0.0527  0.7111
45350SOL    HW247775   6.052   7.068   1.487  0.3537 -1.0245 -0.5970
45351SOL     OW47776  10.362   4.368   0.798 -0.2418 -0.0377 -0.1873
45351SOL    HW147777  10.294   4.428   0.828  1.4857  1.9744 -0.0561
45351SOL    HW247778  10.358   4.295   0.858 -0.4052  1.4237  1.6685
45352SOL     OW47779   9.451   3.926   6.679  0.5047  0.1666  0.4290
45352SOL    HW147780   9.437   3.916   6.585  0.9413  0.4618  0.3321
45352SOL    HW247781   9.368   3.898   6.718 -0.0054  0.9311 -0.0880
45353SOL     OW47782   0.201  11.772   1.406  0.1666 -0.2326 -0.0281
45353SOL    HW147783   0.175  11.862   1.423  0.0109  0.1033 -1.8523
45353SOL    HW247784   0.296  11.776   1.394  0.4678 -0.6787  1.8921
45354SOL     OW47785   3.849   3.314  10.216 -0.1232 -0.7725  0.0408
45354SOL    HW147786   3.774   3.264  10.249 -0.1644 -0.6736  0.0995
45354SOL    HW247787   3.922   3.253  10.218  0.1626 -0.4047  1.5126
45355SOL     OW47788   0.158  11.370   3.641 -0.5607  0.0795  0.7935
45355SOL    HW147789   0.224  11.325   3.694 -2.3083 -1.1190  2.0514
45355SOL    HW247790   0.178  11.342   3.551 -0.3533 -1.6407  1.3216
45356SOL     OW47791   2.871  10.221   3.056 -0.4783 -0.1677 -0.0755
45356SOL    HW147792   2.787  10.210   3.101 -0.2784 -0.7677  0.1639
45356SOL    HW247793   2.906  10.303   3.089 -0.1707 -0.7698  1.1429
45357SOL     OW47794   6.007   0.932   1.528 -0.3548 -0.1137  0.0342
45357SOL    HW147795   5.914   0.917   1.508  0.0974 -1.2795 -1.4045
45357SOL    HW247796   6.053   0.869   1.473  1.3421  0.9631  0.1642
45358SOL     OW47797   1.677   5.748   5.244  0.1987 -0.3097  0.2350
45358SOL    HW147798   1.657   5.818   5.182  2.1462 -0.5538 -0.7315
45358SOL    HW247799   1.764   5.770   5.278 -0.6381 -0.3999  2.6298
45359SOL     OW47800   6.977   4.047   9.884 -0.0098 -0.1551  0.3206
45359SOL    HW147801   6.926   4.036   9.964  0.6244 -0.6957  0.6688
45359SOL    HW247802   7.058   4.089   9.913 -0.0483  0.2535 -0.1456
45360SOL     OW47803   5.631   9.792   3.762  0.1524 -0.4163  0.2209
45360SOL    HW147804   5.666   9.748   3.685  0.4544 -0.7981  0.5707
45360SOL    HW247805   5.705   9.842   3.797 -0.1530  0.2858 -0.1024
45361SOL     OW47806   5.684   5.329  10.974  0.1018 -0.2942  0.4059
45361SOL    HW147807   5.640   5.376  10.903 -0.4540 -1.1766  0.1413
45361SOL    HW247808   5.615   5.275  11.013  0.8871 -1.5699  0.1103
45362SOL     OW47809   2.297   6.576  11.352  0.1209  0.5343  0.5192
45362SOL    HW147810   2.298   6.484  11.380  1.7619  0.4682  0.3638
45362SOL    HW247811   2.341   6.575  11.267  1.2580  1.6033  1.0621
45363SOL     OW47812   1.458   2.880   0.583 -0.1888 -0.0753 -0.5977
45363SOL    HW147813   1.384   2.911   0.635 -1.5291  0.0484 -2.5041
45363SOL    HW247814   1.510   2.828   0.645 -1.2260  0.7875  1.0707
45364SOL     OW47815   5.288   1.004   9.911 -0.2362 -0.2713 -0.1167
45364SOL    HW147816   5.197   1.006   9.941 -0.4015  0.4738 -0.6252
45364SOL    HW247817   5.312   1.096   9.903  0.2089 -0.4572 -1.0211
45365SOL     OW47818   3.368   2.000   2.374 -0.9456  0.1011  0.1397
45365SOL    HW147819   3.366   2.033   2.464 -0.9779 -1.3469  0.6860
45365SOL    HW247820   3.339   1.909   2.381 -0.6127 -0.1316 -1.2864
45366SOL     OW47821   4.756   0.733   2.012 -0.1494  0.0723  0.2911
45366SOL    HW147822   4.797   0.808   2.057  0.8813 -0.9050  1.0402
45366SOL    HW247823   4.730   0.674   2.083  1.3375 -1.4272 -0.3435
45367SOL     OW47824   3.079   4.371   0.962  0.4296  0.4296 -0.4671
45367SOL    HW147825   3.174   4.381   0.950  0.4864 -0.0868 -0.4442
45367SOL    HW247826   3.059   4.425   1.038  0.7355  0.4004 -0.3648
45368SOL     OW47827   0.232   3.418  11.426 -0.3576 -0.4574 -0.3827
45368SOL    HW147828   0.262   3.430  11.336  0.2171  3.1524  0.1125
45368SOL    HW247829   0.151   3.469  11.431  1.2409  2.1561  1.7849
45369SOL     OW47830   9.427   0.132  11.822 -0.4845  0.2059 -0.5470
45369SOL    HW147831   9.450   0.079  11.899  1.0615 -0.7857 -1.6489
45369SOL    HW247832   9.369   0.076  11.771 -1.3982  0.8122 -0.2008
45370SOL     OW47833   7.450   3.626   9.689 -0.0340  0.2097  0.4743
45370SOL    HW147834   7.393   3.691   9.647  0.3951  0.3590  0.1116
45370SOL    HW247835   7.409   3.542   9.671  0.8457  0.1302 -1.4722
45371SOL     OW47836   0.737   9.598   1.118 -0.0806  0.3605  0.2354
45371SOL    HW147837   0.656   9.616   1.072  0.4486  0.4191 -0.6964
45371SOL    HW247838   0.721   9.515   1.163  0.3040 -1.2190 -2.3616
45372SOL     OW47839   4.717   5.456   1.931 -0.3295  0.0611  0.5439
45372SOL    HW147840   4.804   5.493   1.915 -0.4113 -0.7010 -2.1620
45372SOL    HW247841   4.667   5.528   1.970  0.6925  1.4672 -0.6324
45373SOL     OW47842   2.560   6.717   2.162  0.3294 -0.1493  0.0475
45373SOL    HW147843   2.621   6.788   2.142  0.4541  0.2059  1.5682
45373SOL    HW247844   2.481   6.761   2.192  0.2331 -0.6529  0.5381
45374SOL     OW47845   5.717   0.965   3.068  0.4174  0.0489  0.3604
45374SOL    HW147846   5.696   0.892   3.127  0.3713 -0.2197  0.0124
45374SOL    HW247847   5.804   0.944   3.034 -0.0053 -0.3429 -0.4999
45375SOL     OW47848   5.593  10.642   6.787 -0.1331 -0.3398 -0.1875
45375SOL    HW147849   5.652  10.567   6.795 -0.8102 -1.0218 -1.4461
45375SOL    HW247850   5.505  10.605   6.793 -0.4665  0.4299 -0.2405
45376SOL     OW47851   6.527   1.210   8.118 -0.4303  0.2263  0.1182
45376SOL    HW147852   6.534   1.304   8.104 -2.7840  0.3345 -0.6394
45376SOL    HW247853   6.437   1.197   8.148 -0.6225 -1.9327 -1.2268
45377SOL     OW47854   0.089  11.277   7.732  0.3128  0.2170  0.3073
45377SOL    HW147855   0.081  11.329   7.812  0.2076  0.8196 -0.0888
45377SOL    HW247856   0.006  11.228   7.727 -0.0196  0.7892  0.1426
45378SOL     OW47857   8.675   1.028   7.346 -0.1803 -0.4985 -0.2684
45378SOL    HW147858   8.664   0.935   7.328 -0.7248 -0.4503 -0.1984
45378SOL    HW247859   8.672   1.070   7.259  0.2968 -0.5678 -0.3188
45379SOL     OW47860   1.868   7.226  11.478 -0.2957 -0.0610 -0.8546
45379SOL    HW147861   1.834   7.311  11.504  0.8267  0.3732 -0.7749
45379SOL    HW247862   1.953   7.244  11.438  1.3841 -1.3440  1.8196
45380SOL     OW47863   4.804   0.556   7.326 -0.3567 -0.4045 -0.0521
45380SOL    HW147864   4.735   0.518   7.380  0.3591 -1.4063  0.1660
45380SOL    HW247865   4.782   0.530   7.236 -1.1172  0.6142 -0.1862
45381SOL     OW47866   9.860   7.364   9.830  0.8307 -0.0290 -0.4245
45381SOL    HW147867   9.907   7.384   9.749 -1.1940 -0.2267 -1.7198
45381SOL    HW247868   9.818   7.280   9.813 -0.9410  0.6868  0.1878
45382SOL     OW47869   3.152  10.293  11.663 -0.0508 -0.2000  1.0521
45382SOL    HW147870   3.216  10.273  11.595 -1.0522 -0.3339  0.1151
45382SOL    HW247871   3.108  10.210  11.680 -1.1634  0.2347  0.4002
45383SOL     OW47872   7.856   7.189   4.451 -0.1049  0.4837 -1.1516
45383SOL    HW147873   7.824   7.250   4.385 -1.8297  0.7098 -0.1733
45383SOL    HW247874   7.916   7.240   4.505  0.2555  0.6669 -1.7219
45384SOL     OW47875  11.538   2.471   1.719 -0.5117  0.3549  0.3970
45384SOL    HW147876  11.612   2.531   1.725 -2.1983  2.8765 -1.4594
45384SOL    HW247877  11.575   2.390   1.685  1.5077  1.2260  0.3693
45385SOL     OW47878   1.888   4.408  11.435 -0.6071  0.2461  0.3640
45385SOL    HW147879   1.857   4.323  11.405 -1.2721 -0.1403  2.0487
45385SOL    HW247880   1.982   4.405  11.422 -0.7365 -0.3231 -0.5666
45386SOL     OW47881   3.055  10.862  11.543 -0.1328 -0.6262  0.2546
45386SOL    HW147882   3.124  10.814  11.495  0.2000  0.2665 -0.1854
45386SOL    HW247883   2.976  10.810  11.528  0.3996 -1.5712  0.6121
45387SOL     OW47884   1.853   3.251   6.967 -0.8077  0.1555  0.4992
45387SOL    HW147885   1.889   3.244   6.878 -1.4310  1.5190  0.1242
45387SOL    HW247886   1.841   3.160   6.994  1.4025 -0.3539  0.0378
45388SOL     OW47887  10.763   6.385  11.342 -1.0117 -0.5618  0.7941
45388SOL    HW147888  10.764   6.479  11.359 -0.0119 -0.8728  2.7874
45388SOL    HW247889  10.686   6.371  11.288 -2.3606  1.1393  2.1491
45389SOL     OW47890  11.472   2.769   1.072 -0.2128 -0.0041 -0.3585
45389SOL    HW147891  11.497   2.682   1.102  0.4045  0.7951  1.5655
45389SOL    HW247892  11.553   2.819   1.073 -0.9306  1.2022  0.8485
45390SOL     OW47893   0.782   4.382   7.467  0.1047 -0.1710 -0.2251
45390SOL    HW147894   0.704   4.422   7.506  0.2106  0.1225 -0.3140
45390SOL    HW247895   0.749   4.338   7.389 -0.4122 -2.2084  1.0577
45391SOL     OW47896   3.377   9.496  10.761  0.4825 -0.3445  0.1684
45391SOL    HW147897   3.388   9.407  10.794  3.6904  0.0169  0.4390
45391SOL    HW247898   3.424   9.496  10.677  3.0592  1.6355  1.4473
45392SOL     OW47899  10.380   3.812   4.383 -0.4143  0.3266 -0.0381
45392SOL    HW147900  10.408   3.903   4.392  0.4101  0.0097  0.7631
45392SOL    HW247901  10.457   3.761   4.404 -1.2966 -0.5638  1.1860
45393SOL     OW47902   1.355  10.308   6.249  0.1592 -0.5584 -0.1200
45393SOL    HW147903   1.370  10.279   6.339  0.5391  0.3922  0.1355
45393SOL    HW247904   1.289  10.377   6.256 -2.0150 -2.4374 -0.8966
45394SOL     OW47905  10.047   4.883   9.863 -0.1222  0.5067  0.4591
45394SOL    HW147906  10.125   4.841   9.900 -0.4761 -1.0083 -0.4321
45394SOL    HW247907  10.057   4.976   9.885  1.2988  0.1541  1.4489
45395SOL     OW47908   6.712  10.163  10.637  0.4093  0.4583  0.2939
45395SOL    HW147909   6.739  10.076  10.665  1.1801  1.3209  2.4633
45395SOL    HW247910   6.625  10.151  10.599  0.9105 -1.3734 -0.3444
45396SOL     OW47911  11.296   1.466   6.054 -0.1256  0.0648  0.1102
45396SOL    HW147912  11.285   1.378   6.018  1.1215 -0.0724  0.0292
45396SOL    HW247913  11.210   1.488   6.089 -0.3249 -1.4047  0.6258
45397SOL     OW47914   0.466  10.655   4.815  0.4049  0.1357 -0.1450
45397SOL    HW147915   0.371  10.645   4.808  0.5290 -0.7319 -0.7294
45397SOL    HW247916   0.484  10.646   4.909 -0.1928  1.4816  0.1361
45398SOL     OW47917   1.795   0.246   5.070  0.5360 -0.1391  0.1784
45398SOL    HW147918   1.725   0.219   5.011 -0.3046 -0.2801  1.2131
45398SOL    HW247919   1.809   0.171   5.128 -1.3470  1.2374  2.6344
45399SOL     OW47920   3.231  11.708   4.483  0.4263 -0.7282  0.1804
45399SOL    HW147921   3.169  11.767   4.525 -0.6515 -0.6530 -1.4542
45399SOL    HW247922   3.303  11.765   4.455 -0.2994 -0.2810 -0.8047
45400SOL     OW47923   7.215  11.201   8.892  0.1762  0.2184  0.4869
45400SOL    HW147924   7.137  11.256   8.898  0.5683  0.7505  0.7466
45400SOL    HW247925   7.288  11.261   8.902  0.6015 -0.4154  1.3244
45401SOL     OW47926   7.161   9.667   3.832  0.1461 -0.4492 -0.0433
45401SOL    HW147927   7.157   9.592   3.890 -0.1427 -0.4854 -0.1115
45401SOL    HW247928   7.205   9.735   3.884  0.8746 -0.8166 -0.1545
45402SOL     OW47929   8.734   4.032   6.494 -0.0884  0.0448  0.6734
45402SOL    HW147930   8.724   4.090   6.419  0.3965  0.4755  0.9324
45402SOL    HW247931   8.822   3.995   6.485  0.2842  0.7108  1.4391
45403SOL     OW47932   7.501   2.289  11.682  0.1923  0.1193 -0.2251
45403SOL    HW147933   7.513   2.317  11.772 -0.2245 -0.1241 -0.0915
45403SOL    HW247934   7.566   2.339  11.632  0.2446  0.4457  0.1702
45404SOL     OW47935   6.648   4.907   9.593  0.2746  0.0003  0.2956
45404SOL    HW147936   6.678   4.915   9.503  2.8832 -1.9185  0.8602
45404SOL    HW247937   6.607   4.821   9.598  2.7550 -1.2286  1.4543
45405SOL     OW47938   9.120   3.233   3.446  0.5990  0.3552 -0.3215
45405SOL    HW147939   9.067   3.169   3.401 -0.1294  0.0778  0.8863
45405SOL    HW247940   9.188   3.182   3.491  0.5879  0.5094 -0.1242
45406SOL     OW47941  10.330  10.020   9.086  0.3858  0.4285  0.4902
45406SOL    HW147942  10.397  10.053   9.146 -0.4202 -1.2140  2.3901
45406SOL    HW247943  10.250  10.066   9.110  0.5689  1.8384 -1.2911
45407SOL     OW47944   1.184  10.183  11.247  0.6879  0.3037  0.0961
45407SOL    HW147945   1.166  10.104  11.196  0.3074  0.0571  0.6133
45407SOL    HW247946   1.279  10.181  11.259  0.7629  0.2801 -0.4638
45408SOL     OW47947   7.299   6.455   0.368 -0.1451  0.1986  0.8106
45408SOL    HW147948   7.305   6.388   0.437  0.5542 -1.4211 -0.7587
45408SOL    HW247949   7.390   6.482   0.353 -0.3354  0.8404  0.7731
45409SOL     OW47950   9.794   1.268  10.414 -0.1872  0.1704  0.3512
45409SOL    HW147951   9.776   1.267  10.320 -2.2300 -0.2801  0.6924
45409SOL    HW247952   9.707   1.268  10.454  0.6371 -1.5074  2.2526
45410SOL     OW47953   2.234   8.284   9.620  0.1583 -0.3524  0.1869
45410SOL    HW147954   2.302   8.351   9.627  0.6037 -0.6181 -1.1317
45410SOL    HW247955   2.283   8.202   9.613 -0.3716 -0.7961  1.3907
45411SOL     OW47956   0.449   4.316   3.614  0.0382 -0.2089  0.3963
45411SOL    HW147957   0.361   4.341   3.587  0.1946 -1.1389 -1.0708
45411SOL    HW247958   0.438   4.231   3.656  0.1034  0.1666  1.1818
45412SOL     OW47959  11.632   8.063   7.753 -1.1098 -0.2610 -0.0041
45412SOL    HW147960  11.718   8.066   7.711 -0.4611  1.4815  1.2955
45412SOL    HW247961  11.647   8.021   7.838 -1.3704  0.6862  0.5295
45413SOL     OW47962   5.178   2.649   5.960  0.1714  0.3186  0.2841
45413SOL    HW147963   5.181   2.560   5.924 -1.9859  1.2859 -2.7320
45413SOL    HW247964   5.265   2.685   5.941  0.2434 -0.3825 -0.8233
45414SOL     OW47965  11.603   6.609   7.780 -0.3611 -0.1930  0.1876
45414SOL    HW147966  11.537   6.565   7.726 -0.6534  0.0912  0.3087
45414SOL    HW247967  11.657   6.538   7.815  0.7224 -0.3161 -1.5928
45415SOL     OW47968  11.933   1.264  10.205  0.1170 -0.1963  0.0913
45415SOL    HW147969  11.842   1.239  10.220  0.7308 -2.0695  1.0392
45415SOL    HW247970  11.944   1.344  10.256 -1.8677  2.1866 -2.8652
45416SOL     OW47971   5.503   7.948   8.741  0.5684  0.1563  0.2043
45416SOL    HW147972   5.511   7.932   8.647  1.1874 -2.2453  0.5962
45416SOL    HW247973   5.581   7.908   8.779  1.2321  2.6353  1.6336
45417SOL     OW47974   8.441   3.486   2.881  0.6662 -0.6096  0.3218
45417SOL    HW147975   8.357   3.526   2.859  0.5847 -1.0681 -0.2271
45417SOL    HW247976   8.418   3.395   2.902  0.9014 -0.4878  1.1223
45418SOL     OW47977   4.526   6.354   0.825 -0.3344 -0.6096  0.0425
45418SOL    HW147978   4.608   6.319   0.857 -0.2254 -1.7607 -1.4062
45418SOL    HW247979   4.459   6.311   0.878 -0.0432  0.5034  1.3848
45419SOL     OW47980   3.086   7.055   5.937  0.3419 -0.0202  0.2001
45419SOL    HW147981   3.132   7.099   6.008  0.4015 -0.7985  0.6559
45419SOL    HW247982   3.048   7.126   5.885  0.0684  0.5453  1.1586
45420SOL     OW47983   7.248   0.381   6.380 -0.1986 -0.3568  0.4933
45420SOL    HW147984   7.237   0.460   6.326 -0.5581 -0.1868  0.8085
45420SOL    HW247985   7.160   0.359   6.408  0.0382 -0.1247  1.4549
45421SOL     OW47986   3.267   7.550   2.022  0.9464  0.0774  0.2052
45421SOL    HW147987   3.241   7.578   2.109 -0.0030  0.0571 -0.0636
45421SOL    HW247988   3.205   7.480   2.000  0.3224  0.9706 -1.0026
45422SOL     OW47989   6.410   9.990   9.938 -0.6637 -0.9357 -0.2743
45422SOL    HW147990   6.354   9.912   9.945  0.2564 -1.8241 -2.0880
45422SOL    HW247991   6.488   9.960   9.891  0.7188  0.6073  0.9110
45423SOL     OW47992   8.015   6.673   6.015  0.7958 -0.4769  0.1083
45423SOL    HW147993   8.079   6.675   5.944  1.1611  0.0587  0.4437
45423SOL    HW247994   8.016   6.762   6.050  2.9336 -1.4548  2.8337
45424SOL     OW47995   2.843   7.362   7.528 -0.5475  0.1252 -0.6818
45424SOL    HW147996   2.938   7.368   7.515 -0.5354  1.2439 -0.1761
45424SOL    HW247997   2.817   7.286   7.476  0.5871 -0.0464 -1.0340
45425SOL     OW47998   5.503   4.989  10.157  0.2240 -0.1818 -0.4925
45425SOL    HW147999   5.505   5.003  10.252 -0.8895  0.4281 -0.5449
45425SOL    HW248000   5.595   4.982  10.132  0.5456 -0.0029  0.5825
45426SOL     OW48001   3.454  10.846   0.241 -0.0323 -0.1200 -0.1503
45426SOL    HW148002   3.402  10.765   0.249  0.9118 -0.8517 -1.0789
45426SOL    HW248003   3.536  10.826   0.286  0.9206 -0.3541 -1.9042
45427SOL     OW48004   6.002  10.782   3.833 -0.5561  0.4662  0.0285
45427SOL    HW148005   6.078  10.786   3.891 -1.0266  0.4552  0.6609
45427SOL    HW248006   6.012  10.699   3.786 -1.0202 -0.3523  1.3098
45428SOL     OW48007   2.384   7.782  10.354  0.4691 -0.0329  0.2374
45428SOL    HW148008   2.465   7.756  10.309  1.0176 -0.2607  1.3103
45428SOL    HW248009   2.341   7.843  10.293 -0.1668 -2.3158 -1.7506
45429SOL     OW48010  11.135   5.371  10.424 -0.0140 -0.0139 -0.5801
45429SOL    HW148011  11.193   5.295  10.425 -1.5008 -1.2145 -1.2481
45429SOL    HW248012  11.063   5.348  10.482 -0.0878  1.2487 -0.1266
45430SOL     OW48013   4.502   8.576   1.731 -0.5399  0.2265  0.0919
45430SOL    HW148014   4.461   8.587   1.645 -0.6024  2.5941  0.3409
45430SOL    HW248015   4.532   8.486   1.733 -0.8445  0.0240 -2.2829
45431SOL     OW48016  11.262   2.976   6.432  0.0663 -0.6747 -0.1550
45431SOL    HW148017  11.325   3.022   6.376 -0.3096 -0.3942 -0.3552
45431SOL    HW248018  11.294   2.991   6.521 -0.9083  1.3499 -0.0844
45432SOL     OW48019  11.605   8.053  11.684 -0.0218  0.3691 -0.0282
45432SOL    HW148020  11.549   8.121  11.646 -0.3701  0.2132  0.2000
45432SOL    HW248021  11.548   7.977  11.691  0.0707  0.3598  0.6904
45433SOL     OW48022   2.288   4.531   5.397  0.1352 -0.4334  0.0053
45433SOL    HW148023   2.242   4.538   5.314 -0.5751 -1.2859  0.3215
45433SOL    HW248024   2.258   4.606   5.448 -1.3180 -1.2611  0.4004
45434SOL     OW48025   1.145   7.949   6.391  0.1410 -0.4095  0.0158
45434SOL    HW148026   1.186   7.911   6.468 -3.2425 -0.8258  1.7837
45434SOL    HW248027   1.102   8.028   6.422 -0.4896 -0.0429 -1.6634
45435SOL     OW48028   7.363  10.657  11.754 -0.4076 -0.2703  0.3063
45435SOL    HW148029   7.317  10.607  11.821 -0.1212 -0.7237  0.1684
45435SOL    HW248030   7.374  10.595  11.681 -0.5957  0.1735 -0.1081
45436SOL     OW48031   8.120   8.876   5.953 -0.1100 -0.6533 -0.1125
45436SOL    HW148032   8.152   8.891   6.042 -2.1828 -1.6132  0.8506
45436SOL    HW248033   8.070   8.955   5.931  2.2527  0.6015 -1.4013
45437SOL     OW48034   9.478   8.799   5.630 -0.2341  0.1013  0.4932
45437SOL    HW148035   9.426   8.876   5.606 -2.6709 -1.3391  0.7742
45437SOL    HW248036   9.531   8.828   5.704 -2.3136  1.1418  1.6861
45438SOL     OW48037   5.706   2.225   3.665 -0.8038  0.2298 -0.5661
45438SOL    HW148038   5.623   2.254   3.704 -0.6442  0.1837 -0.1897
45438SOL    HW248039   5.694   2.238   3.571 -0.5459  2.0691 -0.3951
45439SOL     OW48040   7.305   6.408   6.897  0.2363 -0.3028 -0.0675
45439SOL    HW148041   7.362   6.355   6.841  1.4251  1.9846 -1.1562
45439SOL    HW248042   7.352   6.414   6.980  1.5023  1.2648 -0.8420
45440SOL     OW48043   4.446   7.096   7.966 -0.2004 -0.2030 -0.0546
45440SOL    HW148044   4.438   7.036   7.892 -0.3187  0.2640 -0.4174
45440SOL    HW248045   4.412   7.179   7.935 -1.2372 -0.2671  0.8468
45441SOL     OW48046   7.567  10.488   7.033 -0.1654 -0.5969  0.8874
45441SOL    HW148047   7.553  10.559   6.971 -0.6991 -0.1285  1.5424
45441SOL    HW248048   7.656  10.501   7.065 -0.6834  0.5100  1.9238
45442SOL     OW48049   2.049  10.389   8.721  0.4842 -0.4392 -0.1854
45442SOL    HW148050   2.080  10.336   8.795  2.8001  0.5789 -0.3217
45442SOL    HW248051   2.097  10.354   8.645  1.5807  1.3455 -0.3889
45443SOL     OW48052  10.127   8.166   8.540 -0.1771  0.3276 -0.4357
45443SOL    HW148053  10.057   8.115   8.581  0.1969 -0.3985 -0.6852
45443SOL    HW248054  10.133   8.131   8.452 -0.5050  1.4097 -0.9024
45444SOL     OW48055  11.025   3.144   4.951 -0.1639  0.0063 -0.4300
45444SOL    HW148056  10.962   3.214   4.933 -0.7398 -0.7189 -1.3235
45444SOL    HW248057  11.087   3.147   4.879 -0.6826 -0.9317 -0.9318
45445SOL     OW48058   8.414   9.042   6.927  0.4060  0.1540 -0.0418
45445SOL    HW148059   8.488   9.083   6.883  0.2598  2.0118  1.3227
45445SOL    HW248060   8.441   9.033   7.018 -0.4203 -0.7665  0.1443
45446SOL     OW48061   7.459   6.930   1.577 -0.4084  0.0460 -0.9465
45446SOL    HW148062   7.383   6.953   1.524 -0.7341  0.5039 -0.2941
45446SOL    HW248063   7.514   7.008   1.576 -1.6047  1.0189  1.4258
45447SOL     OW48064   5.110   2.989   5.586  0.3814  0.0367 -0.9088
45447SOL    HW148065   5.024   2.990   5.629 -0.1205  1.4846 -1.8663
45447SOL    HW248066   5.158   2.919   5.629 -0.4613  0.7315  1.2725
45448SOL     OW48067   6.461   4.503   9.073 -0.0927  0.0244 -0.4631
45448SOL    HW148068   6.431   4.561   9.003 -0.6165 -1.0663 -1.1723
45448SOL    HW248069   6.386   4.446   9.091  0.0348  0.2732  0.9883
45449SOL     OW48070   3.902   7.671   3.498  0.1674 -0.2837 -0.0305
45449SOL    HW148071   3.862   7.669   3.411 -1.7276  0.3714  0.7724
45449SOL    HW248072   3.985   7.716   3.485  0.5851 -1.4588 -1.7252
45450SOL     OW48073   2.503   4.790   4.965 -0.1350  0.2799  0.4351
45450SOL    HW148074   2.471   4.706   4.930 -0.2142  0.8424 -0.8722
45450SOL    HW248075   2.524   4.770   5.057 -2.0845 -0.6746  0.7289
45451SOL     OW48076  11.934   7.373   9.025 -0.1729  0.5995  0.2875
45451SOL    HW148077  11.913   7.396   8.934  0.7278 -0.1112 -0.1087
45451SOL    HW248078  11.873   7.302   9.046  0.5087 -0.1562 -0.2231
45452SOL     OW48079   5.668   8.513   5.211  0.3342  0.4130  0.6823
45452SOL    HW148080   5.740   8.456   5.237  0.3982 -0.8466 -1.8631
45452SOL    HW248081   5.638   8.476   5.127 -0.1159  3.6830 -0.7413
45453SOL     OW48082  11.378   7.808   9.033 -1.3696 -0.3435 -0.2371
45453SOL    HW148083  11.298   7.825   8.983 -2.1239  0.0991  1.0762
45453SOL    HW248084  11.380   7.877   9.099  0.0242 -0.4507 -0.1382
45454SOL     OW48085   3.097   4.304   8.114  0.1876  0.3669 -0.1312
45454SOL    HW148086   3.162   4.304   8.044  1.5451  0.6676  1.1033
45454SOL    HW248087   3.081   4.211   8.132  0.3455  0.2937 -0.3694
45455SOL     OW48088   2.373  10.916   6.986 -0.3936 -0.0371 -0.4131
45455SOL    HW148089   2.436  10.982   6.957  0.2073 -0.1515  0.5703
45455SOL    HW248090   2.345  10.946   7.072 -0.4561 -0.8235 -0.1471
45456SOL     OW48091   4.802   4.319   2.347 -0.2146 -0.5764  0.6385
45456SOL    HW148092   4.893   4.300   2.367  0.3275  2.3365  1.4107
45456SOL    HW248093   4.756   4.303   2.429 -0.5871 -2.7542  0.0534
45457SOL     OW48094   2.706   8.553  11.428 -0.1568  0.1245  0.0886
45457SOL    HW148095   2.670   8.488  11.368 -0.9128 -0.9424  1.6174
45457SOL    HW248096   2.730   8.503  11.506  1.8334  1.2880  0.2977
45458SOL     OW48097   1.765   9.972   6.619  0.6751 -0.2637  0.0248
45458SOL    HW148098   1.703   9.912   6.660  0.8004 -1.1533 -1.0523
45458SOL    HW248099   1.837   9.979   6.682  0.9349 -1.7201 -0.0870
45459SOL     OW48100   9.130   3.297   4.880 -0.2558 -0.4316 -0.2982
45459SOL    HW148101   9.115   3.389   4.860 -1.4762 -0.9574 -2.0743
45459SOL    HW248102   9.055   3.271   4.932 -1.6788 -1.1547 -2.5632
45460SOL     OW48103   7.807   6.562  10.164 -0.1296 -0.2194  0.5979
45460SOL    HW148104   7.719   6.556  10.200  0.1183 -0.9997  1.1059
45460SOL    HW248105   7.862   6.514  10.227  0.4432 -0.8739 -0.3708
45461SOL     OW48106   2.883   6.300   5.181 -0.0917  0.5405 -0.1343
45461SOL    HW148107   2.816   6.365   5.163 -0.7291  0.8738  2.8851
45461SOL    HW248108   2.908   6.316   5.272  2.0013 -1.4489 -0.2697
45462SOL     OW48109   2.676  11.091   3.217 -0.0237  0.2229 -0.5126
45462SOL    HW148110   2.720  11.155   3.160  1.0603  2.0141  2.1285
45462SOL    HW248111   2.737  11.018   3.222 -1.1469 -1.0304 -3.3394
45463SOL     OW48112   1.831   5.786   9.802  0.5247 -0.1015  0.2453
45463SOL    HW148113   1.795   5.826   9.882  0.3308 -0.3906  0.3066
45463SOL    HW248114   1.829   5.856   9.737  0.5543  0.0981  0.4592
45464SOL     OW48115   7.050   1.230   0.519 -0.1846 -0.2020 -0.3080
45464SOL    HW148116   7.115   1.167   0.551  1.1710  0.0220 -2.4042
45464SOL    HW248117   6.998   1.181   0.456  1.3385  0.8500 -2.4941
45465SOL     OW48118   9.258  10.340   6.763 -0.1313  0.1594  0.2819
45465SOL    HW148119   9.295  10.334   6.675  0.2204  0.8612  0.3714
45465SOL    HW248120   9.184  10.400   6.753  1.1599  1.9619  0.8165
45466SOL     OW48121  10.108   7.674   4.892 -0.2566  0.6631  0.3190
45466SOL    HW148122  10.046   7.617   4.848 -1.2071  1.5693  0.4456
45466SOL    HW248123  10.155   7.718   4.822  1.1071 -0.8612  0.1998
45467SOL     OW48124   9.523  11.746   8.114 -0.4495 -0.0506  0.4946
45467SOL    HW148125   9.593  11.805   8.140  2.2439 -3.1892  1.0039
45467SOL    HW248126   9.512  11.762   8.020  1.6062 -0.0355  0.2090
45468SOL     OW48127   6.071   6.112   1.310 -0.1961 -0.2162  0.0755
45468SOL    HW148128   6.107   6.105   1.222  1.7942  1.8432  0.6124
45468SOL    HW248129   5.990   6.162   1.299  1.3118  2.3047 -0.4369
45469SOL     OW48130   6.018   3.507   1.470  0.0890  0.0817 -0.2376
45469SOL    HW148131   5.982   3.584   1.426 -0.1096  0.4661  0.5690
45469SOL    HW248132   5.942   3.460   1.503  0.1031 -1.4114 -2.2135
45470SOL     OW48133  11.671   1.170   1.831  0.0341  0.1489  0.3459
45470SOL    HW148134  11.686   1.263   1.846  0.1687  0.3667 -0.9787
45470SOL    HW248135  11.710   1.126   1.907  1.9382  1.0550 -0.0560
45471SOL     OW48136   7.589   1.253   0.288 -0.1638  0.3682 -0.5105
45471SOL    HW148137   7.619   1.273   0.377  1.1863 -1.0162 -0.6128
45471SOL    HW248138   7.548   1.167   0.295 -1.2134  0.8062 -1.0146
45472SOL     OW48139  11.162  11.731   7.362 -0.6581  0.0316  0.2066
45472SOL    HW148140  11.209  11.787   7.300 -0.1380  1.2741  1.6810
45472SOL    HW248141  11.224  11.662   7.386 -0.1853  0.6684  0.8220
45473SOL     OW48142   5.852   3.400   3.382 -0.3578  0.2129  0.6520
45473SOL    HW148143   5.771   3.446   3.405 -0.8951 -0.1742 -0.4199
45473SOL    HW248144   5.828   3.308   3.382 -0.4900  0.1825 -1.6571
45474SOL     OW48145   3.161   7.978   6.041 -0.0938  0.3131 -0.1953
45474SOL    HW148146   3.255   7.975   6.024  0.0980  3.0986 -0.1895
45474SOL    HW248147   3.153   7.955   6.134  0.5597 -0.0103 -0.2110
45475SOL     OW48148   8.134   4.160   2.304  0.4706  0.5163 -0.0276
45475SOL    HW148149   8.077   4.201   2.369  0.8608  0.4837  0.3418
45475SOL    HW248150   8.132   4.219   2.229  2.0243  1.9083  0.9531
45476SOL     OW48151   5.029   3.084   2.529 -0.6569 -0.8490 -0.0935
45476SOL    HW148152   4.949   3.097   2.478 -0.0462  1.8495 -0.5325
45476SOL    HW248153   5.085   3.033   2.472 -0.9648 -0.1252 -1.0809
45477SOL     OW48154  10.232   0.441   8.848  0.1694  0.1175 -0.6423
45477SOL    HW148155  10.195   0.429   8.761 -0.1332 -0.0718 -0.4884
45477SOL    HW248156  10.297   0.510   8.837  1.5535 -1.2268 -1.4504
45478SOL     OW48157   8.632  10.866  11.526 -0.1537 -0.0464 -0.0309
45478SOL    HW148158   8.657  10.836  11.613 -0.7286  1.1366  0.5610
45478SOL    HW248159   8.551  10.819  11.506  0.3459 -0.8379 -0.2382
45479SOL     OW48160   5.090   4.747   3.044 -0.8074 -0.1532 -0.2197
45479SOL    HW148161   5.091   4.814   2.976 -1.3932 -0.6898 -0.7701
45479SOL    HW248162   5.141   4.675   3.008 -1.4153 -0.5777 -0.2458
45480SOL     OW48163   2.307  10.053   5.159 -0.1116 -0.8945 -0.3302
45480SOL    HW148164   2.279   9.979   5.106  3.1360 -2.6613  0.1761
45480SOL    HW248165   2.364  10.104   5.101 -1.2786  0.5539 -0.2724
45481SOL     OW48166   8.965   0.484   2.256  0.4325 -0.1771 -0.0600
45481SOL    HW148167   8.872   0.506   2.263  0.4768 -0.2249  0.7721
45481SOL    HW248168   9.001   0.550   2.196  0.4768  1.7951  2.0331
45482SOL     OW48169   3.867   5.123   7.822  0.0873 -0.2669 -0.1869
45482SOL    HW148170   3.902   5.035   7.836  0.2164 -0.2848 -0.6133
45482SOL    HW248171   3.937   5.170   7.777 -0.3807 -0.2610 -0.9210
45483SOL     OW48172   1.107   0.598  11.041  0.3914  0.0691  0.9915
45483SOL    HW148173   1.157   0.613  11.122 -0.3599  0.3883  1.4061
45483SOL    HW248174   1.097   0.685  11.002 -0.1130  0.0553  1.0813
45484SOL     OW48175   6.084   2.081   3.558  0.1471 -0.0232 -0.7974
45484SOL    HW148176   6.088   2.009   3.621  2.7321 -0.2807 -1.1179
45484SOL    HW248177   5.992   2.105   3.554 -0.2432 -0.4122  2.5916
45485SOL     OW48178   6.164   9.916  11.261  0.3656  0.4274  0.3182
45485SOL    HW148179   6.249   9.899  11.302  1.1385  0.3645 -1.2214
45485SOL    HW248180   6.124   9.983  11.316  1.8706  1.2045  0.5273
45486SOL     OW48181   4.987  10.116   0.252 -0.2320 -0.4138 -0.5216
45486SOL    HW148182   4.946  10.194   0.216  0.8355  0.8250  0.8340
45486SOL    HW248183   4.993  10.056   0.178  0.2810  1.3573 -1.9783
45487SOL     OW48184   7.527  11.040  11.430  0.7114  0.2388 -0.2872
45487SOL    HW148185   7.478  10.986  11.368  0.3836  0.6435 -0.3885
45487SOL    HW248186   7.608  10.991  11.446  1.0880  0.4074 -1.5232
45488SOL     OW48187   0.978   7.773   5.292 -0.1895  0.7665  0.0953
45488SOL    HW148188   0.924   7.735   5.223 -1.4462 -0.5542  1.7117
45488SOL    HW248189   1.065   7.736   5.278 -0.1756  1.2491 -1.2810
45489SOL     OW48190   1.026   7.590   7.354 -0.3299  0.1186  0.0594
45489SOL    HW148191   1.045   7.503   7.390  2.5122  0.7765  0.3228
45489SOL    HW248192   1.037   7.580   7.259 -1.5604 -0.1181 -0.0838
45490SOL     OW48193   4.259   3.296   5.566  0.4626  0.4378  0.0155
45490SOL    HW148194   4.196   3.355   5.524 -0.4957 -0.8908 -0.5077
45490SOL    HW248195   4.207   3.249   5.632  0.5844 -1.4693 -1.1659
45491SOL     OW48196  11.511   3.462   8.575  0.0443  0.2777 -0.7341
45491SOL    HW148197  11.598   3.424   8.561  0.1448  0.3973 -0.4381
45491SOL    HW248198  11.450   3.398   8.536  0.0317 -1.3797  1.8148
45492SOL     OW48199   7.992  11.883   0.107 -0.5855  0.1034  0.0619
45492SOL    HW148200   8.038  11.873   0.024 -0.2457 -1.3940  0.4113
45492SOL    HW248201   7.964  11.795   0.130  0.3259  0.2892  2.1112
45493SOL     OW48202  10.314   1.450  10.721  0.0192  0.1184 -0.3449
45493SOL    HW148203  10.277   1.462  10.634  0.3735 -0.6507 -0.6083
45493SOL    HW248204  10.376   1.523  10.731  0.2096  0.0328 -0.8660
45494SOL     OW48205   3.921  11.659   5.316  0.0786 -0.0180 -0.5541
45494SOL    HW148206   3.970  11.733   5.353  1.0288 -0.4588 -0.8993
45494SOL    HW248207   3.830  11.690   5.313  0.4339  1.0870 -0.5792
45495SOL     OW48208   3.004  11.492   8.195  0.5101 -0.1410 -0.2562
45495SOL    HW148209   3.034  11.478   8.285 -1.3877  0.8930  0.5882
45495SOL    HW248210   2.932  11.430   8.183 -0.8928  1.4062 -0.1519
45496SOL     OW48211   6.444   1.377   7.040 -0.4476  0.2674  0.0629
45496SOL    HW148212   6.455   1.324   7.120  0.1102  0.4288  0.1007
45496SOL    HW248213   6.370   1.434   7.059  0.8448  1.6373  1.2224
45497SOL     OW48214   1.500   3.148   3.947  0.2777 -0.0754  0.7334
45497SOL    HW148215   1.575   3.182   3.898  0.8842 -0.7790  1.1561
45497SOL    HW248216   1.538   3.111   4.026 -0.1243 -3.1157 -0.3564
45498SOL     OW48217   4.880   8.361   1.137  0.9871 -0.1255  0.1159
45498SOL    HW148218   4.815   8.407   1.084  0.3822 -0.1235  0.8430
45498SOL    HW248219   4.944   8.329   1.073  0.1828 -0.2849 -0.6327
45499SOL     OW48220   3.318   9.452   3.378 -0.0289  0.3343 -0.3294
45499SOL    HW148221   3.274   9.528   3.418  0.0517  1.1748 -1.7949
45499SOL    HW248222   3.280   9.447   3.290  0.0027 -1.3152 -0.2631
45500SOL     OW48223   8.847   9.184   7.040  0.4729  0.2126 -0.6485
45500SOL    HW148224   8.855   9.096   7.078  0.2549 -0.9537 -3.1217
45500SOL    HW248225   8.802   9.235   7.108 -0.1253 -1.7937  0.5520
45501SOL     OW48226   2.578   0.269  10.576 -0.5046  0.4555 -0.3267
45501SOL    HW148227   2.648   0.218  10.616 -1.2496  1.2217  2.0858
45501SOL    HW248228   2.620   0.351  10.550 -0.6848  1.5458  2.4969
45502SOL     OW48229   8.545   1.281  11.858 -0.0541  0.2552  0.0863
45502SOL    HW148230   8.607   1.231  11.803  0.9924  1.1289  0.4298
45502SOL    HW248231   8.595   1.302  11.937 -1.0359  0.3745  0.6939
45503SOL     OW48232   0.275  11.536   6.172 -0.3680  0.3306  0.0824
45503SOL    HW148233   0.306  11.451   6.140 -0.2129 -0.2373  1.6692
45503SOL    HW248234   0.348  11.596   6.153  0.2549 -0.2632  0.5685
45504SOL     OW48235   6.471  10.058   6.221 -0.2595 -0.2669 -0.0141
45504SOL    HW148236   6.387  10.045   6.265  0.1803  0.1511  0.9638
45504SOL    HW248237   6.534  10.011   6.275  0.2135 -0.1582 -0.4657
45505SOL     OW48238   5.767   5.823   5.571 -0.0739 -0.3846 -0.4153
45505SOL    HW148239   5.766   5.819   5.666 -1.3261 -1.4155 -0.4347
45505SOL    HW248240   5.681   5.856   5.547 -0.2419 -1.3338 -1.2015
45506SOL     OW48241   7.428  11.389   8.868  0.0453 -0.0829 -0.5093
45506SOL    HW148242   7.472  11.382   8.783  0.7558  0.4067 -0.1975
45506SOL    HW248243   7.437  11.481   8.892 -1.6208  0.1540 -0.6612
45507SOL     OW48244   7.275   7.088  11.086 -0.5885  0.1081  0.0522
45507SOL    HW148245   7.340   7.145  11.127 -1.2290  0.9900 -0.1339
45507SOL    HW248246   7.199   7.093  11.143 -0.4498 -1.0832  0.3794
45508SOL     OW48247   3.996   5.151   9.992 -0.1356 -0.2037  0.3128
45508SOL    HW148248   4.046   5.085   9.944 -0.5245  0.8132 -1.5978
45508SOL    HW248249   4.031   5.234   9.961 -0.6423  0.5126  1.5892
45509SOL     OW48250  10.807   9.054   7.051  0.3093  0.1073  0.5597
45509SOL    HW148251  10.855   9.041   7.132 -0.4511  1.3559  1.2402
45509SOL    HW248252  10.719   9.021   7.070  0.2635 -0.0572  0.0748
45510SOL     OW48253   5.735   3.332   2.462  0.3617 -0.3330  0.5171
45510SOL    HW148254   5.675   3.261   2.485 -0.4894  0.2750  0.2331
45510SOL    HW248255   5.770   3.307   2.377 -0.5362 -0.0577  0.0494
45511SOL     OW48256   4.433   5.518   6.854 -0.5579  0.0794 -0.1089
45511SOL    HW148257   4.471   5.432   6.873  1.4477  0.8113 -0.6150
45511SOL    HW248258   4.496   5.581   6.887 -1.9037  1.3921  0.0840
45512SOL     OW48259   1.981  11.070   6.420  0.1214 -0.4148  0.6193
45512SOL    HW148260   2.023  11.154   6.439  1.2260 -0.7788 -0.1456
45512SOL    HW248261   1.993  11.018   6.499 -0.1765 -0.0075  0.9330
45513SOL     OW48262   0.207   6.420   4.899  0.7252  0.2365 -0.3306
45513SOL    HW148263   0.287   6.450   4.942 -0.2800 -0.7662  2.4286
45513SOL    HW248264   0.166   6.501   4.868  1.5242  1.0128  0.5589
45514SOL     OW48265   3.070   9.607   4.020 -0.0114 -0.4401  0.1902
45514SOL    HW148266   2.978   9.580   4.024  0.2325 -1.4489 -0.5916
45514SOL    HW248267   3.074   9.668   3.945 -0.1217 -0.0357  0.5091
45515SOL     OW48268   6.457   8.850   1.370 -0.5097 -0.0344 -0.2535
45515SOL    HW148269   6.533   8.794   1.383 -0.9185 -1.4917 -3.3404
45515SOL    HW248270   6.382   8.793   1.385 -1.0109  0.8159  0.5886
45516SOL     OW48271   7.657   3.226  11.510 -0.6746  0.3795 -0.6222
45516SOL    HW148272   7.651   3.229  11.414 -1.7050  0.7471 -0.5506
45516SOL    HW248273   7.570   3.251  11.541  0.1269  2.0458  0.4295
45517SOL     OW48274   3.436   4.507   3.822 -0.2094 -0.3044 -0.0049
45517SOL    HW148275   3.356   4.455   3.821 -0.0498 -0.7224  2.5731
45517SOL    HW248276   3.426   4.569   3.750 -2.2778 -1.1532 -0.5070
45518SOL     OW48277   5.585  10.421   9.375  0.2810  0.3367  0.8195
45518SOL    HW148278   5.547  10.442   9.290  1.3716 -0.6553  0.0533
45518SOL    HW248279   5.640  10.344   9.358  0.1860 -0.1385  2.5079
45519SOL     OW48280  11.449  10.492  10.295  0.1178 -0.0710  0.2638
45519SOL    HW148281  11.464  10.429  10.225  1.5923  0.1115  0.3908
45519SOL    HW248282  11.532  10.496  10.343 -0.5351  0.5651  1.4080
45520SOL     OW48283   6.183   9.514   7.676  0.2303  0.0681  0.1640
45520SOL    HW148284   6.242   9.579   7.638  0.4215 -0.0445  0.2660
45520SOL    HW248285   6.104   9.519   7.623  1.2398 -1.5610 -1.6170
45521SOL     OW48286   2.255   8.350   8.181 -0.4196 -0.3550  0.1437
45521SOL    HW148287   2.160   8.348   8.191 -0.4123  0.6734  0.5716
45521SOL    HW248288   2.286   8.398   8.259  0.6567 -2.8484  1.3721
45522SOL     OW48289   5.909   7.399   9.880 -0.6405  0.7823 -0.2377
45522SOL    HW148290   5.829   7.430   9.921 -1.4243 -0.8393 -0.4567
45522SOL    HW248291   5.929   7.463   9.812 -0.8142  2.0708  0.9004
45523SOL     OW48292   5.342   8.968   6.091  0.3237 -0.0384  0.8034
45523SOL    HW148293   5.264   9.022   6.084 -0.3437 -1.0148  0.4803
45523SOL    HW248294   5.312   8.879   6.071  1.7755 -0.2319 -0.8617
45524SOL     OW48295   2.549   8.091   9.896  0.9361  0.8136 -0.0291
45524SOL    HW148296   2.569   8.031   9.968  1.8635  0.4591 -0.5530
45524SOL    HW248297   2.533   8.175   9.937 -2.4461 -0.1295  0.9408
45525SOL     OW48298   4.632   9.724   8.777  0.4820 -0.2157 -0.5616
45525SOL    HW148299   4.547   9.720   8.735  1.4047 -0.1536 -2.5491
45525SOL    HW248300   4.695   9.706   8.707  2.1786  1.0261  0.5455
45526SOL     OW48301   0.623   1.828   7.127 -0.0692  0.4210 -0.3471
45526SOL    HW148302   0.574   1.751   7.156 -0.3304  1.0278  0.8690
45526SOL    HW248303   0.691   1.793   7.070 -0.3890 -0.6722 -0.0768
45527SOL     OW48304   0.473   7.796  10.301  0.2409 -0.0939 -0.0240
45527SOL    HW148305   0.513   7.776  10.217  0.6428 -0.8620  0.3371
45527SOL    HW248306   0.395   7.846  10.280  1.4216  1.5207 -0.7550
45528SOL     OW48307   6.557   1.277   8.791 -0.0328  0.5369 -0.1799
45528SOL    HW148308   6.584   1.188   8.812 -0.2550  0.2672 -1.0024
45528SOL    HW248309   6.477   1.290   8.843 -0.6724 -0.1781 -0.9615
45529SOL     OW48310   1.262   2.618   5.611  0.6784  0.7144  0.0383
45529SOL    HW148311   1.241   2.673   5.535 -1.2104  2.5711  1.7892
45529SOL    HW248312   1.324   2.554   5.577  0.7139  2.1012 -2.8259
45530SOL     OW48313   3.140   1.704  11.859  0.2803 -0.3790  0.1536
45530SOL    HW148314   3.198   1.768  11.817 -0.2955 -0.4970 -0.8387
45530SOL    HW248315   3.186   1.620  11.849 -0.3796 -0.6018 -1.3318
45531SOL     OW48316  10.678   4.204   3.377 -0.1881  0.0492  0.7292
45531SOL    HW148317  10.642   4.288   3.350  0.0439  0.5831  2.0241
45531SOL    HW248318  10.770   4.207   3.352 -0.3940 -0.2122 -0.0846
45532SOL     OW48319  10.009   4.139  10.449 -0.4080  0.1834 -0.1435
45532SOL    HW148320   9.976   4.049  10.452 -1.9836  0.7494  0.4607
45532SOL    HW248321  10.058   4.149  10.531  0.0751 -0.2215 -0.3766
45533SOL     OW48322   6.563   0.742   3.157  0.1409  0.2180 -0.3606
45533SOL    HW148323   6.541   0.802   3.228 -0.8589 -1.4571  0.8287
45533SOL    HW248324   6.479   0.711   3.125  0.6346 -0.7860 -0.7186
45534SOL     OW48325   6.840   1.038   4.791 -0.3864 -0.2024 -0.4792
45534SOL    HW148326   6.765   1.095   4.774 -0.8691 -0.3627  0.9828
45534SOL    HW248327   6.803   0.951   4.800  0.0095 -0.3303 -0.0502
45535SOL     OW48328   2.566   6.599   5.376 -0.0861 -0.0532  0.5259
45535SOL    HW148329   2.532   6.553   5.299 -1.6285  0.5551  0.8109
45535SOL    HW248330   2.569   6.532   5.444 -0.2220 -0.2353  0.3550
45536SOL     OW48331   6.935   3.582   4.489 -0.1895 -0.1962 -0.1180
45536SOL    HW148332   6.961   3.491   4.497 -0.7120 -0.2753  0.9218
45536SOL    HW248333   6.839   3.580   4.499 -0.2336  0.4263 -0.3919
45537SOL     OW48334   7.448   1.798   2.370  0.2663  0.4574  0.0448
45537SOL    HW148335   7.395   1.746   2.310  0.1589 -0.5096  0.9418
45537SOL    HW248336   7.432   1.889   2.345 -0.6907  0.1162 -0.6136
45538SOL     OW48337   6.098   3.130   7.823 -0.0607  0.0397 -0.1277
45538SOL    HW148338   6.083   3.131   7.917 -3.2844  0.0481 -0.5249
45538SOL    HW248339   6.132   3.216   7.803  1.0410 -0.0933  1.0476
45539SOL     OW48340   7.775   3.609   9.151 -0.1582  0.2034 -0.3700
45539SOL    HW148341   7.774   3.660   9.232 -0.5554 -1.3193  0.6219
45539SOL    HW248342   7.855   3.637   9.106 -0.6785  2.1402 -0.2001
45540SOL     OW48343  10.203   9.325   1.057  0.0697 -0.9341  0.2535
45540SOL    HW148344  10.108   9.320   1.041  0.5421 -2.4569 -2.6550
45540SOL    HW248345  10.223   9.242   1.101  0.1731 -0.9517  0.1712
45541SOL     OW48346   5.848   0.714  11.490 -0.0780 -0.2756 -0.2866
45541SOL    HW148347   5.756   0.690  11.502  0.0332 -1.1711 -1.0848
45541SOL    HW248348   5.892   0.680  11.567 -0.6680  1.9228  1.1445
45542SOL     OW48349  10.704   4.495   5.347  0.1662  0.0384 -0.1248
45542SOL    HW148350  10.706   4.472   5.440 -1.2522  1.1798  0.2197
45542SOL    HW248351  10.769   4.565   5.338  0.8437 -0.5831 -0.1620
45543SOL     OW48352   2.223   8.963   1.806  0.2617 -0.0933 -0.4081
45543SOL    HW148353   2.149   8.984   1.863 -0.0793 -3.2796  0.5257
45543SOL    HW248354   2.257   9.048   1.777 -0.4259  1.6711  3.4139
45544SOL     OW48355   3.157   8.179   8.364  0.2569  0.0772  0.4454
45544SOL    HW148356   3.075   8.197   8.410  0.5573  0.7365  0.7359
45544SOL    HW248357   3.138   8.101   8.312 -0.8899  0.8061 -0.2910
45545SOL     OW48358  11.806   3.217   9.257 -0.0521  0.4387  0.1858
45545SOL    HW148359  11.738   3.186   9.317 -0.0772  1.9802  1.0096
45545SOL    HW248360  11.762   3.228   9.173 -0.7226  0.9660  0.5935
45546SOL     OW48361   3.601   0.335  10.078 -0.0103 -0.0163 -0.2910
45546SOL    HW148362   3.625   0.422  10.108 -0.0110 -0.5972  1.5362
45546SOL    HW248363   3.627   0.333   9.986  1.6031  1.3321  0.0871
45547SOL     OW48364   6.772   9.204   6.116  0.2853  0.3972  0.2929
45547SOL    HW148365   6.810   9.156   6.190 -0.8019  0.1607  0.7135
45547SOL    HW248366   6.702   9.147   6.085  1.2657  0.1071 -1.4780
45548SOL     OW48367   9.546   6.889   5.619 -0.1204  0.1702  0.6346
45548SOL    HW148368   9.464   6.872   5.573  0.4882  1.0894 -0.8529
45548SOL    HW248369   9.519   6.921   5.705 -1.2974 -0.5569  0.5553
45549SOL     OW48370   5.538   4.398   2.673 -0.5295  0.4070 -0.6995
45549SOL    HW148371   5.506   4.488   2.671 -0.2932  0.5244  0.3185
45549SOL    HW248372   5.522   4.369   2.763  0.4882 -0.1559 -0.6812
45550SOL     OW48373   0.675   7.619   7.515 -0.0023  0.2394 -0.8802
45550SOL    HW148374   0.735   7.668   7.570 -1.8089 -0.7516  2.2338
45550SOL    HW248375   0.701   7.527   7.526 -1.5325 -0.1389 -0.0410
45551SOL     OW48376   6.404   5.960   5.030  0.1924  0.5171 -0.1207
45551SOL    HW148377   6.495   5.935   5.014  0.7416  2.7874 -1.0502
45551SOL    HW248378   6.352   5.890   4.992  1.5648  0.0590 -1.2362
45552SOL     OW48379  11.807   1.196   8.684  0.1723  0.0476  0.1828
45552SOL    HW148380  11.786   1.245   8.764 -2.5023 -1.1260  0.3093
45552SOL    HW248381  11.796   1.260   8.613  0.3458  0.5485  0.6065
45553SOL     OW48382   2.936  11.938   7.993 -0.6079  0.1871  0.3202
45553SOL    HW148383   3.011  11.965   7.940 -0.2220  0.8220  1.1570
45553SOL    HW248384   2.913  12.016   8.043 -2.4404  0.2958 -0.5884
45554SOL     OW48385   9.055   2.089   9.571  0.4381 -0.6862  0.1061
45554SOL    HW148386   8.960   2.100   9.574  0.6444  1.1426  1.3157
45554SOL    HW248387   9.069   2.022   9.504 -1.6203  0.2427 -1.3690
45555SOL     OW48388  10.436  11.777   7.242  0.0569  0.2339 -0.2233
45555SOL    HW148389  10.483  11.712   7.190  1.1114  1.1694 -0.4919
45555SOL    HW248390  10.475  11.861   7.216 -0.6413  0.8850  0.7645
45556SOL     OW48391   4.261   7.460   6.259  0.0151 -0.4247 -0.6953
45556SOL    HW148392   4.354   7.471   6.280 -0.0099  1.3246 -1.3463
45556SOL    HW248393   4.256   7.476   6.165 -1.1206  1.0422 -0.4281
45557SOL     OW48394   6.633   1.500   5.651 -0.1194 -0.2705 -0.0424
45557SOL    HW148395   6.538   1.495   5.653 -0.2586  1.6317 -0.1580
45557SOL    HW248396   6.659   1.517   5.742  0.2742 -2.2492  0.2777
45558SOL     OW48397  10.126   2.425   0.000 -0.1886 -0.0379  0.5490
45558SOL    HW148398  10.051   2.444   0.057  0.3361 -0.3722  1.3770
45558SOL    HW248399  10.187   2.378   0.057  0.7748  0.4934 -0.0313
45559SOL     OW48400   3.140   3.240   0.834 -0.0783 -0.5807 -0.5833
45559SOL    HW148401   3.074   3.191   0.883 -1.7996  0.5790 -1.6185
45559SOL    HW248402   3.222   3.194   0.851 -1.0587 -1.7978  1.1494
45560SOL     OW48403   4.607  10.170   5.451  0.1362 -0.0518  0.5067
45560SOL    HW148404   4.562  10.254   5.444  0.7434  0.1570 -1.2818
45560SOL    HW248405   4.699  10.191   5.436  0.1097 -1.2163 -1.6892
45561SOL     OW48406   5.909   0.711   1.226  0.3615  0.1811 -0.6447
45561SOL    HW148407   5.870   0.758   1.152  0.1103  0.5146 -0.3109
45561SOL    HW248408   6.003   0.723   1.216  0.3055  0.6507 -0.6391
45562SOL     OW48409   3.592   1.776   6.554 -0.1683  0.2040  0.0246
45562SOL    HW148410   3.620   1.707   6.493  0.5250 -1.1700  1.8122
45562SOL    HW248411   3.670   1.793   6.607 -0.8110  1.2237  0.6530
45563SOL     OW48412   3.022   1.781   6.280 -0.1354 -0.2002 -0.3979
45563SOL    HW148413   3.056   1.743   6.361 -1.3015  0.2161  0.3111
45563SOL    HW248414   3.070   1.863   6.271  0.2273 -0.3984 -0.2987
45564SOL     OW48415   1.105   7.477   8.930  0.0107  0.0512  0.3738
45564SOL    HW148416   1.038   7.476   8.998  0.7227  1.2360  1.1081
45564SOL    HW248417   1.188   7.488   8.976  1.0816 -3.5968 -0.2932
45565SOL     OW48418   8.482   4.785   3.394  0.3257  0.1080 -0.4276
45565SOL    HW148419   8.536   4.855   3.356  1.4776 -0.1403  0.6629
45565SOL    HW248420   8.440   4.743   3.319 -1.9638  3.1320 -1.0288
45566SOL     OW48421   0.427   4.031   5.174 -0.3276  0.3205 -0.0644
45566SOL    HW148422   0.370   4.097   5.135  0.0258  0.3114 -0.5987
45566SOL    HW248423   0.503   4.026   5.115 -0.6934 -1.1004 -0.4514
45567SOL     OW48424   3.872   8.000   4.378 -0.4850  0.1426  0.0688
45567SOL    HW148425   3.884   7.986   4.284 -1.2932  1.9080 -0.3371
45567SOL    HW248426   3.917   7.926   4.419 -0.1772 -0.7070 -1.6960
45568SOL     OW48427   2.826   6.818   6.489  0.2791  0.3826  0.2827
45568SOL    HW148428   2.902   6.795   6.434 -0.6313 -0.6747 -0.5867
45568SOL    HW248429   2.818   6.913   6.480  0.8339  0.3665 -0.5033
45569SOL     OW48430  10.726   5.299   3.834 -0.0674  0.1538  0.2839
45569SOL    HW148431  10.778   5.228   3.873  0.5502 -0.1244 -0.9877
45569SOL    HW248432  10.791   5.364   3.809 -0.6002  1.0253  1.1093
45570SOL     OW48433   0.793   3.536   1.072 -0.0956  0.0288 -0.0236
45570SOL    HW148434   0.704   3.542   1.036 -0.4665 -1.0867  0.6430
45570SOL    HW248435   0.782   3.556   1.165 -0.4504 -4.1718  1.0433
45571SOL     OW48436   2.406   3.082  10.364  0.1159 -0.0321 -0.2140
45571SOL    HW148437   2.418   3.151  10.300 -1.3784  0.8513  0.4149
45571SOL    HW248438   2.321   3.100  10.404  1.4663  0.1696  2.8651
45572SOL     OW48439   4.662  10.196   3.771 -0.1988 -0.4295 -0.0265
45572SOL    HW148440   4.738  10.180   3.714  0.2674 -0.9462  0.7211
45572SOL    HW248441   4.634  10.109   3.798 -0.0329 -0.1753  1.0176
45573SOL     OW48442  11.199   3.726  10.163 -0.0621  0.0699 -0.3844
45573SOL    HW148443  11.164   3.713  10.075  0.1099  0.0790 -0.4540
45573SOL    HW248444  11.233   3.640  10.188 -2.7108 -0.7412  0.8299
45574SOL     OW48445   7.384  11.921  11.686  0.0274 -0.0296 -0.1533
45574SOL    HW148446   7.455  11.961  11.737  0.9338 -0.5580 -0.9499
45574SOL    HW248447   7.362  11.841  11.733  0.5137 -0.2597 -0.3037
45575SOL     OW48448   3.175   2.651   1.742 -0.2694  0.1098  0.0826
45575SOL    HW148449   3.082   2.630   1.733 -0.4487  1.7177 -3.3813
45575SOL    HW248450   3.220   2.592   1.683  0.9517 -0.4821  1.5360
45576SOL     OW48451   0.278  11.262   9.174  0.6598  0.1983  0.1967
45576SOL    HW148452   0.305  11.182   9.220  2.4036  0.6451  0.0216
45576SOL    HW248453   0.255  11.323   9.243  1.1758  0.1595  0.4055
45577SOL     OW48454   4.672   3.098   8.510 -0.1858  0.0629 -0.5016
45577SOL    HW148455   4.723   3.156   8.454  0.6841 -0.3509 -0.1630
45577SOL    HW248456   4.588   3.090   8.466  0.3217  0.1054 -1.5147
45578SOL     OW48457   9.714   9.253   1.179 -0.0582  0.1672  0.6396
45578SOL    HW148458   9.620   9.264   1.162 -0.5539 -1.9674  1.5955
45578SOL    HW248459   9.724   9.159   1.194  2.2513  0.3563  0.6070
45579SOL     OW48460  10.000   9.812   9.204  0.2280 -0.0979  0.2537
45579SOL    HW148461  10.045   9.829   9.121  1.4484  3.3786  1.4884
45579SOL    HW248462  10.069   9.806   9.269 -0.8593  0.7264  1.5289
45580SOL     OW48463   5.092   6.315  10.052 -0.1307 -0.1067  0.3559
45580SOL    HW148464   5.137   6.251   9.997 -1.6771  0.6249 -1.9090
45580SOL    HW248465   5.031   6.359   9.993 -1.3188  1.3397  2.5124
45581SOL     OW48466   6.017   6.690  10.845  0.3876 -0.0488  0.2094
45581SOL    HW148467   6.056   6.754  10.785  0.2872 -0.4091 -0.2422
45581SOL    HW248468   6.065   6.609  10.829 -0.7474 -0.5925 -0.6047
45582SOL     OW48469   1.878  10.734   5.386  0.6094 -0.9869  0.3706
45582SOL    HW148470   1.883  10.756   5.479 -0.0009  1.2307 -0.0718
45582SOL    HW248471   1.966  10.749   5.353  0.7223 -1.3661  0.4911
45583SOL     OW48472  10.593   1.810   5.485  0.5174 -0.0848 -0.6502
45583SOL    HW148473  10.588   1.897   5.524  1.4887 -1.2426  2.2892
45583SOL    HW248474  10.685   1.802   5.457  1.1405 -1.0380  1.4862
45584SOL     OW48475   3.369  11.206   5.559  0.6715 -0.4707 -0.1409
45584SOL    HW148476   3.348  11.222   5.467  0.0894 -2.0895 -0.3157
45584SOL    HW248477   3.284  11.207   5.603  0.7927 -1.1645  0.1255
45585SOL     OW48478   1.737  10.138   5.958  0.2973 -0.1300 -0.2611
45585SOL    HW148479   1.743  10.048   5.926  1.6893 -1.0420  2.2672
45585SOL    HW248480   1.817  10.179   5.927  0.8199 -0.4965  0.5889
45586SOL     OW48481   3.033   5.974   2.053  0.1607  0.0422 -0.1223
45586SOL    HW148482   3.034   6.034   1.979  0.0022 -0.3194 -0.4209
45586SOL    HW248483   2.952   5.924   2.043  0.1044  0.0397  0.3335
45587SOL     OW48484   6.560   2.857   6.574 -0.3025  0.3782  0.2346
45587SOL    HW148485   6.526   2.782   6.526  1.6163  1.0861 -2.5059
45587SOL    HW248486   6.515   2.933   6.537 -1.9718  0.7358  2.7257
45588SOL     OW48487   6.502   7.301   5.077 -0.2236  0.0429  0.6514
45588SOL    HW148488   6.449   7.370   5.037 -1.5017 -0.7926  0.8210
45588SOL    HW248489   6.567   7.279   5.010 -0.5149  0.6317  0.1658
45589SOL     OW48490   6.903   3.593   7.919  0.2551  0.7029  0.2880
45589SOL    HW148491   6.817   3.551   7.910  0.5855  0.2886 -1.1784
45589SOL    HW248492   6.965   3.521   7.917  0.6590  1.0226  1.0947
45590SOL     OW48493   1.331   5.295   4.634  0.0958  0.3985 -0.6301
45590SOL    HW148494   1.252   5.266   4.588  0.9166 -0.6806 -1.3822
45590SOL    HW248495   1.332   5.390   4.620 -0.8587  0.3793 -0.9354
45591SOL     OW48496   0.401   1.278   4.251 -0.1175 -0.1528  0.4037
45591SOL    HW148497   0.474   1.219   4.268 -0.2248  0.5088  4.0377
45591SOL    HW248498   0.326   1.236   4.295 -1.3624  0.3791 -1.1139
45592SOL     OW48499   1.888   3.764   4.358  0.3356  0.1759 -0.4425
45592SOL    HW148500   1.885   3.816   4.439 -0.1431  1.9406 -1.5202
45592SOL    HW248501   1.978   3.735   4.352  0.5581  0.6500  0.3704
45593SOL     OW48502   8.527  11.390   2.947  0.1664  0.3763  0.3232
45593SOL    HW148503   8.602  11.334   2.926 -0.8439 -0.9039  0.0110
45593SOL    HW248504   8.544  11.421   3.036  1.6120  1.0610 -0.1635
45594SOL     OW48505   0.442  10.265   7.625  0.1390  0.7571  0.8246
45594SOL    HW148506   0.469  10.174   7.635 -0.8971  0.0835 -1.6863
45594SOL    HW248507   0.352  10.266   7.659  0.2631  0.9424  1.1533
45595SOL     OW48508   7.598   7.922   9.033 -0.6049  0.2132 -0.0647
45595SOL    HW148509   7.556   7.904   8.949  0.4140 -0.2689 -0.4816
45595SOL    HW248510   7.691   7.918   9.015 -0.3416 -1.2815  1.3685
45596SOL     OW48511   4.141   6.278   3.247  1.0205  0.0756  0.0413
45596SOL    HW148512   4.132   6.373   3.258  0.8143 -0.1381  2.2914
45596SOL    HW248513   4.085   6.242   3.316  0.9994 -1.6956 -0.8618
45597SOL     OW48514   2.018   3.435   1.305 -0.5978 -0.2160 -0.3648
45597SOL    HW148515   2.031   3.431   1.210 -1.7309  1.5447 -0.6522
45597SOL    HW248516   2.100   3.469   1.339 -0.1960 -0.8212 -0.7050
45598SOL     OW48517   5.629   1.068   2.538 -0.4063 -0.2862  0.4489
45598SOL    HW148518   5.671   1.139   2.490  1.3434  0.9281  3.5136
45598SOL    HW248519   5.698   1.004   2.552 -1.1721 -1.1428  0.4455
45599SOL     OW48520   8.325   5.791   8.691 -0.3147  0.5497 -0.5733
45599SOL    HW148521   8.265   5.727   8.729  1.3002 -0.7367 -0.1034
45599SOL    HW248522   8.350   5.753   8.607  1.5424 -0.0391  0.2081
45600SOL     OW48523   3.079   9.779  11.527 -0.7374  0.0290  0.6938
45600SOL    HW148524   3.025   9.743  11.597 -1.9049  0.1179 -0.1163
45600SOL    HW248525   3.144   9.711  11.510 -2.2762 -1.3246 -0.1154
45601SOL     OW48526  11.898   2.095   2.403  0.1420  0.2015  0.7296
45601SOL    HW148527  11.853   2.163   2.454  0.7526  1.2154 -0.0575
45601SOL    HW248528  11.929   2.140   2.325 -1.3277 -1.4356 -0.8990
45602SOL     OW48529   7.031  11.515   9.831 -0.2281 -0.3680 -0.1760
45602SOL    HW148530   7.040  11.574   9.906 -0.7716  0.3141 -0.6372
45602SOL    HW248531   7.073  11.434   9.860  1.2393  0.4783  0.2001
45603SOL     OW48532   7.408   9.964   1.393 -0.1154  0.3012  0.5107
45603SOL    HW148533   7.346  10.005   1.454  0.5276  1.4110  0.4502
45603SOL    HW248534   7.454  10.038   1.353 -1.2269 -0.3047 -2.1185
45604SOL     OW48535   6.315   2.621   9.606 -0.0864 -0.2474  0.4234
45604SOL    HW148536   6.370   2.599   9.531  0.3746 -1.0079  0.9578
45604SOL    HW248537   6.275   2.537   9.631 -2.3916  0.4659 -0.6222
45605SOL     OW48538   3.612   4.651   6.549  0.3476 -0.1194  0.0157
45605SOL    HW148539   3.587   4.571   6.596  0.0151  0.0646  0.1546
45605SOL    HW248540   3.587   4.635   6.458  0.4044 -0.2266  0.0187
45606SOL     OW48541   2.022  11.166   8.792 -0.2932 -0.1556 -0.2391
45606SOL    HW148542   1.947  11.181   8.849  0.9067 -0.7881  1.5899
45606SOL    HW248543   2.091  11.137   8.850  0.6192 -2.2260 -2.1901
45607SOL     OW48544  11.039   4.872   6.505  0.9475  0.8921 -0.4417
45607SOL    HW148545  11.022   4.964   6.486 -1.9289  0.5817  0.2639
45607SOL    HW248546  11.078   4.872   6.592  1.0922  1.4321 -0.5013
45608SOL     OW48547  11.942   3.558  11.173  0.2711 -0.0169  0.1232
45608SOL    HW148548  11.992   3.584  11.095  0.9416 -2.1320 -0.2243
45608SOL    HW248549  11.974   3.615  11.243  1.4464  0.2811 -0.6293
45609SOL     OW48550   8.604   7.558  10.822  0.0143 -0.0345 -0.2991
45609SOL    HW148551   8.585   7.605  10.740  0.2052 -0.6407 -0.7022
45609SOL    HW248552   8.647   7.477  10.793  0.8695  0.1426  0.4559
45610SOL     OW48553   3.890   1.014   1.318  0.6416 -0.4465 -0.6751
45610SOL    HW148554   3.986   1.017   1.321  0.6490  2.6677 -0.2471
45610SOL    HW248555   3.863   0.988   1.406  1.2016  2.4477  0.4856
45611SOL     OW48556   7.333  10.086   9.138  0.0425 -0.1497  0.4111
45611SOL    HW148557   7.283  10.168   9.145 -1.7686 -1.2096  0.6206
45611SOL    HW248558   7.271  10.019   9.166  0.9692 -1.7733 -1.2573
45612SOL     OW48559   2.219   1.773  10.098  0.0841  0.3903  0.2988
45612SOL    HW148560   2.189   1.831  10.169  1.9407  2.2074 -0.2982
45612SOL    HW248561   2.255   1.832  10.033  2.4622 -1.4537 -0.1877
45613SOL     OW48562   9.444   5.006  10.994  0.3268 -0.4559  0.1340
45613SOL    HW148563   9.384   4.932  11.001  1.2516 -1.1918  0.6495
45613SOL    HW248564   9.388   5.081  10.976 -0.5216 -1.5026 -1.9840
45614SOL     OW48565  11.912   9.351  10.711  0.2753 -0.1620  0.1378
45614SOL    HW148566  11.850   9.279  10.721 -0.3499  0.4830  1.0434
45614SOL    HW248567  11.933   9.352  10.617 -0.7337 -0.6715 -0.1047
45615SOL     OW48568  11.208   1.279   1.560  0.7646 -0.0364 -0.4035
45615SOL    HW148569  11.205   1.184   1.570 -1.7029  0.0783  0.8012
45615SOL    HW248570  11.280   1.307   1.616 -1.1704 -0.9618  2.8178
45616SOL     OW48571   2.122  10.361   3.037 -0.0141  0.0502  0.1567
45616SOL    HW148572   2.029  10.382   3.026 -0.0777 -0.2665  0.0764
45616SOL    HW248573   2.160  10.374   2.950 -0.0574 -0.1896  0.1026
45617SOL     OW48574  11.762   8.636   5.518  0.1099 -0.0135  0.7846
45617SOL    HW148575  11.732   8.615   5.430 -0.4122  1.8005  0.4842
45617SOL    HW248576  11.684   8.668   5.563  0.6603  0.4102  1.4583
45618SOL     OW48577  10.702  10.134   6.175 -0.5860 -1.1548  0.3094
45618SOL    HW148578  10.783  10.150   6.126 -0.3103 -2.5952  0.2532
45618SOL    HW248579  10.637  10.192   6.134  0.4675  0.2458  0.5548
45619SOL     OW48580   5.617   4.566   7.952  0.0236 -0.5494  0.0328
45619SOL    HW148581   5.625   4.491   7.894  2.0372 -0.2870 -0.0780
45619SOL    HW248582   5.622   4.530   8.040  1.7664 -0.5250 -0.0206
45620SOL     OW48583   8.587   2.178   4.850 -0.1820  0.4565 -0.2959
45620SOL    HW148584   8.548   2.231   4.920  0.8286  0.0571  0.5888
45620SOL    HW248585   8.591   2.238   4.775 -0.3646  1.1964  0.2688
45621SOL     OW48586   4.564  10.696   7.248 -0.4318 -0.3248  0.2438
45621SOL    HW148587   4.509  10.636   7.198  0.9357 -1.1836 -0.2867
45621SOL    HW248588   4.601  10.643   7.318  0.5536 -0.0574 -0.0471
45622SOL     OW48589   1.103   1.065  11.958 -0.2732 -0.3041 -0.0197
45622SOL    HW148590   1.031   1.096  11.904  0.1122  1.4422  0.4014
45622SOL    HW248591   1.109   0.971  11.939 -2.4228 -0.4311 -0.3060
45623SOL     OW48592   5.062   6.338  10.316  0.0645  0.1271 -0.5815
45623SOL    HW148593   5.082   6.313  10.226 -0.4444  0.8415 -0.9010
45623SOL    HW248594   4.974   6.305  10.331 -0.0766  0.5182 -0.5422
45624SOL     OW48595   2.934   2.072   4.448  0.2423 -0.1318 -0.0990
45624SOL    HW148596   2.938   2.027   4.532 -0.9160 -0.6560 -0.3144
45624SOL    HW248597   2.862   2.031   4.402  0.8052  0.2087 -1.3271
45625SOL     OW48598   1.486   7.907   8.028  0.0539 -0.4648  0.3235
45625SOL    HW148599   1.557   7.856   8.068  0.3471 -0.1096  0.2637
45625SOL    HW248600   1.442   7.949   8.102 -0.0059 -0.5736  0.3496
45626SOL     OW48601   8.247   3.854   7.542 -0.1057  0.2896 -0.4357
45626SOL    HW148602   8.310   3.784   7.554 -0.6375 -0.1620 -0.2357
45626SOL    HW248603   8.263   3.887   7.453  0.5882  0.3704 -0.2845
45627SOL     OW48604   8.631  10.823   7.078  0.4793  0.4240  0.2786
45627SOL    HW148605   8.599  10.900   7.033  1.3356  1.7166  1.7700
45627SOL    HW248606   8.688  10.779   7.014 -0.5673  0.6207 -0.8156
45628SOL     OW48607   9.460   5.311   0.822  0.1550  0.4127 -0.2018
45628SOL    HW148608   9.365   5.297   0.826  0.3268 -0.6593  0.5540
45628SOL    HW248609   9.476   5.341   0.732 -0.7654 -0.5305 -0.7062
45629SOL     OW48610   0.913   2.543   3.656  0.0063 -0.2461  0.1991
45629SOL    HW148611   0.834   2.559   3.605 -0.2816 -1.9357  0.0521
45629SOL    HW248612   0.929   2.449   3.647  2.3926  0.1269 -0.2934
45630SOL     OW48613  10.055   2.812   0.841 -0.2924  0.2087 -1.1227
45630SOL    HW148614  10.009   2.843   0.763  0.0564 -0.5342 -1.6282
45630SOL    HW248615  10.078   2.721   0.822  0.2794  0.1822 -0.3765
45631SOL     OW48616  10.349   3.670   2.630 -0.2641  0.2673  0.7573
45631SOL    HW148617  10.312   3.756   2.651 -2.4493  0.9566 -4.3880
45631SOL    HW248618  10.442   3.687   2.612 -0.4750  1.3516  0.6559
45632SOL     OW48619   0.209   3.469  10.741 -0.3560  1.0519 -0.1662
45632SOL    HW148620   0.205   3.485  10.646  0.8550  1.0601 -0.2344
45632SOL    HW248621   0.206   3.373  10.749  1.8684  0.9006 -0.4060
45633SOL     OW48622   8.985   3.199   2.541 -0.2440 -0.2969 -0.2990
45633SOL    HW148623   8.967   3.293   2.550 -0.9052 -0.3401 -1.0483
45633SOL    HW248624   8.909   3.156   2.580 -1.8101 -0.4842 -3.2814
45634SOL     OW48625  11.926   1.965   7.928  0.6239  0.6773  0.3346
45634SOL    HW148626  11.850   1.926   7.972  0.7971 -2.1495 -1.5532
45634SOL    HW248627  11.996   1.901   7.940  2.2336  2.3865  0.5111
45635SOL     OW48628   0.194  10.415   8.914  0.5173  0.4445 -0.4102
45635SOL    HW148629   0.142  10.335   8.921 -0.3775  0.8541 -1.8398
45635SOL    HW248630   0.256  10.397   8.844  1.7198  0.2854  0.6755
45636SOL     OW48631   2.914   5.166   4.588  0.2504  0.1511  0.0513
45636SOL    HW148632   2.828   5.131   4.613  0.3952  0.6310  1.3140
45636SOL    HW248633   2.940   5.220   4.663  2.1855 -0.9083  0.2092
45637SOL     OW48634   0.388   9.132   2.857  0.1776 -0.5112  0.3760
45637SOL    HW148635   0.475   9.145   2.895  1.3830 -1.0177 -2.0367
45637SOL    HW248636   0.392   9.175   2.771 -2.3203  0.3445  0.5775
45638SOL     OW48637   9.917   0.459   5.495 -0.3760 -0.4789 -0.0710
45638SOL    HW148638   9.877   0.546   5.503 -2.3156 -1.0597 -2.2563
45638SOL    HW248639   9.992   0.473   5.437 -1.9161 -0.5001 -2.1821
45639SOL     OW48640   2.212  11.596   7.956  0.0250 -0.2400 -0.1209
45639SOL    HW148641   2.124  11.632   7.967 -0.5829 -1.8263  0.4277
45639SOL    HW248642   2.204  11.536   7.882  0.8101  0.0563 -0.4568
45640SOL     OW48643   7.558   9.012   5.285  0.0121  0.4692  0.3430
45640SOL    HW148644   7.513   8.945   5.233 -0.6980  1.3027 -0.1395
45640SOL    HW248645   7.645   9.019   5.245  0.2364 -0.4433  0.6531
45641SOL     OW48646   9.706   2.101   9.340 -0.0999 -0.1517 -0.1715
45641SOL    HW148647   9.697   2.196   9.337 -0.5018 -0.1611  0.6693
45641SOL    HW248648   9.652   2.069   9.268 -1.2097  0.1777  0.4999
45642SOL     OW48649   9.864   5.074   1.419 -0.0546 -0.5701  0.0429
45642SOL    HW148650   9.857   4.980   1.404  1.6556 -0.5246 -1.4469
45642SOL    HW248651   9.875   5.111   1.331 -1.2855  1.1185  0.5341
45643SOL     OW48652   6.822   5.392   5.701 -0.9013 -0.3998  0.7626
45643SOL    HW148653   6.885   5.415   5.769 -1.2239 -0.9390  1.2582
45643SOL    HW248654   6.771   5.472   5.687 -0.3227 -0.0561  0.5857
45644SOL     OW48655   4.335   0.045   3.619  0.0335 -0.6307  0.0678
45644SOL    HW148656   4.339  -0.044   3.584  1.8840 -0.4878 -0.1854
45644SOL    HW248657   4.376   0.099   3.552  0.3024  0.1928  0.8769
45645SOL     OW48658   2.951   6.635   9.105  0.1509 -0.4987  0.2429
45645SOL    HW148659   2.917   6.600   9.022 -0.0493  1.6224 -0.6496
45645SOL    HW248660   2.912   6.723   9.111  3.2759  1.0220  0.5293
45646SOL     OW48661   6.868   0.745   0.201  0.1270  0.1192  0.0633
45646SOL    HW148662   6.886   0.823   0.148 -0.6068  0.0730 -0.2673
45646SOL    HW248663   6.797   0.771   0.259 -0.8486 -0.5926 -0.7645
45647SOL     OW48664   7.487   6.879   4.217 -0.5104 -0.5020  0.1987
45647SOL    HW148665   7.573   6.886   4.258  0.1370  2.5833 -1.3498
45647SOL    HW248666   7.431   6.938   4.267 -0.4431  1.0431 -1.4094
45648SOL     OW48667   8.710   1.691  10.415  0.0155  0.0536  0.5260
45648SOL    HW148668   8.738   1.613  10.368  0.0419 -0.4170  1.2974
45648SOL    HW248669   8.770   1.696  10.490  0.4801  1.2209  0.1043
45649SOL     OW48670   2.081  10.753  10.472  0.2593  0.1647  0.1337
45649SOL    HW148671   2.073  10.697  10.549  0.4907  1.1074  0.8781
45649SOL    HW248672   2.084  10.693  10.398  0.8371 -0.8109  0.9171
45650SOL     OW48673   3.217   7.104   4.713 -0.0343  0.0064  0.4159
45650SOL    HW148674   3.215   7.200   4.724 -0.4459  0.0941 -0.3401
45650SOL    HW248675   3.251   7.071   4.796  4.0504  1.0157 -0.6306
45651SOL     OW48676  11.242  10.574   9.237 -0.5405  0.3218 -0.0876
45651SOL    HW148677  11.306  10.569   9.167 -1.0594  2.3754 -0.7752
45651SOL    HW248678  11.183  10.499   9.222  0.6968 -0.6104 -0.4221
45652SOL     OW48679   1.726   8.861   5.876 -0.1149  0.1793 -0.5525
45652SOL    HW148680   1.716   8.952   5.848  2.3742 -0.0153 -2.4775
45652SOL    HW248681   1.764   8.817   5.800 -0.5916 -2.3369  0.5658
45653SOL     OW48682   4.369  10.767   3.651 -0.7366 -0.2461 -0.2378
45653SOL    HW148683   4.301  10.700   3.656 -0.4471 -0.5861 -0.7468
45653SOL    HW248684   4.344  10.823   3.578 -0.4704 -0.3723 -0.4277
45654SOL     OW48685   3.781  11.849   4.971  0.3982  0.0608 -0.4937
45654SOL    HW148686   3.691  11.880   4.980  0.4329  0.3382 -1.0682
45654SOL    HW248687   3.825  11.881   5.051 -0.3339 -1.2991  0.4939
45655SOL     OW48688   7.024   1.386   0.930  0.4683 -0.0576  0.0910
45655SOL    HW148689   7.090   1.439   0.885 -0.0296 -0.3651 -1.0397
45655SOL    HW248690   7.074   1.315   0.970  1.1162  1.1280  1.4662
45656SOL     OW48691  11.112  11.631   1.955  0.0960 -0.0223 -0.1401
45656SOL    HW148692  11.017  11.625   1.966 -0.1022 -0.8043 -1.9155
45656SOL    HW248693  11.124  11.653   1.863  1.6449  0.0349  0.0518
45657SOL     OW48694   8.165  10.012   0.598  0.1704 -0.3888  0.1161
45657SOL    HW148695   8.115  10.055   0.529  1.8409 -0.1719 -1.0151
45657SOL    HW248696   8.112   9.935   0.621 -0.0003 -1.0075 -2.1121
45658SOL     OW48697   0.722   3.419   6.472  0.0685  0.0241 -0.1029
45658SOL    HW148698   0.671   3.418   6.553 -3.6404 -1.9604 -2.1853
45658SOL    HW248699   0.678   3.484   6.417  0.6357 -0.8115 -1.5817
45659SOL     OW48700   8.571   6.581   5.381  0.0705  0.2691  0.1236
45659SOL    HW148701   8.486   6.564   5.420 -0.4314 -1.0130 -1.4081
45659SOL    HW248702   8.585   6.675   5.394 -3.1313  1.2902 -2.4146
45660SOL     OW48703   4.137   6.657   1.638 -0.3832 -0.2647 -0.6501
45660SOL    HW148704   4.166   6.600   1.709 -1.2619 -1.5104 -1.2540
45660SOL    HW248705   4.207   6.722   1.629  0.4436 -0.9881  0.3481
45661SOL     OW48706   9.247   4.219   6.551  0.5226 -0.1927  0.1405
45661SOL    HW148707   9.333   4.224   6.510  0.7074  1.8355  0.6539
45661SOL    HW248708   9.245   4.293   6.612 -1.0512 -1.0445  1.2075
45662SOL     OW48709   4.267   2.213   4.771  0.2354 -0.4978 -0.2840
45662SOL    HW148710   4.317   2.217   4.690  0.8714 -0.5628  0.0993
45662SOL    HW248711   4.330   2.236   4.840  0.1633 -2.1358  0.3851
45663SOL     OW48712   2.047   5.401   7.540 -0.0763 -0.7721 -0.0517
45663SOL    HW148713   2.100   5.480   7.551 -1.1958 -0.1719  1.2832
45663SOL    HW248714   2.053   5.381   7.446  1.3950  0.0330 -0.1663
45664SOL     OW48715   5.190   4.504   9.084  0.1871  0.2331  0.7846
45664SOL    HW148716   5.277   4.465   9.081 -0.0067 -0.1722  0.0501
45664SOL    HW248717   5.178   4.530   9.175  0.9035 -0.0955  0.9782
45665SOL     OW48718  11.581   3.763   3.236 -0.3585  0.0166  0.5958
45665SOL    HW148719  11.500   3.750   3.285 -0.0586 -1.1606  0.8288
45665SOL    HW248720  11.650   3.748   3.301  0.0397 -0.5093  0.0624
45666SOL     OW48721   0.528   1.518   1.243 -0.8353  0.3118  0.1178
45666SOL    HW148722   0.435   1.534   1.224 -0.9358  2.1164  1.7917
45666SOL    HW248723   0.547   1.435   1.200 -3.5780 -0.8258  0.8777
45667SOL     OW48724  10.277  10.775   6.751  0.3770 -0.1757  0.1074
45667SOL    HW148725  10.358  10.730   6.774  1.1042  0.2292 -1.5436
45667SOL    HW248726  10.300  10.868   6.752 -0.1307 -0.0467 -0.1723
45668SOL     OW48727   6.198   1.838   1.886  0.4234 -0.6872 -0.1410
45668SOL    HW148728   6.106   1.835   1.910  0.0257 -1.3889 -1.6355
45668SOL    HW248729   6.234   1.910   1.937 -0.6951 -1.0721  1.2688
45669SOL     OW48730   2.597   5.579  11.519 -0.1844  0.0174  0.2391
45669SOL    HW148731   2.649   5.586  11.439  0.7546  0.2530  0.8470
45669SOL    HW248732   2.563   5.490  11.518  0.1126 -0.0963 -0.2490
45670SOL     OW48733   6.057   0.701   4.710 -0.1495 -0.2481  0.3841
45670SOL    HW148734   5.989   0.738   4.653 -0.4382  0.2910  1.0681
45670SOL    HW248735   6.068   0.612   4.678 -1.3080 -0.4038  0.3647
45671SOL     OW48736   3.525   1.373   1.783 -0.1278  0.0680  0.1182
45671SOL    HW148737   3.459   1.335   1.725  2.5351 -0.1867 -3.0511
45671SOL    HW248738   3.526   1.316   1.860 -3.4517  0.0780  0.2946
45672SOL     OW48739   2.638   9.883   5.507 -0.3449 -0.3669 -0.3848
45672SOL    HW148740   2.723   9.926   5.499 -0.0090 -0.6995  1.0722
45672SOL    HW248741   2.651   9.818   5.576 -2.5713  1.6597  2.1506
45673SOL     OW48742  11.210   5.228  11.099  0.1564 -1.0575  0.1189
45673SOL    HW148743  11.237   5.199  11.186 -1.0860 -0.7922  0.6007
45673SOL    HW248744  11.262   5.307  11.083 -0.1069 -0.7082  0.9225
45674SOL     OW48745   6.821   0.079   8.572  0.6604 -0.2913 -0.2059
45674SOL    HW148746   6.869   0.123   8.502 -0.0343  1.3458  0.2984
45674SOL    HW248747   6.872   0.099   8.651 -0.0482  0.2123  0.1282
45675SOL     OW48748   3.051   2.548   7.667  0.0290  0.6441 -0.2620
45675SOL    HW148749   2.966   2.508   7.685 -0.4320  1.3177 -0.8975
45675SOL    HW248750   3.065   2.608   7.740  0.4989 -0.2894  0.4407
45676SOL     OW48751   2.580   3.815   4.831 -0.1307 -0.2059 -0.4609
45676SOL    HW148752   2.598   3.723   4.811  0.9831  0.2346 -1.6374
45676SOL    HW248753   2.666   3.857   4.831 -0.6465  0.8775 -0.1738
45677SOL     OW48754   8.809   8.365   3.292  0.2753  0.0939  0.5454
45677SOL    HW148755   8.715   8.350   3.303  0.1971  0.0271 -0.1777
45677SOL    HW248756   8.815   8.430   3.221  0.8424 -2.3184 -1.7804
45678SOL     OW48757   8.644   6.902   0.314 -0.0887 -0.1997 -0.1968
45678SOL    HW148758   8.595   6.887   0.233  0.5610 -1.8562 -0.3161
45678SOL    HW248759   8.586   6.872   0.384 -0.8460  1.6780  0.0479
45679SOL     OW48760   6.040   3.286  10.035 -0.7614  0.4683 -0.1120
45679SOL    HW148761   6.091   3.246  10.106  0.3995  2.9744  0.5757
45679SOL    HW248762   6.099   3.349   9.995 -2.8240  2.4749 -0.2405
45680SOL     OW48763   1.260   3.523   4.627  0.1785  0.6631  0.1622
45680SOL    HW148764   1.312   3.462   4.575 -1.2224 -2.7395  2.4619
45680SOL    HW248765   1.182   3.539   4.574 -0.3988 -1.2863  0.3728
45681SOL     OW48766  10.302   4.224   4.536  0.0649  0.6156 -0.9755
45681SOL    HW148767  10.282   4.314   4.564  1.1117 -0.0071  2.1327
45681SOL    HW248768  10.390   4.230   4.499 -0.9145  1.2651 -3.3691
45682SOL     OW48769   8.916   5.329   2.957 -0.5052  1.0010 -0.2011
45682SOL    HW148770   8.835   5.339   3.006 -2.1738  1.5366 -2.8802
45682SOL    HW248771   8.968   5.268   3.009 -3.0470 -0.1995  1.1125
45683SOL     OW48772   5.280   8.044   8.881 -0.1792 -0.2729 -0.8873
45683SOL    HW148773   5.361   8.012   8.843  0.3417  2.1664 -2.0984
45683SOL    HW248774   5.305   8.079   8.966  0.6411  2.5042 -2.1450
45684SOL     OW48775   9.320  11.507   0.913  1.2905 -0.0077 -0.0674
45684SOL    HW148776   9.265  11.549   0.847  1.1553 -2.1195 -1.4008
45684SOL    HW248777   9.404  11.552   0.907  0.9376  0.5493 -0.9261
45685SOL     OW48778  11.454  11.656  10.140  0.4006 -0.1802  0.8051
45685SOL    HW148779  11.489  11.725  10.197 -1.0185  1.7015 -0.4782
45685SOL    HW248780  11.508  11.661  10.061 -0.0907 -0.1255  0.4720
45686SOL     OW48781   2.972   3.997   5.482  0.3638 -0.6033 -0.0585
45686SOL    HW148782   2.878   4.006   5.499  0.4426  0.8651 -0.2032
45686SOL    HW248783   2.987   3.903   5.475 -0.8842 -0.9289  1.1302
45687SOL     OW48784   1.309   7.630   8.319  0.1869 -0.0931 -0.2628
45687SOL    HW148785   1.233   7.608   8.373  0.6083 -1.8146 -0.3030
45687SOL    HW248786   1.304   7.724   8.307 -2.0532 -0.1786 -0.4308
45688SOL     OW48787   2.564   4.272   8.198 -0.0913  0.1290 -0.1361
45688SOL    HW148788   2.639   4.221   8.168 -1.9000 -1.5857 -2.1308
45688SOL    HW248789   2.575   4.279   8.292  1.2094 -2.4010 -0.0099
45689SOL     OW48790   0.863   1.374   9.072 -0.3923  0.3100 -0.3431
45689SOL    HW148791   0.788   1.315   9.075  0.0041 -0.2109 -0.4198
45689SOL    HW248792   0.868   1.403   8.981  0.5683 -1.1029 -0.7949
45690SOL     OW48793   3.624   9.680   8.884  0.0044  0.4999  0.4814
45690SOL    HW148794   3.617   9.737   8.807 -1.0834 -1.1222 -0.7063
45690SOL    HW248795   3.537   9.680   8.922  0.0304 -0.2113  0.5632
45691SOL     OW48796   4.731   2.004   3.083  0.1601 -0.1089  0.3464
45691SOL    HW148797   4.637   2.020   3.083 -0.0312 -1.1004 -0.5987
45691SOL    HW248798   4.744   1.941   3.154  0.0655 -0.2106  0.2734
45692SOL     OW48799   0.792   1.550   7.724 -0.1155 -0.1602  0.0119
45692SOL    HW148800   0.768   1.458   7.712  1.2720 -0.5860  0.2856
45692SOL    HW248801   0.777   1.567   7.817 -0.4224 -0.0955 -0.0498
45693SOL     OW48802   7.813  11.869   9.050  0.4533 -0.7780 -0.1767
45693SOL    HW148803   7.842  11.791   9.003  1.0234 -0.6883  0.0231
45693SOL    HW248804   7.810  11.843   9.142  0.2254 -0.6894 -0.1582
45694SOL     OW48805   4.731   5.182   6.130 -0.0010 -0.8947  0.2240
45694SOL    HW148806   4.657   5.202   6.072  0.4471 -1.9347 -0.7304
45694SOL    HW248807   4.691   5.136   6.204 -0.6753  1.0733  1.1569
45695SOL     OW48808   7.311  10.418   2.883  0.8035 -0.5444  0.7569
45695SOL    HW148809   7.351  10.453   2.962 -1.0200 -1.2598  2.0664
45695SOL    HW248810   7.219  10.405   2.906  0.1701 -0.6087 -1.5461
45696SOL     OW48811   7.188  11.804  10.707  0.0049  0.0327  0.2955
45696SOL    HW148812   7.102  11.785  10.670 -0.7017  2.0341  0.7742
45696SOL    HW248813   7.171  11.870  10.775  2.1518  2.4536 -1.2992
45697SOL     OW48814   4.393  10.382   8.268 -0.9312  0.1346 -0.1258
45697SOL    HW148815   4.339  10.461   8.261 -0.9031  0.0844 -1.0505
45697SOL    HW248816   4.348  10.318   8.213 -0.3890 -0.1623 -0.2295
45698SOL     OW48817   0.027  10.278   7.057 -0.3739 -0.3583 -0.3749
45698SOL    HW148818  -0.004  10.239   7.139  0.2960  0.0593  0.0930
45698SOL    HW248819   0.059  10.365   7.083  0.8744 -0.6456 -0.8797
45699SOL     OW48820   5.195  10.276   6.084  0.0287 -0.0740  0.2632
45699SOL    HW148821   5.165  10.354   6.131  1.6820 -0.0443  1.3576
45699SOL    HW248822   5.116  10.223   6.074 -1.6173  2.5587 -2.3764
45700SOL     OW48823   9.336   3.066   3.490 -0.0385  0.5130 -0.3204
45700SOL    HW148824   9.407   3.056   3.554 -0.9785  0.9299  0.8267
45700SOL    HW248825   9.374   3.038   3.407  0.5990 -2.1503  0.7758
45701SOL     OW48826  10.477   6.129   2.360 -0.3721  0.2973 -0.2990
45701SOL    HW148827  10.514   6.137   2.448 -0.3215 -0.2347 -0.2718
45701SOL    HW248828  10.552   6.136   2.302 -0.4523  1.0678 -0.3249
45702SOL     OW48829   8.399   9.183   7.162 -0.3417  0.6050 -0.4098
45702SOL    HW148830   8.324   9.239   7.181  1.2167  2.4914  0.5293
45702SOL    HW248831   8.441   9.224   7.086  0.1674  0.0175 -0.4562
45703SOL     OW48832  10.622   7.418  11.399  0.0137  0.1557 -0.2666
45703SOL    HW148833  10.704   7.432  11.352 -0.8398 -0.8500 -2.1607
45703SOL    HW248834  10.560   7.478  11.358 -0.9187 -1.2220 -0.9429
45704SOL     OW48835   8.265   5.049   1.108  0.6343 -0.7683 -0.6870
45704SOL    HW148836   8.235   4.996   1.183 -1.8783 -1.2634 -1.9095
45704SOL    HW248837   8.326   4.992   1.062 -0.3271 -1.7966 -0.7584
45705SOL     OW48838  10.251   1.922   3.807  0.5343 -0.0198 -0.0309
45705SOL    HW148839  10.249   1.935   3.712  0.2530  2.3126  0.2462
45705SOL    HW248840  10.177   1.864   3.824 -1.2306  1.8162 -0.9808
45706SOL     OW48841   5.085   4.313   7.736 -0.1351 -0.6705 -0.3290
45706SOL    HW148842   5.018   4.381   7.730 -0.5591 -1.0938 -0.4533
45706SOL    HW248843   5.045   4.235   7.698  0.2398 -1.0701  0.0668
45707SOL     OW48844   3.623  10.440   2.110  0.0893  0.1486 -0.1598
45707SOL    HW148845   3.627  10.407   2.200 -0.1380  1.7770  0.4851
45707SOL    HW248846   3.531  10.465   2.098 -0.0086 -0.5802 -1.0706
45708SOL     OW48847   9.676   2.009  11.901 -0.3189  0.0025 -0.6752
45708SOL    HW148848   9.591   1.975  11.928  0.4669 -1.1736  0.3692
45708SOL    HW248849   9.693   2.082  11.961  0.1054 -0.7612  0.1536
45709SOL     OW48850   5.102  11.677   5.576  0.2376  0.2351 -0.0355
45709SOL    HW148851   5.094  11.655   5.483  0.3885  2.7353 -0.7118
45709SOL    HW248852   5.022  11.726   5.596  1.4243  2.1610  0.3312
45710SOL     OW48853   1.515   4.143   9.090  0.0766 -0.4573 -1.1427
45710SOL    HW148854   1.505   4.088   9.168 -0.2046  0.3849 -0.5659
45710SOL    HW248855   1.589   4.199   9.110  0.5566 -0.8151 -1.8552
45711SOL     OW48856   7.863   1.094   8.891  0.0041  0.8467  0.1743
45711SOL    HW148857   7.777   1.119   8.925  1.2328  1.8771  2.7202
45711SOL    HW248858   7.873   1.003   8.917 -1.4898 -0.3360 -2.8584
45712SOL     OW48859   7.975  10.357   9.848 -0.2898 -0.2599  0.5896
45712SOL    HW148860   7.976  10.443   9.804 -0.4929 -0.5439  0.0131
45712SOL    HW248861   8.061  10.320   9.830 -0.4290 -0.4418  0.2974
45713SOL     OW48862   9.594   6.283   9.039  0.4448 -0.0827  0.0455
45713SOL    HW148863   9.595   6.237   8.955  1.8871 -1.9162  0.9940
45713SOL    HW248864   9.523   6.241   9.088  0.0148  0.5588 -0.0107
45714SOL     OW48865   4.021   8.558   5.300 -0.6642  0.5719  0.5071
45714SOL    HW148866   4.048   8.624   5.364  0.7912  1.2652 -0.7575
45714SOL    HW248867   3.950   8.510   5.343 -1.4808  2.6729  1.6375
45715SOL     OW48868   0.769   2.217   8.162 -0.1756 -0.5364 -0.2004
45715SOL    HW148869   0.807   2.289   8.111 -2.3981  0.9351  0.1149
45715SOL    HW248870   0.781   2.140   8.106 -1.0421  0.7274 -2.2466
45716SOL     OW48871   8.158  10.361   0.103 -0.2677 -0.1178 -0.1551
45716SOL    HW148872   8.236  10.409   0.076 -1.4847  0.5539 -2.7245
45716SOL    HW248873   8.114  10.338   0.022 -2.5263 -0.8941  1.1925
45717SOL     OW48874   8.680   9.313   7.214  0.3948  0.0020 -0.0020
45717SOL    HW148875   8.617   9.371   7.172 -1.5471 -2.4351 -0.6568
45717SOL    HW248876   8.627   9.259   7.273  1.6491 -2.7587 -1.2424
45718SOL     OW48877   6.644   4.167   9.652  0.1667  0.0447  0.4852
45718SOL    HW148878   6.562   4.122   9.633  0.7323 -1.2002  0.9341
45718SOL    HW248879   6.642   4.182   9.746  0.1219  0.7047  0.3857
45719SOL     OW48880   8.107  11.110   2.038 -0.1943 -0.0418  0.1229
45719SOL    HW148881   8.027  11.079   2.081  0.7527 -1.0049  1.2793
45719SOL    HW248882   8.104  11.069   1.952 -0.0327 -1.6957  0.8509
45720SOL     OW48883   6.397   9.541   4.155  0.3784 -0.3415  0.2291
45720SOL    HW148884   6.379   9.602   4.084 -3.4949 -1.3302  0.1583
45720SOL    HW248885   6.363   9.584   4.233 -2.1403 -2.1480  0.2228
45721SOL     OW48886   5.884   7.054   7.242  0.2436  0.4363  0.4339
45721SOL    HW148887   5.849   7.143   7.242  1.8283  1.1390  1.9357
45721SOL    HW248888   5.959   7.057   7.182  0.3112  0.1184  0.4974
45722SOL     OW48889  10.997  10.413   8.212  0.1204 -0.3668 -0.1478
45722SOL    HW148890  10.906  10.395   8.191  0.6733  0.1643 -3.6179
45722SOL    HW248891  11.027  10.335   8.258 -1.6905 -1.1946 -0.2975
45723SOL     OW48892  11.347   3.226   3.734 -0.4655  0.0028 -0.1333
45723SOL    HW148893  11.357   3.139   3.771 -0.8558  0.2146  0.4939
45723SOL    HW248894  11.428   3.241   3.686  0.0897 -0.2677  0.6855
45724SOL     OW48895   2.606   7.937   0.613 -0.0297  0.8488 -0.4860
45724SOL    HW148896   2.605   8.009   0.551  1.7752  2.0004  0.7230
45724SOL    HW248897   2.569   7.973   0.693  1.5409  0.7098  0.3490
45725SOL     OW48898   2.306   1.980  11.553  0.2620  0.3618 -0.3082
45725SOL    HW148899   2.300   1.905  11.494 -1.4396  1.5306 -1.7270
45725SOL    HW248900   2.220   1.984  11.596  0.6284  1.0076  0.3996
45726SOL     OW48901   8.617  11.904   5.831 -0.2277 -0.1933  0.0550
45726SOL    HW148902   8.712  11.911   5.830 -0.2837  0.8369  0.4981
45726SOL    HW248903   8.595  11.891   5.923 -0.6071  1.4944  0.2371
45727SOL     OW48904   5.960   4.572  11.210 -0.4464 -0.2471 -0.2732
45727SOL    HW148905   5.888   4.576  11.273  0.4578 -2.0320  0.9597
45727SOL    HW248906   6.038   4.567  11.263  0.5936  1.0086 -1.5941
45728SOL     OW48907   1.995   1.402   5.107 -0.0435  0.2602 -0.0055
45728SOL    HW148908   2.046   1.336   5.154 -0.3243 -0.8736 -1.2494
45728SOL    HW248909   2.046   1.419   5.028 -0.3259  1.0390 -0.0298
45729SOL     OW48910   1.928   1.634   4.036 -0.2758  0.0176 -0.0396
45729SOL    HW148911   1.934   1.720   3.993  0.4078  0.7934  1.5387
45729SOL    HW248912   1.946   1.652   4.128 -0.0371 -1.8496  0.3091
45730SOL     OW48913  10.679   3.329   5.117  0.5839  0.5396 -0.3239
45730SOL    HW148914  10.683   3.288   5.204  1.8053 -3.1724 -1.8983
45730SOL    HW248915  10.763   3.374   5.108  1.3499 -0.7944 -0.2294
45731SOL     OW48916   8.104   9.068   1.098  0.1845  0.1523  0.3225
45731SOL    HW148917   8.113   9.136   1.165 -1.3710  0.6115  0.1009
45731SOL    HW248918   8.050   9.109   1.030 -1.5043 -1.5500  0.5623
45732SOL     OW48919  10.995   1.326  10.012 -0.1196  0.2645 -0.2960
45732SOL    HW148920  10.995   1.236   9.980  1.7294  0.8518 -2.2074
45732SOL    HW248921  11.058   1.326  10.084  1.0711  0.2925 -1.3045
45733SOL     OW48922   8.983   4.057   8.863  0.1187 -0.0786 -0.3717
45733SOL    HW148923   9.042   4.058   8.787  0.1385 -0.9771 -0.3734
45733SOL    HW248924   8.919   4.125   8.843 -0.3439 -0.8309 -1.5761
45734SOL     OW48925   0.981   5.065   5.831  0.0900 -0.4877 -0.5089
45734SOL    HW148926   0.902   5.118   5.839 -0.0771 -0.7231 -0.5737
45734SOL    HW248927   0.978   5.007   5.908  0.6989  0.1536  0.0164
45735SOL     OW48928   6.409   5.390   7.285  0.1294  0.2732 -0.3243
45735SOL    HW148929   6.319   5.415   7.263  0.0091  0.2965  0.1737
45735SOL    HW248930   6.436   5.331   7.214  0.1653  1.2373 -1.1361
45736SOL     OW48931   1.453   1.031   7.214 -0.3847 -0.4588 -0.7950
45736SOL    HW148932   1.407   1.098   7.265 -0.8400 -0.8787 -0.6459
45736SOL    HW248933   1.495   0.976   7.280  0.8853  0.2976 -0.9477
45737SOL     OW48934  10.592  11.012  10.226 -0.2254  0.1676 -0.4094
45737SOL    HW148935  10.649  10.937  10.246 -0.4253  0.1413  0.0644
45737SOL    HW248936  10.511  10.994  10.273  0.1693  1.2988  0.7496
45738SOL     OW48937   0.168  10.386   7.452 -0.5855  0.1422 -0.3546
45738SOL    HW148938   0.139  10.337   7.528 -1.4710 -0.3445 -0.9870
45738SOL    HW248939   0.243  10.337   7.418  0.7633  1.1410  1.0046
45739SOL     OW48940   7.680  11.385   5.671 -0.3303 -0.0716 -0.0835
45739SOL    HW148941   7.731  11.401   5.750  0.2961 -0.2887 -0.4340
45739SOL    HW248942   7.634  11.467   5.654 -0.8065 -0.1621  0.7451
45740SOL     OW48943   4.837   1.716   6.706  0.1472  0.4253 -0.2173
45740SOL    HW148944   4.819   1.651   6.639  1.1696  0.4928 -0.5752
45740SOL    HW248945   4.815   1.800   6.665 -1.1002  0.3377  0.2192
45741SOL     OW48946   8.150   8.027   6.299 -0.2601  0.2031  0.1170
45741SOL    HW148947   8.112   7.969   6.364 -0.4928 -1.3077 -1.3119
45741SOL    HW248948   8.180   7.969   6.229  0.9984  1.6744 -0.6352
45742SOL     OW48949   5.161   2.391   2.748  0.1148  0.1411  0.7662
45742SOL    HW148950   5.205   2.329   2.691 -0.3150  1.4696 -1.1016
45742SOL    HW248951   5.068   2.371   2.739  0.0341  0.4489  0.8910
45743SOL     OW48952   8.173   0.813   4.169 -0.3211 -0.4868  0.6280
45743SOL    HW148953   8.189   0.907   4.161 -0.2024 -0.6091 -0.6757
45743SOL    HW248954   8.181   0.779   4.080  0.7982 -1.9310  1.2458
45744SOL     OW48955   7.259   3.645   7.589 -0.2865  0.1933  0.6279
45744SOL    HW148956   7.273   3.637   7.494 -1.4532  0.4988  0.4131
45744SOL    HW248957   7.295   3.564   7.625  0.1001  0.0361 -0.0926
45745SOL     OW48958   6.099   5.918   3.083 -0.0127  0.6350 -0.0821
45745SOL    HW148959   6.163   5.983   3.113 -2.0934  3.2459 -0.8949
45745SOL    HW248960   6.025   5.929   3.143 -0.6078 -0.6852 -0.5486
45746SOL     OW48961   1.319   3.962  11.321 -0.0690 -0.1770 -0.3658
45746SOL    HW148962   1.325   4.054  11.296 -1.6262 -0.4581 -1.9819
45746SOL    HW248963   1.370   3.916  11.253  1.2818 -0.4956  0.8142
45747SOL     OW48964   7.278  11.703   4.807 -0.0377 -0.4778 -0.6908
45747SOL    HW148965   7.268  11.709   4.902  1.6494 -0.1713 -0.4958
45747SOL    HW248966   7.202  11.749   4.771  0.7967  2.0234  0.5445
45748SOL     OW48967  11.588   3.369   6.033  0.6327  0.2929 -0.6567
45748SOL    HW148968  11.614   3.411   5.951  1.0669  1.9388  0.2586
45748SOL    HW248969  11.536   3.436   6.078 -1.5604 -1.3662 -0.5261
45749SOL     OW48970   1.581   7.891   9.524 -0.3617  0.3232  0.4782
45749SOL    HW148971   1.621   7.941   9.595  2.5252 -2.7416  1.3259
45749SOL    HW248972   1.635   7.910   9.447  1.0818 -1.6024  0.9212
45750SOL     OW48973  11.091  10.331   9.193  0.1423 -0.2789 -0.1924
45750SOL    HW148974  11.099  10.236   9.181  1.2143 -0.3779  1.0832
45750SOL    HW248975  11.004  10.343   9.230  0.7891 -1.0341  1.7013
45751SOL     OW48976   3.263   5.003   1.357  0.2192 -0.1415 -0.3532
45751SOL    HW148977   3.282   5.054   1.435 -1.9493  0.4499 -0.1444
45751SOL    HW248978   3.202   4.935   1.387 -0.6639  0.1130 -1.4861
45752SOL     OW48979   2.732   1.579   2.194  0.0897 -0.0599 -0.3096
45752SOL    HW148980   2.717   1.664   2.153  2.7767  0.7695  0.2438
45752SOL    HW248981   2.647   1.553   2.228 -1.6284  0.6192 -3.6836
45753SOL     OW48982   6.211  11.023   3.874  0.7374 -0.0944  0.5455
45753SOL    HW148983   6.135  11.044   3.821  0.5841 -2.2740 -0.2147
45753SOL    HW248984   6.179  11.022   3.964  0.1576  0.1742  0.3401
45754SOL     OW48985  11.342  11.532   2.081  0.2822 -0.0034 -0.2154
45754SOL    HW148986  11.400  11.608   2.078  0.0300  0.1845 -2.6233
45754SOL    HW248987  11.255  11.567   2.063 -0.1298 -0.6606  0.4108
45755SOL     OW48988   4.253   8.440   6.334  0.0503  0.1040  0.3478
45755SOL    HW148989   4.169   8.471   6.369  0.5092  1.2366  0.4956
45755SOL    HW248990   4.266   8.354   6.374 -0.9497 -0.0021  0.4654
45756SOL     OW48991   8.712   6.486   6.311  0.3593 -0.4407  0.2383
45756SOL    HW148992   8.659   6.426   6.259 -0.8776 -0.3532  1.3344
45756SOL    HW248993   8.712   6.449   6.399  2.1571 -0.4267  0.2845
45757SOL     OW48994   3.761   3.871   5.963  0.5496 -0.1260  0.5251
45757SOL    HW148995   3.855   3.879   5.948  0.3256  0.6936 -0.5833
45757SOL    HW248996   3.735   3.955   5.999  0.2295 -0.3285  0.7730
45758SOL     OW48997   4.870   9.231   8.725 -0.1387  0.3254 -0.0609
45758SOL    HW148998   4.868   9.222   8.630  0.0486  2.8902 -0.3769
45758SOL    HW248999   4.901   9.146   8.757 -1.5743 -1.0698 -2.1637
45759SOL     OW49000   4.253   3.074   4.226 -0.2224 -0.0221  0.1609
45759SOL    HW149001   4.250   3.014   4.152 -0.2356  1.1735 -0.8364
45759SOL    HW249002   4.178   3.132   4.213  0.9883  1.5458 -0.1018
45760SOL     OW49003  11.529   0.522   9.064 -0.2453 -0.1789 -0.2345
45760SOL    HW149004  11.621   0.496   9.073 -0.1073 -0.6610 -2.4296
45760SOL    HW249005  11.528   0.615   9.087  0.4052 -0.5882  1.6472
45761SOL     OW49006   2.376   2.769   8.066  0.0298 -1.2168  0.2821
45761SOL    HW149007   2.295   2.806   8.032 -0.2931 -1.0756  1.1626
45761SOL    HW249008   2.445   2.827   8.032 -0.4658  0.2321  1.6054
45762SOL     OW49009   2.832   6.206   3.799 -0.5308 -0.2549  0.2854
45762SOL    HW149010   2.803   6.288   3.756  3.4388  1.1010 -0.1762
45762SOL    HW249011   2.791   6.209   3.885 -1.1022  1.8397  0.0036
45763SOL     OW49012   3.740   8.201  10.586 -0.1478 -0.1913 -0.5422
45763SOL    HW149013   3.676   8.256  10.632  0.4291  0.7771 -0.8751
45763SOL    HW249014   3.687   8.133  10.544 -1.0891  1.1362 -1.5819
45764SOL     OW49015   4.923   0.883   6.214 -0.3378 -0.3099  0.2388
45764SOL    HW149016   4.884   0.900   6.129  2.1991 -0.6822 -1.1132
45764SOL    HW249017   5.013   0.856   6.194  0.4320 -0.1708  3.0534
45765SOL     OW49018   2.812  11.041   2.903  0.0924 -0.3509  0.0610
45765SOL    HW149019   2.894  10.994   2.916  0.0766 -1.1803 -2.3058
45765SOL    HW249020   2.765  10.990   2.837 -1.6081  0.9876  0.1437
45766SOL     OW49021   0.605  10.580   8.003  0.0377  0.1088  0.2722
45766SOL    HW149022   0.516  10.578   7.970 -0.5791  1.1289  1.7752
45766SOL    HW249023   0.648  10.505   7.963 -1.5089 -0.4377 -0.4085
45767SOL     OW49024   6.584   0.392   8.617 -0.1761 -0.5423 -0.4477
45767SOL    HW149025   6.496   0.418   8.589 -0.4989  0.4920  1.3945
45767SOL    HW249026   6.625   0.358   8.537 -1.8218  0.0926 -1.6207
45768SOL     OW49027   7.859   4.262   4.546 -0.3391 -0.3953  0.2149
45768SOL    HW149028   7.953   4.263   4.568 -0.1693 -0.5926 -0.4618
45768SOL    HW249029   7.857   4.242   4.452 -0.9439  2.1384 -0.3930
45769SOL     OW49030  10.021   3.949  10.810  0.4476  0.3599 -0.1620
45769SOL    HW149031  10.050   3.892  10.739  0.1527 -0.5173  0.4014
45769SOL    HW249032  10.016   4.036  10.771  3.9005  0.6465 -0.3056
45770SOL     OW49033  11.043   4.347   8.204 -0.0762  0.1470  0.4234
45770SOL    HW149034  11.057   4.440   8.189 -0.0886 -0.0044 -0.5619
45770SOL    HW249035  11.083   4.303   8.129  2.1973 -0.8114  2.0808
45771SOL     OW49036  11.379   2.706   6.343 -0.5172 -0.5266 -0.2376
45771SOL    HW149037  11.365   2.799   6.364 -1.3699 -0.5135 -0.8290
45771SOL    HW249038  11.420   2.707   6.257  0.9893 -0.6608  0.4392
45772SOL     OW49039  11.717   5.505   9.186 -0.3076 -0.2033 -0.3798
45772SOL    HW149040  11.637   5.472   9.146  0.0660 -1.6483  0.0290
45772SOL    HW249041  11.703   5.600   9.191 -1.1734 -0.2126 -2.0645
45773SOL     OW49042   8.126   8.521   9.699 -0.6078 -0.0394 -0.3280
45773SOL    HW149043   8.109   8.427   9.700 -1.8264  0.1396  1.6846
45773SOL    HW249044   8.069   8.556   9.767  0.9802  1.9653  0.0639
45774SOL     OW49045  11.871   0.304   7.959 -0.7226  1.0365 -0.1713
45774SOL    HW149046  11.858   0.273   7.869 -1.3418  0.5678  0.0724
45774SOL    HW249047  11.959   0.343   7.958 -0.3118  0.1437 -0.7336
45775SOL     OW49048  10.170   9.060   0.880  0.1082  0.1157  0.0793
45775SOL    HW149049  10.097   9.010   0.844 -0.8264  0.4528  1.4431
45775SOL    HW249050  10.173   9.139   0.826  0.3122 -0.4814 -0.8036
45776SOL     OW49051   6.697   5.118   3.115  0.4669  0.3144  0.3251
45776SOL    HW149052   6.690   5.198   3.062 -1.9510 -0.4255 -0.6031
45776SOL    HW249053   6.736   5.054   3.055 -0.9637 -0.1409 -0.1549
45777SOL     OW49054   5.887   0.408  10.678 -0.1924  0.2224  0.0359
45777SOL    HW149055   5.858   0.487  10.724 -0.3735 -0.1079  0.5007
45777SOL    HW249056   5.807   0.369  10.643 -0.2750 -0.4429  0.9238
45778SOL     OW49057   5.565   8.080  11.812 -0.3407  0.0521  0.0619
45778SOL    HW149058   5.561   8.089  11.907 -0.9976  0.0775  0.0403
45778SOL    HW249059   5.658   8.083  11.791 -0.0974 -1.2271  0.8338
45779SOL     OW49060   4.307   9.870   8.043 -0.3196  0.3586 -0.2272
45779SOL    HW149061   4.281   9.792   8.092 -0.2574 -1.6175 -3.1160
45779SOL    HW249062   4.226   9.900   8.002 -0.5384  2.4911  1.5550
45780SOL     OW49063   9.264   9.162   0.524 -0.0059 -0.0493 -0.1591
45780SOL    HW149064   9.356   9.166   0.498 -0.1650  1.0145 -0.5866
45780SOL    HW249065   9.248   9.245   0.569  0.1418 -1.5965  3.0884
45781SOL     OW49066   4.130   4.178  11.837 -0.1604 -0.0402  0.5749
45781SOL    HW149067   4.194   4.199  11.906  1.7029 -0.5388 -0.9190
45781SOL    HW249068   4.128   4.082  11.835  0.6617 -0.0482 -0.7786
45782SOL     OW49069   9.546   1.801   1.521  0.3818 -0.4227  0.4721
45782SOL    HW149070   9.469   1.859   1.526  0.3137 -0.5862  2.9430
45782SOL    HW249071   9.620   1.861   1.515  0.1786 -0.1778  0.3443
45783SOL     OW49072   8.021   1.994   9.740  0.5847  0.3865 -0.5718
45783SOL    HW149073   7.969   2.031   9.811  0.0511  0.7006 -1.1125
45783SOL    HW249074   8.096   2.052   9.732  0.5948  0.4070 -0.3323
45784SOL     OW49075  10.870  10.325   5.027 -0.2934 -0.6549  0.2560
45784SOL    HW149076  10.915  10.409   5.033  2.1975 -1.6138 -2.6762
45784SOL    HW249077  10.790  10.344   4.977  0.7481 -0.1277 -1.2711
45785SOL     OW49078   3.078  10.038   6.377 -0.3488  0.1924 -0.2020
45785SOL    HW149079   3.112  10.119   6.415 -0.5018  0.6030 -0.9325
45785SOL    HW249080   3.098  10.044   6.284  1.0899 -1.3364 -0.0384
45786SOL     OW49081  11.555   0.559   7.421 -0.0573  0.5481 -0.1676
45786SOL    HW149082  11.462   0.560   7.443 -0.2617 -1.5781 -0.6605
45786SOL    HW249083  11.578   0.650   7.407 -1.8324  1.2050  0.9090
45787SOL     OW49084   9.766   4.224   2.183  0.5938 -0.7055 -0.1690
45787SOL    HW149085   9.743   4.297   2.125 -0.8986 -1.9172 -1.1886
45787SOL    HW249086   9.834   4.259   2.240  0.2624  1.3300 -0.9382
45788SOL     OW49087   0.912   5.385   5.990 -0.4280 -0.4578  0.4240
45788SOL    HW149088   0.907   5.299   6.031  0.7054 -0.8760 -0.2729
45788SOL    HW249089   0.881   5.446   6.057  0.1797 -1.2626  1.4512
45789SOL     OW49090  10.375   1.276   7.457 -0.2682 -0.2038  1.1082
45789SOL    HW149091  10.295   1.327   7.443 -0.9916 -1.0742  1.9501
45789SOL    HW249092  10.408   1.307   7.542  1.6783  1.8991 -0.2771
45790SOL     OW49093   1.237   5.456   6.086  0.0952  0.6321  0.1932
45790SOL    HW149094   1.236   5.381   6.026 -0.0794 -0.5652  1.6135
45790SOL    HW249095   1.306   5.513   6.054  0.3721 -0.2511 -0.8093
45791SOL     OW49096   1.171  11.522   3.658 -0.2682 -0.1368  0.1774
45791SOL    HW149097   1.218  11.458   3.605 -1.5347 -1.4135  0.5355
45791SOL    HW249098   1.208  11.511   3.746 -0.9354 -0.8803  0.3804
45792SOL     OW49099   0.724   0.382   6.556 -0.1396  0.2603  0.0434
45792SOL    HW149100   0.634   0.389   6.588  0.2581  0.0281  1.2393
45792SOL    HW249101   0.754   0.296   6.586  1.2017  1.2144  1.5627
45793SOL     OW49102   6.336   1.475   5.573  0.1548  0.9088 -0.5258
45793SOL    HW149103   6.320   1.531   5.497  1.5636  1.4456 -0.4685
45793SOL    HW249104   6.335   1.386   5.538 -0.3860  1.0747 -0.9464
45794SOL     OW49105  11.917   0.298  11.701 -0.0828  0.2839  0.0637
45794SOL    HW149106  11.959   0.212  11.700 -1.2961 -0.3396  0.0998
45794SOL    HW249107  11.964   0.347  11.768 -0.3229 -0.8655  1.1056
45795SOL     OW49108   2.878   9.261   0.736 -0.3362  0.1011 -0.0442
45795SOL    HW149109   2.912   9.292   0.652 -0.4349  2.3329  0.6532
45795SOL    HW249110   2.894   9.334   0.796  0.8752 -1.8718  2.2208
45796SOL     OW49111   9.844   5.419   5.643 -0.3229  0.2212  0.2477
45796SOL    HW149112   9.896   5.446   5.719  0.6732 -0.0872 -0.2978
45796SOL    HW249113   9.892   5.453   5.568 -0.4614 -0.7786 -0.3176
45797SOL     OW49114   7.078   4.306   8.100  0.2359  0.5433  0.0902
45797SOL    HW149115   6.997   4.273   8.138  0.1126  0.9588  0.1904
45797SOL    HW249116   7.096   4.246   8.027  0.9026 -0.7422  1.2676
45798SOL     OW49117   9.210   0.466   4.886  0.5515  0.6240  0.2424
45798SOL    HW149118   9.185   0.513   4.807 -0.3037  1.8007  1.1834
45798SOL    HW249119   9.182   0.523   4.958 -0.0778 -1.1047  1.4228
45799SOL     OW49120  11.151   7.861   2.259  0.6030 -0.0796 -0.5962
45799SOL    HW149121  11.146   7.771   2.226 -0.5198 -1.3506  2.6417
45799SOL    HW249122  11.220   7.858   2.325 -0.2520  1.1151  0.3937
45800SOL     OW49123   7.716   7.088  11.285  0.2236  0.5136 -0.1042
45800SOL    HW149124   7.748   7.148  11.218  0.0324 -0.1282 -0.7916
45800SOL    HW249125   7.656   7.030  11.238  2.2404 -1.7796 -0.0198
45801SOL     OW49126  11.232   4.691   7.531  0.0701 -0.1197 -0.3596
45801SOL    HW149127  11.246   4.596   7.539 -0.6477 -0.2685 -0.7574
45801SOL    HW249128  11.271   4.728   7.610 -0.1387 -0.8031  0.0698
45802SOL     OW49129  11.528   9.044   6.799  0.1849  0.0910 -0.0391
45802SOL    HW149130  11.473   9.015   6.726 -0.6999  1.1725  0.1802
45802SOL    HW249131  11.614   9.007   6.779 -0.9096 -2.9496  0.3839
45803SOL     OW49132   2.791  10.402  10.900 -0.0180 -0.4568  0.0560
45803SOL    HW149133   2.776  10.458  10.976 -1.0821  0.6736 -0.9299
45803SOL    HW249134   2.844  10.329  10.933  0.3314  0.4782  1.6531
45804SOL     OW49135  10.696   5.897   9.563 -0.4543 -0.0777  0.1493
45804SOL    HW149136  10.649   5.966   9.517 -1.1161  0.1028  1.0676
45804SOL    HW249137  10.678   5.818   9.512  0.4552  0.4334 -1.0059
45805SOL     OW49138  11.231   4.342   5.806 -0.2605  0.3545 -0.3935
45805SOL    HW149139  11.163   4.403   5.775 -0.9728 -0.2224  0.0015
45805SOL    HW249140  11.281   4.320   5.727  1.9190  3.6842 -0.1545
45806SOL     OW49141   5.203  10.771   5.232 -0.1843 -0.4265  0.5748
45806SOL    HW149142   5.296  10.762   5.252 -0.1746  1.4123  1.6502
45806SOL    HW249143   5.200  10.828   5.156 -0.3836 -3.8757 -2.2433
45807SOL     OW49144   8.446   1.921   0.252  0.3759 -0.2281 -0.0648
45807SOL    HW149145   8.355   1.944   0.268  0.7942  1.4867  0.0436
45807SOL    HW249146   8.447   1.890   0.161 -0.3398 -0.4726  0.0040
45808SOL     OW49147   2.640   5.403  10.344  0.0466 -0.5634 -0.5651
45808SOL    HW149148   2.661   5.348  10.419  0.5978  0.1023 -0.2133
45808SOL    HW249149   2.720   5.404  10.292  0.0934  0.0039 -0.4960
45809SOL     OW49150  11.183   0.290   3.609 -0.1262  0.2519  0.5034
45809SOL    HW149151  11.164   0.244   3.527  0.1087  1.7948 -0.4630
45809SOL    HW249152  11.100   0.289   3.657 -0.4289 -0.1465 -0.0139
45810SOL     OW49153   0.480   8.677   9.366  0.1644  0.6322 -0.1976
45810SOL    HW149154   0.472   8.585   9.394  0.7291  0.9819  1.2300
45810SOL    HW249155   0.509   8.671   9.275  0.2868 -0.6123 -0.1050
45811SOL     OW49156   7.770   4.853   5.160 -0.4562  0.6518  0.0224
45811SOL    HW149157   7.688   4.895   5.133 -1.1901  0.2064  1.4445
45811SOL    HW249158   7.777   4.777   5.103  0.7457  2.4279 -2.4005
45812SOL     OW49159   4.264   6.192   0.898  0.6209 -0.0020  0.1851
45812SOL    HW149160   4.173   6.211   0.922  0.3403 -0.8237 -0.1981
45812SOL    HW249161   4.311   6.194   0.981  0.3666  0.9959  0.3236
45813SOL     OW49162   6.585   4.819  10.322  0.1256  0.3872  0.3292
45813SOL    HW149163   6.651   4.810  10.390 -0.0657  0.4962  0.5311
45813SOL    HW249164   6.556   4.910  10.328  0.6602  0.6158 -0.4150
45814SOL     OW49165   4.848   8.155   5.004  0.4506 -0.5602  0.0771
45814SOL    HW149166   4.777   8.157   4.941  1.0519 -2.0053 -0.6828
45814SOL    HW249167   4.814   8.106   5.079 -0.4768  1.6843  1.2164
45815SOL     OW49168   2.911   1.909  10.844 -0.5504 -0.5087  0.2142
45815SOL    HW149169   2.862   1.950  10.916 -1.1337  1.6050 -1.2963
45815SOL    HW249170   2.973   1.977  10.815  0.7705 -1.8636 -0.2970
45816SOL     OW49171   9.452   7.046   2.722 -0.4151 -0.0245  0.0968
45816SOL    HW149172   9.535   7.033   2.676 -1.2758  0.0028 -1.5012
45816SOL    HW249173   9.391   7.078   2.656 -1.7254 -0.0494  1.2327
45817SOL     OW49174   0.866   2.566   1.338  0.3219 -0.3068 -0.0584
45817SOL    HW149175   0.864   2.605   1.425 -0.2644 -0.2688 -0.0888
45817SOL    HW249176   0.815   2.486   1.347 -0.5538  0.1788 -0.5977
45818SOL     OW49177   7.871  10.062   1.966  0.3315  0.1366 -0.3144
45818SOL    HW149178   7.785  10.087   2.000  0.3465  0.3278 -0.4149
45818SOL    HW249179   7.854  10.035   1.875  0.8170  3.2820 -1.4542
45819SOL     OW49180   2.516   3.644   0.728 -0.2965 -0.0009 -0.6542
45819SOL    HW149181   2.603   3.635   0.766 -0.8168  0.7601  0.8116
45819SOL    HW249182   2.486   3.554   0.716  0.7089 -0.2671 -1.2664
45820SOL     OW49183   4.410   3.334   4.628 -0.3986 -0.0425 -0.3466
45820SOL    HW149184   4.374   3.416   4.662 -1.0211 -1.2107  2.0390
45820SOL    HW249185   4.469   3.303   4.697 -1.0823 -2.1523 -0.6085
45821SOL     OW49186   2.411   7.707   8.733 -0.0674  0.3482 -0.3825
45821SOL    HW149187   2.480   7.667   8.681  1.1402  0.2267  1.2128
45821SOL    HW249188   2.385   7.784   8.683 -0.3400 -0.7841 -2.0663
45822SOL     OW49189   7.100  10.169  10.010 -0.3144  0.8321 -0.0220
45822SOL    HW149190   7.192  10.174   9.986 -0.5821 -0.0623 -1.4073
45822SOL    HW249191   7.083  10.249  10.060  1.5334  0.3191  1.5496
45823SOL     OW49192   2.494   5.200   8.611  0.1351  0.7060  0.5265
45823SOL    HW149193   2.556   5.265   8.645  1.4632  0.3458 -1.0960
45823SOL    HW249194   2.408   5.243   8.618  0.8417  2.1674  0.5632
45824SOL     OW49195   2.178   7.345   8.459  0.2576  0.0406  0.5943
45824SOL    HW149196   2.106   7.291   8.492  0.9069 -2.4717 -1.6898
45824SOL    HW249197   2.244   7.342   8.528 -0.4606 -0.6071  1.2675
45825SOL     OW49198   3.302   4.863   7.753 -0.0457  0.7540 -0.2962
45825SOL    HW149199   3.230   4.868   7.816 -0.2930 -0.7379 -0.4400
45825SOL    HW249200   3.378   4.838   7.806 -0.2101 -0.2944 -0.5404
45826SOL     OW49201  11.181   3.693   2.995  0.2277 -0.4188 -0.3488
45826SOL    HW149202  11.201   3.600   2.984  2.9275  0.0030  0.1876
45826SOL    HW249203  11.106   3.695   3.053 -0.1709 -2.2595 -0.7398
45827SOL     OW49204   2.599   3.510   3.742  0.0819 -0.3667  0.3195
45827SOL    HW149205   2.593   3.540   3.833  0.6169  0.4264  0.1034
45827SOL    HW249206   2.676   3.555   3.707  0.5664 -1.5486 -0.2045
45828SOL     OW49207   9.140  11.869   4.962  0.0595  0.1715  0.2821
45828SOL    HW149208   9.170  11.955   4.932  0.3876 -0.5732 -1.6759
45828SOL    HW249209   9.210  11.809   4.937  0.1625 -0.6091  2.2829
45829SOL     OW49210   8.246   5.935   1.629  0.0076 -0.1962  0.3938
45829SOL    HW149211   8.163   5.960   1.588  0.2535  0.9926  0.5789
45829SOL    HW249212   8.313   5.957   1.564  0.2751  0.1274  0.7732
45830SOL     OW49213   8.697   7.227   1.507  0.0578  0.6478  0.5059
45830SOL    HW149214   8.786   7.222   1.543  0.4524 -1.4810 -0.6345
45830SOL    HW249215   8.654   7.294   1.560  1.6319  0.0962  2.6169
45831SOL     OW49216   6.310   4.432   0.208  0.0630  0.2071 -0.2087
45831SOL    HW149217   6.275   4.354   0.252  1.6804 -0.2471  0.3782
45831SOL    HW249218   6.405   4.423   0.218  0.2770  2.8403  0.9093
45832SOL     OW49219   7.956  10.465   5.066 -0.2382 -0.0701  0.0892
45832SOL    HW149220   8.045  10.435   5.086 -0.6531 -0.2467  1.7752
45832SOL    HW249221   7.900  10.389   5.085 -0.7496 -0.0177 -1.1240
45833SOL     OW49222   2.132   1.901  10.331  0.7917  0.4709 -0.4664
45833SOL    HW149223   2.215   1.923  10.373  0.9719 -0.8636 -0.0933
45833SOL    HW249224   2.096   1.830  10.384 -1.3021  1.9573  0.2555
45834SOL     OW49225   9.890   7.398   7.575 -0.2306 -0.0828  0.2542
45834SOL    HW149226   9.935   7.394   7.490  0.2658 -1.2795  0.5529
45834SOL    HW249227   9.818   7.460   7.561 -0.2777 -0.4125 -1.1015
45835SOL     OW49228  10.263   9.381  11.592 -0.0228  0.1415  0.2797
45835SOL    HW149229  10.324   9.325  11.543  0.7745  1.6763 -0.5253
45835SOL    HW249230  10.237   9.327  11.667 -0.8785 -2.0759 -1.4868
45836SOL     OW49231   4.349   4.898   9.377 -0.3870 -0.1598  0.4153
45836SOL    HW149232   4.324   4.850   9.456 -1.7962 -0.5101 -0.2058
45836SOL    HW249233   4.351   4.832   9.308  2.0234 -0.0766  0.3346
45837SOL     OW49234   7.982   5.117   3.179  0.2476  0.0070  0.3911
45837SOL    HW149235   8.008   5.067   3.256 -0.5110  2.0027  2.0123
45837SOL    HW249236   7.909   5.068   3.142  0.2771 -0.7019  1.2435
45838SOL     OW49237   6.849   5.297   6.277  0.0800  0.1455  0.0969
45838SOL    HW149238   6.907   5.223   6.258  0.4522 -0.0855  1.9593
45838SOL    HW249239   6.804   5.314   6.194  0.2113 -1.9564 -0.4617
45839SOL     OW49240  10.126   1.154  10.240 -0.0941 -0.3072 -0.0530
45839SOL    HW149241  10.101   1.166  10.332  0.9495  1.0139  0.0937
45839SOL    HW249242  10.221   1.165  10.240 -0.2496  1.5787 -1.5356
45840SOL     OW49243   4.134   2.437   9.558 -0.8167 -0.0627 -0.2503
45840SOL    HW149244   4.042   2.422   9.581 -0.3776 -0.8583  1.1052
45840SOL    HW249245   4.136   2.528   9.527 -1.6900  0.8387  2.0598
45841SOL     OW49246   6.073  11.027   0.318  0.0166  0.3938 -0.3126
45841SOL    HW149247   6.078  11.001   0.227 -0.3762  0.9604 -0.5009
45841SOL    HW249248   5.982  11.014   0.343  0.2754 -0.4630  0.2201
45842SOL     OW49249   9.989   3.650   0.823 -0.3367  0.1308  0.3577
45842SOL    HW149250   9.983   3.659   0.918  2.0209  0.0991  0.5741
45842SOL    HW249251  10.081   3.667   0.803 -0.8045  0.2818 -1.9548
45843SOL     OW49252   6.805   7.442  11.862 -0.7118 -0.0475  0.0661
45843SOL    HW149253   6.868   7.437  11.790 -1.6269  1.7629 -0.9255
45843SOL    HW249254   6.731   7.389  11.832 -0.8319  0.1775 -0.0335
45844SOL     OW49255   9.487   2.758   2.739 -0.1220  0.0381 -0.0198
45844SOL    HW149256   9.482   2.674   2.785  1.3460  0.3067  0.7177
45844SOL    HW249257   9.576   2.761   2.704  0.7163  2.2170  1.9455
45845SOL     OW49258   3.974  10.138   7.680 -0.2618 -0.5601  0.0791
45845SOL    HW149259   3.956  10.082   7.604 -0.5892 -0.2907 -0.0456
45845SOL    HW249260   4.041  10.199   7.649  0.4985 -1.2341  0.3850
45846SOL     OW49261  11.025  11.952   8.662  0.4830  0.1564  0.5549
45846SOL    HW149262  11.093  12.016   8.681 -0.1215  0.1166  3.1960
45846SOL    HW249263  11.072  11.875   8.630  1.2843  1.5193 -1.7962
45847SOL     OW49264   3.283   9.731   4.758 -0.1717  0.6478 -0.3394
45847SOL    HW149265   3.313   9.758   4.844  0.4117 -0.2999 -0.2259
45847SOL    HW249266   3.294   9.636   4.758 -1.2743  0.4959 -1.0338
45848SOL     OW49267   7.084   0.667   9.338 -0.2730 -0.0720 -0.1421
45848SOL    HW149268   7.048   0.684   9.425 -0.9016  0.3906 -0.4838
45848SOL    HW249269   7.140   0.743   9.321  0.9223 -0.8124  0.4058
45849SOL     OW49270   5.091   2.927  11.902  0.3598 -0.3814  0.0504
45849SOL    HW149271   5.065   2.851  11.849 -0.2411 -0.6081  0.6519
45849SOL    HW249272   5.124   2.990  11.839 -0.5230 -0.5702 -0.6211
45850SOL     OW49273   1.768   0.246   1.344 -0.4850 -0.3469  0.3853
45850SOL    HW149274   1.720   0.180   1.293  1.5098 -0.9330 -0.8164
45850SOL    HW249275   1.805   0.197   1.417  0.8507 -0.5499 -0.4097
45851SOL     OW49276   5.144   7.516   4.771  0.2773  0.2306 -0.0896
45851SOL    HW149277   5.217   7.564   4.810 -0.2957  1.3547 -0.3689
45851SOL    HW249278   5.164   7.513   4.677  0.8008 -0.9714  0.0379
45852SOL     OW49279   2.682  10.953   0.984  0.2941 -0.0827 -0.0515
45852SOL    HW149280   2.700  10.985   0.896 -2.1586 -0.6852 -0.8492
45852SOL    HW249281   2.696  11.030   1.040 -2.7951  1.8377 -1.5922
45853SOL     OW49282   0.652   8.045   9.049  0.1980 -0.3708  0.1634
45853SOL    HW149283   0.617   7.994   9.121 -0.3092 -1.2366 -0.6844
45853SOL    HW249284   0.717   8.103   9.090 -0.3741 -0.5565  1.3574
45854SOL     OW49285   9.510   5.870   1.928  0.6262 -0.9001 -0.0638
45854SOL    HW149286   9.519   5.805   1.997  2.9327 -1.7699 -1.1037
45854SOL    HW249287   9.573   5.938   1.951 -0.6397  0.2456  0.1592
45855SOL     OW49288   2.912   9.494   0.892  0.0613  0.2737  0.7215
45855SOL    HW149289   3.007   9.484   0.892  0.0979  0.2067  2.4627
45855SOL    HW249290   2.884   9.450   0.972 -1.5975 -0.9624 -0.4695
45856SOL     OW49291   5.646   3.694   5.076 -0.1593  0.0855 -0.2807
45856SOL    HW149292   5.643   3.607   5.037  1.5454  0.8171 -2.2407
45856SOL    HW249293   5.559   3.707   5.113 -0.8517 -1.9418 -1.0710
45857SOL     OW49294  10.720   7.061   0.625 -0.1078  0.5950  0.3821
45857SOL    HW149295  10.761   6.991   0.575 -0.6462 -1.1421  2.2641
45857SOL    HW249296  10.711   7.133   0.562 -0.1079 -1.1990 -1.7857
45858SOL     OW49297   0.300   2.285   9.735 -0.5386  0.5248  0.0172
45858SOL    HW149298   0.304   2.379   9.751  0.7223  0.4326  0.3683
45858SOL    HW249299   0.371   2.269   9.673  0.0348 -0.3564  0.8728
45859SOL     OW49300  11.558   7.427   9.792 -0.6399 -0.0305  0.3206
45859SOL    HW149301  11.592   7.394   9.875 -0.2673  0.0200  0.1875
45859SOL    HW249302  11.482   7.372   9.774 -0.1389 -0.6919  0.1982
45860SOL     OW49303   8.720   9.764   8.329  0.3965 -0.2553 -0.1537
45860SOL    HW149304   8.661   9.824   8.375  0.6309 -0.1765  0.0423
45860SOL    HW249305   8.693   9.770   8.237  0.6005  0.3599 -0.1790
45861SOL     OW49306   9.758   3.364  11.500 -0.3961 -0.1194 -0.2412
45861SOL    HW149307   9.684   3.403  11.547  0.2384 -1.3111  1.8690
45861SOL    HW249308   9.729   3.362  11.408 -2.3868  0.7668  0.3054
45862SOL     OW49309   6.974  11.899   4.270  0.1104  0.1692 -0.1203
45862SOL    HW149310   6.892  11.948   4.285  0.3670  0.2497  1.1078
45862SOL    HW249311   6.959  11.814   4.311  1.0099  0.5608  1.0881
45863SOL     OW49312   3.007   4.141   2.454  0.8346  0.4231  0.4692
45863SOL    HW149313   2.993   4.049   2.433 -0.3828  0.9373 -1.2751
45863SOL    HW249314   3.057   4.141   2.536  1.3482 -1.7642  0.2012
45864SOL     OW49315   2.075   2.867  10.226 -0.1089  0.1577  0.6593
45864SOL    HW149316   2.061   2.908  10.141 -0.7968 -1.9550 -0.3150
45864SOL    HW249317   1.988   2.839  10.255  0.2496 -0.0647  1.5690
45865SOL     OW49318   5.765   3.398   1.171  0.0735 -0.1157 -0.1562
45865SOL    HW149319   5.768   3.492   1.185 -1.9768 -0.2008  1.2701
45865SOL    HW249320   5.789   3.386   1.079  0.0774  1.7952 -0.4332
45866SOL     OW49321   6.353   8.692  11.716 -0.1294  0.2576 -0.3190
45866SOL    HW149322   6.316   8.729  11.636  0.7714 -1.0957 -1.4140
45866SOL    HW249323   6.278   8.672  11.771 -1.1103 -2.3449 -2.4299
45867SOL     OW49324   7.066   1.704  11.088  0.2802 -0.1976  0.4808
45867SOL    HW149325   7.055   1.771  11.020 -2.0024 -0.5827  0.4023
45867SOL    HW249326   7.158   1.678  11.081  0.7367  1.5256 -0.7812
45868SOL     OW49327   7.874   4.168  10.321  0.1796 -0.1270 -0.1949
45868SOL    HW149328   7.866   4.221  10.401 -0.9557 -0.1656 -0.2774
45868SOL    HW249329   7.872   4.078  10.352  2.6686 -0.2029  0.0060
45869SOL     OW49330   8.557   6.424   5.848  0.5084  0.1466 -0.2657
45869SOL    HW149331   8.500   6.382   5.783  0.8078 -0.5689 -0.0821
45869SOL    HW249332   8.498   6.446   5.921  0.4589 -0.6569 -0.0449
45870SOL     OW49333   6.667   5.000   8.387 -0.2199 -0.2579 -0.1440
45870SOL    HW149334   6.677   4.968   8.297  0.4557  1.4052 -0.6914
45870SOL    HW249335   6.668   5.095   8.379 -2.3842 -0.0316  1.4008
45871SOL     OW49336   0.993   3.410   6.482  0.3078 -0.3010  0.0181
45871SOL    HW149337   0.898   3.411   6.470  0.1734 -1.8435  0.7497
45871SOL    HW249338   1.020   3.500   6.461 -1.3016  0.1795 -0.1762
45872SOL     OW49339   2.795   6.927   0.044 -0.2866  0.0944 -0.3518
45872SOL    HW149340   2.801   6.881   0.128  0.2334  1.6273  0.4900
45872SOL    HW249341   2.736   6.873  -0.009 -1.7981 -0.1775  1.5034
45873SOL     OW49342   4.592   3.009  11.616  0.0461  0.0956  0.1523
45873SOL    HW149343   4.518   3.061  11.647 -0.3677  0.3782 -1.2596
45873SOL    HW249344   4.661   3.025  11.681 -0.2666  1.9385  0.1026
45874SOL     OW49345   8.310   8.713   7.661 -0.0381 -0.5549  0.2806
45874SOL    HW149346   8.336   8.667   7.741  2.2415  0.4486  0.2047
45874SOL    HW249347   8.215   8.701   7.656 -0.1066 -1.5230  2.5642
45875SOL     OW49348  10.075   6.768  10.207  0.0052  0.0245  0.5412
45875SOL    HW149349  10.073   6.679  10.244 -2.1793  0.0654  0.6546
45875SOL    HW249350   9.999   6.812  10.246  0.5482  1.6778 -0.1771
45876SOL     OW49351  10.909   4.372   3.912  0.1977  0.0450  0.7395
45876SOL    HW149352  10.865   4.393   3.830  0.6553 -0.8662  0.2411
45876SOL    HW249353  10.877   4.437   3.974  1.4947  2.1619 -0.6753
45877SOL     OW49354   8.834   9.738   8.752 -0.1457  0.3697 -0.1049
45877SOL    HW149355   8.870   9.782   8.675  1.0476 -0.2040  0.1006
45877SOL    HW249356   8.739   9.752   8.746 -0.2540 -0.9287 -2.4838
45878SOL     OW49357   1.639   8.987   9.596 -0.3456  0.3140  0.0749
45878SOL    HW149358   1.701   8.966   9.666 -1.0924  0.4646  0.7984
45878SOL    HW249359   1.692   9.031   9.530  0.0012  2.3480  1.5736
45879SOL     OW49360   4.134  11.839  10.601  0.3714 -0.3515  0.6596
45879SOL    HW149361   4.212  11.888  10.628 -0.0515 -0.6687  2.6193
45879SOL    HW249362   4.091  11.897  10.538  1.3428  0.5500  0.7842
45880SOL     OW49363  10.261   6.366  10.767 -0.0117  0.4407  0.1917
45880SOL    HW149364  10.247   6.385  10.860  0.9794 -1.0690  0.6846
45880SOL    HW249365  10.309   6.283  10.766  0.5592  0.7390 -1.6565
45881SOL     OW49366   9.247   4.141   9.673 -0.4776 -0.0548  0.4242
45881SOL    HW149367   9.238   4.146   9.578 -1.0455  1.4134  0.5368
45881SOL    HW249368   9.322   4.083   9.687 -0.9736 -1.0363 -0.8857
45882SOL     OW49369   4.002   7.201   6.646 -0.0558 -0.3020 -0.4401
45882SOL    HW149370   4.048   7.253   6.580 -0.3938  1.2351  0.4895
45882SOL    HW249371   3.920   7.176   6.603  0.2873 -0.4423 -1.0381
45883SOL     OW49372   9.643   6.565   1.756 -0.2061 -0.3834  0.3442
45883SOL    HW149373   9.636   6.638   1.694 -2.3310 -1.2122 -0.4795
45883SOL    HW249374   9.700   6.597   1.825 -0.0507  1.5898 -0.6413
45884SOL     OW49375   4.561  10.036   6.183 -0.0297  0.1454 -0.0741
45884SOL    HW149376   4.598   9.952   6.211  1.7479  1.2348  1.0308
45884SOL    HW249377   4.634  10.082   6.143 -0.8590  1.3716 -0.2262
45885SOL     OW49378  11.499   9.456   2.412 -0.6245  0.0065  0.0740
45885SOL    HW149379  11.514   9.362   2.415  0.9153  0.1540 -1.5426
45885SOL    HW249380  11.581   9.494   2.446 -1.1039  0.7702  0.3951
45886SOL     OW49381   0.393   7.236   4.281 -0.5053  0.1423  0.3100
45886SOL    HW149382   0.483   7.252   4.252 -0.2046  1.2838  1.7596
45886SOL    HW249383   0.402   7.182   4.359 -1.1331 -0.3544  0.0526
45887SOL     OW49384   5.092   8.752   8.066 -0.2340 -0.1602  0.5298
45887SOL    HW149385   5.135   8.820   8.118 -0.5176 -0.0330  0.6007
45887SOL    HW249386   5.149   8.675   8.075 -0.4485 -0.2414  1.3045
45888SOL     OW49387  11.636   6.795   5.724  0.2577 -0.1877 -0.3207
45888SOL    HW149388  11.587   6.855   5.780 -0.6535 -1.0579 -0.1576
45888SOL    HW249389  11.573   6.770   5.656  1.0054 -0.0194 -1.0884
45889SOL     OW49390   8.687  10.011  10.994 -0.1485  0.4037  0.0813
45889SOL    HW149391   8.655  10.005  10.904  0.3371 -0.1701 -0.0596
45889SOL    HW249392   8.621  10.064  11.039 -1.9360 -1.6643  0.0889
45890SOL     OW49393   6.781   2.704   4.264  0.1153  0.2703  0.4334
45890SOL    HW149394   6.727   2.643   4.315 -0.1123  0.1556  0.0566
45890SOL    HW249395   6.719   2.772   4.235  0.2905  0.4633  0.5048
45891SOL     OW49396   0.097   1.680   8.283 -0.1341 -0.2321  0.3818
45891SOL    HW149397   0.123   1.633   8.204  1.9684  1.6989 -0.2016
45891SOL    HW249398   0.144   1.636   8.354  1.2286  0.4287 -0.0607
45892SOL     OW49399   9.993   8.971   2.230 -0.7614  0.4200 -0.1164
45892SOL    HW149400  10.019   9.011   2.147  0.0186 -2.2738 -1.2825
45892SOL    HW249401   9.898   8.971   2.228 -0.7550 -0.2408 -1.3796
45893SOL     OW49402   8.157  11.744   6.358 -0.8968  0.4849 -0.2585
45893SOL    HW149403   8.072  11.741   6.315 -1.3904  2.7151  0.4666
45893SOL    HW249404   8.140  11.716   6.448 -0.8191  0.7646 -0.1570
45894SOL     OW49405   3.622   9.518   4.185  0.4648  0.2139 -0.0380
45894SOL    HW149406   3.684   9.470   4.129  0.9039  0.9107 -0.1503
45894SOL    HW249407   3.555   9.453   4.206  1.3452 -0.6234  0.2695
45895SOL     OW49408   5.759   0.809   3.985  0.1905  0.0208 -0.4998
45895SOL    HW149409   5.801   0.801   3.899  0.4954 -1.1225 -0.2561
45895SOL    HW249410   5.686   0.870   3.970  0.1093 -0.3253 -1.6225
45896SOL     OW49411   0.485   0.253   2.814 -0.4675 -0.2443  0.5175
45896SOL    HW149412   0.526   0.181   2.862  0.1112  0.1693  0.6543
45896SOL    HW249413   0.554   0.318   2.805 -1.1330  0.5425  0.9071
45897SOL     OW49414   4.053   3.070   9.028 -0.2481  0.7306 -0.7008
45897SOL    HW149415   4.093   3.053   8.943 -0.2923  1.6825 -0.9180
45897SOL    HW249416   4.070   3.163   9.045 -0.9835  0.7601 -0.0622
45898SOL     OW49417   2.068   1.124   0.727  0.4758 -0.5031  0.0439
45898SOL    HW149418   2.022   1.046   0.694  0.3412 -0.0708 -0.8229
45898SOL    HW249419   2.139   1.137   0.664  0.5588  0.0141  0.2462
45899SOL     OW49420   9.168   2.714   9.751 -0.2344 -0.2924 -0.1251
45899SOL    HW149421   9.115   2.779   9.798  0.0579 -1.0288  1.2841
45899SOL    HW249422   9.258   2.743   9.765 -0.1645 -0.1368 -0.8503
45900SOL     OW49423   0.496   1.893   5.494  0.2631 -0.1885 -0.1609
45900SOL    HW149424   0.549   1.815   5.510 -0.5538 -1.0337 -1.4083
45900SOL    HW249425   0.434   1.867   5.427 -0.7980  1.2073  0.2245
45901SOL     OW49426   8.550   6.730   6.189 -0.0845  0.0357  0.4107
45901SOL    HW149427   8.496   6.738   6.268 -0.0740 -0.4940  0.4767
45901SOL    HW249428   8.634   6.698   6.222  0.1238  0.4164  0.2546
45902SOL     OW49429   3.307   5.652   5.229 -0.6190  0.0652 -0.1948
45902SOL    HW149430   3.237   5.633   5.292  0.2992 -1.2418  0.4899
45902SOL    HW249431   3.360   5.718   5.273  0.1412 -1.0017  0.5354
45903SOL     OW49432   5.569  11.048   8.781 -0.4199 -0.2895  0.1871
45903SOL    HW149433   5.490  11.070   8.730  0.0949 -1.3038 -1.0718
45903SOL    HW249434   5.570  11.115   8.850 -1.3188  0.9433 -0.9142
45904SOL     OW49435   3.325   2.491   9.584  0.6594  0.2293  0.3389
45904SOL    HW149436   3.302   2.398   9.582  0.7003  0.2088  0.6975
45904SOL    HW249437   3.241   2.537   9.584  0.6415  0.2045 -0.2110
45905SOL     OW49438   1.893   3.858  10.477  0.0697  0.4366  0.2474
45905SOL    HW149439   1.809   3.811  10.473  1.0609 -1.4864  0.9653
45905SOL    HW249440   1.891   3.903  10.561 -1.3991  2.8294 -0.9541
45906SOL     OW49441  10.241   7.372   8.041  0.4172  0.4195 -0.4617
45906SOL    HW149442  10.211   7.393   7.952 -0.9395 -0.2196 -0.1854
45906SOL    HW249443  10.226   7.278   8.050 -1.5995  0.8250  1.1796
45907SOL     OW49444   4.985   7.796   4.488  0.5426  0.3655  0.3487
45907SOL    HW149445   4.940   7.770   4.569 -0.2238  0.6572  0.0215
45907SOL    HW249446   5.076   7.807   4.515  0.5993 -1.0457  0.8527
45908SOL     OW49447   9.149   0.690  11.562  0.2996  0.7605 -0.0463
45908SOL    HW149448   9.125   0.614  11.509 -0.2098  0.1795  0.9985
45908SOL    HW249449   9.068   0.716  11.606  1.2699 -0.7251  2.8868
45909SOL     OW49450   3.722   1.738   4.525  0.5870 -0.2746  0.5464
45909SOL    HW149451   3.645   1.770   4.573 -1.1525 -1.3194 -1.3652
45909SOL    HW249452   3.714   1.778   4.439  0.8198 -2.2613 -0.4590
45910SOL     OW49453   2.804   6.083   7.383  0.1244 -0.0597  0.6990
45910SOL    HW149454   2.812   6.026   7.459  0.5805  1.3116  1.7219
45910SOL    HW249455   2.710   6.087   7.366  0.1388 -1.8791 -0.0329
45911SOL     OW49456   9.738   7.311   5.980  0.6225 -0.0510  0.5846
45911SOL    HW149457   9.654   7.347   5.950 -0.1021 -1.2941  1.0662
45911SOL    HW249458   9.799   7.385   5.973 -0.4879  0.8609  0.1649
45912SOL     OW49459   5.776   9.004   3.140 -0.0878  0.1516  0.0621
45912SOL    HW149460   5.818   9.055   3.071 -2.2384  1.1248 -0.6148
45912SOL    HW249461   5.848   8.978   3.197  1.4651  1.3833 -1.2270
45913SOL     OW49462   9.979   0.733   7.288  0.1566 -0.3127 -0.4052
45913SOL    HW149463  10.029   0.651   7.280  1.2007  0.2263  0.3905
45913SOL    HW249464   9.991   0.760   7.379 -0.4143  0.5914 -0.5816
45914SOL     OW49465   1.857   2.272  10.376  0.1319 -0.7817  0.7430
45914SOL    HW149466   1.823   2.246  10.291 -1.6496 -0.1300  1.2283
45914SOL    HW249467   1.816   2.357  10.394  2.1504  0.1386  1.3075
45915SOL     OW49468   1.259   1.721   5.062 -0.2241 -0.3773 -0.4645
45915SOL    HW149469   1.330   1.666   5.030 -0.6397 -1.4639  0.3908
45915SOL    HW249470   1.180   1.668   5.050 -0.8902  0.7644 -1.2915
45916SOL     OW49471   2.948   6.877  11.033  0.5261  0.5122  0.7075
45916SOL    HW149472   2.855   6.867  11.053  0.4809 -2.6694 -0.4507
45916SOL    HW249473   2.992   6.862  11.117  0.0314  0.6333  0.9933
45917SOL     OW49474   5.252   5.624   9.786 -0.1126 -0.2110  0.3489
45917SOL    HW149475   5.337   5.668   9.788 -1.2109  2.0031  2.2738
45917SOL    HW249476   5.260   5.553   9.850 -0.4349  1.6240  2.5371
45918SOL     OW49477   8.539   6.814   5.921 -0.2002 -0.2356 -0.1609
45918SOL    HW149478   8.590   6.748   5.874  2.7884  2.5332 -1.1973
45918SOL    HW249479   8.543   6.786   6.013  1.2014 -1.3838 -0.5187
45919SOL     OW49480  11.583   4.104   0.624 -0.1574 -0.2193  0.1944
45919SOL    HW149481  11.592   4.107   0.529  0.0210 -0.3518  0.2079
45919SOL    HW249482  11.624   4.021   0.650  0.3784  0.1215  0.4525
45920SOL     OW49483   2.439   6.386  11.610 -0.5175  0.0169 -0.1500
45920SOL    HW149484   2.515   6.435  11.578 -0.0283 -1.0556 -0.6841
45920SOL    HW249485   2.391   6.363  11.530 -0.5029 -0.7372  0.0539
45921SOL     OW49486   6.206   5.300   2.083 -0.1967  0.0628 -0.5523
45921SOL    HW149487   6.267   5.335   2.147 -1.0440 -0.0586  0.3339
45921SOL    HW249488   6.190   5.373   2.023  0.1027  0.3723 -0.2580
45922SOL     OW49489  10.331   6.546  11.223 -0.5203  0.1822 -0.0718
45922SOL    HW149490  10.264   6.578  11.284  0.2097  2.2605 -0.2661
45922SOL    HW249491  10.405   6.605  11.236 -0.4742  1.0154 -3.1851
45923SOL     OW49492   8.884   6.862   7.492  1.0400 -0.2879  0.3712
45923SOL    HW149493   8.926   6.923   7.432  1.8116 -1.3897 -0.2461
45923SOL    HW249494   8.816   6.820   7.440  0.6296 -0.0911  0.7407
45924SOL     OW49495  11.371   6.079   4.257 -0.1261 -0.0170 -0.3147
45924SOL    HW149496  11.318   6.106   4.331 -0.8621 -0.1398 -0.7903
45924SOL    HW249497  11.309   6.069   4.185  0.6380  0.5956 -1.0882
45925SOL     OW49498   2.477   7.475   1.457  0.1213  0.4504  0.0379
45925SOL    HW149499   2.512   7.527   1.530  0.4972  0.7130 -0.3218
45925SOL    HW249500   2.479   7.535   1.382  1.7715 -0.4377 -0.6942
45926SOL     OW49501   7.075   7.296   8.720 -0.2224 -0.1003 -0.0356
45926SOL    HW149502   7.066   7.383   8.758 -0.7856 -0.4874  0.7665
45926SOL    HW249503   7.134   7.250   8.780 -0.4601 -0.4701 -0.0819
45927SOL     OW49504   7.350   6.840   5.257  0.1908  0.3072 -0.4288
45927SOL    HW149505   7.283   6.778   5.226 -0.1955  1.0126 -1.0386
45927SOL    HW249506   7.426   6.785   5.275  0.0923 -0.2791 -1.6494
45928SOL     OW49507   4.648   7.285   8.333  0.1692  0.3855  0.5772
45928SOL    HW149508   4.712   7.253   8.269  0.6263 -0.9625  1.6432
45928SOL    HW249509   4.626   7.373   8.303  0.2378 -0.2503 -1.4998
45929SOL     OW49510   7.637  11.594   0.847  0.5654  0.3207 -0.2510
45929SOL    HW149511   7.690  11.624   0.920  0.7923  0.4288 -0.4606
45929SOL    HW249512   7.656  11.500   0.841  0.0884  0.1931  0.2094
45930SOL     OW49513   3.490   0.770   9.663 -0.0268  0.7068  0.4493
45930SOL    HW149514   3.544   0.820   9.601  0.5901  1.0815  1.2799
45930SOL    HW249515   3.530   0.682   9.663  1.5354  1.3670  2.1554
45931SOL     OW49516   5.492   0.738   7.435 -0.0320 -0.0375 -0.2353
45931SOL    HW149517   5.443   0.810   7.475  0.2771 -0.6577  1.3441
45931SOL    HW249518   5.424   0.685   7.393 -0.3599  0.7051 -0.6673
45932SOL     OW49519   3.420   9.021   5.098 -0.0178 -0.1748  0.0658
45932SOL    HW149520   3.428   9.104   5.146 -1.8338 -0.6387  1.2883
45932SOL    HW249521   3.491   8.967   5.132  0.8106  0.6604 -0.2984
45933SOL     OW49522   4.825   5.716   3.717  0.0051  0.2795 -0.3238
45933SOL    HW149523   4.824   5.811   3.703  0.3605  0.0695 -1.9902
45933SOL    HW249524   4.745   5.686   3.674 -0.2961 -0.1559  0.5206
45934SOL     OW49525   9.435  10.657   0.999 -0.6763 -0.1639  0.2578
45934SOL    HW149526   9.402  10.741   0.969 -2.4780 -0.7386  0.4721
45934SOL    HW249527   9.497  10.629   0.932  0.1523  1.4293  0.3252
45935SOL     OW49528   1.232   1.242   6.870  0.3250 -0.1153 -0.1985
45935SOL    HW149529   1.205   1.241   6.962  0.3291  1.0385 -0.1758
45935SOL    HW249530   1.217   1.152   6.840 -0.3498 -0.3309  0.7351
45936SOL     OW49531  10.325   5.057  11.313 -0.7760 -0.0579  0.1677
45936SOL    HW149532  10.341   5.079  11.405 -1.5899 -0.2828  0.3666
45936SOL    HW249533  10.264   5.124  11.282  1.0267  1.2368 -0.8019
45937SOL     OW49534   1.952   9.927  10.356  0.0886  0.5200  0.0034
45937SOL    HW149535   2.012   9.927  10.281 -0.2267 -1.3551 -0.2935
45937SOL    HW249536   1.998   9.979  10.423  1.9362 -0.6173 -0.3096
45938SOL     OW49537  11.304   7.034   0.197  0.1331  0.3790 -0.6158
45938SOL    HW149538  11.218   7.075   0.194 -0.5348 -0.8401  0.5638
45938SOL    HW249539  11.321   7.021   0.291  1.3655  0.1330 -0.8553
45939SOL     OW49540   6.565  11.687   7.140  0.2543  0.1229  0.0654
45939SOL    HW149541   6.552  11.594   7.161  0.4445  0.3150  1.1090
45939SOL    HW249542   6.509  11.703   7.064 -1.1437 -0.4364  0.9386
45940SOL     OW49543   0.589   5.600   7.506  0.2192 -0.5630 -0.2373
45940SOL    HW149544   0.612   5.604   7.413  0.9986  0.3544 -0.0213
45940SOL    HW249545   0.502   5.639   7.510  1.2342  1.9027 -0.2851
45941SOL     OW49546   0.891   4.002   2.864  0.8441 -0.2727 -0.2996
45941SOL    HW149547   0.923   3.915   2.839 -0.0680 -0.5489 -0.5794
45941SOL    HW249548   0.821   3.984   2.928  1.6720  0.3332  0.8235
45942SOL     OW49549  10.449   2.096  10.988 -0.2400 -0.0670 -0.0058
45942SOL    HW149550  10.482   2.137  10.908  0.0171  1.5104  0.8558
45942SOL    HW249551  10.518   2.035  11.014  0.4071  0.6074 -0.1202
45943SOL     OW49552   5.328   9.741   3.943  0.1934  0.5710 -0.2113
45943SOL    HW149553   5.376   9.704   3.869  1.5410  1.9067 -0.0633
45943SOL    HW249554   5.246   9.773   3.906  0.0943 -0.3132 -0.7833
45944SOL     OW49555   7.955   6.262  10.300  0.4752  0.3734  0.6002
45944SOL    HW149556   7.952   6.292  10.209 -1.0209 -1.0852  0.1094
45944SOL    HW249557   8.039   6.294  10.333  0.4893  2.0286 -0.8855
45945SOL     OW49558   6.269   2.570  11.008 -0.0344  0.1522  0.2494
45945SOL    HW149559   6.301   2.585  10.918 -0.9970 -0.1910 -0.1618
45945SOL    HW249560   6.226   2.653  11.031 -0.9947 -0.2233 -0.1408
45946SOL     OW49561   1.820  11.909   6.366 -0.3680 -0.0655  0.0131
45946SOL    HW149562   1.855  11.925   6.278  0.0882 -2.7686 -0.3725
45946SOL    HW249563   1.795  11.996   6.397  2.0696  1.3680 -1.6545
45947SOL     OW49564   9.407   6.396   8.337  0.5504 -0.1630  0.3370
45947SOL    HW149565   9.463   6.470   8.313 -0.2140  0.2774 -0.1314
45947SOL    HW249566   9.336   6.435   8.388 -1.0650 -0.1833 -1.7455
45948SOL     OW49567   2.850   5.757   8.543  0.5618 -0.1364 -0.1051
45948SOL    HW149568   2.889   5.746   8.630 -1.5315  0.0931  0.9151
45948SOL    HW249569   2.806   5.842   8.546  1.0096  0.1806 -1.6346
45949SOL     OW49570  10.523  10.034   2.921 -0.1060 -0.8408 -0.0593
45949SOL    HW149571  10.542  10.119   2.881  0.7149  0.4778  2.8433
45949SOL    HW249572  10.602  10.013   2.971 -1.6617 -1.4098  2.3197
45950SOL     OW49573   6.345   8.648  10.914  0.2708 -0.1374 -0.2827
45950SOL    HW149574   6.256   8.637  10.880  0.8308 -0.8011 -1.6064
45950SOL    HW249575   6.383   8.716  10.858  0.1339  1.3304  1.2889
45951SOL     OW49576   4.655   3.996   3.199 -0.0448 -0.0119 -0.1421
45951SOL    HW149577   4.650   3.973   3.292  2.3638  1.4843  0.4474
45951SOL    HW249578   4.566   3.986   3.167 -1.1757  0.4970  2.5994
45952SOL     OW49579  11.096   3.049   3.455 -0.4477 -0.2682  0.0827
45952SOL    HW149580  11.128   2.967   3.493  2.4672  0.7159 -0.0306
45952SOL    HW249581  11.105   3.113   3.525  0.5659  0.6070 -0.8138
45953SOL     OW49582  10.897  11.542   6.052 -0.2236  0.6797  0.3044
45953SOL    HW149583  10.910  11.568   6.143 -0.2409 -1.9124  1.1262
45953SOL    HW249584  10.981  11.559   6.010  0.2768  0.4161  1.1897
45954SOL     OW49585   3.884   0.361   7.039  0.2029 -0.1605 -0.5572
45954SOL    HW149586   3.910   0.428   6.976  0.4920  0.7316  0.4887
45954SOL    HW249587   3.950   0.365   7.108  0.0157 -1.2664 -0.2919
45955SOL     OW49588   8.685   2.854   4.374 -0.1639 -0.1676 -0.0736
45955SOL    HW149589   8.711   2.762   4.366 -2.6603 -0.8590 -1.1281
45955SOL    HW249590   8.733   2.899   4.304  1.1301 -0.6375  0.4969
45956SOL     OW49591   3.850   4.525   4.041 -0.0570  0.3931  0.2404
45956SOL    HW149592   3.790   4.595   4.019 -0.8688  0.0316  1.2421
45956SOL    HW249593   3.801   4.444   4.024  0.4799  0.0709  0.1696
45957SOL     OW49594   4.891  11.655   6.200  0.7005 -0.2351 -0.8047
45957SOL    HW149595   4.925  11.719   6.137  0.3116 -1.7810 -2.6767
45957SOL    HW249596   4.917  11.570   6.165  0.7524 -1.1733  1.3348
45958SOL     OW49597   0.301   2.545   1.674  0.0150  0.1178 -0.2417
45958SOL    HW149598   0.378   2.487   1.673  0.0088  0.1044 -0.0296
45958SOL    HW249599   0.256   2.527   1.592  0.0018 -0.1979 -0.1683
45959SOL     OW49600   2.111   8.094   1.748  0.3987 -0.0521  0.0867
45959SOL    HW149601   2.174   8.083   1.676  1.4117 -2.3237  1.2046
45959SOL    HW249602   2.050   8.021   1.737 -1.1284  1.2071 -0.0427
45960SOL     OW49603  10.252   7.415   5.795  0.0888 -0.1432 -0.6761
45960SOL    HW149604  10.165   7.375   5.797  0.0502 -0.0663 -0.7726
45960SOL    HW249605  10.303   7.359   5.736 -0.5711  1.1554 -2.5810
45961SOL     OW49606   9.291  10.959   1.031  0.2363  0.3302 -0.5579
45961SOL    HW149607   9.355  10.975   0.963  0.2977 -1.1729 -0.9020
45961SOL    HW249608   9.261  11.046   1.058  1.8840  1.0361 -0.8758
45962SOL     OW49609   9.907   6.761   7.875  0.1657  0.0561  0.1450
45962SOL    HW149610   9.938   6.843   7.836  0.3184  0.1844  0.5373
45962SOL    HW249611   9.984   6.724   7.918 -0.2762  0.5151  1.3658
45963SOL     OW49612   2.977   9.328   0.460  0.0916  0.4622  0.3717
45963SOL    HW149613   2.921   9.297   0.389  0.7174  0.8961 -0.3125
45963SOL    HW249614   3.014   9.410   0.428  0.3174  0.7093  1.2317
45964SOL     OW49615  11.020   1.149   0.093 -0.4889 -0.0866 -0.1732
45964SOL    HW149616  11.098   1.184   0.050 -0.2325 -0.4852 -0.0387
45964SOL    HW249617  10.960   1.129   0.022  0.4709 -2.0719 -0.4797
45965SOL     OW49618   8.058   3.231   9.723  0.1627  0.5500  0.0590
45965SOL    HW149619   8.022   3.224   9.634 -0.1140  1.8605  0.0478
45965SOL    HW249620   7.999   3.290   9.768  0.6889  0.4331  0.9172
45966SOL     OW49621   1.362   6.492   0.175  0.4367  0.0629 -0.2541
45966SOL    HW149622   1.292   6.467   0.235  1.1708 -0.3705  0.4423
45966SOL    HW249623   1.434   6.433   0.196  0.8969  0.2613 -1.2032
45967SOL     OW49624   3.399   8.191   1.686  0.5371 -0.0727 -0.0005
45967SOL    HW149625   3.419   8.098   1.677  0.6136 -0.0488 -0.0759
45967SOL    HW249626   3.326   8.206   1.626 -0.1184 -0.2931  0.7197
45968SOL     OW49627  10.338   4.955  10.938  0.6188  0.2067  0.0911
45968SOL    HW149628  10.411   5.015  10.954  0.0198  0.2068  3.4420
45968SOL    HW249629  10.268   4.985  10.995  0.6023 -4.0940  2.7708
45969SOL     OW49630   1.155   2.572   0.801  0.6363 -0.2296  0.1766
45969SOL    HW149631   1.166   2.486   0.844 -0.2359 -0.6062 -0.3237
45969SOL    HW249632   1.068   2.568   0.763  1.3327  0.1493 -1.5278
45970SOL     OW49633   0.424   4.764   9.137 -0.4802  0.1891 -0.7498
45970SOL    HW149634   0.476   4.816   9.198 -0.3034 -1.0125  0.1469
45970SOL    HW249635   0.470   4.772   9.054  1.2895 -1.0102  0.0632
45971SOL     OW49636   7.512  11.355   5.158 -0.0232 -0.8444  0.2385
45971SOL    HW149637   7.494  11.269   5.196 -0.2457 -2.1534 -2.5946
45971SOL    HW249638   7.561  11.336   5.078 -0.8956  1.5835 -0.9602
45972SOL     OW49639   9.270   3.775  11.080 -0.2297  0.1252 -0.2145
45972SOL    HW149640   9.299   3.815  11.163 -0.6663  1.1520 -0.5388
45972SOL    HW249641   9.343   3.788  11.020  0.2892 -1.0717  0.1311
45973SOL     OW49642   1.321   8.722  10.904 -0.6525 -0.0743  0.2980
45973SOL    HW149643   1.314   8.750  10.812 -3.3986  0.7242  0.6417
45973SOL    HW249644   1.414   8.704  10.917 -0.1430  0.0451 -2.5565
45974SOL     OW49645  10.205   3.050  11.838 -0.8076  0.0323 -0.4659
45974SOL    HW149646  10.299   3.036  11.846 -0.6593  1.3216  0.2893
45974SOL    HW249647  10.165   2.985  11.895 -0.2853  0.5514  0.5156
45975SOL     OW49648   7.593   3.871   8.393 -0.5815 -0.5634  0.0988
45975SOL    HW149649   7.587   3.776   8.406 -2.9894 -0.6025 -0.7437
45975SOL    HW249650   7.525   3.907   8.450 -0.1077  0.6065 -0.0549
45976SOL     OW49651   4.460   9.164   3.695 -0.2340 -0.3563 -0.9154
45976SOL    HW149652   4.505   9.168   3.779  1.1773 -0.0006 -1.6620
45976SOL    HW249653   4.368   9.154   3.718  0.1360 -0.4018  0.6654
45977SOL     OW49654   1.449   4.994  10.694  0.0754 -0.0538  0.1907
45977SOL    HW149655   1.401   4.912  10.700 -0.5571 -0.1341 -3.6842
45977SOL    HW249656   1.386   5.061  10.720 -0.8636 -0.5064 -0.8421
45978SOL     OW49657   1.940   3.845   5.091  0.1920  0.6298 -0.5379
45978SOL    HW149658   1.878   3.918   5.091 -1.6189 -0.7921  1.3365
45978SOL    HW249659   1.892   3.773   5.051  0.1276 -0.8427  2.0217
45979SOL     OW49660  11.696   5.627   0.428  0.1196  0.4549 -0.5612
45979SOL    HW149661  11.629   5.629   0.360  0.1403  0.5948 -0.5776
45979SOL    HW249662  11.650   5.648   0.508  0.0662  0.1347 -0.5056
45980SOL     OW49663   7.756   4.892  10.068 -0.1654  0.2446 -0.7758
45980SOL    HW149664   7.714   4.895  10.154 -0.4259  1.0459 -0.9194
45980SOL    HW249665   7.840   4.936  10.081  1.1046 -2.1480 -0.2706
45981SOL     OW49666   4.356   6.922   8.204 -0.3727 -0.3948  0.2271
45981SOL    HW149667   4.372   6.828   8.200  0.1258 -0.4599  2.6913
45981SOL    HW249668   4.395   6.956   8.123  1.5793 -2.0189  0.4173
45982SOL     OW49669   9.216   5.692  11.338 -0.1583 -0.3131 -0.7222
45982SOL    HW149670   9.301   5.722  11.306  0.0325 -1.4449 -1.3268
45982SOL    HW249671   9.212   5.600  11.313 -0.4347 -1.0178  1.6874
45983SOL     OW49672   9.172   8.936   5.552 -0.5560 -0.6354 -0.1618
45983SOL    HW149673   9.116   8.991   5.498 -0.3975  1.1270  1.3571
45983SOL    HW249674   9.131   8.937   5.638  1.2242 -0.1662  0.7217
45984SOL     OW49675  11.901   1.080   1.452 -0.8015 -0.1812  0.4052
45984SOL    HW149676  11.887   1.174   1.438 -1.0710 -0.2065  0.4864
45984SOL    HW249677  11.832   1.038   1.400 -0.8640 -0.3244  0.6052
45985SOL     OW49678   6.962   6.942   9.441 -0.0587 -1.0894  0.3250
45985SOL    HW149679   6.895   6.941   9.509 -0.1265 -2.7153  0.2656
45985SOL    HW249680   7.043   6.918   9.487  0.0300 -1.4712 -0.0257
45986SOL     OW49681   6.519  11.206   4.028  0.2068  0.4936 -0.0668
45986SOL    HW149682   6.541  11.255   3.949  0.5099  1.5937  0.6846
45986SOL    HW249683   6.488  11.272   4.091 -0.0468 -0.3567  0.7343
45987SOL     OW49684   7.494   0.743   0.146 -0.4808  0.2116 -0.8248
45987SOL    HW149685   7.400   0.723   0.147 -0.4528 -0.1868  1.9686
45987SOL    HW249686   7.536   0.660   0.171  0.4585  0.8560 -0.2124
45988SOL     OW49687   8.984   4.875   7.026  0.3661  0.3783  0.4275
45988SOL    HW149688   8.931   4.863   6.947  1.3937 -0.5669 -0.1451
45988SOL    HW249689   9.034   4.955   7.009  0.3965  0.3161  0.2186
45989SOL     OW49690   6.688   1.103   1.980  0.1692 -0.0108 -0.2274
45989SOL    HW149691   6.686   1.011   2.005  1.0954 -0.6105 -2.2133
45989SOL    HW249692   6.618   1.112   1.917  0.1763  0.6237 -0.1500
45990SOL     OW49693  10.631   6.892   6.654  0.0670 -0.1069 -0.0298
45990SOL    HW149694  10.667   6.847   6.730  0.7024  0.7236  0.1791
45990SOL    HW249695  10.562   6.947   6.689  0.8463  0.8309  0.0720
45991SOL     OW49696   6.806  11.156  10.844 -0.6357  0.3928  0.4750
45991SOL    HW149697   6.864  11.211  10.897 -0.5901 -0.5634  1.4348
45991SOL    HW249698   6.719  11.170  10.881 -0.8398  0.8640 -0.1655
45992SOL     OW49699   7.203   2.559   9.952 -0.4158  0.2565  0.4845
45992SOL    HW149700   7.179   2.468   9.932 -2.2324  0.9962 -0.9579
45992SOL    HW249701   7.210   2.602   9.867 -0.3921  1.6644  1.1605
45993SOL     OW49702   4.436   6.742  10.769 -0.1957 -0.4992 -0.3643
45993SOL    HW149703   4.396   6.687  10.837  0.8811  0.0185  0.7377
45993SOL    HW249704   4.480   6.680  10.711 -1.7643 -1.0080 -1.0766
45994SOL     OW49705   6.688   0.565   0.774 -0.4828  0.2087 -0.4938
45994SOL    HW149706   6.666   0.500   0.841 -1.6466 -0.0968 -1.1447
45994SOL    HW249707   6.687   0.649   0.820  0.4606 -0.1690  0.2320
45995SOL     OW49708  11.216   5.826  11.019 -0.0558 -0.0795  0.4102
45995SOL    HW149709  11.123   5.844  11.035  0.4922  3.3926  0.5364
45995SOL    HW249710  11.261   5.861  11.096  1.4154 -0.9636 -0.0045
45996SOL     OW49711   8.783   5.444   1.235  0.4667 -0.2761 -0.2221
45996SOL    HW149712   8.791   5.514   1.299  2.3596 -0.8959  0.2933
45996SOL    HW249713   8.722   5.382   1.275  0.4056  0.0914  0.2650
45997SOL     OW49714   6.315   6.268   8.599 -0.2375  0.1720 -0.6952
45997SOL    HW149715   6.325   6.308   8.686 -0.4706 -0.5712 -0.3193
45997SOL    HW249716   6.380   6.312   8.545  0.6243 -0.0744  0.1104
45998SOL     OW49717   2.798   8.677  10.770 -0.0399  0.3476 -0.4359
45998SOL    HW149718   2.846   8.752  10.804  1.8140 -1.1807  0.4872
45998SOL    HW249719   2.754   8.640  10.847  0.2014 -0.3177 -0.6154
45999SOL     OW49720   8.617   9.732   9.351 -0.0261 -0.0777 -0.0223
45999SOL    HW149721   8.663   9.650   9.371 -0.3613 -0.1159  0.5945
45999SOL    HW249722   8.524   9.710   9.361 -0.0613  0.8652  2.0100
46000SOL     OW49723   0.657   3.100   1.579  0.4172 -0.3798 -0.2665
46000SOL    HW149724   0.667   3.012   1.616  0.8078  0.2085  1.0990
46000SOL    HW249725   0.567   3.124   1.599  0.6972  0.0303  0.5517
46001SOL     OW49726   5.360   3.417   6.012  0.3030 -0.1895  0.4508
46001SOL    HW149727   5.299   3.469   6.065  0.5515 -0.1447  0.6926
46001SOL    HW249728   5.305   3.377   5.945  0.3299  1.5839 -0.6637
46002SOL     OW49729  10.700   5.812  10.898  0.0654  0.0337 -0.4308
46002SOL    HW149730  10.633   5.834  10.833  0.1406  0.3305 -0.4097
46002SOL    HW249731  10.716   5.718  10.885 -0.2560 -0.0113 -0.5261
46003SOL     OW49732   5.515   3.904   8.966  0.2013  0.3022  0.3904
46003SOL    HW149733   5.537   3.924   8.875 -1.8913  0.8519 -0.0472
46003SOL    HW249734   5.594   3.927   9.015  0.4938  2.5581 -0.9896
46004SOL     OW49735   8.876  10.556  11.700 -0.1750  0.7883 -0.2296
46004SOL    HW149736   8.837  10.468  11.699  0.4430  0.5048  0.0253
46004SOL    HW249737   8.956  10.546  11.647  1.3201  0.5180  1.9530
46005SOL     OW49738   4.203  10.027  10.340  0.3801  0.2540  0.2398
46005SOL    HW149739   4.277   9.973  10.312 -0.5509 -1.2869  0.6870
46005SOL    HW249740   4.163  10.056  10.258 -1.6861 -3.3554 -0.2443
46006SOL     OW49741   6.501  11.288   8.534  0.2648 -0.3162 -0.2268
46006SOL    HW149742   6.504  11.321   8.444 -1.0884  0.1295 -0.1376
46006SOL    HW249743   6.451  11.207   8.528  2.3606 -1.6796 -0.2267
46007SOL     OW49744   3.933   5.425   0.900 -0.3851  0.0524 -0.0201
46007SOL    HW149745   3.968   5.337   0.885 -1.1081 -0.1106 -0.7722
46007SOL    HW249746   3.891   5.420   0.986  1.8131  0.3813  1.1561
46008SOL     OW49747   9.492  11.577  11.617 -0.0338 -0.0437  0.3210
46008SOL    HW149748   9.553  11.605  11.548  0.5191  1.9163  1.5211
46008SOL    HW249749   9.543  11.519  11.673  0.5216  0.9220  0.8475
46009SOL     OW49750   3.686   4.324   3.912  0.2116  0.1572 -0.0512
46009SOL    HW149751   3.611   4.265   3.915  0.0932  0.3010 -0.1987
46009SOL    HW249752   3.681   4.365   3.826  1.3317 -0.9742 -0.7079
46010SOL     OW49753   4.080   4.109   4.722  0.0186 -0.2640 -0.1494
46010SOL    HW149754   4.168   4.101   4.683  0.7022  0.1626  1.2411
46010SOL    HW249755   4.070   4.030   4.774  0.0403  0.1792  0.5474
46011SOL     OW49756   6.159   0.202   8.822  0.2337 -0.2568 -0.2633
46011SOL    HW149757   6.154   0.237   8.733 -0.2330  0.2231 -0.0563
46011SOL    HW249758   6.132   0.275   8.877  0.4223 -0.5838  0.2671
46012SOL     OW49759   5.723   7.208   9.787 -0.0369  0.1252  0.2279
46012SOL    HW149760   5.812   7.222   9.820  0.7886 -2.3253 -0.7145
46012SOL    HW249761   5.676   7.288   9.810  2.2465  1.2693  1.2631
46013SOL     OW49762   7.905  11.189   8.748  0.2624  0.1993  0.1581
46013SOL    HW149763   7.842  11.261   8.742 -0.2741 -0.3443 -0.9568
46013SOL    HW249764   7.892  11.139   8.668  1.4270 -0.5000  0.3864
46014SOL     OW49765   9.515   7.961  11.535 -0.2695  1.0453 -0.0752
46014SOL    HW149766   9.521   7.916  11.619  0.6598  0.7106 -0.3068
46014SOL    HW249767   9.479   7.896  11.475  0.5198  0.7875 -0.2777
46015SOL     OW49768   9.753   3.678   9.436 -0.2488  0.2167  0.8500
46015SOL    HW149769   9.733   3.585   9.426 -0.7949  0.2734  1.3896
46015SOL    HW249770   9.692   3.709   9.502 -0.8033  1.2091 -0.0982
46016SOL     OW49771   6.410   3.926   6.271 -0.0091  0.1041  0.2181
46016SOL    HW149772   6.329   3.919   6.221  0.6129 -0.1766 -0.7800
46016SOL    HW249773   6.399   3.866   6.344 -1.0985  0.8275  0.6700
46017SOL     OW49774   4.586   2.697   5.975  0.4938  0.4986  0.0770
46017SOL    HW149775   4.674   2.728   6.000  0.9290 -0.1243 -0.6306
46017SOL    HW249776   4.579   2.720   5.882 -0.7129  1.9170  0.4708
46018SOL     OW49777   0.005   1.423   4.161  0.1191  0.2792 -0.9909
46018SOL    HW149778   0.090   1.458   4.190  1.3914 -1.4169 -2.4484
46018SOL    HW249779   0.002   1.440   4.067 -1.1752  0.3065 -0.9611
46019SOL     OW49780   9.341   9.119   1.846 -0.4820  0.1088  0.1093
46019SOL    HW149781   9.404   9.149   1.780  0.4545  0.2686  1.0553
46019SOL    HW249782   9.364   9.028   1.862 -1.4192 -0.2665 -0.5681
46020SOL     OW49783   6.687   9.575   4.414  0.0222  0.3461 -0.3485
46020SOL    HW149784   6.620   9.514   4.384 -0.7356  0.1980  1.5246
46020SOL    HW249785   6.686   9.645   4.349 -2.4683  0.7119 -0.0179
46021SOL     OW49786   7.315   4.051   8.146  0.4278  0.2796  0.3335
46021SOL    HW149787   7.277   4.064   8.232  0.8073  0.3099  0.4997
46021SOL    HW249788   7.275   3.970   8.113 -2.1338  1.8861 -0.8023
46022SOL     OW49789  11.368  11.015  11.014 -0.7167  0.2551  0.1466
46022SOL    HW149790  11.368  10.936  11.068 -0.5144 -0.6552 -1.1164
46022SOL    HW249791  11.279  11.018  10.977 -0.4764  0.1338 -0.4577
46023SOL     OW49792  10.976   2.441   1.123  0.1333 -0.1012 -1.0271
46023SOL    HW149793  10.903   2.380   1.118  0.2433 -0.1375 -3.5994
46023SOL    HW249794  10.935   2.528   1.119  0.0905 -0.0100  0.7214
46024SOL     OW49795   1.925   5.198  10.750 -0.2034  0.2653  0.1959
46024SOL    HW149796   1.865   5.123  10.751 -1.5199  1.2675  0.7283
46024SOL    HW249797   1.874   5.269  10.789  1.0319  1.4232 -0.2223
46025SOL     OW49798   9.526   3.477   4.125 -0.4223  0.5697 -0.0698
46025SOL    HW149799   9.618   3.465   4.102 -0.4842 -0.6089  0.2640
46025SOL    HW249800   9.504   3.563   4.089  1.5163  2.0882  2.1018
46026SOL     OW49801   8.451   5.730   5.157  0.7413 -0.2566  0.5912
46026SOL    HW149802   8.526   5.697   5.107 -0.0352 -0.3152 -0.5882
46026SOL    HW249803   8.377   5.679   5.125 -0.5323  2.5166 -1.3283
46027SOL     OW49804   6.231   1.388   6.364  0.2721 -0.1946 -0.1090
46027SOL    HW149805   6.144   1.351   6.351  0.2527  0.1185 -0.9266
46027SOL    HW249806   6.215   1.479   6.391  0.3306  0.3492 -1.7807
46028SOL     OW49807   0.866   9.137   9.876 -0.0277 -0.0612  0.6276
46028SOL    HW149808   0.832   9.050   9.855 -0.9896 -0.3146  2.8886
46028SOL    HW249809   0.955   9.137   9.842 -0.3509 -1.5368 -0.3341
46029SOL     OW49810   4.835   5.305  10.250  0.5414 -0.0243  0.1486
46029SOL    HW149811   4.791   5.390  10.257  1.3378  0.4636 -0.6167
46029SOL    HW249812   4.800   5.266  10.171  0.8069 -0.0315  0.0325
46030SOL     OW49813   9.983   7.022   0.864  0.3305 -0.0148  0.5000
46030SOL    HW149814  10.067   7.064   0.846  0.9179 -0.5347  1.9090
46030SOL    HW249815   9.979   6.949   0.803 -0.4564  1.6665 -1.6026
46031SOL     OW49816   3.772   5.643   7.701  0.1269  0.1019  0.3597
46031SOL    HW149817   3.765   5.654   7.796  0.8270 -0.0304  0.4327
46031SOL    HW249818   3.855   5.597   7.689  0.1320  0.2866 -0.3287
46032SOL     OW49819   6.509   9.994   3.328 -0.4451 -0.4146  0.6428
46032SOL    HW149820   6.480  10.016   3.417  0.3206  0.8342  0.6103
46032SOL    HW249821   6.481  10.069   3.275 -0.0602 -0.7127  0.0081
46033SOL     OW49822  10.030   8.979   4.309  0.0468  0.2625  0.4855
46033SOL    HW149823   9.946   8.955   4.270  1.4691 -0.0879 -2.6510
46033SOL    HW249824  10.053   8.904   4.364 -0.9476 -0.3287  0.1229
46034SOL     OW49825   6.411   7.959   2.530  0.0872  0.6252 -0.2114
46034SOL    HW149826   6.487   7.965   2.588 -0.0736  4.8390 -0.1418
46034SOL    HW249827   6.442   7.995   2.447 -1.1889  0.0426 -0.9625
46035SOL     OW49828   0.114   7.793  10.177  0.3651 -0.7033  0.2711
46035SOL    HW149829   0.121   7.767  10.085  0.6299 -1.0597  0.3902
46035SOL    HW249830   0.176   7.865  10.188  0.5520 -0.8620  0.2443
46036SOL     OW49831  11.119   3.606   4.982 -0.0638  0.4855 -0.0636
46036SOL    HW149832  11.100   3.663   4.908 -0.8038 -0.5660 -0.7080
46036SOL    HW249833  11.184   3.545   4.949  1.1206  1.2399  0.7786
46037SOL     OW49834   3.146   4.458   4.656  0.3072 -0.0870 -0.2733
46037SOL    HW149835   3.112   4.431   4.570 -4.4746 -1.5827  1.7682
46037SOL    HW249836   3.130   4.552   4.660 -0.6510 -0.2288 -0.5889
46038SOL     OW49837   2.047  10.672   8.705  0.4882  0.5399  0.2952
46038SOL    HW149838   1.954  10.686   8.722  1.0314  1.7329  2.6324
46038SOL    HW249839   2.057  10.576   8.703 -0.3225  0.2865  3.3987
46039SOL     OW49840   8.983   3.782   7.454 -0.0158 -0.0811 -0.3447
46039SOL    HW149841   8.981   3.861   7.399 -1.2198 -0.6143 -1.1082
46039SOL    HW249842   8.980   3.709   7.392  1.5670 -0.7712  0.3299
46040SOL     OW49843   5.347   0.589   3.760  0.0496 -0.3853  0.4945
46040SOL    HW149844   5.385   0.675   3.744  0.4518 -0.7564 -0.6293
46040SOL    HW249845   5.361   0.574   3.854  0.8790  0.3429  0.4988
46041SOL     OW49846   1.750   0.799   1.037 -0.2387 -0.3808 -0.0155
46041SOL    HW149847   1.710   0.789   1.124  0.2922  0.2031  0.3020
46041SOL    HW249848   1.803   0.721   1.025  1.5567  0.5810  1.2026
46042SOL     OW49849   3.851   2.645   4.495 -0.0589 -0.5671 -0.6652
46042SOL    HW149850   3.916   2.711   4.470  0.3969 -1.3495 -1.6189
46042SOL    HW249851   3.813   2.678   4.576  0.8327  0.3920 -0.6203
46043SOL     OW49852   9.586  11.383   5.601  0.5148 -0.0359 -0.0422
46043SOL    HW149853   9.528  11.358   5.673 -2.8385  1.2778 -2.0659
46043SOL    HW249854   9.595  11.302   5.550 -0.6541  0.0009 -0.3531
46044SOL     OW49855  10.363   3.114   9.456 -0.5152 -0.3855 -0.0554
46044SOL    HW149856  10.455   3.141   9.462 -0.2769 -1.2932  0.5025
46044SOL    HW249857  10.351   3.053   9.528 -2.4970  2.2698  2.0552
46045SOL     OW49858   9.903  11.686  11.289 -0.0925 -0.0395 -0.0298
46045SOL    HW149859   9.992  11.710  11.263 -0.2683 -0.8118 -1.4459
46045SOL    HW249860   9.914  11.623  11.359  0.5821 -1.8339 -1.6586
46046SOL     OW49861   5.485   9.683  10.621 -0.0220  0.0040  0.0079
46046SOL    HW149862   5.488   9.622  10.695  1.0731  0.7023  0.5782
46046SOL    HW249863   5.408   9.738  10.637 -1.0666 -1.2551 -0.5581
46047SOL     OW49864   3.482  10.549   1.355 -0.0506  0.1102  0.8678
46047SOL    HW149865   3.488  10.504   1.271  0.9244 -0.0768  1.0310
46047SOL    HW249866   3.572  10.565   1.381 -0.3641  1.3345  1.2726
46048SOL     OW49867   8.802   9.169   0.189  0.2066  0.1748 -0.2285
46048SOL    HW149868   8.894   9.179   0.165 -0.4065  2.2121 -2.0623
46048SOL    HW249869   8.783   9.077   0.174  1.8924 -0.2608  0.0777
46049SOL     OW49870   3.207  10.013  11.485 -0.6681 -0.3944 -0.0181
46049SOL    HW149871   3.159  10.067  11.549  0.7264  1.0489 -0.1337
46049SOL    HW249872   3.165   9.927  11.490  0.2185 -0.7753  3.8297
46050SOL     OW49873   8.339   6.724   6.414  0.4825 -0.2074 -0.1881
46050SOL    HW149874   8.307   6.646   6.459  1.0019 -0.6278 -0.5339
46050SOL    HW249875   8.313   6.797   6.471  0.6168 -0.6866  0.5041
46051SOL     OW49876  11.114  11.650   9.075  0.2547  0.7179  0.1959
46051SOL    HW149877  11.155  11.644   9.161  0.2869  0.7615  0.1844
46051SOL    HW249878  11.021  11.657   9.094  0.1245 -0.6795  0.1839
46052SOL     OW49879  10.134   3.839   6.041  0.1856 -0.3350  0.2745
46052SOL    HW149880  10.144   3.829   6.136 -0.4012  2.7622  0.7540
46052SOL    HW249881  10.224   3.843   6.008  0.4325  0.8338  1.0337
46053SOL     OW49882   2.095   6.232   1.532 -0.7196  0.5383 -0.3479
46053SOL    HW149883   2.024   6.267   1.586 -0.7072 -0.1819  0.1449
46053SOL    HW249884   2.153   6.188   1.594 -0.4866  0.0576 -0.8974
46054SOL     OW49885   6.195   1.600   2.912  0.0715  0.3015  0.3853
46054SOL    HW149886   6.200   1.512   2.949  0.5849 -0.3207 -1.0784
46054SOL    HW249887   6.256   1.598   2.838  0.3367  1.9896  0.5194
46055SOL     OW49888   2.511   5.106  11.428  0.1444 -0.2861  0.0154
46055SOL    HW149889   2.500   5.106  11.333 -2.2640  1.7025  0.1768
46055SOL    HW249890   2.508   5.014  11.453 -0.4064 -0.7699 -1.7266
46056SOL     OW49891   2.706   2.282   9.188 -0.4609  0.2610 -0.2474
46056SOL    HW149892   2.718   2.196   9.229 -0.2847  0.8855  1.0319
46056SOL    HW249893   2.667   2.262   9.103  0.2665 -1.1393 -0.2828
46057SOL     OW49894   7.996   0.669   2.650 -0.7159 -0.0983 -0.2942
46057SOL    HW149895   7.953   0.747   2.685 -2.8193 -1.8087  1.1685
46057SOL    HW249896   7.971   0.598   2.709  2.4152 -1.6827 -0.6227
46058SOL     OW49897   3.169   8.336   9.809 -0.0996 -0.5568 -0.4162
46058SOL    HW149898   3.100   8.321   9.873  0.8836 -2.3200  0.3022
46058SOL    HW249899   3.123   8.343   9.725 -1.3468  1.1724  0.3434
46059SOL     OW49900   3.314   2.170   4.185 -0.3444 -0.4435 -0.2902
46059SOL    HW149901   3.227   2.141   4.210 -0.5395 -0.9890 -1.4993
46059SOL    HW249902   3.362   2.089   4.166  0.8647 -0.2414  1.5940
46060SOL     OW49903  10.083   9.535   4.838 -0.6298 -0.3317  0.6044
46060SOL    HW149904  10.151   9.515   4.902  0.6230  2.0810  0.1143
46060SOL    HW249905  10.086   9.630   4.828 -2.8033 -0.3504 -0.8631
46061SOL     OW49906  11.416  10.122   7.858 -0.1885  0.3747 -0.0194
46061SOL    HW149907  11.351  10.175   7.813  0.6386 -0.9289 -3.0015
46061SOL    HW249908  11.494  10.178   7.864 -0.7528  1.0545  1.1943
46062SOL     OW49909   8.430   0.957   6.517 -0.5563  0.0993  0.8695
46062SOL    HW149910   8.470   0.884   6.469 -1.5442  0.1858 -0.1263
46062SOL    HW249911   8.339   0.958   6.487 -0.9251  0.8503  1.9507
46063SOL     OW49912   3.497   9.832   4.593  0.3146  0.1623  0.6022
46063SOL    HW149913   3.434   9.812   4.662 -0.1274 -0.4535  0.0233
46063SOL    HW249914   3.451   9.891   4.534  0.1467 -0.5708 -0.0139
46064SOL     OW49915   4.971   5.696   4.890 -0.0515  0.9444  0.2278
46064SOL    HW149916   5.049   5.674   4.839 -0.7075  2.6249 -1.6287
46064SOL    HW249917   4.924   5.613   4.899  1.5352  0.0665  0.6744
46065SOL     OW49918   3.461   7.379   0.725  0.2400 -0.3985 -0.6720
46065SOL    HW149919   3.447   7.289   0.696 -0.3036 -1.1626  1.6697
46065SOL    HW249920   3.380   7.425   0.702 -0.0112 -0.8709 -0.7447
46066SOL     OW49921   5.301   0.538   4.712  0.6785  0.0167  0.1446
46066SOL    HW149922   5.312   0.525   4.618 -0.9166 -0.7459  0.0283
46066SOL    HW249923   5.276   0.451   4.745  1.2580  0.2681  1.2846
46067SOL     OW49924   0.957   9.493   9.921  0.6728 -0.4434 -0.3827
46067SOL    HW149925   0.913   9.426   9.974  0.9361 -0.3393 -0.0342
46067SOL    HW249926   1.045   9.499   9.958  0.7617 -0.1526 -0.6404
46068SOL     OW49927  10.324  11.200   9.233 -0.3203  0.6915  0.1503
46068SOL    HW149928  10.397  11.140   9.219  0.8313  2.0636  0.1292
46068SOL    HW249929  10.246  11.143   9.231  0.7705 -0.9261  1.0239
46069SOL     OW49930   6.391   8.799   6.385  0.0309  0.2968  0.0212
46069SOL    HW149931   6.450   8.756   6.447 -0.1395 -0.3432 -0.2602
46069SOL    HW249932   6.425   8.888   6.379 -0.6820  0.7648  2.0116
46070SOL     OW49933   8.666  11.651  11.801 -0.1052 -0.1415 -0.9871
46070SOL    HW149934   8.740  11.634  11.742 -0.9210 -0.2131 -2.0115
46070SOL    HW249935   8.702  11.709  11.869  1.2158 -1.2110 -0.7323
46071SOL     OW49936   0.599   0.969   8.621 -0.3615  0.0639 -0.1120
46071SOL    HW149937   0.617   1.044   8.565  0.7868 -0.9480 -1.1456
46071SOL    HW249938   0.684   0.949   8.661 -0.2116 -1.8003 -1.2787
46072SOL     OW49939   9.355   1.431   0.516  0.2245  0.0054  0.4337
46072SOL    HW149940   9.401   1.496   0.463 -0.0125 -0.9524 -0.9893
46072SOL    HW249941   9.415   1.356   0.520 -0.7653 -0.8769 -0.5978
46073SOL     OW49942  11.373   4.118   5.583  0.3784  0.5540  0.5939
46073SOL    HW149943  11.285   4.084   5.564 -0.0896  1.6899  0.6496
46073SOL    HW249944  11.432   4.049   5.554 -0.3995  0.9345 -2.2334
46074SOL     OW49945   7.941   0.690  11.840 -0.0253  0.0697  0.6216
46074SOL    HW149946   7.871   0.710  11.903 -1.9580 -1.3999 -0.9560
46074SOL    HW249947   7.998   0.629  11.887  0.3610  1.4302  1.9951
46075SOL     OW49948   9.432   2.222   7.724 -0.1578  0.0117  0.1051
46075SOL    HW149949   9.351   2.230   7.775  0.2563  1.2107  0.6029
46075SOL    HW249950   9.461   2.312   7.709  0.9930 -0.3866 -0.2131
46076SOL     OW49951   7.306   8.394   2.110 -0.5457  0.3425  0.2656
46076SOL    HW149952   7.350   8.345   2.041 -0.2727  2.2865 -1.0330
46076SOL    HW249953   7.315   8.340   2.188 -0.4497 -1.7162 -1.1080
46077SOL     OW49954   4.769   2.280   1.141 -0.1096 -0.4390 -0.6611
46077SOL    HW149955   4.819   2.229   1.078 -1.2191 -1.3950 -0.8079
46077SOL    HW249956   4.696   2.223   1.166 -0.0718  0.1812  0.9856
46078SOL     OW49957  11.356   0.967   9.589 -0.5009 -0.7566 -0.1753
46078SOL    HW149958  11.391   0.944   9.675  2.9117 -0.3850 -1.3232
46078SOL    HW249959  11.329   0.883   9.551  1.6451 -1.5350 -0.1534
46079SOL     OW49960  11.373   9.701  10.772 -0.1473  0.1949  0.2103
46079SOL    HW149961  11.394   9.763  10.702  0.8041 -1.2554 -0.8508
46079SOL    HW249962  11.428   9.625  10.754 -1.9486 -1.3603  0.8911
46080SOL     OW49963  11.584   8.722   2.874  0.3900  0.0538  0.4998
46080SOL    HW149964  11.496   8.746   2.846  0.3102  0.7554  1.3245
46080SOL    HW249965  11.641   8.787   2.833  0.6315 -0.8858 -0.7089
46081SOL     OW49966   3.993   5.251   2.993 -0.2856  0.0601  0.0590
46081SOL    HW149967   3.987   5.325   3.054  0.2227 -0.7965  1.1909
46081SOL    HW249968   3.905   5.245   2.955 -0.8942  0.1071  1.3665
46082SOL     OW49969   4.928  10.328   8.342  0.1156  0.3158 -0.2141
46082SOL    HW149970   4.885  10.351   8.260 -0.4920  0.2167  0.0688
46082SOL    HW249971   4.888  10.384   8.407  1.3629  1.1577 -0.1448
46083SOL     OW49972   5.422   2.409   7.921  0.3748 -0.5113 -0.2869
46083SOL    HW149973   5.342   2.384   7.875  0.6595 -1.8361 -0.0978
46083SOL    HW249974   5.480   2.334   7.912  1.9099  0.7069 -1.0688
46084SOL     OW49975   6.391   3.235   6.206 -0.1191  0.4365 -0.8557
46084SOL    HW149976   6.392   3.320   6.250 -3.3119  1.1355 -1.8506
46084SOL    HW249977   6.442   3.249   6.126  1.3937  0.6764  0.1294
46085SOL     OW49978   5.860   4.873  11.199  0.2950 -0.3172  0.3366
46085SOL    HW149979   5.943   4.866  11.152  0.5908 -1.3792  0.9668
46085SOL    HW249980   5.835   4.965  11.190  1.4618 -0.0076  0.0088
46086SOL     OW49981   2.478   9.923   8.869 -0.2208  0.2404 -0.0763
46086SOL    HW149982   2.477   9.965   8.955 -1.1245 -2.0977  1.1330
46086SOL    HW249983   2.408   9.966   8.820 -0.8458  0.4201  0.9662
46087SOL     OW49984   4.745   4.009   2.450  0.1704 -0.4479  0.0949
46087SOL    HW149985   4.817   4.026   2.391  0.0313  0.7958  0.2629
46087SOL    HW249986   4.679   4.076   2.428 -1.5095 -2.3203 -0.9547
46088SOL     OW49987   6.250   4.147  11.086  0.5319 -0.5813  0.1286
46088SOL    HW149988   6.228   4.185  11.171 -0.3224 -1.8673  0.5214
46088SOL    HW249989   6.167   4.138  11.041  0.8745 -0.7188 -0.4873
46089SOL     OW49990   2.521   7.468  10.811 -1.3408 -0.2639 -0.0222
46089SOL    HW149991   2.596   7.526  10.816 -0.1149 -1.7504 -0.4321
46089SOL    HW249992   2.479   7.475  10.897 -0.8745  0.7448  0.1369
46090SOL     OW49993   1.508   5.146  11.703  0.4854  0.0296 -0.5231
46090SOL    HW149994   1.480   5.234  11.731 -2.0541 -1.0773  0.7591
46090SOL    HW249995   1.590   5.131  11.751 -0.3454  0.7908  1.2529
46091SOL     OW49996   3.115   6.200   5.645 -0.5131  0.3132  0.1019
46091SOL    HW149997   3.177   6.261   5.603 -2.0584  1.2839 -0.8944
46091SOL    HW249998   3.123   6.120   5.594  1.9893 -0.6527  1.7984
46092SOL     OW49999   9.883   4.678  10.027  0.4392 -0.6327 -0.0189
46092SOL    HW150000   9.840   4.740  10.085 -0.6683 -2.5153  1.2794
46092SOL    HW250001   9.947   4.731   9.978 -1.7457  1.8498 -0.4000
46093SOL     OW50002   5.123  11.512   2.609 -0.0776  0.0594 -0.2511
46093SOL    HW150003   5.202  11.518   2.662 -0.0267  1.3352 -0.4449
46093SOL    HW250004   5.149  11.457   2.535  0.4779  0.0415 -0.0518
46094SOL     OW50005  11.352   5.635   4.420  0.6308  0.5225 -0.0872
46094SOL    HW150006  11.287   5.694   4.456 -1.6027 -2.5721  1.3387
46094SOL    HW250007  11.314   5.604   4.337  1.3686  0.4174 -0.3984
46095SOL     OW50008   3.078  10.817  11.829 -0.5984  0.0297  0.7809
46095SOL    HW150009   2.990  10.849  11.850 -0.2418  0.7185  1.2703
46095SOL    HW250010   3.088  10.832  11.735 -0.6561  0.8347  0.8993
46096SOL     OW50011   6.376   1.203   5.501 -0.2686  0.2784 -0.0490
46096SOL    HW150012   6.435   1.136   5.534  1.0224  1.6802  0.6326
46096SOL    HW250013   6.290   1.180   5.535  0.3616 -0.4085  1.1015
46097SOL     OW50014   6.688  11.240   2.389 -1.1506  0.1888  1.0765
46097SOL    HW150015   6.713  11.263   2.479  0.0950  2.8842  0.1379
46097SOL    HW250016   6.683  11.324   2.343  1.3299 -1.2099 -2.1324
46098SOL     OW50017   7.824   5.586   3.698  0.4710  0.0706 -0.4776
46098SOL    HW150018   7.845   5.652   3.764 -1.7508  0.1065  0.2752
46098SOL    HW250019   7.760   5.628   3.641 -0.9347 -1.3504 -0.0342
46099SOL     OW50020   2.771   1.263   6.731  0.3418 -0.3789 -0.3674
46099SOL    HW150021   2.714   1.339   6.733  0.3717 -0.3667  0.6076
46099SOL    HW250022   2.768   1.228   6.820 -0.5713 -2.2070 -1.0588
46100SOL     OW50023   3.720   5.856   3.002  0.3238  0.2695  0.0374
46100SOL    HW150024   3.631   5.878   3.030  0.9254  1.1806  1.3275
46100SOL    HW250025   3.709   5.783   2.940 -1.2045 -0.6135  1.2909
46101SOL     OW50026   8.292   6.244   1.606 -0.7705  0.2829 -0.9183
46101SOL    HW150027   8.281   6.328   1.561 -0.9254 -0.1006 -1.6109
46101SOL    HW250028   8.218   6.239   1.666  0.0752  1.3322  0.2571
46102SOL     OW50029   8.775  11.562  11.070 -0.0632  0.1343  0.0043
46102SOL    HW150030   8.690  11.600  11.095 -0.2771 -0.5525  0.3345
46102SOL    HW250031   8.825  11.637  11.037 -0.8954  0.4977 -0.4704
46103SOL     OW50032   0.630   0.693   4.178  0.4215 -0.0528  0.0937
46103SOL    HW150033   0.629   0.751   4.102  2.1885  0.3395  0.3154
46103SOL    HW250034   0.710   0.641   4.166 -1.6532 -3.4022 -0.7579
46104SOL     OW50035   1.747  10.406   9.592 -0.6237  0.4087  0.6152
46104SOL    HW150036   1.829  10.423   9.638 -0.4950  1.7178 -0.0638
46104SOL    HW250037   1.769  10.413   9.499 -1.4680  0.5988  0.4184
46105SOL     OW50038   4.447   2.110   0.477 -0.1112 -0.9408  0.2750
46105SOL    HW150039   4.377   2.170   0.455 -0.5479 -1.7746 -0.7081
46105SOL    HW250040   4.440   2.039   0.413 -0.5215 -2.7878  2.2106
46106SOL     OW50041   6.000  10.254  11.868  0.0785 -0.1222  0.1506
46106SOL    HW150042   5.987  10.166  11.832 -0.8827  0.9342 -2.3317
46106SOL    HW250043   5.946  10.256  11.947  0.7605 -1.9923  0.7056
46107SOL     OW50044   2.072   2.117   8.938 -0.1361 -0.3415 -0.2906
46107SOL    HW150045   2.004   2.067   8.894 -1.3974  0.1833  0.9725
46107SOL    HW250046   2.141   2.053   8.958 -1.4389 -1.4829  0.7393
46108SOL     OW50047   2.541   9.417  10.585  0.0394 -0.0881  0.6431
46108SOL    HW150048   2.502   9.436  10.670  1.1335 -2.0545  1.6694
46108SOL    HW250049   2.635   9.415  10.603  0.2665 -0.7898 -0.5509
46109SOL     OW50050   0.711  10.546   5.732  0.2013 -0.0022 -0.0776
46109SOL    HW150051   0.685  10.524   5.821 -0.8820 -0.2220 -0.4348
46109SOL    HW250052   0.750  10.466   5.697 -1.3880 -0.6239 -0.5166
46110SOL     OW50053  11.889   0.825   2.682  0.1025  0.3217 -0.3094
46110SOL    HW150054  11.975   0.786   2.668 -0.5443 -0.3957 -2.9049
46110SOL    HW250055  11.904   0.919   2.675  1.0730  0.4299  2.2362
46111SOL     OW50056   8.932   2.447   3.297 -0.0539 -0.0325 -0.6891
46111SOL    HW150057   8.886   2.368   3.270  1.4644 -1.4849  0.7352
46111SOL    HW250058   8.972   2.424   3.381  1.1037  1.9770 -0.6315
46112SOL     OW50059  10.600   1.789  11.946 -0.1590 -0.0976  0.3164
46112SOL    HW150060  10.619   1.844  11.870 -0.3726 -0.4557 -0.0015
46112SOL    HW250061  10.684   1.780  11.991 -0.2807  1.1854  0.8524
46113SOL     OW50062   4.988   2.176   4.439 -0.3318 -0.5642  0.2846
46113SOL    HW150063   4.959   2.088   4.415 -1.6191 -0.0191 -0.2259
46113SOL    HW250064   4.994   2.223   4.356  0.0252 -0.0637  0.5844
46114SOL     OW50065   4.430   9.371   6.506 -0.0266 -0.2578  0.2495
46114SOL    HW150066   4.499   9.305   6.503 -0.8890 -1.1830  0.0336
46114SOL    HW250067   4.383   9.352   6.587 -1.2916 -0.9905 -0.6199
46115SOL     OW50068   8.936   5.042   5.271 -0.3321 -0.2484  0.6599
46115SOL    HW150069   9.015   5.047   5.325  0.8513  0.6650 -1.0283
46115SOL    HW250070   8.947   4.961   5.221  0.7366  0.9709 -1.2059
46116SOL     OW50071   8.990   1.533   7.849 -0.4136  0.1076  0.4839
46116SOL    HW150072   9.079   1.553   7.878  0.0733  0.1289 -0.9476
46116SOL    HW250073   8.992   1.440   7.828 -0.8826 -0.0118  0.9406
46117SOL     OW50074   9.994   2.665   3.468 -0.1898  0.5482 -0.0958
46117SOL    HW150075   9.997   2.759   3.448  1.6568  0.8574  1.3225
46117SOL    HW250076  10.045   2.624   3.398 -0.3096  0.7010 -0.2726
46118SOL     OW50077   3.531   0.900   4.463  0.4613  0.1911 -0.7817
46118SOL    HW150078   3.589   0.838   4.420 -2.9308 -2.4548 -2.0100
46118SOL    HW250079   3.489   0.948   4.392 -0.6561  0.2378 -0.1145
46119SOL     OW50080   9.166   3.789  10.208  0.0502 -0.0538  0.2760
46119SOL    HW150081   9.230   3.738  10.258  2.9814  0.6545 -2.4054
46119SOL    HW250082   9.177   3.879  10.240 -1.2561 -0.2401  1.3137
46120SOL     OW50083   0.304   2.461   5.819  0.2788  0.1095  0.1509
46120SOL    HW150084   0.337   2.417   5.897 -0.1189  0.0563  0.2872
46120SOL    HW250085   0.209   2.451   5.823  0.3318 -1.3548 -1.2093
46121SOL     OW50086   6.139   9.882   9.356 -0.7807 -0.1076  0.2706
46121SOL    HW150087   6.057   9.899   9.310 -0.9862  1.8262  1.2496
46121SOL    HW250088   6.135   9.788   9.378 -0.5982 -1.1691 -3.5858
46122SOL     OW50089   5.448   6.482   2.821 -0.1248  0.3875  0.1871
46122SOL    HW150090   5.532   6.454   2.856 -0.6522 -1.1056  0.3344
46122SOL    HW250091   5.469   6.527   2.740  0.9031  1.3295  0.9437
46123SOL     OW50092   5.458   2.275  10.131 -0.1758 -0.4025 -0.8066
46123SOL    HW150093   5.409   2.248  10.208 -0.6030  0.3622 -0.8050
46123SOL    HW250094   5.392   2.309  10.071  0.4098  1.4754 -0.4565
46124SOL     OW50095   7.592   4.004   8.737  0.0227 -0.3271 -0.0804
46124SOL    HW150096   7.526   3.964   8.682 -0.1915 -0.5632  0.3477
46124SOL    HW250097   7.653   3.933   8.758  0.2103 -0.1945 -0.1632
46125SOL     OW50098  11.764   0.451   0.303  0.1416  0.1139 -0.2487
46125SOL    HW150099  11.840   0.426   0.355  0.6771  1.1668 -0.4952
46125SOL    HW250100  11.707   0.375   0.306  0.7671 -0.3345  0.7516
46126SOL     OW50101   9.971   3.903   7.632  0.1641  0.0238  0.1250
46126SOL    HW150102   9.961   3.915   7.726  2.0215 -0.1745  0.3822
46126SOL    HW250103  10.045   3.959   7.608  0.8169 -1.2245 -0.9007
46127SOL     OW50104   1.480   1.752   4.085  0.3182  0.2960 -0.3574
46127SOL    HW150105   1.408   1.726   4.142 -0.0238  3.0694  0.6574
46127SOL    HW250106   1.494   1.677   4.028 -1.2330 -1.5341  1.4985
46128SOL     OW50107  10.316   9.663   0.003 -0.1407 -0.8102 -0.2928
46128SOL    HW150108  10.360   9.745  -0.020  0.3040 -0.5730  1.2733
46128SOL    HW250109  10.269   9.638  -0.076  2.2844 -0.7394 -1.8591
46129SOL     OW50110   1.759   8.976   6.969  0.6748 -0.1827 -0.3718
46129SOL    HW150111   1.832   8.914   6.975 -0.3021 -1.2018  1.8095
46129SOL    HW250112   1.702   8.938   6.902  1.6057  0.0985 -1.3659
46130SOL     OW50113   6.048   4.648   1.714 -0.4598 -0.8345  0.5202
46130SOL    HW150114   6.038   4.556   1.689  1.0704 -0.8605 -0.0849
46130SOL    HW250115   6.134   4.673   1.682 -0.7676  0.7766  0.8400
46131SOL     OW50116   2.349   6.522   6.811 -0.5571  0.3344  0.3810
46131SOL    HW150117   2.364   6.570   6.893 -1.6529  1.0062  0.2090
46131SOL    HW250118   2.435   6.519   6.769 -0.2108  0.9991  1.0228
46132SOL     OW50119   4.931   0.560   7.715  0.5417 -0.0173 -0.2105
46132SOL    HW150120   5.013   0.511   7.712 -0.0540 -1.1665  1.1813
46132SOL    HW250121   4.871   0.509   7.661  0.5501  0.4830 -0.7060
46133SOL     OW50122   8.021   6.085   5.014  0.7181 -0.3982 -0.6422
46133SOL    HW150123   7.929   6.058   5.006  0.3385  0.0608  1.4990
46133SOL    HW250124   8.068   6.005   5.037  0.4475 -0.2577  0.4876
46134SOL     OW50125  10.131   3.019   7.844  0.3216 -0.2756 -0.2971
46134SOL    HW150126  10.134   3.114   7.837 -0.2234  0.1841  3.6208
46134SOL    HW250127  10.195   2.988   7.780  2.0675  2.8326 -0.2383
46135SOL     OW50128   1.530   8.174   9.796 -0.0762  0.0762  0.5499
46135SOL    HW150129   1.517   8.195   9.703  1.6401 -2.7340 -0.4507
46135SOL    HW250130   1.614   8.214   9.818 -1.8611  3.4667  1.9749
46136SOL     OW50131   5.146   3.986  11.313  0.4730 -0.0411  0.0672
46136SOL    HW150132   5.086   4.048  11.272  0.0401 -0.0695  0.6531
46136SOL    HW250133   5.093   3.908  11.329  0.8592 -0.3459 -0.1005
46137SOL     OW50134  10.905   2.577   3.630  0.7863 -0.5830  0.2459
46137SOL    HW150135  10.924   2.621   3.713 -2.3003 -0.2772  0.9276
46137SOL    HW250136  10.854   2.641   3.580 -2.7582 -2.6916  0.7553
46138SOL     OW50137   2.977   0.754   2.141  0.0260 -0.1356 -0.2048
46138SOL    HW150138   3.064   0.793   2.148  0.2156 -0.0577 -2.2840
46138SOL    HW250139   2.987   0.666   2.175  0.0568  0.8932  2.7391
46139SOL     OW50140   7.618   8.463  10.666  0.3852  0.4183 -0.3572
46139SOL    HW150141   7.657   8.547  10.641 -0.8510  0.9597 -0.5689
46139SOL    HW250142   7.568   8.482  10.745  1.6437 -0.5719  0.7026
46140SOL     OW50143   2.180   4.385   6.012  0.6333 -0.0734  0.3353
46140SOL    HW150144   2.164   4.341   6.095  1.0306 -1.1142 -0.1231
46140SOL    HW250145   2.255   4.443   6.029  1.5202 -1.2019  0.4025
46141SOL     OW50146   3.833   7.552   3.974 -0.3655 -0.1007 -0.0410
46141SOL    HW150147   3.894   7.480   3.992 -2.4492 -1.9803 -0.1035
46141SOL    HW250148   3.890   7.627   3.956  1.9113 -1.6579  0.1820
46142SOL     OW50149   0.427   7.438   8.879 -0.2554  0.0023  0.2031
46142SOL    HW150150   0.504   7.495   8.876 -1.1643  1.2554 -0.3188
46142SOL    HW250151   0.353   7.499   8.888 -1.2428 -1.1237 -0.1346
46143SOL     OW50152   6.324  11.120  10.840 -0.4162 -0.2148 -0.4509
46143SOL    HW150153   6.276  11.142  10.761 -1.4637  1.8517  0.6822
46143SOL    HW250154   6.265  11.063  10.889 -0.2346 -0.5684 -0.6397
46144SOL     OW50155   4.242   4.194  11.375 -0.1119  0.1009  0.5934
46144SOL    HW150156   4.210   4.221  11.289  1.7604 -0.8598 -0.4722
46144SOL    HW250157   4.164   4.188  11.429 -1.1980  1.9806 -0.6631
46145SOL     OW50158   3.885   8.327   7.606 -0.1006  0.2764 -0.2101
46145SOL    HW150159   3.954   8.391   7.586 -0.2417  0.5188  0.0705
46145SOL    HW250160   3.818   8.378   7.651 -0.3415 -0.0161 -0.2391
46146SOL     OW50161  11.483   3.253  11.306  0.3299 -0.1125  0.1655
46146SOL    HW150162  11.502   3.187  11.372  0.6832  0.7451  0.9367
46146SOL    HW250163  11.437   3.322  11.353 -0.0398  0.2043 -0.6290
46147SOL     OW50164  10.228   8.028   8.043  0.0894  0.0580  0.4676
46147SOL    HW150165  10.159   7.989   7.990  0.9727 -1.8181  0.6107
46147SOL    HW250166  10.263   8.099   7.989 -0.5601 -0.3083 -0.4640
46148SOL     OW50167   0.888   4.469   0.247  0.3466  0.5449 -0.0129
46148SOL    HW150168   0.821   4.494   0.311 -0.0932  1.2301 -0.7289
46148SOL    HW250169   0.971   4.494   0.287  0.0554  1.2218  0.1721
46149SOL     OW50170   3.661  10.201   3.317  0.0817 -0.0786  0.2429
46149SOL    HW150171   3.738  10.251   3.342 -1.0042  0.7992  2.0588
46149SOL    HW250172   3.587  10.254   3.349 -1.3989  0.0252 -2.9693
46150SOL     OW50173   5.953   8.613   7.217 -0.8433  0.0438  0.0006
46150SOL    HW150174   6.006   8.589   7.293 -1.0551  0.4972  0.2948
46150SOL    HW250175   5.969   8.706   7.203 -2.1828  0.3984  0.6170
46151SOL     OW50176   4.157  10.483   0.117 -0.1484 -0.7548 -0.5715
46151SOL    HW150177   4.152  10.389   0.100  0.5592 -0.5996 -1.7689
46151SOL    HW250178   4.158  10.490   0.213 -1.1323 -1.8959 -0.4556
46152SOL     OW50179   2.226   1.394   0.475 -0.6402  0.2203  0.8119
46152SOL    HW150180   2.147   1.351   0.441 -0.3268  0.3651 -0.1222
46152SOL    HW250181   2.204   1.416   0.566 -1.2435 -0.8014  0.9261
46153SOL     OW50182   7.163   5.327   2.529 -0.5020  0.6369  0.7649
46153SOL    HW150183   7.108   5.291   2.599  0.3441  0.2616  1.2447
46153SOL    HW250184   7.204   5.404   2.568  0.8022 -0.1746  1.0482
46154SOL     OW50185   7.763  11.752   6.870 -0.2355  0.3230  0.6243
46154SOL    HW150186   7.805  11.734   6.786 -1.0418 -1.5338  0.5634
46154SOL    HW250187   7.778  11.673   6.922 -0.0663  1.2909  2.1283
46155SOL     OW50188   5.209   2.044  11.213  0.3223  0.3648  0.5014
46155SOL    HW150189   5.277   2.032  11.279 -0.2166 -0.4145  0.9321
46155SOL    HW250190   5.257   2.063  11.132  0.9955  1.0589  1.0517
46156SOL     OW50191   9.224   4.813  11.045  0.3324  0.3058  0.1463
46156SOL    HW150192   9.222   4.802  10.950  2.4118  0.9020 -0.0162
46156SOL    HW250193   9.168   4.743  11.079 -0.4675  0.1020 -1.5032
46157SOL     OW50194   4.098   1.042   6.789 -0.7904 -0.1114 -0.4413
46157SOL    HW150195   4.024   1.097   6.813 -0.7973  0.2283 -1.1835
46157SOL    HW250196   4.097   0.970   6.851 -0.8328  0.6835  0.5068
46158SOL     OW50197  10.316   8.885   8.282  0.0211  0.3756  0.2247
46158SOL    HW150198  10.244   8.826   8.304  1.2652 -1.3241 -0.0438
46158SOL    HW250199  10.351   8.913   8.367 -0.3529  0.4396  0.3584
46159SOL     OW50200   6.192   3.001   6.487 -0.1607  0.0432 -0.2427
46159SOL    HW150201   6.165   2.914   6.515  0.6037 -0.4391 -0.9537
46159SOL    HW250202   6.267   2.986   6.431  0.0290  1.1749 -0.3208
46160SOL     OW50203   5.712   1.626   0.598 -0.0222 -0.2923 -0.0104
46160SOL    HW150204   5.706   1.711   0.555  0.4620 -1.0305 -1.5791
46160SOL    HW250205   5.644   1.629   0.666 -2.1239  0.2168 -2.0209
46161SOL     OW50206  10.288   1.057   0.788 -0.1460 -0.1126  0.0459
46161SOL    HW150207  10.326   1.067   0.875 -1.8605  0.1549  0.8004
46161SOL    HW250208  10.314   0.969   0.760  0.1514 -0.3253  0.9640
46162SOL     OW50209   8.652   6.125   5.933  0.0624  0.0400 -0.4018
46162SOL    HW150210   8.652   6.201   5.874  1.1224  0.1112 -0.3201
46162SOL    HW250211   8.725   6.071   5.904  1.1516  0.4798  1.3437
46163SOL     OW50212   3.958   1.459   8.066  0.2170 -0.0187 -0.4321
46163SOL    HW150213   3.880   1.488   8.113 -0.3578 -1.7732 -0.2147
46163SOL    HW250214   4.029   1.468   8.129  0.4994  2.8530 -1.0482
46164SOL     OW50215   6.690   4.356   7.825  0.2543  0.2406 -0.1226
46164SOL    HW150216   6.677   4.441   7.783 -0.4860  0.5541  0.6924
46164SOL    HW250217   6.725   4.299   7.757 -0.5970  0.8228 -1.0648
46165SOL     OW50218   8.321   2.169   7.001  0.0443 -0.4079  0.2934
46165SOL    HW150219   8.372   2.109   6.946  0.4530  0.6142 -0.4797
46165SOL    HW250220   8.336   2.256   6.962 -0.2903  0.2383  1.5526
46166SOL     OW50221   8.823   4.685  10.373 -0.0836 -0.1615  0.5748
46166SOL    HW150222   8.751   4.671  10.312  0.3164  1.0186 -0.2066
46166SOL    HW250223   8.849   4.776  10.359  0.9881 -0.3114  1.4564
46167SOL     OW50224   3.787  10.721   4.420  0.0685 -0.0718  0.0781
46167SOL    HW150225   3.857  10.764   4.370  1.2001  0.6513  2.1721
46167SOL    HW250226   3.823  10.637   4.446 -0.4444 -0.3657 -0.1418
46168SOL     OW50227   5.616   7.622   7.493  0.1838  0.1179 -0.4102
46168SOL    HW150228   5.559   7.700   7.492  0.1959  0.1402  0.2335
46168SOL    HW250229   5.678   7.637   7.421  0.6679  1.0683  0.1840
46169SOL     OW50230   1.481   2.607   4.095 -0.5850 -0.5339 -0.6759
46169SOL    HW150231   1.514   2.642   4.178 -1.6291 -1.7462  0.2770
46169SOL    HW250232   1.435   2.682   4.055 -0.7070 -0.1309  0.1839
46170SOL     OW50233   2.689   7.138   5.432 -0.1957  0.1515  0.3160
46170SOL    HW150234   2.751   7.064   5.440 -0.7702 -0.2011  1.8545
46170SOL    HW250235   2.603   7.097   5.433 -0.5047  0.7112 -0.9917
46171SOL     OW50236   6.129   6.779   8.238  0.2086 -0.7744 -0.2486
46171SOL    HW150237   6.133   6.814   8.149  1.5811 -1.3437 -0.4401
46171SOL    HW250238   6.105   6.687   8.227 -0.5719 -0.6046  0.0391
46172SOL     OW50239  11.574   3.470   0.046 -0.1480 -0.5347 -0.1546
46172SOL    HW150240  11.565   3.379   0.072  0.5826 -0.2837  1.0898
46172SOL    HW250241  11.603   3.466  -0.045 -1.0667 -1.5098 -0.4198
46173SOL     OW50242  11.646   3.379   5.236  0.0075 -0.5169  0.2163
46173SOL    HW150243  11.624   3.310   5.299  1.0734  0.7503  2.0981
46173SOL    HW250244  11.736   3.402   5.257  1.6953 -2.2685 -4.0436
46174SOL     OW50245   0.024  11.681   9.197 -0.5342  0.1932  0.8949
46174SOL    HW150246   0.105  11.637   9.172 -0.9834 -0.9204  1.3628
46174SOL    HW250247   0.053  11.764   9.234  0.3504  0.1153  0.4166
46175SOL     OW50248   9.698   9.493   5.636 -0.1341 -0.2767 -0.0699
46175SOL    HW150249   9.706   9.546   5.716 -2.1537 -0.6030  0.3904
46175SOL    HW250250   9.692   9.557   5.565 -0.5729  0.0769  0.2817
46176SOL     OW50251   5.985   9.332   4.902 -0.1819 -0.5070  0.1960
46176SOL    HW150252   6.064   9.383   4.881 -0.3038 -0.3481  0.1194
46176SOL    HW250253   5.919   9.364   4.840  0.0057 -1.4447 -0.5161
46177SOL     OW50254   4.471   8.680   3.636  0.4810 -0.1571  0.0871
46177SOL    HW150255   4.562   8.707   3.627  0.3531 -0.2169 -1.8659
46177SOL    HW250256   4.427   8.717   3.559 -0.5818 -2.2753 -0.4229
46178SOL     OW50257   7.157   3.963   3.216  0.3328 -0.3707 -0.2583
46178SOL    HW150258   7.165   4.056   3.235 -0.3985 -0.7041  1.9396
46178SOL    HW250259   7.245   3.937   3.188  0.8871  0.7243  0.3814
46179SOL     OW50260   1.606   3.345   2.130  0.2078 -0.1837  0.2381
46179SOL    HW150261   1.614   3.377   2.040  0.7638 -2.1405 -0.4620
46179SOL    HW250262   1.511   3.335   2.143  0.1517 -0.4626 -0.3592
46180SOL     OW50263   5.021   4.714   2.540  0.8039 -0.1431  0.8421
46180SOL    HW150264   5.093   4.655   2.561 -0.5046 -1.5191  1.6948
46180SOL    HW250265   4.992   4.686   2.453  0.2711 -0.6816  1.1883
46181SOL     OW50266   7.369   1.301  11.588 -0.0204  0.2017  0.2065
46181SOL    HW150267   7.338   1.385  11.554 -0.6292 -0.0864  0.0362
46181SOL    HW250268   7.339   1.237  11.523 -0.1673 -0.2224  0.6912
46182SOL     OW50269   8.784   3.063   6.168  0.8221  0.2345  0.1330
46182SOL    HW150270   8.869   3.100   6.192  0.4128  0.9260  0.5402
46182SOL    HW250271   8.731   3.070   6.248 -0.1528  1.3799 -0.5902
46183SOL     OW50272   3.984   8.396   0.395 -0.1043  0.8099  0.1292
46183SOL    HW150273   3.911   8.445   0.433  0.0024  0.4096  0.8648
46183SOL    HW250274   3.949   8.308   0.381 -0.0007  0.8315 -0.2709
46184SOL     OW50275  10.568  11.678   0.008 -0.0183  0.5926 -0.1884
46184SOL    HW150276  10.547  11.646  -0.080 -0.1788 -0.0691  0.0854
46184SOL    HW250277  10.501  11.640   0.064  0.6330  0.2444  0.3633
46185SOL     OW50278   7.564   2.574   8.795  0.1395  0.0776 -0.1246
46185SOL    HW150279   7.583   2.667   8.804 -0.0006  0.1720 -0.7973
46185SOL    HW250280   7.507   2.568   8.719  0.0478 -0.5486 -0.0147
46186SOL     OW50281   6.702  10.101  11.542 -0.1533 -0.2831  0.0930
46186SOL    HW150282   6.757  10.154  11.484  0.9289 -1.2497  0.2175
46186SOL    HW250283   6.759  10.079  11.616 -1.2762  0.2645  1.1558
46187SOL     OW50284  11.087   3.600   6.327  0.0813 -0.3290 -0.3435
46187SOL    HW150285  11.033   3.538   6.278 -0.1019 -0.2868 -0.1990
46187SOL    HW250286  11.027   3.637   6.392  0.0690  0.3368 -0.7267
46188SOL     OW50287   6.517   3.171   5.919 -0.4570  0.0590  0.0073
46188SOL    HW150288   6.460   3.221   5.860 -1.0918  0.1053  0.6506
46188SOL    HW250289   6.505   3.080   5.892 -0.8535  0.0669  0.1420
46189SOL     OW50290   6.121   6.804   2.095  0.0814 -0.1829  0.1666
46189SOL    HW150291   6.200   6.845   2.058 -0.0384  0.0723  0.1932
46189SOL    HW250292   6.049   6.838   2.042 -0.5050  2.7453  2.5618
46190SOL     OW50293   2.690   2.073   4.852  0.4045 -0.0769  0.6782
46190SOL    HW150294   2.738   2.000   4.812 -0.9125 -0.7289  0.2502
46190SOL    HW250295   2.686   2.050   4.945  0.1121 -0.4857  0.5660
46191SOL     OW50296   8.800   3.618   1.611  0.1216 -0.7636  0.0956
46191SOL    HW150297   8.890   3.645   1.628 -0.4513  2.1007 -0.9064
46191SOL    HW250298   8.746   3.691   1.641 -1.7092 -1.4121 -1.3767
46192SOL     OW50299   3.921   9.834   6.529 -0.4270 -0.7866 -0.1546
46192SOL    HW150300   3.905   9.814   6.621  0.2188  0.3771  0.2397
46192SOL    HW250301   3.953   9.752   6.492  0.7955 -0.8843  1.0419
46193SOL     OW50302   1.367   0.328   5.639 -0.0309  0.4777  0.4818
46193SOL    HW150303   1.354   0.423   5.638  0.7050  0.6508  2.6277
46193SOL    HW250304   1.352   0.302   5.730 -1.4252 -1.6822 -0.2785
46194SOL     OW50305   2.382   9.409   3.622 -0.3669  0.0197 -0.8960
46194SOL    HW150306   2.338   9.478   3.673 -1.3416  0.6245 -2.4740
46194SOL    HW250307   2.451   9.455   3.574  1.0311 -0.6696  0.3846
46195SOL     OW50308   1.684   6.135   3.403 -0.6026  0.5481 -0.2772
46195SOL    HW150309   1.762   6.141   3.457 -0.3296  0.4322 -0.6539
46195SOL    HW250310   1.698   6.200   3.334 -0.9060  0.6316 -0.2599
46196SOL     OW50311  10.495   4.395  11.748  0.0363  0.1773 -0.1792
46196SOL    HW150312  10.422   4.449  11.778 -0.0496  0.3012 -0.5947
46196SOL    HW250313  10.570   4.456  11.744 -0.0717  0.2842 -0.6924
46197SOL     OW50314   7.288   5.237   3.438 -0.0402  0.4905  0.2149
46197SOL    HW150315   7.260   5.195   3.357 -1.1633  1.4739  0.0711
46197SOL    HW250316   7.372   5.278   3.415  1.5805 -2.3602  0.6192
46198SOL     OW50317   8.782   1.879   7.165  0.3590 -0.3382 -0.7316
46198SOL    HW150318   8.709   1.905   7.221  0.5840  0.7332 -0.9187
46198SOL    HW250319   8.772   1.932   7.087  1.8934  0.5637 -0.3541
46199SOL     OW50320   9.908   9.274   9.839  0.0552  0.3431  0.1314
46199SOL    HW150321   9.846   9.201   9.831  0.8613 -0.1387 -3.0426
46199SOL    HW250322   9.873   9.342   9.782  1.3768  0.8810 -0.0770
46200SOL     OW50323   8.357  10.674   8.835 -0.1189  0.5724 -0.3302
46200SOL    HW150324   8.411  10.685   8.914 -2.9272  0.7041  1.7466
46200SOL    HW250325   8.395  10.734   8.771  1.7180  1.2003  1.2480
46201SOL     OW50326   5.779   2.809   5.964  0.5134  0.1409  0.2274
46201SOL    HW150327   5.688   2.839   5.962  0.6217  0.4558 -1.7468
46201SOL    HW250328   5.820   2.862   6.032 -1.0263 -0.8368  2.0009
46202SOL     OW50329   4.279   4.188   0.748 -0.0946  0.2206  0.1404
46202SOL    HW150330   4.322   4.113   0.706 -0.5663 -1.6770  2.7681
46202SOL    HW250331   4.239   4.236   0.675  0.7337 -1.7289 -1.7365
46203SOL     OW50332   7.065   2.262  11.878  0.2272  0.3577  0.1085
46203SOL    HW150333   7.041   2.290  11.790 -0.1850  1.0426  0.4268
46203SOL    HW250334   7.073   2.167  11.872 -0.6423  0.3076 -0.4716
46204SOL     OW50335   7.316   6.827  11.103 -0.2600 -0.3668  0.2418
46204SOL    HW150336   7.389   6.814  11.163  0.6461  0.9344 -0.5292
46204SOL    HW250337   7.304   6.922  11.099 -1.7842 -0.5296  0.0823
46205SOL     OW50338   6.886   9.708   2.388 -0.1067  0.5144 -0.2827
46205SOL    HW150339   6.980   9.689   2.393 -0.2457 -0.6661 -1.4930
46205SOL    HW250340   6.878   9.769   2.315 -0.4431 -0.9171 -1.4937
46206SOL     OW50341   4.457   7.089   8.689 -0.3034  0.5747  0.6886
46206SOL    HW150342   4.505   7.049   8.761 -0.3868  0.7737  0.8556
46206SOL    HW250343   4.464   7.026   8.617 -0.5072  0.2208  0.9771
46207SOL     OW50344  10.348   7.374   7.195 -0.2698  1.0972  0.5166
46207SOL    HW150345  10.375   7.330   7.275 -0.3795 -3.1291 -1.4724
46207SOL    HW250346  10.253   7.378   7.201 -0.3411  0.0448  0.3336
46208SOL     OW50347   2.835   9.226  11.043  0.4227  0.1744  0.4818
46208SOL    HW150348   2.891   9.303  11.035 -0.6172  1.2108  2.4974
46208SOL    HW250349   2.769   9.237  10.974  2.3455 -0.8401 -1.6253
46209SOL     OW50350   3.714   6.242   5.889  0.3257 -0.4300 -0.3556
46209SOL    HW150351   3.631   6.287   5.875 -0.1580 -1.5766 -1.3692
46209SOL    HW250352   3.694   6.174   5.954  0.8923  0.3336  0.6568
46210SOL     OW50353   8.289  10.588  11.118  0.0459  0.4423  0.2599
46210SOL    HW150354   8.328  10.672  11.092  0.7729 -0.0044 -0.1300
46210SOL    HW250355   8.196  10.598  11.097  0.4672  0.3720 -1.9120
46211SOL     OW50356   8.874   5.542   7.342 -0.4456 -0.1462 -0.1789
46211SOL    HW150357   8.946   5.505   7.393  1.1158  1.0809 -1.3787
46211SOL    HW250358   8.862   5.630   7.378 -1.1688 -0.2389 -0.1763
46212SOL     OW50359   6.375   8.051   8.840 -0.1478  0.0495  0.4824
46212SOL    HW150360   6.301   8.026   8.784  0.2941  0.3119 -0.2331
46212SOL    HW250361   6.367   8.146   8.848  0.8973  0.2847 -0.7839
46213SOL     OW50362   4.329   2.201   3.588 -0.3151  0.4261 -0.2774
46213SOL    HW150363   4.354   2.181   3.498 -1.0254  1.2907 -0.6727
46213SOL    HW250364   4.249   2.150   3.603  0.4975 -0.7445  0.3220
46214SOL     OW50365  10.182  10.246   9.128 -0.6457  0.0448 -0.0863
46214SOL    HW150366  10.091  10.221   9.108 -0.6041 -0.0581 -0.1523
46214SOL    HW250367  10.214  10.286   9.047  0.5933 -3.4107 -1.4964
46215SOL     OW50368   4.043   0.076   8.575  0.3403  0.0205  0.4049
46215SOL    HW150369   3.961   0.066   8.526  1.3468 -1.0618 -1.1814
46215SOL    HW250370   4.052  -0.006   8.623  0.7804 -0.1298  0.0755
46216SOL     OW50371   5.728   4.731   9.517  0.4867  0.2712 -0.0623
46216SOL    HW150372   5.726   4.704   9.426  0.9547 -1.3487  0.3766
46216SOL    HW250373   5.640   4.713   9.550  0.0610  1.6301 -0.3636
46217SOL     OW50374   0.480   0.436   5.112 -0.0776  0.4547  0.4148
46217SOL    HW150375   0.429   0.359   5.086 -0.1758  0.4952  0.4828
46217SOL    HW250376   0.479   0.433   5.208 -1.4538  1.4200  0.4615
46218SOL     OW50377  11.898   6.764   1.078 -0.1081 -0.0221  0.2449
46218SOL    HW150378  11.938   6.851   1.066  1.3497 -0.7922 -0.8392
46218SOL    HW250379  11.872   6.762   1.170 -0.3225  1.6206  0.2549
46219SOL     OW50380  10.699   4.184   0.488 -0.0074 -0.0319 -0.2002
46219SOL    HW150381  10.667   4.177   0.578  0.3971 -0.2816 -0.0685
46219SOL    HW250382  10.625   4.160   0.433 -0.5717  1.1671  0.0262
46220SOL     OW50383   9.333   0.236   8.150 -0.6816  0.0257  0.0184
46220SOL    HW150384   9.371   0.177   8.086 -1.4986  0.0080 -0.4660
46220SOL    HW250385   9.407   0.286   8.185 -0.0969 -0.7110 -0.1543
46221SOL     OW50386   9.086   7.395   6.806 -0.2407 -0.1177  0.3497
46221SOL    HW150387   8.998   7.426   6.828 -0.5267 -0.1595 -0.6917
46221SOL    HW250388   9.103   7.324   6.868 -1.6637 -1.3079 -0.5711
46222SOL     OW50389   3.897   9.728   2.449  0.1224  0.5023 -0.1419
46222SOL    HW150390   3.834   9.735   2.378 -1.1712  0.6559  0.9730
46222SOL    HW250391   3.941   9.813   2.451 -1.4716  1.3411  0.6890
46223SOL     OW50392   6.604   6.952   8.556  0.4505  0.4702  0.1949
46223SOL    HW150393   6.540   6.999   8.503  0.5272  0.6635  0.2725
46223SOL    HW250394   6.584   6.859   8.541  2.1408  0.4109 -2.2748
46224SOL     OW50395   3.955  10.830   2.570  0.1879  0.3909  0.9357
46224SOL    HW150396   3.874  10.780   2.564  0.4833 -0.2958  2.2563
46224SOL    HW250397   3.960  10.857   2.662  1.2434  0.8014  0.7801
46225SOL     OW50398   1.700   2.771   6.719 -0.4639 -0.2717 -0.1231
46225SOL    HW150399   1.646   2.846   6.745  0.1330 -0.1269  0.7078
46225SOL    HW250400   1.729   2.793   6.630 -0.9529  0.1099 -0.1936
46226SOL     OW50401   2.090   2.030   9.955  0.2081 -0.1021  0.0241
46226SOL    HW150402   2.113   2.094  10.023 -0.3796 -0.9323  1.0221
46226SOL    HW250403   2.120   2.071   9.874  1.7190  0.5259  0.8618
46227SOL     OW50404   1.750   6.265   6.411  0.2658  0.2339 -0.3453
46227SOL    HW150405   1.671   6.319   6.412  1.6196  2.4551  2.4537
46227SOL    HW250406   1.821   6.325   6.390  1.6921 -0.6654  1.5172
46228SOL     OW50407   2.706   7.744   9.751  0.5481 -0.2565 -0.1251
46228SOL    HW150408   2.675   7.690   9.824 -0.9583 -0.1295 -0.6471
46228SOL    HW250409   2.734   7.680   9.684  2.9241 -0.3990  0.8764
46229SOL     OW50410   1.207   4.305   9.878 -0.1066  0.2107 -0.2607
46229SOL    HW150411   1.272   4.264   9.935 -0.8005 -0.4262  0.0923
46229SOL    HW250412   1.131   4.247   9.883 -0.2694  0.2657 -1.6476
46230SOL     OW50413   7.846   3.523   4.576 -0.2187  0.0204  0.1505
46230SOL    HW150414   7.854   3.594   4.512 -0.1287 -1.2330 -1.2675
46230SOL    HW250415   7.769   3.547   4.628 -0.8937  0.5969 -1.0640
46231SOL     OW50416   5.431  11.305   6.348 -0.2859  0.1624  0.2183
46231SOL    HW150417   5.485  11.378   6.314 -0.8582  0.8973  0.8536
46231SOL    HW250418   5.489  11.229   6.342  0.2256  0.5989 -0.7582
46232SOL     OW50419   0.741   3.585   4.623  0.3529 -0.7245  0.5009
46232SOL    HW150420   0.718   3.494   4.639  0.4039 -0.4850  2.2008
46232SOL    HW250421   0.757   3.590   4.529 -0.3173 -2.3027  0.2720
46233SOL     OW50422   4.967   9.625   1.394 -0.0976  0.3890 -0.4317
46233SOL    HW150423   4.900   9.560   1.415 -0.2197  1.1689  1.8837
46233SOL    HW250424   5.049   9.585   1.424  0.5929 -0.6032 -3.3405
46234SOL     OW50425   0.406   0.497  11.502 -0.3865  0.2166 -0.2810
46234SOL    HW150426   0.375   0.407  11.516  0.4926 -0.3796 -1.8880
46234SOL    HW250427   0.336   0.552  11.538 -0.7033 -1.0880  1.2215
46235SOL     OW50428   3.583   9.947   9.807 -0.2175 -0.1939 -0.1059
46235SOL    HW150429   3.561   9.947   9.714 -0.7965  0.6469  0.0248
46235SOL    HW250430   3.654  10.010   9.815 -1.7243  1.5066  0.3562
46236SOL     OW50431   3.550   8.671   9.705 -0.2835 -0.0688  0.1866
46236SOL    HW150432   3.576   8.684   9.614 -2.0611 -0.3431 -0.4084
46236SOL    HW250433   3.548   8.759   9.743 -1.4936  0.2854 -0.6460
46237SOL     OW50434   9.513   5.690   2.147  0.4485 -0.4004 -0.1886
46237SOL    HW150435   9.449   5.659   2.211  0.5056 -0.1834 -0.0277
46237SOL    HW250436   9.592   5.640   2.165  0.2614 -0.8300 -0.5310
46238SOL     OW50437   1.874   1.791   1.289 -0.5850 -0.4636 -0.0489
46238SOL    HW150438   1.913   1.804   1.203 -1.3805  0.1751 -0.3336
46238SOL    HW250439   1.842   1.700   1.288 -2.4789  0.1510 -1.2634
46239SOL     OW50440  10.977  10.524   7.746 -0.3352  0.3523  0.3352
46239SOL    HW150441  10.963  10.435   7.778  0.2680 -0.8495 -2.4963
46239SOL    HW250442  11.043  10.515   7.678  2.7342  3.5540  2.5175
46240SOL     OW50443   9.617   7.588   8.805 -0.0640 -0.3138  0.3264
46240SOL    HW150444   9.623   7.501   8.764  0.2091 -0.1953  0.1081
46240SOL    HW250445   9.535   7.625   8.771  0.1526 -0.2222 -0.1154
46241SOL     OW50446   5.507  11.309   4.342 -0.5705 -0.5345  0.2037
46241SOL    HW150447   5.543  11.367   4.408  0.3272 -1.5515  0.6294
46241SOL    HW250448   5.537  11.221   4.367  0.6728 -0.8546 -2.0949
46242SOL     OW50449  11.037   3.357   9.024 -0.8687 -0.5143 -0.1334
46242SOL    HW150450  11.011   3.304   8.948  0.0364 -1.7896  0.4169
46242SOL    HW250451  10.998   3.312   9.099  1.0438 -1.2169  0.4813
46243SOL     OW50452   1.303   3.363   5.371 -0.0420 -0.6179  0.2413
46243SOL    HW150453   1.231   3.402   5.322 -1.1354 -0.3855  1.9136
46243SOL    HW250454   1.275   3.371   5.463  2.1488 -0.5034  0.9377
46244SOL     OW50455   3.083  11.586  11.117 -0.7251 -0.2268  0.2932
46244SOL    HW150456   3.157  11.640  11.144 -0.1388 -1.1398  0.5776
46244SOL    HW250457   3.100  11.564  11.026 -1.6486  1.1454 -0.2398
46245SOL     OW50458  10.328   1.957   9.650  0.2965  0.5631 -0.1143
46245SOL    HW150459  10.415   1.933   9.616 -0.4269 -1.3051 -0.7975
46245SOL    HW250460  10.335   1.945   9.745  0.6150 -0.1861 -0.2291
46246SOL     OW50461   3.136   3.947   6.312 -0.0054 -0.7181 -0.2843
46246SOL    HW150462   3.160   3.906   6.229  1.6985 -1.8421  0.7085
46246SOL    HW250463   3.219   3.966   6.354 -0.7996  1.5085  0.4287
46247SOL     OW50464   5.469   2.754   8.874  0.6421 -0.4073 -0.6246
46247SOL    HW150465   5.535   2.790   8.933  1.7999 -2.4829 -0.5527
46247SOL    HW250466   5.518   2.726   8.797 -0.6198  0.7118 -1.8809
46248SOL     OW50467   0.019   4.566   5.379 -0.0235  0.0552 -0.0517
46248SOL    HW150468   0.029   4.659   5.401  0.7515 -0.2100  0.7848
46248SOL    HW250469   0.104   4.542   5.341 -0.7912  0.0967 -1.8809
46249SOL     OW50470   2.728   2.521   1.525  0.4615  0.4938  0.3787
46249SOL    HW150471   2.797   2.458   1.545 -1.6014 -1.3885  2.1568
46249SOL    HW250472   2.690   2.490   1.443 -0.3730 -0.4685  1.1109
46250SOL     OW50473   5.685   5.623  11.510 -0.0457 -0.4099 -0.0245
46250SOL    HW150474   5.714   5.599  11.598 -0.1029 -2.8184 -0.5987
46250SOL    HW250475   5.591   5.643  11.520 -0.1898 -1.2525  0.3854
46251SOL     OW50476   9.765  11.426   3.876  0.4597  0.4133 -0.3196
46251SOL    HW150477   9.719  11.506   3.849 -0.1034  0.8390  1.7709
46251SOL    HW250478   9.706  11.355   3.848 -1.3719  0.9316  1.9068
46252SOL     OW50479  11.753   6.677   7.066  0.3395 -0.2913  0.7208
46252SOL    HW150480  11.779   6.628   6.988 -1.9349 -0.5080  0.0349
46252SOL    HW250481  11.714   6.757   7.031 -0.0217 -0.0396  1.6779
46253SOL     OW50482  10.600   3.565   7.050  0.4006 -0.2603 -0.0400
46253SOL    HW150483  10.590   3.479   7.010  0.7750  0.2597 -1.2922
46253SOL    HW250484  10.512   3.587   7.082 -0.5466  0.3440 -2.7839
46254SOL     OW50485  11.331  10.438   2.975 -0.1530 -0.0587 -0.3156
46254SOL    HW150486  11.372  10.485   2.902 -1.2483 -0.8321 -1.4753
46254SOL    HW250487  11.245  10.411   2.941 -0.4207 -1.0230  1.0446
46255SOL     OW50488   6.571  10.302   6.991 -0.0239 -0.0711  0.1418
46255SOL    HW150489   6.592  10.368   6.924 -0.7775  2.6333  2.3788
46255SOL    HW250490   6.655  10.282   7.032  0.1525 -0.1941 -0.2757
46256SOL     OW50491   7.273   2.631   8.209  0.0765  0.3403 -0.2674
46256SOL    HW150492   7.261   2.569   8.280  1.2349  0.4345  0.0308
46256SOL    HW250493   7.347   2.597   8.159 -1.1147 -0.0829 -1.8421
46257SOL     OW50494   3.552   2.482   8.874  0.1781  0.6921 -0.2213
46257SOL    HW150495   3.641   2.514   8.857  0.2418  0.4361 -0.3757
46257SOL    HW250496   3.561   2.387   8.873 -0.2918  0.6457 -1.3261
46258SOL     OW50497  11.600   7.762   1.386  0.1366 -0.1974 -0.4962
46258SOL    HW150498  11.604   7.841   1.331 -3.2852  0.2348 -0.3463
46258SOL    HW250499  11.528   7.711   1.348  1.5208 -2.7459  0.1305
46259SOL     OW50500   2.322   2.485   9.543  0.8744  0.1017 -0.2224
46259SOL    HW150501   2.400   2.470   9.488  0.7934  0.4752 -0.4435
46259SOL    HW250502   2.286   2.398   9.557  0.0676  0.1162 -1.9790
46260SOL     OW50503   7.379   0.085   3.490 -0.3770 -0.4315 -0.7313
46260SOL    HW150504   7.363   0.041   3.573  0.0276 -0.4001 -0.6344
46260SOL    HW250505   7.303   0.142   3.478 -1.1982 -1.5939 -1.1552
46261SOL     OW50506   3.564   2.225   5.891 -0.2665 -0.0302  0.0870
46261SOL    HW150507   3.508   2.188   5.822 -1.1930  1.0529  0.2225
46261SOL    HW250508   3.589   2.150   5.945 -2.6334 -0.4158  0.7544
46262SOL     OW50509   1.758   6.333  10.289 -0.6348 -0.3365  0.1138
46262SOL    HW150510   1.853   6.345  10.290 -0.7487  2.7914 -3.0946
46262SOL    HW250511   1.728   6.372  10.371  0.7679  1.0052  0.0358
46263SOL     OW50512   2.991   5.780   0.036 -0.2139  0.5830 -0.2421
46263SOL    HW150513   3.073   5.755   0.079  0.3485  2.6094 -0.0661
46263SOL    HW250514   3.003   5.753  -0.055 -0.7552 -2.2159  0.4032
46264SOL     OW50515  11.131   8.821  10.437 -0.5182 -0.0254  0.1140
46264SOL    HW150516  11.109   8.825  10.344  0.0323  1.5313  0.0195
46264SOL    HW250517  11.048   8.800  10.480 -1.0402  0.4714 -0.6247
46265SOL     OW50518   8.360   9.536   0.589  0.1600  0.1066 -0.3711
46265SOL    HW150519   8.284   9.548   0.646  0.8723 -0.4258  0.7237
46265SOL    HW250520   8.417   9.610   0.608  0.7383 -0.4650  0.1869
46266SOL     OW50521   4.199   2.571   5.754  0.9752 -0.1731 -0.3308
46266SOL    HW150522   4.133   2.602   5.692 -1.3902 -0.9582  1.6324
46266SOL    HW250523   4.266   2.529   5.699 -0.6137 -0.2012 -2.3744
46267SOL     OW50524   3.343   5.988   0.657  0.1884 -0.2054 -0.5697
46267SOL    HW150525   3.344   5.913   0.598 -0.0507 -1.3364  0.7948
46267SOL    HW250526   3.250   6.012   0.663  0.3429  0.6998 -1.5805
46268SOL     OW50527   5.839   1.416   7.566 -0.1411 -0.1273  0.4935
46268SOL    HW150528   5.850   1.496   7.514  0.6485  0.4365  1.4999
46268SOL    HW250529   5.749   1.421   7.598 -0.2002  0.2038  0.2826
46269SOL     OW50530   5.706   6.382   9.198 -0.1357 -0.2108  0.1849
46269SOL    HW150531   5.715   6.438   9.275  0.5444 -0.2624  0.1533
46269SOL    HW250532   5.789   6.392   9.152 -1.1462  1.1556 -1.4670
46270SOL     OW50533   5.632   0.408   2.445  0.4157  0.4551 -0.2127
46270SOL    HW150534   5.645   0.364   2.528 -1.8366  3.0801  1.7240
46270SOL    HW250535   5.568   0.355   2.399 -3.1112  1.9255  2.5393
46271SOL     OW50536  11.429   3.803   7.336  0.0863  0.5793  0.0400
46271SOL    HW150537  11.509   3.751   7.320  0.0399 -0.1091  1.8791
46271SOL    HW250538  11.449   3.888   7.297  1.7071  0.4051  0.3899
46272SOL     OW50539   6.181   7.142   5.178 -0.4060 -0.1409 -0.0120
46272SOL    HW150540   6.165   7.230   5.212 -0.0116 -0.3203  0.6583
46272SOL    HW250541   6.098   7.096   5.189  0.0408 -0.5559  1.8519
46273SOL     OW50542   4.485   9.577   9.759  0.4533 -0.1372  0.0799
46273SOL    HW150543   4.471   9.533   9.843 -0.8591  0.8456  0.4057
46273SOL    HW250544   4.447   9.518   9.694  1.1090 -0.7142  0.2157
46274SOL     OW50545   7.768   1.211   5.922  0.3979 -0.6256 -0.1819
46274SOL    HW150546   7.678   1.242   5.919  0.0971 -1.3665  0.7555
46274SOL    HW250547   7.774   1.161   6.003  1.4054 -1.3328 -0.6689
46275SOL     OW50548   8.305   4.287   3.171  0.0090  0.2512 -0.4878
46275SOL    HW150549   8.358   4.296   3.092  1.3632 -0.3690  0.3254
46275SOL    HW250550   8.341   4.352   3.232 -0.6033  0.2848 -0.1551
46276SOL     OW50551   8.755   7.697  11.789 -0.0456 -0.1600 -0.0807
46276SOL    HW150552   8.715   7.693  11.875  1.1773 -0.8656  0.4785
46276SOL    HW250553   8.697   7.645  11.733  1.0131 -2.8127  1.1259
46277SOL     OW50554   7.941   5.754   1.217 -0.2567 -0.3522 -0.6421
46277SOL    HW150555   7.858   5.801   1.224  0.9689  1.6884  1.8790
46277SOL    HW250556   7.943   5.723   1.126 -2.8746  1.2085 -1.3527
46278SOL     OW50557   7.291  11.630   6.649  0.1525 -0.2845  0.3483
46278SOL    HW150558   7.320  11.539   6.644  0.4633 -0.1199 -2.2126
46278SOL    HW250559   7.232  11.641   6.575 -1.0321  1.2451  1.4574
46279SOL     OW50560   4.822   2.437   9.441 -0.0785 -0.5694 -0.1761
46279SOL    HW150561   4.822   2.342   9.452  0.6639 -0.3007  3.1420
46279SOL    HW250562   4.730   2.462   9.450 -0.2756 -0.9488 -1.0640
46280SOL     OW50563   2.126   1.371   4.812 -0.4185  0.0280 -0.0722
46280SOL    HW150564   2.032   1.353   4.817 -0.6035  0.7660 -0.6583
46280SOL    HW250565   2.143   1.384   4.718  0.0351  1.0651  0.1364
46281SOL     OW50566   6.809   6.185   3.343 -0.5477  0.5024  0.0266
46281SOL    HW150567   6.739   6.119   3.338 -0.3852  0.3836 -0.8519
46281SOL    HW250568   6.888   6.137   3.318 -0.0833  0.5635  1.2868
46282SOL     OW50569   1.884   7.056   0.279  0.2763  0.2593 -0.1725
46282SOL    HW150570   1.857   7.130   0.333  0.1943  0.2744 -0.2337
46282SOL    HW250571   1.803   7.008   0.262  0.4059 -0.1409  0.3088
46283SOL     OW50572   9.554   7.104   5.082  0.2279 -0.5746  0.2954
46283SOL    HW150573   9.558   7.195   5.111  2.9241  0.0474 -1.6346
46283SOL    HW250574   9.535   7.109   4.988 -0.1189 -2.0200  0.2696
46284SOL     OW50575   1.651   7.355   1.327  0.1892 -0.3413 -0.2218
46284SOL    HW150576   1.575   7.407   1.299 -0.0817 -1.7518 -2.3084
46284SOL    HW250577   1.614   7.284   1.378  0.0472 -1.0509 -1.2718
46285SOL     OW50578   6.220  10.389   3.701 -0.7018  0.1130 -0.4232
46285SOL    HW150579   6.215  10.360   3.792  1.0685 -0.4423 -0.4658
46285SOL    HW250580   6.314  10.391   3.681 -0.8844  2.8664 -1.4209
46286SOL     OW50581   3.157   4.854  10.133 -0.3683 -0.3004 -0.3622
46286SOL    HW150582   3.182   4.806  10.054  1.8678  0.4734 -0.2048
46286SOL    HW250583   3.201   4.807  10.204 -0.5224  0.3030  0.1416
46287SOL     OW50584   7.867  11.933   5.481 -0.2206  0.2988  0.7176
46287SOL    HW150585   7.884  11.858   5.424 -0.5309  1.0943 -0.4719
46287SOL    HW250586   7.865  12.008   5.422  1.0398  1.3997  1.9920
46288SOL     OW50587   4.822   9.192   1.768 -0.3036 -0.5810  0.7417
46288SOL    HW150588   4.741   9.221   1.726  0.0493  0.5399  0.8035
46288SOL    HW250589   4.892   9.231   1.715  0.2406 -2.4464  0.0278
46289SOL     OW50590   0.400   5.790   5.789  0.5574  0.1088  0.3068
46289SOL    HW150591   0.480   5.807   5.740  0.7375 -0.1880  0.4976
46289SOL    HW250592   0.337   5.854   5.755  1.2421  1.2359  1.0678
46290SOL     OW50593  10.279   2.594   6.132 -0.6213  0.1753 -0.1572
46290SOL    HW150594  10.339   2.557   6.068 -2.0305 -0.9943 -0.8699
46290SOL    HW250595  10.296   2.688   6.130  1.5636 -0.1705  0.1145
46291SOL     OW50596   9.107   0.613  10.703  0.0123 -0.3632 -0.3971
46291SOL    HW150597   9.048   0.680  10.668 -0.4287  0.0687  1.1048
46291SOL    HW250598   9.163   0.661  10.764 -0.1899 -1.3249  0.5681
46292SOL     OW50599   8.294   4.191   8.003 -0.0251 -0.0604  0.5799
46292SOL    HW150600   8.279   4.096   7.995 -0.4682 -0.0506  1.2501
46292SOL    HW250601   8.356   4.211   7.933 -0.2018 -0.7855  0.2038
46293SOL     OW50602   6.853   4.979   8.018  0.2380  0.6655  0.4815
46293SOL    HW150603   6.933   4.938   8.052  0.1420  0.3848  0.3694
46293SOL    HW250604   6.881   5.020   7.937  0.2921  0.6606  0.4970
46294SOL     OW50605   6.840   1.222   5.891  0.2343 -0.4247  1.2157
46294SOL    HW150606   6.896   1.300   5.896  1.9895 -1.5104 -0.0855
46294SOL    HW250607   6.900   1.152   5.865 -1.5477 -1.9217  0.9651
46295SOL     OW50608   2.631   4.977   8.293 -0.0581  0.1508 -0.0786
46295SOL    HW150609   2.548   5.008   8.258  0.1278  0.3166 -0.3791
46295SOL    HW250610   2.629   4.882   8.280 -0.3844  0.0972  0.3209
46296SOL     OW50611   9.112  10.749   8.080 -0.4099  0.4963  0.5268
46296SOL    HW150612   9.146  10.809   8.147 -0.5418 -0.1785  1.2075
46296SOL    HW250613   9.176  10.679   8.076 -0.5335  0.4072  0.1246
46297SOL     OW50614  11.940   5.408   3.808 -0.6093  0.8227 -0.6213
46297SOL    HW150615  11.919   5.471   3.739  1.0685  2.2227  0.0827
46297SOL    HW250616  12.024   5.371   3.783 -0.6442  0.3153 -0.0173
46298SOL     OW50617  10.208  11.227   3.876 -0.0391 -0.1019 -0.3372
46298SOL    HW150618  10.144  11.288   3.840  0.2727  0.0968 -0.5632
46298SOL    HW250619  10.243  11.272   3.953  0.0987 -0.0474 -0.4306
46299SOL     OW50620   3.272   9.964  10.719  0.1541  0.4913  0.1937
46299SOL    HW150621   3.226   9.911  10.784 -0.5733  1.3245  0.3877
46299SOL    HW250622   3.240   9.932  10.634 -1.7835  1.8278  0.3323
46300SOL     OW50623   7.580   0.246   1.730  0.1534 -0.7826  0.1477
46300SOL    HW150624   7.655   0.187   1.727  0.7012 -0.0969  0.0392
46300SOL    HW250625   7.561   0.265   1.637  3.1220  3.0485  0.0381
46301SOL     OW50626   3.382   3.218   2.819  0.1991 -0.6902  0.2254
46301SOL    HW150627   3.437   3.147   2.785  0.8135 -0.1992  0.1709
46301SOL    HW250628   3.388   3.210   2.914  1.4015  0.1162  0.2444
46302SOL     OW50629   3.467  10.927  10.440 -0.3748 -0.2852  0.3710
46302SOL    HW150630   3.495  10.940  10.350 -1.6260  0.5801  0.0788
46302SOL    HW250631   3.531  10.866  10.476  1.2955  0.8511 -0.5085
46303SOL     OW50632   0.917  11.507   3.500  0.5563 -0.1395 -0.3301
46303SOL    HW150633   1.005  11.517   3.536  0.2987 -0.7560  0.5195
46303SOL    HW250634   0.905  11.412   3.493  0.0357 -0.0555 -0.6270
46304SOL     OW50635   8.278   8.268   9.637 -0.0197  0.2218 -0.9807
46304SOL    HW150636   8.318   8.183   9.616  0.8795  0.2699  0.4007
46304SOL    HW250637   8.347   8.332   9.619  0.3597  0.3654  0.8362
46305SOL     OW50638   9.610  10.288   8.780  0.0167  0.2935 -0.1668
46305SOL    HW150639   9.522  10.302   8.816 -0.0079  0.3062 -0.2327
46305SOL    HW250640   9.648  10.221   8.837 -0.3093 -0.2646 -0.5938
46306SOL     OW50641   0.064   1.696   5.042  0.4083 -0.5012 -0.2650
46306SOL    HW150642   0.145   1.721   4.998 -0.4390 -1.5813 -2.5574
46306SOL    HW250643   0.060   1.601   5.033 -0.7718 -0.5367  0.4668
46307SOL     OW50644   9.483  10.999   4.887 -0.0483 -0.0547 -0.1265
46307SOL    HW150645   9.393  11.006   4.855  0.1731  2.5555 -0.3374
46307SOL    HW250646   9.532  11.062   4.835  2.0102 -1.6695 -0.2349
46308SOL     OW50647   7.725   7.187   1.841 -0.3133 -0.1793  0.4702
46308SOL    HW150648   7.630   7.199   1.834 -0.2427  0.3810  0.4477
46308SOL    HW250649   7.740   7.097   1.811 -0.8008 -0.1666  0.1744
46309SOL     OW50650  10.170  11.228   5.246  0.5155  0.2685  0.2277
46309SOL    HW150651  10.251  11.185   5.218  0.6088 -1.5945  3.0113
46309SOL    HW250652  10.175  11.315   5.206  3.8630  0.2108  0.2110
46310SOL     OW50653   6.571   5.288   8.848 -0.3637  0.2941 -0.6505
46310SOL    HW150654   6.583   5.200   8.882 -0.9953  1.6985  4.0502
46310SOL    HW250655   6.651   5.335   8.874 -1.3990  1.8058 -0.0522
46311SOL     OW50656   2.065   6.423   9.903 -0.3997 -0.1647  0.0681
46311SOL    HW150657   2.070   6.386   9.815  0.1412  1.1309 -0.4665
46311SOL    HW250658   1.984   6.474   9.902 -0.2554  0.0661  0.2365
46312SOL     OW50659   1.896   6.924  11.432  0.1519  0.2072 -0.0856
46312SOL    HW150660   1.893   7.005  11.484  2.2514  0.5634 -0.4274
46312SOL    HW250661   1.988   6.896  11.437  0.1197 -0.5199 -2.4100
46313SOL     OW50662   7.520   2.059   3.290 -0.1030  0.0201 -0.3255
46313SOL    HW150663   7.484   2.053   3.202 -0.6701 -0.5417 -0.0562
46313SOL    HW250664   7.525   2.153   3.307 -0.0937  0.1314 -0.9076
46314SOL     OW50665   5.918   8.211   0.324 -0.4681  0.2572 -0.0642
46314SOL    HW150666   5.983   8.151   0.289 -0.1876  1.0544 -0.9271
46314SOL    HW250667   5.842   8.155   0.344 -0.5842 -0.2463 -1.7869
46315SOL     OW50668   6.596   1.134   9.139 -0.2547  0.5026 -0.4883
46315SOL    HW150669   6.508   1.102   9.158  0.6587 -1.5897  0.5770
46315SOL    HW250670   6.613   1.108   9.048 -0.7469  0.9594 -0.7121
46316SOL     OW50671   9.853   7.143   1.580  0.4632  0.6712  0.0076
46316SOL    HW150672   9.920   7.203   1.548 -0.8702  2.3138  0.1635
46316SOL    HW250673   9.832   7.089   1.504 -0.0020  2.0228 -0.8736
46317SOL     OW50674   4.763   7.129   6.039  0.6383 -0.7096  0.2213
46317SOL    HW150675   4.841   7.184   6.052  1.6279 -2.0725  0.2515
46317SOL    HW250676   4.773   7.094   5.951 -0.4508 -0.1580 -0.1352
46318SOL     OW50677   7.195   3.625   7.079  0.4019  0.1618 -0.6221
46318SOL    HW150678   7.214   3.700   7.023 -1.3490  0.1984 -1.2373
46318SOL    HW250679   7.145   3.565   7.023 -0.6027 -0.2188  0.6183
46319SOL     OW50680   1.373   6.802   8.846  0.0468 -0.4305  0.0714
46319SOL    HW150681   1.278   6.807   8.854  0.0486  0.0464 -0.1362
46319SOL    HW250682   1.406   6.864   8.912  0.1775  0.2674 -0.6316
46320SOL     OW50683   5.735   7.168   6.827 -0.0207  0.1287  0.0105
46320SOL    HW150684   5.668   7.198   6.888  1.1798 -0.1995  1.5587
46320SOL    HW250685   5.790   7.244   6.813  1.3064 -0.4770  1.5941
46321SOL     OW50686  10.805   1.890   9.113  0.3102 -0.1207  0.3112
46321SOL    HW150687  10.846   1.910   9.197 -0.7572 -0.5202  0.9496
46321SOL    HW250688  10.748   1.965   9.096  3.7937  2.2370 -2.3420
46322SOL     OW50689   3.723   4.334   3.344 -0.0256  0.3519  0.1437
46322SOL    HW150690   3.735   4.427   3.323 -1.8412  0.3616 -1.0429
46322SOL    HW250691   3.629   4.323   3.350  0.1032 -1.6046 -0.6907
46323SOL     OW50692  10.432   0.832   3.580  0.2320 -0.3268 -0.5144
46323SOL    HW150693  10.417   0.925   3.600  2.2889  0.1148 -0.7892
46323SOL    HW250694  10.361   0.809   3.520 -0.7754  0.8337  0.1799
46324SOL     OW50695   2.157   1.227   1.076 -0.1159  0.6267  0.3928
46324SOL    HW150696   2.162   1.264   0.988 -0.1411  1.2519  0.6420
46324SOL    HW250697   2.063   1.215   1.092 -0.1125  0.5327  0.3395
46325SOL     OW50698  11.198   0.351   1.821 -0.1580  0.4984  0.7095
46325SOL    HW150699  11.204   0.440   1.788  0.2398  0.3666  0.4132
46325SOL    HW250700  11.280   0.310   1.794  1.0671  0.9111  3.5153
46326SOL     OW50701   9.798   0.017   6.404  0.0008  0.2673 -0.2675
46326SOL    HW150702   9.849   0.008   6.324  1.7203 -1.5351  0.9368
46326SOL    HW250703   9.732  -0.052   6.398 -0.1001  0.3649 -0.2817
46327SOL     OW50704   7.578   2.245   2.558 -0.4590 -0.3953 -0.4602
46327SOL    HW150705   7.643   2.207   2.617  0.7384  0.8236 -0.9596
46327SOL    HW250706   7.500   2.191   2.571  0.7699 -2.1832 -0.1739
46328SOL     OW50707   0.110   0.470   8.422 -0.2604  0.1748 -0.1051
46328SOL    HW150708   0.031   0.417   8.430 -0.7824  0.4857 -2.5650
46328SOL    HW250709   0.079   0.556   8.396  0.8457  0.5666 -0.1856
46329SOL     OW50710   6.229   0.283   3.695  0.0076 -0.1735 -0.0719
46329SOL    HW150711   6.151   0.250   3.651 -1.4780  0.0893  2.1983
46329SOL    HW250712   6.225   0.378   3.683  1.2274 -0.3003 -1.8120
46330SOL     OW50713   9.754   6.203   4.512 -0.7677 -0.0394  0.3735
46330SOL    HW150714   9.718   6.222   4.425  0.4614 -0.6354 -0.3027
46330SOL    HW250715   9.779   6.288   4.547  1.0252  0.0411 -0.9411
46331SOL     OW50716   3.299   7.396   9.640 -0.3098  0.4000 -0.4288
46331SOL    HW150717   3.291   7.423   9.732 -2.5931 -1.4664  0.0411
46331SOL    HW250718   3.390   7.412   9.618  0.4819  0.3245  2.3724
46332SOL     OW50719   1.385   2.209   0.355  0.2687 -0.2628 -0.2568
46332SOL    HW150720   1.390   2.165   0.440  2.2440  1.0653  0.3768
46332SOL    HW250721   1.320   2.158   0.306 -0.1570 -1.6919  1.6593
46333SOL     OW50722   8.332   4.396   4.839  0.3413 -0.3209  0.0782
46333SOL    HW150723   8.395   4.465   4.818  0.4649 -0.9112 -1.6633
46333SOL    HW250724   8.249   4.426   4.801  0.6260 -1.5331 -1.6146
46334SOL     OW50725   4.653   0.055   0.129 -0.1267 -0.4655 -0.0926
46334SOL    HW150726   4.715   0.045   0.056 -1.0987 -1.2499 -0.8417
46334SOL    HW250727   4.602   0.132   0.106  0.5980  0.2219  0.5593
46335SOL     OW50728   9.077   1.402   0.145 -0.1804 -0.5948  0.1784
46335SOL    HW150729   8.984   1.414   0.166 -0.2844 -0.3536 -0.3913
46335SOL    HW250730   9.110   1.345   0.214 -0.9841 -1.4800 -0.1452
46336SOL     OW50731   3.916   8.840   3.212  0.1751 -0.3864 -0.3824
46336SOL    HW150732   3.969   8.798   3.280 -0.8707 -1.6427 -0.3152
46336SOL    HW250733   3.943   8.798   3.131 -1.8342 -2.2912 -0.1609
46337SOL     OW50734   9.979   7.596  11.600  0.1121 -0.3533 -0.1688
46337SOL    HW150735  10.035   7.528  11.563 -0.2299 -1.6408  1.5420
46337SOL    HW250736   9.919   7.549  11.658 -1.0662  1.2705  0.0196
46338SOL     OW50737   9.383   4.039   1.245 -0.1876  0.0097 -0.5416
46338SOL    HW150738   9.347   3.994   1.321 -0.3245 -0.4447 -0.8709
46338SOL    HW250739   9.360   3.983   1.171  2.9600 -1.4767 -0.5923
46339SOL     OW50740   9.275  11.146   8.039  0.7172 -0.6990  0.0606
46339SOL    HW150741   9.306  11.126   8.128  1.6955  1.2442  0.2180
46339SOL    HW250742   9.205  11.210   8.052  0.6746 -0.6120 -0.5568
46340SOL     OW50743   1.648   3.841  10.926 -0.1427 -0.5058  0.1351
46340SOL    HW150744   1.660   3.761  10.875  0.5281 -0.2069 -0.1863
46340SOL    HW250745   1.646   3.911  10.861  1.2761 -0.0582  0.5311
46341SOL     OW50746   8.105   2.443   9.116  0.7670 -0.2478 -0.1120
46341SOL    HW150747   8.038   2.413   9.054  1.0042  0.0228 -0.5098
46341SOL    HW250748   8.088   2.537   9.127  2.1666  0.2395 -1.6511
46342SOL     OW50749   9.884  10.587   4.480  0.0343  0.3467 -0.1226
46342SOL    HW150750   9.812  10.617   4.535  0.6109  0.5937  0.5089
46342SOL    HW250751   9.930  10.522   4.533  0.8602  0.9137 -0.1187
46343SOL     OW50752   5.878   3.543   5.972  0.0569  0.0378 -0.0342
46343SOL    HW150753   5.789   3.532   5.938  0.1983  0.5129 -0.5573
46343SOL    HW250754   5.880   3.486   6.049 -0.3180 -0.9201 -0.7066
46344SOL     OW50755   4.052   3.579   9.437  0.3726  0.4611  0.9031
46344SOL    HW150756   4.108   3.532   9.498  1.3212 -0.9236 -0.9306
46344SOL    HW250757   3.988   3.624   9.493 -0.0612 -2.2861  2.8425
46345SOL     OW50758   7.883   9.986  10.426  0.1355  0.6725  0.5507
46345SOL    HW150759   7.913  10.064  10.472  0.3869  0.2433  1.1232
46345SOL    HW250760   7.793  10.006  10.401 -0.1938  0.7079  1.7046
46346SOL     OW50761   8.568   2.257   0.752 -0.2134  0.6506 -0.6446
46346SOL    HW150762   8.588   2.197   0.680 -1.6820  2.6601 -2.8874
46346SOL    HW250763   8.474   2.248   0.766 -0.4132  2.1600 -0.8156
46347SOL     OW50764   2.603   8.269   5.032  0.7469 -0.0958 -0.6103
46347SOL    HW150765   2.598   8.189   4.980 -0.0711  0.1095 -0.8621
46347SOL    HW250766   2.696   8.292   5.032  0.6028  0.8307 -3.4196
46348SOL     OW50767   7.223   4.442  11.266 -0.1945  0.1399 -0.0417
46348SOL    HW150768   7.140   4.431  11.219 -0.4742 -0.5734  0.5988
46348SOL    HW250769   7.236   4.537  11.268 -1.4626  0.3298  0.6224
46349SOL     OW50770   5.079  11.711   8.559 -0.0740 -0.1474 -0.1816
46349SOL    HW150771   4.986  11.695   8.575  0.2076 -1.5491  0.2491
46349SOL    HW250772   5.120  11.698   8.645  0.6034 -0.2945 -0.5274
46350SOL     OW50773   8.795   6.899   9.754 -0.3292 -0.2660  0.2027
46350SOL    HW150774   8.706   6.931   9.738 -0.0450  0.7195  0.5227
46350SOL    HW250775   8.782   6.816   9.800 -1.0849 -0.2711 -0.0042
46351SOL     OW50776   4.601   2.739   1.295  0.2455 -0.6680  0.1631
46351SOL    HW150777   4.680   2.792   1.292  0.4532 -0.9945 -0.9656
46351SOL    HW250778   4.612   2.676   1.223 -2.8472  1.9219 -2.9866
46352SOL     OW50779   5.858   7.575   1.452 -0.4075  0.3271  0.2975
46352SOL    HW150780   5.938   7.565   1.502 -0.3030  2.9987  0.8041
46352SOL    HW250781   5.814   7.650   1.492 -2.3864 -0.0623 -0.9967
46353SOL     OW50782   4.708   1.955  10.190  0.0691  0.1143 -0.0598
46353SOL    HW150783   4.756   1.935  10.109  0.7117  0.9824  0.0994
46353SOL    HW250784   4.722   2.048  10.204  1.1269 -0.2820  1.8045
46354SOL     OW50785  10.137   1.399   1.738  0.1931  0.0881  0.1348
46354SOL    HW150786  10.085   1.366   1.810 -0.7929  0.9476 -0.1544
46354SOL    HW250787  10.165   1.487   1.766  4.1884 -1.4203  1.6205
46355SOL     OW50788   2.388   8.177   2.468  0.8391  0.3447  0.1008
46355SOL    HW150789   2.307   8.136   2.497  0.7885 -0.6124 -1.2722
46355SOL    HW250790   2.440   8.187   2.547 -0.8048  1.4462  1.0919
46356SOL     OW50791   4.972   0.763   4.723  0.3087  0.4754 -0.4114
46356SOL    HW150792   4.913   0.808   4.663 -0.5508  1.5937  1.1848
46356SOL    HW250793   4.966   0.813   4.805  1.5936 -0.8437  0.5515
46357SOL     OW50794   2.363  10.620   0.399  0.1969  0.3976 -0.4730
46357SOL    HW150795   2.302  10.554   0.365 -0.0303  0.3936 -0.0710
46357SOL    HW250796   2.307  10.692   0.426  0.0935 -0.5744  2.1848
46358SOL     OW50797   2.212  11.781   2.615 -0.3912  0.0780 -0.2628
46358SOL    HW150798   2.213  11.703   2.559  1.0727  0.1280 -0.3349
46358SOL    HW250799   2.301  11.788   2.649 -1.5210 -0.8348  3.3559
46359SOL     OW50800   2.595   8.236  11.817 -0.0281  0.3305 -0.2615
46359SOL    HW150801   2.666   8.292  11.786  0.3429  1.6215  2.5727
46359SOL    HW250802   2.637   8.172  11.874 -0.7774 -1.1823 -1.3456
46360SOL     OW50803   8.035  10.706   0.750  0.2658  0.3009  0.2261
46360SOL    HW150804   8.129  10.720   0.766 -0.0476  0.9025  1.7373
46360SOL    HW250805   8.020  10.614   0.772  0.5287  0.1613 -0.1738
46361SOL     OW50806   2.286   5.247   4.485 -0.2017  0.3052 -0.7078
46361SOL    HW150807   2.316   5.266   4.396 -0.4966 -0.9260 -1.0886
46361SOL    HW250808   2.300   5.153   4.496  2.8060  0.8744  1.6931
46362SOL     OW50809   4.594   0.605  10.741 -0.7972 -0.1877 -0.0705
46362SOL    HW150810   4.617   0.516  10.768 -0.3904 -0.3981 -1.0882
46362SOL    HW250811   4.614   0.659  10.818 -0.5204 -0.8943  0.3613
46363SOL     OW50812   4.674   4.368  10.327 -1.0212  0.0531 -0.1618
46363SOL    HW150813   4.738   4.366  10.398  1.2816  1.0134 -2.0424
46363SOL    HW250814   4.698   4.294  10.271 -0.1689  1.5231 -1.8924
46364SOL     OW50815   4.971   1.024   0.476  0.0273  0.1391  0.0409
46364SOL    HW150816   4.963   0.930   0.492 -1.0081  0.1402 -0.3612
46364SOL    HW250817   5.026   1.031   0.398 -0.5534 -0.1767 -0.4007
46365SOL     OW50818   1.868   3.020   9.130  0.2914 -0.0515 -0.5022
46365SOL    HW150819   1.872   3.018   9.226  0.0737 -0.4082 -0.5001
46365SOL    HW250820   1.957   2.997   9.102 -0.1410 -2.0308 -0.4015
46366SOL     OW50821  10.914  10.000   9.666 -0.6609 -0.1811  0.1240
46366SOL    HW150822  10.836   9.947   9.677 -0.8278 -0.0501 -0.3970
46366SOL    HW250823  10.922  10.049   9.748 -1.2637 -0.0172  0.0881
46367SOL     OW50824   7.155   2.016   6.683 -0.1922 -0.2054  0.4845
46367SOL    HW150825   7.249   2.010   6.705 -0.2525  0.3854  0.9503
46367SOL    HW250826   7.115   1.944   6.732  0.1833 -1.3058 -0.7785
46368SOL     OW50827   4.408   2.460   1.733 -0.1317 -0.0756 -0.9103
46368SOL    HW150828   4.466   2.420   1.668  0.7211  0.2664 -0.3784
46368SOL    HW250829   4.437   2.551   1.738 -1.5870  0.4674 -1.5901
46369SOL     OW50830   9.064  11.007  11.088 -0.0511  0.0889 -0.2341
46369SOL    HW150831   9.021  11.088  11.117  0.2834  0.3639 -0.4964
46369SOL    HW250832   9.026  10.939  11.143  0.1661  0.5242  0.4775
46370SOL     OW50833   5.838  11.489   1.482  0.1539  0.1462 -0.6000
46370SOL    HW150834   5.780  11.415   1.500  0.2388  0.4822  1.2765
46370SOL    HW250835   5.888  11.500   1.562 -0.9306  3.1624 -0.2081
46371SOL     OW50836  11.747   5.891   6.886  0.1401  0.2690  0.7042
46371SOL    HW150837  11.709   5.930   6.965  0.9429  0.8096  0.8421
46371SOL    HW250838  11.829   5.851   6.917 -0.8134 -1.8615  0.6287
46372SOL     OW50839   7.157   3.394   5.580 -0.4251  0.0080 -0.7034
46372SOL    HW150840   7.124   3.309   5.611 -0.7965  0.1458 -0.7192
46372SOL    HW250841   7.251   3.380   5.568 -0.1611  0.0975  1.0141
46373SOL     OW50842   1.381   9.974   8.766  0.5810 -0.0221 -0.4524
46373SOL    HW150843   1.316  10.013   8.824  0.2625 -0.3713 -0.5637
46373SOL    HW250844   1.370   9.880   8.779  1.6851 -0.0743  0.1952
46374SOL     OW50845   5.390   6.273  11.080  0.2492 -0.2331 -0.2803
46374SOL    HW150846   5.447   6.301  11.008 -0.5068  1.4668 -0.2878
46374SOL    HW250847   5.377   6.353  11.132 -1.4891 -0.7397  0.1253
46375SOL     OW50848   9.389   9.378  11.955 -0.0520 -0.3530 -0.0403
46375SOL    HW150849   9.362   9.378  12.047  1.6021 -0.9208  0.4789
46375SOL    HW250850   9.351   9.458  11.919 -3.1668 -1.5035  0.3425
46376SOL     OW50851   0.331   0.044   7.410 -0.0942  0.1139 -0.2766
46376SOL    HW150852   0.333  -0.052   7.410 -1.4331  0.0730 -1.0019
46376SOL    HW250853   0.241   0.067   7.390  0.2466  1.5457 -0.3008
46377SOL     OW50854  10.307   2.187   9.929 -0.1786  0.4738 -0.3537
46377SOL    HW150855  10.217   2.185   9.896 -0.3059 -2.5678 -0.1716
46377SOL    HW250856  10.298   2.202  10.023 -0.3689  1.5976 -0.5414
46378SOL     OW50857   5.555  11.659   3.035  0.1661 -0.6061 -0.1711
46378SOL    HW150858   5.533  11.582   3.087 -2.4197  0.4639  0.4752
46378SOL    HW250859   5.650  11.666   3.040  0.3552 -3.0841  0.6767
46379SOL     OW50860  11.686   4.970   7.733  0.4028  0.1699 -0.2750
46379SOL    HW150861  11.669   5.060   7.761  1.6100  0.0140  1.0771
46379SOL    HW250862  11.750   4.979   7.663 -1.2881  0.4639 -1.8483
46380SOL     OW50863   8.657   8.435   0.060  0.1317 -0.0039 -0.6865
46380SOL    HW150864   8.748   8.421   0.086  0.2601  0.5941 -0.8184
46380SOL    HW250865   8.661   8.457  -0.033 -0.1378  0.1298 -0.6695
46381SOL     OW50866   1.193   1.881   0.142 -0.3793  0.2766 -0.3776
46381SOL    HW150867   1.107   1.839   0.136 -0.8127  0.5462  2.6518
46381SOL    HW250868   1.223   1.863   0.231  3.0893 -0.4349 -1.5310
46382SOL     OW50869  10.569   1.004   3.066 -0.0036  0.6597 -0.3403
46382SOL    HW150870  10.496   1.045   3.112 -2.2708 -1.7349 -1.5366
46382SOL    HW250871  10.571   1.047   2.981 -2.4039 -1.4796 -1.6101
46383SOL     OW50872   7.355   8.849  10.294  0.2714 -0.1455  0.2355
46383SOL    HW150873   7.273   8.862  10.247  0.5667  1.4505  0.1214
46383SOL    HW250874   7.421   8.893  10.241  1.1538 -1.0202  0.5566
46384SOL     OW50875   8.688   2.238  10.439  0.0896 -0.1687  0.2809
46384SOL    HW150876   8.651   2.150  10.433  0.0191 -0.2611  1.7453
46384SOL    HW250877   8.641   2.289  10.373  1.5479 -1.6666 -2.0780
46385SOL     OW50878   4.584  11.531  11.799 -0.4962  0.0545  0.4092
46385SOL    HW150879   4.532  11.588  11.743 -0.9309  1.8238  2.4759
46385SOL    HW250880   4.520  11.486  11.853 -0.0161 -0.1866  0.7790
46386SOL     OW50881   8.696   1.422   8.172  0.3272 -0.0443  0.4820
46386SOL    HW150882   8.671   1.512   8.151 -1.5683 -0.5355  0.4254
46386SOL    HW250883   8.739   1.390   8.092  2.6145  1.3027  1.0948
46387SOL     OW50884   2.021   7.389   0.972 -0.2711  0.0412 -0.0194
46387SOL    HW150885   2.019   7.293   0.967  0.2629 -0.0974  1.7576
46387SOL    HW250886   1.933   7.413   0.998 -0.3343  0.0166 -0.2083
46388SOL     OW50887   4.815   9.647   5.084  0.2109 -0.4128  0.2740
46388SOL    HW150888   4.813   9.738   5.112 -0.5680 -0.1330 -0.6460
46388SOL    HW250889   4.783   9.598   5.160 -0.5253  0.1990  0.3654
46389SOL     OW50890   5.009   7.939   7.711 -0.1999 -0.4486 -0.4730
46389SOL    HW150891   4.920   7.973   7.719 -1.2979 -3.2262  0.2293
46389SOL    HW250892   5.046   7.948   7.799  0.4775  1.2335 -0.8957
46390SOL     OW50893   5.424   4.718   7.717 -0.0235  0.2160  0.3575
46390SOL    HW150894   5.475   4.678   7.788 -0.1215  0.5831  0.6370
46390SOL    HW250895   5.429   4.655   7.645  0.8287  0.2578  0.3814
46391SOL     OW50896   8.096   8.937   5.508  0.0915  0.3854  0.2905
46391SOL    HW150897   8.022   8.997   5.499  0.5463  0.7332 -1.3833
46391SOL    HW250898   8.098   8.888   5.426  0.6453 -0.8864  1.0332
46392SOL     OW50899   5.710   3.594  10.756  0.0102 -0.6562  0.3085
46392SOL    HW150900   5.661   3.643  10.822 -0.2371  1.0946 -1.0801
46392SOL    HW250901   5.778   3.548  10.806  0.6061  1.5562  1.7081
46393SOL     OW50902  10.001   4.973   1.775  0.3261  0.1687  0.1269
46393SOL    HW150903  10.088   4.999   1.806 -0.0478  1.2239  0.3286
46393SOL    HW250904   9.945   4.978   1.852  0.0547 -0.3593 -0.0319
46394SOL     OW50905   9.427  11.051   9.496 -0.0499 -0.3602  0.2429
46394SOL    HW150906   9.440  11.045   9.591 -0.1292 -2.4281  0.1659
46394SOL    HW250907   9.332  11.060   9.485  0.1225  2.8303  0.3890
46395SOL     OW50908   1.218   1.195   6.033 -0.0062 -0.2476 -0.0451
46395SOL    HW150909   1.131   1.229   6.010 -0.3338 -0.5058  0.8016
46395SOL    HW250910   1.202   1.135   6.105  0.7316 -1.2357 -0.6770
46396SOL     OW50911   2.594   3.426   9.481  0.2639 -0.1923  0.5774
46396SOL    HW150912   2.536   3.489   9.522 -0.0166  0.3485 -0.6014
46396SOL    HW250913   2.535   3.365   9.436  0.5690 -0.6292  0.7583
46397SOL     OW50914   0.457   5.544   6.441  0.5559 -0.1368 -0.0821
46397SOL    HW150915   0.402   5.537   6.363 -0.5812 -1.0525  0.7582
46397SOL    HW250916   0.460   5.637   6.461 -0.2098 -0.0171 -0.5002
46398SOL     OW50917  11.471   8.646   6.649  0.2116  0.4564 -0.5150
46398SOL    HW150918  11.394   8.590   6.658  1.1029 -0.8925 -0.8742
46398SOL    HW250919  11.436   8.734   6.634 -1.2460 -0.1139 -0.5974
46399SOL     OW50920   4.996   2.375  10.631  0.7270  0.2478 -0.3796
46399SOL    HW150921   5.024   2.462  10.603  1.5588  0.5238  1.1868
46399SOL    HW250922   4.905   2.387  10.660  1.0765  0.7836  0.5423
46400SOL     OW50923   9.921   6.491   1.555  0.0859 -0.4790 -0.3524
46400SOL    HW150924   9.978   6.462   1.483  1.0823 -1.2290  0.7015
46400SOL    HW250925   9.853   6.543   1.512  1.1602 -0.1448 -1.7466
46401SOL     OW50926   5.312  11.767   0.346  0.1413 -0.0753  0.1911
46401SOL    HW150927   5.399  11.737   0.319  0.0344 -1.8703  1.6098
46401SOL    HW250928   5.320  11.861   0.355  2.1292 -0.2611  0.8506
46402SOL     OW50929   2.229   3.230   1.739  0.0782 -0.6448  0.6408
46402SOL    HW150930   2.187   3.196   1.818  0.3784 -0.4595  0.8858
46402SOL    HW250931   2.159   3.237   1.675 -0.3559  0.0633  1.1746
46403SOL     OW50932  11.125   0.775   2.673 -0.1144 -0.0455  0.3578
46403SOL    HW150933  11.124   0.703   2.611  1.0686 -0.7300  1.0805
46403SOL    HW250934  11.033   0.794   2.690 -0.4858 -2.0946  0.9334
46404SOL     OW50935   7.734   5.513   4.584  0.1810 -0.1030 -0.1766
46404SOL    HW150936   7.730   5.572   4.660  1.2144  2.1910 -1.7687
46404SOL    HW250937   7.646   5.518   4.546 -0.6252 -1.9809  1.2752
46405SOL     OW50938   8.190   0.109   2.637  0.3543 -0.1144  0.0971
46405SOL    HW150939   8.247   0.077   2.568 -0.1228 -0.2151 -0.2508
46405SOL    HW250940   8.236   0.185   2.673  0.8700 -0.4064  0.0526
46406SOL     OW50941   3.755   0.518   4.077  0.4646 -0.1196  0.7532
46406SOL    HW150942   3.664   0.545   4.092  0.3365 -0.5787  0.8478
46406SOL    HW250943   3.779   0.558   3.993  0.3539  0.4383  0.9897
46407SOL     OW50944   1.507  11.102  10.513 -0.2285  0.6096  0.5547
46407SOL    HW150945   1.547  11.109  10.599 -0.2602 -3.5643  1.1100
46407SOL    HW250946   1.566  11.046  10.463 -1.7099  0.4521 -1.1124
46408SOL     OW50947   7.524   6.677   6.879  0.2354  0.1114  0.2234
46408SOL    HW150948   7.525   6.594   6.928 -0.7347  1.7955  3.3862
46408SOL    HW250949   7.600   6.725   6.913  0.2863  0.8918 -0.9403
46409SOL     OW50950  10.164  11.267   7.013  0.3670  0.1524 -0.1237
46409SOL    HW150951  10.242  11.258   6.958  1.2184 -1.6060  1.2445
46409SOL    HW250952  10.198  11.261   7.103 -1.2134  0.7031  0.5412
46410SOL     OW50953   2.749   7.898   7.668 -0.2756 -0.9490  0.3015
46410SOL    HW150954   2.697   7.873   7.744 -2.5305 -1.2512 -1.2439
46410SOL    HW250955   2.717   7.985   7.644  0.1659 -0.9956 -0.5054
46411SOL     OW50956  11.947  10.474   3.834  0.1709 -0.0244  0.0612
46411SOL    HW150957  12.029  10.525   3.828  0.5776 -0.8338 -3.9120
46411SOL    HW250958  11.887  10.519   3.776  0.0363 -3.0214 -2.3626
46412SOL     OW50959   3.719   2.287   3.317  0.3459  0.4928  0.0159
46412SOL    HW150960   3.648   2.233   3.352 -1.2452  0.9741 -2.2104
46412SOL    HW250961   3.674   2.362   3.279  2.4077  2.9300  2.0508
46413SOL     OW50962   3.104  10.206   3.427  0.3191 -0.3413 -0.1158
46413SOL    HW150963   3.100  10.252   3.343 -1.3304 -2.4000 -1.2538
46413SOL    HW250964   3.197  10.202   3.448  0.6625  1.5169 -1.0496
46414SOL     OW50965   5.994   2.064   9.313 -0.0526  0.1734 -0.0344
46414SOL    HW150966   6.025   2.090   9.400 -0.0308 -1.5650  0.5147
46414SOL    HW250967   5.963   1.974   9.324 -0.7671  0.1832 -1.6617
46415SOL     OW50968   1.716   3.564   5.258  0.1421  0.1717  0.3318
46415SOL    HW150969   1.766   3.527   5.331  1.2760 -0.2973 -0.6528
46415SOL    HW250970   1.627   3.575   5.293  0.3118 -1.3472  1.3678
46416SOL     OW50971  11.608   5.676  11.651  0.0566  0.2928 -0.0306
46416SOL    HW150972  11.619   5.654  11.559  0.0134  1.8470 -0.4341
46416SOL    HW250973  11.640   5.766  11.658 -2.1303  1.0531  0.9718
46417SOL     OW50974   7.959  10.693   3.971  0.5455  0.7919  0.3291
46417SOL    HW150975   7.999  10.651   3.895 -0.5696 -1.1790  0.7441
46417SOL    HW250976   8.032  10.731   4.019  2.1258 -2.8971  1.2371
46418SOL     OW50977   7.301   2.697   5.270  0.0747  0.5904 -0.2846
46418SOL    HW150978   7.340   2.740   5.346 -1.4061  0.6326  0.5001
46418SOL    HW250979   7.371   2.643   5.233  0.1806 -1.5882  2.7211
46419SOL     OW50980   3.077   2.052   1.268 -0.7943  0.2360 -0.3402
46419SOL    HW150981   3.106   2.137   1.303 -1.2497 -0.2745  1.4083
46419SOL    HW250982   3.059   2.069   1.176  2.7464  1.1316 -1.0421
46420SOL     OW50983   9.638  10.255   3.878  0.3182  0.3085 -0.0606
46420SOL    HW150984   9.572  10.256   3.808 -0.2291 -0.5212  0.4238
46420SOL    HW250985   9.721  10.263   3.832  0.0290 -1.2101 -0.9262
46421SOL     OW50986   7.448   1.371   9.644 -0.1139  0.0269  0.0245
46421SOL    HW150987   7.529   1.397   9.601  1.6107  0.7917  3.3340
46421SOL    HW250988   7.477   1.339   9.730 -3.3219  0.4561  1.3901
46422SOL     OW50989   7.928   0.432   7.163  0.4689  0.1031 -0.2571
46422SOL    HW150990   7.921   0.514   7.212 -1.0379 -0.5358  0.6508
46422SOL    HW250991   7.892   0.366   7.221  2.5299 -1.4238 -0.5829
46423SOL     OW50992   5.372   2.904   5.232 -0.2735 -0.1183 -0.2701
46423SOL    HW150993   5.333   2.817   5.237  2.1473 -1.3802 -1.4490
46423SOL    HW250994   5.342   2.939   5.148 -1.1443  0.1440  0.1457
46424SOL     OW50995   4.270   1.147   3.699 -0.5221  0.2327  0.1374
46424SOL    HW150996   4.200   1.082   3.710 -0.4842  0.1841  0.0899
46424SOL    HW250997   4.236   1.208   3.634 -0.4129  0.0600 -0.0813
46425SOL     OW50998   3.148   1.435   1.792 -0.3467  0.0814 -0.4795
46425SOL    HW150999   3.113   1.505   1.847 -0.3597  0.3468 -0.8198
46425SOL    HW251000   3.095   1.439   1.712 -0.4351 -0.4073 -0.4429
46426SOL     OW51001   6.054   8.905   5.975  0.1882 -0.1469  0.1942
46426SOL    HW151002   6.032   8.998   5.977  2.1300  0.3871 -0.2046
46426SOL    HW251003   6.082   8.885   6.064 -0.0722 -0.2903  0.2416
46427SOL     OW51004   8.004   3.573   1.996  0.1661 -0.4177  0.3586
46427SOL    HW151005   8.073   3.637   1.981 -0.6306  0.2171 -0.7623
46427SOL    HW251006   7.960   3.602   2.076 -0.7031  0.9399 -0.5749
46428SOL     OW51007  10.932   4.587   7.976 -0.5018 -0.4009  0.5774
46428SOL    HW151008  10.877   4.526   8.025 -1.0809 -1.2202 -1.0321
46428SOL    HW251009  10.880   4.611   7.899 -0.1161  1.8270  0.9319
46429SOL     OW51010   4.468   8.373  11.220 -0.1399  0.9262  0.0972
46429SOL    HW151011   4.496   8.282  11.231 -0.1803  1.0484  1.3270
46429SOL    HW251012   4.524   8.407  11.150  1.4783  0.6043  1.1834
46430SOL     OW51013   6.110   6.945   4.468 -0.3532 -0.0341 -0.0986
46430SOL    HW151014   6.173   6.925   4.537 -0.6271 -1.8757 -0.3145
46430SOL    HW251015   6.081   7.034   4.486 -0.0126 -0.2791  1.8556
46431SOL     OW51016  11.867   8.708   9.879 -0.4567  0.1837 -0.1113
46431SOL    HW151017  11.875   8.685   9.971 -1.0397 -2.5390 -0.6415
46431SOL    HW251018  11.876   8.803   9.877 -0.1528  0.3028  2.6962
46432SOL     OW51019   6.278   9.362   6.325  0.6421 -0.5182  0.1701
46432SOL    HW151020   6.300   9.420   6.398  0.7538 -1.4078  0.8584
46432SOL    HW251021   6.201   9.313   6.354 -0.0104 -0.0834 -0.7663
46433SOL     OW51022   5.052   4.973   0.041  0.2819  0.4674  0.2626
46433SOL    HW151023   5.026   5.057   0.080  0.1962  0.8185 -0.5351
46433SOL    HW251024   4.979   4.914   0.060 -0.8758  1.2801 -1.4207
46434SOL     OW51025   8.621   3.623   2.684 -0.0545 -0.2828 -0.1382
46434SOL    HW151026   8.593   3.561   2.751  1.3305 -3.2873 -2.0794
46434SOL    HW251027   8.551   3.620   2.619  0.1325 -0.0343 -0.3512
46435SOL     OW51028   0.985   7.780   9.116 -0.2634  0.2278  0.1217
46435SOL    HW151029   0.948   7.765   9.029  0.4407  0.2646 -0.1924
46435SOL    HW251030   0.918   7.749   9.176 -1.0731  0.8782 -0.4126
46436SOL     OW51031   5.275   9.230   7.825  0.1363  0.5722 -0.0588
46436SOL    HW151032   5.225   9.184   7.757  0.5245 -1.3631  0.8806
46436SOL    HW251033   5.209   9.273   7.879 -0.2279  1.3517 -1.0854
46437SOL     OW51034   7.437   2.601  11.849  0.0079  0.4386  0.1299
46437SOL    HW151035   7.447   2.643  11.763 -3.0364  0.0221 -0.5355
46437SOL    HW251036   7.507   2.536  11.852  0.6931  1.0220 -1.6804
46438SOL     OW51037   6.928   4.542   7.614  0.2825  0.2746 -0.0443
46438SOL    HW151038   6.962   4.497   7.692 -0.3638  2.1265  1.3812
46438SOL    HW251039   6.861   4.483   7.581  0.4789 -0.5071  0.8843
46439SOL     OW51040   2.634   1.568  11.610  0.2274 -0.3032  0.4782
46439SOL    HW151041   2.545   1.570  11.645  0.2903  0.4065  0.6196
46439SOL    HW251042   2.685   1.524  11.677 -0.0159 -0.6943  0.4068
46440SOL     OW51043   3.026   4.738   8.938 -0.2426 -0.1599 -0.1849
46440SOL    HW151044   3.030   4.688   9.020  2.1607 -1.4860 -1.0155
46440SOL    HW251045   3.117   4.753   8.914 -0.8565 -0.0984 -2.7898
46441SOL     OW51046   6.962   3.116  11.642  0.4076 -0.4744  0.8935
46441SOL    HW151047   6.905   3.041  11.656  1.7071 -1.2691  2.3274
46441SOL    HW251048   7.050   3.078  11.633  0.7320  0.6738 -1.4725
46442SOL     OW51049   2.244   4.411   9.627  0.6069 -0.3649  0.3433
46442SOL    HW151050   2.217   4.363   9.706 -1.1536  0.8186  0.5220
46442SOL    HW251051   2.168   4.406   9.570  0.7932  1.2461 -0.0833
46443SOL     OW51052   6.642   2.463   2.477  0.0755  0.3901 -0.2541
46443SOL    HW151053   6.558   2.421   2.495 -0.9570  2.4954  0.1932
46443SOL    HW251054   6.690   2.400   2.423 -1.6732 -0.9774 -0.2832
46444SOL     OW51055   1.970  11.411  11.910 -0.1182  0.4526  0.6064
46444SOL    HW151056   1.895  11.428  11.853  1.3019  4.7256 -0.4157
46444SOL    HW251057   1.964  11.480  11.977  1.8427 -0.3009  1.6214
46445SOL     OW51058  11.255   5.017   7.321 -0.3660  0.5071  0.1922
46445SOL    HW151059  11.272   4.925   7.344 -1.5591  0.3224  0.3930
46445SOL    HW251060  11.259   5.018   7.225  1.8969  0.7286  0.2383
46446SOL     OW51061  11.815   6.387   4.098  0.0300  0.4699 -0.3488
46446SOL    HW151062  11.723   6.386   4.125  0.4204 -0.5658  1.0644
46446SOL    HW251063  11.862   6.422   4.174  0.7720  1.4233 -1.2248
46447SOL     OW51064   8.072   7.094   3.226 -0.5042 -0.0783  0.1784
46447SOL    HW151065   8.125   7.124   3.300  1.0239 -0.0724 -0.8774
46447SOL    HW251066   8.030   7.173   3.192  1.0914  0.4138 -0.7156
46448SOL     OW51067  10.661   5.281   4.992  0.2071  0.1964  0.1523
46448SOL    HW151068  10.654   5.316   5.081  0.7974  0.7551 -0.0150
46448SOL    HW251069  10.688   5.356   4.939  0.8285 -0.3625 -0.3321
46449SOL     OW51070   6.892  10.492   7.242 -0.1899  0.2247  0.2211
46449SOL    HW151071   6.806  10.512   7.206 -0.2669  1.4725  1.0321
46449SOL    HW251072   6.881  10.501   7.337  0.4626 -1.1387  0.4546
46450SOL     OW51073   8.741  10.927   9.102 -0.1361  0.1781  0.4077
46450SOL    HW151074   8.800  10.908   9.176 -0.9763 -1.7690  0.6600
46450SOL    HW251075   8.655  10.941   9.143 -0.7705 -1.6817 -0.1720
46451SOL     OW51076   9.948   4.777   5.990  0.2168 -0.4064  0.1021
46451SOL    HW151077   9.952   4.709   5.923 -0.7364  1.0815 -1.5259
46451SOL    HW251078   9.856   4.804   5.993  0.5828  0.8649  0.6531
46452SOL     OW51079   0.387   2.312   2.207 -0.1317  0.4980 -0.5258
46452SOL    HW151080   0.340   2.229   2.221 -0.0941  0.6317  0.4597
46452SOL    HW251081   0.386   2.355   2.292  1.8975  0.4452 -0.4086
46453SOL     OW51082   1.299   9.898   4.408  0.5287  0.2779 -0.2283
46453SOL    HW151083   1.243   9.827   4.438  1.0130 -0.4810 -1.1062
46453SOL    HW251084   1.305   9.887   4.313  2.1182  0.3742 -0.1665
46454SOL     OW51085   1.111   1.031   8.958 -0.2827  0.1330  0.3395
46454SOL    HW151086   1.069   1.091   8.896 -0.9431  1.6476  2.1587
46454SOL    HW251087   1.204   1.037   8.937 -0.6791 -1.7994 -2.4885
46455SOL     OW51088   2.987   0.322   6.522 -0.2890  0.0448 -0.1578
46455SOL    HW151089   2.993   0.334   6.427 -1.0866 -1.1523 -0.3893
46455SOL    HW251090   2.972   0.228   6.533 -0.5347  0.2165  1.1412
46456SOL     OW51091   9.976   0.255   3.685  0.0593 -0.5498  0.7251
46456SOL    HW151092  10.045   0.317   3.664 -0.3974 -0.2282  0.1405
46456SOL    HW251093   9.895   0.304   3.669 -0.3008 -1.1248  0.7808
46457SOL     OW51094   7.510   3.101   7.666 -0.0642  0.8965  0.2409
46457SOL    HW151095   7.418   3.091   7.690  0.1869 -1.8835  0.4639
46457SOL    HW251096   7.550   3.018   7.693  1.9738  0.9883 -2.1603
46458SOL     OW51097   9.805  10.258  10.389 -0.2912 -0.5781  0.1164
46458SOL    HW151098   9.762  10.182  10.428  0.1901 -0.7297  0.3583
46458SOL    HW251099   9.734  10.306  10.346 -0.6871 -0.8704  0.4349
46459SOL     OW51100   4.362   3.087   8.755  0.0360  0.6625  0.0503
46459SOL    HW151101   4.281   3.039   8.770  0.1703  0.4222  0.0048
46459SOL    HW251102   4.380   3.076   8.662  1.7117 -1.8343  0.5642
46460SOL     OW51103   4.586  10.684   9.764 -0.1353  0.0651  0.1384
46460SOL    HW151104   4.651  10.700   9.696 -0.3750 -0.4152 -0.2101
46460SOL    HW251105   4.550  10.770   9.783  0.3682  0.2898  0.0996
46461SOL     OW51106   5.629   0.607   8.809 -0.5565  0.7562 -0.0944
46461SOL    HW151107   5.552   0.562   8.845 -0.3987 -1.5598 -2.4143
46461SOL    HW251108   5.597   0.649   8.729 -0.2796  3.4777  1.1083
46462SOL     OW51109   1.553   6.316   0.244  0.7564 -0.2822  0.0276
46462SOL    HW151110   1.584   6.358   0.325 -0.2359  0.1195  0.2157
46462SOL    HW251111   1.602   6.234   0.240  1.0360 -0.1716  0.8835
46463SOL     OW51112   3.583  11.369   6.783 -0.3675 -0.3998 -0.8073
46463SOL    HW151113   3.655  11.306   6.779  0.6901  0.7927 -1.2710
46463SOL    HW251114   3.508  11.318   6.812  1.1954 -1.2328  2.1860
46464SOL     OW51115   0.127   4.498   4.315 -0.0023 -0.5308  0.1597
46464SOL    HW151116   0.046   4.525   4.273  0.5209  0.4195 -0.2747
46464SOL    HW251117   0.114   4.406   4.336 -0.1544 -1.1702 -2.4506
46465SOL     OW51118   8.962  10.966   6.895  0.2753  0.4631  0.0874
46465SOL    HW151119   9.038  10.970   6.954  0.8969  2.4742 -0.7699
46465SOL    HW251120   8.894  11.016   6.939  0.2546  0.7307 -0.2501
46466SOL     OW51121   1.746   4.389   0.159 -0.3874 -0.1475 -0.3841
46466SOL    HW151122   1.772   4.297   0.163  0.4580  0.1091  0.0423
46466SOL    HW251123   1.785   4.430   0.236 -0.3362  0.6809 -0.8339
46467SOL     OW51124  11.145   7.826  10.326 -0.1062  0.4085  0.3174
46467SOL    HW151125  11.233   7.796  10.302 -1.1953 -1.0923 -2.2536
46467SOL    HW251126  11.114   7.873  10.248 -1.6639  0.6785  1.0637
46468SOL     OW51127   6.573   7.655   6.705 -0.0318  0.8699  0.5138
46468SOL    HW151128   6.548   7.635   6.615 -0.9849  0.7678  0.7888
46468SOL    HW251129   6.658   7.699   6.698  0.3330  0.0471 -0.3610
46469SOL     OW51130   8.213   2.455  10.226  0.2637  0.2594 -0.1095
46469SOL    HW151131   8.248   2.543  10.237 -0.5175  0.7862 -1.6210
46469SOL    HW251132   8.119   2.468  10.212  0.2088 -0.7669 -0.8034
46470SOL     OW51133   2.048   2.733   9.154 -0.1818 -0.2495  0.1951
46470SOL    HW151134   2.086   2.653   9.189 -1.1640 -0.4059  0.9610
46470SOL    HW251135   2.059   2.725   9.059  1.5713 -0.3116  0.3682
46471SOL     OW51136   8.618   3.829   6.187 -0.1327  0.1407  0.1951
46471SOL    HW151137   8.556   3.896   6.219 -0.3907  0.1408 -0.3062
46471SOL    HW251138   8.685   3.879   6.141  0.4589  0.1752  1.0717
46472SOL     OW51139   6.464   5.275   3.290 -0.0342 -0.0763 -0.2094
46472SOL    HW151140   6.535   5.219   3.320 -0.2978 -1.1310 -1.5023
46472SOL    HW251141   6.506   5.336   3.230  0.0152  0.2575  0.1567
46473SOL     OW51142   5.536   5.531   8.160 -0.0899  0.3858  0.7856
46473SOL    HW151143   5.604   5.486   8.110  0.5999 -0.8680  2.7090
46473SOL    HW251144   5.525   5.615   8.115  1.4839 -0.0807 -0.5964
46474SOL     OW51145   6.861   1.679   4.411 -0.1515  0.2512 -0.5407
46474SOL    HW151146   6.794   1.632   4.360 -0.3986  1.0324 -0.9525
46474SOL    HW251147   6.829   1.675   4.501  0.5579 -1.6046 -0.3413
46475SOL     OW51148  11.092   2.738   9.097 -0.2534 -0.5899 -0.0762
46475SOL    HW151149  11.104   2.650   9.131  1.4152 -0.3587  0.0425
46475SOL    HW251150  11.135   2.795   9.161  1.4787  0.0054 -1.6600
46476SOL     OW51151   6.851   7.058   0.100  0.8122 -0.3850 -0.0581
46476SOL    HW151152   6.902   7.126   0.145 -1.1374  0.4543  1.0005
46476SOL    HW251153   6.796   7.106   0.039  1.0061 -1.2439 -0.9205
46477SOL     OW51154  11.584   6.544   9.013 -0.3524  0.4507  0.3524
46477SOL    HW151155  11.514   6.480   9.001 -0.7186  0.8541  0.2904
46477SOL    HW251156  11.595   6.551   9.108  2.2682 -2.4441  0.4258
46478SOL     OW51157   6.748   3.731   1.301 -0.0384  0.2437 -0.0863
46478SOL    HW151158   6.684   3.779   1.248 -2.6572 -0.9706  1.7438
46478SOL    HW251159   6.782   3.796   1.362  0.2668  0.8350 -0.8641
46479SOL     OW51160   7.894   1.723   1.226  0.1268  0.1947  0.6106
46479SOL    HW151161   7.824   1.785   1.206 -0.1925 -0.4280 -0.2754
46479SOL    HW251162   7.850   1.638   1.232  0.6175 -0.0156  1.4038
46480SOL     OW51163   8.908   4.649   5.495  0.8485  0.0821 -0.0493
46480SOL    HW151164   8.816   4.644   5.522  1.0360 -1.0210  0.4785
46480SOL    HW251165   8.951   4.698   5.565  0.9785 -1.0654  0.7103
46481SOL     OW51166   4.327   2.248   1.011 -0.2147  0.0837 -0.0517
46481SOL    HW151167   4.372   2.296   0.942  0.1219 -0.6920 -0.3890
46481SOL    HW251168   4.271   2.313   1.054  2.0001  1.3601  1.0753
46482SOL     OW51169   8.950   2.297   2.568 -0.0246  0.1608  0.3101
46482SOL    HW151170   8.936   2.387   2.595 -0.3414 -0.1507  1.2087
46482SOL    HW251171   9.037   2.275   2.602 -0.2573 -0.1073  0.7336
46483SOL     OW51172   0.118   8.424   5.967 -0.1877 -0.4758 -0.3910
46483SOL    HW151173   0.179   8.371   6.018 -0.0928 -0.4612 -0.4905
46483SOL    HW251174   0.159   8.510   5.962 -0.7897 -0.1056  0.6100
46484SOL     OW51175   1.590   2.064   3.366 -0.2543  0.4280 -0.3676
46484SOL    HW151176   1.673   2.086   3.324  0.8649 -0.5437  1.2197
46484SOL    HW251177   1.528   2.127   3.330  0.9250  0.5660 -2.3365
46485SOL     OW51178   8.964   9.179   2.504  0.5656 -0.5363  0.4712
46485SOL    HW151179   8.941   9.243   2.571  0.7317  0.0915 -0.0711
46485SOL    HW251180   9.031   9.221   2.451  0.4282 -1.0248 -0.1033
46486SOL     OW51181  11.061   3.458  10.033  1.2551 -0.1593  0.4266
46486SOL    HW151182  11.008   3.505  10.097 -2.9892 -2.2638 -1.1689
46486SOL    HW251183  11.103   3.388  10.083  1.8639  0.9634  1.5691
46487SOL     OW51184  10.760   4.522  11.657 -0.4010 -0.1847 -0.6884
46487SOL    HW151185  10.701   4.476  11.597 -1.7554 -0.8465  1.0767
46487SOL    HW251186  10.802   4.453  11.708  0.9104  0.3597 -0.9905
46488SOL     OW51187   5.378   2.208   0.310 -0.5016  0.2837  0.1721
46488SOL    HW151188   5.354   2.283   0.363 -0.5283  0.8690 -0.6477
46488SOL    HW251189   5.463   2.180   0.345 -2.0590 -1.5653  2.8346
46489SOL     OW51190   4.187   4.293   7.123  0.0927 -0.2996 -0.4048
46489SOL    HW151191   4.258   4.230   7.130 -0.4999 -1.0305 -0.7533
46489SOL    HW251192   4.193   4.327   7.034  0.6223  0.4036 -0.1067
46490SOL     OW51193   5.396   4.224   9.200 -0.2032 -0.2204  0.6481
46490SOL    HW151194   5.428   4.267   9.121 -0.6409 -1.1209 -0.0340
46490SOL    HW251195   5.357   4.295   9.251  0.4611  0.4427  0.2625
46491SOL     OW51196   2.655   6.586   2.399  0.0844  0.0795  0.1106
46491SOL    HW151197   2.680   6.639   2.475 -3.8745  0.7180  1.1558
46491SOL    HW251198   2.633   6.649   2.331  3.4239 -0.4874 -1.7621
46492SOL     OW51199   5.872   3.263   8.781 -0.0360 -0.2715  0.1381
46492SOL    HW151200   5.946   3.316   8.812  1.6292 -2.3229 -0.0740
46492SOL    HW251201   5.808   3.266   8.852  0.0354  1.8663  0.1692
46493SOL     OW51202  10.314   5.912  11.603 -0.2583  0.0797 -0.0446
46493SOL    HW151203  10.265   5.921  11.685 -1.3657  1.0894 -0.7890
46493SOL    HW251204  10.276   5.978  11.545 -0.0400 -1.1369 -1.6485
46494SOL     OW51205   5.035   1.120   9.953 -0.2901  0.4512 -0.2631
46494SOL    HW151206   4.961   1.097  10.009 -0.0230  1.0162  0.3370
46494SOL    HW251207   5.003   1.192   9.899 -0.0159  1.0781  0.3932
46495SOL     OW51208   9.571   7.552   7.939  0.2823  0.3982 -0.1596
46495SOL    HW151209   9.502   7.522   7.999  1.4396 -1.0659  0.4982
46495SOL    HW251210   9.609   7.628   7.983 -1.9612  2.3326 -1.3277
46496SOL     OW51211   8.942  11.584   5.197  0.2703 -0.6698 -0.4469
46496SOL    HW151212   8.935  11.675   5.167  1.4347 -0.3616  0.1704
46496SOL    HW251213   8.986  11.590   5.282 -1.2164 -1.6797  0.4428
46497SOL     OW51214   3.020   0.845  10.678  0.3075  0.6307  0.4797
46497SOL    HW151215   2.973   0.761  10.676 -2.2438  1.9510 -0.2979
46497SOL    HW251216   3.032   0.867  10.586  0.0387  1.5766  0.6662
46498SOL     OW51217   5.538   8.765   5.208 -0.0235 -0.1210  0.3837
46498SOL    HW151218   5.594   8.687   5.214  1.2768  0.8552  1.8739
46498SOL    HW251219   5.519   8.788   5.300 -0.3793  1.3041 -0.0194
46499SOL     OW51220   3.583   1.950   0.937  0.9647 -0.2960  0.7688
46499SOL    HW151221   3.658   1.895   0.913 -1.2016 -3.7569  1.2416
46499SOL    HW251222   3.609   1.992   1.019  3.7806  1.8728 -1.0581
46500SOL     OW51223  10.632  10.742   9.401  0.7112  0.7153  0.1388
46500SOL    HW151224  10.629  10.800   9.324  1.3371  0.7468  0.1274
46500SOL    HW251225  10.725  10.720   9.409  0.3413 -1.2702 -0.5750
46501SOL     OW51226   2.856   4.583   8.780  0.3808 -0.3136 -0.1380
46501SOL    HW151227   2.888   4.556   8.694  0.4774  1.4429 -0.6905
46501SOL    HW251228   2.917   4.650   8.808 -0.0357 -0.4028  1.0187
46502SOL     OW51229   1.313   5.288   3.574 -0.0102  0.1407  0.1039
46502SOL    HW151230   1.336   5.257   3.486  0.0050 -3.3557  1.1730
46502SOL    HW251231   1.222   5.316   3.567 -0.0454 -0.2209 -0.9917
46503SOL     OW51232  10.734   4.899   9.647  0.4442  0.1539  0.3155
46503SOL    HW151233  10.657   4.943   9.684 -0.1766  0.3286 -1.0956
46503SOL    HW251234  10.698   4.824   9.600  1.1033  0.3891 -0.5937
46504SOL     OW51235   3.875   6.448   7.320 -0.2030 -0.4082  0.7480
46504SOL    HW151236   3.788   6.408   7.324 -0.6823  0.4469 -0.3211
46504SOL    HW251237   3.882   6.498   7.401 -0.3479 -1.1962  1.2447
46505SOL     OW51238   2.757   0.871   1.995  0.1017 -0.7488  0.3785
46505SOL    HW151239   2.779   0.911   1.910 -0.5514 -0.2899  0.4181
46505SOL    HW251240   2.841   0.844   2.031  0.3457 -1.4733 -0.6719
46506SOL     OW51241   8.739   8.130   7.109 -1.0931 -0.1144 -0.9490
46506SOL    HW151242   8.780   8.111   7.025 -1.0244 -1.9284 -0.5485
46506SOL    HW251243   8.688   8.052   7.130 -1.7421  0.6057  0.3359
46507SOL     OW51244   0.680   1.190  11.614  0.1097 -0.3121 -0.0563
46507SOL    HW151245   0.594   1.163  11.645  0.5332 -3.0596 -0.9326
46507SOL    HW251246   0.684   1.284  11.630 -2.8089 -0.2031  0.5100
46508SOL     OW51247   5.533   1.941   1.769 -0.0339  1.0584 -0.2628
46508SOL    HW151248   5.587   1.949   1.690 -0.1927  1.1796 -0.3590
46508SOL    HW251249   5.541   1.849   1.793  0.7434  1.2109  0.0980
46509SOL     OW51250   9.102   1.567   7.582  0.3081  0.0308  0.3008
46509SOL    HW151251   9.065   1.569   7.670  0.0332 -1.9219  0.2783
46509SOL    HW251252   9.025   1.571   7.524  0.0870 -2.7672  0.2455
46510SOL     OW51253   2.940   1.316   7.503  0.6674  0.3053  0.2285
46510SOL    HW151254   2.859   1.365   7.511  0.8188  0.6212 -0.1724
46510SOL    HW251255   2.934   1.249   7.571  0.7597  1.2958  1.2403
46511SOL     OW51256  10.361   4.964   7.742  0.3067 -0.5763  0.0760
46511SOL    HW151257  10.414   4.966   7.663 -0.2488 -1.5132 -0.3262
46511SOL    HW251258  10.425   4.965   7.814  0.8251 -0.4791 -0.3823
46512SOL     OW51259   5.337   6.228   9.456  0.0298 -0.5519  0.0785
46512SOL    HW151260   5.321   6.322   9.466 -0.1860 -0.6346  0.5438
46512SOL    HW251261   5.317   6.210   9.365 -0.9912 -0.3514  0.2559
46513SOL     OW51262   5.395   2.747  11.731 -0.6227  0.4246  0.2234
46513SOL    HW151263   5.360   2.669  11.773  2.4945 -1.5180 -0.4341
46513SOL    HW251264   5.321   2.785  11.684 -2.1803 -2.4030  0.1824
46514SOL     OW51265   9.594   7.316  10.417  0.4883 -0.0153 -0.1151
46514SOL    HW151266   9.674   7.282  10.456 -0.4650 -1.4295  0.6979
46514SOL    HW251267   9.611   7.410  10.405  1.8141 -0.0580  1.1599
46515SOL     OW51268  10.335   3.936  11.003 -0.3470 -0.6828  0.3070
46515SOL    HW151269  10.417   3.941  10.954  0.6301 -0.8265  1.8328
46515SOL    HW251270  10.267   3.962  10.941  1.1494  2.4158 -0.2233
46516SOL     OW51271   7.951   8.068  11.635 -0.1754 -0.0394 -0.5396
46516SOL    HW151272   7.946   8.096  11.727 -0.5184 -0.7725 -0.3240
46516SOL    HW251273   7.976   8.147  11.587  1.7693 -0.0370  0.3918
46517SOL     OW51274   2.289   4.459  10.983 -0.0698 -0.0577  0.2291
46517SOL    HW151275   2.259   4.460  11.073  0.6909 -0.6322  0.5003
46517SOL    HW251276   2.236   4.525  10.939  0.6408  1.3881  1.4560
46518SOL     OW51277   8.813   5.954   1.854 -0.1067 -0.1738 -0.3069
46518SOL    HW151278   8.815   5.867   1.893  0.4284 -0.0054  0.0557
46518SOL    HW251279   8.729   5.958   1.807 -0.7095 -0.4378  0.7022
46519SOL     OW51280   3.238   0.932   3.295  0.3034  0.0895 -0.4012
46519SOL    HW151281   3.330   0.907   3.284  0.2235  0.4082 -1.9469
46519SOL    HW251282   3.204   0.868   3.358  1.3468 -0.6000 -0.5027
46520SOL     OW51283   3.286  11.124  10.182  0.4186 -0.1231  0.5447
46520SOL    HW151284   3.336  11.052  10.144 -0.0255 -0.4943  0.6543
46520SOL    HW251285   3.344  11.200  10.176  1.7053 -0.9001  2.2579
46521SOL     OW51286   3.752   5.890   0.332 -0.5867  0.5420 -0.4821
46521SOL    HW151287   3.697   5.917   0.259 -0.5460  1.6656 -0.1193
46521SOL    HW251288   3.827   5.949   0.329  0.5364 -0.8581 -0.8662
46522SOL     OW51289   6.399   7.467   9.966  0.0949  0.0110 -0.0885
46522SOL    HW151290   6.325   7.408   9.958  0.1663 -0.4248  1.8542
46522SOL    HW251291   6.366   7.539  10.021  1.4195 -0.8916  2.0403
46523SOL     OW51292   3.570   4.884   1.666 -0.2395  0.9018  0.0128
46523SOL    HW151293   3.587   4.888   1.572  0.5723  1.9294  0.1831
46523SOL    HW251294   3.584   4.793   1.690  0.2625  0.7783 -0.7365
46524SOL     OW51295  10.630   1.633  11.722  0.0841  0.7575 -0.3358
46524SOL    HW151296  10.672   1.642  11.807  0.1460 -0.1933 -0.2540
46524SOL    HW251297  10.631   1.721  11.685  2.6522  0.7032 -0.5739
46525SOL     OW51298   4.770  10.534   6.648 -0.2452  0.0155 -0.0034
46525SOL    HW151299   4.744  10.449   6.682  2.2283 -1.0375 -0.5466
46525SOL    HW251300   4.726  10.541   6.563 -0.5563 -0.6478  0.0997
46526SOL     OW51301  10.145   9.748   3.504 -0.2954 -0.0305 -0.0783
46526SOL    HW151302  10.212   9.698   3.458  2.0979  3.6580 -0.9915
46526SOL    HW251303  10.089   9.783   3.435 -1.2222 -0.3827  0.4620
46527SOL     OW51304   5.863   4.304   4.506 -0.2878  0.6560  0.4000
46527SOL    HW151305   5.953   4.312   4.476 -0.7817 -1.0735 -1.8430
46527SOL    HW251306   5.843   4.211   4.498 -1.8747  0.7812  2.1901
46528SOL     OW51307   4.613   1.989   4.467  0.1845  0.1637 -0.3176
46528SOL    HW151308   4.636   1.960   4.556 -0.2585  1.8205  0.3721
46528SOL    HW251309   4.696   2.015   4.428  0.6749 -2.2660 -1.1206
46529SOL     OW51310   8.817   7.817   3.360 -0.3399  0.1115 -0.0436
46529SOL    HW151311   8.721   7.812   3.354 -0.2955 -0.7344 -0.1186
46529SOL    HW251312   8.835   7.910   3.372 -1.2373  0.1487  1.1298
46530SOL     OW51313   7.351   7.586   6.732  0.0254 -0.5505 -0.3334
46530SOL    HW151314   7.425   7.578   6.792  1.5296  0.0930 -1.9991
46530SOL    HW251315   7.343   7.680   6.717  0.8480 -0.7572 -2.4342
46531SOL     OW51316   5.449   6.349   2.367  0.3546 -0.4368  0.3375
46531SOL    HW151317   5.469   6.275   2.424  1.5724 -0.2438  0.1833
46531SOL    HW251318   5.422   6.419   2.426 -0.6364 -0.9374  0.4973
46532SOL     OW51319   5.796   5.341   5.697  0.6798 -0.2803 -0.0656
46532SOL    HW151320   5.750   5.257   5.698  1.2178 -0.5841 -0.4861
46532SOL    HW251321   5.726   5.406   5.685  0.1928 -0.6092  0.8420
46533SOL     OW51322   5.768   2.097   2.088  0.2842  0.0236  0.1719
46533SOL    HW151323   5.715   2.166   2.047  0.2841 -0.0474  0.0512
46533SOL    HW251324   5.843   2.086   2.029  1.0860  0.9924  0.9736
46534SOL     OW51325   4.500   0.489   2.124 -0.1028  0.0501 -0.3054
46534SOL    HW151326   4.581   0.534   2.147 -0.2599  0.6229 -0.8740
46534SOL    HW251327   4.497   0.414   2.184  0.7853  0.0876 -0.2051
46535SOL     OW51328  10.521   9.001  10.335  0.0456 -0.1388  0.2731
46535SOL    HW151329  10.459   9.071  10.314  1.0858 -0.0355 -2.9627
46535SOL    HW251330  10.607   9.041  10.325  0.6666 -1.3380  0.6252
46536SOL     OW51331   4.700  10.155   1.741  0.0078  0.3878 -0.2773
46536SOL    HW151332   4.617  10.183   1.779  0.9726  2.4010  0.4749
46536SOL    HW251333   4.728  10.083   1.798 -1.2432 -0.4133 -0.6283
46537SOL     OW51334  11.839   1.095   2.676 -0.3293 -0.5710 -0.0466
46537SOL    HW151335  11.781   1.160   2.716 -0.7623 -0.8237 -0.2613
46537SOL    HW251336  11.903   1.147   2.628 -0.7898 -0.3044 -0.3749
46538SOL     OW51337   2.205  11.003   1.039 -0.1121  0.4043  0.5428
46538SOL    HW151338   2.120  10.980   1.002 -0.7541  1.7041  1.1320
46538SOL    HW251339   2.223  10.932   1.101  0.6301 -1.3920 -1.6076
46539SOL     OW51340   3.399   9.899   2.233  0.3180 -0.4445 -0.4634
46539SOL    HW151341   3.341   9.833   2.196 -2.0798  1.1698  0.2042
46539SOL    HW251342   3.368   9.911   2.322  2.1747 -0.0009  0.1650
46540SOL     OW51343   5.868   7.759   4.512  0.0614  0.9473 -0.0003
46540SOL    HW151344   5.908   7.842   4.537  2.3056 -0.5534  1.7371
46540SOL    HW251345   5.911   7.736   4.430  1.0908  0.4859  0.6478
46541SOL     OW51346  10.318   5.203  11.539  0.1582  0.1687 -0.2554
46541SOL    HW151347  10.249   5.270  11.531  0.2601  0.1805 -1.0688
46541SOL    HW251348  10.320   5.183  11.633 -0.6879  0.4490 -0.1632
46542SOL     OW51349   3.693   3.364   6.909 -0.0913  0.0037 -0.7585
46542SOL    HW151350   3.770   3.386   6.961  0.3729  0.1069 -1.4771
46542SOL    HW251351   3.688   3.432   6.842 -0.4998 -0.2915 -1.0358
46543SOL     OW51352   7.138   1.349   6.222  0.2398  0.2095 -0.1616
46543SOL    HW151353   7.075   1.419   6.205 -1.2100 -1.0624 -0.2084
46543SOL    HW251354   7.223   1.389   6.204 -0.6400  1.5133 -1.7337
46544SOL     OW51355   7.926   2.401   8.919  0.0030 -0.4895  0.4395
46544SOL    HW151356   7.979   2.419   8.841  0.5281  0.6716  1.0473
46544SOL    HW251357   7.873   2.325   8.894  1.3712 -1.2110 -0.4761
46545SOL     OW51358   7.766   0.375   3.165  0.0187 -0.1764  0.1324
46545SOL    HW151359   7.765   0.385   3.260 -0.2064 -0.9913  0.2157
46545SOL    HW251360   7.691   0.426   3.134 -0.0393 -0.0949  0.4105
46546SOL     OW51361   3.200   7.184   6.134 -0.0369  0.0289  0.0884
46546SOL    HW151362   3.151   7.259   6.169 -1.5399 -0.1701 -1.4820
46546SOL    HW251363   3.281   7.184   6.184 -0.3379  2.2302  0.7063
46547SOL     OW51364   6.164   1.993   6.400  0.5717 -0.0899  0.2794
46547SOL    HW151365   6.137   1.931   6.468 -2.0749  0.0951 -0.4516
46547SOL    HW251366   6.170   2.077   6.445  1.4989 -0.4022  0.7623
46548SOL     OW51367   9.648   2.602   5.795 -0.5103 -0.2558 -0.7420
46548SOL    HW151368   9.734   2.605   5.753  0.0008  1.1572  0.3510
46548SOL    HW251369   9.634   2.509   5.813  0.2614 -0.6338 -1.9485
46549SOL     OW51370   3.359   2.522   8.319  0.0397  0.1199 -0.1935
46549SOL    HW151371   3.378   2.591   8.382  0.4838  1.2324 -1.5105
46549SOL    HW251372   3.268   2.536   8.294  0.4469  0.9363 -1.2790
46550SOL     OW51373   7.052   8.172   4.998 -0.1112  0.3182 -0.4856
46550SOL    HW151374   6.990   8.114   4.955  0.6827 -1.9962  1.2940
46550SOL    HW251375   7.137   8.130   4.985  0.9094  2.4724 -1.3360
46551SOL     OW51376   2.249   4.567   1.484  0.0113 -0.0382  0.6571
46551SOL    HW151377   2.329   4.538   1.527  0.0037  0.0566  0.7379
46551SOL    HW251378   2.192   4.491   1.485  1.3896 -1.2968 -2.6936
46552SOL     OW51379   8.142   3.453   5.971 -0.3450  0.0309  0.3637
46552SOL    HW151380   8.112   3.503   5.894 -2.6354  1.7590  2.2259
46552SOL    HW251381   8.063   3.444   6.025  1.3337 -0.4780  2.8698
46553SOL     OW51382   4.122   9.123   5.412  0.1522 -0.4164 -0.2395
46553SOL    HW151383   4.094   9.080   5.331  0.4066 -2.6971  0.8046
46553SOL    HW251384   4.041   9.157   5.450  0.0225  0.6358 -1.3906
46554SOL     OW51385   7.491   0.149   1.374 -0.2215  0.2250 -0.1878
46554SOL    HW151386   7.555   0.140   1.304  0.1308  1.5910 -0.0561
46554SOL    HW251387   7.448   0.063   1.378  0.3289 -0.1303 -1.5008
46555SOL     OW51388  11.924   5.646   8.756 -0.8007  0.2265 -0.0068
46555SOL    HW151389  11.954   5.651   8.665  0.3225 -0.6235  0.2935
46555SOL    HW251390  11.935   5.734   8.791 -1.9618  0.7518 -0.8880
46556SOL     OW51391   6.027   6.574   4.676 -0.0403 -1.0089 -0.1122
46556SOL    HW151392   5.962   6.598   4.610  0.4848  0.4382 -0.1396
46556SOL    HW251393   5.975   6.554   4.754 -0.5140  0.8528  0.0877
46557SOL     OW51394   1.869   5.416  10.996  0.1192  0.1943  0.3333
46557SOL    HW151395   1.883   5.474  10.921  0.0794 -0.4586 -0.1924
46557SOL    HW251396   1.775   5.420  11.012 -0.5771 -2.4497 -2.0484
46558SOL     OW51397   4.035   3.237   0.399 -0.4794  0.5616 -0.8985
46558SOL    HW151398   4.024   3.170   0.333 -1.4692 -1.2535  0.9879
46558SOL    HW251399   3.951   3.283   0.401 -0.6082  0.3161 -0.6039
46559SOL     OW51400   7.653  11.159  10.228  0.6004 -0.4252  0.2844
46559SOL    HW151401   7.722  11.225  10.240  0.0609 -0.2950  3.5556
46559SOL    HW251402   7.599  11.193  10.156  2.2829  0.8947 -0.4236
46560SOL     OW51403  11.493   2.433   6.344 -0.4709  0.9045  0.1201
46560SOL    HW151404  11.418   2.489   6.323  0.4899  1.4692 -2.0570
46560SOL    HW251405  11.467   2.388   6.425 -2.8877  1.5213 -0.2276
46561SOL     OW51406   7.765  11.368   0.450 -0.7694  0.1537  0.0157
46561SOL    HW151407   7.843  11.329   0.488 -0.0317  0.7394 -0.8590
46561SOL    HW251408   7.731  11.302   0.389  0.0890  0.5717 -0.9509
46562SOL     OW51409   0.376   3.471  11.170 -0.0539  0.4858 -0.0955
46562SOL    HW151410   0.294   3.473  11.119  0.1754 -0.3265 -0.5090
46562SOL    HW251411   0.444   3.496  11.108  0.4955 -2.3901 -0.7628
46563SOL     OW51412   1.188   1.967   5.167  0.1080  0.3352 -0.0815
46563SOL    HW151413   1.247   1.997   5.236 -0.7516 -0.7512  1.1927
46563SOL    HW251414   1.233   1.893   5.126  0.1487  0.2742  0.0748
46564SOL     OW51415   6.878   8.883   6.525  0.4180  0.5359 -0.3879
46564SOL    HW151416   6.811   8.846   6.583  1.6019  1.2264  1.5329
46564SOL    HW251417   6.955   8.892   6.581  1.9943  0.2203 -2.3977
46565SOL     OW51418   7.143   5.177   0.582 -0.0435 -0.3530  0.5430
46565SOL    HW151419   7.196   5.130   0.517 -0.5485 -0.8662  0.4917
46565SOL    HW251420   7.111   5.254   0.535 -2.5463 -2.0095 -0.7116
46566SOL     OW51421   0.642   3.166   9.386  0.0205  0.0307 -0.0947
46566SOL    HW151422   0.563   3.219   9.397  0.5987  0.6070  1.5461
46566SOL    HW251423   0.655   3.124   9.471  1.1894 -0.4821 -0.5038
46567SOL     OW51424   3.594   6.274   2.029  0.0155 -0.0919 -0.4179
46567SOL    HW151425   3.678   6.290   1.988  1.2252 -1.5747  1.3199
46567SOL    HW251426   3.571   6.185   2.002 -0.1637 -0.3190  0.4538
46568SOL     OW51427   8.160   6.463  11.093 -0.2372  0.0973  0.5058
46568SOL    HW151428   8.194   6.552  11.095  0.4327 -0.0802 -1.0476
46568SOL    HW251429   8.100   6.461  11.018  0.5668 -0.9904 -0.1554
46569SOL     OW51430   6.554   6.076   5.334 -0.0887  0.2173  0.2322
46569SOL    HW151431   6.479   6.111   5.287 -1.2190  0.3753  2.0484
46569SOL    HW251432   6.526   5.990   5.364  0.0440  0.6785  1.7761
46570SOL     OW51433   8.981   4.028   9.312  0.2199 -0.3994 -0.6364
46570SOL    HW151434   9.039   4.026   9.389 -0.9760  0.5551  0.3330
46570SOL    HW251435   9.025   4.086   9.251  0.5092 -0.0257 -0.0824
46571SOL     OW51436   8.018   2.535   5.133  0.0867 -0.5517 -0.3317
46571SOL    HW151437   7.979   2.514   5.218 -0.1252 -1.6010 -0.6720
46571SOL    HW251438   7.957   2.499   5.069 -0.1808  0.9732 -0.9650
46572SOL     OW51439   2.235   3.097   3.194 -0.4060 -0.1635 -0.3089
46572SOL    HW151440   2.297   3.118   3.263 -0.9944  0.9565 -0.0947
46572SOL    HW251441   2.250   3.005   3.175  1.1185  0.0194 -0.0755
46573SOL     OW51442   7.851   7.655   1.068  0.4416  0.2385 -0.0882
46573SOL    HW151443   7.865   7.651   1.163  0.0666 -1.0457 -0.0755
46573SOL    HW251444   7.815   7.569   1.045 -0.0493  0.7492 -1.3035
46574SOL     OW51445  10.801   6.099   5.358  0.3389 -0.0659  0.1793
46574SOL    HW151446  10.830   6.188   5.341 -0.5892  0.2480  0.1974
46574SOL    HW251447  10.808   6.089   5.453  1.8746 -0.5322  0.0393
46575SOL     OW51448   8.315   9.674   2.884 -0.7241  0.0008 -0.1778
46575SOL    HW151449   8.253   9.746   2.878 -2.0980 -1.0350  0.7484
46575SOL    HW251450   8.261   9.595   2.873  0.4983 -0.9207  0.1550
46576SOL     OW51451  11.501   0.868   6.703 -0.4831 -0.0593 -0.4094
46576SOL    HW151452  11.553   0.832   6.775  2.9969  2.3005 -1.5087
46576SOL    HW251453  11.428   0.913   6.747 -0.0801 -1.0539  1.4085
46577SOL     OW51454   6.232   2.814   7.533 -0.3253 -0.0626  0.0731
46577SOL    HW151455   6.214   2.720   7.534  1.1942 -0.3587  1.1902
46577SOL    HW251456   6.227   2.837   7.440 -0.9351 -1.1792 -0.2012
46578SOL     OW51457   4.529   0.013   9.029  0.1539  0.1291  0.2367
46578SOL    HW151458   4.599  -0.053   9.028  1.5205  1.5339 -0.5667
46578SOL    HW251459   4.550   0.068   9.105  0.3105  0.9555 -0.4009
46579SOL     OW51460   9.373   0.524   4.638  0.4599 -0.1450 -0.1503
46579SOL    HW151461   9.394   0.575   4.560  0.3286 -1.9170 -1.4245
46579SOL    HW251462   9.286   0.487   4.620  0.5905 -0.8796  0.6658
46580SOL     OW51463   8.461   4.630   7.577  0.2312 -0.0515  0.3069
46580SOL    HW151464   8.546   4.587   7.568  0.3941 -0.0188  1.5293
46580SOL    HW251465   8.398   4.559   7.579  0.2450 -0.0879 -0.3778
46581SOL     OW51466   2.251   7.760   2.644 -0.5075  0.2391  0.1573
46581SOL    HW151467   2.340   7.724   2.643  0.3824  2.1459 -3.0042
46581SOL    HW251468   2.213   7.728   2.727  2.1946 -2.7238  0.4502
46582SOL     OW51469   4.822   6.738   1.719 -0.1142  0.1260  0.1726
46582SOL    HW151470   4.795   6.829   1.714 -0.8754  0.0312  1.7831
46582SOL    HW251471   4.910   6.741   1.758 -0.0727  0.1715  0.0762
46583SOL     OW51472   0.252   4.627   7.937  0.4953 -0.2910 -0.1193
46583SOL    HW151473   0.186   4.669   7.992  1.9147  0.7042  0.8799
46583SOL    HW251474   0.288   4.557   7.992  1.5451  0.3639  0.0536
46584SOL     OW51475   9.535   5.619   8.318  0.6550  0.4905  0.4452
46584SOL    HW151476   9.496   5.639   8.403  2.0588  0.4940  1.1150
46584SOL    HW251477   9.551   5.525   8.321  2.2373  0.7393  0.8919
46585SOL     OW51478   6.675   8.925   9.163 -0.0774 -0.0038  0.4437
46585SOL    HW151479   6.728   8.967   9.231  0.5614 -1.6649  1.0262
46585SOL    HW251480   6.733   8.859   9.124 -0.9082 -0.1011 -0.6940
46586SOL     OW51481   1.780   5.583   7.786  0.1466  0.8745  1.4892
46586SOL    HW151482   1.688   5.559   7.780  0.2559  0.2537  2.1068
46586SOL    HW251483   1.787   5.666   7.739 -0.5733  0.5325  0.7450
46587SOL     OW51484   2.583   3.795  10.957  0.1961 -0.1219 -0.8172
46587SOL    HW151485   2.666   3.798  10.911  1.3961 -0.5318  1.1892
46587SOL    HW251486   2.558   3.703  10.956  1.2908 -0.4799  1.0492
46588SOL     OW51487   7.430   2.746   2.073 -0.2217 -0.3236 -0.1477
46588SOL    HW151488   7.356   2.744   2.013 -0.7836  0.2115  0.5181
46588SOL    HW251489   7.420   2.667   2.126 -1.1696  0.4976  0.9348
46589SOL     OW51490   0.943   6.672  10.611 -0.4370 -0.1172  0.2066
46589SOL    HW151491   0.859   6.717  10.608  0.0781  0.8096 -1.1659
46589SOL    HW251492   0.980   6.696  10.696 -1.6715 -0.7848  0.9536
46590SOL     OW51493   2.684   8.273   9.341 -0.1460  0.1096 -0.4860
46590SOL    HW151494   2.617   8.206   9.355 -0.1396 -0.1807 -1.7415
46590SOL    HW251495   2.712   8.298   9.429 -0.9208 -0.7566  0.0192
46591SOL     OW51496   1.603   2.562   5.770 -0.0275  0.2702 -0.3193
46591SOL    HW151497   1.697   2.561   5.750 -0.1986  2.9063 -1.6798
46591SOL    HW251498   1.568   2.488   5.721  1.2141 -0.2907 -0.4133
46592SOL     OW51499   6.323   2.340   1.531  1.2487  0.1292  0.1893
46592SOL    HW151500   6.324   2.285   1.609  1.4581 -1.2282 -0.7448
46592SOL    HW251501   6.339   2.280   1.459 -0.3033  1.1252 -1.0573
46593SOL     OW51502   7.661   3.859   3.728  0.5473  0.1549 -0.2297
46593SOL    HW151503   7.637   3.873   3.636 -0.2985  0.8086  0.0724
46593SOL    HW251504   7.705   3.774   3.729  1.3406  0.5256 -1.3732
46594SOL     OW51505  11.003   7.570  11.796  0.0955 -0.2694  0.1459
46594SOL    HW151506  10.978   7.493  11.744  0.9265 -0.4685  0.0156
46594SOL    HW251507  11.081   7.603  11.751 -1.4221  1.9179 -1.0531
46595SOL     OW51508  11.312   1.245   5.658 -0.0986 -0.1494 -0.4583
46595SOL    HW151509  11.318   1.309   5.586 -0.4607  0.5293  0.1064
46595SOL    HW251510  11.252   1.178   5.625 -0.5086  0.3165 -0.6737
46596SOL     OW51511  10.864  10.345   3.403 -0.5030  0.2711 -0.1242
46596SOL    HW151512  10.928  10.369   3.471  0.7022  1.5258 -1.6319
46596SOL    HW251513  10.784  10.389   3.429  0.3300  1.8978 -0.2124
46597SOL     OW51514   6.412   0.792  11.149  0.0160  0.6144 -0.3570
46597SOL    HW151515   6.344   0.817  11.211 -0.1639  0.4022 -0.4661
46597SOL    HW251516   6.431   0.872  11.100  0.6515  0.9624  0.4278
46598SOL     OW51517   4.040   6.800   8.827 -0.0889  0.6135  0.3479
46598SOL    HW151518   4.135   6.792   8.822 -0.2103 -0.9962  0.1131
46598SOL    HW251519   4.007   6.722   8.782 -1.4751 -0.8715  3.6250
46599SOL     OW51520   2.176  11.268   0.851  0.0327  0.3037  0.1386
46599SOL    HW151521   2.253  11.216   0.827 -0.4069 -1.4041  2.1340
46599SOL    HW251522   2.114  11.204   0.887 -2.2890  1.6425 -1.2244
46600SOL     OW51523   7.560   5.611  10.466 -0.2148 -0.2544 -0.3517
46600SOL    HW151524   7.639   5.651  10.430  1.9481  0.0495  4.0333
46600SOL    HW251525   7.498   5.683  10.474  1.0846  0.7834  0.9509
46601SOL     OW51526  11.593  10.893   9.586  0.5493 -0.0513 -0.0015
46601SOL    HW151527  11.542  10.876   9.507 -0.7949 -0.0111  0.8238
46601SOL    HW251528  11.644  10.814   9.599  1.3930  0.2411 -1.3262
46602SOL     OW51529   3.147   6.987   7.496  0.0499 -0.1864  0.1423
46602SOL    HW151530   3.093   6.921   7.539 -0.4027 -1.1581 -1.7717
46602SOL    HW251531   3.236   6.952   7.499 -0.3825 -1.7154 -2.1346
46603SOL     OW51532   6.851   6.628  11.107 -0.1286  0.3503 -0.1298
46603SOL    HW151533   6.893   6.708  11.075 -0.0939  0.6858  0.7174
46603SOL    HW251534   6.813   6.588  11.029  1.8991 -0.0557 -0.9652
46604SOL     OW51535   1.862   7.298   2.763  0.6740  0.2507 -0.3870
46604SOL    HW151536   1.904   7.379   2.792 -0.0129  1.1838 -1.8840
46604SOL    HW251537   1.922   7.262   2.698 -0.1957  0.9389 -1.6163
46605SOL     OW51538   2.914  11.648   0.378 -0.1558  0.1255  0.7587
46605SOL    HW151539   2.861  11.573   0.350 -0.8361  0.7240  0.3956
46605SOL    HW251540   2.955  11.620   0.460  0.0886 -0.8602  0.3178
46606SOL     OW51541  10.295   8.254  10.457 -0.5145  0.3152  0.0084
46606SOL    HW151542  10.255   8.174  10.491 -0.7664  1.0956  1.6577
46606SOL    HW251543  10.307   8.309  10.534 -0.9535  2.1272 -1.1583
46607SOL     OW51544   2.524   5.547   6.489 -0.6722 -0.0441 -0.1128
46607SOL    HW151545   2.590   5.551   6.420 -0.3737  0.7595  0.2071
46607SOL    HW251546   2.518   5.637   6.522  0.7231 -0.7728  2.3481
46608SOL     OW51547  10.612  10.317   8.118  0.0632 -0.2966  0.3901
46608SOL    HW151548  10.591  10.238   8.068 -0.7051 -0.1590  0.4973
46608SOL    HW251549  10.662  10.284   8.193 -1.2776 -0.8360  1.0852
46609SOL     OW51550   0.555   1.925   4.138  0.4392 -0.6721  0.2988
46609SOL    HW151551   0.587   1.843   4.175  1.4352 -0.2565  0.3670
46609SOL    HW251552   0.628   1.959   4.087 -0.5175 -0.6427 -1.1014
46610SOL     OW51553   8.372   1.520   7.568 -0.5372  0.5266 -0.4538
46610SOL    HW151554   8.322   1.474   7.502 -1.4149  1.0703 -0.1841
46610SOL    HW251555   8.307   1.554   7.629  0.1213  1.5355 -0.2697
46611SOL     OW51556   1.828   2.942   4.436 -0.0384  0.2193 -0.4387
46611SOL    HW151557   1.872   2.991   4.367  1.2780 -0.2880  0.0124
46611SOL    HW251558   1.738   2.973   4.434  0.9082  3.3809  0.4704
46612SOL     OW51559   5.362   3.405   5.159 -0.2130  0.3393  0.7335
46612SOL    HW151560   5.391   3.495   5.149 -0.1747  0.2705  0.2058
46612SOL    HW251561   5.312   3.405   5.241  0.5947  0.6282  1.2451
46613SOL     OW51562  11.937   7.102   7.224 -0.4347  0.2713 -0.4543
46613SOL    HW151563  11.899   7.042   7.288 -1.8597  0.7819 -0.7803
46613SOL    HW251564  11.984   7.045   7.163 -1.5101 -0.5087 -0.5876
46614SOL     OW51565   6.416   3.175   7.095 -0.9637 -0.3384  0.6576
46614SOL    HW151566   6.325   3.181   7.067 -0.7317  1.4904  0.1557
46614SOL    HW251567   6.412   3.164   7.190 -1.7107 -1.4664  0.4977
46615SOL     OW51568   7.749   8.815   0.653  0.2891  0.3086  0.0574
46615SOL    HW151569   7.679   8.752   0.632  0.1812  0.7229 -0.9010
46615SOL    HW251570   7.796   8.775   0.726 -1.0762  0.1255  0.8634
46616SOL     OW51571   2.875   8.451   4.233  0.1583  0.0146  0.1246
46616SOL    HW151572   2.848   8.527   4.284  1.1309  1.7312 -1.7748
46616SOL    HW251573   2.842   8.468   4.145 -0.7780 -2.4640 -0.0916
46617SOL     OW51574   7.316   0.704   5.735  0.5210  0.2376 -0.1494
46617SOL    HW151575   7.236   0.726   5.689  1.0201  0.1295 -1.1055
46617SOL    HW251576   7.365   0.786   5.741  0.2613  0.3407  0.5943
46618SOL     OW51577   6.725   9.652   9.217  0.1479  0.8084 -0.0587
46618SOL    HW151578   6.809   9.655   9.263  1.2620  1.5832 -2.0268
46618SOL    HW251579   6.714   9.740   9.181 -0.3373  0.0958 -1.7567
46619SOL     OW51580  11.663  10.448  11.013 -0.6019 -0.0472  0.3886
46619SOL    HW151581  11.743  10.438  10.962 -0.1566 -0.1297  1.0902
46619SOL    HW251582  11.661  10.541  11.037  0.4760 -0.4328  2.2358
46620SOL     OW51583   6.217  10.036   9.134  0.4655  0.2117 -0.1207
46620SOL    HW151584   6.180   9.988   9.208  0.2461 -3.4559 -2.3633
46620SOL    HW251585   6.187  10.126   9.146 -0.4869 -0.4630  3.5749
46621SOL     OW51586   0.896  11.181   6.679 -0.4716 -0.0861 -0.5544
46621SOL    HW151587   0.973  11.235   6.694 -0.6004  0.0057 -0.2213
46621SOL    HW251588   0.825  11.227   6.723 -0.6903 -0.2453 -0.7357
46622SOL     OW51589   4.673   2.335   3.987 -0.3671 -0.3092 -0.1812
46622SOL    HW151590   4.680   2.430   4.000 -1.8779  0.0942 -1.9473
46622SOL    HW251591   4.626   2.326   3.904 -0.6484 -2.6180  0.1839
46623SOL     OW51592   8.591   0.449   7.028 -0.0208 -0.0877 -0.2883
46623SOL    HW151593   8.535   0.378   6.995 -0.8054 -0.5489  1.8728
46623SOL    HW251594   8.531   0.521   7.045  0.4412  0.3191 -0.3490
46624SOL     OW51595   8.235   5.615   0.511  0.2472  0.1144 -0.0996
46624SOL    HW151596   8.300   5.577   0.571 -0.3696 -0.1992  0.3828
46624SOL    HW251597   8.191   5.682   0.563  1.0738  1.2774 -0.8309
46625SOL     OW51598   4.548   7.530   8.258 -0.5041 -0.1423  0.5667
46625SOL    HW151599   4.600   7.561   8.183  0.2773  0.5549  1.3827
46625SOL    HW251600   4.557   7.599   8.324 -0.0644 -1.3662  1.8265
46626SOL     OW51601   7.234   5.704   3.837  0.6768  0.1067 -0.2859
46626SOL    HW151602   7.291   5.754   3.779 -1.0086  0.4462 -1.7359
46626SOL    HW251603   7.184   5.771   3.884  0.4637 -0.1877 -0.0952
46627SOL     OW51604   9.669   8.937  11.313 -0.4372 -0.1852  0.2677
46627SOL    HW151605   9.718   8.860  11.287 -1.0274 -1.1632  1.9011
46627SOL    HW251606   9.577   8.912  11.306 -0.6984  0.9336 -0.7411
46628SOL     OW51607  10.633   2.707   8.866 -0.1923 -0.2858  0.3541
46628SOL    HW151608  10.635   2.634   8.804 -0.5855  0.6895 -0.8649
46628SOL    HW251609  10.652   2.668   8.951  1.1702 -1.5677 -0.4895
46629SOL     OW51610   9.936   1.767  10.721  0.4517  0.4962  0.4819
46629SOL    HW151611   9.856   1.796  10.765 -0.2706  0.4481 -0.7436
46629SOL    HW251612   9.906   1.703  10.657  1.6858 -0.7375  1.0934
46630SOL     OW51613   6.157   2.271   0.561  0.1943  0.3315 -0.3394
46630SOL    HW151614   6.069   2.288   0.595 -0.1448  1.3577 -1.6513
46630SOL    HW251615   6.143   2.208   0.490  0.5157  0.5587 -0.6057
46631SOL     OW51616   4.860   5.370   0.730 -0.0898  0.3262  0.0728
46631SOL    HW151617   4.909   5.302   0.683 -0.9004  0.6503 -1.3077
46631SOL    HW251618   4.790   5.395   0.669  0.3221  2.5762  0.4419
46632SOL     OW51619   1.555   4.169   9.745 -0.2607  0.0218  0.4385
46632SOL    HW151620   1.558   4.233   9.673 -1.1377 -0.6850 -0.2458
46632SOL    HW251621   1.521   4.218   9.819  0.5404  0.7334  0.3635
46633SOL     OW51622   6.481   5.898  10.422  0.8688 -0.2521  0.5319
46633SOL    HW151623   6.547   5.917  10.488  0.9085  0.0818  0.4038
46633SOL    HW251624   6.487   5.804  10.407  1.9705 -0.0876 -0.1573
46634SOL     OW51625   1.934   5.246   0.937  0.1050 -0.1024  0.3000
46634SOL    HW151626   1.953   5.299   1.014  0.6540  0.0316  0.0823
46634SOL    HW251627   2.009   5.188   0.928 -0.3353 -0.6856  0.3376
46635SOL     OW51628   5.754  10.859   6.841 -0.5932  0.0474 -0.1375
46635SOL    HW151629   5.695  10.784   6.837 -1.5566  0.7077  1.1595
46635SOL    HW251630   5.778  10.875   6.749 -1.0924 -1.2651 -0.5193
46636SOL     OW51631   1.417  10.406  10.683  0.0654 -0.1690  0.4227
46636SOL    HW151632   1.335  10.362  10.660 -1.1582  1.4334  1.4408
46636SOL    HW251633   1.484  10.361  10.632 -1.3337 -1.9945  0.0737
46637SOL     OW51634   6.456   0.159   3.249  0.6227 -0.2401  0.0412
46637SOL    HW151635   6.498   0.076   3.224 -2.0790 -1.6975 -0.0461
46637SOL    HW251636   6.438   0.203   3.167 -2.0008 -1.7880 -0.3306
46638SOL     OW51637   6.192   0.207   6.692 -0.1957 -0.1133  0.1867
46638SOL    HW151638   6.213   0.184   6.602 -0.1593 -1.3486  0.4845
46638SOL    HW251639   6.276   0.227   6.732  0.1719 -2.2885  0.6388
46639SOL     OW51640  11.750   5.921   9.380  0.1953  0.0638 -0.0128
46639SOL    HW151641  11.778   5.902   9.290  0.9359  0.1663  0.1862
46639SOL    HW251642  11.764   5.839   9.427 -0.3535 -0.0387 -0.0247
46640SOL     OW51643   2.943   8.207   5.691  0.2252  0.0291 -0.3312
46640SOL    HW151644   2.858   8.191   5.733 -0.0448  0.2456 -0.7915
46640SOL    HW251645   2.923   8.215   5.598  0.6625  0.7131 -0.3724
46641SOL     OW51646  11.746   6.523   8.513 -0.1202  0.0870  0.5876
46641SOL    HW151647  11.681   6.494   8.577  1.1383 -1.6919  1.1589
46641SOL    HW251648  11.744   6.619   8.518 -0.0894  0.0274  3.3209
46642SOL     OW51649  11.032   5.410   1.526 -0.2363 -0.3318  0.1199
46642SOL    HW151650  11.076   5.333   1.491 -0.7761 -0.3450 -0.5644
46642SOL    HW251651  10.988   5.449   1.450 -0.4166  0.3461  0.5570
46643SOL     OW51652   0.189   3.587   2.923  0.0003  0.4875  0.2131
46643SOL    HW151653   0.094   3.599   2.921  0.0376  0.8447  0.4764
46643SOL    HW251654   0.206   3.537   3.003 -0.0125 -0.0429 -0.1089
46644SOL     OW51655   4.343   9.363   2.226  0.2039  0.7775  0.3377
46644SOL    HW151656   4.298   9.336   2.306  2.3281  0.4657  1.5137
46644SOL    HW251657   4.433   9.333   2.238  0.6621  0.9971 -2.0672
46645SOL     OW51658   1.610   6.275   7.898  0.1199  0.7193 -0.1960
46645SOL    HW151659   1.559   6.257   7.976 -0.7191 -0.2147 -0.9331
46645SOL    HW251660   1.688   6.220   7.907  0.4941  1.3559  0.4421
46646SOL     OW51661   0.016   6.435   5.328  0.0455 -0.3380 -0.5607
46646SOL    HW151662   0.051   6.490   5.258  1.0711 -1.7052 -1.1765
46646SOL    HW251663   0.002   6.495   5.401  2.0831  0.5900 -0.8640
46647SOL     OW51664   8.895   8.714   1.466  0.1795  0.2598 -0.0489
46647SOL    HW151665   8.942   8.674   1.393  1.6820  2.9243 -0.6571
46647SOL    HW251666   8.834   8.775   1.424 -0.0180  0.7236  0.9018
46648SOL     OW51667  11.517  11.251   9.763 -0.4307 -0.3954 -0.0697
46648SOL    HW151668  11.570  11.221   9.689  0.0898  0.3534 -0.0095
46648SOL    HW251669  11.567  11.324   9.800 -0.8670 -0.5299  0.7968
46649SOL     OW51670   2.208   1.588   9.837  0.1138 -0.4064 -0.4388
46649SOL    HW151671   2.229   1.636   9.918  0.0216 -0.2828 -0.4875
46649SOL    HW251672   2.283   1.602   9.780 -0.0802 -0.0050 -0.5945
46650SOL     OW51673   6.473   0.453   6.097  0.3177 -0.6808  0.1093
46650SOL    HW151674   6.489   0.540   6.059 -0.6808 -0.9078 -0.8916
46650SOL    HW251675   6.383   0.432   6.071 -0.5774 -0.7147  2.9782
46651SOL     OW51676   2.582   7.032   2.546  0.3836 -0.2924  0.2754
46651SOL    HW151677   2.604   7.031   2.453  2.3621 -1.5229  0.6874
46651SOL    HW251678   2.601   7.122   2.574 -0.8527  0.2636 -0.6124
46652SOL     OW51679   4.362  10.170   5.014  0.0022  0.0566 -0.6944
46652SOL    HW151680   4.412  10.128   5.084  1.7779  0.4176 -1.6901
46652SOL    HW251681   4.270  10.150   5.035  0.4897 -0.0813  1.5453
46653SOL     OW51682   2.101   9.760   4.140 -0.4531  0.5543  0.1901
46653SOL    HW151683   2.086   9.802   4.055 -1.0367  1.6393  0.8003
46653SOL    HW251684   2.091   9.831   4.203 -1.5975 -0.5451  1.2848
46654SOL     OW51685   1.478  11.360   4.414  0.0043 -0.2207 -0.0352
46654SOL    HW151686   1.448  11.391   4.329 -1.9573 -2.1603 -0.1161
46654SOL    HW251687   1.408  11.303   4.446  1.0013 -0.1396  2.5694
46655SOL     OW51688   8.059   8.460   4.531  0.1743  0.3610 -0.3595
46655SOL    HW151689   8.100   8.539   4.497 -0.9295  0.3268 -1.8839
46655SOL    HW251690   8.129   8.395   4.534  1.1692  1.4376  1.2095
46656SOL     OW51691  10.020  11.404   4.833 -0.3702 -0.0665  0.8900
46656SOL    HW151692  10.095  11.347   4.817 -0.0015  0.9642 -1.5317
46656SOL    HW251693  10.054  11.475   4.887  1.4378  2.1498 -2.8168
46657SOL     OW51694   5.645   5.943  11.865 -0.2324  0.1064  0.5730
46657SOL    HW151695   5.740   5.941  11.856 -0.3206  1.0543 -0.9805
46657SOL    HW251696   5.630   5.964  11.957  0.9834 -2.8786  1.5688
46658SOL     OW51697   1.794   4.736  10.671  0.0905 -0.2175  0.1865
46658SOL    HW151698   1.760   4.792  10.742 -1.8060 -2.3408  1.0914
46658SOL    HW251699   1.739   4.758  10.596  1.3770  1.2486 -0.3722
46659SOL     OW51700  10.472   9.673   8.816  0.1198 -0.3321  0.6393
46659SOL    HW151701  10.479   9.768   8.802 -0.4115  0.1871  3.3150
46659SOL    HW251702  10.553   9.637   8.780  0.9890  1.3082  0.8581
46660SOL     OW51703   5.734   8.499  11.661 -0.3018 -0.6385 -0.5209
46660SOL    HW151704   5.810   8.466  11.614  0.1279  0.1691 -0.4060
46660SOL    HW251705   5.764   8.511  11.751  0.0448  1.5884 -0.8829
46661SOL     OW51706   3.067   4.168  11.047  0.4939 -0.5388 -0.1524
46661SOL    HW151707   3.143   4.157  11.103 -0.3545 -0.4326  1.0717
46661SOL    HW251708   2.998   4.118  11.090 -0.4331  0.3174 -0.5824
46662SOL     OW51709   5.935   9.615  10.189 -0.0900 -0.0305 -0.4098
46662SOL    HW151710   5.937   9.694  10.136  1.6137 -1.0167 -1.9003
46662SOL    HW251711   5.944   9.647  10.279  1.8430  1.4401 -1.0514
46663SOL     OW51712  11.449   5.585   7.792  0.3376 -0.5378  0.4105
46663SOL    HW151713  11.480   5.666   7.832 -0.5887  0.2437 -0.3959
46663SOL    HW251714  11.354   5.594   7.788  0.1634 -1.8976  0.7643
46664SOL     OW51715   9.137   4.607   7.041 -0.0673  0.2843 -0.2533
46664SOL    HW151716   9.123   4.590   6.948 -0.8051  0.7831 -0.2395
46664SOL    HW251717   9.083   4.683   7.060  0.6237  0.6207  0.4275
46665SOL     OW51718   0.866   4.411  10.095  0.1374 -0.4015 -0.2325
46665SOL    HW151719   0.786   4.387  10.049  0.4574 -1.0447 -0.4690
46665SOL    HW251720   0.859   4.506  10.109 -0.4639 -0.3860 -0.6284
46666SOL     OW51721   0.381   2.706   0.635  0.1475 -0.6744  0.2317
46666SOL    HW151722   0.295   2.732   0.604  1.0716  2.4309 -0.0508
46666SOL    HW251723   0.426   2.674   0.557 -0.1061 -0.3894 -0.0321
46667SOL     OW51724   5.204  10.438   9.760 -0.2866  0.4066  0.0919
46667SOL    HW151725   5.228  10.515   9.811 -0.4151  0.9840 -0.6972
46667SOL    HW251726   5.108  10.436   9.762 -0.2571 -0.3732  1.0306
46668SOL     OW51727   3.913   6.835   6.646 -0.2073  0.0694  0.0255
46668SOL    HW151728   3.846   6.799   6.705 -1.9621  0.2421 -1.7659
46668SOL    HW251729   3.864   6.876   6.575  1.8177  1.0696 -0.8900
46669SOL     OW51730   0.478  11.206  10.362 -0.3352 -0.0038 -0.4925
46669SOL    HW151731   0.553  11.189  10.420 -1.4788 -0.0364  1.0224
46669SOL    HW251732   0.460  11.299  10.373  0.9379  0.5797 -2.7115
46670SOL     OW51733  11.795   7.175   5.445  0.3597 -0.5009  0.0187
46670SOL    HW151734  11.855   7.163   5.372  0.1628  1.5117 -0.5498
46670SOL    HW251735  11.833   7.125   5.517  1.2286 -1.4892 -1.1077
46671SOL     OW51736   0.775   2.604   0.322 -0.2048  0.1749 -0.8799
46671SOL    HW151737   0.756   2.630   0.231 -1.8573  0.5416 -0.4633
46671SOL    HW251738   0.828   2.525   0.313  0.7964  0.9401 -2.1545
46672SOL     OW51739   8.451  10.307   0.711  0.4099  0.5525  0.1105
46672SOL    HW151740   8.458  10.213   0.727  2.0810  0.8555  1.4793
46672SOL    HW251741   8.371  10.334   0.756 -0.2243 -0.2314 -0.5207
46673SOL     OW51742   1.149   6.957   8.226  0.2147 -0.0388  0.2135
46673SOL    HW151743   1.154   7.036   8.172  0.9164 -1.1034 -1.3178
46673SOL    HW251744   1.179   6.987   8.313 -0.1514  1.5068 -0.1544
46674SOL     OW51745   8.711   3.369   3.197 -0.2792  0.2961  0.1248
46674SOL    HW151746   8.743   3.455   3.170 -0.4466 -0.1292 -1.5939
46674SOL    HW251747   8.789   3.324   3.230  0.1111  0.6204 -0.3311
46675SOL     OW51748   8.443   3.905   2.917  0.5576  0.3564  0.1923
46675SOL    HW151749   8.383   3.928   2.988  0.9400  0.7186  0.4036
46675SOL    HW251750   8.498   3.835   2.954  0.1431 -0.1200 -0.0691
46676SOL     OW51751   2.618  10.616   2.707 -0.4383 -0.0777 -0.0697
46676SOL    HW151752   2.599  10.545   2.646  2.4077 -0.9925 -0.0430
46676SOL    HW251753   2.618  10.575   2.793  1.6453 -0.2556 -0.0883
46677SOL     OW51754   7.797   4.907   4.299  0.2926  0.2795 -0.4104
46677SOL    HW151755   7.713   4.921   4.344  0.0567  0.0936 -0.7866
46677SOL    HW251756   7.778   4.841   4.233  0.9422 -0.3920  0.0674
46678SOL     OW51757   3.279   2.279   6.193  0.4231 -0.3754 -0.1661
46678SOL    HW151758   3.339   2.343   6.154  0.4852 -0.4195 -0.1432
46678SOL    HW251759   3.280   2.299   6.287  0.7484 -0.6634 -0.1066
46679SOL     OW51760   9.632  10.592   5.249 -0.2567 -0.2423 -0.1478
46679SOL    HW151761   9.637  10.641   5.330 -0.5223 -0.5523  0.0576
46679SOL    HW251762   9.572  10.641   5.194  0.6984  0.5130 -0.5410
46680SOL     OW51763   3.898   3.141   6.771  0.2083 -0.0499  0.3564
46680SOL    HW151764   3.871   3.085   6.844  0.8930  0.1027  0.7390
46680SOL    HW251765   3.940   3.216   6.813  0.4537  0.1223 -0.1918
46681SOL     OW51766   3.547   2.619   8.151  0.0966  0.0030  0.4347
46681SOL    HW151767   3.483   2.601   8.220  1.0201  0.1554  1.3558
46681SOL    HW251768   3.535   2.547   8.089 -1.3030  0.3043  0.3181
46682SOL     OW51769   5.872   0.146   0.080 -0.0828  0.3444 -0.5738
46682SOL    HW151770   5.962   0.145   0.110 -0.3962  3.0817  0.7690
46682SOL    HW251771   5.826   0.085   0.138  0.6967 -0.2425 -0.5636
46683SOL     OW51772   5.187   8.532  11.535 -0.0134  0.1052  0.1494
46683SOL    HW151773   5.104   8.487  11.524 -0.0745  0.2168  0.1527
46683SOL    HW251774   5.248   8.486  11.477 -0.1628  0.2456 -0.1185
46684SOL     OW51775   1.126  10.169   7.361  0.3534 -0.0158 -0.3865
46684SOL    HW151776   1.210  10.168   7.408  0.1064  1.1360  0.1013
46684SOL    HW251777   1.148  10.201   7.274  0.6586 -1.2545 -0.7916
46685SOL     OW51778   4.167   2.945   6.133 -0.3204 -0.0800 -0.3996
46685SOL    HW151779   4.072   2.951   6.147 -0.5992 -0.8968 -1.7876
46685SOL    HW251780   4.178   2.870   6.075  1.1894  0.0328 -0.2994
46686SOL     OW51781   5.508   4.676   4.511  0.0325  0.0608 -0.0518
46686SOL    HW151782   5.580   4.616   4.526  0.4381  0.9391  1.8105
46686SOL    HW251783   5.531   4.755   4.561 -0.9554  1.3934 -1.5779
46687SOL     OW51784   3.607   8.315  10.254 -0.1599 -0.5285  0.7551
46687SOL    HW151785   3.671   8.259  10.299 -2.2531 -1.9143  2.2080
46687SOL    HW251786   3.573   8.371  10.323 -0.2511  0.4627 -0.0812
46688SOL     OW51787   8.490   5.940   1.435  0.3357 -0.4568 -0.4249
46688SOL    HW151788   8.570   5.899   1.402  0.3698 -0.5821 -0.1891
46688SOL    HW251789   8.433   5.947   1.359  0.9016  0.4193 -0.7813
46689SOL     OW51790   3.198   0.120   6.331 -0.1029  0.1667 -0.0280
46689SOL    HW151791   3.268   0.054   6.338 -1.3952 -1.4379 -1.2647
46689SOL    HW251792   3.132   0.092   6.394 -0.7818  0.1049 -0.7504
46690SOL     OW51793   2.985   9.518  11.336 -0.3566  0.1469 -0.0133
46690SOL    HW151794   2.995   9.436  11.384  1.7543  0.4498  0.1819
46690SOL    HW251795   3.070   9.532  11.295 -1.5912  0.7316 -2.5645
46691SOL     OW51796   8.095   2.231   6.414  0.4489 -0.3920 -0.3702
46691SOL    HW151797   8.165   2.289   6.447  0.3546 -0.2891 -0.3518
46691SOL    HW251798   8.108   2.230   6.319  0.5801 -0.5074 -0.3517
46692SOL     OW51799   6.139  10.490  10.592 -0.0523  0.5136  0.2393
46692SOL    HW151800   6.069  10.522  10.536 -0.2075  1.5838  1.0197
46692SOL    HW251801   6.096  10.427  10.651 -0.2636  0.7876  0.3800
46693SOL     OW51802   0.306   1.947   4.850 -0.5391  0.4274 -0.2132
46693SOL    HW151803   0.293   1.852   4.849 -2.8492  0.6991 -1.0878
46693SOL    HW251804   0.363   1.963   4.775 -0.9660 -0.1916 -0.6845
46694SOL     OW51805   0.094   7.766   7.791  0.0571 -0.3312 -0.2450
46694SOL    HW151806   0.013   7.777   7.741  0.9910  1.1508 -1.5314
46694SOL    HW251807   0.131   7.684   7.759 -0.0014 -0.0475 -1.0573
46695SOL     OW51808   4.810   7.808   9.381 -0.1235  0.3573  0.2559
46695SOL    HW151809   4.798   7.766   9.465 -1.2171 -0.6159 -0.3678
46695SOL    HW251810   4.784   7.899   9.395 -0.8712  0.0605  0.8203
46696SOL     OW51811   4.176   9.207   8.522 -0.0511 -0.0982  0.8105
46696SOL    HW151812   4.081   9.208   8.529 -0.1670  3.7215  1.0756
46696SOL    HW251813   4.207   9.192   8.612 -0.3911 -0.9494  0.7907
46697SOL     OW51814   7.212  11.672   7.811  0.2271 -0.0995 -0.2020
46697SOL    HW151815   7.264  11.642   7.737  0.0351 -0.8969 -0.0167
46697SOL    HW251816   7.237  11.615   7.883  0.5844  0.8169  0.4222
46698SOL     OW51817   4.481   6.534   2.773 -0.0392  0.1327 -0.0098
46698SOL    HW151818   4.393   6.567   2.756 -0.8234 -1.4376  0.8522
46698SOL    HW251819   4.518   6.518   2.686 -0.0003  2.2202 -0.4279
46699SOL     OW51820   3.004  10.135   8.894  0.1498 -0.1093 -0.7840
46699SOL    HW151821   3.037  10.186   8.820  1.9071 -0.1305 -0.0557
46699SOL    HW251822   3.009  10.194   8.969  0.3635 -0.7191 -0.3049
46700SOL     OW51823   6.886   9.818   1.471 -0.0426 -0.4120  0.5181
46700SOL    HW151824   6.876   9.859   1.385 -1.8035  0.5154  1.1246
46700SOL    HW251825   6.971   9.850   1.503  0.2886 -0.1844 -0.5442
46701SOL     OW51826  11.157   2.592   6.693 -0.0907 -0.1076 -0.4838
46701SOL    HW151827  11.116   2.677   6.675 -0.4517 -0.2124 -0.1577
46701SOL    HW251828  11.108   2.556   6.766  0.3653 -0.3935 -0.3125
46702SOL     OW51829   9.867   7.776   7.718 -1.0223  0.1418  0.3604
46702SOL    HW151830   9.913   7.706   7.673  0.2509  0.6613  0.8048
46702SOL    HW251831   9.829   7.829   7.648  1.1936  1.1166 -0.1963
46703SOL     OW51832   9.559   5.533   3.569 -0.3669 -0.4466 -0.4761
46703SOL    HW151833   9.470   5.519   3.602 -0.2041  0.7902  0.5914
46703SOL    HW251834   9.586   5.616   3.608  1.4814 -1.0849 -0.2662
46704SOL     OW51835   2.175   3.908   5.784  0.2722 -0.1491 -0.2126
46704SOL    HW151836   2.172   4.001   5.809  0.7378  0.0598 -0.8914
46704SOL    HW251837   2.266   3.894   5.756  1.0202 -1.5421  2.5585
46705SOL     OW51838   8.734   0.552   0.660 -0.2313 -0.3419 -0.6712
46705SOL    HW151839   8.774   0.598   0.587  1.1820 -0.4010  0.0340
46705SOL    HW251840   8.807   0.511   0.707 -1.2489 -1.6485 -0.1358
46706SOL     OW51841   5.443   3.115   1.823 -0.4971  0.8281  0.0229
46706SOL    HW151842   5.448   3.036   1.769 -0.0126  0.6059  0.3922
46706SOL    HW251843   5.492   3.181   1.774  0.1970  0.5453  0.3259
46707SOL     OW51844   6.673   5.298   4.409  0.4530  0.2859  0.1511
46707SOL    HW151845   6.594   5.342   4.440 -1.4567 -4.1789  2.4849
46707SOL    HW251846   6.740   5.321   4.472 -0.1537  0.7558  0.6363
46708SOL     OW51847  10.986   7.296  10.808  0.1664  0.5319  0.5020
46708SOL    HW151848  10.924   7.303  10.735  1.7655  1.7344 -0.8213
46708SOL    HW251849  10.949   7.353  10.875 -2.0193 -1.5877  1.2720
46709SOL     OW51850  11.608  11.545   6.154 -0.8669 -0.1180  0.0405
46709SOL    HW151851  11.568  11.480   6.212 -1.8376  0.9056  0.5724
46709SOL    HW251852  11.653  11.605   6.214  0.1729 -0.3751 -0.4550
46710SOL     OW51853   8.392   3.010  10.673  0.7732  0.7113  0.0446
46710SOL    HW151854   8.326   3.052  10.617  0.4735  0.6645  0.3593
46710SOL    HW251855   8.453   2.970  10.611  1.7299  2.5834 -0.2804
46711SOL     OW51856   6.400   7.567   1.312 -0.1043  0.5167  0.2031
46711SOL    HW151857   6.337   7.608   1.252  0.8443  1.1959 -0.3577
46711SOL    HW251858   6.481   7.615   1.297  0.1557  0.7032  2.0702
46712SOL     OW51859   0.994   0.179   7.819 -0.2036  0.2414 -0.0611
46712SOL    HW151860   0.917   0.192   7.763 -0.1410  2.9572  0.3444
46712SOL    HW251861   1.067   0.214   7.767  0.5369 -1.0251  0.1071
46713SOL     OW51862   8.816   4.838   5.147 -0.1489 -0.4653  0.9010
46713SOL    HW151863   8.741   4.827   5.205  0.1931  0.3102  1.5085
46713SOL    HW251864   8.779   4.845   5.059 -0.6047 -3.1215  0.7895
46714SOL     OW51865  10.872   7.312   2.148  0.1141 -0.6003  0.3259
46714SOL    HW151866  10.811   7.287   2.078  2.1070 -0.7656 -1.4408
46714SOL    HW251867  10.911   7.229   2.177  0.2473 -0.4010  0.7285
46715SOL     OW51868   3.721   2.441   3.927  0.2554  0.3070  0.1228
46715SOL    HW151869   3.660   2.497   3.975 -0.5085 -0.6737  0.3202
46715SOL    HW251870   3.669   2.401   3.858  0.4070 -1.3034  0.8890
46716SOL     OW51871  10.594   5.477   7.619 -0.3422  0.0836  0.5951
46716SOL    HW151872  10.682   5.474   7.580 -0.2415 -0.4268  0.8565
46716SOL    HW251873  10.590   5.564   7.659 -0.3665  0.5374 -0.3505
46717SOL     OW51874   7.973  11.588   0.285 -0.3248 -0.3305  0.1033
46717SOL    HW151875   7.920  11.510   0.303 -1.3747  0.3665  0.0785
46717SOL    HW251876   8.062  11.562   0.311 -0.3372 -2.0520 -1.3091
46718SOL     OW51877   0.904   2.404   4.775 -0.2015 -0.1950  0.1166
46718SOL    HW151878   0.918   2.362   4.690  0.6041  0.8791 -0.3099
46718SOL    HW251879   0.845   2.477   4.756  2.4031  1.9912 -0.2030
46719SOL     OW51880   9.472   8.342  10.632 -0.0376  0.5788  0.4658
46719SOL    HW151881   9.457   8.348  10.537 -0.6359  0.6544  0.5611
46719SOL    HW251882   9.534   8.271  10.642 -0.6651 -0.0345  0.0800
46720SOL     OW51883   8.262   3.998   3.112 -0.1912 -0.2522  0.2094
46720SOL    HW151884   8.264   4.094   3.115 -0.6802 -0.1896 -0.9745
46720SOL    HW251885   8.213   3.973   3.190 -1.1842  0.5349 -0.1351
46721SOL     OW51886   6.160   8.538   3.205 -0.7358  0.1411 -0.3754
46721SOL    HW151887   6.142   8.452   3.167 -0.1318 -0.3376  0.3967
46721SOL    HW251888   6.116   8.600   3.146 -1.0689 -0.6802 -1.0092
46722SOL     OW51889  11.622   1.136  11.653  0.4775  0.4001  0.3176
46722SOL    HW151890  11.700   1.094  11.690 -0.7005 -0.1667  2.3313
46722SOL    HW251891  11.602   1.085  11.574  0.4397 -1.3926  1.4355
46723SOL     OW51892   7.799   2.373   1.868 -0.0910 -0.1863 -1.0956
46723SOL    HW151893   7.748   2.422   1.934 -0.8815  0.9910 -2.5279
46723SOL    HW251894   7.760   2.285   1.869  1.6266 -1.0629  1.8237
46724SOL     OW51895   5.851   5.854  11.378 -0.1672 -0.1068 -0.5431
46724SOL    HW151896   5.815   5.794  11.443 -1.1570  0.4916 -0.5326
46724SOL    HW251897   5.860   5.938  11.423  0.4980 -0.0398 -0.7789
46725SOL     OW51898   9.959   3.351   0.392  0.0911  0.1282 -0.5282
46725SOL    HW151899   9.999   3.276   0.435 -0.7295  0.4295  0.8315
46725SOL    HW251900   9.993   3.427   0.440 -0.9755  0.4583 -0.2492
46726SOL     OW51901   2.610   6.194   2.213  0.0439  1.1485  0.2133
46726SOL    HW151902   2.635   6.176   2.303  1.2954 -0.4339 -0.3942
46726SOL    HW251903   2.543   6.128   2.193  0.1091  1.1843 -0.1417
46727SOL     OW51904   4.711   8.328   5.266  0.1088  0.4973 -0.2800
46727SOL    HW151905   4.716   8.232   5.262 -2.1772  0.2112  1.4867
46727SOL    HW251906   4.722   8.357   5.175 -0.8143 -1.5552 -1.1070
46728SOL     OW51907   7.012   7.636   4.584  0.2756  0.0912 -0.4382
46728SOL    HW151908   6.977   7.547   4.571  0.3881  0.2880 -2.3739
46728SOL    HW251909   7.104   7.629   4.562  0.0339  0.9188 -1.7851
46729SOL     OW51910   6.404   5.407   7.688  0.0101 -0.0088 -0.2056
46729SOL    HW151911   6.360   5.471   7.632 -1.0226 -0.9884 -0.5711
46729SOL    HW251912   6.461   5.359   7.628 -0.5287 -0.5571 -0.2982
46730SOL     OW51913   4.658   5.211  10.901 -0.2793  0.5306  0.1999
46730SOL    HW151914   4.588   5.163  10.857 -0.2658  1.1426 -0.5310
46730SOL    HW251915   4.643   5.197  10.994 -0.7079 -0.2589  0.0219
46731SOL     OW51916   4.867   0.641   7.949 -0.4796 -0.3367 -0.0419
46731SOL    HW151917   4.785   0.690   7.950  0.4776  1.3514  0.2291
46731SOL    HW251918   4.877   0.610   7.859 -1.3389 -0.4365 -0.1050
46732SOL     OW51919   1.387  11.942   4.918 -0.2316 -0.0593 -0.9373
46732SOL    HW151920   1.316  11.938   4.853 -2.3317 -0.6964  1.2737
46732SOL    HW251921   1.371  11.868   4.976  0.8563  1.1832  1.0363
46733SOL     OW51922   7.126   7.288   2.021 -0.0543 -0.1300 -0.0610
46733SOL    HW151923   7.101   7.247   1.938 -2.1412  1.4696 -0.3129
46733SOL    HW251924   7.126   7.216   2.084  1.2647 -1.3238 -1.3589
46734SOL     OW51925   2.558   9.743   2.155 -0.2990  0.7565  0.1464
46734SOL    HW151926   2.466   9.720   2.140 -0.1996  0.6662 -0.3745
46734SOL    HW251927   2.602   9.658   2.165 -0.4826  0.8325  1.8052
46735SOL     OW51928   0.678   7.978   4.417  0.2721 -0.0116 -0.0298
46735SOL    HW151929   0.726   7.996   4.336  0.8842 -0.5562  0.2072
46735SOL    HW251930   0.594   7.941   4.387  0.5301 -0.2895 -0.4185
46736SOL     OW51931   3.017   7.394  10.963 -0.1711 -0.7370  0.0977
46736SOL    HW151932   3.102   7.428  10.935 -1.4148  1.5957 -1.1949
46736SOL    HW251933   2.966   7.388  10.882 -1.5670 -1.0267  0.9632
46737SOL     OW51934  11.529   2.383  10.026 -0.0845  0.2464  0.0844
46737SOL    HW151935  11.482   2.466  10.038 -2.0517 -1.0998  2.6137
46737SOL    HW251936  11.460   2.319  10.008  1.0797 -1.3024  0.9389
46738SOL     OW51937   6.261   9.031   8.708 -0.1637 -0.1369 -0.2488
46738SOL    HW151938   6.247   9.120   8.675 -0.8425  0.1210  0.6958
46738SOL    HW251939   6.256   8.976   8.630 -0.3478  0.5894 -0.7675
46739SOL     OW51940   7.379  11.286   4.521  0.2028  0.6676  0.8030
46739SOL    HW151941   7.284  11.288   4.526  0.1929  0.9066  0.5644
46739SOL    HW251942   7.399  11.304   4.429  0.3785 -3.1396 -0.0600
46740SOL     OW51943   7.587   9.070   0.502 -0.2923 -0.2375  0.3221
46740SOL    HW151944   7.510   9.105   0.545  0.3034 -0.9915  2.1276
46740SOL    HW251945   7.614   8.996   0.558 -0.8510 -2.9152 -2.6374
46741SOL     OW51946  11.516   2.089   7.286  0.2585  0.7257 -0.1837
46741SOL    HW151947  11.439   2.141   7.265  1.0291  1.5974 -1.0056
46741SOL    HW251948  11.573   2.150   7.334  0.2640 -0.0295  0.7831
46742SOL     OW51949   1.694   0.883   6.302  0.2979  0.1096  0.5607
46742SOL    HW151950   1.649   0.923   6.228 -0.3507 -0.5679  0.5740
46742SOL    HW251951   1.624   0.866   6.366  0.8337  0.6011  1.2908
46743SOL     OW51952   1.059   3.451   8.724 -0.0992 -0.2428  0.4694
46743SOL    HW151953   0.986   3.511   8.715 -1.0778 -1.0895  2.2197
46743SOL    HW251954   1.128   3.487   8.669 -1.7647  0.6715 -1.0819
46744SOL     OW51955   7.319   7.317   4.271  0.2201  0.0159  0.1714
46744SOL    HW151956   7.409   7.344   4.289 -0.2870  1.9168  0.1139
46744SOL    HW251957   7.328   7.230   4.232  1.9950 -0.0151  0.5319
46745SOL     OW51958  10.831   9.424   6.749 -0.3227  0.0855  0.1952
46745SOL    HW151959  10.906   9.376   6.784 -1.5587 -1.0951  1.3233
46745SOL    HW251960  10.799   9.476   6.823 -0.1256  1.2646 -0.5179
46746SOL     OW51961   2.801   8.125   0.015 -0.0414 -0.2999 -0.4566
46746SOL    HW151962   2.854   8.088  -0.056  1.5350 -0.4887  0.7624
46746SOL    HW251963   2.855   8.196   0.051 -1.8934  1.5000 -1.0446
46747SOL     OW51964  10.656   1.207   6.121 -0.0306  0.1529 -0.5210
46747SOL    HW151965  10.621   1.249   6.042 -2.4228 -0.1163  0.3133
46747SOL    HW251966  10.750   1.224   6.117  0.2614 -1.1956 -4.2544
46748SOL     OW51967   7.772   5.352   0.043  0.2689  0.2528 -0.7142
46748SOL    HW151968   7.812   5.265   0.046  0.0542  0.1876  0.8851
46748SOL    HW251969   7.688   5.342   0.087 -0.5161  0.9215 -1.9886
46749SOL     OW51970   2.906   4.862   1.256 -0.3203 -0.1968  0.4334
46749SOL    HW151971   2.875   4.947   1.287 -1.2467 -0.7223  1.0385
46749SOL    HW251972   2.830   4.825   1.210  0.3522 -0.3379 -0.5853
46750SOL     OW51973   5.773  11.440   5.632  0.4087 -0.3826  0.2079
46750SOL    HW151974   5.865  11.413   5.623 -0.0203 -2.7753  1.9762
46750SOL    HW251975   5.724  11.375   5.582 -0.3720  0.6774 -0.4305
46751SOL     OW51976   5.553   2.711   6.660 -0.2650  0.2149  0.3380
46751SOL    HW151977   5.633   2.670   6.693  0.1630  0.5825 -0.2133
46751SOL    HW251978   5.575   2.804   6.654 -0.6555  0.2881 -0.0326
46752SOL     OW51979   2.117   1.397   7.262  0.0849  0.2270 -0.6312
46752SOL    HW151980   2.031   1.422   7.296  0.0723  0.4386 -0.8150
46752SOL    HW251981   2.122   1.303   7.278 -0.3459  0.1403 -0.9771
46753SOL     OW51982  11.881   4.849   4.014 -0.5308  0.1313  0.3826
46753SOL    HW151983  11.953   4.844   3.951 -0.3224  1.1926  0.5263
46753SOL    HW251984  11.824   4.918   3.980  0.2058  1.6048  1.9620
46754SOL     OW51985   6.998   3.892   2.997  0.0160  0.0124  0.1005
46754SOL    HW151986   7.024   3.890   3.089 -0.5568  0.4951  0.2783
46754SOL    HW251987   7.007   3.983   2.971  0.3547 -0.1549 -0.3777
46755SOL     OW51988   8.345  11.841  10.781  0.0844 -0.3259  0.9707
46755SOL    HW151989   8.257  11.826  10.746 -0.3325  1.1884  1.2654
46755SOL    HW251990   8.385  11.755  10.785 -0.7307 -0.8417 -0.9086
46756SOL     OW51991  10.919  11.824   9.315  0.3235  0.1693  0.3103
46756SOL    HW151992  10.887  11.893   9.256  1.3508  0.7804  0.4471
46756SOL    HW251993  10.853  11.820   9.384  1.0670  2.2484  1.2249
46757SOL     OW51994   8.012   9.625   2.071 -0.0263 -0.0543  0.6071
46757SOL    HW151995   8.029   9.716   2.047 -1.4681 -0.2235 -1.2561
46757SOL    HW251996   8.014   9.578   1.988 -0.1402 -1.6015  1.4461
46758SOL     OW51997   5.395   1.435   3.453  0.3273 -0.6225  0.0338
46758SOL    HW151998   5.358   1.444   3.541  0.1631  2.6549 -0.2316
46758SOL    HW251999   5.335   1.376   3.408 -2.5845  1.5874  0.7180
46759SOL     OW52000   5.317   6.409   8.233  0.1714  0.0684 -0.2415
46759SOL    HW152001   5.290   6.421   8.142 -0.4001  0.4718 -0.0248
46759SOL    HW252002   5.267   6.474   8.282  2.6781  1.9990 -0.0118
46760SOL     OW52003   6.353   9.474   1.027 -0.2308 -0.0712  0.1499
46760SOL    HW152004   6.387   9.440   1.110  1.5086  1.3725  0.0921
46760SOL    HW252005   6.431   9.486   0.972 -0.8117  2.8551 -0.1995
46761SOL     OW52006   4.472   1.879   0.893  0.1565  0.1904  0.7618
46761SOL    HW152007   4.409   1.882   0.821  0.9578 -0.1203  0.0288
46761SOL    HW252008   4.471   1.787   0.920  1.9822 -0.3548 -0.8227
46762SOL     OW52009   2.488   8.994  11.915 -0.4089 -0.3104  0.5135
46762SOL    HW152010   2.492   9.089  11.904 -0.4052 -0.4483 -0.8585
46762SOL    HW252011   2.467   8.961  11.828 -2.1315 -1.4743  1.3065
46763SOL     OW52012   3.820  11.099   1.563 -0.3387 -0.1504 -0.1918
46763SOL    HW152013   3.777  11.112   1.478  2.0014 -0.0295 -1.4245
46763SOL    HW252014   3.876  11.023   1.551  0.4728  0.2145  1.0628
46764SOL     OW52015   2.789   8.634   4.424  0.1682 -0.1805  0.0772
46764SOL    HW152016   2.732   8.700   4.386  0.4821  0.3285  0.4786
46764SOL    HW252017   2.735   8.590   4.489  0.1303  0.0769  0.2215
46765SOL     OW52018   7.577   1.477  10.251  0.3965 -0.5952 -0.0200
46765SOL    HW152019   7.488   1.443  10.240  1.5957 -4.0033 -0.2339
46765SOL    HW252020   7.583   1.549  10.188 -1.9472 -0.7568 -0.5239
46766SOL     OW52021   9.006   0.586   6.974 -0.6315  0.6555  1.0508
46766SOL    HW152022   8.941   0.562   6.908 -0.9730  0.5688  1.4128
46766SOL    HW252023   9.002   0.681   6.980  0.1950  0.7648  0.1478
46767SOL     OW52024   7.633   4.809   9.850 -0.1709 -0.3199 -0.1781
46767SOL    HW152025   7.696   4.826   9.919  0.4347  3.0887 -1.3928
46767SOL    HW252026   7.548   4.807   9.894  0.2831  0.8441  0.7945
46768SOL     OW52027  11.920   8.254   7.917  0.3938  0.2287  0.4268
46768SOL    HW152028  11.857   8.270   7.988 -0.8059 -1.3457 -0.2160
46768SOL    HW252029  12.003   8.289   7.950 -0.3003  0.2370  2.2807
46769SOL     OW52030   7.423   2.931   5.573  0.1139 -0.1639  0.0581
46769SOL    HW152031   7.495   2.971   5.622  1.4473  0.5279 -2.2965
46769SOL    HW252032   7.462   2.907   5.489 -1.8756 -1.9409 -0.4336
46770SOL     OW52033   2.532   3.843   1.334 -0.4165 -0.4539  0.2540
46770SOL    HW152034   2.557   3.822   1.425  1.5395  2.4989  0.5583
46770SOL    HW252035   2.615   3.842   1.287 -0.7596  2.1078 -0.5287
46771SOL     OW52036   6.943   4.552  11.304 -0.9259  0.6610 -0.1262
46771SOL    HW152037   6.933   4.526  11.396 -1.4252 -0.0772 -0.3822
46771SOL    HW252038   6.879   4.499  11.257  0.4475 -0.1713 -1.1177
46772SOL     OW52039   1.745   7.883   0.231  0.0618 -0.4606  0.2788
46772SOL    HW152040   1.804   7.818   0.192  1.0170  1.3750 -1.4777
46772SOL    HW252041   1.797   7.963   0.236 -2.0127  1.0104 -0.5235
46773SOL     OW52042   4.703   0.148   3.230 -0.2154  0.7228  0.2183
46773SOL    HW152043   4.792   0.148   3.195  0.1033 -0.0113  0.9728
46773SOL    HW252044   4.676   0.240   3.230  1.3463  1.2394  1.9171
46774SOL     OW52045  10.516   9.386  10.115  0.1039  0.4740 -0.3557
46774SOL    HW152046  10.556   9.425  10.193 -0.3312  0.5348 -0.1565
46774SOL    HW252047  10.440   9.442  10.098 -0.8568 -0.5983  0.2616
46775SOL     OW52048   9.263   9.842   1.794 -0.3528 -0.0239  0.4810
46775SOL    HW152049   9.258   9.774   1.727  0.3743  0.3669  0.0161
46775SOL    HW252050   9.182   9.892   1.784 -0.1112  0.2205 -0.3227
46776SOL     OW52051   2.627   0.514   2.543  0.0279  0.9356 -0.1348
46776SOL    HW152052   2.629   0.424   2.577 -1.6154  1.4199  1.3755
46776SOL    HW252053   2.710   0.552   2.571 -0.5697  0.7979  1.9495
46777SOL     OW52054   2.900   9.191   9.618  0.6183 -0.1223 -0.1590
46777SOL    HW152055   2.956   9.175   9.694  1.0698  0.1036 -0.4429
46777SOL    HW252056   2.954   9.243   9.559 -0.5968  1.9735  0.4590
46778SOL     OW52057   6.506   2.012   0.324 -0.1700  0.1800 -0.0388
46778SOL    HW152058   6.431   2.072   0.322 -0.0332  0.3543 -0.0301
46778SOL    HW252059   6.470   1.927   0.300  0.0128  0.6957 -2.3846
46779SOL     OW52060   7.462   0.889   2.523  0.9013 -0.3095  0.0036
46779SOL    HW152061   7.375   0.860   2.497  1.1408 -0.2550 -0.8819
46779SOL    HW252062   7.446   0.944   2.600  0.1654 -0.3696 -0.0948
46780SOL     OW52063   8.485   1.499  10.184 -0.0652  0.6166  0.1460
46780SOL    HW152064   8.448   1.585  10.204 -0.2200  0.3341  1.1141
46780SOL    HW252065   8.548   1.483  10.255  2.2192  1.2330 -1.6012
46781SOL     OW52066   7.758   9.438   8.841  0.1049  0.2499  0.0056
46781SOL    HW152067   7.772   9.525   8.802  0.3938 -0.0880 -0.6700
46781SOL    HW252068   7.673   9.444   8.883 -0.3158  0.5764 -0.8644
46782SOL     OW52069   6.703   5.329   9.839 -0.1236 -0.0192 -0.4981
46782SOL    HW152070   6.644   5.403   9.822 -1.8069 -1.0094  0.6952
46782SOL    HW252071   6.723   5.335   9.932  0.0437 -0.8345 -0.4764
46783SOL     OW52072   5.661   3.075  10.621 -0.0162 -0.0980 -0.3652
46783SOL    HW152073   5.581   3.089  10.672  1.1169 -0.5002  1.6273
46783SOL    HW252074   5.661   3.146  10.557 -0.7350  1.3790  1.2058
46784SOL     OW52075  10.396  10.369   7.940  0.4328 -0.8568 -0.4634
46784SOL    HW152076  10.491  10.376   7.955  0.5801 -0.2532 -1.5360
46784SOL    HW252077  10.361  10.453   7.971  0.2778 -0.9985 -0.2540
46785SOL     OW52078   0.062   6.625   4.826  0.0804  0.6978 -0.1858
46785SOL    HW152079  -0.027   6.588   4.825  0.0047  0.8105  0.9201
46785SOL    HW252080   0.048   6.719   4.827  0.1891  0.7141  0.4273
46786SOL     OW52081   4.611   5.035   7.425 -0.3645 -0.7300 -0.3423
46786SOL    HW152082   4.570   4.997   7.502 -0.4952 -0.5095 -0.3004
46786SOL    HW252083   4.703   5.046   7.449 -0.6681  0.6549  0.3063
46787SOL     OW52084   6.603   9.816   9.763  0.3378  0.0302 -0.4402
46787SOL    HW152085   6.626   9.739   9.814  0.4677  0.5769  0.3435
46787SOL    HW252086   6.668   9.882   9.786 -0.4103  0.7298 -0.2421
46788SOL     OW52087   4.251  10.827   1.443  0.1062  0.5527  0.1203
46788SOL    HW152088   4.236  10.812   1.350  2.1472  2.5109 -0.6120
46788SOL    HW252089   4.280  10.742   1.477  0.3782  0.0711 -1.2666
46789SOL     OW52090  11.347   4.648   3.377  0.3033  0.3849  0.3234
46789SOL    HW152091  11.259   4.616   3.354 -0.3351  1.9984  0.4291
46789SOL    HW252092  11.355   4.731   3.332  2.8261 -0.8648 -1.7629
46790SOL     OW52093   1.567   0.034  10.927  0.2764  0.7649 -0.6578
46790SOL    HW152094   1.635   0.091  10.892  0.9105 -0.4165 -1.3920
46790SOL    HW252095   1.602  -0.055  10.918 -0.6143  0.2544  0.6365
46791SOL     OW52096  10.071  11.095   6.693 -0.3991  0.9436 -0.5878
46791SOL    HW152097  10.156  11.068   6.728 -0.2730  0.9142 -0.9029
46791SOL    HW252098  10.036  11.155   6.758 -1.2106 -0.8453  0.6916
46792SOL     OW52099   6.550   5.657   5.974 -0.3014  0.5577 -0.6154
46792SOL    HW152100   6.464   5.696   5.990  0.0052  1.0423 -0.0793
46792SOL    HW252101   6.612   5.725   6.002  0.2521  0.0403 -0.5611
46793SOL     OW52102  11.506   8.203   6.385 -0.7624  0.5821  0.2202
46793SOL    HW152103  11.417   8.230   6.365 -1.2041 -0.9062  0.0985
46793SOL    HW252104  11.559   8.246   6.317 -1.9335 -2.1879 -2.6959
46794SOL     OW52105   7.390   3.503  10.764 -0.6903  0.2598  0.4644
46794SOL    HW152106   7.441   3.559  10.821 -0.8504 -0.9120  1.8088
46794SOL    HW252107   7.299   3.516  10.791 -0.6573 -1.3472  1.5155
46795SOL     OW52108   3.310   7.302   7.264 -0.0572 -0.4611  0.0036
46795SOL    HW152109   3.373   7.361   7.222 -1.1681 -1.0608 -2.7327
46795SOL    HW252110   3.230   7.312   7.212 -2.0640 -0.2708  2.9087
46796SOL     OW52111   9.031   9.545   5.666  0.1583  0.5845 -0.2784
46796SOL    HW152112   9.043   9.533   5.572  1.8699 -3.9962  0.3067
46796SOL    HW252113   8.946   9.505   5.685  0.5941 -0.0794  0.3153
46797SOL     OW52114   7.363   8.145   4.163  0.1183 -0.1569  0.1095
46797SOL    HW152115   7.341   8.174   4.075 -0.1556 -0.1703  0.1717
46797SOL    HW252116   7.342   8.052   4.164 -0.3056 -0.0616  0.3218
46798SOL     OW52117   2.219   6.822   5.192 -0.1895 -0.1465  0.1147
46798SOL    HW152118   2.277   6.896   5.176 -2.0100  1.3903  0.2671
46798SOL    HW252119   2.168   6.814   5.111 -0.8744 -0.4024  0.5591
46799SOL     OW52120   5.532   5.643   1.691  0.2738  0.3084 -0.2811
46799SOL    HW152121   5.589   5.605   1.624 -1.3514 -1.0360 -0.9854
46799SOL    HW252122   5.521   5.735   1.664 -1.7145 -0.5754 -2.9691
46800SOL     OW52123   2.816   3.968   8.615 -0.0936  0.5020 -0.2002
46800SOL    HW152124   2.785   3.878   8.615  1.3363 -0.0207 -0.7131
46800SOL    HW252125   2.738   4.020   8.633 -0.9089 -0.8393  0.3054
46801SOL     OW52126   3.188   5.554   9.521  0.1896  0.0544  0.2893
46801SOL    HW152127   3.266   5.521   9.476 -0.1864  0.1053 -0.4118
46801SOL    HW252128   3.223   5.605   9.594  0.8703  1.4093 -0.9233
46802SOL     OW52129   2.603   8.033   4.896 -0.7587 -0.0364  0.6953
46802SOL    HW152130   2.539   8.001   4.832  0.5475  0.7857 -1.1183
46802SOL    HW252131   2.648   7.954   4.926 -0.2084 -0.3121 -0.7702
46803SOL     OW52132   2.836   4.981   8.516  0.0909 -0.1991 -0.0602
46803SOL    HW152133   2.786   4.924   8.575  0.3573 -1.6594 -1.1866
46803SOL    HW252134   2.789   4.974   8.432  1.4715 -0.6388 -0.8191
46804SOL     OW52135   8.108   8.019   9.361 -0.1155 -0.2256 -0.1746
46804SOL    HW152136   8.018   8.011   9.328 -0.0644  0.5604 -0.5210
46804SOL    HW252137   8.152   7.942   9.325 -0.1359  0.4555 -1.7740
46805SOL     OW52138   3.131   8.376  10.784 -0.1355 -0.1744  0.0841
46805SOL    HW152139   3.204   8.394  10.844 -0.0120  0.0008 -0.1192
46805SOL    HW252140   3.123   8.456  10.732 -0.4846 -0.1846  0.1176
46806SOL     OW52141   0.408   7.455   2.817 -0.3531  0.4061  0.1179
46806SOL    HW152142   0.461   7.391   2.769  0.1694 -0.0794  1.2896
46806SOL    HW252143   0.465   7.530   2.828 -0.6557  0.7294 -0.4642
46807SOL     OW52144   7.975   9.203   6.271 -0.1512  0.0744  0.2651
46807SOL    HW152145   7.967   9.109   6.257 -0.8336  0.2625 -0.6957
46807SOL    HW252146   7.902   9.241   6.221  0.2326  1.1167  0.4806
46808SOL     OW52147   3.410  10.373   7.193  0.4414 -0.1379 -0.1079
46808SOL    HW152148   3.497  10.338   7.212  0.3121 -0.9929 -1.0484
46808SOL    HW252149   3.350  10.302   7.215  0.0850 -0.0622 -0.8143
46809SOL     OW52150  10.557   2.092   0.638  0.2146  0.4715  0.0497
46809SOL    HW152151  10.486   2.135   0.687 -0.5966  0.3945 -1.0178
46809SOL    HW252152  10.599   2.035   0.702 -0.0932  1.2103  0.9391
46810SOL     OW52153  11.020   4.013   8.386  0.3452 -0.0852 -0.0825
46810SOL    HW152154  11.093   4.003   8.325  1.3197  1.1803  0.8280
46810SOL    HW252155  10.975   4.092   8.357 -1.8702 -1.7913 -1.7594
46811SOL     OW52156   8.900   6.446   6.759  0.2872 -0.2827  0.3606
46811SOL    HW152157   8.950   6.406   6.830  1.2912  0.6281  0.1805
46811SOL    HW252158   8.961   6.506   6.717  0.1736 -1.8291 -2.1917
46812SOL     OW52159   7.392   9.010   3.928  0.3440  0.2248 -0.2053
46812SOL    HW152160   7.434   9.083   3.882 -0.5865  1.1665  0.3843
46812SOL    HW252161   7.442   8.933   3.901  0.0537  0.7729 -2.4980
46813SOL     OW52162   8.480  10.142  11.103  0.3227  0.1913 -0.2722
46813SOL    HW152163   8.401  10.109  11.062  0.2580  1.4713 -1.2615
46813SOL    HW252164   8.482  10.235  11.080  2.9762 -0.1350 -1.7355
46814SOL     OW52165   2.801   9.880  11.052  0.3424 -0.2476  0.2733
46814SOL    HW152166   2.870   9.922  11.104  0.2483  0.7261 -0.3658
46814SOL    HW252167   2.844   9.806  11.010  1.0185  0.3848 -0.1617
46815SOL     OW52168   2.639   3.809   5.125 -0.3518 -0.4154 -0.0293
46815SOL    HW152169   2.636   3.727   5.075 -1.6822 -1.3289  1.4438
46815SOL    HW252170   2.572   3.864   5.085 -1.9690 -1.4353  1.1139
46816SOL     OW52171   5.241   6.376   7.956 -0.1395  0.1414  0.1879
46816SOL    HW152172   5.291   6.382   7.875  0.5964  1.0895  0.6975
46816SOL    HW252173   5.149   6.373   7.927  0.0353  1.9121 -0.6391
46817SOL     OW52174   8.837   7.022   6.868  0.4129 -0.4897 -0.2776
46817SOL    HW152175   8.774   7.084   6.833 -1.2427 -2.2276 -0.5551
46817SOL    HW252176   8.862   6.968   6.794 -0.1872 -1.7796  0.4301
46818SOL     OW52177   2.717   4.958   1.522 -0.3514  0.7286  0.1169
46818SOL    HW152178   2.786   4.992   1.580  0.2665  1.0810 -0.8018
46818SOL    HW252179   2.737   4.997   1.437 -0.0970 -1.2894 -0.7853
46819SOL     OW52180   4.426   7.352  11.117 -0.1888 -0.6052 -0.4715
46819SOL    HW152181   4.517   7.356  11.146 -0.3724  2.6756  0.0287
46819SOL    HW252182   4.375   7.374  11.195 -1.1274  1.1051 -1.5078
46820SOL     OW52183   5.088   2.461   7.583  0.0021 -0.0393 -0.1203
46820SOL    HW152184   4.999   2.457   7.547  0.2564  1.6407 -1.0251
46820SOL    HW252185   5.075   2.458   7.678 -1.1301  1.1080 -0.1964
46821SOL     OW52186   4.783   0.817   5.997  0.5563  0.1368 -0.5617
46821SOL    HW152187   4.694   0.852   5.991  0.8031  0.7024 -1.1018
46821SOL    HW252188   4.811   0.806   5.907  1.1248  0.2085 -0.4027
46822SOL     OW52189   7.160   2.361   8.852  0.9126  0.8713  0.1082
46822SOL    HW152190   7.143   2.268   8.840  2.6388  0.6485 -0.9185
46822SOL    HW252191   7.091   2.405   8.802  1.3355  0.0982 -1.1961
46823SOL     OW52192   0.174  11.087   5.587  0.2755  0.4070  0.0205
46823SOL    HW152193   0.120  11.165   5.571 -0.3586 -0.3749 -1.8218
46823SOL    HW252194   0.264  11.119   5.578  0.0168  0.8621 -1.0948
46824SOL     OW52195  11.866   8.583   9.245 -0.1153  0.2712 -0.1962
46824SOL    HW152196  11.798   8.628   9.295  0.1266  0.4465 -0.0177
46824SOL    HW252197  11.916   8.535   9.311  1.0810  1.6288 -0.0449
46825SOL     OW52198   6.758   4.796   2.644 -0.8434  0.5223  0.2236
46825SOL    HW152199   6.691   4.756   2.699  0.2430 -2.1768 -0.2906
46825SOL    HW252200   6.726   4.783   2.555 -1.0544  2.0164  0.0482
46826SOL     OW52201   9.151   6.448   9.617 -0.2076 -0.1854  0.7801
46826SOL    HW152202   9.124   6.418   9.531 -0.3292  0.0585  0.7344
46826SOL    HW252203   9.082   6.417   9.676  0.1040 -0.7472  0.8585
46827SOL     OW52204   1.203   1.070   1.999 -0.1386  0.4009  0.2937
46827SOL    HW152205   1.182   0.977   1.999 -0.0227  0.3742  0.1152
46827SOL    HW252206   1.249   1.084   1.916  0.0832  0.5633  0.4453
46828SOL     OW52207  10.670   0.715   4.708 -0.5414  0.0608  0.1217
46828SOL    HW152208  10.750   0.682   4.668 -0.3344  0.4254  0.2242
46828SOL    HW252209  10.600   0.683   4.652 -0.5988 -2.7641  1.6333
46829SOL     OW52210   5.422   0.540   3.445  0.3153  0.4937 -0.5066
46829SOL    HW152211   5.351   0.512   3.387 -0.2553  1.8507 -0.5061
46829SOL    HW252212   5.377   0.576   3.521  1.0042  1.2719 -0.4634
46830SOL     OW52213   4.758   2.899   6.810  0.3060 -0.5603 -0.6570
46830SOL    HW152214   4.759   2.974   6.869  1.3289 -1.3088  0.3174
46830SOL    HW252215   4.844   2.858   6.821 -0.8172 -2.8873  0.1433
46831SOL     OW52216   9.013  11.595   9.001 -0.0699  0.1823 -0.0878
46831SOL    HW152217   9.066  11.606   9.081  2.1510 -0.2450 -1.4168
46831SOL    HW252218   9.022  11.502   8.979  2.0589  0.8515 -2.5259
46832SOL     OW52219   5.103   3.929   7.193 -0.1496 -0.1761  0.8522
46832SOL    HW152220   5.082   3.836   7.181 -1.3950  0.1283  0.4827
46832SOL    HW252221   5.067   3.951   7.279 -1.5456  0.3816  0.1647
46833SOL     OW52222   1.881   3.166   2.576 -0.0137 -0.3496 -0.3906
46833SOL    HW152223   1.922   3.145   2.492 -1.0779  1.6472 -1.4984
46833SOL    HW252224   1.845   3.083   2.607  0.4239 -1.1369 -1.8955
46834SOL     OW52225   2.676   0.745  11.807 -0.3444 -0.2939  0.6237
46834SOL    HW152226   2.751   0.757  11.749 -0.6631 -0.4415  0.1727
46834SOL    HW252227   2.637   0.662  11.779 -1.5675  0.5061 -0.1663
46835SOL     OW52228   8.526   5.320   6.422  0.6690  0.0682 -0.2632
46835SOL    HW152229   8.531   5.233   6.461 -1.4900  0.5465  1.2743
46835SOL    HW252230   8.521   5.380   6.496 -1.0140  1.2489 -1.2599
46836SOL     OW52231   8.090   4.990   7.237 -0.0604  0.4382  0.1789
46836SOL    HW152232   8.150   4.934   7.286  0.1479  1.1959  0.8093
46836SOL    HW252233   8.059   5.054   7.301 -1.8728 -0.1801 -0.0264
46837SOL     OW52234   0.282   6.116   5.977  0.4176  0.3991  0.1579
46837SOL    HW152235   0.202   6.110   6.030 -0.1280  0.9297 -0.5768
46837SOL    HW252236   0.338   6.046   6.010  0.5503  1.3903  2.1915
46838SOL     OW52237   7.951   3.088   7.040  0.0217 -0.2990  0.3284
46838SOL    HW152238   7.912   3.128   7.118 -1.1822 -1.6488  0.4668
46838SOL    HW252239   8.019   3.150   7.012 -1.2646  1.4737  0.9274
46839SOL     OW52240   8.455   0.909   5.610 -0.1776  0.3741  0.1224
46839SOL    HW152241   8.391   0.840   5.598  0.9341 -0.7820  0.6221
46839SOL    HW252242   8.528   0.867   5.655  0.4569  1.9232  0.6138
46840SOL     OW52243   9.862  11.476  10.094  0.2030 -0.2392  0.2161
46840SOL    HW152244   9.893  11.393  10.057  0.0891 -0.3348  0.3366
46840SOL    HW252245   9.931  11.539  10.072 -0.6090  0.0854 -1.6218
46841SOL     OW52246   3.368   5.588  10.985 -0.5549  0.3732  0.1234
46841SOL    HW152247   3.393   5.498  11.008  0.7139  0.8939  0.9398
46841SOL    HW252248   3.321   5.580  10.903 -0.9983 -1.1029  0.4916
46842SOL     OW52249   3.440  11.727  10.473 -0.1633  0.4320 -0.5382
46842SOL    HW152250   3.453  11.805  10.527  1.8728 -0.2038 -0.0064
46842SOL    HW252251   3.401  11.662  10.532  0.3098  0.3326 -0.3277
46843SOL     OW52252   9.221   8.023   7.636 -0.5511 -0.0612  0.6048
46843SOL    HW152253   9.242   7.929   7.637 -0.6637 -0.1205 -0.6983
46843SOL    HW252254   9.130   8.026   7.609  0.0186  0.4719 -1.4320
46844SOL     OW52255   6.640  10.389  11.748 -0.3644 -0.2208  0.3985
46844SOL    HW152256   6.697  10.424  11.679 -1.3400  0.3300 -0.1472
46844SOL    HW252257   6.551  10.413  11.721 -0.8003 -0.3041  1.6687
46845SOL     OW52258   2.588   4.897   2.027  0.2751  0.4172 -0.3764
46845SOL    HW152259   2.566   4.990   2.021  0.3240  0.3327 -2.6212
46845SOL    HW252260   2.644   4.881   1.951 -0.0585 -1.5437 -0.2492
46846SOL     OW52261   9.772   1.654   2.435 -0.0959  0.4665 -0.2476
46846SOL    HW152262   9.836   1.682   2.500 -0.1523 -0.8720  0.4191
46846SOL    HW252263   9.713   1.596   2.483 -0.1747 -0.5124 -1.4673
46847SOL     OW52264   6.886  10.241  11.439  0.4119 -0.6918  0.1215
46847SOL    HW152265   6.965  10.195  11.410  1.1737 -0.3219  1.4791
46847SOL    HW252266   6.915  10.289  11.517 -0.5711  1.3250 -0.6849
46848SOL     OW52267   1.930   1.208   9.561  0.1226  0.7986  0.1888
46848SOL    HW152268   1.878   1.252   9.628 -0.9833 -1.4004  0.8656
46848SOL    HW252269   1.996   1.159   9.610  0.8511  1.0643 -0.5008
46849SOL     OW52270   5.570   2.848   6.276  0.3211  0.6896  0.6876
46849SOL    HW152271   5.476   2.863   6.272 -0.1087 -1.7923  0.1078
46849SOL    HW252272   5.601   2.862   6.186  0.5429  1.5504  0.8868
46850SOL     OW52273   1.530   9.321  11.665 -0.1547  0.3501  0.7459
46850SOL    HW152274   1.458   9.383  11.679 -0.9038 -0.2130 -0.5009
46850SOL    HW252275   1.598   9.372  11.622 -0.8279  0.2933 -0.4136
46851SOL     OW52276   1.406   3.927  10.356  0.1598  0.5971 -0.2559
46851SOL    HW152277   1.475   3.896  10.297  0.5090 -0.5579  0.7319
46851SOL    HW252278   1.346   3.976  10.299  0.2097 -0.9229 -1.6698
46852SOL     OW52279   6.387  11.377  11.604 -0.1885 -0.2195 -0.4253
46852SOL    HW152280   6.363  11.374  11.697 -0.1529  1.6915 -0.3165
46852SOL    HW252281   6.304  11.390  11.558 -0.3261 -2.0322 -0.7901
46853SOL     OW52282   3.816   9.597   9.260  0.0354 -0.1806  0.0988
46853SOL    HW152283   3.804   9.553   9.344  0.1244 -3.8093 -1.6126
46853SOL    HW252284   3.731   9.638   9.243 -0.0092  0.5697  1.8509
46854SOL     OW52285   3.386  10.926   1.217 -0.2806  0.3257  0.5623
46854SOL    HW152286   3.315  10.886   1.266 -1.3125  0.1806 -0.9682
46854SOL    HW252287   3.422  10.855   1.164  0.1965  0.6607  0.4239
46855SOL     OW52288   8.036   1.947   1.244 -0.3417  0.1913 -0.1938
46855SOL    HW152289   8.114   1.907   1.206 -0.7601  0.4307 -1.3585
46855SOL    HW252290   7.970   1.877   1.243  0.3274 -0.6022  2.5480
46856SOL     OW52291   8.602   7.406   4.787  0.0537 -0.4277 -0.1591
46856SOL    HW152292   8.690   7.390   4.753  0.1345 -0.5754  0.1160
46856SOL    HW252293   8.553   7.327   4.764  0.5864 -1.3316  1.6461
46857SOL     OW52294   1.592   5.295  10.765  0.4784  0.1468 -0.0214
46857SOL    HW152295   1.584   5.390  10.765  1.3207  0.2273 -0.6541
46857SOL    HW252296   1.583   5.269  10.674 -0.5392 -0.4728  0.2303
46858SOL     OW52297   0.430  10.023   5.699 -0.5715  0.1858 -0.4534
46858SOL    HW152298   0.431  10.118   5.704 -0.0284  0.1457  2.2660
46858SOL    HW252299   0.477  10.002   5.618  0.4528  2.2219 -0.4532
46859SOL     OW52300  10.909  10.771   9.430  0.3521 -0.2549  0.4197
46859SOL    HW152301  11.004  10.766   9.429  0.3336 -0.5454 -0.1290
46859SOL    HW252302  10.889  10.846   9.486  0.8252 -1.7372  2.6829
46860SOL     OW52303   7.984   3.245   9.429 -0.0274  0.6095 -0.1954
46860SOL    HW152304   7.918   3.177   9.417 -1.3817  1.9064 -0.2745
46860SOL    HW252305   8.035   3.244   9.348  0.5751 -0.9059  0.1655
46861SOL     OW52306  10.270   0.844   4.513  0.1894 -0.0571 -0.2546
46861SOL    HW152307  10.248   0.867   4.423  1.7534 -1.2743 -0.9766
46861SOL    HW252308  10.362   0.868   4.522  0.2384 -0.5885  0.8028
46862SOL     OW52309   9.027   1.000   6.288  0.3495 -0.3367 -0.2713
46862SOL    HW152310   8.942   1.004   6.245  0.4640  1.0821 -0.4150
46862SOL    HW252311   9.040   1.088   6.323  0.7407 -1.1590  1.7525
46863SOL     OW52312   4.610   9.053   1.305 -1.1241 -0.4671  0.2074
46863SOL    HW152313   4.517   9.033   1.291 -1.2677 -0.7281  1.3922
46863SOL    HW252314   4.656   8.975   1.276 -1.4453 -1.2097  1.6235
46864SOL     OW52315  10.550  10.583   7.799 -0.1564 -0.5399  0.5727
46864SOL    HW152316  10.534  10.654   7.860 -0.7049  0.5888 -0.8375
46864SOL    HW252317  10.473  10.582   7.742  1.6368  0.5671 -2.0847
46865SOL     OW52318   2.733   1.753  10.201 -0.6691 -0.2965 -0.1756
46865SOL    HW152319   2.828   1.752  10.209 -0.4723  1.5630 -1.4081
46865SOL    HW252320   2.701   1.767  10.290  0.3351  0.9975  0.0081
46866SOL     OW52321   0.263   6.291   5.451  0.1835  0.3966  0.3829
46866SOL    HW152322   0.195   6.346   5.414 -0.1479 -0.4745 -0.3247
46866SOL    HW252323   0.342   6.315   5.403  0.0890  0.4120  0.2343
46867SOL     OW52324   4.726   0.636   0.724  0.2211 -0.0520 -0.4969
46867SOL    HW152325   4.685   0.549   0.730  0.5097 -0.2880 -1.6237
46867SOL    HW252326   4.724   0.656   0.630 -2.3470  2.3888 -0.0513
46868SOL     OW52327   9.603   3.301   4.554 -0.1133  0.4857 -0.6919
46868SOL    HW152328   9.686   3.296   4.600 -0.3522  1.1082 -0.1835
46868SOL    HW252329   9.627   3.312   4.462  0.3689  0.9822 -0.5112
46869SOL     OW52330   3.706   4.369   7.048 -0.3553  0.5160  0.0776
46869SOL    HW152331   3.720   4.457   7.081 -1.1063  0.7491 -0.1929
46869SOL    HW252332   3.687   4.316   7.126 -0.1560  0.6456  0.2134
46870SOL     OW52333   8.337   9.075   2.238 -0.3087  0.1946  0.7580
46870SOL    HW152334   8.397   9.046   2.168 -1.1734  0.5917 -0.1722
46870SOL    HW252335   8.309   9.162   2.211 -0.9131  0.2162  1.4325
46871SOL     OW52336  11.586  11.914   9.723 -0.2028  0.2317 -0.3431
46871SOL    HW152337  11.579  11.829   9.767 -1.0551  0.2095 -0.4984
46871SOL    HW252338  11.631  11.895   9.641  2.0821  0.3984  0.8089
46872SOL     OW52339   5.849  11.711   7.828  0.8854 -0.1659  0.2574
46872SOL    HW152340   5.881  11.696   7.918  1.4535  1.0033  0.2678
46872SOL    HW252341   5.764  11.669   7.826  1.5251 -1.5736  0.8719
46873SOL     OW52342   3.756  10.718   0.855 -0.1983 -0.0727  0.6732
46873SOL    HW152343   3.791  10.734   0.942 -0.3435  0.6186  0.6094
46873SOL    HW252344   3.815  10.653   0.817 -0.8601 -1.3319  1.7373
46874SOL     OW52345   7.909   8.772  10.617  0.5295 -0.0434  0.5605
46874SOL    HW152346   7.922   8.850  10.672  1.4614  0.4313 -0.2999
46874SOL    HW252347   7.878   8.705  10.677 -0.6543  1.0923  1.2631
46875SOL     OW52348   4.446   6.873   2.844 -0.2085  0.2438 -0.2631
46875SOL    HW152349   4.470   6.847   2.933 -1.8769  2.3481  0.9157
46875SOL    HW252350   4.527   6.909   2.807  0.3631 -0.1079  0.6127
46876SOL     OW52351   9.207   1.344   5.936 -0.6770 -0.1610 -0.2322
46876SOL    HW152352   9.258   1.376   6.010 -1.5028  1.9092 -0.4913
46876SOL    HW252353   9.193   1.251   5.955  0.6920 -0.1190  1.2529
46877SOL     OW52354   7.903   9.640  11.777  0.3335  0.5633  0.0541
46877SOL    HW152355   7.889   9.713  11.717 -0.9803  0.8146  0.6296
46877SOL    HW252356   7.815   9.609  11.798  0.8725 -2.5920 -1.8041
46878SOL     OW52357   4.319   8.210   8.351  0.4930  0.7020 -0.3678
46878SOL    HW152358   4.259   8.143   8.382 -0.3985  1.9730  0.8187
46878SOL    HW252359   4.391   8.209   8.415  2.2076 -1.3158 -2.1865
46879SOL     OW52360   7.117   9.031   9.687 -0.2103  0.0364 -0.4947
46879SOL    HW152361   7.058   8.956   9.694  1.4739 -1.2207  1.2188
46879SOL    HW252362   7.153   9.025   9.598 -1.3663 -0.1416 -0.9688
46880SOL     OW52363   4.676   8.851   1.784 -0.3311  0.6060  0.6701
46880SOL    HW152364   4.641   8.903   1.711 -2.7739  0.4362  1.6346
46880SOL    HW252365   4.633   8.766   1.776  0.7408 -0.0283  1.3078
46881SOL     OW52366   8.605  11.433   8.197 -0.1636  0.2832  0.3875
46881SOL    HW152367   8.557  11.505   8.156 -0.5070  0.1785  0.5972
46881SOL    HW252368   8.685  11.474   8.231  1.5910 -0.1229 -2.8515
46882SOL     OW52369   6.436   0.293   9.429 -0.2621  0.1960  0.6365
46882SOL    HW152370   6.516   0.242   9.439 -0.9686 -0.9857  0.5245
46882SOL    HW252371   6.372   0.231   9.395 -1.0928  1.2426  0.2095
46883SOL     OW52372   6.508   5.068  11.012 -0.0007  0.0969 -0.3253
46883SOL    HW152373   6.575   5.006  11.040  1.0050  0.5223 -1.6806
46883SOL    HW252374   6.498   5.127  11.086  1.7102  0.4853 -0.3634
46884SOL     OW52375   4.067   0.037   3.047 -0.5633  0.3445  0.7188
46884SOL    HW152376   4.055   0.039   3.142  0.1877 -1.9442  0.9107
46884SOL    HW252377   4.023  -0.043   3.018  0.7261  0.0633 -0.6208
46885SOL     OW52378   5.490   4.714   8.453 -0.1467 -0.2261  0.0827
46885SOL    HW152379   5.580   4.738   8.431 -0.4254  0.5450 -0.2596
46885SOL    HW252380   5.491   4.618   8.455  0.3163 -0.2872 -1.5733
46886SOL     OW52381   4.014   2.045   0.732  0.8871 -0.3735  0.1336
46886SOL    HW152382   4.109   2.046   0.740  0.8147  2.2689  2.2687
46886SOL    HW252383   3.997   2.076   0.643  2.0562  0.8432  0.3076
46887SOL     OW52384   3.738   1.518   5.054 -0.1923 -0.2055 -0.1523
46887SOL    HW152385   3.668   1.507   4.990 -0.8058  1.6772  0.1133
46887SOL    HW252386   3.694   1.519   5.139 -0.2369  2.9992 -0.0871
46888SOL     OW52387  10.182   5.764   6.493 -0.3343 -0.0849 -0.4871
46888SOL    HW152388  10.097   5.751   6.450  0.1094  0.5287 -1.6136
46888SOL    HW252389  10.166   5.831   6.558 -0.4218  1.1794 -1.7537
46889SOL     OW52390   8.107   4.768   4.276  0.2792  0.5048  0.1349
46889SOL    HW152391   8.197   4.736   4.286  0.4558  0.5605 -1.0977
46889SOL    HW252392   8.059   4.693   4.240 -1.1119 -0.8169  4.1153
46890SOL     OW52393   8.682   0.967   3.310  0.5079  0.7900 -0.1618
46890SOL    HW152394   8.760   1.012   3.277  0.8162  0.6274  0.3370
46890SOL    HW252395   8.618   0.976   3.239  1.5068 -0.4986 -1.2788
46891SOL     OW52396  11.489   4.623   1.349  0.3848  0.2217  0.2548
46891SOL    HW152397  11.561   4.561   1.362 -0.4068 -0.6474  0.6361
46891SOL    HW252398  11.446   4.594   1.268  1.9372  2.2654 -1.4337
46892SOL     OW52399   5.492   8.912   2.728  0.0016  0.6251 -0.2737
46892SOL    HW152400   5.506   8.897   2.821 -1.7486  0.4556  0.0012
46892SOL    HW252401   5.565   8.968   2.701 -0.3668  2.0951  1.5956
46893SOL     OW52402   8.747   4.062  11.544  0.3228 -0.0955 -0.6191
46893SOL    HW152403   8.778   4.116  11.471  1.7686  0.4560  0.3562
46893SOL    HW252404   8.813   3.993  11.553 -0.4775 -0.8723 -0.5853
46894SOL     OW52405   4.270   9.706   6.401  0.4416 -0.4775  0.4951
46894SOL    HW152406   4.289   9.742   6.487 -2.3370  0.3850  0.8530
46894SOL    HW252407   4.253   9.613   6.417 -1.5143 -0.0519  1.2212
46895SOL     OW52408   6.000  10.061   4.588 -0.0116  0.0635  0.4503
46895SOL    HW152409   6.005  10.153   4.617 -0.4952  0.2377 -0.0076
46895SOL    HW252410   6.035  10.062   4.499 -0.0144 -0.1975  0.4457
46896SOL     OW52411   1.880   4.097   2.695 -0.6853  0.0201 -0.2769
46896SOL    HW152412   1.908   4.160   2.762 -2.0973  0.2647  0.1173
46896SOL    HW252413   1.950   4.031   2.694 -0.7152 -0.0903  1.5808
46897SOL     OW52414   6.138   5.687   4.941  0.1354 -0.1057 -0.1482
46897SOL    HW152415   6.078   5.622   4.904 -1.1221  0.8167  0.2048
46897SOL    HW252416   6.097   5.711   5.025  0.2184  1.6042 -0.5650
46898SOL     OW52417   7.665   1.410   0.051  0.2664 -0.3469  0.4595
46898SOL    HW152418   7.590   1.434  -0.004  0.1285  1.1098  1.2257
46898SOL    HW252419   7.627   1.358   0.122  0.2968 -1.3258 -0.2160
46899SOL     OW52420   1.113   4.130  11.850 -0.4083  0.1402  0.4589
46899SOL    HW152421   1.125   4.205  11.791  0.5633  0.6624  1.2671
46899SOL    HW252422   1.074   4.168  11.929 -1.2476 -0.4625  0.3394
46900SOL     OW52423  10.887   1.348   6.698  0.3349  0.4189 -0.3795
46900SOL    HW152424  10.846   1.298   6.628 -1.1246  0.8303  0.1499
46900SOL    HW252425  10.821   1.353   6.767  1.5237  0.5164  0.8102
46901SOL     OW52426   3.190   2.475   4.893  0.1068 -0.4246 -0.1653
46901SOL    HW152427   3.129   2.437   4.830  0.2511 -2.8588  1.0327
46901SOL    HW252428   3.273   2.480   4.847 -0.0403 -1.1743 -0.5329
46902SOL     OW52429   1.269   3.277   2.137 -0.0858 -0.1380 -0.3729
46902SOL    HW152430   1.237   3.364   2.114 -0.9033 -0.7984 -1.9631
46902SOL    HW252431   1.228   3.219   2.072  0.9541 -1.6153  0.2255
46903SOL     OW52432  11.210   2.945  10.962 -0.2223 -0.2663  0.3382
46903SOL    HW152433  11.210   3.040  10.948  2.5096 -0.2891 -0.4295
46903SOL    HW252434  11.299   2.918  10.940 -0.5933 -2.8697  1.6607
46904SOL     OW52435  10.715   3.833   0.704 -0.1993  0.2960 -0.2550
46904SOL    HW152436  10.675   3.868   0.783  0.8520  0.4588  0.2257
46904SOL    HW252437  10.797   3.882   0.696  0.2333 -0.5089 -0.8177
46905SOL     OW52438   2.659   6.358   8.443  0.1518 -0.5498  0.0575
46905SOL    HW152439   2.702   6.332   8.525  1.7381 -0.3046 -0.6547
46905SOL    HW252440   2.585   6.412   8.471  2.1207  1.7318  1.3585
46906SOL     OW52441   9.938   4.184   8.961  0.0242  0.0604  0.3771
46906SOL    HW152442   9.846   4.211   8.961 -0.0544 -0.0316 -1.6499
46906SOL    HW252443   9.934   4.088   8.961  0.1193  0.0574  0.4916
46907SOL     OW52444   8.670   5.407   0.498 -0.3818  0.1148 -0.3079
46907SOL    HW152445   8.586   5.366   0.517  0.6608 -1.0242  2.3255
46907SOL    HW252446   8.730   5.333   0.485  0.6030  0.8748 -0.1715
46908SOL     OW52447   7.039  11.046   6.959  0.6274  0.3584  0.0925
46908SOL    HW152448   7.030  11.137   6.929 -1.6455 -0.0964 -0.8617
46908SOL    HW252449   7.019  10.993   6.882  1.6773 -0.9768  0.6908
46909SOL     OW52450  10.160   4.663  10.952 -0.1665 -0.3414 -0.2416
46909SOL    HW152451  10.159   4.758  10.949 -3.1670 -0.2891 -0.5369
46909SOL    HW252452  10.185   4.642  11.042  0.8143  0.6961 -0.2534
46910SOL     OW52453  11.104   3.614   1.910 -0.1510 -0.7008 -0.4596
46910SOL    HW152454  11.155   3.548   1.956  0.2578 -0.5597 -0.7064
46910SOL    HW252455  11.016   3.606   1.946  0.0910 -0.8066  0.1180
46911SOL     OW52456   3.930  10.146   4.238  0.3794  0.2830  0.9180
46911SOL    HW152457   3.906  10.090   4.164  0.3072  1.9405 -0.3769
46911SOL    HW252458   3.918  10.235   4.206 -0.2232  1.0778  3.1427
46912SOL     OW52459   8.143   6.579   3.783  0.4528 -0.1677  0.4019
46912SOL    HW152460   8.132   6.655   3.727 -0.5006 -0.8508 -0.3702
46912SOL    HW252461   8.066   6.580   3.840  0.5112 -0.4619  0.4894
46913SOL     OW52462  10.154   0.654   5.036  0.0134  0.1702  0.4186
46913SOL    HW152463  10.104   0.701   4.970  1.4737  1.2823  0.0712
46913SOL    HW252464  10.187   0.576   4.991  0.1873  0.4172  0.1218
46914SOL     OW52465   4.269  11.701   3.548  0.0232  0.6887  0.5827
46914SOL    HW152466   4.230  11.644   3.482 -0.1304  1.1590  0.2662
46914SOL    HW252467   4.335  11.646   3.591 -0.7058  0.0089  0.8558
46915SOL     OW52468   7.947   6.307   4.703  0.1373 -0.4010  0.0236
46915SOL    HW152469   7.896   6.226   4.710 -0.1888 -0.1329  0.8916
46915SOL    HW252470   7.937   6.333   4.611 -0.7792 -0.6922  0.0268
46916SOL     OW52471   4.092   9.046   7.020 -0.3410  0.1806  0.5787
46916SOL    HW152472   4.022   9.007   7.072  0.0428  0.4027  1.2841
46916SOL    HW252473   4.141   8.971   6.985 -1.0453  0.0250 -0.0868
46917SOL     OW52474   2.938   4.446   9.712 -0.0366  0.0751  0.0354
46917SOL    HW152475   2.844   4.432   9.703 -0.3409  1.3940  0.8246
46917SOL    HW252476   2.946   4.524   9.767  1.5168  0.2074 -0.3033
46918SOL     OW52477   6.987   8.832   2.966  0.0683  0.1021 -0.3976
46918SOL    HW152478   6.991   8.898   3.035  0.7310  0.0255 -0.3550
46918SOL    HW252479   7.015   8.879   2.887  0.2991 -0.0608 -0.4143
46919SOL     OW52480   4.742   4.447   0.623 -0.0775 -0.3165  0.7941
46919SOL    HW152481   4.697   4.389   0.685  0.3134  0.5059  1.8713
46919SOL    HW252482   4.679   4.459   0.552 -1.3859  0.4044  2.0364
46920SOL     OW52483   3.080  10.186   7.001 -0.1759 -0.2799  0.6545
46920SOL    HW152484   3.121  10.218   7.082  1.1428 -0.6548  0.1655
46920SOL    HW252485   3.146  10.130   6.962  0.5437  2.3435 -2.2702
46921SOL     OW52486   8.002  11.173   0.378  0.7209  0.8844 -0.5265
46921SOL    HW152487   8.058  11.218   0.441  0.1251  0.3305  0.4297
46921SOL    HW252488   7.989  11.086   0.416 -0.1954  0.7632 -1.0805
46922SOL     OW52489   6.894  10.753   1.282  0.1481 -0.6370 -0.0932
46922SOL    HW152490   6.925  10.728   1.369 -1.0168 -1.4232  0.1258
46922SOL    HW252491   6.800  10.734   1.284 -0.4890  2.0531 -0.5605
46923SOL     OW52492  10.209   3.686  11.106  0.0058 -0.2901 -0.9214
46923SOL    HW152493  10.245   3.772  11.085  1.3174 -1.0114 -1.8325
46923SOL    HW252494  10.117   3.691  11.082 -0.1964  1.1834  0.0802
46924SOL     OW52495   4.289  11.128   2.266  0.4978 -0.5029 -0.4655
46924SOL    HW152496   4.250  11.178   2.194 -0.1433 -1.0979 -0.5410
46924SOL    HW252497   4.320  11.194   2.328 -1.0126 -0.0125 -0.1999
46925SOL     OW52498   5.973  11.710   1.046  0.2173 -0.2344 -0.6817
46925SOL    HW152499   6.039  11.764   1.000 -0.7411 -0.1104 -1.9563
46925SOL    HW252500   5.904  11.772   1.070 -0.2433 -0.6530 -0.9061
46926SOL     OW52501   8.245   2.995   1.394 -0.6226 -0.3953  0.0548
46926SOL    HW152502   8.238   3.027   1.483  1.5932  0.1513  0.0987
46926SOL    HW252503   8.277   3.070   1.344  2.3225 -1.7358 -0.3141
46927SOL     OW52504  10.822   2.750   1.788  0.7503  0.1540 -0.1896
46927SOL    HW152505  10.827   2.654   1.784  0.2472  0.0420  1.1218
46927SOL    HW252506  10.761   2.767   1.861 -0.7667  1.4571 -1.6757
46928SOL     OW52507   9.723   5.471   0.858 -0.1303 -0.2353 -0.0965
46928SOL    HW152508   9.752   5.477   0.950  2.2433  1.7585 -0.8635
46928SOL    HW252509   9.657   5.402   0.859 -1.8578  1.1684  3.4902
46929SOL     OW52510   5.154   1.884   5.079  0.1522  0.0427  0.0114
46929SOL    HW152511   5.236   1.861   5.122  0.9377  0.4926 -1.2125
46929SOL    HW252512   5.102   1.803   5.081  0.0066  0.1298  2.0701
46930SOL     OW52513   7.141   0.553   2.240  0.3368 -0.2372  0.0490
46930SOL    HW152514   7.182   0.625   2.289  0.9531  0.7427 -1.8117
46930SOL    HW252515   7.189   0.550   2.158 -0.4859 -2.0122 -0.4077
46931SOL     OW52516   6.290   3.299   2.457  0.2002  0.0086  0.5105
46931SOL    HW152517   6.334   3.221   2.423  0.0125  0.4674 -0.8343
46931SOL    HW252518   6.356   3.341   2.512  1.0987  0.1017 -0.5956
46932SOL     OW52519   2.668  11.013   9.133  0.2999 -0.2904  0.6167
46932SOL    HW152520   2.639  10.924   9.110  1.1907 -1.5680  3.8741
46932SOL    HW252521   2.653  11.019   9.227  3.8364  1.5846  1.2028
46933SOL     OW52522   0.132   9.742   7.577 -0.4335  0.4827 -0.0469
46933SOL    HW152523   0.070   9.677   7.544 -0.9353  0.9335 -0.0077
46933SOL    HW252524   0.141   9.805   7.506  0.6001  0.0084 -0.3569
46934SOL     OW52525   3.329   8.652   3.326 -0.1392  0.2968  0.7117
46934SOL    HW152526   3.280   8.587   3.377 -1.4773  0.3813 -0.4018
46934SOL    HW252527   3.408   8.606   3.298  0.7930  0.3363  3.0509
46935SOL     OW52528   0.189   1.912   3.991 -0.2120 -0.0135 -0.3746
46935SOL    HW152529   0.172   1.855   4.066 -0.5070  0.8831  0.2608
46935SOL    HW252530   0.125   1.886   3.926 -0.6529 -0.1091  0.0884
46936SOL     OW52531   3.389   5.246   1.455  0.5208  0.1066 -0.6550
46936SOL    HW152532   3.477   5.280   1.470 -0.6974  2.6360  1.6444
46936SOL    HW252533   3.340   5.321   1.423 -1.1844 -0.7930 -0.2506
46937SOL     OW52534   8.564   1.550   8.767 -0.1524  0.1581  0.5241
46937SOL    HW152535   8.641   1.498   8.742 -0.1721  0.7708 -0.8930
46937SOL    HW252536   8.490   1.500   8.733 -0.1514  1.2311 -1.1813
46938SOL     OW52537   6.883  11.095   3.369  0.2018  0.0436 -0.4489
46938SOL    HW152538   6.853  11.186   3.377  1.0361  0.1985  1.7268
46938SOL    HW252539   6.946  11.098   3.297  0.4707  1.3016 -0.2048
46939SOL     OW52540   7.588   5.197   8.476  0.3242 -0.1038  0.1633
46939SOL    HW152541   7.499   5.229   8.461 -0.5875 -2.3491  0.5089
46939SOL    HW252542   7.616   5.162   8.391  0.6248 -0.0716  0.2449
46940SOL     OW52543   1.761   2.911   6.479 -0.1570 -0.2437 -0.3970
46940SOL    HW152544   1.769   3.000   6.515  0.1943  0.9370 -3.1535
46940SOL    HW252545   1.807   2.915   6.395  1.2590 -3.5267  0.0891
46941SOL     OW52546   8.839   3.126   7.944  0.1878 -0.6652 -0.0243
46941SOL    HW152547   8.791   3.126   7.861 -0.1772 -2.1691  0.1562
46941SOL    HW252548   8.810   3.205   7.989  0.1184 -0.0222 -1.1716
46942SOL     OW52549   1.664   0.254   8.160  0.4622  0.1747 -0.0781
46942SOL    HW152550   1.663   0.343   8.196 -4.3336  0.1588  0.5193
46942SOL    HW252551   1.705   0.262   8.074  2.3298  2.4028  0.9352
46943SOL     OW52552   1.656  10.821  11.810  0.2371  0.5489  0.4638
46943SOL    HW152553   1.673  10.792  11.899 -1.0945  0.4049  0.6989
46943SOL    HW252554   1.686  10.749  11.754 -0.7164 -0.2316  0.9158
46944SOL     OW52555   8.439   2.000   2.658  0.2092  0.2146 -0.3923
46944SOL    HW152556   8.350   1.966   2.648  0.1862  0.5908 -1.6195
46944SOL    HW252557   8.485   1.930   2.704 -0.1390 -1.0248 -1.8180
46945SOL     OW52558   8.531   9.420   0.894  0.0626 -0.5023 -0.1775
46945SOL    HW152559   8.508   9.496   0.841 -0.2596 -0.2602  0.3026
46945SOL    HW252560   8.467   9.420   0.965  0.1566 -1.1308 -0.0875
46946SOL     OW52561   8.716   9.012   1.462 -0.0375  0.2646 -0.2864
46946SOL    HW152562   8.681   8.994   1.375 -0.6396 -1.1163  0.2100
46946SOL    HW252563   8.645   9.058   1.507 -0.6084 -0.9940  0.1592
46947SOL     OW52564   6.009   5.761   0.746  0.1233 -0.6997 -0.1940
46947SOL    HW152565   5.990   5.673   0.779  0.1903 -0.3694  0.7744
46947SOL    HW252566   5.953   5.819   0.798  0.1508 -0.1628 -0.7520
46948SOL     OW52567   1.718   7.521   3.626 -1.2053  0.1744  0.1631
46948SOL    HW152568   1.752   7.451   3.681  1.5274  1.6531  0.5337
46948SOL    HW252569   1.779   7.526   3.552 -1.5763  1.8540 -0.0776
46949SOL     OW52570   7.798   7.292  11.098 -0.9346 -0.6447 -0.2718
46949SOL    HW152571   7.871   7.247  11.057 -0.4315  0.3930 -0.5418
46949SOL    HW252572   7.752   7.335  11.026 -0.8613  0.0394  0.0789
46950SOL     OW52573   4.839   4.321  10.522 -0.0385 -0.6641  0.3558
46950SOL    HW152574   4.829   4.226  10.530 -0.2255 -0.5648  1.4465
46950SOL    HW252575   4.932   4.334  10.507 -0.1175 -1.0589 -0.4958
46951SOL     OW52576   8.180  11.536  10.612 -0.2573 -0.4453 -0.0733
46951SOL    HW152577   8.215  11.624  10.597 -1.6562  0.2990  0.7446
46951SOL    HW252578   8.085  11.548  10.611 -0.5112 -1.4292  2.6148
46952SOL     OW52579   6.962   0.742   8.820  0.0118  0.8746  0.9548
46952SOL    HW152580   7.028   0.679   8.847  0.2714  0.2541 -0.9838
46952SOL    HW252581   6.883   0.689   8.805 -0.1510  1.2048  0.6353
46953SOL     OW52582   6.096  11.240   5.844 -0.3088 -0.2934  0.6630
46953SOL    HW152583   6.101  11.304   5.773 -2.3634  0.5705  1.1991
46953SOL    HW252584   6.186  11.228   5.873  0.3298  0.9276 -0.7107
46954SOL     OW52585   2.145   0.266   1.843  0.4087  0.0770 -0.3480
46954SOL    HW152586   2.156   0.181   1.885  2.2765  1.0730  1.3304
46954SOL    HW252587   2.174   0.251   1.753 -1.0814 -1.4543 -0.6334
46955SOL     OW52588   7.007   7.449   2.832 -0.0763  0.2296  0.0423
46955SOL    HW152589   7.100   7.459   2.815 -0.4418  0.9214 -1.7556
46955SOL    HW252590   6.993   7.354   2.833  0.1535  0.0404 -3.1376
46956SOL     OW52591   6.969   6.235  11.119 -0.0001  0.1360  0.0999
46956SOL    HW152592   6.914   6.212  11.193 -1.5663  0.9652 -0.7510
46956SOL    HW252593   7.026   6.306  11.152  1.6244 -1.6608  1.3810
46957SOL     OW52594   6.388   2.106   7.520  0.3337 -0.7425 -0.0306
46957SOL    HW152595   6.345   2.191   7.531  0.4220 -0.5803 -0.8572
46957SOL    HW252596   6.481   2.124   7.537  0.7470 -0.1163 -2.5179
46958SOL     OW52597   2.820   0.532   9.285  0.0655  0.1120 -0.4715
46958SOL    HW152598   2.772   0.578   9.353  0.0773  0.7223 -0.8659
46958SOL    HW252599   2.785   0.566   9.203 -0.9245 -1.6192 -0.8125
46959SOL     OW52600  11.526   2.058   3.150  0.2634  0.3351 -0.5627
46959SOL    HW152601  11.534   2.030   3.241  1.0082  0.7252 -0.5076
46959SOL    HW252602  11.615   2.080   3.123  0.3002 -1.1499 -1.8301
46960SOL     OW52603  11.792   3.889   6.977  0.1658 -0.0049  0.1342
46960SOL    HW152604  11.799   3.861   7.069  1.1092 -0.4848 -0.0739
46960SOL    HW252605  11.814   3.982   6.979 -2.5157  0.7092  0.7596
46961SOL     OW52606   0.766   0.309   8.347  0.0408 -0.2905  0.4234
46961SOL    HW152607   0.769   0.361   8.427 -2.8823  0.5851  0.0742
46961SOL    HW252608   0.788   0.220   8.375  0.5169  0.2620  1.8842
46962SOL     OW52609   0.983  11.661  11.160  0.0802 -0.3545 -0.3623
46962SOL    HW152610   0.927  11.717  11.213 -1.4034 -3.4811  1.7025
46962SOL    HW252611   0.941  11.658  11.074 -2.6436 -1.9082  0.8805
46963SOL     OW52612   1.124   5.596   2.618 -0.3019 -0.2113 -0.0119
46963SOL    HW152613   1.039   5.591   2.662 -0.4687  0.1840 -0.2774
46963SOL    HW252614   1.173   5.522   2.653 -0.6133 -0.2124  0.4427
46964SOL     OW52615   7.309   0.262   9.226  0.0731 -0.2107  0.3070
46964SOL    HW152616   7.274   0.350   9.209 -3.0025 -1.5416 -0.8798
46964SOL    HW252617   7.324   0.260   9.320  0.5978  1.6864  0.3060
46965SOL     OW52618   7.147   9.967   0.469  0.3365  0.6580 -0.1946
46965SOL    HW152619   7.180   9.920   0.392 -0.0082 -1.1036  0.6707
46965SOL    HW252620   7.090  10.035   0.433 -0.8624 -0.9428 -1.5050
46966SOL     OW52621   7.109   4.982  11.843  1.0700  0.5720 -0.3159
46966SOL    HW152622   7.116   4.891  11.871  1.4059  1.0360  1.1958
46966SOL    HW252623   7.103   5.032  11.925 -1.3171  1.7475 -1.1112
46967SOL     OW52624   2.913  10.579   6.010  0.3825 -0.2477 -0.3522
46967SOL    HW152625   2.833  10.541   6.047  0.1222  0.8062  0.2018
46967SOL    HW252626   2.983  10.522   6.042  0.1956  0.6928  1.9749
46968SOL     OW52627  10.703   8.972   7.965 -0.3534  0.5605 -0.0557
46968SOL    HW152628  10.771   9.003   8.025  0.1130 -0.8489  0.1804
46968SOL    HW252629  10.742   8.982   7.878  0.6712 -1.3021  0.1299
46969SOL     OW52630   9.007   8.046   3.921 -0.1944  0.1198 -0.7609
46969SOL    HW152631   9.057   8.039   4.003 -1.2800 -0.6341 -0.1410
46969SOL    HW252632   9.064   8.008   3.855  1.5619  2.5299 -0.7947
46970SOL     OW52633  10.092   5.548   0.240  0.0375  0.4152 -0.7627
46970SOL    HW152634  10.015   5.498   0.266  0.8713 -0.7016 -0.3853
46970SOL    HW252635  10.107   5.609   0.313  0.0681 -0.0153 -0.4067
46971SOL     OW52636   2.517  11.633   7.740  0.2569 -0.3387 -0.5973
46971SOL    HW152637   2.434  11.666   7.707  0.7256  0.9825 -0.5572
46971SOL    HW252638   2.496  11.597   7.826 -0.1822  0.5916 -0.2984
46972SOL     OW52639   8.801   4.333   7.794  0.0565  0.0304  0.1711
46972SOL    HW152640   8.877   4.317   7.738 -0.3686 -0.0836 -0.3845
46972SOL    HW252641   8.824   4.292   7.878  0.3159 -0.6361 -0.2180
46973SOL     OW52642   8.190   7.720   0.565 -0.1189 -0.3220 -0.6007
46973SOL    HW152643   8.277   7.725   0.604 -0.3225 -2.1090  0.1869
46973SOL    HW252644   8.206   7.711   0.471  0.6990 -2.7467 -0.3073
46974SOL     OW52645   9.255   2.068   1.039 -0.3042 -0.3804  0.0292
46974SOL    HW152646   9.249   2.039   0.948  1.1887  0.7701 -0.4820
46974SOL    HW252647   9.205   2.003   1.088  0.5191 -2.1831 -1.3655
46975SOL     OW52648   0.405   3.288   3.714  0.1351  0.2511  0.1171
46975SOL    HW152649   0.499   3.282   3.733  0.0575 -1.4791  0.0707
46975SOL    HW252650   0.372   3.349   3.780  1.1624  0.2827  0.6335
46976SOL     OW52651  11.769   4.718   9.616  0.0761 -0.0745 -0.2849
46976SOL    HW152652  11.768   4.811   9.636  0.0949 -0.3079  0.8497
46976SOL    HW252653  11.699   4.680   9.669  0.3329 -0.7688 -0.4225
46977SOL     OW52654   3.926   0.565   1.476 -0.1608  0.0393 -0.3710
46977SOL    HW152655   3.982   0.607   1.541 -0.6466  0.6417 -0.3384
46977SOL    HW252656   3.986   0.510   1.425  0.1038 -1.1089  1.1104
46978SOL     OW52657   3.748   6.982   8.193  0.4170  0.1053  0.8150
46978SOL    HW152658   3.672   6.946   8.148  1.8287 -0.6329 -1.1043
46978SOL    HW252659   3.738   7.077   8.185  0.4719 -0.0018 -0.8433
46979SOL     OW52660   9.963   5.201   1.625  0.1610 -0.1914 -0.0828
46979SOL    HW152661  10.019   5.133   1.663 -0.5195 -0.2065  0.9048
46979SOL    HW252662   9.931   5.162   1.543  1.7760 -0.0847 -0.8187
46980SOL     OW52663   8.171   5.271   9.862 -0.0687  0.0011 -0.2029
46980SOL    HW152664   8.209   5.223   9.935 -0.8576 -1.2014 -0.5638
46980SOL    HW252665   8.097   5.318   9.900 -0.5082 -0.6622 -0.2328
46981SOL     OW52666   4.787   7.373  11.378 -0.7225  0.0708 -0.3281
46981SOL    HW152667   4.796   7.328  11.461  0.4200 -0.7910 -0.9006
46981SOL    HW252668   4.727   7.318  11.327  0.8995 -1.0217 -1.1331
46982SOL     OW52669   8.075   4.684   1.683 -0.0718 -0.2631 -0.0697
46982SOL    HW152670   7.998   4.660   1.631 -0.2486  0.7419 -0.2955
46982SOL    HW252671   8.051   4.768   1.723  0.3580 -0.6436  1.0280
46983SOL     OW52672  10.610   3.996   8.281  0.1204  0.2327 -0.1182
46983SOL    HW152673  10.663   4.076   8.280  1.1511 -0.3770  1.2810
46983SOL    HW252674  10.663   3.934   8.331 -2.1016 -0.2725  1.7788
46984SOL     OW52675   0.167   0.662   2.715  0.6905  0.0864 -0.9804
46984SOL    HW152676   0.234   0.703   2.770  0.7508  0.9140 -1.6343
46984SOL    HW252677   0.158   0.573   2.749  2.1039 -0.0316 -0.8577
46985SOL     OW52678   3.296   6.083   9.201  0.6400  0.0290 -0.2162
46985SOL    HW152679   3.337   6.147   9.260 -0.9541  0.8540  0.0399
46985SOL    HW252680   3.258   6.135   9.131  0.2664 -0.7333 -0.5918
46986SOL     OW52681   1.517   6.875   6.549 -0.3436 -0.0058 -0.1432
46986SOL    HW152682   1.588   6.934   6.524 -1.0226  1.3930  1.0639
46986SOL    HW252683   1.535   6.850   6.639 -0.9571 -0.2727 -0.0841
46987SOL     OW52684   7.516   0.244   0.635  0.9368 -0.3375  0.6514
46987SOL    HW152685   7.472   0.231   0.551 -1.8421  2.6532  1.4465
46987SOL    HW252686   7.487   0.170   0.689 -0.2934 -0.3311  0.0462
46988SOL     OW52687   9.334   2.488   7.635  0.3522 -0.1740 -0.1151
46988SOL    HW152688   9.240   2.483   7.650  0.6146 -2.9424  1.1374
46988SOL    HW252689   9.342   2.508   7.541 -1.4102  1.7237  0.0787
46989SOL     OW52690   9.619  11.794   8.449  0.1551  0.3384  0.3064
46989SOL    HW152691   9.567  11.722   8.413  1.2246 -0.2640 -0.1083
46989SOL    HW252692   9.703  11.754   8.473  1.5517  1.7629 -1.8051
46990SOL     OW52693   6.380  10.836   9.498  0.3215  0.4168  0.3321
46990SOL    HW152694   6.320  10.832   9.573 -3.0105  1.1338 -2.0845
46990SOL    HW252695   6.386  10.929   9.477 -0.5618  0.0861 -1.5390
46991SOL     OW52696  10.722   3.778  11.613  0.1689 -0.1279 -0.3647
46991SOL    HW152697  10.636   3.756  11.647  0.4736  0.0540  0.5553
46991SOL    HW252698  10.726   3.737  11.527 -0.0101 -1.9792  0.4733
46992SOL     OW52699   6.914   4.918   4.033  0.0743  0.1038  0.0821
46992SOL    HW152700   6.855   4.903   3.959  1.8714 -0.0150 -1.3988
46992SOL    HW252701   6.943   5.008   4.022  1.1756 -0.2462 -0.0073
46993SOL     OW52702  10.585   7.089   8.867  0.1709 -0.0203 -0.3003
46993SOL    HW152703  10.548   7.019   8.922 -1.4197  1.7183  0.9281
46993SOL    HW252704  10.605   7.045   8.784  0.9960 -2.3497  1.0195
46994SOL     OW52705  11.037  11.118  10.890 -0.0448 -0.0392 -1.2852
46994SOL    HW152706  11.047  11.023  10.879  0.4239 -0.2786  0.7732
46994SOL    HW252707  10.957  11.127  10.940  0.3427  0.5923 -0.7712
46995SOL     OW52708   1.832   0.076  11.105  0.2359 -0.1317 -0.3353
46995SOL    HW152709   1.786   0.063  11.188 -0.6340  0.3550 -0.7242
46995SOL    HW252710   1.792   0.013  11.046 -0.1929  0.5256 -0.7672
46996SOL     OW52711   0.347   8.632   5.436  0.1501 -0.1401  0.2144
46996SOL    HW152712   0.264   8.612   5.480 -1.0999 -1.9100 -2.6967
46996SOL    HW252713   0.344   8.726   5.420 -2.2677 -0.4361 -1.5272
46997SOL     OW52714   2.950   0.289   3.329 -0.0191 -0.1913  0.2043
46997SOL    HW152715   2.912   0.216   3.281  0.0732  0.2387 -0.5404
46997SOL    HW252716   3.030   0.309   3.281 -1.1550  1.8451 -0.9810
46998SOL     OW52717   2.509  11.940  10.019 -0.3019 -0.3139  0.3273
46998SOL    HW152718   2.467  11.859   9.991  1.3209  0.0942 -4.0546
46998SOL    HW252719   2.457  12.010   9.979  0.6062  0.5807  0.6410
46999SOL     OW52720   2.099   8.559  11.195  0.0989  0.1121  0.7064
46999SOL    HW152721   2.073   8.470  11.219 -0.5940 -0.1041 -0.7422
46999SOL    HW252722   2.187   8.549  11.159 -0.2111 -0.0999 -0.0171
47000SOL     OW52723   8.449   5.194   0.735  0.2808  0.6065  0.2525
47000SOL    HW152724   8.424   5.122   0.677  2.5894 -1.0985  1.1989
47000SOL    HW252725   8.403   5.176   0.817 -0.7707  1.4509 -0.1160
47001SOL     OW52726   0.062   0.045   9.553  0.6743 -0.0567  0.5083
47001SOL    HW152727   0.008   0.081   9.623  0.1290 -1.0925  0.6390
47001SOL    HW252728   0.044  -0.048   9.553 -0.1982  0.0325 -1.7279
47002SOL     OW52729   2.114   9.083   3.540  0.0546  0.1780 -0.3261
47002SOL    HW152730   2.181   9.107   3.476  1.2364  0.7485  1.0622
47002SOL    HW252731   2.124   9.148   3.610 -0.9550 -0.6359  0.6060
47003SOL     OW52732   1.452   5.621   2.381 -0.2289 -0.1342 -0.6940
47003SOL    HW152733   1.536   5.667   2.371 -0.2408 -0.0172 -0.2530
47003SOL    HW252734   1.421   5.609   2.291  1.3892 -2.2901 -1.0545
47004SOL     OW52735   8.082   3.537   0.545  0.5218 -0.2636  0.3213
47004SOL    HW152736   8.071   3.630   0.565  2.3152  0.0879 -0.1467
47004SOL    HW252737   7.997   3.498   0.567  0.3433  1.1239  2.4455
47005SOL     OW52738   5.427   8.056   7.574 -0.4093  0.7720 -0.3656
47005SOL    HW152739   5.383   8.114   7.637  0.4255  0.9773  0.0494
47005SOL    HW252740   5.412   8.097   7.489 -0.5898  1.1140 -0.1714
47006SOL     OW52741   7.934   4.746   9.286 -0.2306 -0.1906  0.0706
47006SOL    HW152742   7.961   4.837   9.278  0.7980 -0.5771 -1.2079
47006SOL    HW252743   7.874   4.745   9.360 -0.5562  1.5940 -0.1273
47007SOL     OW52744   8.003   3.172   8.020 -0.8018 -0.4870 -0.2963
47007SOL    HW152745   7.915   3.155   8.053 -0.8463  0.0797 -0.1013
47007SOL    HW252746   7.989   3.214   7.934 -0.8480  2.2236  0.9166
47008SOL     OW52747  10.260   3.421   7.753 -0.0523 -0.5990  0.2348
47008SOL    HW152748  10.267   3.412   7.657 -0.7510  0.3843  0.0846
47008SOL    HW252749  10.179   3.375   7.775  0.7107 -1.8607  0.5239
47009SOL     OW52750   5.238   4.041   8.684 -0.0099 -0.1383  0.1067
47009SOL    HW152751   5.146   4.019   8.665  0.0325 -0.1988 -0.0264
47009SOL    HW252752   5.240   4.054   8.779  0.3469 -2.5366  0.4887
47010SOL     OW52753   4.117  11.158   0.241 -0.9374  0.2304 -0.8192
47010SOL    HW152754   4.028  11.188   0.221 -1.2991  0.0321  0.4099
47010SOL    HW252755   4.141  11.205   0.320 -0.1272 -0.0898 -0.8663
47011SOL     OW52756   4.949   1.487   4.988 -0.0867  0.4829 -0.0056
47011SOL    HW152757   4.986   1.401   5.008 -1.1435 -0.4300 -1.7864
47011SOL    HW252758   4.962   1.538   5.069  0.1375 -1.4719  1.2442
47012SOL     OW52759   5.578   6.510   9.452  0.2651 -0.4637  0.4373
47012SOL    HW152760   5.626   6.568   9.510  0.2196 -0.1859  0.1997
47012SOL    HW252761   5.597   6.422   9.484 -1.3326 -0.2538  2.1077
47013SOL     OW52762   9.685   4.987   4.263  0.0070  0.4357  0.1422
47013SOL    HW152763   9.729   5.057   4.310 -1.3048  1.9911 -0.8601
47013SOL    HW252764   9.600   4.979   4.306  0.8289 -2.0153  1.5656
47014SOL     OW52765   9.533  11.004   1.746  0.1930 -0.3481 -0.1260
47014SOL    HW152766   9.559  10.917   1.778 -0.6533 -0.3036  0.7431
47014SOL    HW252767   9.477  10.985   1.670 -0.9972 -0.6334  0.7956
47015SOL     OW52768   9.745   3.151   3.892 -0.3744  0.0860  0.7207
47015SOL    HW152769   9.841   3.145   3.901 -0.3151  0.1617  0.1271
47015SOL    HW252770   9.731   3.237   3.852 -0.4972 -1.1748 -2.1519
47016SOL     OW52771   2.353   4.477   8.330 -0.0026 -0.4239  0.0563
47016SOL    HW152772   2.363   4.566   8.365  2.0444 -1.2086  1.6862
47016SOL    HW252773   2.385   4.483   8.240 -2.2973  0.9665 -0.7489
47017SOL     OW52774   0.978   0.789   2.960 -0.1906 -0.0319 -0.3059
47017SOL    HW152775   1.051   0.763   3.016 -0.5520 -1.7032 -0.5598
47017SOL    HW252776   0.903   0.791   3.019 -0.6596 -2.2468 -0.7531
47018SOL     OW52777   6.721  11.480  11.263 -0.2350 -0.0806 -0.0156
47018SOL    HW152778   6.788  11.532  11.218  0.5201 -0.9633  0.0454
47018SOL    HW252779   6.765  11.449  11.342 -1.4031  1.0899  1.1567
47019SOL     OW52780  10.269   9.509  10.346 -0.1277 -0.5957  0.0638
47019SOL    HW152781  10.277   9.598  10.311 -0.8068 -0.8556 -0.7967
47019SOL    HW252782  10.175   9.490  10.344 -0.1627 -0.7648  1.7307
47020SOL     OW52783   7.525   5.986   5.350 -0.2319 -0.8147 -0.5529
47020SOL    HW152784   7.433   5.979   5.324 -0.3730  0.7415 -0.6046
47020SOL    HW252785   7.540   5.910   5.406 -1.8499 -0.5743  0.2791
47021SOL     OW52786   2.356   3.547   4.569 -0.3180 -0.3938 -0.4299
47021SOL    HW152787   2.301   3.550   4.648 -1.7781 -0.9140 -1.3839
47021SOL    HW252788   2.386   3.638   4.559 -0.0796 -0.3206  0.7196
47022SOL     OW52789   5.479   4.756  10.662 -0.0696 -0.4184 -0.0889
47022SOL    HW152790   5.564   4.763  10.706  1.0127 -0.7048 -2.0424
47022SOL    HW252791   5.461   4.844  10.630 -0.2702 -0.4746 -0.1340
47023SOL     OW52792  11.325   7.198  11.597 -0.3866  0.4093 -0.3430
47023SOL    HW152793  11.381   7.160  11.664 -0.4107  0.0719 -0.5154
47023SOL    HW252794  11.371   7.278  11.570  0.4734 -0.3227 -1.1256
47024SOL     OW52795   7.053   2.307   6.382 -0.6873 -0.0946 -0.2193
47024SOL    HW152796   7.060   2.322   6.476 -0.4184  1.5988 -0.4816
47024SOL    HW252797   6.959   2.313   6.363 -0.6438  0.6214 -0.2143
47025SOL     OW52798  10.918   3.944   1.653  0.3967 -0.2324 -0.4204
47025SOL    HW152799  10.834   3.901   1.670  0.2015  0.7150  1.2804
47025SOL    HW252800  10.917   3.964   1.559 -1.7353  0.6339 -0.2798
47026SOL     OW52801   9.216   6.748   8.408  0.2682 -0.2676 -0.0078
47026SOL    HW152802   9.175   6.823   8.450  0.8679 -0.4527  0.9281
47026SOL    HW252803   9.202   6.675   8.469  0.4557 -0.7172 -0.4931
47027SOL     OW52804   0.127   9.919   7.288 -0.1738  0.0527 -0.3162
47027SOL    HW152805   0.033   9.933   7.299 -0.6836 -2.5586 -0.6542
47027SOL    HW252806   0.138   9.905   7.194  0.6427  0.7115 -0.3319
47028SOL     OW52807   0.207   4.962   5.635  0.1066 -0.2277 -0.5405
47028SOL    HW152808   0.164   4.878   5.653  1.3402 -1.1973 -1.9305
47028SOL    HW252809   0.275   4.969   5.701 -1.0509  0.5258  0.6283
47029SOL     OW52810   9.918   1.682   0.962  0.0639 -0.3364 -0.4284
47029SOL    HW152811   9.975   1.651   1.031  2.0220  0.2514 -1.7084
47029SOL    HW252812   9.850   1.615   0.955  1.7377 -2.1265 -0.1975
47030SOL     OW52813  10.324   5.712   7.854  0.2283 -0.0375  0.2192
47030SOL    HW152814  10.259   5.760   7.802  0.5958 -0.3201 -0.5248
47030SOL    HW252815  10.408   5.732   7.812  0.5186 -0.3960  0.6169
47031SOL     OW52816   7.427  11.043   1.643  0.3805 -0.9436  0.0523
47031SOL    HW152817   7.347  11.096   1.648  1.3328  0.5186  0.2132
47031SOL    HW252818   7.405  10.963   1.692 -1.1017 -0.7583 -0.2442
47032SOL     OW52819   7.867   5.776   8.847  0.0362  0.9120  0.0993
47032SOL    HW152820   7.922   5.758   8.923 -1.3579 -1.2109  0.6691
47032SOL    HW252821   7.781   5.794   8.884 -0.5195  0.4839 -0.9629
47033SOL     OW52822   6.232   6.880   8.009  0.0591 -0.4286 -0.3734
47033SOL    HW152823   6.249   6.912   7.921  1.8034  0.1926  0.1536
47033SOL    HW252824   6.249   6.955   8.066  1.1167 -1.4086  0.6495
47034SOL     OW52825   4.691   3.682   7.550  0.6763 -0.0075  0.8879
47034SOL    HW152826   4.655   3.711   7.634  0.5633  2.0256  0.1891
47034SOL    HW252827   4.671   3.588   7.547 -3.3560  0.6605  1.2072
47035SOL     OW52828   6.567  11.869   3.213  0.3486  0.4079 -0.3501
47035SOL    HW152829   6.608  11.788   3.183  1.8862  0.9080  0.3131
47035SOL    HW252830   6.557  11.858   3.307 -0.1336  0.7004 -0.3621
47036SOL     OW52831   0.327   0.801  10.157  0.2954  0.0355 -0.5793
47036SOL    HW152832   0.279   0.718  10.159 -0.7252  0.6066 -0.5554
47036SOL    HW252833   0.259   0.867  10.142  1.1803  0.8041 -1.2818
47037SOL     OW52834   5.687   2.243   9.518  0.2325  0.2036  0.3359
47037SOL    HW152835   5.685   2.220   9.611  0.1849 -0.0494  0.2739
47037SOL    HW252836   5.755   2.309   9.511  0.2166  0.2442  0.5563
47038SOL     OW52837   5.234   0.456   8.473 -0.5773 -0.0550 -0.0516
47038SOL    HW152838   5.325   0.453   8.502 -0.0982  0.6088 -1.4006
47038SOL    HW252839   5.230   0.394   8.400 -1.6089 -1.2730  0.9985
47039SOL     OW52840   2.420   9.300   7.301 -0.2467  0.1717  0.5267
47039SOL    HW152841   2.385   9.378   7.345  1.3868  2.5781 -2.0881
47039SOL    HW252842   2.497   9.277   7.354  0.3219  1.5443  0.3651
47040SOL     OW52843   6.174   2.724   8.924  0.0472 -0.3348  0.3289
47040SOL    HW152844   6.161   2.651   8.863  0.8583 -0.5376  0.3938
47040SOL    HW252845   6.269   2.738   8.926 -0.1448  1.5316 -0.6273
47041SOL     OW52846  10.540   4.491   1.453 -0.0318 -0.0305 -0.1135
47041SOL    HW152847  10.499   4.448   1.378  0.6904  0.9188 -1.0905
47041SOL    HW252848  10.616   4.536   1.416  0.5783  0.1182  1.2656
47042SOL     OW52849   4.011   9.534  10.626  0.1408  0.6158 -0.0012
47042SOL    HW152850   4.083   9.586  10.591  0.1647  0.2294 -0.5382
47042SOL    HW252851   4.007   9.558  10.719  1.2331  0.3346  0.1390
47043SOL     OW52852  10.711   9.340   9.909  0.1398 -0.1175  0.4844
47043SOL    HW152853  10.692   9.359  10.001 -2.9915  0.7274 -0.2104
47043SOL    HW252854  10.625   9.338   9.867  1.5065  0.4871 -2.6262
47044SOL     OW52855   3.558   2.484   0.357  0.1106  0.5746 -0.3737
47044SOL    HW152856   3.509   2.402   0.357  1.0946 -0.0544  0.8439
47044SOL    HW252857   3.491   2.553   0.357 -0.7274 -0.2256 -0.9016
47045SOL     OW52858   1.940   0.006  10.058 -0.1950  0.0421 -0.2534
47045SOL    HW152859   1.850   0.022  10.085 -0.0517 -0.3792  0.5099
47045SOL    HW252860   1.993   0.064  10.112  0.0718 -0.5873  0.1828
47046SOL     OW52861   3.187   1.451   9.452  0.1217 -0.5553  0.3664
47046SOL    HW152862   3.123   1.484   9.389  0.6415 -0.7990 -0.2945
47046SOL    HW252863   3.272   1.466   9.411  0.5305  0.1982  1.4376
47047SOL     OW52864   8.984  11.009   1.412  0.2198  0.6368  0.1357
47047SOL    HW152865   8.989  10.967   1.326  2.0546 -2.0041  1.3961
47047SOL    HW252866   9.026  11.094   1.400 -1.1985  1.1350 -1.9184
47048SOL     OW52867  11.940   5.170   4.615  0.2497 -0.9406 -0.4408
47048SOL    HW152868  11.923   5.116   4.538 -1.4249 -0.2223 -0.6079
47048SOL    HW252869  11.970   5.254   4.579  3.2694 -1.7773 -0.1753
47049SOL     OW52870   1.631   3.086   0.234 -0.1546  0.3497  0.2936
47049SOL    HW152871   1.671   3.129   0.158 -0.5377  1.4688  0.7077
47049SOL    HW252872   1.573   3.020   0.197 -1.5396  1.9330 -0.4540
47050SOL     OW52873   0.167   1.222   7.529  0.0529 -0.1377  0.1420
47050SOL    HW152874   0.245   1.221   7.583  1.2268 -1.8956 -1.4560
47050SOL    HW252875   0.183   1.156   7.461 -2.3297  0.2574 -0.9360
47051SOL     OW52876   5.838   8.681   3.444  0.2492 -0.0240 -0.0015
47051SOL    HW152877   5.782   8.627   3.500  0.7597 -1.0669 -0.4722
47051SOL    HW252878   5.825   8.646   3.356 -0.4953  1.5583 -0.5563
47052SOL     OW52879   3.771   6.414   9.384 -0.5439  0.4585 -0.3418
47052SOL    HW152880   3.841   6.356   9.416  0.8270  1.6241 -1.0747
47052SOL    HW252881   3.712   6.423   9.458  1.0063  0.7903  0.9068
47053SOL     OW52882  11.091   5.956   8.570 -0.4117 -0.7489 -0.7196
47053SOL    HW152883  11.014   6.009   8.589 -0.8360 -1.3909 -0.6331
47053SOL    HW252884  11.094   5.951   8.475  0.7838  1.0996 -0.8357
47054SOL     OW52885   7.428   0.929   5.873 -0.0564  0.0460  0.1785
47054SOL    HW152886   7.363   0.953   5.940  0.5860  0.9213  0.5086
47054SOL    HW252887   7.511   0.929   5.920  0.4219  0.8143 -0.6428
47055SOL     OW52888   1.781   9.914   9.289 -0.2894 -0.0464  0.4370
47055SOL    HW152889   1.852   9.891   9.229 -0.3857 -0.1523  0.3637
47055SOL    HW252890   1.812   9.886   9.375 -0.2885 -0.1901  0.3897
47056SOL     OW52891   6.443   6.687   8.077  0.0896 -0.2514  0.4895
47056SOL    HW152892   6.485   6.759   8.031 -0.9141 -0.2117 -0.4117
47056SOL    HW252893   6.351   6.691   8.049 -0.1119 -1.4994  0.9020
47057SOL     OW52894  11.817   1.738   0.296 -0.0066  0.0990 -0.6009
47057SOL    HW152895  11.905   1.718   0.330  0.1311 -0.1018 -1.0568
47057SOL    HW252896  11.786   1.809   0.350  0.9948  1.1051 -1.2933
47058SOL     OW52897   1.225   1.327   6.607 -0.0901 -0.3635  0.1570
47058SOL    HW152898   1.262   1.304   6.693  0.9718 -0.2491 -0.2597
47058SOL    HW252899   1.203   1.420   6.614 -1.4872 -0.7032  0.8073
47059SOL     OW52900   7.239  10.987   4.528 -0.6436  0.0109 -0.1566
47059SOL    HW152901   7.267  11.002   4.438 -1.5812  0.7858 -0.3419
47059SOL    HW252902   7.146  10.966   4.521 -0.5703 -0.5889  0.5769
47060SOL     OW52903   5.402  11.456   7.726  0.6138  0.2896  0.2441
47060SOL    HW152904   5.351  11.402   7.666  1.4892 -0.9233  0.5593
47060SOL    HW252905   5.336  11.509   7.772 -0.1624  0.3262 -0.8760
47061SOL     OW52906   2.288   0.955   3.254  0.3636  0.2899  0.6448
47061SOL    HW152907   2.368   0.906   3.273  0.1273 -0.2476  0.2830
47061SOL    HW252908   2.221   0.888   3.242  0.6146  0.4739 -2.7339
47062SOL     OW52909  11.335   5.831   2.939 -0.2398  0.3237 -0.9304
47062SOL    HW152910  11.420   5.817   2.980 -0.6509 -0.1524 -0.2117
47062SOL    HW252911  11.344   5.914   2.892  0.6813  0.1712 -1.0429
47063SOL     OW52912  11.018   8.809   8.721  0.5083  0.6830 -0.3373
47063SOL    HW152913  11.002   8.878   8.785 -0.2386  0.6433 -0.4716
47063SOL    HW252914  11.091   8.841   8.668  0.2973  1.2793 -0.2727
47064SOL     OW52915   3.170   9.068   3.484 -0.4968  0.3632 -0.1032
47064SOL    HW152916   3.097   9.126   3.509 -2.2971 -1.8077 -0.0576
47064SOL    HW252917   3.128   8.991   3.446  1.7563 -1.2478  0.4601
47065SOL     OW52918  10.338   7.283   0.436  0.3795 -0.1466  0.4436
47065SOL    HW152919  10.252   7.317   0.461 -0.3371 -0.8881 -0.9402
47065SOL    HW252920  10.368   7.342   0.367 -0.3246 -1.5412 -1.1039
47066SOL     OW52921   5.005  11.142   1.046 -0.0029 -0.1566  0.1747
47066SOL    HW152922   5.019  11.056   1.006  0.0159 -0.0806  0.0166
47066SOL    HW252923   5.085  11.191   1.024  0.6330 -0.5565  1.4615
47067SOL     OW52924  11.930   8.504   7.412  0.0787 -0.6582  0.0373
47067SOL    HW152925  11.892   8.535   7.494  0.1185 -0.8148  0.1156
47067SOL    HW252926  11.876   8.429   7.387  0.1014 -0.6462 -0.0490
47068SOL     OW52927   4.421   8.927   5.344  0.8726 -0.6193  0.2452
47068SOL    HW152928   4.395   8.982   5.270 -3.0594 -1.8388  0.4695
47068SOL    HW252929   4.428   8.839   5.307  1.8287 -0.8064  0.8321
47069SOL     OW52930   5.005   8.416  10.527  0.0089  0.4896  0.2555
47069SOL    HW152931   4.939   8.441  10.462  0.8201 -1.6871 -1.5228
47069SOL    HW252932   5.014   8.321  10.518  2.5743  0.5590  1.2161
47070SOL     OW52933   6.121   0.665   6.933  0.1295  0.0598  0.3230
47070SOL    HW152934   6.196   0.607   6.922 -1.2554 -1.3906 -2.2393
47070SOL    HW252935   6.119   0.718   6.853 -1.6143  0.0147  0.2941
47071SOL     OW52936   4.816   1.765   1.223  0.5700  0.1768  0.0700
47071SOL    HW152937   4.793   1.851   1.187  0.1726  0.5209  1.1010
47071SOL    HW252938   4.811   1.706   1.148 -0.0997  0.8945 -0.4758
47072SOL     OW52939  10.634   6.505   1.382 -0.1751 -0.1554 -0.3936
47072SOL    HW152940  10.582   6.528   1.305  0.3859  0.7691 -0.5046
47072SOL    HW252941  10.608   6.569   1.449 -0.4184 -0.7516  0.0974
47073SOL     OW52942   7.693   6.584   3.217 -0.2779 -0.9044 -0.1952
47073SOL    HW152943   7.733   6.520   3.157 -1.2508  0.1303 -2.0364
47073SOL    HW252944   7.743   6.574   3.299  2.0765 -1.4147 -1.5850
47074SOL     OW52945   8.132   4.585   0.399  0.2927 -0.2823  0.1244
47074SOL    HW152946   8.153   4.505   0.448  1.8942  0.5251  0.8299
47074SOL    HW252947   8.202   4.646   0.422 -0.6188  1.1648 -0.7982
47075SOL     OW52948  10.345   4.760   3.606 -0.6644  0.2059 -0.4211
47075SOL    HW152949  10.327   4.817   3.681 -0.5518 -1.0024  0.5573
47075SOL    HW252950  10.272   4.698   3.605  0.1699 -0.7965 -0.3025
47076SOL     OW52951   3.437   7.164   7.750 -0.8298 -0.0781  0.2215
47076SOL    HW152952   3.436   7.187   7.657 -1.7778 -0.3761  0.1483
47076SOL    HW252953   3.520   7.118   7.762 -0.7430 -0.1278 -0.5046
47077SOL     OW52954  11.841   6.598   8.023  0.1784 -0.6338  0.3858
47077SOL    HW152955  11.774   6.666   8.019  0.6469 -0.1631  0.4498
47077SOL    HW252956  11.808   6.535   8.087 -0.3084 -0.5319  0.2457
47078SOL     OW52957   5.002   1.105  11.109  0.2813  0.4419 -0.7698
47078SOL    HW152958   5.052   1.037  11.154  0.3078  2.0982  1.8982
47078SOL    HW252959   5.066   1.151  11.055  0.7116 -0.1968 -0.8127
47079SOL     OW52960   6.599   9.525   5.409 -0.2539 -0.3495  0.0398
47079SOL    HW152961   6.689   9.514   5.378 -0.1818  0.2556  0.0221
47079SOL    HW252962   6.587   9.619   5.412 -1.1809 -0.4225 -0.8156
47080SOL     OW52963   4.543   9.024   4.930  0.1787  0.0630  0.5846
47080SOL    HW152964   4.481   9.068   4.989  0.4811  0.7298  0.4242
47080SOL    HW252965   4.566   9.091   4.866 -1.4111 -1.1151 -1.3272
47081SOL     OW52966   4.389   5.943   8.960 -0.0363  0.0951  0.0767
47081SOL    HW152967   4.483   5.935   8.977 -0.5025 -2.8550  1.9764
47081SOL    HW252968   4.373   5.884   8.886 -0.5444 -0.2095  0.4256
47082SOL     OW52969   5.396   2.797  11.008  0.5347 -0.2631 -0.5102
47082SOL    HW152970   5.435   2.802  11.096  0.5472  1.7013 -0.5854
47082SOL    HW252971   5.457   2.845  10.952  1.0032 -2.2892 -1.8306
47083SOL     OW52972   8.929  11.393   6.405  0.2127 -0.2864  0.4405
47083SOL    HW152973   8.895  11.453   6.472  1.9212 -1.1694  2.1841
47083SOL    HW252974   8.858  11.387   6.342 -1.9262 -0.1673  2.6649
47084SOL     OW52975  10.634   4.077   4.710  0.4702  0.4459  0.3285
47084SOL    HW152976  10.636   4.132   4.631 -1.7776  0.1278 -0.0177
47084SOL    HW252977  10.669   4.133   4.779  2.0376  0.8944 -0.7797
47085SOL     OW52978  11.948   4.921  11.121  0.0452  0.2629  0.5187
47085SOL    HW152979  11.869   4.896  11.074 -0.9781  0.5409  2.0114
47085SOL    HW252980  11.916   4.974  11.195  1.7307  1.6422  0.3367
47086SOL     OW52981   0.023  10.372   2.523  0.0192  0.2341  0.2766
47086SOL    HW152982  -0.070  10.381   2.503  0.2388 -0.3612 -1.1515
47086SOL    HW252983   0.062  10.453   2.489  0.1700 -0.0490 -0.2408
47087SOL     OW52984   3.875  11.420  10.411 -0.1357 -0.5613 -0.0528
47087SOL    HW152985   3.855  11.334  10.446  1.2429 -1.0774 -0.4870
47087SOL    HW252986   3.969  11.430  10.423  0.4537 -0.7987 -3.6152
47088SOL     OW52987  11.284   2.215   6.090  0.2080 -0.2500  0.0660
47088SOL    HW152988  11.211   2.277   6.094 -0.3738 -0.8515 -0.9003
47088SOL    HW252989  11.360   2.269   6.068 -0.4009  0.0575 -1.3971
47089SOL     OW52990   4.522  10.286   6.480 -0.3012  0.1501  0.4067
47089SOL    HW152991   4.455  10.218   6.473 -1.8968  1.6358  0.4477
47089SOL    HW252992   4.567  10.283   6.396 -0.0928 -1.1742  0.5375
47090SOL     OW52993   5.168   7.880  10.180 -0.1919 -0.3926 -0.4626
47090SOL    HW152994   5.216   7.858  10.260 -0.7618  0.3172  0.0918
47090SOL    HW252995   5.084   7.834  10.190 -0.7773  0.7332 -0.0262
47091SOL     OW52996   3.869   7.250   8.689 -0.0553 -0.0320 -0.1739
47091SOL    HW152997   3.854   7.320   8.626  0.3077  0.3632  0.1699
47091SOL    HW252998   3.964   7.241   8.693  0.0579  1.3133  1.7552
47092SOL     OW52999   6.470   2.003   3.675 -0.2198 -0.0731  0.2483
47092SOL    HW153000   6.442   2.016   3.765  0.7959  1.1468  0.4139
47092SOL    HW253001   6.480   2.091   3.640  0.1746 -0.5216 -0.8101
47093SOL     OW53002   1.066   6.824   8.920  0.0877 -0.1167  0.6506
47093SOL    HW153003   1.052   6.796   8.830  0.0818 -0.6723  0.8202
47093SOL    HW253004   0.994   6.884   8.938  0.3324  0.3372  0.1505
47094SOL     OW53005  10.908   6.642   7.348  0.7787  0.5263 -0.0411
47094SOL    HW153006  10.997   6.662   7.378  0.9350  0.6989 -0.5994
47094SOL    HW253007  10.920   6.600   7.263  0.3846 -0.7015  0.4854
47095SOL     OW53008   1.648   5.451   1.575 -0.3035  0.2640  0.1132
47095SOL    HW153009   1.671   5.359   1.589  0.3950  0.3671 -0.3350
47095SOL    HW253010   1.652   5.490   1.663  0.5749  0.1249  0.1415
47096SOL     OW53011   3.041   9.409   6.281 -0.0635 -0.5266  0.1878
47096SOL    HW153012   2.996   9.331   6.248  0.3095 -0.4088 -0.6145
47096SOL    HW253013   3.026   9.476   6.214 -0.3054  0.0729  0.8269
47097SOL     OW53014   3.167   1.585   4.615 -0.0513  0.0346 -0.0244
47097SOL    HW153015   3.168   1.503   4.664  2.0709 -0.2065 -0.3763
47097SOL    HW253016   3.234   1.573   4.547 -0.6433  1.5695 -0.9231
47098SOL     OW53017   2.786   8.519   1.852  0.1881  0.0512 -0.4531
47098SOL    HW153018   2.849   8.545   1.786 -0.0511  0.6001 -0.4717
47098SOL    HW253019   2.712   8.578   1.840 -0.9995 -1.5380 -1.4249
47099SOL     OW53020   8.257   3.042   6.520  0.8024 -0.2114 -0.5470
47099SOL    HW153021   8.299   3.118   6.561  0.4390  0.0141 -0.5936
47099SOL    HW253022   8.316   3.018   6.448  0.4131  0.6548 -1.1681
47100SOL     OW53023   5.315   1.800   5.642 -0.0972 -0.3365 -0.0064
47100SOL    HW153024   5.372   1.838   5.709  0.4005 -2.3111  0.7471
47100SOL    HW253025   5.290   1.715   5.677 -0.7039 -0.9712 -1.8743
47101SOL     OW53026  11.555   4.297   6.761 -0.3794  0.0614  0.1040
47101SOL    HW153027  11.470   4.281   6.720  0.0199 -0.5948 -0.4839
47101SOL    HW253028  11.542   4.270   6.852 -1.5282  2.3629  0.7074
47102SOL     OW53029   5.677   3.924   0.510  0.0042  0.5996  0.2485
47102SOL    HW153030   5.679   3.939   0.605 -1.0006  0.8366  0.2488
47102SOL    HW253031   5.584   3.907   0.491  0.1825  0.6587 -0.7096
47103SOL     OW53032   1.269   7.640   9.934  0.2163 -0.5142  0.0365
47103SOL    HW153033   1.230   7.654  10.020  2.3641 -1.4225  1.2298
47103SOL    HW253034   1.346   7.697   9.933 -1.2790  1.7151 -2.4914
47104SOL     OW53035   9.377   2.594   5.728  0.0637 -0.6039 -0.2774
47104SOL    HW153036   9.465   2.595   5.765  0.4271 -2.3277 -0.9720
47104SOL    HW253037   9.388   2.550   5.644 -1.1263  1.1071 -1.3826
47105SOL     OW53038   2.670   9.323  11.884  0.0420  0.2236 -0.1723
47105SOL    HW153039   2.709   9.255  11.940  0.0289 -0.1065 -0.5661
47105SOL    HW253040   2.576   9.312  11.895  0.0025 -0.7503 -1.3328
47106SOL     OW53041   8.138   1.897   2.954 -0.0415 -0.4967 -0.2734
47106SOL    HW153042   8.142   1.914   2.860 -0.9994  0.1944 -0.1999
47106SOL    HW253043   8.212   1.839   2.971 -1.2593 -2.6558 -1.8520
47107SOL     OW53044   9.309   0.466   1.042 -0.4878  0.5835 -0.6386
47107SOL    HW153045   9.276   0.520   1.113 -1.0108 -0.4434 -0.0707
47107SOL    HW253046   9.404   0.481   1.042 -0.1041 -1.1214  1.8563
47108SOL     OW53047   8.574   5.359   2.350  0.2090  0.3926  0.1274
47108SOL    HW153048   8.511   5.323   2.288  0.8259  0.4225 -0.5145
47108SOL    HW253049   8.654   5.310   2.335 -0.0367 -0.6607  1.9512
47109SOL     OW53050   6.936  11.682   5.669 -0.4632 -0.2835  0.4602
47109SOL    HW153051   6.953  11.631   5.749  0.1906  1.9123  1.7941
47109SOL    HW253052   7.018  11.676   5.619 -0.7672 -1.3980  0.0510
47110SOL     OW53053   2.494   7.976   6.513 -0.5465 -0.2727  0.0888
47110SOL    HW153054   2.404   7.945   6.502 -0.4987 -0.3082 -0.1993
47110SOL    HW253055   2.500   8.054   6.459 -0.8292  0.5798  1.2485
47111SOL     OW53056   3.326   1.961   0.630 -0.1206  0.1506 -0.2563
47111SOL    HW153057   3.403   2.018   0.631 -0.6255  0.8625 -0.6165
47111SOL    HW253058   3.274   1.993   0.556 -0.2185 -1.0593 -0.7281
47112SOL     OW53059   5.271  11.420   4.030 -0.1108 -0.0605  0.3051
47112SOL    HW153060   5.234  11.332   4.035 -0.5577  0.1780  2.4476
47112SOL    HW253061   5.219  11.471   4.092 -0.5211  2.0079 -1.6007
47113SOL     OW53062   4.942   0.400   3.491  0.3779  1.2338  0.4133
47113SOL    HW153063   4.955   0.422   3.583  1.8962  0.4371  0.4224
47113SOL    HW253064   5.024   0.359   3.465  0.2075  1.9922 -1.4637
47114SOL     OW53065  11.932   3.379   4.647  0.1503  0.0700  0.4444
47114SOL    HW153066  11.946   3.445   4.580 -0.2951 -1.2537 -0.9952
47114SOL    HW253067  11.926   3.429   4.729  0.9876  1.6856 -0.4396
47115SOL     OW53068   1.605   0.397   7.718  0.1835 -0.1950  0.1680
47115SOL    HW153069   1.622   0.484   7.755  0.3247 -0.3752  0.5414
47115SOL    HW253070   1.569   0.413   7.631  0.5640  0.2305  0.0887
47116SOL     OW53071   8.402   8.736   3.300 -0.0581  0.5641  0.1282
47116SOL    HW153072   8.374   8.814   3.251 -1.1432 -0.7166 -1.4089
47116SOL    HW253073   8.493   8.723   3.274 -0.4677  0.1914 -1.2606
47117SOL     OW53074   2.989   0.608   8.417 -0.1961 -0.1378  0.4071
47117SOL    HW153075   2.928   0.568   8.479 -1.4601 -0.1422 -0.7940
47117SOL    HW253076   2.937   0.673   8.371  0.6991 -0.1738 -0.6920
47118SOL     OW53077   1.531   9.200   8.787  0.5508 -0.3568  0.1103
47118SOL    HW153078   1.489   9.130   8.738  2.4054 -0.0758 -2.0297
47118SOL    HW253079   1.615   9.163   8.815  0.5148  0.2549  1.0762
47119SOL     OW53080   5.039   7.169   8.620 -0.2827 -0.0885 -0.0969
47119SOL    HW153081   5.001   7.231   8.558  0.6895  2.2552  1.5150
47119SOL    HW253082   4.965   7.141   8.674 -0.5129  0.7984  0.0640
47120SOL     OW53083   4.278   7.713   8.733  0.2802 -0.3113  0.0779
47120SOL    HW153084   4.310   7.642   8.677 -0.6691 -0.9501  0.3135
47120SOL    HW253085   4.197   7.678   8.771  0.5626  0.3552  1.3396
47121SOL     OW53086   6.362   6.480  11.009  0.1649  0.4086  0.0383
47121SOL    HW153087   6.267   6.470  11.004  0.3290 -1.2131 -0.3855
47121SOL    HW253088   6.375   6.573  11.028 -1.5523  0.3290  2.0202
47122SOL     OW53089   7.911   3.094  11.567 -0.0845 -0.1451 -0.1422
47122SOL    HW153090   7.925   3.024  11.503  1.0513 -0.6981  0.6805
47122SOL    HW253091   7.844   3.149  11.527 -0.2000 -1.0805 -1.3115
47123SOL     OW53092   3.554  11.763   8.812 -0.1319 -0.2137 -0.0396
47123SOL    HW153093   3.508  11.841   8.843 -1.8598 -0.7702 -1.0127
47123SOL    HW253094   3.532  11.695   8.876 -0.0324 -0.3014 -0.0970
47124SOL     OW53095   0.088   4.489   4.632 -0.3928  0.1340  0.4371
47124SOL    HW153096   0.042   4.568   4.660 -1.7709 -1.0630  1.7402
47124SOL    HW253097   0.102   4.501   4.538 -1.2969  1.5661  0.4609
47125SOL     OW53098   4.142   3.064   8.298 -0.2185  0.2634  0.0948
47125SOL    HW153099   4.139   3.147   8.345  0.7454  0.0731  0.5234
47125SOL    HW253100   4.052   3.049   8.269 -0.5310  1.1194  0.5985
47126SOL     OW53101   6.406  11.370  10.022 -0.2617  0.7287 -0.3359
47126SOL    HW153102   6.311  11.367  10.012 -0.2490 -0.1118 -0.2977
47126SOL    HW253103   6.423  11.320  10.102  0.3078 -0.2599 -1.0539
47127SOL     OW53104  10.999   3.457   8.250 -0.1217  0.4900  0.1064
47127SOL    HW153105  11.039   3.545   8.250 -1.5012  1.1397  0.9680
47127SOL    HW253106  11.001   3.429   8.341  0.3225 -0.4093 -0.1653
47128SOL     OW53107   5.746   0.803   7.519 -0.2186  0.1859 -0.0273
47128SOL    HW153108   5.778   0.736   7.580  1.1325 -0.1857 -1.0859
47128SOL    HW253109   5.652   0.784   7.510 -0.5121  0.4398  2.1238
47129SOL     OW53110   6.049   4.910   9.270  0.1811  0.5233 -0.5702
47129SOL    HW153111   6.075   4.983   9.215  0.3299  1.9784  1.3272
47129SOL    HW253112   5.962   4.934   9.303  0.6014  0.3093  0.7656
47130SOL     OW53113   5.767  11.883   9.535 -0.1784  0.1403 -0.3916
47130SOL    HW153114   5.770  11.978   9.547 -0.1426 -0.0715  1.7149
47130SOL    HW253115   5.744  11.849   9.622  1.1349 -1.8411 -0.7594
47131SOL     OW53116   2.828   8.323   0.770  0.3763 -0.0988 -0.2989
47131SOL    HW153117   2.733   8.315   0.762  0.0456  2.2728  0.4943
47131SOL    HW253118   2.843   8.416   0.788  2.9693 -0.0817 -2.0033
47132SOL     OW53119   2.502   6.443   6.171  0.5936  0.4170 -0.2049
47132SOL    HW153120   2.483   6.407   6.085 -0.8083  0.0505  0.2394
47132SOL    HW253121   2.569   6.385   6.207 -0.7251 -1.0440 -0.0028
47133SOL     OW53122   2.234  11.740   6.871  0.5454 -0.0939 -0.0083
47133SOL    HW153123   2.261  11.712   6.958 -0.2314 -0.3546  0.1582
47133SOL    HW253124   2.189  11.823   6.885  0.9961  0.2006 -0.2514
47134SOL     OW53125   4.513   9.300   0.099  1.0459 -0.1209  0.5091
47134SOL    HW153126   4.437   9.273   0.047  1.2547  1.8208 -0.8798
47134SOL    HW253127   4.490   9.275   0.189 -1.2589  0.3987  0.1288
47135SOL     OW53128   9.650   8.928   5.811  0.1522  0.2123  0.3196
47135SOL    HW153129   9.690   8.864   5.870 -0.9888  0.6322  1.5800
47135SOL    HW253130   9.722   8.985   5.786  0.5571  0.3884  1.7935
47136SOL     OW53131  10.995   1.495   4.772  0.4137 -0.3015 -0.2974
47136SOL    HW153132  11.073   1.453   4.810  0.5884 -0.8858 -1.2659
47136SOL    HW253133  10.929   1.489   4.841  0.5657 -1.8167 -0.2401
47137SOL     OW53134   3.579   5.935   2.274 -0.1081  1.2884 -1.0226
47137SOL    HW153135   3.501   5.881   2.286  2.0709 -1.8745  0.3050
47137SOL    HW253136   3.641   5.902   2.339  3.0909  2.1350 -3.3854
47138SOL     OW53137   5.308   8.872   7.575 -0.2380 -0.3205 -0.3017
47138SOL    HW153138   5.397   8.906   7.585 -0.4110  0.4020 -1.0229
47138SOL    HW253139   5.306   8.834   7.487 -0.6207 -0.3920 -0.2671
47139SOL     OW53140   0.024   0.095   4.922 -0.3514  0.4935 -0.4145
47139SOL    HW153141  -0.022   0.022   4.881 -0.4317  0.7486 -0.7900
47139SOL    HW253142   0.014   0.167   4.859  1.7218  0.2000 -1.1642
47140SOL     OW53143   8.968  10.036  11.762 -0.0558  0.2560  0.3259
47140SOL    HW153144   8.884   9.991  11.767  0.1974 -0.3245 -0.3623
47140SOL    HW253145   8.986  10.066  11.851 -0.8403  0.1098  0.5356
47141SOL     OW53146   7.970   4.945   2.828  0.5503 -0.3534 -0.2553
47141SOL    HW153147   7.963   4.852   2.804  1.8296 -0.0270 -2.0834
47141SOL    HW253148   8.058   4.953   2.866  0.0182 -0.0694  0.9850
47142SOL     OW53149   9.896   1.385   2.597  0.7547 -0.2997 -0.4512
47142SOL    HW153150   9.802   1.397   2.610  0.6892 -1.0728 -0.1937
47142SOL    HW253151   9.932   1.383   2.686  0.6771 -2.6364 -0.4269
47143SOL     OW53152  11.514   6.426   6.054 -0.3621  0.3182 -0.0707
47143SOL    HW153153  11.495   6.519   6.040 -0.6668  0.2533 -0.0968
47143SOL    HW253154  11.584   6.425   6.120 -0.0229  0.5795 -0.4270
47144SOL     OW53155   0.468   4.677   0.365  0.4422  0.0896 -0.0887
47144SOL    HW153156   0.461   4.692   0.459  2.4105 -0.3615  0.1857
47144SOL    HW253157   0.451   4.763   0.326 -2.2271 -0.0815  0.4892
47145SOL     OW53158   2.975   8.888  11.338 -0.9352 -0.3788  0.8802
47145SOL    HW153159   3.024   8.852  11.263 -0.8038 -1.3261  1.4124
47145SOL    HW253160   2.922   8.958  11.300 -0.0293 -0.1002  0.0880
47146SOL     OW53161   9.426   6.812   3.156  0.2468  0.0668 -0.2429
47146SOL    HW153162   9.398   6.723   3.176  1.0899 -0.1147  0.1194
47146SOL    HW253163   9.516   6.803   3.127  0.7325  0.9382  0.9460
47147SOL     OW53164  10.421   6.194   9.624  0.2300 -0.0901 -0.5896
47147SOL    HW153165  10.415   6.179   9.719 -0.9055 -1.5110 -0.8551
47147SOL    HW253166  10.513   6.217   9.609  0.3388  0.5470  0.9013
47148SOL     OW53167   8.545  11.611   4.647 -0.1256  0.2226  0.6135
47148SOL    HW153168   8.533  11.706   4.649 -0.0860  0.2243  2.2793
47148SOL    HW253169   8.458  11.575   4.664  0.3603  0.0657  3.1822
47149SOL     OW53170  10.296   1.877   3.524  0.6755 -0.4913  0.4296
47149SOL    HW153171  10.337   1.801   3.482  0.3548 -0.0495 -0.7180
47149SOL    HW253172  10.365   1.943   3.526  0.1836  0.1123 -1.1270
47150SOL     OW53173   9.248   4.701   3.430  0.0535  0.9457  0.0900
47150SOL    HW153174   9.225   4.766   3.497 -0.8516  2.2330 -1.3970
47150SOL    HW253175   9.343   4.704   3.426  0.0198  2.5952 -0.3019
47151SOL     OW53176  10.154  11.852   5.068 -0.5665  0.2234  0.2718
47151SOL    HW153177  10.200  11.857   5.152 -1.7495 -0.1687  0.9623
47151SOL    HW253178  10.169  11.763   5.037 -0.8834  0.0802  0.5209
47152SOL     OW53179   5.164  11.456   7.097  0.6640 -0.3524 -0.4820
47152SOL    HW153180   5.115  11.376   7.119  1.7983 -1.2193 -0.9973
47152SOL    HW253181   5.124  11.488   7.017 -0.4363  0.1758  0.2540
47153SOL     OW53182  10.031   1.289   1.270 -0.5288 -0.1377 -0.3941
47153SOL    HW153183  10.113   1.260   1.231 -1.2933 -1.1896 -1.2765
47153SOL    HW253184  10.055   1.318   1.358  0.9326  0.5025 -0.9767
47154SOL     OW53185  11.373   1.129   7.952  0.1027  0.1628  0.2556
47154SOL    HW153186  11.453   1.126   8.004  0.2261  2.2472  0.2520
47154SOL    HW253187  11.391   1.071   7.878  1.1192 -0.3841  0.9065
47155SOL     OW53188   5.431   3.150   8.910 -1.3170  0.1630 -0.4734
47155SOL    HW153189   5.481   3.077   8.873 -2.6099 -0.1027 -1.7902
47155SOL    HW253190   5.438   3.138   9.005 -2.0708 -2.1114 -0.6331
47156SOL     OW53191  10.038   7.875   5.814  0.5358  0.0892 -0.2902
47156SOL    HW153192   9.954   7.832   5.829  0.1651  0.4845 -1.1675
47156SOL    HW253193  10.103   7.806   5.828  0.3254  0.3993  3.2909
47157SOL     OW53194  10.399  11.472   7.017 -0.4259 -0.1507 -0.3708
47157SOL    HW153195  10.404  11.447   7.109  0.8191 -0.3152 -0.4686
47157SOL    HW253196  10.363  11.560   7.018 -0.8278 -0.3136  0.2391
47158SOL     OW53197   1.035   2.461   3.177  0.3941  0.6909 -0.0610
47158SOL    HW153198   1.098   2.526   3.147  0.2580  1.0947  0.5100
47158SOL    HW253199   1.079   2.417   3.250  0.2678  0.5233 -0.0842
47159SOL     OW53200   8.199  10.654   0.068  0.1825 -0.0078  0.1574
47159SOL    HW153201   8.261  10.724   0.088 -0.5464  0.9273 -0.7257
47159SOL    HW253202   8.247  10.596   0.008  0.7572 -0.2212  0.8161
47160SOL     OW53203   5.164   4.348   6.571 -0.5471  0.3397  0.5143
47160SOL    HW153204   5.116   4.353   6.488 -1.8142 -0.5787  1.1517
47160SOL    HW253205   5.117   4.407   6.629 -0.7076 -0.3017  1.0493
47161SOL     OW53206   4.910   3.109   9.986 -0.3298  0.0084  0.0857
47161SOL    HW153207   4.940   3.145  10.070  0.2911 -0.2167 -0.0337
47161SOL    HW253208   4.825   3.150   9.971  0.7820  2.2004 -0.5473
47162SOL     OW53209   7.163   6.150   7.007  0.0838  0.4339 -0.2889
47162SOL    HW153210   7.069   6.135   7.020  0.2539  0.2922  0.8661
47162SOL    HW253211   7.167   6.215   6.937 -0.8636  0.2312 -0.5538
47163SOL     OW53212   1.272   4.556   0.200 -0.4226 -0.3842  0.0468
47163SOL    HW153213   1.284   4.597   0.114  2.1404 -2.3940 -0.6584
47163SOL    HW253214   1.330   4.605   0.258 -2.5227  1.3027  0.8884
47164SOL     OW53215   5.780   8.919   7.520 -0.1589 -0.0391 -0.1745
47164SOL    HW153216   5.835   8.995   7.500 -0.2914  0.5865  1.6345
47164SOL    HW253217   5.813   8.888   7.604  0.1836 -2.2978 -1.0751
47165SOL     OW53218  11.490   9.625  11.152  0.2792  0.0085 -0.4873
47165SOL    HW153219  11.494   9.692  11.084 -1.4925  0.1129 -0.5160
47165SOL    HW253220  11.412   9.646  11.203  0.2091 -1.5031  0.0779
47166SOL     OW53221  10.349   1.366   3.800  0.1464 -0.2001  0.1250
47166SOL    HW153222  10.256   1.351   3.781  0.7719 -0.6747 -3.1841
47166SOL    HW253223  10.365   1.455   3.769  0.6831  0.1397  1.3321
47167SOL     OW53224   4.111   9.409   5.348 -0.3020  0.3770 -0.1222
47167SOL    HW153225   4.092   9.455   5.430  2.2895  0.8043  0.3320
47167SOL    HW253226   4.149   9.325   5.376  1.0513  0.7219 -0.8265
47168SOL     OW53227   0.469   7.534   7.754  0.9730  0.1837  0.5370
47168SOL    HW153228   0.530   7.473   7.794 -0.3826 -0.9080  1.0067
47168SOL    HW253229   0.389   7.526   7.806  0.1518  0.9673 -0.5566
47169SOL     OW53230   8.984   9.217   7.354 -0.6598  0.3489  0.6461
47169SOL    HW153231   9.021   9.277   7.289  0.7602 -0.7395  0.4199
47169SOL    HW253232   8.982   9.132   7.310 -0.5603 -0.2175  1.7115
47170SOL     OW53233   8.081  11.340   4.869 -0.0786  0.6731  0.0714
47170SOL    HW153234   8.084  11.287   4.789  1.9538 -0.2356  0.6853
47170SOL    HW253235   8.066  11.277   4.939  1.4552  0.9622  0.7151
47171SOL     OW53236   7.873   0.173   9.901 -0.1057  0.1008 -0.2020
47171SOL    HW153237   7.802   0.129   9.948  2.3798  0.4598  4.5960
47171SOL    HW253238   7.855   0.266   9.913 -0.3949  0.2867 -1.8513
47172SOL     OW53239   6.364   7.661   3.290 -0.4913 -0.0227  0.0946
47172SOL    HW153240   6.283   7.648   3.338 -0.5570 -0.2479 -0.0782
47172SOL    HW253241   6.430   7.678   3.358 -0.4177 -1.1544  0.3236
47173SOL     OW53242   2.323   8.101   4.696 -0.0707  0.0118 -0.0735
47173SOL    HW153243   2.240   8.135   4.664 -0.2707  0.2747  0.7175
47173SOL    HW253244   2.379   8.097   4.618 -0.5963  0.5016 -0.4797
47174SOL     OW53245   6.354   2.142   2.281  0.7931  0.3247 -0.1158
47174SOL    HW153246   6.266   2.171   2.305  0.3480  0.5748 -1.9000
47174SOL    HW253247   6.410   2.218   2.298  0.4730  0.5341  0.0045
47175SOL     OW53248   2.944   9.994   9.366 -0.0785  0.7023 -0.4901
47175SOL    HW153249   2.982   9.922   9.417  1.2659  2.0209  0.4636
47175SOL    HW253250   2.966   9.973   9.275  1.3488  0.4634 -0.1248
47176SOL     OW53251  10.147   1.310   0.167 -0.1035  0.4748 -0.2142
47176SOL    HW153252  10.055   1.321   0.189  0.1071 -0.3864  1.2830
47176SOL    HW253253  10.186   1.274   0.247  1.6598  1.4397 -0.5933
47177SOL     OW53254   4.732  11.780   9.077  0.1734 -0.2598  0.1823
47177SOL    HW153255   4.779  11.745   9.153  0.4348 -0.0990  0.0983
47177SOL    HW253256   4.759  11.724   9.005  1.6804  0.9155 -0.2311
47178SOL     OW53257   3.096  11.846   1.280 -0.4014 -0.1214  0.3912
47178SOL    HW153258   3.103  11.916   1.345 -0.8130  0.0001  0.3122
47178SOL    HW253259   3.148  11.877   1.206  0.5456 -0.5220  0.8777
47179SOL     OW53260   3.633   4.693   2.923 -1.0192  0.0253 -0.1683
47179SOL    HW153261   3.688   4.682   3.000 -0.4438  0.8836 -0.4341
47179SOL    HW253262   3.565   4.627   2.931  1.4265 -2.8087 -1.0490
47180SOL     OW53263   8.001   1.664   0.957 -0.4460 -0.1971 -0.0002
47180SOL    HW153264   7.956   1.669   1.042  1.3618  0.0548  0.9826
47180SOL    HW253265   8.055   1.585   0.963 -0.8146 -0.5627 -1.2108
47181SOL     OW53266   9.771   2.028   2.542  0.0018 -0.1163 -0.5789
47181SOL    HW153267   9.809   2.115   2.529 -0.9529  0.3908 -0.1376
47181SOL    HW253268   9.844   1.967   2.533  0.7173  0.7496 -0.7069
47182SOL     OW53269   5.233   5.906  11.797 -0.3905 -0.2163 -0.7485
47182SOL    HW153270   5.235   5.963  11.719  1.7195 -0.5997 -1.0150
47182SOL    HW253271   5.258   5.963  11.869  0.6978 -0.5525 -0.8523
47183SOL     OW53272   0.409   5.313   4.931  0.0769 -0.0841 -0.4581
47183SOL    HW153273   0.370   5.281   4.849 -1.8668  1.6612 -0.3106
47183SOL    HW253274   0.378   5.404   4.938 -0.0695 -0.2593  2.3489
47184SOL     OW53275   7.553   9.586   4.910 -0.5413 -0.1943  0.5718
47184SOL    HW153276   7.543   9.681   4.921 -0.6314 -0.2407  0.9085
47184SOL    HW253277   7.642   9.567   4.942 -0.1386 -0.0785 -0.4573
47185SOL     OW53278   3.862   7.735   2.725  0.3634  0.2441 -0.3728
47185SOL    HW153279   3.896   7.791   2.655 -2.8296  0.7659 -1.7150
47185SOL    HW253280   3.911   7.761   2.803  2.8389  0.8842 -2.0300
47186SOL     OW53281   2.722  10.800   3.138  0.4308  0.1497 -0.0479
47186SOL    HW153282   2.749  10.850   3.062  0.3826  0.2821  0.0213
47186SOL    HW253283   2.802  10.755   3.168  0.7751  1.1989  0.6588
47187SOL     OW53284   2.463   9.818  10.318  0.2000  0.5250 -0.5061
47187SOL    HW153285   2.543   9.866  10.340  0.1222  0.2556  0.4005
47187SOL    HW253286   2.406   9.832  10.394  0.2963 -1.2690 -0.0514
47188SOL     OW53287   5.909   4.518   7.847 -0.2940  0.0290  0.2451
47188SOL    HW153288   5.821   4.548   7.826 -0.4152  2.1997  3.2353
47188SOL    HW253289   5.898   4.427   7.875 -1.2379 -0.3381 -1.2528
47189SOL     OW53290   8.007   6.127   4.380  0.6898 -0.3816  0.7510
47189SOL    HW153291   8.010   6.087   4.467  0.6706  2.0109  1.9480
47189SOL    HW253292   7.933   6.188   4.384  1.2400  0.4368 -0.6162
47190SOL     OW53293   0.319  11.521   9.266 -0.2513 -0.2690  0.3081
47190SOL    HW153294   0.251  11.526   9.334 -0.5227  1.0835 -0.0227
47190SOL    HW253295   0.400  11.540   9.312 -0.1994 -1.0382  0.5488
47191SOL     OW53296   6.398   1.604  10.564  0.4023 -0.0292  0.0175
47191SOL    HW153297   6.348   1.536  10.610 -0.1253 -0.1775 -0.7585
47191SOL    HW253298   6.365   1.687  10.600  0.3822 -0.1562  0.2925
47192SOL     OW53299   4.101   6.059   6.565  0.0111  0.0445  0.5608
47192SOL    HW153300   4.165   6.124   6.595 -0.0439 -0.2350  1.3176
47192SOL    HW253301   4.154   5.994   6.518  0.0902  0.5279 -0.0346
47193SOL     OW53302   3.895  10.271   1.707 -0.3806 -0.2489  0.2679
47193SOL    HW153303   3.829  10.290   1.639  1.2039  0.7952 -1.0579
47193SOL    HW253304   3.871  10.328   1.780 -0.0018  1.4555 -0.8681
47194SOL     OW53305   2.771   9.035   5.863  0.0196  0.0357 -0.6678
47194SOL    HW153306   2.754   8.993   5.779  1.8977 -0.3908 -0.8833
47194SOL    HW253307   2.817   9.116   5.841  1.2131 -0.4378 -0.0658
47195SOL     OW53308  11.487  11.905   5.491  0.2333 -0.4663  0.4270
47195SOL    HW153309  11.487  11.923   5.585  1.4906  0.7443  0.2208
47195SOL    HW253310  11.570  11.858   5.476  0.7740  0.6929 -0.2977
47196SOL     OW53311  11.442   3.071   8.672 -0.0695 -0.3207 -0.3054
47196SOL    HW153312  11.514   3.043   8.728  0.4083 -1.1813 -1.3193
47196SOL    HW253313  11.483   3.088   8.587 -1.1534 -1.5516 -1.1042
47197SOL     OW53314  10.987   2.567   9.808  0.0102  0.2805 -0.3222
47197SOL    HW153315  10.980   2.652   9.764  1.2716  0.2994 -0.5269
47197SOL    HW253316  10.963   2.585   9.899  3.1304  1.5393  0.3543
47198SOL     OW53317   4.377   5.644   8.486  0.1185  0.5124  0.2039
47198SOL    HW153318   4.378   5.678   8.397  1.2792 -0.2081 -0.0827
47198SOL    HW253319   4.470   5.629   8.507 -0.2669 -1.5994  0.6219
47199SOL     OW53320   1.944   3.276  10.613  0.4410 -0.3892 -0.5955
47199SOL    HW153321   2.015   3.235  10.663 -0.5253 -1.2154  0.1687
47199SOL    HW253322   1.906   3.204  10.562 -0.7634 -0.3283  0.1478
47200SOL     OW53323   6.855   0.200   9.262  0.3005 -0.2483  0.3932
47200SOL    HW153324   6.882   0.265   9.326  1.0007 -0.8265  0.7044
47200SOL    HW253325   6.928   0.197   9.200 -1.7649  2.8755 -2.5626
47201SOL     OW53326   3.031   5.472   9.733 -0.2707  0.3194 -0.5617
47201SOL    HW153327   3.105   5.492   9.677  1.0636  1.5307  1.4911
47201SOL    HW253328   2.989   5.397   9.692  2.0064 -0.3177 -1.8825
47202SOL     OW53329   3.419   0.132   7.996 -0.3748 -0.2994 -0.1528
47202SOL    HW153330   3.366   0.138   8.076 -0.6477 -0.9753 -0.2766
47202SOL    HW253331   3.395   0.209   7.945 -1.1447 -0.5243 -0.1426
47203SOL     OW53332  11.714   1.443   1.908 -0.4663  0.1187  0.2844
47203SOL    HW153333  11.626   1.452   1.945  0.1932 -1.3146  2.4061
47203SOL    HW253334  11.751   1.531   1.913 -0.5857  0.1036  2.8131
47204SOL     OW53335   7.212   2.935  10.814 -0.1311 -0.0276 -0.1602
47204SOL    HW153336   7.174   2.875  10.750 -1.1460  0.1733  0.2334
47204SOL    HW253337   7.177   3.021  10.790  0.9965  0.3559 -0.4738
47205SOL     OW53338   0.809   4.720   1.394 -0.4069 -0.4577 -0.2715
47205SOL    HW153339   0.774   4.799   1.354 -0.4901 -0.1878  0.3221
47205SOL    HW253340   0.896   4.709   1.355  0.0612  0.5536  0.4639
47206SOL     OW53341   7.515   8.891   3.388  0.8478  0.4554 -0.3914
47206SOL    HW153342   7.541   8.800   3.370 -1.0521  0.0387 -1.2751
47206SOL    HW253343   7.596   8.934   3.415  1.5022 -1.9119  1.8019
47207SOL     OW53344   9.589   9.447   9.779  0.4978  0.2373  0.0358
47207SOL    HW153345   9.508   9.436   9.728  1.3376 -0.3901 -1.2243
47207SOL    HW253346   9.658   9.415   9.721  1.4886 -0.7970  1.7102
47208SOL     OW53347   3.659  11.850  11.788  0.2061 -0.2218 -0.2723
47208SOL    HW153348   3.746  11.834  11.823 -0.1911  1.1834  1.5204
47208SOL    HW253349   3.638  11.771  11.738  1.3306 -1.8950  1.7303
47209SOL     OW53350   6.779   7.991   1.690  0.5415 -0.0666 -0.4846
47209SOL    HW153351   6.816   8.033   1.613 -2.3427  0.8013 -1.5410
47209SOL    HW253352   6.813   8.041   1.764 -0.3279  2.2323 -1.5479
47210SOL     OW53353   3.772   7.690   7.640  0.1386 -0.2004 -0.1080
47210SOL    HW153354   3.832   7.764   7.638 -0.6496  0.5604  1.7394
47210SOL    HW253355   3.803   7.636   7.712 -0.7644 -0.3326  0.2034
47211SOL     OW53356   6.426   5.737   0.778  0.3395  0.0823 -0.2674
47211SOL    HW153357   6.476   5.803   0.730  1.3648 -0.9866 -0.7342
47211SOL    HW253358   6.399   5.674   0.711  0.2239 -0.4785  0.2987
47212SOL     OW53359   3.559   3.270   7.614  0.2025  0.0840 -0.0797
47212SOL    HW153360   3.573   3.178   7.590 -0.1319 -0.3080  1.1128
47212SOL    HW253361   3.538   3.314   7.532 -2.8277 -1.5170 -0.3165
47213SOL     OW53362   7.429  11.045   4.165  0.0509  0.0555  0.4911
47213SOL    HW153363   7.476  11.124   4.139  0.4318  0.1924  1.5483
47213SOL    HW253364   7.497  10.979   4.178 -0.1395 -0.0525  0.9778
47214SOL     OW53365   8.312   8.435  11.171 -0.3149 -0.6195  0.3804
47214SOL    HW153366   8.292   8.461  11.082 -0.0559  0.2650  0.5730
47214SOL    HW253367   8.350   8.513  11.211  0.1675 -1.2001  1.0748
47215SOL     OW53368   8.837   1.842   3.180  0.4219 -0.2808  0.1930
47215SOL    HW153369   8.930   1.839   3.160  0.4734 -0.0477  0.3860
47215SOL    HW253370   8.810   1.750   3.188 -0.1520 -0.5734 -3.3851
47216SOL     OW53371  10.327   0.114   9.810  0.1412 -0.9942 -0.4129
47216SOL    HW153372  10.296   0.168   9.737  3.9400  0.4533 -1.2263
47216SOL    HW253373  10.361   0.177   9.874  0.8017 -2.3391  0.6181
47217SOL     OW53374   8.592   0.378   2.442 -0.9724 -0.4970 -0.6690
47217SOL    HW153375   8.565   0.462   2.479 -1.7326 -0.8139 -0.4937
47217SOL    HW253376   8.583   0.316   2.514  2.0120 -0.3323 -0.0210
47218SOL     OW53377   4.565   3.424   8.336  0.0580 -0.5241  0.2263
47218SOL    HW153378   4.658   3.433   8.357  0.3589 -3.0718  0.2559
47218SOL    HW253379   4.562   3.363   8.263 -1.5020  1.4623 -1.4912
47219SOL     OW53380  11.076   4.716  11.228 -0.6274 -0.0027  0.4252
47219SOL    HW153381  11.070   4.651  11.158 -0.3910 -1.9577  2.0848
47219SOL    HW253382  11.000   4.698  11.284 -0.3973  0.9835  1.0821
47220SOL     OW53383   1.022   6.509   9.076 -0.0279 -0.0792 -0.3887
47220SOL    HW153384   0.963   6.463   9.016  0.5441  0.7325 -1.6148
47220SOL    HW253385   1.059   6.440   9.131 -0.4810 -0.8610 -1.0477
47221SOL     OW53386   0.272   4.667   3.435  0.8375  0.1665 -0.0717
47221SOL    HW153387   0.192   4.701   3.396  1.2862  0.3320 -0.8618
47221SOL    HW253388   0.291   4.587   3.386  0.7373 -0.2940  0.6265
47222SOL     OW53389   6.080   3.491   7.573  0.0655 -0.4290 -0.0643
47222SOL    HW153390   6.038   3.469   7.656 -0.2842 -1.5308 -0.5198
47222SOL    HW253391   6.093   3.586   7.578 -1.9698 -0.1191  0.3505
47223SOL     OW53392  10.569   2.471   3.450 -0.1049  0.5184 -0.0894
47223SOL    HW153393  10.565   2.551   3.398  0.5450  0.9529  0.4934
47223SOL    HW253394  10.567   2.400   3.386  4.4524  1.0163 -1.1512
47224SOL     OW53395   8.466  11.035   6.969 -0.1964  0.1433  0.1822
47224SOL    HW153396   8.445  11.057   6.878  0.8231  0.0793 -0.0732
47224SOL    HW253397   8.458  11.118   7.016 -0.9570  0.1327  0.0917
47225SOL     OW53398   9.693   2.840   5.094  0.6184  0.8262 -0.0883
47225SOL    HW153399   9.601   2.848   5.068  0.0723 -2.9312  0.0587
47225SOL    HW253400   9.690   2.808   5.185  2.1481  2.1446  0.4689
47226SOL     OW53401   3.501   0.677   5.364 -0.0096 -0.0088 -0.2046
47226SOL    HW153402   3.552   0.640   5.292  0.3980 -0.0278  0.0959
47226SOL    HW253403   3.410   0.670   5.334 -0.0229 -2.0182  0.1698
47227SOL     OW53404   9.670   4.676   5.165 -0.5401 -0.2300  0.0332
47227SOL    HW153405   9.579   4.646   5.171 -0.6415  0.3145  2.2359
47227SOL    HW253406   9.666   4.769   5.183  0.4655 -0.2048  0.1936
47228SOL     OW53407   2.179   0.551  10.873  0.3908  0.0965 -0.6114
47228SOL    HW153408   2.095   0.586  10.901  0.2799  0.3448 -1.2326
47228SOL    HW253409   2.163   0.518  10.785  0.6859 -0.8224 -0.3334
47229SOL     OW53410   4.654   1.338   0.203  0.2815 -0.0959  0.7108
47229SOL    HW153411   4.627   1.420   0.244 -0.3045  0.2778 -0.3895
47229SOL    HW253412   4.688   1.285   0.275  0.2369  0.9332  1.5051
47230SOL     OW53413   9.411  11.242   6.902  0.1902 -0.2823  0.4379
47230SOL    HW153414   9.393  11.324   6.857  0.2829  0.4203  1.6410
47230SOL    HW253415   9.364  11.176   6.852 -2.1209  0.8727  0.9515
47231SOL     OW53416   9.401   0.718   1.140  0.3467  0.5167  1.1717
47231SOL    HW153417   9.348   0.745   1.215  0.7526  2.5653  0.7831
47231SOL    HW253418   9.346   0.736   1.063  0.6962  0.3610  0.8794
47232SOL     OW53419   7.799   7.507   4.682  0.0762  0.2263  0.3428
47232SOL    HW153420   7.850   7.539   4.756  2.1208 -0.7652 -0.5719
47232SOL    HW253421   7.863   7.471   4.621 -1.5526  0.6092 -1.7595
47233SOL     OW53422   0.943   5.392   0.688  0.2591  0.2541 -0.1833
47233SOL    HW153423   0.951   5.469   0.632  0.5542  0.1563 -0.2769
47233SOL    HW253424   0.942   5.428   0.777  1.8507  0.2830 -0.1525
47234SOL     OW53425   7.736   3.594   9.738  0.6977  0.5299  0.3343
47234SOL    HW153426   7.749   3.549   9.654  0.8647 -0.2629  0.7775
47234SOL    HW253427   7.661   3.651   9.723  1.3593  1.1870 -0.6705
47235SOL     OW53428   9.356   2.187  11.783  0.0202 -0.0171  0.2830
47235SOL    HW153429   9.380   2.241  11.859  2.2930 -1.6897  0.8827
47235SOL    HW253430   9.310   2.112  11.820 -0.6586  0.1427 -0.2293
47236SOL     OW53431   5.881   2.436   0.576 -0.1459 -0.3235 -0.4946
47236SOL    HW153432   5.922   2.521   0.562  1.0881 -0.6952  0.7006
47236SOL    HW253433   5.789   2.450   0.553 -0.5256  2.0192  1.8778
47237SOL     OW53434   9.630   7.863  10.042 -0.3899 -0.5991  0.1375
47237SOL    HW153435   9.698   7.796  10.050 -0.1088 -0.2394  0.7898
47237SOL    HW253436   9.608   7.885  10.132 -2.1581 -1.4997 -0.0242
47238SOL     OW53437   5.700   4.046   4.464 -0.5596  0.3938 -0.3920
47238SOL    HW153438   5.625   4.080   4.415 -0.9380  0.8420  0.4776
47238SOL    HW253439   5.662   3.981   4.523 -0.0058 -0.6810 -1.1786
47239SOL     OW53440   6.739   7.748   1.832 -0.4517  0.3579  0.0303
47239SOL    HW153441   6.792   7.726   1.755  0.1788 -0.7687  0.7732
47239SOL    HW253442   6.773   7.832   1.861  1.3875 -0.6211  0.8577
47240SOL     OW53443   8.079  11.475   8.690  0.2644 -0.1279  0.1451
47240SOL    HW153444   8.137  11.411   8.646  0.1320 -0.6298  0.6862
47240SOL    HW253445   8.117  11.560   8.667  0.9578 -0.4301  0.1193
47241SOL     OW53446   6.234   0.998   3.987  0.0983  0.0366 -0.2554
47241SOL    HW153447   6.235   0.924   4.049  0.0221 -0.2079 -0.5399
47241SOL    HW253448   6.167   1.057   4.022  1.1345  0.6461  0.7381
47242SOL     OW53449   4.939  10.078   2.148 -0.4135 -0.0398 -0.1545
47242SOL    HW153450   5.030  10.049   2.158 -0.6000 -0.1036  1.7531
47242SOL    HW253451   4.944  10.174   2.146 -0.2380 -0.0620 -1.0101
47243SOL     OW53452   6.976   3.109   6.742  0.4943  0.2315  0.1830
47243SOL    HW153453   6.945   3.039   6.800  1.0163 -1.1014 -1.1118
47243SOL    HW253454   6.919   3.105   6.666  0.4441  1.3308  0.1374
47244SOL     OW53455   9.124   2.438  10.168 -0.2631  0.4300  0.3017
47244SOL    HW153456   9.056   2.503  10.189  1.0420  2.0592 -0.2753
47244SOL    HW253457   9.158   2.411  10.253 -0.5952  0.7676  0.5479
47245SOL     OW53458   0.164   9.445   7.458 -0.1529  0.0322  0.4106
47245SOL    HW153459   0.236   9.500   7.425 -1.0628  0.0670 -1.6359
47245SOL    HW253460   0.196   9.412   7.542  1.4670  1.5964  0.4718
47246SOL     OW53461   6.769   4.670   3.594 -0.0686 -0.2110 -0.1263
47246SOL    HW153462   6.837   4.628   3.646  0.5064  0.0632 -0.6391
47246SOL    HW253463   6.697   4.608   3.594  1.0924 -1.6400 -1.6200
47247SOL     OW53464   8.072   6.284   2.137 -0.6030  0.1502  0.1785
47247SOL    HW153465   8.004   6.342   2.104 -0.9277 -0.2631  0.1072
47247SOL    HW253466   8.046   6.197   2.107  0.5713  0.1232 -0.8488
47248SOL     OW53467  10.589   4.449   9.364 -0.3139 -0.3587 -0.0811
47248SOL    HW153468  10.640   4.387   9.312  0.5460  0.2791 -0.0243
47248SOL    HW253469  10.652   4.517   9.388 -1.1023  0.2301  0.3562
47249SOL     OW53470  11.748   6.011   5.354 -0.2259  0.2100 -0.4936
47249SOL    HW153471  11.738   6.073   5.426  0.2727  1.0566 -1.1351
47249SOL    HW253472  11.834   6.032   5.317  0.1940 -1.2212 -0.3928
47250SOL     OW53473   2.568   6.984   8.359 -0.2945  0.1454 -0.2314
47250SOL    HW153474   2.564   6.898   8.318  1.0217  0.0058 -0.0896
47250SOL    HW253475   2.524   7.042   8.297  0.3797 -0.3204 -1.1590
47251SOL     OW53476   8.503   3.672   8.070  0.0162  0.4577 -0.3204
47251SOL    HW153477   8.570   3.644   8.133 -0.1242  2.4334  0.7943
47251SOL    HW253478   8.546   3.664   7.985  0.4504 -1.6037  0.0552
47252SOL     OW53479   8.079   2.966   2.695  0.4506  0.3044 -0.2774
47252SOL    HW153480   7.995   2.921   2.695  0.6093  0.0078 -0.2567
47252SOL    HW253481   8.123   2.937   2.774  0.3538  0.8787 -0.0069
47253SOL     OW53482  10.668   5.026   2.021  0.4911 -0.3913  0.4866
47253SOL    HW153483  10.576   5.022   2.046  0.7253 -0.8902  1.2919
47253SOL    HW253484  10.666   5.030   1.925 -0.3603 -0.8529  0.4686
47254SOL     OW53485   9.583   6.081   3.546 -0.0897  0.0012 -0.0614
47254SOL    HW153486   9.583   5.990   3.575  0.1270  0.3837  1.1973
47254SOL    HW253487   9.496   6.113   3.567  0.4647  0.6375  1.4148
47255SOL     OW53488  11.581   4.468   8.788 -0.5393 -0.0299 -0.3021
47255SOL    HW153489  11.533   4.509   8.859  0.5460  0.3283  0.2485
47255SOL    HW253490  11.547   4.509   8.709 -1.1896  0.1490  0.0584
47256SOL     OW53491   2.070   4.297   6.478 -0.6703 -0.1384  0.1818
47256SOL    HW153492   2.134   4.267   6.541  1.3360  0.8163 -1.2743
47256SOL    HW253493   2.053   4.388   6.502 -0.3624  0.0449 -0.2755
47257SOL     OW53494   5.017   0.595   3.988 -0.2868  0.4816 -0.0578
47257SOL    HW153495   4.949   0.581   4.054  0.4678  0.5847  0.7644
47257SOL    HW253496   5.063   0.673   4.018 -0.4331  1.0008 -1.1523
47258SOL     OW53497   5.019   4.520   1.691  0.4104 -0.3087 -0.5000
47258SOL    HW153498   4.990   4.610   1.705 -0.9678 -0.8879  0.5480
47258SOL    HW253499   5.055   4.492   1.775 -0.4652 -1.1711 -0.3865
47259SOL     OW53500   5.226   7.261  10.234 -1.2074  0.3062  0.1440
47259SOL    HW153501   5.279   7.197  10.186 -1.0578  0.8190 -0.3887
47259SOL    HW253502   5.244   7.243  10.326  0.8198  1.2468 -0.0278
47260SOL     OW53503   9.493   1.593   7.614 -0.0861  0.1272  0.3792
47260SOL    HW153504   9.551   1.647   7.668  1.8041 -0.6006 -0.7908
47260SOL    HW253505   9.421   1.650   7.589  1.3339  1.8201  0.0055
47261SOL     OW53506   4.425  11.686   0.930 -0.1509  0.7066 -0.7575
47261SOL    HW153507   4.375  11.668   0.850 -0.0845  3.4470 -1.5218
47261SOL    HW253508   4.504  11.731   0.899  0.5894  0.5040  0.7524
47262SOL     OW53509   6.644   8.129  11.758  0.1446  0.3008  0.8148
47262SOL    HW153510   6.604   8.057  11.709  0.8776  1.0429 -0.9758
47262SOL    HW253511   6.573   8.166  11.810 -0.8163 -0.2060 -0.1001
47263SOL     OW53512   6.175   5.070   8.630  0.1062 -0.7655 -0.2406
47263SOL    HW153513   6.083   5.085   8.611 -0.3602 -2.7776  0.1369
47263SOL    HW253514   6.176   4.988   8.680  2.0445 -0.4341  0.3491
47264SOL     OW53515   3.659   8.307   5.570 -0.5375 -0.3363 -0.5024
47264SOL    HW153516   3.627   8.396   5.581 -0.4874  0.0629 -2.9557
47264SOL    HW253517   3.686   8.280   5.657 -2.2662  1.3604  0.6325
47265SOL     OW53518   7.356  10.337   0.763  0.0131  0.3402 -0.8977
47265SOL    HW153519   7.340  10.365   0.854  0.0949  0.4451 -0.9141
47265SOL    HW253520   7.335  10.244   0.762 -1.0783  0.5767 -1.0434
47266SOL     OW53521   4.784   5.407   2.890 -0.2483  0.2270 -0.7581
47266SOL    HW153522   4.847   5.473   2.861 -0.0797  0.4074 -0.0032
47266SOL    HW253523   4.833   5.351   2.950 -0.9763  0.8038  0.4159
47267SOL     OW53524   1.645  11.522   4.798  0.4482  0.2414  0.2688
47267SOL    HW153525   1.723  11.578   4.803  0.8125 -0.1091 -1.1659
47267SOL    HW253526   1.577  11.571   4.845  0.8276  1.7872 -0.7405
47268SOL     OW53527   1.969   6.646   7.932 -0.0041 -0.1018 -0.3847
47268SOL    HW153528   2.052   6.601   7.915 -1.0423 -1.7546 -1.3524
47268SOL    HW253529   1.985   6.694   8.013  2.3696  0.9127 -1.3644
47269SOL     OW53530   2.027  10.086   4.484 -0.2347  0.0453  0.1027
47269SOL    HW153531   2.051  10.062   4.395 -0.0629 -1.1296  0.4415
47269SOL    HW253532   2.104  10.130   4.519 -0.7201  1.5690 -0.6881
47270SOL     OW53533   3.299   5.939   7.966 -0.2411  0.0690 -0.0530
47270SOL    HW153534   3.232   5.871   7.963 -0.2863  0.1213 -0.2361
47270SOL    HW253535   3.278   5.991   8.043  1.2499 -1.6216  1.5944
47271SOL     OW53536  11.227   7.757  10.883  0.7052  0.5600  0.2038
47271SOL    HW153537  11.297   7.755  10.948  0.5659 -2.1726  0.3881
47271SOL    HW253538  11.267   7.718  10.805 -0.5313 -0.9222  0.2795
47272SOL     OW53539   5.376   0.059   2.407 -0.1694 -0.6356 -0.0403
47272SOL    HW153540   5.395   0.007   2.329  0.9235 -0.6639  0.2282
47272SOL    HW253541   5.399   0.149   2.381  2.1572 -0.8996  0.8251
47273SOL     OW53542   8.203   3.154  10.565 -0.1462  0.1385 -0.2768
47273SOL    HW153543   8.173   3.152  10.474 -0.9791  0.1250 -0.0073
47273SOL    HW253544   8.123   3.151  10.617  0.3282  0.0717  0.4621
47274SOL     OW53545   5.309   5.769   1.139 -0.0171 -0.2070 -0.3740
47274SOL    HW153546   5.232   5.715   1.158 -0.5003  0.7200  0.4262
47274SOL    HW253547   5.364   5.760   1.217  0.2777 -0.2021 -0.5844
47275SOL     OW53548   1.243   9.220   2.290 -0.3536  0.6810  0.1734
47275SOL    HW153549   1.278   9.237   2.202 -1.6549  1.3703 -0.2460
47275SOL    HW253550   1.287   9.140   2.318 -0.8780 -0.3327 -1.6674
47276SOL     OW53551   2.305   6.694   3.280 -0.3295  0.7418  0.0571
47276SOL    HW153552   2.352   6.751   3.219 -0.1027  0.2061 -0.2833
47276SOL    HW253553   2.274   6.752   3.349 -0.6700  1.3785 -0.6215
47277SOL     OW53554   5.243   0.833   3.564  0.1949 -0.2376 -0.3229
47277SOL    HW153555   5.270   0.905   3.507 -0.0725 -0.0801 -0.2539
47277SOL    HW253556   5.174   0.789   3.515  1.1597 -1.1710 -0.8827
47278SOL     OW53557   9.834   9.349   5.302  0.5245 -0.5762  0.2669
47278SOL    HW153558   9.877   9.264   5.294 -0.7914 -1.0962 -3.0294
47278SOL    HW253559   9.873   9.403   5.233  0.4183  1.1165  1.4585
47279SOL     OW53560   5.955   3.723   7.715  0.9142  0.2866 -0.0099
47279SOL    HW153561   5.978   3.767   7.633 -0.5092 -0.8553 -1.0875
47279SOL    HW253562   5.863   3.698   7.703  0.1823  1.3794  2.5453
47280SOL     OW53563  11.869   1.801   2.389 -0.1663 -0.2287  0.3415
47280SOL    HW153564  11.890   1.893   2.371 -0.4725 -0.5669 -2.0216
47280SOL    HW253565  11.954   1.761   2.410  0.0635  0.4505  0.7274
47281SOL     OW53566   9.269   0.529   9.398  0.2133  0.2945  0.2278
47281SOL    HW153567   9.285   0.512   9.491  1.2287  2.0031  0.3990
47281SOL    HW253568   9.349   0.572   9.367  0.6898 -1.8815 -1.9315
47282SOL     OW53569  11.118   0.562   0.765  0.8888 -0.2067  0.6908
47282SOL    HW153570  11.092   0.649   0.733  0.3891 -0.7776 -0.5161
47282SOL    HW253571  11.156   0.579   0.852  0.3860  1.1570  0.6733
47283SOL     OW53572   8.500   8.054  10.340  0.3090 -0.2793 -0.3986
47283SOL    HW153573   8.586   8.040  10.381  1.0383  3.6059 -0.1906
47283SOL    HW253574   8.520   8.092  10.255 -1.2397 -0.8838 -1.0546
47284SOL     OW53575   5.202  11.171  10.907 -0.1100 -0.1182  0.1626
47284SOL    HW153576   5.238  11.245  10.957 -0.1611 -0.0967  0.1669
47284SOL    HW253577   5.279  11.120  10.882  0.0965  0.8349 -1.2762
47285SOL     OW53578   3.396   9.097  11.093 -0.0279  0.1688 -0.5735
47285SOL    HW153579   3.399   9.190  11.115  0.4210 -0.3798  2.0443
47285SOL    HW253580   3.476   9.061  11.131 -0.5720 -1.4285 -0.8771
47286SOL     OW53581   9.129   2.376   9.582 -0.5361 -0.1119  0.3504
47286SOL    HW153582   9.137   2.286   9.551  1.6838 -0.1506  0.8661
47286SOL    HW253583   9.071   2.370   9.658  0.1440 -1.2656  0.8181
47287SOL     OW53584   0.448   4.473  11.844 -0.5117 -0.0508 -0.6570
47287SOL    HW153585   0.516   4.507  11.902 -0.7762 -0.6026 -0.0194
47287SOL    HW253586   0.478   4.384  11.821 -1.5077 -0.6973  0.4564
47288SOL     OW53587   8.550   2.726   6.489  0.6875  0.0570 -0.1214
47288SOL    HW153588   8.484   2.772   6.438  1.5642  1.1957 -0.2535
47288SOL    HW253589   8.619   2.791   6.504  1.3513 -0.8346  0.8088
47289SOL     OW53590  11.071   3.538   1.176 -0.6190  0.1717 -0.1530
47289SOL    HW153591  11.093   3.516   1.266  1.5541 -1.4120 -0.9798
47289SOL    HW253592  11.014   3.466   1.147  1.0108 -0.9207 -0.8282
47290SOL     OW53593   7.001   2.564   0.965  0.1169  0.4108 -0.7257
47290SOL    HW153594   6.997   2.659   0.979 -2.7777  0.0063  2.8478
47290SOL    HW253595   6.922   2.544   0.915 -0.4323 -0.2586  0.3713
47291SOL     OW53596   7.426  11.442  11.556  0.2207  0.6821 -0.1918
47291SOL    HW153597   7.412  11.351  11.583 -0.2043  0.8174  0.0430
47291SOL    HW253598   7.447  11.489  11.637  1.0411  0.6857 -0.3900
47292SOL     OW53599  11.682   5.293  11.135  0.0773 -0.7048 -0.0106
47292SOL    HW153600  11.704   5.352  11.063 -1.8695 -0.4598 -0.4772
47292SOL    HW253601  11.725   5.330  11.212  0.2495  0.3886 -0.6129
47293SOL     OW53602   9.054   3.799   2.662  0.4176  0.4237  0.4306
47293SOL    HW153603   8.998   3.763   2.592  0.1163  0.7402  0.5029
47293SOL    HW253604   9.044   3.738   2.734 -0.4090  0.8570  0.6924
47294SOL     OW53605   3.578  11.570  11.729 -0.0151  0.1819 -0.3302
47294SOL    HW153606   3.661  11.541  11.766 -0.3631 -0.1822  0.1828
47294SOL    HW253607   3.517  11.569  11.804  0.0521  2.6705 -0.1778
47295SOL     OW53608   3.368   7.338   8.838 -0.2742 -0.2274 -0.2852
47295SOL    HW153609   3.356   7.252   8.878  0.6925 -0.6681 -0.9105
47295SOL    HW253610   3.438   7.326   8.774  2.2509  1.7257  1.8382
47296SOL     OW53611   5.023   7.346   6.919 -0.6314  0.3731  0.5842
47296SOL    HW153612   5.041   7.418   6.979  1.6000  0.0000  0.4489
47296SOL    HW253613   4.958   7.292   6.964  0.3554  0.5612  2.3000
47297SOL     OW53614   8.853   0.072   6.998  0.2850 -0.4359 -0.5375
47297SOL    HW153615   8.797   0.064   7.075  1.0953  0.0368  0.1062
47297SOL    HW253616   8.923   0.131   7.024  2.0825 -2.3327 -0.7259
47298SOL     OW53617  10.762   1.205   8.689  0.4650  0.4576  0.1555
47298SOL    HW153618  10.777   1.162   8.605 -2.0794  0.3476 -0.3063
47298SOL    HW253619  10.835   1.266   8.698  1.1725 -0.0491 -1.7818
47299SOL     OW53620   1.943   3.592   2.202 -0.4420  0.1524  0.5765
47299SOL    HW153621   1.998   3.556   2.273  1.1025  0.5011 -0.3890
47299SOL    HW253622   1.922   3.516   2.148  0.5785  0.2561  0.0043
47300SOL     OW53623   5.792   1.190  11.416  0.4830  0.2597 -0.3869
47300SOL    HW153624   5.701   1.215  11.401  0.5014  1.0814  0.7403
47300SOL    HW253625   5.797   1.100  11.386 -0.7784  0.1059 -0.2002
47301SOL     OW53626   3.376  10.957   6.339 -0.1341 -0.3684  0.3385
47301SOL    HW153627   3.399  10.885   6.397  0.1178 -1.3522 -0.9245
47301SOL    HW253628   3.364  10.915   6.253 -1.1581  0.9262 -0.1825
47302SOL     OW53629   7.007   9.040   5.887  0.2593 -0.3876  0.3226
47302SOL    HW153630   6.933   8.990   5.852 -0.6064  0.4902  0.8520
47302SOL    HW253631   7.048   9.079   5.810 -0.2834 -0.2757  0.0897
47303SOL     OW53632   7.887  10.852   4.310 -0.2185 -0.1331  0.0655
47303SOL    HW153633   7.967  10.872   4.262  0.6403 -1.3272  0.9554
47303SOL    HW253634   7.888  10.912   4.385 -0.2299 -0.0495 -0.0013
47304SOL     OW53635   7.216   7.043   4.201 -0.1719 -0.1623  0.8379
47304SOL    HW153636   7.210   6.948   4.212 -2.1028  0.0302  1.7807
47304SOL    HW253637   7.143   7.065   4.143 -0.5974  0.8888  1.7545
47305SOL     OW53638   1.724   5.300   0.713  0.3276 -0.7733 -0.0771
47305SOL    HW153639   1.748   5.315   0.622  0.3245 -1.3617 -0.1744
47305SOL    HW253640   1.808   5.299   0.760  0.3474 -0.7492 -0.1119
47306SOL     OW53641  10.301   6.437   8.834 -0.0277  0.6869 -0.2566
47306SOL    HW153642  10.235   6.466   8.898  0.9181  1.6623  0.3250
47306SOL    HW253643  10.383   6.440   8.883  0.4629 -0.4122 -0.9975
47307SOL     OW53644  10.270   4.121   2.408  0.5700 -0.3186  0.0797
47307SOL    HW153645  10.326   4.076   2.346  1.7507  0.5921  0.4417
47307SOL    HW253646  10.330   4.153   2.476 -0.2883  1.2224  0.1570
47308SOL     OW53647   6.870  11.059   9.637  0.4087  1.0524  0.0366
47308SOL    HW153648   6.962  11.083   9.625  0.9330 -0.4282  0.8173
47308SOL    HW253649   6.838  11.041   9.549  1.4892 -0.4745 -0.0865
47309SOL     OW53650   4.096  11.725   5.779 -0.3785  0.5013  0.0178
47309SOL    HW153651   4.188  11.705   5.765 -0.6062 -0.4762 -0.1639
47309SOL    HW253652   4.059  11.643   5.814 -1.6820  0.0543 -2.1912
47310SOL     OW53653   7.507   6.552  10.320 -0.1143  0.0419 -0.2930
47310SOL    HW153654   7.532   6.599  10.400  1.8486  0.5721 -1.1562
47310SOL    HW253655   7.464   6.618  10.266  1.0803  0.4333 -0.7931
47311SOL     OW53656   3.345   7.699   3.365  0.5571  0.2555  0.8778
47311SOL    HW153657   3.356   7.703   3.270 -2.6888  0.4767  0.3948
47311SOL    HW253658   3.279   7.765   3.385  2.6772  1.7586  3.6599
47312SOL     OW53659   8.750  11.182   8.885 -0.5655 -0.0562 -0.4566
47312SOL    HW153660   8.804  11.258   8.862 -1.1351  1.5545  3.0155
47312SOL    HW253661   8.807  11.127   8.938 -1.0874 -0.5046 -0.3472
47313SOL     OW53662  10.277   4.556   3.123  0.4982 -0.8183  0.0328
47313SOL    HW153663  10.331   4.613   3.178 -0.8692  0.2556  0.3224
47313SOL    HW253664  10.334   4.531   3.051  0.5291  2.8690 -1.4372
47314SOL     OW53665   4.398   4.038   1.825  0.2691  0.4170 -0.2339
47314SOL    HW153666   4.390   3.970   1.758  0.6828  0.9214 -0.8122
47314SOL    HW253667   4.368   4.118   1.782 -0.8492  0.4903  0.6478
47315SOL     OW53668   7.626  11.305  11.423 -0.3204  0.2049  0.1386
47315SOL    HW153669   7.605  11.213  11.436 -0.6756  0.3941  0.9595
47315SOL    HW253670   7.563  11.352  11.477 -0.6080  0.9681 -0.8369
47316SOL     OW53671   8.350   8.538   2.055  0.0766 -0.6905 -0.1272
47316SOL    HW153672   8.270   8.494   2.027 -0.6687 -0.0648  0.9695
47316SOL    HW253673   8.321   8.623   2.087  1.5687  1.2103 -3.2996
47317SOL     OW53674   0.705   2.684  11.189  0.2967 -0.3769  0.2572
47317SOL    HW153675   0.684   2.608  11.134  0.2450 -0.2369  0.0808
47317SOL    HW253676   0.621   2.715  11.222 -0.1840  1.8035 -2.5877
47318SOL     OW53677   0.676   6.413   4.071  0.4590  0.1633 -0.0743
47318SOL    HW153678   0.735   6.451   4.006  0.1883 -0.2488 -0.5676
47318SOL    HW253679   0.723   6.422   4.154  0.8908  0.5156 -0.3511
47319SOL     OW53680   5.037   6.000   3.488 -0.2378  1.1714  0.5629
47319SOL    HW153681   4.959   6.048   3.515  0.4003  1.2577  2.3211
47319SOL    HW253682   5.100   6.068   3.464 -0.7700  1.1009 -1.2544
47320SOL     OW53683   9.203  11.928   8.687 -0.0992  0.4259 -0.2699
47320SOL    HW153684   9.293  11.919   8.718  0.8155 -0.1626 -2.8637
47320SOL    HW253685   9.165  11.841   8.699  0.0011  0.4040 -0.1042
47321SOL     OW53686   0.111   5.638   7.175 -0.3517  0.0742 -0.1744
47321SOL    HW153687   0.200   5.643   7.140  0.8206 -2.3874  2.1039
47321SOL    HW253688   0.102   5.719   7.226  1.1249 -0.1884  0.5843
47322SOL     OW53689   0.825   6.823   5.782  0.1203  0.2158  0.3358
47322SOL    HW153690   0.729   6.823   5.792  0.1454  0.4366  0.5748
47322SOL    HW253691   0.840   6.778   5.699 -0.2299  0.8590 -0.0843
47323SOL     OW53692   9.013   7.755   9.249 -0.1976  0.4615 -0.0829
47323SOL    HW153693   9.037   7.675   9.201 -0.7323  0.6523 -0.6859
47323SOL    HW253694   9.007   7.727   9.340  2.1696  0.3737  0.1134
47324SOL     OW53695   5.549   3.820   8.263 -0.0339  0.5765  0.7259
47324SOL    HW153696   5.581   3.884   8.327  0.5338  0.0773  0.9544
47324SOL    HW253697   5.588   3.848   8.180  1.9850 -0.6582  1.1896
47325SOL     OW53698   4.641   6.903   0.562 -0.2345  0.6180 -0.3262
47325SOL    HW153699   4.671   6.814   0.576 -1.6453  0.2834  0.8234
47325SOL    HW253700   4.697   6.956   0.619 -0.3936  0.2838  0.1418
47326SOL     OW53701   4.603   9.274   2.285  0.0803 -0.3600  0.0824
47326SOL    HW153702   4.685   9.315   2.313 -0.4855  2.5635 -2.0573
47326SOL    HW253703   4.629   9.213   2.217  0.5626  0.1850 -0.2372
47327SOL     OW53704   6.872  11.655   9.391  0.3903  0.4381 -0.3131
47327SOL    HW153705   6.928  11.588   9.430  0.1288 -0.1280 -0.8844
47327SOL    HW253706   6.914  11.738   9.414  2.9211 -0.0049 -2.7961
47328SOL     OW53707   3.887   2.166   3.073  0.2591  0.2051  0.0902
47328SOL    HW153708   3.865   2.073   3.084  1.5193 -0.1570 -0.2285
47328SOL    HW253709   3.842   2.210   3.144 -0.1770 -0.6900  0.3813
47329SOL     OW53710   7.331   9.305   9.342  0.5284 -0.6034 -0.2618
47329SOL    HW153711   7.383   9.385   9.347  0.2159 -0.4459  0.4779
47329SOL    HW253712   7.307   9.298   9.249  1.4543 -0.4232 -0.5268
47330SOL     OW53713   9.072   9.840   0.812 -0.5057  0.4197  0.1267
47330SOL    HW153714   9.009   9.908   0.788 -1.0359 -0.6074 -1.5645
47330SOL    HW253715   9.143   9.850   0.748 -1.3762 -1.6292 -1.2473
47331SOL     OW53716   4.130   4.017   1.477 -0.6107 -0.2582  0.3267
47331SOL    HW153717   4.101   3.947   1.535 -1.4203 -0.0697  0.1669
47331SOL    HW253718   4.061   4.023   1.410 -0.6593  0.8210  0.4530
47332SOL     OW53719   2.472   6.693   1.743 -0.1063 -0.2349  0.5413
47332SOL    HW153720   2.437   6.699   1.654 -0.2845  0.4556  0.6513
47332SOL    HW253721   2.512   6.779   1.758  0.5845 -0.6072  0.8513
47333SOL     OW53722   6.802   4.570  10.495  0.2635  0.2230  0.2289
47333SOL    HW153723   6.806   4.665  10.482  0.9765  0.1369 -0.2499
47333SOL    HW253724   6.778   4.559  10.586  1.3518  0.8855  0.6187
47334SOL     OW53725   4.339   3.469   0.478  0.2620  0.1292  0.0041
47334SOL    HW153726   4.306   3.448   0.390  0.3920  0.3605 -0.1001
47334SOL    HW253727   4.334   3.564   0.483 -1.4402  0.0364  0.9009
47335SOL     OW53728   7.469   8.912  10.056  0.6269 -0.2048  0.9574
47335SOL    HW153729   7.526   8.972  10.009  0.3943  0.2177  1.2100
47335SOL    HW253730   7.398   8.892   9.995  1.6193 -1.6296  0.2177
47336SOL     OW53731  11.517   0.606  11.620 -0.3986 -0.4334 -0.4359
47336SOL    HW153732  11.508   0.624  11.527 -2.4415 -1.8129 -0.5618
47336SOL    HW253733  11.611   0.613  11.637  0.0574 -0.5663 -2.6701
47337SOL     OW53734   3.912   1.161  10.281 -0.0778  0.7522 -0.3839
47337SOL    HW153735   3.950   1.123  10.360  1.2909  1.4408 -0.6845
47337SOL    HW253736   3.818   1.158  10.296  0.1718  1.2894  1.4795
47338SOL     OW53737   8.123   5.849   5.071 -0.9779 -0.0466 -0.9320
47338SOL    HW153738   8.071   5.780   5.030  0.4396 -2.0912  0.4675
47338SOL    HW253739   8.205   5.805   5.095 -0.7974  1.6033  1.8649
47339SOL     OW53740   9.182   1.865   0.155  0.2468  0.1988 -0.2747
47339SOL    HW153741   9.109   1.927   0.157 -1.4866 -1.6925 -0.7850
47339SOL    HW253742   9.206   1.853   0.247 -2.3545 -1.5726  0.2733
47340SOL     OW53743   8.374   9.425   6.434 -0.6562 -0.1054  0.3960
47340SOL    HW153744   8.423   9.438   6.514 -0.7778 -1.3839  0.7021
47340SOL    HW253745   8.288   9.463   6.451 -0.3314  0.5877  0.4802
47341SOL     OW53746  10.767   3.711   2.474  0.3330  0.0770  0.2973
47341SOL    HW153747  10.699   3.733   2.537 -1.1846 -2.8042 -0.1855
47341SOL    HW253748  10.797   3.624   2.501  1.4039 -0.1616 -1.5114
47342SOL     OW53749   2.075   1.939   1.391 -0.0023  0.6682  0.6337
47342SOL    HW153750   2.084   1.953   1.486  2.5350 -0.7666  0.6988
47342SOL    HW253751   2.017   1.863   1.384  1.1786 -0.3271  1.1831
47343SOL     OW53752   0.713   2.574   5.567  0.4029 -0.2402  0.4286
47343SOL    HW153753   0.777   2.645   5.567 -1.0169  1.0925  0.6984
47343SOL    HW253754   0.702   2.551   5.659  1.3586 -1.3116  0.2949
47344SOL     OW53755   2.527   4.213   7.449  0.0263  0.1918 -0.2059
47344SOL    HW153756   2.477   4.212   7.531 -0.9288 -2.7973 -0.7210
47344SOL    HW253757   2.609   4.168   7.471  0.2525  0.3959 -0.6244
47345SOL     OW53758  11.759   0.805   4.394  0.4205  0.1289 -0.0862
47345SOL    HW153759  11.672   0.765   4.398  0.4542  0.1572  2.8712
47345SOL    HW253760  11.742   0.897   4.374 -0.0597 -0.1867 -1.2322
47346SOL     OW53761   2.776   2.487   7.690 -0.6116  0.0118  0.1862
47346SOL    HW153762   2.757   2.435   7.612  2.3990  0.0870 -0.7375
47346SOL    HW253763   2.748   2.576   7.668 -1.3017 -0.2837 -0.1453
47347SOL     OW53764   2.441   5.469   5.164  0.0727 -0.0611  0.1729
47347SOL    HW153765   2.475   5.543   5.115  1.3951 -0.8476 -0.1641
47347SOL    HW253766   2.415   5.506   5.249 -0.7689  1.0284 -0.5404
47348SOL     OW53767   4.206   4.444   8.593  0.9713 -0.3595 -0.2207
47348SOL    HW153768   4.183   4.428   8.685  0.6164 -2.9811 -0.6790
47348SOL    HW253769   4.182   4.363   8.548  0.5580  1.0706 -2.7633
47349SOL     OW53770   4.834   1.228  11.783 -0.1517  0.7562  0.2220
47349SOL    HW153771   4.833   1.289  11.856  1.7736 -1.7590  2.6042
47349SOL    HW253772   4.900   1.263  11.723  3.5318 -0.3923  3.1883
47350SOL     OW53773   5.325   1.874   4.405  0.4854 -0.3710  0.6192
47350SOL    HW153774   5.317   1.966   4.432  3.2378  0.5125 -1.1999
47350SOL    HW253775   5.390   1.837   4.464 -1.2207 -1.4725  1.8914
47351SOL     OW53776   8.870   4.178   0.066 -0.4537 -0.3575  0.0463
47351SOL    HW153777   8.947   4.154   0.014 -0.0231  0.2572  0.3851
47351SOL    HW253778   8.886   4.269   0.091 -1.3860 -0.1578 -0.0409
47352SOL     OW53779   7.479   9.611  11.195  0.5922  0.4233 -0.3817
47352SOL    HW153780   7.522   9.530  11.224  1.0986  0.8381  0.0618
47352SOL    HW253781   7.508   9.623  11.105  1.6920  0.8634  0.0082
47353SOL     OW53782   6.162   7.303   9.932  0.2363 -0.1658  0.0532
47353SOL    HW153783   6.074   7.330   9.905 -0.2344 -0.8243  0.9228
47353SOL    HW253784   6.181   7.225   9.880  0.6255  0.4077 -0.6879
47354SOL     OW53785   7.556   3.601   2.978  0.5336 -0.2715 -0.3333
47354SOL    HW153786   7.520   3.664   3.040 -1.1107  0.8308 -2.2831
47354SOL    HW253787   7.647   3.630   2.965 -0.0281  1.4510 -0.7917
47355SOL     OW53788   0.223   5.107   0.653  0.0036  0.1442  0.2357
47355SOL    HW153789   0.306   5.118   0.606 -0.1180 -1.3254 -0.3698
47355SOL    HW253790   0.166   5.174   0.615  1.1129  1.7806  1.2760
47356SOL     OW53791   8.362   3.496   5.658 -0.4136 -0.2374  0.0863
47356SOL    HW153792   8.362   3.400   5.651 -0.3147 -0.4235  2.0479
47356SOL    HW253793   8.397   3.526   5.574  0.5042 -1.9478 -0.1962
47357SOL     OW53794   1.688   0.821   6.820  0.3571  0.3807  0.3278
47357SOL    HW153795   1.645   0.892   6.772  0.0905  0.9850  1.4337
47357SOL    HW253796   1.781   0.831   6.799  0.0839 -0.6173 -1.6616
47358SOL     OW53797   3.072  11.510   8.469  0.9731 -0.2474  0.0706
47358SOL    HW153798   3.145  11.482   8.414  1.3108 -1.0455  0.9063
47358SOL    HW253799   3.098  11.485   8.558 -1.0195 -2.0872  0.2121
47359SOL     OW53800  10.329   6.598   8.240 -0.3473  0.3712 -0.3322
47359SOL    HW153801  10.326   6.687   8.277  0.8307  0.7273 -1.0189
47359SOL    HW253802  10.413   6.563   8.269 -0.5540 -0.3083 -0.5382
47360SOL     OW53803   2.419  10.464   6.370  0.1137 -0.0637  0.8351
47360SOL    HW153804   2.432  10.372   6.390 -0.4748 -0.4154 -0.3199
47360SOL    HW253805   2.438  10.510   6.453  0.5213 -1.1955  1.3834
47361SOL     OW53806   5.871   3.512   4.145  0.0220 -0.0495  0.3131
47361SOL    HW153807   5.931   3.527   4.072  0.1825 -0.0245  0.4485
47361SOL    HW253808   5.799   3.460   4.107  1.4109 -2.4149  0.7080
47362SOL     OW53809   8.893   7.329   4.134 -0.0683  0.0072  0.4699
47362SOL    HW153810   8.963   7.269   4.107 -1.4179 -0.5392 -2.1096
47362SOL    HW253811   8.826   7.272   4.172  0.6768  0.5046  2.6956
47363SOL     OW53812  11.136   1.467   4.272 -0.5187 -0.1466 -0.4217
47363SOL    HW153813  11.162   1.378   4.246 -0.4659 -0.1350 -0.4082
47363SOL    HW253814  11.086   1.454   4.353  3.8221  0.2102  2.6205
47364SOL     OW53815   7.016   7.554   8.888 -0.2955  0.5061 -0.2835
47364SOL    HW153816   6.947   7.527   8.949 -1.6401  0.0375 -1.9429
47364SOL    HW253817   6.972   7.614   8.828  0.5027 -0.4893 -1.9171
47365SOL     OW53818   0.036   7.482   8.141 -0.1847  0.2292  0.3197
47365SOL    HW153819   0.060   7.548   8.075 -1.5607 -0.4923 -0.9453
47365SOL    HW253820  -0.055   7.461   8.122 -0.3898 -0.5564  2.0137
47366SOL     OW53821   8.020  11.570   7.954 -0.0755 -0.3090  0.1351
47366SOL    HW153822   8.110  11.594   7.932  0.0918  0.4099  1.4842
47366SOL    HW253823   7.976  11.560   7.870  1.0933  0.0222 -0.5320
47367SOL     OW53824   8.036   4.239   5.577  0.8350  0.2508  0.3739
47367SOL    HW153825   8.081   4.324   5.581  0.2153  0.6470 -0.7079
47367SOL    HW253826   7.949   4.260   5.544 -0.6041 -0.3356  3.4494
47368SOL     OW53827   6.910  10.172   6.586 -0.2033  0.2131 -0.1985
47368SOL    HW153828   6.843  10.119   6.630 -1.2136  1.1067 -0.6225
47368SOL    HW253829   6.970  10.108   6.547 -0.9457 -0.6051 -0.0200
47369SOL     OW53830   5.082   6.198   7.475  0.2141 -0.3352 -0.2794
47369SOL    HW153831   5.050   6.112   7.447 -0.7798  0.0786 -0.4489
47369SOL    HW253832   5.131   6.231   7.400 -0.2236 -0.3435 -0.5689
47370SOL     OW53833  10.212   3.929   2.143 -0.1168 -0.6071 -0.3370
47370SOL    HW153834  10.205   4.022   2.120 -0.8934  0.5247  3.5769
47370SOL    HW253835  10.127   3.892   2.121 -0.4050  0.0631 -0.3711
47371SOL     OW53836   5.393   5.706   4.469 -0.3735 -0.4648  0.0567
47371SOL    HW153837   5.357   5.661   4.393 -0.7422  0.5655 -0.3947
47371SOL    HW253838   5.342   5.786   4.476  0.6052  0.1387  0.5312
47372SOL     OW53839   2.515   5.914   0.903  0.7269  0.4868  0.3799
47372SOL    HW153840   2.451   5.942   0.838  0.3250 -1.4577 -0.1496
47372SOL    HW253841   2.588   5.975   0.895  0.5202  0.5124 -1.6557
47373SOL     OW53842   5.408   9.924   5.060  0.1042 -0.2400  0.2556
47373SOL    HW153843   5.339   9.878   5.012 -1.5337  0.8886  1.4361
47373SOL    HW253844   5.474   9.943   4.994 -1.5447  0.2557 -1.3341
47374SOL     OW53845   4.903   8.842  11.115  0.4462  0.3886 -0.1570
47374SOL    HW153846   4.944   8.928  11.130 -1.7636  1.5042 -0.1237
47374SOL    HW253847   4.947   8.784  11.178 -0.4129  2.3152  2.4033
47375SOL     OW53848   3.183   7.607   3.797  0.3425 -0.3821  0.1977
47375SOL    HW153849   3.137   7.687   3.771  0.4136  0.1233  1.5213
47375SOL    HW253850   3.179   7.550   3.720  0.9310  1.1688 -1.0342
47376SOL     OW53851   6.016   9.742   2.885 -0.3358 -0.0609  0.1817
47376SOL    HW153852   6.014   9.811   2.819 -0.7875 -0.8201 -0.6149
47376SOL    HW253853   6.064   9.780   2.958 -0.7742  1.1777 -0.1537
47377SOL     OW53854   5.911   9.919   1.555  0.0162  0.6627  0.0035
47377SOL    HW153855   5.903  10.009   1.586 -1.5929  0.1355  1.2370
47377SOL    HW253856   5.875   9.866   1.625 -0.0637 -0.8863 -1.1537
47378SOL     OW53857   5.040   8.153   1.621  0.0215 -0.1888 -0.5694
47378SOL    HW153858   5.008   8.087   1.682  0.0683 -0.7155 -1.1049
47378SOL    HW253859   4.961   8.182   1.574  0.3659 -2.1030 -2.4920
47379SOL     OW53860   8.711   9.217   8.318 -0.3201 -0.5542  0.2049
47379SOL    HW153861   8.680   9.308   8.322 -0.4081 -0.5854  0.2259
47379SOL    HW253862   8.668   9.173   8.391  0.3224 -0.4304  0.6646
47380SOL     OW53863   0.335  10.419   4.972 -0.3569 -0.1521 -0.1064
47380SOL    HW153864   0.245  10.386   4.976  0.1412 -1.6510 -0.3998
47380SOL    HW253865   0.327  10.514   4.983 -2.2344  0.1138 -2.8007
47381SOL     OW53866   4.653   5.267  10.530 -0.2179  0.2151 -0.5195
47381SOL    HW153867   4.696   5.194  10.574  0.1644  0.0983 -1.0794
47381SOL    HW253868   4.703   5.280  10.450 -1.5150 -0.2463 -1.4287
47382SOL     OW53869   7.087   0.646   1.632 -0.1667  0.2593  0.2364
47382SOL    HW153870   7.174   0.621   1.603 -0.0037  1.6857 -0.5764
47382SOL    HW253871   7.029   0.619   1.560 -0.1564  0.9071 -0.0260
47383SOL     OW53872   9.688   0.051  11.539  0.3264 -0.4671  0.4936
47383SOL    HW153873   9.664   0.006  11.620  1.2105 -0.5727  0.7148
47383SOL    HW253874   9.751   0.117  11.567  1.4819 -1.2160 -0.2295
47384SOL     OW53875  10.525  11.286   8.803 -0.3584  0.3904 -0.4719
47384SOL    HW153876  10.443  11.296   8.851 -0.0267  0.8644  0.0143
47384SOL    HW253877  10.526  11.195   8.775 -0.5643  0.0962  0.4286
47385SOL     OW53878   7.717  10.338   2.260  0.0433  0.2371  0.3955
47385SOL    HW153879   7.781  10.408   2.252 -2.1118  2.0642 -2.6644
47385SOL    HW253880   7.653  10.371   2.323  0.5491 -0.3565  1.2512
47386SOL     OW53881   1.770   7.397   1.054 -0.4848  0.1285  0.2428
47386SOL    HW153882   1.729   7.381   1.138 -0.2747  0.2763  0.3758
47386SOL    HW253883   1.722   7.470   1.016  0.0375  0.7040  0.6683
47387SOL     OW53884   3.616   6.217   2.397  0.6620  0.1262  0.1033
47387SOL    HW153885   3.599   6.141   2.341 -2.4132  0.5970  0.2148
47387SOL    HW253886   3.629   6.179   2.484 -2.4108 -0.3466  0.4723
47388SOL     OW53887   6.257   7.492   8.401 -0.1403 -0.1395 -0.0110
47388SOL    HW153888   6.209   7.477   8.320 -1.3289 -2.0637  0.9726
47388SOL    HW253889   6.205   7.557   8.448 -0.1432  0.0089 -0.2165
47389SOL     OW53890   6.304   5.045  10.834  0.4266 -0.0793  0.1654
47389SOL    HW153891   6.337   4.975  10.778  0.8975 -0.9787  1.5331
47389SOL    HW253892   6.377   5.068  10.891  0.8247  2.6872 -1.2871
47390SOL     OW53893   7.136   6.681   8.630 -0.1878  0.1502  0.0042
47390SOL    HW153894   7.213   6.656   8.681  0.5227  0.8532 -0.7011
47390SOL    HW253895   7.077   6.606   8.638  0.2753 -0.1130  1.1179
47391SOL     OW53896   7.793   6.680   7.856 -0.1693  0.1431 -0.5318
47391SOL    HW153897   7.736   6.643   7.790  0.2468 -0.8538 -0.3468
47391SOL    HW253898   7.851   6.739   7.807  2.7234 -3.4088 -1.8239
47392SOL     OW53899   1.499   4.523   5.404  0.1022 -0.4106  0.2205
47392SOL    HW153900   1.510   4.524   5.499 -1.0117  0.7364  0.3677
47392SOL    HW253901   1.561   4.457   5.373  0.5699 -0.7131  1.7267
47393SOL     OW53902  10.544   0.444   7.133 -0.0235  0.5091 -0.3554
47393SOL    HW153903  10.493   0.375   7.176 -0.9084  1.7641  0.6840
47393SOL    HW253904  10.618   0.458   7.192 -0.3434  1.0819 -0.0891
47394SOL     OW53905   8.353   3.763  11.556  0.3438 -0.2976 -0.4798
47394SOL    HW153906   8.389   3.676  11.574  1.6872  0.3358  0.0254
47394SOL    HW253907   8.404   3.822  11.611 -0.2072  0.8740 -1.1815
47395SOL     OW53908   1.228   2.949   7.456  0.3212  0.2508  0.2875
47395SOL    HW153909   1.163   2.879   7.460  1.1955 -0.5868  0.0564
47395SOL    HW253910   1.180   3.024   7.420 -0.5885 -0.2645  0.4034
47396SOL     OW53911   1.914   6.647   1.198 -0.0397  0.1642 -0.0426
47396SOL    HW153912   1.882   6.593   1.270  2.0128  0.2718  1.0094
47396SOL    HW253913   1.929   6.733   1.238 -3.1222  1.6516 -1.6418
47397SOL     OW53914   6.135   0.165   0.378 -0.1847 -0.3036 -0.4574
47397SOL    HW153915   6.110   0.075   0.395  0.3341 -0.4934 -0.6653
47397SOL    HW253916   6.207   0.158   0.315  0.6869  0.1927  0.4510
47398SOL     OW53917   6.019  11.459   7.778 -0.0233  0.0243 -0.2381
47398SOL    HW153918   6.097  11.512   7.760 -0.5448  0.5005 -1.1437
47398SOL    HW253919   5.948  11.523   7.786 -0.0214 -0.2096  2.6867
47399SOL     OW53920   1.487  11.323   9.598  0.1714  0.3757 -0.0580
47399SOL    HW153921   1.545  11.336   9.523 -0.0209 -1.6539 -0.5989
47399SOL    HW253922   1.406  11.289   9.561 -0.3533  0.4673  0.9649
47400SOL     OW53923   5.820   3.839   1.515 -0.6802 -0.0634  0.0029
47400SOL    HW153924   5.875   3.830   1.592 -1.0812  1.1850  0.4503
47400SOL    HW253925   5.736   3.871   1.548 -0.2452  2.4569 -1.1035
47401SOL     OW53926  11.953   2.816   7.677 -0.2985 -0.5005 -0.4360
47401SOL    HW153927  11.866   2.807   7.638 -0.8810  0.6248  0.5202
47401SOL    HW253928  11.936   2.842   7.768  1.0291 -1.8769  0.2501
47402SOL     OW53929   2.822   4.032   3.147 -0.0629  0.3749  0.3173
47402SOL    HW153930   2.832   4.066   3.058  0.6478 -0.3655  0.1048
47402SOL    HW253931   2.883   4.084   3.200 -1.2431  1.5320  0.5880
47403SOL     OW53932   0.127   1.298   2.871  0.2775  0.4517  0.5118
47403SOL    HW153933   0.062   1.361   2.841  2.3513  2.2218 -0.4997
47403SOL    HW253934   0.091   1.263   2.953 -1.7821  1.5528  0.1268
47404SOL     OW53935   0.058   2.917  11.632  0.5717  0.4018 -0.1316
47404SOL    HW153936   0.090   3.006  11.618  0.9142  0.0814 -1.4319
47404SOL    HW253937  -0.034   2.921  11.606  0.6576  0.3123 -0.4490
47405SOL     OW53938   4.209  11.441   6.806 -0.0160  0.4066  0.2127
47405SOL    HW153939   4.224  11.531   6.779  1.8933  0.1377  0.2460
47405SOL    HW253940   4.218  11.390   6.725 -2.9136  0.3417 -0.1803
47406SOL     OW53941   0.463   0.862   6.198 -0.0924 -0.0057 -0.5125
47406SOL    HW153942   0.442   0.790   6.139  0.1436 -0.0991 -0.4851
47406SOL    HW253943   0.530   0.913   6.152  1.5466 -1.1860  0.4777
47407SOL     OW53944  11.664   2.415  11.532 -0.1794 -0.1311  0.4856
47407SOL    HW153945  11.691   2.359  11.459  1.3984  1.0548  0.1024
47407SOL    HW253946  11.584   2.458  11.501 -0.4753 -0.9298  0.1306
47408SOL     OW53947   1.811  10.748   9.256  0.7123 -0.6355  0.8911
47408SOL    HW153948   1.776  10.758   9.344  1.6272  0.2396  1.1789
47408SOL    HW253949   1.737  10.767   9.198 -0.0458 -1.7803  1.4477
47409SOL     OW53950   0.416   1.827   4.347  0.3680 -0.1821 -0.1353
47409SOL    HW153951   0.411   1.866   4.260 -1.0807 -0.5142 -0.2281
47409SOL    HW253952   0.447   1.738   4.331 -0.0939 -0.3088 -0.3446
47410SOL     OW53953   5.868   6.866   5.900 -0.1207  0.4364  0.3570
47410SOL    HW153954   5.852   6.944   5.847 -0.4005  0.0441 -0.1457
47410SOL    HW253955   5.840   6.890   5.988  2.1991  1.7768  0.8266
47411SOL     OW53956   1.145   6.038   6.814  0.7252 -0.8376  0.0366
47411SOL    HW153957   1.167   5.961   6.866  0.3970  0.6292  2.5047
47411SOL    HW253958   1.229   6.073   6.785  0.9415 -1.4629 -0.0922
47412SOL     OW53959   5.255   2.532   3.574 -0.1028 -0.3879  0.4555
47412SOL    HW153960   5.257   2.450   3.623 -0.5453 -0.8666 -0.3055
47412SOL    HW253961   5.256   2.505   3.482  0.0891  0.4715  0.1948
47413SOL     OW53962   9.196   2.283   2.732  0.3514  0.1034 -0.2076
47413SOL    HW153963   9.173   2.345   2.801 -0.4431  0.5295 -0.8333
47413SOL    HW253964   9.279   2.315   2.697  1.7560 -1.1749  1.7642
47414SOL     OW53965   5.759  11.173   7.769  1.0437  0.8089  0.6483
47414SOL    HW153966   5.730  11.206   7.684 -1.6060  0.1987  1.2368
47414SOL    HW253967   5.692  11.203   7.831  0.5872 -2.2976  1.8288
47415SOL     OW53968   5.906  11.951  11.793  0.0422 -0.0329 -0.3876
47415SOL    HW153969   5.844  11.893  11.837  1.0570  0.2253  1.5168
47415SOL    HW253970   5.937  12.010  11.862  2.6538 -0.3816 -1.1426
47416SOL     OW53971   8.952   2.913  11.558 -0.2398  0.4157  0.4678
47416SOL    HW153972   8.975   2.836  11.610 -1.0706  0.1127  0.3988
47416SOL    HW253973   8.874   2.886  11.509 -1.1934  1.6553  1.2720
47417SOL     OW53974   2.601   1.658   3.267  0.5148 -0.2217  0.4038
47417SOL    HW153975   2.506   1.649   3.268  0.5280 -0.4687 -0.4867
47417SOL    HW253976   2.631   1.590   3.208  1.2266  0.0730  0.4192
47418SOL     OW53977  11.354   8.944  10.535  0.6778 -0.2266  0.0613
47418SOL    HW153978  11.282   8.907  10.484  1.5954 -0.6856 -0.9387
47418SOL    HW253979  11.424   8.955  10.472  1.5988 -0.0995  1.0866
47419SOL     OW53980   2.434  11.033  11.405  0.0760  0.3789 -0.3760
47419SOL    HW153981   2.451  10.952  11.358  1.9489  0.4291  0.1231
47419SOL    HW253982   2.514  11.048  11.456 -0.3106  2.4157 -0.2863
47420SOL     OW53983   5.874  11.518   9.771 -0.4515 -0.0468 -0.2310
47420SOL    HW153984   5.922  11.594   9.737 -0.8071  1.0030  1.5085
47420SOL    HW253985   5.783  11.535   9.749 -0.6557  0.5325  0.9665
47421SOL     OW53986   1.185   5.858   1.570 -0.0127  0.0149  0.0787
47421SOL    HW153987   1.161   5.839   1.480 -0.1075  0.1692  0.0709
47421SOL    HW253988   1.122   5.808   1.623 -0.1874  0.2111  0.0585
47422SOL     OW53989   9.646   7.568  10.342  0.5264 -0.0861  0.4000
47422SOL    HW153990   9.735   7.601  10.327  1.5434 -2.3057  1.1509
47422SOL    HW253991   9.637   7.567  10.437  0.3501 -1.4336  0.3841
47423SOL     OW53992   9.421   4.665   7.101 -0.3384 -0.6723 -0.5106
47423SOL    HW153993   9.328   4.641   7.103 -0.3151 -0.8081 -0.9230
47423SOL    HW253994   9.426   4.740   7.041 -0.4825  0.7369  1.1662
47424SOL     OW53995  10.864  11.709   2.081  0.0268  0.3095 -0.9365
47424SOL    HW153996  10.807  11.775   2.043 -2.0034 -0.0792  1.2070
47424SOL    HW253997  10.911  11.754   2.151 -2.9316 -0.6957  2.0085
47425SOL     OW53998   7.761   0.636  10.122  0.3610 -0.1825 -0.1888
47425SOL    HW153999   7.674   0.600  10.136  0.5319 -0.1842  0.9828
47425SOL    HW254000   7.790   0.663  10.209  0.8004  1.5066 -0.8192
47426SOL     OW54001  11.954   8.206   9.348 -0.5256 -0.3251  0.1073
47426SOL    HW154002  12.035   8.256   9.357 -0.4309 -0.0268 -1.9566
47426SOL    HW254003  11.983   8.118   9.324 -0.7923 -0.1863 -0.7580
47427SOL     OW54004   3.567   8.717   1.075  0.0583  0.2122 -0.5779
47427SOL    HW154005   3.637   8.700   1.011 -0.5651 -1.5344 -0.8410
47427SOL    HW254006   3.518   8.635   1.079 -1.0207  0.8934  0.8013
47428SOL     OW54007   0.010  10.143  10.160  0.0534  0.4788 -0.0604
47428SOL    HW154008  -0.010  10.163  10.251  0.1231  1.4080 -0.2458
47428SOL    HW254009   0.093  10.096  10.163 -0.1191  0.1986  0.3797
47429SOL     OW54010   7.209   2.876   1.674  0.4875 -0.3587  0.1488
47429SOL    HW154011   7.195   2.872   1.580 -2.0454 -1.7896  0.4890
47429SOL    HW254012   7.195   2.968   1.697  0.0107 -0.2024 -0.7348
47430SOL     OW54013   9.334  10.953   9.730  0.1891 -0.5045  0.0318
47430SOL    HW154014   9.348  10.863   9.700 -0.1200 -0.3171 -0.6877
47430SOL    HW254015   9.240  10.959   9.744  0.3783 -0.7645  1.6575
47431SOL     OW54016   8.236   8.091   7.167  0.3823 -0.2000 -0.3805
47431SOL    HW154017   8.310   8.129   7.214  0.4774 -0.7875 -0.0485
47431SOL    HW254018   8.161   8.143   7.195  0.5891  0.0850 -0.3465
47432SOL     OW54019   1.447   8.038   4.527  0.0282  0.6772  0.4577
47432SOL    HW154020   1.419   8.101   4.593 -0.7300 -0.3900  1.1917
47432SOL    HW254021   1.373   8.029   4.468 -0.4955 -0.6426  1.2494
47433SOL     OW54022  11.223   3.011   4.453 -0.1854  0.0382  0.1101
47433SOL    HW154023  11.163   2.940   4.476 -1.2359  1.0789  0.7052
47433SOL    HW254024  11.291   2.969   4.401  0.2803 -1.7324  2.0356
47434SOL     OW54025  11.085   1.068   6.634 -0.9694  0.2436  0.0710
47434SOL    HW154026  11.142   1.122   6.689 -1.2425  0.8507 -0.2412
47434SOL    HW254027  10.999   1.075   6.676 -0.6647 -1.4052  1.0809
47435SOL     OW54028   1.383  10.769   3.929 -0.0083 -0.6607  0.3482
47435SOL    HW154029   1.403  10.776   3.836  0.0851 -0.6620  0.3683
47435SOL    HW254030   1.384  10.674   3.946 -0.8623 -0.7143  0.1658
47436SOL     OW54031   3.446  11.104   1.045 -0.7463  0.0687  0.6726
47436SOL    HW154032   3.427  11.039   1.112 -0.2514 -0.1547  0.6047
47436SOL    HW254033   3.376  11.094   0.981 -0.5260 -0.5917  0.5258
47437SOL     OW54034   0.912   0.723   3.859 -0.4680 -0.4244 -0.2140
47437SOL    HW154035   0.830   0.750   3.818 -0.5530 -0.9270 -0.3791
47437SOL    HW254036   0.953   0.663   3.796 -0.8486 -1.6178  0.6236
47438SOL     OW54037   7.636   9.741   2.705  0.1462 -0.4393  0.1645
47438SOL    HW154038   7.654   9.649   2.722  2.2832  0.0163  0.6170
47438SOL    HW254039   7.715   9.775   2.665 -0.0103  1.5190  1.3479
47439SOL     OW54040   1.950   3.802  10.966  0.4195  0.5363 -0.6424
47439SOL    HW154041   1.864   3.812  11.008  0.5091  1.7416 -0.6972
47439SOL    HW254042   1.933   3.748  10.889 -0.1826  0.2920 -0.3457
47440SOL     OW54043   1.751  10.606  10.295  0.2642 -0.3224  0.1260
47440SOL    HW154044   1.758  10.698  10.269 -0.2502 -0.5189 -0.7627
47440SOL    HW254045   1.747  10.558  10.212 -0.4631 -1.0674  0.5786
47441SOL     OW54046   4.880   6.967   2.029  0.0596  0.1273 -0.1308
47441SOL    HW154047   4.814   6.972   2.098  0.4970 -1.7131  0.4776
47441SOL    HW254048   4.832   6.989   1.949 -1.1086 -0.3602  0.4090
47442SOL     OW54049   3.847   0.509   6.775  0.2865 -0.1855  0.0178
47442SOL    HW154050   3.877   0.549   6.694  0.2082  2.3650  1.1667
47442SOL    HW254051   3.752   0.520   6.773  0.3538  0.5474  0.7797
47443SOL     OW54052   2.222   6.517   1.775  0.3966  0.2242 -0.2014
47443SOL    HW154053   2.167   6.511   1.697  0.6780  1.1632 -0.4826
47443SOL    HW254054   2.201   6.603   1.812  0.3813 -0.1515  0.6692
47444SOL     OW54055   7.284   0.300   6.906  0.0914 -0.1323 -0.1917
47444SOL    HW154056   7.253   0.257   6.826 -1.0921  0.0106  0.1634
47444SOL    HW254057   7.350   0.362   6.875 -1.3603  0.9614 -1.2925
47445SOL     OW54058   4.249   7.489  10.597 -0.1593 -0.0692  0.0635
47445SOL    HW154059   4.182   7.425  10.574  0.9160 -0.6561 -1.5574
47445SOL    HW254060   4.320   7.437  10.635 -0.2911  0.4739  1.1125
47446SOL     OW54061   6.461   1.181   3.509 -0.0472  1.0525  0.6776
47446SOL    HW154062   6.440   1.271   3.484  0.0241  0.8003 -0.3637
47446SOL    HW254063   6.554   1.183   3.529  0.0356  1.1426  0.2951
47447SOL     OW54064   4.932   3.275   6.988 -0.3999  0.8255 -0.9186
47447SOL    HW154065   5.012   3.223   6.990 -1.9005 -1.6746 -0.1937
47447SOL    HW254066   4.915   3.291   6.895 -0.6897 -1.4730 -1.3225
47448SOL     OW54067   9.528   6.599   7.735  0.0777 -0.4919 -0.0995
47448SOL    HW154068   9.596   6.554   7.785  0.4366 -0.0602 -0.1918
47448SOL    HW254069   9.458   6.616   7.798  0.2451 -0.5421  0.1006
47449SOL     OW54070   7.236   6.115   6.700 -0.2866  0.7190 -0.4481
47449SOL    HW154071   7.269   6.189   6.649 -1.0849  0.6810 -1.0482
47449SOL    HW254072   7.154   6.091   6.657  0.9445 -1.8591 -1.5432
47450SOL     OW54073   8.920   5.346   6.341  0.4473  0.0213  0.4014
47450SOL    HW154074   8.870   5.427   6.332 -0.2444 -0.1884  2.0323
47450SOL    HW254075   9.011   5.376   6.350  0.4898  0.4716 -1.1174
47451SOL     OW54076   8.911   6.139   5.091  0.5040 -0.1267 -0.5504
47451SOL    HW154077   8.826   6.140   5.134  0.5888  0.6116 -0.3862
47451SOL    HW254078   8.891   6.153   4.998  0.5101  1.2490 -0.3648
47452SOL     OW54079   3.338   4.168   9.808 -0.4089 -0.2035  0.1661
47452SOL    HW154080   3.349   4.208   9.894  1.4944  1.2056 -0.6596
47452SOL    HW254081   3.299   4.237   9.754  0.1855 -0.4410 -0.5752
47453SOL     OW54082   3.480   3.671   8.221 -0.6985 -0.3390 -0.3364
47453SOL    HW154083   3.495   3.579   8.240  0.8735 -0.5575 -2.3536
47453SOL    HW254084   3.416   3.671   8.150  1.6034 -0.1144 -2.5532
47454SOL     OW54085   5.071   8.230  11.948  0.2077  0.0950  0.1520
47454SOL    HW154086   5.106   8.162  11.890 -1.7812 -0.3193 -0.6467
47454SOL    HW254087   5.071   8.189  12.035  1.3287 -0.0085  0.1168
47455SOL     OW54088   8.462   1.088   9.088 -0.2422 -0.1960  0.1272
47455SOL    HW154089   8.378   1.129   9.108 -0.6414 -1.3423  0.8868
47455SOL    HW254090   8.528   1.150   9.121 -0.7756  0.5708 -0.2083
47456SOL     OW54091   2.412   3.951   2.233  0.2677  0.4903  0.0772
47456SOL    HW154092   2.458   3.868   2.215  0.0079  0.2898  0.3264
47456SOL    HW254093   2.325   3.938   2.197  0.4216  0.8970 -0.4550
47457SOL     OW54094   0.241   8.001   4.917  0.1940 -0.0342 -0.4252
47457SOL    HW154095   0.257   8.081   4.867  2.5294  0.8294  1.5349
47457SOL    HW254096   0.323   7.983   4.961 -0.7477 -2.6862  0.4282
47458SOL     OW54097   4.253   5.202   4.028 -0.1393  0.8289  0.4569
47458SOL    HW154098   4.281   5.114   4.006  0.1856  0.1141  3.3294
47458SOL    HW254099   4.322   5.259   3.995  0.1082 -0.0707 -0.6108
47459SOL     OW54100   2.499  11.674   7.034  0.0289  0.5371  0.4590
47459SOL    HW154101   2.509  11.578   7.029  1.7324  0.6583  0.7136
47459SOL    HW254102   2.542  11.706   6.955 -0.6200  1.1032  0.3283
47460SOL     OW54103  11.328   4.884   9.050  0.2625 -0.5865  0.0817
47460SOL    HW154104  11.255   4.945   9.041 -0.0678 -1.0268 -0.2503
47460SOL    HW254105  11.288   4.798   9.044  0.6659 -0.8466  1.0223
47461SOL     OW54106   5.906  11.689   8.957  0.7964  0.0020  0.2922
47461SOL    HW154107   5.826  11.705   9.007  0.7814 -0.5886  0.4575
47461SOL    HW254108   5.922  11.772   8.911  1.2393  0.8360  1.8592
47462SOL     OW54109   4.600  11.017   5.770  0.9835  0.5052 -0.3234
47462SOL    HW154110   4.508  11.023   5.745 -0.1490  1.6999  3.4975
47462SOL    HW254111   4.625  11.107   5.790  1.7729 -0.2052  2.2339
47463SOL     OW54112   2.062   3.992   1.345 -0.1206  0.5673  0.0106
47463SOL    HW154113   2.023   3.905   1.344 -1.5506  1.1660 -1.6926
47463SOL    HW254114   2.147   3.980   1.387 -0.4747 -1.5376  0.2352
47464SOL     OW54115   3.018   3.736   9.719  0.0128  0.0385  0.3098
47464SOL    HW154116   3.035   3.817   9.672 -0.9974  0.0790 -0.0023
47464SOL    HW254117   2.957   3.688   9.664  0.0134 -0.5984  0.8484
47465SOL     OW54118   0.945   2.219   4.220 -0.4399 -0.1200  0.1773
47465SOL    HW154119   0.863   2.235   4.265 -0.4776 -0.4987  0.2497
47465SOL    HW254120   0.936   2.130   4.185  0.0320 -0.2583  0.3953
47466SOL     OW54121  11.567   0.918  10.716  0.1107 -0.5494 -0.1032
47466SOL    HW154122  11.496   0.902  10.779  1.5194  0.0897  1.7387
47466SOL    HW254123  11.544   1.001  10.675 -0.4034 -0.5499  0.1717
47467SOL     OW54124   5.006   1.102   9.565 -0.4364  0.1485 -0.3246
47467SOL    HW154125   5.019   1.007   9.574 -0.5484  0.2142  0.6027
47467SOL    HW254126   4.986   1.132   9.654 -0.5571  1.0205 -0.6390
47468SOL     OW54127   4.601   5.652   3.589  0.0611  1.0533 -0.7553
47468SOL    HW154128   4.528   5.604   3.548 -0.5250 -1.2790  2.6208
47468SOL    HW254129   4.558   5.719   3.643  0.2797 -0.3446  1.2680
47469SOL     OW54130  11.244   3.473   0.361 -0.7995 -0.0616 -0.5059
47469SOL    HW154131  11.239   3.381   0.335  0.0862 -0.8759  1.8900
47469SOL    HW254132  11.304   3.513   0.299  1.3114 -1.8962  0.2207
47470SOL     OW54133   5.833   9.580  11.512 -0.3008 -0.2684  0.0311
47470SOL    HW154134   5.794   9.560  11.598  1.0959 -0.5379  0.6273
47470SOL    HW254135   5.925   9.598  11.531 -0.2405  0.9555 -1.2673
47471SOL     OW54136   2.787   6.304   0.955 -0.0779 -0.1717  0.4073
47471SOL    HW154137   2.780   6.333   0.864 -0.6818 -0.6285  0.3051
47471SOL    HW254138   2.753   6.377   1.007 -1.9819 -0.7961  0.1283
47472SOL     OW54139   3.184  10.463   1.157  0.3320  0.1100 -0.1075
47472SOL    HW154140   3.235  10.493   1.232 -0.7099 -0.1440  0.7388
47472SOL    HW254141   3.093  10.469   1.187 -0.0115 -2.1509 -0.5376
47473SOL     OW54142   0.259   1.588  11.073  0.0296  0.4619  0.0366
47473SOL    HW154143   0.278   1.588  11.166  4.3494 -1.3798 -0.5874
47473SOL    HW254144   0.271   1.679  11.046  1.9550  0.5296  0.9084
47474SOL     OW54145   0.200   6.990   5.659  0.1287  0.6160  0.5894
47474SOL    HW154146   0.131   7.035   5.611 -0.3502 -0.6019  0.1010
47474SOL    HW254147   0.232   7.055   5.722 -1.4533  1.2126  0.8294
47475SOL     OW54148   9.074  10.526   6.802 -0.0116 -0.1941  0.4099
47475SOL    HW154149   9.001  10.578   6.769 -0.4108 -0.7937  0.3352
47475SOL    HW254150   9.074  10.542   6.896  0.0152  0.1226  0.3563
47476SOL     OW54151   1.876   6.037   1.344 -0.0960 -0.1870  0.5588
47476SOL    HW154152   1.870   6.047   1.439 -0.7011 -0.0756  0.5141
47476SOL    HW254153   1.969   6.020   1.327  0.0871  0.2444  1.1215
47477SOL     OW54154   6.470  10.770   2.980  0.1104 -0.3498  0.5246
47477SOL    HW154155   6.377  10.773   2.957  0.6188 -0.5654 -1.9102
47477SOL    HW254156   6.483  10.685   3.020 -0.5336 -0.8902 -0.3840
47478SOL     OW54157  10.181   0.642   9.623 -0.7093  0.3186  0.2675
47478SOL    HW154158  10.229   0.573   9.668  3.2295  1.3076 -1.9096
47478SOL    HW254159  10.104   0.598   9.587 -0.1299 -2.1043  1.7724
47479SOL     OW54160   3.750   3.881   0.935  0.1831 -0.3536  0.2357
47479SOL    HW154161   3.797   3.853   1.013  1.0206 -2.1313 -0.8388
47479SOL    HW254162   3.658   3.865   0.955  0.4395 -1.3594  0.6438
47480SOL     OW54163   5.655   7.497   2.774 -0.1201  0.4517 -0.8576
47480SOL    HW154164   5.737   7.535   2.805 -0.1339  0.5391 -0.9258
47480SOL    HW254165   5.681   7.421   2.723 -0.1834 -0.9466  1.1024
47481SOL     OW54166   5.097   4.752   9.858  0.1861 -0.2683  0.0212
47481SOL    HW154167   5.026   4.816   9.864 -1.1372 -1.7855  2.1153
47481SOL    HW254168   5.171   4.794   9.902 -0.7644 -0.2256  1.6552
47482SOL     OW54169   6.442   8.540   8.585  0.4923  0.2769  0.1156
47482SOL    HW154170   6.494   8.460   8.572  1.3450  0.5211  1.7034
47482SOL    HW254171   6.497   8.594   8.642  0.1715  2.2548 -1.3849
47483SOL     OW54172   8.662   0.899   1.254  0.2499 -0.5884 -0.4271
47483SOL    HW154173   8.742   0.911   1.305 -0.1601 -0.5982  0.2349
47483SOL    HW254174   8.662   0.972   1.192 -0.9245  1.4815  1.8573
47484SOL     OW54175   4.734   6.658   3.168  0.4209 -0.6752  0.2909
47484SOL    HW154176   4.811   6.604   3.183 -0.2469 -1.8759 -0.4397
47484SOL    HW254177   4.726   6.663   3.072  0.0320  0.0904  0.3491
47485SOL     OW54178   1.970   3.182   2.272  0.2999  0.1493 -0.1816
47485SOL    HW154179   2.017   3.265   2.264  0.2939  0.1354 -0.3760
47485SOL    HW254180   2.009   3.126   2.205 -0.1686  0.2221 -0.5195
47486SOL     OW54181   9.389  11.909   8.912 -0.1100 -0.5610  0.3357
47486SOL    HW154182   9.480  11.882   8.919  0.0452 -0.2577 -0.3717
47486SOL    HW254183   9.343  11.857   8.978  0.3916 -1.5226 -0.0494
47487SOL     OW54184   4.234   9.286   3.164  0.1956  0.4746 -0.1206
47487SOL    HW154185   4.269   9.372   3.189 -0.7868  0.8218  0.1297
47487SOL    HW254186   4.144   9.304   3.137 -0.1260 -0.5177  0.2303
47488SOL     OW54187   9.108   6.886   4.569  0.4271  0.3568 -0.4309
47488SOL    HW154188   9.067   6.826   4.507 -1.7931  1.4264 -0.0718
47488SOL    HW254189   9.077   6.973   4.544 -0.3581  0.8531  1.9938
47489SOL     OW54190   5.876   0.911   2.582 -0.9781  0.3974  0.0489
47489SOL    HW154191   5.961   0.944   2.553 -1.5909  1.7331 -0.3072
47489SOL    HW254192   5.862   0.832   2.529 -0.2177  0.4750 -0.2857
47490SOL     OW54193  11.693   4.898   4.390 -0.3772 -0.3760 -0.2732
47490SOL    HW154194  11.678   4.872   4.482 -0.3459  0.0703 -0.1402
47490SOL    HW254195  11.610   4.938   4.363  0.4395  1.8510  0.3775
47491SOL     OW54196   9.040   6.640   2.117 -0.4716  0.3774 -1.1758
47491SOL    HW154197   9.004   6.677   2.198 -2.7285  0.9916 -2.3610
47491SOL    HW254198   9.000   6.553   2.111  1.2348 -0.4700 -0.6794
47492SOL     OW54199   7.458   0.249   4.212  0.9879  0.2844  0.0257
47492SOL    HW154200   7.371   0.289   4.206  0.9567  0.0452 -1.3836
47492SOL    HW254201   7.495   0.285   4.293  0.2563  1.7686 -0.2557
47493SOL     OW54202   6.187   0.338   9.216  0.8355 -0.2605 -0.2240
47493SOL    HW154203   6.196   0.384   9.299 -2.6300 -0.8686  0.6422
47493SOL    HW254204   6.276   0.336   9.180  2.0851  1.9888  2.3611
47494SOL     OW54205   6.905   0.696   2.645 -0.2287 -0.0522  0.4532
47494SOL    HW154206   6.930   0.640   2.718 -0.4084  0.4909  0.9371
47494SOL    HW254207   6.987   0.716   2.601  0.2217  1.6296  1.9678
47495SOL     OW54208   9.278   7.470   9.648  0.3691  0.0572  0.1029
47495SOL    HW154209   9.214   7.420   9.598  0.6924 -0.4639  0.2008
47495SOL    HW254210   9.310   7.409   9.715  2.4231 -0.3740 -1.1855
47496SOL     OW54211   4.501   2.158  10.434 -0.3959  0.3537 -0.4298
47496SOL    HW154212   4.408   2.179  10.439 -1.1348 -2.5128 -0.6024
47496SOL    HW254213   4.514   2.092  10.501  2.1043  2.3185  1.1885
47497SOL     OW54214   7.751   4.188   1.548 -0.2055 -1.0775 -0.3879
47497SOL    HW154215   7.690   4.147   1.487 -0.7586 -1.4541  0.3969
47497SOL    HW254216   7.774   4.118   1.609  0.6234 -0.8050 -0.3861
47498SOL     OW54217   7.803   4.728   9.518 -0.3236 -0.3451  0.6977
47498SOL    HW154218   7.887   4.758   9.553 -1.2027  1.1650  1.5754
47498SOL    HW254219   7.766   4.674   9.588 -0.9498  0.6136  1.1264
47499SOL     OW54220   9.176  11.054   7.047 -0.1389 -0.9494  0.3737
47499SOL    HW154221   9.157  11.076   7.138 -1.1090 -0.9054  0.1741
47499SOL    HW254222   9.259  11.006   7.050  0.2274 -0.2780  1.1837
47500SOL     OW54223  11.058   6.208   2.741 -0.0649 -0.4089  0.1619
47500SOL    HW154224  11.054   6.303   2.726 -0.2795 -0.0977  1.9571
47500SOL    HW254225  11.004   6.171   2.671  0.7780  0.6965 -1.1420
47501SOL     OW54226   9.812   1.192   1.119  0.3833  0.1575 -0.0565
47501SOL    HW154227   9.867   1.123   1.082 -0.0384 -0.3044  0.1635
47501SOL    HW254228   9.863   1.226   1.192 -0.4139 -1.6359  1.4305
47502SOL     OW54229   9.264   5.454   4.566  0.1265 -0.2770 -0.2712
47502SOL    HW154230   9.278   5.474   4.474 -1.9090  1.4706 -0.2753
47502SOL    HW254231   9.352   5.447   4.603  0.9766 -1.0573 -2.3188
47503SOL     OW54232   5.038   0.959   3.723  0.4180  0.0762 -0.1170
47503SOL    HW154233   5.040   1.049   3.691  1.3500 -0.0197 -0.3434
47503SOL    HW254234   5.113   0.917   3.682  1.5553 -0.1084  2.0336
47504SOL     OW54235   1.426   3.224   8.280  0.5797 -0.1889  0.1221
47504SOL    HW154236   1.388   3.157   8.222  2.4309 -0.1470 -1.2314
47504SOL    HW254237   1.385   3.306   8.252  2.2788  0.0113 -2.0284
47505SOL     OW54238   7.502   8.745   7.782 -0.2872 -0.3024  0.2647
47505SOL    HW154239   7.435   8.791   7.732  0.2581  0.8441  0.5468
47505SOL    HW254240   7.556   8.815   7.819  0.4364 -1.1765  0.9019
47506SOL     OW54241   0.927   7.348  10.095  0.6440  0.1570  0.1512
47506SOL    HW154242   0.978   7.405  10.153 -1.7946  1.0785  1.5396
47506SOL    HW254243   0.951   7.376  10.007  2.0194  0.9826  0.7432
47507SOL     OW54244   2.195   8.775   8.906  0.1420  0.2256  0.5505
47507SOL    HW154245   2.210   8.766   9.000 -2.0183 -1.0731  0.8370
47507SOL    HW254246   2.200   8.686   8.872  0.4970  0.6360 -0.5011
47508SOL     OW54247   5.728   1.228   1.710 -0.3445 -0.1647 -0.1662
47508SOL    HW154248   5.782   1.160   1.750  0.3262  0.3976 -0.0938
47508SOL    HW254249   5.682   1.184   1.638  1.5513 -0.2783 -1.3670
47509SOL     OW54250   3.254   9.064   9.197  0.0951  0.4760 -0.2398
47509SOL    HW154251   3.266   9.156   9.220 -1.4374  0.3920  1.1112
47509SOL    HW254252   3.290   9.016   9.272 -0.1256  0.0078 -0.4267
47510SOL     OW54253   9.156   6.807   7.840 -0.4219  0.2724 -0.4522
47510SOL    HW154254   9.189   6.783   7.927 -0.7185  0.8354 -0.1704
47510SOL    HW254255   9.219   6.871   7.807 -1.4775  1.8124  0.3432
47511SOL     OW54256  11.455   8.974  10.269 -0.2065  0.2676 -0.0969
47511SOL    HW154257  11.435   8.904  10.207 -0.4160  0.2621 -0.0246
47511SOL    HW254258  11.550   8.986  10.262 -0.1720 -0.0109 -0.1224
47512SOL     OW54259  10.193  11.421   9.629  0.3418 -0.6949  0.4009
47512SOL    HW154260  10.259  11.353   9.615  0.3683 -0.4835 -0.6042
47512SOL    HW254261  10.201  11.478   9.552  0.6763  0.7458  1.4439
47513SOL     OW54262   9.155   2.072   5.708  0.0021 -0.3758 -0.2296
47513SOL    HW154263   9.203   1.995   5.739  0.5178  0.2448  0.5422
47513SOL    HW254264   9.166   2.137   5.778 -0.3415  0.4386 -0.9195
47514SOL     OW54265   5.914   6.894   3.428 -0.7944 -0.6454 -0.4841
47514SOL    HW154266   5.822   6.898   3.454 -0.7493  0.2057 -0.4334
47514SOL    HW254267   5.919   6.947   3.349  0.2346  2.1410  1.2931
47515SOL     OW54268   5.318   8.545   4.386  0.1338  0.5293 -1.0490
47515SOL    HW154269   5.259   8.481   4.346  0.1582  0.8779 -1.6500
47515SOL    HW254270   5.346   8.600   4.313 -0.0353  1.3454 -0.5038
47516SOL     OW54271   8.505   9.874   8.479  0.3562  0.7438 -0.5718
47516SOL    HW154272   8.451   9.850   8.404  0.0689 -1.7433  0.3205
47516SOL    HW254273   8.453   9.938   8.528 -1.4465 -0.8900 -0.2296
47517SOL     OW54274   9.530   2.450   4.599  0.0202  0.2031  0.4244
47517SOL    HW154275   9.620   2.466   4.569  0.1561  1.0378  1.2602
47517SOL    HW254276   9.503   2.372   4.550  2.0222 -1.5111  1.8502
47518SOL     OW54277   7.584   2.731   7.976 -0.3362  0.0262 -0.2359
47518SOL    HW154278   7.667   2.765   7.940 -0.1421  0.9763  1.0162
47518SOL    HW254279   7.609   2.651   8.021  0.0572  0.6573  0.7127
47519SOL     OW54280   5.304  11.649  11.335  0.8232  0.2729 -0.6897
47519SOL    HW154281   5.287  11.720  11.273  0.8213 -0.2450 -1.2982
47519SOL    HW254282   5.222  11.599  11.337  1.7027 -1.4388 -2.5848
47520SOL     OW54283   8.951   4.798   0.460 -0.3499  0.8583  0.4472
47520SOL    HW154284   8.893   4.873   0.451 -0.0445  1.3105  2.0165
47520SOL    HW254285   8.980   4.800   0.551  0.5715 -0.5032  0.2207
47521SOL     OW54286   7.203   2.367   9.541  0.7364 -0.2471  0.2326
47521SOL    HW154287   7.137   2.313   9.499  1.4853 -1.2292  0.2698
47521SOL    HW254288   7.279   2.309   9.551  1.4854  0.7423  0.4999
47522SOL     OW54289   0.020   1.812   5.286 -0.3684  0.2696  0.2305
47522SOL    HW154290   0.023   1.802   5.191  0.2136  0.1479  0.2528
47522SOL    HW254291   0.107   1.846   5.309 -1.1553  2.1936  0.5228
47523SOL     OW54292   0.980   2.406   2.530  0.2783 -0.1110  0.1987
47523SOL    HW154293   0.952   2.491   2.497 -2.5706 -1.1944 -0.4970
47523SOL    HW254294   1.050   2.379   2.471 -0.2197  0.8620 -0.8765
47524SOL     OW54295   6.763   9.789   8.737  0.6270 -0.0095  0.4389
47524SOL    HW154296   6.769   9.870   8.687 -2.5579 -0.4303 -0.8277
47524SOL    HW254297   6.690   9.803   8.798  1.2881 -1.2687  1.5898
47525SOL     OW54298   3.200  10.710   1.943 -0.3247  0.3705 -0.8704
47525SOL    HW154299   3.233  10.793   1.979 -1.1125  0.2967  0.0627
47525SOL    HW254300   3.185  10.655   2.020 -0.0556 -0.5576 -1.4612
47526SOL     OW54301   5.641   3.826  10.363 -0.2115 -0.1720  0.1680
47526SOL    HW154302   5.682   3.880  10.430  0.7819  1.0316 -1.3501
47526SOL    HW254303   5.547   3.841  10.375  0.0166  1.2044  0.3389
47527SOL     OW54304   6.895  11.830   3.770  0.1165  0.1761  0.2951
47527SOL    HW154305   6.970  11.856   3.718  0.0268  1.1305  0.6235
47527SOL    HW254306   6.877  11.740   3.744  0.1643  0.5817 -1.2131
47528SOL     OW54307   9.159   8.027   7.928  0.0173  0.3022 -0.3679
47528SOL    HW154308   9.073   8.054   7.895  0.6033  0.5964 -1.7361
47528SOL    HW254309   9.174   7.941   7.889  0.6464  0.5758 -0.7494
47529SOL     OW54310   1.729  11.280   4.933  0.2774  1.0152  0.5292
47529SOL    HW154311   1.823  11.295   4.937  0.3201  1.2589 -0.8752
47529SOL    HW254312   1.694  11.359   4.891 -0.4811  0.6488  0.4484
47530SOL     OW54313   3.204   6.832   6.093 -0.1728  0.9575 -0.0901
47530SOL    HW154314   3.150   6.891   6.041  0.3088  0.4598 -1.1840
47530SOL    HW254315   3.190   6.746   6.053 -1.8448  0.0362  2.2148
47531SOL     OW54316   6.198   9.278   3.606 -0.6875 -0.0315  0.4682
47531SOL    HW154317   6.183   9.360   3.653 -1.6157 -0.8961  1.7682
47531SOL    HW254318   6.216   9.305   3.516 -0.5428  1.6066  0.9462
47532SOL     OW54319   7.337   5.212   5.826 -0.1983 -0.2225 -0.2451
47532SOL    HW154320   7.410   5.268   5.799 -0.9467  0.5689 -0.6944
47532SOL    HW254321   7.283   5.269   5.881 -0.4977 -0.7902  0.0553
47533SOL     OW54322  10.431   1.435   9.849  0.6044  0.5811  0.8331
47533SOL    HW154323  10.494   1.481   9.793  2.0570 -1.2835  0.8472
47533SOL    HW254324  10.379   1.383   9.789  0.3565  0.6541  0.9852
47534SOL     OW54325   1.590   2.487   4.940  0.3456  0.1637 -0.2536
47534SOL    HW154326   1.639   2.463   5.019  0.1512 -0.6339 -0.3617
47534SOL    HW254327   1.536   2.410   4.922  0.4240  0.3190 -1.1891
47535SOL     OW54328   8.194  11.873   3.276 -0.2335  0.1821 -0.4658
47535SOL    HW154329   8.260  11.804   3.281 -1.0092 -0.5957 -0.6051
47535SOL    HW254330   8.119  11.838   3.325 -1.8455 -0.5013 -3.1989
47536SOL     OW54331   3.056  10.081   4.566 -0.1352 -0.3504 -0.2482
47536SOL    HW154332   3.028  10.172   4.552  1.0581  0.0938  0.1425
47536SOL    HW254333   3.003  10.031   4.504 -3.1833  0.1602  1.7212
47537SOL     OW54334   3.972   9.961   7.472 -0.9361 -0.1671 -0.0322
47537SOL    HW154335   3.970   9.884   7.528 -0.6192 -0.5462 -0.5276
47537SOL    HW254336   4.028   9.936   7.398 -0.6275  0.6230 -0.0780
47538SOL     OW54337   9.472   3.050  11.279 -0.0921  0.0836 -0.1892
47538SOL    HW154338   9.475   3.141  11.310 -0.5472 -0.0812  0.3533
47538SOL    HW254339   9.416   3.054  11.201 -1.0651  0.0913  0.4968
47539SOL     OW54340   5.547   8.301   7.044 -0.0390 -1.0767  0.4267
47539SOL    HW154341   5.478   8.337   7.101 -1.0299  0.5088 -1.6603
47539SOL    HW254342   5.506   8.225   7.003  0.1393 -1.2852  0.6310
47540SOL     OW54343  11.186   4.801   5.036 -0.1728  0.2260 -0.0010
47540SOL    HW154344  11.094   4.790   5.014 -0.1737 -1.5593  0.6852
47540SOL    HW254345  11.221   4.712   5.036  1.7624  0.9284 -1.0536
47541SOL     OW54346   1.832   2.742   8.600  0.5209 -0.3505 -0.6159
47541SOL    HW154347   1.848   2.674   8.534 -2.1385 -0.5942 -1.0911
47541SOL    HW254348   1.747   2.720   8.637  0.6286  1.4696  0.8264
47542SOL     OW54349   7.240   2.253   5.590 -0.2791  0.3949  0.0345
47542SOL    HW154350   7.297   2.277   5.518  0.4346 -0.9125  0.1335
47542SOL    HW254351   7.291   2.273   5.669  1.1253 -2.9366  0.1384
47543SOL     OW54352   8.249   6.708   5.845  0.3027  0.9283  0.0784
47543SOL    HW154353   8.227   6.730   5.755  1.1557  1.7240  0.0512
47543SOL    HW254354   8.336   6.669   5.840  0.3042  0.8645  0.5372
47544SOL     OW54355   6.918  11.165   7.629 -0.4702 -0.4412  0.0502
47544SOL    HW154356   7.009  11.190   7.615 -0.5685 -0.4097 -0.5927
47544SOL    HW254357   6.920  11.070   7.642 -0.5380 -0.7907 -2.1346
47545SOL     OW54358   4.380   6.094   3.202  0.5744  0.4783 -0.4106
47545SOL    HW154359   4.365   6.120   3.111  2.8050  1.0961 -0.6551
47545SOL    HW254360   4.316   6.145   3.252 -0.6184  0.1971 -1.5812
47546SOL     OW54361   7.226   3.581  11.846 -0.6430 -0.1825  0.0417
47546SOL    HW154362   7.215   3.626  11.930  1.1420  2.1198 -0.8513
47546SOL    HW254363   7.269   3.646  11.790  0.6478 -2.5182 -1.8489
47547SOL     OW54364   6.429   4.619  11.499  0.6023 -0.1576  0.5596
47547SOL    HW154365   6.465   4.668  11.573 -0.5959 -0.4414  1.3528
47547SOL    HW254366   6.498   4.623  11.432  0.1939  3.6508  0.0837
47548SOL     OW54367  11.428   3.658   9.954 -0.5265 -0.3129  0.5226
47548SOL    HW154368  11.334   3.669   9.939 -0.4705 -0.9470 -0.4146
47548SOL    HW254369  11.460   3.620   9.872  0.8130  1.3470  0.2249
47549SOL     OW54370  10.045   4.674   3.050 -0.3000  0.3393  0.0852
47549SOL    HW154371  10.105   4.615   3.094 -0.1440 -0.0830 -0.6795
47549SOL    HW254372  10.069   4.761   3.083 -0.1920  0.0393  0.8231
47550SOL     OW54373   9.546   0.320   7.119 -0.5537 -0.1984 -0.2014
47550SOL    HW154374   9.561   0.395   7.060  1.8885 -1.1749 -0.9692
47550SOL    HW254375   9.570   0.353   7.205  0.9818 -0.1631 -0.6071
47551SOL     OW54376   9.247  11.829   8.213 -0.6107  0.3946 -0.0358
47551SOL    HW154377   9.254  11.898   8.279 -0.7172  0.4579 -0.0911
47551SOL    HW254378   9.337  11.813   8.185 -0.6174  0.7231 -0.2416
47552SOL     OW54379  11.806   2.134   3.119 -0.0606  0.0659 -0.4271
47552SOL    HW154380  11.884   2.079   3.118 -0.8582 -1.1873  1.0654
47552SOL    HW254381  11.835   2.219   3.085  1.4520 -0.9407 -1.7780
47553SOL     OW54382   1.853   7.338   8.375  0.3563  0.7020  0.2630
47553SOL    HW154383   1.786   7.285   8.418 -0.5563  0.0166 -1.9021
47553SOL    HW254384   1.922   7.346   8.441  0.0537 -2.2508  1.1017
47554SOL     OW54385   0.207   4.208  11.368  0.1420 -0.0609  0.0109
47554SOL    HW154386   0.301   4.228  11.369 -0.1065  1.1702  0.0996
47554SOL    HW254387   0.170   4.271  11.305 -0.7288 -0.0103  0.5630
47555SOL     OW54388   6.633   0.432   9.912 -0.6191  0.1810  0.2537
47555SOL    HW154389   6.691   0.420   9.837 -0.9406  0.5042 -0.0591
47555SOL    HW254390   6.651   0.358   9.970 -1.9166 -1.3483 -1.1738
47556SOL     OW54391   0.004   2.236   7.278 -0.4005 -0.5498  0.1909
47556SOL    HW154392   0.015   2.144   7.304  1.3784 -0.1072  1.2159
47556SOL    HW254393   0.049   2.285   7.346  2.8840  0.8155 -2.6225
47557SOL     OW54394  10.603   2.523   4.920 -0.0432  1.3189 -0.3880
47557SOL    HW154395  10.642   2.468   4.852 -0.4674 -0.7162  0.9386
47557SOL    HW254396  10.631   2.483   5.002 -2.3177  1.6419  0.6183
47558SOL     OW54397   3.183  11.642   0.108  0.0240 -0.5876 -0.4349
47558SOL    HW154398   3.268  11.686   0.105  0.4536 -1.4443 -1.0457
47558SOL    HW254399   3.177  11.596   0.025 -0.1697 -2.1288  0.4010
47559SOL     OW54400   3.451   6.416   6.751 -0.0127  0.1542 -0.1899
47559SOL    HW154401   3.536   6.441   6.787 -1.0366 -0.4011  2.9905
47559SOL    HW254402   3.455   6.321   6.742  0.4338  0.3295 -2.3601
47560SOL     OW54403   0.149  10.276   9.411  0.0897 -0.0350  0.4071
47560SOL    HW154404   0.176  10.343   9.348  1.5344  1.2550  2.2781
47560SOL    HW254405   0.086  10.221   9.363 -0.8609  2.4045 -1.3313
47561SOL     OW54406   7.448   0.191   4.653 -0.4386  0.0950 -0.5296
47561SOL    HW154407   7.517   0.256   4.638  0.5611 -1.1441 -1.5312
47561SOL    HW254408   7.400   0.188   4.570 -0.9487  0.0676 -0.2383
47562SOL     OW54409   9.079   4.329   8.010  0.1373 -0.7569 -0.3486
47562SOL    HW154410   9.037   4.249   7.977 -0.5400  0.6271 -3.1175
47562SOL    HW254411   9.009   4.377   8.055  0.4247 -1.4139  0.8599
47563SOL     OW54412  10.156   9.750   8.497 -0.2461  0.2351  0.0951
47563SOL    HW154413  10.121   9.716   8.579  0.7644  0.1302  0.4964
47563SOL    HW254414  10.213   9.823   8.523 -0.4847  0.6712 -0.5697
47564SOL     OW54415   0.743   3.365   5.267  0.1848 -0.1795 -0.2322
47564SOL    HW154416   0.742   3.441   5.325  0.1490  0.6818 -1.3209
47564SOL    HW254417   0.785   3.397   5.187  0.6180 -1.4492 -0.5378
47565SOL     OW54418   4.424   6.152   2.533 -0.0623  0.0225 -0.2375
47565SOL    HW154419   4.366   6.228   2.522 -0.7274 -0.5638 -0.8157
47565SOL    HW254420   4.445   6.125   2.444  0.6059 -0.1643 -0.0316
47566SOL     OW54421   1.131   1.410  10.671  0.7111 -0.5609  0.1793
47566SOL    HW154422   1.105   1.498  10.699  1.8233 -0.1446 -0.0561
47566SOL    HW254423   1.227   1.409  10.678  0.7479 -1.6253 -0.2021
47567SOL     OW54424  10.925   7.312   7.835 -0.1850 -0.1283 -0.0775
47567SOL    HW154425  10.896   7.347   7.751 -1.0604 -0.8468 -0.0903
47567SOL    HW254426  10.963   7.227   7.813 -0.2060 -0.2168  0.2294
47568SOL     OW54427   3.753   0.855  11.227  1.0089  0.1051 -0.3419
47568SOL    HW154428   3.676   0.807  11.258 -1.2298  3.3903 -0.1919
47568SOL    HW254429   3.733   0.876  11.136  2.3047  0.0468 -0.6589
47569SOL     OW54430   4.852   4.537   7.077 -0.1013 -0.2129  0.3728
47569SOL    HW154431   4.852   4.595   7.153  1.2295  0.2696  0.0310
47569SOL    HW254432   4.944   4.531   7.050 -0.4533 -0.9174 -0.7866
47570SOL     OW54433   8.432   2.568   1.396 -0.5155 -0.1456  0.2469
47570SOL    HW154434   8.453   2.616   1.476 -1.0392  0.9668 -0.2659
47570SOL    HW254435   8.516   2.550   1.355 -0.3129  0.3026  0.4633
47571SOL     OW54436   8.475   8.529  10.667 -0.1151 -0.1201 -0.0776
47571SOL    HW154437   8.538   8.592  10.703  1.5398 -1.1098 -1.0685
47571SOL    HW254438   8.436   8.574  10.592 -1.0712  0.7250  0.9011
47572SOL     OW54439   3.287   7.186   3.531  0.2757 -0.1169  0.3806
47572SOL    HW154440   3.222   7.137   3.481  0.5231 -0.0399 -0.0209
47572SOL    HW254441   3.301   7.266   3.480  0.4517  0.0089  0.6257
47573SOL     OW54442   2.645  11.514   1.772  0.5281  0.7284  0.2350
47573SOL    HW154443   2.649  11.504   1.677  1.0368  1.9296  0.1046
47573SOL    HW254444   2.560  11.555   1.788 -0.1546 -0.7073  0.4529
47574SOL     OW54445   5.319  11.147   5.044  0.2670  0.3690  0.3911
47574SOL    HW154446   5.269  11.199   5.107 -1.1391  0.6415 -0.8771
47574SOL    HW254447   5.262  11.073   5.023  1.3078 -0.4764  0.4772
47575SOL     OW54448   0.563  10.053   9.797 -0.2060 -0.2183 -0.3974
47575SOL    HW154449   0.495  10.110   9.760  0.6024  0.9076 -0.2109
47575SOL    HW254450   0.557   9.972   9.747 -3.5916 -1.2932  1.4480
47576SOL     OW54451   5.020   9.075   9.637  0.4089 -0.1052 -0.1837
47576SOL    HW154452   5.102   9.114   9.666  1.2706 -0.4674 -1.9940
47576SOL    HW254453   4.954   9.109   9.697  1.3497  2.9226 -0.7352
47577SOL     OW54454   3.600   4.624   6.283 -0.3191  0.6149 -0.0417
47577SOL    HW154455   3.536   4.609   6.214 -0.5081 -1.3667  0.5059
47577SOL    HW254456   3.677   4.657   6.237 -0.4003 -0.7567 -1.2302
47578SOL     OW54457  10.593  11.499   9.967 -0.0144 -0.0498 -0.0862
47578SOL    HW154458  10.501  11.491   9.990 -0.1072  1.3141  0.1159
47578SOL    HW254459  10.640  11.481  10.049 -0.0694 -1.1394 -0.2825
47579SOL     OW54460  11.885   3.236   2.783  0.1039 -0.4373 -0.4272
47579SOL    HW154461  11.900   3.268   2.872 -4.6185  1.0025  0.1153
47579SOL    HW254462  11.854   3.146   2.795  0.2068 -0.5080 -0.6917
47580SOL     OW54463  11.074   0.491   9.020 -0.2476  0.5406 -0.4682
47580SOL    HW154464  11.088   0.551   8.947  1.3022 -0.5020 -1.0578
47580SOL    HW254465  11.082   0.547   9.098 -1.5711  1.5904 -1.0431
47581SOL     OW54466  10.742   0.806   1.816  0.1229  0.0469  0.7935
47581SOL    HW154467  10.822   0.754   1.823 -0.8373 -1.4293  1.2785
47581SOL    HW254468  10.682   0.751   1.766 -0.7358  0.9649  0.7734
47582SOL     OW54469   4.137   0.170   9.043 -0.6286  0.4572 -0.4577
47582SOL    HW154470   4.069   0.237   9.042 -2.5863 -1.4024  0.2038
47582SOL    HW254471   4.094   0.091   9.011  1.2778 -0.7791 -0.1872
47583SOL     OW54472   8.358   7.666   3.709  0.0084 -0.7285  0.5808
47583SOL    HW154473   8.300   7.674   3.785 -0.9747  1.5877 -0.3126
47583SOL    HW254474   8.446   7.662   3.747 -0.3849  1.4583  1.8818
47584SOL     OW54475   5.065   8.204   5.781  0.7187 -0.1063  0.3115
47584SOL    HW154476   4.977   8.173   5.799 -0.5442  2.0972 -1.5714
47584SOL    HW254477   5.109   8.130   5.740 -0.7100 -0.8080 -0.0009
47585SOL     OW54478   7.481   5.551   6.753 -1.0592  0.0161 -0.0461
47585SOL    HW154479   7.565   5.553   6.707 -1.7764 -2.4140 -1.5873
47585SOL    HW254480   7.503   5.578   6.843  1.2850 -0.1852 -0.5025
47586SOL     OW54481   6.614   4.129  11.323  0.0827 -0.4067  0.1106
47586SOL    HW154482   6.542   4.072  11.353 -0.6539 -0.2471 -1.2476
47586SOL    HW254483   6.676   4.069  11.283  0.3511 -0.4635  0.6012
47587SOL     OW54484  11.374   2.211   5.800 -0.5163  0.7077 -0.1131
47587SOL    HW154485  11.310   2.205   5.729  0.2871 -0.0636 -0.8025
47587SOL    HW254486  11.322   2.226   5.879 -1.5364  0.1530 -0.6635
47588SOL     OW54487   1.800   0.109  11.540  0.2894  0.1083 -0.3060
47588SOL    HW154488   1.848   0.027  11.538  0.5212  0.2516 -0.7495
47588SOL    HW254489   1.715   0.087  11.577  0.1128 -0.4568 -1.0374
47589SOL     OW54490   8.785  11.241   4.751 -0.5171 -0.6619 -0.0820
47589SOL    HW154491   8.752  11.243   4.841 -0.2827 -0.4543  0.0033
47589SOL    HW254492   8.714  11.277   4.698 -1.4131 -2.5695 -0.2450
47590SOL     OW54493   2.581   1.352   1.053 -0.0475  0.0378  0.0565
47590SOL    HW154494   2.627   1.273   1.080  0.4196  0.1625 -0.3519
47590SOL    HW254495   2.642   1.423   1.072  0.2040  0.1493 -1.0807
47591SOL     OW54496   5.439   9.382   9.911  0.2344  0.3539  0.4386
47591SOL    HW154497   5.437   9.350   9.821  0.9603  0.2397  0.4569
47591SOL    HW254498   5.517   9.342   9.949  0.3634  1.0110  0.8874
47592SOL     OW54499   4.196  11.421  10.472  0.2511  0.5999 -0.8350
47592SOL    HW154500   4.175  11.338  10.428 -2.8173 -0.0684  1.5472
47592SOL    HW254501   4.291  11.421  10.479  0.3818 -2.5488 -1.2694
47593SOL     OW54502   5.879   9.944   6.892  0.2349 -0.6085 -0.2691
47593SOL    HW154503   5.816   9.879   6.861 -0.7817  0.2286 -0.0119
47593SOL    HW254504   5.831   9.996   6.957  0.3580  1.6349 -1.8453
47594SOL     OW54505  11.473   2.980   4.798  0.2287  0.6220  0.5279
47594SOL    HW154506  11.482   2.887   4.776  1.7401  0.8430  0.1657
47594SOL    HW254507  11.510   2.987   4.886 -0.5620  0.7658  0.8568
47595SOL     OW54508   8.518   3.682   3.101 -0.7277 -0.3915 -0.2706
47595SOL    HW154509   8.583   3.665   3.170  1.1802  0.0100 -1.8676
47595SOL    HW254510   8.494   3.596   3.068  1.4939 -0.5164 -1.7903
47596SOL     OW54511   4.000   1.342   0.986  0.6030 -0.7956  0.4967
47596SOL    HW154512   4.044   1.388   0.914  0.8505 -2.0185 -0.1573
47596SOL    HW254513   4.062   1.348   1.059  1.4602 -1.6868 -0.1414
47597SOL     OW54514   8.377   3.959   1.555  0.1831 -0.1051  0.0379
47597SOL    HW154515   8.453   3.933   1.607  1.0816  0.3019 -1.0367
47597SOL    HW254516   8.364   3.887   1.493  0.9038  0.6895 -1.0550
47598SOL     OW54517   8.944   3.292   0.886  0.4672 -0.0450 -0.2738
47598SOL    HW154518   8.914   3.303   0.976 -0.7908  2.3332 -0.9038
47598SOL    HW254519   8.864   3.286   0.834  1.1659 -1.7323 -1.2527
47599SOL     OW54520   4.530   2.134   1.723  0.0216 -0.0604  0.0601
47599SOL    HW154521   4.440   2.113   1.696 -0.3806  0.9963  0.5468
47599SOL    HW254522   4.558   2.201   1.660  2.1006 -3.3673 -2.9126
47600SOL     OW54523  10.063   1.299   3.803 -0.3941  0.4341  0.2646
47600SOL    HW154524  10.010   1.332   3.876 -1.4785  1.1831 -0.8206
47600SOL    HW254525  10.021   1.336   3.725  1.2630  0.3778 -0.6863
47601SOL     OW54526  11.150  11.686   9.368  0.2898  0.3192  0.5493
47601SOL    HW154527  11.085  11.748   9.335  0.3653  0.5997  0.9181
47601SOL    HW254528  11.128  11.676   9.461 -0.0912 -0.6673  0.3715
47602SOL     OW54529   8.961   2.924  11.940 -0.2720 -0.4513 -0.4384
47602SOL    HW154530   8.963   2.991  12.008  0.6349 -0.0631 -0.8222
47602SOL    HW254531   8.932   2.970  11.861  0.6427 -0.4286 -0.7719
47603SOL     OW54532  11.677   4.606   6.568  0.3688 -0.1340  0.6197
47603SOL    HW154533  11.618   4.605   6.642 -0.1561  0.5461  0.2183
47603SOL    HW254534  11.630   4.654   6.500 -0.1645 -2.7198 -0.9965
47604SOL     OW54535   9.990   3.563   2.319 -0.9344  0.0360  0.9934
47604SOL    HW154536   9.899   3.534   2.319 -0.5259 -1.2902  0.8999
47604SOL    HW254537  10.041   3.483   2.312  0.2139  0.8613 -0.8696
47605SOL     OW54538   1.724  11.622  11.083 -0.2391  0.1352  1.0092
47605SOL    HW154539   1.645  11.664  11.118  1.2459  4.5586 -0.2923
47605SOL    HW254540   1.779  11.606  11.160 -0.1355  2.5513  1.5163
47606SOL     OW54541  11.385   0.020  10.114 -0.2667  0.5321  0.1985
47606SOL    HW154542  11.434   0.095  10.149  0.1809 -0.1872  1.1613
47606SOL    HW254543  11.453  -0.041  10.085 -0.6011 -0.0610  0.6488
47607SOL     OW54544   1.518   4.317   2.916 -0.2253 -0.4017 -0.2868
47607SOL    HW154545   1.496   4.226   2.897  1.9004 -0.8613 -0.6828
47607SOL    HW254546   1.574   4.313   2.994  2.0348  0.2770 -1.7819
47608SOL     OW54547   5.867   6.045   7.370 -0.3070  0.4774 -0.0112
47608SOL    HW154548   5.903   5.998   7.445 -0.4020  0.1656 -0.1607
47608SOL    HW254549   5.902   6.134   7.379  1.0645  0.0225 -0.5181
47609SOL     OW54550  10.294   0.331   6.872  0.2334  0.1276  0.0781
47609SOL    HW154551  10.227   0.336   6.804  0.1279  1.6434  0.2590
47609SOL    HW254552  10.246   0.344   6.954  0.7676  1.7323  0.1784
47610SOL     OW54553   1.724   3.007   3.632  0.0312  0.5222 -0.3136
47610SOL    HW154554   1.759   2.932   3.584  0.3727  1.9224 -2.3846
47610SOL    HW254555   1.629   2.995   3.629  0.0582  0.4685 -1.1736
47611SOL     OW54556   6.216   0.067   3.317  0.6178  0.3973 -0.2316
47611SOL    HW154557   6.201  -0.023   3.287  0.0463  0.7705 -1.0709
47611SOL    HW254558   6.305   0.087   3.289  1.4058 -0.4884  1.4619
47612SOL     OW54559   0.833   8.127   3.806  0.2265 -0.2102  0.0586
47612SOL    HW154560   0.750   8.166   3.780  0.8107  0.7415 -0.4206
47612SOL    HW254561   0.808   8.049   3.856 -0.9653 -1.2780 -2.0553
47613SOL     OW54562   3.833   6.938   3.580  0.1409  0.0822 -0.4976
47613SOL    HW154563   3.841   7.026   3.542  0.1611 -0.1978 -1.1534
47613SOL    HW254564   3.800   6.954   3.669 -1.4676  0.6906 -1.1510
47614SOL     OW54565   6.919   0.632  11.860  0.0489 -0.0793 -0.4947
47614SOL    HW154566   6.931   0.662  11.950  1.1393  0.5899 -0.8490
47614SOL    HW254567   6.986   0.564  11.849  1.6995  1.6200 -1.5684
47615SOL     OW54568   1.389   1.274   3.352 -0.0519  0.3255 -0.5228
47615SOL    HW154569   1.361   1.234   3.434  0.6433 -0.9354 -0.8707
47615SOL    HW254570   1.485   1.271   3.355 -0.0014  1.3025 -0.8906
47616SOL     OW54571   0.573   1.950  10.840  0.1926 -0.3308  0.8706
47616SOL    HW154572   0.624   2.026  10.868  0.3671 -0.4955  1.0065
47616SOL    HW254573   0.485   1.966  10.873  0.5481 -0.8532  2.1562
47617SOL     OW54574   4.590   0.093   2.996  0.2638  0.1504  0.2749
47617SOL    HW154575   4.501   0.072   3.024  0.0953  0.6614  0.1235
47617SOL    HW254576   4.640   0.098   3.078  0.0218  0.4745  0.4056
47618SOL     OW54577   6.261   7.274   6.510 -0.0374  0.0427  0.1470
47618SOL    HW154578   6.219   7.358   6.492 -0.7381 -0.2664  0.2853
47618SOL    HW254579   6.221   7.244   6.592  0.4313 -0.2792  0.2658
47619SOL     OW54580   9.807  10.876  11.955  0.5610 -0.2942 -0.2013
47619SOL    HW154581   9.887  10.924  11.975  0.0306  0.0683  1.1183
47619SOL    HW254582   9.808  10.867  11.859  1.9635  0.0513 -0.2419
47620SOL     OW54583   6.505   8.036   7.211 -0.0244 -0.5041 -0.1747
47620SOL    HW154584   6.481   8.128   7.204 -0.5239 -0.7036 -1.5882
47620SOL    HW254585   6.429   7.994   7.252  0.6378 -0.1422  1.4664
47621SOL     OW54586   2.970   9.900  10.696  0.3363  0.6323  0.1401
47621SOL    HW154587   2.928   9.816  10.712 -1.4722  1.2503 -1.0320
47621SOL    HW254588   3.020   9.887  10.615 -0.6238  0.8907 -0.5066
47622SOL     OW54589   3.340   4.645  10.285  0.3355 -0.0235 -1.1436
47622SOL    HW154590   3.363   4.685  10.369  0.0625 -0.9030 -0.6225
47622SOL    HW254591   3.408   4.673  10.225 -0.1527  1.6562 -0.9565
47623SOL     OW54592   0.714  10.215  10.517  0.0883  0.2694 -0.1195
47623SOL    HW154593   0.641  10.196  10.458 -1.8025  0.1620  2.1171
47623SOL    HW254594   0.698  10.304  10.547  0.1442 -0.1730  1.3086
47624SOL     OW54595  10.999   1.455   0.845  0.5508 -0.1417  0.3047
47624SOL    HW154596  11.005   1.374   0.794  2.1514 -0.0220  0.2612
47624SOL    HW254597  11.083   1.498   0.832  0.2673  0.8372  1.5143
47625SOL     OW54598   8.042   5.949   3.721 -0.1098 -0.5244  0.0107
47625SOL    HW154599   8.045   5.911   3.633  2.5479  0.8934 -0.6160
47625SOL    HW254600   7.990   6.028   3.712 -0.7608 -0.9483 -0.0132
47626SOL     OW54601   5.533  11.058   4.426 -0.0505 -0.0343 -0.0150
47626SOL    HW154602   5.445  11.060   4.464 -1.1656 -0.5173 -2.4274
47626SOL    HW254603   5.569  10.974   4.455 -1.0732 -0.6246 -0.4138
47627SOL     OW54604   8.865   2.990   9.119  0.1908  0.9036  0.1258
47627SOL    HW154605   8.870   2.946   9.034 -2.5021  0.5762  0.0634
47627SOL    HW254606   8.884   2.920   9.182 -2.4693 -0.0931 -0.0524
47628SOL     OW54607   6.040   6.178   8.974 -0.0635  0.0082 -0.7033
47628SOL    HW154608   6.131   6.207   8.983  0.0141  0.0490 -1.5823
47628SOL    HW254609   5.999   6.244   8.919 -0.6684  0.0570 -0.2085
47629SOL     OW54610   6.081   4.346  11.949  0.4214  0.8206 -0.0718
47629SOL    HW154611   6.148   4.402  11.989 -0.8701  0.5351  2.7998
47629SOL    HW254612   6.112   4.256  11.965 -0.8388  0.6677  1.8878
47630SOL     OW54613   1.729   6.617  11.446  0.6860 -0.0278 -0.3274
47630SOL    HW154614   1.655   6.570  11.408 -0.4066 -1.1557  2.9260
47630SOL    HW254615   1.803   6.557  11.434  0.2497 -0.5967 -0.2383
47631SOL     OW54616   2.371   3.378   9.299 -0.0679 -0.2191 -0.0632
47631SOL    HW154617   2.286   3.378   9.344 -0.5369  0.0198 -0.9251
47631SOL    HW254618   2.349   3.381   9.206  0.8898 -0.4735 -0.3100
47632SOL     OW54619   9.352   4.663   8.555  0.5315  0.3679  0.8040
47632SOL    HW154620   9.395   4.696   8.634  0.0597 -0.5680  1.4660
47632SOL    HW254621   9.263   4.698   8.560  0.9369  1.5919 -0.1262
47633SOL     OW54622   7.624  10.357  10.957  0.7230  0.1545 -0.6412
47633SOL    HW154623   7.663  10.275  10.987 -0.7408 -0.4026 -0.1604
47633SOL    HW254624   7.530  10.339  10.951  0.4128  1.6714 -0.9400
47634SOL     OW54625   1.130   5.480   1.622 -0.0301 -0.3613  0.2928
47634SOL    HW154626   1.174   5.400   1.649  0.8816 -0.7932 -2.1843
47634SOL    HW254627   1.079   5.455   1.545  0.8855  1.5336 -1.0108
47635SOL     OW54628   3.528   7.047   4.464 -0.1045  0.2168  0.4772
47635SOL    HW154629   3.586   7.037   4.540 -0.4312  0.3934  0.7500
47635SOL    HW254630   3.568   7.116   4.411  2.0900 -2.2259 -1.3283
47636SOL     OW54631   1.269   8.071   9.620 -0.1083  0.0390  0.0142
47636SOL    HW154632   1.344   8.012   9.613  0.6400  1.1137 -1.7625
47636SOL    HW254633   1.195   8.014   9.638  0.8875 -1.2190  0.2339
47637SOL     OW54634  10.749  11.349   7.030 -0.1359 -0.4462 -0.5759
47637SOL    HW154635  10.828  11.325   6.980  0.1547 -1.2355  0.2347
47637SOL    HW254636  10.756  11.298   7.110 -0.4744  0.9875  0.3990
47638SOL     OW54637   6.696   8.542   3.654  0.6250  0.7610  0.5034
47638SOL    HW154638   6.720   8.595   3.578  0.3680  0.2829  0.0815
47638SOL    HW254639   6.600   8.548   3.657  0.4248 -1.1639 -0.6660
47639SOL     OW54640   9.773   1.176   6.790  0.2880  0.3923 -0.6248
47639SOL    HW154641   9.713   1.248   6.773 -0.2980 -0.1941 -1.0739
47639SOL    HW254642   9.767   1.120   6.713  1.0573  0.0772 -0.4696
47640SOL     OW54643   1.937   1.647   0.780  0.0919  0.1548 -0.4614
47640SOL    HW154644   2.025   1.625   0.750  1.2523  3.1315  0.3543
47640SOL    HW254645   1.932   1.742   0.770 -3.0232  0.0968 -0.3559
47641SOL     OW54646   0.045  11.715  11.617 -0.0681 -0.0225 -0.4200
47641SOL    HW154647   0.109  11.773  11.577  1.0798  0.2092  1.5883
47641SOL    HW254648  -0.034  11.768  11.624  0.7157  1.0672  0.6241
47642SOL     OW54649   5.554   6.763   4.658  0.0481  0.6325  0.3425
47642SOL    HW154650   5.523   6.739   4.571  1.0350 -2.0323  0.6236
47642SOL    HW254651   5.475   6.782   4.708 -0.8528 -1.5622 -0.1564
47643SOL     OW54652   1.979   3.682   3.576 -0.1989 -0.3057  0.1756
47643SOL    HW154653   2.070   3.655   3.593  0.7041  1.0240 -2.1875
47643SOL    HW254654   1.976   3.774   3.602 -0.8824 -0.3354  0.2135
47644SOL     OW54655  11.068   3.216   2.152 -0.4564  0.0897 -0.0976
47644SOL    HW154656  11.007   3.269   2.100 -0.0937  0.3944 -0.2108
47644SOL    HW254657  11.114   3.162   2.088  0.4945  0.9723 -0.1670
47645SOL     OW54658   4.026  11.471   1.516  0.3012  0.8335 -0.2041
47645SOL    HW154659   4.038  11.386   1.473 -0.0980  1.1847 -1.0368
47645SOL    HW254660   3.973  11.451   1.593 -2.3465  0.6631 -1.9364
47646SOL     OW54661  11.479   5.958   0.863  0.1265 -0.9057  0.1001
47646SOL    HW154662  11.542   5.906   0.813  1.4268 -0.1818  0.9258
47646SOL    HW254663  11.470   6.039   0.813  0.2740 -0.7890  0.2616
47647SOL     OW54664   2.380   3.149   1.071  0.1736  0.0324 -0.4139
47647SOL    HW154665   2.449   3.172   1.009  2.3514 -0.6039  1.6431
47647SOL    HW254666   2.348   3.233   1.103  0.5681  0.3219 -0.7698
47648SOL     OW54667   2.778  11.500   1.048 -0.4984 -0.3424 -0.7525
47648SOL    HW154668   2.739  11.479   1.133 -0.9902 -0.7698 -1.0769
47648SOL    HW254669   2.808  11.416   1.014 -0.7123 -0.2380 -1.2047
47649SOL     OW54670   1.000   9.697   1.155 -0.1036 -0.8998 -0.0842
47649SOL    HW154671   0.908   9.673   1.153 -0.4635  0.3824  0.2029
47649SOL    HW254672   1.007   9.771   1.094  0.9560 -1.6707 -0.9458
47650SOL     OW54673   2.004  11.086   9.685 -0.1914 -0.1364  0.5544
47650SOL    HW154674   2.076  11.069   9.625 -1.2459 -0.4980 -0.6640
47650SOL    HW254675   2.036  11.155   9.743  0.9366  0.0766 -0.2947
47651SOL     OW54676   5.433   0.855   1.503  0.6136 -0.2922  0.0568
47651SOL    HW154677   5.395   0.941   1.482 -0.9691 -0.9029  0.3139
47651SOL    HW254678   5.456   0.818   1.418  2.3983  0.8240 -0.0046
47652SOL     OW54679  11.800   9.251   7.966  0.4163  0.2379  0.0489
47652SOL    HW154680  11.789   9.292   7.880 -0.2477 -0.7541 -0.3655
47652SOL    HW254681  11.720   9.273   8.014 -0.1828 -0.9416 -0.3590
47653SOL     OW54682  10.680   4.389   6.652  0.7007  0.0753  0.1562
47653SOL    HW154683  10.765   4.348   6.639  1.3706  1.5088 -0.0586
47653SOL    HW254684  10.675   4.457   6.586 -0.6438 -0.0059  0.1403
47654SOL     OW54685   0.922   8.668   7.617  0.1069 -0.0611 -0.2870
47654SOL    HW154686   0.858   8.686   7.548  0.2375  0.7143 -0.2196
47654SOL    HW254687   1.005   8.698   7.581  0.0603  1.0516  0.4679
47655SOL     OW54688   9.515   2.432   8.041 -0.5273  0.3303  0.6250
47655SOL    HW154689   9.454   2.461   7.973 -1.4640  1.5592  1.9412
47655SOL    HW254690   9.489   2.342   8.058 -1.2313  0.4712  0.3587
47656SOL     OW54691   7.824  11.905   9.765 -0.2591  0.0843  0.2369
47656SOL    HW154692   7.876  11.908   9.685  0.5023  0.5183  0.7327
47656SOL    HW254693   7.853  11.982   9.815 -0.0256 -0.7035  1.3572
47657SOL     OW54694   1.681   2.787   1.329  0.8324 -0.4284  0.3359
47657SOL    HW154695   1.616   2.721   1.354  0.3051 -0.0893 -0.1109
47657SOL    HW254696   1.634   2.870   1.335  1.2580 -0.1693  0.1000
47658SOL     OW54697   2.146   0.206  10.760  0.0378 -0.6916 -0.1944
47658SOL    HW154698   2.080   0.239  10.821 -0.2379 -1.1735 -0.2197
47658SOL    HW254699   2.214   0.169  10.816  0.9254  0.9491 -0.1374
47659SOL     OW54700   6.053   5.953   9.876  0.0426  0.4731 -0.0408
47659SOL    HW154701   6.070   6.043   9.850  0.8540  0.0959 -0.8584
47659SOL    HW254702   5.963   5.954   9.907 -0.3449  1.3378 -1.1243
47660SOL     OW54703   5.217   2.143   5.247 -0.3560 -0.3089  0.4514
47660SOL    HW154704   5.202   2.052   5.222 -0.9005 -0.0192 -0.2872
47660SOL    HW254705   5.136   2.188   5.225 -0.1979  0.3012  1.0969
47661SOL     OW54706   1.628  11.675   9.163 -0.3872 -0.3347  0.1592
47661SOL    HW154707   1.607  11.597   9.111  0.6875 -0.0511 -0.7223
47661SOL    HW254708   1.717  11.697   9.139 -0.5856  1.0392  0.5876
47662SOL     OW54709   4.356   6.408  10.183 -0.0649 -0.0337 -0.2338
47662SOL    HW154710   4.429   6.363  10.226 -0.0727  0.9620  0.8828
47662SOL    HW254711   4.284   6.400  10.245 -0.5152  0.1391 -0.7310
47663SOL     OW54712   3.086   2.293   3.164 -0.2220  0.1607  0.1377
47663SOL    HW154713   3.103   2.226   3.098  2.1564  1.1294 -0.3339
47663SOL    HW254714   3.163   2.291   3.220 -0.6479  1.7011  0.8266
47664SOL     OW54715   2.965   4.781   9.497 -0.1922 -0.0338  0.5163
47664SOL    HW154716   2.943   4.700   9.451  0.3575 -0.2375  0.6071
47664SOL    HW254717   2.943   4.764   9.589 -2.4622  0.7937  0.1928
47665SOL     OW54718   9.171   2.947  11.291  0.1464 -0.1827  0.2440
47665SOL    HW154719   9.129   3.004  11.227 -3.2271 -1.3939  1.1739
47665SOL    HW254720   9.231   3.004  11.338 -1.4791  2.1066 -0.2725
47666SOL     OW54721   7.813   5.762  11.267  0.6421 -0.3791  0.0393
47666SOL    HW154722   7.833   5.680  11.222  3.4983  0.3290 -0.1634
47666SOL    HW254723   7.865   5.759  11.347  0.2569  0.9449  0.3692
47667SOL     OW54724   7.513   9.867   9.333 -0.3613  0.0766 -0.3773
47667SOL    HW154725   7.470   9.950   9.310  1.5742  0.9946 -0.8354
47667SOL    HW254726   7.459   9.831   9.403 -1.9873  1.0657 -1.0553
47668SOL     OW54727   6.634  11.770   4.854 -0.2150  1.1404 -0.3215
47668SOL    HW154728   6.600  11.804   4.771 -1.9136  0.6972  0.1589
47668SOL    HW254729   6.672  11.847   4.897  0.3175  1.4492 -1.3053
47669SOL     OW54730   5.287  11.458   5.644 -0.2353 -0.2194 -0.3095
47669SOL    HW154731   5.302  11.371   5.607 -0.0774 -0.5782  0.5716
47669SOL    HW254732   5.192  11.464   5.654 -0.2343 -0.3575 -0.2162
47670SOL     OW54733   6.454   1.981   1.613 -0.3456  0.2423 -0.0819
47670SOL    HW154734   6.401   2.033   1.673 -0.1787 -1.5463  1.6989
47670SOL    HW254735   6.415   1.894   1.616  0.3095 -0.1527 -1.8113
47671SOL     OW54736   2.473   0.088   1.984  0.4705 -0.7454  0.2059
47671SOL    HW154737   2.485   0.168   2.035  1.0218 -0.8548  0.2569
47671SOL    HW254738   2.379   0.069   1.990  0.3031 -0.0106  0.0488
47672SOL     OW54739   3.971   1.383   4.335 -0.2989 -0.3340 -0.3360
47672SOL    HW154740   3.950   1.433   4.256 -0.8686  1.0025  0.6208
47672SOL    HW254741   3.888   1.342   4.359 -1.2805  2.5474  1.7749
47673SOL     OW54742   8.701   1.534   0.843  0.1388 -0.3721  0.2979
47673SOL    HW154743   8.729   1.445   0.862  0.2904 -0.2920  0.4540
47673SOL    HW254744   8.614   1.525   0.804 -0.0956 -0.5456  0.8524
47674SOL     OW54745   3.146   6.015   8.858 -0.3716  0.5435 -0.5774
47674SOL    HW154746   3.229   5.996   8.814 -0.8683 -0.0823 -1.2821
47674SOL    HW254747   3.121   6.102   8.826 -0.5079  0.2793 -1.2096
47675SOL     OW54748   5.789   0.727   4.563 -0.1154 -1.1418 -0.2159
47675SOL    HW154749   5.734   0.803   4.542  0.7498  0.0497  1.5244
47675SOL    HW254750   5.758   0.700   4.650 -1.5393 -3.9034 -1.4738
47676SOL     OW54751   7.620   0.138   6.200  0.4231 -0.2065 -0.3068
47676SOL    HW154752   7.533   0.096   6.203  0.7079 -0.8455 -0.7645
47676SOL    HW254753   7.602   0.231   6.213 -0.2094 -0.4834  0.8915
47677SOL     OW54754   1.941   8.236   8.616  0.2497 -0.1807  0.9481
47677SOL    HW154755   1.850   8.208   8.612  1.1536 -3.3184 -1.1252
47677SOL    HW254756   1.983   8.173   8.674  1.6887 -1.0255 -0.8928
47678SOL     OW54757   5.327   7.639   8.222  0.0620 -0.6090  0.0257
47678SOL    HW154758   5.422   7.630   8.234  0.2222 -0.1207 -0.7782
47678SOL    HW254759   5.313   7.733   8.212 -0.3185 -0.7818 -1.2406
47679SOL     OW54760  10.089   6.886  10.922  0.6110 -0.2953  0.6794
47679SOL    HW154761  10.174   6.866  10.963  1.3499  2.4248  0.6706
47679SOL    HW254762  10.111   6.908  10.832 -0.5659 -2.5410 -0.2334
47680SOL     OW54763   6.330  11.456   0.579  0.0429 -0.0908 -0.5546
47680SOL    HW154764   6.350  11.376   0.627  1.6779  0.1887 -0.6913
47680SOL    HW254765   6.236  11.452   0.563  0.0335 -1.8129 -0.2607
47681SOL     OW54766   5.562   7.462   5.201  0.3186  0.2979  0.0593
47681SOL    HW154767   5.613   7.505   5.269  0.1297  2.3670 -0.9891
47681SOL    HW254768   5.598   7.497   5.119 -2.0161  1.0163 -0.7463
47682SOL     OW54769   2.461  11.358   3.104 -0.4413  0.0612  0.0298
47682SOL    HW154770   2.549  11.381   3.135 -0.4330 -0.1410  0.1533
47682SOL    HW254771   2.476  11.307   3.025 -0.4516  0.1594 -0.0357
47683SOL     OW54772   6.580   8.634   8.147 -0.0988 -0.3493 -0.1434
47683SOL    HW154773   6.609   8.723   8.166  0.1769 -0.5565  0.4384
47683SOL    HW254774   6.638   8.604   8.077  0.8920 -0.6369  0.7691
47684SOL     OW54775   5.871   9.231   8.833  0.1807 -0.5405  0.0053
47684SOL    HW154776   5.808   9.299   8.808  0.4049 -0.6170 -0.7833
47684SOL    HW254777   5.847   9.155   8.780  2.4495  0.1752 -2.2411
47685SOL     OW54778   4.192   2.676   4.389 -0.0281 -0.7919 -0.1780
47685SOL    HW154779   4.153   2.692   4.303 -3.0698  0.7607  1.3265
47685SOL    HW254780   4.230   2.760   4.414 -1.9885 -0.2629  1.2301
47686SOL     OW54781   9.630   0.329   3.336  0.5589 -0.6646  0.2083
47686SOL    HW154782   9.619   0.300   3.426 -0.2357  0.5784  0.5336
47686SOL    HW254783   9.717   0.369   3.334 -0.3213  1.4435  1.0774
47687SOL     OW54784  11.013   8.347  11.079  0.0998 -0.1178 -0.0917
47687SOL    HW154785  10.923   8.378  11.076  0.5799  1.6357  1.7777
47687SOL    HW254786  11.066   8.426  11.067  1.4084 -1.0713 -0.8802
47688SOL     OW54787   1.966   3.136   8.091 -0.4254  0.7688 -0.2662
47688SOL    HW154788   1.906   3.190   8.142 -0.4677 -0.4496  1.0466
47688SOL    HW254789   1.931   3.047   8.100  0.1607  0.3823 -1.5915
47689SOL     OW54790   5.384   5.040   2.267  0.1246  0.2806  0.3036
47689SOL    HW154791   5.350   4.978   2.331  0.0857  1.0430  1.0355
47689SOL    HW254792   5.410   5.116   2.318 -1.5272  1.6150 -0.7295
47690SOL     OW54793   1.803   5.961   5.490 -0.4691  0.5092  0.1763
47690SOL    HW154794   1.859   6.038   5.496  1.6382 -0.7773 -1.7689
47690SOL    HW254795   1.731   5.988   5.433 -0.4498  1.3779  0.5436
47691SOL     OW54796   8.890   5.464   3.512  0.1852 -0.0812 -0.5040
47691SOL    HW154797   8.818   5.480   3.573  0.4952  0.5600 -0.3001
47691SOL    HW254798   8.853   5.403   3.448  0.9043 -3.8266  2.2861
47692SOL     OW54799   7.594   0.713   7.331 -0.3826 -0.1197 -0.7236
47692SOL    HW154800   7.552   0.656   7.266 -0.3267 -0.6482 -0.3074
47692SOL    HW254801   7.688   0.699   7.317 -0.3605  0.2745 -0.9707
47693SOL     OW54802   1.193   7.727   2.755 -0.0260  0.1855  0.1385
47693SOL    HW154803   1.117   7.777   2.724  0.0245  0.1060 -0.1092
47693SOL    HW254804   1.155   7.665   2.819 -0.0558  0.6931  0.6220
47694SOL     OW54805   6.661   6.299   8.905 -0.1376  0.0571 -0.5088
47694SOL    HW154806   6.630   6.246   8.978 -1.6327 -0.9071 -1.7754
47694SOL    HW254807   6.722   6.361   8.944  0.7238 -1.7882  1.2200
47695SOL     OW54808   1.431   8.277   4.654 -0.1042  0.0211  0.1385
47695SOL    HW154809   1.345   8.303   4.686 -0.1688  0.9612 -0.7690
47695SOL    HW254810   1.441   8.320   4.569  0.1078 -2.3107 -1.1272
47696SOL     OW54811   9.085   2.985  10.704 -0.4339 -0.4251 -0.1472
47696SOL    HW154812   9.029   3.060  10.683  1.8620  1.1616 -0.9957
47696SOL    HW254813   9.156   2.989  10.640  0.9965 -1.9763  1.2477
47697SOL     OW54814   9.812  10.314  11.775  0.3178 -0.4721 -0.4841
47697SOL    HW154815   9.787  10.404  11.754  2.9805  0.3545 -0.5340
47697SOL    HW254816   9.853  10.281  11.695  0.3210 -1.3509 -0.1290
47698SOL     OW54817   0.623   2.544   3.645 -0.3441 -0.1079 -0.0985
47698SOL    HW154818   0.626   2.554   3.549 -0.6459  1.0693 -0.0088
47698SOL    HW254819   0.581   2.625   3.675 -2.6871 -1.5826  0.8443
47699SOL     OW54820   3.946   9.350   8.716 -0.0986 -0.4786  0.4656
47699SOL    HW154821   3.914   9.285   8.653  1.0631 -1.0542  0.4418
47699SOL    HW254822   3.869   9.404   8.736 -0.4301 -0.0797 -1.6571
47700SOL     OW54823   6.236   2.326   9.379 -0.2208  0.3851 -0.0736
47700SOL    HW154824   6.222   2.259   9.446 -0.0272 -0.0374 -0.4549
47700SOL    HW254825   6.159   2.383   9.386 -1.9209 -1.5264 -1.6958
47701SOL     OW54826   2.713   7.212   6.844 -0.7608 -0.2836 -0.1074
47701SOL    HW154827   2.795   7.250   6.874 -0.5798 -1.3272  0.7762
47701SOL    HW254828   2.671   7.179   6.923 -1.8170 -0.1893 -0.6062
47702SOL     OW54829   4.571   7.730   5.905 -0.5996  0.2125  0.2589
47702SOL    HW154830   4.666   7.737   5.908 -0.1449 -2.7020 -2.2945
47702SOL    HW254831   4.543   7.743   5.996  2.5847 -2.3192  1.8144
47703SOL     OW54832   6.632   6.038   1.102  0.1273 -0.3463 -0.7348
47703SOL    HW154833   6.638   5.945   1.077  0.8449 -0.4795 -0.1005
47703SOL    HW254834   6.722   6.065   1.116 -0.0994  0.3872 -0.6659
47704SOL     OW54835   5.288   9.492   3.174 -0.0503 -0.5416  0.1861
47704SOL    HW154836   5.281   9.410   3.223 -0.3003 -2.3572 -2.6535
47704SOL    HW254837   5.273   9.467   3.083 -1.3836  2.8761 -0.7026
47705SOL     OW54838   3.882  10.942   9.543 -0.0800  0.3492 -0.2952
47705SOL    HW154839   3.860  10.851   9.520  1.9970 -0.1867 -0.3834
47705SOL    HW254840   3.872  10.946   9.638  1.1254 -0.3922 -0.1166
47706SOL     OW54841   4.048   8.825   2.844 -0.0373  0.0859 -0.1128
47706SOL    HW154842   4.023   8.893   2.781 -0.6745 -1.1621 -1.2413
47706SOL    HW254843   4.144   8.824   2.841 -0.0154  1.0083  0.0070
47707SOL     OW54844   1.726   3.291   4.525 -0.0166  0.9151  0.2521
47707SOL    HW154845   1.814   3.255   4.537 -0.1232  0.4275 -0.3460
47707SOL    HW254846   1.673   3.246   4.591  0.1702  1.1683  0.5763
47708SOL     OW54847  11.269   3.471  10.258  0.8361  0.4217 -0.0367
47708SOL    HW154848  11.297   3.381  10.246 -0.0053  0.1772 -0.2273
47708SOL    HW254849  11.248   3.479  10.351 -0.3140  0.0532 -0.2548
47709SOL     OW54850   6.913   9.517   4.277 -0.7823  0.2614 -0.2752
47709SOL    HW154851   6.929   9.423   4.281  1.8300  0.6647  0.1183
47709SOL    HW254852   6.854   9.535   4.350 -0.1363 -0.8801  0.5471
47710SOL     OW54853   1.036   5.604   6.948 -0.9074 -0.5163 -0.2848
47710SOL    HW154854   1.099   5.551   6.901  0.1364  0.6752 -0.2955
47710SOL    HW254855   0.951   5.578   6.913 -0.2871 -0.8778 -1.5884
47711SOL     OW54856  10.563   5.482   4.687  0.7180  0.2598  0.6699
47711SOL    HW154857  10.637   5.449   4.636  0.1788 -0.8568  0.5597
47711SOL    HW254858  10.490   5.426   4.660 -1.2172  3.7133 -2.1944
47712SOL     OW54859   0.007   4.198   3.288  0.2959  0.0602 -0.0894
47712SOL    HW154860   0.092   4.161   3.311  0.0848 -0.6945 -0.4855
47712SOL    HW254861  -0.020   4.149   3.211 -1.4634 -1.1989  1.2500
47713SOL     OW54862  10.897   9.880   5.701  0.3168 -0.1819 -0.3794
47713SOL    HW154863  10.916   9.792   5.670 -2.6337 -1.0245 -0.1303
47713SOL    HW254864  10.832   9.914   5.639  1.8738  2.1177 -0.8496
47714SOL     OW54865   4.994   8.476   9.298 -0.1395 -0.2520 -0.4853
47714SOL    HW154866   5.032   8.539   9.238  0.4108 -1.5825 -1.5912
47714SOL    HW254867   5.005   8.391   9.255 -0.1108 -1.2173  1.3031
47715SOL     OW54868  11.153   9.527   8.525 -0.4496 -0.4549  1.0518
47715SOL    HW154869  11.245   9.552   8.534 -0.6223  0.1818  1.1541
47715SOL    HW254870  11.152   9.432   8.537  0.2945 -0.5822  0.2036
47716SOL     OW54871  11.492   8.657   6.367  0.0665 -0.5700 -0.6098
47716SOL    HW154872  11.491   8.643   6.461 -0.8823 -0.4837 -0.6041
47716SOL    HW254873  11.404   8.688   6.345  1.4431  3.9335 -0.8247
47717SOL     OW54874   0.285   0.728   4.811 -0.1329 -0.4022  0.5853
47717SOL    HW154875   0.306   0.676   4.888  1.3081 -0.6383  0.0686
47717SOL    HW254876   0.349   0.800   4.812 -1.2133  0.5849  0.5409
47718SOL     OW54877   5.028   4.931   3.580  0.2229 -0.0395 -0.0029
47718SOL    HW154878   5.001   5.014   3.542  1.5296 -0.0339 -0.9557
47718SOL    HW254879   5.116   4.916   3.547 -0.6843 -2.7792 -1.5037
47719SOL     OW54880   2.883   1.943   9.198  0.1900  0.1615 -0.1301
47719SOL    HW154881   2.849   1.941   9.109  0.5792  0.8708 -0.3043
47719SOL    HW254882   2.978   1.951   9.187  0.3350 -0.7859  0.3478
47720SOL     OW54883   3.265   2.752   4.855 -0.7075  0.0242  0.1006
47720SOL    HW154884   3.172   2.728   4.858 -0.6326 -0.2132  1.7166
47720SOL    HW254885   3.292   2.732   4.766 -2.1303 -0.1891 -0.3182
47721SOL     OW54886   1.421   1.173   7.906  0.2874  0.3018  0.6052
47721SOL    HW154887   1.326   1.180   7.910  0.3004  1.2420 -0.2796
47721SOL    HW254888   1.444   1.204   7.818  1.3487 -0.7555  0.4713
47722SOL     OW54889   9.587   4.511   6.264 -0.0883  0.0173 -0.1603
47722SOL    HW154890   9.572   4.583   6.325  0.6345  1.0961 -1.2109
47722SOL    HW254891   9.537   4.536   6.186  0.2506 -0.5842 -0.5732
47723SOL     OW54892   2.165   0.322   0.843  0.1481  0.2023 -0.0849
47723SOL    HW154893   2.212   0.336   0.925  0.0382 -2.7904  0.6152
47723SOL    HW254894   2.090   0.267   0.868  1.2318 -2.6009 -2.3586
47724SOL     OW54895   4.461   1.411   7.154 -0.2439 -0.0884  0.0787
47724SOL    HW154896   4.496   1.499   7.170  2.7175 -1.2196  0.4945
47724SOL    HW254897   4.430   1.414   7.063 -0.2092  1.3790  0.0920
47725SOL     OW54898   7.682   0.150   3.385  0.1906 -0.3542  0.1901
47725SOL    HW154899   7.719   0.093   3.318 -0.6320 -1.1681  0.4135
47725SOL    HW254900   7.644   0.090   3.449 -1.1008  0.4538  0.1993
47726SOL     OW54901   0.636   2.622  10.550  0.2840  0.3205  0.4134
47726SOL    HW154902   0.672   2.633  10.637  0.2990 -0.2164  0.4793
47726SOL    HW254903   0.592   2.537  10.552  2.1372 -0.7626 -0.7059
47727SOL     OW54904   4.781   6.415  10.923 -0.1406 -0.3524  0.5863
47727SOL    HW154905   4.712   6.357  10.956 -0.3394 -1.8582 -2.1925
47727SOL    HW254906   4.784   6.398  10.829  2.1190  1.7623  0.1746
47728SOL     OW54907  11.008   2.218   2.748 -0.0903 -0.0724 -0.4475
47728SOL    HW154908  10.917   2.188   2.739 -0.1785  0.3120 -0.9164
47728SOL    HW254909  11.027   2.209   2.841 -1.1374  1.2872 -0.0664
47729SOL     OW54910   1.011   6.721  10.929 -0.1866 -0.3554 -0.3074
47729SOL    HW154911   0.982   6.663  10.999  1.1779  0.5670  1.0794
47729SOL    HW254912   0.943   6.789  10.924 -0.2368 -0.3653  0.2079
47730SOL     OW54913   3.178  10.084   7.580 -0.1697  0.4443 -0.3500
47730SOL    HW154914   3.246  10.151   7.574  1.1718 -0.9273 -1.9570
47730SOL    HW254915   3.105  10.120   7.530  0.0817  1.1917 -0.1954
47731SOL     OW54916  11.754   0.697   3.146 -0.2577  0.2935 -0.1137
47731SOL    HW154917  11.675   0.667   3.101  0.5761 -1.0934 -0.7339
47731SOL    HW254918  11.797   0.754   3.082  1.1156 -1.9713 -1.3479
47732SOL     OW54919   6.794  10.119   3.187  0.2053  0.2760 -0.3354
47732SOL    HW154920   6.796  10.066   3.267 -1.0777 -0.3203 -0.6699
47732SOL    HW254921   6.792  10.054   3.116 -1.2731  0.7505 -0.7561
47733SOL     OW54922   6.574   4.086   7.585 -0.0377 -0.2643 -0.8002
47733SOL    HW154923   6.508   4.112   7.520 -2.7094 -0.9310  1.4528
47733SOL    HW254924   6.579   3.991   7.576 -0.0616 -0.3056 -0.3864
47734SOL     OW54925   5.974   4.583   6.687 -0.0254 -0.2756 -0.3661
47734SOL    HW154926   5.969   4.537   6.771 -0.2913  0.8566  0.2761
47734SOL    HW254927   5.924   4.664   6.702  0.5622  0.2986 -1.3798
47735SOL     OW54928   1.499  11.778   1.914  0.3872 -0.2170  0.5071
47735SOL    HW154929   1.574  11.730   1.879 -0.0558 -0.6586  0.1573
47735SOL    HW254930   1.464  11.826   1.840 -2.1008 -3.1127 -0.4056
47736SOL     OW54931   0.780   6.647   9.006  0.0827  0.5221  0.4736
47736SOL    HW154932   0.803   6.629   8.915  1.1552 -1.5491  1.0881
47736SOL    HW254933   0.864   6.654   9.051 -0.4416  0.9267  1.4156
47737SOL     OW54934   1.590   5.761   9.404  0.1483 -1.1206 -0.1861
47737SOL    HW154935   1.536   5.836   9.380  2.9242  1.0293 -0.2813
47737SOL    HW254936   1.547   5.724   9.482 -2.3823 -0.7483 -1.3090
47738SOL     OW54937   8.761   6.235   8.666 -0.6898 -0.1067 -0.2767
47738SOL    HW154938   8.784   6.205   8.578  0.1707 -1.9853  0.5360
47738SOL    HW254939   8.670   6.264   8.659 -0.5380  0.0600 -1.8385
47739SOL     OW54940  10.989   4.088   0.953  0.4622  0.1832 -0.4125
47739SOL    HW154941  11.003   4.013   1.011 -1.8421  0.4431  0.5710
47739SOL    HW254942  11.037   4.160   0.994 -0.2096  0.0866  0.5628
47740SOL     OW54943   2.609  10.917   5.629  0.0338 -0.0997  0.0403
47740SOL    HW154944   2.659  10.842   5.662  0.4257  0.3120  0.3969
47740SOL    HW254945   2.595  10.972   5.706 -0.1658  0.2429 -0.2385
47741SOL     OW54946   4.290  10.268  11.049  0.1974  0.0777  0.4284
47741SOL    HW154947   4.346  10.338  11.082  1.4745 -0.2919 -0.8441
47741SOL    HW254948   4.350  10.210  11.001 -0.7301 -2.1693  1.8501
47742SOL     OW54949   0.638   8.534   9.769 -0.4259 -0.5285  0.6421
47742SOL    HW154950   0.727   8.535   9.804 -0.4871  1.1663  0.8190
47742SOL    HW254951   0.650   8.531   9.674 -0.1991 -1.1534  0.6863
47743SOL     OW54952   8.291   8.800   6.946 -0.0466  0.2012  0.0021
47743SOL    HW154953   8.338   8.883   6.954  1.0378  0.0019 -2.9317
47743SOL    HW254954   8.219   8.819   6.885  0.0492 -0.9079 -0.4881
47744SOL     OW54955  10.872   0.653  10.572 -0.4990 -0.6369 -0.2291
47744SOL    HW154956  10.855   0.634  10.480 -1.5970  3.2932 -1.0115
47744SOL    HW254957  10.956   0.700  10.572  0.3904 -2.1306  1.0677
47745SOL     OW54958   3.981   8.527   9.001 -0.7017 -0.1646  0.2616
47745SOL    HW154959   4.001   8.476   8.922 -1.2721  0.6013 -0.3966
47745SOL    HW254960   4.045   8.598   9.001 -0.1237 -0.6703  0.9926
47746SOL     OW54961   2.856  10.058   7.023 -0.0625  0.4513  0.0762
47746SOL    HW154962   2.844  10.029   6.933 -0.4207  0.6014  0.0757
47746SOL    HW254963   2.945  10.096   7.023  0.3806 -0.5611  0.0673
47747SOL     OW54964   7.134   2.474   7.883  0.2343 -0.1244 -0.1538
47747SOL    HW154965   7.157   2.487   7.975  1.1273  0.5639 -0.4610
47747SOL    HW254966   7.216   2.450   7.840  0.1860  1.1430 -1.0458
47748SOL     OW54967   5.622  11.746  11.583  0.0274 -0.4206 -0.5312
47748SOL    HW154968   5.629  11.691  11.505 -0.9690  0.9227 -1.6204
47748SOL    HW254969   5.708  11.785  11.593 -0.0019 -0.1331 -1.3394
47749SOL     OW54970   3.470   6.919   8.089  0.0913 -0.5764 -0.0175
47749SOL    HW154971   3.528   6.851   8.124  0.2413 -0.2702  0.3336
47749SOL    HW254972   3.395   6.918   8.148 -0.4557 -1.2471 -0.7042
47750SOL     OW54973   0.442   7.987   9.846  0.3846 -0.7042 -0.4152
47750SOL    HW154974   0.481   8.064   9.890 -0.9380  0.2758 -0.8976
47750SOL    HW254975   0.488   7.982   9.762 -1.7315  1.6995 -1.8919
47751SOL     OW54976  10.471   8.492  10.374  0.7730  0.4292 -0.2857
47751SOL    HW154977  10.387   8.457  10.403  1.3229 -1.5480 -0.9624
47751SOL    HW254978  10.448   8.572  10.326 -0.5869  0.6414  0.6761
47752SOL     OW54979  11.368   9.390   6.145 -0.1210  0.4104  0.0676
47752SOL    HW154980  11.336   9.358   6.229  0.2865  0.0787  0.0976
47752SOL    HW254981  11.369   9.313   6.088  0.2597  0.4945 -0.0447
47753SOL     OW54982   4.066   3.551   9.173  0.2245 -0.3164 -0.3012
47753SOL    HW154983   4.056   3.553   9.268 -0.4410  0.3517 -0.3824
47753SOL    HW254984   4.042   3.639   9.144  0.7114 -0.4263 -1.0648
47754SOL     OW54985   1.779  10.751   6.466  0.5720  0.0993  0.0773
47754SOL    HW154986   1.826  10.834   6.455 -0.0897  0.3305 -1.0966
47754SOL    HW254987   1.705  10.756   6.406  0.0013 -0.9753  0.6511
47755SOL     OW54988   8.416  11.610   5.464 -0.0302 -0.0361  0.2296
47755SOL    HW154989   8.412  11.592   5.370 -0.7189  0.8484  0.0770
47755SOL    HW254990   8.387  11.701   5.473 -1.9344 -0.7039  1.4760
47756SOL     OW54991   2.614   1.015   3.081 -0.3537  0.2426 -0.3994
47756SOL    HW154992   2.588   0.944   3.023 -1.1641  0.1379  0.0781
47756SOL    HW254993   2.542   1.077   3.079 -1.8444 -1.1568  2.7298
47757SOL     OW54994   5.465   9.859   2.745 -0.7648  0.0345 -1.1341
47757SOL    HW154995   5.535   9.800   2.769 -0.4657  1.3742  1.6256
47757SOL    HW254996   5.390   9.830   2.797 -0.5169  2.1595  0.5581
47758SOL     OW54997   8.734   2.906  10.901  0.2487  0.4506  0.1163
47758SOL    HW154998   8.732   3.001  10.914  0.3919  0.4413  0.2096
47758SOL    HW254999   8.781   2.894  10.818  0.3099  0.4582  0.1491
47759SOL     OW55000   8.878  11.575  11.653 -0.0810  0.1765  0.3734
47759SOL    HW155001   8.844  11.533  11.574 -0.1485  1.3588 -0.2478
47759SOL    HW255002   8.957  11.526  11.674  1.2471  1.2166 -1.7837
47760SOL     OW55003   9.218   1.632   8.885  0.2589 -0.2858 -0.3967
47760SOL    HW155004   9.214   1.603   8.976 -0.1566 -0.2665 -0.4073
47760SOL    HW255005   9.295   1.588   8.849 -0.4082 -1.4489 -0.4386
47761SOL     OW55006   1.949   5.704   4.287 -0.0616  0.0736  0.0873
47761SOL    HW155007   1.911   5.627   4.246 -1.3427  0.9478 -0.4155
47761SOL    HW255008   1.943   5.772   4.220  1.4460  0.5204  0.3626
47762SOL     OW55009   6.535   0.321  11.087  0.3734  0.3564 -0.0368
47762SOL    HW155010   6.517   0.283  11.174 -0.5599 -1.9725 -1.1511
47762SOL    HW255011   6.580   0.251  11.040  1.6441  1.8957 -1.1947
47763SOL     OW55012  10.847   4.591   6.477 -0.1091  0.0178  0.3512
47763SOL    HW155013  10.916   4.608   6.412  1.0513  0.9794  1.7811
47763SOL    HW255014  10.874   4.640   6.554 -1.6317 -0.8293  1.4726
47764SOL     OW55015   6.935   7.145   9.726  0.0673  0.6405 -0.3244
47764SOL    HW155016   6.909   7.059   9.691  0.6201  0.2494  0.2093
47764SOL    HW255017   6.853   7.195   9.728 -0.2006  0.2446 -0.9577
47765SOL     OW55018  11.203   1.022   4.829 -0.3568 -0.6471 -0.0902
47765SOL    HW155019  11.218   0.960   4.901  2.7103  0.4754  0.3959
47765SOL    HW255020  11.133   1.079   4.861 -0.0135 -1.0238  1.4335
47766SOL     OW55021   9.419   9.188  11.597 -0.1477 -0.4118 -0.2803
47766SOL    HW155022   9.396   9.281  11.606  1.5820 -0.0287  0.7297
47766SOL    HW255023   9.441   9.179  11.504 -1.7990 -0.2163 -0.7231
47767SOL     OW55024   8.089   9.525   3.720 -0.0808  0.0716 -0.1679
47767SOL    HW155025   8.082   9.618   3.697 -0.0526 -0.0378 -0.6230
47767SOL    HW255026   8.108   9.526   3.814  0.0219  0.5288 -0.1869
47768SOL     OW55027   0.500   1.398   5.172  0.5567 -0.1704 -0.1102
47768SOL    HW155028   0.595   1.396   5.177  0.5174 -0.5003  0.7438
47768SOL    HW255029   0.476   1.315   5.131  0.6255 -0.2592  0.0277
47769SOL     OW55030  11.578   2.363   4.970  0.4219 -0.1690 -0.0049
47769SOL    HW155031  11.637   2.386   5.042 -0.6498 -1.3285  1.3201
47769SOL    HW255032  11.503   2.422   4.981  0.0913 -0.5965  0.0775
47770SOL     OW55033   1.897   0.210   6.459 -0.2904 -0.0963  0.1335
47770SOL    HW155034   1.992   0.196   6.462 -0.3024 -1.8797 -3.1375
47770SOL    HW255035   1.886   0.289   6.404 -0.6887 -0.5075 -0.3911
47771SOL     OW55036   5.133   4.695   7.126  0.2611  0.8125  0.3833
47771SOL    HW155037   5.095   4.670   7.211 -0.6346 -0.8503 -0.4666
47771SOL    HW255038   5.185   4.620   7.100  0.4584  1.2744 -0.5975
47772SOL     OW55039   9.445   9.708   0.268 -0.1724 -0.0860  0.4112
47772SOL    HW155040   9.404   9.727   0.184  1.4309  0.9905 -0.1575
47772SOL    HW255041   9.452   9.793   0.311  2.9390  0.0887 -0.2366
47773SOL     OW55042   8.502  10.810   4.556 -0.2876  0.4692 -0.7713
47773SOL    HW155043   8.586  10.766   4.569 -0.3294  0.4326 -0.6210
47773SOL    HW255044   8.525  10.898   4.525 -0.2248  0.0844 -1.8599
47774SOL     OW55045   2.929   2.385  10.030 -0.3766 -0.5815  0.2172
47774SOL    HW155046   2.846   2.345  10.055  1.0900 -2.4760  2.4334
47774SOL    HW255047   2.936   2.463  10.085 -0.6162 -0.5085  0.1424
47775SOL     OW55048   8.519   1.062   0.574 -0.2271 -0.2945  0.4376
47775SOL    HW155049   8.562   1.002   0.635 -1.6790 -1.1693  0.6451
47775SOL    HW255050   8.438   1.088   0.618  0.1996  1.5958  0.2082
47776SOL     OW55051   0.469   8.407   7.514  0.1047  0.1009 -1.0148
47776SOL    HW155052   0.479   8.495   7.549  0.4896 -0.4317  0.2467
47776SOL    HW255053   0.448   8.421   7.421  1.8481  1.4783 -1.2445
47777SOL     OW55054   0.994   5.466   5.165  0.4049  0.3831 -0.6367
47777SOL    HW155055   0.902   5.480   5.142 -0.3107  1.2394  2.2995
47777SOL    HW255056   0.998   5.374   5.194  0.3799  0.4396 -0.4498
47778SOL     OW55057   3.627   0.587   3.242 -0.0458 -0.3591 -0.0849
47778SOL    HW155058   3.558   0.563   3.305  1.8714 -1.6514  1.6492
47778SOL    HW255059   3.709   0.561   3.285  1.5260  0.7122 -2.2478
47779SOL     OW55060   8.916   5.577   4.327 -0.1307 -0.3106 -0.0633
47779SOL    HW155061   8.831   5.576   4.370 -0.3559  1.6083 -0.3784
47779SOL    HW255062   8.923   5.491   4.286 -0.9306 -1.3050  1.8016
47780SOL     OW55063   2.114   4.430   8.547  0.3714  0.2082 -0.5870
47780SOL    HW155064   2.051   4.393   8.609  0.8310  0.5367  0.0862
47780SOL    HW255065   2.166   4.355   8.517  0.3323  0.0885 -0.3567
47781SOL     OW55066   8.254   8.981   0.171 -0.0365  0.2891 -0.4548
47781SOL    HW155067   8.250   9.000   0.265  0.5737  2.5466 -0.8462
47781SOL    HW255068   8.259   8.885   0.167 -1.7852  0.0205  1.7322
47782SOL     OW55069  11.451   8.694  10.607 -0.3127 -0.0827 -0.9579
47782SOL    HW155070  11.433   8.787  10.602  0.6406  0.2374  0.7551
47782SOL    HW255071  11.541   8.685  10.575  1.0117  0.1960  2.3254
47783SOL     OW55072  11.644   5.510   5.678 -0.1163  0.1030  0.1587
47783SOL    HW155073  11.622   5.526   5.586 -2.7128 -0.9490  0.5203
47783SOL    HW255074  11.632   5.595   5.720 -0.6637  0.2022 -0.1828
47784SOL     OW55075   0.497   0.476   3.633 -0.4649 -0.1460  0.2540
47784SOL    HW155076   0.402   0.478   3.644 -0.5396 -1.8684  0.1472
47784SOL    HW255077   0.510   0.466   3.538 -0.1259  1.0410  0.1522
47785SOL     OW55078   0.804   4.295   9.332 -0.4024  0.1374  0.8189
47785SOL    HW155079   0.809   4.377   9.381 -3.4993  0.7027  0.4114
47785SOL    HW255080   0.730   4.308   9.272  1.3770 -1.5962 -1.9633
47786SOL     OW55081   3.582   4.993  11.132  0.0975  0.0182  0.5793
47786SOL    HW155082   3.555   5.070  11.182 -0.6981 -0.0513  0.2693
47786SOL    HW255083   3.625   5.028  11.054  0.6862  0.1318  0.9481
47787SOL     OW55084  11.050   5.910   0.858  0.4280 -0.1408  0.9726
47787SOL    HW155085  10.978   5.971   0.873  1.1464  0.8917  0.3979
47787SOL    HW255086  11.040   5.882   0.767  0.6633 -0.1142  0.9379
47788SOL     OW55087   4.054   5.149   9.312  0.1449 -0.3559 -0.2432
47788SOL    HW155088   4.001   5.170   9.235 -1.1077 -0.6305  0.5076
47788SOL    HW255089   4.139   5.189   9.294 -0.5667  0.8622 -1.1253
47789SOL     OW55090   5.217   0.274   0.728 -0.0664  0.6866  0.7401
47789SOL    HW155091   5.168   0.205   0.684 -0.9943  1.2560  0.8418
47789SOL    HW255092   5.308   0.243   0.729 -0.2967 -0.0526 -0.1292
47790SOL     OW55093   2.705   9.955   6.249 -0.5435  0.2633 -0.1948
47790SOL    HW155094   2.654   9.901   6.309  2.0674 -1.1116  0.9480
47790SOL    HW255095   2.732   9.894   6.180  0.7168  0.5712  0.0008
47791SOL     OW55096   5.298   0.039   4.806 -0.0277 -0.2960  0.4776
47791SOL    HW155097   5.250   0.121   4.813 -0.5010 -0.4597 -0.6716
47791SOL    HW255098   5.236  -0.022   4.766  0.9412 -0.6753 -0.4718
47792SOL     OW55099   2.053   1.540   7.012 -0.2117  0.0604  0.1948
47792SOL    HW155100   2.139   1.533   6.972 -0.1475 -2.0738  0.5580
47792SOL    HW255101   2.051   1.468   7.076 -1.1213  1.9520  2.4370
47793SOL     OW55102   7.235   3.257   6.117  0.3354  0.4119  0.9002
47793SOL    HW155103   7.144   3.284   6.117 -0.3013 -1.3470  3.2450
47793SOL    HW255104   7.282   3.330   6.158 -0.2168  0.8471  0.7568
47794SOL     OW55105   0.580   3.282   9.825  0.3239 -0.0011  0.1364
47794SOL    HW155106   0.489   3.284   9.795 -0.0317 -2.0250  0.9250
47794SOL    HW255107   0.590   3.362   9.876 -1.1777  0.0088  0.4774
47795SOL     OW55108   4.723   0.322   4.898 -0.1343  0.2147 -0.3782
47795SOL    HW155109   4.677   0.348   4.818 -0.0150 -1.6820 -1.1381
47795SOL    HW255110   4.806   0.369   4.895 -0.9232  1.6485 -0.3489
47796SOL     OW55111   6.601   2.019   9.096 -0.4326 -0.3299 -0.3156
47796SOL    HW155112   6.626   2.060   9.179 -0.6726 -0.5205 -0.1448
47796SOL    HW255113   6.671   1.956   9.079 -0.0218  0.2130 -0.6231
47797SOL     OW55114   6.733   7.716   9.889  0.0829  0.2817  0.2826
47797SOL    HW155115   6.794   7.782   9.856 -0.2959  0.7709  0.5580
47797SOL    HW255116   6.702   7.751   9.972  0.8263 -0.8200  1.0497
47798SOL     OW55117  11.393   5.664   1.850 -0.2698  0.1879  0.0169
47798SOL    HW155118  11.328   5.611   1.806  0.7241 -1.8834  0.8851
47798SOL    HW255119  11.344   5.717   1.912 -1.0897 -3.7914  3.1732
47799SOL     OW55120   7.572   1.944  10.560 -0.0068 -0.3341 -0.7295
47799SOL    HW155121   7.542   1.909  10.476 -0.9772 -0.2449 -0.4319
47799SOL    HW255122   7.540   1.882  10.625  1.1751 -0.6786 -0.4432
47800SOL     OW55123   8.896   7.293  10.015  0.2138  0.0925  0.6860
47800SOL    HW155124   8.811   7.260  10.042  0.4019  0.4652  1.7688
47800SOL    HW255125   8.915   7.364  10.076  0.8205  0.7270 -0.2184
47801SOL     OW55126  11.334   3.594   4.510 -0.2538 -0.3914 -0.3594
47801SOL    HW155127  11.250   3.583   4.555 -0.0419  0.5809  0.3123
47801SOL    HW255128  11.399   3.581   4.579  0.0543  3.2499  0.2401
47802SOL     OW55129  10.662   6.284   6.540 -0.2111 -0.1202 -0.2865
47802SOL    HW155130  10.713   6.219   6.491  0.5445  0.5327 -0.3815
47802SOL    HW255131  10.667   6.364   6.487 -2.2115 -0.2950 -0.8297
47803SOL     OW55132   3.506  11.317   9.092  0.8209 -0.0520  0.0756
47803SOL    HW155133   3.503  11.227   9.061 -0.5246 -0.4498  1.2490
47803SOL    HW255134   3.530  11.310   9.184 -0.6834  0.6670  0.5520
47804SOL     OW55135   9.194   1.651  11.370  0.3558 -0.2302  0.0311
47804SOL    HW155136   9.284   1.642  11.402  0.5389 -2.9062 -1.0431
47804SOL    HW255137   9.170   1.564  11.339 -1.0249  1.3078 -3.8523
47805SOL     OW55138   7.288   8.254   3.907  0.3449 -0.2342  0.2917
47805SOL    HW155139   7.200   8.256   3.945  0.3795  0.6174  0.3490
47805SOL    HW255140   7.275   8.220   3.818  0.2044 -1.8261  0.8748
47806SOL     OW55141  11.900   8.669   0.319  0.1078  0.3052  0.2334
47806SOL    HW155142  11.922   8.762   0.327 -0.5699  0.5520 -0.6273
47806SOL    HW255143  11.847   8.663   0.239 -2.3713 -0.3459  1.8147
47807SOL     OW55144   9.049  10.733  10.451 -0.3926 -0.0431 -0.1476
47807SOL    HW155145   9.117  10.666  10.439 -0.4684 -0.1612  0.0800
47807SOL    HW255146   9.087  10.812  10.412 -0.2570 -0.1882 -0.3165
47808SOL     OW55147   0.016   5.271  11.387 -0.3445 -0.4189  0.0762
47808SOL    HW155148  -0.035   5.201  11.344 -0.3218 -1.8278  2.1918
47808SOL    HW255149  -0.025   5.281  11.473  0.6358  1.1149  0.4034
47809SOL     OW55150   4.649   1.978   0.238  0.1408 -0.6091 -0.0995
47809SOL    HW155151   4.718   2.024   0.286 -0.7719  2.2772 -1.3605
47809SOL    HW255152   4.697   1.922   0.177  1.5796  2.5812 -2.1612
47810SOL     OW55153  11.151   0.753   1.426  0.2261  0.2593 -0.1205
47810SOL    HW155154  11.091   0.738   1.353 -0.9317 -0.7071  0.9771
47810SOL    HW255155  11.237   0.728   1.393 -0.0633  1.0515 -1.5309
47811SOL     OW55156   3.540   4.653   2.629 -0.8784 -0.2645 -0.0920
47811SOL    HW155157   3.482   4.673   2.702 -0.1084  0.2707  0.3769
47811SOL    HW255158   3.595   4.730   2.620  0.3536 -1.1078  0.0335
47812SOL     OW55159   2.845   0.875   4.358  0.1680  0.4719  0.1136
47812SOL    HW155160   2.834   0.804   4.295  2.3215  0.8129 -0.7392
47812SOL    HW255161   2.858   0.831   4.441 -0.3636 -0.0520 -0.0682
47813SOL     OW55162  11.659   0.469   7.963  0.3595 -0.5629 -0.4268
47813SOL    HW155163  11.689   0.530   7.895  2.3285  0.4087  1.2179
47813SOL    HW255164  11.720   0.395   7.957 -0.5039 -1.2674 -0.7770
47814SOL     OW55165   7.221  10.378   0.998 -0.5977  0.3263  0.3473
47814SOL    HW155166   7.234  10.313   1.067  0.0416 -0.2344 -0.2871
47814SOL    HW255167   7.147  10.431   1.029 -1.3873 -0.9319  0.7122
47815SOL     OW55168  11.831   3.961   0.220 -0.0614 -0.5939  0.6409
47815SOL    HW155169  11.834   4.001   0.307  0.3746 -1.4858  1.0614
47815SOL    HW255170  11.871   3.874   0.233  0.7572 -0.4305 -0.6203
47816SOL     OW55171   7.398   1.692   9.764 -0.0701 -0.1598 -0.5810
47816SOL    HW155172   7.350   1.627   9.712  2.0270 -0.7406 -1.9227
47816SOL    HW255173   7.469   1.642   9.804  1.4088  1.1977 -1.3925
47817SOL     OW55174   6.015  10.907   2.375  0.4041 -0.2842  0.1973
47817SOL    HW155175   5.919  10.908   2.375  0.3294 -1.1254 -2.3549
47817SOL    HW255176   6.037  10.817   2.401  0.6647  0.5974  3.4413
47818SOL     OW55177   2.206   6.125   8.147  0.3280 -0.1142 -0.0920
47818SOL    HW155178   2.136   6.063   8.125  2.0641 -1.8419 -1.0375
47818SOL    HW255179   2.247   6.088   8.225  0.8973  0.2592 -0.2118
47819SOL     OW55180   4.644   3.123   8.970 -0.4212 -0.5910 -0.3859
47819SOL    HW155181   4.595   3.183   9.025  0.5545 -0.9641  0.9646
47819SOL    HW255182   4.710   3.177   8.927  1.8613 -0.8464  2.4552
47820SOL     OW55183   4.158   3.960   8.596  0.0518 -0.6511  0.5864
47820SOL    HW155184   4.077   3.966   8.647 -0.8531 -0.1540 -0.8485
47820SOL    HW255185   4.164   3.868   8.572 -0.9254 -0.4439 -0.5562
47821SOL     OW55186  11.298   5.746   9.758  0.1789  0.1250 -0.5511
47821SOL    HW155187  11.330   5.676   9.814 -0.6724  0.6233  0.6098
47821SOL    HW255188  11.377   5.789   9.725  0.7744  1.0162  1.8321
47822SOL     OW55189  10.727   5.028  10.911  0.0260 -0.4818  0.3785
47822SOL    HW155190  10.795   5.036  10.977 -0.6285 -2.3563  1.3423
47822SOL    HW255191  10.653   5.078  10.946 -0.0409 -0.7891  0.6755
47823SOL     OW55192   5.617   2.652   8.672 -0.5015  0.1134 -0.0420
47823SOL    HW155193   5.666   2.645   8.590 -1.9074 -1.1611 -0.8245
47823SOL    HW255194   5.646   2.576   8.723  0.4871  0.9907  0.7294
47824SOL     OW55195   9.189   1.253   1.686  0.1492 -0.7443  0.6183
47824SOL    HW155196   9.271   1.270   1.732 -0.2306  1.6695  0.5116
47824SOL    HW255197   9.204   1.169   1.642  1.9978 -1.0943  1.7894
47825SOL     OW55198   1.823   8.276   9.125 -0.3633  0.1345 -0.3763
47825SOL    HW155199   1.768   8.244   9.197 -0.2116  2.1893  0.7059
47825SOL    HW255200   1.770   8.259   9.046 -1.6843  0.2311  0.4561
47826SOL     OW55201  11.417   6.011   9.964  0.4735 -0.6637 -0.4476
47826SOL    HW155202  11.401   6.070   9.891 -0.4176  0.8312  0.8797
47826SOL    HW255203  11.506   6.031   9.992  0.0313  0.4289  0.2648
47827SOL     OW55204   3.857   4.814   7.060  0.1343  0.1819  0.0584
47827SOL    HW155205   3.848   4.871   6.984  1.3902 -0.3482 -0.5274
47827SOL    HW255206   3.914   4.863   7.120 -1.4932  0.9387  1.0376
47828SOL     OW55207   8.131   9.865   2.826  0.4375 -0.4483  0.0994
47828SOL    HW155208   8.096   9.939   2.777 -0.0203 -0.7466 -0.0364
47828SOL    HW255209   8.104   9.788   2.776  0.2292 -0.7416  0.6521
47829SOL     OW55210  11.835   7.393   9.358 -0.1022 -0.1160 -0.4637
47829SOL    HW155211  11.803   7.400   9.448  0.2094  1.5271 -0.4509
47829SOL    HW255212  11.905   7.328   9.362  0.5454  0.6186  0.6865
47830SOL     OW55213   0.782   1.732   8.424  1.0542  0.5395  0.2895
47830SOL    HW155214   0.791   1.808   8.482  1.0844  0.6241  0.1723
47830SOL    HW255215   0.872   1.710   8.399  0.9529  1.3484 -0.8329
47831SOL     OW55216   8.497   0.570   5.432 -0.2616 -0.0895 -0.1308
47831SOL    HW155217   8.415   0.522   5.438  0.7962 -2.0145 -0.2316
47831SOL    HW255218   8.523   0.563   5.340 -0.1170  0.7709 -0.1660
47832SOL     OW55219  10.220   3.660   4.544  0.2259 -0.2825  0.0711
47832SOL    HW155220  10.253   3.570   4.551  1.3679  0.0115 -1.0841
47832SOL    HW255221  10.288   3.706   4.495 -0.5733  1.1014  0.2205
47833SOL     OW55222   6.170   6.683   2.734  0.4622  0.6075  0.6297
47833SOL    HW155223   6.172   6.756   2.797 -0.5893  0.4116  0.9107
47833SOL    HW255224   6.212   6.611   2.780 -0.6525  0.3488  1.2890
47834SOL     OW55225   5.157   4.628   8.172 -0.4965  0.1068 -0.1648
47834SOL    HW155226   5.148   4.631   8.267 -2.0589 -1.8683 -0.1674
47834SOL    HW255227   5.081   4.675   8.139 -1.1472 -1.0485 -0.3798
47835SOL     OW55228   5.604   2.829   5.537 -0.0820  0.2919  0.1050
47835SOL    HW155229   5.650   2.812   5.619 -1.5262  1.6672  1.2404
47835SOL    HW255230   5.589   2.742   5.499  1.1194 -0.3212  0.9741
47836SOL     OW55231   6.514   5.811   2.708  0.0274 -0.0658 -0.0416
47836SOL    HW155232   6.446   5.867   2.745  1.3849 -0.3454  3.2161
47836SOL    HW255233   6.589   5.870   2.695  0.7271 -0.6226  1.2532
47837SOL     OW55234   7.172   5.739   1.226 -0.1644  0.0695 -0.5091
47837SOL    HW155235   7.185   5.690   1.307 -0.8886 -1.6961 -1.4107
47837SOL    HW255236   7.077   5.738   1.212  0.0316 -0.7696 -1.9979
47838SOL     OW55237   7.974   5.722   9.091 -1.0948  0.1828  0.0071
47838SOL    HW155238   7.892   5.681   9.118 -0.1751 -0.6929  1.6574
47838SOL    HW255239   8.037   5.697   9.159  0.4386  1.2042 -0.9617
47839SOL     OW55240   8.336   0.793   8.361  0.3952  0.3126  0.7206
47839SOL    HW155241   8.254   0.748   8.379  1.6277 -2.2629  0.2700
47839SOL    HW255242   8.331   0.873   8.413 -1.7200 -0.5383  1.9330
47840SOL     OW55243   9.215   5.843   1.208  0.5960  0.1385 -0.4931
47840SOL    HW155244   9.124   5.843   1.179 -0.2426 -1.8204  1.8455
47840SOL    HW255245   9.227   5.759   1.251  3.5084  0.4011 -0.5972
47841SOL     OW55246   5.961   2.600   6.363  0.1732  0.1160 -0.5893
47841SOL    HW155247   5.978   2.694   6.374 -0.4952  0.0952  0.9084
47841SOL    HW255248   5.876   2.597   6.318  0.4756  0.2032 -1.1894
47842SOL     OW55249   0.197   6.290   7.654 -0.1666  0.2745  0.2091
47842SOL    HW155250   0.194   6.369   7.600 -1.3892  1.1424  1.4760
47842SOL    HW255251   0.122   6.238   7.625 -1.4781  1.2348  1.7085
47843SOL     OW55252   4.784   0.133   4.019 -0.2364 -0.5062  0.1120
47843SOL    HW155253   4.860   0.188   4.036 -0.8579  0.3691  0.1104
47843SOL    HW255254   4.800   0.094   3.933 -0.1454  0.2731 -0.2245
47844SOL     OW55255   6.397   4.908   2.038  0.9340 -0.5543  0.0347
47844SOL    HW155256   6.392   4.832   2.097  0.8366 -1.8453 -1.5709
47844SOL    HW255257   6.311   4.949   2.045  1.2605 -0.0742  1.5496
47845SOL     OW55258   7.607   8.046   0.911 -0.6705  0.0015 -0.1726
47845SOL    HW155259   7.691   8.084   0.886  0.0760 -1.2866  0.2920
47845SOL    HW255260   7.563   8.029   0.828 -0.3913  0.5041 -0.4288
47846SOL     OW55261   0.455   2.398   5.597 -0.4244  0.2568  0.0337
47846SOL    HW155262   0.526   2.462   5.594 -0.1848  0.0950  1.4597
47846SOL    HW255263   0.405   2.422   5.675 -0.6753 -0.9318  0.2528
47847SOL     OW55264   4.333   0.515   3.474  0.0216  0.3786 -0.5175
47847SOL    HW155265   4.241   0.491   3.473  0.1598 -0.2091 -2.0257
47847SOL    HW255266   4.361   0.501   3.565 -1.5235  1.2807  0.1347
47848SOL     OW55267   7.672   3.655   4.309 -0.2107 -0.8067  0.3896
47848SOL    HW155268   7.698   3.624   4.223 -2.0803 -0.5390 -0.3032
47848SOL    HW255269   7.590   3.609   4.328 -2.1790  2.3320  0.0815
47849SOL     OW55270   9.274  10.953   3.882  0.1141 -0.3288  0.3116
47849SOL    HW155271   9.304  10.916   3.966 -1.5296  0.0562  1.1129
47849SOL    HW255272   9.335  11.024   3.865  0.4931 -0.4214  1.1848
47850SOL     OW55273   4.405  11.902   4.189  0.4880 -0.4957  0.1136
47850SOL    HW155274   4.499  11.919   4.198  0.3707  0.0195  0.3832
47850SOL    HW255275   4.364  11.957   4.256 -0.0643 -0.1036 -0.5384
47851SOL     OW55276   3.364   0.150  11.310  0.4730  0.1835  0.5054
47851SOL    HW155277   3.366   0.076  11.372  0.2354  0.7924  1.2553
47851SOL    HW255278   3.400   0.223  11.359  0.6097  0.5930 -0.2046
47852SOL     OW55279   8.751   2.637   7.211 -0.6826  0.3213 -1.0729
47852SOL    HW155280   8.795   2.572   7.265 -0.0915  0.6405 -1.1590
47852SOL    HW255281   8.697   2.687   7.272  1.9729  2.4208 -0.2309
47853SOL     OW55282   4.047   4.088   2.979 -0.4879 -0.3662  0.3912
47853SOL    HW155283   4.076   4.002   2.949  0.4232 -0.3584  1.1854
47853SOL    HW255284   3.981   4.069   3.045 -0.0570 -0.4828  0.8004
47854SOL     OW55285   1.668   0.818   5.953 -0.1118 -0.0624  0.0733
47854SOL    HW155286   1.700   0.855   5.871  0.0968  0.7295  0.4968
47854SOL    HW255287   1.574   0.803   5.938 -0.3718  1.3713  0.1247
47855SOL     OW55288   7.719   6.065   9.559  0.5036 -0.1634 -0.3245
47855SOL    HW155289   7.802   6.030   9.592  0.2490 -1.2489 -0.7831
47855SOL    HW255290   7.653   6.004   9.592  0.1094 -0.4877 -1.6699
47856SOL     OW55291   1.257   4.627   2.558  0.1033  0.5744 -0.1798
47856SOL    HW155292   1.185   4.635   2.496 -0.9257 -0.9138  0.7611
47856SOL    HW255293   1.232   4.681   2.632  1.0781  1.9133 -0.7869
47857SOL     OW55294   4.056   1.165   0.624 -0.0682  0.1971  0.2026
47857SOL    HW155295   3.975   1.121   0.650  0.6794 -1.1858  0.3122
47857SOL    HW255296   4.112   1.094   0.590  1.1214  1.0961  0.2019
47858SOL     OW55297   3.205   0.816   6.067  0.0861 -0.1569  0.3320
47858SOL    HW155298   3.299   0.812   6.088  0.0743 -1.1058  0.2548
47858SOL    HW255299   3.189   0.735   6.018 -0.4084  0.8043 -1.1645
47859SOL     OW55300   9.206   0.285  10.817  0.2426 -1.0214  0.0103
47859SOL    HW155301   9.238   0.245  10.736 -2.8551 -2.2744 -0.7534
47859SOL    HW255302   9.219   0.379  10.805  0.1656 -1.2171 -1.8129
47860SOL     OW55303   5.559   6.964   8.544  0.0890 -0.1271  0.0350
47860SOL    HW155304   5.552   7.020   8.467 -1.6126 -0.8247 -0.3737
47860SOL    HW255305   5.468   6.938   8.563  0.6666 -1.5240  1.0972
47861SOL     OW55306  11.673  11.745  11.162  0.8950 -0.3918 -0.1373
47861SOL    HW155307  11.755  11.776  11.200  1.2413  0.0313 -1.2045
47861SOL    HW255308  11.615  11.733  11.238  1.6714  0.1018  0.5554
47862SOL     OW55309   8.484   6.052   3.684 -0.0535 -0.0867 -0.2010
47862SOL    HW155310   8.475   6.127   3.624 -2.5766  1.4660  1.9043
47862SOL    HW255311   8.552   6.079   3.745  0.7984 -0.6193 -0.9009
47863SOL     OW55312   2.851  11.389  11.180  0.1578  0.0607  0.2829
47863SOL    HW155313   2.841  11.480  11.209 -0.0785 -0.3087  1.4149
47863SOL    HW255314   2.944  11.370  11.191  0.1893  0.1292  0.1418
47864SOL     OW55315   9.125  11.239   4.925  0.1597  0.0525 -0.1176
47864SOL    HW155316   9.055  11.285   4.972 -1.4194 -1.4035 -0.9391
47864SOL    HW255317   9.113  11.264   4.834  0.8606 -0.0461 -0.2409
47865SOL     OW55318   6.431   0.502  10.602 -1.4773 -0.2337  0.2258
47865SOL    HW155319   6.387   0.531  10.522 -2.6254 -1.5069  0.3516
47865SOL    HW255320   6.451   0.409  10.586  0.0779 -0.0054  0.6665
47866SOL     OW55321  11.379   5.284   0.983 -0.2350  0.1186 -0.3885
47866SOL    HW155322  11.351   5.216   0.922  1.5804 -1.0292 -0.0242
47866SOL    HW255323  11.450   5.330   0.938 -0.8490  1.2081 -0.2787
47867SOL     OW55324   2.603   4.444   6.492 -0.2527 -0.2926  0.6376
47867SOL    HW155325   2.654   4.430   6.572  0.8099  0.8874  0.2088
47867SOL    HW255326   2.627   4.371   6.435 -1.3101 -1.3531  1.5068
47868SOL     OW55327   9.314   7.242   3.970 -0.3788  0.5270  0.1308
47868SOL    HW155328   9.350   7.154   3.957 -0.7910  0.3752  0.0064
47868SOL    HW255329   9.226   7.227   4.002 -0.7405  0.8828 -0.6655
47869SOL     OW55330   7.853   7.366  10.384 -0.0797  0.4315  0.3359
47869SOL    HW155331   7.780   7.423  10.359  2.1096  2.6826 -1.5619
47869SOL    HW255332   7.880   7.399  10.470 -1.9280 -1.2251  1.6407
47870SOL     OW55333   6.266   7.505   5.470 -0.4404 -0.1522  0.3425
47870SOL    HW155334   6.317   7.427   5.491  0.6477  0.3419 -0.3792
47870SOL    HW255335   6.204   7.477   5.403  1.2876  0.0080 -1.4144
47871SOL     OW55336  11.078   9.377  11.851 -0.3830 -0.3366  0.0401
47871SOL    HW155337  11.023   9.340  11.920 -1.7247 -0.8186 -1.2463
47871SOL    HW255338  11.070   9.471  11.861 -2.0169 -0.3876 -0.5327
47872SOL     OW55339   1.701   0.498   8.283 -0.6071  0.4199 -0.8625
47872SOL    HW155340   1.705   0.454   8.368  1.7385  1.2993 -0.4278
47872SOL    HW255341   1.640   0.571   8.296  0.0504  0.8005  0.2462
47873SOL     OW55342   7.354   7.245   4.914 -0.1992 -0.3113  0.4100
47873SOL    HW155343   7.301   7.264   4.836  0.9481  0.4163 -0.2266
47873SOL    HW255344   7.403   7.166   4.891 -1.2963 -1.2305  1.1591
47874SOL     OW55345   9.651   1.790  10.788  0.0623  0.3686 -0.3701
47874SOL    HW155346   9.601   1.750  10.859  1.0629 -0.8301 -0.2945
47874SOL    HW255347   9.647   1.884  10.805 -0.7470  0.1815  0.5600
47875SOL     OW55348   2.121   6.190   3.396 -0.0293 -0.2559  0.2775
47875SOL    HW155349   2.058   6.147   3.338 -0.4737 -0.7972  1.1418
47875SOL    HW255350   2.139   6.274   3.355  1.1557 -1.3872 -1.6844
47876SOL     OW55351   8.375  10.930  10.448  0.2489 -0.2004 -0.0690
47876SOL    HW155352   8.389  10.889  10.362  0.3826 -1.6902  0.6385
47876SOL    HW255353   8.296  10.889  10.482  0.4429  0.0564  0.7111
47877SOL     OW55354   7.745   2.916   2.647  0.1403 -0.3165 -0.6717
47877SOL    HW155355   7.658   2.946   2.673  0.4344 -0.7031  0.8658
47877SOL    HW255356   7.733   2.823   2.626  0.2035 -0.4096 -0.3045
47878SOL     OW55357  10.511   6.216   1.428 -0.0590  0.2051 -0.0321
47878SOL    HW155358  10.516   6.246   1.519 -0.1314  0.7538 -0.2100
47878SOL    HW255359  10.447   6.274   1.387  0.5079  0.4245 -0.6199
47879SOL     OW55360   9.625   3.634   3.648 -0.0745  0.1958 -0.4991
47879SOL    HW155361   9.683   3.618   3.573  1.5865  0.3988  0.7108
47879SOL    HW255362   9.664   3.707   3.695 -1.8271  0.9506 -0.1200
47880SOL     OW55363   7.492   0.466   2.205  0.0568  0.2145 -0.5110
47880SOL    HW155364   7.541   0.450   2.125  1.1036  0.4463  0.0700
47880SOL    HW255365   7.465   0.557   2.199  0.4590  0.3391 -0.4257
47881SOL     OW55366   0.116   5.608   4.393  0.4432 -0.0685  0.6073
47881SOL    HW155367   0.114   5.612   4.297 -0.3907 -1.6877  0.5065
47881SOL    HW255368   0.049   5.670   4.421  1.9138  1.7565  0.2536
47882SOL     OW55369   4.317   1.213   6.945  0.4344  0.1800  0.1591
47882SOL    HW155370   4.227   1.237   6.965  0.8420  1.2317  0.7784
47882SOL    HW255371   4.356   1.292   6.908  1.4919  0.1586  1.1734
47883SOL     OW55372   8.541   6.429   2.157  0.1831  0.2609 -0.2896
47883SOL    HW155373   8.594   6.385   2.090 -0.6120  1.1499 -1.5244
47883SOL    HW255374   8.571   6.520   2.155  1.2687  0.0013  1.7095
47884SOL     OW55375   0.763   6.933   0.736 -0.1876  0.0876 -0.3373
47884SOL    HW155376   0.696   6.896   0.679  0.6465 -2.3344  0.1102
47884SOL    HW255377   0.821   6.982   0.676 -3.1338  3.7807 -0.5145
47885SOL     OW55378  11.756   2.467   0.877 -0.1849 -0.3237  0.4617
47885SOL    HW155379  11.679   2.431   0.921 -0.6107  1.1667  0.9935
47885SOL    HW255380  11.729   2.554   0.849  0.6611 -0.5660 -1.1935
47886SOL     OW55381   9.677   5.215   5.857 -0.1414  0.5714  0.2721
47886SOL    HW155382   9.587   5.246   5.854 -1.0711 -1.8062 -3.0605
47886SOL    HW255383   9.721   5.266   5.788  0.1458 -0.5009 -0.3585
47887SOL     OW55384   6.919   6.448  10.644 -0.4273  0.4294 -0.4521
47887SOL    HW155385   6.938   6.355  10.644  1.7011  0.7093 -3.4693
47887SOL    HW255386   6.824   6.454  10.652 -0.4075 -1.7157  3.3950
47888SOL     OW55387   4.390  11.035   9.377 -0.1341 -0.4467 -0.7767
47888SOL    HW155388   4.326  10.964   9.372 -0.3626 -0.4034  0.8786
47888SOL    HW255389   4.461  11.000   9.430 -0.3897  0.6317  0.3354
47889SOL     OW55390  10.521   5.389   0.425  0.7257 -0.2816  0.2408
47889SOL    HW155391  10.589   5.456   0.429  0.2132  0.2017  1.8624
47889SOL    HW255392  10.566   5.308   0.451  0.8043 -0.0540  0.8399
47890SOL     OW55393   1.344   5.801   6.712 -0.1851  0.3041 -0.0784
47890SOL    HW155394   1.307   5.805   6.800 -0.4946  0.3555 -0.2085
47890SOL    HW255395   1.268   5.810   6.654 -0.0724 -0.4994 -0.3542
47891SOL     OW55396   0.133   6.937   4.478 -0.0067  0.9428  0.3914
47891SOL    HW155397   0.125   6.989   4.558 -2.1008  1.2151  0.0497
47891SOL    HW255398   0.080   6.984   4.413  0.6418  0.0610 -0.8136
47892SOL     OW55399   0.968   7.090   9.193  0.3926 -0.4895  0.4553
47892SOL    HW155400   0.929   7.036   9.125  0.3596 -1.2685  1.0827
47892SOL    HW255401   1.061   7.066   9.193  0.7054  0.6291 -0.3462
47893SOL     OW55402   7.820  11.759   8.049  0.4046 -0.0767  0.6256
47893SOL    HW155403   7.877  11.835   8.037  1.2486 -0.4034  2.2532
47893SOL    HW255404   7.869  11.686   8.013 -0.0442 -0.0064 -0.1595
47894SOL     OW55405   0.778   2.409   9.660  0.0335  0.0051 -0.0878
47894SOL    HW155406   0.808   2.490   9.619  1.7809 -0.4734  0.1645
47894SOL    HW255407   0.828   2.403   9.741 -0.8780 -0.7913  0.4455
47895SOL     OW55408  11.881   9.536   5.054 -0.1721 -0.2419 -0.0683
47895SOL    HW155409  11.830   9.608   5.018  0.1963 -0.1947 -0.5005
47895SOL    HW255410  11.815   9.474   5.086 -0.5174  1.2420  2.3305
47896SOL     OW55411  10.199   5.416   8.134 -0.6853 -0.0352  0.1805
47896SOL    HW155412  10.165   5.437   8.221 -1.5552 -0.3349 -0.0706
47896SOL    HW255413  10.207   5.320   8.133 -0.8232 -0.0473 -0.1113
47897SOL     OW55414   5.335   5.023   1.749 -0.1829  0.5652 -0.1697
47897SOL    HW155415   5.310   5.002   1.839 -0.8354  0.5344 -0.3536
47897SOL    HW255416   5.394   4.952   1.724 -0.2022  0.4329  0.1505
47898SOL     OW55417  10.521   7.740   4.753  0.2240  0.3279 -0.0980
47898SOL    HW155418  10.534   7.709   4.843  2.2949  0.6234 -0.2608
47898SOL    HW255419  10.426   7.740   4.742 -0.0163 -1.8300  1.3414
47899SOL     OW55420   0.710   2.268   2.305  0.0406  0.2068  0.0715
47899SOL    HW155421   0.744   2.243   2.390  2.0606  1.5028 -0.3048
47899SOL    HW255422   0.636   2.325   2.325  1.7738  2.2401  1.0575
47900SOL     OW55423   2.330   3.650   7.193 -0.1984 -0.4383  0.7178
47900SOL    HW155424   2.291   3.687   7.114  0.7111  0.0195  0.4796
47900SOL    HW255425   2.266   3.585   7.222 -0.7328 -0.3238 -0.1607
47901SOL     OW55426   7.201   3.731   2.925 -0.0484 -0.1043  0.1270
47901SOL    HW155427   7.267   3.786   2.966 -1.0580  0.7804  0.5916
47901SOL    HW255428   7.119   3.759   2.963 -0.6530 -1.5760 -0.0214
47902SOL     OW55429   3.429   7.178   8.039  0.5234 -0.5047 -0.3268
47902SOL    HW155430   3.445   7.087   8.065  1.2000 -0.7463 -1.5458
47902SOL    HW255431   3.447   7.180   7.945  1.8100  1.1706 -0.0879
47903SOL     OW55432   8.753   3.546   4.580  0.2097 -0.2098  0.1305
47903SOL    HW155433   8.715   3.468   4.620 -1.3235 -0.0547 -0.9295
47903SOL    HW255434   8.737   3.535   4.486  0.6179  1.0343 -0.1048
47904SOL     OW55435   5.948   2.705   4.155  0.2941  0.1759  0.0400
47904SOL    HW155436   5.926   2.628   4.208  0.4264 -0.0348 -0.2097
47904SOL    HW255437   5.867   2.756   4.151  0.3479  0.3221  0.6556
47905SOL     OW55438   5.459   4.359   3.167 -0.0296  0.0681  0.1482
47905SOL    HW155439   5.476   4.353   3.261 -2.2702 -1.7240  0.5177
47905SOL    HW255440   5.503   4.283   3.129  0.1480  0.3165 -0.1540
47906SOL     OW55441   2.768   7.381  11.481 -0.2263 -0.7323 -0.0343
47906SOL    HW155442   2.689   7.333  11.505  0.3193 -1.6739 -0.0549
47906SOL    HW255443   2.839   7.320  11.500  0.5289  0.2473  0.3666
47907SOL     OW55444   8.554   0.817   3.595 -0.0718  0.2180  0.0903
47907SOL    HW155445   8.517   0.891   3.642  0.8907 -1.0992  3.1268
47907SOL    HW255446   8.477   0.765   3.569 -0.6271  0.7550  0.6233
47908SOL     OW55447  10.297   5.802   1.566  0.4879  0.1912 -0.0084
47908SOL    HW155448  10.329   5.717   1.536  0.1944 -0.3028  1.0228
47908SOL    HW255449  10.362   5.865   1.534  1.0546 -0.4900 -0.2317
47909SOL     OW55450   8.313   4.263   5.119  0.6155 -0.2026 -0.7170
47909SOL    HW155451   8.332   4.282   5.211  0.3104  1.7719 -1.0138
47909SOL    HW255452   8.218   4.266   5.113  0.6593  0.5204 -1.2356
47910SOL     OW55453   4.333  11.813  11.771 -0.7686  0.2404  0.5663
47910SOL    HW155454   4.359  11.739  11.717 -0.9316  0.7190 -0.1797
47910SOL    HW255455   4.386  11.804  11.851 -0.3936 -0.3719  0.2565
47911SOL     OW55456  10.333   3.969   3.401  0.0886 -0.1001  0.1439
47911SOL    HW155457  10.377   4.044   3.361 -1.0514  0.2766 -0.4496
47911SOL    HW255458  10.401   3.903   3.409  0.7845  0.4960 -0.6643
47912SOL     OW55459  10.518   0.803   4.921 -0.0133 -0.2592 -0.3568
47912SOL    HW155460  10.430   0.808   4.882 -0.2978 -2.3300 -0.0869
47912SOL    HW255461  10.570   0.757   4.856  0.9931  1.2302 -0.6457
47913SOL     OW55462  11.654   7.332   0.519  0.0155  0.3252 -0.2376
47913SOL    HW155463  11.657   7.423   0.550 -0.9072  0.6487 -1.0683
47913SOL    HW255464  11.689   7.335   0.430  0.0677 -0.1571 -0.2385
47914SOL     OW55465   1.402  10.401   4.205 -0.3395  0.6016  0.1034
47914SOL    HW155466   1.405  10.487   4.248 -0.9903 -0.1442  1.7411
47914SOL    HW255467   1.480  10.355   4.237 -0.3361  0.3512 -0.2550
47915SOL     OW55468   8.757  11.752   6.685 -0.0048  0.0871 -0.3317
47915SOL    HW155469   8.772  11.836   6.643 -0.3364  1.5359  2.2049
47915SOL    HW255470   8.662  11.750   6.700  0.2925  0.6737  2.1367
47916SOL     OW55471  10.693   6.646   2.933  0.8540 -0.2654  0.2418
47916SOL    HW155472  10.610   6.626   2.977  3.1089 -1.6007  4.4171
47916SOL    HW255473  10.703   6.741   2.942 -0.7200  0.1430 -1.5843
47917SOL     OW55474   6.716  10.369   4.951  0.1228  0.2062  0.4812
47917SOL    HW155475   6.783  10.302   4.933  0.9979  0.8954  1.0881
47917SOL    HW255476   6.639  10.339   4.903  0.6572 -0.9678  0.3127
47918SOL     OW55477  11.882   3.937   8.970 -0.4976  0.1216  0.5883
47918SOL    HW155478  11.887   3.856   8.920  1.3481 -0.4017  1.5394
47918SOL    HW255479  11.845   3.911   9.054  2.5981 -0.3642  1.9272
47919SOL     OW55480   3.776   0.856   6.638  0.3523  0.2418 -0.1805
47919SOL    HW155481   3.693   0.843   6.593 -0.1842 -2.6015  1.4190
47919SOL    HW255482   3.752   0.892   6.723  0.7208 -0.6353  0.3062
47920SOL     OW55483  10.734   1.440   0.818 -0.3992  0.3565 -1.0297
47920SOL    HW155484  10.818   1.486   0.823 -0.1542 -0.1710 -0.0186
47920SOL    HW255485  10.754   1.358   0.773 -0.0592 -0.3777  0.3798
47921SOL     OW55486   6.143   9.199   7.702 -0.1053 -0.3329 -0.6308
47921SOL    HW155487   6.195   9.141   7.647  0.2777 -0.8389  0.2363
47921SOL    HW255488   6.167   9.287   7.675  0.2402 -0.5729 -1.1111
47922SOL     OW55489   0.655   6.344   9.515  0.5453  0.1333 -0.1897
47922SOL    HW155490   0.621   6.385   9.436  1.2379 -1.2908 -1.2821
47922SOL    HW255491   0.617   6.394   9.587 -3.2988 -0.8957 -1.2842
47923SOL     OW55492   2.808   2.779   9.963  0.1691  0.0173  0.1563
47923SOL    HW155493   2.812   2.840   9.889  2.8929 -0.9108 -0.5544
47923SOL    HW255494   2.800   2.693   9.922 -0.8978 -0.3527  1.0806
47924SOL     OW55495   2.635   9.068   9.874  0.1795  0.5488  0.2057
47924SOL    HW155496   2.555   9.065   9.821  1.3752  0.0934 -1.7107
47924SOL    HW255497   2.692   9.130   9.828  1.9903 -1.2820 -0.2057
47925SOL     OW55498   0.319   5.442   1.619 -0.6342 -0.5349  0.7396
47925SOL    HW155499   0.378   5.389   1.671  1.3978  0.0044 -0.8725
47925SOL    HW255500   0.265   5.489   1.683 -0.1045 -1.8872  2.2368
47926SOL     OW55501   4.856   9.644   2.978 -0.3098 -0.5957  0.6771
47926SOL    HW155502   4.922   9.647   3.047 -0.1151 -0.3229  0.4834
47926SOL    HW255503   4.845   9.736   2.951 -0.0693 -0.7432  0.0566
47927SOL     OW55504   1.711   3.159   3.163 -0.2132  0.0784 -0.0836
47927SOL    HW155505   1.658   3.183   3.086  0.7489  2.5574 -0.0592
47927SOL    HW255506   1.658   3.186   3.238 -1.0886 -2.2108  0.2028
47928SOL     OW55507   7.674  10.420   4.870  0.8144  0.1472 -0.3960
47928SOL    HW155508   7.650  10.422   4.778  0.3222 -1.1094 -0.3145
47928SOL    HW255509   7.661  10.510   4.900  1.4397  0.6781 -1.6456
47929SOL     OW55510   4.791   3.680   9.264 -0.1294  0.3156  0.3040
47929SOL    HW155511   4.777   3.618   9.336  1.0196  0.2577  0.5098
47929SOL    HW255512   4.838   3.629   9.198  0.4443  0.8514  0.2954
47930SOL     OW55513  10.714   1.746   3.586  0.2656  0.0587 -0.0632
47930SOL    HW155514  10.719   1.671   3.645  1.3906  0.3773  0.2833
47930SOL    HW255515  10.689   1.819   3.643 -0.3100  0.0507 -0.3004
47931SOL     OW55516   8.644   3.879  10.362 -0.5282 -0.3354 -0.1738
47931SOL    HW155517   8.686   3.928  10.432 -0.0047 -3.7507  2.1187
47931SOL    HW255518   8.550   3.881  10.383 -0.5584  0.0249 -0.3385
47932SOL     OW55519  10.707   7.399   0.064  0.4627 -0.2421 -0.3702
47932SOL    HW155520  10.649   7.328   0.037  2.2309 -1.1072 -2.1717
47932SOL    HW255521  10.668   7.478   0.025 -1.1607 -0.2340  1.1131
47933SOL     OW55522   4.085   1.515   1.434 -0.4528 -0.1087  0.2666
47933SOL    HW155523   4.167   1.476   1.463  0.2322  1.3470  0.3693
47933SOL    HW255524   4.051   1.559   1.512 -1.2208 -0.5045  0.1640
47934SOL     OW55525  10.036   6.529   1.127 -0.1504 -0.0054  0.0312
47934SOL    HW155526  10.002   6.468   1.192  0.6852 -2.2806 -1.5386
47934SOL    HW255527  10.098   6.477   1.075 -0.6985  1.7026 -2.5184
47935SOL     OW55528   4.536   1.501  10.946  0.5335 -0.2114 -0.6520
47935SOL    HW155529   4.618   1.487  10.993  1.8254  4.0480 -1.2110
47935SOL    HW255530   4.491   1.570  10.995 -1.8405 -1.0603 -1.4748
47936SOL     OW55531   7.385   2.305   5.803 -0.9506 -0.1589  0.2464
47936SOL    HW155532   7.464   2.253   5.812 -0.3202  0.8244  0.6140
47936SOL    HW255533   7.409   2.391   5.838 -2.1810  0.1558  0.3630
47937SOL     OW55534   1.695   1.570  11.324  0.4032 -0.1891  0.2963
47937SOL    HW155535   1.714   1.631  11.253  0.8949 -1.1159 -0.3958
47937SOL    HW255536   1.745   1.491  11.302 -0.0502 -0.7722  1.2701
47938SOL     OW55537   2.331   0.111   1.221  0.2722 -0.1217  0.2328
47938SOL    HW155538   2.313   0.199   1.188 -2.2044 -0.6598 -0.0556
47938SOL    HW255539   2.339   0.057   1.142 -2.4216 -0.8439  0.3842
47939SOL     OW55540   7.524   8.337   7.164  0.3990 -0.5411  0.0955
47939SOL    HW155541   7.440   8.322   7.206  1.3708 -0.9709  1.9954
47939SOL    HW255542   7.517   8.291   7.080 -0.5233 -2.4397  1.1309
47940SOL     OW55543   6.546   5.173   9.636 -0.2824  0.3528  0.4594
47940SOL    HW155544   6.572   5.082   9.618  0.5258  0.8958 -1.4011
47940SOL    HW255545   6.623   5.212   9.677 -0.4629  0.3213  0.8296
47941SOL     OW55546   9.188   1.696   9.133 -0.4770  0.9540 -0.4808
47941SOL    HW155547   9.094   1.687   9.145 -0.6183  1.9361 -0.7724
47941SOL    HW255548   9.222   1.704   9.223 -0.4538 -1.0958 -0.2638
47942SOL     OW55549   6.429   5.953   0.407  0.0465  0.2025  0.1244
47942SOL    HW155550   6.391   6.040   0.414  0.7056  0.5664 -0.6780
47942SOL    HW255551   6.496   5.950   0.475  0.9607  0.8332 -0.7198
47943SOL     OW55552   0.668   3.647  10.273 -0.3090  0.3499  0.4481
47943SOL    HW155553   0.740   3.695  10.314 -0.4455 -0.2916  1.4889
47943SOL    HW255554   0.616   3.714  10.229  0.5024  0.9136  0.3354
47944SOL     OW55555   2.891   3.980   8.993 -0.0417 -0.5630 -0.1881
47944SOL    HW155556   2.809   3.946   9.027  0.5403 -0.2709  1.6652
47944SOL    HW255557   2.867   4.062   8.950 -0.5830  0.3955  1.7902
47945SOL     OW55558   7.109  11.341   0.710  0.5017  0.7300  0.1894
47945SOL    HW155559   7.106  11.251   0.742 -0.9567  1.1442  1.3074
47945SOL    HW255560   7.177  11.339   0.641  1.2613 -0.9539  0.9147
47946SOL     OW55561   7.532   9.102   6.522  0.0199  0.4337  0.3452
47946SOL    HW155562   7.468   9.173   6.532 -1.4899 -0.9715  1.0708
47946SOL    HW255563   7.510   9.040   6.592 -0.0628 -1.7395 -1.4832
47947SOL     OW55564   5.883   2.802   1.656 -0.3108  0.5671 -0.1694
47947SOL    HW155565   5.891   2.761   1.742 -0.0935  0.7557 -0.0999
47947SOL    HW255566   5.929   2.886   1.665  0.6795  0.1048 -0.7942
47948SOL     OW55567   8.022   4.646   9.021  0.2097 -0.4999 -0.0093
47948SOL    HW155568   8.082   4.572   9.033 -0.3262 -1.0278 -0.5113
47948SOL    HW255569   7.957   4.635   9.090 -0.3009 -0.9501 -0.5421
47949SOL     OW55570   6.240   6.586   2.162  0.5307 -0.2335  0.1726
47949SOL    HW155571   6.192   6.665   2.136 -0.2311 -1.0114 -0.8911
47949SOL    HW255572   6.314   6.581   2.101  0.8237 -0.1085  0.5171
47950SOL     OW55573   8.216   2.224   5.170 -0.0614  0.3086  0.3191
47950SOL    HW155574   8.300   2.185   5.195 -0.3857 -1.2317 -0.8291
47950SOL    HW255575   8.210   2.207   5.076 -2.0428 -0.3879  0.5328
47951SOL     OW55576   2.882  10.360   2.433 -0.1072 -0.4684 -0.3828
47951SOL    HW155577   2.798  10.370   2.479  0.2504  0.0011  0.1899
47951SOL    HW255578   2.896  10.266   2.428 -0.8480 -0.5601 -0.8160
47952SOL     OW55579  11.774   9.353   1.848  0.0923  0.2652 -0.0840
47952SOL    HW155580  11.868   9.335   1.847 -0.3321 -2.5197  0.6178
47952SOL    HW255581  11.747   9.342   1.757  0.5089  1.6421 -0.3871
47953SOL     OW55582  10.899   0.538   6.537 -0.1340 -0.2043  0.0176
47953SOL    HW155583  10.987   0.532   6.573  0.6677  0.6048 -1.6727
47953SOL    HW255584  10.854   0.459   6.568  1.5025 -1.1415  0.0887
47954SOL     OW55585  11.905   8.869   4.239  0.4936  0.2456  0.6796
47954SOL    HW155586  11.960   8.830   4.307 -0.1712  0.5240  1.4008
47954SOL    HW255587  11.860   8.794   4.199 -0.1162  0.1697  1.4643
47955SOL     OW55588  11.650   9.353   8.750  0.3081 -0.4153 -0.0814
47955SOL    HW155589  11.577   9.414   8.746  0.8102  0.1631 -3.7727
47955SOL    HW255590  11.612   9.272   8.783 -1.7736  0.1916 -0.8576
47956SOL     OW55591   9.862   8.213   2.482  0.4331 -0.4578  0.0559
47956SOL    HW155592   9.812   8.166   2.549  0.9775  1.1420  1.6258
47956SOL    HW255593   9.802   8.218   2.407 -0.6661 -1.1438  0.8585
47957SOL     OW55594   7.148   1.793   1.011 -0.4154 -0.2253 -0.0974
47957SOL    HW155595   7.236   1.821   0.985 -0.7060  1.3655  0.5206
47957SOL    HW255596   7.151   1.697   1.009  1.5530 -0.2055  0.6652
47958SOL     OW55597   8.936   1.660   0.703  0.0532  0.2437  0.6240
47958SOL    HW155598   8.853   1.648   0.749 -0.0056 -0.8698  0.2621
47958SOL    HW255599   8.920   1.734   0.644 -0.1364  1.1243  1.7470
47959SOL     OW55600   3.944   4.268   7.364 -0.1850  0.2019 -0.2541
47959SOL    HW155601   3.971   4.340   7.307  0.3765 -0.1004 -0.3738
47959SOL    HW255602   3.970   4.189   7.317 -0.7920 -0.0836 -0.1173
47960SOL     OW55603   8.706  10.540   5.996 -0.0882 -0.3274 -0.0997
47960SOL    HW155604   8.668  10.589   6.069  0.9296 -0.7396  0.7472
47960SOL    HW255605   8.677  10.586   5.918  0.4157  1.3332  0.6383
47961SOL     OW55606   4.028  11.051   6.593  0.1665  0.0870 -0.3003
47961SOL    HW155607   3.977  10.996   6.653  0.4939  0.1217  0.0128
47961SOL    HW255608   4.034  10.999   6.513  1.7725 -1.0234  0.4869
47962SOL     OW55609  10.737   2.753  11.663 -0.0123 -0.4423  0.5370
47962SOL    HW155610  10.694   2.755  11.578 -1.7703  0.6361  1.3752
47962SOL    HW255611  10.685   2.691  11.715  0.5977 -0.5431  1.0465
47963SOL     OW55612   6.760   5.806   8.813  0.1950 -0.2719 -0.1186
47963SOL    HW155613   6.688   5.749   8.840  0.7560 -0.3014  1.4268
47963SOL    HW255614   6.757   5.805   8.718 -2.1360  0.1030 -0.1067
47964SOL     OW55615   9.467   9.143   7.951 -0.5288 -0.5828  0.0914
47964SOL    HW155616   9.552   9.100   7.943 -1.3544 -2.9901  2.6669
47964SOL    HW255617   9.444   9.167   7.861  2.3246 -0.8693 -0.8208
47965SOL     OW55618   3.849  10.002   5.078  0.0420  0.0760  0.3636
47965SOL    HW155619   3.788  10.075   5.084  1.4920  1.3471  0.2644
47965SOL    HW255620   3.794   9.926   5.055 -1.6866  0.8216  1.7785
47966SOL     OW55621   0.455  11.092   9.356 -0.0356  0.2688  0.2141
47966SOL    HW155622   0.455  11.018   9.295  1.1424  1.9129 -1.9180
47966SOL    HW255623   0.514  11.066   9.426  1.3782 -0.3706 -1.1585
47967SOL     OW55624   5.630   0.472  10.111  0.0101  0.1435  0.3323
47967SOL    HW155625   5.712   0.422  10.120 -0.6379 -1.1483 -0.5300
47967SOL    HW255626   5.609   0.465  10.017 -1.3285  0.0297  0.6220
47968SOL     OW55627   2.566  11.865   5.725  0.5610 -0.1134 -0.1415
47968SOL    HW155628   2.646  11.901   5.686  0.2254 -0.1620 -0.8853
47968SOL    HW255629   2.523  11.818   5.654 -0.5628  0.6256  0.0231
47969SOL     OW55630   6.622   2.765   0.590  0.2376 -0.0241 -0.2316
47969SOL    HW155631   6.587   2.798   0.673 -2.1553  0.6025 -1.3966
47969SOL    HW255632   6.555   2.703   0.560  1.7297 -1.2933 -1.0652
47970SOL     OW55633   4.525  11.828   3.953  0.1969  0.6395  0.7435
47970SOL    HW155634   4.514  11.910   3.906 -0.4860  1.0110  1.5272
47970SOL    HW255635   4.474  11.839   4.033 -0.8241 -0.9553  0.3745
47971SOL     OW55636  10.697   5.067   7.998  0.1063 -0.4836  0.3367
47971SOL    HW155637  10.606   5.046   7.981  0.3244 -0.4603 -0.9115
47971SOL    HW255638  10.720   5.014   8.074 -0.5736 -1.4915 -0.1404
47972SOL     OW55639   1.399   5.725   1.161  0.7926 -0.1914  0.0220
47972SOL    HW155640   1.402   5.638   1.122 -1.8697  0.1904 -1.2587
47972SOL    HW255641   1.442   5.781   1.096 -1.2888  0.0285 -1.2622
47973SOL     OW55642  10.088   3.946   9.457 -0.4821  0.5523  0.1438
47973SOL    HW155643  10.019   3.986   9.509 -0.5197 -0.1954  0.6910
47973SOL    HW255644  10.082   3.852   9.477  0.9649  0.5201  0.5529
47974SOL     OW55645   4.928   6.413   0.756  0.1538  0.1113 -0.1850
47974SOL    HW155646   5.015   6.374   0.766 -0.2552 -0.6787  0.4353
47974SOL    HW255647   4.867   6.340   0.768 -0.5737  0.1376 -3.0270
47975SOL     OW55648   2.027   0.464   6.302  0.2783  0.3461  0.3846
47975SOL    HW155649   2.044   0.512   6.384  0.7641  0.1994  0.3670
47975SOL    HW255650   1.940   0.496   6.275 -0.6745 -0.8439  1.8435
47976SOL     OW55651  10.352   4.300   5.974  0.2309  0.6005  0.1163
47976SOL    HW155652  10.346   4.261   5.887  0.6070  1.6047 -0.3813
47976SOL    HW255653  10.358   4.226   6.034  2.2098 -0.1356 -0.8787
47977SOL     OW55654  10.481  11.567   0.447  0.4508 -0.2159  0.3667
47977SOL    HW155655  10.462  11.622   0.371  0.7243  0.0779  0.5087
47977SOL    HW255656  10.532  11.494   0.411  0.2889 -0.2542  0.2140
47978SOL     OW55657   2.800   9.161   3.427 -0.2324 -0.5666  0.1370
47978SOL    HW155658   2.822   9.096   3.493 -0.0537  1.1642  1.9022
47978SOL    HW255659   2.881   9.173   3.376 -0.4141 -2.0220 -0.5259
47979SOL     OW55660   1.826   7.714   9.580 -0.1264 -0.7751  0.3571
47979SOL    HW155661   1.896   7.684   9.638  1.2455 -0.0475 -0.8676
47979SOL    HW255662   1.808   7.804   9.609  1.1362 -0.1168 -0.8247
47980SOL     OW55663   5.140   1.899   4.210  0.2094 -0.1306 -0.3584
47980SOL    HW155664   5.188   1.910   4.292 -0.3972  0.2368 -0.0391
47980SOL    HW255665   5.176   1.967   4.153  1.3233 -1.0156 -0.7483
47981SOL     OW55666   9.478   3.417   8.409  0.4585 -0.3803  0.3214
47981SOL    HW155667   9.571   3.417   8.430  1.2027  2.7692 -2.1550
47981SOL    HW255668   9.440   3.484   8.465  0.1736 -0.0335 -0.2730
47982SOL     OW55669   9.428   0.462  10.116  0.3172 -0.1102 -0.3944
47982SOL    HW155670   9.504   0.507  10.080 -0.0533  0.7628 -0.1021
47982SOL    HW255671   9.354   0.496  10.066  0.0840 -0.8240 -0.5569
47983SOL     OW55672   8.714  10.243   5.981  0.1735 -0.5405 -0.1442
47983SOL    HW155673   8.717  10.243   6.077  1.0154  0.5071 -0.1496
47983SOL    HW255674   8.666  10.323   5.958 -0.7709 -1.2225 -0.5956
47984SOL     OW55675   1.000   9.266   6.355  0.2912 -0.6971 -0.7993
47984SOL    HW155676   1.031   9.357   6.362 -0.1455 -0.6213  0.3497
47984SOL    HW255677   1.065   9.215   6.404 -0.7006 -0.6994  0.5377
47985SOL     OW55678   5.944   6.420   9.097 -0.0487 -0.1213  0.4921
47985SOL    HW155679   5.997   6.343   9.074 -1.1503 -0.4024 -1.2527
47985SOL    HW255680   5.996   6.494   9.067  0.5169 -0.2137  1.1904
47986SOL     OW55681   8.960   3.291   4.374  0.2552  0.4762  0.2608
47986SOL    HW155682   9.012   3.301   4.453 -0.3150  1.2881  0.5468
47986SOL    HW255683   8.883   3.241   4.401 -1.2496  2.9577  0.8747
47987SOL     OW55684   6.218   3.993   7.127 -0.6819  0.1665  0.2893
47987SOL    HW155685   6.242   3.939   7.202 -0.7256  1.0771  0.9733
47987SOL    HW255686   6.269   3.957   7.054 -0.9692 -0.9989  0.6417
47988SOL     OW55687   3.759   3.285   7.806  0.5420  0.1144  0.1114
47988SOL    HW155688   3.706   3.336   7.868 -0.3194 -0.4326 -0.1670
47988SOL    HW255689   3.707   3.282   7.726 -0.0553 -2.2944  0.5132
47989SOL     OW55690  11.693   7.337   1.745 -0.4325  0.5382  0.3950
47989SOL    HW155691  11.676   7.415   1.692  1.7387  1.5337  1.0296
47989SOL    HW255692  11.782   7.351   1.779  0.3129 -2.5459 -0.0362
47990SOL     OW55693   3.794   7.952   5.578 -0.3689  0.5620  0.1126
47990SOL    HW155694   3.858   7.966   5.509  0.4247  1.6031  1.0358
47990SOL    HW255695   3.748   7.872   5.552  0.7384  0.2554 -0.9811
47991SOL     OW55696   2.583   2.893   8.960  0.3787  0.3649 -0.5721
47991SOL    HW155697   2.499   2.849   8.949 -0.9139  1.5902  3.0337
47991SOL    HW255698   2.648   2.826   8.942 -1.4041 -1.5261 -0.3175
47992SOL     OW55699   3.331   0.842   8.779 -0.2128 -0.1484 -0.0499
47992SOL    HW155700   3.312   0.770   8.718 -0.7055 -1.3566  1.4521
47992SOL    HW255701   3.259   0.840   8.841  1.7073 -0.9676  2.3286
47993SOL     OW55702   4.071  10.073  10.593 -0.0932 -0.0827 -0.2582
47993SOL    HW155703   4.023  10.142  10.640  1.3186 -0.3339  1.6932
47993SOL    HW255704   4.036  10.076  10.504 -0.3851  2.8880 -0.1579
47994SOL     OW55705   2.803   4.341   5.358  0.4850 -0.0020  0.0664
47994SOL    HW155706   2.716   4.382   5.358  1.0001  1.1538  0.3516
47994SOL    HW255707   2.857   4.402   5.407  1.2111 -1.2885  0.9012
47995SOL     OW55708   8.909   6.629   8.280  0.2781  0.4618  0.1553
47995SOL    HW155709   8.873   6.615   8.192  1.2715  0.6100 -0.2882
47995SOL    HW255710   8.973   6.559   8.292  0.5435  0.7615  0.5404
47996SOL     OW55711   0.369   7.432   4.790 -0.1353  0.2589 -0.7168
47996SOL    HW155712   0.351   7.368   4.858  0.6542 -0.1520 -0.8708
47996SOL    HW255713   0.381   7.515   4.836  1.3949 -0.1997 -0.2242
47997SOL     OW55714   1.316   3.004   1.273 -0.0850 -0.4430 -0.2163
47997SOL    HW155715   1.278   3.005   1.361  0.9058 -0.5553  0.2207
47997SOL    HW255716   1.264   3.068   1.224  0.1831  0.5905  0.8105
47998SOL     OW55717   4.936   3.066   3.465 -0.1079 -0.0342  0.3865
47998SOL    HW155718   4.867   3.031   3.408 -0.6899  0.5965  0.6776
47998SOL    HW255719   4.984   3.128   3.410 -1.4827  1.5650  0.8765
47999SOL     OW55720  11.437   3.879   5.429 -0.7503  0.0571  0.0473
47999SOL    HW155721  11.473   3.830   5.356  0.1479 -1.3168  1.3534
47999SOL    HW255722  11.383   3.815   5.476 -0.8215  0.7417  0.9248
48000SOL     OW55723   5.197   0.250   3.482 -0.4579  0.0085 -0.3777
48000SOL    HW155724   5.255   0.214   3.414 -0.7549 -1.9753  0.3620
48000SOL    HW255725   5.256   0.271   3.554 -0.3744  0.3118 -0.5321
48001SOL     OW55726   6.259   8.457   0.721 -0.0939  0.0785 -0.6449
48001SOL    HW155727   6.333   8.502   0.760  0.5121 -1.1661 -0.3137
48001SOL    HW255728   6.194   8.452   0.791  0.5206 -1.0734 -0.1244
48002SOL     OW55729   9.905   2.457  11.047  0.2253  0.4172 -0.1311
48002SOL    HW155730   9.856   2.448  10.965  2.3928  0.7587 -1.5689
48002SOL    HW255731   9.857   2.524  11.096 -0.0220  1.7666 -2.0767
48003SOL     OW55732   3.505  10.790   9.071  0.1487 -0.4388 -0.6978
48003SOL    HW155733   3.499  10.698   9.094 -0.9488 -0.3488 -0.5601
48003SOL    HW255734   3.440  10.802   9.001 -0.8452  0.5254  0.3353
48004SOL     OW55735   8.288   8.841   1.870 -0.1607  0.4786  0.3740
48004SOL    HW155736   8.349   8.829   1.942 -0.6070 -2.0143  0.4142
48004SOL    HW255737   8.201   8.834   1.910 -0.4522  0.9514 -0.1439
48005SOL     OW55738   1.511   2.963   6.747 -0.0142  0.3171  0.1022
48005SOL    HW155739   1.485   2.928   6.662  0.1423 -1.2556  0.6688
48005SOL    HW255740   1.447   3.032   6.765 -0.4310  0.2430 -0.9973
48006SOL     OW55741   2.364   2.427   7.784  0.7591 -0.4564  0.1374
48006SOL    HW155742   2.269   2.436   7.780  0.8463  0.2739 -2.5205
48006SOL    HW255743   2.395   2.513   7.813  0.6287 -0.5064  0.4253
48007SOL     OW55744   9.605   2.587   0.153  0.0065  0.0966  0.3473
48007SOL    HW155745   9.688   2.620   0.120 -0.1246  0.6172  0.5177
48007SOL    HW255746   9.543   2.658   0.136 -0.2555 -0.0096  0.8423
48008SOL     OW55747   9.739   9.152   7.951 -0.3159  0.0457 -0.3583
48008SOL    HW155748   9.744   9.090   7.878  2.7942  0.2784 -0.4527
48008SOL    HW255749   9.727   9.237   7.908  0.9480  0.1188 -0.5868
48009SOL     OW55750  11.012   5.364   6.691 -0.1665 -0.4214 -0.9519
48009SOL    HW155751  11.021   5.417   6.770 -0.5110 -0.7251 -0.6996
48009SOL    HW255752  11.073   5.291   6.704 -1.7000 -1.6156  0.0270
48010SOL     OW55753   2.738  10.152   8.045 -0.8271  0.1892 -0.2581
48010SOL    HW155754   2.751  10.058   8.033  3.7351  0.7112 -1.2209
48010SOL    HW255755   2.748  10.189   7.957  2.1476  1.8111  0.6354
48011SOL     OW55756   5.295   9.046   1.596 -0.1776 -0.1321 -0.0299
48011SOL    HW155757   5.357   9.004   1.655 -0.1153 -0.8827 -0.6219
48011SOL    HW255758   5.284   8.984   1.524 -0.4527  0.6561 -0.6832
48012SOL     OW55759   7.931   5.063   5.251  0.1413 -0.7524 -0.1959
48012SOL    HW155760   8.007   5.064   5.193  0.1578 -1.0707 -0.1836
48012SOL    HW255761   7.888   4.980   5.233 -0.1640 -0.6069 -0.1477
48013SOL     OW55762   3.150   5.902   8.549 -0.1418 -0.0012 -0.0998
48013SOL    HW155763   3.233   5.859   8.567 -0.5448 -0.4784  0.6894
48013SOL    HW255764   3.086   5.853   8.601 -0.5756  1.7435  1.1142
48014SOL     OW55765   5.942   0.946   7.825 -0.1749 -0.2971  0.2623
48014SOL    HW155766   5.985   0.934   7.910  0.9289  0.0761 -0.2237
48014SOL    HW255767   5.960   1.037   7.802  2.6586 -1.2820 -1.9817
48015SOL     OW55768   6.094   5.361   9.870 -0.5152 -0.3973  0.4882
48015SOL    HW155769   6.015   5.359   9.816 -1.7361 -0.8670  2.1767
48015SOL    HW255770   6.128   5.272   9.866  0.9178  0.1695 -1.5152
48016SOL     OW55771   3.916   8.738   1.844  0.2418  0.1277  0.3362
48016SOL    HW155772   3.941   8.646   1.837 -0.7344 -0.0857 -0.5208
48016SOL    HW255773   3.836   8.746   1.793 -0.0263  1.3324  0.8945
48017SOL     OW55774   0.935  11.610   8.352 -0.0317  0.0527  0.5936
48017SOL    HW155775   0.847  11.596   8.318 -0.8579  1.3142  2.0524
48017SOL    HW255776   0.925  11.603   8.447  1.1868  1.3786  0.8576
48018SOL     OW55777   4.044   6.419  11.790  0.3729  0.3840  0.2718
48018SOL    HW155778   4.137   6.434  11.807  0.4295  1.0661 -0.5861
48018SOL    HW255779   4.002   6.502  11.810 -0.2337 -0.2461  1.7571
48019SOL     OW55780   2.202   5.657   7.547  0.1346 -0.1841 -0.1867
48019SOL    HW155781   2.225   5.635   7.638  1.0472  0.0652 -0.3494
48019SOL    HW255782   2.234   5.746   7.535 -2.3312  0.8138  0.0411
48020SOL     OW55783   1.422   0.543  10.496  0.8471 -0.6351 -0.0248
48020SOL    HW155784   1.435   0.508  10.584  0.5403  1.1760  0.8013
48020SOL    HW255785   1.418   0.466  10.440 -0.6209 -1.9738  1.7608
48021SOL     OW55786   4.670   7.671  11.036 -0.1401  0.1267 -0.0514
48021SOL    HW155787   4.739   7.724  10.997  1.2664 -2.7831 -1.7999
48021SOL    HW255788   4.702   7.650  11.124  0.8523 -0.5247 -0.5548
48022SOL     OW55789   1.098  11.251   5.182  0.7839  0.1750  0.2639
48022SOL    HW155790   1.177  11.284   5.140 -0.3047  1.7738 -0.6473
48022SOL    HW255791   1.048  11.210   5.111 -0.1454  1.0682  0.3802
48023SOL     OW55792   5.055  10.808   1.376  0.1342 -0.3719 -1.0022
48023SOL    HW155793   5.064  10.900   1.351  0.8600 -0.3466 -0.6797
48023SOL    HW255794   4.964  10.799   1.402  0.0533  0.2505 -1.0487
48024SOL     OW55795   2.417   2.587   8.264  0.0664  0.0255  0.2085
48024SOL    HW155796   2.436   2.514   8.204  3.1875  1.2788 -0.5456
48024SOL    HW255797   2.409   2.663   8.207  0.1008  0.7734  1.1842
48025SOL     OW55798   6.821   2.622   7.384 -0.1515 -0.0294 -0.2049
48025SOL    HW155799   6.731   2.594   7.367  0.3454 -0.7227 -1.9291
48025SOL    HW255800   6.855   2.558   7.447 -0.3155 -0.8472 -0.9351
48026SOL     OW55801   5.399   7.886   1.278 -0.4105  0.4034  0.1989
48026SOL    HW155802   5.314   7.880   1.321 -1.1299 -0.9857 -1.3028
48026SOL    HW255803   5.452   7.817   1.319 -0.4573  0.3733  0.2086
48027SOL     OW55804   8.421   2.768   8.628  0.1856  0.1848  0.0194
48027SOL    HW155805   8.442   2.705   8.560 -1.4369 -0.4417  0.0458
48027SOL    HW255806   8.391   2.715   8.702  3.1710  0.7546  1.8065
48028SOL     OW55807  10.673   7.028  11.224 -0.1440  0.2945  0.3717
48028SOL    HW155808  10.714   6.977  11.154  0.3173  1.4420 -0.2109
48028SOL    HW255809  10.741   7.035  11.291  0.3012  1.3548 -0.1709
48029SOL     OW55810   3.996   9.676  10.976 -0.4643  0.4324 -0.0019
48029SOL    HW155811   4.087   9.650  10.964 -0.0060  2.3060 -1.0800
48029SOL    HW255812   3.985   9.680  11.071  1.1273  1.7560  0.1818
48030SOL     OW55813   2.996  11.012  10.150  0.6134 -0.2146  0.6924
48030SOL    HW155814   3.064  11.024  10.084 -0.6182 -0.1327 -0.6090
48030SOL    HW255815   3.044  11.002  10.233  2.1270  1.3851  0.0606
48031SOL     OW55816   9.455   4.233   1.586  0.1455  0.0396  0.2761
48031SOL    HW155817   9.440   4.328   1.579  2.0858  0.4233  0.5937
48031SOL    HW255818   9.380   4.200   1.634 -0.5451  1.4293  0.2066
48032SOL     OW55819  10.835   6.034   5.083 -0.1081  0.2119  0.3418
48032SOL    HW155820  10.880   6.118   5.072  3.1707 -1.5637 -1.1255
48032SOL    HW255821  10.821   6.028   5.178  0.0067  2.1703  0.5357
48033SOL     OW55822   6.451  10.876   3.963  0.0166  0.4559 -0.2196
48033SOL    HW155823   6.476  10.890   4.054 -0.8296  0.9848 -0.0572
48033SOL    HW255824   6.385  10.944   3.946 -2.4877 -1.8281 -0.1522
48034SOL     OW55825   4.008  10.125   8.229 -0.5648 -0.3102 -0.0481
48034SOL    HW155826   4.040  10.159   8.312  0.9295 -0.5985 -0.4699
48034SOL    HW255827   4.029  10.194   8.165  1.8490 -1.6258 -0.7924
48035SOL     OW55828   1.637   4.872   7.988 -0.4580  0.6293  0.5718
48035SOL    HW155829   1.543   4.864   7.972 -0.2245  0.6048 -0.9721
48035SOL    HW255830   1.673   4.896   7.903  0.8296  1.5651  1.3551
48036SOL     OW55831  10.797   2.349  10.911 -0.7458  0.1678  0.2095
48036SOL    HW155832  10.738   2.392  10.850 -0.6880  2.3341  1.5401
48036SOL    HW255833  10.752   2.353  10.995  0.1861 -0.5253  0.7646
48037SOL     OW55834   7.637   3.762   5.916  0.6921 -0.2868  0.2215
48037SOL    HW155835   7.643   3.712   5.835 -0.1886  0.3980 -0.2865
48037SOL    HW255836   7.595   3.844   5.891 -1.6797 -0.9333  1.6990
48038SOL     OW55837   6.225   2.343   7.451 -0.0641 -0.1105 -0.3045
48038SOL    HW155838   6.179   2.427   7.442  0.6493  0.5678  1.9015
48038SOL    HW255839   6.155   2.278   7.456 -0.7468  0.6858  0.9857
48039SOL     OW55840   8.701   6.829   8.745  0.3935 -0.3660 -0.1680
48039SOL    HW155841   8.610   6.838   8.715  0.1092 -1.1168  0.4347
48039SOL    HW255842   8.706   6.739   8.777  1.4663 -0.4559 -0.5580
48040SOL     OW55843   5.225   2.955   7.814 -0.0222 -0.0313 -0.5350
48040SOL    HW155844   5.278   2.877   7.827 -0.2091 -0.0593  0.0804
48040SOL    HW255845   5.138   2.931   7.844 -0.6950 -0.3432 -2.5906
48041SOL     OW55846  10.723  11.312   2.618  0.6362  0.1945  0.0835
48041SOL    HW155847  10.680  11.276   2.696  0.5864  0.4784  0.1884
48041SOL    HW255848  10.791  11.370   2.653 -2.4230  4.2380  0.0640
48042SOL     OW55849   5.326   4.464   7.165  0.2140 -0.6138  0.4640
48042SOL    HW155850   5.401   4.502   7.210  0.9170 -1.1672 -0.2167
48042SOL    HW255851   5.349   4.466   7.072 -0.2903 -1.4595  0.3049
48043SOL     OW55852  11.232   3.662   3.845 -0.0188  0.0201  0.1798
48043SOL    HW155853  11.303   3.602   3.866  0.6566  0.4908 -0.6817
48043SOL    HW255854  11.275   3.747   3.836 -0.2296 -0.0911 -2.8961
48044SOL     OW55855   7.535  11.901   9.742  0.4907  0.3483  0.2819
48044SOL    HW155856   7.626  11.883   9.766  0.0834 -1.9568  0.3225
48044SOL    HW255857   7.526  11.867   9.653 -0.0534  1.6900 -0.2200
48045SOL     OW55858   3.861   2.605   1.059  0.3603 -0.5927 -0.0765
48045SOL    HW155859   3.816   2.563   1.132 -0.5431  0.1676 -0.1784
48045SOL    HW255860   3.836   2.697   1.065  0.6826 -0.4304 -1.0435
48046SOL     OW55861   8.115  10.288   6.260  0.3852 -0.0005 -0.2446
48046SOL    HW155862   8.117  10.244   6.176 -1.5461  0.9518 -0.8454
48046SOL    HW255863   8.075  10.225   6.320  0.0116  0.0026 -0.4902
48047SOL     OW55864   5.475   1.347   4.438  0.1308  0.3305  0.1527
48047SOL    HW155865   5.391   1.317   4.405 -1.3597  3.2409  0.9168
48047SOL    HW255866   5.481   1.311   4.526 -1.0107  1.1865  0.6055
48048SOL     OW55867  11.681   9.472   0.809 -0.1517  0.0935  0.4088
48048SOL    HW155868  11.663   9.383   0.778  1.2864  0.1002 -0.5416
48048SOL    HW255869  11.687   9.525   0.730 -1.6224  1.2053  0.9883
48049SOL     OW55870   3.732   7.547   9.195  0.0784  0.1193 -0.4175
48049SOL    HW155871   3.700   7.589   9.275  1.2666 -0.3977  0.3517
48049SOL    HW255872   3.661   7.560   9.131 -0.9785  0.3643  0.7663
48050SOL     OW55873   3.882  11.010   1.082  0.5086  0.3018  0.5614
48050SOL    HW155874   3.939  11.079   1.117  3.2103 -1.2281 -0.5603
48050SOL    HW255875   3.824  11.055   1.022  2.0262  1.6851  0.0593
48051SOL     OW55876  10.014   4.397   4.528 -0.6135  0.0398  0.0975
48051SOL    HW155877  10.062   4.459   4.473  1.3190 -1.7125 -0.3433
48051SOL    HW255878  10.021   4.433   4.617  0.3825  0.5238 -0.1672
48052SOL     OW55879   2.164   5.181  10.179 -0.9649 -0.0603 -0.2306
48052SOL    HW155880   2.178   5.206  10.271  1.5769 -1.4849 -0.1250
48052SOL    HW255881   2.212   5.247  10.129  0.8873 -1.3440 -0.2556
48053SOL     OW55882  11.228  11.334   6.561  0.2031  0.0038 -0.3316
48053SOL    HW155883  11.244  11.240   6.563  1.8357  0.2738  0.2926
48053SOL    HW255884  11.192  11.350   6.473  2.2673 -0.8600 -1.3995
48054SOL     OW55885   1.617   5.577   6.809  0.9807  0.3488 -0.9688
48054SOL    HW155886   1.621   5.656   6.863  0.8663 -0.0575 -0.3566
48054SOL    HW255887   1.602   5.610   6.721 -1.1047  0.9540 -0.4597
48055SOL     OW55888   9.081   7.592   5.104  0.7277  0.1829 -0.3642
48055SOL    HW155889   9.002   7.555   5.065 -0.7093  2.3036  0.3489
48055SOL    HW255890   9.103   7.666   5.047  0.9943  0.8219  0.5474
48056SOL     OW55891   3.168   0.406   5.209  0.3272 -0.8520  0.2670
48056SOL    HW155892   3.208   0.439   5.128 -0.2165 -1.5158 -0.2878
48056SOL    HW255893   3.196   0.468   5.276 -0.9081  0.9285 -0.7722
48057SOL     OW55894   3.588   6.858   3.471  0.2044  0.2509 -0.0627
48057SOL    HW155895   3.662   6.904   3.511  0.7348 -1.7257  1.3917
48057SOL    HW255896   3.626   6.777   3.437 -0.9707  0.1044 -1.1151
48058SOL     OW55897  11.039   8.242  10.793 -0.0610 -0.4935  0.3588
48058SOL    HW155898  11.037   8.272  10.884  0.2398  0.1270  0.1580
48058SOL    HW255899  11.038   8.146  10.800  0.8086 -0.4616  1.0382
48059SOL     OW55900   0.715   9.305   9.727 -0.0814  0.3538 -0.3452
48059SOL    HW155901   0.767   9.258   9.792 -1.0964 -0.4298 -0.0806
48059SOL    HW255902   0.722   9.251   9.648  0.9667  1.1889 -0.8503
48060SOL     OW55903  10.208   2.992   6.315  0.0956  0.1885 -0.1766
48060SOL    HW155904  10.162   2.958   6.238  1.5658  2.0339 -1.9929
48060SOL    HW255905  10.159   3.070   6.340  0.5963  0.5784 -0.3766
48061SOL     OW55906  11.561   9.814   6.491 -0.0115 -0.3172  0.2236
48061SOL    HW155907  11.604   9.753   6.550  0.0688 -0.3043  0.1783
48061SOL    HW255908  11.480   9.838   6.536  1.4784  2.1511  1.8349
48062SOL     OW55909   5.968   7.924   8.595 -0.0488 -0.4135  0.3226
48062SOL    HW155910   5.899   7.969   8.546 -0.4877 -1.3236  0.0841
48062SOL    HW255911   6.045   7.980   8.585 -0.3970 -0.0768 -0.5546
48063SOL     OW55912   2.762   4.870   5.326  0.2039  0.1838  0.3278
48063SOL    HW155913   2.749   4.965   5.323 -0.3175  0.1660  1.5933
48063SOL    HW255914   2.856   4.859   5.338  0.5358  0.4741 -1.6106
48064SOL     OW55915   7.609  10.449   1.481  0.3202  0.0773  0.2612
48064SOL    HW155916   7.684  10.485   1.434 -0.2989  0.7075 -0.2722
48064SOL    HW255917   7.594  10.510   1.553 -0.0592  0.3072 -0.0053
48065SOL     OW55918   3.123   6.622   5.408  0.2055  0.7237 -0.2175
48065SOL    HW155919   3.031   6.641   5.388 -0.0033  0.1153  0.1480
48065SOL    HW255920   3.154   6.700   5.453 -0.4952  0.4221  0.8089
48066SOL     OW55921   2.652   2.083   7.009  0.1043  0.2444  0.4263
48066SOL    HW155922   2.603   2.002   6.999 -0.2695  0.4601  0.4844
48066SOL    HW255923   2.739   2.064   6.974 -0.5767  0.4225 -1.4827
48067SOL     OW55924   6.990  10.371   8.478 -0.5148  0.4129  0.4177
48067SOL    HW155925   7.006  10.372   8.384 -0.8335 -0.4654  0.3482
48067SOL    HW255926   6.896  10.360   8.487 -0.3056 -1.3166  0.8248
48068SOL     OW55927   7.484   4.710   2.027  0.2291  0.8129  0.2526
48068SOL    HW155928   7.440   4.625   2.031  0.1720  0.8534  0.4680
48068SOL    HW255929   7.457   4.747   1.942  1.5264 -0.0760 -0.5795
48069SOL     OW55930  11.463   3.700  10.556 -0.4885 -0.0926 -0.4610
48069SOL    HW155931  11.400   3.732  10.491 -0.0826 -0.5139 -1.0724
48069SOL    HW255932  11.494   3.617  10.519  2.9693  1.6467 -1.8972
48070SOL     OW55933   7.564   3.916  11.083 -0.7010  0.3847 -0.8020
48070SOL    HW155934   7.484   3.959  11.111  0.1385  1.8340 -0.5403
48070SOL    HW255935   7.618   3.911  11.161 -0.9513 -1.6569 -0.7016
48071SOL     OW55936   8.840   6.194   6.201  0.0695  0.4089 -0.0463
48071SOL    HW155937   8.873   6.250   6.130 -0.4349  1.4413  0.5115
48071SOL    HW255938   8.762   6.152   6.164  0.0181  0.6601 -0.2286
48072SOL     OW55939   3.191   1.283  11.909 -0.5615 -0.0956 -0.0441
48072SOL    HW155940   3.237   1.281  11.824  0.4152 -0.3702  0.4785
48072SOL    HW255941   3.216   1.367  11.947 -0.1093 -0.4449  0.4422
48073SOL     OW55942   7.391   2.561   8.603 -0.4608  0.5255 -0.6313
48073SOL    HW155943   7.321   2.626   8.609 -1.5924 -0.6622 -0.7181
48073SOL    HW255944   7.364   2.503   8.533  0.2028 -0.4419 -0.1051
48074SOL     OW55945   2.644   8.798   8.429 -0.0643 -0.3006 -0.2364
48074SOL    HW155946   2.738   8.808   8.446  0.1009 -0.7127 -0.8697
48074SOL    HW255947   2.607   8.885   8.444  0.1504 -0.4825  1.6127
48075SOL     OW55948  10.916   4.652   5.292  0.4255  0.3356 -0.4052
48075SOL    HW155949  10.956   4.565   5.301 -0.7477 -0.2046 -0.3014
48075SOL    HW255950  10.976   4.710   5.339 -0.2721 -0.8754  2.1420
48076SOL     OW55951   0.001   4.290   1.854 -0.0376 -0.0861 -0.2025
48076SOL    HW155952   0.051   4.304   1.934 -0.0385  1.1522 -0.4087
48076SOL    HW255953   0.055   4.231   1.801 -0.0630 -0.9634  0.7171
48077SOL     OW55954   5.748   3.227   7.672 -0.3650  0.7008  0.4376
48077SOL    HW155955   5.730   3.307   7.622  0.8137  1.9504  1.9162
48077SOL    HW255956   5.691   3.233   7.749 -1.2479 -0.5879 -0.0695
48078SOL     OW55957   6.617   7.955   6.438 -0.2208  0.3844 -0.2979
48078SOL    HW155958   6.660   7.904   6.370  2.4850  0.4610  1.2115
48078SOL    HW255959   6.576   8.028   6.391  1.9065  0.6752 -1.8579
48079SOL     OW55960   6.262   0.626   7.809  0.1628 -0.0595 -0.7036
48079SOL    HW155961   6.245   0.605   7.901  1.7579 -0.3598 -0.4508
48079SOL    HW255962   6.353   0.657   7.808 -0.5780  2.3625 -1.7957
48080SOL     OW55963   5.404   7.934  10.619 -0.1267  0.3504  0.1385
48080SOL    HW155964   5.444   7.884  10.690  0.7325 -0.8480 -1.1343
48080SOL    HW255965   5.477   7.956  10.561 -1.0455 -0.3531 -1.3375
48081SOL     OW55966   5.433   2.646   0.959 -0.0184 -0.4186 -0.3637
48081SOL    HW155967   5.352   2.595   0.963 -0.4853  0.3727  0.9326
48081SOL    HW255968   5.500   2.583   0.934 -1.0853 -1.0037 -1.9641
48082SOL     OW55969   7.791   4.651   8.443  0.1130 -0.1062  0.1680
48082SOL    HW155970   7.732   4.673   8.516 -1.7475  0.8444 -1.5074
48082SOL    HW255971   7.879   4.667   8.477 -0.7522  1.3945  1.8565
48083SOL     OW55972   3.773   3.059   9.000  0.5328 -0.2286  0.3317
48083SOL    HW155973   3.867   3.043   9.008  0.3725 -1.2925  0.2380
48083SOL    HW255974   3.737   2.974   8.974 -0.4142  0.2500  0.0552
48084SOL     OW55975   7.847   9.013   9.163  0.1808 -0.1376 -0.7187
48084SOL    HW155976   7.877   9.097   9.197 -0.3815  0.5519 -1.8576
48084SOL    HW255977   7.905   8.948   9.203 -0.0423  0.6660  1.0019
48085SOL     OW55978   6.030   9.508   7.920 -0.1456  0.2559  0.6379
48085SOL    HW155979   6.089   9.502   7.845 -1.2540 -1.3797 -0.1596
48085SOL    HW255980   6.087   9.527   7.994  1.4735 -1.6149 -0.0429
48086SOL     OW55981   8.644  11.801   1.559  0.0893  0.5585 -0.0836
48086SOL    HW155982   8.621  11.854   1.635 -2.5204 -0.3871 -0.1380
48086SOL    HW255983   8.710  11.740   1.593 -0.8170  0.3361  1.3911
48087SOL     OW55984   6.359   2.470   8.186 -0.1256 -0.5673  0.1448
48087SOL    HW155985   6.328   2.381   8.201  1.2498 -1.0598  0.2176
48087SOL    HW255986   6.450   2.459   8.158  0.0706  0.8199  0.1734
48088SOL     OW55987   9.811   3.258   4.733  0.2602  0.3746 -0.0381
48088SOL    HW155988   9.828   3.164   4.740 -0.5411  0.2121 -0.1797
48088SOL    HW255989   9.757   3.278   4.809 -0.4693  0.4982 -0.5800
48089SOL     OW55990   2.555   5.830   6.486  0.0579 -0.4107 -0.1694
48089SOL    HW155991   2.593   5.875   6.562 -0.3292 -1.3619  0.5944
48089SOL    HW255992   2.585   5.882   6.411  1.9613 -0.4876  0.4875
48090SOL     OW55993   7.338   0.199   6.172  0.5746  0.1053 -0.1749
48090SOL    HW155994   7.276   0.127   6.164  0.4129  0.3370 -1.0627
48090SOL    HW255995   7.308   0.248   6.248 -0.1613  0.0563 -0.4284
48091SOL     OW55996   5.397   9.224   5.736 -0.7962 -0.1583  0.2924
48091SOL    HW155997   5.470   9.169   5.762  0.1684  1.5002  1.3049
48091SOL    HW255998   5.328   9.163   5.710  1.0163 -1.7593 -0.9559
48092SOL     OW55999   0.542   2.427   6.413  0.7246 -0.0382 -0.1852
48092SOL    HW156000   0.451   2.450   6.429  0.9025  0.9002 -0.4497
48092SOL    HW256001   0.539   2.351   6.356  0.0961  0.8443 -1.3628
48093SOL     OW56002   4.566   6.454   1.712  0.0888  0.3681  0.1464
48093SOL    HW156003   4.646   6.471   1.761 -1.1795  1.6766  1.9475
48093SOL    HW256004   4.531   6.374   1.751 -0.3724  0.8185  0.6951
48094SOL     OW56005   1.802   9.692  10.423 -0.5938 -0.4420  0.0706
48094SOL    HW156006   1.708   9.699  10.403 -0.2838  0.2994 -1.2829
48094SOL    HW256007   1.840   9.772  10.386  0.6621 -1.0321  0.0501
48095SOL     OW56008  10.317  11.480   9.227  0.0470 -0.0742 -0.1693
48095SOL    HW156009  10.333  11.387   9.238  1.2730  0.0897 -0.4525
48095SOL    HW256010  10.222  11.490   9.239 -0.0943 -1.3468 -0.1481
48096SOL     OW56011   7.185   7.949   2.820 -0.1003  0.3540  0.5320
48096SOL    HW156012   7.181   7.942   2.724  2.3470 -0.9728  0.4291
48096SOL    HW256013   7.106   7.997   2.844 -0.4377  1.3668 -2.2042
48097SOL     OW56014  11.772   5.637   0.865 -0.0543 -0.6280  0.3445
48097SOL    HW156015  11.801   5.623   0.955  0.4123 -0.4728  0.2238
48097SOL    HW256016  11.831   5.705   0.832 -0.5615 -0.3026  0.0892
48098SOL     OW56017   6.844   7.798   0.268 -0.7854  0.2495  0.4571
48098SOL    HW156018   6.829   7.724   0.209  0.2024  0.0805  0.4126
48098SOL    HW256019   6.822   7.875   0.216 -0.6842  0.0584  0.1305
48099SOL     OW56020   3.383   0.152  10.150  0.0100 -0.2843  0.3942
48099SOL    HW156021   3.428   0.236  10.159 -1.0836  0.6762 -2.1077
48099SOL    HW256022   3.442   0.099  10.096 -1.6268  1.0123 -2.9793
48100SOL     OW56023  10.172   3.813   2.379  0.2715  0.0194 -0.5115
48100SOL    HW156024  10.164   3.720   2.361  1.0691 -0.0524 -0.5291
48100SOL    HW256025  10.186   3.853   2.293 -1.5188  0.3361 -0.6805
48101SOL     OW56026   1.885   7.550   3.408 -0.1064  0.7009  0.4746
48101SOL    HW156027   1.964   7.511   3.371 -0.2995  1.0254 -0.2988
48101SOL    HW256028   1.816   7.528   3.346 -0.1886  2.4112 -0.0859
48102SOL     OW56029   2.377   7.962   3.143 -0.0854 -0.5410 -0.6344
48102SOL    HW156030   2.379   7.902   3.068  2.0108  0.3679 -1.3889
48102SOL    HW256031   2.377   7.904   3.220  1.0677 -1.5127 -1.3315
48103SOL     OW56032   9.956  10.776   5.753  0.2894 -0.5365 -0.0760
48103SOL    HW156033  10.025  10.781   5.819  1.3571  0.9590 -1.2449
48103SOL    HW256034   9.968  10.691   5.712  2.7883  0.4174 -1.5771
48104SOL     OW56035   7.530   4.029   5.851  0.4846  0.2425  0.4595
48104SOL    HW156036   7.527   4.095   5.782  0.1039 -0.0710  0.1677
48104SOL    HW256037   7.473   4.064   5.919 -0.5611 -0.2521 -0.1331
48105SOL     OW56038  11.358   8.810   6.087  0.3171  0.3756  0.2644
48105SOL    HW156039  11.336   8.727   6.129  1.0613  0.7580  1.4437
48105SOL    HW256040  11.303   8.812   6.008 -1.2455 -0.2773  1.2866
48106SOL     OW56041   4.805   4.714   3.082 -0.4644 -0.3174  0.3126
48106SOL    HW156042   4.778   4.647   3.019  1.2872 -1.2235  0.4503
48106SOL    HW256043   4.899   4.725   3.066 -0.7336  2.3329  0.1247
48107SOL     OW56044   3.529   5.669   7.425 -0.2043  0.2269  0.0535
48107SOL    HW156045   3.582   5.606   7.377  0.1435  0.3573  0.2603
48107SOL    HW256046   3.507   5.624   7.507 -0.5025  0.1345 -0.0752
48108SOL     OW56047   3.241  11.280   5.340 -0.0385 -0.3809  0.7351
48108SOL    HW156048   3.229  11.207   5.279  1.4251 -1.2268  1.4048
48108SOL    HW256049   3.249  11.357   5.284  0.3636 -1.0104 -0.0990
48109SOL     OW56050   4.097  11.529   4.685  0.5366 -0.1493  0.2744
48109SOL    HW156051   4.191  11.517   4.694  0.7468  1.5327  0.6064
48109SOL    HW256052   4.079  11.508   4.593  1.1856 -0.7121  0.2693
48110SOL     OW56053   5.977   8.343   7.606  0.4933  0.1965 -0.5000
48110SOL    HW156054   5.954   8.412   7.545  0.8936  0.5210 -0.2885
48110SOL    HW256055   6.045   8.292   7.562  0.9789  0.5949 -0.2237
48111SOL     OW56056   8.534   7.174   9.625  0.1587  0.2163 -0.2940
48111SOL    HW156057   8.619   7.190   9.584  0.1951 -0.9324 -0.6819
48111SOL    HW256058   8.496   7.102   9.575  0.2432 -1.2923  1.7200
48112SOL     OW56059   5.013   2.555   0.504  0.4032  0.0141  0.1146
48112SOL    HW156060   5.105   2.573   0.484 -0.1817  0.5731 -2.3536
48112SOL    HW256061   4.964   2.619   0.453 -1.4239 -1.8423 -0.6202
48113SOL     OW56062  11.769  11.202   7.727 -0.7308 -0.2734 -0.1512
48113SOL    HW156063  11.684  11.157   7.732 -0.0415 -1.6446 -0.2854
48113SOL    HW256064  11.773  11.236   7.638 -1.4253  0.4276  0.0678
48114SOL     OW56065   2.514   2.648   9.228  0.8907  0.0076 -0.2594
48114SOL    HW156066   2.472   2.730   9.200 -0.1197 -0.7328 -0.9697
48114SOL    HW256067   2.564   2.673   9.305 -2.2205  0.6650  1.7370
48115SOL     OW56068   8.050   4.746  10.438 -0.4123  0.5575  0.4169
48115SOL    HW156069   7.983   4.702  10.490  1.5233  0.5095  3.0751
48115SOL    HW256070   8.061   4.831  10.480  4.2848 -1.0539  3.2775
48116SOL     OW56071   2.899   5.230  11.894  0.2764  0.4547  0.1926
48116SOL    HW156072   2.850   5.259  11.971  0.0294  0.6082 -0.0208
48116SOL    HW256073   2.844   5.255  11.820  0.9277  1.1152 -0.0795
48117SOL     OW56074   7.483  11.653  10.269  0.1204 -0.7356  0.4214
48117SOL    HW156075   7.476  11.722  10.335 -0.6412  0.8363 -1.2128
48117SOL    HW256076   7.394  11.643  10.235  0.3956 -1.9127  0.0145
48118SOL     OW56077   8.452   4.800   8.209 -0.4112 -0.0719  0.5994
48118SOL    HW156078   8.511   4.861   8.254  0.3555 -2.2559  2.8072
48118SOL    HW256079   8.485   4.797   8.119 -0.9076  3.1661  0.2014
48119SOL     OW56080   8.628   5.750  10.859  0.1376  0.0229 -0.1974
48119SOL    HW156081   8.607   5.764  10.766 -0.2708  1.1882  0.0454
48119SOL    HW256082   8.723   5.749  10.861  0.1740 -1.6672 -0.8292
48120SOL     OW56083   8.317   6.193   5.013 -0.2034 -0.2937 -0.0684
48120SOL    HW156084   8.268   6.267   4.978 -1.2811 -1.2238 -0.5945
48120SOL    HW256085   8.259   6.118   5.000  0.4328 -1.0716  1.3846
48121SOL     OW56086   8.604   7.503   6.619 -0.0654 -0.3802  0.2712
48121SOL    HW156087   8.509   7.519   6.619  0.0816  0.6502 -1.1347
48121SOL    HW256088   8.631   7.519   6.710 -1.1004  0.1285  0.5037
48122SOL     OW56089   4.484   9.190   7.534 -0.5913 -0.1166  0.1321
48122SOL    HW156090   4.520   9.102   7.528  2.2475  1.0013 -0.8887
48122SOL    HW256091   4.472   9.217   7.443 -0.7772  0.8217  0.4270
48123SOL     OW56092   0.976   3.249   8.919 -1.0107  0.4929  0.2122
48123SOL    HW156093   0.932   3.334   8.917 -1.6682  0.2000 -2.6040
48123SOL    HW256094   0.905   3.185   8.918 -0.5859 -0.0093 -1.1846
48124SOL     OW56095   2.093   5.515   2.077 -0.1173  0.6185  0.8537
48124SOL    HW156096   2.121   5.442   2.021 -0.7765 -0.3333  1.7070
48124SOL    HW256097   2.152   5.512   2.152  1.9701  3.0545 -0.5617
48125SOL     OW56098  10.442   3.018  10.968  0.3628 -0.1809  0.1540
48125SOL    HW156099  10.365   2.977  11.006 -1.1101  3.3067  1.4175
48125SOL    HW256100  10.409   3.067  10.893  1.2167  1.5576  0.8520
48126SOL     OW56101   5.654   3.630   5.779 -0.0072 -0.0457 -0.3513
48126SOL    HW156102   5.714   3.655   5.709 -1.1406  2.9554 -0.4071
48126SOL    HW256103   5.575   3.600   5.734 -0.2064  0.4948 -0.3756
48127SOL     OW56104   9.268   0.672   6.315  0.0937  0.4731 -0.0870
48127SOL    HW156105   9.306   0.643   6.232 -1.2423 -1.2520 -0.1663
48127SOL    HW256106   9.174   0.659   6.303 -0.0954 -0.1454  1.8087
48128SOL     OW56107  11.540   3.498   4.669  0.6258 -0.2092  0.0644
48128SOL    HW156108  11.619   3.540   4.636  0.3647  1.1029  0.9863
48128SOL    HW256109  11.554   3.405   4.657  2.4823 -0.0275  0.5573
48129SOL     OW56110  11.894   0.755   0.337  0.1171  0.3302 -0.2779
48129SOL    HW156111  11.920   0.802   0.416 -1.1635  0.3766  0.1446
48129SOL    HW256112  11.917   0.664   0.354 -0.9346  0.1963  0.5294
48130SOL     OW56113   3.442   1.981   8.640 -0.4457 -0.4118 -0.2573
48130SOL    HW156114   3.467   2.061   8.594  0.2584 -2.2791 -3.3827
48130SOL    HW256115   3.521   1.927   8.640 -1.0154 -1.3167  1.4170
48131SOL     OW56116   7.466  10.683   1.300 -0.0933  0.4076 -0.0782
48131SOL    HW156117   7.444  10.615   1.363  2.3656 -1.9658 -1.5204
48131SOL    HW256118   7.382  10.713   1.267 -1.3643 -2.6163  0.0277
48132SOL     OW56119  11.709   1.561   6.266 -0.2186 -0.3479  0.4976
48132SOL    HW156120  11.728   1.539   6.357  1.4980 -0.3780  0.1603
48132SOL    HW256121  11.784   1.527   6.217 -0.0719  1.5081 -0.6695
48133SOL     OW56122   2.908   5.380   0.214  0.1177 -0.1493  0.4939
48133SOL    HW156123   2.857   5.453   0.179 -0.0682  0.4466  1.9539
48133SOL    HW256124   2.854   5.343   0.284  0.7987 -0.8162  0.6852
48134SOL     OW56125   2.847   9.580   8.879 -0.3845  0.3002  0.1764
48134SOL    HW156126   2.940   9.587   8.858  0.1274 -1.3180  1.6903
48134SOL    HW256127   2.811   9.524   8.810  0.5375 -1.9999  1.4705
48135SOL     OW56128   0.088   8.629   5.549 -0.3996 -0.2621  0.4031
48135SOL    HW156129   0.131   8.710   5.577  1.1342 -0.9670  0.1736
48135SOL    HW256130  -0.005   8.651   5.547 -0.0224  1.4771  0.4168
48136SOL     OW56131   1.615  10.281   7.345 -0.3201  0.2590  0.3738
48136SOL    HW156132   1.522  10.281   7.321 -0.4559  0.5643  0.9027
48136SOL    HW256133   1.648  10.364   7.311 -0.6603  1.0010  1.7771
48137SOL     OW56134   5.022   4.361   6.273  0.5216  0.9943 -0.4435
48137SOL    HW156135   5.115   4.384   6.265  0.6980  0.1437 -0.8848
48137SOL    HW256136   4.987   4.369   6.185  0.1865  1.2305 -0.2922
48138SOL     OW56137   6.907   5.558   6.384  0.0050  0.2440 -0.1104
48138SOL    HW156138   6.876   5.476   6.346 -0.8136  0.9325 -1.0140
48138SOL    HW256139   6.891   5.623   6.315  1.8438  0.9609  0.0766
48139SOL     OW56140   6.062  10.510   8.436 -0.0434  0.0998 -0.3305
48139SOL    HW156141   5.971  10.541   8.432  0.6972  2.3518 -1.2619
48139SOL    HW256142   6.079  10.497   8.529 -1.2588 -0.1689 -0.1302
48140SOL     OW56143  11.033   4.565   8.477 -0.3277  0.8154 -0.0830
48140SOL    HW156144  10.952   4.555   8.427 -0.1352  1.1302 -0.4570
48140SOL    HW256145  11.014   4.634   8.541 -0.0166  1.6534 -0.8775
48141SOL     OW56146   8.926   4.331  11.013  0.0427 -0.2434  0.2833
48141SOL    HW156147   8.980   4.255  10.993  0.1924 -0.2306  0.6281
48141SOL    HW256148   8.898   4.364  10.928  1.0372  0.0895  0.0720
48142SOL     OW56149  10.110   0.314   1.233 -0.0839 -0.0252  0.2844
48142SOL    HW156150  10.027   0.352   1.204 -0.3942 -1.9570 -1.6018
48142SOL    HW256151  10.167   0.390   1.245 -2.0728  1.3785  1.7303
48143SOL     OW56152   1.719   3.324   3.849 -0.0632 -0.2669 -0.0233
48143SOL    HW156153   1.787   3.296   3.788 -0.7757  0.8033 -1.3599
48143SOL    HW256154   1.737   3.417   3.863  0.4151 -0.6092  1.8696
48144SOL     OW56155   0.369   3.676   2.259 -0.2466  0.3401 -0.5748
48144SOL    HW156156   0.303   3.645   2.321 -0.5405  1.2007 -0.4435
48144SOL    HW256157   0.328   3.667   2.173 -1.0291  2.0084 -0.4109
48145SOL     OW56158   5.315   7.277   6.432  0.2283  0.2471 -0.4363
48145SOL    HW156159   5.383   7.236   6.487  0.0288 -0.6732 -0.8534
48145SOL    HW256160   5.264   7.330   6.493 -0.8413 -1.8273  0.5700
48146SOL     OW56161   8.264   7.314   2.292  0.3937 -0.2048 -0.1718
48146SOL    HW156162   8.230   7.239   2.341 -1.2663  1.0460  0.6831
48146SOL    HW256163   8.208   7.318   2.214  0.0376  0.5227  0.1168
48147SOL     OW56164  11.802   4.923   5.110  0.0814 -0.2166 -0.2611
48147SOL    HW156165  11.745   4.986   5.067  0.8485 -0.3129 -1.4493
48147SOL    HW256166  11.748   4.887   5.181 -0.4276  1.6191  0.3386
48148SOL     OW56167   6.765   1.650   4.661  0.0726  0.3889  0.7035
48148SOL    HW156168   6.791   1.560   4.682  0.7557  0.4766  0.2885
48148SOL    HW256169   6.675   1.642   4.629  0.1373 -0.1530  0.6427
48149SOL     OW56170   9.289  10.483   1.123  0.1540 -0.0823  0.1123
48149SOL    HW156171   9.354  10.490   1.194 -0.3523 -0.1406  0.5933
48149SOL    HW256172   9.321  10.543   1.056  3.8073 -4.0402 -2.2023
48150SOL     OW56173  11.424   4.732   4.251  0.3843  0.2310 -0.5424
48150SOL    HW156174  11.492   4.750   4.185  0.6482  0.5961 -0.1732
48150SOL    HW256175  11.390   4.646   4.226  1.0101  0.0196 -0.7086
48151SOL     OW56176   9.466  10.432   7.899  0.3455 -0.1013  0.3685
48151SOL    HW156177   9.502  10.481   7.972  0.4123 -1.0897  1.0172
48151SOL    HW256178   9.542  10.397   7.853  0.3463  1.1961 -0.6960
48152SOL     OW56179  10.799   2.957   3.920  0.4006  0.2119 -0.2067
48152SOL    HW156180  10.790   3.052   3.919  0.4900  0.2183 -0.8326
48152SOL    HW256181  10.742   2.927   3.850 -1.4913 -0.3783  1.4849
48153SOL     OW56182   4.721  10.551   7.818 -0.2738 -0.3599  0.2292
48153SOL    HW156183   4.647  10.511   7.774  1.4278 -0.3686 -2.8916
48153SOL    HW256184   4.793  10.488   7.808  0.4130 -0.0326  2.4946
48154SOL     OW56185   5.707   6.617   9.658  0.1668  0.4380 -0.9069
48154SOL    HW156186   5.780   6.561   9.684  1.0223  1.0583 -1.8841
48154SOL    HW256187   5.666   6.642   9.741  0.1303 -1.1167 -0.4243
48155SOL     OW56188   5.512   8.773   4.936  0.0784  0.2121  0.3715
48155SOL    HW156189   5.537   8.751   5.026  0.3522 -1.0573  0.0000
48155SOL    HW256190   5.584   8.741   4.883 -0.7812 -0.4208 -0.4304
48156SOL     OW56191   1.719   9.159   3.656  0.6871  0.0861  0.0227
48156SOL    HW156192   1.719   9.244   3.613  0.7071  1.1454  2.0019
48156SOL    HW256193   1.802   9.155   3.703 -0.2801  0.0177  1.8303
48157SOL     OW56194  11.374   9.007   6.278  0.1954  0.1094 -0.2328
48157SOL    HW156195  11.468   9.024   6.278  0.4584 -1.2927  0.1332
48157SOL    HW256196  11.360   8.945   6.206 -0.7221  1.5907 -1.4036
48158SOL     OW56197   7.297   3.238   0.623  0.6354 -0.5478 -0.2902
48158SOL    HW156198   7.226   3.273   0.569  1.3001 -0.3413 -1.0437
48158SOL    HW256199   7.355   3.194   0.561  2.2721  1.0913 -0.0147
48159SOL     OW56200   2.882   6.312   5.760 -0.2781  0.0413 -0.3061
48159SOL    HW156201   2.903   6.351   5.845  0.0004 -0.1102 -0.3027
48159SOL    HW256202   2.966   6.279   5.728 -0.6482 -1.3660  0.0911
48160SOL     OW56203  11.940   1.514  11.029  0.2570 -0.5995 -0.1822
48160SOL    HW156204  11.973   1.581  10.969 -1.0152  0.5721  0.3648
48160SOL    HW256205  12.019   1.476  11.068  1.1083 -1.3456 -2.5060
48161SOL     OW56206   0.744   5.750   4.350 -0.2248  0.2711 -0.5026
48161SOL    HW156207   0.693   5.669   4.338  1.3200 -0.5226 -2.3600
48161SOL    HW256208   0.736   5.770   4.443 -1.3970 -1.5159 -0.1637
48162SOL     OW56209   1.720   4.656   2.356 -0.4382  0.2891  0.3498
48162SOL    HW156210   1.679   4.738   2.384 -0.0112  0.1065  1.5747
48162SOL    HW256211   1.734   4.607   2.437 -0.2550 -0.8003 -0.3150
48163SOL     OW56212   3.415   1.831   0.359 -0.0463  0.4218 -0.2287
48163SOL    HW156213   3.339   1.889   0.374 -0.0775  0.3480 -0.0957
48163SOL    HW256214   3.454   1.821   0.446  0.2264  0.6122 -0.3294
48164SOL     OW56215   3.980   7.389  11.319 -0.0588 -0.0230  0.0242
48164SOL    HW156216   3.896   7.408  11.278 -0.8597 -0.5725  1.3582
48164SOL    HW256217   3.974   7.427  11.407  0.4492 -1.4620  0.7123
48165SOL     OW56218   8.118  10.305   5.679  0.0089 -0.0400  0.3970
48165SOL    HW156219   8.210  10.324   5.664  0.7742 -2.6281  1.3673
48165SOL    HW256220   8.118  10.228   5.736 -2.7589  0.6004  1.4141
48166SOL     OW56221   5.324   9.169   4.892 -0.1903 -0.2612  0.5841
48166SOL    HW156222   5.297   9.114   4.818 -0.8596  2.2704 -1.1934
48166SOL    HW256223   5.396   9.121   4.932 -1.7843 -3.1957  0.2315
48167SOL     OW56224   2.120   6.133  10.706  0.8417  0.4406  0.0396
48167SOL    HW156225   2.125   6.192  10.781 -0.0491 -0.5278  0.8885
48167SOL    HW256226   2.195   6.075  10.715  2.7569  2.4403 -1.7523
48168SOL     OW56227   7.675   0.614  10.824 -0.1954 -0.5493 -0.5813
48168SOL    HW156228   7.767   0.589  10.817  0.7957  1.9061  1.8639
48168SOL    HW256229   7.677   0.708  10.845 -3.2086 -0.6729  0.8049
48169SOL     OW56230   1.688  11.754   0.095 -0.7382 -0.4965 -0.0222
48169SOL    HW156231   1.772  11.708   0.091 -0.2294  0.4577 -0.9757
48169SOL    HW256232   1.622  11.686   0.083 -0.1821 -1.4225  1.8157
48170SOL     OW56233  10.421   8.760  10.268 -0.1116 -0.6515  0.6435
48170SOL    HW156234  10.337   8.801  10.288  0.2659 -0.4319  1.8375
48170SOL    HW256235  10.470   8.827  10.220 -1.1333 -1.2806 -1.3761
48171SOL     OW56236   6.325   4.595   8.081 -0.1189 -0.2798  0.2558
48171SOL    HW156237   6.301   4.603   7.989  1.0117 -0.4626 -0.0688
48171SOL    HW256238   6.252   4.636   8.128  0.0699  1.3466 -0.7931
48172SOL     OW56239   4.374   6.068   6.005  0.4384  0.1787  0.2331
48172SOL    HW156240   4.325   6.003   5.956 -0.8920  1.3354 -0.0290
48172SOL    HW256241   4.444   6.018   6.048 -1.9521 -1.8402  2.0360
48173SOL     OW56242   2.385   2.690   0.486 -0.0094  0.3773  0.1508
48173SOL    HW156243   2.385   2.785   0.478  1.0190  0.3397 -0.3571
48173SOL    HW256244   2.464   2.662   0.441 -0.9092 -0.8150 -0.7361
48174SOL     OW56245   6.544   0.079   8.137  0.2491 -0.2820  0.7786
48174SOL    HW156246   6.589   0.008   8.091  0.5396  0.0509  0.5417
48174SOL    HW256247   6.575   0.074   8.227  1.3926  0.4428  0.4448
48175SOL     OW56248   9.729   8.281  10.635  0.3763 -0.1651 -0.6214
48175SOL    HW156249   9.805   8.255  10.583  1.1619 -0.0215  0.4161
48175SOL    HW256250   9.707   8.369  10.603  0.3319 -0.4065 -1.2663
48176SOL     OW56251   8.723   2.999   8.759  0.0159  0.0801  0.0053
48176SOL    HW156252   8.736   2.910   8.792  1.1324 -0.3345 -1.4519
48176SOL    HW256253   8.651   2.991   8.697 -0.3352  0.3398  0.3750
48177SOL     OW56254   6.001   8.745   4.676 -0.2268 -0.5866 -0.0565
48177SOL    HW156255   5.995   8.782   4.587 -0.2512  0.0099  0.1860
48177SOL    HW256256   6.076   8.789   4.715 -1.1400  0.3318  0.7389
48178SOL     OW56257   4.789   9.242   7.991  0.2604  0.1929  0.6571
48178SOL    HW156258   4.713   9.212   8.040 -0.6737  1.4823  0.0648
48178SOL    HW256259   4.808   9.172   7.929 -1.6063  0.6003 -0.4352
48179SOL     OW56260   2.103   7.697   0.349 -0.4492 -0.2091 -0.0265
48179SOL    HW156261   2.114   7.789   0.374  0.9845 -0.2282 -0.4838
48179SOL    HW256262   2.024   7.695   0.295  0.0798  0.9469 -0.8784
48180SOL     OW56263   0.907   1.999   3.717 -0.2780 -0.4552  0.3867
48180SOL    HW156264   0.990   1.951   3.719 -0.5003 -1.2407 -2.9719
48180SOL    HW256265   0.840   1.931   3.710 -1.1981  0.1985  2.2798
48181SOL     OW56266   2.848   4.681  11.870 -0.3834 -0.1305  0.0374
48181SOL    HW156267   2.779   4.678  11.804 -1.6089 -0.9087  1.2987
48181SOL    HW256268   2.877   4.590  11.880  1.0102  0.2094 -0.6273
48182SOL     OW56269   8.288   9.767   5.797 -0.1056  0.1465  0.1771
48182SOL    HW156270   8.366   9.765   5.741 -0.4052 -2.6354 -0.2680
48182SOL    HW256271   8.307   9.703   5.866 -0.8002  1.6673  1.8552
48183SOL     OW56272   8.098   1.539   4.161 -0.3143 -0.3459  0.5210
48183SOL    HW156273   8.188   1.516   4.183 -0.5117 -1.2133  0.4390
48183SOL    HW256274   8.072   1.603   4.228  0.0824 -0.7085  1.0253
48184SOL     OW56275   2.880   8.954   3.576 -0.0565  0.2589 -0.1793
48184SOL    HW156276   2.931   8.952   3.656 -1.2939  1.3033  0.6851
48184SOL    HW256277   2.813   8.886   3.588  0.9806 -0.9818 -1.2239
48185SOL     OW56278   1.629  11.086   3.503 -0.1980  0.0999  0.5223
48185SOL    HW156279   1.573  11.108   3.577 -0.3201  0.9785  0.1769
48185SOL    HW256280   1.573  11.094   3.426  0.5498  1.7129  0.0967
48186SOL     OW56281   4.097  11.588   6.568  0.1926 -0.6551 -0.2003
48186SOL    HW156282   4.132  11.515   6.518 -0.3252 -1.5019  0.6497
48186SOL    HW256283   4.008  11.562   6.590  0.6045 -0.6257  1.7378
48187SOL     OW56284   1.409   2.066   6.403  0.6797 -0.9537 -0.4358
48187SOL    HW156285   1.442   2.153   6.424 -0.9864 -0.8224  2.0616
48187SOL    HW256286   1.451   2.008   6.467  0.0176 -1.6051 -0.5732
48188SOL     OW56287   7.659   3.898   0.469  0.1873  0.4899 -0.0722
48188SOL    HW156288   7.698   3.821   0.430  0.0338 -0.5630  1.7278
48188SOL    HW256289   7.666   3.884   0.563 -1.1656  1.9896  0.3142
48189SOL     OW56290   6.474   8.313   7.165  0.1626 -0.1235 -0.3925
48189SOL    HW156291   6.488   8.299   7.071 -1.3088 -0.1533 -0.6262
48189SOL    HW256292   6.379   8.323   7.174  0.1459 -1.4010  1.2785
48190SOL     OW56293   0.304   0.747   1.047  0.1327  0.3483 -0.7179
48190SOL    HW156294   0.259   0.662   1.053 -1.8294  1.4488  2.4296
48190SOL    HW256295   0.292   0.774   0.956 -0.4657 -2.0502 -1.4233
48191SOL     OW56296   1.823  11.333   1.801  0.1135  0.4141  0.5869
48191SOL    HW156297   1.833  11.298   1.712  0.3501 -1.7206  1.3743
48191SOL    HW256298   1.877  11.411   1.803  0.1057  0.4940 -1.1465
48192SOL     OW56299   7.478   8.627  11.543  0.6478  0.1126  0.4598
48192SOL    HW156300   7.434   8.568  11.482  1.2329 -0.3456  0.4667
48192SOL    HW256301   7.416   8.639  11.615  0.1371  0.2873 -0.0059
48193SOL     OW56302   9.512   8.244   8.402 -0.5187 -0.0917  0.3988
48193SOL    HW156303   9.543   8.209   8.485  0.1330 -3.1096 -0.9475
48193SOL    HW256304   9.427   8.201   8.389 -1.7026  2.0783  0.4575
48194SOL     OW56305   0.033   6.671   4.516 -0.3031 -0.6954  0.1618
48194SOL    HW156306   0.076   6.666   4.601 -1.4000 -1.6366  0.6863
48194SOL    HW256307   0.077   6.744   4.471  0.0541  0.0417  1.6471
48195SOL     OW56308   3.521   4.647   5.330  0.1157 -0.2379 -0.1088
48195SOL    HW156309   3.469   4.589   5.385 -2.2380  0.2645 -1.6498
48195SOL    HW256310   3.533   4.598   5.248  1.8456 -0.1961  0.0802
48196SOL     OW56311   5.505   6.584   2.582  0.3743  0.0258  0.5558
48196SOL    HW156312   5.431   6.641   2.563 -0.7362 -1.2897  0.7971
48196SOL    HW256313   5.551   6.576   2.498  0.8305  1.6141  0.6251
48197SOL     OW56314   3.464  11.036   3.200  0.1828  0.2030  0.3361
48197SOL    HW156315   3.515  11.021   3.121  0.1579  0.0058  0.3562
48197SOL    HW256316   3.472  11.130   3.216  2.3702 -0.1132  1.5625
48198SOL     OW56317  11.868   9.156   8.822 -0.2872  0.1923 -0.2832
48198SOL    HW156318  11.839   9.089   8.884  0.6024 -0.8115 -0.9171
48198SOL    HW256319  11.908   9.107   8.751  0.0214  1.3904 -0.9600
48199SOL     OW56320   5.527   9.122   8.197 -0.3284  0.1366  0.3774
48199SOL    HW156321   5.510   9.028   8.200 -0.8218  0.2237  0.4416
48199SOL    HW256322   5.503   9.148   8.108 -2.4700  0.6073  1.0404
48200SOL     OW56323   3.058   5.201  10.105  0.3175 -0.4642  0.6049
48200SOL    HW156324   2.984   5.260  10.094  0.6056  0.0450  1.3276
48200SOL    HW256325   3.036   5.124  10.052 -0.8561 -0.4483  1.0387
48201SOL     OW56326   3.982   6.707   4.592 -0.2708 -0.2932  0.3629
48201SOL    HW156327   4.038   6.779   4.621 -1.5651  0.5420  0.9182
48201SOL    HW256328   3.962   6.659   4.672  0.5163 -1.2495  0.0049
48202SOL     OW56329  10.480  10.863   3.088 -0.5583 -0.4404 -0.1574
48202SOL    HW156330  10.539  10.881   3.161 -0.6142  1.8318 -0.6072
48202SOL    HW256331  10.407  10.816   3.128 -0.9488  1.4138  1.4753
48203SOL     OW56332   6.566  11.141  10.985 -0.1390 -0.3903 -0.2950
48203SOL    HW156333   6.588  11.066  11.040  1.8687 -1.1271 -1.9610
48203SOL    HW256334   6.495  11.109  10.929 -0.3031 -0.5382 -0.0068
48204SOL     OW56335   0.586  10.292   1.910 -0.5011  0.1943 -0.4529
48204SOL    HW156336   0.670  10.289   1.864 -0.9953  0.8332 -1.4378
48204SOL    HW256337   0.603  10.249   1.994  1.1610  1.5149 -0.0583
48205SOL     OW56338   7.590  11.863  11.445 -0.8202 -0.0792 -0.4956
48205SOL    HW156339   7.564  11.931  11.383  1.3381  1.0938 -0.2306
48205SOL    HW256340   7.555  11.892  11.529  0.4007  0.9846 -0.3108
48206SOL     OW56341   6.000  11.240  11.594  0.7847  0.1739  1.1145
48206SOL    HW156342   6.061  11.178  11.554  1.7720  2.2864 -0.8497
48206SOL    HW256343   5.927  11.244  11.532  0.1419  0.1004  1.8473
48207SOL     OW56344   1.340   9.961   4.767 -0.3002  0.2911 -0.0198
48207SOL    HW156345   1.417   9.905   4.772 -0.7596 -0.2393  2.6945
48207SOL    HW256346   1.287   9.922   4.697  1.2440 -0.1292 -1.0028
48208SOL     OW56347   3.577   4.964   4.435  0.5190  0.1123  0.4835
48208SOL    HW156348   3.580   5.018   4.514  0.2527  1.2816 -0.2824
48208SOL    HW256349   3.514   5.007   4.378  0.9451 -0.5184 -0.5035
48209SOL     OW56350   7.714   4.579   1.922  0.0511  0.4076  0.1320
48209SOL    HW156351   7.678   4.648   1.978 -0.3310  0.5334 -0.2641
48209SOL    HW256352   7.805   4.606   1.907 -0.1266  0.8812 -0.1066
48210SOL     OW56353   6.785   1.250   1.167 -0.2553 -0.2445 -0.1678
48210SOL    HW156354   6.874   1.225   1.189  0.4244  2.0796 -0.0794
48210SOL    HW256355   6.731   1.207   1.233  0.8374 -1.1907  0.1392
48211SOL     OW56356   6.928   7.202   5.329  0.1871  0.0482  0.2203
48211SOL    HW156357   6.994   7.156   5.277 -1.8334 -0.7041 -1.8755
48211SOL    HW256358   6.866   7.134   5.354 -1.6881  1.2038 -1.0346
48212SOL     OW56359   2.210  10.925   7.794  0.7823  0.0874 -0.4943
48212SOL    HW156360   2.259  10.843   7.802  1.0897 -0.1008 -3.2035
48212SOL    HW256361   2.122  10.898   7.768  1.0395  0.5769 -1.9669
48213SOL     OW56362   4.480   7.843   8.205  0.7263 -0.0820  0.1515
48213SOL    HW156363   4.497   7.869   8.115  0.3656  0.3627  0.2103
48213SOL    HW256364   4.453   7.751   8.199  1.2851 -0.2287 -0.1291
48214SOL     OW56365   7.999   3.791   3.273  0.6763  0.0120  0.0822
48214SOL    HW156366   7.906   3.816   3.273  0.8628  0.7181  0.0025
48214SOL    HW256367   8.009   3.740   3.193  0.5110  0.5561 -0.2988
48215SOL     OW56368   2.830   5.277   2.231 -0.2349  0.2309  0.3391
48215SOL    HW156369   2.807   5.351   2.288 -1.1910  0.2070  0.0089
48215SOL    HW256370   2.833   5.315   2.143  1.2855  0.2804  0.3807
48216SOL     OW56371   5.535   5.802  10.403  0.0050 -0.5832 -0.9556
48216SOL    HW156372   5.610   5.838  10.451  0.0606 -1.4944 -0.3244
48216SOL    HW256373   5.521   5.863  10.331 -0.4768  1.2002  0.5580
48217SOL     OW56374   6.313   2.562   6.811 -0.1791  0.1511 -0.2347
48217SOL    HW156375   6.375   2.528   6.875  0.8341  1.4686 -0.4717
48217SOL    HW256376   6.358   2.636   6.770 -1.5560  0.5733 -1.0780
48218SOL     OW56377   8.173   6.783  11.550  0.7570  0.1979  0.1266
48218SOL    HW156378   8.100   6.746  11.500  1.9046  0.1591 -1.6039
48218SOL    HW256379   8.132   6.837  11.617 -0.8993 -1.6251  0.6800
48219SOL     OW56380   0.166   1.990   7.377  0.4052 -0.0798  0.4886
48219SOL    HW156381   0.244   1.964   7.328  0.5858  1.1596  0.0840
48219SOL    HW256382   0.135   1.909   7.417 -0.2737 -1.3539 -2.3702
48220SOL     OW56383   7.730   5.113   1.916 -0.3835  0.8159 -0.2548
48220SOL    HW156384   7.691   5.116   2.003  1.5283 -0.2348  0.7154
48220SOL    HW256385   7.700   5.031   1.878  2.8930 -1.4810  1.6397
48221SOL     OW56386   7.358   9.866   5.020 -0.1270 -0.1928  0.2985
48221SOL    HW156387   7.277   9.823   5.048 -0.4436  0.1319 -0.1090
48221SOL    HW256388   7.377   9.929   5.089 -1.3017  1.1263 -0.5438
48222SOL     OW56389   8.341  11.264   2.464  0.1672  0.3709 -0.3430
48222SOL    HW156390   8.298  11.293   2.545  0.6563  0.0016  0.0555
48222SOL    HW256391   8.421  11.220   2.494  0.5159  0.5179 -1.0454
48223SOL     OW56392   6.118   7.762   0.054 -0.1340  0.2829  0.9572
48223SOL    HW156393   6.174   7.717  -0.008 -0.7504  0.6551  0.1038
48223SOL    HW256394   6.081   7.693   0.108 -0.4028 -0.1559  0.2193
48224SOL     OW56395   2.439   1.530   0.332 -0.2323  0.4541  0.3283
48224SOL    HW156396   2.506   1.463   0.315  1.1061  1.3156  1.8697
48224SOL    HW256397   2.371   1.483   0.382 -0.3684 -0.2245 -0.4705
48225SOL     OW56398   9.736   3.601   0.093  0.1801 -0.0466  0.4207
48225SOL    HW156399   9.674   3.670   0.071 -0.3261 -0.3962  0.7313
48225SOL    HW256400   9.821   3.634   0.063 -0.0385  0.7466  0.6561
48226SOL     OW56401  11.023   0.850   7.879  0.0533  0.2680 -0.0986
48226SOL    HW156402  10.930   0.853   7.899  0.1122  0.2699  0.1783
48226SOL    HW256403  11.060   0.790   7.944  0.4583  1.3037  0.6454
48227SOL     OW56404   0.271  10.627  10.236 -0.6643  0.4450 -0.0967
48227SOL    HW156405   0.286  10.697  10.173 -1.2853  1.6582  1.0595
48227SOL    HW256406   0.358  10.609  10.273 -0.2578 -0.4162 -1.3809
48228SOL     OW56407   4.429   8.255   4.635 -0.4213 -0.7311  0.0149
48228SOL    HW156408   4.362   8.222   4.575  0.3485 -0.8527 -0.8031
48228SOL    HW256409   4.406   8.217   4.720 -2.4652  0.7429  0.1965
48229SOL     OW56410   2.278  10.234   4.542 -0.0749 -0.1676  0.0987
48229SOL    HW156411   2.317  10.181   4.472 -0.3403  0.0354 -0.2051
48229SOL    HW256412   2.306  10.323   4.523 -0.0349 -0.1282  0.3315
48230SOL     OW56413   7.999   2.270  11.004  0.1863 -0.0041  0.4086
48230SOL    HW156414   7.977   2.228  11.087  0.4819 -1.0390 -0.0203
48230SOL    HW256415   8.042   2.352  11.030  2.5702 -1.4413  1.3551
48231SOL     OW56416   5.192   3.065   3.600 -0.2620 -0.3516 -0.8961
48231SOL    HW156417   5.103   3.044   3.570 -0.6855  1.7517 -1.3156
48231SOL    HW256418   5.183   3.078   3.694 -0.8517  1.5956 -1.1658
48232SOL     OW56419   4.760   7.664  11.284 -0.4625 -0.1926 -0.1841
48232SOL    HW156420   4.772   7.572  11.309 -1.3239 -0.1508  0.4081
48232SOL    HW256421   4.782   7.713  11.363 -0.8439  0.0657 -0.2365
48233SOL     OW56422   8.758   6.655  10.352 -0.6189 -0.4893  0.2982
48233SOL    HW156423   8.811   6.658  10.432 -0.5129  2.2044  0.2389
48233SOL    HW256424   8.695   6.585  10.367  0.2149 -0.8907  2.2064
48234SOL     OW56425   3.483   8.818   8.484  0.6696 -0.5408  0.0168
48234SOL    HW156426   3.394   8.785   8.495 -0.2297  1.5496 -0.5752
48234SOL    HW256427   3.532   8.742   8.451 -1.2139 -1.3565 -1.0824
48235SOL     OW56428   9.653   2.515   1.756 -0.5687  0.0794 -0.0445
48235SOL    HW156429   9.737   2.541   1.717 -0.4984 -1.3532 -0.9157
48235SOL    HW256430   9.596   2.500   1.681 -1.1566 -0.4210  0.4909
48236SOL     OW56431  10.641   9.502  10.335 -0.2769  0.2667  0.6081
48236SOL    HW156432  10.619   9.584  10.378 -1.8724  0.4113 -0.4242
48236SOL    HW256433  10.734   9.511  10.313 -0.4373  1.8209  0.4767
48237SOL     OW56434   6.882   8.611   2.881 -0.1242  0.4406  0.7795
48237SOL    HW156435   6.942   8.680   2.911 -1.0390  1.6026  0.0225
48237SOL    HW256436   6.797   8.635   2.918 -0.7196  0.4536 -0.5549
48238SOL     OW56437   7.031  10.530   3.761  0.3872 -0.3188 -0.5695
48238SOL    HW156438   7.119  10.497   3.741  1.4588  0.4736  2.2886
48238SOL    HW256439   7.010  10.589   3.688  1.9229 -1.0232 -1.6351
48239SOL     OW56440  11.873   5.438  10.459 -0.0666 -0.3012 -0.4639
48239SOL    HW156441  11.897   5.499  10.529 -0.2286  0.6415 -1.2128
48239SOL    HW256442  11.926   5.360  10.476 -0.9458 -0.5489  1.3781
48240SOL     OW56443   2.677  11.494  10.065 -0.3371 -0.0937  0.3503
48240SOL    HW156444   2.718  11.470  10.148 -1.8158 -1.1079  0.8291
48240SOL    HW256445   2.688  11.417  10.009  0.1969  0.3941 -0.2397
48241SOL     OW56446   0.113   6.933   8.933 -0.1491  0.1392  0.2377
48241SOL    HW156447   0.131   6.897   9.020 -0.7554 -0.1789  0.2376
48241SOL    HW256448   0.089   7.024   8.948 -0.0285  0.1473  0.3791
48242SOL     OW56449   3.188   7.204  11.655  0.2106 -0.0693  0.1618
48242SOL    HW156450   3.199   7.278  11.596  0.7127  0.1158  0.4843
48242SOL    HW256451   3.200   7.241  11.742 -3.3203  0.2923  0.6757
48243SOL     OW56452   6.402   3.651   1.078 -0.2267  0.1340  0.2810
48243SOL    HW156453   6.323   3.660   1.024 -0.4295  0.3671  0.6102
48243SOL    HW256454   6.445   3.736   1.070 -0.5360  0.3555  0.9141
48244SOL     OW56455   9.786  10.541   9.008  0.4135  0.1687  0.1554
48244SOL    HW156456   9.867  10.580   9.042  1.2069 -0.7769 -0.5654
48244SOL    HW256457   9.815  10.486   8.935 -0.7186 -1.2551  0.7296
48245SOL     OW56458   3.517   8.392   9.695  0.3434 -0.5691 -0.3015
48245SOL    HW156459   3.524   8.366   9.787 -1.1925 -0.7473 -0.2004
48245SOL    HW256460   3.530   8.486   9.695 -1.5403 -0.2602  0.4055
48246SOL     OW56461   6.485   3.342   1.276 -0.2857 -0.1590  0.2214
48246SOL    HW156462   6.516   3.424   1.314  0.0447 -0.7609  1.2847
48246SOL    HW256463   6.400   3.328   1.317  0.4232 -1.2176  1.4107
48247SOL     OW56464   8.453   8.961   8.203 -0.3784 -0.3165  0.1997
48247SOL    HW156465   8.516   9.013   8.154  1.0788 -1.3636  0.9030
48247SOL    HW256466   8.383   8.942   8.140  1.0335 -0.9255 -1.2350
48248SOL     OW56467   0.525   5.550   5.861 -0.0620  0.2491  0.1567
48248SOL    HW156468   0.573   5.555   5.943 -0.8798 -0.1709  0.6725
48248SOL    HW256469   0.476   5.632   5.856 -3.5760 -1.4398  2.3928
48249SOL     OW56470   5.337   3.642   7.258 -0.1724  0.6840  0.4442
48249SOL    HW156471   5.388   3.664   7.336 -1.9338  1.0947  1.5340
48249SOL    HW256472   5.248   3.626   7.291 -0.4943 -1.2960 -1.2018
48250SOL     OW56473   8.344   4.329   5.397 -0.1830 -0.1835 -0.1279
48250SOL    HW156474   8.288   4.376   5.459 -0.2001 -1.0704  0.5481
48250SOL    HW256475   8.432   4.339   5.432 -0.0646  0.1376 -0.5045
48251SOL     OW56476   5.920   9.282   2.213 -0.1247  0.4470 -0.0288
48251SOL    HW156477   5.986   9.221   2.245 -0.3515 -0.2200 -0.7915
48251SOL    HW256478   5.970   9.359   2.185  0.2162  0.3968  0.4266
48252SOL     OW56479   2.327  11.732   5.109  0.4914  0.3437 -0.2407
48252SOL    HW156480   2.418  11.733   5.138  1.3718 -1.4196 -2.6201
48252SOL    HW256481   2.320  11.808   5.050  0.5857  0.2089 -0.4287
48253SOL     OW56482   1.584   0.032   3.456  0.8656 -0.0469  0.3196
48253SOL    HW156483   1.649   0.063   3.393 -0.0995  3.2155  0.7308
48253SOL    HW256484   1.636  -0.011   3.524  2.3087  0.1576 -0.5897
48254SOL     OW56485  10.785   4.869  10.192 -0.1257  0.2589 -0.4584
48254SOL    HW156486  10.818   4.801  10.133  1.6394  0.4070  0.3005
48254SOL    HW256487  10.775   4.824  10.276  1.7581  1.0449  0.2385
48255SOL     OW56488   5.116   0.787   9.141 -0.6429 -0.0772 -0.2882
48255SOL    HW156489   5.151   0.834   9.065 -0.4267  0.6792  0.2611
48255SOL    HW256490   5.043   0.736   9.107  0.2982 -0.8259 -1.2551
48256SOL     OW56491   3.982   9.018   4.740  0.2032 -0.3935  0.2308
48256SOL    HW156492   3.914   9.085   4.752 -0.3997 -0.9164 -0.2437
48256SOL    HW256493   3.962   8.977   4.656  0.0751 -1.7331  0.8878
48257SOL     OW56494   3.675   9.426   5.716  0.3564 -0.3088  0.0576
48257SOL    HW156495   3.741   9.495   5.715 -2.0407  2.2193  1.6646
48257SOL    HW256496   3.649   9.415   5.625  1.1088  0.6056 -0.2775
48258SOL     OW56497   5.320   1.504   5.494 -0.1967 -0.3566 -0.1619
48258SOL    HW156498   5.316   1.573   5.429  1.8771 -0.1616 -0.1301
48258SOL    HW256499   5.335   1.424   5.443 -0.4610 -0.4829 -0.0454
48259SOL     OW56500   8.928   2.033   7.428 -0.3926  0.2429  0.4126
48259SOL    HW156501   8.846   1.997   7.462 -0.7496 -0.3073 -0.9724
48259SOL    HW256502   8.901   2.098   7.362  0.1186 -2.6742 -2.9872
48260SOL     OW56503   7.508  11.016   8.360  0.1493 -0.1175 -0.1131
48260SOL    HW156504   7.488  11.062   8.278 -0.3177  0.5624  0.3646
48260SOL    HW256505   7.437  11.043   8.419  1.6283  1.1353  1.1697
48261SOL     OW56506   4.086  11.186  10.326 -0.6214 -0.2003 -0.3519
48261SOL    HW156507   4.042  11.169  10.243  0.0238 -1.9312 -0.3864
48261SOL    HW256508   4.023  11.159  10.393 -0.8358  0.4213 -0.3026
48262SOL     OW56509   8.101   7.003   7.932  0.0784  0.4216 -0.1640
48262SOL    HW156510   8.050   7.077   7.899  0.2816  0.3683 -0.6090
48262SOL    HW256511   8.042   6.958   7.992 -1.2233 -0.9019 -2.2938
48263SOL     OW56512   3.559   5.121   0.443 -0.4825  0.2854 -0.3055
48263SOL    HW156513   3.475   5.160   0.423 -0.2462  0.9664 -0.0054
48263SOL    HW256514   3.588   5.166   0.523  0.5579  0.6791 -0.8887
48264SOL     OW56515   0.452   2.733   2.098  0.1209 -0.7184  0.3808
48264SOL    HW156516   0.359   2.756   2.091  0.1783 -0.4535  0.5003
48264SOL    HW256517   0.492   2.773   2.021  0.2036 -0.4916  0.5390
48265SOL     OW56518   4.032   9.388  11.771  0.1804  0.4978  0.0327
48265SOL    HW156519   3.980   9.468  11.780 -0.5755 -0.1354  1.6076
48265SOL    HW256520   4.045   9.358  11.860  2.2318 -0.0480 -0.4017
48266SOL     OW56521   6.673   4.869   1.986 -0.5245 -0.2742 -0.2212
48266SOL    HW156522   6.579   4.865   2.004 -0.3964 -0.8648  0.3182
48266SOL    HW256523   6.693   4.963   1.987 -0.8175 -0.2058  1.2032
48267SOL     OW56524   6.200   3.157  10.222  0.0994  0.4828 -0.2907
48267SOL    HW156525   6.244   3.233  10.259 -1.8053  1.6816 -0.3391
48267SOL    HW256526   6.270   3.094  10.203  1.5163  1.4481  1.5362
48268SOL     OW56527   9.641  10.302   5.307 -0.2851  0.5486  0.3496
48268SOL    HW156528   9.570  10.286   5.369  0.5391  0.3698  1.2615
48268SOL    HW256529   9.600  10.356   5.238 -1.3936  0.1261  0.6479
48269SOL     OW56530   4.682   9.350  10.194  0.3353  0.3352  1.0577
48269SOL    HW156531   4.741   9.280  10.165  1.9540  1.5335  1.3076
48269SOL    HW256532   4.732   9.431  10.181 -0.9453  1.3399  2.0732
48270SOL     OW56533   3.029   4.940  10.488 -0.1968 -0.2065 -0.2380
48270SOL    HW156534   3.105   4.957  10.545 -0.1442 -0.4107 -0.2482
48270SOL    HW256535   3.027   5.015  10.428  0.4244 -0.5578 -0.7039
48271SOL     OW56536   3.968   0.437   7.352 -0.3542  0.6467  0.1749
48271SOL    HW156537   4.015   0.518   7.369 -0.2019 -0.0194  3.6542
48271SOL    HW256538   3.876   0.462   7.348 -0.2083  1.1382 -0.1478
48272SOL     OW56539   2.695   4.409   0.521  0.2480  0.1473  0.3259
48272SOL    HW156540   2.786   4.438   0.512  0.6471 -0.0326  2.9197
48272SOL    HW256541   2.701   4.318   0.548 -0.7597 -0.2120 -0.6078
48273SOL     OW56542   1.578   5.567  10.808  0.1764 -0.0263 -0.1340
48273SOL    HW156543   1.614   5.654  10.821 -1.3851  0.5415  0.6370
48273SOL    HW256544   1.486   5.581  10.788  0.6363 -1.2971 -4.2128
48274SOL     OW56545   7.580   8.982  11.250 -0.2269 -0.0982 -0.4609
48274SOL    HW156546   7.569   8.887  11.245 -0.3656 -0.1239  0.3175
48274SOL    HW256547   7.515   9.016  11.189 -1.3255 -0.4423  0.4861
48275SOL     OW56548   9.738   4.377   8.953 -0.2624 -0.5132  0.4664
48275SOL    HW156549   9.770   4.464   8.975 -0.9314 -0.1883  0.1976
48275SOL    HW256550   9.644   4.381   8.971 -0.4463 -0.9106 -0.3478
48276SOL     OW56551   6.857   8.438   6.405  0.1869 -0.0241 -0.1958
48276SOL    HW156552   6.920   8.405   6.469 -0.3064 -0.4087  0.0969
48276SOL    HW256553   6.896   8.519   6.373  2.1686 -1.6197 -2.0594
48277SOL     OW56554   1.047   8.426   8.007  0.5460  0.0681 -0.0774
48277SOL    HW156555   1.084   8.349   7.964  0.9581  1.1306 -1.7111
48277SOL    HW256556   1.122   8.470   8.046  0.1107 -1.1918  2.3732
48278SOL     OW56557   2.525   5.087  11.813 -0.1087  0.2991  0.6831
48278SOL    HW156558   2.445   5.137  11.798 -0.1787  0.3027  1.0468
48278SOL    HW256559   2.519   5.012  11.755  1.2467  2.0636 -1.9356
48279SOL     OW56560   3.225   1.309   2.836  0.3678  0.4738  0.0274
48279SOL    HW156561   3.307   1.260   2.829  0.6885  0.8655  1.0198
48279SOL    HW256562   3.157   1.245   2.813  1.0021  0.4713 -2.0928
48280SOL     OW56563   5.496   8.489   5.453  0.0958  0.0188 -0.6108
48280SOL    HW156564   5.537   8.516   5.370  0.1129 -0.5786 -0.7988
48280SOL    HW256565   5.505   8.394   5.454 -1.3069 -0.1345 -0.6775
48281SOL     OW56566   3.413  10.792   3.344 -0.1122 -0.3058  0.5858
48281SOL    HW156567   3.445  10.882   3.347  0.4829 -0.4402 -0.8975
48281SOL    HW256568   3.402  10.774   3.251 -2.3373 -1.0465  0.9477
48282SOL     OW56569   1.246   3.285   6.214  0.2490  0.5597  0.3570
48282SOL    HW156570   1.225   3.244   6.298 -0.1023 -1.5407 -0.6988
48282SOL    HW256571   1.184   3.358   6.208 -0.0149  0.4843  1.7150
48283SOL     OW56572   3.741   2.983   0.602  0.5747  0.2418  0.1449
48283SOL    HW156573   3.815   3.032   0.636  0.7465 -0.9575  1.6142
48283SOL    HW256574   3.777   2.932   0.529  1.3093 -0.5870  1.0575
48284SOL     OW56575   4.246   9.551   5.126 -0.3168 -0.1511 -0.6964
48284SOL    HW156576   4.329   9.503   5.122 -0.2967 -0.1696 -0.1430
48284SOL    HW256577   4.204   9.518   5.206 -0.3521  0.6697 -0.3698
48285SOL     OW56578   9.821  10.287   4.153  0.4654 -0.6649 -0.3449
48285SOL    HW156579   9.766  10.267   4.077 -0.2547  1.0467 -0.3248
48285SOL    HW256580   9.802  10.217   4.215 -0.4118 -1.0419 -1.0051
48286SOL     OW56581   3.667  10.891   9.276  0.4144  0.5083 -0.0419
48286SOL    HW156582   3.641  10.980   9.300  0.5987  1.1960 -2.1362
48286SOL    HW256583   3.610  10.869   9.202  0.9096 -0.8077 -0.0514
48287SOL     OW56584   1.385   8.037   0.616 -0.5479  0.5966  0.3306
48287SOL    HW156585   1.454   8.004   0.559  0.2334  1.4368  0.7724
48287SOL    HW256586   1.430   8.093   0.679 -1.6710  1.4566  0.4008
48288SOL     OW56587   3.799   2.151   6.960 -0.0282  0.3948  0.2305
48288SOL    HW156588   3.765   2.089   7.024 -1.2875  2.0578  1.2449
48288SOL    HW256589   3.726   2.166   6.900  1.0918 -1.0479 -1.6259
48289SOL     OW56590   6.892   1.485   6.400  0.4843  0.2124 -0.2169
48289SOL    HW156591   6.937   1.530   6.472  0.4307 -0.7609  0.4359
48289SOL    HW256592   6.825   1.547   6.371  1.8694  1.4908 -0.8727
48290SOL     OW56593   5.599   7.890   9.771 -0.3594 -0.1166  0.1843
48290SOL    HW156594   5.622   7.914   9.681  1.4632 -1.7722  0.1341
48290SOL    HW256595   5.635   7.962   9.824 -0.6876  0.4471 -0.3375
48291SOL     OW56596   7.327   5.014   6.145  0.2342  0.0502  0.3791
48291SOL    HW156597   7.264   4.951   6.181 -1.7850  1.0543 -1.1428
48291SOL    HW256598   7.307   5.017   6.051  0.2024  2.8825  0.3717
48292SOL     OW56599   6.874  11.044  10.132 -0.5511  0.0439 -0.0626
48292SOL    HW156600   6.948  11.094  10.165 -1.4196  0.4353  1.3995
48292SOL    HW256601   6.902  11.013  10.046  0.2817  2.4498 -0.7370
48293SOL     OW56602   6.929  11.910   6.581 -0.9532 -0.1617  0.1230
48293SOL    HW156603   6.950  11.997   6.549  0.7276 -0.7651 -0.5053
48293SOL    HW256604   7.000  11.888   6.641 -1.6076 -0.9291  0.6444
48294SOL     OW56605   3.227   3.632   4.682  0.0245  0.0307  0.1336
48294SOL    HW156606   3.215   3.585   4.765 -0.0457  0.6014  0.4542
48294SOL    HW256607   3.230   3.724   4.707  0.6579  0.1744 -0.4303
48295SOL     OW56608   6.669   3.312   8.076  0.2151 -0.1881  0.6211
48295SOL    HW156609   6.635   3.401   8.074 -0.5366 -0.4671  0.4566
48295SOL    HW256610   6.698   3.295   7.986  2.1434  0.5358  1.0623
48296SOL     OW56611  11.248   0.588   7.830 -0.3300  0.2288  0.3339
48296SOL    HW156612  11.171   0.586   7.773 -0.6972  0.7261  0.7936
48296SOL    HW256613  11.212   0.602   7.918  0.1582 -1.5234  0.8514
48297SOL     OW56614   0.601   2.175  10.553  0.2618  0.0886  0.0533
48297SOL    HW156615   0.645   2.091  10.539  1.1412  0.2931  1.3596
48297SOL    HW256616   0.622   2.226  10.475  0.6862 -0.5100 -0.2363
48298SOL     OW56617   4.100   0.924   3.686  0.3125 -0.4770 -0.0905
48298SOL    HW156618   4.005   0.932   3.699  0.3578  1.0337 -0.5567
48298SOL    HW256619   4.109   0.882   3.600  0.0879 -2.9891  1.0244
48299SOL     OW56620   5.831   8.095  11.746 -0.0186  0.0814 -0.0310
48299SOL    HW156621   5.883   8.015  11.735 -1.3912 -1.0113  1.0264
48299SOL    HW256622   5.895   8.162  11.772  1.5668  0.0451 -3.2413
48300SOL     OW56623   4.036   6.524   3.268 -0.1266 -0.0416  0.1574
48300SOL    HW156624   3.962   6.501   3.212 -0.6984  0.3752  0.7320
48300SOL    HW256625   3.998   6.576   3.339  0.7956  0.6116  0.1874
48301SOL     OW56626   3.758  10.433   0.322  0.6702 -0.9162  0.6146
48301SOL    HW156627   3.775  10.430   0.416  0.9299 -1.2430  0.5624
48301SOL    HW256628   3.809  10.360   0.287 -1.0690 -2.1104  0.4602
48302SOL     OW56629   1.790   5.008   2.497  0.2283 -0.4579  0.6216
48302SOL    HW156630   1.864   5.067   2.480  0.8408 -1.2167  0.5595
48302SOL    HW256631   1.831   4.922   2.512 -0.5711 -0.6810  1.6917
48303SOL     OW56632   7.849   4.857   0.781 -0.2810  0.3978  0.0352
48303SOL    HW156633   7.883   4.789   0.723 -1.8016 -0.9000  0.5914
48303SOL    HW256634   7.915   4.866   0.850  0.2702  0.0215 -0.4395
48304SOL     OW56635   2.414   0.437   0.477  0.4642  0.3352 -0.4727
48304SOL    HW156636   2.411   0.353   0.431 -0.5780  0.4927 -0.7262
48304SOL    HW256637   2.432   0.501   0.408 -0.6857  0.5238 -0.6269
48305SOL     OW56638   1.169   0.428   4.492 -0.3018  0.5194  0.3926
48305SOL    HW156639   1.217   0.480   4.557 -0.0831  4.0951 -2.3354
48305SOL    HW256640   1.237   0.376   4.449 -0.3411 -1.2733  2.3233
48306SOL     OW56641   2.006   4.941   6.888  0.2750 -0.2895  0.1770
48306SOL    HW156642   1.940   4.940   6.818 -0.6104  1.1285  0.9527
48306SOL    HW256643   2.047   5.027   6.882  1.5388 -0.8614  0.2198
48307SOL     OW56644   0.397  10.225  10.893 -0.2082 -0.1370  0.0539
48307SOL    HW156645   0.308  10.207  10.922 -0.5642  0.2207 -0.7898
48307SOL    HW256646   0.386  10.272  10.810  0.7718 -0.5449 -0.3147
48308SOL     OW56647   8.929   4.576   2.380 -0.1908 -0.3591  0.1806
48308SOL    HW156648   9.003   4.534   2.424  0.3083  0.5122  0.2049
48308SOL    HW256649   8.861   4.509   2.378  0.1968 -0.8136  1.2067
48309SOL     OW56650   9.980   4.334   9.664  0.1455 -0.4052  0.0138
48309SOL    HW156651   9.954   4.328   9.757 -0.0297 -3.6188 -0.1453
48309SOL    HW256652   9.897   4.328   9.616  0.3937 -0.6102 -0.3903
48310SOL     OW56653   4.197  11.666   1.555 -0.7500  0.0677  0.2229
48310SOL    HW156654   4.133  11.600   1.529 -0.6097 -0.4436  1.1156
48310SOL    HW256655   4.244  11.626   1.629  0.7448  0.3386 -0.5377
48311SOL     OW56656   5.923   0.367   6.374  0.3705  0.0099  0.2084
48311SOL    HW156657   5.924   0.271   6.370 -2.6392 -0.1027  0.3216
48311SOL    HW256658   5.901   0.387   6.465  1.2672  0.8554  0.2589
48312SOL     OW56659   5.590   6.106   2.479 -0.7431 -0.1478 -0.2321
48312SOL    HW156660   5.656   6.156   2.432  1.5293 -1.9971  0.7863
48312SOL    HW256661   5.639   6.038   2.525 -3.4476 -2.3022 -0.2340
48313SOL     OW56662   2.420  10.049  10.732 -0.1358  0.1051 -0.2467
48313SOL    HW156663   2.433   9.974  10.790 -0.7428 -1.5511 -2.1401
48313SOL    HW256664   2.489  10.110  10.756 -0.6671 -0.2553  2.5373
48314SOL     OW56665   4.563  11.095   4.100  0.1321  0.7858 -0.2368
48314SOL    HW156666   4.610  11.081   4.183  0.1448  0.5964 -0.2760
48314SOL    HW256667   4.496  11.028   4.098  1.1404 -0.2389 -1.1169
48315SOL     OW56668   3.805  11.753   9.977 -0.0390 -0.2822 -0.3494
48315SOL    HW156669   3.872  11.792  10.032 -0.6402 -0.2322  0.3677
48315SOL    HW256670   3.843  11.751   9.889  0.5909  0.4691 -0.1000
48316SOL     OW56671   5.385  11.764  11.955  0.1705 -0.3627 -0.0734
48316SOL    HW156672   5.295  11.747  11.984 -0.3316  0.1801 -1.2386
48316SOL    HW256673   5.383  11.854  11.924  0.5345 -1.0246 -2.1843
48317SOL     OW56674   1.695   4.972   0.625 -0.1684 -0.5459 -0.1017
48317SOL    HW156675   1.618   4.971   0.681  0.3755 -0.6952  0.6514
48317SOL    HW256676   1.725   4.881   0.624  1.3143 -0.1174  1.4687
48318SOL     OW56677   0.477  11.538   8.525 -0.9094  0.1723  0.1820
48318SOL    HW156678   0.403  11.539   8.586  0.4650 -2.5182  2.1328
48318SOL    HW256679   0.554  11.528   8.582  0.6587 -0.3436 -1.9185
48319SOL     OW56680   0.858  11.114   8.515  0.3261  0.0225  0.3869
48319SOL    HW156681   0.902  11.153   8.591  0.9950 -2.0772  1.1519
48319SOL    HW256682   0.765  11.113   8.539  0.3666  0.6187  0.5782
48320SOL     OW56683   0.414   0.139  10.358 -0.5229  0.4738 -0.3984
48320SOL    HW156684   0.494   0.087  10.343  0.1545  0.8393  1.6106
48320SOL    HW256685   0.445   0.215  10.408 -2.1597  0.4948  0.6447
48321SOL     OW56686  11.104   0.248  11.358  0.4158 -0.0252 -0.4457
48321SOL    HW156687  11.020   0.232  11.400 -1.0074  0.6118 -2.9170
48321SOL    HW256688  11.167   0.201  11.413 -1.7554 -2.0817  0.4267
48322SOL     OW56689   9.755   7.809   8.704  0.2428  0.4907  0.1353
48322SOL    HW156690   9.724   7.734   8.754  0.1303 -0.0536 -0.7366
48322SOL    HW256691   9.682   7.870   8.704 -0.2427 -0.0727 -0.4762
48323SOL     OW56692   3.607   5.567   2.160  0.1854 -0.2669  0.4427
48323SOL    HW156693   3.548   5.536   2.228  0.8847  0.3637  1.3535
48323SOL    HW256694   3.667   5.627   2.205  1.0641 -0.3321 -0.5964
48324SOL     OW56695  11.177  10.045   6.191 -0.4924 -0.9853  0.0466
48324SOL    HW156696  11.118  10.055   6.266  0.0717 -1.4122  0.5521
48324SOL    HW256697  11.262  10.074   6.223 -0.2479 -1.1641 -0.4357
48325SOL     OW56698   2.018   4.519   2.338 -0.1763  0.2657  0.3714
48325SOL    HW156699   2.090   4.482   2.390 -0.4107  1.5868  1.7221
48325SOL    HW256700   1.966   4.443   2.312  0.8114 -0.5719  0.7566
48326SOL     OW56701   5.400   6.387   0.554  0.2355 -0.3959 -0.3552
48326SOL    HW156702   5.320   6.403   0.505  0.6182  0.6441 -0.6568
48326SOL    HW256703   5.450   6.469   0.547  1.9418 -1.4598 -1.3168
48327SOL     OW56704   9.483   1.176   9.037  0.1149 -0.1021  0.4781
48327SOL    HW156705   9.570   1.136   9.045  0.1596 -0.5732 -1.8605
48327SOL    HW256706   9.422   1.109   9.068  0.5438  0.2111  2.0778
48328SOL     OW56707   1.515  11.111   5.146  0.5237 -0.3217  0.6756
48328SOL    HW156708   1.470  11.028   5.134  0.3867 -0.3348  1.2746
48328SOL    HW256709   1.454  11.177   5.113  0.0899 -0.3443  1.4213
48329SOL     OW56710   5.134   1.572  10.598  0.0561  0.5646 -0.5948
48329SOL    HW156711   5.134   1.624  10.518  0.3153  0.6378 -0.5471
48329SOL    HW256712   5.134   1.636  10.669  1.2716  0.5124 -0.5294
48330SOL     OW56713   2.179   9.258  10.326  0.1867  0.1173  0.2693
48330SOL    HW156714   2.159   9.341  10.369  0.1870  0.5138 -0.4896
48330SOL    HW256715   2.258   9.227  10.370 -0.4162 -0.0220  1.2920
48331SOL     OW56716   8.430   5.243   1.066 -0.4599 -0.1044 -0.4751
48331SOL    HW156717   8.401   5.331   1.089  2.3559  0.9406 -0.5134
48331SOL    HW256718   8.353   5.187   1.080 -1.7768  2.0382  1.4254
48332SOL     OW56719   1.865   0.146   2.570 -0.0726 -0.1648 -0.1931
48332SOL    HW156720   1.887   0.058   2.600  3.0309  0.4371 -0.2983
48332SOL    HW256721   1.796   0.134   2.506  2.7686 -3.0604 -3.0902
48333SOL     OW56722  11.516   6.463   5.511 -0.2294  0.1187 -0.7758
48333SOL    HW156723  11.521   6.555   5.484 -1.5417  0.1144 -1.0843
48333SOL    HW256724  11.548   6.462   5.601 -0.9700  1.0059 -0.4975
48334SOL     OW56725   9.324   1.715   0.670  0.4793 -0.1843 -0.1338
48334SOL    HW156726   9.369   1.631   0.678  0.2698 -0.3140 -0.3092
48334SOL    HW256727   9.343   1.760   0.753  1.0540 -0.1723 -0.2696
48335SOL     OW56728   4.804   4.809   2.096  0.4340  1.0436 -0.1395
48335SOL    HW156729   4.812   4.744   2.026 -1.2658  0.2828  0.3259
48335SOL    HW256730   4.864   4.779   2.164  1.0424  1.0066 -0.6883
48336SOL     OW56731  10.390   9.085   6.427 -0.3131 -0.8161  0.5267
48336SOL    HW156732  10.388   9.058   6.519 -0.8863 -0.6369  0.5672
48336SOL    HW256733  10.483   9.094   6.408 -0.1726 -1.2345  0.9774
48337SOL     OW56734   2.166   3.479   3.708 -0.1235 -0.0226  0.1511
48337SOL    HW156735   2.227   3.438   3.770  1.7197  0.5778 -1.1951
48337SOL    HW256736   2.120   3.405   3.668 -0.3799 -0.4852  1.2510
48338SOL     OW56737   5.192   0.450   2.304 -0.0072  0.3370 -0.0213
48338SOL    HW156738   5.145   0.384   2.253  2.0596 -0.1184 -1.4750
48338SOL    HW256739   5.213   0.519   2.241  1.4908  0.3672  0.4510
48339SOL     OW56740   9.782   7.921   5.420 -0.6042  0.4581  0.3647
48339SOL    HW156741   9.695   7.944   5.389 -0.6594 -0.3443 -0.1279
48339SOL    HW256742   9.779   7.935   5.514 -1.6760 -0.7231  0.5440
48340SOL     OW56743  10.102   9.344  10.929  0.7147 -0.3643 -0.3179
48340SOL    HW156744  10.192   9.317  10.945  0.7180  0.8580  2.4151
48340SOL    HW256745  10.076   9.388  11.010 -1.0875  2.7146 -2.3552
48341SOL     OW56746   2.027   9.441   4.781  0.0304  0.8087  0.0097
48341SOL    HW156747   1.943   9.486   4.773  0.0599  0.7896 -0.4301
48341SOL    HW256748   2.035   9.390   4.700 -0.7681 -1.2749  1.1428
48342SOL     OW56749   7.023   8.460   3.978 -0.2775  0.0119  0.0190
48342SOL    HW156750   7.098   8.496   3.931 -0.5021  0.1787 -0.2148
48342SOL    HW256751   6.960   8.531   3.981 -0.8987 -0.4863 -0.8359
48343SOL     OW56752   7.522   9.072   9.623 -0.8173  0.5494 -0.0186
48343SOL    HW156753   7.582   9.063   9.549 -1.5945  0.5657 -0.6603
48343SOL    HW256754   7.475   8.988   9.626 -2.4778  1.3958 -1.0588
48344SOL     OW56755  10.566   4.357   8.219  0.1474 -0.0067  0.1594
48344SOL    HW156756  10.577   4.308   8.138 -2.5627  1.0848 -0.9774
48344SOL    HW256757  10.612   4.440   8.204  1.8683 -0.7820  0.8177
48345SOL     OW56758   8.878   5.525   8.139  0.1511  0.1460  0.3315
48345SOL    HW156759   8.811   5.549   8.075 -0.6666  3.7961  2.3095
48345SOL    HW256760   8.959   5.520   8.088 -0.6943  1.4252 -1.2370
48346SOL     OW56761   9.464   4.252   0.686 -0.2767 -0.1512  0.1414
48346SOL    HW156762   9.515   4.197   0.745  0.5359 -0.7965 -1.1287
48346SOL    HW256763   9.499   4.340   0.699  1.4274 -0.6210 -0.9170
48347SOL     OW56764   5.177   1.589   1.185  0.0360 -0.0365  0.3272
48347SOL    HW156765   5.125   1.511   1.167 -0.9051  0.1206  2.0950
48347SOL    HW256766   5.267   1.559   1.182 -0.2923 -1.0999  0.5644
48348SOL     OW56767   1.644   4.193   1.988  1.0006  0.2075  0.2466
48348SOL    HW156768   1.712   4.229   2.045  2.0502  1.9122 -1.9380
48348SOL    HW256769   1.640   4.253   1.914 -1.8276 -0.7172 -0.4805
48349SOL     OW56770   6.867   9.894   5.041 -0.5458 -0.4194 -0.3173
48349SOL    HW156771   6.786   9.851   5.014  0.0209 -1.3448 -0.5610
48349SOL    HW256772   6.931   9.824   5.048  0.0682  0.2052  0.5702
48350SOL     OW56773   7.219   6.125   2.490 -0.2583  0.6880 -0.2831
48350SOL    HW156774   7.241   6.218   2.494 -1.5814  0.9792  1.6301
48350SOL    HW256775   7.131   6.123   2.452  0.0066  0.1524 -0.8859
48351SOL     OW56776   3.423  11.946   8.968  0.0479  0.2402  0.1998
48351SOL    HW156777   3.418  12.037   8.999  0.0756 -0.2468  1.7422
48351SOL    HW256778   3.335  11.911   8.982 -0.2966  0.3425 -1.5191
48352SOL     OW56779   7.483   5.599   5.724 -0.3214 -0.0770  0.4684
48352SOL    HW156780   7.487   5.656   5.802 -3.1424 -0.7844  1.2744
48352SOL    HW256781   7.389   5.592   5.706  0.1850 -1.3866 -1.9630
48353SOL     OW56782   4.572   9.322   7.749 -0.2841 -0.0851 -0.2671
48353SOL    HW156783   4.534   9.282   7.671  0.0286 -0.5613 -0.1770
48353SOL    HW256784   4.573   9.253   7.815  0.2368  0.0676 -0.1028
48354SOL     OW56785   9.800   2.922   7.195 -0.3445  0.0664 -0.3137
48354SOL    HW156786   9.777   2.843   7.144 -1.5013  0.6843 -0.7926
48354SOL    HW256787   9.738   2.921   7.268  0.3492 -0.0298  0.2801
48355SOL     OW56788   6.217   0.984  10.376  0.0440  0.9010 -0.4681
48355SOL    HW156789   6.309   0.957  10.374  0.5170  2.1811  1.5061
48355SOL    HW256790   6.179   0.936  10.449 -1.0144  0.0634 -1.5194
48356SOL     OW56791   9.307   2.864   7.488 -0.3440  0.4458  0.1288
48356SOL    HW156792   9.308   2.859   7.584 -0.1874  0.3128  0.1198
48356SOL    HW256793   9.265   2.948   7.470 -0.4734  0.4214  0.3125
48357SOL     OW56794   2.681   7.747  11.764  0.3771 -0.0052  0.0849
48357SOL    HW156795   2.603   7.735  11.711  0.5651  3.2539 -1.2156
48357SOL    HW256796   2.649   7.747  11.854 -0.7803 -0.6814 -0.3011
48358SOL     OW56797  10.893   9.329   9.079  0.0424 -0.1678 -0.2399
48358SOL    HW156798  10.821   9.383   9.109 -0.7165 -0.7944 -0.8733
48358SOL    HW256799  10.966   9.350   9.137 -0.6146  0.5645  0.3290
48359SOL     OW56800   5.048   5.984   3.009 -0.1175 -0.3784  0.4935
48359SOL    HW156801   5.118   6.041   3.039 -1.1110  0.3033  1.5856
48359SOL    HW256802   5.083   5.895   3.020  0.5592 -0.0468  1.0403
48360SOL     OW56803   9.126   0.628   0.327  0.2104  0.5432 -0.0587
48360SOL    HW156804   9.095   0.685   0.256  0.7915 -0.4930 -1.1813
48360SOL    HW256805   9.106   0.539   0.297  1.0759  0.0508  0.7816
48361SOL     OW56806   6.208   0.671   2.278 -0.1738 -0.0425 -0.2460
48361SOL    HW156807   6.150   0.596   2.268 -0.8745  0.5380 -0.6822
48361SOL    HW256808   6.231   0.672   2.371 -1.9345  0.4644  0.2255
48362SOL     OW56809   9.769   5.743   5.750 -0.5801  0.2780 -0.0116
48362SOL    HW156810   9.857   5.734   5.784 -0.4708 -0.6885 -0.5003
48362SOL    HW256811   9.714   5.755   5.827 -0.1174  0.0331  0.3624
48363SOL     OW56812   3.189   1.932   1.687 -0.2357 -0.2058  0.0135
48363SOL    HW156813   3.216   2.008   1.635 -1.5891  0.8717  0.8141
48363SOL    HW256814   3.177   1.967   1.775 -3.3753 -0.7225 -0.0947
48364SOL     OW56815   8.824   8.112   3.203 -0.4670  0.3914 -0.0383
48364SOL    HW156816   8.844   8.204   3.219 -1.3539  0.3213  1.7020
48364SOL    HW256817   8.909   8.069   3.201 -0.0727  1.1697 -0.3223
48365SOL     OW56818   6.137   7.926   7.335 -0.8873 -0.3822 -0.2799
48365SOL    HW156819   6.064   7.974   7.296 -0.9436 -1.2585 -1.2607
48365SOL    HW256820   6.178   7.880   7.262 -0.2275 -1.0482  0.4941
48366SOL     OW56821   7.385   8.541   4.456 -0.1340 -1.0875 -0.6537
48366SOL    HW156822   7.289   8.540   4.453 -0.1914 -1.9074  0.7970
48366SOL    HW256823   7.410   8.449   4.444  0.3851 -1.1256  0.5914
48367SOL     OW56824   7.731   2.580   0.205  0.3203  0.1305  0.3927
48367SOL    HW156825   7.689   2.512   0.258  0.0969 -1.1861 -1.3827
48367SOL    HW256826   7.659   2.634   0.174  0.2438 -0.3088 -0.1975
48368SOL     OW56827  10.972   7.967  10.629  0.0088 -0.4692 -0.4027
48368SOL    HW156828  11.006   7.892  10.581  0.3392 -1.5271  1.4199
48368SOL    HW256829  11.004   7.956  10.718 -2.2618  0.3296  0.5895
48369SOL     OW56830   2.434   4.909  11.643 -0.0843 -0.9383  0.5122
48369SOL    HW156831   2.363   4.937  11.585 -0.4631 -0.8051  1.0319
48369SOL    HW256832   2.398   4.836  11.692  0.3747 -1.3157  0.2943
48370SOL     OW56833   1.303   6.300   5.855  0.0984 -0.4503 -0.7474
48370SOL    HW156834   1.300   6.336   5.944  4.5353 -1.3891  0.0343
48370SOL    HW256835   1.279   6.207   5.866 -1.7196 -0.0511 -1.0444
48371SOL     OW56836   7.422   5.911   3.391  0.5851 -0.5526 -0.2899
48371SOL    HW156837   7.442   5.989   3.444 -0.5524 -0.3063 -0.2062
48371SOL    HW256838   7.468   5.927   3.308 -0.3936  0.6648 -0.6264
48372SOL     OW56839   2.738  11.749   9.930  0.1860 -0.0896 -0.3472
48372SOL    HW156840   2.696  11.828   9.965  0.0089 -0.3794  0.0907
48372SOL    HW256841   2.694  11.677   9.974 -0.3498 -0.4746 -1.4816
48373SOL     OW56842  11.334   1.929   4.794  0.3102 -0.0213  0.2937
48373SOL    HW156843  11.377   1.907   4.711 -0.1406  2.5718 -0.7234
48373SOL    HW256844  11.240   1.920   4.776  0.1409  1.8538  0.0259
48374SOL     OW56845   3.904   4.638   6.567  0.1307  0.0159  0.1216
48374SOL    HW156846   3.967   4.710   6.560  0.0807 -0.0063 -0.5375
48374SOL    HW256847   3.822   4.675   6.533 -0.0167 -0.2015  0.2413
48375SOL     OW56848   8.604   4.623   0.314 -0.2469  0.2414 -0.6043
48375SOL    HW156849   8.632   4.532   0.325  0.5970  0.5317 -0.2401
48375SOL    HW256850   8.636   4.647   0.227  0.2174  0.4245 -0.3853
48376SOL     OW56851   7.770  10.666   7.873 -0.0980 -0.4321 -0.3551
48376SOL    HW156852   7.689  10.649   7.921  0.4735  0.0635  0.8260
48376SOL    HW256853   7.840  10.653   7.937  0.7455 -0.4457 -1.2372
48377SOL     OW56854  10.933   1.708   7.887  0.0909 -0.2116 -0.0184
48377SOL    HW156855  10.994   1.636   7.902 -1.3096 -1.3442  0.3748
48377SOL    HW256856  10.885   1.718   7.969 -1.3218 -0.3763 -0.7938
48378SOL     OW56857   4.063   9.846   7.239 -0.3488 -0.3486  0.2769
48378SOL    HW156858   4.045   9.851   7.145 -0.7921 -1.4378  0.2883
48378SOL    HW256859   4.007   9.775   7.270 -1.1678  0.8470  1.6118
48379SOL     OW56860   0.385  11.246   9.917  0.1757  0.6531 -0.1737
48379SOL    HW156861   0.324  11.227   9.846  0.6628  0.2824 -0.5049
48379SOL    HW256862   0.333  11.290   9.984 -0.3703  0.6579 -0.6017
48380SOL     OW56863   3.505   4.494   7.669  0.4825  0.4639 -0.5265
48380SOL    HW156864   3.422   4.458   7.638 -0.0480  0.6601  0.6356
48380SOL    HW256865   3.566   4.420   7.667 -0.2506 -0.1889  0.5601
48381SOL     OW56866   3.720   9.543   6.467  0.0778  0.4953  0.3214
48381SOL    HW156867   3.645   9.552   6.526  1.2391  2.1539  1.6243
48381SOL    HW256868   3.797   9.558   6.522  1.3891 -0.9179 -1.0260
48382SOL     OW56869   3.987  10.711   5.750  0.1986 -0.2035 -0.4101
48382SOL    HW156870   3.994  10.647   5.820 -0.1161 -2.2284 -2.1111
48382SOL    HW256871   4.070  10.758   5.751  0.5725 -0.8699  0.6559
48383SOL     OW56872   8.117  10.515  10.716 -0.2622 -0.8600  0.2582
48383SOL    HW156873   8.158  10.558  10.641 -0.7734  1.3581  1.1453
48383SOL    HW256874   8.187  10.465  10.757 -0.1699 -2.8704 -2.1168
48384SOL     OW56875   5.123   0.390   7.674 -1.0075 -0.2242 -0.8581
48384SOL    HW156876   5.185   0.379   7.602  1.6282  0.0160  1.2219
48384SOL    HW256877   5.094   0.302   7.695  0.4166 -0.6247 -0.4505
48385SOL     OW56878   7.324   8.164   5.764  0.2289 -0.6225 -0.1848
48385SOL    HW156879   7.389   8.199   5.825  1.7338 -0.9349 -1.5495
48385SOL    HW256880   7.326   8.069   5.780  0.1024 -0.6293 -0.2107
48386SOL     OW56881   6.293  10.729   5.087 -0.1150 -0.1352 -0.1325
48386SOL    HW156882   6.253  10.701   5.004  1.7733 -1.2789 -0.7478
48386SOL    HW256883   6.372  10.675   5.094  0.0372  0.2953  2.1927
48387SOL     OW56884   6.195   2.237   3.834 -0.1865  0.2499  0.1596
48387SOL    HW156885   6.261   2.219   3.901 -0.6290 -1.9924  0.0834
48387SOL    HW256886   6.112   2.213   3.875 -0.5278 -0.5710 -0.9731
48388SOL     OW56887   1.088   3.810   2.828  0.2877 -0.1328 -0.7210
48388SOL    HW156888   1.172   3.767   2.811  0.1804  0.2025 -2.2594
48388SOL    HW256889   1.092   3.833   2.920  2.5827  1.2676 -1.0697
48389SOL     OW56890   3.591   2.279   5.065 -0.1372  0.6175 -0.3000
48389SOL    HW156891   3.593   2.323   4.980  1.6973  1.3365  0.0622
48389SOL    HW256892   3.612   2.187   5.044  0.0318  0.7327 -0.6494
48390SOL     OW56893   4.548   6.521  11.610  0.3490 -0.2380 -0.1121
48390SOL    HW156894   4.543   6.614  11.632  0.1571 -0.4276  0.6805
48390SOL    HW256895   4.517   6.476  11.689 -1.8659 -0.9181 -1.2598
48391SOL     OW56896   5.800   2.802   7.029  0.6535 -0.2249  0.2821
48391SOL    HW156897   5.751   2.867   6.979  1.0594  0.4584  0.7483
48391SOL    HW256898   5.892   2.827   7.017  0.9649 -1.9484 -1.2178
48392SOL     OW56899   2.316   2.349   0.572 -0.0154  0.3130  0.1187
48392SOL    HW156900   2.358   2.425   0.611 -0.6417  0.4346  0.5695
48392SOL    HW256901   2.328   2.279   0.636  1.2636 -0.1946 -0.6457
48393SOL     OW56902  10.304   6.027   3.949  0.4429 -0.4195  0.2321
48393SOL    HW156903  10.269   6.116   3.953  1.2610 -0.0808  0.1267
48393SOL    HW256904  10.264   5.989   3.871 -0.2429 -0.2870  0.5182
48394SOL     OW56905   8.585   4.255   5.517  0.2441 -0.6471  0.3330
48394SOL    HW156906   8.649   4.255   5.589  1.5393  0.9633 -0.7455
48394SOL    HW256907   8.636   4.236   5.439 -0.3411  1.7333 -0.7123
48395SOL     OW56908   7.240   4.872   2.388  0.3780  0.3474 -0.3202
48395SOL    HW156909   7.212   4.963   2.398  0.4347  0.3023  0.2959
48395SOL    HW256910   7.166   4.829   2.345  0.9813  1.0210 -2.1226
48396SOL     OW56911   4.395   0.969  11.021  0.0830  0.0708 -0.0178
48396SOL    HW156912   4.403   0.873  11.021 -1.4943 -0.3273 -4.5659
48396SOL    HW256913   4.460   0.997  10.957  0.9411  2.2080  1.6910
48397SOL     OW56914   5.334   0.581   0.619 -0.2578  0.2750 -0.1174
48397SOL    HW156915   5.253   0.600   0.667  0.4194 -2.1691  2.2509
48397SOL    HW256916   5.313   0.504   0.565  0.1395  0.4285 -0.4968
48398SOL     OW56917   1.397   0.186   0.337 -0.0433 -0.3347  0.1447
48398SOL    HW156918   1.341   0.221   0.268  1.5272 -0.0153 -1.0191
48398SOL    HW256919   1.351   0.107   0.367 -2.4614  1.3557  1.1756
48399SOL     OW56920   7.457  10.768   4.451 -0.1805  0.5310  0.0359
48399SOL    HW156921   7.543  10.770   4.409 -0.2254  0.9969 -0.0377
48399SOL    HW256922   7.397  10.739   4.382  0.1208 -1.2709  0.4703
48400SOL     OW56923   4.204   6.285   2.414  0.3251 -0.3655  0.0568
48400SOL    HW156924   4.210   6.265   2.320  2.6118 -2.8212  0.6065
48400SOL    HW256925   4.249   6.369   2.423  1.5684 -0.8896 -0.8817
48401SOL     OW56926   3.261   6.646   3.991  0.2921  0.3418 -0.0387
48401SOL    HW156927   3.205   6.683   4.059 -0.1721  0.3292 -0.4129
48401SOL    HW256928   3.324   6.716   3.971  0.3511  0.3892  0.3092
48402SOL     OW56929   9.174   1.934   6.707 -0.8880  0.6899 -0.2797
48402SOL    HW156930   9.202   1.976   6.788  0.5154  1.1128 -0.9543
48402SOL    HW256931   9.200   1.995   6.637 -1.2144 -0.0929 -1.1155
48403SOL     OW56932   4.517   0.741   5.284  0.1238 -0.3305 -0.1169
48403SOL    HW156933   4.566   0.741   5.366  0.2202  1.4173 -0.1253
48403SOL    HW256934   4.495   0.834   5.269 -1.2887 -0.7943 -1.2310
48404SOL     OW56935   6.371   0.818   5.007 -0.1231 -0.3758 -0.6692
48404SOL    HW156936   6.313   0.861   5.070  0.1401 -1.4011  0.3034
48404SOL    HW256937   6.370   0.875   4.931  0.2566  1.4000  0.5813
48405SOL     OW56938   3.226  10.646   6.434  0.3855 -0.1291 -0.0991
48405SOL    HW156939   3.289  10.718   6.442 -0.5471  0.6859  0.0020
48405SOL    HW256940   3.213  10.616   6.524  0.0864  0.1767 -0.0398
48406SOL     OW56941   8.774   7.463   0.927  0.4026 -0.5895 -0.4483
48406SOL    HW156942   8.821   7.493   0.850  0.2601 -0.8220 -0.6271
48406SOL    HW256943   8.725   7.387   0.897  1.6160 -1.6774  0.2730
48407SOL     OW56944   8.255   0.702  11.959  0.4361  0.0666 -0.8158
48407SOL    HW156945   8.350   0.708  11.969  0.3023 -0.3689  1.0047
48407SOL    HW256946   8.230   0.784  11.916  1.1195  2.7631  3.3336
48408SOL     OW56947   4.914   5.215   8.031 -0.1515  0.5365  0.0087
48408SOL    HW156948   4.952   5.150   8.090  0.1085 -0.4999 -1.2489
48408SOL    HW256949   4.983   5.279   8.018 -0.1889  0.7424  0.7571
48409SOL     OW56950   3.243   5.522   0.975  0.4174  0.0782 -0.1554
48409SOL    HW156951   3.279   5.458   0.913 -0.1444  1.0827 -1.5670
48409SOL    HW256952   3.208   5.592   0.920 -1.3877  0.3560  1.2515
48410SOL     OW56953   8.807   2.881   2.490  0.6633  0.7573  0.1133
48410SOL    HW156954   8.900   2.875   2.469  0.8943 -1.4472  1.4712
48410SOL    HW256955   8.766   2.808   2.443 -0.6474  2.3640 -1.4080
48411SOL     OW56956   7.200   2.930   6.345  0.1515  0.0190  0.2212
48411SOL    HW156957   7.250   3.001   6.304 -0.8478  0.2666 -0.6048
48411SOL    HW256958   7.109   2.961   6.346 -0.5386 -1.7502 -1.3755
48412SOL     OW56959   7.254   2.756  11.006 -0.3082  0.4442  0.8061
48412SOL    HW156960   7.167   2.739  11.041 -1.1804 -0.7914 -1.6637
48412SOL    HW256961   7.242   2.829  10.946  0.4292  0.4843  0.6997
48413SOL     OW56962   1.780   3.937   7.606  0.2259 -0.0149 -0.2233
48413SOL    HW156963   1.852   4.000   7.603  0.1144  0.0895 -1.7666
48413SOL    HW256964   1.734   3.950   7.523  0.3518 -2.2877 -0.7053
48414SOL     OW56965   0.107   3.436   1.538  0.2055 -0.0324  0.2827
48414SOL    HW156966   0.119   3.401   1.450  0.9391  0.7742  0.0533
48414SOL    HW256967   0.118   3.530   1.529  0.0929  0.0832  1.2075
48415SOL     OW56968   4.340   8.325   7.949  0.3991 -0.0294 -0.3083
48415SOL    HW156969   4.251   8.359   7.938  0.6151  1.1252  1.2397
48415SOL    HW256970   4.329   8.230   7.955 -0.7499  0.1133  0.0952
48416SOL     OW56971  10.226   1.636   2.971 -0.3628 -0.1059 -0.0601
48416SOL    HW156972  10.237   1.661   2.879  0.6122  0.0882  0.0984
48416SOL    HW256973  10.303   1.673   3.015 -1.4452  0.8702  1.0595
48417SOL     OW56974   6.226   8.285   2.833  0.2057  0.0749  0.6752
48417SOL    HW156975   6.320   8.302   2.822  0.5048 -1.2812  0.9314
48417SOL    HW256976   6.195   8.267   2.744  0.1171  0.8450  0.5479
48418SOL     OW56977  11.358  11.251   0.915  0.5703  0.7123  0.5539
48418SOL    HW156978  11.309  11.172   0.939  1.3453  0.6086  1.9509
48418SOL    HW256979  11.372  11.244   0.821 -0.5701 -0.1188  0.4315
48419SOL     OW56980   8.925  11.730   0.040 -0.0806 -0.0834  0.6879
48419SOL    HW156981   8.948  11.704  -0.049  1.9986  0.9740  0.8685
48419SOL    HW256982   8.988  11.684   0.096 -1.5427 -0.9794  1.6980
48420SOL     OW56983   1.439   8.486   3.158  0.1190 -0.0009 -0.1309
48420SOL    HW156984   1.519   8.440   3.182 -1.0986 -2.3607 -0.2401
48420SOL    HW256985   1.413   8.533   3.237  2.2916  2.0084 -0.5107
48421SOL     OW56986   9.189   3.671   3.192 -0.3519  0.0627  0.2779
48421SOL    HW156987   9.169   3.609   3.122  1.5651 -1.0851  0.6826
48421SOL    HW256988   9.237   3.741   3.148 -1.2442  0.5546  0.0666
48422SOL     OW56989   2.748   4.385  10.117 -0.7372  0.0629  0.3708
48422SOL    HW156990   2.822   4.348  10.069  0.7124  1.5553  1.3438
48422SOL    HW256991   2.781   4.467  10.153 -3.6491  2.1961 -1.3622
48423SOL     OW56992  10.710   9.341   6.464  0.1292 -0.5030  0.2682
48423SOL    HW156993  10.794   9.378   6.489  0.1427  0.2533 -0.8712
48423SOL    HW256994  10.650   9.371   6.532  0.4777  0.2283  0.2614
48424SOL     OW56995   6.389   1.457   3.463  0.0384 -0.1949 -0.0133
48424SOL    HW156996   6.430   1.482   3.545  0.4132 -0.2682 -0.1792
48424SOL    HW256997   6.300   1.491   3.469  0.9960  2.7602 -0.9576
48425SOL     OW56998   8.274   9.081  10.970  0.0501 -0.1623  0.0972
48425SOL    HW156999   8.232   9.126  11.044  0.4359  2.5923 -1.2205
48425SOL    HW257000   8.348   9.138  10.948  0.2021 -1.1475 -2.1167
48426SOL     OW57001   8.258   4.609  10.580 -0.2134 -0.1219  0.1399
48426SOL    HW157002   8.215   4.675  10.634  2.7754  1.4198  0.8457
48426SOL    HW257003   8.292   4.657  10.505  0.5032 -1.2033 -0.2537
48427SOL     OW57004  10.447   1.973   4.931  0.8469  0.0555  0.3630
48427SOL    HW157005  10.409   2.055   4.899  3.5119  1.0769 -0.4051
48427SOL    HW257006  10.442   1.980   5.026 -1.2058 -0.0821  0.3205
48428SOL     OW57007   1.087   7.540   2.919  0.0347  0.1371  0.1473
48428SOL    HW157008   1.002   7.503   2.899 -0.1436  0.7072 -0.1965
48428SOL    HW257009   1.083   7.565   3.011  0.1423 -0.6370  0.3687
48429SOL     OW57010   8.491   4.920   9.167 -0.1341  0.4053  0.4488
48429SOL    HW157011   8.454   4.842   9.126 -0.6922  1.0817 -0.3493
48429SOL    HW257012   8.435   4.992   9.138 -0.2830  0.9706  2.0315
48430SOL     OW57013   1.776   7.389   7.532  0.0606 -0.1074 -1.1170
48430SOL    HW157014   1.839   7.457   7.557 -0.8050  0.4482 -0.3721
48430SOL    HW257015   1.828   7.309   7.527  0.2094 -0.6575  3.9510
48431SOL     OW57016   8.386   0.750  11.091 -0.5108 -0.1473  0.0603
48431SOL    HW157017   8.343   0.806  11.026 -0.3706  0.7547  0.7316
48431SOL    HW257018   8.381   0.800  11.173  0.2919 -0.7903  0.5115
48432SOL     OW57019  10.210   2.008  11.117 -0.4117 -0.0816 -0.1647
48432SOL    HW157020  10.158   2.082  11.086  0.6317  0.3407 -0.9601
48432SOL    HW257021  10.299   2.027  11.087 -0.1970 -1.8607 -0.7606
48433SOL     OW57022   4.005   3.194  11.485  0.1396 -0.3678  0.2316
48433SOL    HW157023   4.038   3.212  11.397  0.2033 -0.7624  0.1775
48433SOL    HW257024   3.911   3.181  11.473  0.0939 -0.0945  0.2701
48434SOL     OW57025   4.968  11.421   3.749  0.2273  0.7716  0.0805
48434SOL    HW157026   5.019  11.501   3.733 -0.9838  2.0854  2.2364
48434SOL    HW257027   4.980  11.403   3.842 -1.6208 -0.0176  0.2218
48435SOL     OW57028   4.953   4.796   1.665  0.2366  0.6860 -0.7224
48435SOL    HW157029   4.957   4.787   1.570  0.4694  1.4263 -0.7897
48435SOL    HW257030   4.905   4.878   1.679 -1.5556 -0.4062 -0.1705
48436SOL     OW57031   6.450   7.441   3.155  0.2047 -0.0803  0.3197
48436SOL    HW157032   6.440   7.511   3.220 -0.5243  0.3557 -0.2486
48436SOL    HW257033   6.516   7.476   3.094 -0.3976  0.2539 -0.1446
48437SOL     OW57034   9.537   1.102   2.231 -0.5544 -0.3043 -0.4748
48437SOL    HW157035   9.579   1.092   2.316  0.2873  0.5654 -0.7696
48437SOL    HW257036   9.486   1.022   2.220  0.9259 -1.3526 -0.0360
48438SOL     OW57037  11.375   8.956   5.743  0.2714 -0.3998 -0.4551
48438SOL    HW157038  11.357   8.994   5.656 -0.1774  1.5664  0.4424
48438SOL    HW257039  11.466   8.979   5.761  0.4148 -0.9508 -0.4702
48439SOL     OW57040   5.893   0.864   0.220 -0.8827  0.0508  0.7638
48439SOL    HW157041   5.951   0.790   0.238 -0.9359 -0.3929 -0.8013
48439SOL    HW257042   5.934   0.938   0.267 -0.0467 -0.6367  1.1526
48440SOL     OW57043   9.669  10.669  11.362  0.1501 -0.4387  0.5349
48440SOL    HW157044   9.721  10.694  11.286 -0.3876 -0.8093  0.0419
48440SOL    HW257045   9.646  10.753  11.403  2.0317 -0.2828  1.4057
48441SOL     OW57046   8.862   2.845  10.648 -0.0464 -0.3938  0.6524
48441SOL    HW157047   8.945   2.891  10.651 -0.3966  0.2243  1.7266
48441SOL    HW257048   8.885   2.752  10.640  0.6868 -0.1014 -0.7446
48442SOL     OW57049   8.627   4.790   2.688 -0.2193 -0.8830  0.1079
48442SOL    HW157050   8.585   4.705   2.698 -2.0934 -0.2056 -1.3896
48442SOL    HW257051   8.564   4.852   2.724  0.7580 -0.0369  0.4298
48443SOL     OW57052   5.857  10.818   0.398  0.1228  0.2516  0.2548
48443SOL    HW157053   5.812  10.874   0.462 -0.5842  0.9072 -0.7779
48443SOL    HW257054   5.833  10.855   0.313  3.3653  1.1795 -0.3622
48444SOL     OW57055   5.514   4.140  10.588  0.6062 -0.5562 -0.2400
48444SOL    HW157056   5.453   4.095  10.529 -0.3562 -2.3444  1.9758
48444SOL    HW257057   5.598   4.137  10.542 -0.3251 -0.8033 -2.0161
48445SOL     OW57058  11.324   5.002  11.015 -0.3042  0.0524  0.5421
48445SOL    HW157059  11.256   5.051  10.968  2.7940  0.9175 -3.6995
48445SOL    HW257060  11.370   5.069  11.066 -1.6679 -0.3056  2.3430
48446SOL     OW57061  11.415   7.865  11.668  0.0062 -0.0965  0.2746
48446SOL    HW157062  11.329   7.857  11.708  0.8051 -1.2386  1.8915
48446SOL    HW257063  11.406   7.820  11.583 -0.8399 -0.7605  0.6985
48447SOL     OW57064   3.411   7.131   2.705  0.0705  0.0178  0.0635
48447SOL    HW157065   3.421   7.035   2.703  2.0471  0.1728 -1.5546
48447SOL    HW257066   3.495   7.162   2.738 -0.1516  1.2240 -0.4732
48448SOL     OW57067   7.512   4.890   3.047  0.2391 -0.0505 -0.0643
48448SOL    HW157068   7.544   4.904   2.958 -0.1651  1.3505 -0.0093
48448SOL    HW257069   7.445   4.821   3.039  0.9008 -0.6369 -0.6704
48449SOL     OW57070   7.290   7.052   9.124 -0.2631  0.0807 -0.1118
48449SOL    HW157071   7.219   7.016   9.177 -0.0689  1.7935  1.4182
48449SOL    HW257072   7.356   7.079   9.188  0.8682  0.4300 -1.3730
48450SOL     OW57073   2.723   8.295   9.618  0.3582  0.1603  0.1331
48450SOL    HW157074   2.810   8.296   9.579 -0.4844 -0.7208 -1.9355
48450SOL    HW257075   2.721   8.216   9.671  0.6711 -0.1059 -0.2441
48451SOL     OW57076   1.173   0.485   9.565 -0.1287  0.2390  0.0109
48451SOL    HW157077   1.203   0.529   9.645 -0.8969  0.5343  0.1453
48451SOL    HW257078   1.086   0.522   9.549  0.0036  0.1530 -0.9424
48452SOL     OW57079   4.347   7.438   7.393  0.0101  0.4014 -0.0788
48452SOL    HW157080   4.326   7.471   7.480 -0.5720  0.8911 -0.4036
48452SOL    HW257081   4.284   7.479   7.335  0.2471 -0.0992 -0.7072
48453SOL     OW57082  10.989   3.964   9.759  0.0789 -0.1243  0.0339
48453SOL    HW157083  10.940   3.882   9.756 -0.1500  0.0325 -1.3142
48453SOL    HW257084  10.987   3.990   9.851 -3.6450  0.6199 -0.0994
48454SOL     OW57085   4.942   0.477   4.815  0.6142  0.0023  0.6232
48454SOL    HW157086   4.935   0.519   4.901 -1.9111  0.4494  0.2721
48454SOL    HW257087   4.934   0.548   4.752 -0.2201 -0.6029  0.0268
48455SOL     OW57088   6.875   0.087   2.243  0.3829  0.0852 -0.7412
48455SOL    HW157089   6.947   0.112   2.185 -0.1215  0.2805 -1.2809
48455SOL    HW257090   6.806   0.151   2.226  0.8686  1.2695  1.3564
48456SOL     OW57091   8.123   9.133   8.351  0.3194 -0.0475  0.7663
48456SOL    HW157092   8.100   9.219   8.387  0.3050 -0.2595  1.2804
48456SOL    HW257093   8.214   9.120   8.376  0.7918  0.4816 -0.6491
48457SOL     OW57094   3.935   2.677   9.640 -0.5210 -0.0026 -0.3021
48457SOL    HW157095   3.919   2.585   9.662 -0.1687  0.1842  0.7755
48457SOL    HW257096   3.965   2.717   9.722 -2.6998  1.5907 -0.2091
48458SOL     OW57097  10.582   7.745   7.173 -0.3545  0.1291 -0.3688
48458SOL    HW157098  10.563   7.727   7.265 -1.2819 -0.0852 -0.5938
48458SOL    HW257099  10.664   7.794   7.175 -0.6307  0.5743  0.6060
48459SOL     OW57100   2.757   9.208   2.358  0.2135 -0.1660 -0.0848
48459SOL    HW157101   2.839   9.158   2.361 -0.1103 -0.6629  0.7351
48459SOL    HW257102   2.764   9.269   2.432 -0.0988 -0.1114 -0.1020
48460SOL     OW57103   6.212   7.024   9.621 -0.0386 -0.7740  0.5544
48460SOL    HW157104   6.229   6.930   9.618  0.6927 -0.8165  3.1492
48460SOL    HW257105   6.147   7.034   9.690  0.1734  0.6403  0.5814
48461SOL     OW57106   7.920   9.847   0.950  0.1642  0.5431 -0.4397
48461SOL    HW157107   7.951   9.817   0.864 -0.9991 -0.7329 -0.4647
48461SOL    HW257108   7.851   9.910   0.929 -1.4433 -1.1430 -0.5579
48462SOL     OW57109   3.728   5.996   8.172 -0.5299 -0.2269  0.3683
48462SOL    HW157110   3.658   6.042   8.127 -0.2424  1.0987  1.2108
48462SOL    HW257111   3.684   5.935   8.230 -0.9156 -1.2880 -0.9885
48463SOL     OW57112   6.383   9.672   5.870  1.0084 -0.1372 -0.1094
48463SOL    HW157113   6.341   9.640   5.791  0.6654  0.4131 -0.1578
48463SOL    HW257114   6.406   9.593   5.919 -1.8457 -0.5037  0.8594
48464SOL     OW57115   7.053   3.918   9.077  0.2570  0.1809 -0.3548
48464SOL    HW157116   7.000   3.997   9.071  0.3707  0.3892  1.0182
48464SOL    HW257117   7.132   3.938   9.026 -0.5112  0.2525 -1.5391
48465SOL     OW57118   6.063   3.575   3.284 -0.2143  0.4729  0.2533
48465SOL    HW157119   6.135   3.550   3.341  0.0343  0.0647 -0.2265
48465SOL    HW257120   5.992   3.515   3.307 -0.2691  0.6128  0.4506
48466SOL     OW57121   4.914   8.284   6.062 -0.0278 -0.2399  0.3703
48466SOL    HW157122   5.009   8.277   6.073  0.1446 -0.9889 -1.2728
48466SOL    HW257123   4.882   8.307   6.149  1.6782  0.3153  0.9019
48467SOL     OW57124   0.484   5.313   1.798 -0.3170 -0.5435 -0.4984
48467SOL    HW157125   0.445   5.232   1.766  0.8674 -0.5924 -1.9212
48467SOL    HW257126   0.577   5.294   1.806 -0.2727  0.1584  0.9201
48468SOL     OW57127   6.604   0.285   6.567 -0.0194  0.2176 -0.4638
48468SOL    HW157128   6.684   0.335   6.551  0.1108  0.1288 -0.0866
48468SOL    HW257129   6.558   0.287   6.483  0.0738  0.8092 -0.5073
48469SOL     OW57130   5.762   2.976   8.853  0.0429 -0.2241  0.6695
48469SOL    HW157131   5.776   2.933   8.768  0.0875  1.7996 -0.4096
48469SOL    HW257132   5.844   2.962   8.900  0.6524  0.0238 -0.2847
48470SOL     OW57133   1.469   1.987   5.230  0.1017  0.3444  0.6176
48470SOL    HW157134   1.468   1.920   5.162 -1.7770 -0.8605  1.7343
48470SOL    HW257135   1.518   1.948   5.302 -0.4416  0.4006  1.0281
48471SOL     OW57136   3.093   8.304  10.159  0.4197  0.1795  0.0132
48471SOL    HW157137   3.111   8.395  10.133 -0.2744  0.3299  0.0458
48471SOL    HW257138   3.180   8.267  10.177  0.7778  0.5828 -0.8206
48472SOL     OW57139  10.263   3.197   1.883  0.4530 -0.8388  0.0369
48472SOL    HW157140  10.331   3.258   1.913  0.2664  0.9086 -2.7408
48472SOL    HW257141  10.183   3.226   1.926  0.6744 -0.1207 -0.0265
48473SOL     OW57142  10.026   8.383   7.637 -0.7266 -0.3626 -0.0123
48473SOL    HW157143  10.109   8.383   7.589 -1.5761 -0.6530 -1.5272
48473SOL    HW257144   9.999   8.291   7.638 -1.6066 -0.1184 -0.5762
48474SOL     OW57145   5.898   0.916   8.781 -0.1144 -0.4335 -0.1480
48474SOL    HW157146   5.913   0.823   8.794 -0.5576 -0.4704  0.1286
48474SOL    HW257147   5.962   0.942   8.715 -1.1023 -1.2973 -1.4946
48475SOL     OW57148   0.150   5.410  10.196 -0.2821  0.1547 -0.0337
48475SOL    HW157149   0.069   5.387  10.151 -1.0199  0.6346  1.0278
48475SOL    HW257150   0.216   5.354  10.155 -1.2211 -0.5796 -0.5924
48476SOL     OW57151   6.136   9.897  10.145  0.2068  0.3434 -0.1626
48476SOL    HW157152   6.192   9.854  10.080 -0.4233 -1.4470  0.4179
48476SOL    HW257153   6.183   9.887  10.228 -0.2252  0.2416  0.0716
48477SOL     OW57154   0.618   5.956   2.980  0.1046  0.0997  0.1253
48477SOL    HW157155   0.589   5.903   2.905  1.5352  0.6545 -0.8512
48477SOL    HW257156   0.679   5.899   3.027  1.5492  0.8069 -0.8564
48478SOL     OW57157   9.544   9.695   7.992  0.0884 -0.1043  0.5666
48478SOL    HW157158   9.616   9.756   7.976  1.3705 -1.3730  1.2715
48478SOL    HW257159   9.573   9.642   8.066 -1.0451 -1.4692  0.0894
48479SOL     OW57160   5.443  11.645   9.889  0.2027  0.2101 -0.1726
48479SOL    HW157161   5.357  11.625   9.926  0.7917 -2.8117 -0.1860
48479SOL    HW257162   5.504  11.630   9.960  0.7930  2.3369 -0.1675
48480SOL     OW57163   8.331   3.015   7.628  0.0664  0.1959 -0.1298
48480SOL    HW157164   8.426   3.012   7.633  0.0888  1.6462  1.4201
48480SOL    HW257165   8.303   3.036   7.717 -1.8618 -2.3048 -0.0118
48481SOL     OW57166   8.900   7.392   0.505 -0.5878 -0.5628  0.0848
48481SOL    HW157167   8.903   7.453   0.579 -0.3796 -0.3777 -0.0787
48481SOL    HW257168   8.864   7.442   0.433  0.9566 -0.2029 -0.4588
48482SOL     OW57169   2.932   0.608   6.383 -0.0353 -0.0358 -0.1480
48482SOL    HW157170   2.961   0.598   6.473  0.9720  0.4432 -0.4014
48482SOL    HW257171   3.008   0.585   6.330 -0.2631  0.7520 -0.8547
48483SOL     OW57172   2.598   5.152   0.978 -0.5887  0.6038  0.7326
48483SOL    HW157173   2.513   5.195   0.984 -0.8657  0.2152 -0.2808
48483SOL    HW257174   2.659   5.213   1.020 -1.4396  0.6364  1.9638
48484SOL     OW57175   8.472   6.191   7.518  0.4385 -0.4866 -0.1284
48484SOL    HW157176   8.424   6.110   7.501  1.3353 -1.3605  1.2389
48484SOL    HW257177   8.404   6.256   7.534 -0.3010 -1.1916 -0.3171
48485SOL     OW57178   8.637   4.450  10.881 -0.3881  0.5846  0.0444
48485SOL    HW157179   8.605   4.408  10.801  0.3684  0.7013 -0.3300
48485SOL    HW257180   8.722   4.487  10.856  0.5247 -0.5698  1.2653
48486SOL     OW57181   1.469   4.780   2.446 -0.2772 -0.2221  0.3818
48486SOL    HW157182   1.404   4.710   2.453 -0.2526 -0.0330  3.8941
48486SOL    HW257183   1.431   4.853   2.495  1.4069  0.8765  0.1159
48487SOL     OW57184   9.520   5.841   2.450  0.1525 -0.8675 -0.4368
48487SOL    HW157185   9.498   5.934   2.455  1.1054 -0.6979  1.8145
48487SOL    HW257186   9.580   5.834   2.375  0.4085  0.4078 -0.3664
48488SOL     OW57187  10.130   1.686  10.038  0.2708  0.3171  0.1214
48488SOL    HW157188  10.129   1.770  10.086 -0.6552  0.2495  0.2377
48488SOL    HW257189  10.046   1.645  10.061  0.6216 -0.5408 -0.1190
48489SOL     OW57190  10.850   2.873   6.091 -0.0770  0.2635  0.3282
48489SOL    HW157191  10.765   2.831   6.104 -0.5292  0.6811 -1.1366
48489SOL    HW257192  10.844   2.955   6.140 -0.4482  0.2074  0.3784
48490SOL     OW57193   6.970   1.977   7.986  0.3787 -0.2492  0.3049
48490SOL    HW157194   7.062   1.958   7.972  0.6045  1.8173 -1.6394
48490SOL    HW257195   6.927   1.951   7.905 -0.3114  1.0627  0.2119
48491SOL     OW57196   8.990   0.767  10.376  0.4090 -0.1748 -0.1261
48491SOL    HW157197   9.009   0.789  10.467 -0.1923  0.8641 -0.2429
48491SOL    HW257198   9.064   0.803  10.327 -1.1849  2.8822 -0.4588
48492SOL     OW57199  11.398   6.626   7.060  0.2523  0.8422 -0.0195
48492SOL    HW157200  11.345   6.617   6.980 -0.2345  0.1935  0.3626
48492SOL    HW257201  11.339   6.598   7.130  1.6813 -1.8346  0.2380
48493SOL     OW57202   2.112   0.041   6.868 -0.6226  0.4938  0.0695
48493SOL    HW157203   2.204   0.064   6.881 -0.0919 -1.5690  0.4179
48493SOL    HW257204   2.066   0.124   6.867  1.1373  1.5352  0.7985
48494SOL     OW57205   7.442   7.910   5.138 -0.0218  0.0757 -0.2704
48494SOL    HW157206   7.455   7.922   5.232  0.2648  0.9286 -0.4032
48494SOL    HW257207   7.348   7.896   5.128 -0.5086  2.6549 -0.0671
48495SOL     OW57208   3.302  10.064   8.896  0.0097  0.4948 -0.2167
48495SOL    HW157209   3.293  10.159   8.904  0.3735  0.3634  2.9443
48495SOL    HW257210   3.215  10.033   8.871 -0.7197  1.5044  0.9767
48496SOL     OW57211  11.105   0.820   0.691 -0.4090  0.3797  0.2041
48496SOL    HW157212  11.043   0.883   0.654  0.4467  2.1384  1.5637
48496SOL    HW257213  11.184   0.830   0.638 -0.4663 -0.0161  0.0405
48497SOL     OW57214   1.699   2.340   9.305  0.1171  0.1527 -0.3366
48497SOL    HW157215   1.641   2.410   9.275  0.0262 -0.8539 -2.7057
48497SOL    HW257216   1.787   2.377   9.295  0.0306  0.3794 -0.2768
48498SOL     OW57217   2.793  10.474   8.593  0.5644  0.0953  1.1106
48498SOL    HW157218   2.885  10.498   8.591  0.3231  1.1695  2.0441
48498SOL    HW257219   2.749  10.540   8.539  0.3190 -0.3551  0.7469
48499SOL     OW57220   7.926   7.200   9.630 -0.1705  0.1284 -0.6315
48499SOL    HW157221   7.900   7.291   9.642  1.6850  0.9398 -2.2791
48499SOL    HW257222   8.009   7.192   9.676  0.2962 -0.3856 -1.5540
48500SOL     OW57223   6.539   7.122   0.930  0.4683 -0.6428 -0.0503
48500SOL    HW157224   6.471   7.117   0.863  1.3871  1.0525 -1.1890
48500SOL    HW257225   6.540   7.035   0.970 -0.7395 -1.4306 -1.6177
48501SOL     OW57226   4.465   5.016   7.663  0.7653  0.1363  0.3875
48501SOL    HW157227   4.496   5.104   7.684  1.1044 -0.0764  0.8146
48501SOL    HW257228   4.493   4.963   7.738  1.4381 -0.5266 -0.3083
48502SOL     OW57229   7.550   4.121  10.319 -0.5045 -0.0767  0.4316
48502SOL    HW157230   7.605   4.182  10.270  0.4133 -0.0856  1.3978
48502SOL    HW257231   7.612   4.056  10.353 -1.5267 -1.8937 -1.0304
48503SOL     OW57232   9.546   6.350   1.559  0.0463  0.5864  0.0923
48503SOL    HW157233   9.534   6.441   1.587  4.2439  1.4259 -0.2003
48503SOL    HW257234   9.519   6.349   1.467  0.5808  1.7295 -0.0920
48504SOL     OW57235   7.966   2.239   1.519 -0.3411 -0.1618 -0.3836
48504SOL    HW157236   7.979   2.171   1.585  0.7582  0.4115  0.0318
48504SOL    HW257237   7.995   2.320   1.563 -2.6352  0.7885 -0.4820
48505SOL     OW57238   1.938   8.054   2.771  0.0184  0.2299 -0.0304
48505SOL    HW157239   1.936   7.974   2.719  0.5299 -0.1732  0.5568
48505SOL    HW257240   2.008   8.041   2.834  0.2216  1.2149 -0.0277
48506SOL     OW57241   3.378   4.515   9.370 -0.1144 -0.2236 -0.0443
48506SOL    HW157242   3.346   4.574   9.438 -0.0614 -0.5784  0.2929
48506SOL    HW257243   3.361   4.427   9.405  0.4960 -0.4099 -0.2088
48507SOL     OW57244   6.617   6.031   2.481  0.1718 -0.1305  0.3189
48507SOL    HW157245   6.548   6.076   2.432  1.9406  0.4683 -1.8104
48507SOL    HW257246   6.635   6.089   2.556 -1.2147 -0.0310  0.6000
48508SOL     OW57247   8.755  10.448   1.859 -0.2065 -0.9584 -0.7623
48508SOL    HW157248   8.681  10.508   1.849 -0.7777 -1.4177  0.4856
48508SOL    HW257249   8.725  10.384   1.923  1.9732  0.0097  1.3774
48509SOL     OW57250   8.891  11.454   1.250 -0.4716  0.0412 -0.2484
48509SOL    HW157251   8.836  11.386   1.212 -1.3175  0.9352 -0.6673
48509SOL    HW257252   8.957  11.473   1.183 -0.2196 -0.3672 -0.1205
48510SOL     OW57253   2.467  11.088   2.322 -0.0580  0.2129 -0.0717
48510SOL    HW157254   2.539  11.025   2.318  0.0769  0.3764 -0.3094
48510SOL    HW257255   2.408  11.054   2.388  0.4836  0.3304  0.4794
48511SOL     OW57256   1.652   2.516   7.704  0.1365 -0.0246 -0.4136
48511SOL    HW157257   1.591   2.450   7.670 -0.1773  0.4000 -0.6683
48511SOL    HW257258   1.598   2.593   7.719  0.8522  0.8026 -1.9196
48512SOL     OW57259   6.382   1.974   3.915  0.2321 -0.0431 -0.2024
48512SOL    HW157260   6.355   1.883   3.910  2.0269 -0.7532  1.7911
48512SOL    HW257261   6.415   1.985   4.004 -3.3922  3.5945  1.0158
48513SOL     OW57262   2.033  11.717   4.023 -0.2094 -0.2716 -0.2689
48513SOL    HW157263   2.096  11.671   3.967 -0.9852 -1.0227 -0.5503
48513SOL    HW257264   2.042  11.809   3.998  1.1673 -0.2814  0.1012
48514SOL     OW57265   3.318   2.139   4.757 -0.0417  0.0552 -0.5613
48514SOL    HW157266   3.354   2.226   4.737  0.2874  0.0322 -0.1004
48514SOL    HW257267   3.368   2.110   4.833 -2.1797  0.7518  1.2154
48515SOL     OW57268   6.897   5.058   5.677 -0.7951 -1.3167 -0.6445
48515SOL    HW157269   6.865   5.115   5.607  0.1830 -0.6710 -0.5798
48515SOL    HW257270   6.856   4.973   5.659 -0.7165 -1.1129 -1.8887
48516SOL     OW57271   2.140   4.633   4.117  0.0046 -0.9759 -0.5058
48516SOL    HW157272   2.118   4.607   4.207 -0.5866  1.7856  0.2349
48516SOL    HW257273   2.081   4.582   4.063 -2.7570  0.4184  0.9897
48517SOL     OW57274   6.228   6.602   1.005  0.5192  0.1133 -0.8244
48517SOL    HW157275   6.310   6.599   0.955  0.9364  0.9062 -0.2001
48517SOL    HW257276   6.247   6.657   1.081 -0.2989 -0.5366 -0.1216
48518SOL     OW57277   6.053   1.316   1.754 -0.4146 -0.0659  0.1580
48518SOL    HW157278   6.012   1.316   1.841  1.4996 -1.7174  1.1343
48518SOL    HW257279   6.058   1.408   1.730 -2.6868  0.3148  0.9300
48519SOL     OW57280   2.772   3.211   1.765 -0.3379 -0.6479 -0.1614
48519SOL    HW157281   2.785   3.152   1.839 -1.7435 -0.9945 -0.1808
48519SOL    HW257282   2.680   3.236   1.769  0.1432  1.3937 -0.2728
48520SOL     OW57283  11.710  10.140   6.141  0.2330  0.3767  0.6370
48520SOL    HW157284  11.746  10.186   6.066  0.7338  0.8264  1.1465
48520SOL    HW257285  11.720  10.047   6.119 -0.5367  0.4870 -0.2751
48521SOL     OW57286   1.762   6.942   8.521  0.1501 -0.0414 -0.2594
48521SOL    HW157287   1.823   7.004   8.562  1.0860 -0.7641 -0.5219
48521SOL    HW257288   1.808   6.912   8.443 -2.0727  2.2247 -2.6217
48522SOL     OW57289   4.833   3.098   4.354 -0.4502 -0.3400 -0.1002
48522SOL    HW157290   4.760   3.040   4.374 -2.7366  1.8058 -1.6351
48522SOL    HW257291   4.869   3.122   4.439 -3.4329  0.7463  0.9901
48523SOL     OW57292  11.931  10.714   8.622 -0.8018  0.3373 -0.1502
48523SOL    HW157293  12.013  10.757   8.599  0.8432 -2.3455  0.3406
48523SOL    HW257294  11.881  10.713   8.540  1.6935 -2.1032 -1.8243
48524SOL     OW57295  11.481  10.300   9.333  0.6755  0.7035 -0.1915
48524SOL    HW157296  11.472  10.374   9.392  1.6943  0.8373 -0.1856
48524SOL    HW257297  11.468  10.223   9.388  0.5358  0.8548 -0.0141
48525SOL     OW57298   9.150   7.184  10.389  0.0719  0.1970  0.2102
48525SOL    HW157299   9.058   7.207  10.377 -0.3889  1.2282  4.2239
48525SOL    HW257300   9.197   7.265  10.370 -0.0621  0.2622  0.1550
48526SOL     OW57301   3.320   5.710   6.532  0.1927 -0.3282  0.1360
48526SOL    HW157302   3.349   5.677   6.617  1.2774  1.2080  0.3934
48526SOL    HW257303   3.336   5.804   6.535  0.1882 -0.2199 -1.7477
48527SOL     OW57304   6.949   3.008  10.180 -0.2067 -0.2848 -0.0711
48527SOL    HW157305   6.956   2.944  10.109  0.1813  0.3991 -0.6609
48527SOL    HW257306   6.985   2.963  10.257 -1.0072 -1.1754 -0.2041
48528SOL     OW57307   5.334   8.663   4.097 -0.2399  0.0405  0.9092
48528SOL    HW157308   5.346   8.630   4.008 -1.5829  0.6106  0.4901
48528SOL    HW257309   5.247   8.632   4.122  0.4333 -0.7582  2.3259
48529SOL     OW57310   3.589   0.973   8.593  0.0373  0.2584 -0.1609
48529SOL    HW157311   3.554   1.038   8.531 -0.1064 -0.6959 -1.1087
48529SOL    HW257312   3.525   0.902   8.592  0.4511 -0.1364  0.4695
48530SOL     OW57313   5.360   6.438   8.721 -0.0312  0.1574 -0.4038
48530SOL    HW157314   5.283   6.416   8.773  0.6655 -2.8506 -0.4379
48530SOL    HW257315   5.422   6.474   8.785 -0.9281  1.2151 -0.1134
48531SOL     OW57316   6.830   5.481   3.560 -0.3206 -0.1621  0.7047
48531SOL    HW157317   6.817   5.409   3.498 -0.0765  0.3694  0.0131
48531SOL    HW257318   6.921   5.471   3.589  0.1709  0.6274 -0.4404
48532SOL     OW57319   3.454   4.432   8.858 -0.2610  0.3240  0.4821
48532SOL    HW157320   3.413   4.448   8.943 -0.6257  0.5935  0.2570
48532SOL    HW257321   3.422   4.345   8.833 -1.1210  0.7404  0.0739
48533SOL     OW57322   6.103   2.835   9.986  0.3134  0.0078  0.4438
48533SOL    HW157323   6.062   2.850   9.901  0.4710 -0.0753  0.3534
48533SOL    HW257324   6.039   2.868  10.050  0.2520  0.1908  0.2872
48534SOL     OW57325   1.438   4.193   6.817  0.0829 -0.1892 -0.4952
48534SOL    HW157326   1.464   4.255   6.885 -2.1558  0.2497  0.0341
48534SOL    HW257327   1.437   4.246   6.737 -1.2500  0.3865 -0.1397
48535SOL     OW57328  11.621   9.881   7.940  0.3575  0.6207  0.2456
48535SOL    HW157329  11.639   9.918   7.854  0.6118 -0.0427  0.0056
48535SOL    HW257330  11.616   9.957   7.998  0.9014  1.0287 -0.2248
48536SOL     OW57331   0.439   8.399   3.948  0.1202  0.2105 -0.5807
48536SOL    HW157332   0.493   8.366   4.020 -1.1454 -2.0663 -0.5904
48536SOL    HW257333   0.446   8.495   3.954  0.0889  0.0890  2.5157
48537SOL     OW57334   3.837   9.161   9.898 -0.4332  0.1110  0.1429
48537SOL    HW157335   3.811   9.118   9.979 -0.6515  1.6216  0.9111
48537SOL    HW257336   3.754   9.189   9.858 -0.2462  1.1120  0.4189
48538SOL     OW57337   9.561   8.345   9.633 -0.2660 -0.1059 -0.3627
48538SOL    HW157338   9.649   8.349   9.670  0.2256 -1.3852 -1.3314
48538SOL    HW257339   9.503   8.355   9.709  0.7002  0.3921  0.3381
48539SOL     OW57340   9.131   0.428   4.586 -0.3405  0.1520 -0.2551
48539SOL    HW157341   9.105   0.338   4.604  0.2070  0.0196 -0.1083
48539SOL    HW257342   9.064   0.481   4.627  1.2985 -0.1039  3.0401
48540SOL     OW57343   9.196   6.868   5.941  0.4841 -0.6077 -0.3505
48540SOL    HW157344   9.236   6.954   5.943  0.6321 -0.6544 -1.1303
48540SOL    HW257345   9.181   6.846   6.034 -2.5272  1.6324 -0.1505
48541SOL     OW57346   8.498  10.118   1.146  0.2008  0.1272  0.0590
48541SOL    HW157347   8.411  10.146   1.117  0.1238 -0.4568 -0.3033
48541SOL    HW257348   8.482  10.035   1.191  0.4477  0.5310  0.9077
48542SOL     OW57349   0.783   8.820   9.287  0.0404  0.0761  0.6448
48542SOL    HW157350   0.713   8.774   9.240  0.0274  0.4229  0.3179
48542SOL    HW257351   0.837   8.750   9.323  0.3813 -0.2133 -0.3882
48543SOL     OW57352   7.936   5.092   9.408  0.4001  0.4886  0.3113
48543SOL    HW157353   8.012   5.068   9.355  0.4872  0.4444  0.4551
48543SOL    HW257354   7.915   5.011   9.456 -1.0937 -0.1738 -1.3654
48544SOL     OW57355   7.784   2.245   3.263  0.3116  0.0720  0.1158
48544SOL    HW157356   7.803   2.181   3.194  1.7030  1.5438 -0.9279
48544SOL    HW257357   7.697   2.221   3.294  1.2023 -3.0132  0.5654
48545SOL     OW57358   0.718   6.963   6.870  0.2611  0.1367 -0.7145
48545SOL    HW157359   0.677   6.912   6.800 -0.9701  0.2902 -0.1333
48545SOL    HW257360   0.757   6.898   6.928 -1.2538 -0.1689 -0.0070
48546SOL     OW57361   0.119   8.693   1.347 -0.1550 -0.1955  0.2528
48546SOL    HW157362   0.120   8.714   1.440 -0.0841 -0.6490  0.3557
48546SOL    HW257363   0.212   8.681   1.324  0.3204  3.8945 -0.8056
48547SOL     OW57364  11.497   3.361   9.783 -0.2160  0.0978 -0.3229
48547SOL    HW157365  11.433   3.290   9.778 -0.1244  0.0585 -1.1811
48547SOL    HW257366  11.564   3.328   9.843 -0.8757  0.0509  0.4105
48548SOL     OW57367   3.942   3.822   6.763  0.0320  0.0449 -0.2909
48548SOL    HW157368   3.923   3.818   6.669  1.8702 -0.1432 -0.6905
48548SOL    HW257369   4.013   3.886   6.771  1.1966 -1.2965  0.7170
48549SOL     OW57370   7.067   9.376   9.000  0.1497 -0.3127 -0.0405
48549SOL    HW157371   7.060   9.313   8.928 -2.4329 -0.8864  0.5973
48549SOL    HW257372   7.035   9.458   8.963 -0.4999 -0.4346  0.2388
48550SOL     OW57373   5.496   8.942  11.615  0.4624 -0.1648 -0.2181
48550SOL    HW157374   5.539   8.856  11.619  2.6441  0.9142  1.8787
48550SOL    HW257375   5.442   8.938  11.536  1.2910 -3.0772 -0.7677
48551SOL     OW57376   1.449   6.618   9.902  0.3686 -0.4413 -0.3068
48551SOL    HW157377   1.410   6.535   9.928  0.6407 -1.0014 -1.6024
48551SOL    HW257378   1.441   6.620   9.806 -1.0232  1.7229 -0.2188
48552SOL     OW57379   4.047   1.785  11.496  0.2633 -0.9248 -0.0877
48552SOL    HW157380   4.070   1.700  11.532  0.9064 -1.7761 -2.3187
48552SOL    HW257381   4.092   1.848  11.551 -0.5079 -1.9776  1.8299
48553SOL     OW57382   4.809  10.617   2.163 -0.3893 -0.2030 -0.1634
48553SOL    HW157383   4.715  10.634   2.166 -0.1730  0.9295  1.1158
48553SOL    HW257384   4.821  10.538   2.217 -0.4067  0.8304  1.4254
48554SOL     OW57385  10.967   8.535   8.123  0.3621  0.2581 -0.0324
48554SOL    HW157386  11.001   8.494   8.043  0.5043 -1.1606  0.7179
48554SOL    HW257387  10.900   8.597   8.092 -0.4677 -1.1627 -1.2023
48555SOL     OW57388  10.513   3.597   0.424  0.4242 -0.4933  0.1007
48555SOL    HW157389  10.560   3.609   0.506  0.7104 -0.8358 -0.0091
48555SOL    HW257390  10.567   3.642   0.359  0.4045 -0.5638  0.0354
48556SOL     OW57391   6.790   9.305   2.052  0.2913  0.4123 -0.0385
48556SOL    HW157392   6.774   9.333   2.142  2.5724  1.8846 -0.0143
48556SOL    HW257393   6.861   9.361   2.021  1.6219 -2.0167 -1.7838
48557SOL     OW57394  11.047   2.221   3.029  0.1627 -0.0184 -0.0277
48557SOL    HW157395  11.049   2.276   3.107 -0.0403  1.5386 -1.0822
48557SOL    HW257396  10.989   2.148   3.053  0.8933 -0.1114  1.5896
48558SOL     OW57397   3.225   7.236   8.497  0.4207 -0.0848 -1.0504
48558SOL    HW157398   3.151   7.246   8.436  0.5105  0.9445 -1.0203
48558SOL    HW257399   3.210   7.152   8.539 -0.8164  0.1567 -0.9543
48559SOL     OW57400  10.339   6.342   4.762  0.0549  0.2897 -0.7007
48559SOL    HW157401  10.407   6.390   4.809  0.7290 -2.0955  0.9641
48559SOL    HW257402  10.387   6.291   4.696 -0.1256 -0.9092  0.0545
48560SOL     OW57403   5.929   5.024   9.742 -0.0748 -0.2060 -0.4675
48560SOL    HW157404   5.893   5.050   9.826  1.1456  0.5333 -0.1557
48560SOL    HW257405   5.939   5.105   9.693 -1.1591 -0.6713 -1.4952
48561SOL     OW57406   3.538   1.719   7.560  0.7915  0.5183  0.3465
48561SOL    HW157407   3.623   1.717   7.515  0.4222  1.7358 -0.4581
48561SOL    HW257408   3.474   1.714   7.489  0.1902  0.8765  0.8577
48562SOL     OW57409   9.072   9.395   8.558 -0.3992 -0.4654  0.6560
48562SOL    HW157410   8.994   9.443   8.531  0.3125 -0.2364 -1.1023
48562SOL    HW257411   9.106   9.357   8.477  0.3927 -1.9540  1.6385
48563SOL     OW57412  11.279   1.061   3.062  0.3942  0.6059 -0.3833
48563SOL    HW157413  11.364   1.053   3.019  1.8796  3.6776  1.5677
48563SOL    HW257414  11.300   1.074   3.155 -2.4246 -1.3443  0.6675
48564SOL     OW57415   1.028   9.371   1.166  0.0670  0.0873  0.2851
48564SOL    HW157416   0.934   9.387   1.158 -0.4780 -2.2959  1.2418
48564SOL    HW257417   1.049   9.313   1.093  0.7035  0.2288  0.3515
48565SOL     OW57418  11.329   5.465   0.641 -0.3806  0.0512 -0.4884
48565SOL    HW157419  11.246   5.442   0.683 -0.7073  0.8912 -0.6488
48565SOL    HW257420  11.351   5.388   0.588 -0.9566 -0.2583 -0.2906
48566SOL     OW57421   7.198   2.236   1.166 -0.1128 -0.1325 -0.2849
48566SOL    HW157422   7.283   2.199   1.145  0.3258  0.8904 -0.3555
48566SOL    HW257423   7.192   2.230   1.261 -0.4258 -1.1637 -0.3540
48567SOL     OW57424   2.355   6.328   9.722  0.1007  0.7558  0.0151
48567SOL    HW157425   2.361   6.236   9.747  0.8245 -0.1090 -2.9648
48567SOL    HW257426   2.268   6.337   9.683  0.2989  1.1500 -0.3459
48568SOL     OW57427   7.453   5.331   0.419 -0.5576 -0.4073  0.0734
48568SOL    HW157428   7.540   5.291   0.414  0.4088  1.6056 -0.0868
48568SOL    HW257429   7.393   5.257   0.432  1.2445 -1.7789  1.0062
48569SOL     OW57430   3.233   8.291   3.815 -0.6071 -0.2348 -0.7297
48569SOL    HW157431   3.218   8.254   3.728 -0.2421 -1.7631 -0.1842
48569SOL    HW257432   3.152   8.336   3.837 -1.7085 -2.0861 -0.8043
48570SOL     OW57433   9.672   8.496   8.711  0.4815  0.5539  0.1515
48570SOL    HW157434   9.682   8.407   8.744  0.7726  0.8701  0.9582
48570SOL    HW257435   9.755   8.539   8.735 -0.5470  1.6895  1.9253
48571SOL     OW57436   1.901   2.257   7.552 -0.4191 -0.4986  0.0580
48571SOL    HW157437   1.806   2.250   7.540 -0.6520  1.5627  0.3540
48571SOL    HW257438   1.937   2.232   7.467 -1.2154 -1.2606 -0.0740
48572SOL     OW57439   5.464   0.161   7.345 -0.2188  0.1743 -0.1038
48572SOL    HW157440   5.545   0.118   7.319 -1.2211 -0.4456 -2.4421
48572SOL    HW257441   5.416   0.175   7.264 -2.1350  1.2381  1.1124
48573SOL     OW57442   5.928   1.366   5.084  0.1290  0.5304 -0.1402
48573SOL    HW157443   5.876   1.287   5.067  0.2647  0.2023  0.9310
48573SOL    HW257444   5.872   1.421   5.138  0.5684  0.5472  0.3062
48574SOL     OW57445   8.295   4.588   8.118 -0.4174  0.3819  0.1334
48574SOL    HW157446   8.372   4.645   8.126  0.5876 -0.8992 -0.1676
48574SOL    HW257447   8.231   4.641   8.069  0.6505  1.0944 -0.5249
48575SOL     OW57448   3.889   7.546  10.067 -0.4156  0.9352 -1.3165
48575SOL    HW157449   3.812   7.491  10.056 -0.8888  1.1496  0.5181
48575SOL    HW257450   3.958   7.486  10.095 -0.8120  1.1705  0.2408
48576SOL     OW57451  11.351   3.412   5.146  0.2902  0.2284  0.2419
48576SOL    HW157452  11.437   3.391   5.181  0.1043 -1.5322 -0.2586
48576SOL    HW257453  11.364   3.421   5.052 -0.0246  0.2291  0.1963
48577SOL     OW57454   1.385   4.690   9.052  0.1878  0.1470  0.1951
48577SOL    HW157455   1.409   4.774   9.090 -0.9578  0.4501  0.2947
48577SOL    HW257456   1.373   4.708   8.959  2.2532 -0.4343 -0.2296
48578SOL     OW57457   2.259   3.495   1.418  0.3320 -0.9917 -0.0272
48578SOL    HW157458   2.247   3.456   1.505 -0.3115  1.1218  0.8974
48578SOL    HW257459   2.346   3.536   1.423 -1.1670  2.4326  1.1095
48579SOL     OW57460   5.133   3.062   9.510  0.3134 -0.2002 -0.5341
48579SOL    HW157461   5.057   3.119   9.495  1.1839  0.6161 -2.2712
48579SOL    HW257462   5.109   2.979   9.468 -0.0371 -0.3216 -0.1017
48580SOL     OW57463   7.445   5.842   7.540  0.4681  0.2195 -0.0484
48580SOL    HW157464   7.438   5.927   7.584 -0.5365 -0.5061  1.2628
48580SOL    HW257465   7.366   5.834   7.488 -0.0750 -0.4375  0.8451
48581SOL     OW57466  11.005   6.095   2.995 -0.4651  0.0392  0.0539
48581SOL    HW157467  10.941   6.156   3.031  0.2212  0.1816  1.0594
48581SOL    HW257468  11.032   6.136   2.912 -0.2818  0.9309  0.5379
48582SOL     OW57469   3.081   3.483   9.125 -0.2538 -0.5007 -0.0415
48582SOL    HW157470   3.172   3.480   9.156 -0.2476 -1.0478 -0.0979
48582SOL    HW257471   3.029   3.496   9.205 -0.1747 -0.9305  0.0801
48583SOL     OW57472  10.024   6.777   8.355 -0.7794 -0.4312 -0.4857
48583SOL    HW157473   9.969   6.842   8.400 -0.6081 -0.3268 -0.4243
48583SOL    HW257474  10.114   6.803   8.378 -0.7310 -1.8590  1.1740
48584SOL     OW57475   6.071   0.261   3.444 -0.2808 -0.0206 -0.1187
48584SOL    HW157476   6.110   0.188   3.396 -0.2916 -1.2780  1.6634
48584SOL    HW257477   6.107   0.339   3.404  0.0746 -1.0138 -1.8170
48585SOL     OW57478   6.027   9.368   5.181  0.8473 -0.2615 -0.3635
48585SOL    HW157479   6.088   9.387   5.110  1.5412  0.9962  0.5352
48585SOL    HW257480   6.016   9.273   5.179 -0.3733 -0.1703 -3.1369
48586SOL     OW57481  10.809   3.064   1.801  0.5769 -0.5410  0.3279
48586SOL    HW157482  10.788   2.995   1.737 -3.7119  0.6371  0.1249
48586SOL    HW257483  10.768   3.035   1.882  1.4561  0.3499  1.1108
48587SOL     OW57484  10.034  11.154  10.585  0.1964 -0.4158 -0.2082
48587SOL    HW157485  10.107  11.178  10.528 -0.7267 -0.0168 -1.2572
48587SOL    HW257486   9.991  11.237  10.605  0.6112 -0.5308  1.2363
48588SOL     OW57487   5.307  10.431   0.473  0.5273 -0.1619  0.3933
48588SOL    HW157488   5.310  10.375   0.395 -0.5682  0.6552 -0.2479
48588SOL    HW257489   5.332  10.518   0.442  0.7806  0.0257  1.0976
48589SOL     OW57490   3.251   9.679   2.801  0.4353 -0.6982  0.2221
48589SOL    HW157491   3.203   9.718   2.875  0.6960 -1.2695  0.7036
48589SOL    HW257492   3.190   9.683   2.728  0.4998  0.7447  0.2142
48590SOL     OW57493   2.149   2.367   1.385  0.1000 -0.3703  1.0988
48590SOL    HW157494   2.072   2.331   1.430  0.3106 -1.7215  0.4042
48590SOL    HW257495   2.223   2.341   1.439  0.1350  0.4249  1.4492
48591SOL     OW57496   2.482   3.712   4.170 -0.3033 -0.5658  0.6925
48591SOL    HW157497   2.463   3.638   4.227 -1.9371  0.0487  0.9980
48591SOL    HW257498   2.396   3.747   4.146  0.4061  1.7838  1.3002
48592SOL     OW57499   5.475   1.037   8.305  0.1574 -0.1803 -0.5407
48592SOL    HW157500   5.480   1.039   8.401 -1.1638 -1.7032 -0.3979
48592SOL    HW257501   5.566   1.040   8.276  0.6574 -1.3101  0.8306
48593SOL     OW57502   2.487   3.210  11.912  0.8399 -0.3088 -0.1321
48593SOL    HW157503   2.487   3.269  11.836  1.7339  0.4243  0.4217
48593SOL    HW257504   2.516   3.126  11.877  2.8992  0.4424 -0.3228
48594SOL     OW57505   2.002   3.775   8.658  0.0253  0.1587  0.0882
48594SOL    HW157506   1.957   3.780   8.573 -0.9978 -1.8787  0.4396
48594SOL    HW257507   2.087   3.736   8.638  0.5715  1.4457 -0.2115
48595SOL     OW57508   2.375   7.791   4.622  0.0791  0.3580 -0.2715
48595SOL    HW157509   2.368   7.741   4.703  0.1479  0.3097 -0.2943
48595SOL    HW257510   2.448   7.851   4.636 -0.2280  0.6943 -0.1189
48596SOL     OW57511   9.148   3.180   8.012 -0.1964  0.8989  0.5462
48596SOL    HW157512   9.188   3.201   8.096 -0.7105 -1.6814  1.5008
48596SOL    HW257513   9.065   3.230   8.012  0.5800  2.2461  0.7575
48597SOL     OW57514  11.748   7.567   9.156 -0.1965  0.6051 -0.2306
48597SOL    HW157515  11.837   7.553   9.126 -1.0664 -1.7074 -1.9891
48597SOL    HW257516  11.744   7.527   9.243  0.3038  0.1428 -0.4222
48598SOL     OW57517   5.088   9.123  10.401 -0.1946 -0.1355  0.4632
48598SOL    HW157518   5.124   9.198  10.353  0.8563  0.0476  1.4977
48598SOL    HW257519   5.161   9.063  10.411 -0.4207 -0.2179  1.7297
48599SOL     OW57520   4.160   1.491   9.106 -0.3315  0.9511  0.4760
48599SOL    HW157521   4.249   1.526   9.116 -0.3521  0.9858  0.5374
48599SOL    HW257522   4.172   1.408   9.060 -0.2359  0.7885  0.7926
48600SOL     OW57523   3.451  10.660   3.574 -0.3935 -0.1461 -0.0262
48600SOL    HW157524   3.449  10.714   3.495  0.1143  0.9800  0.7132
48600SOL    HW257525   3.538  10.675   3.612 -0.9074 -0.0464  1.1599
48601SOL     OW57526  11.741  10.105  10.506  0.0471  0.3647 -0.0938
48601SOL    HW157527  11.654  10.079  10.474  0.1341 -0.2737  0.1766
48601SOL    HW257528  11.796  10.105  10.427 -0.3718  1.5517 -0.3992
48602SOL     OW57529   4.751   7.613   1.102  0.6509  0.1763  0.8127
48602SOL    HW157530   4.665   7.651   1.083  0.4897 -0.6278 -0.1143
48602SOL    HW257531   4.761   7.624   1.197 -0.0652  1.1114  0.7985
48603SOL     OW57532   1.737   1.915   7.044  0.2192  0.1754 -0.8814
48603SOL    HW157533   1.685   1.902   6.965  1.6509 -0.6753 -1.7205
48603SOL    HW257534   1.810   1.970   7.016 -0.1348  1.2798  0.2622
48604SOL     OW57535   1.608   6.519   6.390 -0.5097 -0.2721  0.2498
48604SOL    HW157536   1.604   6.516   6.486  0.7524  1.4875  0.3946
48604SOL    HW257537   1.648   6.603   6.370  1.7420 -1.6911 -1.7686
48605SOL     OW57538  11.413  11.920   5.782  0.3438  0.1599  0.5345
48605SOL    HW157539  11.425  11.825   5.788 -0.8004 -0.1064 -0.7395
48605SOL    HW257540  11.319  11.931   5.771  0.5855  1.3463 -0.5619
48606SOL     OW57541   7.519   0.250   7.257  0.2214  0.3325  0.3981
48606SOL    HW157542   7.605   0.241   7.297 -0.3324  1.1337  1.8495
48606SOL    HW257543   7.536   0.248   7.163  1.7969  0.3131  0.6568
48607SOL     OW57544   7.002  10.215   1.546 -0.6973  0.4980  0.0394
48607SOL    HW157545   6.951  10.159   1.605  1.3310  0.0729  1.4939
48607SOL    HW257546   7.071  10.251   1.601  1.2145  0.2268 -2.0481
48608SOL     OW57547  11.835   2.415   7.885 -0.3409  0.4411  1.2299
48608SOL    HW157548  11.822   2.329   7.924 -1.9217 -0.9297 -1.9367
48608SOL    HW257549  11.747   2.445   7.862  0.4041  1.3148 -0.7418
48609SOL     OW57550   1.947  11.751  10.572  0.5099 -0.3833  0.5373
48609SOL    HW157551   1.973  11.729  10.661  1.4119  0.6715  0.5547
48609SOL    HW257552   2.006  11.700  10.516  0.2897 -0.6489  0.5474
48610SOL     OW57553   6.627   9.600  10.425  0.2548  0.0624 -0.0411
48610SOL    HW157554   6.647   9.682  10.470  0.2974 -0.3466  0.6995
48610SOL    HW257555   6.628   9.623  10.332  0.7053  0.8079  0.1367
48611SOL     OW57556  10.848   5.925   7.453  0.4026 -0.2868  0.5790
48611SOL    HW157557  10.829   5.907   7.361 -0.0805  1.5340  0.2838
48611SOL    HW257558  10.916   5.993   7.451  0.1880 -0.0259  1.5595
48612SOL     OW57559   9.213   2.772   0.715  0.1578 -0.3860 -0.2546
48612SOL    HW157560   9.237   2.686   0.681  1.3577 -0.3711  0.4545
48612SOL    HW257561   9.286   2.795   0.773 -0.6643  0.6312  0.4080
48613SOL     OW57562   0.688   5.393   0.055 -0.0577 -0.2876  0.1543
48613SOL    HW157563   0.598   5.371   0.077  0.5403 -1.7378  1.3214
48613SOL    HW257564   0.692   5.488   0.063 -1.9138  0.0279 -1.7715
48614SOL     OW57565   9.114   5.160   1.331 -0.2323 -0.2635 -0.1982
48614SOL    HW157566   9.174   5.233   1.314 -1.5959  1.2686  1.2185
48614SOL    HW257567   9.169   5.092   1.368  1.1741 -0.2052 -2.0414
48615SOL     OW57568  10.255   0.341   5.085 -0.1023 -0.3498 -0.1971
48615SOL    HW157569  10.283   0.255   5.053 -0.2564 -0.4357 -0.1046
48615SOL    HW257570  10.332   0.378   5.128  0.3966  0.1845 -1.5223
48616SOL     OW57571   6.448   8.920   7.987 -0.2265 -0.3429 -0.0627
48616SOL    HW157572   6.442   8.986   7.917  1.4195  0.7742  0.7844
48616SOL    HW257573   6.514   8.859   7.956  1.5290  0.9186  1.0546
48617SOL     OW57574   1.332  11.065   0.430 -0.4500 -0.2005 -0.5043
48617SOL    HW157575   1.389  10.994   0.401  0.5974  0.9890 -1.5117
48617SOL    HW257576   1.361  11.141   0.379 -1.7664  0.8683  0.2686
48618SOL     OW57577   6.603   4.088   6.118 -0.4636  0.0333  0.2229
48618SOL    HW157578   6.642   4.004   6.093 -0.2340  0.1886  0.0497
48618SOL    HW257579   6.540   4.066   6.186  0.6850 -0.0947  1.2790
48619SOL     OW57580   7.253   3.499   0.865  0.4240  0.1121  0.4296
48619SOL    HW157581   7.175   3.487   0.919  0.9883 -1.0794  1.0224
48619SOL    HW257582   7.244   3.586   0.828 -1.5684 -0.2832 -0.1208
48620SOL     OW57583   8.128   9.818   9.340  0.4761 -1.0833  0.1418
48620SOL    HW157584   8.194   9.794   9.275  0.7454 -0.4846  0.1957
48620SOL    HW257585   8.177   9.828   9.422  0.2398 -1.1348  0.2923
48621SOL     OW57586  11.301   2.151   3.797 -0.1051  0.3992 -0.2133
48621SOL    HW157587  11.394   2.153   3.776 -0.4386  1.9168 -1.7522
48621SOL    HW257588  11.259   2.127   3.714 -1.0428 -1.8472  0.8172
48622SOL     OW57589   2.742   3.710   0.842  0.0943  0.1861  0.1472
48622SOL    HW157590   2.805   3.643   0.867  0.5319  0.1019 -1.1325
48622SOL    HW257591   2.795   3.780   0.802 -0.5251  0.5247 -0.0991
48623SOL     OW57592   5.057   7.696   8.553  0.1513  0.0962 -0.1001
48623SOL    HW157593   5.148   7.703   8.583  0.0134 -0.5395  0.4778
48623SOL    HW257594   5.063   7.655   8.467  0.3682 -0.7113  0.2874
48624SOL     OW57595   9.763  10.301   4.831 -0.2907 -0.0935 -0.6081
48624SOL    HW157596   9.850  10.309   4.791  0.3848  0.1168  0.8276
48624SOL    HW257597   9.768  10.357   4.908 -1.4262 -0.7714 -0.0297
48625SOL     OW57598   0.911   4.902   6.663 -0.0832 -0.1655 -0.8442
48625SOL    HW157599   0.908   4.905   6.758 -0.3597 -1.7591 -0.7697
48625SOL    HW257600   0.860   4.824   6.640  0.1046  0.1120 -2.2814
48626SOL     OW57601   4.001   5.939  11.475  0.4063  0.1605  0.3987
48626SOL    HW157602   3.944   6.003  11.434  1.3219  2.0654  1.9526
48626SOL    HW257603   4.031   5.884  11.403 -2.3659 -0.1689 -0.6262
48627SOL     OW57604  11.464   1.322   7.323  0.3787  0.1824  0.3309
48627SOL    HW157605  11.542   1.323   7.379 -0.0019  0.3635  0.8662
48627SOL    HW257606  11.467   1.405   7.276  0.4300  0.2580  0.4658
48628SOL     OW57607  11.895   0.954   1.709  0.1698 -0.0879 -0.7350
48628SOL    HW157608  11.867   1.030   1.760  0.3698 -0.7411  0.3774
48628SOL    HW257609  11.896   0.985   1.619 -1.3334  0.7628 -0.4930
48629SOL     OW57610  10.634   0.725   8.206 -0.3752 -0.1636 -0.4952
48629SOL    HW157611  10.616   0.631   8.210 -0.8509 -0.0556  0.2919
48629SOL    HW257612  10.548   0.766   8.215 -0.2628  0.3518 -1.6370
48630SOL     OW57613  11.115   0.237   9.021 -1.1620  0.6001  0.5050
48630SOL    HW157614  11.113   0.333   9.016 -0.9984  0.6182  0.7851
48630SOL    HW257615  11.039   0.209   8.970 -0.0146  0.8100 -1.4534
48631SOL     OW57616   3.617  11.064   8.313 -0.2601 -0.5041 -0.1368
48631SOL    HW157617   3.643  10.983   8.356 -1.1217 -0.4833  0.4402
48631SOL    HW257618   3.692  11.122   8.325 -0.3357 -0.6201  1.0121
48632SOL     OW57619   6.472   1.878   2.712  0.7642 -0.3930  0.2138
48632SOL    HW157620   6.393   1.933   2.717  1.6189  0.8560  0.5402
48632SOL    HW257621   6.524   1.905   2.788  1.8898 -0.5680 -0.4764
48633SOL     OW57622  11.205   1.372   6.420  0.1930 -0.2010  0.1029
48633SOL    HW157623  11.173   1.462   6.412  0.8674 -0.0762 -1.4159
48633SOL    HW257624  11.126   1.319   6.430 -0.2565  0.4742  0.1524
48634SOL     OW57625   3.165   4.233   4.170 -0.2320  0.0109 -0.9787
48634SOL    HW157626   3.118   4.157   4.204  0.8423 -0.1075  0.3306
48634SOL    HW257627   3.253   4.225   4.206  0.2472  1.2472 -1.7970
48635SOL     OW57628   4.659   2.992   0.168 -1.1534 -0.1370 -0.4418
48635SOL    HW157629   4.629   2.906   0.198 -0.9716 -0.1040 -0.1633
48635SOL    HW257630   4.750   2.997   0.198 -0.9469 -0.1284 -1.0455
48636SOL     OW57631   5.255   8.464   0.053  0.6571  0.6063  0.6849
48636SOL    HW157632   5.320   8.407   0.094  2.0724  0.4204 -1.6558
48636SOL    HW257633   5.176   8.410   0.047  1.0948 -0.0985  1.1237
48637SOL     OW57634   1.727  11.216   4.413 -0.3581  0.2616 -0.2882
48637SOL    HW157635   1.778  11.276   4.466 -0.3317  0.0568 -0.0837
48637SOL    HW257636   1.646  11.264   4.394 -0.0990  0.5812 -0.6040
48638SOL     OW57637   3.554   8.837   5.261 -0.2523 -0.1986 -0.0108
48638SOL    HW157638   3.649   8.846   5.274 -0.1007 -0.0423 -1.1105
48638SOL    HW257639   3.544   8.754   5.215 -0.4043  0.8874 -2.0421
48639SOL     OW57640   4.546   8.334   4.319  0.0416 -0.1023 -0.0626
48639SOL    HW157641   4.489   8.313   4.393 -0.1730  0.5889 -0.0195
48639SOL    HW257642   4.568   8.249   4.280 -0.5685 -0.4130  0.2588
48640SOL     OW57643   0.140   3.177  11.571  0.0877  0.4639  0.1505
48640SOL    HW157644   0.167   3.196  11.661 -0.4369  0.6137  0.2754
48640SOL    HW257645   0.191   3.238  11.518  0.0518  0.6992  0.3839
48641SOL     OW57646   6.511  11.442   2.020 -0.5169 -0.4589 -0.6812
48641SOL    HW157647   6.503  11.535   2.000  0.5313 -0.2269 -0.0953
48641SOL    HW257648   6.421  11.411   2.030 -0.8928  0.3175 -1.6342
48642SOL     OW57649   3.940   0.551   9.579 -0.1509 -0.4497 -0.7727
48642SOL    HW157650   4.025   0.553   9.625 -0.3298 -1.2060 -0.3884
48642SOL    HW257651   3.948   0.477   9.519 -0.8471 -1.0938 -0.0972
48643SOL     OW57652   0.842  11.450   5.192  0.2934  0.1247  0.0272
48643SOL    HW157653   0.765  11.506   5.200 -0.0292 -0.3858  0.5582
48643SOL    HW257654   0.911  11.509   5.162 -0.5321  0.3941 -1.4263
48644SOL     OW57655   1.980   4.452   3.990 -0.4117 -0.4772  0.1918
48644SOL    HW157656   2.002   4.429   3.899 -0.5850 -0.9316  0.2637
48644SOL    HW257657   1.888   4.430   3.998  0.0259 -2.1665  1.0131
48645SOL     OW57658   4.817   4.285   8.788  0.1776  0.4265  0.1995
48645SOL    HW157659   4.777   4.213   8.837 -0.0615 -0.0755 -0.7089
48645SOL    HW257660   4.772   4.364   8.821 -0.4517  0.0303  0.3145
48646SOL     OW57661  11.506   6.789   7.276 -0.0807 -0.5506 -0.0838
48646SOL    HW157662  11.473   6.768   7.188  0.3041  0.6445 -0.5327
48646SOL    HW257663  11.510   6.705   7.321 -0.2346 -1.1917 -1.2331
48647SOL     OW57664   7.024   5.031   3.547 -0.5905 -0.0536 -0.4547
48647SOL    HW157665   7.120   5.028   3.539 -0.3135  2.8799  0.5309
48647SOL    HW257666   7.009   5.074   3.631 -2.6959  2.1342 -1.8394
48648SOL     OW57667  10.382   3.069   1.621  0.3240  0.5966  0.6134
48648SOL    HW157668  10.303   3.065   1.674 -0.0589 -2.6671 -0.0171
48648SOL    HW257669  10.372   3.149   1.569 -1.4795  1.4085  2.1118
48649SOL     OW57670   3.769   8.736   0.897 -0.4788 -0.1050  0.3706
48649SOL    HW157671   3.789   8.827   0.920  4.1220 -0.5134 -0.8506
48649SOL    HW257672   3.738   8.740   0.807 -0.4014  0.2607  0.3594
48650SOL     OW57673  10.352  11.797  10.240 -0.0487  0.1304  0.0683
48650SOL    HW157674  10.311  11.710  10.243 -0.5693  0.3650 -0.0975
48650SOL    HW257675  10.445  11.779  10.226 -0.1192 -0.4074  0.2661
48651SOL     OW57676   9.738   7.071  10.905 -0.0903  0.3765  0.4794
48651SOL    HW157677   9.654   7.105  10.874  0.2595  0.2497 -0.6545
48651SOL    HW257678   9.728   7.067  11.000 -0.3445  3.1675  0.6794
48652SOL     OW57679   4.630   2.799   5.715  0.5270 -0.4381 -0.1877
48652SOL    HW157680   4.634   2.894   5.721 -0.2875 -0.4098  0.0045
48652SOL    HW257681   4.704   2.775   5.659  1.5239  0.2020  0.8247
48653SOL     OW57682   8.517   3.472   0.397 -0.1476 -0.0259  0.4566
48653SOL    HW157683   8.471   3.401   0.353  0.2951  1.7877 -3.2943
48653SOL    HW257684   8.609   3.447   0.395 -0.0032  0.5100 -0.7793
48654SOL     OW57685   4.321   7.126  11.744  0.1035 -0.0748  0.3033
48654SOL    HW157686   4.252   7.168  11.795 -1.6911 -3.1057  0.6462
48654SOL    HW257687   4.347   7.051  11.798  0.2097 -1.7284 -1.8999
48655SOL     OW57688   6.319   2.797   6.339 -0.1448 -0.9034  0.0008
48655SOL    HW157689   6.255   2.801   6.269  0.7436 -3.3538 -1.0813
48655SOL    HW257690   6.400   2.830   6.300 -0.2562  0.3789  0.7821
48656SOL     OW57691   4.725   3.909  11.724 -0.0410  0.3905  0.4532
48656SOL    HW157692   4.757   3.936  11.638  0.3795 -2.8408 -0.5413
48656SOL    HW257693   4.785   3.950  11.786  1.5663  0.3419 -0.9965
48657SOL     OW57694  11.826   4.203   4.578  0.2136 -0.7524 -1.0799
48657SOL    HW157695  11.864   4.181   4.663 -0.0699  0.1069 -0.7153
48657SOL    HW257696  11.760   4.135   4.563 -0.6352 -0.1976  0.0059
48658SOL     OW57697   3.933  10.083   8.942 -0.7135  0.6457 -0.2378
48658SOL    HW157698   3.851  10.033   8.951 -0.0638 -0.3366  0.3874
48658SOL    HW257699   3.966  10.091   9.031  0.8002 -0.5745 -0.6371
48659SOL     OW57700   8.674  10.993   7.788  0.6006  0.1650 -0.1020
48659SOL    HW157701   8.599  11.009   7.730 -1.0644 -2.1342  1.2418
48659SOL    HW257702   8.636  10.988   7.876  2.2549 -1.2908  0.6030
48660SOL     OW57703   2.637   2.481   1.265 -0.7970  0.1062 -0.4676
48660SOL    HW157704   2.549   2.497   1.297 -0.8614 -0.1297 -0.5283
48660SOL    HW257705   2.630   2.403   1.210 -0.6031  0.2423 -0.6917
48661SOL     OW57706   6.761   5.769   7.172 -0.2610  0.3918  0.3153
48661SOL    HW157707   6.697   5.729   7.231  0.4531 -1.2488  0.0391
48661SOL    HW257708   6.792   5.696   7.118  1.9791  1.1055  0.5633
48662SOL     OW57709   5.342   5.582   8.471 -0.7704  0.4919 -0.2277
48662SOL    HW157710   5.403   5.521   8.430  1.3139  2.1928  0.1565
48662SOL    HW257711   5.377   5.597   8.559 -0.7320  2.7501 -0.5465
48663SOL     OW57712   3.863   1.973   2.293  0.6358  0.4644 -0.0862
48663SOL    HW157713   3.864   2.069   2.290  0.0474  0.4574 -1.0244
48663SOL    HW257714   3.860   1.952   2.386 -1.4560  1.4206  0.1414
48664SOL     OW57715  10.112   2.194   0.177  0.3196 -0.0587 -0.4901
48664SOL    HW157716  10.106   2.192   0.272 -0.0608 -0.5057 -0.5222
48664SOL    HW257717  10.191   2.143   0.157  0.6901  0.4659 -0.3945
48665SOL     OW57718   4.603   7.336   2.700 -0.2877 -0.2073 -0.5851
48665SOL    HW157719   4.679   7.395   2.696 -0.1787 -0.3455 -0.5460
48665SOL    HW257720   4.528   7.393   2.681 -0.1473 -0.1216 -0.9059
48666SOL     OW57721   0.567   1.329   1.974 -0.2775  0.3520  0.2291
48666SOL    HW157722   0.508   1.267   2.017 -2.0052 -0.3745 -2.9089
48666SOL    HW257723   0.644   1.278   1.952  0.0421  0.3897  1.2232
48667SOL     OW57724   5.463   1.383   6.328 -0.4717 -0.3166  0.5701
48667SOL    HW157725   5.378   1.394   6.286 -0.8992 -0.3279  1.4114
48667SOL    HW257726   5.459   1.296   6.368  0.2048 -0.6067  0.0171
48668SOL     OW57727   3.525  10.388   3.443  0.2035  0.3812  0.0217
48668SOL    HW157728   3.500  10.322   3.508  1.8903 -0.8645 -0.5215
48668SOL    HW257729   3.442  10.423   3.411 -0.8370 -2.3182 -0.5075
48669SOL     OW57730   9.250   3.616   6.108  0.5434 -0.0852  0.4273
48669SOL    HW157731   9.188   3.585   6.042 -0.8849 -0.6971  2.0053
48669SOL    HW257732   9.315   3.546   6.115 -1.7266 -2.1565  2.7431
48670SOL     OW57733   2.949   7.709   5.881  0.1692 -0.4148 -0.3851
48670SOL    HW157734   2.973   7.738   5.969  1.1757  0.3241 -0.8879
48670SOL    HW257735   2.896   7.780   5.846 -1.1043 -1.1572 -0.0248
48671SOL     OW57736   0.807   2.791   8.096  0.1686 -0.6078  0.3244
48671SOL    HW157737   0.728   2.794   8.150 -1.3812  0.8595 -1.7903
48671SOL    HW257738   0.781   2.740   8.019  1.7961 -1.3966  0.2675
48672SOL     OW57739   2.499   9.654   1.170  0.6006  0.6562  0.6002
48672SOL    HW157740   2.483   9.642   1.263  1.5159  1.5054  0.8895
48672SOL    HW257741   2.412   9.670   1.133  0.2527  0.5112  1.3361
48673SOL     OW57742   1.998   2.416   1.853  0.1661  0.5491 -0.0625
48673SOL    HW157743   2.041   2.493   1.890  0.1538 -0.0392  1.2253
48673SOL    HW257744   1.905   2.435   1.860  0.1636  0.4251  0.2172
48674SOL     OW57745  10.330   6.292  10.181  0.0997  0.2847  0.2268
48674SOL    HW157746  10.247   6.328  10.211 -0.4710 -0.9459  0.2041
48674SOL    HW257747  10.366   6.247  10.258 -0.7001 -1.6862 -0.4623
48675SOL     OW57748   0.465   3.868   3.590  0.4555  0.5146  0.3212
48675SOL    HW157749   0.374   3.853   3.564  0.5377 -0.3572  0.5358
48675SOL    HW257750   0.463   3.954   3.633 -0.1485  0.7787 -0.2043
48676SOL     OW57751   6.680   7.880  10.521  0.3318  0.0948 -0.1908
48676SOL    HW157752   6.688   7.976  10.521  0.5871  0.1461 -2.7281
48676SOL    HW257753   6.770   7.849  10.515  0.2076 -0.2742 -0.1390
48677SOL     OW57754   6.801   7.312   4.623 -0.0403 -0.7573 -0.2321
48677SOL    HW157755   6.862   7.239   4.637  1.2716  0.5756  1.4170
48677SOL    HW257756   6.802   7.325   4.528  0.9057 -1.8640 -0.4063
48678SOL     OW57757   5.918  11.910   6.833  0.2129  0.1083  0.1371
48678SOL    HW157758   5.984  11.893   6.901 -0.6426 -1.2492  0.6586
48678SOL    HW257759   5.911  11.828   6.785  0.4724  0.9174 -1.3462
48679SOL     OW57760   1.366   4.782   8.784  0.0755 -0.0354 -0.0803
48679SOL    HW157761   1.406   4.855   8.738 -0.2200 -1.0016 -1.9520
48679SOL    HW257762   1.273   4.806   8.790  0.2261  0.4153  0.7346
48680SOL     OW57763  10.087   6.183   6.390 -0.1152 -0.1566  0.3441
48680SOL    HW157764  10.067   6.105   6.442  0.2564 -0.1374  0.5166
48680SOL    HW257765  10.116   6.248   6.455 -0.3289  0.0942  0.1906
48681SOL     OW57766  11.120   4.659   8.948 -0.3582  0.6499  0.4058
48681SOL    HW157767  11.139   4.622   9.034 -4.0304 -1.0773  0.6465
48681SOL    HW257768  11.150   4.592   8.886  0.7690  1.1655  0.3648
48682SOL     OW57769   1.944  10.288   6.305 -0.0959  0.1808 -0.3374
48682SOL    HW157770   1.956  10.383   6.310 -2.1675  0.4591  0.8574
48682SOL    HW257771   1.854  10.278   6.273 -0.1918 -1.3437  0.3450
48683SOL     OW57772   5.856   4.171  10.059  0.2646 -0.5105  0.6279
48683SOL    HW157773   5.890   4.082  10.050  2.6218  0.4250 -0.3019
48683SOL    HW257774   5.822   4.192   9.973  0.3847 -0.2457  0.6456
48684SOL     OW57775   0.607  11.236   6.221  0.0901  0.2269 -0.3487
48684SOL    HW157776   0.673  11.252   6.153  0.7574 -1.4637 -0.1274
48684SOL    HW257777   0.656  11.241   6.303  0.4764 -3.1084 -0.2599
48685SOL     OW57778  10.052  11.433   6.513 -0.4720  0.4031 -0.1562
48685SOL    HW157779  10.035  11.517   6.555 -0.6309  0.5244 -0.4652
48685SOL    HW257780  10.022  11.368   6.577 -1.7881  0.6049 -0.5416
48686SOL     OW57781   5.825  10.271   9.903  0.0852  0.0762 -0.1633
48686SOL    HW157782   5.913  10.281   9.940  1.3969  0.9115 -3.1217
48686SOL    HW257783   5.798  10.183   9.927  1.4558  0.0321  1.3496
48687SOL     OW57784   3.407   9.635   5.222  0.3692  0.6140 -0.1286
48687SOL    HW157785   3.485   9.606   5.174  1.0376  0.9867  0.7211
48687SOL    HW257786   3.359   9.555   5.239  0.5516  0.3791 -0.6687
48688SOL     OW57787   7.389   3.617   6.627  0.2032 -0.0432 -0.0740
48688SOL    HW157788   7.294   3.610   6.618  0.0724  0.5761  0.7321
48688SOL    HW257789   7.416   3.532   6.661  0.0511 -0.5091 -1.0790
48689SOL     OW57790   2.271   5.639  11.739 -0.0720 -0.2641  0.3521
48689SOL    HW157791   2.305   5.724  11.715 -1.2072  0.8043  2.2395
48689SOL    HW257792   2.227   5.606  11.660  0.0487  1.0661 -0.2827
48690SOL     OW57793  11.218   1.926   8.849  0.5445  0.4309 -0.1325
48690SOL    HW157794  11.308   1.897   8.835  1.1267  2.3185 -0.6987
48690SOL    HW257795  11.166   1.878   8.786  0.9845 -1.3594  0.8059
48691SOL     OW57796  11.419   4.456   8.511  0.3465  0.6895 -0.3946
48691SOL    HW157797  11.338   4.446   8.462  0.1587  0.1274  0.0103
48691SOL    HW257798  11.473   4.381   8.485  0.6952  1.0030 -0.5850
48692SOL     OW57799   2.413   2.245   2.291 -0.0526  0.2586  0.0745
48692SOL    HW157800   2.421   2.261   2.384  0.4470 -1.2595  0.3209
48692SOL    HW257801   2.329   2.199   2.281  0.9465 -1.6930  0.1297
48693SOL     OW57802   5.647   2.640   2.344 -0.2867  0.2943 -0.4303
48693SOL    HW157803   5.555   2.648   2.317 -0.0689 -0.1087 -1.3284
48693SOL    HW257804   5.654   2.552   2.379 -0.1187  0.1343 -0.8640
48694SOL     OW57805   0.374  11.953   8.857 -0.0076  0.2618 -0.1120
48694SOL    HW157806   0.396  12.008   8.781  0.4486  0.4359  0.1451
48694SOL    HW257807   0.322  11.881   8.820 -0.2841  0.6571 -0.5058
48695SOL     OW57808   0.384   4.949  10.183  0.1399 -0.2979  0.2210
48695SOL    HW157809   0.372   4.854  10.190  1.0941 -0.4344  0.1725
48695SOL    HW257810   0.467   4.959  10.137 -1.2868  0.5651 -2.3652
48696SOL     OW57811   8.385   3.494   6.349  0.6242 -0.0301  0.3047
48696SOL    HW157812   8.355   3.553   6.418  1.9589  1.2408 -0.1768
48696SOL    HW257813   8.459   3.447   6.388 -0.9299 -2.0928  0.9800
48697SOL     OW57814   9.042   5.179   0.069  0.5690 -0.0286 -0.2923
48697SOL    HW157815   8.953   5.205   0.046  0.6330  0.5812  0.1239
48697SOL    HW257816   9.097   5.236   0.015  0.7328  1.7133  1.5783
48698SOL     OW57817   8.716   7.519   8.458  0.1009 -0.5326 -0.2781
48698SOL    HW157818   8.713   7.510   8.362  3.3163 -0.4814 -0.4819
48698SOL    HW257819   8.748   7.434   8.489  1.7342  0.3062  0.4499
48699SOL     OW57820   9.290   3.262   1.984 -0.4662  0.1275 -0.2825
48699SOL    HW157821   9.300   3.344   2.032 -2.5114  0.2884 -0.0370
48699SOL    HW257822   9.330   3.279   1.899  2.1876  0.2024  0.8614
48700SOL     OW57823  11.090   0.263   2.421  0.2272 -0.1588 -0.3964
48700SOL    HW157824  11.007   0.299   2.454  0.1874 -0.1070 -0.5527
48700SOL    HW257825  11.139   0.240   2.500  0.0415 -0.2388 -0.3040
48701SOL     OW57826   1.459   3.091   7.372  0.2149 -0.3439  0.3998
48701SOL    HW157827   1.420   3.161   7.425  0.9301  1.0333 -0.7960
48701SOL    HW257828   1.473   3.019   7.433 -1.0854  0.3384  1.5622
48702SOL     OW57829   5.549   8.217  10.580 -0.4782  0.1884  0.1117
48702SOL    HW157830   5.595   8.219  10.496 -0.1272  0.2243  0.3027
48702SOL    HW257831   5.462   8.252  10.561 -0.6332 -0.4435 -0.3768
48703SOL     OW57832   4.468   7.563   6.801 -0.0673  0.8148 -0.3683
48703SOL    HW157833   4.440   7.649   6.769 -0.9740  0.8982  0.6036
48703SOL    HW257834   4.387   7.518   6.824  0.4619  0.1408  0.2157
48704SOL     OW57835   1.902   0.908   0.644  0.2495  0.6189  0.0551
48704SOL    HW157836   1.869   0.819   0.635  0.7925  0.3553  0.6421
48704SOL    HW257837   1.858   0.942   0.722 -0.0124  0.8928 -0.2087
48705SOL     OW57838   6.304  11.025   9.918 -0.0078 -0.0481  0.0449
48705SOL    HW157839   6.250  10.969   9.862 -0.5770  0.6580 -0.1130
48705SOL    HW257840   6.370  11.062   9.859  0.2197 -0.3554  0.1033
48706SOL     OW57841   2.469   3.793   2.579 -0.2820 -0.3611 -0.2483
48706SOL    HW157842   2.556   3.832   2.572 -0.1759 -0.1784  1.6775
48706SOL    HW257843   2.476   3.710   2.531  0.8984 -0.2623 -0.2679
48707SOL     OW57844   3.472   9.967   7.017  0.0420 -0.2665  0.1345
48707SOL    HW157845   3.384   9.990   6.987  0.2760 -0.1640 -0.4833
48707SOL    HW257846   3.504   9.906   6.951  1.5387  1.8810 -1.2543
48708SOL     OW57847   3.904   8.757   8.507  0.5998 -0.2341  0.0261
48708SOL    HW157848   3.872   8.692   8.570 -0.3046 -1.4206 -1.6015
48708SOL    HW257849   3.993   8.776   8.536  1.1929 -2.8150  0.1260
48709SOL     OW57850   1.761   4.070   3.014  0.4731 -0.7043  0.3741
48709SOL    HW157851   1.804   4.001   2.964  2.2902  0.0129  0.8640
48709SOL    HW257852   1.791   4.151   2.973 -2.7109 -0.1225 -1.1023
48710SOL     OW57853   9.903   2.933   0.643  0.0277  0.6855 -0.3225
48710SOL    HW157854   9.849   2.972   0.713  2.4051  0.7238  1.6496
48710SOL    HW257855   9.842   2.918   0.571 -2.2467  2.2478  1.1253
48711SOL     OW57856   7.810   2.104   3.833 -0.1212 -0.3943  0.0173
48711SOL    HW157857   7.729   2.155   3.824  0.3209  0.3049 -0.1294
48711SOL    HW257858   7.786   2.016   3.804 -0.6970 -0.0684 -0.5413
48712SOL     OW57859   3.830   2.326   1.252  0.2974 -0.4422  0.7838
48712SOL    HW157860   3.744   2.366   1.263 -0.4615 -1.4267 -1.1965
48712SOL    HW257861   3.815   2.249   1.198  2.2180 -1.5160  1.6650
48713SOL     OW57862   4.052  10.085   9.177  0.0233 -0.0514  0.0825
48713SOL    HW157863   4.041  10.009   9.235  1.6045 -0.4740 -0.1316
48713SOL    HW257864   4.095  10.151   9.231  0.1095  0.1146 -0.1884
48714SOL     OW57865   1.671   2.854   7.444 -0.3585  0.3008  0.0616
48714SOL    HW157866   1.632   2.768   7.434  0.9999 -0.3974  0.5414
48714SOL    HW257867   1.725   2.865   7.366 -1.1233  1.0640 -0.3789
48715SOL     OW57868   2.233   5.423   8.047 -0.4786 -1.1813 -0.3430
48715SOL    HW157869   2.147   5.403   8.010 -1.1934  1.5076 -0.3531
48715SOL    HW257870   2.214   5.465   8.131  0.8636 -1.2706  0.0328
48716SOL     OW57871   0.997   0.143   9.894 -0.5430 -0.2875 -0.1656
48716SOL    HW157872   0.907   0.131   9.863 -0.7925 -1.6937  0.9870
48716SOL    HW257873   1.047   0.163   9.814 -1.9931  1.5022 -0.7004
48717SOL     OW57874   0.406   6.391   8.172 -0.2660  0.0998  0.1039
48717SOL    HW157875   0.374   6.420   8.258 -0.0611 -0.0745  0.2400
48717SOL    HW257876   0.488   6.440   8.159  0.0656 -0.3937  0.3214
48718SOL     OW57877  10.954   3.864   1.113 -0.2246  0.1064  0.0842
48718SOL    HW157878  10.859   3.851   1.115 -0.5015  1.2126  4.4077
48718SOL    HW257879  10.990   3.779   1.139  0.0672 -0.3835 -1.7919
48719SOL     OW57880   8.075  10.817   6.990 -0.0322  0.1698 -0.5220
48719SOL    HW157881   8.055  10.896   6.939  0.1892  0.1266 -0.6749
48719SOL    HW257882   8.007  10.755   6.965  0.6478 -0.1926 -1.5258
48720SOL     OW57883   5.192   5.510   5.244  0.2154 -0.4851  0.3215
48720SOL    HW157884   5.097   5.502   5.253 -0.0810 -0.7948 -2.2109
48720SOL    HW257885   5.207   5.603   5.225  0.2557 -0.6254 -0.3880
48721SOL     OW57886   9.701   6.603   1.342  0.3212  0.7994  0.3894
48721SOL    HW157887   9.661   6.636   1.262 -1.1486 -0.8901  0.3784
48721SOL    HW257888   9.629   6.598   1.405  0.7046 -1.2357  0.7234
48722SOL     OW57889   7.250   8.898   0.961 -0.3367  0.5082  0.1172
48722SOL    HW157890   7.344   8.916   0.954 -0.2864  0.1611 -0.1021
48722SOL    HW257891   7.213   8.929   0.879 -0.4223  0.6974  0.2276
48723SOL     OW57892   5.459   3.118  10.326 -0.0158  0.0554 -0.1935
48723SOL    HW157893   5.449   3.213  10.334 -0.0593  0.0134  0.2365
48723SOL    HW257894   5.442   3.100  10.233 -2.5486  0.1753  0.1751
48724SOL     OW57895   3.882   1.689   9.483  0.2390 -0.0550 -0.3443
48724SOL    HW157896   3.940   1.692   9.407  0.8674 -1.1656  0.0744
48724SOL    HW257897   3.931   1.640   9.549 -0.0618  1.3744  0.9912
48725SOL     OW57898   8.069   4.975   6.764  0.0671 -0.0275 -0.2961
48725SOL    HW157899   7.984   5.017   6.772 -0.0993 -0.6022  1.5469
48725SOL    HW257900   8.123   5.018   6.831  0.6038 -1.0782 -0.0370
48726SOL     OW57901   0.870   5.743   5.761  0.2428  0.0630 -0.2637
48726SOL    HW157902   0.905   5.814   5.707  0.2275  0.3727  0.1311
48726SOL    HW257903   0.932   5.670   5.748  0.0634  0.0269 -0.9446
48727SOL     OW57904   0.848  11.312   6.036  0.3447 -0.3174  0.0495
48727SOL    HW157905   0.902  11.272   6.105 -0.9377 -0.9231  0.7420
48727SOL    HW257906   0.911  11.349   5.975  1.5313  0.2132  1.5296
48728SOL     OW57907   3.610   0.573   6.545 -0.0494  0.4063  0.6570
48728SOL    HW157908   3.589   0.663   6.568 -1.2862  0.6576 -1.2579
48728SOL    HW257909   3.549   0.520   6.596 -3.3300  0.9836 -2.3069
48729SOL     OW57910   2.725   6.398   7.805  0.3072 -0.2973  0.2826
48729SOL    HW157911   2.808   6.351   7.816  0.6328 -0.1789 -1.3716
48729SOL    HW257912   2.659   6.329   7.806  0.8409 -1.0411 -2.9530
48730SOL     OW57913   5.108   4.813   1.140  0.1440 -0.3375  0.5399
48730SOL    HW157914   5.106   4.724   1.105  2.8525  0.0790 -0.9561
48730SOL    HW257915   5.044   4.861   1.087 -0.6503 -1.1527  0.7290
48731SOL     OW57916   8.726  10.761   4.258 -0.2029 -0.1209 -0.2008
48731SOL    HW157917   8.795  10.741   4.195  0.3134  0.8027  0.0518
48731SOL    HW257918   8.690  10.676   4.282  0.2981 -0.5523 -0.9521
48732SOL     OW57919   3.508   4.718  10.084  0.5564 -0.2888  0.0878
48732SOL    HW157920   3.468   4.805  10.090  1.0317  0.0923 -1.7580
48732SOL    HW257921   3.600   4.733  10.107  0.7660 -0.1720 -0.7849
48733SOL     OW57922   3.856   5.952  10.975 -0.5108 -0.7750  0.5420
48733SOL    HW157923   3.886   6.042  10.988  1.5257 -0.9080 -2.2199
48733SOL    HW257924   3.925   5.898  11.012 -0.7616 -1.1858  0.4215
48734SOL     OW57925   6.866  11.459   0.769 -0.4792  0.1202  0.3586
48734SOL    HW157926   6.888  11.452   0.862 -2.9581  1.2303  1.1172
48734SOL    HW257927   6.949  11.446   0.724  1.1775  1.3627  2.7880
48735SOL     OW57928  11.134   5.158   1.438  0.3061  0.7000 -0.0365
48735SOL    HW157929  11.089   5.113   1.509 -0.9485  0.4575 -0.9580
48735SOL    HW257930  11.201   5.096   1.408  1.2622  1.0433  1.3014
48736SOL     OW57931  11.312  11.155   4.637 -0.0537  0.3677  0.0624
48736SOL    HW157932  11.335  11.214   4.708 -1.2418 -0.8716  1.5429
48736SOL    HW257933  11.272  11.079   4.680 -0.0235 -0.8193 -1.8679
48737SOL     OW57934   4.414  10.513   3.980 -0.2336 -0.5280  0.1756
48737SOL    HW157935   4.478  10.574   4.015  0.7433 -0.3718 -1.7737
48737SOL    HW257936   4.417  10.526   3.886 -3.2447 -0.4394 -0.0036
48738SOL     OW57937   1.879   9.473   9.435 -0.1586  0.0363 -0.5022
48738SOL    HW157938   1.867   9.499   9.526  0.3710 -0.2701 -0.3365
48738SOL    HW257939   1.797   9.497   9.391 -1.0013 -1.1587  0.3687
48739SOL     OW57940   0.108   7.601   8.504 -0.3134 -0.4801  0.4758
48739SOL    HW157941   0.091   7.672   8.441 -0.8707 -1.3942 -0.4422
48739SOL    HW257942   0.203   7.598   8.512 -0.2442 -0.2254 -0.1985
48740SOL     OW57943   9.950   1.933   6.964  0.3054  0.4481  0.3072
48740SOL    HW157944   9.914   1.994   7.028  0.7314 -0.5165  1.4936
48740SOL    HW257945   9.889   1.859   6.964  0.7503  0.0757  0.2207
48741SOL     OW57946   1.150   6.858   3.843  0.1491  0.9693  0.1354
48741SOL    HW157947   1.121   6.805   3.917 -1.1667 -0.7173 -1.4979
48741SOL    HW257948   1.090   6.932   3.842 -1.3013 -0.1852 -0.5613
48742SOL     OW57949   6.476   2.785   4.957  0.2127 -0.6794  0.3697
48742SOL    HW157950   6.443   2.700   4.984  1.3704 -1.9274 -1.8107
48742SOL    HW257951   6.419   2.810   4.884  1.2248 -0.6837 -0.4472
48743SOL     OW57952   5.423   4.963   9.531  0.4768  0.0157  0.3312
48743SOL    HW157953   5.329   4.975   9.522  0.2622 -1.4500  0.4756
48743SOL    HW257954   5.442   4.881   9.486  2.0763  1.4413 -1.8542
48744SOL     OW57955   7.356   6.402   1.719 -0.3735  0.2775 -0.0295
48744SOL    HW157956   7.330   6.391   1.627 -2.7980  0.2261  0.5880
48744SOL    HW257957   7.409   6.481   1.720  1.0246 -0.5923 -1.6879
48745SOL     OW57958   7.384   4.866   3.402 -0.6843  0.5100  0.1224
48745SOL    HW157959   7.412   4.777   3.424 -0.6399  0.8833  1.7154
48745SOL    HW257960   7.349   4.901   3.484 -0.8682  1.8994 -0.5224
48746SOL     OW57961   3.981   7.494   4.365 -0.3432  0.0134  0.4654
48746SOL    HW157962   4.001   7.490   4.272 -1.7420  2.3367 -0.0413
48746SOL    HW257963   4.017   7.578   4.394  1.5689 -1.3984  2.4904
48747SOL     OW57964   7.402   2.042   2.261  0.4811 -0.0929  0.1138
48747SOL    HW157965   7.451   2.031   2.180 -1.5349 -0.5031 -1.1151
48747SOL    HW257966   7.413   2.135   2.283  0.2736  0.2592 -1.1833
48748SOL     OW57967   4.076   3.080   7.209 -0.1058  0.4638  0.3721
48748SOL    HW157968   3.987   3.066   7.241  0.2857 -2.2948  0.4576
48748SOL    HW257969   4.113   3.146   7.268 -1.9477  1.3960  0.5370
48749SOL     OW57970   2.031   0.520   8.938 -0.4210  0.1626  0.0053
48749SOL    HW157971   2.082   0.560   8.868 -0.3371 -0.1431 -0.1105
48749SOL    HW257972   2.089   0.455   8.976 -0.5159  0.2320  0.2665
48750SOL     OW57973   7.645   9.890   0.125 -0.2166 -0.5951  0.0753
48750SOL    HW157974   7.613   9.824   0.187 -0.2809 -0.1074  0.5678
48750SOL    HW257975   7.739   9.876   0.121 -0.4162 -1.8138 -1.1168
48751SOL     OW57976   3.249   4.573   4.032  0.4832  0.4363 -0.0214
48751SOL    HW157977   3.334   4.552   3.994  1.1440  1.5698  0.7516
48751SOL    HW257978   3.261   4.560   4.126 -0.1749  0.6770  0.1036
48752SOL     OW57979   6.534  11.287   8.807 -0.0910 -0.2354 -0.8104
48752SOL    HW157980   6.463  11.231   8.840 -0.5318 -0.0718 -1.4610
48752SOL    HW257981   6.510  11.306   8.717  0.8183 -0.2159 -1.0568
48753SOL     OW57982   8.420   1.488   9.115  0.2377  0.2086  0.1921
48753SOL    HW157983   8.334   1.450   9.098 -0.3485  1.3796  0.4360
48753SOL    HW257984   8.411   1.532   9.200  0.7244  1.3480 -0.3321
48754SOL     OW57985   8.244  10.366   4.158 -0.2725  0.0534  0.1531
48754SOL    HW157986   8.245  10.325   4.244 -0.4128 -0.2618  0.0052
48754SOL    HW257987   8.192  10.307   4.104 -1.6122  1.0773  0.2589
48755SOL     OW57988   4.565   9.950   3.408 -0.5105 -0.5447 -0.1290
48755SOL    HW157989   4.660   9.959   3.399 -0.7558 -0.0421 -3.6350
48755SOL    HW257990   4.536  10.035   3.443  0.1444  0.4361 -1.8330
48756SOL     OW57991  11.244  11.688   6.366  0.6698 -0.0436 -0.4509
48756SOL    HW157992  11.298  11.724   6.296 -0.2505  0.8632 -0.7233
48756SOL    HW257993  11.155  11.689   6.330  0.1985  0.3600  0.7009
48757SOL     OW57994   7.635   2.728   1.053 -0.3256 -1.0897 -0.3292
48757SOL    HW157995   7.672   2.665   1.115 -1.9953 -0.8200  1.0369
48757SOL    HW257996   7.540   2.721   1.066 -0.6147  0.7064 -1.1417
48758SOL     OW57997   0.252   5.908   9.557  0.0161  0.9616  0.0888
48758SOL    HW157998   0.237   5.873   9.469 -1.2229 -0.5919  0.8933
48758SOL    HW257999   0.348   5.911   9.565  0.2669 -2.9881  0.2121
48759SOL     OW58000   2.748  10.183   1.734 -0.5231  0.2021  0.0120
48759SOL    HW158001   2.663  10.227   1.747  0.2173  1.4764  0.7026
48759SOL    HW258002   2.734  10.129   1.656 -1.5300  1.5753 -0.8210
48760SOL     OW58003   4.860   0.371   0.183  0.3552  0.4072 -0.0021
48760SOL    HW158004   4.782   0.405   0.226 -0.6947 -1.4983 -0.2668
48760SOL    HW258005   4.874   0.428   0.108 -0.7012  0.8625  0.1353
48761SOL     OW58006   7.499  11.118   5.266 -0.1959 -0.0751 -0.1281
48761SOL    HW158007   7.455  11.053   5.321  0.3478 -0.8396 -0.5777
48761SOL    HW258008   7.588  11.124   5.302 -0.4695  1.0272  0.4118
48762SOL     OW58009   9.241   4.740   9.825 -0.3668  0.5074  0.2372
48762SOL    HW158010   9.266   4.825   9.789  0.8202 -0.3035 -0.9251
48762SOL    HW258011   9.195   4.696   9.753 -1.9862  0.5757  1.1886
48763SOL     OW58012  11.245   8.963   8.984  0.5509  0.1519  0.9627
48763SOL    HW158013  11.303   8.990   8.913 -0.6060  0.2825  0.0311
48763SOL    HW258014  11.274   9.015   9.060  2.5475 -0.8242  0.9357
48764SOL     OW58015   5.500   9.890   1.575 -0.2926  0.2881 -0.4418
48764SOL    HW158016   5.477   9.831   1.647  1.7726 -0.1872 -0.1207
48764SOL    HW258017   5.416   9.909   1.533 -1.7575  1.3641  2.6265
48765SOL     OW58018  11.393   1.462   8.116 -0.0352  0.0767 -0.4557
48765SOL    HW158019  11.333   1.491   8.047 -1.3151 -2.6165 -0.6013
48765SOL    HW258020  11.480   1.468   8.076 -0.7901 -2.1944 -2.7280
48766SOL     OW58021   2.637   8.891   7.591 -0.3338  0.3040 -0.3969
48766SOL    HW158022   2.684   8.808   7.592  1.3114  1.1917 -0.0339
48766SOL    HW258023   2.601   8.899   7.679 -2.6427 -1.1413 -1.1494
48767SOL     OW58024   2.223   8.282  10.130 -0.0089 -0.4169 -0.3872
48767SOL    HW158025   2.229   8.188  10.111 -2.2758 -1.0359  1.5621
48767SOL    HW258026   2.160   8.316  10.067  1.2875 -0.0048 -1.5177
48768SOL     OW58027  11.555   4.087   9.572 -0.0772 -0.2243 -0.0261
48768SOL    HW158028  11.531   4.036   9.495 -1.1888 -1.6437  1.2012
48768SOL    HW258029  11.547   4.178   9.544  1.3888 -0.6774 -2.1056
48769SOL     OW58030  10.355   9.428   5.785  0.1940 -0.0583 -0.0651
48769SOL    HW158031  10.264   9.431   5.756  0.6490  0.6409 -1.5045
48769SOL    HW258032  10.361   9.497   5.852 -0.6129 -0.9686  0.9818
48770SOL     OW58033   6.292   6.139  11.528  0.2029  0.0203  0.0891
48770SOL    HW158034   6.380   6.103  11.519  0.2795 -0.0885  1.0854
48770SOL    HW258035   6.253   6.087  11.599  0.5205  2.2272  2.0193
48771SOL     OW58036   7.809  11.800  10.731  0.6553 -0.6081 -0.0431
48771SOL    HW158037   7.786  11.879  10.682  1.0009 -1.1941 -1.1793
48771SOL    HW258038   7.735  11.785  10.789  0.4939  0.4315  0.0455
48772SOL     OW58039   0.718   8.371   8.264  0.3707  0.2035  0.0578
48772SOL    HW158040   0.625   8.389   8.277 -0.2060 -0.6913 -2.2340
48772SOL    HW258041   0.720   8.287   8.218  2.3461 -0.0224  0.4612
48773SOL     OW58042  10.748   0.926   1.432 -0.4039  0.0377  0.5434
48773SOL    HW158043  10.667   0.973   1.415 -0.8303 -0.3943  1.3277
48773SOL    HW258044  10.807   0.952   1.361 -0.8105  1.3229  0.6523
48774SOL     OW58045  11.503   5.115  11.769 -0.1059  0.3556  0.1343
48774SOL    HW158046  11.569   5.056  11.734 -0.3845  1.0747 -1.7520
48774SOL    HW258047  11.543   5.202  11.763 -0.4970  0.5987  0.8436
48775SOL     OW58048   7.724   9.611   7.380  0.1969 -0.2886  0.2879
48775SOL    HW158049   7.786   9.664   7.330  1.2566  1.1934  2.9855
48775SOL    HW258050   7.778   9.561   7.441 -0.8722 -3.8268 -1.4019
48776SOL     OW58051   1.747   8.465   8.853  0.0386 -0.3914 -0.1365
48776SOL    HW158052   1.653   8.484   8.844  0.0720 -0.4904 -0.6928
48776SOL    HW258053   1.775   8.521   8.926 -0.6490 -1.0629  0.6612
48777SOL     OW58054  10.512   6.366   0.206  0.4798  0.1286 -0.5445
48777SOL    HW158055  10.484   6.372   0.297 -0.0440 -0.2950 -0.6717
48777SOL    HW258056  10.431   6.372   0.155  0.8460  1.2466 -1.0320
48778SOL     OW58057  10.133   5.400  11.537  0.2769  0.2776  0.2988
48778SOL    HW158058  10.139   5.495  11.545 -0.0292  0.1707  2.5429
48778SOL    HW258059  10.118   5.369  11.627 -0.3108 -1.8411 -0.4560
48779SOL     OW58060   6.559   4.516   6.212  0.3895  0.3200  0.6667
48779SOL    HW158061   6.471   4.494   6.240  0.3173 -1.0620 -0.4716
48779SOL    HW258062   6.610   4.436   6.228  0.6444 -0.0690 -1.6592
48780SOL     OW58063   3.986   8.539   2.809 -0.5565 -0.0945  0.2330
48780SOL    HW158064   4.037   8.520   2.730 -0.0100  1.0450  0.3002
48780SOL    HW258065   4.007   8.630   2.831 -0.5234 -0.4539  1.8282
48781SOL     OW58066   5.212   7.913  11.092 -0.2694  0.0508  0.0848
48781SOL    HW158067   5.192   7.864  11.172 -0.7953 -0.8247 -0.5632
48781SOL    HW258068   5.297   7.953  11.109 -0.9432  0.9372  1.5715
48782SOL     OW58069   4.945  10.708   6.043  0.3264  0.0323  0.6617
48782SOL    HW158070   5.022  10.665   6.079 -1.0010 -2.7115  0.4437
48782SOL    HW258071   4.871  10.652   6.067 -1.5133  1.9494 -0.0909
48783SOL     OW58072  11.017   4.877  10.460 -0.0018  0.2633 -0.0464
48783SOL    HW158073  11.080   4.825  10.410  1.2829  2.2938 -0.6325
48783SOL    HW258074  10.931   4.847  10.430  0.7330 -0.0799 -1.8770
48784SOL     OW58075   2.059   4.038   0.997 -0.1581 -0.0467  0.2842
48784SOL    HW158076   1.999   3.987   1.052  0.1330 -1.5962 -0.7466
48784SOL    HW258077   2.121   4.077   1.058  0.5410 -2.2321  1.0557
48785SOL     OW58078   1.319   2.714   6.848  0.1957  0.7212 -0.0969
48785SOL    HW158079   1.253   2.781   6.831 -0.1072  0.1312 -1.3678
48785SOL    HW258080   1.398   2.745   6.803  0.5085  0.9586  0.6062
48786SOL     OW58081   0.116   6.457   7.237 -0.1485  0.3124  0.5765
48786SOL    HW158082   0.021   6.461   7.246 -0.7940 -4.7821 -0.8090
48786SOL    HW258083   0.131   6.431   7.146  2.3842 -0.9372  1.2386
48787SOL     OW58084   9.339   9.607   6.106  0.5389  0.0519 -0.3192
48787SOL    HW158085   9.266   9.659   6.072 -1.1487 -1.6359  0.5713
48787SOL    HW258086   9.405   9.672   6.128 -0.1217  1.5489 -2.3975
48788SOL     OW58087  11.798   2.014   8.477 -0.4364 -0.5027 -0.2032
48788SOL    HW158088  11.842   1.939   8.516  1.8717  1.1587  0.6662
48788SOL    HW258089  11.759   2.060   8.552  1.1578  0.9231 -0.1655
48789SOL     OW58090   5.207   7.160   3.988  0.1399  0.2280  1.0089
48789SOL    HW158091   5.167   7.209   4.060 -0.8393  0.5972  0.2414
48789SOL    HW258092   5.154   7.183   3.911 -0.3906 -2.0691  0.6187
48790SOL     OW58093  11.626   8.970   8.263  0.3933 -0.1063 -0.4089
48790SOL    HW158094  11.714   9.001   8.284 -0.3711  0.7807  1.6680
48790SOL    HW258095  11.609   9.006   8.176  1.9864 -0.1526 -0.7850
48791SOL     OW58096   9.688  11.078   1.038  0.0997  0.2364 -0.3304
48791SOL    HW158097   9.638  11.093   0.958  0.0522  0.2840 -0.2917
48791SOL    HW258098   9.685  11.161   1.084 -1.9799 -0.4856  0.9297
48792SOL     OW58099   0.806   4.670   7.112 -0.5348  0.1891 -0.4101
48792SOL    HW158100   0.727   4.636   7.155 -1.6497  0.7591 -1.8847
48792SOL    HW258101   0.820   4.756   7.151 -0.9143  0.2612 -0.4274
48793SOL     OW58102   6.252   1.468   7.255 -0.4405 -0.3354 -0.0979
48793SOL    HW158103   6.206   1.400   7.206 -2.3230 -1.3262  2.7901
48793SOL    HW258104   6.251   1.437   7.346  1.3785  2.1458  0.8874
48794SOL     OW58105   5.295   1.222   1.270 -0.0572 -0.2643 -0.4767
48794SOL    HW158106   5.355   1.156   1.235  0.3819 -0.6535  0.9527
48794SOL    HW258107   5.208   1.191   1.244  0.0998 -1.7288  0.6314
48795SOL     OW58108   4.330   6.261   9.176  0.4542 -0.1467  0.6953
48795SOL    HW158109   4.351   6.263   9.083  0.8848  0.6607  0.7953
48795SOL    HW258110   4.287   6.177   9.190 -1.2201  0.4275 -0.5898
48796SOL     OW58111   9.284   6.061   1.029  0.1405  0.3953 -0.0261
48796SOL    HW158112   9.289   5.974   1.069  2.8221  0.1340 -0.7336
48796SOL    HW258113   9.354   6.111   1.071 -2.4934  2.9452  1.7565
48797SOL     OW58114  11.610   1.425   7.819  0.1086  0.5683  0.5815
48797SOL    HW158115  11.640   1.474   7.742 -0.2208 -0.6462 -0.3474
48797SOL    HW258116  11.686   1.424   7.877  0.5970  0.9106 -0.0326
48798SOL     OW58117   8.568   8.109   2.598 -0.2443  0.4181 -0.0720
48798SOL    HW158118   8.496   8.046   2.599 -0.7368  0.9731 -0.1340
48798SOL    HW258119   8.647   8.055   2.590 -0.5721 -0.2707  1.0450
48799SOL     OW58120  11.178   5.728   1.073 -0.4071  0.1650 -0.4980
48799SOL    HW158121  11.153   5.655   1.016 -0.2289 -0.1109 -0.2266
48799SOL    HW258122  11.151   5.806   1.025  0.0183 -0.0485 -1.0973
48800SOL     OW58123   7.881   7.011   1.505  0.0987  0.0382 -0.0172
48800SOL    HW158124   7.975   7.011   1.526  0.3718 -2.0098 -1.0399
48800SOL    HW258125   7.874   6.962   1.423 -1.9897 -1.1008  0.7535
48801SOL     OW58126   5.681  11.258  11.279  0.1953 -0.5528 -0.0709
48801SOL    HW158127   5.649  11.187  11.334  3.4784 -1.0779  1.4172
48801SOL    HW258128   5.680  11.221  11.190 -2.3773 -0.7526 -0.0273
48802SOL     OW58129   3.099   7.502  10.049  0.0225 -0.4594 -0.4901
48802SOL    HW158130   3.110   7.430   9.987 -1.1900 -0.9664 -0.1399
48802SOL    HW258131   3.112   7.462  10.135 -0.8958 -0.3166 -0.2784
48803SOL     OW58132   7.890   2.816   8.288  0.0132 -0.6365 -0.2921
48803SOL    HW158133   7.885   2.816   8.192  2.2934 -0.1693 -0.4853
48803SOL    HW258134   7.949   2.744   8.309  2.5165  1.4636  0.4267
48804SOL     OW58135   7.482   4.702   7.113  0.4750  0.1953 -0.0358
48804SOL    HW158136   7.391   4.725   7.134  1.4105  1.1327  3.5797
48804SOL    HW258137   7.530   4.784   7.122  1.6410 -0.0431 -2.9908
48805SOL     OW58138   9.899   6.088   8.154 -0.3952 -0.4985 -0.1775
48805SOL    HW158139   9.914   6.164   8.209 -0.1335  0.4857 -1.5721
48805SOL    HW258140   9.956   6.020   8.191 -1.2012 -0.3009  1.5446
48806SOL     OW58141   2.578  10.984   4.475 -0.7162 -0.3213 -0.1163
48806SOL    HW158142   2.625  10.945   4.401 -0.0458  1.4372 -0.6815
48806SOL    HW258143   2.639  10.976   4.549 -0.9517 -1.1319 -0.0082
48807SOL     OW58144   5.209   0.611   7.351  1.0802 -0.7511  0.2588
48807SOL    HW158145   5.215   0.519   7.378  1.0518 -1.6100 -2.3759
48807SOL    HW258146   5.117   0.634   7.364  1.1177 -1.0481  1.0690
48808SOL     OW58147   3.254   6.587   2.331  0.0104  0.5985  0.3146
48808SOL    HW158148   3.231   6.606   2.422  0.2445 -0.1689  0.5447
48808SOL    HW258149   3.293   6.500   2.334  1.9063  1.3734 -0.2087
48809SOL     OW58150   2.823   3.143   9.200 -0.1067 -0.0753  0.1145
48809SOL    HW158151   2.873   3.173   9.124 -0.6608 -1.8795 -1.0539
48809SOL    HW258152   2.750   3.205   9.206  0.8923  1.1200  0.2920
48810SOL     OW58153   1.933   2.491   0.370  0.6701 -0.0740 -0.6194
48810SOL    HW158154   1.898   2.404   0.350 -0.6870  0.1820  0.4441
48810SOL    HW258155   1.991   2.511   0.297  1.4240 -2.0824 -0.6307
48811SOL     OW58156   9.079   9.469   5.934  0.4436  0.2449 -0.0943
48811SOL    HW158157   9.054   9.502   5.848  1.3306  2.1536  0.3312
48811SOL    HW258158   9.168   9.436   5.921  0.8406  1.1725  0.2307
48812SOL     OW58159   1.328   7.389  11.758  0.4352 -0.0748  0.2040
48812SOL    HW158160   1.364   7.474  11.783  0.9981  0.1868 -1.4343
48812SOL    HW258161   1.320   7.392  11.663  0.0847 -1.7142  0.1451
48813SOL     OW58162   3.094   3.436   1.392 -0.2877 -0.4593 -0.0882
48813SOL    HW158163   3.159   3.497   1.359 -0.2935 -1.0415 -1.2251
48813SOL    HW258164   3.125   3.412   1.479  0.1871  0.4573 -0.0030
48814SOL     OW58165   9.858  11.074  10.099 -0.0839  0.2398 -0.3957
48814SOL    HW158166   9.879  11.144  10.161 -1.4858  0.4609 -0.1386
48814SOL    HW258167   9.763  11.078  10.089 -0.4323 -2.6060  0.8026
48815SOL     OW58168   9.751   2.098   0.191  0.0642  0.5578  0.3360
48815SOL    HW158169   9.816   2.155   0.232 -1.2857  1.1080  1.8467
48815SOL    HW258170   9.668   2.142   0.206 -0.8677 -1.0485  0.1550
48816SOL     OW58171   0.749   5.220   0.962  0.5276  0.1556  0.6970
48816SOL    HW158172   0.700   5.179   1.034  0.4378 -1.6011 -0.3076
48816SOL    HW258173   0.804   5.149   0.928  1.0306  1.1234 -0.5562
48817SOL     OW58174   4.764  10.361   0.124 -0.4912  0.2370 -0.1766
48817SOL    HW158175   4.704  10.287   0.131 -1.9119  1.5324  2.4028
48817SOL    HW258176   4.756  10.407   0.207  2.7122  1.5539 -0.4608
48818SOL     OW58177   5.331   7.681   5.278 -0.3928 -0.9824  0.5390
48818SOL    HW158178   5.408   7.624   5.279  0.3219 -0.0756 -0.4573
48818SOL    HW258179   5.367   7.769   5.288 -1.2647 -0.5109 -0.3280
48819SOL     OW58180  10.508  10.125   1.910  0.2600 -0.5835 -0.5884
48819SOL    HW158181  10.461  10.194   1.863  0.0588  0.7466  1.4324
48819SOL    HW258182  10.468  10.044   1.879 -0.2789  0.2448 -2.1963
48820SOL     OW58183  10.016  10.603   9.134  0.1199  0.0150  0.7330
48820SOL    HW158184  10.071  10.635   9.206 -0.4783  0.8159  0.8639
48820SOL    HW258185  10.049  10.516   9.114 -0.3778 -0.6949  2.7279
48821SOL     OW58186   1.078  11.426  11.083 -0.1802  0.2028  0.4443
48821SOL    HW158187   1.021  11.494  11.119 -1.6498 -0.8258  0.1574
48821SOL    HW258188   1.160  11.436  11.131 -0.4584  1.9565  0.6237
48822SOL     OW58189   7.433   8.404   8.498  0.4768  0.0961  0.5934
48822SOL    HW158190   7.351   8.427   8.541  0.3568 -0.3856  0.6236
48822SOL    HW258191   7.493   8.475   8.521  0.2003  0.2186  0.9452
48823SOL     OW58192   9.743   1.516   0.531  0.4238  0.6178 -0.1112
48823SOL    HW158193   9.753   1.607   0.503 -0.8390  0.6687 -0.4739
48823SOL    HW258194   9.688   1.521   0.610  2.1700  0.3137  1.1802
48824SOL     OW58195   2.731   7.799   5.714  0.2002  0.5063 -0.1263
48824SOL    HW158196   2.706   7.886   5.683 -0.2107  0.2478 -0.5369
48824SOL    HW258197   2.659   7.773   5.771  0.7094  0.7664  0.6593
48825SOL     OW58198   9.262  11.747   7.664 -0.4466 -0.2498 -0.0528
48825SOL    HW158199   9.263  11.819   7.727 -0.9197 -0.0267 -0.2956
48825SOL    HW258200   9.313  11.678   7.706 -0.2620  0.1091  0.3226
48826SOL     OW58201   8.365   5.607   6.077  0.0790  0.3945  1.0039
48826SOL    HW158202   8.303   5.629   6.146  0.4267 -0.0207  1.4524
48826SOL    HW258203   8.431   5.554   6.120 -0.8128 -1.7092 -0.0817
48827SOL     OW58204   8.611   1.739   6.047 -0.4836 -0.0601  1.0205
48827SOL    HW158205   8.705   1.738   6.063 -0.4536 -0.6520  0.8343
48827SOL    HW258206   8.583   1.649   6.065 -0.4879 -0.7589 -2.0597
48828SOL     OW58207  11.532   1.818   3.883  0.0761 -0.3845  0.5334
48828SOL    HW158208  11.483   1.858   3.955 -1.4518  0.3979 -0.8942
48828SOL    HW258209  11.474   1.750   3.849  1.4981 -1.9623  1.1062
48829SOL     OW58210   6.520   0.308   4.503 -0.1244 -0.4096  0.0694
48829SOL    HW158211   6.597   0.347   4.460 -0.0402 -1.8890 -1.2016
48829SOL    HW258212   6.533   0.328   4.595  0.2910  1.8734 -0.4074
48830SOL     OW58213   8.871   6.010   5.832 -0.2311 -0.1514  0.5747
48830SOL    HW158214   8.855   6.008   5.738  1.7903  0.9872  0.1491
48830SOL    HW258215   8.904   5.922   5.853  1.8169  0.3549 -0.3265
48831SOL     OW58216   8.365   4.029   9.378 -0.1710  0.0961  0.2136
48831SOL    HW158217   8.312   4.100   9.342 -0.9081 -1.2607 -1.5412
48831SOL    HW258218   8.361   3.961   9.311  1.6076 -1.0873  1.2532
48832SOL     OW58219   2.208   0.403   8.286 -0.1132 -0.6160  0.2832
48832SOL    HW158220   2.302   0.411   8.273  0.2062 -2.0551  1.4728
48832SOL    HW258221   2.179   0.344   8.216 -0.4230  0.9509 -0.9795
48833SOL     OW58222   7.233   4.101  11.639  0.9895  0.3097  0.3511
48833SOL    HW158223   7.143   4.126  11.617 -0.3011 -2.9771  1.2389
48833SOL    HW258224   7.227   4.070  11.730  3.2115  0.6812  0.6734
48834SOL     OW58225   2.259   2.628   3.078  0.3354 -0.0646  0.2411
48834SOL    HW158226   2.293   2.574   3.150 -0.9038  0.2768  1.1108
48834SOL    HW258227   2.296   2.715   3.093  0.7213 -0.1792 -0.0148
48835SOL     OW58228   0.176   9.599   4.848  0.3521  0.1762 -0.2982
48835SOL    HW158229   0.263   9.559   4.837  0.4263  0.3926 -0.5142
48835SOL    HW258230   0.167   9.610   4.943  0.2030 -0.6294 -0.2118
48836SOL     OW58231   1.866   8.303   2.080 -0.4539  1.0689 -0.0973
48836SOL    HW158232   1.790   8.265   2.036 -0.2517 -0.3303  0.6864
48836SOL    HW258233   1.910   8.228   2.121  0.3744  2.0714  0.9346
48837SOL     OW58234   8.427   0.173   2.161  0.2967  0.1387 -0.2795
48837SOL    HW158235   8.430   0.121   2.081  0.1873 -1.3577  0.6583
48837SOL    HW258236   8.519   0.196   2.177  0.2919  0.6783 -0.9557
48838SOL     OW58237   2.395   5.131   3.147 -0.8822 -0.1645  0.0371
48838SOL    HW158238   2.376   5.120   3.240 -0.9842 -1.2472 -0.0949
48838SOL    HW258239   2.436   5.217   3.140  1.1314 -0.9420  1.4140
48839SOL     OW58240  10.644   2.506   5.219  0.3725 -0.0034 -0.0858
48839SOL    HW158241  10.727   2.540   5.189 -0.3513  0.9997 -1.0252
48839SOL    HW258242  10.656   2.411   5.220  1.6484  0.1428  0.2443
48840SOL     OW58243   0.399   3.259   8.888  0.0126  0.7191  0.6768
48840SOL    HW158244   0.338   3.309   8.943  0.9531 -0.2628  2.6920
48840SOL    HW258245   0.469   3.233   8.947  1.6557  0.5205 -1.2588
48841SOL     OW58246   6.869   8.149   1.493  0.6682 -0.4530  0.4568
48841SOL    HW158247   6.963   8.135   1.494  0.7063 -0.7509  3.4676
48841SOL    HW258248   6.845   8.153   1.401  3.7366  0.6458 -0.3830
48842SOL     OW58249   8.549   2.485   7.103  0.2718  0.0332  0.2164
48842SOL    HW158250   8.603   2.539   7.160  1.1156 -0.3544 -0.1962
48842SOL    HW258251   8.546   2.400   7.147  0.5018 -0.1173 -0.0524
48843SOL     OW58252  11.367   2.660   8.476 -0.2717  0.6163  0.2204
48843SOL    HW158253  11.302   2.592   8.458 -0.6402  0.6095  1.5197
48843SOL    HW258254  11.330   2.711   8.547  1.3635  0.3097  1.3465
48844SOL     OW58255   8.035   1.081   6.919 -0.5852 -0.1352 -0.8913
48844SOL    HW158256   7.985   1.050   6.843 -0.6500 -0.5991 -0.6635
48844SOL    HW258257   8.119   1.107   6.883 -1.0573  0.8542 -1.3139
48845SOL     OW58258   2.815   5.842   3.667 -0.5941 -0.0060  0.8654
48845SOL    HW158259   2.910   5.836   3.662 -0.6535 -0.8070  0.5846
48845SOL    HW258260   2.786   5.753   3.689 -1.2596  0.2966  1.2678
48846SOL     OW58261   1.851   9.402  11.136 -0.2485 -0.5074 -0.1735
48846SOL    HW158262   1.783   9.337  11.120 -0.6609 -0.6961  1.9514
48846SOL    HW258263   1.843   9.422  11.230  0.2124  2.2214 -0.6150
48847SOL     OW58264   7.016  11.648   4.104 -0.4092 -0.0804  0.1112
48847SOL    HW158265   6.971  11.710   4.047  1.3878 -0.2952 -1.6472
48847SOL    HW258266   7.100  11.632   4.061  0.2246 -1.7893  1.8287
48848SOL     OW58267   8.559   4.066   5.001 -0.2474 -0.7239  0.4867
48848SOL    HW158268   8.653   4.056   5.014 -0.1451  1.0688  1.5792
48848SOL    HW258269   8.522   3.983   5.031  0.8185 -0.4454  2.7932
48849SOL     OW58270   4.760   4.263  11.755  0.1495 -0.8603 -0.0079
48849SOL    HW158271   4.756   4.254  11.660 -0.9839 -1.6531  0.0921
48849SOL    HW258272   4.671   4.247  11.784 -0.0861  1.8109  1.0314
48850SOL     OW58273   6.816   0.444   6.505 -0.4833 -0.4116  0.3859
48850SOL    HW158274   6.857   0.524   6.472 -1.0226  0.2640  1.3258
48850SOL    HW258275   6.826   0.381   6.433 -2.9927  1.4299 -1.7770
48851SOL     OW58276   8.369   7.861   5.059  0.0161 -0.6525 -0.5098
48851SOL    HW158277   8.316   7.925   5.011 -1.0247 -0.1012  1.2690
48851SOL    HW258278   8.328   7.857   5.146  2.5027 -0.7048  0.7449
48852SOL     OW58279   6.236   1.118   1.675 -0.2508  0.7578  0.1622
48852SOL    HW158280   6.201   1.082   1.594 -3.7875 -1.2497  2.3263
48852SOL    HW258281   6.175   1.188   1.698 -0.6585 -0.1820  2.1319
48853SOL     OW58282   9.580   3.419  11.050  0.4364 -0.1305 -0.0746
48853SOL    HW158283   9.608   3.345  10.996  0.5723  0.0236 -0.2188
48853SOL    HW258284   9.518   3.467  10.995  0.4991 -0.0287 -0.0561
48854SOL     OW58285   8.534   9.560   8.970  0.4752  0.5567  0.6845
48854SOL    HW158286   8.613   9.506   8.974 -0.2053 -0.4611  0.6978
48854SOL    HW258287   8.544   9.611   8.889  0.8104 -0.0947  0.3070
48855SOL     OW58288   1.053  11.523   7.155  0.5407  0.2005  0.5138
48855SOL    HW158289   0.993  11.457   7.121  0.6803  0.9973 -1.4034
48855SOL    HW258290   1.076  11.492   7.242 -3.6923  0.5684  1.9545
48856SOL     OW58291  10.001   1.860   5.135  0.0973 -0.1559  0.4745
48856SOL    HW158292   9.972   1.784   5.185  0.4906  1.2667  3.0631
48856SOL    HW258293  10.054   1.910   5.197  1.9439  1.0081 -1.8872
48857SOL     OW58294  10.076  11.106   4.152 -0.0438 -0.2029 -1.2786
48857SOL    HW158295   9.991  11.069   4.176 -0.9340  1.8791 -1.0217
48857SOL    HW258296  10.077  11.104   4.057 -0.5466  0.0852 -1.2939
48858SOL     OW58297   6.188  10.409   1.799 -0.0451  0.2103 -0.4703
48858SOL    HW158298   6.183  10.315   1.817  3.0430 -0.0886 -0.5445
48858SOL    HW258299   6.180  10.451   1.884 -1.2597 -0.1024 -0.4171
48859SOL     OW58300   0.460   1.793   8.406 -0.4010 -0.4742 -0.3244
48859SOL    HW158301   0.385   1.789   8.465 -0.4054 -2.1416 -0.3998
48859SOL    HW258302   0.482   1.886   8.401 -0.5885 -0.2434  2.0405
48860SOL     OW58303   0.854   3.824   7.682 -0.0031  0.7740  0.6766
48860SOL    HW158304   0.845   3.864   7.769 -0.9968  0.0787  0.9166
48860SOL    HW258305   0.873   3.897   7.624 -0.2128  1.3738  1.3468
48861SOL     OW58306   2.039   0.548   4.280 -0.5292  0.0023  0.4582
48861SOL    HW158307   1.976   0.484   4.246 -0.1959  0.2537 -0.6678
48861SOL    HW258308   1.987   0.604   4.337 -1.7122  1.1242 -1.5918
48862SOL     OW58309   9.991   8.701   8.068 -0.1373 -0.1298 -0.7331
48862SOL    HW158310   9.994   8.767   7.999 -1.0143  1.1490  0.3924
48862SOL    HW258311   9.898   8.681   8.079 -0.1365  0.6086  0.8928
48863SOL     OW58312  10.735   4.797   6.851 -0.1562  0.3754 -0.3444
48863SOL    HW158313  10.766   4.885   6.830  0.3853  0.3331  0.2344
48863SOL    HW258314  10.783   4.739   6.792  1.8101  0.1994  1.2994
48864SOL     OW58315   7.219   3.779  11.390  0.0500  0.0935  0.0673
48864SOL    HW158316   7.154   3.709  11.397  0.7397 -0.6848 -0.9414
48864SOL    HW258317   7.168   3.859  11.380 -0.8083 -0.0080  2.7265
48865SOL     OW58318  10.451   3.672   8.433 -0.1899  0.6373  0.0257
48865SOL    HW158319  10.523   3.690   8.492  1.1208  1.0316 -1.6134
48865SOL    HW258320  10.417   3.759   8.410 -0.1097  0.5443 -0.4647
48866SOL     OW58321   9.708   9.736   4.126  0.0558  0.2347 -0.3019
48866SOL    HW158322   9.710   9.812   4.068 -0.0045 -0.1050 -0.7560
48866SOL    HW258323   9.616   9.711   4.130  0.1557 -0.2059 -0.6759
48867SOL     OW58324   3.770   1.958   9.467  0.0904  0.0026  0.4034
48867SOL    HW158325   3.848   2.013   9.474  0.3190 -0.0348 -1.4829
48867SOL    HW258326   3.802   1.872   9.442 -0.6289  0.6139 -3.0817
48868SOL     OW58327   6.691   3.762   9.654  0.3704  1.1894  0.4221
48868SOL    HW158328   6.673   3.669   9.645  0.8395  0.9416  1.9068
48868SOL    HW258329   6.663   3.799   9.570  1.0053 -0.3930 -0.5307
48869SOL     OW58330   5.835   3.639  11.095  0.2252 -0.5165  0.0139
48869SOL    HW158331   5.843   3.720  11.045 -0.1478 -1.2771 -1.3280
48869SOL    HW258332   5.873   3.572  11.038  1.0090 -1.2194  1.3138
48870SOL     OW58333   6.923   0.656   8.245 -0.3236 -0.5525 -0.4221
48870SOL    HW158334   7.010   0.652   8.206 -0.6311 -1.5491 -1.0680
48870SOL    HW258335   6.938   0.661   8.339  0.4418 -1.8389 -0.4473
48871SOL     OW58336   4.210   8.353  11.247 -0.6177 -0.3337 -0.0706
48871SOL    HW158337   4.207   8.267  11.288  0.9587 -2.1888 -3.4327
48871SOL    HW258338   4.303   8.368  11.230 -0.9117  1.8207 -0.0804
48872SOL     OW58339   2.075   5.182   6.490 -0.0121 -0.0183  0.2384
48872SOL    HW158340   2.153   5.209   6.539  0.8448 -0.4929 -0.7895
48872SOL    HW258341   2.105   5.181   6.398 -0.9638 -1.1008 -0.0821
48873SOL     OW58342  11.148   0.232   9.750 -0.4023  0.0705 -0.1198
48873SOL    HW158343  11.110   0.155   9.706 -1.1334 -0.7557  1.8344
48873SOL    HW258344  11.195   0.279   9.680 -0.8425 -1.5637 -1.5935
48874SOL     OW58345   2.471   0.536   6.758  0.5184 -0.3548  0.1490
48874SOL    HW158346   2.447   0.482   6.833  1.2481  0.1603  0.7670
48874SOL    HW258347   2.389   0.548   6.709 -0.5833  1.4758  2.2588
48875SOL     OW58348   6.725   9.908   9.147 -0.3778 -0.0489  0.0200
48875SOL    HW158349   6.676   9.974   9.196 -1.3941 -1.0882  0.4442
48875SOL    HW258350   6.800   9.956   9.111 -0.4521  1.0754  1.2824
48876SOL     OW58351   1.866   6.235   2.817 -0.2759  0.3691  0.1425
48876SOL    HW158352   1.942   6.280   2.781  0.6522  0.6996  2.3348
48876SOL    HW258353   1.794   6.296   2.804  0.0721  0.6017 -0.8064
48877SOL     OW58354   0.457   3.927   9.313  0.6511 -0.0664 -0.0187
48877SOL    HW158355   0.488   4.002   9.362 -0.4236  0.5663 -0.2764
48877SOL    HW258356   0.512   3.854   9.342  3.5416  1.2735 -1.6858
48878SOL     OW58357   9.881   1.197   1.599 -0.6740 -0.3132  0.7125
48878SOL    HW158358   9.866   1.188   1.693  0.7587 -0.0321  0.9819
48878SOL    HW258359   9.885   1.291   1.583  4.5242 -0.1645  1.3844
48879SOL     OW58360  10.234   5.551   8.628 -0.0519  0.4263 -0.8808
48879SOL    HW158361  10.271   5.558   8.716  0.7068  0.2580 -1.1808
48879SOL    HW258362  10.241   5.639   8.592  4.7141 -0.4098 -2.7462
48880SOL     OW58363  11.111   6.268   7.085  0.3158 -0.1621  0.1900
48880SOL    HW158364  11.020   6.244   7.100  0.2873  0.1552  0.5247
48880SOL    HW258365  11.141   6.205   7.019  0.6027 -1.9578  1.9175
48881SOL     OW58366   9.970   4.702   0.436 -0.3623 -0.4411  0.1808
48881SOL    HW158367  10.060   4.702   0.469  0.1376  0.7675 -1.0791
48881SOL    HW258368   9.943   4.793   0.439 -0.0822 -0.1190 -3.0818
48882SOL     OW58369   7.004  10.894   1.779  0.3659  0.3725  0.2473
48882SOL    HW158370   7.056  10.882   1.859 -0.6504 -0.4507  0.8142
48882SOL    HW258371   7.014  10.811   1.731  1.6502  1.1655 -0.9241
48883SOL     OW58372   7.633   1.564   4.672  0.2713 -0.1573  0.3569
48883SOL    HW158373   7.566   1.520   4.620 -0.7656  0.4258  1.1435
48883SOL    HW258374   7.678   1.621   4.611 -0.3792 -0.0915 -0.0704
48884SOL     OW58375   9.044   0.868   2.455  0.8466 -0.1681 -0.6006
48884SOL    HW158376   9.041   0.776   2.428  0.1357  0.1501 -1.6568
48884SOL    HW258377   9.074   0.865   2.546 -0.2237 -1.5079 -0.2619
48885SOL     OW58378   3.160   5.313   6.734 -0.0996 -0.9139  0.7562
48885SOL    HW158379   3.219   5.245   6.703  0.3480 -1.2107  2.1844
48885SOL    HW258380   3.218   5.382   6.767 -0.5557 -0.5140  0.7388
48886SOL     OW58381  11.700   3.870   9.190  0.1937  0.1113 -0.7897
48886SOL    HW158382  11.763   3.841   9.256  0.4273 -0.7411 -1.3659
48886SOL    HW258383  11.637   3.923   9.239  0.3140 -0.5793  0.1399
48887SOL     OW58384   2.892   2.628   2.043 -0.3717 -0.2976 -0.2290
48887SOL    HW158385   2.957   2.679   2.091 -0.9295 -0.5532  0.8326
48887SOL    HW258386   2.875   2.552   2.099 -0.9099 -0.7067 -0.9269
48888SOL     OW58387  11.684   6.319   0.689  0.5148 -0.1074 -0.1783
48888SOL    HW158388  11.743   6.283   0.622  0.3049 -0.1155 -0.3582
48888SOL    HW258389  11.605   6.266   0.682  0.2634  0.2823 -0.3357
48889SOL     OW58390   7.022   2.698  11.104  0.1730 -0.0263  0.1384
48889SOL    HW158391   6.949   2.691  11.043  0.4429 -1.8183 -0.0316
48889SOL    HW258392   7.024   2.613  11.148  1.7782  0.2151  0.5742
48890SOL     OW58393   9.972   3.741  10.990 -0.1256 -0.1129 -0.4446
48890SOL    HW158394   9.995   3.810  10.929 -1.3718  0.7031 -0.0385
48890SOL    HW258395   9.879   3.724  10.973  0.2580 -2.0471 -0.8627
48891SOL     OW58396   2.785  10.903   8.320 -0.3110  0.0643 -0.1136
48891SOL    HW158397   2.789  10.988   8.278 -0.1082  1.1975  2.0462
48891SOL    HW258398   2.874  10.869   8.314 -0.2615  0.2538 -0.4808
48892SOL     OW58399   3.031   9.149   5.342 -0.3804  0.0897 -0.2489
48892SOL    HW158400   3.037   9.189   5.255 -3.6311 -0.0884 -0.6562
48892SOL    HW258401   3.059   9.058   5.329  1.6426  0.6878 -0.4779
48893SOL     OW58402  10.087   9.925  10.635 -0.3345 -0.0380 -0.1267
48893SOL    HW158403  10.122  10.005  10.596 -1.8335  0.4994 -0.4670
48893SOL    HW258404  10.085   9.942  10.729 -3.6681  1.7645 -0.3355
48894SOL     OW58405   3.994   4.760  10.040  0.1331  0.1803  0.1599
48894SOL    HW158406   3.964   4.814   9.967 -0.0694  1.2712  1.0195
48894SOL    HW258407   4.087   4.781  10.049 -0.2183  1.3493  1.2727
48895SOL     OW58408   7.378   4.308   8.435 -0.2003  0.1790 -0.3724
48895SOL    HW158409   7.365   4.350   8.350 -0.6294  1.2240  0.1845
48895SOL    HW258410   7.336   4.223   8.427 -1.2236  0.7153 -0.8532
48896SOL     OW58411   8.353   0.637   3.533 -0.1517 -0.7863  0.3268
48896SOL    HW158412   8.310   0.678   3.458 -2.9592 -1.6234  1.3466
48896SOL    HW258413   8.400   0.562   3.496  0.4168  0.1280 -0.8499
48897SOL     OW58414   1.357   1.948   3.105  0.5038  0.2218 -0.2881
48897SOL    HW158415   1.303   2.020   3.138 -1.3757 -1.2512  0.0250
48897SOL    HW258416   1.304   1.908   3.037  0.5282 -2.1594  0.9941
48898SOL     OW58417   9.421   3.527  11.248 -0.2284 -0.0079  0.5011
48898SOL    HW158418   9.489   3.487  11.193 -0.9760  0.3391 -0.7132
48898SOL    HW258419   9.388   3.600  11.196 -0.6387  0.6365  1.6280
48899SOL     OW58420   4.926   8.360   0.308  0.1012 -0.0673 -0.3278
48899SOL    HW158421   4.989   8.363   0.380 -0.6224 -2.7902  0.5426
48899SOL    HW258422   4.885   8.447   0.308  0.8620  0.3529  1.8621
48900SOL     OW58423   2.251   7.223  10.076 -0.4339 -0.4299  0.2369
48900SOL    HW158424   2.257   7.156  10.007 -1.3763 -1.8114  1.4344
48900SOL    HW258425   2.341   7.237  10.103 -0.1559 -0.7023 -0.5085
48901SOL     OW58426   2.818   6.016   6.938 -0.4687  0.5299  0.6724
48901SOL    HW158427   2.869   5.964   7.001 -1.0569 -1.0369 -0.0803
48901SOL    HW258428   2.741   6.044   6.986 -0.4295  0.1881  0.9404
48902SOL     OW58429   6.011  11.170   2.443  0.0173  0.6447  0.0703
48902SOL    HW158430   6.057  11.237   2.393  1.8701 -0.9766 -0.5339
48902SOL    HW258431   6.009  11.094   2.385 -3.2137  0.4777  0.2079
48903SOL     OW58432   0.107   1.841   9.652 -0.4365  0.2812 -0.5964
48903SOL    HW158433   0.084   1.751   9.675  0.5812  0.1410 -0.1085
48903SOL    HW258434   0.027   1.891   9.671 -1.0684 -0.5324 -1.0436
48904SOL     OW58435  10.292   4.636   0.835 -0.2255  0.3760  0.4129
48904SOL    HW158436  10.371   4.588   0.810  0.4481  2.0351 -0.8151
48904SOL    HW258437  10.286   4.624   0.930  2.0523  0.9776  0.6912
48905SOL     OW58438   6.592   4.750   6.439 -0.3838 -0.3995  0.3323
48905SOL    HW158439   6.550   4.703   6.368 -0.1159  0.2841 -0.2858
48905SOL    HW258440   6.675   4.704   6.453  0.9992  1.2077 -1.8697
48906SOL     OW58441   6.226   3.066   9.186  0.0143  0.2508 -0.1510
48906SOL    HW158442   6.246   3.019   9.266  2.2399  1.6181  0.1840
48906SOL    HW258443   6.299   3.047   9.128  0.2000  2.0029 -0.5659
48907SOL     OW58444   9.728   5.200   5.510 -0.5444  0.2028 -0.5921
48907SOL    HW158445   9.775   5.260   5.569 -1.1601 -1.4598  1.7326
48907SOL    HW258446   9.636   5.216   5.529 -0.7287 -0.8871 -0.5108
48908SOL     OW58447   1.952   7.552   5.159  0.1976 -0.1265 -0.6143
48908SOL    HW158448   1.879   7.565   5.220  0.5619  1.4741 -0.4953
48908SOL    HW258449   1.917   7.576   5.074  0.3792 -0.0578 -0.6693
48909SOL     OW58450   5.062  11.233   6.589 -0.4757 -0.1031  0.4047
48909SOL    HW158451   5.052  11.296   6.517 -1.2782 -0.0713  0.5315
48909SOL    HW258452   5.121  11.166   6.554 -1.3494 -0.4171 -0.5218
48910SOL     OW58453   8.173   9.548   8.602 -0.6817 -0.5907 -0.7423
48910SOL    HW158454   8.105   9.605   8.566 -1.9040 -0.9363  0.8775
48910SOL    HW258455   8.218   9.603   8.666 -2.1907 -1.4927  1.1917
48911SOL     OW58456   1.806  11.512   4.549  0.0072  0.1971  0.3180
48911SOL    HW158457   1.808  11.594   4.598  0.3947  0.1391  0.4032
48911SOL    HW258458   1.713  11.490   4.543 -0.3675  2.0941 -2.1718
48912SOL     OW58459   6.087  11.239   4.391 -0.1856 -0.2476  0.1872
48912SOL    HW158460   6.067  11.269   4.479 -2.3587 -0.7921 -0.0777
48912SOL    HW258461   6.079  11.143   4.395 -0.9908 -0.2401 -0.7315
48913SOL     OW58462   0.957   2.347  11.353 -0.0437  0.1729  0.4416
48913SOL    HW158463   0.881   2.325  11.300 -0.1078 -0.2377  0.6949
48913SOL    HW258464   0.948   2.441  11.371  0.8357  0.7040 -1.6229
48914SOL     OW58465   8.345  10.419   2.250 -0.1045  0.5365 -0.4335
48914SOL    HW158466   8.402  10.366   2.306 -1.4970 -1.1002 -0.4975
48914SOL    HW258467   8.400  10.494   2.225  1.8822 -0.7643 -0.1992
48915SOL     OW58468  10.216  10.209   6.859  0.6066 -0.1964 -0.4874
48915SOL    HW158469  10.195  10.277   6.795  0.2137 -1.5898 -1.9034
48915SOL    HW258470  10.283  10.155   6.815 -0.0028 -1.4437  0.0759
48916SOL     OW58471   5.589   4.110   6.173 -0.2539  0.3561  0.0606
48916SOL    HW158472   5.672   4.090   6.129 -0.6615 -1.7426  0.1447
48916SOL    HW258473   5.610   4.182   6.232  1.5784 -0.2914  0.2681
48917SOL     OW58474   2.249   9.055  10.650  0.2625 -0.4288  0.2118
48917SOL    HW158475   2.154   9.052  10.635  0.1094 -0.6767  1.1807
48917SOL    HW258476   2.259   9.032  10.742  1.1621  1.2060  0.5539
48918SOL     OW58477   5.955   3.084   5.192 -0.3520 -0.0870  0.0262
48918SOL    HW158478   5.902   3.005   5.207  0.7337 -0.5734  1.5155
48918SOL    HW258479   5.936   3.139   5.268  1.0020 -0.1285  0.4164
48919SOL     OW58480   9.557   6.705   9.598 -0.2121  0.2824 -0.1286
48919SOL    HW158481   9.613   6.659   9.535 -0.3979  1.6566 -1.3395
48919SOL    HW258482   9.483   6.646   9.612 -0.5749  0.2795 -1.8508
48920SOL     OW58483  10.793   5.656   9.733  0.0620  0.1623  0.2470
48920SOL    HW158484  10.883   5.663   9.702  0.5056  1.0692  1.6357
48920SOL    HW258485  10.789   5.714   9.809 -1.9540  0.9192 -0.3413
48921SOL     OW58486   5.433   3.546   9.859  0.3807  0.4918  0.1049
48921SOL    HW158487   5.395   3.597   9.787  0.2273 -0.7529 -0.7362
48921SOL    HW258488   5.513   3.592   9.882 -0.0971  1.4847 -0.1596
48922SOL     OW58489   9.552   2.816   5.946 -0.0268  0.1299 -0.6810
48922SOL    HW158490   9.606   2.753   5.897 -0.0631  0.8779 -1.7048
48922SOL    HW258491   9.470   2.770   5.963  0.0709 -0.2165 -1.1377
48923SOL     OW58492   9.507   5.904   6.803  0.3983 -0.0659  0.1117
48923SOL    HW158493   9.572   5.883   6.737  0.6571  0.4384  0.2001
48923SOL    HW258494   9.537   5.858   6.882 -0.0721 -0.9125 -0.1912
48924SOL     OW58495   7.334   7.715   8.529  0.2478 -0.2149  0.2934
48924SOL    HW158496   7.386   7.700   8.608  0.6580  0.0591  0.0785
48924SOL    HW258497   7.377   7.789   8.486 -0.6310  0.3602  0.3824
48925SOL     OW58498  11.954   2.856   9.745  0.2975  0.6015 -0.1907
48925SOL    HW158499  11.968   2.762   9.757  3.0457  0.7447 -1.5597
48925SOL    HW258500  11.975   2.894   9.831  2.1608  0.1565 -0.3984
48926SOL     OW58501  11.381   1.769   9.864 -0.0463 -0.4632  0.1852
48926SOL    HW158502  11.416   1.702   9.924  1.0276 -0.2112 -0.1390
48926SOL    HW258503  11.413   1.852   9.899 -0.0791 -0.2486 -0.2876
48927SOL     OW58504   9.471   0.847   2.190  0.0841  0.1116 -0.4949
48927SOL    HW158505   9.518   0.765   2.206  0.2365  0.0891 -1.0419
48927SOL    HW258506   9.423   0.832   2.109  1.3573  1.0950 -1.4722
48928SOL     OW58507   6.591   2.957   3.619 -0.0947 -0.1412 -0.0469
48928SOL    HW158508   6.565   2.969   3.710  1.4070 -0.0925  0.4045
48928SOL    HW258509   6.651   3.029   3.601  1.1458 -1.2107 -0.4406
48929SOL     OW58510   0.084   5.227   9.191 -0.1179 -0.3139  0.0364
48929SOL    HW158511   0.017   5.220   9.260 -2.4533  1.6333 -1.8558
48929SOL    HW258512   0.066   5.154   9.132  1.4954 -1.6166  1.0551
48930SOL     OW58513   1.345   6.349   9.074  0.2755 -0.3473 -0.1035
48930SOL    HW158514   1.331   6.407   8.999 -1.8901 -0.4433  0.1739
48930SOL    HW258515   1.424   6.299   9.051  0.1863  0.2583 -1.8985
48931SOL     OW58516   1.359   4.089   0.517  0.0069 -0.0656 -0.5176
48931SOL    HW158517   1.356   4.167   0.462  0.3377 -0.8738 -1.7183
48931SOL    HW258518   1.381   4.122   0.604  3.1420  0.9861 -1.5476
48932SOL     OW58519   9.304   6.900   7.537  0.4874  0.0489 -0.7692
48932SOL    HW158520   9.293   6.808   7.563  1.8997  0.0118 -0.2625
48932SOL    HW258521   9.248   6.909   7.460 -1.5401 -0.5967  0.5398
48933SOL     OW58522   5.772   0.553   4.779  0.2441 -0.0248 -0.4450
48933SOL    HW158523   5.831   0.492   4.823  1.4719  1.5243  0.1360
48933SOL    HW258524   5.730   0.501   4.711  1.8969 -1.3055 -0.5337
48934SOL     OW58525   9.483   0.893   6.141  0.5623  0.1298  0.2775
48934SOL    HW158526   9.464   0.980   6.176  1.3448  0.4603 -0.1060
48934SOL    HW258527   9.397   0.856   6.121  0.1907  0.5816  0.9906
48935SOL     OW58528   9.689  11.204   7.917  0.2787 -0.3145 -0.2421
48935SOL    HW158529   9.606  11.213   7.870 -1.2733 -1.3687  2.1222
48935SOL    HW258530   9.728  11.124   7.880 -1.4182 -1.7267  0.8666
48936SOL     OW58531  11.612   3.065   3.892  0.4046  0.1059  0.0164
48936SOL    HW158532  11.666   3.139   3.920 -1.8279  1.0465  2.2339
48936SOL    HW258533  11.668   2.989   3.902  1.6956  1.1470  1.0801
48937SOL     OW58534   7.448  10.133   4.679 -0.0361 -0.3974  0.3602
48937SOL    HW158535   7.504  10.211   4.687  0.1181 -0.4931  0.2277
48937SOL    HW258536   7.386  10.155   4.610 -0.9862  0.2048  1.3768
48938SOL     OW58537   5.152   9.576   0.513  1.1335 -0.6463  0.2552
48938SOL    HW158538   5.115   9.635   0.578  2.6305 -0.0643  0.6177
48938SOL    HW258539   5.242   9.606   0.501  1.6374 -2.2330 -0.2825
48939SOL     OW58540   9.443   2.577   6.312 -0.0509  0.2068 -0.1625
48939SOL    HW158541   9.397   2.503   6.352  1.6044 -0.9516 -0.2805
48939SOL    HW258542   9.451   2.641   6.382 -0.6451 -0.1302  0.2237
48940SOL     OW58543   1.635   5.064   6.684  0.0576 -0.1540  0.6618
48940SOL    HW158544   1.575   5.089   6.614  2.3528 -0.0967 -1.4263
48940SOL    HW258545   1.632   5.137   6.746 -1.3490  0.2229  0.1862
48941SOL     OW58546   7.954   6.545   0.761 -0.3406 -0.2657 -0.0862
48941SOL    HW158547   7.859   6.554   0.755 -0.2270  0.6368 -0.9249
48941SOL    HW258548   7.986   6.567   0.673  0.5899 -1.4480 -0.0626
48942SOL     OW58549   6.083   6.738   9.445 -0.3518 -0.1311  0.2132
48942SOL    HW158550   6.008   6.795   9.431 -0.2003 -0.2783 -1.4468
48942SOL    HW258551   6.047   6.660   9.486 -0.7604  0.6098  1.2969
48943SOL     OW58552   7.148   1.112   8.033  0.3766  0.8153 -0.6177
48943SOL    HW158553   7.159   1.080   7.944  3.0894  1.1367 -0.5004
48943SOL    HW258554   7.192   1.046   8.087  0.2566  1.4658  0.2970
48944SOL     OW58555  11.342   8.126   5.956 -0.7258 -0.1654  0.1271
48944SOL    HW158556  11.257   8.097   5.924  0.8015 -1.0595 -3.7643
48944SOL    HW258557  11.360   8.070   6.032 -1.5892 -3.5424 -1.9610
48945SOL     OW58558   2.450   3.730   7.464 -0.2856 -0.6917 -0.2199
48945SOL    HW158559   2.465   3.695   7.377  0.4340  0.0377 -0.3992
48945SOL    HW258560   2.427   3.654   7.517 -0.2733 -1.2039 -0.9377
48946SOL     OW58561   6.404   5.169   5.260 -0.1724 -0.4870 -0.2091
48946SOL    HW158562   6.327   5.112   5.252  1.1558 -2.7515  1.7912
48946SOL    HW258563   6.454   5.152   5.181 -0.3860 -1.2204 -0.2018
48947SOL     OW58564   2.071   1.168   2.178  0.0088  0.2762  0.2244
48947SOL    HW158565   1.997   1.122   2.217 -0.8716  1.0767 -0.4846
48947SOL    HW258566   2.104   1.108   2.110 -1.5498  0.9300 -1.1567
48948SOL     OW58567   9.230   9.269   5.803 -0.3422 -0.1370  0.1889
48948SOL    HW158568   9.288   9.312   5.739 -0.2785  0.0727  0.3877
48948SOL    HW258569   9.264   9.180   5.809  2.3949  0.9063  3.1086
48949SOL     OW58570   6.864   7.443   0.379 -0.1205 -0.2140 -0.1774
48949SOL    HW158571   6.788   7.420   0.327 -0.1159 -0.4357 -0.0859
48949SOL    HW258572   6.828   7.497   0.450 -0.2730 -0.7962  0.1917
48950SOL     OW58573   5.634   2.785   0.418 -1.0060 -0.0481 -0.0487
48950SOL    HW158574   5.629   2.804   0.324  1.9608  0.8087 -0.1457
48950SOL    HW258575   5.631   2.689   0.423 -1.1911 -0.1043 -1.0300
48951SOL     OW58576   8.860   0.454   9.220  0.0062 -0.5954 -0.3100
48951SOL    HW158577   8.882   0.500   9.301  2.8258 -1.3814 -0.5250
48951SOL    HW258578   8.796   0.511   9.177  0.4707  1.1774  1.2061
48952SOL     OW58579   8.815   8.356   5.288  0.0490 -0.6200 -0.0766
48952SOL    HW158580   8.847   8.364   5.198 -1.8818  0.4257 -0.7320
48952SOL    HW258581   8.731   8.312   5.279  0.0841 -1.0192  1.3074
48953SOL     OW58582   7.031  10.405   8.215 -0.2053  0.1529  0.1403
48953SOL    HW158583   7.006  10.494   8.191 -0.8301  0.1629  0.8297
48953SOL    HW258584   6.972  10.349   8.164 -1.4715  0.1728  1.5321
48954SOL     OW58585   1.360   2.432   4.281  0.1308 -0.0168  0.6965
48954SOL    HW158586   1.410   2.483   4.217  1.0563 -1.2688  0.3862
48954SOL    HW258587   1.268   2.451   4.260  0.4493  1.5140  0.6097
48955SOL     OW58588   9.648   3.358  10.529 -0.1418  0.4995  0.3232
48955SOL    HW158589   9.553   3.365  10.529 -0.1143  2.2672 -2.3417
48955SOL    HW258590   9.675   3.387  10.441  2.8119 -0.8250  0.6451
48956SOL     OW58591   2.938   1.657   8.528 -0.1110 -0.0079 -0.2052
48956SOL    HW158592   2.968   1.606   8.452 -1.1284 -1.2711  0.1937
48956SOL    HW258593   2.853   1.693   8.501 -0.2403 -0.0431  0.1494
48957SOL     OW58594   6.075   1.014   5.766  0.2117  0.5148 -0.8246
48957SOL    HW158595   6.057   1.087   5.826  0.0730  0.5008 -0.8496
48957SOL    HW258596   6.011   0.947   5.790 -0.2759  0.7582 -1.4215
48958SOL     OW58597   7.764   3.482   3.324 -0.4813  0.0032  0.2523
48958SOL    HW158598   7.804   3.441   3.248 -0.3225  0.1375  0.2637
48958SOL    HW258599   7.776   3.576   3.310  0.2493 -0.0005  0.8319
48959SOL     OW58600   8.826   3.007   5.486 -0.2596  0.2491 -0.2839
48959SOL    HW158601   8.825   2.912   5.476 -0.7809  0.2920 -0.6850
48959SOL    HW258602   8.889   3.024   5.556 -0.6899 -0.4375  0.2790
48960SOL     OW58603   2.735   6.208   9.743 -0.6981  0.1358 -0.2500
48960SOL    HW158604   2.784   6.127   9.756 -2.9339 -1.8718 -3.0158
48960SOL    HW258605   2.731   6.219   9.648 -0.4449  3.6136  0.0088
48961SOL     OW58606   3.082   9.596   3.513 -0.0079 -0.2858  0.6308
48961SOL    HW158607   3.092   9.672   3.571 -0.9586 -0.1828  0.6708
48961SOL    HW258608   3.011   9.620   3.453 -1.2329 -1.6262  1.4661
48962SOL     OW58609  11.509   0.618   5.152  0.0413  0.7940 -0.2047
48962SOL    HW158610  11.474   0.547   5.099  1.8581 -0.9248  0.7602
48962SOL    HW258611  11.447   0.627   5.224 -0.1087  0.0625 -0.2352
48963SOL     OW58612   2.991   6.414   2.463 -0.1129  0.7911 -0.4270
48963SOL    HW158613   3.035   6.496   2.488  1.8431  0.6551 -2.9742
48963SOL    HW258614   3.022   6.397   2.374 -1.8449 -1.8324 -0.6260
48964SOL     OW58615   8.357   2.620  11.382 -0.0898  0.5618  0.1151
48964SOL    HW158616   8.409   2.680  11.328  0.5701  1.4346  1.6730
48964SOL    HW258617   8.382   2.533  11.352 -0.7349  1.0031 -1.8963
48965SOL     OW58618  11.364  11.826   6.165 -0.0871  0.1178  0.2606
48965SOL    HW158619  11.381  11.836   6.071  0.8660 -0.8719  0.3102
48965SOL    HW258620  11.296  11.890   6.184  0.1823  0.7981 -0.9740
48966SOL     OW58621   3.890   9.116   9.569 -0.8191  0.0097  0.2064
48966SOL    HW158622   3.947   9.114   9.492  1.9519 -0.8400  2.1168
48966SOL    HW258623   3.910   9.035   9.616 -2.0986  0.6785  2.0554
48967SOL     OW58624   3.551   2.251   1.844 -0.2866 -0.3646 -0.3761
48967SOL    HW158625   3.573   2.164   1.875 -0.7849 -0.6574 -0.8330
48967SOL    HW258626   3.513   2.295   1.920  0.2802 -0.4267 -0.0529
48968SOL     OW58627   4.174   3.653   1.305 -0.0914  0.1780 -0.1783
48968SOL    HW158628   4.087   3.693   1.297 -0.0114  0.5610  0.7892
48968SOL    HW258629   4.183   3.600   1.226 -2.6259 -2.6740  1.2416
48969SOL     OW58630   8.594   9.719  11.848  0.2268  0.3491  0.3509
48969SOL    HW158631   8.650   9.697  11.922  0.4582  0.4519  0.2105
48969SOL    HW258632   8.510   9.679  11.868  0.6252 -0.6354  0.1225
48970SOL     OW58633   4.463   5.070   3.195  0.1578  0.3316  0.2901
48970SOL    HW158634   4.507   5.136   3.142  0.2468 -0.6118 -0.8400
48970SOL    HW258635   4.369   5.090   3.184  0.1509 -0.1909 -0.6855
48971SOL     OW58636   1.358   2.215   7.839 -0.4641 -0.6187 -0.0044
48971SOL    HW158637   1.347   2.128   7.801 -0.5415 -0.2953 -0.7490
48971SOL    HW258638   1.418   2.260   7.779 -0.8902  0.0316  0.0464
48972SOL     OW58639   6.370   6.047  10.235 -0.0188 -0.3334  0.1127
48972SOL    HW158640   6.405   5.984  10.298  0.3729 -0.0664  0.1655
48972SOL    HW258641   6.442   6.062  10.173 -0.1067  0.0642  0.1030
48973SOL     OW58642   2.849  10.357   0.727  0.1329  0.5587  0.5895
48973SOL    HW158643   2.786  10.290   0.754  1.7186 -1.0692  0.4543
48973SOL    HW258644   2.874  10.401   0.808 -0.4133  0.5165  0.7836
48974SOL     OW58645   7.490   3.007   9.888  0.3594  0.6181  0.5498
48974SOL    HW158646   7.421   3.006   9.954  0.5041  0.7624  0.7063
48974SOL    HW258647   7.449   2.974   9.808  0.8634 -2.2201  1.3532
48975SOL     OW58648   3.621  10.862   9.713  0.3092  0.0233  0.2376
48975SOL    HW158649   3.674  10.783   9.705  1.0454  0.3208  1.7402
48975SOL    HW258650   3.676  10.923   9.762 -0.4819  1.2530 -0.3453
48976SOL     OW58651   2.824   2.440   3.791 -0.6349 -0.2137  0.0256
48976SOL    HW158652   2.837   2.476   3.879 -0.4987  0.2901 -0.1967
48976SOL    HW258653   2.889   2.369   3.785  1.4329  1.6317 -0.7019
48977SOL     OW58654  11.347  10.527   8.733 -0.0896  0.2296  0.0918
48977SOL    HW158655  11.422  10.472   8.711  1.0749  1.7295  0.1256
48977SOL    HW258656  11.314  10.492   8.815  0.0623 -0.9419 -0.3325
48978SOL     OW58657   8.020   3.066   3.828 -0.1493  0.0224  0.0156
48978SOL    HW158658   8.106   3.083   3.788 -0.4137  1.6935  0.0726
48978SOL    HW258659   8.023   2.974   3.852  2.4462  0.4683  1.8659
48979SOL     OW58660   8.186   3.323   0.670  0.6044  0.0656  0.1634
48979SOL    HW158661   8.163   3.261   0.602 -2.4370  0.8600  0.3232
48979SOL    HW258662   8.159   3.408   0.636  0.7084  0.7154  1.6012
48980SOL     OW58663   7.606   5.267   2.402 -0.1611  0.2904  0.1100
48980SOL    HW158664   7.666   5.193   2.396 -1.3551 -1.0001  2.4616
48980SOL    HW258665   7.522   5.233   2.370 -0.7436  0.5484  1.2882
48981SOL     OW58666  10.966   7.592   7.532 -0.1524  0.5139 -0.5153
48981SOL    HW158667  10.985   7.591   7.438 -1.4549  2.6390 -0.8772
48981SOL    HW258668  11.029   7.654   7.569 -0.9324  1.2329 -0.3579
48982SOL     OW58669  11.627   8.625   4.434  0.3355 -0.0154 -0.3811
48982SOL    HW158670  11.645   8.680   4.357 -2.6234  0.8148 -0.6087
48982SOL    HW258671  11.691   8.554   4.428  1.3997  1.0128 -2.5590
48983SOL     OW58672   4.170   8.241   5.638  0.3696 -0.3269 -0.3817
48983SOL    HW158673   4.253   8.276   5.609  0.1810  0.4846  0.0252
48983SOL    HW258674   4.106   8.309   5.616 -0.2693 -1.1564 -1.1595
48984SOL     OW58675   3.624   1.685   9.419  0.3256 -0.0389  0.4872
48984SOL    HW158676   3.714   1.674   9.450  0.8527  2.0606 -0.1462
48984SOL    HW258677   3.633   1.714   9.328 -1.0694 -1.5507 -0.1855
48985SOL     OW58678  11.374  10.269   3.487  0.4075 -0.0509 -0.1953
48985SOL    HW158679  11.304  10.211   3.457  0.4362 -0.7884  1.1153
48985SOL    HW258680  11.453  10.237   3.442  0.3239 -0.7086  0.1115
48986SOL     OW58681   7.822   8.896   1.005 -0.0573  0.3081 -0.3935
48986SOL    HW158682   7.911   8.922   0.980 -0.1401  1.1667  0.1782
48986SOL    HW258683   7.821   8.801   0.991  0.9530  0.2833 -0.4030
48987SOL     OW58684   8.777   2.346   0.928 -0.5004 -0.4565 -0.4085
48987SOL    HW158685   8.868   2.325   0.906 -0.7419 -1.1031 -0.8397
48987SOL    HW258686   8.726   2.303   0.859 -1.2729 -2.0828  1.1213
48988SOL     OW58687   7.876   4.522   3.614 -0.3427 -0.3423 -0.4304
48988SOL    HW158688   7.962   4.561   3.630  0.0323 -0.5257 -1.8093
48988SOL    HW258689   7.828   4.536   3.695  1.3686 -1.2570  0.8198
48989SOL     OW58690   1.550   6.879   8.253  0.7597 -0.1881  0.1332
48989SOL    HW158691   1.586   6.953   8.204  3.0649 -1.6892 -0.5875
48989SOL    HW258692   1.493   6.834   8.191  1.9538 -0.8312 -0.5431
48990SOL     OW58693  11.159   9.189   2.729 -0.3611  0.2712  0.0503
48990SOL    HW158694  11.170   9.267   2.674 -0.2461 -0.7548 -1.4474
48990SOL    HW258695  11.066   9.188   2.752 -1.1478 -0.8695 -2.7227
48991SOL     OW58696   0.835   3.348   3.896 -0.2577 -0.4908  0.4200
48991SOL    HW158697   0.858   3.333   3.988 -0.4956 -0.6395  0.4574
48991SOL    HW258698   0.916   3.332   3.848  0.5544  1.9624  0.8120
48992SOL     OW58699   6.891   7.386   6.612 -0.3369  0.0800 -0.4974
48992SOL    HW158700   6.805   7.381   6.654 -0.8888  2.2724 -1.2214
48992SOL    HW258701   6.949   7.423   6.678  0.1643 -1.6769  0.0889
48993SOL     OW58702   8.745   2.133  10.089 -0.1046  0.4909  0.4428
48993SOL    HW158703   8.775   2.077  10.017  1.4036  1.0557  0.5998
48993SOL    HW258704   8.729   2.072  10.161 -2.4856 -0.1992 -0.5550
48994SOL     OW58705   0.953   4.114  10.927  0.7485  0.3309 -0.0858
48994SOL    HW158706   0.968   4.096  10.834  0.2438  1.0444 -0.3202
48994SOL    HW258707   1.040   4.134  10.962  0.7256  2.0513 -0.8782
48995SOL     OW58708   3.913   2.413  10.357  0.3505 -0.0143 -1.1844
48995SOL    HW158709   3.998   2.383  10.323  2.2283  2.2588  1.1393
48995SOL    HW258710   3.932   2.446  10.444 -2.6347  2.2211 -1.2286
48996SOL     OW58711   7.113   4.443   2.386  0.4471 -0.1959 -0.0520
48996SOL    HW158712   7.039   4.475   2.437 -0.9572  1.7462 -3.0344
48996SOL    HW258713   7.189   4.487   2.424 -0.5395  1.1775  0.4168
48997SOL     OW58714  10.947   6.528   1.200  0.4045  0.1483  0.0391
48997SOL    HW158715  10.875   6.575   1.158  0.1635  0.3288  0.6544
48997SOL    HW258716  10.949   6.443   1.156 -1.5201 -0.6677  1.3888
48998SOL     OW58717   0.594   5.507   9.975 -0.0150 -0.8168 -0.0429
48998SOL    HW158718   0.581   5.565  10.050 -0.6823 -2.9133  1.5584
48998SOL    HW258719   0.510   5.506   9.931 -0.1212 -0.8660  0.1580
48999SOL     OW58720   6.573   6.900   3.282 -0.0977 -0.1501 -0.2295
48999SOL    HW158721   6.506   6.911   3.213 -1.3996 -0.1816  0.9833
48999SOL    HW258722   6.602   6.989   3.301 -0.7788  0.0014  0.1530
49000SOL     OW58723   8.031   1.548   4.834 -0.1477 -0.6849 -0.0643
49000SOL    HW158724   8.020   1.633   4.877  2.1344 -0.6598  0.5848
49000SOL    HW258725   7.943   1.511   4.832 -0.5647 -0.2997  3.8452
49001SOL     OW58726   6.721  11.844  10.861  0.1261  0.0273  0.6736
49001SOL    HW158727   6.710  11.815  10.952 -0.9198  0.5636  0.7422
49001SOL    HW258728   6.634  11.833  10.822  0.2336  1.0516  0.1188
49002SOL     OW58729   8.235   0.970   8.560 -0.1917 -0.0765  0.3354
49002SOL    HW158730   8.262   1.062   8.560 -1.2560  0.2609  0.1111
49002SOL    HW258731   8.272   0.933   8.640  1.2537  0.2283 -0.1716
49003SOL     OW58732  11.476   4.607   2.327  0.6313 -0.0246  0.3577
49003SOL    HW158733  11.481   4.677   2.392  1.6461  1.2258 -0.9826
49003SOL    HW258734  11.513   4.646   2.248 -1.9654 -0.9608 -1.4491
49004SOL     OW58735  10.815   9.125   9.264  0.0439 -0.1962 -0.1008
49004SOL    HW158736  10.731   9.089   9.289  0.4804 -1.8689 -0.9157
49004SOL    HW258737  10.808   9.140   9.169  1.2563 -2.1906 -0.5606
49005SOL     OW58738   0.947  10.297  11.029  0.2833 -0.3457 -0.0825
49005SOL    HW158739   0.943  10.242  11.108  1.5538 -1.0788 -0.4920
49005SOL    HW258740   1.036  10.334  11.031  0.0900  0.1797 -0.8200
49006SOL     OW58741   6.533   4.510   4.366  0.1796 -0.1023  0.0862
49006SOL    HW158742   6.485   4.593   4.372 -1.5453 -1.1360  1.8662
49006SOL    HW258743   6.492   4.463   4.294  0.4883  0.1742 -0.2740
49007SOL     OW58744  11.519   4.240   0.138 -0.4764 -0.0771 -0.1477
49007SOL    HW158745  11.597   4.293   0.120 -0.0245 -0.2082  1.2752
49007SOL    HW258746  11.467   4.293   0.198  0.1951 -1.3569  1.6597
49008SOL     OW58747   7.808   0.132  10.869 -0.9284  0.3573 -0.0320
49008SOL    HW158748   7.816   0.058  10.930 -0.2336  0.6509  0.2412
49008SOL    HW258749   7.893   0.137  10.826 -1.2972  0.3865 -0.7733
49009SOL     OW58750   6.142   6.741  11.232 -0.1599 -0.2239 -0.1690
49009SOL    HW158751   6.127   6.647  11.245 -1.4081  0.0397  0.4611
49009SOL    HW258752   6.221   6.745  11.179  0.1649 -1.6232  0.1551
49010SOL     OW58753   0.149   4.912   9.552  0.1088 -0.0808  0.0752
49010SOL    HW158754   0.064   4.942   9.519  0.4988  0.5445 -0.4021
49010SOL    HW258755   0.197   4.885   9.473  0.8854  0.9895  0.1480
49011SOL     OW58756   8.711   9.605   7.038 -0.3310  0.2699 -0.1003
49011SOL    HW158757   8.685   9.687   6.996 -0.5166  0.8641  1.1291
49011SOL    HW258758   8.772   9.632   7.107  0.1637 -0.7038 -0.1367
49012SOL     OW58759  11.795   3.430   1.596 -0.1561  0.6684  0.1274
49012SOL    HW158760  11.774   3.488   1.522 -0.4483 -0.7411 -0.9307
49012SOL    HW258761  11.883   3.397   1.577 -1.1331 -1.5260 -0.8604
49013SOL     OW58762   6.591   2.627   9.819 -0.4828  0.0644 -0.3983
49013SOL    HW158763   6.683   2.636   9.794 -0.8166  3.0852 -0.9596
49013SOL    HW258764   6.553   2.574   9.749  0.5492  0.1644 -1.0610
49014SOL     OW58765   6.881   7.099   1.944 -0.1894  0.0612 -0.2045
49014SOL    HW158766   6.922   7.015   1.923  2.1348  0.8102  1.0620
49014SOL    HW258767   6.929   7.163   1.892 -2.0955  0.6476 -1.3442
49015SOL     OW58768   5.340  11.877   2.671  0.2566  0.2911  0.2890
49015SOL    HW158769   5.375  11.930   2.600  0.7400  0.0501  0.3431
49015SOL    HW258770   5.366  11.787   2.648  0.9446  0.2802  1.0757
49016SOL     OW58771   0.294   2.562  11.514 -0.3273 -0.3223  0.2325
49016SOL    HW158772   0.201   2.539  11.513 -0.2516 -0.6412  0.2512
49016SOL    HW258773   0.338   2.480  11.538  0.1724 -1.0310 -2.6776
49017SOL     OW58774   9.553   2.163  10.261 -0.1978 -0.2886 -0.2678
49017SOL    HW158775   9.481   2.107  10.288 -0.8293  0.8479  0.5245
49017SOL    HW258776   9.512   2.247  10.242  0.8182  0.1490 -0.6101
49018SOL     OW58777   5.877   6.178   6.925  0.9750 -0.2331  0.3517
49018SOL    HW158778   5.868   6.183   6.830  1.3347  1.0503  0.3708
49018SOL    HW258779   5.860   6.267   6.956 -0.0445 -0.8192  1.5815
49019SOL     OW58780   1.492  11.625   6.577  0.4082 -0.2701 -0.0387
49019SOL    HW158781   1.577  11.650   6.540  0.6927  0.3845  0.9840
49019SOL    HW258782   1.448  11.708   6.593  0.3363 -0.5154  1.1266
49020SOL     OW58783   7.551   7.268   4.479 -0.1537 -0.2993 -0.0631
49020SOL    HW158784   7.635   7.224   4.489 -0.5020 -0.6829  1.3305
49020SOL    HW258785   7.489   7.197   4.457 -0.3915 -0.2435  0.4260
49021SOL     OW58786   6.530   5.273   1.898 -0.1046  0.4021 -0.6081
49021SOL    HW158787   6.540   5.286   1.992  1.2615 -1.6816 -0.4101
49021SOL    HW258788   6.437   5.255   1.886  0.0702 -1.6301  0.7023
49022SOL     OW58789  11.609   3.650   5.317  0.3714  0.2073 -0.3628
49022SOL    HW158790  11.661   3.573   5.296 -0.1415 -0.4595  0.7228
49022SOL    HW258791  11.535   3.647   5.257 -0.5612 -1.1308  0.7903
49023SOL     OW58792   8.661   8.433   2.348  0.2148  0.3361  0.6732
49023SOL    HW158793   8.738   8.482   2.320  0.1798 -0.6472 -1.3037
49023SOL    HW258794   8.686   8.396   2.433  2.1048 -0.3556 -0.1409
49024SOL     OW58795   6.767   7.937   5.676 -0.0210  0.4751  0.1399
49024SOL    HW158796   6.761   7.842   5.668  0.2630  0.5196 -0.7112
49024SOL    HW258797   6.677   7.966   5.690 -0.0286  0.0322  1.0460
49025SOL     OW58798  10.702   6.550   5.896 -0.1434  0.2040 -0.0166
49025SOL    HW158799  10.657   6.580   5.817 -0.5628 -0.4989 -0.0464
49025SOL    HW258800  10.673   6.460   5.908  1.9102 -0.5878 -0.5129
49026SOL     OW58801   9.698   9.052   8.605  0.0666 -0.0467  0.0644
49026SOL    HW158802   9.626   9.085   8.551 -1.5631 -1.4864  1.2289
49026SOL    HW258803   9.741   9.131   8.639  0.3586  0.8704 -2.2577
49027SOL     OW58804   8.436   7.273   2.997 -0.0410  0.1174 -0.2150
49027SOL    HW158805   8.492   7.334   2.949  0.1611  0.1359  0.0419
49027SOL    HW258806   8.393   7.328   3.063 -2.0984  0.5800 -1.8117
49028SOL     OW58807   5.524  10.553   6.535 -0.1397  0.1942 -0.1576
49028SOL    HW158808   5.442  10.542   6.583 -0.1689 -1.4890 -0.5533
49028SOL    HW258809   5.587  10.582   6.601 -1.2422  2.4971 -0.0346
49029SOL     OW58810   2.411   5.660   9.166 -0.6598 -0.6045  0.6822
49029SOL    HW158811   2.415   5.568   9.140 -2.4610 -0.4231 -0.3972
49029SOL    HW258812   2.358   5.659   9.246 -1.1676 -0.4613  0.3510
49030SOL     OW58813   5.019   8.704   1.333  0.2721 -0.5692 -0.6777
49030SOL    HW158814   5.012   8.618   1.374 -1.4043 -0.3946 -0.5030
49030SOL    HW258815   4.982   8.764   1.397 -1.2392 -0.1305 -1.9007
49031SOL     OW58816  10.376   5.984   3.429 -0.0296  0.5033 -0.4737
49031SOL    HW158817  10.402   5.977   3.338 -0.8165  0.6866 -0.7192
49031SOL    HW258818  10.304   5.922   3.439  1.4796 -1.1849  0.5981
49032SOL     OW58819   1.177   8.785   9.196  0.3362  0.1839 -0.3724
49032SOL    HW158820   1.270   8.759   9.197  0.5698  0.9025  1.8315
49032SOL    HW258821   1.143   8.754   9.280 -1.3750  0.1976 -1.0236
49033SOL     OW58822   3.877   0.785   1.135 -0.1068  0.8966 -0.0346
49033SOL    HW158823   3.960   0.793   1.086 -0.6235  0.5327 -1.0004
49033SOL    HW258824   3.892   0.835   1.215  1.7621 -0.7804  0.7719
49034SOL     OW58825   2.553   6.161   5.458 -0.0730 -0.0392 -0.1469
49034SOL    HW158826   2.563   6.144   5.364 -0.6643 -1.4105  0.0248
49034SOL    HW258827   2.483   6.102   5.486  1.7806 -1.5088  1.6546
49035SOL     OW58828   4.036  10.480   1.451 -0.1871 -0.3012  0.4108
49035SOL    HW158829   4.026  10.527   1.534  1.2937 -0.6555  0.8075
49035SOL    HW258830   4.109  10.421   1.465  0.5676  0.1446 -1.3887
49036SOL     OW58831   5.493   6.603   4.952  0.0456  0.2918  0.0433
49036SOL    HW158832   5.536   6.638   5.030 -1.2192  1.1026  0.4128
49036SOL    HW258833   5.426   6.668   4.931 -2.9482 -2.1580  1.1969
49037SOL     OW58834   3.381   4.726  10.532 -0.1622  0.5328 -0.1819
49037SOL    HW158835   3.331   4.707  10.611  0.0501 -0.4106 -0.2707
49037SOL    HW258836   3.470   4.739  10.563 -0.2036  0.8433 -0.1892
49038SOL     OW58837   6.682   7.620   4.165  1.0598 -0.1078 -0.3993
49038SOL    HW158838   6.641   7.556   4.107  0.0529  0.7651 -0.6800
49038SOL    HW258839   6.732   7.677   4.106  0.8999  0.1347 -0.3048
49039SOL     OW58840   6.325  10.774   2.079 -0.9184  0.7093  0.1284
49039SOL    HW158841   6.348  10.863   2.107  1.4441  0.8542 -1.9537
49039SOL    HW258842   6.371  10.716   2.140  0.9063  0.9855 -0.9369
49040SOL     OW58843   6.724   3.865   6.056 -0.0292 -0.6204  0.2112
49040SOL    HW158844   6.754   3.827   6.139 -2.5789 -0.4504  1.2920
49040SOL    HW258845   6.667   3.797   6.019 -0.0048 -0.1367 -0.7260
49041SOL     OW58846  10.073   2.184   8.723  0.5306 -0.0535 -0.5263
49041SOL    HW158847  10.049   2.276   8.733 -0.5160 -0.3335 -0.3769
49041SOL    HW258848  10.109   2.178   8.635  1.4126  0.6580 -0.2357
49042SOL     OW58849  10.379   8.257   5.079  0.2775 -0.1326 -0.0972
49042SOL    HW158850  10.365   8.324   5.013  1.9419 -0.6134 -0.9959
49042SOL    HW258851  10.385   8.175   5.030 -0.1175 -0.7354  0.8231
49043SOL     OW58852   7.779   3.771  11.689 -0.4989  0.3865 -0.1485
49043SOL    HW158853   7.770   3.680  11.716  0.9793  0.6355  1.3165
49043SOL    HW258854   7.869   3.794  11.712 -0.5610  1.9619 -1.3310
49044SOL     OW58855   4.904   8.103   4.701  0.4153  0.4917  0.6025
49044SOL    HW158856   4.819   8.089   4.743  0.1098 -1.4304 -0.5351
49044SOL    HW258857   4.917   8.198   4.704 -3.4238  1.3151 -2.2447
49045SOL     OW58858  10.349   3.046  11.487 -0.4963  0.7991 -0.1594
49045SOL    HW158859  10.431   3.093  11.471  0.2653 -0.2023  0.6733
49045SOL    HW258860  10.307   3.041  11.401  1.0063  0.0954 -0.8839
49046SOL     OW58861   7.141   5.813   4.937  0.1314  0.3453  0.0126
49046SOL    HW158862   7.232   5.808   4.908 -0.5641 -0.2613 -2.3170
49046SOL    HW258863   7.099   5.870   4.872 -1.1389  0.6835  1.0898
49047SOL     OW58864  10.615   4.795   4.125  0.0160  0.7809  0.1680
49047SOL    HW158865  10.668   4.872   4.145 -0.3133  0.9400  0.4446
49047SOL    HW258866  10.554   4.825   4.057  0.1507  0.6531 -0.0100
49048SOL     OW58867   8.585   3.616  10.388  0.4135  0.1930 -0.1734
49048SOL    HW158868   8.605   3.703  10.354  0.5214  0.1205 -0.2952
49048SOL    HW258869   8.491   3.618  10.406 -0.0046 -0.3051 -2.0698
49049SOL     OW58870   3.176   8.578   3.978 -0.1451 -0.4496 -0.3725
49049SOL    HW158871   3.150   8.666   4.006  0.2752 -0.4042 -0.1220
49049SOL    HW258872   3.094   8.538   3.948 -0.3950 -0.0869 -0.1918
49050SOL     OW58873   6.019   3.274   5.610  0.2199 -0.3920  0.2726
49050SOL    HW158874   5.982   3.363   5.607  0.5342 -0.2607  0.1596
49050SOL    HW258875   6.007   3.246   5.700  1.7884  0.5063  0.8006
49051SOL     OW58876  10.101   2.055   4.020  0.4948  0.2499  0.2848
49051SOL    HW158877  10.101   2.147   3.993  1.6131  0.0848 -0.3535
49051SOL    HW258878  10.140   2.008   3.946 -4.1633 -1.4351 -1.4545
49052SOL     OW58879   0.906   5.474  10.680  0.1201  0.3707  0.0113
49052SOL    HW158880   0.916   5.568  10.699 -0.6310  1.1163 -2.7860
49052SOL    HW258881   0.816   5.454  10.707  0.8217 -0.0463  2.2148
49053SOL     OW58882   2.891  11.528   5.567  0.1002  0.2509  0.3900
49053SOL    HW158883   2.841  11.534   5.649  0.2207  0.0516  0.4784
49053SOL    HW258884   2.893  11.617   5.534  2.0063  0.7846  1.7637
49054SOL     OW58885   5.384   2.301   6.434 -0.5825  0.0215 -0.1939
49054SOL    HW158886   5.454   2.312   6.370 -1.1866 -0.8532 -1.0240
49054SOL    HW258887   5.427   2.257   6.508 -0.3825 -1.1419 -0.9737
49055SOL     OW58888   3.113   9.423   8.298  0.1991  0.2009 -0.8625
49055SOL    HW158889   3.139   9.354   8.359 -1.2641  1.1622  0.9503
49055SOL    HW258890   3.099   9.377   8.215 -1.1150 -1.7976  0.3567
49056SOL     OW58891   3.573  11.353   7.199 -0.2436  0.2493 -0.5052
49056SOL    HW158892   3.500  11.306   7.159  0.0068 -0.3252 -0.3110
49056SOL    HW258893   3.606  11.409   7.129 -0.5467  0.1290 -0.7492
49057SOL     OW58894   4.407  10.920   7.691 -0.2757  0.2005  0.2066
49057SOL    HW158895   4.463  10.981   7.740 -1.5338  0.3314  1.5554
49057SOL    HW258896   4.377  10.970   7.615  0.3278  0.5700  0.2029
49058SOL     OW58897  11.615   3.005   8.887 -0.5082 -0.1893 -0.1269
49058SOL    HW158898  11.547   2.968   8.944  1.9424 -1.0300  2.4929
49058SOL    HW258899  11.689   2.945   8.895  0.9198  1.1598 -2.1069
49059SOL     OW58900   6.893   5.664  11.869 -0.3628  0.0435 -0.0120
49059SOL    HW158901   6.917   5.715  11.791  0.1605  0.5759  0.4790
49059SOL    HW258902   6.827   5.718  11.913  0.1722  0.3008  0.4947
49060SOL     OW58903   8.211   1.406   1.846 -0.5805  0.4544 -0.4842
49060SOL    HW158904   8.303   1.423   1.828  0.0972  0.4646  2.4268
49060SOL    HW258905   8.208   1.387   1.940 -3.7497  1.9971 -0.1245
49061SOL     OW58906   8.211   4.303   5.955 -0.1655 -0.1347  0.0598
49061SOL    HW158907   8.282   4.288   6.018  0.4154 -1.9050 -0.9561
49061SOL    HW258908   8.212   4.397   5.941  2.8481 -0.1968 -0.8512
49062SOL     OW58909   1.953   4.270   2.868 -0.4264  0.4826 -0.0184
49062SOL    HW158910   2.010   4.223   2.930 -2.0504 -0.2078  1.0257
49062SOL    HW258911   1.963   4.362   2.892 -0.8899  0.2416  1.2057
49063SOL     OW58912   1.684  10.880   3.699 -0.0545  0.2634  0.3457
49063SOL    HW158913   1.608  10.937   3.709  0.1306  0.4220  0.8691
49063SOL    HW258914   1.730  10.886   3.783 -0.0678 -0.7105  0.4335
49064SOL     OW58915   8.411   8.730  10.046 -0.4487 -0.0857 -0.6068
49064SOL    HW158916   8.423   8.637  10.066 -0.4971 -0.1992 -1.1081
49064SOL    HW258917   8.335   8.756  10.098 -0.7869 -0.4664 -0.9077
49065SOL     OW58918   8.310  11.517   0.087  0.1117 -0.0986 -0.1021
49065SOL    HW158919   8.379  11.477   0.034  0.7764  1.1732 -0.2306
49065SOL    HW258920   8.353  11.536   0.171  0.5409  2.5223 -0.8395
49066SOL     OW58921   5.753   7.987   1.696 -0.4115  0.1430 -0.1093
49066SOL    HW158922   5.756   8.082   1.691 -0.0868  0.0706 -1.8745
49066SOL    HW258923   5.773   7.967   1.788 -1.4989  1.7877  0.5275
49067SOL     OW58924   3.913   3.095   9.913 -0.2964 -0.4811  0.1881
49067SOL    HW158925   3.856   3.167   9.890 -1.3884 -1.4459 -0.2001
49067SOL    HW258926   3.998   3.136   9.932 -1.2210  1.0198  1.2467
49068SOL     OW58927   4.079   6.615   0.668  0.7691 -0.3732 -0.4177
49068SOL    HW158928   4.118   6.697   0.698 -2.0945  1.0239 -0.1085
49068SOL    HW258929   4.084   6.620   0.572  0.7523  0.1160 -0.3990
49069SOL     OW58930   6.070   3.525   1.860  0.6047  0.2974 -0.0395
49069SOL    HW158931   6.104   3.440   1.887  3.2125  1.1177 -0.4486
49069SOL    HW258932   6.030   3.562   1.939  2.8802  0.2418  1.1989
49070SOL     OW58933   1.581   9.498   9.769  0.2529 -0.5969  0.5014
49070SOL    HW158934   1.579   9.511   9.864 -0.6868  0.2183  0.3887
49070SOL    HW258935   1.489   9.487   9.745  0.4071 -0.0201 -0.4051
49071SOL     OW58936  10.218   0.093   8.783 -0.4163  0.6550  0.0715
49071SOL    HW158937  10.258   0.078   8.697 -1.0053  0.0778 -0.1096
49071SOL    HW258938  10.177   0.179   8.776 -1.7260 -0.0062 -0.7351
49072SOL     OW58939   3.153  10.851   1.367 -0.0579  0.5593  0.2180
49072SOL    HW158940   3.144  10.913   1.439  1.1989  0.2088  0.7020
49072SOL    HW258941   3.088  10.879   1.303 -0.6084  1.3936  1.1186
49073SOL     OW58942   1.445  11.930   0.008 -0.0447 -0.3027  0.6469
49073SOL    HW158943   1.452  11.850  -0.044  0.6339 -2.2002  3.4430
49073SOL    HW258944   1.479  11.906   0.094 -0.2903  2.8868  1.7686
49074SOL     OW58945   5.893   6.197   2.111  1.0516 -0.3513  0.1929
49074SOL    HW158946   5.966   6.227   2.165  1.2266  2.1068 -1.2895
49074SOL    HW258947   5.932   6.176   2.026  0.2995 -0.7679 -0.0648
49075SOL     OW58948   2.888  11.943   1.640 -0.4972  0.7127  0.0853
49075SOL    HW158949   2.879  11.855   1.678 -1.9950 -0.2489 -2.2959
49075SOL    HW258950   2.971  11.940   1.593 -0.1643  0.8790  0.6415
49076SOL     OW58951   9.134  11.239  10.347  0.4057  0.9423 -0.3441
49076SOL    HW158952   9.156  11.154  10.384  0.4021  2.2646  3.1355
49076SOL    HW258953   9.198  11.252  10.277  0.5227 -1.7786 -0.8397
49077SOL     OW58954   7.625   3.451   9.962  0.7031 -0.2198 -0.2774
49077SOL    HW158955   7.636   3.507   9.885 -1.3053 -0.4030 -0.7532
49077SOL    HW258956   7.542   3.407   9.947  0.5479 -0.6834  1.7527
49078SOL     OW58957   8.096   1.962   6.351 -0.0481 -0.1465 -0.0132
49078SOL    HW158958   8.060   2.043   6.386  0.0224  0.3703 -1.1146
49078SOL    HW258959   8.107   1.906   6.428  1.3137  1.4078  1.0024
49079SOL     OW58960   8.293   5.919   5.500 -0.1428  0.3548 -0.0619
49079SOL    HW158961   8.222   5.952   5.445  0.7339  0.8052 -0.9826
49079SOL    HW258962   8.267   5.831   5.524 -0.6579  0.2210 -1.0502
49080SOL     OW58963   0.745   4.389   9.067 -0.3833 -0.1010  0.4885
49080SOL    HW158964   0.742   4.294   9.075 -1.3167 -0.0465  0.9076
49080SOL    HW258965   0.838   4.410   9.070 -0.2224 -0.8557  2.2887
49081SOL     OW58966   1.492   0.935   9.911  0.0571  0.3209 -0.3832
49081SOL    HW158967   1.535   1.001   9.966  1.4931 -0.1345 -0.9131
49081SOL    HW258968   1.445   0.986   9.845 -2.3858  0.9254  1.6379
49082SOL     OW58969   8.538   1.669   1.439  0.0290  0.6233  0.2065
49082SOL    HW158970   8.629   1.651   1.462 -0.7759 -0.7734  2.7526
49082SOL    HW258971   8.520   1.612   1.364  0.9001 -0.0717  0.5140
49083SOL     OW58972   9.036   0.092  10.942 -0.4563 -0.6255  0.2688
49083SOL    HW158973   9.078   0.160  10.889 -0.3352 -0.9194 -0.0148
49083SOL    HW258974   9.106   0.029  10.961 -0.0621  0.3008  2.2173
49084SOL     OW58975   8.368   9.094   8.429  0.6632  0.0236  0.1624
49084SOL    HW158976   8.430   9.092   8.502  0.6815 -1.0086  0.1323
49084SOL    HW258977   8.418   9.059   8.355  0.4751  0.5547 -0.2208
49085SOL     OW58978   2.906   9.027   1.188 -0.4241  0.3806  0.0966
49085SOL    HW158979   2.820   9.066   1.172 -0.4402  0.0482 -0.6659
49085SOL    HW258980   2.906   8.947   1.136  0.8431  1.0361 -0.9687
49086SOL     OW58981   2.460   2.838   6.494  0.3100  0.4009 -0.3036
49086SOL    HW158982   2.551   2.832   6.523  0.8318 -0.5186 -1.9984
49086SOL    HW258983   2.441   2.752   6.456 -0.6236  1.1829 -1.7188
49087SOL     OW58984  10.344  10.367  10.784  0.3399 -0.4558 -0.4655
49087SOL    HW158985  10.435  10.395  10.780  0.2607 -0.2552 -0.8569
49087SOL    HW258986  10.348  10.275  10.810  0.6418 -0.3702 -0.2073
49088SOL     OW58987   4.325   4.486   5.382  0.0856  0.5373  0.7187
49088SOL    HW158988   4.276   4.416   5.425  1.3093  0.5497  2.1970
49088SOL    HW258989   4.338   4.552   5.450  0.7227  1.2786 -0.0966
49089SOL     OW58990  11.378   7.953   6.178 -0.2411 -0.9170  0.1838
49089SOL    HW158991  11.449   7.890   6.180  1.1345  0.5646  0.4053
49089SOL    HW258992  11.364   7.976   6.270  0.3704  0.2196  0.0195
49090SOL     OW58993   7.681   4.910   1.476  0.4559  0.2582  0.0270
49090SOL    HW158994   7.620   4.868   1.414 -0.1975 -0.9507  1.4342
49090SOL    HW258995   7.755   4.936   1.421 -0.6461  0.4015 -1.4834
49091SOL     OW58996   7.525   1.627   0.403  0.0996  0.0862  0.1361
49091SOL    HW158997   7.431   1.632   0.387 -0.1411  0.6797  1.5863
49091SOL    HW258998   7.534   1.569   0.480  1.1108 -1.8605 -1.3449
49092SOL     OW58999   6.293   6.477   4.447  0.1533  0.0434  0.2441
49092SOL    HW159000   6.291   6.557   4.499  1.8833 -0.7473  1.6477
49092SOL    HW259001   6.383   6.473   4.414 -0.7177  0.1611 -2.2950
49093SOL     OW59002   4.297   3.170   2.067  0.6642  0.6720 -0.6118
49093SOL    HW159003   4.310   3.121   2.148 -1.2879  0.9858 -0.0386
49093SOL    HW259004   4.285   3.104   2.000 -1.3580  0.3011  0.0500
49094SOL     OW59005  11.123   4.639   7.077  0.0110  0.3224  0.2011
49094SOL    HW159006  11.151   4.729   7.093 -0.7484  0.5956  0.0453
49094SOL    HW259007  11.033   4.636   7.110 -0.7057  0.1971 -1.6531
49095SOL     OW59008   6.235   2.108   4.628 -0.4416  0.7185  0.9359
49095SOL    HW159009   6.255   2.193   4.589 -0.4194  1.1149  1.7693
49095SOL    HW259010   6.321   2.067   4.641 -0.4814  0.3661  0.1037
49096SOL     OW59011  11.840   1.460   2.726  0.2768 -0.2724  0.2840
49096SOL    HW159012  11.785   1.428   2.798 -0.5977 -0.1618 -0.3266
49096SOL    HW259013  11.810   1.550   2.712  0.9045 -0.0691  0.2145
49097SOL     OW59014   8.092   9.890   7.192 -0.1979 -0.2040  0.4832
49097SOL    HW159015   8.023   9.824   7.192 -0.9118  0.5206  0.8530
49097SOL    HW259016   8.122   9.892   7.101 -1.0868 -0.1150  0.1771
49098SOL     OW59017   0.143   8.684   9.618  0.2751 -0.2095  0.2174
49098SOL    HW159018   0.224   8.734   9.615 -0.1452  0.5280 -2.8753
49098SOL    HW259019   0.075   8.751   9.632  0.0415 -0.5510  0.7381
49099SOL     OW59020   6.931   5.259   8.241  0.1122  0.1691 -0.6454
49099SOL    HW159021   6.942   5.189   8.305 -0.5548  1.3317  0.8210
49099SOL    HW259022   6.843   5.245   8.205 -0.5753  0.9557  0.6297
49100SOL     OW59023   9.721  11.916   1.177  0.6357  0.2340 -0.1306
49100SOL    HW159024   9.745  11.834   1.222  1.9622  0.1182 -0.9963
49100SOL    HW259025   9.771  11.984   1.223  0.5369  0.3800 -0.2403
49101SOL     OW59026   0.255   5.737   8.743  0.0759 -0.2437 -0.2166
49101SOL    HW159027   0.204   5.812   8.713 -0.1755 -0.4110 -0.2058
49101SOL    HW259028   0.263   5.681   8.666  0.6618  0.0142 -0.3485
49102SOL     OW59029   4.184   3.848   5.387  0.0563  0.7835 -0.1483
49102SOL    HW159030   4.260   3.900   5.362  1.1979 -0.1401  1.1615
49102SOL    HW259031   4.116   3.871   5.324  1.7932  0.7546 -2.1372
49103SOL     OW59032   9.848   5.469   8.465  0.0376  0.2212  0.4401
49103SOL    HW159033   9.857   5.558   8.430  1.1770  0.8430  2.1561
49103SOL    HW259034   9.753   5.454   8.469 -0.2442  1.9295  1.3677
49104SOL     OW59035   3.520   8.409   6.019 -0.4026  0.0142 -0.0669
49104SOL    HW159036   3.476   8.490   6.046 -2.6195 -1.7775  2.1503
49104SOL    HW259037   3.485   8.392   5.931 -1.3904  0.4899  0.2141
49105SOL     OW59038   2.834   2.153   2.340  0.1063 -0.2973 -0.7790
49105SOL    HW159039   2.924   2.154   2.372 -0.0386  2.0253 -0.2445
49105SOL    HW259040   2.833   2.085   2.273  2.3113 -0.2208 -0.9685
49106SOL     OW59041   7.574   3.223   2.730  0.3811 -0.0930  0.3967
49106SOL    HW159042   7.634   3.283   2.687  0.0956  0.2202  0.4321
49106SOL    HW259043   7.543   3.165   2.660  0.7342 -0.2640  0.3820
49107SOL     OW59044   7.963  11.729   6.170  0.0537  0.3412  0.1180
49107SOL    HW159045   7.874  11.710   6.200  0.2024  0.6631  0.7752
49107SOL    HW259046   7.957  11.815   6.129  0.4704  1.3525  2.0810
49108SOL     OW59047   2.801   0.196   2.210  0.1784 -0.0596 -0.1642
49108SOL    HW159048   2.742   0.197   2.135  0.9017 -4.8361 -1.1536
49108SOL    HW259049   2.752   0.148   2.277  1.3754 -0.3452  0.5214
49109SOL     OW59050   7.882   8.397   6.580 -0.6039  0.4558  0.3454
49109SOL    HW159051   7.812   8.332   6.570  0.0765 -0.3621  0.8028
49109SOL    HW259052   7.956   8.347   6.615  0.0999  1.3797  0.1938
49110SOL     OW59053   8.076   0.346   6.060  0.0345  0.8957  0.5815
49110SOL    HW159054   8.075   0.418   6.123  2.9878 -0.4070  2.3172
49110SOL    HW259055   8.168   0.327   6.047 -0.5570 -0.4405 -2.4229
49111SOL     OW59056   3.348  10.299   6.198  0.2666  0.1334 -0.1615
49111SOL    HW159057   3.281  10.275   6.135  0.4708  0.8887 -0.6804
49111SOL    HW259058   3.309  10.280   6.283 -0.6065  0.5666 -0.4575
49112SOL     OW59059   8.101   6.759   2.535 -0.4262 -0.0847  0.0019
49112SOL    HW159060   8.008   6.743   2.548 -0.8727  1.8793 -0.4270
49112SOL    HW259061   8.128   6.809   2.612  0.3107 -0.6826  0.1504
49113SOL     OW59062   5.844   5.186   7.134 -0.4583  0.2355 -0.1491
49113SOL    HW159063   5.934   5.208   7.108 -0.3406 -0.0597 -0.0017
49113SOL    HW259064   5.849   5.172   7.229 -0.4851 -0.6015 -0.2632
49114SOL     OW59065   6.271  10.498   8.901 -0.1105 -0.3889  0.2347
49114SOL    HW159066   6.258  10.462   8.989 -3.9333  2.3124  1.0253
49114SOL    HW259067   6.317  10.581   8.916 -3.1886  1.4821  0.2504
49115SOL     OW59068   7.082   3.526   9.077  0.2126  0.0356  0.2219
49115SOL    HW159069   7.149   3.521   9.145 -0.1526  0.8805  0.6608
49115SOL    HW259070   7.016   3.585   9.113 -0.1807  0.1811 -0.7091
49116SOL     OW59071   0.665   5.546   2.131  0.1965  0.1402  0.3723
49116SOL    HW159072   0.683   5.455   2.155  0.8150  0.3033  0.5547
49116SOL    HW259073   0.736   5.569   2.070 -0.5975  0.1461 -0.5803
49117SOL     OW59074   6.179   6.214   4.314  0.1200  0.4476 -0.0525
49117SOL    HW159075   6.265   6.182   4.342  0.0098  1.3920  1.4780
49117SOL    HW259076   6.154   6.277   4.381 -3.5169 -2.5559  1.8206
49118SOL     OW59077   5.274   4.246  10.398 -0.6958 -0.7097  0.2557
49118SOL    HW159078   5.261   4.182  10.328  0.6886 -0.4061 -0.3215
49118SOL    HW259079   5.369   4.261  10.399 -0.9129  0.8250  0.8276
49119SOL     OW59080   6.732   8.686   9.698  0.4455  0.3332 -0.7062
49119SOL    HW159081   6.709   8.596   9.721  1.7397 -0.1100 -1.0434
49119SOL    HW259082   6.677   8.706   9.622 -1.0225  0.4321  0.3337
49120SOL     OW59083   8.131   7.589   1.923 -0.2187  0.0099 -0.1960
49120SOL    HW159084   8.180   7.586   1.841  0.6876 -0.9218  0.3535
49120SOL    HW259085   8.067   7.519   1.916 -0.4921  0.2690 -0.3136
49121SOL     OW59086   6.895   0.812   5.406 -0.5003 -0.1394  0.6377
49121SOL    HW159087   6.859   0.730   5.372 -0.3435 -0.4164  1.1277
49121SOL    HW259088   6.819   0.870   5.414 -0.4641  0.1385 -0.7251
49122SOL     OW59089   6.146   1.717   3.314 -0.0546  0.3301  0.2587
49122SOL    HW159090   6.149   1.804   3.275 -2.7532  1.0800  1.4860
49122SOL    HW259091   6.209   1.721   3.386  0.7497  0.8113 -0.4439
49123SOL     OW59092   6.554   9.220  10.038 -0.0661  0.2575  0.6530
49123SOL    HW159093   6.615   9.242  10.109 -0.7278  2.5757  0.5760
49123SOL    HW259094   6.482   9.174  10.081 -0.9899  2.5921  1.7450
49124SOL     OW59095   2.717   4.453   1.223 -0.2564 -0.0079 -0.3676
49124SOL    HW159096   2.707   4.363   1.252  1.8250  0.6386  2.8643
49124SOL    HW259097   2.642   4.500   1.261 -0.3140 -0.0407 -0.4402
49125SOL     OW59098   5.874  11.057  11.778  0.3310  0.4909 -0.1876
49125SOL    HW159099   5.783  11.085  11.790 -0.0827 -0.6846 -0.5434
49125SOL    HW259100   5.913  11.126  11.724 -1.0591 -0.2692 -2.2658
49126SOL     OW59101   6.602   8.528  10.483  0.5230  0.0122  1.0475
49126SOL    HW159102   6.647   8.573  10.554  2.0586  0.7307 -0.3223
49126SOL    HW259103   6.620   8.581  10.405  0.4878 -1.7588 -0.2363
49127SOL     OW59104  10.258  10.381   5.349 -0.1833 -0.4595 -0.1309
49127SOL    HW159105  10.281  10.381   5.256  1.0076 -0.3649  0.1495
49127SOL    HW259106  10.310  10.309   5.386 -1.4555 -1.1965  0.2799
49128SOL     OW59107   2.360   6.340   9.074  0.0116 -0.1281  0.7121
49128SOL    HW159108   2.284   6.388   9.107  0.7865 -0.4160  3.0966
49128SOL    HW259109   2.326   6.253   9.053 -0.7049  0.3708 -0.2859
49129SOL     OW59110   0.957   4.265   0.072 -0.3924  0.0640 -0.2825
49129SOL    HW159111   0.880   4.210   0.087  0.8704 -1.5953  0.4217
49129SOL    HW259112   0.945   4.339   0.132 -1.2187 -0.3981  0.1403
49130SOL     OW59113   2.960   1.067   2.529 -0.1090  0.6768  0.0906
49130SOL    HW159114   2.898   1.022   2.470 -1.2065  0.8027  1.1061
49130SOL    HW259115   3.045   1.059   2.485 -0.8614  0.6508 -1.4382
49131SOL     OW59116   6.738   8.171   4.215  0.1261  0.1360 -0.4288
49131SOL    HW159117   6.779   8.118   4.284  0.3225  0.0251 -0.6317
49131SOL    HW259118   6.720   8.255   4.258  0.1482  0.0307 -0.2090
49132SOL     OW59119   2.184   1.009   0.347 -0.6674 -0.4214 -0.4018
49132SOL    HW159120   2.209   0.919   0.324 -0.0607 -0.9301  1.8931
49132SOL    HW259121   2.091   1.014   0.326 -0.2373 -0.8361 -2.5917
49133SOL     OW59122   2.592   7.388  10.349  0.3687  0.6874  0.2414
49133SOL    HW159123   2.552   7.305  10.324  2.0001 -0.4661  1.2340
49133SOL    HW259124   2.658   7.405  10.281  2.2076 -0.5184  1.6169
49134SOL     OW59125   3.705   9.797   1.424  0.5957  0.4970 -0.3007
49134SOL    HW159126   3.797   9.771   1.433  0.3451  0.1030  1.3564
49134SOL    HW259127   3.655   9.719   1.450 -0.1984  1.0297 -0.1881
49135SOL     OW59128  10.968  11.784   4.991 -0.3213 -0.1245  0.0883
49135SOL    HW159129  10.933  11.730   5.062  0.6728 -0.4264  0.3610
49135SOL    HW259130  11.063  11.774   4.997 -0.0398  2.1974  0.6055
49136SOL     OW59131   4.697   9.020   2.187 -0.0071  0.2612 -0.0533
49136SOL    HW159132   4.669   9.043   2.098 -3.2791  1.0530  1.0377
49136SOL    HW259133   4.667   8.931   2.199  2.3239 -0.6424 -0.3464
49137SOL     OW59134   8.252   4.911   1.585 -0.1521  0.1007  0.2374
49137SOL    HW159135   8.199   4.844   1.629  1.7775 -1.1824  0.7169
49137SOL    HW259136   8.260   4.981   1.650 -1.0936  0.2405  0.2180
49138SOL     OW59137   4.134   4.218  10.831 -0.6207  0.6421  0.2515
49138SOL    HW159138   4.040   4.227  10.843 -0.7674  0.3983 -0.6043
49138SOL    HW259139   4.144   4.135  10.783 -0.1694  1.7965 -1.7665
49139SOL     OW59140   8.026  10.621  10.320 -0.1476  0.0019 -0.3420
49139SOL    HW159141   8.017  10.668  10.237  2.9474 -1.5383 -1.7375
49139SOL    HW259142   7.982  10.537  10.306  0.5105 -0.3220 -0.5250
49140SOL     OW59143  11.926   1.523   3.158  0.1621  0.2631 -0.2329
49140SOL    HW159144  11.855   1.492   3.213  1.4599  0.2926  1.5676
49140SOL    HW259145  11.897   1.609   3.127 -1.0015 -0.1881 -0.4396
49141SOL     OW59146  10.897   5.832   0.157 -0.2050 -0.2874 -0.0563
49141SOL    HW159147  10.890   5.908   0.099  0.3265 -1.6882 -2.0769
49141SOL    HW259148  10.807   5.807   0.175 -0.3906 -0.2140 -0.8387
49142SOL     OW59149  10.272   5.472   3.658 -0.7014  0.4671  0.8738
49142SOL    HW159150  10.272   5.457   3.563  0.3907  0.7574  0.8148
49142SOL    HW259151  10.335   5.542   3.671  0.1669 -0.4798  1.9495
49143SOL     OW59152   1.790   7.535   4.034 -0.3015  0.4442  0.2595
49143SOL    HW159153   1.787   7.551   4.128 -1.7182  1.7371  0.0257
49143SOL    HW259154   1.762   7.444   4.024  1.4595 -0.2420  1.1673
49144SOL     OW59155   8.755   9.318   6.032  0.0740  0.4999 -0.1467
49144SOL    HW159156   8.720   9.253   6.093 -0.3901 -0.8652 -1.7931
49144SOL    HW259157   8.841   9.284   6.007  0.3984  1.2097 -0.0318
49145SOL     OW59158   2.525   7.847   4.004 -0.2279 -0.2018 -0.3193
49145SOL    HW159159   2.446   7.843   3.951 -0.8714 -2.1422  0.7140
49145SOL    HW259160   2.507   7.916   4.068  0.0824  1.3080 -1.7880
49146SOL     OW59161   3.790   3.929   8.962  0.5451 -0.1042 -0.0171
49146SOL    HW159162   3.732   3.987   9.010  0.1674 -0.4448 -0.0553
49146SOL    HW259163   3.735   3.853   8.939  1.0707 -0.5542  0.1837
49147SOL     OW59164   6.558   8.785   9.521  0.0036 -0.1445  0.5417
49147SOL    HW159165   6.562   8.737   9.438  1.2550  0.3239  0.2969
49147SOL    HW259166   6.511   8.866   9.499  0.2996 -0.0370  0.2829
49148SOL     OW59167   0.725   5.515   2.446 -0.1052  0.0454 -0.1713
49148SOL    HW159168   0.744   5.557   2.362  0.2048  0.4218  0.0818
49148SOL    HW259169   0.685   5.584   2.499  0.2940 -0.0079  0.2063
49149SOL     OW59170   2.154   2.856   3.892  0.7158 -0.3913 -0.2096
49149SOL    HW159171   2.169   2.915   3.967  0.6019 -1.1451  0.4199
49149SOL    HW259172   2.223   2.791   3.899  0.7223 -0.4497 -0.7923
49150SOL     OW59173  10.953   2.349  11.456 -0.3191 -0.2218 -0.1914
49150SOL    HW159174  10.879   2.300  11.492  0.0283 -2.3745 -2.1455
49150SOL    HW259175  10.924   2.373  11.368  1.0963 -0.6781 -0.8110
49151SOL     OW59176   7.777   5.733   7.854 -0.1049  0.1804  0.4162
49151SOL    HW159177   7.802   5.804   7.795  0.3663  0.5717  1.0689
49151SOL    HW259178   7.689   5.709   7.827  0.5934 -0.6099 -1.3700
49152SOL     OW59179   8.448   3.229   5.647 -0.4632 -0.1818  0.8585
49152SOL    HW159180   8.412   3.164   5.707 -0.5125  1.6329  2.9344
49152SOL    HW259181   8.536   3.246   5.680 -0.2930  0.5007  0.0859
49153SOL     OW59182   2.236   4.605   7.101  0.3552 -0.1535 -0.0059
49153SOL    HW159183   2.215   4.537   7.037  1.6166 -1.0877  0.5236
49153SOL    HW259184   2.178   4.678   7.079 -0.7149 -1.2288 -0.8723
49154SOL     OW59185  10.212  10.096   9.811 -0.2000 -0.2295 -0.0131
49154SOL    HW159186  10.122  10.110   9.841  0.2754  1.1956  0.7980
49154SOL    HW259187  10.263  10.162   9.856  1.4781 -1.8279  0.5226
49155SOL     OW59188  11.500   0.278   6.818  0.6385  0.6207  0.1996
49155SOL    HW159189  11.455   0.359   6.793 -0.7877 -0.1119  0.3272
49155SOL    HW259190  11.498   0.224   6.740 -0.0063  0.0141  0.6240
49156SOL     OW59191   9.359   7.375  10.298 -0.2840  0.0589  0.0919
49156SOL    HW159192   9.389   7.466  10.293 -1.8584  0.5845 -0.3726
49156SOL    HW259193   9.434   7.327  10.334  0.0814  1.7617  1.7676
49157SOL     OW59194  11.778   4.556   2.339 -0.0200  0.4936  0.4855
49157SOL    HW159195  11.684   4.544   2.330  0.1037 -0.9644  0.9229
49157SOL    HW259196  11.810   4.562   2.249 -0.6383  2.2138  0.3377
49158SOL     OW59197   7.331   6.417   8.739  0.5476 -0.1626  0.4174
49158SOL    HW159198   7.391   6.467   8.794  2.7116 -0.6757 -1.3173
49158SOL    HW259199   7.244   6.440   8.771  1.6028  1.3555  2.4489
49159SOL     OW59200   8.091   6.418   2.715 -0.0354  0.4123 -0.2167
49159SOL    HW159201   8.171   6.367   2.731 -1.5099 -1.9502  0.2413
49159SOL    HW259202   8.052   6.378   2.638 -1.7430  0.1416  0.7260
49160SOL     OW59203   8.548   9.170   8.981 -0.1823 -0.4008 -0.3203
49160SOL    HW159204   8.596   9.178   9.064  0.9397 -2.3336 -0.7389
49160SOL    HW259205   8.532   9.261   8.955 -2.0254  0.3206  2.7762
49161SOL     OW59206   8.063  10.947   2.906  0.6338 -0.2488 -0.0400
49161SOL    HW159207   8.054  11.015   2.973 -1.6154 -0.0237 -0.4923
49161SOL    HW259208   8.139  10.974   2.855  2.7509 -0.6972  2.6436
49162SOL     OW59209   4.912   1.476   0.500  0.1926 -0.1193 -0.3081
49162SOL    HW159210   4.916   1.571   0.499  0.9493 -0.1090 -2.4744
49162SOL    HW259211   4.832   1.455   0.453 -0.7134 -0.5952  1.3565
49163SOL     OW59212   8.481   1.770   8.876 -0.3350 -0.3081 -0.8383
49163SOL    HW159213   8.521   1.684   8.861  0.0671 -0.0687 -1.1555
49163SOL    HW259214   8.550   1.832   8.854 -0.5055  0.0907 -0.2526
49164SOL     OW59215   1.690  11.109   6.923 -0.1204 -0.3120  0.4949
49164SOL    HW159216   1.777  11.113   6.964  0.1846 -0.5789 -0.1178
49164SOL    HW259217   1.698  11.165   6.846 -0.4788 -0.3786  0.4109
49165SOL     OW59218   9.564   5.207   3.206  0.6148 -0.6608  0.1660
49165SOL    HW159219   9.631   5.273   3.223  0.2915 -0.5744  1.2083
49165SOL    HW259220   9.598   5.155   3.133  1.5029 -0.2036  0.2482
49166SOL     OW59221   5.597   7.836   5.746 -0.0379  0.2776  0.1064
49166SOL    HW159222   5.543   7.821   5.823  0.0227  1.4262  0.3983
49166SOL    HW259223   5.667   7.894   5.777 -0.2229  1.0583 -0.8852
49167SOL     OW59224  11.069   4.669   6.324 -0.0485  0.0077  0.6878
49167SOL    HW159225  11.153   4.679   6.280 -1.0186  3.4558 -0.7176
49167SOL    HW259226  11.067   4.740   6.388 -2.0372  0.3102  0.3503
49168SOL     OW59227   2.706   7.448   1.171 -0.6444  0.3076  0.0755
49168SOL    HW159228   2.668   7.440   1.084 -0.1518  1.4115 -0.2499
49168SOL    HW259229   2.797   7.474   1.156  0.1875 -1.8533  0.8434
49169SOL     OW59230  10.923   0.846   3.075  0.4964 -0.1952  0.2503
49169SOL    HW159231  10.922   0.919   3.014 -0.4014  0.4604  1.0243
49169SOL    HW259232  11.010   0.807   3.064  0.8743  0.7853 -0.3944
49170SOL     OW59233   5.999   6.681   5.748  0.1301  0.2799  0.1756
49170SOL    HW159234   5.917   6.648   5.711 -0.4859  0.0927  1.6368
49170SOL    HW259235   5.973   6.759   5.798  1.2677  1.8541 -1.5567
49171SOL     OW59236   8.896   2.859   0.300 -0.0067  0.6805 -0.6570
49171SOL    HW159237   8.838   2.802   0.351  0.8955  0.3760  0.0516
49171SOL    HW259238   8.930   2.802   0.232  1.7386  0.0206  0.6910
49172SOL     OW59239   6.003   3.694   0.089 -0.3921  0.4379  0.0645
49172SOL    HW159240   5.911   3.677   0.071 -0.7034  0.7048  1.2820
49172SOL    HW259241   6.051   3.642   0.024 -1.3949  0.2515 -0.5402
49173SOL     OW59242   7.551   1.435   5.526 -0.2644  0.0576  0.1136
49173SOL    HW159243   7.458   1.453   5.541 -0.4464 -1.4497  0.9950
49173SOL    HW259244   7.595   1.468   5.603 -0.3035 -0.8371  0.5371
49174SOL     OW59245   7.241   3.890   4.520  0.0915 -0.4161  0.4951
49174SOL    HW159246   7.266   3.842   4.441 -0.0933 -0.8756  0.7172
49174SOL    HW259247   7.280   3.840   4.592  1.0778  0.5183  0.6445
49175SOL     OW59248   5.959   3.875   7.187 -0.0800  0.2701  0.4094
49175SOL    HW159249   5.957   3.860   7.281  0.5469  1.4465  0.6262
49175SOL    HW259250   6.025   3.944   7.174  0.8169 -0.7863 -1.0193
49176SOL     OW59251   4.128   2.683  11.415 -0.1558  0.4975  0.0624
49176SOL    HW159252   4.151   2.744  11.345 -2.8172  1.2197 -0.2609
49176SOL    HW259253   4.114   2.599  11.371  1.3987  0.0966  0.2396
49177SOL     OW59254   3.429   9.187   8.272  0.1428 -0.4638  0.4371
49177SOL    HW159255   3.418   9.244   8.348 -1.1733 -0.4815  0.2852
49177SOL    HW259256   3.466   9.244   8.204  2.5302 -0.7428  1.4340
49178SOL     OW59257   6.928   8.765   5.640 -0.0466  0.5341  0.0877
49178SOL    HW159258   6.936   8.687   5.694 -0.3091 -0.1849 -0.8823
49178SOL    HW259259   6.878   8.827   5.694  3.0746  1.3712  2.2445
49179SOL     OW59260   4.379   1.154   1.593 -0.8227 -0.3073  0.0616
49179SOL    HW159261   4.336   1.121   1.672 -0.8670 -1.9638 -0.6341
49179SOL    HW259262   4.469   1.122   1.599 -0.8539 -0.5269 -0.6175
49180SOL     OW59263   4.377   5.495   6.026 -0.4301 -0.2319  0.3347
49180SOL    HW159264   4.377   5.401   6.048  1.8470 -0.5226 -0.6601
49180SOL    HW259265   4.366   5.497   5.931 -0.8644  0.5672  0.3945
49181SOL     OW59266   9.145  10.024   8.619 -0.1509  0.0377 -0.2077
49181SOL    HW159267   9.117  10.055   8.705  1.3853 -1.3764  0.8705
49181SOL    HW259268   9.208  10.089   8.589 -0.8265  0.6292 -0.3658
49182SOL     OW59269  11.763  11.839   5.767  0.1495 -0.0155  0.6794
49182SOL    HW159270  11.739  11.760   5.718 -0.3573  0.1600  0.6373
49182SOL    HW259271  11.856  11.853   5.747  0.6418 -1.4128  1.8217
49183SOL     OW59272   2.410   5.960   0.248 -0.1739 -0.1201  0.3438
49183SOL    HW159273   2.460   6.008   0.182  0.1398 -0.4996  0.2993
49183SOL    HW259274   2.329   5.935   0.204  0.4890 -1.2953 -0.2470
49184SOL     OW59275   0.674   5.977  10.571  0.2319  0.3290 -0.1363
49184SOL    HW159276   0.672   6.038  10.645 -3.0160 -0.5051  0.6305
49184SOL    HW259277   0.660   5.891  10.612 -1.0490 -0.2188 -1.6464
49185SOL     OW59278   4.680   8.323   7.926 -0.3123  0.5797 -0.4015
49185SOL    HW159279   4.589   8.293   7.925  0.0654 -0.8104  0.9945
49185SOL    HW259280   4.684   8.384   8.000  0.1686 -0.5214  0.5188
49186SOL     OW59281   6.531   3.576   0.326  0.5709 -0.8146  0.0425
49186SOL    HW159282   6.618   3.555   0.360  1.3191  1.0192 -0.6007
49186SOL    HW259283   6.531   3.672   0.317 -1.4286 -0.7944 -0.2248
49187SOL     OW59284   6.958   5.784   1.861  0.4292 -0.3853 -0.2078
49187SOL    HW159285   6.918   5.796   1.775 -1.2711 -1.6629  0.3266
49187SOL    HW259286   6.910   5.843   1.918 -0.5348 -1.6678  0.3742
49188SOL     OW59287   7.420   8.663   8.195 -0.2688 -0.2308 -0.2765
49188SOL    HW159288   7.446   8.600   8.128  1.2793  1.9728 -1.9212
49188SOL    HW259289   7.354   8.717   8.153 -0.8520 -0.1162  0.7508
49189SOL     OW59290   8.420   2.949   4.902  0.2493 -0.1031 -0.2579
49189SOL    HW159291   8.377   2.946   4.816 -1.9076 -1.7355  0.7772
49189SOL    HW259292   8.456   2.861   4.914 -0.5179 -0.2715  0.9765
49190SOL     OW59293   4.555   7.518   3.572  0.2616  0.3735 -0.1739
49190SOL    HW159294   4.550   7.470   3.655  0.5636  0.1270 -0.2934
49190SOL    HW259295   4.499   7.594   3.585  1.2817  1.0063  0.7144
49191SOL     OW59296   4.744   9.683   2.135 -0.1616  0.5629  0.5107
49191SOL    HW159297   4.737   9.635   2.052  1.2134  1.1779  0.0179
49191SOL    HW259298   4.658   9.670   2.176 -0.6142 -0.3950 -0.6441
49192SOL     OW59299   1.125   5.633   0.143  0.1087  0.2470 -0.1796
49192SOL    HW159300   1.098   5.542   0.130  0.1640  0.3115 -0.7780
49192SOL    HW259301   1.052   5.685   0.110  0.5512  0.4166 -0.9209
49193SOL     OW59302   4.752   4.734   7.662  0.2289 -0.2974  0.1210
49193SOL    HW159303   4.750   4.724   7.567  0.3007 -2.1851  0.2618
49193SOL    HW259304   4.804   4.812   7.678  0.0517  0.1520 -1.3907
49194SOL     OW59305  11.595   3.491   7.020  0.3138 -0.3177 -0.0097
49194SOL    HW159306  11.646   3.416   7.050  1.2720  0.4494  0.3306
49194SOL    HW259307  11.658   3.547   6.975 -0.5203 -0.0182 -0.8298
49195SOL     OW59308   5.757   8.113   7.978 -0.0460  0.2037  0.8027
49195SOL    HW159309   5.822   8.051   7.946 -0.5959 -0.3023  0.6566
49195SOL    HW259310   5.734   8.165   7.902 -1.5512 -1.1731  0.2674
49196SOL     OW59311   7.068   5.876   8.420 -0.1778  0.2155  0.0659
49196SOL    HW159312   7.062   5.807   8.354 -0.9315  0.3247  0.0107
49196SOL    HW259313   7.056   5.957   8.371 -0.9423  0.2844  0.3556
49197SOL     OW59314   1.412   6.243   9.829 -0.8161 -0.5314  0.1370
49197SOL    HW159315   1.393   6.149   9.831  0.0019 -0.6941  0.3394
49197SOL    HW259316   1.460   6.260   9.910 -1.3997  0.1614  0.3457
49198SOL     OW59317   3.591   3.992   6.673 -0.1276  0.6195  0.4542
49198SOL    HW159318   3.577   3.948   6.757 -1.7075  0.2859  0.0474
49198SOL    HW259319   3.593   3.921   6.609  0.8222  0.8925  0.1752
49199SOL     OW59320   4.661   1.506   6.223  0.2385  0.0986 -0.1579
49199SOL    HW159321   4.608   1.432   6.254  1.6006 -0.6457  0.4821
49199SOL    HW259322   4.751   1.475   6.228  0.7376  1.1653 -1.6842
49200SOL     OW59323   8.033   6.487   6.243  0.0245  0.2592  0.1009
49200SOL    HW159324   8.102   6.423   6.228  0.4927  0.8143 -0.1209
49200SOL    HW259325   8.020   6.530   6.159  0.4363  1.1696  0.4891
49201SOL     OW59326   6.111   6.202   6.250  0.2132  0.1130  0.0278
49201SOL    HW159327   6.161   6.125   6.279 -0.2887 -0.3296 -0.2686
49201SOL    HW259328   6.078   6.240   6.331  1.4374  0.7039  0.2776
49202SOL     OW59329   6.543   8.875  10.798 -0.1293  0.2425 -0.3808
49202SOL    HW159330   6.524   8.947  10.858 -0.2922  0.4683 -0.7038
49202SOL    HW259331   6.469   8.873  10.738  0.2506  0.3056 -0.8581
49203SOL     OW59332   4.474   0.284  11.541 -0.2074  0.6337 -0.2117
49203SOL    HW159333   4.411   0.323  11.602 -0.7721  1.4086 -1.2752
49203SOL    HW259334   4.541   0.246  11.598 -1.2959  0.3567  0.9195
49204SOL     OW59335   4.305   6.094  10.628 -0.0945 -0.6456  0.3583
49204SOL    HW159336   4.278   6.034  10.698  2.0897 -0.6863  1.2443
49204SOL    HW259337   4.290   6.045  10.547 -2.0413 -0.8493  0.7921
49205SOL     OW59338   7.359   4.346   2.276 -0.4836  0.0131 -0.0344
49205SOL    HW159339   7.273   4.304   2.279  0.0170 -1.1473 -1.0547
49205SOL    HW259340   7.376   4.372   2.366 -1.6463 -0.2769  0.2868
49206SOL     OW59341  10.384   1.591  10.059  0.2624  0.3473  0.3599
49206SOL    HW159342  10.298   1.633  10.057  0.0085 -0.1527 -1.7486
49206SOL    HW259343  10.374   1.514  10.003  2.6451  1.5705 -1.9757
49207SOL     OW59344   4.620  11.446   0.984 -0.0108 -0.1392  0.5041
49207SOL    HW159345   4.542  11.500   0.997  0.1001  0.0374  0.4454
49207SOL    HW259346   4.646  11.464   0.893  1.3332  1.4479  1.1489
49208SOL     OW59347  11.090  10.685   5.284  0.5024  0.3093  0.0250
49208SOL    HW159348  11.069  10.614   5.344 -0.1454  1.8925  1.7757
49208SOL    HW259349  11.164  10.730   5.325  1.8903 -0.1715 -1.8054
49209SOL     OW59350   6.232   3.951   0.175 -0.0387 -0.2347  0.6595
49209SOL    HW159351   6.218   3.879   0.236  0.9027  0.3519  1.5926
49209SOL    HW259352   6.171   3.934   0.103  0.5157 -2.2280  0.6102
49210SOL     OW59353   1.878  11.127   4.678  0.2115 -0.1556 -0.1190
49210SOL    HW159354   1.927  11.046   4.687 -1.3616 -1.1986 -0.5114
49210SOL    HW259355   1.831  11.135   4.761 -0.5744 -0.3032 -0.5420
49211SOL     OW59356   2.204   7.187   7.060  0.0309 -0.0526  0.6226
49211SOL    HW159357   2.265   7.157   7.127  1.2521  0.6595 -0.1315
49211SOL    HW259358   2.195   7.113   7.000  2.6108  0.7490 -0.9340
49212SOL     OW59359   0.307   4.676  10.101 -0.2546  0.5396  0.3126
49212SOL    HW159360   0.262   4.712  10.025 -1.5494  0.1015  0.8332
49212SOL    HW259361   0.261   4.594  10.120  0.4319  0.3375  1.1955
49213SOL     OW59362   1.781   8.626   2.401  0.1982  0.2813  0.3309
49213SOL    HW159363   1.845   8.695   2.421  0.3872  0.1309  0.2515
49213SOL    HW259364   1.773   8.577   2.483 -1.7014  1.7960  1.1195
49214SOL     OW59365  11.485   6.574   8.214 -0.0707 -0.5623  0.6298
49214SOL    HW159366  11.518   6.655   8.176 -1.1160  0.2261  1.3547
49214SOL    HW259367  11.563   6.521   8.228  0.6244  0.2873  0.0991
49215SOL     OW59368   5.537   4.272  11.401  0.0495 -0.0706  0.0358
49215SOL    HW159369   5.465   4.240  11.347 -0.7835  1.5817  0.1128
49215SOL    HW259370   5.505   4.269  11.491 -0.8387  2.7380 -0.0977
49216SOL     OW59371   8.236   5.486   4.645  0.7120  0.1773 -0.2658
49216SOL    HW159372   8.159   5.498   4.589 -0.4387  2.3954  1.6163
49216SOL    HW259373   8.221   5.402   4.688 -0.3601  0.2825 -0.4068
49217SOL     OW59374   4.869  11.128   8.230  0.4628  0.3485  0.1331
49217SOL    HW159375   4.922  11.048   8.226  2.1589  1.4743 -0.7663
49217SOL    HW259376   4.842  11.144   8.140 -0.8812  0.1841  0.4805
49218SOL     OW59377   7.362   8.519   3.360  0.3037 -0.7285 -0.6950
49218SOL    HW159378   7.360   8.438   3.411  0.0165  0.2271  0.8782
49218SOL    HW259379   7.453   8.548   3.364  0.3916 -0.9118 -1.2009
49219SOL     OW59380   2.586   2.499   6.877 -0.0992 -0.2446 -0.6512
49219SOL    HW159381   2.634   2.431   6.925  0.3835  0.3482 -0.2625
49219SOL    HW259382   2.614   2.489   6.786 -2.0618 -2.2651 -1.1095
49220SOL     OW59383   2.019   0.736   0.095  0.1113 -0.6269  0.7123
49220SOL    HW159384   2.091   0.732   0.158  0.9866  2.9069  0.1328
49220SOL    HW259385   1.940   0.730   0.149  0.8392  2.2578  2.3171
49221SOL     OW59386  11.465   4.646   6.752 -0.7122 -0.0276  0.2054
49221SOL    HW159387  11.455   4.687   6.838  0.9689 -1.4640  1.1314
49221SOL    HW259388  11.382   4.600   6.738 -0.7943 -0.2560  1.3289
49222SOL     OW59389   0.256   3.924  10.170  0.2862 -0.2589 -0.3061
49222SOL    HW159390   0.208   3.862  10.115 -0.1551 -1.6783  1.6014
49222SOL    HW259391   0.217   3.916  10.256  1.6793  1.1039  0.5137
49223SOL     OW59392   7.707  11.368   3.925  0.0054 -0.2988 -0.3714
49223SOL    HW159393   7.767  11.345   3.996 -1.5673 -1.6446  0.5942
49223SOL    HW259394   7.698  11.463   3.930  3.0489  0.1621 -1.4365
49224SOL     OW59395   8.609   0.880   4.610  0.0455  0.0533  0.0148
49224SOL    HW159396   8.626   0.786   4.611 -0.8387 -0.1478  2.1458
49224SOL    HW259397   8.593   0.901   4.518 -2.0255 -2.3342 -0.2676
49225SOL     OW59398   0.064  11.176  10.079  0.0185 -0.0199  0.0392
49225SOL    HW159399   0.012  11.170  10.159 -1.1844 -0.7013 -0.7700
49225SOL    HW259400   0.130  11.243  10.099 -0.1380 -0.2882  1.6477
49226SOL     OW59401   7.480   6.426  11.170 -0.1693 -0.0984  0.3256
49226SOL    HW159402   7.461   6.488  11.099 -0.5942 -0.2764  0.2847
49226SOL    HW259403   7.396   6.415  11.215  0.0575 -0.1268  0.7467
49227SOL     OW59404  11.786   1.424  10.635  0.1852 -0.0396  0.8492
49227SOL    HW159405  11.852   1.399  10.700  0.7727  1.8208  1.0327
49227SOL    HW259406  11.768   1.516  10.653 -1.4639 -0.1377 -0.0865
49228SOL     OW59407   6.834   7.974   1.993  0.2884 -0.2104  0.1262
49228SOL    HW159408   6.886   7.967   2.074  0.6910  2.3287  0.1886
49228SOL    HW259409   6.763   8.034   2.016 -0.0238 -0.0488 -1.2173
49229SOL     OW59410   4.080   9.524   9.621 -0.0983 -0.4591  0.2384
49229SOL    HW159411   4.102   9.454   9.683  1.2132  1.1738  1.6943
49229SOL    HW259412   4.138   9.507   9.546 -0.7932 -1.7002 -0.0566
49230SOL     OW59413   0.285  11.638   4.975 -0.4909 -0.3267  0.3351
49230SOL    HW159414   0.210  11.687   5.008  0.7519  1.0485  1.2266
49230SOL    HW259415   0.348  11.640   5.047  2.0810  2.2194 -1.7688
49231SOL     OW59416   7.539  10.433   9.183 -0.4616 -0.4114  0.1215
49231SOL    HW159417   7.454  10.470   9.159 -2.4176 -2.6568  2.8866
49231SOL    HW259418   7.562  10.476   9.265 -0.4416 -1.8696  0.9151
49232SOL     OW59419   5.128   9.870  10.985  1.0626  0.2169  0.5670
49232SOL    HW159420   5.169   9.878  10.899  0.1210  0.1399  0.0994
49232SOL    HW259421   5.056   9.934  10.983  1.5088  0.7664  1.5835
49233SOL     OW59422   8.783   1.896   1.300 -0.6592 -0.1559 -0.4991
49233SOL    HW159423   8.756   1.828   1.362  1.2139  0.0176  0.6016
49233SOL    HW259424   8.795   1.850   1.217  0.5339 -1.1872  0.2224
49234SOL     OW59425   1.415   2.454   6.254 -0.2517 -0.2125  0.6953
49234SOL    HW159426   1.405   2.510   6.177  1.1125 -2.0954 -0.9504
49234SOL    HW259427   1.326   2.422   6.271 -0.5162 -0.1377 -0.4157
49235SOL     OW59428  10.182  10.723   9.434 -0.3038  0.1056  0.0273
49235SOL    HW159429  10.238  10.678   9.370 -0.2521  0.0354  0.1210
49235SOL    HW259430  10.191  10.671   9.514  1.9178  1.7525  0.9757
49236SOL     OW59431  10.957   0.513   4.827  0.0356  0.3027 -0.0572
49236SOL    HW159432  11.008   0.434   4.811 -2.5358 -1.2532 -1.4455
49236SOL    HW259433  10.948   0.554   4.740 -2.1588 -0.2820 -0.1772
49237SOL     OW59434   2.247   8.978   6.032  0.1573 -0.1417 -0.3543
49237SOL    HW159435   2.278   8.986   5.942  2.9423 -0.0239  0.5253
49237SOL    HW259436   2.326   8.968   6.084 -1.2455  1.1962  2.2506
49238SOL     OW59437   6.961   8.828   4.290  0.2541 -0.1871 -0.1039
49238SOL    HW159438   7.018   8.751   4.299  0.1961 -0.1046  1.2388
49238SOL    HW259439   6.994   8.874   4.213  0.8308 -1.1089 -0.4261
49239SOL     OW59440   2.418   2.811   2.315 -0.1550 -0.0809 -0.3145
49239SOL    HW159441   2.391   2.783   2.402 -1.4282  1.6254 -0.1110
49239SOL    HW259442   2.435   2.730   2.268  0.9277 -1.0267  1.6116
49240SOL     OW59443  11.295   7.539   6.423 -0.2923  0.2743 -0.2444
49240SOL    HW159444  11.250   7.480   6.484 -2.3644  0.2874 -1.6514
49240SOL    HW259445  11.285   7.626   6.462  1.9309 -0.1213  1.3521
49241SOL     OW59446   5.509  10.590   7.367  0.0618  0.5614 -0.1052
49241SOL    HW159447   5.538  10.537   7.292 -1.1047 -1.1199  0.5576
49241SOL    HW259448   5.492  10.676   7.329 -0.3788 -0.2048 -1.7840
49242SOL     OW59449   0.031   4.700   6.029 -0.5192  0.0007  0.1536
49242SOL    HW159450   0.058   4.668   6.115 -0.3063  0.8837  0.4332
49242SOL    HW259451  -0.064   4.696   6.030 -0.5441  0.5425  0.6605
49243SOL     OW59452   0.581   5.625  11.380 -0.1141 -0.2569  0.2532
49243SOL    HW159453   0.548   5.676  11.306 -1.5613  0.0093  1.0304
49243SOL    HW259454   0.636   5.686  11.428 -1.4680  0.4826  0.9268
49244SOL     OW59455   0.058   8.622   6.303  0.5476 -0.3034 -0.7502
49244SOL    HW159456  -0.007   8.588   6.364  1.5826  1.4400  1.4522
49244SOL    HW259457   0.008   8.674   6.240 -0.2515  1.1410  1.0036
49245SOL     OW59458   7.044   9.447   3.067  0.0152 -0.0843 -0.4004
49245SOL    HW159459   7.101   9.449   3.143 -1.2300 -0.8718  0.5898
49245SOL    HW259460   7.019   9.538   3.053 -2.2827 -0.2066  2.1602
49246SOL     OW59461   6.305   9.897   7.101 -0.3595  0.2041 -0.0145
49246SOL    HW159462   6.216   9.910   7.135 -0.4812  1.6901 -0.8290
49246SOL    HW259463   6.349   9.980   7.119  0.2176  0.2459 -1.5125
49247SOL     OW59464   9.276  11.148   0.617 -0.5341  0.7261 -0.3129
49247SOL    HW159465   9.183  11.137   0.600 -0.4100  1.7617 -1.9625
49247SOL    HW259466   9.282  11.170   0.710 -1.9255  0.7301 -0.2066
49248SOL     OW59467  10.474  11.296   4.173 -0.4238  0.0611  0.0133
49248SOL    HW159468  10.515  11.307   4.259  0.3866  2.7925 -0.6257
49248SOL    HW259469  10.542  11.258   4.118 -1.1333 -2.2771  0.6459
49249SOL     OW59470   6.256  11.900   4.514  0.0627  0.3267 -1.1780
49249SOL    HW159471   6.292  11.977   4.558 -1.8327  0.9268 -0.5409
49249SOL    HW259472   6.216  11.848   4.584  1.4432 -1.3694 -1.5735
49250SOL     OW59473  11.286   4.896   2.885  0.0255 -0.0757 -0.7474
49250SOL    HW159474  11.213   4.936   2.838 -0.4935  0.9827  0.9028
49250SOL    HW259475  11.314   4.963   2.948  1.4411 -1.0244 -0.3173
49251SOL     OW59476  11.460   0.675   3.028  0.2176  0.4526 -0.4962
49251SOL    HW159477  11.380   0.676   3.080 -1.1884  2.3720 -2.4850
49251SOL    HW259478  11.438   0.623   2.950  1.5402 -0.5406 -0.2414
49252SOL     OW59479   6.170   6.904   0.736  0.3407  0.5327  0.0579
49252SOL    HW159480   6.230   6.978   0.737  1.5245 -0.3773  1.3202
49252SOL    HW259481   6.221   6.832   0.774 -1.4180 -0.3830  0.7920
49253SOL     OW59482   4.987  10.825   2.262  0.0051 -0.3878  0.4286
49253SOL    HW159483   5.020  10.888   2.198  0.4082  1.5215  2.3888
49253SOL    HW259484   4.923  10.773   2.213  0.5847  0.6862 -1.6085
49254SOL     OW59485  10.194  10.230   0.580 -0.3659  0.0313  0.4755
49254SOL    HW159486  10.107  10.196   0.559  0.5364 -1.2460 -1.4753
49254SOL    HW259487  10.181  10.324   0.591 -2.2605 -0.3463  1.9820
49255SOL     OW59488   4.914   1.681  10.761  0.1339  0.3568 -0.1992
49255SOL    HW159489   4.881   1.769  10.747 -0.8632 -0.1522 -1.2028
49255SOL    HW259490   4.837   1.625  10.757  0.8879 -0.6847 -0.8375
49256SOL     OW59491   6.481   1.676  11.040 -0.2680  0.2910 -0.1869
49256SOL    HW159492   6.512   1.697  11.128 -1.0315  0.5730  0.0217
49256SOL    HW259493   6.501   1.754  10.988  0.9368 -0.1907 -0.4696
49257SOL     OW59494   5.654   3.083   1.537  0.3484  0.0808 -0.1388
49257SOL    HW159495   5.703   3.159   1.569  0.2974  0.5268 -1.0761
49257SOL    HW259496   5.714   3.041   1.475  0.7274 -1.1913  1.0428
49258SOL     OW59497   1.662   3.351   8.026 -0.0761 -0.3472 -0.1859
49258SOL    HW159498   1.660   3.287   8.098  2.0218 -0.8565 -0.5110
49258SOL    HW259499   1.746   3.396   8.038 -0.4716  0.7276 -1.3483
49259SOL     OW59500   7.849   4.386   7.446  0.0824 -0.1533  0.1715
49259SOL    HW159501   7.815   4.475   7.454 -0.3439 -0.3874  1.0809
49259SOL    HW259502   7.902   4.373   7.525  1.4016 -0.1928 -0.6749
49260SOL     OW59503   3.237  11.551   8.881  0.1278 -0.6689 -0.3965
49260SOL    HW159504   3.146  11.565   8.904  0.5393  2.0684 -0.1777
49260SOL    HW259505   3.247  11.455   8.882 -2.4787 -1.0129  0.4089
49261SOL     OW59506  10.257   0.322   5.666 -0.1253 -0.1675 -0.2773
49261SOL    HW159507  10.281   0.285   5.580  1.3379 -1.3612  0.5915
49261SOL    HW259508  10.317   0.280   5.727 -1.8931 -0.2221  1.5160
49262SOL     OW59509   2.459   4.226   4.275 -0.3395  0.3748  0.5232
49262SOL    HW159510   2.479   4.238   4.368  0.3248  0.8773  0.3206
49262SOL    HW259511   2.542   4.203   4.235 -0.4917  0.7985 -0.0541
49263SOL     OW59512   7.393   3.087   8.484 -0.3964  0.1370  0.2131
49263SOL    HW159513   7.369   3.014   8.427 -0.6667  0.6840 -0.3859
49263SOL    HW259514   7.407   3.046   8.569  2.0662 -1.0339 -0.6507
49264SOL     OW59515   8.314   3.465   4.222 -0.3493  0.4155 -0.1338
49264SOL    HW159516   8.236   3.433   4.176 -0.2518  0.4600 -0.3303
49264SOL    HW259517   8.387   3.432   4.170 -0.2422  0.6593 -0.1398
49265SOL     OW59518   9.914   8.397   8.891  0.2661 -0.2445  0.8184
49265SOL    HW159519   9.986   8.365   8.946  1.3659 -0.4281 -0.6582
49265SOL    HW259520   9.939   8.370   8.802 -0.0516  2.4292 -0.1771
49266SOL     OW59521   0.910   0.834  10.493 -0.2796 -0.2554  0.2623
49266SOL    HW159522   0.846   0.772  10.526 -0.8273  0.0709 -0.1679
49266SOL    HW259523   0.932   0.889  10.569 -1.5655  0.5218  0.1117
49267SOL     OW59524   7.426   6.205   0.978 -0.1356 -0.2327 -0.1622
49267SOL    HW159525   7.426   6.109   0.981 -0.3677 -0.2109  1.5321
49267SOL    HW259526   7.502   6.231   1.030 -0.0627  0.5071 -0.6229
49268SOL     OW59527  11.571   4.109   4.771  0.0607 -0.2426 -0.2522
49268SOL    HW159528  11.625   4.042   4.729  1.1598  0.2329  0.3633
49268SOL    HW259529  11.539   4.162   4.698  0.8152 -0.2507 -0.6044
49269SOL     OW59530   6.438   5.798  11.409  0.0225  0.3790  0.0740
49269SOL    HW159531   6.352   5.834  11.388 -0.1465 -0.9262 -1.7044
49269SOL    HW259532   6.455   5.827  11.498 -2.0206  1.1140  0.2781
49270SOL     OW59533   8.909   6.593   9.153 -0.3884  0.5697  0.1414
49270SOL    HW159534   8.986   6.648   9.141  0.4591 -0.4828  0.6473
49270SOL    HW259535   8.840   6.638   9.104  0.5612  1.4727 -0.4111
49271SOL     OW59536   4.409  10.828   4.484 -0.3157  0.0115  0.0876
49271SOL    HW159537   4.330  10.820   4.431  0.9210  1.1829 -2.0841
49271SOL    HW259538   4.460  10.750   4.462 -0.6385 -0.5388  1.1822
49272SOL     OW59539   6.003  10.336   6.205 -0.6758  0.6666  0.1732
49272SOL    HW159540   6.043  10.421   6.186 -0.0734  0.3348 -0.0722
49272SOL    HW259541   5.923  10.335   6.153  0.2674  0.3301 -1.3139
49273SOL     OW59542   3.592   2.008   4.827 -0.0619  0.5011  0.5670
49273SOL    HW159543   3.551   1.978   4.908  0.0098  1.9585  1.1700
49273SOL    HW259544   3.584   1.934   4.767 -0.4642 -0.4656  1.7753
49274SOL     OW59545   9.717   3.685   1.531 -0.2158  0.5352  0.1064
49274SOL    HW159546   9.685   3.755   1.475 -3.2335 -1.0115 -0.3245
49274SOL    HW259547   9.755   3.621   1.471  1.7377  1.3193  0.4254
49275SOL     OW59548   3.433   5.975   8.351 -0.2626 -0.3460 -0.3857
49275SOL    HW159549   3.510   5.930   8.315  0.2626 -0.0303  0.3287
49275SOL    HW259550   3.399   5.915   8.417  1.6142  1.0600  2.0250
49276SOL     OW59551   5.419  11.644   1.440  0.3873  0.1514 -0.0539
49276SOL    HW159552   5.514  11.636   1.440  0.2594 -2.0958  1.0840
49276SOL    HW259553   5.390  11.578   1.376 -0.4270  0.1457  0.3167
49277SOL     OW59554   4.545  11.090  11.033  0.0958 -0.3502  0.0425
49277SOL    HW159555   4.573  11.156  11.097 -0.9747  1.5794 -1.3710
49277SOL    HW259556   4.473  11.131  10.986  0.1902 -2.0758 -1.7519
49278SOL     OW59557   2.274   8.914   2.510 -0.1349 -0.4427 -0.5965
49278SOL    HW159558   2.261   9.009   2.499 -1.0119 -0.2461  1.7097
49278SOL    HW259559   2.366   8.905   2.533 -0.2854 -0.0220  0.1983
49279SOL     OW59560   4.954   7.389   7.922 -0.6442  0.1214 -0.3188
49279SOL    HW159561   5.015   7.355   7.987 -1.2389 -0.7772 -0.2236
49279SOL    HW259562   4.869   7.390   7.966 -1.2557 -1.4946 -1.3783
49280SOL     OW59563   9.911   8.093   8.807  0.0717  0.0860  0.2758
49280SOL    HW159564   9.822   8.071   8.834 -0.3879  1.1209 -0.2933
49280SOL    HW259565   9.957   8.114   8.888 -1.0464  2.3466  0.4158
49281SOL     OW59566   0.523   5.695  11.004 -0.5911 -0.2271  0.0276
49281SOL    HW159567   0.477   5.653  11.077 -1.2878  0.7192  0.1592
49281SOL    HW259568   0.506   5.638  10.929 -1.3704 -0.2944  0.2396
49282SOL     OW59569   4.126   6.905   5.130  0.7188 -0.6567  0.3164
49282SOL    HW159570   4.204   6.857   5.101 -0.1766 -1.4483 -0.8931
49282SOL    HW259571   4.159   6.989   5.162  1.9835 -0.5445 -1.1824
49283SOL     OW59572  10.922   0.370   0.815  0.0287 -0.2370 -0.2001
49283SOL    HW159573  11.000   0.424   0.801  0.4710 -0.4987  1.1255
49283SOL    HW259574  10.861   0.398   0.747  0.9435  0.6124 -0.6942
49284SOL     OW59575  11.873   2.857   2.556 -0.1199  0.4827  0.2582
49284SOL    HW159576  11.913   2.905   2.628 -0.0160  0.2490  0.3569
49284SOL    HW259577  11.844   2.774   2.595  1.7195 -0.5115 -0.3761
49285SOL     OW59578   9.721   6.258   5.159 -0.0800  0.9087  0.9960
49285SOL    HW159579   9.634   6.238   5.124  0.8081 -2.1022  0.2133
49285SOL    HW259580   9.747   6.338   5.113 -1.6477  0.7549 -0.2543
49286SOL     OW59581   6.996  11.189   5.537 -0.0700  0.0927  0.3948
49286SOL    HW159582   6.997  11.257   5.469 -0.6244 -0.8979 -0.6414
49286SOL    HW259583   6.903  11.171   5.550 -0.0054  0.6467  1.8435
49287SOL     OW59584   3.178   1.960   5.222 -0.2715  0.4483  0.1649
49287SOL    HW159585   3.143   2.045   5.250  2.1769  1.4250  0.5254
49287SOL    HW259586   3.210   1.920   5.302 -1.6673 -1.0096  0.0411
49288SOL     OW59587   5.759   6.230   5.214 -0.5894  0.0058 -0.2322
49288SOL    HW159588   5.698   6.179   5.268  0.8748  0.5644  2.0815
49288SOL    HW259589   5.828   6.167   5.191 -1.0466 -0.1482 -1.2252
49289SOL     OW59590  10.073  10.264   5.569  0.4101  0.2016  0.1357
49289SOL    HW159591   9.981  10.259   5.542  0.0443  0.0491  1.3595
49289SOL    HW259592  10.108  10.338   5.520 -0.0648 -0.3909 -1.1718
49290SOL     OW59593   1.259   3.492   0.099 -0.0644 -0.2316  0.0082
49290SOL    HW159594   1.338   3.542   0.081 -0.3289  0.2765  0.2512
49290SOL    HW259595   1.266   3.465   0.190 -0.3250  0.0924  0.1251
49291SOL     OW59596   5.978   9.109  10.522  0.4117  0.4512 -0.1907
49291SOL    HW159597   6.040   9.103  10.450 -0.2817 -2.0790 -0.6736
49291SOL    HW259598   5.892   9.107  10.480 -0.1120  3.9287  0.4579
49292SOL     OW59599   7.918   1.740  11.337  0.3598  0.5409 -0.2610
49292SOL    HW159600   7.898   1.828  11.367 -3.4011 -0.0154 -0.6606
49292SOL    HW259601   7.836   1.691  11.349  2.5638 -3.2659  1.0623
49293SOL     OW59602  11.149  11.379   2.414  0.4282 -0.8589 -0.3408
49293SOL    HW159603  11.239  11.379   2.381  0.1258 -1.4819 -1.2160
49293SOL    HW259604  11.155  11.336   2.499  1.1256  0.1690  0.1590
49294SOL     OW59605   1.649   0.169   6.514  0.2643 -0.3001 -0.0496
49294SOL    HW159606   1.593   0.234   6.555  0.1338 -1.2614  1.3713
49294SOL    HW259607   1.737   0.207   6.519  0.2350 -0.3380  1.0537
49295SOL     OW59608   5.433  11.331   2.159  0.1772 -0.5121 -0.0765
49295SOL    HW159609   5.507  11.271   2.169  0.5191 -0.0914 -0.0636
49295SOL    HW259610   5.456  11.408   2.211  0.1774  0.0302 -0.8533
49296SOL     OW59611   4.862   9.363   6.762  0.1740 -0.2705 -0.1844
49296SOL    HW159612   4.874   9.417   6.684  0.1576  1.2487  0.8385
49296SOL    HW259613   4.952   9.344   6.791  0.2053 -1.6589 -1.0800
49297SOL     OW59614   2.691   0.456   1.442  0.0317 -0.0464  0.0091
49297SOL    HW159615   2.738   0.409   1.512 -0.2834 -0.7592 -0.2415
49297SOL    HW259616   2.752   0.455   1.368  0.3537  0.6825  0.2617
49298SOL     OW59617   4.610   2.532   1.117 -0.7843 -0.2540 -0.1585
49298SOL    HW159618   4.652   2.447   1.134 -0.5560 -0.1332 -0.1077
49298SOL    HW259619   4.632   2.552   1.026 -1.4036 -0.5642 -0.3770
49299SOL     OW59620   9.411   3.667   1.604  0.6103 -0.4045  0.7427
49299SOL    HW159621   9.418   3.577   1.572  0.2947 -0.0330 -0.4399
49299SOL    HW259622   9.499   3.702   1.594  1.0407 -0.9450  2.4118
49300SOL     OW59623   2.342   7.757   9.298  0.4016 -0.5666 -0.5606
49300SOL    HW159624   2.436   7.750   9.318  0.4811  0.6983 -0.4278
49300SOL    HW259625   2.332   7.710   9.216  1.0652 -1.1107 -0.3447
49301SOL     OW59626   7.081  10.351   4.180  0.8033 -0.3882 -0.2977
49301SOL    HW159627   6.990  10.320   4.170  0.3000  0.5991  0.9667
49301SOL    HW259628   7.087  10.427   4.123  0.3797  0.3999  0.6776
49302SOL     OW59629   4.789   8.356   5.829  0.5075 -0.5028 -0.1382
49302SOL    HW159630   4.833   8.352   5.913 -2.5428  4.2404  2.1450
49302SOL    HW259631   4.704   8.314   5.843 -1.3667  3.0676  0.5432
49303SOL     OW59632   8.682   4.062   2.932 -0.0438 -0.3601 -0.0344
49303SOL    HW159633   8.660   4.115   3.008  1.8638 -2.3063  2.0343
49303SOL    HW259634   8.598   4.035   2.896 -1.1368 -1.3688  2.9431
49304SOL     OW59635   2.716   4.168   3.494 -0.0528 -0.0140  0.0392
49304SOL    HW159636   2.630   4.130   3.477  0.1423 -0.2879 -0.3718
49304SOL    HW259637   2.699   4.244   3.549 -0.6378  0.3564 -0.6301
49305SOL     OW59638   2.265   1.168   2.535  0.1502  0.0893  0.5098
49305SOL    HW159639   2.321   1.240   2.565  0.8877 -0.5058  0.6106
49305SOL    HW259640   2.177   1.192   2.565  0.7088 -0.0863  2.4608
49306SOL     OW59641   0.576   9.288   3.558 -0.3482  0.3222  0.0193
49306SOL    HW159642   0.564   9.251   3.470  0.6511 -0.8204  0.3264
49306SOL    HW259643   0.559   9.214   3.617  1.9811  0.2003  0.6546
49307SOL     OW59644   1.279   5.941  10.886 -0.2636 -0.3783 -0.2932
49307SOL    HW159645   1.186   5.922  10.880 -0.0515 -1.6586  0.2672
49307SOL    HW259646   1.287   6.001  10.961 -0.5722 -0.7451  0.0368
49308SOL     OW59647   4.356   6.801   1.742 -0.3426 -0.4581  0.3438
49308SOL    HW159648   4.398   6.745   1.808  0.5994 -1.3856 -0.9766
49308SOL    HW259649   4.409   6.788   1.663 -1.5367  0.4738 -0.6499
49309SOL     OW59650   3.843   9.504   2.949  0.2359 -0.4727  0.1299
49309SOL    HW159651   3.832   9.595   2.977 -2.1570  0.0085 -1.9963
49309SOL    HW259652   3.841   9.508   2.854 -1.7540 -2.8761 -0.0368
49310SOL     OW59653   1.361   3.819   4.913 -0.7431 -0.5594 -0.4394
49310SOL    HW159654   1.432   3.863   4.866 -0.0838 -0.7689  0.3485
49310SOL    HW259655   1.379   3.726   4.901  0.6282 -0.6747  1.9079
49311SOL     OW59656   3.149   0.981   1.707  0.0532  0.4479  0.3705
49311SOL    HW159657   3.221   1.024   1.753  1.7625 -0.3880 -1.3582
49311SOL    HW259658   3.190   0.939   1.631 -2.1164 -0.9254 -0.1601
49312SOL     OW59659  10.376   2.229   8.302 -0.1578  0.3918  0.1823
49312SOL    HW159660  10.408   2.161   8.243  0.3973  0.4203  0.4427
49312SOL    HW259661  10.375   2.308   8.248  0.0602  0.3561  0.1233
49313SOL     OW59662   1.910   2.865  11.508 -0.7401 -0.0295 -0.3640
49313SOL    HW159663   1.937   2.947  11.468 -0.4512  0.1467  0.1949
49313SOL    HW259664   1.962   2.857  11.587 -2.4734  0.4511  0.8932
49314SOL     OW59665   0.366   2.430   8.371 -0.3446 -0.2102  0.1773
49314SOL    HW159666   0.291   2.422   8.311 -0.7134  1.5996  0.3250
49314SOL    HW259667   0.352   2.362   8.436 -1.0590 -0.8672 -0.6240
49315SOL     OW59668   5.523  11.412  10.139  0.5706  0.8083 -0.6344
49315SOL    HW159669   5.526  11.381  10.230 -2.3312  0.3144 -0.6058
49315SOL    HW259670   5.554  11.503  10.144  1.2119  0.5447  0.7118
49316SOL     OW59671   2.138   9.853   9.694  0.3592 -0.0068  0.3385
49316SOL    HW159672   2.078   9.805   9.751 -0.5588  0.5592 -0.1287
49316SOL    HW259673   2.218   9.801   9.694 -0.2605 -0.9885  0.6667
49317SOL     OW59674  11.941   3.800   5.565  0.4677 -0.2177  0.2049
49317SOL    HW159675  11.855   3.768   5.591  0.8226 -0.2037  1.4774
49317SOL    HW259676  12.002   3.756   5.625  1.4312 -0.8444 -1.1887
49318SOL     OW59677   4.694   2.586  10.997  0.5059 -0.5132  0.2173
49318SOL    HW159678   4.619   2.645  10.993  0.5243 -0.4313  0.8767
49318SOL    HW259679   4.722   2.589  11.089  1.3426 -0.5064 -0.0282
49319SOL     OW59680   2.355   8.264  11.343 -0.0473  0.4602 -0.4136
49319SOL    HW159681   2.378   8.229  11.257  0.6286  1.3732 -0.6188
49319SOL    HW259682   2.285   8.207  11.374 -1.1273  0.8263 -2.0792
49320SOL     OW59683   3.281   5.178   0.402 -0.2582  0.0029 -0.2648
49320SOL    HW159684   3.301   5.190   0.309 -1.3870  0.0589 -0.5087
49320SOL    HW259685   3.201   5.127   0.403  1.3878 -2.7714  0.7144
49321SOL     OW59686   5.595   9.064   6.053 -0.1321 -0.2160 -0.1847
49321SOL    HW159687   5.652   9.022   6.118  0.5242  0.4286 -0.3309
49321SOL    HW259688   5.512   9.017   6.060 -0.2423  0.1721  1.4914
49322SOL     OW59689   2.354   2.120   9.139 -0.1170  0.2261  0.4372
49322SOL    HW159690   2.401   2.038   9.153 -0.2345  0.3372  1.6337
49322SOL    HW259691   2.270   2.107   9.183  0.2562  1.3310  1.5236
49323SOL     OW59692   6.595   5.247   5.738  0.1432 -0.3946 -0.0074
49323SOL    HW159693   6.681   5.290   5.737 -0.6780  1.3459 -0.1008
49323SOL    HW259694   6.569   5.242   5.646 -0.3600  0.2024  0.0926
49324SOL     OW59695   6.482   9.401   0.260  0.6099 -0.4644  0.1891
49324SOL    HW159696   6.577   9.394   0.247  0.5253  1.7935 -2.5880
49324SOL    HW259697   6.473   9.452   0.341  1.8558  1.1340 -0.6287
49325SOL     OW59698   9.508   2.342   0.000 -0.3663 -0.0175 -0.3802
49325SOL    HW159699   9.533   2.429  -0.032 -0.4955  0.3279  0.4273
49325SOL    HW259700   9.525   2.346   0.094 -0.6347 -0.7809 -0.2954
49326SOL     OW59701   7.522   0.184   6.749 -0.1421 -0.0920 -0.3756
49326SOL    HW159702   7.442   0.234   6.730 -0.5527 -1.3238 -2.1121
49326SOL    HW259703   7.592   0.248   6.745 -0.8013  0.5965 -1.1847
49327SOL     OW59704   1.615   1.045   5.198 -0.3200 -0.1060  0.6243
49327SOL    HW159705   1.684   0.982   5.221  0.3496  0.2956 -0.1960
49327SOL    HW259706   1.636   1.123   5.250  0.9324  0.6453 -0.9141
49328SOL     OW59707   8.116   1.403   4.586 -0.3104  0.0727 -0.1831
49328SOL    HW159708   8.099   1.465   4.657  1.5719  0.2077  0.2160
49328SOL    HW259709   8.056   1.331   4.602 -1.5876  1.1738  0.1376
49329SOL     OW59710   8.191   5.107   4.642 -0.1164  0.2393  0.0864
49329SOL    HW159711   8.100   5.093   4.616  0.0830  0.6039 -0.8231
49329SOL    HW259712   8.243   5.054   4.581  0.2692 -0.2743  0.8406
49330SOL     OW59713   2.640  10.719   4.327 -0.2142 -0.2461  0.0913
49330SOL    HW159714   2.655  10.808   4.294  0.7555 -1.1249 -2.0042
49330SOL    HW259715   2.715  10.703   4.385  0.7239 -0.3652 -1.0977
49331SOL     OW59716   0.113   0.143  10.523 -0.0245  0.2687  0.0442
49331SOL    HW159717   0.146   0.231  10.543 -0.6118  0.7308 -0.9259
49331SOL    HW259718   0.059   0.120  10.598  4.3820 -1.6246  3.0409
49332SOL     OW59719   6.144   6.186  11.006  0.0489  0.1019  0.1589
49332SOL    HW159720   6.209   6.189  10.935  0.1073  2.7256  0.2046
49332SOL    HW259721   6.184   6.132  11.074  0.1081 -2.2705 -1.6362
49333SOL     OW59722   9.573   3.751   8.489 -0.1177  0.2919  0.1353
49333SOL    HW159723   9.501   3.702   8.448 -0.3358  0.5875  0.1663
49333SOL    HW259724   9.529   3.816   8.544  0.1626 -0.6322  1.4929
49334SOL     OW59725   1.583   0.484   0.662  0.1049  0.3703  0.3318
49334SOL    HW159726   1.591   0.480   0.758  0.7938  1.6742  0.3504
49334SOL    HW259727   1.558   0.395   0.637 -1.5697  0.3458  1.8474
49335SOL     OW59728   2.107   6.158   7.542  0.6671  0.3633  0.6157
49335SOL    HW159729   2.188   6.201   7.571  1.9618 -1.1555 -0.5228
49335SOL    HW259730   2.080   6.207   7.464  1.4687 -0.0997  0.0229
49336SOL     OW59731   4.563   5.350   0.789 -0.4034 -0.3126 -0.0950
49336SOL    HW159732   4.655   5.331   0.773 -0.0807 -0.3175  1.6354
49336SOL    HW259733   4.548   5.324   0.879 -1.3605  2.3122  0.6085
49337SOL     OW59734   4.089   8.767   3.399  0.3545  0.4020  0.1440
49337SOL    HW159735   4.113   8.694   3.456  1.0409 -0.6116 -1.3787
49337SOL    HW259736   4.173   8.806   3.373  0.0918  0.4393 -0.6791
49338SOL     OW59737   2.325   4.985   6.129  0.3937 -0.0018  0.0652
49338SOL    HW159738   2.412   4.951   6.153  0.7145  1.5196  1.2581
49338SOL    HW259739   2.273   4.907   6.111  1.7489 -0.9974  0.2607
49339SOL     OW59740   7.868   1.816   3.964 -0.3952  0.2426 -0.6338
49339SOL    HW159741   7.924   1.826   3.887 -1.1874  2.2185 -1.0274
49339SOL    HW259742   7.779   1.823   3.929 -0.8116 -0.2819  0.2958
49340SOL     OW59743   2.429   7.834   6.853 -0.3790 -0.1361  0.5173
49340SOL    HW159744   2.428   7.874   6.940 -0.5841  2.4781 -0.6018
49340SOL    HW259745   2.338   7.809   6.837 -0.7773  1.3959  0.2306
49341SOL     OW59746   9.530   9.462   6.293 -0.0200  0.2916 -0.1576
49341SOL    HW159747   9.434   9.464   6.289 -0.0139  0.1957 -0.3602
49341SOL    HW259748   9.549   9.416   6.376 -0.1599 -1.3434 -0.9832
49342SOL     OW59749   1.542  11.332   5.902  0.5074 -0.0839  0.8345
49342SOL    HW159750   1.537  11.377   5.817  0.1402 -0.7772  0.4799
49342SOL    HW259751   1.451  11.323   5.929  0.3104 -3.0923 -0.4450
49343SOL     OW59752  10.913   4.799   8.186  0.4646  0.7528  0.2606
49343SOL    HW159753  10.913   4.738   8.112 -0.6941  0.5163  0.4442
49343SOL    HW259754  11.002   4.793   8.221  0.3060 -1.0872  0.4707
49344SOL     OW59755   6.312   6.798   5.434 -0.0841  0.4284 -0.7497
49344SOL    HW159756   6.363   6.718   5.426 -1.4704 -0.5973  0.1321
49344SOL    HW259757   6.364   6.865   5.389  2.3948 -0.3362  0.8140
49345SOL     OW59758   5.303   5.360   0.205 -0.3467  0.6061 -0.2244
49345SOL    HW159759   5.375   5.344   0.144 -0.7809 -0.2146 -0.5467
49345SOL    HW259760   5.298   5.455   0.213  0.6917  0.6778 -0.2918
49346SOL     OW59761   3.483   4.286  10.035 -0.1736 -0.0316  0.0249
49346SOL    HW159762   3.559   4.338  10.062  0.8735 -0.5172 -1.7899
49346SOL    HW259763   3.435   4.270  10.116  2.0340 -0.2801  1.3790
49347SOL     OW59764   8.936   0.447   1.091 -0.4952 -0.7913 -0.1184
49347SOL    HW159765   8.913   0.539   1.079  0.2090 -0.5993 -0.0095
49347SOL    HW259766   8.988   0.425   1.014 -0.4274 -1.0217 -0.0067
49348SOL     OW59767   7.119   8.173   1.745  0.7334  0.3578 -0.4864
49348SOL    HW159768   7.033   8.195   1.778  1.1233  0.2571  0.6376
49348SOL    HW259769   7.125   8.218   1.661 -0.4785  0.1965 -0.6724
49349SOL     OW59770   2.427   5.405  11.034 -0.0250 -0.1459  0.2466
49349SOL    HW159771   2.345   5.403  10.985 -0.3626  1.6000  0.6584
49349SOL    HW259772   2.483   5.464  10.983  0.9370 -1.2063  0.0480
49350SOL     OW59773   2.967   5.953   7.841 -0.4129  0.0310 -0.0138
49350SOL    HW159774   3.004   5.872   7.878 -2.9943 -0.3093  2.1805
49350SOL    HW259775   2.986   6.019   7.908 -0.7400  0.6057 -0.4910
49351SOL     OW59776   6.318   0.467   8.563  0.2524 -0.1271 -0.1329
49351SOL    HW159777   6.358   0.436   8.481 -0.0114 -2.3126  0.5025
49351SOL    HW259778   6.239   0.415   8.572  0.3963 -0.0887  1.6208
49352SOL     OW59779   2.614   9.755   1.657  0.1381 -0.3234  0.3815
49352SOL    HW159780   2.614   9.839   1.703 -1.3175 -1.0542  1.7951
49352SOL    HW259781   2.527   9.718   1.674 -0.2070 -0.9733 -2.3895
49353SOL     OW59782  10.013   9.421   4.595  0.0648  0.0092 -0.1313
49353SOL    HW159783  10.032   9.486   4.663 -2.9162  1.3720 -0.4348
49353SOL    HW259784  10.007   9.338   4.642  0.5345  0.5100  0.8439
49354SOL     OW59785   5.024  10.966   2.028  0.1472 -0.2347  0.3098
49354SOL    HW159786   5.062  11.015   1.954 -0.7084 -1.0026 -0.6700
49354SOL    HW259787   4.960  10.908   1.988 -1.8127  0.7419  1.8844
49355SOL     OW59788   1.087   6.570   8.471  0.0059 -0.5021  0.2342
49355SOL    HW159789   0.993   6.558   8.481 -0.0494 -1.4989 -1.1492
49355SOL    HW259790   1.120   6.484   8.442  0.8614  0.5388 -2.1934
49356SOL     OW59791   9.329  11.788   6.098 -0.1993  0.9806  0.1273
49356SOL    HW159792   9.403  11.849   6.098 -0.2454  1.1324  2.4031
49356SOL    HW259793   9.296  11.792   6.188 -0.8729 -1.5886  0.0512
49357SOL     OW59794   8.944   3.911   6.416  0.0630  0.1459 -0.5415
49357SOL    HW159795   8.947   3.841   6.350 -2.4865 -0.5528 -0.0214
49357SOL    HW259796   9.034   3.916   6.449  0.1238 -4.0394  0.5248
49358SOL     OW59797   6.203   1.962  10.949 -0.2277  0.0061  0.0456
49358SOL    HW159798   6.130   1.990  11.006  1.0135  3.6475  0.1447
49358SOL    HW259799   6.181   1.999  10.864 -0.6425 -2.9115 -1.2176
49359SOL     OW59800   4.190   7.269   4.781 -0.4583 -0.2659 -0.5693
49359SOL    HW159801   4.126   7.294   4.848  0.2393  2.1891 -0.7477
49359SOL    HW259802   4.146   7.288   4.698 -1.0375 -2.6109 -0.8878
49360SOL     OW59803   4.319   6.226   5.278  0.5138 -0.4002 -0.5311
49360SOL    HW159804   4.278   6.191   5.357 -1.8632  0.5416 -1.2506
49360SOL    HW259805   4.364   6.151   5.239 -0.8396 -1.6098  0.1431
49361SOL     OW59806  10.094  11.722   7.727 -0.4628 -0.4522 -0.0957
49361SOL    HW159807  10.162  11.783   7.757 -1.5482  0.0616  1.4107
49361SOL    HW259808  10.096  11.650   7.790 -1.7836 -0.0824  0.3982
49362SOL     OW59809   6.981   3.553  10.638  0.1889  0.3236  0.6866
49362SOL    HW159810   7.053   3.539  10.700  0.7234  0.8537  0.1984
49362SOL    HW259811   7.014   3.620  10.578  0.5563 -1.8004 -1.5894
49363SOL     OW59812   1.460   1.436   1.545  0.1307  0.5301  0.4818
49363SOL    HW159813   1.512   1.514   1.566  1.0580  0.1219 -0.2369
49363SOL    HW259814   1.371   1.469   1.535  0.5960  1.5988 -0.3313
49364SOL     OW59815   9.893   0.417   3.237  0.1966 -0.1451  0.1073
49364SOL    HW159816   9.866   0.492   3.290 -1.6969 -1.4980  1.1671
49364SOL    HW259817   9.823   0.407   3.172 -1.4370 -2.9173  2.0684
49365SOL     OW59818   8.907   6.997   8.261  0.2597  0.0931  0.2346
49365SOL    HW159819   8.894   6.951   8.178 -0.3655 -0.4121  0.6078
49365SOL    HW259820   8.883   6.933   8.328  2.2992 -0.0667  0.8789
49366SOL     OW59821   5.000   6.599   1.400 -0.5542  0.0156 -0.0748
49366SOL    HW159822   4.956   6.518   1.426  1.4752 -0.8007  1.0132
49366SOL    HW259823   5.035   6.635   1.482  0.7181  0.6512 -0.8630
49367SOL     OW59824  11.351   1.237   4.566  0.3624 -0.0635  0.2625
49367SOL    HW159825  11.319   1.281   4.487  3.8440  1.5154 -0.4384
49367SOL    HW259826  11.314   1.148   4.560 -2.6696  1.1525 -0.9762
49368SOL     OW59827   3.784   1.175   0.245 -0.3407 -0.5487 -0.2944
49368SOL    HW159828   3.759   1.112   0.177 -0.6268  1.0628 -1.7777
49368SOL    HW259829   3.751   1.259   0.212  2.1101  0.7761  0.4022
49369SOL     OW59830   8.914   7.409   9.129 -0.1669  0.2964  0.0049
49369SOL    HW159831   9.007   7.398   9.109  0.2440 -0.4807  2.0636
49369SOL    HW259832   8.893   7.333   9.184 -2.2926 -0.0726 -1.2170
49370SOL     OW59833   5.169  10.293   0.120 -0.5626  0.2202 -0.2597
49370SOL    HW159834   5.212  10.214   0.152  2.2596  0.7884 -2.3438
49370SOL    HW259835   5.125  10.266   0.040 -0.4720  0.5322 -0.4155
49371SOL     OW59836   1.713   0.770   1.303 -0.1209 -0.3043 -0.4058
49371SOL    HW159837   1.621   0.782   1.325 -0.4737 -1.8708 -0.9095
49371SOL    HW259838   1.729   0.676   1.316  1.4725 -0.0279 -0.0966
49372SOL     OW59839   8.831  10.569   9.409 -0.1113 -0.0764 -0.1200
49372SOL    HW159840   8.787  10.531   9.333  0.2128  0.2855 -0.4984
49372SOL    HW259841   8.893  10.503   9.437  1.5369  0.7158 -1.7105
49373SOL     OW59842   5.779   2.691   2.689 -0.2240  0.1212 -0.2677
49373SOL    HW159843   5.839   2.752   2.645  0.2658 -0.7932 -0.8976
49373SOL    HW259844   5.751   2.738   2.768  2.6596 -0.0397  0.9917
49374SOL     OW59845   7.224   2.070   1.840 -0.3276 -0.3791  0.3776
49374SOL    HW159846   7.176   2.134   1.786 -1.9310  0.0968  2.2306
49374SOL    HW259847   7.259   2.122   1.912  2.0682 -0.9385 -0.3033
49375SOL     OW59848   2.265   3.617   7.842 -0.1894  0.3881 -0.2073
49375SOL    HW159849   2.331   3.569   7.793  0.0433  0.5387 -0.0395
49375SOL    HW259850   2.267   3.578   7.930 -0.0646  0.6442 -0.0977
49376SOL     OW59851   5.202  11.594   3.348  0.0774  0.0206 -0.0562
49376SOL    HW159852   5.282  11.623   3.303 -0.4015 -0.3371 -1.1849
49376SOL    HW259853   5.230  11.574   3.437  1.3280 -0.5004 -0.5449
49377SOL     OW59854   0.939   8.826   4.460 -0.5107 -0.0689  0.3397
49377SOL    HW159855   0.876   8.898   4.454  0.9396  1.3214  1.0511
49377SOL    HW259856   1.024   8.869   4.469  0.3733 -1.8846  1.2190
49378SOL     OW59857   3.934   6.997   0.708  0.4271 -0.4437 -0.4737
49378SOL    HW159858   3.909   6.950   0.787  0.7781  0.6542  0.3153
49378SOL    HW259859   4.005   7.054   0.735  0.4021  0.1262 -1.5320
49379SOL     OW59860   5.180   7.772   3.564  0.0185 -0.9851 -0.0303
49379SOL    HW159861   5.251   7.834   3.578 -1.1148  0.1856  0.8084
49379SOL    HW259862   5.188   7.709   3.635  0.5352 -1.1723 -0.2542
49380SOL     OW59863   7.023   4.592  10.734 -0.3519 -0.0643 -0.2248
49380SOL    HW159864   6.953   4.627  10.788 -1.5089 -2.2582 -0.1804
49380SOL    HW259865   7.004   4.498  10.728  2.5521 -0.7537 -0.2651
49381SOL     OW59866  11.936   4.646   6.494  0.6585  0.6122  0.6606
49381SOL    HW159867  11.961   4.604   6.576  0.6807  0.3499  0.5203
49381SOL    HW259868  11.841   4.640   6.491  0.7274 -0.6102  0.0254
49382SOL     OW59869   2.786   3.961  10.516 -0.2194  0.0295 -0.2816
49382SOL    HW159870   2.748   4.025  10.455 -1.3285 -1.0859 -0.7957
49382SOL    HW259871   2.806   3.885  10.462 -2.0768 -1.3467  0.8157
49383SOL     OW59872   3.753   6.536  11.044  0.0126 -0.2665  0.1016
49383SOL    HW159873   3.752   6.607  10.980  0.2030 -0.1117  0.2688
49383SOL    HW259874   3.840   6.541  11.084  0.1425 -0.7928 -0.1076
49384SOL     OW59875   0.580   8.859   1.644  0.0167  0.4932  0.6709
49384SOL    HW159876   0.661   8.867   1.594 -0.3835 -0.0908 -0.1003
49384SOL    HW259877   0.608   8.822   1.728  0.6222  0.8951  0.6560
49385SOL     OW59878   1.783   3.334   7.244  0.5667 -0.0557  0.4220
49385SOL    HW159879   1.711   3.286   7.202  0.1891  1.1973 -0.4509
49385SOL    HW259880   1.783   3.304   7.335  0.9748 -2.3691 -0.2874
49386SOL     OW59881   8.486   2.372   3.293 -0.2643  0.2595 -0.0690
49386SOL    HW159882   8.428   2.426   3.346 -1.2135 -2.4167  1.8269
49386SOL    HW259883   8.430   2.303   3.258  1.2310 -0.6614 -0.7531
49387SOL     OW59884   4.127  11.547   0.914 -0.1432 -0.4191  0.0344
49387SOL    HW159885   4.094  11.629   0.949  0.3654 -0.7709  1.3816
49387SOL    HW259886   4.176  11.573   0.836 -2.8176  0.1888 -1.5771
49388SOL     OW59887   4.486   8.557   1.259  0.2369  0.1038 -0.4927
49388SOL    HW159888   4.484   8.472   1.216 -0.1105 -1.4488  2.3118
49388SOL    HW259889   4.577   8.567   1.288  0.1203  0.3490 -0.2056
49389SOL     OW59890   6.765   8.863   2.549 -0.4735  0.1190  0.2198
49389SOL    HW159891   6.828   8.932   2.529  1.9595 -1.0693  3.0647
49389SOL    HW259892   6.818   8.784   2.561 -2.7682 -1.4805  0.6707
49390SOL     OW59893   1.407   0.382   1.309  0.7318  0.2688 -0.2483
49390SOL    HW159894   1.364   0.336   1.381  1.6293 -0.3713 -0.1011
49390SOL    HW259895   1.337   0.401   1.247  0.4093 -1.9282 -0.6388
49391SOL     OW59896   3.358   6.879   3.641 -0.5582  0.2535 -0.2358
49391SOL    HW159897   3.392   6.920   3.721 -0.8820  1.4787 -0.7028
49391SOL    HW259898   3.433   6.880   3.580 -0.5126 -0.0322 -0.1857
49392SOL     OW59899   6.841   6.073   0.570 -0.0043 -0.1514  0.4072
49392SOL    HW159900   6.795   6.131   0.631  0.1255 -1.1072  1.4686
49392SOL    HW259901   6.933   6.076   0.599  0.3578  0.6049 -0.7617
49393SOL     OW59902   9.952   0.573   0.810  0.0045 -0.0772  0.1443
49393SOL    HW159903   9.888   0.644   0.803 -1.3063 -1.0188  1.7243
49393SOL    HW259904  10.002   0.594   0.889 -1.0742 -1.3616  1.2268
49394SOL     OW59905  10.755   6.678  11.381 -0.3912  0.2573  0.3971
49394SOL    HW159906  10.830   6.716  11.335 -0.4304 -0.2857 -0.1310
49394SOL    HW259907  10.782   6.673  11.472  0.6593 -1.0077  0.0409
49395SOL     OW59908   0.679   6.047   8.464  0.0821  0.3888  0.1547
49395SOL    HW159909   0.601   6.003   8.497 -0.2653  0.5816 -0.4077
49395SOL    HW259910   0.662   6.060   8.370  1.8159 -1.8922 -0.5915
49396SOL     OW59911   2.217   1.657   0.146  0.1096 -0.4390  0.1659
49396SOL    HW159912   2.296   1.640   0.197 -0.3658 -0.8758  0.7767
49396SOL    HW259913   2.152   1.683   0.210 -1.2070 -3.3344  0.1865
49397SOL     OW59914   1.586   3.606  11.184 -0.3033  0.1029 -0.2665
49397SOL    HW159915   1.602   3.564  11.099 -1.4384  3.1100 -2.1347
49397SOL    HW259916   1.670   3.599  11.230  0.0917 -2.3536 -1.2241
49398SOL     OW59917  10.848   8.215   5.949 -0.2870  0.0055 -0.4259
49398SOL    HW159918  10.848   8.305   5.918 -0.8701 -0.4528 -1.8398
49398SOL    HW259919  10.767   8.206   5.998 -1.3017 -0.2961 -2.0800
49399SOL     OW59920   4.363   6.892   5.868  0.2537 -0.0402 -0.0722
49399SOL    HW159921   4.356   6.977   5.912  0.5019  0.7139 -1.4169
49399SOL    HW259922   4.457   6.872   5.870  0.1664 -0.4264  0.4720
49400SOL     OW59923   4.470   7.679   2.354 -0.4220  0.6006 -0.2116
49400SOL    HW159924   4.439   7.762   2.390 -2.3483 -0.2265  0.1446
49400SOL    HW259925   4.554   7.664   2.398 -0.9559  1.4399  1.1672
49401SOL     OW59926   9.232   7.128   1.063  0.4652  0.6626 -0.4834
49401SOL    HW159927   9.202   7.146   1.153  1.0842  1.2243 -0.3825
49401SOL    HW259928   9.304   7.189   1.049  2.7676 -1.7663 -0.0870
49402SOL     OW59929   9.025   2.564   8.536 -0.3800  0.2142 -0.0422
49402SOL    HW159930   8.954   2.624   8.560 -1.3831 -1.0576  0.2387
49402SOL    HW259931   9.102   2.601   8.579 -1.2703  0.5019  1.3853
49403SOL     OW59932   5.182   4.647  10.724  0.2092  0.5459  0.2138
49403SOL    HW159933   5.224   4.677  10.805  0.2490  3.0258 -0.6163
49403SOL    HW259934   5.239   4.681  10.655  0.7205 -2.3832 -0.9058
49404SOL     OW59935   4.993   9.572   4.909  0.2576  0.3894  0.3247
49404SOL    HW159936   5.062   9.520   4.950 -0.7376 -1.8065 -0.6480
49404SOL    HW259937   4.939   9.603   4.982 -0.2260 -1.5991  0.8644
49405SOL     OW59938   8.366   7.875   5.888 -0.2336 -0.4265  0.4609
49405SOL    HW159939   8.298   7.905   5.827  1.2394 -0.5652 -1.3468
49405SOL    HW259940   8.435   7.941   5.882  0.5722 -1.1972  0.8749
49406SOL     OW59941   2.454   4.332   0.950 -0.4123 -0.3358  0.4999
49406SOL    HW159942   2.456   4.242   0.983 -1.1725 -0.3337  0.5862
49406SOL    HW259943   2.545   4.360   0.950  0.1043 -1.8075 -1.4969
49407SOL     OW59944   8.898  10.195   0.400  0.5788 -0.5652 -0.1557
49407SOL    HW159945   8.863  10.167   0.315 -0.8905  0.1542  0.1854
49407SOL    HW259946   8.923  10.286   0.386  2.4643 -1.0827 -0.4092
49408SOL     OW59947   4.011   7.099   1.574 -0.4243 -0.2100  0.2109
49408SOL    HW159948   4.040   7.082   1.484 -0.3945  0.5942  0.0560
49408SOL    HW259949   3.922   7.066   1.578  0.0215 -1.4384  0.2743
49409SOL     OW59950   2.440   9.450   5.299 -0.1024 -0.2585  0.2929
49409SOL    HW159951   2.396   9.452   5.384  0.7530 -1.0137  0.7746
49409SOL    HW259952   2.507   9.518   5.306  0.4883 -0.8539  0.5297
49410SOL     OW59953   2.515   7.044  11.796 -0.2685 -0.0415 -0.1922
49410SOL    HW159954   2.487   7.054  11.705  0.1539  1.0360 -0.2128
49410SOL    HW259955   2.570   7.120  11.813 -1.9451  0.8870  1.5673
49411SOL     OW59956   6.334  11.890   0.614 -0.2549 -0.7316 -0.2540
49411SOL    HW159957   6.259  11.918   0.562 -0.3938 -0.6694 -0.0219
49411SOL    HW259958   6.346  11.959   0.679 -0.2305 -0.9205 -0.0544
49412SOL     OW59959   9.467   4.767   1.571  0.6559 -0.0517  0.4617
49412SOL    HW159960   9.434   4.811   1.649 -1.6223 -0.2153 -0.3434
49412SOL    HW259961   9.491   4.838   1.512 -0.6442  0.1431  0.1282
49413SOL     OW59962   9.433   5.606  10.347  0.0732 -0.4426 -0.3359
49413SOL    HW159963   9.449   5.652  10.265  2.8224 -0.9903 -0.1824
49413SOL    HW259964   9.354   5.554  10.329 -0.7207  1.1777 -1.8263
49414SOL     OW59965   0.777  11.191   8.802  0.0569  0.3573 -0.0721
49414SOL    HW159966   0.819  11.265   8.758  0.8953  1.3034  2.1868
49414SOL    HW259967   0.728  11.230   8.874 -0.9199 -1.1625  0.1339
49415SOL     OW59968   1.598  11.684   7.491 -0.3498 -0.2031 -0.0573
49415SOL    HW159969   1.603  11.764   7.543  0.1065  1.2416 -2.1779
49415SOL    HW259970   1.689  11.656   7.481  0.0335  1.5778 -2.8779
49416SOL     OW59971   0.536   0.086   4.929  1.0057 -1.0838  0.2606
49416SOL    HW159972   0.492   0.032   4.995 -0.4907 -1.7898 -1.2516
49416SOL    HW259973   0.472   0.097   4.860  2.7112 -0.8650 -1.3742
49417SOL     OW59974   3.612   3.225  10.306 -0.5539  0.2134  0.9718
49417SOL    HW159975   3.536   3.264  10.348 -2.2273 -0.9790 -0.8243
49417SOL    HW259976   3.624   3.141  10.350 -1.2948 -0.3108  0.1921
49418SOL     OW59977   8.238  10.366   0.844 -0.1217 -0.3063  0.1008
49418SOL    HW159978   8.254  10.305   0.915 -0.4164 -0.5736 -0.0568
49418SOL    HW259979   8.143  10.379   0.845  0.1849  2.8415  2.3366
49419SOL     OW59980   4.933   6.230   9.522  0.8154 -0.4617 -0.0935
49419SOL    HW159981   4.969   6.252   9.436 -0.9886  0.6316 -0.6039
49419SOL    HW259982   4.950   6.136   9.532  2.4311 -0.2952 -0.9337
49420SOL     OW59983   9.983   4.178   3.865  0.0535  0.0205 -0.3500
49420SOL    HW159984   9.987   4.269   3.893  0.2494  0.1906 -0.9190
49420SOL    HW259985   9.978   4.128   3.946  1.0590  0.4806  0.0100
49421SOL     OW59986   2.400   6.610   4.485 -0.4285 -0.1223  0.4769
49421SOL    HW159987   2.481   6.562   4.499 -0.7668 -0.1988  2.4900
49421SOL    HW259988   2.422   6.677   4.420  0.9916 -0.6940  0.3347
49422SOL     OW59989   1.899   3.794   2.491 -0.0569  0.1316 -0.5762
49422SOL    HW159990   1.968   3.746   2.535  0.7608  0.5337 -1.3777
49422SOL    HW259991   1.828   3.731   2.482  0.5543 -0.5760 -0.5719
49423SOL     OW59992   8.239   1.550   8.088  0.1532 -0.1577 -0.2545
49423SOL    HW159993   8.317   1.527   8.038  0.2359  1.0072 -0.7048
49423SOL    HW259994   8.193   1.467   8.101 -0.0297 -0.4914 -2.5411
49424SOL     OW59995   9.572  11.087   7.662  0.2538  0.1988 -0.2283
49424SOL    HW159996   9.529  11.164   7.701  1.4794  0.4377  0.6961
49424SOL    HW259997   9.596  11.116   7.574  2.3158  1.5436  0.7038
49425SOL     OW59998   3.847   4.433   8.174  0.2661  0.5805  0.0394
49425SOL    HW159999   3.789   4.486   8.229  0.0615  0.4384 -0.0351
49425SOL    HW260000   3.916   4.493   8.147  1.1086  0.3357  1.5354
49426SOL     OW60001   3.720   9.268   3.657 -0.0009 -0.6639 -0.6751
49426SOL    HW160002   3.791   9.330   3.676  0.8554 -1.7141 -0.3283
49426SOL    HW260003   3.641   9.322   3.653  0.5153  0.2811  0.9440
49427SOL     OW60004   0.336   2.604  11.100  0.1783 -0.1279 -0.6122
49427SOL    HW160005   0.393   2.650  11.161  2.6732 -0.0516 -2.7850
49427SOL    HW260006   0.378   2.618  11.014 -1.3659 -2.7933 -1.9230
49428SOL     OW60007   3.647   8.600   3.669 -0.0497  0.1333 -0.0881
49428SOL    HW160008   3.557   8.618   3.698  0.0544  0.3465  0.1046
49428SOL    HW260009   3.680   8.536   3.732  0.4952  1.3015  0.8308
49429SOL     OW60010   7.298   5.922   0.386  0.0067  0.0085 -0.6933
49429SOL    HW160011   7.270   5.893   0.299  0.3922 -1.2427 -0.4193
49429SOL    HW260012   7.252   5.863   0.447 -0.3133  0.9143 -0.0369
49430SOL     OW60013   1.575   4.341  10.819  0.3022 -0.1646  0.3747
49430SOL    HW160014   1.596   4.387  10.900 -0.2857  2.0450 -0.6395
49430SOL    HW260015   1.650   4.355  10.763 -0.1926  0.2179 -0.2079
49431SOL     OW60016   4.037   8.510   1.751 -0.6754  0.4713 -0.2666
49431SOL    HW160017   4.130   8.493   1.736 -0.8308 -1.2161  0.5285
49431SOL    HW260018   3.996   8.496   1.665 -0.5229 -1.4153 -0.0677
49432SOL     OW60019   4.571   7.859   4.615  0.0574 -0.6275 -0.5058
49432SOL    HW160020   4.582   7.772   4.653  0.5886 -0.3007  0.1034
49432SOL    HW260021   4.484   7.856   4.575 -0.1909 -1.2350  0.0534
49433SOL     OW60022   1.220   3.258  10.140 -0.2254 -0.2221 -0.1636
49433SOL    HW160023   1.135   3.274  10.098 -0.8167  0.0597  1.1127
49433SOL    HW260024   1.279   3.320  10.097 -0.4106 -1.1137 -1.7819
49434SOL     OW60025   2.704  11.744   3.428  0.0290 -0.2044  0.0183
49434SOL    HW160026   2.732  11.654   3.448 -0.7478 -0.5340 -0.3476
49434SOL    HW260027   2.786  11.791   3.413  0.4806 -0.7022  0.8062
49435SOL     OW60028   5.934   1.561   2.055  0.0222  0.6173 -0.2831
49435SOL    HW160029   5.905   1.640   2.101  0.3640  0.9965 -0.7178
49435SOL    HW260030   5.862   1.540   1.996  0.0084  0.7051 -0.2973
49436SOL     OW60031   7.926   5.149   6.560  0.5376  0.5165 -0.2172
49436SOL    HW160032   8.006   5.124   6.607  0.2377 -1.7491 -0.8150
49436SOL    HW260033   7.956   5.216   6.498  1.7947  0.3443  0.1695
49437SOL     OW60034   8.512   7.322   1.997 -0.2914  0.2560 -0.2521
49437SOL    HW160035   8.494   7.407   2.039  0.5364  0.7413 -0.8560
49437SOL    HW260036   8.536   7.265   2.070 -2.2390  0.1110  0.3522
49438SOL     OW60037  11.051   0.927   3.435 -0.7159 -0.0489 -0.5799
49438SOL    HW160038  11.106   0.864   3.481 -0.8902 -0.1094 -0.4551
49438SOL    HW260039  11.112   0.993   3.403 -0.4224 -0.7589 -1.5063
49439SOL     OW60040   3.031   1.124  10.456 -0.1387  0.4248 -0.3069
49439SOL    HW160041   3.082   1.116  10.376  0.4076 -0.2607  0.1004
49439SOL    HW260042   2.992   1.038  10.469  1.9180 -0.2956  1.5652
49440SOL     OW60043   6.817   7.223   2.280 -0.5437  0.0432  0.2348
49440SOL    HW160044   6.853   7.296   2.229  0.8116 -0.1478  0.8851
49440SOL    HW260045   6.755   7.265   2.340 -0.5806  0.5197 -0.1293
49441SOL     OW60046   8.988   9.309   7.608 -0.0401 -0.0964  0.5888
49441SOL    HW160047   9.009   9.276   7.520 -1.5341  0.6699 -0.0959
49441SOL    HW260048   9.028   9.246   7.667  1.2970 -0.4517 -0.6362
49442SOL     OW60049   5.745  11.469   7.063  0.1903  0.2601  0.9424
49442SOL    HW160050   5.721  11.505   6.978  0.7191 -0.9093  0.2665
49442SOL    HW260051   5.697  11.387   7.069 -0.8810  0.9485  2.3770
49443SOL     OW60052   5.148   7.925   7.464  0.5495 -0.2988 -0.5641
49443SOL    HW160053   5.093   7.951   7.537 -2.5439  1.3886 -3.2502
49443SOL    HW260054   5.216   7.993   7.460 -0.0563  0.3519 -0.0400
49444SOL     OW60055   0.259   3.795   4.490 -0.0424 -0.2050 -0.8362
49444SOL    HW160056   0.173   3.790   4.531  0.0912 -0.9137 -0.6267
49444SOL    HW260057   0.255   3.874   4.436 -0.6851 -0.0136 -0.5218
49445SOL     OW60058   4.045   9.747   3.041  0.6345 -0.3042  0.0334
49445SOL    HW160059   4.073   9.715   3.127 -0.7405 -0.6315  0.3862
49445SOL    HW260060   4.053   9.671   2.984  0.2256 -0.4753  0.1965
49446SOL     OW60061   7.892   4.355   7.189  0.3737 -0.2252 -0.1797
49446SOL    HW160062   7.831   4.408   7.137 -1.6277 -2.2662 -0.0653
49446SOL    HW260063   7.861   4.365   7.279  0.3637 -1.0667 -0.0823
49447SOL     OW60064   2.024   0.541   0.390  0.2114 -0.0278 -0.1507
49447SOL    HW160065   2.038   0.555   0.483  1.2364  0.8323 -0.4148
49447SOL    HW260066   1.952   0.478   0.385  0.0104  0.0789  1.2096
49448SOL     OW60067  11.928   9.502   0.252 -0.1206  0.3491 -0.2794
49448SOL    HW160068  11.942   9.488   0.346 -0.5360 -2.7365 -0.5686
49448SOL    HW260069  11.987   9.440   0.209 -2.6701 -1.1410 -1.9053
49449SOL     OW60070   7.555   8.769   3.773  0.3459  0.5325 -0.0482
49449SOL    HW160071   7.539   8.675   3.776  2.3096 -0.0164 -2.7423
49449SOL    HW260072   7.489   8.804   3.713 -0.7128  1.0027  1.3544
49450SOL     OW60073   3.568   9.860   1.943 -0.4280  0.1172  0.0809
49450SOL    HW160074   3.541   9.948   1.915 -1.8734 -0.6640 -1.1588
49450SOL    HW260075   3.530   9.851   2.031  2.9480  2.0692  1.9402
49451SOL     OW60076   1.057   7.302   7.508 -0.2139 -0.4383  0.1025
49451SOL    HW160077   1.144   7.283   7.543 -0.0190 -0.2221 -0.2576
49451SOL    HW260078   0.997   7.253   7.564  0.1965 -1.2173 -0.1209
49452SOL     OW60079   3.600   3.568  10.598 -0.2598 -0.3960 -0.3531
49452SOL    HW160080   3.651   3.487  10.596  0.6329  0.1524 -0.3758
49452SOL    HW260081   3.509   3.539  10.610  0.0634 -1.3844 -0.2033
49453SOL     OW60082   7.689   6.687   3.955  0.1369  0.3431 -0.0307
49453SOL    HW160083   7.699   6.637   3.874 -0.9399  0.8000 -0.4647
49453SOL    HW260084   7.641   6.766   3.929 -0.5840  0.3011  1.1079
49454SOL     OW60085   0.613   2.034   8.720  0.0918  0.4775 -0.3068
49454SOL    HW160086   0.524   2.030   8.753 -0.2806 -0.5573 -1.3588
49454SOL    HW260087   0.668   2.005   8.792 -0.5800 -0.5522 -0.2038
49455SOL     OW60088   5.922   9.870   6.533  0.5658  0.6605 -0.0699
49455SOL    HW160089   6.011   9.838   6.540 -0.4022 -2.8555 -1.6829
49455SOL    HW260090   5.923   9.929   6.457  1.3093 -0.2760 -0.8070
49456SOL     OW60091  10.624   3.379  10.675 -0.5238 -0.0780  0.4957
49456SOL    HW160092  10.635   3.473  10.692  1.3191 -0.1323 -0.1158
49456SOL    HW260093  10.609   3.340  10.761 -0.9089  0.7254  0.8004
49457SOL     OW60094   4.088   8.108  11.100  0.6040 -0.4429  0.4724
49457SOL    HW160095   4.150   8.179  11.113  0.5406 -0.5734  1.6472
49457SOL    HW260096   4.061   8.115  11.009  1.1694  0.5710  0.3732
49458SOL     OW60097   4.723  10.608   3.764  0.2374  0.5323  0.9443
49458SOL    HW160098   4.682  10.693   3.753  0.0396  0.4051  0.6757
49458SOL    HW260099   4.651  10.550   3.790 -0.1265 -0.0726 -1.2129
49459SOL     OW60100   0.439  10.312   5.656  0.7219  0.4527 -0.2604
49459SOL    HW160101   0.415  10.399   5.688  0.0550 -0.1722  1.0276
49459SOL    HW260102   0.390  10.303   5.574 -1.0169  0.4654  0.7130
49460SOL     OW60103   6.588   5.631   6.537 -0.2786 -0.1869  0.3091
49460SOL    HW160104   6.659   5.589   6.586 -1.7168 -1.0907  1.7202
49460SOL    HW260105   6.588   5.721   6.570 -1.4410 -0.8644  2.3381
49461SOL     OW60106   8.136   6.920   2.751 -0.2241 -0.3969 -0.0686
49461SOL    HW160107   8.112   6.882   2.835  0.1056  0.8278  0.6005
49461SOL    HW260108   8.176   7.005   2.773 -0.5743  0.1652 -1.4817
49462SOL     OW60109   7.547  10.691  10.447 -0.1116 -0.1590 -0.6486
49462SOL    HW160110   7.620  10.682  10.508 -0.9446 -0.2512  0.3570
49462SOL    HW260111   7.505  10.605  10.446 -1.3592  0.3953  0.3162
49463SOL     OW60112  10.802   3.638  10.667 -0.3409 -0.5204  0.2273
49463SOL    HW160113  10.774   3.638  10.759 -2.1300 -0.7708 -0.2849
49463SOL    HW260114  10.892   3.672  10.670 -1.3084  2.2700  1.7895
49464SOL     OW60115   9.417   7.727  11.739 -0.0267  0.0185  0.1091
49464SOL    HW160116   9.439   7.646  11.695  0.1987  0.2973 -0.3008
49464SOL    HW260117   9.489   7.741  11.801 -0.6737 -0.7124  1.0486
49465SOL     OW60118   8.221   1.643  11.085 -0.8260 -0.1618 -0.3472
49465SOL    HW160119   8.137   1.680  11.059 -1.0976 -0.3977  0.1645
49465SOL    HW260120   8.204   1.549  11.094 -0.5152 -0.2072 -0.2213
49466SOL     OW60121  10.791   7.995   3.919  0.4112  0.0077  0.0474
49466SOL    HW160122  10.700   8.017   3.900 -0.0697 -1.6585  0.2315
49466SOL    HW260123  10.841   8.070   3.888 -1.0302  1.0509  0.1322
49467SOL     OW60124   9.136   6.727   7.377 -0.3332 -0.0554 -0.4185
49467SOL    HW160125   9.053   6.718   7.329  0.2217 -1.0596 -1.2123
49467SOL    HW260126   9.127   6.666   7.450 -0.9209  1.0141  0.4446
49468SOL     OW60127   6.575   0.993   2.941 -0.0885  0.2357  0.2330
49468SOL    HW160128   6.561   0.998   2.846 -1.4358 -0.2852  0.3893
49468SOL    HW260129   6.564   1.083   2.971 -1.9139  0.0822  0.1558
49469SOL     OW60130   4.045   6.662   8.092  0.0608 -0.3842  0.4743
49469SOL    HW160131   3.977   6.623   8.038 -0.6020  0.9257  0.3357
49469SOL    HW260132   4.117   6.679   8.032 -0.5072  0.6597  0.0723
49470SOL     OW60133   3.957   3.654   2.218  0.2726  0.6538  0.3209
49470SOL    HW160134   3.929   3.603   2.142 -1.4062  0.6416  0.9139
49470SOL    HW260135   4.053   3.652   2.214  0.2195  0.7897 -1.8635
49471SOL     OW60136   1.036  10.250   5.643  0.0344 -0.6475  0.2469
49471SOL    HW160137   0.993  10.165   5.629 -0.1364 -0.3397 -1.2546
49471SOL    HW260138   1.018  10.299   5.563  0.1112  0.8316  1.1154
49472SOL     OW60139   1.945   0.287   0.028 -0.1192 -0.4485 -0.2233
49472SOL    HW160140   1.876   0.226   0.002 -0.9470  0.5363 -0.4138
49472SOL    HW260141   1.926   0.306   0.120  0.3870 -0.7986 -0.0445
49473SOL     OW60142   8.937   9.241   6.686 -0.0060 -0.5412 -0.6444
49473SOL    HW160143   8.959   9.226   6.594  0.6116  1.3390 -0.8542
49473SOL    HW260144   8.999   9.186   6.734  0.1156 -1.0350 -1.3452
49474SOL     OW60145   9.470   4.741   3.027  0.6244 -0.1399  0.1541
49474SOL    HW160146   9.520   4.790   2.961  2.5547 -1.4259  0.5825
49474SOL    HW260147   9.384   4.728   2.986  1.0828  0.8686 -1.2334
49475SOL     OW60148   2.368   9.385   2.174  0.1731  0.1624  0.6630
49475SOL    HW160149   2.351   9.388   2.079  1.1070 -2.4910  0.3185
49475SOL    HW260150   2.434   9.317   2.184  0.2113  0.4840  3.2418
49476SOL     OW60151  11.230   1.563   8.563  0.3521 -0.1788 -0.1704
49476SOL    HW160152  11.306   1.618   8.541 -1.1549  2.2251  0.2655
49476SOL    HW260153  11.208   1.588   8.653 -0.9998 -0.7771 -0.3085
49477SOL     OW60154   6.232   5.573   6.238 -0.1213 -0.4732 -0.3320
49477SOL    HW160155   6.239   5.503   6.303 -0.1843  0.6288  0.9068
49477SOL    HW260156   6.320   5.578   6.199  0.3871 -0.1119  0.8105
49478SOL     OW60157   5.331   7.353   1.684 -0.2453  0.2964 -0.3536
49478SOL    HW160158   5.413   7.373   1.729  1.4049  0.6170 -3.2515
49478SOL    HW260159   5.316   7.260   1.702  0.6085  0.2988  0.4415
49479SOL     OW60160   9.351   9.817   9.949 -0.0467 -0.5894 -0.8369
49479SOL    HW160161   9.311   9.731   9.967  1.1260 -1.0833 -0.5224
49479SOL    HW260162   9.433   9.796   9.904  0.6583  0.3322 -0.0049
49480SOL     OW60163   2.897   1.404   4.720  0.8735 -0.3147  0.3070
49480SOL    HW160164   2.940   1.440   4.798  0.8521  1.0832 -0.2984
49480SOL    HW260165   2.918   1.466   4.650 -0.7950 -0.4722 -0.3690
49481SOL     OW60166   2.736   3.539   7.607  0.5128 -0.0304 -0.5603
49481SOL    HW160167   2.773   3.569   7.524  2.1433  0.0399  0.1553
49481SOL    HW260168   2.811   3.504   7.655 -0.1165  1.2464  1.4614
49482SOL     OW60169   7.470   5.618   3.367 -0.0597 -0.0129 -0.0525
49482SOL    HW160170   7.455   5.712   3.364 -2.2826 -0.3306 -0.3871
49482SOL    HW260171   7.533   5.601   3.297  0.0038  1.1405 -0.2940
49483SOL     OW60172   6.841   0.724   7.657 -0.1850  0.2234 -0.1913
49483SOL    HW160173   6.828   0.729   7.752 -1.3923  1.0333 -0.3806
49483SOL    HW260174   6.821   0.812   7.626  1.9715  0.4867 -1.0244
49484SOL     OW60175   1.639   4.361   9.507  0.2144  0.4755 -0.7080
49484SOL    HW160176   1.598   4.414   9.575 -0.2666 -0.8824  0.0954
49484SOL    HW260177   1.641   4.418   9.430 -0.9884  1.3877 -0.0936
49485SOL     OW60178   5.071   0.184   9.367 -0.0663 -0.3722 -0.2568
49485SOL    HW160179   5.133   0.122   9.329  1.0725  1.2111 -1.0405
49485SOL    HW260180   4.985   0.148   9.343  0.4986 -2.3138  0.4092
49486SOL     OW60181  11.690   8.863   6.316 -0.0939  0.2606  0.1144
49486SOL    HW160182  11.597   8.840   6.323 -0.2059  0.2145 -1.3453
49486SOL    HW260183  11.690   8.959   6.322 -0.2246  0.2597  0.1440
49487SOL     OW60184   1.873   2.690   5.656  0.1890 -0.4053 -0.1141
49487SOL    HW160185   1.884   2.744   5.734 -2.7896 -0.9209  0.7801
49487SOL    HW260186   1.791   2.721   5.617 -0.5294 -2.8711 -0.7418
49488SOL     OW60187  10.546   4.492   4.039 -0.2488  0.1950  0.0745
49488SOL    HW160188  10.528   4.479   4.132  2.6463 -1.5999  0.5147
49488SOL    HW260189  10.575   4.583   4.033 -1.5107  0.6543  0.7061
49489SOL     OW60190   9.156   5.730   2.073  0.1248  0.7759 -0.0179
49489SOL    HW160191   9.183   5.806   2.021  0.1325  1.6124  1.1743
49489SOL    HW260192   9.221   5.663   2.051  1.3450  1.7693  0.4432
49490SOL     OW60193   5.523   3.649   7.480 -0.1836  0.0559 -0.7240
49490SOL    HW160194   5.575   3.724   7.451  0.3466 -0.9500 -2.6157
49490SOL    HW260195   5.522   3.655   7.575  1.5427  1.3427 -0.7346
49491SOL     OW60196   2.600   6.386  11.087 -0.0170  0.0252  0.2856
49491SOL    HW160197   2.646   6.313  11.129  0.2355 -0.1899 -0.3543
49491SOL    HW260198   2.640   6.464  11.125  1.7104 -0.1232 -1.0416
49492SOL     OW60199   6.141   9.430   0.866  0.1589 -0.0433 -0.1388
49492SOL    HW160200   6.188   9.435   0.949 -1.9419  1.8065  1.0608
49492SOL    HW260201   6.206   9.456   0.800  1.4668 -0.0071  1.1196
49493SOL     OW60202   9.384   1.936   8.478  0.7060  0.2904 -0.3894
49493SOL    HW160203   9.412   1.893   8.559  0.5898 -0.9029 -0.9645
49493SOL    HW260204   9.455   1.998   8.459  1.8283 -1.0004 -0.5527
49494SOL     OW60205   7.258   6.361   1.113  0.5072 -0.0370 -0.1586
49494SOL    HW160206   7.298   6.290   1.063  0.1348 -1.6080  1.6506
49494SOL    HW260207   7.332   6.414   1.143  0.9403 -0.6797 -0.0797
49495SOL     OW60208   8.778   2.430   5.008  0.1674 -0.0775 -1.0928
49495SOL    HW160209   8.691   2.442   4.972 -1.5475 -1.6670  2.1208
49495SOL    HW260210   8.810   2.519   5.025 -1.2750  0.4961 -1.3043
49496SOL     OW60211   8.652   7.537   1.522 -0.1286 -0.0949  0.0530
49496SOL    HW160212   8.620   7.598   1.456 -0.5280  0.2246  0.5355
49496SOL    HW260213   8.574   7.510   1.570 -0.2214 -2.3560 -1.2610
49497SOL     OW60214   9.881  10.664   6.599 -0.4699 -0.0191 -0.2440
49497SOL    HW160215   9.949  10.661   6.666 -0.2700 -3.2186 -0.4577
49497SOL    HW260216   9.799  10.654   6.647 -0.6194  1.0703 -0.2380
49498SOL     OW60217   9.342   2.366   5.576  0.2542  0.0536  0.2236
49498SOL    HW160218   9.379   2.352   5.663 -0.8205 -1.1300  0.5273
49498SOL    HW260219   9.362   2.285   5.528  1.9148  1.1742 -1.0658
49499SOL     OW60220   9.790   1.633  11.083  0.3576  0.1669  0.6920
49499SOL    HW160221   9.816   1.721  11.110 -0.7634  0.9815 -0.7319
49499SOL    HW260222   9.815   1.627  10.991 -0.3546 -0.6808  0.5350
49500SOL     OW60223   0.269   9.427   6.192 -0.0111  0.3288  0.1280
49500SOL    HW160224   0.343   9.486   6.176  1.6186 -1.7437 -0.5895
49500SOL    HW260225   0.279   9.400   6.284 -0.4990  0.8157  0.3292
49501SOL     OW60226   6.090   4.192   2.925 -0.1206 -0.3523  0.1659
49501SOL    HW160227   6.185   4.201   2.921 -0.2100  0.8519  0.4151
49501SOL    HW260228   6.075   4.101   2.952  0.9847 -0.1723  1.4741
49502SOL     OW60229   4.904  11.932   0.811 -0.1809  0.3081  0.1981
49502SOL    HW160230   4.863  11.864   0.758  0.9569 -0.4654  0.2785
49502SOL    HW260231   4.900  12.011   0.757 -1.3728  0.1472  0.0435
49503SOL     OW60232   6.837   4.683   4.368 -0.0558  0.1586  0.1758
49503SOL    HW160233   6.845   4.631   4.288  2.3223  0.8211 -0.0753
49503SOL    HW260234   6.779   4.755   4.343  0.7180  0.4051 -1.0055
49504SOL     OW60235  11.083   2.128   5.895  0.1916  1.1570 -0.2204
49504SOL    HW160236  11.123   2.086   5.971 -0.0645  1.5636  0.1395
49504SOL    HW260237  11.050   2.055   5.842  1.5523  0.8016 -0.6142
49505SOL     OW60238   6.744   1.647   0.718  0.2085 -0.8272 -0.0644
49505SOL    HW160239   6.785   1.719   0.670 -1.1349  2.0676  2.7490
49505SOL    HW260240   6.652   1.649   0.692 -0.3786  0.2888  1.9225
49506SOL     OW60241  11.326   1.122   5.305  0.0897  0.5349 -0.0309
49506SOL    HW160242  11.329   1.211   5.341 -1.9007  0.9461 -0.7589
49506SOL    HW260243  11.390   1.123   5.234  1.3113  0.8367  1.0264
49507SOL     OW60244   4.579   8.248  11.520 -0.3103  0.3022 -0.0190
49507SOL    HW160245   4.639   8.221  11.589  0.8137  1.4342 -0.5204
49507SOL    HW260246   4.593   8.185  11.450 -1.8229 -1.1634  0.9151
49508SOL     OW60247   9.419   1.269   2.835 -0.1631 -0.3417  0.0328
49508SOL    HW160248   9.419   1.209   2.909 -1.2113 -0.4073 -0.0027
49508SOL    HW260249   9.358   1.230   2.772 -1.0487  0.8628  0.1100
49509SOL     OW60250   9.200   6.080   6.073  0.1216  0.4387 -0.4634
49509SOL    HW160251   9.283   6.097   6.118 -0.1417  1.3893 -0.2994
49509SOL    HW260252   9.225   6.042   5.989  0.6768 -0.1969 -0.0164
49510SOL     OW60253   1.328  11.588   8.140  0.1249 -0.2363  0.0635
49510SOL    HW160254   1.403  11.551   8.093  2.0962  1.3868  1.7921
49510SOL    HW260255   1.315  11.674   8.101  1.4767  0.9322  2.0500
49511SOL     OW60256   3.668   5.676   7.938  0.0178  0.0910 -0.2837
49511SOL    HW160257   3.579   5.643   7.921  0.0185 -0.4588  0.6501
49511SOL    HW260258   3.654   5.764   7.974 -0.0897  0.4109 -1.1042
49512SOL     OW60259   3.968   7.241   1.794 -0.1055  0.7842  0.0179
49512SOL    HW160260   3.984   7.219   1.703 -0.3636  0.4957  0.0431
49512SOL    HW260261   4.042   7.203   1.841  0.2930  1.3604 -0.1220
49513SOL     OW60262   7.430   2.345   9.950 -0.1711 -0.0637 -0.3976
49513SOL    HW160263   7.450   2.431   9.987  0.7096  1.4578 -3.9367
49513SOL    HW260264   7.515   2.307   9.928 -0.5434 -1.9717  1.1766
49514SOL     OW60265   8.859   3.901   9.106 -0.2749 -0.8021  0.0659
49514SOL    HW160266   8.912   3.946   9.172 -0.7823 -1.0280  0.6336
49514SOL    HW260267   8.840   3.968   9.040 -1.2717 -0.0929  1.0465
49515SOL     OW60268  11.196   5.610  11.385 -0.2938  0.2129 -0.2012
49515SOL    HW160269  11.146   5.664  11.324 -1.1170 -0.8888 -0.5265
49515SOL    HW260270  11.130   5.559  11.431  0.4000  0.2449  0.8593
49516SOL     OW60271   7.044   7.206   9.343 -0.1057  0.1525 -0.7688
49516SOL    HW160272   6.991   7.134   9.378 -1.3225  1.4791  0.1981
49516SOL    HW260273   7.116   7.215   9.406 -0.9323  0.9083  0.1033
49517SOL     OW60274   4.752   5.759   0.984  0.1365 -0.6118  0.2863
49517SOL    HW160275   4.702   5.701   1.041 -0.5776 -0.0603  0.2339
49517SOL    HW260276   4.735   5.727   0.896 -0.8660  0.1053  0.1961
49518SOL     OW60277   7.712   2.139   4.819  0.0523  0.0712 -0.0353
49518SOL    HW160278   7.620   2.163   4.832 -0.2002 -0.5001 -0.6667
49518SOL    HW260279   7.724   2.143   4.724  0.3777 -0.8925 -0.0422
49519SOL     OW60280   8.463   4.903  10.925  0.1686  0.1708 -0.1282
49519SOL    HW160281   8.546   4.948  10.910  1.2472 -1.7759 -0.2649
49519SOL    HW260282   8.408   4.930  10.851  0.7615  1.2257 -0.2057
49520SOL     OW60283   5.373   0.737   0.407  0.2584 -0.6798  0.1481
49520SOL    HW160284   5.362   0.684   0.487  1.2456  1.1880  1.6145
49520SOL    HW260285   5.432   0.685   0.352 -1.4672 -2.6090 -0.0121
49521SOL     OW60286  11.767   7.824  11.552  0.6057  0.5034  0.0289
49521SOL    HW160287  11.812   7.853  11.473 -0.5717  0.5902 -0.6226
49521SOL    HW260288  11.730   7.904  11.589  0.6163  0.3702  0.3306
49522SOL     OW60289   7.327   4.047  11.159 -0.3485 -0.4107 -0.2799
49522SOL    HW160290   7.359   4.095  11.236 -1.7521 -0.1469  0.1624
49522SOL    HW260291   7.322   4.113  11.090 -1.6555 -0.0183  0.1542
49523SOL     OW60292   0.642   3.097   7.980 -0.3706  0.9164  0.6430
49523SOL    HW160293   0.546   3.103   7.980 -0.4866 -0.4280 -0.7792
49523SOL    HW260294   0.664   3.072   7.890  1.4221  2.4092  0.6122
49524SOL     OW60295  11.240   1.525  10.670 -0.2138  0.1034 -0.3150
49524SOL    HW160296  11.329   1.513  10.637  0.0330  0.4664  0.1955
49524SOL    HW260297  11.209   1.437  10.689  1.1721  0.0604  2.3860
49525SOL     OW60298   6.227   5.034   4.339 -0.4975 -0.3679 -0.5723
49525SOL    HW160299   6.222   4.949   4.384  1.5387 -0.0151  0.4611
49525SOL    HW260300   6.216   5.013   4.247  0.9343 -1.9367 -0.4430
49526SOL     OW60301   9.665  10.807   8.476 -0.3055 -0.4456 -0.3748
49526SOL    HW160302   9.717  10.727   8.487 -0.1424 -0.6273 -2.1113
49526SOL    HW260303   9.713  10.874   8.525 -1.1718 -1.6400  2.2701
49527SOL     OW60304   1.819   8.098  10.286  0.0123  0.1481 -0.0311
49527SOL    HW160305   1.869   8.176  10.310  1.5325 -0.6121 -0.6193
49527SOL    HW260306   1.741   8.133  10.241 -0.7966  1.4036  2.1994
49528SOL     OW60307   3.940   1.105  10.571 -0.2248 -0.3950 -0.2821
49528SOL    HW160308   3.977   1.191  10.591 -1.6922  0.3807 -0.7526
49528SOL    HW260309   3.970   1.049  10.642  0.2464  0.6651  0.3816
49529SOL     OW60310   8.176  11.829   5.342  0.0839  0.2630 -0.9403
49529SOL    HW160311   8.230  11.850   5.419  0.4055 -1.0496 -0.7819
49529SOL    HW260312   8.235  11.842   5.268  0.0980  0.4757 -0.8934
49530SOL     OW60313   0.331  11.709   5.747 -0.0751  0.1915 -0.4431
49530SOL    HW160314   0.423  11.731   5.761  0.2849 -1.4654  0.0727
49530SOL    HW260315   0.296  11.695   5.834 -0.3785 -0.7640 -0.7086
49531SOL     OW60316   0.303  11.783   9.518 -0.1326  0.4066 -0.4581
49531SOL    HW160317   0.346  11.844   9.459 -0.7121  1.7158  0.4359
49531SOL    HW260318   0.276  11.836   9.593 -2.1496 -0.6004 -0.3954
49532SOL     OW60319  11.594   0.241   5.390 -0.6862  0.0227  0.4713
49532SOL    HW160320  11.507   0.277   5.376  0.1132  1.3004 -1.7467
49532SOL    HW260321  11.649   0.318   5.407  0.7318 -0.1736 -2.5229
49533SOL     OW60322   7.507   9.853  10.699 -0.4129 -0.1937 -0.5290
49533SOL    HW160323   7.522   9.923  10.635 -1.1291  1.4428  1.0209
49533SOL    HW260324   7.437   9.800  10.661 -0.8677  0.7816 -1.0709
49534SOL     OW60325   2.727   9.261  10.289 -0.0140  0.2915 -0.0000
49534SOL    HW160326   2.687   9.342  10.319  1.3340  0.2988  1.9915
49534SOL    HW260327   2.660   9.219  10.234 -0.9167  2.4735 -0.6736
49535SOL     OW60328   7.589   5.317  10.707  0.0361  0.4343 -0.2950
49535SOL    HW160329   7.614   5.385  10.644 -1.2154 -1.3405 -2.8856
49535SOL    HW260330   7.498   5.336  10.728  0.5560  1.2513  1.4194
49536SOL     OW60331   6.083   4.097   5.571  0.4462 -0.3633  0.6717
49536SOL    HW160332   6.171   4.127   5.594 -0.0341 -0.2931  2.5752
49536SOL    HW260333   6.086   4.086   5.476  2.5097 -0.3866  0.6901
49537SOL     OW60334   6.122  11.529  10.240 -0.4535 -0.3964 -0.1645
49537SOL    HW160335   6.075  11.493  10.165 -1.1373  1.4782 -0.6835
49537SOL    HW260336   6.184  11.460  10.265 -2.1248 -2.1724 -0.6775
49538SOL     OW60337   0.539   4.641  10.439  0.2534  0.3699 -0.3886
49538SOL    HW160338   0.630   4.615  10.449  0.3409  1.0852  0.8174
49538SOL    HW260339   0.490   4.559  10.447  0.7948 -0.1467 -1.8412
49539SOL     OW60340   5.145   6.987   5.958  0.4802 -0.1452  0.5587
49539SOL    HW160341   5.206   7.049   5.918 -0.2730  0.4381  0.2901
49539SOL    HW260342   5.080   6.969   5.890  0.5587 -1.0503  0.7134
49540SOL     OW60343   5.030   0.479   8.832 -0.1263 -0.1109 -0.0831
49540SOL    HW160344   4.955   0.454   8.886 -1.4845  0.6931 -1.5211
49540SOL    HW260345   5.100   0.420   8.860 -0.9054 -0.1037  2.1390
49541SOL     OW60346   4.240   4.148   3.231  0.1907  0.5813 -0.5665
49541SOL    HW160347   4.161   4.187   3.267 -0.1542  2.3917 -3.0314
49541SOL    HW260348   4.218   4.056   3.218 -0.6934  0.5671  0.8476
49542SOL     OW60349   9.562   2.972   2.219  0.1451  0.2406 -0.0511
49542SOL    HW160350   9.481   3.007   2.257 -1.0357  0.3500 -2.4730
49542SOL    HW260351   9.546   2.879   2.209 -0.3260  0.4737 -1.8632
49543SOL     OW60352   0.311  11.378   4.326 -0.0546 -0.5761  0.2256
49543SOL    HW160353   0.395  11.337   4.305  0.4592 -0.3765  1.7326
49543SOL    HW260354   0.332  11.471   4.333 -0.5426 -0.4472  0.0009
49544SOL     OW60355   5.567   5.162   5.908 -0.4022  0.6199  0.2404
49544SOL    HW160356   5.649   5.124   5.938 -0.0976 -0.3557 -1.7004
49544SOL    HW260357   5.581   5.256   5.912  0.4034  0.4850  0.9192
49545SOL     OW60358   9.536  11.003   5.959  0.4808  0.2339 -0.0113
49545SOL    HW160359   9.448  10.972   5.980  0.0299  0.3068 -1.6352
49545SOL    HW260360   9.522  11.081   5.906  1.4581 -0.5263 -1.4836
49546SOL     OW60361   5.771   8.752   2.220  0.1804 -0.3675  0.1265
49546SOL    HW160362   5.830   8.819   2.186  1.0397 -0.5499  1.1754
49546SOL    HW260363   5.770   8.684   2.152  1.3776 -0.4636  0.1773
49547SOL     OW60364  11.534   1.498   6.488  0.1703  0.5090 -0.0929
49547SOL    HW160365  11.467   1.565   6.492 -1.4058 -1.0509  1.2049
49547SOL    HW260366  11.517   1.452   6.406 -0.5608 -0.0756  0.3799
49548SOL     OW60367   0.825   1.063   0.726  0.3543  0.5883 -0.2674
49548SOL    HW160368   0.775   0.998   0.775 -1.6045  2.1090 -0.1179
49548SOL    HW260369   0.846   1.020   0.643  1.6591 -1.1916  0.9107
49549SOL     OW60370   9.050   3.349  11.866  0.2529  0.2122 -0.4276
49549SOL    HW160371   9.144   3.361  11.881  0.5791 -1.5598 -0.7488
49549SOL    HW260372   9.021   3.295  11.939 -0.5858  0.9668 -0.1928
49550SOL     OW60373   5.515  10.677   3.479 -0.0705  0.3453  0.9764
49550SOL    HW160374   5.550  10.601   3.526 -0.8245  0.4004  1.6489
49550SOL    HW260375   5.424  10.683   3.508 -0.2058  1.1054  0.4165
49551SOL     OW60376  10.778   6.169  10.005  0.0169  0.5903 -0.4590
49551SOL    HW160377  10.866   6.163   9.969  0.3926  1.4958  0.2818
49551SOL    HW260378  10.721   6.150   9.931  0.8377 -1.0334 -0.7226
49552SOL     OW60379   3.563   8.324   6.454 -0.4213 -0.1028  0.6422
49552SOL    HW160380   3.568   8.230   6.437 -0.4932  0.1421 -0.8671
49552SOL    HW260381   3.634   8.361   6.402  0.0037  0.6264  1.7288
49553SOL     OW60382   0.562   9.518   6.140 -0.7925  0.2440  0.3289
49553SOL    HW160383   0.616   9.594   6.163  0.2261 -0.4008  0.1197
49553SOL    HW260384   0.514   9.546   6.062 -0.6764  0.7900  0.4495
49554SOL     OW60385   9.093   1.243   4.971  0.6454  0.0235 -0.4995
49554SOL    HW160386   9.147   1.274   4.898  3.1032 -1.0053  0.7503
49554SOL    HW260387   9.127   1.290   5.047 -1.0165  0.1407  0.2070
49555SOL     OW60388   5.429   1.947   8.053 -0.2865  0.3232  0.9440
49555SOL    HW160389   5.402   1.942   7.961  0.5958 -0.1851  0.6975
49555SOL    HW260390   5.501   1.884   8.060  0.4438  1.2211  1.7050
49556SOL     OW60391   1.878   6.289   0.343 -0.6135  0.3859 -0.0915
49556SOL    HW160392   1.922   6.346   0.405  2.4198  0.3223 -1.9739
49556SOL    HW260393   1.809   6.247   0.394  1.1501  0.9167  3.0024
49557SOL     OW60394   4.895   7.750   3.084  0.2843  0.2261  0.0856
49557SOL    HW160395   4.922   7.737   2.993  0.8743 -1.3313  0.4476
49557SOL    HW260396   4.973   7.784   3.128 -0.5306  2.8650 -0.3199
49558SOL     OW60397   9.940   4.520   2.589  0.1272  0.0168  0.3084
49558SOL    HW160398   9.948   4.587   2.656  3.0396  0.7586 -0.6507
49558SOL    HW260399   9.925   4.439   2.637 -1.3467  0.9820  1.5863
49559SOL     OW60400   4.548   9.455   3.723 -0.5406  0.3623 -0.3266
49559SOL    HW160401   4.573   9.382   3.666 -2.3852 -0.8393  0.3395
49559SOL    HW260402   4.631   9.484   3.761  0.2290 -1.7029 -0.2642
49560SOL     OW60403   4.629  11.808   0.804 -0.0626 -0.4687 -0.1036
49560SOL    HW160404   4.713  11.827   0.844 -0.7924  2.6592  0.1439
49560SOL    HW260405   4.650  11.793   0.711  0.7665  0.5144 -0.0924
49561SOL     OW60406   4.287  10.730   7.845 -0.0692 -0.1794 -0.2079
49561SOL    HW160407   4.308  10.803   7.787 -2.5983  0.5953 -0.2421
49561SOL    HW260408   4.278  10.655   7.786 -0.8484  0.2242 -0.6171
49562SOL     OW60409   7.165   3.866   9.330 -0.2031 -0.4493 -0.7875
49562SOL    HW160410   7.170   3.900   9.241 -0.6933  0.3998 -0.5060
49562SOL    HW260411   7.084   3.904   9.365  1.2915  1.4075  0.8780
49563SOL     OW60412   1.547   1.868   8.482  0.3960 -0.1500  0.0590
49563SOL    HW160413   1.462   1.912   8.471 -0.3356 -1.2893  0.8298
49563SOL    HW260414   1.611   1.932   8.452 -0.7833  0.4135 -1.4220
49564SOL     OW60415   0.782   6.798   3.972 -0.0646 -0.0040 -0.1578
49564SOL    HW160416   0.701   6.763   4.009  1.0621 -0.2319  2.2764
49564SOL    HW260417   0.835   6.721   3.953 -0.2440  0.1601 -1.3770
49565SOL     OW60418   7.207   6.855   9.308 -0.5732 -0.5331 -0.1546
49565SOL    HW160419   7.198   6.867   9.403  0.8603  0.1867 -0.0839
49565SOL    HW260420   7.208   6.760   9.296 -4.1702 -0.7424  0.1414
49566SOL     OW60421   5.631  10.654   1.794  0.3479  0.0819  0.1558
49566SOL    HW160422   5.700  10.610   1.745 -0.0891 -0.5845  0.1200
49566SOL    HW260423   5.670  10.736   1.823  0.7323  0.3255 -0.9865
49567SOL     OW60424   2.619   3.737   1.859 -0.0776 -0.2936  0.9630
49567SOL    HW160425   2.628   3.751   1.953 -1.8385 -1.1764  1.2994
49567SOL    HW260426   2.555   3.667   1.851  0.3540 -0.5371 -0.9006
49568SOL     OW60427   6.731  11.281   5.286  0.6886 -0.1367  0.2647
49568SOL    HW160428   6.646  11.249   5.316  1.0237 -0.1586  1.2265
49568SOL    HW260429   6.749  11.231   5.206  0.1450 -0.6623  0.4662
49569SOL     OW60430   0.197   6.538   6.471 -0.5462  0.4146 -0.1823
49569SOL    HW160431   0.167   6.499   6.553 -0.5091  1.2021  0.2213
49569SOL    HW260432   0.138   6.503   6.404 -3.1478  2.6952  0.7208
49570SOL     OW60433   4.758   8.115  11.692  0.0189  0.8353 -0.4831
49570SOL    HW160434   4.759   8.130  11.787 -0.9916 -1.2524 -0.0813
49570SOL    HW260435   4.849   8.097  11.669  0.0412 -0.3425  0.4374
49571SOL     OW60436   9.690   9.807  11.795  0.1819  0.0205  0.3103
49571SOL    HW160437   9.765   9.758  11.829  1.1890  1.1466 -0.2304
49571SOL    HW260438   9.638   9.742  11.748  0.6343 -0.8401  0.9739
49572SOL     OW60439  10.295   4.462   7.258 -0.2989 -0.2738 -0.1430
49572SOL    HW160440  10.379   4.416   7.260  0.5891  1.1760 -1.6121
49572SOL    HW260441  10.259   4.443   7.171  0.0061  1.5651 -0.7259
49573SOL     OW60442   7.537   0.511  11.482  0.0960 -0.0804  0.2764
49573SOL    HW160443   7.554   0.580  11.417 -2.5323  0.1641 -0.2689
49573SOL    HW260444   7.622   0.470  11.497  1.0075  0.6123 -2.4684
49574SOL     OW60445  11.737   4.789   4.887 -0.8072  0.2318  0.1981
49574SOL    HW160446  11.663   4.739   4.922 -0.6948 -0.3814 -0.4091
49574SOL    HW260447  11.788   4.813   4.964 -1.7051  0.7846  0.6387
49575SOL     OW60448   7.810   9.989  10.818  0.2542  0.2870 -0.1530
49575SOL    HW160449   7.757   9.950  10.748  2.3757 -1.9642 -0.6448
49575SOL    HW260450   7.782   9.944  10.897 -0.8897  1.5596  0.2054
49576SOL     OW60451   5.920  11.415   1.140  0.6361 -0.4036 -0.2864
49576SOL    HW160452   5.971  11.486   1.179  0.6442 -0.4280 -0.2525
49576SOL    HW260453   5.884  11.453   1.060  0.5860 -0.3400 -0.2343
49577SOL     OW60454   5.065   9.694   7.105  0.4524  0.4171  0.2562
49577SOL    HW160455   5.135   9.741   7.151  0.9117 -0.1511  0.1530
49577SOL    HW260456   5.000   9.676   7.173  1.6901 -1.5268  1.0293
49578SOL     OW60457   0.201   1.919  11.857  0.3459 -0.5075  0.0185
49578SOL    HW160458   0.182   1.999  11.906 -0.9670 -0.1085 -1.0748
49578SOL    HW260459   0.126   1.862  11.873 -0.0130 -0.4463 -1.3291
49579SOL     OW60460   4.891   8.798   2.974 -0.3535  0.6231 -0.5026
49579SOL    HW160461   4.914   8.818   3.065  0.0743  0.6021 -0.6029
49579SOL    HW260462   4.795   8.793   2.973 -0.3200 -0.4090  0.1646
49580SOL     OW60463   1.992   5.490  10.296  1.0105  0.5341  0.4191
49580SOL    HW160464   2.053   5.564  10.294 -0.6622  1.9869  1.1077
49580SOL    HW260465   2.008   5.448  10.381  0.6623  1.2621  0.8488
49581SOL     OW60466   9.656  11.866   8.959  0.3193  0.1373 -0.6602
49581SOL    HW160467   9.708  11.915   8.896 -0.5790  1.0271 -0.7326
49581SOL    HW260468   9.653  11.922   9.036 -0.3418 -0.0133 -0.5744
49582SOL     OW60469   5.668   8.410   8.249 -0.1417 -0.4362 -0.3926
49582SOL    HW160470   5.674   8.464   8.328 -1.3860  1.2756 -1.4170
49582SOL    HW260471   5.750   8.426   8.202  0.4281 -1.1523  0.3304
49583SOL     OW60472   4.481  11.016   7.051  0.0436 -0.3387  0.2460
49583SOL    HW160473   4.459  11.105   7.026 -0.1910 -0.6240 -0.5826
49583SOL    HW260474   4.552  10.991   6.992  1.5258  0.0038  1.8155
49584SOL     OW60475   8.987   0.801   6.678  0.0917 -0.2434 -0.1505
49584SOL    HW160476   9.071   0.756   6.689  1.2083  1.8250  0.1368
49584SOL    HW260477   9.005   0.872   6.617 -1.4347  0.3377  0.0267
49585SOL     OW60478   0.499  10.111   8.434 -0.2773 -0.2219  0.4138
49585SOL    HW160479   0.455  10.152   8.360 -0.6606 -0.2494  0.6262
49585SOL    HW260480   0.546  10.036   8.396  0.3772  0.3684  0.0338
49586SOL     OW60481   6.377   5.007   1.321 -0.2420  0.3920 -0.1498
49586SOL    HW160482   6.306   5.065   1.349 -2.4805 -1.2169 -2.0710
49586SOL    HW260483   6.340   4.919   1.329  0.6815 -0.3879 -3.2940
49587SOL     OW60484   8.641   7.555   2.142  0.7098  0.2064 -0.0280
49587SOL    HW160485   8.722   7.581   2.185  0.5478 -0.0222  0.4127
49587SOL    HW260486   8.580   7.539   2.213  0.0585  1.0843 -0.3833
49588SOL     OW60487   8.610   5.134  11.508 -0.4831 -0.5004 -0.6766
49588SOL    HW160488   8.576   5.164  11.593  2.0200  1.5345 -0.2476
49588SOL    HW260489   8.615   5.039  11.516  2.4618 -0.2654  2.7529
49589SOL     OW60490  11.279   1.632  10.935  0.3007 -0.3892 -0.3040
49589SOL    HW160491  11.231   1.598  10.859 -2.2370  0.1825  0.9255
49589SOL    HW260492  11.266   1.566  11.003  0.7020  0.1052  0.2663
49590SOL     OW60493   5.560   7.973   6.613  0.2079 -0.2311 -0.0130
49590SOL    HW160494   5.494   7.930   6.558  0.3610  1.7519 -1.8594
49590SOL    HW260495   5.563   8.063   6.582  1.4338  0.6074  2.2818
49591SOL     OW60496   8.729   5.074   6.370 -0.5043 -0.2443 -0.7013
49591SOL    HW160497   8.754   5.022   6.293  1.7182  0.2811 -0.3928
49591SOL    HW260498   8.691   5.154   6.333  2.1947  0.8222 -1.3962
49592SOL     OW60499   9.579   0.015   6.610  0.5797  0.3350 -0.0166
49592SOL    HW160500   9.632   0.061   6.546  1.5217  2.1568  1.9631
49592SOL    HW260501   9.639  -0.048   6.650  0.7768  1.0950  0.9211
49593SOL     OW60502   4.141   4.151   6.107  0.0322  0.1205  0.1108
49593SOL    HW160503   4.089   4.231   6.114  2.1703  1.5275  0.9544
49593SOL    HW260504   4.157   4.125   6.198  0.7367 -0.3309 -0.1348
49594SOL     OW60505   9.611   7.187   5.572  0.2160 -0.2255 -0.7296
49594SOL    HW160506   9.696   7.232   5.568 -0.3504  0.9487 -0.0343
49594SOL    HW260507   9.633   7.097   5.595  1.2996 -0.0203 -0.8700
49595SOL     OW60508   3.956   7.298   5.548  0.0164  0.4983 -0.2159
49595SOL    HW160509   3.867   7.312   5.580 -0.3009 -1.2982 -0.1986
49595SOL    HW260510   3.955   7.332   5.458 -0.8701 -0.0292 -0.4192
49596SOL     OW60511   5.684   4.387   2.917  0.6406  0.1491 -0.1347
49596SOL    HW160512   5.777   4.409   2.911  0.9692 -1.2635 -0.7948
49596SOL    HW260513   5.682   4.309   2.973  0.4441 -2.5963 -3.5890
49597SOL     OW60514   0.646   7.080   8.106  0.8871 -0.2409 -0.4786
49597SOL    HW160515   0.606   7.150   8.157 -0.2777 -0.9435 -0.3784
49597SOL    HW260516   0.722   7.053   8.157 -0.0689 -0.7107  0.7705
49598SOL     OW60517   9.001   3.995   0.583 -0.3129  0.1688  0.2067
49598SOL    HW160518   9.089   4.011   0.549 -0.5114 -1.3333 -1.1280
49598SOL    HW260519   8.943   4.043   0.525 -0.4112  1.0088  0.9758
49599SOL     OW60520   4.831   6.622   9.437 -0.0717  0.0250  0.3660
49599SOL    HW160521   4.915   6.577   9.435 -0.0947 -0.0304  0.6363
49599SOL    HW260522   4.784   6.589   9.360  0.6525  1.0319 -0.5431
49600SOL     OW60523   7.628  10.130   2.081 -0.0683 -0.0559 -0.0603
49600SOL    HW160524   7.679  10.166   2.154  0.9208  1.0348 -1.2627
49600SOL    HW260525   7.596  10.207   2.034  1.4723 -0.6570 -2.2568
49601SOL     OW60526   8.441  11.250   3.398 -0.0887 -0.2201  0.4428
49601SOL    HW160527   8.498  11.187   3.354  0.4838  0.6072 -0.0309
49601SOL    HW260528   8.482  11.263   3.484  0.2201  0.0737  0.2531
49602SOL     OW60529   8.244   2.516   7.275 -0.3564  0.2784 -0.5517
49602SOL    HW160530   8.198   2.462   7.339 -1.3856 -1.5937 -2.7286
49602SOL    HW260531   8.323   2.546   7.322 -0.6185 -1.6745  1.3210
49603SOL     OW60532   1.061   1.771   2.508 -0.2788 -0.5257  0.3921
49603SOL    HW160533   1.057   1.685   2.466 -1.0904 -1.1197  1.6224
49603SOL    HW260534   1.140   1.768   2.562 -0.5532 -0.6894  0.7937
49604SOL     OW60535   3.776   5.611   0.266  0.2535 -0.1286  0.3577
49604SOL    HW160536   3.731   5.626   0.183  0.9586 -0.8166 -0.1614
49604SOL    HW260537   3.761   5.691   0.316  1.9912  1.4230 -1.4257
49605SOL     OW60538   8.700   4.844   7.082  0.5018  0.1568  0.4182
49605SOL    HW160539   8.700   4.866   6.989  1.0301  1.0118  0.6107
49605SOL    HW260540   8.611   4.815   7.100  0.4409 -0.1724 -0.3888
49606SOL     OW60541   6.391   8.673   1.910 -0.4404 -0.5962 -0.9366
49606SOL    HW160542   6.429   8.613   1.846  0.0308 -1.5442  0.1769
49606SOL    HW260543   6.439   8.755   1.898  1.6085 -1.5740  0.0072
49607SOL     OW60544   9.686   4.205   3.354 -0.0739  0.1705  0.0403
49607SOL    HW160545   9.652   4.125   3.314  0.5922  1.3085 -3.0099
49607SOL    HW260546   9.744   4.174   3.424  0.2732 -2.0232 -1.1493
49608SOL     OW60547   9.981   5.115   7.493 -0.2624 -0.0556 -0.2348
49608SOL    HW160548  10.056   5.172   7.478 -0.0159  0.1768  1.7117
49608SOL    HW260549  10.017   5.026   7.485 -0.4301 -0.0035 -2.1805
49609SOL     OW60550  10.578  11.264   5.792  0.6500 -0.3642  0.3440
49609SOL    HW160551  10.638  11.285   5.720  0.6847 -1.4379  0.0482
49609SOL    HW260552  10.605  11.322   5.863  0.7674  0.5465 -0.4237
49610SOL     OW60553   6.611   5.288   9.238  0.2186 -0.0368  0.1543
49610SOL    HW160554   6.531   5.235   9.234  0.5777 -0.8232  2.0346
49610SOL    HW260555   6.668   5.250   9.172 -0.1638 -0.9392  0.3195
49611SOL     OW60556  11.475   8.021  10.094  0.4017 -0.2661 -0.1127
49611SOL    HW160557  11.549   8.081  10.101 -0.9841  1.4915  0.0992
49611SOL    HW260558  11.418   8.045  10.166 -0.8239 -0.9442 -0.8355
49612SOL     OW60559   4.937  11.248   8.982  0.1937  0.5364  0.6332
49612SOL    HW160560   4.859  11.304   8.990  1.1294  1.9780  0.1797
49612SOL    HW260561   4.905  11.160   9.000 -1.1507  1.3275  2.5177
49613SOL     OW60562   9.804   6.031   9.778 -0.6488 -0.8502  0.4420
49613SOL    HW160563   9.879   6.085   9.801  2.1242 -4.2386  0.1234
49613SOL    HW260564   9.746   6.039   9.854  0.3954  1.1377  1.1228
49614SOL     OW60565  10.762   4.231   5.850 -0.0966 -0.2526  0.4612
49614SOL    HW160566  10.747   4.326   5.852  0.5052 -0.1566  0.6601
49614SOL    HW260567  10.854   4.221   5.874  0.2230 -0.8056 -0.8971
49615SOL     OW60568   5.738   1.427  10.862  0.1749 -0.1032  0.4047
49615SOL    HW160569   5.794   1.488  10.814  0.7888  0.5496  1.8804
49615SOL    HW260570   5.761   1.341  10.827 -0.2054  0.4208 -1.2238
49616SOL     OW60571   2.970   8.475   9.004  0.1195  0.1744  0.2471
49616SOL    HW160572   2.991   8.383   8.988 -0.9678  0.0849 -0.8685
49616SOL    HW260573   2.877   8.474   9.028 -0.0755  1.0334 -0.4512
49617SOL     OW60574   7.022   5.891   7.227 -0.2813 -0.2529  0.7418
49617SOL    HW160575   6.950   5.832   7.204 -1.5307  1.0894  1.0873
49617SOL    HW260576   6.994   5.977   7.196  1.1790  0.3096  0.8996
49618SOL     OW60577   7.133   7.069   3.557  0.2792  0.4132 -0.0613
49618SOL    HW160578   7.086   7.080   3.474  2.6086 -0.5276 -1.6065
49618SOL    HW260579   7.169   7.156   3.575 -0.7055  0.7600  0.3148
49619SOL     OW60580  11.794   2.847   3.926  0.0507 -0.2047 -0.5257
49619SOL    HW160581  11.880   2.812   3.905  0.4114  1.0474 -1.1962
49619SOL    HW260582  11.733   2.776   3.903  0.9055 -1.3151  0.4987
49620SOL     OW60583   1.318   5.470   3.156  0.0258 -0.1093  0.5543
49620SOL    HW160584   1.349   5.385   3.189  0.6521 -0.0957  0.0364
49620SOL    HW260585   1.275   5.511   3.231  0.1052 -0.7040  0.9322
49621SOL     OW60586  10.380   2.878   0.161 -0.1148  0.2657 -0.6164
49621SOL    HW160587  10.406   2.886   0.070  4.8628  0.2692  0.5501
49621SOL    HW260588  10.365   2.968   0.190  2.2636  0.7120 -0.5849
49622SOL     OW60589   7.536   5.234   0.912  0.4618  0.3515  0.0838
49622SOL    HW160590   7.450   5.219   0.872  0.6876  3.2355 -1.8206
49622SOL    HW260591   7.588   5.158   0.886 -1.8367 -2.4294  2.8295
49623SOL     OW60592   3.948   9.376   5.851 -0.3302 -0.4881 -0.0793
49623SOL    HW160593   4.000   9.399   5.774  1.9731 -1.4405  1.1067
49623SOL    HW260594   3.920   9.460   5.887  0.6190  0.0745 -0.6122
49624SOL     OW60595   4.921   4.668  10.650 -0.2789  0.0069  0.4322
49624SOL    HW160596   4.875   4.689  10.731  1.9752 -2.8317  2.6794
49624SOL    HW260597   5.012   4.656  10.677  1.3115  2.2877 -3.2150
49625SOL     OW60598   5.226   0.368   5.824  0.2083 -0.3621 -0.1176
49625SOL    HW160599   5.199   0.423   5.897 -1.0518  1.9159 -2.1410
49625SOL    HW260600   5.322   0.368   5.828  0.1815  0.4884  0.9614
49626SOL     OW60601   4.542   1.737   5.264 -0.4543  0.3431 -0.3072
49626SOL    HW160602   4.531   1.831   5.282 -0.5036  0.3802 -0.5383
49626SOL    HW260603   4.453   1.703   5.254 -0.4886  0.0896  0.6896
49627SOL     OW60604   1.274  11.874   3.934 -0.5912 -0.3395 -0.0682
49627SOL    HW160605   1.239  11.883   4.023 -0.9867 -0.2119 -0.2342
49627SOL    HW260606   1.362  11.838   3.947  0.9743  3.2110  0.6865
49628SOL     OW60607   4.466  10.430   5.459  0.3017 -0.1243  0.0249
49628SOL    HW160608   4.481  10.401   5.369  0.3238 -1.1892  0.3591
49628SOL    HW260609   4.553  10.440   5.497  0.2925 -2.0357  0.6395
49629SOL     OW60610  11.774   9.331   8.367 -0.5502 -0.1833  0.5364
49629SOL    HW160611  11.844   9.333   8.301  0.8619  2.0045  1.9414
49629SOL    HW260612  11.814   9.369   8.445 -2.9092 -0.2694  1.8871
49630SOL     OW60613   1.285   0.309   7.613 -0.1607 -0.1940  0.0603
49630SOL    HW160614   1.223   0.336   7.546  0.8795  1.5977 -0.2420
49630SOL    HW260615   1.370   0.335   7.579  0.4056  0.6543  2.0063
49631SOL     OW60616   4.271   5.524   3.916 -0.2069 -0.0808  0.2143
49631SOL    HW160617   4.316   5.521   4.000 -0.7665  0.1354  0.5322
49631SOL    HW260618   4.214   5.601   3.922  0.8123  0.8050 -0.9230
49632SOL     OW60619   9.177   3.488   2.999  0.1796  0.1886 -0.1347
49632SOL    HW160620   9.243   3.487   2.929  0.1848  1.0391 -0.1529
49632SOL    HW260621   9.114   3.420   2.973  0.9722 -0.5448 -0.1830
49633SOL     OW60622   8.595   8.809   1.823  0.2363 -0.3921 -0.0795
49633SOL    HW160623   8.666   8.863   1.786 -0.0745 -0.2134 -0.4218
49633SOL    HW260624   8.595   8.731   1.767 -1.7523  0.8651 -2.0030
49634SOL     OW60625   6.782   5.571   6.975 -0.4912 -0.4754 -0.0665
49634SOL    HW160626   6.844   5.499   6.988  0.1488  0.0718  0.0108
49634SOL    HW260627   6.716   5.536   6.916  0.0020 -1.0194 -0.3050
49635SOL     OW60628   5.549   9.617   9.011  0.0097  0.1894  0.9852
49635SOL    HW160629   5.455   9.598   9.023  0.1558 -1.1608  0.2332
49635SOL    HW260630   5.551   9.706   8.976 -1.2290 -0.7341 -1.7275
49636SOL     OW60631   7.080  10.096   0.881 -0.1252 -0.6801  0.2417
49636SOL    HW160632   7.026  10.148   0.941  0.4382  0.8267 -0.5032
49636SOL    HW260633   7.060  10.131   0.794  1.4399 -0.5984 -0.1287
49637SOL     OW60634   4.823  10.951   9.635 -0.1578 -0.4709  0.5673
49637SOL    HW160635   4.900  10.894   9.637 -0.0613 -0.3301  1.1120
49637SOL    HW260636   4.823  10.994   9.721 -0.7282 -0.3183  0.4962
49638SOL     OW60637   6.810   9.159   1.340 -0.0299  0.2522 -0.3869
49638SOL    HW160638   6.891   9.175   1.390 -0.1057 -1.2710  0.2695
49638SOL    HW260639   6.840   9.126   1.256  0.0682  1.9592 -1.0678
49639SOL     OW60640  10.983   0.857   4.735 -0.1554 -0.0363  0.4515
49639SOL    HW160641  10.936   0.934   4.703  1.8280  1.7438  1.5128
49639SOL    HW260642  10.975   0.861   4.830  0.6573 -0.6734  0.5614
49640SOL     OW60643   0.682   3.897   5.981  0.3125  0.0698  0.6812
49640SOL    HW160644   0.685   3.965   6.049  1.8398 -0.7782  1.5186
49640SOL    HW260645   0.728   3.936   5.907  0.3643  0.2918  0.8259
49641SOL     OW60646   4.649   3.306   9.240  0.1111 -0.1861 -0.4750
49641SOL    HW160647   4.705   3.359   9.297 -0.0003  0.6303 -1.0956
49641SOL    HW260648   4.629   3.364   9.166 -1.3310 -0.5552 -0.3991
49642SOL     OW60649   8.028   0.379   0.338  1.2204 -0.2647  0.3822
49642SOL    HW160650   8.016   0.443   0.408 -1.1186  1.1414 -1.1601
49642SOL    HW260651   8.063   0.430   0.264  0.1805 -0.9238 -0.5984
49643SOL     OW60652   9.006   8.595   9.763  0.6924  0.6901  0.1349
49643SOL    HW160653   8.994   8.665   9.828  2.1284  0.3311  0.8163
49643SOL    HW260654   9.043   8.522   9.813  1.7261  0.3737 -1.0596
49644SOL     OW60655  10.584   4.165   2.419  0.1771  0.2122 -0.0799
49644SOL    HW160656  10.676   4.139   2.418  0.2890  0.6338 -0.9914
49644SOL    HW260657  10.536   4.082   2.423  0.5947 -0.0019  0.5430
49645SOL     OW60658   2.864   1.835   5.270 -0.6792  0.3374 -0.1227
49645SOL    HW160659   2.873   1.835   5.365 -0.7291 -0.2405 -0.1184
49645SOL    HW260660   2.954   1.840   5.237 -0.6572  0.4420 -0.0465
49646SOL     OW60661   8.455   7.209   7.793  0.4136 -0.2336 -0.4110
49646SOL    HW160662   8.374   7.162   7.775  0.3508 -0.4612  0.4381
49646SOL    HW260663   8.482   7.243   7.707 -1.1624  0.8061 -0.5414
49647SOL     OW60664  10.493   7.178  11.371  0.5049  0.3471  0.3057
49647SOL    HW160665  10.568   7.144  11.323  1.7549  0.9965  1.7163
49647SOL    HW260666  10.527   7.255  11.418 -1.1630  0.9537  0.5898
49648SOL     OW60667   1.934   6.006   4.845  0.7390 -0.0905  0.1229
49648SOL    HW160668   1.926   5.920   4.803  0.5629  0.7444 -1.6537
49648SOL    HW260669   1.845   6.040   4.847  1.1504  1.3972 -2.3175
49649SOL     OW60670   8.129   7.493   3.629 -0.2923  0.1705 -0.1129
49649SOL    HW160671   8.103   7.522   3.542 -1.0530  0.3087  0.1582
49649SOL    HW260672   8.165   7.571   3.671  0.4271  0.0176 -0.4276
49650SOL     OW60673   6.750   6.843   2.923  0.0986  0.2718 -0.0486
49650SOL    HW160674   6.671   6.809   2.882  1.7987 -2.3832 -1.4513
49650SOL    HW260675   6.784   6.770   2.975  1.6611  1.2580  0.3958
49651SOL     OW60676   1.496   5.633   8.114  0.6339 -0.3587 -0.1033
49651SOL    HW160677   1.426   5.573   8.086  0.3334 -0.4367  0.8001
49651SOL    HW260678   1.451   5.716   8.130  0.5236 -0.7335  1.6722
49652SOL     OW60679   5.741  11.429  11.730  0.4442  0.7299  0.1665
49652SOL    HW160680   5.656  11.467  11.753 -0.3179 -0.2074 -0.9969
49652SOL    HW260681   5.773  11.484  11.659  0.3706  0.5211 -0.0281
49653SOL     OW60682   3.200   6.992   2.048 -0.0461  0.5053  0.2627
49653SOL    HW160683   3.245   6.920   2.003 -1.2792  0.1164 -0.3984
49653SOL    HW260684   3.215   6.974   2.141  1.1053  0.3703  0.0728
49654SOL     OW60685   8.224   9.393   5.647 -0.1685  0.0477 -0.3590
49654SOL    HW160686   8.260   9.307   5.622 -0.7928 -0.0539 -0.9233
49654SOL    HW260687   8.289   9.456   5.615  0.4215 -0.2219  0.2887
49655SOL     OW60688   3.440   5.961   3.268  0.3707  0.2534  1.2740
49655SOL    HW160689   3.502   5.940   3.339  1.4707 -0.0170  0.2592
49655SOL    HW260690   3.391   5.880   3.256  0.1825  0.2966  1.7095
49656SOL     OW60691   6.288   0.180   5.520  0.3297  0.5395  0.0552
49656SOL    HW160692   6.288   0.245   5.450  0.2001 -1.8025 -2.2750
49656SOL    HW260693   6.198   0.146   5.521  0.6028 -0.2074  0.6343
49657SOL     OW60694   0.589   1.408   0.798 -0.3068  0.1165 -0.0764
49657SOL    HW160695   0.578   1.492   0.842 -0.9316  0.4254 -0.7967
49657SOL    HW260696   0.654   1.361   0.851 -1.6142  0.1350  1.6637
49658SOL     OW60697   0.425   0.014   8.180  0.0406  0.0183 -1.3816
49658SOL    HW160698   0.422   0.068   8.101 -0.3735  0.5629 -0.9974
49658SOL    HW260699   0.372   0.061   8.244  0.0907 -0.5893 -0.8796
49659SOL     OW60700   6.982   2.694   4.592 -0.3631 -0.2746 -0.5554
49659SOL    HW160701   6.914   2.748   4.632  0.0143  0.3333 -0.7216
49659SOL    HW260702   7.059   2.750   4.589  0.2852 -1.1111  0.0457
49660SOL     OW60703   7.428   2.116  11.047 -0.6575  0.3593  0.7718
49660SOL    HW160704   7.426   2.064  11.127 -0.9030  0.4116  0.8005
49660SOL    HW260705   7.518   2.148  11.041  0.0761 -1.7074 -0.3082
49661SOL     OW60706   5.709   0.058   6.659  0.4523 -0.6962  0.0302
49661SOL    HW160707   5.781   0.058   6.722  0.4169 -0.2998  0.0725
49661SOL    HW260708   5.656   0.134   6.683 -0.4683 -1.4744  0.5435
49662SOL     OW60709   2.519   3.578  10.315  0.2299 -0.5933 -0.2459
49662SOL    HW160710   2.581   3.638  10.273  0.6588 -1.4453 -0.8624
49662SOL    HW260711   2.433   3.615  10.294  0.5034  0.9941  1.2118
49663SOL     OW60712  11.679   1.592   3.576 -0.4719 -0.2394  0.0551
49663SOL    HW160713  11.680   1.687   3.589 -0.5869 -0.2059 -0.1789
49663SOL    HW260714  11.771   1.566   3.579 -0.3956 -0.0352 -0.5107
49664SOL     OW60715   3.536   8.519   2.190 -0.5088 -0.1539  0.1310
49664SOL    HW160716   3.544   8.493   2.098  3.8810 -0.0227  0.2495
49664SOL    HW260717   3.541   8.436   2.239 -1.6299 -0.1254  0.3266
49665SOL     OW60718   2.900   0.055   3.127 -0.1160 -0.2077 -0.0238
49665SOL    HW160719   2.897  -0.025   3.178 -0.9534 -0.7134 -0.8330
49665SOL    HW260720   2.816   0.098   3.145 -0.9116 -0.9293 -1.7669
49666SOL     OW60721   9.166   0.767   0.033  0.0878 -0.8994 -0.6148
49666SOL    HW160722   9.248   0.752   0.081 -0.5944 -2.3518  0.1651
49666SOL    HW260723   9.145   0.859   0.049  2.7201  0.1995 -2.7389
49667SOL     OW60724   0.057   3.273  11.173 -0.0369 -0.5285  0.1388
49667SOL    HW160725   0.027   3.364  11.180 -0.9510 -0.8409  0.3044
49667SOL    HW260726   0.058   3.256  11.079  0.5519 -0.2155  0.0822
49668SOL     OW60727   1.656   0.732   9.925  0.2190 -0.3475 -0.2331
49668SOL    HW160728   1.609   0.657   9.890 -0.3264 -1.0436  1.8198
49668SOL    HW260729   1.601   0.807   9.904  0.5087 -0.5717 -1.8493
49669SOL     OW60730   1.239   6.040   5.564  0.1439  0.4627 -0.3500
49669SOL    HW160731   1.330   6.013   5.571 -0.1942 -0.8840 -0.8460
49669SOL    HW260732   1.203   5.985   5.495 -0.9134  1.3527 -0.5357
49670SOL     OW60733   3.213   2.606   9.017  0.3296  0.0716 -0.1386
49670SOL    HW160734   3.231   2.570   8.930  2.4309 -0.9389  0.6427
49670SOL    HW260735   3.119   2.596   9.029  0.5102 -3.7141 -0.6665
49671SOL     OW60736   7.337  10.450   7.181  0.3105  0.0559 -0.5712
49671SOL    HW160737   7.360  10.366   7.220  1.0454  0.2481 -0.5861
49671SOL    HW260738   7.413  10.474   7.128  0.3899  1.0579 -0.0266
49672SOL     OW60739   2.540   4.489   2.249  0.2844 -0.0026  0.2612
49672SOL    HW160740   2.547   4.399   2.216  0.2640 -0.1551  0.6660
49672SOL    HW260741   2.506   4.479   2.338 -0.7326  0.4691 -0.0622
49673SOL     OW60742   2.732   6.493   3.878  0.6245 -0.4291  0.2407
49673SOL    HW160743   2.645   6.499   3.839  0.5928  0.9692  0.4861
49673SOL    HW260744   2.734   6.562   3.944  0.9380 -2.2370  2.2385
49674SOL     OW60745  11.375   9.464  10.574 -0.0816  0.0326 -0.3582
49674SOL    HW160746  11.366   9.532  10.508  0.7513  0.1043 -0.4118
49674SOL    HW260747  11.468   9.463  10.596 -0.2063 -0.5565  0.2115
49675SOL     OW60748   4.873   7.499  10.657 -0.1341  0.3042 -0.1185
49675SOL    HW160749   4.872   7.589  10.625 -2.0261  0.4765  0.2658
49675SOL    HW260750   4.809   7.498  10.728 -0.6014 -1.4519 -0.4913
49676SOL     OW60751   7.303   9.053   3.405 -0.7806 -0.2860 -0.2570
49676SOL    HW160752   7.389   9.021   3.378 -0.4737  0.6512 -0.4099
49676SOL    HW260753   7.321   9.113   3.477 -1.2044  0.7405 -0.9907
49677SOL     OW60754   9.679   4.682   5.629 -0.3818  0.0445  0.1233
49677SOL    HW160755   9.729   4.738   5.569 -0.8104  0.9511  0.5904
49677SOL    HW260756   9.671   4.599   5.582  1.2916 -0.0434 -0.1019
49678SOL     OW60757   7.176  11.179   2.928  0.1886  0.2154  0.8729
49678SOL    HW160758   7.131  11.215   3.005 -1.2495 -1.7620  1.0304
49678SOL    HW260759   7.112  11.120   2.888  0.4427  1.9380 -2.5306
49679SOL     OW60760   1.432   2.370   3.610 -0.4120  0.4812  0.7794
49679SOL    HW160761   1.510   2.420   3.589 -0.7683  0.3284 -1.0764
49679SOL    HW260762   1.410   2.397   3.699  2.0789  0.0427  1.6017
49680SOL     OW60763   4.010   0.456   4.008  0.0898 -0.3206  0.0938
49680SOL    HW160764   4.075   0.391   4.034  0.6747  0.1975 -0.0394
49680SOL    HW260765   3.975   0.489   4.090  2.9082  2.3052  0.4438
49681SOL     OW60766   2.068  11.343   3.538  0.4537  0.3258 -0.1092
49681SOL    HW160767   2.091  11.417   3.481  0.7714  0.3674  0.0690
49681SOL    HW260768   1.979  11.320   3.513  0.5438  0.4297 -0.5354
49682SOL     OW60769   3.714   3.456  11.038  0.2842  0.2678  0.1309
49682SOL    HW160770   3.655   3.412  11.100 -0.2781  0.0739 -0.5301
49682SOL    HW260771   3.757   3.524  11.090  1.9265 -1.6518  1.4461
49683SOL     OW60772   3.366   3.922   1.303  0.1117  0.2176 -0.3725
49683SOL    HW160773   3.454   3.886   1.296  1.3053  2.6485  0.7240
49683SOL    HW260774   3.375   3.997   1.362 -2.0765  2.3486 -2.4583
49684SOL     OW60775  10.711   5.936   6.485 -0.2638 -0.2257 -0.1677
49684SOL    HW160776  10.731   5.988   6.407  0.2945  1.0624  0.8025
49684SOL    HW260777  10.615   5.933   6.489 -0.2938  0.0033 -0.6948
49685SOL     OW60778   2.919   4.097   1.982  0.4588  0.6267 -0.0454
49685SOL    HW160779   2.888   4.115   1.893 -0.4125 -0.0733  0.1012
49685SOL    HW260780   3.007   4.061   1.971  0.4920  0.8751 -0.5962
49686SOL     OW60781   9.610   8.715  10.120 -0.4201  0.0691  0.4936
49686SOL    HW160782   9.538   8.748  10.067  2.4717  1.8925 -2.7452
49686SOL    HW260783   9.634   8.632  10.079 -0.2279 -0.2070  1.1459
49687SOL     OW60784   3.842   6.860   4.867 -0.6706  0.1829  0.4681
49687SOL    HW160785   3.900   6.788   4.892  0.8787  0.2000 -2.6125
49687SOL    HW260786   3.871   6.934   4.920 -0.4206 -0.7648  1.6854
49688SOL     OW60787  10.177   8.668   6.543 -0.1615 -0.1263  0.6141
49688SOL    HW160788  10.116   8.736   6.515  0.3541 -0.1635 -0.7094
49688SOL    HW260789  10.126   8.587   6.543  0.2166 -0.4818 -2.2856
49689SOL     OW60790   1.458   1.400  11.355 -0.4357 -0.2039  0.2044
49689SOL    HW160791   1.367   1.429  11.353 -0.7607 -1.1941 -1.7197
49689SOL    HW260792   1.510   1.480  11.358 -1.3521  0.3970  0.1189
49690SOL     OW60793  11.621   2.495   1.163  0.5194 -0.9934  0.1562
49690SOL    HW160794  11.602   2.410   1.201  1.5209 -1.0836  0.4670
49690SOL    HW260795  11.713   2.511   1.183  0.1508  0.5229  0.7939
49691SOL     OW60796   4.319   0.067   2.965 -0.4147  0.3497  0.4909
49691SOL    HW160797   4.239   0.070   3.017  0.6455 -1.5491  2.3781
49691SOL    HW260798   4.326  -0.024   2.935  1.5867  0.1621  1.3445
49692SOL     OW60799   4.921   9.485  10.106 -0.5360 -0.3043 -0.2012
49692SOL    HW160800   4.886   9.562  10.061 -1.4259 -0.6653 -0.1453
49692SOL    HW260801   4.988   9.452  10.046  0.2422  0.8182  0.0238
49693SOL     OW60802   8.911   5.348   4.191  0.1506  0.1335  0.2745
49693SOL    HW160803   8.819   5.352   4.165  0.3644  0.5078 -0.4671
49693SOL    HW260804   8.958   5.384   4.116  0.8085  1.2036  1.1759
49694SOL     OW60805   7.945   4.468  11.427  0.6947  0.2134 -0.3039
49694SOL    HW160806   8.036   4.482  11.453  0.1516 -0.9299  2.5686
49694SOL    HW260807   7.924   4.544  11.374  2.4518  2.0834  1.4611
49695SOL     OW60808   6.633   0.860   0.287  0.4799  0.2801 -0.2036
49695SOL    HW160809   6.588   0.920   0.226  0.7987 -2.2697 -3.2300
49695SOL    HW260810   6.562   0.813   0.330  0.2534  0.5623 -0.2621
49696SOL     OW60811   4.139   6.917   2.865 -0.2016  1.1887  0.0814
49696SOL    HW160812   4.137   6.879   2.953 -1.5281 -0.1632 -0.4714
49696SOL    HW260813   4.223   6.889   2.829 -0.7416 -0.4832  0.0375
49697SOL     OW60814   6.431   2.560   6.378  0.0336 -0.7187  0.0973
49697SOL    HW160815   6.360   2.509   6.339  1.6475 -0.9804 -2.7516
49697SOL    HW260816   6.399   2.650   6.375 -0.3614 -0.8737 -0.8146
49698SOL     OW60817   3.099   6.855   3.594  0.3322  0.5065  0.3011
49698SOL    HW160818   3.104   6.790   3.665  1.2759 -1.4586 -1.4371
49698SOL    HW260819   3.190   6.866   3.566 -0.0764  0.7438 -1.0040
49699SOL     OW60820   8.356   3.569   9.428  0.1195 -0.3538  0.0627
49699SOL    HW160821   8.282   3.619   9.395 -0.3260 -0.3023  1.0963
49699SOL    HW260822   8.417   3.636   9.460 -0.2624 -0.4443  1.0039
49700SOL     OW60823  10.532   6.551   5.678  0.2355 -0.5185 -0.4488
49700SOL    HW160824  10.462   6.605   5.714  0.7285  2.2882 -3.3132
49700SOL    HW260825  10.536   6.476   5.737 -3.1761  0.5972  1.5086
49701SOL     OW60826   3.274   4.686   2.207 -0.0007 -0.5306  0.0877
49701SOL    HW160827   3.239   4.683   2.296 -1.1818 -1.2298 -0.3842
49701SOL    HW260828   3.340   4.756   2.210  0.0804 -0.6352  1.5352
49702SOL     OW60829  10.092   7.296  11.196 -0.0753 -0.4472 -0.1717
49702SOL    HW160830  10.089   7.230  11.265  1.6329  0.4228  0.8107
49702SOL    HW260831  10.074   7.247  11.115  3.5762 -2.7566  0.1751
49703SOL     OW60832   5.678  11.845   0.034 -0.1478  0.0431 -0.1533
49703SOL    HW160833   5.624  11.803  -0.033 -0.3681 -0.2042  0.1740
49703SOL    HW260834   5.703  11.774   0.093 -0.0766  0.2823  0.1055
49704SOL     OW60835   9.124   4.084   3.165 -0.2331 -0.2891  0.0738
49704SOL    HW160836   9.187   4.122   3.225  1.9672 -0.5868 -1.9114
49704SOL    HW260837   9.052   4.147   3.163  1.3004  1.5571  0.2387
49705SOL     OW60838   9.456   1.381  10.073  0.1581  0.0041 -0.4692
49705SOL    HW160839   9.416   1.301  10.039 -1.0764 -0.9296  2.7862
49705SOL    HW260840   9.385   1.445  10.075  0.6161  0.5518 -1.0499
49706SOL     OW60841  11.542   5.956   6.297  0.3347 -0.1929  0.4908
49706SOL    HW160842  11.618   5.910   6.333  0.7328  0.2409  0.2276
49706SOL    HW260843  11.517   6.018   6.365  0.4605 -0.0700  0.4268
49707SOL     OW60844   7.072   1.564   2.608 -0.0181  0.3328  0.5128
49707SOL    HW160845   7.047   1.487   2.559 -1.3159 -0.4147  2.2622
49707SOL    HW260846   7.052   1.543   2.699  3.5031  1.1256  1.6347
49708SOL     OW60847   7.909   9.139   0.672  0.5328 -0.1362 -0.0459
49708SOL    HW160848   7.831   9.188   0.647  0.3917  0.5836  1.7031
49708SOL    HW260849   7.982   9.191   0.637  0.4424  1.9319  2.4855
49709SOL     OW60850   7.207   6.026   1.944 -0.7316  0.2719  0.4018
49709SOL    HW160851   7.290   5.982   1.928 -0.7002  0.9826 -1.6410
49709SOL    HW260852   7.155   5.963   1.994  0.3954 -0.8713  0.1659
49710SOL     OW60853   4.801   5.878   2.744 -0.0125  0.0171  0.2959
49710SOL    HW160854   4.715   5.887   2.784 -0.1358 -0.9955  0.2902
49710SOL    HW260855   4.847   5.815   2.799  0.3129 -0.3187 -0.3442
49711SOL     OW60856   4.494   1.947   7.600  0.0233  0.6432 -0.0820
49711SOL    HW160857   4.406   1.979   7.619  0.6237  2.1029  0.3387
49711SOL    HW260858   4.537   2.019   7.555  0.6101 -0.5376 -1.4771
49712SOL     OW60859   3.322   1.386   0.336 -0.5454  0.4892 -0.6278
49712SOL    HW160860   3.274   1.451   0.386 -1.8432 -0.3374 -0.7507
49712SOL    HW260861   3.332   1.312   0.397 -0.8419  0.0482 -1.1032
49713SOL     OW60862   3.843   3.502  11.415  0.7329 -0.2136  0.1474
49713SOL    HW160863   3.795   3.425  11.444 -0.5211  0.2034 -0.7473
49713SOL    HW260864   3.812   3.573  11.472 -1.0439  0.4089 -1.4661
49714SOL     OW60865   9.584   5.534   1.374 -0.0817  0.1854 -0.2701
49714SOL    HW160866   9.614   5.466   1.434  0.2684  0.3640 -0.2426
49714SOL    HW260867   9.496   5.506   1.349  0.3733 -0.7162 -0.9081
49715SOL     OW60868   5.916  11.519   4.897 -0.0895  0.0046 -0.0706
49715SOL    HW160869   5.980  11.573   4.851 -0.7154  1.1649  0.3766
49715SOL    HW260870   5.909  11.559   4.984 -0.6508 -0.7324  0.2346
49716SOL     OW60871   1.551   5.793   5.865 -0.0732  0.4813 -0.1530
49716SOL    HW160872   1.577   5.817   5.776 -0.8573 -0.9895 -0.8150
49716SOL    HW260873   1.632   5.801   5.916  1.1477 -1.3773 -1.6121
49717SOL     OW60874  11.111   6.805  10.953  0.1406  0.8555  0.8263
49717SOL    HW160875  11.074   6.872  10.896 -0.9634  0.7030  1.3316
49717SOL    HW260876  11.062   6.813  11.035  0.1645 -0.3770  0.9883
49718SOL     OW60877   2.003   6.735   0.447 -0.9185  0.7954 -0.1013
49718SOL    HW160878   2.073   6.800   0.451 -1.6559  1.7714 -1.6600
49718SOL    HW260879   1.923   6.787   0.458 -1.4903  0.0962 -0.8458
49719SOL     OW60880   1.326   8.146   7.219  0.7035 -0.2289  0.4805
49719SOL    HW160881   1.323   8.235   7.254  0.5615 -0.6997  1.7286
49719SOL    HW260882   1.261   8.146   7.148  2.4301  1.2991 -1.2000
49720SOL     OW60883   4.486   6.681   6.801  0.2516  0.5960 -0.1949
49720SOL    HW160884   4.546   6.692   6.875  1.7784  1.2230 -1.4765
49720SOL    HW260885   4.400   6.705   6.836  0.5370 -1.0994  1.9130
49721SOL     OW60886   6.701   8.156  10.577  0.3070 -0.6561 -0.0951
49721SOL    HW160887   6.670   8.194  10.660  0.2069 -0.4174 -0.2424
49721SOL    HW260888   6.686   8.225  10.512  0.3020 -0.8780 -0.3282
49722SOL     OW60889   6.365   1.316   8.967 -0.2704  0.4857  0.2037
49722SOL    HW160890   6.334   1.243   9.020 -0.9936  0.4629 -0.2291
49722SOL    HW260891   6.338   1.394   9.015  0.7957  0.4862  0.8341
49723SOL     OW60892   3.965   6.653   2.465  0.7703  0.6666  0.6571
49723SOL    HW160893   3.957   6.749   2.462  1.3766  0.8654  2.9979
49723SOL    HW260894   3.980   6.634   2.558  1.3300 -1.6630  0.1421
49724SOL     OW60895   9.146   3.902   4.332 -0.5271 -0.4312  0.0212
49724SOL    HW160896   9.200   3.957   4.389 -0.9774 -0.2982  0.3270
49724SOL    HW260897   9.209   3.853   4.279 -0.1225  0.3559 -0.2321
49725SOL     OW60898   4.800   8.207   3.048  0.5705  0.2364 -0.2191
49725SOL    HW160899   4.863   8.226   2.979  1.7750 -0.8736  0.5441
49725SOL    HW260900   4.817   8.274   3.115 -0.0254  0.7890 -0.6047
49726SOL     OW60901  10.251   1.537   8.139  0.7564 -0.0845 -0.2825
49726SOL    HW160902  10.321   1.474   8.119  1.5802  0.5252  0.6024
49726SOL    HW260903  10.173   1.483   8.152  0.9105 -0.7365 -1.8445
49727SOL     OW60904   4.314  11.197   1.051  0.1936 -0.3229 -0.3763
49727SOL    HW160905   4.377  11.130   1.074  1.2316  0.0364 -1.9970
49727SOL    HW260906   4.359  11.280   1.070 -0.0434 -0.0760 -0.8593
49728SOL     OW60907   2.942   8.969   8.941 -0.3371 -0.4885 -0.0359
49728SOL    HW160908   2.896   8.985   8.858 -2.6555 -2.1394  0.8257
49728SOL    HW260909   2.986   8.885   8.928  2.0783  0.8000 -0.6431
49729SOL     OW60910   1.143   6.718   0.314 -0.0565 -0.2799 -0.1355
49729SOL    HW160911   1.087   6.700   0.239 -0.8977 -0.2022  0.4595
49729SOL    HW260912   1.210   6.777   0.281  0.5148 -1.4704 -1.1950
49730SOL     OW60913   2.460  11.079   9.705 -0.0954  0.3529  0.2093
49730SOL    HW160914   2.555  11.067   9.713  0.1597  1.7147 -0.4467
49730SOL    HW260915   2.451  11.165   9.664 -1.4854 -1.4350 -3.8162
49731SOL     OW60916   6.673   7.357   2.468  0.2490  0.0707  0.0575
49731SOL    HW160917   6.659   7.312   2.552  0.1666  1.0792  0.5931
49731SOL    HW260918   6.756   7.403   2.479 -0.3735  1.2232  0.0430
49732SOL     OW60919   0.297   6.934   8.724 -0.0175  0.2339  0.1046
49732SOL    HW160920   0.372   6.902   8.774  0.2821  1.7642  0.7219
49732SOL    HW260921   0.227   6.942   8.789 -0.2953  0.1456 -0.1801
49733SOL     OW60922   7.112   1.185   2.686  0.9633  0.3112 -0.0945
49733SOL    HW160923   7.154   1.107   2.723  2.7553  1.0965 -0.3854
49733SOL    HW260924   7.085   1.158   2.598  0.8732 -0.2091  0.0889
49734SOL     OW60925   8.344   9.332  11.815  0.2319 -0.6940 -0.2777
49734SOL    HW160926   8.311   9.417  11.844 -3.2871 -2.1901  0.5293
49734SOL    HW260927   8.394   9.299  11.890  0.9632  0.2785 -0.3112
49735SOL     OW60928  10.374   9.867  10.717  0.2792 -0.0099 -0.3684
49735SOL    HW160929  10.312   9.814  10.668  3.0847 -3.0984 -0.9879
49735SOL    HW260930  10.363   9.838  10.808  0.4238 -0.1520 -0.3958
49736SOL     OW60931   7.809  10.787   5.955  0.4440 -0.1130  0.3054
49736SOL    HW160932   7.768  10.704   5.928 -0.4893  0.4839 -0.1425
49736SOL    HW260933   7.777  10.851   5.892  1.8576  0.4464  0.1152
49737SOL     OW60934   7.432   3.142   3.917  0.4135 -0.7291 -0.5273
49737SOL    HW160935   7.476   3.179   3.993  2.0473  0.2099 -1.8661
49737SOL    HW260936   7.501   3.129   3.852 -0.8250 -2.0679 -1.6587
49738SOL     OW60937   6.058   2.350   5.961  0.2923 -0.0085  0.2229
49738SOL    HW160938   6.002   2.420   5.994  1.4213  1.0238 -0.0026
49738SOL    HW260939   6.096   2.310   6.039 -1.7258 -1.6445  0.4949
49739SOL     OW60940   8.117   5.948   4.608  0.1370  0.1123  0.4439
49739SOL    HW160941   8.205   5.957   4.645  1.6462  1.1318 -3.0279
49739SOL    HW260942   8.073   5.886   4.667  2.1149  1.7405  3.9496
49740SOL     OW60943   0.637  10.304   9.409 -0.5248 -0.0147  0.4575
49740SOL    HW160944   0.718  10.253   9.414  2.1750  3.7684 -0.9301
49740SOL    HW260945   0.621  10.316   9.316 -0.2031  2.7414  0.6740
49741SOL     OW60946   5.324   5.566   7.009  0.1723 -0.4998 -0.1557
49741SOL    HW160947   5.368   5.561   7.094  1.3876  0.1648 -0.7292
49741SOL    HW260948   5.262   5.494   7.011  1.7784 -1.9319  0.4001
49742SOL     OW60949  10.975   9.019  10.210 -0.3375 -0.7080  0.7865
49742SOL    HW160950  11.052   9.076  10.217  0.0103 -0.7138 -1.9014
49742SOL    HW260951  11.007   8.940  10.166 -1.8155 -0.7603 -0.2936
49743SOL     OW60952   3.351   5.188   7.178 -0.6026 -0.2447 -0.3433
49743SOL    HW160953   3.353   5.113   7.238  0.2568 -0.2125 -0.3221
49743SOL    HW260954   3.308   5.257   7.227 -1.7574 -0.8324 -0.4971
49744SOL     OW60955  11.005   1.050   2.897  0.1041  0.7043  0.0371
49744SOL    HW160956  11.046   1.113   2.957 -0.8929  0.2281  1.2536
49744SOL    HW260957  10.950   1.104   2.840 -1.8901  0.9120  1.9948
49745SOL     OW60958   2.693   0.682  11.209  0.1320  0.3171  0.9769
49745SOL    HW160959   2.682   0.653  11.300 -1.8927  0.3755  0.7996
49745SOL    HW260960   2.670   0.775  11.211 -1.7050 -0.0734  0.1523
49746SOL     OW60961  10.211   6.635   0.536 -0.3555  0.5712  0.1191
49746SOL    HW160962  10.227   6.729   0.539 -1.3699  0.7479  1.7029
49746SOL    HW260963  10.150   6.622   0.464 -0.1099  1.1149 -0.1829
49747SOL     OW60964  11.257   7.122   6.329  0.5035 -0.2864  0.3604
49747SOL    HW160965  11.182   7.137   6.387  1.9639 -0.1213  2.2730
49747SOL    HW260966  11.234   7.169   6.249 -0.6916  1.2242  1.5224
49748SOL     OW60967   0.848   2.571   3.943  0.0188  0.2110 -0.4636
49748SOL    HW160968   0.884   2.576   3.854  1.3447 -0.6392 -0.0114
49748SOL    HW260969   0.754   2.584   3.931 -0.1279 -1.8090 -2.2559
49749SOL     OW60970   7.205  11.873   6.170  0.1959 -0.3013 -0.1328
49749SOL    HW160971   7.128  11.865   6.225  0.0525  1.4194 -0.0050
49749SOL    HW260972   7.170  11.879   6.081  0.2585 -0.6254 -0.1792
49750SOL     OW60973   3.304   1.711   1.775 -0.5990 -0.0354  0.1715
49750SOL    HW160974   3.254   1.691   1.853  2.2854  0.9369  2.4589
49750SOL    HW260975   3.271   1.796   1.746  0.6492  1.4200  2.6429
49751SOL     OW60976   0.466   7.822   7.589 -0.6320  0.4547  0.1418
49751SOL    HW160977   0.459   7.825   7.685 -2.0691 -0.3107  0.0962
49751SOL    HW260978   0.458   7.913   7.561  1.8285  0.9322  0.8245
49752SOL     OW60979   7.465   5.433   6.389 -0.1772  0.2495  0.3729
49752SOL    HW160980   7.517   5.353   6.388 -1.0600 -0.3772  1.7376
49752SOL    HW260981   7.389   5.411   6.443 -0.7081  1.8396  0.3110
49753SOL     OW60982   4.433   0.791   2.303 -0.0620 -0.3940 -0.1107
49753SOL    HW160983   4.362   0.816   2.244  0.2807 -0.2062 -0.4442
49753SOL    HW260984   4.394   0.725   2.360  0.1998 -2.3530 -2.0340
49754SOL     OW60985   6.303   8.909   2.941 -0.2506  0.6078  0.0109
49754SOL    HW160986   6.276   8.992   2.980 -0.7531 -0.2295  1.5250
49754SOL    HW260987   6.386   8.889   2.983  0.8810  1.2764 -1.8038
49755SOL     OW60988   4.245  10.969   6.769  0.2126  0.7347 -0.1281
49755SOL    HW160989   4.169  10.999   6.720 -0.8901 -2.1643 -0.3782
49755SOL    HW260990   4.319  10.986   6.711 -0.9417 -1.6418 -2.4827
49756SOL     OW60991   8.014   2.649   4.180  0.0441  0.7799  0.1239
49756SOL    HW160992   8.056   2.636   4.265  0.3031  1.6646  0.1394
49756SOL    HW260993   7.922   2.630   4.196  0.2054  0.2062  0.4183
49757SOL     OW60994  10.446   9.540   5.252  0.5198  0.1285  0.5925
49757SOL    HW160995  10.427   9.634   5.251  0.2516  0.0834 -0.6047
49757SOL    HW260996  10.509   9.528   5.322  2.3643  1.5748 -0.7336
49758SOL     OW60997   6.249   3.383   7.398 -0.9199 -0.1692 -0.3319
49758SOL    HW160998   6.328   3.434   7.381 -1.0654  0.3888  0.6130
49758SOL    HW260999   6.212   3.422   7.477 -1.0870 -1.6748  0.3686
49759SOL     OW61000   5.372   7.051   7.585  0.1923  0.2871  0.0235
49759SOL    HW161001   5.451   7.102   7.568  1.3910 -1.6997 -0.7803
49759SOL    HW261002   5.318   7.064   7.508  0.4115  0.4817 -0.0986
49760SOL     OW61003   0.575  11.628   7.674 -0.5595  0.1460  0.1161
49760SOL    HW161004   0.608  11.538   7.670  0.3498  0.4685  0.1298
49760SOL    HW261005   0.651  11.680   7.700 -1.9283  0.4591  4.0343
49761SOL     OW61006   7.569   4.428   0.660 -0.0403  0.0312 -0.0104
49761SOL    HW161007   7.561   4.362   0.591  0.9183  0.6873 -0.7670
49761SOL    HW261008   7.663   4.434   0.677 -0.2830 -0.6404  1.9028
49762SOL     OW61009   5.612   6.947   1.242  0.3007  0.0985  0.6124
49762SOL    HW161010   5.579   7.011   1.304 -1.2592  1.8340 -1.8533
49762SOL    HW261011   5.534   6.904   1.208  0.7878  1.1925 -2.1403
49763SOL     OW61012   7.200   6.792  10.293  0.6440  0.0497  0.4397
49763SOL    HW161013   7.286   6.793  10.251 -0.2477  5.0201 -2.0538
49763SOL    HW261014   7.143   6.749  10.229  0.6151  0.5530  0.1197
49764SOL     OW61015   9.404   9.806   4.524  0.8081  0.4046 -0.1703
49764SOL    HW161016   9.419   9.899   4.540  1.1335  0.0408  1.8112
49764SOL    HW261017   9.448   9.761   4.596  0.6033 -1.2990 -1.0469
49765SOL     OW61018   1.813   4.584   7.932  0.3574 -0.9234 -0.1232
49765SOL    HW161019   1.735   4.541   7.968  0.2465 -2.7068 -2.2725
49765SOL    HW261020   1.886   4.533   7.966  0.3694 -1.2871 -0.6756
49766SOL     OW61021   7.344  10.843   6.007  0.1117  0.3880 -0.5807
49766SOL    HW161022   7.260  10.821   6.048 -0.3499  2.0926 -0.4948
49766SOL    HW261023   7.404  10.858   6.080  0.2974 -0.1370 -0.6241
49767SOL     OW61024   9.180   0.072   4.388  0.1854 -0.4360  0.0845
49767SOL    HW161025   9.145   0.092   4.475 -1.2897 -0.1921 -0.5349
49767SOL    HW261026   9.216   0.155   4.357  1.2223 -0.6480  0.6533
49768SOL     OW61027   8.099   0.204  10.297  0.0943 -0.2732 -0.0592
49768SOL    HW161028   8.143   0.254  10.366 -0.5079 -1.1954  1.0177
49768SOL    HW261029   8.026   0.261  10.270  0.9664  0.5630 -0.7336
49769SOL     OW61030   1.850  10.062   3.876  0.2198  0.4081 -0.0769
49769SOL    HW161031   1.874  10.138   3.823  1.6034  0.9556  1.2496
49769SOL    HW261032   1.932  10.013   3.886 -0.2780 -0.3294  0.5568
49770SOL     OW61033   4.007   1.030   2.628 -0.2965  0.5487 -0.1081
49770SOL    HW161034   4.047   1.101   2.679 -0.7657 -0.4729  1.8100
49770SOL    HW261035   3.914   1.051   2.628 -0.3841  0.1705  0.0993
49771SOL     OW61036   2.194   3.164   6.827 -0.0460  0.3607  0.1768
49771SOL    HW161037   2.119   3.182   6.770 -1.1572  0.8498  1.7043
49771SOL    HW261038   2.250   3.105   6.777 -1.9744 -0.8773 -0.6290
49772SOL     OW61039  11.437   5.513   8.760 -0.1165  0.0805  0.0587
49772SOL    HW161040  11.396   5.517   8.673 -2.4599 -2.9171  0.8866
49772SOL    HW261041  11.396   5.586   8.808 -1.4356 -0.3331 -0.3786
49773SOL     OW61042   3.248   3.210   4.317 -0.1558  0.2503 -0.0962
49773SOL    HW161043   3.326   3.172   4.356 -0.9555 -0.4906  0.8412
49773SOL    HW261044   3.228   3.286   4.372  0.3776  0.9644 -0.8557
49774SOL     OW61045   7.726   0.129  11.670  0.1444  0.3430 -0.6535
49774SOL    HW161046   7.770   0.055  11.628  0.8702  0.1380  0.4171
49774SOL    HW261047   7.683   0.092  11.747 -0.4099  0.8544 -0.7051
49775SOL     OW61048  11.405   2.598   0.819 -0.2690 -0.1281 -0.0164
49775SOL    HW161049  11.491   2.640   0.808 -0.4203 -0.2107 -1.7256
49775SOL    HW261050  11.364   2.646   0.891  1.2427 -0.1630  0.9195
49776SOL     OW61051   7.554  11.666   3.321  0.1104  0.4907 -0.2628
49776SOL    HW161052   7.597  11.664   3.406 -1.2291 -1.6782  0.4511
49776SOL    HW261053   7.462  11.646   3.340 -0.4829  1.2556 -2.0942
49777SOL     OW61054  11.735   2.549   2.474 -0.0954 -0.0813  0.5018
49777SOL    HW161055  11.781   2.618   2.425  0.0566  0.2691  1.1371
49777SOL    HW261056  11.793   2.529   2.547 -1.2132  0.7792  1.6514
49778SOL     OW61057   4.864   2.399   3.756  0.0060 -0.7891  0.5663
49778SOL    HW161058   4.803   2.473   3.755  0.4728 -0.3900  1.0349
49778SOL    HW261059   4.891   2.389   3.664 -1.4055 -1.5303  0.1910
49779SOL     OW61060   8.575   4.801  11.299  0.3010 -0.6623 -0.1069
49779SOL    HW161061   8.598   4.708  11.298  3.7821 -0.0067  1.5288
49779SOL    HW261062   8.592   4.828  11.390 -3.2574  1.0953  0.1918
49780SOL     OW61063   3.503   6.632   2.115  0.0649 -0.4952 -0.0608
49780SOL    HW161064   3.520   6.703   2.177  0.4329 -0.4054 -0.2630
49780SOL    HW261065   3.494   6.554   2.170 -1.4760 -0.1196  0.2651
49781SOL     OW61066  10.524   1.507   6.227 -0.5613  0.1834 -0.4428
49781SOL    HW161067  10.587   1.482   6.160 -1.7078 -3.2752 -0.4732
49781SOL    HW261068  10.485   1.588   6.195  2.5831  1.5128 -1.2333
49782SOL     OW61069   8.847   5.168  10.663 -0.6700 -0.7022  0.4877
49782SOL    HW161070   8.877   5.247  10.708  1.9894 -0.4045 -1.5555
49782SOL    HW261071   8.781   5.199  10.601  1.2488  0.2631 -1.2021
49783SOL     OW61072   3.028   2.748   6.676 -0.1163  0.0599  0.3160
49783SOL    HW161073   2.994   2.761   6.765 -1.4759  1.4619 -0.3627
49783SOL    HW261074   3.016   2.832   6.633  2.1380 -0.0858 -0.7179
49784SOL     OW61075   4.145   5.602   1.530 -0.0073 -0.3561 -0.4796
49784SOL    HW161076   4.110   5.513   1.539  1.7576 -0.9485  1.1514
49784SOL    HW261077   4.067   5.657   1.523 -1.2072 -1.8736  0.1425
49785SOL     OW61078   0.350   1.344   9.399 -0.7257 -0.1175 -0.1016
49785SOL    HW161079   0.425   1.351   9.458  0.6329 -3.0882 -1.2844
49785SOL    HW261080   0.342   1.432   9.361  0.5048  0.9613  1.9212
49786SOL     OW61081   5.326   2.956   6.594 -0.5543 -0.3441  0.2204
49786SOL    HW161082   5.308   2.873   6.636  0.6371  0.3744  2.3094
49786SOL    HW261083   5.257   3.015   6.626  0.2415  0.1549  1.0754
49787SOL     OW61084   7.971   1.853   9.306 -0.5979 -0.0607  0.0765
49787SOL    HW161085   7.960   1.792   9.379 -0.7679  0.1274  0.2114
49787SOL    HW261086   8.065   1.871   9.304 -0.2031 -1.9145 -1.2664
49788SOL     OW61087   6.006   9.393   4.250 -0.0745  0.5499 -0.1259
49788SOL    HW161088   5.916   9.409   4.278 -0.0828  0.8736 -0.3365
49788SOL    HW261089   6.052   9.365   4.330 -0.0607  1.6023  0.2515
49789SOL     OW61090   7.342   4.375   5.095  0.1231 -0.2981  0.2782
49789SOL    HW161091   7.372   4.302   5.041 -0.1692  0.7223 -1.3246
49789SOL    HW261092   7.416   4.435   5.098  0.0790 -0.2612  0.9111
49790SOL     OW61093   9.224   6.889   5.566 -0.0309 -0.0883 -0.0942
49790SOL    HW161094   9.241   6.853   5.479 -0.3314  1.4041 -0.8086
49790SOL    HW261095   9.203   6.813   5.620  2.0861 -1.2741 -0.8251
49791SOL     OW61096   7.004   2.049   9.074 -0.0253 -0.2565 -0.0084
49791SOL    HW161097   6.989   1.984   9.006 -2.4040 -0.6834  0.8455
49791SOL    HW261098   7.089   2.087   9.052  0.8172 -2.6692 -1.3116
49792SOL     OW61099   0.207   4.997   3.493 -0.0705  0.1692 -0.1089
49792SOL    HW161100   0.145   4.938   3.449  0.3107 -0.1401 -0.2363
49792SOL    HW261101   0.269   4.938   3.537 -0.2460  0.4736  0.5624
49793SOL     OW61102   4.245  10.107   5.548  0.4118 -0.5850  0.2119
49793SOL    HW161103   4.226  10.188   5.502  2.6208 -0.4280 -0.5563
49793SOL    HW261104   4.267  10.044   5.479  1.0157 -1.1496  0.8998
49794SOL     OW61105   2.192   5.110   5.242  0.2828  0.1306  0.1755
49794SOL    HW161106   2.275   5.117   5.194  0.3361 -2.4843 -0.2430
49794SOL    HW261107   2.218   5.098   5.333  0.2728  1.2366  0.3418
49795SOL     OW61108   6.058   9.625  10.522 -0.1273  0.1416  0.0313
49795SOL    HW161109   6.014   9.697  10.475 -0.2777  0.6848  0.9870
49795SOL    HW261110   5.992   9.557  10.528 -0.8009  0.8799  1.2868
49796SOL     OW61111  10.382   9.071   3.928  0.1082  0.4157  0.2757
49796SOL    HW161112  10.305   9.088   3.982 -0.8677  0.2928 -1.0332
49796SOL    HW261113  10.363   8.988   3.884  0.8312  0.5682 -0.3502
49797SOL     OW61114   9.343  10.069  10.727  0.1002  0.0726 -0.4060
49797SOL    HW161115   9.429  10.090  10.691 -1.1637  2.0900 -2.4659
49797SOL    HW261116   9.333  10.127  10.802 -0.1695  1.2360 -1.3090
49798SOL     OW61117   5.112   9.694   4.135  0.3436  0.1472 -0.3065
49798SOL    HW161118   5.079   9.784   4.138  1.5402  0.6071 -0.5582
49798SOL    HW261119   5.202   9.702   4.106  0.3957 -1.1684 -0.5742
49799SOL     OW61120   9.943   2.667  10.419  0.2969  0.4080  0.2592
49799SOL    HW161121   9.873   2.642  10.480 -0.2820  1.3117 -0.0126
49799SOL    HW261122   9.909   2.643  10.333  1.0456 -0.7152  0.2500
49800SOL     OW61123   9.226   5.024   6.211  0.0714 -0.2494 -0.4824
49800SOL    HW161124   9.144   5.067   6.189  1.2807  2.4965 -0.0635
49800SOL    HW261125   9.246   5.054   6.300  2.0372  0.0338 -0.9717
49801SOL     OW61126   4.759   5.154   1.831  0.1148  0.0152  0.9474
49801SOL    HW161127   4.767   5.142   1.736 -3.8222  0.0179  0.4303
49801SOL    HW261128   4.780   5.246   1.845 -0.7604  0.4150 -0.2033
49802SOL     OW61129   9.258   1.829   3.807 -0.4371  0.3061  0.3466
49802SOL    HW161130   9.174   1.820   3.761  0.7952  0.8568 -2.1982
49802SOL    HW261131   9.307   1.891   3.753  1.1050  1.0898  2.5682
49803SOL     OW61132   3.403   7.667   7.110  0.0818 -0.5202 -0.1346
49803SOL    HW161133   3.422   7.727   7.038 -0.0151  0.8106  0.9311
49803SOL    HW261134   3.474   7.603   7.106  1.4796  0.9628  0.1001
49804SOL     OW61135   2.988   7.113   1.567 -0.3715  0.2597  0.1778
49804SOL    HW161136   2.977   7.087   1.475 -0.3219  1.4859 -0.1885
49804SOL    HW261137   3.083   7.109   1.581 -0.4101 -0.3000  0.2927
49805SOL     OW61138   9.407  10.059   7.058 -0.6121  0.0615 -0.4828
49805SOL    HW161139   9.347  10.133   7.063 -1.1011 -0.3692  0.0937
49805SOL    HW261140   9.441  10.062   6.968 -1.8893  0.0088 -0.9896
49806SOL     OW61141   6.841   2.345   2.251 -0.0642  0.5720  0.6338
49806SOL    HW161142   6.880   2.288   2.185  0.3901  1.5208  0.0659
49806SOL    HW261143   6.801   2.285   2.314 -1.3878 -0.3241 -1.0136
49807SOL     OW61144   2.894   9.998   5.510 -0.3716  0.4287  0.0533
49807SOL    HW161145   2.958   9.935   5.477 -0.9197  0.5318 -1.2438
49807SOL    HW261146   2.944  10.077   5.526 -0.4867  1.3594 -3.3719
49808SOL     OW61147  10.475   2.785   4.237  0.1780 -0.1299  0.4803
49808SOL    HW161148  10.449   2.718   4.174  0.0113 -0.7804  1.2222
49808SOL    HW261149  10.503   2.859   4.184 -2.4231  0.3177 -0.3757
49809SOL     OW61150   3.359   0.339   6.379  0.6615 -0.4360 -0.2242
49809SOL    HW161151   3.339   0.342   6.473 -0.2832  2.3646 -0.4091
49809SOL    HW261152   3.296   0.277   6.342 -1.8238  1.4798  0.5027
49810SOL     OW61153   0.827   5.632   3.402  0.1258  0.9270 -0.3922
49810SOL    HW161154   0.797   5.606   3.490  1.0478 -1.6148 -0.7484
49810SOL    HW261155   0.773   5.580   3.342  1.6249  0.2594 -1.2026
49811SOL     OW61156   6.403   9.293   4.116 -0.0082  0.0525 -0.0166
49811SOL    HW161157   6.336   9.269   4.052  0.2244 -2.3084  0.5359
49811SOL    HW261158   6.382   9.383   4.140 -2.8120 -0.4988 -0.0837
49812SOL     OW61159   4.508   2.340   7.714  0.3271 -0.2756  0.2121
49812SOL    HW161160   4.596   2.364   7.685  0.8181 -0.4163  1.5492
49812SOL    HW261161   4.521   2.268   7.775 -0.5700  0.6660  1.5785
49813SOL     OW61162   2.285   5.873  11.584 -0.3553 -0.3766 -0.2183
49813SOL    HW161163   2.342   5.879  11.507 -0.1843  0.1574 -0.0486
49813SOL    HW261164   2.197   5.859  11.547 -0.3835  0.5988 -0.5447
49814SOL     OW61165   6.994   0.496   5.510  0.9888  0.3996  0.3684
49814SOL    HW161166   6.982   0.499   5.415 -2.0216  0.2014  0.6215
49814SOL    HW261167   6.986   0.403   5.532  0.1258  0.5933  0.9217
49815SOL     OW61168   5.984   9.484   6.754  0.4780  0.2339 -0.0464
49815SOL    HW161169   5.929   9.459   6.679 -0.1110  0.7803  0.1915
49815SOL    HW261170   6.018   9.402   6.787 -0.3744 -0.1419 -0.0729
49816SOL     OW61171   4.008  10.576   0.911  0.4239  0.7155  0.2300
49816SOL    HW161172   4.067  10.524   0.855 -0.1162  1.3428 -0.9593
49816SOL    HW261173   4.033  10.667   0.894 -1.6280  1.0757 -1.2281
49817SOL     OW61174   3.510   3.251   3.619 -0.3832  0.1537  0.1669
49817SOL    HW161175   3.545   3.309   3.688 -1.3411  1.2903 -0.2662
49817SOL    HW261176   3.416   3.268   3.619 -1.2509 -3.5690  2.0073
49818SOL     OW61177   6.415  11.321   9.178 -0.2474 -0.0783 -0.4510
49818SOL    HW161178   6.402  11.415   9.167  1.7325  0.0822 -1.8608
49818SOL    HW261179   6.497  11.314   9.227 -0.3794 -1.0725 -0.3550
49819SOL     OW61180   4.767   9.020   7.849 -0.2027  0.6143  0.1402
49819SOL    HW161181   4.782   8.970   7.769  0.7822 -1.6798  1.6675
49819SOL    HW261182   4.695   8.976   7.892 -0.0082  1.1678  1.0525
49820SOL     OW61183   4.369   1.127  10.205 -0.2746  0.4324 -0.1441
49820SOL    HW161184   4.402   1.216  10.214  0.4524  0.2046 -0.4939
49820SOL    HW261185   4.415   1.077  10.272  0.2395  0.0781 -0.7446
49821SOL     OW61186  11.390   4.372   3.490 -0.6699 -0.4849  0.0544
49821SOL    HW161187  11.313   4.319   3.470  0.3332 -1.6904 -0.7619
49821SOL    HW261188  11.364   4.462   3.469 -2.4566 -0.5805  1.6240
49822SOL     OW61189   5.324   9.286   1.879 -0.0438  0.8034 -0.6654
49822SOL    HW161190   5.330   9.344   1.804 -0.4145  2.3451  0.4436
49822SOL    HW261191   5.231   9.283   1.900 -0.0663 -0.4311 -0.8545
49823SOL     OW61192  10.275   0.258   0.835  0.0931  0.0003  0.3352
49823SOL    HW161193  10.346   0.196   0.822  1.1816  0.7282  2.4723
49823SOL    HW261194  10.316   0.344   0.830 -0.3169  0.4192  2.9461
49824SOL     OW61195   7.779   3.946   3.459  0.2007  0.7156 -0.5626
49824SOL    HW161196   7.741   4.032   3.440 -0.9204  0.7743  1.5672
49824SOL    HW261197   7.865   3.965   3.498 -0.2979  0.9368  0.4629
49825SOL     OW61198   2.387   1.341   0.839 -0.2362  0.1024 -0.3235
49825SOL    HW161199   2.429   1.286   0.773 -0.6663  0.4418 -0.8817
49825SOL    HW261200   2.459   1.369   0.896  0.2898  0.5590 -1.1901
49826SOL     OW61201   8.460   0.247   9.445  0.6412 -0.0025 -0.6152
49826SOL    HW161202   8.524   0.209   9.384  0.9578  1.0808 -0.9882
49826SOL    HW261203   8.514   0.291   9.511  0.2964 -1.0590  0.3977
49827SOL     OW61204   9.518  11.875   2.160  0.1962 -0.4643  0.6408
49827SOL    HW161205   9.431  11.888   2.197 -0.4746 -1.5760 -0.4491
49827SOL    HW261206   9.506  11.809   2.092  2.1243 -1.5880  1.2976
49828SOL     OW61207   1.831   1.422   0.886  0.6435 -0.1025  0.4355
49828SOL    HW161208   1.833   1.514   0.860  3.7009 -0.4003 -0.7580
49828SOL    HW261209   1.923   1.395   0.888 -0.1968 -3.6117 -1.0437
49829SOL     OW61210   4.973   7.998   2.879  0.1797 -0.4077 -0.2337
49829SOL    HW161211   4.883   8.020   2.905  0.0254 -1.6881  0.4350
49829SOL    HW261212   4.968   7.906   2.853  1.0598 -0.1367 -1.4612
49830SOL     OW61213   8.958   3.714   6.219  0.1714  0.3285  0.2612
49830SOL    HW161214   9.044   3.675   6.207  0.0340  0.3805 -1.0400
49830SOL    HW261215   8.928   3.735   6.131 -1.7445 -0.9244  0.5325
49831SOL     OW61216  10.062   9.244  10.064 -0.2454  0.5503 -0.1414
49831SOL    HW161217  10.138   9.266  10.009  0.6588  0.6215  1.0820
49831SOL    HW261218   9.987   9.248  10.005  0.6156  1.2063 -1.2313
49832SOL     OW61219   4.642   4.043   5.938  0.0110  0.0066  0.2737
49832SOL    HW161220   4.669   3.952   5.927 -1.6580 -0.5401  0.4372
49832SOL    HW261221   4.554   4.038   5.975  0.2459  1.7050  1.1578
49833SOL     OW61222   0.308   4.416   3.294  0.4334  0.1642  0.3164
49833SOL    HW161223   0.281   4.328   3.319  2.3184 -0.3301  0.7342
49833SOL    HW261224   0.398   4.424   3.326  0.7677  1.7658 -0.8932
49834SOL     OW61225   6.755   4.567   1.091  0.0862  0.0658 -0.3958
49834SOL    HW161226   6.723   4.482   1.060 -0.0571  0.7866 -2.3554
49834SOL    HW261227   6.727   4.629   1.024  1.1179  1.5087  0.4601
49835SOL     OW61228   5.309   0.341   7.474 -0.1208  0.0332  0.4240
49835SOL    HW161229   5.222   0.319   7.441  0.0337  2.5081 -2.0134
49835SOL    HW261230   5.367   0.277   7.431 -0.5404 -0.5223  0.6696
49836SOL     OW61231  11.731   3.315   7.767 -0.1777 -0.0544 -0.5946
49836SOL    HW161232  11.714   3.362   7.849  0.1533  2.2963 -1.8005
49836SOL    HW261233  11.662   3.344   7.708  0.2325 -0.8509 -1.4834
49837SOL     OW61234   3.545   6.728   8.785  0.2745 -0.0688 -0.7330
49837SOL    HW161235   3.532   6.808   8.836 -1.1619 -0.6239 -0.1813
49837SOL    HW261236   3.457   6.690   8.777  0.5056 -0.2379 -3.2709
49838SOL     OW61237  11.753   5.072   3.922  0.0981  0.4286 -0.4299
49838SOL    HW161238  11.687   5.071   3.852 -0.1902  0.1222 -0.1590
49838SOL    HW261239  11.758   5.163   3.949 -1.4888  0.2189  0.7222
49839SOL     OW61240  11.442   5.910   1.324  0.8238  0.3066 -0.0289
49839SOL    HW161241  11.348   5.915   1.308  1.2373  1.0597 -2.6129
49839SOL    HW261242  11.466   5.997   1.355  0.5597 -0.2145  1.8098
49840SOL     OW61243   2.789   5.167   4.160 -0.2703 -0.3560 -0.3470
49840SOL    HW161244   2.855   5.153   4.092 -1.6031 -0.2659 -1.7306
49840SOL    HW261245   2.740   5.085   4.162 -0.1589 -0.4087  0.6410
49841SOL     OW61246   6.551   6.518   4.339 -0.3449  0.4560 -0.1544
49841SOL    HW161247   6.615   6.584   4.365 -2.3552  1.6571  2.1383
49841SOL    HW261248   6.496   6.562   4.274  1.0239 -0.5635 -2.0991
49842SOL     OW61249   8.269   8.440   6.793 -0.1973  0.0004 -0.1386
49842SOL    HW161250   8.315   8.487   6.862  0.8155  0.0191 -0.8013
49842SOL    HW261251   8.213   8.377   6.839  3.5068 -2.9935  0.7591
49843SOL     OW61252   8.125  10.214   3.955  0.1268 -0.2114 -0.3345
49843SOL    HW161253   8.160  10.271   3.887  0.2513 -0.1162 -0.1915
49843SOL    HW261254   8.034  10.199   3.930  0.2543 -0.4169 -0.6799
49844SOL     OW61255   4.588   1.353   2.781  0.3795 -0.7128 -0.6384
49844SOL    HW161256   4.595   1.445   2.758  1.6984 -0.1609  1.6464
49844SOL    HW261257   4.499   1.343   2.815  1.0320  0.3935  1.5451
49845SOL     OW61258   3.316   2.714  11.031  0.1004  0.0784  0.2145
49845SOL    HW161259   3.403   2.698  10.995 -0.4233 -2.2587 -0.1609
49845SOL    HW261260   3.307   2.809  11.030  2.8543  0.4192  0.8055
49846SOL     OW61261   0.814  11.094  10.404 -0.0692 -0.1488  0.4429
49846SOL    HW161262   0.874  11.161  10.371  2.3313 -0.9325  2.8382
49846SOL    HW261263   0.772  11.059  10.326  0.3904  2.4464 -1.0959
49847SOL     OW61264   3.289   6.323   2.513  0.0534  0.0308 -0.6267
49847SOL    HW161265   3.205   6.319   2.467  0.4841 -0.6079 -1.3727
49847SOL    HW261266   3.331   6.240   2.494  0.2696 -0.2439  0.9069
49848SOL     OW61267   1.237   8.534   9.564  0.6055 -0.0431 -0.0309
49848SOL    HW161268   1.251   8.460   9.506  1.6294  0.0675  0.0565
49848SOL    HW261269   1.144   8.530   9.586  0.3664 -0.5251 -1.0666
49849SOL     OW61270   1.950   9.808   4.744 -0.2530 -0.2399 -0.1944
49849SOL    HW161271   1.921   9.816   4.834 -0.2949 -0.4410 -0.1894
49849SOL    HW261272   1.871   9.785   4.695  0.0738 -1.8469 -0.0202
49850SOL     OW61273  11.295  11.087   6.602 -0.0929  0.2506 -0.9104
49850SOL    HW161274  11.219  11.071   6.657 -1.4096 -2.3560 -3.2194
49850SOL    HW261275  11.365  11.036   6.642 -0.8269 -1.0075 -1.1894
49851SOL     OW61276   9.410   3.217   7.026 -0.7330  0.2798 -0.3359
49851SOL    HW161277   9.408   3.121   7.029 -0.5349  0.2551 -0.8707
49851SOL    HW261278   9.428   3.238   6.934 -0.9987  0.8343 -0.2679
49852SOL     OW61279   0.327   4.765  11.232 -0.2154  0.0153 -0.2243
49852SOL    HW161280   0.385   4.712  11.287  1.0331  1.4355 -0.1002
49852SOL    HW261281   0.365   4.853  11.235 -2.2404  0.9589 -0.3636
49853SOL     OW61282   0.538   5.563   2.824  0.3534 -0.5944 -0.0769
49853SOL    HW161283   0.468   5.602   2.876  1.8188  1.2136  0.5963
49853SOL    HW261284   0.601   5.531   2.888  1.7220  0.8088 -0.6626
49854SOL     OW61285   0.837   4.016   4.481  0.0560 -0.3472  0.3267
49854SOL    HW161286   0.768   3.997   4.545  0.3429 -0.4713  0.6073
49854SOL    HW261287   0.819   4.104   4.450 -0.8132 -0.7509 -0.3594
49855SOL     OW61288   4.124   4.321   0.555 -1.1308 -0.0320 -0.1676
49855SOL    HW161289   4.188   4.334   0.485 -0.8498 -0.6363 -0.0302
49855SOL    HW261290   4.077   4.242   0.529 -0.1390 -1.0266  0.9692
49856SOL     OW61291   1.624   6.020   2.760  0.2119  0.0829 -0.0677
49856SOL    HW161292   1.574   5.949   2.800  1.2051 -0.1994  0.7183
49856SOL    HW261293   1.567   6.053   2.691 -0.3863 -1.3151 -0.2886
49857SOL     OW61294   4.595   5.765  11.792  0.5750 -0.5634  0.0229
49857SOL    HW161295   4.675   5.773  11.843  0.5997 -0.5179 -0.0229
49857SOL    HW261296   4.597   5.839  11.732 -0.8634  1.0999  1.8750
49858SOL     OW61297   8.621   0.234   4.418  0.0384  0.3393 -0.5751
49858SOL    HW161298   8.589   0.178   4.347  1.4648  0.4859 -1.3651
49858SOL    HW261299   8.566   0.311   4.415 -2.9228 -1.4976  1.4203
49859SOL     OW61300  10.692   9.557   8.685  0.3928  0.0262  0.2041
49859SOL    HW161301  10.735   9.642   8.685  2.0897 -0.7878  1.0755
49859SOL    HW261302  10.717   9.518   8.601 -1.4459  0.8323 -0.7894
49860SOL     OW61303   1.244   2.253   2.797 -0.2964 -0.2622 -0.1097
49860SOL    HW161304   1.173   2.189   2.800 -2.3793  1.9069 -0.2411
49860SOL    HW261305   1.226   2.305   2.719  0.6306  1.2284  0.6310
49861SOL     OW61306   3.658  11.076   5.041  0.3604 -0.1750 -0.4633
49861SOL    HW161307   3.571  11.113   5.054 -0.0367 -1.2830  0.2120
49861SOL    HW261308   3.646  11.008   4.975  0.0735 -2.2989  1.6290
49862SOL     OW61309   8.923  11.124   5.982 -0.3515 -0.0958  0.3994
49862SOL    HW161310   8.956  11.094   5.897 -1.9135 -0.0489 -0.2705
49862SOL    HW261311   8.841  11.076   5.994  0.0352 -0.3945  2.0995
49863SOL     OW61312   2.324   1.788   5.694 -0.4010  0.6745  0.6011
49863SOL    HW161313   2.250   1.824   5.646 -1.5673 -0.6175  1.3382
49863SOL    HW261314   2.300   1.697   5.710  1.2884  0.2621  1.0166
49864SOL     OW61315   4.193   6.111   8.667  0.1735  0.9035  0.2602
49864SOL    HW161316   4.262   6.179   8.665  0.7625  0.3068 -1.3389
49864SOL    HW261317   4.234   6.035   8.626 -1.3746  0.4549 -0.5117
49865SOL     OW61318  10.306   3.094   6.826  0.0983 -0.3679 -0.2817
49865SOL    HW161319  10.304   3.069   6.918 -0.2397  0.0453 -0.1724
49865SOL    HW261320  10.329   3.187   6.827  1.3403 -0.6425 -0.6780
49866SOL     OW61321   6.060   4.864  11.901  0.0701 -0.0065 -0.0163
49866SOL    HW161322   5.965   4.850  11.899  0.1062 -0.6773  1.5335
49866SOL    HW261323   6.069   4.956  11.926 -0.2341 -0.5487  2.3762
49867SOL     OW61324   9.001   2.627   4.057  0.2919 -0.1563 -0.4471
49867SOL    HW161325   9.035   2.699   4.004 -0.6084  1.3219  0.9106
49867SOL    HW261326   9.051   2.550   4.028  2.2247  1.2458 -1.0046
49868SOL     OW61327   8.955   4.607   5.065  0.1175 -0.3343  0.0867
49868SOL    HW161328   8.988   4.623   4.976  1.0204 -0.1077  0.4565
49868SOL    HW261329   8.942   4.694   5.102  2.4433 -0.3681  1.1431
49869SOL     OW61330  11.620   1.843  11.412  0.6014 -0.1187 -0.4567
49869SOL    HW161331  11.706   1.884  11.421  0.7942 -0.5652 -0.2080
49869SOL    HW261332  11.600   1.849  11.319  0.6827  0.4206 -0.4430
49870SOL     OW61333   8.539  10.613   3.920 -0.7423  0.2456  0.0761
49870SOL    HW161334   8.633  10.619   3.908 -0.7782 -0.4974 -0.6380
49870SOL    HW261335   8.528  10.567   4.004 -0.4348 -1.6473 -0.8678
49871SOL     OW61336   1.021   2.072   2.839 -0.3240 -0.0954  0.0493
49871SOL    HW161337   0.955   2.027   2.786 -0.6432 -0.8578  1.0534
49871SOL    HW261338   1.058   2.003   2.895  1.6231  0.2281 -0.7523
49872SOL     OW61339   8.163   1.967   2.664  0.1460  0.9085 -0.1316
49872SOL    HW161340   8.166   2.034   2.595 -0.5016 -0.1934 -1.2756
49872SOL    HW261341   8.098   1.904   2.633  0.0613  0.2257  1.3667
49873SOL     OW61342   8.151  10.989   6.222 -0.0480 -0.2831 -0.5099
49873SOL    HW161343   8.120  11.074   6.252 -1.5609 -0.7020 -0.7958
49873SOL    HW261344   8.193  10.950   6.298 -1.0220 -0.0423  0.1660
49874SOL     OW61345  10.396   9.052   8.529  0.1235 -0.1063  0.3591
49874SOL    HW161346  10.301   9.043   8.532  0.1926 -1.5928 -0.8147
49874SOL    HW261347  10.410   9.147   8.524 -1.3304  0.1177 -0.1868
49875SOL     OW61348  10.821   5.248   8.890  0.0117 -0.1226 -0.8357
49875SOL    HW161349  10.916   5.253   8.894  0.1381 -2.4439  0.3582
49875SOL    HW261350  10.798   5.168   8.938 -2.7310  1.8330  1.5110
49876SOL     OW61351   6.616   6.634   6.050  0.1349 -0.4645 -0.4848
49876SOL    HW161352   6.655   6.573   5.988 -0.7874 -2.4459  0.7603
49876SOL    HW261353   6.525   6.642   6.022 -0.1205 -0.8520  0.1968
49877SOL     OW61354   5.947  10.160   3.660 -0.1019 -0.3125  0.0622
49877SOL    HW161355   6.024  10.105   3.655  0.4889  0.5745 -1.0958
49877SOL    HW261356   5.924  10.178   3.568 -0.3003  1.2933  0.3963
49878SOL     OW61357   9.355   2.879   7.802 -0.1112 -0.3270 -0.3123
49878SOL    HW161358   9.349   2.860   7.896  0.8857 -0.3809 -0.2534
49878SOL    HW261359   9.446   2.862   7.780 -0.0249  0.9598 -1.0219
49879SOL     OW61360   9.286  10.698   6.476 -0.3937 -0.4716  0.0689
49879SOL    HW161361   9.255  10.743   6.554 -1.2772  0.1912 -0.6342
49879SOL    HW261362   9.292  10.606   6.501 -0.2422 -0.2118  1.0295
49880SOL     OW61363  11.013   4.976   8.632  0.2321 -0.5883  0.7315
49880SOL    HW161364  11.076   4.907   8.652 -1.3215 -2.1406  0.6081
49880SOL    HW261365  10.931   4.945   8.670 -0.3202  1.7330  1.6221
49881SOL     OW61366  11.484   2.349   3.719  0.7757  0.1422 -0.2737
49881SOL    HW161367  11.436   2.364   3.637  0.7987  1.6228 -0.0443
49881SOL    HW261368  11.416   2.335   3.784  0.7596 -1.2201 -0.5426
49882SOL     OW61369   2.617   8.001   3.665 -0.3645 -0.3128  0.3600
49882SOL    HW161370   2.633   7.908   3.649  0.0123 -0.3992  1.1716
49882SOL    HW261371   2.701   8.036   3.694 -0.1591  0.5930 -1.2061
49883SOL     OW61372   1.594   0.855  10.261  0.7228  0.0507 -0.1800
49883SOL    HW161373   1.524   0.901  10.307 -0.6042 -0.9384 -1.1168
49883SOL    HW261374   1.595   0.893  10.173  0.9993 -0.3089 -0.3369
49884SOL     OW61375   0.243   9.262   9.066  0.7121  0.0514  0.2069
49884SOL    HW161376   0.335   9.240   9.083  0.3978 -1.2263  0.3768
49884SOL    HW261377   0.221   9.325   9.134  1.6806  0.9915 -0.3192
49885SOL     OW61378  10.785   3.232   2.379  0.2784 -0.0906  0.0072
49885SOL    HW161379  10.840   3.269   2.310 -1.4783 -0.1216 -1.4891
49885SOL    HW261380  10.737   3.307   2.415  0.5183 -0.2079  0.5940
49886SOL     OW61381   1.805   6.571   0.350 -0.0223  0.6139  0.2038
49886SOL    HW161382   1.892   6.598   0.380 -0.1060  1.3117 -0.1472
49886SOL    HW261383   1.818   6.547   0.258 -0.1340  0.3596  0.2531
49887SOL     OW61384   6.005   2.113   4.751  0.3392  0.1022 -0.2756
49887SOL    HW161385   6.084   2.108   4.698  3.0663 -1.9991  3.4602
49887SOL    HW261386   5.979   2.022   4.765 -1.7781  0.6942 -0.0039
49888SOL     OW61387   3.474   2.701   9.461  0.2303 -0.0317  0.5228
49888SOL    HW161388   3.417   2.641   9.509  1.2585 -0.3711  1.3674
49888SOL    HW261389   3.507   2.760   9.529  0.1696  0.7361 -0.1070
49889SOL     OW61390   6.361   2.570   2.698 -0.0687  0.1911  0.6125
49889SOL    HW161391   6.447   2.604   2.674  0.6543 -1.8847  0.0478
49889SOL    HW261392   6.371   2.538   2.787 -0.7041  1.2745  1.0947
49890SOL     OW61393  10.999   9.625   8.758  0.2533  0.2306  0.1007
49890SOL    HW161394  11.023   9.587   8.674 -1.4866 -1.2652  0.2270
49890SOL    HW261395  10.961   9.552   8.808  0.2028  1.3333  1.7639
49891SOL     OW61396   1.476   2.584   1.288  0.4257  0.4544 -0.4205
49891SOL    HW161397   1.405   2.557   1.346 -0.5549  2.6351 -0.5075
49891SOL    HW261398   1.483   2.513   1.224 -0.4717 -0.6126  0.6161
49892SOL     OW61399   7.403   4.647   3.565 -0.3527 -0.3110 -0.0033
49892SOL    HW161400   7.387   4.561   3.605 -1.3222  0.6097  1.7169
49892SOL    HW261401   7.390   4.709   3.637  1.0622  1.2451 -1.0192
49893SOL     OW61402   7.246   6.215   1.478 -0.3857 -0.0917 -0.3356
49893SOL    HW161403   7.255   6.255   1.392 -0.0854  1.2105  0.2744
49893SOL    HW261404   7.172   6.262   1.518  1.3231  1.4600  1.2165
49894SOL     OW61405   4.027   2.057   4.810 -0.6790  0.4036 -0.4379
49894SOL    HW161406   3.994   1.990   4.750  0.7945  1.2653 -2.3214
49894SOL    HW261407   4.090   2.107   4.758  2.3806 -0.1431  2.3983
49895SOL     OW61408   1.567   7.553   6.905  0.7844  0.3420 -0.3018
49895SOL    HW161409   1.537   7.584   6.991 -0.7468 -1.3389 -0.1649
49895SOL    HW261410   1.632   7.485   6.926 -0.2950 -0.7621 -0.3908
49896SOL     OW61411   9.836   2.229   5.057 -0.5879 -0.1665  0.1347
49896SOL    HW161412   9.837   2.323   5.078 -0.9226 -0.0503 -0.3274
49896SOL    HW261413   9.847   2.185   5.141  0.8910  0.2956  0.2019
49897SOL     OW61414  11.384   8.885   6.611  0.4926 -0.0661  0.1399
49897SOL    HW161415  11.292   8.887   6.636  0.3612  0.3540 -0.3551
49897SOL    HW261416  11.385   8.914   6.519  1.1405  0.1840  0.2173
49898SOL     OW61417   7.400   2.580   7.775 -0.3432  0.1121 -0.8068
49898SOL    HW161418   7.423   2.669   7.803 -0.3717 -0.1404  0.0516
49898SOL    HW261419   7.414   2.526   7.853 -1.8644 -0.3798 -0.8403
49899SOL     OW61420   6.979   9.563   6.018 -0.2862 -0.4306  0.3563
49899SOL    HW161421   6.947   9.479   5.986  0.9368 -1.3611  1.4886
49899SOL    HW261422   6.905   9.601   6.065 -0.2766 -1.8104  1.5507
49900SOL     OW61423   7.349   7.884  10.467  0.0393  0.2048  0.2869
49900SOL    HW161424   7.434   7.930  10.468  0.6797 -0.9261 -0.1056
49900SOL    HW261425   7.311   7.907  10.382  1.8975 -2.5995 -1.4531
49901SOL     OW61426   2.727   0.974   1.333 -0.7376 -0.2568  0.2191
49901SOL    HW161427   2.669   0.913   1.378 -0.1026 -1.4742 -0.5483
49901SOL    HW261428   2.815   0.946   1.358 -0.4483  0.8050  0.4161
49902SOL     OW61429  11.220   6.584   0.433  0.0081 -0.3954  0.4551
49902SOL    HW161430  11.286   6.528   0.474  0.2753 -0.4410 -0.0268
49902SOL    HW261431  11.136   6.549   0.463  0.1814 -0.8746  0.3796
49903SOL     OW61432   9.965   3.699   1.088 -0.0599  0.0761  0.4445
49903SOL    HW161433  10.023   3.738   1.153  0.8229 -0.5322  0.0480
49903SOL    HW261434   9.921   3.628   1.134 -0.3015  0.3816  0.6836
49904SOL     OW61435   1.053   1.893   5.489 -0.3093  0.2094  0.1669
49904SOL    HW161436   1.120   1.958   5.467  0.4402 -0.7628 -0.4868
49904SOL    HW261437   1.006   1.878   5.407 -0.4700 -0.0977  0.3135
49905SOL     OW61438   8.831   2.633   0.927  0.1627 -0.0501 -0.2568
49905SOL    HW161439   8.768   2.679   0.982 -1.3036  0.5902 -2.3623
49905SOL    HW261440   8.802   2.542   0.927  0.8739 -0.3024  0.9168
49906SOL     OW61441   2.620   8.109   8.748  0.1671 -0.5788 -0.2141
49906SOL    HW161442   2.630   8.190   8.698  0.9990 -0.7886 -0.4069
49906SOL    HW261443   2.567   8.053   8.692 -3.8900  1.1547  1.5314
49907SOL     OW61444   7.261  10.195   3.291 -0.1384  0.6328 -0.4030
49907SOL    HW161445   7.234  10.197   3.200 -1.2453  0.3213 -0.0977
49907SOL    HW261446   7.342  10.144   3.292 -0.6313 -0.1682 -1.0783
49908SOL     OW61447   7.943  10.129   7.398  0.1326  0.3719 -0.1286
49908SOL    HW161448   7.851  10.147   7.379  0.1211 -0.7429 -1.2823
49908SOL    HW261449   7.970  10.201   7.455 -1.4888  0.6170  0.3828
49909SOL     OW61450  11.173  10.147   7.404  0.2424  0.2137 -0.0565
49909SOL    HW161451  11.156  10.084   7.335  3.3347  0.5013 -1.2499
49909SOL    HW261452  11.088  10.162   7.445 -1.3893 -1.3151 -2.6259
49910SOL     OW61453   7.746  11.044   3.686  0.1095 -0.6298  0.1687
49910SOL    HW161454   7.776  11.001   3.766  0.3469 -0.5767  0.1111
49910SOL    HW261455   7.773  11.136   3.696  0.3274 -0.6652 -0.0583
49911SOL     OW61456   0.886   2.954   7.585  0.6277  0.4623 -0.2344
49911SOL    HW161457   0.922   2.998   7.508 -0.5495 -0.4554 -1.3660
49911SOL    HW261458   0.930   2.995   7.659  2.3495  0.8753 -1.4206
49912SOL     OW61459   6.758   6.732   3.391  0.0220 -0.1911  0.1747
49912SOL    HW161460   6.707   6.794   3.338  0.1302 -0.4264 -0.2091
49912SOL    HW261461   6.693   6.687   3.444 -0.0626  0.2195  0.4250
49913SOL     OW61462  11.721   0.483   4.278 -0.2246  0.3079 -0.5746
49913SOL    HW161463  11.754   0.504   4.190 -1.9190  2.0384 -0.8826
49913SOL    HW261464  11.787   0.519   4.337 -0.0892  1.0718 -1.1589
49914SOL     OW61465   4.540   5.174  11.901 -0.1315 -0.2232  0.1240
49914SOL    HW161466   4.560   5.268  11.904 -1.2691  0.0080  1.7802
49914SOL    HW261467   4.581   5.138  11.979  0.3146 -1.1378 -0.5147
49915SOL     OW61468   4.592   2.542   5.244 -0.4474  0.6441  0.4445
49915SOL    HW161469   4.610   2.564   5.153 -2.8195 -0.1835 -0.3090
49915SOL    HW261470   4.652   2.471   5.265  0.3796  1.1021 -0.3392
49916SOL     OW61471   2.539   7.471   0.186 -0.1011  0.0406 -0.8752
49916SOL    HW161472   2.524   7.540   0.249  0.0984  1.4870 -2.3497
49916SOL    HW261473   2.472   7.406   0.204 -0.9562  1.1089 -0.1289
49917SOL     OW61474   1.615   4.274   3.458 -0.0479  0.3112  0.0850
49917SOL    HW161475   1.676   4.213   3.500 -0.4088  0.6182  1.0996
49917SOL    HW261476   1.529   4.247   3.490 -0.2258  1.2491  0.4267
49918SOL     OW61477   9.401   2.429   4.207 -0.2832  0.0016 -0.2469
49918SOL    HW161478   9.450   2.376   4.269  0.2835  1.3212  0.4754
49918SOL    HW261479   9.450   2.511   4.201  0.5977 -0.6085 -3.6597
49919SOL     OW61480   6.757  11.208   9.847 -0.0165 -0.5548 -0.2145
49919SOL    HW161481   6.845  11.224   9.882 -0.1747 -1.3841  0.6275
49919SOL    HW261482   6.771  11.146   9.776  0.1090 -0.4600 -0.2729
49920SOL     OW61483   8.203  10.541   4.514 -0.4907 -0.2197 -0.1619
49920SOL    HW161484   8.130  10.581   4.467 -1.3019 -0.5214  0.8148
49920SOL    HW261485   8.222  10.601   4.585 -0.3042 -0.5295  0.0516
49921SOL     OW61486   7.418   9.564   0.979 -0.1126  0.0010 -0.5692
49921SOL    HW161487   7.364   9.501   1.026 -0.3927 -0.4893 -1.5164
49921SOL    HW261488   7.482   9.510   0.932  0.2282  0.4833 -0.6696
49922SOL     OW61489   6.522  10.640   2.217  0.0380 -0.5277  1.0719
49922SOL    HW161490   6.610  10.603   2.227  0.1318 -0.5105  0.3233
49922SOL    HW261491   6.513  10.700   2.291 -0.1901 -2.1649  2.4384
49923SOL     OW61492   7.404   1.874   9.236 -0.6082 -0.4736  0.4521
49923SOL    HW161493   7.314   1.875   9.267 -0.7612 -2.2256  0.1778
49923SOL    HW261494   7.453   1.926   9.300 -1.9246  1.2072  0.1502
49924SOL     OW61495   8.916   2.378   0.643 -0.5854  0.6542 -0.0568
49924SOL    HW161496   8.996   2.413   0.604 -1.3806  0.4314 -2.0002
49924SOL    HW261497   8.947   2.321   0.713  0.8711  1.9655  0.4138
49925SOL     OW61498   5.593  10.528  11.487 -0.1596 -0.3197  0.3825
49925SOL    HW161499   5.563  10.498  11.572 -1.0260 -2.4719 -0.5952
49925SOL    HW261500   5.595  10.624  11.494 -2.1653 -0.3306  2.1827
49926SOL     OW61501   4.450   5.499   4.116 -0.1716  0.0350 -0.3567
49926SOL    HW161502   4.510   5.427   4.135  1.6886  1.7470  0.5105
49926SOL    HW261503   4.388   5.499   4.189 -1.3722 -1.7986 -1.3031
49927SOL     OW61504   8.393   7.921   2.683 -0.6027 -0.2352  0.8081
49927SOL    HW161505   8.377   7.826   2.689 -0.6009 -0.2167  1.1035
49927SOL    HW261506   8.441   7.942   2.762  1.5141 -0.3959 -0.3467
49928SOL     OW61507   5.082  11.366   8.011 -0.3918 -0.6225 -0.4382
49928SOL    HW161508   5.014  11.304   7.985 -0.9739  0.2665 -1.1162
49928SOL    HW261509   5.042  11.418   8.081 -1.2180  1.2155 -2.1516
49929SOL     OW61510   6.698   6.986   7.593  0.2994  0.5991  0.3684
49929SOL    HW161511   6.652   6.986   7.677  0.1701 -1.1027  0.3268
49929SOL    HW261512   6.791   6.993   7.616  0.2182  0.8424  0.6177
49930SOL     OW61513   8.231   0.880  11.755  0.5750  0.3489 -0.2304
49930SOL    HW161514   8.325   0.896  11.744  0.6057 -0.1549 -0.7612
49930SOL    HW261515   8.203   0.848  11.669 -0.1924  1.0129 -0.2406
49931SOL     OW61516   6.966   9.643   9.327 -0.3019 -1.0476  0.2524
49931SOL    HW161517   7.058   9.616   9.335 -0.1307 -0.6137 -0.1750
49931SOL    HW261518   6.968   9.738   9.337 -0.1883 -0.5188 -3.3957
49932SOL     OW61519   7.983   8.197   1.406  0.2811  0.0070 -0.3825
49932SOL    HW161520   8.067   8.163   1.439 -0.4478 -0.3799  1.1985
49932SOL    HW261521   7.990   8.292   1.416  0.4509 -0.0400 -0.0125
49933SOL     OW61522   7.428   6.067   8.957  0.3257  0.4565 -0.2346
49933SOL    HW161523   7.390   5.983   8.933  0.8157  0.3626 -0.7054
49933SOL    HW261524   7.481   6.092   8.881  0.7647  0.8404  0.1879
49934SOL     OW61525   6.710   9.048   2.860 -0.1823 -0.3942  0.5142
49934SOL    HW161526   6.702   9.067   2.954  1.1496  0.8242  0.4234
49934SOL    HW261527   6.791   9.093   2.834 -0.9461 -0.0392 -1.3868
49935SOL     OW61528   5.145  11.815   6.477  0.6912  0.1293 -0.2263
49935SOL    HW161529   5.178  11.894   6.434 -0.0780  0.8906  0.5636
49935SOL    HW261530   5.153  11.833   6.570  0.3465 -0.6593 -0.0404
49936SOL     OW61531   3.019   7.153   8.312  0.3458 -0.2467  0.2271
49936SOL    HW161532   3.037   7.107   8.230  1.0064 -1.0121  0.7816
49936SOL    HW261533   2.949   7.102   8.353 -0.1992  0.3114  0.0073
49937SOL     OW61534   8.844   8.654   6.408 -0.2674  0.5616  0.1669
49937SOL    HW161535   8.936   8.647   6.432 -0.6975  1.6592  2.4017
49937SOL    HW261536   8.797   8.648   6.491 -2.1739  0.6200 -0.8515
49938SOL     OW61537   9.326   0.545  10.421 -0.3457  0.4010 -0.0707
49938SOL    HW161538   9.368   0.507  10.344  1.0350  1.5232  0.0880
49938SOL    HW261539   9.244   0.497  10.430  0.7289 -1.6557 -0.6012
49939SOL     OW61540   1.590   3.256   5.689 -0.3051 -0.2219  0.0070
49939SOL    HW161541   1.649   3.184   5.712 -0.1311 -0.0884 -0.0138
49939SOL    HW261542   1.587   3.256   5.593  0.7737  0.6424 -0.0534
49940SOL     OW61543  10.266   5.426   6.288  0.1918 -0.1131  0.1232
49940SOL    HW161544  10.232   5.457   6.372  1.8614  2.0814  0.0763
49940SOL    HW261545  10.361   5.421   6.301  0.3536 -1.1009 -1.2357
49941SOL     OW61546   5.621   5.319   2.940 -0.2266 -0.1771  0.1409
49941SOL    HW161547   5.612   5.397   2.996 -0.7096 -0.2910  0.2249
49941SOL    HW261548   5.576   5.250   2.988  0.6888 -0.6543  0.3349
49942SOL     OW61549   0.907   0.455   4.993 -0.4138 -0.1262  0.1912
49942SOL    HW161550   0.824   0.408   4.989 -0.7651  0.5544 -1.2710
49942SOL    HW261551   0.973   0.387   4.980 -0.8240 -0.4955 -0.0030
49943SOL     OW61552  10.226   9.897   1.458 -0.3136 -0.0017  0.3629
49943SOL    HW161553  10.291   9.826   1.455  1.4066  1.5278 -2.2113
49943SOL    HW261554  10.182   9.884   1.541  1.8359 -2.4144  1.2970
49944SOL     OW61555   0.105   4.899   2.218  0.5347 -0.0132 -0.0537
49944SOL    HW161556   0.043   4.967   2.190 -0.0128  0.4690  2.1477
49944SOL    HW261557   0.088   4.826   2.158  0.3456  1.3657 -1.7544
49945SOL     OW61558   2.041   3.975   4.576  0.4511  0.0817 -0.2586
49945SOL    HW161559   1.949   4.001   4.572  0.1807 -0.9928 -1.8862
49945SOL    HW261560   2.090   4.053   4.549 -0.0960  0.1327 -1.1147
49946SOL     OW61561   2.416   0.690  11.944 -0.3535  0.2323 -0.1025
49946SOL    HW161562   2.427   0.740  12.024 -0.4371 -1.1508  0.8121
49946SOL    HW261563   2.505   0.675  11.911 -0.2510 -0.0808  0.3113
49947SOL     OW61564   5.123   9.686  11.170  0.3160  0.4727 -0.1930
49947SOL    HW161565   5.113   9.726  11.257 -3.4165  1.2344 -0.7858
49947SOL    HW261566   5.119   9.759  11.109 -1.5930 -0.3454 -1.1194
49948SOL     OW61567   1.167   3.756  10.527 -0.0074 -0.2403  0.6336
49948SOL    HW161568   1.151   3.769  10.620 -1.3714  0.2620  0.3550
49948SOL    HW261569   1.245   3.808  10.509  1.4055 -1.8404  1.8410
49949SOL     OW61570   7.001   1.035   7.058  0.1122  0.5338 -0.5767
49949SOL    HW161571   6.973   1.107   7.116  0.3209 -0.4521  0.7969
49949SOL    HW261572   6.923   0.983   7.044  0.3272  0.1064 -0.1963
49950SOL     OW61573   8.626   1.126   4.297  0.4864  0.7052 -0.1462
49950SOL    HW161574   8.662   1.121   4.208  0.0542  0.8863 -0.3349
49950SOL    HW261575   8.601   1.036   4.318  3.7481 -0.0288  1.1517
49951SOL     OW61576   5.751   4.758   1.204  0.4319 -0.3649 -0.2084
49951SOL    HW161577   5.813   4.703   1.252  0.0606  0.5541  1.4207
49951SOL    HW261578   5.763   4.845   1.241 -2.8208 -0.4116  1.3127
49952SOL     OW61579   4.175   9.962   0.309 -0.0333  0.0257  0.5469
49952SOL    HW161580   4.179  10.052   0.343  1.0485  0.0203  0.4725
49952SOL    HW261581   4.082   9.946   0.295 -0.2594  1.0619  0.7609
49953SOL     OW61582   2.944   2.758   0.223 -0.6013 -0.5180  0.2459
49953SOL    HW161583   2.980   2.726   0.141 -1.5890  2.0116 -1.3252
49953SOL    HW261584   2.850   2.766   0.206 -0.6369  1.4444  1.0478
49954SOL     OW61585   7.014   4.779   5.879 -0.0509 -0.1523  0.2621
49954SOL    HW161586   6.928   4.806   5.911 -0.0364  0.1492  0.0430
49954SOL    HW261587   7.062   4.860   5.867 -0.4377 -0.1564 -1.6374
49955SOL     OW61588   1.197   4.817   6.737  0.0805 -0.0643 -0.3899
49955SOL    HW161589   1.115   4.814   6.688  0.7737  0.7805 -1.6671
49955SOL    HW261590   1.265   4.825   6.670  1.1670 -0.1154  0.6607
49956SOL     OW61591   3.565   3.404   8.241  0.0651  0.2753  0.4571
49956SOL    HW161592   3.596   3.419   8.330  0.2699  0.3622  0.3696
49956SOL    HW261593   3.527   3.316   8.244  0.4844  0.0949  0.5161
49957SOL     OW61594   6.320   9.244   2.132 -0.4947 -0.2046  0.3363
49957SOL    HW161595   6.295   9.290   2.052 -1.5346 -0.8639  0.2581
49957SOL    HW261596   6.345   9.313   2.193  0.9279  0.2848 -0.7393
49958SOL     OW61597   6.561   9.624   3.062  0.2069  0.2977 -0.4959
49958SOL    HW161598   6.591   9.693   3.004  0.5869  1.8167  1.3817
49958SOL    HW261599   6.638   9.569   3.076  0.3696  0.4724 -0.6982
49959SOL     OW61600   8.471  11.749   8.786 -0.9106 -0.2420  0.5683
49959SOL    HW161601   8.388  11.769   8.831 -1.7083  1.7876 -1.5665
49959SOL    HW261602   8.506  11.835   8.763  1.6930 -1.0845  1.1351
49960SOL     OW61603  10.114   4.872  11.306 -0.0713  0.0632 -0.6744
49960SOL    HW161604  10.033   4.914  11.277  0.4894  0.5082 -1.6391
49960SOL    HW261605  10.180   4.941  11.303 -0.1505  0.5126  2.9198
49961SOL     OW61606   4.908   4.963   7.688 -0.2702 -0.3376  0.1483
49961SOL    HW161607   4.993   4.921   7.675 -0.1667 -0.0325 -0.1550
49961SOL    HW261608   4.926   5.056   7.679 -0.9503 -0.3542 -1.7151
49962SOL     OW61609   6.390   7.655   8.739 -0.0865  0.5889 -0.5645
49962SOL    HW161610   6.356   7.566   8.745  2.3279 -0.4590 -1.3150
49962SOL    HW261611   6.324   7.709   8.783 -2.1244 -1.3949 -1.0317
49963SOL     OW61612   8.739   0.056   9.477 -0.3813  0.2066 -0.5830
49963SOL    HW161613   8.813   0.114   9.461 -0.4762  0.1767 -1.1896
49963SOL    HW261614   8.770  -0.031   9.451  0.0595 -0.2023  1.1821
49964SOL     OW61615   7.662   4.910   0.081 -0.0277 -0.5130 -0.0024
49964SOL    HW161616   7.677   4.870  -0.005  1.2579 -1.3712  0.6044
49964SOL    HW261617   7.573   4.883   0.104 -0.2006 -0.6947 -0.8252
49965SOL     OW61618  10.567   1.875   7.063 -0.1392 -0.4941 -0.1436
49965SOL    HW161619  10.476   1.905   7.063 -0.7573 -2.2382 -0.5596
49965SOL    HW261620  10.600   1.899   6.976  0.1493  1.0579  0.3714
49966SOL     OW61621   5.281   2.789   0.804  0.1071 -0.0716 -0.1426
49966SOL    HW161622   5.337   2.820   0.733 -0.9045  0.2513 -0.8188
49966SOL    HW261623   5.341   2.744   0.864  0.8877 -0.9418 -1.5260
49967SOL     OW61624   1.173   3.354  11.670  0.1561 -0.4596  0.1018
49967SOL    HW161625   1.111   3.426  11.680 -1.3182 -1.3819 -1.8237
49967SOL    HW261626   1.258   3.397  11.656 -0.3050  0.8396  1.0383
49968SOL     OW61627   7.451   6.537   1.205  0.3741  0.4052  1.1007
49968SOL    HW161628   7.522   6.501   1.151 -0.8416  0.0235 -0.3089
49968SOL    HW261629   7.476   6.628   1.219  0.1530  0.8811 -1.2215
49969SOL     OW61630   4.323   3.548  10.309 -0.2734 -0.1789  0.5916
49969SOL    HW161631   4.352   3.471  10.260 -0.1544 -0.0202  0.4092
49969SOL    HW261632   4.230   3.533  10.325  0.0337 -0.9858  1.7157
49970SOL     OW61633   6.548   3.403   4.148 -0.9087  0.0686  0.4189
49970SOL    HW161634   6.622   3.436   4.199 -0.4426 -0.9752  0.4441
49970SOL    HW261635   6.588   3.357   4.074 -1.5614  0.5555 -0.2526
49971SOL     OW61636   0.424   6.442   6.543  0.0837 -0.3718 -0.2460
49971SOL    HW161637   0.357   6.489   6.492 -0.3861  0.1206  0.7947
49971SOL    HW261638   0.506   6.484   6.518 -0.3835  1.5312  1.1412
49972SOL     OW61639   1.624   1.492   3.507  0.1203 -0.1591  0.0824
49972SOL    HW161640   1.681   1.537   3.569 -1.7529  1.5936  0.6401
49972SOL    HW261641   1.664   1.509   3.422  1.0545 -0.0015  0.5320
49973SOL     OW61642  10.384   2.192   5.454 -0.5372 -0.1877  0.5749
49973SOL    HW161643  10.302   2.151   5.481 -0.1690 -2.0582 -0.9129
49973SOL    HW261644  10.356   2.272   5.408 -1.2871  1.1582  3.1446
49974SOL     OW61645   9.001   2.205  11.196 -0.2831 -0.5884  0.4387
49974SOL    HW161646   9.017   2.293  11.161  0.6517  0.0670  2.3568
49974SOL    HW261647   9.079   2.155  11.170 -0.0556 -0.3790  0.7022
49975SOL     OW61648   0.408   6.289   5.722  0.2518 -1.1172 -0.2691
49975SOL    HW161649   0.449   6.272   5.637  1.0687  0.6083 -0.2567
49975SOL    HW261650   0.317   6.310   5.700  0.6483  0.1066 -0.8247
49976SOL     OW61651  11.584  11.933  11.447  0.2018  0.3411 -0.1815
49976SOL    HW161652  11.515  11.868  11.430  0.4060  0.2335 -0.6062
49976SOL    HW261653  11.539  12.017  11.439  0.0748  0.2671 -0.2563
49977SOL     OW61654   7.563   9.336   9.696 -0.6852  0.3456  0.2831
49977SOL    HW161655   7.524   9.379   9.621  0.1751  0.5412 -0.0606
49977SOL    HW261656   7.568   9.244   9.672  0.4582  0.5413 -0.3008
49978SOL     OW61657   3.372   3.944   2.078  0.0974  0.2427  0.2992
49978SOL    HW161658   3.310   4.015   2.064  0.4963  0.5461  0.0612
49978SOL    HW261659   3.404   3.956   2.167 -0.1957  0.0765  0.4276
49979SOL     OW61660  10.811   8.587   3.978 -0.3722  0.0970 -0.4352
49979SOL    HW161661  10.798   8.680   3.993  0.4313  0.3483 -1.2352
49979SOL    HW261662  10.732   8.559   3.931 -1.0525  0.1441  0.6251
49980SOL     OW61663   7.675   6.132   6.954  0.1661  0.2039  0.1015
49980SOL    HW161664   7.700   6.065   6.890  0.5004  0.8265 -0.4249
49980SOL    HW261665   7.618   6.191   6.907  2.2308  1.9787 -0.3440
49981SOL     OW61666  11.001   1.934   4.392 -1.0453 -0.1504  0.1835
49981SOL    HW161667  10.919   1.888   4.412 -0.3262 -1.9584 -0.7835
49981SOL    HW261668  11.041   1.883   4.322  0.9822  0.6124  0.6959
49982SOL     OW61669   6.105   9.271   9.039  0.4631  0.1476  0.2652
49982SOL    HW161670   6.118   9.189   9.087  1.0803  0.7244  1.1149
49982SOL    HW261671   6.044   9.248   8.969  1.1933 -1.2132  0.0260
49983SOL     OW61672   3.316  11.769   9.209 -0.6483 -0.0216 -0.2515
49983SOL    HW161673   3.250  11.787   9.142  0.6637  0.4955 -1.4445
49983SOL    HW261674   3.300  11.835   9.276 -1.0370  0.4133 -0.7652
49984SOL     OW61675  10.394   2.777   6.695  0.8660 -0.6643 -0.4761
49984SOL    HW161676  10.335   2.711   6.731 -0.2538  1.0086  0.8927
49984SOL    HW261677  10.414   2.745   6.607  0.7020 -3.0071  0.2700
49985SOL     OW61678  11.663   4.678   9.887  0.5975 -0.1531 -0.5641
49985SOL    HW161679  11.744   4.661   9.936 -0.9080 -0.4790  1.9669
49985SOL    HW261680  11.618   4.745   9.938 -0.1652  1.0163 -2.6659
49986SOL     OW61681   6.755   1.693   2.845  0.1997  0.5773  0.4754
49986SOL    HW161682   6.689   1.752   2.883  0.6740  0.8516  0.8843
49986SOL    HW261683   6.791   1.742   2.771  1.3607  1.2809  1.4575
49987SOL     OW61684   8.021   8.838   1.372  0.1800 -0.1489  0.2826
49987SOL    HW161685   7.996   8.847   1.280 -0.8867 -0.7480  0.5026
49987SOL    HW261686   8.117   8.828   1.370  0.2790  0.7888 -0.6812
49988SOL     OW61687   9.086   5.068   2.968 -0.1210  0.3645 -0.4803
49988SOL    HW161688   9.000   5.031   2.988 -0.8053  1.1434 -1.7693
49988SOL    HW261689   9.145   5.031   3.033 -1.4227 -0.2478  0.3866
49989SOL     OW61690   3.342   2.848   3.090  0.1338  0.2747  0.9420
49989SOL    HW161691   3.348   2.762   3.132 -1.0852 -0.9975 -1.2853
49989SOL    HW261692   3.432   2.878   3.083  0.8282 -1.9297 -0.3249
49990SOL     OW61693   4.008   9.366   9.251 -0.3158 -0.2731 -0.4001
49990SOL    HW161694   3.932   9.418   9.277  0.0731  1.0476 -1.7629
49990SOL    HW261695   3.987   9.335   9.162  0.4844 -0.3946 -0.5551
49991SOL     OW61696  11.214   3.998  10.851 -0.6265  0.3871  0.7987
49991SOL    HW161697  11.239   3.906  10.857  0.5979  0.6075 -0.4865
49991SOL    HW261698  11.297   4.045  10.853 -0.9868  1.2719 -1.6684
49992SOL     OW61699   5.142  10.666   6.823 -0.5803  0.1600  0.2843
49992SOL    HW161700   5.171  10.754   6.801  0.7252  0.4601  2.8653
49992SOL    HW261701   5.078  10.678   6.893  0.0857 -0.9107  1.1175
49993SOL     OW61702   1.178  11.098   9.174  0.2697 -0.1836 -0.0159
49993SOL    HW161703   1.085  11.118   9.160  0.1107 -0.3587  0.7523
49993SOL    HW261704   1.189  11.009   9.141  0.4958  0.3421 -1.4337
49994SOL     OW61705   0.459   4.240  10.400  0.2686  0.6798 -0.5163
49994SOL    HW161706   0.388   4.295  10.434  0.7577  1.4492 -0.7247
49994SOL    HW261707   0.493   4.196  10.478 -0.1696  0.6096 -0.3576
49995SOL     OW61708   6.421   1.408   8.424  0.0758 -0.0882  0.3667
49995SOL    HW161709   6.508   1.377   8.449  0.5969  1.4917  0.6811
49995SOL    HW261710   6.396   1.468   8.494 -1.4341 -0.7788  0.4443
49996SOL     OW61711  11.438  10.866   4.617  0.2043  0.7004 -0.1301
49996SOL    HW161712  11.356  10.873   4.666  1.0287  1.4517  1.2440
49996SOL    HW261713  11.447  10.950   4.573  0.6262  0.9605  0.4282
49997SOL     OW61714   3.895   2.748   3.957 -0.2054  0.1454 -0.2083
49997SOL    HW161715   3.822   2.765   4.016  0.6608  1.0147  0.6458
49997SOL    HW261716   3.903   2.652   3.957 -0.5137  0.1089  0.7114
49998SOL     OW61717  11.309   5.676   8.544 -0.2196  0.0280 -0.1637
49998SOL    HW161718  11.341   5.703   8.458 -2.2105 -2.7300 -1.9563
49998SOL    HW261719  11.234   5.732   8.561 -0.2911  0.0804 -0.6295
49999SOL     OW61720   4.202   2.095   8.242  0.6294 -0.2140 -0.0850
49999SOL    HW161721   4.205   2.141   8.326  0.0809  0.1919 -0.2869
49999SOL    HW261722   4.117   2.051   8.241  0.5666 -0.0824 -0.5028
50000SOL     OW61723   1.616   6.147   7.654  0.1993 -0.1139  0.8628
50000SOL    HW161724   1.551   6.195   7.706  0.1827 -0.8158  1.5016
50000SOL    HW261725   1.700   6.186   7.678  0.0461  0.7200  0.1185
50001SOL     OW61726   7.019   4.713   5.237  0.1220 -0.0866  0.4065
50001SOL    HW161727   7.061   4.723   5.152 -1.4537  1.4523 -0.2549
50001SOL    HW261728   7.088   4.679   5.295  1.1852 -1.3311 -1.4874
50002SOL     OW61729   9.342   0.165  11.101 -0.0189 -0.4230  0.1245
50002SOL    HW161730   9.313   0.077  11.122  0.7749 -0.5410  0.7832
50002SOL    HW261731   9.426   0.174  11.147 -0.2482  0.7868  0.3352
50003SOL     OW61732   0.014   0.410   6.984  0.2980  0.5069  0.3939
50003SOL    HW161733   0.029   0.325   6.942  1.2837  0.5763  0.6018
50003SOL    HW261734  -0.082   0.415   6.993  0.0336  0.4391 -1.7380
50004SOL     OW61735  11.538   8.270   9.360  0.1452  0.2701 -0.0356
50004SOL    HW161736  11.511   8.360   9.378  0.4632  0.8905 -2.3408
50004SOL    HW261737  11.628   8.265   9.392 -0.1955  0.4637  0.9688
50005SOL     OW61738  11.762   5.745   8.401 -0.0384  0.1848  0.1864
50005SOL    HW161739  11.853   5.722   8.419  0.0725  0.5117  0.0521
50005SOL    HW261740  11.719   5.745   8.487 -0.2512 -1.3626  0.1165
50006SOL     OW61741   2.525  11.680   1.213 -0.2235 -0.5091 -0.4688
50006SOL    HW161742   2.587  11.636   1.271  0.1630 -0.3487 -0.7592
50006SOL    HW261743   2.578  11.740   1.162 -0.9008  1.2475  0.8056
50007SOL     OW61744   6.993   9.120   7.279 -0.3382  0.5505  0.0528
50007SOL    HW161745   6.982   9.032   7.243 -1.5053  1.0869 -1.0238
50007SOL    HW261746   7.079   9.119   7.321 -0.3738 -1.1199  0.1510
50008SOL     OW61747   2.804   1.908   2.202  0.4586  0.3264 -0.4270
50008SOL    HW161748   2.888   1.892   2.159 -0.3828 -1.3138 -1.5692
50008SOL    HW261749   2.807   1.855   2.281  1.4144  2.1832  0.8555
50009SOL     OW61750  10.008   1.601   7.183  0.0952  0.3215 -0.1325
50009SOL    HW161751   9.948   1.674   7.166  0.6924  0.9412  0.3596
50009SOL    HW261752  10.025   1.605   7.277 -1.3721 -1.6581  0.2758
50010SOL     OW61753   2.468   2.282   7.115  0.7241 -0.2257  1.1712
50010SOL    HW161754   2.380   2.291   7.079  1.9334  1.3258 -1.7225
50010SOL    HW261755   2.503   2.203   7.074  1.1698 -0.0338  1.1765
50011SOL     OW61756   3.734  10.455   0.584  0.1797 -0.3501  0.1993
50011SOL    HW161757   3.639  10.449   0.569  0.5372 -1.6859 -1.8415
50011SOL    HW261758   3.745  10.426   0.675 -1.2320 -1.8104 -0.0390
50012SOL     OW61759   2.853   8.420   7.761 -0.0189 -0.2406  0.0133
50012SOL    HW161760   2.859   8.366   7.682  3.2925 -0.7863  0.4671
50012SOL    HW261761   2.913   8.378   7.823 -0.4909  1.6591  1.8615
50013SOL     OW61762   1.786   0.580   6.252 -0.2569 -0.1191  0.1024
50013SOL    HW161763   1.725   0.542   6.189  0.7413 -2.1349  0.2799
50013SOL    HW261764   1.739   0.577   6.336 -0.5381 -0.0968 -0.0544
50014SOL     OW61765   9.717  11.474   5.868  0.1959 -0.1242  0.4941
50014SOL    HW161766   9.730  11.431   5.952 -0.2251 -2.9456 -0.7679
50014SOL    HW261767   9.685  11.404   5.810  2.2827  1.2255 -2.5190
50015SOL     OW61768   4.151   3.769  11.379 -0.3336  0.4014  0.3693
50015SOL    HW161769   4.223   3.782  11.318 -0.2844  0.4279  0.4329
50015SOL    HW261770   4.168   3.684  11.420 -1.2803 -0.4273 -0.8926
50016SOL     OW61771   9.164   2.844   9.038  0.4322  0.5289  0.0655
50016SOL    HW161772   9.250   2.886   9.045 -0.0938  1.5824  0.4517
50016SOL    HW261773   9.142   2.822   9.128 -0.1379  1.1889  0.0962
50017SOL     OW61774  10.480   7.967   5.026 -0.0380 -0.5796  0.2752
50017SOL    HW161775  10.544   8.027   5.065 -0.0303 -0.2353 -0.2506
50017SOL    HW261776  10.467   7.899   5.092 -2.3172  1.5407  2.2371
50018SOL     OW61777   2.182   9.694   3.291  0.4176  0.0711 -0.1001
50018SOL    HW161778   2.223   9.736   3.215  0.1441 -0.3899 -0.5037
50018SOL    HW261779   2.090   9.688   3.267  0.1493  0.8741  0.7010
50019SOL     OW61780   9.545   9.942   2.330  0.0351 -0.3010  0.3484
50019SOL    HW161781   9.486   9.994   2.275  0.3679 -0.4568 -0.1578
50019SOL    HW261782   9.522   9.968   2.419 -1.6174 -1.2210  0.2323
50020SOL     OW61783   2.424   7.251   5.107 -0.2961  0.9388  0.0008
50020SOL    HW161784   2.393   7.270   5.018 -0.3820  0.3569 -0.0958
50020SOL    HW261785   2.347   7.219   5.153  0.2273 -1.0089 -0.3851
50021SOL     OW61786  11.767  11.041  10.803 -0.1287  0.0121 -0.0513
50021SOL    HW161787  11.756  11.013  10.894 -1.6922 -2.1739 -0.8419
50021SOL    HW261788  11.726  10.972  10.751  2.2534  0.2933 -2.5513
50022SOL     OW61789   6.036   9.916   1.928  0.2635  0.0649 -0.2192
50022SOL    HW161790   6.067   9.841   1.878 -0.7518 -1.8122  1.8086
50022SOL    HW261791   5.943   9.923   1.905  0.5243  1.2970 -1.0245
50023SOL     OW61792   5.470   2.358   6.088 -0.0991  0.4329 -0.1726
50023SOL    HW161793   5.530   2.406   6.030 -1.8935  0.5778 -2.0501
50023SOL    HW261794   5.423   2.426   6.136 -0.0898  0.4098 -0.1311
50024SOL     OW61795   7.213   0.194  10.608 -0.7256 -0.2855 -0.5836
50024SOL    HW161796   7.237   0.141  10.532  0.2572 -1.9132  0.7774
50024SOL    HW261797   7.144   0.143  10.651  0.0075 -0.3234  0.5836
50025SOL     OW61798   2.708   1.233  11.500 -0.3079 -0.4220 -0.4743
50025SOL    HW161799   2.691   1.187  11.418  1.4974 -2.4351  0.2014
50025SOL    HW261800   2.802   1.224  11.514 -0.4179  0.6778  1.3610
50026SOL     OW61801   9.385   1.438   2.472  0.0090  0.4443  0.4942
50026SOL    HW161802   9.339   1.414   2.552  1.0713 -0.2796  0.9219
50026SOL    HW261803   9.360   1.371   2.408  1.4433 -0.7442  1.1141
50027SOL     OW61804   7.613   0.493   5.450  0.9044 -0.1611 -0.1297
50027SOL    HW161805   7.634   0.430   5.519 -0.3636 -0.4497  0.0056
50027SOL    HW261806   7.530   0.533   5.477  0.0734 -0.7014 -1.7634
50028SOL     OW61807   9.693   2.225   1.827  0.2657 -0.0534  0.5354
50028SOL    HW161808   9.634   2.174   1.882  0.7939 -0.0828  1.0827
50028SOL    HW261809   9.709   2.305   1.878  0.1609  0.2572  0.0871
50029SOL     OW61810   7.137   8.345   4.733 -0.2543 -0.1370  0.3647
50029SOL    HW161811   7.050   8.362   4.771 -0.6907 -0.3887 -0.5091
50029SOL    HW261812   7.120   8.287   4.659  0.6922 -0.3854  0.3381
50030SOL     OW61813  10.345   3.649   9.094  0.2164  0.2031 -1.1608
50030SOL    HW161814  10.318   3.615   9.009 -0.0023 -0.1361 -0.9567
50030SOL    HW261815  10.267   3.645   9.148  0.0113  1.6128 -1.3008
50031SOL     OW61816   7.353   7.914   2.271 -0.1431  0.7980  0.6191
50031SOL    HW161817   7.335   7.822   2.251 -0.7987  1.0464 -0.0152
50031SOL    HW261818   7.436   7.933   2.228 -1.0355  1.0440 -1.0792
50032SOL     OW61819   7.924  10.934   1.857 -0.7704 -0.2383 -0.6884
50032SOL    HW161820   7.893  11.017   1.822 -1.6115 -0.3598 -0.2683
50032SOL    HW261821   7.878  10.924   1.940  0.5498 -0.3655  0.0413
50033SOL     OW61822   7.420   8.134   9.137 -0.0189  0.3213 -0.4984
50033SOL    HW161823   7.495   8.079   9.160  0.2218  1.6687  2.3596
50033SOL    HW261824   7.448   8.223   9.160 -1.5634  1.2374 -1.9200
50034SOL     OW61825  10.231   0.356  11.718 -0.1060  0.3147  0.0808
50034SOL    HW161826  10.282   0.400  11.786  1.8804  0.4075 -1.3718
50034SOL    HW261827  10.220   0.266  11.750  0.8755  0.3333  0.5131
50035SOL     OW61828   0.720   4.679   5.003 -0.0662 -0.0037 -0.4798
50035SOL    HW161829   0.659   4.628   4.950 -0.6894 -2.2881  2.1448
50035SOL    HW261830   0.807   4.655   4.970 -0.4072 -1.9244 -0.0830
50036SOL     OW61831   0.328  11.740   8.040 -0.2985  0.1449  0.3623
50036SOL    HW161832   0.379  11.815   8.068 -0.2213  0.6570 -1.0536
50036SOL    HW261833   0.348  11.671   8.104  1.7964  0.4808  0.1296
50037SOL     OW61834   5.720   7.240   7.374  0.1389 -0.3502 -0.1953
50037SOL    HW161835   5.688   7.313   7.322  0.2010 -0.0932  0.1209
50037SOL    HW261836   5.648   7.219   7.433 -0.5762 -1.7451 -1.4993
50038SOL     OW61837   0.938  10.904   6.658  0.1775 -0.2123 -0.1667
50038SOL    HW161838   0.975  10.891   6.571 -2.0208 -1.5772 -0.9844
50038SOL    HW261839   0.905  10.994   6.657 -0.5974 -0.4970 -1.0831
50039SOL     OW61840   3.368   5.203   3.400  0.2019 -0.2992  0.0046
50039SOL    HW161841   3.395   5.236   3.486  1.2786 -0.4234 -0.2731
50039SOL    HW261842   3.448   5.167   3.362 -0.0110  0.8133 -1.5549
50040SOL     OW61843   1.217   0.468   6.983 -0.0756 -0.3780 -0.7009
50040SOL    HW161844   1.141   0.485   7.038  2.1623 -0.7741  2.8120
50040SOL    HW261845   1.228   0.373   6.985  0.9314 -0.2751 -0.4886
50041SOL     OW61846   6.299   3.783   4.903 -0.5698 -0.9604 -0.0552
50041SOL    HW161847   6.355   3.736   4.965 -1.5680  0.4341  1.9939
50041SOL    HW261848   6.361   3.825   4.843  0.6264  0.0863  1.8131
50042SOL     OW61849   4.723   5.327   7.484  0.1667 -0.0421  0.1489
50042SOL    HW161850   4.648   5.321   7.425  0.7125 -0.8626 -0.4818
50042SOL    HW261851   4.687   5.314   7.571 -0.7357  1.7053  0.0754
50043SOL     OW61852  10.453   9.909  10.230 -0.1326 -0.6860  0.5400
50043SOL    HW161853  10.473   9.898  10.323 -0.6430  2.0459  1.0404
50043SOL    HW261854  10.362   9.878  10.222 -0.3925 -0.0939  1.1451
50044SOL     OW61855   4.535   9.767   0.598 -0.2951 -0.5542 -0.1218
50044SOL    HW161856   4.590   9.702   0.554 -0.7269 -1.8599  1.1912
50044SOL    HW261857   4.557   9.757   0.691  1.0459  2.5326  0.0212
50045SOL     OW61858   7.875   6.522   2.846 -0.0408  0.2799 -0.3833
50045SOL    HW161859   7.806   6.472   2.803  0.0863 -1.0703  0.9159
50045SOL    HW261860   7.956   6.489   2.805  0.0844 -1.0456  0.8582
50046SOL     OW61861   5.646   8.475   2.071 -0.0971 -0.0678  0.4751
50046SOL    HW161862   5.590   8.527   2.013  0.4329 -1.1991 -1.1013
50046SOL    HW261863   5.733   8.479   2.031  0.2599 -0.9842  1.1186
50047SOL     OW61864   2.487   3.656   9.976  0.5427  0.1847 -0.0495
50047SOL    HW161865   2.471   3.563   9.960  2.5202 -0.2681  0.2560
50047SOL    HW261866   2.579   3.668   9.953  1.2033  1.3689  2.7573
50048SOL     OW61867  10.062   3.088  10.988 -0.1784  0.0725  0.1890
50048SOL    HW161868  10.097   2.999  10.989 -0.9585 -0.2369  1.0409
50048SOL    HW261869  10.060   3.111  10.895  1.4509 -0.2113  0.0474
50049SOL     OW61870   6.695   7.367   5.610 -0.2228 -0.9509  0.2488
50049SOL    HW161871   6.671   7.364   5.517 -1.3690  0.4742  0.4788
50049SOL    HW261872   6.791   7.366   5.610 -0.2080 -0.7068 -0.9605
50050SOL     OW61873   9.599   4.222   5.633 -0.0393 -0.9983 -0.3845
50050SOL    HW161874   9.599   4.127   5.619 -0.4538 -1.0833  0.1736
50050SOL    HW261875   9.691   4.245   5.636  0.0682 -1.4317 -0.2226
50051SOL     OW61876  11.247   7.503   4.493 -0.1958  0.0345  0.3812
50051SOL    HW161877  11.211   7.579   4.448  0.4426  0.1789  0.1104
50051SOL    HW261878  11.325   7.536   4.538 -1.0975  0.0166  2.0382
50052SOL     OW61879   8.423  11.645   8.138  0.4037 -0.4796  0.0450
50052SOL    HW161880   8.466  11.712   8.085  0.8112 -1.0883 -0.4124
50052SOL    HW261881   8.443  11.670   8.229 -1.1940  1.1735 -0.0052
50053SOL     OW61882   8.524   8.282   9.893  0.2066 -0.0881  0.4922
50053SOL    HW161883   8.486   8.196   9.875 -1.0199  0.4820  0.2590
50053SOL    HW261884   8.588   8.266   9.963 -1.1891 -0.9181  1.6282
50054SOL     OW61885   2.956  11.744   9.262  0.1089 -0.2972 -0.7527
50054SOL    HW161886   2.983  11.653   9.273 -0.2803 -0.2946  0.2922
50054SOL    HW261887   3.019  11.794   9.315 -0.5000 -0.0846 -0.2251
50055SOL     OW61888  11.137   0.286   4.726  0.2105  0.2498  0.3003
50055SOL    HW161889  11.207   0.348   4.703 -0.1254  0.6364  0.2979
50055SOL    HW261890  11.155   0.208   4.674 -0.0970  0.8244 -0.6820
50056SOL     OW61891   5.484   0.500   8.562 -0.3016 -0.1972  0.3571
50056SOL    HW161892   5.570   0.466   8.584  0.4098  0.3236 -1.3973
50056SOL    HW261893   5.430   0.483   8.639  1.4330 -0.2774  1.6015
50057SOL     OW61894   9.653   1.943   5.663  0.3444 -0.1503 -0.4785
50057SOL    HW161895   9.575   1.941   5.607  0.5026  0.3662 -0.7231
50057SOL    HW261896   9.721   1.982   5.608  0.2625  1.2428  0.3639
50058SOL     OW61897   2.786   9.996   1.537 -0.0754  0.0138 -0.4208
50058SOL    HW161898   2.856  10.021   1.477  0.7296  0.3151  0.6230
50058SOL    HW261899   2.791   9.901   1.542  0.5248  0.0640 -0.0373
50059SOL     OW61900   3.781   5.479   5.261  0.5717  0.8826 -0.3287
50059SOL    HW161901   3.740   5.551   5.214  0.2072  1.9658  1.5600
50059SOL    HW261902   3.713   5.447   5.321  0.8159 -0.8635 -0.9346
50060SOL     OW61903   5.509   0.431   0.969  0.2224  0.1339 -0.8744
50060SOL    HW161904   5.538   0.393   1.052 -0.8751  0.2098 -0.4454
50060SOL    HW261905   5.590   0.460   0.927  0.7707  0.4262  0.3250
50061SOL     OW61906   5.124   7.053   0.017  0.8359  0.0574 -0.0634
50061SOL    HW161907   5.089   7.056  -0.073 -1.1327  0.3412  0.6555
50061SOL    HW261908   5.070   6.987   0.061  1.6490  0.0568  0.9590
50062SOL     OW61909   8.647   9.611   5.473  0.3680  0.0478  0.7105
50062SOL    HW161910   8.735   9.648   5.471  0.0839  0.9669  2.7360
50062SOL    HW261911   8.640   9.563   5.391  1.7996  2.1409 -0.7670
50063SOL     OW61912  11.346  10.945   7.548  0.2477  0.3031  0.2723
50063SOL    HW161913  11.334  10.998   7.469  0.3882  0.4857  0.3769
50063SOL    HW261914  11.256  10.921   7.574  0.2503 -1.5336 -1.1581
50064SOL     OW61915   4.493   6.663   1.535  0.1795 -0.1168  0.1309
50064SOL    HW161916   4.578   6.693   1.505 -0.6867  2.1101 -0.2774
50064SOL    HW261917   4.507   6.571   1.560  2.4487 -0.0719 -0.7734
50065SOL     OW61918   1.361   3.210  10.413 -0.3175 -0.2466  0.0453
50065SOL    HW161919   1.335   3.234  10.324 -0.0399 -0.1632 -0.0160
50065SOL    HW261920   1.317   3.273  10.470 -0.0270  0.0665 -0.0755
50066SOL     OW61921   3.311   2.061   5.990 -0.0236 -0.9716  0.1141
50066SOL    HW161922   3.327   2.071   5.897 -1.7956 -0.5867 -0.2011
50066SOL    HW261923   3.286   2.149   6.020  0.1511 -1.1655  0.8597
50067SOL     OW61924   0.446   3.617   7.054  0.1887  0.2616  0.4620
50067SOL    HW161925   0.468   3.627   7.146 -3.8219 -0.0187  1.5984
50067SOL    HW261926   0.422   3.525   7.045  1.7991 -0.0640 -1.2765
50068SOL     OW61927   9.067   9.012   9.416  0.0424  0.6804 -0.3663
50068SOL    HW161928   9.116   8.943   9.372  1.4351  0.8535  0.8255
50068SOL    HW261929   9.133   9.065   9.460 -1.0976  1.9733 -0.1068
50069SOL     OW61930   4.682   4.529   8.921 -0.2425  0.2926 -0.2268
50069SOL    HW161931   4.759   4.571   8.882 -1.1121  1.3179 -0.9084
50069SOL    HW261932   4.684   4.556   9.013  0.4022  0.0177 -0.1584
50070SOL     OW61933   4.148  10.739   9.733 -0.5275  0.3524 -0.4177
50070SOL    HW161934   4.102  10.673   9.784  0.7487 -0.5946 -0.4690
50070SOL    HW261935   4.112  10.730   9.645  0.2671 -0.9004 -0.6317
50071SOL     OW61936   7.174   6.768   4.264 -0.3669  0.5039 -0.1187
50071SOL    HW161937   7.086   6.735   4.250  0.0973 -0.3271 -1.2919
50071SOL    HW261938   7.220   6.696   4.308 -0.4497  1.2056  1.1624
50072SOL     OW61939   2.482  11.007   0.462  0.0585 -0.3689 -0.2072
50072SOL    HW161940   2.451  11.094   0.439  0.0700 -0.0814  0.8419
50072SOL    HW261941   2.526  11.018   0.546 -2.0474 -1.8076  1.1665
50073SOL     OW61942   8.313   0.580   9.096  0.4847 -0.3450 -0.1134
50073SOL    HW161943   8.379   0.513   9.081  0.4422 -0.0394 -1.8796
50073SOL    HW261944   8.240   0.554   9.040 -0.3898  0.0269  0.8296
50074SOL     OW61945   8.189  11.100   2.693 -1.0058 -0.0693  0.6478
50074SOL    HW161946   8.183  11.085   2.599  1.6779 -0.2210  0.4395
50074SOL    HW261947   8.102  11.132   2.717 -2.3634 -1.8612 -1.5029
50075SOL     OW61948   5.158   9.288   9.347  0.5144 -0.0676 -0.4227
50075SOL    HW161949   5.072   9.303   9.385 -0.4183  0.0870 -2.4743
50075SOL    HW261950   5.208   9.367   9.367 -0.4714  0.6879 -0.8746
50076SOL     OW61951   7.474   0.420   4.927 -0.4897 -0.1108  0.1490
50076SOL    HW161952   7.496   0.428   5.020 -0.0989 -1.4833  0.1930
50076SOL    HW261953   7.387   0.379   4.926 -0.7841  0.5079 -0.0893
50077SOL     OW61954   5.490   0.952   2.334  0.3418 -0.2936 -0.6101
50077SOL    HW161955   5.507   1.021   2.269  0.5998 -0.5466 -0.8194
50077SOL    HW261956   5.543   0.977   2.409 -0.4480  0.3364 -0.2511
50078SOL     OW61957   4.665   6.506  11.354  0.1356  0.2612  0.3502
50078SOL    HW161958   4.753   6.537  11.374  0.0402 -0.3545  1.8251
50078SOL    HW261959   4.621   6.502  11.439 -0.5581 -1.7046 -0.0440
50079SOL     OW61960   7.996   4.249   3.415  0.2259  0.2478 -0.2982
50079SOL    HW161961   8.042   4.175   3.455 -0.9363 -1.0907 -1.3236
50079SOL    HW261962   7.974   4.307   3.488 -0.4418 -1.3265  0.8113
50080SOL     OW61963   6.242   7.387   0.797 -0.2238  0.7795  0.1389
50080SOL    HW161964   6.195   7.469   0.809 -1.1144  0.6000 -1.6616
50080SOL    HW261965   6.333   7.407   0.819 -0.4879  2.1592  0.0472
50081SOL     OW61966   1.603   5.029  10.038  0.3593  0.2765  0.3046
50081SOL    HW161967   1.685   5.079  10.041  1.3315 -1.2135 -0.6241
50081SOL    HW261968   1.620   4.952  10.092 -0.0033 -0.6654 -0.9043
50082SOL     OW61969   3.218   6.070   8.198 -0.3705  0.5506 -0.2835
50082SOL    HW161970   3.273   6.038   8.270 -1.4609  1.4365  0.9781
50082SOL    HW261971   3.170   6.144   8.234 -1.6069  0.4850 -1.6643
50083SOL     OW61972  11.725   2.474   5.151  0.1226  0.0202 -0.3999
50083SOL    HW161973  11.811   2.453   5.114  0.1337 -0.0916 -0.3115
50083SOL    HW261974  11.741   2.551   5.205 -0.1907  1.1615 -1.8541
50084SOL     OW61975   3.286   4.064   4.407 -0.7228  0.0658 -0.6322
50084SOL    HW161976   3.248   4.135   4.458 -3.0884  0.0644 -2.2359
50084SOL    HW261977   3.378   4.060   4.435 -1.5652  0.8809  2.5890
50085SOL     OW61978   8.761   8.133   8.088 -0.4625  0.9052 -0.4518
50085SOL    HW161979   8.789   8.221   8.065  2.2929  0.3500  0.4948
50085SOL    HW261980   8.759   8.086   8.005  1.9482  0.8720 -0.5363
50086SOL     OW61981   7.970   3.095   4.909  0.1151  0.5827 -0.2784
50086SOL    HW161982   8.014   3.017   4.942  0.4913  0.5531 -0.8436
50086SOL    HW261983   7.993   3.164   4.972 -1.2649 -0.0214  0.9457
50087SOL     OW61984   5.176  10.842   5.733  0.0558  0.4525 -0.1609
50087SOL    HW161985   5.099  10.789   5.712  1.6785 -1.5748 -1.3420
50087SOL    HW261986   5.247  10.803   5.683  2.0974  1.6281  1.6159
50088SOL     OW61987   8.107   6.081   7.735  0.3476  0.2771 -0.2491
50088SOL    HW161988   8.142   6.071   7.646 -0.2971 -1.4326 -0.3702
50088SOL    HW261989   8.166   6.142   7.778  1.2875  0.3348 -1.5478
50089SOL     OW61990   8.659   5.757   4.709  0.8726  0.7466 -0.0071
50089SOL    HW161991   8.699   5.678   4.746  0.3341  1.1893  1.6257
50089SOL    HW261992   8.574   5.729   4.677  0.9209  0.5544  0.0292
50090SOL     OW61993  11.335   3.156   7.942  0.2902  0.2502 -0.3417
50090SOL    HW161994  11.340   3.069   7.903  3.9163  0.1151  0.0942
50090SOL    HW261995  11.353   3.143   8.035  2.9066  1.5065 -0.5624
50091SOL     OW61996   5.474   0.636   1.651 -0.4903  0.7425  0.2139
50091SOL    HW161997   5.544   0.576   1.623 -0.3801  1.2507 -0.6447
50091SOL    HW261998   5.469   0.701   1.581 -2.1904  0.4230 -0.0052
50092SOL     OW61999   5.246  10.698   3.561 -0.1318  0.0814  0.4804
50092SOL    HW162000   5.222  10.757   3.489 -0.0511 -0.1125  0.2928
50092SOL    HW262001   5.208  10.739   3.639  0.1298  0.5019  0.3884
50093SOL     OW62002   0.295   9.113   9.656  0.3954  0.5147  0.3715
50093SOL    HW162003   0.320   9.021   9.654 -1.3422  0.0021  0.5642
50093SOL    HW262004   0.332   9.147   9.738  0.7345 -0.1064  0.4780
50094SOL     OW62005   9.530   8.998   1.456  0.7557 -0.4123 -0.7297
50094SOL    HW162006   9.619   9.000   1.421  0.8215 -1.4833 -0.6563
50094SOL    HW262007   9.541   8.982   1.550  0.5257  0.8936 -0.4633
50095SOL     OW62008  10.223   8.925  10.402  0.3792 -0.3681 -0.3075
50095SOL    HW162009  10.251   9.014  10.421 -0.7760  0.0094 -0.2686
50095SOL    HW262010  10.160   8.934  10.330 -2.7933 -0.5931  2.1654
50096SOL     OW62011   8.459   2.556   7.457 -0.2652 -0.4599 -0.3588
50096SOL    HW162012   8.450   2.462   7.474 -0.3799 -0.3254  0.3407
50096SOL    HW262013   8.548   2.577   7.483 -0.4313 -0.2604  0.0601
50097SOL     OW62014  10.431   6.092  10.365 -0.7437  0.1082  0.1711
50097SOL    HW162015  10.430   6.009  10.316  0.5772  0.5857 -0.7010
50097SOL    HW262016  10.517   6.095  10.405  0.1456  2.1137 -1.7087
50098SOL     OW62017   7.756   2.108   5.099 -0.4791  0.0446 -0.6439
50098SOL    HW162018   7.759   2.095   5.004  0.5349  0.3105 -0.6501
50098SOL    HW262019   7.784   2.023   5.135  0.7828  0.4551 -0.6162
50099SOL     OW62020   4.196   2.215   8.501  0.3553 -0.4139 -0.0972
50099SOL    HW162021   4.139   2.274   8.451  0.8062  0.5246  0.4670
50099SOL    HW262022   4.167   2.227   8.592  0.6398 -0.8528  0.0496
50100SOL     OW62023   3.003   6.979   2.700 -0.5015  0.2235  0.2764
50100SOL    HW162024   3.087   6.938   2.724 -0.6806 -0.6527 -0.4943
50100SOL    HW262025   2.943   6.956   2.771 -0.4538 -0.4021  0.1222
50101SOL     OW62026  10.522   5.016   5.778 -0.5242  0.1287 -0.1191
50101SOL    HW162027  10.614   5.020   5.802 -0.5707  0.0780  0.0661
50101SOL    HW262028  10.478   5.075   5.839 -0.6413 -0.0044 -0.0748
50102SOL     OW62029   8.992   8.181   7.590  0.0646 -0.4046 -0.1351
50102SOL    HW162030   8.911   8.168   7.539 -0.0975  1.7290 -0.5270
50102SOL    HW262031   8.969   8.154   7.679 -0.4138 -1.8076 -0.6489
50103SOL     OW62032   9.443   3.905   7.055  0.2936  0.4330  0.6391
50103SOL    HW162033   9.494   3.885   6.976  1.3196 -0.0832  1.4101
50103SOL    HW262034   9.446   4.001   7.061  2.5721  0.3662  1.5212
50104SOL     OW62035   7.981   9.167   5.901  0.5135 -0.2995  0.4296
50104SOL    HW162036   8.064   9.214   5.913  0.6007 -0.6517  1.3279
50104SOL    HW262037   7.934   9.181   5.984 -0.1725 -0.4038  0.0650
50105SOL     OW62038   2.210   8.010   6.367 -0.4506 -0.5260 -0.3127
50105SOL    HW162039   2.212   8.000   6.272  1.8806 -0.3809 -0.3347
50105SOL    HW262040   2.217   8.104   6.382  0.6451 -0.6378 -0.0206
50106SOL     OW62041   9.854   1.561   2.189 -0.3630 -0.3330  0.2008
50106SOL    HW162042   9.766   1.560   2.152  0.0294  0.6517 -0.8314
50106SOL    HW262043   9.840   1.575   2.283 -1.3365 -1.4717  0.2503
50107SOL     OW62044   4.146   7.763  11.550 -0.3256  0.0516 -0.0440
50107SOL    HW162045   4.142   7.667  11.556 -0.8906  0.1096  0.7437
50107SOL    HW262046   4.183   7.790  11.634  1.1893  0.4694 -0.8125
50108SOL     OW62047   8.821   0.531   8.656 -0.0707 -0.0757 -0.4789
50108SOL    HW162048   8.838   0.598   8.722 -0.5619 -0.1536 -0.2694
50108SOL    HW262049   8.852   0.569   8.574  1.0690 -0.1926 -0.1272
50109SOL     OW62050   9.698   6.427  11.882 -0.3176  0.1215 -0.0489
50109SOL    HW162051   9.733   6.507  11.843 -3.3455  2.2628  1.2791
50109SOL    HW262052   9.656   6.381  11.810 -1.2581  1.3729 -0.3400
50110SOL     OW62053   4.912   9.311   2.996 -0.0537 -0.2572 -0.4844
50110SOL    HW162054   4.971   9.331   3.068 -1.3468  0.4651  0.4163
50110SOL    HW262055   4.828   9.351   3.021 -1.1223 -1.8058 -1.4004
50111SOL     OW62056   2.568   5.129   4.956  0.5729 -0.3891 -0.0479
50111SOL    HW162057   2.524   5.159   4.877 -0.9482  0.8592  1.1990
50111SOL    HW262058   2.603   5.043   4.933  0.1952 -0.0535 -2.0567
50112SOL     OW62059   3.046  11.566   9.716 -0.8982  1.2213  0.2817
50112SOL    HW162060   3.053  11.634   9.783 -0.7019  0.9789  0.5080
50112SOL    HW262061   2.955  11.537   9.720 -0.7436  0.7940  0.8518
50113SOL     OW62062   4.340   2.193   2.780  0.5187  0.4283  0.0307
50113SOL    HW162063   4.300   2.266   2.733  0.1720  0.4023  0.2842
50113SOL    HW262064   4.403   2.157   2.717  0.6967  0.9411 -0.0996
50114SOL     OW62065   5.993   0.946   2.969 -0.1209 -0.0566 -0.5065
50114SOL    HW162066   6.045   0.953   3.049 -0.2269  0.9007 -0.5174
50114SOL    HW262067   6.034   1.006   2.907 -1.9901  1.7412 -0.1018
50115SOL     OW62068   5.862   5.264   4.576  0.3205  0.0485 -0.1640
50115SOL    HW162069   5.802   5.293   4.645  1.2026  2.6158 -0.3616
50115SOL    HW262070   5.804   5.237   4.505 -0.5931 -0.4360  0.7364
50116SOL     OW62071   0.313   3.200   6.842 -0.0143 -0.5663  0.1618
50116SOL    HW162072   0.326   3.108   6.862 -0.4707 -0.7814 -0.5154
50116SOL    HW262073   0.323   3.244   6.926  0.2235 -1.2289  0.4869
50117SOL     OW62074   2.357   8.665   1.986 -0.3304  0.5687  0.1300
50117SOL    HW162075   2.276   8.619   2.005  0.5040 -0.4471  1.3935
50117SOL    HW262076   2.372   8.720   2.063  0.3456  0.4862  0.0615
50118SOL     OW62077   5.137   8.673   5.914  0.0460 -0.0758 -0.0174
50118SOL    HW162078   5.156   8.580   5.924  0.0628  0.0165  0.8886
50118SOL    HW262079   5.184   8.715   5.986 -1.3065  0.4425  0.6162
50119SOL     OW62080   6.966   8.305   5.710 -0.1550  0.5492  0.5990
50119SOL    HW162081   6.954   8.326   5.802  1.9752 -2.5515  1.7102
50119SOL    HW262082   7.040   8.360   5.682 -0.4344  1.0645  0.8492
50120SOL     OW62083   6.016   6.383   3.597  0.2413 -0.3298 -0.0152
50120SOL    HW162084   6.111   6.384   3.611  0.1122 -2.5772  1.7230
50120SOL    HW262085   6.003   6.437   3.519  3.1232 -1.2920 -1.3366
50121SOL     OW62086   1.566  10.644   9.662 -0.2519  0.0571  0.2156
50121SOL    HW162087   1.579  10.646   9.757 -0.7320  1.8640  0.2808
50121SOL    HW262088   1.618  10.569   9.632  1.7223  0.7811  1.6349
50122SOL     OW62089   5.511   0.324   5.915  0.7480  0.7552 -0.2377
50122SOL    HW162090   5.568   0.391   5.953  0.8727  1.7656 -2.0968
50122SOL    HW262091   5.570   0.253   5.891  0.6406  0.0137  1.5700
50123SOL     OW62092   5.511   7.052   9.641  0.1349 -0.0114 -0.4181
50123SOL    HW162093   5.562   6.983   9.597  0.9023  0.9159 -1.0408
50123SOL    HW262094   5.572   7.090   9.704 -0.6419 -0.6427  0.7272
50124SOL     OW62095   5.811   7.437   4.991 -0.0036 -0.1423 -0.2427
50124SOL    HW162096   5.742   7.491   4.954  1.2046  3.5149  2.2447
50124SOL    HW262097   5.892   7.472   4.953  0.9255  0.9190  2.4626
50125SOL     OW62098  11.228   4.824   0.109  0.2190 -0.1004  0.2781
50125SOL    HW162099  11.173   4.775   0.049 -0.6106 -0.0054  0.9519
50125SOL    HW262100  11.229   4.772   0.189 -0.8694  1.0784  1.0871
50126SOL     OW62101   3.371   6.682   5.735  0.3179  0.1528 -0.4239
50126SOL    HW162102   3.338   6.769   5.757 -1.1065 -0.1066 -1.4438
50126SOL    HW262103   3.311   6.622   5.777  1.2593 -0.3602  0.2205
50127SOL     OW62104   8.732   6.674   9.874 -0.4602  0.2663  0.7049
50127SOL    HW162105   8.727   6.733   9.949 -1.7940  1.2218 -0.1116
50127SOL    HW262106   8.724   6.587   9.912  0.8256  0.6084  1.8491
50128SOL     OW62107   6.863   7.924   4.076  0.4494 -0.5941 -0.5632
50128SOL    HW162108   6.807   7.988   4.121 -0.0992 -0.6997 -1.0759
50128SOL    HW262109   6.951   7.941   4.109  0.8347  2.3133 -2.7197
50129SOL     OW62110   4.940   1.773  11.027  0.4795  0.1426 -0.0825
50129SOL    HW162111   4.949   1.761  10.933 -0.7881  0.5760 -0.2794
50129SOL    HW262112   4.928   1.867  11.039  0.2783  0.0542  0.4736
50130SOL     OW62113   8.268  11.899   0.972 -0.3525 -0.2165 -0.3134
50130SOL    HW162114   8.242  11.850   0.894  0.3476 -0.2670 -0.5207
50130SOL    HW262115   8.269  11.834   1.042 -0.4020 -0.2912 -0.3822
50131SOL     OW62116   2.302   0.046   3.515 -0.1650 -0.0559 -0.8717
50131SOL    HW162117   2.299   0.097   3.595  0.0074 -0.2135 -0.7650
50131SOL    HW262118   2.395   0.033   3.497 -0.2030 -1.0167 -0.4556
50132SOL     OW62119   3.994  10.871   1.612 -0.7836  0.3702 -0.6655
50132SOL    HW162120   4.045  10.891   1.534 -0.4335  0.9170 -0.3027
50132SOL    HW262121   3.977  10.777   1.606 -0.6602  0.3854 -1.3369
50133SOL     OW62122   3.044   5.229   1.558  0.0248 -0.1012 -0.2710
50133SOL    HW162123   3.108   5.157   1.561  0.6528  0.4496 -0.3653
50133SOL    HW262124   2.999   5.217   1.475  0.1598 -0.3591 -0.3078
50134SOL     OW62125   3.840   9.773   8.007 -0.4025  0.1632  0.3709
50134SOL    HW162126   3.895   9.847   7.980 -0.9681  0.3294 -0.3610
50134SOL    HW262127   3.776   9.812   8.068 -1.6077  0.5977 -1.1080
50135SOL     OW62128   9.883   7.462   8.201  0.0542  0.3385 -0.2283
50135SOL    HW162129   9.897   7.382   8.150 -3.3496  0.2445 -1.3063
50135SOL    HW262130   9.886   7.532   8.137  0.4791  0.7856  0.2758
50136SOL     OW62131   7.629   4.643   9.070  0.1216  0.1961  0.3345
50136SOL    HW162132   7.717   4.674   9.049 -1.3199  2.3532 -3.5048
50136SOL    HW262133   7.584   4.720   9.103 -1.1692 -0.0243 -0.8589
50137SOL     OW62134   6.036  10.620   8.766  0.4217  0.0105  0.1704
50137SOL    HW162135   5.991  10.537   8.751  1.6227 -0.5360 -0.4430
50137SOL    HW262136   6.128  10.598   8.771  0.6413  1.0900  1.7195
50138SOL     OW62137   4.236   8.557  11.799  0.0932  0.1999 -0.3822
50138SOL    HW162138   4.319   8.513  11.781  0.2610  0.5191 -0.3958
50138SOL    HW262139   4.193   8.501  11.863  0.0459 -0.2886 -0.8308
50139SOL     OW62140   2.918   5.245   7.412  0.0866 -0.2100 -0.3665
50139SOL    HW162141   2.954   5.331   7.390  0.4104 -0.1778  0.2699
50139SOL    HW262142   2.961   5.221   7.494 -1.3383 -0.1679  0.4219
50140SOL     OW62143   0.793   7.097   5.720  0.0607  0.0149  0.1213
50140SOL    HW162144   0.709   7.126   5.754 -0.2184  0.5111 -0.9328
50140SOL    HW262145   0.822   7.029   5.780 -0.7548  0.3396  0.8940
50141SOL     OW62146   4.395   7.169   4.946  0.1118  0.1979 -0.1704
50141SOL    HW162147   4.323   7.171   4.883  0.3455  0.7620 -0.4286
50141SOL    HW262148   4.404   7.260   4.974  0.2118 -0.0011  0.4459
50142SOL     OW62149   0.007   9.839   6.333  0.7388  0.0538 -0.1041
50142SOL    HW162150   0.041   9.901   6.398 -0.1144  2.1118 -1.5177
50142SOL    HW262151   0.064   9.849   6.258  1.9304 -2.5716  0.3411
50143SOL     OW62152   4.494   1.306   9.084  0.1501  0.5101 -0.0712
50143SOL    HW162153   4.496   1.337   9.174 -0.3646  0.7019 -0.1249
50143SOL    HW262154   4.508   1.211   9.090 -0.8437  0.3753  0.2854
50144SOL     OW62155   7.847   8.393   1.099  0.3193  0.0628 -0.0927
50144SOL    HW162156   7.941   8.407   1.090  0.3573  0.2379  0.5485
50144SOL    HW262157   7.820   8.357   1.014  0.7215  1.2712 -0.7546
50145SOL     OW62158  11.926   5.902   8.891  0.6185  0.4556  0.5277
50145SOL    HW162159  11.835   5.926   8.873  0.5939  1.1985  1.5331
50145SOL    HW262160  11.977   5.953   8.828  0.3620  0.4575  0.3219
50146SOL     OW62161   6.690   7.336   1.768  0.5605 -0.4026 -0.1907
50146SOL    HW162162   6.656   7.356   1.856  0.6540  1.9149 -0.6368
50146SOL    HW262163   6.633   7.265   1.737  0.4063 -1.1494  1.6358
50147SOL     OW62164   7.072   8.764  10.147  0.2568 -0.2036  0.1132
50147SOL    HW162165   7.039   8.755  10.236  0.9942  0.1588  0.4418
50147SOL    HW262166   7.045   8.684  10.102 -2.4219  0.7263 -0.1231
50148SOL     OW62167   8.553   5.625   7.140 -0.0577  0.4018  0.1170
50148SOL    HW162168   8.488   5.594   7.077  0.1084 -3.9656  1.7092
50148SOL    HW262169   8.634   5.633   7.089 -0.5999  0.1069 -0.8120
50149SOL     OW62170   2.158   0.607   8.646 -0.4305  0.1935 -0.0906
50149SOL    HW162171   2.204   0.678   8.601  0.6233  1.2567  2.4711
50149SOL    HW262172   2.224   0.538   8.655 -1.1449 -0.7506 -1.6147
50150SOL     OW62173   8.355   8.432   1.277 -0.2277 -0.3010 -0.6365
50150SOL    HW162174   8.445   8.401   1.269  0.0737  0.6187 -0.9582
50150SOL    HW262175   8.338   8.433   1.371  0.7110  1.1624 -0.4564
50151SOL     OW62176   8.918   5.555   5.499  0.9407 -0.0413  0.0027
50151SOL    HW162177   8.883   5.505   5.426  0.5556 -1.2518  0.9765
50151SOL    HW262178   8.953   5.635   5.459 -1.1011  0.3006 -1.2426
50152SOL     OW62179   3.544   2.156   2.237  0.7535 -0.1767 -0.0212
50152SOL    HW162180   3.582   2.095   2.173  2.3876  0.5286  0.2306
50152SOL    HW262181   3.488   2.101   2.292  0.9311 -1.1574 -0.7923
50153SOL     OW62182   6.795   3.451   8.499 -0.0521  0.6138 -0.3762
50153SOL    HW162183   6.849   3.447   8.420 -1.0705  0.8148 -1.1061
50153SOL    HW262184   6.739   3.528   8.485  0.7640  1.5716  1.2226
50154SOL     OW62185   1.160   4.408   6.717  0.4567 -0.6944 -0.7985
50154SOL    HW162186   1.220   4.423   6.643  1.3808 -0.4149 -0.0070
50154SOL    HW262187   1.211   4.431   6.794  0.3462 -3.3374  0.1501
50155SOL     OW62188   4.388   7.953   9.459 -0.0127 -0.3580  0.5571
50155SOL    HW162189   4.371   8.025   9.398  0.3354 -1.0619 -0.3975
50155SOL    HW262190   4.341   7.978   9.539 -0.2644  0.7115  0.0986
50156SOL     OW62191   7.048  11.072  11.637  0.3295 -0.3948  0.5977
50156SOL    HW162192   7.095  10.990  11.650  1.1381  0.1256  1.0864
50156SOL    HW262193   7.114  11.140  11.656 -0.1260  0.3654 -0.4697
50157SOL     OW62194   4.112   0.054   7.101 -0.0910  0.1967  0.0599
50157SOL    HW162195   4.134   0.147   7.110 -1.4087  0.6039 -0.6645
50157SOL    HW262196   4.058   0.035   7.177  0.8585 -0.2188  0.6523
50158SOL     OW62197   6.027  10.629   7.923  0.9652  0.0282 -0.3578
50158SOL    HW162198   6.075  10.709   7.945  0.4883  0.2989 -0.2924
50158SOL    HW262199   6.092  10.559   7.930  1.4012  0.4189 -0.4875
50159SOL     OW62200   7.748   6.853  10.260 -0.2905  0.2085 -0.0572
50159SOL    HW162201   7.731   6.845  10.354 -0.2856 -0.0252 -0.0738
50159SOL    HW262202   7.785   6.768  10.236 -0.7796  0.0781 -0.3726
50160SOL     OW62203   7.203   3.212   4.935 -0.1573 -0.5719  0.5978
50160SOL    HW162204   7.119   3.168   4.950 -0.4193 -0.1151  0.5037
50160SOL    HW262205   7.224   3.193   4.843 -0.5778  0.0020  0.3746
50161SOL     OW62206   2.805   7.094   0.938 -0.0429  0.3124 -0.0778
50161SOL    HW162207   2.806   7.013   0.990 -0.4577  0.3589  0.0117
50161SOL    HW262208   2.790   7.064   0.848  0.2148  0.2620 -0.1036
50162SOL     OW62209   8.115   5.620   8.843 -0.7379 -0.2558  0.1623
50162SOL    HW162210   8.100   5.549   8.906 -1.8316  0.0485  0.2529
50162SOL    HW262211   8.061   5.692   8.874 -1.5658 -0.2071 -1.3216
50163SOL     OW62212   6.219   7.810   1.015 -0.1640 -0.1233 -0.6060
50163SOL    HW162213   6.184   7.755   1.085  0.2630 -0.1484 -0.4093
50163SOL    HW262214   6.227   7.751   0.940  0.1854 -0.3007 -0.4285
50164SOL     OW62215   6.242   5.142   3.227 -0.3066  0.0945 -0.7389
50164SOL    HW162216   6.328   5.183   3.231 -1.6549  3.1744 -0.4409
50164SOL    HW262217   6.213   5.138   3.318 -0.6263 -0.6713 -0.8648
50165SOL     OW62218   5.243   7.233  10.519  0.0928 -0.5349 -0.8482
50165SOL    HW162219   5.150   7.235  10.542  0.4978  0.5979  0.9348
50165SOL    HW262220   5.288   7.230  10.604  1.6901  0.0173 -1.6356
50166SOL     OW62221   8.913   9.785   8.997 -0.6868  0.2007  0.6209
50166SOL    HW162222   8.873   9.776   8.910 -1.3735 -0.6943  1.0218
50166SOL    HW262223   8.989   9.842   8.982 -0.5095 -0.3362 -0.6602
50167SOL     OW62224   7.858   5.070  11.908  0.1585  0.6787 -0.0692
50167SOL    HW162225   7.805   4.991  11.896  1.0643 -0.3839  2.3253
50167SOL    HW262226   7.944   5.047  11.874  0.1006  1.0625 -0.4769
50168SOL     OW62227   9.188  10.292   5.599 -1.0458  0.2673  0.1356
50168SOL    HW162228   9.223  10.376   5.570 -0.1234  0.5821  2.0168
50168SOL    HW262229   9.213  10.230   5.530 -0.1110  1.1994 -0.3866
50169SOL     OW62230  10.642  10.628   4.586 -0.4535  0.3265  0.1241
50169SOL    HW162231  10.666  10.535   4.583 -2.7462 -0.3279  0.2103
50169SOL    HW262232  10.646  10.657   4.495  3.3235  1.0973  0.3721
50170SOL     OW62233  11.336   9.878  10.569  0.1178 -0.1505  0.1618
50170SOL    HW162234  11.249   9.916  10.570  1.6720  3.8683  0.7208
50170SOL    HW262235  11.338   9.825  10.488 -1.6336  2.8908 -2.0753
50171SOL     OW62236  11.346   0.452  10.165  0.0357 -0.1498 -0.7212
50171SOL    HW162237  11.258   0.429  10.137 -0.4800 -0.4314  0.9855
50171SOL    HW262238  11.335   0.486  10.254  1.9443 -3.5848  1.0703
50172SOL     OW62239   2.554   1.340   8.813 -0.4752 -0.3437 -0.2547
50172SOL    HW162240   2.600   1.325   8.731  0.9134  0.7357  0.2855
50172SOL    HW262241   2.611   1.302   8.880 -0.4079  0.8786  0.4143
50173SOL     OW62242   8.802   3.789   2.935  0.1178  0.2580  0.1932
50173SOL    HW162243   8.753   3.872   2.935  1.4541  1.0850 -0.8604
50173SOL    HW262244   8.796   3.759   3.026 -1.6675  0.7051  0.2780
50174SOL     OW62245   2.864  11.733   4.529  0.3697  0.2469 -0.1820
50174SOL    HW162246   2.809  11.811   4.524  1.4244  1.0400  0.1581
50174SOL    HW262247   2.927  11.752   4.599  0.1620 -1.2402  0.4526
50175SOL     OW62248   8.111   3.909   0.253 -0.2061  0.9158  0.1326
50175SOL    HW162249   8.168   3.975   0.214 -1.8013  1.6393 -1.0728
50175SOL    HW262250   8.036   3.904   0.195  0.7168 -3.5629 -1.0955
50176SOL     OW62251  10.830   3.840   8.334  0.4927  0.3960  0.0777
50176SOL    HW162252  10.866   3.928   8.343  1.7029 -0.1137  0.4712
50176SOL    HW262253  10.907   3.783   8.329 -0.2320 -0.8930  2.1975
50177SOL     OW62254   2.993   6.815   1.867 -0.4373  0.1217  0.0947
50177SOL    HW162255   3.042   6.860   1.936 -1.0254 -0.5395  0.9585
50177SOL    HW262256   3.058   6.799   1.798  0.2478  0.4274  0.6622
50178SOL     OW62257   8.703   0.729   5.703 -0.2679  0.2052 -0.1355
50178SOL    HW162258   8.650   0.688   5.635  0.3363 -0.0792 -0.4345
50178SOL    HW262259   8.769   0.779   5.655  0.4522 -0.3745  0.2456
50179SOL     OW62260   2.463   4.871   2.722  0.7506 -0.2434 -0.1072
50179SOL    HW162261   2.409   4.947   2.746  0.6634 -0.0855 -0.7829
50179SOL    HW262262   2.412   4.795   2.753  0.7343 -0.0426  0.3748
50180SOL     OW62263   7.749  10.481   8.956 -0.0181  0.2283  0.0464
50180SOL    HW162264   7.829  10.533   8.957 -0.2490  0.5807  0.4423
50180SOL    HW262265   7.715  10.488   9.045  0.3694 -1.2736  0.3431
50181SOL     OW62266   2.718   3.029   4.390 -0.0419 -0.1249 -0.0657
50181SOL    HW162267   2.771   3.029   4.311  0.0246  0.6787 -0.0303
50181SOL    HW262268   2.683   2.940   4.395  0.3611 -0.3310 -0.7161
50182SOL     OW62269   5.014  10.274   3.072  0.2873 -0.4720  0.6933
50182SOL    HW162270   4.944  10.333   3.102 -1.7884 -1.6531 -1.4551
50182SOL    HW262271   5.056  10.321   3.000  0.3381 -0.5908  0.6464
50183SOL     OW62272   6.652   4.330   3.938  0.3154  0.5661 -0.6110
50183SOL    HW162273   6.662   4.417   3.975  0.5444  0.0447  0.5912
50183SOL    HW262274   6.558   4.321   3.922  0.1198  0.5670  0.4622
50184SOL     OW62275   3.547   4.719  11.193 -0.5655  0.4291  0.5793
50184SOL    HW162276   3.548   4.812  11.172 -0.2332 -0.2464 -2.8666
50184SOL    HW262277   3.468   4.686  11.150  0.5486 -1.2672 -0.2289
50185SOL     OW62278   0.115   7.044  11.301 -0.1569 -0.1104 -0.2467
50185SOL    HW162279   0.050   7.015  11.365  0.5496  1.5123  1.2872
50185SOL    HW262280   0.197   7.007  11.332 -0.0187 -0.5612 -1.1022
50186SOL     OW62281   6.488   0.075   6.100  0.1126  0.3049 -0.0039
50186SOL    HW162282   6.484   0.084   6.005  0.3017 -0.1211 -0.0586
50186SOL    HW262283   6.396   0.070   6.128  0.0625  0.1960 -0.1898
50187SOL     OW62284   5.430  10.867   8.278  0.3208 -0.0938 -0.0633
50187SOL    HW162285   5.446  10.944   8.332 -1.5226  0.1046  0.2571
50187SOL    HW262286   5.482  10.882   8.199 -0.7200  1.9281 -0.4122
50188SOL     OW62287   0.485   1.960   5.751 -0.2276  0.2171 -0.7792
50188SOL    HW162288   0.448   1.885   5.798  0.9545 -0.3263 -0.6860
50188SOL    HW262289   0.477   1.936   5.658  0.1495 -0.0245 -0.7495
50189SOL     OW62290  11.032   0.650  11.013 -0.1245  0.1351 -0.3295
50189SOL    HW162291  11.059   0.704  11.088 -1.3696 -1.3691  1.3040
50189SOL    HW262292  11.069   0.694  10.937  3.4225  0.4015  1.3188
50190SOL     OW62293   8.397   9.196   3.074  0.4057 -0.0332 -0.1345
50190SOL    HW162294   8.481   9.211   3.118  0.3649  1.6522 -0.5872
50190SOL    HW262295   8.383   9.102   3.083  1.1267  0.0100  2.1501
50191SOL     OW62296   6.648   1.895   9.430  0.3166  1.0121 -0.1325
50191SOL    HW162297   6.563   1.915   9.391  0.4840  0.6497 -0.6944
50191SOL    HW262298   6.698   1.976   9.423  0.0310  1.2130  0.1591
50192SOL     OW62299  10.867   5.115   0.393 -0.0440 -0.0166  0.6034
50192SOL    HW162300  10.919   5.047   0.435  0.1541 -1.4241 -1.7578
50192SOL    HW262301  10.799   5.068   0.344 -2.9076  1.6951  2.5560
50193SOL     OW62302   8.250   3.079   6.117 -0.0287 -0.2046 -0.1450
50193SOL    HW162303   8.161   3.078   6.152  0.8067 -1.0770  2.1398
50193SOL    HW262304   8.284   3.165   6.141  0.8356 -1.1184  2.1325
50194SOL     OW62305  11.014   0.111   5.627 -0.0062  0.5089 -0.7058
50194SOL    HW162306  10.989   0.190   5.675  0.4502 -0.0793  0.5297
50194SOL    HW262307  11.055   0.143   5.547  0.0462  1.5221 -0.2812
50195SOL     OW62308   6.414  11.881   6.751  0.1735 -0.2903 -0.4674
50195SOL    HW162309   6.420  11.977   6.756 -0.3468 -0.2199 -1.0326
50195SOL    HW262310   6.375  11.864   6.665  0.3299 -1.0141 -0.4009
50196SOL     OW62311   5.690   4.886   6.059 -0.1621 -0.3402 -0.2874
50196SOL    HW162312   5.778   4.897   6.023 -0.5419  0.5287 -0.9976
50196SOL    HW262313   5.689   4.943   6.136 -0.2027 -0.0602 -0.4893
50197SOL     OW62314   6.098   8.562   7.435 -0.8555  0.1628  0.6787
50197SOL    HW162315   6.120   8.631   7.498  0.2510 -1.3541  2.0414
50197SOL    HW262316   6.182   8.530   7.404 -1.3785  0.6314 -1.3760
50198SOL     OW62317   3.564   3.206   5.182  0.0882  0.1803 -0.3289
50198SOL    HW162318   3.502   3.221   5.253  2.8199 -2.5077  2.9825
50198SOL    HW262319   3.528   3.131   5.135 -0.1611 -0.1648  0.3913
50199SOL     OW62320   1.513   0.912   2.148 -0.6049 -0.1557  0.2346
50199SOL    HW162321   1.500   0.825   2.108 -2.8040  0.2174  0.0000
50199SOL    HW262322   1.508   0.895   2.242  0.2907 -0.4459  0.2396
50200SOL     OW62323   8.634   0.142  11.214  0.5211 -0.3364 -0.6058
50200SOL    HW162324   8.690   0.140  11.292 -0.4930  1.3260  0.2282
50200SOL    HW262325   8.689   0.182  11.147  0.8134 -0.0660 -0.2131
50201SOL     OW62326   0.461   7.711   9.307  0.2303  0.1205 -0.2172
50201SOL    HW162327   0.555   7.699   9.297  0.1580 -0.8619  0.1852
50201SOL    HW262328   0.452   7.758   9.390  0.3766  0.5888 -0.4605
50202SOL     OW62329   5.550  10.586  11.222 -0.5335 -0.2262 -1.0105
50202SOL    HW162330   5.545  10.504  11.173 -0.6732 -1.6116  1.2055
50202SOL    HW262331   5.556  10.560  11.313 -0.1633  2.2476 -0.2393
50203SOL     OW62332   7.998   3.886   8.139 -0.3447  0.7069  0.2715
50203SOL    HW162333   8.000   3.891   8.043 -2.6294  3.3857  0.2314
50203SOL    HW262334   7.905   3.883   8.160  0.0930  1.0307  2.4376
50204SOL     OW62335   8.110   7.629   5.653  0.0332 -0.0123  0.2691
50204SOL    HW162336   8.026   7.669   5.678 -0.7681 -1.3205 -0.2093
50204SOL    HW262337   8.176   7.678   5.702 -1.0338  0.8623  0.8774
50205SOL     OW62338   4.859   9.490   6.151  0.0260  0.3448 -0.1267
50205SOL    HW162339   4.894   9.413   6.106 -1.2619 -1.0255  1.1228
50205SOL    HW262340   4.927   9.514   6.214 -0.1475 -0.6412  0.4454
50206SOL     OW62341   9.102   0.928   0.466  0.2017  0.4653 -0.3131
50206SOL    HW162342   9.160   0.864   0.424  0.0176  1.5098 -2.2431
50206SOL    HW262343   9.149   0.953   0.546  1.1618 -0.6427 -0.4912
50207SOL     OW62344   6.721   3.007   3.335 -0.0380 -0.1586  0.2774
50207SOL    HW162345   6.670   3.087   3.349 -0.4533 -0.2442 -0.6668
50207SOL    HW262346   6.810   3.032   3.358  0.2164  1.1953 -1.8674
50208SOL     OW62347   1.334   9.259   8.986 -0.1138 -0.1858  0.6327
50208SOL    HW162348   1.412   9.244   8.933  1.5075 -1.1549  3.1070
50208SOL    HW262349   1.286   9.175   8.982 -1.7152  0.7467 -1.7702
50209SOL     OW62350  10.036  10.660   9.881  0.1157  0.0644  0.1027
50209SOL    HW162351  10.076  10.678   9.966  1.0778  0.4490 -0.4161
50209SOL    HW262352  10.005  10.745   9.850 -1.3630 -0.2641  0.6073
50210SOL     OW62353   4.385   6.590   9.015  0.5290  0.0367  0.1049
50210SOL    HW162354   4.394   6.495   9.012 -1.6536 -0.2519  1.2648
50210SOL    HW262355   4.352   6.609   9.102  0.1396  1.7892 -0.3771
50211SOL     OW62356   2.807  11.912   2.866 -0.4316  0.5991  0.2813
50211SOL    HW162357   2.766  11.836   2.908 -1.3989  0.4422 -0.9064
50211SOL    HW262358   2.890  11.922   2.912 -0.3127 -1.1386  0.5058
50212SOL     OW62359   7.834   7.239   4.812 -0.3306  0.4863 -0.0578
50212SOL    HW162360   7.897   7.254   4.883 -0.3134  1.3946 -0.2557
50212SOL    HW262361   7.858   7.303   4.745 -0.1349 -0.5714 -1.0394
50213SOL     OW62362  10.322   1.889   6.797 -0.4401 -0.3908 -0.4082
50213SOL    HW162363  10.245   1.936   6.829 -1.2604 -1.7263 -0.3429
50213SOL    HW262364  10.396   1.931   6.841 -1.1453  0.7552 -0.2776
50214SOL     OW62365   0.699   5.596   1.235  0.2255  0.0481  0.1692
50214SOL    HW162366   0.715   5.557   1.321 -0.4002 -0.4246  0.0751
50214SOL    HW262367   0.745   5.540   1.173  0.9058  0.5441  0.2146
50215SOL     OW62368   3.778  11.614   9.013 -0.2676  0.2411  0.0760
50215SOL    HW162369   3.793  11.652   8.927  0.6576 -0.1077  0.0686
50215SOL    HW262370   3.684  11.623   9.028 -0.2689  1.2891 -0.4938
50216SOL     OW62371   0.905   0.928   9.292 -0.4832 -0.2047  0.2691
50216SOL    HW162372   0.886   0.903   9.202  0.1993 -1.9528  0.5709
50216SOL    HW262373   1.001   0.922   9.299 -0.5866 -0.9001  1.3159
50217SOL     OW62374   4.237  11.754   2.885  0.3686 -0.1974 -0.2801
50217SOL    HW162375   4.217  11.660   2.882  0.3755 -0.1795 -2.5578
50217SOL    HW262376   4.261  11.776   2.795  0.2941  2.0197  0.1914
50218SOL     OW62377   3.103   4.980   7.152 -0.1136 -0.1247 -0.4251
50218SOL    HW162378   3.190   4.971   7.189  0.3732  0.5523 -1.3726
50218SOL    HW262379   3.112   5.045   7.082 -1.0232 -1.1905 -1.6031
50219SOL     OW62380   8.381  10.740  10.788  0.3658  0.1502 -0.0266
50219SOL    HW162381   8.358  10.829  10.815 -1.7683 -0.4760  0.3475
50219SOL    HW262382   8.345  10.731  10.700 -1.3340 -0.9967  0.7373
50220SOL     OW62383   6.499  10.854   1.226 -0.3865  0.3387  0.6993
50220SOL    HW162384   6.551  10.818   1.155 -0.0540  1.1826  0.5060
50220SOL    HW262385   6.550  10.834   1.305 -1.3759 -1.7636  0.8879
50221SOL     OW62386   4.808   0.324   4.514 -0.3432  0.1286 -0.3261
50221SOL    HW162387   4.753   0.357   4.443 -0.1325  0.4862 -0.3271
50221SOL    HW262388   4.760   0.344   4.594 -0.4421 -0.0020 -0.3534
50222SOL     OW62389   7.094   7.533   6.753  0.1541 -0.5904 -0.1473
50222SOL    HW162390   7.063   7.624   6.760  0.5790 -0.4238 -0.3770
50222SOL    HW262391   7.190   7.541   6.749  0.1285 -0.9067 -2.2659
50223SOL     OW62392   6.632   9.495   7.896 -0.4762 -0.0168 -0.2220
50223SOL    HW162393   6.682   9.482   7.976 -1.3942 -0.1706  0.3403
50223SOL    HW262394   6.668   9.575   7.858 -0.1048  0.1151  0.3931
50224SOL     OW62395  10.551   4.572   6.469 -0.5348 -0.1383  0.1749
50224SOL    HW162396  10.460   4.553   6.490  0.2704 -0.8303  3.7064
50224SOL    HW262397  10.568   4.658   6.508  0.8292 -1.0149  1.6725
50225SOL     OW62398   7.279  11.879   5.678  0.0943  0.0870 -0.2943
50225SOL    HW162399   7.296  11.967   5.646 -0.6545  0.2304 -0.3070
50225SOL    HW262400   7.286  11.886   5.773 -2.4593  0.7435 -0.0963
50226SOL     OW62401   6.614   7.203  10.896  0.8344  0.1405 -0.3291
50226SOL    HW162402   6.595   7.237  10.983  0.1563 -1.8819  0.3754
50226SOL    HW262403   6.697   7.156  10.906 -0.1550 -1.6819 -0.2506
50227SOL     OW62404   6.066   8.613  10.851  0.3246 -0.2248  0.0498
50227SOL    HW162405   6.078   8.556  10.775 -1.5675  0.1551 -0.5677
50227SOL    HW262406   5.982   8.656  10.836 -0.0441 -0.0534  2.3183
50228SOL     OW62407  11.406   6.172   5.956  0.0876 -0.3990  0.3963
50228SOL    HW162408  11.328   6.166   6.010 -1.6128 -0.7091 -1.9661
50228SOL    HW262409  11.451   6.251   5.987 -0.6684 -0.6849  2.3468
50229SOL     OW62410   8.819   1.639   2.912 -0.5554  0.0622  0.0139
50229SOL    HW162411   8.836   1.733   2.917 -0.1608 -0.0147  0.1800
50229SOL    HW262412   8.786   1.625   2.823  2.4903 -0.1002 -1.2364
50230SOL     OW62413   7.596   1.900   6.885  0.5026 -0.4351  0.3227
50230SOL    HW162414   7.644   1.933   6.961  2.7250 -0.0075 -1.1442
50230SOL    HW262415   7.622   1.808   6.879 -0.4558 -0.7321  0.6351
50231SOL     OW62416   3.404   4.973   6.225  0.5472  0.2892  0.1094
50231SOL    HW162417   3.452   4.937   6.299  0.2067 -1.2840 -0.3904
50231SOL    HW262418   3.430   5.065   6.221  1.3968  0.1277  1.5039
50232SOL     OW62419   5.545   2.579   9.200  0.2470 -0.4985 -0.3225
50232SOL    HW162420   5.537   2.577   9.105  0.6851  1.4677 -0.4385
50232SOL    HW262421   5.454   2.582   9.232  0.1165 -0.2908 -0.7133
50233SOL     OW62422   9.026   4.241   4.855 -0.5369 -0.5522 -0.3563
50233SOL    HW162423   9.099   4.181   4.838 -0.5860 -0.6352 -0.2803
50233SOL    HW262424   8.950   4.197   4.817 -0.5188 -0.3911 -0.5743
50234SOL     OW62425   6.939   2.155   1.085  0.2522  0.5387 -0.7657
50234SOL    HW162426   7.023   2.191   1.113 -0.0651  0.5998  0.1598
50234SOL    HW262427   6.876   2.190   1.149 -0.4998  0.6183 -1.5294
50235SOL     OW62428   5.645   0.070  11.198 -0.0840  0.4915 -0.3527
50235SOL    HW162429   5.573   0.049  11.257 -1.2909 -0.7695 -2.1690
50235SOL    HW262430   5.676   0.156  11.227 -0.7124 -0.0042  1.9699
50236SOL     OW62431   2.712   9.473   1.510  0.2708 -0.1845 -0.3285
50236SOL    HW162432   2.655   9.487   1.435 -0.7920 -1.5115  0.1939
50236SOL    HW262433   2.787   9.531   1.495 -0.6447  0.7021 -1.6235
50237SOL     OW62434   1.596   5.594   6.348  0.2100 -0.1834 -0.1652
50237SOL    HW162435   1.589   5.499   6.359 -0.3582 -0.0306  0.9027
50237SOL    HW262436   1.575   5.630   6.434  1.8989  0.8654 -0.1321
50238SOL     OW62437   5.115   0.081   9.992 -0.4899  0.1542  0.2022
50238SOL    HW162438   5.079   0.022   9.926 -1.5156 -0.4433  1.2624
50238SOL    HW262439   5.068   0.059  10.072  1.6956 -0.1373  1.4932
50239SOL     OW62440   7.022   2.702   5.249  0.0388  0.3361 -0.2084
50239SOL    HW162441   7.068   2.701   5.333 -1.5460 -1.1421  0.7168
50239SOL    HW262442   7.082   2.660   5.187  0.3737 -0.5840  0.7119
50240SOL     OW62443   6.191   8.214   7.502  0.0925 -0.5541 -0.0112
50240SOL    HW162444   6.277   8.215   7.545  0.2856  2.7289 -0.2043
50240SOL    HW262445   6.183   8.125   7.467  2.6706 -1.4675  1.4187
50241SOL     OW62446   0.335   4.815   6.376 -0.8293 -0.1449  0.2096
50241SOL    HW162447   0.326   4.776   6.463 -2.8052 -0.5458 -0.1329
50241SOL    HW262448   0.295   4.901   6.384  0.4537  0.4882  0.0784
50242SOL     OW62449   0.064   8.177   5.095  0.3152  0.0797 -0.9172
50242SOL    HW162450   0.028   8.170   5.184 -0.1366 -0.8997 -1.1617
50242SOL    HW262451   0.159   8.179   5.107  0.2439  2.0473 -0.2936
50243SOL     OW62452   3.523   4.862  11.584  0.1530 -0.0491  0.4174
50243SOL    HW162453   3.603   4.839  11.537 -0.2446 -0.1671 -0.2049
50243SOL    HW262454   3.501   4.950  11.555 -0.6937 -0.5296 -0.4695
50244SOL     OW62455   8.379   7.905   3.988 -0.1136  0.4296 -0.3032
50244SOL    HW162456   8.461   7.939   3.952  0.6334 -1.6398 -0.6870
50244SOL    HW262457   8.395   7.900   4.082 -0.1059  0.8126 -0.2827
50245SOL     OW62458   9.316   2.190   1.900  0.2022  0.2280  0.1423
50245SOL    HW162459   9.278   2.267   1.857 -0.6201 -1.4864 -2.4402
50245SOL    HW262460   9.257   2.171   1.972 -0.7966  0.7570 -0.5183
50246SOL     OW62461  10.695   3.513   1.634  0.1726 -0.4284 -0.1499
50246SOL    HW162462  10.750   3.439   1.607 -0.0140 -0.3593 -0.7276
50246SOL    HW262463  10.632   3.524   1.563  0.6949  0.7880 -0.4614
50247SOL     OW62464   9.931   9.920   8.511  0.1166  0.1126 -0.2473
50247SOL    HW162465   9.955   9.954   8.597 -0.3879  2.0469 -0.8242
50247SOL    HW262466  10.007   9.867   8.484 -0.3587 -1.8985  2.0069
50248SOL     OW62467   5.617   1.289   8.808 -0.5270 -0.0475 -0.3138
50248SOL    HW162468   5.667   1.221   8.854 -0.1725  0.3344 -0.1204
50248SOL    HW262469   5.574   1.338   8.878 -1.5559 -0.6626 -0.5096
50249SOL     OW62470   4.226   8.729   6.401 -0.0043  0.3684 -0.3268
50249SOL    HW162471   4.187   8.815   6.417 -1.1905 -0.1466 -0.3679
50249SOL    HW262472   4.157   8.667   6.422  1.0033 -0.6100  0.2073
50250SOL     OW62473   1.562   8.314   8.450  0.1943 -0.1168 -0.4576
50250SOL    HW162474   1.482   8.350   8.411  0.2138  0.2211 -0.1849
50250SOL    HW262475   1.579   8.369   8.525  0.1953 -0.7275 -0.0001
50251SOL     OW62476   9.755   0.846   8.312 -0.2526  0.2905 -0.0958
50251SOL    HW162477   9.778   0.761   8.349 -0.5169 -0.1674 -0.9581
50251SOL    HW262478   9.680   0.875   8.364 -0.6545 -0.3688 -0.2998
50252SOL     OW62479   6.781   8.424   7.575 -0.0595 -0.0982  0.2117
50252SOL    HW162480   6.856   8.433   7.634  2.5440 -0.9065 -2.6998
50252SOL    HW262481   6.755   8.332   7.585  0.4186 -0.2555  0.0543
50253SOL     OW62482   3.864   0.538  11.607  0.0196 -0.2568  0.1365
50253SOL    HW162483   3.957   0.547  11.587 -0.0433  1.9293  0.6332
50253SOL    HW262484   3.823   0.523  11.521  0.8377 -1.8393 -0.0233
50254SOL     OW62485   3.822   6.586   7.904  0.1349  0.1502 -0.4308
50254SOL    HW162486   3.810   6.569   7.811 -3.4427  0.6320 -0.1982
50254SOL    HW262487   3.733   6.598   7.938  1.4207  2.4054  2.6023
50255SOL     OW62488   5.359   0.737   7.044  0.2093 -0.2493  0.0781
50255SOL    HW162489   5.418   0.803   7.079  0.5667 -0.8402  0.6197
50255SOL    HW262490   5.297   0.720   7.116  0.9283 -1.4463  0.4422
50256SOL     OW62491   0.727   6.844  10.643 -0.2374 -0.0043 -0.2746
50256SOL    HW162492   0.634   6.844  10.667  0.4076  1.9991  2.9264
50256SOL    HW262493   0.736   6.915  10.580 -0.4918  2.0915  1.9137
50257SOL     OW62494   3.516   7.320   4.352  0.0106  0.1936 -0.4349
50257SOL    HW162495   3.581   7.372   4.400 -0.4667 -1.0022  1.6462
50257SOL    HW262496   3.433   7.338   4.397  0.0559 -3.4165  1.4685
50258SOL     OW62497   4.347   8.211   4.879 -0.1351 -0.1347 -0.5481
50258SOL    HW162498   4.426   8.260   4.902  0.0329 -0.5717 -0.1820
50258SOL    HW262499   4.336   8.148   4.950 -1.2896  0.4746 -0.1601
50259SOL     OW62500   5.930   1.107   6.427 -0.2597 -0.3367  0.3384
50259SOL    HW162501   5.952   1.167   6.356 -0.7615 -0.7554 -0.1746
50259SOL    HW262502   6.009   1.104   6.481  0.1572 -0.0935 -0.2519
50260SOL     OW62503   2.240   7.906   0.836  0.4940 -0.5144  0.2409
50260SOL    HW162504   2.214   7.842   0.903 -1.2977  0.0696  0.1541
50260SOL    HW262505   2.159   7.925   0.789  1.9062 -2.1306 -3.2382
50261SOL     OW62506  10.088   5.545  11.861  0.7726  0.6422  0.2213
50261SOL    HW162507  10.037   5.551  11.942  2.4533  0.9973  1.2802
50261SOL    HW262508  10.035   5.489  11.804  0.2352 -0.8479  2.0874
50262SOL     OW62509   6.350   6.770  11.067 -0.1739  0.3145 -0.3390
50262SOL    HW162510   6.378   6.777  10.976 -0.8426  0.6529 -0.5290
50262SOL    HW262511   6.424   6.802  11.118  0.4167 -0.4075 -0.7297
50263SOL     OW62512  11.122   1.466   9.810  0.1681 -0.2644  0.2915
50263SOL    HW162513  11.200   1.451   9.863 -0.1094  0.8123  1.0372
50263SOL    HW262514  11.051   1.428   9.861  0.2030 -1.4741 -0.5047
50264SOL     OW62515   4.474   3.667   4.443  0.1385  0.2483 -0.2807
50264SOL    HW162516   4.382   3.663   4.420  0.2450 -0.6981 -0.5651
50264SOL    HW262517   4.514   3.592   4.399  0.9482  0.3346  0.2733
50265SOL     OW62518   4.790   5.064   5.010 -0.2506  0.2927  0.0686
50265SOL    HW162519   4.721   5.126   5.035  1.3353  1.8974  0.6754
50265SOL    HW262520   4.779   5.053   4.916 -2.1255 -0.5351  0.3388
50266SOL     OW62521   5.250   8.403   2.217  0.5866  0.4720 -0.0533
50266SOL    HW162522   5.342   8.415   2.241  0.2429  0.5182  1.3242
50266SOL    HW262523   5.210   8.489   2.230  0.4945  0.6714 -1.4630
50267SOL     OW62524   1.272   4.197   2.380  0.0202  0.4408 -0.2988
50267SOL    HW162525   1.335   4.269   2.375 -0.0366  0.6019  0.9679
50267SOL    HW262526   1.196   4.236   2.423  0.3700 -0.6047  1.3518
50268SOL     OW62527  11.775   4.928   5.505 -0.3918 -0.6401 -0.1344
50268SOL    HW162528  11.747   5.014   5.473 -1.2419 -1.5550 -2.0643
50268SOL    HW262529  11.715   4.866   5.463  1.5632 -2.3552 -0.5978
50269SOL     OW62530   6.947   9.444   0.084 -0.1437 -0.9301  0.7288
50269SOL    HW162531   6.991   9.369   0.045 -0.5968 -0.3086 -1.0545
50269SOL    HW262532   7.000   9.519   0.059 -1.4555 -0.3129 -0.3334
50270SOL     OW62533  10.285   2.780   0.534 -0.1902  0.5067  0.0652
50270SOL    HW162534  10.260   2.697   0.574  1.7945 -2.1643 -3.6083
50270SOL    HW262535  10.221   2.795   0.465  0.3105  1.2211 -0.2689
50271SOL     OW62536   4.289   8.916  11.723  0.2275 -0.3384 -0.7036
50271SOL    HW162537   4.379   8.922  11.692 -0.0118  0.7578 -1.2340
50271SOL    HW262538   4.237   8.902  11.644 -0.1426 -0.0898 -0.5101
50272SOL     OW62539   9.895   3.637   7.572 -0.6263 -0.3937 -0.1516
50272SOL    HW162540   9.912   3.731   7.579  0.2899 -0.6651  2.1733
50272SOL    HW262541   9.806   3.626   7.606 -0.2791 -0.4840  0.7477
50273SOL     OW62542   6.128   8.478   3.470 -0.0123  0.8110  0.2985
50273SOL    HW162543   6.171   8.518   3.394 -1.3959 -0.2644 -1.1262
50273SOL    HW262544   6.037   8.468   3.442  0.0777 -2.6145  0.8006
50274SOL     OW62545   2.429   1.652  10.277  0.2438  0.0254 -0.1977
50274SOL    HW162546   2.373   1.675  10.203  1.0578  0.4635 -0.7034
50274SOL    HW262547   2.458   1.736  10.312 -0.4482 -0.1763  0.8766
50275SOL     OW62548   2.535   9.661   2.894  0.2626 -0.1842 -0.2805
50275SOL    HW162549   2.517   9.674   2.988 -1.1754  1.0063 -0.6759
50275SOL    HW262550   2.457   9.616   2.861  1.3151 -1.7861 -0.7028
50276SOL     OW62551   2.160   2.792   5.694  0.1598  0.0972 -0.6172
50276SOL    HW162552   2.235   2.800   5.634  0.6749  0.4756  0.0747
50276SOL    HW262553   2.092   2.751   5.640  0.9723 -0.5861 -1.1648
50277SOL     OW62554   8.601   2.312   5.513 -0.5669  0.2642 -0.2404
50277SOL    HW162555   8.569   2.349   5.431 -0.3722  1.9852  0.4156
50277SOL    HW262556   8.614   2.219   5.495 -0.0480  0.7031 -2.2963
50278SOL     OW62557   7.625   0.397   8.433 -0.2307  0.1467 -0.1399
50278SOL    HW162558   7.649   0.481   8.473  0.2949 -1.5261  3.4836
50278SOL    HW262559   7.709   0.351   8.422 -0.5085  0.0084 -2.0691
50279SOL     OW62560   9.027   8.065   4.438  0.4949  0.2037  0.2430
50279SOL    HW162561   9.045   8.011   4.515  0.3409  0.0136  0.1463
50279SOL    HW262562   9.052   8.154   4.465  2.3401 -0.1543 -0.1555
50280SOL     OW62563  10.644   3.672  10.888  0.3278  0.1768 -0.0620
50280SOL    HW162564  10.626   3.763  10.862  0.0950 -0.4061 -2.0954
50280SOL    HW262565  10.566   3.645  10.935 -0.4415  0.4357 -1.1585
50281SOL     OW62566   2.798   5.855   9.038 -0.1459  0.3959 -0.0427
50281SOL    HW162567   2.756   5.787   8.986  1.3066 -0.0899 -0.6439
50281SOL    HW262568   2.793   5.822   9.128 -0.8984  0.2838 -0.1178
50282SOL     OW62569   6.875   5.500  10.232 -0.1151  0.6223  0.4232
50282SOL    HW162570   6.805   5.454  10.186  1.6090 -1.0931 -0.6682
50282SOL    HW262571   6.881   5.585  10.189 -0.3050  0.0624 -0.7637
50283SOL     OW62572   7.443   9.081   7.747  0.3978  0.1832  0.3469
50283SOL    HW162573   7.465   9.072   7.654  0.0151 -0.7919  0.3435
50283SOL    HW262574   7.402   9.167   7.753  3.0304  1.5789  0.1480
50284SOL     OW62575   4.217   1.616   7.163 -0.7483 -0.1664  0.4105
50284SOL    HW162576   4.300   1.629   7.210 -0.2194  0.0856 -0.5561
50284SOL    HW262577   4.215   1.522   7.144 -1.4786 -0.4616  1.8322
50285SOL     OW62578  11.543   7.415   9.079  0.0217 -0.2933 -0.4501
50285SOL    HW162579  11.615   7.474   9.099  1.4629 -2.4099  1.0025
50285SOL    HW262580  11.469   7.450   9.129  0.8377  0.2762  0.3810
50286SOL     OW62581   3.365   5.108   8.387 -0.2872 -0.2381 -0.0355
50286SOL    HW162582   3.417   5.083   8.463  0.5381 -2.6275 -1.2750
50286SOL    HW262583   3.276   5.081   8.409 -0.0287 -1.0467  0.0502
50287SOL     OW62584   3.727   5.846   9.911  0.0926  0.2701 -0.6587
50287SOL    HW162585   3.710   5.929   9.957  0.5031 -0.8825  1.7120
50287SOL    HW262586   3.674   5.781   9.958  2.5279 -1.4361 -0.1167
50288SOL     OW62587   3.181   3.912   3.681 -0.0011  0.0405 -0.2410
50288SOL    HW162588   3.221   3.937   3.764 -0.2456  0.4415 -0.2395
50288SOL    HW262589   3.192   3.990   3.625 -0.8623  0.1892 -0.2078
50289SOL     OW62590   1.498   3.952   6.677 -0.1604  0.1443 -0.2496
50289SOL    HW162591   1.469   4.012   6.746 -0.9618 -0.1952 -0.2796
50289SOL    HW262592   1.497   4.004   6.597 -0.2676  0.2538 -0.1778
50290SOL     OW62593   4.291   9.169   4.105 -0.0178 -0.6059 -0.2180
50290SOL    HW162594   4.383   9.191   4.086 -0.4221  1.0723 -0.3819
50290SOL    HW262595   4.292   9.138   4.195  0.7101 -0.5939 -0.2153
50291SOL     OW62596   5.589   2.306   5.481  0.0973 -0.2090  0.3586
50291SOL    HW162597   5.562   2.254   5.558  1.1188 -0.5581  0.5000
50291SOL    HW262598   5.541   2.266   5.408  0.6879 -1.2340  0.5024
50292SOL     OW62599   5.887  10.057   0.365 -0.3979  0.3050 -0.8524
50292SOL    HW162600   5.806  10.053   0.415 -0.6082  1.6124 -1.0367
50292SOL    HW262601   5.943   9.989   0.403 -1.8160 -1.1048 -1.1878
50293SOL     OW62602   4.562  10.049   0.594 -0.8084 -0.6031  0.2681
50293SOL    HW162603   4.557   9.955   0.581  0.6751 -0.7340  0.3842
50293SOL    HW262604   4.645  10.062   0.642 -1.6245  0.6385  1.4332
50294SOL     OW62605  11.182   2.248  10.759  0.4343  0.3335 -0.1889
50294SOL    HW162606  11.215   2.227  10.846  0.9686  0.7022 -0.2976
50294SOL    HW262607  11.161   2.163  10.720 -3.1148  0.2478  1.5270
50295SOL     OW62608   4.657   5.899   8.540 -0.1735 -0.1383 -0.1185
50295SOL    HW162609   4.742   5.904   8.497 -1.0071  0.3783 -1.8281
50295SOL    HW262610   4.642   5.805   8.553  0.4279 -0.2655 -0.3170
50296SOL     OW62611   7.183  10.040   5.722 -0.1187 -0.3113 -0.2236
50296SOL    HW162612   7.154  10.124   5.757  0.3793 -1.2570  2.6912
50296SOL    HW262613   7.107   9.982   5.729  0.0441 -0.5736 -0.5623
50297SOL     OW62614   2.861   3.993   1.432  0.0839  0.2818  0.1784
50297SOL    HW162615   2.816   3.950   1.504 -0.5395  0.6440  0.0136
50297SOL    HW262616   2.954   3.978   1.449 -0.1113 -1.4753 -0.0981
50298SOL     OW62617   4.102   1.519   0.799  0.1852  0.1751  0.1941
50298SOL    HW162618   4.086   1.602   0.843  0.3174 -1.1778  3.0298
50298SOL    HW262619   4.035   1.515   0.731 -0.4325  2.1612  0.6164
50299SOL     OW62620  11.363   1.823   1.867  0.4061 -0.4863  0.0908
50299SOL    HW162621  11.329   1.910   1.886  0.2673  0.0457 -2.3056
50299SOL    HW262622  11.285   1.767   1.864  0.1575 -0.0899 -1.2746
50300SOL     OW62623   6.599   5.476   0.008 -0.1814 -0.2155 -0.5276
50300SOL    HW162624   6.672   5.502   0.064 -0.3034 -0.6819 -0.1445
50300SOL    HW262625   6.607   5.381   0.000 -1.3395 -0.4110  0.3760
50301SOL     OW62626   9.538   1.861  11.262  0.1375 -0.0623 -0.0314
50301SOL    HW162627   9.517   1.875  11.355  0.9911 -0.4999  0.2345
50301SOL    HW262628   9.632   1.874  11.257  0.0782  0.0521 -0.8674
50302SOL     OW62629   9.677   7.771   0.247  1.3253 -0.5214 -0.4774
50302SOL    HW162630   9.600   7.714   0.251 -0.9149  2.3356  2.7779
50302SOL    HW262631   9.659   7.830   0.175 -0.3164  0.9419  1.0455
50303SOL     OW62632   3.365  11.686   1.205 -0.2052  0.3476 -0.3851
50303SOL    HW162633   3.325  11.670   1.290  0.8209 -0.6641 -0.0809
50303SOL    HW262634   3.292  11.679   1.143 -0.6259 -0.8553  0.2185
50304SOL     OW62635   9.235  11.022   4.732 -0.0691 -0.0295 -0.2180
50304SOL    HW162636   9.274  11.074   4.661  0.8693 -1.1113 -0.5293
50304SOL    HW262637   9.146  11.056   4.741  0.3082  1.1777 -0.8509
50305SOL     OW62638  10.158   5.748   5.530 -0.4409  0.0929  0.0707
50305SOL    HW162639  10.150   5.814   5.462 -2.4110 -1.3008 -1.1755
50305SOL    HW262640  10.075   5.751   5.577 -0.0204 -0.5409  0.8910
50306SOL     OW62641   8.300   7.479   8.381 -0.0751  0.2589  0.5357
50306SOL    HW162642   8.258   7.530   8.313  0.4825  0.1876  0.1274
50306SOL    HW262643   8.347   7.543   8.435 -0.9921  0.3830  1.2228
50307SOL     OW62644   0.744   6.598   9.937  0.5172  0.0651 -0.3652
50307SOL    HW162645   0.669   6.541   9.924  1.8813 -1.4190 -2.3454
50307SOL    HW262646   0.726   6.675   9.883 -1.2497  1.5694  2.1795
50308SOL     OW62647   5.893   0.991   4.938 -0.2164 -0.3442  0.1604
50308SOL    HW162648   5.928   1.049   4.870 -1.4190  0.0014 -0.1948
50308SOL    HW262649   5.962   0.927   4.952  0.4413  0.1411 -0.7085
50309SOL     OW62650   6.407   9.477   0.665  0.3578 -0.0738 -0.1242
50309SOL    HW162651   6.475   9.517   0.610  2.2619 -1.5172  1.0413
50309SOL    HW262652   6.337   9.454   0.604  0.9074  1.4231 -1.3859
50310SOL     OW62653   4.749   5.512   2.433 -0.2741  0.7858 -0.0163
50310SOL    HW162654   4.835   5.476   2.411  0.1055  1.2580  0.6598
50310SOL    HW262655   4.721   5.462   2.510 -0.4967  0.7958 -0.0918
50311SOL     OW62656   8.389  10.234   3.552  0.1591 -0.3787 -0.7808
50311SOL    HW162657   8.420  10.309   3.602 -0.2389 -1.0623  0.5321
50311SOL    HW262658   8.448  10.162   3.576 -0.6972 -0.9872 -0.4432
50312SOL     OW62659   1.553   3.376   6.472 -0.3240 -0.3566 -0.2377
50312SOL    HW162660   1.604   3.446   6.513 -0.1128 -0.4782 -0.2876
50312SOL    HW262661   1.520   3.414   6.391  0.7155 -0.6492 -0.8219
50313SOL     OW62662   8.716   7.684   6.196  0.4863  0.1557 -0.0117
50313SOL    HW162663   8.720   7.590   6.181  2.4021  0.0210  1.0375
50313SOL    HW262664   8.696   7.721   6.110  2.2190 -1.0848 -1.0249
50314SOL     OW62665   7.446   9.789  11.838 -0.0819  0.2320 -0.1463
50314SOL    HW162666   7.406   9.711  11.875 -0.6018  1.1949  1.4149
50314SOL    HW262667   7.401   9.862  11.881  1.6420  1.3779 -0.1838
50315SOL     OW62668   0.361  10.413   4.589  0.5789 -0.2752 -0.7601
50315SOL    HW162669   0.298  10.372   4.649 -0.8224 -0.9583 -2.6062
50315SOL    HW262670   0.401  10.339   4.542 -0.0086  0.3044 -2.2346
50316SOL     OW62671  10.188  11.732   8.334  0.1711 -0.0753  0.4678
50316SOL    HW162672  10.260  11.679   8.301  0.7854  0.5228  0.8398
50316SOL    HW262673  10.126  11.668   8.371  0.0055 -0.6704 -0.7674
50317SOL     OW62674   8.879   8.170  10.773 -0.2934 -0.5747  0.4872
50317SOL    HW162675   8.955   8.221  10.746  0.3231 -1.2403  0.9148
50317SOL    HW262676   8.805   8.228  10.761  0.3235  0.1982  0.3714
50318SOL     OW62677  10.685  10.093   8.682 -0.6273  0.0030  0.3323
50318SOL    HW162678  10.659  10.120   8.594  0.1553 -1.4905 -0.3903
50318SOL    HW262679  10.686  10.175   8.733 -0.9528  0.9133 -1.0686
50319SOL     OW62680   5.235   2.789   2.085  0.8458  0.2749 -0.8248
50319SOL    HW162681   5.216   2.721   2.150  1.5470  1.2884  0.5064
50319SOL    HW262682   5.211   2.750   2.001 -0.8195 -0.8114  0.1107
50320SOL     OW62683   5.574   1.523   4.273 -0.4738  0.1692 -0.0148
50320SOL    HW162684   5.571   1.448   4.332 -0.3562  0.6951  0.6613
50320SOL    HW262685   5.533   1.594   4.322 -0.7979  0.4938 -0.7386
50321SOL     OW62686   6.551   2.539  10.087 -0.1207  0.0190  0.3216
50321SOL    HW162687   6.470   2.583  10.112 -0.2389  1.0835 -1.7620
50321SOL    HW262688   6.556   2.548   9.992  2.3329 -0.2126  0.3589
50322SOL     OW62689   0.172   1.603   8.016 -0.1585 -0.2754  0.1733
50322SOL    HW162690   0.253   1.576   7.972  0.4755  0.7298  0.6939
50322SOL    HW262691   0.144   1.681   7.969 -0.9664 -0.7327 -0.1387
50323SOL     OW62692   7.248   9.804   7.417  0.2622  0.4485 -0.0717
50323SOL    HW162693   7.160   9.800   7.381  0.9061 -0.7239 -1.6519
50323SOL    HW262694   7.266   9.715   7.447  0.3881  1.0175  1.6690
50324SOL     OW62695   2.830   9.896   7.231  0.3539 -0.4730 -0.0019
50324SOL    HW162696   2.771   9.826   7.203  1.9543 -1.3583 -1.2860
50324SOL    HW262697   2.838   9.953   7.155  0.9480 -0.2170  0.2476
50325SOL     OW62698   8.291   7.633  10.522 -0.9493 -0.3710 -0.3339
50325SOL    HW162699   8.227   7.697  10.554  0.7152  0.6867  1.0730
50325SOL    HW262700   8.275   7.555  10.576 -0.8317  0.0051  0.2506
50326SOL     OW62701   3.880   4.631   1.950  0.0599  0.9142  0.3323
50326SOL    HW162702   3.882   4.645   1.856 -1.0333  1.5042  0.3797
50326SOL    HW262703   3.935   4.701   1.986  2.0645 -0.4363  0.0581
50327SOL     OW62704   8.408   1.127   7.668  0.8156 -0.0622  0.6101
50327SOL    HW162705   8.484   1.101   7.721  0.3850 -1.3369  0.6254
50327SOL    HW262706   8.394   1.054   7.608 -0.0392  0.4227  0.2020
50328SOL     OW62707   0.873   8.883   4.886  0.1503  0.4735 -0.3045
50328SOL    HW162708   0.912   8.934   4.815  1.8166  0.5615  0.6150
50328SOL    HW262709   0.911   8.796   4.876 -0.5144  0.1627 -0.1904
50329SOL     OW62710   3.419   6.003  11.075  0.3945  0.3078  0.0102
50329SOL    HW162711   3.416   6.057  10.996 -0.5135  0.9270  0.4449
50329SOL    HW262712   3.428   6.066  11.147 -0.4928 -0.1206  0.5088
50330SOL     OW62713   8.149   3.568   1.522  0.0629  0.6003 -0.3960
50330SOL    HW162714   8.235   3.537   1.494 -0.0583  0.3880 -0.5299
50330SOL    HW262715   8.128   3.513   1.598 -0.0653  0.4838 -0.5159
50331SOL     OW62716   1.495   7.591   8.859  0.2536 -0.2301 -0.2980
50331SOL    HW162717   1.579   7.592   8.814 -0.2482  0.2286 -1.2454
50331SOL    HW262718   1.433   7.625   8.795 -0.3103  1.5502  1.1143
50332SOL     OW62719   3.375   5.162   6.644  0.4612 -0.1826  0.1683
50332SOL    HW162720   3.433   5.226   6.601 -1.1882  2.7705  2.0078
50332SOL    HW262721   3.427   5.127   6.716  1.1811 -0.5049 -0.4883
50333SOL     OW62722   1.059   0.518  11.491  0.0569 -0.3376 -0.0839
50333SOL    HW162723   0.981   0.534  11.439  0.7253  0.9668 -0.7369
50333SOL    HW262724   1.082   0.603  11.527  1.6708 -0.4834 -0.6577
50334SOL     OW62725   6.357   0.521   4.331  0.0833 -0.5219 -0.1896
50334SOL    HW162726   6.412   0.444   4.348  1.5215 -0.0607 -2.3379
50334SOL    HW262727   6.418   0.589   4.303 -1.3286  0.9198  0.0684
50335SOL     OW62728   8.202   7.822   0.950 -0.8493 -0.5702  0.0118
50335SOL    HW162729   8.113   7.856   0.959 -1.2000 -1.2771 -0.6619
50335SOL    HW262730   8.198   7.733   0.986  0.0458  0.0334  1.7038
50336SOL     OW62731   5.370  11.141   2.939  0.1138 -0.1900  0.5330
50336SOL    HW162732   5.282  11.118   2.909  0.3553 -1.4310  0.7165
50336SOL    HW262733   5.428  11.092   2.882  0.7308  1.1032  0.0126
50337SOL     OW62734   8.491   3.810   8.536  0.0200 -0.3269  0.4578
50337SOL    HW162735   8.566   3.870   8.534 -0.6930  0.6532 -2.4305
50337SOL    HW262736   8.416   3.865   8.558 -0.1811 -0.8255  1.0302
50338SOL     OW62737   5.261   4.783  10.973 -0.3741  0.4776  0.2865
50338SOL    HW162738   5.205   4.780  11.050 -2.1130  2.6227 -0.7935
50338SOL    HW262739   5.329   4.718  10.991 -1.4462 -0.0409  3.0137
50339SOL     OW62740   7.892   0.531  10.723  0.1881  0.0994  0.2455
50339SOL    HW162741   7.891   0.476  10.644 -2.1951  0.1498  0.1739
50339SOL    HW262742   7.979   0.569  10.724  1.0315 -1.6353 -1.1410
50340SOL     OW62743   6.067  11.862   0.427  0.6416 -0.7463 -0.2562
50340SOL    HW162744   6.034  11.807   0.355 -1.8288  0.7417 -0.3775
50340SOL    HW262745   6.024  11.826   0.505  0.2306  0.0437 -0.1137
50341SOL     OW62746   4.332   8.733   6.105 -0.0614 -0.3233  0.8156
50341SOL    HW162747   4.238   8.721   6.118 -0.2520  0.9499  0.7298
50341SOL    HW262748   4.347   8.826   6.122  1.3949 -0.7476  2.0830
50342SOL     OW62749   6.984   8.117   6.131  0.5583  0.0429  0.1908
50342SOL    HW162750   7.007   8.210   6.132  2.2175 -0.3385  0.9221
50342SOL    HW262751   6.948   8.103   6.043 -1.3097  1.6915  0.6160
50343SOL     OW62752   7.607   1.875  11.365  0.2409 -0.7577  0.6892
50343SOL    HW162753   7.574   1.790  11.396 -4.3332 -0.0171 -1.3615
50343SOL    HW262754   7.559   1.940  11.417  1.5311  0.6087  0.2533
50344SOL     OW62755   2.589   0.823  10.686  0.9413  0.3148 -0.4333
50344SOL    HW162756   2.600   0.846  10.779  0.7279 -0.2198 -0.2676
50344SOL    HW262757   2.620   0.900  10.638  0.3984  0.8693  0.0881
50345SOL     OW62758   1.313   7.769   7.844 -0.2316  0.2940  0.1567
50345SOL    HW162759   1.356   7.828   7.906  3.5208 -3.2220  1.3573
50345SOL    HW262760   1.337   7.803   7.758  4.2819 -0.6926  0.7817
50346SOL     OW62761   8.064   1.918  11.718  0.0370  0.3404 -0.1243
50346SOL    HW162762   8.117   1.997  11.726  0.7486 -0.0523 -0.8193
50346SOL    HW262763   8.125   1.851  11.687 -1.3116  0.4264 -3.2950
50347SOL     OW62764   2.607   3.533   8.209  0.1402  0.2452  0.4400
50347SOL    HW162765   2.549   3.463   8.179  1.3678 -1.0866  1.0632
50347SOL    HW262766   2.597   3.602   8.143 -0.8130 -0.6570 -0.3984
50348SOL     OW62767   6.239  11.723   8.140  0.0333 -0.9415 -0.1012
50348SOL    HW162768   6.290  11.642   8.140  0.5699 -0.6147  0.3949
50348SOL    HW262769   6.230  11.746   8.233 -4.2443 -2.9550  0.2442
50349SOL     OW62770   0.623  11.612  10.764  0.7433  0.4604  0.2510
50349SOL    HW162771   0.608  11.678  10.696  0.5468  0.4871  0.3174
50349SOL    HW262772   0.543  11.615  10.817 -0.4122 -1.6251 -1.2178
50350SOL     OW62773  10.896   2.311   7.609  0.6971  0.0165  0.1365
50350SOL    HW162774  10.986   2.334   7.583 -0.0582  0.8371 -1.9868
50350SOL    HW262775  10.902   2.221   7.639  1.9431 -0.6240 -1.8342
50351SOL     OW62776   1.080   8.454   5.280  0.2100 -0.2933  0.3790
50351SOL    HW162777   1.094   8.371   5.235  0.5196 -0.4566  0.7598
50351SOL    HW262778   1.138   8.516   5.235  2.3593 -0.9840  1.9952
50352SOL     OW62779   4.764   0.476   3.938 -0.1774  0.5919  0.1748
50352SOL    HW162780   4.768   0.430   4.022 -0.3869  0.4246  0.0944
50352SOL    HW262781   4.855   0.494   3.916 -0.1542  1.2520  0.7748
50353SOL     OW62782   3.221   9.007   7.406 -0.0930  0.3883  0.0257
50353SOL    HW162783   3.146   9.015   7.466  0.3482  0.8299  0.5307
50353SOL    HW262784   3.206   8.925   7.360 -0.1533 -0.2664  1.1607
50354SOL     OW62785   8.166  10.364  11.252  0.0504 -0.5970 -0.3726
50354SOL    HW162786   8.209  10.447  11.234 -0.7075  0.0345  0.5660
50354SOL    HW262787   8.082  10.389  11.290  0.0752 -1.7982  0.5312
50355SOL     OW62788   5.982   8.061   4.277  0.2554 -0.2551  0.0928
50355SOL    HW162789   6.009   8.151   4.292 -1.6853  0.8332 -2.3562
50355SOL    HW262790   6.028   8.034   4.198 -1.7645 -0.1294 -1.1965
50356SOL     OW62791   2.808  11.600   4.893 -0.1487  0.3655  0.3503
50356SOL    HW162792   2.737  11.571   4.836  1.1262 -0.7501 -0.7253
50356SOL    HW262793   2.780  11.575   4.981 -1.5033  0.8388  0.0884
50357SOL     OW62794   8.025   1.562   8.471  0.4187 -0.3582  0.0916
50357SOL    HW162795   8.067   1.485   8.433  0.5087  0.4206 -1.4631
50357SOL    HW262796   8.003   1.536   8.561 -0.8370 -2.6727 -0.8035
50358SOL     OW62797   2.981   6.677   9.759 -0.0115  0.0618  0.1392
50358SOL    HW162798   2.996   6.594   9.713 -0.8760 -0.0661  0.0735
50358SOL    HW262799   2.926   6.728   9.700 -2.2168 -0.5943  1.4855
50359SOL     OW62800   7.188  11.139   5.217 -0.2872  0.3959 -0.2038
50359SOL    HW162801   7.096  11.113   5.220 -1.4386  3.9076 -0.7447
50359SOL    HW262802   7.213  11.150   5.309 -0.6597  0.2368 -0.0818
50360SOL     OW62803   5.212  11.862  11.092  0.1312  0.7323 -0.0260
50360SOL    HW162804   5.183  11.786  11.042  1.0402  0.9851 -0.9783
50360SOL    HW262805   5.176  11.937  11.045 -1.2365  0.9054  1.2267
50361SOL     OW62806   6.295   0.363   3.955 -0.1718  0.0672 -0.2265
50361SOL    HW162807   6.315   0.381   3.863  1.8401 -1.5471 -0.1742
50361SOL    HW262808   6.215   0.311   3.953  0.2586 -0.5757 -1.1270
50362SOL     OW62809   3.724  11.192  11.081  0.0802  0.1984 -0.0887
50362SOL    HW162810   3.660  11.209  11.012 -3.1839 -1.6100  2.2002
50362SOL    HW262811   3.736  11.277  11.124 -0.1901  0.7215 -1.0225
50363SOL     OW62812   9.945   0.142   6.820  0.6795  0.3493  0.4683
50363SOL    HW162813   9.988   0.227   6.830  0.6247  0.5140 -0.5252
50363SOL    HW262814   9.877   0.142   6.887 -0.5995  1.9425 -0.7293
50364SOL     OW62815   8.522   7.747  10.262 -0.2564 -0.1649 -0.4781
50364SOL    HW162816   8.547   7.661  10.295  1.8908 -0.4058 -2.4927
50364SOL    HW262817   8.603   7.786  10.230 -1.5757  1.5178 -2.0620
50365SOL     OW62818  11.728   4.016   7.613 -0.5481  0.3358  0.0954
50365SOL    HW162819  11.657   4.063   7.568 -1.1304 -0.7816 -0.1762
50365SOL    HW262820  11.763   4.080   7.676 -0.4390  1.5780 -1.1679
50366SOL     OW62821   1.852   9.661   0.669 -0.0469 -0.6347 -0.5006
50366SOL    HW162822   1.774   9.612   0.643 -1.0569  1.1430 -1.0063
50366SOL    HW262823   1.836   9.686   0.760  0.8046 -1.8171  0.0024
50367SOL     OW62824   7.805   7.862   1.391 -0.6406 -0.1523 -0.1026
50367SOL    HW162825   7.822   7.900   1.477 -0.3524  0.6295 -0.4951
50367SOL    HW262826   7.848   7.922   1.330 -0.7600 -0.7554 -0.7818
50368SOL     OW62827   6.766   0.976   2.688  0.4580 -0.0514 -0.1368
50368SOL    HW162828   6.808   0.914   2.629  0.8299  0.7288 -0.7085
50368SOL    HW262829   6.678   0.989   2.651  0.9886  1.1198 -1.0749
50369SOL     OW62830   3.765   7.533   5.318  0.1043 -0.3395 -0.5223
50369SOL    HW162831   3.689   7.475   5.315  0.0231 -0.3424  0.9008
50369SOL    HW262832   3.745   7.595   5.389  0.9972  0.2725 -0.7922
50370SOL     OW62833   3.608   6.359   1.670 -0.0014 -0.8186  0.1555
50370SOL    HW162834   3.682   6.377   1.728 -0.1349 -2.2829  0.8331
50370SOL    HW262835   3.531   6.365   1.727 -0.7786  3.2205 -1.0325
50371SOL     OW62836   9.832   6.290   4.834  0.0777  0.3638 -0.7266
50371SOL    HW162837   9.815   6.208   4.880  1.8217 -0.3095 -1.1991
50371SOL    HW262838   9.746   6.321   4.806 -0.7710 -0.4605  0.8500
50372SOL     OW62839   5.659   9.457   2.054 -0.3116 -0.1120  0.1711
50372SOL    HW162840   5.600   9.397   2.101  1.0627 -0.8986  0.9455
50372SOL    HW262841   5.617   9.543   2.063 -1.4002 -0.6694  0.5999
50373SOL     OW62842  10.812   3.000  11.475  0.3632 -0.2228 -0.1034
50373SOL    HW162843  10.811   2.948  11.395  0.6608  0.3239 -0.4754
50373SOL    HW262844  10.741   3.063  11.463 -0.5240 -1.0685  0.7025
50374SOL     OW62845   3.372   3.923   1.680  0.3674 -0.0515  0.1156
50374SOL    HW162846   3.464   3.939   1.659  0.7244 -0.4178  1.3075
50374SOL    HW262847   3.345   4.002   1.727  0.0376  0.1012 -0.3281
50375SOL     OW62848  11.943  11.153   5.151 -0.1681  0.4155  0.1256
50375SOL    HW162849  11.964  11.065   5.121  0.2444  0.8740 -0.9447
50375SOL    HW262850  11.949  11.208   5.073 -5.2418  0.6690 -0.4159
50376SOL     OW62851  11.504   0.529   1.661 -0.0447 -0.3305  0.1218
50376SOL    HW162852  11.596   0.532   1.633  0.0767  2.0275  0.5739
50376SOL    HW262853  11.455   0.517   1.579  0.5810  0.3887 -0.3704
50377SOL     OW62854   4.919   4.429   9.467 -0.1393 -0.1381 -0.3924
50377SOL    HW162855   4.902   4.350   9.518  0.2833 -0.7718 -1.2118
50377SOL    HW262856   5.014   4.439   9.468 -0.2219  0.6811  0.1654
50378SOL     OW62857   1.131   6.974  11.139  0.7251  0.0636  0.3181
50378SOL    HW162858   1.189   6.999  11.212  0.2740  0.5651  0.5196
50378SOL    HW262859   1.059   7.038  11.144  0.1046 -0.6155  0.1398
50379SOL     OW62860   1.533   0.713   8.301  0.0020 -0.1310 -0.2986
50379SOL    HW162861   1.508   0.700   8.393 -0.7372  0.4199 -0.4136
50379SOL    HW262862   1.511   0.804   8.283  0.5981 -0.0973 -0.8918
50380SOL     OW62863   6.306  11.605   1.689 -0.1094 -0.4515 -0.5169
50380SOL    HW162864   6.396  11.634   1.677 -0.3310  0.2503 -0.5493
50380SOL    HW262865   6.282  11.636   1.776 -0.7738  0.6415 -1.0663
50381SOL     OW62866   1.506   2.866   4.862  0.0757 -0.2129  0.4631
50381SOL    HW162867   1.482   2.956   4.884 -1.5747 -0.5885  0.3167
50381SOL    HW262868   1.590   2.874   4.817 -0.2315  1.2910  0.0978
50382SOL     OW62869   9.306   6.555   4.812 -0.0149 -0.1705 -0.5903
50382SOL    HW162870   9.366   6.624   4.841 -0.8070 -0.0458  0.8598
50382SOL    HW262871   9.286   6.577   4.721  0.0714  1.2843 -0.2817
50383SOL     OW62872   1.773   6.595   2.042 -0.1106 -0.6257  0.0292
50383SOL    HW162873   1.813   6.569   2.126 -1.8154  1.4650  1.6238
50383SOL    HW262874   1.684   6.561   2.047  0.1010 -1.4653 -1.5097
50384SOL     OW62875   6.415   2.420   8.784 -0.2000 -0.3020 -0.1176
50384SOL    HW162876   6.321   2.407   8.799 -0.4341 -0.0656 -1.2706
50384SOL    HW262877   6.457   2.387   8.863 -1.1112 -2.6332 -0.5458
50385SOL     OW62878   5.086   0.230   8.619  0.2255  0.4413  0.0930
50385SOL    HW162879   5.137   0.155   8.588  0.7657  0.3399  1.1747
50385SOL    HW262880   5.139   0.306   8.600 -0.2543  0.5483 -0.8641
50386SOL     OW62881   1.826   1.223   7.290  0.1100  0.3257  0.4278
50386SOL    HW162882   1.730   1.222   7.287  0.0141 -1.1602  2.1046
50386SOL    HW262883   1.847   1.306   7.332 -0.2351  1.9166 -2.2622
50387SOL     OW62884  11.604   3.247   3.632 -0.0210  0.4283 -0.1976
50387SOL    HW162885  11.691   3.238   3.672 -0.5708 -0.7172  0.8082
50387SOL    HW262886  11.616   3.312   3.563  1.7349 -0.0129 -0.3577
50388SOL     OW62887   9.172   3.487   3.442  0.1569  0.1070 -0.1217
50388SOL    HW162888   9.082   3.518   3.442 -0.2454 -0.9865 -1.0760
50388SOL    HW262889   9.165   3.394   3.464  1.1788  0.2882  1.1195
50389SOL     OW62890   2.843  11.739   2.598 -0.1115  0.2462  0.1183
50389SOL    HW162891   2.933  11.771   2.587 -0.0004  0.1268  0.6480
50389SOL    HW262892   2.853  11.643   2.599  0.0053  0.2386  2.0733
50390SOL     OW62893  11.322   6.710  11.827 -0.0608 -0.2257 -0.3496
50390SOL    HW162894  11.368   6.650  11.885 -1.1460 -2.4529 -1.6509
50390SOL    HW262895  11.269   6.653  11.771 -1.1829  1.9736 -1.6620
50391SOL     OW62896   1.399   0.780   0.070  0.2684 -0.1318 -0.0597
50391SOL    HW162897   1.370   0.833   0.144  1.9164  3.1479 -1.5202
50391SOL    HW262898   1.438   0.702   0.110 -0.6615  0.5618  2.3818
50392SOL     OW62899   5.190   7.929   1.911  0.1072  0.5176  0.3104
50392SOL    HW162900   5.102   7.907   1.941  1.5210 -3.2810  2.3509
50392SOL    HW262901   5.232   7.969   1.986  0.8282 -0.0500  0.2289
50393SOL     OW62902   9.214   8.923   8.814 -0.0645 -0.3211  0.6391
50393SOL    HW162903   9.138   8.949   8.867  0.2577  2.6259 -0.1444
50393SOL    HW262904   9.177   8.906   8.727  0.0654  0.7698  0.3480
50394SOL     OW62905   1.131   0.527   0.581 -0.4803 -0.3383 -0.4927
50394SOL    HW162906   1.124   0.492   0.670 -0.6846  0.5157 -0.1690
50394SOL    HW262907   1.117   0.451   0.524 -0.7835 -0.8059  0.2037
50395SOL     OW62908   0.268   3.867  11.078  0.3436  0.2824  0.0582
50395SOL    HW162909   0.206   3.836  11.145 -0.8170  1.4611 -0.4410
50395SOL    HW262910   0.353   3.858  11.120 -0.1651 -1.0487  0.9009
50396SOL     OW62911   1.454   3.682   3.581  0.0206  0.2674 -0.0672
50396SOL    HW162912   1.389   3.613   3.588 -1.6524  1.8459  0.7615
50396SOL    HW262913   1.446   3.713   3.490  0.3191 -0.1837 -0.2501
50397SOL     OW62914   7.905   7.707   9.834 -0.2538 -0.3077 -0.0367
50397SOL    HW162915   7.999   7.692   9.826  0.3136  1.1464  2.6933
50397SOL    HW262916   7.892   7.732   9.925 -3.2885 -0.2592 -0.3658
50398SOL     OW62917   1.471   3.688   8.877  0.2617  0.7262  0.0897
50398SOL    HW162918   1.502   3.769   8.919  2.9368 -0.5104  0.7462
50398SOL    HW262919   1.522   3.681   8.797 -0.5652  0.1019 -0.4018
50399SOL     OW62920   1.440   7.540   3.647 -0.7472  0.1147  0.4803
50399SOL    HW162921   1.527   7.503   3.632 -0.8273  0.6541 -1.5923
50399SOL    HW262922   1.387   7.465   3.672  0.5751 -0.0046  3.3317
50400SOL     OW62923   8.120   3.549   0.242  0.4294  0.3126 -0.3178
50400SOL    HW162924   8.080   3.542   0.328 -0.9060 -0.4065 -0.9757
50400SOL    HW262925   8.181   3.475   0.238 -0.8472 -0.7601 -0.6533
50401SOL     OW62926   4.794   7.409   4.851 -0.0804  0.1251 -0.1255
50401SOL    HW162927   4.791   7.473   4.922  1.3569 -0.2932  0.3494
50401SOL    HW262928   4.830   7.330   4.891 -2.6133 -1.3211 -0.4915
50402SOL     OW62929   3.227   6.415  11.057  0.1971 -0.6832 -0.3808
50402SOL    HW162930   3.152   6.457  11.015 -0.3092 -0.8377  0.3460
50402SOL    HW262931   3.194   6.330  11.087  1.0959 -1.4430 -1.4569
50403SOL     OW62932   1.187   5.649   8.414 -0.4728  0.8382 -0.6107
50403SOL    HW162933   1.151   5.715   8.355  1.0379 -0.0134 -2.6230
50403SOL    HW262934   1.133   5.571   8.399 -0.4256  0.7715 -0.4421
50404SOL     OW62935   1.694   7.699   1.800 -0.2567  0.0186  0.0981
50404SOL    HW162936   1.697   7.666   1.889  1.4496 -0.3662 -0.0627
50404SOL    HW262937   1.746   7.780   1.802 -2.0753  1.2641 -0.1002
50405SOL     OW62938   7.534   3.307   0.930  0.3788  0.5576 -0.1265
50405SOL    HW162939   7.569   3.221   0.950 -0.4429  0.0959 -0.6026
50405SOL    HW262940   7.594   3.369   0.972 -0.0169 -0.2796  1.7710
50406SOL     OW62941   5.462   3.390   3.721  0.6750 -0.5745 -0.0726
50406SOL    HW162942   5.422   3.370   3.806  0.3374 -1.7114 -0.4749
50406SOL    HW262943   5.549   3.423   3.743  0.0525  0.6117  0.7647
50407SOL     OW62944   5.688   2.518   0.996  0.4550 -0.5110  0.1313
50407SOL    HW162945   5.722   2.429   1.010 -1.5576 -1.0017  2.5907
50407SOL    HW262946   5.735   2.571   1.060  0.2319 -0.1913  0.0300
50408SOL     OW62947   5.275   3.692   1.793  0.0190 -0.3067 -0.0392
50408SOL    HW162948   5.197   3.747   1.795 -1.0333 -1.6652 -1.3755
50408SOL    HW262949   5.341   3.747   1.751 -0.6878  0.3246 -0.3510
50409SOL     OW62950   5.996   4.844   6.862  0.3430  0.2941 -0.2497
50409SOL    HW162951   5.961   4.905   6.797  1.7200  0.2510 -1.0569
50409SOL    HW262952   5.936   4.853   6.937 -0.7957  0.9406 -1.1983
50410SOL     OW62953   6.163   6.908  11.446  0.5351 -0.2880  0.7590
50410SOL    HW162954   6.231   6.845  11.473 -0.4203 -1.3913  0.6693
50410SOL    HW262955   6.117   6.864  11.374  1.4008  1.5403 -1.0382
50411SOL     OW62956   0.575   6.807   5.842  0.4413  0.0563 -0.1971
50411SOL    HW162957   0.549   6.862   5.916  0.9517 -0.1248  0.1167
50411SOL    HW262958   0.509   6.737   5.840  1.8474 -1.4098  1.6959
50412SOL     OW62959   8.358   9.452   8.367 -0.2055 -0.2922  0.3604
50412SOL    HW162960   8.276   9.449   8.317 -0.2699  0.0387  0.4442
50412SOL    HW262961   8.330   9.454   8.458 -0.0873 -0.9534  0.4142
50413SOL     OW62962   3.676   8.062   6.868 -0.6277  0.2557  0.6981
50413SOL    HW162963   3.706   8.153   6.860 -1.5686  0.4989 -0.3413
50413SOL    HW262964   3.584   8.065   6.843 -0.2817 -1.2166 -0.9275
50414SOL     OW62965   5.764   4.219   2.638  0.1488  0.2567  0.6416
50414SOL    HW162966   5.704   4.287   2.669 -0.6213 -0.6583  1.2165
50414SOL    HW262967   5.714   4.170   2.573  0.6525  0.1686  0.3170
50415SOL     OW62968   6.607   3.227   0.616 -0.1798 -0.3212 -0.1670
50415SOL    HW162969   6.686   3.229   0.671 -0.1806 -1.2020 -0.1145
50415SOL    HW262970   6.640   3.234   0.526  0.2138 -3.0745 -0.3283
50416SOL     OW62971   9.734   8.619   8.464 -0.3096 -0.1787  0.4777
50416SOL    HW162972   9.772   8.707   8.458  0.5946 -0.5885  0.0326
50416SOL    HW262973   9.690   8.618   8.549 -0.7121  0.8526  0.2974
50417SOL     OW62974   7.204   5.269   9.617 -0.2030 -0.7353  0.4153
50417SOL    HW162975   7.277   5.210   9.635 -0.7547 -1.5101  0.1503
50417SOL    HW262976   7.183   5.256   9.525  1.0232  1.4384 -0.2354
50418SOL     OW62977   0.195   4.363   7.545 -0.1048 -0.2269  0.0241
50418SOL    HW162978   0.149   4.279   7.537 -0.9430  0.3348 -1.5374
50418SOL    HW262979   0.154   4.406   7.619 -0.8873 -0.4713 -0.2595
50419SOL     OW62980   3.119   0.795  10.965 -0.0493  0.1325  0.1012
50419SOL    HW162981   3.091   0.777  10.876 -1.5191 -1.5153  0.8286
50419SOL    HW262982   3.057   0.747  11.020  1.3795  0.2973  1.9814
50420SOL     OW62983   1.996  10.200   5.862  0.2560  0.2140  0.3473
50420SOL    HW162984   2.042  10.197   5.946  0.0631  0.2615  0.4566
50420SOL    HW262985   2.055  10.159   5.800  1.3279  2.0899  0.0647
50421SOL     OW62986   4.230   5.423   8.534 -0.3049  0.6901 -0.0961
50421SOL    HW162987   4.294   5.491   8.512 -1.9853  2.0526 -1.0254
50421SOL    HW262988   4.231   5.421   8.630  2.1593 -0.4180 -0.0725
50422SOL     OW62989   5.686   6.036   0.740  0.1191  0.5293 -0.3367
50422SOL    HW162990   5.615   5.971   0.737  0.0526  0.6201 -0.8341
50422SOL    HW262991   5.656   6.107   0.684  2.0740 -0.9606 -3.6044
50423SOL     OW62992   6.218   5.973   6.372 -0.0314 -0.3906 -0.0266
50423SOL    HW162993   6.298   5.929   6.342  0.3627  0.0665  0.3347
50423SOL    HW262994   6.148   5.910   6.355  0.0711  0.0255 -2.4426
50424SOL     OW62995   2.810   1.937   1.280  0.4730 -0.1133  0.2710
50424SOL    HW162996   2.783   1.868   1.340 -1.4742 -0.0104 -0.3964
50424SOL    HW262997   2.850   2.004   1.335 -0.8390 -0.2292  1.4182
50425SOL     OW62998   8.503   1.468  11.466  0.4105 -0.2449  0.4543
50425SOL    HW162999   8.448   1.464  11.387  2.5537 -0.3047 -1.1177
50425SOL    HW263000   8.464   1.402  11.524  0.1278 -1.9536 -1.5157
50426SOL     OW63001  11.104   5.594   0.142  0.2862  0.6150  0.1648
50426SOL    HW163002  11.031   5.642   0.181 -0.4525 -0.1225 -0.2740
50426SOL    HW263003  11.111   5.513   0.194  1.5882  1.1984  0.9663
50427SOL     OW63004   5.415  11.055  10.793 -0.5225  0.1602 -0.2599
50427SOL    HW163005   5.491  11.100  10.757  0.1972 -1.1684 -0.4875
50427SOL    HW263006   5.371  11.017  10.717  0.6445 -2.1177  0.1201
50428SOL     OW63007   4.601   1.319   3.077 -0.3310 -0.2728 -0.1295
50428SOL    HW163008   4.583   1.227   3.056  0.9747 -0.4025 -0.7866
50428SOL    HW263009   4.623   1.359   2.993  3.0863 -0.3370  0.5861
50429SOL     OW63010   3.796   3.734   5.315  0.5381  0.1369  0.0893
50429SOL    HW163011   3.713   3.775   5.293  0.2226 -1.0690 -1.0855
50429SOL    HW263012   3.778   3.685   5.395  0.0869 -0.1969 -0.2127
50430SOL     OW63013  11.198   6.658  10.432  0.5781 -0.1731 -0.1358
50430SOL    HW163014  11.153   6.697  10.507 -0.1907  0.2400 -0.7914
50430SOL    HW263015  11.130   6.608  10.387  0.4583  1.3697 -1.7723
50431SOL     OW63016   8.482   1.610  11.181 -0.7285  0.0264 -0.2540
50431SOL    HW163017   8.515   1.560  11.107 -0.2452  1.5055 -1.0825
50431SOL    HW263018   8.392   1.633  11.156 -1.0774 -0.7013  0.2868
50432SOL     OW63019   7.180   0.163   3.847 -0.2224 -0.2154  0.8354
50432SOL    HW163020   7.086   0.155   3.859 -0.7394 -1.8911 -2.9415
50432SOL    HW263021   7.192   0.252   3.815 -0.7870 -0.4572 -0.0986
50433SOL     OW63022   2.969   5.922  11.097 -0.2425  0.1996 -0.4659
50433SOL    HW163023   3.052   5.875  11.098  0.1209  0.8352 -0.1647
50433SOL    HW263024   2.916   5.876  11.033  0.2438 -0.3845 -0.4534
50434SOL     OW63025   0.825   0.677   7.010  0.0394 -0.2130  0.2649
50434SOL    HW163026   0.884   0.721   6.948  0.7072 -1.4470 -0.0011
50434SOL    HW263027   0.773   0.748   7.048  0.6919  0.7375 -0.5707
50435SOL     OW63028   4.303  11.458   1.115  0.1481 -0.0634  0.2574
50435SOL    HW163029   4.333  11.533   1.167  1.3187  0.9918 -1.8350
50435SOL    HW263030   4.241  11.495   1.052  0.9145 -0.8064 -0.9601
50436SOL     OW63031   6.062  10.536   2.054  0.4825 -0.2153  0.8616
50436SOL    HW163032   5.967  10.541   2.054  0.5115  0.4146  0.9516
50436SOL    HW263033   6.091  10.628   2.048  1.0685 -0.4760 -1.0439
50437SOL     OW63034   6.192   5.030   5.396  0.3330 -0.4720  0.1460
50437SOL    HW163035   6.123   5.085   5.433  1.3063  0.4282  0.6828
50437SOL    HW263036   6.200   4.957   5.458 -0.9058 -1.2108 -0.5277
50438SOL     OW63037  11.105   8.678   7.588 -0.4676  0.2262  0.2810
50438SOL    HW163038  11.168   8.670   7.516 -0.9004  0.7677 -0.1687
50438SOL    HW263039  11.021   8.690   7.544 -0.9364 -0.8504  0.8756
50439SOL     OW63040   5.949   1.027  11.905  0.3200 -0.5151  0.5555
50439SOL    HW163041   5.985   1.086  11.971  0.6977  2.0672 -1.7761
50439SOL    HW263042   5.856   1.050  11.900  0.0561 -1.4487  0.8909
50440SOL     OW63043   2.320   5.513   0.418  0.5835 -0.2699  0.3153
50440SOL    HW163044   2.305   5.597   0.461 -2.4544 -0.8580  0.6129
50440SOL    HW263045   2.374   5.535   0.342 -0.5395  2.0738  0.0960
50441SOL     OW63046   8.596   7.372   5.594 -0.4375 -0.0179 -0.3867
50441SOL    HW163047   8.651   7.295   5.607  1.1774  1.1579  0.1550
50441SOL    HW263048   8.613   7.399   5.504 -1.2922 -0.4960 -0.6975
50442SOL     OW63049   6.567  10.459   4.013 -0.5522 -0.0286  0.0037
50442SOL    HW163050   6.595  10.536   3.964  1.1608  0.4375  1.6127
50442SOL    HW263051   6.513  10.494   4.084 -0.1414 -0.3216  0.4706
50443SOL     OW63052   3.895  11.933  11.627  0.1337 -0.4247 -0.0714
50443SOL    HW163053   3.802  11.946  11.606  0.1586  0.7186  0.4632
50443SOL    HW263054   3.894  11.862  11.692 -0.3345 -0.5808 -0.2399
50444SOL     OW63055   2.445  11.521   3.621 -0.0030  0.1134  0.1654
50444SOL    HW163056   2.408  11.551   3.538  0.5260  0.2450 -0.0250
50444SOL    HW263057   2.394  11.443   3.643 -0.1327  0.0671 -0.2920
50445SOL     OW63058   8.039   4.177   0.266  0.3900 -0.0425  0.7347
50445SOL    HW163059   7.960   4.146   0.221  0.4369 -0.8531  1.1831
50445SOL    HW263060   8.022   4.161   0.359  0.0973  2.0618  1.0851
50446SOL     OW63061   6.404   1.557   6.173 -0.0007 -0.0088  0.0500
50446SOL    HW163062   6.487   1.517   6.198 -0.3697  0.2959  1.9383
50446SOL    HW263063   6.339   1.515   6.231 -1.1452 -0.1152 -1.2536
50447SOL     OW63064   5.075   2.829   9.345  0.3921  0.5937  0.1695
50447SOL    HW163065   5.077   2.881   9.265  0.2235 -0.2603 -0.3997
50447SOL    HW263066   5.000   2.771   9.334  1.3831 -0.7320  0.1622
50448SOL     OW63067  11.913   0.968   4.612  0.3477  0.6077  0.6641
50448SOL    HW163068  11.948   1.057   4.619  0.6831  0.4866  0.5188
50448SOL    HW263069  11.820   0.981   4.593  0.3594  0.9278  0.8164
50449SOL     OW63070   7.899   1.625   3.449  0.5316  0.0307 -0.1562
50449SOL    HW163071   7.881   1.651   3.540  1.6880  2.5508 -0.5698
50449SOL    HW263072   7.945   1.541   3.458 -0.4893 -0.4149  1.4807
50450SOL     OW63073   0.641   3.712   8.986 -0.2168 -0.3221 -0.3281
50450SOL    HW163074   0.609   3.622   8.981 -1.6466  0.2063 -1.0400
50450SOL    HW263075   0.564   3.765   9.003 -0.0522  1.1419 -3.3869
50451SOL     OW63076   8.203   0.667   9.619 -0.3292  0.4376 -0.5425
50451SOL    HW163077   8.270   0.624   9.672  0.0144 -0.3265 -1.5787
50451SOL    HW263078   8.238   0.666   9.530 -1.5126  0.4663 -1.0233
50452SOL     OW63079   2.836   2.807  10.349 -0.3021 -0.4177 -0.1498
50452SOL    HW163080   2.891   2.761  10.285 -1.5427 -3.9391  1.0388
50452SOL    HW263081   2.750   2.810  10.308 -0.8155 -1.5820  0.7694
50453SOL     OW63082  11.347  10.384   5.860  0.3088 -0.0777  0.1004
50453SOL    HW163083  11.425  10.426   5.822 -0.7213  2.9693  1.0903
50453SOL    HW263084  11.274  10.426   5.815 -0.8765 -2.8434 -0.7643
50454SOL     OW63085   7.968   7.201  10.907 -0.4559  0.6129 -0.1043
50454SOL    HW163086   7.967   7.256  10.829 -0.8980  0.0683 -0.4922
50454SOL    HW263087   8.058   7.206  10.939 -0.1081  0.3544 -1.0059
50455SOL     OW63088   0.773   0.266  11.418  0.2162 -0.7226  0.2569
50455SOL    HW163089   0.697   0.211  11.403  1.2618 -1.9064 -0.9300
50455SOL    HW263090   0.796   0.251  11.510 -1.3526  0.1854  0.8346
50456SOL     OW63091   1.994   0.854   9.733 -0.5499  0.1764  0.8850
50456SOL    HW163092   2.007   0.942   9.770 -0.4091  0.4113  0.2868
50456SOL    HW263093   1.947   0.869   9.651 -0.0780 -0.2644  0.5259
50457SOL     OW63094   4.993   2.842   7.816 -0.4527  0.0022  0.0441
50457SOL    HW163095   4.919   2.783   7.835 -1.0877  0.1859 -1.6864
50457SOL    HW263096   5.023   2.815   7.729  1.8881 -0.4043  0.9243
50458SOL     OW63097   2.540   2.070   8.316 -0.7610 -0.1974  0.3514
50458SOL    HW163098   2.615   2.054   8.257 -0.1883 -0.2758  1.0892
50458SOL    HW263099   2.500   1.984   8.328  1.6850 -1.0651  3.4718
50459SOL     OW63100   0.661  11.690   2.168 -0.0019  0.2930 -0.1285
50459SOL    HW163101   0.688  11.626   2.102  0.8575  0.7232 -0.2118
50459SOL    HW263102   0.722  11.763   2.156 -0.5291  0.8325  0.4239
50460SOL     OW63103   4.891  10.568   9.428  0.4127  0.4760  1.0233
50460SOL    HW163104   4.932  10.483   9.409 -1.0388  0.0317 -0.3707
50460SOL    HW263105   4.927  10.593   9.513  2.9344 -0.2312  0.2558
50461SOL     OW63106   3.822  10.135   3.752  0.2214  0.0425 -0.4838
50461SOL    HW163107   3.781  10.050   3.738 -0.4306  0.3327 -0.3798
50461SOL    HW263108   3.783  10.168   3.833 -0.5947  1.0484 -1.2550
50462SOL     OW63109   8.946   9.152   9.178 -0.1722 -0.8072 -0.0059
50462SOL    HW163110   8.953   9.091   9.251  0.3659 -0.1376  0.5178
50462SOL    HW263111   8.855   9.183   9.181  0.0527 -0.1978  0.8764
50463SOL     OW63112   9.040  11.066   0.280 -0.0395 -0.5351 -0.1857
50463SOL    HW163113   9.045  11.132   0.349  1.1314  0.9357 -1.6012
50463SOL    HW263114   8.970  11.007   0.308  0.0827  0.2709  2.0007
50464SOL     OW63115  10.544   0.635   6.400  0.1115 -0.0614  0.3473
50464SOL    HW163116  10.556   0.555   6.451 -1.6569 -0.3061  0.4413
50464SOL    HW263117  10.487   0.609   6.328  0.2262  0.9323 -0.1183
50465SOL     OW63118   7.400  10.353   9.796 -0.3167  0.0214  0.1587
50465SOL    HW163119   7.392  10.294   9.871  1.0258 -0.2891  0.0748
50465SOL    HW263120   7.469  10.414   9.820  0.0969 -0.0501 -0.7991
50466SOL     OW63121   0.508   1.581   4.245 -0.8140  0.0240  0.1457
50466SOL    HW163122   0.551   1.531   4.314  1.4659 -0.6923 -1.6726
50466SOL    HW263123   0.543   1.545   4.164 -0.7172  3.1204 -1.3414
50467SOL     OW63124   5.513   6.091   2.822 -0.2373 -0.2341 -0.0025
50467SOL    HW163125   5.455   6.154   2.779 -0.9417 -0.1749  1.0140
50467SOL    HW263126   5.592   6.140   2.842  0.0025 -0.1957 -0.9889
50468SOL     OW63127  11.613   4.345  11.060 -0.1671  0.2711 -0.7482
50468SOL    HW163128  11.575   4.425  11.023 -1.9873 -0.9416 -1.5911
50468SOL    HW263129  11.569   4.273  11.014  2.5676 -1.2670 -1.1997
50469SOL     OW63130  10.845   9.065   8.227 -0.0588 -0.1833 -0.5470
50469SOL    HW163131  10.809   8.978   8.243 -2.1663  0.5871 -0.6787
50469SOL    HW263132  10.922   9.071   8.283 -2.0301 -0.7942  2.4176
50470SOL     OW63133   7.575   0.408   1.469 -0.2636 -0.2184 -0.1255
50470SOL    HW163134   7.647   0.436   1.413 -1.6699 -0.1864 -2.0268
50470SOL    HW263135   7.538   0.331   1.424 -0.7151 -0.9186  1.3908
50471SOL     OW63136   3.304   2.067  11.517  0.6438 -0.2412  0.0922
50471SOL    HW163137   3.216   2.104  11.503 -1.4025 -4.4983  0.0266
50471SOL    HW263138   3.350   2.085  11.435 -0.7327  0.7298 -0.5148
50472SOL     OW63139   5.595   3.956   1.040  0.1315 -0.3582  0.2605
50472SOL    HW163140   5.652   4.029   1.065 -1.9794  1.3928  0.3770
50472SOL    HW263141   5.633   3.880   1.084  1.9650  0.8176  0.8598
50473SOL     OW63142  11.950   1.043   0.768  0.0440  0.3897  0.2615
50473SOL    HW163143  11.890   0.978   0.730 -0.2796  0.0493  1.3174
50473SOL    HW263144  11.939   1.033   0.863  2.2285 -0.1385  0.5283
50474SOL     OW63145   5.921   5.915   2.877  0.8723  0.7698 -0.0097
50474SOL    HW163146   5.893   5.834   2.834  1.0431  1.9808 -2.5159
50474SOL    HW263147   5.968   5.885   2.955  0.1289 -1.5107 -0.3685
50475SOL     OW63148   8.050   4.122   6.820 -0.0195  0.6749 -0.9574
50475SOL    HW163149   8.143   4.145   6.816 -0.3938  2.3316 -0.7835
50475SOL    HW263150   8.024   4.108   6.729 -0.0900  2.4044 -1.2364
50476SOL     OW63151   2.397   1.086   8.708  0.3195  0.2344 -0.5601
50476SOL    HW163152   2.398   0.991   8.712 -0.2057  0.2443 -0.0187
50476SOL    HW263153   2.489   1.111   8.720  0.2163 -0.1539  1.3337
50477SOL     OW63154   8.258   9.208  10.568 -0.0571 -0.0135  0.1611
50477SOL    HW163155   8.321   9.193  10.638  2.2834  0.7436 -1.6821
50477SOL    HW263156   8.306   9.259  10.503 -2.5807  0.5638 -1.3739
50478SOL     OW63157   6.518  11.154   7.371 -0.1794  0.7760 -0.7725
50478SOL    HW163158   6.435  11.202   7.368 -1.5094 -1.4517 -2.7623
50478SOL    HW263159   6.504  11.085   7.436  0.7791  1.3945  0.1316
50479SOL     OW63160   5.072   4.368   7.224 -0.0568  0.4879 -0.3760
50479SOL    HW163161   5.031   4.443   7.268  0.0439  0.6465 -0.5499
50479SOL    HW263162   5.166   4.380   7.239 -0.1253 -0.4999  1.0245
50480SOL     OW63163   6.658   7.349   7.592 -0.4657  0.2814 -0.0814
50480SOL    HW163164   6.697   7.341   7.679 -1.1542 -1.2084  0.1170
50480SOL    HW263165   6.571   7.385   7.607 -1.3479 -1.7659  0.1053
50481SOL     OW63166   1.202  10.778  10.090 -0.4547 -0.7057 -0.5385
50481SOL    HW163167   1.290  10.755  10.058  0.9841  1.8390  1.2221
50481SOL    HW263168   1.153  10.800  10.011  1.3249  0.2911 -1.4409
50482SOL     OW63169   4.801   7.285   4.292  0.0152  0.0990  0.4197
50482SOL    HW163170   4.783   7.379   4.288  1.4485  0.4007  0.4565
50482SOL    HW263171   4.760   7.257   4.374 -0.2475  0.7352  0.5153
50483SOL     OW63172   8.629   4.404   8.223  0.4631  0.4109  0.2087
50483SOL    HW163173   8.537   4.387   8.205  0.7494  1.0892 -2.4307
50483SOL    HW263174   8.654   4.339   8.289 -2.3177  1.4865  2.4729
50484SOL     OW63175   7.291   9.208   2.765 -0.9147  0.6919  0.0455
50484SOL    HW163176   7.277   9.302   2.760  0.5065  0.8807 -0.7504
50484SOL    HW263177   7.376   9.198   2.808 -1.3034 -0.2515  0.6323
50485SOL     OW63178   0.033   5.767  11.415  0.2188 -0.1741 -0.4717
50485SOL    HW163179   0.069   5.749  11.329  0.4498 -0.6412 -0.2802
50485SOL    HW263180  -0.054   5.804  11.398  0.8307  1.0886 -0.9310
50486SOL     OW63181   7.872   3.982   9.891  0.3253  0.0737 -0.4385
50486SOL    HW163182   7.872   4.076   9.913  1.7716  0.4957 -1.9820
50486SOL    HW263183   7.950   3.947   9.935 -0.2079 -0.4155  0.1280
50487SOL     OW63184   1.703   6.580   7.958  0.3742 -0.1337 -0.4194
50487SOL    HW163185   1.794   6.603   7.979  0.1986  0.6005 -0.4153
50487SOL    HW263186   1.707   6.489   7.929  1.1900  0.0505 -0.9140
50488SOL     OW63187   1.639   1.150   2.085  0.3393  0.2779 -0.0570
50488SOL    HW163188   1.721   1.120   2.046 -0.2289  0.5603 -1.5539
50488SOL    HW263189   1.615   1.081   2.146  1.8064  0.3075  0.5899
50489SOL     OW63190   4.395   7.611  10.967 -0.0229  0.3989 -0.4308
50489SOL    HW163191   4.399   7.522  11.003 -0.4993  1.2758  1.9997
50489SOL    HW263192   4.487   7.638  10.960  0.1211 -0.2672 -1.1401
50490SOL     OW63193   4.985   1.255   4.680  0.4329 -0.1309  0.2961
50490SOL    HW163194   4.900   1.289   4.710 -0.8223 -2.3951 -0.4089
50490SOL    HW263195   5.025   1.219   4.759  0.1861 -0.1009  0.4382
50491SOL     OW63196  10.295   5.482   3.371 -0.3655 -0.4764  0.2048
50491SOL    HW163197  10.213   5.489   3.322  0.8567 -1.9500 -2.2212
50491SOL    HW263198  10.358   5.532   3.320  0.7454 -1.1718  0.8605
50492SOL     OW63199  10.338   9.926   8.582 -0.4150 -0.5260  0.4060
50492SOL    HW163200  10.390   9.982   8.525 -2.5129 -0.7803 -1.9640
50492SOL    HW263201  10.374   9.940   8.669 -1.0212  4.8376  0.1330
50493SOL     OW63202   5.079   8.997   0.453 -0.2030 -0.5658  0.2202
50493SOL    HW163203   5.010   8.941   0.488 -0.0256 -0.7609  0.2619
50493SOL    HW263204   5.084   9.071   0.514 -0.8512 -0.1990 -0.1695
50494SOL     OW63205   1.754   8.630   4.330 -0.4258 -0.2517 -0.1147
50494SOL    HW163206   1.807   8.561   4.370  0.8166  0.3567 -0.6657
50494SOL    HW263207   1.809   8.666   4.261 -1.1616  1.0908 -0.0421
50495SOL     OW63208   6.861  10.385   0.626 -0.1194 -0.1936 -0.0233
50495SOL    HW163209   6.918  10.460   0.644  0.8318 -0.6955 -0.8488
50495SOL    HW263210   6.795  10.419   0.565  0.9780 -0.2810 -1.2937
50496SOL     OW63211   1.432  10.774   4.676 -0.3078 -0.1606 -0.4467
50496SOL    HW163212   1.383  10.694   4.693  0.8815 -0.7537  0.3367
50496SOL    HW263213   1.397  10.838   4.739 -0.8689 -0.2287 -0.6896
50497SOL     OW63214   4.565   1.283   8.455  0.4940  0.0257 -0.2907
50497SOL    HW163215   4.625   1.231   8.401  0.7576 -1.1849  1.0743
50497SOL    HW263216   4.582   1.373   8.431 -0.0611 -0.4760 -2.8607
50498SOL     OW63217   4.983  10.878   8.778  0.1844  0.5086 -0.4532
50498SOL    HW163218   4.928  10.916   8.710  0.2006  0.0575 -0.7212
50498SOL    HW263219   5.066  10.858   8.734  0.0797 -0.0917 -0.3870
50499SOL     OW63220   8.388   6.254   1.284  0.3835  1.1262 -0.1027
50499SOL    HW163221   8.471   6.221   1.318 -0.0896  0.0668  0.0696
50499SOL    HW263222   8.356   6.314   1.351  0.7179  1.0659  0.1101
50500SOL     OW63223  11.300   4.669   3.040 -0.4854 -0.1252  0.0527
50500SOL    HW163224  11.278   4.754   3.002 -0.4067 -0.5779 -1.0256
50500SOL    HW263225  11.395   4.661   3.030 -0.7020 -1.1385 -1.6147
50501SOL     OW63226   6.877   1.899   5.116  0.4696  0.8415  0.2354
50501SOL    HW163227   6.829   1.965   5.165  3.4875  3.1509  0.4196
50501SOL    HW263228   6.893   1.940   5.030 -0.0865 -0.9128 -0.7593
50502SOL     OW63229   0.404   4.494   9.650  0.6590  0.2561  0.1782
50502SOL    HW163230   0.340   4.448   9.705 -0.3135 -1.0874 -1.9291
50502SOL    HW263231   0.458   4.544   9.711  0.0896 -1.6816  2.3883
50503SOL     OW63232   1.124   8.110   7.048  0.0964  0.2067  0.0764
50503SOL    HW163233   1.068   8.041   7.082  1.0341 -1.3587 -1.3888
50503SOL    HW263234   1.066   8.186   7.038 -1.5123 -1.0364 -0.3962
50504SOL     OW63235   1.372   5.794   5.256 -0.4891 -0.3423 -0.2660
50504SOL    HW163236   1.406   5.725   5.312  1.1970  0.2020 -0.5545
50504SOL    HW263237   1.437   5.802   5.186 -2.9705 -1.6512 -2.9029
50505SOL     OW63238  10.630   2.541  10.507  0.3126  0.0713  0.1164
50505SOL    HW163239  10.705   2.586  10.468 -0.0062 -1.1611 -2.0787
50505SOL    HW263240  10.608   2.471  10.444 -1.2211 -1.0759  1.8200
50506SOL     OW63241   8.036   2.280   9.344  0.1235  0.6769  0.2630
50506SOL    HW163242   8.091   2.350   9.310 -0.3187  0.5591 -0.7209
50506SOL    HW263243   7.946   2.309   9.328 -0.1008  0.5719  1.2493
50507SOL     OW63244   1.744   4.657   6.049 -0.3983 -0.0736 -0.0922
50507SOL    HW163245   1.687   4.583   6.069 -0.6788  0.2254  0.2288
50507SOL    HW263246   1.807   4.622   5.985 -0.3154 -0.6782  0.3099
50508SOL     OW63247   3.478   3.774   6.035  0.1188 -0.7553 -0.1594
50508SOL    HW163248   3.485   3.696   5.981 -0.4218 -0.0998 -1.2221
50508SOL    HW263249   3.558   3.824   6.016 -0.2928 -0.2977 -0.7671
50509SOL     OW63250   8.252   7.951   8.927  0.2766  0.3283 -0.1347
50509SOL    HW163251   8.296   7.917   9.005 -0.5420 -1.2112 -0.2953
50509SOL    HW263252   8.258   7.879   8.864 -0.3744  0.9929 -0.9731
50510SOL     OW63253   9.841   5.621   2.077  0.0614 -0.5893 -0.5139
50510SOL    HW163254   9.767   5.598   2.020 -0.9320 -0.1320  0.5627
50510SOL    HW263255   9.884   5.537   2.095 -0.9044 -1.0202 -0.1884
50511SOL     OW63256   7.872   6.209   8.859  0.1267 -0.2189  0.3183
50511SOL    HW163257   7.838   6.189   8.773 -0.5180  0.1922  0.4666
50511SOL    HW263258   7.795   6.227   8.912  0.5215 -0.3027  0.9364
50512SOL     OW63259   1.708  11.308  10.311 -0.3234  0.0620 -0.7192
50512SOL    HW163260   1.702  11.213  10.316 -1.8251  0.1854  0.3261
50512SOL    HW263261   1.757  11.334  10.389 -1.0405  0.2356 -0.3273
50513SOL     OW63262  10.679   9.669   6.066  0.0787 -0.2554 -0.7821
50513SOL    HW163263  10.593   9.708   6.082 -0.3620 -1.2140 -0.7023
50513SOL    HW263264  10.742   9.736   6.093 -0.6426 -0.2390  1.0033
50514SOL     OW63265   4.543   6.468   6.647 -0.3166 -0.2173 -0.6343
50514SOL    HW163266   4.553   6.537   6.712  1.3957 -1.3409  0.3735
50514SOL    HW263267   4.470   6.497   6.592 -1.7608  0.8423  1.6712
50515SOL     OW63268   3.359   3.227  11.938 -0.2079 -0.1255  0.4498
50515SOL    HW163269   3.304   3.150  11.925 -0.1916 -0.1827  0.7244
50515SOL    HW263270   3.417   3.204  12.011  1.3892 -0.7435 -0.9295
50516SOL     OW63271   2.639   9.735   8.723  0.5020 -0.2974 -0.0810
50516SOL    HW163272   2.706   9.701   8.783  0.3154 -1.9049 -0.7383
50516SOL    HW263273   2.600   9.808   8.771  2.0130  0.0254  0.7407
50517SOL     OW63274   2.805   0.335   5.620 -0.4003 -0.2599  0.0500
50517SOL    HW163275   2.742   0.349   5.549 -0.9497 -1.2708  0.3158
50517SOL    HW263276   2.890   0.335   5.577 -0.6416  0.2810 -0.4420
50518SOL     OW63277   4.349   4.717   1.147  0.2040 -0.1184 -0.3782
50518SOL    HW163278   4.293   4.730   1.071  0.2198 -1.6716 -0.6819
50518SOL    HW263279   4.289   4.713   1.221  0.0034 -0.6570 -0.5669
50519SOL     OW63280   7.975   1.490   7.959 -0.4853  0.3017  0.1589
50519SOL    HW163281   7.912   1.482   7.888 -1.4578  0.2587  1.0093
50519SOL    HW263282   7.925   1.470   8.038  0.8533 -0.8652  0.7535
50520SOL     OW63283   0.073   5.386  10.941  0.3929 -0.4331 -0.1680
50520SOL    HW163284   0.151   5.379  10.995  0.2743 -1.1641 -0.0807
50520SOL    HW263285   0.094   5.454  10.876  0.9114 -0.2805  0.1583
50521SOL     OW63286   6.699   6.112  11.006 -0.1320 -0.2526 -0.2316
50521SOL    HW163287   6.727   6.149  11.090 -0.2687  0.4233 -0.4756
50521SOL    HW263288   6.781   6.098  10.958  0.2238 -3.4092  1.0845
50522SOL     OW63289   2.192   3.538   5.855  0.1284 -0.1201 -0.2010
50522SOL    HW163290   2.194   3.443   5.864 -0.1042 -0.0593  0.6165
50522SOL    HW263291   2.113   3.556   5.804  0.2506 -0.3738 -0.4772
50523SOL     OW63292   4.825   4.655   8.121  0.0709 -0.3288  0.3465
50523SOL    HW163293   4.731   4.647   8.138  0.0083 -1.3023 -0.3653
50523SOL    HW263294   4.845   4.579   8.066  1.0538  0.5123 -0.4781
50524SOL     OW63295   3.933   8.164   0.543 -0.5994  0.5240  0.7357
50524SOL    HW163296   3.912   8.128   0.457 -1.8281  3.5116 -0.3300
50524SOL    HW263297   3.853   8.153   0.594 -0.2881 -0.0763  1.1137
50525SOL     OW63298   1.521   6.903  10.791  0.0179 -0.0947  0.0419
50525SOL    HW163299   1.461   6.976  10.808  1.3764  1.3308 -0.8743
50525SOL    HW263300   1.606   6.946  10.779  0.6212 -1.6903 -1.8935
50526SOL     OW63301   1.677   4.250   2.641 -0.1260  0.3055  0.0717
50526SOL    HW163302   1.755   4.195   2.632  0.2670  1.0021 -0.9976
50526SOL    HW263303   1.653   4.242   2.734  1.4849  0.4294  0.5357
50527SOL     OW63304   3.444   4.781   6.821 -0.2619 -0.3593  0.4613
50527SOL    HW163305   3.358   4.788   6.862  0.4970  1.9846  1.8523
50527SOL    HW263306   3.496   4.729   6.882  0.1075  0.8068  1.1724
50528SOL     OW63307   9.216   3.233   0.862  0.1875 -0.3200 -0.0336
50528SOL    HW163308   9.123   3.239   0.840 -0.0583 -0.4356  0.9162
50528SOL    HW263309   9.257   3.303   0.811 -0.2527 -0.9009 -1.2370
50529SOL     OW63310   1.805   6.552   9.884 -0.6018 -0.1819 -0.8871
50529SOL    HW163311   1.710   6.548   9.885 -0.7370  1.8077 -1.6701
50529SOL    HW263312   1.828   6.600   9.964 -0.4252  1.2380 -1.7622
50530SOL     OW63313   1.554   7.560   6.310 -0.6475 -0.5014 -0.3417
50530SOL    HW163314   1.488   7.582   6.376 -0.0201 -1.9354  0.8372
50530SOL    HW263315   1.637   7.561   6.357  0.1007  0.4880 -1.6162
50531SOL     OW63316   5.584   4.892   1.837  0.2820  0.2488 -0.1771
50531SOL    HW163317   5.656   4.835   1.809  0.3558  1.4418 -2.7249
50531SOL    HW263318   5.617   4.981   1.825 -0.8350  0.8320  0.8335
50532SOL     OW63319   8.075   3.616   3.054  0.4103  0.1884 -0.4990
50532SOL    HW163320   7.991   3.571   3.060  0.7478 -0.7336 -2.1289
50532SOL    HW263321   8.140   3.547   3.068  0.9070  0.5493 -0.9731
50533SOL     OW63322   1.382  10.895  11.748  0.1700  0.0542  0.1214
50533SOL    HW163323   1.340  10.848  11.676  0.1027  1.8363 -1.0723
50533SOL    HW263324   1.470  10.857  11.753  0.3982  0.3331 -1.3508
50534SOL     OW63325   7.996   1.940   4.163  0.4053  0.0017 -0.0633
50534SOL    HW163326   8.052   2.000   4.114  1.3928 -1.1156 -0.3342
50534SOL    HW263327   7.948   1.891   4.096 -0.6799  0.7206  0.1630
50535SOL     OW63328   4.594   4.762   5.775  0.2051 -0.5863 -0.0990
50535SOL    HW163329   4.645   4.738   5.853  2.1138 -0.9923 -1.4268
50535SOL    HW263330   4.641   4.836   5.737 -1.1937  0.1677 -0.4331
50536SOL     OW63331  11.003  10.781   6.857 -0.0158 -0.1331 -0.1121
50536SOL    HW163332  11.082  10.783   6.911 -1.0464  1.2191  1.4530
50536SOL    HW263333  11.031  10.741   6.775  2.0797 -0.4839  0.7076
50537SOL     OW63334  10.532   3.340  10.419 -0.3309 -0.1604  0.8877
50537SOL    HW163335  10.540   3.380  10.506  2.3086  1.0265  0.1901
50537SOL    HW263336  10.507   3.412  10.361  0.7740 -0.2796  0.2255
50538SOL     OW63337   9.360   9.917   6.214 -0.9159  0.3250 -0.1136
50538SOL    HW163338   9.286   9.874   6.258  0.1802 -0.6409  0.8602
50538SOL    HW263339   9.337   9.912   6.121 -2.5112  0.9208  0.2065
50539SOL     OW63340   5.217   4.180   6.861  0.4691 -0.2914 -0.1413
50539SOL    HW163341   5.132   4.196   6.904  0.5743  0.3162 -0.1515
50539SOL    HW263342   5.213   4.232   6.781  1.1980  0.4549  0.2930
50540SOL     OW63343   2.629   0.875   8.672 -0.5161  0.5131 -0.4292
50540SOL    HW163344   2.634   0.812   8.600  1.3805  0.9636 -0.7523
50540SOL    HW263345   2.622   0.821   8.751 -1.9416  0.0048 -0.8684
50541SOL     OW63346   0.908   1.188   0.172 -0.5251 -0.0494  0.2641
50541SOL    HW163347   0.994   1.177   0.213 -0.7446  2.1111  1.4860
50541SOL    HW263348   0.928   1.195   0.079  0.4922 -0.6847  0.4081
50542SOL     OW63349   0.509   3.553  10.911 -0.4953  0.0749 -0.3680
50542SOL    HW163350   0.437   3.513  10.861 -0.5553 -0.4642  0.1312
50542SOL    HW263351   0.586   3.503  10.886 -0.3735  0.3658 -0.5702
50543SOL     OW63352   2.418   5.888   7.169 -0.0397 -0.4233 -0.3159
50543SOL    HW163353   2.489   5.836   7.208  0.3371 -1.2764 -2.0294
50543SOL    HW263354   2.368   5.824   7.118 -1.6732  0.2928  0.3404
50544SOL     OW63355   0.318   5.669   7.445  0.0318 -0.5582 -0.2564
50544SOL    HW163356   0.341   5.758   7.421 -0.3160 -0.6163 -0.8179
50544SOL    HW263357   0.334   5.617   7.366 -2.4112 -0.5223 -0.8566
50545SOL     OW63358   6.067   4.525  10.082 -0.6574  0.2523 -0.2385
50545SOL    HW163359   6.055   4.620  10.087  0.1212  0.3254  0.5188
50545SOL    HW263360   5.989   4.493  10.036 -1.7608  1.0900  0.9812
50546SOL     OW63361   9.094   0.795   3.067  0.1636  0.4155  0.6429
50546SOL    HW163362   9.177   0.829   3.102 -0.4660  1.3565  1.2669
50546SOL    HW263363   9.111   0.702   3.053  2.3280  1.0854 -2.2101
50547SOL     OW63364   1.137  10.598   7.390  0.6954 -0.1106 -0.3159
50547SOL    HW163365   1.048  10.567   7.404  1.4717 -2.1553  0.3463
50547SOL    HW263366   1.127  10.668   7.325 -1.5487  0.8433  0.9264
50548SOL     OW63367   4.592   6.804   7.949 -0.3605  0.4205 -0.2666
50548SOL    HW163368   4.529   6.733   7.936  0.9092 -0.6982 -0.5334
50548SOL    HW263369   4.608   6.838   7.861  0.4677 -0.2568 -0.3872
50549SOL     OW63370   4.712  10.915   5.084  0.7658  0.2744  0.7425
50549SOL    HW163371   4.689  10.822   5.085  0.9191  0.1584 -1.3949
50549SOL    HW263372   4.628  10.961   5.085  0.5061 -0.0207 -1.6631
50550SOL     OW63373   0.695  10.261   5.928  0.4893 -0.6529  0.2057
50550SOL    HW163374   0.650  10.339   5.962 -1.1971 -0.8500 -1.4220
50550SOL    HW263375   0.759  10.296   5.866 -1.1929 -0.5176 -1.5673
50551SOL     OW63376   8.063   1.531  11.890 -0.4116  0.3174 -0.0673
50551SOL    HW163377   8.121   1.566  11.959 -1.5098 -1.3861  1.8314
50551SOL    HW263378   8.118   1.530  11.812  2.3284 -1.5163  1.6857
50552SOL     OW63379   4.704   0.006   5.935  0.2315 -0.3497  0.9429
50552SOL    HW163380   4.714   0.065   5.860  0.3744 -0.8856  0.5344
50552SOL    HW263381   4.611  -0.016   5.937 -0.1242  1.0849  2.0276
50553SOL     OW63382   9.158   5.918   9.730  1.2901 -0.3845  0.0253
50553SOL    HW163383   9.094   5.990   9.727  1.3157 -0.3639 -0.0174
50553SOL    HW263384   9.192   5.913   9.641  2.0546  0.2492  0.2600
50554SOL     OW63385   9.650   2.992   8.535  0.5430 -0.1212 -0.3132
50554SOL    HW163386   9.606   2.908   8.527  0.3699 -0.1665  0.9006
50554SOL    HW263387   9.720   2.977   8.598 -0.8222  1.1320  1.6006
50555SOL     OW63388   2.951   8.605  11.035 -0.2008  0.4941  0.5316
50555SOL    HW163389   2.987   8.568  11.116  0.8426  2.5119  1.0587
50555SOL    HW263390   2.858   8.618  11.054  0.0010  0.7872  1.3593
50556SOL     OW63391   1.607   1.064   1.435  0.4784  0.2548 -0.6063
50556SOL    HW163392   1.667   1.127   1.396  1.7420 -0.5582 -0.0420
50556SOL    HW263393   1.555   1.032   1.362 -0.6115  2.3361 -0.8369
50557SOL     OW63394   8.429   0.357   0.659  0.1518 -0.3202 -0.1230
50557SOL    HW163395   8.334   0.362   0.662  0.2091  0.8206  0.3248
50557SOL    HW263396   8.450   0.335   0.568 -0.4940  1.1025 -0.6488
50558SOL     OW63397   7.184   4.239  10.350 -0.2570  0.1739 -0.1415
50558SOL    HW163398   7.270   4.279  10.342  0.3491 -0.3666  2.7272
50558SOL    HW263399   7.174   4.220  10.443 -2.3734 -2.2571 -0.7327
50559SOL     OW63400   1.552   7.598   8.161 -0.0086 -0.0748  0.4421
50559SOL    HW163401   1.535   7.585   8.067 -0.2438  1.0427  0.3120
50559SOL    HW263402   1.466   7.591   8.201  0.0183 -0.0239  0.5075
50560SOL     OW63403  10.388   1.290   2.117 -0.1121 -0.2740  0.1591
50560SOL    HW163404  10.399   1.255   2.028  0.2335  0.2593 -0.0164
50560SOL    HW263405  10.308   1.343   2.111  0.1998  0.1821  0.0297
50561SOL     OW63406   0.119   5.325   2.240  0.5115 -0.2287  0.1790
50561SOL    HW163407   0.060   5.390   2.202  0.1604 -0.7327 -0.1391
50561SOL    HW263408   0.070   5.243   2.238  0.7711 -0.4151  1.0196
50562SOL     OW63409   3.652   9.387   7.182  0.2206 -0.1599 -0.3099
50562SOL    HW163410   3.664   9.316   7.246 -0.8603  0.2956  0.4253
50562SOL    HW263411   3.621   9.461   7.233  1.5745  0.9662 -1.0278
50563SOL     OW63412   1.538   5.085   2.588  0.2204  0.3633  0.3553
50563SOL    HW163413   1.623   5.070   2.545  1.8103  1.0936  3.0231
50563SOL    HW263414   1.558   5.145   2.659 -2.2138 -0.8626  2.2023
50564SOL     OW63415  11.948  11.796  11.184  0.5204  0.3221 -0.1750
50564SOL    HW163416  12.026  11.761  11.227  0.1478 -0.2466  0.0444
50564SOL    HW263417  11.946  11.888  11.211  0.1820 -0.0629  1.2085
50565SOL     OW63418   3.314   0.958   3.710  0.1797  0.3361 -0.1319
50565SOL    HW163419   3.275   0.900   3.644  1.6005 -0.7669 -0.0482
50565SOL    HW263420   3.301   0.912   3.793 -1.7026  1.7713  0.4539
50566SOL     OW63421   2.871   9.953   5.215  0.3312 -0.5405 -0.3938
50566SOL    HW163422   2.941   9.926   5.274 -0.7996  1.5493  2.1064
50566SOL    HW263423   2.890  10.045   5.196 -1.7581  0.1654  0.5671
50567SOL     OW63424   4.778   8.910   9.434  0.2320  0.2625  0.2086
50567SOL    HW163425   4.872   8.895   9.439  0.0236 -0.9167  0.8042
50567SOL    HW263426   4.747   8.905   9.524 -0.4130  0.5892  0.0131
50568SOL     OW63427   3.879   2.656   5.935 -0.0523 -0.1194  0.2975
50568SOL    HW163428   3.896   2.603   5.857 -2.1019  0.2766 -0.4552
50568SOL    HW263429   3.893   2.595   6.008  0.8815 -0.7728 -0.3995
50569SOL     OW63430   8.672   8.141   8.851  0.2586 -0.3200 -0.3653
50569SOL    HW163431   8.601   8.089   8.813 -1.4662  1.5719  0.0876
50569SOL    HW263432   8.693   8.096   8.933 -1.2302 -0.3026  0.0522
50570SOL     OW63433   2.439   1.131  10.991  0.9132  0.5682  0.3718
50570SOL    HW163434   2.445   1.048  11.039 -0.8441  0.5232  0.5745
50570SOL    HW263435   2.504   1.123  10.921  0.3668 -1.2376  0.0136
50571SOL     OW63436   8.547   2.790   0.127 -0.2638  0.3539 -0.4272
50571SOL    HW163437   8.544   2.821   0.218  0.4741  0.1730 -0.3320
50571SOL    HW263438   8.458   2.761   0.108 -0.9593  2.3822 -0.4756
50572SOL     OW63439  10.201   4.268   2.078  0.2538 -0.4351 -0.3347
50572SOL    HW163440  10.194   4.304   1.989  0.2156 -1.5397 -0.7969
50572SOL    HW263441  10.148   4.326   2.132  2.0597  1.6027 -0.5928
50573SOL     OW63442   4.275  11.835  11.016 -0.3222 -0.8782  0.2530
50573SOL    HW163443   4.265  11.921  11.058  0.8315 -0.6925  0.1660
50573SOL    HW263444   4.192  11.790  11.035 -0.8633  0.1700  0.4744
50574SOL     OW63445  10.225   0.246   7.643  0.4060  0.8627  0.0618
50574SOL    HW163446  10.130   0.244   7.659  0.4975  0.3880  0.5700
50574SOL    HW263447  10.246   0.339   7.637 -0.3598  0.9579 -1.7241
50575SOL     OW63448   6.078  11.622   9.232 -0.4739  0.2357 -0.1584
50575SOL    HW163449   6.096  11.531   9.206 -0.2526  0.5350 -1.0978
50575SOL    HW263450   6.030  11.658   9.157  0.7888  1.3389 -0.4585
50576SOL     OW63451  10.973   9.781   7.881  0.1558 -0.0703  0.0443
50576SOL    HW163452  10.961   9.839   7.956  1.7458  1.4353 -0.7774
50576SOL    HW263453  11.033   9.714   7.911 -1.7639 -1.4396  1.0313
50577SOL     OW63454   1.056   4.553   6.017  0.2393 -0.3887 -0.1821
50577SOL    HW163455   1.082   4.530   6.106 -0.4477 -1.0460 -0.1497
50577SOL    HW263456   1.037   4.647   6.021  2.7499  0.2006 -0.2458
50578SOL     OW63457   4.462   0.088   6.474 -0.4925 -0.2772  0.5950
50578SOL    HW163458   4.401   0.120   6.540 -0.2708  1.2894  0.0749
50578SOL    HW263459   4.410   0.079   6.395 -0.8246 -2.4349  0.9967
50579SOL     OW63460   8.418   0.210  11.034  0.5608 -0.9537 -0.4873
50579SOL    HW163461   8.475   0.207  11.110  0.4238 -1.3052 -0.3965
50579SOL    HW263462   8.465   0.263  10.970  1.3907 -1.9848 -0.7475
50580SOL     OW63463  10.142   8.775   4.446  0.2489  0.6055 -0.1800
50580SOL    HW163464  10.223   8.790   4.496 -1.3268 -0.0339  2.8544
50580SOL    HW263465  10.130   8.680   4.448 -1.6283  0.7955  1.4546
50581SOL     OW63466   3.912   3.592   2.821  0.1192 -0.3447  0.5477
50581SOL    HW163467   3.948   3.516   2.866  1.7602  1.9475  3.5417
50581SOL    HW263468   3.950   3.588   2.733  1.5071 -2.0993  1.1469
50582SOL     OW63469   7.448   7.541   9.657  0.0205  0.0960 -0.5800
50582SOL    HW163470   7.496   7.602   9.712 -0.4877  0.4231 -0.4985
50582SOL    HW263471   7.506   7.526   9.582  1.3827 -1.5207  0.7307
50583SOL     OW63472   4.070   6.537   5.764 -0.0579 -0.3662  0.4650
50583SOL    HW163473   4.076   6.631   5.747  0.8558 -0.4320  0.3450
50583SOL    HW263474   3.993   6.527   5.820  0.0263  0.4900  0.7419
50584SOL     OW63475  11.797   5.239   8.957 -0.4488 -0.1514  0.3562
50584SOL    HW163476  11.716   5.284   8.981 -0.4007  0.0387  0.1594
50584SOL    HW263477  11.861   5.309   8.943  0.0040 -0.3297  1.4343
50585SOL     OW63478  11.537  11.751   7.288  0.0446 -0.0858  1.0347
50585SOL    HW163479  11.522  11.668   7.243 -0.7042 -1.0493  2.9237
50585SOL    HW263480  11.452  11.795   7.285  0.7220  1.2164 -0.9779
50586SOL     OW63481   7.803   9.445   3.660 -0.0096 -0.1789 -0.5635
50586SOL    HW163482   7.888   9.482   3.684 -0.2860 -0.5238  1.0185
50586SOL    HW263483   7.740   9.513   3.685 -0.4208 -1.1536  1.1453
50587SOL     OW63484   8.497   1.120  10.817  0.0232 -0.2436  0.4876
50587SOL    HW163485   8.576   1.066  10.810  0.3713  0.3664 -0.4726
50587SOL    HW263486   8.455   1.112  10.731 -1.6015 -1.4888  1.3225
50588SOL     OW63487   7.516   7.616   6.006  0.6326 -0.1337 -0.0607
50588SOL    HW163488   7.507   7.696   5.954 -0.8171 -0.3056 -0.1077
50588SOL    HW263489   7.551   7.646   6.090 -1.0082  0.7393  0.3499
50589SOL     OW63490   1.568  11.332   1.955 -0.5202 -0.0046  0.3129
50589SOL    HW163491   1.649  11.302   1.914 -0.4750  1.4313 -0.7030
50589SOL    HW263492   1.534  11.254   1.999  0.4624 -1.0931 -0.7730
50590SOL     OW63493   7.033   1.697  11.345 -0.2790 -0.0898 -0.0911
50590SOL    HW163494   6.940   1.715  11.357 -0.9219 -2.4873 -0.8179
50590SOL    HW263495   7.045   1.694  11.250 -0.0875 -2.3317 -0.0493
50591SOL     OW63496   1.773   4.624   3.870 -0.0240  0.2801  0.2896
50591SOL    HW163497   1.686   4.643   3.836 -0.1768 -1.5976 -0.4870
50591SOL    HW263498   1.765   4.633   3.964 -2.0127 -2.9644  0.5794
50592SOL     OW63499   0.179   2.568  11.904  0.3672  0.5250 -0.8029
50592SOL    HW163500   0.127   2.512  11.844 -0.8789 -0.6655  1.2587
50592SOL    HW263501   0.264   2.524  11.909  0.6430  0.8832 -2.0076
50593SOL     OW63502   3.856   2.569   0.275  0.0141  0.0907 -0.3439
50593SOL    HW163503   3.767   2.534   0.283  0.0870 -0.2918 -1.0990
50593SOL    HW263504   3.858   2.613   0.190 -0.3030  2.6874  0.8969
50594SOL     OW63505   8.734  11.706   7.366 -0.5191 -0.6087 -0.2563
50594SOL    HW163506   8.686  11.788   7.356  0.1059  0.0222  1.5506
50594SOL    HW263507   8.810  11.715   7.308 -0.1381  0.3828  0.3590
50595SOL     OW63508   8.503   7.680   4.383 -0.0398 -0.4318  0.3829
50595SOL    HW163509   8.465   7.694   4.470 -0.2846  0.1845  0.1796
50595SOL    HW263510   8.592   7.648   4.400 -0.6966 -2.1193  0.8726
50596SOL     OW63511   0.603   2.185   4.783  0.3241  0.2468  0.2592
50596SOL    HW163512   0.661   2.143   4.719  0.8331 -1.0997  1.5286
50596SOL    HW263513   0.661   2.210   4.855 -0.2255  1.8061  0.1880
50597SOL     OW63514   9.472   0.662   9.289  0.6058 -0.3863 -0.0679
50597SOL    HW163515   9.465   0.689   9.197  1.3367 -2.7546 -0.8891
50597SOL    HW263516   9.563   0.634   9.299  0.0508 -1.9640  0.8280
50598SOL     OW63517  11.211   7.476   6.173  0.3050 -0.2285 -0.0222
50598SOL    HW163518  11.294   7.501   6.132  0.9658 -0.2251  1.2425
50598SOL    HW263519  11.228   7.484   6.267 -1.1759 -0.1229  0.2631
50599SOL     OW63520   9.331   0.313   5.914 -0.1686  0.2643 -0.5682
50599SOL    HW163521   9.425   0.332   5.919 -0.6805  2.9891  0.1418
50599SOL    HW263522   9.310   0.318   5.821  0.1984  0.7006 -0.6282
50600SOL     OW63523   9.961  10.850   9.531 -0.4191 -0.4105 -0.5310
50600SOL    HW163524  10.036  10.824   9.477 -2.5918  0.8130 -4.5934
50600SOL    HW263525   9.971  10.945   9.540 -0.1407 -0.5831  1.3436
50601SOL     OW63526   3.027   6.776   3.841 -0.0912 -0.1267  0.0410
50601SOL    HW163527   3.039   6.870   3.830 -1.5452  0.0322 -0.3633
50601SOL    HW263528   2.970   6.767   3.917 -0.3870 -0.6558 -0.2326
50602SOL     OW63529   5.835   1.900   6.986 -0.8057 -0.1363 -0.0944
50602SOL    HW163530   5.793   1.978   7.021 -1.0495  0.8993 -2.4684
50602SOL    HW263531   5.921   1.897   7.029 -1.0952  0.9856  0.6044
50603SOL     OW63532   3.637   9.127   0.299  0.6947  0.1962 -0.7858
50603SOL    HW163533   3.645   9.204   0.242  0.6168  1.8294  1.2704
50603SOL    HW263534   3.727   9.101   0.317  0.8332  1.4307  0.4963
50604SOL     OW63535   2.326   1.001   1.302 -0.2841 -0.3522  0.2113
50604SOL    HW163536   2.235   1.026   1.317 -0.9082 -2.4438  0.2636
50604SOL    HW263537   2.354   1.053   1.227 -2.0807 -0.8993 -0.8800
50605SOL     OW63538   4.451  11.631   4.286 -0.0548  0.0072 -0.2511
50605SOL    HW163539   4.431  11.542   4.257  0.3453 -0.7747  1.7047
50605SOL    HW263540   4.407  11.688   4.223 -3.4778 -1.5834  0.5170
50606SOL     OW63541   5.362   8.738   7.822 -0.1472  0.2711  0.3033
50606SOL    HW163542   5.428   8.779   7.878 -1.0878  2.1954  0.1068
50606SOL    HW263543   5.353   8.799   7.749 -2.9204  0.6956  0.8964
50607SOL     OW63544  10.929  11.465   4.346 -0.2305 -0.1561  0.0334
50607SOL    HW163545  10.895  11.385   4.305  2.6177 -0.7589 -1.4200
50607SOL    HW263546  10.942  11.441   4.438 -0.8299 -0.8659 -0.0567
50608SOL     OW63547   0.968   6.017  11.181 -0.0011 -0.3059 -0.4370
50608SOL    HW163548   1.038   6.028  11.245 -0.6032 -1.5353  0.4621
50608SOL    HW263549   0.888   6.043  11.227 -0.3243 -0.2664 -1.0044
50609SOL     OW63550  10.733   9.828   8.003 -0.5243 -0.2012  0.1120
50609SOL    HW163551  10.751   9.746   7.956  0.7787  0.0920  0.0571
50609SOL    HW263552  10.763   9.811   8.092  0.4719  0.4450 -0.0832
50610SOL     OW63553   2.202  10.993   8.954 -0.0412 -0.1206  0.4940
50610SOL    HW163554   2.283  11.041   8.973 -0.2465 -0.0802  1.2860
50610SOL    HW263555   2.212  10.909   8.999  0.0230 -0.5596 -0.3194
50611SOL     OW63556  10.699   8.680   7.725 -0.0402 -0.2749  0.2342
50611SOL    HW163557  10.786   8.716   7.739 -0.4380  0.6674  0.3313
50611SOL    HW263558  10.654   8.746   7.671 -0.3254 -1.2741 -0.7981
50612SOL     OW63559   0.618   3.894   2.972  0.0528  0.2795 -0.0635
50612SOL    HW163560   0.552   3.940   2.920 -1.0337  0.3631  1.3460
50612SOL    HW263561   0.597   3.801   2.960  1.7337  0.0629 -2.2246
50613SOL     OW63562   5.921   3.985  11.382 -0.0003  0.2218  0.4068
50613SOL    HW163563   5.893   3.976  11.473  1.0545 -1.9693  0.5715
50613SOL    HW263564   5.865   4.055  11.346 -2.2547 -0.6644  2.0107
50614SOL     OW63565   1.386   9.607  10.188  0.1546 -0.1451 -0.5776
50614SOL    HW163566   1.360   9.531  10.240  2.3766  0.4507  1.5389
50614SOL    HW263567   1.457   9.575  10.132 -0.5386 -0.1704 -1.4658
50615SOL     OW63568   1.482   3.875   8.560 -0.1631 -0.4827  0.2270
50615SOL    HW163569   1.467   3.914   8.474  0.2782  0.5056  0.5875
50615SOL    HW263570   1.403   3.896   8.611 -0.2123 -0.6393  0.2156
50616SOL     OW63571   1.424   4.333   8.926 -0.4630 -0.2484 -0.1111
50616SOL    HW163572   1.490   4.402   8.933 -3.2015  2.5727  0.2379
50616SOL    HW263573   1.422   4.293   9.013 -1.3352  1.8841  0.9397
50617SOL     OW63574   2.753   0.953   5.851 -0.4366  0.2904  0.0195
50617SOL    HW163575   2.734   1.046   5.837  1.2140  0.6168 -0.2195
50617SOL    HW263576   2.766   0.946   5.946  0.3500  0.4972 -0.0684
50618SOL     OW63577   3.681   1.769   9.174  0.2403 -0.1812 -0.2120
50618SOL    HW163578   3.714   1.839   9.117  1.9348 -0.9432 -0.2215
50618SOL    HW263579   3.738   1.694   9.155  0.0295 -0.8332  1.5798
50619SOL     OW63580   2.966   3.814   8.018  0.4588 -0.0648  0.2943
50619SOL    HW163581   2.950   3.788   8.108  0.5673 -0.0830  0.3087
50619SOL    HW263582   2.880   3.837   7.984  0.2757 -0.9831  0.1045
50620SOL     OW63583   8.808   8.220   3.929 -0.5912  0.4412  0.5075
50620SOL    HW163584   8.800   8.231   4.024 -0.5245 -1.6668  0.8077
50620SOL    HW263585   8.892   8.177   3.916 -0.4949  0.9070 -0.5455
50621SOL     OW63586   7.312   0.993   2.134 -0.1248  0.2140 -0.1316
50621SOL    HW163587   7.346   1.000   2.045  0.9885  0.3562  0.2852
50621SOL    HW263588   7.266   1.075   2.150 -0.8865 -0.0746 -0.7891
50622SOL     OW63589   3.537   1.617   0.531  0.0588  0.2026  0.3621
50622SOL    HW163590   3.616   1.658   0.565  0.0850 -1.0677  1.9610
50622SOL    HW263591   3.493   1.581   0.608 -2.8311  2.0288 -0.2754
50623SOL     OW63592   2.686  11.384   8.885 -0.0333  0.8862  0.1684
50623SOL    HW163593   2.772  11.402   8.923  0.0716  0.8602 -0.0593
50623SOL    HW263594   2.628  11.374   8.961  0.2461  0.4904  0.3319
50624SOL     OW63595   6.866   0.426   4.114 -0.1928 -0.4609 -0.4179
50624SOL    HW163596   6.941   0.369   4.132  0.2794  0.1375 -0.4358
50624SOL    HW263597   6.891   0.472   4.034 -0.0019  0.7051  0.2974
50625SOL     OW63598   6.448   8.395   7.676  0.1359  0.8874 -0.7745
50625SOL    HW163599   6.541   8.410   7.658  0.3375  0.0930 -0.3973
50625SOL    HW263600   6.430   8.308   7.641 -0.2175  0.6099  0.0701
50626SOL     OW63601   5.675   6.682   8.894  0.1989 -0.1002  0.1804
50626SOL    HW163602   5.644   6.592   8.897  0.7095 -0.3057 -0.4551
50626SOL    HW263603   5.648   6.714   8.808  0.9637  0.0011 -0.0287
50627SOL     OW63604   8.264   7.523   8.939 -0.3997  0.0023 -0.1680
50627SOL    HW163605   8.287   7.449   8.994 -1.0358  1.1379  1.7079
50627SOL    HW263606   8.169   7.514   8.925 -0.2823 -0.1511 -0.9113
50628SOL     OW63607  11.518  11.067  10.486 -0.4466  0.5419  0.0519
50628SOL    HW163608  11.442  11.073  10.545 -0.9216 -1.4932 -0.2738
50628SOL    HW263609  11.550  10.978  10.498 -0.0513  0.3402 -2.1551
50629SOL     OW63610  11.402   3.568   9.612  0.3640 -0.2469  0.1614
50629SOL    HW163611  11.469   3.504   9.637  0.7824  0.5472  1.0941
50629SOL    HW263612  11.321   3.517   9.610  0.6483 -0.7622  1.1387
50630SOL     OW63613   2.855   0.632   5.205  0.3984 -0.3015  0.3745
50630SOL    HW163614   2.849   0.620   5.300  0.3574  4.5656  1.2206
50630SOL    HW263615   2.942   0.668   5.191 -0.4850  1.4762 -0.9932
50631SOL     OW63616   1.134   4.944   7.173 -0.0966  0.2716 -0.8077
50631SOL    HW163617   1.174   4.888   7.241  0.6997  0.3822 -1.1774
50631SOL    HW263618   1.206   4.962   7.112 -1.3076 -1.8272 -3.0310
50632SOL     OW63619   8.687  10.063   8.538  0.1609 -0.1282 -0.5899
50632SOL    HW163620   8.774  10.062   8.497 -0.0945  0.1708 -1.1628
50632SOL    HW263621   8.653   9.974   8.526  1.0736 -0.7507  1.1851
50633SOL     OW63622   5.125   0.071   5.824 -0.1694 -0.2297  0.0753
50633SOL    HW163623   5.170   0.147   5.788 -1.9411  0.6867 -0.2969
50633SOL    HW263624   5.176  -0.004   5.792  1.2824  0.7436 -0.0032
50634SOL     OW63625   7.671   2.583   5.993 -0.3517 -0.9055 -0.2584
50634SOL    HW163626   7.697   2.644   5.924 -1.5773 -0.0210  0.0187
50634SOL    HW263627   7.753   2.545   6.024  0.5396  1.1041  0.0199
50635SOL     OW63628   1.618  10.013   9.642 -0.4974 -0.0645 -0.0454
50635SOL    HW163629   1.706  10.047   9.659 -0.0239 -1.3619  0.2186
50635SOL    HW263630   1.596   9.964   9.721 -0.8139 -1.0296 -0.7145
50636SOL     OW63631   6.317  10.018   0.238 -0.1839  0.7360 -0.3248
50636SOL    HW163632   6.314  10.111   0.217  0.7668  0.2693 -2.8712
50636SOL    HW263633   6.279   9.975   0.162 -1.5390 -0.9597  1.2161
50637SOL     OW63634   9.211   6.089   5.573 -0.0429 -0.3239 -0.2516
50637SOL    HW163635   9.123   6.126   5.573  0.0756  0.0124 -1.5641
50637SOL    HW263636   9.269   6.166   5.575  0.2121 -0.2853 -3.5921
50638SOL     OW63637  11.956   7.230   6.174 -0.0097 -0.0797  0.3397
50638SOL    HW163638  11.880   7.267   6.218  0.6673  0.7209  0.8883
50638SOL    HW263639  12.001   7.180   6.242  0.0088 -0.4683  0.0465
50639SOL     OW63640   0.209   5.593   8.181  0.0487 -0.1096  0.1775
50639SOL    HW163641   0.115   5.603   8.163 -0.4262 -0.8857  1.9653
50639SOL    HW263642   0.248   5.573   8.096 -1.2791  0.9809 -0.7348
50640SOL     OW63643   9.312   2.001   2.975  0.3977 -0.1303 -0.0509
50640SOL    HW163644   9.289   2.008   2.882 -0.6388 -0.9291  0.1271
50640SOL    HW263645   9.313   2.091   3.006  0.2094  0.1087 -0.7212
50641SOL     OW63646   9.076   0.458  10.441 -0.6573  0.0616 -0.0396
50641SOL    HW163647   8.992   0.412  10.443 -1.3164  1.2335  0.9746
50641SOL    HW263648   9.094   0.478  10.533  0.3063  0.5883 -0.3302
50642SOL     OW63649   5.554   7.335   0.744  0.1389  0.1203  0.2064
50642SOL    HW163650   5.535   7.298   0.658 -1.5913  0.8286  0.2540
50642SOL    HW263651   5.625   7.398   0.728 -0.4274  0.5292 -0.7829
50643SOL     OW63652   5.922   9.572   1.074 -0.4258  0.4327 -0.0745
50643SOL    HW163653   5.975   9.500   1.109  0.5807  0.3482 -1.6751
50643SOL    HW263654   5.951   9.649   1.123  0.7769  0.2768 -0.5186
50644SOL     OW63655   6.725   6.315   7.007  0.1020  0.2486 -0.2033
50644SOL    HW163656   6.634   6.292   7.025 -0.5630  2.6745 -0.0312
50644SOL    HW263657   6.725   6.411   7.001  2.4823  0.2763 -1.1661
50645SOL     OW63658   5.560   5.087  10.726 -0.1805 -0.0158 -0.1961
50645SOL    HW163659   5.647   5.095  10.766 -0.3694 -1.7497  0.6832
50645SOL    HW263660   5.514   5.167  10.750  1.0995  0.8296 -0.4887
50646SOL     OW63661   4.480   1.437   9.337  0.3475  0.0052 -0.4406
50646SOL    HW163662   4.434   1.519   9.322  0.1333 -0.2412 -1.1463
50646SOL    HW263663   4.423   1.388   9.397  0.0408  0.0048 -0.7282
50647SOL     OW63664   3.871   3.534   4.811  0.4394 -0.8374  0.0218
50647SOL    HW163665   3.875   3.603   4.878  0.8977 -0.0171 -0.8304
50647SOL    HW263666   3.854   3.580   4.729 -1.6404 -1.9705 -0.2538
50648SOL     OW63667   5.247   6.850   3.369 -0.0197  0.5608 -0.3074
50648SOL    HW163668   5.163   6.893   3.381  0.1769  1.2173 -1.1155
50648SOL    HW263669   5.267   6.810   3.453 -0.5498  1.4743  0.2635
50649SOL     OW63670   6.586   3.660   5.380  0.4135 -0.7349 -0.2324
50649SOL    HW163671   6.658   3.605   5.410 -0.1836 -1.4099 -0.0008
50649SOL    HW263672   6.532   3.673   5.458  1.4453  1.6748  0.1814
50650SOL     OW63673   2.165   7.736   6.250 -0.2497  0.2391  0.1023
50650SOL    HW163674   2.217   7.791   6.191  0.0054  0.7675  0.8040
50650SOL    HW263675   2.151   7.791   6.327 -1.8217  0.1003 -0.0495
50651SOL     OW63676   5.114   6.566   1.679 -0.1800 -0.0862  0.6151
50651SOL    HW163677   5.117   6.515   1.760  1.1472 -0.7531  0.1809
50651SOL    HW263678   5.151   6.651   1.703  0.1955 -0.2769  0.7296
50652SOL     OW63679   5.482   1.740   1.512 -0.2748  0.8615 -0.2893
50652SOL    HW163680   5.455   1.758   1.422  0.7879 -1.5767 -1.1841
50652SOL    HW263681   5.408   1.690   1.548 -0.1966  0.8179 -0.1917
50653SOL     OW63682   4.867   6.410   3.818 -0.4667 -0.3263  0.2073
50653SOL    HW163683   4.802   6.346   3.846  1.5497 -2.3748  0.4135
50653SOL    HW263684   4.840   6.435   3.730 -1.0414 -1.8237 -0.0672
50654SOL     OW63685   7.017   8.592   0.760 -0.0734 -0.0296 -0.2363
50654SOL    HW163686   6.988   8.667   0.812 -1.3344 -1.3810  1.1214
50654SOL    HW263687   7.090   8.555   0.811  0.6525  0.3303 -0.9854
50655SOL     OW63688   1.179   9.846   7.102  0.4228  0.1597 -0.2267
50655SOL    HW163689   1.246   9.905   7.070  2.1404 -1.5230  0.0896
50655SOL    HW263690   1.201   9.829   7.193 -0.5022 -0.3229 -0.0722
50656SOL     OW63691   8.220  11.453  11.722  0.3937 -0.2762  0.4720
50656SOL    HW163692   8.205  11.396  11.798  0.4112  0.5546  1.1129
50656SOL    HW263693   8.237  11.539  11.760  0.0381  0.2326 -0.4927
50657SOL     OW63694  10.409   0.015   8.974 -0.4437 -0.2653  0.0327
50657SOL    HW163695  10.334   0.007   8.916  0.4341 -0.3562 -1.1284
50657SOL    HW263696  10.426   0.110   8.980  1.1270 -0.3435 -2.1299
50658SOL     OW63697   8.603   3.505   7.210 -0.1764 -0.2868  0.7027
50658SOL    HW163698   8.623   3.462   7.127 -3.0964 -0.0587 -0.2240
50658SOL    HW263699   8.607   3.434   7.275 -1.4790 -1.2888 -0.2548
50659SOL     OW63700   2.542   8.255   3.085  0.1439  0.4105 -0.5206
50659SOL    HW163701   2.622   8.307   3.089 -0.2690  0.9868  0.5808
50659SOL    HW263702   2.472   8.316   3.105 -0.8360  0.3560 -3.3304
50660SOL     OW63703   0.862   1.197   4.443 -0.5336  0.2694 -0.3146
50660SOL    HW163704   0.866   1.101   4.442 -0.3085  0.2607  0.4867
50660SOL    HW263705   0.939   1.224   4.393 -0.2571  0.0318 -0.0199
50661SOL     OW63706  10.731  11.157   2.400 -0.0272 -0.0502 -0.0843
50661SOL    HW163707  10.803  11.188   2.346  1.3761 -0.5201  1.4125
50661SOL    HW263708  10.725  11.220   2.472 -0.7441 -0.3141  0.1061
50662SOL     OW63709   6.107   6.021   2.425  0.2014  0.1975  0.5142
50662SOL    HW163710   6.105   6.067   2.509  1.1071  1.1404  0.0405
50662SOL    HW263711   6.057   5.941   2.440 -1.8742  1.5584  1.2174
50663SOL     OW63712  10.599   8.559   3.826  0.4111 -0.1132  0.5863
50663SOL    HW163713  10.542   8.516   3.890  1.1360  0.3317  1.5643
50663SOL    HW263714  10.601   8.500   3.751 -1.0934 -0.2708  0.6490
50664SOL     OW63715  11.196   3.985   5.306  0.3579 -0.1822  0.3418
50664SOL    HW163716  11.210   3.902   5.259  0.8228 -0.3718  0.8072
50664SOL    HW263717  11.253   3.979   5.383 -1.2018 -0.3591  1.5388
50665SOL     OW63718  11.220  11.759   4.902  0.5400 -0.1831 -0.0615
50665SOL    HW163719  11.296  11.774   4.844  1.5458 -1.0612  0.9795
50665SOL    HW263720  11.189  11.672   4.878 -0.5849  0.4404 -0.9399
50666SOL     OW63721   2.375   4.074   6.948 -0.6927  0.5083  0.8041
50666SOL    HW163722   2.379   4.127   7.027 -0.8174 -0.2130  1.3024
50666SOL    HW263723   2.414   4.129   6.880 -2.7306  2.0755  0.8265
50667SOL     OW63724   0.709   7.667   5.156  0.0051  0.7490 -0.0981
50667SOL    HW163725   0.782   7.605   5.146  0.8873  1.9843 -1.8125
50667SOL    HW263726   0.631   7.614   5.147  0.7420 -0.0632 -2.2142
50668SOL     OW63727   0.795   1.299   6.014 -0.6222 -0.3009 -0.5507
50668SOL    HW163728   0.799   1.384   5.972 -1.0923 -1.0159 -2.1075
50668SOL    HW263729   0.783   1.319   6.107  0.0652  1.3211 -0.7792
50669SOL     OW63730   6.173   7.859   0.509  0.0339 -0.0125  0.3274
50669SOL    HW163731   6.263   7.869   0.477 -0.6102  2.7350 -0.9529
50669SOL    HW263732   6.181   7.862   0.604  1.2585  1.2824  0.2252
50670SOL     OW63733   8.361  11.326   0.626  0.2041  0.0260 -0.0019
50670SOL    HW163734   8.286  11.363   0.579  0.2982  0.6091  0.2980
50670SOL    HW263735   8.327  11.302   0.712  0.2021 -0.3464 -0.1078
50671SOL     OW63736   7.046   6.837  11.013  0.3955 -0.3558 -0.4566
50671SOL    HW163737   7.141   6.829  11.008  0.7086  2.2774 -0.0390
50671SOL    HW263738   7.021   6.873  10.927 -0.3566 -1.7023 -0.8351
50672SOL     OW63739   3.997   5.972   2.398  0.4501  0.1997 -0.0854
50672SOL    HW163740   4.066   5.907   2.404 -0.1664 -0.3708  2.2379
50672SOL    HW263741   3.919   5.922   2.373  0.1248  0.1253  1.0107
50673SOL     OW63742   3.075   1.558   8.323 -0.0132 -0.2260 -0.3436
50673SOL    HW163743   3.156   1.510   8.341  0.3257  1.0542  1.9221
50673SOL    HW263744   3.105   1.642   8.287 -0.1458  0.8807  1.9436
50674SOL     OW63745   3.574   1.888   8.283  0.0134  0.6054  0.1992
50674SOL    HW163746   3.609   1.893   8.372  1.7638 -0.4524 -0.3894
50674SOL    HW263747   3.649   1.866   8.228 -1.5448 -1.9769 -1.1143
50675SOL     OW63748  10.796   9.790  10.312 -0.0710 -0.3657 -0.6867
50675SOL    HW163749  10.724   9.790  10.376 -0.4082  1.3102 -1.0163
50675SOL    HW263750  10.868   9.746  10.358 -1.4425 -2.6508 -0.5712
50676SOL     OW63751   6.187   4.869   7.470  0.2425  0.1893  0.3786
50676SOL    HW163752   6.121   4.860   7.539 -0.8642  0.8889 -0.5570
50676SOL    HW263753   6.250   4.932   7.506 -0.6411  1.0052  0.5518
50677SOL     OW63754   7.809   1.132  10.652 -0.2228  0.0635 -0.7675
50677SOL    HW163755   7.791   1.168  10.565 -0.8360  1.3187 -0.1512
50677SOL    HW263756   7.887   1.179  10.681  0.2031 -0.6261 -0.7773
50678SOL     OW63757   2.246   0.401   7.677  0.2611 -0.8355 -0.2917
50678SOL    HW163758   2.198   0.425   7.597  0.4479 -2.7953 -1.0453
50678SOL    HW263759   2.331   0.372   7.646  1.0036  0.0613  0.8152
50679SOL     OW63760   6.029   3.300   6.866 -0.0718  0.2317 -0.4758
50679SOL    HW163761   6.043   3.276   6.957  0.5216 -0.8013 -0.8273
50679SOL    HW263762   6.092   3.371   6.850 -0.5554  0.7855  0.0612
50680SOL     OW63763   7.580   6.642   2.826 -0.7439 -0.1078  0.2264
50680SOL    HW163764   7.625   6.579   2.770 -2.6156 -0.6459 -0.7454
50680SOL    HW263765   7.562   6.717   2.769 -0.9130  0.1837  0.6564
50681SOL     OW63766   9.402   1.444  10.689 -0.0017 -0.3532 -0.3500
50681SOL    HW163767   9.339   1.392  10.740  0.0687  0.3129  0.4514
50681SOL    HW263768   9.467   1.471  10.753  0.4482 -0.0304 -0.9399
50682SOL     OW63769   3.466   1.693  11.595 -0.2045 -0.6989  0.5436
50682SOL    HW163770   3.416   1.690  11.513 -0.2495  3.2447  0.2622
50682SOL    HW263771   3.555   1.713  11.568 -0.0649 -0.1049  1.3988
50683SOL     OW63772   4.048   4.502   5.278 -0.0370  0.1703 -0.6604
50683SOL    HW163773   3.962   4.525   5.243  0.3538  0.4379 -1.4664
50683SOL    HW263774   4.044   4.526   5.370 -1.0761 -0.5142 -0.5092
50684SOL     OW63775   8.917   1.114   0.361  0.6348  0.1245  0.1305
50684SOL    HW163776   8.952   1.026   0.376  2.0319  0.3360 -1.5264
50684SOL    HW263777   8.984   1.173   0.395  0.7817  0.5288 -0.8042
50685SOL     OW63778   8.094   6.830   3.714  0.5072  0.9398  0.1112
50685SOL    HW163779   8.169   6.889   3.727  1.0575  0.1421  0.6249
50685SOL    HW263780   8.024   6.868   3.767  0.7801  1.2682  0.2379
50686SOL     OW63781   1.118  11.511   5.315  0.4544  0.0590 -0.7213
50686SOL    HW163782   1.118  11.419   5.289  0.4498 -0.1141 -0.1260
50686SOL    HW263783   1.136  11.559   5.234 -1.4100 -0.3414 -1.4115
50687SOL     OW63784   9.125   1.824   3.393 -0.1684 -0.0508  0.2111
50687SOL    HW163785   9.143   1.730   3.393  2.4824  0.3477 -0.8525
50687SOL    HW263786   9.099   1.843   3.303  2.0933  0.5618 -0.3951
50688SOL     OW63787   5.038   4.079   2.675  0.1870 -0.6504 -0.9805
50688SOL    HW163788   5.051   4.174   2.672  1.1609 -0.6246  1.7824
50688SOL    HW263789   4.956   4.067   2.722  0.8011 -1.1834 -0.0238
50689SOL     OW63790   5.107   2.626   0.923 -0.0376 -0.3360  0.7757
50689SOL    HW163791   5.063   2.579   0.853  0.6130 -1.4979  1.1167
50689SOL    HW263792   5.169   2.683   0.878  1.9469 -2.6269  0.3525
50690SOL     OW63793   6.392  11.026   6.630  0.6211 -0.8433 -0.0379
50690SOL    HW163794   6.400  10.996   6.539  0.2531 -1.2935  0.0747
50690SOL    HW263795   6.479  11.013   6.667  0.6597 -1.0774 -0.2048
50691SOL     OW63796   4.406   8.730   1.947 -0.3598 -0.1124 -0.7750
50691SOL    HW163797   4.437   8.683   1.870 -0.3950  0.2368 -1.0020
50691SOL    HW263798   4.327   8.775   1.918 -0.8773 -0.6857 -0.3032
50692SOL     OW63799  11.041   5.641   7.477 -0.4974 -0.2240 -0.1710
50692SOL    HW163800  10.958   5.597   7.496  0.3089 -1.2141  1.2241
50692SOL    HW263801  11.054   5.700   7.552  0.2216 -0.3439 -0.1947
50693SOL     OW63802   4.135   7.064   4.391 -0.3046 -0.1064  0.1421
50693SOL    HW163803   4.144   6.987   4.448 -2.3832 -1.0332 -0.6843
50693SOL    HW263804   4.118   7.137   4.451 -0.4033 -0.6897  0.8348
50694SOL     OW63805  11.069   5.017   2.725  0.1593  0.5724  0.3180
50694SOL    HW163806  10.974   5.013   2.711  0.1303  0.1997  0.6030
50694SOL    HW263807  11.088   5.111   2.730 -0.3191  0.6415  1.0499
50695SOL     OW63808   4.175   1.236   7.598  0.0031 -0.0134  0.2081
50695SOL    HW163809   4.181   1.170   7.529 -0.7284  0.8160 -0.6702
50695SOL    HW263810   4.246   1.297   7.579 -0.1648  0.1861  0.2185
50696SOL     OW63811  11.869   7.276   9.669 -0.2736 -0.2795  0.1175
50696SOL    HW163812  11.787   7.227   9.665 -0.8148  0.4006  1.6821
50696SOL    HW263813  11.917   7.237   9.742 -0.8728  1.6154  1.6410
50697SOL     OW63814   2.238  11.756  11.530  0.2923  0.6920  0.5560
50697SOL    HW163815   2.254  11.669  11.495 -1.6286  0.0020  1.2389
50697SOL    HW263816   2.283  11.815  11.470 -1.4055 -0.5234 -2.1295
50698SOL     OW63817   3.816  10.082   6.806 -0.1378 -0.0528 -0.0579
50698SOL    HW163818   3.747  10.069   6.741  0.7788 -1.0964 -0.8681
50698SOL    HW263819   3.894  10.101   6.755  0.3953  0.1039  0.7960
50699SOL     OW63820  10.161   6.463  10.544 -0.0643 -0.3119 -0.3447
50699SOL    HW163821  10.088   6.416  10.503  0.1015 -1.1897  0.3467
50699SOL    HW263822  10.173   6.420  10.629  1.3636 -0.2912 -0.5129
50700SOL     OW63823   1.572   4.696   4.716  0.1679  0.4236 -0.0440
50700SOL    HW163824   1.655   4.650   4.705 -0.2225 -0.3002 -0.0472
50700SOL    HW263825   1.522   4.640   4.776 -0.1949  1.0142  0.2111
50701SOL     OW63826  10.030  10.393   8.003  0.4115 -0.3587 -0.1343
50701SOL    HW163827  10.010  10.392   8.096 -0.5862 -3.1947 -0.2846
50701SOL    HW263828  10.116  10.351   7.997  0.1814 -0.7887 -0.5093
50702SOL     OW63829   6.815   0.297   8.118 -0.1347 -0.2837 -0.0191
50702SOL    HW163830   6.896   0.344   8.097 -0.0155 -0.2476  0.4926
50702SOL    HW263831   6.841   0.206   8.129 -0.6191 -0.8055 -2.5761
50703SOL     OW63832   7.679   5.066   5.898  0.0617  1.0988 -0.1328
50703SOL    HW163833   7.699   5.021   5.815  3.0001  1.1923  0.4115
50703SOL    HW263834   7.649   5.153   5.871 -0.3962  0.6531 -1.1154
50704SOL     OW63835   6.212   1.259  10.109 -0.1403 -0.2016  0.3674
50704SOL    HW163836   6.290   1.230  10.155 -0.7087 -0.0905  1.4410
50704SOL    HW263837   6.213   1.354  10.117 -1.2841 -0.2914  1.9480
50705SOL     OW63838   9.633   9.577   5.016 -0.0392  0.3544  0.3503
50705SOL    HW163839   9.710   9.571   5.073 -0.0818  0.1468  0.3842
50705SOL    HW263840   9.597   9.489   5.014 -0.7365  0.6201  0.9653
50706SOL     OW63841   8.146   8.296   9.374  0.1072  0.3851  0.3281
50706SOL    HW163842   8.135   8.201   9.365 -2.5032  0.6048  0.6211
50706SOL    HW263843   8.197   8.307   9.454  1.1562 -0.7573 -0.1402
50707SOL     OW63844   4.872   6.064   5.006 -0.2108  0.7855 -0.5937
50707SOL    HW163845   4.879   6.103   5.093 -1.0855 -0.6807  0.1573
50707SOL    HW263846   4.860   6.139   4.947  0.4212  1.7929  0.5242
50708SOL     OW63847   7.146   3.662   6.136 -0.3114  0.0432 -0.3930
50708SOL    HW163848   7.154   3.672   6.041 -1.1597 -3.3859 -0.9574
50708SOL    HW263849   7.051   3.664   6.152 -0.1512  1.6211  0.6002
50709SOL     OW63850  11.495  11.680   5.696 -0.3072  0.5800  0.3340
50709SOL    HW163851  11.444  11.625   5.637  1.2379 -0.1998 -0.3507
50709SOL    HW263852  11.538  11.619   5.756  1.2139  1.0009 -0.2669
50710SOL     OW63853   2.731  11.232   0.582 -0.4122  0.1929  0.1208
50710SOL    HW163854   2.655  11.289   0.583 -0.8040 -0.2971 -0.7092
50710SOL    HW263855   2.785  11.264   0.510 -0.6490 -0.4846 -0.3716
50711SOL     OW63856   2.192   1.801   9.595  0.0052 -0.3158  1.0100
50711SOL    HW163857   2.227   1.718   9.564  0.7300  0.2820  0.1703
50711SOL    HW263858   2.102   1.782   9.621 -2.0239 -0.2872 -4.6894
50712SOL     OW63859   7.527   1.833   9.554 -0.1290  0.5744 -0.0883
50712SOL    HW163860   7.564   1.890   9.622  1.1602 -0.0571 -0.2249
50712SOL    HW263861   7.471   1.772   9.602  0.7646  0.1379  0.4444
50713SOL     OW63862   8.259   5.403  11.712  0.0495  0.6205  0.1093
50713SOL    HW163863   8.219   5.440  11.634 -1.6872  0.8258  1.0683
50713SOL    HW263864   8.320   5.471  11.742 -1.2626  1.6725  0.4463
50714SOL     OW63865   1.655   3.337   0.688 -0.6296  0.2136 -0.0895
50714SOL    HW163866   1.625   3.425   0.707 -0.1788  0.1996  0.7211
50714SOL    HW263867   1.591   3.279   0.730 -0.3956  0.1691  0.2109
50715SOL     OW63868   1.155   3.852   4.692  0.3420  0.1229 -0.5230
50715SOL    HW163869   1.159   3.947   4.695  0.3709  0.1084  1.0777
50715SOL    HW263870   1.191   3.828   4.607  0.2365  1.5372 -0.9887
50716SOL     OW63871  11.047   3.775   5.491  0.5563 -0.1077  0.5338
50716SOL    HW163872  11.130   3.729   5.497  0.2504 -0.9188 -0.9967
50716SOL    HW263873  11.029   3.781   5.397 -0.3219  1.5137  0.7596
50717SOL     OW63874   1.696   0.235   9.592 -0.1772 -0.7787 -0.5371
50717SOL    HW163875   1.745   0.274   9.665 -0.2327 -1.6144 -0.0424
50717SOL    HW263876   1.744   0.155   9.571 -0.8870 -1.2109 -0.5528
50718SOL     OW63877   0.303   9.153   6.269  0.4751  0.4393 -0.6889
50718SOL    HW163878   0.353   9.080   6.231 -0.6054  0.1955 -1.6938
50718SOL    HW263879   0.323   9.228   6.213  2.3147  1.2073  0.8805
50719SOL     OW63880  10.347   4.983   0.012 -0.0630  0.7822 -0.4788
50719SOL    HW163881  10.331   4.913  -0.051  2.0159 -0.6078  0.4317
50719SOL    HW263882  10.283   4.968   0.082  0.3822 -0.2586 -0.2799
50720SOL     OW63883  10.445   5.120   8.765  0.0176  0.1176 -0.1515
50720SOL    HW163884  10.472   5.056   8.830 -1.7963 -0.0744  0.4598
50720SOL    HW263885  10.527   5.162   8.738  1.4402 -3.0413 -1.2920
50721SOL     OW63886   3.342  11.072   8.826  0.2032 -0.3444  0.0142
50721SOL    HW163887   3.353  11.145   8.765  1.8327  0.2716  0.9982
50721SOL    HW263888   3.293  11.109   8.899  0.8359 -0.2761  0.4121
50722SOL     OW63889   8.800   7.441   7.377 -0.7922  0.1155  0.3228
50722SOL    HW163890   8.805   7.510   7.443 -0.4591  0.9067 -0.4994
50722SOL    HW263891   8.837   7.364   7.419 -1.5135  0.3240  1.3879
50723SOL     OW63892   6.308   0.974   0.445 -0.3154 -0.3254  0.0630
50723SOL    HW163893   6.362   0.912   0.493 -0.7848  0.5090  1.7387
50723SOL    HW263894   6.218   0.951   0.469 -0.4676  1.9106  2.0130
50724SOL     OW63895  11.630   0.946  10.189 -0.9515 -0.1634 -0.1805
50724SOL    HW163896  11.620   1.040  10.207  0.6338  0.5109 -2.4900
50724SOL    HW263897  11.646   0.908  10.275 -1.3598  1.6990  0.7880
50725SOL     OW63898  10.845   8.706   7.055  0.2456  0.2089  0.1398
50725SOL    HW163899  10.821   8.798   7.060  2.5880  1.0229 -1.4897
50725SOL    HW263900  10.769   8.663   7.017 -0.0245  1.9228 -1.3838
50726SOL     OW63901   5.566  10.467  11.770  0.0948  0.4393 -0.4637
50726SOL    HW163902   5.662  10.472  11.778  0.0398  1.2073 -0.1928
50726SOL    HW263903   5.535  10.467  11.861 -0.1558 -0.0600 -0.5488
50727SOL     OW63904   0.119  10.516   9.552 -0.0031  0.1010 -0.5532
50727SOL    HW163905   0.181  10.560   9.494  0.1170 -0.9961 -1.2765
50727SOL    HW263906   0.085  10.443   9.501  1.4513 -2.0164  1.3038
50728SOL     OW63907   6.070   1.828   4.064  0.1510 -0.0544 -0.4505
50728SOL    HW163908   6.123   1.750   4.074  1.5066  0.6940 -1.4911
50728SOL    HW263909   5.980   1.795   4.059  0.7832 -1.6691 -2.1726
50729SOL     OW63910   5.822   4.335   0.889 -0.1613 -0.7212 -0.1130
50729SOL    HW163911   5.819   4.380   0.974 -0.3058 -1.7355  0.4275
50729SOL    HW263912   5.831   4.243   0.911  1.9500 -0.8492 -1.2323
50730SOL     OW63913   8.213   4.855   3.949 -0.0817  0.0588 -0.1338
50730SOL    HW163914   8.256   4.936   3.975 -0.6097  0.7640 -1.3841
50730SOL    HW263915   8.230   4.795   4.022  1.5297  0.8333  0.1737
50731SOL     OW63916  10.953  11.877   1.647  0.2427  0.1467  0.0525
50731SOL    HW163917  10.982  11.957   1.692 -0.0103  0.8928 -1.0668
50731SOL    HW263918  11.026  11.817   1.656 -0.1565 -0.0991  2.2757
50732SOL     OW63919   8.940   5.206   9.566  0.2561  0.1724  0.1139
50732SOL    HW163920   8.960   5.164   9.482 -0.7092  0.0269 -0.0483
50732SOL    HW263921   8.863   5.260   9.548  1.4887  2.1011  0.2994
50733SOL     OW63922  11.785   8.240   5.659 -0.1218  0.2834  0.0515
50733SOL    HW163923  11.694   8.213   5.672 -0.3219  1.3465  0.9470
50733SOL    HW263924  11.792   8.325   5.703  1.6558 -0.4109  1.2448
50734SOL     OW63925   6.901   6.554  10.350 -0.3756 -0.0985  0.5214
50734SOL    HW163926   6.953   6.604  10.287 -1.4631  0.2837 -0.0878
50734SOL    HW263927   6.921   6.596  10.434  0.9782 -0.5311  0.4328
50735SOL     OW63928   4.291   4.487  10.244 -0.0274 -0.1109  0.3536
50735SOL    HW163929   4.288   4.391  10.237 -1.5810 -0.3620  2.9646
50735SOL    HW263930   4.365   4.504  10.302 -0.0900  0.2312  0.3326
50736SOL     OW63931   6.485  11.753   0.902 -0.0707 -0.1666 -0.3717
50736SOL    HW163932   6.565  11.712   0.934  0.0860 -0.4531 -1.1230
50736SOL    HW263933   6.458  11.700   0.827  0.7123  1.6401 -2.0450
50737SOL     OW63934   8.614   9.489   8.337  0.0663 -0.5251  0.2975
50737SOL    HW163935   8.521   9.466   8.334 -0.0421 -0.0640 -2.6569
50737SOL    HW263936   8.617   9.583   8.324  0.9480 -0.5785  0.0074
50738SOL     OW63937   3.496   7.079   8.630  0.1060 -0.6132  0.0459
50738SOL    HW163938   3.536   7.005   8.583 -1.7801 -1.9408  0.4108
50738SOL    HW263939   3.417   7.042   8.669  0.0887  1.1844  1.8300
50739SOL     OW63940   9.159   6.195   8.047 -0.0801 -0.3673  0.3981
50739SOL    HW163941   9.244   6.213   8.007  0.3509 -0.0811  1.4136
50739SOL    HW263942   9.180   6.146   8.126 -0.6979  1.3325  1.6599
50740SOL     OW63943   0.436   7.125   7.553  0.4097 -0.4677  0.0110
50740SOL    HW163944   0.493   7.111   7.476 -1.2651  0.1937 -1.4234
50740SOL    HW263945   0.448   7.046   7.606  1.7691 -0.8576 -0.8142
50741SOL     OW63946   8.324   7.838   7.185  0.1169 -0.0100 -0.0605
50741SOL    HW163947   8.290   7.927   7.174  0.6567  0.1357 -0.6595
50741SOL    HW263948   8.252   7.781   7.158 -0.1791  0.2514  0.1788
50742SOL     OW63949   0.559   6.602   7.428 -0.3346 -0.4921 -0.0701
50742SOL    HW163950   0.507   6.565   7.358  0.6659  1.1299 -1.7628
50742SOL    HW263951   0.641   6.552   7.426 -0.4042 -0.6177  0.1389
50743SOL     OW63952   7.313   4.076   6.286 -0.4559  0.3303  0.1136
50743SOL    HW163953   7.347   4.109   6.369 -2.1928  0.5114  0.7836
50743SOL    HW263954   7.380   4.102   6.222  1.8899 -1.4931  1.6432
50744SOL     OW63955   7.166   5.625   1.789  0.4663  0.1668  0.4101
50744SOL    HW163956   7.096   5.652   1.849  1.5785  1.1754  1.2879
50744SOL    HW263957   7.199   5.706   1.752  0.4179 -0.3821 -0.9018
50745SOL     OW63958   9.298   1.318   8.858 -0.2502  0.2886 -0.7554
50745SOL    HW163959   9.347   1.394   8.890  0.8666 -0.7718  0.1430
50745SOL    HW263960   9.349   1.242   8.888 -1.9961 -0.8490 -0.5571
50746SOL     OW63961   5.654   8.967   1.521 -0.0575  0.0632  0.5168
50746SOL    HW163962   5.676   8.874   1.515  0.3039  0.0403  1.7987
50746SOL    HW263963   5.611   8.976   1.606  0.1157  1.1021  0.5103
50747SOL     OW63964   9.167   3.604  11.696 -0.5401 -0.3710  0.3210
50747SOL    HW163965   9.177   3.664  11.770 -2.6827  1.7944 -1.0232
50747SOL    HW263966   9.245   3.618  11.643 -0.6876  0.7180  0.3812
50748SOL     OW63967   8.843  11.265  10.346 -0.0141 -0.1911 -0.0587
50748SOL    HW163968   8.938  11.261  10.353  0.0459  0.1159 -0.6597
50748SOL    HW263969   8.817  11.326  10.416 -0.0351 -2.3769  1.9535
50749SOL     OW63970   4.042   1.574  11.788  0.0724 -0.8223  0.1850
50749SOL    HW163971   3.962   1.571  11.735  1.5139  0.1122 -2.2050
50749SOL    HW263972   4.113   1.562  11.725  1.9265  0.7050  1.8434
50750SOL     OW63973   3.539  11.468   0.033  0.9084 -0.0741  0.0501
50750SOL    HW163974   3.631  11.453   0.008  1.1568 -0.1303  0.9749
50750SOL    HW263975   3.495  11.387   0.007  0.9989  0.1608 -0.8997
50751SOL     OW63976   6.666  11.080   2.159  0.0037 -0.1718 -0.9687
50751SOL    HW163977   6.666  11.137   2.083  0.8482  0.3692 -0.5768
50751SOL    HW263978   6.674  11.140   2.234  1.4139 -0.8215 -0.5758
50752SOL     OW63979   4.824   4.366   1.561  0.6040 -0.3969 -0.6390
50752SOL    HW163980   4.904   4.408   1.595  0.1690  0.1099 -0.2187
50752SOL    HW263981   4.855   4.304   1.495  1.4687 -1.1999  0.4675
50753SOL     OW63982  10.000  11.823   5.964  0.0873 -0.2677 -0.3520
50753SOL    HW163983  10.054  11.774   5.902 -0.7876 -0.2746 -1.1121
50753SOL    HW263984   9.911  11.813   5.932 -0.1186  1.8937 -0.5668
50754SOL     OW63985   4.293   9.879   0.753 -0.5727 -0.6950 -0.5466
50754SOL    HW163986   4.349   9.811   0.717  0.5732 -1.1942  1.9137
50754SOL    HW263987   4.289   9.860   0.847 -2.6991  0.9108 -0.2137
50755SOL     OW63988   9.370   7.926  10.321  0.2750  0.0691  0.8056
50755SOL    HW163989   9.327   7.919  10.406  0.5161  0.8803  1.0088
50755SOL    HW263990   9.300   7.916  10.257  0.2391 -1.6394  1.0543
50756SOL     OW63991   5.853   9.135   5.660 -1.1091  0.9075 -0.2404
50756SOL    HW163992   5.825   9.224   5.678 -0.5127  0.9378  0.6121
50756SOL    HW263993   5.799   9.080   5.717 -2.0770  0.6337 -1.3840
50757SOL     OW63994   9.941   3.519   7.331 -0.2385  0.0896  0.2073
50757SOL    HW163995   9.853   3.486   7.351  0.4284 -0.6729  2.1072
50757SOL    HW263996   9.970   3.561   7.412  0.2404  2.5568 -1.1236
50758SOL     OW63997   6.238   0.857   3.735 -0.3056  0.1448 -0.1553
50758SOL    HW163998   6.239   0.911   3.815 -0.6964  1.0383 -0.7322
50758SOL    HW263999   6.145   0.848   3.714 -0.3184 -1.7154  0.5361
50759SOL     OW64000   0.073  10.342   8.528  0.2399  0.4748  0.2100
50759SOL    HW164001   0.145  10.383   8.480  0.5532  0.2978  0.5299
50759SOL    HW264002  -0.001  10.345   8.466  0.7052  0.0360 -0.3792
50760SOL     OW64003   2.947   8.095   9.201 -0.1526  0.4019 -0.6274
50760SOL    HW164004   2.858   8.081   9.170  0.0636 -2.7562 -0.1079
50760SOL    HW264005   3.003   8.058   9.132  0.5790 -0.6269  0.4725
50761SOL     OW64006   5.225  10.962   7.901  0.3516  0.1910  0.1870
50761SOL    HW164007   5.151  10.901   7.895  1.3487 -0.9493 -1.0682
50761SOL    HW264008   5.266  10.941   7.985 -1.0293  1.2282  1.1733
50762SOL     OW64009   8.287   6.095   2.928 -0.4493  0.4444 -0.3235
50762SOL    HW164010   8.286   6.158   2.856 -0.0036  0.6542 -0.1442
50762SOL    HW264011   8.248   6.141   3.002  1.1626  1.0049  0.2152
50763SOL     OW64012   9.231   9.710   5.125 -0.2408 -0.1805 -0.5492
50763SOL    HW164013   9.268   9.719   5.037 -0.4195 -0.0057 -0.6083
50763SOL    HW264014   9.216   9.800   5.153  1.1150 -0.1692  0.2249
50764SOL     OW64015   1.099   5.245  10.283 -0.1950 -0.3243  0.1088
50764SOL    HW164016   1.149   5.256  10.202 -0.1246  0.6359  0.2703
50764SOL    HW264017   1.026   5.306  10.274 -0.6991 -0.8785  0.3787
50765SOL     OW64018   6.966   5.494   5.935 -0.3264 -0.4688  0.0084
50765SOL    HW164019   7.013   5.574   5.911  0.1042 -0.1770  1.6775
50765SOL    HW264020   7.035   5.433   5.961 -0.6179 -1.5721 -1.6853
50766SOL     OW64021   4.832  10.800   1.961  0.0714 -0.2569 -0.5431
50766SOL    HW164022   4.845  10.737   2.032  0.2757  0.0467 -0.3074
50766SOL    HW264023   4.820  10.746   1.883 -2.0133 -0.6570 -0.0101
50767SOL     OW64024   0.719   5.446   5.702 -0.1693  0.4245  0.6555
50767SOL    HW164025   0.644   5.486   5.746  0.0590 -0.4311  1.8770
50767SOL    HW264026   0.728   5.495   5.620  0.1450  2.8928  2.0905
50768SOL     OW64027   2.054   3.694   9.425 -0.0816 -0.2278 -0.3036
50768SOL    HW164028   2.060   3.648   9.508 -0.3798 -1.3806 -0.8929
50768SOL    HW264029   1.996   3.640   9.372 -1.6863  1.6108 -0.5434
50769SOL     OW64030   0.683   7.374   5.815  0.0575  0.4394  0.2289
50769SOL    HW164031   0.710   7.366   5.907  0.2697  0.5240  0.1751
50769SOL    HW264032   0.764   7.395   5.768  0.2539 -1.1407 -0.2017
50770SOL     OW64033   8.066  10.886  10.419  0.2192  0.0653 -0.0342
50770SOL    HW164034   8.025  10.931  10.345  0.3317  1.8137  0.9203
50770SOL    HW264035   8.045  10.793  10.406 -2.4243  0.6885 -0.5821
50771SOL     OW64036  11.687   0.734   2.012  0.0897  0.7140  0.3328
50771SOL    HW164037  11.676   0.729   2.106  2.0673 -0.9266  0.5592
50771SOL    HW264038  11.664   0.825   1.989  1.6856  1.8125  2.7239
50772SOL     OW64039   0.988   7.052   7.987 -0.9174  0.4712 -0.4849
50772SOL    HW164040   0.965   6.970   8.030  3.1322 -0.3472  0.5763
50772SOL    HW264041   1.067   7.032   7.938  1.3399  4.0369  1.2320
50773SOL     OW64042  11.149   8.567   6.181  0.3792 -0.1097 -0.4089
50773SOL    HW164043  11.056   8.555   6.198  0.5918 -0.4299  0.6159
50773SOL    HW264044  11.180   8.481   6.154  0.5931 -0.2864  0.3745
50774SOL     OW64045   4.611   2.444   4.845  0.1834 -0.6238 -0.5366
50774SOL    HW164046   4.581   2.481   4.762  0.6941 -0.6299 -0.7295
50774SOL    HW264047   4.660   2.515   4.887 -0.9484 -0.2728  0.2509
50775SOL     OW64048   7.125   9.310   4.182 -0.1803 -0.2562  0.1562
50775SOL    HW164049   7.209   9.265   4.172 -0.7312 -1.4533  0.7424
50775SOL    HW264050   7.059   9.245   4.158 -0.9808  0.3738  0.5897
50776SOL     OW64051   4.377   8.164   1.360 -0.0315  0.1978 -0.0007
50776SOL    HW164052   4.436   8.215   1.304 -0.9271 -0.9007 -2.0361
50776SOL    HW264053   4.310   8.227   1.386  0.0220  0.5740 -0.7337
50777SOL     OW64054   1.702  11.276   2.404  0.5716 -0.2250 -0.5325
50777SOL    HW164055   1.748  11.360   2.409  1.4327 -0.6220 -1.3903
50777SOL    HW264056   1.630  11.284   2.467  1.1470  0.8341  0.0235
50778SOL     OW64057   7.503   0.765   3.787  1.0382 -0.0297 -0.0372
50778SOL    HW164058   7.558   0.833   3.747 -0.5892  0.2187 -1.9639
50778SOL    HW264059   7.547   0.683   3.766  1.2512  0.2289 -0.6095
50779SOL     OW64060   2.646   7.677   2.909 -0.2426 -0.3568  0.0809
50779SOL    HW164061   2.699   7.750   2.878 -0.4744 -0.3159 -0.2291
50779SOL    HW264062   2.701   7.599   2.897 -0.0828 -0.2611  0.1956
50780SOL     OW64063   0.127  11.845   4.522  0.7404  0.3814  0.2518
50780SOL    HW164064   0.091  11.929   4.494  2.7113  1.5503  1.0315
50780SOL    HW264065   0.094  11.782   4.457  1.2695  2.1617 -1.8664
50781SOL     OW64066   3.130  11.324   4.774 -0.3114  0.4258  0.2641
50781SOL    HW164067   3.225  11.336   4.770 -0.1923 -0.1978  1.0864
50781SOL    HW264068   3.105  11.354   4.861 -0.8440  0.3636  0.1380
50782SOL     OW64069   5.403   1.564   5.927  0.5002 -0.4010 -1.0589
50782SOL    HW164070   5.461   1.618   5.981  0.8928  0.1359 -1.9945
50782SOL    HW264071   5.430   1.474   5.946  1.6898 -0.1641 -1.4905
50783SOL     OW64072   5.312  11.150   5.661  0.6964 -0.0327 -0.0000
50783SOL    HW164073   5.310  11.159   5.757  1.6122 -1.4422  0.1850
50783SOL    HW264074   5.239  11.092   5.641  1.3875 -0.9381  0.0284
50784SOL     OW64075  10.785   8.518  10.473 -0.0044  0.3921 -0.5763
50784SOL    HW164076  10.696   8.530  10.440 -0.9807 -0.5156  1.5333
50784SOL    HW264077  10.832   8.476  10.401 -0.9569  1.8153 -2.0939
50785SOL     OW64078   1.297   2.861   0.033  0.1368  0.0683  0.1383
50785SOL    HW164079   1.326   2.952   0.025 -1.9804  0.7706 -0.0374
50785SOL    HW264080   1.378   2.812   0.049  1.2133  2.1075  1.3907
50786SOL     OW64081   4.190   4.813   5.554  0.3179 -0.3937  0.1342
50786SOL    HW164082   4.271   4.805   5.503  0.1621  0.7163 -0.2938
50786SOL    HW264083   4.138   4.737   5.527  0.9779 -0.8099 -0.0067
50787SOL     OW64084  10.600   5.390   5.890  0.0329 -0.7150 -0.0999
50787SOL    HW164085  10.685   5.349   5.874  0.5876  0.2024  0.3979
50787SOL    HW264086  10.597   5.463   5.827  0.0113 -0.2023  0.4895
50788SOL     OW64087   1.047   2.248   7.586 -0.1182  0.3693  0.3646
50788SOL    HW164088   1.112   2.232   7.518 -1.7601 -0.2851 -1.1247
50788SOL    HW264089   1.086   2.315   7.642  1.9997 -0.3272 -0.1962
50789SOL     OW64090   6.301   1.719   3.802 -0.1569 -0.0674 -0.1645
50789SOL    HW164091   6.233   1.697   3.739  0.3913 -0.5981 -0.5769
50789SOL    HW264092   6.372   1.658   3.784  0.9576  1.2994 -0.5982
50790SOL     OW64093   2.541   5.147   1.975 -0.1904 -0.5543  0.6152
50790SOL    HW164094   2.569   5.235   2.000 -0.0411 -0.4408  0.0571
50790SOL    HW264095   2.539   5.148   1.879 -1.3450 -0.7978  0.6124
50791SOL     OW64096   4.816   1.824   6.030  0.3679 -0.5403  0.3784
50791SOL    HW164097   4.795   1.875   6.108  1.2472 -1.1972  1.0657
50791SOL    HW264098   4.751   1.754   6.029 -2.8632  2.1470 -2.2584
50792SOL     OW64099   2.308   6.847   0.677  0.0934  0.5059  0.0211
50792SOL    HW164100   2.241   6.906   0.643  0.3444  0.7342 -0.0880
50792SOL    HW264101   2.260   6.772   0.711 -0.1151 -0.0980 -1.5527
50793SOL     OW64102   5.554   3.472   8.844  0.4419 -0.1658  0.2560
50793SOL    HW164103   5.604   3.402   8.886  0.5549 -0.9549 -1.1544
50793SOL    HW264104   5.470   3.431   8.822 -0.1349  0.6267  0.9110
50794SOL     OW64105   1.075  11.222   4.215 -0.0179  0.4549 -0.4296
50794SOL    HW164106   0.980  11.219   4.201  0.0911  0.4532 -1.2581
50794SOL    HW264107   1.100  11.309   4.185  0.4045  0.0119 -1.4105
50795SOL     OW64108   5.606   3.363   7.895  0.2436 -0.7102  0.0781
50795SOL    HW164109   5.656   3.403   7.966 -0.8036  1.5291 -0.3608
50795SOL    HW264110   5.520   3.345   7.932  0.1679 -0.9649 -0.2121
50796SOL     OW64111   6.042   7.955   0.294 -0.6261  0.4336 -0.1976
50796SOL    HW164112   6.088   7.933   0.376  1.4898 -0.3806 -1.5137
50796SOL    HW264113   5.967   7.896   0.293  0.5927 -1.2049  0.1280
50797SOL     OW64114   8.388  10.347   5.653  0.2851  0.1198 -0.2499
50797SOL    HW164115   8.381  10.407   5.578  0.7087  1.1089  0.4797
50797SOL    HW264116   8.480  10.348   5.676 -0.0573  1.0972  1.2696
50798SOL     OW64117   4.539   4.809   7.831 -0.0184  0.0790  0.3210
50798SOL    HW164118   4.539   4.769   7.918  1.0759  1.8593  1.1774
50798SOL    HW264119   4.606   4.760   7.783 -1.4550 -1.7134  0.0376
50799SOL     OW64120   1.210  10.266   5.084 -0.2987 -0.0276  0.3991
50799SOL    HW164121   1.198  10.171   5.085  4.1712 -0.8244  0.7488
50799SOL    HW264122   1.135  10.299   5.035 -1.6497 -3.8067 -0.4333
50800SOL     OW64123   5.761   4.316   9.220 -0.1808  0.1308 -0.8374
50800SOL    HW164124   5.686   4.297   9.163  0.0090  0.4309 -1.1886
50800SOL    HW264125   5.770   4.238   9.274 -1.0014  0.2457 -0.5139
50801SOL     OW64126   5.936   1.518   4.695 -0.1407  0.1259  0.7854
50801SOL    HW164127   5.892   1.550   4.616 -1.2487  1.4524  1.8887
50801SOL    HW264128   5.987   1.443   4.665 -0.3277  0.7456 -1.2367
50802SOL     OW64129  11.512   5.408   3.695 -0.2657  0.1216  0.2796
50802SOL    HW164130  11.596   5.362   3.688 -0.3299  0.1101 -0.4606
50802SOL    HW264131  11.469   5.394   3.611 -1.5859 -0.9664  1.0916
50803SOL     OW64132  11.362   0.563  11.840  0.3730  0.0386 -0.2054
50803SOL    HW164133  11.400   0.587  11.756  1.0043  1.9769  0.5779
50803SOL    HW264134  11.438   0.546  11.896  0.0756  1.4639  0.6896
50804SOL     OW64135  11.811   5.704   7.823  0.3586  0.4311 -0.0091
50804SOL    HW164136  11.854   5.780   7.863  0.4876  0.8588 -0.9204
50804SOL    HW264137  11.798   5.730   7.731 -0.3679 -0.3229 -0.1318
50805SOL     OW64138   8.257   3.717   4.137  0.4557 -0.8878 -0.2666
50805SOL    HW164139   8.201   3.684   4.066  1.5918 -1.4822 -0.9026
50805SOL    HW264140   8.264   3.644   4.199  0.4007 -0.7558 -0.1017
50806SOL     OW64141   3.400   7.851   6.602  0.1811 -0.2421  0.1268
50806SOL    HW164142   3.343   7.800   6.544 -0.6623  0.1706  0.5767
50806SOL    HW264143   3.363   7.939   6.600  0.0669 -0.2425  1.3670
50807SOL     OW64144   1.638   0.446   4.165  0.0759 -0.1441 -0.3690
50807SOL    HW164145   1.550   0.456   4.127  0.1093 -1.8906 -0.9974
50807SOL    HW264146   1.657   0.532   4.203 -1.7391  0.3965 -0.5549
50808SOL     OW64147   1.051   5.734  10.353  0.4114  0.6114  0.6390
50808SOL    HW164148   1.034   5.825  10.379  2.5019  1.8270 -1.7973
50808SOL    HW264149   1.042   5.734  10.258 -1.1631 -2.2047  0.6687
50809SOL     OW64150  11.097   1.612   6.346  0.4309  0.2474 -0.3144
50809SOL    HW164151  11.028   1.666   6.384 -0.4732 -1.1711  0.1485
50809SOL    HW264152  11.067   1.594   6.257 -0.1487 -0.9052  0.0951
50810SOL     OW64153   2.005   8.674   4.788 -0.3530 -0.5986 -0.3224
50810SOL    HW164154   2.022   8.582   4.807 -0.7933 -0.5695  0.2216
50810SOL    HW264155   1.969   8.710   4.869 -0.7727 -0.0940 -0.7233
50811SOL     OW64156   4.766  11.344   6.417 -0.3662  0.5878 -0.0961
50811SOL    HW164157   4.839  11.406   6.414  0.4855 -0.4156 -1.1956
50811SOL    HW264158   4.785  11.282   6.346 -0.6683 -1.4995  1.5475
50812SOL     OW64159   7.358   4.992   6.982 -0.0122  0.4268 -0.2212
50812SOL    HW164160   7.298   5.066   6.972  1.8309  1.8118 -2.0855
50812SOL    HW264161   7.303   4.915   6.970 -1.8555  1.4759  0.9029
50813SOL     OW64162   9.977   5.234   5.068 -0.2883  1.0788  0.0419
50813SOL    HW164163   9.906   5.260   5.009 -0.5861  1.0387  0.3756
50813SOL    HW264164  10.037   5.309   5.067  0.3754  0.5626 -1.3048
50814SOL     OW64165   9.318  11.931   2.810 -0.1665 -0.3297  0.0583
50814SOL    HW164166   9.308  12.020   2.845  1.4878  0.1296 -0.5545
50814SOL    HW264167   9.251  11.880   2.856 -0.3132  0.9634  1.3599
50815SOL     OW64168   2.177   1.191   8.049  0.0721 -0.8850 -0.6242
50815SOL    HW164169   2.155   1.149   8.132  1.6984  0.7711  0.7249
50815SOL    HW264170   2.137   1.277   8.054  0.5604 -0.6057 -1.3542
50816SOL     OW64171   9.807   8.072   8.342  0.4638  0.3682 -0.1579
50816SOL    HW164172   9.775   8.090   8.430 -1.2258 -3.1658  0.1273
50816SOL    HW264173   9.881   8.012   8.355 -1.4289 -2.3567 -1.0251
50817SOL     OW64174   2.367   7.752   0.227  0.0030  0.3756 -0.3685
50817SOL    HW164175   2.334   7.810   0.158  0.7038  1.7923  0.4201
50817SOL    HW264176   2.289   7.717   0.269 -0.5110  1.7411 -0.1055
50818SOL     OW64177   8.652   0.052   9.740 -0.1094  0.4315  0.1116
50818SOL    HW164178   8.606  -0.029   9.764  0.9092 -0.3045 -0.2980
50818SOL    HW264179   8.688   0.033   9.653 -1.8212  2.1971 -1.0671
50819SOL     OW64180   6.652   9.747   7.756  0.4558 -0.1862  0.2604
50819SOL    HW164181   6.594   9.776   7.826 -1.0887  0.6017 -1.2536
50819SOL    HW264182   6.598   9.687   7.704  2.1335 -2.1605  0.7007
50820SOL     OW64183   0.894   5.977   8.613 -0.8058  0.4568  0.1379
50820SOL    HW164184   0.883   5.882   8.620  1.1392  0.1495 -0.3232
50820SOL    HW264185   0.836   6.003   8.542  0.0008 -0.6867 -0.9750
50821SOL     OW64186   6.086   5.802  10.088 -0.3264  0.1430 -0.1931
50821SOL    HW164187   6.003   5.760  10.107  0.5376 -1.6319 -0.1594
50821SOL    HW264188   6.077   5.835   9.998 -0.8416 -0.5866 -0.4146
50822SOL     OW64189   4.515  11.786  11.127  0.5707 -0.1957 -0.2382
50822SOL    HW164190   4.443  11.828  11.079  0.5901  1.2213  0.9119
50822SOL    HW264191   4.476  11.708  11.166 -0.2941  0.4033  0.1332
50823SOL     OW64192  11.756   8.339   4.622  0.7324  0.2866 -0.5218
50823SOL    HW164193  11.814   8.264   4.608 -0.1042 -0.4823  0.0174
50823SOL    HW264194  11.745   8.377   4.535  0.2117 -0.9539 -1.0340
50824SOL     OW64195   3.595   5.999   0.128 -0.3236 -0.2128 -0.3216
50824SOL    HW164196   3.614   6.000   0.034 -0.8131 -0.4689 -0.4217
50824SOL    HW264197   3.501   5.985   0.133 -0.0486 -2.1023  0.2428
50825SOL     OW64198   9.212  10.825   5.083 -0.2333  0.2820 -0.4337
50825SOL    HW164199   9.146  10.834   5.015 -1.2703  0.2668  0.5289
50825SOL    HW264200   9.245  10.914   5.096 -1.2932  0.5949  0.2363
50826SOL     OW64201   6.668   7.373   6.740  0.1766 -0.5706 -0.0175
50826SOL    HW164202   6.609   7.304   6.770  0.7985 -1.2440 -0.2877
50826SOL    HW264203   6.623   7.455   6.761  0.1494 -1.0153  1.8642
50827SOL     OW64204   9.737   4.946   6.333 -0.2840  0.1248  0.9445
50827SOL    HW164205   9.657   4.977   6.377 -1.6321 -0.1019 -1.1877
50827SOL    HW264206   9.731   4.983   6.245  1.1775 -1.1871  0.2531
50828SOL     OW64207  11.957  11.713   8.406 -0.0891 -0.4659  0.1913
50828SOL    HW164208  11.868  11.732   8.375 -0.2811  0.5922  1.3262
50828SOL    HW264209  12.014  11.750   8.339 -0.5081  0.6258  0.4164
50829SOL     OW64210  11.072   5.438  11.569 -0.1938  0.3171 -0.4320
50829SOL    HW164211  11.057   5.504  11.637  2.0034  2.3407 -1.7452
50829SOL    HW264212  11.025   5.361  11.599  2.7139  0.1358  4.7676
50830SOL     OW64213   1.228   5.894   9.690  0.2317  0.4271 -0.2151
50830SOL    HW164214   1.256   5.910   9.599 -0.3895 -0.2353 -0.5289
50830SOL    HW264215   1.191   5.806   9.689  3.1528 -0.9567  1.3933
50831SOL     OW64216   6.614   3.803  11.645  0.0606  0.2744  0.0144
50831SOL    HW164217   6.521   3.784  11.628  0.3084 -0.5199 -0.4741
50831SOL    HW264218   6.661   3.731  11.603  0.8645  0.2642  0.9112
50832SOL     OW64219   7.312   4.769   3.781  0.5016  0.1665  0.1700
50832SOL    HW164220   7.332   4.832   3.851  0.3415  0.8758 -0.4096
50832SOL    HW264221   7.217   4.775   3.770  0.4049 -0.6381  0.5334
50833SOL     OW64222   7.282   3.603   0.460 -0.2986 -0.0517 -0.2795
50833SOL    HW164223   7.280   3.541   0.386 -2.3144  1.3017 -1.4392
50833SOL    HW264224   7.213   3.666   0.441 -1.1319  0.1926  2.9644
50834SOL     OW64225   4.255   7.339   7.912 -0.2036 -0.1629  0.1438
50834SOL    HW164226   4.198   7.364   7.985 -1.6001 -0.1932 -0.9110
50834SOL    HW264227   4.290   7.422   7.879 -1.0172  0.0127 -0.2962
50835SOL     OW64228   5.837   7.579  11.676  0.8535 -0.2490  0.1262
50835SOL    HW164229   5.877   7.615  11.597 -0.2572 -0.5654 -0.6141
50835SOL    HW264230   5.774   7.646  11.703  1.7881  0.2084  1.2233
50836SOL     OW64231   6.423  10.872   4.857  0.2368  0.0585 -0.9186
50836SOL    HW164232   6.464  10.791   4.887  0.0952  0.4199  0.3357
50836SOL    HW264233   6.331  10.862   4.879  0.3166  0.7872 -0.2094
50837SOL     OW64234   4.236   8.330   3.831  0.2908 -0.6016  0.1284
50837SOL    HW164235   4.280   8.412   3.854  1.9397 -1.3222 -0.3221
50837SOL    HW264236   4.163   8.324   3.892  0.9643  0.5301  1.0870
50838SOL     OW64237   4.722   1.593   1.646 -0.1917 -0.1783 -0.2522
50838SOL    HW164238   4.739   1.684   1.624 -0.3090 -0.0090  0.3451
50838SOL    HW264239   4.667   1.597   1.725  1.7183 -0.7723  1.1775
50839SOL     OW64240   7.640   7.979   4.949 -0.0319 -0.4151 -0.2302
50839SOL    HW164241   7.707   7.944   5.008  0.9936  1.1992 -0.3779
50839SOL    HW264242   7.558   7.945   4.984  0.8741 -3.6193 -0.8474
50840SOL     OW64243   0.980   3.201   2.309  0.3864  0.0131 -0.7123
50840SOL    HW164244   0.893   3.165   2.327  1.0200 -0.8543  0.8232
50840SOL    HW264245   0.983   3.212   2.214 -1.5258  0.4198 -0.7595
50841SOL     OW64246   2.252   8.157   7.965  0.3324 -0.0409  0.0881
50841SOL    HW164247   2.257   8.201   8.049 -0.0777 -0.4971  0.3548
50841SOL    HW264248   2.186   8.206   7.916  1.8536  1.3599 -0.6655
50842SOL     OW64249   9.571  11.588   9.760 -0.6514 -0.4133  0.2320
50842SOL    HW164250   9.603  11.650   9.826  2.1919 -0.5770 -0.8218
50842SOL    HW264251   9.552  11.508   9.808  1.4844 -0.5718  0.9241
50843SOL     OW64252   8.783   3.614  11.561 -0.2565  0.1200 -0.5005
50843SOL    HW164253   8.695   3.594  11.594  0.5517 -0.9038  1.2073
50843SOL    HW264254   8.768   3.662  11.480 -2.4253  2.3860  1.0717
50844SOL     OW64255  11.379   1.282   2.632 -0.3344 -0.1489  0.4046
50844SOL    HW164256  11.314   1.212   2.635  0.7352 -1.1729  0.4397
50844SOL    HW264257  11.439   1.256   2.563  1.1086 -0.2267  1.6259
50845SOL     OW64258   9.592  11.785   6.362  0.4445  0.0330  0.3621
50845SOL    HW164259   9.549  11.843   6.298 -0.2039 -0.7877  0.0375
50845SOL    HW264260   9.526  11.774   6.431  0.5681 -0.3151  0.4235
50846SOL     OW64261   5.967   7.270   7.482 -0.0552 -0.0390 -0.2522
50846SOL    HW164262   5.892   7.250   7.426 -0.2447  0.3679 -0.1485
50846SOL    HW264263   5.928   7.312   7.560  0.2701  0.0881 -0.1570
50847SOL     OW64264   3.798   7.950   8.055  0.5098  0.4649  0.2452
50847SOL    HW164265   3.841   7.990   8.131  0.1245  1.0941  0.1442
50847SOL    HW264266   3.753   7.874   8.090  2.1591 -0.5585  0.2595
50848SOL     OW64267  11.849   1.048  11.804 -0.0135  0.3119 -0.9690
50848SOL    HW164268  11.887   1.129  11.837  0.5195 -0.0294 -0.7265
50848SOL    HW264269  11.921   1.003  11.761 -0.1264 -0.3556 -0.4815
50849SOL     OW64270   0.141   7.263   7.034  0.1695 -0.6199 -0.2085
50849SOL    HW164271   0.091   7.241   7.112 -0.2463  1.1089  0.0507
50849SOL    HW264272   0.232   7.240   7.055 -0.2089 -1.9476  0.0425
50850SOL     OW64273   0.040   2.278   7.652  0.6316  0.2311  0.3464
50850SOL    HW164274   0.105   2.316   7.592 -0.6784  1.8399 -0.1017
50850SOL    HW264275  -0.007   2.353   7.688 -1.6000 -0.8994 -0.0334
50851SOL     OW64276  11.839   8.684   6.874 -0.0423  0.3959  0.2628
50851SOL    HW164277  11.868   8.639   6.795 -1.2812  0.9200 -0.5172
50851SOL    HW264278  11.750   8.651   6.888 -1.1405  2.8395 -0.5462
50852SOL     OW64279   6.358   9.292   8.832  0.0125  0.2017  1.0419
50852SOL    HW164280   6.300   9.258   8.900  1.8387 -3.5296  0.9802
50852SOL    HW264281   6.444   9.257   8.854  1.3093  1.5187 -1.4689
50853SOL     OW64282   4.889   4.608   5.614  0.3865  0.1599  0.0503
50853SOL    HW164283   4.867   4.549   5.686 -0.0102  0.6175  0.3127
50853SOL    HW264284   4.817   4.672   5.613  1.3312  1.2531  0.4551
50854SOL     OW64285   6.777   5.761   8.154 -0.2740  0.4697 -0.1995
50854SOL    HW164286   6.771   5.672   8.188 -1.5274  0.4962 -0.3117
50854SOL    HW264287   6.836   5.753   8.078 -0.7971 -0.3675 -0.5348
50855SOL     OW64288   1.550   1.912   6.571 -0.1115  0.4061  0.2494
50855SOL    HW164289   1.602   1.861   6.510  0.1242  0.2812  0.5505
50855SOL    HW264290   1.580   1.884   6.658 -0.8178  0.1818  0.4341
50856SOL     OW64291   2.940   1.139   7.050  0.1325  0.1412 -0.1022
50856SOL    HW164292   3.011   1.197   7.022 -0.7186  1.5173  0.4759
50856SOL    HW264293   2.984   1.069   7.098  1.1891  0.3485 -0.7401
50857SOL     OW64294   9.865   8.529   9.321 -0.2629  0.0205 -0.2122
50857SOL    HW164295   9.950   8.518   9.278 -0.8480 -0.7019 -1.2661
50857SOL    HW264296   9.879   8.594   9.389  1.1801 -0.2562 -0.2257
50858SOL     OW64297   2.799   5.356  10.133 -0.7232  0.4869  0.5889
50858SOL    HW164298   2.780   5.409  10.054  0.8265 -0.4382 -0.4527
50858SOL    HW264299   2.740   5.281  10.126  1.0583 -0.8698 -1.0817
50859SOL     OW64300   4.221   3.399   5.952 -0.2075 -0.5059 -0.3071
50859SOL    HW164301   4.289   3.384   5.886  0.3538  1.2535 -0.1830
50859SOL    HW264302   4.182   3.483   5.928 -1.6602 -0.9826  0.2319
50860SOL     OW64303   4.963   2.103   7.188  0.1407  0.0822  0.4545
50860SOL    HW164304   4.904   2.052   7.134  1.6819 -2.1786  0.7861
50860SOL    HW264305   4.925   2.191   7.188 -2.6585 -1.0119 -0.1088
50861SOL     OW64306   4.050  10.643   7.466  0.2872  0.0981 -0.5515
50861SOL    HW164307   4.132  10.658   7.515  1.1502  0.1587 -1.9602
50861SOL    HW264308   4.077  10.639   7.375 -1.3921  0.8356 -1.1223
50862SOL     OW64309   2.703   1.960  11.742  0.4276 -0.1100 -0.1857
50862SOL    HW164310   2.794   1.950  11.771 -0.0158 -2.0555  0.6899
50862SOL    HW264311   2.703   1.924  11.653  0.4253 -0.6183  0.0148
50863SOL     OW64312   0.389   5.135   9.661  0.3021  0.0648  0.4892
50863SOL    HW164313   0.465   5.179   9.623 -0.3375 -0.5139 -1.5517
50863SOL    HW264314   0.415   5.044   9.669 -0.1977 -0.1536 -0.3050
50864SOL     OW64315   3.751   2.925   2.481 -0.3421 -0.2909 -0.4719
50864SOL    HW164316   3.809   2.908   2.407 -0.2090  0.4802 -0.5519
50864SOL    HW264317   3.809   2.935   2.556 -0.4008  0.0286 -0.4673
50865SOL     OW64318   4.306   2.125   5.680 -0.0544  0.2617 -0.0644
50865SOL    HW164319   4.377   2.159   5.625  0.6002  0.0741  0.6394
50865SOL    HW264320   4.260   2.203   5.711  0.1472  0.4103 -0.1374
50866SOL     OW64321  10.090   7.073  11.351 -0.5131 -0.2568 -0.3408
50866SOL    HW164322  10.080   6.997  11.294  1.5718 -0.9967  0.2157
50866SOL    HW264323  10.168   7.055  11.402  0.2439  2.4085 -0.4172
50867SOL     OW64324   7.091   9.619   1.240 -0.4455  0.0776 -0.0890
50867SOL    HW164325   7.126   9.607   1.328  2.8670 -0.6725 -1.3676
50867SOL    HW264326   7.118   9.708   1.216 -1.2041  0.2240 -0.4324
50868SOL     OW64327   3.348   4.405  11.904 -0.2780  0.1181  0.0906
50868SOL    HW164328   3.437   4.420  11.935 -1.1631  2.2476  1.8872
50868SOL    HW264329   3.358   4.354  11.824  2.5098  0.0506  0.3985
50869SOL     OW64330   7.107  11.245   7.909 -0.0364 -0.4388 -0.0468
50869SOL    HW164331   7.031  11.291   7.874  0.6338 -0.8699 -2.2038
50869SOL    HW264332   7.081  11.153   7.911 -0.2584 -0.3703  1.2110
50870SOL     OW64333   7.758   9.243  10.045 -0.6418 -0.3582 -0.4008
50870SOL    HW164334   7.685   9.299  10.074 -0.1252 -0.7174  1.7535
50870SOL    HW264335   7.717   9.160  10.022 -1.0798 -0.0545 -0.7427
50871SOL     OW64336   1.256   8.236   9.829 -0.1258 -0.0701 -0.0283
50871SOL    HW164337   1.259   8.167   9.762  0.8241  0.7155 -0.8084
50871SOL    HW264338   1.344   8.237   9.866 -0.7286 -0.7298  1.5130
50872SOL     OW64339   6.212   0.629  10.785  0.0183 -0.0695  0.0991
50872SOL    HW164340   6.259   0.591  10.859  0.1973  0.5146  0.2913
50872SOL    HW264341   6.254   0.593  10.708 -1.1718 -1.9241  0.2639
50873SOL     OW64342   7.525  10.468   2.436 -0.2930 -0.0743 -0.3627
50873SOL    HW164343   7.478  10.481   2.519  0.2156 -1.3081  0.1353
50873SOL    HW264344   7.484  10.531   2.376 -1.8017 -0.3081  0.3676
50874SOL     OW64345  10.536   3.386   4.882 -0.0979 -0.0601 -0.0224
50874SOL    HW164346  10.573   3.355   4.965 -0.7144 -1.1491 -0.1399
50874SOL    HW264347  10.442   3.391   4.899 -0.3950 -1.5539 -1.0141
50875SOL     OW64348   2.908   0.299   1.613  0.3515  0.1394  0.0739
50875SOL    HW164349   2.929   0.224   1.668  1.3349  0.2110 -0.1732
50875SOL    HW264350   2.878   0.260   1.531 -1.3875  0.0325  0.7249
50876SOL     OW64351   2.394   4.307   5.762  0.2182  0.3710 -0.0230
50876SOL    HW164352   2.460   4.362   5.719  2.0479 -1.9549 -0.3731
50876SOL    HW264353   2.345   4.267   5.689 -0.7149  1.0212  0.2205
50877SOL     OW64354   2.124   7.000   8.932 -0.3820  0.1664  0.4728
50877SOL    HW164355   2.034   7.019   8.958 -0.5000  0.4155 -0.0845
50877SOL    HW264356   2.161   6.950   9.005 -0.4220  1.5735  1.4999
50878SOL     OW64357   1.376   5.025   5.766 -0.0815 -0.3677  0.0510
50878SOL    HW164358   1.292   5.019   5.722  0.2968  1.4679 -1.0080
50878SOL    HW264359   1.441   5.020   5.696  0.6824 -1.0632  0.7837
50879SOL     OW64360   9.334   0.481   7.482  0.1287  0.1039 -0.0296
50879SOL    HW164361   9.385   0.553   7.518  0.3734 -0.0702 -0.0268
50879SOL    HW264362   9.251   0.484   7.529  0.1393  0.3803 -0.0265
50880SOL     OW64363   1.108   3.366   7.541  0.0887  0.2116 -0.0902
50880SOL    HW164364   1.181   3.325   7.588  1.6617  1.7774 -1.0839
50880SOL    HW264365   1.036   3.364   7.604  1.0129 -1.2149  0.9860
50881SOL     OW64366   4.495  10.912   8.968  0.0676 -0.1480  0.1026
50881SOL    HW164367   4.438  10.983   8.937 -0.2835 -0.0086  1.0369
50881SOL    HW264368   4.535  10.877   8.888 -1.1761 -0.1208 -0.5688
50882SOL     OW64369  10.443   3.910   0.567  0.3249  0.4177  0.1968
50882SOL    HW164370  10.438   3.975   0.497 -0.6450 -2.5448 -2.7607
50882SOL    HW264371  10.535   3.887   0.572  0.5780  1.5067  0.8196
50883SOL     OW64372   9.547   9.699   8.728  0.2474  0.4643 -0.0973
50883SOL    HW164373   9.516   9.783   8.694 -0.9270  0.0585 -0.0760
50883SOL    HW264374   9.469   9.644   8.730  1.0726 -0.7555 -0.4685
50884SOL     OW64375   4.217  10.391   5.216  0.6090  0.0249  0.0420
50884SOL    HW164376   4.261  10.460   5.166  2.0453 -2.5373 -2.4768
50884SOL    HW264377   4.149  10.358   5.158 -0.6314 -0.1860  1.5453
50885SOL     OW64378  11.607   5.613   3.406  0.6523  0.6415  0.2807
50885SOL    HW164379  11.525   5.575   3.375  0.5091  0.7043  0.5740
50885SOL    HW264380  11.581   5.670   3.478  0.8415  1.4799 -0.3036
50886SOL     OW64381  11.884   3.491  11.752 -0.0436 -0.0588 -0.5758
50886SOL    HW164382  11.926   3.409  11.777  1.0679  0.6768  0.0678
50886SOL    HW264383  11.791   3.477  11.772 -0.0885 -1.6078 -1.7388
50887SOL     OW64384   8.385   1.832   6.807 -1.3084  0.6601  0.5392
50887SOL    HW164385   8.309   1.853   6.754 -1.3572 -0.8227 -0.0197
50887SOL    HW264386   8.424   1.917   6.827 -1.6260  1.2994 -1.3468
50888SOL     OW64387   1.267   1.747  11.200 -1.3241  0.0665  0.2437
50888SOL    HW164388   1.348   1.781  11.239 -1.9892  2.8403 -0.6076
50888SOL    HW264389   1.252   1.802  11.123 -3.5013 -1.0387 -0.1938
50889SOL     OW64390   4.803   5.748  11.193  0.1232  0.3291  0.5796
50889SOL    HW164391   4.752   5.827  11.208 -2.1748 -0.8538 -0.4546
50889SOL    HW264392   4.813   5.709  11.280 -1.5996  0.1308  0.7161
50890SOL     OW64393   9.083   6.279   3.853 -0.4847 -0.3194 -0.1185
50890SOL    HW164394   9.031   6.345   3.806  0.0743  0.3414  0.1668
50890SOL    HW264395   9.085   6.204   3.794 -0.9062  0.0122 -0.5700
50891SOL     OW64396   3.842   6.386   4.392 -0.6521  0.0449  0.3129
50891SOL    HW164397   3.785   6.361   4.319  0.0086  1.0440 -0.5816
50891SOL    HW264398   3.916   6.326   4.387 -0.8445 -0.2033  0.4619
50892SOL     OW64399   7.987   1.499  10.506  1.0048  0.2396  0.2274
50892SOL    HW164400   7.898   1.473  10.529  1.3263 -0.1907  1.0114
50892SOL    HW264401   7.984   1.514  10.411 -0.1097  1.0920  0.3802
50893SOL     OW64402   1.710   0.372  11.779 -0.3796  0.0238 -0.1761
50893SOL    HW164403   1.673   0.333  11.858 -0.1416  1.1314  0.4882
50893SOL    HW264404   1.645   0.353  11.711 -2.1155  1.6898  0.9136
50894SOL     OW64405   1.282  10.550   5.944  0.5867  0.6278  0.5931
50894SOL    HW164406   1.249  10.617   6.004  0.9525  1.5053 -0.1556
50894SOL    HW264407   1.293  10.596   5.861  2.0741 -0.0419  0.3847
50895SOL     OW64408   1.201   3.410  10.537 -0.0287  0.6111  0.2293
50895SOL    HW164409   1.112   3.428  10.506 -0.6542 -1.2777  0.8092
50895SOL    HW264410   1.229   3.492  10.579 -0.2998  2.2381 -2.5143
50896SOL     OW64411   5.628   0.278   9.866  0.8286  0.5431  0.4475
50896SOL    HW164412   5.535   0.292   9.885  0.9263 -1.1365  2.4888
50896SOL    HW264413   5.651   0.199   9.915  2.6425 -0.8477 -2.3597
50897SOL     OW64414   3.953   3.440   9.762  0.4995  0.0431  0.5495
50897SOL    HW164415   3.889   3.374   9.736 -0.6424  1.2631  0.1061
50897SOL    HW264416   4.034   3.392   9.776  0.2887 -1.1640 -1.9260
50898SOL     OW64417  11.046   9.764   3.647  1.0287 -0.6099  0.2800
50898SOL    HW164418  10.997   9.787   3.726  0.8938 -0.5551  0.1792
50898SOL    HW264419  11.127   9.723   3.680  0.7113 -1.1223  0.4349
50899SOL     OW64420   3.343   0.782   7.324 -0.0486 -0.1293  0.1747
50899SOL    HW164421   3.356   0.791   7.230 -1.5876  0.0410 -0.0501
50899SOL    HW264422   3.324   0.871   7.354  0.2400 -0.2141  0.6283
50900SOL     OW64423   1.986   9.765   1.121 -0.7743  0.1086  0.3555
50900SOL    HW164424   1.957   9.743   1.209 -1.0079 -1.8472 -0.1593
50900SOL    HW264425   2.076   9.733   1.117 -1.1195 -0.8279 -0.4301
50901SOL     OW64426   1.781   9.868  11.899  0.2072  0.3229  0.2894
50901SOL    HW164427   1.734   9.816  11.965  1.0097 -0.1096  0.5332
50901SOL    HW264428   1.713   9.921  11.858 -0.2521  1.0478  1.8710
50902SOL     OW64429   2.318   5.428   4.898 -0.1565 -0.2656  0.5105
50902SOL    HW164430   2.366   5.421   4.980 -0.9556  0.2640  1.0348
50902SOL    HW264431   2.358   5.503   4.854  0.9107 -1.1255 -0.0388
50903SOL     OW64432   4.158   7.570   7.639  0.1539  0.2097 -0.2024
50903SOL    HW164433   4.090   7.516   7.598 -0.5658 -0.0341  1.2473
50903SOL    HW264434   4.117   7.656   7.651  0.6030  0.4909 -0.6296
50904SOL     OW64435   8.199   5.062   6.978  0.6368  0.3916  0.2694
50904SOL    HW164436   8.153   5.064   7.062 -0.6162  1.6027 -0.4017
50904SOL    HW264437   8.258   5.137   6.981  0.5287  0.4870  0.0384
50905SOL     OW64438   0.152   4.632  11.540 -0.1495  0.0923  0.4341
50905SOL    HW164439   0.223   4.697  11.542 -0.4675  0.4660  0.0036
50905SOL    HW264440   0.113   4.643  11.453 -1.7331  0.9676  1.2226
50906SOL     OW64441  11.175   5.785   5.025  0.0120  0.2789 -0.0205
50906SOL    HW164442  11.208   5.836   5.099 -1.4099  0.7905  0.2876
50906SOL    HW264443  11.124   5.715   5.065 -0.6312  0.4613 -0.5059
50907SOL     OW64444   2.338   6.841   2.258  0.4879  0.5640 -0.1273
50907SOL    HW164445   2.269   6.859   2.322  1.1950 -1.1936  1.2176
50907SOL    HW264446   2.330   6.912   2.194 -2.2665  0.6775  0.1960
50908SOL     OW64447   5.671   2.896   3.464 -0.1796  0.2918 -0.4133
50908SOL    HW164448   5.577   2.905   3.478  0.0049 -0.1840  1.3639
50908SOL    HW264449   5.683   2.802   3.447 -0.0617  0.4229 -1.0879
50909SOL     OW64450   0.979   9.944  10.007 -0.4872  0.0233  0.1506
50909SOL    HW164451   0.962  10.037  10.024  1.1055  0.3020  0.3495
50909SOL    HW264452   0.958   9.900  10.089 -0.5943  0.2870  0.2653
50910SOL     OW64453   8.134   1.683   1.467 -0.4494 -0.5234 -0.0697
50910SOL    HW164454   8.088   1.729   1.396  1.1982 -0.7692 -1.3587
50910SOL    HW264455   8.183   1.752   1.512 -2.3069 -0.1884  1.5827
50911SOL     OW64456   5.136   6.489   6.813 -0.2784  0.5302  0.1058
50911SOL    HW164457   5.206   6.423   6.813 -1.4916 -0.8407  1.6948
50911SOL    HW264458   5.098   6.483   6.725 -0.0082 -0.5356  0.0423
50912SOL     OW64459  11.819   9.378   7.710 -0.5344  0.2370 -0.0047
50912SOL    HW164460  11.863   9.458   7.737 -0.6558  0.3176 -0.0473
50912SOL    HW264461  11.764   9.404   7.636 -0.3973  0.0687 -0.1693
50913SOL     OW64462   5.503   6.293  10.784 -0.5024 -0.6364  0.0442
50913SOL    HW164463   5.555   6.329  10.856 -1.2573 -0.8199  0.6979
50913SOL    HW264464   5.556   6.309  10.706  0.2365 -0.2396  0.6110
50914SOL     OW64465   5.972   1.679   4.289  0.1491  0.1828 -0.0848
50914SOL    HW164466   5.910   1.699   4.219 -0.6085 -0.6676  0.3243
50914SOL    HW264467   6.025   1.607   4.253 -0.5414 -0.5694  0.3624
50915SOL     OW64468   8.101   5.245   7.602  0.4283  0.3299  0.2740
50915SOL    HW164469   8.008   5.221   7.604  0.0256  1.6985 -0.8534
50915SOL    HW264470   8.118   5.284   7.688 -0.2460  0.8444  0.1752
50916SOL     OW64471  10.164   5.130   8.094 -0.2882  0.2611 -0.3350
50916SOL    HW164472  10.237   5.133   8.032  0.1255  2.7775  0.1779
50916SOL    HW264473  10.085   5.131   8.038  0.0581 -0.6099 -0.8551
50917SOL     OW64474   7.571  10.581   3.502 -0.1312  0.0267  0.4525
50917SOL    HW164475   7.572  10.662   3.452 -0.9417 -0.1509  0.1418
50917SOL    HW264476   7.516  10.600   3.578 -1.4228 -0.6146 -0.2944
50918SOL     OW64477  11.198  11.425  11.387  0.5477  0.1176  0.5314
50918SOL    HW164478  11.216  11.347  11.334 -1.2386 -0.1712  0.2523
50918SOL    HW264479  11.284  11.460  11.409  1.3822 -1.3645 -0.1843
50919SOL     OW64480   7.585  11.144   5.569  0.0991 -0.0439 -0.2209
50919SOL    HW164481   7.621  11.226   5.602  0.6686 -0.2369 -0.3449
50919SOL    HW264482   7.503  11.168   5.527  1.3261  0.8120 -2.2632
50920SOL     OW64483   7.943   3.564   6.640 -0.0538 -0.2987 -0.2987
50920SOL    HW164484   7.906   3.498   6.700  0.5379  0.9979  1.5917
50920SOL    HW264485   7.876   3.575   6.572  0.5712 -4.0889 -1.7473
50921SOL     OW64486   3.669   9.263   9.503 -0.3732  0.0516  0.5678
50921SOL    HW164487   3.706   9.175   9.511 -0.8103 -0.0982  0.9756
50921SOL    HW264488   3.745   9.322   9.506 -0.1838 -0.2379  1.6691
50922SOL     OW64489   1.462   1.580   4.957 -0.3995 -0.5530  0.3114
50922SOL    HW164490   1.508   1.523   4.897  0.9176  0.3434  0.4344
50922SOL    HW264491   1.469   1.537   5.042 -0.8849 -1.0248  0.1207
50923SOL     OW64492   9.424   5.329   9.021  0.1429  0.9144  0.3199
50923SOL    HW164493   9.419   5.259   8.956  0.8121  0.4175  0.8009
50923SOL    HW264494   9.458   5.287   9.100  0.8406  1.8305  0.5260
50924SOL     OW64495   6.890   7.413   2.112  0.2368  0.4815  0.8653
50924SOL    HW164496   6.964   7.358   2.088 -0.4065  0.6596 -1.7697
50924SOL    HW264497   6.922   7.502   2.100 -0.3262  0.5615 -0.0795
50925SOL     OW64498   5.973   0.013   4.936  0.2484  0.4907 -0.1245
50925SOL    HW164499   5.910   0.044   4.871  0.3741 -2.0138 -1.5696
50925SOL    HW264500   5.919  -0.013   5.011 -0.4629 -1.2541 -1.1910
50926SOL     OW64501   6.266   8.343   6.732 -0.0767 -0.1532 -0.2176
50926SOL    HW164502   6.300   8.305   6.652  0.6263  0.6055 -0.2952
50926SOL    HW264503   6.184   8.385   6.706 -0.3117 -0.6830 -0.3449
50927SOL     OW64504   7.032   9.852  11.009  0.0435  0.7838 -0.1551
50927SOL    HW164505   7.055   9.934  11.052  1.1160  1.0213 -1.1288
50927SOL    HW264506   7.116   9.817  10.978 -0.5134 -0.1650 -0.6425
50928SOL     OW64507   3.693   2.598  11.549 -0.4860  0.5782  0.2638
50928SOL    HW164508   3.629   2.586  11.620 -0.5406  0.4585  0.1954
50928SOL    HW264509   3.706   2.510  11.513  1.2787  0.2361  1.6159
50929SOL     OW64510   8.678   5.166   7.922 -0.4911 -0.5939 -0.3817
50929SOL    HW164511   8.733   5.194   7.848  1.1069 -1.9885  0.2200
50929SOL    HW264512   8.729   5.098   7.965 -2.5605 -1.7025  0.4566
50930SOL     OW64513   0.708   6.584   0.042 -0.4290  0.0037  0.1162
50930SOL    HW164514   0.657   6.534  -0.022 -0.0745 -1.7060  1.0956
50930SOL    HW264515   0.649   6.599   0.115 -0.7795  1.8051 -0.4812
50931SOL     OW64516   7.149   3.533   9.346  0.1465  0.4097  0.0293
50931SOL    HW164517   7.155   3.622   9.380 -0.2868  0.4547 -0.0082
50931SOL    HW264518   7.059   3.505   9.366  0.5750 -0.3783  0.9308
50932SOL     OW64519   0.386   3.364   0.198 -0.2107  0.2714  0.2691
50932SOL    HW164520   0.444   3.319   0.137 -0.3017  0.2242  0.2180
50932SOL    HW264521   0.339   3.294   0.243 -1.8398  0.3128 -1.2270
50933SOL     OW64522   9.326   0.182   6.952 -0.3077 -0.9806 -0.2161
50933SOL    HW164523   9.353   0.110   6.896  0.3480 -0.1126 -1.0436
50933SOL    HW264524   9.399   0.195   7.013  0.0189 -0.3588 -0.7327
50934SOL     OW64525   7.133   6.626   6.847  0.0177 -0.2758  0.2508
50934SOL    HW164526   7.165   6.551   6.896  0.4343 -0.9509 -1.0137
50934SOL    HW264527   7.044   6.641   6.880  0.5894 -0.1406  1.8111
50935SOL     OW64528   7.792   8.371   5.199 -0.3733  0.2249 -0.1016
50935SOL    HW164529   7.728   8.423   5.150  0.3956 -0.7418 -2.2448
50935SOL    HW264530   7.870   8.426   5.203 -0.2309  0.0642 -0.5611
50936SOL     OW64531   0.269   5.771   8.423  0.5046  0.3071  0.3146
50936SOL    HW164532   0.313   5.857   8.427  1.7430 -0.2269 -0.8910
50936SOL    HW264533   0.206   5.780   8.351  2.6261 -0.5731 -1.8112
50937SOL     OW64534   7.750   6.750   0.307 -0.2277  0.4387  0.0583
50937SOL    HW164535   7.752   6.846   0.316 -2.4286  0.4633  0.9285
50937SOL    HW264536   7.803   6.732   0.230  0.4692  2.3351  0.0370
50938SOL     OW64537   0.495   3.759   4.282 -0.3319 -0.1148 -0.4975
50938SOL    HW164538   0.585   3.780   4.309  0.6493 -2.0811 -1.9275
50938SOL    HW264539   0.474   3.824   4.216  0.5683 -0.4024 -1.0887
50939SOL     OW64540   3.039   1.085  11.723  0.1345  0.5603 -0.2806
50939SOL    HW164541   3.008   1.166  11.764 -1.7352 -0.2365 -0.0290
50939SOL    HW264542   3.121   1.065  11.769 -0.8367  0.8032  1.6952
50940SOL     OW64543   5.165  10.395   1.842  0.2187  0.2507  0.6418
50940SOL    HW164544   5.229  10.465   1.856  0.1846  0.2961  0.5709
50940SOL    HW264545   5.182  10.363   1.754  0.0331  0.3796  0.5580
50941SOL     OW64546   2.197   9.388   7.079 -0.4751  0.3539  0.0299
50941SOL    HW164547   2.222   9.302   7.046  1.9977  0.0094  2.3750
50941SOL    HW264548   2.256   9.449   7.034 -0.3591  0.4625  0.3231
50942SOL     OW64549   2.492   3.298   1.549 -0.8772  0.5610 -0.2869
50942SOL    HW164550   2.481   3.236   1.621  1.5937 -0.7133 -0.8780
50942SOL    HW264551   2.463   3.250   1.471  1.1750 -0.0013 -0.7685
50943SOL     OW64552   0.064   6.259   2.324  0.3201  0.3286  0.5257
50943SOL    HW164553   0.076   6.254   2.229  0.2520  0.0368  0.5310
50943SOL    HW264554  -0.016   6.208   2.340  0.5747  0.0152  0.7900
50944SOL     OW64555   0.567  10.792   8.976 -0.4949 -0.6145  0.6710
50944SOL    HW164556   0.635  10.727   8.991  0.3186 -0.4618 -1.8787
50944SOL    HW264557   0.521  10.761   8.898  0.3278  2.0910 -1.0346
50945SOL     OW64558   2.846   7.794   3.168 -0.3250  0.5517  0.0974
50945SOL    HW164559   2.786   7.832   3.103 -0.3356 -1.0045 -0.8687
50945SOL    HW264560   2.813   7.825   3.252  0.5443  3.8740 -0.6084
50946SOL     OW64561   2.515   6.446   7.476  0.1299  0.3104 -0.1564
50946SOL    HW164562   2.524   6.469   7.383  0.0077 -1.4855 -0.6555
50946SOL    HW264563   2.586   6.494   7.519 -0.2812  1.7790 -1.0332
50947SOL     OW64564  10.270  11.106   8.630  0.4142 -0.7108  0.5545
50947SOL    HW164565  10.275  11.193   8.591 -0.6625 -0.5284  0.7946
50947SOL    HW264566  10.187  11.105   8.677  0.1155 -2.0749  0.0550
50948SOL     OW64567   6.945   3.546  10.263 -0.3595  0.6268  0.5343
50948SOL    HW164568   6.953   3.616  10.197  2.5694  0.3175  0.4628
50948SOL    HW264569   6.999   3.575  10.336  3.7533 -2.8495 -0.7638
50949SOL     OW64570   6.114   9.204   0.478 -0.7070 -0.6279  0.2753
50949SOL    HW164571   6.087   9.138   0.542  0.6290 -0.8982  0.5871
50949SOL    HW264572   6.119   9.285   0.528 -0.0618 -0.7611  0.4411
50950SOL     OW64573   8.474   1.843   2.256  0.2716 -0.3781  0.8589
50950SOL    HW164574   8.439   1.756   2.275 -1.6578  0.6745  2.5240
50950SOL    HW264575   8.460   1.892   2.337  1.7884  1.3685  0.1342
50951SOL     OW64576   9.500   6.543   9.125  0.0736 -0.1851  0.3454
50951SOL    HW164577   9.573   6.489   9.095 -0.4502 -1.3014  1.0002
50951SOL    HW264578   9.423   6.507   9.080 -0.1253  0.7950 -0.1241
50952SOL     OW64579  10.497   1.702   0.587 -0.3717 -0.1669  0.2627
50952SOL    HW164580  10.415   1.654   0.598 -1.8154  2.2915  0.7692
50952SOL    HW264581  10.501   1.722   0.494  0.4720 -1.5641 -0.0365
50953SOL     OW64582   6.945   8.409  10.755 -0.1160 -0.1985 -0.0771
50953SOL    HW164583   6.947   8.316  10.780  1.6910 -0.6005 -1.5210
50953SOL    HW264584   6.884   8.449  10.817 -1.7739 -2.5352 -0.0728
50954SOL     OW64585   5.672   0.897   9.647  0.0770 -0.3302 -0.2484
50954SOL    HW164586   5.741   0.840   9.681 -0.2492 -0.5270  0.0912
50954SOL    HW264587   5.686   0.981   9.690 -0.7215 -0.7559  0.8854
50955SOL     OW64588   3.026   2.346   7.088 -0.0204  0.3702 -0.4045
50955SOL    HW164589   3.024   2.436   7.056 -0.2614  0.5184  0.0354
50955SOL    HW264590   2.957   2.341   7.154 -0.5006 -0.3349 -0.9420
50956SOL     OW64591   9.229   1.258   8.437  0.2098  0.6299 -0.0288
50956SOL    HW164592   9.158   1.300   8.389  0.1111 -1.0906 -1.4814
50956SOL    HW264593   9.193   1.173   8.463  0.9238  0.7439  1.4621
50957SOL     OW64594   1.721   2.701   6.123  0.3146  0.3749  0.0242
50957SOL    HW164595   1.796   2.689   6.066  0.7254  2.3017  0.0982
50957SOL    HW264596   1.667   2.766   6.079  0.6059  1.8594  1.7297
50958SOL     OW64597   2.805   3.140  10.885 -0.3179  0.0725  0.0572
50958SOL    HW164598   2.873   3.089  10.841 -0.2557 -0.3017  0.5747
50958SOL    HW264599   2.723   3.097  10.861 -0.0939 -2.4499  3.1624
50959SOL     OW64600   3.111   6.859   3.160 -0.1283  0.0436 -0.0005
50959SOL    HW164601   3.081   6.783   3.210 -1.6539  1.2434  1.0087
50959SOL    HW264602   3.189   6.828   3.114  0.9966 -1.3347  2.5928
50960SOL     OW64603   8.156   0.263   8.273 -0.0000 -0.0137 -0.2582
50960SOL    HW164604   8.239   0.216   8.286  0.3024  0.5390 -0.1438
50960SOL    HW264605   8.169   0.312   8.192 -0.2077  0.0932 -0.2274
50961SOL     OW64606  11.850   3.592   6.067  0.2661  0.5478  0.2236
50961SOL    HW164607  11.894   3.538   6.133  1.3385  0.3966 -0.5843
50961SOL    HW264608  11.759   3.595   6.095  0.2884 -1.2455  0.5898
50962SOL     OW64609   5.968  10.873   5.023 -0.1361  0.4815  0.1747
50962SOL    HW164610   5.964  10.931   4.946  2.6149  0.3375 -0.1754
50962SOL    HW264611   6.042  10.905   5.073  0.3778 -1.6617  0.8905
50963SOL     OW64612  10.696   0.631   0.315  0.5381 -0.6693 -0.1434
50963SOL    HW164613  10.676   0.537   0.310  0.8498 -0.7080 -0.7393
50963SOL    HW264614  10.762   0.645   0.248 -0.8601  0.3264 -1.3930
50964SOL     OW64615   8.200   1.643   5.508 -0.0175 -0.3574  0.2495
50964SOL    HW164616   8.140   1.652   5.434  0.9873 -2.7903 -0.9931
50964SOL    HW264617   8.143   1.642   5.585 -1.4077 -0.6993 -0.7418
50965SOL     OW64618   3.418  11.158   0.535 -0.0769  0.5667 -0.3425
50965SOL    HW164619   3.364  11.226   0.575 -1.3900 -0.2654 -0.6277
50965SOL    HW264620   3.363  11.121   0.466  1.3149  0.4820 -1.4713
50966SOL     OW64621   8.488   8.006   2.922 -0.1192 -0.1035  0.1005
50966SOL    HW164622   8.473   7.943   2.992  0.7248 -0.9912 -0.5006
50966SOL    HW264623   8.501   8.089   2.968 -2.9728  0.0476  0.8303
50967SOL     OW64624   2.957   7.494   3.955  0.0310 -0.2898 -0.4085
50967SOL    HW164625   2.935   7.587   3.961  1.4488  0.0540 -0.0569
50967SOL    HW264626   2.976   7.481   3.862 -1.6383 -0.6052 -0.7228
50968SOL     OW64627   4.840  10.590   2.625 -0.1474  0.4641 -0.1642
50968SOL    HW164628   4.883  10.674   2.608 -1.3261  1.0884 -0.2116
50968SOL    HW264629   4.844  10.581   2.721  0.7864  0.1131 -0.2273
50969SOL     OW64630   8.658   6.527  11.169  0.2313 -0.3461 -0.4781
50969SOL    HW164631   8.713   6.461  11.127 -0.5480 -0.6823 -0.9844
50969SOL    HW264632   8.636   6.588  11.098 -1.2337 -1.0071 -0.6157
50970SOL     OW64633   7.675   8.756   6.582 -0.2370  0.6212 -0.7162
50970SOL    HW164634   7.712   8.736   6.496 -1.3714 -0.6758 -0.9360
50970SOL    HW264635   7.582   8.772   6.565 -0.7848 -1.0557  0.3988
50971SOL     OW64636   5.236   1.528   4.486  0.0827  0.2135 -0.0628
50971SOL    HW164637   5.294   1.455   4.463 -1.6736 -0.7148 -1.8397
50971SOL    HW264638   5.237   1.585   4.409  0.7108  1.6071  0.9535
50972SOL     OW64639  10.661   1.585  11.285 -0.2369 -0.0788 -0.8729
50972SOL    HW164640  10.652   1.655  11.349  1.5696 -0.3684 -0.2549
50972SOL    HW264641  10.573   1.576  11.247 -1.3450  0.2078  1.4456
50973SOL     OW64642   5.751   2.886   9.550 -0.4835  0.0281 -0.1864
50973SOL    HW164643   5.797   2.932   9.480 -0.6734 -1.9380 -1.6729
50973SOL    HW264644   5.668   2.859   9.511 -0.4783 -1.3522  0.6895
50974SOL     OW64645   0.582   4.577   3.670 -0.3954 -0.1381  0.5009
50974SOL    HW164646   0.543   4.495   3.640 -0.0222  0.1190 -0.7579
50974SOL    HW264647   0.677   4.564   3.662 -0.3499  1.1127 -1.8166
50975SOL     OW64648   9.118   4.818   1.458 -0.4816 -0.1479  0.3665
50975SOL    HW164649   9.197   4.867   1.483 -1.1065 -0.0296  2.2252
50975SOL    HW264650   9.127   4.735   1.505 -0.4822 -0.9771 -1.0606
50976SOL     OW64651   5.258   4.223   7.948  0.0846  0.2225 -0.7627
50976SOL    HW164652   5.210   4.249   7.869 -0.5373 -1.7491 -1.1001
50976SOL    HW264653   5.207   4.260   8.020 -0.3705  0.5157 -1.2277
50977SOL     OW64654  10.076   7.580   5.146 -0.0730 -0.0549  0.2554
50977SOL    HW164655  10.020   7.644   5.191  0.1679  0.2268  0.1566
50977SOL    HW264656  10.064   7.600   5.053 -1.5345 -1.4352  0.1193
50978SOL     OW64657   1.024   5.429   5.757 -0.1031 -0.3900 -0.0779
50978SOL    HW164658   0.945   5.456   5.711 -0.9991 -0.0573  1.5715
50978SOL    HW264659   0.996   5.416   5.847  1.6205 -0.8023  0.4391
50979SOL     OW64660   7.371   4.870   1.834 -0.3306 -0.1786  0.1351
50979SOL    HW164661   7.281   4.865   1.801 -0.7338 -0.5386  1.2422
50979SOL    HW264662   7.372   4.949   1.887  0.0382 -0.1210  0.0433
50980SOL     OW64663   4.603   0.446   9.327  0.0724 -0.1413  0.2724
50980SOL    HW164664   4.581   0.530   9.368  0.6785 -0.0114  0.3365
50980SOL    HW264665   4.625   0.468   9.236  0.0745 -0.2512  0.2461
50981SOL     OW64666   3.975   0.150   4.713 -0.2627 -0.3639 -0.4503
50981SOL    HW164667   3.894   0.184   4.674 -0.6649 -1.3333 -0.4932
50981SOL    HW264668   3.980   0.059   4.682  0.0075 -0.8033  0.8391
50982SOL     OW64669  10.761   8.211   3.555  0.4185  0.3058 -0.1602
50982SOL    HW164670  10.685   8.267   3.538  0.0147 -0.0046  0.5842
50982SOL    HW264671  10.830   8.246   3.498 -0.6504 -0.2347 -1.8777
50983SOL     OW64672   0.256   0.494   6.113 -0.2155  0.8758  0.3474
50983SOL    HW164673   0.161   0.503   6.119 -0.3461 -0.8233  1.6160
50983SOL    HW264674   0.282   0.460   6.198  1.3232 -0.2204 -0.5142
50984SOL     OW64675   2.911   9.480   3.014  0.5037  0.1761  0.0530
50984SOL    HW164676   2.865   9.485   2.930  1.1306  1.0288 -0.2630
50984SOL    HW264677   2.880   9.399   3.054 -2.9680  1.7004  0.8617
50985SOL     OW64678   2.104   4.437   7.947 -0.3135  0.0605 -0.1698
50985SOL    HW164679   2.019   4.398   7.924  0.2807 -3.1031  2.3262
50985SOL    HW264680   2.100   4.448   8.042  2.3127 -0.9205  0.1185
50986SOL     OW64681  10.309   4.120   7.265  0.0046 -0.6055 -0.3665
50986SOL    HW164682  10.333   4.062   7.338  0.1605  1.1134  1.0291
50986SOL    HW264683  10.380   4.184   7.261 -2.7660  3.0535  2.1476
50987SOL     OW64684   4.239   8.630   2.379 -0.0780 -1.1974 -0.6072
50987SOL    HW164685   4.332   8.638   2.358 -0.4256  0.4220 -1.7323
50987SOL    HW264686   4.194   8.660   2.300 -1.5189  0.0537  0.6194
50988SOL     OW64687   4.429   4.025   7.408  0.4897 -0.0068 -0.0710
50988SOL    HW164688   4.494   4.019   7.478  1.3044  0.2012 -0.8092
50988SOL    HW264689   4.477   4.011   7.327 -0.3695  0.2003 -0.6393
50989SOL     OW64690   8.416   6.486   8.510  0.3749 -0.1647  0.0561
50989SOL    HW164691   8.499   6.532   8.497 -0.0598  0.3660 -0.9061
50989SOL    HW264692   8.389   6.459   8.422 -1.0434  0.6691  0.2143
50990SOL     OW64693  10.778  10.025   3.022 -0.8565  0.1398  0.4056
50990SOL    HW164694  10.814   9.938   3.012  0.3112  0.5317  1.0997
50990SOL    HW264695  10.840  10.072   3.078 -1.3820  1.4576 -0.0592
50991SOL     OW64696  11.893   7.724  11.794 -0.3839 -0.2650 -0.7173
50991SOL    HW164697  11.809   7.730  11.839  0.3727 -0.0416  0.6935
50991SOL    HW264698  11.871   7.737  11.702 -1.5826  2.4733 -0.1200
50992SOL     OW64699   1.175   6.333   5.332 -0.0795 -0.1377  0.3983
50992SOL    HW164700   1.189   6.353   5.425 -0.5772 -1.0419  0.6888
50992SOL    HW264701   1.230   6.256   5.316  2.1887  1.6266 -0.8092
50993SOL     OW64702   8.497   0.055  11.842  0.4186  0.0258 -0.0011
50993SOL    HW164703   8.492  -0.021  11.899  0.9704  0.2419  0.3456
50993SOL    HW264704   8.408   0.092  11.842  0.3120 -0.2318  0.3584
50994SOL     OW64705   8.805   1.153   7.565 -0.0322  0.1979 -0.1531
50994SOL    HW164706   8.750   1.101   7.506  0.0561  0.0897 -0.1390
50994SOL    HW264707   8.744   1.215   7.606 -0.2956 -0.4930  0.5137
50995SOL     OW64708   4.586   3.947   2.675  0.4404  0.2649  0.3586
50995SOL    HW164709   4.596   3.855   2.697 -0.7155  0.0832  0.1556
50995SOL    HW264710   4.649   3.961   2.604  1.1062 -0.1926  0.8482
50996SOL     OW64711  10.136   0.476   7.892  0.3630 -0.1425  0.0169
50996SOL    HW164712  10.118   0.567   7.914  1.9237  0.0312  0.7023
50996SOL    HW264713  10.177   0.480   7.806 -0.0095 -0.2436 -0.1656
50997SOL     OW64714   9.272   3.831   0.604 -0.1761  0.6554  1.0555
50997SOL    HW164715   9.358   3.788   0.610 -0.3461  0.4169  1.9555
50997SOL    HW264716   9.254   3.835   0.510  0.3411 -0.2644  0.8979
50998SOL     OW64717   4.547   8.300   2.305 -0.4447  0.2772  0.2024
50998SOL    HW164718   4.544   8.337   2.394  1.6946  1.0361  0.0286
50998SOL    HW264719   4.465   8.252   2.296 -2.5716  3.3756  1.1608
50999SOL     OW64720   6.363   7.462   7.667  0.2466 -0.0756  0.0007
50999SOL    HW164721   6.305   7.498   7.734  0.5890  0.2080  0.1487
50999SOL    HW264722   6.321   7.380   7.640  0.1991 -0.2918  0.6947
51000SOL     OW64723   4.823   7.121   6.841  0.5173 -0.3054  0.2093
51000SOL    HW164724   4.767   7.185   6.796 -0.4564 -1.0365  0.3623
51000SOL    HW264725   4.780   7.037   6.827  1.6936 -0.9219  0.1640
51001SOL     OW64726   8.135  10.556   5.383  0.1164  0.2700 -0.1528
51001SOL    HW164727   8.192  10.621   5.424 -0.4157 -0.8405  2.6117
51001SOL    HW264728   8.049  10.573   5.420 -0.2380 -1.3228 -0.1818
51002SOL     OW64729  11.257   3.908  11.174 -0.0122 -0.3179  0.0630
51002SOL    HW164730  11.244   3.853  11.251 -0.1380 -1.0977 -0.5060
51002SOL    HW264731  11.238   3.851  11.100 -0.6154  0.6182 -0.5305
51003SOL     OW64732   2.250  10.584   7.948 -0.5764 -0.2369 -0.2783
51003SOL    HW164733   2.327  10.532   7.971 -0.8773  0.4966  2.8222
51003SOL    HW264734   2.286  10.663   7.908  0.3032 -0.0523  0.8203
51004SOL     OW64735   2.516   4.126   4.540 -0.3159  0.4289  0.8317
51004SOL    HW164736   2.523   4.100   4.632 -0.6869  1.7376  1.2569
51004SOL    HW264737   2.570   4.063   4.493  1.1475  0.6326  2.1298
51005SOL     OW64738  10.917   7.871   2.385  0.8363 -0.6312  0.6001
51005SOL    HW164739  10.895   7.948   2.439 -0.7002 -1.7644  1.6712
51005SOL    HW264740  10.996   7.897   2.338 -0.1664  1.9757  0.1757
51006SOL     OW64741   3.862  11.640   0.429  0.1956  0.1118  0.6036
51006SOL    HW164742   3.899  11.587   0.359 -1.2161 -2.3819  1.6263
51006SOL    HW264743   3.797  11.695   0.385 -0.1658 -0.8990 -0.1763
51007SOL     OW64744   6.550   1.023   1.123  0.0363  0.6059  0.1938
51007SOL    HW164745   6.502   1.077   1.186 -0.0926  0.4224  0.2541
51007SOL    HW264746   6.491   1.015   1.048 -0.5306 -0.6052  0.7398
51008SOL     OW64747  11.130  11.495   4.148 -0.9600 -0.9115  0.0182
51008SOL    HW164748  11.086  11.482   4.232  0.4994 -0.4892  0.9054
51008SOL    HW264749  11.114  11.587   4.126  1.2117 -0.0695  1.5011
51009SOL     OW64750  11.132   2.695   0.072 -0.0958  0.0961 -1.1406
51009SOL    HW164751  11.073   2.741   0.012  0.5291  0.0634 -1.7911
51009SOL    HW264752  11.215   2.691   0.026 -0.0182 -1.3365 -0.9383
51010SOL     OW64753   2.752   0.175   3.523  0.1400 -0.1021 -0.6839
51010SOL    HW164754   2.810   0.231   3.574 -0.0944  0.4419 -1.0174
51010SOL    HW264755   2.769   0.198   3.432  0.0673 -0.5962 -0.8251
51011SOL     OW64756   6.996   6.579   6.550 -0.2721  0.4006 -0.5984
51011SOL    HW164757   7.041   6.650   6.597 -1.5939  0.5651  0.4657
51011SOL    HW264758   6.982   6.511   6.616 -2.0016  0.5611 -0.7478
51012SOL     OW64759   8.878   8.693   8.156 -0.2504  0.2770  0.1840
51012SOL    HW164760   8.806   8.705   8.094  0.5574 -0.8116 -1.0080
51012SOL    HW264761   8.917   8.780   8.164 -2.2553  1.1210  1.6254
51013SOL     OW64762   4.699   4.051   0.716  0.1273  0.5178  0.3884
51013SOL    HW164763   4.706   4.014   0.804 -0.7214  2.5279  1.3727
51013SOL    HW264764   4.661   4.138   0.730  0.0409  0.9170 -1.9736
51014SOL     OW64765   0.404   6.930   9.477  0.2143  0.1736 -0.0801
51014SOL    HW164766   0.487   6.962   9.442  0.6916  0.2241  1.0546
51014SOL    HW264767   0.392   6.979   9.559 -1.9214  1.5787 -1.1695
51015SOL     OW64768   0.804   7.829  10.051 -0.1065  0.5111 -0.0964
51015SOL    HW164769   0.836   7.782  10.128 -1.1129 -3.0577 -1.6628
51015SOL    HW264770   0.715   7.797  10.038 -0.3608  1.8290 -2.1479
51016SOL     OW64771   0.596   3.197   5.894 -0.1587  0.0309 -0.2547
51016SOL    HW164772   0.657   3.175   5.965 -0.6037  0.3505  0.2266
51016SOL    HW264773   0.550   3.275   5.924 -1.0673 -0.4099 -0.4568
51017SOL     OW64774   6.887   7.338   4.361  0.2222  0.7287  0.5464
51017SOL    HW164775   6.909   7.322   4.270 -0.2782  0.4050  0.4784
51017SOL    HW264776   6.971   7.344   4.406  0.5545 -3.0193  0.7461
51018SOL     OW64777   4.505   9.863   7.004 -0.0151 -0.3100  0.0938
51018SOL    HW164778   4.592   9.839   7.035 -0.0178  0.3442  0.6343
51018SOL    HW264779   4.483   9.797   6.939  2.0585  1.0951 -2.1910
51019SOL     OW64780   3.174   0.900   6.327 -0.1083  0.7282  0.3191
51019SOL    HW164781   3.200   0.844   6.401 -0.1533  2.4628  1.7056
51019SOL    HW264782   3.168   0.840   6.253 -4.6191 -2.1555  2.5384
51020SOL     OW64783   7.231   0.750   4.813 -0.4421 -0.1590 -0.0847
51020SOL    HW164784   7.255   0.703   4.892 -0.2417 -0.7961 -0.5108
51020SOL    HW264785   7.292   0.718   4.746 -1.1772 -0.3100 -0.7051
51021SOL     OW64786   8.205   4.204   6.336  0.5438  0.3472 -0.1204
51021SOL    HW164787   8.231   4.243   6.419  0.4621 -1.7175  0.9330
51021SOL    HW264788   8.115   4.233   6.322  0.6659  0.9566  0.3361
51022SOL     OW64789   3.912   5.861   7.221  0.7340 -0.2848  0.1699
51022SOL    HW164790   3.933   5.801   7.292  2.3842  0.1782  0.1136
51022SOL    HW264791   3.995   5.903   7.200 -0.0858  0.9028 -0.8244
51023SOL     OW64792   6.721  11.498   7.451 -0.2022  0.0850 -0.0740
51023SOL    HW164793   6.812  11.494   7.482 -0.8437  0.1914  1.9297
51023SOL    HW264794   6.725  11.464   7.362  1.4813 -1.9040  0.6854
51024SOL     OW64795  11.839  10.842   4.837  0.1287 -0.4276  0.0212
51024SOL    HW164796  11.799  10.927   4.853  0.4768 -0.2693  0.0660
51024SOL    HW264797  11.788  10.805   4.765 -1.1756 -0.9668  1.1831
51025SOL     OW64798   5.793   7.943   1.956 -0.4293  0.7769 -0.2803
51025SOL    HW164799   5.761   7.864   1.999  1.5780  0.3153  0.4540
51025SOL    HW264800   5.741   8.014   1.994 -0.7747  0.0450  0.6384
51026SOL     OW64801   7.538  10.458   6.371  0.0512  0.4462 -0.0175
51026SOL    HW164802   7.534  10.369   6.405 -0.0077  0.1886 -0.6812
51026SOL    HW264803   7.624  10.464   6.328  0.7393  1.2223  1.3799
51027SOL     OW64804   3.557   7.823  11.003  0.1447 -1.1479 -0.8243
51027SOL    HW164805   3.556   7.732  10.974  0.9142 -0.8253 -1.9153
51027SOL    HW264806   3.497   7.868  10.944 -0.9052 -1.0729  0.2513
51028SOL     OW64807   7.960   8.180   5.092 -0.1708  0.8510  0.0390
51028SOL    HW164808   7.999   8.146   5.172  0.8152  0.6714 -0.4964
51028SOL    HW264809   7.878   8.220   5.120 -1.0055 -1.2518  0.7957
51029SOL     OW64810   2.704   9.541   2.168  0.3549  0.3676  0.1461
51029SOL    HW164811   2.717   9.500   2.254 -1.1952  0.5095  0.4628
51029SOL    HW264812   2.699   9.467   2.107 -0.1614  0.1848  0.4057
51030SOL     OW64813   4.068   5.839   6.140  0.2348 -0.0594  0.0576
51030SOL    HW164814   4.085   5.929   6.114  1.4766  0.5536  2.5967
51030SOL    HW264815   4.034   5.847   6.230  1.2058 -2.1289  0.6651
51031SOL     OW64816   0.903   2.880   2.996 -0.1771 -0.0806  0.3541
51031SOL    HW164817   0.838   2.871   2.926 -0.1866 -0.1966  0.3777
51031SOL    HW264818   0.969   2.939   2.959  0.1901 -0.7166 -0.0277
51032SOL     OW64819   2.991   1.750   5.792  0.4602  0.1652  0.2726
51032SOL    HW164820   2.910   1.731   5.838  0.3354 -0.6779 -0.2785
51032SOL    HW264821   3.047   1.791   5.858  0.4383 -1.3855  1.2916
51033SOL     OW64822   5.846  11.797  11.176 -0.1733  0.0472 -0.4260
51033SOL    HW164823   5.822  11.883  11.209  1.0957 -0.0325  0.8426
51033SOL    HW264824   5.942  11.796  11.179 -0.1402 -2.3036  2.1977
51034SOL     OW64825   0.163   8.847   2.146 -0.2281  0.1985 -0.5476
51034SOL    HW164826   0.117   8.931   2.150 -0.0981  0.3450 -1.7110
51034SOL    HW264827   0.110   8.787   2.199 -0.8492  0.7798 -0.5036
51035SOL     OW64828   8.365   2.036   3.939  0.3906  0.1232  0.0304
51035SOL    HW164829   8.335   1.952   3.973  1.3445 -0.2969 -0.1146
51035SOL    HW264830   8.451   2.017   3.902  0.0359  0.8817 -1.2433
51036SOL     OW64831   3.213   1.577   0.490  0.4206 -0.0333  0.1602
51036SOL    HW164832   3.281   1.641   0.469  0.7613  0.0655  1.4774
51036SOL    HW264833   3.209   1.576   0.586 -0.2573 -1.2812  0.1436
51037SOL     OW64834   5.295  10.893  10.570  0.3807  0.0834 -0.3593
51037SOL    HW164835   5.335  10.859  10.490  1.5717 -0.9467  0.6411
51037SOL    HW264836   5.299  10.820  10.632 -2.3675  0.1576  0.0698
51038SOL     OW64837  11.940   2.626   5.656 -0.3421 -0.7267  0.2092
51038SOL    HW164838  11.862   2.580   5.687 -0.9297 -0.6258 -1.0665
51038SOL    HW264839  11.910   2.715   5.639 -0.0051 -0.7277 -0.4372
51039SOL     OW64840   4.035   6.917   3.290  0.0337  0.1726  0.3335
51039SOL    HW164841   4.039   6.864   3.210  1.7905  1.4343 -0.4733
51039SOL    HW264842   3.985   6.864   3.352 -0.2556 -1.3928 -1.1799
51040SOL     OW64843   9.404   6.040   4.769 -0.1625 -0.6282  0.2399
51040SOL    HW164844   9.367   5.985   4.700  0.6545  1.2684 -1.8725
51040SOL    HW264845   9.330   6.090   4.802 -0.2713 -0.1405 -0.7087
51041SOL     OW64846   8.093   3.603   3.508 -0.0657 -0.0641  0.4781
51041SOL    HW164847   8.165   3.646   3.555 -0.3306 -1.4223  2.2238
51041SOL    HW264848   8.122   3.513   3.497 -1.0905 -0.3902  0.3114
51042SOL     OW64849  10.118   5.308   6.877  0.0724  0.0478  0.0812
51042SOL    HW164850  10.054   5.365   6.919  0.7542 -0.2916  1.6357
51042SOL    HW264851  10.077   5.284   6.794 -1.7970 -0.1131  0.9995
51043SOL     OW64852   4.742  11.499   5.534  0.0929  0.0116 -0.0777
51043SOL    HW164853   4.777  11.584   5.506  0.4256 -0.3758 -0.8712
51043SOL    HW264854   4.740  11.447   5.454  0.8574 -1.0680  0.5947
51044SOL     OW64855   0.436   5.567   6.756  0.0583 -0.0950  0.3119
51044SOL    HW164856   0.368   5.531   6.700 -0.2014  1.1467 -0.2016
51044SOL    HW264857   0.464   5.647   6.712  0.4054  0.4987  1.5607
51045SOL     OW64858   8.712   0.864   8.046 -0.8631 -0.2548 -0.3813
51045SOL    HW164859   8.706   0.781   7.999 -0.9610 -0.0700 -0.6980
51045SOL    HW264860   8.664   0.849   8.127  0.2597 -0.9318  0.1793
51046SOL     OW64861   1.966   5.693   7.376 -0.3163 -0.8966  0.3593
51046SOL    HW164862   1.968   5.668   7.284 -1.8311  0.0207  0.0292
51046SOL    HW264863   2.032   5.638   7.418  2.5734  0.6652 -1.7334
51047SOL     OW64864   7.987  11.764   1.366  0.0545 -0.6933  0.1418
51047SOL    HW164865   7.914  11.822   1.389 -1.4706 -2.7834  0.9522
51047SOL    HW264866   8.012  11.791   1.278  0.1046  1.7898  0.8277
51048SOL     OW64867   1.652   7.097   3.453  0.7466  0.1398 -0.3382
51048SOL    HW164868   1.650   7.090   3.358 -0.4766  0.3929 -0.3363
51048SOL    HW264869   1.607   7.179   3.473  0.7073 -0.0704  0.4821
51049SOL     OW64870   6.177  11.209   8.474  0.1217  0.2085  0.4115
51049SOL    HW164871   6.168  11.197   8.379  1.1393  1.1235  0.1866
51049SOL    HW264872   6.198  11.301   8.484  1.4137 -0.1743  1.4282
51050SOL     OW64873   7.236   4.578   8.737  0.2172  0.5087 -0.1914
51050SOL    HW164874   7.190   4.565   8.820  0.2673  1.1161 -0.0625
51050SOL    HW264875   7.167   4.583   8.672  0.1551  0.4507 -0.1307
51051SOL     OW64876   0.846   4.040   9.432  0.0715 -0.2991  0.3927
51051SOL    HW164877   0.791   4.114   9.406 -0.5585 -0.6047  0.8202
51051SOL    HW264878   0.786   3.981   9.478  0.7003 -0.7790  0.6108
51052SOL     OW64879   5.196  11.217   0.408  0.0341  0.0955 -0.6019
51052SOL    HW164880   5.232  11.165   0.336  2.2372  1.0369 -0.2786
51052SOL    HW264881   5.199  11.307   0.376 -1.9378  0.2561 -0.4503
51053SOL     OW64882   6.226   3.104   0.716 -0.5082  0.3954 -0.1229
51053SOL    HW164883   6.137   3.137   0.726 -0.2719  1.4075 -1.1731
51053SOL    HW264884   6.283   3.180   0.727  0.1602 -0.0059 -0.6698
51054SOL     OW64885   1.670  10.802   4.879  0.3200  0.3253  0.3683
51054SOL    HW164886   1.652  10.894   4.858 -0.8449  0.5270  2.0505
51054SOL    HW264887   1.728  10.773   4.809 -2.0178  1.3214 -2.1727
51055SOL     OW64888  10.754   1.973   7.822  0.3943  0.3759  0.1444
51055SOL    HW164889  10.773   1.893   7.871  1.0114  1.0034  0.9486
51055SOL    HW264890  10.660   1.986   7.833  0.3991  0.0988  0.5232
51056SOL     OW64891   2.074   0.766  10.182 -0.0435 -0.0568  0.1238
51056SOL    HW164892   1.989   0.732  10.153 -0.0406 -1.6885  1.9031
51056SOL    HW264893   2.061   0.861  10.185 -1.2631 -0.1404 -1.2178
51057SOL     OW64894   6.313   6.170   6.543  0.2111  0.3736 -0.2544
51057SOL    HW164895   6.291   6.092   6.491  0.0762  0.9547 -1.0938
51057SOL    HW264896   6.293   6.243   6.485 -0.6878  1.0814  0.9124
51058SOL     OW64897   2.308  11.053  10.311  0.2233  0.1768  0.2516
51058SOL    HW164898   2.398  11.081  10.325  0.0315  2.7060 -2.4100
51058SOL    HW264899   2.307  11.017  10.222 -1.2346 -0.5868  0.5422
51059SOL     OW64900   5.467   1.530   2.836  0.0591 -0.6697  0.3998
51059SOL    HW164901   5.392   1.585   2.814  0.7292  1.9407  3.8060
51059SOL    HW264902   5.443   1.443   2.805 -2.7845  0.7359 -1.8098
51060SOL     OW64903   0.854   5.719   2.281  0.1216 -0.1769  0.4090
51060SOL    HW164904   0.863   5.750   2.371  1.1456 -0.5932  0.4571
51060SOL    HW264905   0.815   5.792   2.234  0.8268  0.5314  0.9107
51061SOL     OW64906  10.930   5.484   4.801  0.7826  0.0190  0.0610
51061SOL    HW164907  10.950   5.401   4.846  0.9903 -0.3224 -0.6413
51061SOL    HW264908  10.887   5.537   4.867 -2.4447 -1.8412 -0.3166
51062SOL     OW64909   3.024   0.076   7.093  0.5433 -0.4339  0.2338
51062SOL    HW164910   2.994   0.137   7.160 -0.5728 -0.5661 -0.1393
51062SOL    HW264911   3.066   0.005   7.142  0.9283  0.1157  0.7140
51063SOL     OW64912   3.730  11.426   5.130 -0.0028 -0.4779  0.2074
51063SOL    HW164913   3.668  11.358   5.105  1.1889 -2.0459  1.2947
51063SOL    HW264914   3.792  11.382   5.188  0.0626  1.8346  2.0611
51064SOL     OW64915   5.521   9.848   2.281  1.1133  0.3235 -0.1108
51064SOL    HW164916   5.456   9.908   2.244  1.1347  0.0888 -0.5326
51064SOL    HW264917   5.587   9.905   2.320  0.8399  0.5683 -0.0029
51065SOL     OW64918   7.758  11.695  10.127  0.1650  0.6067 -0.1602
51065SOL    HW164919   7.816  11.739  10.190 -1.7410  2.0501  0.7059
51065SOL    HW264920   7.684  11.666  10.180  0.3715 -1.8409 -1.1133
51066SOL     OW64921   4.830   8.234   3.533  0.2165 -0.1355 -0.3284
51066SOL    HW164922   4.916   8.192   3.529  2.0207  3.2665 -1.1718
51066SOL    HW264923   4.816   8.249   3.626  0.2857 -1.1464 -0.1445
51067SOL     OW64924   5.696   9.733   1.042 -0.4339  0.2442 -0.1537
51067SOL    HW164925   5.705   9.776   1.127 -0.4592  0.4500 -0.2557
51067SOL    HW264926   5.780   9.689   1.029  0.3251  1.8349 -0.9172
51068SOL     OW64927  10.667   3.385   8.632 -0.0174 -0.1242  0.0181
51068SOL    HW164928  10.591   3.441   8.647  0.8376  0.9288  0.6125
51068SOL    HW264929  10.640   3.299   8.665 -1.2941 -0.0438 -0.7431
51069SOL     OW64930   6.044  10.621   7.546  0.4476 -0.2190 -1.1493
51069SOL    HW164931   6.008  10.591   7.462 -0.2333 -0.0742 -0.9183
51069SOL    HW264932   5.972  10.611   7.608  0.1081  2.0385 -1.0870
51070SOL     OW64933   7.328   8.740  10.869 -0.5839 -0.2205 -0.7641
51070SOL    HW164934   7.300   8.726  10.960  0.3062  1.8069 -0.1225
51070SOL    HW264935   7.377   8.661  10.847 -0.0289 -0.3689  0.8467
51071SOL     OW64936   5.978   4.415   3.832  0.4771  0.0576  0.0152
51071SOL    HW164937   5.939   4.489   3.879  0.7152 -0.3836  0.9254
51071SOL    HW264938   5.907   4.353   3.821  0.8963 -0.7790  1.7402
51072SOL     OW64939   5.434   1.178  11.575 -0.3454  0.2131  0.9015
51072SOL    HW164940   5.508   1.165  11.634 -0.8326 -0.7513  1.3254
51072SOL    HW264941   5.473   1.211  11.494  0.4286  0.6725  1.4475
51073SOL     OW64942   5.287  10.405   8.066  0.4685 -0.4412  0.4875
51073SOL    HW164943   5.277  10.437   7.976 -0.0010 -1.2314  0.2529
51073SOL    HW264944   5.232  10.464   8.118  1.1126  0.3111  0.3282
51074SOL     OW64945   4.509   5.439   1.449  0.2336  0.1333  0.0218
51074SOL    HW164946   4.603   5.424   1.445  0.0721 -1.2343  0.6708
51074SOL    HW264947   4.485   5.417   1.539 -0.5786  1.3593  0.1345
51075SOL     OW64948   5.245   3.916   8.426  0.7004 -0.0975  0.0844
51075SOL    HW164949   5.245   3.928   8.521 -0.0151  0.0139  0.0773
51075SOL    HW264950   5.265   4.004   8.392 -0.6142  0.2352  0.1122
51076SOL     OW64951   7.224   3.269   2.022 -0.3605  0.1019  0.4284
51076SOL    HW164952   7.244   3.358   2.051 -0.8056  0.6843 -0.9521
51076SOL    HW264953   7.255   3.212   2.093  0.5978  1.3142  1.0060
51077SOL     OW64954   0.545   7.657  10.953  0.7338 -0.1243  0.7215
51077SOL    HW164955   0.463   7.690  10.992  0.0630 -0.3430 -0.4379
51077SOL    HW264956   0.517   7.614  10.872  2.0718  0.4637 -0.0980
51078SOL     OW64957   7.925   5.360   6.394 -0.0078 -0.0519 -0.0357
51078SOL    HW164958   7.941   5.354   6.300 -0.6364  3.3354 -0.4569
51078SOL    HW264959   8.009   5.390   6.430  0.2799 -1.4869  0.5821
51079SOL     OW64960  11.588  11.706   7.782 -0.0417  0.1078  0.0529
51079SOL    HW164961  11.502  11.665   7.791  1.3061 -2.7205  1.0255
51079SOL    HW264962  11.609  11.737   7.870  0.9806 -1.5710  0.4380
51080SOL     OW64963   4.227   3.630   8.143 -0.6008  0.3515 -0.1241
51080SOL    HW164964   4.143   3.625   8.098 -1.0538  1.8856  0.4840
51080SOL    HW264965   4.225   3.714   8.189  1.1547  0.3009  0.1266
51081SOL     OW64966   7.532   0.497   0.003 -0.2430  0.2495 -0.4865
51081SOL    HW164967   7.619   0.460  -0.015  1.2812  2.6765  1.2215
51081SOL    HW264968   7.493   0.510  -0.083  0.9408 -1.1527 -1.2961
51082SOL     OW64969   7.771   0.590   9.853 -0.1222 -0.1496  0.2545
51082SOL    HW164970   7.688   0.629   9.825  0.4631  2.0481  1.3524
51082SOL    HW264971   7.763   0.583   9.948 -0.3960 -3.3860  0.1139
51083SOL     OW64972   5.047   4.307   2.445 -0.3468  0.0298 -0.0010
51083SOL    HW164973   5.139   4.323   2.421 -1.0428  0.7614 -2.4719
51083SOL    HW264974   5.040   4.339   2.535  2.2603 -1.8647  1.0282
51084SOL     OW64975   0.328   7.239   5.496  0.4639 -0.5505  0.6600
51084SOL    HW164976   0.387   7.228   5.421  1.1156 -0.4887  1.1605
51084SOL    HW264977   0.376   7.295   5.556 -1.0942  1.6324 -0.0020
51085SOL     OW64978   3.108  10.600   0.094  0.4698  0.4401 -0.2553
51085SOL    HW164979   3.070  10.512   0.091 -0.9352  0.9960  0.6006
51085SOL    HW264980   3.068  10.646   0.020 -0.3515  0.9495  0.4925
51086SOL     OW64981  10.327   1.059   0.255 -0.1327 -0.0375  0.0693
51086SOL    HW164982  10.243   1.070   0.300 -0.3942  0.9108 -0.5967
51086SOL    HW264983  10.332   0.966   0.237 -1.1244 -0.0962  0.0085
51087SOL     OW64984   7.378  10.109   7.824  0.1993 -0.0220 -0.5383
51087SOL    HW164985   7.366  10.030   7.771 -2.2644  0.6783 -1.1484
51087SOL    HW264986   7.418  10.172   7.763  1.4908 -0.5404 -0.2554
51088SOL     OW64987   6.006   8.729   5.800  0.2870  0.3055  0.0665
51088SOL    HW164988   6.053   8.648   5.820 -2.5579 -0.8577  3.0119
51088SOL    HW264989   6.035   8.790   5.868  1.3013  1.3243 -1.2429
51089SOL     OW64990   8.672  11.803  10.836 -0.3204 -0.0402 -0.0993
51089SOL    HW164991   8.755  11.776  10.877  0.6997  1.0511 -1.3589
51089SOL    HW264992   8.617  11.831  10.909  0.6756 -0.1362  0.7042
51090SOL     OW64993  10.822   5.728   1.269  0.4815  0.6096  0.1407
51090SOL    HW164994  10.772   5.679   1.333  0.9951  0.0545  0.1228
51090SOL    HW264995  10.863   5.799   1.319 -0.2319  1.0092  0.1704
51091SOL     OW64996   1.203  10.693   5.038 -0.1513  0.3387 -0.3707
51091SOL    HW164997   1.239  10.663   4.954  1.4730  0.1386  0.3476
51091SOL    HW264998   1.109  10.682   5.029  0.1123 -1.8004 -1.3867
51092SOL     OW64999   9.205   8.492   0.194  0.2350  0.1086 -0.0242
51092SOL    HW165000   9.195   8.474   0.101  0.0488 -2.2032  0.3878
51092SOL    HW265001   9.285   8.544   0.199  0.4141  0.0206 -1.4524
51093SOL     OW65002   3.394   4.241   9.204 -0.4280  0.8138 -0.0833
51093SOL    HW165003   3.341   4.201   9.273 -0.2421 -3.8601 -2.2570
51093SOL    HW265004   3.332   4.261   9.134 -0.0114  0.4969 -0.5520
51094SOL     OW65005   2.271   3.206   8.689 -0.0011  0.3759  0.4285
51094SOL    HW165006   2.308   3.273   8.631  0.2832  0.2115  0.4181
51094SOL    HW265007   2.347   3.167   8.732 -0.1832  0.2296  0.6235
51095SOL     OW65008   3.260   0.168   8.216 -0.0243  1.0132 -0.2187
51095SOL    HW165009   3.263   0.233   8.287 -0.8659 -1.2473  2.0388
51095SOL    HW265010   3.166   0.153   8.202  0.1311 -0.5912  0.2364
51096SOL     OW65011   2.421   3.463   3.540  0.6899 -0.2677 -0.4909
51096SOL    HW165012   2.496   3.484   3.595  0.2865 -1.4059  0.5361
51096SOL    HW265013   2.345   3.494   3.590  0.4610  1.0329 -1.5939
51097SOL     OW65014   7.699   1.332  10.440 -0.3777  0.1409 -0.5134
51097SOL    HW165015   7.659   1.345  10.526 -0.5297 -2.1569 -0.1759
51097SOL    HW265016   7.644   1.382  10.380 -1.2271  0.4520  0.4980
51098SOL     OW65017   7.271   4.940  10.345 -0.2549 -0.4384  0.1415
51098SOL    HW165018   7.244   4.887  10.270 -0.5935  0.8537 -0.6790
51098SOL    HW265019   7.359   4.971  10.321 -0.4404  0.1285  0.1961
51099SOL     OW65020   3.882   7.231  10.355 -0.0840  0.2102 -0.4740
51099SOL    HW165021   3.849   7.321  10.359  1.5201  0.8703 -1.4193
51099SOL    HW265022   3.856   7.200  10.268 -0.4954 -0.1944 -0.2094
51100SOL     OW65023   6.494   3.261   9.089 -0.6700 -0.5674  0.1773
51100SOL    HW165024   6.571   3.241   9.142 -0.8584 -0.7563  0.3793
51100SOL    HW265025   6.527   3.319   9.020 -0.7122  1.0570  1.4471
51101SOL     OW65026   1.376   4.538   8.646  0.4847 -0.1860  0.4034
51101SOL    HW165027   1.381   4.634   8.650 -0.2969 -0.1572  1.0269
51101SOL    HW265028   1.361   4.511   8.736  1.3382 -0.9522  0.3330
51102SOL     OW65029   2.530   9.575   4.176 -0.8330 -0.8992 -0.2858
51102SOL    HW165030   2.553   9.560   4.267 -0.4508 -0.1829 -0.2518
51102SOL    HW265031   2.436   9.594   4.178 -0.3312  2.0582  0.3913
51103SOL     OW65032   1.207   9.416   9.991 -0.1292  0.0069 -0.8997
51103SOL    HW165033   1.266   9.370   9.931  2.2272  0.3183  1.0147
51103SOL    HW265034   1.264   9.473  10.042 -2.2003  0.7795  0.7087
51104SOL     OW65035   1.593   7.656   2.256 -0.0217  0.0504 -0.0198
51104SOL    HW165036   1.499   7.653   2.268  0.1466 -1.9411  1.4208
51104SOL    HW265037   1.608   7.622   2.168 -0.6553  0.8707 -0.4499
51105SOL     OW65038   3.594  11.321   9.737 -0.7932  0.6889 -0.0659
51105SOL    HW165039   3.634  11.400   9.775 -0.5711  0.1366  0.9009
51105SOL    HW265040   3.646  11.304   9.659 -1.3437  1.9418 -0.7367
51106SOL     OW65041   4.595   3.138   2.906 -0.3113  0.1226 -0.1913
51106SOL    HW165042   4.505   3.158   2.933 -1.4900 -3.4522 -0.8678
51106SOL    HW265043   4.593   3.145   2.811  0.0812 -0.0547 -0.2133
51107SOL     OW65044   2.242  11.008   6.100  0.4968  0.0271 -0.2234
51107SOL    HW165045   2.273  11.058   6.175 -1.6448 -0.4844  1.0677
51107SOL    HW265046   2.211  10.925   6.137 -3.0198  0.7434 -1.2058
51108SOL     OW65047   9.268   9.977   8.360 -0.2169 -0.4035 -0.5497
51108SOL    HW165048   9.262   9.921   8.437  0.0738 -0.5031 -0.6009
51108SOL    HW265049   9.181  10.017   8.353  0.1666  0.7299  0.6805
51109SOL     OW65050   3.118   2.690   2.187 -0.1253 -0.1329  0.4319
51109SOL    HW165051   3.172   2.737   2.251  0.1035  0.1720  0.0171
51109SOL    HW265052   3.100   2.606   2.229 -0.8068  0.4310  1.3250
51110SOL     OW65053   2.912   7.879  11.766 -0.1032  0.4512 -0.1198
51110SOL    HW165054   2.923   7.877  11.671  1.1392  0.2448  0.0138
51110SOL    HW265055   2.831   7.829  11.782  1.2152 -2.0896 -0.8763
51111SOL     OW65056   8.464   0.254  11.397  0.3152 -0.2050  0.1291
51111SOL    HW165057   8.546   0.217  11.365  0.5525 -0.3443  0.8783
51111SOL    HW265058   8.396   0.213  11.344  0.5792 -1.7024  0.8960
51112SOL     OW65059  10.465  11.719   7.945 -0.0854 -0.0848  0.9995
51112SOL    HW165060  10.391  11.779   7.932  0.1686  0.1223  0.4844
51112SOL    HW265061  10.542  11.773   7.932  0.1497 -0.4297  0.9457
51113SOL     OW65062   8.442   3.323   8.666 -0.0064  0.0173 -0.4488
51113SOL    HW165063   8.448   3.396   8.605 -0.5582  0.0912 -0.4202
51113SOL    HW265064   8.500   3.256   8.630  0.9464  0.6701 -0.1764
51114SOL     OW65065   8.696   7.464   4.485 -0.4918  0.5182 -0.3915
51114SOL    HW165066   8.631   7.394   4.490  0.6178 -0.6787 -2.0154
51114SOL    HW265067   8.777   7.420   4.462  0.9622  1.9738  1.6275
51115SOL     OW65068   9.457  11.294   5.879 -0.2092 -0.1468 -0.8574
51115SOL    HW165069   9.373  11.248   5.886 -0.4976  0.3519 -0.9484
51115SOL    HW265070   9.445  11.373   5.932  0.4826 -0.4577 -0.2271
51116SOL     OW65071   7.048   5.924   7.532  0.2097  0.8199 -0.0870
51116SOL    HW165072   7.121   5.972   7.571 -0.4708  1.1810  0.7886
51116SOL    HW265073   7.085   5.884   7.454  0.9911  2.1686 -0.4527
51117SOL     OW65074  11.030   1.744   9.318 -0.3695 -0.1091 -0.2290
51117SOL    HW165075  11.111   1.781   9.282 -0.5947  0.8445  0.2268
51117SOL    HW265076  10.969   1.817   9.321 -1.1629 -0.7534 -0.2693
51118SOL     OW65077   3.124  10.982   4.586 -0.1368  0.4085 -0.6411
51118SOL    HW165078   3.133  11.075   4.564  1.1517 -0.1943 -3.0251
51118SOL    HW265079   3.163  10.974   4.673  2.2039  1.7261 -1.4666
51119SOL     OW65080  10.704   8.500   6.682 -0.4038  0.3892  0.4588
51119SOL    HW165081  10.656   8.527   6.760 -0.5843  0.6318  0.2649
51119SOL    HW265082  10.642   8.510   6.610  0.2000  1.6023  0.0668
51120SOL     OW65083   3.586   8.062   6.347 -0.1857  0.6990  0.0958
51120SOL    HW165084   3.617   7.972   6.345  0.6239  0.8226  3.0765
51120SOL    HW265085   3.625   8.103   6.269  0.7013 -1.1037 -0.4602
51121SOL     OW65086   9.004   3.908  11.248 -0.1994  0.4986 -0.4600
51121SOL    HW165087   9.070   3.896  11.180 -1.3541 -0.5959 -1.4369
51121SOL    HW265088   9.050   3.955  11.318  2.2786 -2.1768 -0.1166
51122SOL     OW65089   2.002   7.083   0.963 -0.0868 -0.9192 -0.0679
51122SOL    HW165090   2.034   7.121   1.045 -0.0580 -0.7592 -0.1534
51122SOL    HW265091   2.049   7.000   0.955 -0.2752 -1.0541  0.2056
51123SOL     OW65092   9.485   4.921   5.765  0.7750  0.2992 -0.0103
51123SOL    HW165093   9.461   4.933   5.856  1.1693  0.7238  0.0404
51123SOL    HW265094   9.565   4.868   5.768  0.2374 -0.5513 -0.1535
51124SOL     OW65095   4.600   1.481   1.182 -0.3090 -0.6939 -0.0719
51124SOL    HW165096   4.658   1.506   1.253 -1.9748 -0.1517  1.1773
51124SOL    HW265097   4.605   1.555   1.120 -0.6587 -0.0129  0.6881
51125SOL     OW65098  10.527  10.980   9.040 -0.3987 -0.1727 -0.2495
51125SOL    HW165099  10.538  11.053   8.979 -0.1946 -0.5114 -0.6304
51125SOL    HW265100  10.612  10.971   9.083 -0.1425 -0.7414 -0.8483
51126SOL     OW65101  10.371  11.245   9.527  0.5744 -0.5462 -0.1999
51126SOL    HW165102  10.364  11.239   9.431 -1.3311  0.0041 -0.1342
51126SOL    HW265103  10.433  11.317   9.541  1.6729 -1.2921 -0.9863
51127SOL     OW65104   6.365   4.570   3.798  0.6848  0.2693 -1.1886
51127SOL    HW165105   6.331   4.657   3.779  0.3757  0.0868 -1.4892
51127SOL    HW265106   6.306   4.511   3.751  0.4849 -0.1363 -0.4456
51128SOL     OW65107   0.810   7.705   4.706 -0.1541 -0.4928  0.0233
51128SOL    HW165108   0.853   7.668   4.629 -0.5636  0.9838 -0.9614
51128SOL    HW265109   0.742   7.642   4.729 -0.5068 -0.6050 -1.2863
51129SOL     OW65110   4.382   0.358  10.371 -0.0033 -0.3688 -0.4164
51129SOL    HW165111   4.390   0.323  10.460  0.9822 -1.1772 -0.8127
51129SOL    HW265112   4.307   0.312  10.334  0.9026 -1.6563 -0.7189
51130SOL     OW65113   1.874  10.667   4.088 -0.5428  0.2422  0.0417
51130SOL    HW165114   1.853  10.733   4.022  0.6706  0.7073  0.0816
51130SOL    HW265115   1.791  10.647   4.130 -0.6485  3.7781  1.9051
51131SOL     OW65116   4.976   8.299   8.539 -0.0873 -0.1975 -0.5091
51131SOL    HW165117   4.897   8.339   8.503 -0.1453 -0.6326 -0.8770
51131SOL    HW265118   4.983   8.215   8.494  0.5618 -0.1815 -0.4459
51132SOL     OW65119   6.410   5.759   9.820  0.8231  0.1236  0.2634
51132SOL    HW165120   6.387   5.852   9.819  0.4062  0.0328  0.7445
51132SOL    HW265121   6.424   5.740   9.913  0.0423 -0.5004  0.2616
51133SOL     OW65122   4.000   1.643   6.096 -0.5523  0.4090  0.1810
51133SOL    HW165123   3.936   1.674   6.032  1.2656  0.9329 -1.4834
51133SOL    HW265124   4.084   1.645   6.049  0.7233 -0.1234  2.2968
51134SOL     OW65125   6.497   7.098   9.604  0.2087 -0.1850  0.2277
51134SOL    HW165126   6.510   7.076   9.696  0.1900 -0.4514  0.1681
51134SOL    HW265127   6.403   7.113   9.595  0.0699 -1.0546  0.0672
51135SOL     OW65128   2.720   4.087   5.439 -0.3397 -0.4373 -0.0110
51135SOL    HW165129   2.733   4.181   5.431 -0.4339 -0.5243 -1.5073
51135SOL    HW265130   2.650   4.067   5.377  0.1929 -1.5875 -0.2686
51136SOL     OW65131   3.166   6.726   7.713  0.3478 -0.2006  0.1638
51136SOL    HW165132   3.194   6.693   7.628  0.7248 -2.8853  1.2499
51136SOL    HW265133   3.243   6.721   7.768 -0.1333  0.5865  0.9370
51137SOL     OW65134   4.303  10.654   5.149 -0.0165 -0.0983  0.5190
51137SOL    HW165135   4.253  10.675   5.070 -0.1700  1.0954  0.9089
51137SOL    HW265136   4.257  10.701   5.219  1.8065  1.3325  0.8412
51138SOL     OW65137   3.124   8.321   9.248 -0.1461 -0.4323  0.1310
51138SOL    HW165138   3.082   8.406   9.235  0.9820  0.2007  0.5593
51138SOL    HW265139   3.066   8.259   9.203  0.2790  0.8456 -2.3073
51139SOL     OW65140   0.429   9.862   8.914  0.3630 -0.7598 -0.4283
51139SOL    HW165141   0.523   9.851   8.903  0.8081  1.8916 -0.0501
51139SOL    HW265142   0.407   9.934   8.855 -1.4614 -1.3724 -0.5505
51140SOL     OW65143   0.135   3.665   5.709 -0.2206  0.0847  0.5236
51140SOL    HW165144   0.076   3.596   5.741 -1.5415  1.3421  0.8784
51140SOL    HW265145   0.200   3.618   5.656 -1.9303 -1.2617 -0.4607
51141SOL     OW65146   9.754   7.054   8.231 -0.3682 -0.5338  0.1690
51141SOL    HW165147   9.704   7.003   8.168 -0.4784  1.5015 -1.5060
51141SOL    HW265148   9.715   7.032   8.316 -2.0603 -1.2974 -0.7586
51142SOL     OW65149   4.621   4.839   5.438 -0.4750 -0.3832 -0.0109
51142SOL    HW165150   4.638   4.911   5.499 -0.4583 -0.7972  0.4852
51142SOL    HW265151   4.706   4.821   5.398 -1.0923  2.3078 -2.9518
51143SOL     OW65152  10.983   5.526   0.416  0.2296  0.0239  0.3297
51143SOL    HW165153  11.046   5.458   0.392  1.7044  1.2111  0.6199
51143SOL    HW265154  10.983   5.527   0.512  0.8227  0.9127  0.3388
51144SOL     OW65155   8.463   0.505  10.293 -0.0753 -0.0343 -0.5451
51144SOL    HW165156   8.557   0.522  10.301 -0.2472  0.6487  0.1653
51144SOL    HW265157   8.458   0.428  10.237  0.9980 -1.3064  0.9996
51145SOL     OW65158   2.566   1.285   3.440  0.7137 -0.3199 -0.2407
51145SOL    HW165159   2.527   1.336   3.511  2.1155 -0.8667  0.9685
51145SOL    HW265160   2.660   1.291   3.455  0.9966 -1.2278 -1.5155
51146SOL     OW65161   5.487   8.591   8.465 -0.1196  0.0456  0.0914
51146SOL    HW165162   5.571   8.553   8.488 -0.3033 -0.7170 -0.4517
51146SOL    HW265163   5.428   8.516   8.458 -1.0898  0.6433  1.4193
51147SOL     OW65164   7.288   1.090  11.432 -0.7082 -0.6034  0.4231
51147SOL    HW165165   7.219   1.040  11.476 -0.0736 -1.9101 -0.0304
51147SOL    HW265166   7.352   1.024  11.403 -0.8245  0.2385 -1.9940
51148SOL     OW65167   0.702   0.101   2.726  0.0682  0.3495 -0.3701
51148SOL    HW165168   0.645   0.029   2.698 -0.1340  0.1975  0.4186
51148SOL    HW265169   0.736   0.074   2.811 -0.0490  1.2077 -0.0349
51149SOL     OW65170   5.259   1.696   3.874 -0.1840  0.0323  0.4762
51149SOL    HW165171   5.211   1.775   3.851  2.5057  1.3814 -0.9568
51149SOL    HW265172   5.294   1.713   3.961 -0.3305  0.0363  0.5344
51150SOL     OW65173  11.600   0.977  11.418 -0.0248  0.0931 -0.1734
51150SOL    HW165174  11.606   0.883  11.404 -1.3201  0.2027 -1.8713
51150SOL    HW265175  11.662   1.015  11.356 -1.2308  0.4083 -1.2208
51151SOL     OW65176   4.183  11.555   5.211 -0.4342  0.3826 -0.1067
51151SOL    HW165177   4.125  11.484   5.182  2.0258 -0.9938 -2.1166
51151SOL    HW265178   4.130  11.635   5.201 -2.9156 -0.9822  1.1144
51152SOL     OW65179   4.713  10.890   9.184 -0.0342 -0.1965 -0.3827
51152SOL    HW165180   4.645  10.927   9.128 -0.1047 -0.2957 -0.3621
51152SOL    HW265181   4.745  10.964   9.236  0.2807 -0.0271 -0.8080
51153SOL     OW65182   3.613   7.826   0.683  0.1736  0.2500  0.3206
51153SOL    HW165183   3.644   7.789   0.766  0.3868 -0.2262  0.0309
51153SOL    HW265184   3.624   7.921   0.694 -0.1517  0.2227  0.9786
51154SOL     OW65185   5.799   2.424   0.027  0.4291  0.2620 -0.4871
51154SOL    HW165186   5.812   2.425   0.122  0.2968 -1.1317 -0.4442
51154SOL    HW265187   5.869   2.480  -0.007  1.8346 -0.9338  0.2996
51155SOL     OW65188   0.540   8.266   6.027 -0.3849 -0.3291 -0.2828
51155SOL    HW165189   0.585   8.309   5.955 -0.1657  0.9681  0.6163
51155SOL    HW265190   0.589   8.185   6.041  0.0609 -0.1989 -1.0440
51156SOL     OW65191  10.928  11.572   7.010 -0.6774 -0.3818  0.0275
51156SOL    HW165192  10.885  11.636   6.954 -0.2287  1.4392  1.6555
51156SOL    HW265193  10.859  11.543   7.070 -0.9690 -1.7613 -0.9207
51157SOL     OW65194   1.481   4.500   7.261  0.2075 -0.1048 -0.0923
51157SOL    HW165195   1.520   4.489   7.347 -1.5463  2.1376  1.0973
51157SOL    HW265196   1.388   4.512   7.277 -0.2871 -0.3147 -2.3736
51158SOL     OW65197   2.642   6.095  11.129  0.4406  0.2266  0.3662
51158SOL    HW165198   2.671   6.059  11.213 -0.1085  0.5336  0.6961
51158SOL    HW265199   2.701   6.056  11.064 -0.1174 -1.2638  0.7077
51159SOL     OW65200   2.236   8.583   5.021  0.1191  0.3371 -0.0689
51159SOL    HW165201   2.179   8.518   5.061 -0.8211  0.8393 -0.5453
51159SOL    HW265202   2.239   8.655   5.084  0.8657 -0.0103  0.2990
51160SOL     OW65203   6.832   1.284  10.080 -0.2115  0.0613 -0.3040
51160SOL    HW165204   6.769   1.247  10.018  0.8310 -1.7347 -0.3745
51160SOL    HW265205   6.844   1.215  10.145  0.2139  1.1422  0.8037
51161SOL     OW65206   6.630   2.785   5.535 -0.3043 -0.1986 -0.1630
51161SOL    HW165207   6.699   2.764   5.472 -0.2732  1.2582 -0.6464
51161SOL    HW265208   6.602   2.874   5.511 -0.4422  0.3098  1.7286
51162SOL     OW65209   9.836   7.311  10.586 -0.3877 -0.6668 -0.1053
51162SOL    HW165210   9.871   7.296  10.498 -0.4147 -0.5161 -0.1410
51162SOL    HW265211   9.913   7.318  10.642 -0.3794 -1.7341  0.0425
51163SOL     OW65212   9.613   1.322   0.978 -0.5240  0.2440  0.1680
51163SOL    HW165213   9.658   1.261   1.037  0.7024  0.3698 -0.5984
51163SOL    HW265214   9.568   1.383   1.036  1.4252  0.9475  1.0287
51164SOL     OW65215   8.835   9.476   7.807 -0.1630 -0.6733  0.2806
51164SOL    HW165216   8.839   9.571   7.799  1.5047 -0.7722 -0.4826
51164SOL    HW265217   8.902   9.444   7.748  1.0719 -2.2273  2.3816
51165SOL     OW65218   7.757   1.390   7.779  0.2957 -0.2184 -0.9225
51165SOL    HW165219   7.669   1.353   7.781  0.7133 -1.2484  0.7766
51165SOL    HW265220   7.806   1.334   7.719  0.0861 -0.3771 -0.9475
51166SOL     OW65221   6.582   9.372   6.586 -0.2552  0.2993  0.0820
51166SOL    HW165222   6.661   9.320   6.570 -1.9269 -2.4166  0.0335
51166SOL    HW265223   6.610   9.441   6.647  2.1335 -0.4874 -0.0233
51167SOL     OW65224   0.982   2.156   9.688  0.0701 -0.1965  0.4578
51167SOL    HW165225   0.914   2.091   9.703 -1.0346  0.4798 -1.2488
51167SOL    HW265226   0.967   2.185   9.598  1.7537  0.9945  0.5243
51168SOL     OW65227   6.367   0.388   9.907  0.6706  0.0316  0.0006
51168SOL    HW165228   6.377   0.294   9.892  0.5665 -0.1859  1.2032
51168SOL    HW265229   6.452   0.425   9.883  1.2495 -0.5801  1.0429
51169SOL     OW65230   6.292   5.769   6.024 -0.4189  0.7385  0.2769
51169SOL    HW165231   6.324   5.817   6.100 -1.1301 -1.2179  1.8913
51169SOL    HW265232   6.256   5.837   5.967  1.8223  2.4632  0.7457
51170SOL     OW65233   3.567   5.585   6.680  0.4960 -0.0973 -0.0670
51170SOL    HW165234   3.582   5.506   6.630 -0.6812 -0.4126  0.0427
51170SOL    HW265235   3.586   5.657   6.619 -1.2947 -0.4675 -1.1276
51171SOL     OW65236   4.541   8.416   4.953  0.2767  0.4286  0.1513
51171SOL    HW165237   4.511   8.497   4.911 -0.6640 -0.5602 -1.1886
51171SOL    HW265238   4.492   8.412   5.035 -0.5197  0.6929 -0.2938
51172SOL     OW65239   7.288   1.360  10.186 -0.1161 -0.5851  0.2830
51172SOL    HW165240   7.236   1.333  10.110  0.1585  0.2537 -0.2149
51172SOL    HW265241   7.331   1.279  10.215  0.1992 -0.8217 -0.7917
51173SOL     OW65242   0.275   6.440  10.370 -0.3699  0.0662 -0.0643
51173SOL    HW165243   0.320   6.381  10.310  0.3713 -1.2284  1.7082
51173SOL    HW265244   0.187   6.447  10.334 -0.8648 -3.0972  0.2689
51174SOL     OW65245   0.117  10.082   6.433 -0.0926  0.1210 -0.0027
51174SOL    HW165246   0.118  10.145   6.505  0.4894 -0.2241  0.3010
51174SOL    HW265247   0.210  10.065   6.416 -0.2395 -1.8296  0.9602
51175SOL     OW65248   2.814   1.440   6.328 -0.3036  0.3313  0.6429
51175SOL    HW165249   2.902   1.475   6.318  0.0996 -1.0449 -0.9570
51175SOL    HW265250   2.757   1.515   6.308  0.5116  0.7308 -0.2565
51176SOL     OW65251  10.008  10.890   4.493  0.2766  0.5832  0.3505
51176SOL    HW165252  10.021  10.815   4.552 -3.1829 -0.0924  0.4546
51176SOL    HW265253   9.974  10.959   4.550 -3.5340 -0.2130 -0.7315
51177SOL     OW65254   3.710   2.893   0.109  0.3934  0.5990  0.3875
51177SOL    HW165255   3.761   2.815   0.127  0.5279  0.4352 -0.6271
51177SOL    HW265256   3.687   2.886   0.016  0.0087  1.5293  0.3963
51178SOL     OW65257   0.875   6.104  11.913 -0.0167 -0.2391  0.1954
51178SOL    HW165258   0.924   6.185  11.927 -1.0474  1.0001 -2.6193
51178SOL    HW265259   0.931   6.052  11.856 -0.7926  0.0567 -0.8748
51179SOL     OW65260   6.580   8.523  11.608  0.3058  0.2389  0.3058
51179SOL    HW165261   6.542   8.463  11.672  0.2238 -2.0217 -1.7136
51179SOL    HW265262   6.505   8.569  11.571  0.0338 -0.4754 -0.0656
51180SOL     OW65263   1.541   5.164   8.948 -0.1148  0.1279  0.2897
51180SOL    HW165264   1.581   5.247   8.974 -0.0504  0.0762  0.3560
51180SOL    HW265265   1.447   5.183   8.944 -0.2095 -0.0680  1.3347
51181SOL     OW65266   8.853  11.849   8.236 -0.3152 -1.4039  0.8536
51181SOL    HW165267   8.813  11.935   8.225  1.1044 -0.6488  1.4148
51181SOL    HW265268   8.908  11.857   8.314  0.2379 -2.6745  0.6320
51182SOL     OW65269   6.544   3.560   1.407  1.1126 -0.1489  0.0874
51182SOL    HW165270   6.630   3.590   1.436  1.6923 -0.7843 -0.9106
51182SOL    HW265271   6.521   3.617   1.333  1.0384 -0.4740 -0.1457
51183SOL     OW65272   4.727   1.944   9.154 -0.2811 -0.7837 -0.5702
51183SOL    HW165273   4.822   1.955   9.148 -0.1476 -0.4694  1.4701
51183SOL    HW265274   4.715   1.849   9.163 -0.1715 -0.8315 -0.9194
51184SOL     OW65275   2.737  11.239   2.453 -0.7272 -0.2103 -0.1384
51184SOL    HW165276   2.648  11.211   2.475 -0.3407 -1.8269 -0.5028
51184SOL    HW265277   2.786  11.158   2.445  0.6310  0.6305 -0.6234
51185SOL     OW65278   5.076   2.512   7.864  0.3372 -0.4641 -0.1805
51185SOL    HW165279   5.082   2.417   7.875 -1.2252 -0.5705 -0.0358
51185SOL    HW265280   5.072   2.547   7.953 -1.9240 -0.5205 -0.2023
51186SOL     OW65281   5.018   4.336   4.837  0.3345 -0.0942 -0.2256
51186SOL    HW165282   5.048   4.250   4.865  0.7437  0.2955  0.5512
51186SOL    HW265283   5.077   4.360   4.765 -0.4979 -0.9398 -1.2339
51187SOL     OW65284  10.602  10.842  10.572  0.0831  0.4216  0.0130
51187SOL    HW165285  10.519  10.853  10.525  0.0514  1.0236  0.1971
51187SOL    HW265286  10.615  10.926  10.616  1.8166  1.0908 -1.6528
51188SOL     OW65287   5.382   5.547   6.727  0.1483  0.1557  0.1872
51188SOL    HW165288   5.364   5.546   6.820  0.4171  0.9449  0.2575
51188SOL    HW265289   5.317   5.606   6.690  0.6504  0.6218  0.0243
51189SOL     OW65290   7.828   3.454   6.026 -0.0506 -0.0951  0.2110
51189SOL    HW165291   7.819   3.549   6.026 -2.3538 -0.1927 -1.6427
51189SOL    HW265292   7.744   3.422   6.060  0.6324 -1.4668  0.6793
51190SOL     OW65293  11.648   1.952   1.244 -0.4780 -0.0303  0.2162
51190SOL    HW165294  11.743   1.963   1.247 -0.5761  0.9411 -0.1411
51190SOL    HW265295  11.634   1.880   1.183  0.0345 -0.3505  0.4722
51191SOL     OW65296   4.700   7.205  10.030  0.2920 -0.1464 -1.0889
51191SOL    HW165297   4.785   7.200  10.073  0.3120 -4.1658 -1.2146
51191SOL    HW265298   4.720   7.219   9.938  0.7033  0.7187 -0.8725
51192SOL     OW65299   3.892   7.180   7.956  0.0218 -0.8788  0.4634
51192SOL    HW165300   3.928   7.169   8.044  1.5034  0.8478  0.1466
51192SOL    HW265301   3.965   7.157   7.898 -0.0778  0.4507 -0.2322
51193SOL     OW65302   5.467   4.761   3.189  0.1413 -0.4497 -0.1326
51193SOL    HW165303   5.504   4.847   3.167 -1.7210  0.7162  0.9237
51193SOL    HW265304   5.488   4.749   3.282  0.6784 -1.3081 -0.3584
51194SOL     OW65305   2.595   1.446   8.432  0.0679 -0.2756  0.1667
51194SOL    HW165306   2.658   1.518   8.426  1.1504 -1.1813  0.3376
51194SOL    HW265307   2.645   1.368   8.409 -1.3167 -0.8751 -0.9346
51195SOL     OW65308   6.712  11.776   7.662 -0.1683 -0.3961  0.1568
51195SOL    HW165309   6.712  11.868   7.686 -2.4946  0.1190 -1.4601
51195SOL    HW265310   6.801  11.746   7.681  0.5072  2.0353  1.1793
51196SOL     OW65311   0.230   3.168   0.353  0.2655 -0.2770 -0.1691
51196SOL    HW165312   0.211   3.095   0.294 -0.0459 -0.7843  0.5474
51196SOL    HW265313   0.176   3.152   0.430 -1.3780  1.7707 -0.7747
51197SOL     OW65314   1.135  11.193   7.227 -0.7580  0.5755 -0.0055
51197SOL    HW165315   1.045  11.169   7.248 -0.3577 -1.9657 -0.8938
51197SOL    HW265316   1.127  11.251   7.150 -1.6744  1.8526  1.0081
51198SOL     OW65317   2.504   0.945   9.446  0.0065 -0.5285  0.4647
51198SOL    HW165318   2.477   0.960   9.537  0.1825 -0.5444  0.5185
51198SOL    HW265319   2.563   0.870   9.450 -0.2584 -0.7476  0.2913
51199SOL     OW65320   6.452   9.465   7.507  0.3556 -0.0959 -0.3820
51199SOL    HW165321   6.397   9.541   7.487  0.6737  0.2853  0.1743
51199SOL    HW265322   6.518   9.464   7.437 -0.0829 -0.2934 -0.8009
51200SOL     OW65323   4.459  11.215   9.194 -0.1550  0.1347 -0.1845
51200SOL    HW165324   4.443  11.138   9.139  0.8010 -0.1575 -0.0861
51200SOL    HW265325   4.461  11.180   9.284  0.4423  0.2333 -0.1521
51201SOL     OW65326   4.953   7.704   0.421 -0.0956 -0.1685 -0.1177
51201SOL    HW165327   5.000   7.623   0.443  2.4019  1.3968  0.7284
51201SOL    HW265328   4.938   7.697   0.327  1.8399 -0.8137 -0.4374
51202SOL     OW65329   8.169   6.151   1.829  0.4252  0.0351 -0.7332
51202SOL    HW165330   8.160   6.105   1.913 -2.7353 -1.6972 -1.8435
51202SOL    HW265331   8.171   6.082   1.763  1.5768  1.3871 -2.1924
51203SOL     OW65332   0.399   3.142   1.556 -0.4845 -0.5097 -0.2437
51203SOL    HW165333   0.311   3.163   1.525 -1.4461 -2.5969  0.9004
51203SOL    HW265334   0.447   3.117   1.476 -2.0208 -2.8430 -0.5241
51204SOL     OW65335   6.831   9.237   4.287  0.3869  0.2406  0.6731
51204SOL    HW165336   6.787   9.314   4.251  0.2934  0.4802  1.2981
51204SOL    HW265337   6.810   9.167   4.225 -1.1112  0.2788  1.1069
51205SOL     OW65338   1.127   5.394   1.039  0.1575  0.0484  0.0146
51205SOL    HW165339   1.175   5.314   1.016 -0.4213 -0.2808 -0.0858
51205SOL    HW265340   1.179   5.465   1.004  0.0072 -0.3652 -1.0843
51206SOL     OW65341   6.030   8.457   2.364  0.3579 -0.6097  0.0758
51206SOL    HW165342   6.065   8.434   2.450  0.6682  1.4846  0.5705
51206SOL    HW265343   6.088   8.526   2.332 -0.7923 -0.1013 -1.0177
51207SOL     OW65344  10.370   8.930   6.202  0.0569 -0.1197  0.2168
51207SOL    HW165345  10.455   8.945   6.160  0.1531 -0.8488  0.1411
51207SOL    HW265346  10.380   8.968   6.289  0.7339 -0.8969  0.4876
51208SOL     OW65347   7.195   0.965   0.334 -0.4428 -0.2365 -0.0864
51208SOL    HW165348   7.112   0.959   0.287 -1.2027  0.6806  1.0666
51208SOL    HW265349   7.176   0.931   0.421  0.5143 -0.4323  0.0545
51209SOL     OW65350   9.336   7.499   5.704 -0.2400 -0.2587  0.2936
51209SOL    HW165351   9.376   7.418   5.736  0.4202 -0.3951 -0.8428
51209SOL    HW265352   9.297   7.538   5.782  0.1168 -1.2765  1.0062
51210SOL     OW65353   7.230   8.692   1.338 -0.2446 -0.1347 -0.3428
51210SOL    HW165354   7.182   8.710   1.257  1.3899  1.8981 -0.9600
51210SOL    HW265355   7.190   8.750   1.403 -2.1748 -2.4266  0.6663
51211SOL     OW65356   0.885   5.616   0.504  0.1129 -0.1701  0.0185
51211SOL    HW165357   0.968   5.640   0.463 -0.6703  1.3307 -0.7690
51211SOL    HW265358   0.822   5.615   0.432 -0.7945 -0.0412  0.7933
51212SOL     OW65359   9.846   9.932   6.806  0.0354  0.3351 -0.0676
51212SOL    HW165360   9.905   9.896   6.740 -1.0314 -2.2333  0.2679
51212SOL    HW265361   9.900   9.937   6.885 -0.2059 -2.7463  0.4473
51213SOL     OW65362  10.547   7.754   6.084  0.1413 -0.7526  0.1098
51213SOL    HW165363  10.558   7.781   6.175  0.4910  0.2513 -0.2098
51213SOL    HW265364  10.593   7.821   6.033 -1.3711 -0.4027 -0.8878
51214SOL     OW65365   4.848   6.133   8.409  0.4650 -0.2515  0.2486
51214SOL    HW165366   4.908   6.167   8.343  0.3098 -2.3126 -1.0582
51214SOL    HW265367   4.875   6.042   8.422  0.2902 -0.0297  2.8476
51215SOL     OW65368  10.528   2.722   0.642 -0.2135 -0.7643 -0.3242
51215SOL    HW165369  10.586   2.795   0.620  0.0849 -1.1541 -0.8493
51215SOL    HW265370  10.446   2.741   0.597 -0.3498 -0.4463  0.0456
51216SOL     OW65371   8.687   7.966   5.637  0.0307 -0.1817  0.4261
51216SOL    HW165372   8.623   7.926   5.578  1.7389 -0.7497 -1.1350
51216SOL    HW265373   8.740   8.022   5.581  1.2313 -0.1187  1.5735
51217SOL     OW65374   3.261   5.614   8.857 -0.0618  0.1147  0.4902
51217SOL    HW165375   3.217   5.676   8.915 -1.0870  0.2482 -0.4012
51217SOL    HW265376   3.200   5.541   8.849  0.3358 -0.1761  0.0511
51218SOL     OW65377   1.792  11.104   5.168  0.0220  0.2936  0.0413
51218SOL    HW165378   1.825  11.186   5.130 -0.7285  0.7375  0.3186
51218SOL    HW265379   1.698  11.105   5.149 -0.2801  0.2666  1.4342
51219SOL     OW65380   3.735  10.608  10.874  0.4758 -0.2119  0.1150
51219SOL    HW165381   3.786  10.574  10.947  0.1345  0.0440  0.4774
51219SOL    HW265382   3.777  10.573  10.796  0.6304 -0.7751  0.4506
51220SOL     OW65383  10.421   8.817   8.721  0.0437  0.0301  0.4856
51220SOL    HW165384  10.448   8.865   8.799 -0.5330  1.0580  0.0719
51220SOL    HW265385  10.387   8.884   8.661 -2.7780 -1.0349  0.7101
51221SOL     OW65386   8.317   8.559  10.903  0.0061 -0.4525  0.4261
51221SOL    HW165387   8.405   8.591  10.881 -0.2160  1.2876  1.8266
51221SOL    HW265388   8.267   8.638  10.922 -1.5337 -1.4834  0.8294
51222SOL     OW65389   5.883  11.401  11.372  0.4956  0.4753 -0.3444
51222SOL    HW165390   5.803  11.352  11.392  0.0157  1.4305  0.1158
51222SOL    HW265391   5.905  11.375  11.282  2.5230 -3.6752  1.0816
51223SOL     OW65392   0.956   9.676   5.141  0.3805 -0.0795  0.4953
51223SOL    HW165393   0.946   9.718   5.056  0.7039 -1.2581 -0.1534
51223SOL    HW265394   0.981   9.746   5.200 -1.2382  1.0128 -0.0753
51224SOL     OW65395   0.598   6.366  11.113 -0.5256 -0.4792 -0.3083
51224SOL    HW165396   0.511   6.398  11.134 -0.6130 -1.0514  0.2577
51224SOL    HW265397   0.595   6.347  11.019 -1.6978 -2.4909  0.0784
51225SOL     OW65398  10.875   0.643   3.789  0.4777  0.2421 -0.1239
51225SOL    HW165399  10.826   0.725   3.783  1.7789  1.1980  1.5222
51225SOL    HW265400  10.866   0.617   3.881  0.7994 -1.0219 -0.4280
51226SOL     OW65401   9.044   2.639   3.127  0.4116 -0.4390 -0.1945
51226SOL    HW165402   9.067   2.555   3.087  1.9455 -1.3716  2.3838
51226SOL    HW265403   8.990   2.616   3.203 -2.1535  1.2190 -1.3903
51227SOL     OW65404   1.603   7.112   1.444  0.1183 -1.1873  0.0502
51227SOL    HW165405   1.658   7.097   1.521  1.1645 -0.6755 -0.5648
51227SOL    HW265406   1.514   7.094   1.473  0.2620  0.6247  1.8589
51228SOL     OW65407   3.638   4.356   9.400 -0.0184  0.5454  0.2989
51228SOL    HW165408   3.597   4.269   9.397  1.3232 -0.1183  0.3587
51228SOL    HW265409   3.599   4.404   9.328  0.8256 -0.8830 -1.1708
51229SOL     OW65410   3.196   5.424   1.710 -0.1414 -0.0597  0.0181
51229SOL    HW165411   3.136   5.480   1.759  1.4663  1.3554  0.4268
51229SOL    HW265412   3.139   5.373   1.652 -1.8865 -0.1384  1.7096
51230SOL     OW65413   0.586   9.019   9.376 -0.1666  0.0236  0.0511
51230SOL    HW165414   0.625   8.976   9.300 -0.1342 -0.1359  0.1572
51230SOL    HW265415   0.655   9.077   9.408  0.0837 -0.4651  0.4049
51231SOL     OW65416   7.773   1.520  11.766  0.9387  0.4071  0.0888
51231SOL    HW165417   7.850   1.545  11.716 -0.9858 -1.1403 -4.1957
51231SOL    HW265418   7.787   1.428  11.788  0.6238  0.2886 -0.1841
51232SOL     OW65419   2.673   2.998  11.465 -0.4140 -0.0435  0.0201
51232SOL    HW165420   2.751   2.944  11.456 -0.1153  0.3718  0.0847
51232SOL    HW265421   2.621   2.978  11.387 -0.8588 -1.2815  0.5992
51233SOL     OW65422   2.762   1.518   2.523 -1.1666 -0.4830 -0.0579
51233SOL    HW165423   2.755   1.442   2.466 -0.6848 -0.6452  0.0937
51233SOL    HW265424   2.696   1.503   2.591  1.7941 -3.0286  2.5523
51234SOL     OW65425  10.012   1.013   1.431  0.5611 -0.2781 -0.0144
51234SOL    HW165426   9.985   1.081   1.493 -0.9152 -1.3476  0.5836
51234SOL    HW265427  10.050   0.945   1.485  0.7800 -0.5183 -0.4664
51235SOL     OW65428   3.410  11.647   6.215 -0.3836 -0.4105  0.0302
51235SOL    HW165429   3.457  11.591   6.277  0.1086 -0.8655 -0.7397
51235SOL    HW265430   3.465  11.648   6.137 -1.0013  0.1455 -0.4086
51236SOL     OW65431  10.040  11.160   8.767 -0.1831 -0.4390 -0.7308
51236SOL    HW165432   9.958  11.155   8.719 -0.3341 -1.4764 -0.3986
51236SOL    HW265433  10.054  11.254   8.781 -0.1791 -0.1164 -2.6742
51237SOL     OW65434  10.355   4.190   2.664 -0.0519 -0.5454 -0.2141
51237SOL    HW165435  10.302   4.165   2.738  0.8421  0.5182  0.8326
51237SOL    HW265436  10.302   4.253   2.616  0.1290  0.2896  0.6598
51238SOL     OW65437   4.410   2.761   2.846  0.6919  0.4093  0.0210
51238SOL    HW165438   4.363   2.762   2.930 -0.5132 -1.6369 -0.5715
51238SOL    HW265439   4.501   2.746   2.871  0.1097 -1.9839  0.9394
51239SOL     OW65440   5.617   8.335   3.925 -0.2086 -0.0595 -0.0736
51239SOL    HW165441   5.631   8.304   4.015 -0.6875  1.7201  0.6540
51239SOL    HW265442   5.701   8.373   3.899  0.0263 -0.8508 -0.5360
51240SOL     OW65443   5.903   6.548   8.590  0.0568  0.2664 -0.7751
51240SOL    HW165444   5.992   6.568   8.562 -0.6300  1.1082 -2.5761
51240SOL    HW265445   5.865   6.633   8.611 -0.2099 -0.1322  0.4454
51241SOL     OW65446   7.487   6.221   0.658  0.1335 -0.0523 -0.2359
51241SOL    HW165447   7.402   6.236   0.617 -1.3361 -1.1662  2.1998
51241SOL    HW265448   7.499   6.126   0.654 -0.0554 -0.2078  1.7658
51242SOL     OW65449   4.517   7.515  10.468 -0.4467 -0.1330  0.2560
51242SOL    HW165450   4.479   7.469  10.393 -1.1532 -1.0979  1.1718
51242SOL    HW265451   4.504   7.456  10.541  0.0064  0.8988  1.1980
51243SOL     OW65452   8.049   7.978   9.649  0.6796  0.0955  0.6841
51243SOL    HW165453   8.030   7.982   9.556 -0.2750 -2.5226  0.6885
51243SOL    HW265454   8.144   7.990   9.655  0.6648  1.0398 -0.5013
51244SOL     OW65455   3.472   5.999   4.719  0.2282  0.5870 -0.3168
51244SOL    HW165456   3.401   5.935   4.726 -0.6094  1.3344 -1.6240
51244SOL    HW265457   3.465   6.051   4.799 -0.7936  0.7467 -0.5044
51245SOL     OW65458   2.502  10.430   0.805  0.1099 -0.6326  0.5314
51245SOL    HW165459   2.472  10.342   0.827  0.5588 -0.6371  1.1538
51245SOL    HW265460   2.497  10.435   0.710  1.0929 -1.6941  0.4077
51246SOL     OW65461   6.546  11.311   0.851  0.4523  0.4088  0.1541
51246SOL    HW165462   6.595  11.228   0.855  0.0205  0.1808  1.1247
51246SOL    HW265463   6.469  11.291   0.798  0.3020  0.1579  0.4623
51247SOL     OW65464   0.562   2.934   8.215  0.0811  0.0199 -0.1422
51247SOL    HW165465   0.608   3.006   8.173 -1.2790  1.5959  0.9659
51247SOL    HW265466   0.477   2.931   8.172  0.7029 -2.1298 -1.3846
51248SOL     OW65467  11.570   7.333   8.599 -0.0246  0.6072  0.1620
51248SOL    HW165468  11.553   7.414   8.551  1.0936 -0.0200 -1.3975
51248SOL    HW265469  11.495   7.277   8.579 -1.0344  1.3822  1.6279
51249SOL     OW65470   4.999   1.170   1.502 -0.3255  0.3465 -0.2714
51249SOL    HW165471   4.956   1.196   1.583 -0.8790  0.3450 -0.5580
51249SOL    HW265472   4.928   1.163   1.438  0.0348 -0.1784 -0.6234
51250SOL     OW65473   7.652   8.929   6.359  0.1481  0.1979  0.0613
51250SOL    HW165474   7.599   8.985   6.416 -0.8850  1.2683 -1.8609
51250SOL    HW265475   7.600   8.919   6.280  2.0030 -0.3111 -1.1544
51251SOL     OW65476   7.648   3.918  10.782 -0.3985  0.3968  0.2422
51251SOL    HW165477   7.618   3.923  10.873  0.7198  1.5922  0.5657
51251SOL    HW265478   7.743   3.912  10.788 -0.1434  2.5043 -0.8705
51252SOL     OW65479   2.384   7.661   7.516  0.0348  0.4300  0.0308
51252SOL    HW165480   2.327   7.586   7.508 -0.8286  0.8413  1.8606
51252SOL    HW265481   2.328   7.736   7.496  0.9564  0.6133 -2.0674
51253SOL     OW65482   2.217   3.497  11.004  0.2006  0.3319 -0.1582
51253SOL    HW165483   2.193   3.498  10.911 -1.6099 -0.5880  0.2563
51253SOL    HW265484   2.134   3.486  11.050  1.1340  0.1159  1.5619
51254SOL     OW65485   2.218  10.148   3.198 -0.5249 -0.2797  0.0032
51254SOL    HW165486   2.313  10.145   3.185 -0.2037 -0.7243  2.0975
51254SOL    HW265487   2.188  10.216   3.138  1.2980  0.8396  0.2735
51255SOL     OW65488   5.229   0.412   4.145 -0.4318  0.4816  0.4219
51255SOL    HW165489   5.317   0.380   4.164 -0.4185 -0.8195 -1.5334
51255SOL    HW265490   5.238   0.507   4.141  0.4456  0.5104  2.1339
51256SOL     OW65491   8.515   2.653   8.380 -0.3644 -0.3017  0.0489
51256SOL    HW165492   8.564   2.598   8.319  0.8210  0.3496  0.3818
51256SOL    HW265493   8.429   2.612   8.386  0.5402 -2.2577  0.4798
51257SOL     OW65494   8.591   3.214  10.425 -0.6513 -0.4586  0.1872
51257SOL    HW165495   8.632   3.129  10.412  0.7130  0.3576 -1.0428
51257SOL    HW265496   8.663   3.274  10.445 -1.6360  0.3369  1.5851
51258SOL     OW65497   6.492   1.551   3.695  0.1110 -0.2433 -0.1545
51258SOL    HW165498   6.544   1.631   3.691  1.2693 -0.8531  1.4400
51258SOL    HW265499   6.549   1.488   3.740 -1.3567 -1.4847  0.0412
51259SOL     OW65500   2.393   3.356   9.018  0.6686 -0.4868 -0.0005
51259SOL    HW165501   2.384   3.451   9.024  0.0037 -0.5654  0.5490
51259SOL    HW265502   2.443   3.340   8.938  0.0179  0.2888 -0.5747
51260SOL     OW65503   9.429   3.546   4.578 -0.4202 -0.0752 -0.1033
51260SOL    HW165504   9.410   3.568   4.487  2.0524  1.4269 -0.3431
51260SOL    HW265505   9.517   3.507   4.576 -0.1719  0.2917  1.6631
51261SOL     OW65506   0.632   7.352   8.650 -0.0216  0.4986  0.0185
51261SOL    HW165507   0.675   7.364   8.565 -1.0512 -1.0557 -0.7881
51261SOL    HW265508   0.624   7.440   8.686  0.0958  1.2491 -1.6853
51262SOL     OW65509   6.041   5.568   9.062 -0.4684 -0.4312 -0.2960
51262SOL    HW165510   6.103   5.522   9.118  0.3622  2.2558  1.1078
51262SOL    HW265511   5.962   5.577   9.115 -0.3769  0.3712 -0.2909
51263SOL     OW65512   7.576   2.510   8.162  0.6923  0.2059 -0.3100
51263SOL    HW165513   7.598   2.558   8.242  1.3642 -0.2763 -0.1938
51263SOL    HW265514   7.614   2.423   8.175  1.7186  0.4353 -1.5818
51264SOL     OW65515   9.329   5.073  11.944 -0.2792  0.2649  0.1927
51264SOL    HW165516   9.420   5.079  11.917 -0.7290 -0.0832 -1.5141
51264SOL    HW265517   9.286   5.148  11.902 -0.7495  0.5762  1.1893
51265SOL     OW65518   0.576   5.184   1.173  0.4276  0.1115  0.1147
51265SOL    HW165519   0.493   5.148   1.205  0.6988 -0.8118 -0.1839
51265SOL    HW265520   0.562   5.279   1.172 -0.4842 -0.0064  0.4484
51266SOL     OW65521   9.566   6.340   0.425 -0.3596 -0.0777 -0.2388
51266SOL    HW165522   9.480   6.353   0.465 -0.5577 -0.0499 -0.6756
51266SOL    HW265523   9.551   6.348   0.331  0.2895  0.9080 -0.2815
51267SOL     OW65524  11.762   6.294   3.546 -0.9028  0.5096  0.2717
51267SOL    HW165525  11.833   6.344   3.504 -1.0361  0.5226  0.0617
51267SOL    HW265526  11.751   6.217   3.491 -0.2751 -0.0792  0.9358
51268SOL     OW65527   3.169   2.663  10.462 -0.1519  0.1317 -0.9699
51268SOL    HW165528   3.121   2.671  10.380 -0.0713 -1.4251 -1.2067
51268SOL    HW265529   3.179   2.753  10.493  0.1740  0.7988 -2.8617
51269SOL     OW65530   6.054   1.858   7.815  0.6021 -0.4704 -0.0254
51269SOL    HW165531   6.085   1.768   7.820  1.8555 -0.0516 -0.0133
51269SOL    HW265532   6.133   1.911   7.815 -0.1340  0.6721  0.6693
51270SOL     OW65533   6.236   5.499  11.408 -0.7901 -0.0459 -0.2762
51270SOL    HW165534   6.279   5.540  11.483  0.7888 -1.6623 -0.2147
51270SOL    HW265535   6.265   5.550  11.332 -0.1157 -0.0817 -0.0523
51271SOL     OW65536   1.753   5.627   3.758 -0.7682 -0.5208  0.2122
51271SOL    HW165537   1.770   5.637   3.851 -1.6256  3.3078  0.1275
51271SOL    HW265538   1.772   5.535   3.739  3.2727 -0.5715  3.3209
51272SOL     OW65539   5.834   2.680  10.459 -0.2887 -0.0589 -0.1293
51272SOL    HW165540   5.840   2.622  10.535 -0.1863  0.8593  0.5716
51272SOL    HW265541   5.919   2.722  10.454 -0.3188 -0.0615 -0.7194
51273SOL     OW65542  10.859   7.588  10.015 -0.4921  0.2956 -0.1980
51273SOL    HW165543  10.841   7.497  10.040 -0.5077  0.1944 -0.5737
51273SOL    HW265544  10.898   7.582   9.928 -1.1999  0.6952 -0.5527
51274SOL     OW65545   7.713   2.396   9.965 -0.4141  0.5991 -0.3578
51274SOL    HW165546   7.749   2.404   9.877  3.3585  0.3064  0.9803
51274SOL    HW265547   7.728   2.482  10.005 -2.6070  0.9110 -0.1060
51275SOL     OW65548   4.276   8.187   0.550 -0.6692  0.0344 -0.3087
51275SOL    HW165549   4.348   8.133   0.583 -1.3158 -0.5562  0.1686
51275SOL    HW265550   4.197   8.143   0.581 -1.4043 -1.2440 -3.5861
51276SOL     OW65551   3.439   4.186   3.954  0.1535 -0.4521 -0.2799
51276SOL    HW165552   3.379   4.116   3.929 -0.2690  0.2808 -1.3832
51276SOL    HW265553   3.386   4.245   4.008 -0.7744  1.2544 -2.8921
51277SOL     OW65554  10.262   3.343   7.134  0.0718 -0.1961  0.5428
51277SOL    HW165555  10.207   3.266   7.145 -1.6321  0.8804  0.0411
51277SOL    HW265556  10.205   3.416   7.158  1.7156  0.8968  1.2699
51278SOL     OW65557   4.355   8.790   7.525 -0.2768  0.3538  0.1125
51278SOL    HW165558   4.336   8.730   7.597  3.4286 -0.0992  0.9056
51278SOL    HW265559   4.442   8.765   7.495 -0.6693  2.1540 -2.9381
51279SOL     OW65560   9.306  11.490   3.756  0.0754  0.0991  0.3089
51279SOL    HW165561   9.366  11.555   3.792 -0.2655  0.2710  0.5638
51279SOL    HW265562   9.243  11.473   3.826  1.0795 -1.6864  0.8580
51280SOL     OW65563  11.773   6.116  11.010 -0.3923  0.3602 -0.3995
51280SOL    HW165564  11.789   6.073  10.926  0.0211  0.5600 -0.4228
51280SOL    HW265565  11.827   6.195  11.008 -0.1185  0.1932  0.2006
51281SOL     OW65566   1.611   9.373  10.853  0.1090  0.4557  0.2329
51281SOL    HW165567   1.603   9.452  10.906  1.5344  0.7953 -0.0044
51281SOL    HW265568   1.670   9.316  10.903 -0.1060 -0.0388 -0.0647
51282SOL     OW65569   4.037   6.146   9.886 -0.1478  0.4709 -0.2937
51282SOL    HW165570   4.088   6.203   9.828  1.3057  1.1088  1.5017
51282SOL    HW265571   3.968   6.202   9.922 -0.5745  0.2789 -0.8028
51283SOL     OW65572   9.328   8.027   6.273 -0.1124 -0.1614  0.1972
51283SOL    HW165573   9.332   8.031   6.177 -0.9596 -1.5735  0.0728
51283SOL    HW265574   9.236   8.046   6.294  0.0615  0.1151  0.7333
51284SOL     OW65575  11.847   7.748   9.511  0.1167  0.5377  0.7231
51284SOL    HW165576  11.773   7.807   9.492  1.0882  1.2812 -0.9875
51284SOL    HW265577  11.806   7.669   9.547 -1.6754  0.3947 -1.4144
51285SOL     OW65578   8.639  10.114   6.368 -0.1306 -0.1498 -0.3446
51285SOL    HW165579   8.599  10.176   6.307  1.9854  0.4635 -1.2157
51285SOL    HW265580   8.663  10.039   6.313  1.5333  0.2866 -0.2878
51286SOL     OW65581   5.007   1.030   7.987 -0.0997  0.5601 -0.4738
51286SOL    HW165582   4.973   0.943   8.008 -0.3622  1.0856  1.4586
51286SOL    HW265583   5.085   1.039   8.040 -0.5696  1.8379  0.0379
51287SOL     OW65584   7.332  10.408   4.550  0.3498 -0.3482 -0.1043
51287SOL    HW165585   7.278  10.485   4.568  1.1393  0.6309 -1.6487
51287SOL    HW265586   7.275  10.351   4.498  0.1718 -0.2229 -0.0482
51288SOL     OW65587   2.132   7.145   9.409 -0.1429  0.0881 -0.7365
51288SOL    HW165588   2.125   7.214   9.344  0.1106  0.8130 -0.0151
51288SOL    HW265589   2.225   7.125   9.414  0.1530  1.5841  0.9275
51289SOL     OW65590   0.764   3.416  10.171 -0.0436 -0.2172  0.4850
51289SOL    HW165591   0.747   3.506  10.198 -2.6144  0.2391 -2.0990
51289SOL    HW265592   0.680   3.371  10.184  0.3186 -1.4383 -1.0194
51290SOL     OW65593   5.845   7.344   5.391 -0.2605  0.3217  0.2486
51290SOL    HW165594   5.830   7.306   5.478  1.7644  0.2538  0.6043
51290SOL    HW265595   5.794   7.288   5.332  0.8965 -1.6667  1.0251
51291SOL     OW65596   5.009   5.262   1.052 -0.3845  0.0929 -0.1961
51291SOL    HW165597   5.075   5.199   1.080  0.1448  0.8297  0.2516
51291SOL    HW265598   4.925   5.222   1.076 -0.1118 -0.8527 -0.7807
51292SOL     OW65599   8.091   1.859   2.052 -0.3325  0.2688  0.2069
51292SOL    HW165600   8.167   1.915   2.067  0.0787 -0.4133  0.7589
51292SOL    HW265601   8.127   1.770   2.051 -0.6850  0.0687 -2.4298
51293SOL     OW65602   7.093   9.975   5.304 -0.2934  0.1240 -0.3494
51293SOL    HW165603   7.131  10.042   5.361 -1.4418  1.0185 -0.6083
51293SOL    HW265604   7.002   9.966   5.333 -0.5654 -0.2620 -1.2644
51294SOL     OW65605   9.311  11.943   3.728 -0.3739  0.1849  0.1493
51294SOL    HW165606   9.280  12.020   3.776  0.9794 -0.7083  2.6893
51294SOL    HW265607   9.253  11.873   3.756 -1.5383  0.1900 -2.0786
51295SOL     OW65608   4.178  10.585   3.586 -0.3861  0.1104 -0.3000
51295SOL    HW165609   4.113  10.515   3.593 -0.4776  0.2211 -0.0474
51295SOL    HW265610   4.232  10.560   3.511  0.9479 -1.3938  1.0683
51296SOL     OW65611   5.344   0.215   9.964  0.4729  0.1469  0.1338
51296SOL    HW165612   5.403   0.201  10.039  2.9757 -1.8640 -2.0077
51296SOL    HW265613   5.263   0.169   9.989 -0.2469  2.6138  2.9731
51297SOL     OW65614   0.060   2.567  11.087  0.1854  1.0667  0.1369
51297SOL    HW165615   0.030   2.593  11.174  1.0584 -1.3945  1.2521
51297SOL    HW265616   0.155   2.576  11.091  0.2223  1.1307 -0.6570
51298SOL     OW65617   1.563  10.416   7.589 -0.3412 -0.4004 -0.1014
51298SOL    HW165618   1.474  10.453   7.582 -1.4273 -2.4395  1.8154
51298SOL    HW265619   1.571  10.359   7.513 -0.6194 -0.1448 -0.3278
51299SOL     OW65620   6.178  11.588  11.820 -0.0465  0.3732 -0.0016
51299SOL    HW165621   6.094  11.545  11.834 -1.4325  3.0991  0.7067
51299SOL    HW265622   6.177  11.663  11.879  3.6776 -0.4108  1.3286
51300SOL     OW65623   0.104   4.973   9.017 -0.2998 -0.0532 -0.4633
51300SOL    HW165624   0.060   4.994   8.935 -0.0487 -3.9706 -1.8419
51300SOL    HW265625   0.038   4.924   9.068  0.5418 -0.5318  0.1992
51301SOL     OW65626   4.004   5.520   7.693 -0.2315 -0.0105  0.7172
51301SOL    HW165627   4.076   5.564   7.738 -0.4376  1.3195 -0.1959
51301SOL    HW265628   4.022   5.426   7.705  2.7040  0.1948 -1.0522
51302SOL     OW65629   5.545   5.524   9.327  1.0111  0.3622 -0.0015
51302SOL    HW165630   5.479   5.534   9.259  1.0361 -1.6620 -0.3677
51302SOL    HW265631   5.506   5.464   9.391  2.2443 -0.3737  0.0921
51303SOL     OW65632   0.482   3.462   1.015  0.4217 -0.5453  0.1526
51303SOL    HW165633   0.450   3.487   1.102  1.3053  0.1521  0.2881
51303SOL    HW265634   0.463   3.368   1.009 -1.5273 -0.1920  0.2545
51304SOL     OW65635   2.430   5.230   4.742  0.2062 -0.2127 -0.4604
51304SOL    HW165636   2.366   5.226   4.671 -0.1187  0.2381 -0.2010
51304SOL    HW265637   2.401   5.303   4.796  1.3924  0.4898 -0.7557
51305SOL     OW65638   7.811   8.400   6.007 -0.3186 -0.0519  0.3537
51305SOL    HW165639   7.870   8.470   5.979  0.4127 -1.1569 -0.9865
51305SOL    HW265640   7.834   8.385   6.099 -1.1779  2.1001  0.9876
51306SOL     OW65641   4.702   4.841   9.399  0.7825 -0.1813 -0.3438
51306SOL    HW165642   4.641   4.899   9.445  0.2846 -0.0011 -1.1873
51306SOL    HW265643   4.688   4.755   9.439  0.1434 -0.0912 -0.3506
51307SOL     OW65644   7.336   0.158   5.149  0.2431 -0.3413 -0.0303
51307SOL    HW165645   7.357   0.127   5.061 -0.3206  0.4719 -0.4514
51307SOL    HW265646   7.422   0.173   5.190  0.5029 -0.4067 -0.5426
51308SOL     OW65647   5.496   4.197   0.344  0.1386 -0.1959 -0.4069
51308SOL    HW165648   5.403   4.195   0.320 -0.7103  1.3111  2.2568
51308SOL    HW265649   5.511   4.287   0.373  1.3488 -1.3144  2.8645
51309SOL     OW65650   0.069   1.616  10.693  0.0067  0.4328  0.2657
51309SOL    HW165651   0.040   1.656  10.775 -0.2743  1.1215 -0.1576
51309SOL    HW265652   0.151   1.572  10.715 -0.4125  0.0244  1.0660
51310SOL     OW65653   7.112   8.463  11.186  0.2535  0.6376  0.0537
51310SOL    HW165654   7.155   8.418  11.113 -1.2077  0.4108 -0.7205
51310SOL    HW265655   7.080   8.545  11.148 -2.7860 -0.5894 -0.3701
51311SOL     OW65656   0.505   0.574   3.072 -0.1273  0.1905 -0.3107
51311SOL    HW165657   0.454   0.645   3.033  0.3741  1.4608  1.2167
51311SOL    HW265658   0.445   0.500   3.073 -0.7089  0.6025 -1.8459
51312SOL     OW65659   1.696  11.158   0.694  0.0240  0.5584  0.5687
51312SOL    HW165660   1.765  11.097   0.668  0.9637  2.1114 -0.8177
51312SOL    HW265661   1.625  11.102   0.725  0.7811 -1.2472 -0.7506
51313SOL     OW65662   9.932   8.840   7.345  0.4652  0.3650 -0.1887
51313SOL    HW165663   9.940   8.923   7.392 -2.6516 -0.0165  1.2664
51313SOL    HW265664   9.850   8.802   7.377  0.2916 -1.9276 -2.9539
51314SOL     OW65665   6.629   4.592   5.425 -0.0073 -0.3409  0.3296
51314SOL    HW165666   6.583   4.670   5.393 -0.4644 -1.0695 -0.8985
51314SOL    HW265667   6.680   4.563   5.349  0.2532 -1.1608  0.8157
51315SOL     OW65668   7.527  10.836   1.973  0.3042  0.3973 -0.0064
51315SOL    HW165669   7.490  10.911   2.020  1.5097  0.9611  0.0842
51315SOL    HW265670   7.487  10.840   1.886 -2.7372 -1.2449  1.1534
51316SOL     OW65671   6.644   0.246   1.192 -0.1146  0.4535 -0.1188
51316SOL    HW165672   6.638   0.183   1.120 -0.0999  0.2616  0.0488
51316SOL    HW265673   6.555   0.248   1.228  0.2243 -0.5676  0.8122
51317SOL     OW65674   4.162   6.739   3.597 -0.6001 -0.4504  0.0504
51317SOL    HW165675   4.082   6.747   3.545 -0.1804  0.3930 -0.4853
51317SOL    HW265676   4.225   6.795   3.552 -0.0704 -0.1355  1.1748
51318SOL     OW65677   3.060   3.660  11.714  0.1654  0.2313 -0.4176
51318SOL    HW165678   3.135   3.719  11.720 -0.3013  0.7736  0.3008
51318SOL    HW265679   3.083   3.586  11.770  0.2129  0.3488 -0.2813
51319SOL     OW65680   3.120  11.459   1.780 -0.4563 -0.3841 -0.2108
51319SOL    HW165681   3.029  11.459   1.812 -0.2482 -1.4117  0.4306
51319SOL    HW265682   3.172  11.489   1.855 -0.2268 -0.2002 -0.4429
51320SOL     OW65683   3.912  10.292  10.367  0.0418  0.5858 -0.3420
51320SOL    HW165684   3.890  10.199  10.360 -0.1243  0.4648  1.3825
51320SOL    HW265685   3.875  10.332  10.288 -1.9659 -0.4279  0.0233
51321SOL     OW65686   8.564   3.855  11.948  0.2535  0.2215 -0.0102
51321SOL    HW165687   8.493   3.797  11.923 -1.0574  1.6117  0.3407
51321SOL    HW265688   8.564   3.854  12.043  0.5441  0.4105 -0.0065
51322SOL     OW65689   7.533   3.386   6.648 -0.1807 -0.5493 -0.0134
51322SOL    HW165690   7.505   3.339   6.569  0.5902  1.7280 -1.7482
51322SOL    HW265691   7.535   3.319   6.716 -1.5801 -2.4747 -1.7376
51323SOL     OW65692  10.598   4.951   8.228 -0.0281  0.2435  0.2423
51323SOL    HW165693  10.654   4.935   8.304  0.6015 -1.8255 -0.5766
51323SOL    HW265694  10.581   5.045   8.230  4.3705  1.2498 -0.0312
51324SOL     OW65695   9.575   5.493   6.965  0.2072 -0.1075  0.0819
51324SOL    HW165696   9.521   5.460   7.037  1.5046 -1.0832  0.6481
51324SOL    HW265697   9.665   5.481   6.996  0.8102  2.9655 -0.1229
51325SOL     OW65698  10.930   1.274   0.560  0.5936 -0.6476  0.2913
51325SOL    HW165699  10.866   1.252   0.493  0.9524 -1.1931  0.1265
51325SOL    HW265700  10.985   1.196   0.568  0.8466 -0.4161  0.8814
51326SOL     OW65701   9.392   7.782  11.378  0.2855 -0.2596 -0.0541
51326SOL    HW165702   9.298   7.793  11.368  0.1103 -0.6235  1.1248
51326SOL    HW265703   9.408   7.690  11.356  0.3286 -0.2798  0.0628
51327SOL     OW65704  10.157  10.933   4.998 -0.2191 -0.2408  0.0536
51327SOL    HW165705  10.216  10.869   5.037 -0.6437 -2.1602 -2.2543
51327SOL    HW265706  10.073  10.919   5.043 -0.0519 -0.6013  0.2558
51328SOL     OW65707  10.081   5.912   3.769  0.0292  0.2966  0.5295
51328SOL    HW165708  10.048   5.989   3.723  0.0338  0.4291  0.7490
51328SOL    HW265709  10.008   5.850   3.767 -0.2352  0.5898  1.0143
51329SOL     OW65710   2.107   7.121   1.912  0.6817  0.1734  0.3068
51329SOL    HW165711   2.060   7.174   1.977 -0.2628 -1.6830  1.2229
51329SOL    HW265712   2.061   7.137   1.830 -0.3481 -0.1182  0.8121
51330SOL     OW65713   8.181   0.889   7.148 -0.2322 -0.2903  0.2618
51330SOL    HW165714   8.185   0.818   7.084  1.1173 -0.5113  0.5783
51330SOL    HW265715   8.220   0.964   7.103  0.4738 -0.3753  0.7176
51331SOL     OW65716   6.968   1.706   6.627 -0.7500  0.4154  0.4709
51331SOL    HW165717   6.963   1.749   6.712 -0.7625 -1.9064  1.7149
51331SOL    HW265718   6.990   1.615   6.647 -1.5194 -0.3844 -1.9647
51332SOL     OW65719   9.748   2.731   2.708  0.0616 -0.1312  0.1392
51332SOL    HW165720   9.759   2.705   2.800  1.2025  2.4565  0.8191
51332SOL    HW265721   9.837   2.739   2.675 -0.3252 -0.0266 -0.8975
51333SOL     OW65722  10.115   9.002   8.514  0.1626 -0.6417  0.2835
51333SOL    HW165723  10.086   9.079   8.465 -1.9767 -2.1526 -0.9779
51333SOL    HW265724  10.084   8.927   8.463 -0.5581 -2.3448  2.9898
51334SOL     OW65725   8.776  11.122   7.041 -0.3174  0.2611 -0.0992
51334SOL    HW165726   8.688  11.085   7.050 -0.8881  1.9147  1.8226
51334SOL    HW265727   8.821  11.095   7.120  0.5420  0.3582 -0.5514
51335SOL     OW65728   7.115   7.483   0.017 -0.2761  0.2729  0.2285
51335SOL    HW165729   7.045   7.418   0.015 -0.3562  0.3695 -0.5984
51335SOL    HW265730   7.193   7.433   0.044 -0.7758  0.2953  1.7482
51336SOL     OW65731   1.730   7.449   3.185  0.4752 -0.3298  0.2842
51336SOL    HW165732   1.754   7.514   3.119  0.3794 -0.8373 -0.2658
51336SOL    HW265733   1.668   7.391   3.140  0.1900 -0.5155  0.9107
51337SOL     OW65734   5.363  10.055   8.399 -0.4764  0.1751 -0.0745
51337SOL    HW165735   5.378  10.062   8.493 -0.6006  0.3038 -0.0637
51337SOL    HW265736   5.292  10.116   8.381 -0.0989  0.5463 -0.3391
51338SOL     OW65737  10.133   6.196   1.794 -0.4324 -0.2775  0.0443
51338SOL    HW165738  10.219   6.239   1.791  0.0801 -1.1765  1.0504
51338SOL    HW265739  10.153   6.103   1.796 -1.5279 -0.6221 -2.3181
51339SOL     OW65740   0.851   3.699   5.695  0.5816 -0.2149  0.0642
51339SOL    HW165741   0.946   3.708   5.694  0.5374  0.6484  1.0333
51339SOL    HW265742   0.819   3.787   5.719 -0.2640 -1.2937  3.4256
51340SOL     OW65743  11.797   2.375   0.217  0.1115  0.2131  0.2410
51340SOL    HW165744  11.747   2.313   0.271 -0.5441  0.9006  0.4381
51340SOL    HW265745  11.868   2.322   0.180 -1.9908 -1.3718 -1.8392
51341SOL     OW65746   2.707  10.710   1.154 -0.2732 -0.0397  0.1375
51341SOL    HW165747   2.687  10.631   1.104  0.6717 -0.0708 -0.1964
51341SOL    HW265748   2.682  10.782   1.096 -0.9560 -0.0751  0.3699
51342SOL     OW65749   3.384   6.856   9.707 -0.7655 -0.3586 -0.0187
51342SOL    HW165750   3.458   6.816   9.752 -1.4468 -0.4709  1.0353
51342SOL    HW265751   3.378   6.809   9.624 -0.1942 -0.9321  0.2573
51343SOL     OW65752   5.628   6.900   1.793 -0.3749 -0.3178 -0.1827
51343SOL    HW165753   5.628   6.916   1.887  1.0137 -1.8554  0.1289
51343SOL    HW265754   5.578   6.819   1.783 -1.6535  0.5256 -0.9581
51344SOL     OW65755   2.969   1.739   0.097  0.2523 -0.0272  0.5442
51344SOL    HW165756   3.033   1.719   0.029  0.3443  0.2795  0.5415
51344SOL    HW265757   2.935   1.654   0.124  0.1474 -0.1479  0.0464
51345SOL     OW65758   4.318   3.258  10.765  0.4807 -0.3808 -0.2674
51345SOL    HW165759   4.274   3.181  10.799 -1.0579  1.1858  1.5164
51345SOL    HW265760   4.249   3.310  10.725  0.9749  1.3170  0.9935
51346SOL     OW65761   1.134   1.515   6.930 -0.2001  0.1411 -0.3671
51346SOL    HW165762   1.190   1.438   6.923 -2.0219 -1.2470 -0.3144
51346SOL    HW265763   1.045   1.480   6.931 -1.1165  2.2976 -1.0770
51347SOL     OW65764   6.599   5.335   0.619  0.5310 -0.2154 -0.2666
51347SOL    HW165765   6.629   5.345   0.709 -0.7843  0.0525  0.1648
51347SOL    HW265766   6.516   5.289   0.626 -0.0814  0.6825 -1.2575
51348SOL     OW65767   4.682   2.867   2.487 -0.1248 -0.4976 -0.6384
51348SOL    HW165768   4.665   2.950   2.441  0.2238 -0.3066 -0.4326
51348SOL    HW265769   4.764   2.835   2.450  0.1799 -0.3233 -0.1350
51349SOL     OW65770   7.361   0.583   5.473 -0.3885  0.1890 -0.5268
51349SOL    HW165771   7.353   0.571   5.567 -0.1051  0.8853 -0.4073
51349SOL    HW265772   7.360   0.678   5.460 -0.5159  0.0992 -1.2328
51350SOL     OW65773   3.516   3.130   0.176 -0.1026 -0.5348  0.0704
51350SOL    HW165774   3.598   3.179   0.173 -0.3410 -0.1104  0.3536
51350SOL    HW265775   3.543   3.038   0.180  0.3647 -0.3884  0.4078
51351SOL     OW65776   7.345   1.548   6.703 -0.1584 -0.1229 -0.7809
51351SOL    HW165777   7.295   1.607   6.759  0.3827 -0.4847  0.1011
51351SOL    HW265778   7.428   1.535   6.748  0.8298  0.5939 -2.3005
51352SOL     OW65779  10.613   5.874   8.586 -0.4718  0.6005  0.1029
51352SOL    HW165780  10.683   5.933   8.613  0.0866 -0.8041  1.9327
51352SOL    HW265781  10.536   5.907   8.633  0.2515 -1.1408  2.7743
51353SOL     OW65782   3.288   8.751   9.574 -0.2854 -0.1886 -0.1001
51353SOL    HW165783   3.319   8.816   9.511 -0.7437  0.6226  0.4760
51353SOL    HW265784   3.366   8.702   9.599  0.2767  0.8540  0.2517
51354SOL     OW65785   9.440   4.910   0.679  0.2166 -0.2352  0.2270
51354SOL    HW165786   9.384   4.988   0.670 -1.7735 -1.5213  0.8315
51354SOL    HW265787   9.437   4.868   0.593  0.0948 -0.3969  0.3096
51355SOL     OW65788   5.294  11.389  11.052  0.1119 -0.4338  0.5424
51355SOL    HW165789   5.234  11.459  11.078  0.0089  0.0773 -0.9393
51355SOL    HW265790   5.372  11.434  11.020  0.1458 -0.9766 -0.1848
51356SOL     OW65791   7.921   8.725   7.248 -0.7779  0.5566 -0.2855
51356SOL    HW165792   7.868   8.672   7.308  0.1735  0.4928  0.5240
51356SOL    HW265793   7.898   8.692   7.161 -2.8357  1.2398 -0.0538
51357SOL     OW65794   8.180   2.378   8.722 -0.0295  0.7610 -0.5063
51357SOL    HW165795   8.138   2.329   8.652  0.8083  1.4929 -1.5456
51357SOL    HW265796   8.214   2.310   8.781 -2.2366  0.1567  0.1544
51358SOL     OW65797   1.707   8.103   6.672 -0.0728  0.2367  0.1538
51358SOL    HW165798   1.689   8.018   6.711 -1.1904  0.0979 -0.5972
51358SOL    HW265799   1.729   8.083   6.581 -1.6588  0.8130 -0.3880
51359SOL     OW65800   5.334   1.408   4.866  0.6563  0.0369 -0.2994
51359SOL    HW165801   5.325   1.496   4.828  0.0571 -0.3758 -1.1688
51359SOL    HW265802   5.385   1.421   4.945  0.4042  1.2044 -0.3042
51360SOL     OW65803  11.635   0.037   4.948  0.0021 -0.0307  0.5635
51360SOL    HW165804  11.601  -0.050   4.928 -2.9615  1.0880  0.2142
51360SOL    HW265805  11.664   0.030   5.039 -0.2126 -1.3442  0.5596
51361SOL     OW65806   0.805   0.530  10.132  0.0377 -0.5258  0.3151
51361SOL    HW165807   0.875   0.594  10.137 -1.4630  1.5126 -2.0618
51361SOL    HW265808   0.735   0.566  10.186  0.2206 -1.7912  1.4582
51362SOL     OW65809   8.949   4.140   1.573 -0.1658 -0.0113 -0.1610
51362SOL    HW165810   8.866   4.095   1.561 -0.0821 -0.1080 -0.3833
51362SOL    HW265811   8.933   4.228   1.540 -0.3587  0.1549  0.3657
51363SOL     OW65812   4.414   3.997   8.700 -0.2060 -0.2407  0.7997
51363SOL    HW165813   4.487   4.034   8.650  0.7912 -1.9397  0.8997
51363SOL    HW265814   4.338   4.006   8.643  0.5963 -0.7135 -0.3800
51364SOL     OW65815   4.398   4.978  11.262 -0.2407  0.1467 -0.2165
51364SOL    HW165816   4.343   5.055  11.275 -1.9769 -0.9749 -0.5639
51364SOL    HW265817   4.356   4.931  11.190  0.9483 -0.9828 -0.2042
51365SOL     OW65818   5.511   0.425  10.356 -0.0984  0.0928  0.0806
51365SOL    HW165819   5.459   0.501  10.330  0.3666  0.4828  0.2794
51365SOL    HW265820   5.553   0.396  10.275 -0.4326 -0.0814 -0.0348
51366SOL     OW65821   0.539   0.575   2.214 -0.2886 -0.0640  0.2979
51366SOL    HW165822   0.456   0.550   2.173 -0.0208 -0.7358  0.1555
51366SOL    HW265823   0.564   0.499   2.266 -1.6637  1.4938  3.4519
51367SOL     OW65824   7.350  10.836   9.492 -0.3925 -0.3909 -0.1555
51367SOL    HW165825   7.425  10.848   9.433  0.2748  1.2552  0.9460
51367SOL    HW265826   7.275  10.868   9.443 -0.1336 -0.6708 -0.7427
51368SOL     OW65827   5.346   4.432   6.261 -0.4846  0.4699  0.3226
51368SOL    HW165828   5.415   4.388   6.311  1.8174  1.6402 -1.6107
51368SOL    HW265829   5.331   4.514   6.308 -1.2695 -0.1797  1.2466
51369SOL     OW65830   6.950   3.402   9.461 -0.4357  0.4611  0.3150
51369SOL    HW165831   6.950   3.436   9.550  0.5588 -1.6321  1.1948
51369SOL    HW265832   6.865   3.358   9.452 -0.2826  0.1258  0.4780
51370SOL     OW65833   5.437   3.625   8.108 -0.0607  0.5273 -0.0028
51370SOL    HW165834   5.499   3.694   8.134 -0.1594  1.1963 -1.4316
51370SOL    HW265835   5.485   3.543   8.121  1.5400  1.0629 -2.0073
51371SOL     OW65836   6.475   5.404   9.534 -0.1041 -0.2485  0.0039
51371SOL    HW165837   6.490   5.321   9.579  3.6308  0.1204 -0.2534
51371SOL    HW265838   6.543   5.462   9.567 -0.9647  1.9147 -1.7550
51372SOL     OW65839   9.240   5.245   5.247 -0.4017  0.0691 -0.3658
51372SOL    HW165840   9.268   5.190   5.174  1.7450 -1.5921  1.5477
51372SOL    HW265841   9.307   5.313   5.254 -1.5833  1.3486 -1.0156
51373SOL     OW65842   9.256  11.558   9.915 -0.2249  0.1939  1.3442
51373SOL    HW165843   9.337  11.589   9.957  1.2454  0.4377 -1.4160
51373SOL    HW265844   9.233  11.628   9.854 -1.0267 -0.9711  0.2485
51374SOL     OW65845   5.241   1.294   2.144 -0.1108 -0.4258  0.2879
51374SOL    HW165846   5.301   1.368   2.151 -1.2598  0.6298 -0.4455
51374SOL    HW265847   5.238   1.256   2.231  0.9681  0.0147  0.5301
51375SOL     OW65848   8.846   1.605  11.428 -0.1431 -0.2614  0.0412
51375SOL    HW165849   8.879   1.653  11.505  0.6254  1.4248 -1.2639
51375SOL    HW265850   8.851   1.513  11.454  2.1667  0.1112  1.2608
51376SOL     OW65851   1.011   0.223  11.017  0.5989 -0.2804 -0.3329
51376SOL    HW165852   1.092   0.192  11.057  0.8246 -1.6455 -1.7535
51376SOL    HW265853   0.942   0.174  11.061  0.6901 -0.3878 -0.3079
51377SOL     OW65854   6.337   9.700   4.404 -0.0891  0.0154 -0.4421
51377SOL    HW165855   6.363   9.642   4.476  0.1961  1.4936  0.6846
51377SOL    HW265856   6.395   9.775   4.411 -1.0932  0.8959 -1.2578
51378SOL     OW65857   6.576   1.911  10.420  0.0031 -0.5805  0.3747
51378SOL    HW165858   6.670   1.922  10.436  0.5384  2.0376 -3.2905
51378SOL    HW265859   6.565   1.816  10.409  2.4656 -0.8958 -0.1327
51379SOL     OW65860  11.610   3.851   0.107 -0.0891  0.6330  0.3881
51379SOL    HW165861  11.682   3.871   0.167  0.2835 -1.1154  0.5599
51379SOL    HW265862  11.565   3.935   0.096  1.2361  1.4951  1.2431
51380SOL     OW65863  11.562  10.938   0.391  0.5036  0.0557 -0.7962
51380SOL    HW165864  11.611  10.867   0.433  0.8577  1.3377  1.1019
51380SOL    HW265865  11.490  10.894   0.346 -1.2076 -1.4089  2.9739
51381SOL     OW65866   0.727   8.791  10.522 -0.0511  0.4106 -0.2506
51381SOL    HW165867   0.749   8.727  10.454  0.6851  0.5211 -0.1185
51381SOL    HW265868   0.798   8.855  10.519  0.6605 -0.2468  1.4622
51382SOL     OW65869   3.536  11.228   2.272 -0.9243 -0.0588  0.1607
51382SOL    HW165870   3.503  11.316   2.292 -0.7739  0.7619 -2.7148
51382SOL    HW265871   3.631  11.238   2.271 -0.7684 -0.9210  2.2922
51383SOL     OW65872   5.108   9.783   9.784  0.0909 -0.2379 -0.0715
51383SOL    HW165873   5.141   9.851   9.843  1.6368  0.3074 -1.5148
51383SOL    HW265874   5.034   9.824   9.740 -0.7085 -0.4509  1.0335
51384SOL     OW65875   2.646   2.737   1.968  0.0178 -0.2291 -0.2028
51384SOL    HW165876   2.619   2.725   1.877  0.8667  2.3141 -0.8644
51384SOL    HW265877   2.733   2.697   1.973  0.1085 -0.0780 -0.6004
51385SOL     OW65878   7.435   1.935   2.786 -0.4223 -0.1754 -0.2491
51385SOL    HW165879   7.419   1.977   2.871 -1.5859 -2.1589  0.5614
51385SOL    HW265880   7.445   1.842   2.806  0.6375 -0.5274 -2.1602
51386SOL     OW65881   8.161   1.344   8.364 -0.1327 -0.3192  0.3597
51386SOL    HW165882   8.191   1.293   8.288 -0.8785 -0.2195 -0.0184
51386SOL    HW265883   8.240   1.385   8.398  0.3287 -0.9473  0.0749
51387SOL     OW65884   0.602   7.676   8.632 -0.8511 -0.3684  0.1854
51387SOL    HW165885   0.543   7.713   8.697 -0.4498 -1.0097  0.9331
51387SOL    HW265886   0.669   7.743   8.618 -0.9432 -0.2284  0.4310
51388SOL     OW65887   7.112   5.838   2.135 -0.5244 -0.4590  0.4288
51388SOL    HW165888   7.020   5.815   2.148 -0.1509 -1.2818  1.9441
51388SOL    HW265889   7.150   5.760   2.095 -0.6653  0.2610 -1.1687
51389SOL     OW65890   3.260   3.143   1.501 -0.4118  0.0673  0.3156
51389SOL    HW165891   3.330   3.165   1.439 -0.6175 -0.5302 -0.1434
51389SOL    HW265892   3.228   3.228   1.532  1.0412  0.3287  1.1422
51390SOL     OW65893   7.364   3.253   5.403  0.0761 -0.8113 -0.5424
51390SOL    HW165894   7.329   3.165   5.419  1.8745 -1.5621 -0.5028
51390SOL    HW265895   7.388   3.253   5.310  1.7018 -1.0048 -0.1516
51391SOL     OW65896   7.352   9.995   8.762 -0.2630 -0.7523 -0.3037
51391SOL    HW165897   7.261  10.022   8.768 -0.7364 -2.3233 -0.0675
51391SOL    HW265898   7.360   9.921   8.823  1.3043 -0.3045  0.0965
51392SOL     OW65899   1.176  11.002   5.294 -0.4023  0.1808  0.2009
51392SOL    HW165900   1.100  10.992   5.352 -0.4029  1.7170  0.5206
51392SOL    HW265901   1.175  11.095   5.270  1.2211  0.1694 -0.0034
51393SOL     OW65902   6.024   3.538   3.875 -0.2569 -0.0528  0.2663
51393SOL    HW165903   5.973   3.550   3.795  0.3730 -0.5642 -0.2264
51393SOL    HW265904   6.106   3.499   3.845  0.5924  1.1078  0.9994
51394SOL     OW65905  11.690   6.787   6.594  0.3398 -0.0646 -0.6192
51394SOL    HW165906  11.732   6.723   6.651 -0.2197 -0.1036 -0.2494
51394SOL    HW265907  11.758   6.854   6.579 -0.1734  1.1566  1.9767
51395SOL     OW65908  10.271   2.156   4.848  0.5258  0.4594  0.4597
51395SOL    HW165909  10.185   2.133   4.813  1.0685 -0.5203 -0.2863
51395SOL    HW265910  10.317   2.198   4.774  1.6473 -1.5406 -0.0585
51396SOL     OW65911   7.889   1.852   7.252  0.5423 -0.6189  0.0830
51396SOL    HW165912   7.863   1.883   7.165  0.0939  0.6285  0.6416
51396SOL    HW265913   7.819   1.792   7.279  1.4128 -2.2089 -1.0011
51397SOL     OW65914   4.239   9.564   4.747 -0.3077  0.4788  0.3802
51397SOL    HW165915   4.265   9.603   4.663 -0.8255  0.0595  0.0136
51397SOL    HW265916   4.304   9.496   4.763 -1.2081 -0.6843 -0.6181
51398SOL     OW65917   8.599  10.602  10.921  0.0134 -0.1893  0.3153
51398SOL    HW165918   8.548  10.659  10.863 -2.4782 -1.3291  1.2767
51398SOL    HW265919   8.683  10.591  10.876  0.1716  3.2100 -0.4855
51399SOL     OW65920   5.186  11.539   4.751 -0.3241 -0.0320  0.1220
51399SOL    HW165921   5.128  11.575   4.819 -0.9032  0.2723 -0.5237
51399SOL    HW265922   5.173  11.444   4.757 -1.4121  0.0671 -0.4646
51400SOL     OW65923   5.216   8.763   3.421 -0.1827  0.2325  0.5017
51400SOL    HW165924   5.249   8.677   3.396  0.4538  0.3606  0.8618
51400SOL    HW265925   5.272   8.789   3.495 -0.6894  0.7364  0.7157
51401SOL     OW65926   7.192   7.789   7.537 -0.0913 -0.6056  0.4563
51401SOL    HW165927   7.175   7.830   7.621 -0.6995  2.4171 -0.9932
51401SOL    HW265928   7.114   7.808   7.485  0.2426 -2.4326 -0.8243
51402SOL     OW65929   2.241   1.256   6.981  0.2362 -0.6278 -0.2640
51402SOL    HW165930   2.210   1.235   6.893  0.8585  0.3484 -0.7295
51402SOL    HW265931   2.316   1.314   6.967  1.2050 -1.5505  0.8751
51403SOL     OW65932   1.031   9.148   5.669  0.1072  0.3568 -0.4404
51403SOL    HW165933   1.031   9.083   5.599 -3.9262  1.1857 -1.4838
51403SOL    HW265934   1.057   9.099   5.747  0.5626 -1.6397 -1.7672
51404SOL     OW65935   8.852   6.327  11.017  0.3127 -0.3290  0.9540
51404SOL    HW165936   8.793   6.269  10.969  0.6387  0.4560 -0.4520
51404SOL    HW265937   8.929   6.273  11.035  1.3927  0.0530 -1.9275
51405SOL     OW65938   6.077  10.285   7.976  0.0535  0.1683  0.1461
51405SOL    HW165939   6.145  10.351   7.967  0.5160 -0.4591 -1.2893
51405SOL    HW265940   6.089  10.250   8.064  0.8794  0.8247  0.3031
51406SOL     OW65941   1.188   9.933   6.545  0.0810  0.3595 -0.7919
51406SOL    HW165942   1.136   9.985   6.607 -0.0738 -1.2946  0.5127
51406SOL    HW265943   1.212   9.854   6.593 -0.7282 -1.3814 -3.0673
51407SOL     OW65944   8.043  10.589   1.609 -0.0675  0.0372  0.3632
51407SOL    HW165945   8.109  10.621   1.671 -0.4882  0.2550  0.7034
51407SOL    HW265946   8.094  10.560   1.533  0.2990  2.5975 -0.4785
51408SOL     OW65947   5.977   5.005   3.116 -0.7891  0.4132  0.4167
51408SOL    HW165948   6.053   4.957   3.149 -0.5454  0.2394 -0.3593
51408SOL    HW265949   5.901   4.957   3.149 -0.5621 -1.0470 -1.0457
51409SOL     OW65950   6.652   3.918   4.247  0.4291 -0.0202 -0.4020
51409SOL    HW165951   6.623   3.882   4.331 -0.9906  1.6905 -0.0979
51409SOL    HW265952   6.709   3.850   4.211 -0.8806 -1.8876  0.8063
51410SOL     OW65953   5.577   9.327  11.954 -0.0686 -0.3172 -0.0750
51410SOL    HW165954   5.607   9.239  11.974 -1.5981 -1.1780 -1.2388
51410SOL    HW265955   5.532   9.318  11.869  0.4950  1.7593 -0.6601
51411SOL     OW65956   5.170   5.818   3.671  0.3126  0.8932  0.0717
51411SOL    HW165957   5.177   5.877   3.746 -0.5603  0.1278  0.7809
51411SOL    HW265958   5.111   5.863   3.610  1.6351  1.8692 -0.5388
51412SOL     OW65959   3.064   6.681   5.114 -0.1633 -0.2143  0.4169
51412SOL    HW165960   3.069   6.694   5.020 -3.4609 -0.5712  0.0629
51412SOL    HW265961   3.075   6.586   5.126 -0.8780 -0.3304  0.2214
51413SOL     OW65962   8.524   4.034   1.329 -0.1706  0.4286  0.3915
51413SOL    HW165963   8.498   4.086   1.406  1.0166  2.1837 -0.3240
51413SOL    HW265964   8.607   3.994   1.354 -0.7361 -0.5729  0.6892
51414SOL     OW65965  11.406   1.627   2.460 -0.6744 -0.6474  0.3397
51414SOL    HW165966  11.408   1.601   2.552 -0.2848  0.1676  0.5721
51414SOL    HW265967  11.486   1.680   2.449 -0.6703 -0.8251 -0.4874
51415SOL     OW65968   8.784   9.417   5.311  0.0298 -0.0876 -0.2749
51415SOL    HW165969   8.855   9.436   5.250 -0.1778  0.4824 -0.3490
51415SOL    HW265970   8.773   9.322   5.308  2.1434 -0.4552  1.2587
51416SOL     OW65971   5.486  10.770   5.815  0.4546 -0.2405 -0.1320
51416SOL    HW165972   5.438  10.850   5.838 -0.0696 -0.2678 -1.1023
51416SOL    HW265973   5.453  10.745   5.729  3.1930  0.5035 -1.5092
51417SOL     OW65974  10.983   9.105   5.592 -0.5866  0.0379  0.0955
51417SOL    HW165975  11.039   9.135   5.664  2.4845 -1.1757 -1.5665
51417SOL    HW265976  10.958   9.185   5.546  2.5528  0.6024 -0.8875
51418SOL     OW65977   5.992   6.786   4.269  0.2081 -0.1386 -0.6976
51418SOL    HW165978   6.051   6.844   4.317 -0.4918  0.2061 -0.2318
51418SOL    HW265979   5.922   6.843   4.240  0.5578 -0.3727 -2.0427
51419SOL     OW65980   9.482   3.987  10.197 -0.2285  0.3847  0.4463
51419SOL    HW165981   9.396   3.990  10.239 -0.2855 -1.8505  0.6180
51419SOL    HW265982   9.544   3.982  10.270 -0.0515  0.4575  0.3028
51420SOL     OW65983   9.290   2.208  11.513  0.1683 -0.5101 -0.2594
51420SOL    HW165984   9.303   2.204  11.608  0.0807 -0.3599 -0.2413
51420SOL    HW265985   9.282   2.116  11.486 -0.8121 -0.5257  0.0228
51421SOL     OW65986   5.598   6.822  10.952 -0.1464  0.0199 -0.0574
51421SOL    HW165987   5.639   6.792  11.034 -0.5499  1.1428  0.5745
51421SOL    HW265988   5.605   6.747  10.893  4.2493  0.5492 -0.5531
51422SOL     OW65989   6.165   5.235   3.781 -0.5364  0.0441  0.4321
51422SOL    HW165990   6.219   5.211   3.857  0.0099 -0.9796 -0.2538
51422SOL    HW265991   6.076   5.213   3.808 -0.5494  1.0821  1.3116
51423SOL     OW65992   7.446   8.761   2.486 -0.0386  0.6737 -0.0932
51423SOL    HW165993   7.426   8.808   2.405  0.1971  0.4936 -0.2595
51423SOL    HW265994   7.536   8.786   2.506  0.1876  0.0708 -0.3402
51424SOL     OW65995   7.628   7.083  10.248  0.3054 -0.0624  0.6083
51424SOL    HW165996   7.667   6.996  10.250 -1.0148 -0.7338 -0.7224
51424SOL    HW265997   7.700   7.141  10.222  0.9248 -0.9256  0.3526
51425SOL     OW65998   1.859   1.159   2.820 -0.6030 -0.3685 -0.2567
51425SOL    HW165999   1.781   1.125   2.775 -0.7752 -0.4110  0.0735
51425SOL    HW266000   1.886   1.235   2.768  0.1305 -1.3294 -1.3573
51426SOL     OW66001   8.561   5.061   8.328 -0.4397  0.2719 -0.1283
51426SOL    HW166002   8.586   5.153   8.321 -0.4960  0.1565 -2.5605
51426SOL    HW266003   8.644   5.014   8.339 -0.3379  0.5425  0.2734
51427SOL     OW66004   2.322  11.535   1.563 -0.1015 -0.9400 -0.5191
51427SOL    HW166005   2.248  11.547   1.502 -0.9582 -1.6703  0.3580
51427SOL    HW266006   2.368  11.619   1.560 -0.6678 -0.6435 -1.4636
51428SOL     OW66007   9.826   6.016   6.133 -0.0859  0.4286 -0.3209
51428SOL    HW166008   9.732   5.998   6.141  0.0679 -0.1903  0.2606
51428SOL    HW266009   9.831   6.093   6.077 -0.8888 -0.1626 -1.2450
51429SOL     OW66010   6.090   7.197   1.960  0.0274 -0.0049 -0.4267
51429SOL    HW166011   6.137   7.147   2.027  0.8485  0.8125 -0.3803
51429SOL    HW266012   6.159   7.247   1.915 -0.7596  0.9653 -0.5739
51430SOL     OW66013   4.262   1.644   1.866 -0.7524  0.0468  0.0941
51430SOL    HW166014   4.276   1.690   1.783  1.3565 -0.3923  0.1609
51430SOL    HW266015   4.279   1.710   1.933 -0.2576 -0.1597  0.1755
51431SOL     OW66016  11.271   3.156   4.775  0.0664  0.5185  0.2790
51431SOL    HW166017  11.224   3.115   4.702 -0.8289  0.2591  0.9972
51431SOL    HW266018  11.343   3.096   4.795 -0.8044 -0.3541  0.8461
51432SOL     OW66019   2.873   1.418   1.317 -0.3653  0.0007 -0.9668
51432SOL    HW166020   2.897   1.337   1.271  0.2963 -0.3252 -0.0842
51432SOL    HW266021   2.922   1.414   1.399  0.7104  1.9109 -1.4458
51433SOL     OW66022   3.351   1.115   2.428  0.0103  0.5924 -0.4659
51433SOL    HW166023   3.275   1.076   2.384  0.6523  0.8870 -1.8858
51433SOL    HW266024   3.340   1.209   2.413 -0.3696  0.8001  1.0350
51434SOL     OW66025   6.763   2.221  10.239  0.0923 -0.0403  0.0058
51434SOL    HW166026   6.685   2.251  10.191 -0.9091 -2.9335 -0.4295
51434SOL    HW266027   6.800   2.153  10.183  1.4340 -0.5178  1.4122
51435SOL     OW66028   7.437   0.502   8.716 -0.5160 -0.2336 -0.6382
51435SOL    HW166029   7.525   0.529   8.688  1.2005 -4.5065 -0.2794
51435SOL    HW266030   7.450   0.470   8.805 -2.2871 -1.5232 -0.8055
51436SOL     OW66031  11.108  10.644  10.429 -0.0843  0.0190  0.0996
51436SOL    HW166032  11.061  10.727  10.430 -1.1526 -0.4432 -2.7002
51436SOL    HW266033  11.067  10.592  10.498 -0.8816  1.0584  0.4307
51437SOL     OW66034   7.031   7.396   6.145  0.1206  0.5989  0.0452
51437SOL    HW166035   6.999   7.486   6.146  0.4008  0.8284 -2.7660
51437SOL    HW266036   7.123   7.404   6.120  0.7982 -0.3943  2.0158
51438SOL     OW66037   4.067   0.117   4.203  0.3259 -0.1332 -0.2574
51438SOL    HW166038   4.143   0.122   4.261 -0.7995  1.2886  1.1730
51438SOL    HW266039   3.998   0.079   4.257 -0.3097 -0.3588 -1.1949
51439SOL     OW66040   4.726   0.912   0.200  0.3216 -0.3472 -0.3561
51439SOL    HW166041   4.694   0.953   0.280  0.5703  0.1086 -0.4841
51439SOL    HW266042   4.821   0.924   0.204  0.3142 -0.1347 -0.8248
51440SOL     OW66043   9.832  11.652   5.218 -0.1862 -0.1556 -0.0134
51440SOL    HW166044   9.746  11.680   5.249 -0.1044 -0.6375  0.6622
51440SOL    HW266045   9.819  11.564   5.184  0.2504 -0.6801  1.1311
51441SOL     OW66046   4.465   3.016   4.935 -0.4677 -0.3762  0.4135
51441SOL    HW166047   4.390   3.049   4.983  1.5391  2.1542  2.1182
51441SOL    HW266048   4.530   2.996   5.002  0.2270 -3.2277 -0.9310
51442SOL     OW66049   8.318   9.794   8.265  0.1663 -0.4700 -0.2111
51442SOL    HW166050   8.257   9.720   8.269 -0.3314 -0.2171 -2.1789
51442SOL    HW266051   8.393   9.760   8.215 -0.4625  0.5855 -1.9295
51443SOL     OW66052   1.387   5.120   5.181  0.3279  0.0822 -0.3288
51443SOL    HW166053   1.464   5.093   5.231  0.9572 -0.2256 -1.4310
51443SOL    HW266054   1.326   5.154   5.247  1.2478 -0.0266  0.6016
51444SOL     OW66055   3.113   5.664   4.551 -0.1688  0.1269  0.3899
51444SOL    HW166056   3.197   5.626   4.524 -0.3309 -2.1747  2.7002
51444SOL    HW266057   3.133   5.757   4.562  2.0641 -0.3018  0.6398
51445SOL     OW66058   3.768   7.813   6.774 -0.1899 -0.2484  0.1063
51445SOL    HW166059   3.725   7.880   6.826  0.6688 -0.2342  0.8236
51445SOL    HW266060   3.767   7.735   6.829  1.7345  0.0601  0.6795
51446SOL     OW66061   8.634  10.899   4.909  0.3520 -0.2322  0.1867
51446SOL    HW166062   8.631  10.926   5.000  2.2268  0.1696  0.1740
51446SOL    HW266063   8.640  10.981   4.859  0.0699 -0.4731 -0.2545
51447SOL     OW66064   0.588   5.528   4.463 -0.3954  0.1989  0.0371
51447SOL    HW166065   0.532   5.451   4.469 -1.8862  1.1383 -1.0250
51447SOL    HW266066   0.621   5.541   4.552 -2.0570 -0.2652  0.7571
51448SOL     OW66067   2.373   5.662   9.721 -0.3063 -0.1922 -0.5436
51448SOL    HW166068   2.320   5.582   9.728 -0.6687  0.1351  0.8731
51448SOL    HW266069   2.339   5.719   9.790  1.3046  0.3784 -0.1846
51449SOL     OW66070   1.462   3.229   6.758 -0.0174  0.3372  0.1406
51449SOL    HW166071   1.377   3.269   6.741  0.7468  1.8770 -0.3281
51449SOL    HW266072   1.519   3.303   6.781  1.0670 -0.7129  0.9880
51450SOL     OW66073   9.468   0.272   4.549 -0.0687 -0.2334  0.3920
51450SOL    HW166074   9.417   0.335   4.600  1.1188 -0.0486  1.3831
51450SOL    HW266075   9.448   0.188   4.589 -1.2439 -0.4580 -0.5994
51451SOL     OW66076   8.168  10.791   2.335  0.1376 -0.2134  0.4448
51451SOL    HW166077   8.159  10.885   2.353 -1.4262 -0.1465 -0.5235
51451SOL    HW266078   8.214  10.787   2.251 -2.2786 -0.1713 -0.9699
51452SOL     OW66079  10.818   7.295  10.595  0.0840 -0.0003 -0.3634
51452SOL    HW166080  10.738   7.346  10.608  0.9822  1.2161  0.6261
51452SOL    HW266081  10.846   7.318  10.506 -0.0461  0.4887 -0.2842
51453SOL     OW66082   2.114   4.033   0.725  0.1071 -0.2178  0.5102
51453SOL    HW166083   2.188   3.972   0.718  0.2079 -0.1136  0.6426
51453SOL    HW266084   2.097   4.039   0.819  0.2062  0.0841  0.5096
51454SOL     OW66085   8.707   7.884  10.799 -0.1263  0.3308  0.5756
51454SOL    HW166086   8.659   7.844  10.726 -1.3624  2.1202  0.3484
51454SOL    HW266087   8.775   7.936  10.757  1.1299 -1.0127  0.8559
51455SOL     OW66088   7.854   1.840   2.658 -0.4870  0.0893  0.2231
51455SOL    HW166089   7.830   1.766   2.713 -1.4654 -1.1614 -1.7932
51455SOL    HW266090   7.920   1.806   2.598  1.5860  1.7816  1.3700
51456SOL     OW66091  10.033   1.150  10.493 -0.3566 -0.5039 -0.0078
51456SOL    HW166092   9.950   1.199  10.496  0.4832  0.9768  0.0203
51456SOL    HW266093  10.075   1.170  10.576  0.7361  0.0937 -0.6759
51457SOL     OW66094  10.318   1.478   1.362 -0.1370 -0.2358 -0.4494
51457SOL    HW166095  10.251   1.431   1.411  1.1225  0.4415  2.0877
51457SOL    HW266096  10.399   1.433   1.383  0.8559  1.8808  0.6122
51458SOL     OW66097   3.433   6.538   1.484 -0.3667 -0.0420  0.1928
51458SOL    HW166098   3.464   6.524   1.573 -1.1913  0.5953  0.5974
51458SOL    HW266099   3.343   6.503   1.484  0.0184 -1.1094 -0.7212
51459SOL     OW66100   6.974   4.177   6.517 -0.0985  0.0830  0.3787
51459SOL    HW166101   7.062   4.145   6.535 -0.1994  0.4260  1.5791
51459SOL    HW266102   6.923   4.099   6.497  0.1942 -0.2641  0.9574
51460SOL     OW66103   6.264  11.304   4.183 -0.3396  0.5180  0.4741
51460SOL    HW166104   6.219  11.308   4.267 -2.2244 -1.5042 -0.3507
51460SOL    HW266105   6.270  11.210   4.163  0.2927  0.9255 -1.5218
51461SOL     OW66106   0.846   3.278  11.609  0.3981  0.4232 -0.5760
51461SOL    HW166107   0.818   3.219  11.539 -0.8801  0.0736  0.1987
51461SOL    HW266108   0.920   3.233  11.650  0.2412 -0.0454 -0.7952
51462SOL     OW66109   6.488  10.854   2.369 -0.1333 -0.6330 -0.8568
51462SOL    HW166110   6.579  10.866   2.395 -0.4139  1.9755 -0.8134
51462SOL    HW266111   6.438  10.871   2.449 -0.7067 -1.2720 -1.0654
51463SOL     OW66112   9.738   1.890   1.791  0.1362  0.1553 -0.0372
51463SOL    HW166113   9.724   1.904   1.884  0.7415 -0.4953  0.1623
51463SOL    HW266114   9.678   1.951   1.748 -1.1891 -0.5358  0.7670
51464SOL     OW66115   3.188  10.109  10.399  0.1919  0.6987  0.1915
51464SOL    HW166116   3.176  10.166  10.324 -0.9943  0.2736  0.0473
51464SOL    HW266117   3.283  10.093  10.402  0.3812  1.5979 -0.5345
51465SOL     OW66118  10.371  11.435   4.571  0.0821  0.3151  0.3247
51465SOL    HW166119  10.408  11.369   4.513 -1.4506  1.5058 -2.1455
51465SOL    HW266120  10.442  11.498   4.585  0.3962  0.1337 -0.4356
51466SOL     OW66121   7.498   7.011   6.625  0.2422  0.6876  0.0995
51466SOL    HW166122   7.533   6.961   6.699  0.9441 -0.5022 -0.9889
51466SOL    HW266123   7.500   7.102   6.654  1.7858  0.3793  1.0586
51467SOL     OW66124  10.627   2.405   1.592 -0.4422  0.0958 -0.1603
51467SOL    HW166125  10.558   2.357   1.639 -1.2831  3.1930  2.0355
51467SOL    HW266126  10.581   2.476   1.549  1.2350  1.9352  0.9282
51468SOL     OW66127   0.941   4.244   5.636  0.2571 -0.2069 -0.0902
51468SOL    HW166128   1.035   4.232   5.643  0.5034  1.7921  0.6253
51468SOL    HW266129   0.925   4.263   5.544  0.7542  0.8571  0.0382
51469SOL     OW66130   7.410   1.454   8.343  0.0063 -0.2856  0.0590
51469SOL    HW166131   7.374   1.446   8.254  2.0749 -0.1724 -0.8510
51469SOL    HW266132   7.343   1.414   8.399 -1.5990  0.1132 -1.4646
51470SOL     OW66133   1.431   0.102   5.885  0.1516  0.1046 -0.3173
51470SOL    HW166134   1.418   0.195   5.906  0.5022  0.2743 -0.8016
51470SOL    HW266135   1.447   0.102   5.790 -1.8105 -0.6613 -0.6980
51471SOL     OW66136   0.968   8.617  11.849  0.1556 -0.0960  0.4631
51471SOL    HW166137   0.918   8.585  11.925  0.9725 -1.6554  0.3748
51471SOL    HW266138   0.918   8.587  11.773  0.5725 -0.5982  0.3819
51472SOL     OW66139   7.600   2.471   6.377  0.2613 -0.0769  0.3108
51472SOL    HW166140   7.637   2.392   6.416  0.4148 -0.2859 -0.2530
51472SOL    HW266141   7.658   2.541   6.404  1.1672 -0.4218 -0.6838
51473SOL     OW66142   7.107   2.188   8.402  0.3758  0.0463  0.1742
51473SOL    HW166143   7.041   2.125   8.432  2.1602 -1.9178  0.2598
51473SOL    HW266144   7.077   2.215   8.315 -1.2889  0.3980  0.8312
51474SOL     OW66145   5.151   1.046   2.009 -0.6929  0.2694  0.0497
51474SOL    HW166146   5.221   0.991   2.045 -2.0230 -1.7076 -0.2539
51474SOL    HW266147   5.177   1.135   2.034  2.5941 -0.1871 -1.1570
51475SOL     OW66148  10.994   7.357   0.043  0.1364  0.2805 -0.6436
51475SOL    HW166149  10.910   7.390   0.009  0.7154  1.2563 -1.1627
51475SOL    HW266150  11.059   7.419   0.010  1.1240 -0.7355 -0.6425
51476SOL     OW66151   1.769   7.558   4.293  0.3312  0.1676  0.4853
51476SOL    HW166152   1.802   7.630   4.347  2.9653 -0.5656 -0.0108
51476SOL    HW266153   1.729   7.497   4.355  0.9313  0.5672  1.2771
51477SOL     OW66154   7.969   6.083  11.431 -0.8193 -0.6843  0.2759
51477SOL    HW166155   8.039   6.101  11.367 -0.6814 -0.1389  0.5760
51477SOL    HW266156   7.970   5.988  11.440 -3.6248 -1.3390 -3.7045
51478SOL     OW66157   7.892   5.387   3.198 -0.6523 -0.1920  0.1213
51478SOL    HW166158   7.864   5.326   3.266  0.5692 -0.4217  0.4256
51478SOL    HW266159   7.928   5.332   3.129 -0.3379  0.1396  0.0190
51479SOL     OW66160  11.311  11.519   5.538 -0.0527  0.3624  0.7700
51479SOL    HW166161  11.244  11.585   5.555  0.1380 -0.0442  3.6861
51479SOL    HW266162  11.275  11.438   5.573  0.0253 -1.0221 -2.0585
51480SOL     OW66163   8.024   8.948   1.983 -0.2887 -0.0553  0.5948
51480SOL    HW166164   7.964   9.020   2.003  1.5270  1.8061 -0.2018
51480SOL    HW266165   8.058   8.921   2.068 -2.0177 -0.9712  1.0313
51481SOL     OW66166   2.471   8.799  10.155  0.6135  0.1360  0.0896
51481SOL    HW166167   2.411   8.734  10.117  0.7247  0.1058 -0.0345
51481SOL    HW266168   2.414   8.855  10.208  0.6117 -0.4873  0.7645
51482SOL     OW66169   4.661   1.199   9.936  0.0056 -0.1922 -0.2309
51482SOL    HW166170   4.685   1.119   9.984  0.1162 -1.1569 -1.8492
51482SOL    HW266171   4.735   1.215   9.878  0.5856  1.8746  0.9576
51483SOL     OW66172   2.594  11.831   7.983 -0.3673  0.3909  0.0744
51483SOL    HW166173   2.646  11.802   7.908 -1.6950 -2.0853  0.0076
51483SOL    HW266174   2.616  11.770   8.053 -0.9456  1.1723  0.9696
51484SOL     OW66175   5.775  10.148   5.176 -0.3260  0.1542 -0.3182
51484SOL    HW166176   5.708  10.215   5.162  1.1440  1.9513  0.8195
51484SOL    HW266177   5.857  10.197   5.184  1.1637 -1.9626 -1.6228
51485SOL     OW66178   7.494   2.419   4.550  0.3468  0.1656 -0.4489
51485SOL    HW166179   7.500   2.470   4.469  0.4080  3.1596  1.2928
51485SOL    HW266180   7.411   2.371   4.541  0.1917  0.6559 -2.1475
51486SOL     OW66181   9.962   3.430   9.923 -0.3057 -0.2384  0.3136
51486SOL    HW166182   9.959   3.438  10.018  1.7359  2.6058  0.2590
51486SOL    HW266183  10.036   3.372   9.906  1.3125  1.6566  0.5198
51487SOL     OW66184   5.573   4.567   5.395 -0.2235 -0.3868  0.4818
51487SOL    HW166185   5.584   4.472   5.396  0.5566 -0.3046  1.2265
51487SOL    HW266186   5.487   4.581   5.356 -0.7521 -1.4467  1.2247
51488SOL     OW66187   2.062   9.268   2.988 -0.6613  0.1762 -0.1062
51488SOL    HW166188   2.098   9.348   3.025 -1.5236  1.4800 -1.9394
51488SOL    HW266189   1.990   9.244   3.046 -1.1260  1.3930 -0.1656
51489SOL     OW66190   6.122   1.658   3.613 -0.3121 -0.6202 -0.2797
51489SOL    HW166191   6.120   1.562   3.623 -0.9593 -0.7620 -1.5542
51489SOL    HW266192   6.031   1.681   3.591 -0.4413  0.4502  1.1810
51490SOL     OW66193   8.866   4.879   9.605 -0.8269  0.2483 -0.0049
51490SOL    HW166194   8.771   4.883   9.614 -0.7472  1.9137  0.5686
51490SOL    HW266195   8.894   4.812   9.668 -1.4493  1.7185  1.9645
51491SOL     OW66196   8.885  11.708   3.843 -0.3329  0.3261  0.5807
51491SOL    HW166197   8.872  11.698   3.938  0.5050 -1.7492  0.5290
51491SOL    HW266198   8.815  11.655   3.804 -0.8382  1.3957  0.0191
51492SOL     OW66199   8.970  11.915   8.453 -0.3712  0.5646  0.2477
51492SOL    HW166200   9.056  11.954   8.469 -0.4436  0.8321 -0.0047
51492SOL    HW266201   8.917  11.940   8.528 -0.3418  0.7385  0.2108
51493SOL     OW66202   2.464   7.490   9.232  0.0639 -0.1388  0.0237
51493SOL    HW166203   2.478   7.514   9.141 -0.4977  0.5796  0.1193
51493SOL    HW266204   2.455   7.574   9.278 -1.8555 -0.5036  0.3818
51494SOL     OW66205   9.779   4.733   8.957 -0.1436  0.5864 -0.1920
51494SOL    HW166206   9.855   4.696   9.002 -0.4737  1.3875  1.0691
51494SOL    HW266207   9.708   4.727   9.020 -0.8922  0.7557 -1.0017
51495SOL     OW66208   6.891  10.973   4.753  0.5970  0.1704  0.4865
51495SOL    HW166209   6.881  10.900   4.814  2.3786  0.1698  0.8448
51495SOL    HW266210   6.975  11.012   4.776  0.4297  1.3436 -0.7528
51496SOL     OW66211   6.247  10.885   1.331  0.2947 -0.0412 -0.6369
51496SOL    HW166212   6.238  10.800   1.373  1.0935 -0.0805 -0.5324
51496SOL    HW266213   6.334  10.883   1.289  1.4915  1.6453  1.5403
51497SOL     OW66214   3.092   0.156  11.661  0.2939  0.1460 -0.2887
51497SOL    HW166215   3.170   0.161  11.716 -1.0216  1.4640  1.5491
51497SOL    HW266216   3.042   0.083  11.697 -0.2552  0.5797 -0.1552
51498SOL     OW66217   1.456   5.642   8.452 -0.1488  0.6696 -0.2059
51498SOL    HW166218   1.364   5.624   8.433  0.1110 -0.3881 -0.5531
51498SOL    HW266219   1.457   5.673   8.542 -0.7295 -0.4007  0.1813
51499SOL     OW66220   1.938   5.579   9.654 -0.8136 -0.1472  0.0052
51499SOL    HW166221   1.896   5.639   9.716  0.5998  0.5360  0.3547
51499SOL    HW266222   2.007   5.537   9.705  0.9113  1.0198 -1.2517
51500SOL     OW66223   3.767   2.859   9.544 -0.3208 -0.3878 -0.4522
51500SOL    HW166224   3.817   2.777   9.548  0.1847 -0.0795 -0.4354
51500SOL    HW266225   3.826   2.922   9.503 -0.2752  0.2941  0.6287
51501SOL     OW66226   3.376   0.508   2.332  0.4880 -0.0567  0.0675
51501SOL    HW166227   3.446   0.568   2.360  0.9585 -0.5864  0.0547
51501SOL    HW266228   3.372   0.518   2.237 -0.6983  1.3019  0.2368
51502SOL     OW66229   3.642   0.208   7.339 -0.5209 -0.2345  0.4914
51502SOL    HW166230   3.563   0.260   7.352 -0.9636 -0.6067 -0.5749
51502SOL    HW266231   3.674   0.191   7.427 -2.1637 -0.8525  1.0225
51503SOL     OW66232   5.810   4.457   7.292  0.6970  0.5628 -0.1803
51503SOL    HW166233   5.800   4.376   7.342 -0.0875  0.1279 -1.0194
51503SOL    HW266234   5.890   4.444   7.242  0.4424  0.2066 -0.4955
51504SOL     OW66235   9.894   1.381   8.979  0.3012 -0.7827 -0.1499
51504SOL    HW166236   9.863   1.469   8.955  1.2821 -0.6128 -0.8570
51504SOL    HW266237   9.853   1.364   9.064 -0.5672  0.0121 -0.3892
51505SOL     OW66238  10.693   5.614   8.607 -0.8334 -0.2796 -0.2501
51505SOL    HW166239  10.645   5.575   8.679  2.0836 -0.2663  1.9101
51505SOL    HW266240  10.661   5.704   8.602 -1.9953 -0.6606  0.1246
51506SOL     OW66241   4.165   0.388   6.463 -0.2695  0.1795  0.0050
51506SOL    HW166242   4.171   0.360   6.371  0.3003 -0.2205  0.1594
51506SOL    HW266243   4.083   0.349   6.494 -1.0287  1.2270 -0.6325
51507SOL     OW66244   2.036   5.738   8.103 -0.3845  0.2354 -0.2857
51507SOL    HW166245   2.031   5.810   8.041  1.6233  1.6990  1.1148
51507SOL    HW266246   2.070   5.778   8.184 -3.2126 -1.4581  1.9507
51508SOL     OW66247  10.358   8.711   3.368  0.1784  0.2716 -0.0096
51508SOL    HW166248  10.287   8.731   3.308 -0.0411  0.1498  0.2100
51508SOL    HW266249  10.389   8.797   3.397  1.4277  0.3996 -1.6140
51509SOL     OW66250   7.455   8.872   6.138  0.2669 -0.3944 -0.3315
51509SOL    HW166251   7.374   8.880   6.088  1.1825  1.3081 -1.6762
51509SOL    HW266252   7.524   8.869   6.071  1.5218  1.4419  0.7717
51510SOL     OW66253   9.983   9.825   7.652 -0.4099  0.2806  0.3050
51510SOL    HW166254   9.928   9.815   7.730 -2.2611 -0.4822 -1.0489
51510SOL    HW266255   9.976   9.918   7.630  0.0050  0.4714  0.9242
51511SOL     OW66256  11.899   8.100   4.870 -0.1058 -0.0417 -0.0269
51511SOL    HW166257  11.944   8.120   4.953  0.3745  0.7119 -0.4500
51511SOL    HW266258  11.952   8.145   4.804  0.1179 -1.5187 -0.8752
51512SOL     OW66259   3.129   7.424  11.428  0.0952  0.0239  0.2921
51512SOL    HW166260   3.062   7.467  11.375  1.7227 -0.7865 -2.6807
51512SOL    HW266261   3.163   7.493  11.485 -1.5704  1.0597  0.0828
51513SOL     OW66262   3.017   5.901   5.859 -0.5487 -0.3615 -0.2642
51513SOL    HW166263   2.943   5.844   5.881 -1.5118  0.4573 -1.2454
51513SOL    HW266264   3.078   5.844   5.811 -0.9790 -0.8371 -0.2575
51514SOL     OW66265   9.294   2.576   7.911 -0.4270  0.0927  0.0040
51514SOL    HW166266   9.319   2.549   7.822  2.2103 -0.1659  0.7401
51514SOL    HW266267   9.261   2.496   7.951  1.1609 -0.5521  0.1189
51515SOL     OW66268  10.411  10.735   5.869 -0.2974 -0.7578  0.2352
51515SOL    HW166269  10.473  10.743   5.942  0.7091 -2.0225 -0.4251
51515SOL    HW266270  10.431  10.649   5.831 -2.1172 -0.9510 -0.3405
51516SOL     OW66271   8.159   7.674   6.902  0.0287  0.1907  0.4266
51516SOL    HW166272   8.121   7.711   6.982 -0.5053 -0.7467  0.6364
51516SOL    HW266273   8.244   7.641   6.929 -0.7074 -1.3611  0.9810
51517SOL     OW66274   7.917   4.271  10.071 -0.2928 -0.0554 -0.1012
51517SOL    HW166275   7.880   4.235  10.152 -1.3320  0.8314 -0.1651
51517SOL    HW266276   8.008   4.241  10.072 -0.7826 -1.6559  0.4385
51518SOL     OW66277   8.587   6.821  11.215 -0.6005 -0.3802  0.0696
51518SOL    HW166278   8.499   6.860  11.221 -0.1977  0.4815  0.5060
51518SOL    HW266279   8.577   6.736  11.257 -0.6035  0.8382  2.8035
51519SOL     OW66280   4.984   6.913   3.498  0.1067 -0.0310 -0.1069
51519SOL    HW166281   4.962   6.850   3.567  1.0962  0.1482  0.3931
51519SOL    HW266282   4.905   6.918   3.444 -0.9032  0.2208  1.3115
51520SOL     OW66283   8.645   5.915   4.350 -0.1163 -0.0086  0.6934
51520SOL    HW166284   8.597   5.906   4.267 -0.0538  0.6906  0.5788
51520SOL    HW266285   8.604   5.851   4.408  0.0020 -0.6848  0.0513
51521SOL     OW66286   0.562   3.455   9.569 -0.3865 -0.4414 -0.0247
51521SOL    HW166287   0.474   3.492   9.574  0.2393  0.9906  1.0799
51521SOL    HW266288   0.589   3.444   9.660  0.6415 -0.6808 -0.3457
51522SOL     OW66289   3.164   7.914   6.365  0.4756  0.3029  0.6421
51522SOL    HW166290   3.192   7.823   6.372  0.8604  0.2134 -1.4699
51522SOL    HW266291   3.074   7.915   6.396 -0.2523 -1.2347 -1.2610
51523SOL     OW66292  10.761   5.665   8.007 -0.2435 -0.7472  0.0360
51523SOL    HW166293  10.734   5.737   8.063 -1.5435 -0.8629 -0.4236
51523SOL    HW266294  10.744   5.586   8.058  0.9003 -0.7717  0.4224
51524SOL     OW66295   3.616   4.064   9.159  0.0713 -0.1063 -0.6594
51524SOL    HW166296   3.612   4.016   9.242  0.3163 -0.1409 -0.6659
51524SOL    HW266297   3.540   4.123   9.162 -0.8289 -1.2042 -1.0997
51525SOL     OW66298   7.319   2.357   0.679 -0.4400  0.0584 -0.3776
51525SOL    HW166299   7.353   2.444   0.661 -1.0777  0.3133 -0.3810
51525SOL    HW266300   7.280   2.364   0.766  1.3711 -0.7924  0.5465
51526SOL     OW66301   8.993  10.922   0.685 -0.0485 -0.2032  0.2123
51526SOL    HW166302   8.995  11.018   0.676  0.3982 -0.2978 -0.8694
51526SOL    HW266303   9.049  10.890   0.615  0.7320 -1.2385  1.2629
51527SOL     OW66304   4.590   5.311   8.675 -0.1667  0.1861 -0.2386
51527SOL    HW166305   4.640   5.386   8.707  0.5587  0.4221 -1.7897
51527SOL    HW266306   4.654   5.240   8.673 -1.3450 -1.1957  3.3183
51528SOL     OW66307   3.962  11.524   5.915  0.2294  0.6135 -0.4314
51528SOL    HW166308   3.899  11.509   5.845 -1.6279  0.2021  1.2285
51528SOL    HW266309   3.912  11.570   5.983  0.0885 -4.0319  3.1050
51529SOL     OW66310   8.894   8.700   7.174 -0.5652  0.5944  0.4628
51529SOL    HW166311   8.800   8.702   7.155 -0.5573  0.2068  0.3608
51529SOL    HW266312   8.907   8.615   7.216  0.1266 -0.3729 -1.5999
51530SOL     OW66313   5.901   0.225   9.796  0.8989 -0.4252 -0.4851
51530SOL    HW166314   5.812   0.250   9.820  1.0714  0.1700 -0.4376
51530SOL    HW266315   5.922   0.282   9.722  1.0757 -0.8777 -0.7811
51531SOL     OW66316   9.390   3.717   4.060  0.5329 -0.0724  0.0080
51531SOL    HW166317   9.426   3.805   4.046 -0.8556  0.5888  0.4038
51531SOL    HW266318   9.326   3.706   3.989  2.2086 -1.6839 -1.3739
51532SOL     OW66319   2.480   4.944   9.064 -0.3638 -0.1376 -0.0783
51532SOL    HW166320   2.528   4.873   9.021 -0.5885 -1.2920  1.4885
51532SOL    HW266321   2.445   4.904   9.144 -1.8403  1.3320  0.0591
51533SOL     OW66322   1.913   4.958   6.301  0.3860  0.5622 -0.4316
51533SOL    HW166323   1.965   5.010   6.239  1.7599 -0.3619 -0.1084
51533SOL    HW266324   1.954   4.871   6.298 -1.6670 -0.4475 -0.7532
51534SOL     OW66325  10.705  11.857   8.448 -0.3871  0.5214 -0.3339
51534SOL    HW166326  10.698  11.949   8.475 -1.7983  0.7254 -1.2935
51534SOL    HW266327  10.762  11.817   8.514  3.5371  2.8571 -1.9423
51535SOL     OW66328  10.842  11.398  11.035 -0.2555  0.6452  0.1311
51535SOL    HW166329  10.912  11.452  11.073  0.5064 -0.5563  0.5339
51535SOL    HW266330  10.764  11.421  11.084  0.2677  0.6954  0.9663
51536SOL     OW66331   5.342   0.398   0.087  0.1940 -0.5275 -0.5044
51536SOL    HW166332   5.405   0.463   0.116 -3.4889  2.5469  1.5477
51536SOL    HW266333   5.326   0.418  -0.005  0.0063  0.6952 -0.2156
51537SOL     OW66334   6.348   3.681  11.291  0.0744  0.1477 -0.1559
51537SOL    HW166335   6.337   3.759  11.345  1.7063  0.4239 -0.1574
51537SOL    HW266336   6.297   3.699  11.212  0.8269  1.4579 -0.3771
51538SOL     OW66337   3.752   9.398   0.454  0.2292  0.8910  0.1871
51538SOL    HW166338   3.733   9.443   0.537 -0.3020 -0.0489  0.5897
51538SOL    HW266339   3.673   9.346   0.436  1.1658 -0.5887  0.1998
51539SOL     OW66340   0.479   6.097   9.552  0.0938  0.1799 -0.1243
51539SOL    HW166341   0.524   6.036   9.494 -2.5131 -1.8417 -0.1397
51539SOL    HW266342   0.541   6.170   9.561  2.7520 -1.7776 -1.2175
51540SOL     OW66343   5.292   3.132   0.863  0.0213 -0.5327  0.7621
51540SOL    HW166344   5.384   3.157   0.853 -0.2112  0.2868  0.5932
51540SOL    HW266345   5.270   3.090   0.780 -0.4719  1.6428 -0.2785
51541SOL     OW66346   6.692   1.050   3.255 -0.3109  0.6692 -0.4833
51541SOL    HW166347   6.651   0.990   3.318  0.1974  0.9988  0.1820
51541SOL    HW266348   6.784   1.024   3.253 -0.5351 -0.0683 -1.9694
51542SOL     OW66349   2.197   7.298   7.944 -0.1920  0.5111 -0.4764
51542SOL    HW166350   2.185   7.305   8.038 -0.5011  0.7839 -0.5357
51542SOL    HW266351   2.134   7.360   7.907 -0.1170  0.3584 -0.8618
51543SOL     OW66352   5.162  10.125   9.705 -0.1656 -0.0778  0.1842
51543SOL    HW166353   5.168  10.213   9.668  0.2857  0.2754  1.0745
51543SOL    HW266354   5.219  10.126   9.781 -1.8590 -0.4669  1.5234
51544SOL     OW66355   8.643  11.272   9.510  0.4439  0.3764 -0.0934
51544SOL    HW166356   8.639  11.350   9.567  1.3282  0.2516  0.1495
51544SOL    HW266357   8.590  11.207   9.556  1.5880  0.1080  0.8707
51545SOL     OW66358   7.631   5.958  11.132 -0.0381  0.0984  0.5193
51545SOL    HW166359   7.675   6.042  11.139  0.2366  0.5289 -3.8294
51545SOL    HW266360   7.702   5.893  11.135  0.4592  0.4771 -1.4444
51546SOL     OW66361   5.674   9.239  11.152 -0.4531  0.5736  0.0838
51546SOL    HW166362   5.766   9.255  11.134 -0.0010 -0.2626  1.4746
51546SOL    HW266363   5.660   9.273  11.241 -1.0105 -0.9281  0.6060
51547SOL     OW66364   1.674   0.359  10.951 -0.5491  0.4442 -0.0143
51547SOL    HW166365   1.692   0.443  10.910 -0.4010  0.0997 -0.6689
51547SOL    HW266366   1.760   0.325  10.976 -0.5539  0.2124 -0.3067
51548SOL     OW66367   1.533   7.228   5.894  0.0179  0.0787 -0.4229
51548SOL    HW166368   1.548   7.321   5.876  0.5236 -0.2641 -1.9814
51548SOL    HW266369   1.461   7.204   5.836 -0.1083 -0.5083 -0.0320
51549SOL     OW66370   9.379   1.031   4.371 -0.3540 -0.0459  0.1182
51549SOL    HW166371   9.432   1.062   4.444 -1.4795  1.1268  0.4756
51549SOL    HW266372   9.316   0.970   4.410 -2.4880  2.3235  0.6213
51550SOL     OW66373   6.867   9.532   8.071  0.3054 -0.4186 -0.0945
51550SOL    HW166374   6.908   9.594   8.132 -0.2959  0.1465 -0.2483
51550SOL    HW266375   6.890   9.566   7.984 -0.6126  0.0085 -0.1857
51551SOL     OW66376   5.286   6.769   1.761 -0.8708  0.0884  0.0754
51551SOL    HW166377   5.211   6.799   1.813 -0.2430 -1.2545  1.8685
51551SOL    HW266378   5.345   6.731   1.826  1.7813  1.8598 -1.1574
51552SOL     OW66379   2.038   9.537   2.714  0.0840  0.7204 -0.3516
51552SOL    HW166380   2.037   9.598   2.788  1.2796  2.5035 -1.7230
51552SOL    HW266381   1.981   9.465   2.741 -0.2268  1.7407  1.9197
51553SOL     OW66382   8.863  10.284  11.607  0.4755 -0.3585  0.5742
51553SOL    HW166383   8.822  10.241  11.532  0.2032 -0.8572  1.0039
51553SOL    HW266384   8.845  10.226  11.681  2.5300 -0.9466  0.6721
51554SOL     OW66385   0.002   2.638   7.943 -0.1447 -0.3583 -0.4199
51554SOL    HW166386   0.096   2.633   7.960 -0.1471 -0.1750 -0.3478
51554SOL    HW266387  -0.025   2.548   7.925  0.0801 -0.3848 -0.6270
51555SOL     OW66388  11.230   0.309   1.414  0.1365  0.1281  0.8438
51555SOL    HW166389  11.150   0.290   1.364 -0.7426  1.4702  1.6506
51555SOL    HW266390  11.209   0.390   1.461  2.4531  1.2596  0.0666
51556SOL     OW66391   9.901   4.053   9.614  0.1896  0.1056  0.0597
51556SOL    HW166392   9.911   4.114   9.688  1.7437 -0.1466  0.0962
51556SOL    HW266393   9.857   3.977   9.651 -0.9393  0.8066  0.2251
51557SOL     OW66394  10.179   2.970   1.316  0.1894  0.0893  0.1767
51557SOL    HW166395  10.235   3.041   1.285  1.2774 -0.3351  1.0761
51557SOL    HW266396  10.186   2.903   1.248  0.4862  0.1959  0.1001
51558SOL     OW66397   5.667  10.678   1.084 -0.2375  0.0457  0.3009
51558SOL    HW166398   5.760  10.656   1.088 -0.2255  0.2878  1.7836
51558SOL    HW266399   5.664  10.760   1.035  0.2063 -0.5351 -0.7322
51559SOL     OW66400   1.004   0.610   3.276 -0.3548  0.2838 -0.1649
51559SOL    HW166401   0.931   0.569   3.323  0.2748 -0.3903  0.2548
51559SOL    HW266402   0.994   0.704   3.293 -0.3289  0.0821  1.0655
51560SOL     OW66403   6.495  10.007  11.349 -0.2394 -0.3080 -0.4976
51560SOL    HW166404   6.584  10.012  11.383 -0.2657 -0.1066 -0.4593
51560SOL    HW266405   6.441   9.986  11.426 -0.2210 -0.4737 -0.5290
51561SOL     OW66406   6.644   2.579   6.168  0.5286 -0.0070  1.0099
51561SOL    HW166407   6.641   2.622   6.083  2.3388 -0.6852  0.5455
51561SOL    HW266408   6.552   2.569   6.194 -0.0254  0.8868 -0.5073
51562SOL     OW66409   8.209  11.112  11.081 -0.5086 -0.3231 -0.4993
51562SOL    HW166410   8.235  11.175  11.149 -0.1591 -0.4390 -0.5223
51562SOL    HW266411   8.262  11.034  11.099  0.9809  0.2663 -1.9896
51563SOL     OW66412  11.473   5.261   6.632 -0.3135 -0.8288 -0.1458
51563SOL    HW166413  11.472   5.237   6.725  3.1480 -0.1319  0.2141
51563SOL    HW266414  11.429   5.346   6.630  0.4578 -0.3600  1.0831
51564SOL     OW66415   6.612  11.201   0.214  0.4152 -0.1704  0.2666
51564SOL    HW166416   6.598  11.124   0.159 -0.4023  1.4081 -1.8642
51564SOL    HW266417   6.542  11.196   0.279  0.5448 -1.3552  0.3409
51565SOL     OW66418   2.997   7.845   4.549 -0.7967  0.0228  0.0663
51565SOL    HW166419   3.069   7.861   4.610  0.8455 -1.1463 -1.4863
51565SOL    HW266420   2.921   7.832   4.606  0.1437  1.4119  1.7549
51566SOL     OW66421   0.435   2.742   5.941 -0.3784  0.4130  0.2186
51566SOL    HW166422   0.470   2.813   5.888 -0.7796  0.0499 -0.5457
51566SOL    HW266423   0.495   2.669   5.925 -0.1785  0.4654  0.7110
51567SOL     OW66424   9.034   6.214   9.023 -0.7383 -0.5954 -0.5915
51567SOL    HW166425   8.946   6.212   8.986 -0.7098  0.6181 -0.7512
51567SOL    HW266426   9.091   6.197   8.948 -0.7466  0.6111 -0.8870
51568SOL     OW66427   9.547   1.528   7.159  0.3496  0.2288 -0.3787
51568SOL    HW166428   9.546   1.432   7.151 -0.0470  0.2562 -0.7095
51568SOL    HW266429   9.574   1.544   7.249 -0.9512 -0.2297  0.1285
51569SOL     OW66430   6.523   0.758   3.833 -0.0509 -0.7652 -0.2339
51569SOL    HW166431   6.431   0.732   3.836  0.1593 -1.4554  1.1535
51569SOL    HW266432   6.569   0.680   3.802  0.0807 -0.4761 -0.7639
51570SOL     OW66433   5.092   7.740   3.923  0.2369  0.2102  0.2739
51570SOL    HW166434   5.072   7.809   3.859 -0.1598 -0.6781 -0.5817
51570SOL    HW266435   5.091   7.659   3.872  0.2301 -0.4869  1.3557
51571SOL     OW66436   2.872  10.129  10.816 -0.3647  0.2655  0.1711
51571SOL    HW166437   2.964  10.154  10.811 -0.4525  0.7201  0.8043
51571SOL    HW266438   2.871  10.039  10.782 -0.3567  1.6777 -4.2834
51572SOL     OW66439   5.262   2.633   0.460  0.5696  0.4646  0.0801
51572SOL    HW166440   5.315   2.712   0.469  3.1170 -1.0855 -0.3072
51572SOL    HW266441   5.234   2.632   0.369 -0.1020  1.2893  0.2761
51573SOL     OW66442   3.472   8.043   3.663  0.5394  0.3403 -0.4876
51573SOL    HW166443   3.525   7.965   3.648  0.6837 -0.1205  1.9917
51573SOL    HW266444   3.535   8.115   3.665  0.6744  0.2264 -0.6550
51574SOL     OW66445  10.315   6.009   0.148  0.0106 -0.0979 -0.0251
51574SOL    HW166446  10.310   5.962   0.231 -0.0248  0.0771  0.0726
51574SOL    HW266447  10.241   6.070   0.151 -0.2015 -0.3332 -0.3370
51575SOL     OW66448   0.379   2.635   4.912 -0.3171 -0.0789 -0.5460
51575SOL    HW166449   0.420   2.660   4.995 -0.0009 -1.4875 -0.2520
51575SOL    HW266450   0.448   2.650   4.846 -1.0270  2.4209 -0.8138
51576SOL     OW66451   0.647  11.120   0.509 -0.5344 -0.2702  0.0064
51576SOL    HW166452   0.732  11.151   0.478 -0.7714  0.1439 -0.2445
51576SOL    HW266453   0.655  11.025   0.508  0.4141 -0.2366  1.3892
51577SOL     OW66454  11.788   7.563   1.316  1.0133  0.4599 -0.6838
51577SOL    HW166455  11.739   7.484   1.339  1.7087  0.1249 -0.3511
51577SOL    HW266456  11.728   7.635   1.336  1.3085  0.1544  1.4790
51578SOL     OW66457   3.591   1.276   5.225 -0.0165  0.4307  0.1077
51578SOL    HW166458   3.567   1.363   5.258 -1.4984  0.0304  0.1193
51578SOL    HW266459   3.601   1.223   5.304 -0.5594  0.2325  0.0468
51579SOL     OW66460  10.520   0.031   6.303 -0.0433  0.1701  0.1041
51579SOL    HW166461  10.541  -0.062   6.298 -0.1638  0.2058 -1.5393
51579SOL    HW266462  10.604   0.075   6.304  0.0101  0.0994 -0.8116
51580SOL     OW66463   6.374  10.136   5.051  0.3684  0.1667  0.3940
51580SOL    HW166464   6.307  10.067   5.051 -0.3303  0.8240 -0.3164
51580SOL    HW266465   6.425  10.119   4.972 -0.5371  1.1286 -0.4282
51581SOL     OW66466   4.115   2.275   2.972  0.7477 -0.8179 -0.2533
51581SOL    HW166467   4.030   2.238   2.993 -0.2007  1.3995  0.1622
51581SOL    HW266468   4.114   2.286   2.877  0.8258 -1.3510 -0.3166
51582SOL     OW66469   2.099   6.084   9.830  0.1838 -0.3932 -0.0651
51582SOL    HW166470   2.057   6.127   9.756  0.6299  1.1151  0.5275
51582SOL    HW266471   2.057   6.122   9.908 -1.0591 -2.7174  0.5313
51583SOL     OW66472   9.023   1.249   4.548  0.3010 -0.5893  0.1649
51583SOL    HW166473   8.940   1.266   4.594  0.9852 -1.7652  1.9449
51583SOL    HW266474   9.090   1.287   4.605  1.0822 -0.6849 -0.6703
51584SOL     OW66475   9.706  10.775   9.615 -0.1027  0.4303 -0.1074
51584SOL    HW166476   9.795  10.783   9.580 -1.3826 -2.5394 -5.0927
51584SOL    HW266477   9.656  10.844   9.571 -0.7872  0.2266  0.3317
51585SOL     OW66478   9.420   7.844   8.742 -0.7564  0.0811  0.5296
51585SOL    HW166479   9.391   7.880   8.826 -3.7135 -0.7323 -0.0117
51585SOL    HW266480   9.362   7.770   8.727  0.1443 -0.2051 -1.9337
51586SOL     OW66481   6.766   9.825  11.367 -0.1752  0.2196 -0.4461
51586SOL    HW166482   6.791   9.819  11.275  1.6305  1.0718 -0.0657
51586SOL    HW266483   6.841   9.869  11.409  0.1426 -2.2693  1.8533
51587SOL     OW66484   8.709   1.378   2.632 -0.2556  0.2007  0.0140
51587SOL    HW166485   8.689   1.339   2.547 -1.5600  0.2020  0.2962
51587SOL    HW266486   8.771   1.317   2.672  1.7540  1.0748 -1.5927
51588SOL     OW66487   9.060   2.765   2.403  0.3720 -0.2140  0.1849
51588SOL    HW166488   9.139   2.787   2.452  1.3135 -1.0624 -0.8977
51588SOL    HW266489   9.046   2.839   2.345  0.2158  0.0495  0.5542
51589SOL     OW66490   7.533   5.199   1.452 -0.6313  0.6704  0.0989
51589SOL    HW166491   7.585   5.123   1.476  0.9610  1.1417 -1.6060
51589SOL    HW266492   7.490   5.225   1.533 -0.1329 -1.1988  1.0287
51590SOL     OW66493   2.881  10.795   1.734  0.0225  0.6213 -0.6439
51590SOL    HW166494   2.901  10.850   1.809  0.9631  1.3576 -1.4092
51590SOL    HW266495   2.797  10.755   1.756  0.5236  0.4015  1.0175
51591SOL     OW66496   7.127   2.124   3.837 -0.0667  0.1922 -0.5407
51591SOL    HW166497   7.168   2.142   3.752 -1.1652  1.4282 -0.8452
51591SOL    HW266498   7.067   2.052   3.820 -0.7342  0.8333 -0.9897
51592SOL     OW66499   6.292   7.494   2.036 -0.8150 -0.2037 -0.1862
51592SOL    HW166500   6.379   7.522   2.065  0.0449 -2.9755  0.1977
51592SOL    HW266501   6.237   7.502   2.114 -0.4474 -0.1895  0.0732
51593SOL     OW66502   3.167  11.065   6.732  0.2801  0.6217  0.6786
51593SOL    HW166503   3.153  11.142   6.786  2.0244  0.9677  0.7018
51593SOL    HW266504   3.252  11.080   6.689  0.3346 -0.9562  0.1306
51594SOL     OW66505   7.387   5.069   3.212  0.3785 -0.0912  0.3275
51594SOL    HW166506   7.404   4.994   3.269 -0.0802  0.2095  0.8677
51594SOL    HW266507   7.425   5.044   3.128  1.3176 -0.4255  0.8348
51595SOL     OW66508   6.715   2.473   5.433  0.6116 -0.1837 -0.3264
51595SOL    HW166509   6.751   2.546   5.382  0.4107  0.9001  1.0438
51595SOL    HW266510   6.791   2.436   5.478  0.4378  0.4262  0.4903
51596SOL     OW66511   2.605   1.295   7.391 -0.3859  0.1591 -0.1260
51596SOL    HW166512   2.519   1.327   7.364 -0.3569  0.4486  0.1147
51596SOL    HW266513   2.612   1.322   7.483 -0.4427 -0.7130  0.1473
51597SOL     OW66514   2.071   1.782   8.197  0.3051 -0.2574  0.0882
51597SOL    HW166515   2.001   1.807   8.136 -1.4999 -2.4430  1.0991
51597SOL    HW266516   2.141   1.748   8.140 -0.1447  0.3911 -0.8851
51598SOL     OW66517  11.222   4.140   3.682  0.3394 -0.1092 -0.0350
51598SOL    HW166518  11.235   4.201   3.754 -0.3917  1.1569 -0.9303
51598SOL    HW266519  11.272   4.062   3.707  0.1081  0.2810  1.8177
51599SOL     OW66520   8.936   0.262   3.572 -0.3414 -0.1614 -0.0208
51599SOL    HW166521   9.029   0.286   3.569 -0.4931  0.4902  0.3043
51599SOL    HW266522   8.936   0.166   3.580  0.2876 -0.2323 -0.8183
51600SOL     OW66523   5.972   4.460   9.085  0.5399  0.3175 -0.1753
51600SOL    HW166524   5.894   4.418   9.121  2.2448 -3.0950 -0.0072
51600SOL    HW266525   5.974   4.432   8.993  1.6391  0.2170 -0.1293
51601SOL     OW66526   5.598   7.059  11.628  0.5921  0.1386 -0.2831
51601SOL    HW166527   5.650   7.140  11.632 -0.9975  1.1800  0.4150
51601SOL    HW266528   5.559   7.061  11.541  1.1150 -0.2614 -0.5313
51602SOL     OW66529  10.778   4.918   2.779  0.4492  0.0694  0.2930
51602SOL    HW166530  10.808   4.846   2.724  1.4637  0.9899 -0.4094
51602SOL    HW266531  10.695   4.945   2.741 -0.5492 -1.4439  1.2652
51603SOL     OW66532   8.270   5.243  10.238 -0.2516 -0.6372  0.1699
51603SOL    HW166533   8.305   5.154  10.233 -1.4847 -1.1396  0.3908
51603SOL    HW266534   8.197   5.244  10.176 -0.9967 -0.1285  1.0348
51604SOL     OW66535   7.405   1.967   7.594  0.5218 -0.3893  0.3549
51604SOL    HW166536   7.405   2.049   7.644 -1.7247 -0.6081  0.7954
51604SOL    HW266537   7.443   1.991   7.509 -1.6377  1.5594 -0.1462
51605SOL     OW66538  11.032   1.231   5.328 -0.6332 -0.4297  0.3921
51605SOL    HW166539  11.059   1.232   5.237 -0.9994  0.8899  0.2777
51605SOL    HW266540  10.963   1.165   5.332 -2.5484  1.3760 -0.8968
51606SOL     OW66541   0.872   0.711   6.319  0.2490 -0.2686 -0.6750
51606SOL    HW166542   0.783   0.682   6.339  0.6465 -0.4547  0.9488
51606SOL    HW266543   0.902   0.651   6.251 -0.2020 -1.4288  0.1252
51607SOL     OW66544   5.797   6.917   3.153  0.4412  0.0472 -0.1254
51607SOL    HW166545   5.837   6.832   3.171  0.5599  0.1154 -0.0708
51607SOL    HW266546   5.733   6.899   3.083 -0.0951 -0.2360  0.4280
51608SOL     OW66547   5.767   8.973   5.178 -0.3934 -0.0006 -0.5198
51608SOL    HW166548   5.713   8.993   5.102 -0.2179  0.4611 -0.5262
51608SOL    HW266549   5.832   8.910   5.146  0.1267  0.7393 -0.9331
51609SOL     OW66550   9.052   8.103   8.695 -0.1637  0.1801  0.0330
51609SOL    HW166551   8.970   8.152   8.701  0.1689  0.7235  0.1653
51609SOL    HW266552   9.115   8.166   8.662  0.3018 -0.1228  0.3391
51610SOL     OW66553   1.039   2.977  11.355 -0.0226  0.0768  0.2587
51610SOL    HW166554   0.953   3.019  11.356  0.2645  0.6897 -0.1904
51610SOL    HW266555   1.027   2.898  11.302 -0.6370 -0.5852  1.3419
51611SOL     OW66556   8.285   4.759   9.365  0.3584 -0.1957  0.6475
51611SOL    HW166557   8.346   4.819   9.409 -0.6259 -0.0895  1.9024
51611SOL    HW266558   8.234   4.815   9.307 -1.5408  0.5175  2.8557
51612SOL     OW66559   6.627   6.001   6.404 -0.6251 -0.0307 -0.5652
51612SOL    HW166560   6.582   6.006   6.488 -0.0074 -1.8217 -0.0840
51612SOL    HW266561   6.645   6.092   6.381 -0.5722  0.4897  1.3734
51613SOL     OW66562   8.713   5.165   6.793  0.3309 -0.3517 -0.0862
51613SOL    HW166563   8.696   5.147   6.886 -0.4579  2.0131  0.3008
51613SOL    HW266564   8.742   5.082   6.757  1.7287 -1.0992  2.5290
51614SOL     OW66565  11.905   8.883   9.602  0.1138  0.0474  0.0261
51614SOL    HW166566  11.947   8.965   9.575  0.0996  0.2281  0.5321
51614SOL    HW266567  11.837   8.911   9.663  0.0227 -0.3336  0.0970
51615SOL     OW66568   3.074   3.754   7.766  0.3468 -0.2579 -0.0178
51615SOL    HW166569   3.065   3.665   7.731  0.0279  0.4593 -1.9083
51615SOL    HW266570   3.008   3.760   7.834 -0.3711 -1.1395 -0.6115
51616SOL     OW66571   8.071   2.404   7.087  0.4153  0.6543 -0.3693
51616SOL    HW166572   8.147   2.455   7.114 -0.4853  0.6878  2.4324
51616SOL    HW266573   8.100   2.313   7.095  0.9104  0.6380 -1.9026
51617SOL     OW66574   5.536   1.161   4.983  0.7638  0.1738  0.2053
51617SOL    HW166575   5.616   1.165   5.035 -0.5378  1.7623  2.2385
51617SOL    HW266576   5.468   1.135   5.045 -1.1438  3.5833 -0.2313
51618SOL     OW66577   6.067   8.676   6.991 -0.8725  0.2092 -0.3254
51618SOL    HW166578   5.995   8.634   7.038 -0.5767  0.0292 -0.0300
51618SOL    HW266579   6.125   8.708   7.060  0.1710 -1.0925 -0.5584
51619SOL     OW66580   4.609   2.213   6.586 -0.1902  0.6817  0.2691
51619SOL    HW166581   4.654   2.268   6.650 -0.1432  0.1980  0.6636
51619SOL    HW266582   4.680   2.171   6.537 -0.2254  1.2540 -0.2909
51620SOL     OW66583   7.439  11.859   4.592 -0.2932 -0.4868  0.2587
51620SOL    HW166584   7.394  11.802   4.654  0.6617 -1.4568  0.0919
51620SOL    HW266585   7.443  11.944   4.635 -1.4817 -0.6046  0.6357
51621SOL     OW66586   5.865   3.417   0.496 -0.1714  0.0480  0.0489
51621SOL    HW166587   5.848   3.490   0.437  1.5660  0.1107 -0.4329
51621SOL    HW266588   5.786   3.363   0.490 -0.8900  1.1159 -0.7016
51622SOL     OW66589   4.617   3.297   2.130 -0.0504 -0.2406  0.3479
51622SOL    HW166590   4.581   3.259   2.050 -0.9828 -0.4430  0.8479
51622SOL    HW266591   4.700   3.336   2.103 -0.1286 -0.7198 -0.6182
51623SOL     OW66592   8.214   2.496   4.938 -0.5367 -0.4005  0.0688
51623SOL    HW166593   8.145   2.513   5.002  0.0331 -1.0048  0.8766
51623SOL    HW266594   8.207   2.402   4.921 -0.4098 -0.3201 -0.4368
51624SOL     OW66595   5.344   2.109  11.791  0.5078  0.1245 -0.0998
51624SOL    HW166596   5.352   2.190  11.842 -1.2602  0.8504 -0.8860
51624SOL    HW266597   5.398   2.125  11.713  1.9380 -0.3663  0.7491
51625SOL     OW66598   4.562   4.856   3.026  0.2979  0.5138  0.5630
51625SOL    HW166599   4.588   4.945   3.049  0.5640  0.4130  0.6507
51625SOL    HW266600   4.644   4.809   3.014  0.1824  0.5922 -0.7260
51626SOL     OW66601   6.380   1.290   5.236 -0.1129  0.7360 -0.1955
51626SOL    HW166602   6.396   1.260   5.325  2.1642  1.5493 -0.2761
51626SOL    HW266603   6.351   1.212   5.189 -2.0684  0.4514  1.3768
51627SOL     OW66604  10.171   1.030   3.810 -0.0059  0.2907  0.0700
51627SOL    HW166605  10.124   1.111   3.788 -0.8133  0.0168  0.7565
51627SOL    HW266606  10.258   1.042   3.770 -0.6704  0.7641 -1.3051
51628SOL     OW66607  10.589   3.277  10.958  0.1823 -0.2710  0.3113
51628SOL    HW166608  10.528   3.204  10.967 -1.5342  1.0646 -0.0293
51628SOL    HW266609  10.605   3.307  11.048 -1.6663  0.8993  0.3107
51629SOL     OW66610   2.455   2.896   5.191 -0.6578  0.0449  0.2103
51629SOL    HW166611   2.414   2.820   5.232  0.5913 -0.3984  0.6829
51629SOL    HW266612   2.384   2.939   5.143 -1.3382 -1.5461 -0.2595
51630SOL     OW66613  11.738   5.584   2.744 -0.1582  0.0139  0.1266
51630SOL    HW166614  11.743   5.554   2.653 -0.4205  0.5981 -0.0831
51630SOL    HW266615  11.698   5.511   2.791  1.2833 -0.8760  0.0563
51631SOL     OW66616   8.651   3.107   2.450 -0.3363  0.0809  0.3505
51631SOL    HW166617   8.641   3.163   2.527  1.7183  0.0530  0.6793
51631SOL    HW266618   8.696   3.029   2.482 -0.0566 -0.2290 -0.7488
51632SOL     OW66619   4.572  10.121   0.179  0.3747  0.6454  0.1351
51632SOL    HW166620   4.535  10.167   0.254 -1.2490  1.5382 -1.1520
51632SOL    HW266621   4.572  10.028   0.205  0.2570  0.9760  1.3756
51633SOL     OW66622   1.115   6.252  11.657  0.0478  0.0603  0.1808
51633SOL    HW166623   1.060   6.174  11.660  2.0783 -1.4604 -0.0943
51633SOL    HW266624   1.189   6.228  11.601  1.0097  2.0038  0.4999
51634SOL     OW66625   1.360   3.112   1.637  0.1443 -0.0075  0.0674
51634SOL    HW166626   1.374   3.081   1.727  0.0808  0.5634  0.2748
51634SOL    HW266627   1.442   3.091   1.592  1.4125  2.4433  1.0347
51635SOL     OW66628   8.339   1.784   4.047 -0.4647 -0.7046  0.4511
51635SOL    HW166629   8.334   1.691   4.070  2.0340 -0.8695  0.5708
51635SOL    HW266630   8.431   1.808   4.060 -0.6933  1.3874 -1.1406
51636SOL     OW66631   9.152  10.934   9.124  0.2971  0.3752 -0.5833
51636SOL    HW166632   9.106  11.018   9.116  2.9888  2.4270  2.8273
51636SOL    HW266633   9.085  10.873   9.157 -1.2139  1.7075 -1.0297
51637SOL     OW66634   5.958   0.483   1.784  0.1444  0.1782  0.1714
51637SOL    HW166635   5.888   0.466   1.848  0.5543 -0.3757  0.4910
51637SOL    HW266636   6.039   0.480   1.836  0.5414 -0.9629 -0.4733
51638SOL     OW66637   2.121   6.455   3.284 -0.3206  0.2941  0.1331
51638SOL    HW166638   2.048   6.506   3.249 -1.0292 -0.0056  1.1463
51638SOL    HW266639   2.196   6.515   3.279 -0.2970  0.1884 -2.1197
51639SOL     OW66640   0.258   5.511   4.598 -0.3226 -0.1054 -0.5558
51639SOL    HW166641   0.320   5.575   4.561 -1.5467  1.9065  0.6934
51639SOL    HW266642   0.181   5.518   4.543 -0.7917  0.1707  0.1229
51640SOL     OW66643   5.924   3.341   7.857  0.2801  0.4815 -0.1546
51640SOL    HW166644   5.971   3.283   7.917 -0.3881  0.5324  0.4279
51640SOL    HW266645   5.884   3.283   7.793 -2.0216  0.0633  1.5405
51641SOL     OW66646  10.205   3.729   3.529  0.4212  0.6761  0.1310
51641SOL    HW166647  10.250   3.788   3.469  0.7524 -0.2983 -0.5918
51641SOL    HW266648  10.274   3.695   3.585  0.2747  0.7277  0.3454
51642SOL     OW66649   8.186   9.811  11.702 -0.1715  0.1771  0.1158
51642SOL    HW166650   8.248   9.763  11.647 -0.0026 -0.7075  1.0485
51642SOL    HW266651   8.114   9.832  11.643  0.9123  1.0747 -0.9461
51643SOL     OW66652   7.267   9.970  11.914  0.4857  0.1761 -0.2286
51643SOL    HW166653   7.258  10.007  12.002 -0.7866 -0.4480 -0.0649
51643SOL    HW266654   7.256  10.044  11.855  0.8495  0.5173  0.1270
51644SOL     OW66655   6.205   2.012  10.470  0.0234  0.1828  0.2486
51644SOL    HW166656   6.245   2.098  10.459 -2.0192  0.9812 -1.5167
51644SOL    HW266657   6.168   1.991  10.384 -0.9524 -1.7264  1.0688
51645SOL     OW66658   0.976   1.878   9.475 -0.1199  0.2981 -0.2087
51645SOL    HW166659   0.917   1.899   9.404 -1.0590 -0.9354  0.1773
51645SOL    HW266660   0.920   1.843   9.544  0.8969  0.4172  0.7139
51646SOL     OW66661   4.957   9.494   5.560  0.3947 -0.1458  0.2303
51646SOL    HW166662   5.051   9.498   5.546  0.2303  1.0713 -0.7209
51646SOL    HW266663   4.935   9.401   5.556  1.6128 -0.4818  0.9716
51647SOL     OW66664   2.949   6.465   6.920 -0.1250  0.2516 -0.4215
51647SOL    HW166665   2.856   6.478   6.942 -0.2835  2.3525 -2.0110
51647SOL    HW266666   2.951   6.460   6.825  1.3802 -0.0850 -0.3976
51648SOL     OW66667   7.899   1.291   5.678 -0.0489 -0.0426  0.1309
51648SOL    HW166668   7.941   1.224   5.624  1.0989 -0.2544  1.2522
51648SOL    HW266669   7.859   1.242   5.750 -1.7574  0.2154 -0.5999
51649SOL     OW66670  10.043   3.586   6.545  0.0704  0.1536 -0.1195
51649SOL    HW166671  10.102   3.581   6.620  0.2337 -0.9192 -0.3043
51649SOL    HW266672  10.031   3.495   6.517 -0.0519  0.5220 -1.3454
51650SOL     OW66673   6.992   3.778   7.311  0.1482 -0.0685  0.0993
51650SOL    HW166674   7.084   3.791   7.290  0.1672 -0.6219 -0.1905
51650SOL    HW266675   6.945   3.830   7.245  0.2488  0.0148  0.0940
51651SOL     OW66676  10.413   0.893   8.801  0.0538  0.0415 -0.3102
51651SOL    HW166677  10.363   0.929   8.874 -1.3622 -0.0438 -1.1881
51651SOL    HW266678  10.503   0.921   8.817 -0.2367  0.1226  1.3871
51652SOL     OW66679   6.599   9.580   6.797 -0.0109  0.2448 -0.1502
51652SOL    HW166680   6.577   9.489   6.820  0.9189  0.5712  2.2561
51652SOL    HW266681   6.555   9.633   6.864  0.7438  1.4730 -0.6032
51653SOL     OW66682   0.251   7.263   8.748  0.1245 -0.3051 -0.5707
51653SOL    HW166683   0.204   7.237   8.826 -1.5501 -0.8426 -1.6960
51653SOL    HW266684   0.308   7.335   8.776  3.2001 -3.4757  2.1454
51654SOL     OW66685   9.661   0.898   5.943  0.4603 -0.1387  0.2497
51654SOL    HW166686   9.744   0.898   5.992  0.1428  3.3613  1.0447
51654SOL    HW266687   9.593   0.895   6.011  0.0125  0.9967 -0.1137
51655SOL     OW66688   2.837   7.181   4.627  1.0399 -0.6055  1.1110
51655SOL    HW166689   2.864   7.212   4.541  1.1203 -1.8629  0.6686
51655SOL    HW266690   2.747   7.211   4.637  0.7837 -1.0665  0.2715
51656SOL     OW66691   7.775   0.695  10.400  0.0041  0.1412 -0.2832
51656SOL    HW166692   7.791   0.758  10.471 -1.3174 -0.6103  0.7167
51656SOL    HW266693   7.863   0.664  10.376  0.5550  1.1828  0.3023
51657SOL     OW66694   2.612   3.920   7.533 -0.0632  0.1264 -0.1058
51657SOL    HW166695   2.576   3.837   7.500 -0.9088  1.0843 -1.7183
51657SOL    HW266696   2.552   3.946   7.603  1.6235 -1.8176  2.2470
51658SOL     OW66697   4.406  11.602   8.106 -0.0945  0.0851  0.6088
51658SOL    HW166698   4.463  11.585   8.031  1.1795 -2.4339  2.0129
51658SOL    HW266699   4.446  11.677   8.150  0.1602  0.4637 -0.2423
51659SOL     OW66700   0.925   7.478   8.691  0.0981  0.3391 -0.3657
51659SOL    HW166701   1.005   7.466   8.742 -0.1297 -0.0964 -0.1110
51659SOL    HW266702   0.949   7.541   8.623  0.4754  0.7270  0.1195
51660SOL     OW66703   0.618   0.894   0.814 -0.2695 -0.4719 -0.0526
51660SOL    HW166704   0.639   0.802   0.831  1.6253  0.0855  0.8569
51660SOL    HW266705   0.563   0.892   0.736 -0.0123 -2.3472 -0.2279
51661SOL     OW66706  11.645   5.768   4.777  0.1701 -0.3325  0.0281
51661SOL    HW166707  11.682   5.717   4.849  1.3146  0.6009  0.1376
51661SOL    HW266708  11.643   5.708   4.703  1.4180 -0.5779  0.1707
51662SOL     OW66709   9.382   1.222   5.632  0.2463 -0.1673  0.7042
51662SOL    HW166710   9.469   1.230   5.671 -0.4245  1.0504  2.0503
51662SOL    HW266711   9.372   1.303   5.582 -0.8278  0.6343  2.1464
51663SOL     OW66712   9.952  11.663   9.528  0.2796 -0.1216 -0.6715
51663SOL    HW166713  10.029  11.614   9.499  1.2667  1.4975 -0.8695
51663SOL    HW266714   9.968  11.679   9.621 -1.5976 -2.9197  0.2867
51664SOL     OW66715   3.742   4.917   0.400  0.4145 -0.1766  0.1651
51664SOL    HW166716   3.795   4.916   0.320  0.2154  0.0821  0.0273
51664SOL    HW266717   3.674   4.983   0.383 -0.0209 -0.5830  0.2947
51665SOL     OW66718   8.773   2.135   9.147  0.2671 -0.2745 -0.2429
51665SOL    HW166719   8.758   2.217   9.194  2.0637 -0.9264  1.5688
51665SOL    HW266720   8.689   2.118   9.103 -0.7102  1.6156  0.7497
51666SOL     OW66721   9.413   9.104   9.588  0.2655 -0.5867 -0.3344
51666SOL    HW166722   9.441   9.023   9.545  0.4432 -0.1815 -0.9894
51666SOL    HW266723   9.443   9.174   9.530 -0.0694 -0.0555  0.1230
51667SOL     OW66724  11.462   9.534   2.121  0.1277  0.1105 -0.5260
51667SOL    HW166725  11.439   9.484   2.200  2.5742  0.2047  0.3315
51667SOL    HW266726  11.472   9.468   2.053 -1.5001 -0.0169 -0.6997
51668SOL     OW66727   2.698  10.943   8.631  0.5576 -0.7215  0.2232
51668SOL    HW166728   2.681  10.950   8.537  2.5116  2.4208 -0.0454
51668SOL    HW266729   2.689  10.850   8.650 -0.8897 -1.3437 -2.8328
51669SOL     OW66730   0.338   3.241   9.366  0.2437  0.4492  0.4963
51669SOL    HW166731   0.243   3.238   9.356  0.2762  1.1588 -0.1569
51669SOL    HW266732   0.352   3.300   9.440  0.1862  0.8984  0.1550
51670SOL     OW66733   6.657   9.304   9.816 -0.3703  0.3010 -0.0156
51670SOL    HW166734   6.742   9.262   9.809 -1.2760 -1.3799 -2.4692
51670SOL    HW266735   6.609   9.254   9.882 -0.7750 -1.4028 -1.5344
51671SOL     OW66736   6.099   4.404   9.445  0.6415 -0.0572 -0.1017
51671SOL    HW166737   6.108   4.488   9.491  1.0390 -0.3522  0.3742
51671SOL    HW266738   6.005   4.396   9.429  0.5436  0.2594  0.2796
51672SOL     OW66739   3.651  10.148   7.182 -0.4032 -0.6675 -0.4989
51672SOL    HW166740   3.581  10.113   7.128 -0.0178 -0.8699 -0.8724
51672SOL    HW266741   3.697  10.071   7.215  1.0763 -0.5411 -2.1539
51673SOL     OW66742   5.859   4.097   6.169 -0.2736  0.4284 -0.1754
51673SOL    HW166743   5.914   4.153   6.223 -1.1367  0.3196  0.8390
51673SOL    HW266744   5.910   4.083   6.089 -0.3822  3.3695 -0.8567
51674SOL     OW66745   8.827   5.216   3.882 -0.5780 -0.2253 -0.1858
51674SOL    HW166746   8.800   5.278   3.814 -0.7937 -0.8793 -0.7111
51674SOL    HW266747   8.820   5.265   3.964  2.1910  1.4420 -0.8089
51675SOL     OW66748   1.256   0.985   3.290  0.0751  0.5452  0.2208
51675SOL    HW166749   1.224   1.039   3.217 -0.7630 -0.8064 -0.4490
51675SOL    HW266750   1.351   0.990   3.285  0.0444 -0.0301 -1.3792
51676SOL     OW66751  10.190   4.683   6.293 -0.4047  0.4646  0.2146
51676SOL    HW166752  10.235   4.767   6.301  1.2559 -0.4375  0.7176
51676SOL    HW266753  10.218   4.649   6.209  0.1351 -0.2607  0.6835
51677SOL     OW66754  10.040   3.213   0.137  0.0694 -0.1260 -0.2573
51677SOL    HW166755   9.974   3.273   0.172 -0.2667  0.1846 -1.3885
51677SOL    HW266756  10.065   3.251   0.053  1.3958 -0.4659 -0.0339
51678SOL     OW66757   8.888   1.563  10.608  0.1642 -0.5650 -0.2610
51678SOL    HW166758   8.836   1.618  10.668  0.9477  0.3333 -0.3792
51678SOL    HW266759   8.955   1.524  10.664 -1.1662 -2.5077  0.0840
51679SOL     OW66760   7.086   5.374   0.858 -0.2521  0.3660 -0.2929
51679SOL    HW166761   7.147   5.387   0.931  0.2640 -0.5343 -0.5529
51679SOL    HW266762   7.114   5.293   0.816 -1.0170  0.4605 -1.0351
51680SOL     OW66763   7.594   2.845   7.719 -0.0925  0.1313 -0.2812
51680SOL    HW166764   7.624   2.827   7.630 -0.7839 -1.1362 -0.2874
51680SOL    HW266765   7.674   2.861   7.768  0.3639 -0.0952 -0.9333
51681SOL     OW66766   7.913   1.614   0.513  0.9907 -1.1835 -0.4070
51681SOL    HW166767   7.996   1.631   0.556  0.0982 -1.2639  1.4739
51681SOL    HW266768   7.851   1.674   0.555 -0.0719 -1.7552 -1.1074
51682SOL     OW66769  11.175   9.768  11.000 -0.5290 -0.2785  0.2091
51682SOL    HW166770  11.211   9.729  11.080  1.6490 -0.6559 -0.8751
51682SOL    HW266771  11.240   9.749  10.933 -2.3120 -0.0316 -1.6990
51683SOL     OW66772  10.971   2.172   6.920  0.3178 -0.0785  0.3145
51683SOL    HW166773  10.900   2.124   6.963 -0.1794 -0.9332 -1.3647
51683SOL    HW266774  11.048   2.117   6.932 -0.2632 -1.4168 -1.6546
51684SOL     OW66775   5.776   9.657  10.664  0.1450 -0.1304  0.0172
51684SOL    HW166776   5.771   9.588  10.598 -1.5881  0.4389 -0.5050
51684SOL    HW266777   5.723   9.728  10.628 -0.0031  0.5798  1.5651
51685SOL     OW66778   8.453   1.663   8.232 -0.0309 -0.5434 -0.1183
51685SOL    HW166779   8.509   1.740   8.217  0.2560 -0.1433  2.6166
51685SOL    HW266780   8.374   1.682   8.181  0.1858  1.4278  0.1791
51686SOL     OW66781   6.823   0.859   9.645  0.3597  0.3084 -0.0969
51686SOL    HW166782   6.729   0.876   9.649  0.3650  0.6514 -1.0425
51686SOL    HW266783   6.853   0.909   9.569  1.1227 -0.6279 -0.4394
51687SOL     OW66784   4.374   7.711   7.039 -0.1069  0.3433 -0.0358
51687SOL    HW166785   4.468   7.701   7.025  0.3129  1.1237  1.8805
51687SOL    HW266786   4.348   7.782   6.981  0.9383  1.5584  0.9306
51688SOL     OW66787   8.535  10.585  10.527 -0.4359  0.4147 -0.5821
51688SOL    HW166788   8.503  10.600  10.438 -2.2496 -1.4312 -0.3134
51688SOL    HW266789   8.549  10.673  10.562 -0.1043  1.1837 -2.5209
51689SOL     OW66790   8.278   4.858   7.504  0.4189 -0.5569  0.1848
51689SOL    HW166791   8.310   4.948   7.513 -0.1399  0.1670 -3.5087
51689SOL    HW266792   8.354   4.804   7.523  1.5985  0.8236 -0.3775
51690SOL     OW66793   5.355   9.687   2.417 -0.0639  0.1554  0.0639
51690SOL    HW166794   5.381   9.645   2.499  0.4776  0.3983  0.0224
51690SOL    HW266795   5.415   9.761   2.408  0.1241 -0.0814 -0.7265
51691SOL     OW66796   7.736  10.041   1.330  0.1922  0.4417  0.0107
51691SOL    HW166797   7.701  10.039   1.419  2.5418 -0.3271  0.9933
51691SOL    HW266798   7.791   9.963   1.324 -0.9914 -0.3089 -2.6387
51692SOL     OW66799   7.029  11.348  11.000 -0.0519  0.3475  0.3157
51692SOL    HW166800   7.065  11.376  11.085 -0.2619  3.5300 -0.5119
51692SOL    HW266801   7.056  11.417  10.939 -0.6330 -1.4226 -2.0651
51693SOL     OW66802   3.075   8.217   0.692  0.0151  0.0559  0.2034
51693SOL    HW166803   2.987   8.240   0.723  0.7778  3.9760 -0.0215
51693SOL    HW266804   3.069   8.225   0.596  0.4263 -0.5938  0.1180
51694SOL     OW66805   0.681   5.717   9.124  0.1728 -0.0560 -0.0633
51694SOL    HW166806   0.714   5.717   9.034 -0.0535 -0.9924 -0.1623
51694SOL    HW266807   0.702   5.629   9.157 -0.3841  0.0313  0.5525
51695SOL     OW66808  11.531   4.518   9.729 -1.0229 -0.2261  0.0999
51695SOL    HW166809  11.466   4.463   9.773  1.2302 -0.6643  3.1421
51695SOL    HW266810  11.569   4.571   9.799  2.7418 -0.8506 -1.2566
51696SOL     OW66811   7.892   6.624   4.364 -0.2016 -0.6130 -0.0006
51696SOL    HW166812   7.955   6.636   4.293 -0.0655  2.6603  0.5436
51696SOL    HW266813   7.943   6.639   4.444 -1.2801  0.3815  0.5220
51697SOL     OW66814  11.109  10.062   9.206  0.1635  0.4086 -0.7673
51697SOL    HW166815  11.068  10.065   9.119 -0.6631  0.8249 -0.3743
51697SOL    HW266816  11.158   9.980   9.206  1.0841  0.9164 -2.0271
51698SOL     OW66817   6.898   0.121   3.884  0.5157 -0.3564 -0.1722
51698SOL    HW166818   6.883   0.030   3.859  0.7097 -0.4313 -0.0179
51698SOL    HW266819   6.842   0.135   3.960  1.5367 -0.7703  0.6868
51699SOL     OW66820  11.392   1.159   0.883  0.2547 -0.2029  0.3493
51699SOL    HW166821  11.355   1.096   0.945 -0.5313 -0.5335 -0.4448
51699SOL    HW266822  11.393   1.242   0.931 -0.6916 -0.3711  0.6797
51700SOL     OW66823   5.617   4.930   4.593  0.2973 -0.4046  0.1092
51700SOL    HW166824   5.626   4.951   4.686  1.7915 -0.3138 -0.0209
51700SOL    HW266825   5.534   4.969   4.567  1.0017  1.7131  0.8533
51701SOL     OW66826  11.184   7.480   8.205 -0.8610  0.4949  0.1204
51701SOL    HW166827  11.141   7.524   8.279  0.3374 -0.6421  1.5501
51701SOL    HW266828  11.263   7.532   8.190 -1.8866  1.6900 -1.5092
51702SOL     OW66829  11.474   1.918   5.395  0.2025  0.1389 -0.3117
51702SOL    HW166830  11.563   1.953   5.391  0.6962 -0.7728  1.3823
51702SOL    HW266831  11.423   1.974   5.338  1.5396  1.7565  0.0144
51703SOL     OW66832   9.260   1.980  11.900  0.1933  0.3349 -0.7717
51703SOL    HW166833   9.215   1.957  11.982  1.3920 -0.3419 -0.2633
51703SOL    HW266834   9.331   1.916  11.894  0.5822  0.8590 -1.9653
51704SOL     OW66835   4.960   9.475  11.134  0.5499 -0.1622  0.6579
51704SOL    HW166836   5.017   9.552  11.138 -0.2508  0.5839 -1.2406
51704SOL    HW266837   5.018   9.404  11.105  0.8805  0.2068  0.3936
51705SOL     OW66838   3.530   9.009   2.190 -0.0107  0.7919 -0.5259
51705SOL    HW166839   3.534   8.918   2.161  1.0558  0.6641 -0.0160
51705SOL    HW266840   3.446   9.017   2.234  1.2828 -0.9191  2.5266
51706SOL     OW66841   3.886   3.235  10.853  0.4731  0.2275 -0.0672
51706SOL    HW166842   3.974   3.252  10.888  0.2823 -0.6422  0.9075
51706SOL    HW266843   3.829   3.294  10.903  0.2759 -0.5851  0.6977
51707SOL     OW66844   6.826  10.014   9.528 -0.6780 -0.0533 -0.2587
51707SOL    HW166845   6.888  10.044   9.462  0.8753  2.4528  2.1280
51707SOL    HW266846   6.769  10.090   9.544 -2.4789 -1.3350 -0.2441
51708SOL     OW66847  11.255   4.449   6.928  0.5182 -0.0036 -0.2937
51708SOL    HW166848  11.204   4.514   6.977  0.2371  0.1748 -0.8111
51708SOL    HW266849  11.345   4.479   6.936  0.5066 -0.1157  0.3227
51709SOL     OW66850   3.090   7.464   8.825 -0.4558 -0.5500 -0.2812
51709SOL    HW166851   3.070   7.485   8.916 -2.5269 -3.9315  0.2235
51709SOL    HW266852   3.163   7.402   8.831  1.6997  1.7082 -1.2929
51710SOL     OW66853   3.237   6.601  10.442  0.4602  0.7998 -0.3533
51710SOL    HW166854   3.252   6.506  10.436  2.2908  1.1293 -1.9914
51710SOL    HW266855   3.169   6.617  10.377  0.6350  0.6888 -0.5676
51711SOL     OW66856   3.458   6.908   2.911  0.2366  0.1212 -0.2815
51711SOL    HW166857   3.487   6.937   2.998  0.8880  0.9017 -0.7420
51711SOL    HW266858   3.538   6.875   2.870 -0.4191 -2.0070  0.0792
51712SOL     OW66859   3.569  10.678   6.341 -0.1261  0.1637  0.3960
51712SOL    HW166860   3.625  10.753   6.320  0.2367  0.1760  1.3416
51712SOL    HW266861   3.543  10.692   6.432 -0.8212 -0.3856  0.2915
51713SOL     OW66862   1.645   7.743  10.467 -0.2484 -0.3131  0.1253
51713SOL    HW166863   1.658   7.725  10.374 -3.6734 -0.2882 -0.4605
51713SOL    HW266864   1.681   7.665  10.511  0.6219 -0.7219 -1.2398
51714SOL     OW66865   1.737   5.578   0.727  0.4709 -0.2117 -0.0647
51714SOL    HW166866   1.831   5.561   0.730  0.4516 -0.6922 -1.4194
51714SOL    HW266867   1.706   5.530   0.650 -0.6167  1.2452 -0.5885
51715SOL     OW66868   8.235   9.846   9.757  0.5842  0.2826  0.2280
51715SOL    HW166869   8.156   9.793   9.752  1.1848 -0.6640  0.4311
51715SOL    HW266870   8.230   9.904   9.681  1.4164 -2.2408 -1.8990
51716SOL     OW66871   1.867   5.496   4.042  0.6346 -0.2906 -0.3641
51716SOL    HW166872   1.959   5.469   4.048 -0.0430 -2.5629  1.4901
51716SOL    HW266873   1.823   5.421   4.002 -0.7938 -0.3899  1.3011
51717SOL     OW66874   2.893   3.914   4.026 -0.1436  0.1979 -0.3886
51717SOL    HW166875   2.970   3.858   4.019  1.1440  1.8796 -0.5494
51717SOL    HW266876   2.841   3.893   3.949  0.7183 -0.2014 -0.8841
51718SOL     OW66877   1.132   3.273  11.912 -0.4017  0.1646  0.2511
51718SOL    HW166878   1.165   3.349  11.959 -2.3320  0.4564  1.2376
51718SOL    HW266879   1.144   3.295  11.819  1.0090  0.7137  0.5293
51719SOL     OW66880  11.222   3.123  11.951  0.4534  0.1528 -0.1792
51719SOL    HW166881  11.192   3.206  11.988  1.2623  0.0027  0.8538
51719SOL    HW266882  11.257   3.146  11.865 -2.4529  0.3468 -1.4226
51720SOL     OW66883   7.914   7.119   2.012 -0.2113 -0.2600  0.7718
51720SOL    HW166884   7.962   7.048   1.969  0.2921  0.5065  0.0423
51720SOL    HW266885   7.869   7.164   1.941  1.3255  1.5604  0.8811
51721SOL     OW66886   3.338   4.386   0.840  0.1004  0.4136  0.2562
51721SOL    HW166887   3.425   4.381   0.880 -0.1227 -2.5938  0.5537
51721SOL    HW266888   3.355   4.388   0.746  0.5157 -1.3924  0.2682
51722SOL     OW66889   4.800   2.551   3.190 -0.3912  0.0645 -0.5602
51722SOL    HW166890   4.707   2.528   3.196 -1.0004  2.5435  0.3948
51722SOL    HW266891   4.809   2.631   3.241  2.4226 -0.4300 -0.1233
51723SOL     OW66892   6.358   1.029   0.920  0.0837  0.0166  0.2676
51723SOL    HW166893   6.315   1.114   0.928 -0.3030  0.0075 -1.3828
51723SOL    HW266894   6.301   0.978   0.862  0.6809 -1.1232  0.6474
51724SOL     OW66895   5.582   3.479   9.222  0.1564 -0.2763 -0.5016
51724SOL    HW166896   5.492   3.506   9.204 -0.0125 -0.9648 -0.7394
51724SOL    HW266897   5.625   3.558   9.255 -1.0841 -0.3920  1.6028
51725SOL     OW66898  11.541   8.402   8.815  0.1391  0.3518 -0.3206
51725SOL    HW166899  11.477   8.364   8.755  0.4498  0.8985 -1.0137
51725SOL    HW266900  11.587   8.327   8.852 -1.3639 -0.0969  0.7378
51726SOL     OW66901   0.576   9.951   5.487  0.4446 -0.0042  0.3559
51726SOL    HW166902   0.562  10.016   5.417  1.6311  0.2919  0.3662
51726SOL    HW266903   0.584   9.868   5.441 -0.9631 -0.1365  0.3307
51727SOL     OW66904   5.947   0.651   5.215 -0.2233 -0.2206  0.0510
51727SOL    HW166905   5.853   0.634   5.216 -0.8372  2.3739  3.2985
51727SOL    HW266906   5.964   0.687   5.127 -2.7397  1.2805  0.0878
51728SOL     OW66907   8.419   1.776  10.193  0.0286  0.0707 -0.2127
51728SOL    HW166908   8.505   1.796  10.157 -0.1842  0.3855 -0.5536
51728SOL    HW266909   8.358   1.820  10.135 -0.3902 -0.5248 -0.2278
51729SOL     OW66910   0.616  11.321  10.578  0.3230 -0.3062  0.4883
51729SOL    HW166911   0.557  11.382  10.624  1.4432 -1.6085  3.9564
51729SOL    HW266912   0.604  11.237  10.623  1.9237 -1.6265 -1.3616
51730SOL     OW66913   6.228   1.560  11.332 -0.2104 -0.4758  0.3993
51730SOL    HW166914   6.176   1.538  11.409  0.0715 -0.1475  0.6854
51730SOL    HW266915   6.297   1.495  11.330 -0.1009 -0.3635  0.5377
51731SOL     OW66916   9.086   0.821   4.055  0.4466 -0.2928 -0.2077
51731SOL    HW166917   9.017   0.755   4.055  0.5864 -0.4548 -1.1668
51731SOL    HW266918   9.049   0.895   4.104  0.1832 -0.9626  0.6248
51732SOL     OW66919   4.226   7.869   4.896 -0.2140  0.4233  0.2688
51732SOL    HW166920   4.176   7.805   4.946  0.6889  0.0813  0.7707
51732SOL    HW266921   4.315   7.862   4.931  0.3085  0.6172 -0.9556
51733SOL     OW66922   0.522  10.942   1.717  0.7657 -0.0709  0.2241
51733SOL    HW166923   0.540  11.034   1.698 -0.9950  0.3732  0.5024
51733SOL    HW266924   0.535  10.897   1.634  2.8478  0.1808  0.3529
51734SOL     OW66925   6.800  11.106   0.667  0.5291 -0.4751 -0.0608
51734SOL    HW166926   6.705  11.103   0.676  0.7204 -1.3107  2.2832
51734SOL    HW266927   6.820  11.199   0.659 -0.4967 -0.3248 -1.2513
51735SOL     OW66928   2.377   9.794   5.435 -0.2661 -0.2175  0.3069
51735SOL    HW166929   2.344   9.764   5.520  1.0763  0.9130  1.2888
51735SOL    HW266930   2.458   9.841   5.457 -0.3139  0.7966 -1.5304
51736SOL     OW66931   3.443   3.628   0.281 -0.0232 -0.0372  0.0288
51736SOL    HW166932   3.390   3.558   0.317 -0.2708 -0.6834 -1.4922
51736SOL    HW266933   3.411   3.708   0.323 -0.8910 -0.6377  0.5346
51737SOL     OW66934   0.830   4.224  11.789  0.2627 -0.1797  0.1673
51737SOL    HW166935   0.852   4.261  11.875  2.0188 -0.1813 -0.2318
51737SOL    HW266936   0.860   4.133  11.794 -0.3156 -0.3960 -0.2131
51738SOL     OW66937   8.495   8.319  10.256 -0.0033 -0.2978 -0.1021
51738SOL    HW166938   8.473   8.376  10.182 -0.2391 -0.5236 -0.2098
51738SOL    HW266939   8.410   8.289  10.288 -0.0082  0.9775  1.2122
51739SOL     OW66940   1.068   8.875  11.781  0.6305 -0.2510  0.4259
51739SOL    HW166941   1.042   8.789  11.813  0.1921 -0.2192  0.1497
51739SOL    HW266942   1.164   8.872  11.782  0.6490 -0.1826  1.9397
51740SOL     OW66943   7.019   4.668   0.695 -0.9909  0.0325  0.1892
51740SOL    HW166944   6.957   4.647   0.626  1.7979 -1.4710 -2.0541
51740SOL    HW266945   7.097   4.616   0.675  0.9839  1.6546  2.9088
51741SOL     OW66946  10.659   2.478   4.270 -0.3061 -0.1412 -0.4834
51741SOL    HW166947  10.690   2.551   4.217 -0.8704 -0.0944 -0.7560
51741SOL    HW266948  10.706   2.402   4.235 -0.0790  0.0145 -0.5197
51742SOL     OW66949   0.760   7.642   3.800  0.0432 -0.1412 -0.9411
51742SOL    HW166950   0.692   7.578   3.822 -0.1921  0.1670 -0.7615
51742SOL    HW266951   0.776   7.628   3.706  1.3114 -1.7002 -0.5387
51743SOL     OW66952  10.202   6.526   9.251  0.1978  0.6243  0.7073
51743SOL    HW166953  10.235   6.456   9.307  0.6415  1.2179  1.2027
51743SOL    HW266954  10.175   6.595   9.311 -3.1993 -0.2845  0.3986
51744SOL     OW66955   3.026   8.802   9.599 -0.2910 -0.0386 -0.2132
51744SOL    HW166956   3.110   8.769   9.567 -1.6614 -1.8546 -2.2474
51744SOL    HW266957   3.039   8.812   9.693  2.1986 -0.2210 -0.4593
51745SOL     OW66958   9.924   2.284   3.251 -0.0083 -0.3102  0.1422
51745SOL    HW166959   9.928   2.372   3.214 -0.7397  0.3686  1.5837
51745SOL    HW266960   9.959   2.227   3.182  2.8182  1.3477  0.0596
51746SOL     OW66961   7.308   2.994   9.674 -0.5912 -0.0877 -0.6581
51746SOL    HW166962   7.267   3.075   9.645  2.0096  1.3238 -0.6669
51746SOL    HW266963   7.376   2.976   9.609  0.3528 -1.0300  0.5234
51747SOL     OW66964   7.620   0.903  11.745 -0.5338 -0.0362  0.1508
51747SOL    HW166965   7.681   0.948  11.687 -1.1783 -1.0516 -1.3763
51747SOL    HW266966   7.643   0.811  11.737 -0.6183 -0.1948  1.5698
51748SOL     OW66967   2.305   6.900   9.102  0.1713 -0.0296 -0.3895
51748SOL    HW166968   2.342   6.837   9.164  0.3192  0.0350 -0.4109
51748SOL    HW266969   2.363   6.976   9.108 -0.7597  0.6405  0.6338
51749SOL     OW66970   4.760   3.142   7.897  0.2737 -0.2891  0.4497
51749SOL    HW166971   4.762   3.234   7.873  0.3757  0.3398  2.6421
51749SOL    HW266972   4.842   3.106   7.863  0.1243  0.3432 -0.6209
51750SOL     OW66973   7.141   5.057   2.081  0.2125  0.5040  0.0766
51750SOL    HW166974   7.083   5.123   2.043  0.5851  0.6886 -0.1757
51750SOL    HW266975   7.127   5.065   2.175  0.0181  0.7249  0.0304
51751SOL     OW66976   7.082   3.638   5.489  0.0601 -0.1175 -0.0023
51751SOL    HW166977   7.104   3.552   5.526  0.0791 -1.0105 -1.9329
51751SOL    HW266978   7.166   3.676   5.464 -0.0707 -0.8031 -1.6713
51752SOL     OW66979   2.353   2.935   3.611  0.1462  0.3952 -0.1431
51752SOL    HW166980   2.353   2.840   3.598 -1.3191  0.4717 -0.9493
51752SOL    HW266981   2.268   2.963   3.577  0.5211  1.9878  0.1824
51753SOL     OW66982   0.331   3.777   1.177 -0.0491 -0.0130 -0.0121
51753SOL    HW166983   0.257   3.735   1.134 -0.8602  0.2186  1.1303
51753SOL    HW266984   0.378   3.706   1.220  1.0045 -0.3084 -1.5538
51754SOL     OW66985  10.860   0.795   2.778 -0.0594 -0.5055 -0.1489
51754SOL    HW166986  10.804   0.754   2.844  0.9303 -2.2720 -0.3528
51754SOL    HW266987  10.889   0.876   2.818 -0.7406 -0.7789  0.9486
51755SOL     OW66988   3.894  10.211   0.296  0.4083 -0.7700  0.3624
51755SOL    HW166989   3.942  10.249   0.369 -1.6128  0.1813  1.2554
51755SOL    HW266990   3.880  10.120   0.321  1.5609 -1.0141  0.1620
51756SOL     OW66991   6.239   3.708   1.452 -0.3105 -0.0978 -0.5355
51756SOL    HW166992   6.256   3.617   1.475  2.4152  0.1710 -1.0744
51756SOL    HW266993   6.160   3.706   1.399 -0.0394 -2.2281 -0.9390
51757SOL     OW66994   6.991   1.378  11.202 -0.5106  0.1938 -0.2017
51757SOL    HW166995   6.944   1.446  11.155 -0.1658 -0.2687 -1.2458
51757SOL    HW266996   6.940   1.298  11.189 -0.6720  0.1453  0.6312
51758SOL     OW66997   1.527  11.141   9.036  0.2553 -0.3095 -0.5792
51758SOL    HW166998   1.498  11.070   9.094 -0.0091  0.2294 -0.0335
51758SOL    HW266999   1.500  11.221   9.082 -1.3451  0.1096 -2.1712
51759SOL     OW67000  10.047   3.720   4.100  0.6868 -0.4254 -0.3276
51759SOL    HW167001   9.973   3.780   4.104 -0.3083 -1.4969 -1.5047
51759SOL    HW267002  10.033   3.659   4.173  1.2247  0.2509  0.3437
51760SOL     OW67003   7.261  11.442   7.006 -0.2324  0.0174 -0.4601
51760SOL    HW167004   7.167  11.451   6.992 -0.7461  0.2141  2.6146
51760SOL    HW267005   7.295  11.530   6.992 -0.6657  0.1745 -0.5414
51761SOL     OW67006  11.538   3.601  11.265  0.1248 -0.3588  1.2481
51761SOL    HW167007  11.607   3.558  11.215 -2.8664 -3.3954 -0.6381
51761SOL    HW267008  11.506   3.670  11.206  0.7016  0.2668  1.6471
51762SOL     OW67009  10.867   0.890   4.000  0.1302  0.7724  0.2211
51762SOL    HW167010  10.908   0.912   3.916 -0.3274  1.6530  0.2158
51762SOL    HW267011  10.833   0.973   4.033 -1.4394  0.1411  0.3280
51763SOL     OW67012   7.664  10.702   0.883  0.9654  0.3634 -0.2338
51763SOL    HW167013   7.649  10.610   0.903 -2.2579  0.9839  0.7908
51763SOL    HW267014   7.650  10.748   0.966  0.8181  1.8901 -1.0522
51764SOL     OW67015   4.383   3.131   2.691 -0.1285 -0.5083 -0.0059
51764SOL    HW167016   4.387   3.201   2.626  0.7948  0.1358  0.7190
51764SOL    HW267017   4.409   3.052   2.643  2.4102  0.2622 -0.0426
51765SOL     OW67018   5.113  11.837   4.728  0.3526 -0.2343 -0.0671
51765SOL    HW167019   5.029  11.805   4.695  1.2113 -1.2006 -1.4088
51765SOL    HW267020   5.174  11.765   4.713  1.5679  0.6864  0.2903
51766SOL     OW67021   1.348   6.337   7.113  0.3801  0.1254  0.0890
51766SOL    HW167022   1.261   6.322   7.149  0.4446 -0.5500 -0.0153
51766SOL    HW267023   1.404   6.351   7.189  0.2816  0.0158  0.1811
51767SOL     OW67024   1.262   2.252   7.422  0.4142  0.7976  0.3777
51767SOL    HW167025   1.282   2.344   7.442  2.4334  0.0609  2.0821
51767SOL    HW267026   1.347   2.209   7.419 -0.5496 -1.2843  1.0111
51768SOL     OW67027   3.752   9.810  11.272 -0.4157  0.2236  0.9274
51768SOL    HW167028   3.752   9.727  11.226  0.2249 -0.0130  1.3383
51768SOL    HW267029   3.670   9.853  11.246 -1.0003 -0.7566  1.1145
51769SOL     OW67030  10.787   1.245   1.810  0.4727 -0.0495  0.1430
51769SOL    HW167031  10.787   1.157   1.848 -0.3772 -0.3072 -0.4398
51769SOL    HW267032  10.801   1.303   1.884  0.3132 -0.6366  0.6382
51770SOL     OW67033   2.361   9.898   0.768  0.1978  0.3306 -0.6172
51770SOL    HW167034   2.432   9.855   0.815 -0.3224  0.0672 -0.0489
51770SOL    HW267035   2.299   9.827   0.748 -1.0151  0.8739  0.9524
51771SOL     OW67036   7.115   6.990   7.777 -0.3446 -0.1378 -0.1965
51771SOL    HW167037   7.049   6.933   7.737  0.2204 -1.5343  0.7749
51771SOL    HW267038   7.067   7.039   7.844 -0.7977  0.4168 -0.9108
51772SOL     OW67039   8.733   6.730   3.726  0.5446 -0.0266 -0.1586
51772SOL    HW167040   8.748   6.806   3.669  2.4095 -0.1404  0.1243
51772SOL    HW267041   8.686   6.668   3.672 -0.2388  0.9845 -0.6699
51773SOL     OW67042   1.212   0.797   3.091  0.1002 -0.6679 -0.4670
51773SOL    HW167043   1.250   0.726   3.143 -0.3876  0.7265  1.9243
51773SOL    HW267044   1.260   0.875   3.119  0.0348  0.1399 -2.4102
51774SOL     OW67045   4.098   1.111   5.502 -0.0504  0.1471  0.1055
51774SOL    HW167046   4.175   1.100   5.558  0.7707  1.8259 -0.6413
51774SOL    HW267047   4.126   1.077   5.417 -0.2296  0.5003 -0.0930
51775SOL     OW67048   7.697  11.104   0.316 -0.9092  0.0386  0.4269
51775SOL    HW167049   7.708  11.027   0.372 -0.0190  0.1879  0.4721
51775SOL    HW267050   7.775  11.104   0.261  0.2106  2.0908  1.8906
51776SOL     OW67051   0.517   1.056  11.229 -1.1280  0.4634 -0.2372
51776SOL    HW167052   0.440   1.070  11.175 -1.6466 -0.7726  0.1369
51776SOL    HW267053   0.560   1.141  11.233 -2.0798  0.9975 -1.0491
51777SOL     OW67054   8.312   4.520   0.218 -0.1039  0.3254 -0.6155
51777SOL    HW167055   8.379   4.570   0.264 -0.8792 -0.7171  1.7898
51777SOL    HW267056   8.230   4.543   0.262 -1.0053 -0.2269 -1.9275
51778SOL     OW67057   1.959  10.942   8.304 -0.2877 -0.1147  0.9899
51778SOL    HW167058   1.952  10.848   8.293 -0.8160 -0.0653  0.8599
51778SOL    HW267059   1.936  10.957   8.396  0.4374 -0.1707  1.1861
51779SOL     OW67060   3.974   0.322   0.665  0.2023 -0.5047  0.2135
51779SOL    HW167061   3.958   0.390   0.730  0.3569  0.2913 -0.5560
51779SOL    HW267062   4.068   0.305   0.671  0.3733  0.1732 -0.3563
51780SOL     OW67063  11.505   7.163   7.048 -0.1268 -0.1889 -0.5309
51780SOL    HW167064  11.520   7.193   7.137  1.3727 -0.0500 -0.8027
51780SOL    HW267065  11.409   7.161   7.039 -0.3459  2.4744  0.1816
51781SOL     OW67066   3.150   9.283   9.436 -0.8613  0.8404  0.0434
51781SOL    HW167067   3.171   9.345   9.366 -0.0570  0.0381 -0.4478
51781SOL    HW267068   3.082   9.227   9.399 -2.2084  1.9133  0.7815
51782SOL     OW67069   6.890   1.243   2.090  0.4604  0.3080 -0.3204
51782SOL    HW167070   6.829   1.311   2.116  0.3619  0.9244 -2.0522
51782SOL    HW267071   6.835   1.166   2.073  0.3624  0.3493 -0.1879
51783SOL     OW67072   1.203   5.548   9.560  0.0297  0.1472  0.6701
51783SOL    HW167073   1.183   5.508   9.645 -2.2819 -0.5964 -0.1206
51783SOL    HW267074   1.253   5.482   9.513 -0.9323 -0.5248  0.5594
51784SOL     OW67075   7.717   1.283   3.546 -0.2150 -0.0741  0.5368
51784SOL    HW167076   7.621   1.282   3.551 -0.1633 -1.2365  1.7522
51784SOL    HW267077   7.745   1.307   3.634  0.6219 -0.3893  0.3616
51785SOL     OW67078   9.702   5.848   6.592 -0.4888 -0.0598 -0.0624
51785SOL    HW167079   9.772   5.885   6.538  0.0838 -1.0874 -0.0391
51785SOL    HW267080   9.632   5.829   6.530  0.8727 -3.0616 -0.8873
51786SOL     OW67081   7.909   1.954   5.785  0.1512 -0.1989  0.2596
51786SOL    HW167082   7.968   1.962   5.860 -0.1125 -1.0563  0.5691
51786SOL    HW267083   7.932   1.869   5.746  1.7802  1.1331 -1.9322
51787SOL     OW67084   4.489  11.323   2.778 -0.1540 -0.1809  0.4085
51787SOL    HW167085   4.513  11.240   2.736 -0.0421  0.5032 -0.9179
51787SOL    HW267086   4.567  11.346   2.829 -0.6602 -1.5267  1.8833
51788SOL     OW67087   4.641   4.272   3.474 -0.1585 -0.0276  0.1046
51788SOL    HW167088   4.577   4.342   3.461  1.2799  1.1609 -0.7895
51788SOL    HW267089   4.604   4.196   3.428 -0.8651  0.6753 -0.5073
51789SOL     OW67090   5.319  10.101   4.636  0.0641  0.0772  0.3806
51789SOL    HW167091   5.283  10.188   4.658 -1.2140  0.0681 -1.4016
51789SOL    HW267092   5.264  10.040   4.686  0.8270  0.2492  1.4714
51790SOL     OW67093   8.983   0.650   9.013  0.0409 -0.4550 -0.0131
51790SOL    HW167094   8.919   0.579   9.015  0.3033 -0.7854 -1.6747
51790SOL    HW267095   8.970   0.691   8.927  1.6330 -0.1438 -0.1257
51791SOL     OW67096   2.439   0.973   4.152  0.3055 -0.0440 -0.0615
51791SOL    HW167097   2.384   0.897   4.171  1.6390 -1.2683 -0.8873
51791SOL    HW267098   2.508   0.939   4.094  2.1687  1.3151  1.2202
51792SOL     OW67099  11.263   8.311   3.948  0.3473 -0.0149 -0.1734
51792SOL    HW167100  11.184   8.363   3.936  0.1807  0.3818  2.1182
51792SOL    HW267101  11.261   8.246   3.878 -1.1267  1.0306 -1.1455
51793SOL     OW67102   5.296   5.497   0.461  0.4174  0.4676 -0.2617
51793SOL    HW167103   5.371   5.537   0.417  0.2059 -0.1061 -1.1562
51793SOL    HW267104   5.334   5.449   0.535  0.7686  1.4801  0.2374
51794SOL     OW67105  10.840   2.978   1.037 -0.4005 -0.0816 -0.2282
51794SOL    HW167106  10.885   2.988   1.120 -0.0005  0.6097 -0.5234
51794SOL    HW267107  10.891   2.912   0.990  0.1101  0.4389 -0.4192
51795SOL     OW67108   2.104   9.203   5.105 -0.0900  0.2287  0.5000
51795SOL    HW167109   2.079   9.125   5.155 -0.1845 -0.3562 -0.4316
51795SOL    HW267110   2.040   9.207   5.034  1.4287 -0.3712 -0.9826
51796SOL     OW67111   0.821   7.967   4.184  0.3277  0.4452  0.1368
51796SOL    HW167112   0.872   8.048   4.187 -0.5774  1.0188  1.0584
51796SOL    HW267113   0.833   7.934   4.095  1.5299  1.0442  0.0550
51797SOL     OW67114   9.064   1.632  11.622  0.0432  0.1949 -0.1528
51797SOL    HW167115   9.080   1.715  11.666 -2.1068  0.1587  0.8324
51797SOL    HW267116   9.120   1.634  11.545 -0.1050  2.6441 -0.2584
51798SOL     OW67117   8.994   2.883   0.627 -0.4940 -0.4339  0.6143
51798SOL    HW167118   9.073   2.847   0.666  0.5170 -2.3396 -2.7959
51798SOL    HW267119   8.924   2.823   0.655 -0.6141  0.5215  2.5748
51799SOL     OW67120   2.730   9.921   3.256  0.2968 -0.0351  0.2911
51799SOL    HW167121   2.812   9.875   3.272  0.0612  0.3636  3.3205
51799SOL    HW267122   2.680   9.910   3.337 -1.6063  1.8392 -0.5104
51800SOL     OW67123   1.158   1.912  11.833  0.4074 -0.1470 -0.5093
51800SOL    HW167124   1.207   1.991  11.810  0.0530 -0.0828 -1.0566
51800SOL    HW267125   1.163   1.908  11.929  1.7035 -0.2889 -0.5643
51801SOL     OW67126   0.741  10.858  10.799 -0.3799 -0.1215 -1.0432
51801SOL    HW167127   0.656  10.889  10.830  0.1910  0.2893  0.1764
51801SOL    HW267128   0.784  10.825  10.877  0.5011 -0.5525 -1.6931
51802SOL     OW67129   8.180   0.685   3.923  0.2310  0.0909  0.0076
51802SOL    HW167130   8.109   0.663   3.863 -0.1685 -0.9572  0.8390
51802SOL    HW267131   8.244   0.614   3.911  1.5615  1.4142 -1.3103
51803SOL     OW67132   5.287   2.444   9.451  0.3168 -0.4299 -0.3145
51803SOL    HW167133   5.302   2.527   9.406 -0.4984 -0.5322 -0.8118
51803SOL    HW267134   5.265   2.469   9.541  1.1814 -0.1759 -0.1711
51804SOL     OW67135  10.074   3.635   0.480 -0.3357 -0.3697 -0.8522
51804SOL    HW167136  10.147   3.638   0.542  0.7129 -1.4593 -1.9891
51804SOL    HW267137  10.012   3.700   0.513  1.0148  0.3803  0.3101
51805SOL     OW67138   5.079   8.290   9.111  0.2433 -0.5513 -0.0932
51805SOL    HW167139   5.162   8.258   9.074  1.7580 -0.2033  2.7561
51805SOL    HW267140   5.031   8.211   9.135 -0.6779 -0.7822 -2.3513
51806SOL     OW67141   9.379   5.752   1.735  0.1147 -0.0951  0.3290
51806SOL    HW167142   9.364   5.669   1.780  1.3627 -0.3783  0.2594
51806SOL    HW267143   9.418   5.809   1.801  0.3028  0.0698  0.0812
51807SOL     OW67144   9.244   4.157   9.393  0.3485  0.6373  0.6312
51807SOL    HW167145   9.258   4.114   9.308 -0.3575 -0.3810  1.0035
51807SOL    HW267146   9.226   4.248   9.372 -2.2246 -0.0499 -0.5461
51808SOL     OW67147   1.081   0.501   3.045 -0.9615  0.7303 -0.2802
51808SOL    HW167148   1.006   0.445   3.027 -0.4309 -0.4841  1.1376
51808SOL    HW267149   1.075   0.522   3.138 -0.5872  2.2284 -0.5569
51809SOL     OW67150   0.575   0.397   6.098 -0.1317  0.3615  0.2939
51809SOL    HW167151   0.646   0.376   6.157  0.5697 -1.3540 -1.0777
51809SOL    HW267152   0.591   0.488   6.072 -0.5420  1.2154  2.7382
51810SOL     OW67153  10.882  11.887   6.144  0.1527  0.0486 -0.8305
51810SOL    HW167154  10.815  11.944   6.182  1.3565  1.3106 -0.4994
51810SOL    HW267155  10.893  11.817   6.209 -1.0617 -0.3669 -1.0492
51811SOL     OW67156   1.167   6.453   0.380  0.2145  0.2882  0.3113
51811SOL    HW167157   1.125   6.539   0.375 -0.4101  0.0221  0.8988
51811SOL    HW267158   1.097   6.393   0.405  0.5064 -0.5032 -0.6947
51812SOL     OW67159   4.796   5.536   9.543 -0.4628 -0.1218 -0.4416
51812SOL    HW167160   4.706   5.533   9.509 -0.8077 -2.8717  0.4922
51812SOL    HW267161   4.847   5.489   9.478 -0.2823 -1.3004  0.5328
51813SOL     OW67162   2.449   3.872  10.547  0.3077  0.1235 -0.1401
51813SOL    HW167163   2.415   3.906  10.464  1.3944 -0.5731 -0.9069
51813SOL    HW267164   2.433   3.942  10.610 -2.4378 -0.1204 -0.4316
51814SOL     OW67165   8.063   5.123   0.918  0.0141 -0.3573 -0.0129
51814SOL    HW167166   8.153   5.116   0.951 -0.2395  0.8661  1.0186
51814SOL    HW267167   8.073   5.142   0.825  0.8153 -0.3298  0.0712
51815SOL     OW67168   2.954   6.105   0.305  0.2661  0.3007 -0.1541
51815SOL    HW167169   3.022   6.120   0.240  0.0590  0.6486 -0.2913
51815SOL    HW267170   2.887   6.171   0.287  0.0593  0.1987  0.2110
51816SOL     OW67171   5.657   0.340   7.668 -0.3309 -0.5721 -0.9407
51816SOL    HW167172   5.580   0.397   7.671 -0.3242 -0.5845 -0.5091
51816SOL    HW267173   5.681   0.338   7.575 -0.7390 -0.4193 -1.0548
51817SOL     OW67174   9.448   6.463   6.117  0.9203  0.1427  0.2147
51817SOL    HW167175   9.456   6.453   6.212  1.0767  2.0252  0.4480
51817SOL    HW267176   9.512   6.402   6.080  1.8003  0.3319  1.3680
51818SOL     OW67177   6.650   8.311   0.576 -0.2934  0.4916  0.1569
51818SOL    HW167178   6.559   8.281   0.581 -0.6087  1.4302  0.1820
51818SOL    HW267179   6.694   8.266   0.648 -0.3620 -1.2128 -0.8146
51819SOL     OW67180   1.844   4.096   7.345  0.0327  0.5751  0.1227
51819SOL    HW167181   1.882   4.116   7.260 -0.9589  1.4620 -0.1271
51819SOL    HW267182   1.918   4.101   7.406  0.7463 -0.0620 -0.6628
51820SOL     OW67183   3.632   1.511   4.234  0.0548 -0.3638 -0.5613
51820SOL    HW167184   3.678   1.594   4.236  0.6795 -0.6891 -1.0674
51820SOL    HW267185   3.564   1.522   4.167  2.4328 -1.3926 -3.3666
51821SOL     OW67186   1.013  11.098  11.891 -0.4322 -0.1661 -0.8194
51821SOL    HW167187   1.081  11.031  11.884 -1.0483 -0.7137 -1.8499
51821SOL    HW267188   0.931  11.052  11.873 -1.0540  0.5458  0.0946
51822SOL     OW67189   5.955   2.877   6.282  0.1040 -0.3748  0.4389
51822SOL    HW167190   5.871   2.921   6.294 -1.0196 -2.4305  0.4902
51822SOL    HW267191   6.006   2.938   6.228 -2.7401 -0.5431 -2.7892
51823SOL     OW67192   2.651   0.181   7.862  0.1347 -0.4528  0.2607
51823SOL    HW167193   2.616   0.248   7.802 -2.1529 -2.4797 -0.8859
51823SOL    HW267194   2.703   0.124   7.805  0.0810 -0.9544  0.7114
51824SOL     OW67195   1.688   8.405  10.504 -0.0024 -0.9690  0.5426
51824SOL    HW167196   1.759   8.354  10.466 -1.0428 -2.4537  0.5214
51824SOL    HW267197   1.729   8.452  10.577  1.1509 -1.2021  0.0587
51825SOL     OW67198   5.292   3.446   0.248 -0.0878  0.3411 -0.1685
51825SOL    HW167199   5.248   3.515   0.296 -1.5908 -0.4250 -0.4011
51825SOL    HW267200   5.382   3.447   0.281 -1.0093 -0.0617  2.5616
51826SOL     OW67201   9.286   6.849   6.972  0.1072 -0.2376 -0.3172
51826SOL    HW167202   9.192   6.845   6.985  0.0320 -1.2191 -1.0858
51826SOL    HW267203   9.323   6.805   7.048 -0.0968 -0.8272 -0.5589
51827SOL     OW67204   9.831   9.805   7.881 -0.3613 -0.4225  0.3466
51827SOL    HW167205   9.765   9.874   7.893  2.0542  2.1352  0.0386
51827SOL    HW267206   9.857   9.781   7.970 -0.1964  0.1486  0.4565
51828SOL     OW67207   9.759   4.073   7.492 -0.4953 -1.2998  0.0731
51828SOL    HW167208   9.852   4.066   7.512 -0.2662 -0.1398 -0.4737
51828SOL    HW267209   9.716   4.013   7.552  0.3240  0.3593  2.4723
51829SOL     OW67210   1.813   8.042   7.962  0.4409 -0.0453  0.2118
51829SOL    HW167211   1.869   8.054   7.885 -0.1084  0.2654 -0.1483
51829SOL    HW267212   1.756   7.969   7.939  0.7131 -0.3818  0.5899
51830SOL     OW67213   0.755   1.187   1.833  0.7108 -0.1682 -0.3431
51830SOL    HW167214   0.804   1.145   1.763  3.4594  2.5917 -0.2760
51830SOL    HW267215   0.758   1.125   1.906 -0.1283 -2.0644 -1.8611
51831SOL     OW67216   5.311   4.110   0.034  0.8023  0.7060 -0.1077
51831SOL    HW167217   5.373   4.179   0.058 -0.7311  1.2781  2.6703
51831SOL    HW267218   5.225   4.145   0.057 -0.1936 -1.4990 -0.1652
51832SOL     OW67219   6.955   9.079   3.775 -0.3214 -0.2115 -0.1523
51832SOL    HW167220   6.900   9.006   3.803  0.1199 -0.1061  1.0327
51832SOL    HW267221   6.901   9.157   3.788 -0.8183 -0.3065 -1.4846
51833SOL     OW67222   3.301   8.259   2.227  0.0512 -0.2578  0.7126
51833SOL    HW167223   3.314   8.278   2.134  1.0965 -1.4205  0.5931
51833SOL    HW267224   3.241   8.327   2.258 -0.7192 -0.1504 -0.9268
51834SOL     OW67225   3.771   4.059   4.599 -0.0145  0.2350 -0.0359
51834SOL    HW167226   3.862   4.071   4.573  0.1822  0.6732  0.8323
51834SOL    HW267227   3.776   4.018   4.685 -0.6516 -2.1532 -1.0533
51835SOL     OW67228  11.817   3.804  11.859 -0.2168  0.2801 -0.3481
51835SOL    HW167229  11.745   3.802  11.923 -0.7201 -0.9918 -0.9358
51835SOL    HW267230  11.774   3.827  11.777  0.4598  2.1255 -0.2505
51836SOL     OW67231   0.236  11.058   2.407 -0.5647 -0.2814  0.3888
51836SOL    HW167232   0.252  10.977   2.456 -0.8442 -1.9602 -2.0694
51836SOL    HW267233   0.323  11.088   2.381 -0.5447 -1.1121 -0.5772
51837SOL     OW67234   8.210  10.059  11.871 -0.4751  0.3731 -0.2896
51837SOL    HW167235   8.206  10.135  11.813 -3.5788 -0.7969 -1.8211
51837SOL    HW267236   8.129  10.012  11.854  0.8277 -2.7377  1.3931
51838SOL     OW67237   5.935  10.659   3.415 -0.2715  0.6792  0.1861
51838SOL    HW167238   6.019  10.618   3.436 -0.5252  0.7301  1.4090
51838SOL    HW267239   5.956  10.750   3.397 -0.1063  0.8156  1.0188
51839SOL     OW67240   4.484   9.558   2.497  0.3684 -0.1231 -0.1955
51839SOL    HW167241   4.564   9.550   2.549  0.5247 -0.7205 -0.5216
51839SOL    HW267242   4.451   9.469   2.490  1.0169 -0.2497 -2.1816
51840SOL     OW67243   7.348   1.245  10.534 -0.7980  0.3613 -0.1124
51840SOL    HW167244   7.253   1.243  10.537 -0.8755 -1.8180 -1.4828
51840SOL    HW267245   7.372   1.176  10.472  1.6347  1.9581 -1.1373
51841SOL     OW67246   0.473  10.477  10.447 -0.0267 -0.7024 -0.6720
51841SOL    HW167247   0.540  10.496  10.514  0.4009 -0.1565 -1.2468
51841SOL    HW267248   0.401  10.536  10.468  0.0894 -0.5619 -0.6675
51842SOL     OW67249   8.866   3.032   3.022  0.1725 -0.1938  0.5039
51842SOL    HW167250   8.953   2.992   3.019  0.9374  1.4676 -1.0211
51842SOL    HW267251   8.832   3.022   2.934 -1.0131 -0.4254  0.9787
51843SOL     OW67252   9.207   5.417   6.868  0.3322 -0.1509 -0.4970
51843SOL    HW167253   9.131   5.467   6.896  1.4912  1.1190  0.5338
51843SOL    HW267254   9.199   5.332   6.911 -0.9992 -0.4134 -1.2274
51844SOL     OW67255   0.002   8.770   9.018 -0.1249  0.0541  0.2620
51844SOL    HW167256   0.059   8.839   9.052  0.1061  0.6988 -1.3233
51844SOL    HW267257  -0.022   8.718   9.095  2.0612  0.1431  1.0706
51845SOL     OW67258   9.438   4.166   3.782  0.9704 -0.0967 -0.3561
51845SOL    HW167259   9.505   4.210   3.729  2.2682 -0.3772  0.9669
51845SOL    HW267260   9.379   4.237   3.808 -0.8728 -0.2459 -3.7071
51846SOL     OW67261   1.675   1.678   8.298 -0.1508  0.3594  0.0012
51846SOL    HW167262   1.763   1.691   8.334 -0.5253  1.0375  0.6871
51846SOL    HW267263   1.621   1.744   8.340 -0.7835  0.6568 -1.2235
51847SOL     OW67264   1.622   1.195  10.865  0.6022 -0.5868 -0.0157
51847SOL    HW167265   1.602   1.194  10.959  1.8774  0.6765  0.3129
51847SOL    HW267266   1.715   1.177  10.860  0.1618 -2.8705 -1.2423
51848SOL     OW67267   9.130   1.668   6.511  0.0792  0.1179  0.1024
51848SOL    HW167268   9.149   1.753   6.472 -0.4887  0.0104 -0.4208
51848SOL    HW267269   9.166   1.674   6.600  0.0025  0.9193  0.0897
51849SOL     OW67270   6.049   0.444   5.606  0.0195  0.5498  0.4258
51849SOL    HW167271   6.052   0.518   5.666 -2.2692  1.4301 -0.4195
51849SOL    HW267272   6.028   0.369   5.661  1.5076  0.6452  1.1691
51850SOL     OW67273  11.348   0.322   7.844  0.1829 -0.3219  0.1501
51850SOL    HW167274  11.398   0.305   7.764 -1.4672  0.5549 -1.1155
51850SOL    HW267275  11.353   0.416   7.857 -1.6093 -0.1266 -0.3571
51851SOL     OW67276  11.603   4.450   5.514 -0.6739  0.5614  0.1325
51851SOL    HW167277  11.645   4.523   5.470 -0.0235  0.2850  0.2774
51851SOL    HW267278  11.673   4.410   5.567 -0.4905 -1.3158 -1.4010
51852SOL     OW67279   9.510   0.369  11.534  0.4314 -0.6459 -0.6414
51852SOL    HW167280   9.576   0.388  11.466  2.4187 -2.1522  0.7380
51852SOL    HW267281   9.476   0.454  11.559 -0.8360 -0.0641 -3.8953
51853SOL     OW67282   8.602   8.599   1.651  0.9447  0.4029 -0.1146
51853SOL    HW167283   8.641   8.603   1.564 -0.2987 -0.1984 -0.7318
51853SOL    HW267284   8.593   8.506   1.669  1.6280  0.5149  0.8772
51854SOL     OW67285   5.617   4.152   3.088  0.2191  0.3113  0.1035
51854SOL    HW167286   5.642   4.081   3.147 -0.6663 -1.6631 -1.7509
51854SOL    HW267287   5.639   4.119   3.001  2.9498  3.7253 -0.7058
51855SOL     OW67288   7.900   8.259   7.934  0.5000 -0.2351  0.2397
51855SOL    HW167289   7.838   8.186   7.941  0.7685 -0.7227 -1.7905
51855SOL    HW267290   7.848   8.337   7.953 -0.7561 -0.6336 -1.3783
51856SOL     OW67291   1.508   4.476   9.713 -0.1599  0.7701  0.0929
51856SOL    HW167292   1.413   4.473   9.703 -0.1743 -0.8887  0.4720
51856SOL    HW267293   1.522   4.500   9.805 -0.2307 -0.1668  0.3508
51857SOL     OW67294   5.223   1.846   7.231  0.0459  0.1030 -1.0225
51857SOL    HW167295   5.286   1.774   7.235 -0.4073 -0.2581  0.0030
51857SOL    HW267296   5.168   1.826   7.155  0.1893 -0.4052 -0.9949
51858SOL     OW67297   8.516   0.810   4.877  0.1153  0.0379  0.4649
51858SOL    HW167298   8.422   0.800   4.890 -0.2743  0.5224 -1.5497
51858SOL    HW267299   8.523   0.855   4.792  2.1911 -1.5051 -0.2455
51859SOL     OW67300   5.644   5.314   3.782  0.3738  0.2446  0.3763
51859SOL    HW167301   5.687   5.398   3.771  0.5744  0.1149  0.1790
51859SOL    HW267302   5.657   5.292   3.874 -0.0274  0.6195  0.5283
51860SOL     OW67303   2.981   2.824   8.057  0.3022  0.8336  0.4689
51860SOL    HW167304   3.010   2.745   8.012  0.6706  1.0966  0.2392
51860SOL    HW267305   2.888   2.832   8.034  0.1707  0.2759  0.7836
51861SOL     OW67306   4.273   7.937   7.613 -0.5429 -0.5751 -0.7313
51861SOL    HW167307   4.228   8.016   7.644 -0.6297 -0.6869 -0.5704
51861SOL    HW267308   4.296   7.956   7.522 -1.2054 -0.6344 -0.9171
51862SOL     OW67309   7.864  10.537   9.258 -0.0770 -0.3347 -0.1533
51862SOL    HW167310   7.891  10.451   9.290 -0.0681  0.6586  2.7829
51862SOL    HW267311   7.779  10.552   9.299 -1.2730  0.1109 -2.5807
51863SOL     OW67312   4.590  11.726   8.725 -0.2360  0.1608  0.1268
51863SOL    HW167313   4.645  11.804   8.718  0.0377 -0.0511 -0.0837
51863SOL    HW267314   4.650  11.652   8.711 -0.2250 -0.1560  1.5733
51864SOL     OW67315   9.724   0.663   2.220 -0.3070  0.2318  0.4725
51864SOL    HW167316   9.734   0.675   2.314 -1.3698 -0.0741  0.6394
51864SOL    HW267317   9.741   0.570   2.205 -0.7144  0.1549  0.4583
51865SOL     OW67318   6.285   5.458   1.085 -0.0753  0.3280 -0.0378
51865SOL    HW167319   6.212   5.465   1.146 -0.2706 -0.3690 -0.1832
51865SOL    HW267320   6.311   5.366   1.089  1.5861  0.7800  0.9313
51866SOL     OW67321   5.683   8.275   2.809  0.5805 -0.2532 -0.6718
51866SOL    HW167322   5.717   8.233   2.730  0.1042 -1.1040 -0.4331
51866SOL    HW267323   5.678   8.205   2.874 -1.5798 -0.1828 -0.6866
51867SOL     OW67324  10.495   5.645   6.593  0.0056  0.1272 -0.4768
51867SOL    HW167325  10.438   5.591   6.648 -0.9815  0.9449 -0.6669
51867SOL    HW267326  10.510   5.592   6.514  1.5624 -1.1190  0.5940
51868SOL     OW67327   7.360   4.331   0.852 -0.1209  0.4141  0.0440
51868SOL    HW167328   7.352   4.295   0.940  0.2297 -0.3059 -0.2098
51868SOL    HW267329   7.446   4.372   0.850  0.2286 -0.3160 -0.2196
51869SOL     OW67330   8.864   5.831   3.949 -0.2360  0.6067  0.0406
51869SOL    HW167331   8.774   5.815   3.978 -0.8014 -0.3678 -2.0648
51869SOL    HW267332   8.855   5.869   3.862  1.3947  2.6006  0.6785
51870SOL     OW67333   5.329   7.656   4.918  0.5926  0.4599  0.0573
51870SOL    HW167334   5.281   7.655   5.001  1.7474 -0.3000  0.7489
51870SOL    HW267335   5.351   7.748   4.904 -2.2719  1.0619 -1.0395
51871SOL     OW67336   5.762   9.853   5.006 -0.0946 -0.2613  0.0855
51871SOL    HW167337   5.819   9.844   4.930  2.1117  1.1820  1.4300
51871SOL    HW267338   5.743   9.947   5.010 -1.8922 -0.6025  0.1753
51872SOL     OW67339  11.216  11.073   6.268 -0.4472  1.1577 -0.0618
51872SOL    HW167340  11.137  11.091   6.216 -0.7800 -0.3592 -0.1278
51872SOL    HW267341  11.192  10.998   6.322  1.0440  0.4848 -0.2843
51873SOL     OW67342   2.913   4.792   3.587 -0.5942 -0.0338 -0.0804
51873SOL    HW167343   2.849   4.722   3.601  0.7524 -1.2503  0.2536
51873SOL    HW267344   2.898   4.853   3.660 -1.6468 -0.0619 -0.2580
51874SOL     OW67345   0.369   5.309  10.543 -0.1788 -0.0141  0.1088
51874SOL    HW167346   0.336   5.240  10.485 -1.9979  0.3460  0.6497
51874SOL    HW267347   0.367   5.270  10.630 -0.5864  0.5001  0.3339
51875SOL     OW67348   6.500  11.502   0.335  0.7654 -0.4318 -0.4057
51875SOL    HW167349   6.509  11.598   0.336 -0.8338 -0.2300 -1.5337
51875SOL    HW267350   6.433  11.484   0.401  1.0148 -0.7788 -0.2453
51876SOL     OW67351   4.857   4.470   7.719 -0.0849  0.5324  0.3601
51876SOL    HW167352   4.776   4.441   7.675  0.4527 -0.8787  0.2452
51876SOL    HW267353   4.861   4.563   7.701 -2.4391  0.9544  1.5741
51877SOL     OW67354   9.450   8.739   8.464  0.3091  0.0604 -0.3858
51877SOL    HW167355   9.397   8.769   8.538  0.4889  0.9937 -0.6355
51877SOL    HW267356   9.468   8.647   8.485  0.1438  0.2352  0.6070
51878SOL     OW67357   2.677   8.646  11.013  0.3930 -0.3310 -0.1749
51878SOL    HW167358   2.594   8.683  10.985 -0.4512 -0.5080  1.9042
51878SOL    HW267359   2.654   8.576  11.075  2.0543  0.0087  0.9197
51879SOL     OW67360   6.152   0.146   4.054  0.1863 -0.3426  0.8445
51879SOL    HW167361   6.158   0.058   4.016 -0.9274 -0.5955  1.1958
51879SOL    HW267362   6.149   0.131   4.148 -1.9826 -0.1170  0.8676
51880SOL     OW67363  10.396   2.320   0.606  0.2258  0.4418  0.2985
51880SOL    HW167364  10.388   2.407   0.646 -0.5933  0.5249 -0.0204
51880SOL    HW267365  10.344   2.263   0.663 -1.3904  0.6585 -0.8968
51881SOL     OW67366  11.840   5.764   7.517 -0.1416 -0.4415 -0.1248
51881SOL    HW167367  11.780   5.827   7.476  1.8917  0.5740 -1.7171
51881SOL    HW267368  11.873   5.712   7.444 -1.8246 -3.5594  1.1486
51882SOL     OW67369   0.852   5.819   2.528 -0.2287 -0.2046 -0.4344
51882SOL    HW167370   0.911   5.789   2.598  0.1111 -0.8514 -0.9858
51882SOL    HW267371   0.766   5.787   2.555  0.0144 -1.0670 -0.6550
51883SOL     OW67372   0.724   0.934  10.867 -0.1433  0.2140 -0.2216
51883SOL    HW167373   0.722   0.956  10.774 -1.6849 -0.0697 -0.2774
51883SOL    HW267374   0.636   0.955  10.899  0.3720  0.3685  1.1995
51884SOL     OW67375   9.867   1.829   0.106  0.3128 -0.0681 -0.5046
51884SOL    HW167376   9.822   1.912   0.117  0.4645 -0.2129  1.6468
51884SOL    HW267377   9.798   1.767   0.082 -0.3254  0.1279  0.7305
51885SOL     OW67378   4.881   3.454   7.169 -0.4230  0.3496 -0.1245
51885SOL    HW167379   4.889   3.396   7.093 -0.7744 -0.5270  0.4867
51885SOL    HW267380   4.791   3.440   7.201 -0.2086  0.5192  0.5857
51886SOL     OW67381   5.491   8.518   9.812 -0.4956 -0.3073  0.2017
51886SOL    HW167382   5.400   8.520   9.784 -0.7914 -1.3302  0.9943
51886SOL    HW267383   5.536   8.468   9.744 -0.5813 -0.0143 -0.0681
51887SOL     OW67384   1.323   6.484   4.831  0.4698 -0.2565  0.9274
51887SOL    HW167385   1.329   6.421   4.903 -0.8872 -1.5044  0.0053
51887SOL    HW267386   1.232   6.511   4.830  0.6224  0.2671  0.1001
51888SOL     OW67387   7.427  10.882   8.022 -0.6146 -0.5395  0.4241
51888SOL    HW167388   7.443  10.898   7.929 -0.7462  0.2512  0.5276
51888SOL    HW267389   7.512  10.893   8.063 -0.6911 -0.1557  0.4856
51889SOL     OW67390   4.824  11.793   6.781 -0.2074  0.1733 -0.3820
51889SOL    HW167391   4.747  11.762   6.733 -0.5069  0.0981  0.1430
51889SOL    HW267392   4.883  11.718   6.780 -0.6912 -0.2288  0.3740
51890SOL     OW67393   7.822   4.029   1.099  0.1770 -0.4602  0.5927
51890SOL    HW167394   7.866   4.114   1.104  2.0734 -1.3799  0.4391
51890SOL    HW267395   7.855   3.981   1.175 -2.5051 -0.3872  1.9142
51891SOL     OW67396   9.399   2.925   7.018  0.0591  0.5886  0.6097
51891SOL    HW167397   9.446   2.889   6.943 -1.3361  1.7869 -0.9109
51891SOL    HW267398   9.320   2.872   7.025 -0.5841  1.4684  0.1985
51892SOL     OW67399   4.201   9.934  11.927 -0.5720 -0.5173 -0.2694
51892SOL    HW167400   4.282   9.940  11.978 -0.0554  2.0808 -1.2737
51892SOL    HW267401   4.132   9.926  11.993  0.3267 -0.7987  0.6733
51893SOL     OW67402   9.628   1.951   2.777  0.2567  0.2072 -0.1367
51893SOL    HW167403   9.655   2.033   2.817 -0.9048  1.0385 -0.9915
51893SOL    HW267404   9.686   1.940   2.702 -1.0226  1.4497 -1.3579
51894SOL     OW67405   7.270  11.116  11.237 -0.0818  0.7944 -0.1934
51894SOL    HW167406   7.216  11.061  11.294 -0.4024 -1.5285 -2.5458
51894SOL    HW267407   7.239  11.205  11.254 -3.3490 -0.2208  0.0085
51895SOL     OW67408   9.900   0.105  11.191  0.2515 -0.0442 -0.0657
51895SOL    HW167409   9.808   0.078  11.190  0.2319  0.0152 -1.0830
51895SOL    HW267410   9.947   0.030  11.157  0.7088 -0.4272  1.3364
51896SOL     OW67411   1.642   1.821  11.822 -0.9329 -0.4501 -0.0591
51896SOL    HW167412   1.588   1.772  11.884 -1.5668  1.2180  0.7672
51896SOL    HW267413   1.686   1.886  11.875 -1.4424  0.9954 -1.3346
51897SOL     OW67414   3.815  10.655   0.129  0.1419  0.0167  0.1585
51897SOL    HW167415   3.828  10.568   0.168  4.4457  0.4801  0.1744
51897SOL    HW267416   3.761  10.702   0.193  1.3490 -1.3459  2.2843
51898SOL     OW67417   8.693   1.364  10.603  0.2049 -0.4693 -0.2318
51898SOL    HW167418   8.732   1.451  10.591  2.2971 -1.3612 -0.2950
51898SOL    HW267419   8.599   1.381  10.609  0.4684  1.7077 -1.1517
51899SOL     OW67420   2.450  11.948   2.307  0.5664  1.0809  0.0612
51899SOL    HW167421   2.358  11.973   2.305  0.0246 -0.7454 -0.2019
51899SOL    HW267422   2.472  11.930   2.216  0.6900 -0.0244  0.2919
51900SOL     OW67423   9.679  10.970   2.586 -0.0438 -0.4128  0.2691
51900SOL    HW167424   9.594  11.014   2.587  0.1171 -0.1156  0.7579
51900SOL    HW267425   9.741  11.037   2.559 -0.0612 -0.8201 -0.8523
51901SOL     OW67426   7.636   1.004   4.975 -0.5858 -0.3465  0.1062
51901SOL    HW167427   7.581   0.983   5.050 -1.8544 -1.1989 -1.0342
51901SOL    HW267428   7.583   1.063   4.922  0.1490 -0.0604 -0.3281
51902SOL     OW67429   8.444   9.569  10.541 -0.1125  0.1133 -0.8182
51902SOL    HW167430   8.398   9.497  10.498 -2.0366  1.5634 -1.2866
51902SOL    HW267431   8.492   9.612  10.470 -0.1767  0.1947 -0.8120
51903SOL     OW67432   3.557   8.343   0.445  0.2904 -0.0338  0.1379
51903SOL    HW167433   3.597   8.294   0.516 -1.6771 -0.0242  1.3109
51903SOL    HW267434   3.530   8.276   0.382  0.5486 -0.1862  0.1898
51904SOL     OW67435   2.348   6.587   9.794  0.0909  0.0387  0.0280
51904SOL    HW167436   2.339   6.492   9.786 -1.9209  0.0200  1.8660
51904SOL    HW267437   2.404   6.600   9.870 -0.7755  0.3209  0.6266
51905SOL     OW67438   2.765   9.828   6.580 -0.4457 -1.0654 -0.2533
51905SOL    HW167439   2.834   9.839   6.515  0.0364 -0.1204  0.3979
51905SOL    HW267440   2.694   9.784   6.533  0.3878 -1.5769 -1.0649
51906SOL     OW67441   9.398   9.199   3.362 -0.4492  0.7432 -0.0149
51906SOL    HW167442   9.472   9.139   3.368  0.0439  1.1559 -1.5094
51906SOL    HW267443   9.429   9.280   3.402 -0.7854  0.3423  1.1160
51907SOL     OW67444   0.925   7.368   9.121  0.2766 -0.6001 -0.6068
51907SOL    HW167445   0.842   7.337   9.086 -0.5159  0.9622 -0.1993
51907SOL    HW267446   0.951   7.301   9.185 -1.5659 -0.2654  0.5490
51908SOL     OW67447   2.890   2.684   4.511 -0.0217  0.3694  0.5054
51908SOL    HW167448   2.901   2.613   4.574 -0.8436  0.5631  0.8801
51908SOL    HW267449   2.796   2.689   4.496  0.2182 -0.3632 -1.5612
51909SOL     OW67450   3.415   2.316   9.970  0.4523  0.1225 -0.5597
51909SOL    HW167451   3.457   2.380   9.912 -1.0037 -0.2109 -2.0415
51909SOL    HW267452   3.426   2.232   9.925 -0.1656 -0.2349 -0.0570
51910SOL     OW67453   3.119  11.815   6.530 -0.0118 -0.2832  0.8661
51910SOL    HW167454   3.194  11.814   6.470  0.0234  0.6192  0.8759
51910SOL    HW267455   3.095  11.723   6.539 -1.5518 -0.3546 -2.4251
51911SOL     OW67456   6.627   8.376   4.017  0.4830 -0.0873 -0.3197
51911SOL    HW167457   6.636   8.285   4.047  2.7510 -0.7621 -2.6444
51911SOL    HW267458   6.606   8.368   3.924 -2.4052  1.8757  0.0226
51912SOL     OW67459   7.978   6.982  10.720  0.4245  0.3009 -0.2165
51912SOL    HW167460   8.038   7.005  10.790 -1.0911  1.8387  0.6664
51912SOL    HW267461   7.928   6.908  10.754 -0.6737  1.3745  0.6407
51913SOL     OW67462   4.679   4.122   5.398  1.3535 -0.3817 -0.2117
51913SOL    HW167463   4.744   4.106   5.330  1.9887  2.5474 -0.4128
51913SOL    HW267464   4.634   4.202   5.371 -0.7113 -0.9799  1.1700
51914SOL     OW67465   9.711   4.624   1.158  0.5447 -0.0691  0.0228
51914SOL    HW167466   9.715   4.681   1.235 -0.4614 -1.3325  1.0588
51914SOL    HW267467   9.721   4.535   1.194  2.4412 -0.5784 -1.5736
51915SOL     OW67468   7.953   8.488   8.631 -0.0339 -0.0158 -0.2833
51915SOL    HW167469   7.946   8.479   8.726 -1.4465 -2.2631 -0.5358
51915SOL    HW267470   7.900   8.566   8.610  0.0276  0.3032  0.7171
51916SOL     OW67471  11.139   1.222   3.327 -0.3428  0.1620 -0.0071
51916SOL    HW167472  11.219   1.213   3.276 -0.9895  2.0107 -1.4534
51916SOL    HW267473  11.168   1.222   3.418  1.1117 -0.6955 -0.4329
51917SOL     OW67474   5.026   1.580   1.634  0.2391  0.3334 -0.2715
51917SOL    HW167475   5.002   1.590   1.542 -0.3595 -1.7095 -0.3875
51917SOL    HW267476   4.946   1.550   1.676  1.1730 -1.3555  0.3868
51918SOL     OW67477   2.155   0.296   6.671 -0.3483  0.5273 -0.2111
51918SOL    HW167478   2.187   0.355   6.603 -2.1945  2.6942  0.6712
51918SOL    HW267479   2.207   0.217   6.660  0.9214  1.5889 -2.7099
51919SOL     OW67480   5.461   7.662   5.592  0.0922 -0.2869  0.0894
51919SOL    HW167481   5.491   7.740   5.638 -0.3340 -1.3862  2.3760
51919SOL    HW267482   5.532   7.641   5.532  1.5464  0.1847  1.5545
51920SOL     OW67483   0.018   2.373   9.655 -0.2901 -0.0644  0.6253
51920SOL    HW167484  -0.009   2.333   9.573 -1.4526 -0.2434  1.0777
51920SOL    HW267485   0.081   2.311   9.692 -0.5783 -0.5166  0.3720
51921SOL     OW67486   5.115   0.193   6.081 -0.0316  0.7186  0.0666
51921SOL    HW167487   5.203   0.228   6.097  0.4992 -0.6300  0.1863
51921SOL    HW267488   5.116   0.164   5.990 -0.6798  1.5572 -0.2278
51922SOL     OW67489   5.624   8.787   8.858 -0.0314 -0.1537 -0.0471
51922SOL    HW167490   5.621   8.803   8.764  1.9250  1.0189  0.0388
51922SOL    HW267491   5.681   8.856   8.892 -1.3484 -0.0715  2.1238
51923SOL     OW67492  10.741   3.000   2.459  0.0635 -0.2662 -0.3007
51923SOL    HW167493  10.798   2.948   2.404  0.9643  0.5825 -0.1956
51923SOL    HW267494  10.772   3.090   2.449  0.1655 -0.0671  1.4598
51924SOL     OW67495   7.318   5.084   2.637 -0.8241 -0.4034  0.4536
51924SOL    HW167496   7.250   5.151   2.631 -0.3390 -0.0168 -0.9226
51924SOL    HW267497   7.385   5.123   2.693  0.0479  0.8254 -1.3693
51925SOL     OW67498   4.265   1.551  10.284  0.1644 -0.1450  0.1206
51925SOL    HW167499   4.342   1.576  10.232  1.5046 -2.2195  0.9633
51925SOL    HW267500   4.229   1.475  10.237 -0.3809 -0.2096  0.6381
51926SOL     OW67501   4.236   6.710   9.781  0.3683 -0.5602 -0.9003
51926SOL    HW167502   4.245   6.623   9.821  0.7209 -1.6168 -3.0843
51926SOL    HW267503   4.321   6.751   9.796 -0.0242 -0.2686  0.7456
51927SOL     OW67504   3.299   7.682  10.347  0.2344 -0.1691 -0.1159
51927SOL    HW167505   3.364   7.725  10.402 -0.5230 -0.0986  0.7407
51927SOL    HW267506   3.301   7.590  10.374 -1.2641  0.1445  1.2034
51928SOL     OW67507   9.574   4.626   8.713 -0.0096  0.2568  0.4712
51928SOL    HW167508   9.641   4.570   8.674 -0.7090 -0.6046  0.4924
51928SOL    HW267509   9.593   4.624   8.807 -0.1264 -0.0606  0.4872
51929SOL     OW67510   0.956   4.984   9.454  0.4733  0.5686 -0.0674
51929SOL    HW167511   1.009   4.982   9.533 -0.1343  0.3449  0.3364
51929SOL    HW267512   0.898   4.909   9.461  0.8877  0.1331 -1.0659
51930SOL     OW67513   8.582   5.519  10.998  0.4051  0.7436  0.7402
51930SOL    HW167514   8.613   5.581  10.932 -0.9806  0.2209 -0.4340
51930SOL    HW267515   8.557   5.441  10.949 -0.1100  0.1202  1.9488
51931SOL     OW67516   1.845   5.217   9.583 -0.3085 -0.1228 -0.4444
51931SOL    HW167517   1.860   5.123   9.589 -3.5477 -0.8079 -1.1288
51931SOL    HW267518   1.856   5.237   9.490  0.6953  0.2562 -0.2499
51932SOL     OW67519  10.785   1.205   4.806  0.0805 -0.0169  0.1330
51932SOL    HW167520  10.859   1.224   4.864  2.6289 -0.5304 -2.7195
51932SOL    HW267521  10.736   1.136   4.851  2.0000 -0.4961  1.6219
51933SOL     OW67522  10.554   0.599   7.550  0.9906 -0.8722 -0.3444
51933SOL    HW167523  10.483   0.636   7.498  0.4030 -0.7246  0.5430
51933SOL    HW267524  10.599   0.675   7.588  0.6826 -1.0083  0.3073
51934SOL     OW67525  11.091   7.615   0.258  0.6724 -0.2818  1.1435
51934SOL    HW167526  11.029   7.639   0.327  1.1727 -1.7689  2.1469
51934SOL    HW267527  11.141   7.695   0.242  0.4128  0.1462  2.3545
51935SOL     OW67528   4.923   6.301   3.326 -0.2494 -0.1756  0.2028
51935SOL    HW167529   4.903   6.210   3.303 -0.8623 -0.1197  0.5104
51935SOL    HW267530   4.993   6.293   3.391  0.7958 -0.3646 -0.8895
51936SOL     OW67531   7.210  10.024   1.691  0.0192 -0.0538 -0.9632
51936SOL    HW167532   7.247   9.947   1.735 -0.2062  1.5047  2.2764
51936SOL    HW267533   7.170   9.989   1.611  1.8837 -2.9096 -0.8097
51937SOL     OW67534   5.371   5.272   2.477 -0.0845  0.1821  0.0265
51937SOL    HW167535   5.366   5.357   2.434  3.1194  0.2472 -0.4965
51937SOL    HW267536   5.465   5.254   2.484 -0.4295 -1.1543  4.5328
51938SOL     OW67537   0.352   4.367   7.994  0.4121  0.4794 -0.1069
51938SOL    HW167538   0.371   4.298   8.057 -0.1291  0.6307  0.2321
51938SOL    HW267539   0.364   4.326   7.909 -0.9371 -0.3411  0.0789
51939SOL     OW67540   5.342   2.370   0.526 -0.3153 -0.0046 -0.6493
51939SOL    HW167541   5.301   2.455   0.538  0.4398  0.3602 -0.6118
51939SOL    HW267542   5.324   2.323   0.607  0.3857  0.5976 -0.1371
51940SOL     OW67543   6.772   0.871   3.661  0.2040  0.0969  0.4446
51940SOL    HW167544   6.735   0.896   3.746 -0.8550 -0.8249  0.2760
51940SOL    HW267545   6.721   0.795   3.634  1.5582 -0.5845 -0.3039
51941SOL     OW67546   2.018  11.866  11.958  0.7629  0.3629  0.8007
51941SOL    HW167547   1.993  11.958  11.953 -2.0680 -0.3282  0.0082
51941SOL    HW267548   2.065  11.850  11.876  0.7077  0.9553  0.6462
51942SOL     OW67549   7.188  10.578   9.464 -0.0079  0.1507 -0.3335
51942SOL    HW167550   7.248  10.630   9.517  0.2832  0.9850 -1.4676
51942SOL    HW267551   7.137  10.642   9.414 -2.4338 -0.4623  1.1511
51943SOL     OW67552   7.543   8.555   9.564 -0.0186 -0.4517  0.0898
51943SOL    HW167553   7.450   8.576   9.552  0.2705  1.3597  0.6585
51943SOL    HW267554   7.544   8.489   9.633 -0.8501  0.0890  0.6329
51944SOL     OW67555   9.098  11.634   5.798 -0.0933  0.3865  0.3882
51944SOL    HW167556   9.084  11.542   5.776  1.4440 -0.0895  1.2957
51944SOL    HW267557   9.125  11.674   5.715  1.7356 -0.5360  0.5070
51945SOL     OW67558   9.086   7.637  11.307 -0.6765  0.1861  0.7035
51945SOL    HW167559   9.051   7.655  11.220 -1.4866 -0.7205  0.8167
51945SOL    HW267560   9.049   7.706  11.362 -0.8680  0.2516  0.4963
51946SOL     OW67561   4.046   9.638   4.942 -0.5227 -0.0505  0.3063
51946SOL    HW167562   4.095   9.621   5.023  0.0576 -1.3849 -0.2933
51946SOL    HW267563   4.091   9.585   4.876 -1.6164  0.2135 -0.6696
51947SOL     OW67564   7.577   6.904   7.779  0.0413  0.5684 -0.1535
51947SOL    HW167565   7.509   6.960   7.817 -0.3498  0.0904 -0.1392
51947SOL    HW267566   7.532   6.823   7.758  1.1043 -0.7851  2.2941
51948SOL     OW67567   6.018   4.109   8.845 -0.2305  0.2377 -0.6244
51948SOL    HW167568   6.093   4.077   8.794 -1.7629 -1.7910 -1.7770
51948SOL    HW267569   5.994   4.191   8.802  0.5599  0.2683 -1.0315
51949SOL     OW67570   9.924   5.380   8.011  0.1078 -0.5342 -0.6309
51949SOL    HW167571   9.927   5.291   7.975  0.3457 -1.2676  1.0794
51949SOL    HW267572  10.016   5.408   8.014 -0.0932  0.6198 -3.0169
51950SOL     OW67573   6.479   6.014   1.892 -0.4517 -0.0513 -0.3896
51950SOL    HW167574   6.413   5.983   1.954  1.7709  0.0969  2.2340
51950SOL    HW267575   6.464   6.109   1.888  1.0708  0.3819  2.2275
51951SOL     OW67576   4.348   5.631   6.249 -0.2585 -0.0251 -0.1076
51951SOL    HW167577   4.346   5.568   6.177  0.4890 -0.1340 -0.0384
51951SOL    HW267578   4.432   5.616   6.292 -0.9132 -0.3111  1.1094
51952SOL     OW67579   2.267   4.744  10.881  1.1304  0.2709  0.1800
51952SOL    HW167580   2.184   4.756  10.927  1.2640 -0.3730  0.6095
51952SOL    HW267581   2.243   4.705  10.796  0.8657  1.6779 -0.4150
51953SOL     OW67582   6.861   9.967  11.755 -0.1337  0.7992 -0.2304
51953SOL    HW167583   6.875   9.942  11.847 -1.6213  3.4083  0.8463
51953SOL    HW267584   6.794   9.906  11.724 -0.1941  0.3706  0.6885
51954SOL     OW67585   7.040   0.383  11.947  0.2260 -0.0391  0.4215
51954SOL    HW167586   7.133   0.372  11.928  0.2814 -1.1740  1.2517
51954SOL    HW267587   6.996   0.323  11.886 -0.0099  0.7343 -0.1973
51955SOL     OW67588   4.942  11.787   7.050  0.5062  0.2934 -0.3364
51955SOL    HW167589   4.926  11.875   7.085 -1.0203 -0.4101  0.8665
51955SOL    HW267590   4.855  11.752   7.032  0.9643 -1.5561  0.7590
51956SOL     OW67591   7.983   1.735   1.767  0.6924 -0.0950 -0.5412
51956SOL    HW167592   7.972   1.651   1.723  0.2615  0.0784 -0.7695
51956SOL    HW267593   7.914   1.737   1.833  1.3177 -0.3392  0.1293
51957SOL     OW67594   9.673  11.250   1.796 -0.1014 -0.4322  0.7601
51957SOL    HW167595   9.619  11.171   1.805  2.6472 -2.4477  1.0584
51957SOL    HW267596   9.733  11.230   1.724  1.0977  1.1235  1.2703
51958SOL     OW67597   6.624   5.433   2.110  0.1994  0.1167  0.2059
51958SOL    HW167598   6.633   5.370   2.182 -0.5750 -1.4855 -1.0506
51958SOL    HW267599   6.570   5.503   2.146 -2.5366 -1.9744  0.4392
51959SOL     OW67600   1.238   8.285   9.448 -0.5401 -0.0982  0.0021
51959SOL    HW167601   1.149   8.254   9.465 -0.4536  0.8658  2.7403
51959SOL    HW267602   1.294   8.211   9.472 -0.5451 -0.5687 -1.3494
51960SOL     OW67603  10.263   1.272   3.474  0.3993  0.1723  0.0034
51960SOL    HW167604  10.296   1.351   3.431  1.0358  0.3204  0.7407
51960SOL    HW267605  10.173   1.294   3.498  0.5724  0.6754  0.2087
51961SOL     OW67606   6.172   6.082  11.280  0.0862  0.3869  0.5321
51961SOL    HW167607   6.214   6.133  11.349 -1.2491  1.0805  0.8628
51961SOL    HW267608   6.144   6.001  11.323  0.7262  0.0847  0.3958
51962SOL     OW67609   1.937   8.315   6.367 -0.0412  0.2503  0.1312
51962SOL    HW167610   2.025   8.350   6.355  0.9225 -2.3407 -1.0239
51962SOL    HW267611   1.941   8.267   6.449 -0.0170 -0.8269 -0.4844
51963SOL     OW67612   4.989   5.688   9.670 -0.2368  0.5181 -0.0871
51963SOL    HW167613   4.943   5.628   9.611 -2.2450  0.2486  1.6409
51963SOL    HW267614   4.982   5.647   9.756  0.1262  2.2542  0.8143
51964SOL     OW67615   6.954   0.511   7.535 -0.2051  0.3242  0.6047
51964SOL    HW167616   6.989   0.526   7.447 -1.6863  1.1511  0.1108
51964SOL    HW267617   6.901   0.589   7.553 -0.2068  0.0111  2.0984
51965SOL     OW67618   8.616   5.184   9.834  0.3760  0.5344 -0.1531
51965SOL    HW167619   8.604   5.127   9.758 -0.5458  0.8356 -0.2385
51965SOL    HW267620   8.543   5.246   9.830  0.8147  1.1118  0.4865
51966SOL     OW67621   3.539   1.013  10.151 -0.5038 -0.6124  0.1570
51966SOL    HW167622   3.516   0.973  10.068  2.1021 -1.7197 -0.1087
51966SOL    HW267623   3.459   1.004  10.205 -1.9143 -0.7194 -1.8450
51967SOL     OW67624   5.339   3.205   2.720  0.2290 -0.4631 -0.4081
51967SOL    HW167625   5.376   3.285   2.681  0.6066 -0.7658 -0.6734
51967SOL    HW267626   5.251   3.230   2.746  1.1132  0.7410  1.6633
51968SOL     OW67627   3.426   6.310   5.831 -0.2654 -0.3395 -0.2914
51968SOL    HW167628   3.406   6.246   5.762  0.0031 -1.8484  0.9611
51968SOL    HW267629   3.372   6.283   5.905  0.8252  0.0863  0.6992
51969SOL     OW67630   6.951   0.650   6.381 -0.0004  0.0809  0.1790
51969SOL    HW167631   7.022   0.624   6.322  1.3248  0.1826  1.6566
51969SOL    HW267632   6.901   0.715   6.332 -0.5091 -1.6572 -1.7812
51970SOL     OW67633   5.119  11.230   5.939  0.2562  0.4341  0.2183
51970SOL    HW167634   5.130  11.311   5.988 -1.1965  0.1563  1.0611
51970SOL    HW267635   5.058  11.178   5.991  1.8327 -1.6159  0.1804
51971SOL     OW67636   8.823   1.697   3.540  0.4360  0.0745 -0.0637
51971SOL    HW167637   8.816   1.639   3.464  0.4781  0.8591 -0.6853
51971SOL    HW267638   8.744   1.752   3.536  0.1882 -0.2062  0.7488
51972SOL     OW67639   2.521  10.379  11.328 -0.1298  0.3651 -0.0457
51972SOL    HW167640   2.541  10.292  11.361  1.9049  0.8511  0.1406
51972SOL    HW267641   2.440  10.368  11.278  0.5339 -1.8119 -0.7365
51973SOL     OW67642   5.476   9.002   0.926  0.0909  0.5688  0.4356
51973SOL    HW167643   5.503   8.923   0.880  3.2182  0.2478  2.5061
51973SOL    HW267644   5.528   9.072   0.886  0.0115  0.9474  0.9784
51974SOL     OW67645   2.865   3.108   4.119 -0.3261 -0.4813 -0.2860
51974SOL    HW167646   2.940   3.049   4.119  0.0017 -0.0625 -0.3943
51974SOL    HW267647   2.815   3.083   4.041  0.1250 -0.2268 -0.6656
51975SOL     OW67648   2.613   3.065   3.151 -0.2899 -0.0568  0.1251
51975SOL    HW167649   2.703   3.037   3.132 -0.1135  0.7261 -0.2126
51975SOL    HW267650   2.581   3.000   3.213  0.8274  0.1704  0.9763
51976SOL     OW67651   1.032   6.206   8.986  0.4520  0.9377  0.0474
51976SOL    HW167652   0.989   6.144   9.046  0.5601  0.4461 -0.3825
51976SOL    HW267653   1.123   6.179   8.985  0.6941  1.6926  0.5863
51977SOL     OW67654   2.926   5.545   6.975 -0.2384  0.2011 -0.4136
51977SOL    HW167655   2.849   5.523   7.028  1.1333 -1.6214  0.9186
51977SOL    HW267656   2.963   5.622   7.017 -0.9758  0.7469 -0.7268
51978SOL     OW67657  10.702   8.166   4.986  0.2356 -0.0369  0.5843
51978SOL    HW167658  10.780   8.146   5.037  0.3547  0.4798  0.5993
51978SOL    HW267659  10.652   8.226   5.041 -0.7564 -1.2804  1.1037
51979SOL     OW67660   6.848   2.180   0.091 -0.0698  0.4598  0.3663
51979SOL    HW167661   6.919   2.220   0.039  0.3462  1.5580  1.7353
51979SOL    HW267662   6.890   2.156   0.174 -1.7242  3.2256  2.1400
51980SOL     OW67663   6.539   2.941  10.937 -0.0889  0.1375  0.0874
51980SOL    HW167664   6.576   3.024  10.965 -2.3400  1.2635 -0.0010
51980SOL    HW267665   6.554   2.881  11.011  0.5702  0.9352  0.6068
51981SOL     OW67666   0.825   8.904   5.961 -0.1451 -0.7803  0.0057
51981SOL    HW167667   0.879   8.901   6.039 -0.3356 -1.0863  0.1269
51981SOL    HW267668   0.758   8.838   5.975 -0.2906 -0.7100 -0.3366
51982SOL     OW67669   2.146   7.086   6.267 -0.1333 -0.0382  0.2583
51982SOL    HW167670   2.149   7.112   6.359 -1.2799  1.6520 -0.1298
51982SOL    HW267671   2.235   7.059   6.247  0.3224  0.3245  1.6543
51983SOL     OW67672  10.956   1.325   1.596  0.7809  0.4212 -0.3597
51983SOL    HW167673  11.051   1.324   1.607  0.5208  1.3972  2.7904
51983SOL    HW267674  10.921   1.288   1.677 -1.5595 -0.6805 -1.7600
51984SOL     OW67675   3.941   7.311  11.585  0.1395 -0.3457 -0.5347
51984SOL    HW167676   4.027   7.352  11.597  0.4124 -0.7085 -1.2106
51984SOL    HW267677   3.952   7.222  11.620 -0.1342 -0.2071 -0.0865
51985SOL     OW67678  10.290   8.843   0.591  0.1914 -0.2025 -0.3484
51985SOL    HW167679  10.351   8.817   0.523 -0.0078  0.3382 -0.7477
51985SOL    HW267680  10.304   8.938   0.600  0.8295 -0.3986  0.9807
51986SOL     OW67681   7.409   0.877   8.533  0.7001  0.3641  0.3466
51986SOL    HW167682   7.418   0.926   8.451  1.1080  0.9045  0.7077
51986SOL    HW267683   7.482   0.815   8.532 -0.9636 -1.7231 -1.0767
51987SOL     OW67684   9.441   7.418  11.148 -0.1908 -0.2802  0.4034
51987SOL    HW167685   9.530   7.448  11.131 -0.1832 -0.6653 -0.2638
51987SOL    HW267686   9.393   7.435  11.067 -0.9517  0.7139  1.0426
51988SOL     OW67687   2.363   1.275   1.214 -0.6005 -0.2619 -0.5380
51988SOL    HW167688   2.415   1.313   1.143 -0.3814  0.2615 -0.1126
51988SOL    HW267689   2.281   1.248   1.174 -0.8353  0.8455 -0.8255
51989SOL     OW67690   6.033   2.121   6.151  0.3883 -0.3135  0.0105
51989SOL    HW167691   6.048   2.134   6.245  0.6446 -0.7144  0.0273
51989SOL    HW267692   6.069   2.034   6.133 -1.1101 -0.9489 -0.1208
51990SOL     OW67693   2.503   2.153   1.689 -0.0279  0.0442  0.6313
51990SOL    HW167694   2.551   2.184   1.766 -0.6181  0.1714  0.9617
51990SOL    HW267695   2.492   2.059   1.704  0.2782 -0.0185  0.4642
51991SOL     OW67696   1.430   0.404   5.906  0.1745  0.3084  0.2315
51991SOL    HW167697   1.516   0.410   5.865 -0.4468  1.3158 -1.0124
51991SOL    HW267698   1.441   0.446   5.991  1.0259 -0.0453  0.3068
51992SOL     OW67699  10.742   2.925   5.453 -0.2192 -0.3698 -0.1360
51992SOL    HW167700  10.727   2.887   5.540 -2.2656 -0.7695 -0.6148
51992SOL    HW267701  10.682   2.877   5.395  1.5053 -0.5221 -1.9135
51993SOL     OW67702   7.292   7.083   5.389  0.1343 -0.4713 -0.5864
51993SOL    HW167703   7.207   7.072   5.431  0.6084  0.8310  0.8132
51993SOL    HW267704   7.314   6.997   5.355 -0.1535 -1.7141  2.1305
51994SOL     OW67705   0.581  11.105   8.569 -0.4386  0.6057  0.0816
51994SOL    HW167706   0.499  11.128   8.613 -2.1654 -0.5822 -2.3036
51994SOL    HW267707   0.569  11.013   8.544  2.0098  0.1394  0.4203
51995SOL     OW67708   2.019  11.746   5.182 -0.1871  0.4537  0.3023
51995SOL    HW167709   2.112  11.738   5.158 -0.6624  0.8242 -1.9329
51995SOL    HW267710   2.019  11.797   5.263  1.6689 -1.9014  1.9100
51996SOL     OW67711   5.336   0.039   6.738  0.0944  0.2434  0.2294
51996SOL    HW167712   5.408  -0.015   6.772  0.0296  0.0533  0.0650
51996SOL    HW267713   5.259  -0.019   6.742  0.1362  0.1241 -0.4986
51997SOL     OW67714   8.357   6.572   0.510 -0.1032  0.0727  0.1168
51997SOL    HW167715   8.300   6.542   0.440  0.5512  2.9317 -1.8059
51997SOL    HW267716   8.444   6.537   0.487 -0.0568  0.2529  0.0208
51998SOL     OW67717   4.207   2.790   2.430  0.1992 -0.4070 -0.3424
51998SOL    HW167718   4.274   2.816   2.493  0.2665  0.2515 -0.6801
51998SOL    HW267719   4.240   2.822   2.346 -1.0038  0.8221 -0.3778
51999SOL     OW67720   7.227   1.607   7.912 -0.0621  0.1290 -0.1520
51999SOL    HW167721   7.230   1.582   7.819  0.1294 -0.4853  0.0159
51999SOL    HW267722   7.135   1.597   7.936 -0.0386 -0.1351 -0.1648
52000SOL     OW67723   8.828   7.682   9.979  0.2919  0.2132  0.1780
52000SOL    HW167724   8.833   7.727  10.064 -0.4602  1.4822 -0.4132
52000SOL    HW267725   8.919   7.669   9.953  0.5305  1.1293  0.5182
52001SOL     OW67726   3.257   7.341   4.163 -0.2125 -0.2681 -0.1743
52001SOL    HW167727   3.264   7.395   4.084  0.0747  1.0905  0.7419
52001SOL    HW267728   3.348   7.323   4.186 -0.3149 -2.0237 -1.0216
52002SOL     OW67729   0.429   9.492   9.252 -0.6182  0.2292  0.6336
52002SOL    HW167730   0.409   9.406   9.291 -1.4165 -0.4392 -1.1454
52002SOL    HW267731   0.496   9.529   9.310  0.4966 -2.0223  0.8991
52003SOL     OW67732   5.714   7.760   1.572 -0.4787  0.1148 -0.2154
52003SOL    HW167733   5.668   7.720   1.645  0.9831  0.0579  0.7087
52003SOL    HW267734   5.717   7.854   1.593 -0.1353  0.1132 -0.2594
52004SOL     OW67735   0.896  11.480   8.994 -0.2048  0.2262  0.5633
52004SOL    HW167736   0.964  11.466   9.060  0.0898  1.5155  0.5627
52004SOL    HW267737   0.830  11.414   9.012  0.4287 -0.1822  1.4141
52005SOL     OW67738   2.369  10.041   4.334 -0.2976 -0.2681 -0.2021
52005SOL    HW167739   2.438  10.031   4.400  0.1671 -1.0733 -0.7921
52005SOL    HW267740   2.411  10.089   4.263 -0.5317 -0.1886 -0.2876
52006SOL     OW67741   7.153   3.458   6.487  0.9740  0.5418 -0.4017
52006SOL    HW167742   7.067   3.444   6.446  1.1765  1.7776 -1.2975
52006SOL    HW267743   7.212   3.475   6.413  1.8395  0.4573  0.2549
52007SOL     OW67744   4.049   2.909   1.326  0.3921  0.4304  0.6584
52007SOL    HW167745   4.038   2.999   1.358  0.1721  0.3076  0.9218
52007SOL    HW267746   4.001   2.855   1.389  0.6934  0.1090  0.6126
52008SOL     OW67747   5.419   6.951   5.592 -0.1064 -0.5414 -0.3415
52008SOL    HW167748   5.342   6.897   5.606  0.2830 -1.0306 -0.0575
52008SOL    HW267749   5.384   7.038   5.574 -0.7200 -0.6557  0.2453
52009SOL     OW67750   8.474   4.456   3.386 -0.4172 -0.3540  0.2657
52009SOL    HW167751   8.435   4.435   3.470 -0.4596  0.8206  0.5544
52009SOL    HW267752   8.446   4.545   3.367  0.9148  0.0009 -0.2123
52010SOL     OW67753   5.145   9.072  10.886 -0.0808  0.0468 -0.1787
52010SOL    HW167754   5.156   9.105  10.797  0.3310  1.1327  0.2640
52010SOL    HW267755   5.067   9.116  10.920 -1.7989 -2.2883 -0.8389
52011SOL     OW67756   9.450   0.451   2.679 -0.2785  0.3617 -0.1429
52011SOL    HW167757   9.463   0.510   2.753 -3.0014 -1.7215  2.2296
52011SOL    HW267758   9.370   0.483   2.636 -2.0693 -1.6472  1.4613
52012SOL     OW67759  10.297   6.488   3.217 -0.4906 -0.6150 -0.3297
52012SOL    HW167760  10.365   6.469   3.282  0.2974  0.7153 -0.7225
52012SOL    HW267761  10.248   6.561   3.255 -1.0043 -0.8414 -0.5485
52013SOL     OW67762   3.969   9.381   1.394  0.1299  0.1188 -0.0673
52013SOL    HW167763   3.878   9.360   1.374  0.3287 -2.8941  1.6034
52013SOL    HW267764   3.965   9.437   1.471 -0.3199 -0.3624  0.2623
52014SOL     OW67765   0.816   5.499   6.896 -0.1208 -0.0656 -0.4941
52014SOL    HW167766   0.728   5.499   6.932  0.8698  0.5676  2.1447
52014SOL    HW267767   0.840   5.406   6.890  0.0261 -0.2003  1.5573
52015SOL     OW67768   7.232   6.159  10.286 -0.6654 -0.4795  0.5026
52015SOL    HW167769   7.142   6.182  10.263 -0.4266 -1.5138 -1.7787
52015SOL    HW267770   7.237   6.065  10.270  0.5812 -0.6249  1.5776
52016SOL     OW67771   2.699  10.542   6.473  0.0219 -0.3436  0.1461
52016SOL    HW167772   2.709  10.456   6.512 -0.1655  0.2155  1.4797
52016SOL    HW267773   2.782  10.559   6.429  0.2371 -0.9896  0.2931
52017SOL     OW67774   1.327   7.246   9.966 -0.0757 -0.3416  0.3068
52017SOL    HW167775   1.284   7.166   9.999  2.0902 -0.7069  2.5297
52017SOL    HW267776   1.290   7.258   9.878 -0.5887 -3.7365 -0.0944
52018SOL     OW67777   8.402  11.639   4.273  0.0799  0.2665 -0.2701
52018SOL    HW167778   8.481  11.587   4.289  1.1651  1.5924 -1.0838
52018SOL    HW267779   8.395  11.697   4.349  2.1638  2.8137 -1.8390
52019SOL     OW67780   3.786   7.946   5.129 -0.1987 -0.0688 -0.4086
52019SOL    HW167781   3.826   7.862   5.155 -1.5803 -0.7962 -0.5614
52019SOL    HW267782   3.835   7.971   5.050  0.8726 -0.2153  0.1787
52020SOL     OW67783   1.418  10.527  11.841  0.1070 -0.7420  0.0952
52020SOL    HW167784   1.499  10.476  11.836 -0.4555 -1.6111 -0.3849
52020SOL    HW267785   1.397  10.549  11.750  0.9245  1.3398  0.3552
52021SOL     OW67786  10.400   5.953   6.377 -0.4680 -0.1246  0.7052
52021SOL    HW167787  10.385   5.984   6.466 -1.0286  0.0577  0.5486
52021SOL    HW267788  10.370   5.862   6.378 -1.3083  0.1456  0.4736
52022SOL     OW67789   1.678   1.282   9.460 -0.5808  0.1829  0.3418
52022SOL    HW167790   1.640   1.196   9.446 -0.8481  0.6691 -2.3759
52022SOL    HW267791   1.772   1.264   9.473 -0.6218 -0.5340 -0.2595
52023SOL     OW67792   4.052   7.685   3.894 -0.5174 -0.2912 -0.2063
52023SOL    HW167793   4.134   7.637   3.890 -0.2728  0.0957  0.1225
52023SOL    HW267794   4.075   7.774   3.866 -0.9226 -0.3102 -0.6093
52024SOL     OW67795   3.550  10.171   8.483 -0.2584  0.1882  0.5522
52024SOL    HW167796   3.544  10.197   8.391 -2.4778 -0.5070  0.4319
52024SOL    HW267797   3.632  10.122   8.489 -0.2989 -0.1576 -1.1753
52025SOL     OW67798   9.214   8.756  10.600  0.2368  0.5890 -0.4599
52025SOL    HW167799   9.293   8.805  10.623 -0.0075  1.0143 -0.5094
52025SOL    HW267800   9.180   8.802  10.523  1.0589 -0.8123 -1.7356
52026SOL     OW67801  11.040   7.571  10.424 -0.6617  0.1019  0.3194
52026SOL    HW167802  11.019   7.491  10.376  1.7779 -0.2626 -0.2537
52026SOL    HW267803  11.092   7.623  10.363 -1.1975  1.6049  1.0983
52027SOL     OW67804  11.646   4.085   2.610  0.1165  0.4188 -0.4576
52027SOL    HW167805  11.648   4.166   2.560  0.0776 -0.0585 -1.2574
52027SOL    HW267806  11.580   4.100   2.678 -1.4474  0.3514 -1.8786
52028SOL     OW67807   1.521   4.423   0.431  0.0308  0.3246 -0.1234
52028SOL    HW167808   1.573   4.486   0.380  0.6173 -0.3548 -0.3878
52028SOL    HW267809   1.534   4.340   0.386 -0.3659 -0.0742  0.4871
52029SOL     OW67810   6.158   4.725   2.251  0.4144 -0.0745  0.2116
52029SOL    HW167811   6.132   4.686   2.334  1.7383  0.4464  0.9126
52029SOL    HW267812   6.226   4.667   2.217  1.1224  0.6257  0.3839
52030SOL     OW67813   2.917   5.571   1.455  0.4842  0.5075  0.1837
52030SOL    HW167814   2.901   5.637   1.388  0.5681  0.1126 -0.2256
52030SOL    HW267815   2.848   5.585   1.520 -0.2894  0.1424 -0.5503
52031SOL     OW67816   3.287   2.704   1.315 -0.3230 -0.1788 -0.7688
52031SOL    HW167817   3.375   2.741   1.305 -0.3707 -0.1373 -1.0654
52031SOL    HW267818   3.240   2.769   1.367 -0.1710 -0.2109 -0.5919
52032SOL     OW67819  10.791   8.339  10.687 -0.1317  0.1420  0.2104
52032SOL    HW167820  10.876   8.308  10.718 -0.6291 -0.1098  1.3758
52032SOL    HW267821  10.806   8.361  10.595  0.8316 -1.2458  0.0022
52033SOL     OW67822  10.423   7.594  10.016  0.7355 -0.3453 -0.0221
52033SOL    HW167823  10.355   7.631   9.961  0.4917  0.0220  0.5256
52033SOL    HW267824  10.376   7.551  10.087  0.9900 -2.0184 -0.8115
52034SOL     OW67825   4.704   3.633   8.869  0.6439  0.1125 -1.0365
52034SOL    HW167826   4.773   3.693   8.838  0.5020 -0.5166 -2.6614
52034SOL    HW267827   4.623   3.671   8.835  0.0210  1.2579  1.4827
52035SOL     OW67828   5.937   8.730   6.347  0.1377  0.1353 -0.1402
52035SOL    HW167829   5.862   8.689   6.305  0.2483  0.2358 -0.4413
52035SOL    HW267830   5.958   8.672   6.420  2.8049 -2.7086 -2.8479
52036SOL     OW67831  11.588   8.469   4.171 -0.3952 -0.0359 -0.4889
52036SOL    HW167832  11.505   8.483   4.215 -0.4287 -1.2933 -0.1232
52036SOL    HW267833  11.571   8.400   4.107 -0.2470  1.4654 -2.2445
52037SOL     OW67834   7.054   0.199   9.099 -0.4136  0.2121 -0.5614
52037SOL    HW167835   7.100   0.137   9.042 -1.0405  0.6161 -1.5332
52037SOL    HW267836   7.122   0.260   9.127 -0.4959  1.4395 -2.8472
52038SOL     OW67837   5.714   5.732   3.894 -0.6024  0.3869 -0.1246
52038SOL    HW167838   5.775   5.763   3.961 -0.9711 -0.4482  0.6136
52038SOL    HW267839   5.634   5.710   3.942 -0.5283 -1.2117 -0.6779
52039SOL     OW67840   4.428   9.850   9.764 -0.0577 -0.3556 -0.4306
52039SOL    HW167841   4.433   9.758   9.789 -0.7549 -0.5045 -0.8169
52039SOL    HW267842   4.512   9.869   9.722  1.4898  0.0987  2.5934
52040SOL     OW67843   5.826  10.488  11.791 -0.6493  0.2634 -0.2683
52040SOL    HW167844   5.893  10.555  11.778 -0.6307  0.0160 -1.6891
52040SOL    HW267845   5.874  10.405  11.783 -0.6887  0.0545  1.3741
52041SOL     OW67846   2.455   2.610   0.191  0.2069 -0.0053 -0.0525
52041SOL    HW167847   2.412   2.654   0.118 -1.0275  2.0790  1.8081
52041SOL    HW267848   2.405   2.529   0.204  1.2951 -1.1170 -2.2929
52042SOL     OW67849   0.211   4.764   4.892 -0.2422 -0.1330 -0.2061
52042SOL    HW167850   0.170   4.830   4.949 -2.9462 -1.3661 -0.5433
52042SOL    HW267851   0.236   4.813   4.814 -0.2162  0.8685  0.4130
52043SOL     OW67852   2.886   0.101   1.878 -0.2210 -0.0157  0.5608
52043SOL    HW167853   2.833   0.054   1.942 -1.7015  0.9438  0.0747
52043SOL    HW267854   2.860   0.064   1.793 -1.1614  1.3901  0.2040
52044SOL     OW67855   3.502   3.508   7.888 -0.2694  0.0130 -0.2010
52044SOL    HW167856   3.491   3.545   7.800 -0.7277 -0.2214 -0.2452
52044SOL    HW267857   3.484   3.581   7.947 -2.3010 -0.3735 -0.2647
52045SOL     OW67858   2.317   6.074   8.390 -0.0323  0.3198  0.0388
52045SOL    HW167859   2.354   5.986   8.389  1.3917  0.9041 -1.4350
52045SOL    HW267860   2.360   6.117   8.464  1.6395  0.7290 -1.1426
52046SOL     OW67861   2.607  11.040   6.526  0.1105 -0.4868 -0.5379
52046SOL    HW167862   2.591  11.072   6.437  0.6577 -0.3411 -0.5846
52046SOL    HW267863   2.532  11.071   6.576  0.5816  0.8163 -0.5984
52047SOL     OW67864   4.518   2.144   8.751 -0.0602  0.0558  0.1657
52047SOL    HW167865   4.484   2.194   8.825 -0.2209  1.3172 -0.7261
52047SOL    HW267866   4.557   2.066   8.790 -0.7049  0.3860  1.5152
52048SOL     OW67867   1.235   6.268  11.919  0.0035  0.0438  0.1710
52048SOL    HW167868   1.232   6.350  11.968  1.1487  0.6334 -0.6811
52048SOL    HW267869   1.172   6.281  11.848  1.0995  0.7442 -0.7202
52049SOL     OW67870   8.860  11.590   7.907  0.4882  0.9150  0.4412
52049SOL    HW167871   8.951  11.613   7.924  0.0677  3.1004  0.0396
52049SOL    HW267872   8.845  11.617   7.816 -0.6282  0.8012  0.5833
52050SOL     OW67873   4.436   2.146   3.311  0.2419  0.5284  0.1903
52050SOL    HW167874   4.356   2.098   3.288 -0.0840  0.4817  1.3611
52050SOL    HW267875   4.443   2.215   3.244 -0.7931  0.5562  0.1002
52051SOL     OW67876   8.766   2.740   4.749 -0.0257 -0.1674 -0.0301
52051SOL    HW167877   8.827   2.796   4.797 -1.0036  0.9715 -0.0991
52051SOL    HW267878   8.812   2.718   4.669  0.9158 -0.6217  0.6134
52052SOL     OW67879   2.695  10.789  10.742 -0.0809 -0.4677 -0.9318
52052SOL    HW167880   2.772  10.783  10.798 -1.0045 -1.0857  0.3022
52052SOL    HW267881   2.653  10.871  10.768  1.0208  0.7932 -2.8098
52053SOL     OW67882   8.914   2.831  11.262 -0.2959  0.1350  0.1045
52053SOL    HW167883   8.980   2.894  11.291 -0.9013  0.3668  1.0529
52053SOL    HW267884   8.867   2.808  11.342  0.6933 -2.5051  0.0230
52054SOL     OW67885   3.249   1.229   4.548  0.6495  0.2463 -0.3472
52054SOL    HW167886   3.298   1.276   4.481 -0.5038  0.7482 -0.8690
52054SOL    HW267887   3.183   1.180   4.499  1.6947 -1.8306  0.1857
52055SOL     OW67888   2.478   2.004   1.327 -0.7158 -0.1746  0.1000
52055SOL    HW167889   2.459   1.945   1.400  0.9599 -0.7343  0.1220
52055SOL    HW267890   2.392   2.034   1.298 -1.4345  0.2941  2.4655
52056SOL     OW67891   2.359   3.339  11.702 -0.1063  0.0130 -0.4037
52056SOL    HW167892   2.420   3.312  11.633  1.1634 -0.8788  0.9910
52056SOL    HW267893   2.274   3.306  11.674  0.3775 -0.2862 -1.5606
52057SOL     OW67894   8.393   6.866   1.259 -0.4036 -0.1806  0.5578
52057SOL    HW167895   8.306   6.834   1.237 -0.1605 -1.0214  0.7942
52057SOL    HW267896   8.407   6.837   1.350 -1.0031  2.3764  1.5443
52058SOL     OW67897   3.529   2.818   0.598 -0.7799  0.6233  0.5437
52058SOL    HW167898   3.510   2.825   0.505 -0.5746  1.1531  0.5329
52058SOL    HW267899   3.601   2.880   0.612  1.5909 -1.9139  0.4070
52059SOL     OW67900   7.860   1.563   7.228 -0.6893 -0.5478 -0.2629
52059SOL    HW167901   7.773   1.580   7.265 -1.4427 -0.6508 -1.8962
52059SOL    HW267902   7.910   1.526   7.300 -1.0314  2.3147  1.6201
52060SOL     OW67903   6.625   7.214   9.347  0.3820  0.0561 -0.1485
52060SOL    HW167904   6.620   7.304   9.379  1.7122 -0.3622  1.3673
52060SOL    HW267905   6.625   7.160   9.426 -0.1018 -1.2748 -1.0207
52061SOL     OW67906   7.198   9.567  10.171 -0.2909  0.5376  0.1955
52061SOL    HW167907   7.117   9.551  10.219  1.0273  1.4331  2.8813
52061SOL    HW267908   7.222   9.481  10.136 -0.6537 -0.4914  2.3078
52062SOL     OW67909   9.294   3.665   2.309 -0.2187 -0.1437  0.3792
52062SOL    HW167910   9.287   3.728   2.381  0.1764  1.2902 -0.7860
52062SOL    HW267911   9.366   3.607   2.336  1.4001  1.6808  0.2393
52063SOL     OW67912   9.566   3.343   9.275  0.3491  0.2824  0.4291
52063SOL    HW167913   9.585   3.386   9.359  0.8979  3.2823 -1.0708
52063SOL    HW267914   9.538   3.415   9.218  0.1747 -1.6073 -2.0229
52064SOL     OW67915   6.810   9.889   0.978 -0.0356  0.2780  0.3149
52064SOL    HW167916   6.848   9.846   0.901 -0.2482 -1.2054  1.0138
52064SOL    HW267917   6.758   9.960   0.941  0.4538  0.0500 -0.8735
52065SOL     OW67918   1.158  11.615   0.875  0.4267  0.0256  0.7023
52065SOL    HW167919   1.078  11.579   0.838  0.7543 -1.5637  1.4422
52065SOL    HW267920   1.185  11.683   0.813 -0.6047 -0.5414 -0.4080
52066SOL     OW67921  11.670   9.771   5.483 -0.5608 -0.1905 -0.0767
52066SOL    HW167922  11.717   9.792   5.564 -1.7919  0.4791  0.4976
52066SOL    HW267923  11.610   9.845   5.470 -0.0226 -0.0310 -1.9065
52067SOL     OW67924   8.129   7.267   8.851  0.2216 -0.1139  0.0115
52067SOL    HW167925   8.040   7.289   8.823  0.4569  1.2119  0.2484
52067SOL    HW267926   8.120   7.240   8.942  0.0458 -0.0563  0.0109
52068SOL     OW67927  11.573   0.909   6.239 -0.5406  0.1037 -0.0201
52068SOL    HW167928  11.577   0.946   6.327 -1.4614 -0.0436  0.0867
52068SOL    HW267929  11.506   0.961   6.194  0.2275  0.4624 -0.7732
52069SOL     OW67930   3.054   4.090   2.886  0.1533 -0.4236  0.4256
52069SOL    HW167931   3.111   4.060   2.815 -0.6995  0.3848 -0.6412
52069SOL    HW267932   2.966   4.065   2.859 -0.0836 -1.1339  1.7750
52070SOL     OW67933   1.588   5.164   0.895  0.8112 -0.7100  0.6425
52070SOL    HW167934   1.632   5.195   0.817  2.6394 -0.7929  1.5850
52070SOL    HW267935   1.653   5.111   0.941 -0.7662 -2.1647  1.3561
52071SOL     OW67936   1.459   6.456   2.549 -0.1951 -0.3354  0.2640
52071SOL    HW167937   1.464   6.552   2.553  0.3244 -0.2177 -1.6934
52071SOL    HW267938   1.436   6.438   2.457  0.5867 -2.0963  0.3793
52072SOL     OW67939   4.704   2.549   4.360  0.3367 -0.0851  0.1423
52072SOL    HW167940   4.729   2.641   4.356 -3.1230  0.9481 -1.6634
52072SOL    HW267941   4.716   2.516   4.271  3.8098 -2.2498  1.2135
52073SOL     OW67942   0.718   6.026  11.295 -0.1523 -0.0117 -0.4857
52073SOL    HW167943   0.738   5.976  11.375 -0.9952  0.3267 -0.0490
52073SOL    HW267944   0.627   6.053  11.306  0.1216  1.1765 -0.9553
52074SOL     OW67945   0.328   8.908   3.986 -0.7778 -0.3872 -0.0579
52074SOL    HW167946   0.386   8.834   3.967 -0.1895  0.4145 -1.5586
52074SOL    HW267947   0.384   8.971   4.031 -0.7432 -0.0476 -0.5649
52075SOL     OW67948   0.630   5.843   6.288  0.0738 -0.8095 -0.3108
52075SOL    HW167949   0.614   5.933   6.259 -0.2846 -1.2155 -1.4034
52075SOL    HW267950   0.713   5.848   6.337 -1.0012  0.4814  1.5162
52076SOL     OW67951   8.745   3.086   0.344 -0.2945 -0.5462  0.3864
52076SOL    HW167952   8.780   3.025   0.279  2.7159 -0.4430  1.7132
52076SOL    HW267953   8.742   3.036   0.425 -0.9290  0.1858  0.8297
52077SOL     OW67954   5.662   9.996  11.536  0.2843  0.5560 -0.0774
52077SOL    HW167955   5.667  10.092  11.536 -0.1080  0.6327 -2.0872
52077SOL    HW267956   5.749   9.968  11.508  0.6227  0.2857  1.2294
52078SOL     OW67957   8.640   4.194   3.162  0.5339  0.1926  0.6554
52078SOL    HW167958   8.672   4.255   3.228  2.2001 -0.4667  0.5066
52078SOL    HW267959   8.617   4.115   3.211  1.1555 -0.0677  0.5412
52079SOL     OW67960   2.249   2.583   8.778 -0.2367  0.4580  0.2017
52079SOL    HW167961   2.178   2.528   8.813  1.0201 -0.5853  1.2107
52079SOL    HW267962   2.285   2.531   8.706 -1.2181  1.5155 -1.1096
52080SOL     OW67963   1.546   6.082   6.812  0.2930  0.2813 -0.0200
52080SOL    HW167964   1.620   6.079   6.752  0.7020  1.2831  0.4123
52080SOL    HW267965   1.470   6.100   6.757  0.3099 -0.9792 -0.4976
52081SOL     OW67966   6.768   4.121   0.182 -0.1369  0.3072  0.2391
52081SOL    HW167967   6.863   4.133   0.179 -0.1735  0.6310  0.2667
52081SOL    HW267968   6.747   4.129   0.275 -0.4374  2.3596  0.0486
52082SOL     OW67969  10.881   3.393   0.245  0.1518 -0.2041 -0.0315
52082SOL    HW167970  10.857   3.459   0.310  0.3350  0.6714 -0.8163
52082SOL    HW267971  10.947   3.437   0.190 -1.3159 -0.2322 -1.9380
52083SOL     OW67972   0.301   7.751   8.670 -0.0524 -0.5413 -0.4313
52083SOL    HW167973   0.278   7.835   8.710  2.3426 -0.7926  1.7242
52083SOL    HW267974   0.261   7.685   8.727 -3.1457 -1.0489 -2.8856
52084SOL     OW67975   5.942   0.603   3.717 -0.2996  0.3254  0.2959
52084SOL    HW167976   5.849   0.590   3.702 -0.1459  0.4775 -0.9215
52084SOL    HW267977   5.950   0.696   3.740 -0.4617  0.2624  0.6179
52085SOL     OW67978   0.546   0.612  11.298  0.0339  0.7218  0.1426
52085SOL    HW167979   0.575   0.702  11.310  0.2469  0.6861 -0.1238
52085SOL    HW267980   0.482   0.599  11.368 -1.6964  1.8006 -1.1482
52086SOL     OW67981   3.354   8.632   5.780  0.2878  0.4927 -0.5977
52086SOL    HW167982   3.373   8.650   5.872  1.5565 -0.5772 -0.6171
52086SOL    HW267983   3.300   8.552   5.782  1.1834 -0.1331 -0.8012
52087SOL     OW67984   6.333   4.333   8.108 -0.2206  0.1241 -0.4458
52087SOL    HW167985   6.393   4.273   8.064 -0.8022 -0.4204 -0.5054
52087SOL    HW267986   6.354   4.419   8.071  0.2659 -0.1139 -0.7344
52088SOL     OW67987   4.697   3.444  10.758  0.4161 -0.0937 -0.2426
52088SOL    HW167988   4.727   3.356  10.736  1.7362  0.4248 -0.6117
52088SOL    HW267989   4.770   3.501  10.735 -0.6573  1.1781 -0.6158
52089SOL     OW67990   7.529  10.479   7.878 -0.2261 -0.1733 -0.0785
52089SOL    HW167991   7.494  10.390   7.874 -1.5729  0.3841 -1.8609
52089SOL    HW267992   7.509  10.508   7.967 -1.9352 -0.8314 -0.2034
52090SOL     OW67993   0.717   1.938   7.346  0.2332 -0.0423  0.0027
52090SOL    HW167994   0.709   1.899   7.258  2.2075  2.6922 -1.5381
52090SOL    HW267995   0.795   1.898   7.383  0.9151  0.6673 -0.6209
52091SOL     OW67996   8.733   2.746   2.939 -0.2172  0.0283 -0.0512
52091SOL    HW167997   8.759   2.802   2.866 -1.6165 -0.0523 -0.6595
52091SOL    HW267998   8.660   2.794   2.980  0.0675 -0.2840  0.8373
52092SOL     OW67999   1.809  10.557   3.320 -0.7455  0.1167  0.2326
52092SOL    HW168000   1.768  10.640   3.347 -2.4815  0.2390 -2.3721
52092SOL    HW268001   1.849  10.577   3.236 -2.8410 -2.0252 -1.4097
52093SOL     OW68002   7.643   8.312   5.568  0.6052  0.1688 -0.1723
52093SOL    HW168003   7.652   8.373   5.641  1.0265 -0.5410  0.3760
52093SOL    HW268004   7.727   8.267   5.564  0.6158  0.2348 -1.1410
52094SOL     OW68005  11.515   9.346  10.108  0.3811 -0.4266  0.4294
52094SOL    HW168006  11.497   9.340  10.202 -1.4077 -0.1156  0.1430
52094SOL    HW268007  11.429   9.357  10.068  1.1741  0.1016 -1.2034
52095SOL     OW68008   2.371   7.968   7.827 -0.0713  0.0759 -0.1226
52095SOL    HW168009   2.348   7.985   7.736  0.2798  1.0726 -0.0470
52095SOL    HW268010   2.355   8.052   7.871  0.8522 -0.0622  0.4988
52096SOL     OW68011  11.798   4.136   3.765 -0.3657  0.2661  0.1295
52096SOL    HW168012  11.811   4.103   3.676 -0.0399  0.8658 -0.0500
52096SOL    HW268013  11.768   4.226   3.753 -0.3619  0.3343  0.6275
52097SOL     OW68014   9.390   9.830  11.363 -0.2126  0.1898  0.3422
52097SOL    HW168015   9.420   9.750  11.319  0.2740  0.3947  0.2948
52097SOL    HW268016   9.310   9.804  11.408  0.5496 -0.6242  1.2743
52098SOL     OW68017   9.381   5.357   8.537 -0.6574  0.1400  0.0407
52098SOL    HW168018   9.412   5.302   8.609  0.3263  0.0193 -0.4496
52098SOL    HW268019   9.459   5.369   8.482 -0.4000  3.2903  0.9035
52099SOL     OW68020   2.509   6.177   2.523 -0.1693  0.0206  0.6911
52099SOL    HW168021   2.468   6.226   2.595 -1.4371 -1.9856  1.4333
52099SOL    HW268022   2.600   6.207   2.522 -0.6254  1.5426  1.8235
52100SOL     OW68023   0.331   1.359   2.258  0.6220 -0.7221  0.1269
52100SOL    HW168024   0.360   1.282   2.208  0.1368 -0.8093 -0.0282
52100SOL    HW268025   0.399   1.424   2.244 -0.7804  0.2841 -3.0044
52101SOL     OW68026  11.132   9.091   7.745  0.0118 -0.8127 -0.1025
52101SOL    HW168027  11.067   9.081   7.675 -0.4574 -1.4935  0.4172
52101SOL    HW268028  11.082   9.127   7.818  0.4506 -0.3389 -0.0274
52102SOL     OW68029   7.015   8.994  11.219 -0.6802 -0.0197  0.7371
52102SOL    HW168030   7.001   9.007  11.313 -1.5886  0.0545  0.5999
52102SOL    HW268031   7.051   9.077  11.188 -2.1594  0.6283  0.6904
52103SOL     OW68032   5.950   3.155   4.914  0.4009  0.1271  0.3304
52103SOL    HW168033   5.943   3.121   5.003  1.9763 -1.0029  0.0632
52103SOL    HW268034   5.978   3.245   4.924 -1.7465  0.7703  1.0056
52104SOL     OW68035   2.733   3.189   2.172 -0.1094 -0.2231 -0.5119
52104SOL    HW168036   2.745   3.279   2.203 -0.6599 -0.1286 -0.5601
52104SOL    HW268037   2.741   3.135   2.251  1.4915 -0.2594 -0.6652
52105SOL     OW68038   5.115   4.716   3.325  0.6092  0.0542 -0.3164
52105SOL    HW168039   5.109   4.630   3.368  3.9948 -1.5087 -2.5457
52105SOL    HW268040   5.077   4.702   3.239 -0.5339  1.4250 -0.0735
52106SOL     OW68041  11.577   6.540  10.957  0.4347  0.6589 -0.0190
52106SOL    HW168042  11.611   6.453  10.936  1.3396  0.4789  1.9648
52106SOL    HW268043  11.646   6.581  11.009  0.6752  3.1808 -2.1332
52107SOL     OW68044   3.966   9.738   0.222 -0.3658  0.1749  0.0301
52107SOL    HW168045   3.924   9.773   0.144  0.0214  0.7012  0.0511
52107SOL    HW268046   4.025   9.671   0.190  0.6911  1.2122 -0.2686
52108SOL     OW68047   6.978   2.028   9.832  0.0096  0.1745 -0.3797
52108SOL    HW168048   6.984   2.024   9.737 -3.2304 -0.5608 -0.6698
52108SOL    HW268049   6.939   2.114   9.850 -0.6428 -0.2128  0.1379
52109SOL     OW68050   6.618   1.352  11.908 -0.4172 -0.2955  0.4224
52109SOL    HW168051   6.567   1.350  11.989  0.4267 -2.4310  0.9544
52109SOL    HW268052   6.689   1.413  11.926 -0.2776 -0.7011  1.2794
52110SOL     OW68053   0.719   2.604   8.919 -0.0017  0.1344 -0.4391
52110SOL    HW168054   0.725   2.508   8.916 -0.7828  0.0789 -0.3954
52110SOL    HW268055   0.648   2.622   8.981  0.4476  0.7568 -0.0913
52111SOL     OW68056   7.053   4.512   7.369  0.7466  0.5375 -0.0837
52111SOL    HW168057   7.077   4.419   7.368  2.3913  0.9238  0.5471
52111SOL    HW268058   7.053   4.536   7.461 -0.9675  0.8925 -0.1379
52112SOL     OW68059   1.295   4.647  11.909  0.0177 -0.2343  0.1119
52112SOL    HW168060   1.375   4.694  11.887  0.2901 -0.8839 -0.3195
52112SOL    HW268061   1.303   4.563  11.864  0.7487 -1.8125  2.9529
52113SOL     OW68062  11.467   6.105   9.694 -0.1122 -0.0803  0.1337
52113SOL    HW168063  11.556   6.092   9.662  0.0857 -2.0977  1.3700
52113SOL    HW268064  11.442   6.192   9.661  1.4147 -0.4647 -2.2167
52114SOL     OW68065   9.328   6.980   3.911  0.2477  0.1698  0.2914
52114SOL    HW168066   9.372   7.023   3.837  1.0225  1.1534  1.2796
52114SOL    HW268067   9.299   6.896   3.876  0.9521  0.4343 -1.0191
52115SOL     OW68068   2.323   7.654   8.173  0.4112  0.3555  0.2185
52115SOL    HW168069   2.251   7.593   8.156  0.8096 -0.4595  1.3340
52115SOL    HW268070   2.394   7.624   8.116  0.6417 -0.3189  0.8386
52116SOL     OW68071   5.526   6.524   1.365  0.4327  0.1884 -0.3359
52116SOL    HW168072   5.495   6.481   1.445 -0.8356 -1.0032 -1.4366
52116SOL    HW268073   5.454   6.581   1.339  0.5068 -0.0500 -1.0786
52117SOL     OW68074   4.035  11.755  10.184 -0.0388  0.1591  0.3436
52117SOL    HW168075   4.097  11.705  10.238  0.0076  0.2880  0.4100
52117SOL    HW268076   4.078  11.763  10.099 -0.3199 -0.4640  0.1371
52118SOL     OW68077   3.022   9.576   6.072  0.6983 -0.3061  0.1564
52118SOL    HW168078   3.080   9.502   6.054  0.5208 -0.2338 -0.8012
52118SOL    HW268079   3.079   9.652   6.069  0.6940 -0.3078  0.0091
52119SOL     OW68080   3.740   2.443   1.760  0.2991 -0.2308 -0.1562
52119SOL    HW168081   3.788   2.417   1.682  2.3786 -2.3946  1.6644
52119SOL    HW268082   3.682   2.370   1.778 -0.6998  0.5690 -0.0509
52120SOL     OW68083   5.457   9.716   9.959  0.2405 -0.2271  0.0725
52120SOL    HW168084   5.539   9.711  10.008  1.0220 -1.8048 -1.2732
52120SOL    HW268085   5.423   9.627   9.959 -1.9794  0.5390  1.3207
52121SOL     OW68086   2.666   1.144   1.727  0.1440  0.2324 -0.3793
52121SOL    HW168087   2.749   1.097   1.736  0.5485  0.7320 -1.3137
52121SOL    HW268088   2.628   1.110   1.646  0.9814  2.2395 -1.7159
52122SOL     OW68089   2.222   2.104   4.896 -0.3463  0.5635  0.0410
52122SOL    HW168090   2.294   2.041   4.898 -1.6119 -1.1577 -2.8308
52122SOL    HW268091   2.254   2.179   4.945  2.0081 -1.5046  1.9069
52123SOL     OW68092   9.628   9.279   6.973  0.2986 -0.3441 -0.2041
52123SOL    HW168093   9.722   9.265   6.979  0.0812 -1.3765  1.3366
52123SOL    HW268094   9.619   9.371   6.948  1.7049 -0.3479 -0.8200
52124SOL     OW68095   0.719   6.743   3.211 -0.1923 -0.0799 -0.4408
52124SOL    HW168096   0.695   6.664   3.259 -0.1740 -0.1894 -0.6102
52124SOL    HW268097   0.649   6.805   3.229 -0.4156 -0.2740 -0.6359
52125SOL     OW68098   4.329   4.213  10.211 -0.2932 -0.4044 -0.1617
52125SOL    HW168099   4.243   4.209  10.253 -0.1014 -1.0533  0.1777
52125SOL    HW268100   4.387   4.163  10.269  0.2984 -0.0440 -0.4277
52126SOL     OW68101   5.960   8.495   1.706  0.0409 -0.1130  0.1668
52126SOL    HW168102   6.051   8.466   1.697  0.9693  2.1150  1.3449
52126SOL    HW268103   5.948   8.558   1.635 -0.2844  0.2575  0.5450
52127SOL     OW68104   5.616   3.939   7.968  0.0547  0.3855  0.5683
52127SOL    HW168105   5.656   3.914   7.885  1.6289 -0.7709  1.5934
52127SOL    HW268106   5.691   3.952   8.027 -1.0073 -2.1471  2.6752
52128SOL     OW68107   6.079   8.003  10.636 -0.5873  0.4953  0.1718
52128SOL    HW168108   6.030   7.924  10.660 -0.0152  0.4147  1.1048
52128SOL    HW268109   6.027   8.076  10.670  0.0528  0.3978  1.4008
52129SOL     OW68110   1.418   0.183   3.625 -0.2554  0.7678  0.3045
52129SOL    HW168111   1.465   0.265   3.612  0.6400  0.4659  1.5676
52129SOL    HW268112   1.469   0.118   3.577  0.7116  0.4240  1.7479
52130SOL     OW68113   0.363   6.343   0.603 -0.5614 -0.4973 -0.4642
52130SOL    HW168114   0.426   6.399   0.649 -0.2493  0.4637 -1.9884
52130SOL    HW268115   0.410   6.261   0.588 -0.5183 -0.6588  0.5175
52131SOL     OW68116   4.523   6.921  10.947 -0.2430  0.5009  0.1165
52131SOL    HW168117   4.490   6.860  10.880 -0.6567  0.8961 -0.0509
52131SOL    HW268118   4.505   6.878  11.030  0.0398  0.1158 -0.0233
52132SOL     OW68119   6.051   6.049   0.090  0.5568 -0.1587 -0.0405
52132SOL    HW168120   6.122   6.005   0.137  0.6324  0.3774  0.3584
52132SOL    HW268121   6.025   6.121   0.148 -1.0954 -1.0384  0.3762
52133SOL     OW68122   1.460   7.140   9.415  0.0138  0.2670  0.4227
52133SOL    HW168123   1.522   7.204   9.379  1.5233 -1.7914 -0.8481
52133SOL    HW268124   1.475   7.060   9.364 -0.8580 -1.5079  2.7501
52134SOL     OW68125  10.591   5.806  11.724 -0.4965  0.2812 -0.5205
52134SOL    HW168126  10.518   5.768  11.773 -0.0790 -0.8487 -0.7524
52134SOL    HW268127  10.552   5.835  11.642 -0.6737 -0.4309 -0.6955
52135SOL     OW68128   0.872  10.614   0.467 -0.3286  0.2442  0.3296
52135SOL    HW168129   0.955  10.661   0.458  0.1520 -0.4463  0.9986
52135SOL    HW268130   0.884  10.558   0.544 -1.5865  0.4767  0.7292
52136SOL     OW68131   7.550   1.170   8.726  0.6195  0.6339 -0.2957
52136SOL    HW168132   7.463   1.209   8.720 -0.1502 -1.0704 -1.1200
52136SOL    HW268133   7.543   1.105   8.795  1.3927  0.8271 -0.0249
52137SOL     OW68134   7.160   0.837   0.032  0.0361  0.3967 -1.0385
52137SOL    HW168135   7.170   0.931   0.019  0.4411  0.2652 -1.7315
52137SOL    HW268136   7.202   0.797  -0.044 -1.9031 -0.3111 -1.8042
52138SOL     OW68137   0.572   9.054   3.773  0.3200 -0.3665 -0.3214
52138SOL    HW168138   0.507   8.988   3.748  0.4919 -0.4739 -0.4905
52138SOL    HW268139   0.620   9.014   3.845 -1.7362  0.8734  1.8726
52139SOL     OW68140   6.806   9.352   5.064 -0.7974 -0.1946 -0.2218
52139SOL    HW168141   6.883   9.408   5.074  0.0344 -1.3773  0.2903
52139SOL    HW268142   6.823   9.278   5.122 -2.3657 -0.4514 -0.0423
52140SOL     OW68143   6.298   1.602   6.913 -0.3905  0.0941  0.6879
52140SOL    HW168144   6.237   1.662   6.955 -0.4754  0.1272  0.5182
52140SOL    HW268145   6.375   1.655   6.893 -0.0536 -0.0905  1.4666
52141SOL     OW68146   7.707   0.836  11.180  0.5204  0.0921  0.4916
52141SOL    HW168147   7.695   0.842  11.085  1.3734  0.9424  0.4219
52141SOL    HW268148   7.801   0.848  11.193  0.1056  2.9430  1.6191
52142SOL     OW68149   9.663   5.807   3.593  0.1574 -0.5391  0.2524
52142SOL    HW168150   9.713   5.816   3.674  0.5807  0.7255 -0.1218
52142SOL    HW268151   9.723   5.836   3.524 -0.4543 -0.8483 -0.4284
52143SOL     OW68152   8.664   4.654   6.418 -0.5859 -0.6791  0.1780
52143SOL    HW168153   8.733   4.602   6.378  0.5049 -0.1917  1.3579
52143SOL    HW268154   8.624   4.701   6.345 -1.8383 -3.3317 -0.9905
52144SOL     OW68155   3.904   4.519  10.591 -0.0070 -0.2525  0.0131
52144SOL    HW168156   3.825   4.541  10.541 -0.0394  0.7750  0.4946
52144SOL    HW268157   3.974   4.518  10.526 -0.1632  0.3620 -0.1680
52145SOL     OW68158  10.972   6.153   9.264  0.3954  0.3829  0.0140
52145SOL    HW168159  10.901   6.188   9.209 -0.1304  0.3501  0.6655
52145SOL    HW268160  11.022   6.231   9.291  0.4296  0.4360 -0.1993
52146SOL     OW68161   6.205   9.466   4.866  0.3934  0.0292  0.4449
52146SOL    HW168162   6.253   9.467   4.948 -2.7848  0.8015  2.5078
52146SOL    HW268163   6.208   9.557   4.835  1.0953 -0.1389  0.0063
52147SOL     OW68164   7.547   1.038   7.789 -0.6537 -0.5594 -0.1365
52147SOL    HW168165   7.495   0.966   7.824 -0.3644 -1.0875 -0.7677
52147SOL    HW268166   7.620   0.995   7.743 -0.3781  0.1394 -0.3679
52148SOL     OW68167   4.868   4.113   5.712 -0.6675  0.0118 -0.1210
52148SOL    HW168168   4.883   4.177   5.642  0.4363  2.6699  2.3215
52148SOL    HW268169   4.802   4.154   5.767 -0.5609 -1.3871  1.0749
52149SOL     OW68170  10.858   3.286   1.592 -0.4525 -0.1614  0.1494
52149SOL    HW168171  10.852   3.256   1.502  1.0335 -1.5896  0.4771
52149SOL    HW268172  10.825   3.212   1.644  0.5300 -0.1143  0.8567
52150SOL     OW68173   4.016   6.394   2.705  0.4015 -0.4970  0.3803
52150SOL    HW168174   4.001   6.316   2.652  1.1777 -0.2352 -0.2405
52150SOL    HW268175   3.990   6.369   2.793  2.3331 -2.0610  0.5758
52151SOL     OW68176   4.861  10.044   6.783 -0.4794  0.1059  0.1059
52151SOL    HW168177   4.908   9.967   6.816  1.6448  1.6785  0.9530
52151SOL    HW268178   4.930  10.105   6.757 -2.1068  1.5056 -1.1423
52152SOL     OW68179   7.554   6.295   6.785  0.5323 -0.3468 -0.2924
52152SOL    HW168180   7.561   6.229   6.716 -0.9013  0.0199 -0.8122
52152SOL    HW268181   7.597   6.372   6.748 -0.6306 -0.0072 -0.9972
52153SOL     OW68182   3.582   4.270  11.140  0.3385  0.4286  0.5500
52153SOL    HW168183   3.581   4.332  11.067  0.0416  1.2598  1.2311
52153SOL    HW268184   3.653   4.301  11.196  0.2253  0.1125  0.8706
52154SOL     OW68185  11.115  10.029  10.640 -0.0030 -0.2684  0.1531
52154SOL    HW168186  11.100  10.107  10.585 -0.8131  0.9992  2.0705
52154SOL    HW268187  11.175  10.059  10.708  0.2986 -1.5606  0.4783
52155SOL     OW68188   6.706   1.168   0.600  0.1221  0.3558 -0.1357
52155SOL    HW168189   6.761   1.089   0.593 -0.0722  0.3006 -1.2811
52155SOL    HW268190   6.764   1.236   0.633  0.1889 -0.3578  1.2983
52156SOL     OW68191   0.763   5.790  10.134  0.2730  0.1820  0.7447
52156SOL    HW168192   0.798   5.877  10.116  0.4694  0.0445  0.4590
52156SOL    HW268193   0.683   5.806  10.185 -2.6049  0.8402 -3.4643
52157SOL     OW68194   3.894   9.120   0.338  0.0461  0.5969 -0.0416
52157SOL    HW168195   3.968   9.169   0.374  1.3561 -0.1241 -1.6243
52157SOL    HW268196   3.913   9.114   0.244 -1.5374 -0.4727 -0.3338
52158SOL     OW68197   3.937   8.209  11.874 -0.3092 -0.2546  0.2461
52158SOL    HW168198   3.879   8.135  11.891  1.3287 -1.7919 -0.6322
52158SOL    HW268199   3.956   8.205  11.780  0.3550  0.8736  0.3049
52159SOL     OW68200   7.363   8.460  11.914  0.1142 -0.1641  0.0717
52159SOL    HW168201   7.359   8.509  11.995  0.5967 -0.3442  0.2077
52159SOL    HW268202   7.312   8.512  11.851 -2.5007 -1.2504  1.1069
52160SOL     OW68203   1.076   3.474   6.170  0.3886 -0.5824  0.4734
52160SOL    HW168204   1.040   3.403   6.118  0.6926  0.4896 -1.2816
52160SOL    HW268205   1.009   3.542   6.169  2.1533  1.3166 -2.5861
52161SOL     OW68206   1.236   9.936   9.846  0.1340 -0.1099  0.4932
52161SOL    HW168207   1.189   9.915   9.927 -0.3727  1.3630  0.6196
52161SOL    HW268208   1.324   9.903   9.859  0.5251  1.4809  2.3323
52162SOL     OW68209   2.073  11.948   2.931 -0.0310 -1.0196  0.0990
52162SOL    HW168210   2.025  11.930   2.850  0.2826  1.6756 -0.7914
52162SOL    HW268211   2.013  12.000   2.984  1.1410  0.7271 -0.1965
52163SOL     OW68212   3.244  11.281   8.577  0.0080  0.2454  0.3773
52163SOL    HW168213   3.321  11.319   8.536  0.3213 -2.8045 -2.2784
52163SOL    HW268214   3.192  11.248   8.504 -3.0064  0.6578  2.1920
52164SOL     OW68215  10.507  11.928   4.532 -0.1933  0.8762  0.1797
52164SOL    HW168216  10.424  11.930   4.580 -1.3328  0.7573 -1.6823
52164SOL    HW268217  10.484  11.894   4.446  2.1155 -0.7964  0.1412
52165SOL     OW68218   1.629  10.236   6.597  0.1110 -0.2869 -0.2372
52165SOL    HW168219   1.695  10.171   6.617 -0.2991 -0.9138 -0.8699
52165SOL    HW268220   1.676  10.306   6.552 -0.0381 -2.0169 -3.3522
52166SOL     OW68221   6.491   3.244   3.476 -0.1407 -0.1746 -0.5345
52166SOL    HW168222   6.578   3.233   3.512 -0.0623 -1.6082 -1.0820
52166SOL    HW268223   6.483   3.338   3.459  0.0065  0.4942  2.5984
52167SOL     OW68224   1.524   7.585   7.866  0.6170  0.2417  0.2514
52167SOL    HW168225   1.544   7.566   7.774  1.6867 -0.1696  0.5541
52167SOL    HW268226   1.436   7.623   7.864  0.0759 -0.9771 -0.8099
52168SOL     OW68227   4.595  11.366   1.546  0.4384  0.6384  0.1179
52168SOL    HW168228   4.607  11.460   1.534  1.1284  0.9502  2.7388
52168SOL    HW268229   4.529  11.358   1.615 -0.7821 -0.8797 -1.1175
52169SOL     OW68230   7.445  11.023   1.032 -0.1495  0.3534 -0.0818
52169SOL    HW168231   7.386  11.088   1.071  0.0267  1.4393 -1.5469
52169SOL    HW268232   7.529  11.068   1.026  0.0104 -0.0538 -1.0045
52170SOL     OW68233   8.181  10.775   1.848  0.6590 -0.4083  0.0543
52170SOL    HW168234   8.240  10.819   1.787 -1.7443  0.1759 -2.0059
52170SOL    HW268235   8.105  10.832   1.853 -0.6721 -2.1618  0.8827
52171SOL     OW68236  11.729   3.919   9.897  0.3018  0.7576  0.2680
52171SOL    HW168237  11.695   3.846   9.845  0.2551  1.3877 -0.6003
52171SOL    HW268238  11.816   3.936   9.862  0.1344  1.4138  0.1683
52172SOL     OW68239   9.933   1.606  11.405 -0.4374  0.2827 -0.3390
52172SOL    HW168240   9.935   1.654  11.322  1.1287  0.4998 -0.1915
52172SOL    HW268241   9.940   1.674  11.472 -1.2334  0.0673 -0.0279
52173SOL     OW68242   2.406  10.337   7.602 -0.1444 -0.5357  0.1974
52173SOL    HW168243   2.439  10.361   7.515 -1.4680 -1.2995 -0.5328
52173SOL    HW268244   2.334  10.398   7.617  1.5090  1.1845  1.8303
52174SOL     OW68245   1.385   0.944   5.993 -0.1461  0.0113  0.4939
52174SOL    HW168246   1.391   0.975   6.084 -0.0656  0.4074  0.3589
52174SOL    HW268247   1.406   1.022   5.941  0.8536 -0.4690  0.1614
52175SOL     OW68248   1.715   3.322   1.066 -0.3426 -0.6440  0.2354
52175SOL    HW168249   1.634   3.271   1.072 -1.2702  0.5116 -1.5160
52175SOL    HW268250   1.685   3.413   1.072  1.0925 -0.2203  1.6556
52176SOL     OW68251   5.252   1.258   3.306 -0.4595 -0.2112 -0.1896
52176SOL    HW168252   5.286   1.199   3.238  0.6401 -1.5038  1.4103
52176SOL    HW268253   5.180   1.304   3.263  0.5317 -0.5784 -2.3830
52177SOL     OW68254   2.531   9.666   2.438 -0.4380 -0.2851 -0.2116
52177SOL    HW168255   2.557   9.718   2.361 -0.2331 -0.6649 -0.4034
52177SOL    HW268256   2.436   9.667   2.436 -0.4574  1.1866  0.5424
52178SOL     OW68257   1.045   4.309   4.260  0.5743 -0.7912  0.2369
52178SOL    HW168258   1.027   4.220   4.232 -1.3804 -0.1155 -0.8532
52178SOL    HW268259   0.967   4.335   4.309  0.6678  0.6343 -0.3229
52179SOL     OW68260   0.767   0.102  11.088 -0.3334  0.1876  0.0090
52179SOL    HW168261   0.723   0.185  11.071  1.9234  1.6218  0.5726
52179SOL    HW268262   0.722   0.066  11.165  0.4008  2.3893  1.5753
52180SOL     OW68263   8.769   4.080   8.184 -0.0055  0.0676  0.3402
52180SOL    HW168264   8.686   4.050   8.146 -0.6323  2.5149 -0.4146
52180SOL    HW268265   8.825   4.097   8.109  1.8731 -3.0710  0.8708
52181SOL     OW68266   0.497   2.088   9.538  0.0847 -1.1186  0.2212
52181SOL    HW168267   0.537   2.090   9.625 -0.2294  0.2296  0.3451
52181SOL    HW268268   0.533   2.164   9.493 -0.5829 -1.1956 -0.4647
52182SOL     OW68269   6.519   6.662   3.056  0.3078  0.3332 -0.1499
52182SOL    HW168270   6.499   6.638   3.147 -0.7673 -0.1943 -0.5184
52182SOL    HW268271   6.610   6.636   3.044  0.3340  0.0213  0.6488
52183SOL     OW68272  11.308  11.175   8.130  0.0452 -0.5867 -0.4194
52183SOL    HW168273  11.228  11.223   8.112  0.6064  0.9638  1.0053
52183SOL    HW268274  11.315  11.112   8.058 -1.7830  0.0786 -1.2259
52184SOL     OW68275   7.411   8.229  10.970 -0.1121 -0.1431 -0.6484
52184SOL    HW168276   7.422   8.173  11.047 -1.3954  1.4982  0.8100
52184SOL    HW268277   7.358   8.177  10.910  0.9261 -1.4630 -0.4721
52185SOL     OW68278   8.964   5.202  10.332  0.0558  0.0055  0.1432
52185SOL    HW168279   9.052   5.222  10.364 -0.0886  1.1120 -0.1195
52185SOL    HW268280   8.919   5.287  10.329 -0.4332 -0.2643 -1.4723
52186SOL     OW68281   4.741   6.133   1.591  0.0631 -0.2974  0.6535
52186SOL    HW168282   4.806   6.167   1.652  1.1608  0.2081 -0.7141
52186SOL    HW268283   4.736   6.040   1.611 -0.5672  0.0775  2.3299
52187SOL     OW68284   6.575  11.504   9.809  0.7537 -0.3621  0.5021
52187SOL    HW168285   6.513  11.459   9.866 -1.1594  0.1087 -1.0758
52187SOL    HW268286   6.548  11.596   9.812  1.6160 -0.0783  0.0494
52188SOL     OW68287   1.899   4.214   1.427 -0.6157  0.7096 -0.3335
52188SOL    HW168288   1.937   4.133   1.391 -2.5096 -0.4463  0.1324
52188SOL    HW268289   1.966   4.247   1.486 -1.2862 -2.8767  2.7972
52189SOL     OW68290   6.309   0.994   9.746  0.2076 -0.1134 -0.3927
52189SOL    HW168291   6.258   0.913   9.750  0.0604  0.0083  0.7086
52189SOL    HW268292   6.262   1.054   9.805  0.9134  0.4178 -0.3607
52190SOL     OW68293   9.523   1.266  10.515  0.0897  0.1001 -0.6465
52190SOL    HW168294   9.483   1.346  10.549  0.6903  0.4948 -0.8364
52190SOL    HW268295   9.540   1.212  10.593  0.9599  0.7632 -0.3558
52191SOL     OW68296  10.447  11.754   5.170  0.1448  0.0069 -0.2950
52191SOL    HW168297  10.489  11.713   5.246 -0.1068  1.0805  0.4566
52191SOL    HW268298  10.477  11.845   5.172  0.5159 -0.0635 -1.7850
52192SOL     OW68299   7.761   3.827   1.964  0.3084 -0.4792 -0.0973
52192SOL    HW168300   7.839   3.873   1.932  2.0296 -3.4262 -0.4937
52192SOL    HW268301   7.786   3.793   2.050 -0.9894 -0.4543  0.3160
52193SOL     OW68302   0.018   6.071   9.580  0.1863  0.0442 -0.0985
52193SOL    HW168303   0.093   6.029   9.622  3.1038  1.7296 -3.1611
52193SOL    HW268304  -0.019   6.003   9.523  0.7538 -0.1796 -0.2001
52194SOL     OW68305   3.655  11.552   9.880  0.4584  0.3782  0.5342
52194SOL    HW168306   3.718  11.603   9.930  2.3708  1.4262 -2.6363
52194SOL    HW268307   3.620  11.613   9.815 -1.5265 -0.9816  0.2322
52195SOL     OW68308  10.874  11.033  11.685 -0.5816 -0.1830  0.1579
52195SOL    HW168309  10.873  10.940  11.663 -0.8990 -0.2981  0.6383
52195SOL    HW268310  10.926  11.074  11.616 -0.7523 -0.6656 -0.2634
52196SOL     OW68311   9.257   6.967   4.778  0.3589  0.0126  0.3243
52196SOL    HW168312   9.201   6.930   4.710  0.8214 -0.7815  0.3649
52196SOL    HW268313   9.197   7.010   4.838 -0.0454  0.9513 -0.6997
52197SOL     OW68314   1.593   8.490   7.393 -0.3237  0.3752 -0.5737
52197SOL    HW168315   1.653   8.544   7.444 -2.0641  1.1590  0.7704
52197SOL    HW268316   1.625   8.400   7.405  1.4692  0.8760 -1.2390
52198SOL     OW68317   9.199   7.814   6.547 -0.0559  0.3871  0.2006
52198SOL    HW168318   9.144   7.762   6.488  1.1852  0.3456 -0.9467
52198SOL    HW268319   9.281   7.766   6.554  0.7324  1.6459 -0.0334
52199SOL     OW68320   7.013   2.196  10.545 -0.9777 -0.2274  0.4130
52199SOL    HW168321   7.076   2.268  10.554 -1.4930  0.5019 -1.3245
52199SOL    HW268322   7.064   2.117  10.562  0.0087  0.4413  0.6683
52200SOL     OW68323   2.340  10.223   8.886  0.1244 -0.3971 -0.2899
52200SOL    HW168324   2.330  10.272   8.803 -1.2149 -0.2486 -0.0778
52200SOL    HW268325   2.411  10.268   8.932 -0.0355  0.3866 -0.7752
52201SOL     OW68326   4.304   1.661   0.124 -0.0901 -0.6071  0.0123
52201SOL    HW168327   4.226   1.611   0.148 -1.3270  0.8968 -0.6387
52201SOL    HW268328   4.346   1.609   0.056 -0.0851 -1.8097  0.9107
52202SOL     OW68329   5.390   6.548   7.060 -0.3331 -0.1420  0.4332
52202SOL    HW168330   5.370   6.621   7.002  2.1904 -0.7539 -1.3739
52202SOL    HW268331   5.480   6.562   7.088  0.4080 -2.7393 -0.3424
52203SOL     OW68332   3.618   5.604   9.591 -0.2827 -0.0173 -0.0062
52203SOL    HW168333   3.693   5.604   9.531 -1.2442 -1.1012 -1.2381
52203SOL    HW268334   3.593   5.696   9.598  1.3687  0.4289  0.7450
52204SOL     OW68335  10.560   3.883   6.697 -0.2567 -0.4628 -0.5551
52204SOL    HW168336  10.587   3.936   6.622  2.1473 -0.5709  0.1740
52204SOL    HW268337  10.475   3.847   6.671  0.2316 -0.0395 -2.9885
52205SOL     OW68338   9.494   6.461   5.687 -0.3035  0.4949 -1.0195
52205SOL    HW168339   9.420   6.400   5.694 -0.0546  0.3072  0.1898
52205SOL    HW268340   9.452   6.547   5.678 -0.6596  0.2428 -1.8341
52206SOL     OW68341   6.720   0.898   0.712 -0.4146  0.4428  0.4390
52206SOL    HW168342   6.757   0.955   0.780  0.6739 -1.3219  1.4061
52206SOL    HW268343   6.797   0.860   0.669 -1.1160 -0.0199 -0.4311
52207SOL     OW68344   5.311   4.980  10.766 -0.2852 -0.3237 -0.1268
52207SOL    HW168345   5.286   4.909  10.826  0.5158 -1.6565 -1.3190
52207SOL    HW268346   5.375   5.031  10.816 -0.1778 -0.9739  0.4196
52208SOL     OW68347   4.833   1.924   8.143  0.1365  0.1529  0.3752
52208SOL    HW168348   4.817   1.981   8.218  0.9697 -0.1380  0.7861
52208SOL    HW268349   4.880   1.849   8.179  1.1413  0.3129 -0.5367
52209SOL     OW68350   6.565   7.765   6.133 -0.0205 -0.0432  0.5571
52209SOL    HW168351   6.606   7.679   6.141  0.4334  0.2603  1.8005
52209SOL    HW268352   6.475   7.747   6.109 -0.0783 -0.9171  1.3639
52210SOL     OW68353   5.509   4.779   0.978 -0.1798 -0.1825  0.2985
52210SOL    HW168354   5.459   4.788   0.897  2.0801  1.1540 -1.0512
52210SOL    HW268355   5.537   4.687   0.978  0.7822  0.0686 -1.1181
52211SOL     OW68356   9.264   0.546   7.010 -0.7402 -0.4483  0.4568
52211SOL    HW168357   9.279   0.483   6.939  1.1048 -0.3406  0.7121
52211SOL    HW268358   9.177   0.581   6.992 -1.7758 -2.9212  0.1998
52212SOL     OW68359  11.722   3.698   8.590  0.8404 -0.1595 -0.3817
52212SOL    HW168360  11.699   3.693   8.497  1.1189 -0.2343 -0.4461
52212SOL    HW268361  11.638   3.712   8.635  0.1613 -3.5860 -0.3037
52213SOL     OW68362   1.779   8.351   7.752 -0.4836 -0.1702  0.3054
52213SOL    HW168363   1.756   8.277   7.695 -0.0989  0.7450 -1.1084
52213SOL    HW268364   1.696   8.390   7.777 -0.7351 -1.5706  1.7946
52214SOL     OW68365   5.508   9.524   2.580  0.0824  0.0955 -0.2629
52214SOL    HW168366   5.536   9.549   2.492  0.8836  1.2001  0.2756
52214SOL    HW268367   5.501   9.428   2.577  1.3166  0.0124 -1.1881
52215SOL     OW68368   3.142   3.984   2.653  0.7689  0.2236 -0.5193
52215SOL    HW168369   3.097   3.911   2.609  1.3715  0.9570 -2.4587
52215SOL    HW268370   3.230   3.984   2.615  1.0342  1.4410  0.0624
52216SOL     OW68371   8.407   0.576   0.871 -0.4452 -0.4543  0.2729
52216SOL    HW168372   8.416   0.611   0.960  1.4697 -1.8962  0.7169
52216SOL    HW268373   8.327   0.617   0.837 -0.0102  1.8738  1.8221
52217SOL     OW68374   5.591   0.554   5.663 -0.7512  0.5124  0.1741
52217SOL    HW168375   5.607   0.623   5.599 -0.9568 -0.3494 -0.8211
52217SOL    HW268376   5.586   0.601   5.747  1.5980  1.4376 -0.1185
52218SOL     OW68377   9.808   2.670   2.970  0.6588 -0.2090  0.1065
52218SOL    HW168378   9.876   2.605   2.950  0.5957 -0.4460  0.6291
52218SOL    HW268379   9.843   2.719   3.044  0.3745 -0.1596  0.2110
52219SOL     OW68380   8.039   6.932   6.139 -0.0961  0.3883  0.2725
52219SOL    HW168381   7.982   6.978   6.077 -0.1742  0.1039  0.1323
52219SOL    HW268382   7.992   6.937   6.222  0.0960  0.9328  0.3519
52220SOL     OW68383  10.263   6.253   4.172 -0.5474  0.0850 -0.2133
52220SOL    HW168384  10.318   6.294   4.239 -0.1302  0.4258 -0.7565
52220SOL    HW268385  10.253   6.320   4.104 -0.8582 -0.2974 -0.5511
52221SOL     OW68386   5.981   5.240  11.539 -0.0106  0.3301  0.2270
52221SOL    HW168387   5.935   5.157  11.530  0.6472 -0.0388  0.2129
52221SOL    HW268388   5.927   5.303  11.490 -0.0107 -0.2882 -0.5900
52222SOL     OW68389   0.774   7.585   9.258 -0.4696  0.0220  0.5587
52222SOL    HW168390   0.836   7.530   9.210 -1.5368  0.1288 -1.0108
52222SOL    HW268391   0.727   7.525   9.315 -1.5208 -0.7373 -1.0293
52223SOL     OW68392   1.227   1.608   6.695 -0.9319  0.2593 -0.0895
52223SOL    HW168393   1.184   1.588   6.779 -0.8694 -0.5128 -0.2334
52223SOL    HW268394   1.211   1.702   6.682  1.8045  1.2068  2.3658
52224SOL     OW68395   8.207   5.403   9.115 -0.3923 -0.2291  0.5282
52224SOL    HW168396   8.286   5.381   9.066 -0.4055  0.4495  0.1800
52224SOL    HW268397   8.162   5.320   9.128  0.5663 -0.6922  1.0765
52225SOL     OW68398   3.320   8.256  10.285  0.0199  0.1311  0.2914
52225SOL    HW168399   3.290   8.170  10.313  0.4115 -0.4559 -1.0296
52225SOL    HW268400   3.416   8.251  10.293  0.1525 -0.0918 -1.1827
52226SOL     OW68401   2.925   1.184   6.140 -0.1390  0.0110  0.1071
52226SOL    HW168402   2.949   1.220   6.225 -1.5299  1.5579 -0.1059
52226SOL    HW268403   2.843   1.228   6.118 -0.5198 -1.3902 -1.4115
52227SOL     OW68404  10.941  11.099   8.605 -1.0778  0.7144  0.2533
52227SOL    HW168405  10.866  11.109   8.546  0.3225 -1.2740 -2.0764
52227SOL    HW268406  10.990  11.180   8.595 -2.0498  1.3546  0.5260
52228SOL     OW68407   1.159   1.156   7.924 -0.6744 -0.2217 -0.0701
52228SOL    HW168408   1.073   1.182   7.956 -0.6689  0.4304 -0.5789
52228SOL    HW268409   1.158   1.060   7.929 -1.6701 -0.2595 -0.6806
52229SOL     OW68410   6.933   6.398   0.008  0.0582 -0.6853  0.1654
52229SOL    HW168411   7.009   6.342  -0.009 -0.3819 -1.0992 -0.4674
52229SOL    HW268412   6.924   6.398   0.104  1.9959  0.8976  0.4165
52230SOL     OW68413   9.845   5.641   9.486 -0.2025 -0.5531  0.8946
52230SOL    HW168414   9.915   5.701   9.462 -0.6638 -0.1097  0.6443
52230SOL    HW268415   9.795   5.628   9.405  0.3239 -1.8619  0.7507
52231SOL     OW68416  10.720   4.235  10.152  0.4512  0.1324  0.1643
52231SOL    HW168417  10.750   4.178  10.223  0.4354  1.0578  0.9321
52231SOL    HW268418  10.625   4.235  10.159  0.4903  0.9827  0.7577
52232SOL     OW68419   7.585   8.279   8.738 -0.2105  0.4024 -0.3239
52232SOL    HW168420   7.560   8.282   8.646 -2.0410  0.9196  0.1403
52232SOL    HW268421   7.670   8.234   8.739 -1.6805 -2.7140 -1.9649
52233SOL     OW68422   9.311   0.930   5.826 -0.2136  0.1595 -0.5225
52233SOL    HW168423   9.241   0.975   5.874 -1.6974 -2.8871  0.3688
52233SOL    HW268424   9.265   0.875   5.762  1.4694 -0.5691 -1.1613
52234SOL     OW68425   3.827   2.859  10.279  0.2769  0.7423 -0.0019
52234SOL    HW168426   3.833   2.857  10.184 -1.2667  2.0981 -0.1614
52234SOL    HW268427   3.787   2.775  10.302 -1.2891  1.2461 -0.7532
52235SOL     OW68428   5.578   7.804   4.343  0.0299  0.0079  0.2138
52235SOL    HW168429   5.629   7.783   4.265  1.8722  0.9558  1.0966
52235SOL    HW268430   5.603   7.894   4.364 -1.9086  0.4396  0.8103
52236SOL     OW68431   1.622   6.082   6.231 -0.0319  1.1603  0.1880
52236SOL    HW168432   1.671   6.118   6.305  0.2413  2.1278 -0.4624
52236SOL    HW268433   1.675   6.101   6.154 -0.8629  1.1906 -0.3968
52237SOL     OW68434   9.071   3.287   8.766 -0.1188  0.2554 -0.2686
52237SOL    HW168435   8.998   3.348   8.756 -0.1526  0.3133  0.3074
52237SOL    HW268436   9.133   3.333   8.822  0.5062  0.3297 -1.0147
52238SOL     OW68437   8.862   3.884   9.938 -0.3570  0.0345  0.1817
52238SOL    HW168438   8.890   3.962   9.985 -0.7607  0.0264  0.4386
52238SOL    HW268439   8.862   3.815  10.004 -0.1654 -0.1499 -0.0069
52239SOL     OW68440   9.996  10.999  11.557 -0.0622 -0.6400  0.3581
52239SOL    HW168441   9.979  11.067  11.492 -0.0532 -1.1615 -0.1990
52239SOL    HW268442   9.910  10.976  11.590 -0.1694 -1.0765 -0.2025
52240SOL     OW68443  10.785   6.634   1.018  0.1810  0.4888 -0.6534
52240SOL    HW168444  10.830   6.650   0.935 -0.6807 -0.1878 -1.2675
52240SOL    HW268445  10.695   6.614   0.993  0.5969 -2.9647  0.1737
52241SOL     OW68446  10.271   8.873  10.824 -0.0659  0.1808 -0.1625
52241SOL    HW168447  10.183   8.851  10.853  0.7145 -1.9304  0.8324
52241SOL    HW268448  10.270   8.857  10.729 -0.3623 -1.4826  0.0847
52242SOL     OW68449   5.297   3.807   9.037  0.0203  0.3314  0.7668
52242SOL    HW168450   5.382   3.827   8.999 -1.0827  0.8680 -1.6092
52242SOL    HW268451   5.254   3.892   9.046 -0.7219 -0.0322  0.7628
52243SOL     OW68452   0.367   8.870   1.967  0.5686  0.1941  0.1485
52243SOL    HW168453   0.301   8.858   2.035 -1.9925  2.4550 -1.6990
52243SOL    HW268454   0.328   8.831   1.888  1.1988  1.9642 -1.1088
52244SOL     OW68455  10.910  10.864   5.061  0.0673  0.7261  0.0027
52244SOL    HW168456  10.833  10.910   5.027  0.9410  2.2691  0.0654
52244SOL    HW268457  10.883  10.832   5.147 -0.7613  0.5501 -0.3168
52245SOL     OW68458   9.470   8.488   8.505  0.0081  0.0560  0.0124
52245SOL    HW168459   9.512   8.486   8.591  2.2341 -0.0644 -1.0070
52245SOL    HW268460   9.477   8.398   8.473 -0.2657  0.2252 -0.5337
52246SOL     OW68461   3.014   0.527   4.811  0.5590  0.2027  0.4015
52246SOL    HW168462   2.923   0.544   4.835  0.1841 -1.0930 -0.0315
52246SOL    HW268463   3.013   0.439   4.775  1.8742  0.4380 -0.2561
52247SOL     OW68464   8.125  10.289   5.997  0.2033 -0.0331  0.1081
52247SOL    HW168465   8.191  10.356   5.981 -0.1869  0.4483  0.5196
52247SOL    HW268466   8.041  10.336   5.996 -0.0579 -0.4758  0.5951
52248SOL     OW68467   0.459   3.779  11.465 -0.0041 -0.3578  0.3171
52248SOL    HW168468   0.501   3.694  11.449 -0.0188 -0.4048  0.5177
52248SOL    HW268469   0.496   3.807  11.549 -0.1290 -0.2461  0.3337
52249SOL     OW68470   0.099   5.275   6.424 -0.0063 -0.2094  0.3271
52249SOL    HW168471   0.114   5.264   6.330 -2.2728  4.4759 -0.8873
52249SOL    HW268472   0.183   5.307   6.457  0.3500 -0.2912 -0.4568
52250SOL     OW68473   7.847   8.253   7.465 -0.1553 -0.8047 -0.5954
52250SOL    HW168474   7.786   8.183   7.491 -1.0984  0.1288 -0.1998
52250SOL    HW268475   7.921   8.243   7.525  0.1397 -1.9986 -1.1235
52251SOL     OW68476   2.207  11.800   7.200  0.3213  0.3647  0.0020
52251SOL    HW168477   2.139  11.782   7.264 -1.2910 -1.7966 -2.1213
52251SOL    HW268478   2.286  11.760   7.237 -0.7944 -1.7174  0.2515
52252SOL     OW68479   4.421   1.885  10.245  0.2269  0.6157 -0.3728
52252SOL    HW168480   4.440   1.802  10.202  0.2265  1.0192 -1.1931
52252SOL    HW268481   4.505   1.930  10.249  0.2470  0.5255  0.1719
52253SOL     OW68482   8.244   3.679   8.655  0.1746 -0.0059 -0.1723
52253SOL    HW168483   8.234   3.722   8.570 -0.5452 -0.2153 -0.1999
52253SOL    HW268484   8.272   3.749   8.714 -1.0702  0.5537 -0.1974
52254SOL     OW68485   3.200   8.729  10.322 -0.0387 -0.5272  0.4980
52254SOL    HW168486   3.116   8.769  10.346 -0.0426 -1.0676  1.4621
52254SOL    HW268487   3.177   8.640  10.295  0.1310 -0.3750 -0.1726
52255SOL     OW68488   0.249   8.829   6.554  0.1264 -0.0955  0.0883
52255SOL    HW168489   0.259   8.865   6.466 -1.6534 -0.7625 -0.4288
52255SOL    HW268490   0.309   8.755   6.557  0.9750  0.5654 -0.1765
52256SOL     OW68491   0.788   1.895   9.240 -0.5274 -0.2185 -0.0520
52256SOL    HW168492   0.794   1.802   9.217 -0.1375 -0.0411 -0.6630
52256SOL    HW268493   0.713   1.899   9.300 -1.3506 -0.7391 -1.0175
52257SOL     OW68494   7.354   5.771   9.364  0.1658  0.1324  0.2466
52257SOL    HW168495   7.409   5.834   9.317 -0.2175 -0.0098 -0.4048
52257SOL    HW268496   7.362   5.796   9.456 -0.5265  1.5844 -0.0552
52258SOL     OW68497  11.392   5.078   5.338  0.2933 -0.0279  0.4687
52258SOL    HW168498  11.325   5.103   5.274  1.0735 -0.0807 -0.3906
52258SOL    HW268499  11.451   5.020   5.290  1.6855  1.0414  0.8221
52259SOL     OW68500   6.378   7.071  11.677 -0.5168  1.1573  1.1105
52259SOL    HW168501   6.473   7.060  11.682 -0.6028 -0.6863 -0.3143
52259SOL    HW268502   6.360   7.081  11.584 -2.0771 -3.9780  0.5171
52260SOL     OW68503   2.881   6.901   5.405  0.0725  0.3414 -0.0209
52260SOL    HW168504   2.917   6.914   5.493 -0.3281  1.0168  0.0480
52260SOL    HW268505   2.845   6.813   5.407  2.1397 -0.5635 -0.2408
52261SOL     OW68506   0.177   4.465   1.258  0.8136 -0.0551 -0.3042
52261SOL    HW168507   0.232   4.529   1.304  0.7283 -0.1601 -0.0526
52261SOL    HW268508   0.183   4.490   1.166  0.1485  0.8173 -0.1287
52262SOL     OW68509  11.360   4.651   2.715 -0.4418  0.5115 -0.3338
52262SOL    HW168510  11.382   4.687   2.629  2.0568  0.9050  0.3794
52262SOL    HW268511  11.346   4.728   2.770  1.1874  0.3801  0.3181
52263SOL     OW68512  10.670   7.675   3.840  0.6294 -0.2752  0.1265
52263SOL    HW168513  10.761   7.681   3.869  0.2337  2.4425  1.0802
52263SOL    HW268514  10.672   7.613   3.767  3.6083  1.1709 -1.1903
52264SOL     OW68515   7.016   7.656   2.114  0.3336  0.2477  0.2046
52264SOL    HW168516   7.040   7.749   2.107  1.5434 -0.0089  0.7250
52264SOL    HW268517   7.006   7.641   2.208  0.2709 -0.1836  0.1314
52265SOL     OW68518   3.082   6.947   5.189  0.6364 -0.1176  0.4360
52265SOL    HW168519   3.080   6.854   5.164  1.8218 -0.0231 -0.0951
52265SOL    HW268520   3.048   6.948   5.278  0.2829 -1.0213  0.3269
52266SOL     OW68521   4.827  11.061   9.891  0.0589 -0.3707 -0.0322
52266SOL    HW168522   4.769  11.073   9.966 -0.5514 -2.2016 -0.1493
52266SOL    HW268523   4.846  11.150   9.860 -3.5423  0.3119 -0.6398
52267SOL     OW68524   0.505  11.548   4.567 -0.3438  0.0666 -0.3842
52267SOL    HW168525   0.498  11.570   4.474  0.9234  1.4598 -0.1856
52267SOL    HW268526   0.433  11.596   4.609 -0.1231  0.4916 -0.4877
52268SOL     OW68527   2.587   8.288   4.202  0.3130  0.0773  0.0771
52268SOL    HW168528   2.624   8.347   4.136 -0.0460 -0.4610 -0.6159
52268SOL    HW268529   2.631   8.313   4.284  0.3543  1.1315 -0.2528
52269SOL     OW68530   9.539   4.376   0.213 -0.3932 -0.1604  0.3194
52269SOL    HW168531   9.536   4.281   0.224 -0.1267 -0.0554  1.4409
52269SOL    HW268532   9.632   4.397   0.220 -0.5523  0.2933  1.3032
52270SOL     OW68533  10.816  10.683   8.765  0.1186 -0.8079 -0.6106
52270SOL    HW168534  10.762  10.759   8.786  1.4428  0.2120 -0.6925
52270SOL    HW268535  10.768  10.636   8.697 -0.5612  0.1749 -0.8228
52271SOL     OW68536  10.366   9.659   1.665 -0.7027  0.0630  0.0738
52271SOL    HW168537  10.392   9.671   1.574  0.9516  2.2728  0.7427
52271SOL    HW268538  10.438   9.610   1.704 -0.4771  0.7960  0.5964
52272SOL     OW68539   9.255   9.228   8.805 -0.3010 -0.0038  0.6475
52272SOL    HW168540   9.221   9.224   8.715 -0.4196  0.3279  0.6757
52272SOL    HW268541   9.290   9.141   8.821  1.3406  0.4431 -0.3459
52273SOL     OW68542   9.032   8.223   6.577 -0.0221  0.6345 -0.1217
52273SOL    HW168543   8.953   8.266   6.609 -0.9256  0.0742 -1.4932
52273SOL    HW268544   9.103   8.282   6.602 -0.9688  1.6164  0.3352
52274SOL     OW68545   8.987   4.547   3.023  0.6147 -0.3170  0.0624
52274SOL    HW168546   8.968   4.629   2.977  0.5259  0.1893  0.9886
52274SOL    HW268547   9.080   4.554   3.046  0.3737 -0.0456  0.9838
52275SOL     OW68548   4.446  10.975   5.038  0.6112 -0.1462  0.0727
52275SOL    HW168549   4.470  10.961   4.946 -0.6934  2.7759 -0.8310
52275SOL    HW268550   4.356  10.945   5.044  0.7264 -0.4195  0.4273
52276SOL     OW68551   9.792   5.138   7.278 -0.2736 -0.5215 -0.0079
52276SOL    HW168552   9.865   5.139   7.216 -0.4560  1.3653 -0.2600
52276SOL    HW268553   9.833   5.141   7.364 -0.0541 -0.5372 -0.1110
52277SOL     OW68554   0.462   5.166   0.541 -0.7232 -0.2314 -0.0349
52277SOL    HW168555   0.477   5.221   0.618 -2.6095  1.2645 -0.6682
52277SOL    HW268556   0.521   5.202   0.475 -1.7241  0.8797 -0.3515
52278SOL     OW68557   4.997  11.314   0.663  0.3530 -0.1079  0.3438
52278SOL    HW168558   4.975  11.393   0.712  1.3440 -0.0436  0.7053
52278SOL    HW268559   4.916  11.292   0.617  0.0541  1.1133  0.2329
52279SOL     OW68560   3.300   8.658   4.717  0.1601 -0.1580  0.1044
52279SOL    HW168561   3.218   8.621   4.686 -0.5701  1.6941 -0.3449
52279SOL    HW268562   3.335   8.706   4.641  0.2512  1.3230  1.0296
52280SOL     OW68563   0.979   3.599   4.139 -0.0223 -0.2977 -0.0933
52280SOL    HW168564   0.905   3.655   4.116 -0.9175 -1.1848  0.5288
52280SOL    HW268565   1.013   3.568   4.055 -0.8915 -0.5493 -0.3605
52281SOL     OW68566   5.512  11.217   3.541  0.3547 -0.3000 -0.4691
52281SOL    HW168567   5.582  11.160   3.572  1.1818  0.3270 -1.1682
52281SOL    HW268568   5.549  11.265   3.467 -0.4515  0.8576 -0.1608
52282SOL     OW68569   5.676   5.132   1.731  0.3211 -0.2893  0.0777
52282SOL    HW168570   5.610   5.184   1.684 -0.3894 -0.2546  1.0768
52282SOL    HW268571   5.743   5.195   1.757  0.7330 -0.3132 -0.8893
52283SOL     OW68572   0.674   3.597   5.407  0.3415 -0.6205  0.4355
52283SOL    HW168573   0.612   3.624   5.339  1.1479  2.3950  0.7221
52283SOL    HW268574   0.624   3.604   5.489  1.0141  2.1774  0.7059
52284SOL     OW68575   8.579   7.587   5.792  0.1964  0.6182  0.1055
52284SOL    HW168576   8.519   7.575   5.866  0.4186 -0.8692  0.0703
52284SOL    HW268577   8.598   7.499   5.761  2.1118  1.0624 -0.1337
52285SOL     OW68578   5.014   0.650   2.804  0.4607  0.0250 -0.4486
52285SOL    HW168579   5.050   0.617   2.722 -0.3030 -0.7635 -0.4696
52285SOL    HW268580   4.966   0.729   2.779  1.8275  0.8943 -0.4708
52286SOL     OW68581   2.015   0.944   5.647 -0.1603 -0.0129  0.4380
52286SOL    HW168582   1.923   0.965   5.665 -0.0080  1.5335 -0.3700
52286SOL    HW268583   2.016   0.850   5.631 -1.5889 -0.0735  0.5918
52287SOL     OW68584  10.645   5.609  10.157  0.6215 -0.4527  0.3410
52287SOL    HW168585  10.716   5.555  10.121  1.0937  0.9419 -0.9162
52287SOL    HW268586  10.638   5.581  10.249  0.9470 -2.5088 -0.2168
52288SOL     OW68587   9.577   9.699   9.017  0.5730 -0.2380  0.4012
52288SOL    HW168588   9.641   9.630   9.035 -0.5523 -1.1265  1.1159
52288SOL    HW268589   9.582   9.710   8.922  1.2892 -0.7797  0.3595
52289SOL     OW68590   4.740   4.350   8.415  0.1756  0.0074  0.0534
52289SOL    HW168591   4.819   4.330   8.464  1.4998  0.1159 -1.9029
52289SOL    HW268592   4.699   4.422   8.463  1.1357 -0.1941  1.2210
52290SOL     OW68593   3.577  10.619   6.672 -0.8133  0.2541  0.0141
52290SOL    HW168594   3.670  10.599   6.660 -0.7118  0.3140  0.6618
52290SOL    HW268595   3.563  10.608   6.766 -1.8957 -1.6044 -0.3142
52291SOL     OW68596   1.121   7.451  10.281  0.2991 -0.8608 -0.3646
52291SOL    HW168597   1.101   7.474  10.372  0.6904 -0.9303 -0.2606
52291SOL    HW268598   1.139   7.536  10.239 -0.6324 -0.7514 -0.5687
52292SOL     OW68599   0.439  10.122   8.871  0.0906  0.8638 -0.3244
52292SOL    HW168600   0.494  10.087   8.940  0.2861  1.1229 -0.3458
52292SOL    HW268601   0.382  10.185   8.915 -0.1478  0.6410 -0.3124
52293SOL     OW68602   9.797   2.789   6.105  0.1821 -0.7169  0.5899
52293SOL    HW168603   9.712   2.807   6.065  0.7226  2.6467  0.6948
52293SOL    HW268604   9.781   2.798   6.199  0.7806  0.9863  0.5673
52294SOL     OW68605   6.843   1.813   1.360  0.1909 -0.9203  0.4546
52294SOL    HW168606   6.868   1.829   1.269 -0.1849 -3.0995 -0.0910
52294SOL    HW268607   6.840   1.718   1.368 -0.0121 -0.7947  2.7073
52295SOL     OW68608   4.326  10.151   0.656 -0.8880 -0.0664 -0.4860
52295SOL    HW168609   4.401  10.117   0.607 -0.8368  2.0433 -2.0487
52295SOL    HW268610   4.300  10.080   0.714 -0.5768 -2.5689 -3.1896
52296SOL     OW68611   6.256   2.847   0.844 -0.6311 -0.1600 -0.2206
52296SOL    HW168612   6.223   2.863   0.933 -1.5097  0.7478 -0.6887
52296SOL    HW268613   6.220   2.919   0.792  1.3474  0.3491 -0.9593
52297SOL     OW68614   9.470   1.881   3.303 -0.0463  0.1966  0.1722
52297SOL    HW168615   9.396   1.939   3.286  0.3586  0.6976  0.0787
52297SOL    HW268616   9.435   1.813   3.361 -0.8404 -0.1819 -0.7241
52298SOL     OW68617   2.102   7.284   5.421  1.2685  0.5967 -0.1518
52298SOL    HW168618   2.147   7.365   5.396  0.0241  1.2734 -0.2666
52298SOL    HW268619   2.084   7.293   5.514  0.4925  0.7884 -0.3097
52299SOL     OW68620   6.825   5.256   5.090  0.7912  0.2132  0.3662
52299SOL    HW168621   6.891   5.220   5.031  2.3149  1.4427  1.2565
52299SOL    HW268622   6.798   5.338   5.048 -0.6948 -0.5957 -0.3218
52300SOL     OW68623   5.293  10.980   4.561 -0.3542  0.4702 -0.0880
52300SOL    HW168624   5.205  10.958   4.531 -1.0121  2.6948  0.0346
52300SOL    HW268625   5.298  10.942   4.649 -1.1701  0.2839 -0.1106
52301SOL     OW68626   8.736   0.714   3.292 -0.2326  0.0125 -0.4204
52301SOL    HW168627   8.709   0.800   3.325  1.2019 -0.1010  1.1874
52301SOL    HW268628   8.655   0.674   3.260 -1.3672  0.9597  1.1486
52302SOL     OW68629   4.359  10.809   9.924  0.1729 -0.6246 -0.7371
52302SOL    HW168630   4.266  10.823   9.940  0.3265  0.3146 -0.5916
52302SOL    HW268631   4.362  10.740   9.857 -0.5453 -2.5155  1.0731
52303SOL     OW68632   3.947  11.100   0.604  0.1334 -0.2126 -0.4601
52303SOL    HW168633   3.920  11.160   0.534 -1.9157 -0.1657  0.3275
52303SOL    HW268634   3.895  11.126   0.680  1.5021 -0.9941  0.7880
52304SOL     OW68635   5.149   6.922  10.165  0.2424  0.4884 -0.0674
52304SOL    HW168636   5.152   6.838  10.212 -0.4794  1.1086  1.1244
52304SOL    HW268637   5.085   6.909  10.096 -1.9672  0.8420  1.7939
52305SOL     OW68638   3.416   3.151   7.277  0.3711  0.0365 -0.1986
52305SOL    HW168639   3.433   3.063   7.244  2.0679 -0.0063  0.6832
52305SOL    HW268640   3.366   3.137   7.357  1.2660 -0.1893  0.3349
52306SOL     OW68641   5.839   9.424   6.511  0.6037 -0.5626  0.5929
52306SOL    HW168642   5.911   9.428   6.448  0.1312  0.2814  0.0782
52306SOL    HW268643   5.773   9.483   6.474 -0.4256 -1.4743  0.9607
52307SOL     OW68644   7.822   5.279  10.895 -0.3443  0.3758  0.1226
52307SOL    HW168645   7.735   5.278  10.856  0.6652 -1.1748 -2.3314
52307SOL    HW268646   7.863   5.357  10.858 -0.0091 -0.0657 -0.4533
52308SOL     OW68647   5.218   1.505   0.812  0.1097 -0.1670  1.0978
52308SOL    HW168648   5.214   1.409   0.810  1.0748 -0.2238 -1.8714
52308SOL    HW268649   5.130   1.531   0.840 -1.6871 -1.9453 -2.2366
52309SOL     OW68650   6.270  11.948  10.011 -0.1664  0.1185  0.4552
52309SOL    HW168651   6.322  11.880  10.055  0.6093  1.0770  1.0508
52309SOL    HW268652   6.334  11.997   9.958 -0.9281 -0.4064 -1.0146
52310SOL     OW68653   3.588   0.516   4.549 -0.1271 -0.2722  0.3528
52310SOL    HW168654   3.640   0.575   4.495 -0.5990 -0.3312 -0.1764
52310SOL    HW268655   3.502   0.513   4.506 -0.3720 -0.6722  0.8546
52311SOL     OW68656  11.750   1.421   6.764  0.8771 -0.0554 -0.0666
52311SOL    HW168657  11.716   1.435   6.852 -0.6980 -1.9525 -0.2956
52311SOL    HW268658  11.840   1.392   6.777  0.5963 -0.5160  0.9544
52312SOL     OW68659   5.315   0.136   8.419  0.1082 -0.0534  0.1252
52312SOL    HW168660   5.286   0.190   8.346  0.0485  1.8406  1.4729
52312SOL    HW268661   5.348   0.056   8.379 -1.3056  0.2917 -1.8454
52313SOL     OW68662   5.383   9.077   6.910  0.1138  0.1990  0.1559
52313SOL    HW168663   5.374   9.085   6.815 -3.1276 -1.6188  0.1646
52313SOL    HW268664   5.357   9.162   6.945 -1.6274 -0.0000 -0.5582
52314SOL     OW68665   8.898   3.768   4.622  0.0280  0.6081 -0.1429
52314SOL    HW168666   8.909   3.804   4.534 -0.4374  2.2660  0.4401
52314SOL    HW268667   8.855   3.683   4.609  1.8644 -0.1667 -1.6115
52315SOL     OW68668   8.435   7.404   1.097 -0.1093  0.1318 -0.4494
52315SOL    HW168669   8.518   7.449   1.080  0.4953 -0.9358 -0.4068
52315SOL    HW268670   8.446   7.364   1.183 -0.5508 -0.2852 -0.5803
52316SOL     OW68671   5.474   5.963  11.355  0.1357  0.0346 -0.1683
52316SOL    HW168672   5.458   5.874  11.387 -1.8455  0.5218  0.3633
52316SOL    HW268673   5.528   6.004  11.422 -0.3477 -0.2785  0.4277
52317SOL     OW68674   3.078   1.586   0.949  0.0684 -0.7113  0.5958
52317SOL    HW168675   3.087   1.530   0.873  0.2691 -0.7298  0.6327
52317SOL    HW268676   2.996   1.633   0.935  0.2421 -0.5137  0.2394
52318SOL     OW68677   7.774   7.547   8.192 -0.2188  0.1939  0.3238
52318SOL    HW168678   7.767   7.629   8.240 -0.5320  1.7985 -2.2270
52318SOL    HW268679   7.863   7.516   8.210 -0.3576  0.6511  1.9320
52319SOL     OW68680  10.189   8.047   7.200  0.4104 -0.2931  0.2165
52319SOL    HW168681  10.176   7.958   7.168  0.9276 -0.7800  1.3145
52319SOL    HW268682  10.154   8.103   7.130  2.0789 -1.2686 -1.5000
52320SOL     OW68683   4.378   0.380   4.949  0.6781  0.0140 -0.1576
52320SOL    HW168684   4.464   0.382   4.991  0.2890  0.1570  0.6592
52320SOL    HW268685   4.319   0.418   5.014 -0.6008 -3.0965  0.6887
52321SOL     OW68686   9.262  11.207   5.559  0.5621 -0.0509 -0.0598
52321SOL    HW168687   9.253  11.148   5.484 -0.8081 -0.9752  0.7763
52321SOL    HW268688   9.310  11.157   5.625  1.7255  0.7398 -0.2699
52322SOL     OW68689   9.432   5.603   4.856 -0.2324  0.1861 -0.5470
52322SOL    HW168690   9.510   5.652   4.883  0.1183 -0.3907 -0.5057
52322SOL    HW268691   9.464   5.542   4.790 -0.5433 -0.4391 -0.1248
52323SOL     OW68692  10.362   7.795   8.573  0.5327  0.3892 -0.1951
52323SOL    HW168693  10.311   7.773   8.495  0.3918  1.3268 -0.3824
52323SOL    HW268694  10.432   7.852   8.539  1.4089 -0.4796  0.1293
52324SOL     OW68695   0.607  10.684   8.326  0.1514 -0.4220 -0.0395
52324SOL    HW168696   0.534  10.686   8.388  0.0638 -1.1424 -0.1162
52324SOL    HW268697   0.621  10.776   8.302  0.2030 -0.1236  1.0717
52325SOL     OW68698   1.915   3.252  11.790 -0.4459  0.0383  0.4120
52325SOL    HW168699   1.847   3.226  11.728  0.9729 -1.2373 -0.6975
52325SOL    HW268700   1.917   3.182  11.855  0.0056 -0.1165  0.2419
52326SOL     OW68701   4.790   4.794   3.609  0.0496  0.0400  0.3126
52326SOL    HW168702   4.781   4.765   3.519 -1.1723 -0.1507  0.4866
52326SOL    HW268703   4.876   4.836   3.612  0.1068  0.0396 -0.9304
52327SOL     OW68704   6.136   7.827  11.343  0.1929  0.1163  0.5218
52327SOL    HW168705   6.140   7.913  11.302 -1.7740 -0.3260 -0.7747
52327SOL    HW268706   6.221   7.788  11.326  1.6116  2.2144  2.2636
52328SOL     OW68707   6.417   6.812  10.792 -0.4649 -0.0354 -0.2576
52328SOL    HW168708   6.383   6.899  10.775  1.0265  0.4402 -0.9693
52328SOL    HW268709   6.402   6.763  10.711 -0.3537 -0.1178 -0.2301
52329SOL     OW68710   6.338   7.763   1.725 -0.0108  0.1610 -0.2276
52329SOL    HW168711   6.265   7.704   1.743 -1.5607  1.6223 -1.4234
52329SOL    HW268712   6.301   7.830   1.668  2.1815  1.1987 -0.5212
52330SOL     OW68713   5.485  11.660   5.618  0.4134 -0.4563  0.1841
52330SOL    HW168714   5.516  11.687   5.532 -2.0080  1.9619 -0.0819
52330SOL    HW268715   5.416  11.596   5.599 -0.2459  0.2111  0.2558
52331SOL     OW68716   9.730   2.584  11.218 -0.6054 -0.1243  0.1698
52331SOL    HW168717   9.648   2.610  11.260 -0.5070  0.6701 -0.1149
52331SOL    HW268718   9.770   2.667  11.190 -0.1928 -0.5804 -0.6060
52332SOL     OW68719   6.579   2.187   0.143  0.2724 -0.2991  0.4041
52332SOL    HW168720   6.539   2.128   0.207  0.1374  0.8667  1.4336
52332SOL    HW268721   6.665   2.148   0.126 -0.3604 -1.5414 -0.0240
52333SOL     OW68722   1.231   1.788   3.403 -0.5976 -0.8320  0.4078
52333SOL    HW168723   1.289   1.797   3.327  0.4148  0.6794  1.2936
52333SOL    HW268724   1.291   1.767   3.476 -1.2605 -0.2031  1.1592
52334SOL     OW68725   9.962   7.814   1.162 -0.3403 -0.1898  0.4711
52334SOL    HW168726  10.007   7.832   1.245  2.3312 -1.7602 -0.4949
52334SOL    HW268727   9.945   7.900   1.124 -1.3001  0.5519  2.4484
52335SOL     OW68728  10.763   4.511   5.903 -1.1426  0.0524 -0.7065
52335SOL    HW168729  10.848   4.553   5.917  1.0202 -3.7871 -1.0135
52335SOL    HW268730  10.718   4.520   5.988  0.9957 -0.6328  0.5797
52336SOL     OW68731   6.465   9.975   8.232 -0.0249 -0.3855  0.2558
52336SOL    HW168732   6.544   9.953   8.182 -1.2846 -1.5102 -1.3479
52336SOL    HW268733   6.464   9.911   8.303  0.5990 -0.2497  0.3923
52337SOL     OW68734   4.339   0.481   6.004 -0.0082  0.1252 -0.0373
52337SOL    HW168735   4.363   0.435   5.923  0.3246  1.8582 -0.9865
52337SOL    HW268736   4.413   0.466   6.063  0.3636 -0.0812 -0.5466
52338SOL     OW68737   1.019   5.554   5.448 -0.1695 -0.5937  0.2978
52338SOL    HW168738   1.066   5.600   5.517 -1.5282  0.4035  0.5958
52338SOL    HW268739   1.086   5.504   5.402  0.9693 -0.1716  1.4579
52339SOL     OW68740  11.573   3.782   0.900 -0.1457  0.3753  0.6356
52339SOL    HW168741  11.636   3.827   0.844 -1.2764 -0.5974 -1.5366
52339SOL    HW268742  11.618   3.703   0.929 -0.3512 -0.4283 -1.0852
52340SOL     OW68743   2.750   0.469   4.452  0.0101  0.0438 -0.1749
52340SOL    HW168744   2.712   0.486   4.366 -2.0984  0.5212  0.7775
52340SOL    HW268745   2.787   0.553   4.479  1.2941 -0.2769 -0.8653
52341SOL     OW68746   1.503   3.654   7.063  0.1018  0.3954  0.0230
52341SOL    HW168747   1.574   3.683   7.006  0.8307 -0.9860  0.1869
52341SOL    HW268748   1.424   3.670   7.012  0.6113  0.8443 -0.6461
52342SOL     OW68749   5.077   9.906   6.271  0.1896  0.0472  0.6026
52342SOL    HW168750   5.127   9.830   6.302 -0.3361 -0.7848 -0.5478
52342SOL    HW268751   5.138   9.953   6.214  0.8506  1.0835  2.0709
52343SOL     OW68752   4.763   0.383   1.738 -0.1587 -0.0873 -0.5776
52343SOL    HW168753   4.788   0.422   1.654 -0.3917 -0.6537 -0.9167
52343SOL    HW268754   4.796   0.293   1.733 -0.2876 -0.1647 -0.1130
52344SOL     OW68755   9.939   4.678   6.404 -0.0242 -0.7154  0.4663
52344SOL    HW168756  10.025   4.663   6.364 -0.4685 -1.7725 -0.1292
52344SOL    HW268757   9.945   4.766   6.442  1.0521 -0.4598 -0.2614
52345SOL     OW68758   5.119   9.725   9.267  0.3824 -0.6369 -0.1207
52345SOL    HW168759   5.044   9.713   9.325 -1.1893 -0.7571 -2.0419
52345SOL    HW268760   5.176   9.650   9.286  1.0005  0.4546  2.6768
52346SOL     OW68761   1.569   6.120   4.541 -0.5653  0.0990  0.0855
52346SOL    HW168762   1.573   6.073   4.458  0.9228  1.3751 -0.6111
52346SOL    HW268763   1.646   6.177   4.541 -1.3527  1.2656  1.6501
52347SOL     OW68764   5.067   5.522   3.426 -0.1384 -0.6049 -0.2091
52347SOL    HW168765   5.068   5.582   3.352 -0.0576 -3.4027 -2.7032
52347SOL    HW268766   4.975   5.496   3.435 -0.1120 -0.4612  0.5306
52348SOL     OW68767   8.490   7.962  11.694  0.8800 -0.4984  0.3017
52348SOL    HW168768   8.482   8.054  11.667  0.5361 -0.4925  0.4169
52348SOL    HW268769   8.520   7.966  11.785 -1.2992 -0.4421  1.0764
52349SOL     OW68770   9.347   5.294   2.123 -0.4528 -0.1376  0.6400
52349SOL    HW168771   9.431   5.265   2.089  0.1425 -0.9704  2.6802
52349SOL    HW268772   9.368   5.342   2.204 -1.8880  0.2808  0.8103
52350SOL     OW68773   3.350  10.090   5.907 -0.4374 -0.4036 -0.0155
52350SOL    HW168774   3.434  10.044   5.903 -0.8857 -1.2708  0.3321
52350SOL    HW268775   3.366  10.173   5.861  0.3655 -0.9308 -0.7239
52351SOL     OW68776  10.353   1.616   7.296 -0.2026 -0.0645 -0.5273
52351SOL    HW168777  10.307   1.611   7.380 -0.6782 -0.9052 -0.8321
52351SOL    HW268778  10.446   1.605   7.319 -0.1135  1.5681  0.0789
52352SOL     OW68779   7.273   5.214   2.962 -0.1858 -0.7444  0.4400
52352SOL    HW168780   7.360   5.225   2.924  0.6497  0.0261  2.3957
52352SOL    HW268781   7.226   5.294   2.938  0.5752  0.0745  1.5460
52353SOL     OW68782   0.296   4.442   2.724 -0.6767  0.3506  0.0286
52353SOL    HW168783   0.265   4.399   2.803 -1.1140 -0.3575 -0.5161
52353SOL    HW268784   0.374   4.393   2.699  0.2847  1.4317  0.7684
52354SOL     OW68785   1.953   2.366   9.890  0.5270  0.0152  0.4511
52354SOL    HW168786   1.891   2.305   9.930  0.4764  0.3580  0.9038
52354SOL    HW268787   1.994   2.316   9.819  1.1879 -0.8690  1.4157
52355SOL     OW68788   8.468   9.125   9.997 -0.3898  0.1766  0.4439
52355SOL    HW168789   8.387   9.147  10.043 -0.7238 -0.0706 -0.0059
52355SOL    HW268790   8.439   9.068   9.925 -0.3979  3.2032 -2.1806
52356SOL     OW68791   7.450   6.186   8.631  0.0010  0.1193  0.7768
52356SOL    HW168792   7.538   6.200   8.668  0.0903  1.4988  0.0918
52356SOL    HW268793   7.400   6.263   8.658 -0.2053  0.6954 -1.1327
52357SOL     OW68794   2.868   8.382   3.247  0.4783  0.3066 -0.2266
52357SOL    HW168795   2.840   8.291   3.236 -1.5087  0.6584  1.3746
52357SOL    HW268796   2.929   8.380   3.321  1.6719  0.1114 -1.1751
52358SOL     OW68797  10.565   2.680  11.907  0.3708  0.1641 -0.3755
52358SOL    HW168798  10.516   2.600  11.926  0.2810 -0.1795 -1.9418
52358SOL    HW268799  10.643   2.673  11.962  1.3468 -2.0137 -1.8643
52359SOL     OW68800   2.328   9.521  11.619  0.2129  0.2219 -0.0993
52359SOL    HW168801   2.350   9.461  11.548  1.8714  1.0180 -0.2972
52359SOL    HW268802   2.312   9.605  11.576 -1.9822 -0.0048  0.1846
52360SOL     OW68803   4.214   7.159   7.716  1.0780  0.5484 -0.0285
52360SOL    HW168804   4.302   7.154   7.679  1.8099 -2.0898  1.8261
52360SOL    HW268805   4.224   7.208   7.797  0.5248  1.4593 -0.4888
52361SOL     OW68806  11.784   3.126   9.966  0.3807 -0.0008  0.0303
52361SOL    HW168807  11.733   3.187  10.020 -1.5535 -0.5502 -1.0709
52361SOL    HW268808  11.783   3.164   9.879  0.1665 -1.0053 -0.4225
52362SOL     OW68809   9.796   5.753   1.752  0.2865  0.1945  0.3678
52362SOL    HW168810   9.729   5.766   1.685 -1.1135 -1.0662  1.4559
52362SOL    HW268811   9.805   5.839   1.793  0.4275  0.7285 -0.7240
52363SOL     OW68812   8.021   9.542   6.920 -0.5085  0.5675 -0.3684
52363SOL    HW168813   7.976   9.491   6.987  0.0235 -0.6522 -0.9041
52363SOL    HW268814   7.951   9.580   6.867 -0.9225 -0.0705 -0.2877
52364SOL     OW68815   1.240   9.637   7.878  1.0808 -0.2601  0.1881
52364SOL    HW168816   1.326   9.671   7.852  0.9136  0.1996  0.2226
52364SOL    HW268817   1.210   9.697   7.946  0.5993 -0.2311 -0.0401
52365SOL     OW68818   1.505   1.644   0.019 -0.1320  0.0130  0.0328
52365SOL    HW168819   1.425   1.648  -0.034 -1.9373 -0.0377  2.5786
52365SOL    HW268820   1.483   1.583   0.090  2.4116 -0.4678  0.4835
52366SOL     OW68821   6.389  11.210   3.276 -0.0928  0.2858  0.1362
52366SOL    HW168822   6.315  11.163   3.238 -1.7171  2.6735  0.1341
52366SOL    HW268823   6.458  11.144   3.283 -2.0878 -1.9699 -0.1483
52367SOL     OW68824   0.830   3.672   9.628  0.7919  0.2199 -0.3856
52367SOL    HW168825   0.906   3.727   9.648 -0.3870  1.5079  0.7742
52367SOL    HW268826   0.861   3.612   9.560  2.0393  2.6263 -2.1026
52368SOL     OW68827  11.211   4.400   6.072 -0.7440  0.0251  0.3289
52368SOL    HW168828  11.197   4.386   5.978 -4.0226  0.8561  0.5676
52368SOL    HW268829  11.214   4.312   6.109  0.6054 -0.3134 -0.5117
52369SOL     OW68830   9.587   0.169  11.263 -0.2646  0.0471 -0.0526
52369SOL    HW168831   9.633   0.151  11.346 -0.1725  1.1138  0.1372
52369SOL    HW268832   9.594   0.264  11.252 -0.6104 -0.0431 -1.0963
52370SOL     OW68833   3.771   5.438   4.926 -0.4610 -0.3459 -0.0476
52370SOL    HW168834   3.795   5.522   4.885  0.0482 -1.0278 -1.1910
52370SOL    HW268835   3.800   5.447   5.017 -0.0091  0.5506 -0.2661
52371SOL     OW68836  11.818   0.075   6.635 -0.4224  0.0581  0.4206
52371SOL    HW168837  11.816   0.152   6.578  1.7234 -0.2935 -0.2475
52371SOL    HW268838  11.731   0.070   6.674 -0.7730  2.5089  0.0745
52372SOL     OW68839   9.150   2.670   6.590 -0.6829  0.2626 -0.1457
52372SOL    HW168840   9.093   2.612   6.539 -2.7442  1.5686  0.5328
52372SOL    HW268841   9.159   2.748   6.536 -0.1018  0.3400  0.0581
52373SOL     OW68842   8.775   0.845   7.683  1.1502  0.3129 -0.5590
52373SOL    HW168843   8.760   0.938   7.699  1.9200  0.2021  1.0032
52373SOL    HW268844   8.867   0.841   7.656  1.3412 -0.0556  0.1264
52374SOL     OW68845  10.342   4.513   6.112  0.2217  0.4122  0.5391
52374SOL    HW168846  10.328   4.423   6.084 -1.8083  0.8818 -0.1866
52374SOL    HW268847  10.435   4.529   6.100  0.6349 -1.6024  0.7977
52375SOL     OW68848   9.068   2.904   6.110 -0.1858  0.1128 -0.1516
52375SOL    HW168849   9.040   2.993   6.131  0.2830  0.1092  0.5236
52375SOL    HW268850   9.163   2.911   6.100 -0.3694  0.0924 -2.2144
52376SOL     OW68851   2.141   1.542   9.562 -0.1754 -0.4540 -0.4814
52376SOL    HW168852   2.073   1.514   9.501 -0.3929  0.4311 -0.6670
52376SOL    HW268853   2.098   1.543   9.648 -0.0558 -1.0593 -0.4138
52377SOL     OW68854   0.114   6.699  10.936  1.0050  0.3818  0.2065
52377SOL    HW168855   0.057   6.736  11.003  0.7169  0.1224  0.1086
52377SOL    HW268856   0.083   6.609  10.926  1.4896  0.2127  0.2134
52378SOL     OW68857   7.866   8.952   2.746 -0.2158  0.5937 -0.3699
52378SOL    HW168858   7.879   8.981   2.836  0.1632  0.9199 -0.5263
52378SOL    HW268859   7.952   8.959   2.706  0.0596 -1.3938 -0.2440
52379SOL     OW68860  11.120   6.256   0.545  0.3160 -0.3320 -0.1703
52379SOL    HW168861  11.173   6.234   0.469  0.0728  0.7938 -0.6817
52379SOL    HW268862  11.152   6.198   0.614 -0.2533 -2.2112 -1.4173
52380SOL     OW68863   2.607   3.341  10.895 -0.4935  0.5793  0.0127
52380SOL    HW168864   2.669   3.270  10.909  0.8954  1.4553 -1.3491
52380SOL    HW268865   2.571   3.325  10.808 -1.6763  0.4576  0.5133
52381SOL     OW68866   5.915   8.425  11.095 -0.5264  0.2155 -0.0015
52381SOL    HW168867   5.862   8.347  11.081 -0.8187  0.3109  0.5489
52381SOL    HW268868   5.857   8.498  11.072 -0.2626  0.2747 -0.4903
52382SOL     OW68869   2.509   3.025   4.082 -0.3770 -0.0941  0.0686
52382SOL    HW168870   2.555   3.044   4.000  1.5736 -1.9050  0.6551
52382SOL    HW268871   2.524   3.102   4.137  0.6136  0.0225 -0.3432
52383SOL     OW68872   2.550   1.687   1.852  0.3734 -0.7342 -0.5688
52383SOL    HW168873   2.643   1.669   1.845  0.2188 -2.5115  1.1672
52383SOL    HW268874   2.507   1.615   1.806 -0.1794 -0.4789 -0.4697
52384SOL     OW68875  11.704   4.470   1.414 -0.2234  0.2180 -0.0333
52384SOL    HW168876  11.734   4.392   1.367 -0.6864 -0.6058  0.9977
52384SOL    HW268877  11.754   4.469   1.496  1.0903  2.0233 -0.7612
52385SOL     OW68878   5.462   8.909   6.333 -0.1525  0.4739 -0.0339
52385SOL    HW168879   5.535   8.968   6.349  0.1552  0.5903 -1.7617
52385SOL    HW268880   5.405   8.956   6.273 -0.4384 -0.5682 -0.6042
52386SOL     OW68881  11.021   5.471   5.810 -0.1712  0.1343 -0.0992
52386SOL    HW168882  11.112   5.451   5.788  0.2352  2.2441 -0.5579
52386SOL    HW268883  11.026   5.514   5.895 -0.8100 -0.2973  0.1613
52387SOL     OW68884   4.874   9.995   1.892  0.2073 -0.0073  0.5404
52387SOL    HW168885   4.896   9.980   1.984 -0.2031  0.3347  0.6979
52387SOL    HW268886   4.927   9.931   1.844  1.1155  0.4234  0.9425
52388SOL     OW68887   7.268   3.606   4.374 -0.2052  0.5933  0.0426
52388SOL    HW168888   7.172   3.603   4.382 -0.3980  0.0106 -1.8680
52388SOL    HW268889   7.286   3.565   4.289  1.8227 -0.1373  0.7629
52389SOL     OW68890   8.913   2.805  10.282  0.0978  0.3715 -0.1139
52389SOL    HW168891   8.849   2.795  10.212 -0.2067  0.1599  0.1932
52389SOL    HW268892   8.954   2.890  10.266 -0.1008  0.4036 -0.4426
52390SOL     OW68893   2.357   4.609   9.124 -0.3259  0.5248  0.3246
52390SOL    HW168894   2.289   4.567   9.177 -1.1826 -0.2341 -1.2775
52390SOL    HW268895   2.314   4.625   9.039  0.5972  2.8273  0.2115
52391SOL     OW68896  10.901   6.358   1.425  0.1190  0.0761  0.4102
52391SOL    HW168897  10.810   6.378   1.406  0.1898 -0.9899 -1.2228
52391SOL    HW268898  10.951   6.419   1.371  0.3539 -0.6693 -0.2233
52392SOL     OW68899   8.684   9.853   7.368 -0.4157 -0.4675  0.1541
52392SOL    HW168900   8.754   9.896   7.319 -0.5492  0.5760  0.8401
52392SOL    HW268901   8.702   9.760   7.360  0.7129 -0.2310 -0.1701
52393SOL     OW68902   7.765   8.216   2.840  0.8099  0.2807 -0.0040
52393SOL    HW168903   7.690   8.160   2.862 -0.1252  1.7372  0.6403
52393SOL    HW268904   7.838   8.179   2.890 -0.3223  0.9836  2.3079
52394SOL     OW68905  10.403   2.451   4.242 -0.1705 -0.2567 -0.2551
52394SOL    HW168906  10.497   2.466   4.243 -0.3215  1.3002 -2.2734
52394SOL    HW268907  10.393   2.356   4.251  1.6725 -0.5956 -1.3614
52395SOL     OW68908   2.504   8.040   9.289 -0.2388 -0.3467  0.3080
52395SOL    HW168909   2.483   8.000   9.373 -1.1591  1.4581  0.9997
52395SOL    HW268910   2.420   8.072   9.256  0.5131  1.7246  0.2397
52396SOL     OW68911   7.495   7.641   7.675 -0.2275 -0.6585  0.1529
52396SOL    HW168912   7.408   7.679   7.689  0.1830  0.2476  0.3079
52396SOL    HW268913   7.528   7.624   7.763  0.5462  0.8724  0.1902
52397SOL     OW68914   0.990   7.397   9.788 -0.6309 -0.5371 -0.0816
52397SOL    HW168915   0.934   7.319   9.786 -1.7808  0.2807 -0.8321
52397SOL    HW268916   1.079   7.363   9.784 -1.1394 -1.7570 -2.6227
52398SOL     OW68917   1.944   2.739   0.062  0.3326 -0.3464  0.1371
52398SOL    HW168918   2.027   2.759   0.105  1.0309  1.0400 -1.7106
52398SOL    HW268919   1.932   2.645   0.074  1.0067 -0.2029  2.3488
52399SOL     OW68920   5.146   2.290   9.258  0.4749  0.3065  0.4975
52399SOL    HW168921   5.209   2.253   9.196  0.0659  0.1591  0.1616
52399SOL    HW268922   5.199   2.321   9.331  0.8721 -0.5371  0.5819
52400SOL     OW68923   4.281   0.893   4.231  0.2920 -0.0672  0.2076
52400SOL    HW168924   4.334   0.815   4.218  1.1586  0.4320  0.6192
52400SOL    HW268925   4.342   0.966   4.217  0.0811  0.5201  2.0338
52401SOL     OW68926   8.870   5.831  10.737 -0.7434 -0.3024  0.2530
52401SOL    HW168927   8.954   5.870  10.762 -1.0703 -0.6479  1.9975
52401SOL    HW268928   8.834   5.891  10.672  0.0772  0.7619  0.7500
52402SOL     OW68929   8.309   9.074   7.763  0.8110  0.6723  0.5734
52402SOL    HW168930   8.270   9.049   7.680  2.6453 -0.9743  0.1322
52402SOL    HW268931   8.335   9.165   7.752 -0.6209  1.0469  0.0515
52403SOL     OW68932   2.208   3.956   7.429 -0.0319 -0.2985  0.0130
52403SOL    HW168933   2.248   4.031   7.383 -1.8732 -0.0177 -1.2653
52403SOL    HW268934   2.268   3.883   7.412  0.9281  0.5008 -0.1620
52404SOL     OW68935  10.090   7.258   6.610  0.8753  0.2674  0.0014
52404SOL    HW168936  10.114   7.308   6.532 -1.3657 -1.5133 -1.9925
52404SOL    HW268937  10.007   7.217   6.587  0.3257 -0.6645  3.2369
52405SOL     OW68938   9.831  10.979   6.787  0.5043  0.0694  0.2930
52405SOL    HW168939   9.916  11.014   6.761  0.9303  0.5611  2.1826
52405SOL    HW268940   9.824  10.896   6.740  0.9094  1.1181 -1.7709
52406SOL     OW68941   2.088   1.741   5.963  0.3721 -0.4393 -0.0312
52406SOL    HW168942   2.124   1.671   5.908 -0.0312 -0.9631  0.3524
52406SOL    HW268943   2.045   1.801   5.902 -1.8529 -2.0611 -0.1811
52407SOL     OW68944   5.094   9.885   2.534  0.2363  0.3126 -0.2859
52407SOL    HW168945   5.178   9.880   2.488  0.7588  1.2063  0.5394
52407SOL    HW268946   5.066   9.794   2.542  1.1059  0.0019 -0.6044
52408SOL     OW68947  11.065   0.824   7.440 -0.2102  0.3327 -0.2135
52408SOL    HW168948  11.112   0.811   7.357 -0.7483 -0.5112 -0.3913
52408SOL    HW268949  11.043   0.917   7.440 -0.3237  0.3141 -1.0826
52409SOL     OW68950   8.532   0.376   9.030  0.1856 -0.3577 -0.2355
52409SOL    HW168951   8.523   0.362   8.936  0.4603  0.9133 -0.4735
52409SOL    HW268952   8.624   0.399   9.042  0.3053 -1.1535  0.4388
52410SOL     OW68953   0.251   9.053   8.875  0.3584 -0.6245  0.1836
52410SOL    HW168954   0.246   9.128   8.935  1.5960 -1.0675  0.8707
52410SOL    HW268955   0.244   9.092   8.788  1.5397  0.3755  0.5064
52411SOL     OW68956   3.518   3.342   4.233 -0.0938 -0.1291  0.3359
52411SOL    HW168957   3.484   3.282   4.166 -0.1435 -0.1502  0.3795
52411SOL    HW268958   3.506   3.429   4.195  1.1147 -0.1947 -0.2513
52412SOL     OW68959   1.558   4.174   7.618  0.1663 -0.0474 -0.2056
52412SOL    HW168960   1.507   4.200   7.694  0.9821 -0.1032  0.3752
52412SOL    HW268961   1.607   4.253   7.594 -0.5684  0.1568 -1.0799
52413SOL     OW68962   7.803   8.335   4.836 -0.6167 -0.4523  0.0424
52413SOL    HW168963   7.850   8.414   4.811  1.2566 -1.2090  1.0005
52413SOL    HW268964   7.869   8.266   4.835 -1.3164 -1.2958  2.8758
52414SOL     OW68965   9.968   7.922  11.956 -0.1839  0.0105  0.1162
52414SOL    HW168966   9.941   7.877  11.876  1.6455  3.1115 -2.4625
52414SOL    HW268967  10.032   7.863  11.996 -0.4896 -1.2339 -1.1362
52415SOL     OW68968   8.267   2.096   9.813 -0.0597  0.7493 -0.8469
52415SOL    HW168969   8.274   2.097   9.908 -2.5031  1.0280 -0.6094
52415SOL    HW268970   8.304   2.012   9.787  0.0182  0.3756  0.4084
52416SOL     OW68971  11.351   9.196   7.421 -0.4666  0.1230 -0.7003
52416SOL    HW168972  11.297   9.118   7.425 -0.4925  0.1484 -0.5769
52416SOL    HW268973  11.337   9.240   7.504  0.8381 -0.5946 -0.0636
52417SOL     OW68974  10.482   9.109   3.674  0.1647  0.3092  0.1209
52417SOL    HW168975  10.567   9.065   3.678 -0.4135 -1.3734 -2.8849
52417SOL    HW268976  10.457   9.121   3.766  1.8445 -2.7850  1.1310
52418SOL     OW68977   2.364   8.820   2.222 -0.4040  0.2927  0.9178
52418SOL    HW168978   2.284   8.834   2.273 -0.2803 -0.2009  1.2601
52418SOL    HW268979   2.433   8.816   2.288 -0.5591 -3.1703  1.0549
52419SOL     OW68980   2.533   8.520  11.788  0.3530  0.2294  0.4164
52419SOL    HW168981   2.526   8.450  11.723 -0.7298 -1.3471  2.1464
52419SOL    HW268982   2.450   8.566  11.783 -0.1267 -0.4988  1.2842
52420SOL     OW68983   0.561   3.524   2.007 -0.1572 -0.3826 -0.3860
52420SOL    HW168984   0.561   3.433   2.036 -2.0256  0.0446  1.1866
52420SOL    HW268985   0.471   3.554   2.020  0.8691  2.3801  1.5408
52421SOL     OW68986   1.973   7.227   9.114  0.0756 -0.8138  0.6156
52421SOL    HW168987   1.982   7.231   9.019  0.0299 -1.4865  0.5740
52421SOL    HW268988   2.057   7.256   9.148 -0.3175  0.6664  0.4103
52422SOL     OW68989  10.133   4.404   9.000  0.3073 -0.4541 -0.1485
52422SOL    HW168990  10.096   4.321   8.969 -0.4845 -0.1479 -0.0444
52422SOL    HW268991  10.057   4.455   9.028  0.7742  0.3644 -0.3446
52423SOL     OW68992   4.343   0.453   4.253  0.1201  0.2967  0.2201
52423SOL    HW168993   4.265   0.448   4.308 -0.8322  1.2389 -0.9886
52423SOL    HW268994   4.319   0.408   4.172  0.8751  0.4764 -0.1180
52424SOL     OW68995   1.266   3.040   4.033  0.4768 -0.2573 -0.2317
52424SOL    HW168996   1.339   3.078   3.984  0.0330  0.6661 -0.2164
52424SOL    HW268997   1.283   2.946   4.033  1.4074 -0.1050 -0.6396
52425SOL     OW68998   4.258   4.236   2.884 -0.5035 -0.3193 -0.0915
52425SOL    HW168999   4.192   4.195   2.940  1.8870 -1.7593  1.8882
52425SOL    HW269000   4.311   4.287   2.944  0.1962  0.8566 -1.6389
52426SOL     OW69001  11.825   8.360   6.861  0.3832  0.2501 -0.3703
52426SOL    HW169002  11.884   8.421   6.817  0.2326  0.9217  0.3504
52426SOL    HW269003  11.762   8.336   6.793  1.8964 -1.0938 -1.3955
52427SOL     OW69004   3.185   3.728   2.997  0.0239  0.0636 -0.0797
52427SOL    HW169005   3.258   3.680   3.037  0.2746 -0.5267 -1.2134
52427SOL    HW269006   3.201   3.820   3.021 -0.7486 -0.4020  2.5710
52428SOL     OW69007   6.142   2.582   8.077  0.0417  0.2031  0.2084
52428SOL    HW169008   6.217   2.535   8.112 -0.9679 -0.8485  1.0558
52428SOL    HW269009   6.142   2.666   8.121  0.9173  0.3522 -0.0709
52429SOL     OW69010   0.859   4.094   7.194  0.0632  0.4908 -0.0309
52429SOL    HW169011   0.781   4.132   7.235 -1.4437 -1.4662 -0.9282
52429SOL    HW269012   0.824   4.038   7.125  2.2568 -1.0319  0.0163
52430SOL     OW69013   6.631   3.071  10.717  0.5508 -0.0218  0.2794
52430SOL    HW169014   6.585   3.034  10.793 -0.8272  1.0411  0.0046
52430SOL    HW269015   6.579   3.043  10.642 -1.8283  3.9229  0.1451
52431SOL     OW69016   6.301   4.195   4.918 -0.0473  0.0382 -0.4064
52431SOL    HW169017   6.276   4.149   4.838  0.8903 -0.2158 -0.5744
52431SOL    HW269018   6.384   4.238   4.896 -0.2916  0.8043  0.1240
52432SOL     OW69019   0.121  10.640   8.286 -0.0473 -0.1347  0.0600
52432SOL    HW169020   0.212  10.671   8.287  0.3953 -1.3654  0.0107
52432SOL    HW269021   0.123  10.559   8.337 -1.1237 -0.1673  0.0643
52433SOL     OW69022   1.746   7.447  11.538 -0.0471  0.5639  0.2884
52433SOL    HW169023   1.754   7.483  11.450  1.1064  1.0587  0.5682
52433SOL    HW269024   1.712   7.520  11.591 -0.1109  0.4690  0.3786
52434SOL     OW69025   3.679  10.277   5.123 -0.0848  0.3462  0.2218
52434SOL    HW169026   3.696  10.303   5.213 -1.3809 -0.1509  0.6327
52434SOL    HW269027   3.614  10.207   5.129 -2.9167  2.6111 -1.1795
52435SOL     OW69028  10.175   0.455   8.553  0.5194  0.3645 -0.1839
52435SOL    HW169029  10.171   0.525   8.488 -0.1069 -0.0865 -0.6492
52435SOL    HW269030  10.236   0.392   8.516  0.2188  0.1409 -0.3039
52436SOL     OW69031   1.244   6.678   2.726  0.2190  0.6403  0.7510
52436SOL    HW169032   1.194   6.748   2.768  0.7987  0.9153  0.9860
52436SOL    HW269033   1.333   6.689   2.758  0.6097  0.6534 -0.2911
52437SOL     OW69034   9.524   1.216   0.203  0.2785 -0.4224  0.0522
52437SOL    HW169035   9.577   1.234   0.281  0.6885 -1.5786  0.0625
52437SOL    HW269036   9.478   1.134   0.224  0.1110 -0.5493 -0.7774
52438SOL     OW69037   5.411   2.918   3.540 -0.2680 -0.0096  0.2373
52438SOL    HW169038   5.398   2.852   3.609 -2.6109  0.5480  0.4014
52438SOL    HW269039   5.331   2.970   3.541  0.1198  0.7518 -2.1627
52439SOL     OW69040   0.714   6.372   6.378  0.2857  0.8964  1.0730
52439SOL    HW169041   0.684   6.461   6.397 -0.6923  0.8309 -0.0547
52439SOL    HW269042   0.763   6.381   6.296  0.1774  0.3977  0.9543
52440SOL     OW69043   9.483   4.596   6.680 -0.1976  0.3307 -0.1304
52440SOL    HW169044   9.573   4.627   6.692  0.6492 -2.1387  0.4041
52440SOL    HW269045   9.477   4.571   6.588  0.3126 -1.2896  0.2499
52441SOL     OW69046   9.549   6.269  10.607  0.0344  0.1697  0.1956
52441SOL    HW169047   9.621   6.332  10.616 -0.9755  1.5660 -1.0231
52441SOL    HW269048   9.572   6.216  10.531  0.1638  0.0651  0.3067
52442SOL     OW69049   3.205   5.142   9.107  0.1529  0.2877  0.0991
52442SOL    HW169050   3.153   5.185   9.175 -0.5159  0.2181 -0.3629
52442SOL    HW269051   3.260   5.080   9.155 -0.8840 -0.3342  0.5113
52443SOL     OW69052   7.739   1.828   5.088 -0.0052 -0.2131 -0.0235
52443SOL    HW169053   7.728   1.761   5.155 -2.0201  1.6966  1.7201
52443SOL    HW269054   7.663   1.818   5.031 -0.9072  1.1218  0.8626
52444SOL     OW69055   4.330   3.212   6.410 -0.2551  0.1593  0.6447
52444SOL    HW169056   4.256   3.262   6.377 -0.3376 -0.0138  0.5637
52444SOL    HW269057   4.300   3.177   6.494 -0.1726  0.3058  0.7345
52445SOL     OW69058   8.522   5.202   3.888 -0.4222 -0.1417 -0.0136
52445SOL    HW169059   8.617   5.202   3.899 -0.5291  0.6296  1.0965
52445SOL    HW269060   8.488   5.220   3.976 -1.5042  2.0568 -0.8081
52446SOL     OW69061   5.958   4.394   9.754  0.0150  0.0919  0.2234
52446SOL    HW169062   6.031   4.456   9.754  0.6224 -0.6078 -0.0889
52446SOL    HW269063   5.919   4.404   9.841  0.8621  0.0416  0.6205
52447SOL     OW69064  11.160   1.061   6.183 -0.1402  0.1685  0.1575
52447SOL    HW169065  11.173   1.116   6.259  0.5607  1.1437 -0.6419
52447SOL    HW269066  11.175   0.972   6.215 -0.7957  0.4636  1.3519
52448SOL     OW69067   9.762   5.751   0.100  0.0154 -0.1645 -0.1863
52448SOL    HW169068   9.699   5.698   0.149 -2.0448  1.3061 -1.0861
52448SOL    HW269069   9.802   5.807   0.166 -1.1428  0.2821  0.1745
52449SOL     OW69070   5.217  10.097   3.001 -0.0264 -0.6703  0.4944
52449SOL    HW169071   5.157  10.162   3.038 -0.2695 -1.7346  2.0603
52449SOL    HW269072   5.168  10.057   2.930 -0.7412 -0.7149  1.0034
52450SOL     OW69073   5.182  10.296   4.761 -0.1508  0.4869 -0.4436
52450SOL    HW169074   5.213  10.266   4.847  0.6887 -0.8899 -1.1889
52450SOL    HW269075   5.196  10.391   4.762  0.1570  0.4469  0.8035
52451SOL     OW69076   8.827   3.474  11.250 -0.3440  0.7966  0.8475
52451SOL    HW169077   8.894   3.504  11.189  0.6157  0.2154  1.5883
52451SOL    HW269078   8.788   3.555  11.284  0.6043  1.1704  1.0826
52452SOL     OW69079   0.211   3.322   2.007 -0.2875 -0.1664 -0.1178
52452SOL    HW169080   0.131   3.314   2.059 -0.2125 -3.6941 -0.3558
52452SOL    HW269081   0.187   3.294   1.919  1.3633 -2.3731  0.0558
52453SOL     OW69082   8.721   1.530   9.967  0.5709 -0.1409  0.0828
52453SOL    HW169083   8.641   1.570  10.001  2.0683  1.5806  1.8296
52453SOL    HW269084   8.705   1.519   9.873 -1.1530  1.5764  0.1313
52454SOL     OW69085   1.428   3.210  10.810  0.1448  0.6063 -0.0140
52454SOL    HW169086   1.404   3.293  10.851  0.3581  0.4207  0.4978
52454SOL    HW269087   1.514   3.227  10.770  0.1528  0.6530  0.0225
52455SOL     OW69088   3.859  11.451   6.628  0.0463 -0.4625 -0.7042
52455SOL    HW169089   3.789  11.483   6.684  0.1308 -3.1188  1.0849
52455SOL    HW269090   3.819  11.381   6.576  1.4487 -2.8424  1.1858
52456SOL     OW69091   5.614   6.547   0.964  0.6664 -0.0288 -0.2471
52456SOL    HW169092   5.666   6.508   0.894  0.7757  0.3640 -0.3897
52456SOL    HW269093   5.661   6.627   0.988 -0.0234  0.5102 -0.6093
52457SOL     OW69094   9.451   4.509   1.503 -0.5074  0.5060 -0.0785
52457SOL    HW169095   9.405   4.509   1.419 -0.1109 -0.3871 -0.3046
52457SOL    HW269096   9.447   4.600   1.532  0.3544  1.0722 -1.6090
52458SOL     OW69097   6.479   3.551   3.186  0.1181  0.3494  0.3551
52458SOL    HW169098   6.531   3.536   3.265 -0.2869 -0.6543  0.4472
52458SOL    HW269099   6.474   3.647   3.178  2.4020  0.4900  0.0413
52459SOL     OW69100   9.626   6.036   8.083  0.0302  0.3930 -0.5464
52459SOL    HW169101   9.710   6.073   8.109 -0.3612  0.0089  1.3629
52459SOL    HW269102   9.565   6.063   8.151 -1.2587  0.0817 -1.5353
52460SOL     OW69103   8.491  10.097   1.651 -0.6571  0.0546 -0.7821
52460SOL    HW169104   8.518  10.007   1.666  1.0215  0.4452 -1.1613
52460SOL    HW269105   8.425  10.092   1.583 -0.7769 -0.9057 -0.6090
52461SOL     OW69106   9.841   1.488   1.581  0.5926  0.1950 -0.2749
52461SOL    HW169107   9.872   1.569   1.623  2.9749 -0.7489 -0.0154
52461SOL    HW269108   9.807   1.516   1.496  0.5250  1.5702  0.1808
52462SOL     OW69109   6.995  10.209   0.440  0.1357 -0.1927 -0.0555
52462SOL    HW169110   7.071  10.265   0.428  1.0773 -1.5979 -1.0075
52462SOL    HW269111   6.927  10.267   0.474  1.0104  1.5420 -1.1120
52463SOL     OW69112   6.991   6.791  10.492  0.1011 -0.2635  0.1083
52463SOL    HW169113   7.058   6.803  10.426  1.0337  0.0208  1.0835
52463SOL    HW269114   7.022   6.841  10.568 -0.0770 -1.9475  1.3674
52464SOL     OW69115   1.438   3.399   3.723  0.0025 -0.0672 -0.6025
52464SOL    HW169116   1.403   3.451   3.795  0.9472  2.4173 -1.8334
52464SOL    HW269117   1.509   3.348   3.762  1.1604  1.9750  0.0887
52465SOL     OW69118   3.558   0.189   7.692  0.2999 -0.1150  0.2447
52465SOL    HW169119   3.480   0.226   7.734 -0.0138  1.3974 -1.5192
52465SOL    HW269120   3.525   0.114   7.642  0.5568 -1.4679  2.0163
52466SOL     OW69121   8.362   7.767   6.565  0.0145  0.4764  0.8098
52466SOL    HW169122   8.329   7.754   6.476  1.2138 -1.4233  0.5833
52466SOL    HW269123   8.453   7.737   6.562 -0.0066  0.0685  2.7426
52467SOL     OW69124   4.647   7.645   2.084  0.4921 -0.3721 -0.8899
52467SOL    HW169125   4.601   7.593   2.150  2.1026  0.4835  0.9884
52467SOL    HW269126   4.740   7.630   2.102  0.9821  1.7201 -1.4504
52468SOL     OW69127   5.277   7.709  10.916  0.0766  0.3970  0.4261
52468SOL    HW169128   5.246   7.787  10.962 -1.1056  0.3210 -0.2036
52468SOL    HW269129   5.200   7.654  10.905  0.9823 -1.1217  1.2946
52469SOL     OW69130   9.724   3.869   0.952  0.1571 -0.0826  0.1273
52469SOL    HW169131   9.808   3.825   0.940  0.0124 -0.4710  0.4777
52469SOL    HW269132   9.659   3.798   0.946 -0.3008  0.4457 -1.9394
52470SOL     OW69133   5.857  10.284   8.382  0.6692  0.1534  0.2550
52470SOL    HW169134   5.927  10.219   8.376 -0.0139 -0.5538 -0.1632
52470SOL    HW269135   5.898  10.366   8.352  1.7940  0.1536  1.6682
52471SOL     OW69136   9.263   9.786   1.402 -0.0449 -0.2288 -0.3893
52471SOL    HW169137   9.299   9.831   1.478  0.5200  0.2998 -0.9511
52471SOL    HW269138   9.241   9.856   1.341  1.3759 -0.6868 -1.5173
52472SOL     OW69139   8.357  10.796   4.783  0.3729 -0.2815  0.2911
52472SOL    HW169140   8.423  10.834   4.840  0.9793 -0.4062 -0.3120
52472SOL    HW269141   8.395  10.801   4.696 -1.1871  1.3441 -0.3473
52473SOL     OW69142  10.307   4.551   7.894 -0.2021  0.5853 -0.3444
52473SOL    HW169143  10.311   4.618   7.825  1.6192  2.8352  1.7155
52473SOL    HW269144  10.352   4.592   7.968 -2.4605 -1.4957  2.3649
52474SOL     OW69145   7.584   3.769   5.636  0.1163  0.2293  0.1728
52474SOL    HW169146   7.548   3.850   5.598  1.3201  1.2726  1.1793
52474SOL    HW269147   7.641   3.734   5.568 -2.6963 -1.5296 -1.5145
52475SOL     OW69148   2.187   5.772   2.542 -0.3568  0.1149 -0.1261
52475SOL    HW169149   2.186   5.681   2.571 -2.1341 -0.1914 -1.0006
52475SOL    HW269150   2.262   5.812   2.587  0.4052 -1.7465  0.3246
52476SOL     OW69151   9.037  11.425  11.373  0.6627  0.1865 -0.4132
52476SOL    HW169152   9.013  11.516  11.356 -2.5336 -0.4395  0.1707
52476SOL    HW269153   9.122  11.431  11.417  0.3986  2.9002 -0.0743
52477SOL     OW69154   3.257   8.751   1.759  0.3984 -0.6039 -0.1104
52477SOL    HW169155   3.265   8.729   1.666  1.5362  1.1277 -0.4800
52477SOL    HW269156   3.213   8.836   1.760  0.0721 -0.7666  0.9666
52478SOL     OW69157   0.127  11.422  10.898 -0.7711  0.2336 -0.4055
52478SOL    HW169158   0.068  11.354  10.865 -1.6936  0.1937  1.2148
52478SOL    HW269159   0.070  11.497  10.914 -0.5911 -0.0408  1.9146
52479SOL     OW69160   4.503   6.786   3.112 -0.1301 -0.3909 -0.0250
52479SOL    HW169161   4.420   6.746   3.138  0.6969 -1.6143  0.8188
52479SOL    HW269162   4.566   6.715   3.114  0.9591  0.5207 -0.6304
52480SOL     OW69163  11.437   0.452  11.317  0.0460 -0.5445 -0.1976
52480SOL    HW169164  11.409   0.426  11.230  1.4029  0.3620 -0.9449
52480SOL    HW269165  11.376   0.522  11.342 -0.7826 -1.2801 -0.0840
52481SOL     OW69166   3.768  11.498   6.121  0.0550  0.1454 -0.1787
52481SOL    HW169167   3.793  11.407   6.108  1.9827  0.7911 -1.5224
52481SOL    HW269168   3.705  11.517   6.052  0.7391  0.1893 -0.8022
52482SOL     OW69169   6.603   4.594   3.265  0.8339  0.2877 -0.4788
52482SOL    HW169170   6.624   4.570   3.176 -0.0913 -1.0261 -0.3710
52482SOL    HW269171   6.556   4.677   3.257 -1.8293 -1.2088 -1.5436
52483SOL     OW69172   5.257  10.066   3.632 -0.6505  0.5492  0.7676
52483SOL    HW169173   5.318  10.013   3.580 -1.9397  0.1760 -0.4174
52483SOL    HW269174   5.291  10.155   3.624 -0.5535  0.4265 -0.3359
52484SOL     OW69175   7.532   6.765   9.383 -0.2779  0.3810 -0.2574
52484SOL    HW169176   7.537   6.750   9.477  1.0621  0.1225 -0.3549
52484SOL    HW269177   7.459   6.710   9.354  0.8701 -1.4963  0.2634
52485SOL     OW69178   8.439  10.841   1.009 -0.2757  0.4452  0.0277
52485SOL    HW169179   8.366  10.882   0.964 -1.4431 -0.4182  1.0794
52485SOL    HW269180   8.403  10.760   1.045  1.3130 -0.2239  0.1865
52486SOL     OW69181   9.137   2.429   8.825 -0.4378  0.0782 -0.2073
52486SOL    HW169182   9.098   2.400   8.743  1.4272 -0.3534 -0.9967
52486SOL    HW269183   9.164   2.519   8.808 -2.2740  0.8729  0.8012
52487SOL     OW69184   8.932  11.915   1.181  0.1111 -0.1837 -0.1400
52487SOL    HW169185   9.007  11.882   1.132 -0.7739 -0.7158 -1.1762
52487SOL    HW269186   8.891  11.837   1.218 -0.6864 -0.0563 -0.7153
52488SOL     OW69187   4.491  10.451   2.112 -0.1363  0.1687  0.3677
52488SOL    HW169188   4.529  10.521   2.060 -0.2838 -1.1419 -1.6185
52488SOL    HW269189   4.523  10.466   2.201  1.0289  1.8686 -0.3043
52489SOL     OW69190  10.846   5.392  10.579  0.3591  0.4020  0.0976
52489SOL    HW169191  10.888   5.306  10.567 -1.3647 -0.3985 -0.5264
52489SOL    HW269192  10.861   5.414  10.671 -0.4331 -1.2900  0.6715
52490SOL     OW69193   6.026   3.597  10.588 -0.5137  0.1726  0.6382
52490SOL    HW169194   6.005   3.546  10.666 -1.1244  1.0791  1.0807
52490SOL    HW269195   5.979   3.679  10.599  1.7965  1.5845  0.7802
52491SOL     OW69196   8.240   3.682   2.665 -0.0993 -0.1532 -0.4355
52491SOL    HW169197   8.164   3.738   2.682 -0.9431 -1.5396  0.6522
52491SOL    HW269198   8.202   3.598   2.638  1.0907 -0.5491 -0.9524
52492SOL     OW69199   5.377   9.294   2.447 -0.7654 -0.4234  0.3496
52492SOL    HW169200   5.400   9.261   2.534  0.0889 -0.7824  0.0021
52492SOL    HW269201   5.412   9.228   2.387  0.5921  0.8706 -0.3418
52493SOL     OW69202   8.948  10.421   8.091 -0.4792 -0.9876 -0.0681
52493SOL    HW169203   8.970  10.502   8.046 -1.6299 -1.0712 -0.8281
52493SOL    HW269204   8.856  10.432   8.116 -0.5385 -1.9050  0.1435
52494SOL     OW69205   1.956   0.692   2.222 -0.3311  0.1491 -0.0910
52494SOL    HW169206   1.891   0.655   2.281  0.9411  0.4516  1.5866
52494SOL    HW269207   2.038   0.686   2.270  0.6830  0.9117 -1.6345
52495SOL     OW69208   9.576   6.562   4.200  0.2024 -0.2440 -0.1853
52495SOL    HW169209   9.563   6.498   4.270 -1.0041 -1.9091 -1.8321
52495SOL    HW269210   9.662   6.540   4.162  1.3077  1.2754  1.3075
52496SOL     OW69211   5.646   4.290   3.970 -0.0751 -0.2672 -0.6532
52496SOL    HW169212   5.555   4.282   3.997  0.2434  0.2170  0.6538
52496SOL    HW269213   5.688   4.210   4.002 -0.0981 -0.6715 -1.5903
52497SOL     OW69214   8.676   8.193   8.417  0.2757 -0.4867  0.0030
52497SOL    HW169215   8.732   8.153   8.351  2.1332  1.9662 -0.0573
52497SOL    HW269216   8.727   8.187   8.498 -1.4044 -2.2841  0.9945
52498SOL     OW69217   4.385  10.878   4.111 -0.4809 -0.1966  0.3755
52498SOL    HW169218   4.424  10.792   4.123 -0.0626  0.0560  0.8731
52498SOL    HW269219   4.337  10.872   4.029  0.1650 -0.6766  0.0289
52499SOL     OW69220   6.130   0.482  11.256  0.2436  0.3066  0.0966
52499SOL    HW169221   6.189   0.483  11.331  2.1672  0.8802 -1.3512
52499SOL    HW269222   6.094   0.570  11.252 -0.3070  0.1151  0.6501
52500SOL     OW69223   1.079  10.726   9.454 -0.0734  0.0790  0.0384
52500SOL    HW169224   1.083  10.820   9.435  0.0539 -0.1448 -1.0871
52500SOL    HW269225   0.988  10.711   9.479 -0.2671  0.3679 -0.4821
52501SOL     OW69226   5.757   5.757   8.016 -0.2716 -0.1839  0.3352
52501SOL    HW169227   5.795   5.844   8.008  0.4991 -0.3952  1.4480
52501SOL    HW269228   5.665   5.773   8.037 -0.7664  0.3265 -1.9260
52502SOL     OW69229   5.738   9.003  10.409  0.1740 -0.3087 -0.4818
52502SOL    HW169230   5.723   8.909  10.399 -3.6845  0.0093  0.5707
52502SOL    HW269231   5.739   9.038  10.320 -2.1497 -1.0130 -0.8484
52503SOL     OW69232   0.158   2.679   5.165  0.4140  0.3148  0.5296
52503SOL    HW169233   0.232   2.622   5.186 -1.1072 -2.0036 -0.0822
52503SOL    HW269234   0.145   2.732   5.244  2.1586  0.1812  0.9410
52504SOL     OW69235   1.508  11.834   4.498  0.3322 -0.2287  0.2948
52504SOL    HW169236   1.556  11.858   4.577  1.7021 -0.2486 -0.4882
52504SOL    HW269237   1.576  11.813   4.434 -0.7459 -1.8429 -0.4101
52505SOL     OW69238   5.057   7.932  11.418  0.6288  0.5258 -1.5442
52505SOL    HW169239   5.102   7.889  11.491 -0.9966  0.2390 -0.6506
52505SOL    HW269240   5.083   7.883  11.341 -2.2881 -3.2354 -0.4433
52506SOL     OW69241  11.720   1.095   3.706 -0.0528 -0.5496 -0.2171
52506SOL    HW169242  11.668   1.022   3.671 -1.2240  0.0336  0.2412
52506SOL    HW269243  11.655   1.152   3.748  0.9925  0.1277  0.5207
52507SOL     OW69244   5.779   3.673   3.278  1.0140 -0.1608  0.0436
52507SOL    HW169245   5.864   3.635   3.255  1.2738 -0.5071  1.5204
52507SOL    HW269246   5.791   3.708   3.366  0.2308  1.7049 -0.5463
52508SOL     OW69247   0.348   2.067  10.282  0.0833  0.1852 -0.4280
52508SOL    HW169248   0.308   1.985  10.310  0.5381  0.0965 -0.0256
52508SOL    HW269249   0.274   2.121  10.254 -0.3489  0.1243  0.5610
52509SOL     OW69250   8.667   1.814   4.390 -0.2932 -0.0424 -0.4255
52509SOL    HW169251   8.603   1.780   4.453 -0.0226 -2.7403 -1.4651
52509SOL    HW269252   8.729   1.864   4.443 -1.1786 -0.5097  1.1240
52510SOL     OW69253   5.748   6.557   1.913  0.5140 -0.7730  0.3348
52510SOL    HW169254   5.793   6.620   1.969 -1.1678  0.6336  0.2020
52510SOL    HW269255   5.814   6.529   1.850  1.5657  0.1369  1.0030
52511SOL     OW69256   8.079   8.388   6.221  0.3703 -0.8195 -0.5093
52511SOL    HW169257   8.123   8.427   6.297  0.9898 -0.4998 -1.0272
52511SOL    HW269258   8.051   8.301   6.252 -0.4648 -0.2298  0.4526
52512SOL     OW69259   9.719   2.677   5.308  0.3938  0.0215  0.0749
52512SOL    HW169260   9.662   2.608   5.341  0.7611  0.0153  0.6991
52512SOL    HW269261   9.723   2.742   5.378 -0.0146  0.7268 -0.5359
52513SOL     OW69262   4.388   7.404   5.067  0.5495 -0.2756 -0.8806
52513SOL    HW169263   4.373   7.479   5.124  0.6601 -0.8851 -0.0185
52513SOL    HW269264   4.403   7.441   4.980 -1.9465  0.5867 -1.0160
52514SOL     OW69265  10.904   9.392  10.386 -0.0097 -0.6852 -0.3925
52514SOL    HW169266  10.960   9.335  10.440 -0.6004 -0.5069  0.4216
52514SOL    HW269267  10.940   9.383  10.298  1.0321 -0.9201  0.0346
52515SOL     OW69268   9.027   6.909   7.050  0.2271 -0.1228 -0.3049
52515SOL    HW169269   8.956   6.906   6.986  0.8013 -1.3976 -0.9405
52515SOL    HW269270   9.003   6.842   7.115  0.5615 -0.1564 -0.2154
52516SOL     OW69271  10.134   8.726   3.244 -0.2547 -0.1020  0.0885
52516SOL    HW169272  10.077   8.704   3.318  1.3013 -0.9663  1.0865
52516SOL    HW269273  10.074   8.737   3.170 -1.7305 -0.7088  1.1467
52517SOL     OW69274   8.705   4.183   7.533 -0.4247 -0.0160  0.2856
52517SOL    HW169275   8.742   4.181   7.445 -0.2279  1.9097  0.2793
52517SOL    HW269276   8.616   4.216   7.522 -0.6633 -0.4978  0.7287
52518SOL     OW69277   5.367   0.268   6.140  0.5520  0.2944 -0.3378
52518SOL    HW169278   5.422   0.274   6.062 -1.2543  0.8455 -1.6301
52518SOL    HW269279   5.381   0.351   6.185  2.3010 -0.3885  0.4729
52519SOL     OW69280   4.730   6.689   6.253 -0.1032 -0.2329  0.5271
52519SOL    HW169281   4.792   6.748   6.209 -0.1349  0.3676  1.2776
52519SOL    HW269282   4.693   6.741   6.323 -2.1990 -0.2685 -0.4888
52520SOL     OW69283   5.062   4.452   9.882 -0.2441  0.1145 -0.1565
52520SOL    HW169284   5.048   4.546   9.872 -0.4512  0.0174 -0.8015
52520SOL    HW269285   4.978   4.413   9.858 -0.8993 -0.1296  2.2551
52521SOL     OW69286   4.584   6.053  10.452  0.4193 -0.1071 -0.3102
52521SOL    HW169287   4.528   5.977  10.436 -0.3964  0.0259  1.5502
52521SOL    HW269288   4.673   6.018  10.457  0.3935 -0.5037 -2.1061
52522SOL     OW69289   2.988  11.044   5.096 -0.5937  0.4804  0.5674
52522SOL    HW169290   2.962  11.135   5.081 -0.4184  0.4866  0.2903
52522SOL    HW269291   2.908  11.000   5.123 -1.0216  0.3907 -0.7665
52523SOL     OW69292   0.976   8.637   4.972  0.6602  0.2488  0.6405
52523SOL    HW169293   1.041   8.570   4.992 -0.9871 -1.2712  1.2253
52523SOL    HW269294   0.910   8.627   5.040 -2.1040 -0.9348 -1.9784
52524SOL     OW69295   7.741   7.189   5.688  0.1192  0.0887  0.0117
52524SOL    HW169296   7.807   7.249   5.722  1.7111 -1.2117 -0.6338
52524SOL    HW269297   7.748   7.198   5.593 -0.8224  0.1155 -0.0586
52525SOL     OW69298   8.872   8.770  10.050  0.0283  0.0185 -0.2594
52525SOL    HW169299   8.965   8.792  10.044  0.1618 -0.2780  0.6316
52525SOL    HW269300   8.867   8.700  10.115 -0.8592  0.3035  0.0048
52526SOL     OW69301   3.756   3.813   2.741 -0.0122  0.0319 -0.2467
52526SOL    HW169302   3.802   3.735   2.772  0.5510 -0.8002 -2.9484
52526SOL    HW269303   3.808   3.844   2.667  0.3723  3.6566  1.3438
52527SOL     OW69304   4.277  10.547   1.059 -0.1564  0.1639 -0.3323
52527SOL    HW169305   4.338  10.494   1.008 -0.8506 -0.7772 -0.2094
52527SOL    HW269306   4.199  10.552   1.005 -0.7961 -0.5989  0.5020
52528SOL     OW69307   8.141  11.808   2.049 -0.1573 -0.2587 -0.4415
52528SOL    HW169308   8.138  11.841   1.959  0.4145 -0.3573 -0.4975
52528SOL    HW269309   8.057  11.836   2.087  0.0705  0.7635 -0.6579
52529SOL     OW69310   4.237   6.794   3.874 -0.1671 -0.8332  0.3082
52529SOL    HW169311   4.209   6.760   3.789  2.7573  0.8544 -1.4887
52529SOL    HW269312   4.226   6.889   3.867 -1.0503 -0.7334  2.3439
52530SOL     OW69313   7.581   8.035   7.320 -0.1590  0.1987  0.1664
52530SOL    HW169314   7.641   8.053   7.393 -0.2278 -2.4726  0.9769
52530SOL    HW269315   7.494   8.044   7.358 -0.2456  1.0974 -0.2246
52531SOL     OW69316   7.063  11.302   9.619  0.1154  0.0503 -0.6064
52531SOL    HW169317   7.055  11.397   9.627 -0.7353  0.0837 -1.6498
52531SOL    HW269318   7.147  11.288   9.575 -0.9542  0.4896 -2.9312
52532SOL     OW69319   2.774   2.736   6.206  0.0454 -0.4435  0.1485
52532SOL    HW169320   2.728   2.707   6.127 -1.3884 -1.8287  1.4073
52532SOL    HW269321   2.839   2.799   6.175 -1.3538  0.0630 -1.9716
52533SOL     OW69322   0.639   0.593   0.826  0.2722 -0.2885 -0.0426
52533SOL    HW169323   0.644   0.532   0.753  0.3423 -0.3806  0.0380
52533SOL    HW269324   0.683   0.548   0.898 -0.5101 -0.5333  0.2899
52534SOL     OW69325   0.567   2.181   6.312  0.6286  0.6895 -0.2518
52534SOL    HW169326   0.659   2.188   6.337  0.2190 -0.9329  2.1188
52534SOL    HW269327   0.568   2.131   6.230  1.8771  1.9005 -1.0225
52535SOL     OW69328  11.254   9.717  11.273 -0.0410  0.0641  0.4070
52535SOL    HW169329  11.276   9.765  11.353 -1.5875 -1.0444  1.5641
52535SOL    HW269330  11.213   9.636  11.304  1.9931 -1.8325 -1.4622
52536SOL     OW69331   1.816   5.056  11.852 -0.3258 -0.1236  0.1402
52536SOL    HW169332   1.791   5.145  11.830 -3.2008 -1.4035 -2.5752
52536SOL    HW269333   1.832   5.013  11.767 -0.7486 -2.5993  1.2095
52537SOL     OW69334  10.809  11.558   7.897 -0.1521  0.5660 -0.6612
52537SOL    HW169335  10.800  11.517   7.984  1.8234 -1.1055 -1.1608
52537SOL    HW269336  10.719  11.574   7.869 -0.9254 -0.8626  0.8132
52538SOL     OW69337   9.543  11.445   8.852 -0.1421 -0.2598 -0.1450
52538SOL    HW169338   9.580  11.362   8.882 -3.2593 -1.3129  1.2483
52538SOL    HW269339   9.553  11.504   8.927  0.0029 -0.1223 -0.2737
52539SOL     OW69340  10.554  10.893  11.576 -0.1690 -0.0891  0.0333
52539SOL    HW169341  10.628  10.883  11.516  1.5081 -1.1478  2.1210
52539SOL    HW269342  10.541  10.988  11.583 -0.1420  0.0680 -1.6137
52540SOL     OW69343   2.670   3.723   8.576  0.4378  0.1149 -0.1275
52540SOL    HW169344   2.579   3.750   8.565 -0.1108 -1.6042 -0.1146
52540SOL    HW269345   2.678   3.706   8.670  0.4866 -0.6227 -0.2584
52541SOL     OW69346   8.244  10.670  10.500  0.0503 -0.1831 -0.0419
52541SOL    HW169347   8.187  10.664  10.423  1.3401  1.1128 -1.1594
52541SOL    HW269348   8.326  10.629  10.473  0.8609  1.1692  0.2670
52542SOL     OW69349   7.678   5.723   0.993 -0.5877 -0.1994  0.2096
52542SOL    HW169350   7.668   5.808   0.950  2.2994  0.3033  0.3152
52542SOL    HW269351   7.700   5.663   0.922  0.8625 -0.0767  0.5315
52543SOL     OW69352   6.729  10.316   3.025  0.1471  0.2689  0.3663
52543SOL    HW169353   6.786  10.265   3.083  0.3532  0.4720  0.3456
52543SOL    HW269354   6.789  10.359   2.965  0.0242  0.9992  0.7515
52544SOL     OW69355   1.800  11.285   5.721 -0.1873 -0.1762  0.0950
52544SOL    HW169356   1.863  11.356   5.709 -1.8323  1.2661 -0.5605
52544SOL    HW269357   1.767  11.297   5.810 -0.9537  0.3553 -0.2419
52545SOL     OW69358   3.148  11.710   3.461  0.2704 -0.1181 -0.9355
52545SOL    HW169359   3.222  11.770   3.456  0.8019 -0.1652  2.9688
52545SOL    HW269360   3.183  11.627   3.429  2.3856 -0.3659  1.6281
52546SOL     OW69361   9.903   5.686   8.722  0.7300 -0.8227  0.1869
52546SOL    HW169362   9.897   5.745   8.647 -0.7091 -0.4025  0.5959
52546SOL    HW269363   9.987   5.707   8.762 -0.3457  2.1400  1.2106
52547SOL     OW69364   9.639   0.021   9.451 -0.0400 -0.3800  0.0946
52547SOL    HW169365   9.686  -0.016   9.526  0.0087  0.1509  0.3265
52547SOL    HW269366   9.551   0.038   9.484  0.1631  0.4578  0.2199
52548SOL     OW69367   1.286   0.175   1.522  0.5790 -0.0792 -0.5061
52548SOL    HW169368   1.256   0.247   1.577  0.9883  0.6080 -1.1640
52548SOL    HW269369   1.215   0.111   1.525  0.4675  0.0831  0.5647
52549SOL     OW69370   0.824  10.590   9.109  0.2380 -0.1537 -0.3844
52549SOL    HW169371   0.798  10.595   9.017 -2.4257  0.9674  0.3136
52549SOL    HW269372   0.919  10.603   9.109  0.2156  0.4519 -2.9053
52550SOL     OW69373   4.798  11.820  11.934 -0.1638  0.2616  0.4319
52550SOL    HW169374   4.816  11.845  11.843  0.5513  0.6108  0.6629
52550SOL    HW269375   4.869  11.859  11.984  0.6458 -1.6716  0.8918
52551SOL     OW69376   4.581   5.654  10.558  0.1888 -0.2761  0.0990
52551SOL    HW169377   4.487   5.672  10.560  0.0315 -1.0335  0.0279
52551SOL    HW269378   4.594   5.587  10.626  0.8453  0.5681  0.8306
52552SOL     OW69379   9.773   2.122   4.744 -0.0931  0.3261  0.1591
52552SOL    HW169380   9.739   2.210   4.730  0.4255  0.6845  1.0780
52552SOL    HW269381   9.786   2.116   4.839  2.8056  0.3737 -0.1478
52553SOL     OW69382   0.826   8.980   9.075  0.0855 -0.2238  0.4745
52553SOL    HW169383   0.836   8.937   9.160  0.8017 -0.4784  0.2729
52553SOL    HW269384   0.788   9.065   9.096 -3.2252 -1.6273  0.7140
52554SOL     OW69385   6.090   1.686  11.892 -0.0591 -0.0222  0.5320
52554SOL    HW169386   6.046   1.728  11.966 -2.8729  0.2720 -1.1449
52554SOL    HW269387   6.051   1.599  11.887  0.7117 -0.3467 -0.0929
52555SOL     OW69388   0.181   3.115   2.586  0.5736  0.8133  0.1595
52555SOL    HW169389   0.099   3.162   2.574  0.2983 -0.0271 -1.5796
52555SOL    HW269390   0.247   3.169   2.543  0.3348 -0.0858 -1.4203
52556SOL     OW69391   1.350   4.373   6.059 -0.1976  0.6008 -0.0750
52556SOL    HW169392   1.293   4.306   6.020 -1.9362  2.2241 -0.4726
52556SOL    HW269393   1.306   4.397   6.140  0.9140  0.6032  0.5391
52557SOL     OW69394   4.669   3.426   5.150  0.0120  0.3189 -0.5383
52557SOL    HW169395   4.636   3.399   5.236 -1.7382 -1.4417 -1.6867
52557SOL    HW269396   4.642   3.517   5.142  0.5840  0.6498  0.9248
52558SOL     OW69397   4.093   0.676   7.376 -0.0016  0.1948 -0.0184
52558SOL    HW169398   4.141   0.727   7.311 -0.8089  0.1376 -0.6784
52558SOL    HW269399   4.141   0.690   7.458  1.4194 -0.2539 -0.7293
52559SOL     OW69400   9.616  10.431   0.418 -0.0898 -0.2331 -0.0864
52559SOL    HW169401   9.679  10.436   0.490 -0.5180 -2.3906  0.5012
52559SOL    HW269402   9.533  10.407   0.460 -1.1628  1.6821 -0.9568
52560SOL     OW69403   4.909  11.576   0.160  0.7583  0.6031  0.0552
52560SOL    HW169404   4.929  11.647   0.220  0.4066  0.1503  0.7176
52560SOL    HW269405   4.868  11.620   0.085 -1.5050  0.9424  1.3837
52561SOL     OW69406   0.887   9.851   4.873  0.1833  0.4756  0.1565
52561SOL    HW169407   0.837   9.933   4.869  2.1645  1.7284 -1.4779
52561SOL    HW269408   0.839   9.791   4.816 -0.7072  0.8621  0.4863
52562SOL     OW69409   3.215  11.568   0.420 -0.0177 -0.4269 -0.4126
52562SOL    HW169410   3.289  11.524   0.379  0.5444  0.0029  0.1330
52562SOL    HW269411   3.164  11.602   0.346 -0.0812 -1.3604 -0.8151
52563SOL     OW69412   3.504  10.944  10.159  0.1077  0.3234  0.7225
52563SOL    HW169413   3.566  10.996  10.108  0.6556 -0.4658  0.5650
52563SOL    HW269414   3.519  10.853  10.130 -0.4691  0.0135  1.3602
52564SOL     OW69415   2.159   9.662   0.663  0.4949  0.0891  0.0026
52564SOL    HW169416   2.214   9.661   0.585 -1.0597  3.3036 -1.3110
52564SOL    HW269417   2.070   9.659   0.630 -0.2590  3.1939  1.3718
52565SOL     OW69418   4.273   4.884  11.026 -0.2629 -0.2031  0.3329
52565SOL    HW169419   4.220   4.948  10.980 -0.9850 -0.4297  0.8304
52565SOL    HW269420   4.287   4.814  10.962 -1.9695 -0.9107  0.6823
52566SOL     OW69421   3.855   9.694   9.970 -0.0271 -0.5187 -0.9609
52566SOL    HW169422   3.834   9.720   9.881  2.4502 -0.5049 -1.6042
52566SOL    HW269423   3.886   9.604   9.963 -0.2343 -0.6744 -0.0517
52567SOL     OW69424   8.642   8.319   3.720 -0.2738  0.3687  0.2993
52567SOL    HW169425   8.702   8.264   3.772 -0.7652  0.1334  0.6290
52567SOL    HW269426   8.600   8.376   3.784  1.6511  2.5544 -0.2502
52568SOL     OW69427   9.077   1.933   1.217  0.3203  0.2529 -0.2385
52568SOL    HW169428   9.092   1.845   1.253 -0.4474  0.4556  0.6193
52568SOL    HW269429   9.016   1.918   1.144  1.6309 -0.1218 -1.3001
52569SOL     OW69430   6.610   3.401   2.310 -0.5957 -0.0979  0.0884
52569SOL    HW169431   6.642   3.346   2.238 -2.1466 -2.4234  1.0601
52569SOL    HW269432   6.655   3.368   2.387 -2.3567 -0.8137  0.8618
52570SOL     OW69433   8.198   0.431   3.424  0.0943  0.3554 -0.3369
52570SOL    HW169434   8.156   0.419   3.339 -0.6264 -0.3269  0.0985
52570SOL    HW269435   8.291   0.421   3.406  0.0669  1.6078 -1.2733
52571SOL     OW69436   9.674   1.817   7.525 -0.3566 -0.4337  0.0700
52571SOL    HW169437   9.611   1.886   7.543 -0.0058  0.1275 -0.7939
52571SOL    HW269438   9.749   1.862   7.487  0.2237 -1.1925  0.2917
52572SOL     OW69439   0.222   5.576   7.678  0.5236 -0.2646 -0.1425
52572SOL    HW169440   0.256   5.617   7.598  2.2743  0.5672  0.9510
52572SOL    HW269441   0.157   5.513   7.648 -0.2407  1.3582 -2.0904
52573SOL     OW69442   2.495   3.532  11.056  0.3086 -1.0194 -0.3107
52573SOL    HW169443   2.402   3.544  11.037  0.7265  0.1166 -1.8940
52573SOL    HW269444   2.523   3.465  10.993  0.8527 -0.2805 -0.8711
52574SOL     OW69445   4.100   3.443   0.089  0.4643  0.3244  0.0517
52574SOL    HW169446   4.192   3.434   0.114  0.3364 -1.3737  0.0243
52574SOL    HW269447   4.073   3.355   0.064 -0.5452  1.1895 -2.1771
52575SOL     OW69448   2.466   7.986   2.734  0.2850  0.1076  0.2544
52575SOL    HW169449   2.452   7.919   2.801  0.1686  0.1779  0.3011
52575SOL    HW269450   2.415   8.062   2.765 -2.6947 -0.9643 -1.6084
52576SOL     OW69451   8.387   9.442   0.257  0.2399  0.7018 -0.1197
52576SOL    HW169452   8.343   9.357   0.254  1.2441  0.2033 -2.3684
52576SOL    HW269453   8.459   9.428   0.318 -1.0920  0.7677  1.5637
52577SOL     OW69454   0.645   5.375   6.254 -0.3257  0.6981 -0.5768
52577SOL    HW169455   0.718   5.398   6.311 -1.5312 -1.7695  2.2074
52577SOL    HW269456   0.572   5.358   6.314 -1.8037 -1.7569 -2.8509
52578SOL     OW69457   1.114   5.663   9.285 -0.3802  0.0726 -0.9359
52578SOL    HW169458   1.160   5.661   9.369 -2.0404  0.2879  0.0189
52578SOL    HW269459   1.112   5.571   9.258  0.9710  0.1075 -1.2221
52579SOL     OW69460   5.683   2.349   2.008 -0.1847 -0.0588  0.1484
52579SOL    HW169461   5.758   2.404   2.031  0.0455 -0.6410  0.8152
52579SOL    HW269462   5.625   2.354   2.083 -0.9440  0.5747 -0.4588
52580SOL     OW69463   5.728  10.951  11.293  0.4642  0.6527  0.4437
52580SOL    HW169464   5.816  10.983  11.272  0.1339  1.1534 -0.1997
52580SOL    HW269465   5.742  10.888  11.364  1.5591 -0.6395 -0.8638
52581SOL     OW69466   8.231   2.357   0.322 -0.5998 -0.1491 -0.0937
52581SOL    HW169467   8.269   2.444   0.317  1.5036 -0.7511  2.9374
52581SOL    HW269468   8.144   2.371   0.358 -1.0456  0.7828 -1.4423
52582SOL     OW69469   5.889  10.360   6.454  0.1274  0.0010  0.8444
52582SOL    HW169470   5.894  10.341   6.361 -1.4797  1.3382  0.4421
52582SOL    HW269471   5.939  10.441   6.465  0.7820 -0.4498  1.2571
52583SOL     OW69472   2.703   2.025   5.111 -0.3107 -0.2096 -0.1354
52583SOL    HW169473   2.774   1.978   5.154  0.2775 -0.3066 -1.1803
52583SOL    HW269474   2.678   2.093   5.173  0.8633 -0.0242  0.1553
52584SOL     OW69475   1.075   5.518   1.269 -0.1501  0.2047  0.3834
52584SOL    HW169476   1.045   5.442   1.320 -0.3276  0.2798  0.3925
52584SOL    HW269477   1.097   5.483   1.183 -0.4074  0.1711  0.3295
52585SOL     OW69478   1.454   0.663  11.576 -0.0603  0.3760 -0.1645
52585SOL    HW169479   1.453   0.732  11.642  3.0908 -0.3780  0.8445
52585SOL    HW269480   1.545   0.632  11.576 -0.9557 -2.5565 -1.8426
52586SOL     OW69481   8.999   5.025  11.523  0.0992 -0.8093  0.2671
52586SOL    HW169482   9.022   4.988  11.607  1.9097  0.7867  0.5447
52586SOL    HW269483   9.013   4.954  11.460 -1.6750 -2.1367  1.2993
52587SOL     OW69484   4.493   6.141  11.121  0.1521 -0.6337  0.1608
52587SOL    HW169485   4.425   6.095  11.170  0.2695  0.3842  1.3160
52587SOL    HW269486   4.573   6.091  11.137 -0.0888 -1.1484 -0.2183
52588SOL     OW69487   1.323   7.461   3.935 -0.2111  0.3251  0.2056
52588SOL    HW169488   1.260   7.505   3.877  0.1146  0.4976 -0.0230
52588SOL    HW269489   1.399   7.519   3.936  0.3909 -0.4186 -0.4276
52589SOL     OW69490  10.031   6.758   0.767 -0.2420  0.1338 -0.0071
52589SOL    HW169491  10.090   6.722   0.701 -0.0718  0.6584 -0.1398
52589SOL    HW269492   9.949   6.711   0.754  0.1680 -0.6661  0.2386
52590SOL     OW69493   4.314   6.235   6.645 -0.0161  0.3180  0.5170
52590SOL    HW169494   4.336   6.209   6.734  1.0917 -0.8725 -0.0638
52590SOL    HW269495   4.375   6.307   6.625  1.7529 -1.2969 -0.2127
52591SOL     OW69496   6.321   4.927  10.494  0.0888 -0.5771  1.0341
52591SOL    HW169497   6.272   4.897  10.417 -1.5699  0.3147  1.7001
52591SOL    HW269498   6.400   4.968  10.457 -1.0386  0.5252 -0.2708
52592SOL     OW69499   2.882   0.439   6.815  0.6164 -0.1995  0.0508
52592SOL    HW169500   2.936   0.362   6.827  0.8264 -0.2942 -1.3516
52592SOL    HW269501   2.824   0.417   6.742  0.0571  0.6295  0.2269
52593SOL     OW69502   4.303   0.330   8.751 -0.2613 -0.1578 -0.3555
52593SOL    HW169503   4.207   0.333   8.750 -0.2387  0.7491 -1.1075
52593SOL    HW269504   4.324   0.258   8.810 -1.3905  0.5471  0.9684
52594SOL     OW69505   7.216  10.201   1.205 -0.6214  0.5340 -0.1366
52594SOL    HW169506   7.140  10.168   1.252 -0.0476 -1.8488 -0.7510
52594SOL    HW269507   7.288  10.194   1.268 -0.5565  0.9792 -0.1596
52595SOL     OW69508   8.691   5.341  10.157 -0.1242 -0.1870  0.2155
52595SOL    HW169509   8.689   5.246  10.158 -0.8395 -0.2205 -1.2148
52595SOL    HW269510   8.640   5.367  10.234 -1.8739 -1.0025 -0.6034
52596SOL     OW69511   3.206   0.503   8.816 -0.4835 -0.1556  0.1220
52596SOL    HW169512   3.204   0.410   8.795 -1.1928 -0.7790  2.6931
52596SOL    HW269513   3.296   0.520   8.842 -0.4981 -0.2797  0.2549
52597SOL     OW69514   3.468   0.494   7.135 -0.2403 -0.1027  0.5369
52597SOL    HW169515   3.399   0.438   7.100 -0.9350  0.6732  0.6234
52597SOL    HW269516   3.433   0.583   7.126  0.6192  0.2806  0.8793
52598SOL     OW69517   3.368   0.429  11.275  0.4453 -0.1039 -0.4626
52598SOL    HW169518   3.319   0.440  11.194  1.8604  1.7470 -1.1324
52598SOL    HW269519   3.301   0.419  11.342 -0.7621 -1.2389 -1.7585
52599SOL     OW69520   8.434   1.187  11.140  0.0620 -0.6595  0.0484
52599SOL    HW169521   8.524   1.156  11.133 -0.1731 -1.1067 -1.4771
52599SOL    HW269522   8.392   1.127  11.201  0.7190 -0.6496  0.5137
52600SOL     OW69523   1.703  11.586   3.109 -0.0387 -0.2266 -0.2519
52600SOL    HW169524   1.697  11.656   3.044  0.6376 -0.7993 -0.9401
52600SOL    HW269525   1.794  11.586   3.137 -0.4743  0.5169  1.2934
52601SOL     OW69526   5.389   4.084   5.999 -0.5052 -0.0720 -0.0548
52601SOL    HW169527   5.349   4.169   5.978 -1.4941 -0.6465 -0.5285
52601SOL    HW269528   5.447   4.104   6.073 -0.8626  0.9820 -0.0324
52602SOL     OW69529  10.154  10.625   4.109  0.1699 -0.0527 -0.5925
52602SOL    HW169530  10.188  10.691   4.170 -1.1860 -1.5657  1.9586
52602SOL    HW269531  10.222  10.558   4.105 -0.5308 -0.9086  0.9358
52603SOL     OW69532   8.936   4.229   6.971 -0.4934  0.2678  0.6025
52603SOL    HW169533   9.028   4.238   6.945 -0.8250  1.3208 -0.2905
52603SOL    HW269534   8.905   4.153   6.921 -0.5420  0.9557 -0.4525
52604SOL     OW69535   3.069   7.873   1.040  0.1094 -0.1640 -0.2325
52604SOL    HW169536   2.996   7.879   0.979  0.1358 -0.1931 -0.2667
52604SOL    HW269537   3.123   7.950   1.020  0.1933 -0.2522 -0.3419
52605SOL     OW69538   6.510   1.141   1.770  0.3624  0.2383  0.0775
52605SOL    HW169539   6.563   1.135   1.691 -0.1701  1.0337 -0.3508
52605SOL    HW269540   6.423   1.163   1.739  0.0390  0.0858  0.8594
52606SOL     OW69541   0.864   4.897   7.230 -1.1255  0.0976 -0.0135
52606SOL    HW169542   0.943   4.929   7.186 -1.4826  0.8417 -0.1223
52606SOL    HW269543   0.798   4.963   7.212 -2.9509 -2.2606 -3.2550
52607SOL     OW69544   2.276   6.647   5.439 -0.1411  0.1809  0.2075
52607SOL    HW169545   2.371   6.634   5.431 -0.0410  1.0908 -0.1495
52607SOL    HW269546   2.255   6.711   5.372 -1.0233 -0.0323  0.2705
52608SOL     OW69547   6.478   6.936   4.536 -0.5213 -0.2021 -0.2489
52608SOL    HW169548   6.450   6.986   4.613 -3.0132 -0.1262 -1.1069
52608SOL    HW269549   6.527   6.862   4.572  1.1076  1.4829  1.1873
52609SOL     OW69550  10.189   5.391   7.523 -0.3510 -0.3239 -0.3734
52609SOL    HW169551  10.218   5.335   7.451 -1.8063 -0.4410 -0.9198
52609SOL    HW269552  10.223   5.350   7.602 -2.7288 -3.0264 -0.5931
52610SOL     OW69553   4.873   2.916   6.560 -0.2093 -0.2589  0.0264
52610SOL    HW169554   4.785   2.933   6.527 -0.4611  0.2307  0.9193
52610SOL    HW269555   4.872   2.948   6.650  1.2189  0.8499 -0.3097
52611SOL     OW69556  11.281   1.918   3.035 -0.5134 -0.2596  0.8277
52611SOL    HW169557  11.345   1.957   3.094 -0.6961 -0.8047  1.3931
52611SOL    HW269558  11.284   1.974   2.957  0.8537 -0.4370  0.7200
52612SOL     OW69559  11.379   8.475  10.485  0.3815  0.8642  0.2073
52612SOL    HW169560  11.321   8.431  10.547  0.2277 -0.2162 -0.6720
52612SOL    HW269561  11.406   8.555  10.530  1.0510 -0.3437  2.0764
52613SOL     OW69562   6.795   8.250   2.322 -0.2652 -0.4499 -0.2878
52613SOL    HW169563   6.868   8.280   2.266 -1.2893  1.1056 -0.8670
52613SOL    HW269564   6.829   8.257   2.411  0.7799 -1.1938 -0.6047
52614SOL     OW69565   9.325   8.201   8.922  0.3864 -0.0270  0.0569
52614SOL    HW169566   9.388   8.220   8.991  0.3474 -2.1248  0.7352
52614SOL    HW269567   9.243   8.242   8.951  0.2013 -1.3997  1.6320
52615SOL     OW69568   2.295   1.385   1.478 -0.0173  0.4213  0.2081
52615SOL    HW169569   2.311   1.385   1.384  2.6949  3.7835  0.4656
52615SOL    HW269570   2.250   1.468   1.495 -0.1513  0.0413  1.8977
52616SOL     OW69571   8.644   3.613   8.718 -0.6867  0.3922 -0.7245
52616SOL    HW169572   8.646   3.708   8.726  1.7751  0.3773 -0.3855
52616SOL    HW269573   8.659   3.596   8.625  0.2631  0.3389 -0.5671
52617SOL     OW69574   6.347  11.101  10.178 -0.3121 -0.5259  0.4225
52617SOL    HW169575   6.442  11.109  10.179 -0.3624  1.0819 -1.2554
52617SOL    HW269576   6.328  11.053  10.097 -0.9627  0.5871 -0.1104
52618SOL     OW69577  10.106   1.879   8.048  0.4264 -0.7526 -1.1344
52618SOL    HW169578  10.068   1.912   7.967 -0.0174 -0.8379 -0.9588
52618SOL    HW269579  10.160   1.805   8.021 -1.9666 -2.6189 -1.0479
52619SOL     OW69580   4.750   6.361  10.608 -0.0356  0.0900 -0.5741
52619SOL    HW169581   4.828   6.415  10.620 -0.6760  0.6322  1.6132
52619SOL    HW269582   4.778   6.291  10.550  1.3247  1.7279 -2.0085
52620SOL     OW69583   1.697   7.429   9.587  0.2378  0.3332  0.1590
52620SOL    HW169584   1.776   7.469   9.625  0.2114  1.4763 -0.9094
52620SOL    HW269585   1.625   7.478   9.627  0.0229 -0.8397  1.2820
52621SOL     OW69586   0.827   0.908   8.739 -0.0846  0.0156 -0.7096
52621SOL    HW169587   0.861   0.819   8.734 -0.6922 -0.3376  0.7234
52621SOL    HW269588   0.905   0.964   8.741  0.5584 -0.7716  2.4878
52622SOL     OW69589   4.612   5.738   4.005 -0.2186 -0.1592 -0.1448
52622SOL    HW169590   4.568   5.659   4.038  0.7379 -1.2630 -1.3896
52622SOL    HW269591   4.617   5.725   3.910 -0.7945  1.8295 -0.4833
52623SOL     OW69592   1.882   7.385   1.719 -0.3383 -0.0677 -0.0632
52623SOL    HW169593   1.874   7.444   1.645  0.3240  0.0430 -0.0561
52623SOL    HW269594   1.973   7.354   1.715 -0.4156 -0.3775  0.4595
52624SOL     OW69595   5.681  11.339   7.541 -0.2363  0.0859  0.2556
52624SOL    HW169596   5.744  11.410   7.554  1.1498 -1.2399  0.9858
52624SOL    HW269597   5.601  11.370   7.584  0.6354  0.8137  1.4075
52625SOL     OW69598  11.256   1.515  11.385 -0.6958 -0.2974 -0.0803
52625SOL    HW169599  11.278   1.505  11.292  1.0738 -1.2929  0.3940
52625SOL    HW269600  11.293   1.437  11.426 -0.2424  0.7924  1.6599
52626SOL     OW69601   8.818  10.782   0.277 -0.1380 -0.0861  0.0826
52626SOL    HW169602   8.844  10.709   0.333 -0.9673  0.0039  0.6015
52626SOL    HW269603   8.731  10.758   0.244 -0.6237  0.8521  0.6231
52627SOL     OW69604   4.337  10.987   5.634  0.0587  0.1586 -0.2310
52627SOL    HW169605   4.352  10.916   5.571  1.0320 -0.3411  0.5385
52627SOL    HW269606   4.336  11.067   5.580 -0.7456 -0.3934 -1.0719
52628SOL     OW69607   6.734   2.122   5.201  0.1730  0.2948 -0.0024
52628SOL    HW169608   6.804   2.183   5.222  0.2307  0.2068  0.0649
52628SOL    HW269609   6.653   2.171   5.218  0.2024  0.7116 -0.9835
52629SOL     OW69610   5.487   2.216   4.700  0.3521 -0.2782 -0.2607
52629SOL    HW169611   5.543   2.223   4.622  1.8043 -0.9191  0.6762
52629SOL    HW269612   5.405   2.179   4.668  0.5295  0.4688 -1.6415
52630SOL     OW69613   7.151   6.544   8.907 -0.0387  0.3725 -0.2820
52630SOL    HW169614   7.146   6.476   8.974  0.1341  0.0371 -0.6044
52630SOL    HW269615   7.211   6.609   8.942  0.0681  0.1868 -0.1206
52631SOL     OW69616   2.256  10.291  11.214  0.0242  0.0933  0.0863
52631SOL    HW169617   2.269  10.217  11.154 -1.7472 -0.3919  0.2316
52631SOL    HW269618   2.241  10.250  11.299 -0.2604  0.6430  0.3054
52632SOL     OW69619   5.666   3.590   4.773  0.3577 -0.0762 -0.3801
52632SOL    HW169620   5.659   3.506   4.818 -0.0987  1.0774  1.8230
52632SOL    HW269621   5.740   3.634   4.816  0.7769  0.5616 -1.6990
52633SOL     OW69622   7.021   2.746   1.401  0.3467  0.1648  0.4462
52633SOL    HW169623   7.036   2.659   1.364 -0.2242 -0.6539  2.0577
52633SOL    HW269624   6.929   2.745   1.429 -0.5786  2.3121 -2.0555
52634SOL     OW69625  10.512   6.333   5.856 -0.5249 -0.4373  0.3216
52634SOL    HW169626  10.507   6.338   5.951 -0.2260 -1.2007  0.3789
52634SOL    HW269627  10.520   6.240   5.836 -1.8447 -0.3946 -0.5233
52635SOL     OW69628   2.258   0.037   5.997  0.6416  0.0460  0.0270
52635SOL    HW169629   2.258   0.021   6.091 -0.2127  0.3720  0.0909
52635SOL    HW269630   2.266   0.132   5.988 -0.6736  0.1543 -0.1805
52636SOL     OW69631   8.710   8.396  10.416  0.2521 -0.1897  0.0175
52636SOL    HW169632   8.634   8.350  10.380 -1.7256  1.9775  1.1407
52636SOL    HW269633   8.680   8.430  10.500  2.1099  1.6428  0.0312
52637SOL     OW69634   3.155   6.870  10.840 -0.1830  0.2942 -0.1050
52637SOL    HW169635   3.155   6.964  10.823 -0.3912  0.2387 -0.4299
52637SOL    HW269636   3.094   6.858  10.912  0.7234  0.5386  0.7193
52638SOL     OW69637   5.595   8.484   9.448  0.1078  0.2184  0.4243
52638SOL    HW169638   5.680   8.528   9.444 -0.1593  0.7392  0.4803
52638SOL    HW269639   5.616   8.396   9.479  0.7670 -0.0254 -0.6469
52639SOL     OW69640   5.307   4.319   8.678 -0.5593 -0.3199 -0.6626
52639SOL    HW169641   5.335   4.227   8.677  1.3163  0.2037 -0.1421
52639SOL    HW269642   5.351   4.358   8.602 -0.6721  0.3277 -0.4000
52640SOL     OW69643   7.610   7.909   8.747  0.5069 -0.7072 -0.0844
52640SOL    HW169644   7.683   7.953   8.702 -1.2650  1.7058 -0.7799
52640SOL    HW269645   7.532   7.937   8.699 -0.9446 -3.1162  0.6983
52641SOL     OW69646   9.120   9.811   6.322  0.0925 -0.1957  0.1283
52641SOL    HW169647   9.071   9.740   6.281 -0.6745  0.5128 -0.2075
52641SOL    HW269648   9.077   9.824   6.407 -1.3520  1.4775 -0.8110
52642SOL     OW69649   0.375   8.068   5.252 -0.3205  0.8725 -0.0664
52642SOL    HW169650   0.396   8.050   5.344 -0.6671  2.3773  0.3293
52642SOL    HW269651   0.385   8.163   5.243 -1.8268  0.9645 -1.1852
52643SOL     OW69652   9.398   7.629   4.586 -0.3346  0.4242  0.3154
52643SOL    HW169653   9.323   7.658   4.533 -0.8594  1.4455  1.5575
52643SOL    HW269654   9.470   7.621   4.523 -0.7462  2.2929 -0.4834
52644SOL     OW69655   4.401   4.023   6.030  0.0456  0.6266 -0.1764
52644SOL    HW169656   4.342   4.062   6.094 -3.5295 -3.4249 -0.5452
52644SOL    HW269657   4.343   3.991   5.961  3.0539 -1.0665 -2.1063
52645SOL     OW69658   4.793   8.903   6.884  0.1387 -0.0842  0.3528
52645SOL    HW169659   4.817   8.944   6.966 -1.4249  1.5194  0.0643
52645SOL    HW269660   4.785   8.975   6.822  1.0175 -1.2245 -1.1712
52646SOL     OW69661   4.158   7.996   0.729  0.1386  0.1263 -0.0133
52646SOL    HW169662   4.179   7.926   0.791  3.0325 -0.7300 -1.7791
52646SOL    HW269663   4.077   8.035   0.763 -1.2796 -3.6310  1.4303
52647SOL     OW69664   5.977  10.369   3.032 -0.1946  0.3439  0.3138
52647SOL    HW169665   5.893  10.398   2.998  0.2660  1.9535  0.4654
52647SOL    HW269666   5.964  10.276   3.052 -1.3311  0.0629 -1.4915
52648SOL     OW69667   1.812   0.546   5.440  0.6584  0.2354  0.4817
52648SOL    HW169668   1.843   0.506   5.358  0.3663  1.3112 -0.1751
52648SOL    HW269669   1.731   0.499   5.459  0.1375  0.7097 -0.4688
52649SOL     OW69670   9.821  11.921   7.200  0.0288  0.1362 -0.4143
52649SOL    HW169671   9.741  11.920   7.253  1.1356 -0.7506  1.3343
52649SOL    HW269672   9.810  11.848   7.139 -0.2415 -0.3992  0.2610
52650SOL     OW69673   5.855   1.586   8.545 -0.2863  0.2700 -0.3535
52650SOL    HW169674   5.821   1.594   8.634  2.6576  2.0351  0.7572
52650SOL    HW269675   5.781   1.612   8.489 -1.8212  0.3953  1.6158
52651SOL     OW69676   3.771   6.807   2.079  0.2483 -0.2548  0.2442
52651SOL    HW169677   3.848   6.849   2.043  1.0126 -0.0609  2.0156
52651SOL    HW269678   3.710   6.800   2.005  2.6511 -2.2223 -1.7110
52652SOL     OW69679   2.300   4.350  10.165  0.2606 -0.2503  0.4560
52652SOL    HW169680   2.207   4.346  10.142  0.6733 -1.0383 -1.3007
52652SOL    HW269681   2.311   4.436  10.204 -0.4277  1.8881 -3.4699
52653SOL     OW69682   9.764   6.960   0.637  0.0650  0.2452  0.0750
52653SOL    HW169683   9.751   6.967   0.543 -0.1335 -0.5894  0.0331
52653SOL    HW269684   9.810   7.041   0.661  0.1095  0.4667 -0.7280
52654SOL     OW69685   4.380   9.553   7.401 -0.0957 -0.3660  0.4616
52654SOL    HW169686   4.417   9.551   7.489 -1.4877 -1.1195  1.0442
52654SOL    HW269687   4.381   9.646   7.377  1.0984 -0.2474  0.8997
52655SOL     OW69688   3.351   8.203   1.954  0.5344  0.3140 -0.6676
52655SOL    HW169689   3.364   8.184   1.862  1.5978 -0.3807 -0.3944
52655SOL    HW269690   3.437   8.231   1.986  0.0143  1.2676 -0.0490
52656SOL     OW69691   8.845   8.191  11.525 -0.2726  0.5636 -0.1127
52656SOL    HW169692   8.850   8.202  11.430 -0.2806  0.8159 -0.0861
52656SOL    HW269693   8.884   8.106  11.542  1.4327  1.2970 -0.1750
52657SOL     OW69694   8.585   6.576   3.024 -0.5170 -0.4130  0.2431
52657SOL    HW169695   8.552   6.492   2.990  0.4445 -1.1315  1.0345
52657SOL    HW269696   8.680   6.570   3.013 -0.3331  0.0380  1.5106
52658SOL     OW69697   1.131   2.802  10.921  0.3604 -0.3289  0.3862
52658SOL    HW169698   1.076   2.878  10.905 -0.4861 -0.4805  2.2699
52658SOL    HW269699   1.193   2.830  10.988 -0.2586 -1.3814  1.4463
52659SOL     OW69700   0.513   2.297   9.314 -0.0672 -0.2743 -0.5932
52659SOL    HW169701   0.453   2.369   9.334 -0.3713 -0.1942 -1.7116
52659SOL    HW269702   0.600   2.333   9.332 -0.2188  0.3717 -1.0968
52660SOL     OW69703   0.940   5.197   6.200 -0.4331  0.2622  0.2008
52660SOL    HW169704   0.992   5.266   6.240 -0.6864  1.2266 -1.0778
52660SOL    HW269705   0.876   5.173   6.267  1.7220 -1.0978  1.8814
52661SOL     OW69706   9.858   3.611  11.462  0.2293  0.0780 -0.8653
52661SOL    HW169707   9.952   3.592  11.461  0.1862 -0.1988 -2.1972
52661SOL    HW269708   9.818   3.534  11.420 -0.4450  0.8257 -1.6227
52662SOL     OW69709   9.126   1.693   2.224  1.4325 -0.2664 -0.6249
52662SOL    HW169710   9.079   1.719   2.303  1.7745 -1.0329 -0.1497
52662SOL    HW269711   9.071   1.722   2.152  1.2633  0.7220 -0.1070
52663SOL     OW69712   8.422   6.844  10.263 -0.4077  0.5854  0.0105
52663SOL    HW169713   8.416   6.749  10.251  0.2798  0.4791  0.4634
52663SOL    HW269714   8.385   6.880  10.183 -0.3634 -0.0705 -0.3171
52664SOL     OW69715   2.683   6.444   6.968  0.1178 -0.1100  0.0800
52664SOL    HW169716   2.655   6.357   6.937  1.0366 -0.2477 -0.3801
52664SOL    HW269717   2.656   6.504   6.898  0.1559 -0.1270  0.0502
52665SOL     OW69718  11.411   4.216   1.176 -0.2076  0.6676  0.7133
52665SOL    HW169719  11.384   4.289   1.120 -0.6139 -0.3037 -0.3980
52665SOL    HW269720  11.498   4.193   1.144 -0.7325 -0.3580 -0.0514
52666SOL     OW69721   6.479   1.749   2.078 -0.4540 -0.0693  0.0029
52666SOL    HW169722   6.504   1.706   1.996 -0.1810 -1.0358  0.5720
52666SOL    HW269723   6.489   1.842   2.061 -0.4414 -0.2631 -1.0751
52667SOL     OW69724  10.164   2.485   0.451 -0.5428 -0.1465 -0.0799
52667SOL    HW169725  10.252   2.452   0.469  0.0968  1.5163  0.0692
52667SOL    HW269726  10.172   2.528   0.366 -0.8712  1.0570  0.4669
52668SOL     OW69727  11.734   8.630   6.508 -0.1299  0.2963 -0.1857
52668SOL    HW169728  11.642   8.634   6.536 -1.3290  0.2407 -3.7155
52668SOL    HW269729  11.766   8.719   6.521 -0.8413  0.4739  0.4801
52669SOL     OW69730   3.134   1.068   2.271 -0.0226 -0.2027  0.9187
52669SOL    HW169731   3.124   1.155   2.308 -0.0945 -0.2260  0.9541
52669SOL    HW269732   3.047   1.045   2.239 -0.0216 -0.2930  0.9799
52670SOL     OW69733   5.270   0.057   7.842 -0.0628 -0.1136 -0.1668
52670SOL    HW169734   5.181   0.091   7.834  0.0390 -0.1672 -1.8547
52670SOL    HW269735   5.318   0.099   7.771  1.2394 -0.2016  0.6314
52671SOL     OW69736  11.540   1.238   1.220 -0.4809 -0.1466 -0.4695
52671SOL    HW169737  11.597   1.234   1.297  0.6294 -1.0046 -1.3149
52671SOL    HW269738  11.490   1.156   1.223 -2.6238  1.0912  0.9134
52672SOL     OW69739  10.642   1.459   9.108 -0.1439 -0.2149  0.1613
52672SOL    HW169740  10.675   1.549   9.104 -0.4396 -0.1153 -0.1187
52672SOL    HW269741  10.564   1.460   9.052  0.0530 -0.7318 -0.1305
52673SOL     OW69742   4.395   9.658   2.215 -0.0885  0.2500  0.4389
52673SOL    HW169743   4.370   9.566   2.208 -0.4660  0.3109  0.8862
52673SOL    HW269744   4.420   9.669   2.307 -1.8638  1.0174  0.8814
52674SOL     OW69745   4.141   8.994   0.698  0.0030 -0.1026 -0.3370
52674SOL    HW169746   4.054   9.032   0.712  0.1342  0.1382 -0.1727
52674SOL    HW269747   4.173   8.973   0.786  0.1246 -0.1616 -0.3941
52675SOL     OW69748   0.132   6.009   8.710 -0.0433 -0.0840 -0.4634
52675SOL    HW169749   0.092   6.091   8.682 -0.4672 -0.0456  0.2254
52675SOL    HW269750   0.208   6.036   8.761  0.1454 -0.1332 -0.7165
52676SOL     OW69751   9.061  10.804   9.495  0.0574  0.5354  0.0859
52676SOL    HW169752   9.091  10.747   9.567 -0.2395 -0.4755 -0.5674
52676SOL    HW269753   9.032  10.884   9.539  1.0998  0.4571  0.9756
52677SOL     OW69754   8.269   1.849  11.332 -0.6441  0.1730 -0.1876
52677SOL    HW169755   8.197   1.809  11.284 -0.5316 -0.0829 -0.1428
52677SOL    HW269756   8.290   1.928  11.282 -1.5025  0.6924  0.2535
52678SOL     OW69757   3.707   7.536   4.378 -0.0985 -0.3596 -0.0017
52678SOL    HW169758   3.685   7.587   4.300 -0.2501 -0.4449 -0.0136
52678SOL    HW269759   3.790   7.493   4.356  0.6494  0.7884  0.4241
52679SOL     OW69760   2.291   2.931   6.276  0.0512  0.2952 -0.0086
52679SOL    HW169761   2.233   2.978   6.336 -1.1446  0.3862 -1.1973
52679SOL    HW269762   2.368   2.911   6.329  0.8252  3.8800  0.4831
52680SOL     OW69763   9.300   0.799   6.928  0.3587  0.5163 -0.8501
52680SOL    HW169764   9.335   0.730   6.984 -0.4070 -1.4044 -2.6432
52680SOL    HW269765   9.262   0.754   6.853 -3.0631  2.6222 -0.6449
52681SOL     OW69766   0.131   5.111   8.568  0.7225 -0.3883 -0.6681
52681SOL    HW169767   0.203   5.052   8.548  2.1252  1.6127 -1.9396
52681SOL    HW269768   0.080   5.066   8.635  3.2721 -1.8165  0.4309
52682SOL     OW69769   5.348  10.512   6.732  0.0841  0.1713  0.2380
52682SOL    HW169770   5.305  10.428   6.719 -0.8868  0.6487  0.2505
52682SOL    HW269771   5.279  10.569   6.768  0.3536  1.3281 -0.9772
52683SOL     OW69772   8.740   0.620  11.944  0.4143  0.2217 -0.0975
52683SOL    HW169773   8.711   0.529  11.954  0.3366  0.0604 -1.5856
52683SOL    HW269774   8.665   0.672  11.974  0.7204 -0.1745  1.4437
52684SOL     OW69775   2.213   3.406   8.382 -0.5688  0.1234 -0.2510
52684SOL    HW169776   2.225   3.329   8.325 -1.9936  0.4121 -0.9813
52684SOL    HW269777   2.296   3.414   8.428  0.6704 -0.1423 -2.2808
52685SOL     OW69778   3.929   6.899   6.132 -0.0620 -0.3107 -0.4385
52685SOL    HW169779   3.934   6.928   6.041  2.6991 -0.6507 -0.4770
52685SOL    HW269780   4.011   6.853   6.147  0.3830  1.2528  2.7356
52686SOL     OW69781   6.978   6.246   4.551 -0.1913  0.1623 -0.1885
52686SOL    HW169782   6.978   6.340   4.570 -0.0859  0.6410 -2.2776
52686SOL    HW269783   7.071   6.224   4.542 -0.1327 -0.4916  1.6420
52687SOL     OW69784   2.886  10.159   9.583 -0.2884  0.1051  0.1549
52687SOL    HW169785   2.875  10.096   9.512  0.2584  0.4538 -0.2405
52687SOL    HW269786   2.978  10.186   9.578  0.0267 -0.5832  1.5925
52688SOL     OW69787   9.806   8.946  10.098 -0.4394  0.3158 -0.5915
52688SOL    HW169788   9.723   8.911  10.131 -0.3967 -0.8892 -1.6658
52688SOL    HW269789   9.780   9.009  10.031 -0.5003 -0.0369 -0.9039
52689SOL     OW69790   2.196   7.027   3.424 -0.0737  0.5771 -0.2269
52689SOL    HW169791   2.214   6.945   3.471 -2.1754 -0.9212 -1.8399
52689SOL    HW269792   2.264   7.031   3.357 -0.6749 -0.5924 -0.9516
52690SOL     OW69793   1.161   4.591   9.887 -0.3991  0.7821  0.0873
52690SOL    HW169794   1.209   4.620   9.809  0.9687 -0.5750  0.3753
52690SOL    HW269795   1.172   4.496   9.888  0.6690  0.8668  2.5825
52691SOL     OW69796   6.443   2.251   4.357  0.1203 -0.1949 -0.4398
52691SOL    HW169797   6.429   2.305   4.435  1.1964 -1.4853  0.7147
52691SOL    HW269798   6.527   2.208   4.373  0.8908  0.2929 -2.8223
52692SOL     OW69799   2.545   9.967   0.433 -0.1800 -0.0525  0.1108
52692SOL    HW169800   2.469   9.911   0.415 -1.1641  1.2928 -0.0331
52692SOL    HW269801   2.574   9.940   0.520 -0.7379 -0.6659  0.1141
52693SOL     OW69802   9.730   0.497   9.313 -0.0023 -0.1120  0.1425
52693SOL    HW169803   9.702   0.410   9.341 -0.9822  0.8146  2.2375
52693SOL    HW269804   9.804   0.518   9.370 -0.2483  0.7215  0.1733
52694SOL     OW69805   6.707   4.009   9.221  0.0161  0.3739 -0.1277
52694SOL    HW169806   6.716   3.920   9.188 -1.4374 -0.2494  1.0516
52694SOL    HW269807   6.757   4.063   9.159 -0.3649 -1.0621 -1.7495
52695SOL     OW69808  10.899   6.500  10.622 -0.2316 -0.0224  0.5298
52695SOL    HW169809  10.894   6.407  10.597 -0.7654  0.2401 -0.4108
52695SOL    HW269810  10.812   6.520  10.658 -0.0650  0.0655  0.8769
52696SOL     OW69811   2.766   1.445  11.793 -0.1964 -0.4117 -0.3888
52696SOL    HW169812   2.686   1.401  11.824 -0.0790 -1.0158 -0.9116
52696SOL    HW269813   2.837   1.387  11.820 -0.0684 -0.7956 -1.4862
52697SOL     OW69814   0.671   0.666  11.893 -0.0016  0.0143 -0.2832
52697SOL    HW169815   0.652   0.706  11.808  0.3467  1.6422  0.3493
52697SOL    HW269816   0.763   0.639  11.886 -0.6437 -2.0717 -1.2066
52698SOL     OW69817   3.466   2.391   4.209  0.0286  0.4540 -0.1157
52698SOL    HW169818   3.516   2.349   4.279  0.7270  0.3650 -0.6561
52698SOL    HW269819   3.398   2.327   4.186 -0.5401  0.7029  0.8297
52699SOL     OW69820   4.517   8.825   4.429 -0.3842  0.0766 -0.8979
52699SOL    HW169821   4.481   8.877   4.500  0.9468 -0.4276  0.2027
52699SOL    HW269822   4.442   8.804   4.374 -1.4476  0.5463  0.3129
52700SOL     OW69823   1.750   1.930   9.070  0.0713 -0.2880  0.6028
52700SOL    HW169824   1.732   1.885   8.988 -0.5387 -0.1366  0.6473
52700SOL    HW269825   1.734   2.023   9.051  1.3752 -0.0689  0.4958
52701SOL     OW69826  10.869   0.190  11.505 -0.2213 -0.7875 -0.1297
52701SOL    HW169827  10.828   0.125  11.562  0.8646 -0.0671  1.5442
52701SOL    HW269828  10.798   0.247  11.477 -0.6469 -0.5423  1.3796
52702SOL     OW69829   5.093   3.195   5.272  0.4693  0.4163 -0.8955
52702SOL    HW169830   5.093   3.131   5.201  1.5684  0.5107 -1.0002
52702SOL    HW269831   5.120   3.145   5.349 -1.3954  0.1600 -0.3733
52703SOL     OW69832   3.493   3.962  11.391 -0.0296  0.1018 -0.3035
52703SOL    HW169833   3.586   3.985  11.396 -0.1984  0.8894 -0.6492
52703SOL    HW269834   3.470   3.935  11.480  0.8371 -1.3549 -0.4886
52704SOL     OW69835   5.638   4.654   3.666 -0.1178  0.1350 -0.2543
52704SOL    HW169836   5.567   4.649   3.602  0.9760 -0.3193 -1.4945
52704SOL    HW269837   5.665   4.562   3.678 -0.8933  0.1202  1.5695
52705SOL     OW69838   5.488   9.939   3.537 -0.3144  0.3686 -0.1521
52705SOL    HW169839   5.529  10.011   3.586 -0.9841  0.2324  0.6399
52705SOL    HW269840   5.517   9.860   3.582  0.7340  0.0927 -1.2589
52706SOL     OW69841   8.145   3.513   9.626  0.3337 -0.3426  0.0276
52706SOL    HW169842   8.141   3.520   9.721  0.5110 -1.2689  0.1078
52706SOL    HW269843   8.209   3.580   9.600  0.0139  0.1655  0.5207
52707SOL     OW69844   1.648   9.368  10.425 -0.0858 -0.4200 -0.2918
52707SOL    HW169845   1.736   9.335  10.405  0.3037  0.3844  0.0079
52707SOL    HW269846   1.625   9.324  10.507  1.4101  1.6897  1.3854
52708SOL     OW69847   6.744   2.441   0.241  0.6449  0.2183 -0.5115
52708SOL    HW169848   6.697   2.414   0.320  2.0130  0.8847  0.5622
52708SOL    HW269849   6.776   2.359   0.203 -0.3911 -0.1447 -0.6519
52709SOL     OW69850  11.830  10.363   6.539 -0.0113  0.3891 -0.3930
52709SOL    HW169851  11.797  10.275   6.520 -0.8324  0.2842  1.3613
52709SOL    HW269852  11.925  10.352   6.539 -0.1083 -0.6456  0.3745
52710SOL     OW69853   3.053   5.612   5.339 -0.0434 -0.3996  0.0261
52710SOL    HW169854   3.029   5.540   5.396 -1.5577 -0.5019 -0.6808
52710SOL    HW269855   3.042   5.577   5.250  0.0970  0.4149 -0.3240
52711SOL     OW69856   4.874   9.944   2.821  0.2836 -0.3600  0.7996
52711SOL    HW169857   4.813   9.924   2.750  0.4914 -1.5828  0.9442
52711SOL    HW269858   4.954   9.973   2.778  0.0986 -0.1990  0.5656
52712SOL     OW69859  11.570  11.866  10.288  0.2898 -0.1223 -0.3201
52712SOL    HW169860  11.595  11.794  10.346 -0.5399  0.2432  0.5289
52712SOL    HW269861  11.569  11.943  10.345  0.1057  0.3694 -0.9750
52713SOL     OW69862   7.874   8.285   5.448  0.3429  0.2592  0.5498
52713SOL    HW169863   7.963   8.316   5.429  0.1042 -0.4050 -1.9749
52713SOL    HW269864   7.830   8.286   5.363 -1.6221 -0.8620  1.5012
52714SOL     OW69865   4.409   9.023   1.698  0.1482  0.1324 -0.2809
52714SOL    HW169866   4.338   9.058   1.644  0.1254  0.2520 -0.1745
52714SOL    HW269867   4.381   8.934   1.719  0.3587 -0.0671 -0.8216
52715SOL     OW69868   0.003   1.772  10.894 -0.2289 -0.6377  0.2310
52715SOL    HW169869   0.036   1.854  10.858 -0.6978 -0.4238  0.2745
52715SOL    HW269870  -0.023   1.794  10.984  0.1986 -0.9775  0.4449
52716SOL     OW69871   2.104   7.041  10.228  0.7778 -0.3176  0.3602
52716SOL    HW169872   2.167   6.984  10.185  0.1942  0.8145 -2.1253
52716SOL    HW269873   2.122   7.128  10.195 -1.9206  0.0791 -0.3028
52717SOL     OW69874  11.697   8.924   5.589  0.1719  0.3010  0.5435
52717SOL    HW169875  11.736   8.961   5.668 -1.0947  2.5735  0.1973
52717SOL    HW269876  11.714   8.988   5.521 -1.6739  0.0386 -0.2380
52718SOL     OW69877  10.456   5.198  10.533 -0.3496 -0.0600  0.6310
52718SOL    HW169878  10.546   5.167  10.524 -0.2406  0.0680  1.2043
52718SOL    HW269879  10.421   5.198  10.444  0.3406  0.2603  0.3522
52719SOL     OW69880   5.592  10.452   7.585 -0.1664  0.4295 -0.0258
52719SOL    HW169881   5.565  10.496   7.505 -0.1591  1.5410  0.5594
52719SOL    HW269882   5.654  10.512   7.626  0.8088 -0.6946  0.1929
52720SOL     OW69883   4.248   2.918   0.886 -0.6215  0.1418  0.0800
52720SOL    HW169884   4.257   2.979   0.959 -0.3991  0.8567 -0.5255
52720SOL    HW269885   4.275   2.833   0.921 -2.5696  0.0231  1.4099
52721SOL     OW69886   7.698   6.756   5.843 -0.0824  0.5859 -0.1906
52721SOL    HW169887   7.762   6.813   5.887  0.4110 -0.1252  0.0309
52721SOL    HW269888   7.620   6.810   5.834 -0.0316  0.9091  1.1276
52722SOL     OW69889   0.314   5.586   1.353  0.0085 -0.0724 -0.5820
52722SOL    HW169890   0.299   5.669   1.397  0.2760  0.3685 -1.3032
52722SOL    HW269891   0.316   5.521   1.424 -1.5041  0.3352 -0.1100
52723SOL     OW69892   1.395  11.288   2.531  0.1222  0.0655  0.2440
52723SOL    HW169893   1.317  11.249   2.490  0.2634 -0.0528  0.0877
52723SOL    HW269894   1.419  11.360   2.474  0.6708 -0.4677 -0.2061
52724SOL     OW69895   0.782   4.552   9.397 -0.3603 -0.0395  0.7569
52724SOL    HW169896   0.801   4.619   9.462 -1.2071 -0.7501  1.7649
52724SOL    HW269897   0.765   4.601   9.316  0.6874  0.8458  1.0511
52725SOL     OW69898   3.112   1.429   3.066 -0.2104 -0.5345  0.1723
52725SOL    HW169899   3.150   1.413   2.980 -1.4359  0.1399 -0.5196
52725SOL    HW269900   3.026   1.387   3.062 -0.5815  0.1503  0.8156
52726SOL     OW69901   6.256   3.487   5.083 -0.0201  1.0682  0.1912
52726SOL    HW169902   6.249   3.468   5.177  0.2517 -1.2358 -0.2027
52726SOL    HW269903   6.330   3.547   5.077 -0.0934  1.3260  1.4593
52727SOL     OW69904  10.327   4.549   1.093 -0.5186 -0.7800  0.3068
52727SOL    HW169905  10.310   4.624   1.150  3.0755  0.4023  0.0735
52727SOL    HW269906  10.383   4.491   1.144  2.6367  0.2198 -1.6883
52728SOL     OW69907  11.083   3.257   6.541  0.4309  0.5612  0.0418
52728SOL    HW169908  11.047   3.218   6.462  1.0188  0.3465 -0.1173
52728SOL    HW269909  11.157   3.309   6.512  0.3261  0.9164  0.3884
52729SOL     OW69910   7.313  11.300   0.912 -0.4128 -0.2171 -0.1923
52729SOL    HW169911   7.317  11.284   1.007  0.6689  1.9195  0.1828
52729SOL    HW269912   7.246  11.367   0.902  0.5963  0.7435 -0.7158
52730SOL     OW69913  10.070   0.819   1.245  0.3071 -0.4803 -0.0087
52730SOL    HW169914  10.071   0.736   1.294 -0.9793 -1.1853 -1.0995
52730SOL    HW269915  10.080   0.886   1.313 -1.8417 -1.3979  1.3413
52731SOL     OW69916   6.336   0.910   3.079  0.1276  0.4407  0.0298
52731SOL    HW169917   6.424   0.947   3.075  0.0833  0.4616 -1.1300
52731SOL    HW269918   6.317   0.883   2.990 -1.3455  1.1535  0.0842
52732SOL     OW69919   8.811   5.753   0.897  0.8441  0.4117  0.0552
52732SOL    HW169920   8.896   5.794   0.915  2.1887 -2.1700  0.0894
52732SOL    HW269921   8.832   5.674   0.848 -1.6211 -0.0236 -0.4431
52733SOL     OW69922   3.523   2.608   4.045 -0.5708  0.4212 -0.0818
52733SOL    HW169923   3.507   2.553   4.122  0.5929 -1.3929 -1.0731
52733SOL    HW269924   3.446   2.665   4.040 -1.4051 -0.4979  1.5137
52734SOL     OW69925   8.537   7.038   5.338 -0.5416  0.0377  0.0313
52734SOL    HW169926   8.574   7.111   5.288 -1.0367 -0.5566 -1.2482
52734SOL    HW269927   8.525   6.969   5.274  0.9677 -1.6070  1.4342
52735SOL     OW69928   1.060   4.363   2.870  0.1040 -0.1703  0.0699
52735SOL    HW169929   1.134   4.413   2.906  1.6780  1.3387 -4.5248
52735SOL    HW269930   1.092   4.273   2.866  0.1171 -0.2644  1.6088
52736SOL     OW69931   1.502   1.183   6.522 -0.2447  0.3428  0.3833
52736SOL    HW169932   1.574   1.191   6.584 -0.0488  0.8755  0.0926
52736SOL    HW269933   1.423   1.189   6.576 -0.2488 -4.2760  1.3425
52737SOL     OW69934   1.727   1.800   0.555  0.4020  0.1649  0.5699
52737SOL    HW169935   1.813   1.838   0.568 -0.3209  1.4396  1.9494
52737SOL    HW269936   1.676   1.869   0.513  0.3494 -1.0040 -1.3995
52738SOL     OW69937   5.508   7.375   1.458  0.2656 -0.0106  0.5884
52738SOL    HW169938   5.435   7.375   1.520 -0.4288 -1.5675 -0.1954
52738SOL    HW269939   5.467   7.397   1.374  0.0276 -3.9290 -0.4940
52739SOL     OW69940   5.526  11.323   5.761  0.0104 -0.5309 -0.1394
52739SOL    HW169941   5.470  11.400   5.759 -0.7802 -1.1000 -0.2035
52739SOL    HW269942   5.518  11.286   5.673  1.9236  0.3802 -0.7641
52740SOL     OW69943   7.035  10.941   8.387 -0.1114  0.3364  0.3552
52740SOL    HW169944   7.019  10.917   8.478  1.1192  0.3592  0.6007
52740SOL    HW269945   7.004  10.866   8.336 -3.2817  1.3559  0.5470
52741SOL     OW69946   1.814   0.223   8.769  0.1879 -0.1730  0.3806
52741SOL    HW169947   1.795   0.267   8.852 -0.0358 -1.1862  0.8928
52741SOL    HW269948   1.877   0.155   8.793  1.1797  0.4079 -0.5406
52742SOL     OW69949   7.386  10.167   9.973 -0.1387  0.2071  0.1048
52742SOL    HW169950   7.468  10.192  10.015  0.4667 -0.7999 -0.4470
52742SOL    HW269951   7.411  10.103   9.907 -1.4169 -0.4426  0.2191
52743SOL     OW69952   5.331   1.939   2.992 -0.0604  0.0767 -0.1448
52743SOL    HW169953   5.420   1.933   2.958  0.1263 -0.3928  0.4055
52743SOL    HW269954   5.330   1.878   3.066 -1.5419 -1.8560 -1.6533
52744SOL     OW69955   5.548  10.916   8.024  0.1538 -0.3552 -0.3622
52744SOL    HW169956   5.570  10.868   7.944  3.7082 -0.0912  0.3103
52744SOL    HW269957   5.576  11.005   8.008 -0.0146 -0.0634  0.8511
52745SOL     OW69958   1.343   6.428   6.853 -0.1693 -0.3611  0.3848
52745SOL    HW169959   1.352   6.415   6.947 -0.9561 -0.2392  0.4880
52745SOL    HW269960   1.257   6.391   6.832 -2.0104  3.3750  0.4861
52746SOL     OW69961   2.817   6.569   8.285 -0.5443 -0.1128 -0.0973
52746SOL    HW169962   2.787   6.563   8.195  1.3156 -1.2772 -0.7075
52746SOL    HW269963   2.765   6.503   8.332  0.4108 -1.5596 -0.9639
52747SOL     OW69964  11.039   7.818  11.242 -0.0355  0.5612  0.5769
52747SOL    HW169965  10.945   7.805  11.253 -0.4065  0.6963 -1.8474
52747SOL    HW269966  11.051   7.913  11.248 -0.0988  0.5613  0.6854
52748SOL     OW69967   8.557   3.860   3.674 -0.1379 -0.3270 -0.1389
52748SOL    HW169968   8.553   3.830   3.583  0.0469 -0.4671 -0.1022
52748SOL    HW269969   8.640   3.825   3.707  0.3850  0.7582 -0.2791
52749SOL     OW69970   5.640   7.308   9.253 -0.0277  0.1444 -0.0173
52749SOL    HW169971   5.627   7.364   9.177  1.8380 -0.8068 -1.1210
52749SOL    HW269972   5.731   7.280   9.247 -0.4629 -1.8036  1.3005
52750SOL     OW69973  11.581   8.927   6.044 -0.2041  0.3322 -0.1444
52750SOL    HW169974  11.650   8.862   6.058 -0.2319 -0.2021 -2.2272
52750SOL    HW269975  11.500   8.877   6.049 -0.2858  0.4202 -0.5468
52751SOL     OW69976   7.559  11.694   8.112 -0.4735 -0.8680 -0.7746
52751SOL    HW169977   7.645  11.673   8.076 -0.6205 -0.8708 -1.1273
52751SOL    HW269978   7.512  11.611   8.111  0.0985 -1.2835  1.0818
52752SOL     OW69979   8.852   4.562   4.695 -0.3487  0.1716 -0.4687
52752SOL    HW169980   8.902   4.482   4.678 -3.4786 -1.5826 -2.3377
52752SOL    HW269981   8.912   4.618   4.743  2.6523 -2.5285 -0.7575
52753SOL     OW69982   4.466   3.984   2.998  0.0547  0.4047 -1.0946
52753SOL    HW169983   4.382   3.976   3.043  1.4985 -0.8505  1.5797
52753SOL    HW269984   4.480   3.898   2.958 -0.8801  1.2893 -3.5242
52754SOL     OW69985   2.497   7.815   3.372 -0.4115 -0.4508 -0.3442
52754SOL    HW169986   2.512   7.722   3.390  0.1932  0.1103  2.4167
52754SOL    HW269987   2.584   7.850   3.353 -0.7696 -0.5851 -2.5405
52755SOL     OW69988   2.075   8.227   2.477  0.6953 -0.0307 -0.1257
52755SOL    HW169989   2.034   8.221   2.391  0.2646 -0.5264  0.1071
52755SOL    HW269990   2.103   8.138   2.497 -0.4088 -0.1820  0.8221
52756SOL     OW69991   8.928   4.539   9.485 -0.6731 -0.4149  0.3449
52756SOL    HW169992   8.904   4.588   9.406  1.2195  0.3012  0.1682
52756SOL    HW269993   8.889   4.452   9.471 -0.2438 -0.3604 -1.4674
52757SOL     OW69994   5.942   0.440   6.654  0.5369 -0.2540 -0.0091
52757SOL    HW169995   5.905   0.461   6.740 -0.1897 -0.0569 -0.3653
52757SOL    HW269996   6.026   0.398   6.674  0.1108 -0.7313  0.8090
52758SOL     OW69997   2.008   6.211  11.475  0.0255 -0.0336  0.0958
52758SOL    HW169998   1.946   6.141  11.499 -0.8680  0.8189  0.3246
52758SOL    HW269999   2.061   6.223  11.554 -0.7794  0.5243  0.5760
52759SOL     OW70000  11.097   7.834   7.333  0.0824  0.0804  0.9123
52759SOL    HW170001  11.008   7.864   7.350 -0.2419 -1.2221  1.7057
52759SOL    HW270002  11.086   7.754   7.281  0.9163  1.3986 -1.4534
52760SOL     OW70003   5.311   3.722   9.687 -0.4471 -0.2320 -0.1738
52760SOL    HW170004   5.309   3.772   9.605  0.2503  0.2818  0.1151
52760SOL    HW270005   5.221   3.691   9.698 -1.1928  1.9070  0.1980
52761SOL     OW70006   5.902   6.533  10.150  0.2487 -0.5064  0.0860
52761SOL    HW170007   5.956   6.469  10.197  0.2574  0.4116  1.4013
52761SOL    HW270008   5.964   6.595  10.113  0.1828  1.2413  2.6154
52762SOL     OW70009   7.019   1.385  10.752  0.3952  0.3317  0.0561
52762SOL    HW170010   7.059   1.391  10.839 -0.1571 -0.9912  0.4211
52762SOL    HW270011   6.928   1.413  10.766  0.3160  0.1557 -0.1034
52763SOL     OW70012   9.624   5.153   0.950 -0.4680 -0.2135  0.0583
52763SOL    HW170013   9.567   5.077   0.953 -1.1116  0.2801  0.4370
52763SOL    HW270014   9.572   5.221   0.907 -1.0483  0.9624  2.4642
52764SOL     OW70015   3.072   9.565   0.308 -0.1307  0.1085  0.2260
52764SOL    HW170016   3.070   9.661   0.311  0.1747  0.0962  1.1366
52764SOL    HW270017   2.997   9.541   0.254 -0.3013  0.8612  0.1208
52765SOL     OW70018  11.034   7.903   3.843 -0.7045 -0.0012  0.6383
52765SOL    HW170019  11.009   7.813   3.825  1.5437 -0.5031 -0.3697
52765SOL    HW270020  10.958   7.941   3.887 -1.7413 -2.3456  1.0258
52766SOL     OW70021   0.895  11.262  10.920  0.4388 -0.0984  0.0229
52766SOL    HW170022   0.939  11.307  10.992  0.6607 -1.2402  0.6224
52766SOL    HW270023   0.872  11.332  10.858 -1.9970  1.3218  2.3042
52767SOL     OW70024   6.860   8.028   4.415  0.6228  0.1263  0.0353
52767SOL    HW170025   6.885   7.939   4.392 -0.0170  0.0151 -0.2394
52767SOL    HW270026   6.815   8.021   4.498 -1.7383 -0.1702 -1.1980
52768SOL     OW70027   8.559   0.383   2.729  0.3110  0.3516 -0.2556
52768SOL    HW170028   8.631   0.328   2.759 -0.6598 -1.2223 -0.7077
52768SOL    HW270029   8.557   0.456   2.791  1.3454 -0.3532  0.6361
52769SOL     OW70030   5.033   6.466   5.018  0.0223  0.1468 -0.3092
52769SOL    HW170031   5.118   6.427   4.998  0.1282  0.5447 -0.6618
52769SOL    HW270032   4.986   6.398   5.067  0.4023 -0.2131 -0.4361
52770SOL     OW70033   9.391  10.657   4.490 -0.2335  0.0794 -0.4456
52770SOL    HW170034   9.441  10.598   4.434 -2.3259 -0.3405 -1.9667
52770SOL    HW270035   9.447  10.735   4.497  1.1478 -0.8034 -1.0758
52771SOL     OW70036   0.645   4.633   9.814 -0.1803 -0.6628  0.4443
52771SOL    HW170037   0.584   4.602   9.881 -0.0286 -0.2524  0.7709
52771SOL    HW270038   0.724   4.656   9.862 -0.3227  0.3399  0.2205
52772SOL     OW70039   3.710   2.732   7.653  0.2104 -0.2913  0.1502
52772SOL    HW170040   3.660   2.651   7.664 -0.5837  0.0810 -0.5919
52772SOL    HW270041   3.716   2.770   7.740  0.2002 -0.9150  0.4274
52773SOL     OW70042   5.333  11.411  11.889 -0.2652 -0.3176 -0.1001
52773SOL    HW170043   5.293  11.483  11.938  1.7946  0.6759  0.2150
52773SOL    HW270044   5.392  11.453  11.827  2.0989 -1.7013  1.0647
52774SOL     OW70045   2.526   1.606   3.567  0.6447 -0.2542 -0.1802
52774SOL    HW170046   2.507   1.668   3.497  1.9119  0.1304 -0.2116
52774SOL    HW270047   2.613   1.630   3.598 -0.0694 -0.1271  1.8672
52775SOL     OW70048   5.496  10.724   9.140  0.5120 -0.8262  0.5220
52775SOL    HW170049   5.558  10.791   9.111 -2.5109  0.9665 -2.5021
52775SOL    HW270050   5.466  10.754   9.226  1.6728 -0.1821  0.7204
52776SOL     OW70051  11.704   7.408   8.134 -0.7032 -0.0352 -0.2355
52776SOL    HW170052  11.705   7.489   8.185 -1.8050  0.9288 -1.6724
52776SOL    HW270053  11.617   7.372   8.148 -0.3561 -0.7936  0.0621
52777SOL     OW70054   0.933   0.599   2.734  0.4443  0.2241 -0.6058
52777SOL    HW170055   0.884   0.654   2.672  0.3663  0.3470 -0.4358
52777SOL    HW270056   0.946   0.655   2.811  0.5770  0.0857 -0.5279
52778SOL     OW70057  10.103   6.283   4.907  0.5434  0.1894 -0.0912
52778SOL    HW170058  10.161   6.331   4.848  1.3875  0.3351  0.8333
52778SOL    HW270059  10.017   6.321   4.892  0.7137  0.1071 -1.3480
52779SOL     OW70060   6.570   3.164   9.895  0.2203 -0.2556 -1.2833
52779SOL    HW170061   6.579   3.242   9.950 -0.6172 -0.8515 -0.2687
52779SOL    HW270062   6.657   3.124   9.897  0.2410 -0.1872 -0.5003
52780SOL     OW70063   9.165   1.377  10.176  0.9545  0.5036 -0.3136
52780SOL    HW170064   9.218   1.456  10.162  1.0159  0.4646 -0.2989
52780SOL    HW270065   9.113   1.370  10.096  2.4178 -0.5816 -1.2229
52781SOL     OW70066   5.961   0.563   8.447  0.7820  0.1340  0.2736
52781SOL    HW170067   6.054   0.542   8.440  0.7845  0.0907  0.4368
52781SOL    HW270068   5.946   0.627   8.377  1.0236  0.4523  0.5092
52782SOL     OW70069   1.942   5.685   3.338  0.2294 -0.4527 -0.0015
52782SOL    HW170070   2.029   5.646   3.340  0.9289  0.9292 -0.8998
52782SOL    HW270071   1.887   5.627   3.390  1.2410 -2.4299 -1.0316
52783SOL     OW70072  10.469   4.858   9.316 -0.3673 -0.2858 -0.2376
52783SOL    HW170073  10.462   4.767   9.346 -0.6523  0.1546  1.1049
52783SOL    HW270074  10.461   4.853   9.221 -1.0701 -1.5964 -0.1271
52784SOL     OW70075   8.188  10.067   3.538 -0.2877 -0.2393  0.3199
52784SOL    HW170076   8.130  10.097   3.469 -0.9941  0.6724  1.2871
52784SOL    HW270077   8.263  10.127   3.535  0.1160 -0.7638 -0.2390
52785SOL     OW70078   6.118  11.271   5.318  0.7524 -0.5910  0.3029
52785SOL    HW170079   6.150  11.200   5.262  0.4160  0.0419 -0.7136
52785SOL    HW270080   6.027  11.248   5.335 -0.2906  1.0024 -2.4675
52786SOL     OW70081   3.166   9.915   7.186  0.1317  0.5890 -0.2794
52786SOL    HW170082   3.073   9.905   7.167  0.0036  1.4325 -0.1302
52786SOL    HW270083   3.206   9.836   7.150 -0.5228  0.6461 -1.1789
52787SOL     OW70084   4.695   5.339   6.470  0.2963 -0.8809  0.3494
52787SOL    HW170085   4.775   5.370   6.429  0.8316 -0.2777  1.7940
52787SOL    HW270086   4.683   5.250   6.435  1.1935 -0.7102 -0.4186
52788SOL     OW70087   7.847   4.633   1.530  0.2185  0.1574  0.3436
52788SOL    HW170088   7.838   4.713   1.477  0.1792 -0.2334 -0.2469
52788SOL    HW270089   7.792   4.569   1.486 -0.5557  0.0750  1.3890
52789SOL     OW70090   0.164   5.976   5.760 -0.7870  0.1986 -0.1685
52789SOL    HW170091   0.194   6.032   5.832 -0.8223  0.9979 -0.7729
52789SOL    HW270092   0.126   6.036   5.696  1.2171 -0.2397 -1.8825
52790SOL     OW70093  11.076   8.583   2.321 -0.0237 -0.0716 -0.2214
52790SOL    HW170094  11.140   8.513   2.337  0.7815  1.0819  2.2277
52790SOL    HW270095  11.012   8.573   2.391  0.5635  2.0600  0.7063
52791SOL     OW70096   8.682   9.528   5.050  0.2254  0.1979  0.1022
52791SOL    HW170097   8.649   9.473   4.979 -0.4136  0.9123 -0.1727
52791SOL    HW270098   8.697   9.468   5.123  2.1070 -0.7556 -1.0028
52792SOL     OW70099   4.050  10.382   8.134  0.5392  0.2459  0.2320
52792SOL    HW170100   4.007  10.397   8.218  0.6104  1.1332  0.1223
52792SOL    HW270101   4.124  10.443   8.134  0.4809  0.3275 -0.5176
52793SOL     OW70102   9.354   5.949   0.309  0.0365 -1.1488  0.1350
52793SOL    HW170103   9.337   5.994   0.226  1.5292 -0.7921  0.0079
52793SOL    HW270104   9.306   6.000   0.374  2.1707  1.0626  0.0918
52794SOL     OW70105   3.610   6.511   5.711  0.3067 -0.2248 -0.0038
52794SOL    HW170106   3.562   6.592   5.695  1.5218  0.8849  1.5669
52794SOL    HW270107   3.542   6.446   5.728 -0.7583  0.0226 -2.7619
52795SOL     OW70108   9.631   4.732   0.282  0.1836  0.0840  0.0762
52795SOL    HW170109   9.692   4.802   0.305 -1.1699  0.8290  1.5991
52795SOL    HW270110   9.685   4.653   0.276  1.7791  1.2054 -1.8122
52796SOL     OW70111   0.040   6.165   5.598 -0.1401 -0.5349  0.0770
52796SOL    HW170112  -0.051   6.195   5.598 -0.1807 -0.6298 -0.9803
52796SOL    HW270113   0.074   6.190   5.512  1.6955  2.0398  1.4009
52797SOL     OW70114   2.303  11.645   5.366  0.4902 -0.2721 -0.4080
52797SOL    HW170115   2.309  11.706   5.440  0.9176 -2.2620  1.3166
52797SOL    HW270116   2.315  11.699   5.288 -1.1031  2.1142  0.8926
52798SOL     OW70117   6.318   7.454   3.938 -0.1340  0.0577  0.2531
52798SOL    HW170118   6.241   7.497   3.976 -0.5529 -0.2329 -0.2635
52798SOL    HW270119   6.386   7.521   3.940 -0.0650 -0.0141  1.7489
52799SOL     OW70120   2.586   0.095   1.327 -0.5267  0.1644  0.0646
52799SOL    HW170121   2.498   0.096   1.290  1.1535 -0.8572 -4.6967
52799SOL    HW270122   2.630   0.023   1.282  3.6291  2.6094 -0.3224
52800SOL     OW70123   6.950   6.501   5.320  0.3448  0.2827  0.1423
52800SOL    HW170124   6.864   6.467   5.296  0.6443 -0.0077 -0.5508
52800SOL    HW270125   7.011   6.458   5.261  1.1381 -0.5145  1.4786
52801SOL     OW70126   5.996   1.211  11.057 -0.3187 -0.4173 -0.0726
52801SOL    HW170127   5.998   1.264  11.137 -1.9334 -0.6785  0.1871
52801SOL    HW270128   5.998   1.275  10.986  3.4287 -0.2314  0.0274
52802SOL     OW70129   1.676   8.967   1.745  0.4118  0.0106 -0.6449
52802SOL    HW170130   1.757   8.916   1.757  1.7945  2.3588  0.7555
52802SOL    HW270131   1.619   8.938   1.817  0.7658 -0.3201 -0.4926
52803SOL     OW70132   6.632  10.256   6.355 -0.5411  0.4913  0.5386
52803SOL    HW170133   6.633  10.324   6.288 -0.7225 -0.3414 -0.3301
52803SOL    HW270134   6.584  10.184   6.315  2.8103 -1.6252 -0.0349
52804SOL     OW70135  10.567   7.610   5.833  0.7883 -0.3886 -0.0227
52804SOL    HW170136  10.637   7.613   5.898  0.1492  0.4748  0.6388
52804SOL    HW270137  10.495   7.660   5.871 -0.4840 -1.8570 -0.3780
52805SOL     OW70138  10.061   1.689   2.031  0.2484 -0.6678 -0.0234
52805SOL    HW170139   9.998   1.633   2.077  2.2690 -1.1303  2.3888
52805SOL    HW270140  10.048   1.776   2.069 -0.4556 -0.2539 -1.1798
52806SOL     OW70141  10.414   0.911   8.146  0.1389 -0.0754 -0.1844
52806SOL    HW170142  10.433   0.843   8.082 -0.6412  0.6922 -1.2616
52806SOL    HW270143  10.323   0.935   8.130  0.2449  0.8556  0.5267
52807SOL     OW70144   0.246   6.301   8.553  0.4415  0.0664  0.2167
52807SOL    HW170145   0.159   6.272   8.582 -0.0053  1.2292  0.0664
52807SOL    HW270146   0.231   6.343   8.469  1.5991 -2.4353 -1.3702
52808SOL     OW70147   8.517   5.078   6.083  0.3711  0.4253  0.3495
52808SOL    HW170148   8.455   5.068   6.010  0.6290 -2.1664  0.4119
52808SOL    HW270149   8.601   5.092   6.040  0.2592  0.6336  0.1942
52809SOL     OW70150   8.293  11.162  11.936 -0.3143 -0.2563  0.6160
52809SOL    HW170151   8.311  11.117  12.018 -0.3948  0.6729  1.1510
52809SOL    HW270152   8.313  11.097  11.868  3.1389  0.0186  1.2156
52810SOL     OW70153   6.119   2.994  11.406 -0.4452 -0.4805 -0.1578
52810SOL    HW170154   6.033   3.002  11.447 -0.0542 -0.0984  0.5842
52810SOL    HW270155   6.139   3.082  11.374  0.0763 -0.3597  0.4873
52811SOL     OW70156   1.246   3.067   8.132 -0.1654 -0.5308  0.1637
52811SOL    HW170157   1.179   3.002   8.156 -0.0328 -0.8921 -0.4287
52811SOL    HW270158   1.203   3.122   8.066 -0.2517 -0.0583  0.6117
52812SOL     OW70159   7.378   5.406   7.407 -0.5235 -0.0017  0.2737
52812SOL    HW170160   7.455   5.458   7.382 -0.8698  1.5468  2.1222
52812SOL    HW270161   7.412   5.345   7.473 -0.3623 -1.3002 -0.9859
52813SOL     OW70162   4.522   9.129   0.731 -0.6987  0.4814  0.7867
52813SOL    HW170163   4.527   9.222   0.710 -3.6801  0.3264 -1.2856
52813SOL    HW270164   4.531   9.085   0.647  0.8167 -1.1857  1.7522
52814SOL     OW70165   4.158   8.766   9.649  0.1911  0.1569 -0.0327
52814SOL    HW170166   4.109   8.684   9.642  0.1757  0.2943 -2.0784
52814SOL    HW270167   4.097   8.827   9.691  0.7667 -1.2405  3.1199
52815SOL     OW70168   6.140   4.076   9.091  0.4334  0.6431  0.5874
52815SOL    HW170169   6.173   3.987   9.080  2.8858  1.5820 -0.4500
52815SOL    HW270170   6.062   4.080   9.035  0.3682 -0.7892  0.5317
52816SOL     OW70171   4.393   3.074   6.191  0.1594  0.1068 -0.2634
52816SOL    HW170172   4.371   3.132   6.263 -0.5998 -0.2358 -0.2148
52816SOL    HW270173   4.315   3.020   6.178  0.3370  0.0698 -1.2503
52817SOL     OW70174   4.857   6.171  10.435 -1.0955  0.3822  0.3650
52817SOL    HW170175   4.842   6.151  10.342  0.6696  1.1137 -0.1129
52817SOL    HW270176   4.910   6.098  10.467  1.5950  1.9202 -0.2567
52818SOL     OW70177   5.694  10.062   0.003  0.2130  0.0735 -0.1395
52818SOL    HW170178   5.731   9.981  -0.030 -1.1187 -0.8009  0.4260
52818SOL    HW270179   5.755  10.090   0.071  0.3395 -0.8355  0.1401
52819SOL     OW70180   6.762   3.773   1.687  0.4391  0.1297  0.5293
52819SOL    HW170181   6.758   3.679   1.701 -0.3578  0.1983  0.7836
52819SOL    HW270182   6.833   3.785   1.624  0.1792 -0.6839  0.0754
52820SOL     OW70183   4.981   7.981  10.967  0.2712 -0.2707  0.1129
52820SOL    HW170184   5.058   7.934  11.001  0.7252 -0.5246 -1.2051
52820SOL    HW270185   5.015   8.064  10.936  0.2744 -0.8941 -1.6557
52821SOL     OW70186   8.523   1.480   1.238  0.4045  0.5701  0.2826
52821SOL    HW170187   8.503   1.479   1.144 -1.3889  1.9207  0.6077
52821SOL    HW270188   8.476   1.405   1.273 -1.0155  1.5180  0.4578
52822SOL     OW70189   4.390   3.554  11.139 -0.0601  0.4297  0.1731
52822SOL    HW170190   4.406   3.465  11.170  1.6828  0.9791  0.9845
52822SOL    HW270191   4.387   3.546  11.044  0.7894 -0.4109  0.2005
52823SOL     OW70192   2.600   1.921   0.779 -1.0117 -0.4970 -0.4357
52823SOL    HW170193   2.661   1.945   0.848 -0.5295  0.7116 -1.2393
52823SOL    HW270194   2.562   1.838   0.807 -0.7688 -0.0733  1.2193
52824SOL     OW70195   1.198   3.547   9.478 -0.0522 -0.0205  0.1456
52824SOL    HW170196   1.275   3.603   9.487 -1.3691  1.7459  1.1703
52824SOL    HW270197   1.164   3.539   9.567 -0.2365 -2.0432 -0.0606
52825SOL     OW70198   4.042  10.573   2.513 -0.3323 -0.1922 -0.2140
52825SOL    HW170199   4.099  10.563   2.590 -0.8330 -1.7449  0.0014
52825SOL    HW270200   4.003  10.660   2.523  0.1090 -0.1106  0.9445
52826SOL     OW70201   3.699   7.269   2.480 -0.0980 -0.3420 -0.0003
52826SOL    HW170202   3.768   7.285   2.415  0.0788 -3.0313 -0.6030
52826SOL    HW270203   3.704   7.343   2.540  0.2814  1.8668 -2.5534
52827SOL     OW70204   4.796   3.425   3.874  0.1487  0.3016 -0.2218
52827SOL    HW170205   4.822   3.387   3.958  0.3862  1.3512  0.2022
52827SOL    HW270206   4.818   3.359   3.809 -0.4645 -0.7174  0.5803
52828SOL     OW70207   7.591   1.222   1.769  0.7530 -0.1962 -0.0969
52828SOL    HW170208   7.545   1.238   1.687  2.0203 -1.2558 -1.0675
52828SOL    HW270209   7.587   1.305   1.816 -0.7335  0.1759 -0.8445
52829SOL     OW70210   1.311   4.419   3.352 -0.0627  0.1664 -0.2701
52829SOL    HW170211   1.330   4.505   3.390 -2.5706  0.5281  0.3567
52829SOL    HW270212   1.344   4.425   3.263 -0.8704  2.0971 -0.4910
52830SOL     OW70213  11.493  10.825   9.906  0.0715 -0.5919 -0.7419
52830SOL    HW170214  11.417  10.870   9.868 -0.4526  0.3058  1.2329
52830SOL    HW270215  11.470  10.814   9.999  1.8445 -1.4377 -0.3645
52831SOL     OW70216   0.064  10.754   5.610 -0.1578 -0.7078  0.5757
52831SOL    HW170217   0.038  10.800   5.530  1.8533 -0.7068 -0.1502
52831SOL    HW270218   0.086  10.823   5.672  0.8058 -0.6693  0.2098
52832SOL     OW70219   4.994  10.862  10.547  0.1053  0.1686 -0.2644
52832SOL    HW170220   4.994  10.870  10.642 -1.3187 -0.5925 -0.1708
52832SOL    HW270221   4.907  10.827  10.526  0.8194 -0.8405 -1.7377
52833SOL     OW70222   5.537   3.560  11.078  0.2871  0.2905  0.2112
52833SOL    HW170223   5.596   3.633  11.057  0.1749  0.1534 -0.6027
52833SOL    HW270224   5.592   3.482  11.068 -0.1425  0.1267 -1.0500
52834SOL     OW70225   1.911   9.198   5.617  0.1697  0.3502  0.2186
52834SOL    HW170226   1.941   9.251   5.544  0.0642  0.6233  0.3742
52834SOL    HW270227   1.892   9.260   5.687  0.4450  0.0768  0.5421
52835SOL     OW70228   8.785  11.690   9.691 -0.4037  0.1234 -0.0757
52835SOL    HW170229   8.704  11.666   9.647 -0.8402  1.3299  0.0454
52835SOL    HW270230   8.759  11.711   9.781  0.1792 -0.3538  0.2130
52836SOL     OW70231   4.715   0.037   4.803 -1.0872 -0.1429  0.3470
52836SOL    HW170232   4.705   0.129   4.828  0.3962 -0.1754  1.1694
52836SOL    HW270233   4.664  -0.011   4.868 -2.3427  0.0998 -0.4225
52837SOL     OW70234   5.003   3.241   0.606  0.2149  0.1854 -0.4160
52837SOL    HW170235   5.003   3.200   0.693  1.1582  1.0839  0.0259
52837SOL    HW270236   4.927   3.204   0.562 -0.9284  0.5149  1.1902
52838SOL     OW70237   4.321   5.790   1.522  0.4426 -0.1112 -0.5108
52838SOL    HW170238   4.265   5.712   1.524 -1.6669  1.3189 -0.5454
52838SOL    HW270239   4.291   5.842   1.597  2.1244  0.4820 -0.2268
52839SOL     OW70240   7.930  11.553   4.663 -0.0095  0.6397  0.1305
52839SOL    HW170241   7.942  11.581   4.753 -0.4292  1.0018  0.0725
52839SOL    HW270242   7.996  11.484   4.651 -0.6069 -0.1219  1.0173
52840SOL     OW70243   8.870   6.126   2.505  0.0988  0.7040 -1.2729
52840SOL    HW170244   8.839   6.037   2.523 -0.0790  1.1970  1.3646
52840SOL    HW270245   8.887   6.128   2.411  1.1527 -2.4431 -1.2481
52841SOL     OW70246   0.715   2.284  11.210  0.1978  0.5434  0.8661
52841SOL    HW170247   0.696   2.346  11.139 -0.2724  0.6392  1.0652
52841SOL    HW270248   0.643   2.221  11.206 -1.2907  1.9751  2.8189
52842SOL     OW70249  11.586   4.296   1.730  0.3392  0.1131  0.1211
52842SOL    HW170250  11.508   4.343   1.699 -1.5364 -3.0071 -0.3270
52842SOL    HW270251  11.606   4.234   1.660  1.5383 -1.0529  1.4299
52843SOL     OW70252   2.958  10.839   5.919 -0.4763 -0.1707  0.2578
52843SOL    HW170253   3.016  10.801   5.854  0.2238  1.0543  0.1487
52843SOL    HW270254   2.935  10.765   5.977  0.3287 -0.8802 -0.3096
52844SOL     OW70255   8.733  10.694   4.606  0.1376  0.4848 -0.1795
52844SOL    HW170256   8.777  10.754   4.667 -0.9130  0.8167  0.2695
52844SOL    HW270257   8.801  10.672   4.542  0.3689  2.7522 -0.8122
52845SOL     OW70258   6.050   1.751   8.677 -0.1802 -0.0727  0.2455
52845SOL    HW170259   6.088   1.768   8.763  1.1250 -0.3085 -0.2636
52845SOL    HW270260   6.003   1.832   8.656  1.2782  0.8231  0.2718
52846SOL     OW70261  10.153   9.341   5.344 -0.2073  0.0287 -0.0391
52846SOL    HW170262  10.134   9.249   5.324 -2.1333 -0.1159  2.0546
52846SOL    HW270263  10.233   9.339   5.396 -0.2314 -0.4693 -0.0202
52847SOL     OW70264   5.841  11.794  10.116  0.4865 -0.7769  0.4825
52847SOL    HW170265   5.910  11.816  10.053  0.5752 -1.5421  0.3051
52847SOL    HW270266   5.888  11.780  10.198  0.3727  0.2026  0.7274
52848SOL     OW70267   4.138   3.724   7.094  0.4839  0.2070 -0.1959
52848SOL    HW170268   4.051   3.685   7.092 -0.0417  1.3556 -1.4335
52848SOL    HW270269   4.164   3.720   7.186 -0.5480 -0.8267  0.0702
52849SOL     OW70270   2.957  11.330  10.769  0.3608  0.3880 -0.2523
52849SOL    HW170271   2.919  11.248  10.736 -1.7720  0.7197  1.1723
52849SOL    HW270272   2.896  11.359  10.837  1.7462  2.5064  0.1786
52850SOL     OW70273   6.301   2.178   7.784  0.8278 -0.1498  0.3968
52850SOL    HW170274   6.311   2.206   7.875 -1.4647  1.3732  0.2507
52850SOL    HW270275   6.320   2.084   7.786  2.1060  0.0847  2.1704
52851SOL     OW70276   0.383   6.949   4.417 -0.2075  0.2631 -0.4346
52851SOL    HW170277   0.291   6.932   4.437  0.2141 -0.1152  1.3639
52851SOL    HW270278   0.418   6.991   4.496  1.2901 -0.1118 -0.8562
52852SOL     OW70279   8.561   1.317   7.537  0.6962 -0.2253 -0.5334
52852SOL    HW170280   8.504   1.394   7.538  0.5437 -0.3397 -0.4285
52852SOL    HW270281   8.516   1.253   7.592  0.5470 -0.5896 -1.0744
52853SOL     OW70282  10.600   2.241  11.889 -0.1533  0.1637  0.1783
52853SOL    HW170283  10.553   2.247  11.806 -0.2095  0.4205  0.2276
52853SOL    HW270284  10.687   2.208  11.865 -0.4419 -0.5736  0.1205
52854SOL     OW70285   5.339   8.802   2.140  0.1844  0.3650 -0.1256
52854SOL    HW170286   5.292   8.832   2.062  1.2157 -1.6892 -1.6369
52854SOL    HW270287   5.271   8.767   2.197 -0.3533 -1.1932 -1.6223
52855SOL     OW70288   5.975   8.007   5.458  0.2823 -1.0239 -0.4835
52855SOL    HW170289   5.977   8.034   5.366  1.2766 -0.7255 -0.3831
52855SOL    HW270290   6.058   7.962   5.472 -0.2148 -1.8010  0.0639
52856SOL     OW70291   7.019   1.544   9.901 -0.3409 -0.0489 -0.6460
52856SOL    HW170292   7.046   1.634   9.886 -0.8828 -0.0343 -1.6106
52856SOL    HW270293   6.938   1.551   9.951 -0.8726  0.0332 -1.5065
52857SOL     OW70294   3.302   7.456   4.491 -0.4938  0.0693  0.2993
52857SOL    HW170295   3.267   7.447   4.580 -1.0073  1.1787  0.2235
52857SOL    HW270296   3.327   7.548   4.485  2.1503 -0.5878  0.2280
52858SOL     OW70297   8.780   8.333   6.368 -0.0654 -0.0390 -1.2658
52858SOL    HW170298   8.725   8.411   6.372  1.8966  1.3542  0.5557
52858SOL    HW270299   8.820   8.327   6.455 -0.0541 -3.0311 -1.4044
52859SOL     OW70300   3.619   8.755   2.122  0.0822  0.7290  0.3592
52859SOL    HW170301   3.692   8.775   2.179  0.1179  0.3322  0.4551
52859SOL    HW270302   3.596   8.664   2.142 -0.5504  0.9037  0.4597
52860SOL     OW70303   6.880   1.048   0.406  0.2922  0.0702 -0.0407
52860SOL    HW170304   6.909   0.969   0.452 -0.7991 -0.1244  0.3365
52860SOL    HW270305   6.835   1.016   0.328 -1.2898  0.2460  0.7711
52861SOL     OW70306   5.162   8.345   6.191 -0.3613  0.4452  0.0144
52861SOL    HW170307   5.223   8.378   6.257  0.7808  1.1236 -1.3325
52861SOL    HW270308   5.170   8.407   6.118 -0.7643 -0.8875 -1.1980
52862SOL     OW70309   2.934   6.083   2.435  0.0218  0.4009  0.6807
52862SOL    HW170310   2.892   5.997   2.421  1.2952 -0.1871  0.3844
52862SOL    HW270311   2.862   6.145   2.427 -0.5630 -0.4385 -1.4457
52863SOL     OW70312   9.792   6.640   0.708 -0.1028  0.1831 -0.5368
52863SOL    HW170313   9.779   6.553   0.669 -0.3858 -0.2716  0.5499
52863SOL    HW270314   9.715   6.690   0.679 -0.5908 -0.3173 -0.1395
52864SOL     OW70315  11.406   9.350   7.068  0.3910 -0.4546  0.0283
52864SOL    HW170316  11.311   9.346   7.053  0.2258  0.2637  0.7742
52864SOL    HW270317  11.428   9.265   7.105 -0.4278  0.1915  2.1767
52865SOL     OW70318   7.543   2.959   1.351 -0.1178 -0.1863  0.1929
52865SOL    HW170319   7.607   2.908   1.300  0.7283  1.5085 -0.5396
52865SOL    HW270320   7.459   2.920   1.330  0.3456 -0.3253 -1.5588
52866SOL     OW70321   5.582   3.939  11.216  0.0973  0.1249 -0.1124
52866SOL    HW170322   5.524   4.014  11.231 -0.0210  0.0374 -0.1314
52866SOL    HW270323   5.556   3.875  11.282  1.2998  0.7363  0.9701
52867SOL     OW70324   2.595   3.607   1.491  0.3922 -0.1745 -0.2335
52867SOL    HW170325   2.552   3.596   1.406 -1.0365 -1.2896  0.5824
52867SOL    HW270326   2.665   3.542   1.491 -1.0540 -1.8053  0.2808
52868SOL     OW70327   6.744   8.440   7.013  0.7070  0.0746  0.2160
52868SOL    HW170328   6.702   8.357   7.036  2.2555 -0.5061  1.1518
52868SOL    HW270329   6.756   8.436   6.918 -0.5714 -0.1024  0.0567
52869SOL     OW70330   5.594   8.993   3.761  0.4125  0.3383  0.6255
52869SOL    HW170331   5.660   8.978   3.693  0.4220  0.4645  0.6064
52869SOL    HW270332   5.585   8.909   3.805 -0.6774 -0.1763 -0.4952
52870SOL     OW70333   2.654   1.721   9.331 -0.1348 -0.5289 -0.8251
52870SOL    HW170334   2.678   1.657   9.398 -0.8662  0.2951  0.2573
52870SOL    HW270335   2.711   1.701   9.257  0.4832 -1.6552 -0.0708
52871SOL     OW70336   6.591   4.687   8.029 -0.3727  0.6281  0.3696
52871SOL    HW170337   6.627   4.641   7.954  1.1785  0.9928  0.8600
52871SOL    HW270338   6.497   4.667   8.027 -0.5679  1.4269 -2.2270
52872SOL     OW70339  10.087  10.197   3.826  0.5191 -0.0857 -0.0182
52872SOL    HW170340  10.058  10.272   3.876 -0.4064 -0.9791  0.8057
52872SOL    HW270341  10.168  10.170   3.869  1.0021  0.5795 -0.4813
52873SOL     OW70342   7.387   0.806  10.066  0.3476 -0.9994 -0.7753
52873SOL    HW170343   7.353   0.717  10.075 -1.1079 -0.3700  0.6205
52873SOL    HW270344   7.353   0.836   9.982  0.1050 -1.4723 -0.8492
52874SOL     OW70345   3.707   9.474   8.739  0.5919 -0.2885 -0.6400
52874SOL    HW170346   3.709   9.493   8.645 -2.6718  0.5785 -0.6755
52874SOL    HW270347   3.665   9.551   8.778 -2.8970 -2.6446  0.7613
52875SOL     OW70348   3.383   1.346   3.262  0.5152  0.1832 -0.2110
52875SOL    HW170349   3.376   1.307   3.348 -1.7901  0.4164 -0.2508
52875SOL    HW270350   3.301   1.394   3.249  0.2960 -0.7378 -2.9518
52876SOL     OW70351   2.273   9.642   2.063  0.1113 -0.1178  0.1994
52876SOL    HW170352   2.193   9.695   2.070  1.0118  1.0743  2.0406
52876SOL    HW270353   2.279   9.596   2.147  2.1112  0.9530  0.6933
52877SOL     OW70354   0.724   5.030   8.558 -1.1011  0.3653 -0.4717
52877SOL    HW170355   0.730   5.074   8.643 -0.9893 -0.5008 -0.0212
52877SOL    HW270356   0.796   5.068   8.506 -0.2016 -0.1897  0.3388
52878SOL     OW70357   3.389   4.196   8.795  0.2966  0.5311 -0.6108
52878SOL    HW170358   3.386   4.122   8.855  2.4852  0.6762 -0.2389
52878SOL    HW270359   3.420   4.158   8.712  0.9226  0.9197 -0.5652
52879SOL     OW70360   2.317   3.510   6.694  0.0342  0.1564 -0.5339
52879SOL    HW170361   2.379   3.535   6.763 -1.2323  0.5272  0.5197
52879SOL    HW270362   2.271   3.434   6.729 -0.4110  0.1535 -1.1104
52880SOL     OW70363   2.483   5.450   1.099  0.2699 -0.3281  0.2039
52880SOL    HW170364   2.409   5.399   1.067  0.6309 -0.8229  0.1575
52880SOL    HW270365   2.515   5.497   1.022 -0.4136  0.4145  0.3621
52881SOL     OW70366   3.926   8.956   9.058 -0.2209 -0.4024 -0.1717
52881SOL    HW170367   3.938   8.897   8.984  0.0113 -0.3136 -0.2071
52881SOL    HW270368   3.854   9.013   9.032 -0.1261 -0.3583 -0.3375
52882SOL     OW70369   7.198   3.320   3.247 -0.2540  0.5773 -0.0112
52882SOL    HW170370   7.105   3.335   3.259 -0.6858  0.6817 -2.8412
52882SOL    HW270371   7.239   3.406   3.264 -0.8720  0.9381 -0.3186
52883SOL     OW70372   4.613   9.665  10.028 -0.3729  0.5506  0.0779
52883SOL    HW170373   4.551   9.593  10.018 -1.1483  1.1902  0.2000
52883SOL    HW270374   4.648   9.678   9.940  0.3099 -0.4309  0.1848
52884SOL     OW70375  10.913  10.686   7.109  0.6035 -0.2387 -0.7200
52884SOL    HW170376  10.942  10.706   7.019  1.6439 -1.9086 -0.7961
52884SOL    HW270377  10.853  10.612   7.098 -0.9314  0.8819 -0.1964
52885SOL     OW70378   4.494   5.259   1.061 -0.1361  0.1606  0.0516
52885SOL    HW170379   4.428   5.321   1.091  0.9323  1.7691 -0.8187
52885SOL    HW270380   4.462   5.174   1.093 -1.4203  1.1714  1.6345
52886SOL     OW70381   9.680   7.505   5.746  0.2410  0.5619 -0.0566
52886SOL    HW170382   9.711   7.417   5.726 -3.0110 -1.0053  1.0674
52886SOL    HW270383   9.757   7.550   5.782  1.9082 -1.9593 -0.2241
52887SOL     OW70384   9.734  11.686   6.099  0.0868  0.6983 -0.1670
52887SOL    HW170385   9.716  11.714   6.188  1.4288  0.5503  0.1757
52887SOL    HW270386   9.781  11.603   6.109 -0.4075  0.2923 -1.0437
52888SOL     OW70387   7.609   1.783   6.219  0.3808 -0.2046 -0.3324
52888SOL    HW170388   7.516   1.762   6.214  0.5512 -1.1994  0.3943
52888SOL    HW270389   7.611   1.879   6.224 -0.7073 -0.2187  1.1168
52889SOL     OW70390   4.505   8.493   3.389 -0.2307 -0.0698  0.1477
52889SOL    HW170391   4.522   8.425   3.454 -2.0350 -0.0213  0.7194
52889SOL    HW270392   4.490   8.573   3.440  0.6265  0.5022 -0.4600
52890SOL     OW70393   5.135   8.233   3.264  0.6268  0.6703  0.1929
52890SOL    HW170394   5.098   8.316   3.293 -0.9731 -0.0379  0.2874
52890SOL    HW270395   5.195   8.256   3.193  0.5946  1.9372  0.5616
52891SOL     OW70396  11.429   7.642   7.423 -0.3208 -0.1805  0.2110
52891SOL    HW170397  11.368   7.645   7.496 -0.4201  0.8583  0.1070
52891SOL    HW270398  11.390   7.700   7.357 -0.1907 -1.0357 -0.6365
52892SOL     OW70399   8.018   3.380   4.775 -0.6764 -0.0294 -0.5858
52892SOL    HW170400   8.103   3.364   4.815 -1.9572 -0.9941  1.9844
52892SOL    HW270401   7.973   3.438   4.837 -2.4928 -0.9415 -0.9702
52893SOL     OW70402  11.153   2.032  11.506  0.5837  0.0968 -0.2798
52893SOL    HW170403  11.126   2.003  11.593  0.9079  0.0066 -0.2053
52893SOL    HW270404  11.243   2.001  11.498  1.4913  2.2979  0.3830
52894SOL     OW70405   2.590   8.252   8.991  0.3217 -0.1076 -0.0283
52894SOL    HW170406   2.634   8.231   8.909  0.9036  1.2731 -0.1050
52894SOL    HW270407   2.659   8.285   9.048  0.1071 -2.0041  1.4250
52895SOL     OW70408   4.355  11.444   7.392 -0.5166 -0.2466 -0.8625
52895SOL    HW170409   4.446  11.414   7.384 -0.7252 -1.4592  0.8508
52895SOL    HW270410   4.302  11.367   7.372 -1.2057  0.4981 -2.0230
52896SOL     OW70411   9.448  10.600   6.822 -0.1649 -0.3390 -0.7368
52896SOL    HW170412   9.359  10.620   6.850  0.9175  0.4028  2.6569
52896SOL    HW270413   9.480  10.537   6.887  2.2850  0.6805 -0.8389
52897SOL     OW70414   4.560   3.169   1.897 -0.1271 -0.0967  0.4199
52897SOL    HW170415   4.619   3.116   1.951  1.4774  0.7679 -0.4267
52897SOL    HW270416   4.543   3.115   1.820 -0.8610 -0.5297  0.8624
52898SOL     OW70417   8.027   2.260   3.486 -0.0955  0.1673 -0.7804
52898SOL    HW170418   7.991   2.172   3.469 -0.1847  0.1627 -0.5691
52898SOL    HW270419   7.951   2.312   3.512 -0.2399  0.6147 -2.0565
52899SOL     OW70420   0.546   4.321   0.158 -0.2300 -0.6518  0.1619
52899SOL    HW170421   0.575   4.413   0.163  0.0498 -0.7916  2.4205
52899SOL    HW270422   0.460   4.321   0.199 -1.5093 -0.9950 -2.3861
52900SOL     OW70423   8.150   8.641   7.395  0.6062 -0.1344 -0.0155
52900SOL    HW170424   8.224   8.693   7.364  2.7875 -3.2229 -0.5505
52900SOL    HW270425   8.077   8.667   7.339  1.8065  1.5905 -0.8819
52901SOL     OW70426  11.189   4.774   4.022 -0.6034 -0.0738  0.0213
52901SOL    HW170427  11.284   4.786   4.026 -0.5892 -0.3247  0.4693
52901SOL    HW270428  11.154   4.852   4.064 -0.6180  0.3766 -0.8065
52902SOL     OW70429   3.668   3.567   6.672  0.4499 -1.0253 -0.3515
52902SOL    HW170430   3.611   3.626   6.623  0.0295 -0.2578  1.0277
52902SOL    HW270431   3.627   3.481   6.662  0.0738 -0.7917 -0.8851
52903SOL     OW70432   0.765   3.115   6.083 -0.0594 -0.1035 -0.4760
52903SOL    HW170433   0.758   3.020   6.077  2.4438 -0.3485 -0.2758
52903SOL    HW270434   0.760   3.134   6.177  0.8879 -0.1932 -0.4022
52904SOL     OW70435   0.227   5.702   2.698  0.1041  0.0323 -0.4303
52904SOL    HW170436   0.240   5.769   2.631 -4.5361  1.2538 -0.4351
52904SOL    HW270437   0.197   5.625   2.649  0.8496 -0.5232 -0.0351
52905SOL     OW70438   0.950   4.605   8.238  0.3905 -0.5459  0.4849
52905SOL    HW170439   0.925   4.685   8.285  0.5008  0.4251 -1.0300
52905SOL    HW270440   0.867   4.564   8.216  0.0578  1.4137 -2.4215
52906SOL     OW70441   2.677   1.261   7.121 -0.1391 -0.2609  0.2995
52906SOL    HW170442   2.653   1.276   7.212 -2.6183 -1.3634 -0.0717
52906SOL    HW270443   2.753   1.203   7.124 -0.7529 -1.0221  1.6862
52907SOL     OW70444   4.902   7.060   8.130  0.4851 -0.4247  0.6449
52907SOL    HW170445   4.926   6.977   8.172  0.2340  0.3472  2.4012
52907SOL    HW270446   4.809   7.070   8.148  0.4736  0.1474  0.2869
52908SOL     OW70447   8.082   0.331   0.882 -0.1695 -0.5505  0.0004
52908SOL    HW170448   8.120   0.311   0.797  1.7501 -0.1657  0.7166
52908SOL    HW270449   8.020   0.403   0.865  0.6496 -0.0609 -0.9901
52909SOL     OW70450   5.213   7.277   8.895 -0.4297  0.0869  0.3356
52909SOL    HW170451   5.294   7.292   8.944 -0.6602  1.2575  0.3818
52909SOL    HW270452   5.233   7.305   8.806 -0.7865  0.3960  0.3508
52910SOL     OW70453   9.996   4.016   4.072 -0.1530  0.4260 -0.1067
52910SOL    HW170454   9.921   3.966   4.105 -0.3002  1.5068  1.3280
52910SOL    HW270455  10.072   3.974   4.112 -0.1033  0.1481 -0.4896
52911SOL     OW70456   4.303   6.480  11.939  0.0753 -0.2281  0.3636
52911SOL    HW170457   4.292   6.440  12.025  1.0542 -1.1604  0.0806
52911SOL    HW270458   4.382   6.439  11.903 -0.3835  0.0372 -1.0303
52912SOL     OW70459  10.070  10.315   8.437 -0.0241  0.0864 -0.2859
52912SOL    HW170460  10.113  10.398   8.416 -2.6455  1.7107  0.3307
52912SOL    HW270461   9.998  10.308   8.374  0.0169 -1.6549 -0.1943
52913SOL     OW70462   8.556   8.973   3.844  0.2654  0.9689 -0.1683
52913SOL    HW170463   8.485   9.037   3.849  1.0647  1.8624 -0.0212
52913SOL    HW270464   8.616   8.997   3.915  1.2063  0.8223 -0.8960
52914SOL     OW70465  11.238  10.298   5.551  0.3169 -0.0396  0.3771
52914SOL    HW170466  11.290  10.291   5.631 -0.0759 -1.5112  0.5232
52914SOL    HW270467  11.182  10.221   5.552 -0.1793  0.2838 -0.9862
52915SOL     OW70468   2.836   0.137   7.302 -0.1398 -0.0150  0.2565
52915SOL    HW170469   2.868   0.067   7.359  1.3048 -0.6833 -1.2907
52915SOL    HW270470   2.744   0.115   7.286 -0.5282  0.1027  2.1520
52916SOL     OW70471   9.790   8.454   9.741 -0.0436 -0.2566 -0.3204
52916SOL    HW170472   9.865   8.500   9.703  1.3309 -1.4292  0.8395
52916SOL    HW270473   9.753   8.517   9.804  0.2724  0.1420 -0.5252
52917SOL     OW70474  10.781   3.141   8.711 -0.7471  0.2304  0.1874
52917SOL    HW170475  10.714   3.073   8.697 -0.9557  0.5783 -0.5630
52917SOL    HW270476  10.830   3.110   8.787 -0.7096 -0.8715 -0.2587
52918SOL     OW70477  11.144   5.048   1.059 -0.0677 -0.6212  0.9130
52918SOL    HW170478  11.205   5.070   0.988  0.3450 -0.4874  1.3036
52918SOL    HW270479  11.129   4.954   1.049 -0.1555 -0.5708  0.5383
52919SOL     OW70480  11.009   5.159  10.570 -0.4881  1.1195 -0.0133
52919SOL    HW170481  11.028   5.090  10.507 -3.1359  1.3097 -1.1257
52919SOL    HW270482  11.040   5.124  10.654 -1.0811 -1.1045 -0.6653
52920SOL     OW70483   0.008   3.473   4.380  1.0065  0.3050 -0.0013
52920SOL    HW170484   0.043   3.537   4.318  0.0325  0.2268 -0.6644
52920SOL    HW270485   0.007   3.391   4.331  1.4321 -0.0414  0.5573
52921SOL     OW70486   1.242   0.779   5.823 -0.1015  0.1973 -0.0156
52921SOL    HW170487   1.280   0.806   5.907  1.0342  0.4142 -0.5875
52921SOL    HW270488   1.283   0.836   5.758 -0.1730 -0.6845 -0.8513
52922SOL     OW70489   8.052   7.775   7.156 -0.3398  0.8727  0.0650
52922SOL    HW170490   8.022   7.694   7.197  1.2000 -0.3657 -1.1050
52922SOL    HW270491   7.990   7.842   7.185 -2.5236 -0.9926 -0.0475
52923SOL     OW70492   3.876   5.853   9.679  0.5582  0.1361 -0.3073
52923SOL    HW170493   3.816   5.895   9.617  1.0084 -1.6880 -2.0900
52923SOL    HW270494   3.823   5.841   9.759 -1.0254 -0.1742 -1.3567
52924SOL     OW70495  11.128   7.288   7.543  0.2988  0.1640  0.2494
52924SOL    HW170496  11.215   7.275   7.581 -0.4157 -2.1727  1.2319
52924SOL    HW270497  11.142   7.355   7.475  2.6322  0.6042  1.0650
52925SOL     OW70498  10.568   2.297   8.843  0.0230 -0.4313 -0.1535
52925SOL    HW170499  10.474   2.278   8.834 -0.3876  1.6601 -1.1490
52925SOL    HW270500  10.607   2.260   8.763 -0.2725  0.2269 -0.6167
52926SOL     OW70501   2.560   0.151   7.193 -0.5526 -0.0466  0.7646
52926SOL    HW170502   2.469   0.167   7.167 -0.6811 -0.4470  0.9611
52926SOL    HW270503   2.611   0.183   7.119 -0.8908 -0.5806  0.2925
52927SOL     OW70504   2.098   7.292   3.767  0.0073 -0.7661 -0.2431
52927SOL    HW170505   2.171   7.353   3.778 -1.2975  0.7286  0.5362
52927SOL    HW270506   2.092   7.278   3.673 -0.0324  0.8085 -0.4922
52928SOL     OW70507   1.922   5.154   7.140 -0.1025  0.0553 -0.2648
52928SOL    HW170508   1.999   5.190   7.096 -0.2454 -0.1539 -0.6941
52928SOL    HW270509   1.855   5.222   7.134  0.4715  0.8090  1.3569
52929SOL     OW70510   2.724   4.869   6.522 -0.1273  0.1600 -0.5305
52929SOL    HW170511   2.633   4.841   6.514 -0.0217 -0.3190 -0.1226
52929SOL    HW270512   2.771   4.816   6.458 -0.0515  0.0029 -0.3444
52930SOL     OW70513   1.092   6.904   5.538  0.0199  0.1060 -0.2734
52930SOL    HW170514   1.025   6.837   5.553  0.4989 -0.6550 -1.4215
52930SOL    HW270515   1.175   6.856   5.538  0.6911  1.1147  1.7578
52931SOL     OW70516   3.340   3.500   8.701  0.0340 -0.3968 -0.0602
52931SOL    HW170517   3.247   3.522   8.714  0.4038  0.4760  1.2227
52931SOL    HW270518   3.384   3.585   8.693  0.8331 -0.7828  0.1467
52932SOL     OW70519   1.460   2.924   2.443 -0.5593 -0.1715 -0.1931
52932SOL    HW170520   1.497   2.875   2.517 -1.0201 -1.2844 -0.6624
52932SOL    HW270521   1.374   2.952   2.474 -0.1958  0.5619  0.1628
52933SOL     OW70522  11.511  11.078   7.709  0.0855  0.0876 -0.1069
52933SOL    HW170523  11.456  11.098   7.784  0.0044 -1.5835  0.3269
52933SOL    HW270524  11.450  11.045   7.643  0.4962 -1.6948  0.3446
52934SOL     OW70525   0.026   8.173   9.772  0.0148  0.3763 -0.3212
52934SOL    HW170526   0.086   8.137   9.706  0.7505 -0.2702  0.6713
52934SOL    HW270527   0.063   8.258   9.795  0.2616  0.2157 -0.1105
52935SOL     OW70528   1.076  10.587   6.788  0.0226 -0.1087 -0.1604
52935SOL    HW170529   1.073  10.605   6.694  0.1245 -0.1061 -0.1629
52935SOL    HW270530   0.996  10.538   6.806 -0.3859  0.5713 -0.1115
52936SOL     OW70531   5.459   4.170   1.165 -0.1294 -0.1964  0.3113
52936SOL    HW170532   5.499   4.083   1.168  0.0335 -0.1664 -0.6976
52936SOL    HW270533   5.466   4.197   1.073  0.0009  0.9692  0.6450
52937SOL     OW70534   4.253   9.469   0.641 -0.2548 -0.1905 -0.5914
52937SOL    HW170535   4.185   9.402   0.647 -0.1780 -0.3244 -1.1040
52937SOL    HW270536   4.233   9.516   0.560  0.6218 -0.6515 -1.1014
52938SOL     OW70537   5.286   2.432   3.302  0.5319  0.3030  0.0730
52938SOL    HW170538   5.192   2.417   3.290  0.2401 -0.7924  2.8812
52938SOL    HW270539   5.322   2.345   3.318  1.2942  0.9980  2.7775
52939SOL     OW70540   0.631  10.638   7.302  0.2465 -0.6863 -0.1313
52939SOL    HW170541   0.648  10.720   7.255  2.4627 -0.0611  1.5814
52939SOL    HW270542   0.556  10.656   7.358  1.4462  0.6223  1.1143
52940SOL     OW70543   3.051   9.225   9.839  0.5042 -0.7187 -0.1575
52940SOL    HW170544   3.011   9.240   9.924  0.6152  0.2671 -0.2683
52940SOL    HW270545   3.143   9.204   9.860  0.6881  0.1487 -0.0543
52941SOL     OW70546   7.837   5.969   3.403 -0.2359 -0.2103 -0.0682
52941SOL    HW170547   7.889   5.894   3.431 -1.6423 -1.3999 -0.5374
52941SOL    HW270548   7.795   5.940   3.322  0.4482  1.6675 -1.1550
52942SOL     OW70549   9.096   4.118  11.846  0.0159  0.2383 -0.2145
52942SOL    HW170550   9.155   4.183  11.807 -0.1340 -0.8459 -2.3893
52942SOL    HW270551   9.149   4.073  11.912  0.3798  1.9108  0.6956
52943SOL     OW70552  11.558   3.483   4.334  0.3148 -0.5795 -0.2229
52943SOL    HW170553  11.471   3.496   4.371 -0.4885 -1.8881 -1.5403
52943SOL    HW270554  11.545   3.421   4.262  1.9413  1.0417 -2.0378
52944SOL     OW70555  10.072   3.130   0.530 -0.1964  0.2515  0.8009
52944SOL    HW170556  10.163   3.101   0.545 -0.4125  0.6923  3.4655
52944SOL    HW270557  10.020   3.074   0.588 -1.6150  0.2702 -0.4143
52945SOL     OW70558   2.309   7.041   2.068 -0.3005  0.0960  0.1894
52945SOL    HW170559   2.231   7.067   2.019  0.5175 -0.6704 -1.6158
52945SOL    HW270560   2.380   7.045   2.004  0.6055 -2.2018  0.9260
52946SOL     OW70561   1.032   1.014  10.676 -0.2155  0.2695  0.4193
52946SOL    HW170562   1.007   1.089  10.622 -0.7772 -0.3209 -0.1575
52946SOL    HW270563   1.001   1.036  10.764 -2.5996 -0.3024 -0.1987
52947SOL     OW70564   4.192   3.881   6.231 -0.0214 -0.0251 -0.4219
52947SOL    HW170565   4.286   3.878   6.210 -0.0833  0.6477 -0.8357
52947SOL    HW270566   4.184   3.831   6.311  0.5871 -0.7058 -0.7726
52948SOL     OW70567   7.031   8.423   7.737 -0.2110 -0.6158 -0.7718
52948SOL    HW170568   7.089   8.493   7.766 -1.1758 -0.6841  1.5224
52948SOL    HW270569   6.981   8.399   7.815 -2.5822 -1.2827 -2.3841
52949SOL     OW70570   3.707   6.446   0.226 -1.1199 -0.3185 -0.0937
52949SOL    HW170571   3.710   6.454   0.131  2.0339 -0.3420 -0.0979
52949SOL    HW270572   3.708   6.536   0.258 -0.8216 -0.3078 -0.1225
52950SOL     OW70573  11.361   4.105   2.156  0.1473 -0.1574 -0.0354
52950SOL    HW170574  11.428   4.142   2.212 -0.7267 -1.2672  1.8140
52950SOL    HW270575  11.402   4.029   2.115  0.0560 -0.8215  1.0727
52951SOL     OW70576   8.988   7.708   0.145  0.5558  0.1112  0.2471
52951SOL    HW170577   9.048   7.769   0.189  1.1037 -0.1782 -0.0799
52951SOL    HW270578   8.901   7.742   0.164  0.8656  2.3923 -1.8819
52952SOL     OW70579   4.756   7.026   0.252  0.1000  0.2972 -0.5456
52952SOL    HW170580   4.823   6.981   0.201  0.3005  0.2386 -0.2276
52952SOL    HW270581   4.749   6.976   0.333 -1.4041 -0.6104 -1.1805
52953SOL     OW70582   1.070   3.697   6.364 -0.2974 -0.1586 -0.1422
52953SOL    HW170583   1.073   3.785   6.327 -0.8558 -0.4345 -0.8490
52953SOL    HW270584   1.159   3.663   6.351 -0.0531  0.3263  0.2215
52954SOL     OW70585   5.033  10.528   6.613 -0.1325  0.2710  0.6612
52954SOL    HW170586   4.944  10.562   6.612 -0.0951  0.3753 -0.4129
52954SOL    HW270587   5.075  10.572   6.687 -0.0224  2.8030 -0.7803
52955SOL     OW70588   5.735   3.043  11.932 -0.2230  0.4125  0.2105
52955SOL    HW170589   5.718   3.038  12.026 -0.0327 -0.4145  0.2055
52955SOL    HW270590   5.660   2.999  11.892  0.3253 -0.3838  0.0412
52956SOL     OW70591  11.890   8.114   2.075 -0.1167  0.2703 -0.5970
52956SOL    HW170592  11.811   8.161   2.048 -0.1335  0.1683 -0.7202
52956SOL    HW270593  11.876   8.024   2.049  0.6326  0.5027 -1.9078
52957SOL     OW70594   5.639   1.967   3.852  0.0203  0.0742 -0.2902
52957SOL    HW170595   5.730   1.991   3.870 -0.0800  0.6470 -0.5349
52957SOL    HW270596   5.592   1.993   3.932 -0.1085  0.8277 -0.6025
52958SOL     OW70597   6.902   2.805   1.768  0.3655  0.2992 -0.1970
52958SOL    HW170598   6.963   2.859   1.820  1.5966 -0.3692 -0.9069
52958SOL    HW270599   6.883   2.858   1.691  1.7041 -0.2992 -0.9740
52959SOL     OW70600   5.094   3.564   9.688  0.0327 -0.3750  0.7805
52959SOL    HW170601   5.051   3.518   9.761 -2.3029 -0.0847 -0.2971
52959SOL    HW270602   5.135   3.495   9.636  0.0948 -0.7794  1.3641
52960SOL     OW70603   0.334   5.821  10.008 -0.0164  0.1614  0.1451
52960SOL    HW170604   0.357   5.913  10.021  1.1008 -0.2128  0.9905
52960SOL    HW270605   0.395   5.790   9.942  0.6683 -0.3518  0.9957
52961SOL     OW70606   7.499   5.913  11.844 -0.0698  0.1191  0.8063
52961SOL    HW170607   7.581   5.865  11.861 -0.5493 -1.8732 -1.9227
52961SOL    HW270608   7.525   5.983  11.785 -0.3538 -0.7108 -0.3206
52962SOL     OW70609   1.601   2.151   9.020  0.0719 -0.0639 -0.1200
52962SOL    HW170610   1.524   2.096   9.007 -0.0868 -0.0307  0.6344
52962SOL    HW270611   1.567   2.241   9.016  0.2008 -0.0345 -0.5680
52963SOL     OW70612   6.478   2.791   7.783 -0.2500  0.2392 -0.1704
52963SOL    HW170613   6.514   2.875   7.809  2.1890 -0.9062  0.4603
52963SOL    HW270614   6.383   2.803   7.787  0.0290  2.6871  0.6928
52964SOL     OW70615   5.030   6.738   5.309  0.0138 -0.1315  0.8127
52964SOL    HW170616   4.951   6.790   5.320  1.1124  1.9902 -0.7269
52964SOL    HW270617   5.022   6.700   5.221  0.3570 -0.5602  0.9597
52965SOL     OW70618   8.258  10.733   7.967  0.1232 -0.0362 -0.6862
52965SOL    HW170619   8.333  10.755   7.912  3.4691 -2.5048  2.3830
52965SOL    HW270620   8.266  10.791   8.043  0.5759 -1.9892  0.8443
52966SOL     OW70621   7.127  11.169  10.188  0.3501 -0.4169 -0.4641
52966SOL    HW170622   7.211  11.191  10.229 -0.4690  2.8415 -0.2172
52966SOL    HW270623   7.088  11.254  10.167 -2.6578 -1.8245 -1.1253
52967SOL     OW70624  11.072   8.748   3.731  0.7248  0.3223  0.3768
52967SOL    HW170625  10.977   8.750   3.724  0.4913  1.2669  2.9492
52967SOL    HW270626  11.103   8.796   3.654 -0.8033 -0.6075 -0.8776
52968SOL     OW70627  11.479  10.611   4.918  0.5413 -0.0923  0.4765
52968SOL    HW170628  11.488  10.593   5.012 -0.0863  0.2753  0.6117
52968SOL    HW270629  11.551  10.563   4.878  1.8303  1.0871  1.2913
52969SOL     OW70630   2.002   6.652   3.934 -0.3903 -0.3910  0.6649
52969SOL    HW170631   2.045   6.566   3.930  2.7285  1.0638  0.4677
52969SOL    HW270632   1.982   6.673   3.843 -0.7066 -0.6584  0.6677
52970SOL     OW70633   9.906   6.731   0.004  0.0554  0.1029 -0.2711
52970SOL    HW170634   9.915   6.716   0.098  0.5522 -1.7670 -0.5766
52970SOL    HW270635   9.927   6.823  -0.008 -0.8700  0.5922  1.5517
52971SOL     OW70636   8.488   0.546   3.178  0.6409 -0.5905 -0.1378
52971SOL    HW170637   8.477   0.461   3.222 -1.5387  0.3281  1.2860
52971SOL    HW270638   8.410   0.596   3.203  1.5674  1.6466 -1.4071
52972SOL     OW70639   8.865   1.972   6.904  0.3027  0.2760  0.3197
52972SOL    HW170640   8.922   2.001   6.833  0.2129  0.5207  0.3447
52972SOL    HW270641   8.812   1.902   6.865  0.3645  0.2991  0.1922
52973SOL     OW70642  11.165   2.727   4.000  0.1685  0.1599 -0.6406
52973SOL    HW170643  11.163   2.823   3.999 -1.3431  0.1545 -0.6305
52973SOL    HW270644  11.211   2.705   4.080 -1.9641  0.9311  0.9092
52974SOL     OW70645  10.321   2.074   2.872  0.3830 -0.1890 -0.4114
52974SOL    HW170646  10.303   2.158   2.915 -0.5269  0.1824 -1.4825
52974SOL    HW270647  10.243   2.022   2.886  0.1975 -0.1773 -1.3253
52975SOL     OW70648   7.784   4.397  11.643  0.2490 -1.1478 -0.4619
52975SOL    HW170649   7.707   4.448  11.620  1.0771  0.0873 -0.6453
52975SOL    HW270650   7.845   4.412  11.570  0.4528 -2.5757 -0.6112
52976SOL     OW70651   6.767  11.435  10.974  0.1686  0.8042 -0.2028
52976SOL    HW170652   6.729  11.421  11.061  1.4013  0.4481  0.2972
52976SOL    HW270653   6.861  11.444  10.990  0.1697  3.3831 -1.2231
52977SOL     OW70654  11.388   4.880   2.026  0.3165 -0.5264  0.0876
52977SOL    HW170655  11.340   4.853   2.104 -3.0775  0.7903 -1.3495
52977SOL    HW270656  11.406   4.973   2.040  0.1386 -0.4048 -0.4464
52978SOL     OW70657   7.435   9.085   8.369 -0.5750  0.0562 -0.2913
52978SOL    HW170658   7.398   9.173   8.380  0.4663  0.5108 -0.3185
52978SOL    HW270659   7.432   9.047   8.457 -0.4047  0.3744 -0.1475
52979SOL     OW70660   6.192   8.561   5.868 -0.1387 -0.3539  0.0293
52979SOL    HW170661   6.228   8.521   5.788  1.1673 -0.2469  0.5474
52979SOL    HW270662   6.268   8.593   5.915 -1.0711  1.8660  0.1285
52980SOL     OW70663   3.130   6.892   4.516  0.1404  0.2753  0.0055
52980SOL    HW170664   3.215   6.850   4.532 -0.6258 -1.2127  0.4250
52980SOL    HW270665   3.110   6.937   4.599  0.6201  0.8393 -0.1791
52981SOL     OW70666  11.001  11.454   5.622 -0.0051  0.4631 -0.2161
52981SOL    HW170667  11.016  11.537   5.575  1.0693 -0.2700 -1.2416
52981SOL    HW270668  10.910  11.431   5.602 -0.4931  1.6599  0.5435
52982SOL     OW70669   7.837  11.029   4.766 -0.4838 -0.0273 -0.3405
52982SOL    HW170670   7.926  11.014   4.797 -0.7896 -0.3882  0.3769
52982SOL    HW270671   7.789  11.060   4.842 -0.5179  2.1861 -1.1750
52983SOL     OW70672   5.067   7.325   9.586  0.3126  0.0713 -0.2313
52983SOL    HW170673   5.161   7.303   9.589  0.5260  0.9716  1.5727
52983SOL    HW270674   5.066   7.420   9.581 -0.4012  0.3415  3.0330
52984SOL     OW70675   8.324  11.269   2.127 -0.7123  0.1341  0.0601
52984SOL    HW170676   8.375  11.197   2.164 -0.6057  0.1947  0.0322
52984SOL    HW270677   8.240  11.230   2.105 -0.4224 -0.1457 -0.5941
52985SOL     OW70678   4.292   1.641   3.946  0.1662 -0.5624 -0.1491
52985SOL    HW170679   4.255   1.639   3.858  0.2202 -0.3102 -0.1791
52985SOL    HW270680   4.225   1.684   4.000  0.4578 -0.0023 -0.2265
52986SOL     OW70681   2.209   2.903   6.649  0.2030 -0.5360  0.5881
52986SOL    HW170682   2.294   2.888   6.608  0.7412  2.5356  0.3333
52986SOL    HW270683   2.146   2.867   6.587  1.2151 -0.4439 -0.5393
52987SOL     OW70684   6.468  11.442   1.290  0.0834 -0.0579 -0.1376
52987SOL    HW170685   6.464  11.347   1.290  0.2094 -0.0636 -0.5342
52987SOL    HW270686   6.391  11.469   1.341  0.4389 -0.3795  0.5794
52988SOL     OW70687   8.152  10.809   5.481  0.3967 -0.8517  0.0448
52988SOL    HW170688   8.079  10.843   5.533 -0.9877 -2.5742 -0.6945
52988SOL    HW270689   8.186  10.885   5.435 -1.9792 -0.2258 -0.8362
52989SOL     OW70690  11.076  11.544  11.132  0.4450  0.5649  0.0412
52989SOL    HW170691  11.145  11.503  11.184 -0.4447  0.3473  1.0997
52989SOL    HW270692  11.051  11.621  11.182  0.4005  1.0279 -0.6875
52990SOL     OW70693   4.800  10.810   5.360 -0.0193  0.5112 -0.3094
52990SOL    HW170694   4.722  10.821   5.306  0.4685  0.8636 -0.9664
52990SOL    HW270695   4.842  10.731   5.326 -0.3871 -0.0253  0.4399
52991SOL     OW70696   0.309   1.786   6.163 -0.0820  0.3960  0.2401
52991SOL    HW170697   0.220   1.783   6.127  0.7350 -1.0300 -1.8773
52991SOL    HW270698   0.297   1.811   6.254 -2.6528  0.2577  0.0238
52992SOL     OW70699   4.920   6.833   7.923  0.1670  0.2202  0.3464
52992SOL    HW170700   4.960   6.789   7.998  3.6392 -0.5232 -1.6889
52992SOL    HW270701   4.900   6.921   7.954  1.0566 -0.1943  2.2709
52993SOL     OW70702   0.319   1.875  11.100 -0.3383 -0.0263  0.3966
52993SOL    HW170703   0.265   1.926  11.160 -0.0998 -0.8332  1.3220
52993SOL    HW270704   0.304   1.915  11.014 -0.1899  1.5602  1.0831
52994SOL     OW70705  10.293   1.869   0.734  0.1196  0.0543 -0.0796
52994SOL    HW170706  10.216   1.813   0.735  0.8791 -1.0174  0.6190
52994SOL    HW270707  10.364   1.814   0.700  0.1958  1.6211 -2.7454
52995SOL     OW70708   3.452   1.523   6.824  0.9869 -0.1459  0.2015
52995SOL    HW170709   3.416   1.555   6.741 -2.0475  1.9937  2.1203
52995SOL    HW270710   3.526   1.469   6.798 -0.6674 -0.8355 -3.9569
52996SOL     OW70711   9.841  10.281   3.718  0.0252  0.3075 -0.1793
52996SOL    HW170712   9.859  10.282   3.625  0.4774  1.1181 -0.0898
52996SOL    HW270713   9.924  10.256   3.759  0.2399  1.4129  0.0844
52997SOL     OW70714   6.831   0.982  10.747  0.2464 -0.0319 -0.1108
52997SOL    HW170715   6.834   1.039  10.824  0.6957 -0.2119  0.0131
52997SOL    HW270716   6.911   0.930  10.753  0.0277 -0.4156 -0.4209
52998SOL     OW70717   4.556   0.759   0.870 -0.0331 -0.0213 -0.4016
52998SOL    HW170718   4.614   0.729   0.800 -0.2312  0.3924 -0.7512
52998SOL    HW270719   4.470   0.769   0.827 -0.1930  0.0729 -0.0608
52999SOL     OW70720  11.608   3.423  11.730 -0.0937 -0.7520 -0.2947
52999SOL    HW170721  11.546   3.460  11.667  0.9227 -1.5346 -1.8227
52999SOL    HW270722  11.617   3.331  11.703  1.2389 -0.8034  0.2804
53000SOL     OW70723   9.285   2.680   5.191  0.2409 -0.6849 -0.6678
53000SOL    HW170724   9.233   2.606   5.222  3.1651 -2.6150 -0.0167
53000SOL    HW270725   9.308   2.657   5.101  1.8982 -1.0733 -0.1787
53001SOL     OW70726   4.638   8.467   0.595  0.3730 -0.1677 -0.0923
53001SOL    HW170727   4.614   8.518   0.518  0.7516  0.2862  0.0901
53001SOL    HW270728   4.571   8.489   0.660  0.0150 -0.6020 -0.3059
53002SOL     OW70729   1.527   2.123   0.657  0.0256  0.0985  0.4013
53002SOL    HW170730   1.620   2.127   0.635 -0.0971 -0.7806 -0.3477
53002SOL    HW270731   1.513   2.197   0.716  1.5469 -0.6868  1.8270
53003SOL     OW70732   9.894   7.289   5.015 -0.1632  0.0040 -0.1103
53003SOL    HW170733   9.840   7.264   4.939  1.8458 -0.4944 -1.4442
53003SOL    HW270734   9.836   7.344   5.068 -2.3482 -1.4550 -0.8459
53004SOL     OW70735   1.615   5.339   6.435 -0.4165  0.8437 -0.0986
53004SOL    HW170736   1.541   5.306   6.486 -0.4957 -0.1775 -0.8550
53004SOL    HW270737   1.690   5.328   6.494 -0.4008 -0.9486 -0.3818
53005SOL     OW70738  11.011   6.224   8.916  0.1241 -0.5041 -0.0147
53005SOL    HW170739  11.070   6.214   8.841  0.1024 -1.5397  0.0896
53005SOL    HW270740  11.031   6.311   8.951 -0.4193  0.3217 -1.6770
53006SOL     OW70741   0.051   5.020   6.524 -0.2637 -0.3468 -0.2336
53006SOL    HW170742  -0.014   4.998   6.457 -3.1295  0.0843  2.2105
53006SOL    HW270743   0.070   5.112   6.510  1.0504 -0.8090 -1.8494
53007SOL     OW70744   1.567   8.681  11.124  0.2418  0.2488  0.2241
53007SOL    HW170745   1.616   8.606  11.157  2.0748  2.2385  2.3788
53007SOL    HW270746   1.574   8.675  11.029  0.7591 -1.9822  0.3453
53008SOL     OW70747   3.891   3.355   8.519  0.0214  0.1605  0.0000
53008SOL    HW170748   3.848   3.270   8.508  1.5096 -0.7869  1.0684
53008SOL    HW270749   3.883   3.374   8.612  0.2912  0.8638 -0.1105
53009SOL     OW70750   5.058   8.062   6.460 -0.5386 -0.3008 -0.1855
53009SOL    HW170751   5.103   8.014   6.529  0.0011  0.2564 -0.1460
53009SOL    HW270752   4.971   8.081   6.497 -0.6323 -0.9233 -0.0707
53010SOL     OW70753   6.841   0.466  11.581 -0.3333  0.3156  0.2277
53010SOL    HW170754   6.910   0.526  11.552 -1.0818  1.7843  1.3579
53010SOL    HW270755   6.831   0.484  11.674  1.5131 -3.7595  1.4322
53011SOL     OW70756   5.223   0.423   2.974 -0.8494 -0.4182  0.3357
53011SOL    HW170757   5.152   0.441   2.912  0.4177  1.5963 -0.6579
53011SOL    HW270758   5.248   0.509   3.007  1.7934 -0.8990 -0.1698
53012SOL     OW70759   7.644   4.485  10.054  0.6591  0.1509 -0.1699
53012SOL    HW170760   7.692   4.541   9.992  1.3794 -1.0902 -0.7670
53012SOL    HW270761   7.699   4.485  10.133  1.5303 -1.0169 -0.7454
53013SOL     OW70762   7.433   3.595   4.895  0.1114 -0.5693 -0.3989
53013SOL    HW170763   7.430   3.619   4.988  0.1378 -1.8070 -0.0736
53013SOL    HW270764   7.342   3.578   4.872 -0.0554  0.8550 -0.9262
53014SOL     OW70765   6.167  10.589  11.285 -0.4194  0.4408 -0.3318
53014SOL    HW170766   6.190  10.503  11.321 -1.8329 -0.1584 -0.7576
53014SOL    HW270767   6.092  10.617  11.337  0.4822  1.7867  0.2870
53015SOL     OW70768   4.664   8.293   6.677  0.5973  0.0350 -0.9270
53015SOL    HW170769   4.670   8.361   6.744 -1.5700 -0.5658 -0.0560
53015SOL    HW270770   4.619   8.336   6.604 -0.4052 -0.3325 -0.5340
53016SOL     OW70771   5.887   2.966   6.632 -0.6588  0.2861 -0.2460
53016SOL    HW170772   5.822   2.963   6.563 -1.4215  0.4638  0.4442
53016SOL    HW270773   5.893   3.058   6.656  0.3011  0.3565 -0.7088
53017SOL     OW70774   8.356   4.716   8.522  0.1541  0.5501  0.0361
53017SOL    HW170775   8.326   4.748   8.436 -0.1460 -1.1575 -0.5215
53017SOL    HW270776   8.276   4.685   8.565  0.4994  0.1118  0.3680
53018SOL     OW70777   9.540   3.134   7.667 -0.3104 -0.3031  0.9172
53018SOL    HW170778   9.624   3.098   7.637  0.4216 -0.5118  3.0700
53018SOL    HW270779   9.558   3.169   7.754 -2.2906  0.3949  1.1036
53019SOL     OW70780   4.751   9.766   7.085  0.3860 -0.2357  0.1089
53019SOL    HW170781   4.778   9.739   7.173  1.4769 -0.7136 -0.3618
53019SOL    HW270782   4.745   9.685   7.035 -3.5026 -0.4224  0.5080
53020SOL     OW70783   6.168   1.497   1.065 -0.1850 -0.2954  0.0853
53020SOL    HW170784   6.215   1.576   1.036 -1.4777 -0.2478 -2.0849
53020SOL    HW270785   6.174   1.500   1.161 -0.7736  2.8245  0.1402
53021SOL     OW70786   6.800   1.596   4.997  0.2374  0.1171  0.2347
53021SOL    HW170787   6.747   1.563   5.069  0.9284 -0.5247  0.4596
53021SOL    HW270788   6.800   1.691   5.009  2.1133 -0.0800  2.3911
53022SOL     OW70789   0.244   1.114   7.837  0.0833  0.1579 -0.5256
53022SOL    HW170790   0.155   1.136   7.809  0.1023 -0.6599 -1.2842
53022SOL    HW270791   0.233   1.075   7.924 -0.5265 -1.5491 -1.3196
53023SOL     OW70792   1.960   6.905   7.077  0.1910 -0.6655 -0.4211
53023SOL    HW170793   2.037   6.936   7.029 -0.8642 -0.0800 -1.7794
53023SOL    HW270794   1.947   6.816   7.046 -0.0459 -0.5528 -0.6395
53024SOL     OW70795  10.180   7.365  10.338 -0.4398  0.6133  0.1487
53024SOL    HW170796  10.172   7.376  10.243  0.5936  0.9581  0.0876
53024SOL    HW270797  10.167   7.453  10.373  1.7963  1.0011  0.1142
53025SOL     OW70798  11.226   2.379   2.335 -0.2582  0.3560 -0.4094
53025SOL    HW170799  11.259   2.463   2.367  0.0795  0.6145 -1.3988
53025SOL    HW270800  11.175   2.345   2.408  1.3173  0.4334  0.7967
53026SOL     OW70801   6.349   8.536  11.451  0.0584  0.3180 -0.0404
53026SOL    HW170802   6.337   8.492  11.367 -0.4047  1.4564 -0.5890
53026SOL    HW270803   6.381   8.623  11.428 -1.1452  1.0339  0.9143
53027SOL     OW70804  10.960   8.301  10.307 -0.3198 -0.0142  0.0002
53027SOL    HW170805  10.914   8.223  10.339  1.2731 -0.6916  0.7704
53027SOL    HW270806  10.913   8.327  10.229 -0.9460 -1.7107 -0.2235
53028SOL     OW70807   6.991   6.281  10.232 -0.5379 -0.0284  0.2158
53028SOL    HW170808   6.962   6.359  10.279  1.4052  1.9099 -1.5670
53028SOL    HW270809   7.036   6.315  10.155 -0.4885 -2.9764 -1.1864
53029SOL     OW70810   8.111   5.533   5.466  0.1062 -0.1866 -0.0342
53029SOL    HW170811   8.097   5.441   5.448 -0.7167  0.1776 -1.3557
53029SOL    HW270812   8.205   5.546   5.457  0.2006 -0.8473 -0.0062
53030SOL     OW70813   5.403   9.094   6.632  0.1460 -0.3521 -0.3880
53030SOL    HW170814   5.479   9.041   6.607 -0.0870 -0.7239 -0.3109
53030SOL    HW270815   5.363   9.118   6.548 -1.1222 -2.3118 -0.3957
53031SOL     OW70816  11.722   5.944  10.552 -0.0430 -0.0350  0.1204
53031SOL    HW170817  11.632   5.951  10.520 -0.4838 -1.9317  0.8008
53031SOL    HW270818  11.742   5.850  10.546  1.1062  0.0326  2.0213
53032SOL     OW70819   3.236  11.435   9.531  0.4935  0.4962 -0.1571
53032SOL    HW170820   3.173  11.452   9.602 -0.7085  0.6830 -1.2270
53032SOL    HW270821   3.186  11.452   9.451  1.9607  0.7486 -1.0448
53033SOL     OW70822   3.607   4.588   0.845  0.0013 -0.4797 -0.0270
53033SOL    HW170823   3.608   4.566   0.938 -0.0806 -2.6892 -0.4941
53033SOL    HW270824   3.666   4.525   0.804  0.5296  0.8460 -1.4216
53034SOL     OW70825   0.904  11.749   9.995 -0.1393 -0.3592  0.0466
53034SOL    HW170826   0.920  11.691  10.069  0.6497 -0.0157  0.1588
53034SOL    HW270827   0.809  11.761   9.993 -0.3293 -1.7018 -0.0298
53035SOL     OW70828   4.129   3.985   1.979 -0.4520 -0.3455 -0.0226
53035SOL    HW170829   4.149   4.062   1.926  0.6181  0.1443  1.0397
53035SOL    HW270830   4.046   4.004   2.021 -0.3492  0.0915 -0.0184
53036SOL     OW70831   6.917  11.016   8.903  0.1746  0.3119 -0.3755
53036SOL    HW170832   6.943  11.035   8.813  0.4757  0.7530 -0.1989
53036SOL    HW270833   6.866  11.093   8.929 -0.1296  0.0695 -0.2542
53037SOL     OW70834   9.534   0.908   1.879  0.5196  0.4811  0.6302
53037SOL    HW170835   9.628   0.896   1.895  0.6957  0.0398 -0.5684
53037SOL    HW270836   9.492   0.836   1.924  0.7084  0.9332  1.5500
53038SOL     OW70837   7.422   7.253   1.193 -0.0886 -0.6576 -0.6084
53038SOL    HW170838   7.424   7.344   1.164 -3.2938  0.1405  1.1016
53038SOL    HW270839   7.338   7.220   1.162  0.2417 -2.4893  0.3072
53039SOL     OW70840   2.136   7.371   4.568 -0.4850 -0.2371 -0.2626
53039SOL    HW170841   2.137   7.312   4.643 -1.5445 -2.4158 -1.8595
53039SOL    HW270842   2.191   7.329   4.502 -0.4016  1.1046 -1.0950
53040SOL     OW70843   4.069  10.884   3.139 -0.4022  0.5680 -0.0194
53040SOL    HW170844   4.108  10.949   3.082  1.8794 -0.7729 -0.0962
53040SOL    HW270845   4.141  10.826   3.163 -2.2217 -1.6656  0.4132
53041SOL     OW70846  10.023   2.612   9.195 -0.7134 -0.0647 -0.5007
53041SOL    HW170847   9.946   2.664   9.170 -0.4980 -0.4268 -1.9799
53041SOL    HW270848  10.091   2.638   9.132  0.8188  1.1988  1.5417
53042SOL     OW70849   7.913   1.417   0.123 -0.0835  0.3628  0.1762
53042SOL    HW170850   7.959   1.436   0.041 -1.9013  1.8617 -0.5588
53042SOL    HW270851   7.821   1.431   0.103 -0.6396  0.0680  2.3008
53043SOL     OW70852   9.206   5.970   1.902  0.0164 -0.4398  0.1706
53043SOL    HW170853   9.189   5.971   1.807 -2.5380 -1.9683  0.5247
53043SOL    HW270854   9.302   5.978   1.909  0.3476 -0.9748 -2.5611
53044SOL     OW70855   7.662   9.186   7.082 -0.2878 -0.6427  0.1550
53044SOL    HW170856   7.751   9.218   7.088 -0.2879 -0.2603 -1.5097
53044SOL    HW270857   7.612   9.241   7.143  0.5670 -0.7765  0.9967
53045SOL     OW70858   9.536   3.217  10.132 -0.1261 -0.3200 -0.4153
53045SOL    HW170859   9.458   3.271  10.125  0.2658  0.7241  2.0877
53045SOL    HW270860   9.597   3.254  10.069  0.1609  2.3330  1.2757
53046SOL     OW70861   4.306  10.326   7.320 -0.3092  0.5350 -0.2066
53046SOL    HW170862   4.311  10.402   7.263  0.4758  0.6470 -0.0015
53046SOL    HW270863   4.397  10.307   7.343 -0.3777 -1.1482 -1.1389
53047SOL     OW70864   7.970   2.859   3.527  0.4899  0.3883  0.3107
53047SOL    HW170865   8.052   2.810   3.522  0.9956  1.3205 -1.2653
53047SOL    HW270866   7.997   2.951   3.529 -0.5053  0.6912  0.9345
53048SOL     OW70867   3.930   2.868   2.751  0.3033 -0.5277  0.1022
53048SOL    HW170868   3.852   2.812   2.746 -0.2057  0.2110 -0.8561
53048SOL    HW270869   3.983   2.842   2.675  1.1171 -1.1825  0.8777
53049SOL     OW70870   7.963   2.208   1.146 -0.2738  0.6170 -0.2591
53049SOL    HW170871   7.954   2.121   1.185  0.4516  0.9174  0.6082
53049SOL    HW270872   7.890   2.258   1.182 -0.1647  0.6185 -0.0370
53050SOL     OW70873   2.881   6.834   7.516  0.2145 -0.0024  0.2474
53050SOL    HW170874   2.797   6.803   7.551  0.5224 -1.0939  0.0519
53050SOL    HW270875   2.879   6.809   7.424  0.3606  0.8265  0.0175
53051SOL     OW70876  10.559  10.337   6.888  0.1352 -0.3756 -0.2797
53051SOL    HW170877  10.592  10.334   6.798  0.1507 -0.2448 -0.2789
53051SOL    HW270878  10.506  10.417   6.891  0.3815 -0.2185 -0.0882
53052SOL     OW70879   5.445  11.010   1.339  0.1888  0.7370 -0.1806
53052SOL    HW170880   5.420  10.997   1.247 -0.8545  1.7369 -0.0620
53052SOL    HW270881   5.440  10.923   1.378 -0.0342  0.4118 -0.9234
53053SOL     OW70882   8.483   3.297   6.679 -0.0572  0.4295 -0.0195
53053SOL    HW170883   8.524   3.375   6.642 -0.0412 -0.6080 -2.3719
53053SOL    HW270884   8.556   3.244   6.711  0.2441 -0.0953 -1.5077
53054SOL     OW70885  10.550   6.473   8.325  0.2046 -0.3547 -0.2674
53054SOL    HW170886  10.539   6.383   8.295 -0.5360 -0.6171  0.7461
53054SOL    HW270887  10.645   6.486   8.326  0.5677 -2.3453  2.9617
53055SOL     OW70888   2.474  11.502  10.888 -0.0280 -0.1386  0.2089
53055SOL    HW170889   2.404  11.567  10.886  0.0707 -0.0470 -1.7946
53055SOL    HW270890   2.443  11.432  10.831  1.3645 -0.2505 -0.4386
53056SOL     OW70891   1.649   2.984   5.332 -1.0354  0.1330 -0.4875
53056SOL    HW170892   1.613   3.003   5.245 -0.7920 -1.2378 -0.8992
53056SOL    HW270893   1.743   2.977   5.318 -0.8567  1.0649  0.1196
53057SOL     OW70894  10.597   3.139  11.379  0.2589  0.7809 -0.0273
53057SOL    HW170895  10.602   3.078  11.306  0.2582  0.8342 -0.0723
53057SOL    HW270896  10.537   3.208  11.349  0.1113  0.7061  0.0961
53058SOL     OW70897   2.919   8.880   8.452 -0.1912 -0.2949  0.5335
53058SOL    HW170898   2.998   8.917   8.493  0.7429 -1.5076 -0.1316
53058SOL    HW270899   2.943   8.865   8.361 -1.3742 -0.1905  0.1835
53059SOL     OW70900   2.010   8.017   9.471 -0.8392  0.1685  0.4377
53059SOL    HW170901   2.073   7.945   9.476  0.6853  1.2383 -1.7421
53059SOL    HW270902   2.061   8.091   9.437 -2.9079  1.5870  0.2616
53060SOL     OW70903   4.036   8.528  10.289  0.2682 -0.5569 -0.1031
53060SOL    HW170904   4.002   8.449  10.330  0.8498 -0.5937  0.3267
53060SOL    HW270905   4.051   8.588  10.363 -0.1078 -0.0712 -0.4162
53061SOL     OW70906   1.318  11.068  11.117  0.4511  0.5588 -0.6405
53061SOL    HW170907   1.297  11.126  11.044  0.6876  1.1107 -0.2812
53061SOL    HW270908   1.313  11.124  11.194  0.1044 -0.0387 -0.2202
53062SOL     OW70909   2.480   8.827   9.566 -0.0064  0.0551 -0.5678
53062SOL    HW170910   2.574   8.810   9.561 -0.1901 -0.8494 -1.0725
53062SOL    HW270911   2.441   8.771   9.499 -1.0121 -0.3994  0.3637
53063SOL     OW70912   6.152   5.518   5.937 -0.0550  0.4806 -0.5078
53063SOL    HW170913   6.193   5.602   5.954  0.9833  0.0887 -0.9585
53063SOL    HW270914   6.204   5.480   5.866 -0.1948 -0.7487  0.0147
53064SOL     OW70915   8.460   3.208   2.731  0.0419 -0.3798  0.0683
53064SOL    HW170916   8.440   3.163   2.649  3.8163 -2.8199  0.2443
53064SOL    HW270917   8.530   3.269   2.708 -2.1216  2.5387  0.6990
53065SOL     OW70918   7.549   7.458   8.842 -0.1857  0.0283  0.5099
53065SOL    HW170919   7.588   7.457   8.929  0.2551  1.0654  0.3386
53065SOL    HW270920   7.464   7.501   8.854 -1.3275 -2.1775  0.8741
53066SOL     OW70921   8.655  11.763   8.050  0.0052 -0.0979  0.2118
53066SOL    HW170922   8.714  11.699   8.010 -0.6589 -1.4622  1.2769
53066SOL    HW270923   8.712  11.833   8.081  0.8435 -0.4992 -0.4037
53067SOL     OW70924   0.664  11.093  10.957 -0.5406 -0.1078  0.0360
53067SOL    HW170925   0.742  11.132  10.918 -1.7695 -0.0439 -2.5818
53067SOL    HW270926   0.612  11.168  10.986 -0.4357 -0.0602  0.1004
53068SOL     OW70927   8.175   6.540   6.491 -0.0900  0.1464 -0.0082
53068SOL    HW170928   8.122   6.572   6.564 -1.0190 -0.6691 -0.2973
53068SOL    HW270929   8.134   6.578   6.414 -0.9475 -1.3337 -0.3208
53069SOL     OW70930  11.007   0.140   6.803  0.3780  0.3202 -0.0067
53069SOL    HW170931  10.934   0.099   6.849  0.6214  0.4322  0.4915
53069SOL    HW270932  11.060   0.066   6.772 -0.2668  0.2247 -0.9190
53070SOL     OW70933   3.706   3.292   0.263  0.3184 -0.2497 -0.4064
53070SOL    HW170934   3.753   3.373   0.242 -0.4416  0.3052 -0.0154
53070SOL    HW270935   3.664   3.309   0.347 -1.4835 -0.3040 -1.2341
53071SOL     OW70936   1.690   1.216   5.436 -0.0706  0.3385 -0.7006
53071SOL    HW170937   1.602   1.250   5.450 -0.1503 -0.1476  0.0850
53071SOL    HW270938   1.704   1.157   5.510 -0.2730 -2.0016 -2.4151
53072SOL     OW70939   8.993   6.254   5.980  0.2130  0.4010  0.0671
53072SOL    HW170940   9.047   6.190   6.026  1.2583  1.3327  0.1744
53072SOL    HW270941   8.977   6.214   5.894 -1.2649 -1.0895  0.9609
53073SOL     OW70942  11.086   5.006   4.190  0.6073 -0.3361 -0.2658
53073SOL    HW170943  11.134   5.089   4.187  0.2503 -0.1454 -0.6651
53073SOL    HW270944  11.092   4.979   4.282  0.9887 -0.0246 -0.1951
53074SOL     OW70945   7.392   5.496   2.264  0.1707 -0.1118 -0.4971
53074SOL    HW170946   7.346   5.465   2.185 -0.6231 -0.7074  0.1741
53074SOL    HW270947   7.464   5.434   2.276  1.3381  0.9492 -1.6767
53075SOL     OW70948   1.648   3.158   9.036 -0.0674  0.5668 -0.0771
53075SOL    HW170949   1.638   3.236   8.982  0.0071  0.8697  0.3362
53075SOL    HW270950   1.742   3.143   9.039  0.0120  1.1270  0.7502
53076SOL     OW70951   3.089   2.898   1.196 -0.2468 -0.1800 -0.4034
53076SOL    HW170952   3.125   2.815   1.165  0.1046 -0.3450  0.4006
53076SOL    HW270953   3.115   2.902   1.289 -0.5154  0.6837 -0.3532
53077SOL     OW70954   2.834   6.310  11.749  0.3569  0.0433  0.2344
53077SOL    HW170955   2.812   6.324  11.841  0.5818  3.7279 -0.1054
53077SOL    HW270956   2.782   6.376  11.702  1.8078 -0.3345 -2.0436
53078SOL     OW70957   1.376   2.589  10.083  0.1479 -0.0306  0.2346
53078SOL    HW170958   1.329   2.621  10.006  0.6191 -0.9475 -0.4511
53078SOL    HW270959   1.464   2.625  10.074  0.3596 -0.5795  0.0478
53079SOL     OW70960   7.428   9.699   4.064 -0.0840 -0.5358  0.2653
53079SOL    HW170961   7.369   9.774   4.073 -1.7622 -1.1544 -3.3860
53079SOL    HW270962   7.427   9.656   4.149  0.0620  2.8917  2.1565
53080SOL     OW70963   5.913   2.049   9.683 -0.3527  0.2151 -0.5398
53080SOL    HW170964   6.007   2.053   9.668  0.2843 -1.8318  2.0347
53080SOL    HW270965   5.888   2.139   9.705  1.3050  0.5475  0.1222
53081SOL     OW70966   0.988   4.359   6.941  0.0241 -0.0196  0.2065
53081SOL    HW170967   1.043   4.402   6.876 -0.2812 -1.0141 -0.7514
53081SOL    HW270968   0.904   4.404   6.935  1.0197  2.4511  2.6606
53082SOL     OW70969   0.528   2.451   7.406  0.1326 -0.2648 -0.0294
53082SOL    HW170970   0.536   2.424   7.498 -0.2808  1.2408  0.4799
53082SOL    HW270971   0.570   2.380   7.357 -1.1230 -1.9396  1.1814
53083SOL     OW70972   9.683   8.524   6.445  0.1255 -0.2798 -0.0696
53083SOL    HW170973   9.671   8.613   6.411  0.5033  1.0821  3.0776
53083SOL    HW270974   9.680   8.468   6.367  0.4550  2.5155 -2.2288
53084SOL     OW70975   6.402   1.942  11.207 -0.5468  0.1471  0.4375
53084SOL    HW170976   6.331   1.971  11.265 -0.7983 -0.9442  0.6998
53084SOL    HW270977   6.358   1.893  11.138 -0.0799 -0.2624  0.4242
53085SOL     OW70978   4.823   6.906   4.205  0.9146  0.3547 -0.4466
53085SOL    HW170979   4.836   6.986   4.154 -0.5307  1.4297  0.7796
53085SOL    HW270980   4.861   6.925   4.290  2.0540 -0.9190 -0.6401
53086SOL     OW70981   7.993  10.789   9.314  0.2729  0.0903 -0.1651
53086SOL    HW170982   7.965  10.703   9.284  0.0359  0.2941 -0.5454
53086SOL    HW270983   8.034  10.829   9.237  0.4495  0.2843  0.0299
53087SOL     OW70984  10.977   1.392   3.966  0.1067  0.2864  0.6184
53087SOL    HW170985  11.004   1.417   4.054  3.1021  0.3954 -0.2124
53087SOL    HW270986  10.942   1.303   3.976  1.8489 -0.3297  1.7523
53088SOL     OW70987   1.316   0.235   4.334  0.4722 -0.0006 -0.4355
53088SOL    HW170988   1.237   0.190   4.303 -0.6052  1.1252  0.5664
53088SOL    HW270989   1.352   0.176   4.400  0.3143 -0.4100 -0.7127
53089SOL     OW70990   2.804   7.362   7.136  0.0245  0.3813  0.2569
53089SOL    HW170991   2.877   7.423   7.141 -0.3187  0.8328 -0.1104
53089SOL    HW270992   2.727   7.416   7.151 -0.4437  0.3902 -1.8755
53090SOL     OW70993   4.049   6.878   7.318 -0.1584 -0.0527  0.1268
53090SOL    HW170994   4.119   6.843   7.372  0.8365 -0.4940 -1.4051
53090SOL    HW270995   4.029   6.809   7.255 -0.3324  0.9378 -0.9512
53091SOL     OW70996   2.414   6.968   8.590 -0.2783 -0.3704 -0.2390
53091SOL    HW170997   2.469   6.990   8.514  0.3289  0.5272  0.4274
53091SOL    HW270998   2.445   6.881   8.617  0.3819 -0.1578 -0.2733
53092SOL     OW70999   0.394   2.338   4.303  0.7818  0.0181 -0.0489
53092SOL    HW171000   0.393   2.428   4.273  2.2064 -0.5880 -2.0789
53092SOL    HW271001   0.375   2.286   4.225 -2.6846 -1.4205  1.5530
53093SOL     OW71002   3.016   6.954   7.736  0.8326 -0.3900  0.0457
53093SOL    HW171003   2.956   6.955   7.661  2.4574  0.4907 -1.3124
53093SOL    HW271004   3.069   6.875   7.722 -0.2090 -1.3859  1.4563
53094SOL     OW71005  11.368   3.739   9.086 -0.1839  0.1629 -0.2974
53094SOL    HW171006  11.437   3.732   9.153 -0.1480 -1.1138 -0.4468
53094SOL    HW271007  11.300   3.680   9.117 -0.3131 -0.1776 -1.2151
53095SOL     OW71008   3.700   7.603   3.303 -0.5533  0.4518  0.0418
53095SOL    HW171009   3.677   7.577   3.214 -0.1868  0.1446  0.0348
53095SOL    HW271010   3.668   7.693   3.311  0.9535  1.1245 -0.9949
53096SOL     OW71011   6.742   4.511   1.377 -0.6643 -0.5936 -0.3933
53096SOL    HW171012   6.833   4.497   1.403 -0.5249  1.1438  0.1801
53096SOL    HW271013   6.748   4.550   1.290 -0.7689  0.9199  0.2565
53097SOL     OW71014   5.113  11.067   9.600  0.3439  0.3425 -0.6941
53097SOL    HW171015   5.055  11.126   9.648 -0.2685 -2.1582  1.9183
53097SOL    HW271016   5.172  11.032   9.667  0.3774 -2.3000 -1.9807
53098SOL     OW71017   3.738   0.977   6.884 -0.0158 -0.3405  0.8936
53098SOL    HW171018   3.806   0.935   6.937  2.5725 -0.2722 -2.0860
53098SOL    HW271019   3.763   1.069   6.881  0.0017 -0.3700 -0.5291
53099SOL     OW71020  10.613   4.116   2.694  0.0597 -0.0237 -0.2634
53099SOL    HW171021  10.671   4.192   2.703 -0.6338  0.4241  0.6784
53099SOL    HW271022  10.527   4.154   2.677 -0.3415 -0.5914  0.4601
53100SOL     OW71023  11.668   3.434   7.454 -0.2300 -0.8044  0.0868
53100SOL    HW171024  11.734   3.485   7.407  0.8428  0.6782  2.9295
53100SOL    HW271025  11.601   3.498   7.479 -2.0506 -2.0077 -1.4067
53101SOL     OW71026   6.013   3.213   0.152 -0.0684  0.0753  0.2037
53101SOL    HW171027   6.069   3.152   0.105 -1.7163 -0.3858 -1.2319
53101SOL    HW271028   6.067   3.242   0.226  2.2154  0.0093 -1.3410
53102SOL     OW71029   5.840   9.009  10.887  0.0730  0.6794  0.3044
53102SOL    HW171030   5.784   9.061  10.944  0.1544  1.8660 -0.6551
53102SOL    HW271031   5.886   8.949  10.946 -1.0548  0.7429  1.2716
53103SOL     OW71032   1.437   6.522   8.871 -0.7162  0.3187  0.0707
53103SOL    HW171033   1.430   6.615   8.849  0.5470  0.3816 -0.1207
53103SOL    HW271034   1.427   6.476   8.787  0.1768  0.3622 -0.0634
53104SOL     OW71035   9.209   8.653   8.336  0.4972  0.4555  0.1484
53104SOL    HW171036   9.298   8.679   8.361  1.5402  0.2848 -2.9047
53104SOL    HW271037   9.212   8.558   8.331  1.0115  0.5247 -2.3800
53105SOL     OW71038   0.719   5.130   1.773  0.0101 -0.2103  0.4113
53105SOL    HW171039   0.721   5.066   1.701  0.4936 -1.0875  1.1823
53105SOL    HW271040   0.811   5.153   1.786 -0.1413  0.4759  0.3039
53106SOL     OW71041   9.183   0.423   7.216  0.4101 -0.5784 -0.0245
53106SOL    HW171042   9.241   0.428   7.292 -1.0652 -0.8718  1.1622
53106SOL    HW271043   9.227   0.476   7.149  1.1751  0.6955  1.4216
53107SOL     OW71044  11.105   9.006   5.247 -0.5521  0.4778  0.0015
53107SOL    HW171045  11.056   8.970   5.173  1.4287  0.8139 -1.5675
53107SOL    HW271046  11.070   9.094   5.258 -3.1437 -0.6439  1.7149
53108SOL     OW71047   5.359   7.097   0.267  0.5615  0.4782  0.2606
53108SOL    HW171048   5.268   7.071   0.254  0.3335  1.4554 -0.1383
53108SOL    HW271049   5.392   7.036   0.334 -1.2043  1.9253  2.6033
53109SOL     OW71050   5.753  11.329   4.942 -0.4667 -0.8342 -0.2812
53109SOL    HW171051   5.665  11.357   4.971 -0.4655 -0.1876 -0.8703
53109SOL    HW271052   5.797  11.411   4.919 -0.7266 -1.3409 -2.8336
53110SOL     OW71053   4.170   9.506   2.921  0.3496 -0.1143 -0.4629
53110SOL    HW171054   4.116   9.428   2.919 -1.4064  1.0354 -0.3681
53110SOL    HW271055   4.208   9.507   3.009  0.6021 -0.9639 -0.5536
53111SOL     OW71056   1.783   3.987   8.280  0.0059 -0.1775  0.1399
53111SOL    HW171057   1.702   4.037   8.290  0.6336  0.9425 -0.2044
53111SOL    HW271058   1.850   4.042   8.320  0.7600 -0.6512 -0.4411
53112SOL     OW71059  11.314  11.649   7.803  0.0598 -0.3128 -0.1846
53112SOL    HW171060  11.314  11.737   7.841 -0.4710  0.3065 -1.5710
53112SOL    HW271061  11.223  11.621   7.805  0.2257 -0.8422  0.2546
53113SOL     OW71062   6.258   2.993   2.336  0.7377 -0.0653 -0.2803
53113SOL    HW171063   6.206   2.943   2.273  1.0533 -0.1916 -0.4422
53113SOL    HW271064   6.314   3.049   2.281 -0.4569  1.3503 -0.1010
53114SOL     OW71065   0.214   4.176   8.661  0.0270  0.1286  0.5319
53114SOL    HW171066   0.231   4.192   8.754  0.9436  0.5252  0.3110
53114SOL    HW271067   0.215   4.263   8.621  0.2464 -0.0849  0.0628
53115SOL     OW71068   8.446   7.078   3.583  0.4089  0.1194 -0.3025
53115SOL    HW171069   8.453   6.984   3.566  0.4153  0.0341  0.1430
53115SOL    HW271070   8.411   7.115   3.502  2.2208  0.0089 -1.1793
53116SOL     OW71071   3.716   8.085   2.731  0.1933  0.0106 -0.4914
53116SOL    HW171072   3.807   8.115   2.721  0.3092 -0.9525 -3.1564
53116SOL    HW271073   3.679   8.091   2.643 -1.8900 -1.0462  0.2449
53117SOL     OW71074   9.119  10.277   6.210  0.0136 -0.1192  0.5958
53117SOL    HW171075   9.200  10.305   6.167 -0.6931  0.2501 -0.5638
53117SOL    HW271076   9.061  10.353   6.204 -0.8770 -0.8076  0.1577
53118SOL     OW71077   5.557   4.611   9.058  0.0099 -0.2381 -0.4340
53118SOL    HW171078   5.630   4.670   9.042 -0.4381  0.2817 -0.5823
53118SOL    HW271079   5.546   4.563   8.976 -1.3225  1.3646 -1.2580
53119SOL     OW71080   4.007   6.277   4.088 -0.0198  0.5341  0.1056
53119SOL    HW171081   4.021   6.364   4.050 -0.2651  1.0046  1.0864
53119SOL    HW271082   3.912   6.265   4.086  0.0780 -0.3273 -1.3376
53120SOL     OW71083   9.682   0.878   0.411 -0.1207 -0.6771  0.1114
53120SOL    HW171084   9.741   0.804   0.398 -1.2952 -1.2671 -2.3968
53120SOL    HW271085   9.726   0.952   0.368  0.1136 -0.3805  0.8382
53121SOL     OW71086   5.724  11.180   0.043  0.1407 -0.0239  0.6807
53121SOL    HW171087   5.659  11.163  -0.025  0.6224 -0.2412  0.2651
53121SOL    HW271088   5.797  11.221  -0.003  0.2882  0.2514  1.1484
53122SOL     OW71089   3.663   4.115   6.015 -0.0267 -0.0599  0.2032
53122SOL    HW171090   3.749   4.136   5.978  0.3578  0.4480  1.3318
53122SOL    HW271091   3.600   4.158   5.957  0.2871 -2.4296 -2.0541
53123SOL     OW71092   4.401   5.144   8.556  0.1884  0.0950 -0.0797
53123SOL    HW171093   4.382   5.158   8.463 -1.4312  0.8663  0.3271
53123SOL    HW271094   4.454   5.220   8.581 -2.1505  1.7039  0.3358
53124SOL     OW71095   9.594   0.909  11.829  0.1952 -0.5516 -0.5726
53124SOL    HW171096   9.503   0.909  11.799  0.1429 -1.4395 -0.4464
53124SOL    HW271097   9.645   0.883  11.752  0.3272 -0.2312 -0.5958
53125SOL     OW71098   2.440   3.518   1.782 -0.1952  0.0874  0.1423
53125SOL    HW171099   2.388   3.451   1.738 -2.9576  2.4087 -0.4726
53125SOL    HW271100   2.468   3.577   1.712 -0.2919  1.1082  0.9370
53126SOL     OW71101  10.021   9.709  11.074 -0.0264 -0.2985  0.6081
53126SOL    HW171102  10.106   9.741  11.043  1.0926 -2.7808  0.9036
53126SOL    HW271103  10.041   9.629  11.122 -2.6132 -1.4146  0.0198
53127SOL     OW71104   6.606   0.968   5.091  0.1637 -0.2976  0.4763
53127SOL    HW171105   6.594   1.049   5.042 -1.0139 -0.1074  1.0397
53127SOL    HW271106   6.532   0.913   5.065  0.0420 -0.5502  1.3184
53128SOL     OW71107   0.026   0.052   8.796 -0.1921 -0.0492 -1.1421
53128SOL    HW171108   0.075  -0.029   8.780  1.8348  1.1150 -1.2636
53128SOL    HW271109  -0.035   0.031   8.865  2.5228 -0.9294  1.1847
53129SOL     OW71110   9.288   5.706   2.889  0.1478  0.1297  0.9617
53129SOL    HW171111   9.282   5.719   2.794  2.0335  0.1739  0.8057
53129SOL    HW271112   9.240   5.625   2.905  0.3856 -0.2447 -0.1471
53130SOL     OW71113   6.322   7.192   0.281 -0.4687  0.1240 -0.4286
53130SOL    HW171114   6.327   7.276   0.236  0.0566  0.0413 -0.5303
53130SOL    HW271115   6.252   7.203   0.345 -2.0540 -0.1325 -2.0491
53131SOL     OW71116   5.797  11.440   9.278  0.1573  0.2157 -0.9277
53131SOL    HW171117   5.885  11.464   9.308  0.1192 -1.5917  0.8533
53131SOL    HW271118   5.742  11.514   9.300  0.7678  0.2928  0.4041
53132SOL     OW71119   2.501   6.868   5.371 -0.4140 -0.2422 -0.2967
53132SOL    HW171120   2.559   6.792   5.359 -0.8471 -0.8181  0.9874
53132SOL    HW271121   2.499   6.911   5.286  0.6200 -1.1233 -0.7935
53133SOL     OW71122   4.197   3.343   7.926 -0.2352  0.1646 -0.2636
53133SOL    HW171123   4.207   3.381   7.838 -2.3977 -1.6129 -1.3956
53133SOL    HW271124   4.122   3.284   7.917  0.3363 -1.0912  2.4710
53134SOL     OW71125   7.719   2.199   4.561 -0.0512  0.3102  0.0466
53134SOL    HW171126   7.630   2.233   4.554 -0.2392 -0.1350  0.1934
53134SOL    HW271127   7.709   2.104   4.550  0.3142  0.1822  0.7243
53135SOL     OW71128   7.190   0.426   9.523  0.1582  0.0046 -0.4080
53135SOL    HW171129   7.272   0.378   9.506 -0.3147 -0.8710 -0.3114
53135SOL    HW271130   7.214   0.518   9.517  1.2883 -0.2258  0.2408
53136SOL     OW71131   1.545   2.538   4.675  0.1280 -0.0138  0.8286
53136SOL    HW171132   1.609   2.596   4.631 -0.2293  1.2605  1.9134
53136SOL    HW271133   1.570   2.542   4.767 -1.7750  0.8827  1.3393
53137SOL     OW71134   0.178  10.962   7.866  0.2839 -0.5496 -0.0009
53137SOL    HW171135   0.111  11.022   7.898  0.1702 -1.0871  0.7908
53137SOL    HW271136   0.133  10.911   7.798  0.2953  0.0408 -0.4591
53138SOL     OW71137   4.013   3.552   8.001 -0.5290 -0.6971  0.5469
53138SOL    HW171138   4.065   3.472   8.011 -1.0261 -0.8295  2.4272
53138SOL    HW271139   3.924   3.526   8.026 -1.2199 -0.0974 -1.1095
53139SOL     OW71140   7.900   7.013   4.196  0.1589  0.5310  0.2784
53139SOL    HW171141   7.953   6.984   4.121  1.0103  0.3486  0.9323
53139SOL    HW271142   7.964   7.041   4.261 -0.5927  1.4179  0.6588
53140SOL     OW71143   3.822   5.106  10.768 -0.5616 -0.1357 -0.4744
53140SOL    HW171144   3.845   5.025  10.812 -0.1336 -0.3694 -1.1152
53140SOL    HW271145   3.758   5.147  10.825 -0.5025 -0.7452  0.0373
53141SOL     OW71146   8.977   4.620   3.487 -0.1415 -0.8074 -0.1936
53141SOL    HW171147   8.959   4.616   3.581  2.1123 -1.1315  0.2637
53141SOL    HW271148   9.072   4.611   3.479 -0.4196 -2.9392 -2.6383
53142SOL     OW71149   8.411   6.583  10.181  0.1602 -0.2851 -0.2809
53142SOL    HW171150   8.455   6.530  10.248  1.3637  0.2037 -0.6553
53142SOL    HW271151   8.394   6.522  10.110 -0.2442 -0.5966  0.0794
53143SOL     OW71152   9.610   0.151   2.971  0.1139  0.2321  0.0366
53143SOL    HW171153   9.600   0.176   2.879  1.1960  1.7143  0.2796
53143SOL    HW271154   9.669   0.075   2.969 -0.7438 -0.4372 -0.5403
53144SOL     OW71155  11.405   6.367   9.652  0.5823  0.5995  0.0314
53144SOL    HW171156  11.455   6.414   9.719  0.4189  0.4001  0.2908
53144SOL    HW271157  11.395   6.431   9.582  0.8262  0.7822  0.1590
53145SOL     OW71158   8.457   3.072   8.310 -1.1146  0.3129 -0.5299
53145SOL    HW171159   8.388   3.006   8.322  0.5765 -1.6628 -0.9635
53145SOL    HW271160   8.470   3.075   8.215 -0.3971  0.4008 -0.4336
53146SOL     OW71161   8.073   1.387   6.074  0.0749  0.1814 -0.2381
53146SOL    HW171162   8.053   1.396   5.981  0.3939 -1.6495 -0.5219
53146SOL    HW271163   8.136   1.456   6.092  0.2239  0.3728 -1.4494
53147SOL     OW71164   8.937   3.187   5.031  0.1226 -0.2662  0.6498
53147SOL    HW171165   8.983   3.144   5.103  0.8144 -1.3402 -0.4037
53147SOL    HW271166   8.850   3.146   5.031  0.0720 -0.1657  0.9442
53148SOL     OW71167   9.556   5.979   6.189 -0.1161  0.0105  0.0509
53148SOL    HW171168   9.517   5.926   6.258 -0.2089 -1.1243 -0.8569
53148SOL    HW271169   9.524   6.068   6.207 -1.5212 -0.5483  0.4799
53149SOL     OW71170   2.155  10.494   7.618 -0.0468 -0.2490  0.3252
53149SOL    HW171171   2.105  10.490   7.700  1.3107 -1.4441  1.1361
53149SOL    HW271172   2.089  10.481   7.550 -1.2030  0.7623  1.2028
53150SOL     OW71173   6.958   4.698   9.321 -0.7502 -0.5157 -0.9655
53150SOL    HW171174   7.011   4.620   9.336  0.3550  0.0624 -1.7420
53150SOL    HW271175   6.976   4.755   9.396 -0.8706 -0.6511 -0.8361
53151SOL     OW71176   1.229   2.084   5.452  0.2072 -0.3816  0.3406
53151SOL    HW171177   1.198   2.174   5.466 -1.6348 -1.0834  0.9857
53151SOL    HW271178   1.316   2.082   5.493  1.5903  1.8241 -2.1128
53152SOL     OW71179   3.809   9.857  11.555 -0.2011  0.0826  0.6562
53152SOL    HW171180   3.775   9.940  11.522 -0.2504  0.2201  1.0558
53152SOL    HW271181   3.832   9.808  11.476 -1.3751 -0.0413  0.3751
53153SOL     OW71182   9.074   5.598   9.745 -0.0843  0.1202 -0.4080
53153SOL    HW171183   9.151   5.646   9.715  1.1008 -0.9384  0.8181
53153SOL    HW271184   9.080   5.513   9.703 -0.0054 -0.3326  0.4864
53154SOL     OW71185   5.082   1.318   0.108  0.2693 -0.2385  0.5059
53154SOL    HW171186   5.096   1.283   0.196 -0.1322 -0.7839  0.3515
53154SOL    HW271187   5.117   1.252   0.049 -0.1467 -0.2141  0.2267
53155SOL     OW71188   2.094   7.375   5.689 -0.3466  0.2491 -1.1102
53155SOL    HW171189   2.061   7.464   5.704  0.3022  0.2328  0.6006
53155SOL    HW271190   2.181   7.374   5.729 -1.0504 -1.6303  0.5615
53156SOL     OW71191   6.481   4.771   9.819  0.1703  0.0710  0.1143
53156SOL    HW171192   6.538   4.697   9.798 -0.0648 -0.9771  2.8223
53156SOL    HW271193   6.538   4.848   9.812  1.6689 -0.8402  1.6462
53157SOL     OW71194   7.879   8.895   8.799 -0.1795  0.0617 -0.1280
53157SOL    HW171195   7.842   8.883   8.886 -0.6458  1.0842 -0.1733
53157SOL    HW271196   7.968   8.928   8.814 -0.4121  0.6632 -0.0277
53158SOL     OW71197   4.050   3.479  10.354  0.0174  0.4040  0.8360
53158SOL    HW171198   3.989   3.527  10.410 -0.7859 -0.1050  0.4195
53158SOL    HW271199   3.993   3.431  10.293  0.8237 -0.4691  0.7589
53159SOL     OW71200   7.599  10.663   1.638 -0.0384  0.3895  0.1709
53159SOL    HW171201   7.680  10.675   1.687 -0.6241 -0.5724  1.4188
53159SOL    HW271202   7.539  10.730   1.672 -0.2042  0.2089  0.2392
53160SOL     OW71203   1.982   9.097  10.587  0.0599  0.4576 -0.6493
53160SOL    HW171204   1.979   9.188  10.617 -0.1284  1.0472 -2.2961
53160SOL    HW271205   1.923   9.096  10.511  0.3772 -0.9508 -0.9027
53161SOL     OW71206   9.308   2.146   8.911 -0.1704 -0.3770 -0.2895
53161SOL    HW171207   9.277   2.105   8.830  1.4328  1.7580 -2.1030
53161SOL    HW271208   9.403   2.136   8.908  0.3487  3.3748 -0.9243
53162SOL     OW71209   1.932  11.353   9.122 -0.7682  0.0405 -0.0786
53162SOL    HW171210   1.914  11.265   9.090  0.3557 -0.0888 -0.3958
53162SOL    HW271211   1.957  11.341   9.214  1.7368 -0.2926 -0.7335
53163SOL     OW71212   2.744   5.454   3.248  0.0288 -0.2575  0.2522
53163SOL    HW171213   2.818   5.515   3.246 -0.0389 -0.1806 -0.0903
53163SOL    HW271214   2.763   5.396   3.322  0.2405 -0.0033  0.4009
53164SOL     OW71215   1.938  10.532   8.479 -0.2436 -0.3215  0.0951
53164SOL    HW171216   1.934  10.627   8.494 -2.2320 -0.7225  2.8476
53164SOL    HW271217   2.031  10.511   8.480  0.1705  1.1276  3.6677
53165SOL     OW71218  11.426   1.936   1.433  0.0750 -0.0041  0.0258
53165SOL    HW171219  11.517   1.926   1.403  0.4620 -1.1522  1.4427
53165SOL    HW271220  11.379   1.969   1.356  1.7120  0.8112 -0.6881
53166SOL     OW71221   2.745  10.642   9.305 -0.7113  0.0265  0.5439
53166SOL    HW171222   2.667  10.697   9.301  0.4274  1.6639 -0.9137
53166SOL    HW271223   2.770  10.642   9.397 -0.2288  2.8085  0.4945
53167SOL     OW71224   7.243   9.911   4.606 -0.4270 -0.3712  0.3562
53167SOL    HW171225   7.235   9.871   4.519  0.0088 -3.6615  1.6778
53167SOL    HW271226   7.328   9.955   4.605 -0.4417 -0.3390 -0.8873
53168SOL     OW71227   3.649   7.255   8.849  0.2441 -0.1380  0.1632
53168SOL    HW171228   3.609   7.184   8.800  1.3986 -1.5364  1.1627
53168SOL    HW271229   3.742   7.250   8.828  0.3801  0.9929  0.3880
53169SOL     OW71230  11.342   1.818   3.412 -0.0508 -0.4369  0.2454
53169SOL    HW171231  11.383   1.779   3.336  0.6632 -1.7709  1.2840
53169SOL    HW271232  11.391   1.899   3.428 -1.0410  0.5562 -1.4407
53170SOL     OW71233   7.023   0.472   1.276  0.4270 -0.1083 -0.3754
53170SOL    HW171234   6.957   0.410   1.305  0.4872  0.1818  0.3867
53170SOL    HW271235   6.976   0.555   1.268  0.2663 -0.2961 -1.7239
53171SOL     OW71236   8.722   3.009  10.184  0.8133 -0.4085 -0.0487
53171SOL    HW171237   8.702   3.072  10.115 -0.1045 -1.4458 -0.7708
53171SOL    HW271238   8.789   3.051  10.237  0.8819  0.7858 -1.0499
53172SOL     OW71239   8.281   5.089   2.546  0.5261 -0.4869  0.0721
53172SOL    HW171240   8.257   5.074   2.455  0.4808 -0.0620  0.0086
53172SOL    HW271241   8.295   5.184   2.552  0.0186 -0.4406  0.6278
53173SOL     OW71242   4.655   8.394   4.586  0.9524 -0.0728  0.2328
53173SOL    HW171243   4.636   8.376   4.494  0.0100  0.2889  0.3487
53173SOL    HW271244   4.578   8.363   4.633  0.9311  0.8039  0.7874
53174SOL     OW71245   4.379   3.453   8.539  0.1863 -0.0135 -0.2023
53174SOL    HW171246   4.446   3.457   8.470  0.3628  0.7470 -0.0008
53174SOL    HW271247   4.428   3.434   8.619  0.1567  0.4713 -0.0663
53175SOL     OW71248   4.174  11.926   0.521  0.0283 -0.4206  0.0768
53175SOL    HW171249   4.121  11.854   0.553 -0.2131 -0.6103 -0.7295
53175SOL    HW271250   4.257  11.886   0.497  0.2842 -0.2442  0.6324
53176SOL     OW71251   6.693   6.576   7.705  0.0865 -0.3407 -0.3518
53176SOL    HW171252   6.625   6.559   7.640  0.1089 -0.7725 -0.2647
53176SOL    HW271253   6.685   6.504   7.768 -0.1308  0.2415  0.2886
53177SOL     OW71254   2.900   6.008   5.528 -0.4492  0.0295  0.4612
53177SOL    HW171255   2.929   5.923   5.561 -0.1415 -0.0757 -0.0745
53177SOL    HW271256   2.813   6.020   5.566 -1.6104 -1.6741 -1.4363
53178SOL     OW71257   8.489   5.125   3.523 -0.1313  0.1638 -0.0989
53178SOL    HW171258   8.572   5.089   3.491  0.0796  0.1598  0.4306
53178SOL    HW271259   8.439   5.048   3.551 -0.4335  0.1434 -0.6863
53179SOL     OW71260   5.594   5.703   0.856 -0.1721 -0.0315 -0.4759
53179SOL    HW171261   5.676   5.662   0.829 -0.3462 -0.2632 -0.6655
53179SOL    HW271262   5.616   5.752   0.935 -0.3216 -1.9310  0.8216
53180SOL     OW71263   6.669   0.529   6.723 -0.6365 -0.0824 -1.3253
53180SOL    HW171264   6.729   0.493   6.788 -0.7417 -1.2159 -1.8249
53180SOL    HW271265   6.706   0.501   6.639 -0.6973  1.0480 -1.7438
53181SOL     OW71266  11.544   2.312   3.306 -0.1845  0.0485  0.1049
53181SOL    HW171267  11.496   2.369   3.365 -1.3590 -0.4185 -0.3587
53181SOL    HW271268  11.630   2.302   3.346 -1.1220 -0.7549  2.0925
53182SOL     OW71269   6.476   9.836   1.711  0.2492 -0.3568 -1.1224
53182SOL    HW171270   6.404   9.774   1.715 -1.1231  1.1999 -0.7382
53182SOL    HW271271   6.541   9.802   1.773 -0.8966 -0.8880 -0.1939
53183SOL     OW71272   8.402  11.621  11.464 -0.1676  0.2225 -0.2788
53183SOL    HW171273   8.425  11.713  11.471 -0.5012  0.5084 -2.2272
53183SOL    HW271274   8.307  11.618  11.478  0.0089 -0.0237  1.0015
53184SOL     OW71275   5.823   9.327   5.984 -0.8499  0.4390  0.2088
53184SOL    HW171276   5.739   9.368   6.002 -0.6504  0.7018  0.5545
53184SOL    HW271277   5.816   9.239   6.020 -0.5131  0.9020  1.4555
53185SOL     OW71278   9.215   4.936   4.193  0.4936  0.2487 -0.3013
53185SOL    HW171279   9.266   5.011   4.163  1.2279 -0.5981 -1.2355
53185SOL    HW271280   9.139   4.975   4.235  0.8167  1.5237 -0.8325
53186SOL     OW71281  11.495   8.282   8.373  0.0067  0.5782  0.4210
53186SOL    HW171282  11.514   8.342   8.300 -1.1277 -0.0469 -0.4252
53186SOL    HW271283  11.429   8.328   8.425 -1.0047  0.0406 -0.3325
53187SOL     OW71284   9.458   3.896   4.881  0.1716  0.4478 -0.0879
53187SOL    HW171285   9.407   3.817   4.860 -0.7488 -0.3072  4.0700
53187SOL    HW271286   9.544   3.880   4.841  0.6632 -3.7203  2.0258
53188SOL     OW71287   7.776   2.702   3.664 -0.8474  0.5143 -0.0035
53188SOL    HW171288   7.866   2.723   3.642 -0.4562 -1.1021 -0.0744
53188SOL    HW271289   7.783   2.628   3.725 -2.0981  1.0188  0.7896
53189SOL     OW71290   9.111   5.420   0.777  0.0719 -0.0461 -0.4336
53189SOL    HW171291   9.122   5.325   0.769 -1.7156 -0.1824 -2.1862
53189SOL    HW271292   9.018   5.431   0.796  0.0331  1.3677 -1.3293
53190SOL     OW71293   9.102   6.931   0.883 -0.0585 -0.1948  0.1502
53190SOL    HW171294   9.015   6.918   0.920 -0.2300 -0.1832 -0.2489
53190SOL    HW271295   9.138   7.005   0.933  0.3642 -1.2213  1.4261
53191SOL     OW71296   1.985   4.266   2.016 -0.1572 -0.0400  0.3331
53191SOL    HW171297   1.974   4.222   2.100  0.5763  1.9303  1.5538
53191SOL    HW271298   2.080   4.271   2.004 -0.2606 -0.6521 -0.8293
53192SOL     OW71299  10.830   9.975   5.952 -0.0412 -0.1534 -0.0582
53192SOL    HW171300  10.898   9.930   6.002 -0.9266 -1.2724  0.1800
53192SOL    HW271301  10.855   9.964   5.861 -0.5761 -1.7588 -0.0493
53193SOL     OW71302   4.594   8.286  10.777 -0.1070  0.3649  0.5200
53193SOL    HW171303   4.655   8.255  10.711 -0.2310  1.7926 -0.3135
53193SOL    HW271304   4.515   8.308  10.728 -0.7007  0.1406  1.3499
53194SOL     OW71305   2.097   7.581   9.091  0.5499 -0.2890  0.8216
53194SOL    HW171306   2.018   7.578   9.036  0.3849  0.2862  1.0220
53194SOL    HW271307   2.169   7.567   9.030  0.3197 -0.4001  0.5715
53195SOL     OW71308   2.551   5.896   2.457  0.2714 -0.6090 -0.0102
53195SOL    HW171309   2.525   5.988   2.464 -0.6245 -0.8110 -0.4736
53195SOL    HW271310   2.502   5.863   2.382  1.7510 -1.0882 -0.8001
53196SOL     OW71311   0.735  11.186   7.028 -0.3832 -0.7994 -0.1062
53196SOL    HW171312   0.768  11.189   7.118 -0.2008 -1.6086 -0.1421
53196SOL    HW271313   0.775  11.263   6.986  0.3035 -0.9496  0.2456
53197SOL     OW71314   4.632   9.828   6.007 -0.5566  0.7483 -0.1125
53197SOL    HW171315   4.636   9.747   5.957  0.8210  1.7252 -1.7153
53197SOL    HW271316   4.547   9.866   5.985 -0.2949  0.7801 -1.0880
53198SOL     OW71317   4.125   9.761  11.503  0.0570  0.5428  0.7312
53198SOL    HW171318   4.082   9.704  11.439 -0.7157  1.0820  0.7552
53198SOL    HW271319   4.182   9.817  11.450  0.5605 -0.0116  0.6739
53199SOL     OW71320   1.662   4.467   8.935  0.4101 -0.3028 -0.2198
53199SOL    HW171321   1.684   4.537   8.874  1.3581 -0.6481 -0.2879
53199SOL    HW271322   1.703   4.389   8.899  0.2482 -0.6839  0.3997
53200SOL     OW71323  11.387   2.910   5.817  0.0775 -0.1991  0.1026
53200SOL    HW171324  11.354   2.909   5.907  2.2301 -0.5103  0.9416
53200SOL    HW271325  11.432   2.994   5.809 -0.6433  0.1122 -0.9278
53201SOL     OW71326  10.460   5.691   2.464 -0.8264  0.4370  0.0035
53201SOL    HW171327  10.522   5.761   2.446  0.0461 -0.5923 -1.1356
53201SOL    HW271328  10.410   5.723   2.539  0.9110  1.3961  0.8228
53202SOL     OW71329   6.887   8.340   2.862  0.3336  0.1270 -0.8549
53202SOL    HW171330   6.817   8.317   2.922  0.0718 -0.9718 -1.5487
53202SOL    HW271331   6.892   8.436   2.865  1.0288  0.0878  1.6747
53203SOL     OW71332   5.291   4.091   1.576  0.0615 -0.6702 -0.0511
53203SOL    HW171333   5.327   4.157   1.517 -0.1072  1.0835  1.6708
53203SOL    HW271334   5.202   4.077   1.545  0.3650 -0.7117 -0.9279
53204SOL     OW71335   6.813   4.536   4.138  0.5762 -0.1723 -0.2580
53204SOL    HW171336   6.720   4.542   4.114  0.4419 -0.6201  0.1306
53204SOL    HW271337   6.858   4.519   4.056  0.3527  0.3794 -0.5004
53205SOL     OW71338   2.144  10.575  11.533 -0.1317  0.6015  0.6047
53205SOL    HW171339   2.173  10.581  11.624  1.1843  1.6950  0.1604
53205SOL    HW271340   2.125  10.666  11.509 -0.5910  0.3065 -0.1769
53206SOL     OW71341   5.401   6.439   1.616  0.1209 -0.4816 -0.4057
53206SOL    HW171342   5.330   6.381   1.587  0.7529 -1.2064 -0.5382
53206SOL    HW271343   5.356   6.516   1.652 -0.7200 -0.4661 -1.4353
53207SOL     OW71344  10.250  11.117  11.418  0.1780 -0.4275  0.2144
53207SOL    HW171345  10.179  11.058  11.443 -2.7186  2.7832  0.2999
53207SOL    HW271346  10.220  11.157  11.337  3.2945 -0.9203 -1.3124
53208SOL     OW71347   9.953   6.424   6.033 -0.4396 -0.3455 -1.0114
53208SOL    HW171348  10.005   6.388   5.961  1.0891 -0.0610 -0.1013
53208SOL    HW271349   9.959   6.519   6.022  0.7951 -0.2603  0.1083
53209SOL     OW71350   7.620   6.956   6.888 -0.1621  0.0619 -0.0109
53209SOL    HW171351   7.533   6.940   6.924  0.3563 -0.2236  1.1771
53209SOL    HW271352   7.654   7.030   6.939 -0.3022  1.2126 -1.5342
53210SOL     OW71353   4.634   1.726   7.663  0.3797  0.1781 -0.3789
53210SOL    HW171354   4.591   1.800   7.621 -0.1129  0.1491  0.0692
53210SOL    HW271355   4.636   1.749   7.756 -0.0143 -0.4856 -0.2047
53211SOL     OW71356   5.881   8.741   5.168  0.5011 -0.7077 -0.2947
53211SOL    HW171357   5.976   8.753   5.167  0.4089  0.1590 -0.1760
53211SOL    HW271358   5.868   8.648   5.182  1.3327 -0.6499  1.0055
53212SOL     OW71359   3.734   4.924   1.134  0.0356 -0.0743 -0.4063
53212SOL    HW171360   3.648   4.890   1.111 -0.8361  1.9993 -0.4089
53212SOL    HW271361   3.788   4.846   1.148 -1.2747 -1.4306 -2.4116
53213SOL     OW71362   7.518   7.850   0.331 -0.1832 -0.3171  0.3106
53213SOL    HW171363   7.524   7.779   0.395 -2.0947 -1.0940 -0.3049
53213SOL    HW271364   7.446   7.825   0.274  0.9691  0.7171 -1.7315
53214SOL     OW71365   1.944   4.163   5.334  0.1417 -0.1692 -0.0208
53214SOL    HW171366   1.969   4.097   5.400 -1.1779  0.2504  0.9364
53214SOL    HW271367   1.926   4.242   5.385  0.9527  0.7391 -1.0859
53215SOL     OW71368   5.694   9.251   1.180 -0.4726 -0.3151 -0.0265
53215SOL    HW171369   5.733   9.209   1.103  0.6642  1.6820 -0.6041
53215SOL    HW271370   5.622   9.303   1.145  0.0550  0.6142  0.2511
53216SOL     OW71371   7.669   0.320  10.009  0.3338 -0.0185  0.2848
53216SOL    HW171372   7.620   0.402   9.998  1.0779  0.8557  2.8869
53216SOL    HW271373   7.602   0.255  10.032 -0.1414  0.0298 -0.8808
53217SOL     OW71374   3.187   9.908   1.847  0.1487  0.4245  0.1509
53217SOL    HW171375   3.232   9.988   1.873  1.1679  0.1643 -0.7561
53217SOL    HW271376   3.257   9.847   1.824 -0.6429 -0.3498 -0.2883
53218SOL     OW71377   2.090   3.929  11.761 -0.4721 -0.3383 -0.5226
53218SOL    HW171378   2.064   3.957  11.673 -0.6699  2.6247  0.3414
53218SOL    HW271379   2.167   3.982  11.781  0.9650 -2.6032  0.3112
53219SOL     OW71380   9.782   3.013  11.483 -0.0458  0.1808  0.2610
53219SOL    HW171381   9.851   2.956  11.515  0.5876  0.1565 -1.0888
53219SOL    HW271382   9.704   2.958  11.480  0.2305 -0.2144  0.3352
53220SOL     OW71383   8.584   6.815   5.515  0.7242  0.8776 -0.1262
53220SOL    HW171384   8.556   6.804   5.606  2.3321 -0.2630  0.2680
53220SOL    HW271385   8.532   6.889   5.483 -0.8920  0.4149  1.2808
53221SOL     OW71386   2.410   4.687  11.841 -0.3575  0.0700  0.0846
53221SOL    HW171387   2.474   4.621  11.869  0.1052 -0.3343 -1.7624
53221SOL    HW271388   2.350   4.639  11.785  0.3119  1.2776 -1.7607
53222SOL     OW71389   6.295   5.024   5.794  0.3222  0.2835  0.0264
53222SOL    HW171390   6.201   5.004   5.800  0.4440 -0.6887 -1.0464
53222SOL    HW271391   6.308   5.052   5.704  1.2212 -0.4133 -0.0735
53223SOL     OW71392   6.365   5.583   3.486 -0.4961  0.9692  0.4791
53223SOL    HW171393   6.458   5.589   3.464 -0.2517  3.6677  1.8308
53223SOL    HW271394   6.360   5.515   3.553  0.7629  1.7711  1.4190
53224SOL     OW71395   9.104   4.369   5.262 -0.6306  0.2138  0.2771
53224SOL    HW171396   9.117   4.366   5.168 -0.6720 -1.1777  0.2892
53224SOL    HW271397   9.135   4.455   5.289  0.9254  0.0045 -0.7767
53225SOL     OW71398   3.869   3.390   1.645 -0.5569 -0.8589 -0.3286
53225SOL    HW171399   3.847   3.314   1.591  1.9206 -2.1888  0.3891
53225SOL    HW271400   3.950   3.365   1.689  0.3826  2.2572 -0.0993
53226SOL     OW71401   4.143  11.448   7.141 -0.2447 -0.2560 -0.6023
53226SOL    HW171402   4.185  11.364   7.159 -1.3069 -0.4351  1.3837
53226SOL    HW271403   4.215  11.510   7.133  0.5014 -0.7637  1.4454
53227SOL     OW71404   8.959   9.487   1.132 -0.5002  0.1372 -0.0033
53227SOL    HW171405   8.893   9.531   1.185 -1.3309 -0.7083 -0.3099
53227SOL    HW271406   8.911   9.455   1.055 -0.0959 -1.8921  0.5340
53228SOL     OW71407   4.210   0.051   0.252 -0.3186  0.0034  0.1269
53228SOL    HW171408   4.302   0.071   0.233 -0.9864  1.8404 -1.5043
53228SOL    HW271409   4.204   0.053   0.347  1.2026  0.5083  0.2441
53229SOL     OW71410   4.477   6.002   2.302  0.1144 -0.3187 -0.1058
53229SOL    HW171411   4.517   5.954   2.230 -0.0204 -0.8102  0.1448
53229SOL    HW271412   4.518   5.966   2.381  0.0776  0.0412  0.0817
53230SOL     OW71413   2.782  10.004   6.776  0.2292  0.4699  0.6138
53230SOL    HW171414   2.763   9.952   6.698 -1.4486  0.8284  0.7516
53230SOL    HW271415   2.862  10.052   6.753 -0.9171  1.5775 -1.4416
53231SOL     OW71416   2.330   0.582   1.525  0.0914  0.1571 -0.0396
53231SOL    HW171417   2.281   0.649   1.476 -0.0606  0.3662  0.3871
53231SOL    HW271418   2.364   0.629   1.601  0.5276 -0.1080 -0.0694
53232SOL     OW71419  10.171   6.091  10.477  0.3934 -0.0076 -0.1418
53232SOL    HW171420  10.257   6.121  10.449 -0.5508  0.9367 -2.2356
53232SOL    HW271421  10.145   6.026  10.412  0.6007 -2.3801  1.9783
53233SOL     OW71422   6.750   2.723   6.370  0.3468  0.6154  0.3168
53233SOL    HW171423   6.814   2.697   6.436  0.2503  1.1956  0.6469
53233SOL    HW271424   6.743   2.647   6.311 -0.0289 -0.1395  1.3158
53234SOL     OW71425   7.247  10.761   6.792 -0.6010  0.3729  0.0466
53234SOL    HW171426   7.244  10.826   6.722  0.1589 -0.4677 -0.7990
53234SOL    HW271427   7.317  10.790   6.850  0.3894 -0.1616 -0.8442
53235SOL     OW71428  10.729   6.306  11.840  0.4885  0.1978 -0.3517
53235SOL    HW171429  10.705   6.214  11.844  1.9315 -0.2191 -0.8632
53235SOL    HW271430  10.645   6.353  11.839 -0.3277 -0.9469  2.6381
53236SOL     OW71431   6.967   1.812   8.902 -0.1085  0.3369 -0.7373
53236SOL    HW171432   7.042   1.774   8.948 -0.4961 -0.0946 -0.4460
53236SOL    HW271433   6.989   1.804   8.809  1.2915  2.4553 -0.6613
53237SOL     OW71434   6.182   2.419   5.459  0.3086  0.2205 -0.0383
53237SOL    HW171435   6.147   2.337   5.494 -0.3971  1.0203  1.1769
53237SOL    HW271436   6.200   2.399   5.367 -1.5422 -0.7799 -0.2270
53238SOL     OW71437   9.336   5.635   5.133 -0.4652 -0.1172  0.0419
53238SOL    HW171438   9.342   5.617   5.039 -0.8887 -0.3070  0.0509
53238SOL    HW271439   9.248   5.671   5.145 -0.7470 -0.9253  0.4976
53239SOL     OW71440  11.390   1.144   7.106 -0.3307  0.1515 -0.2744
53239SOL    HW171441  11.295   1.131   7.108 -0.6855  1.5968 -2.8546
53239SOL    HW271442  11.408   1.205   7.177 -1.1901 -0.6198  0.6461
53240SOL     OW71443   0.548   6.672   5.218 -0.1356 -0.1047 -0.0296
53240SOL    HW171444   0.614   6.649   5.153 -0.0276  0.6448 -0.2004
53240SOL    HW271445   0.558   6.606   5.287  1.1291  0.2611  0.1734
53241SOL     OW71446   4.675  10.485   4.960 -0.3326 -0.7544  0.7615
53241SOL    HW171447   4.741  10.553   4.945 -0.7956 -0.4439  0.0856
53241SOL    HW271448   4.599  10.514   4.909 -0.9984 -1.0968  1.5454
53242SOL     OW71449   5.863  10.493   1.730 -0.6646  0.0278  0.4059
53242SOL    HW171450   5.888  10.452   1.813  1.1159 -0.1671 -0.1665
53242SOL    HW271451   5.929  10.561   1.717  0.9392 -1.8282 -2.2170
53243SOL     OW71452   4.539  10.426   3.114 -0.0047 -0.2577 -0.2823
53243SOL    HW171453   4.469  10.432   3.179  0.3607  0.8431  0.0288
53243SOL    HW271454   4.583  10.343   3.134  1.4691  1.0471  2.3113
53244SOL     OW71455  10.070   5.886   8.219 -0.1184 -0.0009 -0.5686
53244SOL    HW171456  10.108   5.838   8.146  1.1975 -0.0660  0.1231
53244SOL    HW271457  10.128   5.961   8.231 -0.0439 -0.2371  0.6764
53245SOL     OW71458  11.159   6.472   8.808 -0.2827 -0.2503  0.9125
53245SOL    HW171459  11.123   6.560   8.797 -1.7761 -0.7452  1.5703
53245SOL    HW271460  11.190   6.470   8.898  1.3440  0.1261  0.3908
53246SOL     OW71461   4.884   6.363   7.579  0.1581  0.1032 -0.6943
53246SOL    HW171462   4.949   6.414   7.628 -0.2013  0.2835 -0.4025
53246SOL    HW271463   4.936   6.299   7.530  0.5156 -0.1503  0.0025
53247SOL     OW71464   3.713   6.608   8.986  0.3669 -0.1342  0.3502
53247SOL    HW171465   3.688   6.674   8.922 -2.8996 -0.6685  0.8873
53247SOL    HW271466   3.709   6.525   8.937 -2.0210 -0.5297  1.0863
53248SOL     OW71467   6.252  11.705   2.644 -0.3918  0.2041  0.5654
53248SOL    HW171468   6.277  11.796   2.628 -0.1319  0.4277  2.1143
53248SOL    HW271469   6.334  11.656   2.635 -0.6077  0.0259 -0.7089
53249SOL     OW71470   8.167  11.489   3.179  0.1830  0.1835 -0.0815
53249SOL    HW171471   8.103  11.469   3.111 -0.3578  2.1506 -0.1870
53249SOL    HW271472   8.157  11.418   3.243 -1.7689  0.1761 -0.3323
53250SOL     OW71473   8.116   3.627   6.881  0.6135  0.4140 -0.1817
53250SOL    HW171474   8.191   3.613   6.822 -0.1674 -0.2717 -1.0362
53250SOL    HW271475   8.042   3.589   6.834 -0.4005  1.6723  0.3554
53251SOL     OW71476   6.553   4.686  11.211  0.3543  0.2161 -0.1295
53251SOL    HW171477   6.528   4.622  11.144  1.4035 -1.1056  0.6762
53251SOL    HW271478   6.614   4.744  11.166  0.1641  0.0443 -0.6238
53252SOL     OW71479   3.593   2.844   2.932 -0.1858  0.5956  0.3369
53252SOL    HW171480   3.625   2.932   2.915 -0.0563  0.0995 -2.4252
53252SOL    HW271481   3.529   2.828   2.862  2.2148 -2.6429 -1.3832
53253SOL     OW71482  11.055   2.602   0.879 -0.0360  0.1730 -0.5655
53253SOL    HW171483  11.059   2.549   0.959  1.7761  2.1770  0.7512
53253SOL    HW271484  11.114   2.557   0.818 -0.3626 -0.6081 -0.3269
53254SOL     OW71485   2.447   8.104   3.416 -0.0969 -0.2536  0.4780
53254SOL    HW171486   2.443   8.101   3.321 -0.4148 -1.6986  0.5075
53254SOL    HW271487   2.484   8.019   3.441  2.4335  1.0703  1.5607
53255SOL     OW71488   8.678   5.178   2.041  0.5871  0.1646  0.2727
53255SOL    HW171489   8.657   5.196   1.949  1.7950  2.5142  0.3723
53255SOL    HW271490   8.763   5.219   2.055  1.6938 -2.4368  1.8168
53256SOL     OW71491  10.623  11.419   9.061 -0.1612 -0.2819 -0.1404
53256SOL    HW171492  10.707  11.378   9.040 -0.6550 -1.8201  0.7380
53256SOL    HW271493  10.576  11.421   8.977  0.8497  0.9120 -0.7081
53257SOL     OW71494   3.719  11.412   2.563  0.3900 -0.7505  0.2187
53257SOL    HW171495   3.755  11.444   2.480 -0.0342  0.7112  0.5722
53257SOL    HW271496   3.642  11.362   2.538 -0.3417  0.5616 -0.2298
53258SOL     OW71497   3.169   0.148   1.754 -0.0772  0.4149  0.2693
53258SOL    HW171498   3.141   0.078   1.812 -0.8309  1.0106  0.6517
53258SOL    HW271499   3.178   0.224   1.811  0.2528  0.7487 -0.2154
53259SOL     OW71500   4.030   0.812   4.009  0.3282  0.0851 -0.3140
53259SOL    HW171501   4.050   0.891   4.060  0.3962 -0.6009  0.7553
53259SOL    HW271502   3.956   0.838   3.953  0.5125  0.9785 -0.1645
53260SOL     OW71503   4.789  10.686   8.873 -0.5959  0.2486 -0.0067
53260SOL    HW171504   4.719  10.706   8.811  1.3735 -0.0639 -2.4755
53260SOL    HW271505   4.864  10.737   8.842  1.6675 -3.1056 -0.4971
53261SOL     OW71506   3.071   6.303   9.876 -0.8345  0.0171  0.3064
53261SOL    HW171507   3.012   6.239   9.916 -1.3407 -0.0251 -0.4828
53261SOL    HW271508   3.096   6.264   9.792  0.1156  0.1533  0.5099
53262SOL     OW71509   5.224   7.114   1.256  0.3043 -0.0852 -0.1792
53262SOL    HW171510   5.200   7.056   1.328 -1.8185 -0.0957 -0.8145
53262SOL    HW271511   5.297   7.070   1.212  2.7572  0.6700  2.7897
53263SOL     OW71512   9.507   6.226  11.088  0.8879  0.2735 -0.1255
53263SOL    HW171513   9.489   6.254  11.178  1.1162 -0.6422  0.2187
53263SOL    HW271514   9.512   6.307  11.038 -1.8973  0.7464  0.1569
53264SOL     OW71515   3.869   8.853   9.318  0.4401 -0.9576  0.5275
53264SOL    HW171516   3.880   8.894   9.232  0.1465 -0.4511  0.7280
53264SOL    HW271517   3.955   8.861   9.360  0.0601  0.6614  1.0797
53265SOL     OW71518   2.313   5.823   3.258  1.0130  0.5536 -0.0659
53265SOL    HW171519   2.291   5.798   3.347 -0.5040  0.2997 -0.4897
53265SOL    HW271520   2.394   5.775   3.239  1.3551  0.6153  1.1514
53266SOL     OW71521   8.691  10.484   9.691  0.4413 -0.2555  0.6082
53266SOL    HW171522   8.619  10.543   9.711  1.2224  0.5129  1.2336
53266SOL    HW271523   8.746  10.533   9.629  0.6675 -0.6532  0.4901
53267SOL     OW71524   8.255   1.168   6.784 -0.3945 -0.0655  0.6205
53267SOL    HW171525   8.311   1.141   6.711 -0.8325 -0.9071  0.5985
53267SOL    HW271526   8.220   1.253   6.756  1.0856  0.6397  0.7570
53268SOL     OW71527   6.631   8.583   0.592 -0.3147 -0.6139  0.0572
53268SOL    HW171528   6.700   8.631   0.546 -1.2643  0.7514  0.0167
53268SOL    HW271529   6.650   8.491   0.573  0.9642 -0.2189 -0.6970
53269SOL     OW71530  11.432   5.835   0.313 -0.2872  0.1082  0.0938
53269SOL    HW171531  11.443   5.746   0.279 -1.9829  0.1045 -0.4938
53269SOL    HW271532  11.481   5.890   0.252  0.7025 -0.3784  0.4144
53270SOL     OW71533  10.862   7.074  10.281 -0.3702 -0.2082  0.2584
53270SOL    HW171534  10.922   7.001  10.264  0.8276  0.6752  0.4885
53270SOL    HW271535  10.813   7.047  10.359  2.9646  0.8185  2.9695
53271SOL     OW71536   7.719  10.995   7.260  0.4674  0.4371  0.3268
53271SOL    HW171537   7.716  11.019   7.168  0.0823  0.1870  0.2728
53271SOL    HW271538   7.806  10.957   7.272  0.6872  0.8893  0.1735
53272SOL     OW71539   1.715   5.715   5.580 -0.1793 -0.0939 -0.3032
53272SOL    HW171540   1.758   5.783   5.530  0.4638 -0.0943  0.2451
53272SOL    HW271541   1.764   5.635   5.559  0.4300 -0.0039  0.7177
53273SOL     OW71542  11.701  10.022  10.856 -0.0095  0.3662 -0.1807
53273SOL    HW171543  11.789  10.051  10.832  0.2228  0.6491  0.9453
53273SOL    HW271544  11.649  10.102  10.861  0.3474  0.5365  1.7706
53274SOL     OW71545   0.676  11.567   9.708  0.1498 -0.9494 -0.6016
53274SOL    HW171546   0.619  11.525   9.773 -0.5224 -0.7589 -1.0658
53274SOL    HW271547   0.764  11.541   9.734 -0.1331 -1.1391  0.2046
53275SOL     OW71548   9.840  10.951   1.235  0.1442  0.1582 -0.2003
53275SOL    HW171549   9.783  10.888   1.280 -0.4556  0.1636 -0.9273
53275SOL    HW271550   9.781  10.999   1.177  0.8269  0.4528 -0.6630
53276SOL     OW71551   6.535   2.523  11.391 -0.3837 -0.4156 -0.4211
53276SOL    HW171552   6.538   2.469  11.313 -1.8808  0.2225 -0.9674
53276SOL    HW271553   6.501   2.608  11.361  1.5949  0.7626  0.4504
53277SOL     OW71554   9.950  10.498   5.845  0.5214  0.1970 -0.4821
53277SOL    HW171555   9.978  10.496   5.936  1.2512  1.8080 -0.6331
53277SOL    HW271556   9.958  10.408   5.815  0.1281 -0.3880  1.0731
53278SOL     OW71557   8.824  10.879   6.646  0.0424 -0.2986 -0.0064
53278SOL    HW171558   8.864  10.913   6.725 -1.5927  2.6359 -0.3315
53278SOL    HW271559   8.734  10.861   6.670  0.0671 -1.4694 -0.6960
53279SOL     OW71560   3.223   1.372   9.744 -0.1283  0.0378 -0.2105
53279SOL    HW171561   3.193   1.401   9.658 -1.1764  0.7002  0.3667
53279SOL    HW271562   3.197   1.280   9.750  0.3965 -0.1533 -0.7919
53280SOL     OW71563   1.260   4.051   2.635  0.3819  0.3169 -0.1451
53280SOL    HW171564   1.281   4.087   2.549 -0.7800  1.9998  0.2236
53280SOL    HW271565   1.318   4.097   2.695 -0.5130  0.9753  0.2365
53281SOL     OW71566   0.643   5.130  10.720 -0.1160 -0.8490 -0.2747
53281SOL    HW171567   0.654   5.055  10.778  1.0366 -0.5672 -0.0974
53281SOL    HW271568   0.658   5.095  10.632  1.1058 -0.7255 -0.1395
53282SOL     OW71569   5.103  10.387   7.493 -0.4776  0.2390 -0.2379
53282SOL    HW171570   5.142  10.474   7.506  0.4782  0.1251 -2.0633
53282SOL    HW271571   5.009  10.405   7.487 -0.1680  1.5223 -2.7631
53283SOL     OW71572   4.502   7.755   1.047  0.6613  0.0579 -0.0450
53283SOL    HW171573   4.443   7.746   1.122  0.8697 -0.1692  0.0935
53283SOL    HW271574   4.453   7.717   0.974 -0.4074  2.1782 -0.5025
53284SOL     OW71575   0.107   8.576   7.000 -0.1737 -0.3096 -0.4365
53284SOL    HW171576   0.036   8.631   6.967 -2.1027 -1.5758  1.3177
53284SOL    HW271577   0.105   8.590   7.095  3.3752  1.1819 -0.4535
53285SOL     OW71578   9.683   3.376   2.461  0.6259  0.6425  0.0635
53285SOL    HW171579   9.638   3.293   2.471  0.3889  0.7285 -0.2724
53285SOL    HW271580   9.649   3.431   2.532 -1.9172  1.6404 -1.7739
53286SOL     OW71581   4.089   5.962   9.419  0.1418  0.1145  0.2337
53286SOL    HW171582   4.018   5.905   9.448  0.5701 -0.0487  0.9957
53286SOL    HW271583   4.150   5.904   9.374 -0.1809  0.2465 -0.3799
53287SOL     OW71584   4.528   7.772   5.610  0.4181 -0.9153  0.5591
53287SOL    HW171585   4.557   7.759   5.700  0.3501  0.8542  0.8693
53287SOL    HW271586   4.570   7.700   5.561  1.6736 -1.0308  1.7399
53288SOL     OW71587   3.627   1.531  10.714  0.6096  0.3674  0.0170
53288SOL    HW171588   3.675   1.515  10.633 -1.2909  0.8797 -1.2611
53288SOL    HW271589   3.634   1.625  10.728  0.5714  0.3434  0.1959
53289SOL     OW71590   3.084  11.791   8.446  0.2726  0.3960  0.0361
53289SOL    HW171591   3.025  11.810   8.373  2.6489 -1.5658 -2.5876
53289SOL    HW271592   3.082  11.696   8.455 -0.5117  0.5964  3.1719
53290SOL     OW71593   2.193   3.767   4.332  0.6129 -0.1599 -0.5107
53290SOL    HW171594   2.168   3.855   4.302 -0.7020 -0.6445 -0.9061
53290SOL    HW271595   2.253   3.783   4.405 -0.6288  1.0953  0.2953
53291SOL     OW71596   4.852   9.718   2.388  0.3611 -0.3828 -0.3740
53291SOL    HW171597   4.810   9.760   2.313  0.2746 -0.0918 -0.1605
53291SOL    HW271598   4.946   9.736   2.376  0.2383  0.7617  0.2633
53292SOL     OW71599   6.255   8.164   5.577  0.3387 -0.1315  0.1790
53292SOL    HW171600   6.342   8.175   5.539  0.1650 -0.3822 -0.3014
53292SOL    HW271601   6.231   8.073   5.558 -0.3857  0.1768 -0.4701
53293SOL     OW71602   0.349  10.433   9.745 -0.1435 -0.3670  0.3258
53293SOL    HW171603   0.280  10.477   9.695  0.3048  0.0579  0.0737
53293SOL    HW271604   0.301  10.375   9.805 -0.7019 -2.5585 -2.0413
53294SOL     OW71605   8.800   6.897   4.260 -0.3275  0.0843  0.7152
53294SOL    HW171606   8.825   6.878   4.169 -0.0756  2.0497  0.3093
53294SOL    HW271607   8.817   6.816   4.307  0.6375 -0.6449 -0.7814
53295SOL     OW71608   1.669   1.510   6.634 -0.4068 -0.3897 -0.1500
53295SOL    HW171609   1.711   1.427   6.658  1.5873  1.2315  2.4699
53295SOL    HW271610   1.598   1.520   6.699  0.2442  0.5545  0.4362
53296SOL     OW71611   4.770   1.174   1.333  0.0715 -0.4969  0.6737
53296SOL    HW171612   4.678   1.150   1.319  0.4427 -0.3441 -2.8836
53296SOL    HW271613   4.767   1.267   1.357 -0.6901 -0.4398  0.3860
53297SOL     OW71614   9.416   4.973   3.470  0.1495 -0.8259 -0.3209
53297SOL    HW171615   9.446   4.911   3.404  0.9412 -1.5298  0.6718
53297SOL    HW271616   9.446   4.937   3.553 -0.3458  0.3193  0.3886
53298SOL     OW71617   0.243   9.891   8.360  0.0566  0.6021 -0.8828
53298SOL    HW171618   0.196   9.908   8.279  0.8391 -1.2525 -1.8071
53298SOL    HW271619   0.336   9.896   8.335  0.3079 -0.3293 -0.2117
53299SOL     OW71620   0.192   7.396   7.352 -0.7096  0.5486 -0.0899
53299SOL    HW171621   0.192   7.400   7.256  0.6238  0.9236 -0.0913
53299SOL    HW271622   0.117   7.450   7.378 -0.7733  0.8701 -0.9016
53300SOL     OW71623   4.872   9.039   9.054 -0.3120  0.1067 -0.1057
53300SOL    HW171624   4.912   9.112   9.100 -1.3620 -0.0997  1.2029
53300SOL    HW271625   4.935   9.016   8.986  0.9893  0.8736  0.7895
53301SOL     OW71626   4.144   5.619   4.606  0.0882 -0.0652  0.4298
53301SOL    HW171627   4.073   5.625   4.542  0.2809 -0.0181  0.2178
53301SOL    HW271628   4.102   5.629   4.691 -0.0880  0.5135  0.2777
53302SOL     OW71629  11.416   8.899   8.769 -0.2163 -0.1743  0.2364
53302SOL    HW171630  11.422   8.823   8.827  3.0448 -0.0117  0.2684
53302SOL    HW271631  11.425   8.863   8.681  1.4463  0.1285  0.2581
53303SOL     OW71632   3.421  10.650   1.766 -0.8343 -0.0686  0.1897
53303SOL    HW171633   3.356  10.684   1.827  0.7904  0.8594  1.4797
53303SOL    HW271634   3.387  10.672   1.679 -2.2846  0.2473  0.8209
53304SOL     OW71635   9.401  10.763   5.463  0.6524  0.0800 -0.1193
53304SOL    HW171636   9.386  10.801   5.550  0.6390  1.8574 -0.8506
53304SOL    HW271637   9.496  10.765   5.452  0.6972 -0.7271  0.0953
53305SOL     OW71638   3.723   9.394   1.655  0.2865  0.2258  0.1473
53305SOL    HW171639   3.805   9.443   1.665  0.6586 -0.5936  1.2612
53305SOL    HW271640   3.725   9.329   1.725 -1.8518  0.9252  0.9285
53306SOL     OW71641   9.883   3.631   6.812  0.3260  0.6803  0.3436
53306SOL    HW171642   9.793   3.623   6.843  1.4243 -0.1937  3.7016
53306SOL    HW271643   9.898   3.553   6.760 -1.0070  1.1723 -0.8485
53307SOL     OW71644   6.158   9.917   0.015 -0.3508 -0.3266  0.1714
53307SOL    HW171645   6.104   9.967  -0.045 -2.5234 -2.2283  0.4210
53307SOL    HW271646   6.153   9.827  -0.016  1.8344 -0.7588  0.8664
53308SOL     OW71647   5.907  10.387   7.419 -0.2233 -0.4904 -0.2891
53308SOL    HW171648   5.862  10.303   7.432 -0.2692 -0.2572  1.3026
53308SOL    HW271649   6.000  10.364   7.420 -0.1477 -0.3762  2.0412
53309SOL     OW71650  10.042   4.421   0.595  0.2905  0.3824  0.2896
53309SOL    HW171651  10.049   4.516   0.583 -1.4652  0.8274  2.2724
53309SOL    HW271652   9.950   4.401   0.576  0.4850 -0.8348  0.5553
53310SOL     OW71653   5.721   7.804   6.750 -0.2466  0.2728 -0.1155
53310SOL    HW171654   5.741   7.889   6.788 -0.5281  0.2706  0.0417
53310SOL    HW271655   5.670   7.824   6.672 -0.0640  0.2590 -0.2384
53311SOL     OW71656   3.831   3.772   3.390 -0.2076 -0.6638 -0.1648
53311SOL    HW171657   3.807   3.863   3.407 -0.0296 -0.2078 -2.1134
53311SOL    HW271658   3.788   3.722   3.460 -1.2924  0.7932  0.2529
53312SOL     OW71659   8.598   5.115   4.246 -0.0296 -0.7181  0.1179
53312SOL    HW171660   8.663   5.075   4.188 -0.6323 -1.3535 -0.1407
53312SOL    HW271661   8.523   5.134   4.189 -0.2739 -0.4830  0.5080
53313SOL     OW71662   0.694  11.490  11.018  0.3588  0.0863 -0.0654
53313SOL    HW171663   0.763  11.538  10.973 -0.9082  1.6775 -0.4202
53313SOL    HW271664   0.623  11.484  10.954 -0.1855 -0.6780  0.5869
53314SOL     OW71665  11.400   3.072  10.534  0.3084 -0.0710 -0.1439
53314SOL    HW171666  11.398   3.092  10.627 -1.5394 -1.9774  0.3029
53314SOL    HW271667  11.477   3.016  10.523 -0.4079 -1.2519  0.6138
53315SOL     OW71668  10.220   2.933   9.325 -0.1563  0.3928 -0.3061
53315SOL    HW171669  10.260   3.000   9.381  1.4822  0.5703 -1.6165
53315SOL    HW271670  10.195   2.864   9.386  2.0624  0.3391  0.6387
53316SOL     OW71671   1.539  11.768   4.038 -0.9606 -0.0558 -0.0324
53316SOL    HW171672   1.592  11.828   4.091  1.5981 -0.5647 -1.8304
53316SOL    HW271673   1.600  11.735   3.972 -2.5070 -3.8389  0.2094
53317SOL     OW71674   2.924   2.189   8.465  0.2305 -0.2606 -0.4102
53317SOL    HW171675   2.947   2.102   8.496  2.0759  0.4227  0.2732
53317SOL    HW271676   2.830   2.196   8.482  0.5396 -1.1014  2.1908
53318SOL     OW71677   7.875   5.204   1.699  0.3272 -0.0374  0.0564
53318SOL    HW171678   7.861   5.296   1.724  2.8167  0.1826  0.9313
53318SOL    HW271679   7.843   5.154   1.774  0.9769  0.2664  0.5551
53319SOL     OW71680   5.704  11.602   1.816 -0.5026  0.0936 -0.6823
53319SOL    HW171681   5.789  11.578   1.780 -0.7705  0.1098 -1.3339
53319SOL    HW271682   5.643  11.539   1.778 -0.8817  0.4813 -0.7248
53320SOL     OW71683   3.813   0.342   4.283 -0.1821  0.0954 -0.0918
53320SOL    HW171684   3.790   0.424   4.239 -0.9589  0.1745  0.4351
53320SOL    HW271685   3.784   0.274   4.222  1.3918  0.1906 -0.9920
53321SOL     OW71686   8.627   4.156  11.066  0.3293 -0.3271  0.0907
53321SOL    HW171687   8.549   4.204  11.097  0.4345  0.1476 -0.3606
53321SOL    HW271688   8.686   4.225  11.035 -0.0354 -0.7973 -1.7653
53322SOL     OW71689   9.487   6.170   5.000  0.2214  0.1121 -0.4890
53322SOL    HW171690   9.497   6.129   4.914 -1.7494  2.2515 -1.8734
53322SOL    HW271691   9.392   6.173   5.014  0.4805  0.3845  1.4669
53323SOL     OW71692   2.452   8.201  10.643 -0.1897  0.0112 -0.3895
53323SOL    HW171693   2.412   8.140  10.706  0.0502 -1.0272 -1.2025
53323SOL    HW271694   2.454   8.285  10.689 -0.4572 -0.6047  0.8082
53324SOL     OW71695   9.303   3.782  11.926 -0.4361 -0.5706 -0.0478
53324SOL    HW171696   9.398   3.776  11.923 -0.3475  0.8837 -0.9292
53324SOL    HW271697   9.285   3.869  11.960 -1.4782 -1.1668  0.9989
53325NA      NA71698   2.757   2.365   7.852 -0.1778 -0.1448  0.4910
53326NA      NA71699  11.369   4.445   2.767  0.3240  0.1305  0.4005
53327NA      NA71700   6.725   5.373  11.539 -0.3915  0.3094  0.4426
53328NA      NA71701   6.956   6.633  11.956  0.7394 -0.2014 -0.1233
53329NA      NA71702   7.473  11.260   6.587  0.3375  0.2590 -0.3838
53330NA      NA71703   2.270   3.297   2.836 -0.0289  0.0266 -0.3115
53331NA      NA71704  11.903   1.781   5.704  0.2883 -0.3258  0.4239
53332NA      NA71705   3.505   6.056   2.849 -0.6256  0.4516  0.2692
53333NA      NA71706   7.044   8.235   5.226 -0.0838 -0.0736  0.0298
53334NA      NA71707   3.352   8.465   3.885  0.0343  0.0946 -0.1812
53335NA      NA71708   4.149   5.900  11.636 -0.2969 -0.0604 -0.0482
53336NA      NA71709   7.926   5.224   1.039 -0.0844  0.2602  0.0746
53337NA      NA71710   8.836   4.931   7.229  0.3764  0.5160  0.0296
53338NA      NA71711   7.994   3.708   7.345 -0.0400 -0.1055  0.0532
53339NA      NA71712  10.469   2.674   4.856 -0.0201 -0.2790 -0.5975
53340NA      NA71713   0.184   9.811   9.668 -0.2778  0.1874  0.2579
53341NA      NA71714   8.137  10.032   7.342 -0.1459 -0.1275  0.0199
53342NA      NA71715   1.754   3.217   2.227 -0.1188 -0.0390  0.3259
53343NA      NA71716   4.272  10.085  10.537 -0.2741  0.2068  0.0241
53344NA      NA71717  11.547   0.086   5.871  0.2593 -0.1498 -0.2496
53345NA      NA71718   6.327   2.477   5.630 -0.3480  0.2582 -0.1536
53346NA      NA71719   9.280   2.328  10.037  0.2230 -0.0037 -0.5019
53347NA      NA71720   3.316   8.786   2.947  0.1696  0.4611  0.1197
53348NA      NA71721  11.723   1.957   6.344 -0.3831  0.6548  0.4901
53349NA      NA71722   9.718   6.413   5.631  0.3124  0.9075 -0.1485
53350NA      NA71723   7.207   4.646  10.641  0.5361  0.2332 -0.0842
53351NA      NA71724   5.331   7.159   4.493 -0.2457  0.1996 -0.3228
53352NA      NA71725   9.405  11.134   0.431 -0.0412  0.0583  0.5733
53353NA      NA71726   5.157   9.231   6.327 -0.4878 -0.1358  0.4295
53354NA      NA71727   8.524   5.475   2.736 -0.0570 -0.2823 -0.2277
53355NA      NA71728  10.086   0.948   9.919 -0.2030  0.5277 -0.7200
53356NA      NA71729   5.451  11.413   3.914 -0.3696  0.1494 -0.6768
53357NA      NA71730   8.951   2.675  11.108 -0.3917  0.3262 -0.0497
53358NA      NA71731  11.734   1.428   0.809  0.2560 -0.0953 -0.5840
53359NA      NA71732   0.437   7.608   7.547 -0.4663 -0.0566  0.0050
53360NA      NA71733   9.053   5.057   1.122 -0.2721  0.2284  0.0427
53361NA      NA71734   8.151   9.895   5.712  0.2113 -0.4385 -0.0209
53362NA      NA71735   3.868   7.389   9.148 -0.1113 -0.2394 -0.1142
53363NA      NA71736   7.078  10.852   9.839  0.1117  0.1967 -0.1230
53364NA      NA71737   1.686   6.830  11.468 -0.2171 -0.3589 -0.2028
53365NA      NA71738   3.931   0.924   8.015  0.0154  0.1555  0.3013
53366NA      NA71739   6.186   7.968   0.131  0.5653  0.0934 -0.1100
53367NA      NA71740   6.075   0.179   7.414 -0.4955  0.1840 -0.3430
53368NA      NA71741   2.113   9.707   6.238  0.0687 -0.6742  0.3934
53369NA      NA71742   7.477   4.991   6.773  0.4351 -0.1935  0.4324
53370NA      NA71743   8.556   0.452   0.795 -0.5623  0.0664  0.1506
53371NA      NA71744   4.102  11.929   6.868  0.7776 -0.3257  0.3604
53372NA      NA71745   0.902  10.133  10.450  0.0755  0.2030 -0.4731
53373NA      NA71746   7.395   0.994   6.828  0.1174 -0.5132 -0.1773
53374NA      NA71747  11.398   3.818   8.895 -0.3007 -0.5521  0.0115
53375NA      NA71748   8.573   6.936   1.854 -0.0776 -0.2272 -0.5869
53376NA      NA71749   1.930   5.583   8.327  0.1421 -0.1167  0.0859
53377NA      NA71750   9.388   9.394   1.572 -0.2885  0.0772  0.1183
53378NA      NA71751   8.142   6.725   3.068 -0.0379  0.1174 -0.2323
53379NA      NA71752  10.815   7.312   0.241 -0.5146  0.1492  0.2820
53380NA      NA71753  11.069   8.619   5.233  0.1632  0.0601 -0.1660
53381NA      NA71754   4.128   1.782   4.482 -0.1015  0.1144  0.4089
53382NA      NA71755  11.321   3.368   7.929 -0.0579 -0.0699 -0.0036
53383NA      NA71756   3.120   6.557   3.830  0.2398  0.0867  0.2795
53384NA      NA71757   8.352   3.974   5.814 -0.0316 -0.4812  0.0655
53385NA      NA71758   7.375   3.347   0.791 -0.4023 -0.5698  0.1814
53386NA      NA71759   9.094   2.329   9.012 -0.1329  0.0116  0.6439
53387NA      NA71760   0.204   8.132   6.229  0.1178  0.8120  0.5862
53388NA      NA71761  11.228  11.552   8.928 -0.4215  0.2750 -0.2577
53389NA      NA71762  10.346   4.616   5.672  0.4176  0.3446  0.1953
53390NA      NA71763   7.278   3.820   3.912 -0.2872  0.0259  0.6084
53391NA      NA71764   3.934   7.010   8.316  0.1920 -0.1586  0.6162
53392NA      NA71765   3.388   9.051   3.537  0.0585 -0.1196  0.2110
53393NA      NA71766  10.109   6.142   4.289 -0.3939  0.0524 -0.3694
53394NA      NA71767   2.306  11.876   8.408  0.5149  0.3048 -0.2882
53395NA      NA71768   4.400   0.882   8.528  0.1787 -0.0098  0.2520
53396NA      NA71769   4.932   0.657   1.096  0.1956 -0.1078 -0.4080
53397NA      NA71770   9.869  10.435   7.842 -0.0594  0.6861  0.2369
53398NA      NA71771   4.404   2.148   6.630  0.5882 -0.2152 -0.1482
53399NA      NA71772   8.735  11.353  10.777 -0.3696 -0.3453  0.1574
53400NA      NA71773   0.010   3.658  11.882 -0.3715  0.2862  0.4258
53401NA      NA71774   4.342   7.929  10.607 -0.5162  0.0705  0.0770
53402NA      NA71775   8.655   0.135  11.748  0.1048 -0.0810 -0.9164
53403NA      NA71776  11.602   5.626   1.219 -0.0015  0.0794  0.2872
53404NA      NA71777   2.405   8.555   4.912  0.1167 -0.1903  0.2923
53405NA      NA71778   2.999   4.350   1.603  0.1076 -0.4366 -0.5762
53406NA      NA71779   0.124   7.349   8.306 -0.1332 -0.2044 -0.0779
53407NA      NA71780   9.250   3.694   3.399  0.4333 -0.0442 -0.0100
53408NA      NA71781   4.918   7.945   4.344 -0.0765 -0.3376  0.1019
53409NA      NA71782   6.658   7.145   8.726 -0.3684  0.0488  0.1489
53410NA      NA71783   5.417   4.067   7.968  0.0511  0.1522  0.3459
53411NA      NA71784   2.328   6.373   1.895  0.1280 -0.3857 -0.1077
53412NA      NA71785   8.945   0.395   1.308  0.6530 -0.5684  0.5526
53413NA      NA71786   4.067   8.052   6.497  0.0847  0.1081 -0.3629
53414NA      NA71787   9.784   5.321   9.837 -0.0943 -0.7151 -0.3903
53415NA      NA71788   4.086   9.298  10.641  0.5808  0.3431 -0.1001
53416NA      NA71789   4.907   5.470   4.525  0.1202 -0.1563 -0.5346
53417NA      NA71790   6.053   1.586   8.548 -0.3352  0.2131  0.5213
53418NA      NA71791   9.582  10.899   8.810 -0.2482 -0.1591  0.1649
53419NA      NA71792   8.734   2.908   6.039 -0.1229  0.2820  0.0052
53420NA      NA71793   5.143  11.178   0.610 -0.5049 -0.4929  0.1302
53421NA      NA71794   7.707   6.261  10.720 -0.1884  0.1275 -0.1557
53422NA      NA71795   0.586   1.643   8.380 -0.5870  0.0930  0.6485
53423NA      NA71796  11.392   1.838   5.596  0.2399 -0.0900 -0.0720
53424NA      NA71797   9.919   3.979   7.106 -0.4796  0.1290 -0.2854
53425NA      NA71798   2.611   7.291   5.554 -0.0454 -0.0114 -0.1572
53426NA      NA71799   8.260   2.338   1.768 -0.1766 -0.1024  0.1782
53427NA      NA71800   8.522   8.317   8.358  0.0488 -0.2088  0.2802
53428NA      NA71801   3.051   4.932   0.893  0.3667 -0.0650  0.0947
53429NA      NA71802   1.099   4.663   5.381  0.1703 -0.0377 -0.8674
53430NA      NA71803   8.467   4.258   4.978  0.0412 -0.0279  0.1332
53431NA      NA71804   1.012   1.473   1.898  0.3242 -0.0220 -0.1599
53432NA      NA71805   0.598   9.355   6.536  0.1313  0.4071 -0.4672
53433NA      NA71806   1.682  10.679   5.349  0.6510 -0.7720  0.0135
53434NA      NA71807   2.557   2.140   4.713 -0.1791 -0.2870  0.6475
53435NA      NA71808   6.617   7.416  10.791  0.6496  0.0601  0.0860
53436NA      NA71809   2.317   1.368   4.908  0.2109 -0.1742 -0.0272
53437NA      NA71810   3.631   0.591   3.009  0.2923 -0.4338 -0.0814
53438NA      NA71811   5.712   2.714  10.286 -0.1428 -0.1871  0.2669
53439NA      NA71812  11.124   3.614   6.836  0.2894 -0.4029  0.0551
53440NA      NA71813   7.272   6.660   6.243  0.3070  0.1018  0.1784
53441NA      NA71814   4.950   9.691   4.730  0.0209 -0.3557  0.2341
53442NA      NA71815   1.709   6.298   4.888  0.6203 -0.1076  0.4322
53443NA      NA71816   9.625   5.437  10.926 -0.7491 -0.0062 -0.4041
53444NA      NA71817   0.728  11.796   7.993  0.4705  0.4150  0.2967
53445NA      NA71818   3.804   6.227   0.652 -0.2137 -0.2993 -0.1705
53446NA      NA71819   1.562   6.913   8.461  0.5702  0.1483  0.1275
53447NA      NA71820  11.309   6.056  10.526  0.5284 -0.0074  0.4553
53448NA      NA71821   6.729   1.475   1.120 -0.2561 -0.5016  0.1411
53449NA      NA71822   8.231  11.310   6.827  0.1712  0.0975  0.3948
53450NA      NA71823   5.237   8.936   0.075 -0.3171 -0.0269 -0.1015
53451NA      NA71824   1.065   6.501   2.777 -0.1619  0.3726  0.2574
53452NA      NA71825  10.627   0.604   6.953  0.7215 -0.0990 -0.4554
53453NA      NA71826   3.851   0.124   9.778 -0.0191  0.0569  0.0669
53454NA      NA71827   6.620   3.908   1.784  0.5198  0.2740 -0.2149
53455NA      NA71828   4.982   8.793   5.818 -0.2031  0.5955 -0.3186
53456NA      NA71829   1.938   3.429   7.119 -0.3139  0.0681 -0.0313
53457NA      NA71830   6.591   5.507   1.533 -0.2996 -0.4939  0.4290
53458NA      NA71831   2.515   4.674   7.884  0.1287  0.4332  0.1880
53459NA      NA71832   1.844   2.954   8.596  0.3826 -0.5053 -0.4362
53460NA      NA71833   4.043   6.817   9.757 -0.0117  0.5076  0.3571
53461NA      NA71834   4.600   4.226   8.315 -0.0333 -0.3806 -0.1279
53462NA      NA71835   9.102   7.145  10.036  0.1117 -0.0212  0.2107
53463NA      NA71836   1.508  11.059   7.028  0.5231  0.2217 -0.1236
53464NA      NA71837  10.341   5.153   8.580  0.7371 -0.2506  0.2594
53465NA      NA71838   2.766   4.812   7.381 -0.6508  0.5785  0.4426
53466NA      NA71839   2.961   1.932   9.673 -0.3450 -0.4832 -0.1973
53467NA      NA71840   7.845   1.058   8.408  0.1485 -0.4791 -0.0606
53468NA      NA71841  11.860   9.363   8.759  0.3312 -0.3751 -0.5913
53469NA      NA71842   2.890   3.372   1.358  0.1262  0.1205  0.0353
53470NA      NA71843   2.305   7.753  10.544  0.4648 -0.0595 -0.1650
53471NA      NA71844   1.547   2.685  11.784  0.4653 -0.1283  0.3785
53472NA      NA71845   5.886  11.103   6.257  0.1478  0.0318  0.2594
53473NA      NA71846   3.278  10.190   0.580  0.2100 -0.4965  0.1747
53474NA      NA71847   1.518   3.582   7.265  0.2176  0.3676 -0.0430
53475NA      NA71848   3.849  11.018  11.057  0.1053  0.0118 -0.1540
53476NA      NA71849  11.174   0.221   7.908  0.0064  0.2799 -0.0865
53477NA      NA71850   6.032   2.924   3.316  0.0485  0.1888 -0.0749
53478NA      NA71851   7.987   9.456   8.976 -0.3325 -0.2362  0.0986
53479NA      NA71852   1.451  10.171   4.735  0.5492  0.6041 -0.4017
53480NA      NA71853   4.926   5.417   0.928 -0.8343 -0.4192  0.0700
53481NA      NA71854   5.457   3.532   7.131 -0.2624 -0.0242  0.1092
53482NA      NA71855   6.146  10.755   5.867 -0.0708 -0.4501  0.0544
53483CL      CL71856   7.520  10.115  10.449  0.4437 -0.2622 -0.0580
53484CL      CL71857   0.741   8.958   7.246 -0.1415  0.3035  0.0421
53485CL      CL71858   1.668   0.964   5.648 -0.0230  0.0420  0.2199
53486CL      CL71859   6.609   5.471   3.076 -0.2639  0.3066  0.3129
53487CL      CL71860   0.576   7.133   7.292  0.0404 -0.0094  0.2680
53488CL      CL71861   7.179   9.563  11.795 -0.1199  0.0809  0.0839
53489CL      CL71862   5.488   4.407   8.452  0.0982  0.4208  0.2346
53490CL      CL71863  11.134   3.973  11.926  0.1409 -0.3299 -0.1474
53491CL      CL71864   8.030   4.910   3.435 -0.1270  0.1889  0.0145
53492CL      CL71865   8.028  11.408   6.657  0.1009  0.0694 -0.2671
53493CL      CL71866   3.834  11.457  11.881 -0.0240 -0.0599  0.2783
53494CL      CL71867   7.657   0.696   8.577  0.0962 -0.1519 -0.0586
53495CL      CL71868   6.092  10.640   6.074 -0.0061  0.2871 -0.3805
53496CL      CL71869   8.094   6.226   3.160 -0.1302  0.0155 -0.2639
53497CL      CL71870   5.672   4.042   3.618 -0.2315  0.2870 -0.1886
53498CL      CL71871   5.955   3.968   7.496 -0.2258 -0.5185 -0.2007
53499CL      CL71872   4.289   6.753   7.473  0.2303  0.3090 -0.4015
53500CL      CL71873  11.472   6.629   9.474  0.3249 -0.4571  0.1741
53501CL      CL71874   4.806   0.182   0.578  0.1784 -0.1424 -0.4091
53502CL      CL71875   4.347  10.466   3.350  0.1155  0.3403 -0.4205
53503CL      CL71876   6.671   5.251  10.132  0.1529  0.2195 -0.5486
53504CL      CL71877  10.470   7.223   0.015  0.2338 -0.5604 -0.3578
53505CL      CL71878   9.563  10.968   0.520 -0.0125 -0.0441  0.0415
53506CL      CL71879  10.574   6.404   7.589  0.4423  0.0564 -0.2582
53507CL      CL71880   9.814   2.111   7.185  0.4801 -0.0980  0.1181
53508CL      CL71881   5.844   1.920   7.371  0.2404 -0.0945 -0.1694
53509CL      CL71882  10.131  10.038   7.311  0.1783 -0.1230  0.0908
53510CL      CL71883  10.629   8.477   6.292  0.0068 -0.0140  0.1234
53511CL      CL71884   4.621   3.231  10.102 -0.2836  0.5314 -0.2140
53512CL      CL71885   9.528   3.151   6.380 -0.1482 -0.2818 -0.1596
53513CL      CL71886   3.627   5.988   2.643 -0.2507 -0.0011 -0.1707
53514CL      CL71887   7.861  11.775   9.361  0.0812 -0.6519  0.2634
53515CL      CL71888   3.700   7.497  11.269  0.2911 -0.3573 -0.0686
53516CL      CL71889   3.893   8.037  10.216 -0.1378 -0.1536  0.1205
53517CL      CL71890   2.247   5.358   8.608 -0.2002  0.2421  0.2391
53518CL      CL71891   2.372   2.582   5.243 -0.0035  0.0998 -0.1981
53519CL      CL71892   2.127   8.497   7.472 -0.2707  0.2732  0.3916
53520CL      CL71893   5.601   7.042   2.096 -0.1691  0.2314  0.1312
53521CL      CL71894   6.291   3.687   8.028 -0.3243 -0.3640 -0.1999
53522CL      CL71895   5.097   9.192   6.103  0.1690 -0.4035 -0.1933
53523CL      CL71896   6.026  10.077   4.082  0.4155 -0.4354  0.0029
53524CL      CL71897   1.758   2.836   1.819 -0.3229 -0.0381 -0.0582
53525CL      CL71898   1.013  11.911   6.608 -0.1827  0.1210 -0.0385
53526CL      CL71899   6.050   7.485   8.159  0.4265  0.2593 -0.0128
53527CL      CL71900   0.743   5.848  11.535 -0.0753 -0.1380  0.1523
53528CL      CL71901   7.375   4.208   1.114 -0.1427 -0.2382  0.4257
53529CL      CL71902  11.044   1.251   4.983 -0.2390  0.0271  0.2709
53530CL      CL71903   3.787   0.963   3.795  0.0754  0.3494  0.1983
53531CL      CL71904  10.483   0.992   1.043  0.7332  0.3295 -0.1597
53532CL      CL71905   2.078   6.476   9.057  0.0797  0.0481 -0.1965
53533CL      CL71906   1.812   5.326   3.774  0.0224  0.4870 -0.4495
53534CL      CL71907   2.484   7.717   5.872  0.0519 -0.1412  0.0956
53535CL      CL71908   6.992  10.484   2.958 -0.1599 -0.1369  0.0768
53536CL      CL71909  11.205   4.271   7.971 -0.1155 -0.0050 -0.3265
53537CL      CL71910   3.681   6.581   3.349 -0.6163 -0.0797 -0.2054
53538CL      CL71911  10.578   4.252   4.391  0.0884 -0.0859  0.3518
53539CL      CL71912   6.170   7.740   5.081 -0.3526  0.2651 -0.0019
53540CL      CL71913   9.286   4.686  10.538 -0.1829 -0.4261 -0.2748
53541CL      CL71914   4.013   8.499   6.516 -0.0432  0.0587 -0.2293
53542CL      CL71915  10.350  10.663   8.059  0.1677 -0.3436 -0.2739
53543CL      CL71916   8.730   0.063  11.531 -0.1150  0.0626  0.5721
53544CL      CL71917   9.955   1.396   3.506  0.3809 -0.0583 -0.2411
53545CL      CL71918  11.485   4.162  10.843 -0.3094  0.3856  0.3254
53546CL      CL71919   2.841   0.689   3.859 -0.2492  0.7314 -0.1325
53547CL      CL71920   6.859   6.003   9.955 -0.2142  0.1195  0.2638
53548CL      CL71921   9.493  10.900  11.502 -0.0591  0.2625  0.2529
53549CL      CL71922   2.324   9.756   0.369  0.2489  0.2928  0.2521
53550CL      CL71923   0.302   1.466   6.771  0.1444 -0.1099 -0.2154
53551CL      CL71924   9.562   6.257  11.671  0.2827 -0.2175  0.0214
53552CL      CL71925   4.062   7.773   4.444  0.1622  0.0771 -0.0403
53553CL      CL71926  11.209   3.393   5.995  0.0082  0.2767  0.1524
53554CL      CL71927   5.710   0.099   5.841 -0.2605 -0.0355  0.2257
53555CL      CL71928   1.072   1.668   8.289  0.2976 -0.1214  0.0983
53556CL      CL71929   3.798   1.774   4.225 -0.0003 -0.0039 -0.2167
53557CL      CL71930   0.564   0.817   7.105 -0.1313  0.6296 -0.0163
53558CL      CL71931   5.197   9.892  10.698  0.0468 -0.2473  0.1917
53559CL      CL71932   7.010   9.941   7.957 -0.2206  0.1165 -0.0863
53560CL      CL71933   1.254  10.565   4.758 -0.0848 -0.5223 -0.1598
53561CL      CL71934  10.120   2.575   3.148  0.3107 -0.3893  0.0893
53562CL      CL71935   1.063  10.958   6.306 -0.3211 -0.1280  0.0641
53563CL      CL71936   2.258   4.508  11.378  0.1461 -0.7002  0.4096
53564CL      CL71937   8.338  11.141   6.690  0.1641 -0.3187 -0.0118
53565CL      CL71938   7.414   3.852   3.116  0.0319  0.5095 -0.1197
53566CL      CL71939   2.765   7.786   5.003 -0.1656  0.0565  0.4829
53567CL      CL71940   3.623   8.144   0.725 -0.9059 -0.0443 -0.2452
53568CL      CL71941   1.096   0.400   0.838 -0.3244 -0.1936 -0.1034
53569CL      CL71942   5.793   5.414   0.111  0.1135 -0.2517 -0.3317
53570CL      CL71943   4.268   3.496   7.633  0.0421 -0.0101 -0.2238
53571CL      CL71944   5.752   2.169  11.121 -0.1858  0.3086 -0.1240
53572CL      CL71945  11.233  11.949   7.945  0.2717 -0.3445  0.3369
53573CL      CL71946  11.584   9.795   9.433  0.3596  0.3321  0.4732
53574CL      CL71947   2.930   8.763   1.032 -0.3373  0.0820 -0.5545
53575CL      CL71948   1.543   5.906   5.015 -0.1102 -0.0234 -0.0174
53576CL      CL71949   3.132   6.327   8.736 -0.1038 -0.3778  0.2120
53577CL      CL71950  10.025   3.371   1.999  0.1121 -0.0516 -0.2325
53578CL      CL71951   2.299   8.006  10.851  0.5385  0.1859  0.1110
53579CL      CL71952   9.651   5.771   5.342 -0.2019 -0.1742  0.6189
53580CL      CL71953   3.391   0.301   9.002  0.0505 -0.0485 -0.2232
53581CL      CL71954   3.317   1.107   8.399  0.0009  0.3152 -0.5965
53582CL      CL71955   6.155   2.901   5.785 -0.2758 -0.2766 -0.4683
53583CL      CL71956  11.480   5.398   2.349  0.0468  0.0094  0.0259
53584CL      CL71957   5.049   9.096   6.508 -0.0466 -0.2327 -0.2953
53585CL      CL71958   3.907  10.631  10.004 -0.3355 -0.0238 -0.1591
53586CL      CL71959   7.329   5.057   0.362 -0.1906  0.1613  0.1433
53587CL      CL71960   6.098   9.196   6.782 -0.3002  0.0970  0.0940
53588CL      CL71961  11.891   2.881   8.909 -0.0824 -0.1560 -0.2209
53589CL      CL71962   2.989   1.768   3.862  0.2488 -0.2477  0.3018
53590CL      CL71963   4.709   0.883   5.503  0.0486  0.0469  0.4196
53591CL      CL71964   1.803   3.001   5.778  0.0509 -0.0722 -0.1933
53592CL      CL71965   0.580   1.483   8.569 -0.2522 -0.3113 -0.1114
53593CL      CL71966   2.903   2.457   4.717 -0.2119 -0.2299  0.2343
53594CL      CL71967   0.193   9.955   8.034  0.5297 -0.0917  0.1285
53595CL      CL71968   6.191  10.520   4.858  0.2936  0.0732  0.4585
53596CL      CL71969   4.021  10.518   4.490  0.2357  0.2955 -0.2299
53597CL      CL71970   8.403   1.322   5.764  0.2751 -0.1651 -0.1369
53598CL      CL71971   2.124   6.934   2.455 -0.1913  0.2406  0.0649
53599CL      CL71972   4.648   3.094   5.806 -0.4255  0.1423  0.1013
53600CL      CL71973   7.691   0.836   0.937  0.2009  0.2796  0.1175
53601CL      CL71974   3.020   5.373   5.558 -0.1478  0.2853  0.2147
53602CL      CL71975   9.239   2.419   9.193 -0.2958 -0.0639 -0.5178
53603CL      CL71976   7.172   0.761   2.483  0.4373  0.2307  0.0776
53604CL      CL71977   3.939  11.852   9.718 -0.2585 -0.0519  0.4737
53605CL      CL71978   8.412   6.078   2.560 -0.1643  0.2998 -0.3306
53606CL      CL71979   1.038   7.648   8.451  0.2481  0.2398  0.2253
53607CL      CL71980   3.110   7.902   3.456  0.3659  0.1055 -0.2302
53608CL      CL71981   7.532   4.053   5.530  0.1195  0.1525  0.1096
53609CL      CL71982   7.700   1.005   6.454 -0.1140 -0.2436  0.3590
53610CL      CL71983   6.696   6.995  11.627  0.0710 -0.4073 -0.2500
53611CL      CL71984  11.641   6.460   6.338  0.2257 -0.0534 -0.3485
53612CL      CL71985   7.930   5.812   9.665 -0.0139  0.4460 -0.4070
53613CL      CL71986  10.563   3.980  10.801  0.3261 -0.3889  0.4798
53614CL      CL71987   4.401   8.007   6.114 -0.1420  0.1354  0.0408
53615CL      CL71988   0.730   1.762   2.927  0.0890  0.2270  0.5322
53616CL      CL71989   4.987   3.096   4.627 -0.1176 -0.4475  0.2728
53617CL      CL71990   9.399   6.115   9.225 -0.0026  0.0133 -0.0294
53618CL      CL71991   5.357  11.167   0.718  0.0823 -0.2952  0.2184
53619CL      CL71992   2.638   3.731   2.203  0.2334 -0.1523 -0.2235
53620CL      CL71993   7.406   7.788  10.963  0.2531  0.1493  0.5323
53621CL      CL71994   7.213   8.092   6.699  0.4204  0.3002  0.4630
53622CL      CL71995  10.562   8.969   9.404  0.0650 -0.0162  0.1774
53623CL      CL71996  10.344   2.910   9.678  0.0654 -0.1399 -0.1321
53624CL      CL71997   3.117   2.018   7.671 -0.0695 -0.2214 -0.4563
53625CL      CL71998  11.169  11.455   8.501 -0.2242  0.1325 -0.1789
53626CL      CL71999   3.785   6.591   7.591 -0.1357  0.4659  0.2498
53627CL      CL72000   9.763  10.408   8.365 -0.2833  0.0991 -0.0983
53628CL      CL72001  11.410   1.414  10.006  0.0509 -0.3313 -0.2600
53629CL      CL72002  11.805   1.887  10.353  0.0683 -0.1136 -0.0621
53630CL      CL72003  10.936  11.625   6.341  0.0199  0.1956  0.2518
53631CL      CL72004   6.950   4.051  10.975  0.1137  0.0883 -0.3299
53632CL      CL72005   9.169   5.116   6.997 -0.1267 -0.1893  0.1442
53633CL      CL72006   7.292  10.480   0.055  0.1179  0.1238  0.3351
53634CL      CL72007   7.437   3.142   4.425  0.0422 -0.1540 -0.0400
53635CL      CL72008   8.660   6.193  10.301 -0.3444 -0.2616 -0.3114
53636CL      CL72009  10.501   4.875   8.956 -0.1673  0.1127 -0.1850
53637CL      CL72010   3.536   1.685  10.379  0.1887 -0.1515 -0.3682
53638CL      CL72011   8.151   0.826  11.448 -0.0415 -0.4145 -0.1765
53639CL      CL72012   6.206   2.054   9.578 -0.1002  0.0892  0.1679
53640CL      CL72013   4.048   4.457   1.423  0.0962  0.0541 -0.0832
  11.95926  11.95926  11.95926
